G6.5Ocore-PETIM in water
208268
    1aaa     O1    1   9.959   4.601   6.971  0.0055  1.3686 -0.2168
    1aaa     C1    2   9.968   4.475   6.904 -0.4367  0.2224 -0.7161
    1aaa     H1    3   9.895   4.403   6.942 -0.6841  0.3911 -0.8690
    1aaa     H2    4  10.067   4.428   6.912  0.4753  1.5488 -3.2340
    1aaa     C2    5   9.960   4.596   7.117 -0.3518 -0.1113  0.4426
    1aaa     H3    6   9.981   4.693   7.165 -1.6719  1.1756 -1.4141
    1aaa     H4    7  10.028   4.521   7.158  1.9578  1.0953 -0.9762
    1aaa     C3    8   9.934   4.498   6.754 -0.2112 -0.0769 -0.2072
    1aaa     H5    9   9.996   4.578   6.713  0.1430 -1.1156 -1.8036
    1aaa     H6   10   9.827   4.522   6.748 -0.1770 -0.0425 -0.6679
    1aaa     C4   11   9.822   4.557   7.172 -0.7348 -0.4593  0.7082
    1aaa     H7   12   9.829   4.520   7.275 -1.3498 -3.6715 -0.2914
    1aaa     H8   13   9.783   4.471   7.116 -1.7192 -0.8275  1.9376
    1aaa     C5   14   9.971   4.372   6.668 -0.2227  0.0048 -0.0173
    1aaa     H9   15  10.072   4.336   6.691 -0.2623  0.1798  0.4431
    1aaa    H10   16   9.906   4.290   6.704  0.1562 -0.6067 -0.7072
    1aaa     C6   17   9.731   4.678   7.146 -0.2020  0.0053 -0.7758
    1aaa    H11   18   9.766   4.718   7.049  2.0030 -0.8638 -0.3919
    1aaa    H12   19   9.758   4.759   7.215 -1.5419  1.3176 -1.7248
    1aaa     N1   20   9.972   4.386   6.520  0.2350 -0.2156  0.2300
    1aaa     N2   21   9.584   4.656   7.153 -0.1047 -0.4014 -0.4248
    1aaa     C7   22   9.522   4.636   7.285  0.0122  0.4724  0.6288
    1aaa    H13   23   9.529   4.532   7.319 -0.7606 -0.0775 -0.7941
    1aaa    H14   24   9.584   4.703   7.345  1.7009 -0.4128 -0.0764
    1aaa     C8   25   9.532   4.577   7.047 -0.4085 -0.9962  0.1479
    1aaa    H15   26   9.568   4.475   7.064  1.6060  0.1837  3.8688
    1aaa    H16   27   9.424   4.569   7.065 -0.2226 -0.8809  1.3769
    1aaa     C9   28   9.846   4.444   6.462 -0.1054 -0.1629 -0.2859
    1aaa    H17   29   9.828   4.546   6.497 -1.7781 -0.3262 -0.6232
    1aaa    H18   30   9.853   4.437   6.352  2.2924 -2.9851 -0.0974
    1aaa    C10   31  10.097   4.447   6.463  0.5126 -0.0808 -0.0858
    1aaa    H19   32  10.084   4.437   6.355 -0.9823  3.1600 -0.3007
    1aaa    H20   33  10.102   4.556   6.476 -0.7534  0.4616 -3.3264
    1aaa    C11   34   9.377   4.692   7.292  0.8306  0.0767  0.4920
    1aaa    H21   35   9.374   4.793   7.336  1.5180 -0.2105  1.2319
    1aaa    H22   36   9.352   4.711   7.187  0.2368 -0.4609  0.5332
    1aaa    C12   37   9.560   4.626   6.912 -0.1009  0.4509  0.6039
    1aaa    H23   38   9.544   4.735   6.916  0.3321  0.4992  1.0218
    1aaa    H24   39   9.666   4.607   6.892  0.4388  2.8919  0.8382
    1aaa    C13   40   9.717   4.372   6.502 -0.3892 -0.5081 -0.1854
    1aaa    H25   41   9.722   4.263   6.489  0.2945 -0.5772  0.5777
    1aaa    H26   42   9.702   4.385   6.610  0.6143 -1.5481  0.0971
    1aaa    C14   43  10.238   4.391   6.499 -0.0716  0.0404 -0.9657
    1aaa    H27   44  10.245   4.384   6.608 -1.2801  0.2600 -0.8574
    1aaa    H28   45  10.234   4.289   6.459 -0.3973 -0.4983  0.4069
    1aaa    C15   46  10.364   4.470   6.455  0.2444 -0.0583  0.6829
    1aaa    H29   47  10.368   4.488   6.347  0.8332 -0.8160  0.5700
    1aaa    H30   48  10.361   4.566   6.508  1.3391  0.3039  0.1097
    1aaa    C16   49   9.602   4.423   6.423  0.5325 -0.6397  0.0711
    1aaa    H31   50   9.612   4.399   6.317 -2.1550 -0.0023 -0.4155
    1aaa    H32   51   9.509   4.376   6.460  0.2754 -1.0329 -1.0461
    1aaa    C17   52   9.460   4.557   6.815  0.3796  1.1707 -0.5291
    1aaa    H33   53   9.360   4.586   6.849  0.3031  0.1585  0.1399
    1aaa    H34   54   9.478   4.590   6.712 -0.7214  1.0921 -0.7566
    1aaa    C18   55   9.268   4.603   7.359 -0.2377 -0.5802 -0.3814
    1aaa    H35   56   9.272   4.513   7.296  0.1972 -0.9805  0.2079
    1aaa    H36   57   9.296   4.580   7.463 -2.8039  1.4622  0.8903
    2bbb     N1   58  10.834   4.722   6.629  0.1276 -0.5641  0.1414
    2bbb     C1   59  10.937   4.827   6.576  0.0406 -0.4051  0.7809
    2bbb     H1   60  11.011   4.770   6.520  1.1259  0.6465  1.1138
    2bbb     H2   61  10.990   4.868   6.663  1.7004 -2.2404  0.7128
    2bbb     C2   62  10.751   4.782   6.739 -0.3883 -0.1437 -0.1179
    2bbb     H3   63  10.673   4.707   6.758  0.0065 -1.0525 -1.8069
    2bbb     H4   64  10.690   4.864   6.700  1.5928  1.9020  0.8301
    2bbb     C3   65  10.759   4.655   6.521  0.1668  0.4283  0.4042
    2bbb     H5   66  10.828   4.607   6.450 -0.2670  2.3148 -1.4015
    2bbb     H6   67  10.713   4.736   6.463 -0.1204  0.1737  0.2745
    2bbb     C4   68  10.647   4.566   6.571  0.2513 -0.4699  0.0356
    2bbb     H7   69  10.560   4.633   6.579 -0.1673 -0.8817 -0.9853
    2bbb     H8   70  10.653   4.532   6.675 -2.1522  0.6594  0.6297
    2bbb     C5   71  10.880   4.941   6.486  0.2197 -0.5083  0.4277
    2bbb     H9   72  10.784   4.978   6.526  0.4684  2.0064 -1.0650
    2bbb    H10   73  10.850   4.909   6.385 -0.4647 -0.1327  0.5004
    2bbb     C6   74  10.828   4.818   6.873  0.5602 -0.4314  0.4932
    2bbb    H11   75  10.751   4.850   6.945  1.0984  0.0579  0.8603
    2bbb    H12   76  10.893   4.904   6.854  1.4301 -1.5596 -2.0946
    2bbb     C7   77  10.607   4.456   6.473  0.5023  0.8797  0.5842
    2bbb    H13   78  10.677   4.372   6.482 -0.8727 -0.6900 -2.0613
    2bbb    H14   79  10.613   4.497   6.371 -1.4059  2.3529  1.0031
    2bbb     C8   80  10.911   4.706   6.926  0.0009  0.4001 -0.0275
    2bbb    H15   81  10.947   4.670   6.830 -0.2511  1.2022 -0.4337
    2bbb    H16   82  10.848   4.627   6.970 -0.4751  1.2747  0.9256
    2bbb     C9   83  10.972   5.064   6.466 -0.5432  0.1346 -0.3279
    2bbb    H17   84  11.069   5.026   6.431 -0.3879  1.2644 -1.1877
    2bbb    H18   85  10.983   5.119   6.560 -0.2856  0.4179 -0.5241
    2bbb     O1   86  10.473   4.394   6.504  0.3436 -0.3616  0.2560
    3bbb     N1   87   9.334   4.933   6.476  0.1003 -0.0488  0.2557
    3bbb     C1   88   9.212   4.944   6.562  0.1697 -0.1789 -0.1356
    3bbb     H1   89   9.243   4.910   6.662  0.1458 -0.3416 -0.1834
    3bbb     H2   90   9.131   4.883   6.521 -0.5708  0.5557  0.1929
    3bbb     C2   91   9.451   5.016   6.524  0.2750  0.2847  0.5659
    3bbb     H3   92   9.417   5.121   6.523  1.1429  0.5952 -1.0516
    3bbb     H4   93   9.524   5.017   6.442 -0.3936  0.5352 -0.0456
    3bbb     C3   94   9.363   4.792   6.458 -0.0322  0.2125  1.0771
    3bbb     H5   95   9.274   4.731   6.439  0.2364  0.0566  0.2627
    3bbb     H6   96   9.403   4.750   6.551  2.4271  2.3993  1.1512
    3bbb     C4   97   9.463   4.760   6.343 -0.4181  0.1452 -0.3531
    3bbb     H7   98   9.558   4.812   6.362 -0.4782  0.6624 -1.4066
    3bbb     H8   99   9.423   4.793   6.247  0.0307 -0.7673 -0.8598
    3bbb     C5  100   9.157   5.086   6.574  0.1827  0.2366 -0.3234
    3bbb     H9  101   9.184   5.145   6.486 -0.6005  1.6993  0.3872
    3bbb    H10  102   9.202   5.147   6.653 -0.7204  1.5767 -0.8032
    3bbb     C6  103   9.516   4.986   6.664 -0.1216  0.0901  0.4045
    3bbb    H11  104   9.445   4.943   6.736 -2.4648  2.2885 -0.4369
    3bbb    H12  105   9.546   5.082   6.709 -0.8894 -0.2516  1.7282
    3bbb     C7  106   9.483   4.611   6.329 -0.0517  0.4302 -0.0542
    3bbb    H13  107   9.534   4.597   6.233  1.1773  1.3226  0.4367
    3bbb    H14  108   9.384   4.566   6.321 -0.1366  0.7432 -0.8932
    3bbb     C8  109   9.623   4.876   6.657  0.2934  0.9241  0.2277
    3bbb    H15  110   9.583   4.776   6.637 -2.0221  2.0292 -1.0391
    3bbb    H16  111   9.666   4.868   6.758  0.7194  1.1182  0.0661
    3bbb     C9  112   9.000   5.086   6.577  0.0573 -0.1401  0.2964
    3bbb    H17  113   8.974   5.015   6.656  0.6986 -0.2289  0.4348
    3bbb    H18  114   8.952   5.046   6.487  0.7121 -0.2807  0.0041
    3bbb     O1  115   9.571   4.566   6.433  0.0470  1.0254  0.6542
    4bbb     N1  116   9.497   4.052   7.012 -0.4891  0.5886  0.4486
    4bbb     C1  117   9.540   4.143   7.116 -0.0515 -0.3206  0.0780
    4bbb     H1  118   9.546   4.102   7.217 -0.5731  1.0711  0.7104
    4bbb     H2  119   9.474   4.231   7.123  0.6524  0.1119  1.6774
    4bbb     C2  120   9.394   3.950   7.052  0.2451 -0.5913  0.6125
    4bbb     H3  121   9.298   4.003   7.059  0.3565 -0.4392  1.1011
    4bbb     H4  122   9.415   3.897   7.146  0.1138 -0.7104  0.5732
    4bbb     C3  123   9.488   4.113   6.873 -0.7871 -0.1246  0.1920
    4bbb     H5  124   9.493   4.027   6.806  0.7995 -0.4459  0.6739
    4bbb     H6  125   9.581   4.165   6.850  0.3272 -1.9235  0.4369
    4bbb     C4  126   9.354   4.196   6.857 -0.4521 -0.3105 -0.0431
    4bbb     H7  127   9.324   4.232   6.955  0.1801  3.5938 -1.1296
    4bbb     H8  128   9.278   4.131   6.812 -1.6355  0.8844  0.2102
    4bbb     C5  129   9.682   4.197   7.093 -0.1003 -0.0105  0.2279
    4bbb     H9  130   9.662   4.300   7.061 -0.6434 -0.2284 -0.1623
    4bbb    H10  131   9.732   4.154   7.005 -0.2600  0.8392 -0.2862
    4bbb     C6  132   9.380   3.840   6.949 -0.5875 -0.2903 -1.0422
    4bbb    H11  133   9.479   3.792   6.943 -0.3795  0.0294 -0.3131
    4bbb    H12  134   9.354   3.892   6.856 -0.7739  0.9548 -0.3130
    4bbb     C7  135   9.368   4.324   6.770 -0.7330 -0.5150 -0.2006
    4bbb    H13  136   9.269   4.372   6.770 -0.4815  0.0611  1.5699
    4bbb    H14  137   9.399   4.297   6.668 -0.2430 -2.4310  0.4018
    4bbb     C8  138   9.276   3.730   6.990 -0.4122 -0.4210  0.6517
    4bbb    H15  139   9.316   3.693   7.085 -2.1748  0.2856  1.7101
    4bbb    H16  140   9.274   3.653   6.912  0.6291 -0.0431  0.2240
    4bbb     C9  141   9.775   4.190   7.211 -0.0728  0.1507 -0.1617
    4bbb    H17  142   9.785   4.085   7.241 -0.3648  0.4512  1.0614
    4bbb    H18  143   9.730   4.232   7.302 -0.2315 -2.9396  1.3169
    4bbb     O1  144   9.469   4.416   6.824 -0.0534  0.4558 -0.6313
    5bbb     N1  145   8.944   4.748   7.614 -0.6689 -0.4402 -0.2131
    5bbb     C1  146   8.901   4.620   7.687  0.5099 -0.7306  0.0544
    5bbb     H1  147   8.923   4.527   7.631  2.1886 -0.7449  0.6655
    5bbb     H2  148   8.792   4.627   7.691  0.5760  0.3496  0.1145
    5bbb     C2  149   8.922   4.880   7.694  0.2001  0.2656 -0.4832
    5bbb     H3  150   8.966   4.870   7.793 -1.9472  1.8163  0.7066
    5bbb     H4  151   8.813   4.884   7.703  0.0930 -0.0397 -1.4967
    5bbb     C3  152   8.872   4.762   7.482  0.5883 -0.5079 -0.1131
    5bbb     H5  153   8.897   4.852   7.425 -0.9360  0.1499  0.2055
    5bbb     H6  154   8.763   4.757   7.491  0.7512 -1.6845  1.6718
    5bbb     C4  155   8.902   4.645   7.386 -0.3402 -0.4380  0.0333
    5bbb     H7  156   8.874   4.668   7.282 -0.5663 -0.6993  0.0347
    5bbb     H8  157   8.822   4.575   7.412 -2.8084  1.5209 -1.7547
    5bbb     C5  158   8.970   4.612   7.826 -0.3224  0.3945  0.0340
    5bbb     H9  159   8.943   4.683   7.905  0.1756  0.5108  0.1064
    5bbb    H10  160   9.077   4.637   7.815  0.1675  0.3044  3.5650
    5bbb     C6  161   8.990   5.000   7.626  0.1707  0.0875  0.6831
    5bbb    H11  162   9.017   4.991   7.520 -0.7751 -0.3748  0.4668
    5bbb    H12  163   9.082   5.014   7.683  0.3714 -0.4140  0.4827
    5bbb     C7  164   9.036   4.581   7.395 -0.1503 -0.5803 -0.2558
    5bbb    H13  165   9.028   4.496   7.326 -3.9295 -0.8928  0.3520
    5bbb    H14  166   9.055   4.535   7.493  0.7247  0.7501  0.2137
    5bbb     C8  167   8.908   5.134   7.648 -0.3608 -0.1148 -0.1266
    5bbb    H15  168   8.962   5.219   7.606  0.3948 -1.4520 -1.9933
    5bbb    H16  169   8.901   5.148   7.756  1.8363  0.8920 -0.0590
    5bbb     C9  170   8.951   4.475   7.888 -0.3961  0.0537 -0.1935
    5bbb    H17  171   9.029   4.445   7.958  0.1663  1.3486 -0.2348
    5bbb    H18  172   8.967   4.395   7.815 -0.0440 -1.5173  1.5205
    5bbb     O1  173   9.139   4.671   7.347  0.0231  0.1869 -0.1836
    6bbb     N1  174  10.959   4.452   7.278  0.3304 -0.1919 -0.1116
    6bbb     C1  175  11.036   4.428   7.403 -0.3514 -0.2973 -0.6310
    6bbb     H1  176  11.120   4.498   7.414  0.9764 -1.8976 -0.2397
    6bbb     H2  177  11.078   4.327   7.406 -0.1043 -0.2229 -1.3813
    6bbb     C2  178  10.832   4.374   7.261  0.6884 -0.3065  0.3571
    6bbb     H3  179  10.783   4.393   7.165 -0.0796 -0.3655  0.7348
    6bbb     H4  180  10.764   4.422   7.332  0.8897  0.9753 -0.2800
    6bbb     C3  181  11.032   4.467   7.149  0.2578  0.0236 -0.4045
    6bbb     H5  182  10.961   4.490   7.068 -0.4780  1.9871  0.7561
    6bbb     H6  183  11.079   4.371   7.122 -0.9694 -0.7323  0.0501
    6bbb     C4  184  11.139   4.576   7.150  0.5729  0.3484 -0.1670
    6bbb     H7  185  11.234   4.521   7.159 -1.0712 -2.7452 -0.2208
    6bbb     H8  186  11.121   4.642   7.235 -1.6467 -0.7477  0.2896
    6bbb     C5  187  10.958   4.438   7.534  0.8385  0.0321  0.4140
    6bbb     H9  188  11.019   4.417   7.623 -0.8367 -0.1345  1.5619
    6bbb    H10  189  10.878   4.363   7.536  0.4919  0.3734 -0.3503
    6bbb     C6  190  10.845   4.224   7.281 -0.3206 -0.2724 -1.1407
    6bbb    H11  191  10.896   4.201   7.375 -2.3844 -0.5087 -0.0215
    6bbb    H12  192  10.903   4.185   7.196  0.7755 -0.9234 -0.1221
    6bbb     C7  193  11.149   4.662   7.019 -0.8990 -0.3573  0.0006
    6bbb    H13  194  11.167   4.607   6.926  0.8339  3.3771 -2.0767
    6bbb    H14  195  11.235   4.730   7.027  0.1999 -1.8304  1.7005
    6bbb     C8  196  10.711   4.151   7.293 -0.0451  0.0209  0.0614
    6bbb    H15  197  10.677   4.144   7.189  0.2025 -1.1975  0.0442
    6bbb    H16  198  10.642   4.218   7.346  0.0854  1.3946 -1.4530
    6bbb     C9  199  10.888   4.576   7.535  0.2655  0.0081  0.0456
    6bbb    H17  200  10.846   4.591   7.435  0.5955  1.0042  0.0415
    6bbb    H18  201  10.968   4.651   7.547  1.4962 -1.2370 -0.1967
    6bbb     O1  202  11.031   4.743   7.000 -0.2305  0.6794  0.0541
    7bbb     N1  203  10.895   5.246   5.935  0.3743 -0.1501  0.0163
    7bbb     C1  204  10.776   5.327   5.931  0.7310  0.6309 -0.2463
    7bbb     H1  205  10.720   5.319   6.025 -0.6235  0.6674 -1.0237
    7bbb     H2  206  10.704   5.292   5.856  0.4440  0.2543  0.1986
    7bbb     C2  207  10.909   5.162   5.810 -0.4040 -0.0658  0.6154
    7bbb     H3  208  11.018   5.149   5.802 -0.5152 -1.4711  1.1073
    7bbb     H4  209  10.879   5.224   5.724  0.6064 -0.5106 -0.0862
    7bbb     C3  210  10.937   5.187   6.065  0.6025  0.4277  0.0827
    7bbb     H5  211  11.036   5.143   6.048  0.4562 -0.3273  1.1049
    7bbb     H6  212  10.882   5.099   6.098 -0.4037  0.1217 -2.2386
    7bbb     C4  213  10.932   5.289   6.176  0.0388  0.0582  0.4517
    7bbb     H7  214  10.831   5.323   6.203  0.4446  1.3925  0.3525
    7bbb     H8  215  10.989   5.377   6.143 -1.7986  0.6582 -1.3290
    7bbb     C5  216  10.817   5.474   5.881  0.2303  0.3377  0.0424
    7bbb     H9  217  10.901   5.513   5.940  1.7111 -1.5945 -0.6703
    7bbb    H10  218  10.734   5.543   5.902  0.1877  0.3623 -0.2034
    7bbb     C6  219  10.827   5.033   5.805 -0.6811 -0.7462 -0.2289
    7bbb    H11  220  10.723   5.062   5.825 -0.0181  0.2946  2.0030
    7bbb    H12  221  10.867   4.967   5.882 -0.5755 -0.0868  0.2896
    7bbb     C7  222  11.001   5.230   6.295 -0.2481 -0.2795 -0.1017
    7bbb    H13  223  11.035   5.309   6.364  3.4594 -0.5196 -1.4385
    7bbb    H14  224  11.094   5.179   6.269  0.0896  0.0576  0.4277
    7bbb     C8  225  10.836   4.967   5.666  0.0571 -0.1434 -0.2940
    7bbb    H15  226  10.942   4.943   5.653  0.1850 -0.5589  1.3109
    7bbb    H16  227  10.814   5.041   5.588 -0.1507  2.2752  1.9280
    7bbb     C9  228  10.842   5.479   5.721 -0.7239  0.4225  0.1026
    7bbb    H17  229  10.819   5.583   5.692 -0.8045  0.5208  0.5063
    7bbb    H18  230  10.772   5.415   5.666  0.2198  1.8216 -2.9037
    7bbb     O1  231  10.911   5.147   6.362 -0.2346  0.0074 -0.5088
    8bbb     N1  232   9.780   4.831   6.223 -0.1905  0.4309 -0.2281
    8bbb     C1  233   9.696   4.906   6.124  0.1379 -0.0250 -0.1977
    8bbb     H1  234   9.642   4.974   6.191  0.6052 -0.6501  0.8277
    8bbb     H2  235   9.617   4.843   6.079  0.3217  0.2931 -0.9923
    8bbb     C2  236   9.862   4.719   6.174 -1.1643 -0.0633 -0.2352
    8bbb     H3  237   9.899   4.665   6.262 -1.7088  0.8406  0.5591
    8bbb     H4  238   9.947   4.754   6.113 -0.9045 -0.9020 -0.3743
    8bbb     C3  239   9.855   4.930   6.309 -1.2033 -0.1655  0.5437
    8bbb     H5  240   9.792   5.014   6.339 -2.9017 -0.8969 -0.8020
    8bbb     H6  241   9.938   4.971   6.250  1.3155 -3.1877  1.6986
    8bbb     C4  242   9.916   4.873   6.437 -0.5740 -0.0693 -0.1184
    8bbb     H7  243   9.977   4.954   6.480 -0.6780 -0.6769  1.2184
    8bbb     H8  244   9.983   4.792   6.407  0.0762  1.0741 -1.9494
    8bbb     C5  245   9.777   4.995   6.027 -0.5143  0.4154 -0.1707
    8bbb     H9  246   9.846   4.937   5.964 -0.5752  0.9520 -0.7325
    8bbb    H10  247   9.839   5.066   6.084  1.4777 -0.8869 -0.5895
    8bbb     C6  248   9.792   4.610   6.095  0.3218  0.3504  0.6891
    8bbb    H11  249   9.737   4.651   6.010  1.5019 -1.2706 -0.9195
    8bbb    H12  250   9.729   4.546   6.158 -0.4821  1.5806  1.1838
    8bbb     C7  251   9.810   4.814   6.525  0.6135  0.0024  0.7067
    8bbb    H13  252   9.851   4.771   6.617  1.0948  0.0990  0.5407
    8bbb    H14  253   9.761   4.734   6.468  0.8793  0.7708 -0.6378
    8bbb     C8  254   9.889   4.511   6.031  0.2345  0.3478  0.5298
    8bbb    H15  255   9.935   4.453   6.112  4.1594  1.3475 -0.7555
    8bbb    H16  256   9.977   4.550   5.979 -0.2200  1.4311  0.5368
    8bbb     C9  257   9.674   5.067   5.932  0.6828 -0.3380 -0.5709
    8bbb    H17  258   9.605   5.122   5.998  0.2930 -0.8588 -0.5320
    8bbb    H18  259   9.610   5.003   5.869  0.0561 -0.7864  0.4818
    8bbb     O1  260   9.721   4.917   6.566 -0.0145  0.4787  0.1258
    9bbb     N1  261   8.760   5.600   6.713  0.5032 -0.2483 -0.0929
    9bbb     C1  262   8.803   5.732   6.651  0.1782  0.3657 -0.4677
    9bbb     H1  263   8.912   5.746   6.653  0.0698  1.2461 -0.0796
    9bbb     H2  264   8.769   5.819   6.710  0.1786  0.5613 -0.7529
    9bbb     C2  265   8.769   5.603   6.863  0.3199  0.3530 -0.2984
    9bbb     H3  266   8.737   5.511   6.913  2.2089  0.9789  2.2297
    9bbb     H4  267   8.706   5.687   6.894  1.1458  0.3861  1.3629
    9bbb     C3  268   8.811   5.474   6.646 -0.5936  0.1008  0.1567
    9bbb     H5  269   8.920   5.467   6.649 -0.6487 -1.0877  0.0037
    9bbb     H6  270   8.794   5.494   6.539 -0.3323  1.1468  0.3009
    9bbb     C4  271   8.752   5.340   6.691  0.3929 -0.3407  0.2655
    9bbb     H7  272   8.643   5.340   6.682  0.4564 -0.3374 -0.5905
    9bbb     H8  273   8.784   5.326   6.795  2.4812  0.5559 -0.1822
    9bbb     C5  274   8.762   5.748   6.503 -0.4503 -0.7643 -0.9008
    9bbb     H9  275   8.825   5.689   6.436 -1.7530  0.3338 -3.1920
    9bbb    H10  276   8.782   5.850   6.469  1.6058 -0.2566  1.4949
    9bbb     C6  277   8.913   5.623   6.916  0.5435 -0.7469  0.2227
    9bbb    H11  278   8.953   5.715   6.871  0.3276 -1.6488 -1.9516
    9bbb    H12  279   8.982   5.540   6.896  1.1679 -0.1464 -0.1802
    9bbb     C7  280   8.801   5.216   6.609 -0.7360  0.1376 -0.9880
    9bbb    H13  281   8.777   5.233   6.504  1.2149  3.1164 -1.0873
    9bbb    H14  282   8.755   5.130   6.660  0.1694  1.2360  1.9218
    9bbb     C8  283   8.906   5.650   7.066 -0.4930  0.3444  0.4110
    9bbb    H15  284   8.871   5.754   7.063  0.2092  0.5651 -1.2192
    9bbb    H16  285   9.009   5.642   7.103 -0.1564 -1.6185 -0.8117
    9bbb     C9  286   8.612   5.734   6.481 -0.2861 -0.6421 -0.4162
    9bbb    H17  287   8.573   5.823   6.531  0.3795 -0.3289 -0.4418
    9bbb    H18  288   8.570   5.647   6.533  0.4175 -0.0926  1.1398
    9bbb     O1  289   8.949   5.218   6.605  0.5025 -0.1876 -0.2744
   10bbb     N1  290   8.748   3.616   7.057  0.4587 -0.4575 -0.1646
   10bbb     C1  291   8.631   3.548   7.111 -0.3326  0.0162  0.2540
   10bbb     H1  292   8.588   3.484   7.034 -0.1252  0.2151 -0.0290
   10bbb     H2  293   8.557   3.626   7.135 -0.4511 -0.1441  0.4176
   10bbb     C2  294   8.730   3.663   6.921 -0.2577  0.7798 -0.0685
   10bbb     H3  295   8.698   3.586   6.851 -2.0636  1.0249  0.4445
   10bbb     H4  296   8.830   3.694   6.886 -0.1234 -1.0895 -1.4942
   10bbb     C3  297   8.798   3.719   7.154 -0.4134  0.4959  0.3922
   10bbb     H5  298   8.835   3.671   7.245  1.2455 -2.3215 -1.5885
   10bbb     H6  299   8.723   3.794   7.181 -0.6976  0.1046  0.7083
   10bbb     C4  300   8.923   3.800   7.099  0.7638 -0.1291  0.6501
   10bbb     H7  301   8.937   3.886   7.164 -0.9932 -0.3508  1.3617
   10bbb     H8  302   8.888   3.840   7.003 -0.1447 -0.2469  0.9235
   10bbb     C5  303   8.651   3.476   7.241 -0.3711 -0.1994 -0.3243
   10bbb     H9  304   8.561   3.418   7.266 -0.3705  0.9773  2.8222
   10bbb    H10  305   8.662   3.552   7.319  2.2691 -0.1893 -0.6436
   10bbb     C6  306   8.624   3.772   6.897  0.3989 -0.3894 -0.5433
   10bbb    H11  307   8.647   3.849   6.972  0.4841 -2.4024  1.5941
   10bbb    H12  308   8.518   3.743   6.902  0.0895  0.8713  1.5043
   10bbb     C7  309   9.048   3.710   7.071  0.2491  0.0645 -0.3447
   10bbb    H13  310   9.018   3.630   7.002 -1.3192 -0.8655  1.3341
   10bbb    H14  311   9.080   3.663   7.165  1.5910 -0.7279 -1.1643
   10bbb     C8  312   8.646   3.838   6.768  0.6658 -0.0349  0.9654
   10bbb    H15  313   8.631   3.762   6.690  0.6485  1.4718 -0.5620
   10bbb    H16  314   8.752   3.868   6.758  1.6345 -3.6200 -2.0339
   10bbb     C9  315   8.766   3.366   7.232 -0.1831 -0.0022  0.3187
   10bbb    H17  316   8.861   3.418   7.216 -1.6684  2.5568 -0.7580
   10bbb    H18  317   8.741   3.295   7.152  0.1146 -0.6874  0.8286
   10bbb     O1  318   9.154   3.796   7.021 -0.1904 -0.1032 -0.2049
   11bbb     N1  319  10.232   3.976   7.043  0.0723 -0.1437  0.1501
   11bbb     C1  320  10.308   3.889   7.131  0.6974 -0.3953  0.3601
   11bbb     H1  321  10.236   3.844   7.200 -0.9296  0.5312 -0.6738
   11bbb     H2  322  10.383   3.948   7.186  0.6236 -1.2134  1.3822
   11bbb     C2  323  10.315   4.052   6.948  0.3042 -0.1108  0.1315
   11bbb     H3  324  10.389   3.980   6.911 -0.2234 -0.4801 -0.2238
   11bbb     H4  325  10.377   4.129   6.995  0.6596 -1.2667  1.6314
   11bbb     C3  326  10.113   4.042   7.111  0.1711 -0.2097  0.0307
   11bbb     H5  327  10.061   3.972   7.178  0.1722  0.2818  0.5470
   11bbb     H6  328  10.039   4.056   7.031 -0.0320 -2.1832 -0.1712
   11bbb     C4  329  10.139   4.181   7.178  0.1658 -0.3801 -0.0845
   11bbb     H7  330  10.181   4.261   7.116 -0.5712  0.2836  0.2555
   11bbb     H8  331  10.215   4.159   7.255 -0.6467 -0.9974  0.5591
   11bbb     C5  332  10.387   3.768   7.061  0.4212  0.1173  0.1584
   11bbb     H9  333  10.432   3.710   7.142 -1.6914 -1.2326  0.4334
   11bbb    H10  334  10.471   3.802   6.999  1.6640 -1.3821  0.9490
   11bbb     C6  335  10.230   4.100   6.821  0.5735  0.7071 -0.9374
   11bbb    H11  336  10.299   4.143   6.747 -0.3925  0.4961 -1.9988
   11bbb    H12  337  10.161   4.183   6.839 -0.7115 -0.7155  1.0798
   11bbb     C7  338  10.018   4.219   7.260  0.4772  0.0756 -0.4280
   11bbb    H13  339  10.034   4.305   7.326  0.2465  0.6442 -1.0958
   11bbb    H14  340   9.986   4.133   7.320 -0.8203 -0.8375 -2.3183
   11bbb     C8  341  10.153   3.981   6.762  0.0898 -0.5146 -0.2921
   11bbb    H15  342  10.063   3.955   6.818  1.6709 -0.4092  2.4767
   11bbb    H16  343  10.218   3.893   6.764 -0.0005 -0.5836 -0.4210
   11bbb     C9  344  10.290   3.670   6.987 -0.1163 -0.4323  0.0358
   11bbb    H17  345  10.245   3.730   6.907  1.3204 -2.1019 -2.1532
   11bbb    H18  346  10.214   3.635   7.057 -1.1050  2.0629  0.3226
   11bbb     O1  347   9.906   4.246   7.173 -0.2410 -0.5947 -0.1802
   12bbb     N1  348   8.391   4.964   7.563  0.0003 -0.0697 -0.0489
   12bbb     C1  349   8.319   4.896   7.670  0.5670 -0.3245  0.0603
   12bbb     H1  350   8.212   4.918   7.668  0.2057 -1.2125  3.1634
   12bbb     H2  351   8.340   4.947   7.765  0.5490 -2.2555  1.1524
   12bbb     C2  352   8.365   4.936   7.422 -0.3015  0.2751 -0.2895
   12bbb     H3  353   8.400   4.833   7.406  1.9055  0.6359  1.7488
   12bbb     H4  354   8.433   4.995   7.359 -0.9365 -0.3898 -1.6484
   12bbb     C3  355   8.526   5.005   7.596  0.5986 -0.1573 -0.7312
   12bbb     H5  356   8.599   4.960   7.528  2.9531 -0.5104  1.8528
   12bbb     H6  357   8.553   4.976   7.698 -0.8355  4.4077  1.2361
   12bbb     C4  358   8.539   5.157   7.576  0.4664  0.1258 -0.5466
   12bbb     H7  359   8.456   5.210   7.625  0.3088 -0.4682 -0.1602
   12bbb     H8  360   8.524   5.175   7.469  1.5311  2.9937 -0.3030
   12bbb     C5  361   8.337   4.743   7.676  0.6926  0.4526 -0.6266
   12bbb     H9  362   8.313   4.700   7.578 -0.3771 -0.4843  0.0204
   12bbb    H10  363   8.260   4.698   7.740  1.1378 -1.4485 -1.3538
   12bbb     C6  364   8.226   4.955   7.363  0.1357  0.1353  0.3954
   12bbb    H11  365   8.154   4.915   7.436 -1.7614  1.5656 -0.5954
   12bbb    H12  366   8.203   4.899   7.272  1.3005 -0.8824  0.7059
   12bbb     C7  367   8.676   5.205   7.623  0.0140 -0.7880  0.3619
   12bbb    H13  368   8.683   5.213   7.732  1.0202 -0.3008  0.2679
   12bbb    H14  369   8.697   5.301   7.574  1.6233 -0.4605  1.5922
   12bbb     C8  370   8.188   5.104   7.350  0.4994 -0.4679  0.0657
   12bbb    H15  371   8.195   5.146   7.451  0.9321 -1.1008  0.3039
   12bbb    H16  372   8.087   5.128   7.315 -0.1566 -0.2687  2.0096
   12bbb     C9  373   8.478   4.700   7.726  0.5106  0.0301  0.0599
   12bbb    H17  374   8.565   4.732   7.666  1.2752 -1.0027  0.5939
   12bbb    H18  375   8.473   4.591   7.718 -0.9164  0.1335 -0.7291
   12bbb     O1  376   8.776   5.111   7.588  0.3351 -0.6620 -0.3539
   13bbb     N1  377   8.474   4.257   7.783  0.1732 -0.2127  1.0960
   13bbb     C1  378   8.413   4.147   7.863  0.2387 -0.7611  0.0975
   13bbb     H1  379   8.488   4.077   7.902  0.2351 -0.6298  0.3422
   13bbb     H2  380   8.338   4.099   7.799 -1.9150  1.0275  1.1164
   13bbb     C2  381   8.535   4.196   7.662  0.6197 -0.4138  0.8900
   13bbb     H3  382   8.466   4.124   7.616 -0.6138 -0.8733  3.3162
   13bbb     H4  383   8.610   4.125   7.698  1.3732 -0.6808 -1.0663
   13bbb     C3  384   8.559   4.346   7.860 -0.4829  0.2634  0.5561
   13bbb     H5  385   8.507   4.391   7.945 -0.8712  1.2004 -0.1660
   13bbb     H6  386   8.582   4.439   7.806 -1.8607  0.1581 -0.2670
   13bbb     C4  387   8.688   4.278   7.911 -0.0124 -0.6564  0.2054
   13bbb     H7  388   8.755   4.262   7.826  0.1461  0.2649  0.1428
   13bbb     H8  389   8.667   4.184   7.964 -2.2438  0.9011  2.3068
   13bbb     C5  390   8.342   4.199   7.996  0.5515 -0.1114 -0.7384
   13bbb     H9  391   8.280   4.286   7.971 -0.2508 -0.6074 -0.5161
   13bbb    H10  392   8.408   4.227   8.079 -0.4208  1.2718 -0.3959
   13bbb     C6  393   8.587   4.296   7.553 -0.2471  0.1422  0.9729
   13bbb    H11  394   8.665   4.364   7.587  1.4570 -0.5465 -1.2703
   13bbb    H12  395   8.493   4.345   7.527 -0.7978 -1.0658  0.5768
   13bbb     C7  396   8.760   4.368   8.015 -0.1342  0.5140  0.4536
   13bbb    H13  397   8.835   4.313   8.073 -0.3999  1.0105  1.2737
   13bbb    H14  398   8.686   4.405   8.086 -0.5543 -0.9701  0.8208
   13bbb     C8  399   8.629   4.230   7.418 -0.5308 -0.3186 -0.5433
   13bbb    H15  400   8.732   4.197   7.437 -1.0266 -1.5754  0.0203
   13bbb    H16  401   8.637   4.308   7.340 -1.3102 -0.3686 -0.6799
   13bbb     C9  402   8.250   4.096   8.050  0.4685 -0.9451  0.2535
   13bbb    H17  403   8.202   4.029   7.977 -1.2090 -0.9220  1.3105
   13bbb    H18  404   8.164   4.148   8.092  1.5588  0.8337  0.3582
   13bbb     O1  405   8.817   4.474   7.940 -0.2520 -0.2426 -0.4909
   14bbb     N1  406  10.652   3.601   7.277 -0.1769  0.4774  0.4327
   14bbb     C1  407  10.585   3.497   7.366  0.4341 -0.3852 -0.2401
   14bbb     H1  408  10.548   3.541   7.460 -0.1744 -0.4717 -0.4312
   14bbb     H2  409  10.655   3.421   7.402  0.2725 -0.7707 -0.7324
   14bbb     C2  410  10.725   3.555   7.152  0.0422  0.2462  0.3891
   14bbb     H3  411  10.746   3.644   7.092 -1.3384  0.6602  0.4875
   14bbb     H4  412  10.660   3.504   7.080 -0.7843  1.9374 -0.1053
   14bbb     C3  413  10.729   3.706   7.351 -0.0342 -0.3576 -0.2633
   14bbb     H5  414  10.787   3.762   7.276  0.7214  0.2463  0.7397
   14bbb     H6  415  10.805   3.658   7.413 -0.1566 -1.0093 -0.6140
   14bbb     C4  416  10.628   3.809   7.426  0.3271  0.9547  0.2871
   14bbb     H7  417  10.674   3.836   7.522 -0.2722 -0.4673  1.0068
   14bbb     H8  418  10.532   3.762   7.448 -0.5031  2.2159 -0.5093
   14bbb     C5  419  10.465   3.434   7.296  0.1014 -0.0897 -0.0887
   14bbb     H9  420  10.507   3.392   7.204 -0.6219  0.0452 -0.4832
   14bbb    H10  421  10.394   3.509   7.259  1.2940 -0.4595 -3.3997
   14bbb     C6  422  10.849   3.470   7.160  0.0613 -0.0293  0.6677
   14bbb    H11  423  10.849   3.419   7.064  0.0203  0.5848  0.3349
   14bbb    H12  424  10.849   3.390   7.235  0.7398 -0.7781 -0.1182
   14bbb     C7  425  10.599   3.935   7.341  0.3072 -0.0124  0.1970
   14bbb    H13  426  10.519   3.994   7.387 -0.5062 -0.1711 -0.9830
   14bbb    H14  427  10.569   3.908   7.239 -0.3633 -1.0834  0.6550
   14bbb     C8  428  10.975   3.563   7.161  1.0515 -0.1841 -0.3205
   14bbb    H15  429  10.973   3.609   7.261  3.1212 -1.8192  0.5517
   14bbb    H16  430  10.969   3.631   7.075 -0.8429 -0.9233 -0.8314
   14bbb     C9  431  10.400   3.318   7.383 -0.5616  0.0870  0.3354
   14bbb    H17  432  10.360   3.357   7.478 -2.1272  0.1740 -0.3244
   14bbb    H18  433  10.474   3.238   7.400 -1.2310 -1.1768 -2.1488
   14bbb     O1  434  10.722   4.015   7.334 -0.7189  0.0335  0.0785
   15bbb     N1  435  10.697   4.855   7.865  0.6792 -0.0825  0.0546
   15bbb     C1  436  10.697   4.830   8.011  0.2587  0.3727  0.0440
   15bbb     H1  437  10.721   4.725   8.029  1.7793  0.7149  0.1686
   15bbb     H2  438  10.598   4.842   8.057 -0.2803 -1.7121 -0.4601
   15bbb     C2  439  10.650   4.991   7.834 -0.3434 -0.7479  0.3589
   15bbb     H3  440  10.667   5.013   7.728 -0.7852 -0.4846  0.3431
   15bbb     H4  441  10.708   5.067   7.889  2.0771 -0.2232 -2.6365
   15bbb     C3  442  10.825   4.838   7.791  1.0684 -0.1285  0.0314
   15bbb     H5  443  10.900   4.908   7.829  3.6498 -2.8298  0.3332
   15bbb     H6  444  10.811   4.854   7.684 -2.1673 -1.4690  0.1361
   15bbb     C4  445  10.892   4.705   7.814  0.0698  0.2975  0.2300
   15bbb     H7  446  10.903   4.690   7.922 -2.3277  2.0364  0.7906
   15bbb     H8  447  10.994   4.714   7.774  0.3351  0.2438  0.8841
   15bbb     C5  448  10.793   4.916   8.094  0.1901 -1.5001  0.1450
   15bbb     H9  449  10.782   5.025   8.084  2.0634 -1.1520  1.2479
   15bbb    H10  450  10.898   4.906   8.062  0.4940  0.5145  0.3645
   15bbb     C6  451  10.500   5.017   7.852 -0.8340  0.2322 -0.7269
   15bbb    H11  452  10.492   5.028   7.961 -0.1002 -0.5498 -0.5864
   15bbb    H12  453  10.439   4.931   7.821  1.6177 -1.6060 -0.7063
   15bbb     C7  454  10.815   4.576   7.767  0.5820 -0.6884 -0.1061
   15bbb    H13  455  10.719   4.582   7.820 -0.0990  1.7829 -1.4660
   15bbb    H14  456  10.868   4.482   7.785  1.8472 -0.0051 -0.1396
   15bbb     C8  457  10.445   5.146   7.777 -0.5776  0.1692 -0.3975
   15bbb    H15  458  10.514   5.229   7.801 -0.7335 -0.1485  1.2377
   15bbb    H16  459  10.343   5.157   7.816  0.1707  0.0286  1.7188
   15bbb     C9  460  10.785   4.895   8.247 -0.2890 -0.7492  0.4499
   15bbb    H17  461  10.856   4.971   8.282  0.3862 -1.6491  1.0571
   15bbb    H18  462  10.813   4.795   8.281  0.6246 -0.2534  1.1925
   15bbb     O1  463  10.783   4.585   7.633  0.1848 -0.2802 -0.0367
   16bbb     N1  464  10.417   4.623   5.615 -0.4101  0.4044  0.3672
   16bbb     C1  465  10.424   4.481   5.581  0.1862 -0.5411 -0.6731
   16bbb     H1  466  10.364   4.422   5.651 -0.4261  0.1879 -0.5701
   16bbb     H2  467  10.528   4.447   5.590  0.2969 -0.4908 -1.6292
   16bbb     C2  468  10.283   4.687   5.611  0.4258  0.1630  0.0262
   16bbb     H3  469  10.238   4.687   5.511 -0.0520 -1.8809  0.2035
   16bbb     H4  470  10.304   4.790   5.641  1.3769  0.4387 -1.4846
   16bbb     C3  471  10.520   4.709   5.552  0.3821  0.4831  0.1393
   16bbb     H5  472  10.510   4.809   5.596 -0.7985  0.4957 -0.1307
   16bbb     H6  473  10.508   4.704   5.443  3.2849  0.2326 -0.2421
   16bbb     C4  474  10.663   4.657   5.575 -0.3661 -1.2429  0.6736
   16bbb     H7  475  10.685   4.582   5.498  0.1980  0.4371 -0.8741
   16bbb     H8  476  10.682   4.615   5.674  2.9562 -0.1369  0.6535
   16bbb     C5  477  10.372   4.451   5.444 -0.2193  0.1810 -0.6098
   16bbb     H9  478  10.423   4.508   5.365  0.4671 -1.7168 -1.6108
   16bbb    H10  479  10.267   4.482   5.441  0.2372  1.7157 -1.4397
   16bbb     C6  480  10.177   4.632   5.714  0.4267  0.1447  0.6035
   16bbb    H11  481  10.165   4.524   5.700 -0.8510  0.4771 -1.3141
   16bbb    H12  482  10.075   4.665   5.690  0.8818  1.5526  0.4760
   16bbb     C7  483  10.758   4.778   5.551 -0.2245 -0.3486  0.3443
   16bbb    H13  484  10.733   4.851   5.473  2.7684  1.3045  0.7823
   16bbb    H14  485  10.860   4.740   5.537  0.3750  0.6929  1.6849
   16bbb     C8  486  10.204   4.683   5.855 -0.2422 -0.3924  0.2851
   16bbb    H15  487  10.311   4.680   5.881 -0.0282  0.6183 -0.4121
   16bbb    H16  488  10.157   4.619   5.931  1.5060 -1.7701  0.2466
   16bbb     C9  489  10.384   4.299   5.402  0.3842 -0.2150  0.2207
   16bbb    H17  490  10.337   4.243   5.484  2.1487 -1.7038  0.2775
   16bbb    H18  491  10.491   4.276   5.400  0.7600  1.4643 -1.2026
   16bbb     O1  492  10.751   4.855   5.669  0.3991  0.4120 -0.0760
   17bbb     N1  493  11.365   5.456   5.392  0.5893  0.5070 -0.0986
   17bbb     C1  494  11.468   5.550   5.450 -0.0020 -0.6748 -0.0554
   17bbb     H1  495  11.574   5.533   5.429  0.9525  3.7400  0.1767
   17bbb     H2  496  11.465   5.560   5.559 -0.8487  0.2564 -0.1485
   17bbb     C2  497  11.396   5.309   5.392 -0.1507 -0.6581  0.6626
   17bbb     H3  498  11.313   5.267   5.334 -0.0864 -0.2726  0.2891
   17bbb     H4  499  11.390   5.281   5.498  0.2339 -1.3706  0.5009
   17bbb     C3  500  11.221   5.488   5.410  0.8531  0.8469  0.6769
   17bbb     H5  501  11.164   5.410   5.358 -0.5648  0.5783  2.5179
   17bbb     H6  502  11.184   5.584   5.373 -2.6557  0.1623  1.9876
   17bbb     C4  503  11.175   5.467   5.555 -0.3350  0.3161  0.9541
   17bbb     H7  504  11.221   5.547   5.615 -0.2748  1.1782 -0.2097
   17bbb     H8  505  11.206   5.370   5.596 -1.1944 -1.3308 -1.9772
   17bbb     C5  506  11.444   5.698   5.400  0.7184  0.0507  0.5391
   17bbb     H9  507  11.342   5.730   5.426  0.9338  0.6118  0.6985
   17bbb    H10  508  11.449   5.689   5.291 -0.1766 -1.2148  0.5813
   17bbb     C6  509  11.528   5.267   5.332  0.1401 -0.2648 -0.8098
   17bbb    H11  510  11.611   5.301   5.396  0.0601 -0.4963 -0.5803
   17bbb    H12  511  11.534   5.316   5.234  0.8362 -2.3248 -1.8490
   17bbb     C7  512  11.019   5.469   5.570  0.3401  0.2523  0.3133
   17bbb    H13  513  10.974   5.398   5.499  1.8958 -0.2679 -0.2008
   17bbb    H14  514  10.990   5.568   5.535 -2.1952  0.4730  2.6788
   17bbb     C8  515  11.532   5.113   5.310 -0.1558  0.4229 -0.2543
   17bbb    H15  516  11.614   5.073   5.249  0.8321  1.2319  0.5269
   17bbb    H16  517  11.437   5.084   5.264  0.0746 -1.2480  0.2383
   17bbb     C9  518  11.554   5.794   5.448  0.3816 -0.2600  0.0345
   17bbb    H17  519  11.518   5.892   5.416 -0.2709 -0.8151 -0.9816
   17bbb    H18  520  11.651   5.778   5.399  0.4795  1.5577 -0.4515
   17bbb     O1  521  10.982   5.445   5.710 -0.4455 -0.1805  0.2703
   18bbb     N1  522   9.956   4.360   5.555 -0.3294 -0.7798  0.2311
   18bbb     C1  523  10.036   4.256   5.629 -0.4803  1.6988  1.2887
   18bbb     H1  524  10.002   4.249   5.733  0.3635 -0.0688  1.4962
   18bbb     H2  525  10.142   4.283   5.630  0.4724 -1.1536  5.7167
   18bbb     C2  526   9.992   4.382   5.413  0.3132  0.0993 -0.4951
   18bbb     H3  527   9.941   4.307   5.350 -1.9561 -0.1655  1.4911
   18bbb     H4  528  10.098   4.367   5.393  0.8718  3.8254 -1.0200
   18bbb     C3  529   9.812   4.348   5.571  0.4622  0.1436  0.4145
   18bbb     H5  530   9.778   4.254   5.526 -1.3575  0.8877  0.1526
   18bbb     H6  531   9.756   4.433   5.529  0.1265  0.2861  1.1288
   18bbb     C4  532   9.771   4.354   5.723 -0.1370 -0.6415 -1.2036
   18bbb     H7  533   9.794   4.257   5.770  1.5789  0.1267 -0.3675
   18bbb     H8  534   9.662   4.363   5.721 -0.0142  1.0010 -2.3036
   18bbb     C5  535  10.030   4.115   5.553  0.0352 -0.4052  0.2737
   18bbb     H9  536  10.077   4.117   5.454  0.2236  2.8309  0.3279
   18bbb    H10  537   9.926   4.084   5.537 -0.0344  0.5184 -1.2542
   18bbb     C6  538   9.969   4.532   5.367  0.1905  0.2994 -0.0099
   18bbb    H11  539  10.037   4.601   5.418 -0.7097  0.1205  1.5056
   18bbb    H12  540   9.866   4.561   5.393  0.7109  1.0084  1.3719
   18bbb     C7  541   9.834   4.466   5.803  0.1710 -0.0900  0.5223
   18bbb    H13  542   9.793   4.566   5.785 -0.4363 -0.0900  1.7770
   18bbb    H14  543   9.941   4.480   5.784  0.2723 -0.1469  1.0403
   18bbb     C8  544   9.993   4.540   5.218 -0.5435  0.0879  0.8915
   18bbb    H15  545  10.097   4.510   5.200 -0.1729  1.2656  0.9691
   18bbb    H16  546   9.985   4.640   5.173 -2.8738 -0.6928 -0.6187
   18bbb     C9  547  10.081   4.004   5.651 -0.2063 -0.0738  0.2433
   18bbb    H17  548  10.060   3.906   5.606 -1.2712 -0.4099  1.4176
   18bbb    H18  549  10.034   4.019   5.749 -1.3568 -2.2732  0.0894
   18bbb     O1  550   9.826   4.425   5.943  0.1319 -0.0071  0.1315
   19bbb     N1  551  10.055   5.367   5.516  0.1501 -0.6424  0.0678
   19bbb     C1  552  10.131   5.345   5.391 -0.0517  0.0293 -0.2497
   19bbb     H1  553  10.195   5.256   5.398  0.6489  0.5062 -0.4941
   19bbb     H2  554  10.197   5.431   5.376  0.5183 -0.1344  1.1713
   19bbb     C2  555   9.965   5.492   5.512 -0.0473 -0.1614  0.4312
   19bbb     H3  556   9.912   5.501   5.608  1.1910  0.4722  1.0829
   19bbb     H4  557   9.890   5.476   5.433 -2.0665  0.1032  2.1882
   19bbb     C3  558   9.967   5.251   5.553 -0.8573  0.0924 -0.5133
   19bbb     H5  559  10.037   5.172   5.581 -1.6609 -0.2766  0.5488
   19bbb     H6  560   9.903   5.221   5.469 -1.1053  1.7352 -0.9464
   19bbb     C4  561   9.881   5.264   5.685 -0.4372 -0.2375  0.7231
   19bbb     H7  562   9.794   5.329   5.664  0.8446  1.3570  0.1502
   19bbb     H8  563   9.937   5.321   5.760 -0.1212  0.7132 -0.1986
   19bbb     C5  564  10.051   5.324   5.262 -0.4254  0.0459  0.1347
   19bbb     H9  565   9.984   5.410   5.245 -0.9893 -0.6641 -1.4659
   19bbb    H10  566   9.983   5.239   5.272 -0.3697  0.2593  2.8539
   19bbb     C6  567  10.039   5.632   5.501 -0.7330 -0.0528 -0.2326
   19bbb    H11  568   9.979   5.720   5.479 -1.3747 -0.3381  0.3341
   19bbb    H12  569  10.101   5.614   5.412 -1.8880 -0.5352 -0.9541
   19bbb     C7  570   9.832   5.132   5.750 -0.5694 -0.3939 -0.2920
   19bbb    H13  571   9.919   5.079   5.791 -0.0455  0.2089 -0.6179
   19bbb    H14  572   9.792   5.072   5.667 -1.6455 -0.6624  0.3978
   19bbb     C8  573  10.127   5.654   5.629  0.2211 -0.9225  0.1231
   19bbb    H15  574  10.228   5.613   5.613  1.4888  1.5758  1.0392
   19bbb    H16  575  10.075   5.594   5.705 -0.2384 -1.8946 -0.9395
   19bbb     C9  576  10.144   5.298   5.145  0.2024 -0.2618 -0.4378
   19bbb    H17  577  10.084   5.296   5.053 -1.5400  0.9241  0.5940
   19bbb    H18  578  10.181   5.199   5.171  1.4330  0.9182  2.7969
   19bbb     O1  579   9.741   5.167   5.859  0.4483 -0.5642  0.6018
   20bbb     N1  580   8.770   5.108   7.120  0.3299  0.0138 -1.0370
   20bbb     C1  581   8.636   5.048   7.160 -0.5214  0.6117 -0.7311
   20bbb     H1  582   8.580   5.129   7.208  2.9138  2.3459  0.6795
   20bbb     H2  583   8.646   4.972   7.238  1.2719  0.4470 -1.0769
   20bbb     C2  584   8.861   5.001   7.079 -0.2185 -0.2109 -0.8845
   20bbb     H3  585   8.809   4.913   7.040 -0.7160 -0.3518  0.0697
   20bbb     H4  586   8.915   4.959   7.165  0.9070  1.1391 -0.8823
   20bbb     C3  587   8.826   5.188   7.233  0.3265 -0.7026 -0.3079
   20bbb     H5  588   8.935   5.195   7.229  0.2495  1.4645  0.4372
   20bbb     H6  589   8.794   5.138   7.326  0.3313  2.6014  1.6154
   20bbb     C4  590   8.781   5.336   7.238  1.1654  0.8070  0.8985
   20bbb     H7  591   8.805   5.378   7.336 -1.1717  2.3544  0.9028
   20bbb     H8  592   8.673   5.340   7.219  1.1528  2.1114  1.1471
   20bbb     C5  593   8.561   4.976   7.044  0.0222  0.4039  0.2178
   20bbb     H9  594   8.466   4.941   7.085 -0.3980 -0.8244 -1.6689
   20bbb    H10  595   8.610   4.887   7.002  2.1815  2.2975 -1.5331
   20bbb     C6  596   8.964   5.050   6.974  0.1619  0.7635 -0.7898
   20bbb    H11  597   9.005   5.151   6.986  3.2478 -0.4688 -0.2309
   20bbb    H12  598   8.912   5.058   6.877 -1.3758 -0.5467 -0.1260
   20bbb     C7  599   8.854   5.410   7.130  0.2443 -0.2729 -0.3802
   20bbb    H13  600   8.829   5.385   7.026 -0.0445  1.8405 -0.8714
   20bbb    H14  601   8.962   5.392   7.145 -0.2214 -0.3820  3.7394
   20bbb     C8  602   9.083   4.955   6.969 -0.4869 -0.4205  0.5678
   20bbb    H15  603   9.130   4.960   7.068 -0.9342 -0.5255  0.7916
   20bbb    H16  604   9.153   5.000   6.898 -1.9922 -0.2341 -0.8761
   20bbb     C9  605   8.533   5.075   6.927 -0.2469  0.3094  0.1766
   20bbb    H17  606   8.626   5.128   6.904 -0.1525  1.0971  2.1732
   20bbb    H18  607   8.467   5.152   6.968 -2.3505 -1.1431 -0.2942
   20bbb     O1  608   8.823   5.556   7.141 -0.0675  0.2913  0.7021
   21bbb     N1  609   8.292   5.921   6.050 -0.7383  0.0092  0.3377
   21bbb     C1  610   8.264   5.833   5.939  0.1527  0.0865  0.3773
   21bbb     H1  611   8.207   5.745   5.973 -1.3730  0.3846 -1.2679
   21bbb     H2  612   8.356   5.793   5.894 -0.6314 -1.9683  0.4880
   21bbb     C2  613   8.176   5.960   6.133 -0.3039 -0.1022 -0.9321
   21bbb     H3  614   8.142   5.874   6.193  2.6506  1.0175  2.7355
   21bbb     H4  615   8.093   5.987   6.066 -0.4866  0.2487 -0.5714
   21bbb     C3  616   8.415   5.880   6.124  0.7105  0.5965 -0.1471
   21bbb     H5  617   8.438   5.952   6.204 -0.1754  1.9860 -1.0913
   21bbb     H6  618   8.507   5.892   6.066  0.1763  0.0772 -1.1146
   21bbb     C4  619   8.407   5.738   6.183 -0.2887  0.7912 -0.4692
   21bbb     H7  620   8.472   5.668   6.129 -1.2024 -0.9676  0.6049
   21bbb     H8  621   8.307   5.693   6.171 -0.3641  1.1835 -1.3774
   21bbb     C5  622   8.172   5.886   5.827 -0.0553  0.8549 -0.2129
   21bbb     H9  623   8.069   5.882   5.867  0.4660 -1.9188  1.1042
   21bbb    H10  624   8.174   5.816   5.743 -0.2551  1.3051 -0.6022
   21bbb     C6  625   8.208   6.078   6.234 -0.3629 -0.2093 -0.1488
   21bbb    H11  626   8.230   6.169   6.177 -1.0161 -0.2065 -0.4143
   21bbb    H12  627   8.295   6.062   6.298 -2.2394 -1.6787  2.2010
   21bbb     C7  628   8.432   5.719   6.324 -0.2939  0.7253 -1.0879
   21bbb    H13  629   8.392   5.622   6.359  1.0042  0.5866  0.1072
   21bbb    H14  630   8.376   5.802   6.369  2.2289  2.6031 -1.2264
   21bbb     C8  631   8.088   6.105   6.324  0.3498  0.3990 -0.3897
   21bbb    H15  632   8.008   6.123   6.252 -1.8477  2.3209  2.3151
   21bbb    H16  633   8.099   6.194   6.386 -0.2735  0.9184 -1.0133
   21bbb     C9  634   8.203   6.022   5.767 -0.6390  0.0607 -0.2278
   21bbb    H17  635   8.307   6.017   5.734 -0.5125  0.3129  0.1293
   21bbb    H18  636   8.192   6.101   5.842  0.0669  1.1573 -1.2462
   21bbb     O1  637   8.576   5.739   6.346 -0.2467 -0.0427  0.2486
   22bbb     N1  638   8.225   4.222   6.793  0.1079 -0.3166 -0.6861
   22bbb     C1  639   8.237   4.351   6.863  0.1913 -0.5808  0.4178
   22bbb     H1  640   8.307   4.337   6.947 -0.2263 -3.8124  0.3466
   22bbb     H2  641   8.139   4.396   6.881 -0.3591 -0.9969 -1.3777
   22bbb     C2  642   8.085   4.173   6.794 -0.3854  0.0247 -0.1363
   22bbb     H3  643   8.013   4.250   6.762  1.1478  2.3495  1.6810
   22bbb     H4  644   8.054   4.145   6.896 -0.6975 -0.7748 -0.4435
   22bbb     C3  645   8.325   4.119   6.835 -0.8611 -0.5874  0.1148
   22bbb     H5  646   8.305   4.023   6.785 -1.9451  0.5958 -1.8611
   22bbb     H6  647   8.313   4.097   6.941 -2.0863  1.1190  0.3660
   22bbb     C4  648   8.473   4.170   6.805  0.2442 -0.0086  0.1969
   22bbb     H7  649   8.503   4.260   6.860  1.1808  1.1157 -1.9818
   22bbb     H8  650   8.480   4.202   6.700  0.4510  0.5544  0.3758
   22bbb     C5  651   8.292   4.454   6.762  0.3466  0.1797  0.0910
   22bbb     H9  652   8.205   4.473   6.698 -0.3174 -0.1078  0.8839
   22bbb    H10  653   8.377   4.425   6.699  0.3674  1.4480 -0.4812
   22bbb     C6  654   8.059   4.068   6.685 -0.2347 -0.2581 -0.5861
   22bbb    H11  655   8.114   3.975   6.700  1.1154  0.4029 -1.2761
   22bbb    H12  656   8.077   4.101   6.582 -0.5825  0.3325 -0.4646
   22bbb     C7  657   8.581   4.062   6.839 -0.0477  0.4853 -0.4638
   22bbb    H13  658   8.575   4.038   6.946 -1.6253 -0.5162 -0.7488
   22bbb    H14  659   8.679   4.109   6.823 -0.1248  0.7025 -0.3104
   22bbb     C8  660   7.906   4.034   6.682  0.6975  0.2114  0.1480
   22bbb    H15  661   7.849   4.125   6.664  0.2743 -0.2213 -0.7544
   22bbb    H16  662   7.876   3.984   6.776 -0.1288  1.4367  0.5613
   22bbb     C9  663   8.331   4.585   6.832  0.1329  0.4595  0.4248
   22bbb    H17  664   8.384   4.644   6.756 -0.3408  0.7648  0.3199
   22bbb    H18  665   8.407   4.573   6.910  1.1711  2.5431 -0.1837
   22bbb     O1  666   8.560   3.952   6.758 -0.3085  0.5964  0.3553
   23bbb     N1  667   8.805   2.947   7.667  0.0430 -0.3235 -0.1554
   23bbb     C1  668   8.741   2.824   7.701 -0.2324 -0.8167 -0.1650
   23bbb     H1  669   8.736   2.818   7.810  2.1233 -0.2865  0.0323
   23bbb     H2  670   8.812   2.745   7.672  1.2908  0.3230  0.3202
   23bbb     C2  671   8.917   2.987   7.753 -0.3874  0.0085 -0.0216
   23bbb     H3  672   8.872   3.026   7.844 -0.1482  1.8617 -0.6632
   23bbb     H4  673   8.977   3.068   7.709  2.5415 -1.5124  0.9123
   23bbb     C3  674   8.819   2.980   7.527 -0.4560  0.4963 -0.4836
   23bbb     H5  675   8.754   2.919   7.463 -0.4685  1.8518 -1.8082
   23bbb     H6  676   8.922   2.962   7.495  0.8236  2.3835  2.2131
   23bbb     C4  677   8.790   3.131   7.505 -0.4876  0.1290  0.2327
   23bbb     H7  678   8.850   3.203   7.562 -1.5280  1.2504 -0.0432
   23bbb     H8  679   8.685   3.146   7.533 -0.7327 -0.9953 -0.0223
   23bbb     C5  680   8.601   2.799   7.646  0.5012  0.4885  0.6783
   23bbb     H9  681   8.618   2.774   7.541 -1.3703  0.1583  0.4210
   23bbb    H10  682   8.536   2.888   7.654 -0.7876 -0.3965  0.4689
   23bbb     C6  683   9.026   2.886   7.792  0.0091  0.6805  0.3626
   23bbb    H11  684   8.985   2.817   7.867 -2.1174 -0.5658 -1.8216
   23bbb    H12  685   9.112   2.938   7.837 -0.2005  0.5127  0.9718
   23bbb     C7  686   8.812   3.171   7.359  0.4874 -0.1779  0.1582
   23bbb    H13  687   8.762   3.102   7.291  1.2237 -0.2570 -0.3133
   23bbb    H14  688   8.920   3.163   7.337  0.6188 -0.6390  0.9203
   23bbb     C8  689   9.085   2.801   7.675  0.0188 -0.2904 -0.0577
   23bbb    H15  690   9.118   2.868   7.594  2.2770  1.3743  2.0482
   23bbb    H16  691   9.008   2.737   7.632 -0.7577  0.1634  0.6191
   23bbb     C9  692   8.529   2.679   7.715  0.3998  0.1895  0.2264
   23bbb    H17  693   8.544   2.699   7.822  2.4256 -1.3765  0.3138
   23bbb    H18  694   8.594   2.594   7.691  1.9334  1.0582  1.1060
   23bbb     O1  695   8.772   3.310   7.363 -0.0526 -0.0962  0.1545
   24bbb     N1  696   9.937   4.031   6.216 -0.5647  0.1056  0.2825
   24bbb     C1  697   9.821   4.121   6.180 -0.1415 -0.0329 -0.5045
   24bbb     H1  698   9.845   4.226   6.203  3.6241 -1.0223  0.9546
   24bbb     H2  699   9.734   4.102   6.243 -0.1908  1.3529 -0.1265
   24bbb     C2  700  10.066   4.024   6.131 -0.1314  0.5965 -0.4686
   24bbb     H3  701  10.031   4.022   6.027  1.8612 -3.6628 -1.2686
   24bbb     H4  702  10.105   3.923   6.148  1.8532  1.4416  0.3214
   24bbb     C3  703   9.961   4.037   6.360  0.6672  0.1873 -0.8165
   24bbb     H5  704   9.868   4.038   6.418  2.3610  0.3872  2.0747
   24bbb     H6  705  10.009   4.135   6.376  2.7728 -0.6106 -1.8667
   24bbb     C4  706  10.047   3.921   6.412 -0.0247 -1.0608  0.7955
   24bbb     H7  707  10.149   3.928   6.374 -0.5477 -0.0193 -0.4760
   24bbb     H8  708  10.006   3.827   6.374  0.1185  0.2518 -2.9854
   24bbb     C5  709   9.792   4.114   6.033  0.4306 -0.4811 -0.2829
   24bbb     H9  710   9.867   4.175   5.981 -0.2334  0.5511 -0.0716
   24bbb    H10  711   9.693   4.157   6.014  0.6117  0.2111  0.2868
   24bbb     C6  712  10.182   4.129   6.157 -0.2417 -0.0328  0.0930
   24bbb    H11  713  10.272   4.101   6.102 -0.9959  0.6634 -1.5693
   24bbb    H12  714  10.204   4.130   6.265 -1.4914 -1.6221  0.3940
   24bbb     C7  715  10.047   3.905   6.568 -0.5209  0.1574 -0.1781
   24bbb    H13  716  10.087   3.806   6.595 -1.7709 -0.2966  0.1189
   24bbb    H14  717   9.947   3.903   6.613 -0.1084  0.1981  0.7638
   24bbb     C8  718  10.140   4.269   6.109  0.2059 -0.3130  0.6453
   24bbb    H15  719  10.053   4.292   6.171  0.3579 -1.9549  1.5144
   24bbb    H16  720  10.099   4.262   6.008 -0.3565 -0.2080  0.8654
   24bbb     C9  721   9.769   3.977   5.967  0.2613  0.1172 -0.4107
   24bbb    H17  722   9.697   3.914   6.021  0.3665 -1.4038 -1.9643
   24bbb    H18  723   9.862   3.918   5.972 -1.1634 -2.1240  1.5159
   24bbb     O1  724  10.121   4.014   6.628  0.4729  0.1526  0.1576
   25bbb     N1  725  10.612   3.302   6.698  0.3931 -0.0688  0.9577
   25bbb     C1  726  10.542   3.187   6.625  0.4824 -0.4239 -0.1525
   25bbb     H1  727  10.452   3.158   6.681  0.6388  0.6715  0.7203
   25bbb     H2  728  10.607   3.099   6.628 -0.2820 -0.9833  0.4714
   25bbb     C2  729  10.739   3.255   6.764  0.3271  0.1692 -0.4474
   25bbb     H3  730  10.727   3.168   6.830  2.8600  1.0091  1.2732
   25bbb     H4  731  10.764   3.333   6.836 -1.5597  0.0318  0.4100
   25bbb     C3  732  10.527   3.362   6.799 -0.7197  0.0200 -0.3838
   25bbb     H5  733  10.568   3.453   6.846 -0.2892 -0.6477  0.5603
   25bbb     H6  734  10.508   3.285   6.874 -2.2217 -0.0796 -0.8283
   25bbb     C4  735  10.392   3.408   6.743  0.1335  0.6076  0.1824
   25bbb     H7  736  10.338   3.324   6.698 -2.0557  1.2486  1.4477
   25bbb     H8  737  10.417   3.484   6.668 -1.6824  0.9964 -0.0835
   25bbb     C5  738  10.507   3.226   6.474 -0.3063 -0.1740 -0.3343
   25bbb     H9  739  10.597   3.280   6.441 -0.1988 -0.7548 -0.9884
   25bbb    H10  740  10.420   3.292   6.473  0.5566  0.9912 -0.5630
   25bbb     C6  741  10.864   3.230   6.674  0.4549  0.1302 -0.7790
   25bbb    H11  742  10.876   3.315   6.605 -0.2805  1.9475  1.2378
   25bbb    H12  743  10.837   3.139   6.618 -0.7070 -2.2807  3.2819
   25bbb     C7  744  10.297   3.467   6.850 -0.6808 -0.3709 -0.0242
   25bbb    H13  745  10.257   3.383   6.907  2.0827 -0.9901  1.1573
   25bbb    H14  746  10.212   3.518   6.802  0.0788  0.5637 -0.4170
   25bbb     C8  747  10.999   3.202   6.758  0.3397  0.1888 -0.2299
   25bbb    H15  748  11.018   3.274   6.839  1.5578  0.3929 -0.6832
   25bbb    H16  749  11.087   3.207   6.693  2.4347 -0.9871  2.3100
   25bbb     C9  750  10.471   3.098   6.385 -0.1927 -0.7703 -0.4025
   25bbb    H17  751  10.570   3.057   6.360  0.2740 -0.3188  0.6308
   25bbb    H18  752  10.422   3.122   6.290 -5.1229 -2.5113  1.4069
   25bbb     O1  753  10.370   3.567   6.934  0.3681  0.1696  0.1298
   26bbb     N1  754   8.367   5.593   6.998 -1.0883 -0.1438  0.3269
   26bbb     C1  755   8.479   5.664   7.059 -0.3088  0.9303  0.2523
   26bbb     H1  756   8.533   5.722   6.983  1.4494  1.5990  1.8976
   26bbb     H2  757   8.552   5.593   7.099 -1.1551 -0.5480 -0.7408
   26bbb     C2  758   8.396   5.551   6.861  0.1159  0.2660 -0.2457
   26bbb     H3  759   8.484   5.486   6.867  1.3006  1.8191 -0.0394
   26bbb     H4  760   8.433   5.628   6.792  0.0740 -1.2364 -2.0047
   26bbb     C3  761   8.279   5.505   7.083  0.4772 -0.1688  0.5517
   26bbb     H5  762   8.192   5.470   7.026  1.4137  1.2285 -1.8848
   26bbb     H6  763   8.233   5.569   7.160 -1.3852  1.0083 -1.4349
   26bbb     C4  764   8.344   5.373   7.142  0.0739  0.2268  0.3148
   26bbb     H7  765   8.432   5.401   7.201 -1.4232  0.1320  2.7291
   26bbb     H8  766   8.363   5.306   7.058 -1.0488 -1.2858  1.2159
   26bbb     C5  767   8.443   5.759   7.171 -0.6885 -0.1729  0.4026
   26bbb     H9  768   8.409   5.692   7.251 -0.9855 -0.4744  0.0287
   26bbb    H10  769   8.357   5.824   7.148  1.3324  2.4419 -0.2119
   26bbb     C6  770   8.280   5.485   6.783 -0.0424 -0.3999 -0.5346
   26bbb    H11  771   8.192   5.549   6.796  0.5888  0.0587  2.2425
   26bbb    H12  772   8.258   5.389   6.831  1.7722 -0.8923 -0.6093
   26bbb     C7  773   8.252   5.308   7.248  0.5062 -0.1974 -0.4953
   26bbb    H13  774   8.149   5.337   7.221 -0.4746 -2.5812  0.4713
   26bbb    H14  775   8.269   5.355   7.346 -1.5493  0.6111 -0.4625
   26bbb     C8  776   8.307   5.482   6.632  0.3757 -0.4761  0.2475
   26bbb    H15  777   8.407   5.440   6.619 -0.2682 -1.7996 -0.6325
   26bbb    H16  778   8.297   5.583   6.592 -1.9517 -0.3520  0.9658
   26bbb     C9  779   8.571   5.833   7.215  0.5331 -0.2780 -0.3633
   26bbb    H17  780   8.656   5.765   7.229  0.4570  0.0002  1.6404
   26bbb    H18  781   8.549   5.882   7.310 -0.3965 -0.1200 -0.6498
   26bbb     O1  782   8.275   5.168   7.257  0.1774  0.2572 -0.0815
   27bbb     N1  783   8.620   5.050   8.107 -0.2238  0.5928  0.3136
   27bbb     C1  784   8.472   5.067   8.126 -0.3098 -0.6142 -0.3899
   27bbb     H1  785   8.447   5.155   8.186  0.7619 -2.4497  3.1104
   27bbb     H2  786   8.429   4.999   8.201 -1.3852  0.3986 -0.0543
   27bbb     C2  787   8.677   5.181   8.075 -0.0751 -0.3404  0.0792
   27bbb     H3  788   8.614   5.263   8.112 -1.4318  0.0889 -2.8397
   27bbb     H4  789   8.668   5.206   7.968 -1.3894  0.8715  0.4358
   27bbb     C3  790   8.654   4.945   8.009  0.5470 -0.1515  0.2129
   27bbb     H5  791   8.762   4.937   7.993  0.7175  2.9141 -0.8624
   27bbb     H6  792   8.608   4.967   7.912 -2.5479  0.7086  1.7412
   27bbb     C4  793   8.617   4.798   8.055  0.5849 -0.6865 -0.1435
   27bbb     H7  794   8.520   4.805   8.106  0.2353  1.5907 -1.0445
   27bbb     H8  795   8.684   4.753   8.129  0.9050  1.5363  0.9968
   27bbb     C5  796   8.381   5.066   8.015  0.3910 -0.4098  0.2752
   27bbb     H9  797   8.277   5.067   8.048 -0.3055 -1.4179 -1.7565
   27bbb    H10  798   8.390   4.973   7.959  0.4314 -0.0612 -0.3085
   27bbb     C6  799   8.824   5.189   8.114 -0.5015 -0.0063 -0.0660
   27bbb    H11  800   8.883   5.110   8.065  0.6155  0.4388  0.5294
   27bbb    H12  801   8.839   5.172   8.221  2.9623  0.0412 -0.4410
   27bbb     C7  802   8.600   4.703   7.938  0.0203  0.0341  0.5340
   27bbb    H13  803   8.578   4.599   7.969 -0.1621 -0.6865 -1.8136
   27bbb    H14  804   8.697   4.690   7.889 -0.1063 -3.8111  0.9775
   27bbb     C8  805   8.891   5.320   8.067 -0.7720 -0.2214  0.1952
   27bbb    H15  806   9.000   5.320   8.083 -0.4069  0.3149 -2.0153
   27bbb    H16  807   8.851   5.409   8.116 -2.0293 -0.1782 -0.8718
   27bbb     C9  808   8.415   5.171   7.908  0.0916  0.5100 -0.2828
   27bbb    H17  809   8.336   5.161   7.833 -1.8429 -0.5609  1.7406
   27bbb    H18  810   8.510   5.151   7.857 -0.7256  0.5919 -1.8995
   27bbb     O1  811   8.497   4.757   7.853 -0.2481  0.0918 -0.1444
   28bbb     N1  812   8.254   3.822   7.251  0.2775 -0.2783 -0.0362
   28bbb     C1  813   8.111   3.867   7.250 -0.6351  0.5792 -0.6315
   28bbb     H1  814   8.077   3.909   7.345 -2.5585 -1.3945 -0.3760
   28bbb     H2  815   8.042   3.782   7.247  0.5842 -0.5197  0.9017
   28bbb     C2  816   8.289   3.708   7.343 -0.5614 -0.3037 -0.2429
   28bbb     H3  817   8.257   3.741   7.443  0.4163 -1.6779  0.5649
   28bbb     H4  818   8.395   3.679   7.344 -0.4053  0.2267 -0.9468
   28bbb     C3  819   8.347   3.942   7.266  0.4472  0.5441  0.0333
   28bbb     H5  820   8.326   4.003   7.354  0.4516  1.3680 -0.5211
   28bbb     H6  821   8.325   4.012   7.183  1.2571 -0.6808 -1.2653
   28bbb     C4  822   8.500   3.907   7.270 -0.6248 -0.2668 -0.5633
   28bbb     H7  823   8.513   3.851   7.178  3.8660 -0.1729 -0.1979
   28bbb     H8  824   8.534   3.837   7.347  1.9051  2.4941  1.0650
   28bbb     C5  825   8.064   3.962   7.136 -0.4125 -0.0916 -0.6093
   28bbb     H9  826   8.112   3.934   7.041  0.1008  0.2669 -0.4641
   28bbb    H10  827   8.113   4.052   7.175 -1.2578 -0.1210  0.5527
   28bbb     C6  828   8.212   3.575   7.311  0.2256  0.6031  0.0467
   28bbb    H11  829   8.231   3.532   7.213  1.0192 -0.1368  0.5135
   28bbb    H12  830   8.107   3.604   7.321  0.1764  0.7895 -0.9349
   28bbb     C7  831   8.585   4.039   7.277  0.4807  0.3656  0.6835
   28bbb    H13  832   8.582   4.095   7.183  0.2635  1.1521  1.1425
   28bbb    H14  833   8.691   4.021   7.296  0.6903  0.4840 -0.3527
   28bbb     C8  834   8.244   3.475   7.427 -0.0111 -0.2886  0.2658
   28bbb    H15  835   8.184   3.386   7.404 -0.5878  0.1611  0.0030
   28bbb    H16  836   8.208   3.516   7.523  1.3424 -0.7476  1.0039
   28bbb     C9  837   7.913   3.977   7.128 -0.2988 -0.4813 -0.4665
   28bbb    H17  838   7.872   3.999   7.227 -0.5347  0.0032 -0.6695
   28bbb    H18  839   7.894   3.876   7.089  1.5395 -0.9117 -0.3581
   28bbb     O1  840   8.541   4.124   7.388  0.0654 -0.0406  0.1865
   29bbb     N1  841   8.183   3.644   8.504  1.1414  0.1309  0.1942
   29bbb     C1  842   8.071   3.549   8.534  0.3942  0.6181  0.0997
   29bbb     H1  843   8.069   3.477   8.451  3.4279  0.6054 -0.0689
   29bbb     H2  844   7.977   3.606   8.537  0.5055  0.8898 -0.9710
   29bbb     C2  845   8.322   3.584   8.522 -0.1979 -0.3415 -0.2592
   29bbb     H3  846   8.333   3.523   8.613 -0.2629 -1.1113 -0.7533
   29bbb     H4  847   8.399   3.660   8.538 -0.2977 -0.3244  0.1617
   29bbb     C3  848   8.166   3.716   8.377  0.5696 -0.4296  1.0143
   29bbb     H5  849   8.065   3.758   8.383  0.5391  0.2499 -2.3303
   29bbb     H6  850   8.164   3.649   8.290  0.2450 -0.1491  0.8029
   29bbb     C4  851   8.264   3.840   8.357  0.2774 -0.2483 -0.6028
   29bbb     H7  852   8.367   3.806   8.340  0.5173  0.2009 -0.0566
   29bbb     H8  853   8.267   3.896   8.451  2.1440 -1.4623  0.1122
   29bbb     C5  854   8.081   3.476   8.674 -0.1714 -0.5631  1.0933
   29bbb     H9  855   8.095   3.558   8.746 -1.3438  1.8883 -1.2762
   29bbb    H10  856   8.174   3.421   8.693 -0.1614 -0.1178  2.4309
   29bbb     C6  857   8.387   3.503   8.405 -0.7794 -0.4214 -0.5350
   29bbb    H11  858   8.494   3.491   8.427 -0.9240  0.0203  0.4579
   29bbb    H12  859   8.379   3.563   8.313 -0.4822  0.3714 -0.0600
   29bbb     C7  860   8.208   3.937   8.248 -0.5486  0.3731  0.5843
   29bbb    H13  861   8.147   4.004   8.310 -0.3058  0.8351  0.3293
   29bbb    H14  862   8.138   3.886   8.181 -1.2175 -0.2391  1.7156
   29bbb     C8  863   8.328   3.356   8.375 -0.5478  0.4091  0.3063
   29bbb    H15  864   8.365   3.315   8.281 -0.4598 -1.0167  0.9309
   29bbb    H16  865   8.218   3.356   8.373 -0.5523  1.2220  0.1827
   29bbb     C9  866   7.955   3.389   8.709 -0.2989  0.1254 -1.0115
   29bbb    H17  867   7.973   3.308   8.780  0.0621  0.9483 -0.1377
   29bbb    H18  868   7.912   3.348   8.617 -0.0838 -0.5267 -0.8256
   29bbb     O1  869   8.307   4.013   8.162 -0.0423 -0.8169 -0.4382
   30bbb     N1  870  11.496   3.395   6.952  0.5396 -0.2527 -0.1099
   30bbb     C1  871  11.510   3.395   6.803  0.1520 -0.2930 -0.2166
   30bbb     H1  872  11.610   3.436   6.785 -0.6250  0.1963 -4.1986
   30bbb     H2  873  11.443   3.463   6.749  0.2836  0.4178  0.4810
   30bbb     C2  874  11.566   3.292   7.031 -0.2362  0.2014  0.4289
   30bbb     H3  875  11.517   3.195   7.023 -1.8860  0.7906  2.4574
   30bbb     H4  876  11.535   3.311   7.135 -1.5268 -0.1032  0.1235
   30bbb     C3  877  11.356   3.395   6.993  0.2749  0.6336 -0.0555
   30bbb     H5  878  11.321   3.292   6.978 -1.1721  0.9823  0.7151
   30bbb     H6  879  11.291   3.453   6.925 -1.3612  0.6588  1.4632
   30bbb     C4  880  11.330   3.442   7.136 -0.0764  0.0184 -0.2456
   30bbb     H7  881  11.420   3.500   7.161  0.2764 -0.5857 -0.0987
   30bbb     H8  882  11.325   3.356   7.204 -3.6547  0.2781 -0.0027
   30bbb     C5  883  11.486   3.255   6.747 -0.0241  0.5025 -0.4567
   30bbb     H9  884  11.394   3.217   6.791 -0.6741  0.7329 -1.5782
   30bbb    H10  885  11.566   3.185   6.773  1.0312  0.6278 -2.9950
   30bbb     C6  886  11.717   3.270   7.011 -0.0313  0.9213  0.7686
   30bbb    H11  887  11.736   3.239   6.908  0.5927 -3.1650  1.9241
   30bbb    H12  888  11.736   3.183   7.075 -0.6955  1.0738  1.1793
   30bbb     C7  889  11.217   3.535   7.170  1.2839 -0.1032 -0.6392
   30bbb    H13  890  11.219   3.621   7.102  0.2989  0.1870 -0.3234
   30bbb    H14  891  11.225   3.570   7.274 -1.6181 -1.8539  0.3126
   30bbb     C8  892  11.803   3.397   7.034 -0.9173  0.2425 -0.2687
   30bbb    H15  893  11.830   3.397   7.140 -1.5267 -0.7179 -0.0934
   30bbb    H16  894  11.739   3.485   7.018 -0.3366  0.9069  0.9761
   30bbb     C9  895  11.481   3.248   6.588  0.5012  0.1557 -0.4329
   30bbb    H17  896  11.516   3.149   6.558 -1.0238 -0.7918  0.7578
   30bbb    H18  897  11.551   3.319   6.543  0.9026 -0.0286 -0.0974
   30bbb     O1  898  11.086   3.475   7.155 -0.1070  0.4419  0.3292
   31bbb     N1  899   9.918   3.199   7.522 -0.1376  0.4958  0.3527
   31bbb     C1  900   9.780   3.220   7.464 -0.2419 -0.4902  0.3253
   31bbb     H1  901   9.772   3.319   7.419 -0.3474 -0.5656  0.1783
   31bbb     H2  902   9.695   3.209   7.532 -1.5400  1.7824 -0.8498
   31bbb     C2  903   9.944   3.287   7.643  0.0887  0.1400  0.4734
   31bbb     H3  904   9.966   3.388   7.606  0.9151 -0.2084 -0.0341
   31bbb     H4  905  10.036   3.256   7.694  0.0895  0.2119  0.5147
   31bbb     C3  906  10.026   3.203   7.418  0.4872 -0.2406 -0.0204
   31bbb     H5  907  10.046   3.305   7.383 -0.0930 -0.2895 -0.5226
   31bbb     H6  908   9.998   3.145   7.329  1.8331  0.4187 -0.9077
   31bbb     C4  909  10.156   3.135   7.462 -0.7433 -0.0609  0.4582
   31bbb     H7  910  10.126   3.037   7.500 -2.2235  0.4966  0.7738
   31bbb     H8  911  10.206   3.194   7.541  0.2152 -0.0497 -0.1435
   31bbb     C5  912   9.745   3.124   7.347 -0.0675 -0.4355  0.0818
   31bbb     H9  913   9.802   3.152   7.257 -0.2498  2.6361  0.8042
   31bbb    H10  914   9.640   3.142   7.321  0.1635  2.4456  0.7258
   31bbb     C6  915   9.827   3.283   7.746  0.7362  0.0518  0.1650
   31bbb    H11  916   9.815   3.181   7.783 -0.2730 -0.0378 -0.3644
   31bbb    H12  917   9.724   3.301   7.711  0.3196 -0.5047  1.0616
   31bbb     C7  918  10.250   3.128   7.343  0.8365  0.0842 -0.5366
   31bbb    H13  919  10.206   3.073   7.259 -0.2500  1.6049 -1.0072
   31bbb    H14  920  10.338   3.066   7.366  0.2583 -0.1579  1.1879
   31bbb     C8  921   9.853   3.378   7.869 -0.1827  0.9054 -0.0938
   31bbb    H15  922   9.759   3.394   7.925  1.0598  0.4756  2.2311
   31bbb    H16  923   9.891   3.478   7.844 -0.1699  1.6449  2.5277
   31bbb     C9  924   9.776   2.969   7.380  0.3433 -0.2124  0.2864
   31bbb    H17  925   9.712   2.930   7.460  3.7902 -0.8515  3.0091
   31bbb    H18  926   9.882   2.960   7.409  0.5029  0.4577 -0.0927
   31bbb     O1  927  10.295   3.263   7.308  0.1005  0.4474  0.1840
   32bbb     N1  928  10.347   5.569   7.454  0.6383  0.1789  0.3408
   32bbb     C1  929  10.341   5.644   7.586 -0.1768  0.6334  0.0973
   32bbb     H1  930  10.394   5.738   7.567 -1.8444  1.4778 -0.5745
   32bbb     H2  931  10.399   5.590   7.662  0.0352 -0.2089 -0.6484
   32bbb     C2  932  10.289   5.638   7.332  0.3758 -0.6814  0.7129
   32bbb     H3  933  10.180   5.620   7.329  0.3709 -1.0837  2.3838
   32bbb     H4  934  10.323   5.595   7.237 -1.4638  0.9321 -0.7695
   32bbb     C3  935  10.318   5.427   7.460  0.6094  0.4382  0.1947
   32bbb     H5  936  10.326   5.371   7.366  1.1989 -1.3555  1.2635
   32bbb     H6  937  10.212   5.418   7.489 -0.1858  1.3489 -2.1785
   32bbb     C4  938  10.408   5.338   7.555 -0.3338 -0.1308  0.4235
   32bbb     H7  939  10.410   5.380   7.656 -0.4134 -2.7406  1.5961
   32bbb     H8  940  10.512   5.325   7.523 -0.3888 -0.7040  0.4670
   32bbb     C5  941  10.194   5.677   7.639 -0.4038  0.1020  0.1305
   32bbb     H9  942  10.124   5.696   7.557 -0.1057  1.1287  0.1006
   32bbb    H10  943  10.189   5.761   7.710 -2.1453  0.1059  0.0647
   32bbb     C6  944  10.314   5.795   7.327  0.3977  0.3508 -0.6040
   32bbb    H11  945  10.286   5.832   7.427 -1.3825 -2.2553 -0.0233
   32bbb    H12  946  10.242   5.823   7.250  1.3031  0.0786 -1.5617
   32bbb     C7  947  10.351   5.200   7.557 -0.2500  0.6108 -0.5059
   32bbb    H13  948  10.345   5.155   7.458 -1.7288  0.6686 -0.4699
   32bbb    H14  949  10.257   5.194   7.614 -1.8395 -0.4017 -3.0416
   32bbb     C8  950  10.452   5.840   7.278 -0.0916  0.0107 -0.3046
   32bbb    H15  951  10.471   5.824   7.171  3.5532  1.8677 -0.0824
   32bbb    H16  952  10.525   5.774   7.327 -0.4997 -0.8386 -0.8173
   32bbb     C9  953  10.139   5.557   7.729 -0.1030  0.1552  0.8814
   32bbb    H17  954  10.159   5.456   7.690  0.0008 -0.2986  2.0831
   32bbb    H18  955  10.030   5.572   7.725  0.0838  1.3640 -1.2473
   32bbb     O1  956  10.446   5.117   7.635 -0.3135  0.2553  0.0429
   33bbb     N1  957  10.743   5.212   8.601 -0.2271  0.1837 -0.0324
   33bbb     C1  958  10.890   5.180   8.611 -1.3454 -0.0132 -0.4833
   33bbb     H1  959  10.909   5.085   8.662  0.8795  0.0210 -1.1601
   33bbb     H2  960  10.926   5.254   8.684 -1.5608 -1.1039  0.7519
   33bbb     C2  961  10.714   5.357   8.569  0.1091  0.6272 -0.4438
   33bbb     H3  962  10.605   5.365   8.572 -0.1634  0.3687 -4.4941
   33bbb     H4  963  10.730   5.396   8.468 -0.6488  0.3645 -0.6712
   33bbb     C3  964  10.672   5.121   8.507  0.3687  0.3269 -0.4376
   33bbb     H5  965  10.721   5.137   8.410 -0.8547  0.7025 -1.0232
   33bbb     H6  966  10.568   5.147   8.485  1.2145  2.2793 -2.5143
   33bbb     C4  967  10.700   4.973   8.538  0.6726 -0.5046 -0.4813
   33bbb     H7  968  10.662   4.951   8.638  0.7619  0.4681 -0.2291
   33bbb     H8  969  10.804   4.940   8.537  1.0567  0.6556  0.0447
   33bbb     C5  970  10.987   5.198   8.484 -0.2449 -0.1233 -0.2701
   33bbb     H9  971  11.030   5.299   8.484  0.1275 -0.2780 -0.0463
   33bbb    H10  972  10.924   5.184   8.395 -2.0683  0.6043  0.8577
   33bbb     C6  973  10.772   5.460   8.670 -1.2028  0.4355 -0.0109
   33bbb    H11  974  10.882   5.458   8.669 -1.2009  0.4615  0.1513
   33bbb    H12  975  10.726   5.439   8.767  0.0323 -1.1608  0.2843
   33bbb     C7  976  10.631   4.885   8.430  0.0617 -0.7067 -0.1009
   33bbb    H13  977  10.523   4.881   8.449 -0.5284  1.5560 -2.3624
   33bbb    H14  978  10.665   4.781   8.439  0.0203 -0.7227 -0.1296
   33bbb     C8  979  10.738   5.605   8.629 -0.3773 -0.4856 -0.0532
   33bbb    H15  980  10.787   5.625   8.533 -0.9891  0.7649 -0.1217
   33bbb    H16  981  10.794   5.667   8.699 -1.0834 -2.5920  2.5436
   33bbb     C9  982  11.114   5.106   8.490 -0.3117  0.0067 -0.3566
   33bbb    H17  983  11.080   5.001   8.491  2.0514 -0.8807 -2.3148
   33bbb    H18  984  11.158   5.122   8.589  1.2321 -1.7403 -0.6776
   33bbb     O1  985  10.656   4.935   8.294  0.5326  0.0039  0.2073
   34bbb     N1  986  10.345   5.182   5.804 -0.1514 -0.1269  0.7866
   34bbb     C1  987  10.289   5.321   5.804 -0.1273 -0.1484  0.6572
   34bbb     H1  988  10.192   5.336   5.852 -0.5536  0.8759 -0.4794
   34bbb     H2  989  10.270   5.348   5.699  1.6510  1.9217  0.7917
   34bbb     C2  990  10.377   5.116   5.666  0.8477  0.1859  0.0078
   34bbb     H3  991  10.274   5.100   5.632  0.6322 -0.6355  0.9981
   34bbb     H4  992  10.424   5.019   5.683 -1.3181 -0.6798  1.5381
   34bbb     C3  993  10.257   5.103   5.895  0.1551 -0.4232 -1.5338
   34bbb     H5  994  10.158   5.083   5.851 -1.2562 -0.2842  1.3367
   34bbb     H6  995  10.233   5.154   5.989  2.2264 -1.1461 -0.5574
   34bbb     C4  996  10.307   4.969   5.938 -0.5335 -0.5180 -0.5168
   34bbb     H7  997  10.365   4.989   6.029  1.5517 -3.4289 -1.0491
   34bbb     H8  998  10.378   4.917   5.873 -0.4620 -1.8563  0.5630
   34bbb     C5  999  10.383   5.435   5.860 -0.4540  0.0100  0.4115
   34bbb     H9 1000  10.340   5.533   5.836  0.1357  0.2747  0.4049
   34bbb    H10 1001  10.480   5.432   5.809 -0.7018  0.6256 -0.1072
   34bbb     C6 1002  10.462   5.201   5.569  0.2679 -0.2120 -0.2569
   34bbb    H11 1003  10.536   5.260   5.624  0.0835  0.5874 -0.8479
   34bbb    H12 1004  10.395   5.278   5.530  0.3149 -0.4569 -0.8247
   34bbb     C7 1005  10.194   4.880   5.981  0.2308  0.0498  0.4045
   34bbb    H13 1006  10.105   4.933   6.017  0.1762  1.6786 -1.8934
   34bbb    H14 1007  10.235   4.808   6.052  0.9371 -1.1794 -1.1644
   34bbb     C8 1008  10.534   5.138   5.448 -0.3358  0.4912 -0.1788
   34bbb    H15 1009  10.588   5.056   5.496 -0.5380  0.6078  0.2550
   34bbb    H16 1010  10.595   5.218   5.405 -1.4417  1.4903  0.0247
   34bbb     C9 1011  10.397   5.429   6.011  0.3541 -0.4379  0.0386
   34bbb    H17 1012  10.450   5.337   6.037  0.3274 -0.2714  0.7147
   34bbb    H18 1013  10.298   5.442   6.058  0.2852 -0.4331 -0.1086
   34bbb     O1 1014  10.148   4.813   5.865  0.4347 -0.9997 -0.8031
   35bbb     N1 1015  10.120   4.158   4.898  0.0778 -0.0730 -0.4066
   35bbb     C1 1016  10.100   4.016   4.879  1.1281  0.2533  0.0226
   35bbb     H1 1017  10.200   3.974   4.861  1.8727  2.3141 -1.0061
   35bbb     H2 1018  10.047   4.003   4.784  2.4442 -3.0760 -0.3949
   35bbb     C2 1019  10.191   4.224   4.786 -0.2180 -0.6827 -0.2712
   35bbb     H3 1020  10.204   4.159   4.699  3.9280  0.3154 -0.6195
   35bbb     H4 1021  10.297   4.237   4.812 -0.1416 -1.1918 -0.3233
   35bbb     C3 1022  10.164   4.198   5.037  0.8411 -0.0080  0.2144
   35bbb     H5 1023  10.089   4.160   5.108  1.0317  0.0692  0.4587
   35bbb     H6 1024  10.173   4.307   5.045 -3.0009  0.2979  2.4182
   35bbb     C4 1025  10.299   4.146   5.074  0.3051 -0.1762  0.0188
   35bbb     H7 1026  10.376   4.204   5.021 -0.4694  0.4427 -0.4445
   35bbb     H8 1027  10.316   4.040   5.052  1.3183 -0.3920  1.6389
   35bbb     C5 1028  10.031   3.934   4.990 -0.0819  0.6207 -0.5340
   35bbb     H9 1029  10.096   3.935   5.078 -2.0331  1.1473  0.9758
   35bbb    H10 1030  10.025   3.827   4.966 -0.1446  0.6961 -0.8648
   35bbb     C6 1031  10.125   4.357   4.755 -0.0322 -0.0325  0.2786
   35bbb    H11 1032  10.107   4.416   4.846 -0.5254 -0.3773  0.4128
   35bbb    H12 1033  10.020   4.337   4.729 -0.8504  1.3545  2.2539
   35bbb     C7 1034  10.319   4.149   5.232  0.0899  0.1288  0.6842
   35bbb    H13 1035  10.409   4.092   5.256  1.2520  0.1940 -2.9351
   35bbb    H14 1036  10.231   4.103   5.280 -0.8911 -0.0092 -1.1634
   35bbb     C8 1037  10.186   4.439   4.638 -0.8696 -0.0430  0.3330
   35bbb    H15 1038  10.211   4.368   4.558 -1.8293 -0.6125  0.5253
   35bbb    H16 1039  10.269   4.500   4.676 -1.6661  0.8332  0.6948
   35bbb     C9 1040   9.890   3.982   5.043 -0.5078 -0.1171  0.0982
   35bbb    H17 1041   9.878   4.084   5.004  1.0317  0.8321  1.8693
   35bbb    H18 1042   9.893   3.985   5.153 -0.5341 -1.8277  0.1671
   35bbb     O1 1043  10.331   4.281   5.272 -0.4385  0.2589 -0.4673
   36bbb     N1 1044  11.545   5.074   5.876  0.3348  0.6823 -0.1648
   36bbb     C1 1045  11.477   5.190   5.956 -0.6564 -0.1405  0.3241
   36bbb     H1 1046  11.530   5.285   5.944 -1.0515  0.1181  0.5918
   36bbb     H2 1047  11.483   5.164   6.062  2.6330 -2.9919 -0.3509
   36bbb     C2 1048  11.646   5.006   5.964  0.3004  0.8025 -0.3224
   36bbb     H3 1049  11.660   4.904   5.926 -0.8279  1.1974 -1.8626
   36bbb     H4 1050  11.600   5.000   6.063  0.0952  1.8652 -0.3472
   36bbb     C3 1051  11.583   5.114   5.738  0.4078  0.3090  0.5626
   36bbb     H5 1052  11.661   5.190   5.754  1.8258 -1.3127  1.6915
   36bbb     H6 1053  11.501   5.161   5.682  1.3936 -0.3375 -1.5222
   36bbb     C4 1054  11.643   4.992   5.653 -0.1272 -0.1733  0.2521
   36bbb     H7 1055  11.580   4.903   5.662  0.8832 -0.7231  3.1588
   36bbb     H8 1056  11.742   4.964   5.692 -0.1239 -0.7084 -0.1266
   36bbb     C5 1057  11.339   5.226   5.915 -0.1912 -0.2534 -0.4345
   36bbb     H9 1058  11.275   5.149   5.959 -0.2079 -0.0476 -0.0966
   36bbb    H10 1059  11.325   5.214   5.807 -1.5360 -0.6937 -0.2279
   36bbb     C6 1060  11.775   5.083   5.989  0.2407  0.5616  0.2414
   36bbb    H11 1061  11.761   5.181   6.037 -0.7827  0.8370 -0.5956
   36bbb    H12 1062  11.821   5.089   5.890 -0.0934 -1.6464 -0.0927
   36bbb     C7 1063  11.666   5.045   5.508  0.0124 -0.1183 -0.5089
   36bbb    H13 1064  11.734   4.979   5.454 -0.7827 -2.6331  1.3405
   36bbb    H14 1065  11.698   5.150   5.515 -0.8250  0.2414 -1.7965
   36bbb     C8 1066  11.874   5.004   6.081 -0.1437 -0.3876  0.7916
   36bbb    H15 1067  11.905   4.907   6.041  0.7278  0.2134 -0.0500
   36bbb    H16 1068  11.826   4.988   6.178  0.3706  1.3208  1.3638
   36bbb     C9 1069  11.281   5.357   5.967 -0.0872  0.0007 -0.2765
   36bbb    H17 1070  11.173   5.361   5.949 -0.0219  1.5738 -0.4025
   36bbb    H18 1071  11.332   5.434   5.909  1.3477 -0.6593  0.0488
   36bbb     O1 1072  11.537   5.052   5.434  0.0871 -0.1189 -0.4574
   37bbb     N1 1073  11.804   5.585   5.795  0.1476  0.0109 -0.1730
   37bbb     C1 1074  11.832   5.443   5.752 -0.7369 -0.9399 -0.7251
   37bbb     H1 1075  11.809   5.369   5.829  2.8713 -1.0231  0.4369
   37bbb     H2 1076  11.941   5.432   5.751 -0.5862  0.3836 -1.4794
   37bbb     C2 1077  11.899   5.635   5.908 -0.3220 -0.8681  0.3535
   37bbb     H3 1078  11.898   5.745   5.916  2.6402 -0.6263 -1.2154
   37bbb     H4 1079  12.001   5.612   5.874 -0.4609 -1.6137  0.4207
   37bbb     C3 1080  11.661   5.633   5.817 -0.7970  0.1663 -0.1144
   37bbb     H5 1081  11.633   5.611   5.920  1.6525  1.0591  0.8138
   37bbb     H6 1082  11.584   5.588   5.753 -1.8333  0.3773  0.9582
   37bbb     C4 1083  11.648   5.788   5.808  0.3094 -0.4363  0.2154
   37bbb     H7 1084  11.715   5.832   5.883  1.8618 -0.4711 -1.1082
   37bbb     H8 1085  11.546   5.815   5.838  0.6246 -0.6651  1.5847
   37bbb     C5 1086  11.795   5.418   5.607 -0.3418  0.0901  0.0926
   37bbb     H9 1087  11.686   5.413   5.596 -0.4394  2.8771 -1.2923
   37bbb    H10 1088  11.837   5.318   5.589  1.9394  0.2863  3.4297
   37bbb     C6 1089  11.880   5.579   6.045  0.1426  0.6693 -0.6415
   37bbb    H11 1090  11.869   5.470   6.053 -2.9621  1.0365  1.9930
   37bbb    H12 1091  11.786   5.620   6.085  0.1903 -0.1679  0.3800
   37bbb     C7 1092  11.672   5.839   5.665 -0.0715 -0.4246 -0.3514
   37bbb    H13 1093  11.759   5.786   5.625 -0.0142  0.6072 -1.6689
   37bbb    H14 1094  11.691   5.947   5.661 -1.1053 -0.2421 -0.4290
   37bbb     C8 1095  11.971   5.634   6.156 -0.3399 -0.2622  0.1722
   37bbb    H15 1096  11.933   5.602   6.254  0.5357  2.7539  1.6091
   37bbb    H16 1097  11.962   5.743   6.149  0.4471 -0.1703  0.4398
   37bbb     C9 1098  11.850   5.523   5.501  0.4353  0.1436  0.0206
   37bbb    H17 1099  11.957   5.546   5.510  0.6510 -0.6257 -0.4284
   37bbb    H18 1100  11.784   5.610   5.514  1.8309  1.2450 -0.0601
   37bbb     O1 1101  11.554   5.791   5.593  0.1926 -0.0934 -0.1528
   38bbb     N1 1102   9.563   4.327   4.796  0.0989  0.1403  0.1123
   38bbb     C1 1103   9.614   4.187   4.772 -0.0284 -0.0506  0.7957
   38bbb     H1 1104   9.526   4.135   4.733 -0.6330  0.0568  1.9550
   38bbb     H2 1105   9.654   4.139   4.862 -1.5157 -2.7925  0.0864
   38bbb     C2 1106   9.495   4.391   4.679 -0.8489 -0.0222 -0.2697
   38bbb     H3 1107   9.567   4.404   4.598 -2.0604  0.3232 -1.3252
   38bbb     H4 1108   9.458   4.488   4.714 -0.6740  0.2085 -0.7251
   38bbb     C3 1109   9.669   4.414   4.857  0.3268 -1.1841  0.5604
   38bbb     H5 1110   9.634   4.517   4.870  1.9731 -0.2786 -1.5019
   38bbb     H6 1111   9.749   4.428   4.783  1.9149 -2.0828  2.0065
   38bbb     C4 1112   9.744   4.371   4.983  0.4592 -0.0299  0.0425
   38bbb     H7 1113   9.792   4.273   4.970  0.4350  0.0671 -0.8545
   38bbb     H8 1114   9.675   4.370   5.068 -0.7212 -0.2029 -0.9029
   38bbb     C5 1115   9.734   4.178   4.670 -0.0928 -0.7400 -0.3387
   38bbb     H9 1116   9.820   4.236   4.705 -0.0272  0.7495 -2.7499
   38bbb    H10 1117   9.700   4.226   4.577 -0.1704 -0.3669 -0.1203
   38bbb     C6 1118   9.372   4.312   4.631 -0.8150  0.1900 -0.6301
   38bbb    H11 1119   9.315   4.295   4.724 -0.2758 -0.2352 -0.3715
   38bbb    H12 1120   9.400   4.219   4.580 -1.7360 -1.7045  2.0673
   38bbb     C7 1121   9.856   4.471   5.018  0.4587  0.0721  0.4545
   38bbb    H13 1122   9.827   4.573   4.993  1.5868  0.1579 -0.5597
   38bbb    H14 1123   9.942   4.461   4.951 -0.2786 -0.3120 -0.4530
   38bbb     C8 1124   9.288   4.408   4.548  0.4949 -0.4203  0.2988
   38bbb    H15 1125   9.253   4.487   4.616  0.4838  0.8356 -1.1223
   38bbb    H16 1126   9.192   4.358   4.528 -0.7479  1.7655  0.4329
   38bbb     C9 1127   9.770   4.028   4.644  0.3668 -0.0209  0.1708
   38bbb    H17 1128   9.789   3.973   4.737 -1.7562 -0.7039  0.2563
   38bbb    H18 1129   9.865   4.011   4.592  1.7649 -2.2635  3.1708
   38bbb     O1 1130   9.896   4.455   5.161  0.1280 -0.3065 -0.3312
   39bbb     N1 1131  10.643   4.031   5.806  0.5039  0.1549 -0.0816
   39bbb     C1 1132  10.705   3.945   5.913 -0.4505  0.0475  0.7243
   39bbb     H1 1133  10.793   3.993   5.958 -0.2582 -1.0722  1.5729
   39bbb     H2 1134  10.750   3.857   5.866 -0.7430  1.1082 -1.6982
   39bbb     C2 1135  10.720   4.018   5.680 -0.3379 -0.4922  0.2520
   39bbb     H3 1136  10.702   3.915   5.647 -0.8723  0.3012 -2.1133
   39bbb     H4 1137  10.826   4.031   5.704 -0.4113  0.4776  0.1088
   39bbb     C3 1138  10.497   4.043   5.795  0.4063  0.3612  0.0501
   39bbb     H5 1139  10.468   4.132   5.738  0.5606  0.2294 -0.2342
   39bbb     H6 1140  10.448   4.059   5.892 -0.5924  1.2737 -0.5912
   39bbb     C4 1141  10.427   3.916   5.728 -1.2310  0.1355 -0.3884
   39bbb     H7 1142  10.468   3.826   5.776  0.3354  1.2155  0.4295
   39bbb     H8 1143  10.449   3.912   5.621  0.8876 -1.4636  0.0346
   39bbb     C5 1144  10.617   3.927   6.036 -0.0955 -0.2622 -0.0983
   39bbb     H9 1145  10.654   3.853   6.108 -0.6467  0.1319  0.5943
   39bbb    H10 1146  10.521   3.880   6.010 -0.2890  0.2841 -0.3938
   39bbb     C6 1147  10.681   4.123   5.568 -0.0867 -0.0261  0.2021
   39bbb    H11 1148  10.684   4.226   5.604  1.3679  0.0773 -0.1415
   39bbb    H12 1149  10.580   4.101   5.533 -0.6650  0.4717  1.4854
   39bbb     C7 1150  10.276   3.928   5.748  0.6061 -0.2289  0.3011
   39bbb    H13 1151  10.250   3.947   5.852  0.2295  0.1262  0.1469
   39bbb    H14 1152  10.233   3.831   5.723  1.0140 -0.3974  0.2444
   39bbb     C8 1153  10.767   4.114   5.438 -0.1300 -0.1225 -0.5129
   39bbb    H15 1154  10.752   4.021   5.381  0.4112 -0.4441 -0.1412
   39bbb    H16 1155  10.874   4.122   5.456 -0.4655 -0.7526  2.3710
   39bbb     C9 1156  10.610   4.056   6.123  0.4479 -0.5020 -0.5177
   39bbb    H17 1157  10.561   4.143   6.078  0.0951 -0.7057 -0.5292
   39bbb    H18 1158  10.710   4.099   6.135  1.6428 -3.0991 -0.4245
   39bbb     O1 1159  10.226   4.023   5.666  0.7652 -0.5842 -0.1560
   40bbb     N1 1160  10.088   6.205   5.834 -0.5231  0.1172 -0.0839
   40bbb     C1 1161  10.043   6.253   5.702 -0.4939  0.1179  0.0719
   40bbb     H1 1162   9.938   6.233   5.677 -1.0294  2.2461  0.3708
   40bbb     H2 1163  10.097   6.209   5.618 -2.1777  1.1744 -1.6535
   40bbb     C2 1164  10.032   6.269   5.959  0.2795 -0.5581  0.5552
   40bbb     H3 1165   9.943   6.221   6.001  0.2621  0.3932  1.6528
   40bbb     H4 1166   9.993   6.370   5.947 -0.6091 -1.0253 -0.6139
   40bbb     C3 1167  10.080   6.059   5.840  0.0549 -0.0619 -0.0850
   40bbb     H5 1168   9.992   6.023   5.786 -0.7148  2.4109 -0.6405
   40bbb     H6 1169  10.073   6.027   5.945  0.4747  1.2931  0.3908
   40bbb     C4 1170  10.205   5.993   5.782 -0.6285 -0.1073 -0.0396
   40bbb     H7 1171  10.285   6.038   5.842 -0.5076  0.6840 -0.7770
   40bbb     H8 1172  10.234   6.027   5.682 -0.8557 -0.3846 -0.2019
   40bbb     C5 1173  10.067   6.406   5.687  0.0341  0.0911 -0.2566
   40bbb     H9 1174  10.173   6.419   5.713 -0.1363 -0.9790  1.0443
   40bbb    H10 1175  10.011   6.458   5.765  2.6663  1.5377  0.8300
   40bbb     C6 1176  10.144   6.260   6.073  1.4417  0.4367 -0.1246
   40bbb    H11 1177  10.228   6.319   6.036 -0.0918  1.7446 -1.6970
   40bbb    H12 1178  10.174   6.157   6.094  0.3639  0.2136  0.4174
   40bbb     C7 1179  10.206   5.837   5.793  0.6578  0.3226  0.2275
   40bbb    H13 1180  10.164   5.795   5.886  0.4082 -3.1560 -1.2873
   40bbb    H14 1181  10.309   5.799   5.783  0.1142 -1.4165  0.7904
   40bbb     C8 1182  10.107   6.307   6.214  0.4135  0.4652  0.0438
   40bbb    H15 1183  10.178   6.382   6.251  0.9500 -1.2039  2.6856
   40bbb    H16 1184  10.124   6.223   6.283 -1.8375 -1.1412 -1.2176
   40bbb     C9 1185  10.030   6.464   5.542  0.2440 -0.0492 -0.6872
   40bbb    H17 1186   9.922   6.449   5.532 -0.0098  1.0763  0.2210
   40bbb    H18 1187  10.076   6.404   5.463  1.8815 -1.0119  0.9093
   40bbb     O1 1188  10.129   5.784   5.681 -0.2047 -0.8956  0.2324
   41bbb     N1 1189  10.632   5.532   5.279 -0.5722 -0.8334  0.3037
   41bbb     C1 1190  10.749   5.456   5.240 -0.2791  0.9192 -0.2333
   41bbb     H1 1191  10.725   5.397   5.151 -0.1319  0.9250 -0.2777
   41bbb     H2 1192  10.790   5.392   5.319 -0.4876  0.1738 -0.7236
   41bbb     C2 1193  10.633   5.553   5.426  0.2865 -0.1341 -1.0835
   41bbb     H3 1194  10.731   5.593   5.454  0.5657 -0.7704 -1.1381
   41bbb     H4 1195  10.619   5.457   5.477 -0.5686 -0.5401 -2.0379
   41bbb     C3 1196  10.506   5.469   5.238 -0.6640 -0.2389  0.1624
   41bbb     H5 1197  10.414   5.516   5.276 -0.4686  0.7134 -0.4997
   41bbb     H6 1198  10.515   5.370   5.283  1.1878 -0.0130  0.3802
   41bbb     C4 1199  10.476   5.455   5.088 -0.0169 -0.2200 -0.1296
   41bbb     H7 1200  10.567   5.433   5.031  0.6043  3.1412 -0.6621
   41bbb     H8 1201  10.442   5.551   5.046  1.7978 -0.2420 -1.7953
   41bbb     C5 1202  10.865   5.549   5.201  0.3715 -0.6926  0.2367
   41bbb     H9 1203  10.894   5.606   5.290 -0.3799 -0.5635  0.4108
   41bbb    H10 1204  10.847   5.628   5.127  1.4087 -1.6514 -1.0807
   41bbb     C6 1205  10.529   5.645   5.486 -0.4211 -0.1099 -0.1499
   41bbb    H11 1206  10.430   5.599   5.480  0.2770 -1.6371 -0.4090
   41bbb    H12 1207  10.519   5.733   5.422 -1.2954 -0.6166 -0.7273
   41bbb     C7 1208  10.368   5.354   5.063  0.4419 -0.5105 -0.6196
   41bbb    H13 1209  10.408   5.258   5.100 -0.8038 -0.8579 -0.1092
   41bbb    H14 1210  10.349   5.344   4.956 -1.1770 -1.7991 -0.2516
   41bbb     C8 1211  10.560   5.680   5.630  0.1058 -0.5132 -0.3096
   41bbb    H15 1212  10.580   5.587   5.684  0.1748  0.6102  1.6727
   41bbb    H16 1213  10.466   5.714   5.675  0.7172  1.3941 -0.3961
   41bbb     C9 1214  10.993   5.475   5.149  0.2894  0.2504 -0.0135
   41bbb    H17 1215  11.019   5.405   5.229  0.4999  1.4767  1.0410
   41bbb    H18 1216  11.072   5.546   5.121  1.0259 -0.2439  0.7723
   41bbb     O1 1217  10.247   5.395   5.138  0.5718  0.1682 -0.5250
   42bbb     N1 1218   8.935   4.402   7.052 -0.1909  0.5771 -0.3361
   42bbb     C1 1219   9.023   4.289   7.040 -0.2607  0.0803  0.0966
   42bbb     H1 1220   9.121   4.324   7.075 -1.1233  1.4651  1.2571
   42bbb     H2 1221   9.023   4.256   6.936 -0.8260  0.1935  0.0541
   42bbb     C2 1222   8.824   4.384   6.951 -0.0376 -0.5406 -0.4556
   42bbb     H3 1223   8.779   4.287   6.976  1.4631 -1.3587 -0.7976
   42bbb     H4 1224   8.857   4.375   6.847  2.3842 -0.6152  0.2467
   42bbb     C3 1225   8.996   4.539   7.042  0.0440 -0.2625 -0.0338
   42bbb     H5 1226   9.078   4.546   7.114  0.1227 -3.2868  0.3115
   42bbb     H6 1227   8.928   4.616   7.080 -0.4161 -0.6165 -0.1206
   42bbb     C4 1228   9.052   4.583   6.905 -0.8450 -0.0609 -0.1457
   42bbb     H7 1229   8.971   4.601   6.833  0.1053  0.7231 -1.0332
   42bbb     H8 1230   9.106   4.500   6.858  0.8444  0.9546 -0.0672
   42bbb     C5 1231   8.979   4.166   7.132  0.2925  0.4359  0.4844
   42bbb     H9 1232   9.025   4.067   7.120 -0.5711 -0.4875  3.8208
   42bbb    H10 1233   8.877   4.139   7.104  1.2131 -1.3082 -1.5235
   42bbb     C6 1234   8.713   4.489   6.956  0.7308  0.1978  0.1360
   42bbb    H11 1235   8.642   4.477   6.874 -0.8308 -0.0431  1.4602
   42bbb    H12 1236   8.747   4.593   6.949  0.0850  0.4844  1.0033
   42bbb     C7 1237   9.127   4.721   6.910 -0.2775  0.0774 -0.3991
   42bbb    H13 1238   9.179   4.720   6.813  2.4449 -1.0913  0.9707
   42bbb    H14 1239   9.204   4.721   6.987 -1.5233 -0.3380  0.8930
   42bbb     C8 1240   8.631   4.477   7.090  0.3082  0.2437 -0.4346
   42bbb    H15 1241   8.697   4.492   7.177 -1.9007  0.3246  1.3192
   42bbb    H16 1242   8.583   4.379   7.097 -0.8681  0.9197  2.2288
   42bbb     C9 1243   8.991   4.191   7.285  0.0346  0.6038 -0.2293
   42bbb    H17 1244   8.939   4.282   7.317  1.0290  1.8553 -1.9927
   42bbb    H18 1245   9.095   4.208   7.314  0.1451 -0.0077 -0.2380
   42bbb     O1 1246   9.032   4.828   6.927  0.5927 -0.5574  0.1165
   43bbb     N1 1247   8.156   4.929   6.495  0.4830 -0.4211  0.5658
   43bbb     C1 1248   8.222   4.822   6.408  0.6085 -0.8876  0.2890
   43bbb     H1 1249   8.321   4.859   6.379  0.4096 -1.3542 -1.0742
   43bbb     H2 1250   8.170   4.817   6.311  0.3476 -0.8294  0.4247
   43bbb     C2 1251   8.015   4.887   6.521  0.1649  0.5671 -0.5931
   43bbb     H3 1252   8.020   4.807   6.595  0.8433  3.1100  2.3117
   43bbb     H4 1253   7.979   4.853   6.422  0.9517  0.9687 -1.0234
   43bbb     C3 1254   8.232   4.959   6.621 -0.0994  0.1916 -0.1848
   43bbb     H5 1255   8.279   4.869   6.664 -0.3623  0.2964  0.3292
   43bbb     H6 1256   8.165   5.008   6.693 -0.9080 -0.5831 -0.3851
   43bbb     C4 1257   8.354   5.043   6.596  0.1341 -0.5389 -0.2574
   43bbb     H7 1258   8.331   5.122   6.524  0.1754  0.7634  1.1205
   43bbb     H8 1259   8.426   4.981   6.540 -0.2644 -0.8296 -0.4591
   43bbb     C5 1260   8.244   4.679   6.467 -0.0760  0.6431  0.0034
   43bbb     H9 1261   8.148   4.627   6.480 -0.6246  2.0394  1.8092
   43bbb    H10 1262   8.285   4.675   6.568  1.3055  0.5121 -0.5396
   43bbb     C6 1263   7.908   4.989   6.575  0.1211 -0.2443 -0.4801
   43bbb    H11 1264   7.871   5.048   6.490 -1.1622  0.6204  0.6339
   43bbb    H12 1265   7.943   5.064   6.648  0.2520  1.6133 -2.3503
   43bbb     C7 1266   8.418   5.109   6.721  0.4115  0.1081  0.2164
   43bbb    H13 1267   8.348   5.178   6.770 -0.3324  1.1095 -2.0748
   43bbb    H14 1268   8.500   5.173   6.685 -1.2932  1.7888 -0.9105
   43bbb     C8 1269   7.786   4.923   6.644  0.0577 -0.0750 -0.1765
   43bbb    H15 1270   7.710   4.995   6.678 -0.1127 -1.5539  2.8477
   43bbb    H16 1271   7.825   4.866   6.729  1.3037 -0.1762 -0.7935
   43bbb     C9 1272   8.327   4.598   6.373 -0.1304  0.9440  0.2765
   43bbb    H17 1273   8.433   4.610   6.399 -0.0530  0.9573 -0.0400
   43bbb    H18 1274   8.318   4.629   6.268  0.8446  0.4507  0.0302
   43bbb     O1 1275   8.468   5.009   6.809  0.3650  0.3563  0.0484
   44bbb     N1 1276   8.241   5.961   6.817  0.1346  0.5378 -0.0435
   44bbb     C1 1277   8.127   5.995   6.902 -0.3432  0.1127 -0.4862
   44bbb     H1 1278   8.044   6.033   6.841 -1.1549  0.3697  0.7372
   44bbb     H2 1279   8.155   6.076   6.970  1.3065 -0.2556 -0.6918
   44bbb     C2 1280   8.362   5.964   6.892  0.0444  0.4660 -0.2146
   44bbb     H3 1281   8.366   5.870   6.948  1.2121  0.5155 -0.1919
   44bbb     H4 1282   8.347   6.041   6.969  0.1192 -0.0514  0.3220
   44bbb     C3 1283   8.226   5.841   6.727  0.8080  0.5236 -0.3421
   44bbb     H5 1284   8.194   5.753   6.782 -0.2155 -0.0195 -1.7453
   44bbb     H6 1285   8.321   5.814   6.679  1.2466 -0.8869  1.2734
   44bbb     C4 1286   8.119   5.862   6.615 -0.7291  0.9017 -0.3585
   44bbb     H7 1287   8.016   5.865   6.651 -0.4622 -0.2217  0.5303
   44bbb     H8 1288   8.125   5.779   6.545  0.2065  0.7709 -0.1427
   44bbb     C5 1289   8.071   5.879   6.993 -0.0577  0.3201  0.5353
   44bbb     H9 1290   8.161   5.831   7.032 -1.4373 -1.3695  1.7919
   44bbb    H10 1291   8.013   5.805   6.937  0.5169  0.6260 -0.4968
   44bbb     C6 1292   8.501   5.963   6.819  0.0798 -0.0102 -0.1757
   44bbb    H11 1293   8.504   5.873   6.755 -1.0285 -0.5136  0.4493
   44bbb    H12 1294   8.582   5.939   6.889  0.4928 -0.2208 -0.7138
   44bbb     C7 1295   8.142   5.987   6.531 -0.4358 -0.3490 -0.0544
   44bbb    H13 1296   8.250   5.992   6.514 -0.0791  0.5011  2.1100
   44bbb    H14 1297   8.119   6.063   6.606  1.6018 -0.4108  0.6993
   44bbb     C8 1298   8.529   6.097   6.738 -0.7261  0.8223  0.9279
   44bbb    H15 1299   8.585   6.168   6.800  0.4438  0.8217 -0.0809
   44bbb    H16 1300   8.429   6.134   6.712 -1.2313 -0.8935  0.2674
   44bbb     C9 1301   7.975   5.931   7.103  0.1707  0.8081  0.6410
   44bbb    H17 1302   8.031   5.965   7.191  0.3479 -0.3656  1.0037
   44bbb    H18 1303   7.905   5.849   7.124  0.6746 -0.0441 -0.8333
   44bbb     O1 1304   8.059   5.989   6.415 -0.0811 -0.0136  0.0034
   45bbb     N1 1305   7.990   6.043   5.244 -0.1220 -0.2370  0.6372
   45bbb     C1 1306   7.846   6.049   5.279 -0.2441 -0.3347  0.0224
   45bbb     H1 1307   7.826   6.142   5.334 -2.1684  0.8904 -2.5634
   45bbb     H2 1308   7.825   5.966   5.348 -2.2289  1.0615  1.2170
   45bbb     C2 1309   8.024   6.164   5.152  0.5323  0.3854 -0.4522
   45bbb     H3 1310   7.994   6.260   5.196  1.0949  0.1902  0.3714
   45bbb     H4 1311   7.967   6.147   5.060 -0.8899 -0.2526  0.5165
   45bbb     C3 1312   8.068   6.047   5.371  0.5372 -0.2433 -0.2020
   45bbb     H5 1313   8.167   6.003   5.356  2.1451  2.3807  1.6716
   45bbb     H6 1314   8.019   5.977   5.439 -0.1536  0.3497 -0.0796
   45bbb     C4 1315   8.077   6.180   5.448  0.1103  0.1260  0.2541
   45bbb     H7 1316   7.975   6.209   5.478 -1.2380 -0.8858 -2.8611
   45bbb     H8 1317   8.130   6.255   5.388  0.6446 -0.1231  0.4078
   45bbb     C5 1318   7.746   6.040   5.167  0.3071 -0.2280 -0.0294
   45bbb     H9 1319   7.802   6.003   5.080 -0.5032  1.4006 -1.3025
   45bbb    H10 1320   7.723   6.143   5.136 -1.7139  0.0432  2.1014
   45bbb     C6 1321   8.174   6.174   5.109  1.0592  0.2134  0.5017
   45bbb    H11 1322   8.245   6.166   5.192  0.1681 -1.3507  1.1660
   45bbb    H12 1323   8.184   6.270   5.058  1.7867 -0.5533 -0.8625
   45bbb     C7 1324   8.171   6.156   5.567 -0.1393  0.6716 -0.2161
   45bbb    H13 1325   8.195   6.243   5.629 -0.0744  1.2105 -0.9942
   45bbb    H14 1326   8.260   6.106   5.525 -0.0102 -0.6186  1.4589
   45bbb     C8 1327   8.206   6.060   5.003 -0.4242  0.1404 -0.1474
   45bbb    H15 1328   8.171   6.088   4.902 -2.1122 -2.2095 -0.3066
   45bbb    H16 1329   8.156   5.966   5.031  1.3797 -0.2669  1.9593
   45bbb     C9 1330   7.623   5.952   5.193  0.1417 -0.6673  0.8683
   45bbb    H17 1331   7.584   5.973   5.293  0.8276  1.6152  0.7159
   45bbb    H18 1332   7.647   5.845   5.196 -0.3068 -0.7690  0.8528
   45bbb     O1 1333   8.116   6.052   5.653  0.0647 -0.3252 -0.3453
   46bbb     N1 1334   7.846   3.639   6.265 -0.9116  0.5674 -0.1101
   46bbb     C1 1335   7.851   3.722   6.142  0.7927 -0.3066 -0.3012
   46bbb     H1 1336   7.904   3.679   6.057  0.7452  1.7282 -1.4238
   46bbb     H2 1337   7.891   3.822   6.167 -3.0178  1.0547  1.1532
   46bbb     C2 1338   7.928   3.517   6.254 -0.1230  1.0399  0.6858
   46bbb     H3 1339   7.924   3.456   6.345 -0.3943 -0.3797 -0.2385
   46bbb     H4 1340   8.033   3.546   6.242 -0.1325  1.0666  0.6689
   46bbb     C3 1341   7.860   3.711   6.392  0.3961  0.3849  0.7640
   46bbb     H5 1342   7.960   3.756   6.388  1.5855 -2.1510 -1.7895
   46bbb     H6 1343   7.848   3.634   6.468  0.6025  0.0727  0.4799
   46bbb     C4 1344   7.748   3.817   6.427 -0.1965 -0.8257  1.2434
   46bbb     H7 1345   7.646   3.776   6.421  0.1002 -1.4634  0.4600
   46bbb     H8 1346   7.752   3.893   6.348  0.9370 -0.3839  1.7019
   46bbb     C5 1347   7.706   3.758   6.095  0.1357 -1.0073  0.1842
   46bbb     H9 1348   7.642   3.760   6.184  1.1455 -0.4289  0.9211
   46bbb    H10 1349   7.665   3.677   6.035  1.7028 -0.4469 -1.7737
   46bbb     C6 1350   7.901   3.420   6.129 -0.7197 -0.2448 -0.4711
   46bbb    H11 1351   7.971   3.336   6.130 -0.3214 -0.0507 -3.4938
   46bbb    H12 1352   7.917   3.470   6.033  0.5677  1.5744  0.6152
   46bbb     C7 1353   7.762   3.879   6.560  0.1222  0.1196  0.3200
   46bbb    H13 1354   7.748   3.809   6.643 -0.0947  0.6661  0.7471
   46bbb    H14 1355   7.682   3.954   6.564 -0.4807 -0.5602  1.1670
   46bbb     C8 1356   7.748   3.369   6.130 -0.3772 -0.3361  0.3808
   46bbb    H15 1357   7.679   3.454   6.131  0.2599  0.1852 -0.0106
   46bbb    H16 1358   7.735   3.318   6.226 -0.0972 -1.7981 -0.3226
   46bbb     C9 1359   7.714   3.890   6.007  0.0869  0.8717 -0.2258
   46bbb    H17 1360   7.803   3.877   5.945  1.3704 -1.5632  1.9276
   46bbb    H18 1361   7.727   3.970   6.081 -2.8804  0.7469  0.5842
   46bbb     O1 1362   7.888   3.947   6.570 -0.5758 -0.3163 -0.3640
   47bbb     N1 1363   7.962   5.064   6.908  0.2279  0.0731 -0.3564
   47bbb     C1 1364   7.987   5.213   6.926 -0.3267 -0.2090 -0.1560
   47bbb     H1 1365   8.079   5.230   6.869 -0.6128 -1.2761 -0.9695
   47bbb     H2 1366   8.006   5.241   7.030  1.6211 -2.0305  0.0532
   47bbb     C2 1367   7.840   5.010   6.972 -0.6885  0.3310  0.0704
   47bbb     H3 1368   7.834   4.903   6.953  1.6947  0.2711 -0.6465
   47bbb     H4 1369   7.747   5.051   6.929  0.2084  1.5434 -0.7925
   47bbb     C3 1370   8.089   4.997   6.948 -0.5885  0.2045  0.3830
   47bbb     H5 1371   8.115   5.020   7.052 -0.7149  0.1755  0.4210
   47bbb     H6 1372   8.168   5.029   6.879 -1.5730  0.5284 -0.6372
   47bbb     C4 1373   8.089   4.843   6.930 -0.6577 -0.0634 -0.2369
   47bbb     H7 1374   8.045   4.826   6.830 -2.3063  0.2788  0.3958
   47bbb     H8 1375   8.020   4.796   7.001 -2.2115  1.3396 -0.7305
   47bbb     C5 1376   7.874   5.304   6.874 -0.0008 -0.3290 -0.0399
   47bbb     H9 1377   7.773   5.288   6.912  0.3276  0.2007  1.0864
   47bbb    H10 1378   7.882   5.284   6.766  2.1474  1.5905 -0.3340
   47bbb     C6 1379   7.847   5.033   7.122  0.2786  0.6956 -0.5011
   47bbb    H11 1380   7.840   5.142   7.130 -2.0547  0.7669 -2.5551
   47bbb    H12 1381   7.933   4.986   7.172 -0.1825 -1.0482 -1.2635
   47bbb     C7 1382   8.228   4.790   6.928 -0.4603  0.2791 -0.6698
   47bbb    H13 1383   8.268   4.778   7.030  0.6009 -1.4681 -1.2492
   47bbb    H14 1384   8.292   4.854   6.867 -0.1725 -0.0512 -0.7190
   47bbb     C8 1385   7.722   4.982   7.197  0.1629  0.1279  0.7488
   47bbb    H15 1386   7.751   4.948   7.297 -0.6661 -1.3179  0.5287
   47bbb    H16 1387   7.679   4.894   7.147 -3.3751  2.2226 -0.2511
   47bbb     C9 1388   7.896   5.454   6.889  0.6329 -0.0843  0.4763
   47bbb    H17 1389   7.807   5.514   6.866  0.3401 -0.9799 -0.9016
   47bbb    H18 1390   7.962   5.498   6.813 -2.3655  1.7896 -1.2431
   47bbb     O1 1391   8.216   4.663   6.865 -0.2610 -0.2078  0.2148
   48bbb     N1 1392   9.638   2.572   7.591  0.6310  0.0125 -0.2813
   48bbb     C1 1393   9.661   2.452   7.671 -0.5304 -0.0848 -0.0197
   48bbb     H1 1394   9.614   2.459   7.770  0.3733 -0.5690  0.4611
   48bbb     H2 1395   9.768   2.452   7.697 -0.7473 -0.9387  0.9249
   48bbb     C2 1396   9.684   2.693   7.661 -0.1700 -0.0302  0.2545
   48bbb     H3 1397   9.629   2.713   7.753  0.8262 -0.9185  1.0688
   48bbb     H4 1398   9.666   2.782   7.599 -3.0040 -0.3397  0.5200
   48bbb     C3 1399   9.495   2.605   7.548  0.4813 -0.7381 -0.0904
   48bbb     H5 1400   9.467   2.534   7.470 -0.5012  1.4490 -1.8368
   48bbb     H6 1401   9.495   2.703   7.499  0.4787 -0.6373  0.1101
   48bbb     C4 1402   9.389   2.606   7.653 -0.0067  0.2798 -0.0525
   48bbb     H7 1403   9.423   2.681   7.725 -1.4478  0.5127  0.4088
   48bbb     H8 1404   9.382   2.510   7.707  0.3102 -0.2513 -0.9379
   48bbb     C5 1405   9.608   2.329   7.593  0.7452 -0.6255 -0.1309
   48bbb     H9 1406   9.663   2.324   7.499  4.3778  0.1396  1.7879
   48bbb    H10 1407   9.508   2.354   7.556  2.0522  3.9286 -1.1679
   48bbb     C6 1408   9.825   2.692   7.717  0.2936 -0.0067 -0.1936
   48bbb    H11 1409   9.899   2.672   7.639  1.2297  0.1865  0.6166
   48bbb    H12 1410   9.820   2.638   7.813  1.1536  0.8023  0.3238
   48bbb     C7 1411   9.253   2.665   7.605 -0.0277  0.2143 -0.2225
   48bbb    H13 1412   9.191   2.593   7.549  0.6912 -0.5235 -0.0911
   48bbb    H14 1413   9.293   2.743   7.539  2.7755 -2.2580 -1.6483
   48bbb     C8 1414   9.849   2.842   7.756 -0.3147  0.2440 -0.7493
   48bbb    H15 1415   9.771   2.877   7.824  0.4392  1.7018 -0.5999
   48bbb    H16 1416   9.861   2.902   7.665  1.5017 -1.1393 -1.4907
   48bbb     C9 1417   9.618   2.201   7.671 -0.2356  0.2671 -0.2094
   48bbb    H17 1418   9.542   2.198   7.750 -1.9664 -0.4565 -1.8147
   48bbb    H18 1419   9.722   2.195   7.706 -0.6601  1.7584  1.5106
   48bbb     O1 1420   9.194   2.723   7.720  0.2733 -0.1933 -0.7392
   49bbb     N1 1421   8.069   2.795   7.969 -0.2694 -0.3477 -0.3278
   49bbb     C1 1422   8.004   2.689   8.051  0.3775  0.2689 -0.3925
   49bbb     H1 1423   7.974   2.731   8.148  0.2547 -2.5950  0.9121
   49bbb     H2 1424   8.070   2.606   8.078 -1.0509 -0.3582  1.3877
   49bbb     C2 1425   8.159   2.892   8.035 -0.1121 -0.5160 -0.7020
   49bbb     H3 1426   8.188   2.960   7.954 -1.7460  0.4099 -0.5532
   49bbb     H4 1427   8.253   2.858   8.080 -0.6253  2.2308  3.0528
   49bbb     C3 1428   8.139   2.737   7.846 -0.4459 -0.2467  0.1654
   49bbb     H5 1429   8.180   2.817   7.783 -1.0715 -0.7682 -0.9240
   49bbb     H6 1430   8.071   2.691   7.774 -0.8717  2.5351 -1.3420
   49bbb     C4 1431   8.252   2.636   7.877 -0.4926  0.4414 -0.6092
   49bbb     H7 1432   8.207   2.557   7.939  0.0055  0.5400 -0.1118
   49bbb     H8 1433   8.331   2.678   7.941  1.2479 -3.1548 -0.1406
   49bbb     C5 1434   7.885   2.622   7.979 -0.1130  0.4087  0.3676
   49bbb     H9 1435   7.852   2.540   8.044 -0.5186  1.2767  1.2807
   49bbb    H10 1436   7.918   2.582   7.882 -0.5205  0.3747  0.2429
   49bbb     C6 1437   8.107   2.988   8.153  0.0036  0.6043  0.1341
   49bbb    H11 1438   8.182   3.068   8.166  0.3145  0.3621 -0.1430
   49bbb    H12 1439   8.116   2.941   8.251 -1.8335  1.2496  0.6440
   49bbb     C7 1440   8.324   2.570   7.757  0.8937 -0.5055 -0.2729
   49bbb    H13 1441   8.254   2.523   7.688 -1.0159  0.8397  0.6644
   49bbb    H14 1442   8.397   2.494   7.790  0.3798 -0.5935  0.6852
   49bbb     C8 1443   7.970   3.048   8.115  0.7919  0.3055 -0.0695
   49bbb    H15 1444   7.893   2.973   8.136  2.1119 -0.7458  1.2197
   49bbb    H16 1445   7.971   3.051   8.006 -0.1354  0.2435 -0.0896
   49bbb     C9 1446   7.770   2.727   7.964 -0.0789 -0.0952  0.5603
   49bbb    H17 1447   7.736   2.735   7.860 -0.1361 -0.2300  0.5679
   49bbb    H18 1448   7.799   2.825   8.004  1.3408 -0.2314 -0.0736
   49bbb     O1 1449   8.386   2.674   7.677 -0.4553 -0.4560 -0.3281
   50bbb     N1 1450  10.699   4.493   6.035  0.4887  0.3219 -0.0636
   50bbb     C1 1451  10.701   4.618   6.113 -0.7917  0.0433  0.2979
   50bbb     H1 1452  10.804   4.632   6.147 -0.1139  2.0268 -2.2303
   50bbb     H2 1453  10.638   4.622   6.202  0.6481 -1.8711  1.4782
   50bbb     C2 1454  10.810   4.461   5.943 -0.3081 -0.6024  0.3262
   50bbb     H3 1455  10.902   4.510   5.977 -0.1464 -0.0670 -0.8315
   50bbb     H4 1456  10.799   4.508   5.844  0.9580 -0.3278  0.3039
   50bbb     C3 1457  10.573   4.450   5.973 -0.3231  0.3042  0.4780
   50bbb     H5 1458  10.586   4.344   5.953  1.8380  0.2354  1.9485
   50bbb     H6 1459  10.557   4.508   5.881  1.2934  0.7577  0.4579
   50bbb     C4 1460  10.453   4.463   6.070 -0.4810 -0.2721 -1.0495
   50bbb     H7 1461  10.421   4.567   6.083 -0.8718 -0.6105  1.0486
   50bbb     H8 1462  10.477   4.428   6.171 -2.5728  0.3909 -0.2709
   50bbb     C5 1463  10.675   4.736   6.025 -0.0328 -0.5416  0.2254
   50bbb     H9 1464  10.576   4.720   5.981  0.0646  0.8073 -0.5433
   50bbb    H10 1465  10.747   4.749   5.942 -1.2488 -2.6011 -1.2545
   50bbb     C6 1466  10.832   4.306   5.915  1.0412 -0.0710 -0.8839
   50bbb    H11 1467  10.759   4.283   5.836  1.5714  1.1869 -1.7728
   50bbb    H12 1468  10.815   4.244   6.004  1.6130 -0.4646 -1.0434
   50bbb     C7 1469  10.341   4.376   6.017  0.1154 -0.1959 -0.1195
   50bbb    H13 1470  10.380   4.275   5.997 -0.8187 -0.9055  1.4805
   50bbb    H14 1471  10.299   4.414   5.923 -1.7055  1.1014  1.1371
   50bbb     C8 1472  10.980   4.283   5.862  0.2089  0.1427 -0.1336
   50bbb    H15 1473  11.005   4.360   5.788  0.4613 -1.7254 -2.0861
   50bbb    H16 1474  11.007   4.183   5.827  0.4166  0.3527 -0.5848
   50bbb     C9 1475  10.667   4.875   6.089  0.1960 -0.0289 -1.1018
   50bbb    H17 1476  10.643   4.947   6.010 -0.8947  0.8232 -0.0181
   50bbb    H18 1477  10.765   4.896   6.134  0.6108 -0.9402 -1.5454
   50bbb     O1 1478  10.247   4.367   6.120  1.1455  0.2687  0.0203
   51bbb     N1 1479   9.424   4.026   5.512  0.0614  0.6294 -0.0062
   51bbb     C1 1480   9.492   4.120   5.417 -0.2488 -0.0255  0.2148
   51bbb     H1 1481   9.452   4.115   5.315 -2.9048 -0.4873  1.2046
   51bbb     H2 1482   9.594   4.081   5.410  0.3848  1.7511 -1.3005
   51bbb     C2 1483   9.376   3.909   5.442 -0.4427 -0.2988 -0.4620
   51bbb     H3 1484   9.462   3.846   5.416 -0.0556 -0.7295  1.6323
   51bbb     H4 1485   9.330   3.934   5.346 -1.0308  2.9120  0.5450
   51bbb     C3 1486   9.497   4.010   5.638 -0.0457  0.9370  0.5345
   51bbb     H5 1487   9.423   3.980   5.714  0.6185  0.2799  0.9407
   51bbb     H6 1488   9.549   4.100   5.671  0.8102  0.7527 -0.2712
   51bbb     C4 1489   9.615   3.906   5.621  0.4766 -0.9699  0.7045
   51bbb     H7 1490   9.696   3.945   5.558 -0.1221  0.1626  0.6015
   51bbb     H8 1491   9.580   3.813   5.575  1.4042  0.4097 -3.2227
   51bbb     C5 1492   9.481   4.268   5.457 -0.2379  0.2588 -0.2745
   51bbb     H9 1493   9.519   4.283   5.558  1.1650 -1.7294 -0.4488
   51bbb    H10 1494   9.375   4.296   5.459 -0.1268  0.6159  1.1275
   51bbb     C6 1495   9.267   3.824   5.516 -0.9070 -0.4374 -0.5137
   51bbb    H11 1496   9.179   3.887   5.537 -0.0657 -0.0526  2.3073
   51bbb    H12 1497   9.301   3.800   5.618  0.4273  0.9978 -0.5723
   51bbb     C7 1498   9.686   3.871   5.752  0.0096  0.9263  0.2780
   51bbb    H13 1499   9.770   3.814   5.713  0.1701  1.8011 -0.6951
   51bbb    H14 1500   9.631   3.805   5.821  1.9505 -1.6851 -0.5356
   51bbb     C8 1501   9.224   3.697   5.442 -0.0322 -0.6391 -0.1184
   51bbb    H15 1502   9.151   3.720   5.364  0.1843  1.6317  0.2623
   51bbb    H16 1503   9.177   3.628   5.514  0.9396  1.2294  2.5007
   51bbb     C9 1504   9.545   4.359   5.347 -0.2802 -0.2425  0.7236
   51bbb    H17 1505   9.511   4.322   5.249 -0.0018 -2.9224  1.5527
   51bbb    H18 1506   9.652   4.336   5.349  0.0645  0.5802 -2.5317
   51bbb     O1 1507   9.730   3.995   5.831 -0.2031 -0.9634  0.6129
   52bbb     N1 1508  11.259   2.934   7.144  0.4173  0.3049  0.4218
   52bbb     C1 1509  11.378   2.902   7.216 -0.2950 -0.0889  0.2256
   52bbb     H1 1510  11.391   2.804   7.263  2.3199  0.6672  1.2792
   52bbb     H2 1511  11.387   2.980   7.293  0.0542  1.1906 -1.0670
   52bbb     C2 1512  11.129   2.934   7.224  0.1941 -0.1651  0.0645
   52bbb     H3 1513  11.087   2.833   7.234 -0.4646  0.2527  1.9391
   52bbb     H4 1514  11.056   3.002   7.177 -1.8832 -1.3932  1.3287
   52bbb     C3 1515  11.244   2.856   7.014 -0.2102 -0.6064  0.1670
   52bbb     H5 1516  11.246   2.748   7.031 -1.5152 -0.5354  0.9126
   52bbb     H6 1517  11.327   2.885   6.948  1.3691  0.1689  2.3531
   52bbb     C4 1518  11.115   2.888   6.937  0.2363 -0.7107  0.3416
   52bbb     H7 1519  11.022   2.880   6.994  0.1774  1.1335  0.5815
   52bbb     H8 1520  11.099   2.835   6.843 -0.5010  3.1638 -1.9378
   52bbb     C5 1521  11.502   2.927   7.131 -0.4159  0.3008  0.1686
   52bbb     H9 1522  11.482   3.017   7.072  0.0257  0.4465  0.2365
   52bbb    H10 1523  11.515   2.841   7.064  2.0019 -0.0027  0.9412
   52bbb     C6 1524  11.141   3.006   7.357 -0.2272 -0.8207 -0.6908
   52bbb    H11 1525  11.222   2.959   7.414  1.5616  0.7802 -1.7656
   52bbb    H12 1526  11.049   2.993   7.414  1.2157  2.5156  2.7873
   52bbb     C7 1527  11.120   3.030   6.884  0.1387 -0.7177  0.2120
   52bbb    H13 1528  11.204   3.035   6.814 -1.5612 -0.2969 -1.8927
   52bbb    H14 1529  11.149   3.099   6.964  1.2039 -0.6052 -0.2602
   52bbb     C8 1530  11.144   3.159   7.348 -0.0297 -0.0522 -0.7608
   52bbb    H15 1531  11.092   3.182   7.254 -0.0122 -2.2979 -1.3750
   52bbb    H16 1532  11.247   3.187   7.326 -0.3617  0.9690 -1.0998
   52bbb     C9 1533  11.627   2.932   7.223  0.3958  0.1305  0.2721
   52bbb    H17 1534  11.718   2.932   7.161  0.2241 -0.3217  0.0096
   52bbb    H18 1535  11.629   2.836   7.276 -0.9472  1.0016  2.0271
   52bbb     O1 1536  11.000   3.067   6.815  0.3781  0.4602  0.2632
   53bbb     N1 1537  10.053   2.713   6.398  0.0636  0.2500 -0.5189
   53bbb     C1 1538  10.082   2.575   6.341  0.1817 -0.0337  0.5110
   53bbb     H1 1539  10.156   2.517   6.398  0.8938 -0.9430 -1.2827
   53bbb     H2 1540  10.106   2.585   6.235  0.2465  0.5325  0.5773
   53bbb     C2 1541   9.915   2.763   6.363  0.3215 -0.0112  0.8647
   53bbb     H3 1542   9.894   2.850   6.426  0.4184 -0.0057  0.8904
   53bbb     H4 1543   9.835   2.692   6.386  1.3512 -1.5604 -0.1293
   53bbb     C3 1544  10.153   2.812   6.372 -0.1104 -0.4857 -0.4971
   53bbb     H5 1545  10.107   2.908   6.398 -1.7489 -1.4490  0.2887
   53bbb     H6 1546  10.165   2.818   6.263 -1.4068  1.7783 -0.5700
   53bbb     C4 1547  10.288   2.780   6.446  0.0011 -0.1301 -0.5047
   53bbb     H7 1548  10.322   2.684   6.403  0.8692 -0.2757  0.4634
   53bbb     H8 1549  10.268   2.783   6.553 -0.7641 -1.2499 -0.5954
   53bbb     C5 1550   9.963   2.473   6.351  0.1424  0.1173 -0.0639
   53bbb     H9 1551  10.004   2.375   6.323  0.2352 -0.3506  1.5676
   53bbb    H10 1552   9.903   2.493   6.262 -0.8949 -1.5421  0.2216
   53bbb     C6 1553   9.900   2.808   6.213  0.2451  0.4706 -0.2011
   53bbb    H11 1554   9.956   2.740   6.149  0.8235  0.9205 -0.1783
   53bbb    H12 1555   9.954   2.903   6.207 -0.1377  0.7182  0.1613
   53bbb     C7 1556  10.395   2.875   6.402  0.8368  0.2479  0.1841
   53bbb    H13 1557  10.397   2.875   6.293 -1.7607 -0.1964  0.0868
   53bbb    H14 1558  10.493   2.844   6.441  0.8675  0.4919  0.3040
   53bbb     C8 1559   9.750   2.807   6.170 -0.3152 -0.5913 -0.6102
   53bbb    H15 1560   9.746   2.832   6.063  0.2679  1.1930 -0.2444
   53bbb    H16 1561   9.699   2.886   6.226  3.8665  2.1846 -0.3441
   53bbb     C9 1562   9.887   2.457   6.486 -0.2652 -0.0915  0.1464
   53bbb    H17 1563   9.798   2.399   6.458  0.2170 -0.9873  0.4139
   53bbb    H18 1564   9.850   2.551   6.529  0.4655 -0.6614  2.1464
   53bbb     O1 1565  10.381   3.006   6.452  0.3495 -0.4985  0.0221
   54bbb     N1 1566   7.925   5.563   6.450 -0.0959  0.2819  0.2280
   54bbb     C1 1567   7.861   5.658   6.547  0.4023 -0.1750 -0.0881
   54bbb     H1 1568   7.885   5.760   6.515  2.2849  0.0757  1.8597
   54bbb     H2 1569   7.914   5.646   6.643 -0.6149 -3.6797  0.1718
   54bbb     C2 1570   7.896   5.583   6.305 -0.1941  0.3886 -0.1935
   54bbb     H3 1571   7.809   5.523   6.276  2.2175 -3.3138 -0.4444
   54bbb     H4 1572   7.972   5.531   6.246 -1.4891 -1.2603 -0.4754
   54bbb     C3 1573   7.932   5.422   6.497 -0.4660  0.2938 -0.5910
   54bbb     H5 1574   7.831   5.381   6.488 -1.7989  2.9190  0.9188
   54bbb     H6 1575   7.945   5.424   6.606  1.6886  1.7649 -0.8091
   54bbb     C4 1576   8.047   5.338   6.421 -0.4695 -0.3047  0.1532
   54bbb     H7 1577   8.024   5.335   6.314  0.9302 -0.4193 -0.1568
   54bbb     H8 1578   8.050   5.235   6.457 -1.4097 -0.1006  0.8681
   54bbb     C5 1579   7.714   5.640   6.576  0.1648  0.2948  0.1589
   54bbb     H9 1580   7.703   5.554   6.642  2.0069 -0.8980 -1.0130
   54bbb    H10 1581   7.658   5.616   6.484 -0.5921  1.0622  0.4003
   54bbb     C6 1582   7.887   5.730   6.259 -0.3467 -0.5865 -0.1353
   54bbb    H11 1583   7.969   5.789   6.302  0.0106 -1.8489  0.9772
   54bbb    H12 1584   7.792   5.767   6.297  0.8363  1.3962  1.0658
   54bbb     C7 1585   8.186   5.399   6.441  0.2967 -0.1596 -0.1573
   54bbb    H13 1586   8.176   5.500   6.399 -1.7125  0.4838  1.7364
   54bbb    H14 1587   8.261   5.337   6.390  1.8615  0.5489  1.2273
   54bbb     C8 1588   7.880   5.752   6.103 -0.5421 -0.5832 -0.5317
   54bbb    H15 1589   7.960   5.687   6.065  0.1851 -0.0454  0.0347
   54bbb    H16 1590   7.906   5.854   6.072  0.5958 -1.0585 -1.2067
   54bbb     C9 1591   7.663   5.766   6.639  0.4131 -0.2450  0.5489
   54bbb    H17 1592   7.650   5.848   6.567  0.0143  0.7567  1.7319
   54bbb    H18 1593   7.742   5.797   6.708 -0.0991  0.6146  0.7749
   54bbb     O1 1594   8.214   5.395   6.580  0.4705  0.1240 -0.4105
   55bbb     N1 1595   8.549   6.353   6.986  0.2076  0.0937  0.0922
   55bbb     C1 1596   8.658   6.438   6.945 -0.0633 -0.1557  0.6715
   55bbb     H1 1597   8.750   6.379   6.936 -0.0739 -0.0687 -0.0836
   55bbb     H2 1598   8.680   6.523   7.011  2.3886  0.7792 -1.1560
   55bbb     C2 1599   8.422   6.428   7.025  0.2377  0.2562 -0.0709
   55bbb     H3 1600   8.405   6.507   6.952 -1.8851  2.2484  2.3805
   55bbb     H4 1601   8.433   6.462   7.129 -0.6788  0.0454  0.1003
   55bbb     C3 1602   8.582   6.246   7.087 -0.0013  0.7796  0.1245
   55bbb     H5 1603   8.501   6.172   7.078  1.2778 -0.4786 -1.9174
   55bbb     H6 1604   8.578   6.286   7.189  1.0758  0.1481  0.4273
   55bbb     C4 1605   8.707   6.156   7.075  0.9196 -0.0872  0.8162
   55bbb     H7 1606   8.794   6.209   7.114  1.5178 -1.0367  0.8121
   55bbb     H8 1607   8.726   6.126   6.971 -1.8453 -0.6612  0.3863
   55bbb     C5 1608   8.640   6.499   6.805 -0.0593 -0.5400 -0.4382
   55bbb     H9 1609   8.567   6.581   6.809 -0.4931 -0.9456  0.1039
   55bbb    H10 1610   8.602   6.422   6.737 -0.3456 -0.3165 -0.5360
   55bbb     C6 1611   8.288   6.347   7.011 -0.3931  0.0482 -0.3957
   55bbb    H11 1612   8.205   6.404   7.053  0.0396  0.4017 -0.0146
   55bbb    H12 1613   8.290   6.251   7.063 -0.2721 -1.3201 -2.7616
   55bbb     C7 1614   8.702   6.036   7.169 -0.2474  0.7825 -0.2297
   55bbb    H13 1615   8.685   6.066   7.273  1.6291 -2.0465  1.0268
   55bbb    H14 1616   8.802   5.991   7.173 -1.2720 -1.6150  0.4653
   55bbb     C8 1617   8.245   6.317   6.861 -0.2471  0.7945  1.0157
   55bbb    H15 1618   8.156   6.254   6.850 -1.3311  1.9580  2.5488
   55bbb    H16 1619   8.323   6.261   6.808 -2.6846  1.7073 -4.2344
   55bbb     C9 1620   8.766   6.558   6.743 -0.3500 -0.0125 -0.3879
   55bbb    H17 1621   8.845   6.482   6.754  1.2531  1.5866 -0.4408
   55bbb    H18 1622   8.805   6.639   6.804  1.5675  0.1952 -1.8127
   55bbb     O1 1623   8.606   5.932   7.122 -0.3708 -1.0358 -0.2482
   56bbb     N1 1624   8.803   5.666   7.553 -0.0323 -0.3360 -0.2117
   56bbb     C1 1625   8.808   5.812   7.513  0.0368  0.1475 -0.6588
   56bbb     H1 1626   8.737   5.871   7.573 -0.8039 -0.1163 -1.3772
   56bbb     H2 1627   8.780   5.817   7.407 -1.6652  0.3750 -0.2210
   56bbb     C2 1628   8.677   5.595   7.510 -0.2903  0.6636 -0.0473
   56bbb     H3 1629   8.695   5.488   7.528  2.1206  1.0271  0.0917
   56bbb     H4 1630   8.671   5.615   7.402 -0.0438 -0.9716 -0.3893
   56bbb     C3 1631   8.860   5.644   7.691 -0.0307 -0.1063 -0.3854
   56bbb     H5 1632   8.800   5.704   7.760 -0.3630 -0.7182 -0.1403
   56bbb     H6 1633   8.962   5.685   7.691 -0.3208  0.6449  0.3871
   56bbb     C4 1634   8.858   5.496   7.737  0.2359  0.6789  0.7422
   56bbb     H7 1635   8.920   5.433   7.674 -0.0959  1.0059  0.0776
   56bbb     H8 1636   8.752   5.466   7.732  0.4274  0.2324 -1.1752
   56bbb     C5 1637   8.950   5.882   7.531 -0.8649 -0.2554 -0.4145
   56bbb     H9 1638   9.028   5.807   7.512  1.4940  2.3101 -1.5509
   56bbb    H10 1639   8.952   5.919   7.634 -0.0877  0.0918 -0.5492
   56bbb     C6 1640   8.553   5.643   7.591  0.0699  0.1804  1.2237
   56bbb    H11 1641   8.545   5.752   7.591 -3.0894  0.0278  1.6998
   56bbb    H12 1642   8.571   5.601   7.691 -0.2257 -0.6657  0.9284
   56bbb     C7 1643   8.907   5.480   7.884 -0.1212 -0.1626 -0.3200
   56bbb    H13 1644   8.854   5.554   7.946  2.0233  1.1117  0.0884
   56bbb    H14 1645   9.015   5.494   7.894 -0.5687  3.9983  0.5633
   56bbb     C8 1646   8.425   5.585   7.527  0.0332 -0.3039  0.0414
   56bbb    H15 1647   8.405   5.490   7.577  3.7336 -1.0823  0.2631
   56bbb    H16 1648   8.439   5.568   7.419  0.7971 -0.8654  0.2212
   56bbb     C9 1649   8.975   5.999   7.429 -0.2171  0.2618 -0.0926
   56bbb    H17 1650   8.989   5.955   7.329 -0.6840 -0.1976  0.0370
   56bbb    H18 1651   9.071   6.047   7.449 -0.9122  2.1583 -1.0575
   56bbb     O1 1652   8.859   5.347   7.928 -0.7328  0.4238 -0.5263
   57bbb     N1 1653   8.586   5.700   8.064 -0.8110  0.2423 -0.3205
   57bbb     C1 1654   8.556   5.698   8.208 -0.3293  0.3502 -0.0994
   57bbb     H1 1655   8.454   5.660   8.222  0.6006 -1.5327  2.2557
   57bbb     H2 1656   8.553   5.801   8.245 -0.2226  0.8479 -1.4205
   57bbb     C2 1657   8.540   5.813   7.982 -0.5646  0.1397  0.2144
   57bbb     H3 1658   8.433   5.834   7.994 -0.5621  1.6378 -1.7778
   57bbb     H4 1659   8.565   5.798   7.876 -0.0961  1.5966  0.0863
   57bbb     C3 1660   8.567   5.571   7.994 -0.1073 -0.3652  0.4957
   57bbb     H5 1661   8.597   5.484   8.053 -0.1337 -1.7035 -1.3805
   57bbb     H6 1662   8.642   5.568   7.914 -0.4866  1.5314  0.0209
   57bbb     C4 1663   8.423   5.546   7.939 -0.1114 -1.1250 -0.0617
   57bbb     H7 1664   8.397   5.629   7.872  0.1661  1.2002  2.5228
   57bbb     H8 1665   8.350   5.544   8.020  2.9435 -1.5046  2.9094
   57bbb     C5 1666   8.645   5.602   8.293  0.5748 -0.5879  0.1579
   57bbb     H9 1667   8.750   5.609   8.261  1.1707 -0.6806  1.9503
   57bbb    H10 1668   8.615   5.499   8.267 -1.4612  0.4206 -1.7636
   57bbb     C6 1669   8.630   5.936   8.018 -0.0217  0.7581  0.4163
   57bbb    H11 1670   8.730   5.923   7.976  0.5948 -0.1132  2.0659
   57bbb    H12 1671   8.633   5.953   8.126 -2.5699 -0.9264  0.8684
   57bbb     C7 1672   8.410   5.412   7.857 -0.2211  0.5250  0.6090
   57bbb    H13 1673   8.482   5.392   7.776 -2.2190  0.3197 -1.2044
   57bbb    H14 1674   8.312   5.403   7.809  0.0630  0.7065 -0.0194
   57bbb     C8 1675   8.571   6.060   7.948  0.2398  0.2108  0.9867
   57bbb    H15 1676   8.476   6.081   7.999 -0.0542 -0.3916  0.6901
   57bbb    H16 1677   8.550   6.030   7.845 -0.6339  0.3201  1.1242
   57bbb     C9 1678   8.627   5.644   8.446  0.5847 -0.6756  0.3211
   57bbb    H17 1679   8.677   5.567   8.506 -0.4587 -1.7728 -0.1610
   57bbb    H18 1680   8.522   5.653   8.477  0.9548  2.2317  0.9653
   57bbb     O1 1681   8.416   5.309   7.958  0.1146 -0.0338  0.5211
   58bbb     N1 1682   8.471   3.282   7.896  0.1392 -0.0504  0.0961
   58bbb     C1 1683   8.599   3.353   7.937  0.0904 -0.5396 -0.4063
   58bbb     H1 1684   8.600   3.378   8.044 -0.5569 -1.7254 -0.1086
   58bbb     H2 1685   8.614   3.452   7.892  1.6992 -0.6967 -0.3080
   58bbb     C2 1686   8.364   3.373   7.954  0.4321 -0.0755  0.2663
   58bbb     H3 1687   8.362   3.469   7.900 -1.4214 -0.8540 -1.1381
   58bbb     H4 1688   8.372   3.392   8.062 -4.8474  6.2170  0.1775
   58bbb     C3 1689   8.454   3.249   7.751 -0.6942  0.1046 -0.4943
   58bbb     H5 1690   8.365   3.187   7.735 -0.4432 -0.6039  0.7153
   58bbb     H6 1691   8.541   3.196   7.710  0.7983 -0.9270  3.4978
   58bbb     C4 1692   8.438   3.376   7.657 -0.2074 -0.0845 -0.2331
   58bbb     H7 1693   8.519   3.447   7.673  0.2209 -0.6273  0.0446
   58bbb     H8 1694   8.344   3.428   7.679  1.2111  1.5035  2.7343
   58bbb     C5 1695   8.730   3.273   7.908  0.0136  0.4101  0.8155
   58bbb     H9 1696   8.733   3.250   7.800  0.6018 -1.2262  1.1488
   58bbb    H10 1697   8.727   3.171   7.946  0.4671  0.1118  0.0852
   58bbb     C6 1698   8.218   3.335   7.947  0.1505 -0.2776  0.0944
   58bbb    H11 1699   8.203   3.243   8.004 -0.0658  0.4033  1.1760
   58bbb    H12 1700   8.198   3.320   7.840 -1.7884 -1.4529  0.5626
   58bbb     C7 1701   8.433   3.340   7.506  0.0213  0.2204 -0.2731
   58bbb    H13 1702   8.380   3.247   7.487  0.5122  0.1452 -1.3201
   58bbb    H14 1703   8.539   3.325   7.483  0.8127  1.5502  2.0943
   58bbb     C8 1704   8.121   3.451   7.994 -0.1577  0.7677  0.3963
   58bbb    H15 1705   8.151   3.553   7.968 -2.4511  1.6370  0.8979
   58bbb    H16 1706   8.102   3.440   8.102 -0.2198  0.0045  0.3152
   58bbb     C9 1707   8.844   3.366   7.970  0.5723  0.0108 -0.6861
   58bbb    H17 1708   8.830   3.353   8.078  0.7565  0.2360 -0.6345
   58bbb    H18 1709   8.825   3.471   7.946 -0.9504 -0.1926 -0.4645
   58bbb     O1 1710   8.386   3.448   7.425 -0.1058  0.1708 -0.0399
   59bbb     N1 1711   7.608   4.418   6.922 -0.5749 -0.5572  0.2719
   59bbb     C1 1712   7.668   4.448   6.796  0.1228  0.1504  0.9963
   59bbb     H1 1713   7.624   4.538   6.752  0.8119 -0.0477 -0.1320
   59bbb     H2 1714   7.649   4.375   6.716  4.2982 -0.8650  0.7022
   59bbb     C2 1715   7.582   4.525   7.021 -0.3577  0.6789  0.4232
   59bbb     H3 1716   7.668   4.530   7.089  0.5603 -0.1010 -0.6402
   59bbb     H4 1717   7.506   4.489   7.092  0.2538 -0.8648  0.3359
   59bbb     C3 1718   7.659   4.307   6.995 -0.2315  0.3519 -0.1912
   59bbb     H5 1719   7.583   4.283   7.070 -3.2830  1.5068 -2.7140
   59bbb     H6 1720   7.751   4.318   7.054 -0.4778  1.9246 -0.0504
   59bbb     C4 1721   7.681   4.173   6.919  0.1495  0.5633 -0.3480
   59bbb     H7 1722   7.755   4.177   6.839 -0.3457 -2.6068 -1.0988
   59bbb     H8 1723   7.592   4.141   6.864  0.9858 -3.9456  0.5053
   59bbb     C5 1724   7.821   4.474   6.803  0.4834 -0.3110  0.0510
   59bbb     H9 1725   7.859   4.376   6.834 -0.9678 -0.8684  0.1324
   59bbb    H10 1726   7.837   4.558   6.872  0.3927  0.1622 -0.4938
   59bbb     C6 1727   7.534   4.664   6.974 -0.4872 -0.5448 -0.2812
   59bbb    H11 1728   7.615   4.720   6.925 -0.0320 -1.4877 -0.6244
   59bbb    H12 1729   7.517   4.722   7.066 -0.4249  0.0229 -0.6207
   59bbb     C7 1730   7.730   4.049   7.001  0.0755  0.4017 -0.2061
   59bbb    H13 1731   7.714   3.953   6.950 -0.3182 -0.8940  2.1732
   59bbb    H14 1732   7.669   4.037   7.091  0.8870 -0.4667  0.2534
   59bbb     C8 1733   7.404   4.669   6.880 -0.0027  0.1831 -0.4321
   59bbb    H15 1734   7.323   4.633   6.944 -0.9834  0.1648 -1.6530
   59bbb    H16 1735   7.432   4.592   6.806 -1.4820 -2.2325  1.3641
   59bbb     C9 1736   7.890   4.499   6.666 -0.5089 -0.2560 -0.2840
   59bbb    H17 1737   8.000   4.502   6.670 -0.3513  1.8089 -3.1647
   59bbb    H18 1738   7.876   4.601   6.628  0.6321  0.2403  0.5673
   59bbb     O1 1739   7.868   4.077   7.040  0.1954  0.5829 -0.2126
   60bbb     N1 1740   8.199   2.920   8.806 -0.3206 -0.0474 -0.3671
   60bbb     C1 1741   8.069   2.871   8.852  0.2532  0.0882 -0.1173
   60bbb     H1 1742   8.080   2.803   8.938  0.8813  0.9984  0.5468
   60bbb     H2 1743   8.015   2.823   8.770  1.4083 -0.9939 -0.2745
   60bbb     C2 1744   8.300   2.818   8.787  0.9391  0.0808 -0.1837
   60bbb     H3 1745   8.398   2.854   8.751  2.2313 -1.0485  2.0065
   60bbb     H4 1746   8.266   2.753   8.706  0.2773  0.6385 -0.3676
   60bbb     C3 1747   8.182   3.005   8.684 -0.3984 -0.2684 -0.4881
   60bbb     H5 1748   8.092   3.068   8.680 -0.9720 -0.7627  2.4791
   60bbb     H6 1749   8.166   2.932   8.603 -1.4220 -0.5594 -0.0414
   60bbb     C4 1750   8.305   3.097   8.638 -0.3519 -0.1524  0.3059
   60bbb     H7 1751   8.402   3.052   8.664 -0.6975 -0.8870  0.3265
   60bbb     H8 1752   8.300   3.191   8.694 -0.9667 -0.1637  0.2781
   60bbb     C5 1753   7.970   2.983   8.893  0.6864  0.0979  0.0635
   60bbb     H9 1754   7.935   3.039   8.805  0.8760 -0.8348 -0.6170
   60bbb    H10 1755   8.024   3.062   8.947  0.0282  0.0967  0.7311
   60bbb     C6 1756   8.327   2.723   8.904  0.1667  0.5027  0.0608
   60bbb    H11 1757   8.235   2.672   8.934  1.0500 -0.8397  0.5855
   60bbb    H12 1758   8.365   2.778   8.991  0.0033  0.2909  0.2658
   60bbb     C7 1759   8.289   3.140   8.490 -0.2960 -0.2792 -0.0291
   60bbb    H13 1760   8.182   3.158   8.473  0.0019  0.9202 -0.7407
   60bbb    H14 1761   8.320   3.061   8.420  2.7633  1.9337 -1.4065
   60bbb     C8 1762   8.420   2.604   8.867 -0.1957 -0.2337  0.3050
   60bbb    H15 1763   8.390   2.561   8.771  1.0526  1.2755 -0.8018
   60bbb    H16 1764   8.407   2.525   8.943 -0.5158 -2.1676 -1.6623
   60bbb     C9 1765   7.848   2.925   8.968 -0.2274  0.1218  0.1610
   60bbb    H17 1766   7.794   3.005   9.020 -0.6059 -0.0882  0.0955
   60bbb    H18 1767   7.881   2.863   9.052  0.9460  0.5269  0.0160
   60bbb     O1 1768   8.371   3.258   8.474  0.4762 -0.1861  0.4933
   61bbb     N1 1769   7.535   3.756   8.838 -0.0548  0.0640 -0.2676
   61bbb     C1 1770   7.407   3.691   8.888 -0.0798 -0.1789 -0.4171
   61bbb     H1 1771   7.412   3.585   8.916 -0.9957 -0.1585 -0.1493
   61bbb     H2 1772   7.338   3.692   8.802 -0.4547  2.6781 -0.1615
   61bbb     C2 1773   7.514   3.839   8.712 -0.4093  0.4201 -0.3513
   61bbb     H3 1774   7.479   3.779   8.627 -0.4628 -1.7327  1.1017
   61bbb     H4 1775   7.616   3.874   8.695  0.7523 -1.3726  2.2096
   61bbb     C3 1776   7.645   3.659   8.804 -0.2767 -0.2167  0.2011
   61bbb     H5 1777   7.721   3.713   8.744 -0.4728 -0.9511 -0.7235
   61bbb     H6 1778   7.603   3.580   8.741  0.7462 -0.3770 -0.3062
   61bbb     C4 1779   7.719   3.601   8.921  0.1706  0.5748 -0.2544
   61bbb     H7 1780   7.653   3.525   8.964  0.4318 -0.8864 -2.3035
   61bbb     H8 1781   7.741   3.677   8.998  0.1895  0.3701 -0.0543
   61bbb     C5 1782   7.339   3.756   9.009 -0.0788  0.1182  0.5206
   61bbb     H9 1783   7.301   3.857   8.990  1.0546  0.2635 -1.2906
   61bbb    H10 1784   7.421   3.773   9.081 -0.6485 -1.4541  1.5908
   61bbb     C6 1785   7.428   3.967   8.719 -0.2957  0.3487 -0.0589
   61bbb    H11 1786   7.323   3.937   8.732 -0.4061  0.5288 -0.5044
   61bbb    H12 1787   7.422   4.014   8.620  0.4640  2.9496  1.0586
   61bbb     C7 1788   7.855   3.532   8.889 -0.0386  0.2863 -0.0141
   61bbb    H13 1789   7.871   3.449   8.960  1.0797 -0.1784 -0.7971
   61bbb    H14 1790   7.936   3.604   8.906 -1.1208  1.2811  1.1480
   61bbb     C8 1791   7.482   4.066   8.824 -0.8781  1.0708 -0.0442
   61bbb    H15 1792   7.583   4.100   8.798  0.2754 -1.4312  0.8607
   61bbb    H16 1793   7.491   4.029   8.927  0.2191  1.3097 -0.0358
   61bbb     C9 1794   7.229   3.661   9.056 -0.0671 -0.4017 -0.0382
   61bbb    H17 1795   7.196   3.682   9.158  0.7017 -1.9555  0.5667
   61bbb    H18 1796   7.264   3.558   9.050  2.5875  0.4531 -0.9246
   61bbb     O1 1797   7.854   3.476   8.753  0.1957  0.3551 -0.2208
   62bbb     N1 1798  12.120   3.532   7.274  0.6662  0.1312 -1.1624
   62bbb     C1 1799  12.214   3.648   7.297 -0.2801 -0.1171 -0.3515
   62bbb     H1 1800  12.200   3.739   7.238 -0.1215 -0.0713 -0.3194
   62bbb     H2 1801  12.317   3.623   7.269 -0.2801 -1.4684  0.7441
   62bbb     C2 1802  12.112   3.425   7.375 -0.0151  0.2495 -0.5965
   62bbb     H3 1803  12.034   3.357   7.340 -0.6528  1.3655 -1.4006
   62bbb     H4 1804  12.081   3.464   7.472 -0.3810 -2.1965  0.3317
   62bbb     C3 1805  12.111   3.485   7.138 -0.5876 -0.0374  0.1874
   62bbb     H5 1806  12.067   3.384   7.139 -0.4008 -0.1387 -0.7426
   62bbb     H6 1807  12.213   3.476   7.099 -0.2382  0.4157  0.9853
   62bbb     C4 1808  12.030   3.584   7.052 -0.5391 -0.6494 -0.0550
   62bbb     H7 1809  12.088   3.669   7.014 -1.2572 -0.9512 -1.9251
   62bbb     H8 1810  11.951   3.636   7.107 -1.0938 -1.3276 -0.1999
   62bbb     C5 1811  12.218   3.694   7.445  0.1056 -1.0029 -0.6314
   62bbb     H9 1812  12.307   3.759   7.444  0.5610 -1.6181 -1.2332
   62bbb    H10 1813  12.238   3.617   7.520 -1.0603  0.1693  0.9703
   62bbb     C6 1814  12.247   3.338   7.382 -0.4966 -0.5757  0.7458
   62bbb    H11 1815  12.335   3.399   7.355 -0.5983 -1.2644 -1.2584
   62bbb    H12 1816  12.245   3.267   7.299  1.7143  1.2631 -1.0486
   62bbb     C7 1817  11.976   3.530   6.925  0.1094  1.1070  0.0525
   62bbb    H13 1818  12.039   3.522   6.836 -2.2016  1.1057 -1.6753
   62bbb    H14 1819  11.892   3.597   6.900 -0.6134 -0.1476 -0.9862
   62bbb     C8 1820  12.274   3.265   7.511  0.8080  0.1365  0.3671
   62bbb    H15 1821  12.324   3.336   7.579  1.5815 -0.5690  0.5542
   62bbb    H16 1822  12.347   3.185   7.491  0.2930  0.5032 -3.7322
   62bbb     C9 1823  12.107   3.797   7.480  0.0828 -0.1790  0.2593
   62bbb    H17 1824  12.009   3.763   7.444 -1.3167  2.2678  1.5451
   62bbb    H18 1825  12.138   3.886   7.424  2.0139 -1.2074 -0.3977
   62bbb     O1 1826  11.914   3.402   6.946  0.0996  0.1760  0.1146
   63bbb     N1 1827  10.987   3.433   6.336  0.2785 -0.0229 -0.4988
   63bbb     C1 1828  10.998   3.580   6.347  0.0025 -0.2442  0.2462
   63bbb     H1 1829  11.090   3.624   6.306 -1.1646  1.4500 -0.7171
   63bbb     H2 1830  10.993   3.614   6.451 -0.2620  1.4827 -0.2901
   63bbb     C2 1831  10.850   3.370   6.341  0.1473 -0.2978  0.5184
   63bbb     H3 1832  10.781   3.420   6.271  1.5186 -0.3347 -0.9239
   63bbb     H4 1833  10.800   3.375   6.438  0.6546  0.8719  0.7448
   63bbb     C3 1834  11.085   3.372   6.423  0.4079 -0.4829 -0.2337
   63bbb     H5 1835  11.072   3.263   6.425 -1.5795 -0.3070  2.2758
   63bbb     H6 1836  11.074   3.416   6.523  1.6598 -0.9607  0.1355
   63bbb     C4 1837  11.221   3.398   6.366  0.3490 -0.2243  0.2568
   63bbb     H7 1838  11.247   3.499   6.401 -0.8249  0.5394 -0.9711
   63bbb     H8 1839  11.212   3.402   6.257  1.7282  0.9506  0.1580
   63bbb     C5 1840  10.890   3.671   6.284  0.2472  0.7625  0.0841
   63bbb     H9 1841  10.796   3.645   6.334 -0.0181  1.5290 -0.0077
   63bbb    H10 1842  10.866   3.637   6.182 -2.4604 -1.2228  1.2719
   63bbb     C6 1843  10.841   3.220   6.294  0.1619 -0.8846  0.2507
   63bbb    H11 1844  10.737   3.201   6.265  0.3059 -0.6709 -0.4354
   63bbb    H12 1845  10.859   3.144   6.371  0.2428 -1.3403 -0.2084
   63bbb     C7 1846  11.343   3.311   6.401 -0.2515 -0.0409  0.6751
   63bbb    H13 1847  11.436   3.353   6.362 -0.0181 -1.1845 -0.0569
   63bbb    H14 1848  11.335   3.218   6.344 -3.6676 -0.0186  0.9114
   63bbb     C8 1849  10.942   3.190   6.180  0.5508  0.0659 -0.2843
   63bbb    H15 1850  11.043   3.223   6.204  0.9529  1.3405 -3.3149
   63bbb    H16 1851  10.918   3.240   6.085  1.0264  0.1308 -0.3730
   63bbb     C9 1852  10.904   3.824   6.306  0.9723  0.1056  0.2025
   63bbb    H17 1853  10.921   3.836   6.414 -2.2828 -1.2588  1.0022
   63bbb    H18 1854  10.819   3.890   6.283  0.5946 -0.2253  0.6131
   63bbb     O1 1855  11.348   3.280   6.544 -0.1775 -0.0157 -0.4819
   64bbb     N1 1856  10.114   3.250   8.377  0.6502 -0.7034 -0.0965
   64bbb     C1 1857  10.220   3.334   8.433 -0.0209 -0.4865  0.4768
   64bbb     H1 1858  10.285   3.362   8.349 -0.3683  0.3673  0.4796
   64bbb     H2 1859  10.289   3.277   8.496  2.8862  0.2643 -1.7434
   64bbb     C2 1860  10.167   3.113   8.344  0.1482 -0.0476  0.1086
   64bbb     H3 1861  10.237   3.086   8.424  0.5047  0.0810 -0.1579
   64bbb     H4 1862  10.210   3.116   8.243  0.3322 -0.1203  0.1838
   64bbb     C3 1863  10.034   3.321   8.272 -0.6826 -0.0707 -0.4630
   64bbb     H5 1864   9.985   3.410   8.314  0.8274  0.4546  0.2573
   64bbb     H6 1865   9.956   3.249   8.241 -0.6334 -0.0662 -0.5960
   64bbb     C4 1866  10.114   3.361   8.143 -1.3095  0.6647  0.3539
   64bbb     H7 1867  10.180   3.289   8.093  0.6797  1.6979  1.3701
   64bbb     H8 1868  10.192   3.437   8.153 -0.2684 -0.4370  0.8568
   64bbb     C5 1869  10.180   3.466   8.517 -0.3329  0.6482  0.2124
   64bbb     H9 1870  10.144   3.435   8.616  2.1757  0.2783  1.0769
   64bbb    H10 1871  10.096   3.517   8.467  0.9366 -0.0070 -2.7933
   64bbb     C6 1872  10.062   2.995   8.344  0.0573 -0.1926  0.3760
   64bbb    H11 1873   9.986   3.017   8.268  1.6154 -2.1392 -1.8641
   64bbb    H12 1874  10.013   3.004   8.442 -0.0938  0.6707  0.2354
   64bbb     C7 1875  10.005   3.421   8.048 -0.6145 -0.5195  0.0170
   64bbb    H13 1876  10.049   3.509   7.998  0.8847 -0.9679  0.4769
   64bbb    H14 1877   9.926   3.461   8.112  0.2303 -1.0106  1.3999
   64bbb     C8 1878  10.113   2.850   8.321 -0.5304  0.3826 -0.1672
   64bbb    H15 1879  10.138   2.829   8.216  0.6309  3.7599 -0.6834
   64bbb    H16 1880  10.028   2.780   8.326 -0.9332  0.8726 -0.0419
   64bbb     C9 1881  10.305   3.553   8.542  0.0469  0.4705  0.0295
   64bbb    H17 1882  10.375   3.487   8.594  0.0918  0.4246 -0.0896
   64bbb    H18 1883  10.272   3.639   8.602 -0.0232 -0.5411  1.4939
   64bbb     O1 1884   9.958   3.321   7.954  0.0838 -0.5700 -0.8367
   65bbb     N1 1885   9.518   2.612   7.026 -0.5546  0.9041 -0.6355
   65bbb     C1 1886   9.532   2.464   7.047  0.9027 -0.5480 -0.1067
   65bbb     H1 1887   9.635   2.430   7.029  0.8037  0.6790 -3.5170
   65bbb     H2 1888   9.469   2.420   6.969  0.7183 -0.2708 -0.1158
   65bbb     C2 1889   9.552   2.651   6.888 -0.2052 -0.8003 -0.5681
   65bbb     H3 1890   9.501   2.593   6.810 -0.4543 -1.9091  0.4001
   65bbb     H4 1891   9.661   2.635   6.884 -0.0734 -0.2297  0.3971
   65bbb     C3 1892   9.571   2.697   7.141 -0.0111  0.5358 -0.2822
   65bbb     H5 1893   9.525   2.672   7.237 -0.6419 -1.5344 -1.0580
   65bbb     H6 1894   9.557   2.804   7.124 -0.3039  0.7641  1.2762
   65bbb     C4 1895   9.724   2.674   7.157  0.0176 -0.3974 -0.3394
   65bbb     H7 1896   9.773   2.713   7.067 -0.0242  1.0085  0.2188
   65bbb     H8 1897   9.737   2.568   7.182 -1.3037  0.1855  3.5259
   65bbb     C5 1898   9.488   2.411   7.190 -0.3169  0.3363 -0.4301
   65bbb     H9 1899   9.383   2.434   7.212 -0.1935 -0.1685  0.7842
   65bbb    H10 1900   9.536   2.471   7.269  1.7767 -0.3716 -1.0855
   65bbb     C6 1901   9.536   2.808   6.863  0.4673  0.0207  0.2777
   65bbb    H11 1902   9.605   2.867   6.924  1.0353  1.3481 -1.5409
   65bbb    H12 1903   9.434   2.831   6.897 -1.0721  0.8596 -4.2124
   65bbb     C7 1904   9.777   2.751   7.279 -0.5120 -0.6365 -0.3869
   65bbb    H13 1905   9.887   2.748   7.283 -0.5384 -0.5089  0.5993
   65bbb    H14 1906   9.733   2.709   7.370 -1.2822  2.8584  0.9873
   65bbb     C8 1907   9.540   2.846   6.713  0.0522 -0.5502  0.2916
   65bbb    H15 1908   9.626   2.792   6.671  0.7093 -0.1724  1.1253
   65bbb    H16 1909   9.549   2.955   6.701  0.3566 -0.5420  0.5557
   65bbb     C9 1910   9.531   2.265   7.226  0.0996 -0.1756 -0.1416
   65bbb    H17 1911   9.472   2.197   7.162 -1.4765  0.8138  0.2092
   65bbb    H18 1912   9.496   2.247   7.328 -1.0520 -1.9536 -0.7824
   65bbb     O1 1913   9.751   2.890   7.267  0.3088  0.0484  0.5803
   66bbb     N1 1914  10.582   5.938   7.764  0.1870  0.4886  0.0195
   66bbb     C1 1915  10.614   5.801   7.806  0.1734 -0.0198  0.3433
   66bbb     H1 1916  10.578   5.737   7.724 -2.3123 -0.4745  1.6659
   66bbb     H2 1917  10.557   5.772   7.895  0.0435 -0.8946 -0.0112
   66bbb     C2 1918  10.580   6.032   7.875  0.2178 -0.3791 -0.2088
   66bbb     H3 1919  10.581   6.132   7.831 -1.5316  0.1367  0.8339
   66bbb     H4 1920  10.673   6.030   7.934  0.3409  2.6966 -0.1310
   66bbb     C3 1921  10.662   5.995   7.656 -0.2147  0.4414  0.8582
   66bbb     H5 1922  10.769   5.980   7.676  0.3284  1.7911 -0.7633
   66bbb     H6 1923  10.650   6.103   7.639 -0.9124  0.1094 -1.0369
   66bbb     C4 1924  10.627   5.939   7.514 -0.0928  0.5244 -0.2815
   66bbb     H7 1925  10.617   5.831   7.529 -1.0081  0.4515 -1.2671
   66bbb     H8 1926  10.707   5.951   7.440  0.2890 -0.6779 -0.0964
   66bbb     C5 1927  10.760   5.764   7.836 -0.0412  0.2167 -0.2596
   66bbb     H9 1928  10.783   5.817   7.929 -0.5415  1.1598 -0.6603
   66bbb    H10 1929  10.831   5.793   7.758 -0.8378 -0.5723 -1.2988
   66bbb     C6 1930  10.462   6.023   7.968 -0.0183 -0.6317  0.3037
   66bbb    H11 1931  10.479   5.940   8.037  1.1399 -0.0541  0.7287
   66bbb    H12 1932  10.363   6.006   7.924  0.0898 -0.1505 -0.1341
   66bbb     C7 1933  10.497   6.001   7.459 -0.1721  0.2960  0.2775
   66bbb    H13 1934  10.499   6.110   7.469  0.3408  0.2560  0.6556
   66bbb    H14 1935  10.416   5.979   7.530 -0.1164 -0.5973  0.0764
   66bbb     C8 1936  10.438   6.147   8.053  0.4343 -0.0127 -0.5123
   66bbb    H15 1937  10.374   6.223   8.008 -0.6650  0.6952  2.0340
   66bbb    H16 1938  10.533   6.194   8.080  0.4907 -0.3915 -0.0155
   66bbb     C9 1939  10.783   5.617   7.852  0.4336  0.3978 -0.4687
   66bbb    H17 1940  10.703   5.579   7.917  0.1085  1.8079 -0.0233
   66bbb    H18 1941  10.875   5.613   7.912  0.5307 -0.7220 -0.6620
   66bbb     O1 1942  10.470   5.979   7.318  0.0658 -0.1483 -0.3340
   67bbb     N1 1943  10.522   5.511   8.127  0.2140 -0.6511  0.2104
   67bbb     C1 1944  10.548   5.384   8.190 -0.8996  0.6575  0.4688
   67bbb     H1 1945  10.458   5.321   8.184 -0.8835  0.7755 -2.2764
   67bbb     H2 1946  10.575   5.400   8.295 -2.9658  1.4796  0.9274
   67bbb     C2 1947  10.497   5.624   8.221 -0.1390 -0.1484  1.1636
   67bbb     H3 1948  10.422   5.594   8.295 -1.5747 -1.1201 -0.6215
   67bbb     H4 1949  10.452   5.713   8.174  1.4796 -0.8816 -2.0850
   67bbb     C3 1950  10.417   5.510   8.016 -0.5809  0.3755 -0.6301
   67bbb     H5 1951  10.453   5.442   7.938  3.2830  1.4863 -0.0090
   67bbb     H6 1952  10.424   5.606   7.964 -0.6656 -0.2724 -1.8828
   67bbb     C4 1953  10.273   5.474   8.060  0.1854 -0.2065 -0.1684
   67bbb     H7 1954  10.242   5.549   8.134  1.1635  1.0466 -0.9921
   67bbb     H8 1955  10.273   5.376   8.110 -0.4364 -0.0922  0.0541
   67bbb     C5 1956  10.663   5.305   8.130  0.2467  0.3537 -0.0551
   67bbb     H9 1957  10.643   5.281   8.025 -1.0416  1.9545 -0.2250
   67bbb    H10 1958  10.680   5.209   8.181  0.5838  1.5954  2.3014
   67bbb     C6 1959  10.629   5.669   8.294  0.7897 -0.6456  0.0991
   67bbb    H11 1960  10.664   5.582   8.351 -1.8110 -1.2606  0.9109
   67bbb    H12 1961  10.595   5.743   8.367 -0.1907 -0.9130 -0.0727
   67bbb     C7 1962  10.168   5.464   7.944 -0.1528 -0.0834  0.3697
   67bbb    H13 1963  10.070   5.457   7.992  0.6799 -0.4447  2.0773
   67bbb    H14 1964  10.184   5.370   7.890  0.0658  0.2641 -0.1813
   67bbb     C8 1965  10.728   5.725   8.198  0.5752  0.2085  0.1180
   67bbb    H15 1966  10.697   5.822   8.159 -1.9446 -0.2042  0.9362
   67bbb    H16 1967  10.733   5.660   8.110 -0.2051  0.0565  0.1780
   67bbb     C9 1968  10.799   5.377   8.135 -0.4360  0.5740  0.1157
   67bbb    H17 1969  10.824   5.403   8.239 -0.7615  1.2930  0.0183
   67bbb    H18 1970  10.790   5.474   8.086  0.5875  1.3398  1.3718
   67bbb     O1 1971  10.178   5.585   7.861 -0.1406  0.1996  0.1444
   68bbb     N1 1972  10.156   5.564   8.657  0.4366  0.2453  0.4089
   68bbb     C1 1973  10.097   5.694   8.609 -0.3217 -0.7280  0.3488
   68bbb     H1 1974  10.117   5.782   8.671  1.2520 -0.6031 -0.2864
   68bbb     H2 1975   9.987   5.695   8.598 -0.1019  1.2881 -3.7535
   68bbb     C2 1976  10.086   5.536   8.782  0.4010 -0.0775 -0.4523
   68bbb     H3 1977   9.980   5.559   8.765  0.1812 -1.2757 -0.8054
   68bbb     H4 1978  10.112   5.607   8.861 -1.0149 -0.3741  0.3035
   68bbb     C3 1979  10.298   5.554   8.659 -0.9810  0.1824  0.7722
   68bbb     H5 1980  10.336   5.567   8.557  0.2793 -0.5789  1.1369
   68bbb     H6 1981  10.332   5.453   8.685 -1.3210  0.3636  2.0151
   68bbb     C4 1982  10.378   5.644   8.755  0.2008 -0.3518  0.4036
   68bbb     H7 1983  10.345   5.632   8.859  0.3982  2.4811  0.8774
   68bbb     H8 1984  10.347   5.747   8.734 -0.0162 -0.3627  0.6639
   68bbb     C5 1985  10.144   5.737   8.471  0.0985 -0.1317  0.5379
   68bbb     H9 1986  10.252   5.757   8.476  0.1195  0.1756 -0.7546
   68bbb    H10 1987  10.100   5.837   8.460 -0.2028 -0.0194  2.4724
   68bbb     C6 1988  10.087   5.389   8.833  0.0739 -0.3022  0.8430
   68bbb    H11 1989  10.183   5.339   8.811 -0.2661 -1.4809  1.9589
   68bbb    H12 1990  10.009   5.331   8.782 -1.7894  2.4208  0.3554
   68bbb     C7 1991  10.533   5.616   8.755  0.4632  0.2857 -0.3866
   68bbb    H13 1992  10.537   5.511   8.786 -0.9219 -0.1356 -1.5399
   68bbb    H14 1993  10.571   5.688   8.828  0.7142 -0.8123  0.6024
   68bbb     C8 1994  10.081   5.382   8.984 -0.2851 -0.5346  0.1721
   68bbb    H15 1995  10.090   5.277   9.014  1.2026  0.4134  3.5536
   68bbb    H16 1996   9.987   5.417   9.030 -0.5136 -1.5872  0.5387
   68bbb     C9 1997  10.102   5.655   8.337 -0.2824  0.1319 -0.0306
   68bbb    H17 1998  10.000   5.620   8.355  0.7264 -1.7162  2.9056
   68bbb    H18 1999  10.167   5.567   8.326 -1.4331 -0.7735  0.2151
   68bbb     O1 2000  10.597   5.636   8.623 -0.7225  0.1030 -0.3452
   69bbb     N1 2001  11.221   4.760   8.152 -0.2418  0.0593  0.0073
   69bbb     C1 2002  11.103   4.671   8.136  0.2473  0.0035  0.8906
   69bbb     H1 2003  11.116   4.595   8.057 -0.4921 -0.9026  1.6133
   69bbb     H2 2004  11.013   4.726   8.107  0.0331 -0.5743  0.4380
   69bbb     C2 2005  11.282   4.807   8.031 -0.7197  0.0038  0.5955
   69bbb     H3 2006  11.303   4.721   7.966  1.5543  1.6490 -1.0266
   69bbb     H4 2007  11.380   4.854   8.048 -0.6760  0.9426 -1.8748
   69bbb     C3 2008  11.210   4.872   8.255  0.1584  0.3213  0.6445
   69bbb     H5 2009  11.198   4.828   8.355  0.0992  0.6542  0.7851
   69bbb     H6 2010  11.118   4.927   8.232  2.3148  3.3094 -1.5612
   69bbb     C4 2011  11.335   4.967   8.265  0.3266 -0.3334  0.6341
   69bbb     H7 2012  11.339   5.038   8.182 -0.9988 -0.1999  0.6650
   69bbb     H8 2013  11.419   4.897   8.274  0.5570 -0.5386 -2.2347
   69bbb     C5 2014  11.054   4.602   8.273  0.1767  0.1616  0.8447
   69bbb     H9 2015  11.018   4.673   8.348  0.8836  2.0588 -0.5337
   69bbb    H10 2016  11.136   4.549   8.321  0.6511  1.0385  1.0264
   69bbb     C6 2017  11.204   4.910   7.945 -0.2064  0.0228 -0.2657
   69bbb    H11 2018  11.179   4.992   8.013  0.5075 -0.1749  0.2385
   69bbb    H12 2019  11.109   4.863   7.916 -0.8713  2.4333 -2.3101
   69bbb     C7 2020  11.319   5.059   8.388 -0.6131  0.0653  0.3251
   69bbb    H13 2021  11.408   5.123   8.394 -1.4942  1.3246  0.5963
   69bbb    H14 2022  11.325   4.989   8.472 -0.7072 -1.0332 -0.5707
   69bbb     C8 2023  11.282   4.961   7.821 -0.2944  0.1643 -0.4402
   69bbb    H15 2024  11.235   5.041   7.762  1.3642 -0.4427 -2.7285
   69bbb    H16 2025  11.278   4.879   7.748  0.3609 -2.0670  1.9089
   69bbb     C9 2026  10.950   4.497   8.243  0.1411 -0.0221  0.2400
   69bbb    H17 2027  10.951   4.432   8.331  0.7571  1.8174  1.6838
   69bbb    H18 2028  10.979   4.448   8.149  0.1870 -1.0821  0.7971
   69bbb     O1 2029  11.198   5.136   8.377  0.1209  0.1756 -0.2036
   70bbb     N1 2030  10.013   4.895   5.266  0.2106 -0.1348 -0.6174
   70bbb     C1 2031   9.884   4.936   5.327  0.6028  0.2960  0.6628
   70bbb     H1 2032   9.807   4.875   5.278  1.2234  1.1918 -1.5509
   70bbb     H2 2033   9.853   5.041   5.319 -1.1328 -0.0789  1.8097
   70bbb     C2 2034  10.020   4.926   5.119  0.2364  0.5387  0.1744
   70bbb     H3 2035  10.111   4.887   5.072 -0.3962 -1.1709  0.2698
   70bbb     H4 2036  10.019   5.034   5.102 -0.6113  0.7735  1.5411
   70bbb     C3 2037  10.129   4.961   5.335 -0.3956  0.2538  0.6210
   70bbb     H5 2038  10.130   4.927   5.439  3.0648 -0.0331  0.6386
   70bbb     H6 2039  10.121   5.070   5.331  1.6636  0.4404  0.2938
   70bbb     C4 2040  10.270   4.916   5.279  0.0075  0.3936  0.5718
   70bbb     H7 2041  10.280   4.960   5.179  1.5102 -1.5533 -0.2063
   70bbb     H8 2042  10.281   4.808   5.262  0.1383  0.7929 -2.3014
   70bbb     C5 2043   9.867   4.891   5.469  0.1796 -0.3550 -0.1470
   70bbb     H9 2044   9.937   4.954   5.525  1.2944 -0.5322 -1.2958
   70bbb    H10 2045   9.897   4.786   5.481  0.3338 -0.2641  0.2983
   70bbb     C6 2046   9.895   4.879   5.045  0.2612  0.4352 -0.5504
   70bbb    H11 2047   9.809   4.939   5.076  0.3885 -0.3934  1.5395
   70bbb    H12 2048   9.875   4.773   5.062 -1.1005  0.8961  0.8958
   70bbb     C7 2049  10.392   4.958   5.366 -0.0517 -0.2027  0.4402
   70bbb    H13 2050  10.483   4.903   5.335  2.0909  1.3651  3.4841
   70bbb    H14 2051  10.375   4.940   5.473 -0.1246 -2.6650  0.0902
   70bbb     C8 2052   9.904   4.886   4.892 -0.2464  0.1234 -1.3655
   70bbb    H15 2053   9.994   4.829   4.865  0.0186  0.8436 -2.0355
   70bbb    H16 2054   9.922   4.986   4.851  2.8419  0.6416  0.8600
   70bbb     C9 2055   9.724   4.905   5.514 -1.0019  0.8528 -0.3198
   70bbb    H17 2056   9.713   4.878   5.620  1.6082 -0.5743 -0.3167
   70bbb    H18 2057   9.671   4.831   5.453  1.1398  0.2345 -1.5624
   70bbb     O1 2058  10.428   5.100   5.353  0.2784  0.0754  0.2988
   71bbb     N1 2059  10.502   5.861   6.181 -0.2394  0.2593  0.1669
   71bbb     C1 2060  10.483   5.973   6.078 -0.1323 -0.3195 -0.2890
   71bbb     H1 2061  10.376   5.996   6.077  0.6790  4.4796 -1.4654
   71bbb     H2 2062  10.499   5.944   5.973 -0.9687 -1.3233 -0.1555
   71bbb     C2 2063  10.458   5.883   6.319  0.4240 -0.6707 -0.3046
   71bbb     H3 2064  10.527   5.950   6.372 -1.2865  1.6494 -0.8606
   71bbb     H4 2065  10.459   5.785   6.368 -1.4248 -0.8406 -0.5081
   71bbb     C3 2066  10.629   5.783   6.164  0.4344 -0.3877  0.0123
   71bbb     H5 2067  10.712   5.836   6.213  2.2518 -1.6065 -1.5942
   71bbb     H6 2068  10.664   5.776   6.060 -0.9747 -2.8665 -0.3607
   71bbb     C4 2069  10.631   5.633   6.218 -0.0283  0.4558  0.1795
   71bbb     H7 2070  10.626   5.633   6.328  1.4070  1.3504  0.2801
   71bbb     H8 2071  10.723   5.580   6.190 -0.9202 -1.2848  0.3555
   71bbb     C5 2072  10.576   6.099   6.078  1.1131 -0.5657  0.0917
   71bbb     H9 2073  10.682   6.070   6.071  1.3621  0.4850 -0.7729
   71bbb    H10 2074  10.569   6.154   6.173 -0.4404 -0.5395 -0.0150
   71bbb     C6 2075  10.317   5.946   6.339 -0.0517 -1.0302 -0.4704
   71bbb    H11 2076  10.313   6.050   6.303 -0.3344 -0.9188 -0.1296
   71bbb    H12 2077  10.305   5.937   6.448  0.4379  1.0948 -0.1989
   71bbb     C7 2078  10.509   5.549   6.184  0.4823 -0.0352  0.4599
   71bbb    H13 2079  10.416   5.587   6.228 -1.0619 -0.1525 -2.4776
   71bbb    H14 2080  10.524   5.450   6.228  0.5672 -0.1958  0.0771
   71bbb     C8 2081  10.214   5.848   6.276  0.2239 -0.3029 -0.3657
   71bbb    H15 2082  10.192   5.766   6.346 -0.0142  0.5699  0.6174
   71bbb    H16 2083  10.244   5.817   6.175 -2.1783 -1.1804 -0.8805
   71bbb     C9 2084  10.528   6.204   5.976  0.0887 -0.5798  0.6551
   71bbb    H17 2085  10.566   6.303   6.006 -1.3514 -0.0103  0.6843
   71bbb    H18 2086  10.419   6.215   5.978 -0.0456 -1.6484 -0.1792
   71bbb     O1 2087  10.488   5.537   6.040  0.3176  0.1177  0.5025
   72bbb     N1 2088   9.914   4.304   4.265  0.6609 -0.4531  0.4007
   72bbb     C1 2089   9.770   4.263   4.276 -0.1458 -0.2593 -0.5391
   72bbb     H1 2090   9.709   4.354   4.277  0.1565 -0.0124 -2.0226
   72bbb     H2 2091   9.751   4.211   4.370  2.7225  0.3116  0.4611
   72bbb     C2 2092  10.007   4.182   4.257  0.1977  0.0354  0.0796
   72bbb     H3 2093  10.113   4.209   4.245  0.4691 -1.3465 -0.9232
   72bbb     H4 2094   9.981   4.116   4.173  0.9600 -1.2582  0.8255
   72bbb     C3 2095   9.940   4.403   4.367  0.0112  0.7332 -0.5777
   72bbb     H5 2096   9.942   4.355   4.466  2.8697  0.5287 -0.6248
   72bbb     H6 2097   9.860   4.477   4.361 -0.1286  0.5093 -1.6535
   72bbb     C4 2098  10.071   4.483   4.340  0.1728 -0.1022  0.0107
   72bbb     H7 2099  10.069   4.545   4.250  1.2040  0.4453  0.3349
   72bbb     H8 2100  10.165   4.427   4.331  0.3297  0.2774 -0.8156
   72bbb     C5 2101   9.719   4.179   4.162  0.3470  0.1268 -0.2489
   72bbb     H9 2102   9.786   4.096   4.137  0.2737 -0.2271  0.6828
   72bbb    H10 2103   9.726   4.232   4.067  2.7888 -0.8896 -0.7199
   72bbb     C6 2104  10.000   4.084   4.375  0.2873  0.1822  0.1152
   72bbb    H11 2105   9.903   4.034   4.375  0.3018  0.1482  0.5379
   72bbb    H12 2106  10.010   4.150   4.462 -1.5701  0.0455  0.4580
   72bbb     C7 2107  10.103   4.580   4.463 -0.4522 -0.0157  0.0609
   72bbb    H13 2108  10.041   4.669   4.451  0.9161  1.0497  0.7072
   72bbb    H14 2109  10.206   4.616   4.450 -0.2383 -0.5084  0.3158
   72bbb     C8 2110  10.108   3.972   4.371  0.3511  0.3523 -0.2585
   72bbb    H15 2111  10.205   4.019   4.389  1.1200 -0.9493 -0.9271
   72bbb    H16 2112  10.104   3.914   4.278 -2.6803  2.2222 -1.4553
   72bbb     C9 2113   9.577   4.135   4.194  0.3505  0.0806 -0.0279
   72bbb    H17 2114   9.512   4.223   4.209 -0.3421 -0.3979 -0.1760
   72bbb    H18 2115   9.565   4.084   4.290 -0.4505 -0.6191 -0.4796
   72bbb     O1 2116  10.084   4.524   4.590  0.6916  0.1811 -0.6062
   73bbb     N1 2117   9.286   3.864   5.002 -0.0598 -0.0398  0.0499
   73bbb     C1 2118   9.258   3.957   4.897 -0.4414 -0.0410  0.6501
   73bbb     H1 2119   9.160   3.929   4.856 -1.0681 -0.2654  2.2249
   73bbb     H2 2120   9.334   3.945   4.819 -0.9743 -0.8130  0.2399
   73bbb     C2 2121   9.280   3.725   4.953 -0.6165  0.7871 -0.3656
   73bbb     H3 2122   9.369   3.707   4.892 -0.3831  1.5146 -0.2499
   73bbb     H4 2123   9.195   3.706   4.886  1.1313 -1.2894 -2.1213
   73bbb     C3 2124   9.417   3.895   5.071  0.0719  0.0899  0.2116
   73bbb     H5 2125   9.441   3.830   5.156  4.0287  0.4792 -0.4007
   73bbb     H6 2126   9.412   3.996   5.114 -3.0924 -0.7217  2.1044
   73bbb     C4 2127   9.537   3.879   4.971 -0.0035  0.3259 -0.3631
   73bbb     H7 2128   9.529   3.930   4.874 -1.4753  2.3921  0.7692
   73bbb     H8 2129   9.551   3.771   4.958  0.1226  0.4042 -0.9029
   73bbb     C5 2130   9.262   4.108   4.943  0.2409  0.7182 -0.3508
   73bbb     H9 2131   9.230   4.177   4.864  0.0534  3.1300  1.7218
   73bbb    H10 2132   9.362   4.145   4.968  0.5347 -0.4771  0.3319
   73bbb     C6 2133   9.280   3.616   5.069 -0.6420 -0.5486 -0.1085
   73bbb    H11 2134   9.201   3.648   5.139 -0.5094 -0.9874  0.2399
   73bbb    H12 2135   9.371   3.632   5.127 -2.0605  2.8499  1.4959
   73bbb     C7 2136   9.657   3.932   5.053 -0.1939  0.0530  0.6234
   73bbb    H13 2137   9.656   3.888   5.153 -1.5871 -1.9947 -0.2113
   73bbb    H14 2138   9.637   4.040   5.055 -2.0633 -0.2299 -0.0465
   73bbb     C8 2139   9.279   3.471   5.025 -0.1065  0.3843 -0.3859
   73bbb    H15 2140   9.345   3.472   4.938 -2.0607  3.0969 -1.9950
   73bbb    H16 2141   9.179   3.443   4.988 -0.0309 -0.4790  0.0394
   73bbb     C9 2142   9.165   4.132   5.062  0.0623  0.1742  0.2009
   73bbb    H17 2143   9.188   4.074   5.152 -0.0706  1.1080  0.8544
   73bbb    H18 2144   9.067   4.088   5.038  0.5426 -1.5816  1.2751
   73bbb     O1 2145   9.784   3.906   4.986  0.0302  0.4652 -0.8870
   74bbb     N1 2146  11.936   5.383   6.441 -0.0816  0.3940 -0.1134
   74bbb     C1 2147  11.995   5.370   6.576 -0.3035  0.3053  0.4902
   74bbb     H1 2148  12.054   5.277   6.582  1.9939  1.4237 -2.2507
   74bbb     H2 2149  11.923   5.373   6.658 -0.6962 -0.1562  0.1731
   74bbb     C2 2150  11.794   5.343   6.449 -0.5634  0.0128  0.5513
   74bbb     H3 2151  11.757   5.399   6.535  1.7165  0.7655  1.1207
   74bbb     H4 2152  11.785   5.236   6.472  2.1995 -0.4113  0.0364
   74bbb     C3 2153  12.016   5.315   6.334 -0.2220 -0.7681  1.0121
   74bbb     H5 2154  12.123   5.340   6.334  0.1754 -1.5427 -3.8900
   74bbb     H6 2155  11.988   5.354   6.235  1.4043  1.8236  1.4780
   74bbb     C4 2156  12.002   5.158   6.334  0.4765  0.1332  0.1354
   74bbb     H7 2157  11.896   5.133   6.324  0.4830 -0.6878  1.8541
   74bbb     H8 2158  12.035   5.119   6.431  0.0080 -1.3349 -0.2603
   74bbb     C5 2159  12.102   5.485   6.591  0.4299 -0.7491 -0.0427
   74bbb     H9 2160  12.060   5.575   6.545  0.6302  0.3399  1.8215
   74bbb    H10 2161  12.202   5.462   6.551  0.0372  0.1530 -1.5999
   74bbb     C6 2162  11.712   5.373   6.326  0.1533  0.4108  0.3448
   74bbb    H11 2163  11.761   5.340   6.234 -0.2781 -1.0163  0.6109
   74bbb    H12 2164  11.713   5.482   6.315  0.2896  0.2713 -1.2768
   74bbb     C7 2165  12.064   5.082   6.218  0.4928 -0.3486  1.0982
   74bbb    H13 2166  12.062   4.975   6.243 -0.3097 -0.4587  0.5837
   74bbb    H14 2167  12.170   5.107   6.203 -0.5027  2.5173 -2.7988
   74bbb     C8 2168  11.566   5.314   6.339  0.5035 -1.0717 -0.2051
   74bbb    H15 2169  11.574   5.215   6.384 -0.2503 -1.2203 -0.3834
   74bbb    H16 2170  11.514   5.307   6.242 -1.1896  1.4795  0.4258
   74bbb     C9 2171  12.123   5.515   6.743 -0.0614  0.0021  0.2551
   74bbb    H17 2172  12.044   5.572   6.793 -0.7634 -0.6740 -0.0610
   74bbb    H18 2173  12.209   5.584   6.745 -0.3509  0.5696 -2.4342
   74bbb     O1 2174  11.984   5.106   6.098  0.3387  0.5038  1.1029
   75bbb     N1 2175  11.493   5.830   6.228  0.5521  0.0954  0.2255
   75bbb     C1 2176  11.442   5.962   6.272  0.1318 -0.5272 -0.1729
   75bbb     H1 2177  11.520   6.031   6.306  0.4325 -0.2182 -1.4577
   75bbb     H2 2178  11.374   5.950   6.358  0.3485  2.6315  0.5437
   75bbb     C2 2179  11.626   5.784   6.283  0.1848  0.1518  0.2732
   75bbb     H3 2180  11.700   5.860   6.254  0.6212 -0.2147  0.4222
   75bbb     H4 2181  11.650   5.689   6.233  0.5561  1.4598 -2.2374
   75bbb     C3 2182  11.386   5.725   6.246 -0.5869 -0.3654 -0.0621
   75bbb     H5 2183  11.291   5.778   6.232  0.5142  2.1091  1.1448
   75bbb     H6 2184  11.373   5.712   6.354 -1.2479  3.4094  0.4410
   75bbb     C4 2185  11.399   5.605   6.154 -0.1838 -0.5352  0.6623
   75bbb     H7 2186  11.476   5.541   6.199 -0.2070 -0.5940  0.6186
   75bbb     H8 2187  11.427   5.624   6.050 -0.4924  1.3971  0.8902
   75bbb     C5 2188  11.373   6.039   6.160 -0.0501  0.4406  0.3782
   75bbb     H9 2189  11.357   6.145   6.184 -1.6967  0.4283 -0.4892
   75bbb    H10 2190  11.276   5.995   6.134  0.6094 -0.9779  0.2184
   75bbb     C6 2191  11.633   5.772   6.433 -0.3292  0.1959  0.0801
   75bbb    H11 2192  11.582   5.683   6.471  1.2324  0.0211  1.9395
   75bbb    H12 2193  11.584   5.859   6.478 -0.1972 -0.0301  0.6661
   75bbb     C7 2194  11.275   5.513   6.161  0.2516 -0.3122  0.4597
   75bbb    H13 2195  11.193   5.559   6.105  0.7113 -1.2044 -0.9911
   75bbb    H14 2196  11.249   5.497   6.266 -2.3885  0.8682  0.0544
   75bbb     C8 2197  11.781   5.751   6.479 -0.3749 -0.1109  0.2972
   75bbb    H15 2198  11.842   5.827   6.429  1.6122 -1.1391  1.0882
   75bbb    H16 2199  11.837   5.662   6.451 -1.4137 -1.1041  1.2625
   75bbb     C9 2200  11.476   6.029   6.038 -0.1083  0.3036 -0.1272
   75bbb    H17 2201  11.518   5.929   6.021 -1.8896 -0.2830 -1.3600
   75bbb    H18 2202  11.566   6.086   6.064  1.0453 -1.4118 -0.1676
   75bbb     O1 2203  11.302   5.381   6.111 -0.1832 -0.0376 -0.1687
   76bbb     N1 2204  12.419   5.789   6.352 -0.0478  0.6280 -0.7487
   76bbb     C1 2205  12.521   5.902   6.352 -0.0105 -0.0845 -0.4404
   76bbb     H1 2206  12.627   5.876   6.366 -1.2714 -4.3562  3.4350
   76bbb     H2 2207  12.505   5.974   6.433  1.0442  1.5931 -1.6429
   76bbb     C2 2208  12.423   5.710   6.480  0.7710  1.0823  0.2826
   76bbb     H3 2209  12.529   5.691   6.498  0.1626 -1.2672  1.9458
   76bbb     H4 2210  12.383   5.609   6.465 -0.1517  1.6365 -1.2415
   76bbb     C3 2211  12.436   5.710   6.234 -0.4700 -0.5820 -0.1596
   76bbb     H5 2212  12.534   5.664   6.253 -0.9243 -0.8501  1.8004
   76bbb     H6 2213  12.432   5.764   6.139  0.8497 -0.9887 -0.4723
   76bbb     C4 2214  12.335   5.599   6.207 -0.7296 -0.0977 -0.1928
   76bbb     H7 2215  12.337   5.519   6.283  1.8843  0.4555  0.4103
   76bbb     H8 2216  12.368   5.548   6.116  0.3900 -0.6417  0.4799
   76bbb     C5 2217  12.501   6.005   6.233  0.1239 -0.0809 -0.9257
   76bbb     H9 2218  12.523   5.957   6.138  0.0963 -0.6081 -0.6689
   76bbb    H10 2219  12.580   6.079   6.252 -1.4119  1.4158 -0.0369
   76bbb     C6 2220  12.355   5.779   6.603 -0.8242  0.4437 -0.7887
   76bbb    H11 2221  12.247   5.762   6.612 -0.8434 -0.3150 -2.1325
   76bbb    H12 2222  12.367   5.887   6.590  1.8835  0.1683 -1.2106
   76bbb     C7 2223  12.195   5.663   6.201 -0.5119 -0.2526  0.7395
   76bbb    H13 2224  12.194   5.758   6.145 -1.4879 -0.4299  0.4414
   76bbb    H14 2225  12.163   5.691   6.302  1.6159 -1.6245  1.8524
   76bbb     C8 2226  12.426   5.732   6.731  1.0485  0.1948 -0.7264
   76bbb    H15 2227  12.525   5.780   6.740  1.6386 -1.3154  2.3066
   76bbb    H16 2228  12.447   5.625   6.733  3.4864  0.5999 -0.7222
   76bbb     C9 2229  12.359   6.060   6.229  0.0051 -0.1133 -0.1515
   76bbb    H17 2230  12.296   5.970   6.237 -0.6598  0.3428 -0.1920
   76bbb    H18 2231  12.327   6.120   6.143 -2.7339  2.4436  2.3979
   76bbb     O1 2232  12.104   5.586   6.126 -0.5409 -1.0269 -0.3192
   77bbb     N1 2233  11.894   5.251   5.000 -0.2621  0.3057  0.2974
   77bbb     C1 2234  11.995   5.135   4.987 -0.7236  0.3497 -0.7940
   77bbb     H1 2235  12.090   5.166   4.943 -0.7163  1.1000 -0.2701
   77bbb     H2 2236  11.948   5.069   4.913 -0.3903 -0.4394 -0.3252
   77bbb     C2 2237  11.900   5.347   4.880 -0.1175 -0.6912  1.6169
   77bbb     H3 2238  11.830   5.431   4.882  0.2509 -0.2814 -0.3700
   77bbb     H4 2239  11.877   5.289   4.790 -0.1514  0.6203  0.7496
   77bbb     C3 2240  11.918   5.323   5.132 -0.5141  0.2571 -0.0843
   77bbb     H5 2241  12.026   5.339   5.144 -0.1163 -2.3672  0.4345
   77bbb     H6 2242  11.879   5.260   5.213 -3.5177 -0.1586 -1.7069
   77bbb     C4 2243  11.849   5.462   5.150 -0.6888  0.5403 -0.1111
   77bbb     H7 2244  11.741   5.442   5.150 -0.5535 -0.2539 -0.8448
   77bbb     H8 2245  11.878   5.533   5.073  2.2336 -0.7937 -0.3618
   77bbb     C5 2246  12.023   5.045   5.110 -0.2417  0.8604 -0.3448
   77bbb     H9 2247  12.075   5.102   5.188 -0.0248 -0.4911  0.5385
   77bbb    H10 2248  12.101   4.976   5.075 -1.2786  0.1959 -1.4293
   77bbb     C6 2249  12.037   5.422   4.848  0.3685  0.1194 -0.8207
   77bbb    H11 2250  12.127   5.359   4.854  2.0154  2.3876 -0.2570
   77bbb    H12 2251  12.057   5.501   4.921 -1.7561 -0.9177  1.0049
   77bbb     C7 2252  11.884   5.538   5.278 -0.4545  0.3759 -0.1098
   77bbb    H13 2253  11.847   5.640   5.268 -1.5342 -0.0231 -0.3215
   77bbb    H14 2254  11.993   5.536   5.293  0.2090 -0.9668 -3.9539
   77bbb     C8 2255  12.043   5.459   4.700 -0.2996 -0.7240 -0.5947
   77bbb    H15 2256  12.009   5.375   4.637  0.8704 -1.1671 -0.6554
   77bbb    H16 2257  12.147   5.478   4.669 -0.8898 -0.7165 -2.7837
   77bbb     C9 2258  11.906   4.971   5.190  0.1962 -0.6368 -0.0682
   77bbb    H17 2259  11.816   5.031   5.209 -0.7565 -0.9204 -3.1811
   77bbb    H18 2260  11.947   4.949   5.289  1.1239  0.8876 -0.0880
   77bbb     O1 2261  11.817   5.462   5.380  0.2780 -0.1487  0.2715
   78bbb     N1 2262   9.066   4.313   4.048 -0.4921  0.0116 -0.7295
   78bbb     C1 2263   9.163   4.321   3.930 -0.5662  0.0433 -0.0772
   78bbb     H1 2264   9.261   4.286   3.967 -0.7674 -1.1142 -0.6221
   78bbb     H2 2265   9.176   4.424   3.895  0.8486 -0.2553 -0.4922
   78bbb     C2 2266   9.031   4.184   4.109 -0.3403  0.3867 -0.3268
   78bbb     H3 2267   9.114   4.149   4.171  1.0208  0.8229 -1.8260
   78bbb     H4 2268   9.008   4.121   4.023  0.7804  0.2310 -0.5165
   78bbb     C3 2269   9.100   4.418   4.147 -0.4025 -0.2511 -0.0182
   78bbb     H5 2270   9.014   4.437   4.213 -0.0559 -0.8545  0.6177
   78bbb     H6 2271   9.118   4.510   4.090  0.9759 -1.5541 -1.7965
   78bbb     C4 2272   9.230   4.380   4.236  0.5883 -0.0630  0.5126
   78bbb     H7 2273   9.319   4.373   4.172 -0.4929  1.5004 -1.3010
   78bbb     H8 2274   9.212   4.292   4.298 -1.0534 -0.5026 -0.5252
   78bbb     C5 2275   9.123   4.231   3.811  0.4200  0.2423  0.3611
   78bbb     H9 2276   9.147   4.127   3.835  1.5543 -0.1232 -2.0444
   78bbb    H10 2277   9.180   4.261   3.722 -1.5768 -0.3072 -1.1725
   78bbb     C6 2278   8.900   4.193   4.187 -0.3976 -0.1118  0.7943
   78bbb    H11 2279   8.818   4.235   4.126  0.8482  3.7451  1.4832
   78bbb    H12 2280   8.913   4.252   4.278  1.5674 -1.1908  1.2720
   78bbb     C7 2281   9.258   4.502   4.330 -0.2911 -0.1784  0.5036
   78bbb    H13 2282   9.163   4.532   4.375 -0.8936 -1.5528  0.1998
   78bbb    H14 2283   9.314   4.584   4.282 -0.7812  0.7635  1.4931
   78bbb     C8 2284   8.860   4.052   4.237  0.3222  0.2385 -0.2338
   78bbb    H15 2285   8.766   4.069   4.291 -0.6613 -2.4277 -0.9532
   78bbb    H16 2286   8.930   4.008   4.309  1.3153  0.1415 -1.2329
   78bbb     C9 2287   8.977   4.252   3.765  0.2518 -0.1531  0.2768
   78bbb    H17 2288   8.906   4.247   3.848 -0.2956  1.5040 -0.0422
   78bbb    H18 2289   8.946   4.178   3.690 -1.9535 -2.6478  3.3597
   78bbb     O1 2290   9.350   4.461   4.430  0.3618 -0.1933  0.0430
   79bbb     N1 2291   9.294   3.738   4.533  0.0877  0.1216  0.1047
   79bbb     C1 2292   9.241   3.818   4.418 -0.0704  0.1402 -0.0771
   79bbb     H1 2293   9.142   3.778   4.395  0.0073 -1.2221  1.7667
   79bbb     H2 2294   9.298   3.793   4.327  0.0279  1.8939 -0.5290
   79bbb     C2 2295   9.278   3.584   4.506 -0.0835 -0.7104 -0.0228
   79bbb     H3 2296   9.338   3.548   4.422  0.5284 -1.1273  0.5809
   79bbb     H4 2297   9.175   3.583   4.467  0.3086 -1.5739 -1.0721
   79bbb     C3 2298   9.426   3.784   4.588  0.3697  0.4670 -0.0018
   79bbb     H5 2299   9.461   3.719   4.669  0.3903 -1.5485 -1.5502
   79bbb     H6 2300   9.417   3.888   4.622  0.4536  0.1819  0.9270
   79bbb     C4 2301   9.543   3.771   4.485  0.3222 -0.2798  0.1328
   79bbb     H7 2302   9.519   3.832   4.396 -0.6356  3.0017  2.4439
   79bbb     H8 2303   9.554   3.667   4.455 -1.4966 -0.1563 -1.1294
   79bbb     C5 2304   9.228   3.970   4.438 -0.1104  0.4101  0.0132
   79bbb     H9 2305   9.183   4.023   4.353 -1.1360 -0.4048  0.0168
   79bbb    H10 2306   9.328   4.012   4.451 -0.1883  1.3336 -1.9134
   79bbb     C6 2307   9.294   3.495   4.634 -0.1438 -0.0484  0.2985
   79bbb    H11 2308   9.270   3.562   4.717  0.8400 -2.1327  2.3978
   79bbb    H12 2309   9.395   3.454   4.647 -0.7814 -2.0534 -0.6550
   79bbb     C7 2310   9.673   3.826   4.545 -0.3615 -0.0706 -0.0751
   79bbb    H13 2311   9.756   3.808   4.474  0.9907 -0.1221  1.4551
   79bbb    H14 2312   9.702   3.771   4.635 -0.5919  1.3454  0.8917
   79bbb     C8 2313   9.192   3.375   4.640  0.0984  0.3103  0.2823
   79bbb    H15 2314   9.143   3.364   4.542  1.3029  1.0080 -0.4263
   79bbb    H16 2315   9.117   3.393   4.718  0.0661  0.2831  0.2572
   79bbb     C9 2316   9.140   3.994   4.567  0.4994  0.4661  0.5461
   79bbb    H17 2317   9.207   3.976   4.652  1.3025  0.1083 -0.1477
   79bbb    H18 2318   9.054   3.927   4.564  1.3973 -0.7243 -2.1286
   79bbb     O1 2319   9.661   3.962   4.575 -0.2079 -0.1198 -0.7956
   80bbb     N1 2320  10.593   4.519   5.045 -0.0259 -0.8451  0.1442
   80bbb     C1 2321  10.444   4.497   5.056  0.7554 -0.3748  0.5668
   80bbb     H1 2322  10.398   4.553   5.138  0.4449  0.6340 -0.2778
   80bbb     H2 2323  10.435   4.390   5.079 -0.6403  0.0284  2.0523
   80bbb     C2 2324  10.635   4.654   4.999  0.3488 -0.3448 -0.0688
   80bbb     H3 2325  10.584   4.688   4.908  0.4493  0.8037  0.2917
   80bbb     H4 2326  10.740   4.640   4.969  0.3033 -0.4349 -0.1905
   80bbb     C3 2327  10.683   4.449   5.137  0.3908 -0.0735 -0.3735
   80bbb     H5 2328  10.646   4.469   5.239 -2.5996 -2.3890 -0.8539
   80bbb     H6 2329  10.789   4.473   5.130  0.9200 -2.2508 -0.4707
   80bbb     C4 2330  10.676   4.291   5.126  0.1196 -0.4041 -0.0522
   80bbb     H7 2331  10.715   4.253   5.030 -2.4507 -1.1254 -0.8799
   80bbb     H8 2332  10.576   4.250   5.144 -0.4972  1.1140  0.1089
   80bbb     C5 2333  10.361   4.531   4.930  0.0982  0.3170 -0.3455
   80bbb     H9 2334  10.307   4.438   4.909  3.1608 -1.1941 -2.4073
   80bbb    H10 2335  10.430   4.531   4.844  0.2887 -2.5486 -0.3087
   80bbb     C6 2336  10.617   4.761   5.112 -0.2596 -0.3826 -0.1204
   80bbb    H11 2337  10.680   4.718   5.191  0.7343  0.0211 -0.6742
   80bbb    H12 2338  10.513   4.764   5.146 -0.4776  0.9054 -0.8495
   80bbb     C7 2339  10.776   4.223   5.221 -0.8197  0.3785  0.0296
   80bbb    H13 2340  10.869   4.282   5.214 -0.4939 -0.1886 -0.5177
   80bbb    H14 2341  10.799   4.119   5.198  0.5992  0.9445 -1.3193
   80bbb     C8 2342  10.670   4.906   5.092 -0.6980 -0.3560  0.0301
   80bbb    H15 2343  10.772   4.897   5.051 -0.0113  1.4240  1.2381
   80bbb    H16 2344  10.667   4.963   5.185  1.6507  1.3842 -0.8446
   80bbb     C9 2345  10.273   4.650   4.956  1.0705 -0.1767 -0.5290
   80bbb    H17 2346  10.317   4.722   5.026  2.5393 -0.5103 -1.0703
   80bbb    H18 2347  10.182   4.605   4.997  1.1330 -1.2704 -1.5403
   80bbb     O1 2348  10.731   4.228   5.364 -0.2006 -0.6350 -0.7688
   81bbb     N1 2349  10.539   3.825   6.521 -0.1118 -0.6495  0.6287
   81bbb     C1 2350  10.401   3.773   6.516 -0.1994  0.2931  0.4638
   81bbb     H1 2351  10.329   3.847   6.478  0.3836  0.9276  0.5791
   81bbb     H2 2352  10.369   3.751   6.619 -0.0492  0.3271  0.5185
   81bbb     C2 2353  10.647   3.740   6.566 -0.5115 -0.6290 -0.1239
   81bbb     H3 2354  10.741   3.791   6.540  1.0139 -2.5628  1.3397
   81bbb     H4 2355  10.646   3.650   6.503 -0.0602 -2.2042  2.0220
   81bbb     C3 2356  10.552   3.966   6.574  0.2477  0.2646 -0.4002
   81bbb     H5 2357  10.656   4.000   6.566  0.7139 -0.0765  2.9920
   81bbb     H6 2358  10.523   3.978   6.679  1.9777  0.7857  0.0488
   81bbb     C4 2359  10.466   4.068   6.487 -0.2882  0.5382 -0.9108
   81bbb     H7 2360  10.452   4.154   6.554 -1.9440  0.0093 -0.5399
   81bbb     H8 2361  10.364   4.034   6.468 -0.0062  0.4603 -2.4454
   81bbb     C5 2362  10.391   3.650   6.428  0.2750  0.0254  0.2730
   81bbb     H9 2363  10.288   3.615   6.440  0.5848 -0.4476  1.8835
   81bbb    H10 2364  10.457   3.573   6.470  2.4471  1.4549 -0.3684
   81bbb     C6 2365  10.652   3.714   6.718 -0.3852 -0.1472  0.5952
   81bbb    H11 2366  10.559   3.667   6.752 -0.0401 -0.5933  0.9331
   81bbb    H12 2367  10.667   3.811   6.768 -2.5809  0.5365  0.0391
   81bbb     C7 2368  10.527   4.121   6.354  0.1551 -0.6171 -0.1834
   81bbb    H13 2369  10.629   4.142   6.387 -0.0963 -0.7334  0.6861
   81bbb    H14 2370  10.481   4.217   6.325  0.3740 -0.1846  0.8720
   81bbb     C8 2371  10.768   3.620   6.762 -0.4135 -0.3990  0.4774
   81bbb    H15 2372  10.762   3.530   6.699 -0.1366 -1.3152  1.7155
   81bbb    H16 2373  10.772   3.587   6.866 -0.1932 -0.7735  0.3537
   81bbb     C9 2374  10.425   3.685   6.282 -0.3790 -0.3030 -0.1034
   81bbb    H17 2375  10.526   3.726   6.293 -1.0460  1.1135  1.1451
   81bbb    H18 2376  10.374   3.774   6.244  2.9565  1.2182 -1.4047
   81bbb     O1 2377  10.529   4.023   6.245 -0.5680  0.1719 -0.2736
   82bbb     N1 2378   9.678   6.479   6.555 -0.2344  1.0010  0.2308
   82bbb     C1 2379   9.695   6.447   6.700 -0.4031 -0.1320 -0.2167
   82bbb     H1 2380   9.703   6.539   6.759 -0.0566 -0.8815  0.9476
   82bbb     H2 2381   9.793   6.398   6.713 -1.5936 -2.1982  1.6602
   82bbb     C2 2382   9.562   6.563   6.513 -0.2657 -0.1116  0.1973
   82bbb     H3 2383   9.465   6.512   6.523  0.4161 -1.3180  0.9840
   82bbb     H4 2384   9.561   6.580   6.405  0.3170  1.2559  0.3853
   82bbb     C3 2385   9.695   6.364   6.469 -0.7260  0.2518 -0.1432
   82bbb     H5 2386   9.598   6.324   6.435 -1.0917  1.2067 -0.2616
   82bbb     H6 2387   9.754   6.285   6.517  0.3244  2.2899  2.1190
   82bbb     C4 2388   9.773   6.381   6.343 -0.5258  0.0675 -0.2054
   82bbb     H7 2389   9.769   6.486   6.309  0.3041 -0.0984 -0.8587
   82bbb     H8 2390   9.722   6.323   6.265 -2.2302 -1.5542  2.0171
   82bbb     C5 2391   9.577   6.372   6.769 -0.3034 -0.8823  0.3214
   82bbb     H9 2392   9.551   6.287   6.704  1.2716  1.1699 -3.2605
   82bbb    H10 2393   9.491   6.438   6.783 -0.3009 -1.1704  1.9074
   82bbb     C6 2394   9.559   6.706   6.578 -0.1277  0.1304  0.5506
   82bbb    H11 2395   9.660   6.748   6.582  0.2968 -0.9254  1.5470
   82bbb    H12 2396   9.525   6.686   6.680 -0.5536 -0.0897  0.3694
   82bbb     C7 2397   9.920   6.336   6.358 -0.5669  0.1616  0.6240
   82bbb    H13 2398   9.919   6.229   6.385 -2.6857  0.4587  1.9638
   82bbb    H14 2399   9.983   6.395   6.426  0.7191  0.0121 -0.4005
   82bbb     C8 2400   9.453   6.801   6.524 -0.1867  0.8674 -0.9275
   82bbb    H15 2401   9.455   6.886   6.593  1.3150 -1.2277  1.7965
   82bbb    H16 2402   9.353   6.760   6.541  0.5899  0.0878  2.7111
   82bbb     C9 2403   9.619   6.325   6.914 -0.2033 -0.8654 -0.2060
   82bbb    H17 2404   9.530   6.281   6.960  1.5810 -2.6745  1.7354
   82bbb    H18 2405   9.652   6.413   6.971  0.2340 -2.0002  1.3625
   82bbb     O1 2406   9.972   6.344   6.224  0.2139  0.4412  0.0728
   83bbb     N1 2407   9.945   7.041   5.351 -0.0724 -0.5512  0.3472
   83bbb     C1 2408  10.088   7.092   5.368 -0.2330  0.3581 -0.2678
   83bbb     H1 2409  10.155   7.028   5.428  1.7206  2.2017 -0.3464
   83bbb     H2 2410  10.098   7.182   5.430  0.9749 -0.0697  0.1885
   83bbb     C2 2411   9.862   7.112   5.254  0.1239 -0.3887 -0.2584
   83bbb     H3 2412   9.766   7.059   5.241  1.3436 -2.8184  0.1143
   83bbb     H4 2413   9.915   7.098   5.159  0.6900 -0.3669  0.0523
   83bbb     C3 2414   9.936   6.895   5.317 -0.4060  0.8135  0.5617
   83bbb     H5 2415  10.002   6.872   5.232 -0.5522  1.9135  0.1314
   83bbb     H6 2416   9.838   6.852   5.291  0.9267 -3.0541  1.2537
   83bbb     C4 2417   9.982   6.814   5.440 -0.7872 -0.2829  0.9061
   83bbb     H7 2418   9.921   6.836   5.528 -0.1737  1.4296  0.9384
   83bbb     H8 2419  10.084   6.843   5.470 -0.8604 -1.2295  2.1648
   83bbb     C5 2420  10.179   7.119   5.243  0.0645  0.2389  0.1103
   83bbb     H9 2421  10.214   7.223   5.251 -2.0188  1.1096 -1.1609
   83bbb    H10 2422  10.116   7.127   5.153 -0.7774 -0.7410  0.5989
   83bbb     C6 2423   9.840   7.260   5.292  0.1646 -0.4962 -0.3194
   83bbb    H11 2424   9.935   7.309   5.318  1.0056 -1.0237 -2.2626
   83bbb    H12 2425   9.781   7.263   5.385 -0.1135  1.0127 -0.5139
   83bbb     C7 2426   9.995   6.664   5.419  0.1530  0.1054  0.0892
   83bbb    H13 2427  10.045   6.638   5.325 -2.7006  2.3270 -2.2436
   83bbb    H14 2428   9.893   6.624   5.408 -0.1107  1.0492 -1.0599
   83bbb     C8 2429   9.775   7.340   5.172 -0.8452 -0.2659  0.4142
   83bbb    H15 2430   9.849   7.326   5.092 -0.0778  0.5306  0.9565
   83bbb    H16 2431   9.765   7.447   5.193  0.0572 -0.2425  0.7734
   83bbb     C9 2432  10.296   7.017   5.227 -0.2553 -0.1902  0.3392
   83bbb    H17 2433  10.357   7.051   5.143 -0.3918  0.0751  0.3476
   83bbb    H18 2434  10.236   6.929   5.200  1.5772 -1.2476 -0.4949
   83bbb     O1 2435  10.062   6.604   5.531 -0.3770  0.1675  0.1276
   84bbb     N1 2436  11.048   5.908   5.830 -0.2116 -1.0315  0.3187
   84bbb     C1 2437  11.036   5.949   5.974 -0.6042 -0.0582 -0.3841
   84bbb     H1 2438  10.951   6.015   5.992 -0.0633  1.3973 -2.7623
   84bbb     H2 2439  11.125   6.005   6.006 -0.3600 -1.6586  2.0255
   84bbb     C2 2440  11.176   5.837   5.796  0.5088  0.6144 -0.4092
   84bbb     H3 2441  11.179   5.738   5.842 -0.5224  0.5539 -0.4435
   84bbb     H4 2442  11.257   5.890   5.849 -0.6912  0.7160  1.4282
   84bbb     C3 2443  10.930   5.842   5.775  0.3757 -0.3321  0.1940
   84bbb     H5 2444  10.900   5.755   5.835 -1.0300  0.7070  1.0409
   84bbb     H6 2445  10.943   5.806   5.673 -0.5852  1.9876 -0.8240
   84bbb     C4 2446  10.802   5.929   5.787  0.9342 -0.0387  0.7248
   84bbb     H7 2447  10.789   6.002   5.706 -0.1846  0.9175  1.7398
   84bbb     H8 2448  10.789   5.979   5.883  0.5947 -0.0883  0.7080
   84bbb     C5 2449  11.030   5.826   6.064  0.3535  0.8417 -0.6832
   84bbb     H9 2450  11.116   5.759   6.052 -0.6645 -0.5224 -0.4892
   84bbb    H10 2451  10.945   5.763   6.037  0.4872 -0.5848  1.9226
   84bbb     C6 2452  11.209   5.831   5.648 -0.1848  0.7080  0.2930
   84bbb    H11 2453  11.150   5.762   5.587  2.0516 -0.5835 -0.5154
   84bbb    H12 2454  11.298   5.768   5.646 -0.6380  0.0634 -1.3807
   84bbb     C7 2455  10.672   5.838   5.765 -0.6924 -0.5787  0.7795
   84bbb    H13 2456  10.579   5.892   5.786 -0.1277  1.3758 -1.4419
   84bbb    H14 2457  10.677   5.756   5.839 -0.4836 -1.4731 -0.2059
   84bbb     C8 2458  11.235   5.962   5.570 -0.1661 -0.7475 -0.3671
   84bbb    H15 2459  11.341   5.953   5.547 -0.5169 -1.5863 -1.8468
   84bbb    H16 2460  11.213   6.048   5.634 -3.3388 -0.8217 -1.1763
   84bbb     C9 2461  11.027   5.854   6.217  0.0910 -0.2820  0.8629
   84bbb    H17 2462  11.126   5.884   6.255  0.6091 -1.0714  0.1705
   84bbb    H18 2463  10.991   5.771   6.279 -1.5963  1.5794  2.5458
   84bbb     O1 2464  10.665   5.782   5.635  0.2718  0.6507 -0.0485
   85bbb     N1 2465  10.942   5.507   4.600 -0.1085 -0.0086  0.5278
   85bbb     C1 2466  10.962   5.638   4.530  0.8351 -0.1130  0.0894
   85bbb     H1 2467  10.899   5.714   4.579  0.3802 -0.1031 -0.5004
   85bbb     H2 2468  10.919   5.624   4.430 -1.4730  0.7464  0.8890
   85bbb     C2 2469  10.807   5.445   4.570  0.8946 -0.2107 -0.0791
   85bbb     H3 2470  10.824   5.337   4.580  0.1125 -0.3503 -0.2228
   85bbb     H4 2471  10.784   5.474   4.466  1.0777  0.7579  0.1463
   85bbb     C3 2472  10.984   5.510   4.735 -0.1499 -0.2535 -0.1674
   85bbb     H5 2473  10.914   5.567   4.797 -0.5283  0.6188 -1.3540
   85bbb     H6 2474  11.080   5.560   4.752 -0.2790  0.1120 -0.4968
   85bbb     C4 2475  10.999   5.368   4.798 -0.0147  0.3280  0.0932
   85bbb     H7 2476  11.073   5.301   4.751  0.3185 -1.1858  2.5663
   85bbb     H8 2477  10.899   5.324   4.797  0.3714 -0.5603 -1.1666
   85bbb     C5 2478  11.098   5.697   4.519  0.2038 -0.3545 -0.1926
   85bbb     H9 2479  11.155   5.632   4.453  1.4295 -0.3377  0.8101
   85bbb    H10 2480  11.139   5.690   4.621 -3.4196  0.8273  1.5226
   85bbb     C6 2481  10.685   5.504   4.656 -0.4655 -0.1899  0.3441
   85bbb    H11 2482  10.666   5.609   4.631  0.5902 -0.5007 -2.0801
   85bbb    H12 2483  10.720   5.487   4.759 -0.9413  0.6346  0.6484
   85bbb     C7 2484  11.052   5.367   4.939 -0.0050 -0.2277  0.4115
   85bbb    H13 2485  11.142   5.430   4.944  1.8149 -2.6409 -0.4480
   85bbb    H14 2486  11.084   5.268   4.973  1.3049  0.9848  3.0714
   85bbb     C8 2487  10.552   5.430   4.635  0.2821 -0.2918  0.0247
   85bbb    H15 2488  10.561   5.333   4.687  0.0227 -1.1649 -1.4854
   85bbb    H16 2489  10.527   5.416   4.529  0.5246 -0.9251  0.0426
   85bbb     C9 2490  11.100   5.843   4.473 -0.4561  0.2178 -0.3300
   85bbb    H17 2491  11.013   5.892   4.518 -0.9418 -1.4867  0.7196
   85bbb    H18 2492  11.099   5.854   4.364 -3.0875 -2.2661 -0.6759
   85bbb     O1 2493  10.952   5.404   5.034 -0.0687  0.2202 -0.0916
   86bbb     N1 2494   8.154   4.411   7.340 -0.1186  0.2213  0.2752
   86bbb     C1 2495   8.201   4.284   7.387  0.0865 -0.0024 -0.1782
   86bbb     H1 2496   8.264   4.312   7.472  1.6297 -2.4174 -0.4272
   86bbb     H2 2497   8.258   4.223   7.315  2.3125  1.1368  0.5275
   86bbb     C2 2498   8.075   4.391   7.218  0.6904 -0.2089  0.3065
   86bbb     H3 2499   7.994   4.327   7.254  0.9507 -1.5852 -1.4004
   86bbb     H4 2500   8.131   4.333   7.143 -2.4239  0.7604 -3.0921
   86bbb     C3 2501   8.253   4.517   7.348 -0.8543  0.3056  0.3033
   86bbb     H5 2502   8.301   4.515   7.447  2.8797  0.4813 -1.3366
   86bbb     H6 2503   8.209   4.617   7.338 -0.3958  0.6169  1.3011
   86bbb     C4 2504   8.362   4.495   7.235  0.3995 -0.1461  0.2933
   86bbb     H7 2505   8.306   4.476   7.143 -2.9529  1.4231  1.8625
   86bbb     H8 2506   8.422   4.406   7.260  0.2985 -1.1226 -2.5787
   86bbb     C5 2507   8.085   4.194   7.450  0.4842 -0.5295  0.1258
   86bbb     H9 2508   8.036   4.134   7.372 -0.3679 -1.9196  1.6683
   86bbb    H10 2509   8.014   4.265   7.494  0.1047  0.5720 -2.1285
   86bbb     C6 2510   8.015   4.518   7.161 -0.2931 -0.1584 -0.6007
   86bbb    H11 2511   7.963   4.514   7.064 -2.2566  3.4029  0.1009
   86bbb    H12 2512   8.090   4.595   7.139  0.1933 -1.0064 -2.0172
   86bbb     C7 2513   8.457   4.613   7.211 -0.2164  0.7963  0.0537
   86bbb    H13 2514   8.524   4.624   7.296  0.8269 -0.1241 -0.6197
   86bbb    H14 2515   8.391   4.700   7.195 -0.4053  0.3616 -1.7714
   86bbb     C8 2516   7.913   4.591   7.247 -0.1919 -0.5137 -0.1677
   86bbb    H15 2517   7.883   4.679   7.189  0.2818 -0.5497 -0.4676
   86bbb    H16 2518   7.964   4.627   7.337 -0.7904  2.4242 -0.9162
   86bbb     C9 2519   8.141   4.103   7.561  0.8204  0.0070  0.6423
   86bbb    H17 2520   8.176   4.164   7.645  0.9632 -0.5241  0.9677
   86bbb    H18 2521   8.230   4.053   7.519  0.9308  1.0305 -0.3971
   86bbb     O1 2522   8.543   4.591   7.099 -0.2179 -0.0438 -0.5649
   87bbb     N1 2523   8.807   3.751   7.625  0.1912  0.3772  0.1738
   87bbb     C1 2524   8.667   3.705   7.628  0.8723  0.3527 -0.2638
   87bbb     H1 2525   8.653   3.612   7.684 -0.6471 -1.0515 -2.7621
   87bbb     H2 2526   8.631   3.677   7.528 -1.5575  0.7631  0.4390
   87bbb     C2 2527   8.894   3.643   7.574  0.6579  0.0333  0.3568
   87bbb     H3 2528   8.992   3.687   7.553 -0.3845  2.2281 -0.1542
   87bbb     H4 2529   8.859   3.618   7.473  0.6730  0.2548  0.2982
   87bbb     C3 2530   8.819   3.876   7.548 -1.0142  0.0791 -0.1019
   87bbb     H5 2531   8.766   3.958   7.599  2.3806  2.0335  0.6341
   87bbb     H6 2532   8.782   3.881   7.445  0.8403  0.5296 -0.7903
   87bbb     C4 2533   8.969   3.922   7.542 -0.0092 -0.1687  0.0533
   87bbb     H7 2534   9.034   3.856   7.483 -0.5216  0.3735 -1.1550
   87bbb     H8 2535   9.009   3.927   7.644  0.7856 -0.4942 -0.2371
   87bbb     C5 2536   8.573   3.815   7.686 -0.6224  0.3027  0.0367
   87bbb     H9 2537   8.538   3.872   7.599 -1.8433  2.4135  1.8306
   87bbb    H10 2538   8.631   3.883   7.750  1.4369 -1.9534  0.7476
   87bbb     C6 2539   8.908   3.517   7.661  0.4533  0.0361 -0.2912
   87bbb    H11 2540   8.817   3.458   7.647  0.8340 -0.8791  0.8512
   87bbb    H12 2541   8.914   3.553   7.765 -1.8932 -1.8680  0.5883
   87bbb     C7 2542   8.987   4.064   7.490  0.9432 -0.0481  0.2130
   87bbb    H13 2543   9.094   4.088   7.482  0.8163  0.3031 -0.5888
   87bbb    H14 2544   8.941   4.140   7.554 -0.1028 -0.4081 -0.0950
   87bbb     C8 2545   9.034   3.436   7.614 -0.3816 -0.1690 -0.0869
   87bbb    H15 2546   9.038   3.340   7.668  0.5700 -1.1747 -1.8517
   87bbb    H16 2547   9.124   3.490   7.644  0.0677 -1.0410  0.1587
   87bbb     C9 2548   8.455   3.770   7.779 -0.3206  0.4693  0.4864
   87bbb    H17 2549   8.398   3.700   7.717  1.1582 -0.1624 -0.2228
   87bbb    H18 2550   8.394   3.854   7.814 -0.7382 -0.5852  2.3830
   87bbb     O1 2551   8.945   4.078   7.361 -0.4094  0.2886  0.1915
   88bbb     N1 2552   7.392   4.505   6.410  0.0970  0.1091  0.4056
   88bbb     C1 2553   7.437   4.377   6.469  0.2507 -0.0665 -0.0470
   88bbb     H1 2554   7.391   4.360   6.567  0.8532 -2.0546 -0.0739
   88bbb     H2 2555   7.545   4.383   6.489  0.4293  0.1924 -1.0415
   88bbb     C2 2556   7.428   4.518   6.261  0.6440  0.0607  1.1034
   88bbb     H3 2557   7.379   4.448   6.191  1.0322  2.1659 -1.4602
   88bbb     H4 2558   7.535   4.498   6.251  0.4507 -1.9828  2.5928
   88bbb     C3 2559   7.433   4.618   6.490 -0.6499  0.2956  0.2910
   88bbb     H5 2560   7.396   4.604   6.593 -2.7279  0.3196 -0.4160
   88bbb     H6 2561   7.370   4.698   6.449  1.5587  1.3835 -1.1621
   88bbb     C4 2562   7.579   4.667   6.483 -0.0905 -0.3309  0.3921
   88bbb     H7 2563   7.601   4.700   6.381  0.6228  0.9930  0.9451
   88bbb     H8 2564   7.649   4.583   6.497 -0.8995 -0.8894  1.2182
   88bbb     C5 2565   7.421   4.243   6.397 -0.1126  0.5677  0.6591
   88bbb     H9 2566   7.462   4.160   6.457  0.4024 -0.3808 -0.9584
   88bbb    H10 2567   7.488   4.239   6.310 -1.7640  1.8931 -0.7427
   88bbb     C6 2568   7.375   4.645   6.195 -0.4253 -0.6389 -0.7842
   88bbb    H11 2569   7.421   4.738   6.231 -1.0320 -0.6180 -0.0298
   88bbb    H12 2570   7.270   4.661   6.221 -0.2198  0.0763 -0.3625
   88bbb     C7 2571   7.612   4.772   6.594 -0.0798 -0.1169  0.7289
   88bbb    H13 2572   7.624   4.727   6.694  1.9599 -1.8330 -0.2272
   88bbb    H14 2573   7.538   4.853   6.594  0.6684  0.5898  1.1392
   88bbb     C8 2574   7.396   4.645   6.039  1.1190 -0.3782  0.1469
   88bbb    H15 2575   7.306   4.674   5.983  0.9028  1.1892  1.2309
   88bbb    H16 2576   7.428   4.546   6.004 -0.7666 -1.8780  2.4248
   88bbb     C9 2577   7.279   4.214   6.355  0.0825 -0.0791  0.2221
   88bbb    H17 2578   7.246   4.298   6.293  0.8258  0.6443  0.7913
   88bbb    H18 2579   7.216   4.220   6.444 -0.0828 -0.2494  0.1176
   88bbb     O1 2580   7.735   4.828   6.549  0.2749 -0.1340  0.2806
   89bbb     N1 2581   8.318   3.964   6.322 -0.4187  0.2228  0.2264
   89bbb     C1 2582   8.169   3.957   6.311  0.1911  0.4805  1.0129
   89bbb     H1 2583   8.122   4.035   6.372 -0.5315  1.6431 -0.9454
   89bbb     H2 2584   8.126   3.858   6.332 -0.8699  0.5690 -0.6065
   89bbb     C2 2585   8.368   3.913   6.452  0.3611  0.6236  0.0537
   89bbb     H3 2586   8.328   3.978   6.531 -0.5540  1.9680 -1.4254
   89bbb     H4 2587   8.477   3.916   6.450  0.5714 -2.7825  1.3892
   89bbb     C3 2588   8.376   4.106   6.289  0.3091 -0.2427  0.2106
   89bbb     H5 2589   8.359   4.121   6.182 -1.5396 -1.9830  0.2043
   89bbb     H6 2590   8.485   4.112   6.304  0.4221 -0.0006 -0.6696
   89bbb     C4 2591   8.308   4.223   6.368  0.0135  0.6353  0.1561
   89bbb     H7 2592   8.296   4.203   6.475 -2.2648 -1.3181 -0.3757
   89bbb     H8 2593   8.202   4.231   6.343  0.1715  0.5210 -0.5785
   89bbb     C5 2594   8.123   3.984   6.159  0.3268 -0.0776 -0.0680
   89bbb     H9 2595   8.154   4.079   6.113 -1.2696 -0.1832 -1.4599
   89bbb    H10 2596   8.014   3.992   6.162  0.4376  1.3135  2.1761
   89bbb     C6 2597   8.328   3.767   6.482 -0.2463  0.2907 -0.1644
   89bbb    H11 2598   8.225   3.772   6.521 -1.1637 -2.7712 -1.8658
   89bbb    H12 2599   8.391   3.720   6.559  1.7823  0.0640 -1.8898
   89bbb     C7 2600   8.377   4.361   6.339  0.5014 -0.0066 -0.9063
   89bbb    H13 2601   8.409   4.382   6.237  0.6419  0.9374 -0.6747
   89bbb    H14 2602   8.463   4.366   6.407 -1.2876  0.4098  1.4882
   89bbb     C8 2603   8.337   3.668   6.362  0.2054 -0.2667  0.0394
   89bbb    H15 2604   8.441   3.639   6.342  0.1908  0.6939 -1.6312
   89bbb    H16 2605   8.302   3.714   6.268  1.7959  1.6175  0.3078
   89bbb     C9 2606   8.151   3.874   6.055 -0.4413  0.1395  0.8777
   89bbb    H17 2607   8.143   3.775   6.102 -0.3610  0.3094  1.2523
   89bbb    H18 2608   8.253   3.895   6.023 -1.7284  2.4135 -2.2471
   89bbb     O1 2609   8.283   4.461   6.378 -0.6344  0.2485 -0.4534
   90bbb     N1 2610   8.537   6.388   6.256 -0.2150 -0.3435  0.0609
   90bbb     C1 2611   8.394   6.414   6.273 -0.5450  0.3607 -0.1278
   90bbb     H1 2612   8.379   6.494   6.346 -0.2445  0.2756  0.0338
   90bbb     H2 2613   8.354   6.317   6.304 -3.3216  0.9231 -1.6351
   90bbb     C2 2614   8.623   6.482   6.183  0.1887 -0.0722  0.7549
   90bbb     H3 2615   8.581   6.488   6.081  1.5391 -0.9620  0.1171
   90bbb     H4 2616   8.725   6.445   6.168 -0.9782 -2.3440 -2.7916
   90bbb     C3 2617   8.604   6.346   6.382 -0.1560  0.0477  0.0143
   90bbb     H5 2618   8.601   6.435   6.447  2.2766  0.2750 -0.0684
   90bbb     H6 2619   8.710   6.325   6.363  0.5569  1.5871  1.9849
   90bbb     C4 2620   8.548   6.225   6.456  0.2239  0.0195 -0.0716
   90bbb     H7 2621   8.502   6.156   6.384  0.3750 -0.0478 -0.1032
   90bbb     H8 2622   8.467   6.255   6.524 -0.4773 -0.3147 -0.7449
   90bbb     C5 2623   8.324   6.456   6.139 -0.0313 -0.5871 -0.1325
   90bbb     H9 2624   8.333   6.382   6.059  1.6443 -0.3136 -0.2363
   90bbb    H10 2625   8.382   6.540   6.096  0.4366 -0.9564 -0.2311
   90bbb     C6 2626   8.636   6.619   6.249  0.0609  0.2469 -0.1124
   90bbb    H11 2627   8.672   6.607   6.352 -1.0041 -0.2898  0.2127
   90bbb    H12 2628   8.540   6.671   6.250 -0.4888 -0.7318 -1.0686
   90bbb     C7 2629   8.659   6.153   6.536 -0.3001  0.0645 -0.5425
   90bbb    H13 2630   8.716   6.221   6.601 -0.6164 -1.8423  1.8911
   90bbb    H14 2631   8.725   6.104   6.464  0.1496  0.3584 -0.3359
   90bbb     C8 2632   8.736   6.706   6.167 -0.2747  0.3584 -0.3329
   90bbb    H15 2633   8.712   6.811   6.188 -0.0047  0.0597  1.6260
   90bbb    H16 2634   8.732   6.686   6.059  0.9462  0.8806 -0.4937
   90bbb     C9 2635   8.183   6.522   6.149 -0.6034  0.1746  0.2406
   90bbb    H17 2636   8.150   6.547   6.048 -0.7985 -2.7175 -0.5134
   90bbb    H18 2637   8.188   6.616   6.206 -1.8374  0.4057  0.0097
   90bbb     O1 2638   8.603   6.051   6.623  0.1282 -0.1362 -0.1328
   91bbb     N1 2639   7.607   6.219   6.801 -0.0997 -0.6757 -0.2186
   91bbb     C1 2640   7.507   6.315   6.843  0.4813 -0.7001  0.1071
   91bbb     H1 2641   7.463   6.368   6.758 -1.0613  0.0021  1.3083
   91bbb     H2 2642   7.554   6.394   6.903 -1.4893 -0.2982  1.2048
   91bbb     C2 2643   7.712   6.295   6.733 -0.1796 -0.4467 -1.0539
   91bbb     H3 2644   7.754   6.381   6.787  1.7026 -0.4961 -2.3346
   91bbb     H4 2645   7.666   6.347   6.649 -0.8895 -2.3314 -1.8831
   91bbb     C3 2646   7.658   6.135   6.908  0.1414  0.1513 -0.7054
   91bbb     H5 2647   7.724   6.061   6.862 -0.4293  1.1583 -3.3276
   91bbb     H6 2648   7.569   6.082   6.945  0.3001  1.2715  1.4388
   91bbb     C4 2649   7.731   6.203   7.029 -0.2369 -0.4784 -0.1736
   91bbb     H7 2650   7.663   6.269   7.085 -0.5112  1.4338 -2.5717
   91bbb     H8 2651   7.807   6.279   7.004 -0.0864 -0.7665 -0.5850
   91bbb     C5 2652   7.391   6.243   6.920 -0.3115  0.0378 -0.2080
   91bbb     H9 2653   7.419   6.219   7.024  0.3050 -0.1888 -0.4229
   91bbb    H10 2654   7.387   6.147   6.868  1.7604  0.5249 -1.3856
   91bbb     C6 2655   7.822   6.217   6.673  0.5459 -0.6641 -0.1633
   91bbb    H11 2656   7.891   6.175   6.747 -0.4251  0.8309  1.6848
   91bbb    H12 2657   7.882   6.288   6.614  2.4160 -0.4714  1.8508
   91bbb     C7 2658   7.789   6.090   7.109 -0.1426 -0.5709 -0.3750
   91bbb    H13 2659   7.717   6.008   7.120  0.6254 -1.0759  1.1664
   91bbb    H14 2660   7.803   6.133   7.209 -0.8603  1.7843 -1.2063
   91bbb     C8 2661   7.764   6.101   6.591  0.0098  1.3392  1.0083
   91bbb    H15 2662   7.682   6.044   6.635  0.1691 -0.9429 -1.4517
   91bbb    H16 2663   7.850   6.034   6.587 -0.1874  1.1460 -0.4267
   91bbb     C9 2664   7.260   6.330   6.909 -0.2041 -0.0881  0.0657
   91bbb    H17 2665   7.180   6.273   6.957 -0.5382  0.0523 -0.3126
   91bbb    H18 2666   7.236   6.344   6.803 -1.4180 -0.7967  0.2324
   91bbb     O1 2667   7.905   6.046   7.041 -0.3478 -0.1318 -0.4077
   92bbb     N1 2668   8.810   5.892   4.882  0.1630 -0.0779  0.7517
   92bbb     C1 2669   8.849   5.849   5.015  0.0462  0.0717 -0.5993
   92bbb     H1 2670   8.782   5.912   5.074  0.5773  1.0035 -0.9768
   92bbb     H2 2671   8.956   5.870   5.027 -0.2180  0.5427  1.2337
   92bbb     C2 2672   8.904   5.862   4.767  0.4167  0.8191 -0.2487
   92bbb     H3 2673   8.871   5.930   4.687  0.1808  0.9414 -0.0534
   92bbb     H4 2674   8.887   5.760   4.733  0.9433  0.4892  0.4500
   92bbb     C3 2675   8.663   5.882   4.845  0.6654  1.0467  0.5510
   92bbb     H5 2676   8.635   5.776   4.850 -0.9489  1.3049 -1.7411
   92bbb     H6 2677   8.650   5.907   4.739 -0.9181  1.6139  0.8517
   92bbb     C4 2678   8.569   5.970   4.933 -0.0058 -0.7142 -0.0166
   92bbb     H7 2679   8.602   6.075   4.934  0.2844 -0.8027  0.9326
   92bbb     H8 2680   8.579   5.943   5.039  1.6415 -0.6248 -0.1306
   92bbb     C5 2681   8.811   5.707   5.046  0.6051 -0.4344 -0.4611
   92bbb     H9 2682   8.871   5.634   4.989  0.1946  0.0892 -1.6096
   92bbb    H10 2683   8.708   5.675   5.025  0.3079 -0.2924  0.7567
   92bbb     C6 2684   9.063   5.878   4.785  0.0743 -0.4773  0.4583
   92bbb    H11 2685   9.104   5.840   4.691  0.2402  2.6075 -0.8363
   92bbb    H12 2686   9.091   5.807   4.865 -1.2888 -1.6555 -0.0545
   92bbb     C7 2687   8.415   5.957   4.901 -0.2347 -0.4795 -0.6711
   92bbb    H13 2688   8.395   5.851   4.920  0.5010 -0.6912 -1.0361
   92bbb    H14 2689   8.389   5.990   4.800  1.6586 -1.0857 -1.4016
   92bbb     C8 2690   9.101   6.028   4.795 -0.1967 -0.6023  0.0455
   92bbb    H15 2691   9.061   6.060   4.892 -1.0032 -0.6461 -0.2594
   92bbb    H16 2692   9.066   6.094   4.715  1.3207 -0.5806 -0.6259
   92bbb     C9 2693   8.843   5.672   5.192 -0.0277 -0.0324  0.1406
   92bbb    H17 2694   8.946   5.694   5.223  0.2852  0.2946 -1.0531
   92bbb    H18 2695   8.835   5.564   5.212 -5.1097  0.1610  0.4284
   92bbb     O1 2696   8.352   6.044   4.997  0.4755 -0.1935  0.4262
   93bbb     N1 2697   7.326   6.343   4.990  0.0298  0.0209  0.2127
   93bbb     C1 2698   7.344   6.479   4.928  0.4133  0.1104 -0.1252
   93bbb     H1 2699   7.332   6.555   5.007  1.0348 -1.9029  2.0271
   93bbb     H2 2700   7.268   6.493   4.850  0.2615  1.0266  0.1746
   93bbb     C2 2701   7.202   6.326   5.071 -0.0796  0.4983 -0.1668
   93bbb     H3 2702   7.180   6.223   5.102 -1.3635  0.4733 -1.0857
   93bbb     H4 2703   7.112   6.351   5.014 -0.2012 -0.5122 -0.4333
   93bbb     C3 2704   7.343   6.229   4.894 -0.2606 -0.1751 -0.6117
   93bbb     H5 2705   7.436   6.231   4.835  0.3087  1.9109  0.2530
   93bbb     H6 2706   7.263   6.229   4.820  0.5756  2.2902 -1.6226
   93bbb     C4 2707   7.369   6.103   4.972  0.5291  0.2235  0.2246
   93bbb     H7 2708   7.390   6.029   4.894 -0.1947 -2.9095  2.7901
   93bbb     H8 2709   7.272   6.075   5.014 -0.3839  0.5768 -1.5344
   93bbb     C5 2710   7.483   6.515   4.867 -0.5656  0.0890 -0.7845
   93bbb     H9 2711   7.501   6.473   4.767  2.2273  0.2375 -0.4246
   93bbb    H10 2712   7.551   6.464   4.936 -1.4824  0.6820  0.5901
   93bbb     C6 2713   7.199   6.415   5.198 -0.4216  0.5693  0.7202
   93bbb    H11 2714   7.184   6.515   5.156 -2.7800  0.4120  1.0628
   93bbb    H12 2715   7.296   6.426   5.248 -0.5417  2.9117  0.5304
   93bbb     C7 2716   7.479   6.110   5.073  0.6436 -0.2499 -0.5242
   93bbb    H13 2717   7.443   6.141   5.172 -1.3721 -3.2181 -0.1876
   93bbb    H14 2718   7.551   6.190   5.048  0.2266  0.2163 -0.2465
   93bbb     C8 2719   7.087   6.363   5.296 -0.9236  0.2106  0.5069
   93bbb    H15 2720   7.002   6.329   5.236 -0.5155  0.5356 -0.2765
   93bbb    H16 2721   7.064   6.451   5.356 -0.1469  0.2926  0.7005
   93bbb     C9 2722   7.505   6.665   4.875 -0.2554  0.8615  0.4480
   93bbb    H17 2723   7.429   6.724   4.823  0.3852  3.6611  2.4307
   93bbb    H18 2724   7.596   6.677   4.815 -0.9994 -0.8218 -1.1282
   93bbb     O1 2725   7.527   5.978   5.082 -0.4048  0.6634  0.6155
   94bbb     N1 2726   7.660   3.013   5.662  0.6237  0.1575 -0.2339
   94bbb     C1 2727   7.713   2.881   5.712 -0.1435  0.6566 -0.1898
   94bbb     H1 2728   7.674   2.860   5.813 -0.0310  0.3706 -0.2059
   94bbb     H2 2729   7.821   2.893   5.724  0.0273 -0.5672 -0.3740
   94bbb     C2 2730   7.690   3.020   5.519 -0.0933 -0.3317 -0.6916
   94bbb     H3 2731   7.621   2.959   5.459 -1.0847  1.0003 -0.9420
   94bbb     H4 2732   7.793   2.988   5.499  0.0756  0.9429 -2.0291
   94bbb     C3 2733   7.684   3.134   5.753  0.0065  0.4223  0.6760
   94bbb     H5 2734   7.636   3.217   5.699  1.7387  1.3594  0.5099
   94bbb     H6 2735   7.789   3.164   5.760  0.5170 -1.4748  1.9865
   94bbb     C4 2736   7.631   3.113   5.891 -0.5099 -0.2035 -0.1931
   94bbb     H7 2737   7.689   3.035   5.943 -2.2434 -1.0726  0.5069
   94bbb     H8 2738   7.529   3.073   5.885 -0.4436 -0.4412  0.1957
   94bbb     C5 2739   7.665   2.756   5.637 -0.3690  0.7707  0.2159
   94bbb     H9 2740   7.687   2.761   5.530  0.5118 -0.5402  0.3095
   94bbb    H10 2741   7.557   2.749   5.655 -0.3073  2.3093  1.4335
   94bbb     C6 2742   7.680   3.155   5.450 -0.2978  0.0350  0.1758
   94bbb    H11 2743   7.764   3.209   5.495  1.9615 -0.4819 -3.1089
   94bbb    H12 2744   7.583   3.203   5.468 -0.7126 -0.7979  0.2091
   94bbb     C7 2745   7.613   3.237   5.983 -0.3257 -0.5633  0.0294
   94bbb    H13 2746   7.556   3.215   6.075  1.1548 -1.1662  0.8298
   94bbb    H14 2747   7.556   3.311   5.925  0.1517  2.0156  2.5806
   94bbb     C8 2748   7.705   3.146   5.303  0.0213  1.6697 -0.2676
   94bbb    H15 2749   7.626   3.084   5.259  1.3009 -0.7515  0.6579
   94bbb    H16 2750   7.799   3.096   5.279 -0.3087  1.1890 -0.5613
   94bbb     C9 2751   7.729   2.634   5.695 -0.2789  0.3611  0.2500
   94bbb    H17 2752   7.837   2.646   5.710  0.5939 -3.0023 -2.0116
   94bbb    H18 2753   7.717   2.551   5.623 -0.5228  1.5997 -1.1969
   94bbb     O1 2754   7.744   3.270   6.024  0.0043 -0.0097 -0.5427
   95bbb     N1 2755   7.407   4.261   5.834  0.2352 -0.4083  0.3398
   95bbb     C1 2756   7.525   4.235   5.739  0.0546  0.1620  0.1986
   95bbb     H1 2757   7.494   4.212   5.636  1.3281  0.7691 -0.3395
   95bbb     H2 2758   7.576   4.139   5.754  1.0631  0.5788 -0.4976
   95bbb     C2 2759   7.308   4.368   5.801  0.2631  0.1299  1.3315
   95bbb     H3 2760   7.278   4.359   5.696 -0.2851  3.1437  1.1401
   95bbb     H4 2761   7.349   4.470   5.807  2.6308 -0.7394  1.1218
   95bbb     C3 2762   7.452   4.256   5.975 -0.3748 -0.1463  0.1443
   95bbb     H5 2763   7.362   4.255   6.038 -0.7839 -0.5272 -0.4346
   95bbb     H6 2764   7.501   4.352   5.994 -0.1360 -0.0270 -1.0158
   95bbb     C4 2765   7.540   4.135   6.007 -0.0996 -0.0486 -0.0116
   95bbb     H7 2766   7.563   4.137   6.114 -1.1089 -0.5098  0.2248
   95bbb     H8 2767   7.642   4.147   5.968  0.1187 -1.7665 -0.0814
   95bbb     C5 2768   7.640   4.339   5.738 -0.4183  0.2612  0.2856
   95bbb     H9 2769   7.694   4.349   5.833  2.7095  0.4450 -1.3879
   95bbb    H10 2770   7.595   4.432   5.700  0.2810  0.7146  0.5401
   95bbb     C6 2771   7.177   4.362   5.885 -0.2024  0.4260 -0.1153
   95bbb    H11 2772   7.190   4.407   5.983 -0.9578  0.4935 -0.0412
   95bbb    H12 2773   7.150   4.260   5.917 -1.9147  1.2992  1.3643
   95bbb     C7 2774   7.486   3.991   5.982  0.4749 -0.1398  0.2620
   95bbb    H13 2775   7.398   3.998   5.916 -0.7620 -1.9757  1.5865
   95bbb    H14 2776   7.448   3.940   6.072  0.4852 -2.0137 -0.7449
   95bbb     C8 2777   7.059   4.437   5.811 -0.2659 -0.3275 -0.1563
   95bbb    H15 2778   6.972   4.419   5.875 -0.5281  1.5125  0.0593
   95bbb    H16 2779   7.045   4.382   5.717  0.1374  0.6738 -0.8127
   95bbb     C9 2780   7.745   4.300   5.629  0.8148 -0.4920 -0.8856
   95bbb    H17 2781   7.701   4.325   5.532 -1.9000 -0.3573  0.2805
   95bbb    H18 2782   7.767   4.192   5.624  0.3527 -0.6642  0.4284
   95bbb     O1 2783   7.595   3.917   5.919 -1.0387  0.2619 -0.2480
   96bbb     N1 2784   7.306   5.031   7.366 -0.0963 -0.0884  0.8050
   96bbb     C1 2785   7.300   5.000   7.510 -0.6240 -0.2729  0.2253
   96bbb     H1 2786   7.245   4.906   7.519  0.5725 -1.2576 -2.0232
   96bbb     H2 2787   7.257   5.073   7.580  1.9173 -0.8478  2.5523
   96bbb     C2 2788   7.180   4.999   7.292 -0.6447 -0.0448  0.2429
   96bbb     H3 2789   7.186   5.045   7.193 -0.4411  2.0611  1.1696
   96bbb     H4 2790   7.097   5.054   7.338  0.7677  1.8159  0.7141
   96bbb     C3 2791   7.362   5.164   7.341  0.2650 -0.2597  0.4269
   96bbb     H5 2792   7.446   5.190   7.406 -0.1758  1.1930  0.4474
   96bbb     H6 2793   7.283   5.236   7.365 -0.2339 -0.4324 -0.6238
   96bbb     C4 2794   7.402   5.192   7.188 -0.1781  0.4161  0.0708
   96bbb     H7 2795   7.445   5.293   7.187  0.5979  0.0906  0.1228
   96bbb     H8 2796   7.311   5.204   7.127  0.2140 -1.9385 -1.0783
   96bbb     C5 2797   7.448   4.976   7.567  0.0651  0.2886 -0.1607
   96bbb     H9 2798   7.442   4.963   7.676  1.4869 -0.9585 -0.1894
   96bbb    H10 2799   7.509   5.067   7.568 -1.0063  1.0213  0.6093
   96bbb     C6 2800   7.138   4.848   7.281 -0.3413 -0.3819 -0.4016
   96bbb    H11 2801   7.033   4.841   7.250 -1.1752 -1.1713  2.2965
   96bbb    H12 2802   7.137   4.803   7.382  2.2229 -1.0619 -0.6078
   96bbb     C7 2803   7.509   5.095   7.125  0.0264 -0.1729 -0.0920
   96bbb    H13 2804   7.553   5.154   7.044 -1.6073 -0.0003 -0.8896
   96bbb    H14 2805   7.469   4.996   7.100 -0.6387  0.2385 -0.6981
   96bbb     C8 2806   7.224   4.765   7.180  0.9412  0.1918 -0.0726
   96bbb    H15 2807   7.324   4.785   7.221  0.9532  0.1539 -0.0842
   96bbb    H16 2808   7.212   4.817   7.084 -0.8005  1.2809  0.6884
   96bbb     C9 2809   7.528   4.864   7.495  0.2020  0.3303 -0.7738
   96bbb    H17 2810   7.634   4.865   7.522  0.0430 -0.8415 -0.0101
   96bbb    H18 2811   7.514   4.891   7.389  3.4278  1.6066 -0.9601
   96bbb     O1 2812   7.617   5.079   7.218 -0.1014  0.2952  0.0278
   97bbb     N1 2813   7.679   5.594   7.355 -0.2239  0.3643 -0.1923
   97bbb     C1 2814   7.562   5.524   7.416  0.6369 -0.5723 -0.2917
   97bbb     H1 2815   7.585   5.418   7.400 -1.1195 -0.7202 -2.2356
   97bbb     H2 2816   7.481   5.549   7.346 -0.0580 -0.7596  0.4341
   97bbb     C2 2817   7.685   5.744   7.368 -0.1259 -0.0076 -0.1804
   97bbb     H3 2818   7.776   5.781   7.318 -1.1594  1.4844 -1.0424
   97bbb     H4 2819   7.690   5.773   7.473  0.1428 -0.0649 -0.1768
   97bbb     C3 2820   7.802   5.517   7.370 -0.0929 -0.5777  0.2764
   97bbb     H5 2821   7.777   5.410   7.366 -0.0059 -0.6151  0.7122
   97bbb     H6 2822   7.842   5.534   7.471  0.7839  0.0298 -0.1664
   97bbb     C4 2823   7.904   5.526   7.259  0.2396 -0.5770 -0.1600
   97bbb     H7 2824   7.981   5.450   7.279 -0.3777 -1.0143  0.6416
   97bbb     H8 2825   7.953   5.622   7.273 -2.1054  0.5639  0.8725
   97bbb     C5 2826   7.537   5.548   7.569  0.9431  0.0914 -0.3053
   97bbb     H9 2827   7.494   5.649   7.574  1.3667  0.3447 -1.4469
   97bbb    H10 2828   7.631   5.542   7.626  1.2671 -2.6940 -0.9965
   97bbb     C6 2829   7.551   5.815   7.310  0.3689 -0.1088  0.0813
   97bbb    H11 2830   7.458   5.767   7.342  0.3924  0.3928  0.9085
   97bbb    H12 2831   7.552   5.805   7.200  0.4378 -0.3552  0.1030
   97bbb     C7 2832   7.845   5.516   7.118 -0.2610  0.1428  0.1391
   97bbb    H13 2833   7.789   5.606   7.091 -0.7163 -0.5714 -1.4393
   97bbb    H14 2834   7.762   5.444   7.125  0.4654 -0.5373  3.3253
   97bbb     C8 2835   7.548   5.966   7.355 -0.1670 -0.3050 -0.3440
   97bbb    H15 2836   7.645   6.006   7.323 -1.7162  1.6417 -2.9208
   97bbb    H16 2837   7.542   5.982   7.464  0.1397 -1.2627 -0.1768
   97bbb     C9 2838   7.443   5.445   7.647  0.3272  0.4975  0.4986
   97bbb    H17 2839   7.441   5.474   7.753  1.7750  2.4055  0.0523
   97bbb    H18 2840   7.508   5.357   7.634 -0.3294  0.3588 -3.0198
   97bbb     O1 2841   7.946   5.488   7.016  0.4890  0.0668  0.0578
   98bbb     N1 2842  10.403   2.937   7.865 -0.6060  0.1049  0.1721
   98bbb     C1 2843  10.499   2.895   7.760  0.0667 -0.2641 -0.5699
   98bbb     H1 2844  10.467   2.799   7.717  1.1819 -0.5663 -0.7688
   98bbb     H2 2845  10.597   2.875   7.805  0.9178 -0.8399 -2.5563
   98bbb     C2 2846  10.446   2.895   8.001 -0.3851 -0.2494  0.3473
   98bbb     H3 2847  10.494   2.797   7.999  0.0675 -0.0190 -0.5526
   98bbb     H4 2848  10.355   2.898   8.063 -0.4874  0.3152  0.1722
   98bbb     C3 2849  10.265   2.893   7.844 -0.3599  0.4979 -0.5752
   98bbb     H5 2850  10.254   2.791   7.883 -1.7666  0.9361  0.2459
   98bbb     H6 2851  10.245   2.893   7.736  0.6920  1.9288 -0.7918
   98bbb     C4 2852  10.161   2.981   7.914 -0.7480  0.0265  0.4858
   98bbb     H7 2853  10.204   3.081   7.925  0.7967 -0.5247 -0.1890
   98bbb     H8 2854  10.139   2.941   8.014  1.0590  1.5659  1.5469
   98bbb     C5 2855  10.510   2.997   7.646 -0.5248 -0.1960  0.7822
   98bbb     H9 2856  10.515   3.100   7.683  0.3424  0.3647 -0.7961
   98bbb    H10 2857  10.417   2.992   7.588 -1.8446 -2.8051  2.8895
   98bbb     C6 2858  10.557   2.978   8.071  0.4128  0.2396 -0.3295
   98bbb    H11 2859  10.651   2.969   8.015 -0.1589 -1.0620 -1.1397
   98bbb    H12 2860  10.586   2.930   8.165  1.3449  0.3977 -0.5223
   98bbb     C7 2861  10.032   2.988   7.837  0.2024  0.0095  0.8280
   98bbb    H13 2862  10.042   3.034   7.738 -0.1042 -1.4210  0.0954
   98bbb    H14 2863   9.979   3.060   7.901 -1.2440 -1.1080  0.9533
   98bbb     C8 2864  10.517   3.118   8.097  0.3033 -0.5635  0.1505
   98bbb    H15 2865  10.413   3.122   8.132 -1.3451 -2.5969 -3.8200
   98bbb    H16 2866  10.521   3.178   8.005  2.3012 -0.7441  0.0753
   98bbb     C9 2867  10.642   2.984   7.557  0.6148  0.1988 -0.3216
   98bbb    H17 2868  10.650   2.880   7.525 -1.2153  0.3151 -1.2674
   98bbb    H18 2869  10.735   3.007   7.611  2.0641 -2.3476 -1.5304
   98bbb     O1 2870   9.980   2.857   7.822  0.6121 -0.3928  0.5085
   99bbb     N1 2871   9.639   1.771   7.415  0.1340 -0.2452 -0.3484
   99bbb     C1 2872   9.725   1.720   7.302 -0.6643 -0.5327 -0.2118
   99bbb     H1 2873   9.779   1.635   7.346 -0.6338  0.6149  2.0779
   99bbb     H2 2874   9.796   1.801   7.283 -0.1074 -0.5991  1.3925
   99bbb     C2 2875   9.522   1.683   7.461  0.0953 -0.1594  0.2734
   99bbb     H3 2876   9.455   1.656   7.378 -1.3087  0.7415  1.0735
   99bbb     H4 2877   9.446   1.730   7.525 -0.5423 -4.4983  3.1530
   99bbb     C3 2878   9.721   1.835   7.523 -0.4617  0.3785  0.6839
   99bbb     H5 2879   9.770   1.924   7.482 -0.6953  0.3780  0.4053
   99bbb     H6 2880   9.803   1.771   7.556  0.8746  0.7450 -1.7211
   99bbb     C4 2881   9.644   1.876   7.654  0.3250  0.4339  0.1152
   99bbb     H7 2882   9.710   1.917   7.732  0.8386 -0.5653  0.2190
   99bbb     H8 2883   9.601   1.785   7.697 -0.0470  0.7912  0.5115
   99bbb     C5 2884   9.662   1.690   7.160  0.2745 -0.8372 -0.2312
   99bbb     H9 2885   9.596   1.773   7.131  0.3544 -0.1084  1.5687
   99bbb    H10 2886   9.593   1.605   7.161  0.7215 -1.1906  0.5030
   99bbb     C6 2887   9.571   1.553   7.533 -0.7689 -0.3785 -0.7399
   99bbb    H11 2888   9.645   1.577   7.610 -1.4677  0.3680 -0.2728
   99bbb    H12 2889   9.631   1.494   7.463  2.0891  0.6686  0.7041
   99bbb     C7 2890   9.530   1.977   7.633  0.4478  0.3877  0.3134
   99bbb    H13 2891   9.481   1.995   7.730 -1.4030  2.9280 -0.9937
   99bbb    H14 2892   9.452   1.935   7.569 -0.0093  0.8635  0.5483
   99bbb     C8 2893   9.453   1.468   7.583  0.3168 -0.1049  0.0694
   99bbb    H15 2894   9.482   1.364   7.601 -3.2508 -1.2290  0.2030
   99bbb    H16 2895   9.371   1.458   7.510  1.1220  0.7962 -0.9988
   99bbb     C9 2896   9.774   1.665   7.052  0.3439 -0.2541 -0.0247
   99bbb    H17 2897   9.720   1.648   6.958  0.2113 -0.6750  0.1238
   99bbb    H18 2898   9.837   1.578   7.074 -1.9448 -1.9062  0.3978
   99bbb     O1 2899   9.579   2.101   7.571  0.3190 -0.0864 -0.0967
  100bbb     N1 2900   7.683   3.117   8.481  0.9051  0.2553  0.4924
  100bbb     C1 2901   7.709   2.974   8.447  0.1931  0.3621 -0.4600
  100bbb     H1 2902   7.683   2.950   8.343 -1.4374 -1.8859  0.3752
  100bbb     H2 2903   7.623   2.925   8.495 -0.1295 -0.7789 -2.1076
  100bbb     C2 2904   7.701   3.144   8.623  0.0012  0.1407 -0.4061
  100bbb     H3 2905   7.806   3.162   8.646 -0.0570  0.7781 -0.5988
  100bbb     H4 2906   7.671   3.056   8.680 -2.6624 -0.3041 -2.2833
  100bbb     C3 2907   7.766   3.205   8.396 -0.1552 -0.2258 -0.3483
  100bbb     H5 2908   7.872   3.178   8.393 -0.5234 -1.7303 -1.3138
  100bbb     H6 2909   7.765   3.306   8.437  3.1083 -0.1205 -0.2568
  100bbb     C4 2910   7.719   3.198   8.245  0.3333  0.4702 -0.1401
  100bbb     H7 2911   7.626   3.251   8.222  1.3667  1.7888 -1.5027
  100bbb     H8 2912   7.694   3.097   8.211 -3.3487  0.9324  0.7641
  100bbb     C5 2913   7.844   2.920   8.494 -0.3257  0.1238  0.0730
  100bbb     H9 2914   7.839   2.922   8.603  0.6524  0.7822  0.1189
  100bbb    H10 2915   7.928   2.986   8.469  1.3565 -1.5125  1.1032
  100bbb     C6 2916   7.624   3.270   8.679  0.2361  0.6993 -0.5094
  100bbb    H11 2917   7.642   3.364   8.624  0.9494 -0.0617 -1.6281
  100bbb    H12 2918   7.664   3.289   8.779  2.5832  0.7516 -1.3915
  100bbb     C7 2919   7.826   3.257   8.154 -0.0055  0.1331  0.1440
  100bbb    H13 2920   7.846   3.362   8.176 -2.9140  0.6781  0.6564
  100bbb    H14 2921   7.783   3.252   8.053  0.9375 -1.5488 -0.2154
  100bbb     C8 2922   7.468   3.251   8.682  0.2101 -0.1286  0.0914
  100bbb    H15 2923   7.434   3.167   8.743 -2.5049  0.9794  0.2552
  100bbb    H16 2924   7.432   3.223   8.582  2.2259  0.2951 -0.8222
  100bbb     C9 2925   7.875   2.775   8.454  0.2787 -0.1727 -0.1197
  100bbb    H17 2926   7.863   2.767   8.345  0.2649 -0.9583 -0.0681
  100bbb    H18 2927   7.803   2.704   8.497  1.3061 -1.0082  0.2721
  100bbb     O1 2928   7.955   3.185   8.158  0.6863  0.2790  0.0190
  101bbb     N1 2929   7.348   2.536   7.784 -0.3568 -0.5141  0.2804
  101bbb     C1 2930   7.426   2.541   7.654  0.6769  0.3041  0.4795
  101bbb     H1 2931   7.460   2.638   7.616  1.3552  0.0932  0.5341
  101bbb     H2 2932   7.352   2.494   7.587  1.4925  0.2207 -0.3930
  101bbb     C2 2933   7.213   2.603   7.774 -0.7714  0.9951  0.0986
  101bbb     H3 2934   7.167   2.561   7.684 -1.0558 -2.0049  1.5166
  101bbb     H4 2935   7.226   2.711   7.767  0.1040  1.0487  2.0305
  101bbb     C3 2936   7.427   2.577   7.898 -0.2500  0.2466  0.4663
  101bbb     H5 2937   7.528   2.535   7.887 -0.8761 -1.7358  1.7955
  101bbb     H6 2938   7.393   2.548   7.998 -1.2099  1.1048  0.4047
  101bbb     C4 2939   7.442   2.727   7.916  0.0756  0.4917  0.2276
  101bbb     H7 2940   7.348   2.783   7.926 -1.5077 -1.6667 -1.6285
  101bbb     H8 2941   7.491   2.756   7.823  1.5209 -1.6109  0.2643
  101bbb     C5 2942   7.540   2.443   7.649  0.1326  0.0389  0.0421
  101bbb     H9 2943   7.550   2.381   7.558  1.5675 -3.6262  2.4611
  101bbb    H10 2944   7.511   2.362   7.717 -0.3384  1.0521  1.0726
  101bbb     C6 2945   7.119   2.580   7.894  0.0010 -0.3480  0.1164
  101bbb    H11 2946   7.054   2.662   7.928 -1.3745 -1.3679  0.0246
  101bbb    H12 2947   7.186   2.580   7.980  1.6754 -1.2258 -1.1384
  101bbb     C7 2948   7.529   2.760   8.039 -0.3009 -0.6571 -1.1092
  101bbb    H13 2949   7.470   2.729   8.125  0.2760 -0.6082 -0.6880
  101bbb    H14 2950   7.544   2.868   8.051  0.8665 -0.7723 -1.3493
  101bbb     C8 2951   7.033   2.452   7.877  0.4264 -0.5484  0.2644
  101bbb    H15 2952   7.008   2.423   7.979 -1.1531 -1.1044 -0.2570
  101bbb    H16 2953   7.099   2.378   7.830  1.3035  0.3924 -0.0185
  101bbb     C9 2954   7.679   2.500   7.667  0.0723 -0.1963 -0.7263
  101bbb    H17 2955   7.759   2.428   7.644  1.3586  0.6619  0.8385
  101bbb    H18 2956   7.685   2.521   7.775 -1.0604  2.2282 -1.0830
  101bbb     O1 2957   7.656   2.679   8.043  0.2292  0.1210 -0.6382
  102bbb     N1 2958  11.232   4.714   5.934 -0.3741  0.7748  0.2865
  102bbb     C1 2959  11.175   4.744   6.066 -0.6724  0.1625  0.0961
  102bbb     H1 2960  11.229   4.698   6.149  1.3655  2.4753  0.1534
  102bbb     H2 2961  11.072   4.704   6.065 -0.2644 -0.9264  0.3048
  102bbb     C2 2962  11.183   4.806   5.825 -0.1127 -0.1276 -0.1646
  102bbb     H3 2963  11.183   4.909   5.861 -2.0209 -0.8125  2.0633
  102bbb     H4 2964  11.083   4.775   5.792 -0.0381 -0.3801 -0.1646
  102bbb     C3 2965  11.212   4.576   5.892 -0.1256  1.3777  0.0983
  102bbb     H5 2966  11.277   4.557   5.805  1.2053  2.9790  0.6910
  102bbb     H6 2967  11.106   4.557   5.872 -0.0568  0.1256  0.7934
  102bbb     C4 2968  11.257   4.465   5.993 -0.7366  0.0111 -0.0751
  102bbb     H7 2969  11.214   4.486   6.092  0.3464  2.1796 -0.0141
  102bbb     H8 2970  11.364   4.455   6.014 -0.7663  1.9449  1.1966
  102bbb     C5 2971  11.162   4.890   6.121 -0.1263 -0.6380  0.3029
  102bbb     H9 2972  11.104   4.888   6.213 -0.0499 -3.7401  0.3955
  102bbb    H10 2973  11.108   4.957   6.053  0.5706  0.3063  0.6607
  102bbb     C6 2974  11.285   4.815   5.718 -0.4288 -0.3009 -0.2409
  102bbb    H11 2975  11.275   4.719   5.666 -0.1953 -1.5186  1.8676
  102bbb    H12 2976  11.380   4.832   5.771  0.6910  1.1296 -2.5190
  102bbb     C7 2977  11.206   4.325   5.952  0.5170 -0.0096  0.5754
  102bbb    H13 2978  11.258   4.253   6.016 -0.3977 -0.3871  0.9139
  102bbb    H14 2979  11.235   4.322   5.847  0.7349  1.1698  0.5813
  102bbb     C8 2980  11.268   4.942   5.620 -0.7885  0.0041 -0.3747
  102bbb    H15 2981  11.360   4.967   5.566 -0.6990 -1.5035 -0.9888
  102bbb    H16 2982  11.225   5.025   5.677 -0.3201 -0.5972  0.9084
  102bbb     C9 2983  11.296   4.960   6.151 -0.3570 -0.2482 -0.2104
  102bbb    H17 2984  11.282   5.067   6.169 -1.7950 -0.6830  1.6592
  102bbb    H18 2985  11.364   4.950   6.066  1.0205  3.3117  0.3285
  102bbb     O1 2986  11.060   4.310   5.974  0.0033  0.5119 -0.1328
  103bbb     N1 2987  10.357   5.157   6.556 -0.0067 -0.4394  0.0975
  103bbb     C1 2988  10.295   5.056   6.648  0.0290  0.1572  0.1647
  103bbb     H1 2989  10.257   4.972   6.589  2.1676 -0.9258  0.2261
  103bbb     H2 2990  10.210   5.106   6.697 -1.9826 -4.5552  2.1683
  103bbb     C2 2991  10.257   5.209   6.458 -0.7043  0.1079 -0.0396
  103bbb     H3 2992  10.183   5.260   6.521  1.2086  2.8219  0.1490
  103bbb     H4 2993  10.210   5.132   6.395 -0.1941 -0.9524  0.8412
  103bbb     C3 2994  10.486   5.112   6.493 -0.1627 -0.2477  0.3203
  103bbb     H5 2995  10.561   5.087   6.568 -0.0908 -0.0565  0.3112
  103bbb     H6 2996  10.526   5.195   6.433 -0.6414 -0.1490  0.1268
  103bbb     C4 2997  10.474   4.985   6.404  0.1300 -0.1265  0.7170
  103bbb     H7 2998  10.373   4.973   6.362  0.6044 -0.5681 -0.3206
  103bbb     H8 2999  10.498   4.901   6.470  0.7623 -0.1312  0.4836
  103bbb     C5 3000  10.389   5.015   6.764 -0.2404  0.7868  0.1048
  103bbb     H9 3001  10.390   5.106   6.825 -1.9399 -0.3296  1.9413
  103bbb    H10 3002  10.491   4.984   6.738 -0.6818  0.7762 -1.6913
  103bbb     C6 3003  10.294   5.335   6.376  0.4201  0.0763  0.0482
  103bbb    H11 3004  10.352   5.310   6.286 -0.0394 -1.1456  0.0835
  103bbb    H12 3005  10.362   5.391   6.442  0.7279 -1.3779  0.9948
  103bbb     C7 3006  10.566   4.996   6.278 -0.6730 -0.5668 -0.3380
  103bbb    H13 3007  10.670   5.003   6.313 -0.4926  1.7391 -1.1623
  103bbb    H14 3008  10.551   5.097   6.236  1.8146  1.1026  2.3624
  103bbb     C8 3009  10.173   5.427   6.335 -0.2336 -0.4391 -1.2469
  103bbb    H15 3010  10.213   5.510   6.275  0.9838  0.3199  0.5282
  103bbb    H16 3011  10.137   5.463   6.432  3.0643  0.0729 -0.0916
  103bbb     C9 3012  10.326   4.902   6.846 -0.1064  0.5895 -0.1105
  103bbb    H17 3013  10.229   4.933   6.886  0.3025  0.3656  1.0961
  103bbb    H18 3014  10.401   4.868   6.918 -0.0635  0.8076 -0.0530
  103bbb     O1 3015  10.560   4.882   6.187  0.3080  0.3154  0.5239
  104bbb     N1 3016   9.762   3.558   5.295 -0.1554 -0.2118  0.7439
  104bbb     C1 3017   9.895   3.554   5.368  0.4610  0.4137 -0.5326
  104bbb     H1 3018   9.966   3.490   5.315 -0.4235 -0.2946 -0.8858
  104bbb     H2 3019   9.879   3.526   5.473  0.4025  1.2041 -0.3183
  104bbb     C2 3020   9.791   3.563   5.151  1.3703 -0.0726  0.4084
  104bbb     H3 3021   9.888   3.520   5.126  0.6410 -0.7052 -1.4520
  104bbb     H4 3022   9.797   3.666   5.113 -0.8073 -0.2406 -0.5593
  104bbb     C3 3023   9.646   3.624   5.356 -0.3087 -0.2806  0.3518
  104bbb     H5 3024   9.578   3.671   5.284  0.1057  3.9907  2.4490
  104bbb     H6 3025   9.680   3.702   5.425  1.9875  0.5585 -1.5689
  104bbb     C4 3026   9.554   3.517   5.420  0.2231 -0.2442 -0.6263
  104bbb     H7 3027   9.609   3.469   5.501 -0.7694  0.1736  0.3200
  104bbb     H8 3028   9.536   3.431   5.355  0.1713 -1.1719  0.5942
  104bbb     C5 3029   9.954   3.700   5.371  0.5013 -0.2408  0.1376
  104bbb     H9 3030   9.874   3.772   5.392 -1.1636 -1.5765 -1.3421
  104bbb    H10 3031   9.993   3.716   5.270  0.1824  0.0479  0.0590
  104bbb     C6 3032   9.695   3.477   5.065  0.3137  0.3323  0.1187
  104bbb    H11 3033   9.589   3.498   5.083  0.6803 -0.0410  3.3670
  104bbb    H12 3034   9.713   3.372   5.091 -0.7134  0.3529  0.9719
  104bbb     C7 3035   9.421   3.570   5.477  0.0159 -0.0176 -0.8210
  104bbb    H13 3036   9.447   3.638   5.559  1.0739  0.3631 -1.4540
  104bbb    H14 3037   9.372   3.488   5.531  0.4289  0.3631  0.1517
  104bbb     C8 3038   9.727   3.513   4.918  0.3518 -0.0960  0.3473
  104bbb    H15 3039   9.834   3.507   4.894  0.5012 -0.1784  1.0193
  104bbb    H16 3040   9.696   3.616   4.896  2.3503  0.0028 -2.5780
  104bbb     C9 3041  10.077   3.720   5.465 -0.1108  0.9123  0.1844
  104bbb    H17 3042  10.057   3.709   5.572  2.7613 -2.3711  0.5821
  104bbb    H18 3043  10.122   3.817   5.439  1.6980  0.4511  1.4085
  104bbb     O1 3044   9.333   3.631   5.379 -0.1730  0.2898 -0.5019
  105bbb     N1 3045   9.326   4.815   5.041 -0.5646 -0.5214  0.0182
  105bbb     C1 3046   9.215   4.728   5.008  0.5460 -0.1501  0.6083
  105bbb     H1 3047   9.144   4.785   4.948  0.7645 -0.5464 -0.0351
  105bbb     H2 3048   9.156   4.705   5.097  1.2637  1.2233  1.4761
  105bbb     C2 3049   9.284   4.916   5.141  0.1332 -0.2307  0.2269
  105bbb     H3 3050   9.373   4.967   5.178  0.6518  0.2379 -1.5568
  105bbb     H4 3051   9.238   4.860   5.223 -0.8532  1.2600  0.7351
  105bbb     C3 3052   9.450   4.740   5.081  0.5943 -0.4388  0.3661
  105bbb     H5 3053   9.514   4.824   5.111  0.6853 -0.3957  0.0552
  105bbb     H6 3054   9.491   4.683   4.997  1.0739  0.0993  0.2238
  105bbb     C4 3055   9.439   4.654   5.209  0.4297  0.6949  0.4694
  105bbb     H7 3056   9.371   4.570   5.193  2.0596 -0.5266 -0.2889
  105bbb     H8 3057   9.393   4.708   5.293 -0.1332 -0.9527  1.2539
  105bbb     C5 3058   9.246   4.602   4.919 -0.4107  0.2196  0.3674
  105bbb     H9 3059   9.309   4.535   4.977  0.7612 -1.5008 -2.6806
  105bbb    H10 3060   9.305   4.628   4.830  0.9075 -0.1795  1.1056
  105bbb     C6 3061   9.172   5.017   5.084 -0.2949 -0.2032  0.4947
  105bbb    H11 3062   9.090   4.963   5.035  1.6878 -1.6477 -1.4684
  105bbb    H12 3063   9.209   5.065   4.992 -2.4233 -1.7069 -1.2679
  105bbb     C7 3064   9.566   4.599   5.276 -0.1525 -0.1783  0.0898
  105bbb    H13 3065   9.627   4.676   5.325  0.0578 -0.0522 -0.3645
  105bbb    H14 3066   9.627   4.549   5.201 -0.8990  0.3434 -0.8851
  105bbb     C8 3067   9.131   5.126   5.190 -0.5359  0.7590  0.4713
  105bbb    H15 3068   9.060   5.194   5.141 -1.1043  0.2271  0.5451
  105bbb    H16 3069   9.219   5.185   5.217  0.2446  0.1051 -0.5775
  105bbb     C9 3070   9.116   4.539   4.874  0.6766 -0.3638  0.3587
  105bbb    H17 3071   9.052   4.523   4.961 -0.8798 -1.8391 -0.9885
  105bbb    H18 3072   9.136   4.435   4.845 -0.5283 -0.1598 -1.3816
  105bbb     O1 3073   9.519   4.499   5.377 -0.5914  0.1089 -0.8653
  106bbb     N1 3074  10.818   3.393   7.741  0.3701 -0.3953  0.0234
  106bbb     C1 3075  10.670   3.396   7.739 -0.1010 -0.3444  0.7667
  106bbb     H1 3076  10.642   3.294   7.712  2.4582 -0.8776 -0.1964
  106bbb     H2 3077  10.637   3.462   7.658  2.3999  1.4108  1.0652
  106bbb     C2 3078  10.873   3.324   7.863 -0.1885 -0.1041 -0.1672
  106bbb     H3 3079  10.832   3.371   7.953  2.4924 -1.6943  2.0442
  106bbb     H4 3080  10.977   3.355   7.881 -1.2514  2.6798  1.9167
  106bbb     C3 3081  10.868   3.356   7.607 -0.6810 -0.0639  0.6576
  106bbb     H5 3082  10.818   3.416   7.530  0.0761  2.0272  1.7033
  106bbb     H6 3083  10.853   3.249   7.592 -0.5634  0.2738 -2.4937
  106bbb     C4 3084  11.018   3.388   7.591  0.3376 -0.4134 -0.1785
  106bbb     H7 3085  11.073   3.333   7.668 -1.1023 -1.2442  0.2898
  106bbb     H8 3086  11.020   3.494   7.619 -1.3950 -0.3540 -0.1637
  106bbb     C5 3087  10.600   3.446   7.868 -0.3202  0.0499 -0.0508
  106bbb     H9 3088  10.622   3.552   7.886 -2.6367  0.9489 -1.9752
  106bbb    H10 3089  10.640   3.386   7.951 -2.2695 -0.9742  0.2075
  106bbb     C6 3090  10.845   3.172   7.870 -0.1015 -0.1303 -0.1461
  106bbb    H11 3091  10.753   3.145   7.816  0.1883  0.5976 -1.0323
  106bbb    H12 3092  10.823   3.155   7.976 -1.9047 -0.0149 -0.4760
  106bbb     C7 3093  11.083   3.357   7.458 -0.5182  0.3302  0.2532
  106bbb    H13 3094  11.181   3.405   7.446  0.7124 -1.6560  1.8064
  106bbb    H14 3095  11.015   3.381   7.375 -0.6695 -0.3541  0.1794
  106bbb     C8 3096  10.959   3.075   7.825 -0.3706  0.3828  0.4761
  106bbb    H15 3097  10.999   3.099   7.726 -0.5354 -0.6126  0.1545
  106bbb    H16 3098  10.933   2.969   7.809 -0.9829  0.7834 -1.3402
  106bbb     C9 3099  10.445   3.417   7.878  0.0635 -0.0573  0.5238
  106bbb    H17 3100  10.411   3.435   7.980 -2.5786  1.6584 -0.5509
  106bbb    H18 3101  10.414   3.316   7.846 -2.4119 -0.2474  3.1324
  106bbb     O1 3102  11.108   3.222   7.468  0.2391 -0.3737 -1.0242
  107bbb     N1 3103  11.665   3.418   7.503  0.4300  0.6708 -0.2738
  107bbb     C1 3104  11.753   3.438   7.622  0.4592  0.1068  0.0242
  107bbb     H1 3105  11.855   3.451   7.584  0.7838  0.8478  1.0970
  107bbb     H2 3106  11.748   3.347   7.684 -0.4336 -1.1443 -1.7901
  107bbb     C2 3107  11.643   3.538   7.411 -0.1848  0.4716 -0.4726
  107bbb     H3 3108  11.587   3.609   7.474 -0.2962 -1.1950  1.4053
  107bbb     H4 3109  11.584   3.511   7.323  1.4416 -2.4737 -0.7765
  107bbb     C3 3110  11.689   3.294   7.411  0.0203 -0.0374 -0.3854
  107bbb     H5 3111  11.770   3.312   7.338 -0.7554  3.0440 -0.6343
  107bbb     H6 3112  11.598   3.282   7.351  1.2619  1.7859 -2.8549
  107bbb     C4 3113  11.711   3.165   7.486  0.7356  0.1488 -0.8093
  107bbb     H7 3114  11.617   3.137   7.535  0.0777  1.0532 -1.5227
  107bbb     H8 3115  11.783   3.175   7.568  0.8807  1.4389 -1.0649
  107bbb     C5 3116  11.734   3.560   7.718 -0.0884 -0.3032  0.7741
  107bbb     H9 3117  11.629   3.564   7.750  0.0738  0.2829  1.2401
  107bbb    H10 3118  11.759   3.650   7.661  0.7063 -0.6002  0.6499
  107bbb     C6 3119  11.768   3.617   7.377 -0.5638 -0.2179 -0.5481
  107bbb    H11 3120  11.817   3.549   7.305 -1.4407 -0.5963 -0.8069
  107bbb    H12 3121  11.836   3.648   7.457 -1.1312  1.4701 -0.6736
  107bbb     C7 3122  11.747   3.058   7.389 -0.7260 -0.4238  0.3173
  107bbb    H13 3123  11.775   2.964   7.438  0.5328  0.7352  1.9595
  107bbb    H14 3124  11.823   3.086   7.315  0.9790 -0.2045  2.0808
  107bbb     C8 3125  11.742   3.757   7.317 -0.4983 -0.0091  0.9184
  107bbb    H15 3126  11.686   3.738   7.225  2.6898 -1.3014 -0.9513
  107bbb    H16 3127  11.842   3.792   7.287  1.2006 -4.3046  0.7642
  107bbb     C9 3128  11.825   3.538   7.846  0.5185 -0.0824 -0.4306
  107bbb    H17 3129  11.929   3.562   7.821  1.0635 -0.8212  1.0256
  107bbb    H18 3130  11.817   3.432   7.871  1.5233 -0.5084 -1.7909
  107bbb     O1 3131  11.626   3.042   7.321 -0.2681 -0.0754 -0.2733
  108bbb     N1 3132   9.284   2.390   6.284  0.1868  0.1082 -0.0287
  108bbb     C1 3133   9.139   2.400   6.325 -0.6649 -0.1169 -0.2252
  108bbb     H1 3134   9.121   2.470   6.408 -1.1857  0.8597 -1.1438
  108bbb     H2 3135   9.109   2.299   6.356 -0.4609 -0.0793  0.1051
  108bbb     C2 3136   9.321   2.288   6.185 -0.2647 -0.2636  0.3106
  108bbb     H3 3137   9.430   2.296   6.173 -0.3132 -0.2069 -0.1115
  108bbb     H4 3138   9.269   2.313   6.092 -1.6705 -0.3770  1.0365
  108bbb     C3 3139   9.342   2.523   6.252  0.1952 -0.6661 -0.3052
  108bbb     H5 3140   9.306   2.596   6.325  1.1125 -1.1190  0.6226
  108bbb     H6 3141   9.294   2.541   6.155 -0.5546  2.0141  0.4857
  108bbb     C4 3142   9.497   2.546   6.236  0.2451  0.1589 -0.2780
  108bbb     H7 3143   9.541   2.462   6.181 -1.1051 -0.7244 -0.0342
  108bbb     H8 3144   9.526   2.538   6.342 -0.2349  2.4589  0.0945
  108bbb     C5 3145   9.050   2.443   6.205 -0.0325 -0.1591  1.0324
  108bbb     H9 3146   9.092   2.391   6.119  2.4598  2.6540  0.4009
  108bbb    H10 3147   9.066   2.551   6.196 -0.3458 -0.1785  0.2087
  108bbb     C6 3148   9.286   2.149   6.228 -0.5045  0.1869 -0.2679
  108bbb    H11 3149   9.180   2.133   6.253 -1.0592  1.9616 -1.2489
  108bbb    H12 3150   9.326   2.140   6.330 -0.3119 -1.3354 -0.4590
  108bbb     C7 3151   9.547   2.681   6.185 -0.3283  0.7133  0.5096
  108bbb    H13 3152   9.507   2.766   6.242 -1.4234  1.9579 -1.9303
  108bbb    H14 3153   9.502   2.687   6.085  0.0544  0.3300  0.3135
  108bbb     C8 3154   9.331   2.038   6.125  0.4518  0.1610  0.3874
  108bbb    H15 3155   9.311   1.940   6.170 -0.1157  0.1630  0.1485
  108bbb    H16 3156   9.438   2.051   6.105  0.6358 -2.8431 -1.0980
  108bbb     C9 3157   8.897   2.416   6.221  0.4467  0.2463 -0.6815
  108bbb    H17 3158   8.851   2.460   6.132 -0.6582 -2.5854 -1.6417
  108bbb    H18 3159   8.870   2.466   6.315  1.9291  0.7514 -0.4971
  108bbb     O1 3160   9.690   2.677   6.185  0.0365 -0.5570 -0.1670
  109bbb     N1 3161   9.760   2.070   6.739 -0.9983  0.1639 -0.2749
  109bbb     C1 3162   9.681   2.069   6.865 -0.0158  0.7745 -0.1284
  109bbb     H1 3163   9.715   2.148   6.934  2.3177 -1.5851  1.6461
  109bbb     H2 3164   9.701   1.977   6.921  1.6470  0.6575 -0.8616
  109bbb     C2 3165   9.740   1.953   6.656 -0.0981 -0.1292  0.3592
  109bbb     H3 3166   9.633   1.929   6.656  0.3468 -2.3424 -0.7996
  109bbb     H4 3167   9.797   1.862   6.678 -0.5890 -0.0130  2.2122
  109bbb     C3 3168   9.900   2.115   6.759 -0.0265 -0.1854  0.0712
  109bbb     H5 3169   9.964   2.099   6.672  1.3781  1.4770  0.7457
  109bbb     H6 3170   9.949   2.047   6.830 -1.6891 -1.8321 -0.2724
  109bbb     C4 3171   9.918   2.259   6.799  0.0871 -0.3371 -0.0394
  109bbb     H7 3172  10.025   2.280   6.814  0.6372 -2.8828 -0.0006
  109bbb     H8 3173   9.867   2.284   6.893 -0.9695  0.9355 -0.9149
  109bbb     C5 3174   9.526   2.088   6.847  0.4836  0.5014  0.4385
  109bbb     H9 3175   9.495   2.116   6.948  0.2777 -0.9712  0.8048
  109bbb    H10 3176   9.473   1.992   6.838 -0.0527  0.8589 -0.4272
  109bbb     C6 3177   9.768   1.980   6.506 -1.4387 -0.4848  0.1633
  109bbb    H11 3178   9.757   1.882   6.459 -1.7791  0.3653 -1.6168
  109bbb    H12 3179   9.873   2.008   6.490 -1.2765 -1.7687 -1.2481
  109bbb     C7 3180   9.865   2.364   6.697  0.2872  0.3228 -0.4201
  109bbb    H13 3181   9.846   2.458   6.750 -1.0187  0.0796 -0.4229
  109bbb    H14 3182   9.766   2.338   6.659  0.2322  0.0187 -0.0759
  109bbb     C8 3183   9.661   2.076   6.439 -0.3289 -0.1244  0.1767
  109bbb    H15 3184   9.680   2.182   6.459  1.2714 -0.1579 -0.9588
  109bbb    H16 3185   9.570   2.050   6.495  0.0437  1.5272  1.6445
  109bbb     C9 3186   9.493   2.199   6.741 -0.0641 -0.1426 -0.0598
  109bbb    H17 3187   9.554   2.182   6.651  1.3076  0.5998  0.7017
  109bbb    H18 3188   9.522   2.294   6.786 -0.6927  0.2140 -0.3997
  109bbb     O1 3189   9.956   2.394   6.590 -0.0774 -0.1544  0.2997
  110bbb     N1 3190   7.681   6.004   5.741  0.0670 -0.8751  0.5354
  110bbb     C1 3191   7.721   6.098   5.849  0.0290 -0.8908  0.0299
  110bbb     H1 3192   7.751   6.037   5.935  1.0480  0.5448  0.7320
  110bbb     H2 3193   7.636   6.158   5.881  1.8481  1.9585 -0.1723
  110bbb     C2 3194   7.653   6.061   5.608  0.3271  0.2523  0.0891
  110bbb     H3 3195   7.635   5.980   5.536 -0.2294  1.3786 -1.0932
  110bbb     H4 3196   7.740   6.117   5.572  0.1338  0.8925  0.5913
  110bbb     C3 3197   7.572   5.910   5.788 -0.2161 -0.5455  0.3526
  110bbb     H5 3198   7.547   5.835   5.712  2.0640 -2.3054  1.2220
  110bbb     H6 3199   7.479   5.966   5.800 -0.3258 -1.1242  2.7288
  110bbb     C4 3200   7.594   5.834   5.917 -0.0284  0.7435  0.6031
  110bbb     H7 3201   7.517   5.755   5.918 -0.0435  0.6854 -1.2459
  110bbb     H8 3202   7.587   5.910   5.995 -2.1337  2.4039 -1.0708
  110bbb     C5 3203   7.847   6.186   5.815  0.0404 -0.2428 -0.1489
  110bbb     H9 3204   7.839   6.207   5.707 -1.6414 -0.0529 -0.0200
  110bbb    H10 3205   7.940   6.132   5.837 -0.3694 -0.8194  0.1828
  110bbb     C6 3206   7.525   6.145   5.606 -0.1193  0.1485  0.5661
  110bbb    H11 3207   7.525   6.211   5.693  1.4294  1.1169 -0.1268
  110bbb    H12 3208   7.434   6.084   5.610 -0.2594  0.3008 -0.2145
  110bbb     C7 3209   7.730   5.754   5.915  0.0666  0.3545 -0.5927
  110bbb    H13 3210   7.799   5.835   5.886  1.0245  0.4691  1.7796
  110bbb    H14 3211   7.733   5.669   5.847 -0.4090 -0.4016  0.3067
  110bbb     C8 3212   7.505   6.231   5.480  0.4375 -0.2919  0.8785
  110bbb    H15 3213   7.411   6.287   5.482  0.4625  0.2778 -3.5874
  110bbb    H16 3214   7.490   6.158   5.399 -0.3309  0.3568  0.4289
  110bbb     C9 3215   7.853   6.326   5.887 -0.1297  0.1787  0.1102
  110bbb    H17 3216   7.956   6.362   5.876 -0.3223  0.7700  0.2157
  110bbb    H18 3217   7.835   6.319   5.995 -3.6030 -0.6413 -0.4138
  110bbb     O1 3218   7.757   5.710   6.046 -0.4835  0.4244  0.4488
  111bbb     N1 3219   7.151   5.836   6.985 -0.2218  0.0949 -0.0612
  111bbb     C1 3220   7.108   5.943   7.078 -0.2929 -0.1102  0.1295
  111bbb     H1 3221   7.025   5.983   7.018  0.1932  0.9232  0.1278
  111bbb     H2 3222   7.185   6.018   7.098  0.3906 -1.2832  2.1529
  111bbb     C2 3223   7.047   5.757   6.917  0.9800  0.1732  0.0378
  111bbb     H3 3224   7.080   5.729   6.817  0.2163 -1.0088  0.0956
  111bbb     H4 3225   6.950   5.808   6.911 -0.5273 -2.4918  0.1316
  111bbb     C3 3226   7.249   5.887   6.888  0.0880  0.1814  0.5664
  111bbb     H5 3227   7.321   5.939   6.952 -1.9356  3.0002  0.7385
  111bbb     H6 3228   7.206   5.969   6.828 -2.0556 -0.1365  1.5566
  111bbb     C4 3229   7.333   5.779   6.820  0.4531  0.2470  0.3728
  111bbb     H7 3230   7.279   5.749   6.730  0.0686  1.7726  0.0562
  111bbb     H8 3231   7.339   5.694   6.888  0.5527 -0.7194 -0.7989
  111bbb     C5 3232   7.048   5.885   7.210  0.0905 -0.3120  0.1473
  111bbb     H9 3233   6.967   5.814   7.188  0.5480 -0.9862  0.6071
  111bbb    H10 3234   7.000   5.963   7.270  1.6140 -0.8571  2.2087
  111bbb     C6 3235   7.006   5.628   6.987  1.0847  0.2884 -0.0946
  111bbb    H11 3236   7.029   5.640   7.094  1.9361  1.3609 -0.3645
  111bbb    H12 3237   7.075   5.550   6.952  1.9272  0.9098  0.1238
  111bbb     C7 3238   7.471   5.839   6.773  0.3576 -0.1364 -0.0077
  111bbb    H13 3239   7.535   5.876   6.853 -1.9813  0.7341  1.5842
  111bbb    H14 3240   7.457   5.921   6.701  1.9164  0.5765  0.4673
  111bbb     C8 3241   6.856   5.592   6.962 -0.3173  0.4492 -0.5534
  111bbb    H15 3242   6.789   5.663   7.013  0.2663  0.1077  0.7343
  111bbb    H16 3243   6.839   5.499   7.017 -2.5289 -0.0734 -1.9918
  111bbb     C9 3244   7.153   5.812   7.304 -0.5337 -0.0058 -0.1753
  111bbb    H17 3245   7.254   5.847   7.279  0.3562 -0.7293  2.1408
  111bbb    H18 3246   7.151   5.704   7.283 -0.0272  0.1458 -1.0262
  111bbb     O1 3247   7.535   5.736   6.705  0.1044  0.0390  0.1400
  112bbb     N1 3248   8.286   6.785   6.572 -0.0285 -0.0586  0.1993
  112bbb     C1 3249   8.262   6.810   6.434  1.0140 -0.3030  0.7910
  112bbb     H1 3250   8.186   6.740   6.398  0.8495  1.1296 -1.8806
  112bbb     H2 3251   8.352   6.794   6.373  0.9184  1.6883  0.0801
  112bbb     C2 3252   8.384   6.881   6.629 -0.0408 -0.0166 -0.4834
  112bbb     H3 3253   8.398   6.852   6.734 -3.1805  0.9544  0.3242
  112bbb     H4 3254   8.330   6.976   6.641 -2.8509 -1.6600  0.7639
  112bbb     C3 3255   8.323   6.646   6.609  0.0103  0.4077  0.0220
  112bbb     H5 3256   8.351   6.640   6.715  0.4246 -1.1415 -0.1503
  112bbb     H6 3257   8.407   6.603   6.554  0.1963  1.3059 -0.4084
  112bbb     C4 3258   8.195   6.563   6.586 -0.4642  0.8705 -0.4081
  112bbb     H7 3259   8.171   6.550   6.480  0.6861 -1.0481 -0.4760
  112bbb     H8 3260   8.109   6.617   6.628 -0.6578  1.3316 -1.3779
  112bbb     C5 3261   8.210   6.952   6.404  0.1824  0.1523  1.0058
  112bbb     H9 3262   8.292   7.019   6.429 -0.5882  0.8912  1.5987
  112bbb    H10 3263   8.119   6.978   6.460 -2.3267 -1.8397 -1.8008
  112bbb     C6 3264   8.523   6.903   6.561  0.2008 -0.0462  0.5349
  112bbb    H11 3265   8.510   6.898   6.453 -0.0375 -1.4587  0.6161
  112bbb    H12 3266   8.586   6.821   6.598  0.8780  0.3039  0.1853
  112bbb     C7 3267   8.214   6.422   6.652 -0.7888  0.3978 -0.7252
  112bbb    H13 3268   8.311   6.382   6.620  1.3022  3.5088  1.2058
  112bbb    H14 3269   8.129   6.354   6.636 -2.5082  2.3065 -0.1433
  112bbb     C8 3270   8.585   7.045   6.609  0.2868 -0.1585  0.0294
  112bbb    H15 3271   8.682   7.059   6.560  0.1878 -1.5875 -0.6377
  112bbb    H16 3272   8.594   7.050   6.718  1.3198  2.8553 -0.1049
  112bbb     C9 3273   8.164   6.964   6.255  0.0779 -0.1830 -1.0414
  112bbb    H17 3274   8.122   7.065   6.245  0.6173  0.1974  0.3050
  112bbb    H18 3275   8.081   6.894   6.241  0.4301 -0.5043 -1.5230
  112bbb     O1 3276   8.223   6.437   6.792  0.2125 -0.1520  0.2621
  113bbb     N1 3277   9.126   6.409   6.448 -0.6587  0.6264 -1.3108
  113bbb     C1 3278   9.209   6.481   6.358 -0.9220 -0.3137  0.4508
  113bbb     H1 3279   9.257   6.567   6.407  2.9108 -2.2717  0.5427
  113bbb     H2 3280   9.146   6.529   6.282  0.6263  0.0902 -0.6543
  113bbb     C2 3281   9.198   6.366   6.577  0.1910 -0.1835 -0.4534
  113bbb     H3 3282   9.209   6.448   6.649  0.6399  0.8593 -1.6636
  113bbb     H4 3283   9.296   6.323   6.551 -0.8227 -3.1615  0.3052
  113bbb     C3 3284   8.994   6.473   6.464  0.2331 -0.0528 -0.5307
  113bbb     H5 3285   8.925   6.408   6.518  0.1322  1.9478  1.9804
  113bbb     H6 3286   8.944   6.492   6.368 -0.9244  1.0993  0.2690
  113bbb     C4 3287   8.996   6.613   6.535 -0.0457  0.7281 -0.7621
  113bbb     H7 3288   9.059   6.672   6.468 -0.4201  0.1538 -1.6326
  113bbb     H8 3289   9.051   6.616   6.630 -1.7529 -0.8285  0.3412
  113bbb     C5 3290   9.309   6.391   6.284 -1.1594  0.5520  0.1978
  113bbb     H9 3291   9.253   6.310   6.235  1.7240 -0.8406 -1.0562
  113bbb    H10 3292   9.387   6.340   6.343  0.3602  1.7538 -0.6792
  113bbb     C6 3293   9.121   6.266   6.657 -0.3615  0.3494  0.1056
  113bbb    H11 3294   9.112   6.180   6.589 -1.6907  1.4921 -1.1974
  113bbb    H12 3295   9.014   6.283   6.667 -0.9101 -1.9962 -0.9718
  113bbb     C7 3296   8.862   6.689   6.562 -0.2025  0.0277  0.3718
  113bbb    H13 3297   8.829   6.735   6.468 -2.2405 -1.2640  0.3834
  113bbb    H14 3298   8.889   6.774   6.625 -0.1817  1.6530 -1.7342
  113bbb     C8 3299   9.189   6.231   6.788  0.0169 -0.0780  0.8136
  113bbb    H15 3300   9.214   6.319   6.848 -0.0488 -1.1190  2.4231
  113bbb    H16 3301   9.286   6.188   6.760 -0.5399 -1.5263  1.0260
  113bbb     C9 3302   9.387   6.476   6.177 -0.5894  0.1770 -0.0521
  113bbb    H17 3303   9.438   6.561   6.224 -0.6685 -2.0445  4.7537
  113bbb    H18 3304   9.310   6.523   6.115 -1.0131  0.4790  0.6920
  113bbb     O1 3305   8.757   6.604   6.608  0.7615  0.8462 -0.4321
  114bbb     N1 3306   7.980   5.805   7.789 -0.0815 -0.1500 -0.2083
  114bbb     C1 3307   7.846   5.738   7.788 -0.0821 -0.1855  0.1245
  114bbb     H1 3308   7.847   5.633   7.822  3.0115 -0.7968 -1.4803
  114bbb     H2 3309   7.813   5.729   7.684  0.4391 -0.6762 -0.0039
  114bbb     C2 3310   7.977   5.951   7.751 -0.5723 -0.5087 -0.1357
  114bbb     H3 3311   7.908   6.006   7.816 -1.3568  1.0843 -2.2182
  114bbb     H4 3312   7.941   5.962   7.648 -0.3875 -0.9731 -0.2539
  114bbb     C3 3313   8.091   5.727   7.733 -0.8692 -0.2551 -0.1560
  114bbb     H5 3314   8.099   5.631   7.786  1.0886  0.9412  1.8492
  114bbb     H6 3315   8.188   5.767   7.764 -0.9866 -0.9943  1.2522
  114bbb     C4 3316   8.080   5.699   7.577  0.1009 -0.1312 -0.4036
  114bbb     H7 3317   8.074   5.798   7.531  1.8955 -0.2338 -0.9444
  114bbb     H8 3318   7.979   5.667   7.549 -0.2762  1.2334 -0.6664
  114bbb     C5 3319   7.735   5.815   7.867 -0.7744  0.6178 -0.4241
  114bbb     H9 3320   7.785   5.873   7.946 -0.4211  0.3004 -0.4099
  114bbb    H10 3321   7.675   5.740   7.920  1.2418  1.1304  2.8685
  114bbb     C6 3322   8.115   6.032   7.742  0.6578  0.1479 -0.1893
  114bbb    H11 3323   8.091   6.134   7.711  0.3403 -0.0019 -0.4398
  114bbb    H12 3324   8.187   5.986   7.673  1.0489 -0.1572  0.4131
  114bbb     C7 3325   8.192   5.614   7.512  0.3195 -1.0094  0.0924
  114bbb    H13 3326   8.190   5.600   7.404  0.3875  0.4483 -0.1240
  114bbb    H14 3327   8.176   5.517   7.560 -1.4869 -1.0807 -0.5768
  114bbb     C8 3328   8.175   6.044   7.888  0.5408 -0.2400  0.3572
  114bbb    H15 3329   8.277   6.084   7.886  0.7970 -0.7769  1.7764
  114bbb    H16 3330   8.172   5.944   7.933 -0.3589 -0.9933 -1.2498
  114bbb     C9 3331   7.640   5.887   7.767 -0.4931 -0.2208  0.5553
  114bbb    H17 3332   7.564   5.818   7.729 -1.9943  0.9076  1.3821
  114bbb    H18 3333   7.697   5.933   7.686 -1.3479 -0.1074  0.0074
  114bbb     O1 3334   8.315   5.673   7.551  0.2393  0.2266  0.5098
  115bbb     N1 3335   8.501   6.267   7.568  0.6702 -0.1419  0.5048
  115bbb     C1 3336   8.382   6.182   7.537 -0.0881 -0.0072 -0.0654
  115bbb     H1 3337   8.294   6.247   7.544  0.2620  0.5780 -0.9211
  115bbb     H2 3338   8.374   6.100   7.609  1.1779 -1.6275 -1.6729
  115bbb     C2 3339   8.471   6.335   7.698 -0.6010 -0.5380 -0.9786
  115bbb     H3 3340   8.560   6.391   7.729 -2.1730  0.5378  2.0437
  115bbb     H4 3341   8.443   6.260   7.774 -1.5016  2.0032  1.3856
  115bbb     C3 3342   8.621   6.186   7.579 -0.2050  0.1809 -0.7018
  115bbb     H5 3343   8.633   6.103   7.508  0.9126 -0.1086 -0.2067
  115bbb     H6 3344   8.624   6.138   7.678  1.1382  1.0943 -0.2751
  115bbb     C4 3345   8.746   6.271   7.560 -0.2043  0.0156  0.3268
  115bbb     H7 3346   8.736   6.348   7.637 -1.7144  1.0924 -0.8775
  115bbb     H8 3347   8.727   6.325   7.467 -1.5216 -0.6444  0.1813
  115bbb     C5 3348   8.377   6.117   7.397 -0.2929 -0.5885  0.3703
  115bbb     H9 3349   8.463   6.051   7.383  0.3917  0.6515 -1.8979
  115bbb    H10 3350   8.391   6.189   7.315 -0.3102 -1.6611 -0.5952
  115bbb     C6 3351   8.361   6.441   7.703  0.4678  0.1073 -0.4372
  115bbb    H11 3352   8.282   6.400   7.768 -0.1523 -0.0337 -1.2649
  115bbb    H12 3353   8.331   6.456   7.599  0.9444 -2.5008 -1.0109
  115bbb     C7 3354   8.869   6.195   7.550 -0.1976  0.0588  0.4827
  115bbb    H13 3355   8.879   6.135   7.641  3.5218  0.5723  0.5560
  115bbb    H14 3356   8.958   6.258   7.553 -0.9539  1.1340  0.9699
  115bbb     C8 3357   8.407   6.572   7.767 -0.7603 -0.4627 -0.0624
  115bbb    H15 3358   8.489   6.609   7.704 -0.3376  2.2123  1.8875
  115bbb    H16 3359   8.443   6.562   7.870 -2.2407  1.2389  0.6795
  115bbb     C9 3360   8.245   6.042   7.368 -0.6831  0.0439  0.6716
  115bbb    H17 3361   8.245   5.943   7.416 -1.7923 -1.4045 -2.0577
  115bbb    H18 3362   8.250   6.036   7.259  0.4527  0.8871  0.6563
  115bbb     O1 3363   8.870   6.096   7.437 -0.3891  0.1013 -0.1716
  116bbb     N1 3364   9.000   6.345   7.978  0.8021 -0.2318 -0.1135
  116bbb     C1 3365   9.079   6.260   7.889  0.4598  0.2164  0.0767
  116bbb     H1 3366   9.183   6.270   7.920  0.3529  0.9097  0.2292
  116bbb     H2 3367   9.077   6.294   7.784 -3.2925  0.8203  0.1941
  116bbb     C2 3368   9.076   6.456   8.043 -0.0543 -0.7426  0.1411
  116bbb     H3 3369   9.008   6.529   8.089  0.9733  0.2136  0.1794
  116bbb     H4 3370   9.136   6.499   7.962  3.3484 -3.7837  0.7911
  116bbb     C3 3371   8.867   6.382   7.921  0.4707 -0.3374  0.5350
  116bbb     H5 3372   8.839   6.320   7.835  1.1494  1.9052 -1.4078
  116bbb     H6 3373   8.860   6.483   7.879 -0.7306 -0.3291  0.7243
  116bbb     C4 3374   8.751   6.377   8.016  0.4046  0.5383 -1.1059
  116bbb     H7 3375   8.674   6.442   7.975  0.0705  1.3514  0.7378
  116bbb     H8 3376   8.786   6.427   8.107  0.0387 -2.8241  1.0552
  116bbb     C5 3377   9.036   6.108   7.901 -0.2586 -0.1221  0.3620
  116bbb     H9 3378   9.071   6.072   7.803  1.1626  0.9564  0.4391
  116bbb    H10 3379   8.927   6.100   7.893 -0.1840  0.6843 -2.9088
  116bbb     C6 3380   9.178   6.409   8.147  1.2817 -0.5719 -0.0626
  116bbb    H11 3381   9.246   6.334   8.105  0.0132 -1.4703 -0.5784
  116bbb    H12 3382   9.116   6.346   8.212 -1.1343  0.2932 -1.3955
  116bbb     C7 3383   8.707   6.228   8.059 -0.0608  0.6419 -0.0792
  116bbb    H13 3384   8.629   6.225   8.136  1.9942  0.7027  2.1125
  116bbb    H14 3385   8.802   6.189   8.095  1.0491  2.8357 -0.4736
  116bbb     C8 3386   9.255   6.523   8.216 -0.0517 -0.3268  0.1459
  116bbb    H15 3387   9.202   6.616   8.192 -1.8180 -0.5840  2.6499
  116bbb    H16 3388   9.358   6.526   8.178 -0.7184 -0.8728 -1.8255
  116bbb     C9 3389   9.095   6.042   8.026 -0.1015 -0.3620  0.7110
  116bbb    H17 3390   9.040   6.063   8.118 -2.2204  0.9073 -0.7760
  116bbb    H18 3391   9.194   6.085   8.047  0.5476 -1.2513 -0.3970
  116bbb     O1 3392   8.658   6.174   7.938 -0.2250 -0.2801 -0.4590
  117bbb     N1 3393   8.928   6.140   8.474  0.6417  0.5617  0.7502
  117bbb     C1 3394   8.889   6.265   8.402 -0.6973 -0.1410 -0.5720
  117bbb     H1 3395   8.780   6.266   8.389 -1.0273  1.1337  1.8280
  117bbb     H2 3396   8.930   6.261   8.300  0.6065 -0.4155 -0.0510
  117bbb     C2 3397   9.078   6.130   8.504  0.3403  0.2184 -0.7288
  117bbb     H3 3398   9.097   6.068   8.593  0.5875  0.6377 -0.4862
  117bbb     H4 3399   9.118   6.225   8.542  0.9813 -0.9854  1.8558
  117bbb     C3 3400   8.883   6.010   8.404 -0.5961 -0.3876 -0.8940
  117bbb     H5 3401   8.949   5.979   8.322  0.7301  0.6263 -0.2361
  117bbb     H6 3402   8.783   6.021   8.360  0.1652  1.6394 -2.2585
  117bbb     C4 3403   8.892   5.888   8.505 -0.2386 -0.0693 -0.1960
  117bbb     H7 3404   8.837   5.915   8.596 -1.9734  2.0106 -1.7485
  117bbb     H8 3405   8.997   5.877   8.537 -0.0854  1.3266 -0.1142
  117bbb     C5 3406   8.922   6.396   8.477 -0.7731  0.0185  0.1373
  117bbb     H9 3407   9.029   6.419   8.477 -0.8711  0.4800 -0.0843
  117bbb    H10 3408   8.895   6.387   8.583  0.9675  1.3349  0.7403
  117bbb     C6 3409   9.177   6.083   8.397 -0.1991 -0.5178  0.3594
  117bbb    H11 3410   9.174   6.153   8.313 -1.8748 -0.1386  0.6924
  117bbb    H12 3411   9.151   5.983   8.358  0.3786  0.4616 -2.8147
  117bbb     C7 3412   8.830   5.756   8.456  0.7552  0.4056  0.3577
  117bbb    H13 3413   8.862   5.665   8.508 -0.1126  0.6903  1.4426
  117bbb    H14 3414   8.860   5.746   8.351  0.2377  0.8194  0.1662
  117bbb     C8 3415   9.322   6.085   8.445 -0.3729  0.5999  0.0140
  117bbb    H15 3416   9.355   6.186   8.471 -1.2348  0.5067  1.5555
  117bbb    H16 3417   9.376   6.050   8.356 -1.4718  0.5903 -0.6702
  117bbb     C9 3418   8.849   6.505   8.398  0.4505 -0.5219 -0.3330
  117bbb    H17 3419   8.886   6.490   8.296  1.7412 -5.6261  0.5710
  117bbb    H18 3420   8.872   6.605   8.437  0.7432 -0.1499 -1.4197
  117bbb     O1 3421   8.693   5.764   8.478  0.5893 -0.2488 -0.1658
  118bbb     N1 3422   7.897   3.116   7.664 -0.4656  0.1537 -0.1340
  118bbb     C1 3423   7.780   3.060   7.724 -0.5090  0.2386 -0.3007
  118bbb     H1 3424   7.719   3.144   7.762  1.4762  0.7420  1.9977
  118bbb     H2 3425   7.808   2.990   7.803 -0.3066 -0.6860 -1.1798
  118bbb     C2 3426   8.000   3.016   7.627 -0.3796  0.5624  0.1890
  118bbb     H3 3427   7.967   2.912   7.617  0.5155  0.2884 -0.0578
  118bbb     H4 3428   8.072   3.012   7.710 -0.4965  2.3013  0.4200
  118bbb     C3 3429   7.963   3.223   7.744  0.0392 -0.4713  0.4383
  118bbb     H5 3430   8.056   3.250   7.694 -0.4070  0.5019  0.1212
  118bbb     H6 3431   8.002   3.182   7.838  2.8326  1.3488  0.1843
  118bbb     C4 3432   7.862   3.342   7.754 -0.7142  0.2353 -0.2991
  118bbb     H7 3433   7.780   3.321   7.824 -0.8019  0.3819 -0.3570
  118bbb     H8 3434   7.820   3.370   7.657  0.7669  1.1334 -0.7249
  118bbb     C5 3435   7.690   2.988   7.620 -0.0484  0.2611  0.3305
  118bbb     H9 3436   7.608   2.942   7.675 -0.2486  0.1336 -0.0727
  118bbb    H10 3437   7.753   2.915   7.567  1.6152  1.3529  0.7044
  118bbb     C6 3438   8.078   3.056   7.504  0.6998 -0.3882 -0.6584
  118bbb    H11 3439   8.098   3.164   7.512  1.5537 -0.5617 -0.4556
  118bbb    H12 3440   8.016   3.051   7.413  0.8441 -1.0409 -0.7244
  118bbb     C7 3441   7.944   3.461   7.810 -0.0615 -0.6206  0.2278
  118bbb    H13 3442   7.872   3.543   7.818 -0.8737 -1.2699 -0.2984
  118bbb    H14 3443   8.028   3.484   7.742 -1.4542  1.3306 -0.9113
  118bbb     C8 3444   8.210   2.977   7.485 -0.0484 -0.3241 -0.7012
  118bbb    H15 3445   8.185   2.871   7.492  0.9053 -0.4738  0.9720
  118bbb    H16 3446   8.277   2.989   7.571 -0.1130 -1.7084 -0.4433
  118bbb     C9 3447   7.621   3.083   7.520  0.2863 -0.3721  1.2210
  118bbb    H17 3448   7.697   3.145   7.472 -0.2418  0.2617  1.1902
  118bbb    H18 3449   7.549   3.149   7.569  1.3109  2.5048 -0.8917
  118bbb     O1 3450   7.991   3.413   7.936 -1.0090 -0.0427  0.0818
  119bbb     N1 3451   9.411   3.178   7.939  0.2417 -0.0976  0.6676
  119bbb     C1 3452   9.469   3.060   8.003 -1.0216 -0.0341  0.0889
  119bbb     H1 3453   9.439   2.969   7.950 -0.1954 -0.9600  1.1690
  119bbb     H2 3454   9.436   3.069   8.107  2.1282 -2.4364  1.4687
  119bbb     C2 3455   9.441   3.184   7.798  0.5062 -0.1700  0.4176
  119bbb     H3 3456   9.545   3.157   7.778  0.5903 -0.9744  1.8134
  119bbb     H4 3457   9.427   3.292   7.782 -2.2654 -0.5775 -0.4500
  119bbb     C3 3458   9.265   3.208   7.977 -0.1584  0.7564 -0.5387
  119bbb     H5 3459   9.260   3.201   8.086  0.6399 -1.7879 -0.5934
  119bbb     H6 3460   9.194   3.129   7.952  0.2809 -0.8641  2.7256
  119bbb     C4 3461   9.222   3.348   7.929  0.4464 -0.0768  0.2163
  119bbb     H7 3462   9.224   3.355   7.819  0.7737 -1.9296  0.0725
  119bbb     H8 3463   9.287   3.433   7.956  0.1216  0.8930 -1.8353
  119bbb     C5 3464   9.620   3.062   8.019  0.7628 -0.4127  0.5551
  119bbb     H9 3465   9.636   3.155   8.075  1.4348  0.5491 -1.1543
  119bbb    H10 3466   9.668   3.087   7.924  0.7290  4.3831  1.5311
  119bbb     C6 3467   9.352   3.106   7.705 -0.0067  0.8258  0.0637
  119bbb    H11 3468   9.247   3.131   7.720 -1.0067 -3.3123  0.9702
  119bbb    H12 3469   9.349   3.000   7.729  2.1826  0.6328 -0.2671
  119bbb     C7 3470   9.090   3.386   7.999  0.6205 -0.4240  0.0318
  119bbb    H13 3471   9.081   3.495   8.000  0.0743 -0.4347 -1.2036
  119bbb    H14 3472   9.100   3.350   8.102  1.3862 -0.1948  0.0404
  119bbb     C8 3473   9.389   3.114   7.555 -0.2904  0.1126 -0.4201
  119bbb    H15 3474   9.492   3.080   7.536  0.2761  0.6773  1.4510
  119bbb    H16 3475   9.379   3.218   7.521 -2.7183 -0.1988 -0.8373
  119bbb     C9 3476   9.698   2.943   8.080 -0.1775 -0.1384  0.3969
  119bbb    H17 3477   9.692   2.933   8.189  2.7180  1.3751  0.7848
  119bbb    H18 3478   9.804   2.965   8.063 -0.6398  0.6575 -1.7460
  119bbb     O1 3479   8.975   3.316   7.933 -0.2260  0.3039 -1.4615
  120bbb     N1 3480   7.111   5.171   6.796  0.1744  0.1022 -0.1486
  120bbb     C1 3481   7.024   5.218   6.912 -0.7616  0.4305  0.8068
  120bbb     H1 3482   6.988   5.318   6.885 -2.2163 -0.3465 -0.2705
  120bbb     H2 3483   7.084   5.217   7.004  1.5367  2.5428 -0.5521
  120bbb     C2 3484   7.199   5.274   6.738 -0.6972  0.0739 -0.1020
  120bbb     H3 3485   7.144   5.356   6.689 -1.1434 -1.0211 -1.5069
  120bbb     H4 3486   7.255   5.218   6.662 -1.6984 -1.4458  0.2300
  120bbb     C3 3487   7.182   5.038   6.823  0.1895  0.0548 -0.0658
  120bbb     H5 3488   7.115   4.959   6.859  2.0788 -0.7756  1.8897
  120bbb     H6 3489   7.241   5.043   6.916 -0.9240 -0.5263  0.6913
  120bbb     C4 3490   7.259   4.975   6.708  0.5289  0.0762 -0.6089
  120bbb     H7 3491   7.359   5.018   6.698  1.9177 -3.0184 -1.4226
  120bbb     H8 3492   7.218   4.998   6.608 -1.9148  2.5911  0.8235
  120bbb     C5 3493   6.898   5.123   6.937  0.7901 -0.3947  0.2481
  120bbb     H9 3494   6.936   5.022   6.957  0.0812 -0.5525  0.8160
  120bbb    H10 3495   6.833   5.125   6.849 -0.3885  2.3543  1.0700
  120bbb     C6 3496   7.297   5.332   6.838  0.0056 -0.2713 -0.0859
  120bbb    H11 3497   7.308   5.261   6.920 -0.6557 -2.6558 -1.9486
  120bbb    H12 3498   7.241   5.417   6.880 -0.3974  0.2690 -1.6432
  120bbb     C7 3499   7.274   4.821   6.741 -0.6734 -0.4754 -0.1342
  120bbb    H13 3500   7.277   4.750   6.657 -2.1256 -3.3286  2.0108
  120bbb    H14 3501   7.185   4.785   6.795  0.2260 -0.3379  1.4874
  120bbb     C8 3502   7.441   5.374   6.784  0.0798 -0.0016  0.4909
  120bbb    H15 3503   7.501   5.422   6.862 -2.7549  1.0911  2.1557
  120bbb    H16 3504   7.441   5.443   6.698  2.1178  0.2063  0.6112
  120bbb     C9 3505   6.801   5.173   7.049  0.7870 -0.0842  0.2168
  120bbb    H17 3506   6.706   5.119   7.048  1.4654 -1.3242  0.4920
  120bbb    H18 3507   6.780   5.275   7.016 -1.9065 -1.2348 -2.0959
  120bbb     O1 3508   7.387   4.798   6.829  0.3170 -0.1389 -0.2683
  121bbb     N1 3509   7.962   4.405   6.158 -0.4792  0.5015  1.2132
  121bbb     C1 3510   8.094   4.405   6.083 -0.3060  0.3787 -0.0676
  121bbb     H1 3511   8.178   4.376   6.146  0.8552  1.3904 -1.0904
  121bbb     H2 3512   8.128   4.506   6.056 -0.3079  0.8686  1.6570
  121bbb     C2 3513   7.845   4.458   6.089  0.2393 -0.5877 -0.0661
  121bbb     H3 3514   7.754   4.437   6.147  0.9775 -0.9800  0.9742
  121bbb     H4 3515   7.829   4.404   5.995  1.3331 -0.5874 -0.2563
  121bbb     C3 3516   7.932   4.281   6.228 -0.6528 -0.0100  0.0083
  121bbb     H5 3517   8.025   4.241   6.269 -1.1525 -0.1750  1.0222
  121bbb     H6 3518   7.895   4.204   6.160  1.1241  0.2258 -1.2880
  121bbb     C4 3519   7.858   4.295   6.367 -0.3271 -0.0385  0.0162
  121bbb     H7 3520   7.850   4.197   6.416  0.0824 -0.0844 -0.0011
  121bbb     H8 3521   7.758   4.320   6.332 -0.1230 -0.6584 -1.0684
  121bbb     C5 3522   8.091   4.322   5.955  0.0891  0.7072 -0.0673
  121bbb     H9 3523   8.043   4.379   5.874 -1.5510 -0.5888 -0.0651
  121bbb    H10 3524   8.022   4.237   5.965 -0.2414  1.0475  0.5149
  121bbb     C6 3525   7.856   4.605   6.048  0.6663  0.0110  0.4203
  121bbb    H11 3526   7.769   4.628   5.985  0.6333  1.5909  0.9929
  121bbb    H12 3527   7.953   4.625   6.000  0.6895 -0.2917  0.3432
  121bbb     C7 3528   7.914   4.402   6.457 -0.1237  0.0496 -0.1728
  121bbb    H13 3529   7.883   4.490   6.400  0.6986  0.1906 -0.4147
  121bbb    H14 3530   8.021   4.386   6.474  0.0668  0.5278 -0.8717
  121bbb     C8 3531   7.850   4.703   6.164 -0.4784  0.1242  0.3828
  121bbb    H15 3532   7.943   4.682   6.219  0.0174  0.3449 -0.3516
  121bbb    H16 3533   7.765   4.676   6.226  0.3736 -0.3610  1.3699
  121bbb     C9 3534   8.232   4.274   5.920  0.6376 -0.1845  0.1732
  121bbb    H17 3535   8.231   4.219   5.825  0.0500  0.8400 -0.4330
  121bbb    H18 3536   8.268   4.213   6.004  0.8646  1.5679  1.3845
  121bbb     O1 3537   7.844   4.400   6.580  0.5527  0.3467 -0.0244
  122bbb     N1 3538   8.901   2.477   9.071 -0.1009  0.6890 -0.3725
  122bbb     C1 3539   9.008   2.586   9.073  0.4274  0.3891  1.2685
  122bbb     H1 3540   9.044   2.600   8.970 -0.2130  2.0543  1.2426
  122bbb     H2 3541   9.097   2.535   9.113  0.7753 -0.0494 -0.0232
  122bbb     C2 3542   8.869   2.411   9.200 -0.4714 -0.8394  0.7647
  122bbb     H3 3543   8.809   2.329   9.159  0.1354 -0.8586 -0.1131
  122bbb     H4 3544   8.799   2.472   9.258  0.1800  2.6076 -1.7324
  122bbb     C3 3545   8.773   2.521   9.006  0.3483 -0.0163 -0.3175
  122bbb     H5 3546   8.735   2.598   9.073 -0.8684 -0.2889 -0.6678
  122bbb     H6 3547   8.703   2.437   9.015  1.3161 -1.2229 -2.9644
  122bbb     C4 3548   8.785   2.561   8.857  0.1491  0.0294 -0.4195
  122bbb     H7 3549   8.851   2.493   8.803  0.3310  0.3650 -0.6193
  122bbb     H8 3550   8.833   2.659   8.846 -0.6942  0.6508  1.0276
  122bbb     C5 3551   8.983   2.712   9.144  1.3432  0.3507  0.7034
  122bbb     H9 3552   8.937   2.705   9.243  0.4532  0.0581  0.2800
  122bbb    H10 3553   8.909   2.767   9.085 -1.9116 -2.3974  1.9436
  122bbb     C6 3554   8.980   2.362   9.292 -0.1794  1.0822 -0.3443
  122bbb    H11 3555   8.938   2.324   9.386 -0.1544  0.4273 -0.5953
  122bbb    H12 3556   9.038   2.447   9.331  2.4722 -1.2682  1.1601
  122bbb     C7 3557   8.646   2.550   8.791  0.0680 -0.1078 -0.1671
  122bbb    H13 3558   8.602   2.455   8.825 -1.9551  0.4516 -1.1257
  122bbb    H14 3559   8.643   2.551   8.682 -1.0336  0.5020 -0.1408
  122bbb     C8 3560   9.065   2.258   9.217 -0.1039  0.2595  0.0738
  122bbb    H15 3561   9.146   2.220   9.281  1.2362  0.4628 -1.4423
  122bbb    H16 3562   9.115   2.312   9.136 -2.4995  0.3746 -1.4326
  122bbb     C9 3563   9.114   2.788   9.147 -0.3843 -0.4058  0.3052
  122bbb    H17 3564   9.200   2.722   9.166 -1.6008 -1.6469  1.7016
  122bbb    H18 3565   9.097   2.867   9.222 -2.6395 -2.2229  1.8383
  122bbb     O1 3566   8.555   2.647   8.850 -0.4835 -0.6160 -0.0209
  123bbb     N1 3567   7.845   2.417   8.805  0.0465 -0.6630 -0.4656
  123bbb     C1 3568   7.844   2.352   8.674 -0.0039 -0.3972 -0.4013
  123bbb     H1 3569   7.855   2.244   8.691  2.3181  0.0454  1.4713
  123bbb     H2 3570   7.929   2.381   8.613  0.7436 -0.5696  0.5355
  123bbb     C2 3571   7.971   2.403   8.875  0.4047 -0.4267 -0.3096
  123bbb     H3 3572   7.975   2.467   8.963  0.7768  1.3303 -1.5413
  123bbb     H4 3573   8.048   2.436   8.804 -0.3892 -0.8236 -1.3869
  123bbb     C3 3574   7.805   2.556   8.792 -0.1885  0.2732 -0.2015
  123bbb     H5 3575   7.706   2.559   8.744  0.8437 -0.2147 -2.4955
  123bbb     H6 3576   7.875   2.610   8.728 -1.8857  2.1898 -0.5544
  123bbb     C4 3577   7.790   2.621   8.940  0.0473  0.0694  0.0699
  123bbb     H7 3578   7.884   2.652   8.988 -0.1957  0.6088  0.2044
  123bbb     H8 3579   7.741   2.553   9.010 -0.6649 -0.7328 -1.1694
  123bbb     C5 3580   7.720   2.374   8.588 -0.3253  0.1220  0.3414
  123bbb     H9 3581   7.707   2.478   8.558 -0.2223  0.1051  0.2356
  123bbb    H10 3582   7.636   2.333   8.646  1.2018 -2.8979  0.6490
  123bbb     C6 3583   8.007   2.262   8.917  0.5209  0.3612  0.0413
  123bbb    H11 3584   8.020   2.198   8.829  1.0800 -0.0592  0.4282
  123bbb    H12 3585   7.921   2.216   8.967 -0.5018  2.1205  0.0170
  123bbb     C7 3586   7.693   2.742   8.931  0.2386  0.7854 -0.3983
  123bbb    H13 3587   7.657   2.767   9.031  1.0978 -1.4846  0.5298
  123bbb    H14 3588   7.608   2.725   8.863  0.6121  0.9097 -0.9072
  123bbb     C8 3589   8.143   2.256   9.003 -0.2222 -0.3625  0.8473
  123bbb    H15 3590   8.129   2.166   9.064  0.4872 -0.8377  0.3250
  123bbb    H16 3591   8.159   2.343   9.068  0.8319  0.2236 -0.1507
  123bbb     C9 3592   7.722   2.285   8.459  0.0933 -0.0794 -0.1786
  123bbb    H17 3593   7.634   2.319   8.403  1.3673  0.8298 -1.7035
  123bbb    H18 3594   7.719   2.179   8.485  0.7520  0.0463  0.4608
  123bbb     O1 3595   7.771   2.851   8.879  0.1762  0.3335  0.4687
  124bbb     N1 3596   7.198   4.586   8.787  0.3027 -0.2406 -0.1352
  124bbb     C1 3597   7.272   4.717   8.787  0.6001 -0.5793 -0.1636
  124bbb     H1 3598   7.338   4.699   8.701  3.1521  0.0722  1.5526
  124bbb     H2 3599   7.347   4.732   8.866  0.1677 -1.1279  0.3625
  124bbb     C2 3600   7.096   4.583   8.898  0.1750 -0.5331 -0.0629
  124bbb     H3 3601   7.032   4.671   8.888 -0.1312 -0.8340 -0.8138
  124bbb     H4 3602   7.144   4.591   8.996 -2.8905  0.2315  1.5012
  124bbb     C3 3603   7.290   4.470   8.768 -0.2341 -0.7390  0.1022
  124bbb     H5 3604   7.375   4.508   8.710 -0.6135  0.7408  0.4664
  124bbb     H6 3605   7.242   4.387   8.715 -2.4035  0.8732 -0.6009
  124bbb     C4 3606   7.351   4.415   8.898 -0.2711 -0.1913  0.7486
  124bbb     H7 3607   7.278   4.370   8.966  1.1055 -1.8566  1.2254
  124bbb     H8 3608   7.409   4.489   8.954  0.2451  1.8625 -2.2873
  124bbb     C5 3609   7.193   4.849   8.764 -0.4097  0.2179 -0.0465
  124bbb     H9 3610   7.122   4.862   8.847 -0.8600  2.7766 -0.7565
  124bbb    H10 3611   7.137   4.843   8.670  1.9290 -0.6551 -1.4638
  124bbb     C6 3612   7.006   4.457   8.900 -0.0926 -0.2500 -0.2003
  124bbb    H11 3613   6.948   4.466   8.993 -0.5067  1.5237 -0.5825
  124bbb    H12 3614   7.056   4.360   8.909 -1.0665 -0.6275  1.6033
  124bbb     C7 3615   7.455   4.303   8.869  1.0156 -0.3713 -0.1650
  124bbb    H13 3616   7.512   4.284   8.961  0.9616 -2.6790 -0.5443
  124bbb    H14 3617   7.515   4.334   8.783 -0.6256 -2.7916 -2.3006
  124bbb     C8 3618   6.909   4.452   8.788 -0.6547  0.2949  0.1292
  124bbb    H15 3619   6.838   4.372   8.817 -0.5949  1.1998  3.0459
  124bbb    H16 3620   6.962   4.435   8.694 -0.8830 -0.8812  0.1841
  124bbb     C9 3621   7.282   4.971   8.761 -0.0788  0.6625 -0.8461
  124bbb    H17 3622   7.385   4.942   8.735 -0.4300 -1.2259 -0.3163
  124bbb    H18 3623   7.284   5.026   8.856 -1.9129  0.7720 -0.8363
  124bbb     O1 3624   7.391   4.180   8.826  0.2272  0.2985 -0.3280
  125bbb     N1 3625   6.854   3.746   8.653  0.0746 -0.0121 -0.1073
  125bbb     C1 3626   6.719   3.687   8.639  0.9576  0.1481  0.1875
  125bbb     H1 3627   6.661   3.708   8.729  1.4196  2.9020 -0.0788
  125bbb     H2 3628   6.720   3.578   8.621 -0.6581  0.4508 -2.3584
  125bbb     C2 3629   6.857   3.890   8.666 -0.5720  0.4126 -0.2028
  125bbb     H3 3630   6.800   3.919   8.755 -1.7377  2.0331 -1.4224
  125bbb     H4 3631   6.817   3.935   8.575 -1.1794  1.3105  0.4845
  125bbb     C3 3632   6.924   3.663   8.752  0.0416 -0.3006  0.1800
  125bbb     H5 3633   7.030   3.684   8.733 -0.1281  2.3646  1.6864
  125bbb     H6 3634   6.901   3.557   8.736  0.6037 -0.3159 -0.5973
  125bbb     C4 3635   6.897   3.684   8.902 -0.4016  0.3624  0.0832
  125bbb     H7 3636   6.799   3.636   8.912 -0.3078 -0.0200 -0.7162
  125bbb     H8 3637   6.890   3.792   8.917  0.4664  0.3581  0.6073
  125bbb     C5 3638   6.642   3.733   8.515 -0.3185 -0.4824 -0.2617
  125bbb     H9 3639   6.613   3.836   8.536  0.7186  0.0317 -1.2264
  125bbb    H10 3640   6.551   3.673   8.507  0.6532 -2.0955  0.2498
  125bbb     C6 3641   7.008   3.940   8.686 -0.1277 -0.3532  0.1417
  125bbb    H11 3642   7.071   3.924   8.598  0.6864  1.5271  0.3211
  125bbb    H12 3643   7.063   3.891   8.768  2.9653 -0.4097 -1.8016
  125bbb     C7 3644   6.998   3.613   8.993  0.7194 -0.3967 -0.0306
  125bbb    H13 3645   7.011   3.508   8.963  1.6168 -0.1206 -0.6628
  125bbb    H14 3646   6.966   3.625   9.097  0.9728 -0.9187  0.1126
  125bbb     C8 3647   7.006   4.091   8.712 -0.1179  0.1205 -0.5115
  125bbb    H15 3648   7.108   4.120   8.740 -0.8513 -0.4299  3.3669
  125bbb    H16 3649   6.936   4.118   8.793 -1.3643 -1.0765 -1.1369
  125bbb     C9 3650   6.725   3.714   8.381  0.7834 -0.0215 -0.3477
  125bbb    H17 3651   6.748   3.608   8.369  1.3905  0.4087 -3.9657
  125bbb    H18 3652   6.818   3.767   8.402 -0.2735  0.6971  3.1655
  125bbb     O1 3653   7.123   3.681   8.960  0.2503 -0.5101  0.4461
  126ccc     C3 3654  12.142   3.178   7.694 -0.6607 -0.2181 -0.4241
  126ccc     H5 3655  12.058   3.108   7.698 -0.7144 -0.1349 -0.1161
  126ccc     H6 3656  12.240   3.137   7.721  1.1913  3.6746 -0.5179
  126ccc     C2 3657  12.117   3.311   7.768 -0.3084 -0.3338 -0.0009
  126ccc     H3 3658  12.032   3.367   7.726 -0.6193 -1.3024 -0.6983
  126ccc     H4 3659  12.198   3.384   7.755  0.1214 -0.8649 -0.3276
  126ccc     C1 3660  12.081   3.286   7.915 -0.0682 -0.3026 -0.6477
  126ccc     H1 3661  12.004   3.209   7.912 -1.8829  1.2750  1.8643
  126ccc     H2 3662  12.030   3.370   7.962 -0.2129 -0.2003 -0.9839
  126ccc     N1 3663  12.190   3.242   8.004 -0.5637  1.0284 -0.1321
  126ccc     C4 3664  12.131   3.228   8.137  0.7768 -0.7497  0.0684
  126ccc     H7 3665  12.037   3.181   8.104  2.3948 -1.4542 -4.1256
  126ccc     H8 3666  12.097   3.324   8.178  1.4567  0.6270 -2.3739
  126ccc     C5 3667  12.212   3.132   8.220  0.0676  0.4338  0.0298
  126ccc     H9 3668  12.232   3.034   8.175  1.9888  0.8200 -0.0237
  126ccc    H10 3669  12.307   3.173   8.257  0.8348  0.4532 -1.8397
  126ccc     C6 3670  12.138   3.098   8.346 -0.2898 -0.0428 -0.3707
  126ccc     O2 3671  12.038   3.029   8.334 -0.1863  0.2732  0.3611
  126ccc     O3 3672  12.146   3.171   8.442 -0.1844  0.2195 -0.0670
  126ccc     C7 3673  12.316   3.318   7.991 -0.4380  0.4136 -0.1699
  126ccc    H11 3674  12.384   3.275   8.066 -0.5506  0.6320  0.0562
  126ccc    H12 3675  12.369   3.292   7.899  0.2673  0.5702  0.1865
  126ccc     C8 3676  12.303   3.464   8.008  0.1419  0.7112 -0.0243
  126ccc    H13 3677  12.267   3.515   7.918 -0.4531  0.8152  0.2628
  126ccc    H14 3678  12.228   3.489   8.085 -0.3789 -1.4679  0.2395
  126ccc     C9 3679  12.439   3.513   8.048 -0.1026  0.3161 -0.5479
  126ccc     O4 3680  12.479   3.522   8.162  0.3776 -0.6625  0.3124
  126ccc     O5 3681  12.514   3.548   7.963 -0.0489 -0.2514  0.2668
  126ccc     O1 3682  12.144   3.216   7.559  0.1628  0.0968 -0.1675
  127ccc     C3 3683  12.015   3.898   7.677  0.3024 -0.5422  0.1972
  127ccc     H5 3684  12.013   3.985   7.611  0.9010 -0.7549 -0.1145
  127ccc     H6 3685  11.920   3.846   7.659  0.1281  0.3229 -1.5932
  127ccc     C2 3686  12.039   3.928   7.828 -0.2760 -0.3962  0.4106
  127ccc     H3 3687  12.049   3.833   7.881  1.6829 -0.2482  0.3828
  127ccc     H4 3688  11.944   3.968   7.866  0.1928 -1.1154  2.4354
  127ccc     C1 3689  12.157   4.027   7.855  0.3084 -0.7081  0.4240
  127ccc     H1 3690  12.145   4.122   7.802 -0.5948 -0.4112  1.1203
  127ccc     H2 3691  12.253   3.978   7.834  0.3071 -2.3771  3.6574
  127ccc     N1 3692  12.154   4.066   8.000  0.0446 -0.8838 -0.6352
  127ccc     C4 3693  12.166   3.968   8.112 -0.0677  0.1825  0.3445
  127ccc     H7 3694  12.078   3.901   8.119  0.4555 -0.5152  0.3627
  127ccc     H8 3695  12.171   4.018   8.209 -2.4143 -0.4186  0.8514
  127ccc     C5 3696  12.291   3.889   8.087  0.4969 -0.3469 -0.0585
  127ccc     H9 3697  12.270   3.819   8.005 -0.0060  0.4339 -0.6093
  127ccc    H10 3698  12.375   3.955   8.065  0.8956 -0.4967  0.9402
  127ccc     C6 3699  12.331   3.810   8.206 -0.0639 -0.5667  0.3101
  127ccc     O2 3700  12.449   3.784   8.210 -0.0206 -0.1942 -0.2607
  127ccc     O3 3701  12.249   3.750   8.280  0.2156  0.1255 -0.1244
  127ccc     C7 3702  12.069   4.180   8.027  0.0020 -0.8600 -0.2149
  127ccc    H11 3703  12.027   4.229   7.939 -2.1864 -1.7087  0.2883
  127ccc    H12 3704  11.977   4.157   8.083  0.2177  0.3638  0.6996
  127ccc     C8 3705  12.150   4.289   8.093 -0.0843 -0.3949  0.0936
  127ccc    H13 3706  12.213   4.254   8.176  1.7552  1.1681 -0.5562
  127ccc    H14 3707  12.218   4.327   8.016  1.3178  2.9420  2.7514
  127ccc     C9 3708  12.074   4.402   8.137  0.1162 -0.3688  0.5053
  127ccc     O4 3709  12.068   4.429   8.253  0.0885 -0.0519  0.3537
  127ccc     O5 3710  12.014   4.474   8.057  0.1372 -0.5358  0.2362
  127ccc     O1 3711  12.115   3.816   7.620 -0.6426 -0.0940  0.5307
  128ccc     C3 3712  10.846   3.010   6.050 -0.1497  0.2728 -0.0208
  128ccc     H5 3713  10.752   3.067   6.061  0.3858  1.2459 -0.3890
  128ccc     H6 3714  10.884   3.017   5.948  2.4382  1.8909  0.9731
  128ccc     C2 3715  10.806   2.863   6.070  0.6025 -0.8831 -0.1723
  128ccc     H3 3716  10.899   2.808   6.055  0.9422 -0.4761  0.4367
  128ccc     H4 3717  10.726   2.834   6.000 -1.6714 -0.0498  1.9330
  128ccc     C1 3718  10.761   2.826   6.206  0.3520 -0.3790 -0.0088
  128ccc     H1 3719  10.664   2.874   6.225 -1.4052 -2.8212 -2.0524
  128ccc     H2 3720  10.828   2.872   6.279 -0.6717 -0.5514  1.0751
  128ccc     N1 3721  10.746   2.679   6.226  0.1349  0.2724 -0.2288
  128ccc     C4 3722  10.666   2.615   6.121  0.2696 -0.6137  0.4589
  128ccc     H7 3723  10.656   2.507   6.138 -0.1172 -0.3387  2.2440
  128ccc     H8 3724  10.703   2.632   6.019  0.7574  0.7987  0.8525
  128ccc     C5 3725  10.516   2.667   6.114  0.2589 -0.3568  0.2322
  128ccc     H9 3726  10.473   2.649   6.214  4.1323 -0.9570  1.9615
  128ccc    H10 3727  10.503   2.773   6.090 -0.4248 -1.0675 -2.8911
  128ccc     C6 3728  10.445   2.586   6.011  0.1399 -0.4349 -0.1087
  128ccc     O2 3729  10.392   2.630   5.907 -0.5755  0.0432  0.7772
  128ccc     O3 3730  10.398   2.486   6.058  0.1409 -0.0876 -0.1820
  128ccc     C7 3731  10.726   2.632   6.365 -0.2998  0.2879 -0.9559
  128ccc    H11 3732  10.782   2.687   6.442 -1.5651  0.3400 -0.0543
  128ccc    H12 3733  10.623   2.657   6.391 -0.6213 -0.2654 -1.6884
  128ccc     C8 3734  10.773   2.483   6.381 -0.0987 -0.7224  0.0581
  128ccc    H13 3735  10.707   2.424   6.316 -2.3916  0.8750  0.8111
  128ccc    H14 3736  10.879   2.473   6.354  0.2803  1.0394  0.7317
  128ccc     C9 3737  10.750   2.433   6.517 -0.0687 -0.1882 -0.4885
  128ccc     O4 3738  10.820   2.471   6.610 -0.2022 -0.0361  0.0039
  128ccc     O5 3739  10.643   2.379   6.551  0.2268  0.3861  0.0404
  128ccc     O1 3740  10.949   3.050   6.144  0.6152  0.0438 -0.3778
  129ccc     C3 3741  11.081   3.985   6.248 -0.8048  0.5324  0.0882
  129ccc     H5 3742  11.020   4.059   6.195 -0.0378  2.0392  1.2106
  129ccc     H6 3743  11.070   4.012   6.354 -1.4637 -1.6857  0.6252
  129ccc     C2 3744  11.229   3.979   6.195  0.3986  0.4054 -0.8379
  129ccc     H3 3745  11.290   3.897   6.234  1.2070 -0.7816 -4.2530
  129ccc     H4 3746  11.264   4.082   6.205 -0.2222  0.9385 -3.4391
  129ccc     C1 3747  11.230   3.946   6.048 -0.3407 -0.5698  0.0904
  129ccc     H1 3748  11.145   4.001   6.006  0.5932  0.5603 -0.3547
  129ccc     H2 3749  11.213   3.840   6.026 -1.3038 -0.1587 -1.2722
  129ccc     N1 3750  11.351   4.001   5.985  0.0775 -0.6326  0.7503
  129ccc     C4 3751  11.470   3.932   6.028  0.1978 -0.0336 -0.6603
  129ccc     H7 3752  11.520   3.881   5.945  0.3345 -1.0576  0.0266
  129ccc     H8 3753  11.443   3.854   6.101 -0.0201  1.4540  0.9044
  129ccc     C5 3754  11.559   4.037   6.094 -0.6487 -1.0071 -0.9608
  129ccc     H9 3755  11.624   4.088   6.021 -0.2463 -0.3319 -0.1421
  129ccc    H10 3756  11.505   4.117   6.147 -0.3246 -0.7392 -1.0251
  129ccc     C6 3757  11.642   3.971   6.198  0.3897  0.6024 -0.0458
  129ccc     O2 3758  11.652   4.022   6.306 -0.0486  0.3480  0.4211
  129ccc     O3 3759  11.719   3.879   6.173 -0.1453  0.4993 -0.2230
  129ccc     C7 3760  11.342   4.008   5.836  0.3007  0.2420 -0.0821
  129ccc    H11 3761  11.341   3.903   5.806  2.2685  0.1708  0.0019
  129ccc    H12 3762  11.252   4.066   5.808 -0.6249 -0.5919  1.0659
  129ccc     C8 3763  11.464   4.077   5.764  0.5124  0.2219  0.1759
  129ccc    H13 3764  11.469   4.179   5.802  0.0364  0.8454 -1.3539
  129ccc    H14 3765  11.556   4.024   5.792  0.2265 -0.2852  0.1709
  129ccc     C9 3766  11.458   4.074   5.614  0.6631  0.0561 -0.9089
  129ccc     O4 3767  11.492   4.169   5.545  0.2823  0.1791  0.3056
  129ccc     O5 3768  11.395   3.986   5.554  0.3817  0.3698  0.5482
  129ccc     O1 3769  11.021   3.857   6.226 -0.6692  0.2356 -0.0706
  130ccc     C3 3770  10.324   2.746   8.358 -0.2029 -0.1471 -0.1434
  130ccc     H5 3771  10.287   2.656   8.307 -2.1252 -0.1156  1.0999
  130ccc     H6 3772  10.384   2.816   8.298  0.2387 -0.2936  0.1290
  130ccc     C2 3773  10.409   2.703   8.479 -0.0952 -0.2081  0.2454
  130ccc     H3 3774  10.477   2.623   8.445 -1.4888 -0.7530 -1.3827
  130ccc     H4 3775  10.344   2.667   8.559 -0.5753 -0.9488 -0.4562
  130ccc     C1 3776  10.492   2.825   8.536  0.0980  0.6516  0.0722
  130ccc     H1 3777  10.468   2.914   8.477  0.9981  1.4411  0.8621
  130ccc     H2 3778  10.600   2.811   8.524  0.0176  1.3142 -1.5684
  130ccc     N1 3779  10.458   2.841   8.681 -0.6855  0.0234 -0.4971
  130ccc     C4 3780  10.347   2.942   8.698 -0.6106  0.7442  0.7051
  130ccc     H7 3781  10.274   2.903   8.627  0.9991 -1.4776  0.1635
  130ccc     H8 3782  10.373   3.043   8.662  0.4391  0.3865  0.4272
  130ccc     C5 3783  10.286   2.951   8.837  0.3384 -0.3635 -0.8261
  130ccc     H9 3784  10.267   2.854   8.885 -1.2150 -0.4035 -1.4359
  130ccc    H10 3785  10.355   3.005   8.902  0.5098 -1.0377 -0.4320
  130ccc     C6 3786  10.155   3.027   8.834  0.6919 -0.1594  0.4867
  130ccc     O2 3787  10.151   3.141   8.804 -0.7047 -0.2277  1.0100
  130ccc     O3 3788  10.047   2.962   8.832 -0.6679  0.0511  0.6580
  130ccc     C7 3789  10.571   2.847   8.772  0.0625 -0.0317 -0.9708
  130ccc    H11 3790  10.546   2.828   8.877  2.3445 -0.7826 -0.5100
  130ccc    H12 3791  10.644   2.769   8.746  1.6448  1.1399 -0.1459
  130ccc     C8 3792  10.646   2.983   8.768  0.0388  0.6602 -0.1484
  130ccc    H13 3793  10.659   3.017   8.665 -0.6256 -0.0299 -0.4712
  130ccc    H14 3794  10.584   3.057   8.820 -0.2109  0.1212  0.3348
  130ccc     C9 3795  10.775   2.980   8.842  0.5933 -0.4488  0.2623
  130ccc     O4 3796  10.875   2.959   8.778  0.2703  0.4426  0.7012
  130ccc     O5 3797  10.783   3.030   8.952  0.0285  0.4622  0.0317
  130ccc     O1 3798  10.211   2.823   8.415  0.1916  0.8024  0.1224
  131ccc     C3 3799  10.303   3.699   8.356 -0.0261 -0.2139  0.1830
  131ccc     H5 3800  10.196   3.681   8.340 -0.0225 -0.5860  0.5420
  131ccc     H6 3801  10.319   3.786   8.422  0.0990 -0.7308  0.8529
  131ccc     C2 3802  10.372   3.710   8.224 -0.3087 -0.2501  0.4008
  131ccc     H3 3803  10.312   3.758   8.146 -0.1896 -0.1961  0.3421
  131ccc     H4 3804  10.389   3.606   8.193 -0.7131 -0.4065  0.7003
  131ccc     C1 3805  10.510   3.785   8.229  0.6100 -0.0310  0.7748
  131ccc     H1 3806  10.573   3.731   8.300  1.0855  1.4988  1.5560
  131ccc     H2 3807  10.492   3.883   8.275  1.4287  0.6987 -0.3957
  131ccc     N1 3808  10.579   3.789   8.090 -0.2368  0.5770  0.9160
  131ccc     C4 3809  10.725   3.821   8.094  0.3159  0.5888  0.9492
  131ccc     H7 3810  10.749   3.921   8.131 -1.4658  1.3478  0.1320
  131ccc     H8 3811  10.767   3.807   7.994 -0.4005  0.4701  0.6612
  131ccc     C5 3812  10.806   3.722   8.187  0.2158 -0.8816 -0.0270
  131ccc     H9 3813  10.785   3.734   8.294  1.6451 -1.5579  0.3531
  131ccc    H10 3814  10.771   3.622   8.160 -2.9041  0.8069 -3.0061
  131ccc     C6 3815  10.947   3.743   8.156 -0.8037  0.6240  0.4840
  131ccc     O2 3816  10.996   3.845   8.107  0.4634  0.3473 -0.0406
  131ccc     O3 3817  11.013   3.641   8.156 -0.0607  0.2269 -0.1402
  131ccc     C7 3818  10.506   3.865   7.986 -0.5969 -0.2493  0.6129
  131ccc    H11 3819  10.565   3.865   7.893  2.6581 -1.8251  2.5009
  131ccc    H12 3820  10.408   3.827   7.956 -0.9437  0.8654  0.2856
  131ccc     C8 3821  10.476   4.011   8.020  0.0342 -0.4881  0.2451
  131ccc    H13 3822  10.412   4.018   8.109 -1.5579 -0.6444 -0.8464
  131ccc    H14 3823  10.562   4.078   8.030 -1.0460  0.9235  0.4296
  131ccc     C9 3824  10.396   4.067   7.902  0.3073 -0.2808  0.3423
  131ccc     O4 3825  10.450   4.135   7.819  0.3372 -0.0279  0.0137
  131ccc     O5 3826  10.273   4.060   7.897  0.2012  0.3435  0.2071
  131ccc     O1 3827  10.366   3.593   8.422 -0.3132  0.2512 -0.0814
  132ccc     C3 3828   9.412   2.820   6.512 -0.6511  0.6493 -1.3091
  132ccc     H5 3829   9.496   2.763   6.470  0.7307  1.2859  0.4755
  132ccc     H6 3830   9.318   2.770   6.483 -1.2837  1.9778 -1.6092
  132ccc     C2 3831   9.419   2.979   6.474  0.0737  0.4041 -0.3087
  132ccc     H3 3832   9.522   3.011   6.498 -0.1192 -0.3869  1.8216
  132ccc     H4 3833   9.355   3.038   6.541  2.4819  1.8667  0.8647
  132ccc     C1 3834   9.401   3.011   6.326 -0.6765 -0.4901 -0.0412
  132ccc     H1 3835   9.488   2.965   6.278  0.0450 -1.2065  1.8760
  132ccc     H2 3836   9.414   3.117   6.302  0.0460 -0.7007 -0.6207
  132ccc     N1 3837   9.283   2.963   6.252  0.5419 -0.6651  0.4726
  132ccc     C4 3838   9.311   2.976   6.105  0.4061 -0.5464 -0.0526
  132ccc     H7 3839   9.417   2.975   6.079  0.4297 -2.0160  0.0128
  132ccc     H8 3840   9.268   3.066   6.058  2.0823  0.1071 -0.3822
  132ccc     C5 3841   9.249   2.849   6.042 -0.4111 -0.4476  0.4452
  132ccc     H9 3842   9.302   2.760   6.079 -0.3352 -2.6316 -4.2147
  132ccc    H10 3843   9.147   2.828   6.076 -1.4435  0.0438 -2.1294
  132ccc     C6 3844   9.262   2.843   5.896 -0.6276 -0.0772  0.7647
  132ccc     O2 3845   9.174   2.800   5.830  0.2089 -0.4504 -0.5710
  132ccc     O3 3846   9.376   2.820   5.855 -0.0605 -0.0302  0.0460
  132ccc     C7 3847   9.153   3.032   6.295  0.3335 -0.3624 -0.1259
  132ccc    H11 3848   9.172   3.133   6.331  0.5753 -0.7654  0.9231
  132ccc    H12 3849   9.082   3.031   6.211  0.3921  1.7218 -0.2425
  132ccc     C8 3850   9.095   2.954   6.410 -0.2159 -1.0966 -0.2428
  132ccc    H13 3851   9.107   2.846   6.396 -1.1762 -0.9614 -2.6423
  132ccc    H14 3852   9.138   2.970   6.509 -1.3600 -0.3326  0.1486
  132ccc     C9 3853   8.950   2.974   6.430  0.5660 -0.2359 -0.8618
  132ccc     O4 3854   8.863   2.920   6.362  0.3416  0.4374 -0.3354
  132ccc     O5 3855   8.916   3.045   6.520  0.3019 -0.3078  0.0242
  132ccc     O1 3856   9.417   2.802   6.657 -0.3489 -0.5862  0.1089
  133ccc     C3 3857   9.720   2.125   7.269  0.4365  0.1188 -0.3422
  133ccc     H5 3858   9.691   2.105   7.373 -2.5534 -0.1230 -1.1145
  133ccc     H6 3859   9.678   2.051   7.200 -1.3582  0.8859 -0.1390
  133ccc     C2 3860   9.865   2.116   7.243 -0.0857  0.1932  0.1406
  133ccc     H3 3861   9.902   2.114   7.140  0.0110 -0.1718  0.1814
  133ccc     H4 3862   9.895   2.024   7.294 -1.8552 -0.3872  0.1823
  133ccc     C1 3863   9.941   2.232   7.319 -0.3654  0.5144  0.1799
  133ccc     H1 3864   9.914   2.210   7.423 -0.3694 -1.6495 -0.2262
  133ccc     H2 3865   9.901   2.331   7.293 -0.3005  0.2266 -1.0957
  133ccc     N1 3866  10.086   2.237   7.309 -0.3008  0.0359 -0.2411
  133ccc     C4 3867  10.149   2.111   7.356 -0.3406 -0.1845  0.3285
  133ccc     H7 3868  10.259   2.108   7.347 -0.5084 -0.8117 -2.6440
  133ccc     H8 3869  10.122   2.026   7.293 -0.2495 -0.1643  0.2608
  133ccc     C5 3870  10.126   2.082   7.505 -0.0993  0.0128  0.8179
  133ccc     H9 3871  10.135   2.173   7.566  0.6014  0.3192  0.2753
  133ccc    H10 3872  10.028   2.034   7.519 -0.2161  0.5114  1.7898
  133ccc     C6 3873  10.227   1.972   7.541 -0.1165  0.1785 -0.2060
  133ccc     O2 3874  10.345   1.998   7.564  0.8845 -0.0854  0.0917
  133ccc     O3 3875  10.188   1.861   7.585  0.0274  0.3123 -0.0058
  133ccc     C7 3876  10.137   2.270   7.177 -0.3005 -0.0871  1.0724
  133ccc    H11 3877  10.247   2.270   7.176 -0.2494 -0.8557 -1.8545
  133ccc    H12 3878  10.104   2.199   7.100  0.1154  1.8532 -1.0107
  133ccc     C8 3879  10.085   2.406   7.130  0.6692 -0.0793 -0.1462
  133ccc    H13 3880   9.986   2.393   7.086  0.2763  0.9941  0.4079
  133ccc    H14 3881  10.071   2.478   7.211  1.1668  0.3583 -0.4414
  133ccc     C9 3882  10.184   2.462   7.033 -0.0534 -0.2164  0.0232
  133ccc     O4 3883  10.301   2.476   7.077  0.3439 -0.1648  0.1148
  133ccc     O5 3884  10.158   2.507   6.923  0.2482 -0.1486  0.8841
  133ccc     O1 3885   9.674   2.256   7.232  0.4203 -0.1034 -0.2666
  134ccc     C3 3886  10.470   6.054   8.281 -0.4437 -0.0226 -0.1089
  134ccc     H5 3887  10.565   6.007   8.251 -1.0452 -0.3333 -1.5980
  134ccc     H6 3888  10.502   6.145   8.333 -0.5505 -0.6125  1.0361
  134ccc     C2 3889  10.399   5.964   8.377  0.3560  0.2619 -0.6493
  134ccc     H3 3890  10.380   5.866   8.331 -0.7147 -0.5679  1.4056
  134ccc     H4 3891  10.291   5.980   8.391  0.1949 -0.5195 -0.9231
  134ccc     C1 3892  10.472   5.938   8.514  0.2469 -0.2423  0.0631
  134ccc     H1 3893  10.572   5.899   8.492  1.2556  0.7640  2.4404
  134ccc     H2 3894  10.426   5.855   8.569  0.3179 -1.8088 -2.0932
  134ccc     N1 3895  10.477   6.058   8.598  0.0851  0.3430 -0.0105
  134ccc     C4 3896  10.550   6.033   8.725 -0.2583  0.0286  0.2860
  134ccc     H7 3897  10.502   5.945   8.769 -1.7285  0.6338 -0.0544
  134ccc     H8 3898  10.540   6.109   8.803  1.1837  0.1146  0.4140
  134ccc     C5 3899  10.697   6.003   8.704 -0.3541 -0.3207 -1.0563
  134ccc     H9 3900  10.703   5.897   8.678 -0.6647 -0.3008 -1.2084
  134ccc    H10 3901  10.749   6.068   8.632 -0.3440 -0.2577 -0.9928
  134ccc     C6 3902  10.767   6.019   8.834 -0.4868 -0.2283 -0.6918
  134ccc     O2 3903  10.813   5.923   8.895 -0.1752 -0.4285  0.2004
  134ccc     O3 3904  10.785   6.122   8.900  0.1114 -0.3143  0.0122
  134ccc     C7 3905  10.361   6.135   8.617  0.1091 -0.2698  0.0884
  134ccc    H11 3906  10.390   6.226   8.671  1.4342  0.8596 -2.3584
  134ccc    H12 3907  10.320   6.159   8.518 -0.3279  1.3156  0.6126
  134ccc     C8 3908  10.243   6.071   8.692  0.6582  0.6599 -0.2043
  134ccc    H13 3909  10.215   5.975   8.647  1.8471  0.1226  0.1576
  134ccc    H14 3910  10.275   6.058   8.796  1.4664  2.3347 -0.2118
  134ccc     C9 3911  10.136   6.176   8.703  0.0158 -0.3727  0.4533
  134ccc     O4 3912  10.160   6.290   8.726  0.3974  0.0837  0.1350
  134ccc     O5 3913  10.023   6.140   8.733 -0.5786  0.0457  0.4823
  134ccc     O1 3914  10.378   6.103   8.177  0.4187  0.3198 -0.1440
  135ccc     C3 3915  10.846   5.411   7.748 -0.2879  0.6534  0.7828
  135ccc     H5 3916  10.948   5.418   7.788  0.3641 -2.2861 -0.1044
  135ccc     H6 3917  10.779   5.353   7.812  1.1081 -1.1091  0.7381
  135ccc     C2 3918  10.845   5.330   7.617 -0.1646  1.0300  0.5640
  135ccc     H3 3919  10.892   5.386   7.535 -0.4158  0.0016 -0.3232
  135ccc     H4 3920  10.743   5.304   7.585  0.9740 -3.0156 -0.4966
  135ccc     C1 3921  10.923   5.191   7.626 -0.1525 -0.3427  0.0578
  135ccc     H1 3922  10.871   5.132   7.701 -1.2229  1.0900  0.4760
  135ccc     H2 3923  11.026   5.207   7.661 -0.4053  2.3336 -0.2091
  135ccc     N1 3924  10.929   5.110   7.496 -0.2615 -0.5678 -0.3215
  135ccc     C4 3925  10.797   5.074   7.441 -0.4714  0.3135  0.4117
  135ccc     H7 3926  10.721   5.062   7.519  0.9247 -3.2757  1.4259
  135ccc     H8 3927  10.802   4.980   7.386  0.3690 -0.1688  1.2895
  135ccc     C5 3928  10.751   5.161   7.325  0.4888 -0.5095 -0.6206
  135ccc     H9 3929  10.672   5.106   7.272  1.3068 -1.2394 -1.1019
  135ccc    H10 3930  10.714   5.253   7.371 -2.8712 -2.0349  0.0185
  135ccc     C6 3931  10.861   5.184   7.231 -0.2702  0.0947 -0.4163
  135ccc     O2 3932  10.916   5.291   7.232 -0.0567  0.1465 -0.3570
  135ccc     O3 3933  10.894   5.112   7.142 -0.3748  0.3553 -0.7029
  135ccc     C7 3934  11.019   4.998   7.512 -0.0600 -0.8590 -0.1744
  135ccc    H11 3935  11.006   4.966   7.616 -1.6720 -2.3763 -0.8079
  135ccc    H12 3936  11.003   4.911   7.447  1.6138 -0.9845 -0.4792
  135ccc     C8 3937  11.164   5.042   7.492 -0.6605  0.0280  0.1862
  135ccc    H13 3938  11.204   5.116   7.562 -2.2188  1.0009  0.0883
  135ccc    H14 3939  11.227   4.954   7.507  0.2000  0.6525  0.3465
  135ccc     C9 3940  11.175   5.093   7.349 -0.0841  0.0174 -0.1610
  135ccc     O4 3941  11.161   5.014   7.256 -0.0769  0.4446 -0.3959
  135ccc     O5 3942  11.225   5.203   7.322  0.0606  0.4767 -0.2167
  135ccc     O1 3943  10.789   5.539   7.727  0.0147  0.2878  0.6230
  136ccc     C3 3944  10.956   5.784   8.179  0.3334 -0.2677  0.1630
  136ccc     H5 3945  10.969   5.720   8.091  0.4700 -0.6420  0.4519
  136ccc     H6 3946  10.928   5.886   8.151  0.6251 -0.7147 -1.9609
  136ccc     C2 3947  11.086   5.780   8.247 -0.4383  0.0666 -0.5042
  136ccc     H3 3948  11.165   5.804   8.175  0.4968 -1.0717  0.1091
  136ccc     H4 3949  11.107   5.680   8.285  0.5927 -0.8257 -3.2538
  136ccc     C1 3950  11.079   5.883   8.368 -0.1174  0.2866 -0.0886
  136ccc     H1 3951  10.985   5.849   8.413 -1.1684 -0.5434 -2.6971
  136ccc     H2 3952  11.080   5.983   8.324  1.5004  0.2837 -0.1336
  136ccc     N1 3953  11.197   5.868   8.461 -0.0263  0.0932  0.1990
  136ccc     C4 3954  11.333   5.855   8.390  0.7285  0.1401 -0.1439
  136ccc     H7 3955  11.358   5.929   8.313 -1.7018  1.0857 -0.1169
  136ccc     H8 3956  11.335   5.757   8.341  0.8879  0.0580  0.0284
  136ccc     C5 3957  11.445   5.860   8.491  0.9505  0.5023  0.0814
  136ccc     H9 3958  11.469   5.961   8.526  0.1962  0.2204  1.4559
  136ccc    H10 3959  11.427   5.787   8.570 -0.9252 -0.3814 -1.0717
  136ccc     C6 3960  11.570   5.815   8.424  0.4913 -0.1160  0.5169
  136ccc     O2 3961  11.622   5.711   8.454  0.2938  0.2713  0.6139
  136ccc     O3 3962  11.606   5.861   8.315  0.0107  0.0076 -0.1522
  136ccc     C7 3963  11.187   5.978   8.559 -0.2250  0.2672  0.7089
  136ccc    H11 3964  11.252   5.949   8.643 -0.2652 -2.2605 -0.0486
  136ccc    H12 3965  11.225   6.067   8.509 -0.1275 -1.7217 -3.0885
  136ccc     C8 3966  11.044   6.005   8.611  0.1365  0.8195  0.8906
  136ccc    H13 3967  10.983   6.038   8.526  2.0570 -1.2886 -1.4725
  136ccc    H14 3968  11.005   5.916   8.661  0.7669 -1.0062 -1.6718
  136ccc     C9 3969  11.048   6.115   8.706 -0.3381 -0.3626 -0.6828
  136ccc     O4 3970  10.994   6.218   8.682 -0.0944 -0.0938  0.0401
  136ccc     O5 3971  11.070   6.085   8.822  0.0585 -0.4614  0.1860
  136ccc     O1 3972  10.855   5.724   8.260 -0.0509 -0.0479 -0.6025
  137ccc     C3 3973  11.013   5.374   8.059  0.5402  0.1437  0.0736
  137ccc     H5 3974  11.005   5.467   8.001 -0.4451 -0.5390 -0.9234
  137ccc     H6 3975  11.040   5.394   8.164 -0.2287 -0.3698  0.3734
  137ccc     C2 3976  11.112   5.276   7.990 -0.3614 -0.1948 -0.3930
  137ccc     H3 3977  11.067   5.255   7.892 -2.5734 -0.1370  0.5536
  137ccc     H4 3978  11.114   5.185   8.051  0.9714  2.2994  3.6759
  137ccc     C1 3979  11.259   5.320   7.982  0.0939 -0.2763  0.3019
  137ccc     H1 3980  11.331   5.248   7.940 -1.5139 -0.5098 -2.2421
  137ccc     H2 3981  11.293   5.343   8.084 -1.6726  0.0895  0.8440
  137ccc     N1 3982  11.273   5.432   7.890  0.1525 -0.1157 -0.3523
  137ccc     C4 3983  11.264   5.393   7.751  0.0955 -0.0944 -0.3342
  137ccc     H7 3984  11.200   5.307   7.729  1.9733 -1.1876 -1.8109
  137ccc     H8 3985  11.365   5.368   7.719  0.7616 -0.1744  1.6760
  137ccc     C5 3986  11.225   5.513   7.665 -0.9975 -0.2629  0.1342
  137ccc     H9 3987  11.128   5.558   7.686 -0.2488  1.4523  0.0741
  137ccc    H10 3988  11.298   5.595   7.662  1.1574 -2.0868 -1.7174
  137ccc     C6 3989  11.233   5.462   7.522  0.4673 -0.1074  0.4016
  137ccc     O2 3990  11.132   5.448   7.459  0.2239  1.0373  0.3222
  137ccc     O3 3991  11.332   5.468   7.456 -0.1795  0.2681  0.2983
  137ccc     C7 3992  11.388   5.517   7.923 -0.0652  1.3148 -0.5229
  137ccc    H11 3993  11.471   5.448   7.943 -1.2793  0.2280  0.9935
  137ccc    H12 3994  11.422   5.571   7.834  1.1004  2.6174  0.6676
  137ccc     C8 3995  11.361   5.608   8.036  0.3525 -0.2887 -0.7311
  137ccc    H13 3996  11.260   5.650   8.026  0.5750  0.1538 -1.1365
  137ccc    H14 3997  11.360   5.554   8.131  0.0763 -0.1385 -0.6460
  137ccc     C9 3998  11.452   5.724   8.032 -0.2781 -0.4998  0.6022
  137ccc     O4 3999  11.566   5.715   8.068  0.1464  0.4292 -1.1596
  137ccc     O5 4000  11.411   5.837   8.027 -0.2332 -0.3823  0.2525
  137ccc     O1 4001  10.889   5.301   8.060  0.1380  0.5376  0.5416
  138ccc     C3 4002  10.187   5.476   9.189  0.2077 -0.0892  0.1070
  138ccc     H5 4003  10.090   5.461   9.239 -0.9624  2.4179 -1.1993
  138ccc     H6 4004  10.255   5.411   9.245  1.1089  1.0785  0.3898
  138ccc     C2 4005  10.237   5.610   9.227  0.5170  0.6596 -0.7427
  138ccc     H3 4006  10.346   5.613   9.213  0.7042  0.5777  0.5625
  138ccc     H4 4007  10.229   5.641   9.332  0.0517  2.5936 -1.3054
  138ccc     C1 4008  10.179   5.722   9.133 -0.4707 -0.2728  0.0243
  138ccc     H1 4009  10.071   5.714   9.151 -0.6007  0.3122 -0.4689
  138ccc     H2 4010  10.197   5.709   9.025 -0.8095  0.1191 -0.0841
  138ccc     N1 4011  10.223   5.864   9.183  0.1292  0.2933 -0.2643
  138ccc     C4 4012  10.127   5.960   9.129  0.8408  0.3228  0.3646
  138ccc     H7 4013  10.032   5.937   9.179  0.4293  3.1367  1.0328
  138ccc     H8 4014  10.114   5.954   9.020 -1.4553  0.1927  0.5927
  138ccc     C5 4015  10.148   6.108   9.162  0.1052 -0.0023 -0.9690
  138ccc     H9 4016  10.161   6.116   9.270  1.9011  1.4498 -1.2279
  138ccc    H10 4017  10.238   6.152   9.116 -0.0627 -0.4564 -1.7440
  138ccc     C6 4018  10.035   6.194   9.116 -0.5268  0.4628  0.2924
  138ccc     O2 4019   9.950   6.220   9.201  0.1561  0.3249 -0.2343
  138ccc     O3 4020   9.995   6.198   9.001  0.6728  0.3233  0.0195
  138ccc     C7 4021  10.364   5.882   9.139  0.8825  0.0963  0.1843
  138ccc    H11 4022  10.415   5.791   9.105 -0.0463 -0.4437  0.1789
  138ccc    H12 4023  10.368   5.958   9.060  0.4909  1.1611  1.1601
  138ccc     C8 4024  10.438   5.955   9.249 -0.2198 -0.3668 -0.3653
  138ccc    H13 4025  10.386   6.048   9.277  1.9638  0.5273  1.0320
  138ccc    H14 4026  10.438   5.900   9.344 -0.9350 -0.8211 -0.6179
  138ccc     C9 4027  10.570   6.001   9.210  0.1705 -0.6216 -0.4746
  138ccc     O4 4028  10.661   5.916   9.202 -0.2937 -0.0734  0.0829
  138ccc     O5 4029  10.587   6.103   9.150 -0.6471 -0.0064 -0.4599
  138ccc     O1 4030  10.190   5.458   9.043  0.3363  0.2036 -0.2715
  139ccc     C3 4031  10.044   5.753   8.123  0.1019 -0.9028 -0.1379
  139ccc     H5 4032  10.038   5.648   8.090 -0.1745 -0.9480  0.0583
  139ccc     H6 4033   9.942   5.786   8.146  1.2225  1.9651  1.1842
  139ccc     C2 4034  10.111   5.844   8.016  0.2324  0.6355  0.2252
  139ccc     H3 4035  10.067   5.814   7.920  3.8067  0.6213 -1.5774
  139ccc     H4 4036  10.215   5.813   8.002  0.3690  1.6074 -1.0958
  139ccc     C1 4037  10.105   5.994   8.052 -0.2491  0.2575 -0.0116
  139ccc     H1 4038  10.147   6.056   7.972  2.0890  0.9089  1.6167
  139ccc     H2 4039  10.175   6.002   8.136  0.4250  0.2945 -0.5700
  139ccc     N1 4040   9.974   6.046   8.083  0.0044 -0.3686  0.1643
  139ccc     C4 4041   9.891   6.061   7.960 -0.8939 -0.1665 -0.3329
  139ccc     H7 4042   9.903   5.971   7.899  0.7213  1.4443 -2.5951
  139ccc     H8 4043   9.916   6.149   7.899  2.2886 -0.8351 -0.2014
  139ccc     C5 4044   9.745   6.067   7.993 -0.2994  0.3126  0.0372
  139ccc     H9 4045   9.734   5.984   8.064  0.7505  1.2033  1.2873
  139ccc    H10 4046   9.718   6.167   8.028  0.2763  0.6486 -0.4512
  139ccc     C6 4047   9.675   6.035   7.871  1.2969  0.1880  0.1666
  139ccc     O2 4048   9.655   6.128   7.791 -0.7365 -0.8351  0.0374
  139ccc     O3 4049   9.657   5.916   7.836  0.3087  0.3539  0.1417
  139ccc     C7 4050   9.977   6.174   8.157 -0.0514 -0.1262  0.3459
  139ccc    H11 4051  10.022   6.252   8.095  1.3132  0.3461  1.8525
  139ccc    H12 4052   9.874   6.206   8.177 -0.4969 -1.2613 -0.0278
  139ccc     C8 4053  10.053   6.158   8.292  0.3944 -0.1246 -0.1864
  139ccc    H13 4054  10.040   6.056   8.329  1.6993 -0.3993 -0.4316
  139ccc    H14 4055  10.159   6.185   8.290  0.5458 -0.4987  1.5176
  139ccc     C9 4056   9.994   6.249   8.395 -0.9159 -0.2490  0.2290
  139ccc     O4 4057  10.004   6.369   8.379  0.4696  0.3713 -0.2727
  139ccc     O5 4058   9.906   6.223   8.470  0.7053 -0.2866 -0.0939
  139ccc     O1 4059  10.126   5.759   8.240  0.3071 -0.1263  0.1691
  140ccc     C3 4060  11.490   5.048   7.741  0.6048  0.0326  0.1525
  140ccc     H5 4061  11.501   4.987   7.650 -0.1313 -0.2523  0.2532
  140ccc     H6 4062  11.440   5.143   7.721  2.0520  1.2221  1.8676
  140ccc     C2 4063  11.632   5.071   7.790 -1.1421 -0.7016 -0.5718
  140ccc     H3 4064  11.689   5.120   7.710 -1.9706 -3.0076 -2.6985
  140ccc     H4 4065  11.667   4.968   7.792  0.4777 -0.1919  2.1425
  140ccc     C1 4066  11.652   5.145   7.925  0.5377 -0.0980  0.4216
  140ccc     H1 4067  11.594   5.236   7.911 -0.2254 -0.3054  1.9541
  140ccc     H2 4068  11.759   5.168   7.935  0.8485 -0.6786 -1.3350
  140ccc     N1 4069  11.605   5.084   8.053  0.1546  0.6889 -0.1496
  140ccc     C4 4070  11.635   4.936   8.069 -0.6834 -0.1719  0.1741
  140ccc     H7 4071  11.598   4.881   7.982  1.7755 -0.2262 -0.9201
  140ccc     H8 4072  11.587   4.909   8.164  1.2639  0.6966  1.4706
  140ccc     C5 4073  11.783   4.908   8.068  0.0512  0.3489 -0.7577
  140ccc     H9 4074  11.836   4.952   7.983 -0.9510 -1.0304 -2.1424
  140ccc    H10 4075  11.830   4.954   8.156 -2.2048  1.6050 -0.1346
  140ccc     C6 4076  11.802   4.757   8.061 -0.3940  0.2372 -1.3320
  140ccc     O2 4077  11.809   4.696   7.960  0.3305  0.6109  0.1382
  140ccc     O3 4078  11.820   4.694   8.161  0.0710 -0.5910  0.1849
  140ccc     C7 4079  11.636   5.160   8.171 -0.6576 -0.0031 -0.8362
  140ccc    H11 4080  11.579   5.114   8.252 -1.7822  1.4942 -0.7433
  140ccc    H12 4081  11.743   5.146   8.190 -1.0814 -2.7828 -0.0403
  140ccc     C8 4082  11.599   5.307   8.158  0.5070  0.7772 -0.6458
  140ccc    H13 4083  11.660   5.352   8.078  1.8178  0.2544  0.0390
  140ccc    H14 4084  11.493   5.320   8.134  0.8227  2.2759 -1.3103
  140ccc     C9 4085  11.631   5.383   8.284  0.4106  0.2271  0.7487
  140ccc     O4 4086  11.691   5.490   8.276  0.2323  0.0037 -0.0733
  140ccc     O5 4087  11.577   5.350   8.386  0.4471  0.2207 -0.7767
  140ccc     O1 4088  11.424   4.984   7.851  0.4887 -0.3101 -0.3708
  141ccc     C3 4089  10.709   4.516   8.296 -0.9259  0.0232 -1.3159
  141ccc     H5 4090  10.739   4.507   8.401 -0.2188  1.1814 -1.3947
  141ccc     H6 4091  10.629   4.591   8.295  0.5784  1.8264 -4.9030
  141ccc     C2 4092  10.656   4.384   8.247 -0.2822  0.0799  0.1665
  141ccc     H3 4093  10.603   4.331   8.327 -1.1731 -0.4518 -0.7546
  141ccc     H4 4094  10.751   4.331   8.234 -0.4250 -0.3935  0.9789
  141ccc     C1 4095  10.563   4.394   8.128  0.6323  0.3110 -0.5612
  141ccc     H1 4096  10.520   4.298   8.098 -2.5201  0.7764  1.9385
  141ccc     H2 4097  10.636   4.430   8.053  1.9948  3.6316  2.0841
  141ccc     N1 4098  10.444   4.487   8.141 -0.4767 -0.2191 -0.0259
  141ccc     C4 4099  10.352   4.453   8.256  0.3856  0.7470  0.4812
  141ccc     H7 4100  10.408   4.426   8.346  0.0537  0.7851  0.7013
  141ccc     H8 4101  10.296   4.362   8.231  0.7221  0.5853  0.3101
  141ccc     C5 4102  10.254   4.562   8.298  0.9044  0.2533 -0.2142
  141ccc     H9 4103  10.302   4.653   8.335 -0.2168  0.9530 -0.4373
  141ccc    H10 4104  10.186   4.584   8.215  0.7458 -1.8826 -0.7061
  141ccc     C6 4105  10.160   4.503   8.409 -0.2096  0.3346 -0.1969
  141ccc     O2 4106  10.078   4.419   8.383 -0.1507  0.5537  0.0099
  141ccc     O3 4107  10.181   4.540   8.521  0.3282 -0.5368 -0.4323
  141ccc     C7 4108  10.368   4.488   8.015  0.2269  0.0813 -0.5886
  141ccc    H11 4109  10.347   4.382   8.001 -0.7685 -0.0443  1.5044
  141ccc    H12 4110  10.276   4.545   8.034  0.0131 -0.9979  1.9080
  141ccc     C8 4111  10.433   4.544   7.885 -0.0167  0.2455 -0.2443
  141ccc    H13 4112  10.437   4.653   7.895  0.8076  0.0107  3.6183
  141ccc    H14 4113  10.536   4.506   7.876 -0.7957 -2.0989  0.1034
  141ccc     C9 4114  10.358   4.512   7.769 -0.3305  0.0521 -0.3848
  141ccc     O4 4115  10.301   4.597   7.699  0.0341  0.1697 -0.1980
  141ccc     O5 4116  10.349   4.401   7.729  0.0462  0.0412 -0.5578
  141ccc     O1 4117  10.825   4.570   8.223  0.0575  0.1188 -0.7532
  142ccc     C3 4118   9.785   4.802   4.699 -0.2579  0.0183 -0.8305
  142ccc     H5 4119   9.801   4.898   4.649  0.6219  1.3035  1.7644
  142ccc     H6 4120   9.858   4.721   4.684 -0.5833 -0.6244  0.8306
  142ccc     C2 4121   9.646   4.746   4.654 -0.2953 -0.2270  0.5017
  142ccc     H3 4122   9.568   4.812   4.694  1.0401  1.3359  0.6227
  142ccc     H4 4123   9.628   4.645   4.695 -1.0877  0.3785  1.7027
  142ccc     C1 4124   9.634   4.748   4.500  0.0163  0.3611 -0.4675
  142ccc     H1 4125   9.542   4.701   4.463  0.9287 -1.4094 -0.5963
  142ccc     H2 4126   9.712   4.678   4.470  0.2355  0.3267  0.1646
  142ccc     N1 4127   9.645   4.885   4.435 -0.1744  0.9938 -0.1613
  142ccc     C4 4128   9.650   4.865   4.289  0.5649  0.9915  0.1035
  142ccc     H7 4129   9.640   4.961   4.236 -1.6818  1.1674  0.7438
  142ccc     H8 4130   9.565   4.814   4.242  0.7428  1.0697 -0.3079
  142ccc     C5 4131   9.789   4.808   4.252  0.3605  0.1013  0.0723
  142ccc     H9 4132   9.869   4.878   4.281  1.3039 -0.7986 -0.2964
  142ccc    H10 4133   9.802   4.707   4.293 -2.1774  0.1133  1.0780
  142ccc     C6 4134   9.798   4.809   4.100 -0.9569 -0.1446 -0.1449
  142ccc     O2 4135   9.819   4.907   4.033  0.6458 -0.0054  0.0887
  142ccc     O3 4136   9.845   4.714   4.050 -0.1804  0.8062  0.1281
  142ccc     C7 4137   9.555   4.993   4.487 -0.3877  0.6833  0.3867
  142ccc    H11 4138   9.450   4.976   4.461  0.0729  0.6736 -1.6933
  142ccc    H12 4139   9.560   4.999   4.596 -2.3426 -1.7621  0.6957
  142ccc     C8 4140   9.590   5.125   4.418  0.0691 -0.0811 -0.2975
  142ccc    H13 4141   9.697   5.147   4.416 -0.0975  1.0499  1.3509
  142ccc    H14 4142   9.552   5.125   4.315  2.4078  0.3315 -1.2311
  142ccc     C9 4143   9.530   5.246   4.486  0.7613  0.9186 -0.2644
  142ccc     O4 4144   9.595   5.344   4.511 -0.0866  0.4139 -0.8028
  142ccc     O5 4145   9.446   5.223   4.571  0.6440  0.4335 -0.4561
  142ccc     O1 4146   9.780   4.825   4.842  0.5346 -0.0277 -0.4657
  143ccc     C3 4147   9.532   5.048   5.485 -0.0783 -0.5542  1.0852
  143ccc     H5 4148   9.483   4.977   5.418  0.2883 -0.0666  0.2961
  143ccc     H6 4149   9.493   5.027   5.586  0.5145  0.2925  1.5046
  143ccc     C2 4150   9.496   5.187   5.420 -0.2151  0.3709 -0.5594
  143ccc     H3 4151   9.517   5.266   5.493  1.0937 -2.3870  2.2642
  143ccc     H4 4152   9.387   5.194   5.409 -0.0619  0.1649 -2.4748
  143ccc     C1 4153   9.562   5.207   5.285  0.2749 -0.1141  0.3574
  143ccc     H1 4154   9.525   5.132   5.214  1.8221 -1.4204  0.8671
  143ccc     H2 4155   9.671   5.197   5.295  0.1664 -0.7957  0.8737
  143ccc     N1 4156   9.545   5.342   5.224 -0.3536  0.5427  0.4881
  143ccc     C4 4157   9.609   5.449   5.297 -0.0948 -0.0222 -0.0242
  143ccc     H7 4158   9.664   5.519   5.233  0.1080 -0.2754 -0.1240
  143ccc     H8 4159   9.685   5.406   5.363  0.8798  1.1575 -0.3560
  143ccc     C5 4160   9.499   5.515   5.373  0.5735 -0.1804  0.6177
  143ccc     H9 4161   9.430   5.551   5.296 -0.4791 -0.5863  1.3440
  143ccc    H10 4162   9.430   5.447   5.425  0.6758 -2.4440 -1.9751
  143ccc     C6 4163   9.545   5.628   5.458  0.5152 -0.3231  0.2427
  143ccc     O2 4164   9.466   5.685   5.523 -0.0687  0.3471 -0.6205
  143ccc     O3 4165   9.640   5.694   5.418  0.5738 -0.1850 -0.2184
  143ccc     C7 4166   9.591   5.341   5.085 -0.1987  0.4009 -0.0897
  143ccc    H11 4167   9.697   5.333   5.059 -0.3170  2.0846 -1.2749
  143ccc    H12 4168   9.548   5.249   5.042  0.9614  0.0191 -0.4681
  143ccc     C8 4169   9.524   5.452   5.009  0.8017 -0.5837  0.3384
  143ccc    H13 4170   9.418   5.463   5.037  0.3599  3.7743 -2.1989
  143ccc    H14 4171   9.572   5.550   5.017 -2.7392  1.3616 -0.1717
  143ccc     C9 4172   9.521   5.417   4.865  0.6696  0.2813 -0.0806
  143ccc     O4 4173   9.439   5.330   4.829  0.0147 -0.0875 -0.0078
  143ccc     O5 4174   9.567   5.492   4.778 -0.7201  0.4820  0.0018
  143ccc     O1 4175   9.680   5.037   5.485  0.0772  0.0460 -0.6021
  144ccc     C3 4176   9.983   5.851   6.207  0.4674 -0.0292 -0.1563
  144ccc     H5 4177  10.024   5.825   6.109 -0.5011 -0.4954 -0.4449
  144ccc     H6 4178   9.962   5.750   6.244 -0.2432 -0.5116 -1.7817
  144ccc     C2 4179   9.850   5.936   6.205 -0.1298 -1.1228 -0.1877
  144ccc     H3 4180   9.872   6.024   6.144 -0.7420 -0.8371  0.0029
  144ccc     H4 4181   9.827   5.963   6.309  1.0610 -1.2776  0.1297
  144ccc     C1 4182   9.730   5.856   6.155  0.6561  0.3119  0.0622
  144ccc     H1 4183   9.714   5.771   6.222 -0.9622 -0.9104 -1.7747
  144ccc     H2 4184   9.769   5.822   6.059  4.2209 -1.3619  1.9141
  144ccc     N1 4185   9.600   5.926   6.138 -0.9067 -0.3135  0.6690
  144ccc     C4 4186   9.544   5.974   6.262  0.5225 -0.5346 -0.0168
  144ccc     H7 4187   9.603   6.060   6.296  0.1476 -0.5171  0.5980
  144ccc     H8 4188   9.564   5.896   6.337  1.0990 -2.1132 -1.7034
  144ccc     C5 4189   9.398   5.999   6.257  0.1438 -0.4276  0.2769
  144ccc     H9 4190   9.368   6.053   6.348 -1.6773  0.3790 -0.7449
  144ccc    H10 4191   9.374   6.065   6.172  0.4194  1.2975  1.4734
  144ccc     C6 4192   9.303   5.887   6.259 -0.3167  0.2878 -0.0107
  144ccc     O2 4193   9.313   5.799   6.339 -0.7765 -0.3762  0.1509
  144ccc     O3 4194   9.245   5.862   6.156  0.1586  0.2456 -0.0061
  144ccc     C7 4195   9.610   6.039   6.035 -0.0294  0.1875 -0.4114
  144ccc    H11 4196   9.516   6.095   6.031 -1.1544 -1.4131  1.7561
  144ccc    H12 4197   9.679   6.116   6.073  0.1505 -1.2065  2.2881
  144ccc     C8 4198   9.656   6.002   5.893 -0.0649 -0.2464  0.6025
  144ccc    H13 4199   9.660   6.082   5.818 -0.3894 -0.3109  0.5130
  144ccc    H14 4200   9.755   5.955   5.890  0.7175  1.3713 -2.0569
  144ccc     C9 4201   9.559   5.900   5.832 -0.3902  0.9002  0.4610
  144ccc     O4 4202   9.444   5.886   5.858 -0.1736  0.1643  0.3045
  144ccc     O5 4203   9.598   5.820   5.747 -0.0026  0.0061 -0.4568
  144ccc     O1 4204  10.088   5.920   6.275 -0.4037 -0.1629  0.0029
  145ccc     C3 4205  10.521   6.249   5.734 -0.4205  0.4554 -0.0100
  145ccc     H5 4206  10.412   6.260   5.734 -0.4986 -0.0832 -1.5008
  145ccc     H6 4207  10.567   6.349   5.739  0.4262  0.0233  1.8699
  145ccc     C2 4208  10.564   6.164   5.603  0.1792 -1.1868  0.4787
  145ccc     H3 4209  10.505   6.072   5.601 -0.1468 -0.9960  1.0402
  145ccc     H4 4210  10.670   6.139   5.606  0.6947  0.6723 -0.5445
  145ccc     C1 4211  10.546   6.243   5.467 -0.0887 -0.1009 -0.7428
  145ccc     H1 4212  10.441   6.237   5.438 -0.4267  0.4973  0.3283
  145ccc     H2 4213  10.609   6.197   5.389 -0.0312 -0.1402 -0.6733
  145ccc     N1 4214  10.575   6.389   5.477  0.3021 -0.2762  0.1790
  145ccc     C4 4215  10.716   6.414   5.492  0.8181 -0.2556 -0.2187
  145ccc     H7 4216  10.765   6.368   5.406  0.7297  0.7502 -0.8221
  145ccc     H8 4217  10.734   6.365   5.589 -0.1484 -1.5851 -0.6893
  145ccc     C5 4218  10.757   6.559   5.493 -0.5350 -0.1842  0.0370
  145ccc     H9 4219  10.754   6.617   5.400  2.7234  1.0949  0.5893
  145ccc    H10 4220  10.691   6.602   5.569 -0.0833 -0.3829  0.5518
  145ccc     C6 4221  10.888   6.587   5.544 -0.9783 -0.0439 -0.5643
  145ccc     O2 4222  10.927   6.549   5.652 -0.1962 -0.4414 -0.4049
  145ccc     O3 4223  10.965   6.646   5.472 -0.4205  0.7307  0.3234
  145ccc     C7 4224  10.519   6.465   5.362  0.2667 -0.4412  0.2224
  145ccc    H11 4225  10.542   6.572   5.360 -2.1701  0.2016 -3.2260
  145ccc    H12 4226  10.542   6.425   5.262  0.0745 -0.0154  0.0027
  145ccc     C8 4227  10.364   6.479   5.365 -0.1400 -0.3302  0.1720
  145ccc    H13 4228  10.325   6.416   5.446 -0.2075  1.0901  1.2785
  145ccc    H14 4229  10.329   6.578   5.394 -0.8004 -0.6497  0.4824
  145ccc     C9 4230  10.305   6.434   5.231  0.0284 -0.2143 -0.8130
  145ccc     O4 4231  10.270   6.320   5.218  0.4083 -0.1816 -0.1204
  145ccc     O5 4232  10.275   6.515   5.140  0.6990 -0.1068 -0.8237
  145ccc     O1 4233  10.571   6.166   5.842 -0.0003 -0.2750 -0.1191
  146ccc     C3 4234  10.177   3.794   4.520 -0.5195  0.1748 -0.2310
  146ccc     H5 4235  10.178   3.720   4.439 -0.1578 -2.3295  1.9368
  146ccc     H6 4236  10.275   3.840   4.536 -0.5598 -0.2925  1.6031
  146ccc     C2 4237  10.115   3.716   4.643 -0.0915  0.0775  0.1777
  146ccc     H3 4238  10.073   3.791   4.711 -0.2225 -0.0590  0.2470
  146ccc     H4 4239  10.194   3.663   4.697  1.2436  2.1593  0.3527
  146ccc     C1 4240   9.992   3.627   4.609 -0.4478  0.1821  0.6777
  146ccc     H1 4241   9.935   3.697   4.546 -0.6354  0.7878  1.5066
  146ccc     H2 4242   9.925   3.610   4.694 -0.2931  1.6986  1.1295
  146ccc     N1 4243  10.033   3.494   4.543  0.4707 -0.0722 -0.3498
  146ccc     C4 4244  10.095   3.407   4.648  0.3338  0.4197 -0.7520
  146ccc     H7 4245  10.025   3.387   4.729  1.0171 -1.7259 -0.6363
  146ccc     H8 4246  10.187   3.458   4.679  0.5074 -1.2527  1.7570
  146ccc     C5 4247  10.155   3.274   4.593 -0.2832 -0.0638 -0.3913
  146ccc     H9 4248  10.081   3.202   4.557 -0.2546 -0.3058  0.0277
  146ccc    H10 4249  10.213   3.291   4.501  2.9009 -1.8329  1.1016
  146ccc     C6 4250  10.243   3.215   4.703  0.1322  0.3203  0.0793
  146ccc     O2 4251  10.194   3.130   4.777  0.2289 -0.4917 -0.3411
  146ccc     O3 4252  10.358   3.251   4.712  0.5158  0.2033 -0.0956
  146ccc     C7 4253   9.923   3.434   4.467  0.0606 -0.4187  0.3135
  146ccc    H11 4254   9.942   3.329   4.445  1.3955  0.2049 -1.7622
  146ccc    H12 4255   9.832   3.436   4.529 -1.2419 -2.3011 -1.4184
  146ccc     C8 4256   9.894   3.514   4.342 -0.3930  0.8602  0.0500
  146ccc    H13 4257   9.839   3.605   4.370  0.0320  1.1847 -0.1602
  146ccc    H14 4258   9.989   3.531   4.290 -0.7350 -0.6511 -1.1377
  146ccc     C9 4259   9.801   3.433   4.253 -0.2710  0.1456 -0.1474
  146ccc     O4 4260   9.843   3.370   4.160  0.1299  0.4326  0.1868
  146ccc     O5 4261   9.683   3.438   4.257 -0.4314  0.2757  0.0563
  146ccc     O1 4262  10.078   3.886   4.480 -0.2537  0.1091 -0.6755
  147ccc     C3 4263   9.383   4.025   4.097  0.7412  0.8211  0.2452
  147ccc     H5 4264   9.361   3.990   4.198 -1.8474  0.3223 -0.4171
  147ccc     H6 4265   9.324   4.115   4.074 -1.2434 -0.3487  0.5263
  147ccc     C2 4266   9.345   3.908   4.006 -0.3570 -0.4964  0.6959
  147ccc     H3 4267   9.237   3.889   4.003 -0.2758 -0.8584 -0.0082
  147ccc     H4 4268   9.382   3.823   4.065 -2.9405 -1.1681  1.4810
  147ccc     C1 4269   9.400   3.911   3.863 -0.2045 -0.2057  0.3981
  147ccc     H1 4270   9.509   3.918   3.856 -0.0166 -2.9050 -0.2372
  147ccc     H2 4271   9.347   3.995   3.816 -4.0307 -1.6785  1.6909
  147ccc     N1 4272   9.366   3.782   3.804  0.9987  0.3150  1.5291
  147ccc     C4 4273   9.464   3.681   3.859  0.1262 -0.2949  0.5579
  147ccc     H7 4274   9.446   3.677   3.967  1.4157 -1.0997  0.7689
  147ccc     H8 4275   9.571   3.700   3.840  0.1282  0.3992  1.1927
  147ccc     C5 4276   9.453   3.542   3.812  0.4413  0.5220  0.8577
  147ccc     H9 4277   9.357   3.497   3.841  1.2628 -1.0940  1.2183
  147ccc    H10 4278   9.461   3.537   3.702  1.2390  1.2595  0.8728
  147ccc     C6 4279   9.557   3.453   3.882  0.5556 -0.4772 -0.6456
  147ccc     O2 4280   9.543   3.333   3.874 -0.2602  0.6019  0.2794
  147ccc     O3 4281   9.638   3.495   3.962 -0.2561 -0.1519 -0.4648
  147ccc     C7 4282   9.360   3.790   3.659  0.2453 -0.4339  0.2218
  147ccc    H11 4283   9.453   3.832   3.617  0.8832 -1.9448  0.0541
  147ccc    H12 4284   9.359   3.691   3.611  0.7747 -0.4304  0.1969
  147ccc     C8 4285   9.244   3.870   3.596 -0.1718  0.2837  0.1050
  147ccc    H13 4286   9.151   3.842   3.648  0.4556  1.4213  1.9022
  147ccc    H14 4287   9.255   3.978   3.610  1.9835  0.3100 -1.3831
  147ccc     C9 4288   9.232   3.833   3.458 -0.5922  0.3839  0.3014
  147ccc     O4 4289   9.173   3.731   3.430  0.2224 -0.3324  0.0684
  147ccc     O5 4290   9.285   3.899   3.368 -1.2227  0.4313  0.8139
  147ccc     O1 4291   9.518   4.061   4.079 -0.6379  0.0025  0.4269
  148ccc     C3 4292   9.335   3.250   5.070 -0.6436 -0.0586  0.5352
  148ccc     H5 4293   9.235   3.215   5.039 -0.0503  1.3903 -3.6242
  148ccc     H6 4294   9.388   3.253   4.974  1.0951  0.1266  1.4749
  148ccc     C2 4295   9.401   3.146   5.162  0.1645  0.1681 -0.2846
  148ccc     H3 4296   9.335   3.121   5.246  0.7554 -1.6674 -0.3178
  148ccc     H4 4297   9.497   3.185   5.199 -0.4525  0.4330  1.0793
  148ccc     C1 4298   9.455   3.018   5.093  0.2659 -0.1619  0.0172
  148ccc     H1 4299   9.505   3.054   5.003  2.2235 -3.1107 -0.1957
  148ccc     H2 4300   9.370   2.959   5.056 -0.5925  0.7586  0.4616
  148ccc     N1 4301   9.548   2.936   5.169 -0.1296  0.1530 -0.0555
  148ccc     C4 4302   9.637   2.866   5.073  0.0706 -0.0146  0.3190
  148ccc     H7 4303   9.587   2.836   4.981 -0.6061  1.2555  0.2530
  148ccc     H8 4304   9.678   2.775   5.121 -1.7593 -1.4973 -0.7904
  148ccc     C5 4305   9.747   2.964   5.037 -0.2921 -0.4839 -0.2281
  148ccc     H9 4306   9.706   3.057   4.997 -0.1467 -1.0276 -1.7242
  148ccc    H10 4307   9.798   2.977   5.133 -0.7093  1.2466 -0.2121
  148ccc     C6 4308   9.832   2.905   4.932  0.4800 -0.4512  0.3373
  148ccc     O2 4309   9.930   2.965   4.894  0.3005  0.0548  0.4187
  148ccc     O3 4310   9.817   2.798   4.875 -0.1533 -0.1616  0.3519
  148ccc     C7 4311   9.461   2.856   5.257  0.3261  0.0178  1.1987
  148ccc    H11 4312   9.410   2.935   5.314  1.9290  1.6618  0.4861
  148ccc    H12 4313   9.390   2.795   5.201 -0.3608  1.3916  0.5049
  148ccc     C8 4314   9.537   2.779   5.359  0.5462 -0.0740 -0.5337
  148ccc    H13 4315   9.606   2.707   5.314 -0.0293  0.2779 -2.0434
  148ccc    H14 4316   9.593   2.843   5.428  0.0206  0.3595 -0.4987
  148ccc     C9 4317   9.438   2.709   5.448  0.2425  0.3218  0.8972
  148ccc     O4 4318   9.360   2.769   5.521 -0.3004  0.5205  0.2663
  148ccc     O5 4319   9.404   2.598   5.412 -0.1730  0.1606 -0.1228
  148ccc     O1 4320   9.317   3.380   5.131 -0.4934  0.1646 -0.2200
  149ccc     C3 4321   9.109   4.284   5.232  0.3939 -0.4295 -0.1929
  149ccc     H5 4322   9.025   4.216   5.254 -0.9238  0.3607 -2.4075
  149ccc     H6 4323   9.195   4.268   5.297  1.4593 -0.3053 -1.5308
  149ccc     C2 4324   9.077   4.431   5.259 -0.0550 -0.0177  0.0550
  149ccc     H3 4325   8.993   4.461   5.195  0.9322 -0.5858 -1.6052
  149ccc     H4 4326   9.162   4.489   5.220 -0.9916  1.3349 -0.0193
  149ccc     C1 4327   9.045   4.451   5.411 -0.0987 -0.3903 -1.2463
  149ccc     H1 4328   9.133   4.431   5.474 -1.3164  0.1438  0.7261
  149ccc     H2 4329   8.970   4.378   5.445 -0.4842 -0.2482 -1.7697
  149ccc     N1 4330   9.000   4.591   5.444  0.1881 -0.3078  0.1718
  149ccc     C4 4331   9.100   4.691   5.443 -0.3412 -0.1048  0.2103
  149ccc     H7 4332   9.052   4.789   5.441 -0.6883 -0.2787 -0.9376
  149ccc     H8 4333   9.152   4.685   5.346  1.5669 -1.9911  1.2636
  149ccc     C5 4334   9.192   4.679   5.565 -0.0663  0.1283 -0.1823
  149ccc     H9 4335   9.265   4.597   5.555 -0.4122 -0.1113 -0.7890
  149ccc    H10 4336   9.250   4.773   5.565  1.0846 -0.4810  2.6396
  149ccc     C6 4337   9.113   4.665   5.690  0.8521  0.5923 -0.0294
  149ccc     O2 4338   9.131   4.749   5.775 -0.3428 -0.4264  0.0358
  149ccc     O3 4339   9.090   4.552   5.735 -1.0081  0.2292  0.3312
  149ccc     C7 4340   8.876   4.641   5.378  0.4496 -0.1373  0.6766
  149ccc    H11 4341   8.844   4.734   5.426 -2.7281 -1.7328  1.9696
  149ccc    H12 4342   8.894   4.647   5.271  0.2973 -1.4207  0.5673
  149ccc     C8 4343   8.750   4.557   5.392  0.6416 -0.3171  0.2024
  149ccc    H13 4344   8.746   4.465   5.332 -2.0001 -1.0119  1.2954
  149ccc    H14 4345   8.739   4.520   5.495 -0.3960 -0.4606  0.0454
  149ccc     C9 4346   8.636   4.651   5.347  0.5808  0.4467 -0.3632
  149ccc     O4 4347   8.553   4.697   5.423 -0.6804 -0.7354 -0.0634
  149ccc     O5 4348   8.610   4.665   5.228 -0.4815  0.2582 -0.3705
  149ccc     O1 4349   9.153   4.269   5.100  0.6396 -0.2841 -0.0092
  150ccc     C3 4350  11.415   5.327   6.523  0.6310  0.7508 -0.0162
  150ccc     H5 4351  11.378   5.233   6.481  0.8539  1.0836 -0.9786
  150ccc     H6 4352  11.473   5.290   6.609  0.2524  0.9523  0.3354
  150ccc     C2 4353  11.304   5.434   6.561 -0.0334 -0.4086  0.3066
  150ccc     H3 4354  11.228   5.383   6.621 -1.2303  0.6227 -0.2852
  150ccc     H4 4355  11.258   5.479   6.472  1.9638  0.0155 -0.5540
  150ccc     C1 4356  11.364   5.552   6.644  0.1291  0.2808 -0.3446
  150ccc     H1 4357  11.407   5.619   6.568  0.6462 -1.4762 -1.6814
  150ccc     H2 4358  11.448   5.512   6.702 -0.6292 -0.9055 -0.0174
  150ccc     N1 4359  11.265   5.603   6.744  0.1978 -0.6337  0.2470
  150ccc     C4 4360  11.274   5.748   6.762 -0.1253  1.1403 -0.6027
  150ccc     H7 4361  11.367   5.769   6.814 -0.5685 -0.1990  0.8026
  150ccc     H8 4362  11.195   5.781   6.831 -1.2901 -4.2392  1.1300
  150ccc     C5 4363  11.268   5.834   6.640  0.0036 -0.4430  0.5878
  150ccc     H9 4364  11.368   5.837   6.595 -0.5193 -0.6990 -0.6190
  150ccc    H10 4365  11.187   5.810   6.571  1.2257 -0.6454 -0.8425
  150ccc     C6 4366  11.245   5.977   6.671  0.0842  0.6498 -0.4614
  150ccc     O2 4367  11.327   6.060   6.644  0.2150 -0.6649  0.3285
  150ccc     O3 4368  11.154   6.009   6.748 -0.5620 -0.4255 -0.0225
  150ccc     C7 4369  11.263   5.520   6.862 -0.7540  0.2447  0.4362
  150ccc    H11 4370  11.271   5.415   6.831 -0.4982  0.5747 -0.6511
  150ccc    H12 4371  11.352   5.544   6.921  0.3967  0.3947 -1.3044
  150ccc     C8 4372  11.147   5.539   6.951 -0.3756  0.0339 -0.0167
  150ccc    H13 4373  11.120   5.642   6.978 -2.3976  0.2579 -2.5387
  150ccc    H14 4374  11.054   5.511   6.900 -1.4783  3.4297 -0.1369
  150ccc     C9 4375  11.160   5.458   7.072 -0.0854  0.1503  0.2558
  150ccc     O4 4376  11.145   5.336   7.073 -0.0438 -0.6303  0.2330
  150ccc     O5 4377  11.168   5.511   7.182 -0.8377 -0.2588  0.1607
  150ccc     O1 4378  11.491   5.397   6.423 -0.3111 -0.1263  0.1349
  151ccc     C3 4379  12.186   5.400   6.952 -0.5932  0.4116  0.0085
  151ccc     H5 4380  12.226   5.305   6.989 -0.3812  0.6219  0.3363
  151ccc     H6 4381  12.255   5.484   6.973  0.1939  0.0780 -1.1556
  151ccc     C2 4382  12.049   5.426   7.026  0.7478 -0.6629 -0.9252
  151ccc     H3 4383  12.021   5.532   7.018 -1.9619 -0.8934  2.6076
  151ccc     H4 4384  12.051   5.416   7.135 -1.9400 -1.4053 -0.8761
  151ccc     C1 4385  11.934   5.337   6.981  0.4159 -0.4224 -0.0930
  151ccc     H1 4386  11.945   5.237   7.024  1.0742 -1.8353 -3.2567
  151ccc     H2 4387  11.934   5.327   6.872 -0.2124 -0.0485 -0.1369
  151ccc     N1 4388  11.802   5.389   7.029 -0.1769  0.4966  0.1073
  151ccc     C4 4389  11.692   5.326   6.952 -0.1388  0.2744  0.1837
  151ccc     H7 4390  11.690   5.219   6.976 -0.7046  0.4177  0.8182
  151ccc     H8 4391  11.708   5.335   6.844  1.2616 -2.3423  0.0945
  151ccc     C5 4392  11.549   5.382   6.972  0.1201 -0.1389 -0.5128
  151ccc     H9 4393  11.555   5.490   6.953 -2.4551 -0.1660 -1.9011
  151ccc    H10 4394  11.490   5.338   6.891 -1.8836 -0.5995  1.1044
  151ccc     C6 4395  11.478   5.344   7.100 -0.1053 -0.4002 -0.3384
  151ccc     O2 4396  11.450   5.227   7.120  0.2034  0.1357  0.3129
  151ccc     O3 4397  11.447   5.440   7.179  0.1039  0.2305 -0.1168
  151ccc     C7 4398  11.784   5.403   7.176  0.3481  0.1228  0.5513
  151ccc    H11 4399  11.863   5.465   7.218  0.5278 -0.0928  0.5298
  151ccc    H12 4400  11.694   5.463   7.197  1.5991  2.1073  0.5222
  151ccc     C8 4401  11.780   5.275   7.252  0.7384  0.4103 -0.1991
  151ccc    H13 4402  11.706   5.205   7.212 -0.0443  1.5058 -0.7136
  151ccc    H14 4403  11.875   5.220   7.258  0.3729 -0.2613 -0.4862
  151ccc     C9 4404  11.725   5.307   7.384 -0.1469  0.4624  0.2080
  151ccc     O4 4405  11.606   5.323   7.393  0.8316  0.5522  0.4509
  151ccc     O5 4406  11.802   5.320   7.476 -0.0694  0.3577  0.9646
  151ccc     O1 4407  12.168   5.394   6.809  0.3026 -0.0566  0.3299
  152ccc     C3 4408  11.782   5.671   6.701  0.4460  0.1981  0.0285
  152ccc     H5 4409  11.684   5.622   6.693  0.7861 -0.2120 -2.4149
  152ccc     H6 4410  11.862   5.600   6.676 -1.8528 -2.5029 -0.1028
  152ccc     C2 4411  11.792   5.728   6.852 -0.4795  0.6127 -0.0009
  152ccc     H3 4412  11.877   5.797   6.860 -0.1235  0.0859  0.9048
  152ccc     H4 4413  11.802   5.649   6.928 -2.0699 -1.0506 -1.4244
  152ccc     C1 4414  11.671   5.805   6.897  0.0636  0.1030  0.1299
  152ccc     H1 4415  11.580   5.747   6.878 -0.2795  0.5381  0.4209
  152ccc     H2 4416  11.665   5.897   6.837 -0.1907  0.3319  0.5061
  152ccc     N1 4417  11.693   5.859   7.036  0.3323 -0.1106 -0.3281
  152ccc     C4 4418  11.657   5.752   7.138 -0.2427 -0.4882  0.2093
  152ccc     H7 4419  11.710   5.660   7.112  0.0645 -0.0260 -0.8539
  152ccc     H8 4420  11.551   5.725   7.131 -0.7794  1.0200  1.7816
  152ccc     C5 4421  11.690   5.787   7.284  0.0222  0.3547 -0.1253
  152ccc     H9 4422  11.796   5.804   7.307  0.3223 -1.6444  0.1667
  152ccc    H10 4423  11.637   5.876   7.322  0.6765 -0.1478  2.1523
  152ccc     C6 4424  11.634   5.673   7.357 -0.3269 -0.2780  0.2443
  152ccc     O2 4425  11.515   5.665   7.378  0.0631  0.9814  0.0096
  152ccc     O3 4426  11.704   5.616   7.439 -0.7973  0.6909 -0.0710
  152ccc     C7 4427  11.644   5.998   7.062 -0.2187  1.0906  0.0176
  152ccc    H11 4428  11.680   6.033   7.159 -2.6258  0.0719  1.3892
  152ccc    H12 4429  11.684   6.066   6.986  0.8030  1.1755  0.6169
  152ccc     C8 4430  11.489   6.009   7.062  0.5226 -0.4980  0.0840
  152ccc    H13 4431  11.451   5.960   6.971  2.5060 -0.3919 -0.8497
  152ccc    H14 4432  11.447   5.964   7.153  0.8470 -0.6502  0.1593
  152ccc     C9 4433  11.436   6.151   7.045  0.3446  0.5979  0.4770
  152ccc     O4 4434  11.391   6.184   6.935 -0.0895 -0.7559 -0.0806
  152ccc     O5 4435  11.489   6.230   7.119  0.1762  0.3985  0.1776
  152ccc     O1 4436  11.787   5.784   6.617 -0.1339  0.0391  0.2562
  153ccc     C3 4437  11.501   6.128   5.815 -0.2462 -0.3335 -0.0664
  153ccc     H5 4438  11.596   6.074   5.803 -1.0540 -1.5807 -1.1461
  153ccc     H6 4439  11.449   6.133   5.718 -0.0207  1.2502 -0.1229
  153ccc     C2 4440  11.551   6.271   5.851 -0.2195 -0.2848 -0.2581
  153ccc     H3 4441  11.632   6.265   5.925  1.9262  0.9603 -2.3930
  153ccc     H4 4442  11.467   6.326   5.895  1.1137  0.8725  0.9370
  153ccc     C1 4443  11.616   6.337   5.733 -0.2458 -0.1875  0.9100
  153ccc     H1 4444  11.688   6.260   5.703 -1.0710 -0.4168 -0.5850
  153ccc     H2 4445  11.651   6.438   5.756  0.6122 -0.0405 -0.9130
  153ccc     N1 4446  11.530   6.352   5.604 -0.7356 -0.6107  0.6352
  153ccc     C4 4447  11.409   6.429   5.602 -0.1651 -0.3560  0.1470
  153ccc     H7 4448  11.342   6.402   5.684  1.7619 -2.3708  1.1983
  153ccc     H8 4449  11.355   6.402   5.510 -1.0161  0.7860  0.3032
  153ccc     C5 4450  11.443   6.575   5.614 -0.4134 -0.3267  0.0617
  153ccc     H9 4451  11.496   6.610   5.704  0.3936 -0.5313 -0.3256
  153ccc    H10 4452  11.506   6.610   5.532 -0.6695 -1.7975 -0.7780
  153ccc     C6 4453  11.313   6.651   5.596 -0.1309  0.0720 -0.5399
  153ccc     O2 4454  11.292   6.722   5.501  0.6290  0.1909 -0.1449
  153ccc     O3 4455  11.222   6.630   5.677  0.4346 -0.8252 -0.2040
  153ccc     C7 4456  11.617   6.363   5.485  0.0021  0.3597  0.0503
  153ccc    H11 4457  11.639   6.468   5.461 -0.3069  0.6286  0.9048
  153ccc    H12 4458  11.715   6.318   5.506 -1.0208 -0.6953  2.9208
  153ccc     C8 4459  11.563   6.292   5.366  0.5845  0.7254 -0.2408
  153ccc    H13 4460  11.528   6.191   5.391 -1.0119  0.9803 -1.3176
  153ccc    H14 4461  11.481   6.345   5.316  1.1047 -0.2976 -2.2849
  153ccc     C9 4462  11.666   6.288   5.254 -0.1925  0.2487  0.7258
  153ccc     O4 4463  11.690   6.174   5.209 -0.0906 -0.3624 -0.3609
  153ccc     O5 4464  11.664   6.377   5.171  0.1335  0.9308  0.1688
  153ccc     O1 4465  11.412   6.080   5.920  0.0975 -0.0797 -0.6759
  154ccc     C3 4466  12.355   5.906   6.888  0.5926 -0.0911 -0.0781
  154ccc     H5 4467  12.458   5.942   6.892  0.7634 -0.5143 -0.6522
  154ccc     H6 4468  12.298   5.974   6.824  0.1868 -0.0024  0.3667
  154ccc     C2 4469  12.287   5.917   7.022  0.2921  0.0088 -0.4803
  154ccc     H3 4470  12.305   6.021   7.052 -0.0439 -0.1506  0.3023
  154ccc     H4 4471  12.344   5.866   7.102  1.1345  1.4897 -0.0814
  154ccc     C1 4472  12.134   5.884   7.010  0.2088 -0.4894  0.1483
  154ccc     H1 4473  12.124   5.779   6.979 -0.0499  0.1402 -2.0429
  154ccc     H2 4474  12.079   5.926   6.926 -0.2801  1.0830  1.2037
  154ccc     N1 4475  12.072   5.915   7.138  0.6190 -0.4873 -0.4287
  154ccc     C4 4476  12.054   6.061   7.164 -0.3979  1.2427  0.3151
  154ccc     H7 4477  12.016   6.110   7.074 -0.7808  3.2516  1.5049
  154ccc     H8 4478  12.148   6.114   7.180  0.2509  0.0197  0.7300
  154ccc     C5 4479  11.952   6.099   7.265  0.0192 -0.4968 -0.4979
  154ccc     H9 4480  11.859   6.045   7.247  0.7346 -2.0693  0.3463
  154ccc    H10 4481  11.987   6.084   7.367  0.5934 -0.4849 -0.6893
  154ccc     C6 4482  11.927   6.242   7.260 -0.4477 -0.3905 -0.5295
  154ccc     O2 4483  11.999   6.322   7.321  0.5181  0.3682  0.9241
  154ccc     O3 4484  11.833   6.294   7.199 -0.4224 -0.6036 -0.1521
  154ccc     C7 4485  12.119   5.839   7.257 -0.0682 -0.4109 -0.6445
  154ccc    H11 4486  12.221   5.867   7.288 -0.8043  0.2236  1.4207
  154ccc    H12 4487  12.061   5.869   7.346  0.1582 -0.1945 -0.5674
  154ccc     C8 4488  12.098   5.692   7.224 -0.3424  0.2388 -0.0752
  154ccc    H13 4489  11.991   5.684   7.200 -0.4612  1.4628 -0.0310
  154ccc    H14 4490  12.154   5.648   7.139 -1.2414 -0.2805 -0.4112
  154ccc     C9 4491  12.142   5.608   7.340 -0.1054 -0.7981  0.1361
  154ccc     O4 4492  12.262   5.594   7.361 -0.6158  0.4611 -0.3478
  154ccc     O5 4493  12.066   5.532   7.399  0.4294  0.5502  0.3282
  154ccc     O1 4494  12.352   5.770   6.854 -0.7477 -0.2444  0.6395
  155ccc     C3 4495  12.190   6.145   6.377  0.1709 -0.2989 -0.1048
  155ccc     H5 4496  12.126   6.204   6.310 -0.7109 -1.0135  0.0929
  155ccc     H6 4497  12.151   6.042   6.372  1.4611 -0.8796  1.2118
  155ccc     C2 4498  12.199   6.185   6.526  0.1553  0.0469  0.0913
  155ccc     H3 4499  12.259   6.276   6.539  2.8308 -1.7797  1.6902
  155ccc     H4 4500  12.258   6.105   6.573 -0.0056 -0.2271 -0.1721
  155ccc     C1 4501  12.058   6.187   6.592  0.3683 -0.5679  0.6794
  155ccc     H1 4502  12.052   6.100   6.658 -1.4056 -2.0766 -1.3122
  155ccc     H2 4503  11.983   6.171   6.513  1.4900  1.8191 -0.9753
  155ccc     N1 4504  12.041   6.309   6.675  0.2070 -0.7904 -0.0657
  155ccc     C4 4505  11.901   6.342   6.705 -0.4482 -0.1957 -0.0172
  155ccc     H7 4506  11.844   6.344   6.611 -0.4403 -1.3482 -0.0646
  155ccc     H8 4507  11.894   6.443   6.748  2.4661  0.2596 -0.4199
  155ccc     C5 4508  11.827   6.242   6.791 -0.5123 -0.1348 -0.5258
  155ccc     H9 4509  11.814   6.141   6.751 -0.4656 -0.0336 -0.7926
  155ccc    H10 4510  11.886   6.235   6.883  0.2827  0.4210 -0.9870
  155ccc     C6 4511  11.689   6.286   6.829  0.3374 -0.8182 -0.7191
  155ccc     O2 4512  11.598   6.265   6.757  0.0231  0.2630 -0.5684
  155ccc     O3 4513  11.677   6.364   6.921  0.0961  0.2850 -0.3205
  155ccc     C7 4514  12.129   6.329   6.791  0.1030  0.1235  0.4976
  155ccc    H11 4515  12.100   6.260   6.871  0.1757 -2.0248 -1.2143
  155ccc    H12 4516  12.232   6.299   6.767  0.1661  0.0436  0.8577
  155ccc     C8 4517  12.141   6.473   6.838 -0.4397  0.0619  0.1307
  155ccc    H13 4518  12.250   6.482   6.845 -0.0965 -3.4261  0.7819
  155ccc    H14 4519  12.108   6.555   6.773 -1.1776 -0.5954 -0.3363
  155ccc     C9 4520  12.093   6.500   6.987 -0.7855 -0.0931  0.7755
  155ccc     O4 4521  11.990   6.557   7.010 -0.0100 -0.1892  0.0795
  155ccc     O5 4522  12.154   6.459   7.081  0.2007  0.4228  0.0475
  155ccc     O1 4523  12.332   6.136   6.341  0.1030 -0.5638  0.0260
  156ccc     C3 4524  11.942   5.602   4.531 -0.5561 -0.0331 -0.7552
  156ccc     H5 4525  12.025   5.663   4.493  1.7645 -1.5155  1.5918
  156ccc     H6 4526  11.944   5.505   4.480  2.0304 -0.5658  0.2196
  156ccc     C2 4527  11.815   5.683   4.510  0.4533 -0.2355 -0.3508
  156ccc     H3 4528  11.818   5.706   4.403 -1.2487  2.0963  0.0300
  156ccc     H4 4529  11.818   5.781   4.559 -0.7266  0.2827 -1.2789
  156ccc     C1 4530  11.679   5.621   4.548  0.1230  0.7333  0.2006
  156ccc     H1 4531  11.681   5.524   4.496 -2.3629 -0.0830  1.4699
  156ccc     H2 4532  11.589   5.672   4.512 -0.3338 -0.0569  0.2041
  156ccc     N1 4533  11.661   5.591   4.689  0.6965 -0.2123  0.2656
  156ccc     C4 4534  11.560   5.482   4.706 -0.1308 -0.6687  0.4662
  156ccc     H7 4535  11.564   5.461   4.814 -2.1330  3.2315  1.5229
  156ccc     H8 4536  11.586   5.393   4.647 -1.7058 -0.6385 -0.3199
  156ccc     C5 4537  11.414   5.509   4.655 -0.3115 -0.2597 -0.9894
  156ccc     H9 4538  11.370   5.591   4.713  1.4261 -0.6244  0.9575
  156ccc    H10 4539  11.414   5.542   4.550  0.2137  2.8371 -0.1028
  156ccc     C6 4540  11.332   5.386   4.674 -0.5483 -0.3075  0.3370
  156ccc     O2 4541  11.321   5.298   4.590  0.5880  0.1509  0.4419
  156ccc     O3 4542  11.304   5.346   4.784 -0.1189 -0.0383  0.0420
  156ccc     C7 4543  11.623   5.716   4.758 -0.1736 -0.3654  0.2583
  156ccc    H11 4544  11.687   5.800   4.728  1.6656 -1.0780  1.9497
  156ccc    H12 4545  11.520   5.748   4.738 -0.6992  0.1656  3.3121
  156ccc     C8 4546  11.628   5.710   4.913 -0.3635  0.7606 -0.3174
  156ccc    H13 4547  11.561   5.639   4.963  1.8066 -1.1719  0.0131
  156ccc    H14 4548  11.725   5.664   4.939 -1.3489 -0.2097  1.8890
  156ccc     C9 4549  11.628   5.846   4.972  0.0180  0.0002  0.2686
  156ccc     O4 4550  11.524   5.911   4.979  0.0834  0.1339  0.2202
  156ccc     O5 4551  11.726   5.904   5.003  0.3154 -0.1285 -0.2294
  156ccc     O1 4552  11.955   5.574   4.675  0.1844 -0.1025 -1.1973
  157ccc     C3 4553  11.747   4.779   5.161  0.0760 -0.2001 -0.8737
  157ccc     H5 4554  11.770   4.729   5.256 -0.2048  0.9918 -0.1696
  157ccc     H6 4555  11.658   4.840   5.177 -1.2141 -2.2302  0.1320
  157ccc     C2 4556  11.713   4.663   5.061 -0.2600 -0.3401  0.1731
  157ccc     H3 4557  11.779   4.576   5.074  1.4540  1.0638  1.5306
  157ccc     H4 4558  11.731   4.702   4.960  0.4012 -0.1976  0.3412
  157ccc     C1 4559  11.570   4.612   5.070 -1.0828 -0.1647 -0.7753
  157ccc     H1 4560  11.502   4.697   5.057 -2.9111 -1.4046  0.2127
  157ccc     H2 4561  11.545   4.591   5.175 -4.1860  1.4613 -1.0676
  157ccc     N1 4562  11.544   4.508   4.974  0.7386  0.1104  0.6426
  157ccc     C4 4563  11.493   4.386   5.042  0.4687 -0.4879 -0.4234
  157ccc     H7 4564  11.440   4.330   4.964  0.2273 -0.3991 -0.3260
  157ccc     H8 4565  11.414   4.414   5.113  0.9163  0.6911 -0.3705
  157ccc     C5 4566  11.602   4.308   5.104  0.1656 -0.7653 -0.7008
  157ccc     H9 4567  11.694   4.300   5.044  0.2022  0.0333 -0.7588
  157ccc    H10 4568  11.618   4.370   5.193 -1.4957  1.8597 -2.0932
  157ccc     C6 4569  11.541   4.172   5.149 -0.0157 -0.3612 -0.1605
  157ccc     O2 4570  11.509   4.086   5.073 -0.2107  0.4303 -0.0201
  157ccc     O3 4571  11.553   4.150   5.270  0.1048  0.1642 -0.2233
  157ccc     C7 4572  11.450   4.564   4.867  0.1832 -0.0059  0.2789
  157ccc    H11 4573  11.350   4.594   4.902 -0.1160 -0.1867 -0.3936
  157ccc    H12 4574  11.490   4.662   4.837  1.4059 -1.1358 -1.9673
  157ccc     C8 4575  11.428   4.466   4.750 -0.7761 -0.7733  0.1049
  157ccc    H13 4576  11.519   4.443   4.693 -0.7824 -1.8591  0.5183
  157ccc    H14 4577  11.380   4.376   4.791  0.5795 -0.2126  3.2492
  157ccc     C9 4578  11.332   4.527   4.651 -0.1579 -0.2662 -0.0094
  157ccc     O4 4579  11.330   4.647   4.625  0.4316 -0.3487 -0.4050
  157ccc     O5 4580  11.228   4.465   4.642 -0.2181  0.0887 -0.0029
  157ccc     O1 4581  11.860   4.856   5.111  0.6213  0.0992 -0.2116
  158ccc     C3 4582   8.752   3.854   4.165 -0.2170  0.1862  0.3268
  158ccc     H5 4583   8.772   3.820   4.267  2.1925  0.4203  0.0030
  158ccc     H6 4584   8.652   3.898   4.152  0.0640  0.2804 -2.0470
  158ccc     C2 4585   8.797   3.741   4.066 -0.7933 -0.1484 -1.2720
  158ccc     H3 4586   8.764   3.763   3.964  2.3027  0.5183 -2.2628
  158ccc     H4 4587   8.753   3.645   4.094 -2.5215  1.1739  0.8253
  158ccc     C1 4588   8.950   3.715   4.073 -0.4555 -0.6231 -0.4448
  158ccc     H1 4589   8.981   3.724   4.177 -1.0063 -0.7407 -0.2662
  158ccc     H2 4590   9.000   3.794   4.015  0.7211 -2.2881 -1.8458
  158ccc     N1 4591   8.991   3.588   4.012  0.9127  0.7373 -0.3599
  158ccc     C4 4592   9.134   3.555   4.021  0.5460 -0.7376  0.1235
  158ccc     H7 4593   9.199   3.635   3.983 -0.2471  0.5203  1.3184
  158ccc     H8 4594   9.148   3.466   3.960 -0.4271  1.1380 -3.1055
  158ccc     C5 4595   9.171   3.522   4.162 -0.7995  0.1033 -0.0085
  158ccc     H9 4596   9.184   3.611   4.224  0.5981 -0.0150 -0.0871
  158ccc    H10 4597   9.108   3.450   4.215 -0.4885  0.1359  0.4117
  158ccc     C6 4598   9.315   3.468   4.153 -0.1139  0.3672  0.1174
  158ccc     O2 4599   9.417   3.524   4.193  0.2453  0.5220  0.1466
  158ccc     O3 4600   9.330   3.348   4.132 -0.3838 -0.3393 -0.2090
  158ccc     C7 4601   8.939   3.557   3.875  0.8584 -0.8780 -0.0308
  158ccc    H11 4602   8.965   3.457   3.836  3.7129  0.1265 -0.9425
  158ccc    H12 4603   8.829   3.555   3.870  0.8972 -0.5354 -1.7135
  158ccc     C8 4604   8.987   3.658   3.771 -0.0353  0.3244 -0.1883
  158ccc    H13 4605   8.962   3.764   3.788  0.7484  0.2336  1.7751
  158ccc    H14 4606   9.094   3.641   3.755 -0.0996 -0.3797  0.1086
  158ccc     C9 4607   8.922   3.618   3.639 -0.2997 -0.4206  0.1480
  158ccc     O4 4608   8.898   3.709   3.553  0.6462 -0.5720  0.4198
  158ccc     O5 4609   8.940   3.505   3.596 -0.1725 -0.1316 -0.7463
  158ccc     O1 4610   8.835   3.966   4.131  0.4433 -0.1125  0.2184
  159ccc     C3 4611   8.833   4.417   3.658  0.2140  0.0974 -0.3006
  159ccc     H5 4612   8.750   4.373   3.716 -1.8213  3.2785 -0.5451
  159ccc     H6 4613   8.816   4.525   3.666 -0.5503 -0.0909  0.9287
  159ccc     C2 4614   8.819   4.380   3.508 -0.3468  0.2539 -0.6263
  159ccc     H3 4615   8.723   4.410   3.465 -0.5021  0.8787  0.1479
  159ccc     H4 4616   8.826   4.270   3.512  1.6158  0.3437 -0.2809
  159ccc     C1 4617   8.937   4.431   3.419 -0.3115 -0.0632 -0.1543
  159ccc     H1 4618   9.033   4.384   3.445 -1.1454 -1.9686 -0.3352
  159ccc     H2 4619   8.947   4.539   3.435  0.7884 -0.1932  0.1264
  159ccc     N1 4620   8.905   4.406   3.269 -0.1434 -0.2920 -0.7846
  159ccc     C4 4621   8.935   4.264   3.219  0.0189 -0.4509 -0.0273
  159ccc     H7 4622   8.900   4.264   3.116 -0.5799 -1.9500  0.1511
  159ccc     H8 4623   8.865   4.195   3.269 -1.6872  0.8075 -0.6089
  159ccc     C5 4624   9.076   4.219   3.229 -0.2249  0.1681  0.2831
  159ccc     H9 4625   9.144   4.286   3.174 -1.4829  1.6420  0.4738
  159ccc    H10 4626   9.110   4.215   3.333  0.2895  2.3724  0.2509
  159ccc     C6 4627   9.076   4.078   3.184  0.8494  0.2710 -0.1562
  159ccc     O2 4628   9.158   4.040   3.105 -0.3266  0.3984 -0.0254
  159ccc     O3 4629   9.017   3.989   3.247  0.2269 -0.2259  0.0166
  159ccc     C7 4630   8.972   4.514   3.198 -0.4792 -0.2079 -1.0308
  159ccc    H11 4631   8.945   4.607   3.250  0.0473 -0.0592 -1.0198
  159ccc    H12 4632   9.082   4.509   3.196 -0.3118  1.3638  1.1766
  159ccc     C8 4633   8.916   4.525   3.056  0.5110 -0.2788  1.1819
  159ccc    H13 4634   8.947   4.453   2.979  0.6224 -0.9036  1.8088
  159ccc    H14 4635   8.806   4.521   3.052  0.5142  0.5071 -0.5141
  159ccc     C9 4636   8.961   4.654   3.002  0.4810  0.1703  0.1569
  159ccc     O4 4637   9.072   4.694   3.016 -0.1930 -0.1918 -0.5845
  159ccc     O5 4638   8.875   4.730   2.950  0.0581  0.1206 -0.7837
  159ccc     O1 4639   8.962   4.383   3.706  0.0374 -0.0550  0.1611
  160ccc     C3 4640   9.195   3.139   4.665  0.3384  0.0358 -0.2544
  160ccc     H5 4641   9.102   3.146   4.722  0.2740 -2.0384 -0.0069
  160ccc     H6 4642   9.167   3.125   4.560  0.9258  1.3170 -0.5998
  160ccc     C2 4643   9.279   3.022   4.725 -0.3772 -0.6068  0.3609
  160ccc     H3 4644   9.342   3.062   4.806  0.2024 -0.0766 -0.3429
  160ccc     H4 4645   9.345   2.991   4.644 -2.0002  0.0192 -1.2623
  160ccc     C1 4646   9.198   2.906   4.792 -0.0924 -0.3977  0.0030
  160ccc     H1 4647   9.139   2.861   4.712  0.8208 -0.4520 -0.6550
  160ccc     H2 4648   9.128   2.947   4.866 -0.1098  1.4127 -0.9601
  160ccc     N1 4649   9.278   2.797   4.852  0.1393  0.9219 -0.1878
  160ccc     C4 4650   9.200   2.686   4.909  0.3646  0.0575 -0.1926
  160ccc     H7 4651   9.268   2.608   4.944  0.4493  1.1491  2.2886
  160ccc     H8 4652   9.120   2.649   4.843 -1.9144  1.1327  1.8001
  160ccc     C5 4653   9.131   2.740   5.039 -0.3418 -0.6532  0.2992
  160ccc     H9 4654   9.184   2.822   5.088  0.5433  0.6763 -2.6407
  160ccc    H10 4655   9.038   2.788   5.007 -0.4406 -1.1600 -0.2026
  160ccc     C6 4656   9.118   2.624   5.127 -0.3621  0.0872  0.2529
  160ccc     O2 4657   9.199   2.595   5.216  0.2353  0.3031 -0.0478
  160ccc     O3 4658   9.017   2.549   5.130 -0.6429  0.3455 -0.2171
  160ccc     C7 4659   9.394   2.744   4.790 -0.5543  0.6259  0.0930
  160ccc    H11 4660   9.467   2.817   4.753  2.0558 -3.1132 -2.9292
  160ccc    H12 4661   9.444   2.674   4.859  0.9061  0.5584 -0.9718
  160ccc     C8 4662   9.364   2.669   4.659  0.1479 -0.0865  0.3004
  160ccc    H13 4663   9.300   2.581   4.677  0.2614 -0.7756 -2.3444
  160ccc    H14 4664   9.326   2.737   4.583  0.3954 -0.9795 -0.6391
  160ccc     C9 4665   9.489   2.613   4.607  0.0131  0.2388  0.9899
  160ccc     O4 4666   9.504   2.572   4.491  0.4443  0.2288  0.1059
  160ccc     O5 4667   9.584   2.587   4.677  0.0783 -0.1151 -0.0738
  160ccc     O1 4668   9.268   3.260   4.673 -0.2018 -0.7274 -0.0792
  161ccc     C3 4669   8.970   4.168   4.585  0.8322 -0.2322  0.1079
  161ccc     H5 4670   8.952   4.271   4.550 -0.9532 -0.8793 -1.0281
  161ccc     H6 4671   8.906   4.095   4.533  0.9834 -0.9237  0.8752
  161ccc     C2 4672   8.935   4.154   4.732 -0.2120  0.6651  0.5275
  161ccc     H3 4673   8.978   4.232   4.795 -0.4430  1.5815 -0.4238
  161ccc     H4 4674   8.981   4.058   4.758  0.7740  0.9626 -0.0632
  161ccc     C1 4675   8.783   4.153   4.746  0.6160  0.4144  0.4050
  161ccc     H1 4676   8.749   4.079   4.672  0.5459 -0.2737  1.1193
  161ccc     H2 4677   8.763   4.254   4.708  0.0765  0.5576  1.0416
  161ccc     N1 4678   8.733   4.130   4.883  0.4160 -0.0953 -0.0191
  161ccc     C4 4679   8.755   4.247   4.964 -0.1183 -0.1847  0.6852
  161ccc     H7 4680   8.688   4.323   4.923  0.7017  0.0848 -0.1811
  161ccc     H8 4681   8.862   4.268   4.953  0.1566  0.1973  3.2540
  161ccc     C5 4682   8.736   4.223   5.109 -0.0158 -0.7132  0.8192
  161ccc     H9 4683   8.773   4.121   5.125 -2.2271 -1.8890 -0.8798
  161ccc    H10 4684   8.801   4.291   5.166  2.7564 -2.7369  0.2530
  161ccc     C6 4685   8.591   4.247   5.144 -0.6724 -0.6956 -0.5024
  161ccc     O2 4686   8.524   4.152   5.166  0.1128 -0.6636 -0.5226
  161ccc     O3 4687   8.548   4.362   5.145  0.1163 -0.0095  0.5744
  161ccc     C7 4688   8.597   4.074   4.883 -0.0857  0.2497 -0.1176
  161ccc    H11 4689   8.594   3.990   4.812  1.2151  0.1706 -0.0983
  161ccc    H12 4690   8.579   4.021   4.977 -0.5077  0.6493  0.0314
  161ccc     C8 4691   8.487   4.169   4.842  0.1191 -0.1167  0.3639
  161ccc    H13 4692   8.472   4.252   4.912 -0.0845  0.9274 -0.8678
  161ccc    H14 4693   8.502   4.207   4.740 -0.1176  0.1231  0.4163
  161ccc     C9 4694   8.352   4.099   4.829 -0.8200  0.2952 -0.1724
  161ccc     O4 4695   8.319   4.048   4.727 -0.1842 -0.0644  0.3392
  161ccc     O5 4696   8.313   4.038   4.924  0.6722 -0.0851 -0.2100
  161ccc     O1 4697   9.105   4.130   4.560 -0.1306  0.0485 -0.0002
  162ccc     C3 4698  10.618   5.095   4.951 -0.3745  0.0997  0.6376
  162ccc     H5 4699  10.529   5.140   4.905 -1.5673 -0.1673  2.5550
  162ccc     H6 4700  10.635   5.159   5.039 -0.3229 -1.6918  1.9855
  162ccc     C2 4701  10.731   5.101   4.859  0.1685  0.4310 -0.2082
  162ccc     H3 4702  10.829   5.074   4.902  0.2184 -0.0668 -0.6211
  162ccc     H4 4703  10.729   5.206   4.830  0.7362  0.0832 -1.6064
  162ccc     C1 4704  10.704   5.023   4.736  0.4989 -0.7508  0.5237
  162ccc     H1 4705  10.604   5.053   4.702  1.0950  0.8909  0.1274
  162ccc     H2 4706  10.706   4.914   4.753  0.3166 -1.1941 -1.9297
  162ccc     N1 4707  10.787   5.052   4.612  0.4993  0.1954 -0.7566
  162ccc     C4 4708  10.728   5.017   4.486  0.2857 -0.1256  0.3347
  162ccc     H7 4709  10.763   5.080   4.404  1.9325 -0.5709  0.6437
  162ccc     H8 4710  10.621   5.038   4.496  0.0055 -0.8359 -0.9201
  162ccc     C5 4711  10.742   4.863   4.445  0.1441  0.1829 -0.1081
  162ccc     H9 4712  10.849   4.839   4.433  0.2916  1.3728 -1.5345
  162ccc    H10 4713  10.698   4.801   4.524  0.1886  2.3700  1.7483
  162ccc     C6 4714  10.679   4.837   4.307  0.3056  0.3674 -0.2166
  162ccc     O2 4715  10.630   4.728   4.283 -0.2000  0.2046 -0.0384
  162ccc     O3 4716  10.640   4.935   4.239 -0.2067 -0.6884  0.1980
  162ccc     C7 4717  10.929   5.011   4.640 -0.5696  0.0985  0.5189
  162ccc    H11 4718  10.967   5.062   4.729  1.3734 -0.9708  0.3608
  162ccc    H12 4719  10.944   4.903   4.645  1.1250  0.1583 -1.5982
  162ccc     C8 4720  11.026   5.047   4.529 -0.6583 -0.3567 -0.0397
  162ccc    H13 4721  10.978   5.027   4.432 -0.6931 -2.2821  0.3419
  162ccc    H14 4722  11.049   5.154   4.537 -0.8058 -0.4500  2.5011
  162ccc     C9 4723  11.156   4.973   4.544  0.2265 -0.1165 -0.7004
  162ccc     O4 4724  11.258   5.039   4.555 -0.3707  0.0332 -0.2306
  162ccc     O5 4725  11.166   4.850   4.542  0.1948  0.2079 -0.1219
  162ccc     O1 4726  10.581   4.962   4.992  0.5682  0.2084 -0.0040
  163ccc     C3 4727  10.315   4.823   4.799  0.1129 -0.0430 -0.4146
  163ccc     H5 4728  10.278   4.901   4.867 -0.6942 -1.2715  0.5832
  163ccc     H6 4729  10.423   4.806   4.812 -0.1958 -0.2471  2.5916
  163ccc     C2 4730  10.296   4.885   4.658  0.0105 -0.3393  0.0983
  163ccc     H3 4731  10.328   4.805   4.590 -1.3186 -1.0685  0.2905
  163ccc     H4 4732  10.359   4.971   4.636  0.5111 -0.6912  0.1478
  163ccc     C1 4733  10.148   4.922   4.618  0.5857  0.3243 -0.4802
  163ccc     H1 4734  10.094   4.975   4.698 -0.1365 -0.0199 -0.7286
  163ccc     H2 4735  10.088   4.831   4.605  2.1833 -1.7662  4.3514
  163ccc     N1 4736  10.143   5.004   4.500  0.7603  0.8949  0.4871
  163ccc     C4 4737  10.168   4.932   4.375 -0.0987  0.2572 -0.8778
  163ccc     H7 4738  10.080   4.872   4.350  0.1057  0.2903 -1.6905
  163ccc     H8 4739  10.262   4.876   4.373 -0.1077  0.2370 -0.7594
  163ccc     C5 4740  10.192   5.017   4.254  0.6297 -0.0891  0.4350
  163ccc     H9 4741  10.106   5.085   4.243  0.1686 -0.3807  1.9807
  163ccc    H10 4742  10.269   5.095   4.264  0.5098  0.4488 -2.0452
  163ccc     C6 4743  10.216   4.943   4.131  0.1276  0.9308  0.2332
  163ccc     O2 4744  10.333   4.923   4.091  0.7265  0.6604  0.1555
  163ccc     O3 4745  10.126   4.904   4.064  0.2160 -0.7262  0.1708
  163ccc     C7 4746  10.025   5.096   4.505 -0.0955  0.9434 -0.3213
  163ccc    H11 4747  10.000   5.138   4.407  1.4547  1.9444 -0.3274
  163ccc    H12 4748   9.941   5.033   4.535  0.6877  0.1437  0.2355
  163ccc     C8 4749  10.044   5.212   4.600  0.5213 -0.2836  0.1294
  163ccc    H13 4750  10.060   5.188   4.706  0.3109  1.5525  0.6110
  163ccc    H14 4751  10.120   5.287   4.577  0.4009 -0.0472  0.4910
  163ccc     C9 4752   9.916   5.288   4.608 -0.5945  0.6564 -0.2224
  163ccc     O4 4753   9.885   5.366   4.524 -0.2579  0.8026 -0.0880
  163ccc     O5 4754   9.857   5.287   4.710  0.4850 -0.6032  0.1283
  163ccc     O1 4755  10.241   4.710   4.826  0.7253  0.1383 -0.6759
  164ccc     C3 4756  11.004   3.587   6.762 -0.2200  0.3545 -0.5887
  164ccc     H5 4757  10.981   3.549   6.863 -0.8161  4.8604  1.2299
  164ccc     H6 4758  11.010   3.504   6.691  0.3255 -1.2711  1.2862
  164ccc     C2 4759  11.133   3.680   6.763 -0.3856 -0.0176 -0.1194
  164ccc     H3 4760  11.209   3.641   6.832  1.2172 -1.8043 -2.7297
  164ccc     H4 4761  11.109   3.781   6.798 -0.4329  0.7070 -2.1021
  164ccc     C1 4762  11.205   3.685   6.626  0.6158 -0.7804 -0.0303
  164ccc     H1 4763  11.132   3.732   6.558  1.1334  0.1516  0.0508
  164ccc     H2 4764  11.221   3.581   6.592 -0.4351 -0.6983 -0.8507
  164ccc     N1 4765  11.328   3.754   6.618  0.2664  0.3097  0.0835
  164ccc     C4 4766  11.324   3.898   6.660 -0.4191 -0.1397  0.6698
  164ccc     H7 4767  11.428   3.930   6.670 -0.2522  0.0333 -1.2450
  164ccc     H8 4768  11.285   3.909   6.762 -0.0926  0.1164  0.7711
  164ccc     C5 4769  11.246   3.992   6.566 -0.3989 -0.2208 -0.2347
  164ccc     H9 4770  11.305   4.000   6.473  1.3634  0.0197  0.8462
  164ccc    H10 4771  11.148   3.947   6.546 -0.0094 -0.4948 -1.6935
  164ccc     C6 4772  11.226   4.130   6.619 -0.3899  0.0536 -0.3621
  164ccc     O2 4773  11.132   4.202   6.591  0.0487  0.1495 -0.2158
  164ccc     O3 4774  11.297   4.171   6.711  0.1591  0.2016  0.2561
  164ccc     C7 4775  11.394   3.730   6.489 -0.6022 -0.0477 -0.3525
  164ccc    H11 4776  11.328   3.689   6.412 -2.5916  0.9995  0.7255
  164ccc    H12 4777  11.444   3.817   6.446  2.0764  0.9345  4.0882
  164ccc     C8 4778  11.506   3.628   6.505  0.6645  0.5653  0.6151
  164ccc    H13 4779  11.567   3.662   6.589 -1.5662 -0.1890  2.6679
  164ccc    H14 4780  11.460   3.530   6.525  0.4851  0.2271 -1.2993
  164ccc     C9 4781  11.584   3.629   6.383 -0.1245  0.3200  0.0934
  164ccc     O4 4782  11.685   3.691   6.373 -0.9095 -0.1888  0.1722
  164ccc     O5 4783  11.563   3.560   6.285 -0.6709 -0.4433 -0.2098
  164ccc     O1 4784  10.896   3.681   6.733 -0.2262 -0.3321  0.1076
  165ccc     C3 4785  10.495   3.575   6.082 -0.4438  0.1768  0.5851
  165ccc     H5 4786  10.467   3.654   6.012 -0.3078 -0.5195 -0.2794
  165ccc     H6 4787  10.601   3.580   6.110 -0.2059 -0.2239 -0.2271
  165ccc     C2 4788  10.466   3.446   6.007  0.1814 -0.5314  0.9423
  165ccc     H3 4789  10.531   3.445   5.918 -1.5399 -2.7742 -0.4002
  165ccc     H4 4790  10.363   3.444   5.968  0.2345  2.2606  0.4710
  165ccc     C1 4791  10.485   3.312   6.084  0.8015 -0.3451  0.5208
  165ccc     H1 4792  10.430   3.304   6.179  0.2701 -0.9802  0.1708
  165ccc     H2 4793  10.593   3.317   6.104  1.1969  0.5664 -1.6392
  165ccc     N1 4794  10.447   3.196   6.005 -0.1661  0.0378  0.0599
  165ccc     C4 4795  10.300   3.183   5.993  0.1567  1.0783 -0.4886
  165ccc     H7 4796  10.278   3.177   5.886 -1.8107 -1.4809 -0.0409
  165ccc     H8 4797  10.245   3.263   6.042  0.6684  1.1149  0.0417
  165ccc     C5 4798  10.257   3.056   6.062 -0.0588  0.1421 -0.1933
  165ccc     H9 4799  10.339   2.989   6.088 -1.3307 -0.8430  1.5318
  165ccc    H10 4800  10.234   3.090   6.164  1.2461  0.1552  0.1067
  165ccc     C6 4801  10.152   2.983   5.989 -0.4215 -0.3674 -0.5136
  165ccc     O2 4802  10.177   2.872   5.946  0.0804 -0.0528  0.0806
  165ccc     O3 4803  10.048   3.035   5.945  0.3248 -0.0469  0.6830
  165ccc     C7 4804  10.518   3.179   5.883 -0.2981 -0.4668 -0.4156
  165ccc    H11 4805  10.491   3.249   5.803  1.3779  0.0902 -0.5443
  165ccc    H12 4806  10.620   3.203   5.917 -1.4760 -0.3947  3.5847
  165ccc     C8 4807  10.509   3.033   5.841 -0.7473  0.3586  0.2685
  165ccc    H13 4808  10.552   2.971   5.920  0.3942  0.9510  0.1322
  165ccc    H14 4809  10.403   3.017   5.820 -0.3302  1.9798 -4.1828
  165ccc     C9 4810  10.592   3.009   5.721 -0.2032  0.2799  0.1873
  165ccc     O4 4811  10.653   3.092   5.657  0.4004  0.0794 -0.0813
  165ccc     O5 4812  10.585   2.902   5.670 -0.4601 -0.4354  0.3503
  165ccc     O1 4813  10.420   3.564   6.199 -0.3477 -0.2210  0.2450
  166ccc     C3 4814   9.375   6.899   6.316  0.0998  0.8268  0.0086
  166ccc     H5 4815   9.279   6.849   6.298 -0.0397  1.1965 -0.2887
  166ccc     H6 4816   9.351   6.990   6.373  2.1321  0.5026  1.4928
  166ccc     C2 4817   9.442   6.947   6.182  0.3996 -0.2403 -0.4502
  166ccc     H3 4818   9.523   7.019   6.197  1.1402 -1.1646  0.1366
  166ccc     H4 4819   9.364   6.986   6.116  1.0766  0.3982 -0.8876
  166ccc     C1 4820   9.494   6.822   6.100  0.1348 -0.5431  0.8809
  166ccc     H1 4821   9.404   6.765   6.076  0.6575 -0.2143 -2.2788
  166ccc     H2 4822   9.556   6.755   6.161  1.1104  0.1936  0.7274
  166ccc     N1 4823   9.571   6.850   5.982 -1.3500 -0.2911  0.0372
  166ccc     C4 4824   9.703   6.904   6.004 -0.2012 -0.3366 -0.0799
  166ccc     H7 4825   9.698   6.981   6.082 -0.2497  0.2461 -0.6533
  166ccc     H8 4826   9.751   6.942   5.913  0.7033 -0.4050  0.3493
  166ccc     C5 4827   9.791   6.794   6.057 -0.7507  0.7743  0.1270
  166ccc     H9 4828   9.757   6.757   6.155 -0.4273 -0.3324 -0.1669
  166ccc    H10 4829   9.784   6.711   5.986  1.2579 -1.6361  2.5083
  166ccc     C6 4830   9.928   6.851   6.064  0.0481 -0.6096 -0.9062
  166ccc     O2 4831   9.982   6.878   6.169 -0.1445  0.5730 -0.1520
  166ccc     O3 4832  10.011   6.835   5.980 -0.2606 -0.1732  0.3829
  166ccc     C7 4833   9.503   6.925   5.879 -0.2558  0.1503  0.0784
  166ccc    H11 4834   9.468   7.024   5.911 -0.6562  0.7047 -1.9248
  166ccc    H12 4835   9.575   6.941   5.797 -0.1495 -1.6374 -0.2176
  166ccc     C8 4836   9.385   6.847   5.822 -0.1848  0.1343  0.1550
  166ccc    H13 4837   9.418   6.744   5.804  0.1612  0.3657 -0.5782
  166ccc    H14 4838   9.296   6.854   5.887  0.2981  2.7604  0.6423
  166ccc     C9 4839   9.337   6.903   5.688 -0.2062 -0.0340  0.3407
  166ccc     O4 4840   9.361   6.842   5.582  0.2317  0.1967  0.4262
  166ccc     O5 4841   9.232   6.968   5.685 -0.0225 -0.2380 -0.2054
  166ccc     O1 4842   9.477   6.831   6.385 -0.1965  0.1969  0.3922
  167ccc     C3 4843   9.772   6.179   7.024 -0.2133  0.0335 -0.3876
  167ccc     H5 4844   9.752   6.248   7.108  1.0962  1.0147 -0.8421
  167ccc     H6 4845   9.705   6.094   7.039  1.7927 -1.9665 -2.1156
  167ccc     C2 4846   9.918   6.134   7.017 -0.7775  0.0504 -0.7881
  167ccc     H3 4847   9.979   6.225   7.006 -0.4242  0.0045  0.6226
  167ccc     H4 4848   9.945   6.068   6.934 -0.9084  1.1875 -1.7778
  167ccc     C1 4849   9.958   6.065   7.151 -0.2104 -0.4657  0.6265
  167ccc     H1 4850   9.937   6.138   7.231  0.2457  1.5349 -0.9933
  167ccc     H2 4851  10.065   6.046   7.160 -0.2634 -0.5044  1.2564
  167ccc     N1 4852   9.890   5.939   7.179 -0.0841  0.3219  1.4514
  167ccc     C4 4853   9.888   5.830   7.075  0.3835  0.1243 -0.1104
  167ccc     H7 4854   9.842   5.872   6.984 -0.6941 -0.3808  0.1800
  167ccc     H8 4855   9.820   5.748   7.102  0.3438  0.1727 -0.0623
  167ccc     C5 4856  10.032   5.777   7.040  0.6984 -0.2837 -0.1873
  167ccc     H9 4857  10.109   5.850   7.013  0.3666 -0.7124 -2.6025
  167ccc    H10 4858  10.064   5.728   7.133  1.6710  3.8913  1.9195
  167ccc     C6 4859  10.020   5.680   6.928 -0.8033 -0.2861  0.0418
  167ccc     O2 4860  10.111   5.652   6.851  0.0178 -0.2873  0.0277
  167ccc     O3 4861   9.928   5.603   6.913  0.0357  0.5854 -0.7596
  167ccc     C7 4862   9.902   5.895   7.322  0.2227 -0.3657  0.2388
  167ccc    H11 4863  10.000   5.848   7.337  0.0686  0.4243  5.1597
  167ccc    H12 4864   9.896   5.981   7.389 -0.9095  1.5504 -2.1428
  167ccc     C8 4865   9.797   5.789   7.361  0.6281 -0.6463  0.7220
  167ccc    H13 4866   9.696   5.821   7.331  0.8007 -0.9034 -0.1503
  167ccc    H14 4867   9.814   5.697   7.304 -1.8919 -0.2716 -0.7719
  167ccc     C9 4868   9.803   5.769   7.509 -0.1543 -0.0337 -0.3615
  167ccc     O4 4869   9.761   5.669   7.565  0.2854  0.0120 -0.1649
  167ccc     O5 4870   9.835   5.856   7.586  0.0792 -0.1150 -0.1017
  167ccc     O1 4871   9.736   6.239   6.900  0.0348  0.5290 -0.1029
  168ccc     C3 4872   9.593   7.312   5.001 -0.2025  0.0601  0.2703
  168ccc     H5 4873   9.577   7.421   5.001  0.4514  0.1700 -0.4909
  168ccc     H6 4874   9.665   7.302   4.919 -0.7269 -1.4664 -0.0389
  168ccc     C2 4875   9.465   7.228   4.978  0.2353 -0.5596 -0.1213
  168ccc     H3 4876   9.470   7.128   5.022 -0.6447  0.2223  1.8825
  168ccc     H4 4877   9.458   7.207   4.871 -1.5356  2.3199 -0.6582
  168ccc     C1 4878   9.333   7.300   5.005 -0.2385 -0.1300 -0.1324
  168ccc     H1 4879   9.315   7.376   4.928 -1.7234 -0.5920 -0.2683
  168ccc     H2 4880   9.339   7.359   5.098  0.0572  1.2818 -1.0220
  168ccc     N1 4881   9.227   7.199   5.016  0.7139  0.7297  0.4872
  168ccc     C4 4882   9.241   7.118   5.138 -1.0022  0.0469 -0.1142
  168ccc     H7 4883   9.201   7.177   5.221 -2.2823 -1.0623  0.1057
  168ccc     H8 4884   9.346   7.101   5.163 -1.3018  0.1339  1.3164
  168ccc     C5 4885   9.173   6.988   5.126  0.2657  0.3344  0.0176
  168ccc     H9 4886   9.065   6.992   5.107  0.2545  3.2854  0.2658
  168ccc    H10 4887   9.200   6.929   5.038 -0.6878 -0.4126  0.2094
  168ccc     C6 4888   9.185   6.910   5.255  0.0421 -0.0408 -0.8152
  168ccc     O2 4889   9.077   6.881   5.312 -0.0785 -0.2035  0.5741
  168ccc     O3 4890   9.285   6.903   5.324  0.2920 -0.3649  0.1127
  168ccc     C7 4891   9.093   7.251   4.998  0.1029  0.4970 -0.5229
  168ccc    H11 4892   9.023   7.185   5.051  2.4109 -1.7460 -0.0481
  168ccc    H12 4893   9.093   7.344   5.056 -0.7695  0.6639 -0.7680
  168ccc     C8 4894   9.057   7.270   4.848 -0.1393 -0.6874  0.4950
  168ccc    H13 4895   9.108   7.356   4.803 -1.2744  0.8781  2.0933
  168ccc    H14 4896   9.062   7.188   4.775  0.6300 -0.0038 -0.2385
  168ccc     C9 4897   8.910   7.304   4.851 -0.4216 -0.7156 -0.6411
  168ccc     O4 4898   8.824   7.215   4.846 -1.1740 -0.5226 -0.2248
  168ccc     O5 4899   8.872   7.419   4.866 -0.6612  0.9396  0.1346
  168ccc     O1 4900   9.653   7.270   5.128 -0.1350  0.3182 -0.2788
  169ccc     C3 4901  10.468   6.900   5.343 -0.1292 -0.4290 -0.8532
  169ccc     H5 4902  10.417   6.811   5.306  2.0693 -1.4580 -1.6039
  169ccc     H6 4903  10.545   6.934   5.273 -1.0331  0.8641 -1.2582
  169ccc     C2 4904  10.532   6.867   5.479  0.3117  0.3846 -0.3368
  169ccc     H3 4905  10.630   6.819   5.471  1.3015  1.8353  2.1017
  169ccc     H4 4906  10.457   6.808   5.533  0.0688  0.6709 -0.3581
  169ccc     C1 4907  10.571   7.000   5.557  0.4248  0.9249  0.2463
  169ccc     H1 4908  10.478   7.057   5.566 -1.6702 -1.8483 -2.1989
  169ccc     H2 4909  10.644   7.048   5.490  0.8661 -0.1597 -0.0686
  169ccc     N1 4910  10.613   6.986   5.699  0.3788  0.9449  0.4014
  169ccc     C4 4911  10.742   6.904   5.703  0.0079  0.3978 -0.8913
  169ccc     H7 4912  10.804   6.930   5.617  1.2154  0.9656  0.1170
  169ccc     H8 4913  10.723   6.797   5.694 -2.4958  0.7890 -0.9158
  169ccc     C5 4914  10.825   6.910   5.828 -0.1441 -0.1806 -0.1784
  169ccc     H9 4915  10.860   7.012   5.851 -0.5486 -0.6757  3.1442
  169ccc    H10 4916  10.764   6.890   5.917  1.2786  0.5497  1.0241
  169ccc     C6 4917  10.945   6.828   5.825 -0.2988 -0.6397 -0.5343
  169ccc     O2 4918  10.965   6.743   5.906  0.6576  0.1536  0.6725
  169ccc     O3 4919  11.024   6.839   5.733 -0.2874 -0.0892 -0.7999
  169ccc     C7 4920  10.519   6.921   5.779  1.2056  0.2067 -0.1266
  169ccc    H11 4921  10.420   6.944   5.739  0.7591 -1.7298 -0.2124
  169ccc    H12 4922  10.531   6.812   5.769  0.5892  0.1549 -0.3517
  169ccc     C8 4923  10.510   6.966   5.923 -0.3450  0.1050 -0.3597
  169ccc    H13 4924  10.560   6.889   5.983 -1.3168 -0.9469 -0.8441
  169ccc    H14 4925  10.558   7.063   5.935 -0.5064  0.0752  0.6268
  169ccc     C9 4926  10.364   6.969   5.967  0.5158  0.5702  0.1806
  169ccc     O4 4927  10.304   7.069   5.942  0.1196  0.3012  0.0200
  169ccc     O5 4928  10.305   6.873   6.016  0.1641 -0.1574  0.2249
  169ccc     O1 4929  10.372   7.013   5.353 -0.4492  0.5558  0.5372
  170ccc     C3 4930  11.024   6.025   5.472  0.0033 -0.5778 -0.5027
  170ccc     H5 4931  10.987   6.008   5.574  1.1688 -0.5970 -0.0687
  170ccc     H6 4932  11.015   6.134   5.459 -1.3496 -0.8282 -1.9666
  170ccc     C2 4933  10.926   5.960   5.370 -1.2699 -0.3578 -0.1151
  170ccc     H3 4934  10.825   6.001   5.381 -0.6554  1.0165  0.6234
  170ccc     H4 4935  10.924   5.852   5.388 -2.0018 -0.3749 -0.2682
  170ccc     C1 4936  10.973   5.968   5.230  0.4967 -0.5312 -0.8129
  170ccc     H1 4937  10.910   5.899   5.171 -3.4310  2.0841 -0.0032
  170ccc     H2 4938  11.079   5.940   5.218  1.1043  1.8806 -1.7072
  170ccc     N1 4939  10.956   6.104   5.178 -0.2976 -0.0226  0.0844
  170ccc     C4 4940  10.831   6.110   5.107 -0.1603  0.6391 -0.5026
  170ccc     H7 4941  10.754   6.054   5.161  0.1950  0.4593 -0.1821
  170ccc     H8 4942  10.847   6.063   5.009  0.3639 -1.6451  0.6190
  170ccc     C5 4943  10.765   6.246   5.100 -0.1984 -0.3881  0.5313
  170ccc     H9 4944  10.719   6.281   5.193 -0.8175 -1.8544  0.8113
  170ccc    H10 4945  10.838   6.316   5.058 -0.1126 -0.2445  0.9166
  170ccc     C6 4946  10.651   6.260   5.003  0.4145  0.3593  0.4187
  170ccc     O2 4947  10.537   6.228   5.036 -0.4268  0.3842  0.1235
  170ccc     O3 4948  10.669   6.286   4.884  0.6993 -0.7665 -0.3364
  170ccc     C7 4949  11.074   6.155   5.103 -0.6118 -0.3256  0.0501
  170ccc    H11 4950  11.092   6.094   5.013  0.7847  0.7663 -0.4626
  170ccc    H12 4951  11.042   6.256   5.075  1.3802  0.0705 -1.0138
  170ccc     C8 4952  11.205   6.178   5.177 -0.0349  0.1161  0.4144
  170ccc    H13 4953  11.196   6.222   5.277 -2.8884  0.8164 -0.0394
  170ccc    H14 4954  11.247   6.077   5.184 -3.8279 -1.7259 -0.3613
  170ccc     C9 4955  11.301   6.257   5.093 -0.1236 -0.6765  0.3653
  170ccc     O4 4956  11.295   6.374   5.077  0.4585 -0.3487 -0.1813
  170ccc     O5 4957  11.411   6.206   5.062  0.4777 -0.3005  0.2599
  170ccc     O1 4958  11.156   5.973   5.451  0.4625 -0.3125 -0.4375
  171ccc     C3 4959  10.889   5.999   6.371 -0.3374 -0.6129  0.1754
  171ccc     H5 4960  10.790   6.044   6.364 -0.5242 -1.0268  0.0948
  171ccc     H6 4961  10.875   5.916   6.442 -0.4675 -0.5015  0.2810
  171ccc     C2 4962  10.995   6.105   6.406  0.8367  0.3369 -0.5209
  171ccc     H3 4963  11.098   6.067   6.411  1.3924  1.8724  0.5252
  171ccc     H4 4964  10.979   6.143   6.507  0.0927  0.8254 -0.8166
  171ccc     C1 4965  10.999   6.232   6.318  0.1018  1.0342  0.0379
  171ccc     H1 4966  10.923   6.300   6.357  0.3140  0.7786  0.9220
  171ccc     H2 4967  10.973   6.198   6.217 -2.3306 -2.2715  1.5716
  171ccc     N1 4968  11.131   6.296   6.323  0.0164 -0.5304  0.1352
  171ccc     C4 4969  11.173   6.329   6.463  0.8271  0.4223 -0.8493
  171ccc     H7 4970  11.241   6.248   6.495 -0.7437 -0.5215  0.2242
  171ccc     H8 4971  11.088   6.339   6.532  1.5835  1.0329  0.0165
  171ccc     C5 4972  11.269   6.441   6.482 -1.1592 -0.7129 -0.0781
  171ccc     H9 4973  11.361   6.442   6.422  0.6951  2.9775  2.4235
  171ccc    H10 4974  11.214   6.534   6.465 -2.4259 -1.3931  0.2150
  171ccc     C6 4975  11.317   6.444   6.625  0.2708  0.2512 -0.0939
  171ccc     O2 4976  11.294   6.545   6.684  0.1420 -0.1001  0.6224
  171ccc     O3 4977  11.343   6.346   6.692 -0.1103 -0.3998 -0.1509
  171ccc     C7 4978  11.153   6.402   6.219  0.8476  0.2027 -0.1085
  171ccc    H11 4979  11.070   6.471   6.238 -1.9819 -2.8497 -0.4397
  171ccc    H12 4980  11.251   6.448   6.237 -0.2960  2.2778  1.2275
  171ccc     C8 4981  11.147   6.360   6.076  0.3519  0.1166 -0.0531
  171ccc    H13 4982  11.227   6.287   6.058  0.6339  0.5206 -0.4675
  171ccc    H14 4983  11.052   6.311   6.054  0.5011  0.6955 -2.1407
  171ccc     C9 4984  11.158   6.479   5.985 -0.1034 -0.4313 -0.3811
  171ccc     O4 4985  11.248   6.557   6.005 -0.2685 -0.2885 -0.4626
  171ccc     O5 4986  11.088   6.489   5.886 -0.1085 -0.0130 -0.0287
  171ccc     O1 4987  10.917   5.951   6.236  0.2332  0.2859  0.4265
  172ccc     C3 4988  10.324   5.472   4.654  1.2409  0.4454 -0.6472
  172ccc     H5 4989  10.303   5.458   4.547  1.4934  1.0601 -0.7773
  172ccc     H6 4990  10.298   5.377   4.703  0.0825  1.0861  0.0173
  172ccc     C2 4991  10.222   5.571   4.712 -0.0248 -0.4390  0.0762
  172ccc     H3 4992  10.231   5.580   4.821  0.5751 -0.5561  0.0426
  172ccc     H4 4993  10.122   5.532   4.692 -0.1760 -0.5807  1.0644
  172ccc     C1 4994  10.243   5.710   4.642  0.0245  0.5435 -0.3354
  172ccc     H1 4995  10.244   5.707   4.532  1.2700  2.4331 -0.4206
  172ccc     H2 4996  10.346   5.737   4.665 -0.0307 -0.2724  1.0161
  172ccc     N1 4997  10.149   5.818   4.689  0.2025 -0.7279 -0.8629
  172ccc     C4 4998  10.007   5.769   4.692 -0.8366 -0.0649 -0.2853
  172ccc     H7 4999   9.946   5.856   4.720 -0.7252  0.0805 -0.4917
  172ccc     H8 5000  10.007   5.694   4.771  0.3334 -0.0598 -0.2588
  172ccc     C5 5001   9.961   5.716   4.562 -0.1103 -0.9232 -0.0772
  172ccc     H9 5002   9.937   5.795   4.489 -0.0258 -0.8802 -0.0590
  172ccc    H10 5003  10.023   5.636   4.521 -0.6179 -1.0845 -0.5543
  172ccc     C6 5004   9.827   5.659   4.581  0.2760 -0.4811  0.9065
  172ccc     O2 5005   9.783   5.633   4.691 -0.2620 -0.3736 -0.3923
  172ccc     O3 5006   9.753   5.609   4.493 -0.8670  0.1000 -0.0031
  172ccc     C7 5007  10.200   5.884   4.809 -0.0126 -0.3401 -0.6684
  172ccc    H11 5008  10.180   5.818   4.895  3.8251 -0.4512  0.3429
  172ccc    H12 5009  10.309   5.899   4.805  0.3087 -1.6463  1.4669
  172ccc     C8 5010  10.146   6.029   4.834 -0.5994  0.6042  0.2227
  172ccc    H13 5011  10.165   6.097   4.750  1.6079 -0.4742 -0.2147
  172ccc    H14 5012  10.037   6.036   4.850 -0.6390 -0.3347  0.4194
  172ccc     C9 5013  10.222   6.090   4.950  0.7008  0.5724  0.2242
  172ccc     O4 5014  10.236   6.029   5.051 -0.0423  0.3907 -0.0769
  172ccc     O5 5015  10.271   6.203   4.940  0.2679 -0.6383 -0.3232
  172ccc     O1 5016  10.450   5.511   4.688 -0.3215 -0.3460  0.0259
  173ccc     C3 5017  11.347   5.877   4.466 -0.2026 -0.6405  0.4031
  173ccc     H5 5018  11.370   5.772   4.492 -0.5854 -0.6959  0.5352
  173ccc     H6 5019  11.341   5.883   4.357 -0.2279  1.0338  0.4806
  173ccc     C2 5020  11.445   5.975   4.530  0.3670 -0.3625 -0.0072
  173ccc     H3 5021  11.445   5.956   4.638  0.3945  1.5728  0.3728
  173ccc     H4 5022  11.394   6.072   4.529 -2.0315 -1.5683 -0.7823
  173ccc     C1 5023  11.580   5.986   4.457 -0.1573  0.5484  0.1773
  173ccc     H1 5024  11.556   5.978   4.350  1.6646 -1.8501 -0.1567
  173ccc     H2 5025  11.640   5.898   4.485 -0.7572  0.7786  2.3207
  173ccc     N1 5026  11.648   6.110   4.495 -0.4573 -0.2913  0.0774
  173ccc     C4 5027  11.699   6.103   4.631 -0.2503  0.2277 -0.0934
  173ccc     H7 5028  11.782   6.030   4.632 -2.4579 -2.5453 -2.3093
  173ccc     H8 5029  11.614   6.061   4.687 -0.1108  0.1083  0.0327
  173ccc     C5 5030  11.735   6.233   4.695 -0.0127  0.5202  0.9442
  173ccc     H9 5031  11.837   6.263   4.667 -0.0452 -0.7381 -0.6914
  173ccc    H10 5032  11.669   6.313   4.660 -2.0206  0.0108  3.3379
  173ccc     C6 5033  11.739   6.225   4.842 -0.5460  0.3845 -0.0443
  173ccc     O2 5034  11.836   6.171   4.887 -0.3260  0.1707  0.1325
  173ccc     O3 5035  11.649   6.259   4.916  0.5419  0.1534 -0.1221
  173ccc     C7 5036  11.754   6.143   4.395  0.6468 -0.0752 -0.2824
  173ccc    H11 5037  11.801   6.234   4.435  0.2729 -0.4938  1.1951
  173ccc    H12 5038  11.830   6.065   4.386  1.8420  1.1734 -1.4661
  173ccc     C8 5039  11.704   6.170   4.255  0.1632  0.1137 -0.5756
  173ccc    H13 5040  11.712   6.074   4.203  2.5019  0.6480 -1.3589
  173ccc    H14 5041  11.606   6.219   4.258 -0.5206 -1.2298 -0.1330
  173ccc     C9 5042  11.784   6.265   4.171 -0.3341  0.0676  0.3062
  173ccc     O4 5043  11.830   6.371   4.211  0.1274  0.2002  0.1270
  173ccc     O5 5044  11.789   6.237   4.052 -0.2586  0.1283  0.6045
  173ccc     O1 5045  11.218   5.909   4.528 -0.6246 -0.2099  0.2105
  174ccc     C3 5046   7.735   4.533   7.395 -0.1319 -0.7118  0.0213
  174ccc     H5 5047   7.798   4.591   7.464  1.3916 -2.0729 -0.1606
  174ccc     H6 5048   7.650   4.598   7.371  0.0271 -0.2839  0.5954
  174ccc     C2 5049   7.702   4.412   7.487  0.3524 -0.1908  0.4329
  174ccc     H3 5050   7.649   4.450   7.575 -1.4460  1.8366 -1.4220
  174ccc     H4 5051   7.793   4.367   7.529  1.1081 -0.5524 -1.4841
  174ccc     C1 5052   7.610   4.306   7.415  0.0811 -0.3619 -0.4229
  174ccc     H1 5053   7.642   4.293   7.310  3.0822 -1.6564  0.5427
  174ccc     H2 5054   7.510   4.349   7.424 -0.3469 -1.2459 -0.7941
  174ccc     N1 5055   7.628   4.175   7.481  0.4780  0.1385  0.1576
  174ccc     C4 5056   7.575   4.063   7.397 -0.2727  0.1222 -0.4302
  174ccc     H7 5057   7.623   3.968   7.420  1.5274  0.4267 -2.6489
  174ccc     H8 5058   7.608   4.087   7.295 -1.2650  2.3180 -0.3039
  174ccc     C5 5059   7.424   4.042   7.391 -0.1118  0.3149  0.1282
  174ccc     H9 5060   7.369   4.130   7.427 -1.5923 -0.3223 -0.5055
  174ccc    H10 5061   7.389   4.031   7.288  0.3151 -3.3793  0.2626
  174ccc     C6 5062   7.374   3.915   7.460 -0.5265  0.0391 -0.7463
  174ccc     O2 5063   7.378   3.807   7.410 -0.6631 -0.5238  0.4192
  174ccc     O3 5064   7.303   3.932   7.559 -0.1124 -0.4788 -0.0009
  174ccc     C7 5065   7.580   4.181   7.624 -0.0450  0.0650 -0.0081
  174ccc    H11 5066   7.610   4.268   7.684 -0.1894 -0.3685  0.7042
  174ccc    H12 5067   7.471   4.188   7.613  0.0144  0.1557 -0.5637
  174ccc     C8 5068   7.612   4.054   7.700 -0.3096  0.5141 -0.6697
  174ccc    H13 5069   7.590   3.965   7.640 -0.6334 -0.7460  1.2245
  174ccc    H14 5070   7.719   4.051   7.723 -0.4101  0.9660 -0.1054
  174ccc     C9 5071   7.526   4.037   7.822 -0.5027 -0.3439 -0.8011
  174ccc     O4 5072   7.520   4.127   7.901 -0.1802 -0.2496 -0.2897
  174ccc     O5 5073   7.446   3.950   7.832  0.2864 -0.2127 -0.4265
  174ccc     O1 5074   7.818   4.492   7.282  0.1736  0.1258 -0.5012
  175ccc     C3 5075   8.093   3.894   7.659  0.4009  0.8819 -0.4892
  175ccc     H5 5076   8.174   3.847   7.602  0.9302 -0.5474  1.3284
  175ccc     H6 5077   8.139   3.914   7.757  0.8443 -1.7351 -0.1113
  175ccc     C2 5078   7.979   3.793   7.678 -0.0982  0.4603  0.1393
  175ccc     H3 5079   7.913   3.829   7.758 -0.6516 -0.6698  0.2125
  175ccc     H4 5080   8.039   3.709   7.717  0.5065 -0.4603 -2.5721
  175ccc     C1 5081   7.911   3.753   7.545  0.3322 -0.4775  0.5753
  175ccc     H1 5082   7.997   3.720   7.485 -1.1399  1.0765 -2.6223
  175ccc     H2 5083   7.860   3.838   7.500  1.0235 -0.2610  0.1951
  175ccc     N1 5084   7.809   3.646   7.562 -0.1206  0.8644  0.4705
  175ccc     C4 5085   7.799   3.576   7.429  0.1188 -0.4557  0.0358
  175ccc     H7 5086   7.737   3.490   7.459 -1.6136  1.4035  2.1454
  175ccc     H8 5087   7.896   3.530   7.405  0.3306  0.1709 -0.3342
  175ccc     C5 5088   7.743   3.660   7.317  0.0509  0.1225 -0.6071
  175ccc     H9 5089   7.673   3.731   7.363 -1.6782 -1.9844  0.2336
  175ccc    H10 5090   7.826   3.709   7.264  0.5998 -1.9711 -1.8323
  175ccc     C6 5091   7.667   3.572   7.219 -0.6135  0.4263 -0.0710
  175ccc     O2 5092   7.545   3.556   7.230 -0.3172 -0.2491 -0.7365
  175ccc     O3 5093   7.729   3.533   7.122 -0.4644  1.0866 -0.0278
  175ccc     C7 5094   7.684   3.705   7.633 -0.3763 -0.0324  0.4299
  175ccc    H11 5095   7.711   3.755   7.727  1.4093 -1.6967  0.8822
  175ccc    H12 5096   7.637   3.780   7.569 -0.9304 -1.7108 -1.2083
  175ccc     C8 5097   7.580   3.594   7.661 -0.0441 -0.3793  0.8984
  175ccc    H13 5098   7.534   3.565   7.566 -0.2239  1.2784  0.4514
  175ccc    H14 5099   7.611   3.509   7.722 -0.2861  0.0504  1.6377
  175ccc     C9 5100   7.470   3.643   7.743 -0.1391 -0.5335  0.0354
  175ccc     O4 5101   7.370   3.689   7.695  0.2336 -0.3141 -0.2472
  175ccc     O5 5102   7.470   3.635   7.868 -0.6803 -0.0967  1.0737
  175ccc     O1 5103   8.037   4.011   7.599 -1.0494 -0.0055  0.2159
  176ccc     C3 5104   9.144   3.353   7.414 -0.0371  0.0866 -0.2111
  176ccc     H5 5105   9.230   3.407   7.456 -0.2113 -1.6237  2.6032
  176ccc     H6 5106   9.150   3.253   7.459  1.7631  0.4284  0.3711
  176ccc     C2 5107   9.140   3.350   7.259  0.1363 -0.6985  0.1608
  176ccc     H3 5108   9.068   3.423   7.220  1.0298 -0.1225 -0.4591
  176ccc     H4 5109   9.095   3.253   7.234 -0.6804 -0.1649 -0.5023
  176ccc     C1 5110   9.277   3.374   7.187 -0.2212  0.3247  0.2875
  176ccc     H1 5111   9.355   3.361   7.263 -0.8818 -0.5958  0.8248
  176ccc     H2 5112   9.285   3.479   7.156 -0.4862 -0.0391 -1.0741
  176ccc     N1 5113   9.305   3.283   7.064 -0.9143 -0.5037 -0.2376
  176ccc     C4 5114   9.447   3.313   7.009  0.9082  0.4175  0.5931
  176ccc     H7 5115   9.450   3.419   6.981  0.8890 -0.1221 -1.6237
  176ccc     H8 5116   9.472   3.249   6.924  1.9813  0.2953  0.9871
  176ccc     C5 5117   9.562   3.295   7.106  0.2482 -0.0134  0.4327
  176ccc     H9 5118   9.550   3.349   7.201  2.3542  0.0673  0.7009
  176ccc    H10 5119   9.575   3.189   7.128  0.4214 -1.1868 -4.2856
  176ccc     C6 5120   9.685   3.350   7.044 -0.9512 -0.2089  0.7564
  176ccc     O2 5121   9.691   3.473   7.037 -0.1953  0.3705  0.6146
  176ccc     O3 5122   9.788   3.287   7.038  0.3504  0.4883 -0.1935
  176ccc     C7 5123   9.205   3.306   6.962 -0.5734 -1.1983 -0.6236
  176ccc    H11 5124   9.113   3.265   7.005 -0.0225  0.0186  1.8783
  176ccc    H12 5125   9.192   3.413   6.942  0.4351 -0.9150  0.1780
  176ccc     C8 5126   9.231   3.216   6.843 -0.4015 -0.5493 -0.0208
  176ccc    H13 5127   9.322   3.244   6.788  0.0889  1.5197  1.6936
  176ccc    H14 5128   9.256   3.115   6.878 -1.8995 -1.0367 -0.3122
  176ccc     C9 5129   9.119   3.197   6.746 -0.3950  0.2126 -0.4756
  176ccc     O4 5130   9.021   3.129   6.774 -0.1942  0.1496  0.0934
  176ccc     O5 5131   9.100   3.287   6.667  0.5610 -0.4397  0.3256
  176ccc     O1 5132   9.024   3.413   7.471 -0.9357  0.7381 -0.5856
  177ccc     C3 5133   8.587   3.797   7.982 -0.2326  0.0415 -0.0052
  177ccc     H5 5134   8.681   3.837   7.941  0.8964 -0.3791  2.0349
  177ccc     H6 5135   8.518   3.877   8.013  0.0960  0.6561 -0.8365
  177ccc     C2 5136   8.615   3.716   8.114 -0.1433 -0.7014  0.3899
  177ccc     H3 5137   8.647   3.615   8.085  1.0664  0.2240 -1.7458
  177ccc     H4 5138   8.521   3.711   8.169 -0.2108  1.4574  0.5613
  177ccc     C1 5139   8.725   3.786   8.200 -0.2927 -0.1889 -0.4829
  177ccc     H1 5140   8.695   3.883   8.240  1.3329 -0.4509  1.4903
  177ccc     H2 5141   8.806   3.808   8.129  0.1160  1.8360  0.5415
  177ccc     N1 5142   8.783   3.706   8.305  0.2617  0.3805  0.0518
  177ccc     C4 5143   8.892   3.778   8.368 -0.6712 -0.3459 -0.8159
  177ccc     H7 5144   8.902   3.742   8.471 -3.7427 -2.3795 -1.0800
  177ccc     H8 5145   8.868   3.885   8.367 -0.0937 -0.1708  0.8910
  177ccc     C5 5146   9.028   3.760   8.297 -0.0801  0.1674  0.5151
  177ccc     H9 5147   9.068   3.658   8.308  0.7095  0.6713  2.8469
  177ccc    H10 5148   9.016   3.771   8.189 -0.3512 -4.4170 -0.1328
  177ccc     C6 5149   9.138   3.855   8.340  0.0328 -0.1459 -1.0390
  177ccc     O2 5150   9.207   3.821   8.432  0.0497  0.5549  0.3728
  177ccc     O3 5151   9.191   3.939   8.266 -0.6828  0.2109 -1.0697
  177ccc     C7 5152   8.805   3.562   8.279 -0.7319 -0.3725  0.8427
  177ccc    H11 5153   8.719   3.506   8.240  2.1467 -4.5856 -0.0427
  177ccc    H12 5154   8.884   3.552   8.203 -1.3930  0.5868 -0.0029
  177ccc     C8 5155   8.842   3.488   8.409 -0.2737  0.0351  0.3240
  177ccc    H13 5156   8.940   3.522   8.444  0.0490  0.3902 -0.8595
  177ccc    H14 5157   8.772   3.491   8.493 -0.8264 -1.5181 -0.0465
  177ccc     C9 5158   8.856   3.344   8.380  0.7202  0.3126 -0.0615
  177ccc     O4 5159   8.962   3.297   8.408  0.6515 -0.5340 -0.3251
  177ccc     O5 5160   8.761   3.271   8.360  0.0512 -0.3120  0.3729
  177ccc     O1 5161   8.513   3.709   7.894 -0.1534 -0.4744  0.4720
  178ccc     C3 5162   7.510   4.727   5.871 -0.1241 -0.7900  0.0462
  178ccc     H5 5163   7.535   4.627   5.833  0.6134  0.0495 -1.8331
  178ccc     H6 5164   7.409   4.738   5.831 -0.2714 -0.1543  0.5933
  178ccc     C2 5165   7.597   4.845   5.824 -0.4384  0.8635  0.2724
  178ccc     H3 5166   7.688   4.853   5.885 -0.1048  0.3363 -0.1462
  178ccc     H4 5167   7.542   4.939   5.834 -0.3412  0.8260  1.2217
  178ccc     C1 5168   7.641   4.818   5.681 -0.4866  0.3250 -0.1881
  178ccc     H1 5169   7.551   4.831   5.619 -0.4903  0.4720 -0.1527
  178ccc     H2 5170   7.672   4.714   5.667 -0.8242  0.0435  1.0853
  178ccc     N1 5171   7.753   4.894   5.625  0.5027 -0.2588 -0.7000
  178ccc     C4 5172   7.717   5.037   5.626 -0.6920 -0.2455 -0.6350
  178ccc     H7 5173   7.801   5.101   5.599 -0.6163 -0.1471 -0.1814
  178ccc     H8 5174   7.682   5.065   5.727  0.1800 -1.0505 -0.0902
  178ccc     C5 5175   7.617   5.068   5.522  1.1747  0.0061  0.1318
  178ccc     H9 5176   7.660   5.044   5.423 -1.2434  2.1018 -1.5605
  178ccc    H10 5177   7.526   5.006   5.519  1.0615  0.1870 -0.6689
  178ccc     C6 5178   7.581   5.212   5.523  0.2555 -0.8966  0.8070
  178ccc     O2 5179   7.653   5.299   5.474 -0.4677  0.0218 -0.5028
  178ccc     O3 5180   7.482   5.252   5.583  0.0090 -0.0302 -0.3565
  178ccc     C7 5181   7.870   4.877   5.706  0.5987 -0.1679 -0.0343
  178ccc    H11 5182   7.849   4.931   5.799 -0.9655  0.6871 -0.8283
  178ccc    H12 5183   7.884   4.770   5.724 -0.5612 -0.4642 -0.7511
  178ccc     C8 5184   7.999   4.933   5.644  0.1999  0.5320 -0.2196
  178ccc    H13 5185   8.012   4.896   5.542  1.2474  1.1653 -0.3300
  178ccc    H14 5186   7.998   5.042   5.636  1.2572  0.5196 -0.6082
  178ccc     C9 5187   8.121   4.903   5.719  1.1524  0.1008  0.0251
  178ccc     O4 5188   8.162   4.981   5.800  0.0796 -0.4248  0.2258
  178ccc     O5 5189   8.209   4.834   5.668 -0.2047  0.3207 -0.0693
  178ccc     O1 5190   7.499   4.732   6.007 -0.3312 -0.0820 -0.2011
  179ccc     C3 5191   7.144   4.064   6.223 -0.5282  0.7881 -0.1994
  179ccc     H5 5192   7.056   4.067   6.289 -1.4420  0.6114 -1.3929
  179ccc     H6 5193   7.134   4.130   6.136 -0.7356 -0.1126 -0.8678
  179ccc     C2 5194   7.138   3.919   6.169 -0.4617  0.0937  0.0607
  179ccc     H3 5195   7.151   3.842   6.246 -1.9624  1.0776  1.3572
  179ccc     H4 5196   7.228   3.912   6.108 -0.4539  1.1910 -0.0826
  179ccc     C1 5197   7.016   3.884   6.075 -0.2748  0.0123  0.2557
  179ccc     H1 5198   6.935   3.924   6.137 -0.5177 -1.1466  0.6992
  179ccc     H2 5199   6.998   3.777   6.059  0.9229 -0.2179  0.3129
  179ccc     N1 5200   7.034   3.958   5.939  0.0151 -0.0087 -1.0305
  179ccc     C4 5201   7.110   3.877   5.846 -0.3624 -1.0965  0.1102
  179ccc     H7 5202   7.049   3.797   5.802 -0.5461  0.8547 -3.5666
  179ccc     H8 5203   7.194   3.828   5.897  0.8015  1.1551  0.4863
  179ccc     C5 5204   7.174   3.954   5.731  0.3322 -0.3453  0.4169
  179ccc     H9 5205   7.107   4.019   5.674  0.0590 -2.6829 -2.1181
  179ccc    H10 5206   7.249   4.027   5.763  2.5360 -2.1771 -0.3351
  179ccc     C6 5207   7.245   3.859   5.639  0.0966 -0.2464  0.7753
  179ccc     O2 5208   7.329   3.783   5.689  0.4168  0.0516  0.0785
  179ccc     O3 5209   7.247   3.880   5.516 -0.0398 -0.5170  0.1602
  179ccc     C7 5210   6.905   4.004   5.897  0.7144 -0.2315 -0.4284
  179ccc    H11 5211   6.875   4.070   5.979  3.6078  2.3436 -1.2658
  179ccc    H12 5212   6.911   4.065   5.805 -2.0913 -1.2606 -1.4061
  179ccc     C8 5213   6.800   3.893   5.868  0.0063 -0.4412 -0.0298
  179ccc    H13 5214   6.826   3.828   5.784 -1.5775 -1.6893  0.3921
  179ccc    H14 5215   6.785   3.827   5.954 -1.0520  2.5663  2.2650
  179ccc     C9 5216   6.665   3.946   5.836 -0.3091  0.7189 -0.5937
  179ccc     O4 5217   6.565   3.875   5.861 -0.2804 -0.2893  0.0426
  179ccc     O5 5218   6.646   4.046   5.768  0.2597  0.1506 -0.4008
  179ccc     O1 5219   7.272   4.089   6.283 -0.4827 -0.4580  0.2338
  180ccc     C3 5220   8.282   3.450   6.276 -0.5259 -0.1892  0.6996
  180ccc     H5 5221   8.235   3.478   6.181  0.0125 -0.2539  0.4065
  180ccc     H6 5222   8.389   3.432   6.260 -0.7936  0.5845 -2.6705
  180ccc     C2 5223   8.217   3.319   6.306  0.0870  0.2982  0.2046
  180ccc     H3 5224   8.195   3.262   6.215 -3.1996  0.3424  0.8387
  180ccc     H4 5225   8.119   3.341   6.350 -0.2229 -1.0717  0.2726
  180ccc     C1 5226   8.307   3.221   6.390 -0.1935 -0.0609 -0.6920
  180ccc     H1 5227   8.312   3.257   6.493  1.0760  0.9609 -1.0930
  180ccc     H2 5228   8.406   3.224   6.344 -0.5825  0.6789 -1.5181
  180ccc     N1 5229   8.262   3.083   6.395 -0.3084 -0.1813  0.5819
  180ccc     C4 5230   8.367   2.994   6.454 -0.5456 -0.3596  0.4360
  180ccc     H7 5231   8.395   3.021   6.557  1.3468 -2.1897  0.4775
  180ccc     H8 5232   8.453   3.003   6.386  0.4838  1.8073  1.9053
  180ccc     C5 5233   8.332   2.844   6.455  0.5667  0.1441 -0.4542
  180ccc     H9 5234   8.253   2.817   6.526  0.8453 -2.0126 -0.8886
  180ccc    H10 5235   8.297   2.814   6.356 -1.0055 -2.6404  0.8346
  180ccc     C6 5236   8.446   2.760   6.491 -0.1376  0.2237  0.2175
  180ccc     O2 5237   8.428   2.641   6.481  0.3524 -0.3369 -0.4819
  180ccc     O3 5238   8.558   2.806   6.501  0.3330  0.1748  0.4162
  180ccc     C7 5239   8.132   3.056   6.457  0.0981 -0.1349 -0.1402
  180ccc    H11 5240   8.056   3.113   6.400 -0.0746 -2.1032 -2.0225
  180ccc    H12 5241   8.111   2.949   6.446 -0.1940 -0.1003  0.0688
  180ccc     C8 5242   8.120   3.106   6.607 -0.4352  0.1479  0.5217
  180ccc    H13 5243   8.212   3.075   6.659 -0.2313 -0.7728 -0.3745
  180ccc    H14 5244   8.114   3.215   6.610  2.5055  0.4366 -0.7137
  180ccc     C9 5245   8.001   3.039   6.668 -0.1509 -0.4573 -0.2020
  180ccc     O4 5246   7.903   3.104   6.698 -0.2910 -0.1764 -0.0327
  180ccc     O5 5247   8.005   2.921   6.688  0.1689  0.6884 -0.4707
  180ccc     O1 5248   8.259   3.551   6.387  0.1591 -0.3074  0.1683
  181ccc     C3 5249   8.112   3.808   5.818 -0.3081 -0.5980  0.4730
  181ccc     H5 5250   8.213   3.829   5.779 -0.3661  1.2477  1.2023
  181ccc     H6 5251   8.120   3.702   5.845  3.2990 -1.1194 -1.9930
  181ccc     C2 5252   8.011   3.829   5.701 -0.2044  0.6575 -0.7386
  181ccc     H3 5253   7.912   3.794   5.733 -0.0914  1.2303  0.3021
  181ccc     H4 5254   8.042   3.755   5.627 -0.1840 -1.8765  1.6372
  181ccc     C1 5255   7.997   3.980   5.657  0.5422 -0.0417 -0.4440
  181ccc     H1 5256   8.089   4.038   5.667 -0.1129  0.6116  2.8545
  181ccc     H2 5257   7.935   4.026   5.734 -1.3175 -3.9233  0.6513
  181ccc     N1 5258   7.931   4.009   5.528 -0.3716  0.0280 -0.0803
  181ccc     C4 5259   8.020   3.978   5.415 -0.9047  0.5212 -0.1299
  181ccc     H7 5260   7.955   3.961   5.328 -1.4115 -2.5740  0.7328
  181ccc     H8 5261   8.072   3.881   5.419 -0.3142  0.8277 -0.2733
  181ccc     C5 5262   8.141   4.074   5.403  0.0768 -0.3153  0.0019
  181ccc     H9 5263   8.104   4.176   5.389  0.2325  0.0727  2.0678
  181ccc    H10 5264   8.206   4.073   5.491 -0.8845  0.7833  0.7532
  181ccc     C6 5265   8.225   4.038   5.287  0.4940  0.8665 -0.5816
  181ccc     O2 5266   8.283   3.932   5.286  0.3028 -0.0227  0.5088
  181ccc     O3 5267   8.252   4.118   5.204  0.7946  0.0179  0.1089
  181ccc     C7 5268   7.793   3.950   5.508  0.1006 -0.3703 -0.0749
  181ccc    H11 5269   7.799   3.843   5.485  0.0336 -0.4593  0.3205
  181ccc    H12 5270   7.740   3.965   5.602  0.0102 -1.1411  0.0043
  181ccc     C8 5271   7.710   4.032   5.401  0.1461 -0.7480 -0.3229
  181ccc    H13 5272   7.749   4.134   5.393  0.9833 -1.0765 -0.6342
  181ccc    H14 5273   7.707   3.982   5.303 -1.2744 -0.6430 -0.3500
  181ccc     C9 5274   7.568   4.048   5.435 -0.5982 -0.5160 -0.2638
  181ccc     O4 5275   7.508   3.955   5.477 -0.0745  0.3182  0.2147
  181ccc     O5 5276   7.517   4.143   5.380  0.7723  0.4174  0.1313
  181ccc     O1 5277   8.074   3.896   5.930  0.2375  0.7266 -0.0302
  182ccc     C3 5278   8.968   6.750   6.161  0.1948 -0.4213  0.2959
  182ccc     H5 5279   8.934   6.854   6.161 -1.2340 -0.8749  1.4488
  182ccc     H6 5280   9.057   6.746   6.225 -0.1499  1.7148  1.0101
  182ccc     C2 5281   9.013   6.699   6.025  0.0086  0.3143  0.1165
  182ccc     H3 5282   9.112   6.737   5.996  0.2563 -0.4327 -0.0508
  182ccc     H4 5283   8.945   6.742   5.951 -0.1029 -0.2572 -0.1206
  182ccc     C1 5284   9.010   6.547   6.004  0.2100 -0.3193 -0.1605
  182ccc     H1 5285   8.912   6.515   5.965  0.0368  1.5062 -1.3788
  182ccc     H2 5286   9.044   6.499   6.096 -0.4437 -1.8600 -0.6943
  182ccc     N1 5287   9.101   6.501   5.899 -0.3635 -0.0188 -0.0981
  182ccc     C4 5288   9.053   6.550   5.765 -0.4156  0.6726 -0.4719
  182ccc     H7 5289   9.030   6.657   5.764  2.2188  1.3511 -2.5500
  182ccc     H8 5290   8.963   6.493   5.739 -1.5743  0.9394  2.6641
  182ccc     C5 5291   9.157   6.524   5.657  0.5325 -0.0996 -0.1681
  182ccc     H9 5292   9.250   6.574   5.687  1.5645 -1.5824 -0.7803
  182ccc    H10 5293   9.190   6.420   5.645  1.1406 -0.3282  2.7132
  182ccc     C6 5294   9.102   6.572   5.529 -0.0782 -0.2238 -0.2945
  182ccc     O2 5295   9.146   6.675   5.487  0.4176  0.5555  0.4130
  182ccc     O3 5296   9.026   6.507   5.467  0.2207  0.4867  0.1702
  182ccc     C7 5297   9.135   6.361   5.907 -0.2785  0.0819  0.1108
  182ccc    H11 5298   9.200   6.333   5.823 -0.0181 -0.9520  0.6376
  182ccc    H12 5299   9.170   6.336   6.008 -0.0955  1.3155  0.3634
  182ccc     C8 5300   9.019   6.267   5.888 -0.2566 -0.6138  0.2952
  182ccc    H13 5301   8.928   6.293   5.944 -3.2075 -1.7876 -3.5547
  182ccc    H14 5302   8.992   6.263   5.782 -0.0214  2.0445  0.0775
  182ccc     C9 5303   9.046   6.132   5.936 -0.1510  0.3877 -0.1804
  182ccc     O4 5304   8.994   6.091   6.036 -0.1117  0.0982  0.2490
  182ccc     O5 5305   9.120   6.052   5.877 -0.6753 -0.0305  0.1306
  182ccc     O1 5306   8.868   6.671   6.209  1.0420  0.5885 -0.2806
  183ccc     C3 5307   7.965   6.495   6.227 -0.0273  0.5559 -0.0691
  183ccc     H5 5308   7.974   6.604   6.239 -1.4547  0.8916 -1.5981
  183ccc     H6 5309   7.919   6.479   6.128  1.8091 -0.8335 -0.7486
  183ccc     C2 5310   7.874   6.439   6.341 -0.0874 -0.3361 -0.0893
  183ccc     H3 5311   7.935   6.455   6.431 -1.1720  0.1767  0.5896
  183ccc     H4 5312   7.858   6.331   6.330 -0.0504 -0.2472 -1.0457
  183ccc     C1 5313   7.733   6.515   6.353 -0.0536 -0.4468 -0.7346
  183ccc     H1 5314   7.661   6.467   6.420  0.9579 -0.9705  0.0029
  183ccc     H2 5315   7.683   6.508   6.256 -1.2795  1.6254 -0.3065
  183ccc     N1 5316   7.746   6.659   6.397  0.1364  0.6563  0.2821
  183ccc     C4 5317   7.638   6.748   6.341 -0.2365 -1.6329 -0.8493
  183ccc     H7 5318   7.648   6.835   6.407 -0.6318 -0.1943 -2.5951
  183ccc     H8 5319   7.535   6.709   6.348 -0.3669 -1.5011 -1.8685
  183ccc     C5 5320   7.672   6.800   6.199  0.3858 -0.8939  0.5475
  183ccc     H9 5321   7.775   6.837   6.198 -0.2795  1.0667 -0.9922
  183ccc    H10 5322   7.658   6.716   6.129  0.0503  0.1260 -0.6429
  183ccc     C6 5323   7.578   6.904   6.161  0.2842 -0.2517  0.3394
  183ccc     O2 5324   7.619   7.019   6.168 -0.3251 -0.0192  0.6020
  183ccc     O3 5325   7.491   6.877   6.083 -0.3761 -0.3565  0.4244
  183ccc     C7 5326   7.760   6.660   6.543 -0.1398  0.6859  0.4205
  183ccc    H11 5327   7.662   6.653   6.592 -0.3550  0.2024 -0.0723
  183ccc    H12 5328   7.817   6.569   6.566  0.9392  1.4341  0.8174
  183ccc     C8 5329   7.849   6.776   6.588  0.0858  0.5455 -0.3181
  183ccc    H13 5330   7.951   6.747   6.558 -0.7978 -2.6888 -0.5029
  183ccc    H14 5331   7.830   6.870   6.534  1.2584  1.3178  0.5574
  183ccc     C9 5332   7.844   6.793   6.735  0.1410 -0.3172  0.2979
  183ccc     O4 5333   7.927   6.763   6.813 -0.2053  0.1066 -0.2288
  183ccc     O5 5334   7.755   6.860   6.782 -0.3161  0.0709 -0.2793
  183ccc     O1 5335   8.095   6.436   6.221  0.3935 -0.1349 -0.3966
  184ccc     C3 5336   7.710   6.033   6.372 -0.2777  0.6474 -0.1881
  184ccc     H5 5337   7.796   5.965   6.371 -2.3580 -2.2075 -2.2447
  184ccc     H6 5338   7.617   5.982   6.400 -1.1801  2.0355 -0.5700
  184ccc     C2 5339   7.694   6.084   6.228  0.3899 -0.1828 -0.5846
  184ccc     H3 5340   7.681   6.000   6.158 -0.1514  1.2056 -2.2134
  184ccc     H4 5341   7.789   6.127   6.196 -0.3077  2.9704  1.1997
  184ccc     C1 5342   7.589   6.192   6.211 -0.4843  0.3792  0.1482
  184ccc     H1 5343   7.645   6.277   6.170  0.8166 -1.0168 -1.0841
  184ccc     H2 5344   7.533   6.219   6.301 -0.9862  0.3387 -0.1426
  184ccc     N1 5345   7.486   6.159   6.106 -1.0043 -0.1591  0.0049
  184ccc     C4 5346   7.398   6.052   6.151  0.0187 -0.6462 -0.5984
  184ccc     H7 5347   7.342   6.085   6.240  0.0526  2.0476 -1.5095
  184ccc     H8 5348   7.462   5.969   6.183 -0.2282 -0.9433 -0.8711
  184ccc     C5 5349   7.297   5.993   6.051 -0.4714  0.0489  0.5886
  184ccc     H9 5350   7.224   6.058   6.002 -0.6379 -1.3430 -1.1126
  184ccc    H10 5351   7.342   5.943   5.964  0.9016 -0.3373  1.4881
  184ccc     C6 5352   7.214   5.886   6.117 -0.4827 -0.1257 -0.6708
  184ccc     O2 5353   7.236   5.769   6.097 -0.0596  0.1362  0.0983
  184ccc     O3 5354   7.097   5.906   6.125  1.0032  0.4841 -0.0176
  184ccc     C7 5355   7.400   6.273   6.071 -0.1062 -0.3165 -0.2706
  184ccc    H11 5356   7.339   6.246   5.984  0.5875 -0.3042 -0.7795
  184ccc    H12 5357   7.327   6.291   6.150  0.7276  2.5214 -0.0223
  184ccc     C8 5358   7.476   6.399   6.025 -0.2330 -0.3738  0.8413
  184ccc    H13 5359   7.536   6.442   6.106  1.6683  0.5516 -0.9655
  184ccc    H14 5360   7.547   6.366   5.948  1.1786  0.7575  1.6038
  184ccc     C9 5361   7.375   6.491   5.967  0.4255 -0.1517 -0.5341
  184ccc     O4 5362   7.325   6.460   5.859 -0.2862 -0.5618 -0.0952
  184ccc     O5 5363   7.363   6.601   6.024 -0.0730 -0.3064  0.5378
  184ccc     O1 5364   7.736   6.143   6.459  0.3072  0.3456 -0.1024
  185ccc     C3 5365   7.166   6.540   6.966  1.0553 -0.6582 -0.2659
  185ccc     H5 5366   7.131   6.559   6.863 -0.4974  1.4146  0.5781
  185ccc     H6 5367   7.091   6.479   7.016  1.7443 -1.4465 -0.1785
  185ccc     C2 5368   7.215   6.670   7.046 -0.5336 -0.0772  0.0370
  185ccc     H3 5369   7.132   6.741   7.031 -0.2164 -0.1232 -2.3828
  185ccc     H4 5370   7.303   6.695   6.986 -0.3599 -2.4569 -0.7717
  185ccc     C1 5371   7.249   6.656   7.196  0.1631 -0.5742 -1.0164
  185ccc     H1 5372   7.337   6.591   7.203  0.3057 -0.5787 -2.5082
  185ccc     H2 5373   7.167   6.603   7.247  1.7100  0.3845  2.7621
  185ccc     N1 5374   7.279   6.791   7.255 -0.5410  0.2480 -0.5207
  185ccc     C4 5375   7.354   6.898   7.180 -0.1297  0.7003 -0.2035
  185ccc     H7 5376   7.367   6.995   7.229  0.3357  0.9520 -0.8135
  185ccc     H8 5377   7.312   6.910   7.079 -0.6876 -1.3015 -0.2524
  185ccc     C5 5378   7.497   6.853   7.148 -0.3044  1.1646 -0.2761
  185ccc     H9 5379   7.529   6.792   7.233 -0.8860 -0.3293 -1.0861
  185ccc    H10 5380   7.503   6.793   7.057  1.8529  3.3113 -1.6723
  185ccc     C6 5381   7.583   6.970   7.111 -0.1302 -0.0867  0.3411
  185ccc     O2 5382   7.672   6.959   7.027  0.8014  0.2876  0.1804
  185ccc     O3 5383   7.582   7.077   7.173 -0.1725 -0.0945  0.3176
  185ccc     C7 5384   7.305   6.778   7.395  0.7427 -0.2304 -0.1218
  185ccc    H11 5385   7.252   6.689   7.430  0.6663  0.6290  2.1276
  185ccc    H12 5386   7.413   6.785   7.416  0.7664 -0.6372 -0.1111
  185ccc     C8 5387   7.228   6.891   7.463  0.4513 -0.1137 -1.4556
  185ccc    H13 5388   7.247   6.994   7.433 -1.4443  1.3133  1.7687
  185ccc    H14 5389   7.120   6.872   7.454  0.5773 -0.1714 -3.2743
  185ccc     C9 5390   7.259   6.900   7.611  0.7215 -0.2271  0.8133
  185ccc     O4 5391   7.377   6.898   7.644 -0.1195  0.1239  0.1122
  185ccc     O5 5392   7.195   6.849   7.701 -0.4428 -0.1270  0.0469
  185ccc     O1 5393   7.275   6.454   6.970 -1.2070 -0.1938 -0.2290
  186ccc     C3 5394   9.286   6.174   4.805 -0.6090 -0.6606 -0.5071
  186ccc     H5 5395   9.313   6.211   4.706  0.2947 -0.4556 -0.1904
  186ccc     H6 5396   9.208   6.234   4.854  0.4574  1.0374 -0.8393
  186ccc     C2 5397   9.424   6.182   4.883 -0.0050 -0.0013  0.1869
  186ccc     H3 5398   9.467   6.283   4.882  1.0778 -0.4506 -0.1832
  186ccc     H4 5399   9.497   6.124   4.825  0.2028  1.9707 -1.6714
  186ccc     C1 5400   9.413   6.132   5.030  0.0304  0.1638 -0.4023
  186ccc     H1 5401   9.508   6.150   5.081 -0.4154 -0.3266  0.6372
  186ccc     H2 5402   9.419   6.023   5.025  1.3291  0.0819  1.6443
  186ccc     N1 5403   9.307   6.184   5.112  0.0928 -0.3695  0.5801
  186ccc     C4 5404   9.287   6.096   5.227  0.3243 -0.0691  0.6310
  186ccc     H7 5405   9.234   6.147   5.308  0.8483 -1.1949  1.7177
  186ccc     H8 5406   9.382   6.066   5.272 -0.4974  0.8001  3.0712
  186ccc     C5 5407   9.185   5.987   5.186  0.8001 -0.1708  0.3075
  186ccc     H9 5408   9.081   6.018   5.175  0.6364 -0.7930  0.0763
  186ccc    H10 5409   9.224   5.942   5.094  0.5582  1.2954 -0.5430
  186ccc     C6 5410   9.188   5.877   5.289  0.1485  0.5319  0.3141
  186ccc     O2 5411   9.135   5.900   5.395  0.3586  0.0678  1.0746
  186ccc     O3 5412   9.284   5.802   5.304 -0.6137 -0.0113 -0.1414
  186ccc     C7 5413   9.345   6.322   5.148 -0.1403 -1.4927  0.1345
  186ccc    H11 5414   9.427   6.330   5.220 -0.3932  0.4092  0.2707
  186ccc    H12 5415   9.369   6.379   5.057  0.6219  1.8822  2.2690
  186ccc     C8 5416   9.228   6.389   5.226 -0.2392  0.3916 -0.6844
  186ccc    H13 5417   9.135   6.360   5.175  0.6260 -1.9495 -1.0740
  186ccc    H14 5418   9.212   6.360   5.331 -2.2943  0.8992 -0.8271
  186ccc     C9 5419   9.243   6.535   5.216  0.1124  0.2492  0.0581
  186ccc     O4 5420   9.147   6.603   5.182  0.3556  0.7500  0.1776
  186ccc     O5 5421   9.330   6.595   5.267 -0.1484 -0.0404  0.1157
  186ccc     O1 5422   9.243   6.037   4.806 -0.5214 -0.1110 -0.7215
  187ccc     C3 5423   8.715   5.653   5.399 -0.7112 -0.6177 -0.3896
  187ccc     H5 5424   8.623   5.689   5.446  0.4553 -0.2643  1.7877
  187ccc     H6 5425   8.708   5.545   5.382  2.7063 -0.9912 -0.0800
  187ccc     C2 5426   8.830   5.659   5.509  0.0459 -0.2297  0.0194
  187ccc     H3 5427   8.838   5.762   5.547  1.6409 -0.1518 -0.4915
  187ccc     H4 5428   8.923   5.637   5.456  0.2603  1.5052 -0.3780
  187ccc     C1 5429   8.802   5.565   5.633 -0.2069 -0.2173 -0.0504
  187ccc     H1 5430   8.830   5.464   5.600  1.1412 -0.1457  0.7860
  187ccc     H2 5431   8.699   5.559   5.671  0.8369 -2.1384  2.8473
  187ccc     N1 5432   8.892   5.594   5.736  0.2089  0.0449 -0.1775
  187ccc     C4 5433   9.020   5.519   5.721  0.7655 -0.2766 -0.4152
  187ccc     H7 5434   9.048   5.496   5.617  0.5062 -1.5384 -0.2270
  187ccc     H8 5435   8.994   5.413   5.734 -1.4399  0.1944 -0.4973
  187ccc     C5 5436   9.137   5.564   5.796  0.7769 -0.7055  0.0154
  187ccc     H9 5437   9.124   5.551   5.904 -4.2571  0.4654 -0.1984
  187ccc    H10 5438   9.219   5.493   5.781  2.0849  1.1029 -1.9439
  187ccc     C6 5439   9.167   5.710   5.778 -0.5102  0.1604  0.1921
  187ccc     O2 5440   9.246   5.740   5.686  0.3368  0.5329  0.2881
  187ccc     O3 5441   9.160   5.789   5.869 -0.1445  0.5409 -0.1502
  187ccc     C7 5442   8.822   5.573   5.868  0.3650 -0.1825 -0.1786
  187ccc    H11 5443   8.754   5.488   5.860 -0.9600  0.9009 -0.8519
  187ccc    H12 5444   8.889   5.553   5.952  0.1112  1.2264  0.3843
  187ccc     C8 5445   8.728   5.688   5.911  0.1517  0.1574 -0.5017
  187ccc    H13 5446   8.657   5.709   5.830 -1.9976  0.5114  1.3822
  187ccc    H14 5447   8.675   5.659   6.002  1.2497 -0.0219  0.0932
  187ccc     C9 5448   8.788   5.823   5.923 -1.0938  0.0347 -0.1307
  187ccc     O4 5449   8.882   5.834   6.001 -0.0894 -0.5167  0.2339
  187ccc     O5 5450   8.723   5.926   5.912  0.2378  0.1850  0.3178
  187ccc     O1 5451   8.738   5.727   5.277 -0.0839 -0.2091 -0.2600
  188ccc     C3 5452   7.065   6.224   5.491 -0.4748 -0.2035 -0.4648
  188ccc     H5 5453   7.039   6.304   5.560  0.5847 -0.4726  0.2752
  188ccc     H6 5454   6.970   6.194   5.445  0.1501  0.1797 -2.1063
  188ccc     C2 5455   7.136   6.100   5.549  0.2401 -0.2508 -0.0025
  188ccc     H3 5456   7.055   6.054   5.607 -1.6847  3.2902  0.4248
  188ccc     H4 5457   7.221   6.130   5.611  1.7502 -3.1934 -0.4733
  188ccc     C1 5458   7.189   6.013   5.436  0.0232 -0.2342 -0.3557
  188ccc     H1 5459   7.262   6.068   5.375 -1.6399  1.5857 -0.8125
  188ccc     H2 5460   7.100   5.983   5.378 -0.9133 -1.3115  1.5381
  188ccc     N1 5461   7.248   5.893   5.491 -0.2432  0.0109 -0.3518
  188ccc     C4 5462   7.337   5.832   5.389  0.0447 -0.5010  0.3893
  188ccc     H7 5463   7.397   5.905   5.333  0.7176 -1.8078 -0.6628
  188ccc     H8 5464   7.278   5.788   5.308  1.0179  0.8377 -1.1172
  188ccc     C5 5465   7.433   5.720   5.419  0.1386  0.3735 -0.2098
  188ccc     H9 5466   7.476   5.695   5.321 -0.6347 -1.4667 -0.1174
  188ccc    H10 5467   7.514   5.745   5.488 -0.4444 -1.2989  1.1526
  188ccc     C6 5468   7.377   5.593   5.467 -0.4689  0.0215  0.3026
  188ccc     O2 5469   7.300   5.528   5.397 -0.2308 -0.5278 -0.8104
  188ccc     O3 5470   7.433   5.538   5.561 -0.4125  0.2470  0.0833
  188ccc     C7 5471   7.169   5.799   5.576 -0.5757  0.0260 -0.0057
  188ccc    H11 5472   7.072   5.845   5.596 -1.1817  0.6106 -3.5299
  188ccc    H12 5473   7.153   5.700   5.530  0.7423  0.3774 -1.2889
  188ccc     C8 5474   7.251   5.790   5.711 -0.3417 -0.3263  0.6049
  188ccc    H13 5475   7.354   5.754   5.700 -0.2029 -0.3696  1.9184
  188ccc    H14 5476   7.260   5.895   5.740  1.3723 -0.1455 -0.4654
  188ccc     C9 5477   7.191   5.691   5.814  0.0377  0.5004 -0.4099
  188ccc     O4 5478   7.252   5.603   5.862 -0.7189 -0.3292 -0.1462
  188ccc     O5 5479   7.074   5.687   5.838 -0.2100 -0.7541 -0.0019
  188ccc     O1 5480   7.145   6.264   5.384 -0.3024 -0.0602  0.0053
  189ccc     C3 5481   7.519   6.857   5.025 -0.0033  1.1298  0.9945
  189ccc     H5 5482   7.587   6.892   4.946  1.1336  0.7053  1.7522
  189ccc     H6 5483   7.414   6.887   5.015 -0.4978 -0.8419 -0.3973
  189ccc     C2 5484   7.581   6.911   5.153  0.2962 -0.4159 -0.4624
  189ccc     H3 5485   7.563   7.019   5.160 -2.5095 -0.8359 -0.1372
  189ccc     H4 5486   7.689   6.891   5.148  0.1920 -1.1814  0.1657
  189ccc     C1 5487   7.522   6.845   5.282 -0.7395 -0.1236  0.5769
  189ccc     H1 5488   7.569   6.746   5.280  1.2359  0.7872  0.1047
  189ccc     H2 5489   7.415   6.830   5.263 -0.7604 -0.3867  0.8896
  189ccc     N1 5490   7.540   6.928   5.407 -0.1961 -0.1587  0.5458
  189ccc     C4 5491   7.683   6.939   5.451 -0.2535 -0.0825 -0.7641
  189ccc     H7 5492   7.739   6.863   5.395 -1.3163 -0.9226 -0.7194
  189ccc     H8 5493   7.692   6.927   5.560 -1.5679 -1.7633 -0.8031
  189ccc     C5 5494   7.742   7.076   5.422 -0.4037 -0.3337 -0.2357
  189ccc     H9 5495   7.727   7.092   5.315  2.6852 -1.6305 -0.9683
  189ccc    H10 5496   7.684   7.149   5.480  0.7663  0.8934 -0.5733
  189ccc     C6 5497   7.880   7.082   5.458  0.4445  0.0814 -0.1227
  189ccc     O2 5498   7.915   7.184   5.500 -0.7067 -0.5174 -0.0146
  189ccc     O3 5499   7.965   7.028   5.392 -0.1507  0.1213 -0.4438
  189ccc     C7 5500   7.454   6.879   5.516 -0.1684 -0.3201  0.7368
  189ccc    H11 5501   7.355   6.852   5.480  0.2496 -0.8199 -0.0765
  189ccc    H12 5502   7.501   6.792   5.563 -2.2674 -0.8462  1.9468
  189ccc     C8 5503   7.439   6.979   5.627  0.0313  0.4433 -0.2099
  189ccc    H13 5504   7.539   7.008   5.661  0.8127 -0.2620 -1.7825
  189ccc    H14 5505   7.386   7.069   5.593 -1.8637 -1.4035 -2.4880
  189ccc     C9 5506   7.383   6.921   5.752  0.1914 -0.7487 -0.0117
  189ccc     O4 5507   7.375   6.995   5.849 -0.1779 -0.1491 -0.2630
  189ccc     O5 5508   7.356   6.802   5.768 -0.3406  0.1315  0.0847
  189ccc     O1 5509   7.527   6.714   5.011 -0.0340 -0.0579  0.5849
  190ccc     C3 5510   7.704   3.280   5.082 -0.0196  0.0070 -0.1060
  190ccc     H5 5511   7.806   3.265   5.045  0.7547  0.7039  1.6175
  190ccc     H6 5512   7.642   3.194   5.051  2.4211 -2.1701  0.6724
  190ccc     C2 5513   7.650   3.418   5.045 -0.0714 -0.2618 -0.3038
  190ccc     H3 5514   7.548   3.442   5.079 -0.4515 -0.4740 -1.2641
  190ccc     H4 5515   7.647   3.429   4.936  0.3974 -0.7258 -0.3644
  190ccc     C1 5516   7.745   3.529   5.092 -0.8790 -0.9560  0.2821
  190ccc     H1 5517   7.840   3.520   5.037 -0.5086 -0.9220  0.9042
  190ccc     H2 5518   7.783   3.509   5.193  0.0387 -0.2711  0.0846
  190ccc     N1 5519   7.695   3.667   5.073  0.0748  0.0646  0.3823
  190ccc     C4 5520   7.794   3.778   5.090  0.2382  0.2471  0.2638
  190ccc     H7 5521   7.854   3.756   5.179  0.5333  1.2088  0.3067
  190ccc     H8 5522   7.739   3.870   5.112  0.8663  0.6888 -0.0089
  190ccc     C5 5523   7.883   3.790   4.965  0.0076  0.1094  0.1860
  190ccc     H9 5524   7.923   3.690   4.944  0.1411  0.1869  0.0627
  190ccc    H10 5525   7.828   3.829   4.879 -0.0913  1.2371  0.7392
  190ccc     C6 5526   7.989   3.891   4.973  0.0552  0.2289  0.3267
  190ccc     O2 5527   8.023   3.959   4.881 -0.0796 -0.2864  0.7607
  190ccc     O3 5528   8.032   3.923   5.084 -0.3737 -0.7326  0.0833
  190ccc     C7 5529   7.581   3.685   5.174  0.1791  0.5580 -0.2665
  190ccc    H11 5530   7.508   3.605   5.190 -0.9625  1.4789 -0.7493
  190ccc    H12 5531   7.627   3.713   5.270  1.4770 -0.0416 -0.6920
  190ccc     C8 5532   7.487   3.792   5.135  0.4613 -0.5274  0.1958
  190ccc    H13 5533   7.535   3.891   5.135 -0.2671 -0.0228 -3.4059
  190ccc    H14 5534   7.436   3.776   5.039  1.1607 -0.9819 -0.1066
  190ccc     C9 5535   7.387   3.805   5.246 -0.3355  0.2515 -0.7754
  190ccc     O4 5536   7.311   3.902   5.250  0.4834  0.4667  0.5163
  190ccc     O5 5537   7.382   3.730   5.336 -0.0483  0.0599  0.5302
  190ccc     O1 5538   7.707   3.269   5.223 -0.6567  0.0195  0.0666
  191ccc     C3 5539   7.739   2.491   5.880 -0.7085  0.0478  0.0411
  191ccc     H5 5540   7.664   2.414   5.901 -1.5733  0.8789  0.0735
  191ccc     H6 5541   7.821   2.448   5.821  0.3890  0.9788  0.8241
  191ccc     C2 5542   7.796   2.558   6.005 -0.2894  0.2148  0.2739
  191ccc     H3 5543   7.864   2.642   5.983  0.3890  0.0296  1.5572
  191ccc     H4 5544   7.863   2.485   6.052  1.7870  0.1287 -2.5162
  191ccc     C1 5545   7.691   2.605   6.103 -0.4828 -0.5514  0.8872
  191ccc     H1 5546   7.643   2.514   6.141 -0.8814  0.0355  1.8306
  191ccc     H2 5547   7.608   2.662   6.058  0.0049 -0.1921  0.4390
  191ccc     N1 5548   7.752   2.687   6.214 -0.1636 -0.4626 -0.6718
  191ccc     C4 5549   7.833   2.605   6.305 -0.0519  0.0697  0.2911
  191ccc     H7 5550   7.829   2.497   6.284  0.2604 -0.5938  3.2069
  191ccc     H8 5551   7.797   2.605   6.408 -1.4418  2.5258 -0.1265
  191ccc     C5 5552   7.975   2.653   6.294 -0.4795  0.7248 -0.1366
  191ccc     H9 5553   8.009   2.639   6.191 -0.1021 -0.3185  0.1215
  191ccc    H10 5554   7.980   2.761   6.317  0.1643  0.6434  0.1226
  191ccc     C6 5555   8.056   2.580   6.389 -0.0859 -0.2398 -0.9246
  191ccc     O2 5556   8.146   2.507   6.351 -0.5384  0.6329 -0.2264
  191ccc     O3 5557   8.057   2.611   6.508  0.5632 -0.3520 -0.3376
  191ccc     C7 5558   7.655   2.777   6.280  0.4528 -0.7426  0.0881
  191ccc    H11 5559   7.637   2.849   6.200  1.7332 -2.9855 -2.3478
  191ccc    H12 5560   7.568   2.719   6.313  0.1710  0.5403  1.7357
  191ccc     C8 5561   7.695   2.859   6.402  0.1487  0.5784 -0.1006
  191ccc    H13 5562   7.794   2.904   6.386  0.8880 -1.5459 -1.8713
  191ccc    H14 5563   7.621   2.940   6.407  1.1009  1.7539 -2.8628
  191ccc     C9 5564   7.682   2.781   6.535 -0.1259  0.3567  0.3470
  191ccc     O4 5565   7.775   2.799   6.616 -0.0711 -0.3315  0.7176
  191ccc     O5 5566   7.590   2.711   6.564 -0.1157  0.1768 -0.0822
  191ccc     O1 5567   7.663   2.591   5.812 -0.2312  0.1420  0.0492
  192ccc     C3 5568   6.981   4.649   5.748  0.5734  0.3479 -0.5897
  192ccc     H5 5569   6.928   4.607   5.662  1.0768  0.0496 -0.7613
  192ccc     H6 5570   6.912   4.642   5.833 -1.5505 -3.0969 -2.3520
  192ccc     C2 5571   7.013   4.789   5.698  0.1162  0.8948  0.3608
  192ccc     H3 5572   6.915   4.839   5.689 -0.7723 -0.4726  1.8670
  192ccc     H4 5573   7.055   4.789   5.597 -3.6007  0.7368 -1.3709
  192ccc     C1 5574   7.101   4.877   5.781  0.1456 -0.7689  0.1424
  192ccc     H1 5575   7.198   4.826   5.787  0.0418 -0.8419  1.6419
  192ccc     H2 5576   7.066   4.882   5.885 -0.2081 -0.4615  0.0110
  192ccc     N1 5577   7.123   5.013   5.723 -0.3134 -0.0023  0.4752
  192ccc     C4 5578   7.001   5.092   5.707 -0.7212 -0.0942 -0.2327
  192ccc     H7 5579   6.955   5.108   5.805 -2.3463 -1.3440 -0.7538
  192ccc     H8 5580   6.932   5.039   5.640 -1.0077 -1.6066  1.2216
  192ccc     C5 5581   7.023   5.230   5.660 -0.0276  0.1691  0.5351
  192ccc     H9 5582   7.060   5.221   5.557  0.2436 -3.0879  0.8344
  192ccc    H10 5583   6.928   5.284   5.660  0.0151  0.2499  1.0817
  192ccc     C6 5584   7.124   5.317   5.727 -0.1850  0.1759  0.0074
  192ccc     O2 5585   7.213   5.372   5.664 -0.1108  0.1279  0.5620
  192ccc     O3 5586   7.128   5.333   5.850 -0.3473 -0.3080  0.0843
  192ccc     C7 5587   7.229   5.018   5.612  0.2262  0.4427 -0.1090
  192ccc    H11 5588   7.275   5.117   5.625 -0.9443  1.0976 -0.8029
  192ccc    H12 5589   7.314   4.950   5.625 -0.0031  0.2864  0.6188
  192ccc     C8 5590   7.192   5.001   5.468  0.2970  0.3382 -0.1973
  192ccc    H13 5591   7.193   4.894   5.444 -1.7150  0.7902 -2.7283
  192ccc    H14 5592   7.093   5.034   5.435 -0.3080  0.0819  1.2549
  192ccc     C9 5593   7.298   5.064   5.380 -0.1893  0.1711 -0.0456
  192ccc     O4 5594   7.364   4.992   5.306  0.0993 -0.1506 -0.0967
  192ccc     O5 5595   7.290   5.184   5.361  0.0566 -0.1072  0.1093
  192ccc     O1 5596   7.097   4.575   5.786  0.3255 -0.2669 -0.2951
  193ccc     C3 5597   7.978   4.353   5.579  0.2857  0.1409  0.3545
  193ccc     H5 5598   8.063   4.397   5.633  0.1084 -2.8051  3.3816
  193ccc     H6 5599   7.989   4.245   5.563 -0.3820  0.2546 -1.0074
  193ccc     C2 5600   7.955   4.416   5.439 -0.0654  0.1246  0.4612
  193ccc     H3 5601   7.876   4.368   5.381 -1.5609  1.3798  1.3904
  193ccc     H4 5602   8.055   4.410   5.393 -0.4039 -1.9868 -0.0966
  193ccc     C1 5603   7.907   4.564   5.449 -0.1572  1.0078 -0.6059
  193ccc     H1 5604   7.964   4.620   5.524  1.3614 -0.4800 -0.5888
  193ccc     H2 5605   7.805   4.573   5.487  1.2785  1.8609  3.4732
  193ccc     N1 5606   7.903   4.628   5.319  0.5765 -0.3764  0.1585
  193ccc     C4 5607   7.817   4.748   5.324  0.4364  0.4077  0.3924
  193ccc     H7 5608   7.864   4.830   5.380 -0.2467  0.8515  0.3260
  193ccc     H8 5609   7.719   4.719   5.365  0.6154  0.9829  1.2442
  193ccc     C5 5610   7.789   4.801   5.182 -0.7676  0.8272 -0.0046
  193ccc     H9 5611   7.873   4.865   5.151 -1.1879  1.2157 -0.3570
  193ccc    H10 5612   7.787   4.710   5.121 -1.7879  0.1688  0.9742
  193ccc     C6 5613   7.661   4.868   5.177  0.1609  0.4417 -0.4912
  193ccc     O2 5614   7.559   4.804   5.189  0.2841  0.5273 -0.0098
  193ccc     O3 5615   7.664   4.989   5.170 -0.4674 -0.1191 -0.6968
  193ccc     C7 5616   8.043   4.660   5.270  0.6285 -0.2581  0.0842
  193ccc    H11 5617   8.060   4.768   5.261 -0.2875 -0.0705  0.5212
  193ccc    H12 5618   8.116   4.627   5.345 -0.7563 -3.9994 -0.0042
  193ccc     C8 5619   8.077   4.590   5.139  0.7376  0.0084 -0.7334
  193ccc    H13 5620   8.011   4.504   5.119 -0.8905  0.2145  2.9851
  193ccc    H14 5621   8.066   4.665   5.060 -0.5694  3.1255  2.1780
  193ccc     C9 5622   8.230   4.556   5.138 -0.3369  0.6858  0.0934
  193ccc     O4 5623   8.314   4.646   5.153  0.1610  0.5358 -0.4447
  193ccc     O5 5624   8.274   4.446   5.117 -0.0783 -0.2400  0.5802
  193ccc     O1 5625   7.867   4.371   5.661 -0.4447 -0.2715 -0.8116
  194ccc     C3 5626   7.255   4.547   7.285  0.0658  0.5157  0.1217
  194ccc     H5 5627   7.363   4.553   7.268 -0.0914  3.3460 -0.2151
  194ccc     H6 5628   7.246   4.605   7.378  0.2718  1.8844 -0.6960
  194ccc     C2 5629   7.207   4.403   7.275 -0.3397 -0.5336 -0.3533
  194ccc     H3 5630   7.097   4.408   7.276 -0.4921 -2.9051  0.2087
  194ccc     H4 5631   7.254   4.346   7.357 -0.4932 -0.3404 -0.1290
  194ccc     C1 5632   7.238   4.342   7.138 -0.3961  0.4136 -0.3814
  194ccc     H1 5633   7.348   4.335   7.137 -0.1152  2.9917  1.5321
  194ccc     H2 5634   7.212   4.413   7.058  0.2371  2.7234  1.3623
  194ccc     N1 5635   7.184   4.207   7.138  0.3556  0.2131 -0.5025
  194ccc     C4 5636   7.041   4.200   7.112  0.7296  0.3084 -0.5669
  194ccc     H7 5637   7.023   4.169   7.008 -0.3280  0.4537 -0.4432
  194ccc     H8 5638   6.999   4.301   7.111 -0.4366 -0.1624 -0.9393
  194ccc     C5 5639   6.953   4.110   7.205  0.8965 -0.2796 -0.1276
  194ccc     H9 5640   6.846   4.125   7.188  0.9197 -0.7453 -0.6928
  194ccc    H10 5641   6.969   4.004   7.183  1.3897 -0.0377 -1.0038
  194ccc     C6 5642   6.972   4.146   7.348 -0.0676  0.4230  0.3430
  194ccc     O2 5643   7.001   4.054   7.423 -0.1068 -0.0193  0.5911
  194ccc     O3 5644   6.919   4.243   7.403 -0.2869 -0.6360 -0.4573
  194ccc     C7 5645   7.263   4.110   7.060  1.2117  0.3488  0.6326
  194ccc    H11 5646   7.260   4.146   6.956 -2.9312 -1.3336 -0.0194
  194ccc    H12 5647   7.369   4.108   7.089  0.8601 -0.6557  1.9280
  194ccc     C8 5648   7.219   3.968   7.070  0.1004 -0.4769 -0.2307
  194ccc    H13 5649   7.226   3.922   7.169  3.2968  0.5578  0.1272
  194ccc    H14 5650   7.126   3.936   7.021  0.4436 -1.4581 -0.2694
  194ccc     C9 5651   7.309   3.885   6.992  0.9702 -0.0830 -0.3579
  194ccc     O4 5652   7.315   3.901   6.873 -0.3996 -0.3127  0.1901
  194ccc     O5 5653   7.390   3.816   7.057  0.1884  0.0484 -0.1366
  194ccc     O1 5654   7.191   4.625   7.182 -0.1449  0.0504 -0.5975
  195ccc     C3 5655   7.481   4.679   7.649  0.0515  0.0291 -1.2039
  195ccc     H5 5656   7.575   4.623   7.656  0.8537  1.3287 -1.2927
  195ccc     H6 5657   7.483   4.767   7.715 -0.8458  0.3415 -1.5701
  195ccc     C2 5658   7.379   4.564   7.663  0.2903 -0.1208  0.0605
  195ccc     H3 5659   7.406   4.496   7.745  0.4766  0.4050  0.4381
  195ccc     H4 5660   7.401   4.510   7.570  1.5885  0.0448  0.2550
  195ccc     C1 5661   7.232   4.614   7.675  0.2050 -0.0632 -0.0056
  195ccc     H1 5662   7.191   4.648   7.579  2.4848  0.2225 -0.9271
  195ccc     H2 5663   7.227   4.711   7.726 -0.3941  0.3812 -0.8801
  195ccc     N1 5664   7.149   4.514   7.746  0.4003 -0.4155 -0.2812
  195ccc     C4 5665   7.017   4.570   7.786  0.2450 -1.0866 -0.0142
  195ccc     H7 5666   6.936   4.497   7.776 -1.3264  0.8485 -2.9699
  195ccc     H8 5667   6.997   4.653   7.717 -0.4536 -0.1954  1.2227
  195ccc     C5 5668   7.033   4.627   7.927  0.9875  0.1129  0.0704
  195ccc     H9 5669   7.022   4.543   7.998 -1.5117  1.7968  1.8102
  195ccc    H10 5670   7.124   4.688   7.939  1.5328 -0.5836 -0.4074
  195ccc     C6 5671   6.915   4.713   7.967 -0.1894 -0.7723  0.1932
  195ccc     O2 5672   6.795   4.688   7.949 -1.1183  0.4334  0.3487
  195ccc     O3 5673   6.936   4.816   8.029 -0.1218  0.1737  0.4855
  195ccc     C7 5674   7.135   4.381   7.694 -0.1555  0.5213 -0.2198
  195ccc    H11 5675   7.052   4.378   7.622  1.0643  2.9972 -1.8678
  195ccc    H12 5676   7.231   4.345   7.655  1.5404  1.9071  2.3916
  195ccc     C8 5677   7.120   4.291   7.813 -0.0160 -0.8407 -0.4591
  195ccc    H13 5678   7.211   4.302   7.873  1.0979 -1.1925 -2.0145
  195ccc    H14 5679   7.029   4.316   7.868  1.9266  2.6376  1.5142
  195ccc     C9 5680   7.109   4.151   7.783  0.4354 -0.0212 -0.1580
  195ccc     O4 5681   7.016   4.114   7.704 -0.3559  0.1156 -0.1395
  195ccc     O5 5682   7.198   4.081   7.824 -0.3494 -0.2956  0.1431
  195ccc     O1 5683   7.463   4.733   7.517  0.2485 -0.6577  0.0496
  196ccc     C3 5684   7.456   6.185   7.340 -0.6088 -0.9247  0.3845
  196ccc     H5 5685   7.484   6.181   7.446  0.8847 -0.2556  0.0389
  196ccc     H6 5686   7.540   6.233   7.288 -0.2494  0.3988  2.0970
  196ccc     C2 5687   7.328   6.262   7.318 -0.0164 -0.5335 -0.2699
  196ccc     H3 5688   7.310   6.270   7.210  2.9645 -1.4752 -0.9470
  196ccc     H4 5689   7.358   6.365   7.342 -0.4018 -0.5492  0.2823
  196ccc     C1 5690   7.209   6.203   7.401 -0.1828  0.2464 -0.4144
  196ccc     H1 5691   7.255   6.175   7.497  0.3730 -1.5946 -1.1650
  196ccc     H2 5692   7.172   6.108   7.359  2.6636 -0.2972 -1.9936
  196ccc     N1 5693   7.099   6.305   7.426 -0.5402 -0.0327 -0.2030
  196ccc     C4 5694   7.125   6.414   7.513  0.2473  0.8987 -0.5696
  196ccc     H7 5695   7.033   6.473   7.521 -0.2287  0.2778 -1.3217
  196ccc     H8 5696   7.198   6.475   7.460 -0.6365  1.4030 -1.2371
  196ccc     C5 5697   7.170   6.366   7.651  0.5559  0.4621 -0.1340
  196ccc     H9 5698   7.103   6.291   7.695  0.4509  0.9908  0.6258
  196ccc    H10 5699   7.273   6.331   7.667  1.3482  2.9125  0.4516
  196ccc     C6 5700   7.142   6.480   7.745  0.0374  0.2185  0.0350
  196ccc     O2 5701   7.220   6.576   7.741  0.3085  0.0818  0.2502
  196ccc     O3 5702   7.028   6.506   7.776  0.0570 -0.1756 -0.6709
  196ccc     C7 5703   7.021   6.340   7.306 -0.2487 -0.1388  0.1091
  196ccc    H11 5704   7.088   6.395   7.240  1.8450 -0.9063  1.4868
  196ccc    H12 5705   6.990   6.246   7.259 -0.2312 -0.8770  1.5112
  196ccc     C8 5706   6.892   6.421   7.323 -0.4283 -0.1346  0.1324
  196ccc    H13 5707   6.913   6.522   7.358 -0.0021  0.3655 -1.4951
  196ccc    H14 5708   6.855   6.432   7.220 -0.0415  1.1918  0.1230
  196ccc     C9 5709   6.803   6.350   7.413  0.0581  0.0345  0.0924
  196ccc     O4 5710   6.769   6.231   7.388 -0.2715 -0.1110 -0.4469
  196ccc     O5 5711   6.779   6.384   7.527  0.3568 -0.1392  0.7109
  196ccc     O1 5712   7.443   6.052   7.293  0.6810  0.8279 -0.4066
  197ccc     C3 5713   7.202   5.365   7.656  0.7722  0.0100 -0.1420
  197ccc     H5 5714   7.230   5.262   7.681  0.2811 -0.8649 -2.8317
  197ccc     H6 5715   7.157   5.413   7.744 -3.2289 -3.0797 -0.2130
  197ccc     C2 5716   7.085   5.355   7.555  0.6899 -0.7302 -0.2018
  197ccc     H3 5717   7.014   5.281   7.594  3.8255 -2.3491  3.1170
  197ccc     H4 5718   7.138   5.307   7.472  2.2581  0.5702 -0.0052
  197ccc     C1 5719   7.015   5.487   7.513  0.5631 -0.6351 -0.0773
  197ccc     H1 5720   7.018   5.495   7.404 -4.0230 -2.7737 -0.6089
  197ccc     H2 5721   7.067   5.573   7.557 -1.6852 -0.2674  2.0573
  197ccc     N1 5722   6.869   5.486   7.557  0.1904  0.3024  0.4648
  197ccc     C4 5723   6.789   5.603   7.512  0.5530  0.3589  0.5594
  197ccc     H7 5724   6.820   5.697   7.559 -1.9677  1.3838  0.3364
  197ccc     H8 5725   6.682   5.590   7.536  0.7379 -2.5442  0.2154
  197ccc     C5 5726   6.781   5.617   7.358  0.0984  0.0670  0.2677
  197ccc     H9 5727   6.875   5.642   7.308  0.4910 -0.1149  0.8940
  197ccc    H10 5728   6.742   5.525   7.312 -2.4565  0.7761  0.8402
  197ccc     C6 5729   6.680   5.719   7.317 -0.3572 -0.0710 -0.1487
  197ccc     O2 5730   6.647   5.808   7.397 -0.0240  0.4483  0.3192
  197ccc     O3 5731   6.597   5.708   7.233  0.9277 -0.0808  0.1202
  197ccc     C7 5732   6.847   5.473   7.703 -0.1234 -0.5069  0.1283
  197ccc    H11 5733   6.909   5.387   7.732 -0.2698 -0.6029  0.1600
  197ccc    H12 5734   6.886   5.563   7.752  1.2766 -1.9160  1.7644
  197ccc     C8 5735   6.706   5.458   7.748 -0.6414  0.0659 -0.0775
  197ccc    H13 5736   6.650   5.550   7.727 -0.5663  0.1673  0.1569
  197ccc    H14 5737   6.654   5.371   7.707  1.5625 -1.1916 -0.3515
  197ccc     C9 5738   6.703   5.439   7.892  0.2149 -0.3396 -0.6314
  197ccc     O4 5739   6.636   5.510   7.968 -0.0141  0.0851  0.5366
  197ccc     O5 5740   6.774   5.360   7.956 -0.4569 -0.5035 -0.5046
  197ccc     O1 5741   7.309   5.447   7.596 -0.0687  0.4392 -0.0235
  198ccc     C3 5742  10.588   3.308   8.234 -0.0863 -0.5009 -0.3246
  198ccc     H5 5743  10.566   3.358   8.139 -0.5517 -0.2253 -0.0766
  198ccc     H6 5744  10.492   3.321   8.284 -0.1820  0.4661 -0.7298
  198ccc     C2 5745  10.713   3.360   8.317 -0.4532 -0.6393  0.2050
  198ccc     H3 5746  10.699   3.465   8.346 -0.9139 -0.5070 -0.4906
  198ccc     H4 5747  10.805   3.358   8.258 -0.8660  2.1954 -0.6459
  198ccc     C1 5748  10.725   3.282   8.454  0.3138  0.6557  0.3709
  198ccc     H1 5749  10.766   3.182   8.436  0.4718  1.1510 -2.4079
  198ccc     H2 5750  10.624   3.271   8.495  1.0960  0.6213  2.3816
  198ccc     N1 5751  10.804   3.354   8.547 -0.3587 -0.3861 -0.1806
  198ccc     C4 5752  10.799   3.308   8.685 -0.2706  0.0322  0.6408
  198ccc     H7 5753  10.851   3.211   8.691  0.2441  0.2222 -0.4674
  198ccc     H8 5754  10.695   3.287   8.712 -1.1074  2.0279 -0.8273
  198ccc     C5 5755  10.850   3.415   8.789 -0.5955 -0.2651  0.2767
  198ccc     H9 5756  10.954   3.446   8.773 -0.4212 -0.9951 -0.0254
  198ccc    H10 5757  10.788   3.504   8.774  0.7026  0.5354 -0.5344
  198ccc     C6 5758  10.835   3.361   8.923  0.2356 -0.3189  1.0052
  198ccc     O2 5759  10.726   3.362   8.983 -0.4016  0.2282  0.5603
  198ccc     O3 5760  10.920   3.288   8.966  0.2406  0.0678  0.2973
  198ccc     C7 5761  10.940   3.378   8.492  0.5366 -0.8701  0.1525
  198ccc    H11 5762  11.010   3.344   8.569 -1.4759 -0.5635  2.2125
  198ccc    H12 5763  10.968   3.319   8.404  0.2269 -0.3442 -0.3005
  198ccc     C8 5764  10.962   3.529   8.485  0.1750 -0.6224  0.5060
  198ccc    H13 5765  10.910   3.588   8.409  0.4099  1.0468  1.5908
  198ccc    H14 5766  10.933   3.578   8.579  0.0290  1.0459 -0.3814
  198ccc     C9 5767  11.109   3.560   8.467  0.8130 -0.0335  0.7033
  198ccc     O4 5768  11.178   3.498   8.390 -0.5130  0.8034 -0.2728
  198ccc     O5 5769  11.158   3.655   8.517 -0.1344 -0.1355 -0.3927
  198ccc     O1 5770  10.602   3.172   8.200 -0.4073 -0.0258 -0.4598
  199ccc     C3 5771  10.753   3.049   7.356  0.0821 -0.5497 -0.7358
  199ccc     H5 5772  10.837   3.081   7.417  0.2327 -0.5611 -0.9351
  199ccc     H6 5773  10.771   2.943   7.333  0.5295 -0.4241 -0.9806
  199ccc     C2 5774  10.731   3.133   7.228 -0.0484 -0.0183  0.2142
  199ccc     H3 5775  10.825   3.146   7.173  0.4467 -1.0822  0.7657
  199ccc     H4 5776  10.707   3.236   7.255 -0.0355  0.1909 -0.5329
  199ccc     C1 5777  10.619   3.064   7.140  0.1362  0.4773  0.2634
  199ccc     H1 5778  10.610   3.115   7.043 -0.7309 -1.0339 -0.4789
  199ccc     H2 5779  10.528   3.089   7.195 -0.0047  1.0438 -0.2200
  199ccc     N1 5780  10.626   2.912   7.127 -0.1777  0.2693 -0.2647
  199ccc     C4 5781  10.499   2.861   7.070 -0.9883 -0.3975 -0.1909
  199ccc     H7 5782  10.419   2.893   7.137  0.3568  1.4280  0.6145
  199ccc     H8 5783  10.499   2.752   7.084 -1.7361 -0.3180  0.5217
  199ccc     C5 5784  10.480   2.891   6.920  0.9496  0.3433 -0.3490
  199ccc     H9 5785  10.466   2.999   6.906  1.7804  0.5519  0.3559
  199ccc    H10 5786  10.562   2.853   6.857 -1.3582 -0.1090 -3.3544
  199ccc     C6 5787  10.354   2.824   6.879 -0.9335 -0.1451  0.3052
  199ccc     O2 5788  10.364   2.706   6.855  0.1243 -0.2983 -0.3309
  199ccc     O3 5789  10.247   2.877   6.847 -0.4171 -0.0408 -0.2401
  199ccc     C7 5790  10.747   2.861   7.054 -0.0361 -0.7121 -0.6067
  199ccc    H11 5791  10.751   2.896   6.950  0.9758  0.5114 -0.1844
  199ccc    H12 5792  10.827   2.912   7.109 -0.4496 -2.2669  1.5520
  199ccc     C8 5793  10.775   2.712   7.056  0.4193  0.2875 -0.1318
  199ccc    H13 5794  10.884   2.715   7.053  0.4620 -0.6194 -2.7275
  199ccc    H14 5795  10.736   2.662   7.145 -1.2322 -2.0117 -2.0006
  199ccc     C9 5796  10.738   2.626   6.933  0.2268 -0.2934 -0.3512
  199ccc     O4 5797  10.627   2.573   6.936 -0.1850 -0.1728  0.3729
  199ccc     O5 5798  10.827   2.571   6.876 -0.3749  0.3013 -0.1655
  199ccc     O1 5799  10.634   3.062   7.433 -0.5253 -0.1564 -0.2228
  200ccc     C3 5800   9.288   1.485   7.761 -0.4298  0.2814 -0.3404
  200ccc     H5 5801   9.266   1.388   7.716 -2.0923  0.3190  0.3234
  200ccc     H6 5802   9.295   1.474   7.870  0.2488 -2.1360 -0.5830
  200ccc     C2 5803   9.188   1.595   7.723  0.3666 -0.9555 -0.0938
  200ccc     H3 5804   9.089   1.556   7.749  0.3133 -0.9977 -0.3506
  200ccc     H4 5805   9.186   1.601   7.613 -1.4183 -0.7742 -0.0812
  200ccc     C1 5806   9.211   1.728   7.799  0.0841  0.0635 -0.3177
  200ccc     H1 5807   9.300   1.775   7.757 -0.5265  0.3806 -1.2908
  200ccc     H2 5808   9.239   1.711   7.904  1.3025 -0.4065 -0.7051
  200ccc     N1 5809   9.097   1.826   7.792 -0.2073  0.3125  0.2355
  200ccc     C4 5810   9.003   1.821   7.904 -0.4011  0.1722 -0.0877
  200ccc     H7 5811   9.063   1.794   7.991 -0.6396  1.5002  0.5132
  200ccc     H8 5812   8.938   1.732   7.897 -0.2548 -0.2414  2.6270
  200ccc     C5 5813   8.951   1.963   7.936 -0.5809 -0.2178  0.0019
  200ccc     H9 5814   9.030   2.023   7.983  0.2996 -1.0605 -0.3791
  200ccc    H10 5815   8.921   2.010   7.842  2.1761 -0.4286 -1.0835
  200ccc     C6 5816   8.834   1.961   8.035  0.0264  0.7190 -0.4235
  200ccc     O2 5817   8.727   1.995   7.989  0.2509  0.2672  0.5576
  200ccc     O3 5818   8.839   1.982   8.151 -0.3139  0.4293  0.1327
  200ccc     C7 5819   9.032   1.847   7.660  0.2102 -0.2837  0.2874
  200ccc    H11 5820   8.990   1.759   7.609  0.1434  0.5183 -1.1163
  200ccc    H12 5821   8.955   1.924   7.673 -0.1865 -0.6986  0.4149
  200ccc     C8 5822   9.128   1.909   7.554  0.4135 -0.1397 -0.3937
  200ccc    H13 5823   9.161   1.997   7.610  0.6394 -0.4331 -0.0563
  200ccc    H14 5824   9.214   1.848   7.523  0.8059 -0.9015  1.9602
  200ccc     C9 5825   9.045   1.950   7.436  0.0668  0.2713  0.0560
  200ccc     O4 5826   9.027   2.064   7.394  0.0928  0.0833  0.3091
  200ccc     O5 5827   8.988   1.862   7.370  0.2053 -0.2821  0.0946
  200ccc     O1 5828   9.419   1.527   7.706 -0.0668  0.1832 -0.5400
  201ccc     C3 5829   9.976   1.752   6.959  0.3887 -0.1399  0.2280
  201ccc     H5 5830   9.997   1.645   6.949  1.5779  0.1822 -0.9042
  201ccc     H6 5831   9.952   1.789   6.859  1.2847 -1.2049 -0.3905
  201ccc     C2 5832  10.096   1.830   7.023  0.0189  0.1840 -0.2687
  201ccc     H3 5833  10.130   1.757   7.098 -2.4767 -1.4976 -0.6415
  201ccc     H4 5834  10.051   1.920   7.066 -0.7617  0.9544 -2.5730
  201ccc     C1 5835  10.202   1.859   6.913  0.7389  0.3010 -1.1037
  201ccc     H1 5836  10.143   1.903   6.831 -0.5324  3.9039  1.4783
  201ccc     H2 5837  10.257   1.770   6.880 -0.7180 -0.8242 -0.6330
  201ccc     N1 5838  10.288   1.968   6.961  0.3548 -0.0568  0.1744
  201ccc     C4 5839  10.358   1.945   7.091 -0.2783  0.0540 -0.3719
  201ccc     H7 5840  10.287   1.913   7.168  1.5811  1.7789  2.2031
  201ccc     H8 5841  10.405   2.041   7.114  0.4119 -0.1433 -0.9117
  201ccc     C5 5842  10.459   1.838   7.083  0.6912 -0.0728  1.1222
  201ccc     H9 5843  10.411   1.749   7.041  1.3521 -0.0129  0.2008
  201ccc    H10 5844  10.543   1.863   7.016 -0.5853  0.8930 -0.1956
  201ccc     C6 5845  10.515   1.803   7.222  0.2239 -0.0292  0.2174
  201ccc     O2 5846  10.512   1.878   7.321 -0.0547  0.4245 -0.2627
  201ccc     O3 5847  10.560   1.693   7.228  0.1760  0.5722 -0.0229
  201ccc     C7 5848  10.348   2.047   6.854 -0.0485  0.0069  0.4895
  201ccc    H11 5849  10.435   2.003   6.802  0.0917  1.8541 -0.9198
  201ccc    H12 5850  10.269   2.059   6.779  0.6121 -1.6686 -0.5602
  201ccc     C8 5851  10.385   2.189   6.890 -0.1627 -0.2278  0.1818
  201ccc    H13 5852  10.292   2.239   6.922 -0.0975  0.4464 -0.6596
  201ccc    H14 5853  10.466   2.186   6.965 -1.1068 -0.0612  1.2352
  201ccc     C9 5854  10.434   2.272   6.777  0.1460 -0.1921  0.6161
  201ccc     O4 5855  10.419   2.243   6.657  0.0835 -0.0877 -0.1969
  201ccc     O5 5856  10.470   2.386   6.805  0.4225 -0.9721 -0.2365
  201ccc     O1 5857   9.863   1.783   7.047  0.5736  0.3514  0.5841
  202ccc     C3 5858   7.265   3.359   8.770  0.5683 -0.0417 -0.2730
  202ccc     H5 5859   7.252   3.307   8.865  0.6427 -0.2387 -0.3704
  202ccc     H6 5860   7.221   3.459   8.779 -4.1755 -1.7308 -1.9599
  202ccc     C2 5861   7.172   3.304   8.662 -0.1392 -0.2926 -0.0703
  202ccc     H3 5862   7.075   3.294   8.711  1.2423 -1.7387  2.6354
  202ccc     H4 5863   7.199   3.204   8.626  0.1589  0.3344 -1.6564
  202ccc     C1 5864   7.167   3.392   8.530 -0.1603 -0.4209  0.2920
  202ccc     H1 5865   7.266   3.389   8.483 -0.3763  1.3278 -0.3393
  202ccc     H2 5866   7.148   3.497   8.555 -0.4420  0.2739 -2.5333
  202ccc     N1 5867   7.066   3.356   8.425 -0.0635  0.1214  0.1151
  202ccc     C4 5868   6.928   3.344   8.467  0.5880 -0.0942  0.3293
  202ccc     H7 5869   6.864   3.429   8.438 -0.9107 -0.4271  2.4158
  202ccc     H8 5870   6.927   3.350   8.576 -0.9859 -0.4047  0.3697
  202ccc     C5 5871   6.874   3.209   8.421  0.1501 -0.1670  0.2536
  202ccc     H9 5872   6.961   3.154   8.382 -0.5173 -1.6671  0.7861
  202ccc    H10 5873   6.831   3.142   8.497 -1.0337 -1.2205 -1.2674
  202ccc     C6 5874   6.777   3.223   8.310  0.1926 -0.2719  0.4908
  202ccc     O2 5875   6.664   3.248   8.335  0.7003 -0.4790 -0.5215
  202ccc     O3 5876   6.804   3.189   8.192  0.3153  0.9156  0.1363
  202ccc     C7 5877   7.079   3.434   8.307 -0.0694  0.1803 -0.8940
  202ccc    H11 5878   6.983   3.457   8.260 -0.3559 -1.5162 -1.1956
  202ccc    H12 5879   7.125   3.529   8.337  3.4949 -2.0664  1.7701
  202ccc     C8 5880   7.178   3.363   8.207  0.9880  0.0878 -1.2875
  202ccc    H13 5881   7.278   3.379   8.248 -0.0436 -0.1384  1.5325
  202ccc    H14 5882   7.165   3.254   8.214  0.4649  0.2391  0.6041
  202ccc     C9 5883   7.137   3.410   8.072  0.3717 -0.7239 -0.0989
  202ccc     O4 5884   7.042   3.358   8.015  0.2489  0.0578 -0.0218
  202ccc     O5 5885   7.215   3.491   8.013 -0.2753  0.0894  0.0953
  202ccc     O1 5886   7.404   3.367   8.737 -0.5237  0.1412  0.0447
  203ccc     C3 5887   8.079   2.655   8.401  0.6304  0.0329  0.1267
  203ccc     H5 5888   8.037   2.555   8.406 -1.2973  0.7185 -1.2857
  203ccc     H6 5889   8.080   2.697   8.299 -1.0487  0.4031  0.2469
  203ccc     C2 5890   8.225   2.660   8.459 -0.4316  0.1299 -0.1144
  203ccc     H3 5891   8.227   2.594   8.547 -1.7214  0.2088 -0.0078
  203ccc     H4 5892   8.257   2.760   8.489  1.7397 -0.3282 -0.6943
  203ccc     C1 5893   8.315   2.604   8.352 -0.7900 -0.3115  0.5058
  203ccc     H1 5894   8.288   2.635   8.250 -1.3799 -0.2895  0.6665
  203ccc     H2 5895   8.302   2.495   8.357  2.0617 -0.8013 -0.4751
  203ccc     N1 5896   8.459   2.626   8.367 -0.1019 -0.3900 -0.6518
  203ccc     C4 5897   8.553   2.546   8.288  0.3976 -0.4568 -0.1238
  203ccc     H7 5898   8.649   2.595   8.273  0.5442 -0.9139 -0.7288
  203ccc     H8 5899   8.520   2.536   8.183  1.3666 -1.6818 -0.3406
  203ccc     C5 5900   8.567   2.413   8.351  1.2280  0.0486 -0.1826
  203ccc     H9 5901   8.577   2.429   8.459 -3.2631 -0.0924  0.4424
  203ccc    H10 5902   8.484   2.345   8.330  0.1201  0.4040  2.6446
  203ccc     C6 5903   8.693   2.340   8.311 -0.2750  0.0891 -0.0816
  203ccc     O2 5904   8.796   2.366   8.366 -0.1817 -0.1051  0.3702
  203ccc     O3 5905   8.693   2.247   8.233 -0.4704  0.1799  0.6709
  203ccc     C7 5906   8.497   2.773   8.351 -0.1732  0.0339 -0.3028
  203ccc    H11 5907   8.526   2.803   8.250 -0.2379 -2.7932 -1.2295
  203ccc    H12 5908   8.414   2.835   8.388  1.3648 -0.0349  3.7456
  203ccc     C8 5909   8.605   2.788   8.459 -0.1185  0.2359 -0.1148
  203ccc    H13 5910   8.557   2.769   8.556  0.8766  1.7176  0.7177
  203ccc    H14 5911   8.691   2.720   8.450 -1.4913 -1.8516  1.5082
  203ccc     C9 5912   8.651   2.929   8.460 -0.4589  0.2757 -0.5332
  203ccc     O4 5913   8.731   2.961   8.373  0.3372  0.0927 -0.0855
  203ccc     O5 5914   8.618   3.010   8.540 -0.3308 -0.1885 -0.9996
  203ccc     O1 5915   8.010   2.748   8.493 -0.4675  0.5073 -0.2193
  204ccc     C3 5916   6.827   2.363   7.769  0.8580 -0.0488  0.0361
  204ccc     H5 5917   6.800   2.319   7.866 -0.6984  0.5774 -0.0892
  204ccc     H6 5918   6.739   2.398   7.715  1.7235  0.8024 -0.8485
  204ccc     C2 5919   6.896   2.256   7.683  0.2645 -0.6078 -0.2054
  204ccc     H3 5920   6.822   2.178   7.660 -0.1747 -0.3562  0.3437
  204ccc     H4 5921   6.964   2.208   7.755 -0.4100 -0.5306  0.4876
  204ccc     C1 5922   6.961   2.320   7.557  0.3616  1.1911  0.8609
  204ccc     H1 5923   7.043   2.385   7.587  0.5100  2.5329 -2.0830
  204ccc     H2 5924   6.888   2.376   7.496 -2.4043  0.2114  3.0478
  204ccc     N1 5925   7.015   2.212   7.467  0.1161 -0.2540 -0.3849
  204ccc     C4 5926   7.034   2.258   7.338 -0.7255  0.0544  0.0174
  204ccc     H7 5927   7.114   2.206   7.284  1.1511  2.5129  0.2612
  204ccc     H8 5928   7.077   2.359   7.344  2.3950 -1.2366  1.7940
  204ccc     C5 5929   6.914   2.259   7.245  0.4524  0.0228  0.0916
  204ccc     H9 5930   6.877   2.160   7.217 -0.4540  0.7646 -1.5013
  204ccc    H10 5931   6.834   2.314   7.297  1.1668  1.7629 -0.5729
  204ccc     C6 5932   6.957   2.340   7.125 -0.1089  0.1869  0.2730
  204ccc     O2 5933   6.934   2.455   7.103 -0.4699 -0.3662  0.0704
  204ccc     O3 5934   7.031   2.293   7.039 -0.6621  0.1391  0.3913
  204ccc     C7 5935   7.135   2.134   7.515  1.0790  0.4693  0.0547
  204ccc    H11 5936   7.096   2.081   7.603 -0.2669 -1.4028 -1.5788
  204ccc    H12 5937   7.171   2.067   7.436  0.3399  0.5576 -0.3692
  204ccc     C8 5938   7.251   2.225   7.549 -0.6127  0.1130 -0.0474
  204ccc    H13 5939   7.256   2.306   7.475  0.0809 -0.6440 -0.8588
  204ccc    H14 5940   7.230   2.274   7.645  2.1241 -0.6156  0.9993
  204ccc     C9 5941   7.379   2.142   7.554  0.4157  0.7725 -0.2985
  204ccc     O4 5942   7.453   2.149   7.455  0.2445 -0.4788 -0.3988
  204ccc     O5 5943   7.426   2.133   7.664 -0.0629  0.3770  0.3955
  204ccc     O1 5944   6.918   2.472   7.786  0.4837 -0.1241 -0.0329
  205ccc     C3 5945   7.820   2.622   7.518  0.1035 -0.7033  0.1931
  205ccc     H5 5946   7.888   2.693   7.568 -1.3889 -0.1295  1.5139
  205ccc     H6 5947   7.870   2.525   7.520  2.6798  0.4831  3.6757
  205ccc     C2 5948   7.793   2.667   7.372  0.3888  0.1489 -0.5573
  205ccc     H3 5949   7.882   2.701   7.318  0.3348  0.8087 -0.2405
  205ccc     H4 5950   7.725   2.754   7.365  1.2317  0.6997 -2.4512
  205ccc     C1 5951   7.733   2.545   7.301 -0.1509  0.1732 -0.6308
  205ccc     H1 5952   7.669   2.483   7.365 -1.8890  2.4661  0.0014
  205ccc     H2 5953   7.819   2.489   7.264 -0.5098 -0.0958 -1.0714
  205ccc     N1 5954   7.650   2.580   7.186 -0.3429 -0.1821  0.5085
  205ccc     C4 5955   7.560   2.476   7.122  0.1519 -0.2298 -0.5338
  205ccc     H7 5956   7.611   2.379   7.128 -1.8550 -1.2622  0.8698
  205ccc     H8 5957   7.542   2.506   7.018  0.5991  0.5743 -0.3897
  205ccc     C5 5958   7.418   2.485   7.187 -0.0621  0.5269 -0.1812
  205ccc     H9 5959   7.413   2.464   7.294 -0.6602  0.4060 -0.2266
  205ccc    H10 5960   7.371   2.580   7.157  0.3094  0.4699 -0.9767
  205ccc     C6 5961   7.335   2.385   7.115 -0.2019 -0.2192 -0.0713
  205ccc     O2 5962   7.349   2.262   7.126  0.2185  0.3186 -0.0161
  205ccc     O3 5963   7.272   2.424   7.019  0.2981  0.1204  0.0389
  205ccc     C7 5964   7.724   2.665   7.089 -0.5643  0.1036 -0.0501
  205ccc    H11 5965   7.654   2.679   7.006 -1.5190 -2.4994  0.2261
  205ccc    H12 5966   7.750   2.764   7.129 -0.3757  0.0892 -0.1363
  205ccc     C8 5967   7.852   2.594   7.031  0.9877  0.0253  0.6524
  205ccc    H13 5968   7.927   2.592   7.111 -0.5280  0.7461  2.1429
  205ccc    H14 5969   7.843   2.495   6.986  1.6682  0.4694 -0.5397
  205ccc     C9 5970   7.898   2.692   6.923  0.6177  0.5410  0.3892
  205ccc     O4 5971   7.940   2.643   6.819  0.8441  0.2437  0.1173
  205ccc     O5 5972   7.894   2.810   6.937  0.1114 -0.8246 -0.0763
  205ccc     O1 5973   7.694   2.616   7.588 -0.3570  0.3707 -0.5238
  206ccc     C3 5974  11.146   5.015   5.421  0.1537  0.1252 -0.8835
  206ccc     H5 5975  11.119   5.107   5.475 -0.2588 -0.9459  0.8200
  206ccc     H6 5976  11.232   5.048   5.361  0.9027  2.3182  1.2317
  206ccc     C2 5977  11.030   4.973   5.328 -0.8181  0.8827  1.5024
  206ccc     H3 5978  11.001   5.054   5.259 -0.1045  0.7656  1.0517
  206ccc     H4 5979  10.936   4.954   5.381 -0.2588 -2.6318  1.4556
  206ccc     C1 5980  11.063   4.849   5.239 -0.3006 -0.5558 -0.4232
  206ccc     H1 5981  11.013   4.759   5.276  0.1863  0.2336  2.3498
  206ccc     H2 5982  11.169   4.826   5.254  0.2099  1.9682  0.3399
  206ccc     N1 5983  11.041   4.862   5.096 -0.3187  0.4498 -0.2211
  206ccc     C4 5984  11.137   4.953   5.037  0.3740  0.1466 -0.3026
  206ccc     H7 5985  11.134   5.055   5.078  1.0791 -0.3981  1.1609
  206ccc     H8 5986  11.114   4.970   4.932  1.3012  0.9980 -0.3832
  206ccc     C5 5987  11.287   4.902   5.031  0.4224 -0.3193  0.7872
  206ccc     H9 5988  11.333   4.919   5.130  0.5083  1.1888  0.5203
  206ccc    H10 5989  11.303   4.795   5.017  1.4182 -0.1754  0.7126
  206ccc     C6 5990  11.351   4.976   4.919  0.1380  0.4767  0.1685
  206ccc     O2 5991  11.338   4.940   4.802  0.4314 -0.0511 -0.4786
  206ccc     O3 5992  11.364   5.098   4.932 -0.3110 -0.0849  0.3971
  206ccc     C7 5993  11.035   4.722   5.031  0.0570  0.2557  0.0039
  206ccc    H11 5994  11.124   4.661   5.050 -0.0367 -0.7514 -2.3659
  206ccc    H12 5995  10.942   4.676   5.065 -0.0273 -1.1259 -1.8982
  206ccc     C8 5996  11.019   4.727   4.878 -0.7316  0.6076  0.0154
  206ccc    H13 5997  10.930   4.786   4.851 -0.3088  1.1628 -0.1819
  206ccc    H14 5998  11.106   4.772   4.829 -0.1567  1.0051  1.3434
  206ccc     C9 5999  10.989   4.588   4.827  0.3039 -0.6937  0.4343
  206ccc     O4 6000  11.016   4.489   4.886 -0.3055 -0.1252  0.5131
  206ccc     O5 6001  10.972   4.588   4.706  0.0899  0.8903  0.5459
  206ccc     O1 6002  11.176   4.908   5.520 -0.0622  0.0521  0.3980
  207ccc     C3 6003  11.472   4.955   6.317 -0.2150 -0.4471  0.0229
  207ccc     H5 6004  11.555   4.937   6.247 -0.9001  0.5775 -1.0906
  207ccc     H6 6005  11.455   5.063   6.325 -2.1929 -0.6504 -0.8087
  207ccc     C2 6006  11.493   4.909   6.456  0.0717  0.3551 -0.2246
  207ccc     H3 6007  11.585   4.950   6.500 -0.7254  1.3839  0.5211
  207ccc     H4 6008  11.494   4.799   6.452  0.1070  0.0886  3.5154
  207ccc     C1 6009  11.382   4.942   6.555 -0.4028  0.6589 -0.0933
  207ccc     H1 6010  11.280   4.927   6.518 -0.7196  0.9582  0.6399
  207ccc     H2 6011  11.392   5.050   6.572 -0.8488  0.6830  0.0232
  207ccc     N1 6012  11.386   4.889   6.694  0.1183  0.2383  0.7557
  207ccc     C4 6013  11.429   4.745   6.710 -0.5976 -0.2145  0.2134
  207ccc     H7 6014  11.431   4.723   6.817 -2.3525 -1.5828  0.0160
  207ccc     H8 6015  11.521   4.716   6.658  0.6186  0.2293  2.0503
  207ccc     C5 6016  11.326   4.649   6.647 -1.1276  0.6259 -0.1745
  207ccc     H9 6017  11.220   4.662   6.671 -1.3076  2.6787 -1.7891
  207ccc    H10 6018  11.317   4.656   6.538 -2.0133 -0.5472 -0.1940
  207ccc     C6 6019  11.376   4.512   6.678 -0.2178 -0.4021 -0.1174
  207ccc     O2 6020  11.323   4.446   6.764 -0.0817 -0.1439  0.4234
  207ccc     O3 6021  11.467   4.456   6.618 -0.6673  0.7956  0.0737
  207ccc     C7 6022  11.271   4.919   6.774  0.5490  0.1520  0.3141
  207ccc    H11 6023  11.181   4.869   6.737 -0.1752  0.8998  1.0083
  207ccc    H12 6024  11.297   4.881   6.874  0.7066  0.4899  0.4048
  207ccc     C8 6025  11.240   5.074   6.781 -0.7410 -0.2270  0.2415
  207ccc    H13 6026  11.318   5.142   6.818 -1.6863  1.2807 -0.4217
  207ccc    H14 6027  11.217   5.106   6.679  0.8897  0.1367 -0.0338
  207ccc     C9 6028  11.118   5.097   6.856  0.6814  0.1978  0.5814
  207ccc     O4 6029  11.033   5.184   6.820  0.9121  0.1184 -0.1159
  207ccc     O5 6030  11.123   5.068   6.972  0.8461  0.8855  0.5768
  207ccc     O1 6031  11.351   4.898   6.271  0.3547  0.4937 -0.3166
  208ccc     C3 6032   9.981   5.453   6.181 -0.5218 -0.8763  0.4100
  208ccc     H5 6033   9.948   5.541   6.239  1.0313  2.2270 -3.0002
  208ccc     H6 6034  10.045   5.500   6.106 -0.3889  0.1524  1.1367
  208ccc     C2 6035   9.872   5.378   6.102  0.1187 -0.0641 -0.3454
  208ccc     H3 6036   9.919   5.297   6.045  1.3648  0.2017  0.2866
  208ccc     H4 6037   9.822   5.443   6.029 -3.0974 -1.8755  0.0408
  208ccc     C1 6038   9.763   5.310   6.186  0.3405 -0.8056 -0.1823
  208ccc     H1 6039   9.794   5.227   6.252  0.2226 -0.6300  0.0933
  208ccc     H2 6040   9.689   5.266   6.119  0.1342 -1.0323  0.1863
  208ccc     N1 6041   9.682   5.403   6.269  0.0555  0.8271  0.0206
  208ccc     C4 6042   9.735   5.444   6.404  0.1498  0.6108 -0.0020
  208ccc     H7 6043   9.642   5.482   6.448 -0.0769  1.4067 -1.1376
  208ccc     H8 6044   9.804   5.529   6.388  1.1071  0.1579  1.5123
  208ccc     C5 6045   9.782   5.326   6.495  0.0058  0.1145  0.0684
  208ccc     H9 6046   9.704   5.250   6.507 -1.0782  1.5326  2.8652
  208ccc    H10 6047   9.874   5.278   6.459 -1.7197 -2.0079 -1.8491
  208ccc     C6 6048   9.819   5.393   6.625  0.0801 -0.0882 -0.1042
  208ccc     O2 6049   9.724   5.399   6.704 -0.3448  0.1476 -0.1535
  208ccc     O3 6050   9.917   5.455   6.650 -0.3091  0.2037  0.0495
  208ccc     C7 6051   9.610   5.508   6.194 -0.3389  0.1323 -0.0490
  208ccc    H11 6052   9.549   5.569   6.261 -0.4194  0.5892 -0.5291
  208ccc    H12 6053   9.682   5.579   6.152 -0.9756  0.0901 -1.2760
  208ccc     C8 6054   9.528   5.448   6.079 -0.3330  0.0647  0.2935
  208ccc    H13 6055   9.583   5.402   5.996 -3.8219 -2.6106 -0.8390
  208ccc    H14 6056   9.464   5.368   6.119 -1.6793 -0.0484 -1.8815
  208ccc     C9 6057   9.442   5.558   6.030  0.0271 -0.7668  0.0338
  208ccc     O4 6058   9.348   5.592   6.094  0.7551  0.1404 -0.2425
  208ccc     O5 6059   9.466   5.625   5.929  0.2411  0.3941  0.4342
  208ccc     O1 6060  10.069   5.367   6.259  1.0574 -0.2352  0.2131
  209ccc     C3 6061  10.268   4.659   6.815  0.7630  0.5927  0.2384
  209ccc     H5 6062  10.191   4.667   6.893 -0.6647  1.7856 -1.2235
  209ccc     H6 6063  10.232   4.590   6.738 -1.4288  1.3140  0.5480
  209ccc     C2 6064  10.397   4.596   6.870 -0.2873 -0.9110 -0.0372
  209ccc     H3 6065  10.433   4.655   6.955 -2.8227  1.3848 -0.4618
  209ccc     H4 6066  10.461   4.590   6.781 -0.3101 -0.4985 -0.0817
  209ccc     C1 6067  10.365   4.450   6.915  0.2643 -0.4713  0.0803
  209ccc     H1 6068  10.349   4.392   6.823  1.0523 -2.5739  1.1814
  209ccc     H2 6069  10.270   4.454   6.969  0.6985  0.4974  0.7871
  209ccc     N1 6070  10.464   4.383   6.998 -0.7405  1.0848 -0.0028
  209ccc     C4 6071  10.587   4.344   6.941 -0.3977  0.2013 -0.4447
  209ccc     H7 6072  10.643   4.287   7.016 -0.3541 -0.0598 -0.6723
  209ccc     H8 6073  10.648   4.427   6.904  0.6016 -0.2410  0.1637
  209ccc     C5 6074  10.581   4.245   6.821 -0.3720 -0.7432 -1.1125
  209ccc     H9 6075  10.526   4.151   6.834 -1.2782 -0.3420 -1.8534
  209ccc    H10 6076  10.529   4.297   6.740 -0.8148 -0.3484 -0.5834
  209ccc     C6 6077  10.715   4.197   6.780  0.1366  0.1830 -0.8125
  209ccc     O2 6078  10.772   4.245   6.686 -0.3728 -0.0406 -0.1399
  209ccc     O3 6079  10.779   4.103   6.835  0.2139  0.0554 -0.3271
  209ccc     C7 6080  10.496   4.467   7.116 -0.0695 -0.0558  0.0441
  209ccc    H11 6081  10.569   4.414   7.177  1.6602  2.2370  0.0917
  209ccc    H12 6082  10.558   4.553   7.087 -0.0706  0.1247  0.5695
  209ccc     C8 6083  10.371   4.481   7.209  0.0856  0.0169  0.2947
  209ccc    H13 6084  10.286   4.539   7.169 -0.3077  0.1823  1.3403
  209ccc    H14 6085  10.332   4.381   7.234  0.0114 -0.8458 -2.8921
  209ccc     C9 6086  10.414   4.550   7.333 -0.6351 -0.8156  0.5662
  209ccc     O4 6087  10.411   4.500   7.446  0.3732  0.3438  0.5748
  209ccc     O5 6088  10.417   4.673   7.335  0.3690  0.1029  0.5018
  209ccc     O1 6089  10.293   4.792   6.759 -0.1809 -0.4465 -0.5880
  210ccc     C3 6090   9.727   3.309   4.784  0.0866 -0.2089 -0.3331
  210ccc     H5 6091   9.828   3.331   4.750 -0.1174  0.7643 -0.3404
  210ccc     H6 6092   9.729   3.233   4.863  2.8445  1.8978  1.8359
  210ccc     C2 6093   9.672   3.239   4.659  0.1563 -0.6407 -0.7022
  210ccc     H3 6094   9.677   3.312   4.578 -0.5330 -2.2103 -2.2415
  210ccc     H4 6095   9.567   3.216   4.684  0.0609  0.0723 -0.4451
  210ccc     C1 6096   9.739   3.099   4.636  0.1279 -0.5186 -0.5473
  210ccc     H1 6097   9.724   3.033   4.723 -1.9533 -1.2002 -1.3441
  210ccc     H2 6098   9.846   3.122   4.640  0.6011 -1.8777 -3.1474
  210ccc     N1 6099   9.698   3.029   4.514 -0.3008  0.6210  0.0392
  210ccc     C4 6100   9.735   3.096   4.389 -0.4715 -0.2120  0.0407
  210ccc     H7 6101   9.839   3.068   4.369 -0.2913 -0.1599  0.8803
  210ccc     H8 6102   9.725   3.205   4.392  0.3943 -0.0961 -0.7407
  210ccc     C5 6103   9.654   3.051   4.271 -0.6021  0.6839  0.0955
  210ccc     H9 6104   9.688   2.951   4.243 -0.2198  1.4804 -2.6931
  210ccc    H10 6105   9.548   3.048   4.297 -1.3065 -0.7433 -2.5429
  210ccc     C6 6106   9.667   3.135   4.150 -0.5009  0.1917 -0.1018
  210ccc     O2 6107   9.576   3.210   4.123 -0.3238  0.2619  0.2704
  210ccc     O3 6108   9.767   3.125   4.081 -0.6764  0.3419 -0.1435
  210ccc     C7 6109   9.696   2.883   4.527  0.0139  0.4446 -0.5470
  210ccc    H11 6110   9.669   2.862   4.632 -0.7284 -0.3754 -0.8865
  210ccc    H12 6111   9.608   2.843   4.475 -0.2388  0.3478 -0.0592
  210ccc     C8 6112   9.835   2.830   4.486  0.1845  0.2353 -0.0023
  210ccc    H13 6113   9.847   2.825   4.377  0.5918 -0.7145  0.0724
  210ccc    H14 6114   9.917   2.894   4.521 -0.5620 -0.1522  2.6091
  210ccc     C9 6115   9.857   2.690   4.525  0.3981  0.0620  0.1739
  210ccc     O4 6116   9.904   2.672   4.635 -0.4019 -0.2620 -0.4061
  210ccc     O5 6117   9.816   2.602   4.450  0.6605 -0.1959 -0.4873
  210ccc     O1 6118   9.647   3.422   4.833 -0.8180 -0.0245 -0.1136
  211ccc     C3 6119  10.291   3.615   5.520 -0.2988 -1.0068 -0.3872
  211ccc     H5 6120  10.361   3.690   5.480  0.2299 -1.7875 -0.9472
  211ccc     H6 6121  10.267   3.634   5.625  3.8857 -1.9110  0.9246
  211ccc     C2 6122  10.357   3.480   5.510 -0.1618  0.0300  0.3701
  211ccc     H3 6123  10.456   3.480   5.557 -1.1625 -1.4538  2.6682
  211ccc     H4 6124  10.379   3.477   5.402 -1.2659  2.5875 -0.0128
  211ccc     C1 6125  10.269   3.359   5.546  0.2117 -0.0789 -0.1156
  211ccc     H1 6126  10.165   3.380   5.515  0.8760  3.2764 -0.4491
  211ccc     H2 6127  10.268   3.360   5.656  1.5475  0.6735 -0.0899
  211ccc     N1 6128  10.322   3.228   5.500 -0.0420 -0.0213 -0.2285
  211ccc     C4 6129  10.366   3.205   5.361 -0.1233  0.2892 -0.1640
  211ccc     H7 6130  10.431   3.117   5.366  1.6484  1.4787 -1.4270
  211ccc     H8 6131  10.430   3.287   5.327 -0.1917 -0.5915 -2.5995
  211ccc     C5 6132  10.241   3.187   5.268  0.0807  0.1781  0.4100
  211ccc     H9 6133  10.174   3.109   5.305  0.2347 -0.0478  0.2131
  211ccc    H10 6134  10.179   3.276   5.252  1.3398  1.3438  1.6660
  211ccc     C6 6135  10.287   3.142   5.130 -0.9551  0.2347  0.7509
  211ccc     O2 6136  10.384   3.195   5.068  0.1915  0.2870 -0.5556
  211ccc     O3 6137  10.212   3.071   5.069  0.3560  0.1219 -0.1774
  211ccc     C7 6138  10.241   3.123   5.561  0.6134  0.2838  0.1472
  211ccc    H11 6139  10.236   3.135   5.670 -1.1939 -2.0967  0.3986
  211ccc    H12 6140  10.137   3.140   5.530  0.6540  0.6373  0.1929
  211ccc     C8 6141  10.287   2.980   5.528  0.4300  0.6239  0.2490
  211ccc    H13 6142  10.250   2.952   5.429  0.5522 -0.0212  0.3807
  211ccc    H14 6143  10.396   2.984   5.539  0.9725 -1.4498 -3.1949
  211ccc     C9 6144  10.225   2.883   5.619  0.1045 -0.1459 -0.1066
  211ccc     O4 6145  10.294   2.805   5.675 -0.1741 -0.3014  0.3300
  211ccc     O5 6146  10.104   2.862   5.619 -0.2595 -0.0179 -0.4466
  211ccc     O1 6147  10.174   3.617   5.435  0.5825  0.5205 -0.0362
  212ccc     C3 6148   9.069   5.120   5.424  0.1605 -0.2078 -0.3518
  212ccc     H5 6149   9.033   5.051   5.502  0.7654 -1.1239 -0.8698
  212ccc     H6 6150   9.170   5.146   5.458 -0.7231 -0.1576  2.5162
  212ccc     C2 6151   8.971   5.242   5.416 -1.0561 -0.2853 -0.1651
  212ccc     H3 6152   9.014   5.330   5.366  0.0005 -0.7984 -0.1818
  212ccc     H4 6153   8.949   5.269   5.519  1.1905  1.1786 -0.0010
  212ccc     C1 6154   8.846   5.211   5.335  0.5945 -0.6264 -0.0142
  212ccc     H1 6155   8.872   5.171   5.236  1.4395  0.4359 -0.2383
  212ccc     H2 6156   8.784   5.301   5.325  0.5076 -0.2344  3.0920
  212ccc     N1 6157   8.760   5.103   5.401  0.4605 -0.0095  0.3396
  212ccc     C4 6158   8.662   5.163   5.497  0.6312  0.0540  0.0957
  212ccc     H7 6159   8.577   5.204   5.441  0.4647  1.8500  1.5733
  212ccc     H8 6160   8.699   5.250   5.553 -1.1611  1.4117 -0.7351
  212ccc     C5 6161   8.612   5.050   5.589 -0.4262 -0.4447  0.8499
  212ccc     H9 6162   8.529   4.998   5.539 -0.8353 -0.3729  1.4410
  212ccc    H10 6163   8.697   4.988   5.620 -0.5586 -0.9105  0.2914
  212ccc     C6 6164   8.556   5.103   5.713  0.1384  1.0664 -0.2584
  212ccc     O2 6165   8.622   5.122   5.815  0.1550 -0.1435 -0.2930
  212ccc     O3 6166   8.431   5.101   5.735 -0.1038 -0.6927  0.2221
  212ccc     C7 6167   8.703   5.015   5.297  0.3251  0.2203  0.0389
  212ccc    H11 6168   8.783   4.955   5.250 -0.3072 -0.6895  0.0991
  212ccc    H12 6169   8.648   4.941   5.356  0.3422 -0.1315 -0.3729
  212ccc     C8 6170   8.624   5.082   5.186  0.2787  0.4766 -0.2153
  212ccc    H13 6171   8.536   5.132   5.228 -0.3847 -1.8297  1.3206
  212ccc    H14 6172   8.682   5.155   5.128 -0.3008 -0.0143 -1.4475
  212ccc     C9 6173   8.569   4.980   5.090  0.3609 -0.1327 -0.0899
  212ccc     O4 6174   8.643   4.947   5.000  0.0077  0.1579  0.1037
  212ccc     O5 6175   8.488   4.897   5.128  0.1377 -0.3490  0.4650
  212ccc     O1 6176   9.065   5.055   5.298  0.0635 -0.5597  0.0401
  213ccc     C3 6177   8.958   4.533   4.688  0.2343 -0.4671 -0.2041
  213ccc     H5 6178   8.993   4.442   4.638  0.1013 -0.1923 -0.8095
  213ccc     H6 6179   8.870   4.508   4.749  1.3223  0.2011  1.7073
  213ccc     C2 6180   8.920   4.626   4.568  0.0281 -0.3351  0.4423
  213ccc     H3 6181   9.008   4.625   4.502  0.3235  0.4581  0.8122
  213ccc     H4 6182   8.909   4.731   4.599 -1.5497 -0.2111 -0.4215
  213ccc     C1 6183   8.810   4.570   4.473 -0.3202 -0.0329 -0.0447
  213ccc     H1 6184   8.864   4.484   4.431  2.1693  1.2897  0.2907
  213ccc     H2 6185   8.784   4.647   4.400  1.8129 -2.3555 -3.5703
  213ccc     N1 6186   8.688   4.515   4.535  0.5347 -0.4925  0.1349
  213ccc     C4 6187   8.591   4.471   4.441 -0.3773  0.3543 -0.3656
  213ccc     H7 6188   8.585   4.532   4.350  1.8996  0.3859 -0.5561
  213ccc     H8 6189   8.494   4.454   4.489  0.3541 -0.3703  0.8848
  213ccc     C5 6190   8.629   4.325   4.402 -0.3603 -0.0403  0.1205
  213ccc     H9 6191   8.721   4.325   4.343 -0.3117  0.8938  0.1740
  213ccc    H10 6192   8.646   4.269   4.495  2.1080  0.3709 -0.0061
  213ccc     C6 6193   8.522   4.270   4.313 -0.0941  0.0009  0.1484
  213ccc     O2 6194   8.441   4.191   4.358 -0.3258  0.7255 -0.1569
  213ccc     O3 6195   8.504   4.308   4.202  0.1374 -0.5418  0.1657
  213ccc     C7 6196   8.621   4.615   4.626  1.2797 -0.3740 -0.4761
  213ccc    H11 6197   8.702   4.667   4.678  0.0397  0.0442  1.1122
  213ccc    H12 6198   8.555   4.686   4.574  3.1235  0.4808 -1.7684
  213ccc     C8 6199   8.544   4.553   4.742  0.1460  1.3858  0.2953
  213ccc    H13 6200   8.465   4.492   4.696  0.6143  0.3422  0.8467
  213ccc    H14 6201   8.614   4.486   4.793  0.8339  0.1721 -2.1261
  213ccc     C9 6202   8.482   4.648   4.841  0.0006  0.4954 -0.1699
  213ccc     O4 6203   8.389   4.721   4.811  0.0362 -0.4010 -0.5987
  213ccc     O5 6204   8.524   4.656   4.954  0.2566 -0.5077  0.4806
  213ccc     O1 6205   9.056   4.607   4.765 -0.2216 -0.6271 -0.3960
  214ccc     C3 6206  11.173   2.985   7.898  0.4882 -0.2514 -0.5142
  214ccc     H5 6207  11.134   2.891   7.939  0.4136  0.6174  1.5528
  214ccc     H6 6208  11.194   2.984   7.791  0.2403  3.3306 -0.7275
  214ccc     C2 6209  11.288   3.021   7.991  0.2847  0.2427 -0.7271
  214ccc     H3 6210  11.347   2.929   8.006 -2.0506 -1.1561  0.3430
  214ccc     H4 6211  11.257   3.051   8.091  0.9090 -3.2612  0.6667
  214ccc     C1 6212  11.377   3.127   7.924  0.4309 -0.3720 -0.4384
  214ccc     H1 6213  11.309   3.204   7.885 -0.6727 -0.2256  1.6357
  214ccc     H2 6214  11.420   3.070   7.841 -0.5589 -1.1183 -0.4420
  214ccc     N1 6215  11.483   3.183   8.012 -0.3590 -0.4068  0.5137
  214ccc     C4 6216  11.555   3.080   8.080 -0.5016 -0.0570  0.2124
  214ccc     H7 6217  11.569   2.989   8.021  1.0328  0.9462 -1.0519
  214ccc     H8 6218  11.502   3.052   8.172  1.4597  0.6826  1.6491
  214ccc     C5 6219  11.688   3.139   8.124  0.1222  0.3081  0.2457
  214ccc     H9 6220  11.766   3.129   8.047 -2.4211 -1.3836 -2.3212
  214ccc    H10 6221  11.684   3.245   8.154  0.4873  1.9282 -4.4788
  214ccc     C6 6222  11.730   3.045   8.230  0.1738  0.4203  0.1800
  214ccc     O2 6223  11.764   2.930   8.199  0.0415 -0.5141 -0.6406
  214ccc     O3 6224  11.767   3.088   8.335  0.0145 -0.0039  0.4375
  214ccc     C7 6225  11.430   3.287   8.104 -0.3804 -0.8903  0.0124
  214ccc    H11 6226  11.322   3.266   8.099 -0.4328 -0.3688 -1.8784
  214ccc    H12 6227  11.472   3.283   8.205  1.7571  1.0478 -0.7064
  214ccc     C8 6228  11.468   3.425   8.048  0.1164  0.1105 -0.8573
  214ccc    H13 6229  11.576   3.447   8.039 -0.1013  2.0722  0.6668
  214ccc    H14 6230  11.430   3.444   7.947  0.3198  0.8957 -0.7982
  214ccc     C9 6231  11.414   3.539   8.133 -0.3666 -0.3522 -0.0636
  214ccc     O4 6232  11.465   3.546   8.244  0.0493  0.9615 -0.1063
  214ccc     O5 6233  11.295   3.569   8.132 -0.1981  0.0469  0.0800
  214ccc     O1 6234  11.069   3.078   7.919  0.2315  0.3144  0.2175
  215ccc     C3 6235  10.251   3.488   7.760 -0.3787 -0.2516 -0.4762
  215ccc     H5 6236  10.254   3.407   7.686 -1.3987 -0.1167 -0.6935
  215ccc     H6 6237  10.207   3.464   7.857  0.5276  0.3951  0.0978
  215ccc     C2 6238  10.184   3.609   7.684 -0.2489  0.5246 -0.2984
  215ccc     H3 6239  10.195   3.696   7.749 -0.8168 -0.0094  0.5282
  215ccc     H4 6240  10.079   3.579   7.668 -0.4853 -1.7164  4.0536
  215ccc     C1 6241  10.259   3.625   7.548  0.2367  0.3582  0.2395
  215ccc     H1 6242  10.241   3.534   7.490 -0.0358  0.3799  0.2885
  215ccc     H2 6243  10.369   3.625   7.552  0.2182  0.9228  0.9837
  215ccc     N1 6244  10.220   3.749   7.471 -0.2858  0.6658 -0.3812
  215ccc     C4 6245  10.084   3.748   7.406 -0.2928 -0.4538  0.2624
  215ccc     H7 6246  10.088   3.834   7.337 -0.0436 -0.8044 -0.1705
  215ccc     H8 6247  10.009   3.765   7.484 -0.8259 -0.9145 -0.1443
  215ccc     C5 6248  10.065   3.614   7.326 -0.1988  0.1516 -0.2878
  215ccc     H9 6249  10.145   3.591   7.255 -0.7316 -0.3869 -0.7208
  215ccc    H10 6250  10.063   3.531   7.397 -2.9888  0.3914  0.0175
  215ccc     C6 6251   9.931   3.606   7.264  0.3935 -0.9250 -0.6886
  215ccc     O2 6252   9.916   3.632   7.148  0.0944  0.2656 -0.1863
  215ccc     O3 6253   9.835   3.560   7.320 -0.1982  0.0012  0.2447
  215ccc     C7 6254  10.255   3.872   7.554 -0.1772  0.5489 -0.3098
  215ccc    H11 6255  10.180   3.889   7.632  0.8774  1.3272  0.5643
  215ccc    H12 6256  10.358   3.864   7.591 -0.9788 -0.0015  1.9591
  215ccc     C8 6257  10.243   3.996   7.469  0.4606  0.9145  0.0313
  215ccc    H13 6258  10.302   3.988   7.377  0.8960  1.1075  0.2937
  215ccc    H14 6259  10.136   3.995   7.442  0.4298 -3.5182 -0.5250
  215ccc     C9 6260  10.284   4.121   7.534  0.0156 -0.3190  0.7085
  215ccc     O4 6261  10.202   4.190   7.583 -0.6336  0.4588  0.1035
  215ccc     O5 6262  10.400   4.158   7.513 -0.0742  0.2006 -0.0521
  215ccc     O1 6263  10.392   3.514   7.793  0.5096  0.1611 -0.7184
  216ccc     C3 6264  11.686   3.979   7.390  0.1501  0.0095 -0.4601
  216ccc     H5 6265  11.788   4.020   7.390 -0.0432  0.5105  0.0487
  216ccc     H6 6266  11.635   3.996   7.295  1.6635 -1.5087 -1.5955
  216ccc     C2 6267  11.609   4.051   7.502  0.0503  0.1610 -0.5401
  216ccc     H3 6268  11.501   4.044   7.486 -0.1789  4.8227 -2.3453
  216ccc     H4 6269  11.637   4.157   7.499  0.1430  0.3646  3.1070
  216ccc     C1 6270  11.647   3.990   7.642  0.4660 -0.5983 -0.4659
  216ccc     H1 6271  11.755   4.004   7.661  0.9081 -1.7114 -1.9886
  216ccc     H2 6272  11.625   3.883   7.648  1.4096 -0.7825  0.1061
  216ccc     N1 6273  11.567   4.071   7.746  0.1631  0.1081  0.0962
  216ccc     C4 6274  11.421   4.046   7.753 -0.2129 -0.5821 -0.3540
  216ccc     H7 6275  11.378   4.081   7.658 -0.7326  1.1986  0.4969
  216ccc     H8 6276  11.367   4.101   7.831  1.4865 -0.7907  1.0282
  216ccc     C5 6277  11.391   3.896   7.774  0.7845 -0.4791  0.4305
  216ccc     H9 6278  11.369   3.842   7.682  0.7454 -1.0528  0.7692
  216ccc    H10 6279  11.468   3.834   7.822  1.2736  0.1449  0.4709
  216ccc     C6 6280  11.262   3.893   7.851 -0.8139  0.2713  0.2657
  216ccc     O2 6281  11.153   3.911   7.799 -0.0839  0.4580  0.4686
  216ccc     O3 6282  11.268   3.825   7.949  0.4332  0.4781  0.1356
  216ccc     C7 6283  11.605   4.213   7.768 -0.8211  0.5086  0.2201
  216ccc    H11 6284  11.570   4.270   7.681 -2.0603 -0.6102 -0.0389
  216ccc    H12 6285  11.564   4.254   7.861  2.2717 -3.0739  3.5108
  216ccc     C8 6286  11.755   4.231   7.782 -0.1431 -0.0516 -0.2096
  216ccc    H13 6287  11.807   4.178   7.862  2.0857  2.2842  0.0293
  216ccc    H14 6288  11.802   4.206   7.686  0.4518  1.2639 -0.2850
  216ccc     C9 6289  11.768   4.377   7.796  0.5583 -0.5565  0.5848
  216ccc     O4 6290  11.821   4.440   7.713 -0.3962  0.0535  0.0174
  216ccc     O5 6291  11.713   4.441   7.884 -0.1129 -0.1849 -0.0300
  216ccc     O1 6292  11.686   3.837   7.417  0.2253 -0.2868 -0.2502
  217ccc     C3 6293  11.728   3.754   7.927  0.2160  0.1654  0.4491
  217ccc     H5 6294  11.816   3.810   7.894  0.6448 -0.8568 -0.2011
  217ccc     H6 6295  11.648   3.767   7.853 -0.7341 -1.8671  1.0370
  217ccc     C2 6296  11.688   3.809   8.060 -0.0876 -0.3476 -0.0506
  217ccc     H3 6297  11.766   3.780   8.131  0.7306  1.3758 -0.1832
  217ccc     H4 6298  11.594   3.763   8.092  1.5196 -2.8010  1.4685
  217ccc     C1 6299  11.681   3.961   8.062 -0.2258  0.0902  0.7626
  217ccc     H1 6300  11.607   4.000   7.991  0.5323 -1.0744 -0.7104
  217ccc     H2 6301  11.783   3.989   8.032  1.0274 -2.6330  2.1088
  217ccc     N1 6302  11.671   4.020   8.199 -0.1181  0.6307  0.2683
  217ccc     C4 6303  11.565   3.951   8.283 -0.3013  0.0629 -0.0711
  217ccc     H7 6304  11.567   4.002   8.380  0.3633 -1.2188  0.6028
  217ccc     H8 6305  11.594   3.847   8.298  1.7057  0.5712 -0.1429
  217ccc     C5 6306  11.427   3.982   8.232 -0.6680 -0.5239  0.3770
  217ccc     H9 6307  11.414   4.087   8.203 -0.5848 -0.3163  1.0933
  217ccc    H10 6308  11.412   3.928   8.137 -0.9929 -1.5294  0.9863
  217ccc     C6 6309  11.321   3.931   8.325 -0.5651 -0.7459  0.8001
  217ccc     O2 6310  11.276   4.011   8.410  0.1826  0.1486  0.3968
  217ccc     O3 6311  11.270   3.820   8.304  0.5498 -0.4154 -0.4706
  217ccc     C7 6312  11.675   4.165   8.187 -0.6305  0.0263  0.5207
  217ccc    H11 6313  11.765   4.210   8.143 -1.3017  0.9358  0.0312
  217ccc    H12 6314  11.591   4.197   8.125 -1.0186  0.2158  1.1439
  217ccc     C8 6315  11.665   4.223   8.325  0.5039 -0.0256  0.3826
  217ccc    H13 6316  11.558   4.219   8.350  0.7039  0.0689  1.2935
  217ccc    H14 6317  11.724   4.166   8.398 -0.4343 -1.6167 -0.0553
  217ccc     C9 6318  11.706   4.373   8.328 -0.1851 -0.1808  0.0946
  217ccc     O4 6319  11.650   4.443   8.407  0.0101 -0.2699 -0.5385
  217ccc     O5 6320  11.750   4.429   8.224 -0.0593 -0.3188 -0.0191
  217ccc     O1 6321  11.770   3.616   7.958  0.3200 -0.1499  0.4049
  218ccc     C3 6322   9.303   2.009   5.883  0.0581 -0.2901 -0.8136
  218ccc     H5 6323   9.386   2.067   5.840 -0.6061 -0.5344 -2.4946
  218ccc     H6 6324   9.341   1.907   5.896 -0.4533 -0.7199 -2.5261
  218ccc     C2 6325   9.187   2.021   5.780  0.3071 -0.7457 -0.7555
  218ccc     H3 6326   9.196   2.125   5.748 -0.8440 -0.3269  0.2010
  218ccc     H4 6327   9.090   2.017   5.831  0.7759  1.9850  0.4960
  218ccc     C1 6328   9.184   1.918   5.667 -0.0046 -0.3751 -0.3249
  218ccc     H1 6329   9.079   1.914   5.636  0.0318  2.9728 -1.3382
  218ccc     H2 6330   9.201   1.818   5.708  2.3403 -0.6059 -1.6468
  218ccc     N1 6331   9.266   1.944   5.542  0.0758 -0.1603 -0.1285
  218ccc     C4 6332   9.219   2.065   5.471 -0.3729 -0.2436 -0.9510
  218ccc     H7 6333   9.238   2.151   5.536  0.1913  0.1715 -1.6526
  218ccc     H8 6334   9.113   2.046   5.449 -0.3345  0.9319 -2.3462
  218ccc     C5 6335   9.299   2.099   5.342  0.5340 -0.2698 -0.4101
  218ccc     H9 6336   9.404   2.122   5.366 -0.1161  0.7751  1.5873
  218ccc    H10 6337   9.278   2.018   5.270 -2.4067 -0.3715  0.4290
  218ccc     C6 6338   9.248   2.235   5.302 -0.0407  0.2753 -0.0004
  218ccc     O2 6339   9.141   2.240   5.250 -0.0560 -0.4128  0.1486
  218ccc     O3 6340   9.298   2.338   5.345 -0.5988  0.5578  0.2594
  218ccc     C7 6341   9.279   1.825   5.457 -0.3210 -0.0394  0.6151
  218ccc    H11 6342   9.181   1.798   5.415 -1.0464  2.5511  0.4430
  218ccc    H12 6343   9.341   1.850   5.371 -2.4105  0.5768 -0.8011
  218ccc     C8 6344   9.360   1.711   5.517  0.7233  0.6877  0.2944
  218ccc    H13 6345   9.466   1.733   5.533  0.4025  0.5055  3.3213
  218ccc    H14 6346   9.323   1.672   5.613  0.5835 -1.9786 -0.7505
  218ccc     C9 6347   9.355   1.597   5.415 -0.3002  0.4997  0.7790
  218ccc     O4 6348   9.303   1.494   5.435 -0.0757 -0.5142  0.9520
  218ccc     O5 6349   9.399   1.615   5.299 -0.3631  0.2147 -0.9718
  218ccc     O1 6350   9.256   2.066   6.003 -0.3371 -0.1685 -0.2617
  219ccc     C3 6351   8.772   2.237   6.136 -0.3180  0.1947 -0.7877
  219ccc     H5 6352   8.713   2.156   6.180  1.5477  0.2988  2.1629
  219ccc     H6 6353   8.701   2.319   6.119  0.9423  1.1854 -1.5182
  219ccc     C2 6354   8.835   2.186   6.005  0.1210 -0.0635 -0.1472
  219ccc     H3 6355   8.761   2.124   5.953  0.5733 -0.3132 -0.4972
  219ccc     H4 6356   8.911   2.112   6.035 -0.9068 -1.5034 -0.9464
  219ccc     C1 6357   8.893   2.289   5.906  0.1081  0.2872 -0.0509
  219ccc     H1 6358   8.981   2.327   5.959 -1.3705  0.5427  2.3808
  219ccc     H2 6359   8.830   2.378   5.903 -0.0395  0.1554 -1.7436
  219ccc     N1 6360   8.924   2.237   5.773 -0.0354 -0.0957 -0.3936
  219ccc     C4 6361   9.017   2.329   5.711 -0.3352 -0.2708  0.0975
  219ccc     H7 6362   9.060   2.275   5.626  3.0698  0.1804  1.3627
  219ccc     H8 6363   9.107   2.345   5.773  0.5575  0.5953 -1.3389
  219ccc     C5 6364   8.966   2.468   5.665 -0.0344  0.5215 -0.1562
  219ccc     H9 6365   8.888   2.465   5.588  1.6054  0.3654 -1.8716
  219ccc    H10 6366   8.942   2.534   5.750  0.6038  0.2966  0.2094
  219ccc     C6 6367   9.075   2.528   5.592  0.2445  0.0479 -0.1500
  219ccc     O2 6368   9.120   2.486   5.489 -0.2317 -0.3462  0.0169
  219ccc     O3 6369   9.114   2.639   5.623 -0.3790  0.1074  0.2222
  219ccc     C7 6370   8.807   2.202   5.694  0.2072  0.0224 -0.4645
  219ccc    H11 6371   8.719   2.207   5.758  0.5629  0.8303 -0.0257
  219ccc    H12 6372   8.802   2.270   5.608  1.5532 -2.4134 -2.6076
  219ccc     C8 6373   8.807   2.062   5.638  1.0830  0.4877  0.2942
  219ccc    H13 6374   8.891   2.053   5.568  0.3717  0.2733 -0.5475
  219ccc    H14 6375   8.812   1.989   5.720 -1.1512  0.2509  0.2746
  219ccc     C9 6376   8.683   2.032   5.559 -0.1735 -0.2389  0.0152
  219ccc     O4 6377   8.583   2.005   5.618 -0.0521 -0.7227  0.4544
  219ccc     O5 6378   8.692   1.974   5.448 -0.0253  0.3387 -0.0062
  219ccc     O1 6379   8.882   2.272   6.227  0.0094  0.1043 -0.0496
  220ccc     C3 6380   9.719   2.148   6.218 -0.0164  0.0578  0.6069
  220ccc     H5 6381   9.662   2.241   6.223 -0.1459  0.0815 -0.7369
  220ccc     H6 6382   9.819   2.160   6.260  0.5165  0.1902 -0.6392
  220ccc     C2 6383   9.733   2.109   6.066 -0.2244 -0.6351  0.4459
  220ccc     H3 6384   9.637   2.089   6.018 -0.3485 -1.0715  0.8646
  220ccc     H4 6385   9.791   2.017   6.049  0.0347 -0.2775 -0.6896
  220ccc     C1 6386   9.806   2.222   5.989  0.3764 -0.0287 -0.2659
  220ccc     H1 6387   9.832   2.185   5.889 -0.1482 -0.5304 -0.2212
  220ccc     H2 6388   9.896   2.249   6.046  0.7001 -0.0844 -0.7444
  220ccc     N1 6389   9.715   2.338   5.965  0.1492  0.1511 -1.4303
  220ccc     C4 6390   9.799   2.459   5.952  0.7035  0.6299 -0.6429
  220ccc     H7 6391   9.840   2.477   6.053 -1.3933 -0.1829  0.4124
  220ccc     H8 6392   9.737   2.546   5.927 -2.0598  0.0708  3.3157
  220ccc     C5 6393   9.910   2.450   5.851 -0.1935 -0.3218  0.1814
  220ccc     H9 6394   9.979   2.366   5.864 -0.2777 -0.4362 -0.0940
  220ccc    H10 6395   9.863   2.440   5.752 -0.2768 -3.0697  0.4264
  220ccc     C6 6396  10.009   2.568   5.858  0.2557  0.0262 -0.0557
  220ccc     O2 6397  10.008   2.666   5.784 -0.1818  0.0370 -0.2509
  220ccc     O3 6398  10.112   2.544   5.918  0.4531  0.2036 -0.3740
  220ccc     C7 6399   9.618   2.316   5.858 -0.4316 -0.3708 -0.1433
  220ccc    H11 6400   9.657   2.333   5.757  0.2327 -0.0872  0.1599
  220ccc    H12 6401   9.586   2.212   5.865 -1.0924 -0.0644  2.2281
  220ccc     C8 6402   9.492   2.410   5.880 -0.3146  0.0241 -0.1616
  220ccc    H13 6403   9.423   2.362   5.950 -0.7548  1.0796  0.1421
  220ccc    H14 6404   9.525   2.509   5.915  0.8600 -0.4484  0.1242
  220ccc     C9 6405   9.419   2.423   5.748  0.1841  0.1452  0.0429
  220ccc     O4 6406   9.410   2.336   5.669  0.2297  0.0042 -0.2121
  220ccc     O5 6407   9.394   2.527   5.696  0.4563 -0.1408 -0.4034
  220ccc     O1 6408   9.649   2.054   6.297 -0.0866  0.4945 -0.3635
  221ccc     C3 6409   9.298   2.270   6.609  0.1759 -0.1338  0.5373
  221ccc     H5 6410   9.357   2.263   6.517  0.2886 -3.3506  0.7452
  221ccc     H6 6411   9.199   2.234   6.578  0.5832 -0.7510 -0.0835
  221ccc     C2 6412   9.283   2.408   6.664 -0.7576 -0.6153 -0.3393
  221ccc     H3 6413   9.239   2.477   6.591 -1.4519  1.0382  1.5644
  221ccc     H4 6414   9.382   2.451   6.682 -0.8679  0.8947 -2.8596
  221ccc     C1 6415   9.192   2.410   6.785  0.1998 -0.3121 -0.0714
  221ccc     H1 6416   9.189   2.513   6.823 -1.4729  0.4771 -2.1521
  221ccc     H2 6417   9.248   2.348   6.857 -0.6970  0.9480  1.8184
  221ccc     N1 6418   9.051   2.359   6.777 -0.2287 -0.1091  0.7148
  221ccc     C4 6419   8.967   2.444   6.697  0.5352  0.5406 -0.7061
  221ccc     H7 6420   8.895   2.378   6.648 -0.6040  1.1808  0.0501
  221ccc     H8 6421   9.026   2.487   6.615  0.4016 -0.8301 -1.5407
  221ccc     C5 6422   8.904   2.558   6.776 -0.5921 -0.2804 -0.6058
  221ccc     H9 6423   8.825   2.514   6.839  1.3023 -0.9358  1.4263
  221ccc    H10 6424   8.982   2.605   6.837  0.1903  1.6706 -2.9691
  221ccc     C6 6425   8.838   2.654   6.682 -0.5021 -0.0391  0.0334
  221ccc     O2 6426   8.891   2.762   6.662  0.3182  0.1399 -0.2592
  221ccc     O3 6427   8.719   2.637   6.659 -0.0552 -0.0641 -0.4349
  221ccc     C7 6428   8.993   2.300   6.897  0.5784 -0.4164  0.6468
  221ccc    H11 6429   9.024   2.368   6.978 -1.8948  1.3106  0.2389
  221ccc    H12 6430   8.884   2.297   6.899  0.4085  0.3029 -2.4788
  221ccc     C8 6431   9.043   2.161   6.920 -1.1965  0.9600  1.1137
  221ccc    H13 6432   8.993   2.091   6.851  2.4607 -0.8219  0.0081
  221ccc    H14 6433   9.151   2.153   6.902 -1.3063  1.9858 -0.1345
  221ccc     C9 6434   9.027   2.127   7.067  0.2752  0.4642 -0.5272
  221ccc     O4 6435   8.924   2.075   7.113 -0.0234 -0.4256 -0.4480
  221ccc     O5 6436   9.127   2.115   7.135  0.0430  0.6275  0.4822
  221ccc     O1 6437   9.354   2.181   6.708 -0.6223  0.1645  0.3577
  222ccc     C3 6438   7.627   6.372   5.326  0.2548 -0.2536 -0.0394
  222ccc     H5 6439   7.607   6.297   5.249 -1.1864  0.0968 -0.0381
  222ccc     H6 6440   7.552   6.452   5.328  1.1579  0.6059  1.4178
  222ccc     C2 6441   7.766   6.434   5.299  0.4298 -0.5776  0.3796
  222ccc     H3 6442   7.838   6.359   5.334  0.0088 -1.2037 -0.0711
  222ccc     H4 6443   7.784   6.521   5.363  3.2204 -1.3469  0.7688
  222ccc     C1 6444   7.778   6.469   5.146 -0.4813  0.5490 -0.7244
  222ccc     H1 6445   7.725   6.563   5.126  0.4550  1.3486  0.4481
  222ccc     H2 6446   7.733   6.392   5.081  0.5459  0.5943 -1.5218
  222ccc     N1 6447   7.921   6.483   5.103 -0.2786 -0.6248 -1.0337
  222ccc     C4 6448   7.995   6.600   5.167  0.2121  0.3571  0.4612
  222ccc     H7 6449   7.994   6.577   5.274  0.1044 -2.8833 -0.1435
  222ccc     H8 6450   7.943   6.696   5.151 -1.8791 -0.8375 -0.3414
  222ccc     C5 6451   8.140   6.616   5.113 -0.2728  0.1613 -1.0432
  222ccc     H9 6452   8.190   6.518   5.111 -1.6928 -0.6903  1.2291
  222ccc    H10 6453   8.138   6.655   5.011  1.2106  0.6205 -0.9148
  222ccc     C6 6454   8.224   6.715   5.185  0.6613 -0.2283  0.0786
  222ccc     O2 6455   8.181   6.825   5.206 -0.0216 -0.3788 -0.6161
  222ccc     O3 6456   8.328   6.683   5.229 -0.0982 -0.3104  0.1614
  222ccc     C7 6457   7.938   6.462   4.961 -0.5928  0.4991  0.2603
  222ccc    H11 6458   8.045   6.453   4.941 -0.4722  0.7279  0.7727
  222ccc    H12 6459   7.896   6.362   4.946  0.2301 -0.0255  1.3282
  222ccc     C8 6460   7.881   6.580   4.874 -0.6859  0.1872 -0.0506
  222ccc    H13 6461   7.772   6.584   4.886 -0.9513 -0.0768 -2.0293
  222ccc    H14 6462   7.920   6.677   4.907 -0.3588 -0.3266  1.1447
  222ccc     C9 6463   7.914   6.559   4.733 -0.1693  0.8224  1.1268
  222ccc     O4 6464   7.831   6.572   4.643 -0.3108  0.2718  0.3514
  222ccc     O5 6465   8.026   6.549   4.694 -0.4656  0.1909  0.0848
  222ccc     O1 6466   7.624   6.310   5.461  0.1155 -0.6583 -0.2392
  223ccc     C3 6467   7.754   6.530   5.911  0.3648  0.4999 -0.2462
  223ccc     H5 6468   7.712   6.493   6.005 -0.6635 -0.4774 -1.0694
  223ccc     H6 6469   7.849   6.576   5.940  1.4785 -0.4471 -2.2048
  223ccc     C2 6470   7.654   6.629   5.843 -0.1054 -0.1881  0.4137
  223ccc     H3 6471   7.617   6.705   5.913 -2.9073 -0.9437 -0.1177
  223ccc     H4 6472   7.559   6.576   5.824 -0.2157  0.0511  0.2926
  223ccc     C1 6473   7.731   6.690   5.715 -0.0577 -0.7360  0.2420
  223ccc     H1 6474   7.669   6.752   5.649 -0.8426 -1.0242  0.6879
  223ccc     H2 6475   7.772   6.611   5.652 -0.0690 -0.0738 -0.6099
  223ccc     N1 6476   7.842   6.773   5.769  0.3058 -0.5992  0.6830
  223ccc     C4 6477   7.788   6.904   5.812 -0.4820 -0.4958 -0.2689
  223ccc     H7 6478   7.686   6.896   5.852 -1.1516 -3.4583 -2.1960
  223ccc     H8 6479   7.778   6.966   5.722 -3.3550  0.0436  0.3178
  223ccc     C5 6480   7.889   6.965   5.914 -0.5792 -0.0945 -1.0806
  223ccc     H9 6481   7.872   6.942   6.020 -2.9935  1.6061 -1.0200
  223ccc    H10 6482   7.992   6.935   5.892 -0.2810  0.9381 -1.1758
  223ccc     C6 6483   7.883   7.113   5.908 -0.1772  0.1631 -0.1671
  223ccc     O2 6484   7.868   7.175   5.806 -0.1146 -0.2623  0.1973
  223ccc     O3 6485   7.867   7.181   6.009  0.0488  1.1731 -0.5802
  223ccc     C7 6486   7.963   6.798   5.674  1.1352 -0.2653 -0.5635
  223ccc    H11 6487   7.927   6.832   5.575  0.0501  3.3613  0.9172
  223ccc    H12 6488   8.028   6.878   5.711  0.4249  1.7315 -3.3026
  223ccc     C8 6489   8.048   6.668   5.677  1.3073  0.4811 -0.4217
  223ccc    H13 6490   8.085   6.666   5.780 -0.6779 -0.2584  0.3124
  223ccc    H14 6491   7.984   6.580   5.661 -1.2796  2.3402 -1.0599
  223ccc     C9 6492   8.167   6.671   5.583 -0.2389 -0.3993  0.8291
  223ccc     O4 6493   8.277   6.618   5.609  0.2843 -0.1314 -0.4562
  223ccc     O5 6494   8.161   6.730   5.481 -0.0310  0.6623  0.7484
  223ccc     O1 6495   7.766   6.420   5.825  0.8964 -0.2309  0.5859
  224ccc     C3 6496   6.711   5.514   6.799  0.5123  0.8347  0.4799
  224ccc     H5 6497   6.716   5.411   6.838  4.8670 -0.0452 -1.7834
  224ccc     H6 6498   6.614   5.556   6.828 -0.5108 -0.5541 -0.7618
  224ccc     C2 6499   6.702   5.501   6.647  0.2786  0.0860  0.5098
  224ccc     H3 6500   6.692   5.596   6.593 -0.2760 -1.3097 -2.0089
  224ccc     H4 6501   6.613   5.442   6.621 -1.5336  3.8298 -2.9305
  224ccc     C1 6502   6.820   5.429   6.573 -0.7096 -0.3041 -0.2218
  224ccc     H1 6503   6.835   5.333   6.623 -1.0877 -1.1300 -1.6504
  224ccc     H2 6504   6.912   5.487   6.589 -1.0070  0.2148 -0.3754
  224ccc     N1 6505   6.803   5.414   6.428  0.2922  0.2088  0.1976
  224ccc     C4 6506   6.873   5.294   6.382 -0.1583  0.1178  0.1560
  224ccc     H7 6507   6.933   5.248   6.461  1.8193  1.5154 -0.4318
  224ccc     H8 6508   6.936   5.323   6.296 -0.0885  1.0641  0.5148
  224ccc     C5 6509   6.775   5.193   6.320  0.0238  0.1197 -0.4403
  224ccc     H9 6510   6.696   5.158   6.388  0.3530 -1.0678 -0.6454
  224ccc    H10 6511   6.730   5.245   6.235  0.9737  1.1240 -0.3580
  224ccc     C6 6512   6.844   5.077   6.253 -0.2851 -0.4163 -0.0982
  224ccc     O2 6513   6.838   4.963   6.298 -0.4174 -0.6190  0.2090
  224ccc     O3 6514   6.882   5.096   6.138 -0.5069 -0.1644 -0.3959
  224ccc     C7 6515   6.827   5.539   6.345 -0.2881 -1.3279  0.7839
  224ccc    H11 6516   6.771   5.618   6.396  1.9788  0.4319  0.6659
  224ccc    H12 6517   6.930   5.576   6.351 -0.4048 -0.7028 -0.6888
  224ccc     C8 6518   6.776   5.533   6.201  1.2758  0.8949  0.9009
  224ccc    H13 6519   6.709   5.450   6.174  1.8128  0.6970  0.1507
  224ccc    H14 6520   6.725   5.625   6.170  1.9360  1.0390  0.1967
  224ccc     C9 6521   6.882   5.533   6.103  0.5591 -0.4882 -0.6241
  224ccc     O4 6522   6.948   5.634   6.085  0.2331  0.4229 -0.1751
  224ccc     O5 6523   6.918   5.429   6.048  0.4444 -0.0961  0.1387
  224ccc     O1 6524   6.836   5.578   6.824  0.3487 -0.3366 -0.9782
  225ccc     C3 6525   7.235   5.835   7.530 -0.5491  0.1473  0.4011
  225ccc     H5 6526   7.269   5.731   7.530 -0.2400  0.2414 -0.1745
  225ccc     H6 6527   7.319   5.895   7.491 -0.2033  0.5391  1.6858
  225ccc     C2 6528   7.203   5.869   7.675 -1.0757  0.0923  0.3457
  225ccc     H3 6529   7.175   5.974   7.687 -2.9905 -0.5097  1.6517
  225ccc     H4 6530   7.297   5.871   7.731 -0.6405  4.0908 -0.2855
  225ccc     C1 6531   7.098   5.772   7.733  0.5621  0.1263 -0.2509
  225ccc     H1 6532   7.137   5.669   7.739 -1.5983 -0.6798  1.1241
  225ccc     H2 6533   7.012   5.770   7.666  1.5773 -1.5724 -1.5869
  225ccc     N1 6534   7.058   5.803   7.873  0.2570  0.0851  0.3171
  225ccc     C4 6535   7.010   5.945   7.899  0.2872 -0.0055 -0.1035
  225ccc     H7 6536   7.097   6.012   7.893 -0.8205  1.4101 -1.3016
  225ccc     H8 6537   6.969   5.942   8.001  0.1871 -3.4856 -0.1256
  225ccc     C5 6538   6.896   5.989   7.803 -0.4549 -1.0755 -0.2558
  225ccc     H9 6539   6.933   6.002   7.701  2.8197 -0.5387  0.8684
  225ccc    H10 6540   6.810   5.923   7.819  0.7201 -2.7827 -0.6001
  225ccc     C6 6541   6.860   6.132   7.848  0.3353 -0.3397  0.7417
  225ccc     O2 6542   6.833   6.218   7.766  0.0543 -0.5936  0.7337
  225ccc     O3 6543   6.834   6.161   7.964  0.0675  0.0350 -0.3939
  225ccc     C7 6544   7.162   5.754   7.966  0.1932  0.2774  0.0259
  225ccc    H11 6545   7.192   5.656   7.924 -2.3328 -0.3632 -0.4535
  225ccc    H12 6546   7.248   5.821   7.972 -0.4847  1.1290  0.4675
  225ccc     C8 6547   7.109   5.734   8.106 -0.4300  0.3094  0.7097
  225ccc    H13 6548   7.186   5.711   8.180 -1.7594 -1.5527  1.5961
  225ccc    H14 6549   7.073   5.830   8.146  0.2185  0.3568  1.1866
  225ccc     C9 6550   6.991   5.637   8.092  0.0795 -0.1960  0.1837
  225ccc     O4 6551   6.881   5.678   8.131 -0.2883  0.4949 -0.0620
  225ccc     O5 6552   7.008   5.517   8.077  0.2489  0.5208 -0.0221
  225ccc     O1 6553   7.124   5.847   7.445 -0.1799 -0.6787 -0.1107
  226ccc     C3 6554   8.523   7.274   6.636  0.2534  0.7401 -0.6941
  226ccc     H5 6555   8.524   7.251   6.743  1.3402  2.5392 -0.2882
  226ccc     H6 6556   8.619   7.312   6.598  1.1466 -2.4008 -1.9295
  226ccc     C2 6557   8.399   7.367   6.624 -0.4097 -0.6498 -0.2702
  226ccc     H3 6558   8.386   7.377   6.516  3.3780  0.4909 -0.7799
  226ccc     H4 6559   8.428   7.465   6.664 -0.8404 -0.3612 -0.6533
  226ccc     C1 6560   8.277   7.307   6.705  0.3081  0.3514 -0.1916
  226ccc     H1 6561   8.288   7.348   6.806  0.9654 -1.3798  0.4845
  226ccc     H2 6562   8.278   7.197   6.702  0.2398  0.3477 -0.0760
  226ccc     N1 6563   8.147   7.360   6.649  0.1292 -0.0693 -0.1984
  226ccc     C4 6564   8.110   7.294   6.520  0.0513  0.0417  0.1422
  226ccc     H7 6565   8.090   7.187   6.537 -1.4257 -0.2190 -2.6319
  226ccc     H8 6566   8.196   7.296   6.452  0.4891 -1.5801  0.5961
  226ccc     C5 6567   7.995   7.369   6.457  1.1107  0.8210  0.7914
  226ccc     H9 6568   7.896   7.340   6.495 -0.5357  3.0711 -1.4854
  226ccc    H10 6569   8.011   7.476   6.474  0.4753  1.1565 -0.6530
  226ccc     C6 6570   7.984   7.346   6.310  0.5413 -0.1047  0.4939
  226ccc     O2 6571   7.876   7.338   6.252 -0.7169 -0.5147  0.7109
  226ccc     O3 6572   8.077   7.358   6.234  0.2648  0.3126  0.3282
  226ccc     C7 6573   8.039   7.344   6.757 -0.7923  0.4190  0.0428
  226ccc    H11 6574   8.082   7.389   6.848  1.0509 -1.4590  0.1725
  226ccc    H12 6575   7.952   7.405   6.728 -1.6710 -1.1093 -0.6741
  226ccc     C8 6576   7.989   7.205   6.765  0.1796 -0.4079  0.0593
  226ccc    H13 6577   7.940   7.183   6.670  2.4515  0.4416 -1.3741
  226ccc    H14 6578   8.071   7.132   6.771 -0.2636 -0.9551 -0.4139
  226ccc     C9 6579   7.920   7.180   6.890 -0.0749 -0.0142 -0.0310
  226ccc     O4 6580   7.984   7.173   6.995  0.5475  0.4476 -0.4545
  226ccc     O5 6581   7.803   7.157   6.890 -0.1253 -0.0524 -0.0400
  226ccc     O1 6582   8.498   7.151   6.565 -0.5106 -0.1838  0.4713
  227ccc     C3 6583   8.240   6.900   6.038 -0.3720 -0.1462 -0.7468
  227ccc     H5 6584   8.176   6.811   6.032  0.6999 -1.1126  1.0664
  227ccc     H6 6585   8.178   6.982   6.000 -0.2420  1.2063  1.7188
  227ccc     C2 6586   8.361   6.867   5.958  0.2815 -0.1862 -0.0248
  227ccc     H3 6587   8.319   6.810   5.874 -2.3337 -1.5326  2.0595
  227ccc     H4 6588   8.431   6.796   6.005  0.3602 -0.5639 -0.6906
  227ccc     C1 6589   8.444   6.985   5.913 -0.9478  0.0306  1.0626
  227ccc     H1 6590   8.530   6.947   5.856 -2.3714 -1.6101 -0.0741
  227ccc     H2 6591   8.489   7.028   6.003  0.4999  0.9085 -0.0321
  227ccc     N1 6592   8.365   7.082   5.840  0.5156 -0.1619 -1.1039
  227ccc     C4 6593   8.426   7.217   5.841  0.6489 -0.3755 -0.1772
  227ccc     H7 6594   8.522   7.227   5.790  1.4404  0.1855  1.3327
  227ccc     H8 6595   8.462   7.231   5.944  2.9128 -1.2711 -0.7836
  227ccc     C5 6596   8.327   7.331   5.802  0.5541 -0.3181 -0.3237
  227ccc     H9 6597   8.382   7.413   5.755  0.4773  0.2752  0.5934
  227ccc    H10 6598   8.240   7.301   5.742  0.2092 -0.2728  0.1440
  227ccc     C6 6599   8.273   7.397   5.921  0.7864 -0.1891  0.0559
  227ccc     O2 6600   8.334   7.484   5.982 -0.5225  0.3071 -0.2647
  227ccc     O3 6601   8.159   7.382   5.963 -0.4022  0.3144  0.0668
  227ccc     C7 6602   8.310   7.048   5.709 -0.0416  0.3439 -0.2887
  227ccc    H11 6603   8.270   6.946   5.708 -4.4061  1.7926 -2.4849
  227ccc    H12 6604   8.218   7.105   5.689 -1.4055 -1.7733 -0.4813
  227ccc     C8 6605   8.405   7.072   5.588  0.2359  0.2488  0.4158
  227ccc    H13 6606   8.411   7.180   5.570 -0.0996  0.3663  0.9653
  227ccc    H14 6607   8.507   7.039   5.612  1.4007  1.8511 -1.8885
  227ccc     C9 6608   8.357   7.009   5.458  0.1074 -0.0940  0.0448
  227ccc     O4 6609   8.406   6.907   5.413  0.0338  0.3733 -0.4559
  227ccc     O5 6610   8.259   7.048   5.401  0.6320 -0.2754  0.2859
  227ccc     O1 6611   8.281   6.930   6.178  0.2876 -0.1642  0.0066
  228ccc     C3 6612   9.205   6.063   6.957  0.5739 -0.5699  0.3781
  228ccc     H5 6613   9.310   6.059   6.924  0.5596  3.6869 -0.8092
  228ccc     H6 6614   9.211   6.132   7.043  0.5449 -1.8666  1.4524
  228ccc     C2 6615   9.145   5.928   7.001 -0.0534  0.1895 -0.0212
  228ccc     H3 6616   9.156   5.855   6.920  1.9286 -0.3572  0.6758
  228ccc     H4 6617   9.040   5.944   7.027  0.5272  2.0022  1.4486
  228ccc     C1 6618   9.200   5.888   7.138 -0.5721 -0.2342 -0.3347
  228ccc     H1 6619   9.132   5.821   7.192 -0.1153 -1.8043 -1.5876
  228ccc     H2 6620   9.203   5.978   7.200 -0.6698 -0.0724 -0.5641
  228ccc     N1 6621   9.341   5.832   7.143 -0.0095  0.1321  0.1334
  228ccc     C4 6622   9.385   5.784   7.278 -0.2292 -0.1538  0.2513
  228ccc     H7 6623   9.485   5.741   7.273  0.0182  0.3701  0.7327
  228ccc     H8 6624   9.313   5.715   7.324  0.3243  0.3946  2.0020
  228ccc     C5 6625   9.396   5.892   7.381 -0.1821  0.3709  0.0910
  228ccc     H9 6626   9.451   5.978   7.340  0.6042 -0.3369 -0.3561
  228ccc    H10 6627   9.300   5.944   7.394 -0.9339 -0.6746 -1.1011
  228ccc     C6 6628   9.460   5.837   7.508 -0.3336 -0.4013 -0.1149
  228ccc     O2 6629   9.538   5.902   7.572  0.0121 -0.1570 -0.1814
  228ccc     O3 6630   9.421   5.736   7.568  0.1113 -0.0186 -0.1171
  228ccc     C7 6631   9.346   5.708   7.055  0.8598 -0.0679 -0.4197
  228ccc    H11 6632   9.333   5.620   7.119 -1.0184  1.9501  2.1851
  228ccc    H12 6633   9.264   5.696   6.984 -0.0059 -0.4738  0.6108
  228ccc     C8 6634   9.479   5.699   6.983  0.2726  0.4114 -0.4493
  228ccc    H13 6635   9.476   5.772   6.901 -0.3085  2.0951  0.9887
  228ccc    H14 6636   9.559   5.727   7.053  0.3644 -1.3354  0.2013
  228ccc     C9 6637   9.508   5.562   6.925 -0.8478 -0.4376 -0.8244
  228ccc     O4 6638   9.431   5.497   6.863  0.5267 -0.3044 -0.1234
  228ccc     O5 6639   9.623   5.516   6.934  0.0261 -0.0869  0.0959
  228ccc     O1 6640   9.126   6.133   6.862  0.1194  0.0390 -0.2663
  229ccc     C3 6641   9.485   6.453   5.966 -0.1570 -0.0726  0.4227
  229ccc     H5 6642   9.396   6.439   5.904 -0.5324 -1.6924  1.2878
  229ccc     H6 6643   9.511   6.559   5.975  1.1789 -0.1168 -1.9504
  229ccc     C2 6644   9.603   6.379   5.898  0.2913 -0.4950  0.3430
  229ccc     H3 6645   9.572   6.274   5.901 -1.2463 -0.0410  1.4314
  229ccc     H4 6646   9.693   6.399   5.957  0.0123  0.4132  0.4722
  229ccc     C1 6647   9.636   6.432   5.756  0.4328 -0.1383 -0.2619
  229ccc     H1 6648   9.716   6.370   5.713 -0.5257  0.5654 -3.2959
  229ccc     H2 6649   9.673   6.535   5.762 -1.4273  0.5847 -0.5763
  229ccc     N1 6650   9.531   6.419   5.664  0.2343  0.0786  0.4119
  229ccc     C4 6651   9.560   6.475   5.531 -0.3629  0.2668 -0.2465
  229ccc     H7 6652   9.464   6.477   5.479 -1.0505 -0.3659  0.9547
  229ccc     H8 6653   9.633   6.410   5.481  0.8794  1.2630  0.2061
  229ccc     C5 6654   9.624   6.617   5.532 -0.3826 -0.1100  0.2526
  229ccc     H9 6655   9.561   6.677   5.600 -0.5537  0.8876 -0.7551
  229ccc    H10 6656   9.729   6.622   5.564  0.2277  0.2550 -1.6696
  229ccc     C6 6657   9.635   6.682   5.396  0.2279 -0.0024  0.1046
  229ccc     O2 6658   9.550   6.767   5.373 -0.4868 -0.2082  0.0988
  229ccc     O3 6659   9.669   6.618   5.299 -0.4629 -0.0923  0.1253
  229ccc     C7 6660   9.494   6.272   5.650  0.9615 -0.3589  0.4748
  229ccc    H11 6661   9.584   6.211   5.633  0.9364  0.1655 -1.7981
  229ccc    H12 6662   9.441   6.238   5.740 -1.2419 -2.5688 -1.5148
  229ccc     C8 6663   9.410   6.226   5.537  0.2480 -0.0810  0.0809
  229ccc    H13 6664   9.312   6.277   5.537  0.8229  1.0791  1.0352
  229ccc    H14 6665   9.467   6.248   5.446  1.1024  1.1110  0.8657
  229ccc     C9 6666   9.390   6.079   5.551 -0.3816 -0.1600  0.1481
  229ccc     O4 6667   9.468   5.991   5.523 -0.0320 -0.2938 -0.2319
  229ccc     O5 6668   9.282   6.033   5.598  0.4782 -0.4847  0.6201
  229ccc     O1 6669   9.461   6.388   6.094 -0.6415  0.0371  0.2683
  230ccc     C3 6670   8.167   6.201   8.059 -0.7711 -0.1233 -0.0768
  230ccc     H5 6671   8.219   6.127   8.121 -0.9079 -0.4766 -0.3831
  230ccc     H6 6672   8.233   6.270   8.006  1.0610 -2.4610 -1.0258
  230ccc     C2 6673   8.068   6.288   8.140  0.4347  0.3513  0.6193
  230ccc     H3 6674   8.028   6.364   8.072  0.5970  0.2431  0.4028
  230ccc     H4 6675   8.123   6.328   8.227  0.3719 -2.0623  1.8606
  230ccc     C1 6676   7.956   6.193   8.190  0.2925  0.3574  0.1005
  230ccc     H1 6677   8.008   6.113   8.245 -0.1815  0.6980  1.0691
  230ccc     H2 6678   7.892   6.163   8.107 -0.4189 -0.0178  0.7710
  230ccc     N1 6679   7.866   6.249   8.298  0.4010  0.9466 -0.0389
  230ccc     C4 6680   7.804   6.141   8.379 -0.5228  0.3097  1.1798
  230ccc     H7 6681   7.771   6.176   8.477  0.2096 -0.9735  1.9060
  230ccc     H8 6682   7.883   6.067   8.397  0.0866  0.1726 -1.6399
  230ccc     C5 6683   7.686   6.070   8.318 -0.9021  0.8337  0.1954
  230ccc     H9 6684   7.613   6.148   8.295 -1.2715  0.6301  0.6654
  230ccc    H10 6685   7.707   6.017   8.224 -2.1173 -1.1452  0.9917
  230ccc     C6 6686   7.618   5.964   8.402 -0.2183  0.0618 -0.2595
  230ccc     O2 6687   7.658   5.853   8.417  0.5701  0.3997  0.9046
  230ccc     O3 6688   7.516   5.991   8.456 -0.1240  0.0554  0.4466
  230ccc     C7 6689   7.771   6.359   8.252 -0.0408  0.3495  0.2303
  230ccc    H11 6690   7.841   6.431   8.208  1.3017 -1.0106  0.0509
  230ccc    H12 6691   7.697   6.314   8.184  0.4117 -2.2418  1.3026
  230ccc     C8 6692   7.704   6.430   8.367  0.5996  0.6270  0.0295
  230ccc    H13 6693   7.618   6.373   8.404  1.0738 -2.5858 -3.2955
  230ccc    H14 6694   7.780   6.440   8.446  0.2244 -0.5737  0.5705
  230ccc     C9 6695   7.646   6.563   8.341  1.2010 -0.5380  0.2485
  230ccc     O4 6696   7.536   6.598   8.372  0.6222 -0.2409 -0.1662
  230ccc     O5 6697   7.727   6.655   8.322  0.6953  0.3211  0.3195
  230ccc     O1 6698   8.093   6.134   7.964  0.7531  0.7004  0.2095
  231ccc     C3 6699   7.657   6.118   7.852  0.0412 -0.4801 -0.0473
  231ccc     H5 6700   7.754   6.094   7.897  0.3147 -2.9590 -1.7762
  231ccc     H6 6701   7.680   6.168   7.757 -2.3283  0.8093 -0.0341
  231ccc     C2 6702   7.586   6.221   7.943  0.7255  0.0250  0.4180
  231ccc     H3 6703   7.654   6.304   7.964 -0.3762  0.9023  0.6351
  231ccc     H4 6704   7.566   6.173   8.040 -3.4610  1.6902  0.6042
  231ccc     C1 6705   7.457   6.278   7.879  0.0470 -0.1652  0.2686
  231ccc     H1 6706   7.379   6.204   7.859  0.2821 -0.5339  0.7048
  231ccc     H2 6707   7.490   6.325   7.786  1.6850 -0.6421  0.5796
  231ccc     N1 6708   7.384   6.373   7.966 -0.0664 -0.0775 -0.3501
  231ccc     C4 6709   7.333   6.309   8.090 -0.2974 -0.1698 -0.1946
  231ccc     H7 6710   7.282   6.384   8.152  1.3300  0.8502 -0.0104
  231ccc     H8 6711   7.418   6.278   8.152 -1.7774 -1.0227  1.5044
  231ccc     C5 6712   7.237   6.194   8.065  0.0764 -0.3680 -0.5451
  231ccc     H9 6713   7.152   6.217   8.000  0.5682 -1.4575 -1.6099
  231ccc    H10 6714   7.303   6.112   8.033  0.8755 -0.9698  2.3361
  231ccc     C6 6715   7.186   6.151   8.198  0.2373 -0.5641  0.3643
  231ccc     O2 6716   7.240   6.068   8.270  0.4741  0.5715  0.0656
  231ccc     O3 6717   7.065   6.162   8.226 -0.0063  0.1739  0.2874
  231ccc     C7 6718   7.456   6.497   7.985  0.4476  0.0103  0.0121
  231ccc    H11 6719   7.545   6.477   8.047  1.0995  1.1196 -0.5320
  231ccc    H12 6720   7.492   6.533   7.888 -1.6476  2.5809  0.0798
  231ccc     C8 6721   7.383   6.613   8.052  0.1862 -0.3396  0.3655
  231ccc    H13 6722   7.278   6.618   8.021  0.4852  0.0527 -0.6194
  231ccc    H14 6723   7.392   6.593   8.160  1.6175 -1.2019  0.1099
  231ccc     C9 6724   7.462   6.736   8.019 -0.0073 -0.0793  0.6130
  231ccc     O4 6725   7.564   6.765   8.078 -0.1554  0.4006  0.3601
  231ccc     O5 6726   7.449   6.790   7.908 -0.4111  0.4248 -0.0362
  231ccc     O1 6727   7.576   6.001   7.832 -0.3772  0.2282  0.0348
  232ccc     C3 6728   8.322   6.789   7.716  0.1708  0.2704 -0.0038
  232ccc     H5 6729   8.383   6.839   7.792  0.3211 -0.1841  0.1752
  232ccc     H6 6730   8.376   6.776   7.621 -1.4865 -0.0284 -0.9439
  232ccc     C2 6731   8.182   6.855   7.691  0.9595 -0.2957 -0.7374
  232ccc     H3 6732   8.106   6.785   7.654 -1.4293  0.1284  2.8584
  232ccc     H4 6733   8.197   6.941   7.625 -0.6240  0.6139  0.0387
  232ccc     C1 6734   8.130   6.918   7.822 -0.1383 -0.8292 -1.1283
  232ccc     H1 6735   8.193   7.008   7.824 -0.9028 -0.2922 -0.7582
  232ccc     H2 6736   8.151   6.852   7.907 -0.4989  0.6240  0.1241
  232ccc     N1 6737   7.988   6.965   7.833  0.2495  0.3974 -0.7754
  232ccc     C4 6738   7.951   7.023   7.704  0.0153 -0.0922 -0.3526
  232ccc     H7 6739   7.952   6.943   7.628 -2.0454 -1.0394  0.5300
  232ccc     H8 6740   8.018   7.103   7.670 -1.3663  1.2289 -0.0624
  232ccc     C5 6741   7.812   7.066   7.695  0.0243 -0.4219 -0.3633
  232ccc     H9 6742   7.801   7.163   7.744  0.8773  0.0580 -1.0963
  232ccc    H10 6743   7.783   7.082   7.590  1.5026 -0.2261 -0.7660
  232ccc     C6 6744   7.710   6.963   7.746 -0.3387 -0.1671 -0.3990
  232ccc     O2 6745   7.646   6.977   7.847 -0.2146 -0.1941 -0.1380
  232ccc     O3 6746   7.689   6.862   7.677 -0.1521 -0.0702  0.2383
  232ccc     C7 6747   7.985   7.066   7.947  0.3156 -0.2938  0.1206
  232ccc    H11 6748   8.062   7.140   7.922 -0.9009  1.0018  0.0658
  232ccc    H12 6749   7.888   7.117   7.960 -0.2882 -0.9887 -1.4045
  232ccc     C8 6750   8.025   7.019   8.093  0.1534  0.1054  0.3748
  232ccc    H13 6751   8.128   6.985   8.081 -0.1279  0.1986 -4.1205
  232ccc    H14 6752   8.018   7.104   8.162 -0.3285  2.1443 -2.0221
  232ccc     C9 6753   7.937   6.902   8.137  0.7531 -0.0062 -0.4170
  232ccc     O4 6754   7.975   6.817   8.216 -0.6238  0.5008  0.1486
  232ccc     O5 6755   7.821   6.895   8.105  0.1574 -0.8387 -0.3516
  232ccc     O1 6756   8.295   6.661   7.759 -0.4255 -0.1659  0.2074
  233ccc     C3 6757   8.101   6.236   7.344  0.0418  0.2948 -0.1108
  233ccc     H5 6758   8.178   6.315   7.343 -0.9497  1.2880 -0.0922
  233ccc     H6 6759   8.091   6.205   7.239  0.9219 -0.9176  0.1476
  233ccc     C2 6760   7.975   6.300   7.405  0.4790 -0.1271  0.8151
  233ccc     H3 6761   7.903   6.217   7.411  0.0663 -0.0542 -1.9369
  233ccc     H4 6762   7.941   6.379   7.337  0.0847 -0.9400  0.0471
  233ccc     C1 6763   8.014   6.362   7.544 -0.6217  0.3032 -0.2911
  233ccc     H1 6764   8.063   6.459   7.526  2.6591 -1.1493  0.1109
  233ccc     H2 6765   8.081   6.298   7.603  0.2832 -0.6381 -2.2627
  233ccc     N1 6766   7.890   6.385   7.621  0.3404 -0.0121  0.4288
  233ccc     C4 6767   7.798   6.480   7.558  0.6871 -0.2665  0.2127
  233ccc     H7 6768   7.794   6.457   7.451  0.2356  2.6484 -0.4912
  233ccc     H8 6769   7.827   6.585   7.567  0.0253  0.0541 -1.0585
  233ccc     C5 6770   7.656   6.465   7.609 -0.8947 -0.4213  0.2466
  233ccc     H9 6771   7.614   6.369   7.576 -0.4002 -1.4148  2.2766
  233ccc    H10 6772   7.658   6.466   7.719 -0.6983 -0.0677  0.2420
  233ccc     C6 6773   7.562   6.577   7.572 -0.5587 -0.4920  0.8448
  233ccc     O2 6774   7.527   6.649   7.662 -0.0140 -0.5786  0.9329
  233ccc     O3 6775   7.573   6.626   7.456  0.2814 -0.6436  0.0182
  233ccc     C7 6776   7.913   6.397   7.769  0.6107 -0.3450  0.6149
  233ccc    H11 6777   7.823   6.367   7.824  0.4354  1.2034  1.2152
  233ccc    H12 6778   7.987   6.322   7.799  2.1757  1.7309  2.2759
  233ccc     C8 6779   7.970   6.531   7.804  0.4019 -0.0917  0.0709
  233ccc    H13 6780   8.075   6.524   7.835  1.2126  3.1546 -1.4969
  233ccc    H14 6781   7.970   6.612   7.730  0.8735  0.1788  0.3651
  233ccc     C9 6782   7.887   6.575   7.924  0.1409 -0.4286 -0.0097
  233ccc     O4 6783   7.949   6.589   8.031  0.3874  0.5373 -0.3019
  233ccc     O5 6784   7.771   6.623   7.915 -0.2449 -0.2281  0.0767
  233ccc     O1 6785   8.129   6.112   7.419 -0.4615 -0.3063 -0.0992
  234ccc     C3 6786   9.318   6.606   8.421 -1.0334  0.2942  0.4604
  234ccc     H5 6787   9.425   6.598   8.397 -1.3809 -1.2367 -0.7148
  234ccc     H6 6788   9.277   6.707   8.410 -0.5410  0.5940  1.2279
  234ccc     C2 6789   9.285   6.568   8.565 -0.4181  0.0876  0.3877
  234ccc     H3 6790   9.177   6.559   8.585 -0.3971 -1.8094 -0.1160
  234ccc     H4 6791   9.313   6.651   8.631  0.2837  0.7225 -0.6843
  234ccc     C1 6792   9.356   6.438   8.608  0.1312 -0.1223  0.0841
  234ccc     H1 6793   9.452   6.437   8.555 -0.1011  0.5699 -0.3553
  234ccc     H2 6794   9.307   6.355   8.556  0.8390  0.1610 -1.0758
  234ccc     N1 6795   9.370   6.418   8.755 -0.6063  0.0951 -0.4714
  234ccc     C4 6796   9.499   6.357   8.779  0.0434  0.2580 -0.2888
  234ccc     H7 6797   9.520   6.284   8.700  0.3672 -1.7720  1.5932
  234ccc     H8 6798   9.500   6.299   8.872 -1.1432  2.2166  1.0288
  234ccc     C5 6799   9.608   6.456   8.798 -0.1090  0.3191 -0.0819
  234ccc     H9 6800   9.617   6.523   8.712 -1.1866  0.8589  0.2100
  234ccc    H10 6801   9.605   6.510   8.893 -0.1279 -2.2070  1.4338
  234ccc     C6 6802   9.733   6.379   8.796  0.1291  0.3094 -0.4529
  234ccc     O2 6803   9.793   6.362   8.901  0.1455 -0.7015 -0.2515
  234ccc     O3 6804   9.781   6.344   8.695 -0.0774  0.4545  0.2019
  234ccc     C7 6805   9.250   6.364   8.822  0.2516 -0.1913  0.7280
  234ccc    H11 6806   9.170   6.428   8.783  1.1057  0.2495 -0.3358
  234ccc    H12 6807   9.228   6.262   8.786  1.7255  0.2861 -1.7522
  234ccc     C8 6808   9.262   6.368   8.967  0.1884 -0.0522 -0.1913
  234ccc    H13 6809   9.337   6.297   9.002  0.7364  1.3608  1.6629
  234ccc    H14 6810   9.288   6.468   9.004  3.2893 -0.0594 -2.0528
  234ccc     C9 6811   9.136   6.320   9.030 -0.1989  0.1476  0.3301
  234ccc     O4 6812   9.025   6.304   8.980 -0.3266 -0.3261  0.4724
  234ccc     O5 6813   9.152   6.275   9.141  0.2639  0.3785 -0.0712
  234ccc     O1 6814   9.253   6.500   8.355  0.2300  0.0452  0.0293
  235ccc     C3 6815   9.178   5.821   8.089 -0.0195  0.4394  0.2373
  235ccc     H5 6816   9.279   5.832   8.049 -0.4609  0.9719 -0.7866
  235ccc     H6 6817   9.178   5.860   8.191  0.7196  0.2377  0.3188
  235ccc     C2 6818   9.116   5.681   8.079 -0.2201  0.4840  0.4436
  235ccc     H3 6819   9.128   5.660   7.972 -0.3662  0.9284  0.3352
  235ccc     H4 6820   9.009   5.685   8.099  0.0365 -1.1084  2.3638
  235ccc     C1 6821   9.187   5.575   8.166 -0.5932 -0.5673 -0.2960
  235ccc     H1 6822   9.126   5.484   8.169 -0.2367 -0.8489 -1.3885
  235ccc     H2 6823   9.195   5.614   8.269 -2.0252 -1.9107  0.3747
  235ccc     N1 6824   9.325   5.538   8.134 -0.0835 -0.3064  0.2039
  235ccc     C4 6825   9.391   5.471   8.249  0.1857 -0.2536 -0.9500
  235ccc     H7 6826   9.358   5.494   8.351  1.0723 -1.6781 -0.3048
  235ccc     H8 6827   9.495   5.503   8.255  0.9292 -2.2218 -2.2994
  235ccc     C5 6828   9.390   5.318   8.233 -0.2926  0.3351  0.4130
  235ccc     H9 6829   9.298   5.275   8.191  0.7150  0.0660 -1.6603
  235ccc    H10 6830   9.467   5.294   8.158 -0.5169  0.7114  0.0518
  235ccc     C6 6831   9.413   5.248   8.365  0.0200  0.4882  0.3428
  235ccc     O2 6832   9.498   5.157   8.363  0.0024 -0.1088 -0.3690
  235ccc     O3 6833   9.312   5.230   8.430  0.1977 -0.0506  0.3188
  235ccc     C7 6834   9.363   5.511   7.992  0.1408 -0.0909 -0.2929
  235ccc    H11 6835   9.292   5.442   7.946 -1.7668  1.0367  0.8290
  235ccc    H12 6836   9.343   5.605   7.938 -0.5854 -0.3720 -0.5239
  235ccc     C8 6837   9.509   5.476   7.951  0.0941  0.8658  0.0084
  235ccc    H13 6838   9.580   5.520   8.022  0.5217  1.0083 -0.4972
  235ccc    H14 6839   9.527   5.368   7.942  0.8909  0.9063  0.9094
  235ccc     C9 6840   9.535   5.534   7.813 -0.2312 -0.2695 -0.1241
  235ccc     O4 6841   9.555   5.460   7.720 -0.5261  0.1274 -0.1470
  235ccc     O5 6842   9.551   5.650   7.790 -0.1169 -0.1719 -0.3240
  235ccc     O1 6843   9.101   5.900   7.997 -0.9608  0.0271 -0.9222
  236ccc     C3 6844   9.319   5.862   8.517 -0.1258  0.0619 -0.1946
  236ccc     H5 6845   9.209   5.860   8.520 -0.2127  1.7729 -1.0741
  236ccc     H6 6846   9.349   5.839   8.414  0.7499  0.1115  0.0476
  236ccc     C2 6847   9.383   5.758   8.614  0.3127 -0.3902 -0.2958
  236ccc     H3 6848   9.492   5.767   8.607  0.5804 -2.2436  0.7275
  236ccc     H4 6849   9.356   5.661   8.570  2.7529 -0.1909 -2.4383
  236ccc     C1 6850   9.325   5.754   8.767  0.4955 -0.2231  0.5999
  236ccc     H1 6851   9.364   5.669   8.824  0.1030 -1.3703 -0.7811
  236ccc     H2 6852   9.218   5.729   8.759  0.5639 -0.0136 -1.5114
  236ccc     N1 6853   9.350   5.876   8.835 -0.3549  0.1996  0.3355
  236ccc     C4 6854   9.492   5.880   8.886  0.5055  0.2286 -0.3579
  236ccc     H7 6855   9.564   5.826   8.823  0.5660 -0.8163  0.5902
  236ccc     H8 6856   9.491   5.820   8.977 -0.2314 -2.5622 -2.0610
  236ccc     C5 6857   9.537   6.020   8.895  0.1439  0.7424  0.0127
  236ccc     H9 6858   9.493   6.086   8.819  2.2207  1.8559 -0.2904
  236ccc    H10 6859   9.506   6.067   8.989  1.6141 -0.0661  0.9269
  236ccc     C6 6860   9.686   6.036   8.888 -0.0958  0.7929 -0.1018
  236ccc     O2 6861   9.746   6.066   8.989 -0.0794  0.3776  0.2140
  236ccc     O3 6862   9.752   6.030   8.784  0.3124  0.1092  0.2133
  236ccc     C7 6863   9.251   5.892   8.939  0.5399  0.0762 -0.3209
  236ccc    H11 6864   9.255   5.800   8.998  0.3029  1.0363  1.2445
  236ccc    H12 6865   9.283   5.978   8.999 -0.2472 -1.6664  2.7777
  236ccc     C8 6866   9.114   5.930   8.881  0.1391  0.3341 -0.4854
  236ccc    H13 6867   9.121   6.037   8.856 -3.1062  0.9717  0.7714
  236ccc    H14 6868   9.070   5.876   8.797 -1.0635  1.7653 -0.8296
  236ccc     C9 6869   9.014   5.919   8.996  0.0476  0.0967 -0.5364
  236ccc     O4 6870   8.980   5.814   9.045  0.5964  0.9780 -0.3100
  236ccc     O5 6871   8.950   6.019   9.034 -0.3006  0.5566 -0.3838
  236ccc     O1 6872   9.350   5.996   8.551 -0.0691 -0.2981  0.2486
  237ccc     C3 6873   8.635   6.580   8.307 -0.7327  0.6412  0.0025
  237ccc     H5 6874   8.696   6.590   8.216  1.8362 -0.0315  1.5327
  237ccc     H6 6875   8.546   6.520   8.284 -0.1255 -1.2359  2.1876
  237ccc     C2 6876   8.597   6.713   8.381 -0.3162  0.7965 -0.5542
  237ccc     H3 6877   8.511   6.764   8.337 -0.1394  1.5626 -0.0259
  237ccc     H4 6878   8.691   6.769   8.392 -0.5948  0.7075  4.0603
  237ccc     C1 6879   8.551   6.693   8.530 -0.0522 -0.0212 -0.3037
  237ccc     H1 6880   8.504   6.786   8.565 -0.6390  0.0653 -1.2989
  237ccc     H2 6881   8.639   6.686   8.596  0.5587  0.7572 -1.0164
  237ccc     N1 6882   8.457   6.580   8.554 -0.2547  0.0960 -0.1133
  237ccc     C4 6883   8.328   6.607   8.503 -0.4842 -0.3189 -0.2632
  237ccc     H7 6884   8.336   6.644   8.401  0.7387 -0.9121 -0.3944
  237ccc     H8 6885   8.282   6.683   8.567 -1.1967  0.0861 -1.2341
  237ccc     C5 6886   8.223   6.500   8.518  0.3052  0.4755  0.3576
  237ccc     H9 6887   8.249   6.414   8.457  1.0695  1.4085 -0.6712
  237ccc    H10 6888   8.202   6.469   8.621 -3.2034  0.0046 -0.3730
  237ccc     C6 6889   8.096   6.561   8.467  0.4298 -0.5804  0.1913
  237ccc     O2 6890   8.031   6.639   8.538  0.0689  0.6433 -0.3210
  237ccc     O3 6891   8.073   6.568   8.349 -0.0076 -0.2325  0.1907
  237ccc     C7 6892   8.470   6.527   8.690  0.1938 -0.6224  0.0705
  237ccc    H11 6893   8.447   6.606   8.763  3.2511 -0.4051  0.9425
  237ccc    H12 6894   8.399   6.444   8.702  1.3570 -1.5514  0.7434
  237ccc     C8 6895   8.607   6.475   8.721  0.0950 -0.8243 -0.1684
  237ccc    H13 6896   8.635   6.417   8.632 -1.4854  0.9652 -1.9170
  237ccc    H14 6897   8.688   6.548   8.736 -0.3972 -0.6944  2.2406
  237ccc     C9 6898   8.615   6.391   8.843  0.3013  0.0374  0.0625
  237ccc     O4 6899   8.722   6.352   8.887 -0.2350 -0.1424 -0.6128
  237ccc     O5 6900   8.516   6.375   8.914 -0.0568  0.1049  0.3866
  237ccc     O1 6901   8.707   6.490   8.400  0.2788 -0.8615 -0.4220
  238ccc     C3 6902   8.400   2.960   7.328 -1.0711  0.3942 -0.1746
  238ccc     H5 6903   8.486   2.996   7.386 -0.0409 -1.6947 -0.2921
  238ccc     H6 6904   8.409   2.850   7.330 -0.1842  0.4543 -0.5846
  238ccc     C2 6905   8.433   2.994   7.181  0.1237 -0.3909 -0.7227
  238ccc     H3 6906   8.348   2.958   7.121 -0.1835 -1.4946  0.3427
  238ccc     H4 6907   8.523   2.938   7.154  0.7003 -0.3297  0.9559
  238ccc     C1 6908   8.460   3.144   7.154  1.0433 -0.2560 -0.0356
  238ccc     H1 6909   8.565   3.164   7.179  1.3936 -1.7278 -0.2485
  238ccc     H2 6910   8.384   3.198   7.213 -2.2774 -2.8892 -1.5593
  238ccc     N1 6911   8.437   3.190   7.016  0.5509  0.5508 -0.4172
  238ccc     C4 6912   8.295   3.175   6.972  0.3183  0.4789 -0.2156
  238ccc     H7 6913   8.263   3.071   6.981  1.1533  0.3757  2.2021
  238ccc     H8 6914   8.280   3.208   6.868 -1.3585 -2.0681 -0.8559
  238ccc     C5 6915   8.196   3.264   7.056  0.6549  0.2574 -0.0183
  238ccc     H9 6916   8.181   3.219   7.155  1.2711 -1.0725 -0.4972
  238ccc    H10 6917   8.220   3.371   7.064  0.0669  0.3964 -0.1220
  238ccc     C6 6918   8.060   3.237   6.996  0.1476 -0.1767 -0.6419
  238ccc     O2 6919   8.011   3.322   6.916 -0.0513  0.1451  0.4642
  238ccc     O3 6920   7.987   3.141   7.027 -0.3400 -0.4750  0.0123
  238ccc     C7 6921   8.530   3.104   6.936 -0.8016 -0.6159 -0.0789
  238ccc    H11 6922   8.629   3.122   6.979 -2.1066 -0.7277  3.2427
  238ccc    H12 6923   8.520   2.996   6.953 -0.7346 -0.6113 -0.0077
  238ccc     C8 6924   8.528   3.145   6.788  0.6356 -0.5482 -0.3275
  238ccc    H13 6925   8.453   3.087   6.735  0.1282 -0.0233 -0.1952
  238ccc    H14 6926   8.521   3.254   6.777 -1.9053 -0.6966 -0.7437
  238ccc     C9 6927   8.665   3.122   6.727  1.0704  1.3708  1.0982
  238ccc     O4 6928   8.693   3.011   6.678 -0.1390 -1.0069  0.2822
  238ccc     O5 6929   8.748   3.206   6.748  0.2482 -0.2553  0.3596
  238ccc     O1 6930   8.269   3.016   7.364  0.3409  0.4847  0.2746
  239ccc     C3 6931   7.454   2.905   7.471  0.6042  0.0363  0.0639
  239ccc     H5 6932   7.501   2.816   7.513  2.1262 -1.1592 -3.7522
  239ccc     H6 6933   7.377   2.952   7.534  0.4394 -0.0524 -0.0684
  239ccc     C2 6934   7.394   2.855   7.336 -0.1899  0.5265 -0.0999
  239ccc     H3 6935   7.313   2.783   7.355  0.2838 -0.6386 -2.2000
  239ccc     H4 6936   7.471   2.805   7.276  0.0632  2.5130 -1.5304
  239ccc     C1 6937   7.340   2.976   7.246  0.4986  0.4378 -0.6358
  239ccc     H1 6938   7.415   3.055   7.231  0.6328 -0.0198 -2.5895
  239ccc     H2 6939   7.257   3.019   7.303  1.5656 -1.1184  2.3222
  239ccc     N1 6940   7.297   2.945   7.112  0.2152 -0.0914 -0.4738
  239ccc     C4 6941   7.188   2.848   7.098 -0.5786 -0.4184  0.2396
  239ccc     H7 6942   7.121   2.831   7.183 -0.9353  0.6862  0.1921
  239ccc     H8 6943   7.232   2.751   7.072 -1.5153 -0.3352 -1.8817
  239ccc     C5 6944   7.090   2.875   6.984  0.2193 -0.2074 -0.1939
  239ccc     H9 6945   7.037   2.970   7.001  4.0764  2.1163  0.2657
  239ccc    H10 6946   7.143   2.886   6.889  2.8382  0.7387  1.2651
  239ccc     C6 6947   6.988   2.765   6.980  0.1763 -0.6800  0.0313
  239ccc     O2 6948   6.994   2.652   6.930  0.1562 -0.1128 -0.4295
  239ccc     O3 6949   6.882   2.787   7.040 -0.0845 -0.1581  0.1708
  239ccc     C7 6950   7.409   2.928   7.014 -0.2200 -0.3756  0.1066
  239ccc    H11 6951   7.470   2.843   7.047  0.1365 -0.4466 -0.7145
  239ccc    H12 6952   7.368   2.913   6.913  0.1457  0.9259 -0.2559
  239ccc     C8 6953   7.506   3.043   6.996 -0.0155 -0.6909 -0.2066
  239ccc    H13 6954   7.470   3.127   6.935  3.2571  2.1122  1.3756
  239ccc    H14 6955   7.546   3.090   7.086 -1.1981 -1.4113  0.7220
  239ccc     C9 6956   7.615   2.992   6.909  0.9137  0.3613  0.8347
  239ccc     O4 6957   7.594   2.898   6.829 -0.1940 -0.0356  0.0204
  239ccc     O5 6958   7.722   3.037   6.918 -0.3041 -0.7595  0.2011
  239ccc     O1 6959   7.557   3.001   7.422 -0.1793  0.1968 -0.3306
  240ccc     C3 6960   9.323   3.016   7.341  0.0328  0.6836  0.0865
  240ccc     H5 6961   9.355   3.116   7.309 -0.1502  0.5143 -0.6298
  240ccc     H6 6962   9.399   2.939   7.327 -1.8371 -1.7250  2.2498
  240ccc     C2 6963   9.191   2.982   7.270 -0.2440  0.6353  0.4376
  240ccc     H3 6964   9.199   3.013   7.165 -0.3592 -0.0600  0.2190
  240ccc     H4 6965   9.110   3.046   7.307 -1.8454 -1.5913  1.0044
  240ccc     C1 6966   9.166   2.827   7.270  0.2169  0.1034  0.2195
  240ccc     H1 6967   9.191   2.794   7.372  0.0616  1.2868  0.6653
  240ccc     H2 6968   9.225   2.777   7.193  0.2232 -1.2402  1.0569
  240ccc     N1 6969   9.020   2.795   7.255  0.1134  0.5386 -0.2569
  240ccc     C4 6970   8.980   2.669   7.311 -0.1502  0.3630 -0.4382
  240ccc     H7 6971   8.876   2.669   7.347 -0.1244 -1.1117 -0.2739
  240ccc     H8 6972   9.041   2.646   7.399 -0.4498 -1.0733 -0.5836
  240ccc     C5 6973   9.013   2.549   7.223 -0.0426 -0.4370  0.7569
  240ccc     H9 6974   8.967   2.556   7.124  1.3786  0.1785  0.1143
  240ccc    H10 6975   9.120   2.543   7.199  0.2010  1.3379  1.2278
  240ccc     C6 6976   8.963   2.421   7.283 -0.5136  0.0372  0.1304
  240ccc     O2 6977   8.843   2.394   7.292  0.3047  0.2715 -0.0802
  240ccc     O3 6978   9.040   2.329   7.305  0.2772 -0.1210 -0.1222
  240ccc     C7 6979   8.972   2.831   7.118  0.3293  0.4190 -0.3033
  240ccc    H11 6980   8.999   2.932   7.082  0.5044 -0.2489 -2.1926
  240ccc    H12 6981   9.008   2.760   7.043 -1.8929 -0.6053 -0.4706
  240ccc     C8 6982   8.823   2.830   7.112  0.3024  0.0253 -0.5568
  240ccc    H13 6983   8.794   2.728   7.142 -0.2253  0.8208  1.9285
  240ccc    H14 6984   8.776   2.896   7.186  0.9441  1.2383 -1.2060
  240ccc     C9 6985   8.785   2.869   6.971  0.2056  0.5454  1.0447
  240ccc     O4 6986   8.700   2.811   6.906  0.1237  0.3946 -0.0689
  240ccc     O5 6987   8.836   2.968   6.922  0.0267  0.6200 -0.0163
  240ccc     O1 6988   9.296   3.034   7.481 -0.3047 -0.1233 -0.3131
  241ccc     C3 6989   9.646   2.702   8.099  0.4294  0.1078  0.4680
  241ccc     H5 6990   9.615   2.636   8.018 -1.2932 -0.0318  1.2050
  241ccc     H6 6991   9.743   2.677   8.144  1.1408  2.6302  0.4901
  241ccc     C2 6992   9.537   2.696   8.209 -0.2400  0.2166 -0.4873
  241ccc     H3 6993   9.551   2.777   8.281  0.0410 -0.2792  0.0269
  241ccc     H4 6994   9.562   2.607   8.268  0.8998  0.1888 -0.9735
  241ccc     C1 6995   9.390   2.703   8.164 -0.0303  0.3111 -0.2249
  241ccc     H1 6996   9.360   2.621   8.098 -0.7359  1.3888 -1.2955
  241ccc     H2 6997   9.382   2.796   8.107  3.2969  0.5054 -0.5784
  241ccc     N1 6998   9.290   2.691   8.277 -0.0421  0.0043 -0.4475
  241ccc     C4 6999   9.292   2.805   8.368  0.4660 -0.4606  0.1928
  241ccc     H7 7000   9.381   2.816   8.431  0.4902  1.3183 -0.0886
  241ccc     H8 7001   9.208   2.794   8.437  0.2658  1.6039  0.3447
  241ccc     C5 7002   9.261   2.933   8.299 -1.0475  0.2347  0.1425
  241ccc     H9 7003   9.357   2.978   8.270 -2.1402  1.1994 -2.2576
  241ccc    H10 7004   9.198   2.916   8.211  0.0939 -1.9452 -0.3078
  241ccc     C6 7005   9.184   3.023   8.386  0.2089 -0.0465  0.1596
  241ccc     O2 7006   9.063   3.014   8.400 -0.0597 -0.2214 -0.1506
  241ccc     O3 7007   9.242   3.118   8.432  0.4002  0.0042  0.2897
  241ccc     C7 7008   9.275   2.562   8.350 -0.4213 -0.3397 -0.9212
  241ccc    H11 7009   9.375   2.544   8.392 -0.7353 -2.2858 -0.9576
  241ccc    H12 7010   9.195   2.563   8.425 -0.2229 -1.6873 -0.6729
  241ccc     C8 7011   9.249   2.434   8.258 -0.1127 -0.2630 -0.3778
  241ccc    H13 7012   9.184   2.466   8.176 -1.6221 -1.5652  0.2404
  241ccc    H14 7013   9.342   2.396   8.215  0.4528 -0.2305  0.7886
  241ccc     C9 7014   9.199   2.323   8.346  0.0014  0.2655  0.3661
  241ccc     O4 7015   9.273   2.246   8.407 -0.1778  0.3402 -0.1169
  241ccc     O5 7016   9.083   2.284   8.334 -0.7462 -0.1283 -0.1740
  241ccc     O1 7017   9.653   2.824   8.021  0.3852 -0.2011 -0.2915
  242ccc     C3 7018   7.604   5.281   6.625  1.0639  0.0202  0.2646
  242ccc     H5 7019   7.681   5.354   6.654  1.0570 -0.7526  2.4469
  242ccc     H6 7020   7.657   5.187   6.608  0.1305 -0.3093 -0.9504
  242ccc     C2 7021   7.536   5.301   6.484 -0.2364  0.8667 -0.2523
  242ccc     H3 7022   7.622   5.323   6.419 -0.6664 -0.4230 -1.3033
  242ccc     H4 7023   7.469   5.387   6.479  0.5373  1.6637  2.0750
  242ccc     C1 7024   7.476   5.166   6.435 -0.5108 -0.4260 -0.1507
  242ccc     H1 7025   7.381   5.148   6.487  0.1479 -1.1316  0.8423
  242ccc     H2 7026   7.547   5.086   6.459 -0.2382 -0.0627  0.2526
  242ccc     N1 7027   7.446   5.156   6.292  0.3985 -0.2272 -0.4436
  242ccc     C4 7028   7.373   5.027   6.267 -0.4832  0.2173 -0.1959
  242ccc     H7 7029   7.284   5.010   6.329  0.0742  0.6420  0.7505
  242ccc     H8 7030   7.437   4.943   6.298 -0.4613  0.8326  1.5089
  242ccc     C5 7031   7.345   5.016   6.122  0.3133  0.4702  0.4559
  242ccc     H9 7032   7.418   5.067   6.057 -0.0951  0.8148  0.2592
  242ccc    H10 7033   7.360   4.909   6.103  1.1560  0.8107 -0.9363
  242ccc     C6 7034   7.195   5.031   6.086 -0.8967  0.7459  0.8145
  242ccc     O2 7035   7.160   5.145   6.051  0.3161  0.9736 -0.0110
  242ccc     O3 7036   7.120   4.938   6.118  0.2986 -0.6512  0.6080
  242ccc     C7 7037   7.384   5.277   6.237  0.1818 -0.1349  0.0863
  242ccc    H11 7038   7.453   5.360   6.254  0.0830 -0.2871  1.3175
  242ccc    H12 7039   7.376   5.271   6.128  0.4874  2.7888 -0.1880
  242ccc     C8 7040   7.250   5.315   6.303  1.0929  0.4686  0.2508
  242ccc    H13 7041   7.176   5.234   6.301  0.9294  0.6235 -0.3931
  242ccc    H14 7042   7.262   5.344   6.408  1.7422  1.6572 -0.1286
  242ccc     C9 7043   7.197   5.432   6.225 -0.0098 -0.4381  0.2027
  242ccc     O4 7044   7.146   5.525   6.281  0.6671  0.6329 -0.3123
  242ccc     O5 7045   7.211   5.444   6.108  0.0187 -0.2084  0.7079
  242ccc     O1 7046   7.499   5.253   6.728 -0.1047  0.2112 -0.0972
  243ccc     C3 7047   6.826   5.222   7.295  0.5807 -0.1217 -0.0066
  243ccc     H5 7048   6.909   5.229   7.367 -0.6147  5.0023  1.3223
  243ccc     H6 7049   6.801   5.325   7.264 -0.2784 -0.4121 -0.3127
  243ccc     C2 7050   6.701   5.158   7.350 -0.5355  0.4557 -0.6887
  243ccc     H3 7051   6.629   5.165   7.268 -0.4155  0.0602 -0.8306
  243ccc     H4 7052   6.667   5.226   7.429  0.4727  1.2561 -0.9308
  243ccc     C1 7053   6.717   5.010   7.405  0.6317 -0.2517 -0.0274
  243ccc     H1 7054   6.726   4.939   7.322  0.0266 -2.3017  1.5710
  243ccc     H2 7055   6.621   4.986   7.453  0.2460 -2.5715 -1.8034
  243ccc     N1 7056   6.824   4.981   7.496  0.4758 -0.2355  0.0176
  243ccc     C4 7057   6.850   4.833   7.501  0.3051 -0.6306  0.2272
  243ccc     H7 7058   6.954   4.815   7.531 -0.0040 -1.7835  0.6570
  243ccc     H8 7059   6.845   4.788   7.401 -1.2004  0.1979 -0.0910
  243ccc     C5 7060   6.757   4.761   7.596  0.4242  0.0246 -0.6540
  243ccc     H9 7061   6.776   4.790   7.700 -2.1255 -0.0363 -0.1160
  243ccc    H10 7062   6.653   4.786   7.575 -0.2461 -0.5821  1.6335
  243ccc     C6 7063   6.766   4.615   7.579 -0.5619  0.4618  0.0495
  243ccc     O2 7064   6.759   4.559   7.471 -0.6914  0.1551  0.0026
  243ccc     O3 7065   6.717   4.552   7.673  0.9315 -0.4937 -0.4737
  243ccc     C7 7066   6.813   5.048   7.625  0.3857 -0.3899  0.2948
  243ccc    H11 7067   6.801   5.156   7.611  2.9503  0.0260  0.8457
  243ccc    H12 7068   6.723   5.003   7.670 -3.0091  1.5496 -3.8745
  243ccc     C8 7069   6.942   5.041   7.705 -0.4692  0.9804 -0.0053
  243ccc    H13 7070   6.980   4.938   7.704 -0.2783  1.0520 -0.9864
  243ccc    H14 7071   7.020   5.105   7.661  0.6199  0.1672  0.6891
  243ccc     C9 7072   6.921   5.086   7.842 -0.1367 -0.4470  0.0729
  243ccc     O4 7073   6.821   5.056   7.908  0.8974 -0.8796  0.3924
  243ccc     O5 7074   7.008   5.149   7.900  0.1358 -0.7099 -0.1885
  243ccc     O1 7075   6.872   5.158   7.173 -0.0805 -0.3716  0.4247
  244ccc     C3 7076   7.858   4.925   6.211 -0.0374  0.2033 -0.2977
  244ccc     H5 7077   7.806   4.892   6.301 -1.7270 -0.6140 -1.5038
  244ccc     H6 7078   7.962   4.939   6.242 -0.0144  0.0599 -0.3077
  244ccc     C2 7079   7.793   5.055   6.165  0.1294 -0.1451  0.3420
  244ccc     H3 7080   7.795   5.117   6.255  0.7154 -1.7171  1.4643
  244ccc     H4 7081   7.689   5.030   6.138  0.6341 -0.5024 -1.4040
  244ccc     C1 7082   7.884   5.115   6.059 -1.1329  0.7933  0.7796
  244ccc     H1 7083   7.881   5.058   5.965  0.1438  1.6300  0.1956
  244ccc     H2 7084   7.988   5.105   6.092 -0.8949 -2.2540 -0.5448
  244ccc     N1 7085   7.856   5.255   6.033 -0.3522 -0.0112  0.5223
  244ccc     C4 7086   7.956   5.315   5.939  0.2692  0.2031 -0.6889
  244ccc     H7 7087   7.915   5.403   5.889  1.0567  1.6321  1.0480
  244ccc     H8 7088   7.975   5.238   5.862 -0.6886  0.1200 -0.8524
  244ccc     C5 7089   8.089   5.355   6.004  0.1614  0.4270 -0.3259
  244ccc     H9 7090   8.088   5.464   6.018 -0.7980  0.4189 -0.2688
  244ccc    H10 7091   8.101   5.308   6.102 -0.6739 -0.8828 -0.8337
  244ccc     C6 7092   8.209   5.324   5.922  0.7021 -0.1859 -0.2747
  244ccc     O2 7093   8.203   5.355   5.807 -0.1823 -0.0672  0.0624
  244ccc     O3 7094   8.276   5.224   5.944 -1.0609  0.0449  0.7588
  244ccc     C7 7095   7.723   5.262   5.978 -0.3969 -0.0611 -0.0059
  244ccc    H11 7096   7.736   5.242   5.871  1.0148 -2.1744  0.5006
  244ccc    H12 7097   7.651   5.189   6.017 -1.1761 -1.4320 -3.6009
  244ccc     C8 7098   7.658   5.403   6.002 -0.1194  0.1681  0.3394
  244ccc    H13 7099   7.623   5.411   6.106 -2.0947  1.2416 -0.3536
  244ccc    H14 7100   7.732   5.483   5.987 -1.6249  1.3086 -1.5783
  244ccc     C9 7101   7.545   5.426   5.905  0.0905  0.1627 -0.6703
  244ccc     O4 7102   7.430   5.423   5.948  0.1108  0.2549 -0.2630
  244ccc     O5 7103   7.568   5.451   5.792  0.9059  0.0442  0.7568
  244ccc     O1 7104   7.846   4.832   6.106  0.0414  0.3274  0.6153
  245ccc     C3 7105   8.448   4.371   5.864 -0.1593  0.4825  0.2919
  245ccc     H5 7106   8.501   4.293   5.921  2.2051  1.5952 -0.2400
  245ccc     H6 7107   8.458   4.331   5.762  2.6013 -2.0712  1.4234
  245ccc     C2 7108   8.532   4.502   5.887 -0.5487 -0.9126 -1.0154
  245ccc     H3 7109   8.476   4.591   5.856  1.2697  0.2941 -1.0146
  245ccc     H4 7110   8.626   4.495   5.830 -0.3533  2.0332 -1.2541
  245ccc     C1 7111   8.559   4.513   6.035 -1.3607 -0.2307  0.2440
  245ccc     H1 7112   8.572   4.411   6.074 -1.0561  0.4416  1.9863
  245ccc     H2 7113   8.463   4.546   6.078 -0.6885  0.7559  1.0297
  245ccc     N1 7114   8.667   4.604   6.065 -0.7083  0.2733 -0.5091
  245ccc     C4 7115   8.642   4.742   6.022  0.4483 -0.1209 -0.1734
  245ccc     H7 7116   8.603   4.743   5.920 -0.7882 -0.8823  0.2627
  245ccc     H8 7117   8.734   4.803   6.025 -0.4717  1.2758  1.4035
  245ccc     C5 7118   8.530   4.805   6.105 -0.9004 -0.5276 -0.4006
  245ccc     H9 7119   8.436   4.748   6.112 -0.1974 -1.7535 -0.6017
  245ccc    H10 7120   8.568   4.827   6.205 -2.5486 -1.5852  0.4985
  245ccc     C6 7121   8.490   4.936   6.050 -0.2192  0.1657 -0.8708
  245ccc     O2 7122   8.563   5.031   6.068  0.0620  0.1142 -0.2721
  245ccc     O3 7123   8.399   4.946   5.974  0.6933 -1.4198 -0.1728
  245ccc     C7 7124   8.706   4.588   6.206 -0.3368  0.0313  0.1951
  245ccc    H11 7125   8.622   4.616   6.271 -0.4739 -1.9430  0.9409
  245ccc    H12 7126   8.720   4.479   6.217  0.3645 -0.0640 -1.3932
  245ccc     C8 7127   8.839   4.663   6.235 -0.9716 -0.3654  0.0866
  245ccc    H13 7128   8.818   4.768   6.261  0.8185  0.0506 -0.0166
  245ccc    H14 7129   8.892   4.611   6.315 -0.7658 -1.7605 -0.9201
  245ccc     C9 7130   8.942   4.654   6.121  0.1788 -0.2673 -0.0604
  245ccc     O4 7131   8.959   4.548   6.060  0.2857  0.6785  0.3894
  245ccc     O5 7132   8.998   4.755   6.069 -0.5050  0.1631 -0.3804
  245ccc     O1 7133   8.308   4.393   5.907 -0.1560 -0.4527 -0.5042
  246ccc     C3 7134   9.053   2.038   9.117  0.0325 -0.1620  1.0339
  246ccc     H5 7135   9.133   2.069   9.048  0.0334 -0.8072  0.7376
  246ccc     H6 7136   9.082   1.985   9.208  0.1217 -0.0999  1.0419
  246ccc     C2 7137   8.949   1.948   9.041 -0.1294  0.4920  0.2533
  246ccc     H3 7138   8.914   2.005   8.954 -0.6263 -3.0502 -2.0582
  246ccc     H4 7139   8.850   1.941   9.087 -0.7884 -2.0865 -1.3524
  246ccc     C1 7140   8.998   1.802   9.009 -0.9776  0.2200  0.7952
  246ccc     H1 7141   8.929   1.750   8.942  1.4525 -0.1872 -1.5679
  246ccc     H2 7142   8.995   1.743   9.102  0.6318 -0.4053  0.4885
  246ccc     N1 7143   9.133   1.803   8.958 -0.3761 -0.4437  0.2371
  246ccc     C4 7144   9.121   1.858   8.822  0.1408  0.2514  0.1912
  246ccc     H7 7145   9.058   1.948   8.817  0.0935  0.3941  2.3363
  246ccc     H8 7146   9.084   1.780   8.755  3.7966  0.5530 -2.5005
  246ccc     C5 7147   9.260   1.891   8.756  0.1123 -0.6786  0.3484
  246ccc     H9 7148   9.322   1.948   8.827 -1.9541  0.4134  1.3644
  246ccc    H10 7149   9.319   1.811   8.710 -1.2976 -1.2071 -0.6025
  246ccc     C6 7150   9.225   1.984   8.650  0.2616  0.0550 -0.4402
  246ccc     O2 7151   9.236   2.104   8.670  0.1031  0.1289  0.4729
  246ccc     O3 7152   9.174   1.946   8.547 -0.2029 -0.0481  0.6431
  246ccc     C7 7153   9.210   1.680   8.958  0.2699  0.2675 -0.1045
  246ccc    H11 7154   9.159   1.610   8.891  0.5714  0.2714 -0.3401
  246ccc    H12 7155   9.310   1.701   8.918  1.4816 -2.2705  1.3350
  246ccc     C8 7156   9.232   1.616   9.099  0.6129 -0.7408 -0.0917
  246ccc    H13 7157   9.287   1.687   9.162  1.2764 -1.9545  0.7397
  246ccc    H14 7158   9.136   1.595   9.148  0.6310  0.1029  0.3155
  246ccc     C9 7159   9.316   1.499   9.087  0.0967  0.4738 -0.7347
  246ccc     O4 7160   9.280   1.398   9.030  0.3441 -0.1936 -0.6472
  246ccc     O5 7161   9.435   1.498   9.119  0.0011  0.1943  0.0223
  246ccc     O1 7162   8.985   2.150   9.170 -0.0844  0.2950 -0.1472
  247ccc     C3 7163   9.249   2.941   9.011 -0.6868 -0.8009 -0.4083
  247ccc     H5 7164   9.235   3.025   9.080  1.1353 -0.0929 -0.8431
  247ccc     H6 7165   9.343   2.900   9.052 -0.3669  1.5433  1.4108
  247ccc     C2 7166   9.268   2.979   8.866  0.0875 -0.6622  0.7487
  247ccc     H3 7167   9.361   3.036   8.858  0.3520 -1.2768 -1.2310
  247ccc     H4 7168   9.192   3.049   8.828  1.6717  0.3644 -0.6502
  247ccc     C1 7169   9.267   2.858   8.771 -0.6431  0.4715 -0.0073
  247ccc     H1 7170   9.288   2.896   8.671  1.8027 -0.2131  0.1845
  247ccc     H2 7171   9.163   2.821   8.769 -0.6718  0.5163  0.4616
  247ccc     N1 7172   9.373   2.767   8.793 -0.1229 -0.2368 -0.4612
  247ccc     C4 7173   9.514   2.811   8.796 -0.0960  0.6462 -0.7181
  247ccc     H7 7174   9.517   2.899   8.861 -0.3523  1.4710 -1.7758
  247ccc     H8 7175   9.557   2.841   8.699 -0.1648 -2.0095 -1.6372
  247ccc     C5 7176   9.610   2.712   8.858  0.4995  0.3878  0.0258
  247ccc     H9 7177   9.562   2.664   8.944 -1.5197  1.5340 -0.4140
  247ccc    H10 7178   9.633   2.633   8.784  0.5084  1.1079 -0.7539
  247ccc     C6 7179   9.735   2.767   8.911  0.2258 -0.8063 -0.6639
  247ccc     O2 7180   9.775   2.880   8.880  0.0465  0.4614  0.1261
  247ccc     O3 7181   9.805   2.697   8.981 -0.4531  0.2792 -0.3336
  247ccc     C7 7182   9.351   2.635   8.730  0.0736 -0.3379  0.7379
  247ccc    H11 7183   9.362   2.630   8.621 -1.5741 -0.6279  0.5656
  247ccc    H12 7184   9.426   2.566   8.770 -0.4323  0.2250  2.7809
  247ccc     C8 7185   9.221   2.571   8.779  0.0903 -0.0799 -0.4244
  247ccc    H13 7186   9.226   2.548   8.886 -1.4920  1.4222  0.0308
  247ccc    H14 7187   9.135   2.632   8.750 -0.6511  0.5194  2.6682
  247ccc     C9 7188   9.216   2.447   8.702 -0.7266 -0.0243 -0.4954
  247ccc     O4 7189   9.281   2.355   8.739 -0.1460  0.1264 -0.1954
  247ccc     O5 7190   9.126   2.422   8.627 -0.0141 -0.1316 -0.9036
  247ccc     O1 7191   9.133   2.856   9.021 -0.7536 -0.2042 -0.7150
  248ccc     C3 7192   8.385   2.208   8.984  0.2145 -0.5987 -0.1358
  248ccc     H5 7193   8.424   2.290   9.044  0.2832  0.5758 -1.7129
  248ccc     H6 7194   8.375   2.131   9.061  1.3012  0.0928  0.7096
  248ccc     C2 7195   8.486   2.163   8.888  0.1163 -0.4944 -0.1204
  248ccc     H3 7196   8.528   2.064   8.910  1.5739  0.2989  0.8566
  248ccc     H4 7197   8.571   2.228   8.910 -1.4643  1.8305 -0.4842
  248ccc     C1 7198   8.444   2.175   8.742 -0.0675  0.0458 -0.3745
  248ccc     H1 7199   8.436   2.283   8.724  0.1108  0.3482  1.2603
  248ccc     H2 7200   8.347   2.128   8.725  0.6161 -0.9299 -1.7966
  248ccc     N1 7201   8.540   2.103   8.655 -0.1491 -0.2938 -0.0921
  248ccc     C4 7202   8.676   2.155   8.665 -0.3848  0.4228  0.4587
  248ccc     H7 7203   8.706   2.200   8.761  0.8261 -0.7348  0.6584
  248ccc     H8 7204   8.678   2.246   8.604 -0.2141  0.1431  0.0491
  248ccc     C5 7205   8.794   2.055   8.632 -0.3140  0.0552 -0.3693
  248ccc     H9 7206   8.848   2.027   8.723  1.0115 -0.9658 -1.4269
  248ccc    H10 7207   8.756   1.961   8.592 -0.8625  0.5295 -0.9927
  248ccc     C6 7208   8.892   2.117   8.538 -0.5870  0.3155  0.2954
  248ccc     O2 7209   8.982   2.182   8.586 -0.3805  0.0361  0.2338
  248ccc     O3 7210   8.903   2.079   8.419  0.0321  0.2739  0.4876
  248ccc     C7 7211   8.506   2.103   8.512  0.0524  0.4184 -0.3650
  248ccc    H11 7212   8.450   2.192   8.480  0.2609  0.7700  0.2379
  248ccc    H12 7213   8.600   2.104   8.455 -0.1455  1.5295 -0.6823
  248ccc     C8 7214   8.427   1.973   8.489  0.2777 -0.3315 -0.2732
  248ccc    H13 7215   8.485   1.888   8.527  1.3868  0.8759  0.8480
  248ccc    H14 7216   8.334   1.978   8.548  1.4784 -1.2576  1.7938
  248ccc     C9 7217   8.412   1.959   8.343 -0.0288  0.9046  0.1608
  248ccc     O4 7218   8.307   1.936   8.289  0.0949 -0.9510 -0.7402
  248ccc     O5 7219   8.511   1.958   8.270  0.2031  0.7349 -0.0338
  248ccc     O1 7220   8.254   2.241   8.918 -0.6922 -0.5602  0.6599
  249ccc     C3 7221   7.933   2.212   8.363 -0.0337  0.9550 -0.0674
  249ccc     H5 7222   7.948   2.156   8.456  0.6966 -0.8557 -1.2273
  249ccc     H6 7223   7.890   2.142   8.290  3.0222 -1.6145  0.3777
  249ccc     C2 7224   8.071   2.270   8.316 -0.6916 -0.2728  0.0953
  249ccc     H3 7225   8.135   2.182   8.301 -0.0466  0.2196 -0.1084
  249ccc     H4 7226   8.115   2.327   8.399 -0.7752 -1.1216  0.7423
  249ccc     C1 7227   8.066   2.357   8.190 -0.3652  0.9715  0.0028
  249ccc     H1 7228   8.155   2.421   8.193 -0.5629  1.2731 -0.3718
  249ccc     H2 7229   7.983   2.429   8.197 -1.0286  0.4043 -1.6308
  249ccc     N1 7230   8.052   2.295   8.060  0.1015  0.1113  0.0222
  249ccc     C4 7231   8.153   2.198   8.030 -0.3748 -0.4579  0.4658
  249ccc     H7 7232   8.137   2.168   7.925 -1.0904  2.1361 -0.2548
  249ccc     H8 7233   8.133   2.109   8.090  0.0111 -2.0846 -1.6834
  249ccc     C5 7234   8.291   2.254   8.043 -0.2549 -0.1629 -0.1775
  249ccc     H9 7235   8.291   2.362   8.021 -0.5131 -0.2569 -0.6360
  249ccc    H10 7236   8.321   2.256   8.149 -0.4760 -0.3697 -0.1108
  249ccc     C6 7237   8.398   2.181   7.960  0.6266 -0.4495  0.3746
  249ccc     O2 7238   8.460   2.091   8.011 -0.1887  0.1659  0.0075
  249ccc     O3 7239   8.446   2.228   7.857  0.3254 -0.1598 -0.1190
  249ccc     C7 7240   7.919   2.250   8.033 -0.0677  0.2125  0.6099
  249ccc    H11 7241   7.899   2.160   8.092 -1.9332 -0.9901 -1.6808
  249ccc    H12 7242   7.853   2.331   8.066 -0.7024 -0.0978  0.1281
  249ccc     C8 7243   7.882   2.217   7.888  0.2104  0.2624 -0.0084
  249ccc    H13 7244   7.914   2.291   7.814 -0.8996  0.0716 -0.7041
  249ccc    H14 7245   7.932   2.123   7.859 -0.3534 -0.5394  1.5409
  249ccc     C9 7246   7.744   2.193   7.870  0.3522  0.6894  0.0201
  249ccc     O4 7247   7.668   2.204   7.962  0.1633  0.2923 -0.1925
  249ccc     O5 7248   7.706   2.143   7.764  0.3147  0.1023 -0.2975
  249ccc     O1 7249   7.847   2.321   8.388  0.3423  0.2828  0.3750
  250ccc     C3 7250   6.746   4.588   8.677  0.1751 -0.0138 -0.1588
  250ccc     H5 7251   6.783   4.552   8.581 -1.0002  1.7761 -1.3563
  250ccc     H6 7252   6.660   4.522   8.693  1.3374 -1.4444  0.3825
  250ccc     C2 7253   6.694   4.731   8.661  0.0353  0.3417  0.0224
  250ccc     H3 7254   6.615   4.744   8.737 -0.0599  0.3090 -0.0711
  250ccc     H4 7255   6.640   4.725   8.566  1.2034  0.0398 -0.6398
  250ccc     C1 7256   6.798   4.855   8.660  0.0573  0.1594  0.4193
  250ccc     H1 7257   6.875   4.825   8.587 -0.4929 -0.7681  0.1980
  250ccc     H2 7258   6.847   4.859   8.758 -0.7897 -0.3830  0.8797
  250ccc     N1 7259   6.748   4.985   8.608  0.5864  0.0470 -0.5544
  250ccc     C4 7260   6.682   5.052   8.717 -0.6723 -0.1125  0.6688
  250ccc     H7 7261   6.740   5.041   8.809  0.6642  0.2375 -0.1093
  250ccc     H8 7262   6.585   5.003   8.739 -0.7727  0.4027  1.4148
  250ccc     C5 7263   6.669   5.200   8.690 -0.1244  0.1770  0.3464
  250ccc     H9 7264   6.762   5.258   8.689 -0.0804  0.1439  1.3514
  250ccc    H10 7265   6.622   5.222   8.593  3.3004  2.1648 -1.0589
  250ccc     C6 7266   6.581   5.266   8.796 -0.3974  0.5104  0.5814
  250ccc     O2 7267   6.559   5.386   8.779 -0.0540  0.0956  0.1807
  250ccc     O3 7268   6.520   5.215   8.890 -0.2430  0.2838  0.3307
  250ccc     C7 7269   6.680   4.983   8.480  0.4824  0.8457  0.3286
  250ccc    H11 7270   6.582   4.934   8.484  0.8126  0.2633  1.6641
  250ccc    H12 7271   6.669   5.086   8.442 -0.7704  0.5457 -0.1550
  250ccc     C8 7272   6.762   4.910   8.376  0.2714  0.3459 -0.3156
  250ccc    H13 7273   6.866   4.945   8.384  1.2104 -2.3006  0.0614
  250ccc    H14 7274   6.766   4.804   8.404  0.8956  0.7404  1.1837
  250ccc     C9 7275   6.712   4.915   8.238 -0.2038  0.2905  0.3893
  250ccc     O4 7276   6.744   5.000   8.164 -0.3455  0.2376  0.3034
  250ccc     O5 7277   6.661   4.814   8.191  0.9477  0.1446  0.2333
  250ccc     O1 7278   6.839   4.579   8.784 -0.3578  0.2716 -0.1208
  251ccc     C3 7279   7.329   5.164   8.649  0.7334 -0.0590  0.1908
  251ccc     H5 7280   7.328   5.220   8.743  1.3015  0.7694 -0.2790
  251ccc     H6 7281   7.431   5.132   8.625 -0.1719 -1.7801 -1.6722
  251ccc     C2 7282   7.276   5.262   8.542 -0.3057 -0.5569 -0.5316
  251ccc     H3 7283   7.262   5.212   8.445 -0.2677 -2.9884  0.6495
  251ccc     H4 7284   7.355   5.335   8.523  0.7018 -1.8480 -1.4557
  251ccc     C1 7285   7.139   5.326   8.591 -0.8824  0.4262  0.6225
  251ccc     H1 7286   7.151   5.370   8.690  1.4369  0.0683  0.5580
  251ccc     H2 7287   7.064   5.246   8.598  0.3421 -0.6502  2.0199
  251ccc     N1 7288   7.100   5.439   8.495  0.0772  0.3761  0.4819
  251ccc     C4 7289   7.200   5.552   8.486 -0.5785  0.7725 -0.5493
  251ccc     H7 7290   7.255   5.537   8.392 -2.8856 -0.3494 -1.8396
  251ccc     H8 7291   7.265   5.560   8.573 -0.1878  0.5338 -0.8123
  251ccc     C5 7292   7.113   5.677   8.474  0.0857 -0.7890  0.6479
  251ccc     H9 7293   7.058   5.666   8.380  2.9390  0.0023 -1.2624
  251ccc    H10 7294   7.042   5.675   8.557 -1.9008  0.6327 -0.9148
  251ccc     C6 7295   7.180   5.812   8.462 -0.5346  0.5892 -0.4239
  251ccc     O2 7296   7.129   5.918   8.496  0.0972 -0.7128  0.0263
  251ccc     O3 7297   7.295   5.817   8.443 -0.4583  0.1036 -0.4277
  251ccc     C7 7298   7.053   5.387   8.368 -0.0609 -0.4093  0.0269
  251ccc    H11 7299   7.021   5.470   8.303 -1.0471 -0.9186 -0.1474
  251ccc    H12 7300   7.136   5.338   8.316  0.5947  0.9355 -0.2348
  251ccc     C8 7301   6.936   5.292   8.378  0.5547 -0.2336  0.9072
  251ccc    H13 7302   6.951   5.192   8.420 -2.2053 -0.9381  0.4002
  251ccc    H14 7303   6.861   5.332   8.448  2.8366  1.3494  2.6048
  251ccc     C9 7304   6.877   5.275   8.243 -0.2182  0.1020 -1.2746
  251ccc     O4 7305   6.768   5.323   8.218 -0.1630 -1.2150  0.1482
  251ccc     O5 7306   6.930   5.212   8.156  0.1259 -0.0632 -0.0605
  251ccc     O1 7307   7.231   5.061   8.660  0.2923  0.1275 -0.3596
  252ccc     C3 7308   7.058   4.196   8.485 -0.3065  0.4923 -0.7218
  252ccc     H5 7309   7.114   4.284   8.518 -0.3795 -0.1300  1.1605
  252ccc     H6 7310   7.128   4.111   8.479  0.2255  0.8116  0.6045
  252ccc     C2 7311   7.006   4.221   8.347  0.1834  0.3290  0.1033
  252ccc     H3 7312   7.085   4.231   8.272 -0.0969 -3.4378 -0.8942
  252ccc     H4 7313   6.953   4.317   8.346 -0.5510 -0.0394  0.9509
  252ccc     C1 7314   6.911   4.103   8.310 -0.2630  0.5280  0.1978
  252ccc     H1 7315   6.823   4.105   8.376  0.5826 -2.0926  1.5592
  252ccc     H2 7316   6.964   4.013   8.345 -0.4338  0.5105  0.4118
  252ccc     N1 7317   6.886   4.080   8.159  0.0339 -0.4445  0.3096
  252ccc     C4 7318   7.001   4.031   8.082 -0.0942  0.3959 -0.4333
  252ccc     H7 7319   7.077   4.110   8.075  0.1377  0.2893  0.6473
  252ccc     H8 7320   6.964   4.017   7.980 -0.4936  1.3422 -0.4319
  252ccc     C5 7321   7.077   3.907   8.128  0.7879 -0.1988 -0.3056
  252ccc     H9 7322   7.116   3.911   8.231  2.6221  1.4586 -0.9975
  252ccc    H10 7323   7.020   3.815   8.108 -1.1879  1.0125 -0.5037
  252ccc     C6 7324   7.205   3.880   8.048  0.3376  0.3896 -0.2550
  252ccc     O2 7325   7.299   3.955   8.078 -0.2053  0.1133  0.0600
  252ccc     O3 7326   7.220   3.808   7.954 -0.0831 -0.3943 -0.1627
  252ccc     C7 7327   6.831   4.192   8.088 -0.7185 -0.4504 -0.2886
  252ccc    H11 7328   6.908   4.270   8.078 -0.9936 -0.3648 -2.0767
  252ccc    H12 7329   6.808   4.163   7.985 -2.8418  0.2308 -0.0569
  252ccc     C8 7330   6.708   4.264   8.129  0.2635 -0.3941 -0.3128
  252ccc    H13 7331   6.631   4.188   8.150  0.8695 -1.1373 -0.7214
  252ccc    H14 7332   6.729   4.325   8.217 -0.8959 -2.5259  1.5387
  252ccc     C9 7333   6.653   4.360   8.027 -0.2493  0.8130 -0.3297
  252ccc     O4 7334   6.649   4.340   7.909 -0.0129  0.4542 -0.1418
  252ccc     O5 7335   6.642   4.478   8.062 -0.0103  0.4739  0.8059
  252ccc     O1 7336   6.961   4.156   8.589 -0.1815  0.0375 -0.1074
  253ccc     C3 7337   6.706   3.768   8.148  0.6219 -0.2459  0.0647
  253ccc     H5 7338   6.771   3.857   8.150  0.5464 -0.2096  2.0027
  253ccc     H6 7339   6.760   3.680   8.110  0.8962  0.1788 -0.5601
  253ccc     C2 7340   6.590   3.798   8.063  0.3156  0.6138 -0.5072
  253ccc     H3 7341   6.544   3.891   8.098 -1.0401  1.1123 -3.3526
  253ccc     H4 7342   6.518   3.716   8.074  1.1261  0.0973  1.4681
  253ccc     C1 7343   6.624   3.809   7.915 -0.5742 -0.5502  0.1039
  253ccc     H1 7344   6.692   3.895   7.908 -0.7759 -0.4578 -0.8719
  253ccc     H2 7345   6.539   3.847   7.857 -1.3693 -1.2413  0.7871
  253ccc     N1 7346   6.672   3.684   7.844 -0.2761 -0.0621 -0.1819
  253ccc     C4 7347   6.772   3.714   7.735  0.4596 -0.7057 -0.3178
  253ccc     H7 7348   6.731   3.787   7.665  1.0231 -1.9223 -1.9984
  253ccc     H8 7349   6.802   3.625   7.678  1.7418  0.5373 -1.6466
  253ccc     C5 7350   6.900   3.766   7.812  0.5674 -0.0338 -0.3729
  253ccc     H9 7351   6.914   3.875   7.820 -1.4025  0.1494  1.5643
  253ccc    H10 7352   6.924   3.731   7.913  1.4794  1.8181  0.1067
  253ccc     C6 7353   7.024   3.713   7.734  0.6640 -0.3231  0.0643
  253ccc     O2 7354   7.093   3.794   7.674 -0.3974  0.6183 -0.0160
  253ccc     O3 7355   7.067   3.601   7.755  0.0097 -0.0888  0.1271
  253ccc     C7 7356   6.563   3.583   7.819 -0.2600 -0.7408 -0.0260
  253ccc    H11 7357   6.509   3.570   7.913  1.1085 -0.6241  0.8095
  253ccc    H12 7358   6.502   3.623   7.737 -0.9964  0.3302  1.0231
  253ccc     C8 7359   6.614   3.447   7.770  0.1141 -0.0891 -0.7643
  253ccc    H13 7360   6.529   3.377   7.767 -0.8193  0.7047  2.6874
  253ccc    H14 7361   6.670   3.462   7.677  1.1338 -0.8444 -0.2879
  253ccc     C9 7362   6.713   3.392   7.866 -0.6180 -0.0613  0.5910
  253ccc     O4 7363   6.823   3.364   7.822 -0.5769 -0.4842  0.2779
  253ccc     O5 7364   6.684   3.332   7.965 -0.5700  0.3412 -0.0161
  253ccc     O1 7365   6.639   3.753   8.276  0.6509 -0.5858  0.1177
  254SOL     OW 7366   0.898   2.457  12.100 -0.2152 -0.0947  0.1538
  254SOL    HW1 7367   0.893   2.454  12.195 -0.2468 -0.9729  0.1310
  254SOL    HW2 7368   0.867   2.545  12.077 -1.6206 -0.3784  0.8697
  255SOL     OW 7369   8.816  11.468  11.101 -0.0670  0.8149  0.9624
  255SOL    HW1 7370   8.739  11.488  11.154  0.5223  0.4607  1.9586
  255SOL    HW2 7371   8.889  11.464  11.163  0.8872  1.8121 -0.0491
  256SOL     OW 7372   4.158   0.575   5.699  0.4979 -0.2747 -0.3766
  256SOL    HW1 7373   4.234   0.532   5.739 -1.8421 -1.5732  3.1918
  256SOL    HW2 7374   4.110   0.505   5.656  0.4367  0.2324 -1.1636
  257SOL     OW 7375  12.733   6.667  11.368  0.3736  0.0671  0.6913
  257SOL    HW1 7376  12.688   6.724  11.305  1.1206 -2.0665 -1.9105
  257SOL    HW2 7377  12.826   6.676  11.346  0.5443 -1.6970  0.5615
  258SOL     OW 7378   1.514   0.361   8.059  0.0133 -0.1783  0.6362
  258SOL    HW1 7379   1.462   0.436   8.088 -0.4569 -2.0767  5.6307
  258SOL    HW2 7380   1.449   0.295   8.035  0.3918  0.0660 -1.1919
  259SOL     OW 7381   2.742   6.825   0.133  0.2515  0.2428 -0.6511
  259SOL    HW1 7382   2.672   6.791   0.077  2.1408 -1.3977 -2.1735
  259SOL    HW2 7383   2.763   6.752   0.192  1.1785  0.4439 -0.7223
  260SOL     OW 7384   9.447   3.154   2.968 -0.5042  0.4065 -0.0533
  260SOL    HW1 7385   9.383   3.134   3.037  0.3127  0.3892  0.7147
  260SOL    HW2 7386   9.525   3.183   3.015  0.3790 -0.4553 -0.9373
  261SOL     OW 7387   1.354   0.789   9.334  0.2987  0.3769  0.2817
  261SOL    HW1 7388   1.311   0.870   9.307 -0.0218 -0.2573 -1.2058
  261SOL    HW2 7389   1.284   0.724   9.338  0.7297 -0.0998  0.2805
  262SOL     OW 7390   9.502   5.967  12.582 -0.2579 -0.0813 -0.2249
  262SOL    HW1 7391   9.571   6.012  12.631 -0.6724 -0.9476  1.2142
  262SOL    HW2 7392   9.541   5.883  12.558 -0.5970 -0.3136  0.0345
  263SOL     OW 7393  10.860  10.306   8.025  0.0884  0.0908  0.4084
  263SOL    HW1 7394  10.778  10.327   8.070  0.2711  1.5844  0.1086
  263SOL    HW2 7395  10.925  10.361   8.067  1.1970 -1.8451  1.3522
  264SOL     OW 7396   1.175   4.546   7.751 -0.4836 -0.1051 -0.0991
  264SOL    HW1 7397   1.143   4.605   7.819 -0.5762 -0.2930  0.0229
  264SOL    HW2 7398   1.096   4.504   7.717 -0.3356 -0.9804  0.5860
  265SOL     OW 7399   6.752  11.854   0.524 -0.2709 -0.0980 -0.5573
  265SOL    HW1 7400   6.782  11.839   0.434 -0.0138 -0.3432 -0.4332
  265SOL    HW2 7401   6.728  11.947   0.527  0.7659  0.1760 -0.5777
  266SOL     OW 7402   5.445   4.421   4.824  0.1078  0.4687 -0.0657
  266SOL    HW1 7403   5.362   4.443   4.781  0.7502  1.1499 -1.0056
  266SOL    HW2 7404   5.426   4.429   4.918 -0.7502  1.1245 -0.2812
  267SOL     OW 7405  11.069   1.171   1.870 -0.0908 -0.3114  0.1706
  267SOL    HW1 7406  10.980   1.188   1.838 -0.4399  0.7521  1.5993
  267SOL    HW2 7407  11.126   1.205   1.801 -0.7791 -0.6971 -0.6110
  268SOL     OW 7408   8.523   5.510  10.552 -0.1045  0.1398 -0.4691
  268SOL    HW1 7409   8.610   5.534  10.522 -0.3410  0.2791 -1.0658
  268SOL    HW2 7410   8.464   5.549  10.487 -0.4824 -2.8556 -2.0808
  269SOL     OW 7411   4.400   9.041   4.744  0.1137  0.3402 -0.2308
  269SOL    HW1 7412   4.444   9.124   4.764  1.6029 -0.3108 -0.6584
  269SOL    HW2 7413   4.426   9.021   4.654  0.7786 -1.1807  0.2637
  270SOL     OW 7414   9.178   0.237  11.120  0.2566  0.2001 -0.4459
  270SOL    HW1 7415   9.166   0.175  11.192  0.1947  0.0512 -0.5831
  270SOL    HW2 7416   9.261   0.211  11.080  1.1675  1.3373  0.6116
  271SOL     OW 7417   2.537   7.606   6.241 -0.6673  0.6290  0.2861
  271SOL    HW1 7418   2.622   7.571   6.216 -0.4292  1.1160  0.4190
  271SOL    HW2 7419   2.475   7.563   6.182 -0.2281  0.9663 -0.4277
  272SOL     OW 7420   6.267   7.225   1.453  0.2533  0.1810 -0.0038
  272SOL    HW1 7421   6.234   7.139   1.476  1.2267 -0.6171 -1.4134
  272SOL    HW2 7422   6.347   7.236   1.505 -0.8729  1.0983  1.6201
  273SOL     OW 7423  11.583   4.054   4.823 -0.6599  0.2778  0.4529
  273SOL    HW1 7424  11.563   4.061   4.916  1.2788  0.5483  0.8976
  273SOL    HW2 7425  11.674   4.084   4.816 -0.6836  0.0103 -1.4895
  274SOL     OW 7426  10.922   9.974   5.115 -0.0528 -0.0199  0.5488
  274SOL    HW1 7427  10.987   9.923   5.067 -0.9520 -1.2879  0.6232
  274SOL    HW2 7428  10.889  10.037   5.050 -1.0239 -1.5010 -0.4609
  275SOL     OW 7429   1.107   7.886   4.088  0.0738 -0.0153  0.3755
  275SOL    HW1 7430   1.071   7.825   4.024 -1.5381  0.8234  0.4118
  275SOL    HW2 7431   1.066   7.860   4.171 -0.0047  0.6003  0.5347
  276SOL     OW 7432  10.150   9.424   5.665 -0.3281 -0.8196  0.2109
  276SOL    HW1 7433  10.078   9.481   5.692 -0.3310 -0.2283 -1.0047
  276SOL    HW2 7434  10.173   9.454   5.577  1.8466 -0.5441  0.8157
  277SOL     OW 7435  10.781   4.977   9.221 -0.3644 -0.1095 -0.7305
  277SOL    HW1 7436  10.771   5.072   9.208  0.1071  0.0182 -0.1921
  277SOL    HW2 7437  10.727   4.938   9.152 -1.9058  0.5379  0.0606
  278SOL     OW 7438  11.321   6.837   5.890 -0.3017 -0.0080 -0.0306
  278SOL    HW1 7439  11.359   6.913   5.846 -0.7155  0.3072  0.1455
  278SOL    HW2 7440  11.394   6.796   5.935  0.3245 -0.8903 -1.7707
  279SOL     OW 7441   1.803   7.020   5.823 -0.0203 -0.0452  0.4311
  279SOL    HW1 7442   1.722   6.970   5.811  0.7095 -1.6739  1.9496
  279SOL    HW2 7443   1.851   6.974   5.892  2.4380  0.5853 -0.7207
  280SOL     OW 7444   2.841   3.534   9.457 -0.1443 -0.4449 -0.6096
  280SOL    HW1 7445   2.828   3.516   9.550 -0.4848 -1.5330 -0.8573
  280SOL    HW2 7446   2.771   3.595   9.435 -0.3894 -0.6024 -0.2807
  281SOL     OW 7447   1.923   1.793   9.167  0.0646  0.0376  0.2663
  281SOL    HW1 7448   1.966   1.871   9.130  1.4728 -0.1835  1.3459
  281SOL    HW2 7449   1.995   1.741   9.203 -0.7107 -2.3502 -1.4058
  282SOL     OW 7450   5.896   2.392   1.625 -0.4216  0.3283  0.6967
  282SOL    HW1 7451   5.879   2.372   1.717 -0.0708 -1.4671  0.4210
  282SOL    HW2 7452   5.923   2.308   1.587 -1.2740  0.8649 -1.2167
  283SOL     OW 7453   0.186   8.225   4.324  0.3043 -0.0778  0.4146
  283SOL    HW1 7454   0.247   8.282   4.278  3.1468 -2.0623  1.4686
  283SOL    HW2 7455   0.177   8.149   4.266  1.4120 -1.1998  1.6681
  284SOL     OW 7456   4.778  10.829   0.382  0.2674  0.5500  0.2089
  284SOL    HW1 7457   4.779  10.923   0.364  1.0773  0.2265 -1.6901
  284SOL    HW2 7458   4.870  10.806   0.395  0.0245  0.1005  1.2783
  285SOL     OW 7459  11.933   3.021   4.953  0.4002  0.2358 -0.2307
  285SOL    HW1 7460  11.869   2.992   4.888  0.8737 -2.5034  0.3948
  285SOL    HW2 7461  11.885   3.084   5.007 -1.0275  0.0013 -1.1636
  286SOL     OW 7462   3.289   4.355   2.737 -0.0511  0.2947  0.2038
  286SOL    HW1 7463   3.206   4.358   2.689  0.2740  2.2073 -0.3424
  286SOL    HW2 7464   3.266   4.326   2.825 -1.6573  2.6697  0.6564
  287SOL     OW 7465   6.635   6.988   5.061 -0.1680  0.3852  0.4323
  287SOL    HW1 7466   6.547   6.996   5.097 -0.1056  3.0030  0.1820
  287SOL    HW2 7467   6.693   6.994   5.137 -0.1658 -0.5858  0.5184
  288SOL     OW 7468   7.951   2.520  10.662 -0.0879 -0.3386 -0.0121
  288SOL    HW1 7469   8.030   2.505  10.609 -0.4276 -1.6666 -0.1688
  288SOL    HW2 7470   7.961   2.461  10.737  0.3973  1.5242  1.4812
  289SOL     OW 7471  12.453  11.956   2.060  0.2327 -0.2275  0.6165
  289SOL    HW1 7472  12.359  11.969   2.046  0.1380 -0.5098  0.9585
  289SOL    HW2 7473  12.457  11.884   2.123  0.6924 -0.5469  0.2224
  290SOL     OW 7474   9.407   7.425   0.787 -0.0199 -0.1553 -0.4304
  290SOL    HW1 7475   9.363   7.402   0.869 -1.1971  2.1351 -0.3460
  290SOL    HW2 7476   9.401   7.520   0.783 -0.2038 -0.2222 -3.3128
  291SOL     OW 7477   2.361   4.269   6.540 -0.0189  0.4990 -0.5531
  291SOL    HW1 7478   2.402   4.244   6.457 -0.8066 -0.7391 -0.5890
  291SOL    HW2 7479   2.268   4.247   6.529 -0.8286  3.5055 -0.5774
  292SOL     OW 7480  11.418   9.940   8.581  0.1831 -0.2434  0.5239
  292SOL    HW1 7481  11.378   9.865   8.538 -1.2891 -0.0593  1.4759
  292SOL    HW2 7482  11.436   9.909   8.670  0.3797  0.2652  0.6626
  293SOL     OW 7483   2.436   6.954  11.715 -0.3738 -0.1245  0.4768
  293SOL    HW1 7484   2.364   7.015  11.734 -0.2925 -0.3825  1.7428
  293SOL    HW2 7485   2.512   7.010  11.703 -0.7562  0.1484 -0.8148
  294SOL     OW 7486   6.774   1.614  12.235  0.4517 -0.0471  0.4536
  294SOL    HW1 7487   6.698   1.642  12.184  0.7696  0.9965  0.5294
  294SOL    HW2 7488   6.792   1.525  12.205 -0.5731 -0.1703  0.1712
  295SOL     OW 7489   1.410   3.911   2.170 -0.0126 -0.0794 -0.3583
  295SOL    HW1 7490   1.452   3.832   2.204  0.4220  0.2087 -0.2036
  295SOL    HW2 7491   1.376   3.886   2.084 -0.0898 -0.4975 -0.2072
  296SOL     OW 7492   0.630   9.578   6.832  0.3977 -0.0332 -0.0656
  296SOL    HW1 7493   0.580   9.627   6.767 -0.1882 -0.4519  0.0581
  296SOL    HW2 7494   0.564   9.542   6.891  0.8262 -0.7460 -0.0010
  297SOL     OW 7495   9.812   4.036   7.492  0.3748 -0.2361 -0.0971
  297SOL    HW1 7496   9.850   3.966   7.545  0.8415 -0.6575 -0.9739
  297SOL    HW2 7497   9.717   4.025   7.503  0.4649 -0.2112  0.7727
  298SOL     OW 7498   2.764   9.522  10.370  0.1797  0.3457 -0.7104
  298SOL    HW1 7499   2.719   9.508  10.286  1.8706 -2.2672 -1.3073
  298SOL    HW2 7500   2.847   9.564  10.346  2.6069 -4.0813 -1.1287
  299SOL     OW 7501   9.434   9.468   1.600  0.6553 -0.2505  0.4914
  299SOL    HW1 7502   9.492   9.408   1.553  1.6315  1.6294 -0.7975
  299SOL    HW2 7503   9.347   9.432   1.587  1.1424 -1.0163 -0.8719
  300SOL     OW 7504   6.935   8.318  10.707 -0.2061  0.2628 -0.2069
  300SOL    HW1 7505   7.000   8.350  10.645  0.4324  0.0591  0.3397
  300SOL    HW2 7506   6.902   8.397  10.750 -0.5363  0.3903 -0.6870
  301SOL     OW 7507   4.300   1.529   8.850 -0.1709 -0.3172 -0.0039
  301SOL    HW1 7508   4.301   1.436   8.827 -0.2845  0.3100 -2.9218
  301SOL    HW2 7509   4.225   1.538   8.909 -0.2650 -2.0361  0.1911
  302SOL     OW 7510   1.535   2.697   6.979 -0.7259 -0.5302  0.6173
  302SOL    HW1 7511   1.621   2.736   6.967 -2.1768  2.3735 -1.7630
  302SOL    HW2 7512   1.501   2.737   7.059 -0.5965 -0.1027  0.4615
  303SOL     OW 7513   1.025   6.894   5.602  0.1726  0.0626 -0.3211
  303SOL    HW1 7514   1.040   6.804   5.571 -0.9548  0.0935 -0.9787
  303SOL    HW2 7515   1.113   6.926   5.622  0.5448 -1.4366  0.6467
  304SOL     OW 7516  11.536   0.280   8.275 -0.7664 -0.0448  0.1543
  304SOL    HW1 7517  11.496   0.360   8.310 -1.2792 -0.0779 -0.3402
  304SOL    HW2 7518  11.462   0.223   8.256 -0.3657 -1.0656  1.4876
  305SOL     OW 7519   5.228   1.081   7.391  0.3611  0.0016  0.8217
  305SOL    HW1 7520   5.214   0.995   7.352 -1.1913 -0.3534  2.0352
  305SOL    HW2 7521   5.299   1.119   7.341 -1.6451 -0.2634 -2.5438
  306SOL     OW 7522   3.640   9.792  11.199  0.5365  0.2612 -0.8743
  306SOL    HW1 7523   3.677   9.865  11.149  0.2834  0.7366 -0.3710
  306SOL    HW2 7524   3.688   9.793  11.282  1.4431 -0.9566 -1.3487
  307SOL     OW 7525   6.531   7.957  10.571  0.1663  0.1919  0.3831
  307SOL    HW1 7526   6.587   7.913  10.507 -0.3683 -0.5247  0.3970
  307SOL    HW2 7527   6.581   7.954  10.653 -0.2724 -1.3552  0.6425
  308SOL     OW 7528  10.065  11.099   4.954  0.0088  0.4127  0.1912
  308SOL    HW1 7529  10.017  11.042   4.894  1.1465 -0.5282  0.1186
  308SOL    HW2 7530  10.012  11.100   5.034  0.3036 -1.3883  0.4625
  309SOL     OW 7531   8.640   3.240   3.523 -0.4459 -0.1433 -0.4215
  309SOL    HW1 7532   8.675   3.230   3.611 -0.5226  0.0508 -0.3687
  309SOL    HW2 7533   8.655   3.332   3.502 -1.2359  0.0253 -0.2638
  310SOL     OW 7534   8.954   0.416   0.257 -0.3991  0.2052 -0.4415
  310SOL    HW1 7535   8.976   0.369   0.176  0.1591  0.6874 -0.5708
  310SOL    HW2 7536   8.895   0.485   0.228 -0.0477  0.4958 -0.4645
  311SOL     OW 7537   9.496   9.743   6.670 -0.0026 -0.2751 -0.7140
  311SOL    HW1 7538   9.427   9.720   6.608 -1.7451  1.4903  0.4643
  311SOL    HW2 7539   9.471   9.699   6.752  0.2293  0.4440 -0.2524
  312SOL     OW 7540  10.603   4.898  11.150 -0.0267 -0.2472 -0.0268
  312SOL    HW1 7541  10.609   4.807  11.122  0.5302 -0.0108 -0.7116
  312SOL    HW2 7542  10.652   4.947  11.084 -1.9461  0.7789 -0.7798
  313SOL     OW 7543  10.536   7.597   3.842  0.7015  0.5150 -0.3209
  313SOL    HW1 7544  10.563   7.590   3.751 -0.0826 -0.3950 -0.4917
  313SOL    HW2 7545  10.496   7.512   3.863 -0.2248  1.1262  0.5094
  314SOL     OW 7546   1.629   4.272   4.471 -0.1134 -0.1738 -0.5597
  314SOL    HW1 7547   1.564   4.224   4.420  1.4874 -0.7983 -2.1335
  314SOL    HW2 7548   1.601   4.262   4.561 -2.1936 -0.3904 -1.1769
  315SOL     OW 7549   4.269   3.439   5.535  0.2308  0.6297  0.5181
  315SOL    HW1 7550   4.269   3.356   5.488  0.1001  0.7052  0.3817
  315SOL    HW2 7551   4.237   3.503   5.471  0.1276  0.7472  0.6839
  316SOL     OW 7552   1.345   4.417   3.321 -0.3146  0.1907  0.1834
  316SOL    HW1 7553   1.343   4.512   3.336 -1.0864  0.7543 -2.8300
  316SOL    HW2 7554   1.429   4.402   3.278 -0.3797 -0.4217  0.2705
  317SOL     OW 7555  10.248   3.033   9.684 -0.2612  0.1970 -0.1715
  317SOL    HW1 7556  10.238   3.118   9.643  0.5571  0.2722 -0.2452
  317SOL    HW2 7557  10.186   3.033   9.756 -0.5159  0.7134 -0.3839
  318SOL     OW 7558   4.805   4.806   6.894 -0.0067 -0.1434 -0.5552
  318SOL    HW1 7559   4.773   4.880   6.842  1.8860  0.3768 -1.0698
  318SOL    HW2 7560   4.728   4.751   6.908 -1.1652  1.1982 -1.3909
  319SOL     OW 7561  12.128  11.363   5.104 -0.5901  0.1000  0.4172
  319SOL    HW1 7562  12.186  11.437   5.126 -1.8216  1.9420 -2.0147
  319SOL    HW2 7563  12.049  11.379   5.155 -0.8216  0.4380 -0.0403
  320SOL     OW 7564   8.367   2.741   6.027 -0.2602 -0.2092  0.3239
  320SOL    HW1 7565   8.350   2.826   6.067 -0.6267 -0.3883  0.5417
  320SOL    HW2 7566   8.391   2.684   6.100  1.4653  0.0673  0.0319
  321SOL     OW 7567  10.934  12.078   8.461  0.3055 -0.0989  0.0041
  321SOL    HW1 7568  10.857  12.092   8.516  0.0925 -1.4791  0.0794
  321SOL    HW2 7569  11.004  12.125   8.506  0.2047 -1.4135  1.6339
  322SOL     OW 7570   6.870   8.020   9.616  0.2525  0.0249  0.7473
  322SOL    HW1 7571   6.938   8.054   9.675 -0.2251  1.7354  0.3632
  322SOL    HW2 7572   6.898   7.931   9.595  2.5060  0.7629  0.4124
  323SOL     OW 7573  10.216  10.145   7.617  0.4217 -0.8711  0.3014
  323SOL    HW1 7574  10.164  10.081   7.665 -0.2322  0.0160  0.8146
  323SOL    HW2 7575  10.258  10.198   7.685  3.1413 -2.3856 -0.0582
  324SOL     OW 7576  10.298   7.263   2.227 -0.2343 -0.1637  0.0121
  324SOL    HW1 7577  10.352   7.197   2.271 -1.9210 -1.5271  0.1597
  324SOL    HW2 7578  10.317   7.344   2.273  1.1665 -0.7295  0.4825
  325SOL     OW 7579   0.753   7.253   2.766 -0.2335  0.1282  0.0384
  325SOL    HW1 7580   0.769   7.168   2.725 -0.9756  0.7156 -1.5499
  325SOL    HW2 7581   0.702   7.233   2.844  2.1380 -1.1314  1.3792
  326SOL     OW 7582   9.618   8.803   2.049  0.3932  0.8305  0.5165
  326SOL    HW1 7583   9.562   8.876   2.074  0.7901  1.8426 -1.3470
  326SOL    HW2 7584   9.695   8.845   2.009  1.6631 -0.5633  1.3893
  327SOL     OW 7585   0.928   9.037  11.538 -0.0124  0.0885 -0.0028
  327SOL    HW1 7586   0.859   9.028  11.603 -2.5444 -2.9071 -2.7837
  327SOL    HW2 7587   1.009   9.017  11.585 -1.3938  0.3758  2.6566
  328SOL     OW 7588  12.230   8.088   8.660  0.4409 -0.0672  0.0581
  328SOL    HW1 7589  12.317   8.054   8.641  0.4274  0.6136 -1.3484
  328SOL    HW2 7590  12.246   8.167   8.712  0.7226  0.5292 -0.9136
  329SOL     OW 7591  12.178   8.421   0.056 -0.1604  0.6665  0.2078
  329SOL    HW1 7592  12.272   8.434   0.067 -0.3608  1.5491  0.9430
  329SOL    HW2 7593  12.140   8.442   0.141 -0.8628 -1.5387  0.5231
  330SOL     OW 7594   8.152   4.877   9.881 -0.1504  0.2393 -0.6223
  330SOL    HW1 7595   8.185   4.848   9.966 -0.3281  0.0968 -0.5990
  330SOL    HW2 7596   8.057   4.874   9.891 -0.1848  1.7428 -0.3195
  331SOL     OW 7597   0.845  11.336   3.385  0.3969 -0.0659  0.8339
  331SOL    HW1 7598   0.862  11.406   3.323 -0.2476 -0.5127  0.1305
  331SOL    HW2 7599   0.771  11.288   3.348  1.8542 -2.1479  0.4092
  332SOL     OW 7600  12.535   9.189   2.774  0.7368 -0.3989 -0.1538
  332SOL    HW1 7601  12.579   9.206   2.691  0.6951  2.4327  0.2717
  332SOL    HW2 7602  12.606   9.185   2.839  0.6304  0.8955  0.0844
  333SOL     OW 7603   7.940   9.241   5.665  0.7322  0.3271  0.6979
  333SOL    HW1 7604   8.014   9.298   5.645  1.6297 -0.8770  0.4684
  333SOL    HW2 7605   7.890   9.288   5.731 -0.0162  2.5627 -1.3115
  334SOL     OW 7606   3.209   1.792  11.020  0.4809  0.1235  0.0920
  334SOL    HW1 7607   3.205   1.783  11.115  0.3045  1.2885  0.2065
  334SOL    HW2 7608   3.182   1.882  11.003 -3.4626 -1.1350 -1.3445
  335SOL     OW 7609   2.366   7.716  10.013 -0.1832 -0.4840 -0.2283
  335SOL    HW1 7610   2.372   7.751   9.924  1.5271  0.5684  0.2610
  335SOL    HW2 7611   2.452   7.731  10.051 -1.0798 -0.2303  1.8596
  336SOL     OW 7612   0.897   4.611   9.502 -0.5777  0.0967  0.4054
  336SOL    HW1 7613   0.930   4.556   9.573 -0.5880  0.3442  0.6043
  336SOL    HW2 7614   0.970   4.615   9.439  0.5814  2.2897  1.7764
  337SOL     OW 7615   1.000   5.123  10.273  0.0184  0.3501  0.4840
  337SOL    HW1 7616   1.072   5.087  10.325  0.7889 -1.1537 -1.4825
  337SOL    HW2 7617   0.922   5.078  10.306  0.7343 -1.9540 -0.7366
  338SOL     OW 7618   4.195   7.496   7.916  0.5373 -0.1521 -0.2667
  338SOL    HW1 7619   4.277   7.534   7.948 -0.0330  0.5529  0.4076
  338SOL    HW2 7620   4.222   7.437   7.845  1.7479 -1.0945  0.9298
  339SOL     OW 7621   6.210   6.618   9.698  0.7107  0.0810  0.5246
  339SOL    HW1 7622   6.219   6.680   9.625  0.8310  1.1304  1.4069
  339SOL    HW2 7623   6.297   6.577   9.705  0.9324  0.5497  0.5709
  340SOL     OW 7624  10.664   3.181   9.591 -0.0447  0.2476 -0.1878
  340SOL    HW1 7625  10.622   3.138   9.665  0.4608  0.5426  0.2783
  340SOL    HW2 7626  10.591   3.206   9.533 -0.5409  0.9423  0.7069
  341SOL     OW 7627   1.644   9.061  10.425 -0.2929  0.0976  0.4307
  341SOL    HW1 7628   1.579   9.095  10.364 -0.9483  1.2738  1.7245
  341SOL    HW2 7629   1.685   9.139  10.462  0.3426 -0.5940  1.2210
  342SOL     OW 7630   6.231   0.589  12.063 -0.2043  0.6312 -0.1445
  342SOL    HW1 7631   6.276   0.526  12.120  0.1420  0.8008 -0.2218
  342SOL    HW2 7632   6.223   0.545  11.979 -0.8271  0.3336  0.0668
  343SOL     OW 7633   3.605   1.764   1.991  0.1791  0.1105  0.2942
  343SOL    HW1 7634   3.586   1.788   1.901  1.1778 -0.8149 -0.1856
  343SOL    HW2 7635   3.532   1.708   2.017 -0.2908  0.6621  0.2049
  344SOL     OW 7636   3.656   4.029   7.782  0.0011  0.0903  0.6875
  344SOL    HW1 7637   3.747   4.056   7.792  0.0126  0.7820 -1.0046
  344SOL    HW2 7638   3.655   3.978   7.701 -0.8162 -1.4146  1.6039
  345SOL     OW 7639   2.528   9.048   1.148  0.4942 -0.0975 -0.5042
  345SOL    HW1 7640   2.464   9.078   1.084  0.5729  0.3941 -0.3577
  345SOL    HW2 7641   2.476   9.019   1.223  0.4684  1.6762  0.2058
  346SOL     OW 7642   1.768  12.309   6.451  0.2763  0.3584 -0.2873
  346SOL    HW1 7643   1.690  12.323   6.504  0.4775 -0.7875  0.3448
  346SOL    HW2 7644   1.766  12.379   6.386 -1.5021  0.0986 -0.5555
  347SOL     OW 7645   4.635   4.718   9.300  0.3451  0.2220  0.1854
  347SOL    HW1 7646   4.635   4.756   9.388  0.3148 -1.3606  0.8966
  347SOL    HW2 7647   4.551   4.672   9.294  0.5381 -0.0461 -0.5133
  348SOL     OW 7648   6.434   9.332   4.006  0.5269  0.2057  0.2872
  348SOL    HW1 7649   6.498   9.317   4.076  1.6088  0.1235 -0.6911
  348SOL    HW2 7650   6.466   9.280   3.933 -2.0577 -1.8922  0.5269
  349SOL     OW 7651   2.907   4.502   0.138  0.5636 -0.2494  0.4720
  349SOL    HW1 7652   2.960   4.516   0.060 -0.4248 -1.0180 -0.3620
  349SOL    HW2 7653   2.962   4.448   0.195  1.1228 -0.0539  0.1225
  350SOL     OW 7654   5.282   2.224   9.688 -0.2702  0.5072 -0.4945
  350SOL    HW1 7655   5.190   2.240   9.668 -0.1197  0.2263 -1.4738
  350SOL    HW2 7656   5.309   2.300   9.740 -0.4052  1.9283 -2.3630
  351SOL     OW 7657   6.993   1.364   5.184 -0.2071 -0.0618 -0.0016
  351SOL    HW1 7658   7.011   1.294   5.246  1.9063  0.4427  0.0477
  351SOL    HW2 7659   6.965   1.319   5.104  1.3422 -1.0127 -0.0487
  352SOL     OW 7660   1.666   0.248   8.504 -0.6216 -0.1875 -0.1202
  352SOL    HW1 7661   1.746   0.198   8.522 -1.0567 -0.6950  0.4584
  352SOL    HW2 7662   1.659   0.249   8.409 -0.9654 -1.8349 -0.1319
  353SOL     OW 7663  10.438   2.606  12.004  0.3118 -0.1148 -0.1365
  353SOL    HW1 7664  10.508   2.545  12.024 -1.4838 -3.0052 -1.8759
  353SOL    HW2 7665  10.357   2.555  12.013 -1.5109  2.5947  0.2651
  354SOL     OW 7666   9.556   2.135   2.110 -0.0379 -0.6730 -0.4401
  354SOL    HW1 7667   9.605   2.073   2.164  2.1736  0.7729 -0.6349
  354SOL    HW2 7668   9.545   2.090   2.026  1.5798 -0.8308 -0.5967
  355SOL     OW 7669   6.916   8.501   8.824 -0.2162  0.0349  0.0083
  355SOL    HW1 7670   6.871   8.576   8.787  1.0483  0.6769 -0.2708
  355SOL    HW2 7671   6.884   8.496   8.914  0.0671  1.2232  0.1886
  356SOL     OW 7672   4.592   7.890  12.523  0.2731 -0.2842  0.2803
  356SOL    HW1 7673   4.637   7.901  12.440 -0.7533 -0.6879 -0.3431
  356SOL    HW2 7674   4.604   7.974  12.568 -2.0684  1.2931 -1.7384
  357SOL     OW 7675   6.278   6.358   1.085 -0.4864  0.1593  0.3815
  357SOL    HW1 7676   6.238   6.387   1.003 -0.2721  0.2497  0.3075
  357SOL    HW2 7677   6.288   6.438   1.137 -1.6287 -0.0497  0.9427
  358SOL     OW 7678   3.287   0.010   7.772  0.7322  0.2529 -0.3039
  358SOL    HW1 7679   3.364  -0.011   7.718  0.5890 -0.4775 -0.2358
  358SOL    HW2 7680   3.299   0.101   7.796  1.6589  0.1049 -0.1740
  359SOL     OW 7681   1.978   0.195   9.746  0.7034 -0.5051 -0.0924
  359SOL    HW1 7682   2.050   0.195   9.683  0.2217 -0.2604 -0.6507
  359SOL    HW2 7683   2.006   0.132   9.813  1.1274 -0.9346 -0.6578
  360SOL     OW 7684   4.071  10.731   7.010  0.1589 -0.0547 -0.0783
  360SOL    HW1 7685   3.989  10.713   7.056 -0.3195 -0.6176 -1.1241
  360SOL    HW2 7686   4.080  10.659   6.947  1.3340  0.1282 -0.1426
  361SOL     OW 7687  12.391   5.560   2.704  0.1475 -0.7957 -0.6833
  361SOL    HW1 7688  12.304   5.580   2.670  0.6603  0.3539 -1.3850
  361SOL    HW2 7689  12.444   5.544   2.626  0.6216 -1.2133 -0.2782
  362SOL     OW 7690   8.452   8.939   8.591 -0.0529 -0.3502  0.2939
  362SOL    HW1 7691   8.388   8.898   8.650 -0.2068 -1.3743 -0.5607
  362SOL    HW2 7692   8.522   8.874   8.584  0.3986  0.1622  0.0887
  363SOL     OW 7693  10.735   6.766   8.048  0.0911  0.1615 -0.2318
  363SOL    HW1 7694  10.658   6.778   7.993 -0.7414 -0.8859  0.6449
  363SOL    HW2 7695  10.700   6.735   8.131  1.3958  0.7064  0.5447
  364SOL     OW 7696   8.345   6.213   3.373  0.2496 -0.3745 -0.1201
  364SOL    HW1 7697   8.288   6.137   3.368  1.1225 -1.0490 -0.1062
  364SOL    HW2 7698   8.413   6.197   3.307  0.9523 -0.0584  0.5044
  365SOL     OW 7699   2.798   2.947  10.665 -0.5735  0.0278 -0.0435
  365SOL    HW1 7700   2.821   2.855  10.680  0.1305  0.7251  4.9688
  365SOL    HW2 7701   2.706   2.953  10.689 -0.5302  0.6729 -0.0216
  366SOL     OW 7702   5.010  12.383   4.154  0.2540  0.3037  0.0171
  366SOL    HW1 7703   5.031  12.331   4.232 -0.3533 -1.0380 -0.6761
  366SOL    HW2 7704   4.980  12.467   4.189 -0.6715 -0.5004  1.2830
  367SOL     OW 7705   2.084   2.125   7.521  0.5252 -0.4132 -0.5680
  367SOL    HW1 7706   2.178   2.137   7.525  0.3257  1.1179  0.7773
  367SOL    HW2 7707   2.055   2.131   7.612 -1.0325  1.1330 -1.0965
  368SOL     OW 7708   5.181   8.347   2.549  0.9262  0.2854 -0.4898
  368SOL    HW1 7709   5.104   8.296   2.522 -0.3035  1.5907  0.3986
  368SOL    HW2 7710   5.196   8.407   2.476  0.2135  0.9577 -0.1069
  369SOL     OW 7711   4.649   2.553   2.897 -0.6756 -0.6021 -0.7496
  369SOL    HW1 7712   4.655   2.628   2.837 -0.5437  1.2745  1.4889
  369SOL    HW2 7713   4.693   2.482   2.851  2.4619  1.6698 -1.5405
  370SOL     OW 7714   7.058   9.228  11.330  0.1877 -0.4594 -0.2775
  370SOL    HW1 7715   7.076   9.252  11.421 -0.2589 -0.3503 -0.2145
  370SOL    HW2 7716   6.966   9.252  11.317  0.8356  1.6622 -1.4428
  371SOL     OW 7717   4.308  10.985  11.676  0.8732 -0.0955 -0.1825
  371SOL    HW1 7718   4.376  10.953  11.735 -0.7929  0.6486  2.2953
  371SOL    HW2 7719   4.274  11.064  11.719 -1.2892 -0.2271 -1.5092
  372SOL     OW 7720   0.399   2.484  12.517 -0.3159  0.1320 -0.0966
  372SOL    HW1 7721   0.370   2.573  12.497  1.5179  0.1776 -3.2489
  372SOL    HW2 7722   0.322   2.441  12.553 -2.4290  1.9544 -2.1227
  373SOL     OW 7723   1.893   3.387  11.701  0.1456 -0.0853 -0.3097
  373SOL    HW1 7724   1.855   3.310  11.658  0.3720 -1.5377  1.9450
  373SOL    HW2 7725   1.846   3.395  11.783 -1.6920  3.8415 -1.5037
  374SOL     OW 7726   2.327  11.358   8.494  0.2285  0.3903  0.3482
  374SOL    HW1 7727   2.275  11.412   8.554  0.8404  2.5209 -0.8989
  374SOL    HW2 7728   2.368  11.292   8.549 -0.3098  1.4207  2.0475
  375SOL     OW 7729  12.209   0.355   8.513 -0.0521 -0.4788 -0.2225
  375SOL    HW1 7730  12.223   0.261   8.513 -1.1575 -0.6523  0.3533
  375SOL    HW2 7731  12.119   0.367   8.483  1.0370  0.5923 -3.5462
  376SOL     OW 7732   1.781   2.416  11.388 -0.1333 -0.0708  0.7120
  376SOL    HW1 7733   1.772   2.336  11.338  0.3089  0.8683 -0.9499
  376SOL    HW2 7734   1.719   2.407  11.461 -0.4202 -1.6904  0.2977
  377SOL     OW 7735   6.648   3.658   3.298 -0.1524  0.0975 -0.9547
  377SOL    HW1 7736   6.595   3.660   3.219 -1.7911 -1.5507  0.0285
  377SOL    HW2 7737   6.602   3.599   3.357  0.5865  1.8470  1.5561
  378SOL     OW 7738   2.020   4.187   7.505 -0.0415  0.1206 -0.0959
  378SOL    HW1 7739   2.038   4.176   7.411  0.7908  0.8392 -0.0340
  378SOL    HW2 7740   2.066   4.115   7.547 -1.7490 -1.1700 -0.3403
  379SOL     OW 7741  11.930  12.774   1.094 -0.1590  0.1285  0.3515
  379SOL    HW1 7742  12.007  12.777   1.036 -1.2133 -0.4127 -1.1415
  379SOL    HW2 7743  11.962  12.808   1.178  1.3488  1.3132 -0.6375
  380SOL     OW 7744   6.480   9.330   1.960 -0.2728  0.1925  1.0146
  380SOL    HW1 7745   6.512   9.345   1.871  1.1205  1.5166  1.7021
  380SOL    HW2 7746   6.525   9.251   1.989 -1.8521 -1.1317  0.0832
  381SOL     OW 7747   7.969   9.591   9.401 -0.3020  0.3182  0.7221
  381SOL    HW1 7748   7.978   9.684   9.383  0.4648  0.5115  1.9976
  381SOL    HW2 7749   7.895   9.585   9.462 -1.3044 -0.0804 -0.4812
  382SOL     OW 7750   2.269   9.213   3.465  0.0482 -0.1593 -0.1657
  382SOL    HW1 7751   2.193   9.271   3.472 -0.0342  0.4634 -4.0784
  382SOL    HW2 7752   2.336   9.257   3.517 -1.1098  1.4385  0.0704
  383SOL     OW 7753   9.989  11.991   4.299  0.0213 -0.3041  0.3881
  383SOL    HW1 7754  10.016  11.913   4.348 -0.1835 -1.3122 -1.0379
  383SOL    HW2 7755  10.068  12.018   4.251  0.5072  1.2793  1.9662
  384SOL     OW 7756   0.537  12.044   2.001  0.7806  0.3899  0.0615
  384SOL    HW1 7757   0.533  11.969   2.060 -0.3174 -0.2919 -0.8387
  384SOL    HW2 7758   0.446  12.073   1.995  1.4471  3.9267  3.0000
  385SOL     OW 7759  10.975   3.203   1.824  0.8813 -0.1485  0.1560
  385SOL    HW1 7760  10.982   3.127   1.881 -2.1535 -1.0373 -0.4458
  385SOL    HW2 7761  10.984   3.168   1.735 -0.6005  0.1191 -0.1328
  386SOL     OW 7762   0.347   2.911   5.207  0.0093 -0.6381  0.2230
  386SOL    HW1 7763   0.324   2.962   5.130  1.9021 -1.0605 -0.6720
  386SOL    HW2 7764   0.313   2.824   5.190 -2.0597 -0.0776  1.1706
  387SOL     OW 7765   0.514   0.135   4.431  0.6288  0.0623 -0.1866
  387SOL    HW1 7766   0.580   0.163   4.494 -0.6909 -0.5117  1.5332
  387SOL    HW2 7767   0.457   0.211   4.420  0.4005 -0.0889 -0.0576
  388SOL     OW 7768   0.818   7.822   8.378  0.1306  0.6771  0.0981
  388SOL    HW1 7769   0.766   7.901   8.362 -0.4211  0.1532 -0.7525
  388SOL    HW2 7770   0.763   7.750   8.348  0.4655 -0.0756  1.2505
  389SOL     OW 7771   0.896   0.713  12.264 -0.4812 -0.1094  0.3338
  389SOL    HW1 7772   0.887   0.678  12.175  0.1216  1.1732 -0.2553
  389SOL    HW2 7773   0.950   0.791  12.254  0.0883 -0.2620  1.9228
  390SOL     OW 7774   1.080   5.653  12.380  0.0319  0.2033  0.0586
  390SOL    HW1 7775   1.113   5.640  12.291 -0.7282  0.5536 -0.2802
  390SOL    HW2 7776   1.116   5.738  12.407  0.4309  0.0017  0.1666
  391SOL     OW 7777   2.552   0.905   9.037 -0.1679  0.0568 -0.6263
  391SOL    HW1 7778   2.636   0.861   9.045 -0.1864  0.2608  1.2974
  391SOL    HW2 7779   2.559   0.959   8.959  1.1986 -0.5336 -0.9247
  392SOL     OW 7780   1.644  12.288  10.984 -0.2624 -0.0769  0.0516
  392SOL    HW1 7781   1.553  12.277  11.012  0.4755 -0.4007  2.5596
  392SOL    HW2 7782   1.680  12.354  11.043  1.1992 -0.1411 -0.7278
  393SOL     OW 7783   1.486  10.343   2.983 -0.0128 -0.2088 -0.4422
  393SOL    HW1 7784   1.438  10.426   2.987  0.7825  0.3348 -1.4916
  393SOL    HW2 7785   1.436  10.290   2.920 -0.4924 -0.5110  0.1895
  394SOL     OW 7786  10.297   4.948   0.342 -0.1796  0.0126 -0.1006
  394SOL    HW1 7787  10.205   4.932   0.366 -0.1842  0.0792 -0.0720
  394SOL    HW2 7788  10.292   5.006   0.265 -0.1580  0.1966  0.0363
  395SOL     OW 7789   6.112   0.876   2.082 -0.1359  0.2861 -0.5385
  395SOL    HW1 7790   6.093   0.945   2.018  0.5426 -0.5040 -1.6240
  395SOL    HW2 7791   6.038   0.816   2.074 -0.8946  1.0070  0.6411
  396SOL     OW 7792   9.151   5.281  12.131  0.6040  0.3122 -0.3172
  396SOL    HW1 7793   9.178   5.212  12.071  3.7147  1.1990 -0.1220
  396SOL    HW2 7794   9.092   5.336  12.080 -0.7778 -1.6080 -0.9141
  397SOL     OW 7795  11.509  11.073   1.078 -0.2897  0.5501 -0.4073
  397SOL    HW1 7796  11.468  10.989   1.098  0.1194  0.3791 -0.2838
  397SOL    HW2 7797  11.446  11.139   1.108 -0.2975  0.2925  0.1354
  398SOL     OW 7798   5.781   4.761   9.824  0.3669 -0.2619 -0.2990
  398SOL    HW1 7799   5.745   4.699   9.760 -1.4895 -0.5996  0.9911
  398SOL    HW2 7800   5.708   4.821   9.841  0.9835  0.1057  1.1382
  399SOL     OW 7801   2.776  11.471   7.447  0.2827  0.5610  0.7130
  399SOL    HW1 7802   2.871  11.467   7.438  0.2627  1.7171 -0.2857
  399SOL    HW2 7803   2.742  11.454   7.359 -0.5692 -1.9790  1.4213
  400SOL     OW 7804  12.474   9.794   9.192  0.2528  0.0236 -0.4013
  400SOL    HW1 7805  12.546   9.737   9.163 -0.1527 -0.3226 -0.7466
  400SOL    HW2 7806  12.446   9.756   9.275  0.4598  0.1507 -0.2733
  401SOL     OW 7807   5.231   5.038   8.698 -0.5900 -0.4104 -0.4590
  401SOL    HW1 7808   5.185   5.118   8.671 -2.4276 -1.5239 -0.7894
  401SOL    HW2 7809   5.209   5.027   8.790 -0.4691 -0.6410 -0.4573
  402SOL     OW 7810  12.218   3.913  10.254 -0.2042  0.6384  0.0238
  402SOL    HW1 7811  12.226   3.984  10.318  2.1659  2.1621 -1.7572
  402SOL    HW2 7812  12.287   3.851  10.280 -1.0607 -0.1386  0.4974
  403SOL     OW 7813   2.159  10.362   6.564 -0.3354 -0.0146 -0.2336
  403SOL    HW1 7814   2.129  10.432   6.507  1.2235  0.0425 -1.0395
  403SOL    HW2 7815   2.209  10.406   6.633 -0.5887 -0.2371  0.1004
  404SOL     OW 7816  11.777   2.828   3.788  0.9978  0.3146 -0.0187
  404SOL    HW1 7817  11.841   2.890   3.821  1.8295 -0.5923  0.1136
  404SOL    HW2 7818  11.775   2.758   3.854  0.1023  0.1811 -0.1696
  405SOL     OW 7819  10.123   4.083  10.389 -0.6607  0.0414  0.3963
  405SOL    HW1 7820  10.089   4.152  10.332 -0.3969  0.3549  0.6170
  405SOL    HW2 7821  10.044   4.039  10.423 -0.8252  0.1072  0.1081
  406SOL     OW 7822   8.760  11.050   6.334  0.4018  0.1069  0.8856
  406SOL    HW1 7823   8.789  11.141   6.340  0.1888  0.3951 -1.4155
  406SOL    HW2 7824   8.673  11.055   6.294  1.1763 -1.1408 -1.0804
  407SOL     OW 7825  12.055   0.566  12.088  0.5025 -0.3724  0.0125
  407SOL    HW1 7826  12.111   0.623  12.035  0.0214 -0.9686 -1.1762
  407SOL    HW2 7827  11.984   0.623  12.117  0.7013 -0.0654 -0.0917
  408SOL     OW 7828   9.313   7.519   8.955 -0.0178 -0.2978 -0.1309
  408SOL    HW1 7829   9.224   7.520   8.920 -0.5217 -1.5393  1.0769
  408SOL    HW2 7830   9.339   7.612   8.955 -1.2495  0.0698 -0.5843
  409SOL     OW 7831   2.234   2.341   4.693  0.7043 -0.1892 -0.9486
  409SOL    HW1 7832   2.195   2.254   4.697 -0.8886  0.5483  1.6040
  409SOL    HW2 7833   2.309   2.337   4.752  0.8752  0.0832 -1.1397
  410SOL     OW 7834  11.024   0.367   8.427  0.2880  0.0641 -0.0473
  410SOL    HW1 7835  11.098   0.308   8.440  0.3865  0.1568 -0.1734
  410SOL    HW2 7836  10.996   0.351   8.337 -1.1830 -1.4686  0.6489
  411SOL     OW 7837   8.675  10.218   9.685 -0.1604  0.0106  0.2429
  411SOL    HW1 7838   8.642  10.281   9.750 -0.0598  1.3776 -0.9746
  411SOL    HW2 7839   8.752  10.261   9.648 -0.2624 -0.7058 -0.8393
  412SOL     OW 7840   4.700   5.167   8.101  0.3304 -0.2043 -0.0438
  412SOL    HW1 7841   4.761   5.234   8.132  0.8647  0.2731 -1.9808
  412SOL    HW2 7842   4.702   5.176   8.006  0.6234 -3.1402 -0.3923
  413SOL     OW 7843   5.049  10.805   4.685  0.1691 -0.2684 -0.2977
  413SOL    HW1 7844   5.040  10.839   4.596  1.1909 -0.8809 -0.6590
  413SOL    HW2 7845   5.112  10.864   4.727 -1.4454  0.9242  0.5316
  414SOL     OW 7846   5.829   0.357   4.029  0.2498 -0.7932 -0.2595
  414SOL    HW1 7847   5.897   0.397   3.974  0.7572 -1.2209  0.0438
  414SOL    HW2 7848   5.873   0.283   4.070 -0.4045 -1.0652 -0.0434
  415SOL     OW 7849   1.617   8.384   4.651 -0.4165 -0.5915  0.2046
  415SOL    HW1 7850   1.568   8.395   4.733 -0.4218  0.2623  0.0970
  415SOL    HW2 7851   1.586   8.301   4.616 -0.3136 -1.0323  1.1360
  416SOL     OW 7852  12.097   2.246   5.333 -0.1546  0.0823  0.9728
  416SOL    HW1 7853  12.009   2.214   5.313  0.0502  0.6733 -1.1097
  416SOL    HW2 7854  12.154   2.201   5.270  0.8111  0.8835  1.2377
  417SOL     OW 7855   1.320  11.758   0.080  0.1573 -0.3298  0.0783
  417SOL    HW1 7856   1.243  11.714   0.043 -1.9183  2.4754  0.6795
  417SOL    HW2 7857   1.394  11.705   0.052 -1.9181 -2.7700 -1.2121
  418SOL     OW 7858   8.111   7.787  11.158 -0.9071 -0.8262 -0.0785
  418SOL    HW1 7859   8.164   7.818  11.231 -0.1048  0.9030 -1.3062
  418SOL    HW2 7860   8.159   7.712  11.123  0.4831  0.3521 -0.7989
  419SOL     OW 7861   3.725   0.902   0.227 -0.5156 -0.4571 -1.0765
  419SOL    HW1 7862   3.820   0.899   0.225 -0.5470 -2.0126 -2.0122
  419SOL    HW2 7863   3.697   0.840   0.159 -2.1797 -1.2933  0.2702
  420SOL     OW 7864   3.431   2.755  12.744 -0.8762 -0.5495 -0.1210
  420SOL    HW1 7865   3.521   2.744  12.776 -0.4014  0.8442 -0.8667
  420SOL    HW2 7866   3.441   2.806  12.664 -2.4686  1.6107  0.9539
  421SOL     OW 7867   3.014   2.384   7.509 -0.0349 -0.1576 -0.3860
  421SOL    HW1 7868   2.995   2.325   7.437  2.0779  0.3318 -1.4246
  421SOL    HW2 7869   3.104   2.365   7.533 -0.1344  0.8997  0.9810
  422SOL     OW 7870   3.345   7.524   8.245  0.1920  0.0685  0.1306
  422SOL    HW1 7871   3.419   7.571   8.283  3.4324 -3.2769 -1.4658
  422SOL    HW2 7872   3.329   7.569   8.162 -1.4605  2.3673  1.5733
  423SOL     OW 7873  11.617   1.324   7.957 -0.0102 -0.5699 -0.3983
  423SOL    HW1 7874  11.559   1.288   7.890 -0.9589  1.8818 -1.0034
  423SOL    HW2 7875  11.704   1.321   7.916 -0.5049  0.4381 -1.6072
  424SOL     OW 7876  11.554  12.264   8.581  0.4903 -0.4587 -0.1171
  424SOL    HW1 7877  11.565  12.269   8.486 -0.4754  0.8430 -0.1781
  424SOL    HW2 7878  11.559  12.355   8.611 -1.3837 -0.6251  0.8196
  425SOL     OW 7879  10.621   9.887   7.025  0.1005 -0.5700  0.1347
  425SOL    HW1 7880  10.679   9.934   7.084 -0.0783  0.2911 -0.3696
  425SOL    HW2 7881  10.534   9.897   7.064 -0.2633  1.3267 -1.0467
  426SOL     OW 7882   9.416  11.409   5.476 -0.2480 -0.1500 -0.2672
  426SOL    HW1 7883   9.361  11.341   5.514  1.0463  0.0951  2.3166
  426SOL    HW2 7884   9.375  11.491   5.503 -0.7869  0.1039 -1.7888
  427SOL     OW 7885   5.960  10.630  12.082  0.6605 -0.9705  0.0272
  427SOL    HW1 7886   5.921  10.551  12.045 -0.6231  0.4782 -1.8731
  427SOL    HW2 7887   5.997  10.676  12.007  2.4985 -0.3176  1.2565
  428SOL     OW 7888   0.222   0.598   6.766 -0.7812 -0.2170 -0.3527
  428SOL    HW1 7889   0.272   0.557   6.837  2.2264  1.1496 -1.5067
  428SOL    HW2 7890   0.226   0.534   6.695 -0.4679 -0.0128 -0.5198
  429SOL     OW 7891   1.412   7.061  11.799 -0.3223 -0.1613 -0.3827
  429SOL    HW1 7892   1.347   7.131  11.803 -0.7195 -0.5061 -0.6246
  429SOL    HW2 7893   1.494   7.102  11.826 -0.4984  0.4554 -0.7653
  430SOL     OW 7894   0.512   3.905   6.172 -0.5992  0.0078 -0.2985
  430SOL    HW1 7895   0.579   3.973   6.183  0.1403 -0.3067 -2.3084
  430SOL    HW2 7896   0.553   3.841   6.113 -1.2596 -2.2536  1.5432
  431SOL     OW 7897  12.735   1.126   9.779 -0.4352 -0.4104 -0.3572
  431SOL    HW1 7898  12.740   1.040   9.738  0.3885  0.4250 -2.1229
  431SOL    HW2 7899  12.685   1.180   9.717 -1.5098  0.2457  1.0150
  432SOL     OW 7900   3.911   3.943   6.495 -0.2328 -0.1101 -0.0696
  432SOL    HW1 7901   3.966   3.888   6.439  1.2669  2.8890 -1.7461
  432SOL    HW2 7902   3.960   3.953   6.576 -0.5783 -1.2471  0.3039
  433SOL     OW 7903   9.635   1.623   4.672  0.2361 -0.1707 -0.1228
  433SOL    HW1 7904   9.568   1.654   4.734 -0.0875 -3.8477  1.6343
  433SOL    HW2 7905   9.706   1.592   4.728  2.4009  1.2853 -1.8987
  434SOL     OW 7906   1.057   6.847   1.869  0.6181  0.0957  0.0259
  434SOL    HW1 7907   1.042   6.941   1.873 -0.6318 -0.0548 -0.4959
  434SOL    HW2 7908   1.136   6.837   1.816  1.4556  0.8831  1.0951
  435SOL     OW 7909  11.462   8.429   2.314 -0.1973  0.3620 -0.1159
  435SOL    HW1 7910  11.541   8.467   2.277  0.7093 -1.3638 -0.0598
  435SOL    HW2 7911  11.442   8.483   2.391  1.9628 -0.1809  0.9018
  436SOL     OW 7912   0.439  10.620   1.047  0.1264 -0.3043 -0.2799
  436SOL    HW1 7913   0.472  10.597   0.960 -0.3142  0.2952 -0.6150
  436SOL    HW2 7914   0.371  10.555   1.065 -0.6589  0.3074 -0.9384
  437SOL     OW 7915   0.497  10.217  10.732 -0.0129 -0.1626 -0.2787
  437SOL    HW1 7916   0.510  10.123  10.737  0.7852 -0.0350  0.1086
  437SOL    HW2 7917   0.577  10.251  10.692 -0.5913  0.2807 -1.0960
  438SOL     OW 7918  12.417   1.329   2.819 -0.8588 -0.8466  0.4579
  438SOL    HW1 7919  12.383   1.244   2.791 -0.0419 -1.0909  0.1659
  438SOL    HW2 7920  12.442   1.373   2.737  0.4294 -1.0838  0.6950
  439SOL     OW 7921   3.264   9.403  10.405 -0.6902 -0.0516  0.3117
  439SOL    HW1 7922   3.188   9.398  10.347 -0.8192  1.3616  0.3465
  439SOL    HW2 7923   3.302   9.315  10.402 -1.7380 -0.4890 -0.4964
  440SOL     OW 7924   3.679   6.160   4.171 -0.3473 -0.0003  0.1925
  440SOL    HW1 7925   3.628   6.106   4.232  0.3359 -1.2738 -0.3235
  440SOL    HW2 7926   3.679   6.247   4.211  0.1549 -0.8093  2.0777
  441SOL     OW 7927   7.034   5.834   6.396 -0.1066 -0.8449 -0.7429
  441SOL    HW1 7928   6.971   5.815   6.466 -0.7838  0.4422 -0.9754
  441SOL    HW2 7929   7.099   5.891   6.437 -0.2522 -0.4631 -1.0374
  442SOL     OW 7930   6.599  10.885   9.849  0.1466  0.0498  0.2114
  442SOL    HW1 7931   6.550  10.851   9.924  0.0276 -0.3218 -0.0267
  442SOL    HW2 7932   6.544  10.862   9.773 -0.2997  1.4269  0.0860
  443SOL     OW 7933   0.470   6.696   7.533  0.3429 -0.6886 -0.0475
  443SOL    HW1 7934   0.547   6.738   7.496 -0.0890 -0.2473 -0.4647
  443SOL    HW2 7935   0.402   6.707   7.466 -0.8932  1.4614  1.4144
  444SOL     OW 7936  11.306   4.240   9.982  0.4748 -0.3570 -0.5662
  444SOL    HW1 7937  11.222   4.269  10.016  0.8955  0.3359 -0.1052
  444SOL    HW2 7938  11.285   4.162   9.931 -0.3368 -0.6529  0.1993
  445SOL     OW 7939   4.403   0.072  10.483  0.1782 -0.3903 -0.4664
  445SOL    HW1 7940   4.444  -0.004  10.524 -0.0245 -0.6190 -0.6816
  445SOL    HW2 7941   4.436   0.147  10.532 -0.4336 -0.6962  0.4404
  446SOL     OW 7942   0.338   0.003   5.282 -0.1617 -0.1290  0.3267
  446SOL    HW1 7943   0.290  -0.004   5.364 -0.0729  1.2533  0.5262
  446SOL    HW2 7944   0.407   0.068   5.300 -0.7981  0.9946 -1.1133
  447SOL     OW 7945  11.934   3.206   5.246 -0.2873 -0.4290 -0.0634
  447SOL    HW1 7946  11.927   3.288   5.197 -2.3020  0.2776  1.2636
  447SOL    HW2 7947  12.012   3.216   5.300  0.3112 -0.0219 -0.9921
  448SOL     OW 7948   6.086   4.719   2.035 -0.1247  0.5926 -0.4090
  448SOL    HW1 7949   6.145   4.694   1.963  1.7726  0.0421  1.2351
  448SOL    HW2 7950   6.120   4.803   2.065 -2.1997  1.8704 -1.4259
  449SOL     OW 7951   3.114   1.154   8.303  0.0124 -0.6539  0.0027
  449SOL    HW1 7952   3.075   1.098   8.236 -0.5160 -1.4866  0.9676
  449SOL    HW2 7953   3.039   1.189   8.351  0.2809  1.5707 -1.0631
  450SOL     OW 7954   1.700   6.757  10.095 -0.3268  0.2771  0.1114
  450SOL    HW1 7955   1.695   6.681  10.037 -1.8812 -0.7692  1.4984
  450SOL    HW2 7956   1.681   6.721  10.182  2.2703  1.7187  1.3641
  451SOL     OW 7957   3.935  12.271   1.461  0.5082 -0.7821  0.3683
  451SOL    HW1 7958   3.944  12.227   1.546  1.4492 -1.3810 -0.0216
  451SOL    HW2 7959   3.846  12.252   1.433  0.0005 -0.1108  1.4669
  452SOL     OW 7960   9.840  11.728  11.783  0.2361  0.2811  0.2367
  452SOL    HW1 7961   9.907  11.734  11.851  0.3501 -1.2093  0.3084
  452SOL    HW2 7962   9.782  11.802  11.800  1.7144  1.4595  0.3159
  453SOL     OW 7963  12.681   4.171   3.154 -0.1832  0.4692  0.3990
  453SOL    HW1 7964  12.689   4.199   3.245  0.0623  0.4994  0.3692
  453SOL    HW2 7965  12.638   4.085   3.158 -0.5599  0.6592  0.5157
  454SOL     OW 7966   2.859   5.614  10.350  0.0839 -0.4722 -0.1712
  454SOL    HW1 7967   2.830   5.703  10.372  1.7630 -0.0331  0.4311
  454SOL    HW2 7968   2.951   5.624  10.327 -0.1218 -1.8390 -1.7607
  455SOL     OW 7969  11.007   6.356   2.038  0.3074 -0.5727  0.0901
  455SOL    HW1 7970  11.075   6.289   2.052  0.5263 -0.9745 -2.4662
  455SOL    HW2 7971  11.048   6.420   1.980 -0.8106  0.3447  0.2781
  456SOL     OW 7972   2.159  11.223   0.591 -0.3976 -0.8253  0.1932
  456SOL    HW1 7973   2.088  11.271   0.633 -0.9260 -2.4792  1.2902
  456SOL    HW2 7974   2.166  11.141   0.641  0.9876 -1.5489 -1.0941
  457SOL     OW 7975   6.440   4.699   0.265  0.0840  0.2426 -0.6267
  457SOL    HW1 7976   6.379   4.630   0.241 -0.5212  0.6874 -0.3989
  457SOL    HW2 7977   6.397   4.747   0.336 -1.7310  3.7513 -3.7289
  458SOL     OW 7978  11.057   8.559   4.290 -0.2495  0.2918  0.6198
  458SOL    HW1 7979  11.139   8.570   4.241 -0.6333  1.9947  0.2763
  458SOL    HW2 7980  10.995   8.528   4.224 -0.0809 -0.2322  0.7020
  459SOL     OW 7981   9.554  10.913  11.211  0.1669 -0.2070  0.2147
  459SOL    HW1 7982   9.601  10.958  11.282 -0.3630  0.3203  0.2398
  459SOL    HW2 7983   9.470  10.889  11.250 -0.5508  1.0081 -0.5158
  460SOL     OW 7984   4.451   6.402   7.255 -0.2083  0.8854 -0.6830
  460SOL    HW1 7985   4.507   6.434   7.184 -1.1798 -2.7809 -3.4787
  460SOL    HW2 7986   4.369   6.378   7.211 -1.4993 -0.0863  2.0097
  461SOL     OW 7987   1.982   3.706   2.525 -0.1664 -0.5103  0.6407
  461SOL    HW1 7988   2.012   3.754   2.602  0.9842  1.2056 -0.8097
  461SOL    HW2 7989   1.977   3.772   2.456  1.1620 -2.4160 -1.3783
  462SOL     OW 7990  12.299   0.607  11.524 -0.0237 -0.4657  0.0094
  462SOL    HW1 7991  12.259   0.588  11.609 -1.0860  0.7039 -0.1929
  462SOL    HW2 7992  12.261   0.691  11.498 -1.7330 -1.9320 -2.7880
  463SOL     OW 7993   8.745   0.753  11.095  0.2679  0.1531 -0.4248
  463SOL    HW1 7994   8.723   0.812  11.167 -0.2213  0.1122 -0.5400
  463SOL    HW2 7995   8.754   0.667  11.136  1.0192  0.3045 -0.2511
  464SOL     OW 7996   1.169  12.520   6.495  0.1019 -0.3193  0.0050
  464SOL    HW1 7997   1.171  12.512   6.590 -1.3158  3.5773  0.5504
  464SOL    HW2 7998   1.260  12.536   6.470  0.0321  2.7156  1.3500
  465SOL     OW 7999   4.166   9.057  12.155 -0.7458  0.5199 -0.0861
  465SOL    HW1 8000   4.231   9.003  12.197  0.6558  2.7855  0.8284
  465SOL    HW2 8001   4.101   9.074  12.223 -0.3158  1.3019  0.1411
  466SOL     OW 8002   8.359   2.054   4.302  0.7091  0.2196 -0.3226
  466SOL    HW1 8003   8.379   2.084   4.391  0.9015  1.3104 -0.7235
  466SOL    HW2 8004   8.267   2.078   4.289  1.5788  3.2600 -1.6321
  467SOL     OW 8005   2.516  10.230  12.660 -0.2774 -0.3113  0.5268
  467SOL    HW1 8006   2.424  10.238  12.633  0.0395  0.8776 -0.3093
  467SOL    HW2 8007   2.549  10.155  12.611 -0.0913  0.9650 -1.4125
  468SOL     OW 8008   8.030  10.759   0.564 -0.4565  0.4817  0.3405
  468SOL    HW1 8009   8.066  10.728   0.481 -3.3349  0.9157 -1.1809
  468SOL    HW2 8010   8.086  10.833   0.589  1.6108 -0.8319 -0.1300
  469SOL     OW 8011   9.320   7.335   5.801 -0.1373  0.0655 -0.2155
  469SOL    HW1 8012   9.338   7.377   5.885 -0.8096  2.4010 -1.1375
  469SOL    HW2 8013   9.379   7.380   5.740 -1.2869  0.0859 -1.3561
  470SOL     OW 8014  11.630   7.586  11.612  0.1992  0.1366  0.8262
  470SOL    HW1 8015  11.653   7.495  11.591 -0.4190  0.0582  0.4851
  470SOL    HW2 8016  11.715   7.628  11.629  0.7100  0.0570 -1.2404
  471SOL     OW 8017   5.468   2.946   6.821 -0.7587  0.2381  0.3340
  471SOL    HW1 8018   5.403   2.900   6.873 -0.0285  0.5655  1.5731
  471SOL    HW2 8019   5.539   2.883   6.809 -0.3321  0.6066  0.9051
  472SOL     OW 8020   6.065   5.572   3.363 -0.3205 -0.7587 -0.2060
  472SOL    HW1 8021   6.079   5.478   3.376  3.1001 -0.6042 -1.5767
  472SOL    HW2 8022   6.090   5.588   3.272 -3.2790  1.1861 -0.8243
  473SOL     OW 8023   4.142   7.855   8.539  0.4771 -0.5187  0.4469
  473SOL    HW1 8024   4.226   7.900   8.547 -1.0306  2.4417  1.0617
  473SOL    HW2 8025   4.090   7.887   8.613 -1.8685 -0.6519 -1.0384
  474SOL     OW 8026   1.992   4.754   0.386  0.1920 -0.7346  0.2027
  474SOL    HW1 8027   1.913   4.707   0.412 -0.2512  0.7171  1.6836
  474SOL    HW2 8028   1.978   4.844   0.416  1.7910 -0.0843 -0.8325
  475SOL     OW 8029   8.710   5.551  11.086  0.3424 -0.2237  0.2786
  475SOL    HW1 8030   8.629   5.540  11.137  0.2826  0.0373  0.2422
  475SOL    HW2 8031   8.705   5.640  11.052  1.0763  0.1145  1.0201
  476SOL     OW 8032   6.697   3.234   9.912 -0.2640  0.3741  0.3816
  476SOL    HW1 8033   6.613   3.274   9.937 -0.8904 -0.4738 -0.2805
  476SOL    HW2 8034   6.682   3.140   9.921  0.8467  0.2396  0.9010
  477SOL     OW 8035   6.779   0.726   8.614 -0.2355 -0.1488 -0.5858
  477SOL    HW1 8036   6.788   0.817   8.643 -0.0718 -0.0914 -0.8136
  477SOL    HW2 8037   6.687   0.705   8.630  0.0188 -0.3624  0.6860
  478SOL     OW 8038  12.543   9.113   0.053 -0.3957 -0.5190 -0.1194
  478SOL    HW1 8039  12.494   9.071   0.124 -0.4640  1.2885  0.9692
  478SOL    HW2 8040  12.477   9.136  -0.012 -0.6103 -0.4289  0.1303
  479SOL     OW 8041   5.490  10.862   0.223  0.0717  0.0149  0.9641
  479SOL    HW1 8042   5.447  10.925   0.166  3.2855 -0.1313 -1.9562
  479SOL    HW2 8043   5.491  10.780   0.172 -1.5486 -1.7215  3.5047
  480SOL     OW 8044   8.671   0.150   3.093  0.5306 -0.1097  0.1524
  480SOL    HW1 8045   8.612   0.089   3.137  0.1151  0.2604  0.1088
  480SOL    HW2 8046   8.665   0.230   3.145  0.4401  0.1615 -0.2748
  481SOL     OW 8047   4.655  10.493  12.151 -0.7521  0.0706  0.5789
  481SOL    HW1 8048   4.741  10.505  12.193 -0.4003  0.1593 -0.1479
  481SOL    HW2 8049   4.659  10.404  12.115 -1.3644 -0.3186  1.4186
  482SOL     OW 8050   5.589  11.125   7.907 -0.0219 -0.3543 -0.5864
  482SOL    HW1 8051   5.576  11.145   7.999  1.2743 -2.4055  0.0993
  482SOL    HW2 8052   5.515  11.067   7.885  0.9598 -1.8334 -0.1260
  483SOL     OW 8053   8.436   1.559   3.736 -0.0130 -0.1354  0.0270
  483SOL    HW1 8054   8.417   1.643   3.778  0.3909  0.6418 -1.3115
  483SOL    HW2 8055   8.465   1.503   3.808  0.3939  1.0829  0.8384
  484SOL     OW 8056  10.554   3.180   4.084  0.1924 -0.1336 -0.6744
  484SOL    HW1 8057  10.603   3.254   4.050 -0.9714  1.3240  0.6716
  484SOL    HW2 8058  10.503   3.148   4.009  0.9410  0.2178 -1.3373
  485SOL     OW 8059   9.619  11.482   1.636  0.1065 -0.2845  0.0417
  485SOL    HW1 8060   9.662  11.459   1.554 -0.9956 -0.2618 -0.5489
  485SOL    HW2 8061   9.626  11.403   1.690 -2.0737 -1.4966 -1.3169
  486SOL     OW 8062   6.571   6.304   6.199  0.0758  0.4397 -0.1637
  486SOL    HW1 8063   6.496   6.346   6.158 -0.0100 -0.0331 -0.5028
  486SOL    HW2 8064   6.617   6.375   6.244 -0.2404  0.8369 -0.4599
  487SOL     OW 8065  12.537   5.185   3.267 -0.1811 -0.3290 -0.1161
  487SOL    HW1 8066  12.504   5.127   3.198  0.3077 -1.2428  0.3810
  487SOL    HW2 8067  12.489   5.158   3.345  0.8441 -0.8553  0.3568
  488SOL     OW 8068   9.476   3.678   1.323  0.3544 -0.5509 -0.0617
  488SOL    HW1 8069   9.421   3.602   1.343  2.0909 -1.3414  2.1393
  488SOL    HW2 8070   9.430   3.752   1.362 -0.4113 -0.7566 -0.5481
  489SOL     OW 8071   1.809   5.886   8.861 -0.0288 -0.3207 -0.4497
  489SOL    HW1 8072   1.718   5.885   8.889  0.9178  0.5389  3.2551
  489SOL    HW2 8073   1.859   5.881   8.942  3.3039 -2.2338 -2.3759
  490SOL     OW 8074   8.319   0.348   8.867 -0.0935  0.6320  0.8065
  490SOL    HW1 8075   8.371   0.429   8.863  2.8450 -1.0154  2.6377
  490SOL    HW2 8076   8.254   0.365   8.936  0.9405  1.2258  1.6671
  491SOL     OW 8077  11.134   1.099   8.508 -0.3389 -0.0487 -0.6111
  491SOL    HW1 8078  11.052   1.050   8.509 -0.9159  0.7470 -2.8890
  491SOL    HW2 8079  11.166   1.090   8.419  0.0216  2.8660 -0.8746
  492SOL     OW 8080  11.766   1.181  11.041  0.5541  0.2977 -0.4805
  492SOL    HW1 8081  11.799   1.092  11.048 -0.2127  0.0716  0.3579
  492SOL    HW2 8082  11.679   1.178  11.081  1.8530  2.1461  2.8981
  493SOL     OW 8083   5.327   1.930  12.235 -0.0430  0.0596  0.1445
  493SOL    HW1 8084   5.317   1.965  12.146  1.9831 -0.8453 -0.5025
  493SOL    HW2 8085   5.420   1.908  12.242 -0.3715 -0.9566  2.1118
  494SOL     OW 8086   6.442   5.314  12.325  0.3582  0.0588  0.1166
  494SOL    HW1 8087   6.537   5.307  12.341  0.2046  0.5584  1.3448
  494SOL    HW2 8088   6.425   5.408  12.325 -0.1728 -0.0371  0.1633
  495SOL     OW 8089  10.825   0.099   4.507  0.5328 -0.9512 -0.2037
  495SOL    HW1 8090  10.864   0.178   4.545  0.1081  0.0295 -1.7185
  495SOL    HW2 8091  10.845   0.030   4.570 -0.7193  0.6861  2.1476
  496SOL     OW 8092   5.001   2.900   5.707  0.5208  0.1397 -0.4060
  496SOL    HW1 8093   5.051   2.818   5.696  0.2103  0.0170 -0.9515
  496SOL    HW2 8094   5.068   2.967   5.719  0.9329  0.2087 -2.6080
  497SOL     OW 8095   4.267   7.979   2.497  0.9018 -0.2100  0.2135
  497SOL    HW1 8096   4.321   8.049   2.534 -0.3603  0.6999  0.3795
  497SOL    HW2 8097   4.326   7.903   2.493  2.3978  0.9356 -0.3137
  498SOL     OW 8098  11.237  12.492  10.772  0.1243  0.1252 -0.5232
  498SOL    HW1 8099  11.180  12.531  10.706 -1.8764 -1.4168  0.1859
  498SOL    HW2 8100  11.304  12.446  10.721 -0.6788 -0.0383 -1.4536
  499SOL     OW 8101   0.948  11.938   3.221 -0.0708 -0.4316 -0.9929
  499SOL    HW1 8102   1.041  11.920   3.232  0.1097 -0.1005 -1.8226
  499SOL    HW2 8103   0.928  11.906   3.133 -0.5997  0.0286 -1.0460
  500SOL     OW 8104  10.419  10.897   2.475  0.2653 -0.2493  0.1801
  500SOL    HW1 8105  10.343  10.953   2.461 -0.3668 -1.0704  0.2040
  500SOL    HW2 8106  10.419  10.838   2.399  0.1624 -1.0365  0.7752
  501SOL     OW 8107   8.939   7.693   0.354 -0.3571 -1.0733 -0.4478
  501SOL    HW1 8108   8.952   7.756   0.283 -4.4134 -0.9769 -1.3368
  501SOL    HW2 8109   8.976   7.611   0.321 -1.2699 -0.7906 -2.2892
  502SOL     OW 8110   7.344   5.732   9.302  0.0112 -0.0240 -0.3619
  502SOL    HW1 8111   7.374   5.717   9.212  0.4039  0.1558 -0.2671
  502SOL    HW2 8112   7.349   5.646   9.344 -0.6751 -0.2124 -0.6512
  503SOL     OW 8113   3.452   6.745   9.014  0.0516 -0.4608 -0.8143
  503SOL    HW1 8114   3.482   6.831   9.041  0.1181 -0.7336  0.0254
  503SOL    HW2 8115   3.531   6.692   9.010 -0.0694 -0.6610 -0.6162
  504SOL     OW 8116   3.839   5.251   4.749  0.1632 -0.5866 -0.0393
  504SOL    HW1 8117   3.839   5.211   4.836  1.1436 -0.1500  0.1731
  504SOL    HW2 8118   3.836   5.345   4.766  1.4250 -0.4615 -0.4361
  505SOL     OW 8119  11.632  10.600   1.634 -0.3582  0.0070 -0.2551
  505SOL    HW1 8120  11.603  10.513   1.607  1.5338 -0.5107 -0.7733
  505SOL    HW2 8121  11.659  10.644   1.553  2.3973 -0.4218  0.3079
  506SOL     OW 8122   1.686   9.409  12.087  0.1655  0.0276 -0.1118
  506SOL    HW1 8123   1.678   9.358  12.006 -0.2371 -3.2448  1.8080
  506SOL    HW2 8124   1.611   9.382  12.140  0.2408  2.3182  1.2900
  507SOL     OW 8125   7.350   3.315   2.818  0.1220 -0.1980 -0.0888
  507SOL    HW1 8126   7.396   3.354   2.892  1.0805 -0.9645 -0.2421
  507SOL    HW2 8127   7.395   3.231   2.805 -1.5065 -1.1176 -0.0925
  508SOL     OW 8128   6.874  10.931  10.409 -0.8350 -0.3668  0.5459
  508SOL    HW1 8129   6.832  11.017  10.408 -0.3107 -0.1070  0.4899
  508SOL    HW2 8130   6.917  10.926  10.494 -0.3712 -0.3229  0.3238
  509SOL     OW 8131   0.334   7.812  10.143  0.0750 -0.5814 -0.0598
  509SOL    HW1 8132   0.402   7.747  10.161  0.5374  0.4398  2.3348
  509SOL    HW2 8133   0.276   7.807  10.219 -0.4390  1.1059 -0.3044
  510SOL     OW 8134  12.100   7.328  12.743 -0.3118  0.3394 -0.2353
  510SOL    HW1 8135  12.075   7.253  12.690 -2.4882  0.2825  0.7977
  510SOL    HW2 8136  12.128   7.291  12.826  2.0604  0.5055 -0.8808
  511SOL     OW 8137   4.594  10.083   5.539  0.3451  0.3076  0.1504
  511SOL    HW1 8138   4.673  10.116   5.497  1.4079 -0.6271  1.3280
  511SOL    HW2 8139   4.547  10.162   5.568  1.6050  0.8719  0.7491
  512SOL     OW 8140  11.212   9.758   9.672  0.2771  0.0692 -0.3860
  512SOL    HW1 8141  11.129   9.762   9.720  0.4306 -0.3343 -0.0844
  512SOL    HW2 8142  11.233   9.665   9.669  1.7217  0.3154  1.2517
  513SOL     OW 8143   7.976   1.485   8.543  0.1482  0.4912  0.0010
  513SOL    HW1 8144   7.945   1.569   8.509 -0.3452  0.9258  1.4589
  513SOL    HW2 8145   8.033   1.451   8.474  2.0876  3.0080  0.2130
  514SOL     OW 8146   9.962   4.250   0.195  0.4746 -0.1717  0.4819
  514SOL    HW1 8147  10.030   4.226   0.258  1.1789 -2.3916 -1.0220
  514SOL    HW2 8148   9.946   4.171   0.145 -3.0162  0.3326  0.5059
  515SOL     OW 8149   0.347   0.376   4.533  0.1267  0.5883 -0.4087
  515SOL    HW1 8150   0.296   0.311   4.582  0.2701  0.6343 -0.1934
  515SOL    HW2 8151   0.289   0.452   4.527  0.5014  0.9871  0.6679
  516SOL     OW 8152   2.019   3.908   6.937 -0.2391 -0.0688  0.1537
  516SOL    HW1 8153   1.926   3.890   6.923 -0.2592 -0.0183  0.2224
  516SOL    HW2 8154   2.055   3.919   6.849 -0.2230 -0.4579  0.1121
  517SOL     OW 8155   1.325   7.585   9.802  0.4067 -0.4825 -0.4446
  517SOL    HW1 8156   1.365   7.588   9.889  0.2617  0.5434 -0.4034
  517SOL    HW2 8157   1.275   7.503   9.802 -2.1436  0.8967  1.6084
  518SOL     OW 8158   7.600   3.044  10.611  0.3397  0.2023  0.4901
  518SOL    HW1 8159   7.670   3.002  10.562  0.1690 -0.4654  0.7928
  518SOL    HW2 8160   7.623   3.137  10.613 -0.2886  0.4681 -1.9258
  519SOL     OW 8161   8.165   4.631   5.824 -0.1779 -0.5155 -0.3095
  519SOL    HW1 8162   8.183   4.680   5.744  0.3900  0.6782  0.5056
  519SOL    HW2 8163   8.201   4.544   5.808  1.0978  0.0952 -0.8997
  520SOL     OW 8164  11.260   2.135   8.868 -0.3441  0.2007  0.2034
  520SOL    HW1 8165  11.347   2.155   8.832 -0.4248 -1.1453 -0.8319
  520SOL    HW2 8166  11.244   2.204   8.932  1.3697  0.6439  0.2085
  521SOL     OW 8167   8.143   0.060   9.014  0.2883 -0.0638  0.7016
  521SOL    HW1 8168   8.162   0.093   9.102 -0.9379 -0.1162  1.0006
  521SOL    HW2 8169   8.101   0.133   8.969 -2.0790 -1.0203  1.2389
  522SOL     OW 8170   2.353   7.454   5.809 -0.1145  0.1656 -0.5679
  522SOL    HW1 8171   2.349   7.470   5.903  0.8345 -0.1534 -0.4623
  522SOL    HW2 8172   2.383   7.364   5.801  0.6999  0.4836 -1.1814
  523SOL     OW 8173   5.956   0.392   0.536 -0.5806 -0.4965 -0.0636
  523SOL    HW1 8174   5.891   0.461   0.545 -1.5127 -1.5681  2.0774
  523SOL    HW2 8175   6.040   0.438   0.536 -1.2265  0.7219 -0.1868
  524SOL     OW 8176  12.670   0.001   2.559 -0.5109  0.8621  0.3599
  524SOL    HW1 8177  12.655   0.046   2.642 -1.7930 -0.8136  1.0839
  524SOL    HW2 8178  12.756  -0.041   2.570 -0.6798  0.6379  0.8658
  525SOL     OW 8179  11.467  11.365  11.819  0.1804  0.4190 -0.0165
  525SOL    HW1 8180  11.514  11.445  11.840  1.1167 -0.0770 -0.1776
  525SOL    HW2 8181  11.435  11.333  11.904  2.0935 -0.4278  0.4512
  526SOL     OW 8182   8.492  10.247   7.447  0.7951  0.2675 -0.2508
  526SOL    HW1 8183   8.484  10.341   7.460 -0.4603  0.1559 -0.1073
  526SOL    HW2 8184   8.538  10.215   7.525  1.0442  0.7207 -0.2087
  527SOL     OW 8185  12.503  12.688   3.544 -0.1024 -0.2100  0.0200
  527SOL    HW1 8186  12.468  12.702   3.456  1.1255  1.4212 -0.2676
  527SOL    HW2 8187  12.477  12.599   3.567  1.5827 -1.6405 -2.9961
  528SOL     OW 8188  11.682  11.964  11.653 -0.3449 -0.6805  0.1292
  528SOL    HW1 8189  11.642  11.926  11.575  0.1248 -0.5675 -0.1701
  528SOL    HW2 8190  11.684  12.058  11.637  0.6620 -0.7365 -0.1641
  529SOL     OW 8191   7.624   5.612  10.171  0.1423 -0.0713 -0.4398
  529SOL    HW1 8192   7.680   5.607  10.248 -0.2189 -0.3007 -0.1878
  529SOL    HW2 8193   7.673   5.665  10.109  1.2382 -1.3866 -0.7473
  530SOL     OW 8194   5.425   1.732   7.178  0.3140  0.6843  0.1602
  530SOL    HW1 8195   5.335   1.754   7.201  0.0092 -0.2995 -0.0693
  530SOL    HW2 8196   5.418   1.681   7.097  1.1931  1.9915 -0.7986
  531SOL     OW 8197   9.409   2.683   2.620 -0.1586 -0.0697 -0.7812
  531SOL    HW1 8198   9.479   2.668   2.556 -0.1446  0.6254 -0.9317
  531SOL    HW2 8199   9.404   2.600   2.668 -0.1280 -0.5853 -1.6315
  532SOL     OW 8200   8.948   8.967   9.345 -0.2364 -0.0273 -0.8426
  532SOL    HW1 8201   9.026   9.014   9.315  0.2636  0.3904  0.9811
  532SOL    HW2 8202   8.875   9.025   9.324  0.3361  1.4318  0.9766
  533SOL     OW 8203   5.544  10.985   2.633  0.1970  0.3194  0.5957
  533SOL    HW1 8204   5.560  11.078   2.617  0.1712  0.0380 -1.3982
  533SOL    HW2 8205   5.449  10.977   2.641  0.0535  0.2996 -0.8169
  534SOL     OW 8206   7.210   4.730  10.022 -0.6620 -0.1104  0.4380
  534SOL    HW1 8207   7.282   4.695   9.971 -0.3670  1.2220 -0.0993
  534SOL    HW2 8208   7.219   4.825  10.014 -2.0609  0.0854  0.9420
  535SOL     OW 8209   5.761  12.149   5.320 -0.3389  0.5460 -0.4162
  535SOL    HW1 8210   5.759  12.244   5.329  0.5648  0.6074 -0.7560
  535SOL    HW2 8211   5.696  12.117   5.383  1.0030  1.2593  1.3997
  536SOL     OW 8212   6.427   5.812  11.903 -0.1076  0.6198  0.1632
  536SOL    HW1 8213   6.403   5.888  11.956 -1.0594  0.6584 -0.3059
  536SOL    HW2 8214   6.491   5.764  11.957 -1.0695  0.6397  1.3630
  537SOL     OW 8215   5.189   9.447   5.274 -0.6784 -0.2902  0.4280
  537SOL    HW1 8216   5.192   9.361   5.232 -1.7987  0.2778 -0.8953
  537SOL    HW2 8217   5.274   9.486   5.256 -0.7229 -0.5279 -0.3011
  538SOL     OW 8218   6.827   0.647   6.258 -0.2140  0.1602 -0.6034
  538SOL    HW1 8219   6.855   0.558   6.236  1.0952  0.1324  0.9825
  538SOL    HW2 8220   6.733   0.639   6.275 -0.3868 -0.6245 -1.8183
  539SOL     OW 8221   9.098   8.331   7.033 -0.1795  0.0345  0.2852
  539SOL    HW1 8222   9.170   8.352   7.093 -1.0493 -1.1240  1.7695
  539SOL    HW2 8223   9.021   8.374   7.071 -0.8333 -1.0880  0.2607
  540SOL     OW 8224  10.473   6.888  11.869  0.2275 -0.0395  0.0830
  540SOL    HW1 8225  10.538   6.957  11.853  0.1119 -0.0631 -0.5514
  540SOL    HW2 8226  10.395   6.919  11.823  0.2257 -0.6654 -0.3566
  541SOL     OW 8227   2.717   0.402   3.688 -0.5090  0.0037  0.8461
  541SOL    HW1 8228   2.744   0.312   3.669  1.7689  0.7891  0.1012
  541SOL    HW2 8229   2.727   0.410   3.783  1.2120  0.0178  0.6882
  542SOL     OW 8230   3.037   2.797   2.398  0.0388 -0.3395  0.1447
  542SOL    HW1 8231   2.944   2.820   2.391  0.3765  1.1328  0.3720
  542SOL    HW2 8232   3.075   2.824   2.314  0.2590 -1.0060  0.0224
  543SOL     OW 8233   7.784  12.215   1.989  0.4871  0.3452 -0.0616
  543SOL    HW1 8234   7.823  12.225   1.902  1.1733 -0.4311  0.1470
  543SOL    HW2 8235   7.838  12.271   2.046 -0.4534  1.4905 -0.2593
  544SOL     OW 8236  10.191   6.531  12.630 -0.0528 -0.4351 -0.3401
  544SOL    HW1 8237  10.262   6.531  12.694  0.3678 -1.8962 -0.7780
  544SOL    HW2 8238  10.232   6.502  12.548 -0.7288  0.7265 -1.1278
  545SOL     OW 8239   0.626   3.140   0.886  0.1308  0.3770  0.1187
  545SOL    HW1 8240   0.691   3.166   0.821  0.4832 -1.1821 -0.1865
  545SOL    HW2 8241   0.574   3.073   0.843 -0.8397  0.6413  0.8261
  546SOL     OW 8242   8.708   2.783   0.555  0.0732  0.0212  0.0860
  546SOL    HW1 8243   8.724   2.770   0.648  1.0660 -0.8935 -0.1976
  546SOL    HW2 8244   8.769   2.852   0.529  0.0431  0.0263  0.0280
  547SOL     OW 8245   8.255   8.892   9.542 -0.6963  0.7155  0.1076
  547SOL    HW1 8246   8.280   8.931   9.626 -0.7329  1.0142 -0.0194
  547SOL    HW2 8247   8.245   8.967   9.482  0.7784  0.4099 -0.5544
  548SOL     OW 8248   8.910   3.010   9.496  0.1810  0.2062 -0.2533
  548SOL    HW1 8249   8.851   3.066   9.445 -0.6050 -0.1218  0.2848
  548SOL    HW2 8250   8.997   3.032   9.463  0.2115  3.6868  1.7287
  549SOL     OW 8251  11.323   7.103   8.297  0.1887 -0.8796 -0.1708
  549SOL    HW1 8252  11.416   7.091   8.317 -0.0278 -2.5376  0.0063
  549SOL    HW2 8253  11.280   7.029   8.339 -1.4485  0.7554  1.1917
  550SOL     OW 8254   2.814   0.935   0.168  0.3695  0.3140  0.3887
  550SOL    HW1 8255   2.846   0.981   0.245  0.5294  0.7887  0.0432
  550SOL    HW2 8256   2.785   0.850   0.201  0.3141  0.5634  0.9890
  551SOL     OW 8257  12.678   1.422   6.043  0.3297 -0.4850 -0.2806
  551SOL    HW1 8258  12.624   1.501   6.052  0.4672 -0.5726  1.6377
  551SOL    HW2 8259  12.742   1.428   6.114  1.2285 -1.6505 -0.9542
  552SOL     OW 8260   5.537   0.620   2.993  0.0774 -0.2570  0.2493
  552SOL    HW1 8261   5.609   0.681   2.978  1.9771 -1.9972  1.7126
  552SOL    HW2 8262   5.489   0.657   3.067  0.6585 -0.0924  0.5446
  553SOL     OW 8263   8.181  11.261   8.483  0.0737 -0.0042 -0.0216
  553SOL    HW1 8264   8.233  11.224   8.554 -0.7920 -1.1001  0.0655
  553SOL    HW2 8265   8.092  11.230   8.499 -0.7787  2.3058  0.1783
  554SOL     OW 8266   6.902   1.342   6.862 -0.5229  0.3918 -0.1002
  554SOL    HW1 8267   6.839   1.367   6.795 -1.1096 -2.6233 -0.8203
  554SOL    HW2 8268   6.867   1.262   6.900  1.8649 -0.2807  0.8931
  555SOL     OW 8269   3.774   0.157   7.603  0.4080 -0.2653  0.3668
  555SOL    HW1 8270   3.772   0.095   7.530 -0.8709  1.5299 -1.1977
  555SOL    HW2 8271   3.830   0.229   7.572 -1.6869  1.4259  0.3204
  556SOL     OW 8272   3.349  12.560   3.288  0.0950 -0.2453  0.8202
  556SOL    HW1 8273   3.389  12.475   3.273 -1.0576 -0.8271  0.9531
  556SOL    HW2 8274   3.414  12.609   3.339  1.7963 -0.1567 -1.2690
  557SOL     OW 8275   0.356   0.682  10.937  0.4587 -0.0019  0.6670
  557SOL    HW1 8276   0.431   0.742  10.934  1.4479 -1.2175 -1.0129
  557SOL    HW2 8277   0.298   0.718  11.004  2.2669  1.3120  1.5931
  558SOL     OW 8278   9.107   9.438   1.700  0.1268  0.2274 -0.1831
  558SOL    HW1 8279   9.068   9.355   1.673  0.1167  0.3095 -0.4198
  558SOL    HW2 8280   9.033   9.498   1.707  0.0797  0.1109  0.3999
  559SOL     OW 8281  12.347   6.075  10.858 -0.1705 -0.3172  0.4564
  559SOL    HW1 8282  12.434   6.105  10.883  0.0556 -0.3696 -0.2344
  559SOL    HW2 8283  12.287   6.140  10.896  0.1868 -0.1153  0.6789
  560SOL     OW 8284   8.987  11.827  10.729 -0.7643  0.6635 -0.0510
  560SOL    HW1 8285   8.925  11.891  10.765 -0.2090  0.6893  0.9119
  560SOL    HW2 8286   8.959  11.743  10.764 -0.8765  0.5195 -0.4760
  561SOL     OW 8287   0.578  11.800   4.492  0.0777  0.0771  0.3950
  561SOL    HW1 8288   0.556  11.746   4.568 -0.7549 -0.2578 -0.0647
  561SOL    HW2 8289   0.551  11.888   4.515  0.0129  0.0121  0.5670
  562SOL     OW 8290   8.663   3.827   4.520 -0.2670  0.7485  0.3236
  562SOL    HW1 8291   8.582   3.878   4.526 -0.6144  0.1113  1.3329
  562SOL    HW2 8292   8.697   3.825   4.609  0.2272 -0.0080  0.1317
  563SOL     OW 8293   1.702   3.689  10.989  0.3702 -0.2164  0.7002
  563SOL    HW1 8294   1.741   3.683  10.901  1.0694  1.4532  0.8542
  563SOL    HW2 8295   1.637   3.619  10.991  0.2235 -0.1914 -1.2141
  564SOL     OW 8296   7.075  10.679   0.752  0.0384  0.1485  0.1722
  564SOL    HW1 8297   7.100  10.738   0.824 -0.8174  0.1632  0.4691
  564SOL    HW2 8298   7.140  10.697   0.684 -0.2623  1.5149  0.2185
  565SOL     OW 8299   6.580   0.090   8.403  0.1027 -0.3410  0.1727
  565SOL    HW1 8300   6.617   0.161   8.455  0.2800 -0.5731  0.3615
  565SOL    HW2 8301   6.528   0.039   8.465 -1.3975  0.5702 -0.2726
  566SOL     OW 8302   4.852   1.086   5.790 -0.3434 -0.0886 -0.9535
  566SOL    HW1 8303   4.917   1.047   5.848  0.0418  1.3100 -0.3964
  566SOL    HW2 8304   4.901   1.111   5.712  0.1367  2.0887 -0.0493
  567SOL     OW 8305   0.725   2.905   3.370 -0.2074 -0.0539  0.1142
  567SOL    HW1 8306   0.688   2.892   3.282 -1.1403  3.6425 -0.2221
  567SOL    HW2 8307   0.805   2.956   3.355  0.3366 -0.4925  1.3736
  568SOL     OW 8308   4.454   3.112   5.857 -0.6081  0.5070  0.5202
  568SOL    HW1 8309   4.494   3.199   5.850 -1.7002  1.0090  0.2995
  568SOL    HW2 8310   4.510   3.056   5.803 -0.5907  1.3368 -0.3562
  569SOL     OW 8311   9.683   4.577   3.866 -0.2277  0.7658  0.1619
  569SOL    HW1 8312   9.730   4.530   3.935 -1.0680 -1.3023 -0.6239
  569SOL    HW2 8313   9.715   4.667   3.874  0.7371  0.3077  2.3297
  570SOL     OW 8314   5.916   7.280   1.947 -0.1477 -0.0982  0.4284
  570SOL    HW1 8315   5.945   7.252   2.033 -0.9180 -0.2813  0.6268
  570SOL    HW2 8316   5.998   7.297   1.899  0.2810  0.3201  1.2863
  571SOL     OW 8317   1.924  12.581   6.121 -0.4475 -0.5496  0.1187
  571SOL    HW1 8318   1.904  12.614   6.208  3.5449 -0.6131  1.2550
  571SOL    HW2 8319   2.007  12.534   6.132  1.0132  0.6888 -3.9738
  572SOL     OW 8320   0.872   9.931   1.572  0.6775 -0.1761 -0.3946
  572SOL    HW1 8321   0.901   9.965   1.657  0.2905 -3.3369  1.1867
  572SOL    HW2 8322   0.777   9.943   1.572  0.7771  0.6258 -0.7903
  573SOL     OW 8323   5.316   3.162   6.729 -0.0520  0.1717 -0.0764
  573SOL    HW1 8324   5.258   3.108   6.675 -0.1526 -1.1031  1.2320
  573SOL    HW2 8325   5.386   3.103   6.755 -0.2736  0.5890  1.5805
  574SOL     OW 8326   6.984  12.177  10.582 -0.0439 -0.3835  0.0865
  574SOL    HW1 8327   7.050  12.144  10.521  1.0581  0.2720  0.8783
  574SOL    HW2 8328   6.927  12.102  10.599  1.3082 -1.3723  0.4449
  575SOL     OW 8329   2.578  12.165   0.287  0.0027  0.0688  0.3393
  575SOL    HW1 8330   2.583  12.096   0.221  0.0225  0.5792 -0.2017
  575SOL    HW2 8331   2.667  12.198   0.294 -0.0054  0.0381  0.6024
  576SOL     OW 8332   7.282   0.644   9.964 -0.4707  0.4817 -0.2806
  576SOL    HW1 8333   7.368   0.678   9.937 -1.1653  0.4616 -2.7015
  576SOL    HW2 8334   7.219   0.702   9.923 -1.6865  0.5808  1.5797
  577SOL     OW 8335  12.256   1.836   0.195  0.2874  0.4513  0.0587
  577SOL    HW1 8336  12.182   1.816   0.252 -0.0024 -1.3435 -0.8763
  577SOL    HW2 8337  12.270   1.756   0.145  1.7114  1.3649 -1.0878
  578SOL     OW 8338   2.568  10.618   8.263  0.2912 -0.2675  0.4917
  578SOL    HW1 8339   2.616  10.696   8.234 -0.6060  0.8960  2.0466
  578SOL    HW2 8340   2.634  10.565   8.308  0.1787  1.4287  2.8258
  579SOL     OW 8341   2.812   9.214   9.014  0.6199  0.7160 -0.5877
  579SOL    HW1 8342   2.871   9.148   9.050 -1.2029 -0.4278  0.4391
  579SOL    HW2 8343   2.784   9.265   9.090 -0.4492  0.6103 -0.8947
  580SOL     OW 8344   5.122   2.649   6.727 -0.1149 -0.3466 -0.2735
  580SOL    HW1 8345   5.081   2.631   6.643 -0.8143 -2.1438  0.3925
  580SOL    HW2 8346   5.050   2.645   6.790  0.6978 -1.2389  0.6452
  581SOL     OW 8347   2.831   7.620   8.809 -0.0642  0.1705 -0.7503
  581SOL    HW1 8348   2.818   7.533   8.846  0.1820  0.4071 -0.0935
  581SOL    HW2 8349   2.898   7.608   8.742  0.3882 -0.0434 -0.2627
  582SOL     OW 8350  12.481   4.729   2.219  0.3356  0.2257  0.0142
  582SOL    HW1 8351  12.546   4.727   2.149  1.0187 -1.4883  0.6449
  582SOL    HW2 8352  12.403   4.688   2.180  0.0179  1.1497 -0.3540
  583SOL     OW 8353   6.430   9.175   0.920 -0.7498 -0.5408 -0.4565
  583SOL    HW1 8354   6.478   9.243   0.873  0.0931 -1.5707 -1.1536
  583SOL    HW2 8355   6.376   9.222   0.983  0.4044  0.7173 -0.3656
  584SOL     OW 8356   9.207   7.079   0.742  0.3723 -0.4934  0.1675
  584SOL    HW1 8357   9.182   7.159   0.696  0.8075 -1.2819 -1.4876
  584SOL    HW2 8358   9.147   7.076   0.817 -0.9614  0.3739 -0.8177
  585SOL     OW 8359   5.964  10.910   4.637 -0.4032 -0.2041  0.7513
  585SOL    HW1 8360   5.913  10.956   4.570  0.7954  0.4654  0.2633
  585SOL    HW2 8361   5.904  10.844   4.671 -1.0634 -0.5395 -0.9551
  586SOL     OW 8362  11.090   4.575  11.779 -0.0103  0.1371 -0.8010
  586SOL    HW1 8363  11.144   4.498  11.759 -0.4505 -0.3806 -0.0196
  586SOL    HW2 8364  11.074   4.615  11.693  1.6388  0.3300 -1.0654
  587SOL     OW 8365   6.944   4.602   7.055 -0.3952  0.2530  0.6992
  587SOL    HW1 8366   6.959   4.544   6.980 -1.2674 -0.6328  1.1902
  587SOL    HW2 8367   7.031   4.636   7.077 -0.0440  0.0397 -0.3193
  588SOL     OW 8368   2.245   9.516   7.216  0.0531 -0.4356  0.3404
  588SOL    HW1 8369   2.283   9.604   7.217 -1.0969  0.0786  0.8567
  588SOL    HW2 8370   2.271   9.479   7.132 -0.5411  0.9078 -0.4654
  589SOL     OW 8371   3.122   2.398   8.429 -0.3975  0.0354  0.1483
  589SOL    HW1 8372   3.097   2.478   8.476 -0.5730 -0.6302  1.2154
  589SOL    HW2 8373   3.064   2.331   8.463  0.4283 -0.7659  0.0185
  590SOL     OW 8374   0.011   7.597   0.443 -0.5716  0.6475 -0.1253
  590SOL    HW1 8375  -0.027   7.553   0.520 -0.9986  1.0582 -0.0954
  590SOL    HW2 8376   0.050   7.527   0.392 -1.0599  0.2563  0.0306
  591SOL     OW 8377   8.019  10.365  10.354  0.2392 -0.6883 -0.0258
  591SOL    HW1 8378   7.989  10.274  10.353 -0.7383 -0.3834 -1.2704
  591SOL    HW2 8379   8.002  10.397  10.265  2.6503  0.0513 -0.3076
  592SOL     OW 8380   6.407   1.684   6.679 -0.1083 -0.1846 -0.0976
  592SOL    HW1 8381   6.486   1.734   6.702  1.3858 -2.3988 -0.0515
  592SOL    HW2 8382   6.377   1.648   6.763 -0.6696 -0.0596 -0.2419
  593SOL     OW 8383   6.883   2.305  10.301 -0.0506 -0.0536 -0.7210
  593SOL    HW1 8384   6.955   2.367  10.311 -0.8206  0.5477  2.2006
  593SOL    HW2 8385   6.916   2.223  10.338 -0.7626  0.2033  0.5563
  594SOL     OW 8386  12.448   4.528   1.292 -0.3793  0.1302  0.0830
  594SOL    HW1 8387  12.397   4.595   1.337 -1.7363 -2.6898  3.1067
  594SOL    HW2 8388  12.385   4.486   1.233 -0.6886 -1.0431  1.2045
  595SOL     OW 8389   8.199   4.753  10.123 -0.6333  0.6087 -0.1453
  595SOL    HW1 8390   8.224   4.788  10.209 -0.7169  1.2571 -0.3759
  595SOL    HW2 8391   8.282   4.728  10.083 -0.7372 -1.5389  0.8731
  596SOL     OW 8392   5.158   6.394   3.809  0.5869 -0.6078 -0.3827
  596SOL    HW1 8393   5.206   6.311   3.799  1.2734 -0.3438  0.5451
  596SOL    HW2 8394   5.213   6.458   3.764  1.9645 -0.0243  1.9744
  597SOL     OW 8395   9.647  10.941  12.287 -0.4288  0.2514  0.2190
  597SOL    HW1 8396   9.734  10.977  12.303 -1.6892  3.1551  1.2996
  597SOL    HW2 8397   9.622  10.899  12.369 -0.0848 -0.6032 -0.0987
  598SOL     OW 8398  10.120  11.409   4.898  0.0969  0.3825 -0.2488
  598SOL    HW1 8399  10.074  11.346   4.953 -1.4086  1.5137 -0.1547
  598SOL    HW2 8400  10.207  11.370   4.885 -0.3000 -1.0117  0.9711
  599SOL     OW 8401   8.902   1.718   0.713 -0.1923 -0.1525  0.2129
  599SOL    HW1 8402   8.848   1.651   0.671  0.1187 -0.7598  0.7687
  599SOL    HW2 8403   8.967   1.742   0.647 -0.5743 -0.0731 -0.1406
  600SOL     OW 8404   9.385   2.058   3.808 -0.8007 -0.5425 -0.4275
  600SOL    HW1 8405   9.395   2.153   3.809 -1.8064 -0.3565 -2.4242
  600SOL    HW2 8406   9.466   2.025   3.847  0.6354  1.1081 -1.8123
  601SOL     OW 8407   5.265   8.609   5.988 -0.2305 -0.1417  0.1973
  601SOL    HW1 8408   5.194   8.640   6.044  0.4894 -0.5022  1.3169
  601SOL    HW2 8409   5.263   8.514   5.996 -1.7044 -0.4272 -2.3542
  602SOL     OW 8410   8.322   1.839  10.832 -0.0046  0.1139  0.5984
  602SOL    HW1 8411   8.300   1.750  10.804 -0.5459 -0.1574  1.8220
  602SOL    HW2 8412   8.346   1.884  10.751 -0.7218 -0.8553 -0.1833
  603SOL     OW 8413  12.721   2.450   4.742  0.0268 -0.2685 -0.1378
  603SOL    HW1 8414  12.748   2.507   4.669 -0.1728  1.1019  0.8219
  603SOL    HW2 8415  12.697   2.368   4.700 -2.5512  1.2495 -1.9635
  604SOL     OW 8416   1.532   4.936   0.272  0.0062  0.2671 -0.5341
  604SOL    HW1 8417   1.574   4.935   0.359 -0.3292  0.7644 -0.3661
  604SOL    HW2 8418   1.482   4.855   0.270 -1.2678  0.9951  0.3760
  605SOL     OW 8419   2.440   9.403   1.100 -0.2379  0.0784  0.0971
  605SOL    HW1 8420   2.494   9.409   1.179  2.1861  0.8831 -1.5223
  605SOL    HW2 8421   2.427   9.309   1.086 -0.3820 -0.0823  1.2019
  606SOL     OW 8422   7.891   3.036  11.557 -0.0065 -0.0189 -0.3413
  606SOL    HW1 8423   7.896   2.976  11.632 -0.6629  0.2062 -0.1118
  606SOL    HW2 8424   7.847   3.113  11.591 -0.3121  0.0852 -0.9626
  607SOL     OW 8425  10.307  12.594   4.834  0.5387  0.3272 -0.1202
  607SOL    HW1 8426  10.362  12.565   4.762 -0.3299 -0.6566 -0.4119
  607SOL    HW2 8427  10.229  12.630   4.792 -0.6367 -1.6003  0.3007
  608SOL     OW 8428  11.280   2.421   4.203 -0.0059 -0.4215  0.3030
  608SOL    HW1 8429  11.353   2.457   4.155  0.1093 -3.1177 -1.7516
  608SOL    HW2 8430  11.296   2.446   4.294  0.7607  3.2304 -0.6748
  609SOL     OW 8431  12.662   9.269   5.408 -0.9718  0.0070 -0.1025
  609SOL    HW1 8432  12.735   9.284   5.348 -1.4023 -0.1771 -0.6838
  609SOL    HW2 8433  12.662   9.174   5.423 -2.2659 -0.2861 -1.6616
  610SOL     OW 8434   7.766   6.823   4.671  0.2463  0.1697 -0.5651
  610SOL    HW1 8435   7.817   6.840   4.750 -0.5357  0.7866 -0.1849
  610SOL    HW2 8436   7.794   6.735   4.643  2.5551  1.0384 -1.1936
  611SOL     OW 8437   5.053   1.787   1.248 -0.5647 -0.1519  0.1374
  611SOL    HW1 8438   5.118   1.848   1.282 -0.4742 -0.4725  0.5500
  611SOL    HW2 8439   5.034   1.729   1.322 -0.8153 -0.4806 -0.1823
  612SOL     OW 8440   1.492   3.467   3.280  0.4729  0.1399  0.0909
  612SOL    HW1 8441   1.428   3.538   3.276 -1.8868 -1.9009 -0.4792
  612SOL    HW2 8442   1.488   3.427   3.194  1.2716 -1.1159  0.6174
  613SOL     OW 8443   7.941   4.709   0.328 -0.3080  0.6564  0.3374
  613SOL    HW1 8444   7.920   4.748   0.243 -1.1843  0.4515  0.4514
  613SOL    HW2 8445   8.035   4.691   0.323 -0.1541  1.5446 -0.2178
  614SOL     OW 8446   1.700  11.348   7.429  0.1756 -0.2324  0.0113
  614SOL    HW1 8447   1.716  11.381   7.341  1.3105  0.7889  0.5658
  614SOL    HW2 8448   1.626  11.288   7.420  0.4033 -0.2915 -1.6571
  615SOL     OW 8449  10.172   1.557   9.703  0.1881 -0.0295  0.2054
  615SOL    HW1 8450  10.135   1.495   9.640  1.9777 -0.6279 -0.3105
  615SOL    HW2 8451  10.096   1.592   9.750 -1.0804 -0.5289 -1.4014
  616SOL     OW 8452   7.837  11.454   0.359  0.4314  0.1922 -0.1341
  616SOL    HW1 8453   7.855  11.432   0.451  0.9731  2.0624  0.2412
  616SOL    HW2 8454   7.748  11.420   0.344  0.9428 -1.5516  0.5704
  617SOL     OW 8455   8.889   4.450   9.695  0.2299  0.2384 -0.2963
  617SOL    HW1 8456   8.810   4.464   9.642  1.0932  1.4011 -1.3282
  617SOL    HW2 8457   8.957   4.502   9.651  1.1958  0.5285  1.4535
  618SOL     OW 8458  10.112   9.314   7.977  0.5035 -0.6068 -0.1436
  618SOL    HW1 8459  10.080   9.257   7.907 -1.9055  0.2565  0.1467
  618SOL    HW2 8460  10.056   9.294   8.052  0.5045  1.1268  0.3692
  619SOL     OW 8461   8.187  12.530   5.310  0.3730 -0.1312 -0.2184
  619SOL    HW1 8462   8.211  12.465   5.243  2.5828 -0.9498  1.2609
  619SOL    HW2 8463   8.237  12.608   5.285  1.3634 -0.5029  0.5412
  620SOL     OW 8464  10.891   1.479   2.165  0.4553  0.0886  0.4693
  620SOL    HW1 8465  10.911   1.400   2.216  1.4915  0.3913  0.5644
  620SOL    HW2 8466  10.948   1.473   2.088 -1.1875 -0.4236 -0.7459
  621SOL     OW 8467   3.178  11.263   0.563  0.0301 -0.0516 -0.4671
  621SOL    HW1 8468   3.193  11.351   0.528  0.3823 -0.2955 -0.9393
  621SOL    HW2 8469   3.085  11.261   0.585  0.5101  1.3622  2.1359
  622SOL     OW 8470   4.159   5.609   3.192  0.1424  0.7371 -0.2040
  622SOL    HW1 8471   4.081   5.553   3.192 -0.7221  1.8750  0.8173
  622SOL    HW2 8472   4.124   5.697   3.210  1.7410  1.1507  1.0784
  623SOL     OW 8473   3.784  10.761   6.430  0.5915 -0.1280  0.3969
  623SOL    HW1 8474   3.862  10.790   6.382 -0.2235 -0.6897 -1.3417
  623SOL    HW2 8475   3.795  10.666   6.437 -0.3820 -0.3499 -0.7646
  624SOL     OW 8476   2.859   6.326  10.688 -0.6409 -0.2539  0.1211
  624SOL    HW1 8477   2.806   6.403  10.670 -0.5827 -0.4406 -0.9127
  624SOL    HW2 8478   2.923   6.323  10.617  0.5234 -0.2505  1.1365
  625SOL     OW 8479   4.132   2.309   7.922 -0.0615 -0.4017 -0.0861
  625SOL    HW1 8480   4.153   2.333   8.013  1.1444 -1.7961  0.0475
  625SOL    HW2 8481   4.104   2.217   7.928 -0.8666 -0.2291 -1.0243
  626SOL     OW 8482  10.210   7.659  12.156 -0.0220 -0.1300 -0.6630
  626SOL    HW1 8483  10.218   7.733  12.095  0.6604 -0.1109 -0.5532
  626SOL    HW2 8484  10.124   7.622  12.137  0.1343 -0.0544 -1.5599
  627SOL     OW 8485   3.106   9.457   5.812 -0.0403  0.2454  0.3079
  627SOL    HW1 8486   3.185   9.437   5.863 -0.4761 -2.1179  0.1859
  627SOL    HW2 8487   3.034   9.443   5.873 -0.4437  0.7603 -0.0406
  628SOL     OW 8488  11.553   0.175  11.743 -0.1294 -0.1641  0.1253
  628SOL    HW1 8489  11.546   0.092  11.790  0.5522 -0.3999 -0.1828
  628SOL    HW2 8490  11.546   0.151  11.650 -1.3436  0.2863  0.0763
  629SOL     OW 8491  12.210   1.556  12.258  0.6258  0.3992  0.5330
  629SOL    HW1 8492  12.273   1.600  12.200  1.7190  0.4846  1.7614
  629SOL    HW2 8493  12.170   1.627  12.308  0.8622  0.1864  1.0276
  630SOL     OW 8494   5.653   1.045   8.778 -0.1080  0.3081 -0.2624
  630SOL    HW1 8495   5.703   0.975   8.820 -0.6450 -0.1095 -0.3139
  630SOL    HW2 8496   5.606   1.002   8.706 -0.5169  0.6983 -0.2363
  631SOL     OW 8497   3.904   0.867   2.815 -0.2659 -0.3917  0.4245
  631SOL    HW1 8498   3.952   0.894   2.893  0.3752  0.4316 -0.2327
  631SOL    HW2 8499   3.944   0.783   2.790  0.3284 -0.0843  0.3205
  632SOL     OW 8500   2.363   0.309  12.708 -0.3109  0.0613  0.4655
  632SOL    HW1 8501   2.401   0.315  12.620  0.7071 -0.3947  0.8554
  632SOL    HW2 8502   2.327   0.397  12.724 -1.6197 -0.1936 -0.8664
  633SOL     OW 8503   0.669   5.743   2.905 -0.1701  0.2109  0.3645
  633SOL    HW1 8504   0.581   5.705   2.902  0.1437 -0.5937  0.9117
  633SOL    HW2 8505   0.690   5.747   2.999  0.6171 -0.2038  0.2125
  634SOL     OW 8506   9.505   5.285   9.966  0.1519 -0.1701  0.7915
  634SOL    HW1 8507   9.487   5.240  10.049 -1.2185 -0.6651  0.2692
  634SOL    HW2 8508   9.477   5.222   9.899  0.4733  0.5369 -0.0205
  635SOL     OW 8509   6.233   4.036   3.410 -0.0427  0.1889 -0.6690
  635SOL    HW1 8510   6.207   4.095   3.339  1.6460  1.4384 -0.3111
  635SOL    HW2 8511   6.294   3.975   3.368  0.0695  0.2018 -0.5216
  636SOL     OW 8512   8.987  10.155   7.885 -0.7629 -0.7776 -0.2781
  636SOL    HW1 8513   9.052  10.088   7.864  0.3140 -0.4750  1.8476
  636SOL    HW2 8514   8.907  10.105   7.905 -0.3944 -1.3402 -0.2044
  637SOL     OW 8515  11.784   8.188  11.282  0.2865 -0.1459 -0.3279
  637SOL    HW1 8516  11.833   8.178  11.200 -1.4195 -0.7565 -1.3344
  637SOL    HW2 8517  11.715   8.251  11.261  0.7683  0.9242  1.1346
  638SOL     OW 8518   7.245   7.641  11.583 -0.2633  0.2464  0.0828
  638SOL    HW1 8519   7.184   7.609  11.649  0.2831 -1.0004 -0.0079
  638SOL    HW2 8520   7.317   7.579  11.583  1.0053  1.6578  0.1308
  639SOL     OW 8521   4.450   6.387  12.452  0.2459 -0.0912 -0.0335
  639SOL    HW1 8522   4.394   6.356  12.380  0.4413  0.8673 -0.6158
  639SOL    HW2 8523   4.491   6.466  12.417  1.5270 -0.4649  0.5981
  640SOL     OW 8524   9.014   4.997  11.891 -0.1873 -0.1063  0.3806
  640SOL    HW1 8525   9.106   5.018  11.910  0.0751  0.8507 -1.6957
  640SOL    HW2 8526   8.978   5.078  11.856 -1.2897 -1.0232 -0.6722
  641SOL     OW 8527   5.241   8.436  10.440  0.1714  0.1595 -0.0555
  641SOL    HW1 8528   5.175   8.413  10.505  0.8648  0.2960  0.7238
  641SOL    HW2 8529   5.261   8.527  10.458  0.1569  0.2847 -0.6638
  642SOL     OW 8530   8.410   9.600   5.721 -0.2284  0.7081 -0.0623
  642SOL    HW1 8531   8.359   9.551   5.785  0.1156  1.1044  0.5244
  642SOL    HW2 8532   8.456   9.533   5.671  0.5128  0.4231  0.9634
  643SOL     OW 8533  12.073   6.767   7.152 -0.2105  0.4537 -0.1564
  643SOL    HW1 8534  12.027   6.727   7.079  0.8535  1.0882 -1.1943
  643SOL    HW2 8535  12.087   6.694   7.214 -0.4546 -0.2454 -0.9114
  644SOL     OW 8536  12.061  11.680   1.105 -0.9325  0.4354 -0.0373
  644SOL    HW1 8537  11.975  11.662   1.067 -0.7720  0.5309 -0.4454
  644SOL    HW2 8538  12.112  11.717   1.033 -0.6534  0.6961  0.2901
  645SOL     OW 8539   1.047   3.643   8.807  0.3181  0.0645  0.1266
  645SOL    HW1 8540   0.999   3.676   8.883 -0.6293 -0.8037 -0.0773
  645SOL    HW2 8541   1.111   3.582   8.845 -0.7963 -1.1115  0.1859
  646SOL     OW 8542   5.505   8.728   6.733  0.2934 -0.3793 -0.6818
  646SOL    HW1 8543   5.595   8.725   6.700  0.7022 -0.0398  0.3476
  646SOL    HW2 8544   5.466   8.805   6.692  0.6581 -0.2019 -0.7007
  647SOL     OW 8545   3.104  10.419   4.419  0.4752  0.3957 -0.0841
  647SOL    HW1 8546   3.175  10.418   4.483  0.5026 -2.0400 -0.0807
  647SOL    HW2 8547   3.099  10.510   4.390  1.8183  1.1422  1.8579
  648SOL     OW 8548   4.772   9.472   1.311 -0.0653 -0.0632  0.2472
  648SOL    HW1 8549   4.735   9.384   1.305 -0.4873  0.0869  0.6502
  648SOL    HW2 8550   4.782   9.488   1.404 -1.4195  0.9067  0.2647
  649SOL     OW 8551   1.132  11.114   8.882  0.4218  0.0198 -0.1383
  649SOL    HW1 8552   1.099  11.025   8.893 -0.3286  0.4300  1.1885
  649SOL    HW2 8553   1.074  11.168   8.936  0.1636  1.4876 -1.7739
  650SOL     OW 8554   5.740   0.067   3.297  0.3614  0.4222  0.1437
  650SOL    HW1 8555   5.719   0.143   3.243  1.7264  2.0127  1.7310
  650SOL    HW2 8556   5.655   0.040   3.334  0.1038  2.8634  1.6111
  651SOL     OW 8557   4.949   9.223  12.306 -0.0714  0.3569  0.1743
  651SOL    HW1 8558   5.021   9.270  12.348 -0.6334  0.8977  0.5541
  651SOL    HW2 8559   4.913   9.168  12.375 -0.2564  0.3700  0.0893
  652SOL     OW 8560   7.588   6.555   0.747  0.8593  0.0831  0.7774
  652SOL    HW1 8561   7.614   6.506   0.825  0.1236 -0.1022  0.9108
  652SOL    HW2 8562   7.603   6.495   0.675  0.3110 -0.2133  0.9053
  653SOL     OW 8563   5.976   5.764   1.895  0.3071  0.6584 -0.4367
  653SOL    HW1 8564   5.941   5.836   1.842 -1.4977 -0.0381 -0.2446
  653SOL    HW2 8565   6.043   5.806   1.950  0.2995  1.9025 -1.3180
  654SOL     OW 8566   7.422   7.502   6.950  0.6229  0.2947  0.4024
  654SOL    HW1 8567   7.466   7.441   7.009  0.7220  0.2243  0.2559
  654SOL    HW2 8568   7.491   7.559   6.918  0.6922 -0.1344 -0.2180
  655SOL     OW 8569  10.846   5.776   0.683 -0.0067  0.3450  0.2228
  655SOL    HW1 8570  10.787   5.700   0.680  1.1081 -0.6759  1.9552
  655SOL    HW2 8571  10.920   5.750   0.629 -0.6794  1.2317 -1.1642
  656SOL     OW 8572   1.824   5.775   9.788  0.1833 -0.3373  0.6720
  656SOL    HW1 8573   1.831   5.829   9.866 -0.9760 -0.2985  0.7684
  656SOL    HW2 8574   1.730   5.763   9.775  0.3586 -0.5437 -0.5767
  657SOL     OW 8575   2.342   4.893   7.353  0.3756  0.5111  0.1649
  657SOL    HW1 8576   2.410   4.947   7.393 -0.1666  0.0506  1.7684
  657SOL    HW2 8577   2.304   4.844   7.425 -0.6095 -0.4151 -0.9377
  658SOL     OW 8578   8.204   5.867   0.619  0.5200 -0.1457 -0.1126
  658SOL    HW1 8579   8.168   5.810   0.551  0.6946  0.8391 -1.0435
  658SOL    HW2 8580   8.163   5.836   0.700 -2.2059  0.7117 -1.0491
  659SOL     OW 8581  11.655  11.973   1.331 -0.6682 -0.2053  0.2703
  659SOL    HW1 8582  11.740  11.935   1.307 -1.5862 -1.3191 -1.3770
  659SOL    HW2 8583  11.678  12.047   1.387  1.3925 -0.5498 -0.0151
  660SOL     OW 8584  11.579   3.625   4.976  0.2113 -0.3811 -0.1559
  660SOL    HW1 8585  11.616   3.542   5.007  1.1581 -0.0638 -0.4153
  660SOL    HW2 8586  11.631   3.692   5.019  0.8807  0.0738 -1.6133
  661SOL     OW 8587   9.038   3.922   2.054 -0.6928  0.0593  0.2817
  661SOL    HW1 8588   8.944   3.917   2.037 -1.0398 -0.0396  2.0772
  661SOL    HW2 8589   9.049   3.885   2.141  0.6535  2.4431  1.2176
  662SOL     OW 8590   3.181   1.370   1.621 -0.3847 -0.5370  0.4124
  662SOL    HW1 8591   3.101   1.343   1.577 -0.6530  0.6819  0.1277
  662SOL    HW2 8592   3.152   1.404   1.706 -0.1493 -0.3283  0.4111
  663SOL     OW 8593   7.074  12.603   6.360 -0.2314 -0.0831 -0.0684
  663SOL    HW1 8594   7.042  12.515   6.338  1.2158 -0.1350 -2.1680
  663SOL    HW2 8595   7.166  12.590   6.381 -0.3379  0.7795  1.0643
  664SOL     OW 8596   3.913   1.793   0.642  0.1213  0.3435 -0.1957
  664SOL    HW1 8597   3.887   1.732   0.573  1.9700 -0.1185 -0.5359
  664SOL    HW2 8598   3.947   1.738   0.712 -1.0411  0.8476  0.7951
  665SOL     OW 8599   1.913   1.539   7.960  0.5399  0.0577  0.3281
  665SOL    HW1 8600   1.887   1.570   7.873  1.9553 -2.5129 -1.1144
  665SOL    HW2 8601   1.991   1.589   7.982  1.8508 -1.2016 -1.2364
  666SOL     OW 8602   5.906   7.444   9.559  0.3618  0.2237  0.1839
  666SOL    HW1 8603   5.886   7.362   9.604 -0.0693  0.3700  0.2594
  666SOL    HW2 8604   5.916   7.418   9.467 -0.5421  0.1957  0.0796
  667SOL     OW 8605   2.741   0.243  12.533  0.0920  0.2130 -0.0570
  667SOL    HW1 8606   2.817   0.187  12.547 -1.2086 -1.6961 -0.1838
  667SOL    HW2 8607   2.760   0.289  12.451  2.5138  2.3873  1.5729
  668SOL     OW 8608  10.720   7.812   7.801  0.0173 -0.4575 -0.5171
  668SOL    HW1 8609  10.810   7.841   7.783 -0.0853 -0.0773 -0.4106
  668SOL    HW2 8610  10.687   7.782   7.716  0.3496 -0.8945 -0.4983
  669SOL     OW 8611  11.881   2.730   1.351  0.3815 -0.1740  0.6612
  669SOL    HW1 8612  11.923   2.669   1.289  1.9608  0.3818  1.1314
  669SOL    HW2 8613  11.790   2.733   1.323  0.6218 -1.4817 -0.3964
  670SOL     OW 8614   7.346  10.908   6.560 -1.1756 -0.1686 -0.4498
  670SOL    HW1 8615   7.351  10.983   6.501  2.2013 -0.5921 -0.9233
  670SOL    HW2 8616   7.352  10.946   6.648 -0.3822  0.2053 -0.6549
  671SOL     OW 8617   1.034  12.141   2.946  0.6949 -0.7024  0.6069
  671SOL    HW1 8618   0.961  12.162   3.004 -0.2138 -0.1980 -0.6966
  671SOL    HW2 8619   1.111  12.175   2.992  0.0518 -0.6324  1.6769
  672SOL     OW 8620   6.915   6.003  10.491 -0.1438 -0.5893 -0.0635
  672SOL    HW1 8621   6.825   5.995  10.522  0.0076 -0.4671  0.4276
  672SOL    HW2 8622   6.937   5.917  10.457 -0.6606 -0.4412 -0.7828
  673SOL     OW 8623   0.062   2.579   2.538 -0.5654  0.1715  0.4668
  673SOL    HW1 8624  -0.027   2.542   2.542 -1.6659  2.1794 -2.1898
  673SOL    HW2 8625   0.097   2.568   2.626 -3.2175 -1.2760  1.4382
  674SOL     OW 8626   3.205   4.750   4.098 -0.5452  0.2379  0.1556
  674SOL    HW1 8627   3.235   4.764   4.008 -3.0697 -1.5320 -1.0648
  674SOL    HW2 8628   3.129   4.807   4.107 -0.1746  0.5821  1.3059
  675SOL     OW 8629   5.861   2.828   1.957 -0.9013 -0.1321  0.0978
  675SOL    HW1 8630   5.777   2.860   1.992 -1.2171 -1.4049  0.5734
  675SOL    HW2 8631   5.870   2.740   1.994  0.7975  0.0903  0.2822
  676SOL     OW 8632   5.898   5.923   2.569  0.4028  0.0643  0.0965
  676SOL    HW1 8633   5.907   6.006   2.617  0.8803 -0.0543  0.2137
  676SOL    HW2 8634   5.946   5.859   2.621  3.0063  0.3999 -1.6849
  677SOL     OW 8635   5.777   2.537  11.468  0.4520  0.0047 -0.4824
  677SOL    HW1 8636   5.725   2.475  11.418 -1.1742  0.6128  0.3857
  677SOL    HW2 8637   5.854   2.486  11.496 -1.1367 -1.8665  0.7818
  678SOL     OW 8638   4.155   1.765   5.543  0.2894 -0.1180 -0.3224
  678SOL    HW1 8639   4.148   1.766   5.447 -1.0761  2.8179 -0.3065
  678SOL    HW2 8640   4.101   1.691   5.570 -0.9657  0.2028 -1.7870
  679SOL     OW 8641  12.495   7.191   8.771  0.1808  0.5864  0.2716
  679SOL    HW1 8642  12.535   7.198   8.858 -0.2282  0.3215  0.4848
  679SOL    HW2 8643  12.515   7.102   8.742 -0.6390  0.2853  0.5824
  680SOL     OW 8644   2.231   6.570   4.207 -0.3565 -0.3817 -0.1705
  680SOL    HW1 8645   2.252   6.528   4.124 -2.5543 -0.6562 -0.6460
  680SOL    HW2 8646   2.204   6.499   4.265 -2.0140  0.0894 -0.3020
  681SOL     OW 8647   0.876   4.106   4.578  0.0008 -0.4160 -0.2030
  681SOL    HW1 8648   0.938   4.177   4.595 -0.3155 -0.4629  1.2818
  681SOL    HW2 8649   0.911   4.031   4.628 -0.2699 -0.9763 -0.8374
  682SOL     OW 8650   4.662  12.449   5.941  0.0577  0.0528 -0.4411
  682SOL    HW1 8651   4.650  12.440   5.846 -0.7107 -0.3635 -0.3162
  682SOL    HW2 8652   4.609  12.378   5.978  1.3652 -0.6007  0.2529
  683SOL     OW 8653   8.268   9.424   5.879 -0.2216 -0.2542  0.7681
  683SOL    HW1 8654   8.207   9.367   5.925 -1.6269  0.5410 -0.0414
  683SOL    HW2 8655   8.335   9.445   5.944 -1.6347  0.0634  2.1880
  684SOL     OW 8656   2.266  10.795   6.565  0.5719 -0.1879 -0.2590
  684SOL    HW1 8657   2.231  10.736   6.499  0.1654 -1.5341  1.0927
  684SOL    HW2 8658   2.207  10.871   6.563 -0.8938 -1.2532  0.1453
  685SOL     OW 8659   8.873   7.354   5.544 -0.2794 -0.1347 -0.3252
  685SOL    HW1 8660   8.866   7.318   5.456  0.0566 -2.6353  0.5797
  685SOL    HW2 8661   8.795   7.408   5.554 -1.6875 -1.8657 -1.3062
  686SOL     OW 8662  10.520   2.143   9.823 -0.1265 -0.5126 -0.1944
  686SOL    HW1 8663  10.561   2.073   9.772 -0.2470 -0.4046 -0.4427
  686SOL    HW2 8664  10.589   2.209   9.834 -0.2031 -0.3676 -0.5426
  687SOL     OW 8665  12.738   6.864  10.124 -0.5142 -0.4112 -0.2791
  687SOL    HW1 8666  12.694   6.794  10.172 -0.2944 -0.4981 -0.2025
  687SOL    HW2 8667  12.667   6.915  10.086 -0.7492  0.2698  0.9929
  688SOL     OW 8668   7.182   9.785   0.993  0.0576  0.0749  0.2243
  688SOL    HW1 8669   7.140   9.698   0.994  0.2493 -0.0212  1.4580
  688SOL    HW2 8670   7.123   9.840   1.043 -0.4039  0.8517 -1.1259
  689SOL     OW 8671  11.653   9.225   4.384  0.7922  0.5998 -0.3078
  689SOL    HW1 8672  11.746   9.220   4.363  1.4960  2.3914  2.0006
  689SOL    HW2 8673  11.650   9.228   4.479 -1.3589  3.6970 -0.3267
  690SOL     OW 8674   9.780   5.154   3.250 -0.5936  0.1455  0.0720
  690SOL    HW1 8675   9.748   5.155   3.340  0.7910 -0.4171  0.6013
  690SOL    HW2 8676   9.764   5.064   3.220 -0.2212  0.0762  0.0768
  691SOL     OW 8677   1.380   2.556   4.901  0.0447  0.0339 -0.3447
  691SOL    HW1 8678   1.389   2.501   4.824 -0.8115  0.6249 -0.8930
  691SOL    HW2 8679   1.285   2.567   4.912  0.0826 -0.9496  1.4697
  692SOL     OW 8680   3.129   3.912  11.164  0.2973  0.0127  0.6865
  692SOL    HW1 8681   3.165   4.000  11.172 -1.3172  0.5668  2.7840
  692SOL    HW2 8682   3.084   3.911  11.079  2.0300  0.4944 -0.2731
  693SOL     OW 8683   7.970   4.664   8.926 -0.1972  0.0748 -0.4593
  693SOL    HW1 8684   8.005   4.718   8.855 -0.3929  0.2729 -0.4028
  693SOL    HW2 8685   7.875   4.674   8.920 -0.2955 -1.0109 -1.0526
  694SOL     OW 8686   5.653   2.817   9.697  0.0050  0.7824  0.4031
  694SOL    HW1 8687   5.748   2.808   9.702  0.4650  2.4756 -2.6253
  694SOL    HW2 8688   5.632   2.890   9.755  0.6203  0.7403  0.6883
  695SOL     OW 8689   5.712  12.171   9.106  0.2783 -0.4145  0.8953
  695SOL    HW1 8690   5.719  12.138   9.016  0.8000  1.2912  0.2815
  695SOL    HW2 8691   5.714  12.092   9.160 -0.7090 -1.5295 -0.6009
  696SOL     OW 8692   5.903   4.340   5.995  0.2918 -0.1710  0.1285
  696SOL    HW1 8693   5.879   4.427   5.964  0.1916 -0.2618 -0.0448
  696SOL    HW2 8694   5.899   4.348   6.091 -0.3444 -0.1639  0.1034
  697SOL     OW 8695   0.398  11.813  10.065 -0.4008  0.1653 -0.2317
  697SOL    HW1 8696   0.462  11.877  10.096  0.6374 -0.5404 -0.8520
  697SOL    HW2 8697   0.339  11.800  10.139  0.4130  0.5394  0.5038
  698SOL     OW 8698   0.694   4.070   0.144  0.3719 -0.4000  0.2260
  698SOL    HW1 8699   0.751   4.123   0.200  1.5088 -0.4236 -0.8609
  698SOL    HW2 8700   0.743   4.060   0.062 -1.5053  0.2163 -1.0562
  699SOL     OW 8701   2.883   4.539   4.342 -0.0668 -0.0027  0.3870
  699SOL    HW1 8702   2.788   4.533   4.345 -0.3410  2.3913 -0.8506
  699SOL    HW2 8703   2.903   4.551   4.249  1.6430 -2.0700  0.3928
  700SOL     OW 8704   0.129  10.562  11.478  0.4043  0.2046 -0.5074
  700SOL    HW1 8705   0.204  10.621  11.488  0.3488  0.3061 -0.6767
  700SOL    HW2 8706   0.074  10.579  11.554 -0.8301  2.1547 -1.7634
  701SOL     OW 8707  10.229   1.872   4.143  0.9345  0.1552 -0.0143
  701SOL    HW1 8708  10.141   1.903   4.127  1.2692 -0.2456 -3.2631
  701SOL    HW2 8709  10.285   1.949   4.131  1.2967 -0.3947 -2.5498
  702SOL     OW 8710  10.211   7.231  10.441  0.2049  0.0852  0.3983
  702SOL    HW1 8711  10.214   7.143  10.478  0.3375  0.6333  1.7484
  702SOL    HW2 8712  10.267   7.227  10.363  0.1246 -1.0331  0.3810
  703SOL     OW 8713   6.512  11.655   7.388 -0.0892  0.1518  0.2164
  703SOL    HW1 8714   6.504  11.737   7.437  3.2130  0.7115  0.0894
  703SOL    HW2 8715   6.505  11.680   7.296 -0.8396 -0.0177  0.2218
  704SOL     OW 8716   0.223   5.386   7.905  0.5457  0.7830  0.5351
  704SOL    HW1 8717   0.261   5.342   7.829 -1.2454  0.2393 -0.0910
  704SOL    HW2 8718   0.174   5.460   7.868 -1.4392 -0.2473  0.9787
  705SOL     OW 8719   6.598   2.697   9.045  0.4321  0.2419 -0.1067
  705SOL    HW1 8720   6.624   2.627   8.985  2.9837 -1.0720  2.2713
  705SOL    HW2 8721   6.599   2.655   9.131  1.8786  3.1502  1.4197
  706SOL     OW 8722   4.320   6.190   5.951 -0.5257  0.1598 -0.2587
  706SOL    HW1 8723   4.348   6.127   6.018 -1.0710  1.3111  1.0873
  706SOL    HW2 8724   4.385   6.180   5.881  1.0892  0.1326  1.1798
  707SOL     OW 8725   1.430   9.437   4.476  0.1102 -0.2354 -0.3624
  707SOL    HW1 8726   1.503   9.486   4.513  0.0477  0.5623 -1.2623
  707SOL    HW2 8727   1.392   9.390   4.551  0.5490  0.6041  0.4060
  708SOL     OW 8728  12.180   3.354   1.503 -0.8190  0.1562 -0.1040
  708SOL    HW1 8729  12.103   3.406   1.526 -0.2856 -0.0122  2.3269
  708SOL    HW2 8730  12.172   3.340   1.408 -4.0776 -0.3403  0.1183
  709SOL     OW 8731   6.656   5.509  10.625 -0.1515 -0.1447 -0.2797
  709SOL    HW1 8732   6.731   5.553  10.663  0.8944 -1.2387 -0.9963
  709SOL    HW2 8733   6.614   5.464  10.698 -1.5037  2.2825  0.5475
  710SOL     OW 8734   1.745   2.888   8.005 -0.2838 -0.3710 -0.1764
  710SOL    HW1 8735   1.677   2.940   7.962  0.5177  0.0187 -1.0085
  710SOL    HW2 8736   1.723   2.797   7.983 -0.2456 -0.2143 -0.8939
  711SOL     OW 8737   7.112   2.383   5.974 -0.7769 -0.1304  0.4710
  711SOL    HW1 8738   7.083   2.464   5.933  0.3188 -0.7219 -1.5991
  711SOL    HW2 8739   7.192   2.406   6.021  0.2551 -0.1802 -1.1630
  712SOL     OW 8740   7.751  10.748   0.310  0.2526  0.1066 -0.0621
  712SOL    HW1 8741   7.739  10.759   0.215 -1.9016 -1.0905  0.0271
  712SOL    HW2 8742   7.768  10.655   0.321  1.6605  0.4228  0.6723
  713SOL     OW 8743   9.151  10.462   5.352 -0.0541  0.0033  0.6927
  713SOL    HW1 8744   9.239  10.472   5.316 -0.5739 -2.2962 -1.5539
  713SOL    HW2 8745   9.108  10.546   5.336  0.8316  0.1758 -1.0335
  714SOL     OW 8746  10.487  12.322  11.674 -0.0979 -0.6211 -0.1658
  714SOL    HW1 8747  10.436  12.257  11.721 -0.8807  0.5408  0.6443
  714SOL    HW2 8748  10.541  12.364  11.741  0.5538 -0.5735 -0.7075
  715SOL     OW 8749   0.630   6.009   8.477 -0.2281  0.4205  0.0923
  715SOL    HW1 8750   0.690   6.082   8.465 -0.9692  1.0942  0.3787
  715SOL    HW2 8751   0.582   6.004   8.394  1.1191 -0.9958 -0.6686
  716SOL     OW 8752   4.899   7.165   4.518  0.1131  0.0677  0.1980
  716SOL    HW1 8753   4.918   7.117   4.437  0.6669  1.9752 -0.8790
  716SOL    HW2 8754   4.945   7.116   4.586 -0.1556 -1.4455 -0.6539
  717SOL     OW 8755   0.333   1.663   6.763 -0.3222 -0.6323  0.6461
  717SOL    HW1 8756   0.390   1.713   6.705 -1.1096  0.0513  0.4312
  717SOL    HW2 8757   0.278   1.611   6.704 -1.5948  0.5753  0.6965
  718SOL     OW 8758   5.714   0.813   5.476  0.0309  0.3454  0.0251
  718SOL    HW1 8759   5.694   0.724   5.446 -3.7679  0.3729  1.7863
  718SOL    HW2 8760   5.649   0.868   5.431  0.0957  1.6733  1.4816
  719SOL     OW 8761   0.201  10.576  12.363 -0.1666  0.2981 -0.1139
  719SOL    HW1 8762   0.242  10.626  12.434  0.2958 -0.4666  0.1697
  719SOL    HW2 8763   0.233  10.617  12.283 -1.2755  1.6434  0.0969
  720SOL     OW 8764  11.550  12.101   8.825  0.7304  0.5233 -0.2957
  720SOL    HW1 8765  11.558  12.165   8.754  0.2989  0.2246 -0.6138
  720SOL    HW2 8766  11.574  12.151   8.904  0.0411  1.1837 -0.4887
  721SOL     OW 8767   9.959   3.639   1.397  0.3000  0.1135 -0.4491
  721SOL    HW1 8768  10.034   3.699   1.390  0.2331  0.0783 -1.8088
  721SOL    HW2 8769   9.884   3.696   1.413  0.3673  0.3262 -0.8653
  722SOL     OW 8770   3.105  12.058   4.298 -0.0478  0.3570  0.7332
  722SOL    HW1 8771   3.130  11.966   4.292 -1.0356 -0.0306  1.9088
  722SOL    HW2 8772   3.063  12.077   4.214 -0.6451 -0.5398  0.8114
  723SOL     OW 8773   2.054   9.417   3.437 -0.5797 -0.0190 -0.5944
  723SOL    HW1 8774   2.027   9.345   3.494 -1.7459  0.7439 -0.1347
  723SOL    HW2 8775   1.984   9.481   3.445  0.2499  1.0109 -1.2918
  724SOL     OW 8776   7.843   1.916  11.700 -0.1071 -0.7119  0.6847
  724SOL    HW1 8777   7.872   1.828  11.674  0.5980 -0.0605 -0.8777
  724SOL    HW2 8778   7.923   1.960  11.729  0.3596  0.6493 -2.3374
  725SOL     OW 8779   5.985   2.894   2.300 -0.3049 -0.0594 -0.8270
  725SOL    HW1 8780   5.918   2.886   2.233 -2.9119  0.7752  1.5120
  725SOL    HW2 8781   5.954   2.838   2.371  1.3017  0.6500  0.4903
  726SOL     OW 8782  11.709  12.218   1.434 -0.1987 -0.1968 -0.2722
  726SOL    HW1 8783  11.668  12.304   1.426 -1.0485 -0.3627  1.6536
  726SOL    HW2 8784  11.721  12.206   1.528  1.6525 -1.4085 -0.6219
  727SOL     OW 8785   1.884   3.018   2.229 -0.1204 -0.7564  0.2863
  727SOL    HW1 8786   1.937   3.090   2.193 -0.2893 -1.2866 -1.0951
  727SOL    HW2 8787   1.868   3.043   2.320 -0.1105  0.9301 -0.1373
  728SOL     OW 8788   2.194   0.190   4.107 -0.1846  0.0633  0.3395
  728SOL    HW1 8789   2.201   0.103   4.146 -0.5951 -0.0353  0.1985
  728SOL    HW2 8790   2.233   0.248   4.172 -0.8509 -0.1019  0.8998
  729SOL     OW 8791   6.202   8.717   9.291 -0.5886  0.3863 -0.2516
  729SOL    HW1 8792   6.276   8.662   9.263 -1.4237 -0.1807 -1.3943
  729SOL    HW2 8793   6.244   8.796   9.324  0.6039 -0.5017  0.4979
  730SOL     OW 8794   7.803   8.140   3.123  0.4600  0.3140 -0.4499
  730SOL    HW1 8795   7.756   8.094   3.193 -1.1898  0.9915 -1.0530
  730SOL    HW2 8796   7.852   8.209   3.168  1.0518 -0.5376  0.2249
  731SOL     OW 8797   6.297   4.651   2.894  0.2616  0.5167  0.4416
  731SOL    HW1 8798   6.382   4.639   2.936 -0.5038 -0.9310  1.6720
  731SOL    HW2 8799   6.290   4.746   2.881  2.8959  0.5504 -1.6159
  732SOL     OW 8800   6.772   7.668   9.471 -0.1244  0.4587 -0.4621
  732SOL    HW1 8801   6.798   7.576   9.468  1.8302  0.9016  0.6944
  732SOL    HW2 8802   6.696   7.670   9.530 -1.6106 -0.6232 -2.2261
  733SOL     OW 8803   0.052   1.693   4.404 -0.1115 -0.0451  0.4973
  733SOL    HW1 8804  -0.033   1.705   4.362  0.1632  2.1112  0.4380
  733SOL    HW2 8805   0.073   1.601   4.389 -2.4676 -0.6635  0.6159
  734SOL     OW 8806   6.933   8.615   1.439  0.6025  0.3053  0.0069
  734SOL    HW1 8807   7.012   8.634   1.489 -0.3143  0.6685  1.3797
  734SOL    HW2 8808   6.963   8.560   1.367  2.2776  1.3969 -0.1945
  735SOL     OW 8809   6.752   0.233  11.156 -0.3210  0.1580 -0.1986
  735SOL    HW1 8810   6.772   0.323  11.184  1.5707 -0.7726  1.8118
  735SOL    HW2 8811   6.750   0.183  11.238 -0.7080 -1.7387 -1.3203
  736SOL     OW 8812   2.452   5.267   1.364  0.2888 -0.2786 -0.3402
  736SOL    HW1 8813   2.529   5.317   1.339  0.4689 -0.9653 -1.2131
  736SOL    HW2 8814   2.391   5.332   1.399  0.9891  0.3643 -0.3089
  737SOL     OW 8815   3.686   7.847   9.159  0.4496 -0.1750 -0.0105
  737SOL    HW1 8816   3.702   7.845   9.065  0.9221  0.6983  0.0426
  737SOL    HW2 8817   3.740   7.776   9.195 -0.0914 -0.8167 -0.4339
  738SOL     OW 8818   5.304   4.827   6.451  0.7152 -0.2728  0.3572
  738SOL    HW1 8819   5.317   4.748   6.503 -0.6305  0.4104  1.7951
  738SOL    HW2 8820   5.215   4.854   6.470 -0.1599 -0.3741 -2.8936
  739SOL     OW 8821   9.140   6.514   7.659  0.6690  0.1247 -0.0757
  739SOL    HW1 8822   9.212   6.460   7.690 -0.2884 -0.0454  1.9878
  739SOL    HW2 8823   9.160   6.602   7.690 -1.2835 -0.3941  3.0461
  740SOL     OW 8824   8.756   1.634  11.361 -0.3818 -1.4441  0.1280
  740SOL    HW1 8825   8.794   1.551  11.334  1.9579 -0.2478 -0.4408
  740SOL    HW2 8826   8.777   1.695  11.291 -2.7518 -0.4823  0.1434
  741SOL     OW 8827  10.115   0.387   8.502 -0.5551 -0.5889  0.3346
  741SOL    HW1 8828  10.100   0.323   8.432 -0.3698  1.3944 -1.6267
  741SOL    HW2 8829  10.045   0.451   8.491  1.1903  1.3510  0.0305
  742SOL     OW 8830   8.397   0.618   7.326  0.2499 -0.3057  0.8508
  742SOL    HW1 8831   8.323   0.630   7.385  1.2772 -2.7145  2.8321
  742SOL    HW2 8832   8.358   0.602   7.240 -1.5011 -0.8751  1.7168
  743SOL     OW 8833   7.770   6.627   3.530 -0.0747 -0.4387 -0.3279
  743SOL    HW1 8834   7.823   6.660   3.458  0.4961 -1.6165 -0.4793
  743SOL    HW2 8835   7.722   6.553   3.492  0.3384 -1.1618  0.5237
  744SOL     OW 8836   2.309   2.347   4.128  0.3645  0.1529 -0.1420
  744SOL    HW1 8837   2.353   2.396   4.060  0.7952 -0.2597 -0.1690
  744SOL    HW2 8838   2.250   2.287   4.081 -2.1458  2.3777 -0.0781
  745SOL     OW 8839  12.185  10.022   4.607  0.1609  0.4078  0.0830
  745SOL    HW1 8840  12.113   9.959   4.611  0.7582 -0.4169 -1.2653
  745SOL    HW2 8841  12.180  10.069   4.690 -0.9219 -0.7426  0.7165
  746SOL     OW 8842   5.472   0.117   3.077  0.5514 -0.3704 -0.0047
  746SOL    HW1 8843   5.424   0.199   3.073  0.7392 -0.2746 -0.3169
  746SOL    HW2 8844   5.544   0.127   3.015  0.4381 -0.8621 -0.2231
  747SOL     OW 8845   4.486   0.330   2.755 -0.2095  0.1695  0.0262
  747SOL    HW1 8846   4.496   0.327   2.850  0.2799  0.4567 -0.0094
  747SOL    HW2 8847   4.455   0.243   2.731  2.2361 -0.8479  0.1818
  748SOL     OW 8848  12.210   7.391   7.744  0.0050 -0.2579  0.3107
  748SOL    HW1 8849  12.128   7.352   7.772  0.4436 -0.2291  1.7093
  748SOL    HW2 8850  12.185   7.477   7.710 -0.7089 -0.8784 -0.7956
  749SOL     OW 8851   6.315   3.895  10.343  0.5541  0.1714  0.4831
  749SOL    HW1 8852   6.248   3.956  10.312  1.2507  1.1759  0.9331
  749SOL    HW2 8853   6.322   3.831  10.272  0.7538  1.3537 -0.6042
  750SOL     OW 8854   1.485   4.418  12.392  0.4032  0.1515  0.4353
  750SOL    HW1 8855   1.538   4.429  12.314 -2.0701  1.3493 -1.2068
  750SOL    HW2 8856   1.504   4.494  12.447  0.1275  0.7708 -0.3176
  751SOL     OW 8857   0.644   5.297   3.914  0.4871 -0.2918  0.0238
  751SOL    HW1 8858   0.609   5.263   3.831  0.3065 -0.4024  0.1449
  751SOL    HW2 8859   0.594   5.378   3.929  1.1414  0.2063 -0.4291
  752SOL     OW 8860   8.586   8.534  12.394  1.4276 -0.3496 -0.3968
  752SOL    HW1 8861   8.622   8.447  12.410  1.1050 -0.7796 -1.8819
  752SOL    HW2 8862   8.583   8.575  12.481  2.1767 -1.5742  0.2334
  753SOL     OW 8863   6.965   2.166   9.961 -0.3977  0.1180 -0.0375
  753SOL    HW1 8864   6.951   2.256   9.989  0.9746 -0.1019  1.4842
  753SOL    HW2 8865   7.044   2.137  10.008 -0.9885 -1.9797 -0.2031
  754SOL     OW 8866  11.079   9.869  12.759  0.1656  0.0497  0.0757
  754SOL    HW1 8867  11.171   9.853  12.781 -0.0880 -2.6435 -0.4642
  754SOL    HW2 8868  11.030   9.845  12.838 -0.1704 -0.2018 -0.2049
  755SOL     OW 8869   8.421   7.804   4.730  0.0212 -0.0112  0.3136
  755SOL    HW1 8870   8.397   7.819   4.821 -0.6829 -0.0676  0.1449
  755SOL    HW2 8871   8.385   7.879   4.683 -1.3290 -0.9365 -0.1800
  756SOL     OW 8872   7.985   4.361   0.468  0.0547  0.0966 -0.2703
  756SOL    HW1 8873   8.016   4.394   0.384 -1.1435 -0.1291 -0.8191
  756SOL    HW2 8874   7.969   4.268   0.453 -1.6810  0.3753 -0.2502
  757SOL     OW 8875  10.607  12.199   7.530 -0.2223 -0.2943 -0.3143
  757SOL    HW1 8876  10.679  12.256   7.503  1.2898 -1.1634  1.6310
  757SOL    HW2 8877  10.600  12.135   7.460  0.8508 -0.1478 -0.5743
  758SOL     OW 8878   6.306   2.458   3.376 -0.3735 -0.0333 -0.3318
  758SOL    HW1 8879   6.253   2.397   3.427  0.1399 -0.0617  0.1718
  758SOL    HW2 8880   6.386   2.469   3.427  0.0843  0.0583 -1.0564
  759SOL     OW 8881  12.497   7.345   8.141 -0.1986 -0.0539  0.0268
  759SOL    HW1 8882  12.559   7.410   8.106 -0.5775  1.0758  1.3557
  759SOL    HW2 8883  12.442   7.395   8.201 -0.9568 -1.4923  0.5662
  760SOL     OW 8884   0.144   3.722   1.332  0.4363 -0.4040 -0.0715
  760SOL    HW1 8885   0.160   3.769   1.414 -0.7305  0.0329 -0.0650
  760SOL    HW2 8886   0.125   3.632   1.358  1.4528 -0.6092  0.0126
  761SOL     OW 8887   2.034   6.375  11.097  1.2475 -0.0333 -0.2584
  761SOL    HW1 8888   2.120   6.394  11.133  0.6749  1.4252  0.4273
  761SOL    HW2 8889   2.008   6.457  11.054 -1.1967  0.7636  2.4516
  762SOL     OW 8890  12.149  10.677  10.742  0.4048  0.4436  0.0093
  762SOL    HW1 8891  12.214  10.717  10.684  0.8135  1.2340  1.0085
  762SOL    HW2 8892  12.065  10.715  10.714  0.3251 -0.5850 -1.2869
  763SOL     OW 8893   8.457  11.303   7.351  0.2766  0.1920 -0.3462
  763SOL    HW1 8894   8.406  11.336   7.425 -1.3119 -1.3897 -0.6860
  763SOL    HW2 8895   8.413  11.338   7.274  0.9352  0.4614 -0.6077
  764SOL     OW 8896   0.206   7.282  10.601  0.0084  0.5434 -0.2726
  764SOL    HW1 8897   0.272   7.226  10.641  2.8453  1.7449 -2.8566
  764SOL    HW2 8898   0.173   7.232  10.527 -0.6823  0.6660 -0.0609
  765SOL     OW 8899   1.411   3.821   8.075  0.3293  0.1448 -0.4771
  765SOL    HW1 8900   1.493   3.840   8.028  0.7209 -0.2409  0.0267
  765SOL    HW2 8901   1.423   3.863   8.161  1.0404 -1.8948  0.5069
  766SOL     OW 8902   4.988   1.725   9.005 -0.2431 -0.4344  0.0793
  766SOL    HW1 8903   4.984   1.799   9.065  1.1115 -1.3584  1.4016
  766SOL    HW2 8904   5.081   1.717   8.983 -0.0050 -2.8651  1.5575
  767SOL     OW 8905   5.087   9.463  11.557 -0.1465 -0.0169 -0.1312
  767SOL    HW1 8906   5.112   9.544  11.602 -0.1828 -0.3196  0.4370
  767SOL    HW2 8907   5.136   9.394  11.602 -0.6927 -0.4009 -0.1141
  768SOL     OW 8908   2.937  10.867   4.308  0.2122 -0.1078 -0.3577
  768SOL    HW1 8909   2.845  10.888   4.322  0.0348 -0.3729 -1.0514
  768SOL    HW2 8910   2.968  10.937   4.250  0.0417 -0.8186 -1.3483
  769SOL     OW 8911   7.799   3.778   2.083 -0.5519 -0.5488 -0.0131
  769SOL    HW1 8912   7.706   3.786   2.101 -0.4062  0.9163  0.2288
  769SOL    HW2 8913   7.807   3.699   2.028 -2.0798  0.0004 -1.0877
  770SOL     OW 8914   5.682   0.163   6.293 -0.3676 -0.3222  0.1601
  770SOL    HW1 8915   5.655   0.094   6.233  0.5522 -1.1773  0.7031
  770SOL    HW2 8916   5.663   0.244   6.246  0.6875 -0.9597 -1.4536
  771SOL     OW 8917  10.764  11.757   5.556 -0.0700 -0.0534 -0.2614
  771SOL    HW1 8918  10.823  11.802   5.495  0.2198 -0.7582 -0.5165
  771SOL    HW2 8919  10.704  11.708   5.500  0.5097 -1.1012  0.0079
  772SOL     OW 8920   2.942   8.409  11.143 -0.0896 -0.3627 -0.5475
  772SOL    HW1 8921   2.917   8.382  11.231 -1.1378  1.8488 -0.1034
  772SOL    HW2 8922   3.030   8.374  11.131  0.9275  1.0282  2.2023
  773SOL     OW 8923   2.632   4.796   2.769  0.1785  0.2602 -0.7132
  773SOL    HW1 8924   2.694   4.786   2.841 -0.2779  0.9142 -0.2148
  773SOL    HW2 8925   2.671   4.864   2.714  0.0919  0.3895 -0.6133
  774SOL     OW 8926   8.254  12.599   9.112  0.2413  0.0259  0.3752
  774SOL    HW1 8927   8.329  12.549   9.144  0.1952  1.0909  2.3518
  774SOL    HW2 8928   8.259  12.682   9.161 -1.6680  0.4988 -0.1693
  775SOL     OW 8929   5.563   5.240   7.707 -0.2176 -0.0104  0.1938
  775SOL    HW1 8930   5.481   5.284   7.682 -0.2413  1.4247  2.5132
  775SOL    HW2 8931   5.624   5.311   7.725  1.0391 -1.0390  0.1671
  776SOL     OW 8932   0.823   4.380   3.642  0.3166 -0.1658 -0.2561
  776SOL    HW1 8933   0.903   4.335   3.670  0.1736  0.2038  0.8105
  776SOL    HW2 8934   0.825   4.377   3.546  0.4780 -2.1540 -0.2343
  777SOL     OW 8935   0.520   9.679   0.442  0.4518  0.0892 -0.8975
  777SOL    HW1 8936   0.581   9.753   0.448  1.7247 -1.0063  2.0376
  777SOL    HW2 8937   0.576   9.604   0.419  0.2599 -0.8515  1.4028
  778SOL     OW 8938   2.511  10.540   4.795  0.1101 -0.3149  0.7818
  778SOL    HW1 8939   2.434  10.491   4.768  0.8939 -1.2449  0.1472
  778SOL    HW2 8940   2.558  10.481   4.854  0.9309 -0.2299  0.2267
  779SOL     OW 8941   6.925   4.679   6.103 -1.0541  0.4836  0.0913
  779SOL    HW1 8942   6.959   4.605   6.153  1.0431  1.1137 -0.2755
  779SOL    HW2 8943   6.875   4.639   6.032 -0.0568 -0.5840 -0.0318
  780SOL     OW 8944  11.619  11.351   3.319  0.1353  0.6148  0.1172
  780SOL    HW1 8945  11.641  11.338   3.412  0.5821  1.2826  0.1121
  780SOL    HW2 8946  11.661  11.434   3.296  0.2225  0.3412 -0.7465
  781SOL     OW 8947  12.461   9.313   6.944 -0.0066 -0.1726  0.0243
  781SOL    HW1 8948  12.398   9.249   6.976  0.7509 -0.6474  0.6063
  781SOL    HW2 8949  12.513   9.336   7.022 -1.5670  2.7232  0.3600
  782SOL     OW 8950   9.084   7.832  11.656  0.0289  0.1219  0.0888
  782SOL    HW1 8951   9.069   7.830  11.561  1.3366 -1.2855 -0.1219
  782SOL    HW2 8952   9.096   7.740  11.681  1.0184  0.5611  1.3875
  783SOL     OW 8953   7.350  11.183   9.924 -0.1321 -0.2824 -0.1792
  783SOL    HW1 8954   7.271  11.181   9.978  0.0113 -0.3235  0.0306
  783SOL    HW2 8955   7.410  11.240   9.972  0.0325 -0.3992 -0.2478
  784SOL     OW 8956   9.693   9.629   4.635 -0.5282 -0.0566 -0.2026
  784SOL    HW1 8957   9.650   9.692   4.693  0.2080 -0.1868  0.5106
  784SOL    HW2 8958   9.660   9.544   4.663 -0.2841 -0.1070 -0.0582
  785SOL     OW 8959   8.666   8.440   5.651 -0.1152  0.7783  0.2680
  785SOL    HW1 8960   8.659   8.518   5.596 -2.3431  1.3003  1.1982
  785SOL    HW2 8961   8.721   8.466   5.724 -0.4285  1.3361  0.3111
  786SOL     OW 8962   9.326  10.216   6.136  0.2601  0.0967  0.4217
  786SOL    HW1 8963   9.348  10.131   6.175 -0.4172 -0.4898 -0.4402
  786SOL    HW2 8964   9.378  10.279   6.186  1.2037 -0.8772  0.7111
  787SOL     OW 8965   6.412   5.830   7.798  0.1469  0.4962  0.0201
  787SOL    HW1 8966   6.356   5.799   7.869  0.2385  0.8509  0.2557
  787SOL    HW2 8967   6.404   5.765   7.729  1.3602 -0.7447  0.9931
  788SOL     OW 8968   8.781  11.209   9.440  0.2073 -0.2323 -0.0392
  788SOL    HW1 8969   8.781  11.113   9.439  2.9111 -0.3058  0.1195
  788SOL    HW2 8970   8.805  11.232   9.530  0.6926  0.5805 -0.3664
  789SOL     OW 8971  11.977  10.334   2.772 -0.3095 -0.5201  0.5651
  789SOL    HW1 8972  11.974  10.429   2.756 -3.5810 -0.5513  0.1833
  789SOL    HW2 8973  11.903  10.319   2.831 -1.5490 -3.1271 -1.4598
  790SOL     OW 8974   6.978   2.420   4.644  0.1995 -0.5610 -0.1497
  790SOL    HW1 8975   7.072   2.410   4.628  0.1260  0.9212 -1.7560
  790SOL    HW2 8976   6.973   2.476   4.722  0.6164 -1.3095  0.4329
  791SOL     OW 8977   7.580   5.200   3.944  0.9942 -0.0732  0.1998
  791SOL    HW1 8978   7.657   5.165   3.899  0.7055 -0.2278 -0.1791
  791SOL    HW2 8979   7.506   5.166   3.894  0.7049  1.4700 -0.4544
  792SOL     OW 8980   5.066   4.231  12.012  0.2375  0.0983  0.7146
  792SOL    HW1 8981   5.088   4.138  12.009  0.3231  0.1504 -0.9477
  792SOL    HW2 8982   5.143   4.275  11.977 -0.6430  0.6125 -0.6435
  793SOL     OW 8983   0.616   6.783   3.864 -0.2332 -0.0573  0.1336
  793SOL    HW1 8984   0.535   6.764   3.912 -0.2740 -0.3609 -0.0496
  793SOL    HW2 8985   0.650   6.697   3.840 -0.3060  0.0943 -0.5317
  794SOL     OW 8986   3.547   2.863   0.580  0.0534 -0.5108 -0.1857
  794SOL    HW1 8987   3.614   2.926   0.607 -0.6311  0.9941 -1.8137
  794SOL    HW2 8988   3.522   2.818   0.661  2.8974 -1.0619  0.4993
  795SOL     OW 8989  10.205   7.841   4.097 -0.1841  0.2028  0.4748
  795SOL    HW1 8990  10.152   7.767   4.069 -0.0469 -0.5989  2.2290
  795SOL    HW2 8991  10.148   7.917   4.085 -2.3780 -0.7570  3.6237
  796SOL     OW 8992   6.931   0.433   2.551 -0.4063  0.1349 -0.3111
  796SOL    HW1 8993   6.897   0.433   2.641 -0.4402 -0.9006 -0.3146
  796SOL    HW2 8994   7.014   0.481   2.557 -1.4861  2.0774 -0.1706
  797SOL     OW 8995   4.298   9.109   1.517  0.8366 -0.1191 -0.0375
  797SOL    HW1 8996   4.380   9.100   1.468 -0.3519 -2.1591 -1.8362
  797SOL    HW2 8997   4.261   9.192   1.489  2.2023  0.7948  0.7489
  798SOL     OW 8998   5.852   6.032   1.769  0.3378  0.0190  0.1552
  798SOL    HW1 8999   5.813   6.045   1.683  0.4029  2.8565  0.4504
  798SOL    HW2 9000   5.945   6.053   1.757  0.9287 -2.2062  0.4106
  799SOL     OW 9001   7.543   2.322   6.716  0.4624  0.1613  0.2883
  799SOL    HW1 9002   7.602   2.393   6.692  1.3986 -0.4431  0.7757
  799SOL    HW2 9003   7.597   2.259   6.764 -0.4954 -0.5636  0.4674
  800SOL     OW 9004  10.541   0.023   4.481  0.5747 -0.2198  0.0655
  800SOL    HW1 9005  10.619   0.073   4.456  0.6290 -0.1661  0.3387
  800SOL    HW2 9006  10.575  -0.058   4.519  0.4914 -0.3400 -0.1130
  801SOL     OW 9007  11.117   3.599   0.039 -0.0862  0.1240 -0.7722
  801SOL    HW1 9008  11.033   3.606   0.084  0.1995 -0.7107 -0.0843
  801SOL    HW2 9009  11.172   3.665   0.081 -0.0607 -0.1135 -0.4211
  802SOL     OW 9010   7.219  10.984   9.282 -0.4191  0.2054 -0.5541
  802SOL    HW1 9011   7.248  10.897   9.256 -1.4200 -0.7670  1.4550
  802SOL    HW2 9012   7.129  10.990   9.250 -0.5947  0.2183 -0.0609
  803SOL     OW 9013   6.488   1.301   5.284 -0.4406 -0.0332 -0.0798
  803SOL    HW1 9014   6.467   1.214   5.251  1.8167 -1.2560  1.4853
  803SOL    HW2 9015   6.527   1.346   5.209 -1.6404 -0.3097 -0.9022
  804SOL     OW 9016   2.956   4.735   2.477  0.0896  0.5198 -0.1567
  804SOL    HW1 9017   3.035   4.773   2.516 -0.0514 -0.0008  0.6603
  804SOL    HW2 9018   2.921   4.804   2.420  1.3469  0.6144 -0.8469
  805SOL     OW 9019   2.035   5.007   4.199  0.1860  0.6190 -0.0456
  805SOL    HW1 9020   1.992   5.082   4.157  0.5481  1.5328  1.1487
  805SOL    HW2 9021   2.116   5.042   4.234 -0.5272  0.1833  2.2440
  806SOL     OW 9022   4.887   1.545  10.796  0.0763  0.0093  0.5868
  806SOL    HW1 9023   4.857   1.455  10.809 -0.3128  0.1844  0.9751
  806SOL    HW2 9024   4.835   1.577  10.723  0.8297 -0.3484 -0.1139
  807SOL     OW 9025  11.351   1.507   7.449  0.1161  0.2972 -0.7257
  807SOL    HW1 9026  11.409   1.454   7.394  0.8745 -0.6092  0.8683
  807SOL    HW2 9027  11.389   1.594   7.448  0.6306  0.0727 -0.9263
  808SOL     OW 9028   3.360   8.543   4.326 -0.0107  0.0346  0.0065
  808SOL    HW1 9029   3.432   8.570   4.384 -1.0210  0.9613  0.8655
  808SOL    HW2 9030   3.292   8.512   4.385 -0.8846  0.5555 -0.7089
  809SOL     OW 9031   4.589   4.767   4.208 -0.4031 -0.0950  0.3221
  809SOL    HW1 9032   4.558   4.701   4.270  0.9753 -0.4823  0.6418
  809SOL    HW2 9033   4.682   4.780   4.231 -0.2406  0.8056 -0.7421
  810SOL     OW 9034  12.785  10.756   0.062  0.3980 -0.4131 -0.4472
  810SOL    HW1 9035  12.781  10.685  -0.003 -0.9312 -0.3578 -0.4527
  810SOL    HW2 9036  12.816  10.832   0.012  1.0600 -0.7797 -0.6161
  811SOL     OW 9037   8.159   4.166  12.297 -0.0984 -0.0464  0.0723
  811SOL    HW1 9038   8.085   4.210  12.339 -0.9023  0.4229 -1.7322
  811SOL    HW2 9039   8.193   4.230  12.234 -0.8216 -1.6519 -2.0873
  812SOL     OW 9040   8.277   6.791  11.458  0.0290  0.0046 -0.5083
  812SOL    HW1 9041   8.224   6.821  11.532  0.9586  1.0138 -0.2290
  812SOL    HW2 9042   8.220   6.798  11.382 -0.8803 -0.8744  0.0675
  813SOL     OW 9043   6.537  11.502   3.118  0.7120 -0.2786 -0.0701
  813SOL    HW1 9044   6.620  11.484   3.161  1.1514 -1.6494 -1.4025
  813SOL    HW2 9045   6.528  11.597   3.123  1.1786 -0.2860  2.1560
  814SOL     OW 9046   2.726   0.767  11.864  0.7202 -0.6785  0.0030
  814SOL    HW1 9047   2.651   0.787  11.920  1.0677  1.6025 -0.2569
  814SOL    HW2 9048   2.693   0.779  11.775  1.0677 -0.8407 -0.1479
  815SOL     OW 9049  12.079   9.206  11.015  0.0276 -0.0374  0.5573
  815SOL    HW1 9050  12.071   9.166  11.102  0.4460 -2.4948 -0.4598
  815SOL    HW2 9051  12.023   9.283  11.019 -0.0558 -0.1436  2.9597
  816SOL     OW 9052   9.567   6.833   9.568 -0.1106 -0.2459  0.4131
  816SOL    HW1 9053   9.550   6.918   9.607 -1.2235 -0.7738  1.1604
  816SOL    HW2 9054   9.626   6.789   9.629  1.3724  0.3845 -0.5377
  817SOL     OW 9055   5.255   8.268   9.263 -0.1645 -1.1629 -0.4011
  817SOL    HW1 9056   5.315   8.322   9.212  0.7729 -0.3541  1.4660
  817SOL    HW2 9057   5.305   8.189   9.283  1.1110  0.2868  2.7403
  818SOL     OW 9058   7.468   1.633   4.387  0.3137 -0.0613  0.2058
  818SOL    HW1 9059   7.549   1.590   4.360 -0.4038 -0.0612 -2.1343
  818SOL    HW2 9060   7.489   1.727   4.385  0.4990 -0.0951  0.4888
  819SOL     OW 9061   3.700  12.576  10.328  0.3914  0.2178  0.1399
  819SOL    HW1 9062   3.654  12.655  10.356 -0.8064 -0.0656 -0.8988
  819SOL    HW2 9063   3.706  12.585  10.232  2.9552  0.4470  0.2716
  820SOL     OW 9064   3.097   6.134   5.645  0.0709 -0.3184  0.5198
  820SOL    HW1 9065   3.036   6.062   5.631 -0.4568  0.1217  0.5067
  820SOL    HW2 9066   3.132   6.154   5.558 -0.4285  0.0017  0.3899
  821SOL     OW 9067   0.627   8.188   3.887 -0.3228  0.3334  0.0968
  821SOL    HW1 9068   0.656   8.259   3.829  1.5440  1.5105  2.3141
  821SOL    HW2 9069   0.533   8.202   3.895 -0.0152  2.6963  0.5154
  822SOL     OW 9070  10.238   5.585   3.865  0.5355  0.6743 -0.0185
  822SOL    HW1 9071  10.192   5.540   3.794  1.6309  0.9913 -0.9632
  822SOL    HW2 9072  10.168   5.620   3.920 -0.3794  1.2457 -1.4640
  823SOL     OW 9073  11.444   0.814   9.474 -0.1978 -0.1110  0.2621
  823SOL    HW1 9074  11.356   0.814   9.437 -0.4132 -0.8603  0.7475
  823SOL    HW2 9075  11.436   0.761   9.553  0.7115 -0.2492  0.2679
  824SOL     OW 9076   8.653   3.726   1.659  0.0849  0.0889 -0.2953
  824SOL    HW1 9077   8.620   3.636   1.647  0.0205 -0.0755  0.9543
  824SOL    HW2 9078   8.618   3.752   1.745 -0.5336  1.5977 -0.9763
  825SOL     OW 9079  10.666  11.245   7.972  0.1679 -0.3596  0.2121
  825SOL    HW1 9080  10.660  11.334   8.005  0.1125 -0.3179  0.0907
  825SOL    HW2 9081  10.680  11.254   7.878 -1.4902 -0.4850 -0.0854
  826SOL     OW 9082   0.233  10.558   5.507  0.0468  0.2272 -0.7155
  826SOL    HW1 9083   0.214  10.650   5.494  0.3473  0.3932 -0.0468
  826SOL    HW2 9084   0.170  10.512   5.451 -0.8631  0.8054 -0.1927
  827SOL     OW 9085   5.679   9.042  11.783  0.2607 -0.0269 -0.1170
  827SOL    HW1 9086   5.645   9.111  11.839  2.1754  0.3523  0.6790
  827SOL    HW2 9087   5.723   9.088  11.711  0.1021 -0.4518 -0.4920
  828SOL     OW 9088   5.646   6.112   7.034  0.5773 -0.3489 -0.4318
  828SOL    HW1 9089   5.719   6.156   6.991 -0.2783  0.2456 -1.3168
  828SOL    HW2 9090   5.687   6.041   7.084  1.8030  0.3134 -0.4624
  829SOL     OW 9091   9.464  10.903   6.591  0.3234  0.0618 -0.2307
  829SOL    HW1 9092   9.545  10.953   6.598 -0.3227  1.4233 -1.7936
  829SOL    HW2 9093   9.476  10.848   6.514  0.1926 -0.6170  0.2224
  830SOL     OW 9094   3.126   6.995   6.364  0.3775 -0.1275 -0.3266
  830SOL    HW1 9095   3.137   6.927   6.430 -1.4188  0.1385  0.2901
  830SOL    HW2 9096   3.207   6.991   6.312  0.9504 -1.7030  0.6167
  831SOL     OW 9097   3.536   5.577   5.238 -0.1130 -0.2742  0.6251
  831SOL    HW1 9098   3.593   5.579   5.161  0.5371  0.0401  1.1061
  831SOL    HW2 9099   3.475   5.650   5.224 -1.9410 -1.9856 -1.0067
  832SOL     OW 9100   7.039   8.688   9.316 -0.0375 -0.0910 -0.3117
  832SOL    HW1 9101   7.008   8.743   9.244 -2.0123 -1.0645 -0.2788
  832SOL    HW2 9102   7.038   8.599   9.280  1.7215 -0.3024  0.0747
  833SOL     OW 9103   1.543   8.141   8.820 -0.3217  0.0453 -0.4676
  833SOL    HW1 9104   1.480   8.113   8.886 -1.7809  0.0861 -1.7944
  833SOL    HW2 9105   1.628   8.111   8.854 -1.1052 -0.5541  1.0610
  834SOL     OW 9106   3.074  10.442   9.983  0.2718  0.4313 -0.0892
  834SOL    HW1 9107   3.104  10.389  10.057 -0.8806 -0.1217  0.0114
  834SOL    HW2 9108   3.149  10.445   9.924  0.4046 -1.2855 -0.0781
  835SOL     OW 9109   1.516   7.714  12.124  0.4386 -0.3305  0.2236
  835SOL    HW1 9110   1.453   7.665  12.071 -0.1785  1.4639 -0.8025
  835SOL    HW2 9111   1.466   7.739  12.202  0.7033 -1.1489  0.6667
  836SOL     OW 9112   1.135   0.860  12.693  0.2657 -0.0283  0.0818
  836SOL    HW1 9113   1.150   0.922  12.764  0.6320 -0.1944  0.1471
  836SOL    HW2 9114   1.221   0.824  12.672  0.4870  1.3913 -1.7127
  837SOL     OW 9115   6.594  12.333   6.557  0.1193 -0.0142  0.0384
  837SOL    HW1 9116   6.544  12.401   6.512  0.1616  0.7304  1.0960
  837SOL    HW2 9117   6.629  12.376   6.635  0.9833 -0.9876  0.2019
  838SOL     OW 9118  10.501   3.672   3.074 -0.2570 -0.0245 -0.4160
  838SOL    HW1 9119  10.543   3.589   3.099  0.0620  0.2634  0.0237
  838SOL    HW2 9120  10.563   3.713   3.014 -0.2163  0.0904 -0.2968
  839SOL     OW 9121  10.847  12.495   1.843 -0.3578  0.2469 -0.5250
  839SOL    HW1 9122  10.856  12.579   1.799  1.4633 -0.5852 -1.8835
  839SOL    HW2 9123  10.857  12.430   1.773 -0.3808 -1.1184  0.6760
  840SOL     OW 9124  10.883   8.559   5.855  0.1347 -0.1619  0.3511
  840SOL    HW1 9125  10.972   8.594   5.851 -0.1290  1.0620  3.1049
  840SOL    HW2 9126  10.840   8.593   5.776  1.5416  0.9094  0.0113
  841SOL     OW 9127   6.550   4.355   8.966  0.1991  0.3558  0.1936
  841SOL    HW1 9128   6.460   4.388   8.959  0.6411  1.4782 -0.4000
  841SOL    HW2 9129   6.599   4.428   9.004  0.6358 -0.6871  1.7359
  842SOL     OW 9130   5.148   8.943   6.130  0.6925  0.2755  0.2383
  842SOL    HW1 9131   5.094   8.864   6.121  0.2830  0.5050  0.6279
  842SOL    HW2 9132   5.093   9.014   6.097 -0.1390  0.8528  2.6357
  843SOL     OW 9133   4.747   9.164  10.992 -0.3312  0.2893 -0.3477
  843SOL    HW1 9134   4.660   9.182  10.958 -0.0323 -2.1617 -2.7770
  843SOL    HW2 9135   4.796   9.131  10.917  1.1771 -3.0986  1.8714
  844SOL     OW 9136   6.609   1.700   3.908  0.1495 -0.4193  0.6577
  844SOL    HW1 9137   6.649   1.621   3.872 -1.5559 -1.4564  0.9276
  844SOL    HW2 9138   6.672   1.732   3.973  0.2712 -2.3771  1.5678
  845SOL     OW 9139   2.900   7.566   5.524  0.0805 -0.1966 -0.5660
  845SOL    HW1 9140   2.922   7.494   5.584  0.4791 -0.1101 -0.6073
  845SOL    HW2 9141   2.804   7.566   5.522  0.0658 -0.3559 -0.1179
  846SOL     OW 9142   7.226  10.562   3.373  0.5079 -0.3633 -0.2710
  846SOL    HW1 9143   7.278  10.525   3.301  1.3501  1.8584 -0.8638
  846SOL    HW2 9144   7.137  10.532   3.355  1.1599 -2.3093 -0.5334
  847SOL     OW 9145   3.371  11.111  11.129 -0.3854 -0.1356  0.4697
  847SOL    HW1 9146   3.461  11.080  11.138 -0.2274 -0.7799 -2.2909
  847SOL    HW2 9147   3.371  11.198  11.170  1.0745 -0.7579  1.8564
  848SOL     OW 9148   6.737  12.316  10.494 -0.9584 -0.5357  0.2787
  848SOL    HW1 9149   6.798  12.252  10.529 -0.7282 -1.5346 -1.8003
  848SOL    HW2 9150   6.702  12.361  10.571  1.0681 -1.1241  1.6263
  849SOL     OW 9151   4.252   9.221   2.892 -0.3276 -0.0326  0.6126
  849SOL    HW1 9152   4.243   9.261   2.805 -1.9759 -0.3346  0.5966
  849SOL    HW2 9153   4.335   9.174   2.888  0.7561  1.8148  0.0006
  850SOL     OW 9154   6.921  12.190   2.283 -0.7488 -0.5420 -0.1708
  850SOL    HW1 9155   6.955  12.243   2.355  1.3414  1.8623 -2.6486
  850SOL    HW2 9156   6.857  12.247   2.240 -0.0211 -0.7906 -1.6699
  851SOL     OW 9157   5.552   9.335  12.257  0.1604  0.3660 -0.4007
  851SOL    HW1 9158   5.549   9.430  12.258 -0.9838  0.3424  0.4714
  851SOL    HW2 9159   5.603   9.312  12.335 -2.1212  0.2472  1.1407
  852SOL     OW 9160   0.670   8.328   8.945 -0.2115  0.5852 -0.1389
  852SOL    HW1 9161   0.694   8.342   9.036 -0.9783  2.1483 -0.1405
  852SOL    HW2 9162   0.590   8.379   8.933  0.4096  1.2377 -1.9172
  853SOL     OW 9163   9.045   6.210  10.906 -0.0525 -0.6799  0.1742
  853SOL    HW1 9164   9.139   6.219  10.890 -0.0736  0.7796  0.7614
  853SOL    HW2 9165   9.030   6.116  10.903  1.2117 -0.8883 -1.1329
  854SOL     OW 9166   1.414  11.974  10.826 -0.0393  0.2842  0.3616
  854SOL    HW1 9167   1.365  11.941  10.750  1.2250 -1.7582  0.3858
  854SOL    HW2 9168   1.498  12.003  10.789  0.3438 -0.1407  0.8985
  855SOL     OW 9169   6.006   7.155   1.078 -0.0767  0.4903 -0.1387
  855SOL    HW1 9170   6.047   7.132   0.994  2.0843  2.8436  0.1354
  855SOL    HW2 9171   6.049   7.237   1.103 -0.9403  0.0629  3.1060
  856SOL     OW 9172  12.249   8.196  12.226  0.3532  0.0424 -0.0384
  856SOL    HW1 9173  12.283   8.245  12.151 -0.1434  2.9025  1.4644
  856SOL    HW2 9174  12.154   8.197  12.214  0.3515 -0.8758 -0.1464
  857SOL     OW 9175   9.525  10.605  10.473  0.3164  0.3220  0.1845
  857SOL    HW1 9176   9.440  10.587  10.433  0.8139  1.4166 -1.4599
  857SOL    HW2 9177   9.586  10.548  10.426  0.6811  0.4524  0.4934
  858SOL     OW 9178  11.622   3.235   1.901  0.4492 -0.2368 -0.8762
  858SOL    HW1 9179  11.561   3.309   1.897 -0.7644 -1.2628 -3.2199
  858SOL    HW2 9180  11.702   3.267   1.860  0.5296  0.2894 -0.3114
  859SOL     OW 9181   5.893   9.523   3.843  0.0997 -0.2035  0.2857
  859SOL    HW1 9182   5.982   9.524   3.879  0.4334 -1.3481 -0.4540
  859SOL    HW2 9183   5.847   9.456   3.894  0.0250 -0.4907 -0.1570
  860SOL     OW 9184   9.867  12.343   7.758  0.4903  0.3403 -0.2917
  860SOL    HW1 9185   9.837  12.375   7.844  0.9114  1.1589 -0.4430
  860SOL    HW2 9186   9.945  12.292   7.777  0.5250  0.4358 -0.1753
  861SOL     OW 9187   0.579   0.233   3.603 -0.2145 -0.3469 -0.1440
  861SOL    HW1 9188   0.491   0.219   3.639 -0.4771 -1.1306 -1.0880
  861SOL    HW2 9189   0.621   0.290   3.668 -1.5115  0.3009  0.1779
  862SOL     OW 9190   6.437   9.733   0.634  0.2193  0.2157 -0.2022
  862SOL    HW1 9191   6.354   9.779   0.649  0.9091  1.3003  0.3745
  862SOL    HW2 9192   6.414   9.641   0.642 -0.9237  0.4955  0.0114
  863SOL     OW 9193   5.290   7.713   9.316 -0.1255 -0.6886  0.5872
  863SOL    HW1 9194   5.302   7.779   9.384 -2.0386  0.7235 -0.3569
  863SOL    HW2 9195   5.281   7.631   9.364 -2.3025  0.3832  2.1648
  864SOL     OW 9196   9.819   1.619   8.713 -0.1387  0.2685  0.2231
  864SOL    HW1 9197   9.868   1.551   8.759 -1.6807 -1.4041 -0.4872
  864SOL    HW2 9198   9.851   1.614   8.622 -0.9889 -0.2781 -0.0618
  865SOL     OW 9199   6.807   2.260   0.565  0.0452 -0.2127 -0.4533
  865SOL    HW1 9200   6.827   2.348   0.533 -1.2239  0.2718  0.0392
  865SOL    HW2 9201   6.715   2.246   0.544 -0.1500 -0.8608  0.7152
  866SOL     OW 9202  10.024   2.383  12.162 -0.8303 -0.3312 -0.3869
  866SOL    HW1 9203  10.054   2.452  12.103 -1.4036  0.6901  0.4686
  866SOL    HW2 9204  10.077   2.307  12.140  1.9501  1.1803  0.5904
  867SOL     OW 9205  12.589   6.155  10.939  0.0279 -0.1469  0.1337
  867SOL    HW1 9206  12.571   6.232  10.993  0.2825  1.4943 -2.0050
  867SOL    HW2 9207  12.684   6.141  10.948  0.2118  0.6429 -0.5372
  868SOL     OW 9208   6.092   0.953   9.434 -0.1441  0.9226  0.0313
  868SOL    HW1 9209   6.110   1.044   9.412  2.6065  0.2566 -0.8259
  868SOL    HW2 9210   6.112   0.946   9.528 -0.0389  1.1098  0.0226
  869SOL     OW 9211   7.293   1.616  11.961 -0.2180 -0.0021  0.0660
  869SOL    HW1 9212   7.354   1.591  11.891  0.1063  1.0486 -0.0438
  869SOL    HW2 9213   7.243   1.689  11.924 -0.8506 -0.2003  0.5215
  870SOL     OW 9214   2.211   5.607   4.037  0.0106  0.2384  0.4505
  870SOL    HW1 9215   2.188   5.531   3.983 -0.8668  0.4695  0.4881
  870SOL    HW2 9216   2.194   5.682   3.980  2.6330  0.3968 -0.2609
  871SOL     OW 9217   2.014   7.337  12.528  0.7551  0.3756  0.0632
  871SOL    HW1 9218   1.954   7.407  12.504  1.0312  0.4325 -0.4789
  871SOL    HW2 9219   1.963   7.281  12.586 -0.1219 -0.0442 -1.0590
  872SOL     OW 9220   5.904   6.667   1.880  0.4017  0.1650  0.2442
  872SOL    HW1 9221   5.956   6.593   1.909  0.2483  0.2961  0.8736
  872SOL    HW2 9222   5.967   6.727   1.840  0.8242  0.5432  1.4348
  873SOL     OW 9223   5.962   6.801   3.305  0.4323 -0.5573  0.1249
  873SOL    HW1 9224   6.009   6.859   3.365 -0.1922  1.5821 -1.3292
  873SOL    HW2 9225   6.028   6.773   3.242  0.0086  2.0550 -1.6312
  874SOL     OW 9226   5.346   9.827   1.070  0.4771 -0.2781  0.6910
  874SOL    HW1 9227   5.337   9.735   1.046 -1.0249  0.4007 -1.6661
  874SOL    HW2 9228   5.280   9.840   1.139 -1.0327 -0.4692 -0.6643
  875SOL     OW 9229   8.353   6.263  10.836  0.0603 -0.1599 -0.2091
  875SOL    HW1 9230   8.275   6.212  10.859  0.3075 -0.8596 -0.8528
  875SOL    HW2 9231   8.426   6.212  10.872  0.2556  0.1592 -0.1571
  876SOL     OW 9232   9.707  12.671   3.420  0.2352  0.3694 -0.3423
  876SOL    HW1 9233   9.664  12.748   3.384  2.1442  0.8906 -1.6306
  876SOL    HW2 9234   9.716  12.691   3.514  0.2990  1.5029 -0.5780
  877SOL     OW 9235   2.305  10.873   4.073 -0.1182  0.7395  0.4886
  877SOL    HW1 9236   2.308  10.781   4.101  2.0273  0.3282 -0.8534
  877SOL    HW2 9237   2.279  10.921   4.152 -2.1076 -1.0516  1.0201
  878SOL     OW 9238   5.034   9.998   2.490  0.4867 -0.2510  0.9114
  878SOL    HW1 9239   4.974   9.981   2.562  1.6146  1.3844  2.3339
  878SOL    HW2 9240   4.980  10.037   2.421 -0.7710 -2.6380  0.4177
  879SOL     OW 9241   6.597  10.036   5.723  0.3539 -0.0115  0.1907
  879SOL    HW1 9242   6.610  10.046   5.629  2.0022 -0.3423  0.3480
  879SOL    HW2 9243   6.596   9.941   5.737 -1.8378 -0.0118  0.3016
  880SOL     OW 9244   5.867   1.772  11.642 -0.3978 -0.0008  0.0347
  880SOL    HW1 9245   5.800   1.828  11.603  0.1039  0.4136 -0.2540
  880SOL    HW2 9246   5.832   1.748  11.728 -1.1161 -0.1761 -0.3017
  881SOL     OW 9247   1.692  11.872  11.677 -0.6042  0.4622  0.4243
  881SOL    HW1 9248   1.761  11.933  11.649  0.0420 -0.3276  0.2638
  881SOL    HW2 9249   1.722  11.838  11.761  0.3007 -1.5368 -0.6577
  882SOL     OW 9250   8.209   1.411   6.894 -0.0862  0.4990 -0.0736
  882SOL    HW1 9251   8.136   1.353   6.915 -1.1803  2.0332  0.5002
  882SOL    HW2 9252   8.172   1.478   6.837  1.3166  0.2928 -1.2871
  883SOL     OW 9253   1.599   3.665   4.725 -0.3525 -0.5698 -0.1567
  883SOL    HW1 9254   1.653   3.738   4.696 -1.9094  0.3102 -0.9619
  883SOL    HW2 9255   1.514   3.704   4.745 -1.2160 -2.1573 -0.5752
  884SOL     OW 9256  11.077   2.828  12.576  0.2647  0.7464 -0.2845
  884SOL    HW1 9257  11.133   2.905  12.568  0.7670  0.2996 -1.1832
  884SOL    HW2 9258  11.133   2.762  12.618  0.6828  0.0518 -1.8791
  885SOL     OW 9259   0.915   6.193   2.216 -0.0767  0.2967  0.4336
  885SOL    HW1 9260   0.973   6.146   2.275  0.1722  0.8597  0.6487
  885SOL    HW2 9261   0.954   6.280   2.209  0.2172  0.0682 -1.0209
  886SOL     OW 9262   1.343   9.269   4.669  0.5187 -0.8159 -0.5007
  886SOL    HW1 9263   1.284   9.195   4.686 -1.2586  0.7924  0.8495
  886SOL    HW2 9264   1.429   9.238   4.700 -0.1003 -2.3961 -0.2302
  887SOL     OW 9265   1.884  10.090   2.911  0.7596  0.3292 -0.2558
  887SOL    HW1 9266   1.912  10.136   2.989  1.1868 -0.0428 -0.1876
  887SOL    HW2 9267   1.811  10.035   2.940  0.6091  0.5475 -0.2212
  888SOL     OW 9268   5.656   7.428   9.244  0.3951  0.2671 -0.0184
  888SOL    HW1 9269   5.674   7.346   9.288  0.8145 -0.1571 -0.9470
  888SOL    HW2 9270   5.560   7.437   9.246  0.2207 -0.9991 -1.1883
  889SOL     OW 9271   9.836   3.151   1.893  0.8591 -0.5286  0.6104
  889SOL    HW1 9272   9.791   3.235   1.902  2.6983  0.3438  2.3506
  889SOL    HW2 9273   9.889   3.160   1.814  0.8357 -0.1423  0.6371
  890SOL     OW 9274   5.352   6.222  10.493 -0.0029  0.4569  0.3326
  890SOL    HW1 9275   5.292   6.175  10.551  1.3478 -0.2439  1.2308
  890SOL    HW2 9276   5.431   6.234  10.546  2.0998 -2.0279 -1.9292
  891SOL     OW 9277   3.954   4.314  10.244 -0.5495 -0.2897 -0.0394
  891SOL    HW1 9278   3.943   4.343  10.154 -1.9229  0.9392  0.4951
  891SOL    HW2 9279   4.031   4.361  10.275 -0.2073 -0.5462 -0.4755
  892SOL     OW 9280  10.260   1.851   3.029 -0.3534  0.1010 -0.3477
  892SOL    HW1 9281  10.234   1.778   2.971 -0.7801  0.4260 -0.5701
  892SOL    HW2 9282  10.317   1.810   3.094  1.0282 -0.0918 -1.6303
  893SOL     OW 9283   2.041   7.046   2.268 -0.5127  0.4104 -0.4416
  893SOL    HW1 9284   1.974   6.985   2.238 -0.3392  0.4049 -0.8306
  893SOL    HW2 9285   2.080   7.005   2.345 -1.5006  0.7785  0.2779
  894SOL     OW 9286   8.726   1.564   7.508  0.6399  0.3279 -0.2296
  894SOL    HW1 9287   8.806   1.554   7.456 -0.8809  1.0246 -2.8950
  894SOL    HW2 9288   8.680   1.481   7.497  0.0703  0.6651 -0.4305
  895SOL     OW 9289  10.039   5.002  12.525 -0.0490  0.0339 -0.0258
  895SOL    HW1 9290  10.120   5.052  12.529  1.2688 -1.9572 -0.3437
  895SOL    HW2 9291  10.067   4.912  12.510 -2.3697 -0.5970 -1.0750
  896SOL     OW 9292   5.397   8.622   3.550 -0.0835  0.1016  0.2939
  896SOL    HW1 9293   5.465   8.554   3.555 -0.2553 -0.0538  0.5406
  896SOL    HW2 9294   5.324   8.578   3.507  0.2578  0.5072 -0.7197
  897SOL     OW 9295   4.145   5.779  12.127  0.0777 -0.8681  0.5211
  897SOL    HW1 9296   4.224   5.801  12.176  1.1835 -0.9426 -1.1267
  897SOL    HW2 9297   4.109   5.864  12.101  0.5631 -0.8522 -0.1262
  898SOL     OW 9298   0.855  12.092   5.685  0.8753  0.3985 -0.1519
  898SOL    HW1 9299   0.789  12.121   5.749  0.8383 -1.7820  0.9143
  898SOL    HW2 9300   0.808  12.031   5.629  1.5669  0.2093 -0.5303
  899SOL     OW 9301   0.897   5.690   0.415  0.1957 -0.2533  0.3449
  899SOL    HW1 9302   0.875   5.758   0.351  0.2942  0.2689  0.8584
  899SOL    HW2 9303   0.983   5.716   0.448  0.2371 -0.6365  0.5438
  900SOL     OW 9304   8.155   8.680   4.161  0.3223  1.0200 -0.0129
  900SOL    HW1 9305   8.216   8.724   4.220 -0.3968  1.0118  0.7638
  900SOL    HW2 9306   8.078   8.738   4.160 -0.2006  0.3355  0.1375
  901SOL     OW 9307   0.081   4.136   4.048  0.5501  0.5989 -0.7529
  901SOL    HW1 9308   0.098   4.229   4.031  0.5846  0.6658 -0.3432
  901SOL    HW2 9309   0.168   4.097   4.054  0.6127  0.9439  1.3638
  902SOL     OW 9310   7.695  10.894  10.172 -0.1168  0.2364 -0.7694
  902SOL    HW1 9311   7.672  10.982  10.142 -0.3717  1.0389  1.5910
  902SOL    HW2 9312   7.612  10.846  10.172 -0.0447  0.1040 -1.6867
  903SOL     OW 9313   6.620   6.713   8.504  0.0385  0.2976  0.1051
  903SOL    HW1 9314   6.618   6.733   8.598  0.4272  0.7183  0.0311
  903SOL    HW2 9315   6.591   6.622   8.498  1.6599 -0.3034  0.8063
  904SOL     OW 9316  11.616   4.274   3.023 -0.0905  0.2316 -0.4804
  904SOL    HW1 9317  11.572   4.260   3.107 -0.8702  1.6884 -0.6163
  904SOL    HW2 9318  11.551   4.249   2.957  0.5132 -0.8858 -0.6743
  905SOL     OW 9319   6.735   7.540   7.611  0.2911 -0.1627 -0.4402
  905SOL    HW1 9320   6.799   7.603   7.579 -1.2932  1.3449 -0.7573
  905SOL    HW2 9321   6.762   7.523   7.701  0.8534  0.8258 -0.4073
  906SOL     OW 9322   8.200   6.224   9.625  0.2075 -0.2660  0.0377
  906SOL    HW1 9323   8.201   6.315   9.655  3.5600 -0.3583  0.5979
  906SOL    HW2 9324   8.170   6.228   9.534  2.1474  1.7255 -0.5953
  907SOL     OW 9325   9.581   0.017   7.738 -0.0841  0.3023 -0.4813
  907SOL    HW1 9326   9.653   0.004   7.677 -0.3470 -0.6079 -0.6250
  907SOL    HW2 9327   9.521   0.076   7.693  0.4633  0.8931 -0.4473
  908SOL     OW 9328  10.523   4.706   3.985 -0.0824 -0.5255 -0.1165
  908SOL    HW1 9329  10.452   4.689   3.924  0.2183 -0.5002 -0.4824
  908SOL    HW2 9330  10.592   4.645   3.959 -0.2141 -1.0079  0.6557
  909SOL     OW 9331  10.953   7.308   9.298  0.1291 -0.1210 -0.3379
  909SOL    HW1 9332  10.978   7.320   9.390  0.5422 -0.0094 -0.4632
  909SOL    HW2 9333  11.006   7.235   9.268  1.1997  0.8805 -0.9413
  910SOL     OW 9334   8.398  10.395   3.361 -0.4110  0.3743 -0.3535
  910SOL    HW1 9335   8.306  10.381   3.382 -0.5084  0.0982 -0.9452
  910SOL    HW2 9336   8.397  10.455   3.287 -0.0418  2.3026  1.1334
  911SOL     OW 9337   6.531   0.439   2.825 -0.4841 -0.3223 -0.5819
  911SOL    HW1 9338   6.553   0.495   2.899  0.8665 -1.3056 -0.1994
  911SOL    HW2 9339   6.450   0.395   2.852 -0.4276 -0.0887 -0.0081
  912SOL     OW 9340   2.720   7.335   8.097  0.1039 -0.1238 -0.4648
  912SOL    HW1 9341   2.802   7.355   8.141 -0.7837  1.5052  0.5504
  912SOL    HW2 9342   2.698   7.246   8.126  0.3479  0.3089  1.1298
  913SOL     OW 9343   2.813  11.032   1.980  0.2216 -0.2033 -0.4721
  913SOL    HW1 9344   2.824  11.089   2.055  1.0095 -0.8918 -0.0471
  913SOL    HW2 9345   2.720  11.007   1.981  0.6420 -1.9427  1.5759
  914SOL     OW 9346   9.581   3.806   2.934  0.3900  0.0277  0.2132
  914SOL    HW1 9347   9.536   3.722   2.935 -0.2613  0.3611 -0.7632
  914SOL    HW2 9348   9.549   3.850   3.013  1.0386 -0.7731  0.9559
  915SOL     OW 9349   8.153   8.580   1.348 -0.2425 -0.1741 -0.1304
  915SOL    HW1 9350   8.116   8.626   1.423 -0.0129  0.4341 -0.3916
  915SOL    HW2 9351   8.240   8.554   1.377 -0.6518 -1.1371  0.2921
  916SOL     OW 9352   0.197  11.060   9.084  0.0057 -0.2535 -0.3373
  916SOL    HW1 9353   0.145  11.083   9.161  1.3256 -1.5858  1.0145
  916SOL    HW2 9354   0.185  11.133   9.024 -3.6915 -0.6204 -0.2911
  917SOL     OW 9355   7.235   0.858   3.474  0.3514 -0.3314  0.1754
  917SOL    HW1 9356   7.244   0.775   3.521  2.4356 -0.1159  0.2251
  917SOL    HW2 9357   7.198   0.833   3.389 -1.9364 -0.9048  1.2392
  918SOL     OW 9358   0.827   8.562  11.324 -0.1613 -0.0524 -0.3081
  918SOL    HW1 9359   0.908   8.559  11.374 -0.1844 -0.4592 -0.2876
  918SOL    HW2 9360   0.758   8.564  11.390 -0.2013 -0.8962 -0.3170
  919SOL     OW 9361   7.341   1.170  10.509 -0.1038  0.2761 -1.0881
  919SOL    HW1 9362   7.352   1.265  10.522 -0.5491  0.3774 -1.4138
  919SOL    HW2 9363   7.331   1.160  10.414  0.1374 -0.1212 -1.0733
  920SOL     OW 9364  12.256   5.793  12.516 -0.0988 -0.4687 -0.0433
  920SOL    HW1 9365  12.262   5.776  12.422  0.4878  0.3831 -0.1763
  920SOL    HW2 9366  12.346   5.781  12.548 -0.0588  0.3789  0.1942
  921SOL     OW 9367   8.729   0.524  12.086 -0.0074 -0.3161 -0.1242
  921SOL    HW1 9368   8.785   0.469  12.141 -0.3346  0.5261  1.0632
  921SOL    HW2 9369   8.645   0.479  12.085 -0.2619  0.1343  0.8111
  922SOL     OW 9370   4.890   8.530   3.917 -0.0948  0.8919  0.2937
  922SOL    HW1 9371   4.861   8.572   3.998 -1.4209 -0.0781  0.3572
  922SOL    HW2 9372   4.847   8.579   3.847 -1.2787 -0.0339  0.3454
  923SOL     OW 9373  11.337   1.074   5.396 -0.0312 -0.1609 -0.4798
  923SOL    HW1 9374  11.386   1.068   5.314  1.1913  1.6241  0.0664
  923SOL    HW2 9375  11.393   1.033   5.461 -0.4912 -0.5502 -0.3230
  924SOL     OW 9376  10.274   0.740   0.049  0.4171 -0.2272 -0.1434
  924SOL    HW1 9377  10.325   0.730  -0.031 -0.1882 -0.8196 -0.4659
  924SOL    HW2 9378  10.252   0.833   0.052  1.6697  0.0807  0.1114
  925SOL     OW 9379   5.345  12.534   1.297 -0.1981  0.2517 -0.3020
  925SOL    HW1 9380   5.299  12.575   1.224  2.0912  0.4646 -1.7155
  925SOL    HW2 9381   5.380  12.606   1.348  1.3733  0.1349 -1.1569
  926SOL     OW 9382   0.534   5.356   9.014  0.2369 -0.6988 -0.2015
  926SOL    HW1 9383   0.455   5.327   8.967 -1.2634  0.0995  1.6769
  926SOL    HW2 9384   0.521   5.324   9.104  1.0741  1.1431  0.6193
  927SOL     OW 9385   5.206   0.001   0.684 -0.0085  0.2461  0.5868
  927SOL    HW1 9386   5.208  -0.080   0.736 -1.4571 -0.3957 -0.3258
  927SOL    HW2 9387   5.163  -0.023   0.602 -0.9272  2.0544  0.4900
  928SOL     OW 9388  10.458  12.287  11.273 -0.4855 -0.1316  1.7636
  928SOL    HW1 9389  10.419  12.321  11.193 -1.3621 -0.3088  2.0985
  928SOL    HW2 9390  10.417  12.338  11.343 -0.6956 -0.8557  2.1770
  929SOL     OW 9391   2.536   1.972   4.655  0.0146  0.3100  0.3638
  929SOL    HW1 9392   2.468   1.963   4.590  0.6275 -0.2523 -0.2113
  929SOL    HW2 9393   2.555   1.883   4.683  1.5169  0.3074 -0.5533
  930SOL     OW 9394   8.626   2.161   2.229  0.3452 -0.3290  0.1766
  930SOL    HW1 9395   8.658   2.166   2.139 -1.3168  0.7982 -0.4022
  930SOL    HW2 9396   8.680   2.094   2.270  0.4876 -1.5845 -1.9324
  931SOL     OW 9397   9.637  10.744   8.587 -0.2617 -0.3054  0.9782
  931SOL    HW1 9398   9.654  10.693   8.508 -4.3658  0.5857 -0.7225
  931SOL    HW2 9399   9.656  10.684   8.659  1.6632 -1.8252 -0.6998
  932SOL     OW 9400   7.177  12.652   4.930 -0.3811 -0.0608  0.2007
  932SOL    HW1 9401   7.143  12.570   4.895 -0.4416 -0.5283  1.3031
  932SOL    HW2 9402   7.122  12.719   4.890 -2.2586 -0.7564  1.4680
  933SOL     OW 9403   5.638   1.092   7.992  0.5017  0.5059  0.2593
  933SOL    HW1 9404   5.662   1.156   8.060 -0.5377  1.6228 -0.3977
  933SOL    HW2 9405   5.694   1.115   7.918  1.3955 -0.5051  0.5891
  934SOL     OW 9406   6.577   9.486  10.226 -0.3468 -0.0017 -0.0448
  934SOL    HW1 9407   6.534   9.572  10.230  0.1356  0.2840 -0.8420
  934SOL    HW2 9408   6.546   9.441  10.304 -2.4989  0.0067 -0.8172
  935SOL     OW 9409  12.245   6.555   4.721  0.3074  0.2174  0.6081
  935SOL    HW1 9410  12.199   6.474   4.740 -0.9424  0.5765 -0.6775
  935SOL    HW2 9411  12.261   6.553   4.627  1.1138  1.0337  0.7054
  936SOL     OW 9412  11.872  12.049  11.420 -0.4196  0.0148 -0.2346
  936SOL    HW1 9413  11.860  12.110  11.492 -0.6054 -0.8532  0.4959
  936SOL    HW2 9414  11.783  12.031  11.389 -0.5000 -0.9919  0.5243
  937SOL     OW 9415   5.819   8.391   9.532  0.0883  0.1513 -0.3930
  937SOL    HW1 9416   5.739   8.359   9.490 -0.7828  1.0464  0.4794
  937SOL    HW2 9417   5.865   8.439   9.464 -0.1373 -0.3649 -0.9108
  938SOL     OW 9418   0.346   9.146   1.219  0.5529 -0.1160 -0.0247
  938SOL    HW1 9419   0.381   9.191   1.142 -1.3482  0.2009 -0.7666
  938SOL    HW2 9420   0.252   9.164   1.217  0.1728 -1.6417  1.3504
  939SOL     OW 9421  10.403   2.120   1.141 -0.2111 -0.3664  0.2518
  939SOL    HW1 9422  10.429   2.028   1.135 -0.6912 -0.4523 -0.8013
  939SOL    HW2 9423  10.459   2.164   1.077  0.2328  0.1346  0.9704
  940SOL     OW 9424  12.086   0.499   5.886  0.1843  0.5016 -0.6129
  940SOL    HW1 9425  12.061   0.430   5.825  1.3637 -0.0131 -0.5441
  940SOL    HW2 9426  12.149   0.553   5.837 -1.3409  2.0518 -0.9587
  941SOL     OW 9427   7.612   4.483  10.533  0.1487  0.9142 -0.0112
  941SOL    HW1 9428   7.649   4.396  10.553 -0.2960  1.1037  1.7718
  941SOL    HW2 9429   7.550   4.467  10.462 -1.7793 -0.7160  1.9036
  942SOL     OW 9430   4.125   8.032   7.799 -0.6326 -0.6748 -0.4038
  942SOL    HW1 9431   4.133   8.122   7.768 -0.5668 -0.8694 -0.9658
  942SOL    HW2 9432   4.051   7.996   7.750  0.4805 -1.4806 -1.5496
  943SOL     OW 9433   6.836   0.064   6.630 -0.3456  0.5749  0.0134
  943SOL    HW1 9434   6.858   0.052   6.537 -2.5783  2.7932 -0.9182
  943SOL    HW2 9435   6.777  -0.009   6.650 -0.7763  0.7370 -0.6467
  944SOL     OW 9436   4.750  10.488   1.623  0.1513  0.2305 -0.5756
  944SOL    HW1 9437   4.776  10.432   1.696  0.2786  2.2004  1.0031
  944SOL    HW2 9438   4.657  10.469   1.611  0.7863 -2.3259 -2.0360
  945SOL     OW 9439   9.549   5.132   8.887  0.1747  0.2235  0.0396
  945SOL    HW1 9440   9.595   5.116   8.969 -0.1633  1.2066  0.4358
  945SOL    HW2 9441   9.618   5.143   8.822  0.4855 -3.9361 -0.5749
  946SOL     OW 9442   5.564   9.187  10.784  0.3022  0.3580 -0.2677
  946SOL    HW1 9443   5.496   9.191  10.851 -1.2976 -2.3865 -1.5910
  946SOL    HW2 9444   5.625   9.121  10.815 -0.3943 -0.8569 -1.4017
  947SOL     OW 9445   6.765  11.042   3.065 -0.0548 -0.3387 -0.7200
  947SOL    HW1 9446   6.704  11.046   3.139 -1.7712 -1.4785 -1.9906
  947SOL    HW2 9447   6.786  10.949   3.056  2.1286  0.0321 -0.1840
  948SOL     OW 9448   8.949   9.107   9.714 -0.4506 -0.0910 -0.1103
  948SOL    HW1 9449   9.016   9.065   9.661  0.1159 -0.5068  0.9000
  948SOL    HW2 9450   8.869   9.098   9.663  0.2561  0.4406 -1.3512
  949SOL     OW 9451   5.616   3.449   3.185 -0.2833 -0.0121 -0.6967
  949SOL    HW1 9452   5.695   3.423   3.231 -0.9430  1.7099  1.6366
  949SOL    HW2 9453   5.546   3.438   3.250 -1.5083  1.1712 -1.7546
  950SOL     OW 9454  10.342   7.085   1.867  0.5516 -0.2028  0.5967
  950SOL    HW1 9455  10.333   7.019   1.799 -0.0453  0.0824  0.3909
  950SOL    HW2 9456  10.367   7.035   1.945  1.1171 -0.5439  0.2093
  951SOL     OW 9457   8.636   3.304   0.837 -0.1042 -0.2355 -0.3943
  951SOL    HW1 9458   8.673   3.280   0.753  0.4837 -0.9452  0.0519
  951SOL    HW2 9459   8.657   3.230   0.895 -1.9792 -0.5573 -0.0438
  952SOL     OW 9460  12.459   1.577   6.415  0.0166 -0.2547 -0.2031
  952SOL    HW1 9461  12.371   1.538   6.414  0.4376 -1.2403 -0.5079
  952SOL    HW2 9462  12.517   1.506   6.387  1.0419  0.0741  0.9737
  953SOL     OW 9463  12.716   5.593   4.665 -0.1378 -0.6160 -0.4486
  953SOL    HW1 9464  12.728   5.526   4.597 -1.2512 -2.1062  0.7489
  953SOL    HW2 9465  12.686   5.544   4.741 -0.3986  1.2017  0.6696
  954SOL     OW 9466   8.381  10.913   4.772 -0.2391  0.0455  0.2911
  954SOL    HW1 9467   8.414  10.897   4.861  0.5603 -1.1623 -0.1955
  954SOL    HW2 9468   8.286  10.914   4.782 -0.1529  0.2570  1.2104
  955SOL     OW 9469   7.262   9.685   1.453  0.2657  0.0964 -0.2171
  955SOL    HW1 9470   7.234   9.626   1.384 -0.2330 -0.5982  0.5619
  955SOL    HW2 9471   7.257   9.633   1.533  1.5300  0.6679  0.2560
  956SOL     OW 9472   6.473  10.009   1.732  0.2718  0.0595  0.1102
  956SOL    HW1 9473   6.431  10.045   1.809 -0.6451 -1.7436  0.4919
  956SOL    HW2 9474   6.401   9.980   1.676  0.9531 -0.2508 -0.6291
  957SOL     OW 9475   7.625   2.689   0.075  0.0540 -0.0939  0.0502
  957SOL    HW1 9476   7.675   2.638   0.011 -0.2028  0.8636 -0.9417
  957SOL    HW2 9477   7.691   2.719   0.138  0.5830  0.3029 -0.6761
  958SOL     OW 9478  10.673   6.564   5.849  0.2449 -0.4579  0.3740
  958SOL    HW1 9479  10.658   6.598   5.937  2.5211  2.5982 -0.2461
  958SOL    HW2 9480  10.586   6.564   5.808 -0.4806  0.5001  1.8307
  959SOL     OW 9481   9.399   0.476  10.569  0.4715  0.3127  0.1006
  959SOL    HW1 9482   9.361   0.451  10.485  1.2596 -1.4885  0.2498
  959SOL    HW2 9483   9.326   0.470  10.631  0.2135  0.2681 -0.2065
  960SOL     OW 9484   0.234   4.453   2.870  0.0564  0.5334 -0.7561
  960SOL    HW1 9485   0.177   4.423   2.940  1.2160 -0.2921 -0.1487
  960SOL    HW2 9486   0.173   4.479   2.800 -1.1725  2.4765  0.9208
  961SOL     OW 9487   1.577  10.896   1.604  0.5644 -0.0758  0.3828
  961SOL    HW1 9488   1.574  10.904   1.508 -1.1865 -1.5601  0.2671
  961SOL    HW2 9489   1.520  10.822   1.624  3.0008 -1.5760  2.3996
  962SOL     OW 9490   3.823   5.265   2.406 -0.2153  0.2623  0.0137
  962SOL    HW1 9491   3.836   5.321   2.482  0.1447  2.9283 -1.8888
  962SOL    HW2 9492   3.729   5.268   2.390 -0.0666  1.3407 -0.7623
  963SOL     OW 9493   9.237   1.551   8.149  0.0712  0.1793 -0.0975
  963SOL    HW1 9494   9.228   1.623   8.211  0.9705 -0.8597  1.3103
  963SOL    HW2 9495   9.320   1.569   8.104 -0.1862  0.5181 -0.4437
  964SOL     OW 9496   2.016   1.610   8.919  0.0328 -0.0344 -0.3593
  964SOL    HW1 9497   2.076   1.678   8.950 -0.3044  0.3900 -0.6310
  964SOL    HW2 9498   1.980   1.644   8.837  0.3793 -0.8457 -0.8522
  965SOL     OW 9499  10.972  11.658   8.371 -0.6079 -0.3627  0.1698
  965SOL    HW1 9500  10.911  11.650   8.445 -1.2727 -1.2598 -0.4495
  965SOL    HW2 9501  10.916  11.672   8.295 -0.0216 -0.8167 -0.3579
  966SOL     OW 9502   5.480  12.022   6.333 -0.0507  0.3040 -0.3053
  966SOL    HW1 9503   5.434  12.001   6.414 -0.9875 -2.3007 -1.3853
  966SOL    HW2 9504   5.570  11.995   6.349 -0.0018  0.7615  0.2006
  967SOL     OW 9505   3.929   4.338   8.053 -0.0624 -0.2697 -0.4984
  967SOL    HW1 9506   3.904   4.270   7.990  0.7852 -1.8417  0.7690
  967SOL    HW2 9507   3.997   4.388   8.008 -0.1234 -0.7707 -1.1658
  968SOL     OW 9508  10.265   0.714   9.098  0.4245 -0.6115  0.2462
  968SOL    HW1 9509  10.245   0.716   9.005 -0.1519  0.0132  0.3791
  968SOL    HW2 9510  10.353   0.676   9.102  0.7498  0.0186 -0.6000
  969SOL     OW 9511   3.384   7.991  12.657 -0.4289  0.1106 -0.3767
  969SOL    HW1 9512   3.469   7.955  12.683  0.1395  1.2078 -0.6294
  969SOL    HW2 9513   3.325   7.969  12.729 -0.1037 -1.2299 -0.4947
  970SOL     OW 9514   4.697  10.724   6.668 -0.0705 -0.0955  0.2024
  970SOL    HW1 9515   4.752  10.768   6.734  0.2345 -1.5092  0.9422
  970SOL    HW2 9516   4.740  10.742   6.585  0.6029  0.1833  0.5990
  971SOL     OW 9517   9.051   5.962  10.634 -0.3612 -0.4199 -0.1094
  971SOL    HW1 9518   9.015   5.898  10.696  1.5962 -0.6134  0.8842
  971SOL    HW2 9519   8.973   6.004  10.596 -1.6531 -2.0521  0.6080
  972SOL     OW 9520   4.881   2.943   1.622  0.1561  0.3214 -0.3231
  972SOL    HW1 9521   4.857   2.926   1.531 -1.3517 -0.5617  0.1995
  972SOL    HW2 9522   4.964   2.896   1.634  0.0847 -0.0156 -1.0989
  973SOL     OW 9523  12.668   8.471   1.916  0.6577  0.1883 -0.4418
  973SOL    HW1 9524  12.637   8.513   1.836  1.0718  2.3311  0.4583
  973SOL    HW2 9525  12.593   8.420   1.947 -0.0475  0.6790 -1.3037
  974SOL     OW 9526   9.951  12.470   7.233  0.2587  0.2850  0.1548
  974SOL    HW1 9527   9.893  12.477   7.308  1.2121 -0.4231  0.9922
  974SOL    HW2 9528   9.893  12.449   7.160 -0.4916 -1.1566  1.1006
  975SOL     OW 9529   3.241   8.748   5.613 -0.5662 -0.5327 -0.0515
  975SOL    HW1 9530   3.294   8.680   5.571  1.3164  0.0159  1.2910
  975SOL    HW2 9531   3.189   8.701   5.679 -1.1337 -0.9621 -0.7893
  976SOL     OW 9532   4.069   8.972   3.196 -0.0081 -0.3486 -0.2850
  976SOL    HW1 9533   4.023   9.001   3.275  0.2720  1.3249 -0.6851
  976SOL    HW2 9534   4.080   9.052   3.145  1.1134 -1.1498 -1.3509
  977SOL     OW 9535   3.627   1.165   1.691  0.0651 -0.2195  0.2160
  977SOL    HW1 9536   3.589   1.253   1.691  1.2651  0.3144 -0.6399
  977SOL    HW2 9537   3.646   1.148   1.783  1.0587  0.9747  0.2569
  978SOL     OW 9538   3.702   9.411   9.725 -0.3518  0.7005 -0.2066
  978SOL    HW1 9539   3.761   9.340   9.749 -1.1717 -0.1152 -0.5446
  978SOL    HW2 9540   3.641   9.418   9.798 -0.2369  1.1102 -0.1433
  979SOL     OW 9541   0.958   4.159   9.978  0.1593 -0.1040 -0.0180
  979SOL    HW1 9542   0.870   4.176   9.946  0.4151  2.1787  0.3159
  979SOL    HW2 9543   1.006   4.127   9.902 -0.9919 -1.6657 -0.1306
  980SOL     OW 9544   7.041   0.736   4.176 -0.2243  0.0864  0.3830
  980SOL    HW1 9545   7.115   0.740   4.115 -0.1503  0.5425  0.4997
  980SOL    HW2 9546   6.964   0.734   4.120 -0.1047 -1.8658  0.2123
  981SOL     OW 9547   1.839   6.767   4.152 -0.1818  0.4171  0.3052
  981SOL    HW1 9548   1.846   6.783   4.057 -1.1529 -0.5887  0.0332
  981SOL    HW2 9549   1.929   6.760   4.182  0.1576  1.4707 -0.4169
  982SOL     OW 9550  10.737   2.337   3.720  0.0033 -0.1246  0.5865
  982SOL    HW1 9551  10.833   2.337   3.728 -0.0781  1.9562  3.0603
  982SOL    HW2 9552  10.718   2.408   3.659  0.0419  0.2725  1.0266
  983SOL     OW 9553  11.141   6.224  10.304  0.3033 -0.2607  0.2361
  983SOL    HW1 9554  11.057   6.209  10.347  0.8226 -1.1194  0.9984
  983SOL    HW2 9555  11.202   6.241  10.376  0.8618 -0.0296 -0.2846
  984SOL     OW 9556  11.562   4.866   1.474  0.0422 -0.1426 -0.5235
  984SOL    HW1 9557  11.521   4.862   1.388 -1.1119  0.0982 -0.0127
  984SOL    HW2 9558  11.643   4.915   1.460 -1.0270  1.5578 -1.1640
  985SOL     OW 9559   9.071   9.149  11.743 -0.3765 -0.1918 -0.3019
  985SOL    HW1 9560   8.998   9.151  11.681 -0.3488  0.6868 -0.3175
  985SOL    HW2 9561   9.144   9.190  11.697  0.5977 -2.3795 -0.8232
  986SOL     OW 9562  12.293  10.972   9.801 -0.3489 -0.4511  0.1033
  986SOL    HW1 9563  12.231  10.909   9.839 -0.8501  0.3745  0.6887
  986SOL    HW2 9564  12.238  11.048   9.778  0.6086  0.8447  1.8627
  987SOL     OW 9565  10.815   9.769   5.760 -0.0024  0.2000  0.5699
  987SOL    HW1 9566  10.799   9.748   5.853  1.2849 -1.6348  0.4374
  987SOL    HW2 9567  10.769   9.851   5.746  1.6431  1.8164  3.4587
  988SOL     OW 9568   0.270   0.263   7.645 -0.0427 -0.5195  0.8548
  988SOL    HW1 9569   0.199   0.308   7.691  0.7943 -0.3272  1.9982
  988SOL    HW2 9570   0.307   0.204   7.710 -0.0572 -1.6856 -0.1507
  989SOL     OW 9571  12.008   6.160  11.230  0.0420 -0.3994 -0.6350
  989SOL    HW1 9572  12.018   6.067  11.210  0.6787 -0.2436 -1.0793
  989SOL    HW2 9573  11.943   6.192  11.168 -0.6710 -0.6804 -0.0489
  990SOL     OW 9574   3.544   7.319   3.195  0.3165  0.7907  0.0523
  990SOL    HW1 9575   3.470   7.341   3.252 -0.4875  0.6942 -0.9247
  990SOL    HW2 9576   3.504   7.282   3.116  1.4430  0.0655 -0.2071
  991SOL     OW 9577   6.780   2.969   0.262 -0.6640 -0.3116  0.1149
  991SOL    HW1 9578   6.843   2.910   0.220  0.0487  0.3097  0.2916
  991SOL    HW2 9579   6.805   3.056   0.232 -2.2894 -0.1559 -0.8850
  992SOL     OW 9580  11.913   5.379   9.601  0.1230 -1.0920 -0.1013
  992SOL    HW1 9581  11.825   5.366   9.568  0.5226 -1.4355 -1.0797
  992SOL    HW2 9582  11.966   5.392   9.522  0.6644  0.8900  0.5472
  993SOL     OW 9583   6.217   2.466   3.879  0.0558  0.3432 -0.8637
  993SOL    HW1 9584   6.258   2.478   3.965 -0.2931 -1.3236 -0.4222
  993SOL    HW2 9585   6.123   2.461   3.898  0.0851 -2.1189 -1.0028
  994SOL     OW 9586   1.351   9.514   9.958  0.7170  0.2463 -0.2777
  994SOL    HW1 9587   1.373   9.607   9.951 -1.2278  0.7886  0.0521
  994SOL    HW2 9588   1.255   9.512   9.958  0.6803 -1.6104  1.5559
  995SOL     OW 9589   6.276   0.414   6.202  0.3232 -0.4126 -0.3696
  995SOL    HW1 9590   6.300   0.334   6.156 -0.3094 -2.2512  2.3148
  995SOL    HW2 9591   6.186   0.431   6.176  0.3797 -0.6911 -0.7558
  996SOL     OW 9592   0.981   9.311   8.120  0.4758  0.8447 -0.0935
  996SOL    HW1 9593   0.967   9.379   8.055  0.4373  0.4931 -0.4594
  996SOL    HW2 9594   1.076   9.298   8.121  0.5944  1.6860  0.7949
  997SOL     OW 9595   8.094  12.277   2.934  0.3629 -0.2716  0.1567
  997SOL    HW1 9596   8.064  12.361   2.900  0.4359 -0.1132  0.4815
  997SOL    HW2 9597   8.016  12.238   2.973  0.4988 -0.0141  0.6901
  998SOL     OW 9598  10.266   4.200  11.963 -0.2232  0.6883 -0.3752
  998SOL    HW1 9599  10.174   4.180  11.983 -0.2278  1.5802  0.5948
  998SOL    HW2 9600  10.313   4.180  12.044  0.4517  0.2114 -0.8761
  999SOL     OW 9601  10.786   6.843   2.040 -0.3330  0.2296 -0.0226
  999SOL    HW1 9602  10.851   6.777   2.063  0.8701  0.1206 -3.2110
  999SOL    HW2 9603  10.829   6.927   2.056 -0.0904  0.1743 -0.3758
 1000SOL     OW 9604  12.502   3.162   6.414 -0.0194 -0.2514  0.1594
 1000SOL    HW1 9605  12.506   3.071   6.445  1.4612  0.0690  0.9621
 1000SOL    HW2 9606  12.516   3.215   6.492  2.8144  0.5902 -0.7913
 1001SOL     OW 9607   3.694   6.105  11.842 -0.1078  0.2311  0.1741
 1001SOL    HW1 9608   3.758   6.173  11.862  1.4977 -0.6423 -1.6320
 1001SOL    HW2 9609   3.715   6.034  11.902  0.3384  0.1207 -0.1076
 1002SOL     OW 9610   1.912   2.876   5.271 -0.0774 -0.5553  0.3860
 1002SOL    HW1 9611   1.837   2.852   5.217 -0.3789 -0.6928  0.8586
 1002SOL    HW2 9612   1.988   2.863   5.214 -0.4044 -0.5215 -0.0594
 1003SOL     OW 9613  10.073   3.359   2.062 -0.1112 -0.3377 -0.1918
 1003SOL    HW1 9614  10.109   3.282   2.019 -0.4226 -0.7777  0.3181
 1003SOL    HW2 9615  10.137   3.428   2.046  2.1702 -1.5991  2.5444
 1004SOL     OW 9616  11.986   6.651   4.461 -0.1940 -0.4441 -0.1738
 1004SOL    HW1 9617  12.062   6.593   4.452 -0.0752 -0.4394  0.6834
 1004SOL    HW2 9618  11.914   6.602   4.421  0.9261  1.1231 -4.6695
 1005SOL     OW 9619  10.091   5.859   9.494 -0.0007  0.8067 -0.7588
 1005SOL    HW1 9620  10.043   5.788   9.451 -1.3322 -0.1456  2.0020
 1005SOL    HW2 9621  10.065   5.938   9.448 -1.8386 -0.0557 -1.2879
 1006SOL     OW 9622  12.339   4.106   8.668 -0.0735 -0.1205  0.3202
 1006SOL    HW1 9623  12.270   4.054   8.628  0.1924  0.7994 -1.4071
 1006SOL    HW2 9624  12.293   4.157   8.736 -0.7411 -0.8665  0.4451
 1007SOL     OW 9625   5.823   5.662   6.276 -0.1725 -0.3226 -0.2258
 1007SOL    HW1 9626   5.907   5.652   6.320  0.4085  0.8812 -1.0023
 1007SOL    HW2 9627   5.845   5.706   6.193 -1.4988 -0.4992 -0.6881
 1008SOL     OW 9628  10.723   0.517   5.742  0.2743 -0.4940 -0.0445
 1008SOL    HW1 9629  10.648   0.554   5.695 -0.2015 -1.4034 -0.0190
 1008SOL    HW2 9630  10.685   0.451   5.800  0.7982  0.8286  1.8880
 1009SOL     OW 9631  10.058   2.291   3.177 -0.6648  0.5097 -0.3046
 1009SOL    HW1 9632  10.070   2.342   3.096  0.4379 -0.1285 -0.5600
 1009SOL    HW2 9633  10.061   2.357   3.247 -0.7804  0.9706 -0.7221
 1010SOL     OW 9634   2.131  10.517   8.257 -0.6190 -0.2775  0.0149
 1010SOL    HW1 9635   2.211  10.568   8.263 -0.4105 -0.4695 -0.9928
 1010SOL    HW2 9636   2.156  10.430   8.289  0.2767 -1.0717 -2.5911
 1011SOL     OW 9637   6.205   6.527  11.398 -0.2776  0.3764 -0.0362
 1011SOL    HW1 9638   6.164   6.597  11.450 -0.1529  1.1885 -0.9942
 1011SOL    HW2 9639   6.258   6.574  11.334 -1.2598 -0.5444 -1.5855
 1012SOL     OW 9640   1.736   4.525   4.401  0.6367 -0.6173  0.3246
 1012SOL    HW1 9641   1.745   4.454   4.463  1.0409 -0.5416  0.3513
 1012SOL    HW2 9642   1.724   4.482   4.316  0.8473 -0.7143  0.3456
 1013SOL     OW 9643  12.372   9.352   0.477 -0.2071  0.1020 -0.2982
 1013SOL    HW1 9644  12.415   9.281   0.428  0.1163 -0.2409  0.4655
 1013SOL    HW2 9645  12.429   9.428   0.463  1.4908 -0.6647  1.8144
 1014SOL     OW 9646   9.520   8.478   9.231 -0.2550  0.2514 -0.1799
 1014SOL    HW1 9647   9.610   8.503   9.253 -0.3388  0.1489  0.2808
 1014SOL    HW2 9648   9.514   8.493   9.137  0.1461  0.5723 -0.1595
 1015SOL     OW 9649   1.142   9.174   0.481  0.4060  0.6766  0.0640
 1015SOL    HW1 9650   1.211   9.148   0.420  0.0791  1.9507 -0.8919
 1015SOL    HW2 9651   1.161   9.125   0.561  1.9632  0.4196 -0.4255
 1016SOL     OW 9652  10.539  12.654  10.752 -0.1050  0.0859 -0.1309
 1016SOL    HW1 9653  10.633  12.673  10.746 -0.0684  0.4679  1.1793
 1016SOL    HW2 9654  10.497  12.739  10.740 -0.2888 -0.0968 -0.7831
 1017SOL     OW 9655  12.042   1.216   4.131 -0.1823  0.0343 -0.1670
 1017SOL    HW1 9656  12.031   1.221   4.036  0.5941  1.2036 -0.2157
 1017SOL    HW2 9657  12.137   1.219   4.144 -0.3005  0.4810  0.6666
 1018SOL     OW 9658   2.003   6.770   0.051  0.3590 -0.1570 -0.0257
 1018SOL    HW1 9659   1.982   6.863   0.058 -0.1852 -0.3645  1.3916
 1018SOL    HW2 9660   2.090   6.768   0.011  0.8360  1.0120  0.8955
 1019SOL     OW 9661  12.656   2.260   2.727 -0.7286  0.1844  0.4370
 1019SOL    HW1 9662  12.599   2.327   2.687  1.2084  1.9284  0.4306
 1019SOL    HW2 9663  12.660   2.190   2.662 -2.3048  0.3197  0.1580
 1020SOL     OW 9664   5.341   2.078   6.037  0.8866 -0.0860  0.1442
 1020SOL    HW1 9665   5.418   2.022   6.046  0.3402 -0.4862  3.2204
 1020SOL    HW2 9666   5.296   2.072   6.121  0.6690  4.8516  0.6655
 1021SOL     OW 9667   8.247   7.146   4.023  0.1594  0.1606  0.1256
 1021SOL    HW1 9668   8.157   7.158   3.993  0.1859  1.5963  0.5269
 1021SOL    HW2 9669   8.256   7.052   4.036 -0.6390 -0.2244 -1.8451
 1022SOL     OW 9670   3.892  12.479   8.743 -0.3978  0.0417 -0.0339
 1022SOL    HW1 9671   3.831  12.537   8.698 -1.0548 -0.8871 -0.3727
 1022SOL    HW2 9672   3.974  12.488   8.696 -0.2406  1.3181  0.4341
 1023SOL     OW 9673   6.278   4.606   4.907  0.4137 -0.2385  0.0833
 1023SOL    HW1 9674   6.284   4.577   4.998  1.5261  0.4866  0.2677
 1023SOL    HW2 9675   6.202   4.664   4.905  0.1241 -0.6012  0.4459
 1024SOL     OW 9676  10.374   5.671   9.546 -0.2424 -0.0242 -0.0794
 1024SOL    HW1 9677  10.336   5.706   9.626  0.5310  0.2205  0.1950
 1024SOL    HW2 9678  10.412   5.748   9.502 -0.3296 -0.2131 -0.4883
 1025SOL     OW 9679  11.432   9.812   3.940 -0.0705 -0.2401  0.5116
 1025SOL    HW1 9680  11.393   9.755   3.875  1.0926 -1.6383  0.9668
 1025SOL    HW2 9681  11.467   9.886   3.890  2.7595 -2.3089 -0.8967
 1026SOL     OW 9682   4.045  12.097  11.703 -0.2971 -0.1152  0.2894
 1026SOL    HW1 9683   4.126  12.076  11.748  0.1668 -0.4495 -0.6663
 1026SOL    HW2 9684   3.999  12.014  11.695 -1.2064  0.2195  1.6768
 1027SOL     OW 9685   0.163   9.355   8.344 -0.0389  0.3917  0.3464
 1027SOL    HW1 9686   0.178   9.421   8.411  0.1051 -0.7823  1.5261
 1027SOL    HW2 9687   0.214   9.279   8.373 -1.4161 -0.7736 -0.1205
 1028SOL     OW 9688   7.087   7.428   5.297 -0.8817  0.1739  0.6773
 1028SOL    HW1 9689   7.043   7.493   5.242 -0.0377 -0.4309 -0.8021
 1028SOL    HW2 9690   7.084   7.348   5.244  0.2984 -0.3436  1.3641
 1029SOL     OW 9691  11.822   9.500  11.316  0.5697  0.1684 -0.3353
 1029SOL    HW1 9692  11.731   9.528  11.320  0.2573 -0.9574  1.1582
 1029SOL    HW2 9693  11.837   9.479  11.223 -0.1558  1.9519 -0.8976
 1030SOL     OW 9694   0.383   4.687   5.953  0.0214  0.1833  0.1870
 1030SOL    HW1 9695   0.398   4.759   5.892 -0.1560 -1.1159 -1.4470
 1030SOL    HW2 9696   0.448   4.621   5.930 -0.6043 -0.6902  0.8306
 1031SOL     OW 9697   0.122   3.306   8.175  0.3241 -0.2138  0.2753
 1031SOL    HW1 9698   0.034   3.337   8.194  0.4719  0.7705 -0.5839
 1031SOL    HW2 9699   0.131   3.226   8.228 -1.5887 -1.1654 -0.7354
 1032SOL     OW 9700   3.041   4.790  10.744 -0.6287 -0.5837 -0.2219
 1032SOL    HW1 9701   3.043   4.742  10.827 -2.1059 -2.1718 -1.0337
 1032SOL    HW2 9702   3.124   4.767  10.701  2.1078  3.3858  2.3204
 1033SOL     OW 9703   2.258   8.440   0.764  0.4145  0.2539 -0.5213
 1033SOL    HW1 9704   2.351   8.462   0.758  0.9463 -1.9444 -1.1005
 1033SOL    HW2 9705   2.257   8.346   0.783 -1.6895  0.0216 -1.5766
 1034SOL     OW 9706   1.365   0.778  10.801  0.5158 -0.4212 -0.0548
 1034SOL    HW1 9707   1.433   0.755  10.863  1.5240  0.3076 -0.8572
 1034SOL    HW2 9708   1.286   0.734  10.834  0.6309  1.1328  2.5806
 1035SOL     OW 9709   1.948   0.552   2.608  0.3498 -0.5288  0.1965
 1035SOL    HW1 9710   1.866   0.573   2.651  0.8918  1.8053  0.2021
 1035SOL    HW2 9711   2.007   0.526   2.679  0.3670  0.3523  0.5078
 1036SOL     OW 9712   5.519   5.992   6.240 -0.0822  0.2673  0.1877
 1036SOL    HW1 9713   5.615   5.990   6.247  0.0217 -0.3022 -1.0929
 1036SOL    HW2 9714   5.493   5.900   6.242 -0.6129  0.4202  0.5160
 1037SOL     OW 9715  10.694   3.816   2.806  0.6330  0.8470  0.4170
 1037SOL    HW1 9716  10.788   3.808   2.823  1.1525  1.5307 -1.7439
 1037SOL    HW2 9717  10.673   3.741   2.750 -0.2010  0.5346  1.1220
 1038SOL     OW 9718   3.092   4.566  12.744 -0.6962 -0.9275  0.2474
 1038SOL    HW1 9719   3.151   4.634  12.777 -1.1089 -0.2896 -0.3005
 1038SOL    HW2 9720   3.146   4.513  12.686 -0.9915  0.5887 -1.4977
 1039SOL     OW 9721   5.396   7.885   1.052  0.3426 -0.1874 -0.4822
 1039SOL    HW1 9722   5.316   7.938   1.050 -0.5968 -1.2769  2.5813
 1039SOL    HW2 9723   5.455   7.933   1.109  1.0311 -0.5289 -0.8895
 1040SOL     OW 9724   0.448   0.076  12.147  0.1978  0.1619  0.1755
 1040SOL    HW1 9725   0.534   0.038  12.159  1.0073  1.7573 -0.2423
 1040SOL    HW2 9726   0.461   0.170  12.163 -0.6348  1.0357 -3.3100
 1041SOL     OW 9727  10.095   3.617  11.398  0.6369 -0.2177  0.1155
 1041SOL    HW1 9728  10.178   3.646  11.437  0.6339 -0.6174  0.4326
 1041SOL    HW2 9729  10.121   3.555  11.330  0.6213  0.1457 -0.2255
 1042SOL     OW 9730   3.420   3.114  10.383 -0.3066  0.4136  0.5476
 1042SOL    HW1 9731   3.500   3.074  10.416 -0.6859 -1.2210 -0.4375
 1042SOL    HW2 9732   3.448   3.166  10.307  0.1739  2.0981  1.7954
 1043SOL     OW 9733   8.648   9.728   7.357  0.1692 -0.2297 -0.4683
 1043SOL    HW1 9734   8.669   9.821   7.348 -1.2203 -0.0446 -2.2080
 1043SOL    HW2 9735   8.726   9.690   7.398  2.2145  1.1035 -2.8273
 1044SOL     OW 9736  11.706   0.678   3.207  0.2596  0.2112 -0.4538
 1044SOL    HW1 9737  11.725   0.588   3.180  1.2659  0.2361  0.0978
 1044SOL    HW2 9738  11.793   0.718   3.217  0.0710  0.0029  3.4457
 1045SOL     OW 9739   7.519   6.001  12.405  0.0316 -0.0987  0.0762
 1045SOL    HW1 9740   7.509   6.074  12.467  0.9169 -0.5065  0.7144
 1045SOL    HW2 9741   7.597   6.023  12.355  0.1730 -0.5023  0.1207
 1046SOL     OW 9742   1.292   0.632   0.447  0.2858  0.6537 -0.5275
 1046SOL    HW1 9743   1.251   0.546   0.456  1.1543  0.2084 -0.6972
 1046SOL    HW2 9744   1.285   0.652   0.353  0.1134  0.7519 -0.4935
 1047SOL     OW 9745   4.779   0.844  11.187 -0.4276  0.1124 -0.3381
 1047SOL    HW1 9746   4.864   0.877  11.160 -0.0381 -0.9708 -0.5011
 1047SOL    HW2 9747   4.739   0.916  11.234  0.8931  0.4019  0.3966
 1048SOL     OW 9748  10.051   0.018   8.523  0.2474  0.8091  0.2548
 1048SOL    HW1 9749  10.081  -0.065   8.559  1.1975  1.6697  1.5498
 1048SOL    HW2 9750  10.131   0.062   8.494 -0.1959  1.4358 -0.0374
 1049SOL     OW 9751   4.296   9.171   7.614  0.8209 -0.1561  0.7292
 1049SOL    HW1 9752   4.378   9.181   7.663  1.2891  1.6239 -0.3252
 1049SOL    HW2 9753   4.317   9.105   7.547  1.6915  0.9016 -0.0724
 1050SOL     OW 9754   0.500   9.228   6.151 -0.0456  0.8470  0.4446
 1050SOL    HW1 9755   0.565   9.298   6.150  1.0852 -0.0844  2.7544
 1050SOL    HW2 9756   0.542   9.156   6.197 -1.6149 -0.9601 -0.7695
 1051SOL     OW 9757   3.918   2.591   4.967  0.0408 -0.0613  1.2806
 1051SOL    HW1 9758   3.904   2.643   4.888 -1.0813 -2.5453 -0.2883
 1051SOL    HW2 9759   3.834   2.594   5.013 -0.9796 -2.5588 -0.2363
 1052SOL     OW 9760  12.197   5.838   3.343  0.2507 -0.3979 -0.2110
 1052SOL    HW1 9761  12.258   5.821   3.271  1.1325 -0.5177  0.5405
 1052SOL    HW2 9762  12.235   5.792   3.418 -0.8390 -0.5821  0.2579
 1053SOL     OW 9763  12.220   1.135  11.132 -0.1402 -0.1677  0.6236
 1053SOL    HW1 9764  12.201   1.096  11.047 -1.6644 -1.2772  1.4291
 1053SOL    HW2 9765  12.193   1.226  11.123  0.0041 -0.1969 -0.1703
 1054SOL     OW 9766   1.678   2.830  12.559 -0.0254 -0.3813 -0.3241
 1054SOL    HW1 9767   1.610   2.886  12.596  0.2580 -0.4094  0.2505
 1054SOL    HW2 9768   1.744   2.891  12.526  0.1809 -0.3656  0.1062
 1055SOL     OW 9769   4.318   0.841  10.862 -0.0056 -0.1397 -0.6444
 1055SOL    HW1 9770   4.328   0.898  10.785  0.2000 -0.9950 -1.2696
 1055SOL    HW2 9771   4.397   0.788  10.862  0.9111  1.1275  1.2756
 1056SOL     OW 9772   4.665   9.173  11.494 -0.0709 -0.0108 -0.3433
 1056SOL    HW1 9773   4.729   9.159  11.423 -0.2596  0.3167 -0.5808
 1056SOL    HW2 9774   4.708   9.139  11.572  0.2848 -0.0495 -0.5541
 1057SOL     OW 9775   7.569   7.521  11.050  0.1661 -0.0199 -0.0559
 1057SOL    HW1 9776   7.504   7.529  11.120 -0.1583 -0.8580 -0.2479
 1057SOL    HW2 9777   7.536   7.449  10.996  0.1557  0.9301 -1.3519
 1058SOL     OW 9778   9.238  10.778   7.501  0.2244  0.0150  0.2679
 1058SOL    HW1 9779   9.174  10.786   7.572 -0.1216 -0.0479 -0.0339
 1058SOL    HW2 9780   9.266  10.868   7.484  0.3158  0.0302  0.4898
 1059SOL     OW 9781   6.028   8.428  10.628 -0.3913  0.5072  0.1278
 1059SOL    HW1 9782   6.122   8.415  10.625 -0.4958 -0.2718 -1.4589
 1059SOL    HW2 9783   6.015   8.505  10.683  1.0829  0.0482  1.1810
 1060SOL     OW 9784   2.879   3.775   2.839  0.3025 -0.4017  0.2032
 1060SOL    HW1 9785   2.895   3.869   2.827 -0.2565 -0.1367  1.3042
 1060SOL    HW2 9786   2.884   3.738   2.751  1.7855  0.4446 -0.1061
 1061SOL     OW 9787   2.883   5.089   4.697 -0.2048  0.3696  0.7092
 1061SOL    HW1 9788   2.826   5.158   4.732 -0.9419  1.5668 -2.5410
 1061SOL    HW2 9789   2.829   5.010   4.699 -0.6523  0.6767  1.0727
 1062SOL     OW 9790   9.208   6.513   7.374 -0.1672  0.3209  0.0310
 1062SOL    HW1 9791   9.176   6.597   7.341  0.6013 -0.3415 -2.5833
 1062SOL    HW2 9792   9.187   6.515   7.468 -0.4547  3.2702 -0.0078
 1063SOL     OW 9793   9.131   8.529   8.919 -0.3144  0.0842 -0.8453
 1063SOL    HW1 9794   9.225   8.546   8.919 -0.4073  0.8733  0.8119
 1063SOL    HW2 9795   9.123   8.434   8.921  0.4702  0.0251 -0.3564
 1064SOL     OW 9796   2.091   4.317  10.619  0.0033 -0.3207  0.0347
 1064SOL    HW1 9797   2.011   4.279  10.583  0.4920 -0.2662 -1.1850
 1064SOL    HW2 9798   2.080   4.314  10.714 -0.9561 -1.3560 -0.0952
 1065SOL     OW 9799   3.517   6.977   9.850  0.0512 -0.2153 -0.0694
 1065SOL    HW1 9800   3.558   6.898   9.814  1.5741  0.6900 -0.4493
 1065SOL    HW2 9801   3.530   6.969   9.944 -0.4245 -0.7460 -0.0475
 1066SOL     OW 9802   6.100   7.448   5.358 -0.1771  0.3028  0.4781
 1066SOL    HW1 9803   6.086   7.466   5.265  2.2775 -1.4504 -0.3278
 1066SOL    HW2 9804   6.183   7.491   5.378 -0.3232  0.0519  1.7089
 1067SOL     OW 9805   9.950  11.390  12.322  0.1861 -0.3784  0.1308
 1067SOL    HW1 9806   9.959  11.481  12.295  0.4118 -0.5390 -0.3443
 1067SOL    HW2 9807  10.040  11.360  12.336  0.0988 -0.4522  0.5570
 1068SOL     OW 9808   4.155  11.346   9.183 -0.7367 -0.5250 -0.3905
 1068SOL    HW1 9809   4.240  11.388   9.172  0.6541 -2.5858  1.5938
 1068SOL    HW2 9810   4.092  11.417   9.176  1.1123  1.0850 -1.8218
 1069SOL     OW 9811   2.647   5.107   2.875  0.7463 -0.0237  0.3520
 1069SOL    HW1 9812   2.618   5.107   2.784 -0.5550 -1.3091  0.7249
 1069SOL    HW2 9813   2.685   5.020   2.888 -1.8741 -1.0508  1.8155
 1070SOL     OW 9814   3.627   6.537   7.474 -0.7999  0.0547 -0.0858
 1070SOL    HW1 9815   3.707   6.556   7.425  0.2025 -0.4466  1.2835
 1070SOL    HW2 9816   3.627   6.601   7.545 -2.0926  0.6179 -0.5799
 1071SOL     OW 9817   3.820   6.680   3.523 -0.0098  0.3554 -0.6756
 1071SOL    HW1 9818   3.795   6.668   3.431  0.1975 -3.3522 -0.3728
 1071SOL    HW2 9819   3.913   6.661   3.526 -0.2983 -1.1177  0.4535
 1072SOL     OW 9820   6.079   0.574  10.727  0.1150 -0.4754  0.2336
 1072SOL    HW1 9821   6.141   0.520  10.777  1.0663 -1.1167 -1.5541
 1072SOL    HW2 9822   6.010   0.595  10.790  1.5924 -0.6328  2.0073
 1073SOL     OW 9823   2.327   2.220   6.846  0.0619  0.6242 -0.4047
 1073SOL    HW1 9824   2.369   2.150   6.897 -3.1393  0.2938  2.0841
 1073SOL    HW2 9825   2.332   2.189   6.756  2.6351 -0.6208  0.0587
 1074SOL     OW 9826   4.247  11.243  11.765 -0.1403  0.3046  0.9324
 1074SOL    HW1 9827   4.186  11.255  11.693 -1.1625 -1.4212  1.4362
 1074SOL    HW2 9828   4.289  11.328  11.776 -2.8079  1.7634  0.8621
 1075SOL     OW 9829   2.984  11.843   6.764  0.5200  0.2730 -0.6450
 1075SOL    HW1 9830   3.077  11.837   6.787  0.3889  0.3967 -0.0756
 1075SOL    HW2 9831   2.966  11.937   6.761  1.1291  0.4196 -3.7405
 1076SOL     OW 9832   8.578   5.257   3.928 -0.8087  0.8583 -0.3008
 1076SOL    HW1 9833   8.655   5.247   3.983 -1.2073  0.5997  0.2191
 1076SOL    HW2 9834   8.530   5.330   3.966 -1.1435  0.6073 -0.2370
 1077SOL     OW 9835   8.160   4.865  10.387  0.5149  0.0937 -0.4308
 1077SOL    HW1 9836   8.101   4.908  10.448  1.9873 -0.7490  1.6837
 1077SOL    HW2 9837   8.157   4.772  10.410  1.1503 -0.2510 -1.6240
 1078SOL     OW 9838   5.368   1.222   1.660  0.3159  0.0190  0.0537
 1078SOL    HW1 9839   5.351   1.205   1.753 -0.4112  2.0691  0.3283
 1078SOL    HW2 9840   5.298   1.176   1.614 -0.1975  0.2331  0.6151
 1079SOL     OW 9841  11.355   5.451   5.081 -0.0830 -0.4952  0.7141
 1079SOL    HW1 9842  11.330   5.540   5.054  1.6488  0.1449  1.1112
 1079SOL    HW2 9843  11.321   5.443   5.170 -3.2487 -1.5510 -0.4527
 1080SOL     OW 9844   0.042   7.842   7.149 -0.4739 -0.0298 -0.3179
 1080SOL    HW1 9845  -0.035   7.796   7.114  1.4987 -0.9824 -3.9367
 1080SOL    HW2 9846   0.040   7.927   7.104 -0.7279  1.0008  1.5587
 1081SOL     OW 9847  10.573   8.703   3.312  0.5017  0.1510  0.2343
 1081SOL    HW1 9848  10.599   8.765   3.244 -0.3802  0.1878 -0.0836
 1081SOL    HW2 9849  10.655   8.672   3.349  0.9869  1.9317  0.7822
 1082SOL     OW 9850  12.271   2.344   2.060 -0.2588  0.1038  0.5466
 1082SOL    HW1 9851  12.251   2.432   2.027  2.6234  0.4584 -0.6472
 1082SOL    HW2 9852  12.216   2.285   2.008 -0.3993  1.0770 -0.4411
 1083SOL     OW 9853  11.124   2.159   8.571 -0.1776  0.6497 -0.6228
 1083SOL    HW1 9854  11.152   2.249   8.554  1.7539  0.1627 -0.3073
 1083SOL    HW2 9855  11.153   2.142   8.661 -0.2980 -0.3705 -0.7720
 1084SOL     OW 9856   4.189   9.903   5.780  0.3066  0.3115 -0.0602
 1084SOL    HW1 9857   4.240   9.838   5.829 -2.0782 -1.7099 -0.0629
 1084SOL    HW2 9858   4.202   9.985   5.828  1.1034 -0.7812  1.6952
 1085SOL     OW 9859   2.595   7.753   5.182  0.2277  0.1314  0.1335
 1085SOL    HW1 9860   2.606   7.664   5.215  1.1859 -0.1740 -0.9176
 1085SOL    HW2 9861   2.583   7.742   5.087 -0.4871  1.0764  0.0965
 1086SOL     OW 9862   4.989   4.936   4.287  0.5940  0.1148  0.6948
 1086SOL    HW1 9863   4.920   4.884   4.327  0.7981 -1.3194 -0.7049
 1086SOL    HW2 9864   4.943   5.007   4.241  0.1514 -0.0883  0.8252
 1087SOL     OW 9865   4.897   6.775   9.811  0.1306  0.2769 -0.1509
 1087SOL    HW1 9866   4.983   6.778   9.769  1.1843 -0.6846  1.7674
 1087SOL    HW2 9867   4.866   6.865   9.810  1.2072  0.6549 -0.7966
 1088SOL     OW 9868  12.145   4.992   4.732  0.0877  0.2319  0.4185
 1088SOL    HW1 9869  12.062   4.975   4.689 -1.4839  3.3214  1.8857
 1088SOL    HW2 9870  12.196   5.042   4.669  0.8201 -1.4688 -0.3968
 1089SOL     OW 9871   0.376   8.887   0.352 -0.0553  0.8412 -0.1206
 1089SOL    HW1 9872   0.316   8.822   0.315  1.7701 -0.2053 -1.5129
 1089SOL    HW2 9873   0.399   8.853   0.438  0.4596 -0.1109 -0.6183
 1090SOL     OW 9874  11.178   3.817   9.313  0.4141  0.1684 -0.3877
 1090SOL    HW1 9875  11.254   3.874   9.303  1.3733 -0.7501  1.2946
 1090SOL    HW2 9876  11.109   3.874   9.347  0.2012  1.0646 -2.1756
 1091SOL     OW 9877  10.228   6.857   3.862  0.6204 -0.4859 -0.2736
 1091SOL    HW1 9878  10.282   6.933   3.883 -0.0618 -0.1623  0.3369
 1091SOL    HW2 9879  10.167   6.889   3.796  1.5230 -1.0033 -1.3968
 1092SOL     OW 9880   3.825   5.501   1.332 -0.2278  0.4156  0.1784
 1092SOL    HW1 9881   3.881   5.577   1.348  1.1513 -0.2442 -1.2225
 1092SOL    HW2 9882   3.887   5.429   1.317 -1.4866 -0.7248  0.3143
 1093SOL     OW 9883  10.854  12.010   9.773 -0.5245 -0.2108 -0.0123
 1093SOL    HW1 9884  10.893  11.929   9.739 -1.4447 -1.0394  0.8389
 1093SOL    HW2 9885  10.899  12.026   9.856 -0.6750 -0.1243  0.0543
 1094SOL     OW 9886   3.572   2.034   4.732 -0.0607  0.0462  0.0253
 1094SOL    HW1 9887   3.582   2.127   4.712 -2.1478  0.1413 -0.8220
 1094SOL    HW2 9888   3.609   1.989   4.656 -3.0139  0.3194 -1.6881
 1095SOL     OW 9889   3.620  12.173   0.931 -0.3484 -0.4768 -0.1586
 1095SOL    HW1 9890   3.689  12.154   0.995 -0.3008 -0.9360 -0.3441
 1095SOL    HW2 9891   3.613  12.269   0.931 -0.1215 -0.4579  0.2933
 1096SOL     OW 9892   3.407   1.417   2.440  0.0129 -0.1015  0.1435
 1096SOL    HW1 9893   3.345   1.369   2.495 -0.3482  1.1271  0.8645
 1096SOL    HW2 9894   3.491   1.374   2.454 -0.2347 -0.3052  1.0463
 1097SOL     OW 9895  12.418  11.856   2.705  0.1734  0.1787  0.6076
 1097SOL    HW1 9896  12.511  11.838   2.715 -0.2357 -2.3085  0.6866
 1097SOL    HW2 9897  12.378  11.770   2.691 -1.9293  1.3341 -1.1205
 1098SOL     OW 9898   0.805   9.800   0.549 -0.1154 -0.0574  0.2427
 1098SOL    HW1 9899   0.785   9.874   0.606 -0.8338 -1.0603  1.3409
 1098SOL    HW2 9900   0.881   9.758   0.589  1.1716  0.8302 -1.1404
 1099SOL     OW 9901   8.603   1.179   0.343  0.5400 -0.2174 -0.1688
 1099SOL    HW1 9902   8.697   1.186   0.356  0.4929 -1.8682  1.6497
 1099SOL    HW2 9903   8.568   1.159   0.430 -1.4226 -0.2197 -0.8976
 1100SOL     OW 9904  10.240   6.378  10.021  0.0895  0.4266 -0.3056
 1100SOL    HW1 9905  10.182   6.329   9.963  0.6687  0.5871 -1.0230
 1100SOL    HW2 9906  10.181   6.437  10.069 -0.2891  0.9299 -1.3767
 1101SOL     OW 9907  10.940  12.308   3.174 -0.1057  0.1956  0.1363
 1101SOL    HW1 9908  10.881  12.345   3.239  0.4624 -0.9135  1.3356
 1101SOL    HW2 9909  10.887  12.299   3.095 -0.5003  2.6723  0.0426
 1102SOL     OW 9910   7.959   7.119   4.225 -0.3028 -0.0589 -0.2591
 1102SOL    HW1 9911   7.899   7.101   4.298  0.8555  1.3965  1.1323
 1102SOL    HW2 9912   7.956   7.214   4.215  2.2868  0.1478  0.3762
 1103SOL     OW 9913   8.810   5.314   9.978  0.2540 -0.4498  0.1640
 1103SOL    HW1 9914   8.740   5.374  10.003 -0.0284 -0.2450 -1.0817
 1103SOL    HW2 9915   8.866   5.309  10.056  0.8222  2.1644  0.0063
 1104SOL     OW 9916  10.685   4.150  10.328 -0.1887  0.5927  0.4266
 1104SOL    HW1 9917  10.733   4.085  10.278 -0.3333  0.8068  0.0053
 1104SOL    HW2 9918  10.602   4.107  10.349 -0.1894  0.5567  0.3525
 1105SOL     OW 9919   1.413   1.364   8.545 -0.2484 -0.2361 -0.3200
 1105SOL    HW1 9920   1.456   1.278   8.540  0.4215  0.0989 -0.4237
 1105SOL    HW2 9921   1.481   1.423   8.578 -0.6836  0.2689 -0.3185
 1106SOL     OW 9922   8.976   5.491   0.622 -0.1255 -0.9085 -0.1264
 1106SOL    HW1 9923   9.066   5.471   0.647 -0.9552 -3.5773  1.0895
 1106SOL    HW2 9924   8.961   5.580   0.653  1.1029 -1.6010  2.7552
 1107SOL     OW 9925  10.772  12.307  11.629 -0.3244 -0.1314 -0.2440
 1107SOL    HW1 9926  10.795  12.260  11.708  1.5985 -0.6060 -1.0285
 1107SOL    HW2 9927  10.677  12.318  11.634 -0.3829 -1.1414  1.5501
 1108SOL     OW 9928   7.639   3.863  12.012  0.1530 -0.2864  0.4196
 1108SOL    HW1 9929   7.569   3.910  12.056  0.6180 -1.8570  3.0338
 1108SOL    HW2 9930   7.595   3.813  11.943 -1.2240 -0.7550  1.5987
 1109SOL     OW 9931   5.852  12.396  11.621  0.1055 -0.6673  0.5780
 1109SOL    HW1 9932   5.779  12.368  11.676  0.0142 -0.9040  0.3349
 1109SOL    HW2 9933   5.893  12.467  11.671 -0.1176 -0.7233  0.8441
 1110SOL     OW 9934  10.940   8.943   3.039  0.2114  0.3904  0.4348
 1110SOL    HW1 9935  10.934   9.034   3.012 -0.3214  0.2093 -0.0754
 1110SOL    HW2 9936  10.965   8.896   2.960  0.5603  0.1003  0.7143
 1111SOL     OW 9937   0.053   5.272   4.166 -0.1371 -0.2719  0.0142
 1111SOL    HW1 9938  -0.011   5.249   4.098  0.5561 -1.1830 -0.3488
 1111SOL    HW2 9939   0.000   5.287   4.245 -0.8460 -0.4285 -0.4226
 1112SOL     OW 9940   3.875   5.806   1.589 -0.3111 -0.0135  0.4525
 1112SOL    HW1 9941   3.889   5.712   1.596  1.0787 -0.1956 -3.0046
 1112SOL    HW2 9942   3.928   5.833   1.514  0.9003  3.8961  2.4091
 1113SOL     OW 9943   4.064   9.506   6.687 -0.0559  0.0588 -0.4574
 1113SOL    HW1 9944   4.064   9.426   6.634  1.0895  0.4149 -1.0310
 1113SOL    HW2 9945   4.104   9.480   6.770 -0.4074 -0.1468 -0.3540
 1114SOL     OW 9946   6.639   5.034   3.686 -0.4036 -0.3470 -0.4070
 1114SOL    HW1 9947   6.584   5.104   3.652  0.2539 -0.1929 -1.1762
 1114SOL    HW2 9948   6.603   5.015   3.773 -2.0255 -0.6660 -1.1094
 1115SOL     OW 9949  12.260  12.289  12.708  0.1655  0.3624 -0.1927
 1115SOL    HW1 9950  12.302  12.245  12.782 -1.4298 -1.1773 -0.1187
 1115SOL    HW2 9951  12.252  12.380  12.734 -1.4742 -0.3592  2.1272
 1116SOL     OW 9952  10.774   8.528   8.747  0.5883  0.1438  0.1355
 1116SOL    HW1 9953  10.798   8.590   8.816  2.0052 -1.0370  0.7294
 1116SOL    HW2 9954  10.751   8.448   8.794 -2.7147  0.5360 -0.5096
 1117SOL     OW 9955   5.106  12.358   5.231 -0.5304 -0.0823  0.6692
 1117SOL    HW1 9956   5.103  12.401   5.146 -1.1000 -1.5519 -0.0945
 1117SOL    HW2 9957   5.197  12.366   5.259 -0.1837 -0.1734 -0.3937
 1118SOL     OW 9958   1.322  10.106   7.949  0.1442  0.1568  0.3654
 1118SOL    HW1 9959   1.315  10.202   7.943  2.2828  0.3025 -0.6251
 1118SOL    HW2 9960   1.267  10.075   7.877  1.8657  0.8094 -1.3042
 1119SOL     OW 9961   6.507   8.494  12.015 -0.1662  0.0864 -0.4213
 1119SOL    HW1 9962   6.562   8.552  11.961 -0.1322  1.6222  1.1822
 1119SOL    HW2 9963   6.423   8.493  11.970 -0.1397  1.3459 -0.5326
 1120SOL     OW 9964   2.649  11.617   0.118 -0.1243  0.1274 -0.1672
 1120SOL    HW1 9965   2.609  11.658   0.194 -0.6061 -0.3831 -0.1401
 1120SOL    HW2 9966   2.576  11.598   0.059  0.3347  1.4229 -1.2169
 1121SOL     OW 9967  11.286   5.893   1.231 -0.3148  0.1458 -0.2166
 1121SOL    HW1 9968  11.248   5.877   1.317  0.7686  0.1988  0.2932
 1121SOL    HW2 9969  11.373   5.853   1.236 -0.9684 -1.6501 -1.9697
 1122SOL     OW 9970   2.124   6.362   3.821 -0.4921 -0.2777  0.2430
 1122SOL    HW1 9971   2.080   6.424   3.879  0.9638  0.5316  0.5507
 1122SOL    HW2 9972   2.138   6.411   3.740 -0.1767 -0.5055  0.1578
 1123SOL     OW 9973   5.584   7.276   5.722  0.0730  0.2037 -0.1328
 1123SOL    HW1 9974   5.523   7.332   5.770  0.3992 -0.3128  0.9142
 1123SOL    HW2 9975   5.586   7.313   5.634  0.3307  1.9021  0.5383
 1124SOL     OW 9976  10.299   7.945   6.861 -0.2128  0.1249 -0.1096
 1124SOL    HW1 9977  10.227   7.948   6.798  0.7469 -0.6859 -1.2920
 1124SOL    HW2 9978  10.298   7.856   6.896 -0.8980  0.6354  1.2696
 1125SOL     OW 9979  12.133   3.647   5.304 -0.0984  0.3535  0.4843
 1125SOL    HW1 9980  12.153   3.585   5.234 -0.3331 -1.9319  2.3280
 1125SOL    HW2 9981  12.037   3.654   5.302 -0.1630 -0.2457  0.9483
 1126SOL     OW 9982  11.853   2.086   1.988  0.5204 -0.3073  0.0745
 1126SOL    HW1 9983  11.845   2.039   2.071 -1.1125 -0.5738 -0.1992
 1126SOL    HW2 9984  11.946   2.084   1.969  1.1166  0.6883  2.4184
 1127SOL     OW 9985  11.824  10.550   4.390 -0.2722 -0.0696  0.5363
 1127SOL    HW1 9986  11.741  10.501   4.388 -1.2503  1.5260 -0.7105
 1127SOL    HW2 9987  11.801  10.633   4.432  1.1374 -0.2480  1.7526
 1128SOL     OW 9988   2.724   0.372   4.602 -0.7662  0.0042  0.5322
 1128SOL    HW1 9989   2.677   0.344   4.681  0.8791  1.6338  2.1752
 1128SOL    HW2 9990   2.780   0.298   4.580 -0.2744  0.0160  1.7020
 1129SOL     OW 9991   1.001   7.445  11.141 -0.2699 -0.3897 -0.1901
 1129SOL    HW1 9992   1.001   7.527  11.092  0.4629  0.6519  1.4461
 1129SOL    HW2 9993   0.916   7.405  11.121 -1.0823  1.2700 -0.2409
 1130SOL     OW 9994  12.527   9.764   4.258  0.1754  0.3407  0.2334
 1130SOL    HW1 9995  12.588   9.724   4.197  0.7699 -0.3084  1.2183
 1130SOL    HW2 9996  12.448   9.710   4.253 -0.3032  1.1078 -0.9516
 1131SOL     OW 9997  12.329   8.153   7.985  0.2079 -0.2186  0.4917
 1131SOL    HW1 9998  12.362   8.176   8.072  0.9482 -0.4691  0.2875
 1131SOL    HW2 9999  12.327   8.057   7.984  1.5554 -0.2685 -0.2309
 1132SOL     OW10000  11.247   4.712   9.374 -0.4802 -0.0677 -0.0039
 1132SOL    HW110001  11.337   4.691   9.349 -0.6142 -1.5840  0.6418
 1132SOL    HW210002  11.240   4.682   9.465 -1.2916  1.1627  0.3695
 1133SOL     OW10003   4.385   2.136   2.691  0.4587  0.9580  0.0348
 1133SOL    HW110004   4.399   2.043   2.678  1.0158  1.1427 -0.7291
 1133SOL    HW210005   4.448   2.160   2.760  0.5291  0.8316  0.0147
 1134SOL     OW10006   3.950   7.554  10.576  0.4083 -0.1825 -0.1984
 1134SOL    HW110007   3.960   7.494  10.502 -1.3502 -0.5744 -0.1614
 1134SOL    HW210008   4.023   7.533  10.634  0.0615 -2.0347 -0.3815
 1135SOL     OW10009   0.300   2.351   7.265 -0.2649  0.1014 -0.0510
 1135SOL    HW110010   0.296   2.303   7.182  0.2440  1.0850 -0.6674
 1135SOL    HW210011   0.284   2.285   7.332  1.8306 -1.2303 -0.7746
 1136SOL     OW10012   1.080   3.452   3.364  0.2805 -0.3574  0.5082
 1136SOL    HW110013   1.013   3.447   3.296  2.3674 -0.1786 -1.6990
 1136SOL    HW210014   1.043   3.403   3.437 -1.3119 -2.2636 -1.4343
 1137SOL     OW10015   9.127   2.677   0.680  0.1981 -0.4212 -0.1512
 1137SOL    HW110016   9.156   2.726   0.757 -1.9787  2.8065 -1.1769
 1137SOL    HW210017   9.118   2.743   0.612 -0.5693 -2.7178 -2.4400
 1138SOL     OW10018   2.594   4.974   4.493 -0.2977 -0.2669 -0.0268
 1138SOL    HW110019   2.519   5.007   4.543  0.6729  2.7052 -0.3604
 1138SOL    HW210020   2.655   4.944   4.560 -0.1655  1.0805  0.4909
 1139SOL     OW10021   0.764   7.902   2.452  0.4526  0.2936  0.3186
 1139SOL    HW110022   0.840   7.936   2.499 -0.5322  2.7651  0.2362
 1139SOL    HW210023   0.689   7.943   2.493 -0.9689 -2.3954  0.6685
 1140SOL     OW10024   2.890  10.611   2.581 -0.0915 -0.0139 -0.6493
 1140SOL    HW110025   2.943  10.558   2.641 -0.6826  0.0314 -0.0682
 1140SOL    HW210026   2.951  10.642   2.515  0.5390 -0.2339 -0.1769
 1141SOL     OW10027   0.451  12.447   8.659  0.2285 -0.0712 -0.2963
 1141SOL    HW110028   0.370  12.482   8.621 -0.5629 -1.1536  0.3316
 1141SOL    HW210029   0.463  12.498   8.739 -0.8949 -1.1361  0.5944
 1142SOL     OW10030   0.327   2.931  11.872 -0.1838  0.6269 -0.4714
 1142SOL    HW110031   0.234   2.913  11.866 -0.2692  0.9928 -0.2292
 1142SOL    HW210032   0.352   2.961  11.784  0.3325 -2.3562 -1.4622
 1143SOL     OW10033   3.891  12.104   8.637 -0.2700  0.1219 -0.2350
 1143SOL    HW110034   3.876  12.019   8.595 -0.7941  0.5767 -1.0108
 1143SOL    HW210035   3.849  12.167   8.578  0.4931  0.9640  0.0935
 1144SOL     OW10036   9.027   0.554  11.672  0.8710 -0.3385  0.0307
 1144SOL    HW110037   9.094   0.494  11.641  0.5302 -0.7352  0.0460
 1144SOL    HW210038   8.951   0.498  11.690  0.7881 -0.0087  0.7682
 1145SOL     OW10039   1.195  11.415  10.871 -0.3065 -0.0308  0.6747
 1145SOL    HW110040   1.273  11.441  10.920 -1.2834  0.9774  1.7588
 1145SOL    HW210041   1.151  11.352  10.927 -2.2510  2.2935  1.9445
 1146SOL     OW10042   9.342   9.664   4.968 -0.2342 -0.3834  0.8021
 1146SOL    HW110043   9.374   9.576   4.949  1.3011  0.6683 -2.2792
 1146SOL    HW210044   9.248   9.660   4.953 -0.3923 -1.7567  2.0326
 1147SOL     OW10045   8.728   6.159   9.585 -0.5552 -0.0514 -0.0665
 1147SOL    HW110046   8.784   6.225   9.625 -0.9473  1.6097 -2.0596
 1147SOL    HW210047   8.726   6.087   9.648  4.2010 -0.4686 -0.0278
 1148SOL     OW10048   9.613   0.096   3.717  0.1772  0.0790 -0.4786
 1148SOL    HW110049   9.705   0.118   3.707  0.1484  0.5748  0.3124
 1148SOL    HW210050   9.610   0.031   3.787 -0.1431  0.6359  0.0335
 1149SOL     OW10051   6.236  10.952   6.653  0.0412  0.2201 -0.5216
 1149SOL    HW110052   6.265  10.980   6.740 -0.5799 -0.7451  0.0063
 1149SOL    HW210053   6.313  10.963   6.598  0.5251  0.5706  0.2035
 1150SOL     OW10054   0.213   7.615   6.559  0.0292 -0.7306 -0.1198
 1150SOL    HW110055   0.302   7.583   6.570  0.2806 -0.1813 -0.5383
 1150SOL    HW210056   0.159   7.535   6.552  0.3779 -1.0734  0.8946
 1151SOL     OW10057   9.483   0.644   7.822  0.5328  0.4398 -0.2458
 1151SOL    HW110058   9.478   0.728   7.867 -1.0488 -0.0878  0.6115
 1151SOL    HW210059   9.570   0.611   7.844  0.6651  1.2459  0.4996
 1152SOL     OW10060  12.662   8.386  10.000  0.2114 -0.0613 -0.0832
 1152SOL    HW110061  12.661   8.293  10.024  0.6726 -0.9501 -3.1589
 1152SOL    HW210062  12.569   8.409   9.995  0.0911 -0.0450  1.5486
 1153SOL     OW10063   9.173   6.287   4.285 -0.0124 -0.5992 -0.0385
 1153SOL    HW110064   9.224   6.340   4.223  0.5220  0.2549  1.0908
 1153SOL    HW210065   9.136   6.350   4.347 -0.1990 -1.4533  0.7534
 1154SOL     OW10066  10.327  11.499  11.285 -0.0977 -0.4924 -0.0052
 1154SOL    HW110067  10.272  11.535  11.355  0.6554 -0.3499  0.5235
 1154SOL    HW210068  10.324  11.565  11.216  1.5352  0.8177  1.0826
 1155SOL     OW10069   4.568   2.909   6.952  0.2753 -0.3760  0.0836
 1155SOL    HW110070   4.534   2.999   6.957  1.2129 -0.0756  1.5223
 1155SOL    HW210071   4.494   2.854   6.980 -0.0200  0.0096  0.0701
 1156SOL     OW10072   1.764   2.516   4.771  0.0429  0.3765  0.2638
 1156SOL    HW110073   1.720   2.577   4.710 -0.9331 -1.2130 -0.6865
 1156SOL    HW210074   1.714   2.524   4.852 -1.4914 -0.7263 -0.5232
 1157SOL     OW10075   6.480  11.233   7.024  0.4086 -0.1905 -0.1639
 1157SOL    HW110076   6.424  11.304   6.989  0.9767  1.6772  2.4412
 1157SOL    HW210077   6.419  11.177   7.072  0.3350  0.1915  0.2000
 1158SOL     OW10078   8.166   4.911   1.069 -0.7156 -0.1490 -0.3563
 1158SOL    HW110079   8.170   4.910   1.165 -1.4010  0.1408 -0.3244
 1158SOL    HW210080   8.135   4.998   1.046 -0.5917 -0.2272 -0.8448
 1159SOL     OW10081   1.535   2.702  10.131  0.2647  0.8398 -0.1566
 1159SOL    HW110082   1.440   2.693  10.137  0.1044  1.9078 -0.8795
 1159SOL    HW210083   1.551   2.730  10.040  1.2284  1.1698  0.1010
 1160SOL     OW10084  11.318   5.158   9.689 -0.0740  0.3165 -0.0667
 1160SOL    HW110085  11.373   5.123   9.618 -0.5758  0.6171 -0.6156
 1160SOL    HW210086  11.265   5.083   9.716 -0.5304  0.4134 -0.6499
 1161SOL     OW10087   5.168   8.487   1.249 -0.4147  0.6544 -0.1109
 1161SOL    HW110088   5.167   8.569   1.198  0.2742  1.5553  1.2631
 1161SOL    HW210089   5.233   8.503   1.317  1.6686 -2.0106 -1.3013
 1162SOL     OW10090   3.456   3.742   0.179  0.0221 -0.3878 -0.0811
 1162SOL    HW110091   3.521   3.719   0.246  0.4460  1.2422  0.1094
 1162SOL    HW210092   3.459   3.668   0.118  2.2869 -0.2521 -0.2311
 1163SOL     OW10093  11.640   7.975   2.779 -0.0230  0.2524 -0.4435
 1163SOL    HW110094  11.641   7.886   2.744  2.2982  0.8738 -2.2537
 1163SOL    HW210095  11.716   8.017   2.739 -0.6687  2.8778  0.8550
 1164SOL     OW10096  12.491   6.429   4.832  0.8781 -0.3755  0.2979
 1164SOL    HW110097  12.543   6.509   4.834 -0.4942  0.5451  0.5447
 1164SOL    HW210098  12.406   6.457   4.797  0.7997 -1.9928 -0.9173
 1165SOL     OW10099  12.195  12.291   0.904 -0.0475  0.4067  0.1892
 1165SOL    HW110100  12.256  12.267   0.974  1.2826 -0.1632 -1.1069
 1165SOL    HW210101  12.234  12.370   0.865 -1.0584  1.0303  0.3998
 1166SOL     OW10102   5.339   4.647   5.560  0.2361  0.0095  0.1588
 1166SOL    HW110103   5.278   4.720   5.568  0.2218 -0.0104  0.2303
 1166SOL    HW210104   5.285   4.569   5.568 -0.0697 -0.0534 -1.8864
 1167SOL     OW10105   8.913   4.026   8.003  0.3169  0.4530 -0.4782
 1167SOL    HW110106   8.927   4.081   8.080  2.1388  0.5629 -0.8497
 1167SOL    HW210107   8.981   4.053   7.941 -1.3285  0.6261 -2.2908
 1168SOL     OW10108   2.371   4.006   9.438 -0.5522  0.1542  0.6784
 1168SOL    HW110109   2.359   3.913   9.420  0.2335  0.1575  0.0525
 1168SOL    HW210110   2.450   4.009   9.493  0.6360  0.5659 -0.9749
 1169SOL     OW10111   2.822  11.384  12.686  0.0038  0.2237 -0.1246
 1169SOL    HW110112   2.731  11.412  12.687  0.1374  0.6872 -0.4582
 1169SOL    HW210113   2.819  11.290  12.703 -0.7259 -0.2398 -2.4760
 1170SOL     OW10114   1.122  12.065   3.867  0.3561  0.8231 -0.0215
 1170SOL    HW110115   1.049  12.078   3.928  0.4617 -1.3864  0.6931
 1170SOL    HW210116   1.090  12.001   3.804  2.0494 -1.3892  1.1965
 1171SOL     OW10117   8.094   2.312   6.185  0.1796  0.1900 -0.0233
 1171SOL    HW110118   8.013   2.267   6.209  2.8642 -3.8419  2.8649
 1171SOL    HW210119   8.106   2.378   6.253 -0.8406  1.1498 -0.7447
 1172SOL     OW10120   5.871   0.172   3.528  0.3878 -0.3222 -0.0629
 1172SOL    HW110121   5.816   0.109   3.481 -0.8907  0.0740  0.8296
 1172SOL    HW210122   5.811   0.212   3.591  1.5929  0.5555  0.5479
 1173SOL     OW10123   2.069  11.472  11.824  0.0287 -0.4865 -0.4218
 1173SOL    HW110124   2.008  11.469  11.898  0.9609 -1.1773  0.3292
 1173SOL    HW210125   2.047  11.554  11.778 -1.5381 -0.7764 -0.2433
 1174SOL     OW10126   0.235   4.689   1.785  0.4687 -0.4973  0.2245
 1174SOL    HW110127   0.311   4.651   1.829  2.3051 -0.2015 -2.4964
 1174SOL    HW210128   0.164   4.626   1.802  2.2377 -2.7268 -0.1981
 1175SOL     OW10129   0.464   6.496   2.985 -0.1451 -0.4214  0.2447
 1175SOL    HW110130   0.451   6.554   2.909 -1.2251 -0.8837  0.0581
 1175SOL    HW210131   0.427   6.545   3.059 -1.3091 -0.9663  0.0396
 1176SOL     OW10132   5.035   6.960   0.256 -0.0239 -0.2654  0.1952
 1176SOL    HW110133   5.047   6.943   0.349 -0.2856 -0.6631  0.1571
 1176SOL    HW210134   4.948   6.927   0.236 -0.1086  0.1278 -0.1199
 1177SOL     OW10135   6.268   8.713   8.968  0.2451  0.1731 -0.8932
 1177SOL    HW110136   6.243   8.768   8.893  0.5315  1.4450 -0.0890
 1177SOL    HW210137   6.186   8.675   8.998 -0.3004  1.7129 -0.2956
 1178SOL     OW10138   9.577   9.195   7.458 -0.2711 -0.0481  0.4589
 1178SOL    HW110139   9.622   9.110   7.454 -0.6840 -0.2092 -1.3815
 1178SOL    HW210140   9.486   9.173   7.476 -0.5087 -0.0681 -0.6948
 1179SOL     OW10141   7.755   2.242   3.965  0.5859 -0.6074  0.2670
 1179SOL    HW110142   7.814   2.223   4.038  0.5301  0.5575  0.6361
 1179SOL    HW210143   7.692   2.170   3.965 -0.2267  0.0539  2.2344
 1180SOL     OW10144   5.693   9.628   0.535 -0.1846 -0.1506  0.3236
 1180SOL    HW110145   5.601   9.605   0.523 -0.6025  2.1942 -1.5267
 1180SOL    HW210146   5.741   9.551   0.504 -1.4999  0.4635 -3.7183
 1181SOL     OW10147   7.514   3.495  11.598  0.4240  0.5489 -0.4873
 1181SOL    HW110148   7.566   3.417  11.578  0.4994  0.3815  0.3234
 1181SOL    HW210149   7.425   3.471  11.573  0.2007 -0.3195  1.0305
 1182SOL     OW10150   4.587   1.651  12.240 -0.0266 -0.6959 -0.2089
 1182SOL    HW110151   4.679   1.674  12.229 -0.2708 -0.3181 -1.5816
 1182SOL    HW210152   4.563   1.689  12.325  0.8605 -0.1036 -0.2076
 1183SOL     OW10153  11.899   6.512   2.374 -0.1809  0.6343 -0.1447
 1183SOL    HW110154  11.828   6.519   2.311  0.7798 -0.7981 -1.4280
 1183SOL    HW210155  11.979   6.508   2.322  0.7938  1.0956  1.2255
 1184SOL     OW10156   2.641  10.405  10.583 -0.4611 -0.2231  0.4670
 1184SOL    HW110157   2.601  10.412  10.496 -0.7482 -0.3492  0.5841
 1184SOL    HW210158   2.598  10.328  10.622 -0.5987  0.0500  0.8549
 1185SOL     OW10159   3.864   7.835  11.887  0.0061 -0.2859  0.2573
 1185SOL    HW110160   3.839   7.924  11.912  0.6026 -0.3521  1.1308
 1185SOL    HW210161   3.912   7.846  11.805  0.7973  0.3002  0.7788
 1186SOL     OW10162   4.831  11.064   9.615  0.1576 -0.4012 -0.2274
 1186SOL    HW110163   4.851  11.024   9.700  1.1156 -0.3288 -0.4003
 1186SOL    HW210164   4.827  11.158   9.633  0.2269 -0.3971 -0.2294
 1187SOL     OW10165   8.091   9.039   6.310 -0.2000 -0.1831 -0.3009
 1187SOL    HW110166   8.143   9.103   6.357 -0.3848  0.1513 -0.5398
 1187SOL    HW210167   8.005   9.080   6.302 -0.7617 -1.0873  0.8488
 1188SOL     OW10168   5.038  11.106  10.060 -0.0329  0.1675 -0.4591
 1188SOL    HW110169   5.068  11.083  10.148  0.2459 -1.8081 -1.0411
 1188SOL    HW210170   5.039  11.202  10.059 -0.8149  0.2613  1.9448
 1189SOL     OW10171   4.246   6.562   1.467  0.3938 -0.2170  0.1845
 1189SOL    HW110172   4.175   6.503   1.440 -0.8401  1.8925 -1.4344
 1189SOL    HW210173   4.308   6.561   1.394  1.1084 -0.5686  0.7737
 1190SOL     OW10174  11.767   3.405   5.481 -0.7150  0.1075 -0.5026
 1190SOL    HW110175  11.728   3.392   5.567  0.1344 -0.5675 -0.1984
 1190SOL    HW210176  11.720   3.344   5.424 -0.9317  0.1862 -0.4102
 1191SOL     OW10177   8.338   2.331   4.167 -0.6641 -0.0127 -0.5207
 1191SOL    HW110178   8.301   2.313   4.253 -0.5432  0.0101 -0.4630
 1191SOL    HW210179   8.355   2.245   4.129 -0.7881 -0.0233 -0.5533
 1192SOL     OW10180   1.465   6.721   3.630 -0.8102 -0.0234  0.0495
 1192SOL    HW110181   1.427   6.652   3.684 -0.6697 -0.1834 -0.0550
 1192SOL    HW210182   1.558   6.700   3.626 -0.5849  0.7618  0.8927
 1193SOL     OW10183   2.322   0.930  12.391 -0.6195 -0.0720 -0.1983
 1193SOL    HW110184   2.378   0.899  12.462  0.7043 -0.0662 -1.2146
 1193SOL    HW210185   2.271   1.001  12.430 -0.9699 -1.0083  1.1250
 1194SOL     OW10186   6.028   7.990   4.552 -0.4053  0.2087 -0.3276
 1194SOL    HW110187   6.018   8.065   4.493 -0.9210  2.1691  2.0679
 1194SOL    HW210188   6.120   7.993   4.580 -0.5127  0.1775  0.0381
 1195SOL     OW10189   5.430  10.971  11.280  0.1302 -0.0953 -0.0670
 1195SOL    HW110190   5.386  10.985  11.364 -0.3967 -0.6442 -0.2387
 1195SOL    HW210191   5.482  11.050  11.266  0.1597  0.0360  0.7368
 1196SOL     OW10192   7.687   2.700   3.373 -0.5116  0.3385  0.0414
 1196SOL    HW110193   7.699   2.650   3.454 -1.8416  0.6793  0.4742
 1196SOL    HW210194   7.719   2.642   3.304 -0.1093 -0.2802  0.7295
 1197SOL     OW10195   8.040   1.953  12.290  0.3095  0.0190  0.2099
 1197SOL    HW110196   8.006   1.962  12.379 -0.6373 -0.4577 -0.0920
 1197SOL    HW210197   7.970   1.988  12.234 -0.9021 -3.3192 -0.6159
 1198SOL     OW10198   0.427   5.537   5.551  0.4251  0.1024 -0.0834
 1198SOL    HW110199   0.371   5.477   5.600 -1.3879  1.5334 -0.2913
 1198SOL    HW210200   0.392   5.624   5.571  0.7964  0.8642 -2.4472
 1199SOL     OW10201   3.905   7.666   4.681 -0.4636 -0.0184  0.3417
 1199SOL    HW110202   3.826   7.699   4.638 -0.6771 -1.1589 -0.1754
 1199SOL    HW210203   3.874   7.600   4.742  0.0658 -0.2678  0.3447
 1200SOL     OW10204   1.709   6.725   6.155  0.6252  1.0847  0.0976
 1200SOL    HW110205   1.680   6.637   6.133  0.5577  1.3649 -0.9465
 1200SOL    HW210206   1.778   6.711   6.220 -1.2886  0.3892  2.1099
 1201SOL     OW10207   3.024   8.583   7.396 -0.3435 -0.5198 -0.0905
 1201SOL    HW110208   3.030   8.672   7.431  1.9956 -0.4145 -0.6274
 1201SOL    HW210209   3.055   8.590   7.306 -0.4525 -1.8432 -0.2565
 1202SOL     OW10210   3.133   6.572   3.071  0.3489 -0.0834 -0.6703
 1202SOL    HW110211   3.214   6.522   3.078 -0.0405 -0.4725  1.4958
 1202SOL    HW210212   3.065   6.506   3.059 -0.0916 -0.0893  1.5846
 1203SOL     OW10213   8.835   3.260   9.675 -0.1469  0.3895  0.1903
 1203SOL    HW110214   8.889   3.289   9.749  0.9393 -0.2898 -0.3226
 1203SOL    HW210215   8.835   3.164   9.681  0.9406  0.2611 -1.3621
 1204SOL     OW10216  11.865  12.035   7.843 -0.2079 -0.2183  0.2027
 1204SOL    HW110217  11.903  12.017   7.757  0.0714  0.8716  0.0803
 1204SOL    HW210218  11.833  12.126   7.837  0.0901 -0.0177  1.3403
 1205SOL     OW10219   9.974  11.150  10.934 -0.0942  0.4376 -0.2052
 1205SOL    HW110220  10.041  11.084  10.952 -1.2574 -1.3281 -1.9723
 1205SOL    HW210221   9.923  11.155  11.015  1.8533  1.5193  1.0262
 1206SOL     OW10222  12.403   2.884   5.754  0.1720 -0.1961 -0.3800
 1206SOL    HW110223  12.345   2.834   5.811  1.5944 -2.1178 -0.5147
 1206SOL    HW210224  12.356   2.967   5.738 -0.7537 -0.0333  2.6264
 1207SOL     OW10225  10.997   2.121   1.172 -0.2130 -0.3528 -0.2698
 1207SOL    HW110226  11.034   2.208   1.177 -0.6139 -0.1995  0.1174
 1207SOL    HW210227  10.935   2.116   1.245 -0.4732 -0.8245 -0.5100
 1208SOL     OW10228   1.239   0.195   1.567 -0.1501 -0.2977 -0.6205
 1208SOL    HW110229   1.199   0.109   1.555 -2.0860  0.6533 -1.4344
 1208SOL    HW210230   1.301   0.203   1.495 -1.9922  0.0303 -2.2787
 1209SOL     OW10231   4.324   8.739  11.105  0.4955 -0.7984  0.0179
 1209SOL    HW110232   4.286   8.695  11.029 -0.3337  0.1645 -0.1456
 1209SOL    HW210233   4.284   8.695  11.180 -2.2848  1.2157 -0.1438
 1210SOL     OW10234   5.539   5.541  11.558 -0.0477  0.8577  0.3285
 1210SOL    HW110235   5.476   5.482  11.600  1.1121 -0.0556  0.8332
 1210SOL    HW210236   5.563   5.604  11.625  1.0543 -0.0024  0.7741
 1211SOL     OW10237   5.578  12.052   4.909 -0.3366  0.0811 -0.1660
 1211SOL    HW110238   5.567  12.068   4.815 -2.5139 -1.3739 -0.2603
 1211SOL    HW210239   5.496  12.009   4.934 -0.3335  1.5575  2.6832
 1212SOL     OW10240   9.977   2.659   1.169 -0.0850 -0.1511 -0.9028
 1212SOL    HW110241   9.922   2.615   1.233 -0.1664  0.5712 -0.4770
 1212SOL    HW210242   9.919   2.677   1.095 -0.9386  2.2510  0.2563
 1213SOL     OW10243   2.444   2.195   2.101  0.6620 -0.0887  0.3911
 1213SOL    HW110244   2.502   2.165   2.032 -1.1991 -0.0718 -1.2868
 1213SOL    HW210245   2.410   2.279   2.070  1.4962  1.0735  2.4157
 1214SOL     OW10246   9.035   2.110   2.010 -0.0601 -0.5855 -0.3004
 1214SOL    HW110247   9.032   2.017   1.987  0.7535 -0.8006  0.3979
 1214SOL    HW210248   9.052   2.111   2.104 -0.6266  0.2767 -0.1948
 1215SOL     OW10249  12.134   2.657  11.133 -0.1968  0.8211 -0.5788
 1215SOL    HW110250  12.191   2.601  11.080  0.3216  1.5530 -0.8038
 1215SOL    HW210251  12.049   2.612  11.132 -0.1580  0.7375 -1.8913
 1216SOL     OW10252   2.049  11.924  12.461 -0.0132 -0.0500 -0.4984
 1216SOL    HW110253   1.982  11.985  12.431  0.8451  0.3387 -1.6792
 1216SOL    HW210254   2.129  11.976  12.464  1.1078 -1.4574 -3.1814
 1217SOL     OW10255   0.852   1.802   3.186  0.0298  0.1475 -0.0088
 1217SOL    HW110256   0.768   1.765   3.213 -2.0932  2.5490 -2.6516
 1217SOL    HW210257   0.857   1.782   3.092  1.8602  1.0843 -0.1516
 1218SOL     OW10258   8.558  10.311   9.053  0.0287 -0.0123 -0.3701
 1218SOL    HW110259   8.633  10.271   9.097 -0.7885 -2.3985 -1.0168
 1218SOL    HW210260   8.490  10.317   9.121 -0.2394 -0.8795 -0.5524
 1219SOL     OW10261  11.067   5.594  12.730 -0.1642 -0.3761 -0.3679
 1219SOL    HW110262  11.075   5.664  12.664 -2.1543  0.9101  0.6565
 1219SOL    HW210263  11.145   5.540  12.717  0.1345  0.5380 -2.9394
 1220SOL     OW10264   7.069   7.956   5.713 -0.4895 -0.3028 -0.2107
 1220SOL    HW110265   7.003   8.016   5.747  1.8873  1.7569  1.0926
 1220SOL    HW210266   7.067   7.969   5.619 -1.1003  0.6645 -0.0763
 1221SOL     OW10267   7.590   0.172   1.252 -0.2974  0.0757  0.5783
 1221SOL    HW110268   7.525   0.193   1.186 -1.1634  0.5235  1.5440
 1221SOL    HW210269   7.613   0.080   1.236  0.1497  0.4270 -0.8577
 1222SOL     OW10270  10.635   2.011   9.532 -0.2324  0.3372  0.8950
 1222SOL    HW110271  10.661   1.928   9.573  1.6980  0.8556  0.7957
 1222SOL    HW210272  10.580   1.985   9.458  0.5122 -0.8843  0.7448
 1223SOL     OW10273  10.249   7.021   8.685  0.1440 -0.0951  0.3661
 1223SOL    HW110274  10.212   7.108   8.674  0.4539  0.0758  0.6685
 1223SOL    HW210275  10.221   6.973   8.607 -2.0480 -0.4409  1.2838
 1224SOL     OW10276   0.192   0.659   4.127 -0.2761 -0.0745  0.1467
 1224SOL    HW110277   0.251   0.728   4.097  0.3372 -0.9120 -0.6199
 1224SOL    HW210278   0.248   0.596   4.171 -0.9752  0.4014  1.7928
 1225SOL     OW10279   3.006   4.832   9.492  0.0285  0.1905  0.5274
 1225SOL    HW110280   2.930   4.889   9.496 -0.3560 -0.2865  0.1231
 1225SOL    HW210281   2.992   4.778   9.414  1.2531  0.7815 -0.1333
 1226SOL     OW10282   4.649  11.618   1.161 -0.1727 -0.6138 -0.1109
 1226SOL    HW110283   4.660  11.652   1.250 -1.6191 -0.9509  0.2259
 1226SOL    HW210284   4.648  11.696   1.106 -1.9613 -0.1613  0.4872
 1227SOL     OW10285   2.522  11.712   7.982 -0.1838  0.0986 -0.5602
 1227SOL    HW110286   2.478  11.795   7.962 -0.1437  0.3513  0.3503
 1227SOL    HW210287   2.505  11.698   8.076 -0.9532 -1.3876 -0.8967
 1228SOL     OW10288  10.112  10.891   0.985  0.0041  0.0133  0.0884
 1228SOL    HW110289  10.031  10.941   0.974  0.3737  0.4085 -0.8992
 1228SOL    HW210290  10.136  10.864   0.896  0.1841 -1.3369  0.5176
 1229SOL     OW10291   4.265   3.783  11.168  0.1578 -0.3601 -0.2169
 1229SOL    HW110292   4.245   3.841  11.095 -1.1936 -0.5286 -0.0067
 1229SOL    HW210293   4.246   3.695  11.135 -0.8625 -0.4065  0.4325
 1230SOL     OW10294   2.473   8.622   9.021  0.1021 -0.1746  0.4399
 1230SOL    HW110295   2.455   8.608   9.114 -1.3120 -0.6047  0.1322
 1230SOL    HW210296   2.427   8.551   8.977  3.0748 -1.6852 -0.4781
 1231SOL     OW10297   4.424   0.459   0.904  0.3288  0.0340 -0.1250
 1231SOL    HW110298   4.371   0.422   0.833 -1.6302  1.0794  0.7045
 1231SOL    HW210299   4.470   0.384   0.941 -0.2313 -0.8600 -1.1666
 1232SOL     OW10300   6.300   5.536   8.945 -0.4163 -0.2877  0.0286
 1232SOL    HW110301   6.228   5.514   9.005 -0.1298 -0.2423  0.3947
 1232SOL    HW210302   6.304   5.632   8.947 -0.0124 -0.3112  0.4081
 1233SOL     OW10303   4.513   8.203   3.001  0.0326 -0.8018 -0.4318
 1233SOL    HW110304   4.461   8.126   3.023  0.5479 -1.0867 -0.1839
 1233SOL    HW210305   4.583   8.204   3.066  0.1318 -0.2242 -0.5416
 1234SOL     OW10306  12.690   7.285   8.596 -0.1837 -0.2523  0.0007
 1234SOL    HW110307  12.647   7.253   8.516 -1.3542 -0.8701  0.8416
 1234SOL    HW210308  12.631   7.258   8.666 -0.2033  2.0530  0.9299
 1235SOL     OW10309   9.224   4.468   9.587  0.3482  0.4302  0.1514
 1235SOL    HW110310   9.287   4.427   9.528 -0.8679  0.0386 -0.9102
 1235SOL    HW210311   9.249   4.437   9.674  0.4510 -1.2956 -0.4543
 1236SOL     OW10312   9.572   1.069   0.009  0.0140 -0.0727  0.6089
 1236SOL    HW110313   9.499   1.092   0.066 -0.0516 -1.2437  1.0238
 1236SOL    HW210314   9.589   0.976   0.027  2.5661  0.5166  1.6259
 1237SOL     OW10315  11.596   2.972   1.348  0.6059  0.0964 -0.3054
 1237SOL    HW110316  11.581   2.985   1.442 -0.2164 -0.3857 -0.3558
 1237SOL    HW210317  11.656   3.042   1.324 -2.8893  3.4477 -0.3787
 1238SOL     OW10318   3.743   2.578   1.062 -0.5135  0.2456  0.3635
 1238SOL    HW110319   3.768   2.492   1.094 -3.3023 -0.8065  0.0010
 1238SOL    HW210320   3.774   2.580   0.972  0.3808  0.0142  0.6561
 1239SOL     OW10321   9.441   8.720   2.920  0.2402  0.4787 -0.1371
 1239SOL    HW110322   9.356   8.758   2.944 -0.4232 -0.5258 -0.8524
 1239SOL    HW210323   9.497   8.796   2.904 -0.5198  1.1559  0.3272
 1240SOL     OW10324   2.120  11.403   8.270 -0.3269 -0.3587 -0.2041
 1240SOL    HW110325   2.063  11.347   8.217 -2.5335  0.2986  1.3501
 1240SOL    HW210326   2.112  11.368   8.359  0.4219  0.7451  0.3190
 1241SOL     OW10327   2.791   5.861  11.201  0.3048  0.6371 -0.0800
 1241SOL    HW110328   2.729   5.909  11.146 -0.4339 -0.3037 -0.0995
 1241SOL    HW210329   2.791   5.772  11.165  1.4198  0.5304  0.1296
 1242SOL     OW10330   8.056   8.268  12.192 -0.0771 -0.1603 -0.5153
 1242SOL    HW110331   8.097   8.274  12.278 -0.3230  0.3574 -0.4330
 1242SOL    HW210332   8.046   8.174  12.177 -2.2730 -0.2482  1.0961
 1243SOL     OW10333   4.437  11.760  10.711  0.3301  0.6037  0.9762
 1243SOL    HW110334   4.371  11.691  10.717  1.6150 -0.7603  0.1506
 1243SOL    HW210335   4.403  11.831  10.766 -1.0405 -0.6628  1.8397
 1244SOL     OW10336   9.873   7.872   1.099 -0.8867 -0.7016 -0.1116
 1244SOL    HW110337   9.822   7.902   1.174 -2.7477 -1.0399 -1.1770
 1244SOL    HW210338   9.811   7.874   1.026  0.9711  0.0735 -1.7593
 1245SOL     OW10339   4.969   2.546   2.964 -0.0358  0.0852 -0.1468
 1245SOL    HW110340   5.051   2.559   3.012  0.9750 -0.4948 -1.6280
 1245SOL    HW210341   4.900   2.565   3.027  1.2142 -0.8683  1.5890
 1246SOL     OW10342   8.484   4.466  10.462 -0.2164 -0.1846  0.3137
 1246SOL    HW110343   8.470   4.382  10.505  1.0123 -1.9376 -2.4219
 1246SOL    HW210344   8.476   4.446  10.369  2.4643  2.2383 -0.5580
 1247SOL     OW10345   4.530   2.647   1.254 -0.2397 -0.2800 -0.3365
 1247SOL    HW110346   4.625   2.644   1.262 -0.2889 -2.2358  0.0348
 1247SOL    HW210347   4.513   2.610   1.167 -0.6604 -0.2306 -0.2755
 1248SOL     OW10348   9.645   5.270   7.229  0.1745  0.8957 -0.2365
 1248SOL    HW110349   9.597   5.237   7.153  0.5773 -2.5202  0.7995
 1248SOL    HW210350   9.722   5.312   7.193  0.8727 -1.5271 -1.7952
 1249SOL     OW10351   6.532   7.561  11.218 -0.0688  0.9925  0.3306
 1249SOL    HW110352   6.575   7.624  11.160  0.0721  0.0085 -0.6871
 1249SOL    HW210353   6.478   7.614  11.277 -2.1166  1.9844 -2.2196
 1250SOL     OW10354   1.599  11.213   0.850 -0.0827  0.1762 -0.7822
 1250SOL    HW110355   1.590  11.210   0.946 -1.3324 -0.7905 -0.9070
 1250SOL    HW210356   1.632  11.301   0.832 -0.6197  0.6569  0.4863
 1251SOL     OW10357   3.961   7.895   5.712  0.3236 -0.1841  0.0489
 1251SOL    HW110358   4.044   7.903   5.665 -0.1651  0.7041 -0.7029
 1251SOL    HW210359   3.979   7.835   5.784  1.6624  0.1546  0.0103
 1252SOL     OW10360   8.705   1.793   7.208 -0.1202  0.3776  0.1793
 1252SOL    HW110361   8.690   1.713   7.158  1.8598  0.1434 -0.1097
 1252SOL    HW210362   8.633   1.851   7.182  0.7741  0.2349 -2.9006
 1253SOL     OW10363   0.549  12.107  12.692 -0.0156  0.0859  0.1490
 1253SOL    HW110364   0.562  12.023  12.648  0.6597  0.8486 -1.1742
 1253SOL    HW210365   0.575  12.091  12.783 -0.0267 -1.1567 -0.0498
 1254SOL     OW10366   4.105  12.360  11.869  0.2669 -0.1933 -0.3944
 1254SOL    HW110367   4.180  12.315  11.829  0.4681  0.1295 -0.3849
 1254SOL    HW210368   4.081  12.305  11.943  0.1068 -0.6179 -0.7565
 1255SOL     OW10369   9.186   1.357   0.996  0.1588  0.0203 -0.0946
 1255SOL    HW110370   9.273   1.348   0.959 -0.2308 -0.0629 -1.0181
 1255SOL    HW210371   9.163   1.450   0.983  0.8631  0.5438  1.9168
 1256SOL     OW10372   1.557   4.626  11.571  0.5480  0.0594  0.3190
 1256SOL    HW110373   1.472   4.652  11.537  0.7586 -0.4870 -0.6546
 1256SOL    HW210374   1.558   4.531  11.564  1.2395  0.0614  0.3247
 1257SOL     OW10375   1.016   6.853  11.151 -0.3614  0.3880 -0.1882
 1257SOL    HW110376   1.101   6.812  11.169 -0.6155 -0.8280 -1.6004
 1257SOL    HW210377   1.022   6.939  11.192  0.6374 -0.5929  1.8331
 1258SOL     OW10378   2.622   8.233   1.959  0.1466  0.3786 -0.4616
 1258SOL    HW110379   2.670   8.314   1.976  0.6057  0.2523 -1.1136
 1258SOL    HW210380   2.620   8.188   2.044  0.8306  0.5748 -0.3298
 1259SOL     OW10381   5.574  12.264   8.839 -0.2778 -0.1269 -0.3610
 1259SOL    HW110382   5.560  12.256   8.745 -1.5875  0.6598 -0.2607
 1259SOL    HW210383   5.636  12.336   8.848  2.4384 -2.2817 -0.7251
 1260SOL     OW10384   0.731   7.101  12.153  1.2474 -0.4178  0.1475
 1260SOL    HW110385   0.695   7.180  12.195 -0.9546 -1.0999 -0.3227
 1260SOL    HW210386   0.808   7.133  12.105  0.2924  1.5163 -0.2168
 1261SOL     OW10387   4.219   9.082   5.404  0.1373 -0.3055  0.1396
 1261SOL    HW110388   4.187   9.155   5.457 -0.0379  0.0480 -0.4427
 1261SOL    HW210389   4.279   9.122   5.341  0.6503 -0.7741  0.3174
 1262SOL     OW10390   4.954   7.260   6.487 -0.5676  0.3283  0.4976
 1262SOL    HW110391   4.977   7.283   6.577 -2.4628  1.0535  0.8231
 1262SOL    HW210392   4.866   7.294   6.475 -1.2393 -1.7409 -0.9118
 1263SOL     OW10393   2.957  11.961   8.577 -0.2381  0.5410  0.3105
 1263SOL    HW110394   3.025  11.987   8.639 -0.2828 -0.9692  1.0110
 1263SOL    HW210395   2.880  12.010   8.604  0.4258  1.9633 -0.2452
 1264SOL     OW10396   2.666  10.236   4.942  0.4793 -0.1066 -0.0231
 1264SOL    HW110397   2.669  10.208   4.850 -0.0808 -0.2161 -0.0162
 1264SOL    HW210398   2.589  10.191   4.978  0.6030  0.0596  0.4592
 1265SOL     OW10399   7.704  10.253   7.809  0.6922 -0.2514  0.2475
 1265SOL    HW110400   7.627  10.306   7.831  1.0729  1.0389 -1.3201
 1265SOL    HW210401   7.668  10.172   7.773  0.0758 -0.1208  0.5563
 1266SOL     OW10402   7.119  10.257   6.794  0.1331 -0.2046 -0.1340
 1266SOL    HW110403   7.026  10.257   6.770  0.3668 -0.4657 -1.0700
 1266SOL    HW210404   7.119  10.238   6.888 -0.6306 -4.1945 -0.7351
 1267SOL     OW10405  11.871   9.216  10.273  0.0605  0.4077  0.1043
 1267SOL    HW110406  11.926   9.183  10.345 -0.4155 -0.3042  0.1493
 1267SOL    HW210407  11.899   9.307  10.261  0.4918  0.3795  0.8547
 1268SOL     OW10408   5.572   9.914  10.597  0.6201 -0.3014 -0.0201
 1268SOL    HW110409   5.659   9.874  10.597  2.0972  2.6498  0.2195
 1268SOL    HW210410   5.545   9.912  10.505  0.7176 -1.6317 -0.0366
 1269SOL     OW10411  10.709   5.393   0.077 -0.4399 -0.0968 -0.3084
 1269SOL    HW110412  10.796   5.428   0.093  0.7686 -2.8440 -0.4064
 1269SOL    HW210413  10.696   5.401  -0.017 -0.7662  1.2345 -0.1716
 1270SOL     OW10414   1.363   8.016   4.311  0.1011  0.6355 -0.1849
 1270SOL    HW110415   1.342   8.025   4.218  0.0457  1.1044 -0.1281
 1270SOL    HW210416   1.456   8.039   4.316  0.3399 -0.2755 -0.2576
 1271SOL     OW10417   8.139   8.858   7.560  0.2187 -0.2597 -0.6491
 1271SOL    HW110418   8.149   8.925   7.493  0.4605  1.5045  1.0621
 1271SOL    HW210419   8.055   8.877   7.602 -0.4865 -2.0375 -1.1555
 1272SOL     OW10420   9.400   9.046  11.456  0.2890  0.3364  0.1013
 1272SOL    HW110421   9.462   9.025  11.386  1.4935  0.3144  1.1503
 1272SOL    HW210422   9.337   9.105  11.414 -0.7177 -1.8827 -1.7716
 1273SOL     OW10423   9.241   3.255  11.546 -0.4246 -0.5380  0.0421
 1273SOL    HW110424   9.231   3.327  11.483 -0.5240 -0.6551 -0.0773
 1273SOL    HW210425   9.152   3.235  11.574 -0.6064 -1.7758 -1.2471
 1274SOL     OW10426  11.721   9.933   6.400 -0.1608  0.1116 -0.1488
 1274SOL    HW110427  11.764   9.985   6.332 -0.4134  2.1420  1.1781
 1274SOL    HW210428  11.779   9.857   6.412  2.1951  1.8912  0.3802
 1275SOL     OW10429   2.414  10.272   9.321 -0.4073  0.0557  0.2940
 1275SOL    HW110430   2.391  10.210   9.390  0.5721 -1.3402 -0.5818
 1275SOL    HW210431   2.338  10.274   9.263 -1.0866  0.9546  1.1803
 1276SOL     OW10432   7.319  12.467   4.464  0.2095  0.2688  0.1603
 1276SOL    HW110433   7.351  12.388   4.508 -3.0538 -0.6272  1.1944
 1276SOL    HW210434   7.373  12.537   4.500  2.5161 -1.2852  0.0028
 1277SOL     OW10435   8.968   9.921  11.006 -0.1973 -0.5452  0.3885
 1277SOL    HW110436   9.062   9.914  11.017  0.1281  1.4615 -0.6098
 1277SOL    HW210437   8.942   9.991  11.066 -1.0167 -0.8583  0.4224
 1278SOL     OW10438  11.704   2.157   1.354  0.1190 -0.0006 -0.5680
 1278SOL    HW110439  11.615   2.125   1.365  0.1268  0.6151  1.8716
 1278SOL    HW210440  11.734   2.175   1.443  1.9044  1.9062 -1.4765
 1279SOL     OW10441  10.323   0.638   3.496 -0.3162 -0.5502 -0.1879
 1279SOL    HW110442  10.397   0.593   3.536 -0.0936  0.9907  1.2426
 1279SOL    HW210443  10.353   0.729   3.485 -2.4040  0.4960  1.8244
 1280SOL     OW10444   6.809   4.316  12.490 -0.0220  0.0794 -0.3420
 1280SOL    HW110445   6.841   4.304  12.579 -0.0299  2.3052  0.0087
 1280SOL    HW210446   6.835   4.236  12.444 -0.8680 -1.5755  1.8601
 1281SOL     OW10447   9.729   6.018   3.977 -0.1236  0.2272 -0.3114
 1281SOL    HW110448   9.748   6.101   4.021 -1.7047  0.3585  0.2037
 1281SOL    HW210449   9.803   5.961   4.000  0.5794  1.2324 -0.0007
 1282SOL     OW10450   0.909   2.030   0.246 -0.3167  0.2061  0.2414
 1282SOL    HW110451   0.852   2.103   0.268 -0.2187  0.1851  0.5723
 1282SOL    HW210452   0.971   2.065   0.182  0.6122  0.7987  1.4325
 1283SOL     OW10453   2.736   8.869   1.064 -0.3054 -0.6579  0.1375
 1283SOL    HW110454   2.679   8.937   1.099 -1.8302 -1.6665 -0.2819
 1283SOL    HW210455   2.791   8.914   1.000 -0.7929  0.2989  0.3822
 1284SOL     OW10456   9.052   8.181   9.288 -0.2870 -0.5333  0.1198
 1284SOL    HW110457   9.051   8.137   9.373 -0.6648 -1.2060 -0.2204
 1284SOL    HW210458   9.143   8.208   9.275 -0.3582  0.1683  1.0291
 1285SOL     OW10459  10.660   5.750   3.882 -0.1058  1.0644  0.5279
 1285SOL    HW110460  10.609   5.774   3.804 -0.4668  0.5547  0.6067
 1285SOL    HW210461  10.595   5.737   3.951  0.2649  2.3398  1.1519
 1286SOL     OW10462  10.184  12.433   5.455  0.4234 -0.0050  0.2032
 1286SOL    HW110463  10.118  12.400   5.393 -1.1189  1.4285  0.9872
 1286SOL    HW210464  10.236  12.495   5.403 -0.1735  0.3882  0.0656
 1287SOL     OW10465   6.842   2.295   6.392 -0.4308  0.1204  0.2114
 1287SOL    HW110466   6.930   2.322   6.368  0.2153 -0.0067  2.1942
 1287SOL    HW210467   6.826   2.215   6.341  0.8012 -0.1259  0.1885
 1288SOL     OW10468   1.172  10.966   3.513 -0.3266  0.1255 -0.2996
 1288SOL    HW110469   1.193  10.886   3.465  0.6212  0.1161  0.0942
 1288SOL    HW210470   1.138  10.936   3.597 -0.1442  0.1353 -0.2220
 1289SOL     OW10471  10.042  12.535   3.637  0.4728  0.1954  0.2588
 1289SOL    HW110472  10.073  12.600   3.574  0.0583 -0.7124 -0.9240
 1289SOL    HW210473  10.106  12.464   3.632  0.6435  0.2717  1.1607
 1290SOL     OW10474   1.849   6.689  10.672  0.2048 -0.3012 -0.7839
 1290SOL    HW110475   1.866   6.707  10.579  0.2228 -0.0630 -0.7368
 1290SOL    HW210476   1.787   6.757  10.698  0.3101 -0.2793 -0.5868
 1291SOL     OW10477   1.113   7.914  11.225  0.2076  0.3962  0.7576
 1291SOL    HW110478   1.172   7.906  11.300 -0.2369  0.9408  1.1703
 1291SOL    HW210479   1.105   7.825  11.191  1.2710  0.3098  0.6886
 1292SOL     OW10480   4.685   6.173   1.082  0.0002 -0.0792  0.0169
 1292SOL    HW110481   4.756   6.220   1.039  0.6758 -0.8251  0.2929
 1292SOL    HW210482   4.647   6.238   1.142  1.4721 -0.0805  1.0275
 1293SOL     OW10483   2.066   3.791   8.562 -0.1686  0.6066  0.1813
 1293SOL    HW110484   2.006   3.751   8.624  1.1017  0.2524  1.2344
 1293SOL    HW210485   2.130   3.838   8.617  1.1731  0.0255 -0.8264
 1294SOL     OW10486   4.776   9.791   4.332 -0.2677 -0.0178 -0.1974
 1294SOL    HW110487   4.830   9.779   4.409 -1.5540  0.3459  0.8041
 1294SOL    HW210488   4.786   9.884   4.309  1.9532 -0.6136 -1.9469
 1295SOL     OW10489  12.154   0.666  12.402  0.4511 -0.5101  0.2961
 1295SOL    HW110490  12.060   0.647  12.410  0.4100 -0.1879  0.5929
 1295SOL    HW210491  12.163   0.704  12.315  0.2065  0.0419  0.5112
 1296SOL     OW10492   5.739   1.113  12.250 -0.4696  0.0828  0.6595
 1296SOL    HW110493   5.724   1.123  12.344 -1.4767 -1.7944  0.7475
 1296SOL    HW210494   5.652   1.096  12.213  0.0001  0.1475 -0.5288
 1297SOL     OW10495   6.576  11.751   7.991  0.1106 -0.4615 -0.0832
 1297SOL    HW110496   6.514  11.814   8.027  0.4272  0.0202 -0.3782
 1297SOL    HW210497   6.529  11.667   7.995 -0.7650 -0.0252 -0.7936
 1298SOL     OW10498   1.016  12.325   4.862 -0.2082 -0.0390  0.1085
 1298SOL    HW110499   1.008  12.295   4.771 -0.6956  0.5288 -0.0404
 1298SOL    HW210500   1.100  12.291   4.891  0.0330 -0.0728 -0.6166
 1299SOL     OW10501   0.593   0.176   0.562  0.4061  0.2217  0.6313
 1299SOL    HW110502   0.638   0.092   0.574  1.1477 -0.0216 -2.8755
 1299SOL    HW210503   0.505   0.151   0.532  0.3601  0.6982  0.3615
 1300SOL     OW10504  11.458   2.635   0.324  0.0528 -0.0990  0.3528
 1300SOL    HW110505  11.488   2.600   0.240  1.1227 -1.3532  1.2139
 1300SOL    HW210506  11.516   2.709   0.341  0.8569 -0.7904  0.6882
 1301SOL     OW10507   6.125   0.260  11.395 -0.1099 -0.2799  0.3880
 1301SOL    HW110508   6.207   0.218  11.421 -0.1497 -1.0945 -0.7584
 1301SOL    HW210509   6.068   0.189  11.367  0.2587  0.5291 -2.8317
 1302SOL     OW10510   7.032   3.017   5.896 -0.0910  0.4595 -0.1228
 1302SOL    HW110511   6.966   3.019   5.965 -0.6984  0.0271 -0.6784
 1302SOL    HW210512   7.071   3.104   5.898  0.4151  0.2347  1.2500
 1303SOL     OW10513   9.274   5.622   6.693 -0.1756  0.0277 -0.2419
 1303SOL    HW110514   9.327   5.581   6.761 -1.6629 -0.1623  0.8559
 1303SOL    HW210515   9.204   5.558   6.676 -1.2888  1.1581 -0.0688
 1304SOL     OW10516  10.279   9.024   8.937  0.2390  0.0259 -0.3998
 1304SOL    HW110517  10.224   8.956   8.898 -2.2156  1.0529  1.0307
 1304SOL    HW210518  10.280   9.094   8.873 -1.6377  0.6646  0.1720
 1305SOL     OW10519  10.721   4.824   8.944 -0.4061  0.2021 -0.4066
 1305SOL    HW110520  10.750   4.747   8.894 -2.7733 -0.2459 -1.2287
 1305SOL    HW210521  10.667   4.787   9.014  0.3629  1.0228  0.6419
 1306SOL     OW10522  10.288   7.531   2.768  0.3473 -0.6469 -0.4563
 1306SOL    HW110523  10.367   7.563   2.811 -1.2676  0.0418  2.1988
 1306SOL    HW210524  10.261   7.602   2.710 -0.3008  0.7124  1.4214
 1307SOL     OW10525   1.020  10.043   2.859  0.1047 -0.0269  0.1094
 1307SOL    HW110526   0.988  10.130   2.882 -0.9796 -0.6441  1.0208
 1307SOL    HW210527   0.994  10.031   2.768 -2.0111 -0.3728  0.7103
 1308SOL     OW10528  10.565  10.720   2.663 -0.0397  0.1360  0.3893
 1308SOL    HW110529  10.507  10.772   2.606 -0.5893 -0.8509  0.0232
 1308SOL    HW210530  10.622  10.785   2.705 -0.0428  0.9527 -0.8094
 1309SOL     OW10531   7.427   8.264   9.223  0.1459 -0.1826 -0.0552
 1309SOL    HW110532   7.461   8.237   9.308 -0.9969  0.6913  0.6980
 1309SOL    HW210533   7.335   8.238   9.224  0.2011 -0.5036 -1.1936
 1310SOL     OW10534   9.840   5.449  10.789 -0.2002  0.3990 -0.1566
 1310SOL    HW110535   9.932   5.435  10.814 -0.5292 -0.9175  0.3924
 1310SOL    HW210536   9.828   5.543  10.796  1.2507  0.6590 -0.7297
 1311SOL     OW10537   7.283   8.173  12.376 -0.2376  0.1154 -0.2816
 1311SOL    HW110538   7.233   8.178  12.458  0.8118 -2.5179  0.6059
 1311SOL    HW210539   7.218   8.153  12.309 -0.7833 -0.1564  0.3202
 1312SOL     OW10540   4.155   5.313  12.700 -0.2494  0.2305 -0.4089
 1312SOL    HW110541   4.221   5.373  12.666  0.9653 -0.1055  1.2403
 1312SOL    HW210542   4.107   5.284  12.622  0.6360  1.5354 -1.4942
 1313SOL     OW10543   8.784   7.799   7.563 -0.2312  0.6192  0.1865
 1313SOL    HW110544   8.766   7.706   7.549  1.7486 -0.0725  1.7436
 1313SOL    HW210545   8.700   7.837   7.589 -1.5432 -0.2506 -2.4388
 1314SOL     OW10546   9.162  11.215   9.109  0.7937  0.4548 -0.1644
 1314SOL    HW110547   9.220  11.234   9.182  1.1354  0.7200 -0.5017
 1314SOL    HW210548   9.078  11.194   9.149  0.7207  1.5262  0.2638
 1315SOL     OW10549   3.771   7.102   2.991  0.6602 -0.3767  0.0097
 1315SOL    HW110550   3.764   7.144   3.076  1.7951  0.6207 -0.3534
 1315SOL    HW210551   3.687   7.058   2.978 -0.2499  1.0662  0.7992
 1316SOL     OW10552   0.909  10.070   4.635  0.1681  0.2460 -0.1665
 1316SOL    HW110553   0.981  10.116   4.677  0.4280 -1.7009  1.6556
 1316SOL    HW210554   0.949   9.993   4.595 -0.7748 -0.4055  0.1138
 1317SOL     OW10555   4.946   0.306   1.977  0.4205  0.1725  0.1220
 1317SOL    HW110556   4.936   0.365   1.902 -0.9049  4.1321  3.0661
 1317SOL    HW210557   4.858   0.297   2.014  1.0128 -1.6817  1.2580
 1318SOL     OW10558   3.923   4.869   9.079 -0.0139 -0.1556 -0.3135
 1318SOL    HW110559   3.954   4.934   9.016  0.6712 -0.8729 -0.7414
 1318SOL    HW210560   3.849   4.911   9.123  0.2119  0.7821 -0.8038
 1319SOL     OW10561   5.252   6.620  11.604  0.4646  0.4414 -0.2534
 1319SOL    HW110562   5.175   6.633  11.660 -0.0820 -0.9933 -0.6236
 1319SOL    HW210563   5.300   6.549  11.646 -0.5568 -1.4686 -2.1513
 1320SOL     OW10564   0.040   6.258   7.249 -0.3127 -0.2557  0.1605
 1320SOL    HW110565  -0.039   6.222   7.210 -0.4551 -0.1546  0.3506
 1320SOL    HW210566   0.084   6.182   7.288 -0.6200 -0.2232  0.5744
 1321SOL     OW10567  11.232   6.526   9.903 -0.8492 -0.2391 -0.2431
 1321SOL    HW110568  11.231   6.596   9.968 -0.1656 -0.3053 -0.1473
 1321SOL    HW210569  11.231   6.446   9.954  1.2885 -0.3113 -0.2099
 1322SOL     OW10570  12.761   2.602  11.496 -0.1288  0.8328  0.1542
 1322SOL    HW110571  12.694   2.669  11.490 -0.6818  0.2127 -0.9225
 1322SOL    HW210572  12.723   2.534  11.552 -1.3791 -0.5540 -2.2318
 1323SOL     OW10573   7.985   3.535   7.063 -0.2207 -0.3712  0.0849
 1323SOL    HW110574   7.990   3.456   7.009  0.2881 -0.6578  0.5346
 1323SOL    HW210575   7.892   3.547   7.080 -0.2530 -1.4258  0.7757
 1324SOL     OW10576   2.403   8.187   1.514 -0.4073  0.2273  0.0862
 1324SOL    HW110577   2.314   8.218   1.496 -0.3298  0.9108  0.8243
 1324SOL    HW210578   2.419   8.120   1.448 -0.2092  2.4224 -2.2307
 1325SOL     OW10579   1.016   8.995   9.037 -0.6127 -0.2290  0.5094
 1325SOL    HW110580   1.025   9.034   9.124 -2.2304  0.8442  0.2469
 1325SOL    HW210581   0.973   8.911   9.052 -0.6614 -0.1587  0.7643
 1326SOL     OW10582   0.916   6.078   9.687  0.9071  0.3576  0.0302
 1326SOL    HW110583   0.996   6.036   9.654  0.9912  0.1127  0.5415
 1326SOL    HW210584   0.945   6.162   9.722  1.0411 -0.0183  0.8198
 1327SOL     OW10585   0.471   3.717  12.027 -0.0407  1.1275  0.3915
 1327SOL    HW110586   0.390   3.666  12.034  1.8488 -2.4331 -1.4145
 1327SOL    HW210587   0.514   3.704  12.112 -0.1206  0.7355  0.3744
 1328SOL     OW10588   4.485   2.514   2.115 -0.4205  0.5053 -0.7489
 1328SOL    HW110589   4.510   2.604   2.092  2.3465 -0.6040 -2.6297
 1328SOL    HW210590   4.564   2.477   2.153 -1.7572 -0.9649  0.7189
 1329SOL     OW10591  12.270   3.177   8.810  0.6617 -0.0835  0.2736
 1329SOL    HW110592  12.263   3.256   8.863 -1.2486 -0.6735  1.0141
 1329SOL    HW210593  12.331   3.121   8.857  1.4547  0.6525  0.1306
 1330SOL     OW10594   1.376   4.992  10.104  0.6089  0.0070  0.1620
 1330SOL    HW110595   1.312   4.935  10.147  1.9927 -3.5867 -2.0721
 1330SOL    HW210596   1.323   5.058  10.059 -1.2918 -0.8195  1.0738
 1331SOL     OW10597   7.324   0.708  10.783  0.0927 -0.2782  0.0768
 1331SOL    HW110598   7.295   0.680  10.696  1.6217  0.2329 -0.6469
 1331SOL    HW210599   7.315   0.803  10.781 -0.2029 -0.2910  0.6269
 1332SOL     OW10600   8.298   4.870   9.422 -0.4192  0.4372 -0.2499
 1332SOL    HW110601   8.292   4.775   9.432  3.0679  0.2057  1.2073
 1332SOL    HW210602   8.328   4.883   9.331  1.6425 -0.1546  0.2832
 1333SOL     OW10603   7.049   8.470  11.082  0.4462  0.2675  0.1665
 1333SOL    HW110604   7.019   8.448  11.170  1.7016  1.3517  0.9099
 1333SOL    HW210605   7.059   8.565  11.083  3.5040  0.0458 -0.0883
 1334SOL     OW10606   2.185   5.473   1.237  0.1476  0.1953 -0.2990
 1334SOL    HW110607   2.094   5.491   1.261 -0.2301 -0.4451 -1.2011
 1334SOL    HW210608   2.237   5.533   1.292 -0.8586  1.2237 -0.4318
 1335SOL     OW10609  12.517   2.140   8.324  0.4098 -0.1666  0.9719
 1335SOL    HW110610  12.524   2.045   8.316 -0.3394 -0.3078  1.8338
 1335SOL    HW210611  12.492   2.170   8.236 -0.2255 -0.8664  0.9063
 1336SOL     OW10612   9.806   7.424   6.595 -0.6184 -0.5637 -0.0787
 1336SOL    HW110613   9.876   7.435   6.659 -0.5724 -0.1338 -0.1985
 1336SOL    HW210614   9.746   7.361   6.635 -1.4469  0.9247  1.1217
 1337SOL     OW10615   6.559   0.212   5.512 -0.0892  0.0752  0.1712
 1337SOL    HW110616   6.559   0.138   5.451 -1.2843  0.6782 -0.5849
 1337SOL    HW210617   6.625   0.272   5.477  1.2706 -0.8247  1.0790
 1338SOL     OW10618   4.375   4.579   9.186  0.0207  0.1759 -0.0136
 1338SOL    HW110619   4.337   4.667   9.178  0.5663  0.5404  1.1042
 1338SOL    HW210620   4.300   4.521   9.197 -0.2850  0.7662  1.2331
 1339SOL     OW10621   1.313   8.899   3.095 -0.1647  0.5178  0.3624
 1339SOL    HW110622   1.217   8.898   3.089 -0.1527 -0.3432  0.1880
 1339SOL    HW210623   1.342   8.866   3.010  0.2794  0.4321  0.5481
 1340SOL     OW10624   8.474   9.294   2.256 -0.4183 -0.0359 -1.0349
 1340SOL    HW110625   8.474   9.333   2.169 -0.0356 -0.4142 -1.2107
 1340SOL    HW210626   8.559   9.249   2.262  0.0941  1.0188  0.0029
 1341SOL     OW10627  12.331  10.884   6.961  0.0601 -0.1506  0.2530
 1341SOL    HW110628  12.312  10.926   6.878  0.3965  0.4137  0.4559
 1341SOL    HW210629  12.381  10.806   6.938  2.5000  1.3646  0.0370
 1342SOL     OW10630  10.269   1.380   6.005  0.3047 -0.1661  0.3268
 1342SOL    HW110631  10.176   1.388   5.985  0.1333 -1.5284  0.4787
 1342SOL    HW210632  10.300   1.470   6.013 -0.9488  0.3053  0.0563
 1343SOL     OW10633   6.921  11.323   7.253  0.5901  0.2048 -0.1334
 1343SOL    HW110634   6.900  11.330   7.346 -1.5367  2.2014 -0.6633
 1343SOL    HW210635   6.839  11.296   7.211  1.4674 -0.5111 -1.4736
 1344SOL     OW10636   8.094   4.322   9.555 -0.5525 -0.3208  0.0891
 1344SOL    HW110637   8.101   4.385   9.483  1.1178 -0.9505 -0.3568
 1344SOL    HW210638   8.010   4.278   9.540  0.1707 -1.0853 -2.0670
 1345SOL     OW10639  10.184   6.554   4.570  0.1571  0.3008  0.2636
 1345SOL    HW110640  10.235   6.609   4.629  1.3647  0.8481 -1.2256
 1345SOL    HW210641  10.107   6.606   4.549  0.4740  0.7340  0.1629
 1346SOL     OW10642   6.783   6.789   4.878 -0.4666 -0.0727 -0.3585
 1346SOL    HW110643   6.811   6.845   4.806  0.8489 -1.7664 -1.2283
 1346SOL    HW210644   6.723   6.843   4.928  0.5080  1.9899 -1.3193
 1347SOL     OW10645   5.205   2.931   6.642  0.1479 -0.2223  0.4679
 1347SOL    HW110646   5.133   2.869   6.653  1.4467 -2.0806 -0.9576
 1347SOL    HW210647   5.283   2.884   6.671  1.4231  0.0704 -2.1529
 1348SOL     OW10648   1.467   3.084   1.884  0.5630  0.4514 -0.2210
 1348SOL    HW110649   1.561   3.079   1.868  0.7962  2.0913  0.4929
 1348SOL    HW210650   1.450   3.016   1.949  1.5619  1.2201  0.8772
 1349SOL     OW10651  12.333   4.895   2.768 -0.0392  0.3456  0.1845
 1349SOL    HW110652  12.410   4.899   2.825  0.6655 -0.1981 -0.7033
 1349SOL    HW210653  12.331   4.805   2.737  0.5811  1.0095 -1.9564
 1350SOL     OW10654   8.807   2.998   1.581 -0.4029 -0.6382  0.1725
 1350SOL    HW110655   8.897   3.023   1.604 -0.0097 -0.6178 -1.2952
 1350SOL    HW210656   8.754   3.074   1.606 -0.1169 -0.8676  1.5789
 1351SOL     OW10657   1.930  12.190   1.207  0.2496  0.6934  0.3639
 1351SOL    HW110658   1.990  12.260   1.182  1.2280  1.2916  3.8255
 1351SOL    HW210659   1.978  12.139   1.272 -2.6021  0.5919  2.5916
 1352SOL     OW10660   3.607   6.216  10.518  0.3759 -0.4143  0.3261
 1352SOL    HW110661   3.605   6.243  10.426  2.1762  0.3048  0.4687
 1352SOL    HW210662   3.515   6.220  10.545 -0.2971 -1.3880 -1.6252
 1353SOL     OW10663   2.432   7.985   2.766  0.0954  0.3908  0.6707
 1353SOL    HW110664   2.337   7.991   2.765 -0.0198 -0.5410  2.2178
 1353SOL    HW210665   2.462   8.076   2.761 -0.8959  0.7408  0.8561
 1354SOL     OW10666   3.088   0.410   7.245 -0.1453  0.4521 -0.0530
 1354SOL    HW110667   3.171   0.398   7.200  0.2199  0.4280  0.6303
 1354SOL    HW210668   3.022   0.392   7.177  0.3695  2.2944 -1.1037
 1355SOL     OW10669   7.278  12.029   5.405 -0.4130 -0.0321 -0.1548
 1355SOL    HW110670   7.258  12.114   5.367 -2.9837 -0.3760  0.2747
 1355SOL    HW210671   7.193  11.992   5.428  0.6521 -2.5431  0.0724
 1356SOL     OW10672  12.635   3.109   3.007 -0.2162  0.7600 -0.2371
 1356SOL    HW110673  12.574   3.170   3.049  2.0151  1.2987  2.5387
 1356SOL    HW210674  12.692   3.165   2.955 -0.4218  0.5806 -0.6588
 1357SOL     OW10675   5.688   1.618   5.044  0.5654 -0.0931  0.5421
 1357SOL    HW110676   5.708   1.582   5.130 -0.4291 -1.9228  0.0524
 1357SOL    HW210677   5.758   1.585   4.987  0.4197 -0.0922  0.3612
 1358SOL     OW10678  11.846   8.422   9.431  0.1337  0.0910 -0.6917
 1358SOL    HW110679  11.795   8.486   9.481 -0.1878 -0.5287 -0.2174
 1358SOL    HW210680  11.937   8.445   9.451  0.0162  0.1961 -0.2554
 1359SOL     OW10681  10.884   0.104   9.514 -0.5929 -0.4145  0.1640
 1359SOL    HW110682  10.795   0.137   9.526 -0.5824 -0.3857  0.1614
 1359SOL    HW210683  10.915   0.146   9.434 -0.6579 -0.5988  0.0392
 1360SOL     OW10684   6.266   8.135  10.764 -0.3512  0.5642 -0.0097
 1360SOL    HW110685   6.241   8.076  10.692 -2.2854  0.2713  0.8227
 1360SOL    HW210686   6.354   8.107  10.788 -0.8886 -1.5166 -0.1801
 1361SOL     OW10687   2.646   2.442   8.981 -0.3306 -0.3490 -0.5156
 1361SOL    HW110688   2.703   2.365   8.987 -0.6141 -0.5142  0.1797
 1361SOL    HW210689   2.637   2.472   9.072 -1.6280 -0.5381 -0.5655
 1362SOL     OW10690   3.088  11.258   2.305 -0.0254  0.7916 -0.5008
 1362SOL    HW110691   3.126  11.325   2.361  0.8534  0.3295 -0.5350
 1362SOL    HW210692   3.160  11.198   2.286 -1.2378 -1.4595  1.4043
 1363SOL     OW10693   0.681  11.790   9.689  0.3908  0.2290  0.8367
 1363SOL    HW110694   0.771  11.823   9.695  0.6059 -0.1559 -0.0294
 1363SOL    HW210695   0.666  11.779   9.595 -0.2739 -0.5066  1.0126
 1364SOL     OW10696  10.263   0.244   3.030  0.5536  0.2173  0.0859
 1364SOL    HW110697  10.168   0.245   3.034  0.4964 -1.3214 -0.4819
 1364SOL    HW210698  10.289   0.327   3.069 -0.9567 -0.0271  1.7170
 1365SOL     OW10699   8.753   4.736   1.059  0.3452  0.3311  0.5667
 1365SOL    HW110700   8.722   4.651   1.090  0.8402  0.3488  1.1279
 1365SOL    HW210701   8.803   4.716   0.980  1.1658 -0.0058  1.1566
 1366SOL     OW10702   2.963   7.758   7.396  0.2672  0.2366  0.1475
 1366SOL    HW110703   2.982   7.847   7.365  0.1057  0.4254  0.5815
 1366SOL    HW210704   3.012   7.751   7.478 -1.5177  0.7543  1.3139
 1367SOL     OW10705  11.619   7.879   7.683  0.2902  0.2689  0.5664
 1367SOL    HW110706  11.714   7.883   7.671  0.4650 -1.4773  1.1078
 1367SOL    HW210707  11.600   7.948   7.747  0.8764  2.0234 -1.0776
 1368SOL     OW10708   7.279   4.733   1.217  0.2658 -0.8736 -0.7157
 1368SOL    HW110709   7.328   4.814   1.198  0.3176 -0.6544  0.2798
 1368SOL    HW210710   7.347   4.667   1.231  0.4022 -0.3058  1.8666
 1369SOL     OW10711   2.917  11.571   0.829 -0.3444 -0.3304 -0.4763
 1369SOL    HW110712   2.966  11.496   0.861  1.2329  0.5730 -0.6409
 1369SOL    HW210713   2.859  11.595   0.901  1.0926 -0.0779  0.6542
 1370SOL     OW10714   6.748   3.366   9.151 -0.1018 -0.4576  0.4246
 1370SOL    HW110715   6.775   3.350   9.241  0.9395  0.0794  0.2207
 1370SOL    HW210716   6.656   3.342   9.149  0.4152 -2.6848  1.0629
 1371SOL     OW10717  10.458  11.245   9.651 -0.6005  0.5612  0.1064
 1371SOL    HW110718  10.457  11.186   9.726 -1.1352 -1.9626 -1.7468
 1371SOL    HW210719  10.536  11.220   9.602 -2.8595 -1.4922 -2.7404
 1372SOL     OW10720   9.085   6.952   3.083 -0.3629 -0.2159  0.4115
 1372SOL    HW110721   9.131   6.901   3.150 -0.3401 -1.0743 -0.2356
 1372SOL    HW210722   9.010   6.898   3.060  0.6959 -0.9323 -1.6840
 1373SOL     OW10723  11.030  12.326   9.501  0.2509  0.0685  0.2220
 1373SOL    HW110724  11.067  12.413   9.486  0.8557 -0.2264  0.0060
 1373SOL    HW210725  10.978  12.308   9.422  0.8935 -0.1635 -0.1516
 1374SOL     OW10726  12.766   3.739   8.234  0.2939  0.5790 -0.2287
 1374SOL    HW110727  12.784   3.720   8.326 -1.4074  1.3793  0.3087
 1374SOL    HW210728  12.837   3.696   8.186  0.2015 -1.4023  1.3134
 1375SOL     OW10729   0.387   6.355   5.645  0.3195 -0.2118 -0.2397
 1375SOL    HW110730   0.345   6.272   5.622  0.6396 -0.7026  0.9060
 1375SOL    HW210731   0.474   6.330   5.677 -0.8514  0.1121  3.7861
 1376SOL     OW10732   7.473   1.281   0.809  0.1024 -0.6257 -0.0042
 1376SOL    HW110733   7.440   1.333   0.736  0.4985  0.1256  0.3507
 1376SOL    HW210734   7.529   1.215   0.768  0.3395 -0.1959 -0.3830
 1377SOL     OW10735   5.047   3.643   9.730 -0.4027 -0.0814 -0.2720
 1377SOL    HW110736   5.073   3.727   9.691  0.6402 -1.0953 -1.9015
 1377SOL    HW210737   5.015   3.666   9.817  0.7981  1.8989 -0.2829
 1378SOL     OW10738   6.503   3.330  10.875 -0.4530  0.1299  0.0254
 1378SOL    HW110739   6.474   3.243  10.847  0.5455 -0.0849 -0.3940
 1378SOL    HW210740   6.597   3.331  10.855 -0.5050  1.4017 -0.2288
 1379SOL     OW10741   4.907   5.085   9.189  0.3811 -0.0017  0.1326
 1379SOL    HW110742   4.959   5.010   9.160  1.5958  0.3539  1.2453
 1379SOL    HW210743   4.852   5.108   9.115  2.2628 -0.0397 -1.3387
 1380SOL     OW10744   7.178  10.467   7.867  0.4517 -0.1389  0.0495
 1380SOL    HW110745   7.177  10.529   7.795  1.0944 -0.8051 -0.5450
 1380SOL    HW210746   7.176  10.522   7.946 -0.1691  0.5938 -0.4599
 1381SOL     OW10747   6.468   7.196   9.799 -0.1180  0.0332  0.2695
 1381SOL    HW110748   6.395   7.246   9.836  0.4853 -0.0934  1.6711
 1381SOL    HW210749   6.443   7.104   9.812 -0.5300 -0.0414 -0.9249
 1382SOL     OW10750   1.093   1.657  10.129 -0.1591 -0.1055 -0.1451
 1382SOL    HW110751   1.162   1.618  10.183 -0.9987 -1.7784 -0.2305
 1382SOL    HW210752   1.128   1.653  10.040 -1.7248 -4.5457 -0.7941
 1383SOL     OW10753   4.539   3.987   3.484 -0.1786 -0.4988 -1.0289
 1383SOL    HW110754   4.563   4.065   3.534  0.0962  0.4368 -2.5791
 1383SOL    HW210755   4.622   3.949   3.458 -0.2706 -1.9882  0.6403
 1384SOL     OW10756  11.243  12.195  11.175 -0.3572 -0.3032 -0.7546
 1384SOL    HW110757  11.187  12.217  11.100 -1.1472  0.3719  0.0027
 1384SOL    HW210758  11.183  12.157  11.238  0.5964 -2.5213 -1.1046
 1385SOL     OW10759   5.737   9.096   8.850 -0.1099  0.6734  0.0833
 1385SOL    HW110760   5.774   9.157   8.786  2.2958 -0.1805  0.5599
 1385SOL    HW210761   5.813   9.053   8.889 -1.6573 -1.7723  0.6252
 1386SOL     OW10762   6.528   4.556   0.736  0.4718  0.3968 -0.4467
 1386SOL    HW110763   6.566   4.644   0.747 -0.2460  0.6376  0.2170
 1386SOL    HW210764   6.490   4.536   0.822  3.7533 -2.0920  0.6078
 1387SOL     OW10765  10.695   1.003  11.702 -0.2510  0.2290  0.4360
 1387SOL    HW110766  10.635   1.044  11.764  0.8388 -0.9177  2.3230
 1387SOL    HW210767  10.668   0.912  11.698 -0.6483  0.3808 -1.2647
 1388SOL     OW10768   1.847   9.628  11.917 -0.0284  0.3430 -0.1891
 1388SOL    HW110769   1.904   9.702  11.937 -0.2393  0.6753 -0.8110
 1388SOL    HW210770   1.896   9.577  11.852  0.6713 -0.7542  1.1429
 1389SOL     OW10771  12.505   2.814  12.298  0.4819  0.2938  0.4359
 1389SOL    HW110772  12.463   2.896  12.271  1.9737  0.9519 -0.0009
 1389SOL    HW210773  12.598   2.831  12.288  0.8186 -1.5557  0.0672
 1390SOL     OW10774   4.734   2.646   0.477  0.1536 -0.0600  0.1563
 1390SOL    HW110775   4.678   2.602   0.414  0.2418 -2.0955  1.4090
 1390SOL    HW210776   4.791   2.577   0.511  0.9960  1.2330  1.4985
 1391SOL     OW10777   8.791  12.303  11.868 -0.3217 -0.0232  0.3529
 1391SOL    HW110778   8.829  12.386  11.897 -1.5225  1.0978 -1.0656
 1391SOL    HW210779   8.854  12.269  11.804  0.1967 -0.2249  0.9704
 1392SOL     OW10780  12.435  12.586   6.235 -0.0890 -0.2540 -0.2559
 1392SOL    HW110781  12.464  12.618   6.149 -1.1909 -0.2491 -0.6485
 1392SOL    HW210782  12.397  12.500   6.216 -1.1724  0.1409  0.0696
 1393SOL     OW10783  11.557   2.830   0.011 -0.3197  0.0468  0.6969
 1393SOL    HW110784  11.577   2.760   0.073 -2.4871 -1.0600  0.2464
 1393SOL    HW210785  11.489   2.881   0.053  0.1421  0.9721  0.3565
 1394SOL     OW10786   5.251   3.040   2.759 -0.2908 -0.4612  0.6302
 1394SOL    HW110787   5.255   3.036   2.855 -3.1141 -1.9349  0.7885
 1394SOL    HW210788   5.179   2.981   2.736  0.2619 -0.0728 -2.4127
 1395SOL     OW10789   8.345   0.909   1.800  0.0372  0.2002 -0.6087
 1395SOL    HW110790   8.375   0.944   1.716  2.7992 -0.2539  0.0998
 1395SOL    HW210791   8.397   0.829   1.812 -0.7389 -0.0636  1.2593
 1396SOL     OW10792  12.521   8.874   0.283 -0.3332 -0.3175 -0.5431
 1396SOL    HW110793  12.490   8.808   0.222  0.0535 -1.6198  0.6057
 1396SOL    HW210794  12.589   8.829   0.334 -0.6675  0.6884  0.8490
 1397SOL     OW10795   4.312   5.968   5.703  0.0956 -0.4583  0.0992
 1397SOL    HW110796   4.364   6.049   5.704  0.0879 -0.3971 -1.8632
 1397SOL    HW210797   4.305   5.944   5.796 -0.1351  1.9237  0.7774
 1398SOL     OW10798   8.781   9.943   2.604  0.9594  0.1995 -0.6237
 1398SOL    HW110799   8.828  10.012   2.557  1.3112 -0.5219 -1.3506
 1398SOL    HW210800   8.726   9.990   2.666  2.8305  1.0563  0.4595
 1399SOL     OW10801   6.103   8.917  10.637 -0.4024 -0.4341  0.2067
 1399SOL    HW110802   6.154   8.897  10.558  0.4606 -1.0126  0.8857
 1399SOL    HW210803   6.023   8.865  10.627 -0.2156 -0.6516 -0.2061
 1400SOL     OW10804   0.809   5.304   9.596 -0.1069  0.6061  0.5915
 1400SOL    HW110805   0.878   5.237   9.601 -1.9967 -1.3978  3.8230
 1400SOL    HW210806   0.854   5.386   9.612  1.8409 -0.3763  0.4293
 1401SOL     OW10807   5.522   1.236   0.434 -0.3455 -0.3246  0.0836
 1401SOL    HW110808   5.488   1.149   0.412 -1.9681  0.5367 -1.0892
 1401SOL    HW210809   5.473   1.261   0.512 -0.2275 -0.2721  0.1405
 1402SOL     OW10810   2.157   7.857   4.311 -0.2347  0.2209  0.1958
 1402SOL    HW110811   2.180   7.880   4.222 -0.4944 -0.6115 -0.0984
 1402SOL    HW210812   2.135   7.940   4.353  0.6037  0.7043 -0.2967
 1403SOL     OW10813   5.453   5.716   0.916  0.1033  0.2186  0.5186
 1403SOL    HW110814   5.530   5.772   0.926  0.8406 -0.6098 -0.2884
 1403SOL    HW210815   5.468   5.643   0.976 -0.4992  0.5063  1.0276
 1404SOL     OW10816   0.648   1.635   8.357  0.3911  0.4134  0.4294
 1404SOL    HW110817   0.651   1.557   8.412  0.7403  0.0001 -0.1634
 1404SOL    HW210818   0.740   1.657   8.341  0.3364 -0.4843 -1.3691
 1405SOL     OW10819   2.195   2.037   4.780 -0.1160  0.2911 -0.4237
 1405SOL    HW110820   2.106   2.043   4.745  0.1247 -1.8582 -1.5566
 1405SOL    HW210821   2.249   2.012   4.705  1.4441  1.3818  0.2867
 1406SOL     OW10822   9.168   9.429   3.576  0.3024  0.0850  0.3455
 1406SOL    HW110823   9.149   9.409   3.485  3.3265 -0.1292 -0.3313
 1406SOL    HW210824   9.130   9.357   3.626 -0.7073 -0.1859 -0.7930
 1407SOL     OW10825   1.151   0.028   9.438  0.4383  0.6298 -0.2065
 1407SOL    HW110826   1.183  -0.029   9.368  1.0861 -0.0348  0.6193
 1407SOL    HW210827   1.230   0.064   9.478  0.2815 -1.3627  2.1473
 1408SOL     OW10828  11.189   7.069   9.599 -0.1342 -0.1505  0.2542
 1408SOL    HW110829  11.147   6.986   9.577 -0.8098  0.0394  0.8041
 1408SOL    HW210830  11.281   7.056   9.576 -0.6492 -0.1843 -2.0850
 1409SOL     OW10831   1.928   2.737   1.725  0.3143  0.4135  0.2838
 1409SOL    HW110832   1.871   2.789   1.669  0.6664 -0.8029 -1.2858
 1409SOL    HW210833   2.016   2.747   1.687  0.7768  0.4876  1.3266
 1410SOL     OW10834  11.227  10.188  12.147  0.4825  0.5382 -0.6117
 1410SOL    HW110835  11.266  10.153  12.227  2.0157  1.2196 -1.0277
 1410SOL    HW210836  11.204  10.278  12.168 -2.3959 -0.2641  0.1017
 1411SOL     OW10837  11.064   3.668   5.877  0.2504  0.2908 -0.4367
 1411SOL    HW110838  11.038   3.580   5.903  0.5547  0.4930  0.6006
 1411SOL    HW210839  11.156   3.658   5.849  0.7014  0.4957  0.9270
 1412SOL     OW10840   9.255   7.130   9.263 -0.0205 -0.0181 -0.1279
 1412SOL    HW110841   9.291   7.189   9.330  0.7142 -1.9539  1.2541
 1412SOL    HW210842   9.246   7.046   9.307  1.2840 -1.6253 -2.6864
 1413SOL     OW10843   1.857   1.441   5.950 -0.3235 -0.3258 -0.4229
 1413SOL    HW110844   1.853   1.496   5.872 -0.1152  0.3713  0.0447
 1413SOL    HW210845   1.791   1.479   6.009  0.9544  0.4732  0.5448
 1414SOL     OW10846   4.813   3.182   3.597  0.5198  0.6695  0.4336
 1414SOL    HW110847   4.864   3.194   3.517  0.0413 -1.1929 -0.1858
 1414SOL    HW210848   4.735   3.236   3.585  0.7200  0.8434 -0.1050
 1415SOL     OW10849   6.175   0.877   6.633 -0.0546  0.0137 -0.2806
 1415SOL    HW110850   6.166   0.956   6.685 -2.5032  0.3268 -1.0185
 1415SOL    HW210851   6.091   0.832   6.644  0.2187 -1.0562 -2.1033
 1416SOL     OW10852   5.809   4.574   0.686  0.2833 -0.1965 -0.4286
 1416SOL    HW110853   5.853   4.645   0.639  0.2048 -1.3330 -2.3439
 1416SOL    HW210854   5.771   4.520   0.617 -1.9301 -0.6863  1.0568
 1417SOL     OW10855   2.230  12.031   1.103  0.3250  0.4747  0.1234
 1417SOL    HW110856   2.325  12.032   1.092  0.3454  0.8903  0.3354
 1417SOL    HW210857   2.207  12.121   1.126 -0.1976  0.5177 -0.5364
 1418SOL     OW10858   0.557   9.585  12.495  0.0162  0.0321 -0.4482
 1418SOL    HW110859   0.532   9.537  12.574  0.6493  1.0559  0.4234
 1418SOL    HW210860   0.492   9.654  12.487 -0.6582 -0.6990 -1.4566
 1419SOL     OW10861  11.694  10.677   0.855  0.5593 -0.2997  0.4611
 1419SOL    HW110862  11.759  10.729   0.809  1.3023 -0.7576  0.9790
 1419SOL    HW210863  11.614  10.686   0.802  1.0186  0.3116 -0.1410
 1420SOL     OW10864   5.890  11.965   5.925 -0.3420 -0.6267  0.1212
 1420SOL    HW110865   5.918  12.049   5.962 -1.7567  0.2197 -0.6162
 1420SOL    HW210866   5.970  11.926   5.890  0.5121 -0.0778  1.3820
 1421SOL     OW10867   4.780  11.508  10.390 -0.7166  0.0882  1.0247
 1421SOL    HW110868   4.728  11.428  10.383 -1.0006  0.1088  2.4625
 1421SOL    HW210869   4.739  11.556  10.463 -1.9715  2.6368 -1.1834
 1422SOL     OW10870   0.748  11.287   9.932  0.1202  0.1260 -0.2209
 1422SOL    HW110871   0.699  11.297   9.851 -1.1778  2.2848  0.7419
 1422SOL    HW210872   0.682  11.264   9.997  0.8397  0.2531  0.5678
 1423SOL     OW10873   0.844   8.543   2.381 -0.6041 -0.1283 -0.0352
 1423SOL    HW110874   0.798   8.475   2.430  0.7160 -0.5220  0.7195
 1423SOL    HW210875   0.909   8.578   2.443 -1.1836  1.7780 -0.4243
 1424SOL     OW10876  11.268   4.066   4.173  0.6986 -0.1458  0.1411
 1424SOL    HW110877  11.225   3.988   4.139  0.8133  0.4260 -1.3715
 1424SOL    HW210878  11.199   4.132   4.179  0.8557  0.0163  0.1965
 1425SOL     OW10879   2.829   8.001  10.952 -0.5276  0.5096  0.2692
 1425SOL    HW110880   2.735   7.984  10.943 -0.6083  0.2751  1.4487
 1425SOL    HW210881   2.834   8.096  10.964 -0.4287  0.8139 -1.8379
 1426SOL     OW10882   7.662   1.285   7.141  0.1864  0.1258  0.1452
 1426SOL    HW110883   7.630   1.329   7.062  0.7662  2.5767  1.1950
 1426SOL    HW210884   7.725   1.221   7.109  0.7421  1.3752 -1.3865
 1427SOL     OW10885   0.910   3.177   6.466  0.0554 -0.1763  0.3745
 1427SOL    HW110886   0.890   3.271   6.463 -3.2433 -0.7646 -0.0081
 1427SOL    HW210887   0.979   3.165   6.400 -0.5990  1.7643 -0.7512
 1428SOL     OW10888   3.686  11.609   2.634  0.1263 -0.0466  0.0925
 1428SOL    HW110889   3.713  11.640   2.721 -1.3849  1.2949  0.1240
 1428SOL    HW210890   3.683  11.688   2.581  0.0920 -0.7271 -0.9369
 1429SOL     OW10891   2.494   7.022  10.282 -0.0870 -0.1374 -0.2821
 1429SOL    HW110892   2.463   7.016  10.372  0.2182  0.4645 -0.1266
 1429SOL    HW210893   2.455   6.947  10.238 -0.1858 -0.4751  0.3655
 1430SOL     OW10894   6.998  12.388   1.399 -0.4910 -0.6798 -0.4585
 1430SOL    HW110895   6.924  12.424   1.449  2.0893  2.0650  1.7673
 1430SOL    HW210896   7.053  12.346   1.464  0.8611 -0.9513 -1.7214
 1431SOL     OW10897   9.914   3.779   9.375 -0.3971  0.0491  0.2589
 1431SOL    HW110898   9.892   3.687   9.388 -0.6273  0.0880  0.1619
 1431SOL    HW210899   9.925   3.788   9.280  0.3403 -0.0340  0.3343
 1432SOL     OW10900   5.983   3.261   5.492  0.2126 -0.2303  0.7659
 1432SOL    HW110901   5.901   3.305   5.512  1.1117  1.7776  0.2801
 1432SOL    HW210902   6.025   3.249   5.577  0.4778  0.9762  0.8216
 1433SOL     OW10903   3.488   9.050   0.523 -0.3309 -0.5374  0.3503
 1433SOL    HW110904   3.406   9.085   0.558 -0.0035 -1.7595  2.5047
 1433SOL    HW210905   3.556   9.089   0.578  0.4261 -0.7608 -0.4018
 1434SOL     OW10906   4.921   8.213   8.586  0.6493  0.7479 -0.0764
 1434SOL    HW110907   4.975   8.137   8.562 -0.2857 -0.2780  0.9095
 1434SOL    HW210908   4.922   8.269   8.508  0.8830 -0.5705 -1.0630
 1435SOL     OW10909  11.718  10.849   8.622  0.2563  0.2140 -0.4283
 1435SOL    HW110910  11.795  10.852   8.678 -0.7541 -0.7961  1.1030
 1435SOL    HW210911  11.672  10.932   8.639  0.3920  0.2897 -0.4314
 1436SOL     OW10912   6.864   3.913  10.796 -0.4275  0.4285  0.3403
 1436SOL    HW110913   6.885   3.994  10.751  2.9074 -0.6664 -0.3374
 1436SOL    HW210914   6.903   3.844  10.742  1.3216 -1.1763  3.3626
 1437SOL     OW10915   4.303  11.591   1.756 -0.6788  0.3001 -0.1446
 1437SOL    HW110916   4.323  11.682   1.734  0.8212  0.6205  2.1650
 1437SOL    HW210917   4.375  11.541   1.717 -0.0366  0.4452  0.8207
 1438SOL     OW10918   7.777   0.770   6.207  0.0376 -0.0825  0.4280
 1438SOL    HW110919   7.777   0.692   6.263 -1.1000  0.6892  1.5696
 1438SOL    HW210920   7.747   0.738   6.122  0.2514 -1.0056  0.6874
 1439SOL     OW10921  10.969   3.195   1.270  0.9831  0.2444  0.3532
 1439SOL    HW110922  11.021   3.266   1.231  0.6149 -0.3139 -1.2478
 1439SOL    HW210923  10.879   3.214   1.243  0.8443 -0.6492  0.1514
 1440SOL     OW10924   2.493   9.984  11.093 -0.2468 -0.2395  0.0027
 1440SOL    HW110925   2.543   9.911  11.130 -2.3376 -1.3147  0.8613
 1440SOL    HW210926   2.402   9.964  11.114 -0.8835  2.9723  0.9257
 1441SOL     OW10927   9.846  10.977   9.997  0.2944 -0.4356 -0.3021
 1441SOL    HW110928   9.772  11.034   9.979  0.9150  0.4182 -0.2009
 1441SOL    HW210929   9.808  10.889  10.005 -0.5565 -0.1589 -1.2644
 1442SOL     OW10930   8.188  10.839   6.003 -0.4237  0.3304 -0.5502
 1442SOL    HW110931   8.136  10.877   5.931  0.0723  0.8362 -0.6506
 1442SOL    HW210932   8.229  10.763   5.964 -2.3830 -1.0803 -0.0233
 1443SOL     OW10933   2.290   9.046   3.238  0.2400 -0.4378  0.5688
 1443SOL    HW110934   2.289   9.088   3.324 -0.0843 -1.9586  1.3433
 1443SOL    HW210935   2.290   9.118   3.176 -3.0705  0.7825  1.7750
 1444SOL     OW10936   7.958   9.176   8.505  0.2274 -0.2928  0.2343
 1444SOL    HW110937   7.948   9.268   8.479  4.2739  0.4702  0.6767
 1444SOL    HW210938   7.937   9.127   8.425  1.0457  1.2585 -1.0038
 1445SOL     OW10939   6.683  10.318   0.308  0.5846 -0.0981  0.0320
 1445SOL    HW110940   6.771  10.354   0.322  0.6855  0.5271 -1.9502
 1445SOL    HW210941   6.698  10.237   0.259  0.0381  0.6898 -1.5118
 1446SOL     OW10942   2.317  10.935  11.740  0.2877  0.4843 -0.1478
 1446SOL    HW110943   2.320  10.840  11.732 -1.4722  0.0651  2.6194
 1446SOL    HW210944   2.244  10.963  11.685  1.4803  0.4391 -1.8242
 1447SOL     OW10945  12.089   5.899   8.393  0.3299  0.1214 -0.2473
 1447SOL    HW110946  12.123   5.813   8.418  0.2708  0.0491 -0.4106
 1447SOL    HW210947  12.157   5.937   8.337  0.6199  0.4312  0.3073
 1448SOL     OW10948   3.560   9.135   3.366 -0.3821  0.6042  0.0563
 1448SOL    HW110949   3.644   9.183   3.372 -0.4178  1.6068 -4.4357
 1448SOL    HW210950   3.584   9.048   3.334 -0.9989  0.6989 -0.6799
 1449SOL     OW10951   9.787   4.415   0.433 -0.6600 -0.4014 -0.1796
 1449SOL    HW110952   9.763   4.322   0.440 -1.4030 -0.2933 -1.1522
 1449SOL    HW210953   9.717   4.454   0.381  0.8670  0.2062 -1.8816
 1450SOL     OW10954   6.374   8.401  10.136  0.0799 -0.0626  0.1682
 1450SOL    HW110955   6.364   8.371  10.046 -0.5548  0.5147  0.0360
 1450SOL    HW210956   6.308   8.352  10.185  0.7630 -0.7515  0.4239
 1451SOL     OW10957   7.026   0.897  10.553 -0.3946  0.3427 -0.2348
 1451SOL    HW110958   6.961   0.833  10.584  1.4539 -1.1839  0.6982
 1451SOL    HW210959   7.073   0.853  10.483 -0.7221  1.6500 -1.3102
 1452SOL     OW10960  11.806   6.067   0.057  0.7060 -0.0212  0.0930
 1452SOL    HW110961  11.783   6.141   0.002 -0.3374 -0.0869  0.4350
 1452SOL    HW210962  11.746   5.997   0.031  1.4946 -0.6686 -0.0366
 1453SOL     OW10963  11.963   1.750   6.090 -0.4623 -0.4040  0.3555
 1453SOL    HW110964  11.898   1.747   6.021  1.4615  3.0414 -1.8743
 1453SOL    HW210965  11.929   1.814   6.153  0.5319  1.1846 -0.6682
 1454SOL     OW10966  12.639   2.143   9.953 -0.0816 -0.2015 -0.7259
 1454SOL    HW110967  12.572   2.100   9.900 -1.4378 -0.0890  0.8296
 1454SOL    HW210968  12.683   2.202   9.892 -1.7330  0.1054 -1.6854
 1455SOL     OW10969   0.815   7.497   6.091  0.5207  0.6468 -0.2150
 1455SOL    HW110970   0.818   7.401   6.099  0.8019  0.6464 -0.3412
 1455SOL    HW210971   0.886   7.528   6.146  3.2481  0.5988 -3.4113
 1456SOL     OW10972   5.074  12.194  12.076  0.0231 -0.2614  0.1885
 1456SOL    HW110973   4.995  12.155  12.113 -0.2167 -0.5158 -0.5739
 1456SOL    HW210974   5.081  12.155  11.988 -0.6936  2.0083 -0.9558
 1457SOL     OW10975   3.165   5.581  12.736  0.2945 -0.6547 -0.9600
 1457SOL    HW110976   3.119   5.623  12.664 -0.1311 -3.1318 -2.2430
 1457SOL    HW210977   3.233   5.644  12.762 -1.1931  1.3575 -1.7501
 1458SOL     OW10978   4.547   6.824   6.271 -0.0321  0.0098 -0.1430
 1458SOL    HW110979   4.483   6.776   6.220  0.5106 -1.1833  0.2713
 1458SOL    HW210980   4.503   6.906   6.293 -1.2602 -0.6082 -0.2030
 1459SOL     OW10981   5.494   3.938  12.567 -0.3655  0.6944 -0.4325
 1459SOL    HW110982   5.425   3.984  12.518 -0.2918  1.1339 -0.1272
 1459SOL    HW210983   5.504   3.855  12.521 -0.8441  0.7814 -0.6992
 1460SOL     OW10984   6.096   6.155   1.868  0.0631 -0.6774  0.0634
 1460SOL    HW110985   6.002   6.170   1.856 -0.3889  1.3605  4.2655
 1460SOL    HW210986   6.137   6.200   1.794 -2.2224  2.1031  0.3111
 1461SOL     OW10987   3.638   7.554   0.081 -0.0771 -0.1671  0.0756
 1461SOL    HW110988   3.560   7.602   0.052  0.2753  0.8092  0.7039
 1461SOL    HW210989   3.604   7.470   0.112 -1.0199  0.6022  1.2308
 1462SOL     OW10990   0.159   6.973   3.864  0.4480 -0.0358  0.2678
 1462SOL    HW110991   0.101   6.939   3.796 -0.0630  1.1712  0.0734
 1462SOL    HW210992   0.107   7.039   3.910  1.1911  0.0343  1.0498
 1463SOL     OW10993   9.062   9.961   8.485  0.1877  0.2457 -0.1986
 1463SOL    HW110994   9.007  10.032   8.452 -0.3393 -0.6800 -1.4420
 1463SOL    HW210995   9.030   9.944   8.573  0.4438  1.6443  0.1874
 1464SOL     OW10996   9.580   9.940   0.204  0.4808 -0.6164 -0.0685
 1464SOL    HW110997   9.573  10.034   0.222 -0.1058 -0.6532 -0.0760
 1464SOL    HW210998   9.610   9.902   0.286  1.5380 -0.3282 -0.3067
 1465SOL     OW10999   1.294   9.405   0.283 -0.2516  0.3411 -0.2316
 1465SOL    HW111000   1.322   9.465   0.351 -2.3500 -0.4408  1.4289
 1465SOL    HW211001   1.199   9.415   0.279 -0.4163 -1.2601 -1.4651
 1466SOL     OW11002   8.719   1.214   2.061 -0.0855 -0.6380 -0.2634
 1466SOL    HW111003   8.758   1.134   2.027  1.4748  0.0174 -0.1093
 1466SOL    HW211004   8.625   1.196   2.064  0.3710 -3.0982  1.4752
 1467SOL     OW11005   6.156   5.878   5.607  0.3734  0.3321 -0.0928
 1467SOL    HW111006   6.083   5.835   5.562  0.9443 -0.7325 -0.0310
 1467SOL    HW211007   6.114   5.939   5.667 -0.4872 -0.4514  0.1309
 1468SOL     OW11008   2.825  11.173   1.017  0.1127 -0.2610  0.8088
 1468SOL    HW111009   2.900  11.195   1.073  2.3090 -1.0192 -1.5845
 1468SOL    HW211010   2.788  11.094   1.056  1.5673 -0.7736  1.2161
 1469SOL     OW11011  11.788   6.339   3.151 -0.1610  0.0715 -0.4005
 1469SOL    HW111012  11.883   6.335   3.157 -0.1311 -0.5073 -1.1628
 1469SOL    HW211013  11.760   6.373   3.237  0.6572 -0.7867  0.2248
 1470SOL     OW11014   6.538   0.483   8.261  0.1845 -0.2822 -0.3671
 1470SOL    HW111015   6.608   0.462   8.323  0.0192 -2.1128 -0.7452
 1470SOL    HW211016   6.457   0.471   8.311  0.0935  0.0301 -0.4380
 1471SOL     OW11017   5.867  12.439  10.085 -0.1401  0.4032  0.3390
 1471SOL    HW111018   5.801  12.451  10.153  1.0329 -0.2894  1.6427
 1471SOL    HW211019   5.881  12.344  10.081  0.9592  0.5528  0.2879
 1472SOL     OW11020   5.427   1.274   4.350  0.2445  0.3804 -0.4474
 1472SOL    HW111021   5.387   1.342   4.404 -1.4025  0.3835 -1.6007
 1472SOL    HW211022   5.411   1.193   4.399 -0.3638  0.4956 -0.4484
 1473SOL     OW11023  11.430   7.937  11.757  0.1822 -0.6699  0.5285
 1473SOL    HW111024  11.460   7.896  11.676 -2.5734 -1.3297 -0.2397
 1473SOL    HW211025  11.413   8.028  11.734 -0.0628 -0.7207  0.5059
 1474SOL     OW11026  10.238   0.574   7.212 -0.5481  0.5163 -0.1964
 1474SOL    HW111027  10.246   0.576   7.308 -0.2316  1.7813 -0.2296
 1474SOL    HW211028  10.152   0.614   7.195 -0.4062  0.7137 -0.4553
 1475SOL     OW11029   8.355  11.590   8.589  0.2917 -0.2162 -0.6921
 1475SOL    HW111030   8.307  11.670   8.569  2.2287  0.7238 -1.9623
 1475SOL    HW211031   8.288  11.523   8.604 -1.5035  2.0464  2.7128
 1476SOL     OW11032   8.060   1.729   8.938  0.0272 -0.1980  0.4101
 1476SOL    HW111033   8.083   1.723   9.031 -1.6093  0.8276  0.9246
 1476SOL    HW211034   8.100   1.811   8.909 -0.1002 -0.1338  0.4146
 1477SOL     OW11035   0.044   7.178  12.705  0.3221  0.3762 -0.1496
 1477SOL    HW111036  -0.019   7.179  12.777  0.0957  0.5474 -0.3489
 1477SOL    HW211037   0.109   7.113  12.731  0.8634  1.2637  0.7337
 1478SOL     OW11038   6.604   2.443   6.156 -0.1974 -0.1458  0.5227
 1478SOL    HW111039   6.610   2.492   6.074  1.0306 -0.1122  0.6244
 1478SOL    HW211040   6.618   2.508   6.224 -0.1305 -0.3618  0.7178
 1479SOL     OW11041   8.528   7.811   0.621 -0.0286  0.5511 -0.6570
 1479SOL    HW111042   8.540   7.812   0.526  1.1736  1.4579 -0.5250
 1479SOL    HW211043   8.524   7.718   0.644  1.3222  0.2650 -1.4398
 1480SOL     OW11044  12.244   0.774   2.087 -0.0210  0.5870 -0.3308
 1480SOL    HW111045  12.171   0.748   2.030 -0.9201  1.1148  0.5365
 1480SOL    HW211046  12.321   0.772   2.030 -0.6626 -0.2237 -1.2180
 1481SOL     OW11047  12.307   0.029  11.172  0.5765  0.4206 -0.3068
 1481SOL    HW111048  12.246   0.082  11.223  1.6852 -0.1086  1.6819
 1481SOL    HW211049  12.259  -0.051  11.151  0.4537  0.1625  0.9235
 1482SOL     OW11050  10.839  10.010  12.679 -0.4194 -0.4561 -0.1307
 1482SOL    HW111051  10.867  10.101  12.686  1.1544 -0.7013 -2.3072
 1482SOL    HW211052  10.920   9.960  12.688 -1.0365 -1.5516 -0.5285
 1483SOL     OW11053   1.167  11.946   1.907  0.1592 -0.3369  0.1116
 1483SOL    HW111054   1.217  11.943   1.989  0.2742 -3.4601  0.0361
 1483SOL    HW211055   1.079  11.919   1.932  0.2096 -1.3623 -0.7735
 1484SOL     OW11056   8.830  11.417  11.530 -0.6006  0.1384 -0.4095
 1484SOL    HW111057   8.889  11.343  11.525 -0.0292  0.3920  1.6237
 1484SOL    HW211058   8.766  11.393  11.598  0.6246  2.0978  1.6030
 1485SOL     OW11059   2.853   5.560   5.682  0.4054 -0.2653 -0.6197
 1485SOL    HW111060   2.900   5.545   5.600 -0.6666 -1.6802 -1.0304
 1485SOL    HW211061   2.916   5.603   5.739  1.6131 -0.5101 -1.7247
 1486SOL     OW11062   6.634   6.751   0.980 -0.3994  0.3316  0.2363
 1486SOL    HW111063   6.566   6.688   0.956 -1.0583  1.6376 -1.6187
 1486SOL    HW211064   6.700   6.742   0.911  0.2344  0.6253  0.7925
 1487SOL     OW11065   4.741   7.140   3.071 -0.1458 -0.1840  0.3054
 1487SOL    HW111066   4.774   7.059   3.034 -1.5070 -0.3781 -0.5346
 1487SOL    HW211067   4.650   7.122   3.093  0.4600 -0.0004  3.5821
 1488SOL     OW11068   0.607  10.491  12.615 -0.3262  0.2554 -0.5649
 1488SOL    HW111069   0.546  10.475  12.687  0.5967 -0.0510  0.1613
 1488SOL    HW211070   0.652  10.572  12.639  0.0874  0.0729 -0.7151
 1489SOL     OW11071   0.205  10.646   8.226 -0.2680  1.0148 -1.0854
 1489SOL    HW111072   0.265  10.574   8.249  0.5433  1.9837 -0.0336
 1489SOL    HW211073   0.259  10.707   8.176 -0.5888  1.5092 -0.8384
 1490SOL     OW11074  11.904   2.342   1.329  0.4640 -0.0372 -0.4667
 1490SOL    HW111075  11.914   2.395   1.250 -0.0392 -0.6363 -0.9406
 1490SOL    HW211076  11.814   2.312   1.326  1.2692 -2.6175 -1.3000
 1491SOL     OW11077   2.427   7.126   3.593  0.5080 -1.2135  0.2771
 1491SOL    HW111078   2.491   7.196   3.580 -2.0214  1.0178 -1.1099
 1491SOL    HW211079   2.412   7.091   3.505  0.4405 -2.2939  0.7088
 1492SOL     OW11080   4.963   0.453   0.121  0.3199 -0.4232 -0.1285
 1492SOL    HW111081   4.963   0.412   0.208 -0.3124  0.4805  0.3162
 1492SOL    HW211082   5.033   0.518   0.125  0.6703 -0.7747 -0.4960
 1493SOL     OW11083  12.254  11.849   0.292  0.2817  0.0197  0.0385
 1493SOL    HW111084  12.176  11.881   0.246  0.1590 -0.5329 -0.1514
 1493SOL    HW211085  12.302  11.798   0.226  0.6206  0.0600  0.2505
 1494SOL     OW11086   1.107   5.271   6.720  0.1669 -0.2099 -0.2307
 1494SOL    HW111087   1.199   5.246   6.711 -0.2743 -1.6464 -1.0592
 1494SOL    HW211088   1.079   5.232   6.802 -0.3749 -2.0987 -1.2594
 1495SOL     OW11089   6.732   8.196   5.333  0.0032 -0.4887  0.2998
 1495SOL    HW111090   6.699   8.113   5.298  0.7430 -0.8502  0.4257
 1495SOL    HW211091   6.792   8.228   5.266  0.3958 -0.5060  0.6367
 1496SOL     OW11092   0.360   8.332  11.122 -0.5616 -0.8957  0.1941
 1496SOL    HW111093   0.348   8.336  11.027  0.6089 -0.0038  0.0575
 1496SOL    HW211094   0.453   8.350  11.135 -1.0283  0.9001  1.6063
 1497SOL     OW11095   3.226   7.520  12.596  0.8772  0.7354 -0.2302
 1497SOL    HW111096   3.250   7.539  12.505  1.8554 -1.3989 -0.4767
 1497SOL    HW211097   3.236   7.425  12.604 -1.4373  0.5579  1.4908
 1498SOL     OW11098   8.588   1.474   4.322  0.0818 -0.6115  0.7653
 1498SOL    HW111099   8.609   1.434   4.238  1.1102 -1.1891  1.2808
 1498SOL    HW211100   8.637   1.555   4.323 -1.6363  0.5041 -0.0796
 1499SOL     OW11101  11.564   3.144  10.322  0.4718  0.6547  0.2106
 1499SOL    HW111102  11.486   3.160  10.376  1.2834 -0.4220  1.7667
 1499SOL    HW211103  11.536   3.077  10.260  0.1724  0.1815  0.8405
 1500SOL     OW11104   5.995   8.257   4.074  0.5160  0.0639 -0.3563
 1500SOL    HW111105   6.033   8.261   3.985 -0.8391 -0.2726 -0.9722
 1500SOL    HW211106   6.019   8.170   4.106  1.6788  0.4703 -0.0583
 1501SOL     OW11107   7.726   8.039   4.238  0.0108  0.3633  0.0038
 1501SOL    HW111108   7.714   8.006   4.327 -1.4914  1.0806  0.1136
 1501SOL    HW211109   7.806   8.090   4.241  1.0179 -1.1747  0.4428
 1502SOL     OW11110   1.927   0.908   2.292  0.1079 -0.0347 -0.3984
 1502SOL    HW111111   1.947   0.978   2.229  0.7770  0.9852  0.8949
 1502SOL    HW211112   1.902   0.954   2.372  3.9543 -1.0646  1.6514
 1503SOL     OW11113   2.901   1.567  10.057  0.4635  0.4589  0.3768
 1503SOL    HW111114   2.925   1.658  10.075 -0.3290  0.5646  0.9282
 1503SOL    HW211115   2.808   1.570  10.037  0.5080 -0.1917  0.0489
 1504SOL     OW11116   4.008   0.873   4.033  0.3338  0.0912 -0.2860
 1504SOL    HW111117   3.932   0.836   3.988  0.6078 -0.3352 -0.4037
 1504SOL    HW211118   4.025   0.814   4.106  0.1630  0.5403  0.1241
 1505SOL     OW11119   9.947   7.136   4.474 -0.4043 -0.3238  0.2358
 1505SOL    HW111120   9.959   7.084   4.554 -0.4789  1.5827  1.5327
 1505SOL    HW211121   9.858   7.115   4.445  0.7683 -3.7347 -1.4584
 1506SOL     OW11122  10.186   2.442   7.543  0.5397 -0.1416 -0.0385
 1506SOL    HW111123  10.189   2.493   7.462 -0.3533  1.1311  0.6856
 1506SOL    HW211124  10.201   2.352   7.516 -0.5671  0.1489 -1.7173
 1507SOL     OW11125   5.460   5.615   2.918  0.2014 -0.1698 -0.9354
 1507SOL    HW111126   5.507   5.684   2.964  1.1661 -0.5858 -1.2659
 1507SOL    HW211127   5.390   5.589   2.977  1.0013 -0.2286  0.0152
 1508SOL     OW11128  10.996   0.469   9.049 -0.0941  0.1411 -0.2939
 1508SOL    HW111129  10.910   0.496   9.017  0.2751  0.3396 -1.1584
 1508SOL    HW211130  11.030   0.413   8.980  0.4543  0.0365  0.0573
 1509SOL     OW11131  11.946   9.614   7.997  0.1860 -0.1705  0.1598
 1509SOL    HW111132  12.031   9.600   7.956 -0.7960  0.6127 -2.3173
 1509SOL    HW211133  11.904   9.527   7.996  0.1876 -0.1652 -0.4765
 1510SOL     OW11134   3.058   7.938   3.150  0.0066 -0.4086  0.1889
 1510SOL    HW111135   3.145   7.900   3.161  0.0357 -0.2248  0.6436
 1510SOL    HW211136   3.030   7.958   3.239 -0.0301  0.5754 -0.0257
 1511SOL     OW11137   1.711   9.029   1.842  0.1152  0.1431 -0.3286
 1511SOL    HW111138   1.677   8.999   1.758 -0.0531 -1.3785  0.2576
 1511SOL    HW211139   1.802   9.055   1.823 -0.4281  1.4470 -1.3024
 1512SOL     OW11140  11.764   2.658   8.154 -0.3442 -0.5170 -0.4314
 1512SOL    HW111141  11.745   2.751   8.163 -0.3527 -0.6563  1.4007
 1512SOL    HW211142  11.820   2.638   8.229  3.0229 -1.1918 -2.8817
 1513SOL     OW11143   1.502   0.551  10.225 -0.1220  0.4561  0.2101
 1513SOL    HW111144   1.457   0.634  10.233 -2.1267 -0.6535  1.2028
 1513SOL    HW211145   1.465   0.496  10.294  1.5759 -1.0788 -0.0079
 1514SOL     OW11146   1.556   9.824   9.418  0.4493 -0.8160  0.2600
 1514SOL    HW111147   1.641   9.865   9.401  0.3457 -0.5839  0.2889
 1514SOL    HW211148   1.543   9.763   9.346  0.1781 -0.1052 -0.3085
 1515SOL     OW11149   4.818   3.577   0.796 -0.1610 -0.0273 -0.4168
 1515SOL    HW111150   4.737   3.622   0.820  0.7088  2.1817 -1.2828
 1515SOL    HW211151   4.829   3.509   0.862 -1.6964  0.9346  0.8992
 1516SOL     OW11152   0.879   8.327  11.558 -0.4825 -0.3396  0.8148
 1516SOL    HW111153   0.902   8.370  11.640 -1.8303 -1.1333  1.6635
 1516SOL    HW211154   0.783   8.325  11.559 -0.5545  0.5061 -1.2642
 1517SOL     OW11155  11.362   1.201   2.015 -0.1957  0.2333 -0.0380
 1517SOL    HW111156  11.350   1.122   2.068 -1.8377  0.0541 -0.6121
 1517SOL    HW211157  11.408   1.262   2.073  1.4319 -1.2346  0.2991
 1518SOL     OW11158   0.703  12.612   7.637  0.0340  0.1651  0.2246
 1518SOL    HW111159   0.789  12.651   7.623 -0.1840  0.6339  0.1667
 1518SOL    HW211160   0.698  12.541   7.573  1.1201 -1.1021  1.4714
 1519SOL     OW11161  10.939  12.167  11.157 -0.0271  0.0042  0.3813
 1519SOL    HW111162  10.844  12.177  11.164 -0.1630  0.0744 -1.2952
 1519SOL    HW211163  10.967  12.238  11.099  1.2593  0.8068  1.8743
 1520SOL     OW11164   1.275   4.414   3.832 -0.0784  0.2706 -0.1920
 1520SOL    HW111165   1.195   4.385   3.787 -0.1683 -1.6375  1.0963
 1520SOL    HW211166   1.254   4.503   3.862 -1.6283 -0.0657 -0.1627
 1521SOL     OW11167   3.453   6.892   0.120 -0.6781  0.2395  0.0830
 1521SOL    HW111168   3.408   6.813   0.091 -0.3768  0.1549 -0.1680
 1521SOL    HW211169   3.495   6.867   0.202  0.0853 -0.1117 -0.3979
 1522SOL     OW11170   9.236   3.752  10.048 -0.4400  0.3299  0.2944
 1522SOL    HW111171   9.214   3.832  10.096 -1.3824  1.1761 -1.4545
 1522SOL    HW211172   9.301   3.780   9.984  0.0750 -0.5714  0.4067
 1523SOL     OW11173   5.417  11.530   5.498 -0.6991 -0.3000  0.3978
 1523SOL    HW111174   5.394  11.618   5.469 -1.6576 -0.2080  1.3622
 1523SOL    HW211175   5.509  11.521   5.476 -0.7797  0.6511 -0.4207
 1524SOL     OW11176   9.920   8.045  12.686  0.3006 -0.0039 -0.6481
 1524SOL    HW111177   9.913   8.028  12.592 -0.0333  0.6439 -0.7485
 1524SOL    HW211178   9.883   7.967  12.727 -0.8472  0.2835 -1.0840
 1525SOL     OW11179   8.796   8.258   4.043  0.4137 -0.5100  0.5868
 1525SOL    HW111180   8.716   8.309   4.051  0.0880 -0.4104 -2.4369
 1525SOL    HW211181   8.771   8.169   4.070 -0.4556 -0.2723  0.5768
 1526SOL     OW11182   4.356   7.455   4.401 -0.0093  0.5301 -0.1829
 1526SOL    HW111183   4.328   7.371   4.365  0.2534  0.1783  0.4107
 1526SOL    HW211184   4.285   7.481   4.460  0.2435  0.3463  0.2120
 1527SOL     OW11185   5.885   7.138   5.767  0.1518 -0.1745  0.4047
 1527SOL    HW111186   5.935   7.066   5.805  0.1737 -1.1077 -1.3098
 1527SOL    HW211187   5.804   7.098   5.735  0.1892  0.5288 -0.6456
 1528SOL     OW11188  10.093   6.178   2.953 -0.5129  0.0181 -0.1197
 1528SOL    HW111189  10.100   6.098   3.005  1.1108  0.7180  0.8036
 1528SOL    HW211190  10.014   6.165   2.901 -0.5682 -1.9768  0.3568
 1529SOL     OW11191   2.713   4.205  11.079 -0.1925  0.2368 -0.7736
 1529SOL    HW111192   2.769   4.246  11.013  1.2784 -1.6720 -0.7793
 1529SOL    HW211193   2.726   4.111  11.067 -2.7116 -0.2701 -0.1499
 1530SOL     OW11194   8.031   3.484  11.700 -0.0325  0.6302  0.0961
 1530SOL    HW111195   8.018   3.574  11.669 -2.9459  0.1422 -0.3909
 1530SOL    HW211196   7.942   3.452  11.718  0.7258 -2.7612 -1.4767
 1531SOL     OW11197   0.873   4.857  10.115 -0.3604  0.3027  0.0984
 1531SOL    HW111198   0.838   4.928  10.062  0.5166  0.6916  0.0072
 1531SOL    HW211199   0.938   4.900  10.172  2.3559 -0.7872 -1.9566
 1532SOL     OW11200  10.197  11.069  10.261 -0.1552 -0.6507 -0.5170
 1532SOL    HW111201  10.145  11.088  10.339 -0.2573 -1.8072 -0.2861
 1532SOL    HW211202  10.141  11.098  10.188 -1.1499 -1.8502 -0.2712
 1533SOL     OW11203   0.720  10.061   2.642 -0.4158  0.1896  0.4140
 1533SOL    HW111204   0.808  10.030   2.620 -0.0473  2.0955 -1.1811
 1533SOL    HW211205   0.730  10.156   2.652 -1.6262  0.0635  4.0770
 1534SOL     OW11206   4.127   4.466  11.206 -0.1363 -0.5550 -0.4067
 1534SOL    HW111207   4.149   4.491  11.116 -2.1221  0.2220 -0.7404
 1534SOL    HW211208   4.081   4.382  11.196 -0.3101 -0.4939 -0.1209
 1535SOL     OW11209  12.042   3.345   8.626  0.0268  0.5591  0.3139
 1535SOL    HW111210  12.079   3.287   8.560 -1.2006 -0.0327  0.1122
 1535SOL    HW211211  12.118   3.386   8.668  1.0066 -1.9363  1.1559
 1536SOL     OW11212   7.493   7.309   7.118  0.2934  0.4546  0.0720
 1536SOL    HW111213   7.514   7.220   7.147  0.8545  0.2076 -1.0259
 1536SOL    HW211214   7.399   7.319   7.136  0.5361  0.1981  1.5913
 1537SOL     OW11215   6.612   9.668   2.773  0.5444 -0.6898 -0.1199
 1537SOL    HW111216   6.542   9.716   2.818  0.6550 -1.0297  0.4172
 1537SOL    HW211217   6.666   9.632   2.843 -0.2362 -2.6732 -0.4775
 1538SOL     OW11218   5.902   3.928   1.455  0.3962 -0.2292 -0.0987
 1538SOL    HW111219   5.977   3.900   1.401  0.1518 -1.3443  0.1131
 1538SOL    HW211220   5.940   3.950   1.540  0.6029  0.1647 -0.2901
 1539SOL     OW11221   2.918   2.933   5.223 -0.3398  0.1433 -0.0854
 1539SOL    HW111222   2.889   2.959   5.311 -1.2525 -0.8475 -0.0808
 1539SOL    HW211223   2.955   2.845   5.235 -0.6261 -0.0653 -0.7216
 1540SOL     OW11224   0.546   2.039   0.049  0.6576  0.1142 -0.4615
 1540SOL    HW111225   0.590   1.971   0.099  0.6649  0.1020 -0.4849
 1540SOL    HW211226   0.470   2.063   0.103  1.2619  0.8709  0.0806
 1541SOL     OW11227  12.761  12.187   5.127  0.0040 -0.3813 -0.5090
 1541SOL    HW111228  12.766  12.241   5.048 -0.5949  0.4477  0.0085
 1541SOL    HW211229  12.669  12.187   5.151  0.1563 -0.7487  0.1085
 1542SOL     OW11230  11.678   1.988   0.604 -0.1628  0.0053  0.3152
 1542SOL    HW111231  11.692   1.907   0.653  1.3062 -0.4669 -0.8056
 1542SOL    HW211232  11.585   2.008   0.616 -1.0172 -2.8057 -0.8475
 1543SOL     OW11233   4.810  12.354   1.674 -0.4043  0.0299  0.1738
 1543SOL    HW111234   4.901  12.324   1.675 -0.4542 -0.1543  1.5280
 1543SOL    HW211235   4.765  12.292   1.732 -1.0361  1.1565  0.9037
 1544SOL     OW11236   1.898   8.190   9.917  0.2019 -1.0502 -0.0498
 1544SOL    HW111237   1.809   8.208   9.947  0.2706 -0.4358 -0.1850
 1544SOL    HW211238   1.942   8.152   9.993  0.1162 -0.3672  0.3498
 1545SOL     OW11239   4.470   1.990   0.770 -0.2725  0.0604 -0.3928
 1545SOL    HW111240   4.466   2.017   0.678 -2.0552  1.7812  0.1197
 1545SOL    HW211241   4.381   1.960   0.790  0.5593 -2.1330  0.3120
 1546SOL     OW11242   0.103   3.265  11.072 -0.3238  0.3264 -0.2608
 1546SOL    HW111243   0.174   3.240  11.131 -0.8676 -1.0587 -0.1553
 1546SOL    HW211244   0.133   3.236  10.986 -0.8204 -0.4544 -0.1856
 1547SOL     OW11245   3.262   0.064   9.813  0.2077 -0.0124 -0.2961
 1547SOL    HW111246   3.198   0.087   9.747  1.4343  0.5492 -1.3312
 1547SOL    HW211247   3.344   0.055   9.765  1.3736  1.5749  1.2863
 1548SOL     OW11248   9.238   4.099   8.051 -0.1932  0.2377 -0.6678
 1548SOL    HW111249   9.227   4.119   8.144 -4.0856  0.8359 -1.0990
 1548SOL    HW211250   9.260   4.005   8.050  0.6262  0.3826  0.8449
 1549SOL     OW11251   2.574  12.602   5.592 -0.1852 -0.2030  0.0321
 1549SOL    HW111252   2.505  12.536   5.599  0.3757 -0.9924 -1.3026
 1549SOL    HW211253   2.650  12.561   5.632 -0.2225  0.2645  0.5928
 1550SOL     OW11254   0.635   4.922   0.981  0.0758  0.2634 -0.2432
 1550SOL    HW111255   0.680   4.953   1.060  0.1806  2.3021 -1.0577
 1550SOL    HW211256   0.706   4.893   0.923  0.0765 -0.1229 -0.0508
 1551SOL     OW11257   9.223   4.479  10.282 -0.4095  0.4125 -0.8792
 1551SOL    HW111258   9.238   4.466  10.188 -0.0321 -0.9325 -0.6492
 1551SOL    HW211259   9.282   4.550  10.305  2.6429 -1.9302 -0.8760
 1552SOL     OW11260   8.063  12.171  12.017 -0.3420  0.8675  0.0450
 1552SOL    HW111261   8.053  12.263  11.993  2.2673  0.9792 -0.9031
 1552SOL    HW211262   8.120  12.134  11.950 -0.5987 -1.2385  0.8916
 1553SOL     OW11263   1.654   8.335   7.667 -0.1287  0.5898  0.1986
 1553SOL    HW111264   1.570   8.305   7.631  0.3472 -0.0854 -0.3603
 1553SOL    HW211265   1.638   8.427   7.688 -0.5963  0.8681 -1.2317
 1554SOL     OW11266   6.347   3.351   8.440  0.1449 -0.6942  0.4787
 1554SOL    HW111267   6.436   3.336   8.471  0.2374  0.4337  0.8064
 1554SOL    HW211268   6.355   3.423   8.377 -0.3680 -1.4187 -0.4411
 1555SOL     OW11269   7.334   7.856   3.980 -0.2847 -0.5852 -0.0511
 1555SOL    HW111270   7.282   7.902   3.914 -1.6210  1.2781  2.1199
 1555SOL    HW211271   7.410   7.913   3.994 -0.8489 -0.0765  1.1191
 1556SOL     OW11272   7.248   6.804   2.173  0.0903 -0.1288  0.1418
 1556SOL    HW111273   7.168   6.809   2.226  1.3945  0.5859  2.1865
 1556SOL    HW211274   7.284   6.717   2.191 -0.4218 -0.6239 -1.1288
 1557SOL     OW11275   1.332  11.281  12.445  0.3809  0.5014 -0.4048
 1557SOL    HW111276   1.415  11.235  12.434  0.4860  0.8722 -1.2429
 1557SOL    HW211277   1.330  11.345  12.374 -1.1667 -0.3221 -1.1623
 1558SOL     OW11278  11.439   0.693   6.033  0.1890 -0.1175  0.0686
 1558SOL    HW111279  11.501   0.621   6.037 -0.3739 -0.5995  0.3117
 1558SOL    HW211280  11.431   0.724   6.123 -0.1145 -0.2240  0.0795
 1559SOL     OW11281   7.206   7.928   9.930  0.0267  0.4151 -0.2293
 1559SOL    HW111282   7.120   7.967   9.919 -0.4296 -0.3892  0.3518
 1559SOL    HW211283   7.268   7.997   9.905 -0.7990  0.4237 -2.4207
 1560SOL     OW11284   7.979   9.462   6.383 -0.2939 -0.0898 -0.4943
 1560SOL    HW111285   7.973   9.419   6.468  2.3239 -3.2081 -1.6412
 1560SOL    HW211286   8.051   9.524   6.391 -0.7879  0.4456 -0.1616
 1561SOL     OW11287   8.687   2.907   2.912  0.2255 -0.1058 -0.0604
 1561SOL    HW111288   8.610   2.851   2.903 -0.4115  0.9519 -1.6009
 1561SOL    HW211289   8.729   2.904   2.826  1.9266 -0.6257  0.7276
 1562SOL     OW11290  10.438   3.716   2.209  0.3071 -0.1493 -0.1867
 1562SOL    HW111291  10.527   3.685   2.192  0.7069  1.1081 -0.5183
 1562SOL    HW211292  10.423   3.782   2.141 -0.2300  0.8782  0.8934
 1563SOL     OW11293   1.663   9.198   1.058  0.2594 -0.0241 -0.5040
 1563SOL    HW111294   1.707   9.122   1.094  1.9375 -0.1488 -2.5974
 1563SOL    HW211295   1.706   9.273   1.100 -0.5221 -0.1653  0.6030
 1564SOL     OW11296  12.510   4.937   2.981  0.5848  0.5073  0.2811
 1564SOL    HW111297  12.440   4.875   2.999  1.6103 -1.6241 -2.2354
 1564SOL    HW211298  12.586   4.901   3.026  1.6448 -1.3528 -2.6801
 1565SOL     OW11299  10.231   0.368   9.875 -0.0698 -0.3550 -0.1056
 1565SOL    HW111300  10.223   0.359   9.970 -0.0742  0.9615  0.0384
 1565SOL    HW211301  10.314   0.415   9.863  0.5636 -1.6277 -0.8285
 1566SOL     OW11302   6.704   3.674   9.522 -0.1556 -0.4498  0.2772
 1566SOL    HW111303   6.615   3.659   9.554 -0.9489 -0.0541 -1.6253
 1566SOL    HW211304   6.711   3.769   9.513  0.0288 -0.5470 -0.7042
 1567SOL     OW11305  12.237  12.184   4.094 -0.0517  0.0328 -0.1581
 1567SOL    HW111306  12.311  12.209   4.040 -0.6543  1.3614 -0.3917
 1567SOL    HW211307  12.276  12.160   4.178  0.6963  0.0732 -0.4888
 1568SOL     OW11308   4.749   7.190   6.018  0.6902  0.3519 -0.5180
 1568SOL    HW111309   4.839   7.212   6.043  0.8856  0.4582 -1.2724
 1568SOL    HW211310   4.711   7.274   5.989  0.7321  0.1000 -1.3228
 1569SOL     OW11311   1.669   9.136   7.288 -0.6735 -0.1130 -0.3299
 1569SOL    HW111312   1.610   9.208   7.310 -1.1923 -0.5294 -0.3548
 1569SOL    HW211313   1.684   9.146   7.194 -1.5259 -0.6158 -0.5220
 1570SOL     OW11314   6.859   9.536   1.127  0.4146 -0.0722  0.7760
 1570SOL    HW111315   6.795   9.467   1.146 -2.0642  1.4326 -1.4317
 1570SOL    HW211316   6.832   9.609   1.183  0.4376  0.4451  0.1193
 1571SOL     OW11317  11.177   7.505   2.702 -0.2866 -0.0667  0.0053
 1571SOL    HW111318  11.227   7.570   2.653  0.2427 -0.8756 -0.5573
 1571SOL    HW211319  11.094   7.548   2.721 -0.0978  0.6345 -0.6896
 1572SOL     OW11320   2.456  12.352   2.673 -0.2035  0.2776  0.2263
 1572SOL    HW111321   2.393  12.281   2.684  1.6598 -1.3223  1.2980
 1572SOL    HW211322   2.457  12.396   2.758  1.0677 -0.6147  0.7168
 1573SOL     OW11323   3.119   5.109   8.095  0.8148  0.0944  0.0942
 1573SOL    HW111324   3.199   5.097   8.044  0.3875  0.7066 -0.7437
 1573SOL    HW211325   3.086   5.195   8.069  0.0558 -0.0089  0.6665
 1574SOL     OW11326  11.823   4.139   5.806  0.0162  0.3572  0.5390
 1574SOL    HW111327  11.889   4.197   5.768  0.1693  0.4987  1.0085
 1574SOL    HW211328  11.874   4.076   5.858 -0.0106 -1.2114 -1.2297
 1575SOL     OW11329   6.749   1.313  11.630 -0.5846  0.1568 -0.5672
 1575SOL    HW111330   6.844   1.325  11.634 -0.5623  0.7359 -2.0286
 1575SOL    HW211331   6.738   1.226  11.592 -0.6529 -0.2094  0.2796
 1576SOL     OW11332  11.266  11.293  12.660  0.4809 -0.2811  0.3501
 1576SOL    HW111333  11.295  11.205  12.639  1.0224 -0.2759  1.0383
 1576SOL    HW211334  11.221  11.285  12.744 -2.9326 -0.5534 -1.3441
 1577SOL     OW11335   0.984   9.963   2.581  0.2773  0.2501  0.0608
 1577SOL    HW111336   1.053  10.028   2.565  0.4651 -0.3267 -1.6720
 1577SOL    HW211337   1.021   9.881   2.547  0.5364 -1.1067  3.2809
 1578SOL     OW11338   6.211   4.513   5.207 -0.1104 -0.6329  0.5784
 1578SOL    HW111339   6.161   4.536   5.285 -1.3343 -2.9864  0.5823
 1578SOL    HW211340   6.146   4.477   5.147  1.0148 -0.0782 -1.0493
 1579SOL     OW11341   1.920   8.671   4.582  0.0769 -0.3388  0.4112
 1579SOL    HW111342   1.985   8.702   4.645  0.0620  0.4649  0.0425
 1579SOL    HW211343   1.852   8.739   4.584  0.7903  0.4887 -1.5734
 1580SOL     OW11344   2.618   4.892   0.052 -0.0560 -0.4382  0.1079
 1580SOL    HW111345   2.528   4.875   0.079 -0.8343  0.9580 -1.4312
 1580SOL    HW211346   2.645   4.967   0.105 -0.2555 -0.0608 -0.3208
 1581SOL     OW11347   4.571   1.037  11.225 -0.0262  0.5762 -0.1018
 1581SOL    HW111348   4.523   0.964  11.186 -0.0063  0.6016 -0.1744
 1581SOL    HW211349   4.520   1.114  11.202  0.9624  0.7971 -1.6931
 1582SOL     OW11350   9.098   6.586  12.614  0.0591  0.1241  0.3233
 1582SOL    HW111351   9.009   6.552  12.628 -0.0695  0.0187 -0.6611
 1582SOL    HW211352   9.086   6.680  12.605 -0.0254  0.0605 -0.2886
 1583SOL     OW11353   7.945  11.717   3.453  0.3140  0.4608 -0.1034
 1583SOL    HW111354   7.912  11.806   3.470 -0.6268  0.2812 -0.8770
 1583SOL    HW211355   7.993  11.724   3.371  1.1549  0.4650  0.3843
 1584SOL     OW11356   1.242   8.679   2.359  0.0804  0.0114  0.3268
 1584SOL    HW111357   1.264   8.599   2.311  1.0577 -0.2665  1.2170
 1584SOL    HW211358   1.326   8.721   2.375 -0.3744  0.9133  0.4205
 1585SOL     OW11359   4.166   5.274   3.663  0.7580 -0.3058 -0.8233
 1585SOL    HW111360   4.149   5.357   3.618  1.7827  0.4481  0.1409
 1585SOL    HW211361   4.238   5.293   3.722 -0.8451 -1.1232  1.5559
 1586SOL     OW11362   2.516  10.082   6.832  0.3572 -0.2147 -0.5461
 1586SOL    HW111363   2.508  10.045   6.745  0.2529  1.5698 -1.3531
 1586SOL    HW211364   2.584  10.030   6.874  1.2347 -0.3952 -2.1066
 1587SOL     OW11365   6.101   3.055   9.169 -0.0094  0.3284  0.0702
 1587SOL    HW111366   6.135   2.966   9.161  0.1311  0.2414  1.4804
 1587SOL    HW211367   6.026   3.058   9.110  0.0850 -0.6715 -0.1048
 1588SOL     OW11368   8.663  10.557   0.002 -0.3154 -0.0520 -0.6332
 1588SOL    HW111369   8.656  10.647  -0.030 -1.9559 -0.4559 -1.5114
 1588SOL    HW211370   8.616  10.558   0.085 -0.6075 -0.1743 -0.7984
 1589SOL     OW11371   7.950   5.014   2.496  0.3388 -0.2503 -0.2146
 1589SOL    HW111372   8.004   5.092   2.496 -0.1696  0.1068 -0.2323
 1589SOL    HW211373   7.906   5.015   2.581 -1.4869  0.7795 -1.1066
 1590SOL     OW11374   8.752   8.159   7.043 -0.3436 -0.3067  0.1519
 1590SOL    HW111375   8.733   8.242   7.086 -0.7143 -0.2334 -0.1450
 1590SOL    HW211376   8.796   8.183   6.962 -0.2411 -0.4090  0.1785
 1591SOL     OW11377   3.001   8.834   1.594 -0.3950 -0.0915  0.0163
 1591SOL    HW111378   2.998   8.845   1.689 -1.2830 -0.9682  0.0999
 1591SOL    HW211379   2.959   8.913   1.559 -0.8491 -0.1669  0.3831
 1592SOL     OW11380  12.640  10.456   4.191  0.5359 -0.0885 -0.2769
 1592SOL    HW111381  12.697  10.488   4.261 -1.2037  0.2483  1.0345
 1592SOL    HW211382  12.634  10.361   4.206 -0.3386  0.0738  0.4211
 1593SOL     OW11383  11.528  10.438   9.668  0.2317 -0.3151  0.5302
 1593SOL    HW111384  11.621  10.430   9.645  0.2959 -2.0401  1.2303
 1593SOL    HW211385  11.508  10.357   9.715 -1.3670  0.5181  1.3547
 1594SOL     OW11386   2.889  10.039   9.290  0.3659  0.0189 -0.1730
 1594SOL    HW111387   2.812  10.093   9.278  0.8799  0.8245  0.0767
 1594SOL    HW211388   2.888  10.017   9.384 -0.7901 -1.8924 -0.5800
 1595SOL     OW11389   8.343  11.020   7.329 -0.4518 -0.3908  0.1914
 1595SOL    HW111390   8.344  11.114   7.311 -1.1010 -0.5320 -0.6557
 1595SOL    HW211391   8.360  11.013   7.423  0.5676  0.5208  0.1044
 1596SOL     OW11392  10.577   3.475   2.083 -0.4188  0.2908  0.6051
 1596SOL    HW111393  10.621   3.560   2.091  1.1368 -0.3299 -0.8557
 1596SOL    HW211394  10.604   3.428   2.162 -0.5232  0.8118  0.9600
 1597SOL     OW11395   2.038   8.531   3.587  0.3099 -0.3144  0.0389
 1597SOL    HW111396   2.063   8.570   3.504  0.5165 -1.4536 -0.4505
 1597SOL    HW211397   1.943   8.523   3.582  0.4522 -1.8987 -0.8118
 1598SOL     OW11398   4.074   9.302   0.784  0.6625  0.1624  0.3468
 1598SOL    HW111399   4.001   9.326   0.840  1.0501  2.4995 -0.0354
 1598SOL    HW211400   4.034   9.261   0.708 -0.0314 -0.8758  1.2495
 1599SOL     OW11401   0.396   2.919   3.496  0.0204  0.2035  0.5929
 1599SOL    HW111402   0.470   2.858   3.496 -0.1163 -0.0099 -1.0341
 1599SOL    HW211403   0.322   2.866   3.465 -0.3708  0.9005  0.3115
 1600SOL     OW11404   0.890   5.869   7.857  0.7151  0.3286  0.1034
 1600SOL    HW111405   0.857   5.917   7.781  2.7375  1.5113 -0.0903
 1600SOL    HW211406   0.973   5.831   7.829 -0.1303 -2.1844  0.7065
 1601SOL     OW11407  10.116   7.007  10.819 -0.0019  0.6854  0.1382
 1601SOL    HW111408  10.040   6.954  10.844 -0.6204  1.0805 -0.8400
 1601SOL    HW211409  10.079   7.077  10.766  1.0993  0.6878 -0.6433
 1602SOL     OW11410   8.757   3.896   2.732  0.0186 -0.6511 -0.2684
 1602SOL    HW111411   8.756   3.807   2.769 -0.3709 -1.0625 -1.2366
 1602SOL    HW211412   8.795   3.885   2.645  0.1166  0.1651 -0.3330
 1603SOL     OW11413   9.136   1.909  12.452  0.5485 -0.2313  0.2686
 1603SOL    HW111414   9.138   1.981  12.515 -0.5574 -0.2802  0.3765
 1603SOL    HW211415   9.156   1.831  12.504  0.0694 -0.2132  0.4892
 1604SOL     OW11416   5.020   9.745  10.939  0.0422  0.4567 -0.2467
 1604SOL    HW111417   5.034   9.789  11.022 -0.4449  0.3523 -0.1060
 1604SOL    HW211418   4.927   9.759  10.919  0.5053  1.8905 -1.5982
 1605SOL     OW11419  11.372   2.721   6.664  0.4966  0.1951  0.0253
 1605SOL    HW111420  11.350   2.803   6.619  0.0764  1.0849  1.7988
 1605SOL    HW211421  11.456   2.739   6.706  2.6565 -1.7108 -2.9670
 1606SOL     OW11422   8.490  11.596   8.213  0.4338 -0.3702 -0.1681
 1606SOL    HW111423   8.424  11.527   8.215  0.0630 -0.0038  0.6772
 1606SOL    HW211424   8.484  11.632   8.125 -0.2593 -0.5674 -0.2072
 1607SOL     OW11425   2.161   4.746   1.694 -0.2817 -0.0545 -0.2530
 1607SOL    HW111426   2.250   4.711   1.697  0.0233  0.5549 -1.3186
 1607SOL    HW211427   2.133   4.751   1.785  0.4599 -1.0432  0.0372
 1608SOL     OW11428   5.161   1.475   4.135 -0.0695 -0.2668 -0.2090
 1608SOL    HW111429   5.247   1.514   4.119 -0.2070 -0.0435 -0.3887
 1608SOL    HW211430   5.181   1.386   4.164  0.1984 -0.4818 -1.0278
 1609SOL     OW11431  11.092   8.503   4.655  0.4050  0.9765  0.1195
 1609SOL    HW111432  11.138   8.441   4.598  0.4793 -0.4279  1.6573
 1609SOL    HW211433  11.096   8.586   4.606 -0.4770 -0.3558 -2.4189
 1610SOL     OW11434   7.962  10.097  11.462 -0.1789  0.6282  0.0006
 1610SOL    HW111435   8.032  10.090  11.398 -1.3403  0.1910 -1.2857
 1610SOL    HW211436   7.959  10.190  11.484  0.9143  0.6211  0.2298
 1611SOL     OW11437   0.898   3.228  12.339  0.8145 -0.5191 -0.0241
 1611SOL    HW111438   0.966   3.257  12.278  1.3124  0.0853  0.8018
 1611SOL    HW211439   0.850   3.308  12.361 -0.2270 -0.9512 -0.6567
 1612SOL     OW11440   8.759  10.484  12.398 -0.3454  0.2940  1.0765
 1612SOL    HW111441   8.767  10.542  12.322 -1.4377 -0.7897  0.0858
 1612SOL    HW211442   8.664  10.471  12.408 -0.1186 -1.6279  1.0144
 1613SOL     OW11443   2.924   6.179   3.205 -0.2313  0.0942  0.4346
 1613SOL    HW111444   2.902   6.226   3.286  1.1693  2.6136 -0.5363
 1613SOL    HW211445   3.020   6.174   3.206 -0.1439  0.7602 -1.3426
 1614SOL     OW11446   5.278   6.798   1.517 -0.0073  0.3113 -0.7463
 1614SOL    HW111447   5.332   6.814   1.594 -0.4251  1.4788 -0.6773
 1614SOL    HW211448   5.188   6.816   1.546 -0.1734  0.7212 -1.4780
 1615SOL     OW11449   1.856   0.863   3.782  0.1526 -0.2325  0.0176
 1615SOL    HW111450   1.877   0.774   3.753  1.2966  0.0321 -0.0008
 1615SOL    HW211451   1.763   0.859   3.805  0.0268 -1.2650 -0.5994
 1616SOL     OW11452   1.639  10.973   7.496 -0.4553 -0.3985 -0.2985
 1616SOL    HW111453   1.683  10.983   7.411 -0.4474  2.2625 -0.0533
 1616SOL    HW211454   1.711  10.970   7.559 -0.4753 -2.0938 -0.2969
 1617SOL     OW11455   5.373   1.473  11.749  0.6210 -0.3207  0.0132
 1617SOL    HW111456   5.400   1.542  11.689  0.5162 -0.2733  0.0199
 1617SOL    HW211457   5.428   1.398  11.726  0.3842 -0.3917 -0.3314
 1618SOL     OW11458   5.387   5.316   6.377 -0.2503  0.5299  0.0274
 1618SOL    HW111459   5.467   5.369   6.370  0.1785 -0.1744 -0.5507
 1618SOL    HW211460   5.385   5.288   6.469  1.2955 -1.1266 -0.3831
 1619SOL     OW11461  10.496   5.724   1.428 -0.2615 -0.2524 -0.4661
 1619SOL    HW111462  10.570   5.726   1.367  0.1293 -0.4077 -0.0021
 1619SOL    HW211463  10.536   5.726   1.515 -0.8295  0.8876 -0.2031
 1620SOL     OW11464   5.562   2.178  11.695  0.2741 -0.4611 -0.2823
 1620SOL    HW111465   5.616   2.237  11.642  0.0228 -1.0913 -1.2885
 1620SOL    HW211466   5.573   2.208  11.785 -0.1750  1.3587 -0.7987
 1621SOL     OW11467  11.779   3.699   4.727  0.2381  0.3692  0.4715
 1621SOL    HW111468  11.847   3.762   4.754  1.4902 -0.7339  0.0034
 1621SOL    HW211469  11.744   3.666   4.809  2.3908 -1.2450  0.8282
 1622SOL     OW11470   2.793   7.891   8.874  0.4454  0.0578 -0.0304
 1622SOL    HW111471   2.791   7.802   8.909  0.0146 -1.2615 -3.0700
 1622SOL    HW211472   2.867   7.891   8.812 -0.6296  1.2441 -1.3843
 1623SOL     OW11473   8.976   5.474  11.053 -0.1337 -0.2776 -0.0279
 1623SOL    HW111474   8.882   5.488  11.068  0.0667  0.6102  0.4791
 1623SOL    HW211475   9.009   5.560  11.027  0.2620 -0.9340 -1.8125
 1624SOL     OW11476   2.312   4.907  10.532  0.1106  0.3769  0.5879
 1624SOL    HW111477   2.326   4.880  10.623  0.2688 -0.5260  0.3011
 1624SOL    HW211478   2.295   5.001  10.538 -0.0818  0.2962  1.5720
 1625SOL     OW11479   1.184   8.121  12.020  0.2839  0.5224  0.7797
 1625SOL    HW111480   1.254   8.116  11.955  0.0870 -0.1235  0.6141
 1625SOL    HW211481   1.222   8.081  12.099  0.2434  0.5526  0.8149
 1626SOL     OW11482   7.566   7.983   7.411 -0.2337  0.3734 -0.2755
 1626SOL    HW111483   7.661   7.987   7.422 -0.3823  0.5448  1.1525
 1626SOL    HW211484   7.538   8.074   7.405 -0.2124  0.3058 -1.9580
 1627SOL     OW11485   3.874   5.360   0.906  0.0959 -0.4109 -0.0040
 1627SOL    HW111486   3.960   5.340   0.869 -0.2259 -0.1585 -0.9285
 1627SOL    HW211487   3.846   5.278   0.946  0.0497 -1.0008 -1.1921
 1628SOL     OW11488   9.053   3.095   1.897 -0.1956 -0.0449  0.1365
 1628SOL    HW111489   9.058   3.032   1.824  0.0633 -1.0543  1.0051
 1628SOL    HW211490   8.960   3.115   1.905 -0.2089  0.2146 -0.5851
 1629SOL     OW11491   2.889   1.384  12.150 -0.1215  0.4714 -0.2566
 1629SOL    HW111492   2.936   1.303  12.130 -0.3351 -0.6267  3.0348
 1629SOL    HW211493   2.805   1.374  12.106  0.6318 -0.1160 -1.6061
 1630SOL     OW11494  10.169   6.804   1.316 -0.7035 -0.6605  0.2271
 1630SOL    HW111495  10.104   6.779   1.250 -2.1244  1.0362  0.8743
 1630SOL    HW211496  10.161   6.738   1.384  0.9177 -2.5459 -1.2907
 1631SOL     OW11497   2.260  10.218   3.458  0.1896 -0.4659  0.1278
 1631SOL    HW111498   2.335  10.258   3.500  0.5433 -1.5996  0.6111
 1631SOL    HW211499   2.216  10.169   3.528  0.7348 -2.3100 -0.7635
 1632SOL     OW11500   3.538  12.530  11.656  0.1310 -0.0280  0.0817
 1632SOL    HW111501   3.523  12.570  11.571 -2.1835  0.6850  0.7691
 1632SOL    HW211502   3.497  12.443  11.650 -0.5859  0.2642  0.6505
 1633SOL     OW11503   4.415   8.349   6.188  0.3323 -0.2962  0.1995
 1633SOL    HW111504   4.389   8.404   6.114  0.0054 -0.3938  0.2439
 1633SOL    HW211505   4.389   8.261   6.163  0.1197 -0.3141  0.4812
 1634SOL     OW11506   2.955   3.246   2.949 -0.7457 -0.7834 -0.1435
 1634SOL    HW111507   2.957   3.307   2.875 -0.7410 -0.4487  0.1300
 1634SOL    HW211508   3.047   3.241   2.977 -1.0092  0.7278  1.1593
 1635SOL     OW11509   5.375   5.771  10.151  0.1171  0.3129  0.0144
 1635SOL    HW111510   5.400   5.794  10.061  0.6830 -1.1481 -0.2254
 1635SOL    HW211511   5.281   5.785  10.154 -0.0788 -0.6219 -1.1297
 1636SOL     OW11512   3.920   6.138   2.819  0.0083  0.0849 -0.1831
 1636SOL    HW111513   3.856   6.208   2.834 -1.2001 -1.0382  0.0460
 1636SOL    HW211514   3.987   6.179   2.766 -0.7900  1.3741 -0.2448
 1637SOL     OW11515   3.528  10.530   7.268 -0.0215 -0.3619  0.4485
 1637SOL    HW111516   3.562  10.501   7.183 -0.5781  4.5350 -1.7549
 1637SOL    HW211517   3.607  10.544   7.321  0.5170 -0.8814 -0.1898
 1638SOL     OW11518  12.133   1.372  10.361  0.1586 -0.2640  0.6314
 1638SOL    HW111519  12.118   1.333  10.275 -0.2297 -2.3400  1.5725
 1638SOL    HW211520  12.054   1.423  10.378 -0.1108 -0.4852  0.0631
 1639SOL     OW11521   9.856   6.035   1.772  0.0733 -0.0954 -0.1230
 1639SOL    HW111522   9.795   6.014   1.843 -1.4745  1.5570 -0.8731
 1639SOL    HW211523   9.892   6.120   1.796  2.2737 -1.1202  0.3753
 1640SOL     OW11524   4.583   1.536   0.619  1.0104 -0.6250 -0.3119
 1640SOL    HW111525   4.494   1.503   0.606  0.1531  0.3315  2.3708
 1640SOL    HW211526   4.601   1.587   0.540 -0.8590 -0.8025 -0.9052
 1641SOL     OW11527   2.680   1.077   4.950 -0.1915 -0.1431  0.2747
 1641SOL    HW111528   2.623   1.087   5.026 -1.1923 -1.3328 -0.2715
 1641SOL    HW211529   2.632   1.017   4.892 -0.6863  2.6275 -2.4703
 1642SOL     OW11530   4.628  10.538  10.217 -0.0552 -0.0846 -0.3796
 1642SOL    HW111531   4.722  10.526  10.200  0.5026  1.6626  1.0100
 1642SOL    HW211532   4.608  10.475  10.285 -0.2004 -1.2460 -1.4661
 1643SOL     OW11533   4.560   9.563   2.495 -0.5912 -0.1253  0.2210
 1643SOL    HW111534   4.568   9.545   2.402 -1.3787 -0.1348  0.1445
 1643SOL    HW211535   4.583   9.481   2.538  0.8657  0.2004  0.0843
 1644SOL     OW11536  12.537   6.159   1.101  0.4177 -0.2263 -0.6360
 1644SOL    HW111537  12.566   6.198   1.183 -1.6094  0.9464 -0.4139
 1644SOL    HW211538  12.580   6.074   1.099  1.5798  0.2641  0.9659
 1645SOL     OW11539   1.245  12.107   6.926  0.6684  0.5288 -0.0463
 1645SOL    HW111540   1.257  12.161   7.004  0.8468 -0.1881  0.4401
 1645SOL    HW211541   1.160  12.065   6.939  0.0065  1.5559 -0.9679
 1646SOL     OW11542  12.323   5.388   2.161  0.3325 -0.3112 -0.3746
 1646SOL    HW111543  12.239   5.429   2.181  0.3649 -1.3213  2.2418
 1646SOL    HW211544  12.306   5.294   2.166  1.8060 -0.5423  1.4050
 1647SOL     OW11545   9.011   2.552  11.208 -0.0408  0.6224 -0.0972
 1647SOL    HW111546   9.016   2.622  11.144  1.6339  1.5115  0.9334
 1647SOL    HW211547   9.039   2.592  11.290  1.1357 -1.2810  0.5005
 1648SOL     OW11548   5.744  10.755   7.651 -0.0768 -1.0830  0.1516
 1648SOL    HW111549   5.681  10.748   7.723  1.1622 -2.1649  1.1885
 1648SOL    HW211550   5.764  10.664   7.628 -0.6661 -0.7726 -1.8153
 1649SOL     OW11551  11.644   8.931   3.228  0.1592 -0.2858  0.2197
 1649SOL    HW111552  11.601   8.912   3.312 -1.5240 -2.6133 -1.0489
 1649SOL    HW211553  11.737   8.935   3.249 -0.1739 -1.2841  2.1459
 1650SOL     OW11554  11.247  10.694  11.855  0.0971  0.0517 -0.2733
 1650SOL    HW111555  11.244  10.789  11.866 -1.2204  0.1338 -1.1692
 1650SOL    HW211556  11.206  10.660  11.934 -0.3579  0.2654 -0.4162
 1651SOL     OW11557   7.030  10.510   4.417 -1.0062 -0.2316  0.1623
 1651SOL    HW111558   7.092  10.541   4.483 -1.7291  1.0029  0.2936
 1651SOL    HW211559   7.043  10.416   4.415 -1.6851 -0.4653  2.8497
 1652SOL     OW11560   1.908   9.783   7.250  0.1154  0.5213  0.7902
 1652SOL    HW111561   1.920   9.763   7.343  0.5908  0.6696  0.7628
 1652SOL    HW211562   1.900   9.697   7.208  2.2939  0.3277  0.6532
 1653SOL     OW11563   6.523   9.707   9.256 -0.2171  0.5178 -0.1692
 1653SOL    HW111564   6.525   9.647   9.330 -0.3475  0.5885 -0.1089
 1653SOL    HW211565   6.433   9.700   9.221  0.0787 -0.1434 -0.8352
 1654SOL     OW11566   9.759   2.667   9.541  0.2694 -0.4044 -0.4940
 1654SOL    HW111567   9.738   2.578   9.570  1.4517 -0.6627 -0.3951
 1654SOL    HW211568   9.729   2.670   9.450 -0.3781 -0.6803 -0.2964
 1655SOL     OW11569  10.199  12.301   3.125  0.4989  0.1838  0.9365
 1655SOL    HW111570  10.277  12.346   3.157  0.1371  1.5542 -0.0311
 1655SOL    HW211571  10.185  12.336   3.037 -2.2492  1.4112  1.7468
 1656SOL     OW11572   1.254   2.372   3.153  0.4517  0.0973  0.3603
 1656SOL    HW111573   1.263   2.451   3.206  1.1590  0.0495  0.3268
 1656SOL    HW211574   1.272   2.300   3.213  0.1628 -0.0172  0.3101
 1657SOL     OW11575  10.862   2.741  10.746  0.1218 -0.7643 -0.1426
 1657SOL    HW111576  10.892   2.827  10.716  0.5114 -0.0374  2.1717
 1657SOL    HW211577  10.940   2.686  10.743 -0.0536 -0.9685 -1.3053
 1658SOL     OW11578   1.480   9.031   3.623  0.5220  0.4152  0.3918
 1658SOL    HW111579   1.397   9.076   3.606 -0.2098 -1.6174 -1.8682
 1658SOL    HW211580   1.470   8.996   3.711 -1.9575 -1.5443 -0.5480
 1659SOL     OW11581   7.749   5.377   2.523  0.3306 -0.2026 -0.3473
 1659SOL    HW111582   7.842   5.369   2.505  0.3096 -0.9238 -0.1591
 1659SOL    HW211583   7.744   5.413   2.611  0.4219  1.5105 -0.9870
 1660SOL     OW11584   7.700  12.118   8.232  0.3147 -0.3584 -0.2441
 1660SOL    HW111585   7.782  12.114   8.281 -1.2003 -0.5190  2.4616
 1660SOL    HW211586   7.666  12.029   8.234 -1.0119  0.1429  0.7288
 1661SOL     OW11587   1.046  12.584   8.806 -0.1109 -0.3523  0.2722
 1661SOL    HW111588   0.995  12.570   8.726 -0.5770  0.4929  0.4109
 1661SOL    HW211589   1.125  12.628   8.776 -0.6851  0.7742  0.3664
 1662SOL     OW11590   9.432   1.849   1.724 -0.7807 -0.2904  0.4034
 1662SOL    HW111591   9.450   1.793   1.648 -0.0076  1.9714 -1.2052
 1662SOL    HW211592   9.341   1.878   1.712 -0.8057 -0.2965  0.5812
 1663SOL     OW11593   1.992   0.902   0.106  0.1297 -0.2012 -0.2510
 1663SOL    HW111594   1.958   0.813   0.105  0.7816 -0.4866  1.2972
 1663SOL    HW211595   2.087   0.892   0.112  0.3779  0.6128 -1.9973
 1664SOL     OW11596   3.799   8.172   6.048  0.0107  0.0686  0.0445
 1664SOL    HW111597   3.869   8.173   5.983 -0.4809 -0.6488 -0.5045
 1664SOL    HW211598   3.833   8.118   6.119  0.7523  1.2709  0.6390
 1665SOL     OW11599  11.367   1.487   5.225 -0.6594 -0.3445 -0.0972
 1665SOL    HW111600  11.385   1.502   5.132  1.3360 -0.6325  0.1894
 1665SOL    HW211601  11.306   1.557   5.249  0.0852  0.7600 -1.2534
 1666SOL     OW11602   1.365   7.652   1.168 -0.5564  0.3481  0.1324
 1666SOL    HW111603   1.409   7.714   1.110 -1.9845  0.8878 -0.4139
 1666SOL    HW211604   1.334   7.705   1.241  1.0115 -0.2892  1.3298
 1667SOL     OW11605   5.702   0.914   3.425  0.1822  0.5365 -0.0025
 1667SOL    HW111606   5.682   1.007   3.434 -1.1052  0.2135  0.7034
 1667SOL    HW211607   5.674   0.892   3.336 -0.5139  0.6012  0.1946
 1668SOL     OW11608   7.642   3.495   6.533 -0.2492 -0.1974  0.0813
 1668SOL    HW111609   7.721   3.443   6.545  0.5307  0.8912 -0.1493
 1668SOL    HW211610   7.654   3.538   6.449 -1.2699 -0.3133 -0.1345
 1669SOL     OW11611   0.889   1.771   2.469  0.5129 -0.0998 -0.3823
 1669SOL    HW111612   0.947   1.787   2.394 -0.4682 -0.4713 -1.2361
 1669SOL    HW211613   0.882   1.856   2.512  1.1407  0.1005 -0.6600
 1670SOL     OW11614   2.145   0.603  11.745 -0.4712  0.0395  0.6623
 1670SOL    HW111615   2.167   0.675  11.804 -1.0933  0.3112  0.5744
 1670SOL    HW211616   2.179   0.631  11.660 -1.8247  0.8332  0.3500
 1671SOL     OW11617   4.217   4.179   9.168  0.2035 -0.2424 -0.0667
 1671SOL    HW111618   4.197   4.149   9.079 -1.1052 -3.4666  1.1652
 1671SOL    HW211619   4.310   4.160   9.180  0.4718  0.5182 -0.7953
 1672SOL     OW11620   5.350   4.611   3.262  0.0266 -0.1924  0.0675
 1672SOL    HW111621   5.324   4.609   3.354 -0.7986  0.1168 -0.1584
 1672SOL    HW211622   5.268   4.617   3.213  0.4412 -0.6395 -0.7049
 1673SOL     OW11623   2.668   4.625   8.407  0.1504 -0.4143  0.2117
 1673SOL    HW111624   2.692   4.554   8.466 -1.2009  1.2342  2.9550
 1673SOL    HW211625   2.656   4.582   8.322  0.0652 -3.3355  1.5597
 1674SOL     OW11626  11.696   0.877   5.931 -0.2812 -0.2140 -0.6432
 1674SOL    HW111627  11.699   0.965   5.894 -0.0587  0.4745  0.9268
 1674SOL    HW211628  11.619   0.837   5.891  0.1504  0.3509 -2.0940
 1675SOL     OW11629   7.246  10.250   2.795 -0.2536  0.1514  0.4616
 1675SOL    HW111630   7.186  10.176   2.806  1.5077 -1.2494  1.0035
 1675SOL    HW211631   7.332  10.215   2.817  1.5063  0.9638 -4.0833
 1676SOL     OW11632   2.377   3.241  10.675  0.4235  0.1104 -0.0763
 1676SOL    HW111633   2.433   3.226  10.598 -0.1851  0.2501 -0.5588
 1676SOL    HW211634   2.430   3.213  10.749  0.8319 -0.5220 -0.5948
 1677SOL     OW11635   5.071   6.331   4.638 -0.4340  0.2644  0.1502
 1677SOL    HW111636   5.146   6.323   4.580 -0.3510 -0.0283  0.2954
 1677SOL    HW211637   5.070   6.423   4.665 -1.1341  0.6881 -1.2021
 1678SOL     OW11638  10.218   6.480   0.382  0.1572  0.5449  0.2747
 1678SOL    HW111639  10.196   6.566   0.417  2.5483  0.7439  1.4204
 1678SOL    HW211640  10.313   6.477   0.380  0.1949 -2.2850  0.8417
 1679SOL     OW11641   5.914   0.965  10.731  0.5549  0.2161 -0.9804
 1679SOL    HW111642   5.997   0.923  10.754  1.7428  2.4825 -0.7480
 1679SOL    HW211643   5.894   1.020  10.807 -1.7374 -1.0087 -0.6209
 1680SOL     OW11644   9.088   8.439   5.700 -0.1539 -0.2881  0.4671
 1680SOL    HW111645   9.092   8.473   5.610 -1.8966 -1.2906 -0.0577
 1680SOL    HW211646   9.178   8.416   5.721  0.8398  2.9527  0.2341
 1681SOL     OW11647   6.275   0.736   3.781 -0.1601 -0.0715  0.0054
 1681SOL    HW111648   6.284   0.830   3.797 -1.3625  0.4003 -1.8777
 1681SOL    HW211649   6.183   0.724   3.757  0.2729 -1.5144 -1.0813
 1682SOL     OW11650   9.333   9.222   3.893  0.0261  0.3047  0.0806
 1682SOL    HW111651   9.364   9.306   3.926  0.1585 -0.4013  1.8389
 1682SOL    HW211652   9.263   9.245   3.831 -1.5080  1.7035  2.1966
 1683SOL     OW11653   9.806   2.572   1.402 -0.0594 -0.0411  0.1759
 1683SOL    HW111654   9.860   2.581   1.480 -1.2642  1.6553  0.8799
 1683SOL    HW211655   9.752   2.495   1.419  2.1332 -1.8554 -0.6070
 1684SOL     OW11656   5.769   1.411   6.543 -0.2151  0.6977  0.0495
 1684SOL    HW111657   5.717   1.404   6.623 -0.0425 -2.8900  0.0000
 1684SOL    HW211658   5.856   1.438   6.573  0.0893 -1.4133  1.3131
 1685SOL     OW11659   9.582   4.886   1.143  0.0184  0.1506  0.5537
 1685SOL    HW111660   9.648   4.840   1.196  0.2955 -0.2870 -0.1481
 1685SOL    HW211661   9.501   4.839   1.160  0.1818 -0.2298  0.3031
 1686SOL     OW11662   3.747   2.148   7.751  0.2873  0.3970 -0.2190
 1686SOL    HW111663   3.710   2.231   7.724 -1.0349 -0.4488 -1.1436
 1686SOL    HW211664   3.732   2.145   7.846 -1.8494  0.2067 -0.5220
 1687SOL     OW11665  11.061   2.432   4.907  0.0593 -0.2192  0.6030
 1687SOL    HW111666  11.050   2.357   4.849  0.0371  0.4053 -0.2073
 1687SOL    HW211667  10.973   2.461   4.928  0.0775  0.3541 -0.1000
 1688SOL     OW11668   1.591   2.053   8.478 -0.2490 -0.6127  0.1989
 1688SOL    HW111669   1.553   1.965   8.474  2.6448 -2.0234  0.6235
 1688SOL    HW211670   1.621   2.070   8.389 -2.1415  0.6750 -0.2380
 1689SOL     OW11671   4.252  12.062   8.253 -0.0864 -0.3846  0.1201
 1689SOL    HW111672   4.262  11.970   8.228 -0.5019 -0.1473 -0.9638
 1689SOL    HW211673   4.337  12.086   8.291  0.7290 -0.6427 -1.4713
 1690SOL     OW11674   2.222   5.991  10.063  0.1089  0.2644 -0.1580
 1690SOL    HW111675   2.169   5.969  10.140  1.3869 -2.1855  0.0875
 1690SOL    HW211676   2.288   6.052  10.097 -0.8673  1.2400  0.0822
 1691SOL     OW11677   9.008   6.075   4.234  0.2382  0.1653  0.9402
 1691SOL    HW111678   9.056   6.158   4.238  0.5923 -0.0059  0.3296
 1691SOL    HW211679   9.064   6.012   4.279  0.7000 -0.0812  0.0451
 1692SOL     OW11680   1.997   7.088  11.068  0.0222  0.1144  0.8292
 1692SOL    HW111681   2.049   7.168  11.075  0.3691 -0.0008 -0.2716
 1692SOL    HW211682   1.992   7.070  10.974  1.1409 -1.9389  1.1072
 1693SOL     OW11683   8.947  12.335   5.790 -0.1772 -0.1248 -0.4120
 1693SOL    HW111684   8.994  12.264   5.745  2.4750 -0.3112  2.3170
 1693SOL    HW211685   9.001  12.412   5.775 -0.3009  0.2084  0.7895
 1694SOL     OW11686   7.321   0.528   5.746 -0.1227  0.6091  0.1761
 1694SOL    HW111687   7.298   0.450   5.695  0.3017  1.1460 -0.8613
 1694SOL    HW211688   7.237   0.563   5.775 -0.4964  1.1545 -1.4722
 1695SOL     OW11689   5.172  10.148   5.233 -0.2435 -0.1143  0.1549
 1695SOL    HW111690   5.184  10.071   5.289  1.4892 -0.0349 -0.0733
 1695SOL    HW211691   5.093  10.128   5.182 -0.2107 -1.4424  0.5846
 1696SOL     OW11692   8.698  11.058   0.746 -0.3673 -0.0864 -0.3018
 1696SOL    HW111693   8.790  11.073   0.767 -0.6228  0.1951  0.6668
 1696SOL    HW211694   8.672  10.986   0.803 -1.2356  1.0823  0.8557
 1697SOL     OW11695   5.465   0.697  10.228 -0.0252 -0.6095 -0.4379
 1697SOL    HW111696   5.438   0.788  10.217  1.5765 -0.0460  0.0631
 1697SOL    HW211697   5.383   0.648  10.233 -0.9314  0.9412  0.5104
 1698SOL     OW11698   8.596   8.052   5.642 -0.2805  0.1933  0.2231
 1698SOL    HW111699   8.526   8.012   5.694  0.3910 -0.6487  0.5008
 1698SOL    HW211700   8.571   8.036   5.551 -0.7912  0.5113  0.2997
 1699SOL     OW11701  12.351   0.892   9.954 -0.2229 -0.3349 -0.4126
 1699SOL    HW111702  12.432   0.844   9.934 -0.0052 -1.1718  2.0674
 1699SOL    HW211703  12.376   0.984   9.949  1.3293 -0.5753  1.6564
 1700SOL     OW11704   9.667   0.277   9.858  0.6234  0.0667  0.5851
 1700SOL    HW111705   9.731   0.331   9.904 -1.1847  1.5016  1.5124
 1700SOL    HW211706   9.607   0.247   9.927  1.1189 -2.5906 -0.0026
 1701SOL     OW11707   4.673   2.901  10.683  0.1444  0.4010  0.4470
 1701SOL    HW111708   4.665   2.914  10.778  1.7274  2.1509  0.3979
 1701SOL    HW211709   4.689   2.989  10.648  0.6731 -0.3581 -1.3273
 1702SOL     OW11710   2.189  11.016   7.223 -0.5660 -0.1912 -0.3705
 1702SOL    HW111711   2.158  10.987   7.137 -0.4279 -1.4831  0.0076
 1702SOL    HW211712   2.139  10.964   7.286 -0.3548  0.4351  0.3291
 1703SOL     OW11713   0.964   0.469   7.763 -0.1735 -0.0410  0.0241
 1703SOL    HW111714   0.902   0.542   7.758  0.5386  0.5056 -2.9032
 1703SOL    HW211715   0.908   0.392   7.780 -1.2559  0.8321  0.5388
 1704SOL     OW11716  12.623   3.374   3.738  0.0450 -0.3499  0.2076
 1704SOL    HW111717  12.650   3.447   3.793  0.1740  1.0610 -1.6450
 1704SOL    HW211718  12.639   3.403   3.649 -2.9818 -1.3336 -0.7956
 1705SOL     OW11719   7.588   1.901  11.440 -0.0457 -0.0994  0.2550
 1705SOL    HW111720   7.556   1.853  11.364 -0.0993  1.8451 -1.0066
 1705SOL    HW211721   7.666   1.852  11.467 -0.0924 -0.8973 -0.9638
 1706SOL     OW11722   9.062   3.784  11.968  0.1650  0.1679  0.0999
 1706SOL    HW111723   9.134   3.774  12.031  1.1042 -0.5717 -1.0458
 1706SOL    HW211724   8.984   3.793  12.022  0.9339 -0.5173  1.3819
 1707SOL     OW11725   3.454   9.454   0.817  0.2078 -0.0311  0.0137
 1707SOL    HW111726   3.534   9.466   0.766 -0.1652  2.9470 -0.0967
 1707SOL    HW211727   3.385   9.441   0.751  0.2306  0.1308 -0.0424
 1708SOL     OW11728   2.789   1.406   9.336  0.6795  0.0006  0.2352
 1708SOL    HW111729   2.766   1.499   9.340  0.3565 -0.0153 -0.8101
 1708SOL    HW211730   2.744   1.375   9.257 -0.3065 -1.3474  1.2910
 1709SOL     OW11731   8.100   6.883   3.859 -0.1397 -0.1328 -0.0873
 1709SOL    HW111732   8.046   6.915   3.787  1.1803  0.9300 -0.6587
 1709SOL    HW211733   8.040   6.875   3.933 -1.2148  0.2688 -0.8967
 1710SOL     OW11734  11.765   2.455   8.402 -0.2782 -0.1376  0.2611
 1710SOL    HW111735  11.786   2.385   8.464  0.4600  0.7546  1.0412
 1710SOL    HW211736  11.778   2.415   8.316  0.6732 -0.8004  0.6940
 1711SOL     OW11737   2.519   7.869   4.300  0.0747  0.5298 -0.0180
 1711SOL    HW111738   2.510   7.936   4.367  1.0182  0.9229 -0.2636
 1711SOL    HW211739   2.489   7.910   4.220 -1.0341  0.0659  0.1400
 1712SOL     OW11740  11.783   5.695  10.788 -0.3405  0.1695 -0.0323
 1712SOL    HW111741  11.833   5.648  10.854  0.1368  0.1742 -0.3869
 1712SOL    HW211742  11.715   5.633  10.760 -2.5072  1.1542  2.6089
 1713SOL     OW11743   0.588   0.824   6.390 -0.4126  0.3993 -0.1135
 1713SOL    HW111744   0.517   0.878   6.355  1.0428  1.3614 -1.7281
 1713SOL    HW211745   0.594   0.849   6.482 -0.6250  2.0639 -0.5168
 1714SOL     OW11746  11.471   1.960   2.597  0.1623 -0.0839 -0.6044
 1714SOL    HW111747  11.563   1.979   2.614  0.0065  0.4970 -0.3733
 1714SOL    HW211748  11.464   1.865   2.603  0.7191 -0.1208 -0.4888
 1715SOL     OW11749   4.070   1.635   4.934 -0.3471 -0.3523 -0.5599
 1715SOL    HW111750   4.129   1.649   4.860 -0.6394  0.1510 -0.6998
 1715SOL    HW211751   4.024   1.553   4.912 -0.3782 -0.2456 -0.9045
 1716SOL     OW11752  12.396  10.654   6.791 -0.0462 -0.1724 -1.6525
 1716SOL    HW111753  12.390  10.603   6.872  0.0710  0.3731 -1.2896
 1716SOL    HW211754  12.312  10.640   6.747  0.0820 -0.8715 -1.6788
 1717SOL     OW11755   8.334   1.690   7.515  0.1941  0.3319  0.3961
 1717SOL    HW111756   8.278   1.657   7.444  0.5716 -3.3664  1.6003
 1717SOL    HW211757   8.423   1.683   7.480  0.2695  0.4537  0.5630
 1718SOL     OW11758   4.204   0.405   2.062 -0.1691  0.3310  0.2669
 1718SOL    HW111759   4.209   0.466   1.988  0.8185  0.3929  0.3799
 1718SOL    HW211760   4.249   0.326   2.032 -2.3733 -0.8027 -0.2793
 1719SOL     OW11761   3.698   7.331   8.662 -0.2026  0.4954  0.2080
 1719SOL    HW111762   3.629   7.320   8.596 -1.4678  0.2991  1.5040
 1719SOL    HW211763   3.687   7.421   8.692  1.5404  1.1880 -1.0666
 1720SOL     OW11764   2.615  10.262   4.507  0.0574 -0.3511  0.3433
 1720SOL    HW111765   2.667  10.334   4.473 -0.8119  0.9221  1.5745
 1720SOL    HW211766   2.572  10.224   4.431  1.4181 -0.3242 -0.4619
 1721SOL     OW11767  10.379   2.465  12.438  0.8024  0.2253 -0.3515
 1721SOL    HW111768  10.450   2.507  12.389 -0.2770 -0.1140 -2.3328
 1721SOL    HW211769  10.307   2.527  12.432 -0.2197 -1.0278 -1.6649
 1722SOL     OW11770   1.919   4.712  10.832  0.2095  0.1027  0.2049
 1722SOL    HW111771   1.985   4.678  10.892  0.1984  1.2494  0.9034
 1722SOL    HW211772   1.951   4.687  10.745  0.7807 -0.6612  0.6224
 1723SOL     OW11773   9.448   8.522   5.698  0.3627  0.3280  0.4731
 1723SOL    HW111774   9.374   8.571   5.734  0.1306 -0.2723  0.8254
 1723SOL    HW211775   9.525   8.573   5.722 -0.0135  1.7808 -1.2020
 1724SOL     OW11776   4.071   6.959   8.002 -0.1128  0.2083 -0.0168
 1724SOL    HW111777   4.065   6.866   7.979 -1.4213  0.0219  0.9897
 1724SOL    HW211778   4.097   6.960   8.094  1.5428  0.8911 -0.4603
 1725SOL     OW11779   2.549   3.543   9.261  0.6537 -0.2751  0.2803
 1725SOL    HW111780   2.536   3.452   9.284  1.3513 -0.3553  0.3879
 1725SOL    HW211781   2.617   3.541   9.193  1.1287  0.1950  0.7264
 1726SOL     OW11782  12.137   3.912  11.262 -0.1048 -0.0945  0.2634
 1726SOL    HW111783  12.128   3.881  11.353  0.4710  0.0045  0.3608
 1726SOL    HW211784  12.192   3.846  11.220  0.3158  0.2796  0.2118
 1727SOL     OW11785   6.521   3.539   0.371 -0.4784  0.7402 -0.2063
 1727SOL    HW111786   6.518   3.595   0.293  2.2876 -0.2899 -1.1998
 1727SOL    HW211787   6.508   3.598   0.444 -0.8942  2.1338 -1.3667
 1728SOL     OW11788   4.661   4.730   2.079  0.3434  0.0469 -0.4475
 1728SOL    HW111789   4.592   4.746   2.143  2.1764 -0.0068  1.6248
 1728SOL    HW211790   4.689   4.640   2.095 -0.0960 -0.4646 -2.3059
 1729SOL     OW11791   9.535   2.519   0.260  0.4952  0.3848 -0.9594
 1729SOL    HW111792   9.584   2.437   0.254  0.9813  0.4946  0.9388
 1729SOL    HW211793   9.601   2.586   0.275 -0.0404  0.8753 -0.7370
 1730SOL     OW11794   7.594  11.164   4.850 -0.1013  0.3038  0.0513
 1730SOL    HW111795   7.578  11.089   4.794  2.2814  0.1964 -0.6060
 1730SOL    HW211796   7.513  11.216   4.844 -0.7158 -0.7519 -1.8025
 1731SOL     OW11797   7.381   2.278   7.942 -0.3326 -0.0623 -0.0360
 1731SOL    HW111798   7.368   2.361   7.896 -2.6081 -1.1653 -1.6234
 1731SOL    HW211799   7.329   2.287   8.022  1.8645  1.0632  1.3468
 1732SOL     OW11800  11.019   1.602   2.783  0.0383 -0.1999  0.2766
 1732SOL    HW111801  11.073   1.677   2.809 -0.6772  0.4444 -0.0630
 1732SOL    HW211802  10.932   1.623   2.817 -0.5050 -0.1805 -1.0956
 1733SOL     OW11803   9.100  12.646   5.135  0.3470  0.0903 -0.0701
 1733SOL    HW111804   9.049  12.666   5.057  1.0476 -0.0877 -0.5886
 1733SOL    HW211805   9.093  12.724   5.190  0.7331  0.6483 -0.8027
 1734SOL     OW11806  11.407  12.128  10.385 -0.5559  0.1726  0.9415
 1734SOL    HW111807  11.394  12.034  10.400  1.6079 -0.3333  0.0106
 1734SOL    HW211808  11.397  12.138  10.290  0.0722  0.7349  0.9339
 1735SOL     OW11809   3.262   6.168  10.747 -0.4091  1.0215  0.4515
 1735SOL    HW111810   3.187   6.184  10.804 -1.7765 -0.8269 -0.7304
 1735SOL    HW211811   3.323   6.239  10.767 -2.1392  2.1580  1.9801
 1736SOL     OW11812   1.449  12.359   0.447  0.0067  0.5036 -0.8058
 1736SOL    HW111813   1.432  12.267   0.428  0.8884  0.3173 -0.7172
 1736SOL    HW211814   1.436  12.367   0.542 -1.5438  0.8153 -1.0065
 1737SOL     OW11815  12.111   8.728   9.084 -0.4684  0.3742 -0.4146
 1737SOL    HW111816  12.057   8.653   9.108  1.0781 -1.1779 -1.5499
 1737SOL    HW211817  12.188   8.720   9.140  0.2015  0.4712 -1.3074
 1738SOL     OW11818   9.915  11.188   1.362  0.5129 -0.0954 -0.1913
 1738SOL    HW111819   9.964  11.136   1.298  0.2258  0.4881 -0.9064
 1738SOL    HW211820   9.909  11.275   1.322  2.1609  0.8998  1.5765
 1739SOL     OW11821   2.694   2.314   5.715  0.1252  0.5691  0.2905
 1739SOL    HW111822   2.714   2.385   5.653  0.8761  0.2153  0.1230
 1739SOL    HW211823   2.777   2.271   5.731 -0.2739 -0.1013  0.6255
 1740SOL     OW11824   9.897   5.633  11.105  0.4847  0.3517 -0.2191
 1740SOL    HW111825   9.914   5.685  11.183  2.5769 -0.6846  0.1034
 1740SOL    HW211826   9.983   5.623  11.064  0.2650 -2.9150 -0.1535
 1741SOL     OW11827   1.517   1.765   5.868 -0.0824  0.0092 -0.6679
 1741SOL    HW111828   1.500   1.831   5.935  0.9142 -0.9483  0.5649
 1741SOL    HW211829   1.521   1.815   5.786  0.8561  1.5238  0.2509
 1742SOL     OW11830   8.399   1.028   1.542  0.5836  0.4160 -0.1980
 1742SOL    HW111831   8.481   1.072   1.566  0.2434  0.1146  1.6704
 1742SOL    HW211832   8.419   0.984   1.459  2.2292  0.5775  0.0712
 1743SOL     OW11833   2.428   4.738   4.396 -0.5374  0.3698 -0.1099
 1743SOL    HW111834   2.364   4.745   4.467  0.8074 -1.4659  1.3996
 1743SOL    HW211835   2.479   4.819   4.400 -0.5853  0.3575  0.9430
 1744SOL     OW11836   9.106  12.066  10.668 -0.6268 -0.1532 -0.2506
 1744SOL    HW111837   9.080  11.975  10.683 -0.3609 -0.0415  0.9844
 1744SOL    HW211838   9.124  12.070  10.574 -2.1892 -0.9658 -0.6319
 1745SOL     OW11839   3.739   1.360   2.289  0.5279  0.1201  0.3890
 1745SOL    HW111840   3.824   1.316   2.290 -0.1600 -1.5699  4.4173
 1745SOL    HW211841   3.685   1.308   2.230  1.0136 -1.7883  1.5504
 1746SOL     OW11842   6.365   1.715  11.172  0.4865  0.3162  0.3532
 1746SOL    HW111843   6.302   1.786  11.175 -0.9128 -0.7665 -1.4367
 1746SOL    HW211844   6.358   1.672  11.258 -2.1610 -0.5142 -0.1939
 1747SOL     OW11845  10.800   7.345   1.368  0.1857  0.3637 -0.2143
 1747SOL    HW111846  10.835   7.264   1.405  2.6361  1.6475  0.5147
 1747SOL    HW211847  10.746   7.382   1.438 -1.1122 -0.7124 -0.6272
 1748SOL     OW11848  10.470   1.900   9.327 -0.3996 -0.7156  0.7070
 1748SOL    HW111849  10.385   1.909   9.368 -0.2357  1.7014  0.6350
 1748SOL    HW211850  10.452   1.853   9.245 -1.4716 -1.1511  1.1701
 1749SOL     OW11851   8.727  10.445   0.845  0.5366  0.6557 -0.3350
 1749SOL    HW111852   8.760  10.529   0.812  1.1607 -0.1403 -1.8256
 1749SOL    HW211853   8.637  10.440   0.813  0.2934  1.0139  0.2747
 1750SOL     OW11854   7.550   1.414   5.052 -0.0471 -0.5142  0.1863
 1750SOL    HW111855   7.527   1.387   4.964 -0.5625  0.5345 -0.0143
 1750SOL    HW211856   7.501   1.354   5.109 -2.5597  0.9982 -0.2323
 1751SOL     OW11857   9.439   1.632   0.844 -0.2482 -0.0876  0.5895
 1751SOL    HW111858   9.393   1.676   0.772 -0.0777  0.9019  1.0648
 1751SOL    HW211859   9.371   1.617   0.910 -0.4070 -1.0059  0.2395
 1752SOL     OW11860   6.179   0.328   0.198 -0.5280 -0.1621  0.1093
 1752SOL    HW111861   6.211   0.262   0.260 -0.3789  0.9199  1.2111
 1752SOL    HW211862   6.085   0.311   0.191 -0.3605 -1.0085 -0.2827
 1753SOL     OW11863   5.874   5.529   7.994  0.3196 -0.0161 -0.0558
 1753SOL    HW111864   5.962   5.509   8.024  0.7873  1.4219 -0.4324
 1753SOL    HW211865   5.849   5.609   8.040  0.0158  0.7257 -1.4558
 1754SOL     OW11866   9.578  11.367   9.780  0.1712  0.3792 -0.0925
 1754SOL    HW111867   9.566  11.462   9.780 -0.3972  0.3177  0.3501
 1754SOL    HW211868   9.496  11.334   9.816  0.7572 -0.2234  0.7189
 1755SOL     OW11869   1.593  11.115  12.649 -0.0381 -0.1011  0.7646
 1755SOL    HW111870   1.605  11.021  12.640  1.6435  0.1781 -0.5800
 1755SOL    HW211871   1.585  11.147  12.559 -0.5411  1.0593  1.1939
 1756SOL     OW11872   7.461   9.998   2.781 -0.0589 -0.1982  0.3555
 1756SOL    HW111873   7.438  10.059   2.852  0.7661  0.0728  0.4069
 1756SOL    HW211874   7.478   9.915   2.825 -0.2308 -0.2149  0.3927
 1757SOL     OW11875   5.428   6.266   9.404 -0.3005  0.3918 -0.3557
 1757SOL    HW111876   5.455   6.353   9.375 -1.4569  0.3765 -1.6008
 1757SOL    HW211877   5.414   6.217   9.322 -0.6855 -0.6363  0.3001
 1758SOL     OW11878   5.917   4.780   4.121  0.1136  0.2674 -0.0020
 1758SOL    HW111879   5.926   4.774   4.026  0.9879  0.7361  0.0477
 1758SOL    HW211880   5.825   4.759   4.137  0.1894 -0.8254 -0.8583
 1759SOL     OW11881   1.844   4.343   1.961  0.5424 -0.5276  0.2215
 1759SOL    HW111882   1.810   4.364   1.874  0.2832 -0.5373  0.3184
 1759SOL    HW211883   1.770   4.303   2.007  0.1645  0.9317  0.9754
 1760SOL     OW11884   3.348   2.347  12.099  0.0800 -0.0074 -0.2136
 1760SOL    HW111885   3.403   2.366  12.175 -0.8867 -1.0214  0.7922
 1760SOL    HW211886   3.314   2.259  12.117  0.1675 -0.4412 -2.0416
 1761SOL     OW11887   8.092   5.935   1.074 -0.0103 -0.3961  0.0246
 1761SOL    HW111888   8.184   5.959   1.087 -0.7064  2.8632 -0.2395
 1761SOL    HW211889   8.056   5.929   1.162 -0.2771  1.9307  0.1328
 1762SOL     OW11890  11.597   3.756   9.908  0.5956  0.0040 -0.3827
 1762SOL    HW111891  11.559   3.725   9.990 -2.6548  4.7384  0.3533
 1762SOL    HW211892  11.669   3.813   9.935  1.7618 -1.0530 -1.1461
 1763SOL     OW11893   0.217   3.991   5.837  0.1961  0.6737 -0.2778
 1763SOL    HW111894   0.193   4.084   5.835  0.2581  0.6908 -0.2249
 1763SOL    HW211895   0.291   3.985   5.776  1.3866  0.9958  1.0738
 1764SOL     OW11896   8.035   1.242   6.383 -0.0663 -0.7016  0.0493
 1764SOL    HW111897   7.970   1.235   6.313 -0.1735 -1.2351  0.1982
 1764SOL    HW211898   7.998   1.304   6.445 -0.9633 -1.8665  0.7002
 1765SOL     OW11899   8.388   1.828   8.968  0.1399  0.8917 -0.2658
 1765SOL    HW111900   8.450   1.784   9.025  0.1176  1.4508  0.2031
 1765SOL    HW211901   8.393   1.781   8.885 -0.1219 -0.1775  0.3137
 1766SOL     OW11902   1.140   9.534   9.627  0.9942  0.4616  0.7435
 1766SOL    HW111903   1.104   9.448   9.650 -0.6761 -0.2324 -3.4759
 1766SOL    HW211904   1.228   9.515   9.594  0.6403  0.3477 -0.1516
 1767SOL     OW11905   2.181   9.691   3.663  0.3201  0.2326 -0.5350
 1767SOL    HW111906   2.105   9.632   3.659 -0.9554  1.8168 -0.4884
 1767SOL    HW211907   2.150   9.767   3.711  1.3628  1.7692 -2.1688
 1768SOL     OW11908   6.916   1.514   3.940 -0.3020  0.1740 -0.3403
 1768SOL    HW111909   6.946   1.591   3.893 -2.8450  3.6132  3.0778
 1768SOL    HW211910   6.833   1.492   3.899  0.1231 -0.4300 -0.9060
 1769SOL     OW11911  11.740   8.429   0.891  0.1081 -0.4200  0.0253
 1769SOL    HW111912  11.654   8.405   0.856  1.1969 -2.5212 -1.4702
 1769SOL    HW211913  11.733   8.414   0.985 -1.7632  1.5865  0.2803
 1770SOL     OW11914   7.157   1.267   3.817 -0.1802 -0.1252  0.4537
 1770SOL    HW111915   7.091   1.308   3.761  0.3451  0.3115  0.1404
 1770SOL    HW211916   7.195   1.341   3.866 -0.8388 -0.5300  1.6148
 1771SOL     OW11917  11.272  10.780   5.607  0.1100 -0.2395  0.0338
 1771SOL    HW111918  11.199  10.828   5.647  1.0131  0.2995  1.0829
 1771SOL    HW211919  11.299  10.834   5.533  2.2733  1.9149  2.2264
 1772SOL     OW11920   0.854  10.572   1.507 -0.6044 -0.4558 -0.2736
 1772SOL    HW111921   0.852  10.644   1.444 -1.5103 -0.7319 -0.5875
 1772SOL    HW211922   0.776  10.520   1.486  1.4741 -3.1773 -1.9551
 1773SOL     OW11923   8.983   5.967   5.649 -0.0122  0.0973 -0.2608
 1773SOL    HW111924   8.890   5.956   5.629  0.2784 -1.0555 -1.1258
 1773SOL    HW211925   8.986   5.983   5.743 -1.0653 -0.2685 -0.1487
 1774SOL     OW11926   9.357  11.155   8.555 -0.6589 -0.2402  0.2171
 1774SOL    HW111927   9.372  11.061   8.541 -1.0347 -0.3103  0.2708
 1774SOL    HW211928   9.320  11.161   8.643 -1.0990 -0.0934  0.0246
 1775SOL     OW11929   9.210  10.510   6.219  0.3393  0.4050 -0.3131
 1775SOL    HW111930   9.290  10.474   6.256 -0.7188 -0.2823  1.3980
 1775SOL    HW211931   9.207  10.600   6.250  0.9965  0.8042 -1.3412
 1776SOL     OW11932   8.307   7.030   3.518  0.2239 -0.3405  0.1374
 1776SOL    HW111933   8.263   7.099   3.567 -0.2999 -0.0462 -0.7209
 1776SOL    HW211934   8.240   6.965   3.501 -0.9753  1.5859 -4.0283
 1777SOL     OW11935   3.576   0.446   2.924 -0.0326 -0.3481  0.1779
 1777SOL    HW111936   3.618   0.362   2.945 -1.1521 -1.0773 -0.4359
 1777SOL    HW211937   3.547   0.436   2.834 -0.2748  0.6799  0.1314
 1778SOL     OW11938   6.641   0.400   1.034  0.2888  0.5362 -0.3915
 1778SOL    HW111939   6.690   0.479   1.011  0.2929  0.9491  0.9235
 1778SOL    HW211940   6.688   0.364   1.109 -1.0172  0.5838  0.4913
 1779SOL     OW11941   7.373   1.643   0.048 -0.2291 -0.0210  1.1744
 1779SOL    HW111942   7.373   1.588   0.126 -1.4204  0.2363  1.3688
 1779SOL    HW211943   7.341   1.728   0.078  0.6294  0.5017  0.6715
 1780SOL     OW11944   0.468  10.199   9.039  0.4637  0.1105 -0.6691
 1780SOL    HW111945   0.472  10.145   9.117 -0.3170 -0.7928 -1.2319
 1780SOL    HW211946   0.375  10.223   9.031  0.2583 -1.0087 -2.0870
 1781SOL     OW11947  10.033   9.487   3.085 -0.1595  0.4367  0.0516
 1781SOL    HW111948  10.003   9.514   2.998  0.5990  0.0800 -0.3359
 1781SOL    HW211949  10.103   9.424   3.067 -0.4054 -0.1013  0.9249
 1782SOL     OW11950  10.815   3.650  11.295 -0.5224 -0.0547  0.1190
 1782SOL    HW111951  10.754   3.679  11.362  2.2497 -1.3766  3.4960
 1782SOL    HW211952  10.889   3.614  11.343  2.6071  0.6558 -3.6641
 1783SOL     OW11953   7.921   8.790   5.524  0.4889  0.2450  0.2876
 1783SOL    HW111954   7.931   8.695   5.530  0.1279  0.1003 -0.9700
 1783SOL    HW211955   7.999   8.826   5.565  1.2922 -0.6347 -0.4238
 1784SOL     OW11956   0.555  12.579   8.436 -0.3055  0.3334  0.0285
 1784SOL    HW111957   0.647  12.569   8.462 -0.6782 -0.6193  1.0946
 1784SOL    HW211958   0.506  12.533   8.505 -1.4994 -0.3390 -1.2227
 1785SOL     OW11959  10.004   2.638   8.033  0.4800 -0.2458  0.5377
 1785SOL    HW111960  10.079   2.601   7.987 -0.8742 -1.2480 -1.0172
 1785SOL    HW211961   9.958   2.689   7.966  0.0494  0.8263  1.6035
 1786SOL     OW11962   8.312   5.342   8.252  0.8630  0.0816  0.5994
 1786SOL    HW111963   8.273   5.429   8.252 -0.3812 -0.4592  1.1647
 1786SOL    HW211964   8.348   5.331   8.164 -0.1324  0.6458  0.1145
 1787SOL     OW11965   3.750  11.371   2.480  0.6367 -0.4555 -0.1521
 1787SOL    HW111966   3.702  11.396   2.401 -0.8313 -0.8470  0.5878
 1787SOL    HW211967   3.721  11.434   2.546  0.3826 -1.3063  0.5605
 1788SOL     OW11968   2.370  11.777   7.416  0.2125 -0.0310  0.5209
 1788SOL    HW111969   2.466  11.785   7.418  0.3461  0.3826 -2.6372
 1788SOL    HW211970   2.355  11.696   7.367 -0.9927  1.5352 -1.8236
 1789SOL     OW11971   4.095  11.694   9.537  0.6751  0.0900 -0.2292
 1789SOL    HW111972   4.088  11.785   9.509  0.8354 -0.0941 -0.9004
 1789SOL    HW211973   4.184  11.669   9.512  1.8337  0.6859  2.8475
 1790SOL     OW11974   1.724   5.674   7.905 -0.0478  0.1510  0.0672
 1790SOL    HW111975   1.762   5.587   7.917  1.5129  0.8781  0.6683
 1790SOL    HW211976   1.648   5.660   7.848 -0.3837 -1.7172  0.9046
 1791SOL     OW11977   9.616   5.097   7.906 -0.4958  0.6997  0.4559
 1791SOL    HW111978   9.702   5.110   7.867 -1.2469  0.8296 -1.2524
 1791SOL    HW211979   9.633   5.047   7.986  0.9436 -1.6735 -1.1995
 1792SOL     OW11980  10.771   5.825   6.836 -0.1529 -0.0898  0.4543
 1792SOL    HW111981  10.813   5.906   6.807 -0.9215 -0.0514 -0.6087
 1792SOL    HW211982  10.685   5.826   6.793 -0.9696 -0.5051  2.0240
 1793SOL     OW11983   7.700   7.904   7.831 -0.3835  0.5364 -0.1803
 1793SOL    HW111984   7.698   8.000   7.835  0.4043  0.7423 -2.8117
 1793SOL    HW211985   7.788   7.881   7.861 -1.1176  0.4269  2.1084
 1794SOL     OW11986  10.900  12.489   8.447  0.0473 -0.5722 -0.1564
 1794SOL    HW111987  10.855  12.568   8.419 -0.5060 -0.0955  1.8591
 1794SOL    HW211988  10.952  12.462   8.372 -2.3062 -0.1881 -2.0297
 1795SOL     OW11989   9.640   5.014  10.570 -0.3098 -0.3785 -0.2365
 1795SOL    HW111990   9.654   5.079  10.501 -0.8331  0.3496  0.3285
 1795SOL    HW211991   9.710   5.030  10.633  0.4540 -1.3555 -0.8040
 1796SOL     OW11992   2.025   1.230   9.775  0.0499  0.7408 -0.5443
 1796SOL    HW111993   2.114   1.197   9.773  0.2018  1.1345 -0.3714
 1796SOL    HW211994   2.016   1.270   9.862 -0.5644 -0.0460 -0.2298
 1797SOL     OW11995   7.519  11.689   8.095  0.4564  0.0265 -0.4366
 1797SOL    HW111996   7.460  11.763   8.112  1.6721  1.0447 -0.4783
 1797SOL    HW211997   7.485  11.618   8.150  0.5211  1.2949  1.3190
 1798SOL     OW11998   2.258   2.878   0.071  0.4145 -0.5856 -0.7217
 1798SOL    HW111999   2.340   2.928   0.080  1.2034 -1.7749 -1.0483
 1798SOL    HW212000   2.228   2.866   0.161 -0.8945  2.1613 -0.6959
 1799SOL     OW12001   9.523   1.800   6.292 -0.2364 -0.3091 -0.4439
 1799SOL    HW112002   9.461   1.813   6.363  2.7882  0.2667  2.3230
 1799SOL    HW212003   9.565   1.885   6.280  0.8510 -0.9402 -1.4036
 1800SOL     OW12004   0.260   7.673   2.520  0.0703 -0.2660  0.2365
 1800SOL    HW112005   0.304   7.599   2.477  1.7692  1.5267 -1.3010
 1800SOL    HW212006   0.309   7.685   2.602  0.0459 -0.5865  0.2987
 1801SOL     OW12007  11.983  12.025  10.065  0.5181  0.1160 -0.3619
 1801SOL    HW112008  12.017  12.068   9.987  0.8629  1.4388  0.4871
 1801SOL    HW212009  12.058  12.016  10.123  0.1422 -0.2564  0.0828
 1802SOL     OW12010  10.567   0.114   1.306 -0.0692 -0.1602  0.3718
 1802SOL    HW112011  10.522   0.179   1.360  0.1303 -1.3480  2.0450
 1802SOL    HW212012  10.657   0.114   1.338  0.8590  1.2161 -2.0193
 1803SOL     OW12013  10.424   6.673   6.932 -0.5233  0.2788  0.1867
 1803SOL    HW112014  10.487   6.735   6.895 -1.0829  0.2816 -0.7988
 1803SOL    HW212015  10.382   6.634   6.855  0.0105 -1.5323  0.7732
 1804SOL     OW12016   6.051   2.645  10.542  0.3008  0.0345  0.2767
 1804SOL    HW112017   6.128   2.656  10.486 -0.3224 -0.5087 -0.7009
 1804SOL    HW212018   6.071   2.567  10.594  0.9991  0.7002  1.0353
 1805SOL     OW12019   0.920   4.236   6.732 -0.0018  0.2668  0.3953
 1805SOL    HW112020   0.837   4.205   6.696 -0.3936  0.0168  1.4962
 1805SOL    HW212021   0.895   4.294   6.803  0.7719 -0.4804  1.2987
 1806SOL     OW12022   1.264   5.259   1.114  0.2176 -0.2279  0.0855
 1806SOL    HW112023   1.252   5.354   1.105  1.5913  0.0229  0.6152
 1806SOL    HW212024   1.303   5.232   1.031 -0.2931 -0.3610 -0.1153
 1807SOL     OW12025   1.889  12.140  10.377 -0.4068 -0.4356  0.0446
 1807SOL    HW112026   1.873  12.198  10.452  0.8977  1.0892 -0.7747
 1807SOL    HW212027   1.820  12.164  10.314 -0.9356 -1.0491  0.3829
 1808SOL     OW12028  12.263  10.765   3.250  0.0366 -0.2678 -0.7727
 1808SOL    HW112029  12.357  10.769   3.233  0.4824  2.4366  1.5349
 1808SOL    HW212030  12.255  10.711   3.328 -0.3280 -0.4311 -0.9219
 1809SOL     OW12031  11.133  10.509   1.284  0.1404 -0.6804 -0.0347
 1809SOL    HW112032  11.111  10.424   1.322  0.3523 -0.8971 -0.3883
 1809SOL    HW212033  11.057  10.532   1.230 -1.1957  0.7138  2.2742
 1810SOL     OW12034   8.234   8.507  10.474  0.0979  0.2506  0.4253
 1810SOL    HW112035   8.141   8.486  10.465  0.2313 -0.2596  0.1836
 1810SOL    HW212036   8.246   8.586  10.421  0.1448 -0.6671 -1.0040
 1811SOL     OW12037   3.755  11.330   6.787  0.1633 -0.0900 -0.2185
 1811SOL    HW112038   3.736  11.397   6.852 -1.5047 -2.4359  1.9210
 1811SOL    HW212039   3.746  11.374   6.703 -0.1716  2.4838  1.0789
 1812SOL     OW12040   1.977   9.123   1.846 -0.2484  0.2185  0.0182
 1812SOL    HW112041   1.970   9.179   1.922  3.0196  0.8934 -0.0061
 1812SOL    HW212042   2.070   9.101   1.841 -0.4215 -0.3589 -3.3751
 1813SOL     OW12043   2.954   0.383  11.595 -0.0470 -0.2134 -0.4694
 1813SOL    HW112044   2.901   0.324  11.540  0.6993 -2.1142  0.7375
 1813SOL    HW212045   2.921   0.369  11.684  1.3516 -0.1666  0.0739
 1814SOL     OW12046   6.552   4.156  11.683 -0.2173 -0.2914  0.0662
 1814SOL    HW112047   6.483   4.208  11.726  0.1678 -0.7094  1.2370
 1814SOL    HW212048   6.536   4.168  11.590 -2.3052 -0.9017  0.2821
 1815SOL     OW12049   9.444  11.781   7.497 -0.3225  0.0318 -0.1834
 1815SOL    HW112050   9.404  11.790   7.584  1.4228  2.2089  0.5027
 1815SOL    HW212051   9.536  11.764   7.516 -0.5220 -3.7842 -1.7018
 1816SOL     OW12052   7.541   3.798   2.141 -0.3971 -0.0783 -0.3113
 1816SOL    HW112053   7.522   3.740   2.215  0.5827  0.6446  0.5353
 1816SOL    HW212054   7.555   3.884   2.181  1.1071  0.1401 -1.2132
 1817SOL     OW12055   6.974   7.847   6.777 -0.3674 -0.1457  0.2261
 1817SOL    HW112056   7.009   7.900   6.849  0.8160 -0.7392  0.1129
 1817SOL    HW212057   6.879   7.858   6.783 -0.2111  0.9171  1.0220
 1818SOL     OW12058  11.955   3.008   5.507 -0.4895  0.0796 -0.1638
 1818SOL    HW112059  11.966   2.956   5.428  1.6424 -0.6616  0.5494
 1818SOL    HW212060  12.012   3.084   5.495 -1.9487  1.2085 -0.2903
 1819SOL     OW12061   4.644   6.925  10.593 -0.1397  0.6869 -0.2974
 1819SOL    HW112062   4.702   6.926  10.670 -0.7661 -0.1864  0.2055
 1819SOL    HW212063   4.679   6.993  10.536 -0.4833  2.3463  1.3653
 1820SOL     OW12064   8.062  11.381   0.166  0.3654 -0.0481 -0.6300
 1820SOL    HW112065   8.048  11.300   0.216  0.4448 -0.0900 -0.6760
 1820SOL    HW212066   8.015  11.448   0.215 -0.0669 -0.2039 -0.8212
 1821SOL     OW12067  10.747   9.986   9.158 -0.1519  0.6895  0.0126
 1821SOL    HW112068  10.734  10.070   9.114 -0.9114  0.2326 -0.6517
 1821SOL    HW212069  10.747  10.008   9.251 -2.2999  1.2173 -0.0621
 1822SOL     OW12070   4.873  11.176   3.527 -0.3035  0.4839  0.5631
 1822SOL    HW112071   4.824  11.244   3.574  0.0791  0.6315  0.7602
 1822SOL    HW212072   4.936  11.225   3.475  0.5508  0.2633  1.3559
 1823SOL     OW12073   2.651  11.247   6.446 -0.0342  0.2254 -0.1216
 1823SOL    HW112074   2.612  11.220   6.529  0.2064 -0.7089 -0.3000
 1823SOL    HW212075   2.734  11.198   6.442 -0.5005 -0.5053 -1.3600
 1824SOL     OW12076   8.699   1.661   2.556 -0.0520 -0.5853  0.2306
 1824SOL    HW112077   8.788   1.631   2.541  0.9491  2.3071 -0.1785
 1824SOL    HW212078   8.665   1.680   2.468 -0.4958 -0.1556  0.4927
 1825SOL     OW12079   8.325  12.458   3.849  0.3646 -0.5313  0.2837
 1825SOL    HW112080   8.315  12.504   3.766 -0.1827 -3.1365 -1.2226
 1825SOL    HW212081   8.408  12.491   3.884 -1.0835  3.2700  0.6097
 1826SOL     OW12082   7.856  11.768   8.900 -0.4671 -0.2648  0.1083
 1826SOL    HW112083   7.909  11.748   8.977  0.8622  1.8650 -0.1866
 1826SOL    HW212084   7.911  11.745   8.825 -0.8014 -0.0325 -0.2135
 1827SOL     OW12085   7.802  11.453   6.412  0.2385  0.4108  0.2331
 1827SOL    HW112086   7.730  11.510   6.386 -0.8861 -0.5133  1.1932
 1827SOL    HW212087   7.830  11.487   6.497  2.0632  1.7478 -0.8278
 1828SOL     OW12088  10.363   2.185   1.804 -0.0697  0.0399 -0.6800
 1828SOL    HW112089  10.329   2.096   1.796  1.1565 -0.5233  0.0723
 1828SOL    HW212090  10.285   2.239   1.817 -0.8306 -0.9136 -1.1631
 1829SOL     OW12091   9.772   0.227   5.456 -0.0935  0.2380 -0.3930
 1829SOL    HW112092   9.833   0.288   5.499  0.0767 -0.6772  0.6994
 1829SOL    HW212093   9.810   0.141   5.471 -1.1046 -0.2614 -0.6505
 1830SOL     OW12094   8.470  11.597   7.374 -0.1479  0.3681 -0.1699
 1830SOL    HW112095   8.387  11.631   7.407 -0.0189  0.7826 -0.2723
 1830SOL    HW212096   8.480  11.512   7.418  0.5511  1.3688  1.7229
 1831SOL     OW12097   4.642  12.769   4.241 -0.0429 -0.4885  0.2202
 1831SOL    HW112098   4.708  12.790   4.307 -2.3246  1.6852  2.0326
 1831SOL    HW212099   4.670  12.817   4.163  0.1886  1.0698  1.1989
 1832SOL     OW12100   2.780   8.048   7.997 -0.3161 -0.5091  0.6214
 1832SOL    HW112101   2.872   8.021   7.986 -0.0931 -0.4732  2.1922
 1832SOL    HW212102   2.779   8.098   8.079 -1.2755  1.7868 -0.7003
 1833SOL     OW12103   4.768   5.848   3.383 -0.1411 -0.2839 -0.2673
 1833SOL    HW112104   4.743   5.928   3.429 -0.7684 -2.1237  2.8524
 1833SOL    HW212105   4.685   5.811   3.353  0.0475 -0.4113 -0.6416
 1834SOL     OW12106   3.741   2.787  12.273 -0.2044  0.0662 -1.0560
 1834SOL    HW112107   3.731   2.852  12.203  1.1605 -0.2018 -1.5249
 1834SOL    HW212108   3.805   2.725  12.239 -1.5429 -1.5980 -0.6553
 1835SOL     OW12109   9.006   1.889  12.094 -0.3812 -0.5984 -0.2428
 1835SOL    HW112110   9.000   1.819  12.159 -3.1432  0.6916  1.0977
 1835SOL    HW212111   9.060   1.853  12.024  0.8619 -2.8843  1.7492
 1836SOL     OW12112   0.731  12.589  11.133  0.0632  0.0534 -0.3427
 1836SOL    HW112113   0.659  12.587  11.196  0.2691 -1.0765 -0.1241
 1836SOL    HW212114   0.721  12.508  11.083  2.7260 -1.5425  1.4617
 1837SOL     OW12115   0.746   5.751   6.238  0.5430 -0.5720 -0.6987
 1837SOL    HW112116   0.832   5.767   6.278  0.4520  0.9153 -1.0386
 1837SOL    HW212117   0.685   5.751   6.312  0.8054 -1.5299 -0.4669
 1838SOL     OW12118   1.216   4.106   7.963  0.1354 -0.1447  0.0581
 1838SOL    HW112119   1.137   4.161   7.967 -0.9882 -1.7370  0.8338
 1838SOL    HW212120   1.185   4.018   7.986  1.7907 -1.2092 -1.5123
 1839SOL     OW12121   5.101   2.349   2.758  0.3200  0.2181  0.2503
 1839SOL    HW112122   5.104   2.253   2.756  0.1550  0.2012 -2.0812
 1839SOL    HW212123   5.011   2.370   2.783 -0.1023 -0.2963 -0.7525
 1840SOL     OW12124   5.821   8.331   6.486 -0.4425 -0.2825 -0.4543
 1840SOL    HW112125   5.859   8.341   6.574  0.1825 -0.5592 -0.6838
 1840SOL    HW212126   5.874   8.389   6.431 -1.2099  0.3447 -0.5500
 1841SOL     OW12127   4.451   6.460  10.278 -0.3205  0.2456  0.4810
 1841SOL    HW112128   4.464   6.499  10.364 -0.6513  2.8301 -0.5596
 1841SOL    HW212129   4.503   6.514  10.219 -0.4973 -1.1639 -1.0472
 1842SOL     OW12130   5.434  11.753   4.425  0.2437  0.5426 -0.0105
 1842SOL    HW112131   5.457  11.702   4.503 -0.7476 -0.0013 -0.0576
 1842SOL    HW212132   5.342  11.774   4.437 -0.7764 -1.9783 -2.3153
 1843SOL     OW12133   5.433   7.391   0.382 -0.1014 -0.0054  0.5264
 1843SOL    HW112134   5.407   7.463   0.439 -0.5511 -0.2160  0.5925
 1843SOL    HW212135   5.518   7.417   0.346 -0.7685  1.0773 -0.3382
 1844SOL     OW12136  10.993   3.193   5.229 -0.1075  0.1347 -0.2343
 1844SOL    HW112137  10.952   3.274   5.258  1.1752  1.3416 -1.6438
 1844SOL    HW212138  11.031   3.214   5.144  0.9465 -1.7176 -0.2774
 1845SOL     OW12139  10.353   8.651   6.229  0.0048 -0.5768  0.2946
 1845SOL    HW112140  10.439   8.646   6.273  1.2099 -1.1050 -1.9712
 1845SOL    HW212141  10.307   8.572   6.258  0.4999 -0.5981  1.0657
 1846SOL     OW12142  12.387   7.978   4.873 -0.2045  0.5342 -0.1303
 1846SOL    HW112143  12.312   7.981   4.814 -0.8998  0.1982  0.7251
 1846SOL    HW212144  12.366   7.910   4.936  1.3386 -0.3643 -0.5417
 1847SOL     OW12145   4.975   0.790   0.973 -0.3555 -0.6002  0.1719
 1847SOL    HW112146   5.068   0.792   0.953 -0.9228  1.4518 -2.7925
 1847SOL    HW212147   4.956   0.697   0.987  1.7369 -1.2965 -1.1896
 1848SOL     OW12148   0.845   8.787   8.679 -0.0074 -0.1260  0.1277
 1848SOL    HW112149   0.827   8.873   8.640 -0.5807 -0.4612 -0.3547
 1848SOL    HW212150   0.940   8.788   8.695  0.1656  0.2027 -0.8329
 1849SOL     OW12151   6.648   8.726   7.786  0.3780 -0.4065  0.2831
 1849SOL    HW112152   6.563   8.698   7.752  1.0925  0.0241 -2.0052
 1849SOL    HW212153   6.711   8.695   7.722  1.9930 -0.7490  1.9580
 1850SOL     OW12154   0.124   2.153   4.487 -0.1743  0.1686 -0.0600
 1850SOL    HW112155   0.174   2.203   4.551  1.9761 -1.0216 -0.7019
 1850SOL    HW212156   0.116   2.066   4.526  0.5131 -0.3582 -1.0693
 1851SOL     OW12157   0.093   0.462  11.574 -0.4102  0.1899  0.3295
 1851SOL    HW112158   0.061   0.415  11.497 -0.8096 -0.7496  1.0601
 1851SOL    HW212159   0.074   0.554  11.555  2.7922  0.4744 -2.2943
 1852SOL     OW12160   9.249   2.969   0.857 -0.0452 -0.0526 -0.6127
 1852SOL    HW112161   9.284   3.000   0.773  0.2293 -0.6390 -0.7211
 1852SOL    HW212162   9.301   3.016   0.923 -1.2518  1.5391 -0.7329
 1853SOL     OW12163  10.391   5.186   8.701 -0.1266 -0.3674  0.0274
 1853SOL    HW112164  10.338   5.116   8.738  0.5714  0.0688  1.9802
 1853SOL    HW212165  10.467   5.192   8.759  1.6215 -0.3525 -2.1539
 1854SOL     OW12166   7.154   1.771  10.831  0.0911 -0.4222  0.3648
 1854SOL    HW112167   7.141   1.681  10.862  0.5202 -0.8008 -0.4996
 1854SOL    HW212168   7.067   1.811  10.835 -0.2884 -1.1783 -0.1312
 1855SOL     OW12169  10.591   2.095   6.007  0.6011 -0.0690  0.0777
 1855SOL    HW112170  10.575   2.189   6.012 -2.0451 -0.4058 -0.3261
 1855SOL    HW212171  10.592   2.076   5.914  0.5111 -0.5210  0.1672
 1856SOL     OW12172   5.934  11.421  11.353  0.2715  0.1989  0.1506
 1856SOL    HW112173   6.005  11.483  11.368  1.4378 -1.1134  0.2159
 1856SOL    HW212174   5.913  11.430  11.260 -0.7448  1.8586  0.4949
 1857SOL     OW12175   3.179   0.201   6.053  0.0895  0.1800  0.1246
 1857SOL    HW112176   3.195   0.293   6.076 -0.2275 -0.0555  1.3350
 1857SOL    HW212177   3.122   0.168   6.122  0.3238 -0.9813 -0.2128
 1858SOL     OW12178  10.694   5.440  11.717  0.1999 -0.0465 -0.1091
 1858SOL    HW112179  10.649   5.514  11.758  0.4795  0.5572 -0.8541
 1858SOL    HW212180  10.779   5.476  11.692  1.6263 -1.4558  2.3074
 1859SOL     OW12181   1.064  10.949   6.928  0.1573  0.6505  0.3170
 1859SOL    HW112182   0.989  10.934   6.986  0.6924 -1.4029  0.5534
 1859SOL    HW212183   1.026  10.988   6.849 -0.9769  0.7933  0.9038
 1860SOL     OW12184   5.233   3.993   7.236 -0.1948 -0.0524 -0.4001
 1860SOL    HW112185   5.215   4.059   7.302  1.4224  1.3035 -1.2357
 1860SOL    HW212186   5.227   3.910   7.283  1.0969  0.8750  1.5296
 1861SOL     OW12187   4.674  10.339   5.022 -0.0803  0.2749  0.3296
 1861SOL    HW112188   4.720  10.305   4.945 -0.6933 -0.6007  0.3373
 1861SOL    HW212189   4.678  10.434   5.013 -0.2133  0.1765 -0.8246
 1862SOL     OW12190   7.721   0.144  12.116 -0.7870  0.2274  0.4082
 1862SOL    HW112191   7.644   0.142  12.058  0.6573 -6.4834 -2.1535
 1862SOL    HW212192   7.792   0.176  12.061 -0.3873 -1.1141  0.1139
 1863SOL     OW12193   2.481   7.597   6.614  0.1698  0.3692 -0.4967
 1863SOL    HW112194   2.474   7.658   6.541  2.1991  0.6047 -0.5675
 1863SOL    HW212195   2.563   7.551   6.599 -0.5117 -1.2323  0.4366
 1864SOL     OW12196   9.260   7.623   5.084 -0.5833 -0.4700  0.6328
 1864SOL    HW112197   9.256   7.691   5.150 -0.6900 -1.1694  1.3643
 1864SOL    HW212198   9.173   7.622   5.044 -0.2533  0.5480 -0.1430
 1865SOL     OW12199  11.210   1.196   2.517 -0.1029 -0.5673  0.0415
 1865SOL    HW112200  11.194   1.103   2.500  1.8587 -0.9700  0.1391
 1865SOL    HW212201  11.236   1.199   2.609 -0.6225  0.1481  0.1699
 1866SOL     OW12202   8.073   2.148   0.779 -0.3219  0.8704  0.2419
 1866SOL    HW112203   8.053   2.240   0.763 -1.9094  0.4225 -0.6735
 1866SOL    HW212204   8.011   2.121   0.847  0.5637  0.6341  0.9603
 1867SOL     OW12205   5.466   0.025   3.656 -0.5562  0.3372  0.5066
 1867SOL    HW112206   5.401  -0.018   3.711  0.6719  0.0235  1.7538
 1867SOL    HW212207   5.457  -0.018   3.571 -1.6294 -0.0388  0.7938
 1868SOL     OW12208   1.529   3.544   5.129  0.0447  0.0796 -0.1445
 1868SOL    HW112209   1.611   3.549   5.079 -1.6168  1.5394 -2.9811
 1868SOL    HW212210   1.506   3.635   5.146 -1.2692 -0.2657  0.0650
 1869SOL     OW12211  11.639   7.002   8.366 -0.0840  0.0386  0.5169
 1869SOL    HW112212  11.730   7.008   8.396  0.3488  0.3511 -0.7954
 1869SOL    HW212213  11.609   6.917   8.398  1.6417 -1.4222 -1.4898
 1870SOL     OW12214   3.071   3.416   6.111 -0.7406 -0.1004 -0.2195
 1870SOL    HW112215   3.101   3.372   6.191 -0.4462 -1.5846 -1.0978
 1870SOL    HW212216   3.067   3.346   6.046  0.8280  1.3434 -2.0043
 1871SOL     OW12217   9.691   7.741   2.072 -0.6073  0.0803  0.3064
 1871SOL    HW112218   9.679   7.835   2.090  1.1319 -0.1454  3.3167
 1871SOL    HW212219   9.778   7.721   2.107 -0.7064 -2.5800 -0.7733
 1872SOL     OW12220   5.865   6.877   7.215 -0.2618  0.2948  0.0349
 1872SOL    HW112221   5.927   6.804   7.218  0.7238  1.1144  2.0301
 1872SOL    HW212222   5.843   6.887   7.123  0.4658 -1.7793 -0.4046
 1873SOL     OW12223   5.031  11.025  11.305 -0.4361 -0.7009 -0.5029
 1873SOL    HW112224   5.082  11.078  11.366 -1.0461  0.1258 -0.6906
 1873SOL    HW212225   5.096  10.988  11.245  0.0929 -0.9492  0.2152
 1874SOL     OW12226   2.419  12.207   4.951 -0.1560  0.0107 -0.1305
 1874SOL    HW112227   2.415  12.287   5.003 -0.4084  0.3157 -0.6036
 1874SOL    HW212228   2.472  12.146   5.002  1.4465  1.0422 -0.4941
 1875SOL     OW12229  11.974  11.626   4.419 -0.2743  0.0234 -0.1346
 1875SOL    HW112230  11.892  11.641   4.465 -0.9952 -2.0045 -0.6494
 1875SOL    HW212231  12.019  11.559   4.472  0.8802  0.8127 -0.0742
 1876SOL     OW12232   8.057   2.786   5.739 -0.3369 -0.0932 -0.2115
 1876SOL    HW112233   8.068   2.854   5.805 -0.1228  0.0066 -0.3472
 1876SOL    HW212234   8.111   2.714   5.770 -0.1486 -0.0052 -0.3328
 1877SOL     OW12235   6.319   2.424   8.060  0.8161  0.0136  0.1129
 1877SOL    HW112236   6.337   2.330   8.058  0.8818 -0.0436  1.6246
 1877SOL    HW212237   6.345   2.450   8.149 -0.3076  1.2325  0.0993
 1878SOL     OW12238   2.135   5.723   8.402 -0.1888  1.1329 -0.0636
 1878SOL    HW112239   2.181   5.785   8.345  1.4418 -0.2550 -0.3352
 1878SOL    HW212240   2.045   5.723   8.369  0.1979  2.0280 -1.1943
 1879SOL     OW12241  12.062   2.563   7.276 -0.3080  0.3169  0.4737
 1879SOL    HW112242  12.071   2.584   7.183 -2.2751 -0.1075  0.1439
 1879SOL    HW212243  12.104   2.478   7.285 -0.8094 -0.0161 -0.2198
 1880SOL     OW12244  12.781  10.738  10.561  0.4288  0.2664 -0.5636
 1880SOL    HW112245  12.866  10.780  10.554  1.4352 -1.3613  0.9296
 1880SOL    HW212246  12.727  10.800  10.610  1.5175  0.3395  0.5979
 1881SOL     OW12247   4.006  10.701  12.412  0.3669 -0.0426  0.7952
 1881SOL    HW112248   4.085  10.668  12.456  0.1921 -0.9308  0.4663
 1881SOL    HW212249   3.935  10.681  12.474  0.2855 -0.0833  0.6871
 1882SOL     OW12250   2.581  11.936   6.964  0.0304  0.1347  0.3358
 1882SOL    HW112251   2.539  11.995   7.026 -1.0743 -0.3757  0.1060
 1882SOL    HW212252   2.673  11.938   6.987 -0.0578  1.5934  0.6102
 1883SOL     OW12253  12.511   4.656   5.184  0.1101  0.5501 -0.8956
 1883SOL    HW112254  12.555   4.593   5.126  1.6264  1.2877 -0.6150
 1883SOL    HW212255  12.510   4.613   5.269 -0.0686  0.3615 -0.9936
 1884SOL     OW12256   0.006   5.035  12.249  0.3313  0.0929 -0.3815
 1884SOL    HW112257   0.073   5.040  12.318 -0.8523  0.4591  0.7670
 1884SOL    HW212258  -0.030   5.124  12.244 -0.6465 -0.2939 -0.3858
 1885SOL     OW12259  10.180   8.786   4.497  0.0190 -0.3096  0.1747
 1885SOL    HW112260  10.144   8.705   4.460 -1.5134 -0.0525  1.0144
 1885SOL    HW212261  10.104   8.832   4.532  1.0984  0.6332  1.3690
 1886SOL     OW12262   3.550   5.527   6.800 -0.0564  0.0966  0.6106
 1886SOL    HW112263   3.555   5.489   6.888 -1.3222 -0.2428  0.5551
 1886SOL    HW212264   3.531   5.619   6.815  1.3097  0.3751  0.7120
 1887SOL     OW12265   5.648  10.208   6.849 -0.4616  0.6170 -0.4858
 1887SOL    HW112266   5.639  10.254   6.766  2.5958  0.9671 -0.7449
 1887SOL    HW212267   5.726  10.247   6.889  0.7996 -2.5862  0.4681
 1888SOL     OW12268   3.178   2.292  10.514 -0.2885  0.2339  0.3125
 1888SOL    HW112269   3.219   2.206  10.518 -0.4684  0.1696  0.9709
 1888SOL    HW212270   3.251   2.354  10.512 -0.1580  0.0626 -0.3305
 1889SOL     OW12271   1.916   6.769   4.771  0.6644  0.4394 -0.6837
 1889SOL    HW112272   1.904   6.864   4.760  0.7385  0.5961  0.5199
 1889SOL    HW212273   1.838   6.731   4.730 -0.3382  1.1138  0.5276
 1890SOL     OW12274  11.538  10.371   1.537 -0.8125  0.0058 -0.3834
 1890SOL    HW112275  11.596  10.389   1.462 -1.1104  3.5408  0.0804
 1890SOL    HW212276  11.559  10.281   1.561  2.5733  0.2011 -1.9230
 1891SOL     OW12277  11.074   5.644   0.582  0.2680 -0.5364 -0.1002
 1891SOL    HW112278  11.143   5.676   0.523  0.0853  0.6503  0.3097
 1891SOL    HW212279  11.038   5.568   0.536 -0.0014  0.4639 -1.6384
 1892SOL     OW12280   1.863   1.203  11.019 -0.3677 -0.3525  0.3151
 1892SOL    HW112281   1.851   1.195  11.114  0.2919  0.0434  0.4351
 1892SOL    HW212282   1.799   1.142  10.982 -1.2311  0.1220  0.9824
 1893SOL     OW12283  11.835   0.744  12.135 -0.4652 -0.0446 -0.4123
 1893SOL    HW112284  11.825   0.782  12.047  0.2029  1.1626  0.0224
 1893SOL    HW212285  11.774   0.670  12.135 -0.0603 -0.4343 -2.0892
 1894SOL     OW12286   9.858  10.903   8.057 -0.2460 -0.1887 -0.3082
 1894SOL    HW112287   9.849  10.808   8.049 -0.5544 -0.2349  0.4601
 1894SOL    HW212288   9.838  10.937   7.970 -0.7096 -0.7931 -0.4430
 1895SOL     OW12289   8.936   7.824  10.473 -0.1723  0.0188  0.4078
 1895SOL    HW112290   8.911   7.754  10.413  0.7346  0.4044 -0.4503
 1895SOL    HW212291   8.986   7.781  10.542 -0.0151 -0.2467  0.1301
 1896SOL     OW12292   7.186  11.525   2.583  0.1066  0.3520  0.3374
 1896SOL    HW112293   7.238  11.552   2.659 -0.9539 -0.4044  1.3611
 1896SOL    HW212294   7.115  11.472   2.620 -0.6805  0.3271 -1.1436
 1897SOL     OW12295   9.098   1.098   9.474 -0.1648  0.4717  0.4210
 1897SOL    HW112296   9.190   1.123   9.461 -0.2240  0.2118 -0.5850
 1897SOL    HW212297   9.097   1.003   9.467 -0.4890  0.4607  0.5874
 1898SOL     OW12298  10.271   2.952   2.871 -0.2201 -0.5027  0.7261
 1898SOL    HW112299  10.209   2.914   2.808 -0.8835  1.4217  0.1661
 1898SOL    HW212300  10.357   2.932   2.835 -0.5802  1.1833 -1.2484
 1899SOL     OW12301   0.846   9.945   9.075 -0.2284 -0.0572 -0.0449
 1899SOL    HW112302   0.864  10.031   9.037  1.4695 -0.4578 -0.2468
 1899SOL    HW212303   0.932   9.913   9.102 -1.0778 -0.8922  1.7900
 1900SOL     OW12304   7.211  11.477   9.158 -0.0925  0.7354  0.0194
 1900SOL    HW112305   7.156  11.415   9.206 -0.8410 -1.0102 -2.8453
 1900SOL    HW212306   7.168  11.562   9.172 -1.0091  0.1010  1.3226
 1901SOL     OW12307   6.864   9.423  10.749  0.3990  0.2199 -0.6663
 1901SOL    HW112308   6.949   9.423  10.793  0.1398 -1.0074 -0.1216
 1901SOL    HW212309   6.801   9.400  10.818 -0.2844  0.3983 -1.2156
 1902SOL     OW12310  12.595   2.115  12.510  0.0827 -0.0460 -0.0146
 1902SOL    HW112311  12.629   2.028  12.529 -2.2958 -1.3310 -1.1562
 1902SOL    HW212312  12.616   2.167  12.588  2.2213 -1.3864  0.3737
 1903SOL     OW12313  11.510  12.673  11.175  0.9234  0.0397  0.3569
 1903SOL    HW112314  11.489  12.660  11.082 -0.8032  0.4181  0.6546
 1903SOL    HW212315  11.425  12.672  11.219  1.7065 -0.0409  1.9368
 1904SOL     OW12316  10.961   8.907   6.415 -0.1983  0.4017  0.0022
 1904SOL    HW112317  11.013   8.924   6.337 -0.0880  0.9086  0.1813
 1904SOL    HW212318  10.872   8.930   6.389 -0.6159 -1.8283 -0.7592
 1905SOL     OW12319   0.458   5.837   6.173 -0.0627 -0.3547  0.2284
 1905SOL    HW112320   0.523   5.811   6.108  0.5434  0.1907  0.6030
 1905SOL    HW212321   0.502   5.826   6.257 -0.9035 -1.2345  0.5749
 1906SOL     OW12322   8.378   8.441   2.058  0.3253  0.0972  0.1446
 1906SOL    HW112323   8.394   8.522   2.107  1.1955 -0.0848  0.1771
 1906SOL    HW212324   8.412   8.460   1.970 -1.0706  0.3607 -0.3589
 1907SOL     OW12325   5.113   5.364  11.524  0.5328 -0.2932 -0.2490
 1907SOL    HW112326   5.117   5.342  11.431 -0.0950 -3.2602  0.3357
 1907SOL    HW212327   5.043   5.309  11.559 -0.3636  1.9131  1.7419
 1908SOL     OW12328   3.686   0.782   3.106  0.1228 -0.3302  0.3788
 1908SOL    HW112329   3.729   0.725   3.170 -0.4808 -0.3076  0.8079
 1908SOL    HW212330   3.758   0.834   3.069  0.5610 -0.7784  0.5855
 1909SOL     OW12331   4.060   7.810  10.142 -0.8799 -0.0808 -0.4103
 1909SOL    HW112332   4.058   7.799  10.047  0.2404 -0.3738 -0.4055
 1909SOL    HW212333   4.153   7.811  10.165 -0.9879  2.7998  0.3484
 1910SOL     OW12334  11.038   5.665   1.430  0.0900  0.8872  0.3168
 1910SOL    HW112335  11.038   5.760   1.433 -0.0596  0.8742  3.0575
 1910SOL    HW212336  11.129   5.640   1.447 -0.2890  0.5701  2.0444
 1911SOL     OW12337   5.912   7.286  11.564 -0.1953 -0.3835 -0.2826
 1911SOL    HW112338   5.863   7.280  11.646 -1.6989  2.2689 -0.8680
 1911SOL    HW212339   5.855   7.244  11.499 -1.8331  2.5683 -0.9340
 1912SOL     OW12340   3.783  10.431   7.281 -0.5177  0.2699  0.2362
 1912SOL    HW112341   3.787  10.420   7.186 -0.5220 -3.4289  0.4990
 1912SOL    HW212342   3.853  10.374   7.315 -2.9656 -1.6818  2.4900
 1913SOL     OW12343  11.274   6.784   3.463 -0.6166 -0.0430 -0.1261
 1913SOL    HW112344  11.249   6.691   3.467  0.5042 -0.3539 -0.0921
 1913SOL    HW212345  11.329   6.790   3.385 -1.7442  0.8716 -0.8772
 1914SOL     OW12346  12.609   4.295  12.245 -0.2548  0.4102  0.6389
 1914SOL    HW112347  12.684   4.331  12.293 -0.2333 -0.0696  0.9754
 1914SOL    HW212348  12.585   4.363  12.183 -0.7914  1.3647  1.8760
 1915SOL     OW12349   9.646  10.975   2.913  0.2204 -0.2199  0.0929
 1915SOL    HW112350   9.713  11.022   2.863 -0.7260  1.4173  0.2829
 1915SOL    HW212351   9.656  11.008   3.003 -0.2111 -0.6982  0.3199
 1916SOL     OW12352   8.567   4.057   8.661  0.2353 -0.4847  0.0508
 1916SOL    HW112353   8.616   4.057   8.578 -0.0338  0.9469 -0.1380
 1916SOL    HW212354   8.539   3.966   8.672  0.9689 -0.8653 -1.0119
 1917SOL     OW12355   7.845   1.106   8.768 -0.1322 -0.4807  0.0502
 1917SOL    HW112356   7.901   1.033   8.793 -1.0167 -1.3957 -0.5794
 1917SOL    HW212357   7.797   1.075   8.692 -0.0779  0.9858 -0.6164
 1918SOL     OW12358   9.946   3.221   6.835 -0.0073  0.1145  0.4130
 1918SOL    HW112359  10.020   3.170   6.869 -0.7187 -0.1834  1.5984
 1918SOL    HW212360   9.894   3.242   6.913 -0.9488  0.6823 -0.3416
 1919SOL     OW12361   9.152   3.786   1.441 -0.0642  0.0735  0.4166
 1919SOL    HW112362   9.148   3.865   1.387 -1.4240 -0.5287 -0.4341
 1919SOL    HW212363   9.061   3.754   1.443  0.6747 -2.3594 -0.6658
 1920SOL     OW12364   0.602   4.929   0.647 -0.0413  0.6080  0.5236
 1920SOL    HW112365   0.528   4.991   0.648 -0.1392  0.5381 -0.7673
 1920SOL    HW212366   0.574   4.859   0.706 -0.3552  1.3007  1.2285
 1921SOL     OW12367   5.345  10.643  10.827  0.2791  0.0565  0.3585
 1921SOL    HW112368   5.379  10.607  10.908 -1.8451 -0.8854  0.8996
 1921SOL    HW212369   5.305  10.568  10.782 -0.2669  0.9086 -0.6233
 1922SOL     OW12370  11.848   7.743   5.748 -0.1490  0.0579  0.3074
 1922SOL    HW112371  11.780   7.788   5.699 -1.0395 -0.8469  0.6906
 1922SOL    HW212372  11.867   7.803   5.821 -1.9679 -0.5417  1.3266
 1923SOL     OW12373  11.691   2.486   3.558  0.0958  0.4906  0.0394
 1923SOL    HW112374  11.669   2.405   3.603  4.5251 -0.0079  1.7502
 1923SOL    HW212375  11.680   2.465   3.465 -1.3563 -1.1423  0.5278
 1924SOL     OW12376   6.701   1.911   7.210 -0.5135  0.8014  0.8032
 1924SOL    HW112377   6.633   1.911   7.279 -0.7048 -1.4867  0.6885
 1924SOL    HW212378   6.775   1.867   7.250 -0.8492 -1.1576 -0.6221
 1925SOL     OW12379   0.458   4.830   7.120 -0.4058  0.2823  0.3549
 1925SOL    HW112380   0.414   4.878   7.191  0.5989  1.2498  0.3432
 1925SOL    HW212381   0.402   4.843   7.044 -0.8101  0.3423  0.6595
 1926SOL     OW12382   4.544  10.777   2.959 -0.2604 -0.0342 -0.3039
 1926SOL    HW112383   4.594  10.780   3.041  0.7016 -0.9254 -0.8275
 1926SOL    HW212384   4.466  10.727   2.980  0.9998 -2.1851 -0.3992
 1927SOL     OW12385   7.000   9.661   2.361 -0.0953  0.4934  0.1364
 1927SOL    HW112386   7.086   9.683   2.395  0.4271  1.5918 -1.7399
 1927SOL    HW212387   6.952   9.744   2.362 -1.7078 -0.3659  2.5499
 1928SOL     OW12388   8.338   1.134   4.922  0.1877 -0.8829 -0.4545
 1928SOL    HW112389   8.416   1.185   4.897 -0.3598  1.4373  2.1018
 1928SOL    HW212390   8.269   1.167   4.865  0.1866  0.1849  0.1364
 1929SOL     OW12391  12.613   5.444   3.003  0.4909 -0.1486  0.2921
 1929SOL    HW112392  12.523   5.475   3.011 -0.2670 -1.6562 -1.5270
 1929SOL    HW212393  12.654   5.505   2.941 -0.3486 -1.3415 -1.5456
 1930SOL     OW12394   4.646   9.051   8.075  0.6060  0.2282  0.2893
 1930SOL    HW112395   4.647   9.104   7.994  0.8619 -0.8766 -0.4482
 1930SOL    HW212396   4.718   8.989   8.064 -0.4728 -1.1257  0.5525
 1931SOL     OW12397   6.672   3.736  10.523 -0.0600 -0.0794  0.4884
 1931SOL    HW112398   6.765   3.727  10.503  0.0855  1.3431  0.4426
 1931SOL    HW212399   6.662   3.827  10.553 -1.9681  0.8636 -2.5584
 1932SOL     OW12400   8.438   9.241   1.519  0.1876  0.1507 -0.5113
 1932SOL    HW112401   8.392   9.168   1.561  2.6823 -0.7673  0.8069
 1932SOL    HW212402   8.423   9.229   1.426 -0.1704 -1.5504 -0.2539
 1933SOL     OW12403   8.728  10.811  12.413  0.3538 -0.2078 -0.2999
 1933SOL    HW112404   8.695  10.771  12.333 -1.3422  1.6490 -0.6130
 1933SOL    HW212405   8.780  10.886  12.383 -0.0000  0.2935  0.3104
 1934SOL     OW12406   5.827   3.431   3.746  0.5315  0.0637 -0.6706
 1934SOL    HW112407   5.767   3.491   3.790 -0.2469 -0.7309 -0.6171
 1934SOL    HW212408   5.878   3.392   3.817  0.3352 -0.0813 -0.6069
 1935SOL     OW12409   0.572  11.971   1.436 -0.0332 -0.2376 -0.6088
 1935SOL    HW112410   0.487  11.974   1.480 -0.4651 -1.7768 -1.2697
 1935SOL    HW212411   0.598  12.063   1.427 -0.4384  0.1803  1.8230
 1936SOL     OW12412   5.522   9.628   2.749 -0.6677  0.7497 -0.4109
 1936SOL    HW112413   5.519   9.610   2.843  1.2362 -0.0649 -0.4645
 1936SOL    HW212414   5.458   9.698   2.737 -0.9281  0.9142  1.4960
 1937SOL     OW12415   9.383   4.247   9.490 -0.3009  0.1968  0.7711
 1937SOL    HW112416   9.414   4.203   9.569 -0.1011 -2.2756 -0.5887
 1937SOL    HW212417   9.389   4.181   9.421  0.2488  2.4421 -1.5192
 1938SOL     OW12418   3.663  11.483   9.753  0.1103 -0.1794 -0.2812
 1938SOL    HW112419   3.674  11.572   9.787  0.3718 -0.1800 -0.3570
 1938SOL    HW212420   3.674  11.426   9.829  1.8466 -0.2419 -0.5422
 1939SOL     OW12421   9.673   6.063   2.572 -0.2470  0.3189  0.2485
 1939SOL    HW112422   9.639   5.977   2.598  0.8462 -1.0495 -2.5135
 1939SOL    HW212423   9.715   6.048   2.488  1.2973  3.3066  0.3678
 1940SOL     OW12424   1.619  10.525   7.178  0.5908 -0.4934 -0.0912
 1940SOL    HW112425   1.707  10.498   7.203  0.5873 -0.6710 -0.2657
 1940SOL    HW212426   1.571  10.443   7.166 -0.0406 -0.4018  1.5467
 1941SOL     OW12427   8.917  10.959   9.923 -0.5526 -0.2826 -0.0816
 1941SOL    HW112428   8.828  10.962   9.888  0.1547  1.2113 -1.8985
 1941SOL    HW212429   8.973  10.987   9.851  1.4547 -1.5307  0.8959
 1942SOL     OW12430   5.453  11.189  10.822  0.1424 -0.2193 -0.4393
 1942SOL    HW112431   5.373  11.162  10.867 -1.8236  2.6459 -1.9267
 1942SOL    HW212432   5.450  11.143  10.738 -0.0190  0.0038 -0.5555
 1943SOL     OW12433  12.719   4.958   9.769 -0.2448 -0.5702  0.3194
 1943SOL    HW112434  12.640   4.903   9.762  0.3742 -1.8734  2.5083
 1943SOL    HW212435  12.697   5.023   9.835  0.8125 -1.6033  1.7447
 1944SOL     OW12436   8.375  11.799   0.965  0.5045  0.2039 -0.3837
 1944SOL    HW112437   8.425  11.732   0.920  1.1143  0.5223 -0.1933
 1944SOL    HW212438   8.426  11.818   1.044  0.3585  0.9167 -0.4568
 1945SOL     OW12439   9.589   8.268  10.659 -0.1306  0.6811  0.1842
 1945SOL    HW112440   9.605   8.187  10.707  2.5656  0.3566 -1.0482
 1945SOL    HW212441   9.580   8.335  10.727  1.6853 -0.0528  1.2481
 1946SOL     OW12442   1.166   4.731   1.934  0.8670  0.6723  0.6089
 1946SOL    HW112443   1.187   4.728   1.841  0.9050 -1.4356  0.6435
 1946SOL    HW212444   1.083   4.779   1.939  0.3775 -0.0184 -0.6172
 1947SOL     OW12445   5.799   8.262   2.190 -0.6288  0.3768  0.2341
 1947SOL    HW112446   5.753   8.345   2.203 -0.3692  0.5725 -0.0900
 1947SOL    HW212447   5.875   8.284   2.136  0.2441  0.1882  1.3515
 1948SOL     OW12448   3.985  11.362   3.605  0.4600  0.0810  0.0586
 1948SOL    HW112449   4.028  11.430   3.657 -1.9797  0.0954  2.2652
 1948SOL    HW212450   3.976  11.400   3.518 -0.7903  2.6304  1.2157
 1949SOL     OW12451   6.520   4.644   5.218 -0.6560  0.4470 -0.0474
 1949SOL    HW112452   6.473   4.569   5.180  1.0709 -1.4771  1.3434
 1949SOL    HW212453   6.480   4.655   5.305  1.1649 -1.0944  1.0767
 1950SOL     OW12454   1.150   7.537   4.936  0.1880 -0.0997  0.2037
 1950SOL    HW112455   1.240   7.514   4.913  0.2803  0.1490  0.3162
 1950SOL    HW212456   1.158   7.617   4.989  0.0532 -1.0499  1.7461
 1951SOL     OW12457   6.532   7.147   1.866  0.0166  0.0052 -0.3247
 1951SOL    HW112458   6.496   7.235   1.858 -1.2819 -0.4011  0.7732
 1951SOL    HW212459   6.508   7.119   1.954  0.3045 -1.4927 -0.6958
 1952SOL     OW12460   0.014   5.886  11.201 -0.1525 -0.4048  0.2757
 1952SOL    HW112461   0.037   5.797  11.227 -0.5747  0.2233  3.2158
 1952SOL    HW212462   0.002   5.933  11.284 -1.3765  2.0254 -1.1435
 1953SOL     OW12463   7.099   7.918   3.312 -0.1605 -0.2166  0.2500
 1953SOL    HW112464   7.148   7.889   3.235 -0.8884  1.5426 -0.9377
 1953SOL    HW212465   7.037   7.847   3.329  2.2156 -2.2027  1.4003
 1954SOL     OW12466  12.645   6.605   5.469 -0.0639  0.0076  0.0577
 1954SOL    HW112467  12.596   6.681   5.501  0.2139  0.7330 -1.1843
 1954SOL    HW212468  12.727   6.607   5.518 -0.3686  0.0535  0.5761
 1955SOL     OW12469   7.093  12.293   6.106  0.1277  0.4874  0.1399
 1955SOL    HW112470   7.086  12.216   6.050  0.8339 -0.2489  1.0393
 1955SOL    HW212471   7.121  12.363   6.047  1.5271 -0.4266 -0.3355
 1956SOL     OW12472   4.641   3.888   6.770  0.0961  0.4560  0.2742
 1956SOL    HW112473   4.608   3.961   6.822  1.7795  1.1240  0.4692
 1956SOL    HW212474   4.714   3.852   6.822 -0.8319 -1.5482  0.2997
 1957SOL     OW12475   3.817  12.018  10.989 -0.2132  0.3912  0.1587
 1957SOL    HW112476   3.840  12.091  10.932 -1.7360  2.0886  1.6358
 1957SOL    HW212477   3.899  11.969  10.998  0.9559  2.1004 -0.5550
 1958SOL     OW12478   5.338   7.638   0.573 -0.0738  0.4701  0.1224
 1958SOL    HW112479   5.285   7.662   0.498 -0.7315  0.7263  0.6626
 1958SOL    HW212480   5.275   7.612   0.640  0.5203 -0.2316  0.4240
 1959SOL     OW12481   3.143   5.937   6.942 -0.1778 -0.1008  0.0404
 1959SOL    HW112482   3.145   5.849   6.906 -1.9253  0.4831 -1.6909
 1959SOL    HW212483   3.125   5.993   6.867 -1.3433  1.4925  1.4124
 1960SOL     OW12484  10.294   6.667   0.153 -0.4585 -0.3567  0.6485
 1960SOL    HW112485  10.340   6.728   0.210 -0.7348  1.1216 -0.6331
 1960SOL    HW212486  10.209   6.709   0.137 -1.1353 -1.6580  0.6750
 1961SOL     OW12487   0.520   9.927   7.656  0.1626  0.2127  0.0567
 1961SOL    HW112488   0.435   9.943   7.696 -0.0179 -1.8621  0.6399
 1961SOL    HW212489   0.578   9.906   7.729  0.8255  0.2158 -0.4539
 1962SOL     OW12490   3.448   6.882   3.312  0.0770 -0.2569  0.2336
 1962SOL    HW112491   3.355   6.902   3.323 -0.2126 -1.3460 -0.0904
 1962SOL    HW212492   3.493   6.944   3.369 -0.9965 -1.2752  2.3144
 1963SOL     OW12493   7.017   9.476   4.884 -0.1811  0.0333 -0.0594
 1963SOL    HW112494   6.926   9.449   4.896 -0.5219  0.9091 -0.5817
 1963SOL    HW212495   7.018   9.569   4.907  0.5785  0.0340 -0.0676
 1964SOL     OW12496   7.393   2.351  11.806 -0.4540  0.1723  0.6814
 1964SOL    HW112497   7.433   2.329  11.722 -2.2548  1.0280 -0.4544
 1964SOL    HW212498   7.432   2.436  11.829  0.9816 -0.6411  1.3888
 1965SOL     OW12499   7.569  10.638   5.988 -0.0389  0.0616  0.0431
 1965SOL    HW112500   7.520  10.649   5.907  0.9384 -0.4933 -0.6534
 1965SOL    HW212501   7.571  10.543   6.002  2.3149 -0.1129 -0.9519
 1966SOL     OW12502   9.937   9.500   8.393 -0.1672 -0.0763  0.1318
 1966SOL    HW112503   9.874   9.571   8.409 -0.9137 -0.4197 -1.1729
 1966SOL    HW212504  10.007   9.541   8.341  0.1916  0.0607  0.7109
 1967SOL     OW12505   8.778   9.753   5.802 -0.5087 -0.2505  0.1937
 1967SOL    HW112506   8.789   9.680   5.863  0.2758 -0.0961  0.2492
 1967SOL    HW212507   8.739   9.714   5.724 -0.2967 -0.6970  0.3080
 1968SOL     OW12508   4.213  11.231  10.089  0.7428 -0.2383 -0.3727
 1968SOL    HW112509   4.150  11.163  10.115  1.9630 -1.4034 -0.3375
 1968SOL    HW212510   4.295  11.183  10.075  1.7607  1.2912  0.0846
 1969SOL     OW12511   0.352   3.909   3.019  0.2815 -0.2108  0.3314
 1969SOL    HW112512   0.400   3.992   3.030 -0.4819  0.4649 -1.1380
 1969SOL    HW212513   0.421   3.842   3.019  1.0345  0.5374  0.3102
 1970SOL     OW12514   4.418   4.114  12.476 -0.1747  0.1829 -0.4682
 1970SOL    HW112515   4.417   4.209  12.481  1.4953  0.1790  0.5405
 1970SOL    HW212516   4.482   4.094  12.407 -0.6890 -0.2286 -0.8438
 1971SOL     OW12517   0.348   6.174   4.734 -0.6285 -0.0333 -0.3993
 1971SOL    HW112518   0.300   6.107   4.782 -1.7566  0.1171 -1.2657
 1971SOL    HW212519   0.369   6.241   4.799 -0.3679 -0.7517  0.2686
 1972SOL     OW12520   7.270   4.159  12.018  0.3435 -0.1073 -0.1634
 1972SOL    HW112521   7.233   4.246  12.037 -1.2102 -1.0580  1.4246
 1972SOL    HW212522   7.194   4.104  12.001  1.2564 -1.3460 -0.3369
 1973SOL     OW12523   2.471   9.226   3.837  0.4040 -0.4412 -0.2535
 1973SOL    HW112524   2.478   9.289   3.908  3.4137  0.3337 -1.1105
 1973SOL    HW212525   2.518   9.149   3.868 -0.3805 -1.0277 -0.4898
 1974SOL     OW12526   6.698   7.596   2.504 -0.3385  0.3258  0.1798
 1974SOL    HW112527   6.604   7.614   2.509 -0.1868  0.9497  1.1203
 1974SOL    HW212528   6.704   7.512   2.458 -1.4392 -0.4067  1.2848
 1975SOL     OW12529   0.410  11.289   4.832 -0.1024 -0.0405 -0.2589
 1975SOL    HW112530   0.381  11.202   4.860  1.6294 -0.4805  0.3120
 1975SOL    HW212531   0.496  11.274   4.793  0.3637  1.4618  0.1304
 1976SOL     OW12532  12.322   5.446   3.858 -0.2783 -0.2568 -0.7157
 1976SOL    HW112533  12.335   5.353   3.874 -0.4996 -0.5864 -2.2866
 1976SOL    HW212534  12.244   5.450   3.803 -1.4920  1.0222  0.9691
 1977SOL     OW12535  11.638   9.310  10.959  0.0402 -0.6300  0.1612
 1977SOL    HW112536  11.566   9.359  10.920 -1.2812 -0.0756  3.0310
 1977SOL    HW212537  11.597   9.230  10.992  1.1580 -1.2693  0.0183
 1978SOL     OW12538  12.595   8.629   5.156  0.0712 -0.3616  0.3165
 1978SOL    HW112539  12.677   8.606   5.111  0.7540 -0.0079  1.3640
 1978SOL    HW212540  12.607   8.719   5.185 -1.3133  0.2589 -0.8613
 1979SOL     OW12541   5.773   8.788   8.721 -0.2191  0.6288  0.2926
 1979SOL    HW112542   5.764   8.692   8.716 -0.5079  0.6128  1.0180
 1979SOL    HW212543   5.695   8.817   8.768 -0.0302  1.2043  0.2558
 1980SOL     OW12544   1.205   7.042   8.547  0.2842 -0.1030  0.3729
 1980SOL    HW112545   1.143   7.011   8.480  1.6574  0.5578 -1.2701
 1980SOL    HW212546   1.268   7.095   8.499  0.1427  2.2136  2.5286
 1981SOL     OW12547   9.615  10.346  10.371  0.1286 -0.5299  0.1748
 1981SOL    HW112548   9.629  10.272  10.430 -0.1840 -0.7054  0.0329
 1981SOL    HW212549   9.663  10.322  10.292  0.0985 -0.5448  0.1607
 1982SOL     OW12550   9.485  11.225   0.009  1.3741  0.3873  0.0624
 1982SOL    HW112551   9.435  11.143  -0.004  2.6387 -0.3894 -0.0439
 1982SOL    HW212552   9.449  11.285  -0.057  1.5736 -0.6324 -1.0101
 1983SOL     OW12553  11.299   1.407   3.695  0.1124  0.0638 -0.0192
 1983SOL    HW112554  11.281   1.344   3.766 -0.1653 -0.2188 -0.3396
 1983SOL    HW212555  11.277   1.492   3.733 -2.2503 -0.2782 -0.4871
 1984SOL     OW12556   1.095  11.367   4.869  0.0039  0.6644 -0.2986
 1984SOL    HW112557   1.165  11.319   4.827 -2.9428 -2.6027 -1.9865
 1984SOL    HW212558   1.094  11.335   4.959 -0.0770 -0.2675 -0.6219
 1985SOL     OW12559   9.515   4.257  10.664 -0.0563  0.5802 -0.4398
 1985SOL    HW112560   9.608   4.242  10.680 -0.4545  1.2080  3.5247
 1985SOL    HW212561   9.471   4.188  10.714 -1.6686  2.1900  0.4584
 1986SOL     OW12562   6.903   9.876   9.541  0.3016 -0.3842  0.1296
 1986SOL    HW112563   6.873   9.845   9.627 -0.3050 -1.3638 -0.4077
 1986SOL    HW212564   6.823   9.905   9.498  0.8895  2.3371  0.7216
 1987SOL     OW12565   6.453   2.395  11.290  0.3589 -0.2939  0.2156
 1987SOL    HW112566   6.403   2.341  11.352  0.2019 -0.5108 -0.0936
 1987SOL    HW212567   6.539   2.355  11.287  0.3812 -0.2534  0.3331
 1988SOL     OW12568   8.330   6.136  12.062  0.1627 -0.2195 -0.2011
 1988SOL    HW112569   8.294   6.194  12.129  0.4370 -1.9152  1.5266
 1988SOL    HW212570   8.387   6.192  12.010  0.3959  1.0844  1.3620
 1989SOL     OW12571   4.268   8.572   5.350  0.3317 -0.0962 -0.1350
 1989SOL    HW112572   4.326   8.544   5.279 -1.1180 -0.3027 -1.3047
 1989SOL    HW212573   4.246   8.663   5.328 -0.1947 -0.1875 -0.0056
 1990SOL     OW12574   6.170  11.343   9.761  0.5701  0.3280  0.1141
 1990SOL    HW112575   6.175  11.395   9.681  0.2288 -1.6623 -1.2753
 1990SOL    HW212576   6.261  11.324   9.783  0.6274 -0.3914 -0.7061
 1991SOL     OW12577   4.365  10.905   0.137 -0.5219 -0.5593 -0.1066
 1991SOL    HW112578   4.320  10.961   0.201 -1.6676 -0.3242 -1.0737
 1991SOL    HW212579   4.434  10.862   0.187 -0.7223  0.4014  1.0508
 1992SOL     OW12580   7.616   9.277   6.763 -0.0997  0.3584  0.0508
 1992SOL    HW112581   7.656   9.275   6.849 -1.2616  2.0542  0.6851
 1992SOL    HW212582   7.522   9.268   6.779 -0.3276  0.5267 -1.0429
 1993SOL     OW12583   4.101   2.749   0.392 -0.6532 -0.2592  0.0193
 1993SOL    HW112584   4.123   2.751   0.298  1.7345  0.3030  0.5301
 1993SOL    HW212585   4.159   2.683   0.429  0.1905  1.2285  1.4730
 1994SOL     OW12586   8.242   2.055   7.092  0.7030 -0.1227  0.1403
 1994SOL    HW112587   8.258   2.041   6.999 -1.5553  1.4187 -0.5633
 1994SOL    HW212588   8.206   1.973   7.124  0.6985 -0.3936 -0.5568
 1995SOL     OW12589   9.476   8.905   2.666 -0.5026  0.2465 -0.8302
 1995SOL    HW112590   9.392   8.868   2.694 -0.7722 -0.1689 -2.0960
 1995SOL    HW212591   9.520   8.928   2.747 -0.9601 -1.4992 -0.0269
 1996SOL     OW12592   2.319  10.446   1.885  0.4014  0.6500 -0.0909
 1996SOL    HW112593   2.238  10.496   1.873 -0.3172 -0.5027 -0.2007
 1996SOL    HW212594   2.313  10.375   1.821  1.0517  0.0013  0.5545
 1997SOL     OW12595   4.990   3.676   3.748 -0.5227  0.0222 -0.0190
 1997SOL    HW112596   5.011   3.769   3.747 -1.1544  0.1628 -1.4991
 1997SOL    HW212597   5.052   3.636   3.687 -1.2592 -0.2864 -0.5792
 1998SOL     OW12598   9.287   0.401  12.762  0.5528 -0.2429  0.1588
 1998SOL    HW112599   9.347   0.376  12.833  1.8428 -0.6214 -1.0154
 1998SOL    HW212600   9.319   0.487  12.733 -0.9980  0.6956  1.1001
 1999SOL     OW12601   8.301   7.642  11.631 -0.7045 -0.2385 -0.5298
 1999SOL    HW112602   8.374   7.677  11.682 -1.4526  0.5387  0.0368
 1999SOL    HW212603   8.224   7.690  11.662 -1.4125 -0.7940 -1.3550
 2000SOL     OW12604   0.456   0.456  12.721  0.0829  0.3625  0.1069
 2000SOL    HW112605   0.522   0.404  12.768 -0.2445  1.3961  1.7747
 2000SOL    HW212606   0.388   0.472  12.786 -1.0829  0.6376 -1.1518
 2001SOL     OW12607   7.392   1.264   9.458  0.1276  0.3605  0.3793
 2001SOL    HW112608   7.353   1.332   9.402 -1.4012 -0.2716  0.6222
 2001SOL    HW212609   7.371   1.182   9.413 -0.9396 -0.1419  1.7499
 2002SOL     OW12610   8.714   4.264  10.288  0.1425 -0.3034  0.5535
 2002SOL    HW112611   8.631   4.311  10.279  0.3346 -0.0984 -0.1904
 2002SOL    HW212612   8.707   4.191  10.227  1.1095  0.6004 -0.7115
 2003SOL     OW12613   3.302   6.722   6.320 -0.1522 -0.4987 -0.3763
 2003SOL    HW112614   3.354   6.741   6.242 -0.8875  0.5927 -0.6158
 2003SOL    HW212615   3.213   6.713   6.287 -0.3943 -0.5181  0.2786
 2004SOL     OW12616   7.952   1.256  10.030  0.0113  0.1584 -0.4106
 2004SOL    HW112617   7.973   1.172   9.989  0.9492 -0.5598  1.4377
 2004SOL    HW212618   8.017   1.317   9.994 -1.4194  0.4758 -2.7020
 2005SOL     OW12619   8.171   6.279  10.116 -0.5773  0.4004  0.2835
 2005SOL    HW112620   8.232   6.349  10.090 -0.6596 -0.4616 -2.6012
 2005SOL    HW212621   8.131   6.311  10.196  1.3700  2.4191  0.5685
 2006SOL     OW12622   8.328   9.207   8.693  0.0992 -0.1571  0.4321
 2006SOL    HW112623   8.352   9.116   8.679 -0.6677 -0.4755  1.0425
 2006SOL    HW212624   8.289   9.208   8.781  0.2191  0.7815  0.4881
 2007SOL     OW12625   4.391   7.450   7.708  0.2098 -0.0108 -0.4677
 2007SOL    HW112626   4.459   7.485   7.765 -1.7792  0.5343  1.7421
 2007SOL    HW212627   4.417   7.359   7.693  2.3305  0.6569 -1.2931
 2008SOL     OW12628   7.591   7.809  12.740 -0.3437  0.0977 -0.1247
 2008SOL    HW112629   7.630   7.813  12.827 -1.0695 -0.7885  0.2616
 2008SOL    HW212630   7.663   7.783  12.682  0.1854  0.8857  0.1679
 2009SOL     OW12631   5.464  10.451   3.226 -0.0614  0.1457 -0.0592
 2009SOL    HW112632   5.410  10.372   3.227  0.4236 -0.2249 -0.9906
 2009SOL    HW212633   5.446  10.491   3.141  0.1092  0.7470  0.1825
 2010SOL     OW12634   5.538   3.872   3.070 -0.2450 -0.0164 -0.0388
 2010SOL    HW112635   5.585   3.790   3.055 -0.1665 -0.0456  0.3541
 2010SOL    HW212636   5.525   3.908   2.982 -1.1020 -0.9037 -0.2952
 2011SOL     OW12637   1.836  10.764   5.514  0.2251  0.1397  0.1086
 2011SOL    HW112638   1.766  10.717   5.560  0.1798  0.5059  0.4202
 2011SOL    HW212639   1.793  10.805   5.440 -0.0026  0.8174  0.6063
 2012SOL     OW12640   2.176   4.389   5.762 -0.1023 -0.1367  0.0108
 2012SOL    HW112641   2.082   4.376   5.779 -0.4507 -1.2747 -2.3615
 2012SOL    HW212642   2.208   4.302   5.737  1.4851  0.3477  0.2391
 2013SOL     OW12643   6.503   0.590   2.588  0.0722 -0.0374 -0.2499
 2013SOL    HW112644   6.473   0.533   2.659 -1.1995  1.7289  0.6960
 2013SOL    HW212645   6.442   0.571   2.516 -0.3632  0.1405  0.0682
 2014SOL     OW12646   9.778   1.457   0.504  0.0928 -0.1163 -0.5504
 2014SOL    HW112647   9.873   1.455   0.513  0.2167  0.0391 -1.7113
 2014SOL    HW212648   9.762   1.477   0.412 -1.0661 -0.5062 -0.4609
 2015SOL     OW12649   7.238   6.773   8.884 -0.0487 -0.1023 -0.4357
 2015SOL    HW112650   7.198   6.691   8.856 -0.7984  0.1737 -0.1880
 2015SOL    HW212651   7.230   6.830   8.808 -1.7219  0.5168  0.1642
 2016SOL     OW12652   8.857  11.949  10.312  0.3956  0.7194  0.4526
 2016SOL    HW112653   8.761  11.938  10.311  0.1328  2.6343  0.9269
 2016SOL    HW212654   8.891  11.860  10.304 -1.4250 -0.0927  1.0980
 2017SOL     OW12655   5.930   2.178   3.623 -0.0276  0.2620  0.2537
 2017SOL    HW112656   5.960   2.102   3.573  2.3757  2.5636 -2.1443
 2017SOL    HW212657   5.837   2.184   3.605  0.3230 -0.3663 -2.1151
 2018SOL     OW12658  11.013   9.825   4.896  0.5434  0.3308  0.3524
 2018SOL    HW112659  10.981   9.871   4.818  0.3287 -0.4980 -0.0569
 2018SOL    HW212660  10.953   9.751   4.907  0.6143  0.3977  1.2646
 2019SOL     OW12661   2.776  10.465   0.285  0.0213  0.0266  0.1950
 2019SOL    HW112662   2.708  10.507   0.232  0.4924  1.2187  0.5086
 2019SOL    HW212663   2.735  10.384   0.315 -0.6764 -0.0945 -0.9851
 2020SOL     OW12664   6.110   3.430   6.859  0.8108 -0.6408  0.0981
 2020SOL    HW112665   6.194   3.404   6.821  0.9448  0.9151 -0.7448
 2020SOL    HW212666   6.092   3.516   6.822 -0.5326 -0.3661  1.2827
 2021SOL     OW12667   7.083   1.759  10.335 -0.3283  0.3098  0.1752
 2021SOL    HW112668   7.082   1.804  10.251 -1.4823  0.8862  0.4668
 2021SOL    HW212669   7.067   1.667  10.313 -0.8289  0.4857 -0.2357
 2022SOL     OW12670   4.295   2.214   6.002  0.2717  0.0535 -0.6652
 2022SOL    HW112671   4.276   2.279   5.935 -1.3203 -0.0791 -0.3866
 2022SOL    HW212672   4.209   2.183   6.031  0.8147  0.8191  2.1259
 2023SOL     OW12673   8.907   3.796   1.035 -0.0576 -0.0582  0.2388
 2023SOL    HW112674   8.942   3.714   1.072 -1.4294  0.0256  1.8044
 2023SOL    HW212675   8.891   3.775   0.943 -2.0559 -2.1712  0.9688
 2024SOL     OW12676  11.408   8.777   5.955 -0.3290  0.1107  0.0463
 2024SOL    HW112677  11.482   8.748   5.903 -0.3541 -0.4239  0.3015
 2024SOL    HW212678  11.432   8.865   5.984 -0.1137  0.2240 -0.4709
 2025SOL     OW12679   5.694   1.376   8.983 -0.3826 -0.0377 -0.0954
 2025SOL    HW112680   5.604   1.351   8.963 -0.2847 -0.1785 -0.3663
 2025SOL    HW212681   5.694   1.392   9.078 -0.4944 -0.8661  0.0531
 2026SOL     OW12682  10.638   3.461   0.337 -0.0841  0.1047  0.3488
 2026SOL    HW112683  10.731   3.450   0.314  0.0128  0.3737  0.5982
 2026SOL    HW212684  10.628   3.410   0.418  0.5238  2.2665  1.8825
 2027SOL     OW12685   1.491   4.339  11.925 -0.2627 -0.1927  0.3179
 2027SOL    HW112686   1.437   4.406  11.966 -0.4075  0.7231 -1.2553
 2027SOL    HW212687   1.562   4.323  11.988 -1.2680  0.0334  1.5384
 2028SOL     OW12688  12.655   1.417   5.365  0.2426 -0.6103 -0.4586
 2028SOL    HW112689  12.699   1.394   5.283  1.9164 -1.6191  0.6588
 2028SOL    HW212690  12.596   1.344   5.383 -0.0100 -0.4618 -0.6878
 2029SOL     OW12691   0.751   7.799   5.647 -0.1097 -0.0484 -0.1671
 2029SOL    HW112692   0.696   7.854   5.592 -1.6763 -0.8346  0.5350
 2029SOL    HW212693   0.738   7.834   5.736  1.4087  0.4366 -0.1127
 2030SOL     OW12694   4.577  11.206   2.267  0.0402  0.3621  0.4294
 2030SOL    HW112695   4.546  11.290   2.302 -0.3760  0.3342  0.1352
 2030SOL    HW212696   4.672  11.210   2.276  0.1473  1.4828 -0.9405
 2031SOL     OW12697   1.036   3.226  10.792  0.2233 -0.1585  0.1477
 2031SOL    HW112698   1.015   3.198  10.881  1.2180 -2.6975 -0.3160
 2031SOL    HW212699   1.126   3.195  10.778  0.4636  1.1248 -1.4024
 2032SOL     OW12700  11.977   2.098   9.502 -0.0404 -0.3642 -0.6154
 2032SOL    HW112701  11.906   2.034   9.507  1.3471 -2.0142 -1.0627
 2032SOL    HW212702  11.989   2.113   9.408 -0.8732  1.1944 -0.4933
 2033SOL     OW12703   9.933   3.836   6.996  0.3404  0.1537  0.0636
 2033SOL    HW112704  10.017   3.876   7.020  1.3884 -2.2667  0.6663
 2033SOL    HW212705   9.924   3.762   7.056 -1.4008 -0.6656 -1.1416
 2034SOL     OW12706  10.576   1.664   0.712  0.4102 -0.5174 -0.1595
 2034SOL    HW112707  10.560   1.720   0.788 -0.6338  0.6819 -1.2086
 2034SOL    HW212708  10.664   1.629   0.726  1.4021  1.9325  0.2551
 2035SOL     OW12709   3.342   3.790   2.867 -0.1546  0.2468  0.1078
 2035SOL    HW112710   3.376   3.751   2.786 -1.1485 -1.6654  0.5595
 2035SOL    HW212711   3.360   3.884   2.857  0.6022 -0.0501 -1.9008
 2036SOL     OW12712   7.930   1.136   0.516  0.0767 -0.0460  0.2374
 2036SOL    HW112713   8.005   1.129   0.458  1.0431  1.4177  1.2365
 2036SOL    HW212714   7.898   1.226   0.503 -1.0866 -0.4312  0.3114
 2037SOL     OW12715  10.718   3.170   0.159  0.2239  0.8458  0.2159
 2037SOL    HW112716  10.639   3.205   0.200  0.4081  1.5266 -0.0110
 2037SOL    HW212717  10.688   3.131   0.077  0.3533  2.6265 -0.7123
 2038SOL     OW12718   4.720   2.119   6.291  0.2776  0.6149  0.4462
 2038SOL    HW112719   4.651   2.096   6.229  0.7790 -1.0842  0.4655
 2038SOL    HW212720   4.686   2.091   6.376  0.4876  0.9266  0.6367
 2039SOL     OW12721   2.486   7.963   8.884  0.0606  0.2576 -0.6096
 2039SOL    HW112722   2.518   7.893   8.828  1.0678  0.3872 -0.2224
 2039SOL    HW212723   2.414   8.003   8.835  0.7644  0.2210 -1.7110
 2040SOL     OW12724  10.208   8.421   1.168  0.0088  0.6550  0.0525
 2040SOL    HW112725  10.126   8.434   1.121  0.0607  2.0394  0.2972
 2040SOL    HW212726  10.276   8.432   1.102  0.0186 -2.5794 -0.6099
 2041SOL     OW12727  11.605  11.516   6.626  0.3274  0.0615 -0.6058
 2041SOL    HW112728  11.531  11.479   6.673 -0.4940  1.1276 -1.0244
 2041SOL    HW212729  11.619  11.457   6.552  2.3507 -2.2842  1.4686
 2042SOL     OW12730   6.656   5.704  10.441  0.0630 -0.4236  0.4002
 2042SOL    HW112731   6.568   5.741  10.447  0.3802  0.3553  0.3361
 2042SOL    HW212732   6.649   5.618  10.483 -0.9196 -0.7136 -0.3243
 2043SOL     OW12733   1.990   7.053   0.087  0.7352 -0.7261 -0.4662
 2043SOL    HW112734   1.937   7.094   0.019  0.6807 -1.1218 -0.6666
 2043SOL    HW212735   2.049   7.122   0.116 -0.4044 -0.0444  0.3047
 2044SOL     OW12736   5.610   5.274   6.738  0.1560 -0.4715  0.1267
 2044SOL    HW112737   5.565   5.190   6.729 -0.9887  0.2003 -0.6990
 2044SOL    HW212738   5.576   5.310   6.821  0.2782 -0.6131  0.2377
 2045SOL     OW12739   0.184   6.694   5.343 -0.3976 -0.4673 -0.2755
 2045SOL    HW112740   0.133   6.614   5.326 -0.4624 -0.4372 -0.2234
 2045SOL    HW212741   0.246   6.668   5.411 -1.2805 -0.1302  0.6829
 2046SOL     OW12742  12.190   2.480   4.405 -0.4865 -0.1343 -0.6247
 2046SOL    HW112743  12.194   2.550   4.339  0.4828  1.0076  0.5896
 2046SOL    HW212744  12.102   2.489   4.443 -0.3925  0.3877 -0.5242
 2047SOL     OW12745   9.205   0.739   4.155  0.2372 -0.1639  0.3568
 2047SOL    HW112746   9.223   0.770   4.244 -0.8386 -0.6672  0.7695
 2047SOL    HW212747   9.129   0.790   4.127  1.3964  0.9935 -0.8399
 2048SOL     OW12748   7.249   9.965   3.046 -0.3289 -0.0557  0.1726
 2048SOL    HW112749   7.232   9.880   3.086  0.8153 -0.1620  0.4895
 2048SOL    HW212750   7.231  10.028   3.116 -1.1666 -0.0356 -0.0595
 2049SOL     OW12751  10.339   7.797   2.936  0.6989  0.5068 -0.3383
 2049SOL    HW112752  10.336   7.888   2.906 -0.4025  0.3829 -0.6514
 2049SOL    HW212753  10.257   7.784   2.982  1.6701  0.2144  1.3966
 2050SOL     OW12754   3.679   3.649   8.749 -0.5578 -0.8781 -0.0894
 2050SOL    HW112755   3.773   3.665   8.750 -0.5654 -0.8555  0.4850
 2050SOL    HW212756   3.654   3.657   8.656 -0.3048  0.9130 -0.0343
 2051SOL     OW12757   0.539   5.703   7.349 -0.0170 -0.3261 -0.5682
 2051SOL    HW112758   0.609   5.760   7.379 -0.7978 -0.3131  1.4176
 2051SOL    HW212759   0.575   5.614   7.358  0.8006 -0.2430 -2.5790
 2052SOL     OW12760   7.442   1.370   2.890 -0.7315 -0.2370  0.0780
 2052SOL    HW112761   7.448   1.275   2.883 -0.7424 -0.1605 -1.2316
 2052SOL    HW212762   7.349   1.388   2.900 -0.7020 -0.3796  0.6030
 2053SOL     OW12763   1.919  12.749   7.626  0.0003 -0.0752 -0.0227
 2053SOL    HW112764   1.824  12.751   7.613  0.0116  1.2036 -0.0057
 2053SOL    HW212765   1.933  12.797   7.708  0.8944  2.7310 -1.6882
 2054SOL     OW12766   9.697   8.700  10.233  0.2612 -0.0130  0.6285
 2054SOL    HW112767   9.679   8.607  10.236  1.0507 -0.2321 -0.8647
 2054SOL    HW212768   9.614   8.741  10.209 -0.0030 -0.3464  0.9711
 2055SOL     OW12769  11.787   5.348   2.552  0.2164 -0.3599  0.0041
 2055SOL    HW112770  11.869   5.389   2.524  0.2403 -0.6243 -0.3049
 2055SOL    HW212771  11.721   5.415   2.536  0.4977  0.2631  1.2294
 2056SOL     OW12772   1.377   9.980   8.911 -0.2218  0.5183 -0.0097
 2056SOL    HW112773   1.417   9.902   8.873 -0.1190  0.8829 -0.6815
 2056SOL    HW212774   1.434  10.002   8.985 -1.2899 -1.0792  1.3537
 2057SOL     OW12775   5.138  12.437   1.611  0.6603  0.0421 -0.9117
 2057SOL    HW112776   5.211  12.381   1.636  0.7977  0.1199 -1.1318
 2057SOL    HW212777   5.117  12.410   1.521 -1.7182 -2.2672  0.1950
 2058SOL     OW12778   8.338   1.259  11.006 -0.3505 -0.0487 -0.0200
 2058SOL    HW112779   8.342   1.331  11.069 -0.4006  1.3101 -1.4953
 2058SOL    HW212780   8.247   1.257  10.977 -0.3739 -0.7935  0.0776
 2059SOL     OW12781   5.094   0.889   9.524  0.5145  0.3326  0.1621
 2059SOL    HW112782   5.149   0.840   9.463  0.4988  0.6953 -0.1432
 2059SOL    HW212783   5.074   0.971   9.479  3.0447  2.0001  1.8020
 2060SOL     OW12784   5.130   5.837   9.545  0.0778  0.0335 -0.3039
 2060SOL    HW112785   5.101   5.791   9.466  0.9991 -1.0546 -0.0387
 2060SOL    HW212786   5.074   5.914   9.550 -0.0459  0.0886 -1.9838
 2061SOL     OW12787   6.210   9.821   9.614  0.4585 -0.2589  0.4237
 2061SOL    HW112788   6.172   9.751   9.561  1.0006 -0.4727  0.3100
 2061SOL    HW212789   6.302   9.825   9.587  0.4037  0.5763  0.3499
 2062SOL     OW12790   3.725   8.196   3.044 -0.9948  0.2720 -0.6275
 2062SOL    HW112791   3.750   8.103   3.039 -0.1705  0.4641 -0.3628
 2062SOL    HW212792   3.804   8.243   3.015 -0.2326  0.9864  2.2759
 2063SOL     OW12793   3.475   5.687   9.520  0.4085 -0.2196 -0.1732
 2063SOL    HW112794   3.548   5.712   9.464 -0.1939  1.7562 -0.1510
 2063SOL    HW212795   3.405   5.662   9.460  0.8594 -1.4731 -0.2051
 2064SOL     OW12796   1.009   3.261  10.267  0.5397  0.6361 -0.2390
 2064SOL    HW112797   1.060   3.181  10.257 -0.3355  0.2196 -1.5548
 2064SOL    HW212798   0.971   3.255  10.355  1.5314  0.2431  0.1688
 2065SOL     OW12799   5.627   6.364   5.553 -0.3614  0.9264  0.0622
 2065SOL    HW112800   5.591   6.275   5.549 -0.3351  0.8526  1.2054
 2065SOL    HW212801   5.698   6.358   5.617 -0.5368  1.8302  0.3532
 2066SOL     OW12802   0.114   1.974   6.061  0.6356  0.2168 -0.5948
 2066SOL    HW112803   0.024   1.984   6.095  0.7911 -1.6700  0.5489
 2066SOL    HW212804   0.103   1.969   5.966 -0.5871 -0.8686 -0.4254
 2067SOL     OW12805   9.770  12.511   2.703 -0.2368  0.0409 -0.5044
 2067SOL    HW112806   9.736  12.520   2.614 -1.7525  1.3776  0.1670
 2067SOL    HW212807   9.865  12.522   2.694 -0.5634  2.4104 -1.6812
 2068SOL     OW12808   4.723   5.925   7.451 -0.0803 -0.2235  0.4912
 2068SOL    HW112809   4.703   5.835   7.475  0.5422 -0.2619  0.8795
 2068SOL    HW212810   4.675   5.940   7.370 -0.9527 -0.5961  0.9287
 2069SOL     OW12811  10.514   7.870  10.686 -0.0736  0.3361  0.1911
 2069SOL    HW112812  10.569   7.897  10.612  0.4069  0.8163  0.7136
 2069SOL    HW212813  10.426   7.898  10.662 -0.4513 -1.8446 -1.3931
 2070SOL     OW12814   5.003   0.335   0.971  0.2869 -0.4383  0.5060
 2070SOL    HW112815   4.956   0.256   0.996  0.1964 -0.7767 -0.6856
 2070SOL    HW212816   5.055   0.310   0.895 -0.2530  0.7883 -0.3119
 2071SOL     OW12817  11.054   2.146  11.267 -0.1099  0.2947 -0.1632
 2071SOL    HW112818  11.049   2.127  11.173  0.8726 -1.9165  0.1783
 2071SOL    HW212819  11.031   2.064  11.310 -1.5056  1.5241  1.5959
 2072SOL     OW12820   0.949   5.632   2.354  0.0467 -0.1888  0.6679
 2072SOL    HW112821   0.862   5.593   2.355 -0.7359  1.0285 -2.9857
 2072SOL    HW212822   0.998   5.580   2.290  0.8849  1.1349  0.1875
 2073SOL     OW12823   5.636   3.480   2.739  0.2521 -0.4509  0.4501
 2073SOL    HW112824   5.729   3.480   2.716  0.3117 -0.2878  0.6915
 2073SOL    HW212825   5.614   3.387   2.749  0.4794 -0.4724  0.7572
 2074SOL     OW12826   2.564   8.376   1.091  0.2875 -0.1760 -0.0585
 2074SOL    HW112827   2.653   8.403   1.071  0.6290 -1.6842 -0.6772
 2074SOL    HW212828   2.558   8.379   1.187  1.4804 -1.4470  0.0813
 2075SOL     OW12829   4.938   9.918   1.158 -0.7220 -0.3934  0.4543
 2075SOL    HW112830   4.970   9.900   1.247  1.0791 -1.8705 -0.4218
 2075SOL    HW212831   4.913   9.832   1.123  1.7135 -0.4071 -1.5417
 2076SOL     OW12832  12.477  12.294   0.826 -0.1896  0.0486 -0.2083
 2076SOL    HW112833  12.427  12.321   0.903  1.2784  0.3649  0.6703
 2076SOL    HW212834  12.548  12.358   0.820  2.6933 -2.7155  1.2328
 2077SOL     OW12835  11.897   6.320   9.958 -0.2395 -0.1063 -0.4750
 2077SOL    HW112836  11.855   6.248  10.005  0.1299  1.2112  2.0780
 2077SOL    HW212837  11.990   6.297   9.957  0.1403  0.9847  1.8747
 2078SOL     OW12838  12.320   3.297  12.194  0.0228 -0.2859 -0.1006
 2078SOL    HW112839  12.265   3.375  12.195 -0.4658 -0.6216  0.0384
 2078SOL    HW212840  12.407   3.328  12.216 -0.6020 -0.0966  2.3418
 2079SOL     OW12841   6.032  10.409  12.625 -0.0187 -0.0755 -0.4959
 2079SOL    HW112842   6.006  10.370  12.709  0.6040  0.4195 -0.0617
 2079SOL    HW212843   5.952  10.410  12.573 -0.2276 -1.2088 -0.2412
 2080SOL     OW12844   2.519   5.430  12.098 -0.1887  0.5316 -0.1887
 2080SOL    HW112845   2.429   5.455  12.077 -0.4365 -0.2991 -0.1575
 2080SOL    HW212846   2.553   5.505  12.147 -0.7734  0.9665 -0.4212
 2081SOL     OW12847   1.394  12.279   4.372 -0.6611  0.0074  0.1740
 2081SOL    HW112848   1.452  12.205   4.388  1.7107  1.7534  0.0406
 2081SOL    HW212849   1.406  12.300   4.280 -0.4458  1.2478  0.4712
 2082SOL     OW12850  10.422   2.660   4.748  0.2027 -0.1637  0.6021
 2082SOL    HW112851  10.514   2.633   4.751 -0.1985 -1.6307  0.6402
 2082SOL    HW212852  10.375   2.581   4.718 -1.1387  0.2689  1.4815
 2083SOL     OW12853   4.772  10.711  11.934  0.1076 -0.2485  0.6699
 2083SOL    HW112854   4.703  10.707  11.867  0.4513 -2.6967  0.3663
 2083SOL    HW212855   4.742  10.650  12.002  1.6415 -0.8661  0.8304
 2084SOL     OW12856   0.162   8.118   6.715  0.0310 -0.4807 -0.3947
 2084SOL    HW112857   0.146   8.024   6.728  0.6948 -0.6645 -0.8375
 2084SOL    HW212858   0.143   8.158   6.799 -0.0025 -1.0552 -0.1256
 2085SOL     OW12859   0.441   8.759   1.245 -0.2197 -0.0787  0.1454
 2085SOL    HW112860   0.392   8.700   1.188 -0.1185 -0.9926  0.9681
 2085SOL    HW212861   0.376   8.819   1.280 -0.1383  1.1024 -1.6338
 2086SOL     OW12862  12.455   2.867   1.683 -0.4713  0.5041  0.4786
 2086SOL    HW112863  12.411   2.786   1.708 -0.0049 -0.2682 -1.0231
 2086SOL    HW212864  12.384   2.930   1.669 -0.9290 -0.0131  0.4542
 2087SOL     OW12865   1.998   1.945   0.366 -0.3638 -0.2274  0.9398
 2087SOL    HW112866   1.941   1.888   0.315 -1.2284  0.2307  1.3710
 2087SOL    HW212867   1.942   2.018   0.393  0.4496  0.2828  1.2998
 2088SOL     OW12868   1.320   5.028   8.873  0.0528 -0.7341 -0.5813
 2088SOL    HW112869   1.369   5.082   8.935  0.5294  0.4420 -1.9242
 2088SOL    HW212870   1.356   5.051   8.787 -1.9638 -0.8049 -1.5110
 2089SOL     OW12871  10.975   9.896  11.035 -0.7361  0.3435 -0.6523
 2089SOL    HW112872  10.891   9.898  10.989 -2.4430  0.9740  2.2458
 2089SOL    HW212873  10.983   9.983  11.073  0.3527 -0.2665  0.5785
 2090SOL     OW12874   5.993   1.114  10.524 -0.5202 -0.0074  0.4536
 2090SOL    HW112875   5.957   1.100  10.612  0.3481  0.6052  0.9247
 2090SOL    HW212876   5.930   1.072  10.465 -0.7464 -1.0675  1.4130
 2091SOL     OW12877   4.621   2.153  11.955 -0.1138 -0.5151  0.1064
 2091SOL    HW112878   4.698   2.181  11.906 -0.7700  1.7905  0.2607
 2091SOL    HW212879   4.615   2.215  12.028  0.1959 -3.1464  2.5498
 2092SOL     OW12880   1.981   5.491   4.863 -0.1924 -0.4289  0.1324
 2092SOL    HW112881   1.981   5.563   4.800 -3.7830 -1.5613 -1.3918
 2092SOL    HW212882   1.924   5.521   4.934 -1.1592 -1.4301 -0.1870
 2093SOL     OW12883  11.124  11.791   0.060  0.0825 -0.3358 -0.1159
 2093SOL    HW112884  11.030  11.789   0.077  0.1079 -1.3821 -0.0161
 2093SOL    HW212885  11.161  11.834   0.137 -0.2161 -1.0245  0.4308
 2094SOL     OW12886   6.299   6.715   8.645 -0.0652 -0.1236 -0.6427
 2094SOL    HW112887   6.366   6.675   8.701 -0.2442  2.0974  1.3175
 2094SOL    HW212888   6.216   6.684   8.681 -0.1710  1.0863  0.2404
 2095SOL     OW12889   6.291  11.704   9.334 -0.8144 -0.4191  0.1722
 2095SOL    HW112890   6.273  11.763   9.408  0.7982 -0.3022  0.5038
 2095SOL    HW212891   6.337  11.759   9.270 -0.4616 -0.9960 -0.0783
 2096SOL     OW12892  12.716   2.870  11.187 -0.2770  0.1702  0.0391
 2096SOL    HW112893  12.739   2.957  11.156  0.6492 -0.4544 -1.0823
 2096SOL    HW212894  12.644   2.841  11.130 -0.1820 -0.0333  0.0195
 2097SOL     OW12895   7.854   5.611   0.263  0.1917 -0.3773 -0.2002
 2097SOL    HW112896   7.774   5.638   0.220  0.5046 -0.7321 -1.0222
 2097SOL    HW212897   7.837   5.521   0.292  0.8961 -1.1582 -2.0289
 2098SOL     OW12898   6.154   7.980   9.234  0.3463 -0.2454 -0.3623
 2098SOL    HW112899   6.084   7.946   9.290  0.4000  0.7364  0.3152
 2098SOL    HW212900   6.208   8.034   9.291  0.7310  0.3311 -1.2390
 2099SOL     OW12901  12.611   0.242   9.275  0.6084 -0.2453  0.4303
 2099SOL    HW112902  12.595   0.312   9.338 -0.8747 -0.1101 -0.0606
 2099SOL    HW212903  12.527   0.197   9.266  1.4971 -2.0378  0.6399
 2100SOL     OW12904   0.321  11.410  10.771 -0.1754 -0.0039  0.2553
 2100SOL    HW112905   0.264  11.430  10.697  0.7620  0.2744 -0.3951
 2100SOL    HW212906   0.382  11.344  10.739  1.1311  1.1172  0.3309
 2101SOL     OW12907   9.490   1.528   1.608  0.4536 -0.8037  0.3193
 2101SOL    HW112908   9.559   1.463   1.596 -0.3103 -1.8999  1.5004
 2101SOL    HW212909   9.469   1.524   1.702 -2.6284 -2.0820 -0.2939
 2102SOL     OW12910   3.902   5.214   9.570  0.1004 -0.1647  0.5200
 2102SOL    HW112911   3.953   5.270   9.512 -0.0592  0.2980  0.8198
 2102SOL    HW212912   3.848   5.275   9.621 -1.2459 -0.6554 -0.2498
 2103SOL     OW12913   3.262   3.595   6.032  0.1419  0.3684  0.6275
 2103SOL    HW112914   3.217   3.679   6.039 -1.4786 -0.4425  0.4457
 2103SOL    HW212915   3.205   3.534   6.079 -0.0709 -1.1081 -1.4075
 2104SOL     OW12916   2.970   7.406   8.254 -0.1515  0.2819 -0.5044
 2104SOL    HW112917   2.994   7.498   8.258 -0.6236  0.3635  1.9862
 2104SOL    HW212918   3.050   7.362   8.225  0.5369  1.3461 -0.2631
 2105SOL     OW12919   7.607  11.984   5.243 -0.2146  0.3573 -0.6649
 2105SOL    HW112920   7.520  12.012   5.272  0.6699  0.9979  1.5808
 2105SOL    HW212921   7.656  12.066   5.233  0.4820 -0.0479 -0.6124
 2106SOL     OW12922   6.701   7.589   9.760 -0.4020 -0.2628 -0.0987
 2106SOL    HW112923   6.730   7.545   9.841 -1.5542 -0.6681  0.1056
 2106SOL    HW212924   6.666   7.518   9.706 -0.0585  0.0754 -0.7719
 2107SOL     OW12925   7.913   2.447   9.524 -0.0481 -0.3544 -0.3849
 2107SOL    HW112926   7.926   2.384   9.594 -0.4276 -0.5569 -0.4955
 2107SOL    HW212927   7.957   2.409   9.448  0.4064 -0.1117 -0.2498
 2108SOL     OW12928   1.052   4.150   2.439 -0.1322  0.3953  0.0723
 2108SOL    HW112929   1.094   4.102   2.368 -0.2766 -0.7883  0.7631
 2108SOL    HW212930   1.098   4.121   2.518 -1.6956 -0.3316  0.7593
 2109SOL     OW12931   5.515  10.208   4.448 -0.8210  0.2941  0.1038
 2109SOL    HW112932   5.431  10.245   4.422 -1.4097 -0.1205  1.3392
 2109SOL    HW212933   5.493  10.136   4.506  0.3875  0.3098  0.6171
 2110SOL     OW12934   2.745   0.702   0.284 -0.0549  1.0379 -0.0990
 2110SOL    HW112935   2.795   0.652   0.348 -0.2354 -0.4099 -1.0435
 2110SOL    HW212936   2.668   0.648   0.266  0.8696  0.4920 -2.8661
 2111SOL     OW12937   0.939   0.036  10.759  0.3312 -0.0705 -0.0800
 2111SOL    HW112938   0.935  -0.038  10.819  0.6960 -0.4856 -0.5517
 2111SOL    HW212939   0.867   0.093  10.786 -0.5949 -1.0717 -0.3112
 2112SOL     OW12940   3.392   6.837   9.325 -0.2097  0.0970  0.1964
 2112SOL    HW112941   3.475   6.873   9.292 -0.1102  0.5466  0.9377
 2112SOL    HW212942   3.337   6.913   9.341 -1.3074 -0.2386 -1.6129
 2113SOL     OW12943   2.016   2.488   6.306  0.3136  0.0183 -0.3426
 2113SOL    HW112944   2.039   2.400   6.276  0.4222  0.0025 -0.2109
 2113SOL    HW212945   2.069   2.547   6.252  0.9602 -0.0302  0.2247
 2114SOL     OW12946  12.140  11.446   1.524 -0.1151  0.5085  0.4733
 2114SOL    HW112947  12.067  11.505   1.540  1.4419  2.6748  0.0513
 2114SOL    HW212948  12.198  11.458   1.599  0.1404 -0.6739  0.4860
 2115SOL     OW12949  11.962   4.500   4.832  0.3963 -0.3172 -0.4387
 2115SOL    HW112950  12.027   4.430   4.822  0.6446 -0.3807  1.2748
 2115SOL    HW212951  12.010   4.571   4.875 -0.3192  0.2005 -0.4809
 2116SOL     OW12952   0.809   2.619   3.297 -0.5748 -0.2096  0.0323
 2116SOL    HW112953   0.868   2.635   3.224 -1.0232  0.4983 -0.1821
 2116SOL    HW212954   0.808   2.701   3.346 -0.8109 -0.4560  0.4487
 2117SOL     OW12955   6.417   1.719   0.229  0.2851 -0.1935 -0.0823
 2117SOL    HW112956   6.347   1.721   0.294 -1.0650  1.8932 -1.4883
 2117SOL    HW212957   6.378   1.674   0.154  0.2924  1.2210 -0.9749
 2118SOL     OW12958   5.438   5.335   8.885 -0.6025  0.1019 -0.1479
 2118SOL    HW112959   5.484   5.302   8.807  0.3480 -1.3079  0.9676
 2118SOL    HW212960   5.430   5.429   8.869  1.2042  0.1442 -1.1539
 2119SOL     OW12961  11.011  10.699   0.565 -0.2830 -0.2684  0.0105
 2119SOL    HW112962  11.075  10.745   0.510  1.3037 -0.4538  1.5947
 2119SOL    HW212963  10.972  10.635   0.506  1.2960 -0.4194 -0.9589
 2120SOL     OW12964  12.285   5.491   5.215 -0.2426  0.1544  0.6224
 2120SOL    HW112965  12.325   5.444   5.142 -1.7396 -0.1838 -0.0041
 2120SOL    HW212966  12.293   5.431   5.289  0.9973  0.3732  0.6887
 2121SOL     OW12967   3.890   3.707   0.896  0.4497  0.2491  0.7459
 2121SOL    HW112968   3.884   3.612   0.896 -0.4697  0.2918  0.5726
 2121SOL    HW212969   3.810   3.736   0.940 -1.2440  0.9906 -2.4933
 2122SOL     OW12970   4.606   3.042   2.562 -0.3403  0.0318 -0.5742
 2122SOL    HW112971   4.572   2.953   2.568 -1.5552  0.4360 -1.2444
 2122SOL    HW212972   4.619   3.057   2.469 -1.5637  1.0497 -0.6118
 2123SOL     OW12973  11.393  10.239   0.682  0.0689  0.1576  0.0330
 2123SOL    HW112974  11.298  10.237   0.675  0.0214 -0.8740  0.8206
 2123SOL    HW212975  11.425  10.186   0.609 -0.1058 -2.4342  1.7333
 2124SOL     OW12976   8.355   3.404   4.579 -0.2840 -0.2699  0.6585
 2124SOL    HW112977   8.262   3.419   4.595 -0.4739  0.2062 -0.7742
 2124SOL    HW212978   8.363   3.402   4.484  1.2189 -0.0147  0.7563
 2125SOL     OW12979  12.774  10.620   4.605  0.1251  0.0467  0.0783
 2125SOL    HW112980  12.753  10.629   4.512 -0.9504 -0.4209  0.2560
 2125SOL    HW212981  12.847  10.558   4.607  0.3476  0.2881 -0.4693
 2126SOL     OW12982   1.992   4.726   8.075  0.0148  0.2281 -0.3319
 2126SOL    HW112983   2.037   4.654   8.029 -0.9510 -0.3573 -0.3884
 2126SOL    HW212984   2.027   4.805   8.034  0.0867 -0.2526 -1.2408
 2127SOL     OW12985   7.468  11.077   4.062 -0.4033 -0.5317  0.0316
 2127SOL    HW112986   7.515  11.055   4.143 -0.6808  0.5203  0.4968
 2127SOL    HW212987   7.534  11.118   4.006 -0.9623  2.2977  1.2417
 2128SOL     OW12988  12.031   2.805  12.226  0.6322  0.0059  0.4175
 2128SOL    HW112989  11.953   2.795  12.281  1.1636  0.3446  1.2591
 2128SOL    HW212990  12.059   2.715  12.208 -0.9892 -0.1858 -1.4627
 2129SOL     OW12991  10.355  10.463   7.226  0.3016 -0.2904 -0.2248
 2129SOL    HW112992  10.293  10.391   7.214  0.6382 -0.5007 -0.7490
 2129SOL    HW212993  10.362  10.473   7.321 -1.1033  0.2379 -0.1591
 2130SOL     OW12994   9.806  12.645   3.703  0.4381  0.1248 -0.5750
 2130SOL    HW112995   9.881  12.587   3.689  0.5781 -0.4708  2.1225
 2130SOL    HW212996   9.839  12.732   3.681  1.3928 -0.3379 -1.0632
 2131SOL     OW12997   1.945   9.327  12.124 -0.8306  0.5938 -0.4011
 2131SOL    HW112998   1.981   9.278  12.051 -1.1848  0.9018 -0.7846
 2131SOL    HW212999   1.850   9.327  12.109 -1.0098 -0.2459  0.6202
 2132SOL     OW13000   1.464  11.413   2.291  0.0184 -0.0199  0.2123
 2132SOL    HW113001   1.407  11.369   2.354  0.7832 -1.2626  0.0742
 2132SOL    HW213002   1.438  11.376   2.206  0.7528 -0.3036  0.1045
 2133SOL     OW13003   5.106   4.558   2.914 -0.1890  0.3957 -0.1119
 2133SOL    HW113004   5.182   4.511   2.882 -1.3777 -0.2396 -2.2017
 2133SOL    HW213005   5.038   4.541   2.849 -2.0546  1.1464  1.5280
 2134SOL     OW13006   2.160   8.606   1.731 -0.2733  0.2514  0.0400
 2134SOL    HW113007   2.076   8.649   1.745 -0.6050 -0.1748 -0.5867
 2134SOL    HW213008   2.209   8.622   1.812 -1.2430 -0.1700  0.7348
 2135SOL     OW13009  11.871   4.445   1.175  0.1628  0.5283 -0.0376
 2135SOL    HW113010  11.784   4.481   1.192  0.0304 -0.1733  0.9111
 2135SOL    HW213011  11.917   4.453   1.259  0.4974 -0.4417 -0.1077
 2136SOL     OW13012   2.780   5.348  11.083  0.5363  0.4399  0.2623
 2136SOL    HW113013   2.774   5.296  11.163 -1.7864  0.5099  0.2194
 2136SOL    HW213014   2.704   5.320  11.031  1.6117  0.8828 -1.6295
 2137SOL     OW13015   8.332   8.928   6.573  0.6235  0.2049  0.5555
 2137SOL    HW113016   8.368   8.896   6.656 -0.1872  2.0996  1.7006
 2137SOL    HW213017   8.242   8.897   6.573  0.2429  1.2800  1.0163
 2138SOL     OW13018   5.393   9.321  11.201  0.2562  0.0057  0.6471
 2138SOL    HW113019   5.378   9.248  11.261 -1.8149 -0.5071 -0.4114
 2138SOL    HW213020   5.383   9.283  11.114 -0.7292  1.4972  0.0669
 2139SOL     OW13021   3.249   7.642   8.831  1.0996 -0.3526  0.1532
 2139SOL    HW113022   3.182   7.574   8.837  1.1024 -0.2877  0.9164
 2139SOL    HW213023   3.275   7.641   8.738  1.7696 -2.0354  0.3097
 2140SOL     OW13024  10.431  11.086  11.192 -0.1540  0.3827 -0.0176
 2140SOL    HW113025  10.488  11.158  11.166 -1.1623  0.7342 -1.3998
 2140SOL    HW213026  10.462  11.012  11.140 -0.5237  0.4108 -0.2862
 2141SOL     OW13027   9.975   8.924   9.661 -0.5682 -0.4273 -0.2707
 2141SOL    HW113028   9.916   8.962   9.595 -1.6146 -1.7083 -0.1139
 2141SOL    HW213029  10.061   8.960   9.640 -0.9182 -0.6369 -2.2012
 2142SOL     OW13030   6.757   4.366   9.932 -0.0225 -0.6827  0.6283
 2142SOL    HW113031   6.843   4.408   9.927 -0.0716 -0.7062 -0.4938
 2142SOL    HW213032   6.736   4.341   9.842  0.4998 -4.1115  1.3150
 2143SOL     OW13033   7.889   9.216  12.251 -0.1741 -0.1033  0.3092
 2143SOL    HW113034   7.863   9.156  12.320  0.6247 -0.8220  0.0120
 2143SOL    HW213035   7.908   9.159  12.176 -0.5356  0.6166 -0.3454
 2144SOL     OW13036  10.303   2.158   9.242  0.5299 -0.1018 -0.1617
 2144SOL    HW113037  10.318   2.241   9.197 -0.3959  1.0164  1.4911
 2144SOL    HW213038  10.347   2.168   9.326 -0.9461 -0.6348  0.7156
 2145SOL     OW13039   5.451   1.867   3.432  0.6112  0.2185 -0.2578
 2145SOL    HW113040   5.525   1.824   3.388 -0.5497 -1.0499 -1.0400
 2145SOL    HW213041   5.393   1.795   3.456 -1.0027  1.2887 -0.8411
 2146SOL     OW13042  11.869   7.672  10.418 -0.0921 -0.5579 -0.0462
 2146SOL    HW113043  11.900   7.590  10.381  0.7609 -0.5291  0.5982
 2146SOL    HW213044  11.775   7.672  10.400  0.3189 -0.3812 -2.5296
 2147SOL     OW13045   0.372  10.428   9.338  0.1140 -0.1042  0.5509
 2147SOL    HW113046   0.444  10.423   9.400  0.7083  2.1585  0.1179
 2147SOL    HW213047   0.406  10.477   9.264 -0.9249 -1.7725 -1.1310
 2148SOL     OW13048   0.283   4.987   6.492 -0.1237 -0.0963 -0.2772
 2148SOL    HW113049   0.365   4.939   6.507  0.2873  0.5831 -0.2777
 2148SOL    HW213050   0.225   4.957   6.562  0.8954  1.0718  1.1394
 2149SOL     OW13051   7.108  11.594   5.564 -0.2669 -0.2869 -0.2690
 2149SOL    HW113052   7.200  11.615   5.578 -0.0779 -0.8826 -0.6228
 2149SOL    HW213053   7.066  11.615   5.648  0.6266 -2.5614  0.8132
 2150SOL     OW13054   9.170   5.426   8.879  0.0260  0.6813 -0.6096
 2150SOL    HW113055   9.098   5.465   8.929 -1.3495 -2.1862 -0.1564
 2150SOL    HW213056   9.136   5.418   8.790 -0.1834 -0.4935 -0.4404
 2151SOL     OW13057   7.546  12.147   8.930  0.5589  0.2101 -0.1855
 2151SOL    HW113058   7.466  12.110   8.893  1.7748  0.2673 -3.1565
 2151SOL    HW213059   7.591  12.071   8.969 -0.9587  0.2279  1.7860
 2152SOL     OW13060   1.583   0.990   5.876 -0.1132 -0.4221  0.2261
 2152SOL    HW113061   1.637   1.062   5.907  1.1234 -1.7245  1.2203
 2152SOL    HW213062   1.493   1.018   5.893  0.3666  0.6610  1.1009
 2153SOL     OW13063  12.399   2.861   7.674  0.2568 -0.4342  0.1847
 2153SOL    HW113064  12.389   2.862   7.579 -0.4847 -1.1291  0.2333
 2153SOL    HW213065  12.434   2.947   7.696 -0.1851 -0.0225 -0.6571
 2154SOL     OW13066  10.865   9.318   6.532  0.4322  0.2117 -0.0660
 2154SOL    HW113067  10.886   9.407   6.506 -0.2648 -0.0720 -1.7085
 2154SOL    HW213068  10.887   9.265   6.456 -1.9570 -0.6368 -0.2452
 2155SOL     OW13069   5.640   2.039   5.817  0.0900  0.3352 -0.1746
 2155SOL    HW113070   5.732   2.066   5.825  0.4693 -0.9237 -0.1311
 2155SOL    HW213071   5.594   2.120   5.793  1.4322  0.6783 -1.7456
 2156SOL     OW13072   6.362   6.234  11.761 -0.1196  0.0085 -0.0436
 2156SOL    HW113073   6.341   6.170  11.692 -2.0097  0.3418  0.1564
 2156SOL    HW213074   6.329   6.194  11.842  1.2334  0.0305  0.5519
 2157SOL     OW13075   9.099   3.445   3.308 -0.4388 -0.3449  0.4958
 2157SOL    HW113076   9.155   3.375   3.342  0.6143  0.7693  1.1616
 2157SOL    HW213077   9.138   3.469   3.224  0.3975  0.6943  1.1342
 2158SOL     OW13078  10.190   3.036   2.222  0.1899  0.2188 -0.0745
 2158SOL    HW113079  10.097   3.051   2.243  0.2267  1.6342 -0.7646
 2158SOL    HW213080  10.191   3.028   2.127  0.6546 -0.9955  0.0114
 2159SOL     OW13081   7.622  11.642   7.672 -0.1511  0.0311 -0.5272
 2159SOL    HW113082   7.546  11.615   7.724 -0.1404 -0.1367 -0.5994
 2159SOL    HW213083   7.585  11.684   7.595 -0.1700  2.0133  0.5107
 2160SOL     OW13084   5.416  11.209  11.795 -0.6571  0.0205  0.7516
 2160SOL    HW113085   5.478  11.264  11.747 -1.0524  0.3189  0.5657
 2160SOL    HW213086   5.453  11.121  11.790 -0.4822  0.1148  0.2423
 2161SOL     OW13087   0.649   5.469   2.593  0.2334  0.0005  0.6303
 2161SOL    HW113088   0.722   5.484   2.653 -0.6874  0.6094  1.6199
 2161SOL    HW213089   0.582   5.531   2.621 -1.8889 -2.6577  1.7418
 2162SOL     OW13090  11.233   0.386   6.544 -0.2809 -0.4424  0.4241
 2162SOL    HW113091  11.288   0.321   6.588 -0.7048 -0.8181  0.4102
 2162SOL    HW213092  11.184   0.428   6.616  0.4163  0.2724  0.4910
 2163SOL     OW13093   6.521   5.366   8.355 -0.6871  0.2885  0.1946
 2163SOL    HW113094   6.611   5.366   8.322 -1.1444  3.1259 -1.4300
 2163SOL    HW213095   6.490   5.276   8.343  1.5643 -0.4788 -0.2266
 2164SOL     OW13096   5.889   6.830  11.176  0.2583 -0.0234  0.4612
 2164SOL    HW113097   5.919   6.803  11.262  0.4881  1.0234  0.7259
 2164SOL    HW213098   5.800   6.861  11.190 -0.3984 -1.5940 -0.0294
 2165SOL     OW13099   5.686   3.900   4.155 -0.2234 -0.4520  0.4152
 2165SOL    HW113100   5.619   3.924   4.091 -0.8180 -0.5123  1.0037
 2165SOL    HW213101   5.752   3.853   4.104  1.5753  3.2760 -1.0078
 2166SOL     OW13102   8.895   9.536   3.561 -0.6619 -0.0880 -0.3444
 2166SOL    HW113103   8.881   9.486   3.642 -1.8381  0.0930 -0.4163
 2166SOL    HW213104   8.988   9.559   3.562  0.3092 -3.4952 -1.0126
 2167SOL     OW13105   4.068   9.173   4.397  0.6880  1.0372  0.2791
 2167SOL    HW113106   4.151   9.186   4.353  1.3047 -2.5849  0.0882
 2167SOL    HW213107   4.091   9.160   4.489  0.5590 -1.2053  0.0394
 2168SOL     OW13108   9.560   4.856  10.848 -0.0508 -0.2647 -0.1359
 2168SOL    HW113109   9.554   4.951  10.861  1.8868 -0.0544 -0.4448
 2168SOL    HW213110   9.528   4.818  10.930 -1.3981  0.6123 -0.2210
 2169SOL     OW13111   5.947  11.273   5.081  0.2101 -0.2312  0.2038
 2169SOL    HW113112   5.974  11.294   4.991  1.9393  1.6073  1.0790
 2169SOL    HW213113   5.988  11.188   5.098  1.2478  0.1576 -0.2375
 2170SOL     OW13114   6.219   7.793  10.324  0.2549 -0.1249 -0.6681
 2170SOL    HW113115   6.289   7.734  10.353  1.7078  1.6674 -0.3063
 2170SOL    HW213116   6.199   7.846  10.401 -3.1994 -1.9950 -0.0586
 2171SOL     OW13117   7.094  11.207   0.451 -0.5505 -0.2540  0.3070
 2171SOL    HW113118   7.068  11.122   0.486  0.6099  0.0375  2.0166
 2171SOL    HW213119   7.147  11.185   0.374  1.6988 -1.2759  2.0207
 2172SOL     OW13120   3.162   1.482   4.311 -0.0753 -0.4531 -0.2421
 2172SOL    HW113121   3.132   1.567   4.277  0.2681  0.2547  1.1550
 2172SOL    HW213122   3.120   1.418   4.254 -0.7278  0.6403 -1.0388
 2173SOL     OW13123  12.447   7.874   5.833  0.8336 -0.1361 -0.3419
 2173SOL    HW113124  12.520   7.830   5.790  0.9391  0.4858 -0.7988
 2173SOL    HW213125  12.470   7.871   5.926  0.5886 -1.5057 -0.2976
 2174SOL     OW13126   1.189   2.988   5.920  0.1087 -0.0213 -0.4390
 2174SOL    HW113127   1.188   2.925   5.992  1.1538 -0.8716 -1.1477
 2174SOL    HW213128   1.145   3.065   5.956  1.2834 -0.1375  1.3635
 2175SOL     OW13129   4.889  12.307   4.991 -0.2905 -0.2066  0.0102
 2175SOL    HW113130   4.940  12.255   4.929  0.2242 -0.2061  0.4393
 2175SOL    HW213131   4.850  12.243   5.050  0.7444 -0.0818  0.8459
 2176SOL     OW13132   3.623   6.874   0.918 -0.2207  0.3754  0.1156
 2176SOL    HW113133   3.706   6.852   0.877 -0.6022  1.0662 -1.1011
 2176SOL    HW213134   3.646   6.922   0.997  0.5659  2.3634 -1.2497
 2177SOL     OW13135  11.173  11.675  10.260  0.5452  0.5962 -0.2195
 2177SOL    HW113136  11.102  11.696  10.199 -1.5317  0.9823  2.1771
 2177SOL    HW213137  11.146  11.593  10.302  0.5277  1.6923  2.0490
 2178SOL     OW13138   1.240  10.255   3.261  0.6501 -0.5605 -0.0354
 2178SOL    HW113139   1.226  10.233   3.169 -2.4231 -1.9809  0.6467
 2178SOL    HW213140   1.287  10.180   3.298 -0.4898 -1.2368  0.0759
 2179SOL     OW13141   5.643   1.616   7.296 -0.7016 -0.0089  0.6802
 2179SOL    HW113142   5.561   1.663   7.279 -0.2698  0.9726  1.2338
 2179SOL    HW213143   5.615   1.533   7.335 -1.4146  0.9951  2.4419
 2180SOL     OW13144   5.792   1.010   4.586 -0.0328 -0.8447 -0.3905
 2180SOL    HW113145   5.801   1.093   4.633 -3.7623 -1.7154  2.3531
 2180SOL    HW213146   5.827   0.944   4.646 -2.4173 -1.7091  0.1989
 2181SOL     OW13147   0.236   5.337   6.862  0.3579  0.2108  0.6252
 2181SOL    HW113148   0.224   5.246   6.887 -1.1256  1.0158  3.4028
 2181SOL    HW213149   0.321   5.341   6.820 -0.8400 -2.9193 -2.4805
 2182SOL     OW13150  10.593   5.936  10.734  0.3169  0.3406  0.5136
 2182SOL    HW113151  10.596   5.860  10.792  2.2897  1.0111  1.3677
 2182SOL    HW213152  10.505   5.933  10.696  0.2821 -2.2996  0.5823
 2183SOL     OW13153  11.303  10.804   9.641 -0.3373  0.1679  0.1516
 2183SOL    HW113154  11.276  10.796   9.733 -2.2483 -0.7423 -0.4489
 2183SOL    HW213155  11.289  10.717   9.604  0.3538  0.5367 -1.0353
 2184SOL     OW13156   9.970   9.069   5.895 -0.1001  0.1123 -0.2807
 2184SOL    HW113157  10.013   9.004   5.951 -1.0099 -2.7688 -2.6674
 2184SOL    HW213158   9.892   9.095   5.945  1.2076  0.8516  1.4872
 2185SOL     OW13159   8.785   1.896   6.198 -0.0992  0.2692  0.1393
 2185SOL    HW113160   8.866   1.906   6.248 -0.3503  0.8536  0.4467
 2185SOL    HW213161   8.813   1.861   6.114  0.1929 -2.0472  1.1189
 2186SOL     OW13162   4.836   7.519   0.545 -0.1472  0.6362  0.7071
 2186SOL    HW113163   4.772   7.449   0.560  1.0331 -0.4227  1.0047
 2186SOL    HW213164   4.799   7.596   0.589 -0.5936 -0.3021  2.0490
 2187SOL     OW13165   5.679   0.916   1.440  0.2173 -0.2269  0.4422
 2187SOL    HW113166   5.593   0.935   1.402 -0.3012 -0.2209  1.5925
 2187SOL    HW213167   5.715   0.848   1.382  0.0109  0.6922 -0.8070
 2188SOL     OW13168  12.710   9.023   0.713  0.1321 -0.1608 -0.3254
 2188SOL    HW113169  12.695   9.083   0.640  1.3606  1.5889  0.7862
 2188SOL    HW213170  12.795   8.984   0.696 -0.7619 -1.8623 -1.1644
 2189SOL     OW13171   4.589   0.960  11.486  0.2211 -0.3892  0.3270
 2189SOL    HW113172   4.588   1.009  11.404  0.5859 -0.9391 -0.0110
 2189SOL    HW213173   4.601   1.027  11.554  0.5361  0.0022 -0.1123
 2190SOL     OW13174   2.723   1.734   6.126 -0.4326  0.1214 -0.1858
 2190SOL    HW113175   2.635   1.716   6.159 -0.1846 -1.2141 -0.2107
 2190SOL    HW213176   2.771   1.653   6.142  1.1839  1.2552  1.0790
 2191SOL     OW13177   2.836   3.231   2.462 -0.4114  0.5770  0.0049
 2191SOL    HW113178   2.801   3.215   2.374 -1.3035  0.4721  0.3705
 2191SOL    HW213179   2.778   3.298   2.498  0.3830  1.1476  0.2612
 2192SOL     OW13180   3.988   5.777   2.809 -0.0024 -0.5773  0.1547
 2192SOL    HW113181   3.955   5.794   2.897  0.6170 -0.1478  0.3085
 2192SOL    HW213182   3.911   5.789   2.753 -0.5890 -1.6110  0.6928
 2193SOL     OW13183   3.888  10.598   5.694  0.3670  0.5728  0.3133
 2193SOL    HW113184   3.872  10.683   5.736  0.5487  0.6420  0.2480
 2193SOL    HW213185   3.889  10.535   5.766 -3.5548  0.0109  0.0844
 2194SOL     OW13186   1.372   7.188   5.997  0.4063  0.0559 -0.2797
 2194SOL    HW113187   1.288   7.153   5.967 -0.0184  0.5365  0.3472
 2194SOL    HW213188   1.423   7.200   5.917 -0.2590  0.1265 -0.6952
 2195SOL     OW13189  11.694   1.661   9.074 -0.3874  0.1086 -0.1156
 2195SOL    HW113190  11.625   1.678   9.138 -0.8923 -0.4089 -0.5089
 2195SOL    HW213191  11.647   1.631   8.996  0.2581  0.1538 -0.5255
 2196SOL     OW13192   3.087   3.925  11.895  0.2922  0.1153  0.2416
 2196SOL    HW113193   3.034   3.866  11.842  1.2524  0.8026 -1.5747
 2196SOL    HW213194   3.123   3.869  11.964 -2.6810 -0.3675  1.5126
 2197SOL     OW13195   1.977   6.598   3.386  0.1476  0.3324 -0.5532
 2197SOL    HW113196   2.057   6.546   3.387 -1.4997 -2.4080  0.8285
 2197SOL    HW213197   1.908   6.534   3.366 -1.9301  2.1596  0.4361
 2198SOL     OW13198   5.074   0.591   5.392  0.6701  0.5467  0.5836
 2198SOL    HW113199   5.147   0.538   5.360 -0.4897 -1.2740  0.8283
 2198SOL    HW213200   5.098   0.681   5.370  2.5700 -0.0929 -0.1221
 2199SOL     OW13201   7.056   1.762   7.639  0.3290 -0.4332 -0.9644
 2199SOL    HW113202   7.079   1.720   7.722 -1.0464  0.9735  0.1874
 2199SOL    HW213203   6.971   1.804   7.655  0.8253  1.3619 -2.5407
 2200SOL     OW13204   6.337   7.737   5.897 -0.5090  0.5009 -0.0781
 2200SOL    HW113205   6.392   7.801   5.941 -0.2821  1.3364 -1.5219
 2200SOL    HW213206   6.390   7.704   5.825 -0.6110 -1.3608  0.6283
 2201SOL     OW13207   3.433   5.961   0.713  0.3254  0.1575 -0.7860
 2201SOL    HW113208   3.359   5.955   0.773 -1.2959  1.6875 -2.5244
 2201SOL    HW213209   3.397   5.936   0.628  2.0592  0.0251 -1.5264
 2202SOL     OW13210   3.591   5.129   2.894  0.1538  0.1053  0.2190
 2202SOL    HW113211   3.543   5.162   2.969 -2.8168 -1.7845 -0.6787
 2202SOL    HW213212   3.603   5.036   2.912 -0.8267 -0.4400 -1.6691
 2203SOL     OW13213   9.950   3.361   1.106 -0.3866 -0.0792  0.0703
 2203SOL    HW113214   9.966   3.456   1.106  0.4174 -0.2018  1.0833
 2203SOL    HW213215   9.857   3.353   1.129 -0.5233  0.4712 -0.2647
 2204SOL     OW13216  11.188   1.601   2.328  0.3694  0.4518 -0.3279
 2204SOL    HW113217  11.177   1.558   2.243  2.1364 -2.0198  0.5785
 2204SOL    HW213218  11.111   1.576   2.379  0.5050 -0.1144 -0.4047
 2205SOL     OW13219  11.044   2.217   5.093 -0.2556 -0.4433 -0.3654
 2205SOL    HW113220  11.125   2.166   5.089 -0.1146 -0.1888 -0.8022
 2205SOL    HW213221  11.052   2.282   5.023  0.0741  0.9604  0.9199
 2206SOL     OW13222   4.069   7.673   7.215  0.7088  0.1024  0.2287
 2206SOL    HW113223   4.076   7.592   7.165 -2.6840 -0.2284  0.1072
 2206SOL    HW213224   4.029   7.735   7.154 -0.2293  0.7347  1.4402
 2207SOL     OW13225   7.023   9.602   7.723  0.3680 -0.2121  0.5203
 2207SOL    HW113226   7.117   9.591   7.711  0.4587  1.1953 -0.3659
 2207SOL    HW213227   7.012   9.696   7.739 -0.9148 -0.2817  0.1628
 2208SOL     OW13228   3.875   1.047   2.346  0.5357  0.1251 -0.5668
 2208SOL    HW113229   3.793   0.999   2.350  1.1005 -0.7834  0.3678
 2208SOL    HW213230   3.924   1.006   2.274  0.2114  0.6349 -1.0915
 2209SOL     OW13231   6.037   9.700  11.508  0.5825 -0.2029 -0.1618
 2209SOL    HW113232   6.072   9.789  11.513  0.0012  0.0857 -1.0096
 2209SOL    HW213233   6.114   9.644  11.496  0.8899  0.2529 -0.3303
 2210SOL     OW13234   8.627   4.334   2.515 -0.6878 -0.5548 -0.0511
 2210SOL    HW113235   8.618   4.240   2.502 -0.8597 -0.5050 -0.2931
 2210SOL    HW213236   8.683   4.363   2.443 -1.9492 -0.2193 -0.9378
 2211SOL     OW13237   4.949   0.572  11.861 -0.2681 -0.0216 -0.7017
 2211SOL    HW113238   4.928   0.529  11.943  0.5613 -2.0896 -1.5068
 2211SOL    HW213239   5.026   0.526  11.828 -0.0817  1.2892 -2.2406
 2212SOL     OW13240   9.441  10.042  10.759 -0.1506  0.0392  0.1344
 2212SOL    HW113241   9.423   9.988  10.682 -1.4678  2.1600 -1.1307
 2212SOL    HW213242   9.361  10.037  10.811  0.7073 -1.3252  1.4094
 2213SOL     OW13243   9.788   3.385   0.628  0.1174  0.4708 -0.2884
 2213SOL    HW113244   9.872   3.403   0.668 -0.5527  0.8564  0.9928
 2213SOL    HW213245   9.747   3.471   0.618  0.0717  0.3393 -1.3952
 2214SOL     OW13246   2.005   3.214  12.632 -0.3688 -0.1747 -0.0795
 2214SOL    HW113247   2.053   3.264  12.566  0.0946  1.2418  1.2607
 2214SOL    HW213248   2.069   3.198  12.701 -0.4372 -2.8986 -0.5383
 2215SOL     OW13249   7.829   9.902   6.955  0.4783  0.0486 -0.3296
 2215SOL    HW113250   7.784   9.986   6.965  0.0347 -0.4079  2.0316
 2215SOL    HW213251   7.921   9.922   6.972  0.2738 -0.0487  0.9255
 2216SOL     OW13252   4.687   5.184   6.574  0.3035  0.5090 -0.1796
 2216SOL    HW113253   4.724   5.153   6.492 -0.9242 -0.2512 -0.4715
 2216SOL    HW213254   4.651   5.271   6.553  0.4011  0.5149 -0.3249
 2217SOL     OW13255  11.676   0.771   7.975 -0.0625  0.1225  0.2687
 2217SOL    HW113256  11.617   0.746   8.046  0.4057  1.3028  1.1052
 2217SOL    HW213257  11.625   0.760   7.895 -1.2892  0.7730  0.9466
 2218SOL     OW13258  12.730   5.701   3.262  0.0898 -0.0864 -0.4055
 2218SOL    HW113259  12.800   5.636   3.264 -0.1670 -0.3522  0.1578
 2218SOL    HW213260  12.671   5.675   3.332 -1.3632 -0.7268 -1.8214
 2219SOL     OW13261   7.604   2.407   8.138  0.3575  0.3337 -0.1376
 2219SOL    HW113262   7.621   2.331   8.083  0.8309 -1.0779  1.8192
 2219SOL    HW213263   7.620   2.483   8.082  0.6250 -1.0034 -1.9382
 2220SOL     OW13264  12.332  11.914   1.243  0.4944  0.3764  0.1974
 2220SOL    HW113265  12.327  12.001   1.285 -0.2022  1.1830 -1.4856
 2220SOL    HW213266  12.270  11.860   1.292 -1.3924  1.6921 -0.6126
 2221SOL     OW13267   4.794  10.494   9.086  0.5987  0.6118  0.2823
 2221SOL    HW113268   4.844  10.575   9.080 -0.2495  1.0773 -0.6384
 2221SOL    HW213269   4.733  10.508   9.158  1.3533  0.2784  0.9970
 2222SOL     OW13270   0.773   1.593  11.497 -0.0221 -0.2554 -0.4543
 2222SOL    HW113271   0.795   1.680  11.465  1.7349 -0.3941  0.2630
 2222SOL    HW213272   0.826   1.583  11.576  0.5540 -2.3508 -1.0520
 2223SOL     OW13273   8.034   6.240   9.419 -0.1262 -0.3487 -0.2210
 2223SOL    HW113274   7.973   6.311   9.399 -0.9874 -0.9432  0.2245
 2223SOL    HW213275   8.077   6.221   9.336  0.1647  0.7249 -0.3369
 2224SOL     OW13276  10.602  11.070   4.220  0.6460 -0.9131  0.3927
 2224SOL    HW113277  10.611  11.128   4.296 -1.5222 -0.7002  0.5529
 2224SOL    HW213278  10.664  11.105   4.156 -0.1170  1.2018  0.7187
 2225SOL     OW13279   0.692   4.188   6.233 -0.1680  0.1378 -0.1376
 2225SOL    HW113280   0.761   4.251   6.214 -0.3783  0.4143  0.0056
 2225SOL    HW213281   0.737   4.112   6.269  0.0778  0.2423 -0.2256
 2226SOL     OW13282  12.063   7.360   1.721  0.0299  0.3185  0.0126
 2226SOL    HW113283  11.998   7.396   1.781  1.0836 -0.0410  1.4226
 2226SOL    HW213284  12.089   7.433   1.666 -0.7093  0.7395  0.2138
 2227SOL     OW13285  11.305   8.389   4.969  0.1232  0.3689  0.4915
 2227SOL    HW113286  11.271   8.478   4.977  0.5841  0.4488  1.8654
 2227SOL    HW213287  11.229   8.333   4.983 -0.3917  0.5210 -1.4984
 2228SOL     OW13288   9.233  12.154   0.705  0.3601  0.3046  0.6226
 2228SOL    HW113289   9.148  12.139   0.664  1.2994 -1.8004 -0.7179
 2228SOL    HW213290   9.229  12.105   0.787 -0.6911  2.6392  2.0817
 2229SOL     OW13291   3.666  10.012  10.480  0.3072 -0.1961 -0.4588
 2229SOL    HW113292   3.659   9.973  10.393  0.7096 -0.8192 -0.2228
 2229SOL    HW213293   3.760  10.009  10.500  0.1656 -0.5208  0.1951
 2230SOL     OW13294   9.192   1.374  10.359 -0.0645  0.2592 -0.4272
 2230SOL    HW113295   9.257   1.442  10.339  0.0522 -0.0161 -0.9780
 2230SOL    HW213296   9.242   1.307  10.406  0.0013  0.1420 -0.6678
 2231SOL     OW13297   1.315   1.858  12.275 -1.0783 -0.4914  0.2135
 2231SOL    HW113298   1.224   1.883  12.291 -1.0895  0.4927 -1.2421
 2231SOL    HW213299   1.340   1.905  12.195  1.0566  0.1628  1.1763
 2232SOL     OW13300   5.180  11.553   1.051 -0.5477 -0.4920 -0.4763
 2232SOL    HW113301   5.125  11.474   1.048 -1.5489  0.1967 -0.8944
 2232SOL    HW213302   5.203  11.562   1.143 -2.0064 -0.2361 -0.1012
 2233SOL     OW13303  12.443  10.671  12.040  0.9196  0.2049  0.2546
 2233SOL    HW113304  12.480  10.618  11.969  0.3847 -1.7333  1.3488
 2233SOL    HW213305  12.373  10.617  12.076  0.0495  1.8748  1.1787
 2234SOL     OW13306  12.157   9.483   5.547 -0.1296 -0.6129  0.0581
 2234SOL    HW113307  12.182   9.575   5.538 -0.3565 -0.5210  0.3339
 2234SOL    HW213308  12.215   9.436   5.487 -0.4459 -0.2196 -0.5636
 2235SOL     OW13309   5.751   7.304  11.794  0.4416 -0.3958  0.2462
 2235SOL    HW113310   5.666   7.342  11.771  0.8875  0.0488 -0.7382
 2235SOL    HW213311   5.762   7.325  11.887 -0.2880 -0.0108  0.2570
 2236SOL     OW13312   4.131   1.134   0.268 -0.1251 -0.0193  0.4123
 2236SOL    HW113313   4.210   1.156   0.218 -0.5261  0.0973 -0.1819
 2236SOL    HW213314   4.097   1.218   0.298  0.1444 -0.0931  0.9383
 2237SOL     OW13315   7.017   0.018   7.016 -0.3143 -0.0428  0.0483
 2237SOL    HW113316   7.083   0.047   7.078  1.2375 -0.4384 -1.3286
 2237SOL    HW213317   6.955   0.090   7.011  0.5282  0.7469  0.6895
 2238SOL     OW13318   2.897   0.273   0.394  0.0584 -0.8053  0.4675
 2238SOL    HW113319   2.865   0.214   0.325  1.6566  1.0514 -2.0393
 2238SOL    HW213320   2.975   0.230   0.427  0.2104 -0.9526 -0.0653
 2239SOL     OW13321   6.848   1.322  11.086  0.1258 -0.3257  0.7416
 2239SOL    HW113322   6.925   1.309  11.141  0.4810  1.4397  0.7249
 2239SOL    HW213323   6.794   1.384  11.136  0.0285  0.5886 -0.4688
 2240SOL     OW13324   6.370   4.466   6.595  0.1109  0.0186 -0.2184
 2240SOL    HW113325   6.416   4.508   6.667 -2.4148 -0.2278  1.6460
 2240SOL    HW213326   6.365   4.374   6.620 -0.3315 -0.1808 -0.9984
 2241SOL     OW13327   2.861   6.652   0.419 -0.4453  0.4495  0.1015
 2241SOL    HW113328   2.905   6.579   0.464 -2.9077 -1.7632 -0.7974
 2241SOL    HW213329   2.809   6.694   0.487 -0.1047  0.4960  0.3388
 2242SOL     OW13330   1.530  12.015   9.786  0.1043 -0.2494  0.0011
 2242SOL    HW113331   1.510  11.933   9.830 -1.4987  1.0779  1.9261
 2242SOL    HW213332   1.525  12.081   9.855  2.1405  1.4087 -1.3095
 2243SOL     OW13333   7.593   9.234  10.327  0.1568 -0.1970  0.4718
 2243SOL    HW113334   7.578   9.293  10.401 -0.2978  0.9852 -0.5330
 2243SOL    HW213335   7.686   9.243  10.307  0.1534 -0.0694  0.5160
 2244SOL     OW13336   0.548   5.660   0.376  0.0220 -0.0609  0.5802
 2244SOL    HW113337   0.497   5.709   0.310 -1.5452  1.2547  2.6394
 2244SOL    HW213338   0.564   5.575   0.335 -2.1861  0.1638 -0.9659
 2245SOL     OW13339   7.494  11.215   7.428  0.6861 -0.2801 -0.1279
 2245SOL    HW113340   7.573  11.228   7.375  0.9198 -0.2650  0.2236
 2245SOL    HW213341   7.456  11.133   7.394  0.0397  0.4716 -1.3004
 2246SOL     OW13342  10.496   7.440  12.538 -0.0878  0.4384  0.1155
 2246SOL    HW113343  10.461   7.401  12.619 -0.2617 -0.0997 -0.2162
 2246SOL    HW213344  10.420   7.483  12.498 -0.2591 -0.2798 -0.3400
 2247SOL     OW13345   3.361   1.121   5.273  0.2057  0.1382 -0.3095
 2247SOL    HW113346   3.401   1.200   5.236 -0.9530  0.5144 -0.8000
 2247SOL    HW213347   3.376   1.053   5.206 -0.1754  0.3318 -0.5904
 2248SOL     OW13348   4.855   6.186   4.546  0.3031 -0.5733  0.0646
 2248SOL    HW113349   4.854   6.114   4.608  1.0475 -1.0560 -0.4613
 2248SOL    HW213350   4.916   6.249   4.585  0.4328 -0.6812  0.0373
 2249SOL     OW13351   4.539   7.138   5.332  0.6551  0.0308  0.2111
 2249SOL    HW113352   4.605   7.154   5.265  0.5480 -0.2327  0.0382
 2249SOL    HW213353   4.457   7.132   5.284  0.3462  1.4172  0.5366
 2250SOL     OW13354   5.680   3.079   0.785 -0.2223 -0.1310 -0.2048
 2250SOL    HW113355   5.662   3.110   0.696  0.8098  1.2544  0.0329
 2250SOL    HW213356   5.771   3.106   0.801 -0.5606  0.0882  1.4568
 2251SOL     OW13357   7.132   2.503  11.491 -0.1435  0.0716 -0.0658
 2251SOL    HW113358   7.160   2.456  11.413  1.1351  1.7739 -0.6746
 2251SOL    HW213359   7.210   2.547  11.523 -0.7369 -0.1968  1.9470
 2252SOL     OW13360   1.762   2.617   4.496  0.0925 -0.2310 -0.1552
 2252SOL    HW113361   1.827   2.657   4.438 -0.8667  2.0816  0.2772
 2252SOL    HW213362   1.809   2.600   4.578  0.5739 -0.2133 -0.4283
 2253SOL     OW13363   7.927   1.099  10.892  0.0889 -0.4544  0.3070
 2253SOL    HW113364   7.986   1.023  10.887  1.3834  0.5447 -0.1238
 2253SOL    HW213365   7.939   1.133  10.980  0.5879  0.0860  0.0319
 2254SOL     OW13366  10.107  11.687   4.899 -0.1532  0.0054 -0.4066
 2254SOL    HW113367  10.115  11.704   4.993  1.4188  1.1863 -0.7247
 2254SOL    HW213368  10.120  11.592   4.890  1.6551  0.1443  0.3947
 2255SOL     OW13369   8.050   0.457   4.049 -0.4136 -0.6769  0.3860
 2255SOL    HW113370   8.086   0.428   3.965  0.9021 -2.4841  1.5148
 2255SOL    HW213371   8.127   0.482   4.100 -1.1813  0.1139  1.1836
 2256SOL     OW13372   1.381   7.155  10.993 -0.2828  0.3113  0.4463
 2256SOL    HW113373   1.315   7.121  10.933 -0.9321  1.6899  0.3284
 2256SOL    HW213374   1.332   7.213  11.051  0.5256 -0.1295  1.5966
 2257SOL     OW13375   6.480  10.394  11.154 -0.8459 -0.9528  0.4331
 2257SOL    HW113376   6.394  10.387  11.113 -1.3568  0.4233  1.1885
 2257SOL    HW213377   6.488  10.315  11.207 -1.0171 -1.7791 -0.7278
 2258SOL     OW13378   4.033   7.385  11.009 -0.6345  0.3672 -0.8105
 2258SOL    HW113379   4.049   7.313  10.948 -0.5759  0.0687 -0.4457
 2258SOL    HW213380   3.944   7.371  11.041 -0.5394  0.3276 -0.5632
 2259SOL     OW13381  11.300   2.701  12.730  0.3085  0.3214 -0.0609
 2259SOL    HW113382  11.331   2.756  12.802 -0.4480 -0.6091  1.0114
 2259SOL    HW213383  11.275   2.619  12.772 -0.5471 -0.0966 -1.3380
 2260SOL     OW13384  10.425  10.399   5.091  0.2493  0.4552  0.1881
 2260SOL    HW113385  10.456  10.489   5.082  1.1496  0.0488 -0.9299
 2260SOL    HW213386  10.449  10.357   5.009 -0.5757 -0.6913  0.5176
 2261SOL     OW13387   7.324  10.890   2.401  0.1528 -0.2677 -0.2169
 2261SOL    HW113388   7.245  10.910   2.352  0.8105  2.6267 -0.2874
 2261SOL    HW213389   7.392  10.881   2.334  0.2987 -0.5790 -0.0328
 2262SOL     OW13390   0.921   8.978   5.229  0.2202 -0.3901 -0.0163
 2262SOL    HW113391   0.938   9.058   5.279 -2.1286  0.0202  0.2179
 2262SOL    HW213392   1.008   8.948   5.202  1.2195  1.8140  0.5256
 2263SOL     OW13393   5.644   6.589  11.617 -0.5919 -0.3600 -0.3007
 2263SOL    HW113394   5.628   6.651  11.688  0.0862  1.0633 -1.3466
 2263SOL    HW213395   5.569   6.529  11.621 -0.5613 -0.3449  1.6003
 2264SOL     OW13396   7.760   7.963   0.677  0.0643  0.0673  0.0800
 2264SOL    HW113397   7.790   7.896   0.616 -0.9049  0.7096 -1.1567
 2264SOL    HW213398   7.733   7.915   0.755  2.3765 -0.6831  0.4824
 2265SOL     OW13399   5.673   1.342   0.240  0.4001  0.0885 -0.8956
 2265SOL    HW113400   5.764   1.343   0.268  0.4319 -0.1364 -0.9928
 2265SOL    HW213401   5.623   1.331   0.321  0.5589 -2.4311 -1.0869
 2266SOL     OW13402   7.819   3.242   2.115 -0.1481 -0.1736  0.7600
 2266SOL    HW113403   7.779   3.159   2.088 -1.0067  0.5744 -0.3377
 2266SOL    HW213404   7.785   3.258   2.203 -0.4113 -0.7054  0.7580
 2267SOL     OW13405   2.313   0.085   7.618  0.6979  0.3172 -0.0236
 2267SOL    HW113406   2.247   0.092   7.549 -0.9736 -0.7327  1.3936
 2267SOL    HW213407   2.367   0.011   7.592 -0.6761 -0.8612  0.3271
 2268SOL     OW13408   2.078  11.859   7.407 -0.1252  0.2090  0.2730
 2268SOL    HW113409   2.064  11.770   7.377 -0.6477  0.6248 -0.7773
 2268SOL    HW213410   2.046  11.860   7.497  2.4610 -1.3356  1.3045
 2269SOL     OW13411   4.660   8.836   0.792  0.2191 -0.3808 -0.1384
 2269SOL    HW113412   4.673   8.821   0.886 -1.2698  1.3599  0.4185
 2269SOL    HW213413   4.697   8.759   0.750 -1.6375 -2.6626  2.0615
 2270SOL     OW13414   6.158   3.638   1.587  0.0009 -0.1145 -0.5219
 2270SOL    HW113415   6.201   3.693   1.652 -0.8757 -0.1754  0.1309
 2270SOL    HW213416   6.218   3.565   1.572  0.8939  0.6851 -0.9308
 2271SOL     OW13417   7.629  10.686   0.724  0.1702  0.1131  0.0432
 2271SOL    HW113418   7.643  10.771   0.683 -0.1212  1.1032  1.9038
 2271SOL    HW213419   7.698  10.678   0.789  1.1366 -1.7965 -1.1141
 2272SOL     OW13420  10.627   2.799   5.328 -0.1338 -0.4397  0.1350
 2272SOL    HW113421  10.626   2.815   5.233 -0.8463 -0.2640  0.1635
 2272SOL    HW213422  10.637   2.705   5.337  1.6106 -0.3221 -0.0785
 2273SOL     OW13423   0.154   7.141   1.548 -0.0411  0.5710 -0.3715
 2273SOL    HW113424   0.234   7.192   1.537  1.0817 -0.9921  0.1543
 2273SOL    HW213425   0.168   7.062   1.495 -1.5884  0.6376 -0.9137
 2274SOL     OW13426   2.612   0.915   9.464  0.2425 -0.0104 -0.1109
 2274SOL    HW113427   2.520   0.922   9.442  0.2212  1.2366  0.2758
 2274SOL    HW213428   2.633   0.998   9.508  1.6866 -0.0185 -0.7120
 2275SOL     OW13429   9.897   8.120   8.901 -0.3860 -0.0603  0.3437
 2275SOL    HW113430   9.990   8.114   8.878 -0.0499 -1.4323  1.9111
 2275SOL    HW213431   9.853   8.131   8.817  1.1297 -0.1335 -0.5063
 2276SOL     OW13432   0.003   5.754  11.908 -0.0505 -0.0819  0.3408
 2276SOL    HW113433  -0.058   5.820  11.876  1.7930  0.8792 -1.4959
 2276SOL    HW213434   0.050   5.798  11.979  1.9311  1.1485 -1.5808
 2277SOL     OW13435   7.967  10.810   3.036 -0.0892 -0.1713  0.0649
 2277SOL    HW113436   7.963  10.725   3.081  0.4680  0.0437  0.5232
 2277SOL    HW213437   8.042  10.854   3.075 -0.6087  0.6929  0.0965
 2278SOL     OW13438   4.019   5.905   1.153 -0.0288 -0.7863  0.2397
 2278SOL    HW113439   4.087   5.972   1.147  0.8613 -1.6377  0.7442
 2278SOL    HW213440   3.996   5.885   1.063  2.4360 -2.5516 -0.0747
 2279SOL     OW13441   9.767   7.962   3.531  0.3660 -0.1301  0.0380
 2279SOL    HW113442   9.847   8.000   3.494  0.5215  0.4954  0.9889
 2279SOL    HW213443   9.707   8.036   3.539  0.7918  0.0536  2.2231
 2280SOL     OW13444   4.643   7.395   7.828  0.1258  0.6416 -0.0548
 2280SOL    HW113445   4.615   7.331   7.762  3.0107 -0.5821 -0.2243
 2280SOL    HW213446   4.683   7.466   7.778 -0.0341  0.9776  0.2844
 2281SOL     OW13447   5.389   9.033  11.672 -0.5239  0.1351  0.7471
 2281SOL    HW113448   5.420   8.964  11.613  0.3655  2.3630 -1.5845
 2281SOL    HW213449   5.460   9.042  11.736  0.3445  0.2919 -0.2093
 2282SOL     OW13450   6.348   9.042   7.781 -0.0766 -0.0013  0.0577
 2282SOL    HW113451   6.430   8.994   7.793 -0.4687 -0.6553  0.1619
 2282SOL    HW213452   6.280   8.982   7.812 -0.7155  0.0177 -1.2628
 2283SOL     OW13453  10.053   6.527  10.139 -0.2669 -0.4086 -0.2176
 2283SOL    HW113454   9.978   6.540  10.081 -0.5379  2.7013  0.6485
 2283SOL    HW213455  10.014   6.502  10.223 -0.1817 -0.6764 -0.2562
 2284SOL     OW13456  12.751  10.216   1.794 -0.8392 -0.6220 -0.1701
 2284SOL    HW113457  12.696  10.169   1.856 -3.4015  0.0202 -1.8190
 2284SOL    HW213458  12.739  10.170   1.711 -0.3618  0.6340 -0.9713
 2285SOL     OW13459   5.232   0.096   3.418  0.0726 -0.2288  0.3527
 2285SOL    HW113460   5.203   0.039   3.489 -0.7429 -1.0516 -0.5938
 2285SOL    HW213461   5.194   0.056   3.339 -0.3267  1.5066 -0.3755
 2286SOL     OW13462   5.517   9.611   2.014  0.4064  0.0925  0.1894
 2286SOL    HW113463   5.534   9.671   2.086  1.2526  1.9904 -1.5064
 2286SOL    HW213464   5.603   9.595   1.975  0.1500 -1.9643  0.3289
 2287SOL     OW13465   4.579   2.541   2.569 -0.2911  0.3753  0.5713
 2287SOL    HW113466   4.544   2.467   2.619 -1.3256  0.7690  0.4718
 2287SOL    HW213467   4.620   2.502   2.493 -0.9497 -0.1004  0.4514
 2288SOL     OW13468   7.207   9.642  12.738  0.0355 -0.0148 -0.0562
 2288SOL    HW113469   7.203   9.558  12.692 -0.9013 -0.2435  0.4171
 2288SOL    HW213470   7.174   9.706  12.675  0.7569  0.0000 -0.4202
 2289SOL     OW13471   6.604   1.776   9.509  0.4551 -0.2374  0.1422
 2289SOL    HW113472   6.599   1.714   9.582  2.2786  1.1544  1.5278
 2289SOL    HW213473   6.562   1.855   9.541 -2.3989 -0.7953 -1.8262
 2290SOL     OW13474   6.757  12.480   1.559 -0.3120  0.5787 -0.2029
 2290SOL    HW113475   6.821  12.511   1.623  0.0539  0.9085 -0.7211
 2290SOL    HW213476   6.755  12.385   1.570 -1.7927  0.7519  1.7529
 2291SOL     OW13477   5.135  12.429   8.035 -0.8142 -0.5146 -0.0109
 2291SOL    HW113478   5.070  12.383   8.089  0.3944  1.6956  3.7269
 2291SOL    HW213479   5.203  12.363   8.019 -1.4015 -1.3627  0.8524
 2292SOL     OW13480  11.354   0.416   2.379  0.1198  0.0529 -0.4295
 2292SOL    HW113481  11.349   0.511   2.384  0.6874  0.0457  0.6536
 2292SOL    HW213482  11.266   0.387   2.403 -0.6485  0.3163 -2.7345
 2293SOL     OW13483  12.664   8.328   8.204  0.4647 -0.6953  0.0371
 2293SOL    HW113484  12.634   8.300   8.117  0.9323  0.7334 -0.6022
 2293SOL    HW213485  12.755   8.353   8.192  0.7651 -1.2042  1.1174
 2294SOL     OW13486   9.625   5.528   5.748  0.9837  0.5815  0.0761
 2294SOL    HW113487   9.707   5.573   5.732  0.8415  0.4801 -1.0095
 2294SOL    HW213488   9.605   5.547   5.840  0.7182  3.0812 -0.4168
 2295SOL     OW13489   1.463   1.227   3.474 -0.3913 -0.2555 -0.0846
 2295SOL    HW113490   1.438   1.135   3.480  1.5094 -0.8741 -0.8250
 2295SOL    HW213491   1.437   1.253   3.385 -1.2566  0.0418  0.2494
 2296SOL     OW13492   7.406   8.637   8.104 -0.2348  0.3390  0.0703
 2296SOL    HW113493   7.344   8.564   8.113  1.5128 -1.0304  1.6322
 2296SOL    HW213494   7.352   8.709   8.071 -2.3170 -1.2368 -0.2219
 2297SOL     OW13495   3.037   4.612   7.274 -0.4408  0.8337  0.7561
 2297SOL    HW113496   2.959   4.636   7.224 -0.9786 -0.2680  1.0177
 2297SOL    HW213497   3.005   4.553   7.342  0.6537  0.1051  0.6800
 2298SOL     OW13498  10.762   7.460   5.074  0.0155  0.3571  0.2894
 2298SOL    HW113499  10.802   7.476   4.989  0.1351 -2.2210 -0.2155
 2298SOL    HW213500  10.668   7.473   5.060  0.0619  0.1950 -0.1627
 2299SOL     OW13501   7.810   8.164   5.355  0.3534  0.6282 -0.4092
 2299SOL    HW113502   7.733   8.221   5.355  0.8035  1.2614 -0.3130
 2299SOL    HW213503   7.883   8.224   5.338  0.8874  0.1338  0.0947
 2300SOL     OW13504   7.542  12.235   1.842 -0.2495  0.2252  0.4106
 2300SOL    HW113505   7.588  12.259   1.922 -2.7587  1.4467  1.5957
 2300SOL    HW213506   7.509  12.147   1.857  0.9007 -0.3122 -0.0988
 2301SOL     OW13507  12.760   5.399   4.433 -0.1923 -1.0003 -0.0400
 2301SOL    HW113508  12.820   5.364   4.499 -0.4692 -1.8603 -0.2331
 2301SOL    HW213509  12.688   5.335   4.430 -0.5858 -0.5368 -0.5789
 2302SOL     OW13510   2.281   5.437  11.109 -0.1379  0.6060 -0.1552
 2302SOL    HW113511   2.308   5.512  11.057 -0.7582  1.1815  0.3390
 2302SOL    HW213512   2.238   5.379  11.045  2.0055 -0.2534 -0.9184
 2303SOL     OW13513   9.079  12.327   3.423  0.0198  0.3290 -0.1806
 2303SOL    HW113514   9.044  12.258   3.366 -1.2130 -0.0243  0.9398
 2303SOL    HW213515   9.128  12.384   3.364 -0.8849 -0.2214 -1.5270
 2304SOL     OW13516   7.977   6.990  10.131  0.1071 -0.1382 -0.1214
 2304SOL    HW113517   7.997   6.900  10.155  1.0152 -0.2426 -1.1632
 2304SOL    HW213518   7.953   7.033  10.214  1.9722 -0.7499  0.7931
 2305SOL     OW13519  12.235  11.918   5.316  0.5369 -0.1397 -0.4418
 2305SOL    HW113520  12.159  11.900   5.261  1.0165 -1.1023 -0.8058
 2305SOL    HW213521  12.240  11.844   5.375  0.7263  0.3167  0.1241
 2306SOL     OW13522   2.018   1.168  12.111  0.3842  0.3656  0.1872
 2306SOL    HW113523   1.952   1.233  12.134  0.4565  0.0782  1.2541
 2306SOL    HW213524   2.003   1.096  12.172  0.8663 -0.2543 -0.4081
 2307SOL     OW13525   8.143  11.748   9.434  0.4634  0.1073  0.6014
 2307SOL    HW113526   8.179  11.769   9.521 -1.6410 -1.3873  1.9222
 2307SOL    HW213527   8.129  11.654   9.436 -0.8470  0.2344 -0.8945
 2308SOL     OW13528  11.409   3.884   1.578 -0.8027  0.1555 -0.5809
 2308SOL    HW113529  11.355   3.836   1.515 -3.2022  0.8238  0.8530
 2308SOL    HW213530  11.376   3.857   1.664  0.1688  1.7053  0.3251
 2309SOL     OW13531   3.233   8.561   3.873 -0.0424  0.2322  0.7881
 2309SOL    HW113532   3.217   8.557   3.967  0.1009  1.6251  0.8912
 2309SOL    HW213533   3.183   8.637   3.843  0.3238  0.1109 -0.1760
 2310SOL     OW13534   1.142  12.063   5.675 -0.0431  0.4406  0.3093
 2310SOL    HW113535   1.046  12.058   5.679 -0.0251  1.0117  2.7352
 2310SOL    HW213536   1.162  12.154   5.697  1.0947 -0.1118  1.7019
 2311SOL     OW13537  10.192   2.404  10.352 -0.2749  0.8143  0.1490
 2311SOL    HW113538  10.175   2.497  10.361  0.5865  0.9433  0.6236
 2311SOL    HW213539  10.243   2.397  10.271  0.6740  0.9231  0.7117
 2312SOL     OW13540   9.362   9.692   2.427 -0.1815  0.1074  0.1204
 2312SOL    HW113541   9.371   9.634   2.503  1.0125 -2.4765 -1.8513
 2312SOL    HW213542   9.269   9.687   2.404 -0.0111 -1.5912 -0.3540
 2313SOL     OW13543  10.429   7.735   7.600  0.5725  0.3860 -0.3658
 2313SOL    HW113544  10.388   7.674   7.660 -0.4944 -0.0957 -1.5375
 2313SOL    HW213545  10.361   7.800   7.581  0.6312  0.1119 -1.6145
 2314SOL     OW13546  12.492   6.741   7.605 -0.3663 -0.1621  0.0396
 2314SOL    HW113547  12.428   6.791   7.554  0.7271  0.0542 -1.1820
 2314SOL    HW213548  12.504   6.792   7.686  1.2373  2.0585 -1.4588
 2315SOL     OW13549  12.429   5.299  10.350 -0.2900 -0.3742 -0.0983
 2315SOL    HW113550  12.468   5.213  10.335  1.5964  0.5869 -1.1834
 2315SOL    HW213551  12.460   5.325  10.437  0.1770 -0.2995 -0.2820
 2316SOL     OW13552   2.333   9.026   9.877 -0.0104  0.1748 -0.4050
 2316SOL    HW113553   2.255   9.074   9.904 -0.3173 -0.8399  0.5644
 2316SOL    HW213554   2.300   8.954   9.823  0.3433  0.2761 -0.7708
 2317SOL     OW13555   9.250   8.736   3.326  0.3977 -0.3458 -0.5569
 2317SOL    HW113556   9.205   8.754   3.409 -0.6529  0.0359 -1.1775
 2317SOL    HW213557   9.297   8.817   3.306  0.9422 -0.5628 -0.1628
 2318SOL     OW13558   6.634   6.276   5.820  0.5850 -0.2257 -0.0138
 2318SOL    HW113559   6.603   6.328   5.746  1.0626  0.3422  0.1738
 2318SOL    HW213560   6.590   6.192   5.810 -1.2745  0.6415  0.4291
 2319SOL     OW13561   0.204   0.210   4.096  0.3669  0.8285 -0.1783
 2319SOL    HW113562   0.269   0.280   4.099  1.6816 -0.3725  0.3662
 2319SOL    HW213563   0.253   0.134   4.065 -0.2781 -0.5977  2.0984
 2320SOL     OW13564   8.996   7.495   1.698  0.0615  0.1997 -0.0222
 2320SOL    HW113565   9.090   7.482   1.708  0.3636  1.9657 -0.3132
 2320SOL    HW213566   8.988   7.566   1.634 -1.5414 -1.6459 -2.0121
 2321SOL     OW13567   7.216   1.157   4.455  0.0197 -0.4414  0.4321
 2321SOL    HW113568   7.132   1.197   4.479  0.4637  0.3828  0.6720
 2321SOL    HW213569   7.244   1.110   4.533 -0.1734 -0.6299  0.3862
 2322SOL     OW13570   2.297  10.178  10.168  0.0071  0.3786 -0.2983
 2322SOL    HW113571   2.384  10.187  10.208 -0.1701 -0.3108  0.2664
 2322SOL    HW213572   2.253  10.261  10.187 -0.2804 -0.1459  1.4793
 2323SOL     OW13573   2.654   9.543   3.666 -0.0188  0.6221 -0.2771
 2323SOL    HW113574   2.589   9.576   3.727  1.0354  1.8665  0.2202
 2323SOL    HW213575   2.634   9.450   3.658  0.7434 -0.0189  3.2871
 2324SOL     OW13576   3.575   0.491   7.785  0.2909 -0.0867 -0.1613
 2324SOL    HW113577   3.629   0.506   7.863  1.1883  0.7018 -0.9037
 2324SOL    HW213578   3.586   0.570   7.733 -0.3387 -0.5803 -1.0754
 2325SOL     OW13579   4.171   8.054   3.555  0.2029  0.1313 -0.5032
 2325SOL    HW113580   4.255   8.060   3.509  1.6557  0.1894  2.0148
 2325SOL    HW213581   4.134   8.142   3.546  0.8339  0.3748 -0.8482
 2326SOL     OW13582   0.533   5.203   7.890 -0.0860  0.7729 -0.2375
 2326SOL    HW113583   0.529   5.215   7.985  1.7707  0.9136 -0.1482
 2326SOL    HW213584   0.581   5.279   7.858  1.1604 -0.3139 -1.0367
 2327SOL     OW13585   0.292   9.510   1.162 -0.2434  0.1021 -0.1322
 2327SOL    HW113586   0.212   9.469   1.127  1.2066 -0.4569 -3.1333
 2327SOL    HW213587   0.287   9.601   1.132  0.1293  0.1108 -0.1752
 2328SOL     OW13588   5.956   3.221   3.611  0.1094  0.7282 -0.0179
 2328SOL    HW113589   5.892   3.290   3.631  0.7152  1.3917 -0.3288
 2328SOL    HW213590   5.914   3.168   3.544 -0.3955  0.7439  0.2813
 2329SOL     OW13591   6.042  12.338   5.719  0.8541  0.1679 -0.1577
 2329SOL    HW113592   6.023  12.245   5.717  1.6984 -0.0366  0.6402
 2329SOL    HW213593   5.960  12.379   5.749  0.3943 -0.2728 -0.7911
 2330SOL     OW13594   4.293   9.913   8.215  0.1864 -0.3495  0.2068
 2330SOL    HW113595   4.248   9.953   8.289 -0.9034  0.7896 -1.0208
 2330SOL    HW213596   4.373   9.876   8.253 -0.2611  0.3217  1.9092
 2331SOL     OW13597   9.022   4.159  11.028  0.2123  0.0563  0.5362
 2331SOL    HW113598   8.989   4.238  11.071  2.6766  1.6522 -0.2294
 2331SOL    HW213599   8.979   4.158  10.942 -0.9212 -0.2903  1.0932
 2332SOL     OW13600   9.224   1.521   7.195 -0.0384 -0.5133  0.2463
 2332SOL    HW113601   9.300   1.565   7.157  0.3917 -1.0251  0.4920
 2332SOL    HW213602   9.202   1.452   7.132  0.3672 -1.0431  0.6704
 2333SOL     OW13603  10.523  10.151   4.196 -0.4283 -0.2903 -0.3395
 2333SOL    HW113604  10.592  10.181   4.136  0.4378  0.6578  1.0706
 2333SOL    HW213605  10.453  10.121   4.138 -0.0314  1.4836 -1.8585
 2334SOL     OW13606  10.670  11.029   7.727 -0.3640 -0.2144 -0.2240
 2334SOL    HW113607  10.711  11.099   7.676 -1.1553 -0.7438 -1.6282
 2334SOL    HW213608  10.744  10.977   7.759  0.1616 -0.1513 -1.2723
 2335SOL     OW13609   3.183  11.503  11.556  0.4680 -0.2388  0.3585
 2335SOL    HW113610   3.121  11.546  11.497  0.6455 -0.8410 -0.2748
 2335SOL    HW213611   3.156  11.532  11.644  0.5125  1.0653 -0.0366
 2336SOL     OW13612   8.018  12.042   9.375 -0.5158 -0.1079 -0.0032
 2336SOL    HW113613   7.992  11.999   9.294 -1.8389 -0.1293  0.4058
 2336SOL    HW213614   8.056  11.972   9.429 -1.8080 -0.5966  0.3011
 2337SOL     OW13615   2.401   2.896  12.488  0.1786 -0.1723  0.2238
 2337SOL    HW113616   2.436   2.972  12.534 -0.6119 -0.2300  0.9412
 2337SOL    HW213617   2.323   2.871  12.537 -1.0989  0.1623 -1.5098
 2338SOL     OW13618   1.904  10.947   8.090  0.3854 -0.0305  0.2534
 2338SOL    HW113619   1.810  10.940   8.109  0.2912 -0.5208 -0.3781
 2338SOL    HW213620   1.920  10.883   8.021  0.9866  0.7809 -0.3874
 2339SOL     OW13621   3.662   3.547   1.426  0.6443 -0.0266  0.1215
 2339SOL    HW113622   3.737   3.503   1.387  1.3359 -0.9541  2.3493
 2339SOL    HW213623   3.685   3.557   1.518 -0.4866  2.9265  0.1956
 2340SOL     OW13624   2.213   4.582   2.772  0.2005  0.8140 -0.0921
 2340SOL    HW113625   2.126   4.599   2.808 -0.3484 -0.5887 -0.7037
 2340SOL    HW213626   2.198   4.567   2.679  0.9703 -0.3021 -0.0550
 2341SOL     OW13627   5.882   2.053   0.480  0.6622  0.0420 -0.1089
 2341SOL    HW113628   5.891   2.116   0.552  1.3381 -0.1739  0.0090
 2341SOL    HW213629   5.949   2.080   0.417 -0.5049  0.7596 -1.0712
 2342SOL     OW13630   4.174   8.548   6.459 -0.2472  0.2531  0.1119
 2342SOL    HW113631   4.239   8.596   6.407 -0.0425  2.1310  1.9497
 2342SOL    HW213632   4.092   8.560   6.411  0.5680 -1.6065 -1.8997
 2343SOL     OW13633   0.261   1.452   9.252  0.7234  0.0119 -0.0644
 2343SOL    HW113634   0.306   1.370   9.269  0.7110  0.2640  1.3573
 2343SOL    HW213635   0.328   1.509   9.214  0.7744 -0.5954 -0.8857
 2344SOL     OW13636  10.695   9.448   0.339 -0.1479  0.7552  0.0402
 2344SOL    HW113637  10.657   9.430   0.425  0.0557  2.1793  0.4524
 2344SOL    HW213638  10.646   9.524   0.306  1.0069  1.3984 -0.2601
 2345SOL     OW13639  11.552   8.715  12.030 -0.4375 -0.1544  0.3166
 2345SOL    HW113640  11.550   8.641  12.091 -1.3779  1.4364  2.3725
 2345SOL    HW213641  11.473   8.765  12.051  1.1589  2.4942  0.4721
 2346SOL     OW13642   0.410  10.140  12.399 -0.1072 -0.5884 -0.0008
 2346SOL    HW113643   0.415  10.087  12.479 -0.8148 -0.5970  0.0453
 2346SOL    HW213644   0.462  10.092  12.335  1.2605 -0.1037  0.7021
 2347SOL     OW13645   1.683   9.080   9.582 -0.0520  0.4689 -0.6871
 2347SOL    HW113646   1.599   9.124   9.575  0.6959  2.1967  0.4967
 2347SOL    HW213647   1.670   9.014   9.650 -0.4035  0.8857 -0.3450
 2348SOL     OW13648   0.179   1.434   8.866  0.3893  0.4033  0.2027
 2348SOL    HW113649   0.225   1.353   8.847  0.6575  0.3126  1.2151
 2348SOL    HW213650   0.248   1.500   8.877  0.2561  0.4228  0.9767
 2349SOL     OW13651  11.885  12.447   7.404  0.0601 -0.2551  0.0927
 2349SOL    HW113652  11.826  12.382   7.364 -0.5066  0.6806 -0.6310
 2349SOL    HW213653  11.961  12.396   7.431  0.8023 -0.8862 -2.8037
 2350SOL     OW13654  11.687   9.508   8.361  0.1157 -0.1491  0.3274
 2350SOL    HW113655  11.610   9.504   8.418  0.4947  1.5930  1.0325
 2350SOL    HW213656  11.685   9.596   8.324  0.9113 -0.6233 -0.9088
 2351SOL     OW13657   4.848   1.157   4.090  0.2213 -0.2078 -0.0146
 2351SOL    HW113658   4.797   1.079   4.109 -1.8319  1.5067  2.1085
 2351SOL    HW213659   4.885   1.141   4.003 -2.9947 -2.1040 -1.1833
 2352SOL     OW13660   8.513   6.092   5.902 -0.0668  0.2894 -0.3880
 2352SOL    HW113661   8.588   6.035   5.917  0.8171  1.8643  1.5814
 2352SOL    HW213662   8.438   6.042   5.935  0.6675  0.1561  1.1663
 2353SOL     OW13663   3.019   5.323   1.579  0.9878  0.3305  0.0973
 2353SOL    HW113664   2.995   5.330   1.487 -2.2905 -1.3570  0.6662
 2353SOL    HW213665   3.063   5.239   1.586 -0.5666 -0.4945  0.3241
 2354SOL     OW13666   8.607   2.649   5.923 -0.3789  0.1200  0.5823
 2354SOL    HW113667   8.539   2.692   5.974 -0.9516 -0.1350  0.0391
 2354SOL    HW213668   8.571   2.564   5.902  0.1792 -0.0821  0.4259
 2355SOL     OW13669   7.606   5.565  12.621  0.0401 -0.6147  0.1709
 2355SOL    HW113670   7.523   5.548  12.578 -0.1741  1.0012 -0.1091
 2355SOL    HW213671   7.627   5.656  12.600  0.9852 -0.4200  1.7137
 2356SOL     OW13672  12.779   9.646   5.379 -0.5168 -0.0801  0.4751
 2356SOL    HW113673  12.841   9.608   5.442 -2.9716  0.5299  3.5258
 2356SOL    HW213674  12.797   9.740   5.381  0.7143 -0.2149 -1.4363
 2357SOL     OW13675  10.055   6.550   8.207  0.0084  0.2086 -0.1664
 2357SOL    HW113676  10.045   6.476   8.266  0.6293  0.4806  0.2786
 2357SOL    HW213677  10.023   6.625   8.256  3.5749  1.0336  1.1307
 2358SOL     OW13678  11.049   7.720   8.252  0.6550  0.1518  0.3926
 2358SOL    HW113679  11.065   7.776   8.327  1.3222  1.0108 -0.3803
 2358SOL    HW213680  11.078   7.633   8.280 -1.0578 -0.0151  1.8485
 2359SOL     OW13681   1.025   6.384   0.338  0.3958  0.3216 -0.1864
 2359SOL    HW113682   0.992   6.394   0.249  0.7680 -0.0103 -0.3633
 2359SOL    HW213683   1.093   6.451   0.347  0.0260  0.6722  0.0090
 2360SOL     OW13684   1.240   2.301   1.611  0.2730  0.1381  0.2188
 2360SOL    HW113685   1.154   2.331   1.581 -0.1643 -1.2413  0.0671
 2360SOL    HW213686   1.295   2.304   1.533  0.3728  0.9956  0.3099
 2361SOL     OW13687   4.922   3.626   1.910  0.4149  0.3674 -0.3167
 2361SOL    HW113688   5.005   3.673   1.916  1.1854 -1.0540  0.3225
 2361SOL    HW213689   4.881   3.661   1.830  2.7885 -0.7175 -2.1338
 2362SOL     OW13690   0.868   2.817   9.220  0.0086 -0.9590 -0.7984
 2362SOL    HW113691   0.908   2.827   9.134 -0.0643  0.3764 -0.6920
 2362SOL    HW213692   0.923   2.752   9.265 -0.4568 -2.3399 -2.1208
 2363SOL     OW13693  10.331   4.076   0.576  0.1933 -0.6581  0.2750
 2363SOL    HW113694  10.404   4.130   0.548 -0.6556  1.0875  1.2311
 2363SOL    HW213695  10.360   4.037   0.658  0.8379 -1.7652 -0.4578
 2364SOL     OW13696   4.417  12.310   1.258 -0.1618 -0.4078  0.8522
 2364SOL    HW113697   4.415  12.349   1.170  1.3193 -3.2844 -0.5609
 2364SOL    HW213698   4.327  12.281   1.273 -0.5099  0.4454  0.4776
 2365SOL     OW13699  10.622  10.263   9.402 -0.5985  0.3327  0.2010
 2365SOL    HW113700  10.673  10.306   9.471  0.6492 -3.8068  2.1871
 2365SOL    HW213701  10.537  10.245   9.443 -0.8284  0.2322 -0.3138
 2366SOL     OW13702   1.856   1.358  12.183  0.2301 -0.3184 -0.2482
 2366SOL    HW113703   1.765   1.356  12.213  0.2988  2.2707  0.3310
 2366SOL    HW213704   1.878   1.451  12.179  2.8358 -0.8728 -0.4588
 2367SOL     OW13705  10.500   9.594   4.834  0.5101  0.0395  0.3280
 2367SOL    HW113706  10.429   9.652   4.861  0.7034  0.2360  0.4093
 2367SOL    HW213707  10.531   9.631   4.751  0.4021 -0.1476  0.2007
 2368SOL     OW13708  10.227   9.532   2.289  0.0650 -0.3460 -0.2408
 2368SOL    HW113709  10.277   9.489   2.219 -0.3432 -2.4835  0.7244
 2368SOL    HW213710  10.187   9.461   2.338 -2.3181  1.2181  0.2534
 2369SOL     OW13711   2.227   2.362   8.661  0.4062  0.4657 -0.1737
 2369SOL    HW113712   2.190   2.450   8.666 -1.4777 -0.3018  0.5049
 2369SOL    HW213713   2.291   2.359   8.733 -0.9594  0.6916  1.1007
 2370SOL     OW13714   3.166   6.917  10.815  0.6336  0.3404 -0.3122
 2370SOL    HW113715   3.242   6.970  10.839 -0.7793  2.0672  0.5125
 2370SOL    HW213716   3.148   6.940  10.724  1.2413 -0.3128 -0.6149
 2371SOL     OW13717   9.317  12.520   5.384  0.0602 -0.4309  0.3580
 2371SOL    HW113718   9.366  12.601   5.398  0.9311 -0.9211  0.1768
 2371SOL    HW213719   9.322  12.504   5.290 -0.6107 -0.3882  0.3110
 2372SOL     OW13720  10.541  11.454  11.894  0.1875 -0.2129 -0.2776
 2372SOL    HW113721  10.575  11.369  11.868 -1.5030 -0.6778 -1.1358
 2372SOL    HW213722  10.554  11.510  11.818  0.7227  0.1420  0.0655
 2373SOL     OW13723   4.014  10.999   5.443 -0.8539 -0.1035  0.0122
 2373SOL    HW113724   4.030  10.947   5.364 -1.0524  0.6406 -0.5301
 2373SOL    HW213725   3.951  11.065   5.415 -0.9946  0.1094  0.8272
 2374SOL     OW13726   5.784   8.381   0.065  0.1409  0.5287 -0.4440
 2374SOL    HW113727   5.850   8.418   0.124 -0.5375  1.7922 -0.4483
 2374SOL    HW213728   5.719   8.342   0.124 -1.2446  2.9735 -0.1937
 2375SOL     OW13729   7.797   3.521  10.177  0.5326 -0.4051  0.2743
 2375SOL    HW113730   7.841   3.485  10.099 -1.7885 -0.7053 -0.9914
 2375SOL    HW213731   7.809   3.616  10.169 -0.8782 -0.3101 -1.3033
 2376SOL     OW13732  11.714   9.237   1.055  0.6830  0.0549 -0.3271
 2376SOL    HW113733  11.682   9.158   1.099  0.9493  1.7581  3.2591
 2376SOL    HW213734  11.809   9.235   1.068  0.4783  2.1056  2.1080
 2377SOL     OW13735   7.333   5.897   0.490 -0.3290 -0.2705 -0.3954
 2377SOL    HW113736   7.388   5.941   0.555  1.2505  0.2441 -2.0305
 2377SOL    HW213737   7.329   5.958   0.416 -2.2563 -0.7558 -0.7567
 2378SOL     OW13738   1.397  11.847   1.597  0.3122 -0.2898  0.2659
 2378SOL    HW113739   1.359  11.828   1.683  0.7714  1.3819  0.8992
 2378SOL    HW213740   1.485  11.809   1.601  0.3091 -0.2756  0.5172
 2379SOL     OW13741   2.676   9.869   3.970  0.0188  0.7010 -0.1848
 2379SOL    HW113742   2.668   9.949   4.022  1.2459  1.1351 -0.6296
 2379SOL    HW213743   2.589   9.855   3.933 -1.2332 -0.2136  2.7612
 2380SOL     OW13744  10.974  12.142   6.665 -0.5191  0.6300 -0.2804
 2380SOL    HW113745  10.977  12.064   6.609  0.4414  1.7979 -1.9186
 2380SOL    HW213746  10.903  12.124   6.727  1.1912 -2.6089  1.0240
 2381SOL     OW13747   3.582  11.726   9.346 -0.5335  0.4754  0.3086
 2381SOL    HW113748   3.570  11.767   9.432  1.0961  1.3734  0.1568
 2381SOL    HW213749   3.568  11.633   9.362 -0.6032  0.6690  1.4843
 2382SOL     OW13750   1.838   8.369   0.068 -0.5436 -0.8851 -0.0653
 2382SOL    HW113751   1.798   8.341   0.150  0.9243 -0.9005  0.6776
 2382SOL    HW213752   1.770   8.423   0.025 -1.0342 -0.1666  1.5433
 2383SOL     OW13753   0.811   5.958   4.613 -0.2238 -0.6589  0.4125
 2383SOL    HW113754   0.766   6.042   4.617 -0.8117 -1.0219  3.3245
 2383SOL    HW213755   0.902   5.978   4.637 -0.0961 -0.7369  0.0180
 2384SOL     OW13756  11.458   5.034   9.466  0.4557 -0.3547 -0.0640
 2384SOL    HW113757  11.524   5.011   9.401  0.8356  1.1396 -0.2345
 2384SOL    HW213758  11.374   5.021   9.422  0.6706 -0.8291 -0.3357
 2385SOL     OW13759   6.432  11.914   2.274 -0.6139  0.2735 -0.0515
 2385SOL    HW113760   6.472  11.886   2.357 -1.7047  0.1192  0.4414
 2385SOL    HW213761   6.506  11.929   2.215  0.1113 -2.0618  0.1742
 2386SOL     OW13762   2.024   9.027   6.891  0.5980  0.7960 -0.1134
 2386SOL    HW113763   2.011   8.989   6.803  0.2479  2.4194 -0.7950
 2386SOL    HW213764   2.024   9.121   6.876  0.8909  1.0904  1.6116
 2387SOL     OW13765   5.414   2.631   4.409 -0.0558  0.3575 -0.4881
 2387SOL    HW113766   5.382   2.707   4.361  0.7738  0.4935 -0.8415
 2387SOL    HW213767   5.372   2.556   4.365 -1.7358  0.6455  0.5513
 2388SOL     OW13768   5.999   4.683  12.372 -0.6047 -0.0404  0.0902
 2388SOL    HW113769   6.018   4.606  12.426  1.8256 -0.1777 -0.8651
 2388SOL    HW213770   6.055   4.752  12.408  0.3341  0.1236 -1.6186
 2389SOL     OW13771  11.686   5.953  10.710 -0.9308 -0.5964 -0.2523
 2389SOL    HW113772  11.702   5.867  10.748 -0.4776 -0.7621 -0.7970
 2389SOL    HW213773  11.649   5.934  10.624 -1.4805 -0.2369 -0.1004
 2390SOL     OW13774   3.502   9.436   4.937  0.2653 -0.1775  0.2955
 2390SOL    HW113775   3.490   9.531   4.934 -0.3765 -0.0608  3.2468
 2390SOL    HW213776   3.585   9.423   4.984  0.0271 -1.0797  0.4919
 2391SOL     OW13777  10.172  12.206   7.012 -0.5221 -0.1217  0.0603
 2391SOL    HW113778  10.181  12.136   6.947 -0.7554  0.2748 -0.4115
 2391SOL    HW213779  10.231  12.275   6.981 -0.9186  0.2212  0.0591
 2392SOL     OW13780   9.567   3.432   7.514  0.8664  0.3833  0.1632
 2392SOL    HW113781   9.646   3.486   7.518  0.7920  0.4428  1.0954
 2392SOL    HW213782   9.502   3.481   7.566 -0.1954  0.9815 -1.6428
 2393SOL     OW13783   6.625  10.701   6.506 -0.5110 -0.0907 -0.5078
 2393SOL    HW113784   6.559  10.768   6.492 -0.3552  0.3061  0.5372
 2393SOL    HW213785   6.658  10.681   6.419 -0.3427  1.4290 -0.8234
 2394SOL     OW13786  10.799   0.695   3.499 -0.4895  0.1671 -0.1547
 2394SOL    HW113787  10.863   0.632   3.464 -0.5527  0.2602 -0.4389
 2394SOL    HW213788  10.726   0.691   3.438  0.2230  1.8018 -1.1708
 2395SOL     OW13789   6.134  10.333  11.211 -0.1397  0.2096 -0.3499
 2395SOL    HW113790   6.191  10.347  11.135 -0.8303  0.8983 -0.7658
 2395SOL    HW213791   6.123  10.420  11.249 -0.3458 -0.0293  0.1447
 2396SOL     OW13792   3.809   9.509   3.198  0.4084 -0.6129 -0.1033
 2396SOL    HW113793   3.862   9.444   3.244 -1.7260 -2.6987 -0.4185
 2396SOL    HW213794   3.771   9.563   3.268  0.6230 -0.9718  0.2883
 2397SOL     OW13795   5.264   6.362   7.084  0.3545 -0.3771 -0.0602
 2397SOL    HW113796   5.255   6.457   7.075 -1.1191 -0.1727  2.5757
 2397SOL    HW213797   5.341   6.350   7.140  0.6638 -0.7616 -0.5596
 2398SOL     OW13798   2.867   9.131   9.311  0.6674 -0.3455  0.0096
 2398SOL    HW113799   2.830   9.219   9.314 -1.7329 -1.0904 -2.7140
 2398SOL    HW213800   2.798   9.075   9.348  1.2311 -1.2937 -0.3470
 2399SOL     OW13801   5.773   9.756   4.775 -0.6665 -0.2608 -0.0361
 2399SOL    HW113802   5.800   9.679   4.724 -0.5708 -1.0634  1.1814
 2399SOL    HW213803   5.810   9.741   4.862  0.0341  1.5700  0.0238
 2400SOL     OW13804   5.326   7.605   1.085  0.1685  0.3878  0.2045
 2400SOL    HW113805   5.255   7.614   1.149 -1.2257 -0.0418 -1.2131
 2400SOL    HW213806   5.346   7.695   1.059  0.0702  0.5052  0.5223
 2401SOL     OW13807   2.161   4.616   6.331  0.5922  0.4983  0.0133
 2401SOL    HW113808   2.238   4.587   6.283 -0.1724 -1.5128 -0.1059
 2401SOL    HW213809   2.166   4.570   6.415 -1.5223 -1.4234 -0.8109
 2402SOL     OW13810   9.532   2.723  10.845 -0.3419  0.1764  0.4291
 2402SOL    HW113811   9.496   2.697  10.930 -0.6556  0.2846  0.3294
 2402SOL    HW213812   9.588   2.798  10.865 -2.0340  1.5596  0.2875
 2403SOL     OW13813  11.843   6.675   8.777  0.6471 -0.7285 -0.5274
 2403SOL    HW113814  11.841   6.669   8.681  1.0696  1.2206 -0.6994
 2403SOL    HW213815  11.762   6.720   8.800  1.1988  0.0869 -0.1166
 2404SOL     OW13816   6.465   1.586   4.666 -0.3007 -0.3862 -0.4080
 2404SOL    HW113817   6.463   1.493   4.645 -2.9555 -0.6794  0.6519
 2404SOL    HW213818   6.431   1.629   4.587  1.7471 -0.1713 -1.2221
 2405SOL     OW13819   8.295   0.321   0.706 -0.1165 -0.2859  0.1829
 2405SOL    HW113820   8.212   0.288   0.740  0.3860 -1.9018 -0.0606
 2405SOL    HW213821   8.359   0.302   0.775  0.2346 -0.0476 -0.0705
 2406SOL     OW13822  11.650   8.155   9.540  0.3577 -0.2770 -0.3854
 2406SOL    HW113823  11.675   8.111   9.459  0.2045 -0.6001 -0.2599
 2406SOL    HW213824  11.557   8.133   9.551 -0.8665  3.2168 -2.3470
 2407SOL     OW13825   2.348  11.332   3.331  0.6686  0.7076 -0.0032
 2407SOL    HW113826   2.303  11.354   3.412  0.8829  0.6860  0.1237
 2407SOL    HW213827   2.350  11.414   3.281 -0.2563  0.5116 -0.3796
 2408SOL     OW13828   3.607  11.785   4.168 -0.0585  0.4784  0.0331
 2408SOL    HW113829   3.697  11.812   4.187  0.2169  0.2555 -0.9253
 2408SOL    HW213830   3.589  11.716   4.232  1.0493 -0.6642 -0.8481
 2409SOL     OW13831  12.131   1.940  10.712 -0.2117 -1.2379 -0.4583
 2409SOL    HW113832  12.224   1.962  10.710 -0.4017 -0.3723 -0.0189
 2409SOL    HW213833  12.129   1.844  10.720  0.6375 -1.2627 -0.5129
 2410SOL     OW13834   1.498   6.911  11.060 -0.1678  0.0540  0.0065
 2410SOL    HW113835   1.508   6.933  11.152  0.5316  1.4290 -0.3717
 2410SOL    HW213836   1.448   6.984  11.022  0.7919  0.2417 -0.9623
 2411SOL     OW13837   4.756  11.653  12.759  0.0019  0.2046 -0.4697
 2411SOL    HW113838   4.830  11.631  12.702 -0.4880 -1.7564 -0.3973
 2411SOL    HW213839   4.796  11.705  12.830  1.2188 -0.3755 -0.7062
 2412SOL     OW13840   2.217   4.507   4.807  0.4882 -0.2020 -0.3092
 2412SOL    HW113841   2.201   4.454   4.729  0.0810 -0.7726  0.1475
 2412SOL    HW213842   2.313   4.509   4.815  0.5934  0.8226 -1.4468
 2413SOL     OW13843   4.297  12.306   9.018 -0.4310  0.4726  0.3657
 2413SOL    HW113844   4.229  12.309   9.085 -1.0690 -0.7461 -0.1876
 2413SOL    HW213845   4.314  12.213   9.006  1.8644  0.7551  0.9789
 2414SOL     OW13846   2.274  12.379  12.119  0.0072 -0.5141 -0.3590
 2414SOL    HW113847   2.314  12.447  12.173 -1.1069 -0.2662  0.1971
 2414SOL    HW213848   2.347  12.324  12.091  0.8182  0.3811 -0.0640
 2415SOL     OW13849   2.396  11.584   8.985 -0.1720  0.2342  0.5363
 2415SOL    HW113850   2.344  11.528   9.043  2.4731 -2.2541  0.7320
 2415SOL    HW213851   2.421  11.658   9.041 -0.3937 -0.4441  1.5779
 2416SOL     OW13852   1.865  12.783   3.297 -0.1381  0.5362 -0.3370
 2416SOL    HW113853   1.878  12.875   3.321  1.3645  0.0243  0.9204
 2416SOL    HW213854   1.781  12.783   3.250 -0.9790  2.2977  1.0371
 2417SOL     OW13855   1.540   1.437   4.766 -0.4995 -0.1883  0.0249
 2417SOL    HW113856   1.561   1.344   4.758  0.0999 -0.1396  0.8598
 2417SOL    HW213857   1.612   1.473   4.819  0.0756  1.0540 -1.5386
 2418SOL     OW13858   6.434   6.683   8.157  0.2975  0.0191  0.6434
 2418SOL    HW113859   6.386   6.681   8.240 -1.5102  0.3548 -0.3419
 2418SOL    HW213860   6.466   6.773   8.150  0.7780 -0.1084  1.1435
 2419SOL     OW13861  10.624   6.621  10.070  0.0386  0.1568 -0.1816
 2419SOL    HW113862  10.593   6.610  10.160  1.6857 -0.1399  0.3845
 2419SOL    HW213863  10.643   6.715  10.062  0.7549  0.0448  0.1004
 2420SOL     OW13864   6.088   1.242   5.886  0.1805  0.2713 -0.2210
 2420SOL    HW113865   6.071   1.334   5.867  0.4395  0.4768  0.5126
 2420SOL    HW213866   6.182   1.236   5.901 -0.0474  0.2153  1.3753
 2421SOL     OW13867   5.556   5.003   2.728 -0.6324 -0.5556 -0.2621
 2421SOL    HW113868   5.552   5.037   2.818 -0.0999  0.8229 -0.7205
 2421SOL    HW213869   5.468   4.972   2.710 -0.6042 -1.4114  0.9260
 2422SOL     OW13870   8.504  10.667   9.049  0.0983  0.4806  0.0062
 2422SOL    HW113871   8.596  10.653   9.071 -0.1934 -1.1930  0.3205
 2422SOL    HW213872   8.503  10.681   8.955  0.5978 -0.4968 -0.1550
 2423SOL     OW13873   7.545  10.373   0.882 -0.7210 -0.2750 -0.3502
 2423SOL    HW113874   7.526  10.282   0.861 -2.2013 -0.0443 -0.1302
 2423SOL    HW213875   7.640  10.378   0.883 -0.5806 -2.0517  0.6036
 2424SOL     OW13876  11.435  10.677   6.956  0.3969  0.0338 -0.1153
 2424SOL    HW113877  11.356  10.707   6.910  1.0674  1.6258 -0.2929
 2424SOL    HW213878  11.432  10.722   7.041  2.2147  1.9757 -0.9821
 2425SOL     OW13879   7.919   9.366   1.329  0.1737  0.1058 -0.0314
 2425SOL    HW113880   7.871   9.283   1.333 -0.2573  0.2561 -1.3288
 2425SOL    HW213881   7.899   9.400   1.241  1.4083  0.9421 -0.0098
 2426SOL     OW13882   5.079   1.176  12.316  0.4867 -0.4543 -0.3825
 2426SOL    HW113883   5.073   1.235  12.392 -1.6076  0.6685 -1.3506
 2426SOL    HW213884   5.064   1.232  12.240  0.2983 -1.9392 -1.4897
 2427SOL     OW13885  10.451  10.364  11.291  0.0833 -0.2432  0.1151
 2427SOL    HW113886  10.487  10.285  11.331 -0.1367  0.1185  1.0544
 2427SOL    HW213887  10.414  10.335  11.208  0.9470 -0.9366 -0.0447
 2428SOL     OW13888   8.404   1.580   7.037  0.4337 -0.2441  0.2331
 2428SOL    HW113889   8.362   1.514   6.982  2.3952 -0.1549 -1.5160
 2428SOL    HW213890   8.353   1.659   7.022 -2.1193 -1.2817  2.5702
 2429SOL     OW13891   5.245   5.804  11.702 -0.2898  0.0820 -0.0111
 2429SOL    HW113892   5.270   5.854  11.624  0.0701  0.1832  0.1652
 2429SOL    HW213893   5.172   5.750  11.674 -1.2273  1.2992 -0.0087
 2430SOL     OW13894  10.977   7.918  11.442 -0.1442  0.2147 -0.2939
 2430SOL    HW113895  10.953   7.868  11.364  1.3128 -0.3043 -0.4309
 2430SOL    HW213896  11.068   7.944  11.427 -0.0681  0.7105  0.9262
 2431SOL     OW13897   5.558   5.813   9.053  0.5503 -0.3020  0.2762
 2431SOL    HW113898   5.635   5.828   9.107  0.5715 -2.5757  0.9927
 2431SOL    HW213899   5.494   5.776   9.114 -0.4000 -0.3420 -0.7221
 2432SOL     OW13900  12.580   0.315  11.289 -0.2862 -0.3070 -0.3071
 2432SOL    HW113901  12.633   0.393  11.271 -0.1359 -0.0448  1.1316
 2432SOL    HW213902  12.553   0.325  11.380  0.6717 -2.4824  0.2921
 2433SOL     OW13903   0.587  11.411   5.901  0.4837  0.4564  0.3376
 2433SOL    HW113904   0.514  11.384   5.846  1.0878 -0.7019  0.0734
 2433SOL    HW213905   0.554  11.402   5.990 -0.0407  0.9862  0.2033
 2434SOL     OW13906   6.497   6.870  12.140  0.4641 -0.2909 -0.1041
 2434SOL    HW113907   6.536   6.917  12.067  0.6882  0.3000  0.3848
 2434SOL    HW213908   6.470   6.939  12.201  1.0250 -0.8036  0.7458
 2435SOL     OW13909   1.804  11.667   7.891  0.6461 -0.0537  0.6469
 2435SOL    HW113910   1.733  11.611   7.859 -0.6258  1.9820 -0.3546
 2435SOL    HW213911   1.881  11.638   7.842  0.3263 -1.7074  1.0728
 2436SOL     OW13912   2.470  11.980   2.800  0.0065  0.1777 -0.3730
 2436SOL    HW113913   2.467  11.956   2.707  1.0818  1.3005 -0.7306
 2436SOL    HW213914   2.405  12.049   2.809  0.1735  0.3365 -0.3801
 2437SOL     OW13915   7.558   7.050   7.425 -0.3460 -0.4913  0.1466
 2437SOL    HW113916   7.557   7.059   7.330 -0.0557 -0.6722  0.1259
 2437SOL    HW213917   7.490   7.109   7.456  0.7025  0.8796 -0.0657
 2438SOL     OW13918   5.233   0.477  12.318 -0.4035 -0.1810  0.2035
 2438SOL    HW113919   5.306   0.486  12.256 -1.5505  0.2084 -1.1340
 2438SOL    HW213920   5.214   0.383  12.318 -1.0308 -0.0744 -0.8292
 2439SOL     OW13921   2.392   8.560   2.232 -0.2134  0.0239  0.6574
 2439SOL    HW113922   2.365   8.649   2.253  2.3152  1.6332 -2.2106
 2439SOL    HW213923   2.464   8.542   2.292  1.2148  1.1365 -0.6664
 2440SOL     OW13924   5.918   1.541   4.890 -0.3510  0.0814 -0.2098
 2440SOL    HW113925   6.005   1.545   4.930 -0.5978 -0.6924  0.4346
 2440SOL    HW213926   5.909   1.450   4.861 -0.0496  0.6892 -2.3747
 2441SOL     OW13927   9.010   0.481  12.399 -0.7138 -0.0468  0.1737
 2441SOL    HW113928   9.053   0.565  12.381 -2.2369  0.5827 -0.6758
 2441SOL    HW213929   9.045   0.455  12.484  2.5959 -0.4157 -1.1362
 2442SOL     OW13930   9.845   1.539   6.742 -0.3427 -0.0280 -0.2425
 2442SOL    HW113931   9.887   1.474   6.798  2.0381  1.9935  0.4804
 2442SOL    HW213932   9.897   1.540   6.662 -0.5867  0.6971 -0.3982
 2443SOL     OW13933   8.930   8.497   9.449  0.6290  0.1239  0.0267
 2443SOL    HW113934   8.906   8.405   9.463 -0.7451  0.7678  2.2780
 2443SOL    HW213935   8.873   8.546   9.508  1.3121  2.4543 -1.1542
 2444SOL     OW13936  10.918   1.125   1.504  0.1106 -0.0943  0.3602
 2444SOL    HW113937  10.858   1.053   1.523  1.3517 -1.3281 -0.1413
 2444SOL    HW213938  10.879   1.171   1.430  0.4545 -1.7857 -0.9429
 2445SOL     OW13939   1.274   3.216   0.367 -0.0484  0.1947  0.0782
 2445SOL    HW113940   1.326   3.142   0.337  2.4745  1.6798  0.4255
 2445SOL    HW213941   1.254   3.195   0.458  0.4087 -0.2016  0.0942
 2446SOL     OW13942   7.788  11.312   3.059  0.1472 -0.0902 -0.4222
 2446SOL    HW113943   7.840  11.259   3.119 -1.0623 -1.6019 -0.6363
 2446SOL    HW213944   7.708  11.261   3.046 -1.0735  1.7968 -0.6806
 2447SOL     OW13945   0.111  12.648   9.699  0.1879 -0.2979 -0.0980
 2447SOL    HW113946   0.197  12.631   9.736  0.4137 -0.6054 -0.7394
 2447SOL    HW213947   0.082  12.729   9.742  0.1245 -1.0142  1.2430
 2448SOL     OW13948   7.956  12.299   3.468 -0.0591  0.5369  0.2903
 2448SOL    HW113949   7.888  12.329   3.529 -1.3511  0.7934 -1.2251
 2448SOL    HW213950   7.998  12.380   3.438 -0.3543  0.5058 -0.2061
 2449SOL     OW13951   7.956   3.406   1.077 -0.0875  0.0347 -0.2863
 2449SOL    HW113952   8.005   3.416   0.995  0.2992  1.7261  0.1070
 2449SOL    HW213953   8.022   3.389   1.143 -0.2882 -0.1861 -0.1396
 2450SOL     OW13954   1.484   6.921   9.325 -0.8437  0.1603  0.0495
 2450SOL    HW113955   1.441   6.839   9.301 -0.6451 -0.1868  0.8473
 2450SOL    HW213956   1.468   6.930   9.419  0.6338  0.1295  0.3362
 2451SOL     OW13957   3.167  10.485   5.039 -0.0882 -1.2470 -0.1198
 2451SOL    HW113958   3.143  10.442   4.957 -0.6070 -2.1095  0.4719
 2451SOL    HW213959   3.122  10.434   5.107  0.3319 -0.5447  0.7000
 2452SOL     OW13960   3.288   9.415   0.147  0.2264  0.0219  0.0568
 2452SOL    HW113961   3.225   9.477   0.185  0.0005  0.3384 -0.8177
 2452SOL    HW213962   3.235   9.338   0.125 -0.3070  1.0086 -2.4971
 2453SOL     OW13963   3.687  10.646   4.900  0.0033  0.0889  0.3503
 2453SOL    HW113964   3.742  10.567   4.900  0.7698  0.5383  3.2724
 2453SOL    HW213965   3.598  10.613   4.882  0.3348 -1.4471  1.3389
 2454SOL     OW13966   2.205   3.490   2.256  0.0274 -0.1669  0.0168
 2454SOL    HW113967   2.185   3.398   2.271 -1.0780  0.2914  1.6540
 2454SOL    HW213968   2.273   3.510   2.320  0.6229  0.0359 -0.6751
 2455SOL     OW13969   5.375   1.362   1.336  0.7020  0.2657  0.1129
 2455SOL    HW113970   5.373   1.453   1.305  1.1540  0.4929  0.7304
 2455SOL    HW213971   5.463   1.351   1.372  0.8929 -0.6428 -0.5998
 2456SOL     OW13972   3.090   8.213   2.006 -0.8488  0.5852  0.3123
 2456SOL    HW113973   3.051   8.294   1.973  0.9596  1.0187 -0.9278
 2456SOL    HW213974   3.122   8.235   2.093 -2.0741  0.6189  0.7687
 2457SOL     OW13975   1.803  12.132   9.120 -0.1341  0.6662  0.0157
 2457SOL    HW113976   1.775  12.051   9.164  0.2864  0.7304  0.4085
 2457SOL    HW213977   1.760  12.202   9.170  0.2586  0.7335  0.2656
 2458SOL     OW13978   2.034   4.301   4.997  0.1178 -0.2993  0.0353
 2458SOL    HW113979   1.985   4.343   4.926  0.2744 -1.2096 -0.6279
 2458SOL    HW213980   2.120   4.282   4.959  0.4308 -0.1864  0.6794
 2459SOL     OW13981   3.802   9.868   8.950  0.0435 -0.3273 -0.5064
 2459SOL    HW113982   3.772   9.825   8.871  1.3111  0.6743 -1.5748
 2459SOL    HW213983   3.749   9.948   8.956 -0.4717 -0.6990  0.0111
 2460SOL     OW13984   5.096   4.814   7.733  0.2879  0.0407  0.1056
 2460SOL    HW113985   5.039   4.737   7.724  1.0031 -0.7132  1.6879
 2460SOL    HW213986   5.177   4.779   7.769  0.1298  1.6949  2.2600
 2461SOL     OW13987   0.370   0.273   9.841 -0.0186  0.2071  0.4653
 2461SOL    HW113988   0.445   0.284   9.900  0.5460  0.8096 -0.3268
 2461SOL    HW213989   0.406   0.223   9.767 -0.6417 -0.3062  0.5074
 2462SOL     OW13990   1.186  10.667  12.688  0.0581 -0.4318  0.6067
 2462SOL    HW113991   1.151  10.750  12.654  3.1988  0.2877 -1.3188
 2462SOL    HW213992   1.221  10.690  12.774 -1.5509 -0.4973  1.3110
 2463SOL     OW13993  10.756   9.307   3.837  0.2738  0.3607 -0.0091
 2463SOL    HW113994  10.823   9.257   3.791 -0.9920 -0.6134 -0.8512
 2463SOL    HW213995  10.686   9.244   3.854 -0.3119  1.2789  1.1186
 2464SOL     OW13996  12.027   3.618   8.262  0.7713 -0.4827 -0.5022
 2464SOL    HW113997  12.112   3.656   8.286  1.1780 -0.8870 -1.2691
 2464SOL    HW213998  11.983   3.688   8.214  0.4469 -0.0950  0.3287
 2465SOL     OW13999   5.388   8.470   4.101  0.7437 -0.1910 -0.3727
 2465SOL    HW114000   5.430   8.469   4.015  1.9039 -2.0148  0.1748
 2465SOL    HW214001   5.313   8.530   4.090  1.2583  0.1465 -2.4350
 2466SOL     OW14002   9.142   7.868   7.866  0.6810  0.3770 -0.4353
 2466SOL    HW114003   9.181   7.815   7.936  1.1183  1.5927  0.2738
 2466SOL    HW214004   9.153   7.816   7.787 -0.6868 -1.4780  0.5116
 2467SOL     OW14005  11.611   0.304   6.644 -0.0782  0.2889 -0.6164
 2467SOL    HW114006  11.640   0.367   6.578 -0.0875  0.2658 -0.6424
 2467SOL    HW214007  11.683   0.301   6.708 -0.0686  0.3093 -0.6266
 2468SOL     OW14008   8.274   1.709   7.833  0.2011  0.0601  0.5089
 2468SOL    HW114009   8.327   1.630   7.830 -1.7618 -1.2966 -1.4330
 2468SOL    HW214010   8.252   1.726   7.741 -3.6196 -0.1702  1.2472
 2469SOL     OW14011   7.639  10.742  12.551 -0.0066 -0.4008  0.5605
 2469SOL    HW114012   7.676  10.699  12.474 -0.2880 -1.6638  1.0909
 2469SOL    HW214013   7.680  10.828  12.554  2.0061 -1.3097  0.4695
 2470SOL     OW14014   7.257   3.935   3.997 -0.1184  0.7759  0.0937
 2470SOL    HW114015   7.334   3.891   3.962 -0.3569  0.9542 -0.6958
 2470SOL    HW214016   7.238   3.891   4.079  0.0320 -0.1550 -0.3640
 2471SOL     OW14017   3.500  11.656   7.951 -0.1532 -0.2540  0.2907
 2471SOL    HW114018   3.534  11.696   8.031  0.8628  0.1247 -0.3081
 2471SOL    HW214019   3.441  11.722   7.915 -1.8595 -1.0604  1.5256
 2472SOL     OW14020   2.493   8.300  10.151  0.3326 -0.2604  0.0289
 2472SOL    HW114021   2.575   8.341  10.180  0.4479  0.0369 -0.7135
 2472SOL    HW214022   2.431   8.372  10.145  0.8725  0.0776 -2.5527
 2473SOL     OW14023  11.218   6.937   8.495  0.2076  0.2547  0.0614
 2473SOL    HW114024  11.263   6.958   8.577 -1.4402 -0.5803  1.2177
 2473SOL    HW214025  11.210   6.841   8.496  0.7195  0.1645 -1.4098
 2474SOL     OW14026   4.773   6.886   8.424  0.2415  0.1769  0.1905
 2474SOL    HW114027   4.758   6.924   8.338  0.0873 -0.4300 -0.0531
 2474SOL    HW214028   4.844   6.823   8.411  0.3775  0.2525  0.5540
 2475SOL     OW14029   7.737   5.025  11.231  0.5613 -0.0410  0.7243
 2475SOL    HW114030   7.778   5.110  11.245 -0.9193  1.0273 -0.9589
 2475SOL    HW214031   7.809   4.962  11.235  1.8468  1.3853  0.9806
 2476SOL     OW14032   4.710   1.150  12.172 -0.3877 -0.1929  0.3184
 2476SOL    HW114033   4.718   1.150  12.267 -2.2871  1.3008  0.5439
 2476SOL    HW214034   4.791   1.110  12.140  0.0737 -1.1672  2.5573
 2477SOL     OW14035  11.729  12.690  12.084 -0.0596 -0.1506  0.3555
 2477SOL    HW114036  11.754  12.626  12.152 -0.5048  0.4864  1.1371
 2477SOL    HW214037  11.795  12.759  12.091 -0.5091  0.2537  0.6158
 2478SOL     OW14038   3.502   3.417  12.374 -0.1857 -0.0834 -0.3348
 2478SOL    HW114039   3.444   3.488  12.403 -0.2978  0.3788 -1.6460
 2478SOL    HW214040   3.458   3.380  12.297 -0.7744 -2.4398  1.0413
 2479SOL     OW14041   2.525   6.289  10.346 -0.1277  0.2675 -0.0166
 2479SOL    HW114042   2.519   6.379  10.313 -2.0935 -0.0690 -0.7356
 2479SOL    HW214043   2.602   6.253  10.302  0.0903  1.2863 -0.5206
 2480SOL     OW14044   5.120   6.080  10.627  0.0186  0.3250 -0.1187
 2480SOL    HW114045   5.106   6.011  10.562 -1.6495  1.2166 -0.7563
 2480SOL    HW214046   5.043   6.075  10.684  0.3851  1.0002  0.4553
 2481SOL     OW14047  10.705   6.508  12.301  0.0956 -0.1791  0.1285
 2481SOL    HW114048  10.721   6.590  12.255 -2.2364  0.5877  0.5201
 2481SOL    HW214049  10.622   6.476  12.265  0.7562 -2.1706  0.2666
 2482SOL     OW14050   2.474   1.430   5.226 -0.1125 -0.1474  0.4086
 2482SOL    HW114051   2.470   1.465   5.315  0.3266 -1.2813  0.9020
 2482SOL    HW214052   2.530   1.491   5.178 -1.6899  1.3894  0.4367
 2483SOL     OW14053  11.993  10.571   3.512 -0.3414 -0.3858  0.2998
 2483SOL    HW114054  12.071  10.623   3.535 -1.2415  1.1145  0.0937
 2483SOL    HW214055  12.014  10.534   3.426 -0.3728  1.1899 -0.4262
 2484SOL     OW14056   6.590  11.397   6.372  0.0577 -0.1865  0.3507
 2484SOL    HW114057   6.610  11.371   6.462  0.0396  0.1647  0.4600
 2484SOL    HW214058   6.673  11.387   6.325  0.1149 -0.1901  0.4525
 2485SOL     OW14059   5.584   9.216  10.278 -0.2001  0.2430 -0.4435
 2485SOL    HW114060   5.529   9.170  10.215 -1.6485  1.5401 -0.1719
 2485SOL    HW214061   5.560   9.178  10.363 -0.2650  0.4325 -0.3774
 2486SOL     OW14062   1.963   9.559  11.562  0.0314 -0.0587 -0.8534
 2486SOL    HW114063   1.969   9.519  11.648 -0.0811 -1.8858 -1.6532
 2486SOL    HW214064   1.886   9.519  11.522  0.6826 -0.0592 -2.1851
 2487SOL     OW14065  11.794  10.242  12.682  0.7440 -0.3598 -0.2069
 2487SOL    HW114066  11.864  10.289  12.727 -1.1032  2.0236  0.3515
 2487SOL    HW214067  11.752  10.308  12.627 -1.7583 -1.4072  0.3392
 2488SOL     OW14068   1.205   7.298  11.737  0.1044  0.0912 -0.1573
 2488SOL    HW114069   1.207   7.347  11.819 -1.6898 -0.6926  0.4185
 2488SOL    HW214070   1.117   7.312  11.702 -0.1952 -1.9872 -0.3827
 2489SOL     OW14071   9.954   7.574  12.050  0.1971  0.3649  0.0053
 2489SOL    HW114072   9.902   7.578  11.970  0.0697 -0.7058  0.0131
 2489SOL    HW214073   9.900   7.522  12.111  0.1818  1.3619  0.8715
 2490SOL     OW14074  11.919   4.495   6.414  0.0869  0.0845  0.0558
 2490SOL    HW114075  12.008   4.459   6.416  0.2681  0.5183 -0.0880
 2490SOL    HW214076  11.865   4.423   6.381  0.2102 -0.5325  1.1465
 2491SOL     OW14077  12.657  11.548   3.873 -0.2940 -0.7110  0.2747
 2491SOL    HW114078  12.736  11.494   3.873  0.2648 -0.0529 -2.2880
 2491SOL    HW214079  12.586  11.488   3.850  0.2329 -0.5662 -1.9591
 2492SOL     OW14080   0.216   5.372   2.153 -0.2499  0.1595  0.1206
 2492SOL    HW114081   0.276   5.396   2.083  0.7478 -2.7572 -0.1828
 2492SOL    HW214082   0.175   5.291   2.122  1.3179 -2.1118  3.3717
 2493SOL     OW14083   4.607  11.096  12.021 -0.4373 -0.2364 -0.8921
 2493SOL    HW114084   4.699  11.089  11.995  0.1248 -1.6115  1.1857
 2493SOL    HW214085   4.599  11.186  12.053  1.8914 -1.4054  4.0958
 2494SOL     OW14086  11.628   2.573   9.783  0.2706 -0.4228 -0.0609
 2494SOL    HW114087  11.688   2.517   9.735 -0.6060 -0.3689 -1.2720
 2494SOL    HW214088  11.572   2.513   9.833 -1.1454 -0.7332 -1.9168
 2495SOL     OW14089   9.690  10.104   7.891 -0.1043  0.3284 -0.2006
 2495SOL    HW114090   9.727  10.125   7.805  2.1815 -0.7589  0.4367
 2495SOL    HW214091   9.745  10.033   7.924 -2.6944 -1.2791  0.9923
 2496SOL     OW14092   7.118   3.812   2.928 -0.0879 -0.1762 -0.2220
 2496SOL    HW114093   7.170   3.889   2.907  0.0806 -0.1291  0.3416
 2496SOL    HW214094   7.166   3.769   2.999 -0.2191 -0.7618 -0.4799
 2497SOL     OW14095  10.964   6.995   1.748  0.0610  0.0143  0.0853
 2497SOL    HW114096  10.903   6.926   1.720 -0.8815  1.7098 -2.4318
 2497SOL    HW214097  10.917   7.077   1.732  1.6511  1.3221  1.6522
 2498SOL     OW14098   7.714   7.274  10.370 -0.6444 -0.3679  0.4166
 2498SOL    HW114099   7.748   7.228  10.293 -0.3934  1.6047 -0.7110
 2498SOL    HW214100   7.743   7.220  10.444  2.4428 -0.3782 -0.6360
 2499SOL     OW14101   5.772   3.632   8.013  0.1115 -0.3844 -0.1037
 2499SOL    HW114102   5.855   3.659   7.974  0.6284 -1.1803  0.4175
 2499SOL    HW214103   5.708   3.694   7.978  1.0818  0.8818  0.2567
 2500SOL     OW14104   8.950  11.195   7.429 -0.3750 -1.0849  0.3495
 2500SOL    HW114105   8.900  11.144   7.492 -1.2317 -0.3525  0.2810
 2500SOL    HW214106   9.033  11.213   7.472 -0.1517 -2.3306  0.4603
 2501SOL     OW14107  11.904   3.916   6.924 -0.0110  0.0537  0.0443
 2501SOL    HW114108  11.871   4.004   6.935  0.4758  0.2297  0.1491
 2501SOL    HW214109  11.980   3.926   6.867  1.3336  0.0157  1.7200
 2502SOL     OW14110   0.504   5.189   0.690  0.0919  0.0773 -0.5184
 2502SOL    HW114111   0.478   5.165   0.779 -1.0515 -1.1185 -1.1353
 2502SOL    HW214112   0.484   5.282   0.683  1.6394  0.5562  0.9501
 2503SOL     OW14113   3.133   9.300   2.275  0.5646  0.6511  0.3923
 2503SOL    HW114114   3.203   9.333   2.331  0.2591  3.5614 -0.7549
 2503SOL    HW214115   3.176   9.235   2.219  1.8003  0.7022  1.2394
 2504SOL     OW14116   3.609  10.969  11.125  0.5544 -0.0934 -0.5779
 2504SOL    HW114117   3.602  10.900  11.191  0.4354  2.0166  1.7891
 2504SOL    HW214118   3.689  11.016  11.149 -0.3735  1.7249 -0.8714
 2505SOL     OW14119   8.804  11.912   7.205 -0.1844  0.1254  0.1304
 2505SOL    HW114120   8.772  11.839   7.259  1.6713  0.4676  1.8342
 2505SOL    HW214121   8.782  11.888   7.115  0.5815 -2.6852  0.6058
 2506SOL     OW14122   4.643   5.990   0.864  0.1853  0.0443  0.3290
 2506SOL    HW114123   4.611   5.914   0.913  0.3488 -0.3295 -0.1394
 2506SOL    HW214124   4.666   6.053   0.932  0.3636 -0.4471  0.7352
 2507SOL     OW14125   4.431  10.856   6.191 -0.1885  0.3036 -0.1977
 2507SOL    HW114126   4.396  10.905   6.117  0.2703 -0.5366 -0.9867
 2507SOL    HW214127   4.373  10.878   6.264 -1.9862 -0.5635 -1.3090
 2508SOL     OW14128   1.280   0.228   2.777 -0.1364  0.2617  0.9890
 2508SOL    HW114129   1.244   0.147   2.740 -0.6721  0.8036  0.2984
 2508SOL    HW214130   1.279   0.290   2.705 -2.0889  1.6348  2.1115
 2509SOL     OW14131   8.814  10.615   6.433  0.0073 -0.1810 -0.1531
 2509SOL    HW114132   8.778  10.546   6.378 -1.3747  0.9639 -0.7278
 2509SOL    HW214133   8.775  10.600   6.519 -0.1779 -0.1961 -0.2399
 2510SOL     OW14134   7.256   0.371   9.932 -0.2447  0.4356  0.2901
 2510SOL    HW114135   7.265   0.465   9.943  3.5945  0.0727  2.0144
 2510SOL    HW214136   7.207   0.341  10.008 -0.4303  0.8948  0.3508
 2511SOL     OW14137   5.013   8.800   4.184  0.4278  0.1401 -0.3734
 2511SOL    HW114138   5.002   8.891   4.158  2.0368  0.4998  0.0631
 2511SOL    HW214139   5.077   8.803   4.256  0.5896 -1.3363 -0.4118
 2512SOL     OW14140   6.752   6.288   8.290  0.3482  0.6616  0.1903
 2512SOL    HW114141   6.660   6.263   8.281  0.8343 -0.9389 -0.5997
 2512SOL    HW214142   6.754   6.341   8.370 -1.4444  1.7436 -0.4254
 2513SOL     OW14143   0.039   7.639  10.018 -0.3752  0.4808  0.8869
 2513SOL    HW114144  -0.041   7.619  10.066 -2.1272  0.7147 -1.7750
 2513SOL    HW214145   0.015   7.710   9.959  1.6108  0.1346 -0.4293
 2514SOL     OW14146   1.075   0.804   8.652 -0.3775 -0.7517  0.1584
 2514SOL    HW114147   1.013   0.809   8.580 -0.9462 -1.3944  0.5930
 2514SOL    HW214148   1.160   0.825   8.612 -1.0066  1.3103 -0.2091
 2515SOL     OW14149   9.119   0.615   9.315 -0.3454  0.5697 -0.4555
 2515SOL    HW114150   9.173   0.561   9.373  0.4433  0.7539 -1.0071
 2515SOL    HW214151   9.091   0.555   9.246  1.1638  1.0071 -1.4909
 2516SOL     OW14152   6.399   4.043  10.565 -0.5908 -0.0014 -0.0085
 2516SOL    HW114153   6.365   3.983  10.498  0.0711 -0.8143  0.3568
 2516SOL    HW214154   6.494   4.025  10.566 -0.4984  0.4987  0.6570
 2517SOL     OW14155   4.481   5.034   0.238  0.0351 -0.0491  0.1228
 2517SOL    HW114156   4.432   5.054   0.159  0.5779 -1.8923 -0.7165
 2517SOL    HW214157   4.414   5.020   0.305 -0.6022 -1.8979 -0.8556
 2518SOL     OW14158   5.481  11.466   7.331 -0.7666 -0.2813 -0.0458
 2518SOL    HW114159   5.560  11.513   7.356  0.9967 -3.6080  1.2678
 2518SOL    HW214160   5.456  11.505   7.247  1.6515  1.6091 -0.0002
 2519SOL     OW14161   0.329   4.245   4.921 -0.3146 -0.1495 -0.0426
 2519SOL    HW114162   0.254   4.300   4.941  1.2031  1.8151  0.5666
 2519SOL    HW214163   0.399   4.306   4.897  0.5408 -1.9834 -2.7215
 2520SOL     OW14164  12.770  12.764  10.034  0.3529 -0.8821 -0.1875
 2520SOL    HW114165  12.720  12.823  10.090  0.4435 -1.1260  0.1597
 2520SOL    HW214166  12.862  12.789  10.048  0.3729 -0.9106 -0.2639
 2521SOL     OW14167  12.574   0.628   1.618  0.4698  0.5174 -0.4493
 2521SOL    HW114168  12.610   0.600   1.703  2.1622  0.9218 -0.9807
 2521SOL    HW214169  12.652   0.645   1.565 -0.5586 -0.3893 -2.3219
 2522SOL     OW14170   6.980   0.826   7.513  0.3130 -0.6022  0.2026
 2522SOL    HW114171   7.070   0.856   7.499 -0.1289  0.3625 -0.7431
 2522SOL    HW214172   6.987   0.759   7.581  1.5241  0.7972  1.5303
 2523SOL     OW14173   5.494   2.915   8.161 -0.2850  0.1377 -0.5740
 2523SOL    HW114174   5.586   2.937   8.174  0.4425 -1.4861 -2.4890
 2523SOL    HW214175   5.460   2.985   8.106  0.4352 -0.3955 -1.7265
 2524SOL     OW14176   3.095   2.041   3.577  0.1224  0.2165 -0.5038
 2524SOL    HW114177   3.022   2.097   3.551  0.3429  0.2006 -1.1573
 2524SOL    HW214178   3.120   2.074   3.664  0.1201  1.0041 -0.7930
 2525SOL     OW14179   4.883   7.604   2.116 -0.0364  0.3446 -0.8784
 2525SOL    HW114180   4.843   7.661   2.182  2.1468  0.0518  0.8177
 2525SOL    HW214181   4.880   7.655   2.035  0.9827  2.5305  0.3840
 2526SOL     OW14182   2.670   1.540   4.274  0.3022  0.5069  0.2244
 2526SOL    HW114183   2.655   1.558   4.181  3.2493  3.0275  0.0631
 2526SOL    HW214184   2.669   1.445   4.281  0.6005  0.2249 -2.5291
 2527SOL     OW14185   6.153   6.358  11.000 -0.0947  0.2401 -0.0523
 2527SOL    HW114186   6.095   6.374  10.925  0.5038 -0.6870 -0.7385
 2527SOL    HW214187   6.187   6.445  11.023 -0.7875  0.6225 -0.4468
 2528SOL     OW14188   5.286   7.729   5.709 -0.2794  0.3094  0.2879
 2528SOL    HW114189   5.306   7.822   5.721  1.1496  0.4153 -2.1559
 2528SOL    HW214190   5.194   7.721   5.735 -0.3995  2.3805  0.6830
 2529SOL     OW14191   6.329   8.321   8.126  0.2234 -0.3277  0.4799
 2529SOL    HW114192   6.381   8.246   8.154  2.4854  1.4420  1.3376
 2529SOL    HW214193   6.249   8.316   8.179  0.7229 -1.6089  1.1719
 2530SOL     OW14194   5.130   2.862   0.112  0.0748  0.2089 -0.7624
 2530SOL    HW114195   5.144   2.838   0.020  2.0982 -1.7030 -0.0605
 2530SOL    HW214196   5.087   2.785   0.150  0.1441  0.5889  0.0994
 2531SOL     OW14197   2.475  12.030  12.358  0.0013 -0.0267 -0.5896
 2531SOL    HW114198   2.474  12.054  12.450  2.1986  1.2199 -0.8102
 2531SOL    HW214199   2.475  12.115  12.312 -0.9275 -0.6231 -1.7334
 2532SOL     OW14200   7.366   8.106   6.570  0.1408  0.4753 -0.0641
 2532SOL    HW114201   7.312   8.034   6.539 -0.1033  0.3916  0.5341
 2532SOL    HW214202   7.373   8.092   6.665 -0.3834  1.5474  0.1487
 2533SOL     OW14203  12.493  11.897   2.335  0.1941  0.1648 -0.6455
 2533SOL    HW114204  12.441  11.842   2.393 -1.5116  2.4397  0.1192
 2533SOL    HW214205  12.527  11.966   2.392  0.7591  0.9183 -1.8610
 2534SOL     OW14206  12.591   0.233   8.781  0.4181 -0.4506  0.2717
 2534SOL    HW114207  12.639   0.158   8.746 -0.2872 -0.0318 -1.7578
 2534SOL    HW214208  12.640   0.309   8.751 -0.2706 -0.0622  0.1059
 2535SOL     OW14209   1.780   2.825   6.960 -0.5559 -0.7152  0.0825
 2535SOL    HW114210   1.867   2.806   6.923 -1.0884  0.0003 -1.6249
 2535SOL    HW214211   1.790   2.912   7.000 -0.8149  0.0453 -1.4132
 2536SOL     OW14212   5.357  10.740   4.176  0.4036  0.0664 -0.0124
 2536SOL    HW114213   5.385  10.699   4.258 -2.0499 -0.2723  0.7598
 2536SOL    HW214214   5.262  10.723   4.172  0.4145  0.1258 -2.9034
 2537SOL     OW14215  11.237   3.813   4.843  0.3302 -0.5756 -0.0789
 2537SOL    HW114216  11.249   3.901   4.879  3.0013 -1.1958  0.7564
 2537SOL    HW214217  11.229   3.827   4.749 -1.3238  0.6677  0.1910
 2538SOL     OW14218  10.922   9.954  10.745 -0.7885  0.0471  0.1340
 2538SOL    HW114219  10.981   9.878  10.751 -0.5369  0.3098  1.2291
 2538SOL    HW214220  10.841   9.919  10.710 -0.6356 -0.7240  0.5215
 2539SOL     OW14221  11.176  12.166   7.802  0.1388 -0.0219 -0.5438
 2539SOL    HW114222  11.180  12.141   7.710  1.1537  0.7374 -0.7258
 2539SOL    HW214223  11.255  12.219   7.816  0.4314 -0.7880  0.9562
 2540SOL     OW14224  10.376   0.662   4.752 -0.4076 -0.0347  0.3329
 2540SOL    HW114225  10.426   0.647   4.671 -0.1985 -1.0875  0.6394
 2540SOL    HW214226  10.356   0.574   4.784 -1.8497  0.3777  0.5992
 2541SOL     OW14227   6.450   5.172   7.710  0.3909 -0.1829  0.3321
 2541SOL    HW114228   6.384   5.239   7.729 -0.6015 -0.9360 -0.3728
 2541SOL    HW214229   6.451   5.166   7.615  0.2057 -1.4269  0.3962
 2542SOL     OW14230   2.665   8.584   0.124  0.4409 -0.2263  0.1128
 2542SOL    HW114231   2.605   8.658   0.138  0.5776 -0.2978  1.1035
 2542SOL    HW214232   2.609   8.515   0.088  0.2835  0.2946 -0.6795
 2543SOL     OW14233   6.502   7.363   4.210 -0.4088 -0.3207 -0.1274
 2543SOL    HW114234   6.418   7.343   4.252 -1.3077  0.5181 -1.4584
 2543SOL    HW214235   6.534   7.278   4.180 -2.2345 -0.3962 -2.1555
 2544SOL     OW14236  10.426   3.476  11.269 -0.6769 -0.1899  0.0601
 2544SOL    HW114237  10.501   3.449  11.215 -1.1409 -0.5367 -0.4302
 2544SOL    HW214238  10.351   3.434  11.227 -1.2533  0.8014  0.0629
 2545SOL     OW14239   9.658   0.436   0.878 -0.5395  0.1323 -0.0551
 2545SOL    HW114240   9.706   0.361   0.845 -0.4316  0.2279 -0.1158
 2545SOL    HW214241   9.567   0.407   0.883 -0.8207  0.5968 -1.8908
 2546SOL     OW14242  12.267   3.371  11.835 -0.1332 -0.0232 -0.3577
 2546SOL    HW114243  12.309   3.437  11.891  1.0773 -0.5879 -0.5669
 2546SOL    HW214244  12.177   3.402  11.826 -0.1060  0.6009  1.1059
 2547SOL     OW14245   4.912   0.369   1.234 -0.0633 -0.2967  0.7486
 2547SOL    HW114246   4.986   0.313   1.209 -1.5243 -0.9632 -2.6844
 2547SOL    HW214247   4.915   0.441   1.171 -1.8364  0.0987  1.0797
 2548SOL     OW14248  10.895   7.688   6.899  0.1614  0.1431 -0.2322
 2548SOL    HW114249  10.933   7.766   6.858 -2.4420  1.5349 -0.1679
 2548SOL    HW214250  10.823   7.663   6.842  1.6794 -3.0962 -0.9592
 2549SOL     OW14251   7.147   6.097   4.328 -0.4943 -0.4711 -0.3745
 2549SOL    HW114252   7.066   6.148   4.340 -1.1246 -1.5739  0.2718
 2549SOL    HW214253   7.123   6.009   4.355  0.8884 -0.8638 -0.3758
 2550SOL     OW14254   6.770  11.888   5.949  0.6456 -0.5835  0.1731
 2550SOL    HW114255   6.860  11.917   5.962  0.6708 -0.0286 -1.1166
 2550SOL    HW214256   6.716  11.962   5.978  0.5859 -1.0138  1.1893
 2551SOL     OW14257   4.999   1.370   5.345  0.4064  0.4635 -0.0076
 2551SOL    HW114258   4.947   1.344   5.269  1.0669  2.1982 -1.1136
 2551SOL    HW214259   5.043   1.451   5.318  1.9388  0.2561  1.6670
 2552SOL     OW14260   1.704   6.518  12.095  0.0010 -0.1768 -0.4659
 2552SOL    HW114261   1.756   6.493  12.019 -1.1428  0.7140 -1.6029
 2552SOL    HW214262   1.621   6.473  12.084  0.0115 -0.4770  0.5665
 2553SOL     OW14263   4.270   5.002   5.474 -0.3708  0.0912 -0.4529
 2553SOL    HW114264   4.288   5.085   5.518  0.6936  0.9620 -2.3863
 2553SOL    HW214265   4.336   4.941   5.508 -0.7874  0.1777  0.5394
 2554SOL     OW14266   6.499  10.426   5.153 -0.5091 -0.1809 -0.0361
 2554SOL    HW114267   6.582  10.398   5.114 -0.5283 -0.0079 -0.2065
 2554SOL    HW214268   6.510  10.413   5.247 -0.8364 -1.5937 -0.1766
 2555SOL     OW14269   7.314   6.465   1.092  0.4382  0.5675  0.2006
 2555SOL    HW114270   7.225   6.455   1.127  0.5603  0.5965  0.5213
 2555SOL    HW214271   7.336   6.378   1.059 -0.4420  0.9912 -1.6523
 2556SOL     OW14272  12.607   3.149   8.033  0.0378  0.4190  0.1784
 2556SOL    HW114273  12.632   3.208   8.104  1.9983 -1.0678  0.8442
 2556SOL    HW214274  12.512   3.140   8.040  0.1338  0.6159  2.4064
 2557SOL     OW14275   5.980   9.226   9.059  0.3099  0.1901 -0.0464
 2557SOL    HW114276   5.965   9.224   9.153 -0.4178  1.2527 -0.1261
 2557SOL    HW214277   6.041   9.299   9.046  1.0894 -0.4880 -0.3293
 2558SOL     OW14278   0.674  11.669   0.293 -0.3483  0.4004  0.1769
 2558SOL    HW114279   0.668  11.756   0.333 -1.8618  0.4990 -0.1862
 2558SOL    HW214280   0.599  11.666   0.233 -0.2297 -1.1002  0.0791
 2559SOL     OW14281   6.026   2.026   8.323  0.4952 -0.4053 -0.2732
 2559SOL    HW114282   6.047   1.946   8.371 -0.4143 -1.6087 -1.7907
 2559SOL    HW214283   6.093   2.089   8.350  0.8819 -1.4757  1.3987
 2560SOL     OW14284   6.811   4.783   2.130  0.0519 -0.2164 -0.3424
 2560SOL    HW114285   6.873   4.745   2.069 -0.7311 -0.3713 -1.0445
 2560SOL    HW214286   6.758   4.710   2.160  1.1789 -0.3671  1.4700
 2561SOL     OW14287   2.133  10.878   8.214 -0.1725 -0.6709 -0.3205
 2561SOL    HW114288   2.056  10.911   8.167  0.0574 -0.9337 -0.8862
 2561SOL    HW214289   2.146  10.941   8.285 -0.7773 -0.5030 -0.3565
 2562SOL     OW14290   6.088   1.386   5.210  0.7045  0.5923 -0.2230
 2562SOL    HW114291   6.124   1.305   5.245 -0.5697  0.2014  0.2366
 2562SOL    HW214292   6.165   1.440   5.190  1.5321 -0.1766  0.7635
 2563SOL     OW14293   0.940   6.718   5.860 -0.0801  0.1509  0.1992
 2563SOL    HW114294   0.885   6.778   5.810 -3.6336 -3.1032 -0.2310
 2563SOL    HW214295   0.940   6.753   5.949  0.3952  2.1900 -0.5377
 2564SOL     OW14296   9.498   5.236   1.361 -0.1888  0.1748 -0.3369
 2564SOL    HW114297   9.409   5.224   1.326  0.5908 -1.4117 -1.9876
 2564SOL    HW214298   9.494   5.318   1.411 -3.1890 -1.0953  1.8014
 2565SOL     OW14299   6.419   1.902   1.810  0.4841  0.6937 -0.6038
 2565SOL    HW114300   6.440   1.809   1.797 -0.0186  0.7896 -2.2292
 2565SOL    HW214301   6.451   1.921   1.899  1.9419 -0.6458 -0.7979
 2566SOL     OW14302   0.829   7.582   1.005 -0.0964  0.0414 -0.3593
 2566SOL    HW114303   0.911   7.579   1.054  0.2348  0.6841 -0.8580
 2566SOL    HW214304   0.779   7.652   1.047 -1.0236 -1.2891  0.8781
 2567SOL     OW14305   5.727   7.455   0.501 -0.3728 -0.1221  0.0092
 2567SOL    HW114306   5.712   7.528   0.441 -0.4530  0.1051  0.3032
 2567SOL    HW214307   5.820   7.435   0.490 -0.7209 -1.1143 -1.3384
 2568SOL     OW14308   3.744   8.249  10.775 -0.4961 -0.4825  0.1078
 2568SOL    HW114309   3.828   8.230  10.815  0.1264  0.9328 -0.4549
 2568SOL    HW214310   3.707   8.163  10.754  0.8218 -1.1238  0.3167
 2569SOL     OW14311   2.425   9.506   9.734  0.6413 -0.5335  0.0457
 2569SOL    HW114312   2.497   9.561   9.705 -0.5244  0.0446 -2.0018
 2569SOL    HW214313   2.404   9.452   9.657 -1.1538 -0.6073  0.5411
 2570SOL     OW14314   4.658   6.734  12.715 -0.2708 -0.0001 -0.1199
 2570SOL    HW114315   4.737   6.724  12.663  0.0669 -1.0841  0.5478
 2570SOL    HW214316   4.599   6.665  12.683  0.8301 -2.3019  2.4053
 2571SOL     OW14317   5.116   3.399   0.948 -0.1497  0.8457 -0.5098
 2571SOL    HW114318   5.057   3.406   0.873 -0.4467  0.6019 -0.3012
 2571SOL    HW214319   5.071   3.446   1.018 -1.0111 -0.9294  0.2011
 2572SOL     OW14320   2.591   9.197  10.002 -0.1111  0.1338  0.4539
 2572SOL    HW114321   2.669   9.147   9.979  0.4853  0.8332  0.9182
 2572SOL    HW214322   2.530   9.182   9.929  0.6556  0.0098 -0.1733
 2573SOL     OW14323   0.329   1.626   1.895  0.2181  0.6171 -0.0223
 2573SOL    HW114324   0.286   1.709   1.918 -0.1256  0.0493  1.4946
 2573SOL    HW214325   0.420   1.639   1.921  0.3709  0.8252 -0.6368
 2574SOL     OW14326   9.367   8.823  10.993  0.4062  0.6877 -0.0967
 2574SOL    HW114327   9.292   8.857  11.043 -1.3716  0.5644 -2.4956
 2574SOL    HW214328   9.392   8.895  10.936  1.3805  0.3337 -0.1273
 2575SOL     OW14329   3.884   5.918  11.981 -0.1898 -0.5800 -0.1723
 2575SOL    HW114330   3.957   5.968  11.944  1.1898 -0.4452  2.4721
 2575SOL    HW214331   3.887   5.833  11.936  1.4491 -0.4808 -0.2893
 2576SOL     OW14332   6.872   3.001   6.130 -0.0967  0.3547  0.3120
 2576SOL    HW114333   6.789   2.959   6.153  0.0468 -0.4324 -0.5287
 2576SOL    HW214334   6.876   3.079   6.186 -1.6936  0.7554 -0.0653
 2577SOL     OW14335   0.910  10.927   5.922  0.2716 -0.6222  0.5582
 2577SOL    HW114336   0.959  11.006   5.944  1.7005 -0.9503 -1.2406
 2577SOL    HW214337   0.974  10.856   5.931 -0.7998 -1.5199  1.4399
 2578SOL     OW14338   5.675   1.566   8.144 -0.3432 -0.0738  0.0410
 2578SOL    HW114339   5.635   1.599   8.064  1.1948 -2.6148 -1.9332
 2578SOL    HW214340   5.605   1.568   8.209 -2.4180 -0.3047 -2.0499
 2579SOL     OW14341  12.009   8.889   1.825  0.0292 -0.6668 -0.2913
 2579SOL    HW114342  12.052   8.804   1.832  0.5382 -0.3948 -0.0850
 2579SOL    HW214343  12.036   8.937   1.903  0.6391  0.0826 -0.9433
 2580SOL     OW14344  12.047   8.933   7.749  0.1087  0.4219 -0.3289
 2580SOL    HW114345  12.058   8.915   7.656  1.1244 -1.4855  0.1091
 2580SOL    HW214346  12.003   8.856   7.783  1.8255  0.0217  1.1420
 2581SOL     OW14347   4.998   4.667   5.627 -0.0178  0.6419 -0.1954
 2581SOL    HW114348   5.065   4.734   5.637  0.1020  0.3262  1.5277
 2581SOL    HW214349   5.046   4.586   5.609  0.1463  0.3619  1.3083
 2582SOL     OW14350   3.772   6.545   8.682 -0.2803  0.0501  0.3199
 2582SOL    HW114351   3.862   6.539   8.712  0.2866  1.9967 -0.8179
 2582SOL    HW214352   3.773   6.503   8.596 -0.1090  1.2388 -0.2840
 2583SOL     OW14353  11.869   1.513   9.663 -0.3887  0.2365  0.3103
 2583SOL    HW114354  11.865   1.418   9.674  0.0847  0.0700 -0.8506
 2583SOL    HW214355  11.785   1.545   9.697 -1.5788 -0.8418 -1.4807
 2584SOL     OW14356   4.742   9.787   5.397 -0.2893 -0.5813  0.1433
 2584SOL    HW114357   4.658   9.833   5.397  0.7579  1.4349  1.5146
 2584SOL    HW214358   4.766   9.781   5.305 -0.8220  0.9996 -0.1275
 2585SOL     OW14359   9.787   6.592  12.192  0.4074 -0.6902 -0.2634
 2585SOL    HW114360   9.877   6.574  12.218 -0.1363  0.0619  2.3928
 2585SOL    HW214361   9.740   6.511  12.212 -0.3532  0.4248  3.2477
 2586SOL     OW14362   4.884   3.149   2.141  0.2156 -0.4508 -0.4445
 2586SOL    HW114363   4.866   3.076   2.083  0.0134 -1.2598  0.6206
 2586SOL    HW214364   4.978   3.144   2.158  0.0458 -1.0713  0.3990
 2587SOL     OW14365  10.781   7.221   6.394  0.1226 -0.0811 -0.1071
 2587SOL    HW114366  10.728   7.194   6.469  1.5149 -0.3970  0.8099
 2587SOL    HW214367  10.741   7.302   6.363 -1.5120 -0.8563 -0.1403
 2588SOL     OW14368   4.023   2.061   9.107 -0.6657 -0.1718 -0.0937
 2588SOL    HW114369   4.013   2.104   9.022  1.5085 -0.3592 -0.5035
 2588SOL    HW214370   3.954   1.995   9.108 -0.8865 -0.0159 -1.6301
 2589SOL     OW14371  10.432   1.850   6.349 -0.1501  0.0329 -0.1832
 2589SOL    HW114372  10.347   1.807   6.356 -0.7472  0.9799 -1.2356
 2589SOL    HW214373  10.496   1.779   6.346 -0.9261 -0.6977  0.2775
 2590SOL     OW14374   5.393   8.944   4.399 -0.3484  0.5564 -0.1176
 2590SOL    HW114375   5.461   8.904   4.345 -0.1545  1.0903 -0.2753
 2590SOL    HW214376   5.391   9.036   4.371  0.4617  1.1098  1.4912
 2591SOL     OW14377   1.091   1.248   5.972 -0.1190  0.0598 -0.3306
 2591SOL    HW114378   1.035   1.171   5.970 -0.7356  0.4304  1.2621
 2591SOL    HW214379   1.096   1.273   6.064  0.0326  1.9449 -0.7875
 2592SOL     OW14380   5.232   2.828   4.933 -0.5156  0.1978  0.4161
 2592SOL    HW114381   5.157   2.885   4.949  0.4949  1.6937  0.0684
 2592SOL    HW214382   5.233   2.817   4.838  0.5481  1.4682  0.2428
 2593SOL     OW14383   8.375   8.862  11.462  0.0981  0.5411  0.6370
 2593SOL    HW114384   8.388   8.768  11.476 -1.2933  0.3912  1.0609
 2593SOL    HW214385   8.390   8.875  11.368 -1.2870 -0.4046  0.2668
 2594SOL     OW14386   3.118   5.028  12.598 -0.0986  0.0563  0.1835
 2594SOL    HW114387   3.165   5.073  12.529  0.5222  1.1970  1.3089
 2594SOL    HW214388   3.116   4.936  12.570  1.5305  0.2232 -0.5960
 2595SOL     OW14389   7.669   2.151  10.298  0.0754  0.6348  0.2982
 2595SOL    HW114390   7.693   2.208  10.371  2.6870 -0.7505  0.6357
 2595SOL    HW214391   7.612   2.085  10.337  0.5366  0.5579  0.8503
 2596SOL     OW14392   3.848   1.252  11.651 -0.4473  0.0158  0.1357
 2596SOL    HW114393   3.776   1.194  11.675 -1.2850  0.6905 -0.6472
 2596SOL    HW214394   3.914   1.194  11.613 -0.6288 -0.5916  0.7357
 2597SOL     OW14395  12.574   3.998   8.648  0.0211  0.0737  0.0514
 2597SOL    HW114396  12.495   4.051   8.657 -1.3040 -1.4284 -1.9146
 2597SOL    HW214397  12.588   3.961   8.735 -1.5529  0.2103  0.3859
 2598SOL     OW14398   0.117  12.470   6.733  0.4820 -0.6548  0.6918
 2598SOL    HW114399   0.155  12.442   6.816  0.5864  0.8074  1.1601
 2598SOL    HW214400   0.025  12.445   6.739  0.4110 -0.2550  1.4070
 2599SOL     OW14401   5.646   6.912   5.337  0.1079 -0.1108  0.0137
 2599SOL    HW114402   5.701   6.970   5.389  0.1172  0.1717 -0.3096
 2599SOL    HW214403   5.707   6.848   5.299  0.1370 -0.1491  0.1262
 2600SOL     OW14404   0.128   7.059   2.691 -0.6684 -0.0371  0.1527
 2600SOL    HW114405   0.186   7.081   2.764  0.0639  0.0345 -0.4401
 2600SOL    HW214406   0.067   7.133   2.686 -0.8935 -0.1681  0.8543
 2601SOL     OW14407   9.478  10.591   9.006  0.4867 -0.3652 -0.4997
 2601SOL    HW114408   9.526  10.549   8.935 -0.4045 -0.7756 -0.8763
 2601SOL    HW214409   9.490  10.534   9.081  1.2096 -0.0718 -0.3933
 2602SOL     OW14410   9.058   7.987   8.268  0.5964  0.0913  0.2063
 2602SOL    HW114411   8.989   8.029   8.216  0.8906 -1.8175 -1.8754
 2602SOL    HW214412   9.011   7.943   8.338 -0.2936 -0.6893 -0.8377
 2603SOL     OW14413  10.931  12.161   7.891 -0.1423 -0.1372 -0.0903
 2603SOL    HW114414  10.955  12.149   7.983 -1.2880  0.7208  0.3413
 2603SOL    HW214415  11.013  12.147   7.843  1.0071  1.5749  1.2260
 2604SOL     OW14416   4.765   4.471   4.543  0.2797 -0.2468 -0.5294
 2604SOL    HW114417   4.853   4.500   4.520 -0.0909  1.2919 -0.1251
 2604SOL    HW214418   4.760   4.382   4.510  1.9545 -0.3333 -0.6324
 2605SOL     OW14419   7.355   6.068  10.308  0.0014 -0.2788 -0.2160
 2605SOL    HW114420   7.424   6.067  10.242  0.4174  1.3505  0.1547
 2605SOL    HW214421   7.311   5.984  10.297  2.7017 -1.8744  0.2652
 2606SOL     OW14422   1.653   6.078   5.302  0.1598 -0.0208  0.2774
 2606SOL    HW114423   1.731   6.133   5.301  1.5324 -1.8468  0.8883
 2606SOL    HW214424   1.660   6.025   5.222 -1.6169  1.2244 -0.7938
 2607SOL     OW14425   4.817   4.966   6.437  0.2474 -0.0502  0.5536
 2607SOL    HW114426   4.784   4.997   6.352  0.3623  0.4199  0.6778
 2607SOL    HW214427   4.738   4.943   6.486  0.0442  1.5582  1.0374
 2608SOL     OW14428   1.446   9.848   6.002 -0.3589  1.0562  0.2852
 2608SOL    HW114429   1.461   9.753   6.003 -0.1003  1.0903 -0.0801
 2608SOL    HW214430   1.354   9.858   6.028 -0.8889  0.5974 -1.2983
 2609SOL     OW14431   9.642   7.880  12.494  0.5276  0.0290 -0.0937
 2609SOL    HW114432   9.633   7.786  12.508  0.6369  0.0743  0.2886
 2609SOL    HW214433   9.592   7.897  12.414 -0.2203 -0.2209  0.3129
 2610SOL     OW14434   7.439   8.652   5.640  0.0882 -0.2520  0.0879
 2610SOL    HW114435   7.524   8.613   5.659  0.7752  1.1458  0.0252
 2610SOL    HW214436   7.436   8.731   5.695 -0.1592  0.9663 -1.5770
 2611SOL     OW14437  11.739  11.668   4.544 -0.0283 -0.1102 -0.0325
 2611SOL    HW114438  11.669  11.635   4.602 -1.6458  0.9331 -1.3132
 2611SOL    HW214439  11.749  11.760   4.568  0.0699  0.0471 -0.6602
 2612SOL     OW14440   0.145   6.114  10.516 -0.1952 -0.2066 -0.0460
 2612SOL    HW114441   0.076   6.065  10.562 -0.7099  0.6071  0.0841
 2612SOL    HW214442   0.202   6.145  10.586  1.1213 -2.0305 -0.2449
 2613SOL     OW14443   7.960   0.337  12.258 -0.2325 -0.2483 -0.3092
 2613SOL    HW114444   7.915   0.408  12.213  1.3077  2.7417  2.4607
 2613SOL    HW214445   7.890   0.280  12.289 -1.6634  0.8718 -1.3151
 2614SOL     OW14446   4.905   0.200   4.595 -0.1352 -0.3449 -0.0427
 2614SOL    HW114447   4.922   0.279   4.646 -0.1869 -0.0062 -0.5477
 2614SOL    HW214448   4.848   0.147   4.650 -1.3882  0.6583 -0.3459
 2615SOL     OW14449   5.826   9.818  10.608 -0.4954 -0.2138  0.2333
 2615SOL    HW114450   5.915   9.839  10.580 -0.8369  1.5986  0.3645
 2615SOL    HW214451   5.806   9.735  10.565  0.5007  0.4085 -1.5334
 2616SOL     OW14452   2.186   0.518   6.223 -0.0382  0.2703 -0.4018
 2616SOL    HW114453   2.182   0.584   6.293  1.0765  0.7364 -0.7441
 2616SOL    HW214454   2.095   0.506   6.197 -0.2355  2.2207 -0.8010
 2617SOL     OW14455   3.085   8.077   2.347  0.2691 -0.4014 -0.2727
 2617SOL    HW114456   3.063   7.988   2.374  1.1144 -1.0305 -1.5549
 2617SOL    HW214457   3.012   8.131   2.378 -0.3443 -1.5680  0.3530
 2618SOL     OW14458   3.107   2.549  11.776  0.3491  0.2551 -0.3842
 2618SOL    HW114459   3.049   2.624  11.767  2.2043  1.7482 -0.5679
 2618SOL    HW214460   3.134   2.529  11.686 -0.3477 -0.8269 -0.3641
 2619SOL     OW14461   6.339   7.695   0.234 -0.5609 -0.3233 -0.3387
 2619SOL    HW114462   6.393   7.771   0.256  1.4036 -1.7464 -0.0799
 2619SOL    HW214463   6.295   7.672   0.316 -0.2955 -0.1598 -0.1508
 2620SOL     OW14464   1.740   2.303   0.945 -0.3157  0.7796 -0.3385
 2620SOL    HW114465   1.689   2.244   1.000 -0.7793  0.7543 -0.7837
 2620SOL    HW214466   1.692   2.386   0.948 -0.8499  0.5325 -1.3950
 2621SOL     OW14467   8.326   2.522   3.268  0.1619  0.6041 -0.6431
 2621SOL    HW114468   8.417   2.496   3.285 -0.6187 -1.7535  0.3482
 2621SOL    HW214469   8.323   2.539   3.174  1.7552  1.3585 -0.5861
 2622SOL     OW14470   0.144   6.718  12.192 -0.5202  0.0202  0.2788
 2622SOL    HW114471   0.090   6.679  12.261 -1.0157  1.1880  0.5836
 2622SOL    HW214472   0.176   6.644  12.141 -2.4642 -0.7308  0.0524
 2623SOL     OW14473   0.734  12.272   8.104  0.2124  0.1306 -0.2176
 2623SOL    HW114474   0.656  12.311   8.064  2.5988  3.3867 -2.2660
 2623SOL    HW214475   0.773  12.344   8.153  0.9788 -1.9709  2.4957
 2624SOL     OW14476   0.603  12.390   5.024  0.0361  0.0039  0.7669
 2624SOL    HW114477   0.593  12.319   5.087 -0.7265  1.1397  1.9633
 2624SOL    HW214478   0.695  12.417   5.033  0.8715 -1.9404 -0.9859
 2625SOL     OW14479   0.541  12.191   1.017 -0.0932 -0.2976 -0.3236
 2625SOL    HW114480   0.597  12.239   0.956 -0.9106  0.0858 -0.7864
 2625SOL    HW214481   0.597  12.177   1.094  0.7739 -0.3091 -0.9364
 2626SOL     OW14482   2.952   3.583   3.769  0.1497 -0.2093 -0.4276
 2626SOL    HW114483   2.966   3.622   3.855 -1.0117  1.0566 -0.7721
 2626SOL    HW214484   3.037   3.592   3.725  0.3254  0.5733  0.0398
 2627SOL     OW14485   4.194   0.175   9.799  0.0275  0.3606  0.3594
 2627SOL    HW114486   4.284   0.193   9.827  0.8378 -1.2079 -1.0081
 2627SOL    HW214487   4.167   0.100   9.852  1.4595 -2.4269 -2.4793
 2628SOL     OW14488   1.389   2.113   5.932 -0.5818 -0.0352  0.3895
 2628SOL    HW114489   1.319   2.168   5.969 -0.8785 -1.3836  1.9532
 2628SOL    HW214490   1.344   2.059   5.867 -0.3337  1.3372 -0.9794
 2629SOL     OW14491   2.375   0.190   9.108  0.2835 -0.3796 -0.1545
 2629SOL    HW114492   2.402   0.105   9.073  0.4220  0.8150 -3.2965
 2629SOL    HW214493   2.279   0.184   9.113  0.1675 -0.3087 -1.7444
 2630SOL     OW14494   9.715   3.378  12.093  0.7146 -0.0378  0.1330
 2630SOL    HW114495   9.681   3.327  12.020 -0.1301  1.2130 -0.3949
 2630SOL    HW214496   9.749   3.458  12.052  1.3523  0.1445  0.9910
 2631SOL     OW14497   1.277   9.911   9.531  0.1837  0.4131  0.2127
 2631SOL    HW114498   1.346   9.887   9.592 -0.4017 -0.7393  0.4350
 2631SOL    HW214499   1.270   9.837   9.471 -0.4058  0.8083 -0.2245
 2632SOL     OW14500   8.000   9.543  11.382  0.4262  0.2906  0.3916
 2632SOL    HW114501   8.026   9.609  11.446  0.4852 -0.4172  1.1176
 2632SOL    HW214502   8.022   9.460  11.424 -0.5694 -0.2264 -0.0891
 2633SOL     OW14503   1.718   5.476   2.357 -0.1052  0.1704 -0.5703
 2633SOL    HW114504   1.677   5.449   2.275 -0.4612  1.9041 -1.0077
 2633SOL    HW214505   1.744   5.394   2.399 -0.9506 -0.8101 -1.8717
 2634SOL     OW14506   8.581   3.740   9.162  0.9225  0.0164 -0.1300
 2634SOL    HW114507   8.522   3.787   9.220  0.1652 -0.5925 -0.3861
 2634SOL    HW214508   8.570   3.647   9.185  2.5896 -0.0477  0.5522
 2635SOL     OW14509   1.008  10.675   0.931 -0.7083  0.6330  1.0288
 2635SOL    HW114510   0.932  10.655   0.876  0.2310  2.8130 -1.2883
 2635SOL    HW214511   1.028  10.767   0.912  2.3051  0.2511  1.7613
 2636SOL     OW14512  10.775   1.599   4.148 -0.4841  0.2042  0.2938
 2636SOL    HW114513  10.849   1.587   4.208 -1.5580  1.2965  1.9135
 2636SOL    HW214514  10.746   1.510   4.128  0.1174 -0.1999  1.1452
 2637SOL     OW14515   1.049   6.314  10.174  0.5486 -0.2399 -0.3425
 2637SOL    HW114516   1.040   6.344  10.264  2.2511  0.6725 -0.4327
 2637SOL    HW214517   1.102   6.235  10.179  0.4882 -0.2938 -0.5234
 2638SOL     OW14518   9.191   9.827   8.134 -0.3608  0.0097  0.0771
 2638SOL    HW114519   9.150   9.906   8.170 -0.6032  0.0431 -0.2615
 2638SOL    HW214520   9.123   9.761   8.138 -0.3189 -0.0459 -0.1052
 2639SOL     OW14521   9.109   5.512   9.788  0.5068 -0.3310  0.4441
 2639SOL    HW114522   9.074   5.467   9.711  0.5272  0.0526  0.2091
 2639SOL    HW214523   9.196   5.542   9.760  1.2410 -1.7006  1.1721
 2640SOL     OW14524   8.307  11.962   9.361 -0.1409 -0.1170 -0.8420
 2640SOL    HW114525   8.254  12.042   9.351 -0.3579  0.1558  1.7104
 2640SOL    HW214526   8.244  11.891   9.354 -0.5908  0.1325  0.3538
 2641SOL     OW14527   5.635   4.180   7.359 -0.9073  0.1910  0.1054
 2641SOL    HW114528   5.581   4.106   7.327  0.3409 -0.4972 -0.4839
 2641SOL    HW214529   5.720   4.166   7.318 -0.7330  2.1763 -0.2984
 2642SOL     OW14530   4.122   7.724   9.896 -0.1956  0.1025  0.6443
 2642SOL    HW114531   4.063   7.737   9.822  1.5162  1.2768 -0.5699
 2642SOL    HW214532   4.094   7.640   9.934  0.7062 -2.1589 -3.1330
 2643SOL     OW14533   0.575   7.978   6.941  0.0817 -0.4299 -0.6803
 2643SOL    HW114534   0.613   8.042   6.880 -0.0619  1.0343  0.7103
 2643SOL    HW214535   0.645   7.913   6.953  0.6020 -0.0143 -1.3646
 2644SOL     OW14536  11.611   4.494   9.878  0.0437  0.0546  0.4620
 2644SOL    HW114537  11.687   4.464   9.929 -0.3717 -1.3706  0.2856
 2644SOL    HW214538  11.614   4.589   9.885  0.3968 -0.0540  2.5867
 2645SOL     OW14539   4.387   6.752   9.228 -0.2662 -0.0105 -0.3591
 2645SOL    HW114540   4.325   6.810   9.273  0.2723 -1.3200  2.2467
 2645SOL    HW214541   4.467   6.805   9.219 -0.5308  0.4255 -0.1617
 2646SOL     OW14542   2.201   2.305   8.156  0.0656  0.1606  0.9110
 2646SOL    HW114543   2.115   2.263   8.147 -0.3570  1.4334 -2.4801
 2646SOL    HW214544   2.182   2.394   8.186  0.1090  0.6098 -0.3476
 2647SOL     OW14545  11.731   9.093  11.746 -0.9196  0.3013 -0.2267
 2647SOL    HW114546  11.654   9.105  11.802  0.1079 -0.6507  1.4507
 2647SOL    HW214547  11.797   9.153  11.782 -0.8284  1.1143 -1.6490
 2648SOL     OW14548   3.797   2.489   6.569  0.3418 -0.1528  0.2823
 2648SOL    HW114549   3.835   2.411   6.609 -0.0237 -0.9562 -0.8724
 2648SOL    HW214550   3.854   2.561   6.597  2.1095 -1.1633 -0.5373
 2649SOL     OW14551   8.729   6.619   2.346 -0.1348  0.2202 -0.0089
 2649SOL    HW114552   8.761   6.593   2.260  0.6348  0.6929  0.1222
 2649SOL    HW214553   8.774   6.702   2.365 -0.4374  0.2239  0.7626
 2650SOL     OW14554   7.944   0.614   1.383 -0.1424  0.2813  0.1283
 2650SOL    HW114555   7.997   0.580   1.311  0.4982 -0.2063  0.8180
 2650SOL    HW214556   7.879   0.670   1.340  0.0782 -0.1839 -0.8465
 2651SOL     OW14557   1.748   0.061   8.852 -0.7020 -0.3570  0.3453
 2651SOL    HW114558   1.763   0.045   8.759 -0.7301  0.8138  0.1180
 2651SOL    HW214559   1.831   0.099   8.883 -0.8895 -0.1939  0.6563
 2652SOL     OW14560   1.955  10.922  11.891  0.6589  0.7906  0.2476
 2652SOL    HW114561   1.878  10.904  11.837 -0.3653  1.4791  1.4195
 2652SOL    HW214562   2.010  10.978  11.837  0.1710  0.5948 -0.4638
 2653SOL     OW14563   7.239   9.202   1.838 -0.5544 -0.0714 -0.0019
 2653SOL    HW114564   7.197   9.123   1.803 -0.9203 -1.0351  2.4441
 2653SOL    HW214565   7.171   9.269   1.834 -0.8895 -0.4183 -0.1664
 2654SOL     OW14566  12.515   3.625   8.516  0.0303  0.1495 -0.1246
 2654SOL    HW114567  12.610   3.609   8.515 -0.2680 -2.2210  1.2489
 2654SOL    HW214568  12.499   3.670   8.599 -0.1637 -0.5124  0.2022
 2655SOL     OW14569  10.549   3.904   2.440  0.4149  0.4092 -0.1867
 2655SOL    HW114570  10.531   3.934   2.529 -0.5090  1.5538 -0.7329
 2655SOL    HW214571  10.613   3.834   2.451  0.3872  0.5911  1.3683
 2656SOL     OW14572   6.299   8.178   7.504  0.5023 -0.7347  0.4282
 2656SOL    HW114573   6.317   8.096   7.457  0.7925 -0.9529  0.9194
 2656SOL    HW214574   6.203   8.179   7.514  0.4863 -0.9484  0.3055
 2657SOL     OW14575   2.180  11.574   2.042  0.0994 -0.0310  0.2087
 2657SOL    HW114576   2.248  11.642   2.045  1.0927 -0.9328 -1.0693
 2657SOL    HW214577   2.108  11.614   1.992 -0.6331  1.1386  2.0602
 2658SOL     OW14578   3.430   5.196   5.904  0.2011  0.0006  0.7501
 2658SOL    HW114579   3.492   5.149   5.848 -0.7545 -0.3192 -0.0741
 2658SOL    HW214580   3.484   5.236   5.972  1.3014 -0.2862  0.0670
 2659SOL     OW14581  12.041   9.590  10.608 -0.2695  0.4301  0.2278
 2659SOL    HW114582  12.106   9.572  10.677  0.4642 -1.2662 -0.8446
 2659SOL    HW214583  11.971   9.527  10.624 -0.6119  0.7613  0.0451
 2660SOL     OW14584   1.024   8.527   5.982  0.2357  0.3492  0.5416
 2660SOL    HW114585   1.047   8.615   6.011 -1.7993  0.4812  1.9954
 2660SOL    HW214586   0.986   8.539   5.895  1.6433  0.6312 -0.0598
 2661SOL     OW14587   6.169   0.877   0.082  0.6661  0.0912  0.1994
 2661SOL    HW114588   6.165   0.879  -0.014  1.3467 -2.1952  0.0761
 2661SOL    HW214589   6.080   0.853   0.109  0.3987  1.0159  0.1883
 2662SOL     OW14590   4.597   7.944   5.256 -0.1889 -0.5796 -0.3804
 2662SOL    HW114591   4.561   7.856   5.267 -0.8391 -0.3363 -0.5468
 2662SOL    HW214592   4.557   7.977   5.176 -0.0920 -0.0558 -0.2133
 2663SOL     OW14593   4.722  12.277  11.353  0.1213 -0.4141 -0.1820
 2663SOL    HW114594   4.687  12.354  11.308 -0.0804 -1.0374 -1.1265
 2663SOL    HW214595   4.647  12.241  11.400  0.7268  1.2699  2.2329
 2664SOL     OW14596   2.604   6.545   1.916  0.5784  0.1009 -0.3818
 2664SOL    HW114597   2.536   6.612   1.915 -0.2743 -0.7431 -0.9801
 2664SOL    HW214598   2.579   6.487   1.988  0.9213  0.0372 -0.3135
 2665SOL     OW14599   2.956   7.906   6.357 -0.2181  0.5907  0.1985
 2665SOL    HW114600   2.935   7.860   6.275  0.6830  2.2953 -1.0516
 2665SOL    HW214601   2.994   7.989   6.329 -2.0800  2.3001  2.3460
 2666SOL     OW14602   3.183   9.235   6.444  0.1337  0.1696  0.0590
 2666SOL    HW114603   3.140   9.201   6.523  0.8100  1.7057  1.1450
 2666SOL    HW214604   3.138   9.317   6.426 -0.5070 -0.5178 -1.6478
 2667SOL     OW14605  11.680   0.477  10.961 -0.5651  0.1023 -0.9203
 2667SOL    HW114606  11.596   0.508  10.930 -1.1467  0.2573  0.7118
 2667SOL    HW214607  11.676   0.486  11.056  0.9366 -0.7797 -0.7285
 2668SOL     OW14608   2.897  10.049   1.093  0.4277  0.1921 -0.3378
 2668SOL    HW114609   2.963  10.094   1.147 -0.5058  0.6936  0.4165
 2668SOL    HW214610   2.827  10.027   1.155 -1.2493  1.9011 -1.5217
 2669SOL     OW14611   6.511   8.345   1.752 -0.2405 -0.4510  0.0052
 2669SOL    HW114612   6.597   8.335   1.792 -0.0465 -1.8152 -0.7069
 2669SOL    HW214613   6.453   8.289   1.804 -0.8558  0.9024  0.8433
 2670SOL     OW14614  10.043   8.178   5.089 -0.1147  0.0126 -0.5006
 2670SOL    HW114615  10.111   8.241   5.068  0.5115 -0.2922  0.5390
 2670SOL    HW214616  10.046   8.169   5.185  0.0315 -1.8125 -0.6350
 2671SOL     OW14617   2.450   2.783   5.695  0.2862 -0.0931 -0.1610
 2671SOL    HW114618   2.491   2.858   5.652  0.4259  0.6371  1.1912
 2671SOL    HW214619   2.497   2.707   5.661  0.9474  0.5244 -0.6580
 2672SOL     OW14620  12.731   0.171   4.184  0.0236 -0.0247 -0.0430
 2672SOL    HW114621  12.820   0.200   4.161  0.5795 -2.1885 -0.8390
 2672SOL    HW214622  12.707   0.111   4.114 -1.8209 -0.0019  0.5366
 2673SOL     OW14623   1.533   4.186  11.105  0.2852  0.5045  0.1320
 2673SOL    HW114624   1.607   4.125  11.100  0.3478  0.5959 -0.0721
 2673SOL    HW214625   1.562   4.263  11.056  0.2534  0.7479  0.4920
 2674SOL     OW14626   1.159   1.756   1.267 -0.1327 -0.3355  0.6001
 2674SOL    HW114627   1.111   1.807   1.202 -1.2000 -0.4659  1.2681
 2674SOL    HW214628   1.116   1.670   1.266  0.2617 -0.5397  1.0243
 2675SOL     OW14629   1.485   2.555   8.472 -0.0513  0.2497  0.1214
 2675SOL    HW114630   1.397   2.572   8.507  0.4425  2.4005  0.4665
 2675SOL    HW214631   1.484   2.462   8.450 -1.6894 -0.2956  2.1630
 2676SOL     OW14632   4.295   2.938   3.207  0.0283 -0.5367 -0.1528
 2676SOL    HW114633   4.218   2.889   3.237 -1.1241  0.8262 -0.7503
 2676SOL    HW214634   4.324   2.986   3.284 -1.3150  0.9172 -0.5047
 2677SOL     OW14635   4.983   1.086   9.073  0.1024  0.4663 -0.2099
 2677SOL    HW114636   4.907   1.142   9.058 -0.2056  0.6738  1.9308
 2677SOL    HW214637   4.948   0.997   9.068 -0.3684  0.5680  1.1246
 2678SOL     OW14638   4.824   6.458   5.029 -0.3819 -0.6971  0.1039
 2678SOL    HW114639   4.913   6.456   4.993  0.9805  1.2007  2.9896
 2678SOL    HW214640   4.804   6.551   5.038 -2.1265 -1.1070  0.8151
 2679SOL     OW14641   9.250   6.468   9.332 -0.5636 -0.1146 -0.0440
 2679SOL    HW114642   9.231   6.391   9.278 -0.9653  0.1183 -0.2398
 2679SOL    HW214643   9.302   6.525   9.276 -0.7274 -0.0033 -0.0826
 2680SOL     OW14644   7.773   9.082   5.210  0.6702 -0.1126 -0.2913
 2680SOL    HW114645   7.722   9.163   5.213 -0.2919 -0.5450 -2.4675
 2680SOL    HW214646   7.787   9.067   5.116  2.5532 -1.4303  0.1424
 2681SOL     OW14647   2.121   8.200   6.573  1.1138 -0.2300 -0.0673
 2681SOL    HW114648   2.070   8.189   6.493  2.7369 -1.5653 -0.9871
 2681SOL    HW214649   2.055   8.210   6.642 -0.3390  0.3005 -1.4617
 2682SOL     OW14650  10.753   0.778   6.383 -0.2542  0.0862 -0.2532
 2682SOL    HW114651  10.845   0.790   6.358 -0.1159 -1.0729 -0.3349
 2682SOL    HW214652  10.746   0.820   6.468 -0.0377  1.5682 -0.9253
 2683SOL     OW14653   4.817   2.192   2.123  0.0564 -0.3586  0.2695
 2683SOL    HW114654   4.830   2.285   2.103 -0.8447 -0.0999  0.8649
 2683SOL    HW214655   4.865   2.178   2.204 -0.0152 -0.3545  0.3125
 2684SOL     OW14656   2.171   3.353   0.722  0.0287 -0.0933 -0.0210
 2684SOL    HW114657   2.194   3.326   0.810  0.1704  1.6455  0.5080
 2684SOL    HW214658   2.211   3.439   0.711  0.1789 -0.3451 -1.8556
 2685SOL     OW14659  12.176   0.908  11.760 -0.1422 -0.1493  0.1297
 2685SOL    HW114660  12.241   0.975  11.739  0.7399 -1.3697 -1.2534
 2685SOL    HW214661  12.203   0.873  11.845  0.4070  0.0697  0.0476
 2686SOL     OW14662   3.423   7.312   7.523 -0.4112 -0.2763 -0.0387
 2686SOL    HW114663   3.518   7.315   7.508 -0.5141  0.0267 -0.6855
 2686SOL    HW214664   3.411   7.239   7.584  0.1059 -1.2177 -1.0245
 2687SOL     OW14665   6.254  10.693   3.787  0.0750  0.1973  0.0764
 2687SOL    HW114666   6.192  10.712   3.716 -0.0151 -0.4537 -0.0240
 2687SOL    HW214667   6.202  10.647   3.852  0.6512 -1.1887 -0.4157
 2688SOL     OW14668   2.609   0.423   3.408  0.3033 -0.5037 -0.3026
 2688SOL    HW114669   2.660   0.449   3.484 -1.5859  0.7193  0.6029
 2688SOL    HW214670   2.546   0.359   3.441 -0.0003 -0.5911 -1.0267
 2689SOL     OW14671   4.189   1.977   0.875  0.0042 -0.0542  0.2079
 2689SOL    HW114672   4.152   1.928   0.802 -0.0543  1.4338 -0.8079
 2689SOL    HW214673   4.219   1.910   0.937  1.1249 -1.4175 -1.6988
 2690SOL     OW14674   6.833   0.231   9.040 -0.0140 -0.2638  0.5650
 2690SOL    HW114675   6.846   0.318   9.004  1.9020 -1.3780 -1.6878
 2690SOL    HW214676   6.913   0.214   9.091  0.1866 -1.1366 -0.0224
 2691SOL     OW14677   6.081   7.712   3.693  0.1057 -0.1844  0.5439
 2691SOL    HW114678   6.008   7.651   3.682 -0.0367  0.2362 -1.1969
 2691SOL    HW214679   6.159   7.656   3.693 -0.0079 -0.4144 -1.2260
 2692SOL     OW14680   2.232  11.362   5.845  0.0249 -0.4147  0.6754
 2692SOL    HW114681   2.159  11.340   5.903  0.6241 -3.0032  0.5829
 2692SOL    HW214682   2.299  11.296   5.864 -0.1220 -2.1299 -3.5531
 2693SOL     OW14683   5.869   7.544  11.931 -0.3680  0.3280  0.2214
 2693SOL    HW114684   5.940   7.532  11.868 -0.3493  0.5920  0.1905
 2693SOL    HW214685   5.878   7.634  11.960 -1.0084  0.5258 -0.1777
 2694SOL     OW14686  11.963   1.836   5.547 -0.2559  0.4328 -0.1902
 2694SOL    HW114687  11.963   1.764   5.610 -0.3263  1.9223  1.5927
 2694SOL    HW214688  11.878   1.878   5.557  0.1163  1.3094 -0.5397
 2695SOL     OW14689  10.638  11.566   9.821 -0.4056  0.2457 -0.0185
 2695SOL    HW114690  10.689  11.574   9.741 -1.7657  0.3503 -0.8979
 2695SOL    HW214691  10.633  11.656   9.854  0.3371  0.1737  0.3309
 2696SOL     OW14692   5.961   2.756   0.151  0.1993  0.0479 -0.2330
 2696SOL    HW114693   5.927   2.733   0.237 -2.4438  2.6861 -0.3903
 2696SOL    HW214694   6.015   2.834   0.166  2.7822 -1.5840 -0.5806
 2697SOL     OW14695   9.864   8.869  12.274  0.0731  0.5424 -0.7022
 2697SOL    HW114696   9.913   8.951  12.275  1.0281  0.0043 -1.2905
 2697SOL    HW214697   9.861   8.841  12.365  1.3928  0.3055 -0.7023
 2698SOL     OW14698   9.091   7.422   9.215  0.1463 -0.2662  0.1115
 2698SOL    HW114699   9.110   7.389   9.303  0.9299 -0.0901  0.0165
 2698SOL    HW214700   9.172   7.407   9.166  0.1277  0.7437 -0.2490
 2699SOL     OW14701   9.994   0.602   3.111 -0.1872  0.1295 -0.5429
 2699SOL    HW114702  10.074   0.573   3.066  0.8266  0.1542  1.1587
 2699SOL    HW214703  10.025   0.642   3.192 -1.8172  2.0762 -0.7806
 2700SOL     OW14704   6.012   7.789  11.290  0.0306  0.7451 -0.7997
 2700SOL    HW114705   5.947   7.816  11.225 -2.7666 -2.6579  0.2742
 2700SOL    HW214706   5.969   7.803  11.374  1.7511  0.6951  0.1403
 2701SOL     OW14707   0.901   5.636   1.783  0.1563 -0.2702  0.2256
 2701SOL    HW114708   0.909   5.548   1.745 -1.0480 -0.6112  0.7374
 2701SOL    HW214709   0.876   5.692   1.709  0.6940 -0.3813 -0.0519
 2702SOL     OW14710   9.153   5.500   1.420 -0.2502 -0.1635  0.5132
 2702SOL    HW114711   9.082   5.440   1.398 -1.0688  0.3385  1.6636
 2702SOL    HW214712   9.199   5.515   1.338 -0.3828 -1.8945  0.1002
 2703SOL     OW14713   2.200  11.481  12.267 -0.5167  0.1624 -0.0772
 2703SOL    HW114714   2.249  11.399  12.266 -0.5636  0.1336 -1.3893
 2703SOL    HW214715   2.266  11.549  12.253 -0.7372  0.1852 -1.0482
 2704SOL     OW14716   8.120   9.324   0.965  0.2257  0.5243  0.2880
 2704SOL    HW114717   8.057   9.348   0.898  1.0089  0.9439 -0.3235
 2704SOL    HW214718   8.098   9.379   1.040  0.1692  1.0141 -0.0867
 2705SOL     OW14719   6.265   3.992   5.749  1.0121 -0.4905 -0.2359
 2705SOL    HW114720   6.242   4.060   5.685  1.5297  0.5199  0.6198
 2705SOL    HW214721   6.181   3.952   5.773  0.8097 -0.9318 -1.5607
 2706SOL     OW14722   9.723  10.367   3.529 -0.4542 -0.4736  0.2384
 2706SOL    HW114723   9.739  10.278   3.498  1.8886  0.2724 -0.9541
 2706SOL    HW214724   9.628  10.372   3.539 -0.7392 -2.7784 -0.6415
 2707SOL     OW14725   0.614   9.786   6.397  0.4771 -0.4483 -0.5709
 2707SOL    HW114726   0.654   9.716   6.449  1.6353  0.0091 -0.8210
 2707SOL    HW214727   0.671   9.795   6.321  0.5304  0.9727 -0.3866
 2708SOL     OW14728   1.414  11.644  11.375  0.4435 -0.2464 -0.5906
 2708SOL    HW114729   1.452  11.618  11.291 -0.4151  0.2649 -1.1556
 2708SOL    HW214730   1.468  11.600  11.441  1.1815 -0.5871 -1.4025
 2709SOL     OW14731   2.865   3.975  10.347 -0.5227  0.2977  0.7306
 2709SOL    HW114732   2.953   3.948  10.374 -0.4988 -1.5199 -0.9391
 2709SOL    HW214733   2.880   4.044  10.283 -0.1981 -0.8861 -0.5180
 2710SOL     OW14734   3.222   0.900   3.931 -0.0453  0.0077  0.2672
 2710SOL    HW114735   3.302   0.889   3.879 -0.6761  1.4296 -1.0620
 2710SOL    HW214736   3.242   0.856   4.014  2.1657  0.4263  0.0227
 2711SOL     OW14737   0.303  10.014   6.649  1.2344 -0.0682 -0.1705
 2711SOL    HW114738   0.264  10.068   6.718  2.1764 -0.5156  0.7241
 2711SOL    HW214739   0.295  10.068   6.570 -0.5803  0.1264  0.1040
 2712SOL     OW14740   5.436   4.337   5.370  0.1838  0.9323 -0.2293
 2712SOL    HW114741   5.408   4.301   5.454 -0.3695  1.8839 -0.0004
 2712SOL    HW214742   5.416   4.267   5.307 -0.5798  0.7026  0.2528
 2713SOL     OW14743   2.469   5.208   4.285 -0.3022  0.3286 -0.1038
 2713SOL    HW114744   2.495   5.123   4.319 -0.6085 -0.1086 -0.9446
 2713SOL    HW214745   2.384   5.226   4.326 -1.2934 -0.7865 -1.5509
 2714SOL     OW14746   3.296   0.862   0.362 -0.4101 -0.3546  0.3087
 2714SOL    HW114747   3.292   0.779   0.316  0.7195 -0.1387 -0.2019
 2714SOL    HW214748   3.298   0.838   0.455 -0.5463 -0.8675  0.1805
 2715SOL     OW14749   2.470   3.363  12.755 -0.5287  0.2903  0.2565
 2715SOL    HW114750   2.469   3.379  12.661 -0.2228  0.5679  0.2979
 2715SOL    HW214751   2.465   3.450  12.795  1.7355  0.3902  0.4787
 2716SOL     OW14752   1.616  10.524   3.845  0.6171  0.4591  0.1549
 2716SOL    HW114753   1.529  10.541   3.810  0.4183  0.3677  0.5994
 2716SOL    HW214754   1.674  10.582   3.795  0.5065 -0.4534 -1.0879
 2717SOL     OW14755   6.112   1.879   6.079 -0.1989 -0.1828  0.6745
 2717SOL    HW114756   6.059   1.860   6.157 -0.0265 -0.7114  0.6669
 2717SOL    HW214757   6.101   1.973   6.065 -0.1059 -0.0557  1.4263
 2718SOL     OW14758   5.353  12.238  10.435 -0.0482  0.4441 -0.0632
 2718SOL    HW114759   5.366  12.316  10.489  1.6483 -0.6525  1.2351
 2718SOL    HW214760   5.267  12.205  10.461 -0.0547  0.9635  0.6124
 2719SOL     OW14761   5.901   3.190   4.857  0.1475 -0.4197  0.3984
 2719SOL    HW114762   5.861   3.232   4.934  0.1243 -0.2571  0.2989
 2719SOL    HW214763   5.985   3.157   4.889  0.0119 -0.6052  0.5641
 2720SOL     OW14764   4.112   0.515   5.997 -0.5133 -0.4355 -0.2301
 2720SOL    HW114765   4.107   0.421   5.982 -0.9461 -0.3482 -0.6687
 2720SOL    HW214766   4.171   0.548   5.929  0.6335 -0.5476  0.6921
 2721SOL     OW14767   3.340   3.756   7.882  0.5847 -0.2316  0.1882
 2721SOL    HW114768   3.283   3.809   7.826 -0.6324 -0.5237  1.0873
 2721SOL    HW214769   3.378   3.691   7.824 -0.6657 -0.5383 -0.3275
 2722SOL     OW14770   8.457   9.869   5.879 -0.6304 -0.4217  0.1657
 2722SOL    HW114771   8.452   9.941   5.942 -0.4956 -0.3460  0.0928
 2722SOL    HW214772   8.512   9.804   5.922 -1.2623 -0.7489  0.4867
 2723SOL     OW14773   2.112  10.784   0.443 -0.2470  0.6919  0.6293
 2723SOL    HW114774   2.156  10.761   0.361 -0.2526  0.1504  0.7771
 2723SOL    HW214775   2.148  10.724   0.507 -0.6767  0.7276  0.9042
 2724SOL     OW14776   7.893  10.560   6.445  0.0711 -0.4387 -0.1349
 2724SOL    HW114777   7.941  10.480   6.467 -1.2855 -0.9336  1.1837
 2724SOL    HW214778   7.887  10.608   6.528  1.0495  1.1800 -0.9429
 2725SOL     OW14779   9.568   0.053  10.739  0.1484 -0.7435  0.3691
 2725SOL    HW114780   9.650   0.033  10.784 -0.6644 -3.3803  0.8140
 2725SOL    HW214781   9.542  -0.028  10.697 -0.7901  0.8003 -2.2866
 2726SOL     OW14782   6.039  11.773   3.130 -0.4572 -0.3832 -0.2317
 2726SOL    HW114783   6.087  11.774   3.047  1.2557 -1.1180  0.6974
 2726SOL    HW214784   6.015  11.864   3.145 -0.0204 -0.1090 -1.1232
 2727SOL     OW14785  10.726   8.155   3.982  0.3170 -0.1711 -0.0534
 2727SOL    HW114786  10.654   8.156   3.919 -1.8490  1.2035  2.2734
 2727SOL    HW214787  10.715   8.074   4.031 -0.2111  0.4510  0.8768
 2728SOL     OW14788  11.077  12.266   9.803 -0.4733 -0.2633 -0.2785
 2728SOL    HW114789  11.033  12.227   9.727  0.3609 -0.6891 -0.5505
 2728SOL    HW214790  11.165  12.230   9.801  0.3717  1.6902 -0.5923
 2729SOL     OW14791   6.904   6.083   2.228  0.2038  0.2262 -0.5099
 2729SOL    HW114792   6.992   6.091   2.194  1.4737 -0.8543  2.2282
 2729SOL    HW214793   6.855   6.036   2.161  2.1032 -0.4556 -1.4535
 2730SOL     OW14794   6.500   1.193   3.169  0.6106 -0.0629 -0.1732
 2730SOL    HW114795   6.463   1.243   3.096 -1.1189  0.2843  0.8793
 2730SOL    HW214796   6.436   1.122   3.183  1.0841 -0.3036  0.8008
 2731SOL     OW14797   8.652   9.419  11.442  0.0048  0.3091 -0.2445
 2731SOL    HW114798   8.636   9.503  11.399 -1.6840  0.2919  0.2734
 2731SOL    HW214799   8.711   9.372  11.382  0.0063  1.3878 -1.1211
 2732SOL     OW14800   5.434   8.072   9.360  0.1215 -0.1799  0.5412
 2732SOL    HW114801   5.422   8.032   9.446  1.8270  1.8206  1.7959
 2732SOL    HW214802   5.501   8.018   9.318  0.0537 -0.5390  0.8905
 2733SOL     OW14803   9.425   4.255   3.579 -0.3596 -0.1417  0.5523
 2733SOL    HW114804   9.396   4.329   3.525  1.5896 -1.0023 -1.8754
 2733SOL    HW214805   9.440   4.293   3.666 -1.5722  1.7980 -0.0169
 2734SOL     OW14806   3.506  11.522   3.884 -0.2934 -0.5507 -0.2439
 2734SOL    HW114807   3.577  11.458   3.897  0.0142 -0.0668  0.5686
 2734SOL    HW214808   3.464  11.529   3.970  0.1254  0.8529 -0.1215
 2735SOL     OW14809   4.921  10.796  12.377 -0.3198 -0.1670 -0.2466
 2735SOL    HW114810   4.854  10.816  12.312 -0.7917 -0.9454 -0.0041
 2735SOL    HW214811   4.944  10.882  12.414 -1.3007  0.0972 -0.2205
 2736SOL     OW14812   4.154   2.755   7.702  0.7074  0.0854 -0.4298
 2736SOL    HW114813   4.192   2.824   7.755  1.6684 -1.1466  0.5469
 2736SOL    HW214814   4.078   2.725   7.752  0.2061  0.5115 -0.9210
 2737SOL     OW14815   1.355  10.576   2.947  0.1532 -0.3268  0.3041
 2737SOL    HW114816   1.405  10.656   2.959  0.0656 -0.5302  2.3786
 2737SOL    HW214817   1.268  10.596   2.983 -0.6964 -0.5826 -1.4840
 2738SOL     OW14818  12.187   0.604   0.545  0.7320  1.0532 -0.2928
 2738SOL    HW114819  12.263   0.557   0.576 -0.4608  0.4243  1.8510
 2738SOL    HW214820  12.138   0.627   0.624 -1.5895  0.9377 -1.5968
 2739SOL     OW14821   6.847   8.646   1.130  0.4576  0.0622 -0.3437
 2739SOL    HW114822   6.938   8.635   1.104  0.3367 -0.5592 -0.5175
 2739SOL    HW214823   6.849   8.714   1.197  0.9024  0.8761 -1.1747
 2740SOL     OW14824   3.894  10.224   2.970 -0.0878  0.5759  0.1622
 2740SOL    HW114825   3.973  10.277   2.972  0.0008  0.4447  0.1577
 2740SOL    HW214826   3.922  10.140   2.934  0.1718 -0.1228  1.9008
 2741SOL     OW14827   0.177   8.521   0.005  0.0740  0.0565  0.5598
 2741SOL    HW114828   0.231   8.458  -0.042  0.7664  0.2929  1.0314
 2741SOL    HW214829   0.094   8.523  -0.044  1.0787  0.9770 -1.2080
 2742SOL     OW14830   2.803   1.458   3.078 -0.1136 -0.4329 -0.1578
 2742SOL    HW114831   2.771   1.368   3.088  0.7658 -0.5238  3.2112
 2742SOL    HW214832   2.898   1.448   3.070 -0.1218  0.1643 -1.0220
 2743SOL     OW14833   7.620  11.708   0.928  0.2589 -0.0220 -0.2049
 2743SOL    HW114834   7.702  11.756   0.940  0.9668 -0.7744 -1.7296
 2743SOL    HW214835   7.621  11.683   0.836 -0.8430 -1.5951  0.1795
 2744SOL     OW14836  10.293   0.559  10.477  0.3496  0.1542  0.2516
 2744SOL    HW114837  10.310   0.465  10.485  0.1544  0.0916 -0.0132
 2744SOL    HW214838  10.266   0.586  10.564 -0.2908 -0.1909  0.1763
 2745SOL     OW14839  12.339   6.662   9.753  0.2065 -0.0547 -0.4929
 2745SOL    HW114840  12.292   6.586   9.718  0.4819 -0.7091  0.5462
 2745SOL    HW214841  12.329   6.656   9.848  2.3947 -0.2180 -0.2191
 2746SOL     OW14842   6.826   3.180   7.198 -0.0100  0.0657  0.1577
 2746SOL    HW114843   6.863   3.091   7.191 -0.7021 -0.1948 -0.2750
 2746SOL    HW214844   6.808   3.205   7.108 -2.2286 -0.3985  0.4183
 2747SOL     OW14845   1.211   6.848  12.298  0.2118 -0.0059  0.8828
 2747SOL    HW114846   1.131   6.810  12.262  0.0960  0.1281  0.9982
 2747SOL    HW214847   1.214   6.815  12.388  1.9167 -2.5866 -0.0199
 2748SOL     OW14848   3.054  10.089  11.008  0.4810 -0.5394 -0.4951
 2748SOL    HW114849   3.041  10.147  10.933  1.4103  1.7551  0.9851
 2748SOL    HW214850   2.967  10.056  11.029 -0.3629  1.4382 -0.6269
 2749SOL     OW14851  12.110   6.860   2.646 -0.1051 -0.0335  0.2525
 2749SOL    HW114852  12.015   6.862   2.635 -0.4040  1.6959  2.4561
 2749SOL    HW214853  12.144   6.902   2.567 -1.1010 -1.0065 -0.7423
 2750SOL     OW14854   3.716  10.323  12.105  0.4517  0.4762  0.6629
 2750SOL    HW114855   3.740  10.267  12.031 -0.6433  1.2221 -0.2750
 2750SOL    HW214856   3.794  10.377  12.120  1.5049 -1.1518  1.5277
 2751SOL     OW14857   5.726   6.572   8.651 -0.1440 -0.0331 -0.5699
 2751SOL    HW114858   5.724   6.632   8.576  0.2953  0.3975 -0.2419
 2751SOL    HW214859   5.640   6.583   8.693 -0.5450 -0.5686 -1.2276
 2752SOL     OW14860   3.208   9.080   8.927 -0.1221  0.0535  0.1650
 2752SOL    HW114861   3.143   9.129   8.877 -0.1711 -0.4223 -0.2388
 2752SOL    HW214862   3.157   9.022   8.983 -0.0458 -0.6740 -0.5083
 2753SOL     OW14863   1.465   5.811  11.122  0.2938  0.1668  0.5245
 2753SOL    HW114864   1.507   5.897  11.129 -0.7060  0.6238  0.9763
 2753SOL    HW214865   1.456   5.781  11.212  0.1119 -0.1593  0.3993
 2754SOL     OW14866   1.036   8.868   6.852  0.2727  0.3280 -0.3718
 2754SOL    HW114867   1.044   8.876   6.947 -1.8712 -0.2614 -0.0877
 2754SOL    HW214868   1.074   8.782   6.833  1.5772  0.8450 -0.2104
 2755SOL     OW14869   5.504  12.585   4.632 -0.1230 -0.0314  0.4034
 2755SOL    HW114870   5.539  12.522   4.695 -1.1284  0.7841  1.8399
 2755SOL    HW214871   5.503  12.537   4.549  0.7482 -1.3206  1.0962
 2756SOL     OW14872   8.722   1.109   5.616  0.5436 -0.9435  0.0935
 2756SOL    HW114873   8.715   1.198   5.650 -0.1375 -0.7154 -0.6307
 2756SOL    HW214874   8.647   1.063   5.653 -1.6139 -0.0842 -2.8412
 2757SOL     OW14875   6.722   3.589   2.337  0.2847 -0.4421 -0.0450
 2757SOL    HW114876   6.749   3.499   2.353 -2.3966 -1.2039  0.8104
 2757SOL    HW214877   6.695   3.621   2.423  0.5807  0.9600 -0.4562
 2758SOL     OW14878   6.819   7.380   3.249  0.4288  0.3404 -0.4048
 2758SOL    HW114879   6.870   7.461   3.240  2.4003 -0.3569  2.8181
 2758SOL    HW214880   6.856   7.321   3.183  1.2368  1.0452 -0.6003
 2759SOL     OW14881   5.423  12.563  11.949 -0.1121 -0.1857  0.5386
 2759SOL    HW114882   5.375  12.578  12.031 -1.5680 -0.1909 -0.2630
 2759SOL    HW214883   5.357  12.577  11.881  1.4903  1.6717 -0.7416
 2760SOL     OW14884  10.952   1.257   2.363  0.3128 -0.0583 -0.4839
 2760SOL    HW114885  10.997   1.203   2.299  0.9815 -1.0187  0.7501
 2760SOL    HW214886  11.020   1.286   2.423 -0.6979 -2.2159  1.9075
 2761SOL     OW14887   6.132   7.931   1.394  0.0132 -0.5613  0.2126
 2761SOL    HW114888   6.132   7.845   1.434  1.3497 -0.1171  1.2189
 2761SOL    HW214889   6.223   7.949   1.374 -0.1526  0.8977  0.6487
 2762SOL     OW14890   8.632   9.393   6.964  0.2615  0.2832 -0.2147
 2762SOL    HW114891   8.673   9.427   7.044 -1.2102  2.0659 -0.1544
 2762SOL    HW214892   8.621   9.470   6.908 -1.0949 -0.4763 -1.0481
 2763SOL     OW14893   9.305   3.020  11.405 -0.0908 -0.3146 -0.4020
 2763SOL    HW114894   9.254   3.073  11.466  0.7567 -0.7195  0.6909
 2763SOL    HW214895   9.389   3.064  11.398 -1.1158  1.4180 -3.6897
 2764SOL     OW14896   2.857   0.222   1.208  0.4086  0.0750  0.0153
 2764SOL    HW114897   2.874   0.305   1.253  2.0583 -0.5393  0.6049
 2764SOL    HW214898   2.796   0.245   1.138 -0.9532  1.3581  1.5417
 2765SOL     OW14899   2.478  10.747   3.875  0.4280 -0.4349 -0.1556
 2765SOL    HW114900   2.413  10.794   3.927 -0.0791 -1.5953  0.2912
 2765SOL    HW214901   2.430  10.716   3.798  0.7601 -0.2028 -0.4590
 2766SOL     OW14902  12.762  10.283   2.856 -0.0115  1.0391 -0.1300
 2766SOL    HW114903  12.746  10.238   2.938 -0.1147  1.1001 -0.1165
 2766SOL    HW214904  12.750  10.216   2.789 -1.3997  1.3299 -0.1885
 2767SOL     OW14905   8.844   3.904   0.395 -0.4000  0.6710 -0.6223
 2767SOL    HW114906   8.812   3.986   0.431 -1.2189 -0.0366  0.3302
 2767SOL    HW214907   8.770   3.843   0.403  0.4897 -0.4245 -0.3718
 2768SOL     OW14908  10.100  10.021  10.422  0.2539  0.4147  0.4742
 2768SOL    HW114909  10.080  10.010  10.329 -0.9643 -1.3021  0.8874
 2768SOL    HW214910  10.023  10.066  10.458 -0.3610 -1.0136  1.0331
 2769SOL     OW14911   5.747   5.904   6.862 -0.0391  0.3060  0.3498
 2769SOL    HW114912   5.769   5.880   6.952 -0.5910 -0.4589  0.2828
 2769SOL    HW214913   5.670   5.960   6.870 -1.4644 -1.5712  0.2291
 2770SOL     OW14914   6.258   6.244  11.381 -0.5887  0.0088  0.3754
 2770SOL    HW114915   6.344   6.280  11.358 -0.8783 -0.2333 -1.1959
 2770SOL    HW214916   6.201   6.321  11.385 -0.0716  0.3568  2.8599
 2771SOL     OW14917   3.461   1.389   1.719  0.0667  0.0373 -0.0649
 2771SOL    HW114918   3.408   1.340   1.782  0.5454 -1.4794 -0.7892
 2771SOL    HW214919   3.401   1.455   1.683 -0.2094  0.9461  1.9420
 2772SOL     OW14920  12.255   3.521   2.126 -0.2722  0.1675 -0.3853
 2772SOL    HW114921  12.310   3.451   2.092 -0.1298  0.2687 -0.3617
 2772SOL    HW214922  12.262   3.513   2.221 -2.4557 -1.5730 -0.2697
 2773SOL     OW14923   6.671  12.446  11.547  0.4259  0.3625 -0.6152
 2773SOL    HW114924   6.696  12.454  11.640  1.0438  0.8846 -0.8139
 2773SOL    HW214925   6.611  12.519  11.532  0.6000  0.4913 -0.7029
 2774SOL     OW14926   9.608   3.415   0.136 -0.0401  0.5203 -0.0848
 2774SOL    HW114927   9.518   3.446   0.131  0.0941  0.7577 -1.7223
 2774SOL    HW214928   9.605   3.327   0.098  0.4375  0.6069 -0.3298
 2775SOL     OW14929   1.576   0.875   8.671 -0.4866 -0.4003  0.6863
 2775SOL    HW114930   1.663   0.857   8.636 -0.7077 -0.6015  0.2268
 2775SOL    HW214931   1.544   0.790   8.701 -0.8313 -0.4708  0.1349
 2776SOL     OW14932   1.673  10.437   4.119 -0.2988  0.2861  0.4055
 2776SOL    HW114933   1.653  10.459   4.029  2.3482 -0.5518 -0.4729
 2776SOL    HW214934   1.652  10.344   4.127  0.8084  0.0026  0.1898
 2777SOL     OW14935   7.871   2.046   3.748 -0.2337 -0.3461  0.1449
 2777SOL    HW114936   7.834   2.077   3.831 -0.8935 -0.3039 -0.1571
 2777SOL    HW214937   7.960   2.081   3.746 -0.1545 -0.4922  0.9135
 2778SOL     OW14938   4.396  11.246   4.412  0.2341  0.0181  0.1530
 2778SOL    HW114939   4.420  11.255   4.320  1.9577 -2.4096  0.2776
 2778SOL    HW214940   4.321  11.186   4.412  0.7897 -0.6906  0.3506
 2779SOL     OW14941   4.603   0.194   5.842 -0.1286  0.3830 -0.1935
 2779SOL    HW114942   4.652   0.258   5.791  0.0247  0.1780 -0.3036
 2779SOL    HW214943   4.670   0.143   5.887 -0.2702  0.7302  0.4177
 2780SOL     OW14944   5.399   6.807  12.620 -0.2571 -0.0518  0.2420
 2780SOL    HW114945   5.491   6.787  12.636 -0.6125 -2.0046  0.1122
 2780SOL    HW214946   5.377   6.873  12.685  1.6804  1.8634 -0.9149
 2781SOL     OW14947   7.451   8.420   3.926  0.4274 -0.0082 -0.4214
 2781SOL    HW114948   7.471   8.501   3.880  2.1301 -0.0722  0.1332
 2781SOL    HW214949   7.368   8.391   3.888  0.9715  0.7495 -2.3179
 2782SOL     OW14950  12.638  12.434   2.290  0.2862 -0.5389  0.7919
 2782SOL    HW114951  12.674  12.498   2.229 -1.3897 -0.1814  0.1431
 2782SOL    HW214952  12.715  12.402   2.338  1.4118  0.4612 -0.2604
 2783SOL     OW14953   5.666   2.402   9.737  0.2610 -0.0304  0.1947
 2783SOL    HW114954   5.692   2.311   9.752 -0.5998 -0.3241 -0.0450
 2783SOL    HW214955   5.579   2.409   9.775  0.7132  0.9743  1.0939
 2784SOL     OW14956   8.198   9.871   4.696 -0.1012  0.6074  0.9137
 2784SOL    HW114957   8.251   9.936   4.650 -0.4492 -0.3949 -0.9969
 2784SOL    HW214958   8.108   9.902   4.686 -0.1583  0.5629  1.2624
 2785SOL     OW14959   0.370   6.772   4.011 -0.1845 -0.1788 -0.6326
 2785SOL    HW114960   0.308   6.768   3.938  0.7667 -0.5882 -1.4425
 2785SOL    HW214961   0.340   6.847   4.063 -1.4838 -0.5098 -0.8692
 2786SOL     OW14962   4.858   6.986   0.977  0.3665 -0.6449 -0.1523
 2786SOL    HW114963   4.915   7.024   0.910  2.0405 -2.1706  0.3340
 2786SOL    HW214964   4.830   7.060   1.029  2.7255  0.1037  0.1845
 2787SOL     OW14965   1.020   4.647   3.469  0.4624  0.0906 -0.5864
 2787SOL    HW114966   0.994   4.713   3.533  1.5979 -0.3818  0.3883
 2787SOL    HW214967   1.093   4.686   3.422  0.1805  0.0962 -1.0316
 2788SOL     OW14968   9.939  10.860   4.221 -0.4614 -0.5253  0.1111
 2788SOL    HW114969   9.889  10.794   4.173 -1.7439 -1.1163  2.1036
 2788SOL    HW214970   9.898  10.943   4.197 -1.6514 -0.8936  0.7659
 2789SOL     OW14971   6.156   8.049   0.376 -0.7971  0.2475 -0.0893
 2789SOL    HW114972   6.162   8.142   0.397 -0.7897 -0.0082  1.1324
 2789SOL    HW214973   6.173   8.005   0.459  0.4051 -0.8816 -0.9077
 2790SOL     OW14974   3.872   6.618   2.601  0.5352  0.2389  0.2713
 2790SOL    HW114975   3.813   6.669   2.656  1.6549  0.3976  1.3724
 2790SOL    HW214976   3.818   6.549   2.564 -0.9372  1.9208 -0.9010
 2791SOL     OW14977   4.245   2.857   8.773  0.9025 -0.7238 -0.2318
 2791SOL    HW114978   4.182   2.851   8.845 -0.3132  1.2677 -1.0249
 2791SOL    HW214979   4.284   2.944   8.782  1.6530 -0.9324 -1.2552
 2792SOL     OW14980   3.751   4.800  12.028  0.5219  0.4044  0.1510
 2792SOL    HW114981   3.740   4.883  12.074  0.6515  0.1426  0.6654
 2792SOL    HW214982   3.790   4.824  11.943  0.2176  0.8956  0.1492
 2793SOL     OW14983  11.393  10.376   0.334  0.1793  0.1883 -0.2292
 2793SOL    HW114984  11.402  10.282   0.348 -1.6720  0.2665  1.9471
 2793SOL    HW214985  11.450  10.416   0.400 -0.2857  0.5924 -0.0685
 2794SOL     OW14986   0.144  12.171   6.321 -0.2200  0.0117 -0.3021
 2794SOL    HW114987   0.189  12.233   6.263  0.5218  0.9927  1.2573
 2794SOL    HW214988   0.059  12.212   6.338 -0.5357 -0.3947 -0.8743
 2795SOL     OW14989   0.838   8.247   3.333  0.1048  0.3341 -0.2041
 2795SOL    HW114990   0.859   8.155   3.351 -0.4229 -0.0619 -1.5296
 2795SOL    HW214991   0.800   8.279   3.415 -0.9630 -1.0212 -0.1269
 2796SOL     OW14992  10.079   3.571  10.279 -0.6714  0.0877  0.1046
 2796SOL    HW114993  10.134   3.494  10.263 -0.8977 -0.1682  0.5360
 2796SOL    HW214994   9.991   3.536  10.291 -1.1853  0.6012 -1.8698
 2797SOL     OW14995   3.373   7.363   7.256  0.1943 -0.0075 -0.0559
 2797SOL    HW114996   3.375   7.458   7.248 -1.1413  0.0573  0.2614
 2797SOL    HW214997   3.414   7.345   7.340 -1.0417  0.4151  0.6640
 2798SOL     OW14998   2.603   0.328   4.342 -0.0084  0.1998 -0.1224
 2798SOL    HW114999   2.670   0.351   4.278  0.5495 -1.8719 -0.3713
 2798SOL    HW215000   2.635   0.361   4.426  1.2851 -0.6460 -0.2665
 2799SOL     OW15001  12.185   0.843   3.749 -0.1599 -0.5773  0.1344
 2799SOL    HW115002  12.139   0.779   3.805 -1.7767  0.8544  0.5272
 2799SOL    HW215003  12.114   0.888   3.702  0.9775  0.6273 -0.4636
 2800SOL     OW15004   4.405   1.279   4.050  0.4325  0.3844 -0.5212
 2800SOL    HW115005   4.316   1.315   4.052  1.0664  2.0032  1.3675
 2800SOL    HW215006   4.452   1.334   3.988  0.7092  1.0275  0.2622
 2801SOL     OW15007   4.876   5.479   4.485  0.3459 -0.0854 -0.4067
 2801SOL    HW115008   4.911   5.466   4.396  0.3745 -1.6330 -0.2037
 2801SOL    HW215009   4.783   5.458   4.477  0.1579  0.6501 -0.2333
 2802SOL     OW15010   1.475  12.694   8.497  0.2654 -0.2910 -0.5790
 2802SOL    HW115011   1.409  12.714   8.563  1.8120 -1.2414  1.3383
 2802SOL    HW215012   1.450  12.608   8.463  1.6024 -1.6729  1.7031
 2803SOL     OW15013   4.463  10.373   6.052 -0.1983  0.5965 -0.4356
 2803SOL    HW115014   4.538  10.320   6.024 -0.6696 -1.1578  1.3560
 2803SOL    HW215015   4.495  10.425   6.125 -0.7613 -0.4525  0.5976
 2804SOL     OW15016   0.528   7.654   2.692  0.0090 -0.1499 -0.4301
 2804SOL    HW115017   0.614   7.694   2.679 -0.5770  0.8966 -1.3314
 2804SOL    HW215018   0.543   7.560   2.683  0.9498  0.0637 -1.3156
 2805SOL     OW15019   6.294   5.934   0.794 -0.0255 -0.1669 -0.2539
 2805SOL    HW115020   6.254   6.015   0.763 -1.2353 -0.6001  0.1021
 2805SOL    HW215021   6.377   5.928   0.747 -0.0164  1.1630 -0.4363
 2806SOL     OW15022   2.653   0.213  11.901 -0.7149  0.0268 -0.1021
 2806SOL    HW115023   2.723   0.164  11.942 -0.9899  2.2129  3.3493
 2806SOL    HW215024   2.686   0.303  11.896 -3.1278  1.1205  1.6458
 2807SOL     OW15025  10.436   8.611   9.439  0.4681 -0.1640 -0.0002
 2807SOL    HW115026  10.370   8.568   9.493  0.0137  0.5309  0.0204
 2807SOL    HW215027  10.393   8.692   9.410  1.5110  0.6105  0.5222
 2808SOL     OW15028   7.977   1.590   9.523 -0.0865  0.5700 -0.2586
 2808SOL    HW115029   7.888   1.564   9.499 -0.4318  0.9083  0.6069
 2808SOL    HW215030   8.004   1.527   9.589  1.2917 -1.0474 -2.2207
 2809SOL     OW15031   7.313   2.583   6.162 -0.0213  0.3133 -0.5356
 2809SOL    HW115032   7.318   2.531   6.242 -2.2758 -0.3296 -0.7576
 2809SOL    HW215033   7.349   2.526   6.094  0.2391  0.1888 -0.2976
 2810SOL     OW15034   3.248   7.923   8.748 -0.0218 -0.3951  0.6018
 2810SOL    HW115035   3.319   7.893   8.804  0.6618 -0.7436 -0.4072
 2810SOL    HW215036   3.292   7.966   8.675 -0.9367  2.3017  1.5159
 2811SOL     OW15037  10.680   9.680   6.809  0.1044 -0.1626 -0.5457
 2811SOL    HW115038  10.592   9.663   6.775 -0.6274  0.2607  1.0563
 2811SOL    HW215039  10.667   9.744   6.879  1.8200  0.6821 -0.9317
 2812SOL     OW15040   8.911   8.988   8.812  0.3151 -0.9801 -0.4614
 2812SOL    HW115041   8.864   8.926   8.867 -2.1146 -1.2630 -2.6936
 2812SOL    HW215042   8.889   8.963   8.722 -0.6925  2.9681 -1.5071
 2813SOL     OW15043   3.173   5.361   8.719 -0.1275 -0.4637 -0.3635
 2813SOL    HW115044   3.117   5.400   8.653 -1.0004  0.4237  0.8439
 2813SOL    HW215045   3.113   5.324   8.784  0.6729 -0.0581  0.6457
 2814SOL     OW15046   1.232   5.250   2.963  1.0144 -0.3130 -0.4461
 2814SOL    HW115047   1.313   5.287   2.997  0.3870 -0.0972  0.8696
 2814SOL    HW215048   1.224   5.165   3.007  1.0973 -0.8507 -1.4365
 2815SOL     OW15049  11.278  11.118   0.825  0.5074 -0.2237  0.2405
 2815SOL    HW115050  11.191  11.133   0.788 -0.6298 -1.4910  2.2577
 2815SOL    HW215051  11.311  11.206   0.845 -1.0939  0.2177  1.1163
 2816SOL     OW15052   0.192   0.026   5.523 -0.3523  0.2031 -0.2557
 2816SOL    HW115053   0.118   0.087   5.528  0.2763  0.9182  0.7916
 2816SOL    HW215054   0.265   0.074   5.563  0.8108 -0.3098 -1.6770
 2817SOL     OW15055   2.632   0.201   9.424 -0.2137 -0.3509 -0.2046
 2817SOL    HW115056   2.658   0.186   9.332  0.2632  1.6683 -0.4361
 2817SOL    HW215057   2.622   0.296   9.431 -0.4778 -0.4947  1.7927
 2818SOL     OW15058  11.297  10.481   3.373  0.2742 -0.6863 -0.7115
 2818SOL    HW115059  11.334  10.525   3.449  0.8036 -1.1456 -0.7019
 2818SOL    HW215060  11.229  10.541   3.342  2.0852  0.9806 -1.7094
 2819SOL     OW15061   6.336   3.117   2.974 -0.2993 -0.2909 -0.4584
 2819SOL    HW115062   6.428   3.093   2.989  0.7369  3.0319 -0.5695
 2819SOL    HW215063   6.337   3.160   2.888 -1.5487  1.3592  0.3022
 2820SOL     OW15064   6.523   1.903   5.658  0.0020  0.1796  0.2641
 2820SOL    HW115065   6.564   1.989   5.668 -1.6334  1.0211  0.1199
 2820SOL    HW215066   6.504   1.897   5.565 -0.2988 -0.1330  0.3450
 2821SOL     OW15067   0.594   9.778   0.042  0.0615  0.1200  0.0582
 2821SOL    HW115068   0.636   9.766  -0.043 -0.5568  0.2591 -0.2729
 2821SOL    HW215069   0.509   9.736   0.032 -0.1493  0.4380  0.5015
 2822SOL     OW15070   4.605   4.745   6.097 -1.1742  0.4991  0.3668
 2822SOL    HW115071   4.695   4.769   6.073 -1.3085  0.6390 -0.0160
 2822SOL    HW215072   4.590   4.661   6.053 -0.7665 -0.2146  1.5578
 2823SOL     OW15073  10.610   2.548   9.400  0.3284 -0.4379 -0.3222
 2823SOL    HW115074  10.689   2.601   9.410  0.8949 -1.3157  0.0011
 2823SOL    HW215075  10.591   2.516   9.488 -0.7220  0.2279 -0.3043
 2824SOL     OW15076  11.087   0.036   7.250  0.2345 -0.4530 -0.0177
 2824SOL    HW115077  11.049   0.106   7.303 -0.8547 -0.0527 -1.2940
 2824SOL    HW215078  11.147   0.081   7.190  1.9228 -0.9633  1.1904
 2825SOL     OW15079   4.316   4.617  12.254  0.2461 -0.7185 -0.0381
 2825SOL    HW115080   4.288   4.531  12.222 -0.9887 -0.2420 -0.2922
 2825SOL    HW215081   4.290   4.617  12.346  1.2232 -1.0135  0.2474
 2826SOL     OW15082   6.483   5.985   1.361 -0.1483 -0.6497 -0.1155
 2826SOL    HW115083   6.555   6.041   1.389 -0.6340 -0.5948  1.0841
 2826SOL    HW215084   6.487   5.986   1.265 -1.0047  2.5516 -0.2250
 2827SOL     OW15085   1.903   7.074   1.543 -0.1350  0.2184  0.4702
 2827SOL    HW115086   1.813   7.050   1.518 -0.0013  1.4667 -1.4427
 2827SOL    HW215087   1.899   7.169   1.555  0.7257  0.1511  1.4337
 2828SOL     OW15088   6.179   2.548   8.686 -0.8371 -0.0091  0.7409
 2828SOL    HW115089   6.174   2.636   8.649  0.6748 -0.1898  0.0064
 2828SOL    HW215090   6.089   2.525   8.706 -1.1998  2.0106  1.6940
 2829SOL     OW15091  12.322   9.399   5.163  0.6970 -0.5654 -0.0665
 2829SOL    HW115092  12.336   9.391   5.257 -0.7756 -0.7112  0.1623
 2829SOL    HW215093  12.269   9.323   5.139 -0.1483  0.2191 -0.7508
 2830SOL     OW15094   0.185   4.474   7.791  0.1404 -0.3940 -0.7752
 2830SOL    HW115095   0.114   4.513   7.843  0.6989 -0.8094  0.3194
 2830SOL    HW215096   0.253   4.541   7.789 -0.3450  0.0901 -2.0123
 2831SOL     OW15097   1.478   6.284   9.002 -0.3303  0.0616 -0.3716
 2831SOL    HW115098   1.494   6.327   9.086  1.4531  0.3609 -0.8251
 2831SOL    HW215099   1.383   6.271   8.999 -0.2999 -1.6527  2.5155
 2832SOL     OW15100  12.639   7.519   5.382  0.1563  0.2951  0.2320
 2832SOL    HW115101  12.732   7.528   5.366  0.0814  1.8664  0.5075
 2832SOL    HW215102  12.627   7.426   5.403  1.5696 -0.0177 -0.2361
 2833SOL     OW15103  10.550  11.434   4.295  0.2917 -0.3341  0.1117
 2833SOL    HW115104  10.590  11.375   4.359 -2.1388 -2.0759  0.1499
 2833SOL    HW215105  10.557  11.388   4.212  1.4610  0.9492 -0.5506
 2834SOL     OW15106   1.699   3.168   4.184 -0.5665 -0.0961 -0.5957
 2834SOL    HW115107   1.674   3.238   4.124 -0.4461  0.1880 -0.3134
 2834SOL    HW215108   1.788   3.190   4.211 -1.1511  0.5734  0.8456
 2835SOL     OW15109   2.459   6.285  12.255 -0.7551 -0.1797 -0.1117
 2835SOL    HW115110   2.551   6.268  12.272 -0.4172 -0.1180 -1.6753
 2835SOL    HW215111   2.413   6.211  12.294  0.0106 -0.5261  0.1495
 2836SOL     OW15112  12.610   0.639   0.836  0.5253 -0.2540  0.2022
 2836SOL    HW115113  12.683   0.700   0.838 -0.4334  0.9948 -0.8474
 2836SOL    HW215114  12.641   0.562   0.883  1.8912  0.9130  1.3153
 2837SOL     OW15115   2.350   5.640   8.118 -0.7512  0.7089 -0.2795
 2837SOL    HW115116   2.365   5.726   8.157 -0.0503  1.0142 -1.1997
 2837SOL    HW215117   2.294   5.658   8.043  0.1207  0.4937 -0.9963
 2838SOL     OW15118   2.949  10.045   4.791  0.0744  0.3140  0.3905
 2838SOL    HW115119   2.934  10.089   4.874  1.6558 -0.2639  1.0232
 2838SOL    HW215120   2.877  10.073   4.735 -1.2161  0.4380  2.0539
 2839SOL     OW15121   9.043   6.151   6.322 -0.1956 -0.6317  0.4602
 2839SOL    HW115122   9.077   6.231   6.362 -0.9694 -0.3985  0.6795
 2839SOL    HW215123   9.048   6.167   6.228 -0.1949 -0.3956  0.5010
 2840SOL     OW15124   7.589  10.173  10.722 -0.2293 -0.4762 -0.3859
 2840SOL    HW115125   7.564  10.220  10.643  1.8946  0.5010 -0.5405
 2840SOL    HW215126   7.506  10.140  10.757 -1.2750 -0.6694 -2.8099
 2841SOL     OW15127   2.103   7.187   4.409 -0.8885  0.3303  0.7585
 2841SOL    HW115128   2.158   7.262   4.434 -2.0234  1.0426  1.2215
 2841SOL    HW215129   2.047   7.172   4.485 -2.0054  0.2796 -0.0366
 2842SOL     OW15130   8.364   7.837   6.560 -0.6002 -0.1372 -0.5472
 2842SOL    HW115131   8.307   7.770   6.522 -2.1592  0.3955  0.7287
 2842SOL    HW215132   8.308   7.915   6.568  1.0791  1.2566 -1.7088
 2843SOL     OW15133   2.543   3.243   9.205 -0.3162 -0.5659 -0.1729
 2843SOL    HW115134   2.571   3.184   9.135  0.5150  1.6671 -1.8396
 2843SOL    HW215135   2.617   3.244   9.266  1.3576  1.5391 -2.0676
 2844SOL     OW15136   2.578  12.437   8.428 -1.0354 -0.0129 -0.3203
 2844SOL    HW115137   2.502  12.403   8.382 -1.1595 -2.8463  1.7540
 2844SOL    HW215138   2.543  12.503   8.487 -1.6123 -0.0460 -0.6150
 2845SOL     OW15139   1.786   9.204  12.787 -0.2640  0.3355 -0.1638
 2845SOL    HW115140   1.781   9.232  12.879  0.0844 -0.2547  0.0440
 2845SOL    HW215141   1.778   9.109  12.791 -2.8241  0.4666 -0.9611
 2846SOL     OW15142   4.986  12.283  10.398  0.1899  0.2997 -0.0098
 2846SOL    HW115143   4.967  12.342  10.471  1.5781 -0.3731  0.9520
 2846SOL    HW215144   4.966  12.334  10.320 -0.8994  1.2016  0.8224
 2847SOL     OW15145   7.649   4.317   9.482  0.1307 -0.4890 -0.2443
 2847SOL    HW115146   7.635   4.405   9.447 -1.9944 -0.0113  1.6001
 2847SOL    HW215147   7.634   4.258   9.408 -1.3819  0.5870 -0.8171
 2848SOL     OW15148   9.961   0.858  11.373 -0.7123  0.0194  0.0768
 2848SOL    HW115149   9.936   0.815  11.291 -0.3616 -1.0590  0.5228
 2848SOL    HW215150   9.978   0.787  11.434  0.5595  0.7624  0.6453
 2849SOL     OW15151  12.372  12.284   7.285  0.4536  0.0766  0.0685
 2849SOL    HW115152  12.398  12.372   7.255  1.5834 -0.6189 -1.1129
 2849SOL    HW215153  12.419  12.273   7.367 -0.2300  0.8282  0.5737
 2850SOL     OW15154   5.521   8.442   6.724 -0.4470 -0.2886 -0.6452
 2850SOL    HW115155   5.488   8.529   6.747 -0.9209 -0.6971  0.2842
 2850SOL    HW215156   5.616   8.451   6.728 -0.4866  0.2551 -0.8217
 2851SOL     OW15157   9.877  10.203   5.315  0.5788 -0.6791 -0.0749
 2851SOL    HW115158   9.914  10.153   5.388 -0.5300  0.7593  1.5722
 2851SOL    HW215159   9.817  10.142   5.272  1.1831 -1.5283  0.2526
 2852SOL     OW15160   3.137  12.709   5.657  0.3010  0.2477 -0.5044
 2852SOL    HW115161   3.132  12.793   5.702  2.0539 -0.6393  1.5081
 2852SOL    HW215162   3.102  12.645   5.720  2.1399 -0.9384 -0.6205
 2853SOL     OW15163   4.888  11.696   2.933  0.8371 -0.0676 -0.9286
 2853SOL    HW115164   4.971  11.710   2.979  0.4619 -1.2284  0.1661
 2853SOL    HW215165   4.881  11.770   2.873  2.8958 -0.1886 -1.4032
 2854SOL     OW15166   6.936   7.984   1.414 -0.4310 -0.1561  0.0468
 2854SOL    HW115167   6.927   8.072   1.449 -0.3501  0.0487 -0.4495
 2854SOL    HW215168   6.945   7.995   1.319 -0.4572 -0.6957 -0.0257
 2855SOL     OW15169   0.626   0.920   5.687 -0.3941 -0.6297 -0.2282
 2855SOL    HW115170   0.646   0.832   5.656  0.5094 -0.6434  0.3662
 2855SOL    HW215171   0.665   0.924   5.774 -0.3101  0.4067 -0.3032
 2856SOL     OW15172   2.212   4.147  12.714 -0.3833  0.2621 -0.1665
 2856SOL    HW115173   2.247   4.114  12.631 -0.2519 -1.0146  0.3656
 2856SOL    HW215174   2.125   4.107  12.722  0.4843 -1.5049  1.3345
 2857SOL     OW15175   6.737   7.640   1.576  0.4190 -0.0408 -0.9104
 2857SOL    HW115176   6.762   7.682   1.658  0.0441 -1.5922  0.0260
 2857SOL    HW215177   6.660   7.689   1.546 -0.6795 -0.7197  0.7232
 2858SOL     OW15178  10.081   3.169  11.077  0.3354  0.1202  0.1935
 2858SOL    HW115179  10.166   3.137  11.109  0.9420  2.4126  1.1049
 2858SOL    HW215180  10.059   3.240  11.137 -1.5041  0.5764 -0.9557
 2859SOL     OW15181   3.747   5.060  11.270 -0.7251 -0.0115 -0.1266
 2859SOL    HW115182   3.726   5.151  11.290 -1.7008 -0.3599  0.4952
 2859SOL    HW215183   3.667   5.012  11.290  0.0645 -1.1284  0.4553
 2860SOL     OW15184   3.671  12.545  11.372  0.0299  0.9247 -0.4694
 2860SOL    HW115185   3.721  12.568  11.294  0.3284  0.3051 -0.4657
 2860SOL    HW215186   3.585  12.519  11.340  0.6837 -1.0490 -0.7896
 2861SOL     OW15187   4.992   9.510   2.048 -0.1268 -0.4742 -0.2614
 2861SOL    HW115188   4.905   9.549   2.039 -0.0899 -0.5539 -1.1314
 2861SOL    HW215189   5.052   9.582   2.027 -0.0213 -0.6540 -0.5923
 2862SOL     OW15190   2.244   3.809   8.898  0.3515  0.6398  0.3675
 2862SOL    HW115191   2.306   3.764   8.955  1.0096  0.0736 -0.7559
 2862SOL    HW215192   2.161   3.762   8.912  1.3665 -2.1508 -1.9873
 2863SOL     OW15193   0.828   4.868   3.917  0.3670 -0.1783  0.1602
 2863SOL    HW115194   0.765   4.854   3.847  0.2844  1.2055 -0.0666
 2863SOL    HW215195   0.822   4.961   3.937  2.1707 -0.0491  0.2999
 2864SOL     OW15196   2.082   1.231   5.765 -0.1195 -0.2444 -0.1770
 2864SOL    HW115197   2.125   1.156   5.723  0.5657  0.8596 -1.5298
 2864SOL    HW215198   2.027   1.268   5.696 -2.0467 -0.6674  1.0678
 2865SOL     OW15199   6.339   2.004  10.807 -0.2218 -0.2259  0.0454
 2865SOL    HW115200   6.259   1.951  10.800 -1.0606  0.7917  1.3619
 2865SOL    HW215201   6.346   2.024  10.900  2.2512 -1.2469  0.1541
 2866SOL     OW15202   1.313   3.513   0.048 -0.4590 -0.5799  0.0157
 2866SOL    HW115203   1.238   3.536   0.104  0.8658 -0.7817  1.9754
 2866SOL    HW215204   1.375   3.585   0.060 -0.3237 -0.3915 -1.6207
 2867SOL     OW15205   9.697   1.279   6.877  0.3293  0.4911 -0.1934
 2867SOL    HW115206   9.627   1.342   6.862 -1.1472 -0.7796  0.9384
 2867SOL    HW215207   9.765   1.302   6.813 -1.8790  0.6333 -2.6560
 2868SOL     OW15208   5.951  10.969  12.025 -0.2304  0.0952 -0.2742
 2868SOL    HW115209   5.902  10.968  11.943 -0.1983  1.0675 -0.3201
 2868SOL    HW215210   5.975  11.061  12.038  0.7557 -0.2098  0.2402
 2869SOL     OW15211   6.676   2.502   8.006 -0.0508  0.4844 -0.0807
 2869SOL    HW115212   6.598   2.487   7.952 -0.4027  2.7667 -0.2871
 2869SOL    HW215213   6.743   2.446   7.968 -0.7292  0.8656 -1.9080
 2870SOL     OW15214  12.423   2.048   3.741  0.1314 -0.1682  0.0887
 2870SOL    HW115215  12.388   2.017   3.825 -1.5252 -0.4975 -0.6827
 2870SOL    HW215216  12.415   1.972   3.683 -1.5882  0.8818 -1.1494
 2871SOL     OW15217  11.307   1.888   8.008 -0.2365 -0.2957  0.2273
 2871SOL    HW115218  11.288   1.811   7.956  2.4982 -0.5119 -0.6454
 2871SOL    HW215219  11.270   1.961   7.959  0.1728 -0.7517 -0.7924
 2872SOL     OW15220   9.435   8.617   2.062  0.3401 -0.1342  0.8488
 2872SOL    HW115221   9.507   8.680   2.074 -0.2638  0.9881 -0.9069
 2872SOL    HW215222   9.443   8.557   2.136  0.2948  2.6482  3.2886
 2873SOL     OW15223   9.089   9.240  10.214 -0.3906  0.0063  0.4592
 2873SOL    HW115224   9.059   9.208  10.129 -2.5776 -0.7877  1.4407
 2873SOL    HW215225   9.100   9.334  10.202 -4.1457  0.5379  0.0928
 2874SOL     OW15226   6.535  12.126   1.183  0.3202 -0.2965 -0.3301
 2874SOL    HW115227   6.454  12.075   1.183 -1.1263  1.8294  1.1903
 2874SOL    HW215228   6.582  12.097   1.261 -0.7851  1.0253  0.8721
 2875SOL     OW15229   2.930   3.591   5.765 -0.0298  0.0554  0.1702
 2875SOL    HW115230   2.898   3.518   5.711  0.0033 -0.9872  1.4996
 2875SOL    HW215231   2.964   3.654   5.702  1.0990 -1.6295 -1.0068
 2876SOL     OW15232   6.595   9.136   6.789 -0.3646 -0.2373  0.6339
 2876SOL    HW115233   6.635   9.063   6.836  1.0029  1.9053  3.0143
 2876SOL    HW215234   6.513   9.152   6.834  0.7514  1.5543  2.1502
 2877SOL     OW15235   4.028   1.713   9.159 -0.3194  0.0698 -0.1005
 2877SOL    HW115236   3.947   1.751   9.124 -0.9503 -0.9775  0.1718
 2877SOL    HW215237   4.026   1.734   9.252  0.5577  1.4494 -0.3554
 2878SOL     OW15238  12.154  12.420   3.631 -0.1572 -0.2515  0.9013
 2878SOL    HW115239  12.209  12.464   3.696 -0.9781 -1.6301  2.6224
 2878SOL    HW215240  12.211  12.351   3.595 -0.3317 -0.8550  1.7484
 2879SOL     OW15241   9.046   0.968  11.981 -0.2276 -0.0835 -0.4073
 2879SOL    HW115242   8.993   0.895  11.947 -0.0502  0.0934 -1.0893
 2879SOL    HW215243   9.005   1.046  11.944  0.1353  0.0990 -0.4277
 2880SOL     OW15244   4.827   3.349   0.940  0.3961 -0.0513  1.3604
 2880SOL    HW115245   4.882   3.352   1.018  1.7102 -0.0261  0.4696
 2880SOL    HW215246   4.852   3.267   0.897  1.7684  1.2419 -0.4517
 2881SOL     OW15247   0.555   7.174  10.836  0.1571 -0.2928  0.3969
 2881SOL    HW115248   0.626   7.196  10.776 -1.5543  0.6723 -1.3971
 2881SOL    HW215249   0.522   7.258  10.868 -1.0378 -0.6315  0.1237
 2882SOL     OW15250   0.971  11.005   9.666 -0.0875 -0.0397  0.6743
 2882SOL    HW115251   1.021  10.994   9.586 -1.1839 -0.3822  0.0161
 2882SOL    HW215252   0.931  11.091   9.658 -1.8757 -0.8974 -0.1452
 2883SOL     OW15253   7.508   1.020   2.852  0.6005  0.5189  0.3081
 2883SOL    HW115254   7.592   1.012   2.898  0.1425 -0.1808  1.0509
 2883SOL    HW215255   7.532   1.036   2.761  1.5584 -0.5732  0.3415
 2884SOL     OW15256   9.070   6.161  12.088  0.6515  0.1452  0.3434
 2884SOL    HW115257   9.032   6.205  12.012 -0.9645  1.4405  1.8148
 2884SOL    HW215258   8.994   6.122  12.133  1.0334  2.2544  3.0431
 2885SOL     OW15259   8.131   9.570   8.260  0.4272 -0.0306  0.0627
 2885SOL    HW115260   8.222   9.541   8.265  1.0935  2.0024  0.3309
 2885SOL    HW215261   8.134   9.664   8.279 -1.3108  0.7732 -2.9447
 2886SOL     OW15262   8.085   0.649   1.616  0.0128  0.0781  0.0857
 2886SOL    HW115263   8.039   0.689   1.541  0.2288 -1.5157 -0.9567
 2886SOL    HW215264   8.031   0.573   1.638  1.2347 -0.8570 -0.0622
 2887SOL     OW15265  10.331   2.407   0.726 -0.2883 -0.7706  0.1644
 2887SOL    HW115266  10.361   2.400   0.635 -2.1819 -0.9904 -0.4791
 2887SOL    HW215267  10.266   2.477   0.724  0.3473 -0.1022  1.5762
 2888SOL     OW15268   6.874   1.015  10.328  0.3431 -0.1388 -0.6996
 2888SOL    HW115269   6.948   0.996  10.385 -0.4741  0.6043  0.6692
 2888SOL    HW215270   6.902   1.088  10.273  1.4900 -1.4999 -2.0022
 2889SOL     OW15271   3.804   8.326   3.341 -0.3533 -0.3317  0.5609
 2889SOL    HW115272   3.775   8.323   3.250 -0.3677  0.8441  0.5118
 2889SOL    HW215273   3.826   8.418   3.356 -1.1656 -0.3443  1.9911
 2890SOL     OW15274  11.254   4.257   8.025 -0.1543  0.2886 -0.5305
 2890SOL    HW115275  11.304   4.213   7.956  0.3831 -1.1937  0.7689
 2890SOL    HW215276  11.301   4.340   8.039 -0.0265  0.4209 -1.6296
 2891SOL     OW15277   6.727   0.901   7.413 -0.1445 -0.5218 -0.1129
 2891SOL    HW115278   6.805   0.867   7.457 -0.5411  0.1505  1.1759
 2891SOL    HW215279   6.659   0.836   7.431 -0.1202 -0.6263 -0.3973
 2892SOL     OW15280   0.985   5.449   8.028 -0.2900 -0.0902 -0.1862
 2892SOL    HW115281   1.028   5.401   7.957 -0.0773 -0.4501  0.1810
 2892SOL    HW215282   1.048   5.515   8.055 -0.6236  0.4735 -0.7625
 2893SOL     OW15283   2.011  11.394   0.281 -0.0608 -0.3769  0.3074
 2893SOL    HW115284   1.978  11.361   0.364 -1.2936  0.4211  0.1561
 2893SOL    HW215285   1.989  11.487   0.281  1.4681  0.0156 -0.1825
 2894SOL     OW15286   1.131   6.627   5.522  0.2623 -0.3498  0.3299
 2894SOL    HW115287   1.142   6.538   5.555  0.3734 -0.2243  0.6421
 2894SOL    HW215288   1.219   6.666   5.529 -0.0109  0.1403  1.2726
 2895SOL     OW15289   1.181   7.569   5.912  0.1700  0.1778  0.0874
 2895SOL    HW115290   1.106   7.538   5.963 -0.1629 -0.7338 -0.9368
 2895SOL    HW215291   1.148   7.578   5.823  1.8613 -2.7457 -0.9640
 2896SOL     OW15292   1.602   4.590   2.832  0.0395  0.1371 -0.6247
 2896SOL    HW115293   1.528   4.632   2.789  0.1553  0.3737 -0.5944
 2896SOL    HW215294   1.656   4.662   2.862  0.0651 -0.0281 -0.2666
 2897SOL     OW15295   3.500   8.779   1.194  0.5058  0.1241 -0.6671
 2897SOL    HW115296   3.592   8.807   1.199  0.4979  0.0709 -0.1279
 2897SOL    HW215297   3.490   8.717   1.267  0.1260 -0.1158 -0.9192
 2898SOL     OW15298   2.451   0.951   3.946  0.3105  0.0981 -0.4183
 2898SOL    HW115299   2.425   0.910   3.863 -0.4585  0.2692 -0.2710
 2898SOL    HW215300   2.495   1.032   3.920 -0.0980  0.2458 -0.6579
 2899SOL     OW15301   9.232   0.018   6.146 -0.3555 -0.1557  0.0182
 2899SOL    HW115302   9.213  -0.004   6.055 -1.4257 -1.8450  0.6103
 2899SOL    HW215303   9.315  -0.027   6.164  0.0253  0.4499 -0.2070
 2900SOL     OW15304   1.222   3.882   6.034  0.1569 -0.0586  0.1223
 2900SOL    HW115305   1.209   3.891   5.940 -1.1864  0.2104  0.3143
 2900SOL    HW215306   1.311   3.848   6.043  1.3319  2.3649 -1.1403
 2901SOL     OW15307  10.955   9.235   3.625 -0.1895 -0.3478 -0.3377
 2901SOL    HW115308  10.894   9.163   3.641 -1.7409  0.3401 -2.6954
 2901SOL    HW215309  10.911   9.291   3.562  2.2752  1.0206 -0.9844
 2902SOL     OW15310   5.334   2.045   5.159 -0.1751  0.6168 -0.8452
 2902SOL    HW115311   5.333   2.138   5.179  0.4918  1.3106 -3.5743
 2902SOL    HW215312   5.249   2.028   5.119 -0.6742 -0.2245  0.4886
 2903SOL     OW15313   1.282   0.757   8.209  0.3921  0.2281 -0.7026
 2903SOL    HW115314   1.263   0.843   8.246  0.3629 -0.7472  1.6795
 2903SOL    HW215315   1.371   0.738   8.237  0.1289 -0.8466 -0.5669
 2904SOL     OW15316   4.848   6.040   6.254 -0.0963  0.1090  0.4569
 2904SOL    HW115317   4.797   5.972   6.297  0.0718  0.4718  1.2524
 2904SOL    HW215318   4.939   6.018   6.274 -0.0745  1.0199  1.4366
 2905SOL     OW15319   1.628   0.557   5.786 -0.0693  0.5941  0.0632
 2905SOL    HW115320   1.588   0.517   5.864 -0.3203  1.6801  0.5139
 2905SOL    HW215321   1.707   0.505   5.770 -0.4941 -0.2009  0.4993
 2906SOL     OW15322   1.652   0.773   8.951 -0.7199  0.4002  0.0105
 2906SOL    HW115323   1.564   0.810   8.958 -0.6453  0.6435 -0.2826
 2906SOL    HW215324   1.639   0.679   8.946 -0.9874  0.4575 -0.4085
 2907SOL     OW15325   2.305   3.991   4.884 -0.1432  0.3514  0.6819
 2907SOL    HW115326   2.363   3.914   4.884  0.8904  1.0472 -1.5443
 2907SOL    HW215327   2.241   3.973   4.815  0.8256  1.9328 -0.7044
 2908SOL     OW15328   2.492   9.293   3.588 -0.0358  0.0125 -0.4252
 2908SOL    HW115329   2.473   9.261   3.677  0.1416  1.6809  0.2448
 2908SOL    HW215330   2.575   9.252   3.565  0.5017  0.4396  0.6633
 2909SOL     OW15331   6.947   6.447   8.072  0.2521 -0.6008  0.2873
 2909SOL    HW115332   6.959   6.486   7.985  0.6116  0.0174  0.6107
 2909SOL    HW215333   6.996   6.504   8.131 -1.2923 -0.0873  1.1317
 2910SOL     OW15334   3.499   6.599   7.915  0.0910 -0.1104  0.0389
 2910SOL    HW115335   3.540   6.671   7.964  2.9766 -1.7437  0.2168
 2910SOL    HW215336   3.540   6.602   7.829  0.3700 -1.6249  0.0975
 2911SOL     OW15337   4.504  10.530   8.035  0.2784  0.1453 -0.4204
 2911SOL    HW115338   4.422  10.523   8.085  0.6532  1.8741  0.5074
 2911SOL    HW215339   4.571  10.548   8.101  0.7520  2.8012 -1.5026
 2912SOL     OW15340  10.958   6.380  12.393 -0.0193  0.0544  0.0132
 2912SOL    HW115341  10.873   6.421  12.406  0.1397  0.4997 -0.3664
 2912SOL    HW215342  10.998   6.428  12.321  0.3899 -0.4132 -0.0781
 2913SOL     OW15343   3.249   4.232   5.283  0.0238 -0.0596  0.0883
 2913SOL    HW115344   3.245   4.318   5.323  0.9030 -0.4696  1.1101
 2913SOL    HW215345   3.163   4.220   5.243  0.2715  1.7403 -1.0832
 2914SOL     OW15346   4.436   2.743   8.199 -0.2132  0.1055  0.0314
 2914SOL    HW115347   4.399   2.656   8.185  0.9555 -0.2886 -0.6758
 2914SOL    HW215348   4.443   2.781   8.112  1.6692 -0.0985  0.0704
 2915SOL     OW15349   1.059   3.441   7.294 -0.4617  0.0706  0.5783
 2915SOL    HW115350   1.131   3.396   7.338 -0.7409  1.7989  2.9996
 2915SOL    HW215351   0.984   3.382   7.304  0.2037 -1.0476 -0.6257
 2916SOL     OW15352   5.254   4.199   6.408 -0.2828  0.0009 -0.2955
 2916SOL    HW115353   5.268   4.292   6.395 -0.6241 -0.3427 -4.5204
 2916SOL    HW215354   5.190   4.193   6.478 -1.3136  3.0145 -0.8577
 2917SOL     OW15355   4.600   0.388   1.254 -0.5468  0.0938  0.0192
 2917SOL    HW115356   4.679   0.354   1.213 -0.5767 -1.0480  0.8665
 2917SOL    HW215357   4.612   0.483   1.254  0.9252 -0.0749  0.3546
 2918SOL     OW15358   8.052   5.465   5.643 -0.0637  0.1071  0.1640
 2918SOL    HW115359   8.110   5.528   5.598  1.1378 -1.0937 -0.0303
 2918SOL    HW215360   8.110   5.419   5.704 -0.7968 -1.1766 -0.0769
 2919SOL     OW15361   7.401   2.551   6.484 -0.1006  0.0965  0.0401
 2919SOL    HW115362   7.334   2.616   6.462  0.0375  0.2633  0.1091
 2919SOL    HW215363   7.475   2.603   6.516  0.2252 -0.0620 -0.4486
 2920SOL     OW15364   2.844   3.848  12.203  0.1656  0.5287  0.3439
 2920SOL    HW115365   2.816   3.770  12.251  0.0028  1.0292  1.0875
 2920SOL    HW215366   2.790   3.848  12.124 -0.0699  0.0637  0.5001
 2921SOL     OW15367   0.541  10.512   7.040 -0.1638 -0.6786  0.6853
 2921SOL    HW115368   0.592  10.591   7.019 -0.5404 -0.1551  1.6662
 2921SOL    HW215369   0.465  10.545   7.089 -0.3055 -1.6546  1.1428
 2922SOL     OW15370   8.332   8.846   0.808  0.1207 -0.2306 -0.3084
 2922SOL    HW115371   8.295   8.771   0.855  0.4376  0.3985  1.0043
 2922SOL    HW215372   8.271   8.918   0.828 -1.4609 -0.5607 -3.3909
 2923SOL     OW15373   6.136   5.029   9.529  0.3594 -0.0443 -0.2639
 2923SOL    HW115374   6.231   5.025   9.522  0.3016 -0.3085 -1.0416
 2923SOL    HW215375   6.114   5.119   9.505  0.5410  0.6028  1.8639
 2924SOL     OW15376   9.945   5.129   4.057  0.3329 -0.7419 -1.0325
 2924SOL    HW115377  10.032   5.092   4.068  0.2946 -0.9542 -1.4273
 2924SOL    HW215378   9.886   5.055   4.066  0.2505 -0.7626 -1.7054
 2925SOL     OW15379  10.002   1.062   6.835 -0.2612  0.0659  0.0395
 2925SOL    HW115380  10.094   1.039   6.840  0.1223  1.6153  0.4482
 2925SOL    HW215381   9.980   1.056   6.742  0.4419  0.4397 -0.1505
 2926SOL     OW15382   7.984  11.903   9.973 -0.0318  0.0649  0.3927
 2926SOL    HW115383   7.941  11.819   9.959  1.0059 -0.4685  0.3451
 2926SOL    HW215384   7.979  11.917  10.068 -1.6413  0.7611  0.2546
 2927SOL     OW15385   4.338   6.412   6.938 -0.1560 -0.1163 -0.1799
 2927SOL    HW115386   4.251   6.451   6.944 -0.3207 -0.6625  1.3500
 2927SOL    HW215387   4.331   6.348   6.867 -0.2218  1.6701 -1.8763
 2928SOL     OW15388   8.940  10.783   4.116  0.8441 -0.1763  0.2902
 2928SOL    HW115389   8.981  10.747   4.195 -0.9470  1.8289  2.2509
 2928SOL    HW215390   8.978  10.871   4.108 -0.0397  0.1641 -0.2445
 2929SOL     OW15391   8.188  11.471  12.154  0.5902 -0.2621  0.2295
 2929SOL    HW115392   8.108  11.423  12.134  0.4379 -0.4324  1.2093
 2929SOL    HW215393   8.159  11.557  12.183  0.7690 -0.2730  0.4436
 2930SOL     OW15394   4.789   2.283  11.581 -0.2438  0.1100 -0.1449
 2930SOL    HW115395   4.748   2.360  11.541  0.7137  0.3535 -0.6878
 2930SOL    HW215396   4.864   2.264  11.525 -0.3538 -1.1112  0.0957
 2931SOL     OW15397   4.973   8.179   9.819 -0.3875 -0.5894  0.2864
 2931SOL    HW115398   5.050   8.176   9.761  0.1272  0.2166  0.9062
 2931SOL    HW215399   5.009   8.174   9.907 -0.9881  0.4233  0.6086
 2932SOL     OW15400   6.963   0.490   0.203 -0.0841  0.5996 -0.2845
 2932SOL    HW115401   6.955   0.585   0.196 -1.0916  0.4767 -1.0066
 2932SOL    HW215402   6.882   0.462   0.244 -0.2955 -0.0398 -1.0994
 2933SOL     OW15403   1.609  11.979   0.103 -0.1807  0.4695  0.5409
 2933SOL    HW115404   1.584  12.060   0.058 -2.1659 -0.8292 -0.8539
 2933SOL    HW215405   1.572  11.987   0.190  0.1505  1.3002  0.6136
 2934SOL     OW15406  11.994  12.122   5.409 -0.1317  0.5016  0.2963
 2934SOL    HW115407  12.035  12.039   5.431  0.4100  0.8639  0.6789
 2934SOL    HW215408  11.901  12.109   5.428  0.0335  0.1672  0.9001
 2935SOL     OW15409   2.389   6.280   6.000  0.0076 -0.4415  0.1125
 2935SOL    HW115410   2.423   6.279   6.089 -0.8414  0.8813  0.4830
 2935SOL    HW215411   2.295   6.287   6.010 -0.1174 -0.4813 -0.8934
 2936SOL     OW15412   3.026   7.280  10.409  0.1404 -0.2759 -0.0333
 2936SOL    HW115413   3.010   7.240  10.494 -0.2378  0.5829  0.3148
 2936SOL    HW215414   3.122   7.278  10.399  0.2891  0.7830  1.0136
 2937SOL     OW15415   2.172   2.405   9.100  0.3895 -0.2446 -0.4630
 2937SOL    HW115416   2.216   2.466   9.158 -0.1201  0.0444 -0.3711
 2937SOL    HW215417   2.084   2.442   9.089  0.2358 -0.7012 -0.7984
 2938SOL     OW15418   7.521   3.925   1.458  0.6500 -0.2781 -0.1406
 2938SOL    HW115419   7.611   3.958   1.454  0.3685  0.4086 -2.0068
 2938SOL    HW215420   7.477   3.968   1.385 -1.6579  0.6933  1.6987
 2939SOL     OW15421   8.164  12.742  12.355  0.1503  0.1445  0.4608
 2939SOL    HW115422   8.224  12.691  12.300  0.5645 -0.5646  1.5417
 2939SOL    HW215423   8.113  12.676  12.401  0.9893  0.6675  2.2149
 2940SOL     OW15424   1.459  11.421  11.570 -0.1881 -0.0828  0.3361
 2940SOL    HW115425   1.370  11.392  11.550  0.0351 -1.9859  1.7685
 2940SOL    HW215426   1.514  11.378  11.505 -0.2141  0.2882  0.0657
 2941SOL     OW15427   6.801   5.646   3.963 -0.3174  0.0033  0.1921
 2941SOL    HW115428   6.868   5.582   3.941 -0.2146  0.4803 -1.0009
 2941SOL    HW215429   6.843   5.705   4.025  0.2423  0.0637 -0.2375
 2942SOL     OW15430   6.449  11.937   9.422  0.1873  0.2143 -0.0059
 2942SOL    HW115431   6.417  12.010   9.369  1.0700  1.1743  0.7325
 2942SOL    HW215432   6.514  11.977   9.480 -1.9172 -0.4455  3.0062
 2943SOL     OW15433   6.054   1.389   3.705  0.0147  0.1488 -0.2957
 2943SOL    HW115434   6.027   1.479   3.686 -0.5629 -0.1248 -0.8012
 2943SOL    HW215435   6.119   1.369   3.637  0.3096  0.2557 -0.0488
 2944SOL     OW15436   3.293   7.795   3.546 -0.3580 -0.4472 -0.1187
 2944SOL    HW115437   3.221   7.840   3.591 -0.5917  0.5896 -1.4765
 2944SOL    HW215438   3.271   7.702   3.554 -1.2644 -0.2045  0.4454
 2945SOL     OW15439   5.686   1.792   3.317  0.0848 -0.7315 -0.7489
 2945SOL    HW115440   5.742   1.728   3.273 -0.5472 -1.2183 -0.8488
 2945SOL    HW215441   5.706   1.875   3.274  1.1800 -0.7840 -0.3704
 2946SOL     OW15442   4.509   3.451   4.859 -0.4871 -0.8087  0.1217
 2946SOL    HW115443   4.518   3.502   4.939  0.3223 -0.4398 -0.1952
 2946SOL    HW215444   4.477   3.365   4.888  0.6168 -0.9646  0.9345
 2947SOL     OW15445   5.658   5.428  10.447  0.3306  0.4914 -0.4579
 2947SOL    HW115446   5.607   5.498  10.489  1.1010  0.4512  0.5950
 2947SOL    HW215447   5.748   5.462  10.445  1.0420 -1.0430  1.5472
 2948SOL     OW15448   6.778   9.142   6.565  0.3342 -0.3266  0.5708
 2948SOL    HW115449   6.722   9.148   6.643  0.2955  0.8532  0.4746
 2948SOL    HW215450   6.861   9.107   6.598  0.0584 -0.5939  0.9977
 2949SOL     OW15451   8.148   7.814  12.277 -0.4003  0.0521 -0.2731
 2949SOL    HW115452   8.199   7.825  12.197  0.3774  0.4576  0.2561
 2949SOL    HW215453   8.075   7.876  12.268 -0.9535 -0.7161 -1.1487
 2950SOL     OW15454   5.586   9.945   7.568 -0.0088  0.5426  0.1867
 2950SOL    HW115455   5.497   9.981   7.572 -0.6774 -1.0077 -0.1644
 2950SOL    HW215456   5.620   9.957   7.657 -0.3041  1.7175  0.1654
 2951SOL     OW15457   7.468  12.734  12.757 -0.1543 -0.1669  0.6015
 2951SOL    HW115458   7.529  12.755  12.828 -1.1909  1.1642  1.1314
 2951SOL    HW215459   7.397  12.687  12.800 -0.0781 -0.6820  0.1765
 2952SOL     OW15460   3.897  11.968   1.458 -0.0980  0.8281 -0.0755
 2952SOL    HW115461   3.802  11.974   1.453 -0.1374  0.3599  0.0151
 2952SOL    HW215462   3.916  11.875   1.441  0.3634  0.9776 -0.4083
 2953SOL     OW15463  10.854   3.005   2.028 -0.4344 -0.1727  0.2693
 2953SOL    HW115464  10.765   2.971   2.040 -1.8321  1.3866 -3.7678
 2953SOL    HW215465  10.893   2.947   1.962  0.7403  0.4081  0.4235
 2954SOL     OW15466   8.333   6.198   1.937  0.3560  0.2112 -0.3006
 2954SOL    HW115467   8.283   6.117   1.946  0.7485 -0.1359 -1.2213
 2954SOL    HW215468   8.266   6.266   1.929  0.0258 -0.0345  0.2984
 2955SOL     OW15469   6.658   6.410   2.268 -0.4727  0.1932  0.3015
 2955SOL    HW115470   6.636   6.413   2.361 -1.2515  1.3840  0.0939
 2955SOL    HW215471   6.619   6.489   2.232 -0.1419 -0.2417 -1.0382
 2956SOL     OW15472   3.805   6.956   5.150  0.4187 -0.1503  0.3446
 2956SOL    HW115473   3.823   7.021   5.217  0.2780  0.2509  0.0030
 2956SOL    HW215474   3.758   7.005   5.082 -1.2738 -0.9816  0.8625
 2957SOL     OW15475   6.461  12.471   7.213  0.0990 -0.5629 -0.4395
 2957SOL    HW115476   6.538  12.504   7.167  0.1621 -1.0738 -0.7113
 2957SOL    HW215477   6.388  12.487   7.153  0.1072 -0.7573 -0.5042
 2958SOL     OW15478  11.537   9.471   1.960  0.4443  0.1904 -0.4397
 2958SOL    HW115479  11.516   9.508   1.874  0.9868 -2.7053 -1.9408
 2958SOL    HW215480  11.453   9.441   1.994  0.2738  1.0625 -0.0630
 2959SOL     OW15481   8.889  10.700   9.446 -0.5150  0.0244 -0.0454
 2959SOL    HW115482   8.850  10.628   9.495 -0.0524 -0.4399 -0.3419
 2959SOL    HW215483   8.979  10.671   9.428 -0.2134  0.8200  0.1284
 2960SOL     OW15484   0.290   2.200   5.340  0.5717 -0.5221 -0.8158
 2960SOL    HW115485   0.261   2.115   5.307  0.8153 -0.0844 -2.2249
 2960SOL    HW215486   0.288   2.257   5.263 -0.8020  1.0857  0.3499
 2961SOL     OW15487   8.998  10.630   6.750 -0.2045  0.6743  0.0603
 2961SOL    HW115488   9.020  10.605   6.660 -0.3141  0.4222  0.1032
 2961SOL    HW215489   9.030  10.557   6.803  0.5796  1.1746  0.3065
 2962SOL     OW15490   6.685   8.697   9.694  0.6157 -0.1573  0.0264
 2962SOL    HW115491   6.665   8.633   9.627  0.2521  0.1050 -0.1207
 2962SOL    HW215492   6.630   8.673   9.769  0.3470  0.0848 -0.0909
 2963SOL     OW15493  12.025  11.441   5.563 -0.1923 -0.3489  0.0519
 2963SOL    HW115494  12.100  11.491   5.593 -0.2033 -0.8553  0.9554
 2963SOL    HW215495  12.056  11.395   5.485 -0.1901  1.0513 -0.8077
 2964SOL     OW15496  10.485   7.793   2.032 -0.8943 -0.0233  0.2119
 2964SOL    HW115497  10.550   7.754   2.089  1.7400  1.0449 -1.8512
 2964SOL    HW215498  10.434   7.719   1.998  0.8791 -1.2044  0.0113
 2965SOL     OW15499  10.773   3.986   9.727  0.3180 -0.6215  0.1229
 2965SOL    HW115500  10.690   3.965   9.769  0.0297  0.8760  0.3566
 2965SOL    HW215501  10.784   3.919   9.659 -1.4352 -0.3959 -0.4127
 2966SOL     OW15502   5.292   9.097   4.644  0.0170  0.1385  0.6135
 2966SOL    HW115503   5.336   9.038   4.583  0.4284  0.5587  0.4993
 2966SOL    HW215504   5.345   9.093   4.723  1.1594  1.7914 -0.0137
 2967SOL     OW15505   3.183   3.770   9.339  0.3441 -0.3763 -0.6201
 2967SOL    HW115506   3.124   3.742   9.269  0.5666 -0.6651 -0.6952
 2967SOL    HW215507   3.129   3.769   9.418  0.6062 -2.0937 -0.4191
 2968SOL     OW15508   9.049   5.160   4.673 -0.2049 -0.0921 -0.3996
 2968SOL    HW115509   9.019   5.081   4.717  0.5217  0.0696  0.4371
 2968SOL    HW215510   9.097   5.208   4.741  1.3286 -0.0331 -1.4729
 2969SOL     OW15511   8.395   7.317   9.874 -0.2511  0.0406  0.0097
 2969SOL    HW115512   8.331   7.267   9.823 -1.5044  1.9284 -0.3797
 2969SOL    HW215513   8.346   7.351   9.949  0.8404 -0.2046  0.8654
 2970SOL     OW15514   6.392  11.556   6.266  0.6675  0.1582 -0.3187
 2970SOL    HW115515   6.363  11.496   6.197  2.0324 -1.4831  0.4555
 2970SOL    HW215516   6.453  11.505   6.318 -1.1318  0.9599  2.8303
 2971SOL     OW15517   4.815   8.678  10.095 -0.2794  0.5211 -0.2283
 2971SOL    HW115518   4.732   8.720  10.072  0.4923  1.7703 -0.8141
 2971SOL    HW215519   4.813   8.673  10.190 -0.1660  2.4529 -0.0791
 2972SOL     OW15520   8.309   4.234  10.783  0.3540 -0.0406 -0.2737
 2972SOL    HW115521   8.371   4.225  10.711 -1.4594  0.3791 -1.9597
 2972SOL    HW215522   8.245   4.298  10.752 -0.7994 -0.2687  1.4944
 2973SOL     OW15523   9.292   5.736   4.411 -0.5964 -0.1092 -0.0961
 2973SOL    HW115524   9.306   5.763   4.320 -1.3637 -1.5302 -0.6647
 2973SOL    HW215525   9.236   5.805   4.448 -0.4142  0.3968 -0.7422
 2974SOL     OW15526   4.949   3.970  12.616 -0.0364 -0.0045  0.0450
 2974SOL    HW115527   4.988   4.040  12.668  0.7408  1.1623 -2.0222
 2974SOL    HW215528   4.859   4.000  12.600 -0.4424 -0.6067  1.0779
 2975SOL     OW15529   6.251   3.079   6.349 -0.1729 -0.2731  0.3561
 2975SOL    HW115530   6.222   2.990   6.327  2.6409 -1.5612  1.3992
 2975SOL    HW215531   6.284   3.114   6.267  1.2659 -1.3191  0.4425
 2976SOL     OW15532  12.251   7.266  11.282  0.0899  0.0934  0.0922
 2976SOL    HW115533  12.185   7.283  11.349 -0.2521 -0.4503 -0.1026
 2976SOL    HW215534  12.230   7.328  11.211  1.1345  1.4714  0.9261
 2977SOL     OW15535   2.525  10.110   9.707  0.3377 -0.0094  0.1759
 2977SOL    HW115536   2.459  10.130   9.773  0.0283 -1.6803  0.4256
 2977SOL    HW215537   2.476  10.097   9.626  0.2993 -1.3299  0.3780
 2978SOL     OW15538   0.855   0.416   5.891  0.5127  0.2429 -0.0200
 2978SOL    HW115539   0.859   0.320   5.895 -0.6858  0.0782 -1.6235
 2978SOL    HW215540   0.922   0.440   5.827  0.6518  0.4521  0.2067
 2979SOL     OW15541   8.520  10.738   2.468  0.4805  0.6065 -0.0086
 2979SOL    HW115542   8.604  10.779   2.444 -0.3145  0.7520 -2.9592
 2979SOL    HW215543   8.455  10.806   2.451 -0.3663  0.1430  1.2184
 2980SOL     OW15544   0.294   6.185   1.495  0.0671 -0.0636  0.2654
 2980SOL    HW115545   0.252   6.229   1.421 -1.3300 -0.8246  0.5695
 2980SOL    HW215546   0.234   6.114   1.518  1.0313 -0.5448  1.4087
 2981SOL     OW15547  11.010   7.359   6.536 -0.3278  0.8664  0.0719
 2981SOL    HW115548  10.933   7.345   6.481 -0.1779 -0.1264  0.0953
 2981SOL    HW215549  11.069   7.287   6.514  1.1159  2.2422 -0.8123
 2982SOL     OW15550  12.688   2.648   5.661 -0.8011 -0.0832 -0.4130
 2982SOL    HW115551  12.693   2.576   5.597 -0.8380 -1.5861  1.1923
 2982SOL    HW215552  12.761   2.632   5.720 -2.0461 -0.0366  1.1903
 2983SOL     OW15553  10.890  10.706  11.997  0.1324 -0.1682 -0.1597
 2983SOL    HW115554  10.904  10.791  11.955 -2.3724  1.3351  1.7262
 2983SOL    HW215555  10.959  10.700  12.063 -0.8300  1.4329  1.0511
 2984SOL     OW15556   1.067   0.476   5.334 -0.3102  0.3160  0.1350
 2984SOL    HW115557   1.137   0.444   5.277  0.4611 -1.0361  1.7817
 2984SOL    HW215558   1.013   0.530   5.276  1.5938  0.7081 -1.3847
 2985SOL     OW15559  10.286   8.843   4.247 -0.7273 -0.3056  0.1808
 2985SOL    HW115560  10.375   8.865   4.274 -0.9397  0.2935  0.4158
 2985SOL    HW215561  10.238   8.835   4.330 -2.2482  5.0421  0.1322
 2986SOL     OW15562   6.758  10.351   9.060  0.3565  0.3072 -0.0636
 2986SOL    HW115563   6.829  10.373   9.120  0.2137 -0.9086  0.5753
 2986SOL    HW215564   6.678  10.371   9.109  0.2360 -0.9246  0.2640
 2987SOL     OW15565   5.716  10.575   5.466 -0.1369  0.6233  0.2447
 2987SOL    HW115566   5.631  10.615   5.448 -2.5730 -3.2418  1.7323
 2987SOL    HW215567   5.712  10.551   5.558  0.6845 -3.3550 -0.5726
 2988SOL     OW15568  12.089   0.256   0.052  0.3051  0.0558  0.1390
 2988SOL    HW115569  12.017   0.225   0.108  1.1132 -0.3089  0.9947
 2988SOL    HW215570  12.045   0.298  -0.022 -0.7995 -0.7634  0.3048
 2989SOL     OW15571   7.815  12.439   2.628 -0.1509 -0.1605 -0.0066
 2989SOL    HW115572   7.909  12.447   2.644  0.0381 -1.1263 -0.5784
 2989SOL    HW215573   7.783  12.389   2.702 -0.1467 -0.1898 -0.0246
 2990SOL     OW15574   9.537  12.549   3.821 -0.2034  0.2332 -0.0384
 2990SOL    HW115575   9.517  12.613   3.889  0.1656  0.4772 -0.1569
 2990SOL    HW215576   9.620  12.578   3.784  1.1848 -1.5808  1.4459
 2991SOL     OW15577   7.703  10.345   2.902 -0.5035  0.6066 -0.3111
 2991SOL    HW115578   7.704  10.418   2.840  1.9015  1.1736  0.2691
 2991SOL    HW215579   7.793  10.341   2.935 -0.8242 -1.9845  0.4525
 2992SOL     OW15580  11.958   8.676   3.703  0.0892  0.1554 -0.0025
 2992SOL    HW115581  11.998   8.722   3.776  0.4323  0.3883 -0.3305
 2992SOL    HW215582  12.020   8.607   3.681  1.2990  1.6938 -1.7517
 2993SOL     OW15583  11.888  12.157   4.283 -0.0267 -0.6148  0.2982
 2993SOL    HW115584  11.895  12.129   4.375  0.9898 -0.4773  0.2770
 2993SOL    HW215585  11.870  12.251   4.288 -1.1144 -0.8182  0.3557
 2994SOL     OW15586   9.105   8.625   3.571  0.5193 -0.2189  0.7660
 2994SOL    HW115587   9.085   8.532   3.553 -0.8549  0.1574  0.1761
 2994SOL    HW215588   9.197   8.625   3.597  0.5487 -1.7543  0.7851
 2995SOL     OW15589   9.137  12.048   9.296 -0.4148  0.4688 -0.2201
 2995SOL    HW115590   9.061  12.002   9.260  0.9558  0.4182 -3.2981
 2995SOL    HW215591   9.166  12.106   9.226  1.2663  1.9320  1.5713
 2996SOL     OW15592   0.826   5.613   3.522  0.0904  0.1317  0.0322
 2996SOL    HW115593   0.854   5.649   3.438  1.3229 -0.4912  0.1600
 2996SOL    HW215594   0.775   5.535   3.498 -0.2299  0.3951 -0.1528
 2997SOL     OW15595  12.478   2.023   4.522 -0.8266  0.0725 -0.3855
 2997SOL    HW115596  12.472   1.928   4.513  0.0429  0.1462 -2.0944
 2997SOL    HW215597  12.389   2.051   4.545 -1.3061 -1.0606 -0.8161
 2998SOL     OW15598   7.035   3.261   4.916 -0.0401 -0.6172  0.3742
 2998SOL    HW115599   7.073   3.183   4.876 -0.1074 -0.0015 -0.9443
 2998SOL    HW215600   7.025   3.323   4.843  0.5660  0.8399  1.4880
 2999SOL     OW15601   8.930   2.141   6.612  0.8592 -0.9903  0.5491
 2999SOL    HW115602   8.854   2.155   6.668 -0.8316 -0.0914 -1.8152
 2999SOL    HW215603   8.992   2.209   6.637 -0.0914 -0.2597  0.9528
 3000SOL     OW15604   2.051   0.609   4.004 -0.1774  0.3774  0.0134
 3000SOL    HW115605   2.060   0.535   3.944 -0.7921  1.2742 -1.2286
 3000SOL    HW215606   2.130   0.661   3.990 -0.0922  0.3412  0.3475
 3001SOL     OW15607   5.146   8.844   4.444  0.1920  0.5106  0.0471
 3001SOL    HW115608   5.155   8.784   4.518  1.8040 -0.5093 -0.9244
 3001SOL    HW215609   5.233   8.884   4.435  0.2712 -0.0024 -1.7723
 3002SOL     OW15610  12.364   4.880  11.213 -0.6323  0.0760 -0.3797
 3002SOL    HW115611  12.412   4.840  11.140 -0.6834 -0.1012 -0.3172
 3002SOL    HW215612  12.292   4.819  11.230 -2.1054  1.3371 -1.8047
 3003SOL     OW15613   3.306   1.903   3.298 -0.6206  0.0386  0.3421
 3003SOL    HW115614   3.281   1.848   3.224  0.1520  1.5727 -1.1113
 3003SOL    HW215615   3.353   1.844   3.357 -0.6402 -1.0725 -0.7209
 3004SOL     OW15616  12.107   7.421  11.120  0.3626 -0.0001  0.5785
 3004SOL    HW115617  12.071   7.367  11.049  0.0542  0.1749  0.6027
 3004SOL    HW215618  12.034   7.475  11.149  0.8564  0.9858  0.0458
 3005SOL     OW15619   0.332   1.809   4.768  0.3615  0.0125  0.0717
 3005SOL    HW115620   0.382   1.889   4.754 -0.8471  0.9571  1.0370
 3005SOL    HW215621   0.364   1.775   4.851  1.9057 -1.3578 -0.9921
 3006SOL     OW15622  11.152   0.523   2.644  0.3259  0.0494  0.0927
 3006SOL    HW115623  11.077   0.482   2.689  0.2201 -1.8654 -1.6530
 3006SOL    HW215624  11.145   0.491   2.554  2.0728  1.5538 -0.6272
 3007SOL     OW15625   9.799  11.020  11.711  0.5634 -0.1453 -0.0978
 3007SOL    HW115626   9.821  11.029  11.618 -0.2759  1.7711 -0.1682
 3007SOL    HW215627   9.877  11.053  11.756  0.1619  1.0023 -0.2040
 3008SOL     OW15628   0.614  10.452   7.846  0.0151  0.0503  0.5034
 3008SOL    HW115629   0.665  10.520   7.891  0.6463  0.4297 -0.7190
 3008SOL    HW215630   0.540  10.435   7.903 -0.0335  1.6132  0.9515
 3009SOL     OW15631   9.591   3.673   2.516  0.2662 -0.5703  0.1966
 3009SOL    HW115632   9.632   3.689   2.431 -1.2572  0.7062 -0.3692
 3009SOL    HW215633   9.609   3.581   2.535  0.2719 -1.0073 -1.7298
 3010SOL     OW15634   2.810   3.844  11.489  0.5340  0.1562 -0.2999
 3010SOL    HW115635   2.879   3.826  11.553 -0.6202 -1.1137  0.6555
 3010SOL    HW215636   2.729   3.841  11.540 -0.2768  1.1541 -1.4696
 3011SOL     OW15637   1.775  10.323   5.989  0.5958  0.3309  0.3611
 3011SOL    HW115638   1.791  10.411   6.023  1.2267 -0.1810  1.4312
 3011SOL    HW215639   1.856  10.300   5.944  0.2999  0.4334 -0.2264
 3012SOL     OW15640  10.639  11.936   4.494  0.4010  0.1071  0.2047
 3012SOL    HW115641  10.597  11.965   4.575  0.9769 -0.9855  0.9210
 3012SOL    HW215642  10.621  11.842   4.490  1.7616 -0.1646 -0.0703
 3013SOL     OW15643  11.738   1.701   3.072 -0.0541 -0.2975  0.1244
 3013SOL    HW115644  11.677   1.724   3.002 -2.2869 -1.7722  1.4305
 3013SOL    HW215645  11.775   1.617   3.044  0.0643 -0.2385  0.1050
 3014SOL     OW15646  10.662   2.644  12.622  0.2180  0.8738  0.2881
 3014SOL    HW115647  10.611   2.724  12.608  1.5994  1.6679 -0.4619
 3014SOL    HW215648  10.703   2.628  12.537 -0.6441 -1.0997  0.2010
 3015SOL     OW15649  12.239   3.454   8.352  0.0052 -0.2757 -0.2166
 3015SOL    HW115650  12.170   3.476   8.290 -0.2921  0.2436  0.2887
 3015SOL    HW215651  12.223   3.363   8.375  0.9645 -0.9251 -1.9707
 3016SOL     OW15652   4.364   2.574   3.514  0.4640  0.1735  0.4455
 3016SOL    HW115653   4.282   2.536   3.483  0.9890 -0.6536  0.0497
 3016SOL    HW215654   4.349   2.590   3.607  0.7026 -2.3693  0.9919
 3017SOL     OW15655   6.390   3.372  12.005 -0.3479  0.2237 -0.0596
 3017SOL    HW115656   6.441   3.433  11.951 -1.1882 -0.1325 -1.2956
 3017SOL    HW215657   6.300   3.380  11.973 -0.9199  0.1610  1.4611
 3018SOL     OW15658   1.722   9.114   9.966  0.2509 -0.2305 -0.3431
 3018SOL    HW115659   1.805   9.151   9.995 -0.5896 -0.2692  2.3813
 3018SOL    HW215660   1.657   9.180   9.988 -0.6837 -1.0857 -0.4328
 3019SOL     OW15661   6.208   3.907   2.655  0.5413 -0.1001 -0.0603
 3019SOL    HW115662   6.292   3.880   2.617  1.4273  0.1371  1.6552
 3019SOL    HW215663   6.171   3.967   2.590  1.1950 -0.9910 -1.3139
 3020SOL     OW15664  11.238   9.663  12.498  0.1897  0.4059 -0.7529
 3020SOL    HW115665  11.153   9.707  12.492  0.6785  1.4811 -0.2109
 3020SOL    HW215666  11.301   9.735  12.504  1.1841 -0.3723 -1.6472
 3021SOL     OW15667   6.394   8.874  12.451 -0.2608 -0.2390 -0.3299
 3021SOL    HW115668   6.406   8.893  12.358 -0.9776 -0.3893 -0.4622
 3021SOL    HW215669   6.329   8.804  12.453 -0.7008  0.1730  0.3065
 3022SOL     OW15670   2.093  12.557   7.987 -0.3233 -0.5133 -0.6504
 3022SOL    HW115671   2.111  12.514   8.070  0.3208 -0.1768 -0.6078
 3022SOL    HW215672   2.121  12.495   7.920 -0.6256 -0.6877 -0.6188
 3023SOL     OW15673   4.356  12.216   5.331  0.0615  0.6404 -0.2683
 3023SOL    HW115674   4.413  12.158   5.280  2.1605  2.2052  0.1711
 3023SOL    HW215675   4.389  12.210   5.420 -2.6336 -0.9312  0.7406
 3024SOL     OW15676  10.447   2.478   3.692  0.5855  0.4558 -0.7498
 3024SOL    HW115677  10.404   2.449   3.611  0.7499 -0.3879 -0.5426
 3024SOL    HW215678  10.393   2.442   3.762  0.5520  1.0265 -0.4838
 3025SOL     OW15679   3.531   4.423   8.579 -0.3104  0.2916 -1.0789
 3025SOL    HW115680   3.556   4.370   8.503 -0.9098 -1.0822 -0.3564
 3025SOL    HW215681   3.546   4.366   8.654 -1.2742  1.0331 -0.2853
 3026SOL     OW15682   8.635   8.746   8.584  0.0306  0.2564 -0.2450
 3026SOL    HW115683   8.640   8.659   8.623  0.6001  0.2413 -0.3418
 3026SOL    HW215684   8.712   8.752   8.527 -0.0243  0.8056 -0.2724
 3027SOL     OW15685   2.847   5.719   7.120 -0.5287  0.3451  0.1832
 3027SOL    HW115686   2.927   5.668   7.106  0.4046  1.7280  0.2249
 3027SOL    HW215687   2.838   5.772   7.041 -0.1578  1.7852  1.0648
 3028SOL     OW15688   2.597   1.256   9.092 -0.2299  0.2875  0.1930
 3028SOL    HW115689   2.649   1.178   9.071 -0.3712  0.4438 -0.7516
 3028SOL    HW215690   2.618   1.318   9.023  0.5078  1.4056  1.3815
 3029SOL     OW15691   6.105   3.955   1.971  0.3234  0.7815  0.1540
 3029SOL    HW115692   6.136   3.869   1.998 -0.0511  0.3707 -0.6839
 3029SOL    HW215693   6.014   3.958   2.001  0.3618  0.9251  0.2593
 3030SOL     OW15694   9.441   0.205  11.372 -0.1987  0.4305  0.2298
 3030SOL    HW115695   9.455   0.111  11.384  1.7480  0.5540 -0.6819
 3030SOL    HW215696   9.405   0.214  11.284  0.2894  0.5599  0.0359
 3031SOL     OW15697   9.078   3.575   2.874  0.0439 -0.6153 -0.5823
 3031SOL    HW115698   9.026   3.585   2.953 -0.0755  0.7027 -0.8117
 3031SOL    HW215699   9.055   3.488   2.841 -1.7503 -0.2082 -0.5014
 3032SOL     OW15700   7.742   5.577   4.370  0.4534 -0.2963 -0.0384
 3032SOL    HW115701   7.795   5.591   4.292 -2.1126  0.7971 -1.7172
 3032SOL    HW215702   7.726   5.483   4.372  0.5359 -0.3332 -0.8591
 3033SOL     OW15703  10.633   9.520   6.524 -0.5408  0.1332  0.4058
 3033SOL    HW115704  10.654   9.430   6.550 -0.1048 -0.1110 -0.7075
 3033SOL    HW215705  10.562   9.546   6.582 -1.4045 -1.3206  0.0679
 3034SOL     OW15706   1.477   5.255   5.744  0.0005 -0.0456  1.0169
 3034SOL    HW115707   1.501   5.171   5.784  1.5224 -0.7388 -1.1889
 3034SOL    HW215708   1.421   5.232   5.670 -1.2858  1.0848  1.5816
 3035SOL     OW15709   8.692   1.424  12.749 -0.3464  0.6459 -0.6309
 3035SOL    HW115710   8.697   1.444  12.655  0.3420  0.0159 -0.7335
 3035SOL    HW215711   8.602   1.396  12.763 -0.0452 -0.7981 -1.4235
 3036SOL     OW15712   4.028   8.897   9.496 -0.2437  0.6160  0.1915
 3036SOL    HW115713   4.114   8.857   9.484 -0.7929 -0.9811  1.2584
 3036SOL    HW215714   4.033   8.938   9.582 -0.8041 -0.2161  0.6302
 3037SOL     OW15715   0.691  11.201   7.336  0.0796  0.5142  0.0927
 3037SOL    HW115716   0.703  11.203   7.241  0.6196  0.2125  0.1514
 3037SOL    HW215717   0.767  11.248   7.370 -0.9204  2.0651  0.3246
 3038SOL     OW15718   7.509  12.363   6.716 -0.2677 -0.3765  0.0140
 3038SOL    HW115719   7.421  12.398   6.729  0.0725  0.7477 -0.5635
 3038SOL    HW215720   7.552  12.371   6.801 -0.7085 -0.9117  0.2910
 3039SOL     OW15721   7.614   7.809   2.869 -0.0518 -0.2581  0.3493
 3039SOL    HW115722   7.604   7.903   2.851 -1.5916 -0.1191  1.7297
 3039SOL    HW215723   7.679   7.805   2.939  1.7161 -0.4293 -1.2111
 3040SOL     OW15724   7.064   1.409   7.703 -0.0783 -0.1887  0.1872
 3040SOL    HW115725   7.010   1.354   7.646 -0.0409 -0.6054  0.5543
 3040SOL    HW215726   7.152   1.402   7.667 -0.2807  0.6483 -0.5343
 3041SOL     OW15727   2.089   1.224   6.355 -0.1213 -0.5045 -0.6773
 3041SOL    HW115728   2.077   1.304   6.304 -1.0337 -0.6876 -0.7681
 3041SOL    HW215729   2.031   1.160   6.314  0.5434 -1.2001 -0.5599
 3042SOL     OW15730   8.843   0.971   2.019  0.1209 -0.1653  0.3297
 3042SOL    HW115731   8.909   0.981   2.088 -0.2088  0.2462  0.5892
 3042SOL    HW215732   8.772   0.921   2.059  0.8705 -1.8763 -0.3670
 3043SOL     OW15733   9.884  11.321  12.063 -0.6145 -0.4834 -0.5562
 3043SOL    HW115734   9.924  11.335  12.149  1.9197  0.4721 -1.7852
 3043SOL    HW215735   9.821  11.393  12.055 -0.4326 -0.2194  0.2440
 3044SOL     OW15736   7.465   8.886   2.065 -0.3040 -0.3882 -0.1871
 3044SOL    HW115737   7.514   8.845   1.994  0.2355  0.6414 -0.4370
 3044SOL    HW215738   7.448   8.975   2.034 -0.1960  0.0280  0.8929
 3045SOL     OW15739   6.981  12.267   2.942 -0.2155  0.2661 -0.6716
 3045SOL    HW115740   6.905  12.245   2.888  0.0522 -1.0965 -0.5429
 3045SOL    HW215741   6.944  12.296   3.025 -0.6490 -1.6433 -0.1287
 3046SOL     OW15742  10.977  10.313   5.469  0.6176 -0.1274 -0.9583
 3046SOL    HW115743  10.962  10.224   5.438  2.7472 -0.8915  0.0072
 3046SOL    HW215744  10.892  10.356   5.461 -0.9864 -2.7942  0.3254
 3047SOL     OW15745   7.402  11.699   9.512  0.1827  0.1360  0.2802
 3047SOL    HW115746   7.460  11.674   9.440 -0.2242 -0.5929  0.1944
 3047SOL    HW215747   7.441  11.779   9.548  0.4601  0.4370 -0.6635
 3048SOL     OW15748   5.476   6.681   7.210 -0.1628 -0.1462 -0.1159
 3048SOL    HW115749   5.469   6.775   7.192 -0.3252 -0.2349 -0.5440
 3048SOL    HW215750   5.417   6.666   7.283  1.3195  0.4191  1.2596
 3049SOL     OW15751   2.107   0.055   0.124  0.3188 -0.2648 -0.0504
 3049SOL    HW115752   2.173  -0.012   0.111  0.1043 -0.4299 -0.3208
 3049SOL    HW215753   2.055   0.024   0.198 -0.2084 -0.7498 -0.6128
 3050SOL     OW15754  11.107   4.135   0.378  0.0418  0.1817  0.5647
 3050SOL    HW115755  11.117   4.207   0.316 -4.0691 -0.2747 -0.9986
 3050SOL    HW215756  11.115   4.175   0.464  5.1493  0.9859 -0.0231
 3051SOL     OW15757   8.189   6.559   9.750 -0.5894 -0.0722  0.1398
 3051SOL    HW115758   8.237   6.642   9.751  0.6238 -0.7137  2.2939
 3051SOL    HW215759   8.108   6.578   9.703 -0.7428  2.5584  1.3061
 3052SOL     OW15760   1.362   4.918   1.957 -0.2410 -0.6693  0.5764
 3052SOL    HW115761   1.282   4.865   1.963 -0.2979 -0.5229  1.1541
 3052SOL    HW215762   1.433   4.858   1.977 -0.1094 -1.0376 -0.9165
 3053SOL     OW15763  10.039   0.783   7.608 -0.0978  0.1865  0.0599
 3053SOL    HW115764  10.075   0.850   7.666  2.2954  0.7679 -1.9067
 3053SOL    HW215765   9.970   0.829   7.559  1.5964  1.3902 -1.3533
 3054SOL     OW15766   5.670   5.894   2.442 -0.2325  0.3655 -0.8344
 3054SOL    HW115767   5.640   5.822   2.497 -1.9550 -1.0964 -3.4557
 3054SOL    HW215768   5.751   5.924   2.483 -0.2701 -2.0378  1.2221
 3055SOL     OW15769   3.977   4.932   7.881  0.1109  0.2663  0.0084
 3055SOL    HW115770   4.010   4.993   7.947  0.7936  0.2506 -0.3086
 3055SOL    HW215771   4.050   4.871   7.867 -0.6026 -0.7072  0.4130
 3056SOL     OW15772   8.990   1.447   1.892 -0.3441 -0.0542  0.1611
 3056SOL    HW115773   9.043   1.500   1.832 -1.1440  0.9134  0.2805
 3056SOL    HW215774   9.050   1.419   1.960  0.2645  0.0432 -0.3313
 3057SOL     OW15775   0.304   2.852   1.717  0.4841  0.1953 -0.0116
 3057SOL    HW115776   0.246   2.806   1.777  2.0243  0.7896  2.0236
 3057SOL    HW215777   0.324   2.787   1.649 -0.4787 -0.8346  0.6479
 3058SOL     OW15778   4.550   8.070   1.205  0.0140  0.3945  0.0673
 3058SOL    HW115779   4.484   8.063   1.274  0.5959  1.5483  0.7725
 3058SOL    HW215780   4.499   8.068   1.124 -0.8258  0.4542  0.5775
 3059SOL     OW15781   5.835   8.379   8.055 -0.2177  0.3662 -0.6335
 3059SOL    HW115782   5.755   8.333   8.080  0.6771 -0.8691  0.0059
 3059SOL    HW215783   5.888   8.313   8.010  0.5754  1.0988 -0.7970
 3060SOL     OW15784   5.386   5.104   1.578  0.5945  0.2418  0.3647
 3060SOL    HW115785   5.440   5.095   1.500  0.8652  1.6712  0.3445
 3060SOL    HW215786   5.306   5.056   1.558  0.7636  0.3747 -0.7042
 3061SOL     OW15787  10.182   7.475   0.084 -0.0121 -0.5973  0.2274
 3061SOL    HW115788  10.271   7.498   0.110  0.5177 -1.0134 -1.1262
 3061SOL    HW215789  10.173   7.383   0.109  0.0810 -0.6658  0.0115
 3062SOL     OW15790  12.251   4.140   2.117 -0.3599 -0.1144 -0.1162
 3062SOL    HW115791  12.269   4.069   2.179  1.9559 -0.2519 -0.8519
 3062SOL    HW215792  12.182   4.191   2.159 -0.4696 -1.4851  1.5010
 3063SOL     OW15793   7.140   5.041   8.228 -0.0713  0.2489  0.2547
 3063SOL    HW115794   7.115   5.132   8.208  1.8065  0.3644 -1.8378
 3063SOL    HW215795   7.213   5.049   8.289  1.4579  0.2639 -1.5165
 3064SOL     OW15796   2.762   1.368   0.011  0.6473  0.3487 -0.3610
 3064SOL    HW115797   2.697   1.398   0.075 -2.7094 -0.9405 -2.8382
 3064SOL    HW215798   2.740   1.416  -0.069  2.6145 -0.3519 -1.3772
 3065SOL     OW15799   0.135  11.736   4.594  0.2017 -0.6460  0.1105
 3065SOL    HW115800   0.102  11.765   4.509 -1.5809 -1.4136  0.4975
 3065SOL    HW215801   0.114  11.808   4.653  3.5293  0.9653 -0.3869
 3066SOL     OW15802  10.163   2.719   7.281  0.0187  0.0794  0.4918
 3066SOL    HW115803  10.175   2.740   7.373  1.8833 -0.6536  0.4486
 3066SOL    HW215804  10.222   2.646   7.264  1.1132  1.3415 -1.6875
 3067SOL     OW15805  10.105  12.279   1.362 -0.1989 -0.4174 -0.5200
 3067SOL    HW115806  10.073  12.297   1.274 -1.4686 -2.4182 -0.5181
 3067SOL    HW215807  10.090  12.186   1.375 -0.3627 -0.1227  1.9345
 3068SOL     OW15808  10.174   0.840   0.959  0.3291  0.0628 -0.1475
 3068SOL    HW115809  10.231   0.899   0.910  0.8820 -1.5745 -1.6057
 3068SOL    HW215810  10.214   0.754   0.949 -1.7304 -0.9614 -0.1765
 3069SOL     OW15811   0.934   1.059   2.236  0.4751 -0.2848  0.2908
 3069SOL    HW115812   1.029   1.053   2.234  0.4611 -1.2215  1.4315
 3069SOL    HW215813   0.913   1.095   2.322 -0.2584 -2.5022  1.1135
 3070SOL     OW15814   8.067   3.412   3.178  0.3120 -0.1654 -0.4757
 3070SOL    HW115815   7.986   3.399   3.130 -0.7051 -0.4931  1.2517
 3070SOL    HW215816   8.126   3.345   3.145  0.4695  1.0249 -2.8545
 3071SOL     OW15817   0.780   7.120   6.271 -0.0183 -0.1761 -0.4158
 3071SOL    HW115818   0.705   7.118   6.331 -0.4186  2.0424 -0.7719
 3071SOL    HW215819   0.742   7.137   6.185  0.8896  1.6227 -0.5054
 3072SOL     OW15820   4.638   5.543  11.828 -0.2884  0.1997 -0.2285
 3072SOL    HW115821   4.594   5.535  11.912  1.2291 -0.7543  0.5212
 3072SOL    HW215822   4.592   5.615  11.784 -1.7450  0.0700  0.9875
 3073SOL     OW15823   1.023   0.724   4.533  0.0867  0.4946 -0.1196
 3073SOL    HW115824   1.096   0.752   4.478  0.0432  2.6716  0.8372
 3073SOL    HW215825   1.064   0.688   4.611  0.1296 -1.9600 -1.1537
 3074SOL     OW15826  12.049   5.746   7.913 -0.2097  0.2250  0.4252
 3074SOL    HW115827  12.068   5.801   7.989 -0.0323  1.4867 -0.4933
 3074SOL    HW215828  11.959   5.716   7.926 -0.0587  0.1298  1.2940
 3075SOL     OW15829  11.375  11.427   6.708 -0.2043 -0.0418  0.0108
 3075SOL    HW115830  11.371  11.338   6.745 -0.1117  0.3717  1.0484
 3075SOL    HW215831  11.287  11.461   6.718 -0.2739 -0.0534 -0.5181
 3076SOL     OW15832   1.035  10.850  10.623 -0.4583  0.3602  0.6394
 3076SOL    HW115833   1.092  10.913  10.668 -1.9232  1.8524  0.5300
 3076SOL    HW215834   1.035  10.773  10.679  0.5273  0.8625  1.3612
 3077SOL     OW15835   0.953  12.671   0.327  0.1213  0.1865 -0.5915
 3077SOL    HW115836   1.036  12.693   0.284  0.6029 -0.4644 -0.0278
 3077SOL    HW215837   0.927  12.752   0.371  1.5225 -0.1298  0.9083
 3078SOL     OW15838  10.647   3.581   3.770 -0.1188 -0.0270  0.3481
 3078SOL    HW115839  10.684   3.661   3.808 -0.9846  0.0502  1.0734
 3078SOL    HW215840  10.621   3.606   3.681  0.0528  0.3685  0.4076
 3079SOL     OW15841  12.184   2.674   2.281  0.4129 -0.2673  0.0649
 3079SOL    HW115842  12.268   2.667   2.325  0.6866 -0.8519 -0.5412
 3079SOL    HW215843  12.203   2.656   2.189 -0.3531 -0.2964 -0.0975
 3080SOL     OW15844   4.665  11.000   2.907  0.2642 -0.0488 -0.2586
 3080SOL    HW115845   4.608  10.923   2.907 -2.0575  1.5620 -1.1694
 3080SOL    HW215846   4.623  11.061   2.968  0.5656  1.4896 -1.5157
 3081SOL     OW15847   5.876   0.488  11.668 -0.1137  0.2038 -0.7819
 3081SOL    HW115848   5.943   0.420  11.655 -0.3135  0.0627 -1.0865
 3081SOL    HW215849   5.862   0.489  11.762 -0.4687 -0.5373 -0.8134
 3082SOL     OW15850  10.103   9.208   9.228 -0.6514 -0.2320 -0.2659
 3082SOL    HW115851  10.069   9.243   9.146 -0.1776  1.2816  0.1458
 3082SOL    HW215852  10.195   9.235   9.228 -0.8423  0.5116  1.1085
 3083SOL     OW15853   9.517  11.543  10.807  0.5684 -0.1514  0.9464
 3083SOL    HW115854   9.528  11.450  10.829 -3.2454 -0.6788  1.2735
 3083SOL    HW215855   9.432  11.548  10.764  0.2762  3.3273  1.6240
 3084SOL     OW15856   2.196   0.157   1.270 -0.2246 -0.1853  0.1079
 3084SOL    HW115857   2.285   0.191   1.264 -0.9886  1.9426 -0.2360
 3084SOL    HW215858   2.158   0.171   1.183 -1.3176  0.2997  0.6374
 3085SOL     OW15859   0.131   2.737  12.108 -0.3949 -0.0857 -0.1863
 3085SOL    HW115860   0.178   2.692  12.037  0.4692 -1.0279  0.9240
 3085SOL    HW215861   0.059   2.678  12.131 -0.9727  0.4526 -0.6136
 3086SOL     OW15862   5.909   5.656   3.811  0.1911  0.5682 -0.0097
 3086SOL    HW115863   5.838   5.717   3.789  0.5978  1.0615  0.0470
 3086SOL    HW215864   5.968   5.706   3.867 -0.8832 -0.6805  2.3958
 3087SOL     OW15865   3.860  10.180   2.444  0.4678  0.1435  0.2235
 3087SOL    HW115866   3.880  10.094   2.481 -0.9235  0.3352  1.5228
 3087SOL    HW215867   3.938  10.232   2.460  0.2080 -0.0151  2.2605
 3088SOL     OW15868   0.731   6.117   0.152  0.5576 -0.1585 -0.1995
 3088SOL    HW115869   0.647   6.070   0.155  0.9657 -0.8647  0.9587
 3088SOL    HW215870   0.722   6.186   0.217  1.4458 -1.3045  1.2103
 3089SOL     OW15871   6.168   2.253   8.397  0.6171 -0.3792 -0.1651
 3089SOL    HW115872   6.132   2.264   8.485  0.4028  1.4224 -0.4518
 3089SOL    HW215873   6.205   2.338   8.376  1.2633 -0.9873 -1.5706
 3090SOL     OW15874   4.494   8.505   3.871 -0.2050  0.1824 -0.2728
 3090SOL    HW115875   4.536   8.513   3.786  0.1306  0.5490 -0.0772
 3090SOL    HW215876   4.412   8.460   3.854  0.0238 -0.0579 -0.7374
 3091SOL     OW15877   5.630   7.955   8.918 -0.0086 -0.0192 -0.0323
 3091SOL    HW115878   5.711   7.918   8.952 -0.2605 -1.8004 -1.3004
 3091SOL    HW215879   5.561   7.901   8.957 -0.5870  1.0478  0.4833
 3092SOL     OW15880   3.536   2.901   9.985 -0.1163 -0.2427 -0.0455
 3092SOL    HW115881   3.602   2.845   9.943  0.8079  0.7827 -0.0135
 3092SOL    HW215882   3.546   2.883  10.079 -0.7202 -0.9716 -0.1155
 3093SOL     OW15883   3.991   8.391   9.399  0.2908  0.8405  0.0626
 3093SOL    HW115884   3.930   8.409   9.470  0.9712 -2.2299  1.6017
 3093SOL    HW215885   4.077   8.391   9.440  0.8588  0.5501 -1.0780
 3094SOL     OW15886   5.103   5.756  12.461 -0.0449  0.4306 -0.5475
 3094SOL    HW115887   5.197   5.737  12.462 -0.3338 -1.0545 -0.3313
 3094SOL    HW215888   5.095   5.831  12.401  1.1940  0.1373 -1.1190
 3095SOL     OW15889   4.475   9.113  10.894  0.3373 -0.4591 -0.2100
 3095SOL    HW115890   4.479   9.027  10.935 -0.8425 -0.1203  0.6574
 3095SOL    HW215891   4.383   9.124  10.868  0.7678 -0.0803 -1.6961
 3096SOL     OW15892  10.909   4.565   0.685 -0.6651  0.1043 -0.2416
 3096SOL    HW115893  10.915   4.535   0.594 -0.5854  1.1830 -0.6079
 3096SOL    HW215894  10.875   4.654   0.678  0.3877  0.5966  0.7104
 3097SOL     OW15895   6.657   4.135   4.577 -0.3787 -0.3857 -0.3542
 3097SOL    HW115896   6.710   4.166   4.503 -0.1674  2.3688  0.8140
 3097SOL    HW215897   6.577   4.188   4.572  0.3110  1.0612  2.2203
 3098SOL     OW15898   0.801   0.527   6.485 -0.0043 -0.6204  0.1161
 3098SOL    HW115899   0.860   0.526   6.560  0.1252 -1.9101  0.0092
 3098SOL    HW215900   0.822   0.447   6.436 -2.0712 -1.3201  0.2829
 3099SOL     OW15901   6.663   0.656   6.658 -0.5070  0.0569 -0.3128
 3099SOL    HW115902   6.678   0.742   6.696 -1.8970  0.4516 -0.5978
 3099SOL    HW215903   6.589   0.620   6.709 -2.0711  0.3858 -2.2270
 3100SOL     OW15904   5.816   1.796   4.178  0.5306 -0.1015 -0.6682
 3100SOL    HW115905   5.839   1.886   4.202 -0.8021  0.6315 -2.0523
 3100SOL    HW215906   5.795   1.800   4.085  0.1568 -1.8053 -0.6867
 3101SOL     OW15907   2.302   1.035   9.901 -0.0955  0.5853 -0.7425
 3101SOL    HW115908   2.374   0.972   9.892 -1.7100 -1.3744 -0.6019
 3101SOL    HW215909   2.227   0.992   9.860 -1.7548  1.6118  1.0510
 3102SOL     OW15910   7.159   1.281  12.041  0.4450  0.1140 -0.2556
 3102SOL    HW115911   7.089   1.216  12.050  0.9924 -0.4252  0.1079
 3102SOL    HW215912   7.119   1.352  11.990 -1.1193  0.8663  1.8473
 3103SOL     OW15913   8.264   6.676   2.226 -0.0423  0.6602 -0.2123
 3103SOL    HW115914   8.320   6.606   2.260 -0.2382 -0.0315 -1.2730
 3103SOL    HW215915   8.234   6.722   2.304 -0.2056 -0.6704  0.5464
 3104SOL     OW15916   0.427   5.893   2.561  0.1112 -1.0259 -0.1665
 3104SOL    HW115917   0.383   5.840   2.496 -1.0337 -2.5174  1.7241
 3104SOL    HW215918   0.425   5.840   2.641  0.5717  1.0940  1.3410
 3105SOL     OW15919  12.783   5.932   1.372  0.2659 -0.2755  0.1230
 3105SOL    HW115920  12.700   5.975   1.392  0.1001  0.0514 -1.1214
 3105SOL    HW215921  12.770   5.841   1.396 -0.8104 -0.4322 -0.9309
 3106SOL     OW15922  12.371   4.307   4.375  0.4592 -0.0281  0.4585
 3106SOL    HW115923  12.297   4.261   4.415  0.4892 -1.3516 -0.8938
 3106SOL    HW215924  12.448   4.269   4.417  0.4444 -0.4656  0.1004
 3107SOL     OW15925   3.051  12.057   3.319 -0.1535 -0.2771 -0.2287
 3107SOL    HW115926   3.086  12.113   3.388 -0.5256 -0.3984  0.0601
 3107SOL    HW215927   3.063  11.968   3.351 -0.1204 -0.3413 -0.4187
 3108SOL     OW15928   7.279   9.970   8.645 -0.3941  0.4980 -0.1685
 3108SOL    HW115929   7.356   9.944   8.695 -1.4281 -0.0232  1.2227
 3108SOL    HW215930   7.314  10.018   8.570  1.2471  0.6908  0.6762
 3109SOL     OW15931  10.814   8.069   4.404 -0.1761 -0.2905 -0.1397
 3109SOL    HW115932  10.727   8.095   4.434 -0.7773  1.2905 -2.8961
 3109SOL    HW215933  10.874   8.111   4.466 -1.3477  0.2236  0.6802
 3110SOL     OW15934   1.801   0.460   7.284 -0.6790  0.0261  0.1333
 3110SOL    HW115935   1.726   0.431   7.232  0.6604 -0.4346 -1.6239
 3110SOL    HW215936   1.788   0.554   7.296 -1.1103  0.1145 -0.9242
 3111SOL     OW15937   4.630   7.161  12.237 -0.0489 -0.3201 -0.1953
 3111SOL    HW115938   4.700   7.220  12.212  0.1563 -0.7558 -0.6664
 3111SOL    HW215939   4.649   7.137  12.328 -0.3872  0.6873  0.1528
 3112SOL     OW15940   1.178   6.565  10.437  0.9667 -0.1547  0.2926
 3112SOL    HW115941   1.122   6.494  10.469  1.6316 -1.3644 -1.1062
 3112SOL    HW215942   1.121   6.641  10.434 -0.1552 -0.9581  0.4720
 3113SOL     OW15943   0.595   4.629   6.744 -0.1562 -0.5922  0.1215
 3113SOL    HW115944   0.637   4.564   6.800  0.2887 -0.4102  0.0029
 3113SOL    HW215945   0.527   4.580   6.697  0.5370 -1.1015 -0.3790
 3114SOL     OW15946  11.073   0.904  11.986  0.1140  0.2872 -0.3842
 3114SOL    HW115947  11.132   0.977  11.971 -2.1338  2.2852 -0.1993
 3114SOL    HW215948  11.017   0.901  11.908 -2.3163  1.3858  1.1712
 3115SOL     OW15949  11.855   2.895   5.720  0.0574 -0.1619  0.1208
 3115SOL    HW115950  11.840   2.807   5.686  0.3055 -0.5474  0.9685
 3115SOL    HW215951  11.872   2.948   5.643 -0.0085 -0.8763 -0.3991
 3116SOL     OW15952   6.767  12.095   0.380 -0.2546 -0.2578  0.8682
 3116SOL    HW115953   6.745  12.023   0.320 -0.2478 -1.1925  1.9583
 3116SOL    HW215954   6.862  12.092   0.387 -0.1691  0.5047  0.1466
 3117SOL     OW15955   9.123   4.089   7.818 -0.5661 -0.1095 -0.1154
 3117SOL    HW115956   9.165   4.010   7.782 -2.5352 -1.4737  0.4209
 3117SOL    HW215957   9.179   4.114   7.891  1.7058  0.7886 -2.0340
 3118SOL     OW15958   6.582   6.505   0.047 -0.5519 -0.2600 -0.4001
 3118SOL    HW115959   6.590   6.454  -0.034 -1.1023 -0.1633 -0.5190
 3118SOL    HW215960   6.489   6.526   0.053 -0.2913  1.0237 -0.5438
 3119SOL     OW15961   1.857  12.110  10.895  0.6790 -0.2120 -0.1892
 3119SOL    HW115962   1.797  12.174  10.933  1.7290 -0.1328  1.4255
 3119SOL    HW215963   1.811  12.026  10.903 -0.1028  0.1220 -1.0041
 3120SOL     OW15964  12.366   2.316  12.140  0.5144  0.2921 -0.2056
 3120SOL    HW115965  12.349   2.272  12.224  0.8424  1.8244  0.6948
 3120SOL    HW215966  12.313   2.267  12.076 -0.4004 -0.3813  1.0257
 3121SOL     OW15967  11.374   2.118   4.357  0.2803  0.2198  0.9286
 3121SOL    HW115968  11.353   2.212   4.361  0.7531  0.3800  0.0789
 3121SOL    HW215969  11.468   2.116   4.340  0.1671 -0.3977  0.3510
 3122SOL     OW15970   3.308   7.716   1.601  0.6047 -0.0221 -0.4220
 3122SOL    HW115971   3.296   7.683   1.512 -0.2899 -1.9062  0.3246
 3122SOL    HW215972   3.354   7.798   1.591 -0.2356  0.2357 -2.6836
 3123SOL     OW15973  10.140  10.494   0.585 -0.1454  0.5631 -0.1351
 3123SOL    HW115974  10.093  10.525   0.507  1.8467 -1.0375 -2.1149
 3123SOL    HW215975  10.201  10.565   0.606 -1.4213  1.4560  0.7030
 3124SOL     OW15976   2.683  11.502   4.697 -0.4605 -0.1323  0.2294
 3124SOL    HW115977   2.720  11.442   4.633 -2.0659 -0.0917 -0.7895
 3124SOL    HW215978   2.739  11.580   4.692 -0.9994  0.1938 -1.7625
 3125SOL     OW15979   1.124  10.104   1.029  1.0064  0.0973 -0.2975
 3125SOL    HW115980   1.160  10.109   0.940 -0.5567 -0.6805 -1.0150
 3125SOL    HW215981   1.085  10.017   1.034  2.0290 -0.3065  1.5698
 3126SOL     OW15982  11.880   3.892   8.395 -0.0450 -0.6689  0.1518
 3126SOL    HW115983  11.827   3.814   8.378 -0.5394 -0.1615 -0.7047
 3126SOL    HW215984  11.864   3.912   8.487 -1.7630 -0.2580 -0.1890
 3127SOL     OW15985   6.767   3.744   5.490 -0.1515  0.1376  0.5470
 3127SOL    HW115986   6.804   3.679   5.550 -1.8294 -2.3406 -0.9036
 3127SOL    HW215987   6.681   3.763   5.526 -0.5528 -0.1954 -0.2146
 3128SOL     OW15988   3.675   1.858  10.203 -0.3343  0.2326 -0.4506
 3128SOL    HW115989   3.629   1.902  10.131 -0.4977 -0.3332 -0.7013
 3128SOL    HW215990   3.646   1.767  10.197  1.7324 -0.4218 -1.3638
 3129SOL     OW15991   3.914   4.956   9.628 -0.2337  0.2847  0.4606
 3129SOL    HW115992   3.825   4.952   9.594 -0.0311  0.2280 -0.0791
 3129SOL    HW215993   3.941   5.047   9.614  0.4808 -0.1465 -1.2112
 3130SOL     OW15994   7.840  11.171   4.461  0.0567 -0.1643 -0.1465
 3130SOL    HW115995   7.758  11.178   4.509 -1.1205 -0.5677 -2.0036
 3130SOL    HW215996   7.907  11.165   4.529 -1.2528  1.8538  1.4211
 3131SOL     OW15997   1.464   3.205   4.448 -0.4370  0.0337 -0.2766
 3131SOL    HW115998   1.559   3.199   4.435 -0.6763 -0.2407 -2.1280
 3131SOL    HW215999   1.428   3.132   4.398 -1.6151 -0.1620  0.8167
 3132SOL     OW16000  12.226   6.319  12.350  0.2673 -0.5422  0.2873
 3132SOL    HW116001  12.174   6.337  12.429  1.5971  0.7889  0.8963
 3132SOL    HW216002  12.167   6.268  12.295 -1.7655  0.9594  0.9099
 3133SOL     OW16003   3.384   3.967   6.494  0.2577 -0.1279 -0.0123
 3133SOL    HW116004   3.362   3.910   6.567  0.0231  0.4232  0.3569
 3133SOL    HW216005   3.477   3.954   6.479  0.1873 -0.6699  0.0054
 3134SOL     OW16006   8.289   3.567  12.681 -0.7278  0.3405  0.8978
 3134SOL    HW116007   8.316   3.656  12.703 -0.8150  0.7856 -0.6660
 3134SOL    HW216008   8.364   3.531  12.633 -1.9066  0.7317 -1.3362
 3135SOL     OW16009   4.741   0.421   6.382  0.7906  0.3775  0.0244
 3135SOL    HW116010   4.656   0.380   6.368  0.5045  1.2196 -0.8546
 3135SOL    HW216011   4.774   0.383   6.464 -1.1213  1.1947  1.2279
 3136SOL     OW16012   4.571   9.674   3.069  0.0427  0.2130 -0.2640
 3136SOL    HW116013   4.500   9.722   3.026 -0.0855 -1.8736 -2.5635
 3136SOL    HW216014   4.556   9.583   3.046  3.2122 -0.3590 -0.5058
 3137SOL     OW16015   2.637   6.814  11.019  0.3414  0.6875 -0.1380
 3137SOL    HW116016   2.553   6.775  10.994  0.8589 -0.3789 -0.2264
 3137SOL    HW216017   2.620   6.852  11.106 -0.5508  1.5245 -0.6648
 3138SOL     OW16018   3.071   1.042   3.143  0.1356 -0.5362  0.9482
 3138SOL    HW116019   3.101   0.951   3.154 -1.2787 -1.1975 -0.3155
 3138SOL    HW216020   2.977   1.038   3.161 -0.0840  0.5261  0.1029
 3139SOL     OW16021   9.181  10.413   5.759  0.5234 -0.5883  1.0149
 3139SOL    HW116022   9.256  10.354   5.756 -0.0959 -1.4028  1.0242
 3139SOL    HW216023   9.125  10.377   5.828 -3.0667 -4.0799 -3.0754
 3140SOL     OW16024   3.215  10.344   0.351 -0.0502 -0.4907  0.0660
 3140SOL    HW116025   3.132  10.341   0.303  0.5824  0.6301 -1.1527
 3140SOL    HW216026   3.233  10.252   0.372 -1.3376 -0.8018 -0.0721
 3141SOL     OW16027   9.934   0.533   0.701 -0.6522  0.6201 -1.0082
 3141SOL    HW116028   9.942   0.604   0.764  0.6182  1.2574 -1.8488
 3141SOL    HW216029   9.880   0.569   0.630  0.4271  0.9772 -1.6853
 3142SOL     OW16030   2.038   1.864   2.898 -0.0965  0.2635  0.0923
 3142SOL    HW116031   1.990   1.781   2.900  1.5282 -0.6974  0.2537
 3142SOL    HW216032   2.026   1.900   2.986 -0.6723  0.1416  0.0708
 3143SOL     OW16033   0.898   7.166   9.498 -0.7315  0.5520 -0.5413
 3143SOL    HW116034   0.806   7.190   9.483 -1.5255 -2.4290 -0.9666
 3143SOL    HW216035   0.896   7.113   9.578  0.9785  2.0661  0.5711
 3144SOL     OW16036   7.484  11.929   5.538  0.7487 -0.9771 -0.1716
 3144SOL    HW116037   7.552  11.980   5.495 -1.0271  1.7595  0.0328
 3144SOL    HW216038   7.403  11.951   5.491 -0.5427 -1.4318  1.6964
 3145SOL     OW16039  11.547  12.326   3.351  0.2641  0.3310 -0.0189
 3145SOL    HW116040  11.523  12.236   3.372 -0.3473  0.2337 -1.0506
 3145SOL    HW216041  11.483  12.380   3.398  0.9901  0.2618  1.0713
 3146SOL     OW16042  11.605   5.005   9.066  0.1991 -0.2704 -0.7324
 3146SOL    HW116043  11.613   5.089   9.111  0.6768 -0.6113 -0.1563
 3146SOL    HW216044  11.511   4.986   9.067  0.3676 -1.7245  2.9309
 3147SOL     OW16045   2.907  12.116  10.223  0.2127 -0.4542 -0.3045
 3147SOL    HW116046   2.955  12.042  10.260  1.2324 -0.1094 -0.8918
 3147SOL    HW216047   2.975  12.172  10.185 -0.5239  0.8225  0.1878
 3148SOL     OW16048  10.044   9.075  12.369  0.2072  0.3185  1.1001
 3148SOL    HW116049   9.998   9.077  12.453 -0.0780  0.6097  0.9385
 3148SOL    HW216050  10.099   9.153  12.371 -1.2288  1.3902  0.2195
 3149SOL     OW16051   3.023   5.366   6.545  0.3302 -0.6254 -0.1693
 3149SOL    HW116052   2.975   5.295   6.589  0.0622 -0.4980 -0.2522
 3149SOL    HW216053   2.954   5.420   6.506  0.5083  0.0048  0.3853
 3150SOL     OW16054   2.508   3.717  10.487  0.0189 -0.4681  0.1297
 3150SOL    HW116055   2.414   3.719  10.468 -0.0746 -1.1542  0.4902
 3150SOL    HW216056   2.546   3.669  10.413  0.1567  0.2689 -0.2824
 3151SOL     OW16057   5.751   5.498  12.035  0.4773  0.1934  0.0905
 3151SOL    HW116058   5.816   5.485  12.104  0.3223  1.2856  0.4715
 3151SOL    HW216059   5.801   5.528  11.959  0.8228 -2.3166 -0.7588
 3152SOL     OW16060   7.243   6.848   9.158  0.0487 -0.4985 -0.3124
 3152SOL    HW116061   7.236   6.827   9.065 -0.9032  0.4263 -0.4767
 3152SOL    HW216062   7.244   6.944   9.161 -1.2924 -0.4837  0.6823
 3153SOL     OW16063   9.716  10.982   2.059 -1.0403 -0.2896  0.0629
 3153SOL    HW116064   9.725  10.888   2.071  0.3664 -0.0548  1.2502
 3153SOL    HW216065   9.773  11.020   2.126 -2.0232  1.4182  0.0013
 3154SOL     OW16066   2.998   1.742   2.846  0.0909  0.7213 -0.5881
 3154SOL    HW116067   3.041   1.745   2.932  1.5005 -0.4586 -1.2027
 3154SOL    HW216068   3.025   1.823   2.803 -0.4568  1.2214  0.0011
 3155SOL     OW16069  10.901   5.546   1.191 -0.3447  0.6230  0.2805
 3155SOL    HW116070  10.890   5.576   1.282 -0.1960  1.0017  0.1791
 3155SOL    HW216071  10.970   5.603   1.156 -0.4990  0.5708 -0.1103
 3156SOL     OW16072  12.728   1.339   0.655  0.1933  0.0256 -0.1781
 3156SOL    HW116073  12.798   1.330   0.719 -0.1304  0.3035  0.2196
 3156SOL    HW216074  12.771   1.325   0.570  0.4715 -1.1524  0.1412
 3157SOL     OW16075  10.260   7.035   0.712  0.0239 -0.1548 -0.2473
 3157SOL    HW116076  10.220   7.113   0.751 -1.1017  0.1019 -1.8317
 3157SOL    HW216077  10.316   7.000   0.782 -3.0357 -0.6165  2.1823
 3158SOL     OW16078   4.419   1.077   5.089  0.0842  0.5167 -0.1430
 3158SOL    HW116079   4.388   1.042   5.006 -0.0052 -0.4567  0.2785
 3158SOL    HW216080   4.344   1.067   5.148  1.0007 -1.5305  0.7967
 3159SOL     OW16081   2.125   8.790   5.331 -0.0502  0.2868  0.5687
 3159SOL    HW116082   2.174   8.741   5.265  1.6933  2.1909  0.3353
 3159SOL    HW216083   2.181   8.788   5.409 -0.3639  1.1270  0.8282
 3160SOL     OW16084  12.438   4.719  10.974 -0.3823  0.0245  0.1124
 3160SOL    HW116085  12.524   4.692  10.942 -0.6063 -0.7290  0.1156
 3160SOL    HW216086  12.393   4.636  10.992 -1.2637  0.4066 -0.3105
 3161SOL     OW16087   9.851   3.575   9.117 -0.4123 -0.5043 -0.1185
 3161SOL    HW116088   9.927   3.518   9.124  1.0659  1.2976 -0.6578
 3161SOL    HW216089   9.781   3.518   9.086  0.8624 -2.1041 -0.2037
 3162SOL     OW16090   4.587   7.721   8.886  0.1671  0.3356  0.5651
 3162SOL    HW116091   4.633   7.639   8.900 -0.1472 -0.1735 -1.2163
 3162SOL    HW216092   4.497   7.704   8.913 -0.2591 -0.4063 -1.2141
 3163SOL     OW16093   9.742   9.018   4.654 -0.0442 -0.1161 -0.0583
 3163SOL    HW116094   9.663   9.011   4.708  0.2679 -1.2671  0.2944
 3163SOL    HW216095   9.710   9.015   4.564 -0.3204 -3.9366 -0.0248
 3164SOL     OW16096   6.241  11.512   9.554 -0.4898 -0.0677  0.4206
 3164SOL    HW116097   6.263  11.601   9.526 -1.2764  0.2993  0.9287
 3164SOL    HW216098   6.326  11.469   9.565 -0.1131  0.3801 -0.5543
 3165SOL     OW16099   4.652  10.274   6.913 -0.3818  0.3599  0.3390
 3165SOL    HW116100   4.653  10.302   7.004 -0.1432  3.1178 -0.3964
 3165SOL    HW216101   4.620  10.351   6.865 -1.7975 -1.4394 -1.7882
 3166SOL     OW16102  10.807  10.383   8.387 -0.4113  0.1329  0.3532
 3166SOL    HW116103  10.835  10.470   8.415  0.6455 -0.4686  1.2520
 3166SOL    HW216104  10.886  10.341   8.354 -0.5251 -1.0716  1.5168
 3167SOL     OW16105  11.727  10.662   7.819 -0.2559 -0.0172 -0.2446
 3167SOL    HW116106  11.670  10.720   7.870  1.0938  0.3679  0.8942
 3167SOL    HW216107  11.776  10.722   7.762  1.2963  0.0585  1.0854
 3168SOL     OW16108  11.680   9.473   2.346 -0.2557 -0.3363 -0.0284
 3168SOL    HW116109  11.764   9.490   2.389  0.4983 -0.8439 -1.2547
 3168SOL    HW216110  11.618   9.463   2.418  0.8019 -0.3067  0.9146
 3169SOL     OW16111   4.921   4.721  12.198 -0.5292  0.4281 -0.3316
 3169SOL    HW116112   4.841   4.691  12.157 -1.2324  0.0012  1.2653
 3169SOL    HW216113   4.991   4.698  12.136 -1.4975 -0.4031 -1.1395
 3170SOL     OW16114   4.102   0.391  10.336 -0.2656  0.3948 -0.2471
 3170SOL    HW116115   4.179   0.336  10.350 -0.3442  0.6876  1.4756
 3170SOL    HW216116   4.136   0.469  10.292  0.2287  0.0410 -0.5124
 3171SOL     OW16117  11.497   9.217   7.668  0.1901  0.6267 -0.6518
 3171SOL    HW116118  11.572   9.205   7.727  0.4105  0.4968 -0.9574
 3171SOL    HW216119  11.446   9.136   7.678 -0.4467  1.1318  0.3146
 3172SOL     OW16120   8.783   6.561   7.279  0.0860 -0.7764  0.2080
 3172SOL    HW116121   8.823   6.474   7.270  1.7444 -0.0846  0.6476
 3172SOL    HW216122   8.694   6.543   7.311  0.1746 -2.3362 -0.3531
 3173SOL     OW16123   0.017   6.100   6.404 -0.2916 -0.0875  0.3571
 3173SOL    HW116124  -0.040   6.095   6.481 -0.5096 -2.2586  0.1118
 3173SOL    HW216125   0.057   6.013   6.398  0.0275  0.1522 -1.7482
 3174SOL     OW16126  12.411   4.843   3.371 -0.0888  0.3173 -0.0091
 3174SOL    HW116127  12.425   4.925   3.418 -0.3585 -0.7214  2.0115
 3174SOL    HW216128  12.459   4.778   3.422  1.5019 -0.5559 -2.5051
 3175SOL     OW16129   1.550  11.386   3.107 -0.1925 -0.1401 -0.0599
 3175SOL    HW116130   1.546  11.298   3.070  1.6247 -0.0052 -0.7166
 3175SOL    HW216131   1.642  11.412   3.096 -0.9105  2.3105 -0.9670
 3176SOL     OW16132   2.474   3.594   3.819 -0.5022  0.4533  0.6008
 3176SOL    HW116133   2.476   3.661   3.887 -2.0411 -0.9736  2.1328
 3176SOL    HW216134   2.442   3.515   3.863 -0.4505 -0.8417 -1.5311
 3177SOL     OW16135   6.224   6.094   2.198 -0.2044 -0.5311  0.4449
 3177SOL    HW116136   6.268   6.066   2.279 -0.3285 -0.5566  0.5036
 3177SOL    HW216137   6.256   6.183   2.183 -0.8816 -0.1698  1.0328
 3178SOL     OW16138   3.025   4.350   7.109  0.0907 -0.3493  0.3795
 3178SOL    HW116139   3.030   4.343   7.014 -0.1557  1.0811  0.2464
 3178SOL    HW216140   3.001   4.441   7.126 -1.2499 -0.9191  1.7680
 3179SOL     OW16141   8.185   8.581  12.360  0.2891 -0.4772 -0.1372
 3179SOL    HW116142   8.119   8.596  12.293  0.7969 -1.2459 -0.8366
 3179SOL    HW216143   8.198   8.666  12.401 -1.6082 -0.4590  0.4746
 3180SOL     OW16144   3.772   4.339   2.611 -0.1769  0.0198  0.1542
 3180SOL    HW116145   3.770   4.426   2.650 -1.3491 -0.4446  1.1817
 3180SOL    HW216146   3.707   4.289   2.660  1.8768 -2.0401  0.9565
 3181SOL     OW16147   8.316  12.052   4.410  0.4200  0.3135  0.0965
 3181SOL    HW116148   8.257  12.065   4.485 -0.3246  0.1614 -0.4478
 3181SOL    HW216149   8.353  11.965   4.425 -1.2561 -0.5992 -0.6963
 3182SOL     OW16150   7.964   6.704  12.066 -0.2737 -0.3628  0.7253
 3182SOL    HW116151   7.883   6.744  12.035  0.9549  0.9347 -1.0164
 3182SOL    HW216152   7.988   6.755  12.143  0.1951  0.9778 -0.2698
 3183SOL     OW16153   6.945  12.319   4.315 -0.9537 -0.5328  0.2137
 3183SOL    HW116154   6.916  12.342   4.227 -1.4388 -3.3475 -0.4365
 3183SOL    HW216155   6.865  12.307   4.365 -0.7115  2.7999  1.6771
 3184SOL     OW16156   0.896   3.198   6.758 -0.1092 -0.0680 -0.4174
 3184SOL    HW116157   0.982   3.239   6.755 -0.6867  1.3655  0.8988
 3184SOL    HW216158   0.895   3.137   6.684  2.1189 -0.3434 -0.2775
 3185SOL     OW16159  11.216  11.241   7.802  0.2746 -0.3541 -0.0562
 3185SOL    HW116160  11.165  11.162   7.820 -1.4312  0.2070 -2.0609
 3185SOL    HW216161  11.161  11.313   7.834 -0.4688  0.2897 -2.5894
 3186SOL     OW16162   8.152   9.214   8.177 -0.0009  0.6322 -0.3817
 3186SOL    HW116163   8.182   9.217   8.268  0.3031 -1.9325 -0.3309
 3186SOL    HW216164   8.063   9.181   8.182 -0.3003  1.3163 -0.9932
 3187SOL     OW16165  10.541  10.921   1.744  0.1636 -0.5849  0.0480
 3187SOL    HW116166  10.634  10.921   1.721  0.4023 -1.2255  0.9490
 3187SOL    HW216167  10.519  11.014   1.752 -0.3005 -0.1700 -3.9187
 3188SOL     OW16168   6.190   8.482   9.705 -0.3482  0.0791 -0.0231
 3188SOL    HW116169   6.262   8.521   9.656 -0.0141 -1.7021 -1.0359
 3188SOL    HW216170   6.143   8.556   9.742 -0.7630  1.5796 -3.2464
 3189SOL     OW16171   4.805  11.630   9.141 -0.5871  0.2921 -0.6529
 3189SOL    HW116172   4.896  11.632   9.110 -0.3576  2.5998 -0.0819
 3189SOL    HW216173   4.778  11.722   9.140 -2.6706 -0.2509 -0.0384
 3190SOL     OW16174   8.757   9.037   8.549 -0.0960  0.5389 -0.1538
 3190SOL    HW116175   8.682   8.980   8.567  0.5660 -0.1699  0.4368
 3190SOL    HW216176   8.823   8.979   8.512  0.9083  0.7204  1.2833
 3191SOL     OW16177   8.661   5.290   0.641  0.2755  0.3801  0.1457
 3191SOL    HW116178   8.701   5.338   0.714  0.8872 -0.0345  0.0901
 3191SOL    HW216179   8.732   5.236   0.606 -0.4029 -0.5816  0.2188
 3192SOL     OW16180   0.059   8.655   6.846  0.1097 -0.4000 -0.6362
 3192SOL    HW116181   0.027   8.591   6.909 -0.0841  0.0845 -0.2328
 3192SOL    HW216182   0.129   8.610   6.799  2.1326  0.0785  1.7448
 3193SOL     OW16183   3.058  11.785  12.282 -0.0262  0.0419 -0.1626
 3193SOL    HW116184   3.032  11.720  12.346  2.6456  0.3107  1.3421
 3193SOL    HW216185   3.045  11.869  12.325 -0.0752  0.3392 -0.7368
 3194SOL     OW16186   3.736   4.185  11.416  0.4033  0.4871  0.3195
 3194SOL    HW116187   3.713   4.095  11.438 -0.6318  0.5634 -0.4036
 3194SOL    HW216188   3.786   4.216  11.491 -0.6884 -0.1412  1.3332
 3195SOL     OW16189   8.751   3.622   3.034 -0.0504  0.1385 -0.3636
 3195SOL    HW116190   8.730   3.603   2.943  1.2060 -0.3615 -0.5661
 3195SOL    HW216191   8.677   3.675   3.065 -0.3233  0.6115 -1.7612
 3196SOL     OW16192   1.091   2.511   1.349  0.6491 -0.6203  0.0179
 3196SOL    HW116193   1.088   2.605   1.332 -0.0794 -0.4536  1.0065
 3196SOL    HW216194   1.024   2.496   1.415 -0.9625 -2.2081 -1.8586
 3197SOL     OW16195  12.093   0.774   4.708  0.0058 -0.6174  0.1950
 3197SOL    HW116196  12.097   0.769   4.803 -1.0154 -0.1358  0.2699
 3197SOL    HW216197  12.179   0.807   4.682 -0.4479  1.4037  1.1146
 3198SOL     OW16198   2.460   4.765   2.549 -0.6488  0.6102  0.6304
 3198SOL    HW116199   2.418   4.679   2.549  0.2406  0.1595  0.1707
 3198SOL    HW216200   2.512   4.766   2.629  0.9356 -0.1089 -0.3515
 3199SOL     OW16201  11.082   2.608  12.030  0.0479  0.6130  0.7698
 3199SOL    HW116202  11.165   2.621  11.983  0.1401 -0.7395  0.5122
 3199SOL    HW216203  11.037   2.540  11.980 -0.3537 -0.0686  2.0231
 3200SOL     OW16204   1.652   4.395   2.489 -0.3395 -0.0600  0.2774
 3200SOL    HW116205   1.560   4.420   2.496  0.2867  2.0302  2.3750
 3200SOL    HW216206   1.686   4.406   2.578  1.2751 -3.8167  0.3118
 3201SOL     OW16207   4.367   1.612   5.060 -0.0279  0.1519 -0.2843
 3201SOL    HW116208   4.365   1.623   4.965 -3.0918 -0.7776 -0.4411
 3201SOL    HW216209   4.304   1.542   5.077  1.0581 -0.2669  2.3873
 3202SOL     OW16210  10.329   5.804   5.125 -0.4136  0.2201 -0.3221
 3202SOL    HW116211  10.252   5.752   5.102 -0.9622  1.3742 -1.2317
 3202SOL    HW216212  10.306   5.893   5.098  1.1581  0.6333 -0.3840
 3203SOL     OW16213   2.473   1.875   3.012 -0.8631  0.5034 -0.4800
 3203SOL    HW116214   2.482   1.864   2.918 -0.2750 -0.7969 -0.2923
 3203SOL    HW216215   2.557   1.848   3.048 -1.8424 -1.3750  0.5708
 3204SOL     OW16216   5.384   6.214   8.048 -0.2780 -0.0103 -0.0177
 3204SOL    HW116217   5.370   6.285   7.985 -0.8266 -1.0823 -1.1507
 3204SOL    HW216218   5.468   6.235   8.089 -0.1613  0.9984 -0.7234
 3205SOL     OW16219   0.560   0.429   4.768 -0.0788 -0.1023 -0.2055
 3205SOL    HW116220   0.487   0.398   4.715 -0.8604  1.3821 -0.0254
 3205SOL    HW216221   0.638   0.410   4.715 -0.6755 -0.5479 -0.9403
 3206SOL     OW16222  12.374   9.124  12.627  0.2172  0.6252 -0.1986
 3206SOL    HW116223  12.322   9.049  12.657 -0.0660  2.1325  3.6463
 3206SOL    HW216224  12.312   9.177  12.576 -0.5661 -0.0654  0.0034
 3207SOL     OW16225  11.002   5.621   3.630 -0.2117 -0.3227 -0.2144
 3207SOL    HW116226  11.024   5.709   3.599  0.3517 -0.7232 -0.9735
 3207SOL    HW216227  10.993   5.569   3.551 -0.1355 -1.0490  0.2432
 3208SOL     OW16228   1.094   6.280  12.403 -0.4413 -0.2457 -0.4433
 3208SOL    HW116229   1.010   6.321  12.426 -1.7924 -2.2924 -1.4187
 3208SOL    HW216230   1.083   6.252  12.313  1.6312  0.1083 -0.8637
 3209SOL     OW16231   2.080   9.070  12.016  0.3573  0.1711  0.3347
 3209SOL    HW116232   2.107   8.991  11.969  0.8380  0.8318 -0.5385
 3209SOL    HW216233   2.115   9.059  12.104 -1.3072 -1.4914  0.8428
 3210SOL     OW16234  12.451   1.717   8.162 -0.2323  0.0852  0.1787
 3210SOL    HW116235  12.436   1.672   8.079  1.9194 -0.4416  0.0153
 3210SOL    HW216236  12.364   1.724   8.201 -1.0187 -1.6552 -1.1010
 3211SOL     OW16237  10.260   6.612   8.039 -0.5655  0.4482  0.2704
 3211SOL    HW116238  10.192   6.678   8.025 -2.1180 -1.1950 -0.3978
 3211SOL    HW216239  10.220   6.550   8.100  0.4212 -0.4671  0.0167
 3212SOL     OW16240   1.487   6.406   8.381 -0.1558 -0.7311 -0.1270
 3212SOL    HW116241   1.449   6.433   8.465 -1.0066 -0.6021 -0.5426
 3212SOL    HW216242   1.412   6.385   8.326  0.3262  0.6537 -1.3631
 3213SOL     OW16243   7.620   3.847  11.170  0.4211 -0.1372 -0.2235
 3213SOL    HW116244   7.714   3.864  11.168  0.2553  1.8366  2.8851
 3213SOL    HW216245   7.607   3.793  11.248 -1.2361  1.8051  0.9322
 3214SOL     OW16246   6.950   7.055   0.613  0.3030 -0.2661  0.2760
 3214SOL    HW116247   6.975   7.147   0.607  0.3377 -0.2775  0.2457
 3214SOL    HW216248   7.023   7.008   0.573 -1.2311 -0.1252 -2.9350
 3215SOL     OW16249   5.712   4.698   6.332 -0.4207  0.2041 -0.2213
 3215SOL    HW116250   5.709   4.616   6.382  1.8834  0.6850  0.8249
 3215SOL    HW216251   5.775   4.753   6.379  0.0391  1.6023 -2.3264
 3216SOL     OW16252  10.840   8.931   3.941 -0.1238 -0.0311  0.1339
 3216SOL    HW116253  10.913   8.962   3.995  0.1301 -0.2308 -0.0947
 3216SOL    HW216254  10.866   8.843   3.913 -0.6414 -0.2687  0.4002
 3217SOL     OW16255  12.629   2.549   8.109 -0.7592  0.0466  0.0087
 3217SOL    HW116256  12.599   2.552   8.200  0.3188 -0.3939  0.3957
 3217SOL    HW216257  12.606   2.634   8.073 -0.0166  0.7242  1.0843
 3218SOL     OW16258   1.168   2.789   0.664  0.0679 -0.0110 -0.2890
 3218SOL    HW116259   1.214   2.839   0.732 -1.1754  0.2466  0.4137
 3218SOL    HW216260   1.235   2.767   0.600  1.1007  0.5509  0.5648
 3219SOL     OW16261   3.763   3.005   0.605  0.1662 -0.4906  0.3353
 3219SOL    HW116262   3.833   3.000   0.670 -0.0094  1.1199  0.7027
 3219SOL    HW216263   3.789   3.079   0.549 -0.3082 -1.0647 -0.6720
 3220SOL     OW16264   1.387   6.880   3.851 -0.1789  0.4128  0.0319
 3220SOL    HW116265   1.427   6.822   3.787  0.3539  1.6719 -0.8028
 3220SOL    HW216266   1.293   6.863   3.843 -0.0459 -0.1552 -0.3613
 3221SOL     OW16267   4.641   3.903   4.785 -0.1030  0.2371 -0.3879
 3221SOL    HW116268   4.730   3.890   4.819 -0.7315 -0.6612  1.0455
 3221SOL    HW216269   4.644   3.987   4.739  1.2419  0.7011  0.4947
 3222SOL     OW16270   8.147   6.971   9.118 -0.0858  0.3971  0.6692
 3222SOL    HW116271   8.234   6.932   9.131 -0.6432 -1.0368  0.2568
 3222SOL    HW216272   8.130   7.018   9.199  0.0415 -1.3799  1.7819
 3223SOL     OW16273   2.754   5.775   4.739 -0.4088  0.9365  0.1221
 3223SOL    HW116274   2.834   5.727   4.720  0.3599  0.4386  3.8196
 3223SOL    HW216275   2.771   5.864   4.706  1.5023  0.7421  0.4570
 3224SOL     OW16276  11.001   6.356   2.783 -0.1479  0.1401  0.1766
 3224SOL    HW116277  10.944   6.280   2.795  1.9406 -1.5618 -0.0029
 3224SOL    HW216278  11.063   6.329   2.715  0.3317  2.2387 -0.2944
 3225SOL     OW16279   6.907   2.586   4.424 -0.3015  1.0355 -0.0355
 3225SOL    HW116280   6.918   2.534   4.504  0.6650  0.7959 -0.3080
 3225SOL    HW216281   6.847   2.535   4.369  0.0153  0.5956  0.0265
 3226SOL     OW16282  10.152   5.107  10.504  0.7286 -0.3445 -0.6093
 3226SOL    HW116283  10.125   5.026  10.549 -0.5237  0.0447 -0.6060
 3226SOL    HW216284  10.237   5.086  10.466  1.6550 -0.8546  1.5454
 3227SOL     OW16285   8.546   6.973  12.757  0.4945  0.0590 -0.7570
 3227SOL    HW116286   8.620   6.995  12.701  0.5722  0.2837 -0.5689
 3227SOL    HW216287   8.517   7.057  12.792  0.1342 -0.0257 -0.8507
 3228SOL     OW16288  11.969   8.151   3.020  0.0452 -0.1991 -0.2901
 3228SOL    HW116289  12.059   8.125   2.998  0.0489  0.0168 -0.5260
 3228SOL    HW216290  11.977   8.190   3.107  0.1585 -0.2923 -0.2566
 3229SOL     OW16291   1.311   5.665   3.719 -0.5623  0.1136 -0.1655
 3229SOL    HW116292   1.300   5.692   3.810 -0.1946  1.7019 -0.5668
 3229SOL    HW216293   1.222   5.649   3.688 -0.7527  0.3628  0.2430
 3230SOL     OW16294   0.674   1.772  10.896  0.4230  0.7325 -0.2722
 3230SOL    HW116295   0.654   1.686  10.858  3.3529 -0.3343  0.3896
 3230SOL    HW216296   0.674   1.832  10.821 -3.3029  0.6330 -0.5441
 3231SOL     OW16297   9.910   0.697  10.622 -0.2189 -0.2680 -0.1072
 3231SOL    HW116298   9.816   0.717  10.628  0.1874  1.6581  0.6761
 3231SOL    HW216299   9.931   0.655  10.706 -0.3790 -0.6962 -0.2809
 3232SOL     OW16300   4.785  10.454  10.600  0.0069 -0.3126  0.3342
 3232SOL    HW116301   4.717  10.398  10.564  0.1885 -1.8367  2.2111
 3232SOL    HW216302   4.865  10.424  10.557 -0.0384 -0.8399  0.6112
 3233SOL     OW16303   0.866   7.276   9.803  0.3485 -0.3254  0.3565
 3233SOL    HW116304   0.817   7.301   9.724 -2.5575 -1.1684  1.7687
 3233SOL    HW216305   0.852   7.182   9.811  0.4392 -0.2247  1.9523
 3234SOL     OW16306   2.920  10.640   3.018 -0.4029  0.2308  0.1119
 3234SOL    HW116307   2.848  10.702   3.000  1.8148  2.7005 -0.9084
 3234SOL    HW216308   2.933  10.645   3.112 -1.6849 -0.4635  0.3565
 3235SOL     OW16309   5.977  10.415   5.643 -0.2746 -0.1891  0.0377
 3235SOL    HW116310   5.896  10.459   5.665 -0.3690 -0.6512  0.6258
 3235SOL    HW216311   5.956  10.321   5.647 -1.2296 -0.5166 -5.1265
 3236SOL     OW16312   6.644   9.028   9.301 -0.0016  0.1634 -0.5375
 3236SOL    HW116313   6.718   9.087   9.290 -0.0111  0.0957 -0.9847
 3236SOL    HW216314   6.650   8.968   9.227 -0.1653 -0.2085 -0.2495
 3237SOL     OW16315   0.194  12.394   6.979 -0.3031 -0.0171 -0.0670
 3237SOL    HW116316   0.257  12.447   7.028 -1.0056  0.2868  0.5307
 3237SOL    HW216317   0.227  12.304   6.988  0.3055  0.1899 -0.1719
 3238SOL     OW16318  12.454   4.250   9.762 -1.1729  0.6289 -0.0449
 3238SOL    HW116319  12.408   4.231   9.681 -0.5110 -1.4147 -0.0059
 3238SOL    HW216320  12.466   4.165   9.804  1.2123  1.2332  0.7096
 3239SOL     OW16321   3.959   3.817   0.494 -0.4098 -0.5340 -0.3503
 3239SOL    HW116322   3.981   3.910   0.502 -1.9589 -0.2797  1.8653
 3239SOL    HW216323   3.936   3.806   0.402 -2.9267  2.0020 -0.1467
 3240SOL     OW16324   1.516   1.442   9.727 -0.1779 -0.2578 -0.2371
 3240SOL    HW116325   1.467   1.438   9.644 -1.9087  1.4749  0.6169
 3240SOL    HW216326   1.518   1.535   9.749  3.2350 -0.2661  0.0368
 3241SOL     OW16327   9.690  11.992  11.824 -0.5534  0.7862  0.2142
 3241SOL    HW116328   9.661  12.008  11.734 -0.8530 -0.3234  0.0911
 3241SOL    HW216329   9.655  12.065  11.875 -1.5737  0.6983 -0.3420
 3242SOL     OW16330   9.604   1.646   6.695 -0.6015  0.3134  0.1647
 3242SOL    HW116331   9.686   1.623   6.739 -0.5651  1.5826  0.8284
 3242SOL    HW216332   9.613   1.609   6.607 -0.6923 -2.3170  1.1717
 3243SOL     OW16333   6.503   2.659  11.454  0.2126  0.2900  0.1384
 3243SOL    HW116334   6.464   2.625  11.373 -0.4897 -0.8653  0.9477
 3243SOL    HW216335   6.438   2.642  11.521  0.3995  2.0606  0.8286
 3244SOL     OW16336   2.359   3.627  12.595  0.3113 -0.8842  0.1555
 3244SOL    HW116337   2.366   3.704  12.651 -1.9249  0.4006 -1.1853
 3244SOL    HW216338   2.297   3.569  12.640 -0.4242 -0.4659 -0.2986
 3245SOL     OW16339   0.128  12.595   0.170 -0.3502  0.1783  0.2888
 3245SOL    HW116340   0.111  12.558   0.083 -1.6516 -1.8481  1.3208
 3245SOL    HW216341   0.208  12.551   0.199 -1.7191 -1.7371  1.3852
 3246SOL     OW16342   0.892   9.556   2.891  0.7350  0.1510  0.3189
 3246SOL    HW116343   0.983   9.544   2.920  0.6969  0.1250  0.4254
 3246SOL    HW216344   0.879   9.489   2.824  1.0404  0.6464 -0.2518
 3247SOL     OW16345   6.239   7.240  10.751  0.1902 -0.4688  0.5027
 3247SOL    HW116346   6.199   7.327  10.750  2.4587  0.6405  0.1135
 3247SOL    HW216347   6.313   7.247  10.692  0.7897 -2.5045  0.9449
 3248SOL     OW16348   6.580   5.165   9.311  0.2788 -0.0408 -0.2604
 3248SOL    HW116349   6.556   5.185   9.221  0.0445  0.0683 -0.1763
 3248SOL    HW216350   6.563   5.247   9.359 -0.8358 -0.4639  0.1186
 3249SOL     OW16351   5.232  11.728   9.212 -0.2612 -0.1370  0.7361
 3249SOL    HW116352   5.265  11.749   9.299 -0.8084 -1.1202  1.1893
 3249SOL    HW216353   5.310  11.721   9.157  0.0825  0.5042  1.1287
 3250SOL     OW16354   9.322   7.605   9.246 -0.1001 -0.3487 -0.8062
 3250SOL    HW116355   9.295   7.657   9.171  2.1106  3.0002  0.5214
 3250SOL    HW216356   9.261   7.630   9.316  0.4405 -0.2205 -0.3807
 3251SOL     OW16357   2.453   9.188   7.178  0.1180 -0.3007  0.5397
 3251SOL    HW116358   2.507   9.191   7.099  0.8454  0.1113  1.0440
 3251SOL    HW216359   2.431   9.095   7.188 -0.1470 -0.3350 -0.2502
 3252SOL     OW16360   7.197  12.313   1.700  0.4406 -0.0058 -0.8268
 3252SOL    HW116361   7.252  12.375   1.747  0.3334  0.8511 -1.8007
 3252SOL    HW216362   7.256  12.243   1.673  0.4717 -0.6156  0.7103
 3253SOL     OW16363   9.855   8.809   5.353 -0.1693 -0.0449  0.0300
 3253SOL    HW116364   9.846   8.893   5.307 -1.4037 -0.0483  0.2300
 3253SOL    HW216365   9.933   8.820   5.408 -0.3742  1.0089  0.1348
 3254SOL     OW16366  10.858   4.681   2.012 -0.1090 -0.4496  0.1543
 3254SOL    HW116367  10.931   4.664   2.072  0.1589 -0.8844 -0.2913
 3254SOL    HW216368  10.779   4.667   2.066  0.1233  0.4152  0.7452
 3255SOL     OW16369   4.845   3.819   5.915  0.1375 -0.4472  0.5704
 3255SOL    HW116370   4.866   3.764   5.990  1.2478 -1.5154 -0.4808
 3255SOL    HW216371   4.860   3.763   5.838  1.9587  1.4485 -0.5782
 3256SOL     OW16372   8.374   8.210  10.882  0.1736  0.0678 -0.4113
 3256SOL    HW116373   8.454   8.226  10.933 -0.9950 -0.6692  1.8191
 3256SOL    HW216374   8.364   8.288  10.828  0.8395  1.5306  1.4646
 3257SOL     OW16375  11.903  10.662  12.679 -0.5839 -0.1130 -0.3747
 3257SOL    HW116376  11.986  10.614  12.683 -1.2238 -1.5107 -2.2499
 3257SOL    HW216377  11.846  10.606  12.626 -2.3891  1.3091 -0.0151
 3258SOL     OW16378   1.378  10.801   9.161  0.8200 -0.0001 -0.0859
 3258SOL    HW116379   1.297  10.817   9.209  1.1516 -1.6114  1.1112
 3258SOL    HW216380   1.378  10.706   9.146  1.9403  0.1341 -1.0823
 3259SOL     OW16381  10.256  10.635   5.518  0.1297 -0.2631  0.1929
 3259SOL    HW116382  10.164  10.617   5.534 -0.1354  0.0517 -0.8940
 3259SOL    HW216383  10.299  10.550   5.526 -0.2528 -0.4158  0.6785
 3260SOL     OW16384   9.332   1.319   0.113  0.3716  0.1650 -0.1889
 3260SOL    HW116385   9.378   1.281   0.038 -1.3394 -0.4463 -0.9768
 3260SOL    HW216386   9.329   1.413   0.095 -1.2473 -0.1153 -1.6567
 3261SOL     OW16387   9.780   6.525   2.762  0.2330  0.1807  0.0933
 3261SOL    HW116388   9.804   6.618   2.753 -1.7655  0.5615 -3.1599
 3261SOL    HW216389   9.685   6.526   2.770 -0.0874 -1.5458 -2.2119
 3262SOL     OW16390  12.586   9.401   6.693 -0.0097 -0.2807 -0.0065
 3262SOL    HW116391  12.491   9.391   6.679 -0.0281 -0.2155  0.0650
 3262SOL    HW216392  12.593   9.478   6.749  0.0651 -0.4916  0.2748
 3263SOL     OW16393  12.723   2.895   1.102 -0.2082 -0.2360  0.2520
 3263SOL    HW116394  12.673   2.976   1.092 -0.3339 -0.0999  1.8347
 3263SOL    HW216395  12.672   2.830   1.054  0.1578  0.6859 -1.5017
 3264SOL     OW16396   2.660   9.264   2.793 -0.7484 -0.4959  0.2187
 3264SOL    HW116397   2.689   9.241   2.705 -0.7656  0.1434  0.0384
 3264SOL    HW216398   2.565   9.277   2.785 -0.8711 -1.1800  0.4989
 3265SOL     OW16399   5.974  12.129   0.072  0.0214  0.1768  0.1367
 3265SOL    HW116400   5.993  12.042   0.107 -0.7250 -0.2590 -0.5031
 3265SOL    HW216401   6.000  12.189   0.142  0.7085 -0.5477  0.5214
 3266SOL     OW16402   6.100  11.174  11.363  0.4952  0.0809 -0.0444
 3266SOL    HW116403   6.034  11.121  11.409  0.1030 -0.6340 -1.3868
 3266SOL    HW216404   6.055  11.256  11.344  0.5616  0.2646  0.5610
 3267SOL     OW16405   6.440   5.656   6.480  0.0486 -0.2760 -0.4621
 3267SOL    HW116406   6.390   5.653   6.562  0.0413 -0.5674 -0.4784
 3267SOL    HW216407   6.514   5.715   6.500 -0.4201  0.3352 -0.5099
 3268SOL     OW16408   5.374  11.218   8.414  0.4351 -0.0025  0.3226
 3268SOL    HW116409   5.397  11.167   8.492 -1.9213 -1.9894 -0.1739
 3268SOL    HW216410   5.363  11.153   8.345 -0.9114  1.3585 -0.8090
 3269SOL     OW16411   4.113  10.253   0.951  0.2257  0.1075 -0.2046
 3269SOL    HW116412   4.194  10.205   0.934  1.2227  1.5250  0.3950
 3269SOL    HW216413   4.090  10.229   1.041  0.0529 -0.1647 -0.3183
 3270SOL     OW16414   3.790   4.504   2.829 -0.1187  0.6097 -0.0511
 3270SOL    HW116415   3.727   4.451   2.877 -0.0132 -0.1280 -0.7181
 3270SOL    HW216416   3.874   4.461   2.842 -0.0390  0.5791 -0.6338
 3271SOL     OW16417  10.349   0.279   9.642  0.6916  0.6806  0.5636
 3271SOL    HW116418  10.296   0.286   9.721 -0.8352 -0.1292 -0.3364
 3271SOL    HW216419  10.330   0.359   9.593  1.3708  1.0231  0.8541
 3272SOL     OW16420   9.287  12.449   1.283 -0.1929 -0.0877 -0.5342
 3272SOL    HW116421   9.311  12.486   1.368 -0.2803  1.1550 -1.0329
 3272SOL    HW216422   9.293  12.523   1.222 -2.3253 -0.4269 -1.2251
 3273SOL     OW16423  12.043  11.379   8.486 -0.0263  0.4579  0.1324
 3273SOL    HW116424  11.994  11.315   8.537 -1.4114 -0.0843 -1.7463
 3273SOL    HW216425  12.134  11.369   8.514 -0.0685 -2.8477 -0.5303
 3274SOL     OW16426   2.888   0.553  12.707 -0.0232 -0.2577 -0.3114
 3274SOL    HW116427   2.857   0.474  12.751  1.2152 -0.0856  0.9249
 3274SOL    HW216428   2.889   0.530  12.614 -0.9355 -1.2396 -0.1016
 3275SOL     OW16429  11.454   5.133   3.565  0.2290  0.0114 -0.3361
 3275SOL    HW116430  11.518   5.203   3.572  0.3249 -0.1424  0.4202
 3275SOL    HW216431  11.378   5.165   3.615  0.8007 -0.9882  1.2649
 3276SOL     OW16432   7.076   5.408   4.889  0.2716  0.2580  0.5781
 3276SOL    HW116433   7.109   5.448   4.969 -0.2480 -0.6773  1.2790
 3276SOL    HW216434   6.981   5.409   4.899  0.1914  0.3575 -0.1412
 3277SOL     OW16435   1.179   5.854   5.327  0.4615 -0.5805 -1.1068
 3277SOL    HW116436   1.123   5.931   5.326 -1.5899 -1.9397  0.6245
 3277SOL    HW216437   1.231   5.862   5.407  1.2143 -0.3557 -1.6122
 3278SOL     OW16438   5.977  11.232   8.905 -0.0337  0.0643  0.3413
 3278SOL    HW116439   5.943  11.294   8.841  1.1068 -1.5996 -2.0190
 3278SOL    HW216440   6.055  11.275   8.941 -1.3734  1.5371  1.6650
 3279SOL     OW16441   9.462   8.248   0.735 -0.0227 -0.1224  0.2222
 3279SOL    HW116442   9.528   8.239   0.804  0.6568 -1.6725 -0.5838
 3279SOL    HW216443   9.385   8.284   0.780  0.5745 -0.5817  1.6769
 3280SOL     OW16444  11.245  12.030   2.788 -0.1498  0.2993  0.2258
 3280SOL    HW116445  11.241  11.937   2.768  0.3523  0.3807 -0.2992
 3280SOL    HW216446  11.173  12.045   2.849 -0.9357 -0.2109 -0.5625
 3281SOL     OW16447   3.185   3.870   3.715  0.3408  0.2255 -0.3104
 3281SOL    HW116448   3.161   3.936   3.649  0.0253  1.5704  1.0908
 3281SOL    HW216449   3.267   3.901   3.752  0.2727 -0.2534  0.2657
 3282SOL     OW16450   2.763   8.400   3.443  0.3710  0.7287  0.2482
 3282SOL    HW116451   2.759   8.380   3.536 -0.3646 -2.1677 -0.3125
 3282SOL    HW216452   2.675   8.431   3.421  0.1493  0.1483  0.2936
 3283SOL     OW16453   7.358   5.814   0.015 -0.3251 -0.4226 -0.0543
 3283SOL    HW116454   7.293   5.745   0.029  0.9963 -1.4522  1.5565
 3283SOL    HW216455   7.316   5.894   0.047 -0.2234 -1.4051  2.9164
 3284SOL     OW16456  11.485  12.314   5.030 -0.1962  0.1525 -0.4147
 3284SOL    HW116457  11.581  12.312   5.026 -0.1459  0.5567  0.4014
 3284SOL    HW216458  11.465  12.302   5.122 -0.9672 -0.6992 -0.6757
 3285SOL     OW16459   7.971   5.535  11.276 -0.3970  0.4663 -0.2330
 3285SOL    HW116460   7.966   5.444  11.306 -3.0417 -0.0920 -2.0009
 3285SOL    HW216461   7.956   5.587  11.355  1.8195 -0.5251  0.9253
 3286SOL     OW16462  11.817   9.290   8.251 -0.2426  0.5332  0.2220
 3286SOL    HW116463  11.770   9.372   8.265 -0.2516  0.3951  1.0462
 3286SOL    HW216464  11.830   9.254   8.339  0.4388  0.0277 -0.0762
 3287SOL     OW16465   8.061   8.052   0.689 -0.5445  0.5998 -0.3958
 3287SOL    HW116466   7.999   8.046   0.617 -1.5394 -0.7919  0.5248
 3287SOL    HW216467   8.010   8.089   0.761 -0.8555 -2.0699  0.8732
 3288SOL     OW16468   2.703   3.106   2.154  0.2556  0.1864 -0.0363
 3288SOL    HW116469   2.620   3.088   2.109  0.1666  0.6790 -0.0799
 3288SOL    HW216470   2.717   3.200   2.140  0.9401  0.0567 -0.2268
 3289SOL     OW16471   2.061  12.134  11.123  0.1176  0.1660  0.1443
 3289SOL    HW116472   2.057  12.226  11.095  0.1982 -0.4073 -1.9317
 3289SOL    HW216473   2.025  12.085  11.049 -0.2047 -1.4797  1.3322
 3290SOL     OW16474   2.902   1.841   6.993  0.2606 -0.5062  0.3394
 3290SOL    HW116475   2.845   1.911   7.022  0.8249  0.3429 -0.5507
 3290SOL    HW216476   2.864   1.762   7.031 -1.2641  0.0810  0.1124
 3291SOL     OW16477   2.090   8.620   8.204  0.2436 -0.3522  0.2235
 3291SOL    HW116478   2.029   8.611   8.130 -0.6403 -0.5427  0.9514
 3291SOL    HW216479   2.171   8.653   8.165 -0.4885  0.4026 -0.7015
 3292SOL     OW16480   4.795   3.129   4.146  0.5007  0.4287  0.1184
 3292SOL    HW116481   4.851   3.110   4.221  0.5667 -0.5898 -0.1802
 3292SOL    HW216482   4.820   3.065   4.080 -0.9062  0.0525 -0.0810
 3293SOL     OW16483   0.036   3.025   1.571  0.2900  0.4159 -0.4527
 3293SOL    HW116484   0.092   3.007   1.496 -1.2231  2.1286 -2.1167
 3293SOL    HW216485   0.002   2.940   1.597  1.3669 -0.2904 -1.2749
 3294SOL     OW16486  10.671   6.553  10.667 -0.0645 -0.1638 -0.0093
 3294SOL    HW116487  10.707   6.528  10.582 -1.1471 -1.2047 -0.1786
 3294SOL    HW216488  10.590   6.600  10.646  0.0293  0.2077  0.4358
 3295SOL     OW16489   5.836   1.484   5.778 -0.8571  0.1519 -0.2709
 3295SOL    HW116490   5.898   1.529   5.836  0.9703 -3.3385  0.7819
 3295SOL    HW216491   5.781   1.432   5.837  0.6539 -3.0309 -1.3802
 3296SOL     OW16492   2.830  10.045   5.795 -0.2497 -0.2894 -0.0776
 3296SOL    HW116493   2.812  10.139   5.791 -0.4085 -0.3086  0.1587
 3296SOL    HW216494   2.910  10.034   5.744  0.1955  0.0828  0.5341
 3297SOL     OW16495   5.067   9.478   5.567  0.5047 -0.6828  1.3894
 3297SOL    HW116496   5.103   9.443   5.649  1.4519  1.9555  2.2328
 3297SOL    HW216497   5.123   9.443   5.499  0.9089 -1.4051  2.0773
 3298SOL     OW16498   0.384  11.376   0.220  0.6439 -0.1862 -0.2537
 3298SOL    HW116499   0.336  11.347   0.297 -1.3828 -0.4800 -1.5338
 3298SOL    HW216500   0.439  11.302   0.196 -1.0710 -1.3172 -0.8612
 3299SOL     OW16501   8.108   2.125   5.330 -0.6032  0.1602  0.6087
 3299SOL    HW116502   8.068   2.128   5.243  0.4850 -1.5492  0.0010
 3299SOL    HW216503   8.173   2.056   5.324 -0.7755 -0.2737  2.9147
 3300SOL     OW16504   1.174   2.450   2.139  0.8254 -0.3550 -0.2795
 3300SOL    HW116505   1.177   2.356   2.157 -0.3365 -0.3295  0.1976
 3300SOL    HW216506   1.214   2.460   2.053  0.2633 -1.3950 -0.6812
 3301SOL     OW16507   8.103   7.009   0.606  0.3103 -0.3200  0.3552
 3301SOL    HW116508   8.145   7.079   0.557 -0.6524 -0.9189 -1.4230
 3301SOL    HW216509   8.128   6.929   0.560  1.0949 -1.1473  2.1302
 3302SOL     OW16510   0.351   3.813   4.578 -0.3020 -0.1364  0.3421
 3302SOL    HW116511   0.357   3.816   4.674 -1.8468 -0.0983  0.4565
 3302SOL    HW216512   0.260   3.835   4.559 -0.1595 -0.7354 -1.1211
 3303SOL     OW16513   7.403   6.448   2.417  0.7179 -0.6189 -0.2521
 3303SOL    HW116514   7.445   6.369   2.383  1.7599  0.8073 -2.5788
 3303SOL    HW216515   7.401   6.508   2.342  1.9917  2.3601  1.8675
 3304SOL     OW16516  10.910   3.472   9.462  0.2225 -0.1249 -0.3930
 3304SOL    HW116517  10.936   3.418   9.537  0.3003  0.4825  0.0266
 3304SOL    HW216518  10.949   3.429   9.387 -1.2881 -1.7460 -0.3221
 3305SOL     OW16519   9.787   0.696  11.940  0.4594 -0.0355 -0.6763
 3305SOL    HW116520   9.877   0.719  11.961 -0.2233  2.8139 -0.4610
 3305SOL    HW216521   9.752   0.660  12.021  0.8663  0.7400 -0.1364
 3306SOL     OW16522   1.208   6.360   0.634  0.4650  0.7038  0.1619
 3306SOL    HW116523   1.223   6.425   0.566 -0.0776 -0.9752 -1.6573
 3306SOL    HW216524   1.294   6.321   0.650  0.1124 -1.1404 -2.0203
 3307SOL     OW16525   7.439  11.696   2.521  0.2991 -0.5791  0.2645
 3307SOL    HW116526   7.413  11.788   2.526 -0.6730 -0.8767  1.1242
 3307SOL    HW216527   7.450  11.680   2.428  0.8344  0.4944  0.1225
 3308SOL     OW16528   6.751   2.739   6.640 -0.7813 -0.6960 -0.6383
 3308SOL    HW116529   6.739   2.664   6.581 -0.3603 -1.2373 -0.0566
 3308SOL    HW216530   6.742   2.701   6.728  0.4447 -0.2689 -0.3075
 3309SOL     OW16531   1.741   2.743   5.079  0.1206  0.2739  0.8397
 3309SOL    HW116532   1.764   2.650   5.076 -0.1252  0.1331  2.2888
 3309SOL    HW216533   1.784   2.782   5.003  1.3132 -0.8040  0.9385
 3310SOL     OW16534   9.099   9.755  10.117 -0.4653 -0.6738  0.2240
 3310SOL    HW116535   9.189   9.786  10.123 -0.9161  0.8149 -0.2426
 3310SOL    HW216536   9.060   9.808  10.047 -1.5915 -1.5669  0.1473
 3311SOL     OW16537   6.288   3.901   0.972  0.5777 -0.1419  0.4297
 3311SOL    HW116538   6.364   3.937   1.019  1.2920  0.9836 -1.4728
 3311SOL    HW216539   6.296   3.807   0.983  2.6985 -0.1006 -0.3154
 3312SOL     OW16540   2.884   5.388  12.192 -0.4140  0.0585 -0.6520
 3312SOL    HW116541   2.900   5.420  12.281 -1.9933  1.1840 -0.7185
 3312SOL    HW216542   2.924   5.301  12.190  1.0188  0.6358  0.6503
 3313SOL     OW16543   2.913   3.753   5.982  0.0996  0.0936 -0.1574
 3313SOL    HW116544   2.927   3.823   5.919  1.0298 -0.0261 -0.0879
 3313SOL    HW216545   2.916   3.673   5.930 -1.8744  0.1079 -0.3939
 3314SOL     OW16546   8.689   3.204   2.709 -0.0338  0.0394  0.0783
 3314SOL    HW116547   8.643   3.144   2.650  2.0104  0.7244 -2.3246
 3314SOL    HW216548   8.778   3.209   2.675  0.7893  1.8357  2.2428
 3315SOL     OW16549  10.781   0.766  10.081 -0.2847  0.2662  0.1859
 3315SOL    HW116550  10.762   0.860  10.079  3.2600  1.1797  1.4821
 3315SOL    HW216551  10.804   0.745   9.991 -1.3079  0.5344 -0.1591
 3316SOL     OW16552   5.015   5.857   7.495 -0.1629 -0.7387 -0.0613
 3316SOL    HW116553   4.951   5.790   7.469  0.9502 -2.8323  2.1020
 3316SOL    HW216554   4.996   5.873   7.588 -0.3477  2.0064 -0.4855
 3317SOL     OW16555   5.395  11.805   5.450  0.1582 -0.5026  0.1714
 3317SOL    HW116556   5.419  11.882   5.501  0.1706  1.2464 -2.2775
 3317SOL    HW216557   5.305  11.823   5.420  0.8778 -0.3772 -2.1187
 3318SOL     OW16558   7.565  12.031   8.630 -0.2297 -0.0384  0.1590
 3318SOL    HW116559   7.629  12.048   8.699  0.1733 -0.3670 -0.1268
 3318SOL    HW216560   7.480  12.035   8.674  0.0721 -1.3199  0.9073
 3319SOL     OW16561   8.450   9.656  12.667 -0.7033  0.1343 -0.2874
 3319SOL    HW116562   8.362   9.651  12.630 -0.0488 -0.7261 -1.8295
 3319SOL    HW216563   8.507   9.624  12.597  0.6638 -1.0042  1.2695
 3320SOL     OW16564   0.995   5.711   9.478  0.3212 -0.2991  0.3320
 3320SOL    HW116565   1.024   5.620   9.465  0.1929 -0.2618 -0.2462
 3320SOL    HW216566   0.931   5.725   9.408  2.1882  1.0516 -1.2069
 3321SOL     OW16567   6.365   3.494   2.757  0.2007 -0.1206 -0.1397
 3321SOL    HW116568   6.357   3.465   2.848  0.6269  2.6458  0.8879
 3321SOL    HW216569   6.460   3.494   2.740  0.3936  2.1338  0.5261
 3322SOL     OW16570   6.486   5.250   3.640  0.4420 -0.0267  0.2366
 3322SOL    HW116571   6.410   5.300   3.610  1.3304  1.9539  1.1249
 3322SOL    HW216572   6.550   5.316   3.664  1.1725 -1.5460  2.8373
 3323SOL     OW16573   5.084   7.666   0.741 -0.0118  0.1121  0.6647
 3323SOL    HW116574   4.990   7.657   0.756 -0.1433  0.9797  0.4543
 3323SOL    HW216575   5.125   7.612   0.808 -0.6657 -1.4464 -0.1266
 3324SOL     OW16576   0.798   1.833   2.043  0.2987  0.1245  0.2514
 3324SOL    HW116577   0.872   1.776   2.066  0.1902 -0.0701  0.1220
 3324SOL    HW216578   0.776   1.878   2.124 -0.0435 -0.5063  0.5140
 3325SOL     OW16579   2.501   7.805   5.559  0.6862  0.2128  0.1819
 3325SOL    HW116580   2.592   7.794   5.529 -0.0250 -1.2395 -1.6058
 3325SOL    HW216581   2.456   7.842   5.484 -0.3415  0.3867  0.8682
 3326SOL     OW16582  10.609   3.252  10.318 -0.4375 -0.0246  0.0410
 3326SOL    HW116583  10.639   3.245  10.227  0.1068 -1.3000  0.2937
 3326SOL    HW216584  10.689   3.266  10.369 -0.8204  1.5284  0.2787
 3327SOL     OW16585  12.197   8.828  11.229  0.2302  0.9445  0.6524
 3327SOL    HW116586  12.291   8.812  11.232  0.2653  0.2790 -1.7782
 3327SOL    HW216587  12.187   8.901  11.168 -0.9027 -0.1435 -0.5309
 3328SOL     OW16588   5.919   5.909   4.274 -0.1998 -0.2205  0.6874
 3328SOL    HW116589   5.965   5.874   4.198 -1.2384  2.0454 -1.0800
 3328SOL    HW216590   5.937   5.845   4.343  0.4929 -2.5924 -1.5070
 3329SOL     OW16591   2.472  12.504   2.123  0.1314 -0.2697  0.2276
 3329SOL    HW116592   2.552  12.485   2.172 -1.4511 -0.7422  2.7721
 3329SOL    HW216593   2.468  12.599   2.120  0.5382 -0.2396  0.5006
 3330SOL     OW16594   3.774   9.079   5.383 -0.3437  0.0085  0.4018
 3330SOL    HW116595   3.721   9.157   5.367  1.6499  1.8133  1.9976
 3330SOL    HW216596   3.858   9.098   5.343  0.0740 -1.5444  0.4600
 3331SOL     OW16597   2.121   9.186   6.020  0.1161 -0.8236  0.8979
 3331SOL    HW116598   2.167   9.234   5.951 -0.3257  0.3771  1.3958
 3331SOL    HW216599   2.133   9.094   5.999  1.7016 -0.5109  0.3476
 3332SOL     OW16600   5.597   8.135   4.939  0.2978  0.5243 -0.4015
 3332SOL    HW116601   5.518   8.187   4.956 -1.4654 -1.4966 -1.9016
 3332SOL    HW216602   5.578   8.049   4.976  2.9804  0.6693  1.6729
 3333SOL     OW16603   6.382   1.978   3.497 -0.0939  0.1800  0.1709
 3333SOL    HW116604   6.425   2.037   3.435  0.6928  0.7825  1.2392
 3333SOL    HW216605   6.423   1.893   3.482  1.6992  0.7710  1.2767
 3334SOL     OW16606   4.237  11.372  12.159  0.0837  0.2985  0.5242
 3334SOL    HW116607   4.145  11.395  12.150  0.5154  2.6056  1.2817
 3334SOL    HW216608   4.239  11.302  12.223 -1.0993  0.6186  0.9286
 3335SOL     OW16609   6.331   0.104  11.469 -0.4434 -0.3935 -0.1853
 3335SOL    HW116610   6.369   0.024  11.431  0.9436  0.6541 -1.0880
 3335SOL    HW216611   6.346   0.095  11.563 -1.2076 -1.6408 -0.1547
 3336SOL     OW16612   1.059   9.518  12.122  0.2796 -0.2081  0.4806
 3336SOL    HW116613   1.036   9.556  12.037 -1.6218 -1.1083  0.5546
 3336SOL    HW216614   1.070   9.594  12.180  1.6297  0.4160 -0.5312
 3337SOL     OW16615   1.811   8.381   3.520 -0.3145  0.1485 -0.6348
 3337SOL    HW116616   1.855   8.424   3.447  0.6447 -0.1763 -0.2614
 3337SOL    HW216617   1.835   8.288   3.511  0.4208  0.2090  0.5082
 3338SOL     OW16618   3.162  12.451   4.314  0.5496  0.1476 -0.1713
 3338SOL    HW116619   3.216  12.518   4.355 -0.7096  0.9522  0.2162
 3338SOL    HW216620   3.144  12.485   4.227  1.5540 -0.6424 -0.7226
 3339SOL     OW16621   7.147   2.932   0.644  0.3023  0.2673 -0.1476
 3339SOL    HW116622   7.173   3.019   0.674 -1.3544  1.2517 -1.3886
 3339SOL    HW216623   7.168   2.931   0.551  0.6386 -0.8180 -0.0801
 3340SOL     OW16624   7.664   1.628  10.338 -0.3673 -0.5383  0.0018
 3340SOL    HW116625   7.731   1.596  10.278  0.0544  1.9366 -0.9417
 3340SOL    HW216626   7.582   1.592  10.304  0.1793 -1.5614 -0.2754
 3341SOL     OW16627  10.106   3.144  10.001 -0.1043 -0.0523  0.6882
 3341SOL    HW116628  10.062   3.121  10.082 -0.2905  1.4171  1.0397
 3341SOL    HW216629  10.036   3.174   9.943  0.0116 -1.2037 -0.0749
 3342SOL     OW16630   5.417   4.618   8.039 -0.7172  0.1685  0.0867
 3342SOL    HW116631   5.448   4.658   8.121  1.8458 -0.5219 -0.4671
 3342SOL    HW216632   5.449   4.528   8.042 -1.2976 -0.1158 -1.3211
 3343SOL     OW16633  11.593   1.023  11.192  0.3974 -0.2569  0.0756
 3343SOL    HW116634  11.564   1.081  11.262  0.2219 -1.2330  0.8303
 3343SOL    HW216635  11.516   0.969  11.172  0.0526  0.8477 -1.7615
 3344SOL     OW16636   2.350   3.271   1.995 -0.0388  0.3022  0.0978
 3344SOL    HW116637   2.349   3.214   1.918 -1.0925 -1.8532  1.5930
 3344SOL    HW216638   2.317   3.355   1.964 -1.3005 -0.7686 -1.6083
 3345SOL     OW16639   3.639  12.396  12.635 -0.0636  0.6958 -0.6174
 3345SOL    HW116640   3.583  12.363  12.706 -0.3010  1.1697 -0.5769
 3345SOL    HW216641   3.726  12.362  12.655 -0.2320  0.3878 -0.3894
 3346SOL     OW16642  11.640   8.368  11.142 -0.4102 -0.6870 -0.4629
 3346SOL    HW116643  11.704   8.425  11.097 -0.4352  0.2483  0.6524
 3346SOL    HW216644  11.593   8.427  11.200  0.5852 -2.0815  1.8772
 3347SOL     OW16645   5.009   9.840   5.921 -0.5822 -0.7970 -0.2024
 3347SOL    HW116646   4.967   9.791   5.850 -2.4046 -2.2061  1.7280
 3347SOL    HW216647   5.095   9.799   5.930 -0.1419 -0.3081 -1.8304
 3348SOL     OW16648   9.682  12.128   1.623  0.2912 -0.1137  0.1053
 3348SOL    HW116649   9.696  12.038   1.594 -1.8018 -1.0472  1.6778
 3348SOL    HW216650   9.769  12.168   1.620  1.1670 -1.9380 -1.3154
 3349SOL     OW16651  10.452   5.876   2.154  0.2068  0.2282 -0.9917
 3349SOL    HW116652  10.512   5.876   2.229  1.9370 -1.0868 -2.2829
 3349SOL    HW216653  10.445   5.784   2.129 -0.9890  0.5594 -1.9674
 3350SOL     OW16654  10.689   4.137  12.603  0.6578  0.8604  0.0546
 3350SOL    HW116655  10.739   4.134  12.684  0.7022  1.6415  0.0657
 3350SOL    HW216656  10.599   4.121  12.629  0.4012  2.8794  0.5204
 3351SOL     OW16657   7.374   7.497   4.184 -0.4631  0.2637  0.2077
 3351SOL    HW116658   7.385   7.526   4.274  1.8208  1.6738 -0.4462
 3351SOL    HW216659   7.453   7.527   4.139 -0.6312 -2.0698 -1.8632
 3352SOL     OW16660   9.905  11.616   6.702 -0.1365  0.3021  0.0318
 3352SOL    HW116661   9.942  11.602   6.615  4.0602 -1.0624  1.7933
 3352SOL    HW216662   9.942  11.699   6.731 -1.5442  0.7746  0.5631
 3353SOL     OW16663   3.767   2.309   3.117 -0.0074 -0.5756 -0.6282
 3353SOL    HW116664   3.849   2.262   3.106  0.0716  0.1042 -3.5677
 3353SOL    HW216665   3.789   2.400   3.098 -0.5076  0.5799  3.3405
 3354SOL     OW16666   6.172   9.092  11.095 -0.6153  0.5637  0.3370
 3354SOL    HW116667   6.155   9.157  11.027  1.5934  1.2980  0.4048
 3354SOL    HW216668   6.194   9.012  11.046 -1.2578  0.4552  0.2242
 3355SOL     OW16669   7.787   2.299  12.268  0.1976  0.2524 -0.5681
 3355SOL    HW116670   7.808   2.372  12.326 -2.9442  0.6330  0.3192
 3355SOL    HW216671   7.751   2.339  12.190 -0.6601 -0.2938 -0.4722
 3356SOL     OW16672   0.382   8.937  11.746 -0.4650  0.0185 -0.2157
 3356SOL    HW116673   0.403   8.843  11.746 -0.7140 -0.0527  0.6183
 3356SOL    HW216674   0.292   8.941  11.780 -0.6632  0.5256 -0.7879
 3357SOL     OW16675   1.431   1.330   3.145  0.0752 -0.1288  0.0382
 3357SOL    HW116676   1.482   1.396   3.099  0.7514 -0.1713  0.7153
 3357SOL    HW216677   1.342   1.364   3.145 -0.0335 -0.3223 -1.6710
 3358SOL     OW16678   5.730   8.281   4.325 -0.5158  0.2147  0.0700
 3358SOL    HW116679   5.691   8.216   4.382  0.9003 -0.8065 -0.0609
 3358SOL    HW216680   5.692   8.264   4.239 -0.3790 -0.2577  0.1004
 3359SOL     OW16681   2.738   1.920   9.531  0.1038  0.0577 -0.2892
 3359SOL    HW116682   2.681   1.972   9.475 -0.5006 -0.3627 -0.0794
 3359SOL    HW216683   2.824   1.960   9.522 -0.3705  1.1857 -0.0140
 3360SOL     OW16684  10.808   8.574   0.463  0.7461  0.2378 -0.3495
 3360SOL    HW116685  10.846   8.487   0.448  1.1389  0.4957 -0.8577
 3360SOL    HW216686  10.766   8.567   0.549  2.2709  0.0573  0.4068
 3361SOL     OW16687   1.035   6.629   2.825 -0.1879  0.6599  0.0766
 3361SOL    HW116688   1.005   6.705   2.875 -0.2957  0.4326  0.3636
 3361SOL    HW216689   0.987   6.633   2.743 -0.7167  0.5148  0.3752
 3362SOL     OW16690   3.596   5.978   9.249  0.3278  0.0269  0.4857
 3362SOL    HW116691   3.513   5.949   9.286 -0.6236  1.5856 -0.3285
 3362SOL    HW216692   3.589   5.960   9.156  1.7290 -1.6128  0.6419
 3363SOL     OW16693   2.360   5.491  10.762  0.7129 -1.1344 -0.1024
 3363SOL    HW116694   2.368   5.395  10.765  0.3107 -1.2679 -2.1941
 3363SOL    HW216695   2.286   5.507  10.704 -0.2386  0.4546  1.4595
 3364SOL     OW16696   5.977  10.708  11.584 -0.1428 -0.3278  0.1702
 3364SOL    HW116697   5.969  10.800  11.558  0.1959 -0.5275 -0.6532
 3364SOL    HW216698   5.890  10.686  11.618 -0.6019 -0.0549 -0.7915
 3365SOL     OW16699   7.708  10.380   9.282 -0.7374 -0.1242  0.3593
 3365SOL    HW116700   7.656  10.397   9.361  0.9802  0.2440  1.4840
 3365SOL    HW216701   7.778  10.322   9.312 -0.0203  0.0656 -0.8894
 3366SOL     OW16702   2.168  12.168   4.186  0.3645 -0.1949  0.0850
 3366SOL    HW116703   2.190  12.209   4.269 -0.5081  2.6309 -0.9643
 3366SOL    HW216704   2.242  12.186   4.129 -0.3374  0.5857 -0.6024
 3367SOL     OW16705   2.747   8.190   8.224  0.5498  0.1611 -0.1161
 3367SOL    HW116706   2.666   8.201   8.273 -0.4588  4.6439 -2.2215
 3367SOL    HW216707   2.814   8.232   8.279  0.6500 -0.1155 -0.0260
 3368SOL     OW16708   5.821   5.688   1.533 -0.0041  0.1630 -0.5267
 3368SOL    HW116709   5.786   5.713   1.618 -1.4058 -0.1808 -0.9731
 3368SOL    HW216710   5.762   5.618   1.502  0.3407  0.4268 -1.8563
 3369SOL     OW16711   4.109  11.308   1.553 -0.4123  0.4902 -0.0697
 3369SOL    HW116712   4.067  11.224   1.536 -1.5684  0.8051  1.0849
 3369SOL    HW216713   4.197  11.284   1.584 -0.6836 -0.3001  0.1225
 3370SOL     OW16714   3.978  11.204   1.915  0.5018 -0.0463  0.2549
 3370SOL    HW116715   3.994  11.261   1.991  1.4798 -0.4945  0.3934
 3370SOL    HW216716   4.065  11.190   1.877  0.2572 -1.3481  0.1485
 3371SOL     OW16717   7.266   8.551   9.538  0.0434 -0.4657 -0.0047
 3371SOL    HW116718   7.263   8.645   9.555 -1.9653 -0.6733  1.1374
 3371SOL    HW216719   7.358   8.527   9.548  0.3960  1.1771  0.8985
 3372SOL     OW16720   5.651   2.221   6.510 -0.0222  0.2893 -0.0315
 3372SOL    HW116721   5.730   2.276   6.509 -0.4526  0.9258 -1.0096
 3372SOL    HW216722   5.579   2.283   6.503 -0.8955  0.0308  4.1317
 3373SOL     OW16723  11.668  11.187   3.067 -0.1284 -0.5898  0.0427
 3373SOL    HW116724  11.671  11.241   3.146 -0.6856 -1.3186  0.5757
 3373SOL    HW216725  11.708  11.104   3.093 -0.0542 -0.7376 -0.5259
 3374SOL     OW16726   8.418   1.802   3.175 -0.9066  0.1615 -0.0611
 3374SOL    HW116727   8.382   1.772   3.092 -0.3137  0.2415 -0.3546
 3374SOL    HW216728   8.513   1.801   3.162 -0.7421 -0.9813  1.0172
 3375SOL     OW16729   9.788   4.125   0.509  0.1159  0.4988 -0.2313
 3375SOL    HW116730   9.821   4.095   0.594 -1.4671  0.9384  0.5772
 3375SOL    HW216731   9.796   4.049   0.452 -1.2865 -0.6909  1.0497
 3376SOL     OW16732   2.590   5.669   5.458  0.1091  0.1777 -1.0103
 3376SOL    HW116733   2.621   5.579   5.448 -1.2352 -0.3899 -0.2655
 3376SOL    HW216734   2.570   5.698   5.369  2.6993  0.5802 -1.5304
 3377SOL     OW16735   3.927   0.948  10.649  0.8719 -0.3880  0.1557
 3377SOL    HW116736   3.939   1.037  10.617 -1.9206  0.3057  0.7845
 3377SOL    HW216737   3.952   0.952  10.742 -0.3632  0.0846  0.4892
 3378SOL     OW16738  11.509   4.768   2.272 -0.0441  0.3109 -0.2044
 3378SOL    HW116739  11.557   4.701   2.321  1.4703  0.5733 -1.2291
 3378SOL    HW216740  11.562   4.782   2.194 -0.5680  2.3579 -0.2522
 3379SOL     OW16741   1.249   5.812   3.380  0.0219  0.2651  0.2690
 3379SOL    HW116742   1.215   5.824   3.469 -0.1669 -0.9932  0.3855
 3379SOL    HW216743   1.341   5.790   3.393 -0.3365 -1.3848  0.2757
 3380SOL     OW16744   9.034  12.409   7.359 -0.1285  0.7204 -0.2799
 3380SOL    HW116745   9.015  12.444   7.272  0.5801 -0.3759 -0.8950
 3380SOL    HW216746   9.037  12.314   7.346 -1.7709  0.3963  1.2873
 3381SOL     OW16747   4.504   6.681   6.504  0.2950  0.0867  0.0695
 3381SOL    HW116748   4.443   6.732   6.557 -0.7494 -1.1300  0.0763
 3381SOL    HW216749   4.534   6.743   6.437 -1.3590  0.5771 -0.2692
 3382SOL     OW16750   9.673   6.013   1.108  0.0538 -0.1394  0.5925
 3382SOL    HW116751   9.718   5.929   1.103 -2.2378 -1.4080  0.4294
 3382SOL    HW216752   9.644   6.030   1.018 -1.9046 -0.5880  1.1013
 3383SOL     OW16753   1.301  11.518   0.502  0.0061  0.6909 -0.7963
 3383SOL    HW116754   1.221  11.514   0.450 -0.5459 -1.1683  0.1198
 3383SOL    HW216755   1.273  11.552   0.587  0.0190 -0.6479 -0.2345
 3384SOL     OW16756   6.195  11.910   7.780  0.0183 -0.3006  0.2654
 3384SOL    HW116757   6.175  12.001   7.756  1.3851 -0.3396 -1.1104
 3384SOL    HW216758   6.109  11.868   7.788 -0.6245  1.0459  0.7012
 3385SOL     OW16759   9.022   8.580   1.806 -0.5022 -0.2930 -0.0050
 3385SOL    HW116760   9.060   8.497   1.836 -0.9187  0.0581  1.5937
 3385SOL    HW216761   8.989   8.621   1.886  0.0840  1.6321 -0.6960
 3386SOL     OW16762   1.610  11.822   7.240  0.3072  0.1283 -0.0195
 3386SOL    HW116763   1.566  11.861   7.164  0.2033  1.7094  0.7999
 3386SOL    HW216764   1.684  11.880   7.257  0.5138 -0.3852  0.8869
 3387SOL     OW16765   7.782   5.944   0.235 -0.1437  0.4276 -0.3593
 3387SOL    HW116766   7.783   5.933   0.330  0.8244 -0.8305 -0.4894
 3387SOL    HW216767   7.727   5.872   0.203  0.1965  0.3529 -0.7932
 3388SOL     OW16768  10.784  12.349   6.596 -0.2395 -0.2956 -0.1971
 3388SOL    HW116769  10.751  12.342   6.506 -0.0498  0.2675 -0.3125
 3388SOL    HW216770  10.860  12.406   6.589 -0.2438 -0.2233  0.3310
 3389SOL     OW16771  12.101   9.125   8.746  0.1499  0.6147  0.3495
 3389SOL    HW116772  12.149   9.077   8.679 -0.2417 -0.8713  1.0880
 3389SOL    HW216773  12.114   9.217   8.724  2.3932  0.2499 -0.1325
 3390SOL     OW16774  10.065  12.728   2.980 -0.1986  0.0227  0.2106
 3390SOL    HW116775  10.109  12.753   2.899 -0.6658 -2.1947 -0.8222
 3390SOL    HW216776  10.135  12.720   3.044  0.4481  0.0203 -0.4753
 3391SOL     OW16777   5.996  10.294   0.520  0.2736 -0.3847  0.0705
 3391SOL    HW116778   5.990  10.208   0.479  1.3911  0.7311 -2.6363
 3391SOL    HW216779   5.981  10.356   0.449  0.5625  1.6867  1.7288
 3392SOL     OW16780   1.622   3.549   9.083  0.3395  0.1134  0.2567
 3392SOL    HW116781   1.650   3.458   9.073 -0.0341  0.1453 -1.4527
 3392SOL    HW216782   1.684   3.586   9.146  0.7171 -1.2271  0.7083
 3393SOL     OW16783   9.973  11.375   2.317  0.5364 -0.1770 -0.4841
 3393SOL    HW116784   9.936  11.342   2.236 -1.4940  2.8271 -0.9290
 3393SOL    HW216785   9.929  11.325   2.386  0.4469 -1.0153 -1.1339
 3394SOL     OW16786  10.637  10.428  10.533 -0.1816  0.3217 -0.1181
 3394SOL    HW116787  10.568  10.494  10.523 -0.1405  0.3064 -0.5370
 3394SOL    HW216788  10.615  10.382  10.614 -0.5195  0.4906 -0.1124
 3395SOL     OW16789   1.825   1.437   9.745 -0.2218  0.2295 -0.3987
 3395SOL    HW116790   1.893   1.371   9.760  0.2905  1.0963  1.4152
 3395SOL    HW216791   1.746   1.387   9.726  0.7670 -0.8196 -1.9321
 3396SOL     OW16792   1.629   9.339  11.827 -0.5404  0.2244  0.4412
 3396SOL    HW116793   1.696   9.303  11.770 -0.2882  1.8515 -0.3452
 3396SOL    HW216794   1.560   9.369  11.767 -0.7538  1.0017  1.0545
 3397SOL     OW16795   3.227   6.354   6.724 -0.3119 -0.4135  0.5043
 3397SOL    HW116796   3.276   6.387   6.800  1.4795  0.2644 -0.8761
 3397SOL    HW216797   3.290   6.354   6.653 -2.6058  1.7455 -1.7303
 3398SOL     OW16798   6.094   6.683   8.418  0.2250 -0.3306  0.0476
 3398SOL    HW116799   6.075   6.776   8.403 -0.6807 -0.6716 -1.0998
 3398SOL    HW216800   6.171   6.683   8.475 -1.1110  1.1236  1.9982
 3399SOL     OW16801  12.696   8.756   0.455  0.0398  0.5433 -0.3927
 3399SOL    HW116802  12.734   8.673   0.425 -2.0572 -0.2095 -1.1087
 3399SOL    HW216803  12.770   8.803   0.495  1.6143 -0.9946 -1.3533
 3400SOL     OW16804   7.025   8.849   0.326 -0.1451 -0.0936 -0.0108
 3400SOL    HW116805   6.998   8.844   0.235  1.6041 -0.2731 -0.5531
 3400SOL    HW216806   7.010   8.940   0.350  0.7936  0.3263 -0.9551
 3401SOL     OW16807  12.003   9.465   5.114 -0.1769 -0.2713  0.9736
 3401SOL    HW116808  12.075   9.510   5.158 -0.7755  1.1074  0.5980
 3401SOL    HW216809  12.034   9.376   5.102  0.6591 -0.2244  2.6360
 3402SOL     OW16810   6.507  10.731   5.453  0.1194  0.3412  0.0129
 3402SOL    HW116811   6.569  10.669   5.415  0.7634  1.1381 -0.2598
 3402SOL    HW216812   6.455  10.678   5.515  1.0399 -0.3401  0.2266
 3403SOL     OW16813   2.765   6.650   9.082  0.2048 -0.0055 -0.2449
 3403SOL    HW116814   2.779   6.569   9.132  0.8278  0.4902  0.4027
 3403SOL    HW216815   2.799   6.719   9.139  0.4887  0.6228 -1.1656
 3404SOL     OW16816   6.127   0.560   3.107  0.4490 -0.1009 -0.3116
 3404SOL    HW116817   6.111   0.483   3.161  0.5252  0.0222 -0.1091
 3404SOL    HW216818   6.061   0.556   3.038  0.8284 -0.6621 -0.6512
 3405SOL     OW16819   3.263   4.632   4.348 -0.7420  0.0911  0.1016
 3405SOL    HW116820   3.203   4.679   4.406 -0.1673  1.4001 -0.3328
 3405SOL    HW216821   3.238   4.660   4.260  0.1846  0.2655 -0.1120
 3406SOL     OW16822   1.616   5.684   8.437  0.3229  0.1453  0.5204
 3406SOL    HW116823   1.525   5.658   8.420 -0.1754  1.6256  0.8520
 3406SOL    HW216824   1.653   5.610   8.486 -0.7708 -0.3674  0.5946
 3407SOL     OW16825   3.815   4.957   4.323  0.5074  0.1881  0.0992
 3407SOL    HW116826   3.846   4.903   4.250 -0.3931 -1.1739  0.6958
 3407SOL    HW216827   3.868   4.930   4.398  0.2569  0.3546  0.3400
 3408SOL     OW16828   8.555   1.980  11.783  0.1361 -0.6323 -0.3594
 3408SOL    HW116829   8.606   1.902  11.807  0.7198 -0.4856 -1.0882
 3408SOL    HW216830   8.549   2.031  11.864  0.8479 -0.8248 -0.1795
 3409SOL     OW16831  11.365   8.963   3.363  0.3858 -0.7513  0.5326
 3409SOL    HW116832  11.283   8.915   3.369 -0.1522 -0.1214 -1.0745
 3409SOL    HW216833  11.342   9.044   3.317  1.4870  0.5142  2.0742
 3410SOL     OW16834   6.674   0.651   0.862  0.1458  0.0765 -0.1200
 3410SOL    HW116835   6.604   0.688   0.809  0.8171  0.2848 -0.8811
 3410SOL    HW216836   6.732   0.609   0.798 -0.2796 -1.7861  0.6474
 3411SOL     OW16837   4.473   2.822   4.013 -0.1957 -0.2355  0.0800
 3411SOL    HW116838   4.527   2.808   3.935 -1.7951  2.3687 -1.6427
 3411SOL    HW216839   4.523   2.885   4.066 -0.8566  1.1181 -0.8542
 3412SOL     OW16840   6.543   6.585   3.751 -0.0819 -0.2482  0.1159
 3412SOL    HW116841   6.601   6.608   3.824  1.6345  0.4829 -1.3903
 3412SOL    HW216842   6.462   6.632   3.769  0.0310 -0.6586  1.8967
 3413SOL     OW16843   4.113   6.945  12.626  0.2181 -0.3150 -0.7080
 3413SOL    HW116844   4.083   6.864  12.584 -0.4860 -0.7807  0.6522
 3413SOL    HW216845   4.044   6.967  12.688  1.6103 -0.1206  0.8449
 3414SOL     OW16846   0.350   3.981   4.334  0.5375 -1.1567  0.2100
 3414SOL    HW116847   0.366   3.977   4.428  1.8497  0.1970  0.0838
 3414SOL    HW216848   0.378   4.069   4.308 -2.1872 -0.5421 -1.0553
 3415SOL     OW16849   9.841   1.723  12.202 -0.4025 -0.6754  0.2041
 3415SOL    HW116850   9.911   1.786  12.217 -1.4471  0.6827 -0.4474
 3415SOL    HW216851   9.879   1.658  12.144 -0.0229  0.7415 -1.2020
 3416SOL     OW16852  10.984   7.699  10.314 -0.5119  0.7691 -0.3468
 3416SOL    HW116853  10.907   7.659  10.273 -2.2617  3.6664 -0.1088
 3416SOL    HW216854  10.953   7.781  10.351  2.0930  0.6941  2.4172
 3417SOL     OW16855  10.869   2.321   6.101  0.3399 -0.3286  0.1405
 3417SOL    HW116856  10.964   2.316   6.098  0.2869 -1.1192 -0.3490
 3417SOL    HW216857  10.845   2.287   6.187  0.3879 -2.1835 -0.5473
 3418SOL     OW16858   2.920   4.059   8.802 -0.2709 -0.2757 -0.7875
 3418SOL    HW116859   2.914   3.971   8.765  0.1371 -0.8758  0.5034
 3418SOL    HW216860   3.013   4.069   8.823 -0.2553  0.6143 -1.2458
 3419SOL     OW16861   0.730  11.117   8.411 -0.0569  0.7101 -0.4364
 3419SOL    HW116862   0.706  11.199   8.369  0.2543  0.0829 -1.9089
 3419SOL    HW216863   0.752  11.141   8.501 -0.1717  2.2022 -0.7886
 3420SOL     OW16864  10.276   6.931  12.563  0.1123  0.1857  0.1182
 3420SOL    HW116865  10.306   6.847  12.528  2.3306  0.9496  0.0715
 3420SOL    HW216866  10.327   6.997  12.515 -3.4444  1.8256 -1.8535
 3421SOL     OW16867   5.757   5.067   5.574 -0.1011 -0.0845  0.1455
 3421SOL    HW116868   5.662   5.055   5.571 -0.5104  2.3581  1.2126
 3421SOL    HW216869   5.774   5.135   5.509  0.8937 -0.2826  0.1961
 3422SOL     OW16870   3.437   4.759  10.917  0.8138 -0.3109 -0.3333
 3422SOL    HW116871   3.443   4.779  10.824  1.1161  1.0464 -0.0407
 3422SOL    HW216872   3.528   4.750  10.946  0.8646  1.6025  0.2729
 3423SOL     OW16873   0.944   5.905  10.306 -0.0403 -0.1909  0.4923
 3423SOL    HW116874   0.860   5.951  10.307 -0.1128 -0.3335  0.8703
 3423SOL    HW216875   0.934   5.834  10.368  0.7082  0.4049  1.3208
 3424SOL     OW16876   2.591   1.807  10.228 -0.5093 -0.0023  0.8925
 3424SOL    HW116877   2.498   1.826  10.238 -0.9799 -2.0685  1.0140
 3424SOL    HW216878   2.597   1.757  10.147  1.0201  2.8673 -0.9263
 3425SOL     OW16879   9.489   9.359   5.879  0.3730 -0.4388 -0.1014
 3425SOL    HW116880   9.447   9.423   5.821  2.8304  0.8545 -0.5997
 3425SOL    HW216881   9.522   9.292   5.819  1.4764  0.0457 -0.0571
 3426SOL     OW16882  11.318   2.751   8.871 -0.4056  0.2977  0.4002
 3426SOL    HW116883  11.284   2.683   8.929  0.3725 -0.4649 -0.0183
 3426SOL    HW216884  11.240   2.795   8.837 -0.8811  1.8527  3.2348
 3427SOL     OW16885   8.553  11.082   1.441  0.3799 -0.8060 -0.1023
 3427SOL    HW116886   8.602  11.151   1.486  0.1596 -0.6661 -0.0773
 3427SOL    HW216887   8.461  11.103   1.457  0.2694 -0.2367 -1.3904
 3428SOL     OW16888   1.938   1.823  11.267  0.3214  0.0035 -0.0318
 3428SOL    HW116889   1.882   1.789  11.336 -0.3918 -1.7294 -1.3623
 3428SOL    HW216890   2.020   1.846  11.310 -0.1739 -0.8392  1.4055
 3429SOL     OW16891  10.785   9.999   1.451 -0.5428  0.4075 -0.2539
 3429SOL    HW116892  10.838  10.010   1.372  0.8785  1.0655  0.7528
 3429SOL    HW216893  10.753  10.087   1.471 -0.4253  0.3464  0.2151
 3430SOL     OW16894   3.452   5.031  10.207 -0.1210 -0.1564  0.0305
 3430SOL    HW116895   3.479   5.069  10.291 -0.4883  0.1738  0.0000
 3430SOL    HW216896   3.377   5.083  10.180 -0.6484 -0.9141 -0.0056
 3431SOL     OW16897  11.558   9.347  12.319  0.0310 -0.1086 -0.1152
 3431SOL    HW116898  11.535   9.438  12.339  1.2243 -0.0914  1.3046
 3431SOL    HW216899  11.487   9.317  12.262 -2.2919  0.6009  2.2419
 3432SOL     OW16900  10.770   2.261   4.719  0.0937 -0.1383 -0.1675
 3432SOL    HW116901  10.853   2.218   4.738  0.4390  0.6018  0.0060
 3432SOL    HW216902  10.735   2.213   4.644  1.7069  0.9093 -1.6486
 3433SOL     OW16903   8.414   3.958   4.506 -0.1102 -0.5002  0.5590
 3433SOL    HW116904   8.423   4.038   4.452  1.4566 -0.2542  1.1291
 3433SOL    HW216905   8.365   3.987   4.583 -1.2113 -0.5537 -0.0896
 3434SOL     OW16906   3.722   5.943   3.269 -0.5100  0.2971  0.3270
 3434SOL    HW116907   3.776   5.901   3.202  0.3964  3.5534 -1.1809
 3434SOL    HW216908   3.777   5.944   3.347  0.0524  0.0317 -0.0626
 3435SOL     OW16909   5.162   3.311   2.953 -0.5681 -0.3465  0.2999
 3435SOL    HW116910   5.115   3.339   3.031 -0.1307  1.8233 -0.1422
 3435SOL    HW216911   5.167   3.216   2.960  0.2898 -0.1684  3.3990
 3436SOL     OW16912  11.164   3.883   5.445 -0.0971  0.0617  0.7401
 3436SOL    HW116913  11.249   3.898   5.485  0.3853  1.6414 -0.7688
 3436SOL    HW216914  11.103   3.879   5.519  1.2485 -1.1150  1.8401
 3437SOL     OW16915  12.168   2.828   5.001 -0.1190 -0.6522  0.1529
 3437SOL    HW116916  12.151   2.816   5.094 -0.9990 -1.0725 -0.0486
 3437SOL    HW216917  12.084   2.858   4.965  0.7605  1.6462 -0.1525
 3438SOL     OW16918   8.392  12.385   5.448 -0.0360 -0.0180 -0.1386
 3438SOL    HW116919   8.323  12.349   5.504 -0.0841  1.8399  1.0942
 3438SOL    HW216920   8.346  12.414   5.369 -1.0570  2.6959  1.3362
 3439SOL     OW16921   8.652   0.120   2.163 -0.0897  0.6602  0.3989
 3439SOL    HW116922   8.682   0.036   2.127 -2.5719 -0.7588  1.4243
 3439SOL    HW216923   8.729   0.154   2.208  0.6405 -1.7836  1.1944
 3440SOL     OW16924   4.405   0.480   3.534  0.4089  0.0805  0.0137
 3440SOL    HW116925   4.325   0.481   3.586  0.9689 -1.7052  0.9796
 3440SOL    HW216926   4.444   0.566   3.550  0.2995 -0.2028  2.1735
 3441SOL     OW16927   8.771   7.519   2.162  0.4654 -0.4518 -0.1253
 3441SOL    HW116928   8.731   7.437   2.190  0.2675 -0.8389 -1.4950
 3441SOL    HW216929   8.716   7.587   2.201  1.3496 -0.9036  2.0931
 3442SOL     OW16930  10.603  11.976   8.287 -0.3242  0.1512  0.1770
 3442SOL    HW116931  10.578  11.909   8.350  1.4978  0.3219  1.1562
 3442SOL    HW216932  10.647  11.927   8.217  0.9757  0.2594  0.8760
 3443SOL     OW16933  11.633   7.944   4.422  0.0750 -0.0851 -0.1551
 3443SOL    HW116934  11.606   7.866   4.471  0.6804 -0.7828 -0.8806
 3443SOL    HW216935  11.589   8.017   4.465  0.5847 -0.6644  1.4226
 3444SOL     OW16936   8.885   7.950   4.466  0.0950 -0.1574 -0.0175
 3444SOL    HW116937   8.819   7.883   4.445  0.2301 -0.0051 -0.9734
 3444SOL    HW216938   8.954   7.937   4.402  0.7462  0.0465  0.6333
 3445SOL     OW16939   3.883   4.701   1.198  0.2193  0.0366 -0.3363
 3445SOL    HW116940   3.908   4.640   1.267  1.2096 -0.3107 -0.9833
 3445SOL    HW216941   3.916   4.662   1.117 -3.0108 -0.8171 -1.4119
 3446SOL     OW16942   2.920   7.368   7.745 -0.4566  0.2791  0.7341
 3446SOL    HW116943   3.000   7.419   7.728 -0.3564  0.5523  1.9175
 3446SOL    HW216944   2.865   7.427   7.796 -0.6939 -0.4980  1.3920
 3447SOL     OW16945   2.991  10.805  11.198  0.7861 -0.7432  0.2279
 3447SOL    HW116946   2.897  10.819  11.211  0.7237 -1.7503  1.0217
 3447SOL    HW216947   3.029  10.893  11.203 -0.1750 -0.2372 -0.8624
 3448SOL     OW16948  12.709   0.006   8.393  0.3347 -0.3818 -0.0884
 3448SOL    HW116949  12.729   0.097   8.370  2.0630 -1.1591 -1.9046
 3448SOL    HW216950  12.614  -0.002   8.378  0.5265  0.5454 -2.1876
 3449SOL     OW16951   5.367   9.056  11.304 -0.3335  0.1092  0.2852
 3449SOL    HW116952   5.458   9.031  11.316 -0.0314  1.1573  0.3216
 3449SOL    HW216953   5.319   9.007  11.371  0.4120  0.6699  1.2502
 3450SOL     OW16954   1.373   1.057   8.555 -0.0462 -0.0448  0.1377
 3450SOL    HW116955   1.407   0.970   8.575  0.4551 -0.2763 -1.4901
 3450SOL    HW216956   1.408   1.076   8.467 -0.1724  1.7795  0.4386
 3451SOL     OW16957   5.982   6.329   4.687  0.1688  0.4110 -0.9102
 3451SOL    HW116958   5.927   6.385   4.633 -1.6866 -2.0745 -1.7987
 3451SOL    HW216959   6.063   6.319   4.636  1.3638  3.5724  0.1127
 3452SOL     OW16960   1.580   3.313   7.309  0.2084  0.5789  0.1386
 3452SOL    HW116961   1.564   3.391   7.363  0.4677  1.0438 -0.4428
 3452SOL    HW216962   1.501   3.260   7.321  0.4190  0.4958  1.2622
 3453SOL     OW16963  10.242   3.400   9.277 -0.6530  0.3724 -0.6873
 3453SOL    HW116964  10.296   3.476   9.254 -1.5499  1.1657 -0.2244
 3453SOL    HW216965  10.215   3.417   9.367 -1.6135 -0.0532 -0.8907
 3454SOL     OW16966   7.571   3.111  10.025  0.1629 -0.3150  0.3560
 3454SOL    HW116967   7.639   3.121   9.958  0.9756 -1.0027  1.0583
 3454SOL    HW216968   7.494   3.083   9.976  0.9025 -1.3783 -0.2523
 3455SOL     OW16969   0.239   4.949   3.920  0.2456 -0.0435  0.7733
 3455SOL    HW116970   0.263   4.874   3.865 -0.7710 -0.6608  1.1244
 3455SOL    HW216971   0.188   4.910   3.991  0.8079  0.8450  1.6790
 3456SOL     OW16972   1.412  12.563   2.028 -0.0178  0.4016 -0.5638
 3456SOL    HW116973   1.456  12.627   2.084  0.2431  0.2925 -0.6431
 3456SOL    HW216974   1.326  12.550   2.070  0.8713 -1.1037  0.9005
 3457SOL     OW16975   8.795   0.210   7.566  0.7184 -0.0714  0.3938
 3457SOL    HW116976   8.791   0.194   7.660  0.0354 -2.9263 -0.0205
 3457SOL    HW216977   8.886   0.191   7.542  0.5381 -0.8479  0.2921
 3458SOL     OW16978   1.599  10.299   4.444 -0.2671  0.4330  0.0527
 3458SOL    HW116979   1.637  10.250   4.371 -0.7586 -2.1793  1.4436
 3458SOL    HW216980   1.594  10.389   4.412  0.5391 -0.4087 -2.7219
 3459SOL     OW16981   7.257   3.602   5.907  1.1163  0.3666  0.2917
 3459SOL    HW116982   7.289   3.688   5.878 -0.0623  1.5630  2.2868
 3459SOL    HW216983   7.268   3.546   5.831  1.0922  2.5200 -1.4144
 3460SOL     OW16984   6.359   8.268  12.759  0.1142  0.3654  0.0466
 3460SOL    HW116985   6.443   8.226  12.776 -0.2084  0.3994  2.0571
 3460SOL    HW216986   6.296   8.196  12.764  0.0399  0.2561 -1.9549
 3461SOL     OW16987   9.905   3.163   5.753  0.6094  0.3305 -0.5399
 3461SOL    HW116988   9.985   3.149   5.804  0.1229  0.1150  0.1769
 3461SOL    HW216989   9.854   3.084   5.767  0.1514  0.5846 -0.7686
 3462SOL     OW16990   1.631   8.472   2.438 -0.1730 -0.2105  0.3751
 3462SOL    HW116991   1.581   8.392   2.420 -0.4183 -0.1668  0.8613
 3462SOL    HW216992   1.703   8.470   2.375 -1.7267  0.5814 -1.5740
 3463SOL     OW16993   8.445   0.380   3.844 -0.3274  0.1990 -0.0058
 3463SOL    HW116994   8.454   0.298   3.893 -1.2712  0.1935  0.1680
 3463SOL    HW216995   8.513   0.436   3.881 -1.5294  0.4768  1.9324
 3464SOL     OW16996  11.141   6.719   8.913 -0.4596 -0.2407 -0.0954
 3464SOL    HW116997  11.195   6.764   8.978 -0.6225  0.5738 -0.5052
 3464SOL    HW216998  11.202   6.696   8.843  0.0271 -2.5084  0.9843
 3465SOL     OW16999   6.318  11.591   3.723 -0.3229  0.0805  0.2606
 3465SOL    HW117000   6.374  11.588   3.801  2.3252 -0.3213 -1.5168
 3465SOL    HW217001   6.243  11.644   3.750  2.0582  2.8579  2.1916
 3466SOL     OW17002   9.187  12.141   4.162 -0.2550 -0.2690 -0.2026
 3466SOL    HW117003   9.110  12.191   4.189  0.7959  2.3307 -1.6760
 3466SOL    HW217004   9.184  12.141   4.066  1.4227 -0.3511 -0.2883
 3467SOL     OW17005   9.652   0.114   2.863  0.1062 -0.1795 -0.2323
 3467SOL    HW117006   9.611   0.200   2.851  1.1789  0.5804  1.1727
 3467SOL    HW217007   9.743   0.128   2.835 -0.1750 -1.4614 -1.9931
 3468SOL     OW17008   4.360   7.818   9.770 -0.3516  0.1773 -0.4895
 3468SOL    HW117009   4.417   7.832   9.846 -0.1261 -2.6726 -0.0258
 3468SOL    HW217010   4.273   7.802   9.807 -0.3654 -0.6106 -0.8278
 3469SOL     OW17011   0.145   2.305   0.545  0.2560  0.3296 -0.3622
 3469SOL    HW117012   0.178   2.371   0.484 -1.2319  1.9981  0.5419
 3469SOL    HW217013   0.223   2.272   0.590  1.2566 -0.2000 -2.4012
 3470SOL     OW17014   3.365  12.066   5.445  0.2573  0.3664  0.5610
 3470SOL    HW117015   3.342  12.027   5.360  0.8797  0.6984  0.2299
 3470SOL    HW217016   3.336  12.002   5.510 -0.1519  0.0692  0.0920
 3471SOL     OW17017   7.415   9.437   4.052 -0.4890  0.0577 -0.2238
 3471SOL    HW117018   7.328   9.402   4.072  0.2134 -2.6603 -1.3184
 3471SOL    HW217019   7.446   9.475   4.134 -3.5916  3.5020 -0.3828
 3472SOL     OW17020   0.967   0.877   3.476  0.0322  0.2010  0.3547
 3472SOL    HW117021   0.970   0.955   3.531 -0.0393 -0.6484  1.6166
 3472SOL    HW217022   0.941   0.909   3.390 -0.7616  1.4727  1.0346
 3473SOL     OW17023   5.323   8.255   3.918  0.7224  0.4022  0.0649
 3473SOL    HW117024   5.360   8.278   4.003  0.9062 -1.3962  0.4960
 3473SOL    HW217025   5.231   8.237   3.936  0.9439 -0.7857  0.0451
 3474SOL     OW17026   2.760  12.328   5.498 -0.4017 -0.6297  0.2761
 3474SOL    HW117027   2.683  12.345   5.443 -1.3114  1.5218  2.0507
 3474SOL    HW217028   2.810  12.410   5.495  2.0271 -2.0508 -1.0082
 3475SOL     OW17029   2.740  12.575  12.759  0.2668 -0.1038  0.5982
 3475SOL    HW117030   2.669  12.515  12.784  0.1561  0.0166  0.5763
 3475SOL    HW217031   2.734  12.579  12.663 -0.6149  1.0101  0.6725
 3476SOL     OW17032   9.640   7.229   5.715 -0.1451  0.5434 -0.2466
 3476SOL    HW117033   9.607   7.319   5.717  2.0402  1.4327 -0.9026
 3476SOL    HW217034   9.731   7.238   5.685 -0.1302 -1.9650 -1.1876
 3477SOL     OW17035   6.794   8.692   5.435  0.1250 -0.1556 -0.0173
 3477SOL    HW117036   6.829   8.623   5.379 -0.5715 -0.2977 -0.2842
 3477SOL    HW217037   6.787   8.651   5.521 -0.1284 -0.3726 -0.1386
 3478SOL     OW17038   0.557   3.084   3.721 -0.0755  0.4805  0.4728
 3478SOL    HW117039   0.484   3.023   3.711 -0.6137  0.5303  3.1422
 3478SOL    HW217040   0.515   3.170   3.720  0.1193  0.5771  0.6510
 3479SOL     OW17041   5.205   2.520   8.888  0.6656  0.4623  0.2664
 3479SOL    HW117042   5.196   2.441   8.941 -0.6808 -0.0276 -0.6348
 3479SOL    HW217043   5.294   2.515   8.853 -0.3128 -2.2971 -2.2101
 3480SOL     OW17044   8.766   9.662  11.894 -0.2602 -0.1746  0.0261
 3480SOL    HW117045   8.842   9.720  11.890 -0.1815 -0.2321  0.5558
 3480SOL    HW217046   8.704   9.700  11.831 -0.6558  1.1689  1.1691
 3481SOL     OW17047   6.860   3.739   0.793 -0.6458 -0.0915 -0.2248
 3481SOL    HW117048   6.872   3.650   0.828 -1.1575 -0.4540 -0.9363
 3481SOL    HW217049   6.843   3.726   0.700 -4.9448  0.3757  0.3035
 3482SOL     OW17050  12.284   6.598  11.405 -0.6036 -0.1201 -0.3446
 3482SOL    HW117051  12.280   6.519  11.460  0.2531  1.0603  1.4836
 3482SOL    HW217052  12.328   6.663  11.459 -2.1710  1.9558 -1.4219
 3483SOL     OW17053   7.171   0.861   8.495  0.6626  0.0233  0.3300
 3483SOL    HW117054   7.157   0.929   8.560 -0.2220  0.6890 -0.5240
 3483SOL    HW217055   7.246   0.892   8.444 -0.0755  0.6480 -0.3995
 3484SOL     OW17056   3.101  10.823   2.945  0.1930  0.2421  0.1823
 3484SOL    HW117057   3.042  10.748   2.948  0.3055 -0.0641 -2.6803
 3484SOL    HW217058   3.188  10.785   2.950  0.2347  0.1816 -0.7455
 3485SOL     OW17059  11.842   7.713   2.584  0.2348  0.0508  0.2874
 3485SOL    HW117060  11.824   7.768   2.508 -2.3178  0.5238  1.1340
 3485SOL    HW217061  11.769   7.729   2.643  1.3950 -1.3964  2.2378
 3486SOL     OW17062   0.138  12.201   1.113  0.0128  0.4797  0.5131
 3486SOL    HW117063   0.096  12.239   1.035 -1.1027  0.0136  0.8656
 3486SOL    HW217064   0.092  12.240   1.187  0.0039 -0.2629  0.9106
 3487SOL     OW17065   2.183   8.541   4.114 -0.6665  0.1489  0.4257
 3487SOL    HW117066   2.234   8.460   4.115  0.6863  0.9814  0.8784
 3487SOL    HW217067   2.184   8.571   4.205 -0.0669  1.3177  0.0545
 3488SOL     OW17068  11.620   7.921   0.719  0.1084  0.0301  0.1900
 3488SOL    HW117069  11.643   7.867   0.795 -1.6776  0.0616  0.8014
 3488SOL    HW217070  11.535   7.958   0.741  1.1290  2.9748 -0.3039
 3489SOL     OW17071   2.495  10.545   7.268 -0.9175 -0.1844  0.1121
 3489SOL    HW117072   2.489  10.605   7.194 -0.0187  0.6584  0.7107
 3489SOL    HW217073   2.413  10.495   7.265 -1.6891  1.0677 -0.3924
 3490SOL     OW17074  11.886   9.542   3.898 -0.0996  0.3265  0.3418
 3490SOL    HW117075  11.820   9.476   3.874  1.9392 -1.4857 -0.5638
 3490SOL    HW217076  11.952   9.536   3.830  1.8555  0.8755  2.1005
 3491SOL     OW17077   3.030   0.106   9.679 -0.0834 -0.3212 -0.5126
 3491SOL    HW117078   3.029   0.192   9.637 -1.0809  0.2046  0.5191
 3491SOL    HW217079   2.960   0.057   9.635  0.1874 -0.4612 -0.7946
 3492SOL     OW17080   0.069   8.541   2.118 -0.2419  0.2019 -0.1184
 3492SOL    HW117081   0.157   8.538   2.080 -0.6133  1.9332 -1.2390
 3492SOL    HW217082   0.010   8.522   2.044 -0.8474  0.2595  0.3422
 3493SOL     OW17083   8.266  11.444   7.160  0.1179 -0.3042 -0.5267
 3493SOL    HW117084   8.191  11.480   7.114  2.4872  0.0368 -4.6860
 3493SOL    HW217085   8.326  11.518   7.170  0.4623 -0.7992  1.6444
 3494SOL     OW17086   1.625   6.703   4.314  0.2507  0.2002  0.2343
 3494SOL    HW117087   1.697   6.696   4.251  0.3438  1.0169  0.2286
 3494SOL    HW217088   1.554   6.741   4.263  0.6903  1.9765  0.8631
 3495SOL     OW17089   8.971   1.006   1.032  0.0823 -0.4911 -0.0762
 3495SOL    HW117090   8.962   1.095   0.997 -0.6571 -0.8343 -0.7948
 3495SOL    HW217091   8.977   0.951   0.955  0.4674 -1.0817  0.3691
 3496SOL     OW17092   0.687   6.526   1.437 -0.2603 -0.0289  0.4316
 3496SOL    HW117093   0.686   6.614   1.475  2.2054 -0.0790  0.7696
 3496SOL    HW217094   0.661   6.539   1.346 -0.6687  0.9469  0.6733
 3497SOL     OW17095   7.918  10.209  12.536  0.1955  0.2111  0.9316
 3497SOL    HW117096   7.846  10.192  12.596  0.2489 -2.5996  0.3365
 3497SOL    HW217097   7.996  10.178  12.583  0.8579  1.9960  1.0565
 3498SOL     OW17098   1.382   3.084   0.131  0.4263 -0.2464 -0.0423
 3498SOL    HW117099   1.318   3.104   0.062  2.7269 -1.5744 -2.7959
 3498SOL    HW217100   1.431   3.166   0.143 -1.1255  0.5140  1.4297
 3499SOL     OW17101   1.975   4.216  10.076 -0.6998  0.1796 -0.0015
 3499SOL    HW117102   2.010   4.131  10.049 -0.6954  0.6928 -1.7522
 3499SOL    HW217103   1.883   4.214  10.048 -0.8797  0.4968  0.5573
 3500SOL     OW17104   9.540  10.510   4.292 -0.0546  0.4177 -0.1343
 3500SOL    HW117105   9.634  10.498   4.278 -0.4992 -0.9166 -2.4174
 3500SOL    HW217106   9.507  10.422   4.309 -0.7692  1.0359  2.0244
 3501SOL     OW17107  10.332   6.444  12.361 -0.4505 -0.2256  0.0756
 3501SOL    HW117108  10.372   6.458  12.275 -0.8643 -1.7081 -0.3972
 3501SOL    HW217109  10.333   6.349  12.372 -2.8553 -0.2566  0.5237
 3502SOL     OW17110   6.490  10.610   1.572  0.1758  0.0090  0.2272
 3502SOL    HW117111   6.466  10.700   1.549 -1.2398 -0.5077 -0.3786
 3502SOL    HW217112   6.477  10.560   1.492 -1.0008 -1.0918  1.0614
 3503SOL     OW17113  11.722   6.727   0.482  0.4914  0.5516  0.2989
 3503SOL    HW117114  11.759   6.815   0.491  1.5817 -0.0165  1.6535
 3503SOL    HW217115  11.791   6.668   0.513 -0.3801 -0.7640 -0.1725
 3504SOL     OW17116   5.803   8.177  12.337  0.7321 -0.2153  0.1954
 3504SOL    HW117117   5.725   8.227  12.360  0.1919 -1.5822  1.4983
 3504SOL    HW217118   5.802   8.175  12.241 -0.9161 -0.3057  0.1854
 3505SOL     OW17119   5.723   7.340   4.827  0.2705 -0.2201 -0.1937
 3505SOL    HW117120   5.755   7.428   4.807 -1.9552  0.4430 -1.1542
 3505SOL    HW217121   5.664   7.319   4.755  0.2188 -2.2303  0.3748
 3506SOL     OW17122   1.222   1.725  11.932 -0.0387 -0.0932  0.1056
 3506SOL    HW117123   1.315   1.729  11.909  0.4579  0.4810  2.0116
 3506SOL    HW217124   1.178   1.777  11.864  1.1402  0.4060 -0.3041
 3507SOL     OW17125   9.295   1.706  11.939  0.3242 -0.2082 -0.4319
 3507SOL    HW117126   9.365   1.681  11.879  1.2125 -0.8270  0.8310
 3507SOL    HW217127   9.215   1.682  11.892  0.9699 -0.2913 -1.5335
 3508SOL     OW17128   8.271   3.783   1.542 -0.2590  0.1631  0.5976
 3508SOL    HW117129   8.183   3.790   1.507  0.4616 -2.5997 -2.1733
 3508SOL    HW217130   8.327   3.773   1.465  2.2708  0.1447  2.3181
 3509SOL     OW17131  10.483   9.835  10.423 -0.1659  0.4820  0.6274
 3509SOL    HW117132  10.562   9.828  10.370  0.9081  0.6630  2.1402
 3509SOL    HW217133  10.430   9.902  10.380  0.0204 -0.3692 -0.9737
 3510SOL     OW17134   7.101  12.607   6.852 -0.8353  0.7283  0.1856
 3510SOL    HW117135   7.081  12.537   6.915  2.7121  0.2643  0.9848
 3510SOL    HW217136   7.086  12.688   6.902 -0.5824  0.4130  0.7903
 3511SOL     OW17137  12.249   5.610   4.076  0.1627  0.3054 -0.5976
 3511SOL    HW117138  12.259   5.569   3.990 -0.7407  0.4923 -0.8090
 3511SOL    HW217139  12.213   5.697   4.056  0.0365  0.3841 -0.0340
 3512SOL     OW17140   5.011   8.228  11.008  0.1673  0.1074  0.3891
 3512SOL    HW117141   4.992   8.143  10.967 -0.3642  0.4832 -0.1696
 3512SOL    HW217142   5.104   8.226  11.027  0.0263 -0.8833  1.0310
 3513SOL     OW17143   2.116   6.533   6.461  0.5547  0.0860 -0.2312
 3513SOL    HW117144   2.154   6.470   6.522  0.9647 -0.4000 -0.9628
 3513SOL    HW217145   2.181   6.604   6.457  0.6179  0.0281 -0.2456
 3514SOL     OW17146   7.209   7.460   0.054 -0.1721 -0.4192 -0.4710
 3514SOL    HW117147   7.146   7.479   0.124 -0.0229  2.5472 -1.0057
 3514SOL    HW217148   7.155   7.449  -0.024 -0.1473  0.8615 -0.6922
 3515SOL     OW17149   9.070  12.178   6.301 -0.3624 -0.1297 -0.0118
 3515SOL    HW117150   9.151  12.172   6.250 -1.2776 -1.4157 -1.4184
 3515SOL    HW217151   9.005  12.211   6.239 -1.0693  0.2167  0.8970
 3516SOL     OW17152   8.627   2.212   3.196  0.0271  0.4769  0.3753
 3516SOL    HW117153   8.636   2.289   3.252  2.7724  0.1339  0.5550
 3516SOL    HW217154   8.669   2.142   3.245  4.4966  0.5792 -2.6647
 3517SOL     OW17155   4.846   1.586   4.316 -0.2338  0.2607  0.5493
 3517SOL    HW117156   4.920   1.595   4.255  0.6715  1.5030  1.7554
 3517SOL    HW217157   4.786   1.526   4.273  1.1405 -0.1929 -0.8189
 3518SOL     OW17158   2.472   1.531   8.644  0.2131 -0.1763 -0.1222
 3518SOL    HW117159   2.388   1.559   8.681 -0.9210 -1.6595 -1.4265
 3518SOL    HW217160   2.503   1.606   8.594  0.6463  1.0503  1.8423
 3519SOL     OW17161   3.880   6.362   8.478  0.2311  0.2163  0.3364
 3519SOL    HW117162   3.824   6.313   8.418  0.9999  0.0659 -0.2720
 3519SOL    HW217163   3.951   6.395   8.423  1.2835 -0.4302  1.2705
 3520SOL     OW17164   6.999   2.914  11.941 -0.7498  0.6266  0.2490
 3520SOL    HW117165   7.042   2.954  12.017 -0.0329 -0.7009  0.5574
 3520SOL    HW217166   7.034   2.826  11.936 -2.4504 -0.0673 -0.3012
 3521SOL     OW17167   6.714   3.921   2.821 -0.2012 -0.2094  0.1241
 3521SOL    HW117168   6.686   3.999   2.773 -0.8643 -0.3370  0.2958
 3521SOL    HW217169   6.635   3.867   2.828 -0.2699  0.0697  1.8698
 3522SOL     OW17170   2.650   1.517   0.810 -0.3875 -0.0053  0.1806
 3522SOL    HW117171   2.725   1.510   0.869 -1.1899 -0.1879  1.2132
 3522SOL    HW217172   2.679   1.578   0.741  0.2489  0.9807  1.2761
 3523SOL     OW17173   4.814   6.207  11.228 -0.4860  0.3109 -0.2991
 3523SOL    HW117174   4.843   6.209  11.136 -1.4699  2.3262 -0.6081
 3523SOL    HW217175   4.721   6.187  11.223 -0.3415 -0.5921  0.3582
 3524SOL     OW17176   4.611   9.654   0.003  0.0262 -0.2913 -0.4939
 3524SOL    HW117177   4.592   9.652   0.097 -0.1841  0.9159 -0.4968
 3524SOL    HW217178   4.651   9.569  -0.015 -2.3397 -1.6368  0.1677
 3525SOL     OW17179  11.972   2.030   6.852  0.4150 -0.0097  0.6585
 3525SOL    HW117180  11.922   1.961   6.896 -0.0973 -0.4606 -0.6079
 3525SOL    HW217181  11.986   1.998   6.763 -0.0408  1.6146 -0.0369
 3526SOL     OW17182   0.520   7.810   0.119  0.3357 -0.5021 -0.4372
 3526SOL    HW117183   0.497   7.784   0.209 -1.4328  1.3788 -0.2621
 3526SOL    HW217184   0.461   7.760   0.064  0.7598 -0.9338 -0.5106
 3527SOL     OW17185   4.707   3.566   3.767  0.1208 -0.2792  0.3486
 3527SOL    HW117186   4.795   3.600   3.782  0.2120 -0.2915 -0.1448
 3527SOL    HW217187   4.684   3.522   3.849 -0.3053  1.6063  1.2815
 3528SOL     OW17188   9.430   9.923   5.614  0.6409  0.1430  0.1480
 3528SOL    HW117189   9.349   9.933   5.663  1.1679 -1.5719  1.4940
 3528SOL    HW217190   9.414   9.849   5.555  0.3767  1.5037 -1.5886
 3529SOL     OW17191   2.538   7.711  11.646 -0.4954 -0.1099 -0.2240
 3529SOL    HW117192   2.614   7.658  11.625  1.2566  2.4767 -0.8698
 3529SOL    HW217193   2.507   7.744  11.562 -1.3557  0.1286  0.1736
 3530SOL     OW17194   2.927  12.351   6.198 -0.0406  0.3073  0.3004
 3530SOL    HW117195   2.949  12.311   6.282 -1.4793 -0.2155  0.4590
 3530SOL    HW217196   2.913  12.277   6.139  0.7054  0.6655 -0.3400
 3531SOL     OW17197   4.131   1.901   6.601 -0.1315  0.4006 -0.5025
 3531SOL    HW117198   4.054   1.943   6.638  0.7305  0.5534  1.2454
 3531SOL    HW217199   4.179   1.972   6.557 -0.4800  0.5140 -0.6963
 3532SOL     OW17200  12.425   8.531   3.746  0.2062 -0.1731  1.3982
 3532SOL    HW117201  12.451   8.477   3.821  3.3613 -0.1793  0.4540
 3532SOL    HW217202  12.479   8.498   3.674 -1.3409  1.0814 -0.4226
 3533SOL     OW17203   4.140   2.142   0.375  0.1962  0.1232  0.6950
 3533SOL    HW117204   4.101   2.061   0.408 -0.3935 -0.9105 -2.2417
 3533SOL    HW217205   4.234   2.122   0.369 -0.1062 -1.0301 -1.4528
 3534SOL     OW17206   0.325   8.702   5.193 -0.3459 -0.0493  0.4014
 3534SOL    HW117207   0.364   8.662   5.115 -0.3293  0.1739  0.2938
 3534SOL    HW217208   0.365   8.789   5.197 -1.3235  0.4419 -0.0891
 3535SOL     OW17209   1.562   2.549   1.076  0.4043  0.3644  0.7796
 3535SOL    HW117210   1.610   2.573   1.156  1.5728  1.5010 -0.2208
 3535SOL    HW217211   1.535   2.633   1.039  0.8252 -0.0789 -0.5799
 3536SOL     OW17212   3.663  10.087   8.918  0.0074 -0.3412 -0.2962
 3536SOL    HW117213   3.570  10.078   8.898 -0.3010  0.1442  0.8395
 3536SOL    HW217214   3.665  10.138   8.999  1.2422 -1.0012  0.1122
 3537SOL     OW17215   6.624   6.439   6.968  0.5485  0.3917 -0.2031
 3537SOL    HW117216   6.689   6.381   6.928 -2.1903 -2.4512 -0.9422
 3537SOL    HW217217   6.563   6.379   7.012 -0.9228  2.9656  1.5271
 3538SOL     OW17218   2.320   7.958  11.341 -0.0386 -0.2051 -0.1323
 3538SOL    HW117219   2.300   8.037  11.392 -1.0963  0.3191 -1.3170
 3538SOL    HW217220   2.234   7.927  11.311 -0.0143 -3.3930  2.5062
 3539SOL     OW17221   4.903  11.778   0.152  0.1202 -0.5600  0.0423
 3539SOL    HW117222   4.999  11.784   0.153  0.1014 -0.1340 -0.3257
 3539SOL    HW217223   4.879  11.762   0.243  0.4999  0.0120  0.2518
 3540SOL     OW17224   6.093   2.078   6.377  0.2409  0.1810 -0.1068
 3540SOL    HW117225   6.051   1.999   6.343  2.2342 -0.5427 -0.9823
 3540SOL    HW217226   6.068   2.147   6.315  0.9927 -0.4094 -1.0826
 3541SOL     OW17227   1.292   7.893   0.432  0.1735  0.1230 -0.7782
 3541SOL    HW117228   1.347   7.850   0.497 -1.5205 -0.2201  0.4916
 3541SOL    HW217229   1.241   7.956   0.482 -0.0138  1.0285 -2.0508
 3542SOL     OW17230   8.181   6.962  11.655  0.1592  0.2160  0.0132
 3542SOL    HW117231   8.245   7.033  11.656  1.8543 -1.2629  0.9851
 3542SOL    HW217232   8.143   6.963  11.743 -0.9696  0.8902 -0.4635
 3543SOL     OW17233   9.642   2.791   9.969  0.8520  0.1908  0.0820
 3543SOL    HW117234   9.561   2.811  10.017  0.8004  0.4671 -0.1177
 3543SOL    HW217235   9.683   2.876   9.955  2.3845 -0.0908  2.2550
 3544SOL     OW17236  12.189  10.313   6.532  0.6009 -0.1506 -0.3409
 3544SOL    HW117237  12.223  10.342   6.447  1.6130 -0.5950 -0.1122
 3544SOL    HW217238  12.149  10.228   6.513 -0.6918  0.5053 -0.6651
 3545SOL     OW17239   8.797   0.955  11.285  0.4334 -0.6122  0.4630
 3545SOL    HW117240   8.887   0.942  11.257  0.3751 -1.4523  0.6564
 3545SOL    HW217241   8.799   1.035  11.338  0.9173 -0.2020 -0.1514
 3546SOL     OW17242   8.444   7.974   0.836 -0.0826  0.0632  0.3361
 3546SOL    HW117243   8.454   7.919   0.759 -0.4740 -0.0114  0.3354
 3546SOL    HW217244   8.519   8.034   0.834 -1.2621  1.5955 -1.3830
 3547SOL     OW17245   7.599   7.743   6.616  0.2674 -0.3786  0.2475
 3547SOL    HW117246   7.563   7.828   6.645 -1.4702 -0.7304 -0.7138
 3547SOL    HW217247   7.624   7.699   6.697  0.8559  0.8887  0.7884
 3548SOL     OW17248  10.984   1.914   3.105 -0.5547  0.5612  0.5867
 3548SOL    HW117249  10.890   1.905   3.092 -0.3226  0.1485 -1.0268
 3548SOL    HW217250  11.010   1.987   3.048  0.3326 -0.4401 -0.3418
 3549SOL     OW17251   2.612   4.875   8.831  0.2634 -0.1689  0.6095
 3549SOL    HW117252   2.542   4.865   8.767  0.7122 -0.9421  0.2271
 3549SOL    HW217253   2.688   4.833   8.790  0.6501 -0.3560  1.5027
 3550SOL     OW17254  11.643   8.830   1.981 -0.0062  0.6223  0.1644
 3550SOL    HW117255  11.589   8.806   2.056  0.0273  0.3327  0.0984
 3550SOL    HW217256  11.733   8.824   2.014  0.0243  0.0816 -0.0178
 3551SOL     OW17257   0.346  10.487  11.201 -0.1123 -0.4353  0.3303
 3551SOL    HW117258   0.339  10.543  11.124 -2.1418  1.4152  1.7212
 3551SOL    HW217259   0.275  10.424  11.192 -1.5240  0.9228  1.4581
 3552SOL     OW17260  10.466   1.950  12.074 -0.1850  0.0013  0.4229
 3552SOL    HW117261  10.426   1.914  12.153  0.5038 -0.6386  0.4935
 3552SOL    HW217262  10.417   1.910  12.002 -1.1855  1.0188  0.5083
 3553SOL     OW17263   7.780   8.987  10.260 -0.1841  0.1959  0.4115
 3553SOL    HW117264   7.703   9.043  10.253 -0.1970  0.1852  0.4682
 3553SOL    HW217265   7.799   8.983  10.354  0.8146  1.4623  0.2916
 3554SOL     OW17266   4.030   1.204   9.204  1.0090 -0.3203 -0.0288
 3554SOL    HW117267   4.037   1.119   9.161  0.2013 -1.7990  2.5715
 3554SOL    HW217268   3.939   1.210   9.231  1.0217  1.4711 -0.2306
 3555SOL     OW17269  12.228   7.680  11.084 -0.1021  0.7042  0.3505
 3555SOL    HW117270  12.176   7.603  11.107  1.0655 -0.1126  0.3358
 3555SOL    HW217271  12.299   7.646  11.030  0.9087  1.6524  1.0230
 3556SOL     OW17272  12.554   4.145   2.869  0.2148  0.1823  0.1659
 3556SOL    HW117273  12.617   4.148   2.940  2.1084 -0.1777 -1.4273
 3556SOL    HW217274  12.602   4.173   2.791 -0.7382 -2.7191 -1.6785
 3557SOL     OW17275   7.548   7.298   4.287 -0.3472  0.5966 -0.4275
 3557SOL    HW117276   7.507   7.240   4.352  0.2503 -0.5495 -1.0529
 3557SOL    HW217277   7.484   7.302   4.215 -0.3527  0.6476 -0.4200
 3558SOL     OW17278   8.566   3.144  11.651  0.0114 -0.4142 -0.4743
 3558SOL    HW117279   8.650   3.113  11.682  0.4296 -0.1698 -1.3273
 3558SOL    HW217280   8.517   3.166  11.730  1.7511  2.0984  0.0035
 3559SOL     OW17281   4.615   3.702   3.557  0.6866 -0.2106  0.1459
 3559SOL    HW117282   4.659   3.671   3.635  1.3456 -1.9117 -0.8527
 3559SOL    HW217283   4.686   3.719   3.494  0.2331  1.8535  0.1055
 3560SOL     OW17284   8.848   0.055   5.743 -0.4136  0.3513 -0.0319
 3560SOL    HW117285   8.798  -0.023   5.719  0.3714 -0.7644  1.7572
 3560SOL    HW217286   8.799   0.094   5.816 -0.1239  0.8135 -0.0794
 3561SOL     OW17287   1.548  12.705  12.685  0.7122  0.3464 -0.6440
 3561SOL    HW117288   1.567  12.611  12.676  1.3237  0.5208 -1.2304
 3561SOL    HW217289   1.583  12.744  12.605  2.7145  1.4082  0.6771
 3562SOL     OW17290   8.835   4.570   0.873  0.2615  0.0558 -0.2210
 3562SOL    HW117291   8.817   4.574   0.779  1.3508  0.7827 -0.4101
 3562SOL    HW217292   8.928   4.549   0.879  0.4616  1.1164  0.6741
 3563SOL     OW17293   8.218   0.114   7.665 -0.0794  0.5021  0.3031
 3563SOL    HW117294   8.238   0.082   7.752 -1.6022 -0.0079  0.5048
 3563SOL    HW217295   8.133   0.075   7.644  0.3346  0.4703 -1.4803
 3564SOL     OW17296   9.940   5.132   9.378  0.0324 -0.0726 -0.4704
 3564SOL    HW117297   9.889   5.113   9.457  2.3116 -1.9450  0.6869
 3564SOL    HW217298  10.019   5.175   9.411  0.9090 -0.6562 -1.7180
 3565SOL     OW17299   6.018   6.459   9.589 -0.4330 -0.2315 -0.9562
 3565SOL    HW117300   5.931   6.481   9.622 -0.5628 -0.3380 -1.2313
 3565SOL    HW217301   6.077   6.516   9.639 -0.5980 -0.6061 -0.3147
 3566SOL     OW17302   1.576   5.293   9.273  0.1247  0.0034 -0.1241
 3566SOL    HW117303   1.636   5.324   9.341  2.5599 -3.4577 -0.4467
 3566SOL    HW217304   1.520   5.229   9.318  0.7070 -1.1497 -1.0060
 3567SOL     OW17305  12.745   6.555   4.085  0.1979  0.4927 -0.1366
 3567SOL    HW117306  12.709   6.467   4.094  1.2137 -0.0752 -1.2653
 3567SOL    HW217307  12.793   6.569   4.167 -1.0938  0.5662  0.6280
 3568SOL     OW17308  10.930   6.205   7.956  0.3707 -0.0753 -0.1674
 3568SOL    HW117309  11.018   6.185   7.925  0.2377  0.8614 -1.1988
 3568SOL    HW217310  10.922   6.158   8.039  1.4263 -1.1012 -0.6270
 3569SOL     OW17311   9.685   1.745   9.875  0.1408 -0.2132  0.5163
 3569SOL    HW117312   9.663   1.804   9.802  1.9301  1.6855  1.3923
 3569SOL    HW217313   9.609   1.751   9.933 -0.0218  0.6926  0.2387
 3570SOL     OW17314   2.609   3.392   2.552  0.3455 -0.2474  0.0060
 3570SOL    HW117315   2.567   3.363   2.633  0.6266  0.0994  0.2799
 3570SOL    HW217316   2.615   3.487   2.561 -2.2317  0.1763 -1.6774
 3571SOL     OW17317   8.243   1.112   6.868 -0.1433 -0.0862 -0.8452
 3571SOL    HW117318   8.154   1.082   6.852 -0.1834 -0.1465 -0.5260
 3571SOL    HW217319   8.277   1.137   6.782 -0.0093 -1.2960 -1.1581
 3572SOL     OW17320   9.613   9.439   6.812 -0.5553 -0.2144 -0.1802
 3572SOL    HW117321   9.590   9.347   6.825 -0.5349 -0.1473  0.3442
 3572SOL    HW217322   9.529   9.486   6.817 -0.2444  0.1830  3.0429
 3573SOL     OW17323   7.768  11.526   1.731  0.1200 -0.1372 -0.1072
 3573SOL    HW117324   7.802  11.438   1.713  2.9900  0.8609  0.0798
 3573SOL    HW217325   7.808  11.581   1.664 -0.6237  1.2675  0.5649
 3574SOL     OW17326   6.402  12.651   2.584  0.5439  0.0581 -0.1884
 3574SOL    HW117327   6.457  12.688   2.516 -0.2659 -0.1751 -0.9962
 3574SOL    HW217328   6.325  12.617   2.537  0.9542 -2.0823  0.5731
 3575SOL     OW17329   3.203   7.067   8.026  0.1816  0.1851 -0.6450
 3575SOL    HW117330   3.159   6.989   8.060 -1.3507  0.4243 -1.9502
 3575SOL    HW217331   3.258   7.035   7.954 -0.0128  0.2351 -0.8164
 3576SOL     OW17332   5.882  11.623   2.042  0.0771 -0.0195  0.5738
 3576SOL    HW117333   5.885  11.529   2.058  0.7432  0.1332  1.3687
 3576SOL    HW217334   5.968  11.655   2.068  0.5129  0.5589 -1.3699
 3577SOL     OW17335   2.926   9.531   8.308  0.1230 -0.3381 -0.0403
 3577SOL    HW117336   2.996   9.514   8.244 -0.6919 -0.2364 -0.9867
 3577SOL    HW217337   2.850   9.555   8.254 -0.7999 -1.0052  0.9317
 3578SOL     OW17338   7.304   7.943   4.326  0.2823  0.4361 -0.2290
 3578SOL    HW117339   7.213   7.917   4.312  0.0532  0.8934  0.3432
 3578SOL    HW217340   7.329   7.988   4.246 -0.4897  1.6368  0.1766
 3579SOL     OW17341  12.004   9.762   1.034  0.0407  0.2989 -0.2678
 3579SOL    HW117342  12.014   9.832   0.970 -0.9708  0.4699 -0.2550
 3579SOL    HW217343  11.923   9.719   1.010  0.8442 -1.1302 -0.5047
 3580SOL     OW17344   7.140   1.131  12.712 -0.3560  0.6896 -0.0693
 3580SOL    HW117345   7.081   1.205  12.726 -0.5247  0.2715  1.6557
 3580SOL    HW217346   7.226   1.171  12.699 -1.0071  1.3336 -3.1726
 3581SOL     OW17347   4.786   4.167   4.238  0.2854  0.1467 -0.8000
 3581SOL    HW117348   4.858   4.227   4.220  0.3747 -0.3214 -2.0738
 3581SOL    HW217349   4.789   4.103   4.167 -0.1632 -1.0476  0.2072
 3582SOL     OW17350   8.496   5.629   2.378 -0.0938  0.6245 -0.5566
 3582SOL    HW117351   8.568   5.582   2.421 -0.8593 -0.6365 -0.5974
 3582SOL    HW217352   8.534   5.662   2.297  0.4418 -0.0726 -0.6013
 3583SOL     OW17353   4.511   2.566  12.167  0.2940 -0.2262  0.1417
 3583SOL    HW117354   4.497   2.581  12.074  1.4885 -1.6222 -0.2956
 3583SOL    HW217355   4.423   2.555  12.203 -0.1281 -2.5442 -1.3580
 3584SOL     OW17356   1.407  11.192   3.483 -0.0227 -0.0438 -0.5714
 3584SOL    HW117357   1.401  11.199   3.387 -0.4298  0.1171 -0.5368
 3584SOL    HW217358   1.442  11.105   3.498  1.7928  0.5834 -0.9166
 3585SOL     OW17359   7.293   7.452   6.581  0.6592  0.0071 -0.2324
 3585SOL    HW117360   7.367   7.449   6.519  0.1948  2.0303 -0.9481
 3585SOL    HW217361   7.282   7.545   6.601 -2.2570 -0.1112 -0.8519
 3586SOL     OW17362  12.069  11.505  12.539 -0.1465  0.3423 -0.8807
 3586SOL    HW117363  12.116  11.427  12.569  0.6029  0.9156 -0.5357
 3586SOL    HW217364  12.138  11.561  12.503 -0.6797  0.8512 -1.1142
 3587SOL     OW17365  10.191   7.739  10.528 -0.1137  0.1484  0.1651
 3587SOL    HW117366  10.142   7.660  10.550  1.2897 -0.4970  1.0932
 3587SOL    HW217367  10.124   7.807  10.517 -1.3218 -1.0929 -0.3676
 3588SOL     OW17368   7.449   0.306  12.352 -0.5427 -0.0961 -0.7324
 3588SOL    HW117369   7.382   0.262  12.299 -1.9721  0.1986  0.7432
 3588SOL    HW217370   7.477   0.380  12.298 -0.8948 -0.6128 -1.6599
 3589SOL     OW17371   1.608   0.755   6.617  0.1543  0.6102  0.1906
 3589SOL    HW117372   1.696   0.774   6.648  0.3490 -1.9404  1.5092
 3589SOL    HW217373   1.618   0.678   6.561 -1.2519  0.1560  0.5236
 3590SOL     OW17374   7.365   0.150   4.632 -0.0574  0.0366  0.4653
 3590SOL    HW117375   7.380   0.107   4.548 -0.7219  1.8832 -0.6556
 3590SOL    HW217376   7.443   0.203   4.646 -0.1760  0.1436  0.7316
 3591SOL     OW17377   4.984   3.149   7.905  0.2304  1.0214 -0.0647
 3591SOL    HW117378   4.986   3.069   7.957 -2.0623 -0.1610 -1.6065
 3591SOL    HW217379   4.930   3.209   7.956  1.3714  1.3726  0.7656
 3592SOL     OW17380   4.089   6.416   8.287 -0.2710 -0.0090  0.2421
 3592SOL    HW117381   4.080   6.344   8.225  0.0631  0.4220 -0.3151
 3592SOL    HW217382   4.152   6.384   8.352 -0.9735 -0.6381  0.6356
 3593SOL     OW17383   8.958   7.127   6.348  0.1981 -0.5426 -0.2285
 3593SOL    HW117384   8.896   7.081   6.291 -1.1817  3.3609 -2.2258
 3593SOL    HW217385   9.042   7.120   6.302  0.4229 -2.3296  0.3698
 3594SOL     OW17386   5.248   9.887  12.052  0.3537  0.5055  0.6588
 3594SOL    HW117387   5.322   9.831  12.030 -1.3851 -2.0510  0.8627
 3594SOL    HW217388   5.192   9.887  11.974 -0.9665 -0.2878  1.5671
 3595SOL     OW17389   1.886   5.270   0.864  0.0815  0.6303  0.4328
 3595SOL    HW117390   1.860   5.361   0.847  0.9074  0.9718  0.9389
 3595SOL    HW217391   1.947   5.276   0.938  3.0133  0.0992 -1.7592
 3596SOL     OW17392   3.625   6.925   5.873  0.4571  0.4253 -0.6636
 3596SOL    HW117393   3.629   6.833   5.848 -1.8262 -0.8068  2.7860
 3596SOL    HW217394   3.574   6.967   5.803 -2.4492 -1.9771 -0.1918
 3597SOL     OW17395   8.276   6.746   7.100  0.0078  0.0220  0.1769
 3597SOL    HW117396   8.252   6.765   7.009 -0.3458 -0.1738  0.2253
 3597SOL    HW217397   8.330   6.820   7.126  0.2411  0.0029 -0.2426
 3598SOL     OW17398   3.457  11.623   7.187 -0.0692 -0.3904  0.5817
 3598SOL    HW117399   3.497  11.584   7.265 -1.1603 -1.5371  0.6219
 3598SOL    HW217400   3.489  11.713   7.185  2.0515 -1.0929  0.8710
 3599SOL     OW17401   9.274   7.461   1.719  0.3556 -0.7190  0.0253
 3599SOL    HW117402   9.349   7.515   1.694  0.2662 -0.5647  0.0833
 3599SOL    HW217403   9.309   7.398   1.781  0.1165  0.4676  1.4279
 3600SOL     OW17404   4.959   8.402   7.050 -0.1591 -0.3550 -0.4578
 3600SOL    HW117405   4.908   8.349   6.989  0.3378  0.3107 -1.4817
 3600SOL    HW217406   4.958   8.352   7.131  0.0388 -1.7890 -1.3008
 3601SOL     OW17407  10.870   9.463   7.182  0.4144  0.6629  0.2170
 3601SOL    HW117408  10.781   9.427   7.178  0.3757  0.8069 -0.2855
 3601SOL    HW217409  10.927   9.388   7.169  0.3241  0.8602 -1.6485
 3602SOL     OW17410  10.883   7.530   4.840 -0.5184 -0.1687  0.0978
 3602SOL    HW117411  10.860   7.499   4.753  1.6386 -1.3698 -0.1028
 3602SOL    HW217412  10.830   7.610   4.852 -2.7538 -1.3436 -1.2379
 3603SOL     OW17413   4.244  10.765   4.432  0.4818  0.2102  0.1040
 3603SOL    HW117414   4.164  10.800   4.471  0.4273 -0.3809  0.5428
 3603SOL    HW217415   4.238  10.671   4.447  1.1463  0.1385 -0.0693
 3604SOL     OW17416   1.473   6.953   9.028  0.0695  0.0895 -0.9379
 3604SOL    HW117417   1.435   6.992   8.950 -0.8142  0.5404 -0.3104
 3604SOL    HW217418   1.475   6.859   9.011 -2.0422 -0.0386 -0.7338
 3605SOL     OW17419   8.142   6.956   7.323 -0.3559 -0.3769 -0.1764
 3605SOL    HW117420   8.187   6.960   7.239  0.7438 -1.0859  0.3503
 3605SOL    HW217421   8.178   7.029   7.373 -1.3086  0.2934 -0.4429
 3606SOL     OW17422   0.151   0.891   5.045  0.1500  0.3431  0.5083
 3606SOL    HW117423   0.152   0.981   5.078  2.2328  0.3851  0.4156
 3606SOL    HW217424   0.087   0.893   4.973 -1.4092  1.2093  1.8320
 3607SOL     OW17425   0.398   1.269   4.744  0.2757  0.0100 -0.2310
 3607SOL    HW117426   0.463   1.251   4.675 -0.0181  1.3892 -0.9103
 3607SOL    HW217427   0.358   1.352   4.717  0.0609  0.5213  1.5495
 3608SOL     OW17428   1.892   7.087  11.779  0.5338  0.4005  0.2952
 3608SOL    HW117429   1.928   7.162  11.732  0.3582  0.3707  0.1134
 3608SOL    HW217430   1.883   7.018  11.713 -1.9702  1.0917 -0.2301
 3609SOL     OW17431   7.880  12.550  12.344 -0.0742  0.3283  0.0237
 3609SOL    HW117432   7.910  12.475  12.395 -0.5934 -0.1651 -0.3803
 3609SOL    HW217433   7.838  12.607  12.407 -0.2629 -0.0385  0.2349
 3610SOL     OW17434   0.829   0.514   4.287 -0.0231  0.0679 -0.1618
 3610SOL    HW117435   0.876   0.582   4.335  0.7989  1.3771 -2.6680
 3610SOL    HW217436   0.845   0.434   4.338  0.4068  1.4150  1.9343
 3611SOL     OW17437  10.021  12.730   2.156 -0.2643 -0.0028 -0.2374
 3611SOL    HW117438  10.095  12.669   2.158  0.3506  0.7495  0.7177
 3611SOL    HW217439  10.046  12.796   2.092  1.0524  1.6004  1.7852
 3612SOL     OW17440   7.741   9.968  10.163  0.0814  0.9376  0.0927
 3612SOL    HW117441   7.651   9.941  10.180  0.6430 -0.4423  1.0964
 3612SOL    HW217442   7.750   9.963  10.068 -0.4458 -0.5552  0.0913
 3613SOL     OW17443  11.403  11.962   2.149 -0.3382  0.0493 -0.0545
 3613SOL    HW117444  11.490  11.938   2.118 -0.5701 -2.5094  0.9921
 3613SOL    HW217445  11.417  12.040   2.202  1.0717  0.5258 -1.0695
 3614SOL     OW17446   6.481   2.862   2.323  0.3680 -0.2163  0.3843
 3614SOL    HW117447   6.427   2.848   2.245 -0.9680 -1.5745  1.4913
 3614SOL    HW217448   6.541   2.787   2.325 -0.2914 -0.7391  1.1789
 3615SOL     OW17449   9.093   3.687   2.624  0.0053  0.4249  0.5702
 3615SOL    HW117450   9.094   3.652   2.713  1.4341  0.7640  0.6982
 3615SOL    HW217451   9.163   3.751   2.622  0.0675  0.3470 -0.8437
 3616SOL     OW17452   0.090  11.346   6.710  0.2502 -0.0859 -0.0915
 3616SOL    HW117453   0.103  11.440   6.704 -2.4027  0.4793  1.3558
 3616SOL    HW217454   0.027  11.326   6.640  0.1371 -0.6124  0.1550
 3617SOL     OW17455   5.074   7.382   0.608  0.5913  1.2218  0.1715
 3617SOL    HW117456   5.001   7.439   0.582  1.6584  2.1851 -0.8152
 3617SOL    HW217457   5.134   7.439   0.655  0.8338  0.4928  0.7589
 3618SOL     OW17458   4.256  11.363   9.733 -0.1085 -0.1886 -0.3763
 3618SOL    HW117459   4.214  11.292   9.780 -1.0418  1.0221  0.7100
 3618SOL    HW217460   4.221  11.443   9.774  1.7291  0.8956 -0.8055
 3619SOL     OW17461   5.734   1.029   2.234 -0.0114  0.3852  0.1103
 3619SOL    HW117462   5.765   1.004   2.321 -1.1769  0.6270  0.6197
 3619SOL    HW217463   5.741   0.949   2.182 -0.6048 -0.1481  0.8192
 3620SOL     OW17464   6.613   4.314   0.083  0.1978  0.2324 -0.2087
 3620SOL    HW117465   6.538   4.334   0.027  1.1100 -0.5604 -1.7787
 3620SOL    HW217466   6.622   4.391   0.139 -2.4040 -0.0816  0.7732
 3621SOL     OW17467   5.269   1.214   1.933  0.8928 -0.2223 -0.1101
 3621SOL    HW117468   5.281   1.159   2.011 -0.7066  1.3587  1.3308
 3621SOL    HW217469   5.175   1.209   1.914  1.0238  0.5729 -1.0550
 3622SOL     OW17470   3.965   2.069   2.201 -0.5591 -0.0308  0.2756
 3622SOL    HW117471   4.019   2.130   2.152  0.9835 -2.2981 -1.0291
 3622SOL    HW217472   3.875   2.088   2.172 -0.1246  1.5268 -0.1280
 3623SOL     OW17473  11.061   1.604   6.299 -0.1840 -0.0370  0.4000
 3623SOL    HW117474  11.119   1.654   6.357  1.0945 -1.9189  0.8332
 3623SOL    HW217475  11.098   1.616   6.212 -1.5759  2.0416  0.0116
 3624SOL     OW17476  12.550  11.705   7.901  0.1543 -0.3127  0.4649
 3624SOL    HW117477  12.551  11.618   7.860 -2.9185 -0.0050 -0.4877
 3624SOL    HW217478  12.564  11.687   7.994  2.1282 -1.5225  0.0033
 3625SOL     OW17479   7.003   0.973   1.373 -0.3437  0.0239 -0.4048
 3625SOL    HW117480   6.996   0.960   1.467  1.7027 -3.6307 -0.5423
 3625SOL    HW217481   7.088   1.015   1.361 -0.5686  0.4181 -0.6042
 3626SOL     OW17482   4.245   1.107   5.297  0.0797  0.2428  0.0887
 3626SOL    HW117483   4.263   1.148   5.381 -1.8672  1.8803 -0.2321
 3626SOL    HW217484   4.181   1.038   5.317 -0.9789  1.1442 -0.1243
 3627SOL     OW17485   0.867   8.248  12.407  0.8342  0.3770 -0.0813
 3627SOL    HW117486   0.933   8.187  12.440  0.2928  0.6125  1.5205
 3627SOL    HW217487   0.917   8.309  12.352  1.4933 -1.0472 -1.1351
 3628SOL     OW17488   0.011   1.140   8.309  0.5256  0.5476  0.4628
 3628SOL    HW117489   0.065   1.215   8.333  1.1782  0.4472 -0.5959
 3628SOL    HW217490  -0.068   1.179   8.271  1.4751  0.7492 -1.4135
 3629SOL     OW17491  10.864   2.906   5.566 -0.0341 -0.4217 -0.2771
 3629SOL    HW117492  10.916   2.983   5.584 -0.4882 -0.2394  0.2955
 3629SOL    HW217493  10.901   2.869   5.486  0.7577 -0.1198 -0.0531
 3630SOL     OW17494  11.508   3.154   3.508 -0.0091  0.4127 -0.6039
 3630SOL    HW117495  11.543   3.068   3.529 -2.1607 -0.1887  0.8221
 3630SOL    HW217496  11.414   3.141   3.501 -0.1957  2.2827 -2.4500
 3631SOL     OW17497   4.366   2.812  10.736  0.0858  0.2110 -0.1414
 3631SOL    HW117498   4.452   2.776  10.760 -0.0710  0.3052  0.5678
 3631SOL    HW217499   4.381   2.906  10.730 -0.2500  0.3762  1.2696
 3632SOL     OW17500  10.819   7.438   5.348 -0.5569  0.2714  0.0045
 3632SOL    HW117501  10.914   7.428   5.345 -0.6926 -0.9837 -1.9037
 3632SOL    HW217502  10.792   7.437   5.256 -2.8225 -4.5314  0.3848
 3633SOL     OW17503   3.021   6.878  10.347  0.5036 -0.3141  1.1286
 3633SOL    HW117504   2.927   6.865  10.338  0.6687 -1.2094  0.6222
 3633SOL    HW217505   3.050   6.905  10.260  0.7317 -0.1088  1.2657
 3634SOL     OW17506   4.212  10.040   4.041  0.4121 -0.3244  0.0415
 3634SOL    HW117507   4.164  10.123   4.035 -0.0002 -0.4781  1.0154
 3634SOL    HW217508   4.237  10.020   3.951  0.4603  0.8273 -0.2110
 3635SOL     OW17509  11.045   7.363  12.499  0.2526 -0.1489 -0.3951
 3635SOL    HW117510  11.038   7.447  12.454  0.5605 -0.1932 -0.5302
 3635SOL    HW217511  10.956   7.328  12.500  0.2927 -0.2973 -1.2675
 3636SOL     OW17512  12.599   2.923   3.327  0.3494 -0.2577 -0.2397
 3636SOL    HW117513  12.567   2.833   3.323 -1.4232  0.2394  1.6483
 3636SOL    HW217514  12.539   2.972   3.271  1.0577 -0.1371 -0.9210
 3637SOL     OW17515   0.805  11.917   3.998 -0.3172 -0.2136  0.2575
 3637SOL    HW117516   0.731  11.938   4.056 -0.4150 -1.7769  0.7306
 3637SOL    HW217517   0.782  11.833   3.959  2.2159 -2.0128  2.2478
 3638SOL     OW17518   8.392   6.823   2.802  0.4423  0.0164  0.2219
 3638SOL    HW117519   8.462   6.837   2.738  0.6375 -0.2315  0.3776
 3638SOL    HW217520   8.336   6.899   2.793  0.6675  0.1596  0.0082
 3639SOL     OW17521  10.453  11.699   7.197  0.4758 -0.0419 -0.1580
 3639SOL    HW117522  10.506  11.645   7.138 -3.0491 -3.1164 -0.8968
 3639SOL    HW217523  10.427  11.774   7.143  0.7252 -0.6394 -1.1490
 3640SOL     OW17524  10.974   9.755   9.818  0.2458  0.1127  0.5621
 3640SOL    HW117525  10.997   9.708   9.898  0.5386 -0.6408  0.0446
 3640SOL    HW217526  10.879   9.745   9.810  0.2790 -0.2003  0.5751
 3641SOL     OW17527  11.703   8.843   6.557  0.2290  0.0442 -0.0723
 3641SOL    HW117528  11.797   8.827   6.564  0.0737 -0.1388  2.8596
 3641SOL    HW217529  11.662   8.759   6.579 -0.5611  0.9056  2.0219
 3642SOL     OW17530   2.180   7.680   0.569 -0.9293 -0.1340  0.0372
 3642SOL    HW117531   2.144   7.676   0.480 -0.7405  0.4550 -0.0678
 3642SOL    HW217532   2.272   7.658   0.558 -1.2536 -1.7846  0.3254
 3643SOL     OW17533   2.630  10.568   9.878 -0.3316 -0.2785 -0.7771
 3643SOL    HW117534   2.618  10.631   9.807  0.6879  1.3120  0.3887
 3643SOL    HW217535   2.720  10.540   9.869 -0.7795 -1.6154 -1.2795
 3644SOL     OW17536   3.365  10.347   1.130  0.4442 -0.5578 -0.4554
 3644SOL    HW117537   3.399  10.265   1.096  0.1333  0.1313 -2.5677
 3644SOL    HW217538   3.356  10.403   1.053 -2.6012  0.3192  0.4020
 3645SOL     OW17539   9.668   7.866  11.105 -0.2479 -0.1307  0.4690
 3645SOL    HW117540   9.693   7.938  11.162  0.6845  1.1526 -1.4632
 3645SOL    HW217541   9.725   7.793  11.132 -0.6096  0.0770  1.8705
 3646SOL     OW17542   7.306  10.493  12.043 -0.0087 -0.0092 -0.1471
 3646SOL    HW117543   7.364  10.511  12.117 -0.6248  0.2381  0.2835
 3646SOL    HW217544   7.225  10.461  12.083 -0.0727 -0.6230 -0.7564
 3647SOL     OW17545  10.312   1.034  10.009  0.4124  0.3521  0.2626
 3647SOL    HW117546  10.361   1.028  10.091 -0.0475  1.1363  0.6103
 3647SOL    HW217547  10.220   1.039  10.036  0.2955  1.3139 -0.2505
 3648SOL     OW17548   5.576   2.126   9.232 -0.5903  0.0591 -0.5961
 3648SOL    HW117549   5.554   2.175   9.152  0.5473  1.4676 -0.1037
 3648SOL    HW217550   5.668   2.101   9.219 -0.7610 -0.7593 -0.2424
 3649SOL     OW17551   9.660   5.346   0.799 -0.2543 -0.1143  0.4431
 3649SOL    HW117552   9.675   5.366   0.891 -1.2291 -0.4577  0.6930
 3649SOL    HW217553   9.748   5.335   0.761  0.1597  0.4646  1.2242
 3650SOL     OW17554   1.073   9.900  10.843 -0.1999 -0.1321  0.1650
 3650SOL    HW117555   1.011   9.875  10.911  0.8209 -1.2743  0.7328
 3650SOL    HW217556   1.155   9.917  10.891 -0.4227  2.9449 -0.3762
 3651SOL     OW17557   9.146   6.948   4.609 -0.1331  0.0262  0.1605
 3651SOL    HW117558   9.146   6.915   4.520 -2.1024 -0.6573  0.3599
 3651SOL    HW217559   9.057   6.933   4.640  0.0255  1.8152  1.6681
 3652SOL     OW17560   0.917   5.396   1.672  0.3718  0.3488 -0.4728
 3652SOL    HW117561   0.980   5.324   1.681 -0.8867 -0.7388 -0.1158
 3652SOL    HW217562   0.883   5.387   1.583 -1.1079 -0.6438  0.1630
 3653SOL     OW17563   6.378   0.278   8.063 -0.2715 -0.0184 -0.0918
 3653SOL    HW117564   6.375   0.206   8.000 -3.1499  0.4543 -0.6323
 3653SOL    HW217565   6.316   0.252   8.132  0.0929  1.0825  0.6784
 3654SOL     OW17566  11.622   1.225  11.471  0.4468 -0.3346 -0.4920
 3654SOL    HW117567  11.592   1.316  11.461  0.5184 -0.2456  0.0642
 3654SOL    HW217568  11.638   1.216  11.565  0.0983 -1.0325 -0.4968
 3655SOL     OW17569   3.893   8.817   0.977  0.0405 -0.1034  0.7253
 3655SOL    HW117570   3.938   8.739   0.945 -0.0100 -0.0719  0.5801
 3655SOL    HW217571   3.944   8.890   0.943  0.6567 -0.0751  1.6676
 3656SOL     OW17572   5.401   2.029   4.861  0.7474  0.1406 -0.0459
 3656SOL    HW117573   5.407   1.988   4.775  1.8330 -1.0912  0.5883
 3656SOL    HW217574   5.439   1.965   4.921 -1.1606  0.4293  1.5515
 3657SOL     OW17575   4.641  10.602   9.934  0.6250  0.5123 -0.5485
 3657SOL    HW117576   4.599  10.559  10.009 -0.3977  2.1574 -0.1324
 3657SOL    HW217577   4.627  10.541   9.861 -0.9292  0.1666 -0.0144
 3658SOL     OW17578  10.231   5.420   2.001  0.1890 -0.7757 -0.1034
 3658SOL    HW117579  10.195   5.500   2.040 -1.6486 -2.3712  1.7308
 3658SOL    HW217580  10.178   5.406   1.923 -0.5860 -1.0315  0.4548
 3659SOL     OW17581  12.019   8.743  11.484 -0.0995  0.6309  0.2633
 3659SOL    HW117582  12.034   8.787  11.400 -0.8617 -1.0537 -0.8284
 3659SOL    HW217583  11.984   8.657  11.459  1.3906 -0.6451  2.2528
 3660SOL     OW17584   0.043   2.887  11.835  0.2621 -0.0771  0.4430
 3660SOL    HW117585  -0.043   2.864  11.800  0.1872  2.7660 -1.6074
 3660SOL    HW217586   0.025   2.932  11.917 -0.3898  1.5155 -0.5185
 3661SOL     OW17587   4.374   4.313   8.715  0.6278 -0.0932  0.9045
 3661SOL    HW117588   4.391   4.370   8.790  1.2011 -0.3007  0.9381
 3661SOL    HW217589   4.281   4.326   8.695  0.6696  0.5878  1.1306
 3662SOL     OW17590   0.855   2.869  12.522  0.1466  0.3956  0.4400
 3662SOL    HW117591   0.857   2.816  12.602 -0.7689 -0.7647 -0.2763
 3662SOL    HW217592   0.927   2.835  12.469 -0.1705  0.1680  0.1563
 3663SOL     OW17593  10.564  10.643   0.387  0.3728  0.2702 -0.2880
 3663SOL    HW117594  10.635  10.702   0.413  1.1694  0.1625 -2.0508
 3663SOL    HW217595  10.592  10.608   0.302 -0.9235 -1.2525 -0.1323
 3664SOL     OW17596   3.033  11.944   1.429 -0.4947 -0.5802  0.1555
 3664SOL    HW117597   3.058  11.878   1.365 -0.2685 -0.5525  0.2131
 3664SOL    HW217598   3.115  11.966   1.474 -0.6387 -0.5572  0.4129
 3665SOL     OW17599   3.695  12.647  10.035  0.1574  0.2833 -0.0959
 3665SOL    HW117600   3.773  12.621   9.986  0.7296  0.7760  0.5416
 3665SOL    HW217601   3.623  12.598   9.993  0.8390 -0.3812 -0.5132
 3666SOL     OW17602   5.197   3.916   1.075  0.5689  0.3131  0.5228
 3666SOL    HW117603   5.176   3.989   1.133 -0.1872  0.9662 -0.5385
 3666SOL    HW217604   5.128   3.852   1.091  1.2486 -0.2166  1.4747
 3667SOL     OW17605   1.641  11.653   2.158 -0.4178 -0.2408 -0.2629
 3667SOL    HW117606   1.595  11.593   2.216  0.1295  0.3727  0.8315
 3667SOL    HW217607   1.573  11.690   2.102 -1.2568  0.5333  1.2102
 3668SOL     OW17608   0.480  10.567   4.878  0.2949 -0.0666  0.6251
 3668SOL    HW117609   0.569  10.594   4.854 -0.4727  1.1185 -1.0456
 3668SOL    HW217610   0.487  10.543   4.970  2.3537 -0.0503  0.5254
 3669SOL     OW17611   1.562   3.575   8.817 -0.4753  0.1114  0.2587
 3669SOL    HW117612   1.599   3.585   8.904 -3.6212 -0.3876  1.8198
 3669SOL    HW217613   1.500   3.648   8.809  0.1823  0.5068 -1.8638
 3670SOL     OW17614   9.288   4.956   0.017  0.3318 -0.4169 -0.5657
 3670SOL    HW117615   9.201   4.940   0.053 -0.1899 -0.9203 -1.9820
 3670SOL    HW217616   9.282   4.927  -0.074  1.1300  2.2558 -1.5497
 3671SOL     OW17617   6.996  10.282   4.003  0.4406  0.2268 -0.7222
 3671SOL    HW117618   6.954  10.266   3.918  0.8681  3.6373 -1.7171
 3671SOL    HW217619   6.982  10.375   4.020  1.1120 -0.1494  2.6030
 3672SOL     OW17620   8.550  11.485  10.670 -0.3044 -0.2959  0.0451
 3672SOL    HW117621   8.576  11.449  10.755 -0.3053 -1.7101 -0.5304
 3672SOL    HW217622   8.493  11.419  10.632 -2.8308  1.6608  0.2010
 3673SOL     OW17623   6.443   8.650   9.221  0.5007  0.3504 -0.0758
 3673SOL    HW117624   6.511   8.669   9.286  1.1284  2.4555 -1.2526
 3673SOL    HW217625   6.491   8.639   9.139 -0.2699 -2.3193 -0.2872
 3674SOL     OW17626   4.926   4.567   7.601 -0.4607  0.3529 -0.2524
 3674SOL    HW117627   4.848   4.514   7.580 -2.1866  2.3526  0.7022
 3674SOL    HW217628   4.993   4.503   7.625 -1.9624 -1.4418 -0.6210
 3675SOL     OW17629   8.358  11.160  12.597  0.1978  0.0143  0.2988
 3675SOL    HW117630   8.320  11.248  12.597  2.3891  1.0171  0.6490
 3675SOL    HW217631   8.313  11.115  12.526  1.2086  2.4370 -2.0270
 3676SOL     OW17632  10.340   5.222  10.667 -0.3520 -0.0320 -0.2420
 3676SOL    HW117633  10.262   5.177  10.635 -1.4450  1.0991  0.7208
 3676SOL    HW217634  10.396   5.153  10.703 -1.3364 -0.7631 -0.0945
 3677SOL     OW17635   8.405   2.874  11.796 -0.0626 -0.3365  0.9212
 3677SOL    HW117636   8.414   2.953  11.849 -1.4029 -0.8677  1.9919
 3677SOL    HW217637   8.446   2.805  11.848  1.1813 -0.3632 -0.0487
 3678SOL     OW17638   8.036   9.973   2.195  0.2869 -0.3759 -0.1836
 3678SOL    HW117639   8.063   9.883   2.175 -1.1049 -1.1215  1.1514
 3678SOL    HW217640   8.116  10.024   2.184  1.1717 -1.8050 -0.7113
 3679SOL     OW17641   1.413   1.156   1.706 -0.9107  0.9650  0.1567
 3679SOL    HW117642   1.426   1.204   1.787 -0.6500 -0.9180  1.2820
 3679SOL    HW217643   1.466   1.077   1.715 -0.0611  1.1492 -2.2827
 3680SOL     OW17644  12.203  10.214   2.644  0.3334  0.2037  0.4211
 3680SOL    HW117645  12.279  10.237   2.697  0.4624  0.1527  0.2582
 3680SOL    HW217646  12.130  10.259   2.686  0.5883  0.9603  0.0679
 3681SOL     OW17647   7.972  12.411   5.459  0.0366  0.6746 -0.1466
 3681SOL    HW117648   8.047  12.444   5.410 -1.0984  1.1016 -1.6895
 3681SOL    HW217649   7.991  12.432   5.550  2.6527 -0.9733 -0.2241
 3682SOL     OW17650  11.805   5.735   2.180  0.7706 -0.1682 -0.0736
 3682SOL    HW117651  11.765   5.659   2.223  1.4433 -1.9147 -2.2955
 3682SOL    HW217652  11.731   5.786   2.147  0.3075 -0.7989 -0.0314
 3683SOL     OW17653   1.477   3.178   2.233 -0.6823 -0.4204  0.0938
 3683SOL    HW117654   1.497   3.094   2.193  2.1753  1.0907 -2.0315
 3683SOL    HW217655   1.542   3.188   2.303  0.4443  0.8232 -1.0607
 3684SOL     OW17656   5.391   3.881   0.057 -0.3753 -0.2167  0.2640
 3684SOL    HW117657   5.332   3.838  -0.005  0.6780 -0.0034 -0.9346
 3684SOL    HW217658   5.379   3.833   0.139  0.8840 -2.9919 -1.0362
 3685SOL     OW17659   7.438   8.094   4.861 -0.2608  0.0687  0.2439
 3685SOL    HW117660   7.378   8.061   4.928 -1.0455 -0.9869 -0.9366
 3685SOL    HW217661   7.516   8.039   4.869 -0.6628 -0.5794 -0.2095
 3686SOL     OW17662   9.579   7.501   9.209  0.6792  0.5625 -0.1355
 3686SOL    HW117663   9.633   7.559   9.263  1.4478  0.3999 -0.7057
 3686SOL    HW217664   9.492   7.540   9.211  0.0810 -0.6708  3.1009
 3687SOL     OW17665   2.230  11.982   7.213  0.0608 -0.3202 -0.1425
 3687SOL    HW117666   2.255  11.908   7.158  0.1250 -0.1833 -0.2947
 3687SOL    HW217667   2.188  11.942   7.289  2.8970 -0.7426  1.3425
 3688SOL     OW17668   6.250  10.227   5.565 -0.0335 -0.1284 -0.5210
 3688SOL    HW117669   6.292  10.142   5.577 -1.3450 -0.8328 -0.6965
 3688SOL    HW217670   6.162  10.216   5.602  0.3951  1.7662  1.2683
 3689SOL     OW17671   5.669   2.821  10.206  0.5981 -0.1526 -0.3226
 3689SOL    HW117672   5.641   2.912  10.220 -1.6280 -0.8940  0.4625
 3689SOL    HW217673   5.657   2.806  10.113  0.4977  0.2186 -0.3729
 3690SOL     OW17674   2.673   6.534  10.585  0.3800 -0.0980  0.3370
 3690SOL    HW117675   2.611   6.589  10.633  0.2081 -0.6514  0.7589
 3690SOL    HW217676   2.709   6.592  10.517  0.4370  0.6222  0.9641
 3691SOL     OW17677   8.269   0.937   0.039  0.2510 -0.2583  0.1348
 3691SOL    HW117678   8.203   0.963   0.103  0.8519  1.9538 -0.0743
 3691SOL    HW217679   8.352   0.944   0.087  0.7207  1.5793 -0.8739
 3692SOL     OW17680   3.336  12.006   9.497  0.0931 -0.2876 -0.5108
 3692SOL    HW117681   3.317  12.006   9.403  0.1081  2.2689 -0.5935
 3692SOL    HW217682   3.418  11.958   9.505  0.4987  0.1081 -1.9289
 3693SOL     OW17683   1.894   4.584  12.302 -0.7052 -0.2616 -0.5388
 3693SOL    HW117684   1.866   4.665  12.345 -1.7599 -0.2864 -1.1338
 3693SOL    HW217685   1.952   4.613  12.232 -1.4340  0.0273 -1.0345
 3694SOL     OW17686   3.246   5.608  12.067  0.1696  0.1933 -0.2271
 3694SOL    HW117687   3.296   5.527  12.059  0.6637  0.4403  0.3107
 3694SOL    HW217688   3.308   5.678  12.045 -0.9653  0.3379 -3.6905
 3695SOL     OW17689   7.647   6.981   9.675 -0.0398 -0.2664  0.6983
 3695SOL    HW117690   7.632   6.965   9.582  1.8932 -0.4233  0.3711
 3695SOL    HW217691   7.574   7.036   9.702  1.0089  2.5082 -1.6798
 3696SOL     OW17692   7.465  11.167   1.322 -0.4201  0.0137  0.1992
 3696SOL    HW117693   7.531  11.226   1.359  0.3114 -0.7706  0.1827
 3696SOL    HW217694   7.516  11.098   1.279 -1.2442  0.4111 -1.5080
 3697SOL     OW17695   0.789   1.335  10.471 -0.0806  0.3584  0.6095
 3697SOL    HW117696   0.703   1.344  10.430 -1.0758 -0.2725  2.4453
 3697SOL    HW217697   0.771   1.336  10.565  1.4941 -3.3172  1.1157
 3698SOL     OW17698  11.004   9.142   0.875  0.0329 -0.0023  0.5701
 3698SOL    HW117699  11.017   9.181   0.788  0.1835 -1.2013  0.0405
 3698SOL    HW217700  10.917   9.103   0.870  0.3012 -0.6296  0.7312
 3699SOL     OW17701  11.180   8.244   5.356 -0.0137  0.6418 -0.5146
 3699SOL    HW117702  11.184   8.198   5.440  0.9685  2.4443  0.5005
 3699SOL    HW217703  11.151   8.178   5.294  1.8620 -1.5070  0.7206
 3700SOL     OW17704   9.567   7.240   4.316  0.2846  0.3168  0.0589
 3700SOL    HW117705   9.485   7.213   4.359  0.0008 -0.0614 -0.7064
 3700SOL    HW217706   9.550   7.329   4.286  0.2434  0.3335  0.1303
 3701SOL     OW17707   2.974   4.721   9.239  0.1576 -0.1680  0.7926
 3701SOL    HW117708   3.060   4.683   9.223  1.4102  2.0299  1.7743
 3701SOL    HW217709   2.942   4.744   9.152  1.1330  0.0945  0.4845
 3702SOL     OW17710   6.420   9.180  10.891 -0.2361  0.7358 -0.4619
 3702SOL    HW117711   6.327   9.203  10.898 -0.7069  1.0101 -5.0608
 3702SOL    HW217712   6.423   9.114  10.822  3.0324  0.8823 -0.5826
 3703SOL     OW17713   0.733   6.814   2.795  0.5996 -0.8655 -0.6537
 3703SOL    HW117714   0.733   6.723   2.764  1.4590 -1.2199  0.3482
 3703SOL    HW217715   0.810   6.821   2.850  0.2754  0.3521 -0.3221
 3704SOL     OW17716  11.936   7.636  10.785  0.2403 -0.3303 -0.6701
 3704SOL    HW117717  11.857   7.675  10.747 -3.8764 -3.3170  3.7111
 3704SOL    HW217718  11.948   7.555  10.736 -0.8570 -0.9435  0.0563
 3705SOL     OW17719   4.504  10.040   7.128 -0.1191 -0.3253 -0.0813
 3705SOL    HW117720   4.412  10.068   7.129  0.8871  3.8344 -1.5149
 3705SOL    HW217721   4.514   9.993   7.045 -0.5239  1.2788 -1.0747
 3706SOL     OW17722   7.553   9.837   3.126  0.3043 -0.5605 -0.5119
 3706SOL    HW117723   7.482   9.785   3.088 -0.3062  0.2856 -0.5494
 3706SOL    HW217724   7.591   9.780   3.193 -0.7669 -0.8108 -0.1052
 3707SOL     OW17725   0.130   7.432   8.868 -0.0970  0.1596  0.2700
 3707SOL    HW117726   0.128   7.519   8.829 -0.8935  0.0956  0.1484
 3707SOL    HW217727   0.138   7.372   8.794 -0.5241  0.0896  0.2768
 3708SOL     OW17728   0.698  11.373  11.433  0.9939 -0.3046 -0.2129
 3708SOL    HW117729   0.703  11.422  11.351 -0.1357  0.0917 -0.0541
 3708SOL    HW217730   0.619  11.405  11.476 -0.4445 -3.0450 -0.6232
 3709SOL     OW17731   9.368   8.933  11.749  0.0378  0.0383 -0.4459
 3709SOL    HW117732   9.342   8.988  11.676  0.6531 -0.6514 -1.2032
 3709SOL    HW217733   9.387   8.848  11.709 -0.6545 -0.6654  0.6534
 3710SOL     OW17734   5.917   6.667  10.459  0.0842  0.4384 -0.0982
 3710SOL    HW117735   5.860   6.648  10.534 -1.2079 -0.1550 -1.1944
 3710SOL    HW217736   5.874   6.626  10.384  3.0003 -1.9371 -0.6996
 3711SOL     OW17737   7.459   6.645   2.627 -0.0390 -0.4071 -0.3131
 3711SOL    HW117738   7.429   6.578   2.566  0.5812  0.8406 -2.0749
 3711SOL    HW217739   7.530   6.690   2.580  0.1743  0.8872  1.1636
 3712SOL     OW17740  11.869   7.577   8.539  0.2006 -0.1419  0.0395
 3712SOL    HW117741  11.810   7.524   8.592  0.3585 -0.6788 -0.3180
 3712SOL    HW217742  11.956   7.546   8.561  0.4853  1.6000  1.6262
 3713SOL     OW17743   1.198   0.345   6.815  0.0787  0.2554  0.7997
 3713SOL    HW117744   1.188   0.391   6.898  3.0908 -0.1748  1.5321
 3713SOL    HW217745   1.217   0.255   6.840  1.5333  0.2178 -0.2812
 3714SOL     OW17746  12.245  12.560   0.024  0.6627 -0.2216  0.1757
 3714SOL    HW117747  12.328  12.572   0.071  1.0522  0.1026 -0.5730
 3714SOL    HW217748  12.234  12.640  -0.027  0.3873 -0.6676 -0.4868
 3715SOL     OW17749   2.771   4.391   2.600 -0.0520  0.0643 -0.0261
 3715SOL    HW117750   2.700   4.428   2.652 -2.3154 -0.7515 -2.3260
 3715SOL    HW217751   2.851   4.415   2.648 -1.7858  1.6301  2.3157
 3716SOL     OW17752   7.564   0.547  11.248  0.5135 -0.4670 -0.8205
 3716SOL    HW117753   7.540   0.622  11.193  0.4028  1.4490  1.6563
 3716SOL    HW217754   7.645   0.574  11.291 -0.5981 -0.8546  1.6811
 3717SOL     OW17755   6.615   4.149   3.090  0.3714  0.0946 -0.3019
 3717SOL    HW117756   6.539   4.207   3.088  0.1734 -0.1906 -1.9374
 3717SOL    HW217757   6.661   4.167   3.009  0.9307 -1.2204 -0.2929
 3718SOL     OW17758  11.006   5.920   9.689  0.1102 -0.2485  0.2495
 3718SOL    HW117759  11.000   5.937   9.595  0.2715  0.1658  0.3145
 3718SOL    HW217760  11.038   5.830   9.694  0.9431  0.0186 -0.0914
 3719SOL     OW17761  11.277   4.423   4.206  0.7148 -0.4155  0.3991
 3719SOL    HW117762  11.244   4.513   4.207  1.5829 -0.0800 -0.3737
 3719SOL    HW217763  11.260   4.391   4.295 -0.1224  0.3120  0.5157
 3720SOL     OW17764  12.285   1.694   0.798 -0.4455  0.1106 -0.6831
 3720SOL    HW117765  12.364   1.742   0.773 -0.4569  1.1231  1.1197
 3720SOL    HW217766  12.216   1.731   0.742 -0.1411  1.0599 -0.4383
 3721SOL     OW17767   0.668  12.145   4.834 -0.5480  0.3702  0.1376
 3721SOL    HW117768   0.638  12.215   4.776  0.2148 -0.2001 -0.9735
 3721SOL    HW217769   0.742  12.184   4.882 -0.1427  0.3499 -0.4552
 3722SOL     OW17770   6.203   4.098   7.393 -0.7093 -0.1137  0.7839
 3722SOL    HW117771   6.205   4.116   7.299 -0.2936 -0.5972  0.6966
 3722SOL    HW217772   6.236   4.179   7.433 -2.0888  0.5745  0.6004
 3723SOL     OW17773   8.778  10.219   4.746  0.2375  0.0108 -0.1726
 3723SOL    HW117774   8.778  10.130   4.781  0.6772 -0.1118 -0.4731
 3723SOL    HW217775   8.689  10.232   4.713  0.3938 -0.6244 -0.8821
 3724SOL     OW17776   2.946   1.777  12.403 -0.4398  0.3761  0.1484
 3724SOL    HW117777   3.005   1.705  12.380 -0.8942  0.1345 -0.2827
 3724SOL    HW217778   3.002   1.841  12.447  0.2809  0.4341 -0.8220
 3725SOL     OW17779   2.399   3.806   3.970 -0.1996  0.2469  0.0645
 3725SOL    HW117780   2.430   3.865   4.038 -0.7091 -0.7416  1.1886
 3725SOL    HW217781   2.304   3.817   3.971 -0.2029  0.3499 -0.6277
 3726SOL     OW17782   9.206  12.205   3.682  0.5244  0.2217 -0.0239
 3726SOL    HW117783   9.297  12.215   3.709  0.4287  0.4183  0.2223
 3726SOL    HW217784   9.200  12.252   3.599  0.5924  0.4015  0.0734
 3727SOL     OW17785   4.173   4.198   0.749 -0.4408 -0.0556  0.1365
 3727SOL    HW117786   4.240   4.209   0.817 -0.7713  1.1261  0.2955
 3727SOL    HW217787   4.207   4.245   0.673 -1.2029  0.8251  0.3151
 3728SOL     OW17788  11.302   1.940   6.140  0.0932  0.2986  0.3863
 3728SOL    HW117789  11.370   1.901   6.195  0.6468  0.5240 -0.1312
 3728SOL    HW217790  11.317   2.034   6.145 -0.1271  0.3441  0.2042
 3729SOL     OW17791   7.245   7.238   4.242 -0.0951  0.5101 -0.0557
 3729SOL    HW117792   7.274   7.327   4.224 -0.2224  0.3697 -1.0192
 3729SOL    HW217793   7.187   7.217   4.169 -0.2006 -0.2993  0.2527
 3730SOL     OW17794   0.515  11.276  11.852  0.0053 -0.6453  0.1212
 3730SOL    HW117795   0.500  11.187  11.883  0.2228 -0.7670 -0.1194
 3730SOL    HW217796   0.606  11.294  11.876  0.1543 -0.7158 -0.3883
 3731SOL     OW17797   9.988   8.518   1.674 -0.1940  0.0250 -0.4358
 3731SOL    HW117798   9.945   8.570   1.742  1.6678 -0.5217  1.2631
 3731SOL    HW217799   9.943   8.434   1.675 -0.3200  0.0958 -0.0219
 3732SOL     OW17800   0.173   9.519   0.874  0.0843 -0.3022 -0.0624
 3732SOL    HW117801   0.236   9.514   0.802  0.1549  0.2019 -0.0387
 3732SOL    HW217802   0.154   9.428   0.895  1.4023 -0.4820  0.4461
 3733SOL     OW17803   2.196   4.059  11.277  0.3083 -0.2218  0.0180
 3733SOL    HW117804   2.238   4.124  11.220 -0.0102 -0.0319 -0.0013
 3733SOL    HW217805   2.118   4.032  11.228 -0.6510  0.8647  0.9051
 3734SOL     OW17806   1.641  11.325   6.395 -0.4865  0.3176 -0.4263
 3734SOL    HW117807   1.622  11.418   6.382 -1.3259  0.1063 -0.8282
 3734SOL    HW217808   1.706  11.323   6.465 -1.8313  1.1331  0.9177
 3735SOL     OW17809  12.208   2.242   1.438  0.6851 -0.2633  0.0352
 3735SOL    HW117810  12.264   2.278   1.508  1.4075  1.0086 -1.1549
 3735SOL    HW217811  12.123   2.285   1.451  0.9840  0.4193 -0.1865
 3736SOL     OW17812   9.539   8.620   6.147  0.3069 -0.3701  0.1762
 3736SOL    HW117813   9.446   8.624   6.167  0.2215  1.5564 -0.3680
 3736SOL    HW217814   9.582   8.620   6.232 -0.1812 -1.1937  0.4298
 3737SOL     OW17815   6.093   5.563  11.689 -0.3181  0.3744 -0.0334
 3737SOL    HW117816   6.187   5.555  11.706 -0.5329 -0.8000  0.6448
 3737SOL    HW217817   6.073   5.653  11.714  0.7878  0.9395 -1.0474
 3738SOL     OW17818  10.529   9.942  11.549  0.1113  0.4421  0.3585
 3738SOL    HW117819  10.548   9.975  11.637  2.2603  0.2618  0.0122
 3738SOL    HW217820  10.443   9.979  11.528 -2.1689 -2.1885  3.8112
 3739SOL     OW17821   0.378   4.573   9.390 -0.0277 -0.2848 -0.5281
 3739SOL    HW117822   0.411   4.632   9.322  1.7407 -1.0028 -0.3442
 3739SOL    HW217823   0.365   4.629   9.466  0.2649  0.1242 -0.7752
 3740SOL     OW17824   0.480   3.231   8.982  0.4106 -0.3252 -0.5064
 3740SOL    HW117825   0.477   3.225   8.887  0.9588 -0.7212 -0.4957
 3740SOL    HW217826   0.394   3.199   9.010  0.5665 -1.0457 -0.8257
 3741SOL     OW17827   5.492   9.493   2.317  0.3492 -0.5756 -0.4119
 3741SOL    HW117828   5.400   9.501   2.292 -0.1372 -0.7575  1.2008
 3741SOL    HW217829   5.540   9.507   2.236 -1.0467  1.1493 -1.0096
 3742SOL     OW17830   4.925  12.508   9.488  0.0270  0.0102  0.0665
 3742SOL    HW117831   4.876  12.471   9.415  2.2877 -1.4503 -0.8138
 3742SOL    HW217832   4.909  12.447   9.560  0.6364 -0.5444 -0.2592
 3743SOL     OW17833   4.941   9.845   6.336 -0.2116 -0.3438 -0.1335
 3743SOL    HW117834   4.901   9.805   6.259  1.8865 -1.5378 -0.6791
 3743SOL    HW217835   4.869   9.855   6.398 -2.1502  1.4242 -2.4799
 3744SOL     OW17836   5.663  12.147   9.975 -0.1453 -0.4501 -0.5187
 3744SOL    HW117837   5.609  12.132  10.052  1.4766 -0.2240  0.7330
 3744SOL    HW217838   5.741  12.093   9.989  0.5912  0.2780 -1.5661
 3745SOL     OW17839   6.792  11.741   8.738  0.2251  0.3583 -0.3228
 3745SOL    HW117840   6.885  11.718   8.734  0.1434 -1.0120  2.7501
 3745SOL    HW217841   6.751  11.684   8.673  0.9280 -3.7189  2.3725
 3746SOL     OW17842  12.426  10.673   9.340 -0.3247  0.3094 -0.0377
 3746SOL    HW117843  12.350  10.669   9.399  1.1240 -2.7872  1.8331
 3746SOL    HW217844  12.489  10.728   9.386 -0.3052  0.4441 -0.2209
 3747SOL     OW17845   7.547   0.930   4.789  0.0151 -0.1959  0.3150
 3747SOL    HW117846   7.502   0.961   4.710  0.4957  0.3572  0.2594
 3747SOL    HW217847   7.574   0.841   4.767  3.4021  1.1235 -1.5609
 3748SOL     OW17848   0.043   0.966   4.170  0.0231  0.0234  0.0995
 3748SOL    HW117849   0.050   0.906   4.096  0.2803 -0.9731  0.8920
 3748SOL    HW217850   0.088   1.045   4.142  1.0337 -0.7159 -0.4471
 3749SOL     OW17851  11.151   4.378   3.465  0.5134  0.5954  0.3704
 3749SOL    HW117852  11.111   4.324   3.397  2.9703 -2.4074  1.0835
 3749SOL    HW217853  11.201   4.443   3.417  0.5777 -0.1879 -0.6723
 3750SOL     OW17854   8.267   8.376   3.649  0.2519 -0.2138  0.2240
 3750SOL    HW117855   8.273   8.313   3.577  0.1690  0.9381 -0.8115
 3750SOL    HW217856   8.345   8.360   3.701  1.3893  0.2846 -1.2581
 3751SOL     OW17857  12.685   1.907  12.655 -0.1098  0.0069  0.1376
 3751SOL    HW117858  12.655   1.967  12.724 -3.0332  0.8891 -1.6764
 3751SOL    HW217859  12.617   1.840  12.651  0.9972 -1.0970 -0.6027
 3752SOL     OW17860   6.430   7.428  12.093  0.2384  0.1198  0.0763
 3752SOL    HW117861   6.354   7.370  12.090 -1.2458  1.8065  1.8353
 3752SOL    HW217862   6.392   7.516  12.091  2.3556  1.0683 -1.6631
 3753SOL     OW17863  12.626   1.148   5.417  0.3863 -0.2936 -0.2095
 3753SOL    HW117864  12.554   1.097   5.381  0.6454 -0.3271 -0.6983
 3753SOL    HW217865  12.600   1.167   5.507 -0.2139 -0.3306 -0.3706
 3754SOL     OW17866   4.265   9.239  12.530 -0.2929  0.4431 -0.4094
 3754SOL    HW117867   4.336   9.216  12.590 -0.2643  1.5856  0.0238
 3754SOL    HW217868   4.221   9.156  12.512 -0.9623  0.1878  2.0211
 3755SOL     OW17869   6.089   1.371   0.977  0.5454 -0.0141  0.2194
 3755SOL    HW117870   6.048   1.285   0.965  0.5183  0.0520 -0.1518
 3755SOL    HW217871   6.071   1.418   0.896  1.2373  0.0669  0.1120
 3756SOL     OW17872  10.422   1.377   1.418 -0.6806  0.6061 -0.4020
 3756SOL    HW117873  10.383   1.328   1.346 -1.2067 -0.6081  0.6653
 3756SOL    HW217874  10.444   1.311   1.483 -0.6574  1.7057  0.7504
 3757SOL     OW17875   6.755   7.342   9.035  0.4841 -0.6895  0.5249
 3757SOL    HW117876   6.750   7.286   8.958  2.5602 -1.5883  0.9728
 3757SOL    HW217877   6.786   7.284   9.105  0.1906  0.4552  1.6476
 3758SOL     OW17878   1.619   3.924  11.123 -0.0944  0.7277  0.5834
 3758SOL    HW117879   1.669   3.845  11.104  1.4071  0.9084  3.3016
 3758SOL    HW217880   1.535   3.892  11.155  0.7969  0.1317  2.4480
 3759SOL     OW17881   4.002   6.224   3.799 -0.0811 -0.2602 -0.0783
 3759SOL    HW117882   4.075   6.276   3.765 -1.6958  1.2970 -1.3438
 3759SOL    HW217883   4.025   6.207   3.890  1.1105  1.5557  0.0009
 3760SOL     OW17884  10.344   2.298   0.017 -0.5187 -0.1206 -0.2422
 3760SOL    HW117885  10.269   2.249  -0.017  0.3745 -1.1393 -0.7876
 3760SOL    HW217886  10.416   2.277  -0.043  0.1285  1.1235  0.0638
 3761SOL     OW17887   6.684   9.357   1.758  0.2091 -0.1824  0.5945
 3761SOL    HW117888   6.759   9.318   1.803 -1.3606 -3.0841  0.9907
 3761SOL    HW217889   6.679   9.309   1.675 -0.4927  0.8178  0.0411
 3762SOL     OW17890   5.563   3.594  10.579 -0.2899  0.6303  0.2490
 3762SOL    HW117891   5.583   3.643  10.500  0.0384  0.3333  0.1450
 3762SOL    HW217892   5.584   3.654  10.651  2.2120 -0.0779  0.1888
 3763SOL     OW17893   6.646   0.711   5.848  0.6724 -0.5752 -0.1183
 3763SOL    HW117894   6.576   0.776   5.839  0.6671 -0.1572  2.1634
 3763SOL    HW217895   6.602   0.633   5.884  1.3948 -0.0535  2.0806
 3764SOL     OW17896   5.681   4.544   9.663  0.1684 -0.1171  0.1562
 3764SOL    HW117897   5.655   4.604   9.593 -0.7713  0.4160  0.9211
 3764SOL    HW217898   5.661   4.457   9.629 -0.5921  0.1559 -0.1308
 3765SOL     OW17899   3.419   7.895  10.963  0.5287 -0.9108 -0.2662
 3765SOL    HW117900   3.346   7.905  10.902  0.5723  0.8268 -0.0794
 3765SOL    HW217901   3.378   7.883  11.048  0.3936  1.0156 -0.0109
 3766SOL     OW17902  12.655   7.347   4.487  0.6634 -0.2181  0.2182
 3766SOL    HW117903  12.700   7.428   4.463  0.2580  0.1870  0.8012
 3766SOL    HW217904  12.690   7.281   4.427  1.8252  0.1418  0.4885
 3767SOL     OW17905  12.381   0.912  10.262 -0.0156  0.0678  0.5081
 3767SOL    HW117906  12.464   0.900  10.217  0.7600 -0.7092  2.0703
 3767SOL    HW217907  12.315   0.909  10.193  1.1517 -0.6932 -0.6082
 3768SOL     OW17908   3.161   9.767   1.143  0.1519 -0.4624 -0.4628
 3768SOL    HW117909   3.219   9.704   1.100  0.0928 -1.5028  0.9002
 3768SOL    HW217910   3.209   9.794   1.222 -0.8013 -0.5947  0.1780
 3769SOL     OW17911   5.716   0.179  11.962 -0.0276 -0.5454 -0.4890
 3769SOL    HW117912   5.743   0.180  11.870 -0.0451 -0.4225 -0.4937
 3769SOL    HW217913   5.787   0.224  12.007  0.2837 -1.1551 -0.3579
 3770SOL     OW17914   0.558   6.737   1.569 -0.0431 -0.1586 -0.2559
 3770SOL    HW117915   0.485   6.686   1.603  0.6294 -0.1239  1.3184
 3770SOL    HW217916   0.517   6.811   1.525 -0.9720 -0.5258 -0.0259
 3771SOL     OW17917   2.938  10.478   3.500  0.0604  0.3842  0.3242
 3771SOL    HW117918   2.928  10.570   3.522  0.6683  0.6333 -0.4150
 3771SOL    HW217919   3.018  10.451   3.546 -1.1972 -0.3298  2.2194
 3772SOL     OW17920  11.960   6.772   9.404  0.2752  0.3159  0.3862
 3772SOL    HW117921  11.892   6.798   9.466  1.0324  1.8183  0.6417
 3772SOL    HW217922  11.987   6.854   9.361  2.4668 -0.0659  0.8849
 3773SOL     OW17923  12.308  10.127   9.730  0.5584 -0.1206  0.0271
 3773SOL    HW117924  12.370  10.195   9.755  0.5901 -0.5176  1.0636
 3773SOL    HW217925  12.276  10.091   9.813 -1.0773  0.0887 -0.4679
 3774SOL     OW17926   4.182  12.710   7.939  0.0033 -0.1119  0.4226
 3774SOL    HW117927   4.118  12.668   7.882 -1.1897 -1.4779  2.6001
 3774SOL    HW217928   4.267  12.679   7.907 -0.6493 -1.0751 -0.4359
 3775SOL     OW17929   3.385   2.442   8.305  0.7254  0.1528  0.0713
 3775SOL    HW117930   3.314   2.390   8.343  1.4497 -0.7202  0.2562
 3775SOL    HW217931   3.438   2.469   8.380  0.2679  1.3161 -0.0054
 3776SOL     OW17932   5.980   7.936  12.344 -0.0858 -0.5022  0.0901
 3776SOL    HW117933   5.971   8.021  12.301 -1.7260 -0.5681  0.2600
 3776SOL    HW217934   5.991   7.957  12.437  2.1805 -0.4129 -0.1361
 3777SOL     OW17935   8.211   8.130   2.443 -0.2089  0.5262  0.3372
 3777SOL    HW117936   8.233   8.037   2.439  0.2873  0.6567 -0.1011
 3777SOL    HW217937   8.295   8.175   2.433 -0.6980  1.0620 -2.4226
 3778SOL     OW17938   2.112   2.036  10.578 -0.0540 -0.3269  0.3954
 3778SOL    HW117939   2.068   1.981  10.513 -0.0456  0.0447  0.0722
 3778SOL    HW217940   2.192   1.989  10.600 -0.2136 -0.6093  0.3776
 3779SOL     OW17941   3.615   9.064  11.284 -0.4014 -0.0016  0.5444
 3779SOL    HW117942   3.596   8.984  11.333 -1.5413  0.3373  0.6707
 3779SOL    HW217943   3.707   9.054  11.258 -0.2857 -0.9766  1.2510
 3780SOL     OW17944  12.550  11.291  12.661 -0.4274  0.5507 -0.6653
 3780SOL    HW117945  12.511  11.203  12.662 -0.9107  0.7530 -1.4536
 3780SOL    HW217946  12.628  11.283  12.716 -0.4042 -0.4040 -0.8247
 3781SOL     OW17947   8.571  11.449   3.609 -0.2388 -0.0470  0.5428
 3781SOL    HW117948   8.642  11.419   3.666 -0.1766 -3.3423 -1.0450
 3781SOL    HW217949   8.616  11.482   3.531 -0.3709 -0.7694  0.1474
 3782SOL     OW17950   9.972   4.442  12.032 -0.5706  0.0014  0.3905
 3782SOL    HW117951   9.954   4.348  12.040  0.0378 -0.2181 -0.6636
 3782SOL    HW217952   9.915   4.471  11.961 -0.6942  0.4191  0.6572
 3783SOL     OW17953   9.804  10.390  12.046  0.2119 -0.0260 -0.0675
 3783SOL    HW117954   9.720  10.370  12.088  0.0159 -0.0941 -0.4863
 3783SOL    HW217955   9.789  10.471  11.998 -0.1048 -0.8892 -1.4883
 3784SOL     OW17956   1.377  11.148   8.151 -0.2400  0.2591 -0.0749
 3784SOL    HW117957   1.376  11.179   8.242  1.6502 -0.2702  0.1807
 3784SOL    HW217958   1.337  11.219   8.101 -0.1919  1.0960  1.0320
 3785SOL     OW17959   3.654  10.909   0.074  0.3261  0.3011  0.6526
 3785SOL    HW117960   3.629  10.983   0.130  0.3183  1.1281 -0.4253
 3785SOL    HW217961   3.574  10.889   0.025  1.2594  2.0167 -1.7610
 3786SOL     OW17962  10.600  11.106   0.582  0.1067  0.3890 -0.8035
 3786SOL    HW117963  10.625  11.198   0.589 -0.6685  0.6346 -1.1479
 3786SOL    HW217964  10.595  11.089   0.488 -3.1814  1.0022 -0.8583
 3787SOL     OW17965   8.008   5.246   0.344  0.3298 -0.1808 -0.5063
 3787SOL    HW117966   8.028   5.300   0.421 -1.2877  0.9236 -0.7914
 3787SOL    HW217967   8.015   5.307   0.270 -0.3239 -0.6602 -0.9752
 3788SOL     OW17968   9.699   4.929  11.501 -0.0245 -0.1914 -0.0025
 3788SOL    HW117969   9.622   4.932  11.558 -1.7187 -1.2883 -2.0906
 3788SOL    HW217970   9.674   4.981  11.424  1.3253 -0.5457 -0.7170
 3789SOL     OW17971   9.587   6.589   3.050 -0.0075  0.0220  0.4582
 3789SOL    HW117972   9.635   6.670   3.036 -0.6265  0.2527 -0.4448
 3789SOL    HW217973   9.496   6.611   3.028  0.1107 -1.3941 -1.7813
 3790SOL     OW17974   3.565   3.974   4.291 -0.8393  0.0733  0.4274
 3790SOL    HW117975   3.512   4.028   4.349 -0.1792 -0.5251  1.6135
 3790SOL    HW217976   3.510   3.897   4.274 -0.9577  0.1646  0.3905
 3791SOL     OW17977   8.482   5.313   8.490  0.1168 -0.1970  0.4780
 3791SOL    HW117978   8.434   5.343   8.567  0.4649  0.0972  0.5847
 3791SOL    HW217979   8.419   5.320   8.418 -0.8688 -2.3637  1.0386
 3792SOL     OW17980   7.520   9.142   1.473  0.3813 -0.1365  0.4437
 3792SOL    HW117981   7.438   9.185   1.448  0.4146  0.4095  1.2568
 3792SOL    HW217982   7.541   9.179   1.559  2.5550  1.2824 -0.6205
 3793SOL     OW17983   0.157   5.526   3.248 -0.5728 -0.1381 -0.2447
 3793SOL    HW117984   0.207   5.605   3.266  0.5309 -1.0077  0.6134
 3793SOL    HW217985   0.195   5.460   3.305 -1.9153 -1.1365 -0.4596
 3794SOL     OW17986   9.843   0.558  12.728  0.2712  0.1727 -0.5000
 3794SOL    HW117987   9.930   0.528  12.703  0.2869  0.6955 -1.0809
 3794SOL    HW217988   9.834   0.531  12.819  0.0850 -2.0669 -1.1284
 3795SOL     OW17989  11.190   2.726   5.591 -0.3630 -0.4081  0.6135
 3795SOL    HW117990  11.217   2.672   5.517  0.3024  0.3139  0.3042
 3795SOL    HW217991  11.114   2.774   5.559 -3.3813 -3.7776  2.0669
 3796SOL     OW17992   2.484  12.342   6.871 -0.0244 -0.4239  0.2561
 3796SOL    HW117993   2.498  12.298   6.954  0.2828  0.8140  0.8912
 3796SOL    HW217994   2.555  12.407   6.867 -0.2674 -0.2093 -0.7860
 3797SOL     OW17995   3.174   8.020  11.757  0.3962 -0.0460  0.4610
 3797SOL    HW117996   3.118   8.085  11.713  0.7072  1.5330  2.2394
 3797SOL    HW217997   3.135   7.936  11.735 -0.6859  0.8007 -1.0578
 3798SOL     OW17998   5.694  12.620   1.278  0.4835 -0.7881  0.4036
 3798SOL    HW117999   5.664  12.690   1.337  1.0472 -0.8347  0.7471
 3798SOL    HW218000   5.717  12.548   1.336  1.1175 -0.8099  0.1277
 3799SOL     OW18001   3.766   4.142   6.642 -0.1200 -0.5474  0.4345
 3799SOL    HW118002   3.822   4.101   6.577 -0.0315 -1.9046  1.3326
 3799SOL    HW218003   3.682   4.098   6.632 -0.7816  0.7742 -0.2179
 3800SOL     OW18004   6.650   2.999  10.620  0.4422 -0.0189 -0.2835
 3800SOL    HW118005   6.584   3.053  10.576  0.1318  0.0418  0.2604
 3800SOL    HW218006   6.727   3.056  10.627 -0.4078  0.9559  1.7932
 3801SOL     OW18007   9.373  10.697   3.096  0.0334 -0.1758 -0.0328
 3801SOL    HW118008   9.322  10.773   3.127 -1.5443 -1.7525  1.4957
 3801SOL    HW218009   9.375  10.707   3.001 -2.3658  0.4881 -0.0841
 3802SOL     OW18010   9.108   9.226   0.975 -0.1121 -0.5287 -0.2055
 3802SOL    HW118011   9.146   9.171   0.905  1.5454  1.8635 -1.3320
 3802SOL    HW218012   9.017   9.237   0.949 -0.4056 -2.4125 -0.1290
 3803SOL     OW18013   5.953   4.062   0.589  0.0659 -0.0628 -0.6496
 3803SOL    HW118014   5.860   4.085   0.596 -0.0399 -0.4920 -0.6196
 3803SOL    HW218015   5.990   4.091   0.673  0.0384  0.4598 -0.8159
 3804SOL     OW18016   6.032   4.193   9.001  0.4298  0.0070  0.5608
 3804SOL    HW118017   6.093   4.208   9.074 -0.3349 -0.9863  1.4464
 3804SOL    HW218018   5.962   4.257   9.016  0.2984 -0.1624  0.6733
 3805SOL     OW18019   5.121   1.582   2.400  0.0814  0.2819  0.2946
 3805SOL    HW118020   5.038   1.548   2.366  0.8226 -1.1965 -0.1483
 3805SOL    HW218021   5.100   1.668   2.435 -1.7979 -0.4113  0.9554
 3806SOL     OW18022   4.658   1.603   7.729 -0.2800  0.5856  0.2821
 3806SOL    HW118023   4.724   1.537   7.748 -0.0803 -0.0610 -2.2565
 3806SOL    HW218024   4.652   1.656   7.809  0.9875 -1.2647  1.6683
 3807SOL     OW18025   9.123  10.925   8.996  0.1869  0.0217  0.1706
 3807SOL    HW118026   9.150  11.010   9.030  0.6481 -0.3613  0.7807
 3807SOL    HW218027   9.152  10.926   8.904  1.2388  0.0768  0.4937
 3808SOL     OW18028  11.392   5.811   0.812  0.1920  0.2223 -0.6535
 3808SOL    HW118029  11.345   5.840   0.734 -0.5538 -1.8522 -1.0617
 3808SOL    HW218030  11.386   5.715   0.809 -0.2034  0.0797  2.1700
 3809SOL     OW18031   0.287   9.520   6.704 -0.1831 -0.3409  0.2015
 3809SOL    HW118032   0.339   9.505   6.625  0.7979  0.9614  0.5643
 3809SOL    HW218033   0.269   9.614   6.703 -0.7680 -0.4330  1.1532
 3810SOL     OW18034   8.375   9.285   9.669 -0.1969 -0.4905 -0.7314
 3810SOL    HW118035   8.310   9.351   9.645  1.3799  1.3194 -0.3095
 3810SOL    HW218036   8.439   9.287   9.597 -0.3499 -1.9101 -0.9287
 3811SOL     OW18037  10.217  11.707  11.515  0.3314  0.0504 -0.5204
 3811SOL    HW118038  10.298  11.757  11.513  0.8717 -0.6972  0.7942
 3811SOL    HW218039  10.183  11.719  11.604  0.6858 -2.1628 -0.0173
 3812SOL     OW18040   1.749   3.025   4.672  0.2849  0.5312 -0.5334
 3812SOL    HW118041   1.673   3.072   4.705 -0.1347 -1.1666  1.0722
 3812SOL    HW218042   1.736   3.022   4.577 -1.7176  0.1706 -0.2828
 3813SOL     OW18043  11.924  12.274   0.880 -0.0935  0.2441 -0.1128
 3813SOL    HW118044  12.015  12.272   0.910  0.3015  0.1062 -1.2785
 3813SOL    HW218045  11.930  12.265   0.785 -1.2957  0.9446 -0.2667
 3814SOL     OW18046   2.269  12.045  11.247 -0.0684  0.2857 -0.3432
 3814SOL    HW118047   2.186  12.087  11.225 -0.2159  0.9878  1.4043
 3814SOL    HW218048   2.249  11.951  11.250  0.3511 -0.1705 -4.6637
 3815SOL     OW18049   0.419   7.206   1.525  0.8053 -0.2346  0.0926
 3815SOL    HW118050   0.489   7.223   1.588  0.3167  0.2797  0.4965
 3815SOL    HW218051   0.423   7.279   1.464  1.1637 -0.6418 -0.3856
 3816SOL     OW18052   1.330   9.822   6.873 -0.4536 -0.3547 -0.2931
 3816SOL    HW118053   1.286   9.900   6.906 -0.4520 -1.1973  1.8529
 3816SOL    HW218054   1.423   9.844   6.876 -0.5290  0.2177 -1.5636
 3817SOL     OW18055   0.014   4.425   3.845 -0.3506  0.1993 -0.3022
 3817SOL    HW118056   0.054   4.439   3.931 -0.9814  1.7070 -0.2346
 3817SOL    HW218057   0.089   4.405   3.788  0.2172  0.4702  0.3301
 3818SOL     OW18058   0.926   6.644   9.504  0.1252  0.3537  0.6440
 3818SOL    HW118059   0.998   6.582   9.491 -0.6217 -0.3437 -0.3590
 3818SOL    HW218060   0.880   6.646   9.419 -0.3460  1.6768  0.8963
 3819SOL     OW18061  12.729   4.473   6.592 -0.1023  0.7539 -0.4498
 3819SOL    HW118062  12.657   4.464   6.654 -0.7025 -2.5860 -1.4370
 3819SOL    HW218063  12.808   4.457   6.644 -0.4602 -0.2365 -0.1865
 3820SOL     OW18064   5.188  12.230   9.605  0.3870  0.0237  0.5824
 3820SOL    HW118065   5.180  12.292   9.678  2.7528  0.9748  0.1476
 3820SOL    HW218066   5.182  12.144   9.646  2.5050  0.5134  2.1303
 3821SOL     OW18067   6.599   7.765   8.983  0.0338 -0.1744 -0.1620
 3821SOL    HW118068   6.648   7.818   8.920  0.5581  0.9801  1.1663
 3821SOL    HW218069   6.510   7.761   8.947 -0.1219  1.9330 -0.1302
 3822SOL     OW18070  11.811  10.538  12.021  0.4115  0.0440 -0.1871
 3822SOL    HW118071  11.819  10.495  11.936 -1.5468  0.5079 -0.6527
 3822SOL    HW218072  11.870  10.613  12.016  2.8066 -1.6956  0.1273
 3823SOL     OW18073   8.194   1.139   4.481  0.2617  0.1975  0.0263
 3823SOL    HW118074   8.108   1.174   4.506  0.3181  1.3516 -1.2668
 3823SOL    HW218075   8.200   1.056   4.529  0.0602  1.8174  3.1487
 3824SOL     OW18076   3.016  12.294  10.601 -0.0547  0.3249 -0.2583
 3824SOL    HW118077   2.979  12.287  10.689  0.1789  0.9596 -0.1051
 3824SOL    HW218078   2.940  12.292  10.542 -0.1330 -1.9273 -0.1854
 3825SOL     OW18079   9.402  11.271  10.821  0.2597  0.2358  0.0451
 3825SOL    HW118080   9.366  11.182  10.820 -0.3463  0.4806 -0.3262
 3825SOL    HW218081   9.352  11.317  10.889  0.4924  0.3268  0.1557
 3826SOL     OW18082   3.132   9.643   5.617  0.2491  0.1841 -0.1533
 3826SOL    HW118083   3.045   9.634   5.579  0.6133 -1.2078 -0.7410
 3826SOL    HW218084   3.130   9.590   5.696  0.2128  1.1244  0.4863
 3827SOL     OW18085   3.514  10.713   3.728 -0.8738  0.1587  0.1383
 3827SOL    HW118086   3.496  10.718   3.634 -2.6243 -1.4435  0.3219
 3827SOL    HW218087   3.436  10.749   3.770 -0.9058 -0.8243  0.9700
 3828SOL     OW18088  12.190   3.759   2.009 -0.2935 -0.0638 -0.4918
 3828SOL    HW118089  12.218   3.669   2.025  1.8626  0.5580 -0.3731
 3828SOL    HW218090  12.229   3.809   2.080 -0.9055  1.0631 -0.9244
 3829SOL     OW18091  10.710   8.203   2.511  0.1814  0.3757 -0.0942
 3829SOL    HW118092  10.789   8.196   2.459  0.6706  0.0867  0.6632
 3829SOL    HW218093  10.732   8.159   2.594 -0.7175  0.4157  0.1788
 3830SOL     OW18094   7.744   7.436   5.519 -0.5010  0.2905 -0.1849
 3830SOL    HW118095   7.667   7.435   5.462  0.1100  0.2886 -1.0276
 3830SOL    HW218096   7.798   7.507   5.485 -0.3270  0.5949  0.6874
 3831SOL     OW18097   1.572   9.495   2.156 -0.4316  0.0193  0.2862
 3831SOL    HW118098   1.523   9.412   2.158  2.7096 -2.1275 -2.1165
 3831SOL    HW218099   1.505   9.561   2.136 -2.8686 -2.1137  0.7612
 3832SOL     OW18100   3.804  12.314   7.065  0.2639 -0.4690 -0.3355
 3832SOL    HW118101   3.785  12.384   7.003 -0.0605 -0.7372 -0.5442
 3832SOL    HW218102   3.895  12.329   7.091 -0.4219  1.2569  1.2582
 3833SOL     OW18103   0.929   7.910  10.109  0.1924 -0.2264 -0.4683
 3833SOL    HW118104   0.846   7.959  10.115  0.7103  0.8292 -1.4799
 3833SOL    HW218105   0.959   7.903  10.200  0.3055  1.7741 -0.3009
 3834SOL     OW18106   6.339   9.164   4.925  0.2919  0.2647 -0.3166
 3834SOL    HW118107   6.388   9.160   4.843  2.5668 -2.2714  1.0027
 3834SOL    HW218108   6.285   9.243   4.918  1.7835  1.1262 -3.4436
 3835SOL     OW18109   1.676   1.813   6.298 -0.4855 -0.1377  0.2116
 3835SOL    HW118110   1.613   1.849   6.235 -0.5884 -0.1618  0.3003
 3835SOL    HW218111   1.761   1.840   6.265 -0.5146 -0.4560 -0.1386
 3836SOL     OW18112   2.723  12.300  12.539  0.4006  0.0453  0.5852
 3836SOL    HW118113   2.756  12.259  12.619  2.0853 -2.6496 -1.3147
 3836SOL    HW218114   2.635  12.265  12.528  0.3290  0.0825  1.0277
 3837SOL     OW18115   2.704   9.844   5.497  0.1188  0.3562  0.4151
 3837SOL    HW118116   2.650   9.923   5.498  0.1405  0.4014 -0.7995
 3837SOL    HW218117   2.642   9.773   5.516 -0.8993  0.1558 -2.9201
 3838SOL     OW18118   0.250   5.178  10.143 -0.2167 -1.1772  0.2495
 3838SOL    HW118119   0.199   5.244  10.097  0.3418 -1.3757 -0.6979
 3838SOL    HW218120   0.282   5.120  10.073  2.1344 -0.4793  0.6747
 3839SOL     OW18121   7.555   7.264  11.915 -0.0986 -0.4339  0.2914
 3839SOL    HW118122   7.511   7.300  11.992  0.8528 -0.0496  0.6735
 3839SOL    HW218123   7.520   7.315  11.842  0.6606  0.7726  0.7419
 3840SOL     OW18124   6.961  11.877   6.745  0.4416 -0.2527 -0.0889
 3840SOL    HW118125   6.965  11.898   6.651 -0.8680  0.4802  0.0021
 3840SOL    HW218126   7.024  11.806   6.756  0.3349 -0.6140 -1.6025
 3841SOL     OW18127   0.501   0.695  12.177  0.4416 -0.5159  0.0204
 3841SOL    HW118128   0.563   0.671  12.247 -1.0337 -1.0272  1.2140
 3841SOL    HW218129   0.433   0.745  12.222  0.3840  0.7876 -1.4163
 3842SOL     OW18130   1.541   6.474   4.438  0.2542 -0.6551  0.1721
 3842SOL    HW118131   1.543   6.490   4.533 -0.9394  1.6664 -0.1299
 3842SOL    HW218132   1.602   6.538   4.402 -2.3380  1.3998 -0.8862
 3843SOL     OW18133   5.794   3.143   4.607  0.6133  0.6345  0.2728
 3843SOL    HW118134   5.798   3.166   4.700  2.0992  0.2284  0.3439
 3843SOL    HW218135   5.713   3.183   4.576  0.6250  1.6934  1.4962
 3844SOL     OW18136   9.017   1.499   6.931  0.8234  0.1535  0.5277
 3844SOL    HW118137   8.937   1.449   6.918  1.1335  0.2052 -2.3897
 3844SOL    HW218138   9.082   1.435   6.957  0.5926 -0.5180 -0.4944
 3845SOL     OW18139   5.084   9.910   3.616 -0.4669  0.3739 -0.0307
 3845SOL    HW118140   5.112   9.820   3.634 -0.4122  0.8635  2.9137
 3845SOL    HW218141   5.001   9.901   3.570 -1.3786 -1.2869  1.7669
 3846SOL     OW18142   9.737   3.580  12.691  0.4829  0.2928  0.3771
 3846SOL    HW118143   9.792   3.530  12.751 -1.3206  0.3029  2.1278
 3846SOL    HW218144   9.685   3.637  12.747  0.0056  1.6236 -1.3423
 3847SOL     OW18145   8.196   6.931   2.367 -0.2171  0.2079  0.3933
 3847SOL    HW118146   8.107   6.897   2.354  0.1090 -0.1888 -0.9760
 3847SOL    HW218147   8.228   6.884   2.443 -0.3288 -1.5017 -0.5482
 3848SOL     OW18148   7.455  12.133   2.305 -0.5854  0.2971 -0.4610
 3848SOL    HW118149   7.549  12.114   2.313 -0.5130  1.2606  1.4037
 3848SOL    HW218150   7.431  12.098   2.219  1.4707 -0.0000 -0.9675
 3849SOL     OW18151  11.679   6.580   3.671 -0.3229  0.1221  0.0436
 3849SOL    HW118152  11.707   6.513   3.734 -0.4924 -0.5478 -0.5797
 3849SOL    HW218153  11.701   6.663   3.713  0.3032 -0.3358  0.6372
 3850SOL     OW18154   7.700  10.768   8.124  0.3271  0.6698  0.3007
 3850SOL    HW118155   7.755  10.730   8.055  1.5051  0.6856  1.1986
 3850SOL    HW218156   7.747  10.749   8.205 -0.2915  1.9256  0.9830
 3851SOL     OW18157  12.344  10.832   5.112 -0.3020 -0.2914  0.4024
 3851SOL    HW118158  12.307  10.920   5.101  1.3986  0.3782 -0.2793
 3851SOL    HW218159  12.377  10.809   5.025  0.1883 -1.1754  0.8064
 3852SOL     OW18160   9.534  11.407   5.037  0.1354 -0.2882 -0.0859
 3852SOL    HW118161   9.572  11.319   5.046  0.7166  0.0027  0.4348
 3852SOL    HW218162   9.546  11.430   4.945 -0.6683 -1.0353 -0.3912
 3853SOL     OW18163   4.869   8.783   6.397 -0.1797  0.2959  0.0205
 3853SOL    HW118164   4.877   8.738   6.313  0.7576  0.5667 -0.0547
 3853SOL    HW218165   4.910   8.723   6.460 -1.5496 -0.2404  0.4184
 3854SOL     OW18166   0.001   7.574   4.450 -0.3639 -0.3208  0.2073
 3854SOL    HW118167   0.076   7.618   4.490 -1.0281 -0.4197  1.6105
 3854SOL    HW218168  -0.074   7.629   4.472 -0.6342  0.3707 -2.1068
 3855SOL     OW18169   3.995   2.669  11.890 -0.8658 -0.4419  0.2967
 3855SOL    HW118170   4.071   2.725  11.875 -1.1118 -0.0283  0.5961
 3855SOL    HW218171   3.976   2.632  11.804 -1.2830  0.6629 -0.0999
 3856SOL     OW18172   5.168  10.819   9.219 -0.2577  0.2766 -0.1007
 3856SOL    HW118173   5.175  10.905   9.177 -1.5623  0.7502  0.5821
 3856SOL    HW218174   5.120  10.836   9.300  0.8434 -0.8605  0.8357
 3857SOL     OW18175   6.500   2.001   4.872  0.3023 -0.0028  0.0116
 3857SOL    HW118176   6.410   1.995   4.843 -0.5023  0.9267  2.1143
 3857SOL    HW218177   6.515   1.921   4.922  0.6582 -0.1552 -0.3310
 3858SOL     OW18178   5.485  12.447   4.397  0.3905 -0.0887  0.2188
 3858SOL    HW118179   5.556  12.433   4.335  0.3325  0.7862 -0.0613
 3858SOL    HW218180   5.408  12.410   4.356  0.6191 -0.7495  0.3807
 3859SOL     OW18181   7.480   8.574  11.206  0.7075 -0.2668 -0.1046
 3859SOL    HW118182   7.478   8.579  11.111 -1.1846 -1.3753 -0.1767
 3859SOL    HW218183   7.479   8.666  11.235 -0.1799  0.0697 -1.1593
 3860SOL     OW18184  10.289   8.190   1.910  0.1479 -0.5694 -0.5322
 3860SOL    HW118185  10.228   8.237   1.966 -1.2574 -3.3579  0.4457
 3860SOL    HW218186  10.274   8.226   1.823 -1.1407  0.4972  0.1016
 3861SOL     OW18187   5.394   8.310   3.008 -0.0969  0.4141  0.1248
 3861SOL    HW118188   5.375   8.222   3.040 -0.0718  0.6729  0.8555
 3861SOL    HW218189   5.419   8.297   2.916  0.1359 -0.3642  0.2924
 3862SOL     OW18190   2.109   5.997   4.286 -0.2771 -0.3889 -0.1034
 3862SOL    HW118191   2.054   6.003   4.364 -1.3437  2.8246 -0.9253
 3862SOL    HW218192   2.064   5.934   4.229 -1.1072 -0.5442  0.6962
 3863SOL     OW18193   5.949   1.434  12.694  0.0770 -0.2746  0.2266
 3863SOL    HW118194   6.042   1.416  12.679  0.5801  0.7272  1.8971
 3863SOL    HW218195   5.922   1.369  12.759  0.2630  0.9222  1.5424
 3864SOL     OW18196   5.332   2.750   4.672 -0.0815 -0.2030  0.2170
 3864SOL    HW118197   5.390   2.824   4.689  2.5231 -2.1303  0.3772
 3864SOL    HW218198   5.376   2.700   4.603 -1.6476 -1.6943  0.2149
 3865SOL     OW18199  10.682   5.155  10.121  0.4318  0.0014  0.1599
 3865SOL    HW118200  10.672   5.061  10.104  0.4984 -0.0787  0.5657
 3865SOL    HW218201  10.599   5.193  10.094 -0.8612 -0.5788  2.9793
 3866SOL     OW18202   4.879   9.921   7.900  0.4599 -0.3398 -0.2226
 3866SOL    HW118203   4.798   9.920   7.951 -1.1388 -0.2096 -2.6219
 3866SOL    HW218204   4.868   9.853   7.834  1.3103  1.1866 -2.0335
 3867SOL     OW18205  11.733  11.922   4.661  0.3926 -0.4079  0.7841
 3867SOL    HW118206  11.639  11.937   4.666  0.1356 -1.0118 -1.1970
 3867SOL    HW218207  11.754  11.875   4.742 -0.9258  0.0803  1.4377
 3868SOL     OW18208   3.073  10.993   9.317  0.6430 -0.0867 -0.0115
 3868SOL    HW118209   3.003  10.936   9.286 -1.5153  2.8606 -0.9871
 3868SOL    HW218210   3.041  11.027   9.401  2.0784 -0.5577  0.7650
 3869SOL     OW18211  12.324   2.562   9.106  0.3344 -0.0258 -0.2600
 3869SOL    HW118212  12.283   2.640   9.143 -0.2891 -1.2105  1.7309
 3869SOL    HW218213  12.251   2.510   9.072  0.4702 -0.7506  0.5110
 3870SOL     OW18214   7.602   4.403  11.221 -0.0296 -0.2162  0.7880
 3870SOL    HW118215   7.602   4.350  11.301  0.8948 -1.0120  0.2720
 3870SOL    HW218216   7.613   4.340  11.150  1.1473  0.6589  0.1688
 3871SOL     OW18217   6.159   4.328  12.162 -0.5456  0.0653  0.6828
 3871SOL    HW118218   6.210   4.252  12.189 -1.1281  0.1492  2.1215
 3871SOL    HW218219   6.186   4.397  12.222 -2.2082  0.1557  1.3820
 3872SOL     OW18220  12.764   3.571   7.985 -0.2262  0.4686  0.1602
 3872SOL    HW118221  12.672   3.551   7.970 -0.4155  1.0059  0.5803
 3872SOL    HW218222  12.807   3.554   7.901 -0.7914  0.7099 -0.1780
 3873SOL     OW18223   0.150  12.558   8.854 -0.5647 -0.0555 -0.5270
 3873SOL    HW118224   0.170  12.650   8.875 -0.7204  0.0768 -0.9500
 3873SOL    HW218225   0.129  12.559   8.761 -1.0086 -0.4511 -0.4354
 3874SOL     OW18226   0.169   6.478   7.591  0.2455 -0.2427  0.4774
 3874SOL    HW118227   0.104   6.542   7.562 -0.5593 -1.2421  0.0313
 3874SOL    HW218228   0.218   6.456   7.512  0.0205 -0.7345  0.4705
 3875SOL     OW18229   8.828  11.284   8.285  0.1707 -0.2652  0.1525
 3875SOL    HW118230   8.857  11.324   8.367 -2.4867  2.1036  0.1134
 3875SOL    HW218231   8.817  11.192   8.306 -0.0699  0.2184  2.4102
 3876SOL     OW18232   2.714   5.679   2.500 -0.1793  0.0238 -0.2677
 3876SOL    HW118233   2.619   5.682   2.502 -0.2314 -0.3880  2.3608
 3876SOL    HW218234   2.737   5.609   2.561  1.7936  1.2000  0.4500
 3877SOL     OW18235   8.039   2.398   1.594 -0.5857 -0.2608 -0.3035
 3877SOL    HW118236   8.085   2.458   1.534  0.1838  1.0414  1.5032
 3877SOL    HW218237   7.946   2.417   1.580 -0.3665  1.1385 -0.0391
 3878SOL     OW18238   6.744   5.566   9.336  0.2650  0.2346  0.0337
 3878SOL    HW118239   6.660   5.521   9.346 -0.4322  1.4318 -0.1801
 3878SOL    HW218240   6.802   5.522   9.397 -1.0062  0.5100  1.5143
 3879SOL     OW18241  10.572  11.983   9.853 -0.3121  0.5386 -0.2570
 3879SOL    HW118242  10.545  12.024   9.935 -2.3321  3.4298 -2.1938
 3879SOL    HW218243  10.668  11.980   9.859 -0.2434  2.9420  1.2302
 3880SOL     OW18244   8.286   3.497  10.414 -0.1666  0.9878  0.0557
 3880SOL    HW118245   8.373   3.493  10.375 -0.3095 -3.0889 -0.2523
 3880SOL    HW218246   8.226   3.477  10.342 -0.8630 -1.2403  1.1434
 3881SOL     OW18247   7.115   1.086   3.352  0.2223 -0.4350  0.0013
 3881SOL    HW118248   7.168   1.023   3.400 -1.5395 -1.0137  1.3019
 3881SOL    HW218249   7.025   1.063   3.374 -0.5974  0.5508 -2.0563
 3882SOL     OW18250   7.449   8.823  11.311 -0.2067 -0.3862 -0.1189
 3882SOL    HW118251   7.483   8.873  11.385  0.5826 -0.0554 -0.6845
 3882SOL    HW218252   7.362   8.858  11.296 -0.3225 -0.3664  0.5645
 3883SOL     OW18253  12.576   2.881   0.481 -0.3196  0.0662  0.1427
 3883SOL    HW118254  12.594   2.959   0.429 -0.5363  0.5658  0.7996
 3883SOL    HW218255  12.530   2.822   0.421 -0.6788  0.6790 -0.1910
 3884SOL     OW18256   3.701   2.477   2.021 -0.4553 -0.1654  0.4686
 3884SOL    HW118257   3.670   2.441   1.938 -1.3827  0.9846  0.2960
 3884SOL    HW218258   3.786   2.516   2.001  0.3006 -1.7124  0.5394
 3885SOL     OW18259   4.888  10.996   3.083  0.3187  0.1294 -0.3694
 3885SOL    HW118260   4.954  10.931   3.059  0.6834  0.8701 -1.4977
 3885SOL    HW218261   4.826  10.995   3.009 -0.0042  0.6198 -0.1111
 3886SOL     OW18262   9.568   4.003   0.671  0.5415 -0.1648  0.6379
 3886SOL    HW118263   9.586   4.047   0.588 -1.5415 -2.7912 -1.4001
 3886SOL    HW218264   9.650   4.006   0.718  1.8880  1.2555 -1.5954
 3887SOL     OW18265   4.908   2.979   3.930  0.1877 -0.3479 -0.4636
 3887SOL    HW118266   4.869   2.948   3.848 -1.7277  1.3534 -0.2946
 3887SOL    HW218267   4.942   3.066   3.909 -1.1408  0.4980  0.6904
 3888SOL     OW18268  11.862  12.543   8.636 -0.6367  0.6633  0.0793
 3888SOL    HW118269  11.826  12.519   8.721  0.6110  0.8749  0.6901
 3888SOL    HW218270  11.808  12.617   8.607 -0.8858  0.7850  0.8337
 3889SOL     OW18271  11.096  11.896   9.993  0.7117  0.1088 -0.2193
 3889SOL    HW118272  11.053  11.815  10.019  1.7757  0.1703  1.9787
 3889SOL    HW218273  11.189  11.872   9.985  1.1100  1.1609  0.9089
 3890SOL     OW18274   0.275   4.135   6.434  0.0191 -0.1402  0.0819
 3890SOL    HW118275   0.244   4.214   6.390 -0.0216  0.5347  1.2499
 3890SOL    HW218276   0.342   4.167   6.495  0.5503 -1.1165  0.0303
 3891SOL     OW18277  10.040   0.501  11.741 -0.7204 -0.1501  0.1339
 3891SOL    HW118278   9.976   0.444  11.697  0.1593 -0.5394 -0.6653
 3891SOL    HW218279  10.052   0.462  11.827 -1.7470  0.0770  0.3948
 3892SOL     OW18280   0.843   5.343  11.499 -0.4706  0.5233 -0.5727
 3892SOL    HW118281   0.923   5.302  11.532  0.1596  1.0072 -1.4413
 3892SOL    HW218282   0.772   5.304  11.550  0.1921 -0.9525 -0.7360
 3893SOL     OW18283   8.794   2.246   2.947  0.0127 -0.2002 -0.2168
 3893SOL    HW118284   8.758   2.204   3.025  1.2670  1.7032  1.4904
 3893SOL    HW218285   8.728   2.232   2.880 -1.4144 -1.3725  1.3446
 3894SOL     OW18286   1.313   6.259  10.384 -0.0637 -0.3392 -0.7302
 3894SOL    HW118287   1.300   6.171  10.421 -0.2935  0.5680  1.4905
 3894SOL    HW218288   1.225   6.294  10.373  0.0550  0.1006 -0.3219
 3895SOL     OW18289   4.622   1.536  12.631  0.2666  0.3723  0.2342
 3895SOL    HW118290   4.642   1.509  12.542 -1.2920  1.9630 -0.6695
 3895SOL    HW218291   4.706   1.535  12.677  1.6141  2.1000 -1.9884
 3896SOL     OW18292   4.359   6.690  10.863 -0.7174  0.5522 -0.2505
 3896SOL    HW118293   4.290   6.713  10.925 -1.1487  0.0170 -0.5153
 3896SOL    HW218294   4.315   6.688  10.778 -0.5987 -0.6630 -0.3121
 3897SOL     OW18295   3.616   9.604   3.379 -0.1964 -0.1496  0.0411
 3897SOL    HW118296   3.632   9.680   3.436 -0.2305  0.2059 -0.4118
 3897SOL    HW218297   3.536   9.564   3.414 -0.9017  0.7681 -0.4737
 3898SOL     OW18298  12.181   3.114   2.332 -0.5481  0.3142 -0.2780
 3898SOL    HW118299  12.236   3.151   2.400 -0.0518 -0.4249 -0.2670
 3898SOL    HW218300  12.238   3.108   2.255 -1.1378  1.2657 -0.8100
 3899SOL     OW18301   9.014   7.244   3.332 -0.2719 -0.1233  0.7668
 3899SOL    HW118302   9.097   7.198   3.322  0.5635  1.2607  1.1027
 3899SOL    HW218303   9.019   7.284   3.419 -1.9178 -1.2322  1.4116
 3900SOL     OW18304   3.427   1.337   7.971 -0.0322 -0.1361 -0.4410
 3900SOL    HW118305   3.339   1.344   7.933  0.1903  0.1367 -0.9174
 3900SOL    HW218306   3.415   1.285   8.050 -0.3526 -1.5986 -1.4118
 3901SOL     OW18307   4.193   4.331   1.935 -0.0066  0.7886 -0.1898
 3901SOL    HW118308   4.171   4.395   2.002  0.5659  0.2742  0.5105
 3901SOL    HW218309   4.119   4.332   1.874 -0.5002  1.3144  0.4147
 3902SOL     OW18310  12.563   2.017  12.007  0.4947  0.2963 -0.3184
 3902SOL    HW118311  12.488   2.071  12.033  0.4119  0.0721 -0.0917
 3902SOL    HW218312  12.559   1.941  12.065  0.9861  0.3567 -0.2044
 3903SOL     OW18313   9.666   3.355   1.146 -0.1910 -0.0442 -0.2663
 3903SOL    HW118314   9.595   3.414   1.122  0.6030  1.0274 -0.0642
 3903SOL    HW218315   9.653   3.339   1.240 -1.0688 -1.1502 -0.5486
 3904SOL     OW18316   5.495   7.710   6.595  0.1690 -0.0419 -0.1315
 3904SOL    HW118317   5.549   7.730   6.671  0.0801  2.0577 -0.5558
 3904SOL    HW218318   5.558   7.682   6.528  0.4189 -0.3281  0.2202
 3905SOL     OW18319   8.484   2.419   0.259 -0.1532  0.2836  0.1158
 3905SOL    HW118320   8.425   2.489   0.287  0.2712  0.6780  0.0550
 3905SOL    HW218321   8.543   2.462   0.196 -0.2887 -0.2820 -0.4087
 3906SOL     OW18322   8.761   8.115   2.100 -0.3997 -0.8288  0.7565
 3906SOL    HW118323   8.738   8.206   2.121  0.6943 -0.3802  0.1113
 3906SOL    HW218324   8.794   8.079   2.182 -0.9664 -0.6859  1.0504
 3907SOL     OW18325   3.991  12.419  12.370  0.4609  0.3724  0.5296
 3907SOL    HW118326   4.001  12.460  12.284 -0.0139 -0.9360 -0.1838
 3907SOL    HW218327   4.077  12.382  12.390  0.8421  1.5301  1.0947
 3908SOL     OW18328   4.378   8.484   9.896 -0.1669  0.1323 -0.1509
 3908SOL    HW118329   4.350   8.562   9.848  1.8353  2.0252  1.5201
 3908SOL    HW218330   4.379   8.414   9.831  1.6591  2.3685 -2.7197
 3909SOL     OW18331   5.868  12.423   1.038  0.3429 -0.5079 -0.0369
 3909SOL    HW118332   5.894  12.337   1.072 -1.1020 -0.6334  0.8289
 3909SOL    HW218333   5.849  12.408   0.946  0.1440 -1.1183  0.0976
 3910SOL     OW18334  10.336   0.405   4.940  0.0956  0.2094 -0.3961
 3910SOL    HW118335  10.273   0.472   4.968 -0.3031  0.1636 -1.1631
 3910SOL    HW218336  10.285   0.345   4.887 -0.1168 -2.1093  2.2232
 3911SOL     OW18337  11.512   7.630   6.654 -0.1298 -0.6355 -0.6794
 3911SOL    HW118338  11.436   7.687   6.638  0.5388  0.5065  0.0759
 3911SOL    HW218339  11.487   7.578   6.730  0.4361  0.9274  0.6383
 3912SOL     OW18340   0.703  11.618   9.413  0.0297 -0.0775  0.0157
 3912SOL    HW118341   0.793  11.598   9.388  0.1426 -0.7659  0.9009
 3912SOL    HW218342   0.650  11.558   9.362 -0.0565  1.2591 -1.5434
 3913SOL     OW18343   1.737   3.816  12.503 -0.2114  0.2328  0.1663
 3913SOL    HW118344   1.832   3.812  12.505 -0.1417  1.7141  0.4855
 3913SOL    HW218345   1.715   3.805  12.410  0.2093 -0.7940  0.1706
 3914SOL     OW18346   0.246  10.400  10.244 -0.0013  0.2808  0.2020
 3914SOL    HW118347   0.236  10.393  10.339 -0.7946  3.1038  0.4062
 3914SOL    HW218348   0.158  10.382  10.210 -0.2296  1.3898  0.1840
 3915SOL     OW18349   2.503   3.909   6.694 -0.3859  0.4817 -0.3678
 3915SOL    HW118350   2.499   3.822   6.734 -0.0152 -0.2198 -1.8011
 3915SOL    HW218351   2.506   3.969   6.768 -0.0636 -0.7487  0.6540
 3916SOL     OW18352   1.674   2.168  10.292  0.0251 -0.0794 -0.4627
 3916SOL    HW118353   1.589   2.207  10.314 -0.2418 -0.2916 -1.0915
 3916SOL    HW218354   1.723   2.239  10.251  0.7930  0.5235  1.4129
 3917SOL     OW18355   0.027   5.033   2.624  0.3034  0.1545 -0.8014
 3917SOL    HW118356  -0.058   5.045   2.581 -0.1362 -1.8827 -0.6390
 3917SOL    HW218357   0.009   5.046   2.717 -1.0472 -4.5354 -0.1131
 3918SOL     OW18358  10.932   8.972   8.129 -0.5141  0.0473 -0.1941
 3918SOL    HW118359  10.925   8.877   8.114 -0.0309 -0.5616  2.8079
 3918SOL    HW218360  11.026   8.988   8.133 -0.6091  0.4978  0.2007
 3919SOL     OW18361  11.787   6.197   6.249  0.0097  0.4989  0.7774
 3919SOL    HW118362  11.838   6.137   6.194 -0.8830 -0.6086  1.1119
 3919SOL    HW218363  11.786   6.280   6.201 -0.5352 -0.3606 -0.7665
 3920SOL     OW18364  12.016  11.966   0.697 -0.7258  0.3006  0.1334
 3920SOL    HW118365  12.040  11.956   0.789 -0.1344  0.7912  0.0370
 3920SOL    HW218366  11.987  12.057   0.689  0.6759  0.7093 -0.4823
 3921SOL     OW18367  12.620  11.651   0.558 -0.3946 -0.1512  0.1062
 3921SOL    HW118368  12.572  11.731   0.537  0.2218 -0.3215 -2.2477
 3921SOL    HW218369  12.552  11.586   0.574 -0.9131  0.3507 -0.0219
 3922SOL     OW18370   8.888   2.086   9.607  0.4209 -0.2961 -0.6615
 3922SOL    HW118371   8.846   2.172   9.600  0.0474 -0.4461 -0.3293
 3922SOL    HW218372   8.971   2.096   9.562  0.3994  0.2534 -0.5896
 3923SOL     OW18373   2.686   8.357  10.656 -0.2932 -0.7335 -0.3795
 3923SOL    HW118374   2.674   8.435  10.602 -1.4574 -0.7245 -0.1469
 3923SOL    HW218375   2.710   8.288  10.594 -2.6918 -0.9891 -1.1330
 3924SOL     OW18376   7.366   9.360   0.470 -0.3405 -0.0401 -0.2116
 3924SOL    HW118377   7.327   9.285   0.516  0.4107  1.6846  3.7013
 3924SOL    HW218378   7.304   9.431   0.483 -0.4269  0.3962 -2.6920
 3925SOL     OW18379  10.614  11.830   9.539 -0.0827  0.3868 -0.0387
 3925SOL    HW118380  10.563  11.909   9.553 -0.5711 -0.3359  2.9457
 3925SOL    HW218381  10.549  11.761   9.523  0.2474  0.2461 -0.8397
 3926SOL     OW18382   9.868  11.616   0.158  0.9725  0.4062  0.4610
 3926SOL    HW118383   9.778  11.582   0.162  0.0231  2.1278 -2.4569
 3926SOL    HW218384   9.923  11.538   0.153 -0.0870 -0.7491  3.8964
 3927SOL     OW18385   6.486   2.772   0.998  0.3638  0.7801  0.2448
 3927SOL    HW118386   6.568   2.814   0.971 -0.6258  2.1644 -0.7486
 3927SOL    HW218387   6.433   2.844   1.032  0.0506 -0.3121  2.2169
 3928SOL     OW18388   4.209   4.701   3.762 -0.0015 -0.0851  0.1069
 3928SOL    HW118389   4.277   4.679   3.825  0.1513 -0.3881 -0.1616
 3928SOL    HW218390   4.216   4.634   3.694  0.2601  0.6055 -0.5643
 3929SOL     OW18391   6.801   2.137   3.794 -0.3064  0.5877 -0.3640
 3929SOL    HW118392   6.758   2.214   3.831 -0.7866 -0.5695  1.5978
 3929SOL    HW218393   6.730   2.074   3.783  0.6552 -1.0977  2.2395
 3930SOL     OW18394   3.091   6.552   1.279  0.6882  0.0376  0.2671
 3930SOL    HW118395   3.144   6.549   1.200  1.4775  2.4542  0.6348
 3930SOL    HW218396   3.001   6.545   1.248  0.9698  1.2116 -0.8983
 3931SOL     OW18397   3.587   9.467   9.469  0.1087 -0.1932  0.6342
 3931SOL    HW118398   3.679   9.450   9.450  0.4616  2.1175 -0.0151
 3931SOL    HW218399   3.574   9.434   9.558  1.1931 -1.7047  0.2701
 3932SOL     OW18400   9.120   2.374   9.991 -0.1312 -0.1577  0.1156
 3932SOL    HW118401   9.153   2.370  10.081  2.9752  0.9312 -0.8306
 3932SOL    HW218402   9.167   2.448   9.952 -3.6100  1.3288 -1.6288
 3933SOL     OW18403   0.891   5.771  10.055 -0.8861 -0.1017 -0.3131
 3933SOL    HW118404   0.820   5.831  10.031  0.9317  1.7067 -1.4824
 3933SOL    HW218405   0.888   5.768  10.150 -2.6990 -0.3216 -0.3428
 3934SOL     OW18406   2.497  11.473   8.744  0.1929 -0.1774  0.3766
 3934SOL    HW118407   2.513  11.500   8.834  0.9230 -1.0872  0.5278
 3934SOL    HW218408   2.500  11.554   8.694 -0.2065  0.3336  1.1596
 3935SOL     OW18409   9.102   2.224   2.586  0.1978  0.2188 -0.0580
 3935SOL    HW118410   9.080   2.135   2.614 -0.7690  0.4158 -0.1568
 3935SOL    HW218411   9.136   2.266   2.665  1.9734 -0.6215 -0.3192
 3936SOL     OW18412   1.118   4.514  10.456 -0.3909  0.4753  0.1821
 3936SOL    HW118413   1.175   4.487  10.384  0.9613  1.9798  0.6388
 3936SOL    HW218414   1.055   4.573  10.416  0.8573  1.9535  0.3196
 3937SOL     OW18415   2.822   9.052   2.629 -0.3049  0.0276 -0.1446
 3937SOL    HW118416   2.896   9.001   2.662 -0.9948 -0.3538  0.8492
 3937SOL    HW218417   2.853   9.086   2.545  0.9477 -0.2299  0.1863
 3938SOL     OW18418   5.477   4.083   1.827  0.3419 -0.0192 -0.2819
 3938SOL    HW118419   5.496   4.100   1.919 -0.9415  0.4039 -0.0695
 3938SOL    HW218420   5.508   4.160   1.781 -1.6996  1.1650  0.1872
 3939SOL     OW18421   7.593  10.416  10.314  0.2018  0.5280  0.3381
 3939SOL    HW118422   7.643  10.491  10.281 -1.0165  0.9592 -0.6224
 3939SOL    HW218423   7.644  10.340  10.285  0.0604  0.9409 -1.0983
 3940SOL     OW18424   9.456  10.267   5.667  0.3784  0.5615 -0.4291
 3940SOL    HW118425   9.506  10.221   5.600  0.0870  1.3112 -1.1722
 3940SOL    HW218426   9.423  10.346   5.624  1.1735  1.6792  0.9195
 3941SOL     OW18427   7.994   8.676   7.271 -0.2379 -0.0710  0.2821
 3941SOL    HW118428   7.927   8.742   7.291 -0.2284  0.1099 -0.2665
 3941SOL    HW218429   7.966   8.598   7.320 -2.2486 -0.8037 -1.8272
 3942SOL     OW18430   3.726  12.695   4.210  0.3019 -0.1979 -0.0422
 3942SOL    HW118431   3.727  12.670   4.117 -0.4109  0.5991 -0.2781
 3942SOL    HW218432   3.696  12.616   4.255  1.6529 -0.9241 -0.3570
 3943SOL     OW18433   1.917  12.025  11.318 -0.8218  0.1943 -0.1395
 3943SOL    HW118434   1.978  12.056  11.251 -1.8291 -0.2127 -1.2971
 3943SOL    HW218435   1.925  11.930  11.315 -0.6919  0.1842  0.5100
 3944SOL     OW18436   8.399   0.689  11.231 -0.2718 -0.4218 -0.3716
 3944SOL    HW118437   8.396   0.704  11.325 -0.2594  0.2355 -0.4694
 3944SOL    HW218438   8.432   0.771  11.195 -0.4241 -0.6147 -0.9609
 3945SOL     OW18439   3.288   4.473  11.910  0.3545 -0.3704  0.2783
 3945SOL    HW118440   3.349   4.546  11.922 -1.1916  0.8059  1.4626
 3945SOL    HW218441   3.215   4.493  11.969 -0.2227 -2.7982  0.4817
 3946SOL     OW18442   3.017   5.278   0.620  0.7266  0.5477 -0.1020
 3946SOL    HW118443   3.106   5.266   0.653  0.8731  2.0322  0.1174
 3946SOL    HW218444   3.026   5.269   0.525  0.8465 -0.6707  0.0057
 3947SOL     OW18445   0.573   4.694   8.075  0.0970  0.5674  0.1359
 3947SOL    HW118446   0.504   4.627   8.077  0.0977  0.5612 -0.0370
 3947SOL    HW218447   0.529   4.775   8.100 -0.4964  1.0323 -2.1238
 3948SOL     OW18448   0.884   4.921   8.725 -0.0206  0.2825  0.4617
 3948SOL    HW118449   0.798   4.884   8.745 -1.0122  2.4354  0.4954
 3948SOL    HW218450   0.917   4.951   8.810  1.6942 -2.2208  0.7733
 3949SOL     OW18451   5.468   5.289   2.073 -0.3487 -0.3025 -0.0117
 3949SOL    HW118452   5.548   5.338   2.094 -1.1055  0.5275  1.0409
 3949SOL    HW218453   5.473   5.211   2.128 -0.5148  0.0200  0.4681
 3950SOL     OW18454   3.542  12.562   3.486  0.2413 -0.3114  0.2043
 3950SOL    HW118455   3.633  12.546   3.462  0.0494 -0.5968 -0.3575
 3950SOL    HW218456   3.528  12.509   3.565 -0.3237 -2.9267 -1.4970
 3951SOL     OW18457  12.136   3.254   6.584  0.2455 -0.1070 -0.6407
 3951SOL    HW118458  12.089   3.232   6.504  0.1423 -1.4365 -0.2376
 3951SOL    HW218459  12.198   3.183   6.596  1.4451  0.9357 -0.4338
 3952SOL     OW18460   1.347   2.611   9.836  0.1395  0.6087  0.4457
 3952SOL    HW118461   1.299   2.597   9.755  0.6876 -1.3923  0.4040
 3952SOL    HW218462   1.302   2.557   9.901  1.6536 -0.4815  0.6469
 3953SOL     OW18463   7.136   7.731   7.425  0.1393 -0.6516  0.0536
 3953SOL    HW118464   7.167   7.740   7.515  3.2241 -0.8594 -0.8551
 3953SOL    HW218465   7.184   7.655   7.391 -0.6204 -0.3184 -1.8816
 3954SOL     OW18466   6.299  10.736   8.564 -0.2987  0.4666  0.1181
 3954SOL    HW118467   6.381  10.749   8.516  0.9686 -1.2415  1.6759
 3954SOL    HW218468   6.296  10.810   8.626 -0.3901  1.0052 -0.5202
 3955SOL     OW18469   4.674   1.457   2.291 -0.4651  0.2548 -0.1385
 3955SOL    HW118470   4.758   1.416   2.315 -0.7535  0.2526  0.9445
 3955SOL    HW218471   4.675   1.461   2.196  0.6203 -0.0656 -0.1525
 3956SOL     OW18472   6.018   6.784   0.558 -0.5231 -0.2287 -0.1705
 3956SOL    HW118473   6.062   6.829   0.486  0.9563 -2.1832 -0.5728
 3956SOL    HW218474   5.929   6.821   0.559 -0.5862 -0.1027 -2.9570
 3957SOL     OW18475   9.437   9.585   3.406  0.0638 -0.2455 -0.4947
 3957SOL    HW118476   9.453   9.493   3.383 -0.7948 -0.1437 -1.5945
 3957SOL    HW218477   9.524   9.623   3.418  0.4729 -0.8677 -1.3944
 3958SOL     OW18478  12.072   2.492   7.855 -0.0176 -0.5695  0.2469
 3958SOL    HW118479  11.994   2.484   7.911  1.3377  0.8350  2.4953
 3958SOL    HW218480  12.057   2.429   7.784 -2.0931 -2.0563  1.8739
 3959SOL     OW18481   0.650   5.738   0.809  0.5757  0.2893  0.0748
 3959SOL    HW118482   0.745   5.747   0.810  0.5749  1.1041 -2.1116
 3959SOL    HW218483   0.622   5.783   0.730 -1.8377  1.7658  1.6288
 3960SOL     OW18484   7.526   7.407  10.641  0.2673  0.2459 -0.4460
 3960SOL    HW118485   7.448   7.406  10.587  0.6876  1.9473 -1.1679
 3960SOL    HW218486   7.498   7.371  10.725 -0.9771 -0.2700 -1.0548
 3961SOL     OW18487  12.218  12.346   9.411  0.3161 -0.0163 -0.1410
 3961SOL    HW118488  12.249  12.274   9.465  0.0345  0.2695  0.4111
 3961SOL    HW218489  12.129  12.362   9.442 -0.4609 -0.9293 -1.8073
 3962SOL     OW18490   8.264   5.536   4.621  0.9632 -0.0113 -0.4197
 3962SOL    HW118491   8.203   5.480   4.575 -0.0648 -0.5477  1.4778
 3962SOL    HW218492   8.229   5.625   4.610 -0.7730 -0.3958  1.4072
 3963SOL     OW18493   8.597   9.081   4.615 -0.0078 -0.4529 -0.2429
 3963SOL    HW118494   8.569   9.156   4.667  1.1552  0.4565 -0.8885
 3963SOL    HW218495   8.539   9.010   4.642  0.0768  0.1769  1.7583
 3964SOL     OW18496   5.818   4.990  11.093 -0.0087  0.2349 -0.6705
 3964SOL    HW118497   5.729   5.018  11.071 -0.5036 -1.2675 -0.7238
 3964SOL    HW218498   5.869   5.007  11.014 -0.6728 -0.5735 -1.2903
 3965SOL     OW18499   3.348   0.628  11.933 -0.3534  0.0404 -0.0119
 3965SOL    HW118500   3.350   0.548  11.985  2.0740  0.4623  0.7007
 3965SOL    HW218501   3.425   0.621  11.876 -0.1611  1.7877 -0.0143
 3966SOL     OW18502   2.123   4.004   8.257  0.4059 -0.1093 -0.2318
 3966SOL    HW118503   2.213   3.984   8.283 -0.0414 -1.6124  0.2597
 3966SOL    HW218504   2.098   3.933   8.197 -0.7119 -0.1898  0.2891
 3967SOL     OW18505   5.383  12.137  10.867  1.0673  0.3835  0.0840
 3967SOL    HW118506   5.296  12.144  10.907  0.4948  0.3705 -1.1286
 3967SOL    HW218507   5.430  12.076  10.924  0.6732  1.2681  1.4027
 3968SOL     OW18508  11.503   2.156   8.518  0.0165 -0.4955  0.1120
 3968SOL    HW118509  11.544   2.222   8.462  0.0676 -0.9482 -0.3896
 3968SOL    HW218510  11.522   2.185   8.607  1.1191 -0.5143 -0.1092
 3969SOL     OW18511   4.796  11.097  10.635 -0.1358  0.4002 -0.5713
 3969SOL    HW118512   4.771  11.006  10.626 -0.7211  0.4841  0.1026
 3969SOL    HW218513   4.874  11.095  10.692 -1.4599  0.4421  1.3495
 3970SOL     OW18514   9.754   7.090   2.183 -0.0657 -0.0874 -0.2822
 3970SOL    HW118515   9.756   6.995   2.175  0.2962 -0.1279  0.2460
 3970SOL    HW218516   9.846   7.116   2.190 -0.1787  0.2677 -0.0630
 3971SOL     OW18517   5.035  11.930  12.507 -0.6454  0.1575  0.3718
 3971SOL    HW118518   5.015  11.845  12.468  3.5581 -1.0314  0.3634
 3971SOL    HW218519   5.084  11.976  12.439  1.6640  0.3948  2.0890
 3972SOL     OW18520   7.665  11.792   6.216  0.3892 -0.6466 -0.3417
 3972SOL    HW118521   7.600  11.851   6.177  2.0211  0.9080 -0.8222
 3972SOL    HW218522   7.746  11.843   6.218  1.2411 -1.9689  1.7289
 3973SOL     OW18523  10.022  11.784   0.848 -0.5736  0.1573  0.3721
 3973SOL    HW118524  10.051  11.849   0.784  1.3001 -1.9474 -1.0684
 3973SOL    HW218525   9.928  11.800   0.858 -0.3105  2.5723 -0.4305
 3974SOL     OW18526   7.335   5.782  12.428 -0.0676 -0.4626 -0.6094
 3974SOL    HW118527   7.398   5.850  12.406 -2.4238  2.0774 -0.0353
 3974SOL    HW218528   7.255   5.829  12.451 -1.9249 -3.4557 -0.3342
 3975SOL     OW18529  10.013   1.418   8.564  0.1137 -0.0375  0.4606
 3975SOL    HW118530   9.984   1.409   8.655 -1.1744  0.7521  0.1427
 3975SOL    HW218531   9.987   1.336   8.522 -0.2552  0.0294  0.5555
 3976SOL     OW18532   2.455   4.695   7.819  0.2506  0.2959 -0.0113
 3976SOL    HW118533   2.422   4.704   7.729  1.2920  1.6124 -0.2935
 3976SOL    HW218534   2.516   4.769   7.830  1.9877 -1.1994  0.9651
 3977SOL     OW18535  12.341   7.377   9.644  0.4113  0.1632 -0.4899
 3977SOL    HW118536  12.247   7.386   9.626  0.0850  0.7311  1.2859
 3977SOL    HW218537  12.359   7.284   9.632 -0.5788 -0.1071 -0.0197
 3978SOL     OW18538   3.068   2.177   1.611 -0.4959  0.2824  0.3236
 3978SOL    HW118539   3.150   2.213   1.645  0.7439 -1.5824 -0.5316
 3978SOL    HW218540   3.044   2.237   1.540  2.0714 -0.9587 -1.7497
 3979SOL     OW18541   0.033  10.494   8.988 -0.1366 -0.0739 -0.5099
 3979SOL    HW118542   0.064  10.536   9.068  0.1588  0.5653 -0.9519
 3979SOL    HW218543  -0.022  10.422   9.018  0.3500 -0.1279  0.2747
 3980SOL     OW18544  11.531   9.844  10.043  0.2729  0.2253 -0.5150
 3980SOL    HW118545  11.620   9.838  10.078  0.1115  1.4101  0.1716
 3980SOL    HW218546  11.507   9.754  10.021  1.4246 -0.1807 -0.1777
 3981SOL     OW18547   8.517   0.241  11.517 -0.4721 -0.1503  0.2357
 3981SOL    HW118548   8.481   0.258  11.430 -0.7943  3.1198  0.8935
 3981SOL    HW218549   8.443   0.255  11.576  0.8117  2.8592  1.3214
 3982SOL     OW18550   2.253   2.592   3.541 -0.2680 -0.0832 -0.0963
 3982SOL    HW118551   2.248   2.563   3.450 -3.6733 -0.7885  0.1759
 3982SOL    HW218552   2.306   2.672   3.538  0.9138 -0.8478 -2.4222
 3983SOL     OW18553   6.004  10.944   7.359  0.5400  0.4393 -0.4733
 3983SOL    HW118554   5.943  10.968   7.289  1.1887 -0.6177 -1.4416
 3983SOL    HW218555   5.958  10.968   7.440 -1.5089 -1.0003 -1.1194
 3984SOL     OW18556   5.419   1.391   4.075 -0.8445  0.7629  0.2080
 3984SOL    HW118557   5.435   1.321   4.138 -3.5214  0.1013  0.2883
 3984SOL    HW218558   5.438   1.351   3.990 -0.8985  0.4274  0.3524
 3985SOL     OW18559   0.076  11.856   0.382  0.0654 -0.2940 -0.2635
 3985SOL    HW118560   0.044  11.894   0.463 -0.5474 -0.6608 -0.3248
 3985SOL    HW218561  -0.002  11.844   0.328  0.5978  1.0745 -1.4018
 3986SOL     OW18562  12.679   6.910   8.127  0.1241  0.3632  0.1183
 3986SOL    HW118563  12.762   6.948   8.156 -0.3270  0.1071  1.8726
 3986SOL    HW218564  12.644   6.974   8.066  1.5274  0.5514 -0.5373
 3987SOL     OW18565   3.370   8.268   3.329 -0.4968  0.0315  0.0925
 3987SOL    HW118566   3.419   8.316   3.262  1.1480 -0.4861  0.8492
 3987SOL    HW218567   3.367   8.178   3.296  0.9823 -0.3877  0.9974
 3988SOL     OW18568   2.021   2.501  10.300  0.6549  0.2548  0.5284
 3988SOL    HW118569   2.030   2.408  10.324  0.7364  0.0223 -0.3901
 3988SOL    HW218570   2.086   2.514  10.231 -1.4580  0.2151 -1.5528
 3989SOL     OW18571   4.449   9.960   8.634 -0.3733  0.1883  0.0173
 3989SOL    HW118572   4.422  10.006   8.713 -0.1024 -1.6600  1.2680
 3989SOL    HW218573   4.374   9.905   8.612 -1.0455  1.8036 -1.9756
 3990SOL     OW18574   7.582   9.888  12.519 -0.1436  0.7537 -0.6513
 3990SOL    HW118575   7.631   9.965  12.488  0.4588  0.2149 -1.0695
 3990SOL    HW218576   7.495   9.922  12.539 -0.5414  1.1913 -2.7885
 3991SOL     OW18577   8.197   1.081  12.205  0.2793 -0.2759 -0.2975
 3991SOL    HW118578   8.183   1.018  12.275  0.9534  1.1135  1.1592
 3991SOL    HW218579   8.291   1.100  12.209  0.4111 -0.4293 -1.8504
 3992SOL     OW18580   0.991   0.270   3.113 -0.2653 -0.4767  0.4316
 3992SOL    HW118581   1.007   0.334   3.182 -1.5909  0.6333 -0.2305
 3992SOL    HW218582   0.906   0.231   3.136 -1.2003  0.5866 -1.0160
 3993SOL     OW18583   9.040   0.750  10.165  0.7077 -0.0152  0.3541
 3993SOL    HW118584   9.130   0.736  10.193  0.2864 -2.3024  0.7685
 3993SOL    HW218585   9.048   0.797  10.082  2.2361  0.5190  0.7712
 3994SOL     OW18586  12.429   2.053   6.307 -0.0256  0.2467 -0.0558
 3994SOL    HW118587  12.458   1.979   6.360 -2.8446 -0.8699  0.1151
 3994SOL    HW218588  12.428   2.127   6.367 -1.0691 -0.5207  0.9181
 3995SOL     OW18589   5.318   2.146   1.476 -0.7203 -0.5692 -0.0311
 3995SOL    HW118590   5.283   2.217   1.421 -0.4201 -1.0582 -0.8654
 3995SOL    HW218591   5.364   2.192   1.547 -1.0986  0.0675 -0.1812
 3996SOL     OW18592   7.759   1.884   7.797  0.0868 -0.1359  0.2567
 3996SOL    HW118593   7.750   1.820   7.727  0.8640 -1.2477  1.1286
 3996SOL    HW218594   7.698   1.955   7.774 -1.4294 -1.5662 -0.3127
 3997SOL     OW18595   4.713  11.353   4.816 -0.3322  0.3216  0.6697
 3997SOL    HW118596   4.678  11.358   4.727  1.9800  1.2393 -0.2812
 3997SOL    HW218597   4.724  11.259   4.832  1.2709  0.1751 -0.9435
 3998SOL     OW18598  10.838  12.699   4.725 -0.1498  0.8485 -0.1755
 3998SOL    HW118599  10.772  12.717   4.792  1.9102  0.4646  2.1392
 3998SOL    HW218600  10.911  12.661   4.774  1.4845  0.4982 -2.7035
 3999SOL     OW18601   9.087   2.085   4.323 -0.0944  0.2834 -0.8086
 3999SOL    HW118602   9.002   2.070   4.281  0.2987 -1.2904 -1.0883
 3999SOL    HW218603   9.066   2.105   4.414 -0.7968  0.8104 -1.0731
 4000SOL     OW18604   2.054  11.875   7.885  0.3291  0.1115 -0.0512
 4000SOL    HW118605   2.032  11.820   7.960 -0.8918 -0.1233 -0.5431
 4000SOL    HW218606   1.978  11.866   7.826  1.6104 -0.3905 -1.7039
 4001SOL     OW18607   8.456  10.108  12.185 -0.0871 -0.1846  0.1181
 4001SOL    HW118608   8.435  10.016  12.173  0.1273 -0.0959 -1.0023
 4001SOL    HW218609   8.552  10.110  12.193 -0.0627 -0.0296 -0.1996
 4002SOL     OW18610   3.456   4.394  10.193 -0.2428  0.2014  0.3371
 4002SOL    HW118611   3.470   4.458  10.263  1.3209  0.8566 -0.5189
 4002SOL    HW218612   3.430   4.314  10.238 -0.7008  1.0006  1.5438
 4003SOL     OW18613   8.552   0.227   2.550  0.4967  0.4350 -0.1019
 4003SOL    HW118614   8.544   0.136   2.579 -1.5576  0.5231 -0.2425
 4003SOL    HW218615   8.635   0.230   2.502 -0.6292 -2.0431 -2.4103
 4004SOL     OW18616   6.532   1.177   7.988 -0.0304  0.5241  0.2727
 4004SOL    HW118617   6.450   1.136   8.015  0.5302 -0.1742  0.9550
 4004SOL    HW218618   6.563   1.222   8.067  1.1257 -0.7021  0.5587
 4005SOL     OW18619  10.327  12.020   4.877  0.4554  0.0605 -0.3506
 4005SOL    HW118620  10.358  12.093   4.930 -1.2233  0.2968  0.3606
 4005SOL    HW218621  10.338  11.943   4.933  1.6756 -0.1870 -0.8860
 4006SOL     OW18622   0.960   3.109  12.600 -0.2443 -0.0714  0.1727
 4006SOL    HW118623   0.894   3.043  12.578 -1.1822 -0.2562  3.0503
 4006SOL    HW218624   0.929   3.190  12.559  0.5606 -1.1649 -2.8270
 4007SOL     OW18625   4.300   5.126   9.607  0.2230  0.1690  0.2645
 4007SOL    HW118626   4.270   5.062   9.672 -2.2354  3.1378  2.3385
 4007SOL    HW218627   4.373   5.171   9.650  1.9615 -1.0993 -1.1929
 4008SOL     OW18628   8.171   0.888   4.608  0.1249 -0.0794  0.1938
 4008SOL    HW118629   8.241   0.856   4.665  0.4429 -1.7578 -1.0551
 4008SOL    HW218630   8.092   0.879   4.660  0.1475 -3.3750 -0.1336
 4009SOL     OW18631   4.329   8.252   8.663  0.2661 -0.1422  0.1152
 4009SOL    HW118632   4.350   8.265   8.756 -0.5789  0.8349  0.1828
 4009SOL    HW218633   4.407   8.282   8.617  1.0188 -1.4001  0.5228
 4010SOL     OW18634   9.009   7.908   3.977  0.3103  0.0843  0.1974
 4010SOL    HW118635   8.923   7.896   4.019  0.5343  1.9482  1.3303
 4010SOL    HW218636   9.046   7.985   4.021  1.2176  1.2662 -2.4007
 4011SOL     OW18637  12.230   1.341   4.659 -0.0310  0.5508 -0.3711
 4011SOL    HW118638  12.213   1.247   4.649  0.2443  0.3661  0.7254
 4011SOL    HW218639  12.290   1.363   4.587 -0.2258 -0.0754 -0.7300
 4012SOL     OW18640  10.215   9.691   1.914  0.6388  0.3631  0.3003
 4012SOL    HW118641  10.264   9.627   1.862  0.2882 -0.3509  0.8409
 4012SOL    HW218642  10.218   9.771   1.861 -0.6539 -0.6276 -1.3823
 4013SOL     OW18643   7.783   8.360   6.133 -0.1533  0.0667 -0.1968
 4013SOL    HW118644   7.737   8.300   6.074  3.4597 -1.5478 -1.7089
 4013SOL    HW218645   7.784   8.444   6.087 -1.9391  0.2924  0.1298
 4014SOL     OW18646   2.988   8.547   4.838 -0.0857  0.0555  0.2885
 4014SOL    HW118647   2.943   8.618   4.793  1.1060  1.7511  1.6643
 4014SOL    HW218648   3.038   8.503   4.769 -1.0022  0.3909 -0.6163
 4015SOL     OW18649  12.502   2.213  11.098 -0.2715  0.2816 -0.0318
 4015SOL    HW118650  12.436   2.248  11.158 -1.1251 -0.4734 -0.4928
 4015SOL    HW218651  12.576   2.273  11.105 -1.2891  1.5750 -0.0370
 4016SOL     OW18652   3.852   3.210   4.966 -0.1067 -0.2238 -0.0479
 4016SOL    HW118653   3.911   3.282   4.988 -0.0295 -0.6510  1.2798
 4016SOL    HW218654   3.765   3.243   4.988 -0.0382 -0.6230  0.8974
 4017SOL     OW18655   0.560   4.827   6.360  0.5978 -0.5627  0.4024
 4017SOL    HW118656   0.624   4.885   6.320 -1.5242  2.1222  0.6347
 4017SOL    HW218657   0.492   4.816   6.294  0.2191 -1.6024  0.9296
 4018SOL     OW18658   3.439   3.304   5.065 -0.0184  0.2206 -0.6097
 4018SOL    HW118659   3.378   3.254   5.010  0.0372  0.1220 -0.5821
 4018SOL    HW218660   3.487   3.237   5.114  0.7397  0.2561 -1.2939
 4019SOL     OW18661   8.573   1.999   0.889  0.0719  0.7008  0.0413
 4019SOL    HW118662   8.491   2.048   0.891 -0.3802 -0.0526  1.7717
 4019SOL    HW218663   8.557   1.928   0.826 -0.3507  0.9579 -0.1465
 4020SOL     OW18664   3.441   7.470   4.276 -0.5178 -0.1335 -0.1185
 4020SOL    HW118665   3.510   7.409   4.247  0.3508  0.4137  0.7333
 4020SOL    HW218666   3.427   7.449   4.368 -1.2207  0.0245 -0.1847
 4021SOL     OW18667   2.094   4.125   3.984  0.2833 -0.7439  0.4346
 4021SOL    HW118668   2.023   4.138   3.921  1.3477  0.8385 -0.4774
 4021SOL    HW218669   2.147   4.204   3.978  2.4317 -2.0979  0.7384
 4022SOL     OW18670   9.929   9.659  12.653  0.2487 -0.3813 -0.2133
 4022SOL    HW118671   9.989   9.679  12.725 -0.3935  0.8160  0.0243
 4022SOL    HW218672   9.949   9.724  12.586 -0.0924 -0.6105 -0.5442
 4023SOL     OW18673   3.275   8.297   7.412  0.0823  0.0293 -0.4770
 4023SOL    HW118674   3.302   8.209   7.388 -0.2466 -0.1851 -0.0537
 4023SOL    HW218675   3.181   8.299   7.397 -0.0923 -0.0325  0.5670
 4024SOL     OW18676  10.265  11.494   8.248  0.0316  0.7173 -0.0056
 4024SOL    HW118677  10.309  11.579   8.248 -0.1168  0.8440 -1.7959
 4024SOL    HW218678  10.195  11.504   8.183 -0.2442 -0.6459  0.0605
 4025SOL     OW18679   6.653   5.432   4.949 -0.0563 -0.4836 -0.2371
 4025SOL    HW118680   6.717   5.487   4.993  1.5688 -2.8271  0.5444
 4025SOL    HW218681   6.611   5.489   4.885  1.7194  1.5321  0.3102
 4026SOL     OW18682  10.117   6.374   3.308  0.1706 -0.4811 -0.2991
 4026SOL    HW118683  10.041   6.394   3.362  0.1723  0.1688 -0.5309
 4026SOL    HW218684  10.191   6.377   3.369  0.1625  0.1677 -0.3124
 4027SOL     OW18685   1.245   3.253   6.316 -0.3088  0.8888  0.1385
 4027SOL    HW118686   1.158   3.230   6.283  0.9071 -0.4152 -2.4644
 4027SOL    HW218687   1.238   3.346   6.337 -2.1569  0.9844 -0.6306
 4028SOL     OW18688  10.695   8.423   8.244  0.1390 -0.0048 -0.1282
 4028SOL    HW118689  10.638   8.346   8.252 -0.1543  0.3701  1.6888
 4028SOL    HW218690  10.681   8.472   8.324  0.3385  1.9770 -1.2495
 4029SOL     OW18691   6.230   8.833   8.733 -1.1162 -0.4874  0.4805
 4029SOL    HW118692   6.145   8.808   8.770 -1.5048 -0.0327 -0.0966
 4029SOL    HW218693   6.221   8.925   8.710 -0.4012 -0.3849  0.5844
 4030SOL     OW18694   5.233  11.830   0.208 -0.4899 -0.2959 -0.1179
 4030SOL    HW118695   5.220  11.857   0.117  0.9911 -0.7258 -0.4836
 4030SOL    HW218696   5.268  11.907   0.251  1.6764 -0.8884 -0.6608
 4031SOL     OW18697   4.586   7.106   0.555  0.3614  0.1669  0.5419
 4031SOL    HW118698   4.606   7.199   0.570 -1.0210  1.1390 -2.5469
 4031SOL    HW218699   4.516   7.086   0.616  2.6782  0.1348  3.3813
 4032SOL     OW18700   2.163   0.883   6.154  0.5856  0.2466  0.3485
 4032SOL    HW118701   2.217   0.892   6.232 -0.6619  0.6235  1.1986
 4032SOL    HW218702   2.189   0.957   6.098 -0.9589  2.1665  1.9735
 4033SOL     OW18703  10.857  11.892   3.686 -0.3983 -0.2609 -0.2002
 4033SOL    HW118704  10.927  11.831   3.711 -1.1554 -0.6335  1.0984
 4033SOL    HW218705  10.796  11.890   3.760 -0.7881  1.5649 -0.4430
 4034SOL     OW18706   6.605   6.376   2.552 -0.3210 -0.2697  0.0777
 4034SOL    HW118707   6.693   6.348   2.577 -0.4493  0.4687  1.5082
 4034SOL    HW218708   6.581   6.440   2.619 -0.6855  1.9917 -2.0735
 4035SOL     OW18709  11.128  12.192   9.084  0.0255  0.1225 -0.3228
 4035SOL    HW118710  11.183  12.270   9.081 -1.2754  1.1002  0.0535
 4035SOL    HW218711  11.181  12.124   9.043  0.9023  1.3870 -1.3917
 4036SOL     OW18712   9.987   5.267   7.193  0.2575 -0.3971  0.6254
 4036SOL    HW118713  10.019   5.241   7.279  0.0394  1.0346  1.1744
 4036SOL    HW218714   9.947   5.353   7.207  2.8929  1.3540 -1.4351
 4037SOL     OW18715  12.625   6.363   4.269 -0.0369  0.6833 -0.5313
 4037SOL    HW118716  12.554   6.304   4.243  0.8635  0.6560 -3.2741
 4037SOL    HW218717  12.688   6.306   4.313 -0.8162  0.3499  0.1860
 4038SOL     OW18718   6.019   7.515   7.933 -0.2152  0.1149  0.4604
 4038SOL    HW118719   6.096   7.571   7.941 -0.7259  1.3050 -1.9512
 4038SOL    HW218720   5.955   7.552   7.994 -0.5610  2.3519 -1.1178
 4039SOL     OW18721   3.392  11.557  10.031 -0.1499 -0.0213  0.2042
 4039SOL    HW118722   3.396  11.546  10.126  0.8069  0.6105  0.2521
 4039SOL    HW218723   3.409  11.469   9.996 -0.6580 -0.2897  0.6018
 4040SOL     OW18724   7.163  10.959   9.612 -0.2328  0.3325  0.1996
 4040SOL    HW118725   7.252  10.990   9.625 -0.6046  2.3372 -1.4911
 4040SOL    HW218726   7.150  10.960   9.517 -1.6066 -1.3579  0.3097
 4041SOL     OW18727   2.588   3.519   8.319  0.8299  0.1051  0.1008
 4041SOL    HW118728   2.602   3.570   8.399  0.0032  0.8709 -0.2297
 4041SOL    HW218729   2.519   3.566   8.272 -1.2903 -2.2713  0.6236
 4042SOL     OW18730   1.442   4.660   5.257  0.8276  0.1079  0.0413
 4042SOL    HW118731   1.456   4.698   5.344 -2.3693  0.5795  0.4884
 4042SOL    HW218732   1.466   4.730   5.196  3.9295 -0.5152  0.3742
 4043SOL     OW18733  11.801   0.120   3.935 -0.1887  0.2131 -0.1842
 4043SOL    HW118734  11.874   0.083   3.886  0.8406  0.1392  1.3165
 4043SOL    HW218735  11.723   0.098   3.884  0.7273 -0.8192 -1.1841
 4044SOL     OW18736   2.257  11.884  11.609  0.0127 -0.1481  0.1449
 4044SOL    HW118737   2.272  11.897  11.703  0.4134  0.7180 -0.0278
 4044SOL    HW218738   2.254  11.973  11.573  0.0168 -0.4775 -0.6861
 4045SOL     OW18739  12.578   7.696   6.545 -0.1688 -0.3003  0.1236
 4045SOL    HW118740  12.616   7.647   6.472 -0.4388 -0.1284 -0.1361
 4045SOL    HW218741  12.563   7.630   6.613  1.3655 -0.2259  0.5567
 4046SOL     OW18742   5.592   7.731   2.860 -0.2219 -0.6882  0.8705
 4046SOL    HW118743   5.530   7.683   2.804  0.2660 -0.7869  0.4102
 4046SOL    HW218744   5.657   7.766   2.800  0.5471 -1.1417  1.4066
 4047SOL     OW18745  12.587  11.547   1.780 -0.3850 -0.0587 -0.0298
 4047SOL    HW118746  12.623  11.604   1.847 -0.1583 -1.9744  1.5802
 4047SOL    HW218747  12.495  11.534   1.805 -0.0296 -1.6462  0.6026
 4048SOL     OW18748   3.303  12.524   6.709  0.0232 -0.5842  0.0349
 4048SOL    HW118749   3.347  12.444   6.681 -0.4041 -1.9919  3.0433
 4048SOL    HW218750   3.369  12.572   6.759  0.2236  0.9538 -1.5891
 4049SOL     OW18751   5.461  10.322   7.800 -1.2890  0.7426 -0.1521
 4049SOL    HW118752   5.449  10.365   7.715 -1.5697  0.6133 -0.1814
 4049SOL    HW218753   5.448  10.229   7.782  1.0358  0.4188 -0.4201
 4050SOL     OW18754   0.977   3.869   2.787 -0.0867  0.3629  0.3541
 4050SOL    HW118755   0.898   3.876   2.733 -0.2103  0.9721  0.5996
 4050SOL    HW218756   1.015   3.785   2.764  0.2091  0.8743 -1.1682
 4051SOL     OW18757   6.981   2.812   8.549  0.1250  0.6263  0.0708
 4051SOL    HW118758   6.958   2.725   8.581 -1.1058  0.8163 -0.2552
 4051SOL    HW218759   6.972   2.869   8.625  1.4852  0.4000  0.4253
 4052SOL     OW18760   8.681   8.465   7.421  0.9231 -0.2241 -0.3210
 4052SOL    HW118761   8.700   8.371   7.429 -0.4438 -0.5520 -0.5524
 4052SOL    HW218762   8.592   8.468   7.384  0.5907  1.1608  0.5092
 4053SOL     OW18763  12.323   8.147   1.283  0.6498  0.2023 -0.1946
 4053SOL    HW118764  12.327   8.149   1.188  4.1324  0.4723 -0.1492
 4053SOL    HW218765  12.239   8.104   1.303  0.2766 -0.7533 -3.3403
 4054SOL     OW18766   6.299  11.733   4.151  0.4380  0.2677  0.1454
 4054SOL    HW118767   6.217  11.684   4.155  0.4337  0.3416  1.4833
 4054SOL    HW218768   6.273  11.822   4.128  0.4613 -0.3155 -2.4850
 4055SOL     OW18769   6.627   1.898   0.327  0.2722  0.2823  0.3647
 4055SOL    HW118770   6.560   1.860   0.269  1.4556  0.7341 -1.4011
 4055SOL    HW218771   6.608   1.992   0.327 -0.0534  0.2224  1.1869
 4056SOL     OW18772   0.099   2.191   2.879 -0.8245  0.2170 -0.3375
 4056SOL    HW118773   0.014   2.214   2.842 -0.6758  0.0966 -0.7586
 4056SOL    HW218774   0.112   2.100   2.851 -1.1240 -0.1864  0.7708
 4057SOL     OW18775  10.549   1.314   9.047  0.0067  0.1985 -0.6384
 4057SOL    HW118776  10.575   1.273   9.129  0.1672  0.4397 -0.5694
 4057SOL    HW218777  10.489   1.384   9.072 -0.1208  0.1299 -0.7450
 4058SOL     OW18778   7.200   1.671   1.539 -0.0080  0.1353 -0.5706
 4058SOL    HW118779   7.214   1.693   1.631  0.0378  1.8837 -0.9644
 4058SOL    HW218780   7.199   1.575   1.537  2.1352  0.0264  0.9175
 4059SOL     OW18781   3.566   6.434   9.228  0.2754  0.0290  0.3481
 4059SOL    HW118782   3.637   6.372   9.210  0.3927  0.2765 -0.0470
 4059SOL    HW218783   3.558   6.486   9.148 -1.2722 -0.8899 -0.1292
 4060SOL     OW18784   8.030   9.124   3.194  0.2163 -0.2596  0.2444
 4060SOL    HW118785   7.955   9.158   3.145  0.5666 -2.0257 -1.6614
 4060SOL    HW218786   7.998   9.118   3.285 -1.5070  0.2188 -0.2790
 4061SOL     OW18787  12.484   3.026   6.089  0.2145  0.1411 -0.0616
 4061SOL    HW118788  12.399   3.070   6.083 -0.4953 -1.1875 -0.3359
 4061SOL    HW218789  12.548   3.096   6.090 -0.8634  1.1638 -0.4438
 4062SOL     OW18790   4.562  11.579   7.502  0.6614 -0.2404 -0.2535
 4062SOL    HW118791   4.589  11.528   7.425  0.6034 -0.0489 -0.4013
 4062SOL    HW218792   4.519  11.515   7.559 -1.9739  0.1323 -1.6704
 4063SOL     OW18793   3.765   6.005   9.493 -0.1009  0.3645  0.3492
 4063SOL    HW118794   3.834   6.067   9.521  1.0759 -0.3673 -0.8463
 4063SOL    HW218795   3.744   6.032   9.404  0.3460 -0.8645 -0.1451
 4064SOL     OW18796   9.968  10.791  10.806  0.0893 -0.5458 -0.3647
 4064SOL    HW118797   9.981  10.700  10.835 -1.2653 -0.7215 -0.2179
 4064SOL    HW218798   9.874  10.806  10.819  0.3012  0.8823 -0.3874
 4065SOL     OW18799  11.207   0.740   0.614  0.3251 -0.0654  0.2215
 4065SOL    HW118800  11.131   0.684   0.598 -0.4504  0.3015  2.3141
 4065SOL    HW218801  11.269   0.683   0.660  0.8305 -0.0416 -0.4236
 4066SOL     OW18802   5.724   8.631   9.068  0.3258  0.5412  0.5390
 4066SOL    HW118803   5.746   8.658   9.157 -0.0112  1.0242  0.4808
 4066SOL    HW218804   5.686   8.709   9.028 -2.1038 -0.3918  0.8505
 4067SOL     OW18805  12.617   6.169   4.782  0.3499 -0.2395 -0.0281
 4067SOL    HW118806  12.674   6.149   4.856  1.4233  0.0424 -0.7515
 4067SOL    HW218807  12.606   6.264   4.786 -1.2097 -0.4211  0.8897
 4068SOL     OW18808   6.902   2.517   8.545 -0.3640  0.2883 -0.4172
 4068SOL    HW118809   6.889   2.496   8.452 -2.4818  0.1705 -0.1391
 4068SOL    HW218810   6.964   2.450   8.576 -1.4712 -1.1627 -1.2127
 4069SOL     OW18811  10.392  11.290   6.640  0.2357  0.1729  0.2939
 4069SOL    HW118812  10.484  11.312   6.654  0.5170 -2.0259  2.5071
 4069SOL    HW218813  10.372  11.327   6.554  2.9522  1.3372  0.0565
 4070SOL     OW18814   3.696   1.860   6.577  0.0166 -0.1834 -0.0240
 4070SOL    HW118815   3.721   1.933   6.521 -0.4296  0.3111  0.4100
 4070SOL    HW218816   3.668   1.792   6.516 -0.9499  0.5291 -0.4157
 4071SOL     OW18817  12.041   3.267   3.207  0.6615 -0.2793 -0.1795
 4071SOL    HW118818  12.070   3.191   3.258  0.4075 -0.8175 -0.8294
 4071SOL    HW218819  11.982   3.314   3.266 -0.7110 -1.6281 -0.4340
 4072SOL     OW18820   4.897   1.438   8.123 -0.4708 -0.6103 -0.8079
 4072SOL    HW118821   4.945   1.405   8.199  1.5987  0.4688 -1.5670
 4072SOL    HW218822   4.824   1.487   8.160  0.9879  0.6352  0.5613
 4073SOL     OW18823   0.608  12.454   1.254 -0.2064 -0.0966  0.0748
 4073SOL    HW118824   0.586  12.536   1.298  0.4145  0.3824 -0.4849
 4073SOL    HW218825   0.704  12.448   1.261 -0.2120 -0.5726 -0.2256
 4074SOL     OW18826   1.488  11.903   5.119 -0.1993  0.1478  0.2553
 4074SOL    HW118827   1.531  11.971   5.171  2.0941 -0.1150 -1.1440
 4074SOL    HW218828   1.396  11.930   5.115  0.3394  2.3047  1.0407
 4075SOL     OW18829   0.972   6.495   4.988  0.5655 -0.2366 -0.5781
 4075SOL    HW118830   1.018   6.411   4.979 -2.2710 -1.7893 -2.0784
 4075SOL    HW218831   0.911   6.481   5.060  0.2181  0.6409 -0.6887
 4076SOL     OW18832  12.327   6.490   7.973 -0.0139  0.3240  0.1975
 4076SOL    HW118833  12.336   6.502   7.879 -0.1099 -1.4688 -0.0748
 4076SOL    HW218834  12.234   6.472   7.987  0.3202 -1.4790  0.3297
 4077SOL     OW18835   2.977  11.323  11.138  0.0246 -0.1484 -0.1601
 4077SOL    HW118836   3.010  11.237  11.162  1.3904  0.0074 -1.3580
 4077SOL    HW218837   2.940  11.359  11.219  0.4945 -1.3765  0.6188
 4078SOL     OW18838   4.924   8.455   1.366  0.3746  0.2069 -0.4889
 4078SOL    HW118839   5.013   8.473   1.338  0.0002  0.9768 -1.2336
 4078SOL    HW218840   4.923   8.361   1.388  1.6403  0.4336  0.6470
 4079SOL     OW18841  10.989  11.506  12.555 -0.0430 -0.4123 -0.1355
 4079SOL    HW118842  11.067  11.520  12.609 -0.2908  0.1577  0.0848
 4079SOL    HW218843  10.976  11.411  12.556 -0.8146 -0.3270  1.9008
 4080SOL     OW18844   9.571   9.172   0.469 -0.1386 -0.2818  0.1128
 4080SOL    HW118845   9.608   9.087   0.495  0.0838  0.0806  1.0425
 4080SOL    HW218846   9.502   9.189   0.533  0.3176  0.5786  0.3993
 4081SOL     OW18847   1.329   4.558   6.272  0.0121 -0.0455  0.1148
 4081SOL    HW118848   1.297   4.472   6.243  1.0458 -0.3248 -0.2352
 4081SOL    HW218849   1.404   4.539   6.329  0.3441  0.6214 -0.0806
 4082SOL     OW18850  10.921  12.717   1.678  0.2060  0.8681  0.6053
 4082SOL    HW118851  10.858  12.671   1.623  0.1133  0.3149  1.1657
 4082SOL    HW218852  10.973  12.769   1.617 -0.7591  1.2983  0.1320
 4083SOL     OW18853   7.649   3.445  12.634  0.0186 -0.5332 -0.3402
 4083SOL    HW118854   7.711   3.374  12.650  0.8455  0.0387 -0.9591
 4083SOL    HW218855   7.697   3.508  12.580 -1.8492 -1.2155 -2.9947
 4084SOL     OW18856   4.345   1.034  10.638  0.2333 -0.1738 -0.3249
 4084SOL    HW118857   4.331   1.013  10.546  0.4813  1.1026 -0.6801
 4084SOL    HW218858   4.438   1.054  10.644 -0.0400  1.1280 -0.1192
 4085SOL     OW18859   0.833  10.328  10.965 -0.0142  0.4479 -0.2349
 4085SOL    HW118860   0.755  10.328  11.021 -0.4086 -0.3530 -0.7613
 4085SOL    HW218861   0.820  10.402  10.906 -1.6292 -1.1107 -1.9675
 4086SOL     OW18862   5.625   2.238  12.338 -0.1999  0.5212 -0.1028
 4086SOL    HW118863   5.693   2.301  12.312  0.6424 -0.0527  0.6693
 4086SOL    HW218864   5.661   2.193  12.414 -0.6171 -1.1886 -0.8742
 4087SOL     OW18865   4.745   2.036   3.540  0.0871  0.0796  0.1625
 4087SOL    HW118866   4.708   1.987   3.614  1.3587 -2.2138 -0.5960
 4087SOL    HW218867   4.837   2.047   3.563 -0.1367  2.0947  0.2399
 4088SOL     OW18868   9.347   5.067   6.233 -0.2024  0.5459  0.4764
 4088SOL    HW118869   9.304   5.032   6.156  0.2580  0.5916  0.1919
 4088SOL    HW218870   9.355   4.993   6.293  4.0535 -0.9588 -1.5167
 4089SOL     OW18871   7.973   1.982   2.494 -0.0826  0.5539 -0.1052
 4089SOL    HW118872   8.060   1.944   2.481 -0.4136 -0.2184 -0.1328
 4089SOL    HW218873   7.917   1.907   2.516 -0.6495  1.1021  0.3631
 4090SOL     OW18874   1.987   8.288   6.305  0.3201  0.6300 -0.3018
 4090SOL    HW118875   1.950   8.291   6.217  1.0855  0.2691 -0.6465
 4090SOL    HW218876   1.939   8.354   6.354 -1.0074 -0.0520 -0.6364
 4091SOL     OW18877   6.088  11.849   5.770 -0.3145  0.5828 -0.5796
 4091SOL    HW118878   6.003  11.804   5.776 -0.9925  1.9583  0.9702
 4091SOL    HW218879   6.140  11.793   5.713 -0.6144 -3.0204  2.2459
 4092SOL     OW18880   5.428   7.282   0.865 -0.3091  0.9149  0.3118
 4092SOL    HW118881   5.410   7.207   0.809  0.0162  0.9113  0.2121
 4092SOL    HW218882   5.482   7.340   0.811  0.0528  0.8846  0.6359
 4093SOL     OW18883   5.087  11.039   6.902  0.1887  0.1815 -0.0893
 4093SOL    HW118884   5.095  11.134   6.891 -0.0388  0.3963  1.3443
 4093SOL    HW218885   5.130  11.002   6.825  1.9366  1.4360  0.2180
 4094SOL     OW18886  10.124   5.058   8.872  0.6951  0.0852  0.2844
 4094SOL    HW118887  10.204   5.006   8.868 -0.5794 -2.1783  2.0141
 4094SOL    HW218888  10.104   5.065   8.965 -0.4389  1.7264 -0.0344
 4095SOL     OW18889   9.745  11.928  12.499 -0.3582  0.3618  0.0698
 4095SOL    HW118890   9.787  11.852  12.457  2.1829  0.5639  2.0462
 4095SOL    HW218891   9.696  11.891  12.572  0.1000  0.5399  0.4675
 4096SOL     OW18892   8.273  11.685   1.605 -0.1322  0.4329 -0.5747
 4096SOL    HW118893   8.258  11.709   1.697  1.4871 -3.2968  0.8339
 4096SOL    HW218894   8.187  11.659   1.573 -0.4152 -0.0275  0.5138
 4097SOL     OW18895  10.775   6.853   6.586 -0.5702 -0.4361 -0.3608
 4097SOL    HW118896  10.818   6.914   6.647 -1.7013  0.5706 -0.5367
 4097SOL    HW218897  10.847   6.814   6.536  0.1803  0.7995 -0.2748
 4098SOL     OW18898   7.424   0.635   7.026 -0.5001  0.1085 -0.3937
 4098SOL    HW118899   7.482   0.561   7.010 -1.3944 -0.5918 -0.4345
 4098SOL    HW218900   7.385   0.617   7.111 -0.5978  0.6267 -0.3230
 4099SOL     OW18901  12.787  11.212  10.668  0.5483  0.6857  0.4876
 4099SOL    HW118902  12.769  11.269  10.594 -0.4450 -0.2219  0.0067
 4099SOL    HW218903  12.757  11.262  10.745 -1.1717  0.4685 -0.0070
 4100SOL     OW18904   1.617   7.953  12.470 -0.1403  0.0024 -0.1185
 4100SOL    HW118905   1.647   7.993  12.551  2.8752 -0.5468 -0.8571
 4100SOL    HW218906   1.535   7.998  12.450  0.2704  1.8215  1.9705
 4101SOL     OW18907   2.987  10.341   0.171 -0.2044  0.2842 -0.1549
 4101SOL    HW118908   2.979  10.335   0.075 -3.7704 -0.6344  0.0302
 4101SOL    HW218909   2.913  10.397   0.196 -1.3184 -2.0787  2.2263
 4102SOL     OW18910   2.183   4.969   0.510  0.3231 -0.3799 -0.6066
 4102SOL    HW118911   2.143   5.051   0.538 -0.0059 -0.1807 -1.6356
 4102SOL    HW218912   2.133   4.901   0.556  0.6650 -0.0231  0.3320
 4103SOL     OW18913   8.498  11.098   5.499 -0.1647 -0.2117  0.4597
 4103SOL    HW118914   8.583  11.084   5.541  0.1506  1.4421  0.4387
 4103SOL    HW218915   8.493  11.028   5.433  2.4260  1.1222 -1.3876
 4104SOL     OW18916   1.756   1.113   9.970  0.2270  0.0093  0.0280
 4104SOL    HW118917   1.725   1.028   9.938 -0.3361  0.4465 -0.6211
 4104SOL    HW218918   1.739   1.173   9.897  0.6287  0.6764  0.4791
 4105SOL     OW18919   3.163  10.677   9.493  0.9922 -0.0493 -0.2982
 4105SOL    HW118920   3.240  10.713   9.450  0.7960  1.6692  0.6682
 4105SOL    HW218921   3.109  10.643   9.422  2.6224 -1.2934 -0.9840
 4106SOL     OW18922   3.248  10.918   3.250 -0.2678  0.0968 -0.5036
 4106SOL    HW118923   3.199  10.996   3.274 -0.9853 -0.4256 -0.2295
 4106SOL    HW218924   3.332  10.951   3.216 -0.3412  0.9476  0.1306
 4107SOL     OW18925   5.270  10.697   2.775 -0.0446 -0.1860  0.1577
 4107SOL    HW118926   5.277  10.639   2.699 -1.4097 -0.1918  0.0035
 4107SOL    HW218927   5.269  10.785   2.737 -1.2810 -0.2106  0.1076
 4108SOL     OW18928   0.757   4.237   0.363  0.2357  0.2918  0.2729
 4108SOL    HW118929   0.750   4.211   0.455 -1.0310  0.2173  0.1730
 4108SOL    HW218930   0.667   4.242   0.332  0.6408  0.2944 -0.9830
 4109SOL     OW18931   1.329   5.191   4.946 -0.4506  0.6491 -0.6286
 4109SOL    HW118932   1.237   5.184   4.922 -0.2732 -2.5226 -0.8808
 4109SOL    HW218933   1.337   5.132   5.022  1.3521  0.8880 -0.6046
 4110SOL     OW18934   4.460  11.141  12.263 -0.8100 -0.0701  0.2336
 4110SOL    HW118935   4.372  11.107  12.275 -0.6689 -1.2813 -1.7584
 4110SOL    HW218936   4.473  11.143  12.168  1.3188  0.0337  0.4634
 4111SOL     OW18937   3.369   9.514   3.478  0.3177  0.0307  0.1128
 4111SOL    HW118938   3.322   9.561   3.547 -2.7412 -0.8815 -1.1694
 4111SOL    HW218939   3.335   9.425   3.482  1.8524 -0.6456 -1.0599
 4112SOL     OW18940   3.796   0.965  10.311  0.4333  0.1138  0.0324
 4112SOL    HW118941   3.821   0.879  10.279 -0.2884 -0.3715  0.7440
 4112SOL    HW218942   3.736   0.948  10.383  1.8223  1.1565  1.5206
 4113SOL     OW18943   2.653  11.547  10.550  0.4107  0.4450 -0.3130
 4113SOL    HW118944   2.606  11.486  10.494  0.0812  0.1557  0.2675
 4113SOL    HW218945   2.612  11.632  10.534 -0.9418  0.0526  0.8423
 4114SOL     OW18946   4.433   9.132  10.063 -0.6015 -0.0294 -0.3851
 4114SOL    HW118947   4.442   9.056  10.005 -1.0018 -0.4534  0.0941
 4114SOL    HW218948   4.355   9.177  10.031 -0.1976  0.3445 -0.8512
 4115SOL     OW18949   2.071  10.852  10.517  0.0430  0.5239 -0.0914
 4115SOL    HW118950   2.086  10.822  10.427  1.0907  1.6234 -0.3109
 4115SOL    HW218951   1.988  10.898  10.514 -0.6225 -0.6421 -0.1717
 4116SOL     OW18952   2.512  12.229   7.133  0.5883  0.4015 -0.4857
 4116SOL    HW118953   2.575  12.274   7.189 -1.0395  1.8090  0.2929
 4116SOL    HW218954   2.485  12.152   7.185 -0.7068  1.5484  0.6333
 4117SOL     OW18955   5.009   0.624  10.193  0.3953 -0.6326 -0.2795
 4117SOL    HW118956   4.971   0.707  10.220  0.7592 -0.5905  0.1083
 4117SOL    HW218957   4.955   0.595  10.119  2.2335  1.5811 -2.6997
 4118SOL     OW18958  11.959  11.773   0.197 -0.1680  0.2971 -0.4113
 4118SOL    HW118959  12.000  11.696   0.157  2.6799  0.3129  2.0802
 4118SOL    HW218960  11.890  11.738   0.253  0.8312 -0.5016  0.3732
 4119SOL     OW18961   8.590  10.552   7.984  0.0145 -0.1302 -0.5664
 4119SOL    HW118962   8.542  10.578   8.063  0.7425 -0.7915  0.1231
 4119SOL    HW218963   8.632  10.632   7.954  0.4287 -0.0284  0.2402
 4120SOL     OW18964   2.983   0.360   6.592  0.0876  0.2683  0.1671
 4120SOL    HW118965   2.888   0.354   6.605  0.2761  1.1263  2.4860
 4120SOL    HW218966   3.006   0.276   6.553 -1.4910 -0.4652  0.6907
 4121SOL     OW18967  12.753  12.769  12.034  0.1343  0.5119 -0.0995
 4121SOL    HW118968  12.846  12.791  12.037 -0.6898  5.2718 -0.6288
 4121SOL    HW218969  12.721  12.789  12.122 -0.5975  0.1220 -0.2659
 4122SOL     OW18970   4.201  10.563  12.564 -0.3337 -0.1387  0.0005
 4122SOL    HW118971   4.192  10.621  12.640 -0.1052  0.5702 -0.4968
 4122SOL    HW218972   4.165  10.480  12.592 -1.5058  0.4986  0.4496
 4123SOL     OW18973   6.653   3.844   6.587  0.1836 -0.3369 -0.3999
 4123SOL    HW118974   6.632   3.751   6.586 -0.4250 -0.2122  0.1589
 4123SOL    HW218975   6.747   3.848   6.605 -0.0573 -0.8052  1.0950
 4124SOL     OW18976   9.327   6.148   7.651 -0.2469 -0.0521 -0.2795
 4124SOL    HW118977   9.382   6.130   7.575  0.0362  0.6977 -0.2621
 4124SOL    HW218978   9.344   6.240   7.672 -0.4783 -0.1887  0.5652
 4125SOL     OW18979   9.426   0.126   3.127  0.3357  0.1288 -0.3473
 4125SOL    HW118980   9.424   0.197   3.063  1.7505  0.6933  0.1827
 4125SOL    HW218981   9.481   0.059   3.086 -1.2640 -0.8574 -0.9895
 4126SOL     OW18982   2.635  11.988  10.501  0.5766 -0.4969  0.5595
 4126SOL    HW118983   2.612  12.004  10.592  0.2720 -0.6650  0.5151
 4126SOL    HW218984   2.583  12.052  10.452  0.2029 -0.8712  0.4598
 4127SOL     OW18985  11.794   5.180   4.568  0.4687  0.2126  0.4847
 4127SOL    HW118986  11.823   5.097   4.606 -0.6896 -0.8027 -0.7542
 4127SOL    HW218987  11.858   5.198   4.500  0.6039  0.2283  0.6151
 4128SOL     OW18988   1.205   6.715   3.096  0.2667 -0.0499  0.3164
 4128SOL    HW118989   1.181   6.689   3.185 -0.5881 -0.2129  0.0555
 4128SOL    HW218990   1.144   6.666   3.040  0.2113  0.7055 -0.3019
 4129SOL     OW18991   7.525   7.640  11.665  0.6874  0.0599 -0.0597
 4129SOL    HW118992   7.488   7.724  11.692  1.0906 -0.0525  0.8768
 4129SOL    HW218993   7.616   7.660  11.640  0.9684 -0.1851  0.7399
 4130SOL     OW18994   5.577   7.559   3.114 -0.1491 -0.2402 -0.2395
 4130SOL    HW118995   5.548   7.627   3.053  0.6385 -0.4588 -0.8857
 4130SOL    HW218996   5.503   7.545   3.172 -0.0566  1.7436  0.4235
 4131SOL     OW18997   0.479   0.386   3.052  0.2777 -0.8112  0.7253
 4131SOL    HW118998   0.541   0.336   3.105  0.3671 -2.9544 -1.2453
 4131SOL    HW218999   0.532   0.425   2.983 -0.2593 -0.6692  0.3852
 4132SOL     OW19000   9.341   7.113   8.137 -0.0280  0.3311 -0.2249
 4132SOL    HW119001   9.295   7.151   8.212  1.7385 -0.7160  1.4748
 4132SOL    HW219002   9.359   7.188   8.080 -0.3991  1.3633  0.9680
 4133SOL     OW19003   2.858   0.175   6.876 -0.1231  0.2727 -0.0789
 4133SOL    HW119004   2.807   0.241   6.829 -1.0103  0.3544  0.9597
 4133SOL    HW219005   2.908   0.130   6.808 -0.4622  1.1717 -0.9493
 4134SOL     OW19006   0.157   5.486   1.229  0.4781 -0.0762 -0.3266
 4134SOL    HW119007   0.107   5.405   1.245 -4.0976  2.6842  1.3088
 4134SOL    HW219008   0.124   5.518   1.145  1.6471  0.5188 -0.5706
 4135SOL     OW19009   6.815   9.781  11.010  0.1009 -0.1010  0.3093
 4135SOL    HW119010   6.799   9.761  10.918  0.9568  0.5210  0.0133
 4135SOL    HW219011   6.772   9.710  11.058 -1.3496  0.1752 -0.5140
 4136SOL     OW19012   8.675   3.555  10.703 -0.9429  0.0970  0.2557
 4136SOL    HW119013   8.692   3.644  10.670  3.2248 -0.9977 -1.1501
 4136SOL    HW219014   8.633   3.510  10.630  0.6208 -0.0519 -0.6110
 4137SOL     OW19015   4.695  10.112   2.847 -0.4151 -0.2538 -0.3881
 4137SOL    HW119016   4.748  10.052   2.796 -1.2357 -2.2392  0.9438
 4137SOL    HW219017   4.608  10.071   2.850 -0.8195  0.6164  1.1713
 4138SOL     OW19018   6.173   5.513   5.236 -0.3866  0.2342 -0.4628
 4138SOL    HW119019   6.087   5.483   5.264 -0.4362  0.1667 -0.6923
 4138SOL    HW219020   6.185   5.476   5.149 -0.6341  1.2434 -0.9400
 4139SOL     OW19021   1.411   1.604   1.064  0.1300 -0.4324  0.2008
 4139SOL    HW119022   1.439   1.696   1.058 -0.1305 -0.4134 -1.0770
 4139SOL    HW219023   1.333   1.599   1.009 -0.0095 -1.3687  0.4635
 4140SOL     OW19024  12.153   2.109  11.422  0.6241 -0.0088  0.6104
 4140SOL    HW119025  12.086   2.160  11.467  0.3015 -0.4838  0.6714
 4140SOL    HW219026  12.142   2.132  11.330 -1.0549 -1.6979  0.3438
 4141SOL     OW19027   2.710   1.608  12.390 -0.2215  0.2404 -0.4802
 4141SOL    HW119028   2.665   1.680  12.344 -0.2331  1.2964  1.1257
 4141SOL    HW219029   2.803   1.629  12.382 -0.2443  0.7064  0.3920
 4142SOL     OW19030   1.374   3.257  11.540  0.3774 -0.2141  0.3249
 4142SOL    HW119031   1.348   3.344  11.511  1.5241 -0.2340 -0.8526
 4142SOL    HW219032   1.308   3.199  11.503  1.4504 -0.1659 -1.8300
 4143SOL     OW19033   9.060   4.688   1.205 -0.0687 -0.6724  0.4047
 4143SOL    HW119034   9.061   4.604   1.251  0.2270 -0.3417  1.0134
 4143SOL    HW219035   9.005   4.744   1.259  0.7962 -0.0933  0.7068
 4144SOL     OW19036   3.259   0.460   4.501  0.2594  0.0297  0.0358
 4144SOL    HW119037   3.189   0.500   4.551 -0.3391  0.3369 -1.0257
 4144SOL    HW219038   3.231   0.467   4.410  0.6336 -1.8411 -0.2611
 4145SOL     OW19039  12.380   9.984   7.714  0.1629  0.1304  0.1865
 4145SOL    HW119040  12.455  10.041   7.729  1.0675 -0.3994 -1.8852
 4145SOL    HW219041  12.324  10.033   7.654 -0.1506 -0.2680  0.1476
 4146SOL     OW19042  11.519   3.682   7.000  0.0921  0.6351  0.3447
 4146SOL    HW119043  11.477   3.715   7.080 -0.3820  0.0679  0.3347
 4146SOL    HW219044  11.506   3.587   7.003  2.4614  0.2842  0.9601
 4147SOL     OW19045   3.741   3.675   9.490  0.1463 -0.4963  0.2131
 4147SOL    HW119046   3.740   3.582   9.514  1.7161 -1.0174 -1.4818
 4147SOL    HW219047   3.651   3.705   9.504 -0.7274 -2.6242 -0.4863
 4148SOL     OW19048  11.511   2.745  12.400  0.3679 -0.5020 -0.1719
 4148SOL    HW119049  11.555   2.750  12.315  0.0546  0.0869 -0.2960
 4148SOL    HW219050  11.568   2.688  12.452  1.9306  1.1655  0.0465
 4149SOL     OW19051   8.808  12.138   8.139 -0.0259 -0.1838 -0.1661
 4149SOL    HW119052   8.727  12.086   8.133 -0.0897  0.0310 -1.5800
 4149SOL    HW219053   8.777  12.229   8.144  0.1175 -0.1552  0.1938
 4150SOL     OW19054   1.377   9.524  10.839  0.4351 -0.7243  0.4517
 4150SOL    HW119055   1.378   9.438  10.795 -0.0770 -0.5442  0.0824
 4150SOL    HW219056   1.387   9.587  10.768 -0.7824 -0.4116  0.5390
 4151SOL     OW19057   9.209   3.720   3.065  0.4643  0.1357 -0.0753
 4151SOL    HW119058   9.177   3.678   2.985 -1.5923 -1.3570  1.4178
 4151SOL    HW219059   9.275   3.659   3.099  1.5917  0.9396 -0.7793
 4152SOL     OW19060   4.128  11.124   0.833  0.3854  0.3986 -0.7683
 4152SOL    HW119061   4.052  11.116   0.776  1.0425 -1.3085 -1.4890
 4152SOL    HW219062   4.200  11.147   0.775  0.7346  0.3460 -0.3657
 4153SOL     OW19063   9.997  10.692  10.341  0.4588  0.2184  0.5742
 4153SOL    HW119064   9.984  10.765  10.402  0.1220  0.4935  0.1746
 4153SOL    HW219065  10.076  10.716  10.292 -0.1031  0.6986 -0.1055
 4154SOL     OW19066  10.661   3.609   1.329 -0.2298 -0.0809 -0.0771
 4154SOL    HW119067  10.703   3.690   1.299 -0.2854  0.8220  2.1067
 4154SOL    HW219068  10.568   3.632   1.337 -0.1992 -0.2492  0.8365
 4155SOL     OW19069  11.627   5.693   7.668 -0.1897 -0.4367 -0.2519
 4155SOL    HW119070  11.651   5.668   7.578 -2.0117 -2.2823 -0.3090
 4155SOL    HW219071  11.672   5.628   7.723 -0.3774 -0.3199  0.0394
 4156SOL     OW19072   3.492  11.989   6.357 -0.1995  0.4304 -0.4895
 4156SOL    HW119073   3.561  12.051   6.380 -0.2265  0.3520 -0.1872
 4156SOL    HW219074   3.489  11.928   6.431 -2.1883  1.8064  0.6759
 4157SOL     OW19075   6.875  11.434   3.797  0.4500 -0.5168 -0.1757
 4157SOL    HW119076   6.892  11.357   3.743  0.6349 -0.4340 -0.2350
 4157SOL    HW219077   6.865  11.505   3.735  0.3244 -0.4840 -0.1179
 4158SOL     OW19078  11.249  11.702   5.122  0.1628 -0.3759 -0.1062
 4158SOL    HW119079  11.286  11.768   5.181  2.5396 -1.9113  0.2973
 4158SOL    HW219080  11.267  11.619   5.166 -0.5916 -1.4159 -1.6819
 4159SOL     OW19081  12.530   1.351  11.180 -0.0533  0.1135 -0.4558
 4159SOL    HW119082  12.478   1.397  11.245  2.4828 -0.0935  1.9083
 4159SOL    HW219083  12.531   1.260  11.210  1.8250  0.1651 -0.2159
 4160SOL     OW19084   8.554  10.787  11.674  0.0429 -0.8380  0.5631
 4160SOL    HW119085   8.539  10.842  11.597 -1.9131  0.6607  1.9159
 4160SOL    HW219086   8.550  10.848  11.748  0.4742 -2.4274  1.9477
 4161SOL     OW19087  10.767   0.937   3.880 -0.6527 -0.1268 -0.5695
 4161SOL    HW119088  10.762   0.944   3.784  1.1447  0.3784 -0.6614
 4161SOL    HW219089  10.784   1.026   3.909  2.0851 -0.7146 -0.0869
 4162SOL     OW19090   3.050   9.021  11.894 -0.2686  0.0592 -0.0809
 4162SOL    HW119091   3.074   8.944  11.843 -1.1962 -0.7468  0.6706
 4162SOL    HW219092   3.132   9.071  11.901  0.2505 -0.6271 -0.9279
 4163SOL     OW19093  12.129   2.697   4.190  0.5353 -0.1665 -0.1593
 4163SOL    HW119094  12.087   2.760   4.132  1.2892  0.0819 -0.4454
 4163SOL    HW219095  12.218   2.730   4.202  0.3254 -0.0522  1.3658
 4164SOL     OW19096   3.111  10.222   3.298 -0.4280  0.0452  0.1411
 4164SOL    HW119097   3.143  10.311   3.286 -1.4456  0.7085  1.9377
 4164SOL    HW219098   3.035  10.215   3.240 -0.5204  0.4544  0.2118
 4165SOL     OW19099   5.295  11.222   1.415 -0.0421 -0.6150  0.0033
 4165SOL    HW119100   5.354  11.232   1.491 -0.5251 -0.3401  0.3461
 4165SOL    HW219101   5.298  11.128   1.395  3.3456 -0.1997 -2.2889
 4166SOL     OW19102   0.300   0.729  11.862 -0.1577 -0.1074 -0.1642
 4166SOL    HW119103   0.299   0.783  11.783 -1.5427  2.5679  1.5267
 4166SOL    HW219104   0.209   0.700  11.873  0.2715 -1.5736 -0.1864
 4167SOL     OW19105   5.934  12.525  10.712  0.1482 -0.1526  0.3178
 4167SOL    HW119106   5.916  12.514  10.619 -0.1702  0.4406  0.3029
 4167SOL    HW219107   6.015  12.477  10.727 -0.1444 -0.7903 -0.1319
 4168SOL     OW19108   0.545   2.190  10.675  1.0335 -0.3174  0.2259
 4168SOL    HW119109   0.490   2.121  10.637 -0.2411  0.0983  1.2765
 4168SOL    HW219110   0.622   2.143  10.707  0.8850 -1.0369 -0.4206
 4169SOL     OW19111  10.216   8.786   2.380 -0.5625  0.0663  0.1614
 4169SOL    HW119112  10.156   8.731   2.330  1.4514 -2.3185  0.1594
 4169SOL    HW219113  10.229   8.739   2.462  0.5610  0.9879  0.5309
 4170SOL     OW19114   7.152   5.444  10.427  0.5507  0.0344 -0.0379
 4170SOL    HW119115   7.183   5.535  10.432 -1.1001  0.6328 -0.1566
 4170SOL    HW219116   7.145   5.427  10.333 -0.1170  0.1380 -0.0077
 4171SOL     OW19117   0.677  12.329  10.274 -0.2188 -0.5447 -0.1563
 4171SOL    HW119118   0.710  12.352  10.187 -2.0483  0.1556 -0.7204
 4171SOL    HW219119   0.746  12.275  10.312  1.1564  0.1261 -1.5619
 4172SOL     OW19120   0.371   2.350   3.294  0.5238 -0.0393  0.6107
 4172SOL    HW119121   0.318   2.343   3.214  0.7538 -1.4330  0.5554
 4172SOL    HW219122   0.410   2.437   3.288 -0.3430  0.3244 -0.2360
 4173SOL     OW19123   2.660   4.559   0.074  0.0189 -0.4701  0.0304
 4173SOL    HW119124   2.609   4.575   0.153 -0.1581  1.3293 -0.3926
 4173SOL    HW219125   2.746   4.531   0.106 -0.3726 -0.7787  0.8256
 4174SOL     OW19126   1.492   3.142   4.720 -0.4490  0.3522  0.2539
 4174SOL    HW119127   1.408   3.097   4.721 -0.6513  0.6737 -0.7169
 4174SOL    HW219128   1.497   3.181   4.632  1.7260 -1.5450 -0.5466
 4175SOL     OW19129   3.743   2.455  11.350 -0.1708  0.9655  0.1618
 4175SOL    HW119130   3.753   2.372  11.397 -0.8083  1.1028  0.5531
 4175SOL    HW219131   3.654   2.483  11.370 -0.0500  1.6154 -0.1843
 4176SOL     OW19132   9.625  12.767   0.678  0.0089 -0.6129 -0.3867
 4176SOL    HW119133   9.618  12.852   0.635  0.8820  0.1310  0.8874
 4176SOL    HW219134   9.536  12.731   0.675 -0.2764  0.1440 -1.3269
 4177SOL     OW19135   9.989   3.154   3.672 -0.4015 -0.1241 -0.6008
 4177SOL    HW119136  10.051   3.084   3.692  1.7303  1.5953 -0.8182
 4177SOL    HW219137  10.002   3.173   3.580  0.5426  1.8691 -0.1085
 4178SOL     OW19138  11.542   3.793   3.210 -0.0995 -0.3917  0.3088
 4178SOL    HW119139  11.617   3.762   3.261 -0.8299 -0.8582  1.1238
 4178SOL    HW219140  11.539   3.887   3.227  2.0568  0.2103 -2.0854
 4179SOL     OW19141   5.260   3.913   0.813 -0.7427  0.4276  0.0413
 4179SOL    HW119142   5.223   3.829   0.787  0.4125 -0.0747 -0.0690
 4179SOL    HW219143   5.244   3.918   0.907 -0.3957 -0.1485  0.1359
 4180SOL     OW19144   1.093   8.602   2.063  0.2275  0.3919  0.1717
 4180SOL    HW119145   1.114   8.625   1.973 -0.8026  1.7826  0.2559
 4180SOL    HW219146   1.174   8.564   2.098  0.5905 -0.3071 -1.3617
 4181SOL     OW19147   0.700   9.909  11.968  0.3762 -0.5635 -0.0872
 4181SOL    HW119148   0.674   9.998  11.990 -0.0386 -1.1875  2.2510
 4181SOL    HW219149   0.623   9.870  11.927  0.5407  0.1214 -1.0617
 4182SOL     OW19150   1.194  11.837   0.557  0.3417  0.0350 -0.1965
 4182SOL    HW119151   1.112  11.875   0.588  0.6346  2.0550 -1.7081
 4182SOL    HW219152   1.183  11.829   0.462  1.7711  0.0497 -0.3848
 4183SOL     OW19153   0.006   5.837   4.783  1.0570 -0.9175  0.9793
 4183SOL    HW119154  -0.056   5.764   4.782  0.3114 -0.3060  1.5360
 4183SOL    HW219155   0.072   5.814   4.717  0.4975 -1.7958  0.7141
 4184SOL     OW19156   8.662   2.153   4.477 -0.4451 -0.0009  0.2446
 4184SOL    HW119157   8.702   2.094   4.413  1.4403  1.4141  0.0611
 4184SOL    HW219158   8.583   2.106   4.506 -0.0033 -1.7742 -1.2375
 4185SOL     OW19159   0.238   5.057   8.675  0.0376  0.8881  0.0046
 4185SOL    HW119160   0.149   5.077   8.646  0.5761  1.2987 -1.4444
 4185SOL    HW219161   0.238   4.962   8.688 -0.6245  0.8911  0.0882
 4186SOL     OW19162  10.984   8.206   6.756  0.4189  0.4473 -0.1980
 4186SOL    HW119163  10.931   8.180   6.831  2.8334 -1.5316  0.9533
 4186SOL    HW219164  11.061   8.249   6.795  0.4702  1.8634 -1.7298
 4187SOL     OW19165   0.876   8.991   4.711 -0.2709 -0.8059 -0.7460
 4187SOL    HW119166   0.872   8.955   4.799 -0.0894 -1.4638 -1.0052
 4187SOL    HW219167   0.786   9.019   4.692 -0.2154 -0.2150 -0.1739
 4188SOL     OW19168   0.944   0.989   6.225  0.3799  0.1238 -0.8236
 4188SOL    HW119169   0.955   0.961   6.316  2.3018 -0.3896 -1.1827
 4188SOL    HW219170   0.879   1.060   6.230 -1.4470 -1.5444  0.6063
 4189SOL     OW19171  11.302   1.383   1.634 -0.0481 -0.5121  0.0762
 4189SOL    HW119172  11.337   1.294   1.641 -0.2029 -0.9813 -3.3890
 4189SOL    HW219173  11.207   1.371   1.635 -0.2064  0.1180  3.2302
 4190SOL     OW19174   5.948   1.218   2.123 -0.3542  0.8833 -0.3802
 4190SOL    HW119175   5.893   1.139   2.126 -1.6429  1.7609 -0.1279
 4190SOL    HW219176   5.916   1.272   2.195 -0.3927  2.1948 -1.3317
 4191SOL     OW19177   0.482   3.308   9.950  0.3246  0.0244  0.1618
 4191SOL    HW119178   0.572   3.277   9.964 -0.0432 -0.9763  0.3933
 4191SOL    HW219179   0.431   3.228   9.937 -0.6315  0.5494  0.5827
 4192SOL     OW19180   1.453   0.213   9.805 -0.3217 -0.3339  0.0096
 4192SOL    HW119181   1.452   0.305   9.834  1.9244 -0.6835  1.4565
 4192SOL    HW219182   1.388   0.170   9.861 -0.5721  0.1681  0.1127
 4193SOL     OW19183  11.646   6.036  11.566  0.3303 -0.0059  0.0252
 4193SOL    HW119184  11.553   6.014  11.572  0.0261  1.1307 -0.2433
 4193SOL    HW219185  11.688   5.986  11.637 -0.3417 -1.1797 -0.3805
 4194SOL     OW19186   6.281  12.338  11.453 -0.5190 -0.3679 -0.1535
 4194SOL    HW119187   6.282  12.377  11.541 -0.0330 -1.2282  0.2318
 4194SOL    HW219188   6.222  12.394  11.403  0.3005  0.9662  0.3330
 4195SOL     OW19189   0.547   3.255   2.421 -0.0093  0.1699 -0.3514
 4195SOL    HW119190   0.503   3.266   2.337 -0.4689  0.5771 -0.0613
 4195SOL    HW219191   0.583   3.342   2.440 -2.7622  1.0395  1.4579
 4196SOL     OW19192  10.560   0.806   1.075 -0.4659 -0.0810 -0.6307
 4196SOL    HW119193  10.636   0.799   1.133 -0.1288  2.3947 -0.6397
 4196SOL    HW219194  10.491   0.760   1.121  0.9082 -2.0499 -0.4235
 4197SOL     OW19195   0.364   4.019   9.113 -0.1447 -0.2010 -0.2009
 4197SOL    HW119196   0.376   4.040   9.206 -0.6781 -2.6836  0.5131
 4197SOL    HW219197   0.301   4.083   9.082  1.5336  1.9602  0.5752
 4198SOL     OW19198  12.364   7.781   3.004  0.3170  0.6282 -0.3321
 4198SOL    HW119199  12.376   7.815   3.093 -2.1486 -0.3941  0.4745
 4198SOL    HW219200  12.395   7.691   3.010  1.4819  0.9715 -0.9331
 4199SOL     OW19201   6.100  12.059  12.584 -0.0058 -0.2636 -0.0968
 4199SOL    HW119202   6.173  11.998  12.594  0.3272 -0.0210 -1.0331
 4199SOL    HW219203   6.069  12.073  12.674  2.0530  0.8160  0.4978
 4200SOL     OW19204   9.027   6.514   2.927 -0.1034 -0.3951  0.7050
 4200SOL    HW119205   8.992   6.569   2.997  2.2947 -0.7990  2.3486
 4200SOL    HW219206   8.972   6.436   2.927 -0.6507 -0.0246  1.5524
 4201SOL     OW19207   7.977   3.260   4.833 -0.7867  0.1890  0.2129
 4201SOL    HW119208   8.015   3.343   4.860  0.5088  0.0082 -0.9239
 4201SOL    HW219209   8.021   3.194   4.887 -2.1855  0.2428  1.4818
 4202SOL     OW19210   9.563   4.253  10.967 -0.2938 -0.1586  0.0565
 4202SOL    HW119211   9.569   4.237  11.061  0.2340  0.2162  0.0857
 4202SOL    HW219212   9.483   4.206  10.940 -1.1960  0.8377  0.9185
 4203SOL     OW19213   9.842   6.039   0.778 -0.4768  0.3135 -0.7922
 4203SOL    HW119214   9.747   6.033   0.771 -0.3744 -0.1485 -1.8960
 4203SOL    HW219215   9.857   6.105   0.846 -1.5787  0.4387 -0.6576
 4204SOL     OW19216  11.878   7.731  11.688 -0.3272 -0.3474 -0.0391
 4204SOL    HW119217  11.909   7.754  11.601 -1.7577  2.7598  0.1191
 4204SOL    HW219218  11.935   7.781  11.747 -2.4658  1.6466  0.4657
 4205SOL     OW19219   7.148  10.407   8.861 -0.4356  0.2805  0.3349
 4205SOL    HW119220   7.240  10.382   8.865 -0.3479  0.1188 -1.6669
 4205SOL    HW219221   7.108  10.343   8.802 -1.3694  1.5879 -0.5092
 4206SOL     OW19222  11.984   2.917   4.072 -0.3536  0.3069 -0.6707
 4206SOL    HW119223  12.025   2.992   4.115 -1.5873  0.2749  0.6218
 4206SOL    HW219224  12.028   2.912   3.987 -1.6186  3.8056 -1.7419
 4207SOL     OW19225  12.003   7.607   6.000  0.0388  0.5476 -0.0314
 4207SOL    HW119226  11.999   7.575   5.909  2.0379 -1.0648  0.3776
 4207SOL    HW219227  11.915   7.641   6.017 -0.5598  0.3654 -2.3705
 4208SOL     OW19228   8.911   3.103   8.991  0.0510 -0.3502 -0.1466
 4208SOL    HW119229   8.969   3.030   8.969  0.5523 -0.1419  0.4682
 4208SOL    HW219230   8.968   3.168   9.032 -0.2626  0.6675 -1.2579
 4209SOL     OW19231   1.980   5.101   6.762  0.7249  0.0864 -0.5617
 4209SOL    HW119232   2.042   5.047   6.810  3.1474  1.3931 -2.0493
 4209SOL    HW219233   1.934   5.040   6.704  2.4589 -0.6162 -1.2663
 4210SOL     OW19234   2.579   4.024   4.308  0.0154  0.6673 -0.5354
 4210SOL    HW119235   2.655   3.967   4.301 -1.5160 -1.9426  2.0005
 4210SOL    HW219236   2.606   4.093   4.369  1.2885  1.7417 -2.2133
 4211SOL     OW19237   1.269  12.787  12.069  0.9657 -0.5192 -0.2254
 4211SOL    HW119238   1.282  12.878  12.044 -4.7245  0.6663 -0.1974
 4211SOL    HW219239   1.312  12.779  12.155  0.0793  2.7923  0.6617
 4212SOL     OW19240   5.797  11.689   1.769  0.3067  0.2421  0.1498
 4212SOL    HW119241   5.827  11.701   1.859 -1.5126  0.5632  0.7532
 4212SOL    HW219242   5.819  11.598   1.748  0.4892  0.0779  1.0236
 4213SOL     OW19243   2.554  12.629   4.708 -0.1585 -0.1889  0.2276
 4213SOL    HW119244   2.629  12.688   4.712  0.6068 -0.9154 -2.1070
 4213SOL    HW219245   2.592  12.542   4.719 -0.9391 -0.4479  0.9886
 4214SOL     OW19246   4.743  10.188   3.405  0.0215 -0.3477 -0.4892
 4214SOL    HW119247   4.660  10.233   3.389 -0.9065 -1.3896  1.1088
 4214SOL    HW219248   4.731  10.145   3.489  2.5151  0.1784  0.2168
 4215SOL     OW19249  11.766   1.476   4.623  0.3840 -0.0463 -0.2097
 4215SOL    HW119250  11.855   1.504   4.605  0.0853  0.4953 -0.8909
 4215SOL    HW219251  11.739   1.428   4.545  0.5757 -1.5051  0.5737
 4216SOL     OW19252   0.036   9.093  10.703  0.2300  0.1971 -0.2790
 4216SOL    HW119253   0.002   9.102  10.614  2.9754  0.4557 -1.3977
 4216SOL    HW219254  -0.025   9.033  10.746 -0.2160 -1.3420 -2.8684
 4217SOL     OW19255   4.425  12.214   5.580 -0.2007  0.3734 -0.1859
 4217SOL    HW119256   4.471  12.133   5.601 -1.5836 -0.3501  0.1692
 4217SOL    HW219257   4.353  12.218   5.643 -0.4456  1.6433 -0.5096
 4218SOL     OW19258  11.712  10.745  10.242  0.0983  0.2590 -0.4392
 4218SOL    HW119259  11.709  10.807  10.314  0.4500  1.2535 -1.2618
 4218SOL    HW219260  11.658  10.671  10.271 -3.2303  2.3583 -0.8015
 4219SOL     OW19261   1.266   7.192   2.689  0.0761 -0.4465  0.5899
 4219SOL    HW119262   1.278   7.285   2.671  0.9135 -0.5683  0.4787
 4219SOL    HW219263   1.335   7.149   2.638 -0.0090 -1.0874  1.0123
 4220SOL     OW19264   7.909   1.453   1.413 -0.2467  0.6812  0.2091
 4220SOL    HW119265   7.964   1.400   1.470 -2.2268 -0.6456  0.9869
 4220SOL    HW219266   7.825   1.408   1.411 -0.7059  1.4508 -2.6655
 4221SOL     OW19267   3.500   5.909   3.505 -0.6875  0.1295  0.3420
 4221SOL    HW119268   3.525   5.863   3.586 -0.6407  0.3372  0.4444
 4221SOL    HW219269   3.571   5.971   3.490 -1.3206  0.9920  0.8413
 4222SOL     OW19270   3.561   4.648  10.066  0.1466  0.2823  0.4418
 4222SOL    HW119271   3.544   4.703  10.143 -1.6688  0.1680  0.1717
 4222SOL    HW219272   3.536   4.560  10.093 -1.4059  0.3888 -0.5253
 4223SOL     OW19273   8.955   8.356   4.739  0.6889 -0.8862  0.7459
 4223SOL    HW119274   8.971   8.310   4.656 -2.0099 -0.3091 -0.1692
 4223SOL    HW219275   8.863   8.342   4.757  0.6544  1.0659  2.3964
 4224SOL     OW19276  12.076   4.560  12.591 -0.1649 -0.0087 -0.7531
 4224SOL    HW119277  12.126   4.492  12.637 -2.2730 -0.9516  0.2567
 4224SOL    HW219278  12.121   4.642  12.614  1.3717 -0.8719 -0.5501
 4225SOL     OW19279   2.311   4.308   3.010 -0.6710  0.1122  0.2522
 4225SOL    HW119280   2.372   4.376   3.039 -0.2161 -0.5387  0.8470
 4225SOL    HW219281   2.360   4.259   2.944 -1.4618  1.1608 -1.1667
 4226SOL     OW19282   7.711   8.246   8.637 -0.2407 -0.1137  0.0177
 4226SOL    HW119283   7.784   8.296   8.599  1.0440 -1.7898  0.1581
 4226SOL    HW219284   7.649   8.313   8.665  0.4721  1.3097 -1.6250
 4227SOL     OW19285   3.854  12.548   7.517  0.0655  0.1682 -0.2782
 4227SOL    HW119286   3.915  12.600   7.465 -0.2692  1.5549  0.6407
 4227SOL    HW219287   3.789  12.612   7.548 -1.3556 -1.1061 -0.4979
 4228SOL     OW19288  10.391   6.943  10.715  0.5663  0.6830  0.5944
 4228SOL    HW119289  10.468   6.908  10.758  0.1959 -2.1485 -0.8306
 4228SOL    HW219290  10.330   6.964  10.786  1.0154 -1.1763  1.5723
 4229SOL     OW19291   4.451   3.292   8.150  0.0527 -0.5882 -0.0294
 4229SOL    HW119292   4.475   3.222   8.089  0.3197 -0.2830 -0.2808
 4229SOL    HW219293   4.534   3.319   8.189  0.1297  0.4723 -0.8995
 4230SOL     OW19294   8.841   8.315   6.788 -0.0897  0.2456  0.1907
 4230SOL    HW119295   8.850   8.226   6.756 -0.0068  0.3511 -0.0827
 4230SOL    HW219296   8.917   8.361   6.753 -0.8565  0.7726 -0.8545
 4231SOL     OW19297  12.550   0.276   4.495 -0.5528  0.1086 -0.2543
 4231SOL    HW119298  12.483   0.298   4.560 -1.0637 -0.0694 -0.7090
 4231SOL    HW219299  12.606   0.354   4.491 -1.7302  0.9388 -1.0961
 4232SOL     OW19300  12.435   3.183   4.972 -0.0489 -0.2340  0.1513
 4232SOL    HW119301  12.471   3.132   4.899 -0.4542  1.0341 -1.0034
 4232SOL    HW219302  12.445   3.127   5.048 -0.3251 -1.9488 -1.0097
 4233SOL     OW19303   5.428   2.246   0.346  0.1440 -0.1326  0.7637
 4233SOL    HW119304   5.371   2.250   0.268  0.1010  0.7678  0.8274
 4233SOL    HW219305   5.379   2.193   0.408  0.5566 -1.5840 -0.1177
 4234SOL     OW19306   0.634   5.170   5.218  0.7018  0.0540  0.1823
 4234SOL    HW119307   0.711   5.119   5.192  1.0242  0.0895  1.0314
 4234SOL    HW219308   0.559   5.118   5.187  1.0262 -0.9081  0.9482
 4235SOL     OW19309   4.507   3.735   6.200  0.1820 -0.0903 -0.0730
 4235SOL    HW119310   4.525   3.767   6.112 -2.6880  1.9909 -0.0653
 4235SOL    HW219311   4.413   3.716   6.200 -0.2356  1.3294  2.8587
 4236SOL     OW19312   4.629   0.177   0.861 -0.7787 -0.4345  0.0837
 4236SOL    HW119313   4.583   0.093   0.860 -2.5720  0.4553  1.4015
 4236SOL    HW219314   4.690   0.170   0.934 -1.5259 -0.3264  0.7362
 4237SOL     OW19315   7.493   4.381   1.902  0.3729 -0.4120 -0.4144
 4237SOL    HW119316   7.510   4.314   1.968  0.4124  2.0860  2.3339
 4237SOL    HW219317   7.472   4.332   1.822  1.5830 -3.6167  1.0675
 4238SOL     OW19318   6.099  12.658   4.299  0.5385 -0.2248  0.1622
 4238SOL    HW119319   6.068  12.720   4.364  0.6193 -0.3057  0.2793
 4238SOL    HW219320   6.145  12.591   4.351 -1.4976 -1.6193  0.2866
 4239SOL     OW19321   3.524   7.254  10.000  0.0882  0.2294  0.3005
 4239SOL    HW119322   3.596   7.315   9.981  0.8621 -0.6284  0.4364
 4239SOL    HW219323   3.531   7.186   9.933 -1.1382  0.5739 -0.2120
 4240SOL     OW19324   8.988  11.236   0.878 -0.1152  0.2030 -0.4003
 4240SOL    HW119325   9.048  11.162   0.865 -0.6276 -0.1868 -0.6013
 4240SOL    HW219326   9.019  11.278   0.958 -0.8390 -1.2487  0.6920
 4241SOL     OW19327   9.009  11.057   5.714 -0.0974  0.2141 -0.3226
 4241SOL    HW119328   9.025  11.011   5.796 -1.0972  1.1822  0.4403
 4241SOL    HW219329   9.092  11.101   5.694  0.5996 -1.1710 -0.6123
 4242SOL     OW19330   1.767   6.938   0.220 -0.1084  0.2912  0.0381
 4242SOL    HW119331   1.698   7.003   0.205 -0.8624 -0.4374  0.2543
 4242SOL    HW219332   1.848   6.987   0.210 -0.6544  1.2978  0.3173
 4243SOL     OW19333  11.531   8.797  10.947 -0.2430  0.1924 -0.1750
 4243SOL    HW119334  11.590   8.723  10.934  0.4821  0.9025 -1.1317
 4243SOL    HW219335  11.469   8.791  10.875  0.0532  0.7195 -0.4801
 4244SOL     OW19336   4.591   8.521   3.009  0.1022  0.3093 -0.4729
 4244SOL    HW119337   4.620   8.523   2.917  1.1856  2.0812 -0.1372
 4244SOL    HW219338   4.575   8.428   3.026  3.4692 -0.5976 -1.3899
 4245SOL     OW19339   1.811   2.684   2.322  0.0534  0.7980 -0.9012
 4245SOL    HW119340   1.858   2.602   2.305 -1.3319  0.0637 -1.4085
 4245SOL    HW219341   1.733   2.678   2.267 -1.1350  1.5083  0.6384
 4246SOL     OW19342   8.460   1.579   1.390 -0.2324  0.1718  0.1615
 4246SOL    HW119343   8.385   1.547   1.339 -0.4576  0.6060  0.2129
 4246SOL    HW219344   8.533   1.581   1.328 -0.1032 -0.8577  0.2666
 4247SOL     OW19345  10.289   5.941   1.940  0.0892  0.6540 -0.8429
 4247SOL    HW119346  10.347   5.871   1.910  0.6833  0.9469 -0.3911
 4247SOL    HW219347  10.331   5.975   2.019  0.0929  1.9033 -1.3677
 4248SOL     OW19348   6.556   5.291   2.776  0.4977 -0.8721  0.2453
 4248SOL    HW119349   6.613   5.368   2.780 -0.1097 -0.3594 -0.5166
 4248SOL    HW219350   6.533   5.274   2.868 -0.1360  0.4729  0.3696
 4249SOL     OW19351   1.437   6.577   5.901  0.0083 -0.1268  0.3397
 4249SOL    HW119352   1.487   6.539   5.829 -0.7373 -3.6342  1.4638
 4249SOL    HW219353   1.452   6.518   5.975 -1.6845  1.5939  2.1902
 4250SOL     OW19354   0.489   4.196   0.723 -0.2998 -0.2452  0.2146
 4250SOL    HW119355   0.429   4.258   0.764 -1.5031 -0.2933 -1.3726
 4250SOL    HW219356   0.437   4.115   0.715 -0.5143  0.0763 -2.3162
 4251SOL     OW19357   4.438   7.700   8.228 -0.1697  0.1243 -0.1341
 4251SOL    HW119358   4.423   7.781   8.277  1.6237  1.2313 -1.2685
 4251SOL    HW219359   4.532   7.683   8.238 -0.4161 -1.5455 -0.3545
 4252SOL     OW19360   1.035   2.478   4.048 -0.3568  0.1358 -0.0477
 4252SOL    HW119361   0.964   2.542   4.060 -2.3777 -1.4973 -2.2739
 4252SOL    HW219362   1.048   2.440   4.135 -0.0442  2.5695  1.0249
 4253SOL     OW19363  11.076   1.086   4.721  0.2910  0.4912  0.0236
 4253SOL    HW119364  11.106   1.033   4.646  0.5312 -0.3579  0.6960
 4253SOL    HW219365  10.982   1.069   4.725  0.5983 -1.2300  1.2090
 4254SOL     OW19366  10.300   9.906  10.019 -0.0255 -0.4761 -0.1749
 4254SOL    HW119367  10.344   9.985   9.989 -0.0406 -1.1051 -1.9531
 4254SOL    HW219368  10.369   9.854  10.061 -0.0958  0.6003  1.3712
 4255SOL     OW19369   3.557   9.355   0.151 -0.4163  0.3691  0.4661
 4255SOL    HW119370   3.580   9.309   0.071  0.7906 -0.5168  1.3033
 4255SOL    HW219371   3.463   9.374   0.142 -0.3531  0.0226 -1.0063
 4256SOL     OW19372   4.458   7.411   1.264 -0.2501 -0.2006  0.0028
 4256SOL    HW119373   4.469   7.320   1.239 -0.2454  0.2220 -1.6769
 4256SOL    HW219374   4.510   7.460   1.201 -1.9814  1.0781 -0.5318
 4257SOL     OW19375   1.445   3.694   0.522  0.1648 -0.3814 -0.0538
 4257SOL    HW119376   1.447   3.650   0.607 -2.0601  0.0340  0.2836
 4257SOL    HW219377   1.377   3.761   0.532  0.7423  0.5072 -1.7748
 4258SOL     OW19378   2.812   3.367  12.452 -0.1869  0.1796 -0.6922
 4258SOL    HW119379   2.828   3.423  12.528  0.7790  0.8540 -1.3618
 4258SOL    HW219380   2.806   3.279  12.488 -0.7087  0.5891  0.2723
 4259SOL     OW19381   3.774   9.288  12.562 -0.3439 -0.3525  0.6611
 4259SOL    HW119382   3.729   9.372  12.568 -1.1958 -0.1404 -4.3106
 4259SOL    HW219383   3.867   9.310  12.558 -0.2325 -0.1137  3.0006
 4260SOL     OW19384   9.404   9.508   0.508 -0.0165 -0.5602  0.2116
 4260SOL    HW119385   9.402   9.414   0.522 -0.2585 -0.7740 -1.1943
 4260SOL    HW219386   9.416   9.519   0.414 -0.4912  0.8121  0.2837
 4261SOL     OW19387   8.409  12.435   5.164 -0.3404  0.8566 -0.1343
 4261SOL    HW119388   8.493  12.398   5.189 -0.1303  1.2430 -0.2735
 4261SOL    HW219389   8.425  12.477   5.079 -1.6284 -2.7655 -2.4091
 4262SOL     OW19390   5.103   4.907  11.418 -0.1185  0.1349 -0.1389
 4262SOL    HW119391   5.078   4.829  11.469  1.1312 -1.2745 -1.5978
 4262SOL    HW219392   5.153   4.960  11.480 -2.4351  0.7018  1.3991
 4263SOL     OW19393   4.599   7.850   3.344 -0.4397  0.1216  0.9221
 4263SOL    HW119394   4.503   7.852   3.342 -0.5607 -2.4712 -0.2361
 4263SOL    HW219395   4.621   7.803   3.424 -0.0068  1.8857  1.9059
 4264SOL     OW19396  12.200   0.137  10.631  0.1441  0.3786 -0.1539
 4264SOL    HW119397  12.108   0.130  10.655  0.1384  1.3011  0.1513
 4264SOL    HW219398  12.247   0.127  10.713  0.2706  0.8060 -0.1739
 4265SOL     OW19399   6.865   5.040   1.801 -0.1915 -0.8100  0.8141
 4265SOL    HW119400   6.846   5.045   1.707 -0.7852  1.7869  0.9775
 4265SOL    HW219401   6.783   5.063   1.844  0.5598  0.0550  1.8691
 4266SOL     OW19402   3.927   6.745   4.912 -0.1121  0.2218  0.2694
 4266SOL    HW119403   3.947   6.804   4.984  0.8242 -1.7274  1.7164
 4266SOL    HW219404   4.010   6.736   4.865 -0.7900  1.7344 -1.3444
 4267SOL     OW19405   0.713   8.285   0.675 -0.4235 -0.7355 -0.3692
 4267SOL    HW119406   0.774   8.353   0.702 -0.2070 -1.5646  1.4044
 4267SOL    HW219407   0.678   8.315   0.591  1.2301  0.5087 -0.6528
 4268SOL     OW19408  11.598   4.205   6.819 -0.6183  0.7061  0.1206
 4268SOL    HW119409  11.689   4.221   6.844 -0.3815  0.0997 -0.3081
 4268SOL    HW219410  11.572   4.129   6.872 -0.7836  0.7094  0.0443
 4269SOL     OW19411  10.608   1.065  10.759 -0.1564 -0.5366  0.0327
 4269SOL    HW119412  10.688   1.110  10.731  0.0715 -0.1052  1.3330
 4269SOL    HW219413  10.634   0.973  10.766  0.1553 -0.4408  0.1757
 4270SOL     OW19414   1.254   1.132   9.501  0.4177  0.7784 -0.0837
 4270SOL    HW119415   1.221   1.072   9.434  0.7779  1.2592 -0.7027
 4270SOL    HW219416   1.240   1.219   9.464 -0.0116  1.0762  0.7627
 4271SOL     OW19417   5.220   3.468   7.821  0.2561 -0.3797  0.0124
 4271SOL    HW119418   5.137   3.503   7.789  1.3612  3.1308  0.5659
 4271SOL    HW219419   5.197   3.384   7.859 -2.4743 -0.9922 -2.5648
 4272SOL     OW19420   5.333   6.098   2.120  0.7222  0.8175  0.1306
 4272SOL    HW119421   5.244   6.133   2.116  0.9034  1.3057  0.3308
 4272SOL    HW219422   5.325   6.021   2.177 -0.0143 -0.5541 -1.7240
 4273SOL     OW19423  12.542   5.049   0.816  0.4005  0.0986 -0.1796
 4273SOL    HW119424  12.600   5.080   0.885 -0.3690 -0.9724  0.9837
 4273SOL    HW219425  12.600   5.005   0.754  0.8586 -1.0447  1.0147
 4274SOL     OW19426   5.076   3.620   8.510  0.0924 -0.6726  0.3254
 4274SOL    HW119427   5.017   3.679   8.557  1.2756  0.6950  0.1683
 4274SOL    HW219428   5.048   3.627   8.419  1.3595  1.1329  0.0210
 4275SOL     OW19429   4.285   6.464   2.861 -0.4732  0.4395  0.1005
 4275SOL    HW119430   4.212   6.415   2.822 -1.4076  1.9289 -0.1132
 4275SOL    HW219431   4.297   6.540   2.804  0.1423  1.0852  1.0412
 4276SOL     OW19432   0.785   5.188   8.263  0.1520 -0.2133  0.3267
 4276SOL    HW119433   0.764   5.095   8.267 -0.0454 -0.1713  0.2745
 4276SOL    HW219434   0.807   5.204   8.171  1.4035 -0.4701  0.5654
 4277SOL     OW19435  10.223   7.086   6.254 -0.3878  0.0184  0.0737
 4277SOL    HW119436  10.272   7.049   6.328  1.1808 -0.6669 -1.2355
 4277SOL    HW219437  10.232   7.181   6.264  2.0512 -0.0637 -0.5706
 4278SOL     OW19438   8.836   7.617   9.966  0.0539 -0.0815  0.0775
 4278SOL    HW119439   8.914   7.619   9.911  0.0358  0.2504  0.0616
 4278SOL    HW219440   8.832   7.528  10.000 -0.0277 -0.3387 -0.5951
 4279SOL     OW19441   2.456   7.076   8.708 -0.3417  0.2243  0.2705
 4279SOL    HW119442   2.465   7.171   8.701 -0.4804  0.2177 -0.0343
 4279SOL    HW219443   2.424   7.061   8.797  0.7726  0.3843  0.7140
 4280SOL     OW19444   0.415   8.167   6.486 -0.3103 -0.2475 -0.1385
 4280SOL    HW119445   0.418   8.085   6.535  0.1897 -0.7870 -1.0282
 4280SOL    HW219446   0.455   8.232   6.543 -0.2850 -0.7316  0.3973
 4281SOL     OW19447   4.285   8.682   0.080 -0.3511 -0.9938 -0.1105
 4281SOL    HW119448   4.209   8.738   0.091  0.9672  0.6138  1.3001
 4281SOL    HW219449   4.253   8.594   0.099 -1.8205 -0.3418  0.5467
 4282SOL     OW19450   2.779  10.468  11.697  0.3158  0.6144 -0.1177
 4282SOL    HW119451   2.781  10.374  11.680 -0.1557  0.3908  0.9940
 4282SOL    HW219452   2.787  10.508  11.610  1.1029 -0.4383 -0.5570
 4283SOL     OW19453  12.046   4.037   9.382 -0.4514 -0.0033  0.2793
 4283SOL    HW119454  12.007   3.951   9.374 -1.5470  0.4160  0.8927
 4283SOL    HW219455  12.125   4.023   9.434 -0.4041 -0.6923  0.0287
 4284SOL     OW19456   7.628   1.949   6.757  0.8294 -0.2752 -0.7743
 4284SOL    HW119457   7.632   2.029   6.809  0.3233 -1.3396  0.9961
 4284SOL    HW219458   7.674   1.971   6.675 -0.6641  2.2751 -1.0386
 4285SOL     OW19459   3.792   8.172  12.410 -0.5425  0.0082 -0.0498
 4285SOL    HW119460   3.852   8.124  12.466 -0.3240 -0.3197 -0.5542
 4285SOL    HW219461   3.737   8.105  12.371  0.1665  0.0865 -1.2387
 4286SOL     OW19462  11.861  10.567   8.111 -0.1083 -0.1226 -0.2057
 4286SOL    HW119463  11.946  10.526   8.129 -0.2480 -0.1771  0.3488
 4286SOL    HW219464  11.868  10.597   8.020  0.7681  0.5296  0.0617
 4287SOL     OW19465   0.370   8.695   6.562  0.7372 -0.9274 -0.3104
 4287SOL    HW119466   0.447   8.642   6.580  0.7010 -0.6051  0.8621
 4287SOL    HW219467   0.296   8.636   6.574  0.7882 -1.4070 -2.0551
 4288SOL     OW19468   2.597   4.021   9.632  0.8000  0.3720  0.5413
 4288SOL    HW119469   2.556   3.957   9.690  0.3676  1.3108  1.2912
 4288SOL    HW219470   2.689   4.024   9.661  0.9965 -0.4079  0.0387
 4289SOL     OW19471   6.621   2.256   6.908  0.4112  0.0749  0.4775
 4289SOL    HW119472   6.700   2.203   6.907  0.4917  0.0562  2.8975
 4289SOL    HW219473   6.572   2.226   6.985 -1.3561  0.9472 -0.2381
 4290SOL     OW19474   0.465   0.005   9.066 -0.4161  0.0297  0.5521
 4290SOL    HW119475   0.470  -0.052   9.143 -0.3326  0.6764  1.0317
 4290SOL    HW219476   0.372   0.026   9.058 -0.7973 -1.9038 -0.9276
 4291SOL     OW19477   7.414   0.231   1.700 -0.3201 -0.1731 -0.6428
 4291SOL    HW119478   7.446   0.252   1.613 -1.0525  0.0267 -0.8715
 4291SOL    HW219479   7.323   0.261   1.700  0.3802  2.2387  1.0110
 4292SOL     OW19480   3.893  12.120   6.873  0.0618  0.3400 -0.6018
 4292SOL    HW119481   3.831  12.057   6.836 -0.0075 -1.2894  2.0759
 4292SOL    HW219482   3.839  12.187   6.914  0.0447 -0.5547  0.8762
 4293SOL     OW19483   0.052   9.409  12.044  0.2051 -0.2580  0.0343
 4293SOL    HW119484   0.057   9.502  12.019 -0.2195 -0.4656 -0.8641
 4293SOL    HW219485   0.097   9.363  11.973 -0.0939 -0.7783  0.1784
 4294SOL     OW19486  10.915   2.674   8.473 -0.3380 -0.4689  0.2069
 4294SOL    HW119487  10.921   2.602   8.410 -0.3889  0.7594 -1.2888
 4294SOL    HW219488  10.845   2.649   8.532 -0.0423 -1.8432  0.0130
 4295SOL     OW19489  12.389   9.759   9.916 -0.0098  0.1413 -0.1457
 4295SOL    HW119490  12.402   9.699   9.843 -0.4813 -0.4407  0.2366
 4295SOL    HW219491  12.379   9.702   9.992 -0.3851  0.7102  0.2397
 4296SOL     OW19492   6.333  12.062   3.598  0.2745 -0.4418  0.1979
 4296SOL    HW119493   6.265  12.061   3.532  0.5043  0.0515 -0.0524
 4296SOL    HW219494   6.287  12.046   3.681 -0.0070 -1.0823 -0.0741
 4297SOL     OW19495   8.661   7.665   6.113  0.3201 -0.7339 -0.7697
 4297SOL    HW119496   8.724   7.719   6.065  0.7028 -0.7088 -0.2575
 4297SOL    HW219497   8.694   7.667   6.204 -1.7671  1.3237  0.0497
 4298SOL     OW19498   7.044   2.432   9.396 -0.4104 -0.5741 -0.1669
 4298SOL    HW119499   7.037   2.375   9.472 -0.6705  0.7489  0.8250
 4298SOL    HW219500   7.026   2.519   9.429  1.9914  0.4240 -1.2205
 4299SOL     OW19501   2.661   8.678  11.379 -0.0359  0.3734 -0.0016
 4299SOL    HW119502   2.612   8.734  11.320 -2.1055 -0.2553  1.0254
 4299SOL    HW219503   2.738   8.730  11.404  0.7591  0.7733 -2.9084
 4300SOL     OW19504   0.506   8.205   9.899 -0.0822 -0.4239  0.1201
 4300SOL    HW119505   0.466   8.228   9.983 -0.7364 -0.7243 -0.1042
 4300SOL    HW219506   0.433   8.172   9.846  0.1559  0.5633 -0.8641
 4301SOL     OW19507   3.753   2.225   9.668 -0.2529  1.1841  0.3787
 4301SOL    HW119508   3.719   2.137   9.686  1.4877  0.4747  0.4073
 4301SOL    HW219509   3.682   2.269   9.622 -1.8833  0.4285  2.0630
 4302SOL     OW19510  11.445   6.658   1.926  0.3887  0.1626  0.3872
 4302SOL    HW119511  11.458   6.744   1.966 -1.7396  0.2673  0.9625
 4302SOL    HW219512  11.365   6.667   1.874  0.5562 -1.2594 -0.1788
 4303SOL     OW19513  11.161   1.554   1.431  0.1588 -0.3643 -0.3908
 4303SOL    HW119514  11.121   1.470   1.456 -1.9056  0.6456 -0.0749
 4303SOL    HW219515  11.162   1.551   1.335  1.1954 -1.2042 -0.3724
 4304SOL     OW19516  12.495  12.093   6.148 -0.0081 -0.0955 -0.8799
 4304SOL    HW119517  12.406  12.093   6.183  0.4377 -2.9281  0.6057
 4304SOL    HW219518  12.507  12.005   6.112  2.4446 -0.1110 -0.2314
 4305SOL     OW19519   7.782   7.400   3.644 -0.0675  0.4794  0.0631
 4305SOL    HW119520   7.792   7.372   3.553 -0.8428 -1.7446  0.5930
 4305SOL    HW219521   7.870   7.426   3.671  0.2287  0.8842 -1.2182
 4306SOL     OW19522   3.208   6.462   0.035 -0.4015  0.2104 -0.3857
 4306SOL    HW119523   3.215   6.366   0.040  0.6074  0.3203  0.7531
 4306SOL    HW219524   3.170   6.478  -0.051 -0.5813 -1.2198 -0.6032
 4307SOL     OW19525  12.172   7.954   3.780 -0.7172 -0.3467 -0.0359
 4307SOL    HW119526  12.092   7.906   3.760  0.4294 -2.4227  0.0822
 4307SOL    HW219527  12.171   7.965   3.875 -0.5195 -1.0699  0.0581
 4308SOL     OW19528   1.051   5.608   3.667 -0.1096 -0.1037 -0.5196
 4308SOL    HW119529   1.103   5.556   3.606 -0.7911 -0.9992 -0.3594
 4308SOL    HW219530   0.962   5.604   3.633  0.0119  2.0709 -1.2327
 4309SOL     OW19531   3.545  12.242  12.030  0.0942  0.0671 -0.6642
 4309SOL    HW119532   3.635  12.272  12.023 -0.1795  1.3746  0.7769
 4309SOL    HW219533   3.493  12.310  11.987 -0.1748 -1.2588 -2.5685
 4310SOL     OW19534   1.072   7.387   6.776 -0.0865 -0.6819 -0.6490
 4310SOL    HW119535   1.142   7.325   6.753 -0.2402 -0.8746 -0.6042
 4310SOL    HW219536   1.084   7.460   6.716  0.9934 -0.0869  0.2682
 4311SOL     OW19537   7.667   9.981   8.357  0.1152  0.2657  0.1524
 4311SOL    HW119538   7.669   9.961   8.264 -1.0167  0.2735  0.1089
 4311SOL    HW219539   7.705  10.069   8.364  1.4375 -0.2524 -0.1184
 4312SOL     OW19540   7.880   5.486   0.974  0.6578  0.0831 -0.1355
 4312SOL    HW119541   7.867   5.522   0.886  0.2995 -2.0031 -1.0004
 4312SOL    HW219542   7.967   5.516   1.000  1.8996 -1.3450 -2.3246
 4313SOL     OW19543   1.262   2.179   5.436 -0.0478  0.4070  0.0225
 4313SOL    HW119544   1.235   2.258   5.388  0.4192  1.2853  1.1340
 4313SOL    HW219545   1.312   2.213   5.510 -1.5413 -0.8144  1.6877
 4314SOL     OW19546  12.404   9.371  12.484  0.5096  0.7313  0.4777
 4314SOL    HW119547  12.465   9.365  12.411  1.1917  1.9378  0.9208
 4314SOL    HW219548  12.441   9.315  12.552 -0.0342 -0.2499 -0.0094
 4315SOL     OW19549  11.376   8.847   5.170 -0.1599  0.0875  0.1241
 4315SOL    HW119550  11.330   8.855   5.253  1.5979 -0.9031  1.2671
 4315SOL    HW219551  11.328   8.780   5.121 -1.1562  0.6200  0.3429
 4316SOL     OW19552   2.828   4.885   2.946  0.3068 -0.2976 -0.2804
 4316SOL    HW119553   2.805   4.846   3.030 -0.5709 -0.3561 -0.5332
 4316SOL    HW219554   2.918   4.858   2.931  1.3053  1.5869  1.6995
 4317SOL     OW19555  10.448  11.950   6.722 -0.0364 -0.3978 -0.3515
 4317SOL    HW119556  10.364  11.996   6.717 -0.1496 -0.7001 -1.7302
 4317SOL    HW219557  10.511  12.011   6.684  0.0388 -0.8657 -0.9907
 4318SOL     OW19558   9.396   2.424   1.331  0.0250 -0.5236  0.2623
 4318SOL    HW119559   9.320   2.400   1.278 -0.3356  0.8807  0.0903
 4318SOL    HW219560   9.449   2.480   1.273 -0.1224  0.6175  1.1807
 4319SOL     OW19561   3.483   5.886   7.600  0.1819 -0.2294  0.2617
 4319SOL    HW119562   3.425   5.865   7.673 -0.1902 -2.3558 -0.5685
 4319SOL    HW219563   3.509   5.976   7.615 -0.5481 -0.3477  2.5516
 4320SOL     OW19564   0.070   0.594   9.966 -0.1638  0.1339  0.0820
 4320SOL    HW119565   0.092   0.552  10.049 -0.6252  0.1083  0.1948
 4320SOL    HW219566   0.095   0.686   9.979 -1.7795  0.4967  0.8697
 4321SOL     OW19567   6.631   9.762   5.767  0.2761  0.6005  0.1933
 4321SOL    HW119568   6.567   9.713   5.818 -0.1948  0.5144 -0.4523
 4321SOL    HW219569   6.714   9.716   5.780 -0.0321  0.0114  0.1102
 4322SOL     OW19570   1.355   9.742   4.689  0.2628 -0.1673  0.4500
 4322SOL    HW119571   1.295   9.701   4.628 -0.2693  0.1023  0.7770
 4322SOL    HW219572   1.326   9.711   4.775 -2.5406  3.5725  1.1335
 4323SOL     OW19573   9.520   3.597   7.277 -0.0554  0.5348  0.1610
 4323SOL    HW119574   9.537   3.523   7.335 -2.3540  0.1261  0.4162
 4323SOL    HW219575   9.474   3.660   7.332 -1.4673  0.5288 -0.9553
 4324SOL     OW19576   9.223   8.287   5.333 -0.0072  0.3566 -0.6440
 4324SOL    HW119577   9.228   8.290   5.237  0.7073  0.5460 -0.6093
 4324SOL    HW219578   9.263   8.369   5.361 -0.3812  0.3834 -0.1853
 4325SOL     OW19579   7.338  11.740   5.656  0.1551  0.9234 -0.2918
 4325SOL    HW119580   7.409  11.676   5.648 -0.9352 -0.4604  0.6101
 4325SOL    HW219581   7.366  11.813   5.601  1.1515 -0.5918 -1.9157
 4326SOL     OW19582   7.399   2.453   8.338  0.6933  0.2217 -0.5630
 4326SOL    HW119583   7.332   2.400   8.295  1.1049 -0.2573 -0.6225
 4326SOL    HW219584   7.480   2.435   8.289  0.7767  1.1874 -0.8217
 4327SOL     OW19585   3.569  12.114   7.407  0.6470 -0.5155  0.5767
 4327SOL    HW119586   3.658  12.148   7.399  0.7266 -0.8875 -0.2102
 4327SOL    HW219587   3.576  12.044   7.472  1.7742 -3.2010 -2.1591
 4328SOL     OW19588   3.675  12.486   8.369 -0.0831 -0.1109 -0.1866
 4328SOL    HW119589   3.685  12.558   8.306 -1.2364 -1.3266 -1.8327
 4328SOL    HW219590   3.721  12.413   8.329 -0.7999 -0.8936  0.3913
 4329SOL     OW19591   0.002  10.906   9.827  0.5508  0.3964  0.3444
 4329SOL    HW119592   0.019  10.813   9.844 -3.3142 -0.4305  0.5840
 4329SOL    HW219593  -0.093  10.911   9.813  0.9040  3.9817 -2.1241
 4330SOL     OW19594   8.260   2.813   0.492  0.0180  0.3552 -0.8230
 4330SOL    HW119595   8.202   2.859   0.552 -0.0193 -1.9877  1.0883
 4330SOL    HW219596   8.335   2.787   0.545  0.4477 -0.9967 -2.0086
 4331SOL     OW19597   3.317   7.105   7.004 -0.3468  0.0303 -0.8106
 4331SOL    HW119598   3.355   7.019   6.984 -0.4573 -0.4362  0.8566
 4331SOL    HW219599   3.223   7.094   6.989 -0.5368 -0.5618  0.6447
 4332SOL     OW19600   3.566   0.860   7.799  0.7296 -0.2061 -0.1155
 4332SOL    HW119601   3.566   0.951   7.829 -1.0324 -0.5043  0.9387
 4332SOL    HW219602   3.564   0.808   7.879 -0.8267 -1.1059 -0.6861
 4333SOL     OW19603   9.760   7.287  11.177  0.1934 -0.2433  0.5586
 4333SOL    HW119604   9.749   7.253  11.088 -1.4514 -0.4132  0.7854
 4333SOL    HW219605   9.697   7.359  11.183  1.5233  0.9208  1.0474
 4334SOL     OW19606   4.059   6.681   4.187  0.0328 -0.3385 -0.5527
 4334SOL    HW119607   4.154   6.676   4.201 -0.1383 -0.4590  0.6663
 4334SOL    HW219608   4.039   6.775   4.189  0.1632 -0.2890 -1.1872
 4335SOL     OW19609   6.866   7.702  12.710 -0.0513  0.4568  0.0545
 4335SOL    HW119610   6.829   7.688  12.798  2.0992  1.1209  1.1341
 4335SOL    HW219611   6.805   7.764  12.669 -0.7938  0.5948  1.2899
 4336SOL     OW19612   5.464   2.375   1.580  1.0469 -0.5170  0.0444
 4336SOL    HW119613   5.542   2.387   1.525  1.7048  0.2360  1.1153
 4336SOL    HW219614   5.491   2.404   1.667 -0.4919 -0.0787  0.4026
 4337SOL     OW19615   8.181   0.065   0.458 -0.0334  0.3269  0.4473
 4337SOL    HW119616   8.265   0.110   0.449  0.5890 -1.0376 -0.8965
 4337SOL    HW219617   8.123   0.111   0.397  0.0805  0.4822  0.4561
 4338SOL     OW19618  11.472   5.663   4.280 -0.1276  0.4205  0.2265
 4338SOL    HW119619  11.510   5.588   4.326  0.7979  0.4367 -0.4788
 4338SOL    HW219620  11.425   5.624   4.206 -0.8741  0.4520  0.6737
 4339SOL     OW19621   6.507   3.599  11.519  0.0396  0.5997 -0.2339
 4339SOL    HW119622   6.414   3.618  11.517  0.0934  0.8009 -0.7783
 4339SOL    HW219623   6.515   3.511  11.482 -0.1271 -0.2445  1.5850
 4340SOL     OW19624   8.261   6.619   3.664  0.4937 -0.4437  0.3645
 4340SOL    HW119625   8.263   6.555   3.593  0.9939 -0.8190  0.7061
 4340SOL    HW219626   8.330   6.682   3.642 -0.2053  0.1735 -0.1330
 4341SOL     OW19627   2.589   3.531   3.393 -0.3697  0.2539  0.2074
 4341SOL    HW119628   2.623   3.616   3.419  0.4846  0.0848 -0.3271
 4341SOL    HW219629   2.570   3.486   3.475 -1.8109  1.3227  0.5074
 4342SOL     OW19630   5.063  10.847   0.347 -0.1551  0.2632  0.0674
 4342SOL    HW119631   5.092  10.937   0.332 -0.6165  0.3272 -0.4924
 4342SOL    HW219632   5.144  10.797   0.354  0.1359  0.3952 -1.7550
 4343SOL     OW19633   4.590  11.089   9.873 -0.4232 -0.8779 -0.3186
 4343SOL    HW119634   4.580  11.083   9.778  1.0651  0.8526 -0.6592
 4343SOL    HW219635   4.678  11.056   9.890 -0.5681 -0.8963  0.4097
 4344SOL     OW19636   0.881   9.687   0.948  0.1642  0.1638 -0.0734
 4344SOL    HW119637   0.927   9.708   1.030 -1.8501  1.3340  0.8351
 4344SOL    HW219638   0.896   9.593   0.936  1.0169  0.0865  1.3168
 4345SOL     OW19639   8.028   4.109   1.176  0.1711 -0.5097  0.0376
 4345SOL    HW119640   8.071   4.024   1.172  0.9504 -0.2721  2.0279
 4345SOL    HW219641   7.940   4.090   1.211  0.2343 -0.5456  0.1786
 4346SOL     OW19642   7.477   4.419  12.590  0.2833 -0.0075 -0.1660
 4346SOL    HW119643   7.455   4.377  12.507 -1.2978 -1.0898  0.7593
 4346SOL    HW219644   7.533   4.356  12.635  0.2104  0.0811  0.0500
 4347SOL     OW19645   2.904   9.312   8.491 -0.2056  0.0672  0.2545
 4347SOL    HW119646   2.912   9.385   8.429 -0.5492  0.6630  0.8921
 4347SOL    HW219647   2.857   9.244   8.442 -1.4674  0.9508  0.1889
 4348SOL     OW19648   8.165   1.828   7.189  0.2078  0.6167 -0.3725
 4348SOL    HW119649   8.130   1.794   7.271  1.0155  0.0200 -0.2628
 4348SOL    HW219650   8.123   1.775   7.121  1.3619 -0.5548 -0.2079
 4349SOL     OW19651   0.985   1.217   1.070  0.8455  0.2229 -0.0083
 4349SOL    HW119652   0.981   1.261   0.986  1.6296 -2.4120 -1.5431
 4349SOL    HW219653   0.920   1.147   1.064  1.6410 -0.6563  1.1455
 4350SOL     OW19654   5.280   9.418   9.050  0.7054 -0.5510  0.4811
 4350SOL    HW119655   5.356   9.362   9.035  0.4892 -0.1274 -3.1220
 4350SOL    HW219656   5.287   9.487   8.984 -2.3755 -0.0280  0.5272
 4351SOL     OW19657   4.907   2.364  11.123 -0.0613  0.0540  0.0357
 4351SOL    HW119658   4.993   2.389  11.089 -0.6537 -0.3881 -1.9491
 4351SOL    HW219659   4.857   2.340  11.045 -1.3914 -1.5436  1.3031
 4352SOL     OW19660   5.583   6.521  10.040  0.2381  0.1399 -0.4695
 4352SOL    HW119661   5.658   6.541   9.984  1.3455 -0.5365  0.7194
 4352SOL    HW219662   5.554   6.434  10.012 -0.8038  0.8129 -1.6204
 4353SOL     OW19663   4.288   3.708   2.092  0.7646  0.1876  0.0993
 4353SOL    HW119664   4.247   3.786   2.055 -0.7368 -1.1768 -1.3007
 4353SOL    HW219665   4.371   3.739   2.128  0.5958  2.2745 -1.1473
 4354SOL     OW19666   8.443   8.703   4.604  0.1346 -0.3027 -0.0434
 4354SOL    HW119667   8.441   8.764   4.678  0.1560 -0.3480 -0.0056
 4354SOL    HW219668   8.531   8.712   4.567 -0.4010  0.9467 -1.0898
 4355SOL     OW19669   5.181   6.419  11.802 -0.1772  0.3813  0.4014
 4355SOL    HW119670   5.240   6.364  11.854 -1.2991  0.0777  1.3892
 4355SOL    HW219671   5.164   6.368  11.723  1.4137  0.7748 -0.2407
 4356SOL     OW19672   2.876   9.064   1.492 -0.4633  0.0717 -0.2408
 4356SOL    HW119673   2.901   9.154   1.468  0.3173 -0.2998 -0.8836
 4356SOL    HW219674   2.782   9.068   1.504 -0.5274  0.8536 -0.8711
 4357SOL     OW19675   5.146   0.279   7.527 -0.6882  0.4923  0.3017
 4357SOL    HW119676   5.203   0.237   7.591  1.1531  1.2811 -0.7361
 4357SOL    HW219677   5.098   0.207   7.487 -0.4562 -0.2015  1.2395
 4358SOL     OW19678   8.597   9.453   0.267  0.1054  0.0825  0.3361
 4358SOL    HW119679   8.549   9.445   0.349  0.4804  0.3116  0.5821
 4358SOL    HW219680   8.625   9.545   0.265  0.1219  0.0702 -0.0339
 4359SOL     OW19681   0.674  12.613   8.181 -0.0054 -0.0614  0.4255
 4359SOL    HW119682   0.626  12.600   8.263 -1.0907  0.6543 -0.0759
 4359SOL    HW219683   0.608  12.602   8.113  0.6586  0.4336 -0.3097
 4360SOL     OW19684  10.537   0.233   1.957  0.5135  0.3389 -1.0378
 4360SOL    HW119685  10.564   0.325   1.955  0.5406  0.3359 -0.8125
 4360SOL    HW219686  10.558   0.200   1.870  0.6669  0.5001 -1.0622
 4361SOL     OW19687  10.261  12.059   3.792  0.5397 -0.8400 -0.1510
 4361SOL    HW119688  10.332  12.067   3.856  0.2433  1.0369  0.0084
 4361SOL    HW219689  10.295  11.999   3.725  2.1974 -0.1422  0.0205
 4362SOL     OW19690   5.161   9.642  10.037 -0.5960 -0.2334  0.1762
 4362SOL    HW119691   5.244   9.688  10.023 -0.5936 -0.2581  0.1097
 4362SOL    HW219692   5.178   9.553  10.006 -0.7229 -0.1745 -0.0589
 4363SOL     OW19693   0.879   9.594  10.879  0.5336  0.1174 -0.6833
 4363SOL    HW119694   0.952   9.550  10.836  0.2202  0.3264 -1.4530
 4363SOL    HW219695   0.804   9.577  10.821  0.1233  0.4812 -0.2636
 4364SOL     OW19696   8.042   7.213   1.399  0.3242 -0.0588 -0.0830
 4364SOL    HW119697   7.992   7.277   1.449  0.2201 -1.0423  1.1131
 4364SOL    HW219698   8.104   7.265   1.348 -1.4064  1.1480 -1.0526
 4365SOL     OW19699  11.993   4.204   6.920  0.2467 -0.3336 -0.1999
 4365SOL    HW119700  11.980   4.232   6.829  0.1568 -1.4415 -0.5441
 4365SOL    HW219701  12.088   4.203   6.932  0.2399  1.0347  0.1307
 4366SOL     OW19702   0.483   7.844   8.571  0.0733 -0.0075  0.8667
 4366SOL    HW119703   0.397   7.801   8.568 -0.5914  1.3264 -0.2663
 4366SOL    HW219704   0.465   7.932   8.603  0.9960  0.3267  0.5081
 4367SOL     OW19705   0.497  10.503   8.104 -0.7381  0.8861  0.4728
 4367SOL    HW119706   0.502  10.523   8.197  1.9779  1.7927  0.2318
 4367SOL    HW219707   0.562  10.562   8.064 -1.8381  0.5341 -1.9953
 4368SOL     OW19708  11.323  11.312   2.576 -0.0479  0.2359 -0.5043
 4368SOL    HW119709  11.394  11.257   2.609  0.3477  1.4774  0.8439
 4368SOL    HW219710  11.303  11.371   2.649 -1.5815  0.7690 -1.3213
 4369SOL     OW19711   2.409   5.442   5.961 -0.4085 -0.2988  0.1015
 4369SOL    HW119712   2.369   5.447   5.874 -1.6940  1.2993  0.7263
 4369SOL    HW219713   2.348   5.390   6.013 -0.2725 -0.2125  0.3522
 4370SOL     OW19714   7.303   9.131   8.901  0.3423 -0.3973 -0.0211
 4370SOL    HW119715   7.213   9.159   8.915 -0.8385 -3.4381 -0.6553
 4370SOL    HW219716   7.335   9.105   8.987 -0.4921 -2.0542 -0.1700
 4371SOL     OW19717   3.580   4.911  12.410  0.0649 -0.1791 -0.2665
 4371SOL    HW119718   3.491   4.888  12.385 -0.3076  0.8001  0.0787
 4371SOL    HW219719   3.571   4.996  12.453  0.7493 -1.4017  2.5178
 4372SOL     OW19720   6.625   6.922   3.377  0.3690 -0.3002  0.7086
 4372SOL    HW119721   6.656   6.883   3.295 -0.5178 -0.1996  0.3139
 4372SOL    HW219722   6.700   6.971   3.409  0.1235  1.4907 -1.2010
 4373SOL     OW19723  12.770   6.921  11.958  0.3044  0.6323 -0.1072
 4373SOL    HW119724  12.700   6.856  11.949 -1.1463  2.0297  0.6618
 4373SOL    HW219725  12.850   6.869  11.971 -0.3040 -1.0440 -2.4610
 4374SOL     OW19726   9.408   3.247   4.435 -0.0249 -0.2178 -0.1174
 4374SOL    HW119727   9.377   3.272   4.522 -0.7716 -1.0764 -0.1207
 4374SOL    HW219728   9.329   3.228   4.386  0.3499  0.9140 -1.2140
 4375SOL     OW19729   8.718   1.040   2.939  0.3010  0.2544  0.2393
 4375SOL    HW119730   8.695   1.089   3.018 -0.8304  0.9007 -0.4591
 4375SOL    HW219731   8.798   0.992   2.963  0.0520  0.5174  1.7247
 4376SOL     OW19732   1.440   8.833   6.788 -0.1567  0.4233 -0.5975
 4376SOL    HW119733   1.501   8.777   6.739 -0.3881  0.8062 -1.3338
 4376SOL    HW219734   1.354   8.805   6.758 -0.2582  1.6117 -1.4655
 4377SOL     OW19735  12.155  12.620  10.036 -0.0156  0.6779 -0.5141
 4377SOL    HW119736  12.187  12.631   9.947 -0.1323 -0.1417 -0.6589
 4377SOL    HW219737  12.082  12.559  10.028  0.6037 -0.1822  0.2701
 4378SOL     OW19738   1.741  11.486   0.390 -0.1649  0.1157 -0.2980
 4378SOL    HW119739   1.695  11.542   0.452  1.0452  1.1901 -0.3340
 4378SOL    HW219740   1.775  11.414   0.444  0.4950  0.8014  0.2269
 4379SOL     OW19741   9.773   9.553   1.207 -0.1681  0.4741  0.4876
 4379SOL    HW119742   9.774   9.490   1.134 -0.9564 -0.5812  1.3515
 4379SOL    HW219743   9.817   9.630   1.172  2.1256 -1.0324 -0.1750
 4380SOL     OW19744   0.536   3.782   8.926  0.0210 -0.4945  0.0880
 4380SOL    HW119745   0.563   3.707   8.979 -0.4365  0.1377  1.2701
 4380SOL    HW219746   0.572   3.858   8.973  0.5310  0.0344 -1.1192
 4381SOL     OW19747   1.132   6.840   7.181 -0.4855  0.1255  0.4644
 4381SOL    HW119748   1.198   6.910   7.185 -0.8714  0.4643  1.1658
 4381SOL    HW219749   1.093   6.839   7.268 -1.8236  0.3385 -0.1091
 4382SOL     OW19750  10.169   7.048   6.801 -0.1565 -0.1674  0.0007
 4382SOL    HW119751  10.131   7.114   6.858 -0.1792 -0.2048  0.0293
 4382SOL    HW219752  10.148   7.077   6.712  1.1560  0.6818 -0.0636
 4383SOL     OW19753   5.716  10.859   9.738 -0.0279 -0.4118 -0.0863
 4383SOL    HW119754   5.641  10.887   9.790 -1.1254  0.1609 -1.8917
 4383SOL    HW219755   5.688  10.777   9.696  0.1093  0.1062 -1.2364
 4384SOL     OW19756   8.801   3.693   5.446  0.0232 -0.3813  0.0684
 4384SOL    HW119757   8.827   3.605   5.418  0.1476  0.0275 -1.1485
 4384SOL    HW219758   8.706   3.692   5.441 -0.0278 -0.7238  0.9476
 4385SOL     OW19759   5.672   4.916   0.647  0.4313  0.5342 -0.1111
 4385SOL    HW119760   5.749   4.863   0.627 -0.1242 -0.6883  0.8742
 4385SOL    HW219761   5.708   4.996   0.687  1.2692  0.8654 -1.4731
 4386SOL     OW19762   7.385   0.594   7.983 -0.6002  0.0245  0.7048
 4386SOL    HW119763   7.369   0.588   7.889  1.2601  1.0431  0.2662
 4386SOL    HW219764   7.303   0.566   8.023 -1.8597  0.7043 -1.2246
 4387SOL     OW19765   3.791   4.511   0.764 -0.0649  0.5822 -0.1616
 4387SOL    HW119766   3.848   4.523   0.840 -0.6067  1.2607  0.1433
 4387SOL    HW219767   3.843   4.456   0.705 -0.7130 -2.5245  1.8969
 4388SOL     OW19768   3.127  11.990   7.939 -0.2016  0.0315  0.0914
 4388SOL    HW119769   3.103  11.901   7.964 -1.8122 -0.7844 -3.7205
 4388SOL    HW219770   3.046  12.029   7.907  1.3680  0.9575 -3.1771
 4389SOL     OW19771   1.605   5.536   0.134 -0.1763  0.3589  0.0985
 4389SOL    HW119772   1.627   5.447   0.105  2.2458  0.3386  1.6292
 4389SOL    HW219773   1.531   5.524   0.193  0.2714 -0.7302  0.4753
 4390SOL     OW19774   8.637   2.661  12.282 -0.6107  0.2590 -0.1669
 4390SOL    HW119775   8.627   2.729  12.216  0.2967  0.0898 -0.4839
 4390SOL    HW219776   8.556   2.609  12.276  0.1057 -0.7109 -2.2458
 4391SOL     OW19777   8.579   0.631  12.643  0.2260 -0.1492 -0.2964
 4391SOL    HW119778   8.602   0.710  12.692 -1.9289  1.3894 -1.5826
 4391SOL    HW219779   8.641   0.628  12.571 -0.3635  1.0610 -0.8788
 4392SOL     OW19780   6.700   2.538   6.459  0.1409 -0.4959  0.2149
 4392SOL    HW119781   6.613   2.523   6.496 -0.1635  0.6195 -0.0088
 4392SOL    HW219782   6.734   2.451   6.441 -0.8022 -0.9559  0.6029
 4393SOL     OW19783   5.400   8.046   0.469 -0.2353  0.6903 -0.1071
 4393SOL    HW119784   5.384   8.000   0.551 -0.8648 -0.8423 -1.0400
 4393SOL    HW219785   5.323   8.102   0.458 -1.5043 -1.0958 -0.9055
 4394SOL     OW19786  12.723  10.495   1.828 -0.0867 -0.1038 -0.0327
 4394SOL    HW119787  12.738  10.400   1.821  2.1857  0.2715 -1.2244
 4394SOL    HW219788  12.723  10.525   1.737 -0.5766  1.0815  0.3519
 4395SOL     OW19789   5.196  12.579   5.048  0.3556 -0.6151  0.1735
 4395SOL    HW119790   5.157  12.666   5.042  0.0104 -0.7512  0.4133
 4395SOL    HW219791   5.248  12.571   4.969 -2.2078 -1.4584 -1.5756
 4396SOL     OW19792   3.110   5.632   5.797  0.2778 -0.1120 -0.5550
 4396SOL    HW119793   3.188   5.595   5.839  0.8856  0.0664 -1.5109
 4396SOL    HW219794   3.076   5.695   5.861  1.9605  1.1469 -0.8211
 4397SOL     OW19795   9.046   5.947   3.749 -0.5579 -0.2218 -0.1066
 4397SOL    HW119796   9.039   5.969   3.842  0.1124 -1.6463  0.3013
 4397SOL    HW219797   9.041   5.852   3.746  2.5222 -0.4643 -1.2086
 4398SOL     OW19798   2.488   4.404  11.360  0.5968 -0.6162 -0.3239
 4398SOL    HW119799   2.523   4.402  11.449 -0.2911 -1.0403  0.0213
 4398SOL    HW219800   2.486   4.313  11.333 -2.0088 -0.8358  0.3865
 4399SOL     OW19801   0.777   5.842   8.675 -0.0484  0.1150  0.9477
 4399SOL    HW119802   0.753   5.902   8.604  3.9366  1.3426  0.4351
 4399SOL    HW219803   0.778   5.898   8.753  2.6009  0.5884  0.6515
 4400SOL     OW19804   3.098   1.433   8.726  0.0899  0.0413 -0.0699
 4400SOL    HW119805   3.061   1.508   8.771  1.4320  0.3802  0.4777
 4400SOL    HW219806   3.021   1.387   8.690 -0.8827  0.5965  1.2289
 4401SOL     OW19807   0.959  11.094  10.990 -0.4267 -0.1057 -0.3614
 4401SOL    HW119808   0.981  11.037  10.917  0.9852  1.0998 -0.9252
 4401SOL    HW219809   0.913  11.037  11.052  1.4352 -2.0292 -0.6136
 4402SOL     OW19810   2.173   3.153   0.496 -0.1178  0.0963  0.2519
 4402SOL    HW119811   2.110   3.220   0.521  1.1983  1.3485  0.3537
 4402SOL    HW219812   2.217   3.130   0.578 -0.3235 -0.6657  0.1598
 4403SOL     OW19813  10.580   9.259  11.360  0.1079  0.2858 -0.5856
 4403SOL    HW119814  10.571   9.345  11.402  0.2202  0.8692 -1.7171
 4403SOL    HW219815  10.500   9.212  11.385  0.1998  0.5877  0.3214
 4404SOL     OW19816   3.815   7.943   6.294  0.4077  0.2143 -0.4343
 4404SOL    HW119817   3.771   7.863   6.264 -0.5039  0.8574 -0.8420
 4404SOL    HW219818   3.884   7.911   6.352 -1.9535 -0.7696  2.0442
 4405SOL     OW19819   9.862  10.097   9.684  0.5916 -0.3043 -0.3072
 4405SOL    HW119820   9.854  10.100   9.589  0.2167  0.7924 -0.2585
 4405SOL    HW219821   9.828  10.010   9.708 -0.0351 -0.2963 -1.1060
 4406SOL     OW19822   9.175   1.512   1.709 -0.1156 -0.0882  0.5218
 4406SOL    HW119823   9.251   1.503   1.767 -0.5640 -0.1507  1.1055
 4406SOL    HW219824   9.175   1.431   1.659 -0.1688 -0.3755  0.9767
 4407SOL     OW19825   8.276   7.637   3.740 -0.0162 -0.0737  0.0590
 4407SOL    HW119826   8.201   7.696   3.746 -0.4544 -0.3507 -1.8604
 4407SOL    HW219827   8.339   7.684   3.685  0.1573 -0.8539 -0.4242
 4408SOL     OW19828   3.437   2.806   8.524 -0.5723 -0.1278 -0.2479
 4408SOL    HW119829   3.398   2.798   8.611 -1.9474  0.0114 -0.8175
 4408SOL    HW219830   3.488   2.726   8.513 -1.0550 -0.5314  0.3746
 4409SOL     OW19831   1.606   0.391  10.699  0.5287 -0.2895 -0.4046
 4409SOL    HW119832   1.675   0.428  10.753  1.9393  0.0261 -2.2991
 4409SOL    HW219833   1.600   0.299  10.727 -0.1491  0.3026  1.5325
 4410SOL     OW19834   3.148   2.057  12.326 -0.0963  0.0645  0.0664
 4410SOL    HW119835   3.170   1.973  12.366  0.7833  0.1945 -0.1186
 4410SOL    HW219836   3.077   2.092  12.381  0.2045 -0.3490  0.7357
 4411SOL     OW19837   8.670  12.368   0.286  0.3504  0.2861  0.5128
 4411SOL    HW119838   8.695  12.281   0.316 -1.5577  0.3780  2.7053
 4411SOL    HW219839   8.683  12.425   0.362 -0.0256  1.5789 -0.3493
 4412SOL     OW19840   5.894   6.760   1.014 -0.4670  0.4650  0.0250
 4412SOL    HW119841   5.859   6.679   0.976 -1.0636  1.1837 -1.0006
 4412SOL    HW219842   5.821   6.822   1.009 -0.0151  1.0718  0.8034
 4413SOL     OW19843   2.709   3.595  11.860  0.0178 -0.2249  0.4629
 4413SOL    HW119844   2.711   3.506  11.827  0.1432  0.2167 -0.7637
 4413SOL    HW219845   2.616   3.614  11.873 -0.1418 -0.0013 -0.8372
 4414SOL     OW19846   2.787   0.451   8.076  0.6616  0.2505  0.3633
 4414SOL    HW119847   2.827   0.368   8.054 -0.0607  0.0581 -0.2637
 4414SOL    HW219848   2.786   0.500   7.994 -2.3667 -0.6064 -0.2415
 4415SOL     OW19849   8.838   9.196   5.588 -0.3740 -0.5152 -0.4766
 4415SOL    HW119850   8.846   9.141   5.510  0.7949  0.6473 -1.2019
 4415SOL    HW219851   8.836   9.134   5.661 -1.3412 -1.6177 -1.3976
 4416SOL     OW19852   2.422  12.764   2.105 -0.3006 -0.4613  0.1449
 4416SOL    HW119853   2.333  12.732   2.087  0.1755 -1.0034 -1.3713
 4416SOL    HW219854   2.429  12.844   2.053 -0.3509  0.3527  1.3495
 4417SOL     OW19855   0.163   4.343   6.706 -0.3258  0.5484 -0.0997
 4417SOL    HW119856   0.180   4.280   6.776 -0.4650  0.1100 -0.4567
 4417SOL    HW219857   0.243   4.342   6.653 -0.2464  0.8294  0.0127
 4418SOL     OW19858   6.528  11.813   4.299  0.1081  0.5277 -0.0865
 4418SOL    HW119859   6.616  11.825   4.264  0.7750 -1.0840  0.9305
 4418SOL    HW219860   6.480  11.771   4.227 -0.1837  2.3632 -1.0258
 4419SOL     OW19861   5.132   4.673   4.989 -0.6330  0.6391  0.2222
 4419SOL    HW119862   5.209   4.725   5.016 -1.3688  0.7684  2.2445
 4419SOL    HW219863   5.160   4.582   4.999  0.1368  0.5957 -1.8029
 4420SOL     OW19864   2.415  11.334   1.500  0.4163 -0.3514  0.3840
 4420SOL    HW119865   2.475  11.281   1.448 -0.6469 -1.9258  0.7038
 4420SOL    HW219866   2.406  11.415   1.451  1.6964 -0.6474 -0.3782
 4421SOL     OW19867  12.364  10.494   1.658  0.0185  0.1664  0.3009
 4421SOL    HW119868  12.380  10.408   1.619 -0.9284  0.0970  0.0348
 4421SOL    HW219869  12.448  10.519   1.697  0.1056 -1.2168  1.0599
 4422SOL     OW19870  11.135   1.380  12.396  0.3887 -0.5584  0.3405
 4422SOL    HW119871  11.132   1.415  12.306  3.1610  1.0237  0.7397
 4422SOL    HW219872  11.082   1.441  12.447  0.1450 -0.5132  0.0360
 4423SOL     OW19873   0.016   4.997   7.519 -0.0752  0.1882  0.3675
 4423SOL    HW119874   0.088   4.991   7.457 -1.1183  0.2820 -0.8905
 4423SOL    HW219875   0.030   4.922   7.578 -0.1547 -1.1250 -1.1962
 4424SOL     OW19876   3.059   7.633  12.784 -0.1594  0.3511 -0.4517
 4424SOL    HW119877   3.013   7.689  12.721 -0.9052  0.8851  0.5321
 4424SOL    HW219878   3.119   7.581  12.730 -0.4672  1.0827 -1.5508
 4425SOL     OW19879   0.740   4.811   2.350 -0.0691  0.0370  0.0159
 4425SOL    HW119880   0.749   4.746   2.279  0.0865  0.8815 -0.7535
 4425SOL    HW219881   0.650   4.842   2.342 -0.1807 -0.1595  0.4647
 4426SOL     OW19882   0.083   9.735  12.353 -0.1392  0.1216  0.2538
 4426SOL    HW119883   0.050   9.646  12.370 -1.7332  0.6115 -0.0958
 4426SOL    HW219884   0.009   9.792  12.374  1.0215  1.4203  0.9419
 4427SOL     OW19885   5.154  11.290  12.021  0.2237 -0.3848  0.0219
 4427SOL    HW119886   5.162  11.258  11.931 -0.5352 -0.1797 -0.1244
 4427SOL    HW219887   5.175  11.214  12.075  0.9404 -0.4392 -0.3270
 4428SOL     OW19888   3.425   5.366  10.687 -0.1957  0.2941 -0.0730
 4428SOL    HW119889   3.356   5.312  10.726 -0.2231 -0.4716 -1.1470
 4428SOL    HW219890   3.504   5.340  10.733 -0.3177 -0.1826 -0.1301
 4429SOL     OW19891   8.921   1.875  11.651  0.0277 -0.2505  0.1494
 4429SOL    HW119892   8.974   1.843  11.578  0.5574 -0.9468  0.8347
 4429SOL    HW219893   8.981   1.878  11.725 -0.5497  0.2961  0.6038
 4430SOL     OW19894  11.551   4.351  11.903  0.4677 -0.1891  0.3747
 4430SOL    HW119895  11.619   4.322  11.842  1.4215  0.9891  0.8248
 4430SOL    HW219896  11.574   4.442  11.922 -0.0072 -0.4148  2.2139
 4431SOL     OW19897   2.153   1.096  10.563 -0.8691  0.4743 -0.5279
 4431SOL    HW119898   2.130   1.109  10.471 -1.6134  0.4393 -0.3497
 4431SOL    HW219899   2.139   1.003  10.579  0.5005  0.2125 -0.7074
 4432SOL     OW19900   8.366   8.165   1.774  0.5389  0.0563 -0.5268
 4432SOL    HW119901   8.434   8.104   1.803  0.3487  0.3462  0.5556
 4432SOL    HW219902   8.309   8.176   1.850  0.5595  1.5805 -0.7075
 4433SOL     OW19903   3.565   5.938  11.131  0.6153 -0.3302  0.4315
 4433SOL    HW119904   3.645   5.989  11.148  0.2308 -0.1579  1.8312
 4433SOL    HW219905   3.524   5.982  11.057  1.2886  0.2160  0.3750
 4434SOL     OW19906   4.395   9.644   8.349  0.2209  0.3047  0.1060
 4434SOL    HW119907   4.368   9.553   8.336 -0.4683  0.5704 -0.3704
 4434SOL    HW219908   4.324   9.683   8.400  0.7901  0.4384  0.8248
 4435SOL     OW19909  11.316  11.354   2.271 -0.2213  0.5668 -0.3209
 4435SOL    HW119910  11.338  11.380   2.360 -0.3943 -1.9737  0.5598
 4435SOL    HW219911  11.224  11.327   2.277  0.0492 -0.5683 -0.9953
 4436SOL     OW19912   1.039   3.691  10.393 -0.3156 -0.5582 -0.2676
 4436SOL    HW119913   1.041   3.625  10.463 -1.8620  0.1731  0.4985
 4436SOL    HW219914   1.123   3.738  10.403  0.3026 -1.6573 -0.1137
 4437SOL     OW19915  11.060   3.821   7.584 -0.6742 -0.2384 -0.0784
 4437SOL    HW119916  11.090   3.853   7.670  0.0015 -1.8555  0.3259
 4437SOL    HW219917  11.077   3.894   7.525  1.2295  0.0439  0.7189
 4438SOL     OW19918   0.383  12.259   5.855 -0.1438  0.6711  0.2230
 4438SOL    HW119919   0.304  12.206   5.866  0.3561 -0.5366 -1.5885
 4438SOL    HW219920   0.420  12.265   5.943 -0.9720 -0.8032  0.7106
 4439SOL     OW19921   8.984   3.607   8.713 -0.6780 -0.1603 -0.9247
 4439SOL    HW119922   8.956   3.677   8.771 -0.8270 -1.1512  0.2398
 4439SOL    HW219923   9.067   3.639   8.676 -0.3532  0.3298  0.1642
 4440SOL     OW19924   4.139   9.626   0.255 -0.2397  0.0421  0.0610
 4440SOL    HW119925   4.191   9.563   0.306 -0.4602 -0.7376 -0.6408
 4440SOL    HW219926   4.080   9.571   0.203 -0.2622  0.8271 -0.7716
 4441SOL     OW19927  11.934   3.945   6.036 -0.0707  0.2225 -0.2418
 4441SOL    HW119928  11.989   4.016   6.070 -0.7856  1.6652 -1.9767
 4441SOL    HW219929  11.868   3.932   6.104 -0.1759  1.5167 -0.0691
 4442SOL     OW19930   9.175   7.550   5.385  0.1522 -0.4122 -0.4518
 4442SOL    HW119931   9.112   7.506   5.328  1.3100  0.0075 -2.1137
 4442SOL    HW219932   9.145   7.530   5.474 -1.0114 -2.0855 -1.1795
 4443SOL     OW19933   6.414   6.387   9.281  0.2318  0.9178  0.3616
 4443SOL    HW119934   6.423   6.482   9.286 -2.2847  1.2054  0.3490
 4443SOL    HW219935   6.320   6.372   9.274  0.4075 -1.6825  2.4291
 4444SOL     OW19936   4.345  11.283   1.683  0.4288  0.3031 -0.1670
 4444SOL    HW119937   4.374  11.321   1.766 -0.6140  3.2372 -0.9999
 4444SOL    HW219938   4.406  11.318   1.618 -0.2808  0.1486 -0.9308
 4445SOL     OW19939   8.086   2.363   3.269  0.5692 -0.5386  0.3994
 4445SOL    HW119940   8.116   2.433   3.327 -2.5995  3.0705 -1.8330
 4445SOL    HW219941   8.148   2.363   3.196  1.0134 -0.6081  0.7776
 4446SOL     OW19942   2.459  11.942   9.668 -0.0118 -0.4391 -0.3285
 4446SOL    HW119943   2.502  11.878   9.611  0.9912 -2.1005  2.0951
 4446SOL    HW219944   2.531  11.983   9.716 -0.7625  1.5218 -0.7812
 4447SOL     OW19945   1.794   9.981   6.782 -0.2208 -0.1136  0.7187
 4447SOL    HW119946   1.871  10.036   6.772  1.2176 -1.9469  1.3147
 4447SOL    HW219947   1.823   9.893   6.759 -1.7965 -1.0834  2.1555
 4448SOL     OW19948   7.063   9.758  11.771 -0.1972  0.0937  0.3130
 4448SOL    HW119949   7.000   9.686  11.777 -0.3566  0.2282  0.2616
 4448SOL    HW219950   7.038   9.805  11.691  1.4356 -1.2496 -1.0652
 4449SOL     OW19951   8.320   2.265   7.247  0.0653 -0.0874  0.5254
 4449SOL    HW119952   8.388   2.230   7.305  0.0780 -0.2186  0.4331
 4449SOL    HW219953   8.301   2.193   7.187 -0.1350 -0.0384  0.5322
 4450SOL     OW19954   8.253  11.441   6.745 -0.0966 -0.2232  0.2604
 4450SOL    HW119955   8.225  11.425   6.655  0.1474 -0.8542  0.2874
 4450SOL    HW219956   8.294  11.358   6.772  2.2031  0.7670  0.0715
 4451SOL     OW19957   3.531   9.937   5.118  0.1381 -0.2638 -0.0408
 4451SOL    HW119958   3.452   9.986   5.142  0.2357 -0.4791  0.7664
 4451SOL    HW219959   3.546   9.958   5.026  0.4021  1.5556  0.3836
 4452SOL     OW19960   4.804   5.286   6.338 -0.1028  0.5437  0.0113
 4452SOL    HW119961   4.889   5.280   6.381 -0.0754  0.0194 -0.1100
 4452SOL    HW219962   4.751   5.340   6.396 -0.7930 -1.9893  1.9150
 4453SOL     OW19963  11.957   5.388   8.137  0.1987 -0.4984 -0.4626
 4453SOL    HW119964  12.036   5.437   8.161 -0.1763 -0.5550  1.0103
 4453SOL    HW219965  11.886   5.434   8.182 -0.6295 -0.4529 -1.7650
 4454SOL     OW19966   5.871   9.115   9.546 -0.3279  0.4794 -0.0517
 4454SOL    HW119967   5.912   9.042   9.592 -1.0828  0.0308 -0.0655
 4454SOL    HW219968   5.778   9.092   9.544 -0.3289  0.4718 -1.8182
 4455SOL     OW19969  11.818  12.479  11.802 -0.3731 -0.2364 -0.1035
 4455SOL    HW119970  11.775  12.412  11.855  0.3362 -1.4292 -1.0064
 4455SOL    HW219971  11.905  12.489  11.842 -0.3364 -0.1324 -0.2093
 4456SOL     OW19972   3.750   0.378   0.704 -0.2529  0.1266  0.2558
 4456SOL    HW119973   3.697   0.425   0.640  0.3814  1.6862  0.8478
 4456SOL    HW219974   3.711   0.290   0.706 -1.2371  0.4930 -1.1277
 4457SOL     OW19975  11.067  10.074   2.286 -0.1100  0.3079 -0.2330
 4457SOL    HW119976  11.156  10.045   2.305 -0.7772 -1.6889  0.0795
 4457SOL    HW219977  11.066  10.166   2.309  2.0464  0.5394 -0.8754
 4458SOL     OW19978   7.765  10.430   0.639  0.2194 -0.2179  0.1990
 4458SOL    HW119979   7.808  10.369   0.699 -0.2252 -0.0502  0.6982
 4458SOL    HW219980   7.723  10.494   0.697 -0.1162  0.0100 -0.2941
 4459SOL     OW19981   0.833   3.114   9.798  0.2467 -0.1595  0.1549
 4459SOL    HW119982   0.839   3.021   9.818 -3.0906 -0.4147  0.4592
 4459SOL    HW219983   0.831   3.119   9.702 -2.1220 -0.7163  0.1259
 4460SOL     OW19984   7.124   1.031   7.262 -0.0194  0.5912  0.6027
 4460SOL    HW119985   7.218   1.025   7.242 -0.4829  0.4738 -1.8765
 4460SOL    HW219986   7.120   1.041   7.357  2.4820  0.2080  0.8087
 4461SOL     OW19987   6.525   3.332  11.383 -0.3641  0.4238 -0.4597
 4461SOL    HW119988   6.491   3.261  11.329  0.8667 -1.0648  0.6515
 4461SOL    HW219989   6.466   3.335  11.458 -0.1477  0.2596 -0.2820
 4462SOL     OW19990  11.024   2.094   2.555 -0.0557  0.5282 -0.4822
 4462SOL    HW119991  11.097   2.049   2.512 -0.2410 -0.4723  0.2253
 4462SOL    HW219992  11.041   2.084   2.649  0.6078  3.1125 -0.2567
 4463SOL     OW19993  11.495   3.764  11.805  0.0161  0.2342  0.3484
 4463SOL    HW119994  11.421   3.795  11.753 -0.3520  0.6354  1.0924
 4463SOL    HW219995  11.566   3.752  11.742 -0.4564  0.5837 -0.2589
 4464SOL     OW19996   6.025   4.727   4.929  0.1669 -0.3623  0.4894
 4464SOL    HW119997   6.005   4.811   4.970  1.2475  1.0994 -1.7862
 4464SOL    HW219998   5.941   4.697   4.895  0.2299  1.5353 -1.5907
 4465SOL     OW19999   8.728   2.699   4.535  0.4833  0.0665  0.1353
 4465SOL    HW120000   8.658   2.646   4.498 -0.3299  2.1439 -1.4811
 4465SOL    HW220001   8.773   2.737   4.460  0.7563  1.9783  1.1791
 4466SOL     OW20002   7.180   3.326  10.628  0.4552 -0.1203  0.5294
 4466SOL    HW120003   7.085   3.338  10.621  0.2062 -1.4057  1.2867
 4466SOL    HW220004   7.200   3.256  10.566  1.5633  2.6166 -2.4762
 4467SOL     OW20005   5.640  12.731   5.720  0.4148 -0.6016 -0.1387
 4467SOL    HW120006   5.642  12.637   5.738 -0.2400 -0.6464 -0.2827
 4467SOL    HW220007   5.572  12.741   5.653 -0.4045  0.1246  0.7840
 4468SOL     OW20008   6.087   3.486   0.065  0.6282 -0.4973  0.0658
 4468SOL    HW120009   6.041   3.473  -0.018 -0.0371  0.8911  0.1982
 4468SOL    HW220010   6.022   3.466   0.132 -0.7455  3.8863  0.3061
 4469SOL     OW20011   1.559   7.861   1.128  0.2077 -0.4155  0.0578
 4469SOL    HW120012   1.614   7.820   1.195 -0.7398 -2.5247 -0.3565
 4469SOL    HW220013   1.621   7.894   1.063  1.1204  1.2184  1.6700
 4470SOL     OW20014  11.386   4.697  10.431 -0.4722  0.4104 -0.0768
 4470SOL    HW120015  11.435   4.772  10.396 -2.2702  0.7885 -1.9153
 4470SOL    HW220016  11.345   4.657  10.355 -0.8181 -1.5322  1.0825
 4471SOL     OW20017   5.553   8.400   4.701 -0.5723  0.0235  0.5852
 4471SOL    HW120018   5.584   8.312   4.719  0.9147 -0.2716 -2.7342
 4471SOL    HW220019   5.486   8.389   4.633  0.4634  1.4468 -0.7422
 4472SOL     OW20020  11.951  10.566  10.500  0.4776  0.6138  0.4086
 4472SOL    HW120021  11.946  10.660  10.515  0.6135  1.0638 -1.9234
 4472SOL    HW220022  11.865  10.533  10.525 -1.3090  2.1629 -2.9477
 4473SOL     OW20023   2.538   6.355   4.094 -0.2336 -0.0258 -0.1315
 4473SOL    HW120024   2.444   6.340   4.091 -0.6472  1.7825  1.5248
 4473SOL    HW220025   2.564   6.327   4.182  0.6313  0.1085 -0.3348
 4474SOL     OW20026   7.773   4.936   3.001 -0.1200  0.1415  0.6114
 4474SOL    HW120027   7.809   4.849   3.013 -1.8245 -0.6386  0.4025
 4474SOL    HW220028   7.707   4.945   3.070  1.1141  1.9343  1.6665
 4475SOL     OW20029   1.992   5.604   5.314  0.0151  0.4574 -0.1301
 4475SOL    HW120030   2.050   5.538   5.352  0.3131  1.7400  1.7595
 4475SOL    HW220031   2.036   5.687   5.331 -0.5206  1.2146 -2.1640
 4476SOL     OW20032   5.707   6.449   9.636 -0.6112 -0.1370  0.6361
 4476SOL    HW120033   5.724   6.380   9.700 -0.6088 -0.3048  0.4563
 4476SOL    HW220034   5.625   6.488   9.665 -1.8558 -1.7403 -0.5434
 4477SOL     OW20035   8.979   6.278  12.569 -1.0154  0.3830 -0.1445
 4477SOL    HW120036   8.979   6.228  12.650 -2.3793  0.1026 -0.3055
 4477SOL    HW220037   8.905   6.244  12.519 -0.9676  1.4260 -0.9611
 4478SOL     OW20038   8.763   7.895   4.070  0.1272 -0.3859 -0.0804
 4478SOL    HW120039   8.709   7.964   4.109  1.0033  0.1188  0.2593
 4478SOL    HW220040   8.702   7.847   4.013 -0.4957  0.6555 -0.3218
 4479SOL     OW20041   7.868   4.828   9.947 -0.5682 -0.0539  0.0462
 4479SOL    HW120042   7.864   4.739   9.913 -1.1642  0.2860 -0.8165
 4479SOL    HW220043   7.783   4.866   9.927 -0.4885  0.5740  0.8167
 4480SOL     OW20044   1.503  11.979   7.042  0.3600 -0.0560  0.3690
 4480SOL    HW120045   1.432  11.996   6.980  0.0129 -0.2648  0.7115
 4480SOL    HW220046   1.574  12.036   7.012 -0.4248  1.2523  0.8745
 4481SOL     OW20047   3.295   4.780   3.843 -0.5530  0.1377 -0.0485
 4481SOL    HW120048   3.285   4.764   3.749  0.4744 -1.7912  0.1089
 4481SOL    HW220049   3.344   4.862   3.848 -0.5343  0.2204 -1.2042
 4482SOL     OW20050  10.723  11.081   3.196  0.0762  0.2647 -0.1991
 4482SOL    HW120051  10.753  11.031   3.272 -0.6636 -0.5014 -0.3949
 4482SOL    HW220052  10.795  11.075   3.134  0.5155  0.5423  0.2724
 4483SOL     OW20053  10.822  12.102  12.509 -0.2242 -0.1594  0.5517
 4483SOL    HW120054  10.873  12.174  12.546  2.1148 -1.3417 -0.1680
 4483SOL    HW220055  10.795  12.135  12.423 -1.0174  0.5998  1.0710
 4484SOL     OW20056   0.698   9.548   3.229  0.2121  0.5851 -0.1482
 4484SOL    HW120057   0.717   9.615   3.295  2.5630  1.4177 -1.5230
 4484SOL    HW220058   0.672   9.598   3.152  1.4549 -0.0555 -1.0258
 4485SOL     OW20059   5.765   6.129   8.127  0.2284 -0.3094 -0.2623
 4485SOL    HW120060   5.829   6.137   8.198  0.5439 -0.9429 -0.4647
 4485SOL    HW220061   5.752   6.035   8.117  0.2200 -0.2298 -1.0643
 4486SOL     OW20062   9.814   3.925   9.823 -0.2275  0.0733 -0.2074
 4486SOL    HW120063   9.728   3.884   9.815 -0.1905  0.2392 -1.9171
 4486SOL    HW220064   9.805   3.985   9.897  0.0244 -3.5990  3.0863
 4487SOL     OW20065   5.104   1.692   5.592  0.5079  0.4687  0.4018
 4487SOL    HW120066   5.106   1.684   5.496  0.6210  0.9364  0.3640
 4487SOL    HW220067   5.078   1.783   5.608  1.1351  0.5789  0.8120
 4488SOL     OW20068  11.039   6.512   8.299 -0.5105  0.0636  0.2703
 4488SOL    HW120069  11.076   6.424   8.305 -0.2356  0.0356 -1.5204
 4488SOL    HW220070  10.953   6.504   8.341 -0.8951 -1.2955 -0.7180
 4489SOL     OW20071   5.285  10.793   5.162 -0.5166 -0.2606  0.0868
 4489SOL    HW120072   5.293  10.749   5.247 -3.8278  1.5674  1.5358
 4489SOL    HW220073   5.229  10.735   5.111  0.2237 -0.6313 -0.3159
 4490SOL     OW20074   1.023   9.380   3.743 -0.8058  0.3868 -0.2736
 4490SOL    HW120075   0.960   9.381   3.815  0.3941  1.1195  0.8054
 4490SOL    HW220076   0.982   9.433   3.674 -1.1818  1.2235  0.5737
 4491SOL     OW20077  11.333   9.928   4.521  0.0936 -0.1627 -0.3872
 4491SOL    HW120078  11.311   9.900   4.432 -1.0327  1.0868 -0.5227
 4491SOL    HW220079  11.290   9.864   4.577 -0.1361 -0.3142 -0.7292
 4492SOL     OW20080   8.933  11.571   2.727 -0.0502 -0.2675 -0.2178
 4492SOL    HW120081   8.867  11.589   2.659 -1.9994  0.1274  1.6755
 4492SOL    HW220082   8.926  11.644   2.788  3.3104  0.6143 -0.6851
 4493SOL     OW20083   3.770   4.697   1.656  0.2807  0.1696 -0.1392
 4493SOL    HW120084   3.803   4.776   1.700 -0.8441  0.2142  0.6603
 4493SOL    HW220085   3.806   4.625   1.708  0.8261  0.1642 -0.5190
 4494SOL     OW20086   7.078   9.469  12.449 -0.4088 -0.5672 -0.4786
 4494SOL    HW120087   7.145   9.477  12.381  0.3018 -0.8976  0.1806
 4494SOL    HW220088   7.070   9.375  12.464 -0.8441 -0.5138 -0.3787
 4495SOL     OW20089   5.550   5.982   3.847 -0.0686 -0.2088  0.5466
 4495SOL    HW120090   5.484   6.018   3.906 -0.0720 -1.9137  1.6200
 4495SOL    HW220091   5.546   5.887   3.860  1.4069 -0.4756 -0.6405
 4496SOL     OW20092  11.188   7.035   5.213  0.0775 -0.7510 -0.3796
 4496SOL    HW120093  11.245   7.055   5.139 -0.3528 -2.2326 -1.1606
 4496SOL    HW220094  11.099   7.048   5.179 -0.1479 -2.0709 -0.3708
 4497SOL     OW20095   6.796   8.843  11.948  0.0535  0.0531 -0.3327
 4497SOL    HW120096   6.754   8.928  11.938 -0.7513 -0.1381  1.1288
 4497SOL    HW220097   6.835   8.825  11.862  1.5114  2.5185 -0.2546
 4498SOL     OW20098   4.047   9.414   0.072  0.3756  0.0004 -0.0890
 4498SOL    HW120099   3.991   9.458   0.008 -0.8722 -0.7100  0.4930
 4498SOL    HW220100   4.066   9.329   0.033  0.7333  0.0859 -0.1057
 4499SOL     OW20101   1.084   4.540   9.312 -0.4110  0.4038 -0.8747
 4499SOL    HW120102   1.083   4.559   9.218 -1.0459 -1.4321 -1.2727
 4499SOL    HW220103   1.099   4.446   9.317 -0.5397  0.4528  0.8723
 4500SOL     OW20104   2.393   6.168   0.873 -0.1696  0.1178 -0.0539
 4500SOL    HW120105   2.308   6.209   0.859  0.1929  0.8360 -0.2431
 4500SOL    HW220106   2.404   6.109   0.798 -1.0357 -0.9309  0.6274
 4501SOL     OW20107   8.466   6.532   2.357  0.3128  0.4843  0.3396
 4501SOL    HW120108   8.553   6.564   2.335  0.6292 -1.2687 -1.1913
 4501SOL    HW220109   8.481   6.454   2.411 -0.3443  0.5757  0.6802
 4502SOL     OW20110   3.325   8.826   9.598 -0.4545 -0.0912  0.2480
 4502SOL    HW120111   3.385   8.806   9.670 -0.2398 -0.4878 -0.0331
 4502SOL    HW220112   3.337   8.919   9.581 -1.3141  0.2636  1.4472
 4503SOL     OW20113   3.437  11.230   5.440 -0.2396  0.3008  0.7273
 4503SOL    HW120114   3.453  11.305   5.497 -0.1107 -1.4428  3.1616
 4503SOL    HW220115   3.475  11.155   5.487 -0.4107 -1.3218 -1.5368
 4504SOL     OW20116   7.956   4.823   0.019 -0.0164  0.0135  0.2029
 4504SOL    HW120117   8.010   4.896   0.051 -0.2250  0.0189  0.5489
 4504SOL    HW220118   7.924   4.852  -0.066  1.1705 -0.3154 -0.3688
 4505SOL     OW20119   3.089   1.591   9.287 -0.3035  0.2711  0.2939
 4505SOL    HW120120   3.080   1.531   9.213 -0.5100  0.3606  0.2479
 4505SOL    HW220121   3.002   1.597   9.324 -0.2844  0.5464  0.2963
 4506SOL     OW20122   0.453   0.373  10.658 -0.8365 -0.2880 -0.1359
 4506SOL    HW120123   0.466   0.461  10.624  1.6332 -0.4819  0.0915
 4506SOL    HW220124   0.489   0.376  10.747 -3.4036 -0.8411  1.0265
 4507SOL     OW20125   3.986   8.390   1.474 -0.1212  0.0726  0.1228
 4507SOL    HW120126   3.910   8.421   1.523 -0.2216 -1.6719  1.1620
 4507SOL    HW220127   3.956   8.310   1.430  0.3183  0.9350 -1.8813
 4508SOL     OW20128   1.507   3.678  12.591  0.2877  0.0567 -0.6370
 4508SOL    HW120129   1.571   3.745  12.569  0.3457  0.2370  0.0559
 4508SOL    HW220130   1.506   3.620  12.515  1.0043  0.2551 -0.8069
 4509SOL     OW20131  11.123  10.426   8.651  0.0667 -0.1359  0.9862
 4509SOL    HW120132  11.164  10.395   8.732 -0.8618 -1.8626  0.8624
 4509SOL    HW220133  11.184  10.401   8.582 -0.1119 -0.6150  0.9945
 4510SOL     OW20134   1.257   0.335   3.041 -0.5044  0.1103  0.2668
 4510SOL    HW120135   1.167   0.306   3.058 -0.4450 -1.1207 -1.2677
 4510SOL    HW220136   1.275   0.305   2.952  1.0544  1.3294  0.1345
 4511SOL     OW20137   6.466   3.776  10.905  0.1624  0.3775 -0.9376
 4511SOL    HW120138   6.534   3.713  10.884  0.1741  0.1377 -0.2285
 4511SOL    HW220139   6.386   3.739  10.867 -0.4302 -1.6347  1.9329
 4512SOL     OW20140   2.620   6.553   9.452  0.2050  0.0587  0.5107
 4512SOL    HW120141   2.593   6.529   9.363  1.5748  1.9329 -0.4743
 4512SOL    HW220142   2.709   6.518   9.460  0.9854  1.8757  0.2295
 4513SOL     OW20143   9.228  12.694   2.376 -0.0886 -0.5145 -0.5353
 4513SOL    HW120144   9.248  12.658   2.462 -1.3445 -2.7324 -1.0874
 4513SOL    HW220145   9.310  12.686   2.327  0.5593  0.5253  0.3189
 4514SOL     OW20146   0.612   6.375   8.770 -0.1849  0.6038  0.4032
 4514SOL    HW120147   0.533   6.333   8.735 -0.8109 -1.1082  3.4569
 4514SOL    HW220148   0.684   6.328   8.728 -0.8598 -0.6925  0.6291
 4515SOL     OW20149  11.257   0.946   6.578 -0.2351 -0.2107 -0.3494
 4515SOL    HW120150  11.333   0.894   6.554  0.7780  1.2616 -0.4930
 4515SOL    HW220151  11.282   1.036   6.556 -2.3778  0.2257 -1.2812
 4516SOL     OW20152  11.628   7.078   9.135  0.1112 -0.1984 -0.2423
 4516SOL    HW120153  11.641   7.172   9.147 -0.2169 -0.4051  2.1704
 4516SOL    HW220154  11.652   7.039   9.219 -0.4264 -2.2098 -0.9592
 4517SOL     OW20155   2.593   7.587  12.169  0.2103 -0.0581  0.7574
 4517SOL    HW120156   2.677   7.581  12.215  1.2107 -2.6259 -1.1646
 4517SOL    HW220157   2.588   7.679  12.142  1.8857  0.3973  1.8328
 4518SOL     OW20158   2.984   6.532   5.133 -0.4289  0.7162  0.2130
 4518SOL    HW120159   2.955   6.447   5.100 -0.3490  0.2830  1.2386
 4518SOL    HW220160   3.014   6.515   5.222  2.7448  1.1517 -0.6320
 4519SOL     OW20161   4.202   7.121   0.705 -0.5635  0.7598  0.1429
 4519SOL    HW120162   4.136   7.120   0.775 -0.5263  2.8355  0.2631
 4519SOL    HW220163   4.197   7.209   0.668  0.0190 -0.0089 -1.9373
 4520SOL     OW20164  11.228   9.317   4.831  0.3786 -1.3159 -0.0998
 4520SOL    HW120165  11.185   9.373   4.767  1.5301  0.5172  0.6475
 4520SOL    HW220166  11.292   9.267   4.780  2.9313  1.7812 -0.2451
 4521SOL     OW20167   3.624   2.629   5.820 -0.4236  0.0532 -0.2443
 4521SOL    HW120168   3.636   2.723   5.832  0.9231 -0.0562 -0.5947
 4521SOL    HW220169   3.538   2.621   5.780  0.0859  1.2687 -1.6963
 4522SOL     OW20170   3.007   9.756   7.695  0.1459 -0.1711 -0.6450
 4522SOL    HW120171   3.097   9.723   7.697  1.2937  2.7394  0.6845
 4522SOL    HW220172   2.983   9.766   7.787 -0.6845  1.2180 -0.9970
 4523SOL     OW20173   6.609   5.293   1.675  0.4660  0.2468  0.0506
 4523SOL    HW120174   6.670   5.363   1.700  0.5065  0.8594 -1.6191
 4523SOL    HW220175   6.556   5.332   1.606  0.1679 -1.2273 -0.5858
 4524SOL     OW20176  10.816  11.474   2.007  0.2843 -0.5782  0.0468
 4524SOL    HW120177  10.831  11.379   2.005  1.5160 -0.3939 -2.0737
 4524SOL    HW220178  10.784  11.495   1.919 -1.6273  0.7716  0.9964
 4525SOL     OW20179   9.388   6.824   1.636  0.1794  0.1462  0.3269
 4525SOL    HW120180   9.410   6.731   1.644 -0.4357  0.1601  2.8942
 4525SOL    HW220181   9.301   6.824   1.595 -0.3891 -0.5046  1.4915
 4526SOL     OW20182   0.647  11.314  12.240 -0.2045 -0.9258  0.4193
 4526SOL    HW120183   0.642  11.332  12.334  2.1299 -1.2097  0.6467
 4526SOL    HW220184   0.716  11.248  12.231 -0.2258 -0.7558 -1.5112
 4527SOL     OW20185   9.691  10.032   7.587  0.3077  0.4137 -0.1532
 4527SOL    HW120186   9.742   9.955   7.562  0.6724  0.9769 -1.1554
 4527SOL    HW220187   9.614   9.996   7.631 -0.3212 -0.6231 -1.9948
 4528SOL     OW20188   1.467   2.219   2.608  0.7006 -0.5317  0.2745
 4528SOL    HW120189   1.381   2.192   2.641  0.1223  1.8441  0.8546
 4528SOL    HW220190   1.449   2.261   2.524  1.3147 -0.2089  0.2983
 4529SOL     OW20191   7.436  10.073   3.398  0.6641  0.0598 -0.1377
 4529SOL    HW120192   7.352  10.118   3.385  0.2252 -1.0765 -1.5795
 4529SOL    HW220193   7.428  10.029   3.482  0.1241  0.5883  0.0942
 4530SOL     OW20194   3.454   2.819  12.448 -0.4313  0.3007 -0.0715
 4530SOL    HW120195   3.379   2.759  12.453 -1.2840  1.4124  1.5341
 4530SOL    HW220196   3.414   2.905  12.436  0.6834  0.7481 -0.6526
 4531SOL     OW20197  10.855   4.585   0.983 -0.3421 -0.3723  0.5923
 4531SOL    HW120198  10.833   4.498   1.017  1.1300 -1.1677 -0.3319
 4531SOL    HW220199  10.862   4.572   0.888 -1.0942  1.0082  0.3256
 4532SOL     OW20200   4.695  12.272   9.402  0.0650  0.4125 -0.1260
 4532SOL    HW120201   4.677  12.353   9.450  1.8190  0.3124  0.7733
 4532SOL    HW220202   4.608  12.238   9.378 -0.7331  2.0513  0.2979
 4533SOL     OW20203   4.007  10.792   1.372  0.9198 -0.4423 -0.5370
 4533SOL    HW120204   4.046  10.838   1.297  0.3952 -0.6778 -0.9554
 4533SOL    HW220205   4.035  10.844   1.448  0.6807  0.3397 -0.9665
 4534SOL     OW20206  11.806   8.520  12.070  0.3546 -0.0032 -0.0533
 4534SOL    HW120207  11.731   8.513  12.130  1.4510 -0.9756  1.2558
 4534SOL    HW220208  11.776   8.479  11.989 -0.8768  0.5852  0.0772
 4535SOL     OW20209   6.795   2.447  11.540  0.0476 -0.2010 -0.3531
 4535SOL    HW120210   6.802   2.354  11.561 -0.5822 -0.6604 -2.0260
 4535SOL    HW220211   6.702   2.461  11.522 -0.0292  0.9910  0.8091
 4536SOL     OW20212   2.772   8.123   3.292 -0.2496 -0.1131 -0.3924
 4536SOL    HW120213   2.777   8.195   3.356  0.6970  1.0921 -1.7769
 4536SOL    HW220214   2.829   8.055   3.327 -1.2093 -0.2676  0.9707
 4537SOL     OW20215   2.531   2.793   1.033  0.7207 -0.0246  0.0126
 4537SOL    HW120216   2.490   2.866   0.987  0.6165  0.5717  1.0264
 4537SOL    HW220217   2.491   2.794   1.120  0.4171 -1.5458 -0.0817
 4538SOL     OW20218   9.186  12.428  10.968 -0.5451  0.4527  0.3777
 4538SOL    HW120219   9.212  12.495  11.031 -0.0346  0.5550  0.0591
 4538SOL    HW220220   9.091  12.440  10.958 -0.3053  1.7508 -0.4151
 4539SOL     OW20221   3.885   3.956  11.614  0.0110 -0.0418 -0.2480
 4539SOL    HW120222   3.956   3.919  11.666 -0.6783  0.2338  0.9302
 4539SOL    HW220223   3.809   3.955  11.673 -1.5947 -2.4409 -2.1000
 4540SOL     OW20224   6.237   7.121   5.820 -0.3201 -0.0599  0.8098
 4540SOL    HW120225   6.254   7.091   5.731  1.2405  0.1074  1.0114
 4540SOL    HW220226   6.171   7.061   5.855 -1.4456  0.2812 -0.6599
 4541SOL     OW20227   6.241   4.466   8.658  0.0037 -0.6486 -0.1654
 4541SOL    HW120228   6.324   4.490   8.698  1.2061 -0.6193 -2.5141
 4541SOL    HW220229   6.223   4.378   8.691  1.3425 -0.9405 -0.1808
 4542SOL     OW20230   9.203   4.940  10.795 -0.8276  0.2757  0.2589
 4542SOL    HW120231   9.262   4.867  10.816 -0.8441 -0.0243 -0.6631
 4542SOL    HW220232   9.176   4.922  10.705 -1.9986  0.6362  0.5292
 4543SOL     OW20233   4.179   0.328  10.686 -0.2265  0.3643 -0.5441
 4543SOL    HW120234   4.244   0.334  10.756 -1.3837 -0.7472  0.6816
 4543SOL    HW220235   4.171   0.418  10.654  1.5481  0.6120 -0.4269
 4544SOL     OW20236   8.392   7.679   4.276 -1.3810  0.2270 -0.1648
 4544SOL    HW120237   8.414   7.642   4.361 -0.5359  1.1880  0.0427
 4544SOL    HW220238   8.382   7.602   4.219 -1.0868 -0.3796  0.5810
 4545SOL     OW20239   4.974   0.284   5.111  0.1697  0.3363  0.3432
 4545SOL    HW120240   5.063   0.298   5.077  0.0006  0.0572 -0.2358
 4545SOL    HW220241   4.948   0.370   5.145  0.8213  0.3118  0.9252
 4546SOL     OW20242  11.091   5.534  11.033  0.1246 -0.0709  0.6739
 4546SOL    HW120243  11.038   5.486  11.096 -0.1410  1.1357  1.4056
 4546SOL    HW220244  11.181   5.508  11.051 -0.1614 -1.9456 -0.4082
 4547SOL     OW20245   9.069   6.804   2.066 -0.0891  0.8631  0.6361
 4547SOL    HW120246   9.085   6.858   2.144  2.0508  0.8440  0.2864
 4547SOL    HW220247   9.085   6.863   1.992 -0.7364  0.5287  0.2265
 4548SOL     OW20248   7.614  11.403  12.068 -0.2328 -0.0968 -0.3168
 4548SOL    HW120249   7.597  11.491  12.101  2.6634 -0.6260  3.2024
 4548SOL    HW220250   7.529  11.372  12.037 -2.0022  2.8238  1.2210
 4549SOL     OW20251   0.338  10.336  11.676 -0.1775  0.0119 -0.0159
 4549SOL    HW120252   0.380  10.298  11.599 -0.1920  0.1374 -0.0854
 4549SOL    HW220253   0.304  10.420  11.646  0.7706  0.5548  0.4172
 4550SOL     OW20254  11.636   1.290   6.603  1.1815 -0.0410  0.2975
 4550SOL    HW120255  11.547   1.308   6.573  0.5244 -1.0886  1.5059
 4550SOL    HW220256  11.673   1.233   6.536  0.4972 -0.5975  0.3761
 4551SOL     OW20257   1.430  11.715   6.945 -0.2256 -0.1509 -0.8479
 4551SOL    HW120258   1.485  11.780   6.989 -0.2019  0.6869 -2.0450
 4551SOL    HW220259   1.490  11.669   6.886 -0.0941 -1.8037  0.5179
 4552SOL     OW20260   0.559   1.897   3.096 -0.0761 -0.0810  0.5022
 4552SOL    HW120261   0.503   1.940   3.032  1.6110  1.5060 -0.0099
 4552SOL    HW220262   0.513   1.815   3.118 -1.1689 -0.2258 -1.9900
 4553SOL     OW20263   7.472   9.445   8.517  0.3943  0.0481 -0.4131
 4553SOL    HW120264   7.390   9.396   8.501  0.2244  0.3482 -0.4686
 4553SOL    HW220265   7.540   9.391   8.476  0.1939 -0.0864 -0.5737
 4554SOL     OW20266   1.573   6.171   8.076  0.4023 -0.2836 -0.4845
 4554SOL    HW120267   1.584   6.104   8.143  0.9702 -0.7188 -0.9997
 4554SOL    HW220268   1.486   6.157   8.041  0.5615 -0.8225 -0.6642
 4555SOL     OW20269   4.353   1.526   9.822 -0.1109 -0.4339 -0.5335
 4555SOL    HW120270   4.448   1.531   9.837 -0.2926 -0.1839  0.6474
 4555SOL    HW220271   4.316   1.586   9.886 -1.0291  0.1229 -1.5611
 4556SOL     OW20272   4.919   4.289  12.242  0.0282  0.1158  0.0486
 4556SOL    HW120273   4.954   4.304  12.155  0.5496  1.7010  0.4885
 4556SOL    HW220274   4.904   4.195  12.247 -0.4097  0.0525 -1.8830
 4557SOL     OW20275   3.665   4.906   1.963  0.0646  0.5476 -0.1997
 4557SOL    HW120276   3.693   4.973   2.027  1.1101 -0.6591  0.6681
 4557SOL    HW220277   3.716   4.926   1.885  0.4936  0.6827  0.1051
 4558SOL     OW20278   9.369   3.028   9.797 -0.5179 -0.4529 -0.4280
 4558SOL    HW120279   9.385   2.986   9.881  1.1408 -0.1395 -0.5556
 4558SOL    HW220280   9.284   3.070   9.807 -0.8743 -1.3777  0.6825
 4559SOL     OW20281   2.691   6.662  12.617  0.3273 -0.2939 -0.7297
 4559SOL    HW120282   2.773   6.634  12.658  0.1780 -0.4253 -0.5201
 4559SOL    HW220283   2.708   6.659  12.523  0.2026 -1.4345 -0.7306
 4560SOL     OW20284   2.759  12.691   9.161  0.0751 -0.2364 -0.0597
 4560SOL    HW120285   2.780  12.709   9.069 -0.4722  0.4340 -0.0583
 4560SOL    HW220286   2.694  12.757   9.184 -0.7311 -1.1712  0.4409
 4561SOL     OW20287  11.584   0.586   6.829  0.5524 -0.5107  0.7989
 4561SOL    HW120288  11.593   0.568   6.923  0.9857 -0.0585  0.8484
 4561SOL    HW220289  11.674   0.589   6.797  0.4144 -0.3127  0.4314
 4562SOL     OW20290  11.953   9.921   3.717  0.1024  0.0313  0.1511
 4562SOL    HW120291  11.862   9.928   3.746 -0.3472  0.0035 -1.1658
 4562SOL    HW220292  12.003   9.974   3.780 -0.9384  0.7318  0.4071
 4563SOL     OW20293   0.920   4.363   2.715 -0.2709 -0.2220  0.5785
 4563SOL    HW120294   0.860   4.341   2.786  0.4547  0.7097  1.5183
 4563SOL    HW220295   0.921   4.458   2.712 -1.1005 -0.2345 -1.4338
 4564SOL     OW20296  12.664   7.540   2.606 -0.5247  0.2127 -0.2625
 4564SOL    HW120297  12.713   7.609   2.561 -2.1868  1.0119 -0.9330
 4564SOL    HW220298  12.602   7.507   2.541  0.0735 -1.8059  0.1130
 4565SOL     OW20299  11.544  10.504   8.013 -0.1323  0.2111 -0.1570
 4565SOL    HW120300  11.587  10.492   8.098  0.3257 -0.7333 -0.5147
 4565SOL    HW220301  11.608  10.550   7.960  0.6978 -1.7042 -0.8718
 4566SOL     OW20302   6.895   8.435   9.733  0.2778  0.6185  0.3482
 4566SOL    HW120303   6.859   8.504   9.787  1.9406  1.1564  0.8450
 4566SOL    HW220304   6.987   8.430   9.759 -0.1742 -3.2335  1.8925
 4567SOL     OW20305  10.548   5.850   2.412 -0.1307 -0.4332 -0.2411
 4567SOL    HW120306  10.589   5.913   2.471  1.3567  0.6211 -2.2897
 4567SOL    HW220307  10.621   5.803   2.372 -0.9183  0.0384 -2.4229
 4568SOL     OW20308   4.510   8.820   1.399  0.2627 -0.3561 -0.6134
 4568SOL    HW120309   4.566   8.882   1.351 -1.3744  1.6394 -0.0898
 4568SOL    HW220310   4.529   8.838   1.491 -0.2853 -0.5545 -0.4588
 4569SOL     OW20311   0.792  10.114   1.061  0.1858  0.0632  0.0161
 4569SOL    HW120312   0.703  10.146   1.044  0.0474  0.6618  1.6399
 4569SOL    HW220313   0.847  10.163   1.001 -0.4341  0.7748  0.0062
 4570SOL     OW20314   8.348   6.034  12.437 -0.0504  0.1675 -0.7259
 4570SOL    HW120315   8.277   5.973  12.416 -0.3229  0.5424 -0.9052
 4570SOL    HW220316   8.310   6.120  12.423  0.5101  0.3661 -1.0277
 4571SOL     OW20317   3.350  10.969   8.147 -0.2770 -0.0381  0.2148
 4571SOL    HW120318   3.405  11.019   8.086 -0.9813 -0.2598 -0.6199
 4571SOL    HW220319   3.279  11.028   8.171  0.4459  0.3383  1.5017
 4572SOL     OW20320   5.396  11.934   6.735 -0.2468  0.0099 -0.1924
 4572SOL    HW120321   5.311  11.928   6.778 -0.2426  0.2596 -0.1487
 4572SOL    HW220322   5.395  11.864   6.670 -0.3488 -0.2125  0.0452
 4573SOL     OW20323   6.620   8.724  10.091 -0.0487  0.6319  0.1441
 4573SOL    HW120324   6.651   8.812  10.069  0.6451  0.1446 -0.9372
 4573SOL    HW220325   6.568   8.697  10.015  0.1509 -0.0789  0.2504
 4574SOL     OW20326   1.318   5.377   9.079 -0.0061  0.1391  0.4504
 4574SOL    HW120327   1.396   5.322   9.067  0.5046  1.0483 -0.6022
 4574SOL    HW220328   1.332   5.420   9.163  0.1251 -0.4826  0.7548
 4575SOL     OW20329  12.719   1.141   3.422  0.0951  0.3274 -0.4167
 4575SOL    HW120330  12.780   1.067   3.419  0.0802  0.2245  0.9982
 4575SOL    HW220331  12.635   1.103   3.398 -0.1259 -0.3962  1.3313
 4576SOL     OW20332   5.737  11.336   5.229 -0.4534 -0.3083  0.0041
 4576SOL    HW120333   5.743  11.248   5.266  0.9981 -0.8783 -1.4375
 4576SOL    HW220334   5.802  11.337   5.159 -2.5456  0.9144 -2.0699
 4577SOL     OW20335   1.766   1.494   7.384 -0.1152 -0.3191  0.0377
 4577SOL    HW120336   1.772   1.467   7.476  1.6857 -0.9272 -0.2165
 4577SOL    HW220337   1.709   1.429   7.343  1.1127 -1.5435  0.2253
 4578SOL     OW20338   9.479  10.422   6.639 -0.6764 -0.5850  0.7421
 4578SOL    HW120339   9.479  10.488   6.708 -3.8927  0.6732 -0.2577
 4578SOL    HW220340   9.522  10.346   6.678  0.1553  0.9771  3.1042
 4579SOL     OW20341   6.517   2.968   5.365 -0.2711  0.4204 -0.1471
 4579SOL    HW120342   6.511   3.045   5.421 -2.0424 -0.1645  0.5312
 4579SOL    HW220343   6.478   2.898   5.416 -0.2685 -0.5505 -1.4215
 4580SOL     OW20344   1.968   4.744   8.388  0.0213 -0.4265  0.3214
 4580SOL    HW120345   1.880   4.751   8.424 -0.4009 -0.3609 -0.7137
 4580SOL    HW220346   1.958   4.760   8.294  1.2284  0.2848  0.2868
 4581SOL     OW20347   2.439   4.467   5.327  0.0782  0.0565  0.0695
 4581SOL    HW120348   2.394   4.517   5.258  1.0056  0.0119 -0.5759
 4581SOL    HW220349   2.528   4.454   5.294  0.5790  0.1390  1.3330
 4582SOL     OW20350   0.126   4.767   2.582 -0.2654 -0.1609  0.4460
 4582SOL    HW120351   0.076   4.795   2.659 -3.2063  3.1204 -2.3088
 4582SOL    HW220352   0.195   4.833   2.573 -1.3846  0.8884 -0.8931
 4583SOL     OW20353  11.674  12.256   6.310  0.4209 -0.0871 -0.0794
 4583SOL    HW120354  11.686  12.163   6.329  1.0143  0.0380  0.1773
 4583SOL    HW220355  11.584  12.274   6.337 -0.1229 -0.8643 -1.2836
 4584SOL     OW20356   5.932   1.514  10.768 -0.3280  0.1070 -0.3307
 4584SOL    HW120357   6.018   1.491  10.803 -1.0500 -1.8451  0.2835
 4584SOL    HW220358   5.885   1.431  10.762 -1.8389  0.9857 -1.6144
 4585SOL     OW20359   0.078   5.519  11.535  0.0966 -0.1491  0.5398
 4585SOL    HW120360   0.060   5.430  11.502  0.9384 -0.2403  0.3202
 4585SOL    HW220361   0.173   5.524  11.541  0.0793  0.8776  0.1866
 4586SOL     OW20362   4.972   2.039   6.409 -0.4715 -0.5152  0.3703
 4586SOL    HW120363   4.901   2.045   6.345  0.4523  0.0599 -0.6327
 4586SOL    HW220364   4.961   1.953   6.450 -0.8146 -1.0935 -0.8927
 4587SOL     OW20365   9.181   9.774   1.131 -0.0470 -0.0888 -0.3666
 4587SOL    HW120366   9.108   9.833   1.112 -0.2627  0.0711  0.9129
 4587SOL    HW220367   9.139   9.693   1.160  0.2661 -0.6203 -1.3379
 4588SOL     OW20368   6.209  12.401   5.307  0.1420  0.0569 -0.1702
 4588SOL    HW120369   6.273  12.422   5.239 -0.4814  0.1213 -0.7475
 4588SOL    HW220370   6.124  12.416   5.266 -0.2707  2.7159  1.4351
 4589SOL     OW20371   1.812  10.557  11.931  0.2127 -0.0487 -0.1051
 4589SOL    HW120372   1.791  10.471  11.968 -0.5825  0.8221  1.5543
 4589SOL    HW220373   1.907  10.567  11.945  0.3120 -0.6461 -0.3230
 4590SOL     OW20374   9.336   5.446   4.132 -0.1244 -0.6019 -0.2380
 4590SOL    HW120375   9.261   5.481   4.181  1.1017  1.7466  0.1310
 4590SOL    HW220376   9.327   5.483   4.044  0.6570 -0.2031 -0.1556
 4591SOL     OW20377   9.796   8.980   1.927  0.4742 -0.3457  0.0301
 4591SOL    HW120378   9.790   8.926   1.849  0.9544 -0.5532  0.1335
 4591SOL    HW220379   9.888   8.974   1.953  0.3041 -0.3336  0.6455
 4592SOL     OW20380   0.705   4.610   4.599  0.4463  0.4878 -1.1717
 4592SOL    HW120381   0.791   4.623   4.637  0.8121 -1.1979 -1.3274
 4592SOL    HW220382   0.651   4.680   4.636  1.4485  0.5193  0.3057
 4593SOL     OW20383   1.243   6.251   4.858 -0.1870  0.5429  0.0314
 4593SOL    HW120384   1.202   6.170   4.828  1.5166  0.4833 -2.4114
 4593SOL    HW220385   1.245   6.243   4.953 -1.8751 -1.3313 -0.0224
 4594SOL     OW20386   1.716   6.181   0.724  0.0453 -0.0752 -0.3788
 4594SOL    HW120387   1.761   6.254   0.767 -0.5681 -0.8601  1.6968
 4594SOL    HW220388   1.714   6.112   0.789 -0.4015 -1.5825 -1.9081
 4595SOL     OW20389   3.804  11.608   5.284  0.4062 -0.4778  0.1232
 4595SOL    HW120390   3.774  11.567   5.203  0.1896 -0.3450  0.1350
 4595SOL    HW220391   3.743  11.681   5.298 -1.7009 -2.4502  2.1752
 4596SOL     OW20392   6.860  12.752   2.347 -0.5449  0.1817  0.1867
 4596SOL    HW120393   6.773  12.787   2.365 -0.3642  1.5411 -1.3860
 4596SOL    HW220394   6.920  12.823   2.369  0.3194 -1.0926  2.2816
 4597SOL     OW20395   1.684   7.340   7.249  0.9638 -0.5215  0.4385
 4597SOL    HW120396   1.594   7.365   7.231  0.5567 -0.4250  2.4013
 4597SOL    HW220397   1.699   7.263   7.194  1.0334  1.6874 -2.9029
 4598SOL     OW20398   3.791  10.626  11.406 -0.3092  0.1969 -0.0916
 4598SOL    HW120399   3.752  10.705  11.368 -2.1751 -0.0161  1.2418
 4598SOL    HW220400   3.716  10.567  11.421  0.8235 -1.1294  0.5571
 4599SOL     OW20401   0.666   4.840  11.528 -0.0714  0.6710  0.0107
 4599SOL    HW120402   0.754   4.802  11.535  0.3473  1.3063 -1.4914
 4599SOL    HW220403   0.656   4.892  11.607  1.2619  1.2957 -0.2103
 4600SOL     OW20404  11.516   2.490   8.874 -0.6515  0.0826 -0.0267
 4600SOL    HW120405  11.516   2.549   8.799  0.8789  1.9162  1.3374
 4600SOL    HW220406  11.452   2.526   8.934 -0.6362 -0.3877  0.2807
 4601SOL     OW20407  12.327   7.684   4.757 -0.6064 -0.5462  0.5929
 4601SOL    HW120408  12.407   7.651   4.717  1.0936  2.2137  1.4901
 4601SOL    HW220409  12.345   7.684   4.851 -1.6421  0.1151  0.8100
 4602SOL     OW20410   6.488   0.285  10.400 -0.1699  0.0972  0.1567
 4602SOL    HW120411   6.446   0.358  10.352 -2.3733 -0.9246  0.4143
 4602SOL    HW220412   6.497   0.318  10.489 -1.5955 -0.0498  0.3864
 4603SOL     OW20413   7.937   1.849   6.728  0.0945 -0.1408  0.2632
 4603SOL    HW120414   7.896   1.765   6.747  0.2119 -0.5739 -1.2418
 4603SOL    HW220415   8.023   1.826   6.693 -0.3670  0.5166 -1.3947
 4604SOL     OW20416   8.199   3.510   1.216  0.9920  0.2405  0.6169
 4604SOL    HW120417   8.189   3.467   1.300 -1.9180 -1.0331 -0.2723
 4604SOL    HW220418   8.164   3.598   1.229  1.2314  0.2915  0.9116
 4605SOL     OW20419   3.861   5.442   8.506 -0.3794  0.2627 -0.3801
 4605SOL    HW120420   3.850   5.529   8.465 -0.1206  0.0316 -0.9553
 4605SOL    HW220421   3.849   5.380   8.434  0.5865 -0.1416 -0.2191
 4606SOL     OW20422   0.198   9.414   6.368 -0.0541 -0.1058  0.0771
 4606SOL    HW120423   0.275   9.448   6.412 -0.2287  1.2862 -0.6465
 4606SOL    HW220424   0.199   9.456   6.282 -0.5313 -1.6101 -0.7128
 4607SOL     OW20425   3.453  11.646  11.711 -0.1723 -0.1680 -0.0766
 4607SOL    HW120426   3.429  11.682  11.796  3.1425 -1.9329  1.8163
 4607SOL    HW220427   3.501  11.717  11.668  0.8414 -0.2014  0.9300
 4608SOL     OW20428   2.147   0.816  11.910 -0.1913  0.0771  0.5335
 4608SOL    HW120429   2.211   0.810  11.980 -0.9587 -2.7096  1.1174
 4608SOL    HW220430   2.062   0.812  11.955 -0.6954 -1.7431 -0.4761
 4609SOL     OW20431   3.321   4.887   3.207  0.3991  0.0317  0.1293
 4609SOL    HW120432   3.354   4.828   3.273 -0.3243 -1.2630 -0.6286
 4609SOL    HW220433   3.337   4.843   3.124 -0.1434  0.9012 -0.4605
 4610SOL     OW20434   9.728   9.781   9.963 -0.1761  0.8015 -0.1445
 4610SOL    HW120435   9.799   9.717   9.970 -0.4806  0.5536  0.9314
 4610SOL    HW220436   9.737   9.817   9.876  1.1214  0.5953 -0.1179
 4611SOL     OW20437   9.401   4.270   6.166  0.5810 -0.0492  0.0641
 4611SOL    HW120438   9.452   4.308   6.095 -0.0552 -1.4180 -1.1831
 4611SOL    HW220439   9.334   4.336   6.186 -0.2655 -0.2856 -1.7824
 4612SOL     OW20440   9.650   9.117  10.264  0.0223 -0.2892  0.1061
 4612SOL    HW120441   9.659   9.172  10.186  1.5382 -2.2390 -1.1711
 4612SOL    HW220442   9.730   9.132  10.314 -1.1447  1.3124  1.6180
 4613SOL     OW20443   4.941   2.041   5.349  0.1173  0.0923  0.6722
 4613SOL    HW120444   4.957   1.999   5.434 -1.5643 -0.8416  0.5683
 4613SOL    HW220445   4.848   2.063   5.350  0.2149  0.6761 -0.6769
 4614SOL     OW20446  10.673   9.016  12.551 -0.4352 -0.1708 -0.6158
 4614SOL    HW120447  10.687   8.956  12.477 -0.3442 -1.1868  0.2076
 4614SOL    HW220448  10.746   9.078  12.545 -0.3902 -0.2785 -1.3289
 4615SOL     OW20449   2.297   5.303   8.577 -0.3259  0.4875  0.1800
 4615SOL    HW120450   2.265   5.377   8.630  1.2347  1.2489  0.1091
 4615SOL    HW220451   2.350   5.344   8.509 -0.3095 -0.6491 -0.5135
 4616SOL     OW20452   9.959   1.903   6.233 -0.1544 -0.4844 -0.1116
 4616SOL    HW120453   9.879   1.862   6.201 -0.2342 -0.6922  0.3370
 4616SOL    HW220454  10.017   1.830   6.255  0.0998 -0.3379 -0.2863
 4617SOL     OW20455   8.169   2.325   1.028 -0.3081  0.3436  0.0398
 4617SOL    HW120456   8.083   2.330   0.986  0.4426 -0.2221 -1.6425
 4617SOL    HW220457   8.158   2.258   1.096 -1.5348  1.2424  0.7768
 4618SOL     OW20458   4.765   1.614   0.985  0.2027 -0.3408 -0.2100
 4618SOL    HW120459   4.793   1.701   0.957 -1.6715 -0.1987 -1.8868
 4618SOL    HW220460   4.846   1.564   0.993  1.2991  1.4525  0.5000
 4619SOL     OW20461   9.934   3.479   8.764 -0.0072  0.2881 -0.6738
 4619SOL    HW120462  10.011   3.503   8.814 -0.0713  0.9421 -0.8769
 4619SOL    HW220463   9.956   3.394   8.725 -1.2093 -2.0058  3.1355
 4620SOL     OW20464   1.212  12.100   3.551 -0.2552  0.9267 -0.0357
 4620SOL    HW120465   1.212  12.193   3.528  0.3129  0.4365 -2.1671
 4620SOL    HW220466   1.121  12.082   3.577 -0.2030  2.2146  1.1878
 4621SOL     OW20467   2.361   9.883   2.468  0.3488 -0.1844  0.2474
 4621SOL    HW120468   2.383   9.976   2.472  0.1802 -0.0745 -0.9463
 4621SOL    HW220469   2.272   9.877   2.503  0.6091 -0.0025  0.9574
 4622SOL     OW20470   6.785   9.903  11.713  0.3047 -0.6804  0.5280
 4622SOL    HW120471   6.856   9.963  11.691  0.0709 -0.3413  0.6896
 4622SOL    HW220472   6.711   9.960  11.733 -0.0111 -1.0285  0.3744
 4623SOL     OW20473  11.308   0.446   7.831  0.3607 -0.0568  0.2437
 4623SOL    HW120474  11.258   0.490   7.901  2.7823  1.5441  1.0807
 4623SOL    HW220475  11.320   0.514   7.764  2.1864 -0.0761  0.5089
 4624SOL     OW20476   0.105   8.342   3.221  0.3318 -0.5106 -0.3751
 4624SOL    HW120477   0.169   8.270   3.224 -0.2175 -0.9974  0.1063
 4624SOL    HW220478   0.086   8.354   3.128  1.1066 -0.3738 -0.5207
 4625SOL     OW20479  10.727   6.103   7.220  0.1272 -0.1117 -0.2551
 4625SOL    HW120480  10.685   6.017   7.226 -0.4582  0.2005  0.2775
 4625SOL    HW220481  10.654   6.165   7.218  0.5409  0.5457  2.2351
 4626SOL     OW20482  10.557   1.530   6.760 -0.2462  0.2823 -0.2192
 4626SOL    HW120483  10.621   1.471   6.721 -1.1971 -0.9125 -0.0043
 4626SOL    HW220484  10.490   1.541   6.693 -0.5330  0.3941  0.0832
 4627SOL     OW20485   0.087   1.690  10.384  0.3119 -0.7715 -0.2128
 4627SOL    HW120486   0.070   1.752  10.455 -0.7186 -1.5409  0.2476
 4627SOL    HW220487   0.144   1.737  10.324  1.1559 -0.0700  1.0892
 4628SOL     OW20488   7.299   0.413   1.306  0.1181 -0.2473  0.0910
 4628SOL    HW120489   7.236   0.477   1.274 -1.5183 -2.5029 -1.4422
 4628SOL    HW220490   7.247   0.350   1.356  1.5968 -0.7030  1.1440
 4629SOL     OW20491   6.764   3.004  11.463 -0.3875  0.2723 -0.5896
 4629SOL    HW120492   6.827   3.072  11.488  1.0409 -0.9062 -0.8704
 4629SOL    HW220493   6.728   3.034  11.380  0.5500  0.4875 -0.9301
 4630SOL     OW20494   7.797   7.071   3.204  0.5813 -0.5123 -0.2216
 4630SOL    HW120495   7.885   7.035   3.214  0.9355  0.6104  1.0058
 4630SOL    HW220496   7.762   7.028   3.126  1.8488 -1.6926 -0.1807
 4631SOL     OW20497   3.851   7.777   0.468 -0.4882  0.1252  0.3187
 4631SOL    HW120498   3.780   7.822   0.513  0.6191  0.5386  1.7074
 4631SOL    HW220499   3.816   7.689   0.451 -1.3661  0.3557  0.8643
 4632SOL     OW20500   5.246  11.050   1.800 -0.5046 -0.3933  0.5190
 4632SOL    HW120501   5.193  10.971   1.790 -0.4820 -0.4929  1.1467
 4632SOL    HW220502   5.183  11.119   1.817 -0.5187 -0.2841  0.0371
 4633SOL     OW20503   7.345   1.098   4.930 -0.6099  0.0163 -0.1763
 4633SOL    HW120504   7.328   1.021   4.985  0.1859 -0.2581 -0.3021
 4633SOL    HW220505   7.375   1.061   4.846  3.5904  0.3936  0.9364
 4634SOL     OW20506   1.267  10.683   5.010  0.2605 -0.2264  0.2596
 4634SOL    HW120507   1.292  10.678   4.918 -2.2146  1.2388 -0.6188
 4634SOL    HW220508   1.344  10.717   5.054  1.6100 -1.2566 -1.1967
 4635SOL     OW20509   8.467  10.135   6.538  0.5595 -0.0274  0.0453
 4635SOL    HW120510   8.425  10.066   6.487 -2.2379  2.5256 -1.4381
 4635SOL    HW220511   8.427  10.128   6.625  0.3885 -0.4035 -0.0632
 4636SOL     OW20512   7.241  12.483  12.082  0.8360 -0.5057 -0.2859
 4636SOL    HW120513   7.311  12.533  12.124  0.3581 -0.5429  0.5666
 4636SOL    HW220514   7.235  12.402  12.133  1.0126 -1.0650 -1.1270
 4637SOL     OW20515  11.834  10.944   3.664 -0.6299  0.3832 -0.1172
 4637SOL    HW120516  11.743  10.974   3.658 -0.4243  0.8749 -0.9184
 4637SOL    HW220517  11.830  10.850   3.642 -0.9290  0.4319 -0.2720
 4638SOL     OW20518  10.282   2.315   1.334 -0.4330  0.6135  0.3239
 4638SOL    HW120519  10.253   2.347   1.249  0.7336  2.4485  0.5576
 4638SOL    HW220520  10.353   2.254   1.313  0.3163  1.5823 -0.0316
 4639SOL     OW20521   5.999   5.074   2.761  0.1996  0.4451 -0.2394
 4639SOL    HW120522   5.995   4.989   2.804  2.6776  0.0952 -0.5732
 4639SOL    HW220523   5.917   5.117   2.787 -0.0813 -1.1340  1.8203
 4640SOL     OW20524   1.942   7.568   1.444  0.4110 -0.0589  0.1142
 4640SOL    HW120525   1.919   7.484   1.485 -1.0890 -0.4660 -1.4338
 4640SOL    HW220526   1.984   7.618   1.514  2.7234 -2.5875  0.7232
 4641SOL     OW20527   1.237   7.795   1.387 -1.2961  0.7169 -0.9703
 4641SOL    HW120528   1.297   7.743   1.441 -0.8155  0.5235 -1.6904
 4641SOL    HW220529   1.163   7.814   1.446 -1.2914 -0.4204 -0.5774
 4642SOL     OW20530   2.642   4.869   4.119 -0.3755  0.1201  0.0617
 4642SOL    HW120531   2.574   4.936   4.126  0.2704  0.7943 -0.0602
 4642SOL    HW220532   2.710   4.897   4.180 -0.7882 -1.2782  1.2231
 4643SOL     OW20533   3.890   9.560   6.176  0.5332  0.3404  0.2970
 4643SOL    HW120534   3.841   9.625   6.227  0.9371 -0.4521  1.7637
 4643SOL    HW220535   3.981   9.572   6.204  0.9562  0.6807 -1.1621
 4644SOL     OW20536  11.361   6.129   1.065  0.7730  0.2963 -0.4438
 4644SOL    HW120537  11.388   6.067   1.133  0.2335 -1.3625 -1.6799
 4644SOL    HW220538  11.418   6.110   0.991  0.8910  1.6114 -0.7111
 4645SOL     OW20539   1.873   9.141   5.706 -0.2968 -0.1955 -0.1187
 4645SOL    HW120540   1.899   9.078   5.773 -0.7781 -0.9460 -0.6129
 4645SOL    HW220541   1.871   9.090   5.625  0.5186  0.7473 -0.7609
 4646SOL     OW20542   9.239   7.886   0.424 -0.0915  0.6629 -0.2268
 4646SOL    HW120543   9.205   7.803   0.459  0.1246  1.4426  1.9660
 4646SOL    HW220544   9.268   7.864   0.335 -1.1066 -1.3313 -0.1273
 4647SOL     OW20545   1.827  10.282   1.298 -0.1997 -0.2271 -0.2199
 4647SOL    HW120546   1.901  10.221   1.296  0.3528  0.4188 -0.0083
 4647SOL    HW220547   1.795  10.285   1.208  2.3923  2.2718 -1.2194
 4648SOL     OW20548   7.838   7.963   7.350  0.4413  0.1028 -0.0128
 4648SOL    HW120549   7.883   7.899   7.405 -1.7759 -0.6945  1.0027
 4648SOL    HW220550   7.842   7.926   7.262 -0.2975 -1.1814  0.4620
 4649SOL     OW20551   1.331   3.305   2.822 -0.1958  0.1549 -0.5183
 4649SOL    HW120552   1.393   3.302   2.749  0.4544  1.1362 -0.0246
 4649SOL    HW220553   1.248   3.278   2.783  0.7487 -2.5071 -0.9016
 4650SOL     OW20554   6.183   2.157  12.686 -0.2635 -0.3224  0.2099
 4650SOL    HW120555   6.101   2.142  12.734 -0.1829 -1.4855  0.0114
 4650SOL    HW220556   6.246   2.182  12.753 -0.4067 -0.9160  0.5684
 4651SOL     OW20557   4.621   6.112   2.994 -0.1340  0.0268  0.2239
 4651SOL    HW120558   4.557   6.182   3.004 -0.2620 -0.1838  0.9410
 4651SOL    HW220559   4.594   6.045   3.057  0.0297 -0.6403 -0.3878
 4652SOL     OW20560   7.027  10.359  12.609  0.2752 -0.0553  0.1123
 4652SOL    HW120561   7.040  10.293  12.676  1.2198 -1.0273 -0.9768
 4652SOL    HW220562   7.085  10.431  12.634 -3.1588  1.9575  3.1374
 4653SOL     OW20563   8.543   0.516   6.552 -0.7496  0.0194  0.4553
 4653SOL    HW120564   8.633   0.506   6.585 -0.3935  0.1553 -0.4325
 4653SOL    HW220565   8.525   0.610   6.558 -1.0579 -0.0841  1.1907
 4654SOL     OW20566   0.613  11.293   4.162  0.0788  0.0402 -0.3911
 4654SOL    HW120567   0.702  11.307   4.127  0.2537 -1.8786 -0.8049
 4654SOL    HW220568   0.578  11.382   4.173  1.0752  0.8315 -2.7718
 4655SOL     OW20569   9.693   4.760   8.369  0.2776  0.4788 -0.4947
 4655SOL    HW120570   9.673   4.690   8.308  0.3628 -0.0244  0.0519
 4655SOL    HW220571   9.651   4.838   8.332 -1.5375 -0.2555 -0.0778
 4656SOL     OW20572   7.894   2.514  12.425  0.2872 -0.2306  0.1387
 4656SOL    HW120573   7.840   2.532  12.503 -1.1076  0.0595 -0.8546
 4656SOL    HW220574   7.984   2.510  12.459 -0.1317  1.1637  1.5726
 4657SOL     OW20575   1.468   7.610   8.045  0.2712  0.0187  0.0299
 4657SOL    HW120576   1.403   7.551   8.007 -0.6658  0.9342  0.1609
 4657SOL    HW220577   1.530   7.627   7.974  1.0237 -1.7413  0.2257
 4658SOL     OW20578  11.363   9.923   3.238 -0.0873  0.7617  0.3509
 4658SOL    HW120579  11.390   9.969   3.159 -1.7177  0.5444 -0.3669
 4658SOL    HW220580  11.333   9.837   3.207 -1.9391  1.1282  1.0053
 4659SOL     OW20581   1.001   6.300   6.314  0.4170  0.1011 -0.4745
 4659SOL    HW120582   0.975   6.307   6.406  0.1111  0.0551 -0.5564
 4659SOL    HW220583   0.945   6.232   6.278  1.2123 -0.5710 -0.4597
 4660SOL     OW20584   5.911   0.952   0.115  0.3943 -0.0901 -0.1537
 4660SOL    HW120585   5.929   1.043   0.137  2.9777 -0.5934  0.1745
 4660SOL    HW220586   5.887   0.953   0.023  0.6889  0.8980 -0.2267
 4661SOL     OW20587   1.243  12.247   3.117  0.2697  0.1895  0.4791
 4661SOL    HW120588   1.287  12.180   3.064 -1.0415 -0.7040  0.4679
 4661SOL    HW220589   1.314  12.290   3.164  1.4631  0.8404 -1.7663
 4662SOL     OW20590   2.817   0.808  12.406  0.0631 -0.2894  0.5714
 4662SOL    HW120591   2.828   0.842  12.318 -0.4196 -0.5085  0.4205
 4662SOL    HW220592   2.810   0.885  12.462  2.3905 -0.1268  0.7054
 4663SOL     OW20593  11.168   9.305   9.563  0.6349 -0.3915 -0.3997
 4663SOL    HW120594  11.090   9.251   9.550  0.2326  0.2756 -0.8148
 4663SOL    HW220595  11.237   9.242   9.585 -0.3362 -0.8561  1.5116
 4664SOL     OW20596   9.676   8.038   8.132  0.7706 -0.0898 -0.8188
 4664SOL    HW120597   9.664   7.974   8.202  0.4213  2.0955  1.2844
 4664SOL    HW220598   9.587   8.065   8.109  0.9313  0.3103 -0.9783
 4665SOL     OW20599  12.658   5.543   5.979  0.2079 -0.2828 -0.2994
 4665SOL    HW120600  12.705   5.625   5.963 -0.4316  0.3665  0.9937
 4665SOL    HW220601  12.566   5.568   5.981  0.0991 -0.6758  1.9352
 4666SOL     OW20602   7.888   9.123  11.637  0.0568 -0.2967 -0.3277
 4666SOL    HW120603   7.886   9.082  11.551 -1.0598 -0.9599 -0.0180
 4666SOL    HW220604   7.916   9.053  11.696 -0.0333 -0.0955 -0.0446
 4667SOL     OW20605   0.269   7.011   0.009 -0.1026 -0.3589 -0.1207
 4667SOL    HW120606   0.292   6.969  -0.073 -1.3121 -0.6546 -0.3324
 4667SOL    HW220607   0.337   7.077   0.022  0.1271 -0.3331 -1.3350
 4668SOL     OW20608   3.057  12.492   0.921  0.5067 -0.0867 -0.6246
 4668SOL    HW120609   3.002  12.474   0.845 -0.3929 -0.5484  0.1232
 4668SOL    HW220610   3.049  12.414   0.975  0.3288  0.6527  0.4308
 4669SOL     OW20611   9.974   3.384   1.447  0.4077  0.0147  0.1176
 4669SOL    HW120612   9.962   3.479   1.448 -2.1417 -0.2247  0.8280
 4669SOL    HW220613   9.889   3.350   1.419  1.2771 -2.0738 -0.1405
 4670SOL     OW20614   0.225   2.982   8.729  0.5809  0.3295  0.2200
 4670SOL    HW120615   0.268   2.916   8.675  0.4633  0.6408 -0.2702
 4670SOL    HW220616   0.193   3.047   8.665 -1.3001 -0.2807  0.4965
 4671SOL     OW20617   6.006  11.179  10.119  0.4973  0.5529  0.3841
 4671SOL    HW120618   5.964  11.158  10.202  0.3966 -2.5280 -0.3426
 4671SOL    HW220619   6.096  11.145  10.128 -0.2391 -2.2812 -1.5465
 4672SOL     OW20620  12.495   0.881   0.948 -0.1329  0.4084  0.4063
 4672SOL    HW120621  12.569   0.916   0.997  0.8703 -0.4603 -0.4259
 4672SOL    HW220622  12.529   0.802   0.907 -0.6317  1.5562 -2.4236
 4673SOL     OW20623   4.883   2.526   3.812  0.0779 -0.1087 -0.0651
 4673SOL    HW120624   4.911   2.503   3.723  0.5997  0.5159 -0.0692
 4673SOL    HW220625   4.883   2.442   3.859  2.3775 -0.1295  0.0254
 4674SOL     OW20626   1.740   0.972  11.469 -0.2829  0.5477 -0.6269
 4674SOL    HW120627   1.668   0.985  11.530 -1.3627 -0.5786 -1.6078
 4674SOL    HW220628   1.717   0.893  11.421  2.4460 -0.8807  0.2005
 4675SOL     OW20629  12.093   4.923   5.851 -0.3240  0.5579  0.0054
 4675SOL    HW120630  12.003   4.953   5.863  0.0451  1.8093 -0.2226
 4675SOL    HW220631  12.140   5.000   5.820  1.3397  0.5691  2.3041
 4676SOL     OW20632   1.599   9.814   1.683 -0.3836 -0.1777  0.3933
 4676SOL    HW120633   1.603   9.757   1.760 -0.5724  0.5066  0.9136
 4676SOL    HW220634   1.655   9.770   1.619  1.1901  0.1110  1.4930
 4677SOL     OW20635   4.046  11.372  11.546  0.4780  0.3377  0.2843
 4677SOL    HW120636   4.127  11.397  11.502 -0.1818 -0.0666 -1.2439
 4677SOL    HW220637   3.977  11.409  11.491 -0.4465 -2.1980 -0.4169
 4678SOL     OW20638   8.181   0.178   2.154 -0.0360  0.1938  0.7461
 4678SOL    HW120639   8.180   0.234   2.076 -1.7151  1.4923  1.6205
 4678SOL    HW220640   8.273   0.157   2.168  0.2150 -1.3745 -2.4342
 4679SOL     OW20641  10.471   7.287   5.188 -0.1451  0.5101 -0.7804
 4679SOL    HW120642  10.515   7.226   5.248  0.3871  0.2699 -1.4025
 4679SOL    HW220643  10.404   7.329   5.242  1.3899  1.5303  0.4701
 4680SOL     OW20644   5.826  11.515   7.625 -0.0694 -0.0549 -0.7402
 4680SOL    HW120645   5.752  11.462   7.654 -0.2339  0.0376 -0.9854
 4680SOL    HW220646   5.856  11.473   7.544 -0.5657  0.5515 -1.2498
 4681SOL     OW20647   9.371   0.846   4.910 -0.3806  0.2194  0.0504
 4681SOL    HW120648   9.288   0.836   4.957 -0.6503 -1.2680 -0.6895
 4681SOL    HW220649   9.352   0.816   4.821 -0.1380  3.7999 -1.3992
 4682SOL     OW20650   7.141   8.137  10.467  0.5406 -0.8243 -0.3013
 4682SOL    HW120651   7.163   8.177  10.383 -0.8794  0.0225 -0.2992
 4682SOL    HW220652   7.096   8.206  10.515  0.7862 -1.4897  0.9276
 4683SOL     OW20653   1.065   8.906   3.949  0.0539  0.3304 -0.3852
 4683SOL    HW120654   1.095   8.855   3.874 -0.8912  0.9978 -1.2478
 4683SOL    HW220655   1.083   8.850   4.025 -0.2104 -0.9374 -1.2237
 4684SOL     OW20656   9.684   0.975  10.708  0.0027  0.0311 -0.0170
 4684SOL    HW120657   9.684   0.961  10.613  3.1791 -1.8204  0.1025
 4684SOL    HW220658   9.709   1.067  10.719 -1.1283  0.4653 -0.9529
 4685SOL     OW20659   4.805   7.923  11.580  0.2560  0.7579 -0.1434
 4685SOL    HW120660   4.855   8.000  11.606  2.2211  0.0111 -1.4780
 4685SOL    HW220661   4.778   7.941  11.490 -1.4334  0.8875  0.3539
 4686SOL     OW20662   1.103  11.659  11.945  0.0890  0.2489 -0.2170
 4686SOL    HW120663   1.156  11.642  11.867 -0.8067 -1.1578 -0.5531
 4686SOL    HW220664   1.160  11.712  12.001  1.1340  0.3964 -1.3692
 4687SOL     OW20665   5.559   3.782   9.993  0.3488  0.5065 -0.2790
 4687SOL    HW120666   5.578   3.720   9.923  0.2781 -1.2994  1.2169
 4687SOL    HW220667   5.464   3.777  10.005  0.2527  1.4262 -0.5928
 4688SOL     OW20668  10.034   1.277   9.818  0.1935 -0.4975  0.4559
 4688SOL    HW120669  10.026   1.181   9.820  0.0988 -0.5554 -1.0369
 4688SOL    HW220670  10.126   1.292   9.796  0.0530 -0.2753  0.0060
 4689SOL     OW20671   0.343   2.446   0.316  0.0410 -0.0659  0.4648
 4689SOL    HW120672   0.403   2.508   0.275  0.1261 -0.7160 -0.4146
 4689SOL    HW220673   0.399   2.380   0.356 -0.0633 -0.1174  0.5272
 4690SOL     OW20674   4.969   3.168   7.459  0.2659  0.1331  0.1179
 4690SOL    HW120675   5.014   3.251   7.473 -0.9618  0.7172  0.7710
 4690SOL    HW220676   4.905   3.187   7.391 -0.7488  0.0241  1.0145
 4691SOL     OW20677   5.707   1.197   0.651  0.8638  0.1452  0.8162
 4691SOL    HW120678   5.774   1.134   0.677 -0.6361 -1.1723  1.6513
 4691SOL    HW220679   5.640   1.145   0.608 -0.2300  1.2264  1.1414
 4692SOL     OW20680  11.820   4.225   6.336 -0.6120  0.3508 -0.3241
 4692SOL    HW120681  11.883   4.200   6.268 -0.9829  0.9423 -0.9039
 4692SOL    HW220682  11.749   4.162   6.327 -0.8571  0.6854 -0.7791
 4693SOL     OW20683   5.249   9.185   3.730 -0.4702  0.3189  0.1666
 4693SOL    HW120684   5.198   9.266   3.726 -0.6558  0.1968  0.0431
 4693SOL    HW220685   5.204   9.131   3.795 -1.7832 -0.6604 -1.4740
 4694SOL     OW20686   5.347  10.820   5.987 -0.7096  0.3074 -0.2319
 4694SOL    HW120687   5.375  10.892   5.931  0.2176 -0.2548 -0.4980
 4694SOL    HW220688   5.425  10.768   6.002 -0.9060  0.4843  1.6802
 4695SOL     OW20689   4.164   3.866   5.478  0.1005 -0.1924  0.3008
 4695SOL    HW120690   4.155   3.807   5.553 -0.8867 -1.4308 -0.7623
 4695SOL    HW220691   4.093   3.929   5.488  0.8651  0.5662  1.1744
 4696SOL     OW20692   7.210  10.606  10.033 -0.3654 -0.5342  0.2081
 4696SOL    HW120693   7.277  10.613  10.101 -1.2887 -0.9168  1.1844
 4696SOL    HW220694   7.250  10.552   9.965  0.1649 -1.1339  0.9838
 4697SOL     OW20695   9.254   4.756   4.061 -0.1587  0.1647  0.1688
 4697SOL    HW120696   9.181   4.750   4.000  0.7877 -0.6671 -0.9182
 4697SOL    HW220697   9.313   4.821   4.022 -0.0636  0.4536  0.7770
 4698SOL     OW20698   4.319   8.125   1.366  0.1559 -0.1557 -0.2720
 4698SOL    HW120699   4.309   8.171   1.449 -0.9060 -3.4335  1.6096
 4698SOL    HW220700   4.237   8.141   1.320 -0.1134  0.0352  0.2649
 4699SOL     OW20701   7.656   1.308   1.371  0.3369 -0.4872  0.4267
 4699SOL    HW120702   7.585   1.329   1.432  1.7617  1.9881  1.3708
 4699SOL    HW220703   7.660   1.213   1.372 -2.0969 -0.6674  1.3220
 4700SOL     OW20704   9.574  11.289   7.839 -0.5331 -0.0910 -0.1264
 4700SOL    HW120705   9.660  11.252   7.820 -0.5516  0.5844 -1.7397
 4700SOL    HW220706   9.544  11.242   7.917  1.0157 -0.7769  0.0989
 4701SOL     OW20707   7.359   4.969   9.087 -0.1155  0.0625 -0.7055
 4701SOL    HW120708   7.377   5.021   9.165  0.3318 -1.1132  0.0079
 4701SOL    HW220709   7.441   4.970   9.038 -0.2654  0.4501 -0.9512
 4702SOL     OW20710   2.951   0.622  11.779 -0.3103  0.2652 -0.2811
 4702SOL    HW120711   2.884   0.682  11.811  1.0955  1.8352 -0.1619
 4702SOL    HW220712   3.028   0.676  11.767  0.9735 -1.4998 -0.3840
 4703SOL     OW20713  10.173   0.557   0.573  0.1233 -0.1464 -0.4802
 4703SOL    HW120714  10.120   0.481   0.551 -0.2016  0.0042 -0.2286
 4703SOL    HW220715  10.116   0.611   0.628  0.2489  0.4155 -0.8934
 4704SOL     OW20716   8.702   8.266   4.825  0.0112 -0.8618 -0.0653
 4704SOL    HW120717   8.668   8.323   4.756  3.5345 -0.8513 -2.0711
 4704SOL    HW220718   8.696   8.178   4.789 -2.9823 -1.6180  1.9518
 4705SOL     OW20719   5.492  11.439   1.268  0.3123  0.1053  0.1903
 4705SOL    HW120720   5.464  11.440   1.360  1.8294 -0.3748  0.7032
 4705SOL    HW220721   5.464  11.353   1.236  1.3568 -0.4835  0.7752
 4706SOL     OW20722   2.197   5.461   8.766  0.0627 -0.1063  0.4381
 4706SOL    HW120723   2.269   5.489   8.823  1.4116  0.2520 -1.3416
 4706SOL    HW220724   2.147   5.541   8.750  0.0640 -0.0773  0.5714
 4707SOL     OW20725   6.814   4.907   4.585 -0.2506 -0.0907  0.3557
 4707SOL    HW120726   6.862   4.979   4.544  0.2726  0.5367  1.9943
 4707SOL    HW220727   6.748   4.882   4.520  1.3808 -0.0623 -1.3981
 4708SOL     OW20728   2.574   2.409   9.763  0.2462  0.3336  0.0905
 4708SOL    HW120729   2.609   2.491   9.798  0.4182  0.6701 -0.8277
 4708SOL    HW220730   2.650   2.365   9.725 -0.1071  0.5379 -0.8989
 4709SOL     OW20731  10.453   7.209   8.679  0.2028 -0.6702  0.0296
 4709SOL    HW120732  10.387   7.143   8.701  1.0959 -1.7324 -0.3662
 4709SOL    HW220733  10.435   7.231   8.587  0.5913 -1.2189 -0.1863
 4710SOL     OW20734   0.091  10.341   7.053  0.4392 -0.1978 -0.3582
 4710SOL    HW120735   0.017  10.395   7.025  1.2970  0.7113 -0.9802
 4710SOL    HW220736   0.101  10.360   7.146 -0.9019 -1.3453  0.0615
 4711SOL     OW20737   6.475   2.682   4.524 -0.3804  0.3316 -0.4993
 4711SOL    HW120738   6.525   2.651   4.599 -0.7967  0.6398 -0.0901
 4711SOL    HW220739   6.472   2.777   4.534 -2.2151  0.2532  0.2705
 4712SOL     OW20740   5.573   9.285   7.750 -0.6464 -0.0738  0.7408
 4712SOL    HW120741   5.643   9.330   7.703 -1.3737  0.1671 -0.1523
 4712SOL    HW220742   5.561   9.204   7.702 -0.5611 -0.4056  1.2711
 4713SOL     OW20743   3.891  11.923   6.329 -0.9608  0.0825 -0.1055
 4713SOL    HW120744   3.831  11.930   6.403 -0.6788  0.9989  0.0538
 4713SOL    HW220745   3.835  11.907   6.253 -1.7502  3.7059 -0.4393
 4714SOL     OW20746   5.611   5.660   6.949 -0.3656 -0.0998  0.2411
 4714SOL    HW120747   5.552   5.729   6.979 -0.3302 -0.1257  0.3710
 4714SOL    HW220748   5.673   5.705   6.891  0.3713  0.1993  1.2379
 4715SOL     OW20749  11.811  12.658   3.502  0.2152 -0.0867 -0.3298
 4715SOL    HW120750  11.739  12.713   3.531 -1.1701 -0.4797 -2.7992
 4715SOL    HW220751  11.781  12.569   3.517  1.3211 -0.2566  1.0815
 4716SOL     OW20752   0.294   2.189  10.896 -0.2664 -0.1193 -0.2991
 4716SOL    HW120753   0.291   2.219  10.805 -0.5690  1.1106  0.0987
 4716SOL    HW220754   0.246   2.107  10.896 -0.2103 -0.1574 -1.2625
 4717SOL     OW20755   0.354   7.834   4.729 -0.3291 -0.0508 -0.3179
 4717SOL    HW120756   0.339   7.874   4.815  2.8733  0.9047 -0.0391
 4717SOL    HW220757   0.436   7.786   4.741 -0.7391 -1.3487 -2.4139
 4718SOL     OW20758   3.470   2.599   3.180 -0.0327  0.6120 -0.2265
 4718SOL    HW120759   3.456   2.528   3.243  1.1837  0.8814  0.3814
 4718SOL    HW220760   3.387   2.608   3.134 -0.1728 -1.3096 -0.4224
 4719SOL     OW20761   2.449   7.494   2.155  0.4059  0.0350  0.2426
 4719SOL    HW120762   2.459   7.576   2.203 -0.0200  0.0223  0.3590
 4719SOL    HW220763   2.355   7.488   2.138  0.3048 -0.8829  1.0375
 4720SOL     OW20764   9.277  12.786   6.989 -0.1369  0.2627  0.7172
 4720SOL    HW120765   9.216  12.827   7.050 -1.0643 -0.7330  0.4872
 4720SOL    HW220766   9.236  12.796   6.903  0.7521  0.9032  0.3535
 4721SOL     OW20767   8.857   0.455   7.734 -0.1627 -0.1979 -0.1820
 4721SOL    HW120768   8.890   0.367   7.752  0.4268  0.0684  0.0886
 4721SOL    HW220769   8.767   0.454   7.768  0.0528 -0.5100  0.4080
 4722SOL     OW20770   0.811  10.115   8.340 -0.1437 -0.2964 -0.4658
 4722SOL    HW120771   0.744  10.181   8.360  0.0665  0.8468 -3.0765
 4722SOL    HW220772   0.884  10.136   8.398 -0.9394  0.2720  0.3705
 4723SOL     OW20773   4.631   4.351   2.518 -0.1825 -0.3825  0.0838
 4723SOL    HW120774   4.584   4.269   2.505  0.6807 -0.7947 -0.5543
 4723SOL    HW220775   4.723   4.325   2.527  0.1452  0.5314 -0.4459
 4724SOL     OW20776   3.894   6.877   7.775  0.2468 -0.2470 -0.1041
 4724SOL    HW120777   3.881   6.957   7.826  0.9015 -0.4535  0.4023
 4724SOL    HW220778   3.951   6.904   7.702 -1.3231  0.2256 -1.2223
 4725SOL     OW20779   4.813   0.318   6.615  0.1059 -0.7428  0.0648
 4725SOL    HW120780   4.757   0.252   6.655  1.2270 -0.6267  1.9692
 4725SOL    HW220781   4.809   0.392   6.675  1.8303 -0.5279 -0.0468
 4726SOL     OW20782  11.060   2.221   3.461  0.4640  0.3024 -0.3386
 4726SOL    HW120783  11.117   2.222   3.538  1.5596  0.2122 -1.1361
 4726SOL    HW220784  11.089   2.296   3.409 -0.3419  0.4246 -0.6301
 4727SOL     OW20785   0.319   8.309   2.811  0.1272 -0.9501  0.9981
 4727SOL    HW120786   0.358   8.251   2.745 -0.6220  0.0575 -0.3900
 4727SOL    HW220787   0.225   8.292   2.805  0.0487 -0.8102  1.7962
 4728SOL     OW20788   2.003   1.864  11.867 -0.2841  0.0164 -0.7862
 4728SOL    HW120789   1.960   1.863  11.953 -1.6103  0.9769 -1.3992
 4728SOL    HW220790   2.073   1.928  11.876 -1.4323  1.3223 -0.8567
 4729SOL     OW20791   2.119   7.848   9.379  0.1747 -0.1147  0.3463
 4729SOL    HW120792   2.157   7.930   9.347  1.4552 -0.8318 -0.0067
 4729SOL    HW220793   2.036   7.875   9.420  1.4863  1.6350  2.0478
 4730SOL     OW20794  11.920   4.415   9.334  0.3594 -0.0255 -0.6486
 4730SOL    HW120795  12.008   4.433   9.368  0.6252 -0.0795 -1.2756
 4730SOL    HW220796  11.872   4.378   9.408  0.2481  1.8172  0.2557
 4731SOL     OW20797   6.179  11.817  12.380  0.2129 -0.3980 -0.4746
 4731SOL    HW120798   6.256  11.840  12.328 -0.0237  0.2878 -0.5254
 4731SOL    HW220799   6.155  11.897  12.425 -0.0035 -0.8131  0.1617
 4732SOL     OW20800   7.702   6.028   2.526  0.5340  0.3771 -0.7474
 4732SOL    HW120801   7.718   6.016   2.433 -0.2532  0.1941 -0.8657
 4732SOL    HW220802   7.677   5.942   2.558  1.3193  0.3177 -0.2457
 4733SOL     OW20803   7.512   2.053  12.051 -0.3047 -0.3139  0.0653
 4733SOL    HW120804   7.599   2.073  12.086 -0.8527 -0.5942  1.6865
 4733SOL    HW220805   7.475   1.993  12.115 -2.1192  0.6807  0.0006
 4734SOL     OW20806  12.653   4.643   7.782 -0.0590 -0.1142  0.1499
 4734SOL    HW120807  12.722   4.693   7.738 -0.0269  0.1707  0.5222
 4734SOL    HW220808  12.655   4.674   7.873 -3.0589  2.5933 -0.5150
 4735SOL     OW20809   2.507  11.837   4.823  0.6785 -0.0239  0.1594
 4735SOL    HW120810   2.422  11.802   4.797  1.6684 -2.4560 -0.1479
 4735SOL    HW220811   2.540  11.774   4.887  1.4019  1.9713  1.8760
 4736SOL     OW20812  11.480   4.619   8.196 -0.3122 -0.2946  0.3765
 4736SOL    HW120813  11.401   4.673   8.200 -1.5894 -2.1633  1.9751
 4736SOL    HW220814  11.465   4.559   8.122 -0.0997 -0.2657  0.3071
 4737SOL     OW20815   4.378   3.608   9.913 -0.0472 -0.0433  0.4345
 4737SOL    HW120816   4.341   3.692   9.941 -0.7579 -0.0515 -0.4505
 4737SOL    HW220817   4.465   3.630   9.879 -0.5556  0.4624 -0.5637
 4738SOL     OW20818   1.960   3.138   4.826 -0.3980 -0.0863  0.0680
 4738SOL    HW120819   1.897   3.124   4.755  1.4046 -1.5284 -1.3690
 4738SOL    HW220820   1.907   3.145   4.905 -2.4744  1.2351 -1.3530
 4739SOL     OW20821  10.905   7.322  11.856 -0.1831 -0.8532 -0.1930
 4739SOL    HW120822  10.906   7.247  11.916 -1.0605 -0.6211  0.1159
 4739SOL    HW220823  10.880   7.284  11.772  0.6277 -1.1090 -0.3278
 4740SOL     OW20824  10.089  11.426   0.124 -0.3952 -0.2172 -0.0258
 4740SOL    HW120825  10.095  11.331   0.126 -1.6913 -0.3264 -0.5932
 4740SOL    HW220826  10.107  11.450   0.033  3.7615  0.4448  0.7452
 4741SOL     OW20827  10.008  12.673   2.591  0.0191 -0.1377  0.5684
 4741SOL    HW120828  10.030  12.761   2.619  3.4071 -0.6045 -0.2255
 4741SOL    HW220829   9.925  12.683   2.544 -0.2443  2.3876  1.4294
 4742SOL     OW20830   5.683  12.369   3.925 -0.8652  0.1680  0.4085
 4742SOL    HW120831   5.706  12.288   3.970 -1.7504  0.0041  0.5792
 4742SOL    HW220832   5.631  12.418   3.988 -1.9152  0.0464 -0.3387
 4743SOL     OW20833   3.319   3.526   6.729  0.1344  0.1951  0.5240
 4743SOL    HW120834   3.354   3.451   6.777 -1.3165 -1.1668 -0.4604
 4743SOL    HW220835   3.255   3.565   6.788  2.0553  1.7336  1.6985
 4744SOL     OW20836   0.481  12.369   8.024 -0.3118  0.3210  0.3162
 4744SOL    HW120837   0.422  12.393   8.095 -2.3362  0.3419 -1.2611
 4744SOL    HW220838   0.428  12.313   7.967  1.2195  0.2660 -1.1400
 4745SOL     OW20839   4.980   1.955   3.303 -0.4297  0.4196 -0.6391
 4745SOL    HW120840   4.892   1.947   3.341 -0.2262 -1.7102 -0.4703
 4745SOL    HW220841   4.990   2.048   3.285 -1.2805  1.3100  2.7846
 4746SOL     OW20842   2.621  10.932   3.160  0.3544  0.2442 -0.1150
 4746SOL    HW120843   2.714  10.913   3.153  0.6461  1.3894  0.3373
 4746SOL    HW220844   2.607  11.006   3.100 -0.3730 -0.2642 -0.5797
 4747SOL     OW20845   9.123   0.544   1.216 -0.5198  0.3516 -0.1241
 4747SOL    HW120846   9.146   0.453   1.195  0.0586  0.7566 -1.3629
 4747SOL    HW220847   9.127   0.549   1.311  0.0767 -0.7645 -0.0807
 4748SOL     OW20848   4.650   2.428   6.494 -0.0736  0.1659  0.0446
 4748SOL    HW120849   4.609   2.423   6.408 -1.2975 -1.6019  0.6783
 4748SOL    HW220850   4.682   2.340   6.511 -0.8424  0.1926  1.8396
 4749SOL     OW20851   7.969   9.438   4.614 -0.0187 -0.1271  0.0321
 4749SOL    HW120852   8.010   9.455   4.698 -1.4423 -0.9822  0.9308
 4749SOL    HW220853   7.990   9.347   4.594  0.1590  0.0159 -0.4583
 4750SOL     OW20854   8.108   1.902  10.041 -0.6442  0.6638  0.3216
 4750SOL    HW120855   8.025   1.920  10.085  0.4501 -0.2665  2.9772
 4750SOL    HW220856   8.142   1.824  10.085  0.3933 -0.6558 -2.5521
 4751SOL     OW20857   4.687  11.089   8.415  0.2464  0.2379  0.1725
 4751SOL    HW120858   4.597  11.108   8.390  0.0137 -1.1325 -0.1005
 4751SOL    HW220859   4.680  11.016   8.476  1.0969  0.9372  1.1376
 4752SOL     OW20860   7.563   0.224  10.113 -0.0756 -0.3753 -0.1251
 4752SOL    HW120861   7.560   0.192  10.204 -0.1231 -0.8799 -0.3029
 4752SOL    HW220862   7.633   0.174  10.072 -1.3996 -1.6189 -0.9219
 4753SOL     OW20863   8.640   4.993   9.328 -0.1709  0.0692 -0.2894
 4753SOL    HW120864   8.714   4.952   9.284  1.0337 -0.0567  1.7587
 4753SOL    HW220865   8.564   4.943   9.299  0.4827  0.2356 -2.4765
 4754SOL     OW20866   8.205   4.818   8.335 -0.2064  0.2285  0.1386
 4754SOL    HW120867   8.210   4.913   8.322  0.6463 -0.1154 -2.9867
 4754SOL    HW220868   8.297   4.791   8.345 -0.1830 -0.4980 -1.7245
 4755SOL     OW20869   5.444   0.946   0.381  0.2911 -0.2164  0.6958
 4755SOL    HW120870   5.489   0.872   0.339  0.1085 -0.0657  0.2193
 4755SOL    HW220871   5.470   0.941   0.473  0.1334 -0.9818  0.7053
 4756SOL     OW20872  12.259   7.062   2.821 -0.0179 -0.8133 -0.0173
 4756SOL    HW120873  12.226   6.990   2.767  0.0366 -1.0052  0.2065
 4756SOL    HW220874  12.223   7.046   2.908 -0.7435 -0.0754 -0.1636
 4757SOL     OW20875   6.907   1.717   2.508 -0.2744 -0.2204 -0.6860
 4757SOL    HW120876   6.959   1.637   2.499 -0.5994 -0.8182  1.9152
 4757SOL    HW220877   6.972   1.787   2.510  0.2591 -0.7229  0.0750
 4758SOL     OW20878   5.187  11.080   0.312  0.5098 -0.8860  0.0375
 4758SOL    HW120879   5.239  11.125   0.379 -0.0132  1.1020 -0.8119
 4758SOL    HW220880   5.209  11.124   0.230 -2.7751  0.4267 -0.2920
 4759SOL     OW20881   8.613   0.053  11.164  0.1198 -0.2320  0.1820
 4759SOL    HW120882   8.708   0.068  11.158 -0.0456  0.2903 -1.5310
 4759SOL    HW220883   8.580   0.127  11.214  0.6601 -0.7065  1.2839
 4760SOL     OW20884   4.088   1.460   6.807 -0.3147  0.2512  0.5340
 4760SOL    HW120885   4.141   1.481   6.730 -0.8622 -0.8693 -0.1764
 4760SOL    HW220886   3.997   1.463   6.776 -0.5317 -0.5045  1.0491
 4761SOL     OW20887   2.572  12.310   5.294 -0.0739 -0.1839 -0.0266
 4761SOL    HW120888   2.490  12.347   5.327 -0.2183  0.1169 -0.7154
 4761SOL    HW220889   2.556  12.216   5.290 -1.0047  0.0055 -1.7895
 4762SOL     OW20890   9.357   5.393  10.397  0.5504 -0.1168 -0.3170
 4762SOL    HW120891   9.362   5.300  10.420 -1.4225 -0.1220  0.2461
 4762SOL    HW220892   9.418   5.436  10.457  0.4356 -0.9047  0.3751
 4763SOL     OW20893  10.097  12.529  10.165  0.3555 -0.5372  0.0437
 4763SOL    HW120894  10.191  12.531  10.182  0.0414 -2.0389  2.4774
 4763SOL    HW220895  10.076  12.437  10.154 -1.1414 -0.5492  2.2213
 4764SOL     OW20896  12.483   3.148  12.566  0.1944 -0.5135 -0.3632
 4764SOL    HW120897  12.503   3.223  12.510 -0.2929 -0.8584 -1.0265
 4764SOL    HW220898  12.401   3.171  12.609  1.2032  0.2774  1.2021
 4765SOL     OW20899  10.889   6.669   3.236  0.1124 -0.1500 -0.1077
 4765SOL    HW120900  10.934   6.736   3.185 -0.1401  0.9189  1.0379
 4765SOL    HW220901  10.954   6.598   3.244  1.8125  1.4909  1.7943
 4766SOL     OW20902   5.085   7.446   1.699  0.2268  0.1793  0.1986
 4766SOL    HW120903   5.049   7.469   1.785  1.4594  0.0632  0.7807
 4766SOL    HW220904   5.043   7.363   1.677  1.8481 -1.2476  2.0160
 4767SOL     OW20905   2.419  10.685   6.777  0.1228 -0.1392  0.1618
 4767SOL    HW120906   2.378  10.733   6.705  0.1265  0.2498  0.4147
 4767SOL    HW220907   2.485  10.631   6.734  0.2126  0.1859 -0.1190
 4768SOL     OW20908  10.954   0.402   3.632  0.7137  0.2024  0.0080
 4768SOL    HW120909  11.022   0.462   3.601 -0.3933  0.6644 -1.6749
 4768SOL    HW220910  10.923   0.358   3.553 -0.2511 -0.7320  0.8738
 4769SOL     OW20911   5.178   7.016  11.737  0.7256 -0.0586  0.0467
 4769SOL    HW120912   5.126   7.088  11.701  1.2544  1.0841  1.4840
 4769SOL    HW220913   5.248   7.003  11.672 -1.5029 -1.9748 -2.1891
 4770SOL     OW20914   7.144   7.729   6.398  0.3549  0.1740  0.1651
 4770SOL    HW120915   7.162   7.699   6.487  0.0050 -0.1546  0.1280
 4770SOL    HW220916   7.149   7.824   6.403 -0.5902  0.2108  0.7514
 4771SOL     OW20917   2.248   1.248  10.075  0.0824 -0.3643 -0.2221
 4771SOL    HW120918   2.155   1.267  10.060  0.3730  0.6590 -0.7798
 4771SOL    HW220919   2.261   1.161  10.036 -0.7213 -0.6978  0.2247
 4772SOL     OW20920   7.159   8.174  12.126 -0.2423  0.0650 -0.2206
 4772SOL    HW120921   7.239   8.209  12.087  0.4029 -0.6535  0.4119
 4772SOL    HW220922   7.088   8.212  12.075  0.5274  0.2233 -1.1908
 4773SOL     OW20923   0.323   0.631  11.432 -0.0145  0.1838 -0.3966
 4773SOL    HW120924   0.404   0.678  11.412  0.6924  0.3373  2.4302
 4773SOL    HW220925   0.304   0.581  11.353  2.2862  0.8916 -1.4832
 4774SOL     OW20926   9.915   9.940  11.602 -0.1344 -0.0211 -0.1267
 4774SOL    HW120927   9.999   9.912  11.565 -0.9161 -0.8206 -1.3942
 4774SOL    HW220928   9.901   9.880  11.676  0.6439  0.4740  0.4439
 4775SOL     OW20929   6.565   1.664   7.650 -0.6286  0.2389  0.0102
 4775SOL    HW120930   6.564   1.592   7.586  3.4478 -0.0219 -0.0163
 4775SOL    HW220931   6.588   1.622   7.733 -0.9392  1.1732  0.5776
 4776SOL     OW20932   3.325   7.552   5.543  0.2584  0.0436 -0.8377
 4776SOL    HW120933   3.397   7.608   5.516  0.5626 -0.6210 -1.4337
 4776SOL    HW220934   3.248   7.589   5.500  0.0495  1.3133  0.5362
 4777SOL     OW20935  10.011   9.135  11.189 -0.0143 -0.1067 -0.2685
 4777SOL    HW120936   9.978   9.149  11.278  1.0685 -3.0320  0.7295
 4777SOL    HW220937   9.933   9.135  11.134 -0.7099  1.7186  0.6407
 4778SOL     OW20938  12.417   7.179   7.764 -0.5101  0.3236 -0.0995
 4778SOL    HW120939  12.461   7.215   7.841  1.1226  3.3709 -2.2336
 4778SOL    HW220940  12.331   7.219   7.763 -0.9602 -0.5924  0.6757
 4779SOL     OW20941   1.125   3.033  10.242  0.3121 -0.1319 -0.2822
 4779SOL    HW120942   1.117   2.990  10.156 -1.2571 -0.9260  0.2160
 4779SOL    HW220943   1.093   2.967  10.304  1.2296  0.5133  0.8989
 4780SOL     OW20944   1.120   9.761   2.438 -0.4901  0.0250  0.6888
 4780SOL    HW120945   1.169   9.742   2.518 -0.8159 -1.6787  0.5181
 4780SOL    HW220946   1.160   9.705   2.371 -1.6647 -0.2650  0.2044
 4781SOL     OW20947  10.988  10.128   8.999 -0.4483 -0.0948 -0.3820
 4781SOL    HW120948  10.908  10.078   9.013 -0.8106  0.1785 -1.3587
 4781SOL    HW220949  10.959  10.209   8.956 -0.0929  1.7682  2.5772
 4782SOL     OW20950   6.867  10.327   6.100 -0.4910  0.0676 -0.3822
 4782SOL    HW120951   6.899  10.416   6.090  0.5672 -0.1767  0.6795
 4782SOL    HW220952   6.936  10.272   6.062 -1.1512 -0.3120 -1.0696
 4783SOL     OW20953  12.229   2.915   4.550 -0.3472 -0.0243  0.1991
 4783SOL    HW120954  12.285   2.950   4.620  0.3331 -1.9157  0.6610
 4783SOL    HW220955  12.250   2.821   4.548 -2.0340 -0.4064 -1.0055
 4784SOL     OW20956   6.047   6.961   5.924  0.2719 -0.1041 -0.0236
 4784SOL    HW120957   6.071   6.868   5.916  0.7066 -0.0326  0.3830
 4784SOL    HW220958   6.019   6.971   6.015  1.3203  0.4006  0.2578
 4785SOL     OW20959  10.642   1.860   6.121  0.2590 -0.2266  0.2297
 4785SOL    HW120960  10.613   1.949   6.099  0.0697  0.1309  1.8004
 4785SOL    HW220961  10.711   1.873   6.185  0.4689 -1.2162  0.2176
 4786SOL     OW20962  12.207   3.624  10.567  0.5718  0.3280 -0.3476
 4786SOL    HW120963  12.159   3.642  10.486  1.7468 -1.2345 -1.4519
 4786SOL    HW220964  12.177   3.538  10.595  0.0202  0.9386  1.0456
 4787SOL     OW20965   6.102   8.393   1.223 -0.1670  0.5855 -0.0724
 4787SOL    HW120966   6.092   8.468   1.283 -0.0911 -0.6342  1.5250
 4787SOL    HW220967   6.014   8.381   1.186 -0.2395  1.2989 -0.1556
 4788SOL     OW20968   0.206  11.825  10.665  0.3106 -0.0644 -0.1487
 4788SOL    HW120969   0.134  11.764  10.650 -1.2051  1.5944  0.1222
 4788SOL    HW220970   0.189  11.898  10.606  0.5074  1.3679  1.5015
 4789SOL     OW20971   2.328  12.471   7.794  0.2033 -0.2388  0.2729
 4789SOL    HW120972   2.344  12.456   7.701 -2.6595  1.4783 -0.6638
 4789SOL    HW220973   2.348  12.564   7.807  1.6497 -0.7044  1.7170
 4790SOL     OW20974   6.624   2.649   4.115  0.0248 -0.0916  0.4406
 4790SOL    HW120975   6.670   2.731   4.133  1.0564 -0.6170  0.2819
 4790SOL    HW220976   6.683   2.581   4.147  0.0539 -0.8534 -1.1368
 4791SOL     OW20977   5.750  10.064   6.178 -0.7303 -0.1164  0.0473
 4791SOL    HW120978   5.840  10.097   6.182 -0.9998  0.5687  3.1595
 4791SOL    HW220979   5.757   9.980   6.133  1.5026 -0.1808  0.4082
 4792SOL     OW20980   4.525   2.345   6.253 -0.1002  0.1492  0.0173
 4792SOL    HW120981   4.466   2.291   6.305  1.3357 -1.9209 -0.3984
 4792SOL    HW220982   4.564   2.285   6.190  1.7473  1.6193 -0.3432
 4793SOL     OW20983   6.350  12.673   4.152 -0.6107 -1.0137  0.1528
 4793SOL    HW120984   6.262  12.644   4.176 -1.0249  0.3532  0.3758
 4793SOL    HW220985   6.407  12.635   4.219 -1.6017  1.7385  2.7938
 4794SOL     OW20986   3.749   7.057   8.839 -0.5824  0.4087 -0.2294
 4794SOL    HW120987   3.720   6.970   8.811  4.0474 -1.1997 -0.7871
 4794SOL    HW220988   3.720   7.115   8.769 -0.5878 -1.3344 -1.7577
 4795SOL     OW20989   8.745   2.797   9.641  0.2814 -0.4434 -0.3009
 4795SOL    HW120990   8.805   2.848   9.587 -0.2511  1.5754  0.9204
 4795SOL    HW220991   8.659   2.838   9.627  0.1338  0.1759  2.0195
 4796SOL     OW20992   0.838  12.432   8.957 -0.4174 -0.3131  0.2329
 4796SOL    HW120993   0.771  12.493   8.985 -2.9539 -1.5165 -2.6410
 4796SOL    HW220994   0.884  12.477   8.886 -0.6576 -0.8109 -0.2479
 4797SOL     OW20995  11.258  12.364   4.771  0.1178  0.1690  0.1355
 4797SOL    HW120996  11.262  12.385   4.865  1.2232 -0.4916  0.2564
 4797SOL    HW220997  11.348  12.341   4.748  0.0876  1.4104 -1.3683
 4798SOL     OW20998   8.871   7.592   5.226 -0.6457 -0.0524  0.2809
 4798SOL    HW120999   8.782   7.566   5.200 -1.2547  0.3798  1.7947
 4798SOL    HW221000   8.857   7.650   5.301  0.7914  2.2233 -1.0937
 4799SOL     OW21001   1.082   0.422   5.739 -0.2532 -0.0368 -0.1826
 4799SOL    HW121002   1.121   0.342   5.704  3.5995  1.5076  0.0289
 4799SOL    HW221003   1.086   0.484   5.666 -1.9373  0.3790  0.0388
 4800SOL     OW21004   7.163   9.094   0.782  0.3561 -0.6455  0.0587
 4800SOL    HW121005   7.171   9.184   0.812 -0.7561 -0.2703 -0.7317
 4800SOL    HW221006   7.227   9.046   0.835  2.3526  0.8955 -0.8031
 4801SOL     OW21007   2.854   4.912  10.274 -0.1852 -0.5035  0.5129
 4801SOL    HW121008   2.872   4.975  10.205 -0.5431  0.0658  0.9356
 4801SOL    HW221009   2.893   4.950  10.353 -0.0585 -0.9978  0.6946
 4802SOL     OW21010   6.106   1.810   3.789 -0.3658  0.1869 -0.5315
 4802SOL    HW121011   6.199   1.813   3.813  0.2456  0.3887 -2.7134
 4802SOL    HW221012   6.072   1.896   3.813  0.1859  0.3469 -0.3158
 4803SOL     OW21013   1.713  11.948   0.948 -0.6482  0.1390  0.2586
 4803SOL    HW121014   1.669  12.033   0.949  0.8747  0.9638 -0.2908
 4803SOL    HW221015   1.806  11.969   0.946 -0.1929 -1.5529  1.3151
 4804SOL     OW21016  11.434   5.472   3.679 -0.5305  0.3011  0.6475
 4804SOL    HW121017  11.458   5.562   3.702  0.9844  0.4063 -1.1031
 4804SOL    HW221018  11.401   5.434   3.760  0.6420  1.8530  1.9074
 4805SOL     OW21019   4.678   6.902   9.486 -0.2783 -0.7814 -0.2773
 4805SOL    HW121020   4.766   6.868   9.470 -0.7120 -0.9210 -2.6492
 4805SOL    HW221021   4.681   6.993   9.456 -0.6882 -0.4823  0.5604
 4806SOL     OW21022   1.674   1.245   8.107  0.2403 -0.2477 -0.5318
 4806SOL    HW121023   1.704   1.307   8.173 -1.0237  1.2516 -1.3226
 4806SOL    HW221024   1.589   1.214   8.140  0.0936 -0.2850 -0.9386
 4807SOL     OW21025  11.727   3.659   8.388  0.1470 -0.3259  0.2918
 4807SOL    HW121026  11.688   3.623   8.309 -0.8354 -1.7667  1.3702
 4807SOL    HW221027  11.653   3.670   8.448  0.9508  0.0795  1.2288
 4808SOL     OW21028   0.991   4.803   7.627 -0.3694 -0.4090  0.2066
 4808SOL    HW121029   1.051   4.767   7.692 -0.4316  0.2356  0.6294
 4808SOL    HW221030   0.904   4.796   7.668 -0.1995  1.8896  1.0917
 4809SOL     OW21031  10.699  11.522   2.823  0.7581 -0.3269 -0.3330
 4809SOL    HW121032  10.661  11.507   2.736  0.7899  0.2316 -0.4476
 4809SOL    HW221033  10.700  11.435   2.864 -0.7445 -0.3389 -0.2753
 4810SOL     OW21034   4.094   0.313   0.215 -0.6697  0.0031 -0.0331
 4810SOL    HW121035   4.128   0.235   0.173  0.3024  0.3807  0.0323
 4810SOL    HW221036   4.107   0.298   0.309 -0.9375  0.0345  0.0101
 4811SOL     OW21037   8.488   3.050   1.770  0.4558 -0.3767 -0.2072
 4811SOL    HW121038   8.451   3.057   1.857  1.8758 -0.4161  0.4375
 4811SOL    HW221039   8.581   3.069   1.782  0.4788  0.9191 -1.9104
 4812SOL     OW21040   8.615   7.387   7.984  0.5691  0.0663  0.4407
 4812SOL    HW121041   8.684   7.321   7.978 -0.3289 -0.8388 -0.3179
 4812SOL    HW221042   8.579   7.376   8.073 -0.3912 -1.3658 -0.0744
 4813SOL     OW21043  10.652  10.113   2.660  0.1781 -0.2189 -0.0081
 4813SOL    HW121044  10.707  10.036   2.671 -1.6991 -1.4615  1.3745
 4813SOL    HW221045  10.683  10.175   2.726 -0.3626 -1.1229  1.1366
 4814SOL     OW21046  10.269   0.020   6.462  0.2645 -0.4870 -0.5850
 4814SOL    HW121047  10.316  -0.015   6.387  0.2315 -0.7495 -0.4827
 4814SOL    HW221048  10.189   0.058   6.425  1.3252  1.5329 -0.9968
 4815SOL     OW21049   4.544   9.284   6.997 -0.0319  0.5780 -0.6122
 4815SOL    HW121050   4.575   9.371   7.024 -0.2642  0.1322  1.2166
 4815SOL    HW221051   4.452   9.298   6.974 -0.2797  0.6987  0.4046
 4816SOL     OW21052   3.305   4.949   1.297  0.5600 -0.4672  0.1671
 4816SOL    HW121053   3.377   4.887   1.301 -0.6935 -1.9515  1.4371
 4816SOL    HW221054   3.332   5.021   1.355  0.9989 -1.0565  0.7098
 4817SOL     OW21055  11.837   1.688   5.801 -0.4513 -0.1538  0.0801
 4817SOL    HW121056  11.779   1.615   5.823 -0.0564 -0.6698 -0.5373
 4817SOL    HW221057  11.925   1.650   5.804 -0.2594  0.2295 -0.4875
 4818SOL     OW21058  10.583  10.910   4.623  0.3153 -0.1907  0.1827
 4818SOL    HW121059  10.540  10.941   4.703  0.0645  0.6745 -0.2765
 4818SOL    HW221060  10.511  10.888   4.564  0.4907 -1.4917  0.4244
 4819SOL     OW21061  11.284  11.567   2.742 -0.2960 -0.3729  0.4125
 4819SOL    HW121062  11.315  11.632   2.804  0.7518 -2.1181  1.7963
 4819SOL    HW221063  11.209  11.526   2.785 -1.6303  0.5937 -0.9016
 4820SOL     OW21064   4.724   8.147   0.622 -0.1558 -0.2138  0.1449
 4820SOL    HW121065   4.737   8.092   0.699  0.0417 -1.7584 -0.9475
 4820SOL    HW221066   4.630   8.144   0.606 -0.2225  0.2590  0.4027
 4821SOL     OW21067  10.660  10.263   8.206  0.2991  0.6659  0.6256
 4821SOL    HW121068  10.708  10.306   8.277  1.0512 -0.7417  1.0106
 4821SOL    HW221069  10.686  10.171   8.213  0.6914  0.5430 -1.7106
 4822SOL     OW21070   2.405  12.365   0.235 -0.0432  0.0567  0.3945
 4822SOL    HW121071   2.444  12.433   0.289 -0.9120  0.0378  1.0594
 4822SOL    HW221072   2.458  12.287   0.252 -0.2931  0.0598  1.1999
 4823SOL     OW21073  11.731   5.649   0.762 -0.2782 -0.3522  0.0700
 4823SOL    HW121074  11.700   5.740   0.763  0.4608 -0.0251 -1.9048
 4823SOL    HW221075  11.821   5.654   0.794 -0.6543 -0.6013  1.2041
 4824SOL     OW21076   5.193   3.577  11.805 -0.3148  0.3583  0.8028
 4824SOL    HW121077   5.221   3.589  11.714 -0.8512  1.8052  0.7974
 4824SOL    HW221078   5.265   3.613  11.857 -1.1835  2.1204  0.8466
 4825SOL     OW21079   5.461   5.809   1.521 -0.4948 -0.4193  0.5781
 4825SOL    HW121080   5.489   5.810   1.430  3.1259 -0.4081  1.5649
 4825SOL    HW221081   5.446   5.901   1.542  1.1311 -0.1349  0.6126
 4826SOL     OW21082   2.327  10.069   5.916  0.0153  0.1070  0.7530
 4826SOL    HW121083   2.391  10.013   5.873  0.1998 -0.4577  1.7346
 4826SOL    HW221084   2.309  10.026   6.000  0.6892  1.8593  1.8626
 4827SOL     OW21085   1.067   3.058   3.875 -0.5225  0.0016 -0.5101
 4827SOL    HW121086   1.044   3.120   3.944  1.4811  0.7686 -0.4611
 4827SOL    HW221087   0.983   3.028   3.840 -1.5568  0.7772  1.1961
 4828SOL     OW21088  12.439   9.581   6.964 -0.2279 -0.2478 -0.0825
 4828SOL    HW121089  12.425   9.495   6.924  1.3163  0.3644 -2.0836
 4828SOL    HW221090  12.522   9.611   6.928 -0.9260  2.2621  0.2212
 4829SOL     OW21091   8.648   5.791   9.570  0.3592  0.1300  0.4810
 4829SOL    HW121092   8.741   5.796   9.593  0.9078 -0.7740 -1.3387
 4829SOL    HW221093   8.613   5.723   9.628  0.8985  0.2899  1.0029
 4830SOL     OW21094   3.633   7.344   9.735 -0.6429  0.6853  0.4466
 4830SOL    HW121095   3.648   7.264   9.685 -1.5598 -0.4645  1.9173
 4830SOL    HW221096   3.568   7.393   9.684 -0.7291  0.0738 -0.0352
 4831SOL     OW21097   1.693  10.896   5.321  0.3838  0.2851 -0.3499
 4831SOL    HW121098   1.739  10.941   5.250  0.6169  0.3472 -0.1587
 4831SOL    HW221099   1.600  10.909   5.301  0.4512  0.6092 -0.4462
 4832SOL     OW21100   7.510   7.117   2.016  1.1746  0.5223  0.1158
 4832SOL    HW121101   7.433   7.163   2.050  1.8806  1.0445  1.0636
 4832SOL    HW221102   7.491   7.025   2.029  0.9768  0.6771  0.9521
 4833SOL     OW21103   6.543   5.549   3.952 -0.2045 -0.1432 -0.1539
 4833SOL    HW121104   6.627   5.588   3.975 -0.7386  0.4615  0.8323
 4833SOL    HW221105   6.533   5.567   3.859  0.8192 -0.3612 -0.3201
 4834SOL     OW21106   7.259  12.785   8.025  0.2688  0.1740  0.5501
 4834SOL    HW121107   7.351  12.757   8.030  0.8868  2.0651  0.4203
 4834SOL    HW221108   7.213  12.710   7.986  2.0724 -0.1185 -1.1728
 4835SOL     OW21109   2.683  10.894   1.144  0.3392 -0.6053  0.0201
 4835SOL    HW121110   2.613  10.871   1.082  0.3343 -0.2208 -0.1254
 4835SOL    HW221111   2.746  10.823   1.137  0.9973  0.0763 -1.4402
 4836SOL     OW21112  10.827   7.126   0.175  0.8993  0.2014  0.3023
 4836SOL    HW121113  10.876   7.188   0.229 -2.7300  0.4234  3.7829
 4836SOL    HW221114  10.779   7.182   0.113  1.9242  0.2763 -0.4641
 4837SOL     OW21115   3.945   5.547   7.685  0.0725 -0.0409 -0.1931
 4837SOL    HW121116   3.859   5.529   7.648 -0.4461  0.4593  0.7231
 4837SOL    HW221117   3.970   5.466   7.730 -0.7880  0.4001  1.1429
 4838SOL     OW21118   4.305   3.237   4.297  0.4221  0.2101 -0.2028
 4838SOL    HW121119   4.394   3.201   4.295 -0.2448 -2.0011  2.9356
 4838SOL    HW221120   4.313   3.318   4.347  0.5092 -0.9313  1.7492
 4839SOL     OW21121  10.938   0.572   7.762 -0.1087 -0.0043  0.2848
 4839SOL    HW121122  10.926   0.480   7.739 -0.4774  0.0539  0.2316
 4839SOL    HW221123  10.868   0.590   7.825 -0.6768  0.5040 -0.4736
 4840SOL     OW21124   4.902  11.691   7.046  0.2983  1.0639  0.4655
 4840SOL    HW121125   4.974  11.701   7.108  0.0483  2.3945  0.5693
 4840SOL    HW221126   4.873  11.601   7.057 -0.2899  1.4912  2.8901
 4841SOL     OW21127   3.197   9.252   8.387  0.2325  0.3774  0.0620
 4841SOL    HW121128   3.125   9.190   8.390  1.0921 -0.7609 -1.2122
 4841SOL    HW221129   3.269   9.208   8.431  0.3957  1.1676  0.6146
 4842SOL     OW21130  12.480  10.102   0.032  0.0937  0.2253  0.3350
 4842SOL    HW121131  12.540  10.029   0.014 -1.6705 -1.4747  0.9725
 4842SOL    HW221132  12.500  10.167  -0.035  1.1996 -1.1772 -0.7672
 4843SOL     OW21133   6.141  11.651   5.582 -0.2823 -0.3353 -0.9842
 4843SOL    HW121134   6.128  11.558   5.599 -0.9513 -0.7217 -3.3239
 4843SOL    HW221135   6.235  11.660   5.567 -0.1709 -0.5530 -0.4468
 4844SOL     OW21136  10.639  10.945   6.532  0.1642 -0.0071  0.1810
 4844SOL    HW121137  10.562  10.949   6.475 -0.4356  1.9942  1.0243
 4844SOL    HW221138  10.609  10.895   6.609 -0.0966  0.2106  0.2223
 4845SOL     OW21139   6.593  11.546  12.506 -0.5713  0.1805 -0.1084
 4845SOL    HW121140   6.508  11.564  12.466 -0.1438  0.9274 -0.7046
 4845SOL    HW221141   6.573  11.488  12.580 -1.7769  1.5039  0.6629
 4846SOL     OW21142   9.632   8.839   3.459 -0.9505  0.1193 -0.0834
 4846SOL    HW121143   9.690   8.765   3.440  0.0511  0.8226  0.1534
 4846SOL    HW221144   9.610   8.874   3.372 -0.0473  0.5704 -0.1416
 4847SOL     OW21145   7.387   8.163   7.950 -0.0955 -0.1259 -0.0314
 4847SOL    HW121146   7.459   8.124   7.899 -1.0345 -0.0266 -1.4992
 4847SOL    HW221147   7.376   8.250   7.913 -0.0050  0.4215  1.1981
 4848SOL     OW21148   1.604   8.450   6.673 -0.0243 -0.3466  0.8232
 4848SOL    HW121149   1.520   8.456   6.627  0.2499  0.4458  0.4049
 4848SOL    HW221150   1.587   8.390   6.746 -0.6307 -1.1389  0.0583
 4849SOL     OW21151   6.899   9.774  12.172 -0.1587 -0.2170  0.0541
 4849SOL    HW121152   6.920   9.681  12.160 -0.8296 -0.1274 -2.2208
 4849SOL    HW221153   6.948   9.819  12.104  1.8852  1.4584  2.4132
 4850SOL     OW21154   8.328  11.331   2.471  0.5754  0.1202  0.2726
 4850SOL    HW121155   8.367  11.261   2.418 -0.0608  0.3084 -0.4528
 4850SOL    HW221156   8.345  11.411   2.422  1.2126  0.4774  1.0511
 4851SOL     OW21157   2.737   2.500   7.228 -0.0887 -0.1710  0.2695
 4851SOL    HW121158   2.791   2.511   7.307 -0.7697 -1.8118  1.0039
 4851SOL    HW221159   2.769   2.419   7.189  0.3837  0.7313 -1.3022
 4852SOL     OW21160   3.097   5.579   8.266  0.0155 -0.3381 -0.2908
 4852SOL    HW121161   3.136   5.658   8.302  0.3019  0.0963 -1.5191
 4852SOL    HW221162   3.034   5.610   8.202 -1.0748 -1.0807  0.3772
 4853SOL     OW21163   3.076   8.446   6.592 -0.0177 -0.1217 -0.4692
 4853SOL    HW121164   3.152   8.389   6.595  1.1946  1.4346 -0.5540
 4853SOL    HW221165   3.054   8.452   6.499  1.9046  2.0791 -0.8656
 4854SOL     OW21166   8.742   2.470   0.728 -0.3689  0.5550 -0.0763
 4854SOL    HW121167   8.754   2.565   0.738 -1.9777  0.7710  0.0465
 4854SOL    HW221168   8.689   2.460   0.650 -1.2149 -0.1680  0.5740
 4855SOL     OW21169   8.006   8.281   2.806  0.6154 -0.1621 -0.0671
 4855SOL    HW121170   7.976   8.354   2.860  1.9266 -0.9690  1.8896
 4855SOL    HW221171   7.928   8.230   2.788 -0.4184  1.8887 -1.8850
 4856SOL     OW21172   0.146  12.077   3.646  1.5279  0.1809  0.7416
 4856SOL    HW121173   0.056  12.100   3.620  1.0663 -0.9330  1.2590
 4856SOL    HW221174   0.199  12.098   3.570  0.6155 -0.4086 -0.0949
 4857SOL     OW21175   6.860  12.674   0.873  0.0847 -0.0424  0.2349
 4857SOL    HW121176   6.788  12.653   0.933 -1.9838 -1.4733 -2.4864
 4857SOL    HW221177   6.922  12.602   0.885 -0.2964 -0.3099  0.6720
 4858SOL     OW21178  11.673   8.927   5.660  0.0615 -0.1363 -1.0564
 4858SOL    HW121179  11.684   8.912   5.566  0.0841 -0.2451 -1.0364
 4858SOL    HW221180  11.697   9.018   5.672  0.7961 -0.3280 -1.0360
 4859SOL     OW21181   7.685   8.967   9.703  0.5087  0.3512  0.1038
 4859SOL    HW121182   7.701   9.000   9.792 -1.8331  1.3810  0.2112
 4859SOL    HW221183   7.721   9.034   9.645 -1.1353  1.4705  0.3224
 4860SOL     OW21184  12.333   8.066   0.951 -0.0319 -0.1467 -0.1410
 4860SOL    HW121185  12.392   8.003   0.992 -0.7893 -0.7874  0.0025
 4860SOL    HW221186  12.375   8.151   0.965  0.1255 -0.4302  1.2725
 4861SOL     OW21187  12.744  10.623  11.697 -0.1171  0.2796 -0.4551
 4861SOL    HW121188  12.685  10.689  11.734  0.2038  0.8229 -0.9008
 4861SOL    HW221189  12.815  10.616  11.760  0.6102  1.4616 -1.1044
 4862SOL     OW21190  11.338   7.012   8.727  0.3763  0.2729 -0.5667
 4862SOL    HW121191  11.413   7.058   8.763  0.0319  0.0640  0.4608
 4862SOL    HW221192  11.263   7.046   8.777  0.1024 -1.3325  0.1918
 4863SOL     OW21193   3.425  10.442   9.427 -0.2674 -0.6223  0.0633
 4863SOL    HW121194   3.483  10.511   9.458 -1.2787 -0.1849  1.0541
 4863SOL    HW221195   3.479  10.363   9.429  0.0784 -0.3879  1.7922
 4864SOL     OW21196   1.700   1.719   4.875  0.0297  0.7097 -0.3140
 4864SOL    HW121197   1.789   1.727   4.843 -0.5940 -0.6361 -2.6488
 4864SOL    HW221198   1.657   1.801   4.851  0.1190  0.5352 -1.0885
 4865SOL     OW21199   3.813  11.857  11.949 -0.0814  0.7310 -0.1615
 4865SOL    HW121200   3.806  11.827  11.859 -0.6384 -2.4032  0.7969
 4865SOL    HW221201   3.907  11.850  11.970 -0.0478  0.8189 -0.2799
 4866SOL     OW21202   8.703  10.826   7.661 -0.1711 -0.3855  0.8495
 4866SOL    HW121203   8.735  10.837   7.572 -0.1787 -2.2038  0.5685
 4866SOL    HW221204   8.615  10.790   7.650 -0.4876  0.1445  1.5979
 4867SOL     OW21205   8.306   5.907  11.047  0.1359 -0.0790  0.1699
 4867SOL    HW121206   8.400   5.920  11.032  0.2193  0.0656  0.7801
 4867SOL    HW221207   8.264   5.983  11.005  0.3314  0.1151  0.3222
 4868SOL     OW21208   2.367   3.184   6.796  0.1533  0.3188 -0.2656
 4868SOL    HW121209   2.392   3.093   6.780  0.4568  0.3624 -0.0462
 4868SOL    HW221210   2.282   3.194   6.752  0.7276  0.2916 -1.4331
 4869SOL     OW21211   4.028  12.431   1.913  0.5034 -0.2945  0.3036
 4869SOL    HW121212   4.107  12.481   1.935 -0.0578  0.3118  0.9854
 4869SOL    HW221213   4.021  12.366   1.983  2.9826 -3.5575 -2.1545
 4870SOL     OW21214  11.200  11.774   8.453  0.6148  0.3799 -0.5380
 4870SOL    HW121215  11.134  11.720   8.411  0.1885  1.0605 -0.7673
 4870SOL    HW221216  11.275  11.716   8.465  0.7588  0.1499 -2.2524
 4871SOL     OW21217   1.843   8.769  10.036 -0.1235 -0.5129  0.2208
 4871SOL    HW121218   1.840   8.846  10.093  0.9896  0.2999 -0.7676
 4871SOL    HW221219   1.756   8.731  10.043 -1.1896  1.6683 -0.3843
 4872SOL     OW21220  11.984   8.164   9.578 -1.0147  0.1662 -0.7765
 4872SOL    HW121221  12.040   8.173   9.502 -0.6948 -1.1827 -0.7236
 4872SOL    HW221222  11.899   8.197   9.549 -1.0006 -0.6882 -1.8637
 4873SOL     OW21223   4.991  12.128  10.071 -0.0658  0.3282 -0.0887
 4873SOL    HW121224   5.034  12.199  10.023 -0.0234  1.1488  1.1128
 4873SOL    HW221225   4.966  12.065  10.003  1.3381  0.7139 -1.0188
 4874SOL     OW21226   0.969   8.069   6.437  0.2315 -0.2896 -0.2365
 4874SOL    HW121227   1.044   8.075   6.496 -0.6934 -0.9667  1.0670
 4874SOL    HW221228   1.007   8.047   6.352  1.4544 -1.2174  0.5218
 4875SOL     OW21229   4.839  12.699  12.586 -0.1275  0.7617 -0.5935
 4875SOL    HW121230   4.911  12.669  12.641 -0.3518 -1.0743 -1.2276
 4875SOL    HW221231   4.843  12.644  12.508 -1.0021  1.9833 -1.5460
 4876SOL     OW21232   4.440   6.891   0.273 -0.9405  0.4302  0.4173
 4876SOL    HW121233   4.482   6.891   0.359 -0.9304  0.0033  0.4127
 4876SOL    HW221234   4.372   6.825   0.279 -0.0910 -0.5437 -0.3116
 4877SOL     OW21235   5.728   1.263   8.187 -0.4170  0.7381  0.0869
 4877SOL    HW121236   5.758   1.347   8.153 -0.5170  0.6948 -0.1124
 4877SOL    HW221237   5.713   1.278   8.280 -0.2295  0.8825  0.0940
 4878SOL     OW21238   8.393   6.731  12.779 -0.3302 -0.8227 -0.0542
 4878SOL    HW121239   8.462   6.665  12.772 -0.7599 -1.0806 -2.7547
 4878SOL    HW221240   8.437   6.813  12.758 -0.5025 -0.7451 -0.1129
 4879SOL     OW21241   3.861  10.605   3.182  1.0164  0.2934 -0.1653
 4879SOL    HW121242   3.918  10.634   3.110  1.4623  0.7701  0.3683
 4879SOL    HW221243   3.772  10.612   3.148  1.1514  1.7098 -0.2589
 4880SOL     OW21244   8.161  11.673   4.414  0.1957 -0.0839 -0.2973
 4880SOL    HW121245   8.142  11.745   4.354 -3.8821 -0.0067  0.8023
 4880SOL    HW221246   8.199  11.715   4.491 -1.1725  0.8038 -0.0807
 4881SOL     OW21247   4.435   3.255   3.766 -0.1909  0.1945  0.3337
 4881SOL    HW121248   4.371   3.326   3.751  0.7335  0.6054 -2.1623
 4881SOL    HW221249   4.502   3.295   3.822 -0.2301  0.9441 -0.1418
 4882SOL     OW21250   1.936   8.714   6.312  0.3869  0.1677 -0.4808
 4882SOL    HW121251   1.872   8.785   6.299  0.3308  0.9922  3.0916
 4882SOL    HW221252   2.018   8.750   6.278  0.0219  1.3651 -0.1758
 4883SOL     OW21253  11.833   0.274   6.812 -1.2572 -0.0578 -0.7409
 4883SOL    HW121254  11.857   0.294   6.902  0.8289  1.2976 -1.5164
 4883SOL    HW221255  11.888   0.199   6.788 -0.4857  0.6941 -1.3925
 4884SOL     OW21256   7.571   9.674   0.058 -0.9104  0.3926 -0.2313
 4884SOL    HW121257   7.632   9.740   0.026 -0.1559 -1.0834 -2.0064
 4884SOL    HW221258   7.500   9.673  -0.006 -1.2419 -0.0760  0.1338
 4885SOL     OW21259  11.913   8.648   0.951 -0.1049  0.0308  0.0343
 4885SOL    HW121260  11.857   8.576   0.923  0.3787 -1.5287  2.6590
 4885SOL    HW221261  11.982   8.652   0.885 -0.2037 -1.8809 -0.2519
 4886SOL     OW21262   8.130   5.228   1.062  0.1404 -0.0167  0.3200
 4886SOL    HW121263   8.218   5.195   1.047  0.1174  0.3720 -0.7989
 4886SOL    HW221264   8.135   5.275   1.145  0.6316 -1.1845  0.9697
 4887SOL     OW21265  10.579   2.636   0.336 -0.1261 -0.0521 -0.0533
 4887SOL    HW121266  10.597   2.557   0.386 -1.0693 -1.1521 -1.3835
 4887SOL    HW221267  10.665   2.675   0.320  0.4462 -1.3371 -0.2105
 4888SOL     OW21268   0.268  12.494   9.495 -0.0585 -0.0900  0.0283
 4888SOL    HW121269   0.352  12.464   9.528  1.1535  2.9087 -0.0138
 4888SOL    HW221270   0.233  12.551   9.564  0.4930  2.8197 -1.8821
 4889SOL     OW21271   9.301  10.775   3.455  0.2546  0.3481  0.3020
 4889SOL    HW121272   9.306  10.823   3.373 -0.2502  1.4074  0.8599
 4889SOL    HW221273   9.379  10.801   3.503 -1.1368  2.5665  1.5741
 4890SOL     OW21274   4.344   6.576   2.462  0.5704 -0.2945  0.2972
 4890SOL    HW121275   4.403   6.533   2.399  0.0711  1.5096 -1.4894
 4890SOL    HW221276   4.388   6.658   2.483 -0.1207 -0.0861  0.9398
 4891SOL     OW21277   8.606   2.515   2.057 -0.2980  0.2566  0.7196
 4891SOL    HW121278   8.589   2.432   2.013 -3.0904  1.2063 -0.2710
 4891SOL    HW221279   8.699   2.513   2.080 -0.3822 -3.3492  1.2930
 4892SOL     OW21280   1.989   1.900   4.258 -0.2884 -0.2058 -0.1777
 4892SOL    HW121281   1.968   1.809   4.281 -0.8941 -0.0854 -0.2273
 4892SOL    HW221282   2.082   1.898   4.234 -0.4129 -0.9020 -0.6343
 4893SOL     OW21283   7.157   4.975  11.281 -0.0697  0.1637 -0.0298
 4893SOL    HW121284   7.199   4.959  11.365 -0.6575  0.7803  0.3998
 4893SOL    HW221285   7.075   4.925  11.285 -0.2826  0.5019 -0.0681
 4894SOL     OW21286   3.400  11.911   2.914  0.1562 -0.1692  0.1751
 4894SOL    HW121287   3.345  11.963   2.973  0.6336  0.0229  0.4503
 4894SOL    HW221288   3.451  11.975   2.865  0.9454 -0.3767  0.7077
 4895SOL     OW21289   8.413   0.405   6.984  0.3975 -0.1621 -1.0607
 4895SOL    HW121290   8.505   0.385   6.968 -0.0868 -2.3488 -1.5709
 4895SOL    HW221291   8.378   0.427   6.897 -0.2786 -2.9976 -1.6117
 4896SOL     OW21292   5.638  10.608  12.243  0.6627 -0.0236  0.1084
 4896SOL    HW121293   5.627  10.667  12.318  0.6765 -1.3604  1.2042
 4896SOL    HW221294   5.722  10.565  12.259  1.4283  0.7963 -1.5201
 4897SOL     OW21295  11.791   4.150   7.126 -0.2399  0.2475  0.0050
 4897SOL    HW121296  11.861   4.181   7.068 -1.7053  3.8030 -0.0826
 4897SOL    HW221297  11.816   4.183   7.213 -1.0453  0.2163  0.2552
 4898SOL     OW21298   0.472  12.192   8.778  0.8655  0.0417 -0.4785
 4898SOL    HW121299   0.467  12.141   8.698 -1.1255 -0.4023 -0.1057
 4898SOL    HW221300   0.486  12.282   8.749  2.4706 -0.4100 -1.2034
 4899SOL     OW21301   3.199   0.699   9.120 -0.0402 -0.0483 -0.1377
 4899SOL    HW121302   3.127   0.655   9.076  0.8182 -0.6340 -0.9928
 4899SOL    HW221303   3.157   0.762   9.179 -1.2302  0.4543 -1.4823
 4900SOL     OW21304   5.716   2.986   2.117 -0.1219 -0.1141  0.0753
 4900SOL    HW121305   5.702   2.933   2.195  3.7550  0.1130  1.1654
 4900SOL    HW221306   5.680   3.072   2.139 -0.5752 -0.5178  0.9496
 4901SOL     OW21307   1.598   5.242  11.337  0.1445  0.2936 -0.0000
 4901SOL    HW121308   1.619   5.222  11.429 -0.3431  0.1479  0.0857
 4901SOL    HW221309   1.651   5.181  11.286  1.1404  1.0149  0.1464
 4902SOL     OW21310   6.305   1.028   5.495  0.4756  0.3790 -0.1165
 4902SOL    HW121311   6.383   1.023   5.439  0.2871 -0.6034 -0.3034
 4902SOL    HW221312   6.289   0.938   5.522  0.4966  0.8248  1.4558
 4903SOL     OW21313   0.201   3.151   1.144  0.0702 -0.0532  0.5762
 4903SOL    HW121314   0.191   3.244   1.122  2.1573  0.0633 -0.1343
 4903SOL    HW221315   0.136   3.106   1.089 -0.6518  0.9466  0.5903
 4904SOL     OW21316   4.481   2.419   6.747 -0.0089  0.6521 -0.2370
 4904SOL    HW121317   4.427   2.463   6.813 -1.5184  0.6469 -1.3948
 4904SOL    HW221318   4.449   2.329   6.747 -1.6077  1.1300 -2.4218
 4905SOL     OW21319  11.575   3.827   0.322  0.0261  0.3387  0.1695
 4905SOL    HW121320  11.591   3.740   0.286  1.7726  0.7539 -0.1567
 4905SOL    HW221321  11.640   3.838   0.391  0.9168  1.9642 -0.8643
 4906SOL     OW21322   4.607   0.813   7.213  0.0495 -0.1085 -0.6224
 4906SOL    HW121323   4.519   0.828   7.246  0.5726  2.0326 -0.0568
 4906SOL    HW221324   4.663   0.870   7.266  1.7741 -1.3384 -1.0246
 4907SOL     OW21325   8.162   5.966  11.941  0.1262  0.2273  0.4788
 4907SOL    HW121326   8.118   6.050  11.928  0.4115  0.0440 -2.5787
 4907SOL    HW221327   8.246   5.988  11.982  0.0002  1.3969  0.1317
 4908SOL     OW21328   6.089   7.426   8.515  0.1467  0.1853  0.1140
 4908SOL    HW121329   6.049   7.398   8.597  0.1724  0.7781  0.3346
 4908SOL    HW221330   6.146   7.499   8.541 -0.6443  1.0654 -0.5822
 4909SOL     OW21331  11.220   9.350   6.421  0.1156  0.6793  0.2673
 4909SOL    HW121332  11.172   9.396   6.352  0.8926  1.0812 -0.0134
 4909SOL    HW221333  11.288   9.301   6.374 -0.1099 -0.0106  0.6453
 4910SOL     OW21334   5.884   6.145   4.879  0.2955  0.4341 -0.1644
 4910SOL    HW121335   5.927   6.210   4.824  2.0307  1.1244  1.8477
 4910SOL    HW221336   5.944   6.071   4.881  0.3991  0.5276  0.9609
 4911SOL     OW21337   9.049  12.373   5.206 -0.3218  0.6002  0.8209
 4911SOL    HW121338   9.058  12.467   5.196  1.3808  0.3582 -0.4549
 4911SOL    HW221339   9.052  12.357   5.300 -0.1027  1.7719  1.0211
 4912SOL     OW21340   0.604   4.302   3.786  0.0114  0.0045  0.0554
 4912SOL    HW121341   0.685   4.328   3.743 -0.0570  0.5611  0.2595
 4912SOL    HW221342   0.561   4.384   3.809 -1.0888 -0.2712 -0.9357
 4913SOL     OW21343   1.155   6.093   2.349  0.2050  0.4813 -0.0591
 4913SOL    HW121344   1.164   5.998   2.343 -1.6378  0.3211 -1.3763
 4913SOL    HW221345   1.174   6.114   2.441  2.8871 -0.8069 -0.2329
 4914SOL     OW21346  10.086   3.445   0.668  0.1392  0.4215  0.3032
 4914SOL    HW121347  10.059   3.516   0.609 -2.0788 -0.4320  0.2097
 4914SOL    HW221348  10.145   3.391   0.615  0.5250  1.2658 -0.1576
 4915SOL     OW21349   6.679   1.818  11.427  1.0099 -0.2722 -0.1245
 4915SOL    HW121350   6.708   1.737  11.469  2.2232  0.5407  0.6571
 4915SOL    HW221351   6.616   1.855  11.489  0.0762 -0.8502 -0.7140
 4916SOL     OW21352  10.957   0.069   9.215 -0.5678  0.7151 -0.4454
 4916SOL    HW121353  10.898  -0.006   9.206 -2.1172  1.5478  1.7298
 4916SOL    HW221354  11.018   0.061   9.142 -0.3890 -2.8812 -0.0731
 4917SOL     OW21355  12.346   0.840   6.852  0.6631 -0.0893 -0.0040
 4917SOL    HW121356  12.315   0.755   6.883 -2.0520  0.3933 -1.1298
 4917SOL    HW221357  12.276   0.901   6.875  1.6638  1.4840 -0.9669
 4918SOL     OW21358   4.414   3.021  11.539 -0.3411 -0.1689  0.0755
 4918SOL    HW121359   4.507   3.043  11.540 -0.6177  1.0053  0.9876
 4918SOL    HW221360   4.376   3.078  11.472 -0.3907 -0.7666 -0.4166
 4919SOL     OW21361   5.177   9.348   0.038 -0.1911  0.1577  0.2212
 4919SOL    HW121362   5.145   9.274   0.090 -0.4197 -0.0395 -0.1975
 4919SOL    HW221363   5.103   9.407   0.032 -0.4328 -0.2206 -0.6050
 4920SOL     OW21364   7.937   4.815   2.086 -0.7166  0.1079 -0.5109
 4920SOL    HW121365   7.893   4.844   2.166 -0.1593 -2.0042  0.6261
 4920SOL    HW221366   7.869   4.766   2.039 -0.9563  1.0934 -1.2293
 4921SOL     OW21367   6.799   3.786  10.262  0.3501 -0.3746  0.6221
 4921SOL    HW121368   6.871   3.842  10.232  1.3502 -1.4263  0.9579
 4921SOL    HW221369   6.720   3.835  10.240  1.1506  0.6775 -0.0610
 4922SOL     OW21370   6.032   8.553   2.797  0.4470  0.2196  0.0117
 4922SOL    HW121371   5.955   8.584   2.749 -0.2723  0.8387  1.4910
 4922SOL    HW221372   6.042   8.462   2.769  0.7073  0.8279 -2.0540
 4923SOL     OW21373   3.590   5.978   4.612  0.6617 -0.0819 -0.2134
 4923SOL    HW121374   3.664   5.917   4.604 -0.4940 -1.4285 -1.2708
 4923SOL    HW221375   3.577   5.988   4.706  0.4961 -2.0393  0.0183
 4924SOL     OW21376   1.879  11.492   6.435  0.0082  0.0447 -0.2812
 4924SOL    HW121377   1.967  11.459   6.415 -0.7745 -1.7740 -0.9617
 4924SOL    HW221378   1.855  11.449   6.517 -1.6042 -2.4368 -1.9171
 4925SOL     OW21379  11.416   3.567   5.372  0.3429 -0.7183 -0.4022
 4925SOL    HW121380  11.322   3.580   5.386  0.3282  0.1049 -1.1548
 4925SOL    HW221381  11.458   3.627   5.434  0.3842 -1.3081  0.1473
 4926SOL     OW21382   8.439   2.565  12.649 -0.6050 -0.0872  0.2648
 4926SOL    HW121383   8.513   2.626  12.658 -0.0982 -0.8201  1.1807
 4926SOL    HW221384   8.420   2.537  12.738 -2.1683  0.2649  0.0654
 4927SOL     OW21385   5.367   7.215   0.175 -0.4533  0.0631 -0.3848
 4927SOL    HW121386   5.394   7.261   0.254 -1.4763 -0.6849  0.4242
 4927SOL    HW221387   5.447   7.209   0.122  0.5254 -0.4376  1.0896
 4928SOL     OW21388   7.379  10.895   0.642 -0.4570  0.2288  0.4041
 4928SOL    HW121389   7.380  10.843   0.723 -0.2966 -2.4796 -1.2028
 4928SOL    HW221390   7.337  10.838   0.578  0.6734  1.7091 -1.7666
 4929SOL     OW21391   9.416   9.868   8.724  0.0453  0.1708  0.3665
 4929SOL    HW121392   9.385   9.956   8.706 -2.1662 -0.5531  0.3338
 4929SOL    HW221393   9.391   9.817   8.647 -1.3439 -1.0600  1.5526
 4930SOL     OW21394   5.327  12.552  12.221 -0.0674 -0.2480 -0.2506
 4930SOL    HW121395   5.377  12.612  12.277  0.8252 -1.2855  0.0862
 4930SOL    HW221396   5.374  12.469  12.226 -1.5795 -1.1425 -0.2784
 4931SOL     OW21397   6.659   5.302   2.430 -0.3768  0.4057 -0.4099
 4931SOL    HW121398   6.701   5.225   2.468 -1.2937  0.3610  0.5676
 4931SOL    HW221399   6.566   5.284   2.435 -0.6321  1.7789  0.3197
 4932SOL     OW21400   2.122   3.165  10.724 -0.2909 -0.0358 -0.7141
 4932SOL    HW121401   2.091   3.116  10.648  0.9278 -0.0443 -1.2324
 4932SOL    HW221402   2.215   3.180  10.706 -0.0854  0.3338  0.5816
 4933SOL     OW21403   0.636   3.935   5.321  0.0854  0.2944 -0.4261
 4933SOL    HW121404   0.547   3.961   5.297 -0.2126  1.9022  1.9864
 4933SOL    HW221405   0.693   3.999   5.278 -0.0503  0.2111 -0.7272
 4934SOL     OW21406   0.133   8.166   5.280 -0.0109 -0.0118 -0.1743
 4934SOL    HW121407   0.220   8.138   5.309 -0.9202 -1.1355  1.6863
 4934SOL    HW221408   0.146   8.254   5.246  1.5464  0.6420  1.9265
 4935SOL     OW21409  11.275   9.752   8.421 -0.2301 -0.5882 -0.6988
 4935SOL    HW121410  11.219   9.813   8.373  0.6149  1.5541  0.8714
 4935SOL    HW221411  11.327   9.710   8.353  0.1349  1.4948 -1.8093
 4936SOL     OW21412   2.509   7.201   5.835  0.1936  0.2875 -0.3846
 4936SOL    HW121413   2.588   7.167   5.794 -0.1650 -0.2257 -0.6607
 4936SOL    HW221414   2.492   7.141   5.908  0.2174  0.5642 -0.1469
 4937SOL     OW21415   1.062   8.108   9.794  0.7316  0.9891 -0.5003
 4937SOL    HW121416   1.110   8.089   9.713  0.9242 -2.2417  0.2292
 4937SOL    HW221417   0.972   8.083   9.774  0.7284  0.4293  0.1903
 4938SOL     OW21418   5.101   8.724   4.703  0.4325  0.3825 -0.2962
 4938SOL    HW121419   5.187   8.699   4.735  1.1849  2.4175 -0.5355
 4938SOL    HW221420   5.049   8.738   4.783  0.1366 -1.3321 -0.1596
 4939SOL     OW21421   1.145   6.235   3.119 -0.2023 -0.0875  0.1131
 4939SOL    HW121422   1.086   6.180   3.171 -0.3747  0.2123  0.2387
 4939SOL    HW221423   1.215   6.177   3.091 -0.9611 -0.6420 -0.6852
 4940SOL     OW21424  10.813   9.814   6.061  0.0386  0.0583 -0.2548
 4940SOL    HW121425  10.784   9.792   6.149  2.4593  2.1584  1.2104
 4940SOL    HW221426  10.771   9.898   6.042  1.6010  0.9645  0.1066
 4941SOL     OW21427   2.046   9.973   6.024 -0.6678  0.1891  0.1906
 4941SOL    HW121428   2.107   9.950   6.094  0.1357  0.6747 -0.3357
 4941SOL    HW221429   1.968   9.919   6.042 -0.4786  0.2943  1.4308
 4942SOL     OW21430   5.433   1.252   2.456 -0.0607 -0.4076 -0.3449
 4942SOL    HW121431   5.485   1.171   2.459  0.8608  0.1861  0.3483
 4942SOL    HW221432   5.374   1.246   2.531  0.6961 -0.0023  0.2938
 4943SOL     OW21433   6.273   2.143  11.643  0.1703 -0.0444  0.1625
 4943SOL    HW121434   6.303   2.057  11.613 -0.6186 -0.8346  1.5286
 4943SOL    HW221435   6.178   2.141  11.628  0.0276  0.2482  0.9742
 4944SOL     OW21436   8.034  12.003   2.762  0.3685 -0.3644 -0.3013
 4944SOL    HW121437   7.974  12.074   2.783 -1.9283 -1.3086 -2.9334
 4944SOL    HW221438   8.106  12.045   2.714 -1.8603  0.2314 -3.4818
 4945SOL     OW21439   6.349   4.448   0.267  0.2996  0.0277 -0.7554
 4945SOL    HW121440   6.266   4.417   0.304  0.8645  1.1829  1.6744
 4945SOL    HW221441   6.400   4.368   0.254  0.7390 -0.4597  2.8679
 4946SOL     OW21442   1.821   9.951   1.452  0.2483  0.0578 -0.2490
 4946SOL    HW121443   1.797  10.021   1.513 -1.9493 -0.2681 -0.6521
 4946SOL    HW221444   1.879   9.894   1.503  0.7643  1.2905  0.5967
 4947SOL     OW21445   6.460  12.184   2.329 -0.0807  0.1634 -0.1984
 4947SOL    HW121446   6.549  12.177   2.365  0.2040 -0.7265 -1.0427
 4947SOL    HW221447   6.433  12.094   2.313 -0.9968  0.4484 -0.3239
 4948SOL     OW21448   5.552  10.966  11.895 -0.6246 -0.0164 -0.2923
 4948SOL    HW121449   5.628  10.935  11.847  0.2382  0.8932  0.4645
 4948SOL    HW221450   5.569  10.941  11.986 -1.2382  0.1854 -0.1162
 4949SOL     OW21451   6.176  12.081   4.986  0.3532  0.1409 -0.3466
 4949SOL    HW121452   6.089  12.047   4.967  0.6991 -1.0027  0.0160
 4949SOL    HW221453   6.198  12.045   5.072  1.8162 -0.9394 -1.1295
 4950SOL     OW21454   8.134   2.231   0.445 -0.4336 -0.0941  0.1463
 4950SOL    HW121455   8.101   2.262   0.530  0.5628 -0.8885  0.8399
 4950SOL    HW221456   8.225   2.261   0.442  0.0442 -1.4763  0.1059
 4951SOL     OW21457   7.923   8.809  12.232 -0.1041  0.0514  0.3269
 4951SOL    HW121458   7.965   8.724  12.218  0.9643  0.5539  0.4349
 4951SOL    HW221459   7.850   8.790  12.292 -0.3614 -0.9071 -0.2663
 4952SOL     OW21460   2.946   7.230   1.501 -0.0050 -0.0636 -0.2253
 4952SOL    HW121461   2.998   7.307   1.475 -1.3570  1.0623  0.2747
 4952SOL    HW221462   2.858   7.265   1.514 -0.6949 -1.7627 -0.1743
 4953SOL     OW21463   5.310  10.534   2.557  0.0659  0.6083  0.3045
 4953SOL    HW121464   5.385  10.474   2.554 -0.8244 -0.6055  1.1797
 4953SOL    HW221465   5.285  10.545   2.465 -0.5150 -1.4339  0.1537
 4954SOL     OW21466   7.653   5.583   3.660  0.0197 -0.0610  0.4778
 4954SOL    HW121467   7.580   5.584   3.721 -0.6796  0.1386 -0.3470
 4954SOL    HW221468   7.666   5.675   3.636 -1.6263 -0.3669 -1.8851
 4955SOL     OW21469   8.770   7.167   9.487  0.4486 -0.5705  0.1364
 4955SOL    HW121470   8.722   7.140   9.565  1.3302  0.7385  1.1729
 4955SOL    HW221471   8.829   7.095   9.468 -0.8627 -1.5735 -0.2896
 4956SOL     OW21472   1.832  10.468  12.733  0.2620 -0.1948  0.2202
 4956SOL    HW121473   1.791  10.399  12.681  0.3862  0.2622 -0.4894
 4956SOL    HW221474   1.758  10.508  12.780  0.2404 -1.0627  0.9565
 4957SOL     OW21475   1.763   4.194  12.391  0.3681  0.1749  0.3470
 4957SOL    HW121476   1.820   4.119  12.374  0.7216  0.5345 -0.0899
 4957SOL    HW221477   1.750   4.194  12.486 -2.8965 -2.8368  0.1318
 4958SOL     OW21478  12.356   2.430   7.783  0.3360 -0.8031 -0.1593
 4958SOL    HW121479  12.267   2.463   7.795  0.9709  0.6734  0.7998
 4958SOL    HW221480  12.394   2.488   7.716  0.9155 -0.7162  0.2411
 4959SOL     OW21481   3.998   9.551  11.980 -0.4845  0.1304  0.5704
 4959SOL    HW121482   4.067   9.487  11.958  0.5852  1.3800  0.1791
 4959SOL    HW221483   4.045   9.633  11.993 -1.9976  1.2216 -0.5867
 4960SOL     OW21484   7.749   7.063  10.596  0.6306 -0.0628  0.5315
 4960SOL    HW121485   7.692   7.038  10.668 -2.1054  1.5415 -0.9129
 4960SOL    HW221486   7.733   6.997  10.529 -0.4441  0.9478 -0.2633
 4961SOL     OW21487   0.078   7.355   7.760 -0.3530 -0.3362 -0.1112
 4961SOL    HW121488   0.054   7.267   7.789  0.1860 -0.4859 -0.0935
 4961SOL    HW221489   0.059   7.412   7.835  0.3133 -0.6054  0.2754
 4962SOL     OW21490   3.596   1.230   0.230 -0.3209  0.2563 -0.2835
 4962SOL    HW121491   3.548   1.171   0.287 -0.0353 -1.4167 -1.6897
 4962SOL    HW221492   3.666   1.176   0.193  0.3602  1.6457 -1.1269
 4963SOL     OW21493  11.157   1.729   9.246 -0.5299 -0.0459 -0.0064
 4963SOL    HW121494  11.200   1.798   9.195  1.6909 -1.5568 -0.3490
 4963SOL    HW221495  11.105   1.681   9.183 -1.8615  1.0997  0.1805
 4964SOL     OW21496   6.824   6.896   1.371  0.5465  0.0790  0.5757
 4964SOL    HW121497   6.915   6.887   1.400  0.4840 -0.1159  0.7168
 4964SOL    HW221498   6.813   6.990   1.354  0.8774  0.0509  0.2070
 4965SOL     OW21499   4.496   3.310   9.112 -0.3389 -0.7881  0.1022
 4965SOL    HW121500   4.401   3.294   9.107 -0.5158  0.1207  0.2678
 4965SOL    HW221501   4.513   3.369   9.038 -0.1444  0.1202  0.8628
 4966SOL     OW21502   6.340   4.886   2.756 -0.7370  0.5313 -0.0866
 4966SOL    HW121503   6.409   4.889   2.690 -2.1939  1.6765 -1.6699
 4966SOL    HW221504   6.294   4.970   2.747 -2.5402 -0.3032  0.6578
 4967SOL     OW21505   6.145   3.054  11.558 -0.1343  0.3598  0.3136
 4967SOL    HW121506   6.148   2.984  11.623  4.3986  0.0261  0.0858
 4967SOL    HW221507   6.137   3.009  11.474  0.3632  0.2418  0.3218
 4968SOL     OW21508  12.021   0.924  12.204  0.3418 -0.4721 -0.1853
 4968SOL    HW121509  11.948   0.870  12.173  0.5695 -0.3634 -0.9429
 4968SOL    HW221510  12.087   0.915  12.136  0.0648  1.4349 -0.7663
 4969SOL     OW21511   8.812   7.721  12.619  0.0952  0.6487  0.4002
 4969SOL    HW121512   8.766   7.642  12.591 -0.3822  0.7245  0.9469
 4969SOL    HW221513   8.903   7.706  12.594 -0.3041  0.7567 -1.2592
 4970SOL     OW21514   0.002   0.757   2.036  0.5651 -0.0672  0.1662
 4970SOL    HW121515   0.009   0.691   2.105 -1.1056  1.0815  1.5096
 4970SOL    HW221516   0.075   0.818   2.053 -0.0376  0.3944  1.1502
 4971SOL     OW21517   0.400   8.052   4.601 -0.6252 -0.0046 -0.0180
 4971SOL    HW121518   0.392   7.960   4.625 -1.0770 -0.4997 -1.8643
 4971SOL    HW221519   0.405   8.051   4.505 -0.5028  1.8877 -0.0707
 4972SOL     OW21520   7.453   4.958   1.219 -0.4796 -0.0086 -0.3945
 4972SOL    HW121521   7.441   5.050   1.244  0.4496 -0.2906  1.2102
 4972SOL    HW221522   7.535   4.958   1.168 -0.5179  0.0522 -0.4578
 4973SOL     OW21523  12.438   1.902   9.497 -0.0900 -0.1306 -0.1185
 4973SOL    HW121524  12.462   1.963   9.427  0.3188 -1.1115 -0.8580
 4973SOL    HW221525  12.356   1.938   9.533  0.3340  1.0506 -0.2647
 4974SOL     OW21526   6.825  10.689   2.019  0.8789 -0.0118  0.2243
 4974SOL    HW121527   6.762  10.666   1.951 -0.1689  1.1153  0.7691
 4974SOL    HW221528   6.894  10.737   1.972  1.0481 -0.7559 -0.2913
 4975SOL     OW21529   9.275   0.844   2.220 -0.1055  0.4140 -0.0663
 4975SOL    HW121530   9.290   0.768   2.277 -3.0273  0.9593  1.6804
 4975SOL    HW221531   9.330   0.913   2.257 -1.6806  0.6555  2.0447
 4976SOL     OW21532  12.665   2.232   4.592 -0.3321  0.0816 -0.6222
 4976SOL    HW121533  12.601   2.170   4.557 -0.3948 -0.7334  0.8705
 4976SOL    HW221534  12.746   2.212   4.545 -1.0772  0.9876 -2.3837
 4977SOL     OW21535   1.268   2.226   9.934 -0.0743 -0.2665 -0.0599
 4977SOL    HW121536   1.190   2.231   9.879  0.5883  2.1394 -0.9278
 4977SOL    HW221537   1.338   2.201   9.873 -0.1469 -2.6234  0.7494
 4978SOL     OW21538   0.935   5.792   4.189 -0.0168  0.7486  0.0099
 4978SOL    HW121539   0.859   5.781   4.131  2.1147 -1.4439 -2.6357
 4978SOL    HW221540   0.963   5.882   4.175 -0.9594  0.9839 -0.4806
 4979SOL     OW21541   5.535  10.083   4.174 -0.2817 -0.1546  0.3701
 4979SOL    HW121542   5.537  10.161   4.228  0.8489 -0.9132  1.4751
 4979SOL    HW221543   5.627  10.065   4.153 -0.6291 -0.3221 -1.1750
 4980SOL     OW21544  12.629   9.310   4.444  0.0438 -0.7503  0.2891
 4980SOL    HW121545  12.589   9.385   4.399 -0.0879 -0.8238  0.2845
 4980SOL    HW221546  12.673   9.261   4.375  1.2759  0.0434  0.4659
 4981SOL     OW21547  10.281   0.299  10.537 -0.6084  0.3210  0.3587
 4981SOL    HW121548  10.303   0.335  10.623  0.7852  2.0496 -0.6527
 4981SOL    HW221549  10.186   0.292  10.538 -0.6350  0.5271  1.9537
 4982SOL     OW21550   1.969   9.738   5.613  0.0119 -0.0043  0.0538
 4982SOL    HW121551   1.963   9.652   5.654  0.7158  1.1017  2.7062
 4982SOL    HW221552   2.043   9.780   5.656 -0.5459  2.0516 -0.8742
 4983SOL     OW21553  12.694  12.626  11.109  0.4739  0.1794 -0.3368
 4983SOL    HW121554  12.700  12.697  11.173  0.2061 -0.3803  0.3184
 4983SOL    HW221555  12.769  12.639  11.051  1.7265 -0.3084  1.1211
 4984SOL     OW21556   7.679   8.918   8.029  0.1297 -0.8588 -0.3590
 4984SOL    HW121557   7.712   8.828   8.035  2.6377 -0.0150 -0.3808
 4984SOL    HW221558   7.757   8.972   8.020 -1.2164  1.4940  1.0637
 4985SOL     OW21559  12.607   0.293   6.563 -0.3710 -0.1233 -0.4113
 4985SOL    HW121560  12.699   0.303   6.588 -0.2587 -0.7085 -0.5844
 4985SOL    HW221561  12.608   0.292   6.468 -0.2787 -2.4607 -0.4367
 4986SOL     OW21562  12.682   3.907   5.115 -0.0414 -0.8122  0.4230
 4986SOL    HW121563  12.771   3.878   5.135  0.1637  0.0349  0.7945
 4986SOL    HW221564  12.680   3.999   5.143 -0.8349 -0.6303 -0.1867
 4987SOL     OW21565   8.781   9.659  10.468  0.2148  0.3849 -0.2729
 4987SOL    HW121566   8.860   9.663  10.414  0.2381 -0.1325 -0.2855
 4987SOL    HW221567   8.716   9.617  10.412 -0.2948  1.4907 -0.5243
 4988SOL     OW21568   0.504   2.756   7.650  0.3081  0.0519 -0.0481
 4988SOL    HW121569   0.598   2.743   7.636  0.4526  1.3789 -0.4662
 4988SOL    HW221570   0.464   2.673   7.623  1.1764  0.2354 -2.1581
 4989SOL     OW21571  11.285  10.785   4.845 -0.5210  0.3177 -0.4647
 4989SOL    HW121572  11.207  10.784   4.901  1.0558 -1.1913  1.8481
 4989SOL    HW221573  11.250  10.773   4.756 -2.9218 -0.4127  0.4895
 4990SOL     OW21574   6.120   0.655  11.556 -0.0350  0.0651  0.8975
 4990SOL    HW121575   6.136   0.643  11.463  0.2873  1.3893  0.7608
 4990SOL    HW221576   6.042   0.602  11.574 -2.2047  2.3717 -0.8985
 4991SOL     OW21577   5.256   3.020   7.613  0.9455 -0.5339 -0.1077
 4991SOL    HW121578   5.277   2.930   7.588  1.6571 -0.3539 -0.1675
 4991SOL    HW221579   5.201   3.052   7.541  0.5014 -0.9857  0.0206
 4992SOL     OW21580   0.002  11.442   9.103  0.5156 -0.2025 -0.2632
 4992SOL    HW121581  -0.014  11.427   9.197  0.0120 -1.4579 -0.5263
 4992SOL    HW221582  -0.068  11.394   9.059  0.0542  1.3148 -1.2816
 4993SOL     OW21583  11.459   2.731   3.327 -0.4670  0.4005 -1.3482
 4993SOL    HW121584  11.476   2.824   3.313 -0.9519  0.9181  0.9928
 4993SOL    HW221585  11.365   2.721   3.311 -1.2228  1.1862  1.8124
 4994SOL     OW21586   1.193   7.811   5.068 -0.9015  0.7184 -0.3465
 4994SOL    HW121587   1.250   7.865   5.123  0.7853 -0.3306 -0.9821
 4994SOL    HW221588   1.199   7.850   4.981 -2.3310  1.4471 -0.1485
 4995SOL     OW21589   9.358   4.732   1.135  0.1295  0.7076  0.1173
 4995SOL    HW121590   9.290   4.788   1.099 -0.9702  0.2460  1.3889
 4995SOL    HW221591   9.317   4.688   1.210  2.4574  2.2700  2.5202
 4996SOL     OW21592   3.841   7.156   9.285 -0.3456  0.2960 -0.5082
 4996SOL    HW121593   3.925   7.191   9.315 -0.7564  0.1056  0.9553
 4996SOL    HW221594   3.845   7.162   9.190  1.9217 -1.0998 -0.5674
 4997SOL     OW21595   9.827   2.043  11.601 -0.0789  0.2192  0.0403
 4997SOL    HW121596   9.788   2.107  11.541  0.4389  0.4342 -0.0648
 4997SOL    HW221597   9.870   1.980  11.544 -1.0081 -0.5197  0.1191
 4998SOL     OW21598   6.590   2.584   5.335 -0.3964 -0.4751  0.2036
 4998SOL    HW121599   6.674   2.550   5.366 -0.1184  0.1392  0.1417
 4998SOL    HW221600   6.596   2.581   5.240  0.5206  1.7739  0.1240
 4999SOL     OW21601  12.480   1.700  10.042  0.1520 -0.1498  0.2332
 4999SOL    HW121602  12.559   1.653  10.016 -0.5385 -0.2944 -1.7226
 4999SOL    HW221603  12.418   1.631  10.064 -0.1820 -0.1228 -0.5845
 5000SOL     OW21604  10.062   4.837   8.220 -0.2291  0.1100  0.2231
 5000SOL    HW121605  10.154   4.814   8.212 -0.5487 -0.7287 -1.7102
 5000SOL    HW221606  10.015   4.754   8.212 -1.1718  0.5910  0.6077
 5001SOL     OW21607   8.507   2.994   7.967 -0.7419  0.1526 -0.0786
 5001SOL    HW121608   8.521   3.028   8.056  1.9588  2.3616 -1.1626
 5001SOL    HW221609   8.472   3.069   7.918 -1.0333 -0.6490 -1.1245
 5002SOL     OW21610   0.902   1.961   4.267 -0.0877 -0.3665 -0.1047
 5002SOL    HW121611   0.828   1.940   4.324 -0.6943 -3.0648 -1.7458
 5002SOL    HW221612   0.867   2.028   4.207 -0.6174 -0.3096  0.2572
 5003SOL     OW21613  10.376   4.973   9.244 -0.0559  0.4543  0.1725
 5003SOL    HW121614  10.396   5.011   9.330  0.1439  0.4279  0.1390
 5003SOL    HW221615  10.390   5.045   9.183  1.0632  0.1420  0.0252
 5004SOL     OW21616   3.096   9.876   1.713 -0.1204  0.5905  0.0548
 5004SOL    HW121617   3.102   9.971   1.709  0.5446  0.5107 -2.2171
 5004SOL    HW221618   3.176   9.845   1.671 -0.8606 -0.9541 -0.2927
 5005SOL     OW21619   9.815   5.970  12.216 -0.0620 -0.2262  0.5664
 5005SOL    HW121620   9.737   6.006  12.258  1.5119  2.1307  1.6725
 5005SOL    HW221621   9.846   6.039  12.158  0.7782 -1.4377 -0.4981
 5006SOL     OW21622   8.134   8.648   9.249  0.1510 -0.2943  0.0795
 5006SOL    HW121623   8.093   8.725   9.210 -0.0473 -1.0827 -1.3277
 5006SOL    HW221624   8.070   8.578   9.236  0.5949 -0.8488  0.7767
 5007SOL     OW21625   7.032   4.174   6.692 -0.1535  0.7469 -0.1044
 5007SOL    HW121626   7.006   4.083   6.681 -0.4009  0.7298  0.5530
 5007SOL    HW221627   6.949   4.222   6.696 -0.0640  0.8531  0.7030
 5008SOL     OW21628  12.353   9.214  11.733 -0.4460  0.5652  0.3377
 5008SOL    HW121629  12.409   9.139  11.716 -2.9541 -1.7427  1.5063
 5008SOL    HW221630  12.302   9.225  11.652  0.6574  1.7900 -0.2302
 5009SOL     OW21631   6.504  12.764   8.667  0.4046 -0.5199 -0.1826
 5009SOL    HW121632   6.427  12.712   8.688  0.7696 -1.0783 -0.2135
 5009SOL    HW221633   6.502  12.837   8.729 -0.0177 -0.6625 -0.0277
 5010SOL     OW21634  11.576   4.782  12.471 -0.3868  0.1679  0.1788
 5010SOL    HW121635  11.504   4.842  12.488 -0.4713  0.6862 -1.7893
 5010SOL    HW221636  11.549   4.700  12.511 -1.5130  0.7031  0.5436
 5011SOL     OW21637   9.911  10.968   0.773 -0.2252 -0.1478 -0.0488
 5011SOL    HW121638   9.855  10.895   0.748 -1.4694  1.6451 -2.8695
 5011SOL    HW221639   9.996  10.947   0.734 -0.0902 -0.7973  0.5527
 5012SOL     OW21640   3.646   8.643   3.058 -0.6834 -0.1097  0.5955
 5012SOL    HW121641   3.616   8.600   3.138 -1.4729 -2.4275 -0.8443
 5012SOL    HW221642   3.567   8.651   3.004 -0.0657  0.9146 -0.1939
 5013SOL     OW21643   3.860   2.955   9.342  0.4222 -0.5223 -0.8184
 5013SOL    HW121644   3.895   3.025   9.287 -0.4641  0.9652  0.4180
 5013SOL    HW221645   3.936   2.922   9.390  0.8157 -0.2260 -1.2311
 5014SOL     OW21646  11.347   3.078  12.222  0.1732  0.1781 -0.3150
 5014SOL    HW121647  11.440   3.074  12.201  0.5975 -1.3146  1.5510
 5014SOL    HW221648  11.308   3.005  12.175  0.2611 -0.2026  0.1913
 5015SOL     OW21649  12.564   9.263   2.353  0.1896  0.5201 -0.3719
 5015SOL    HW121650  12.649   9.225   2.330  0.3931  0.8756 -0.2119
 5015SOL    HW221651  12.568   9.353   2.319  0.2902  0.8844  0.5911
 5016SOL     OW21652   4.202   4.402  10.361  0.5137  0.3145  0.0197
 5016SOL    HW121653   4.194   4.453  10.280  0.9912  0.2770 -0.0533
 5016SOL    HW221654   4.277   4.345  10.346  0.1781 -0.1899  0.2246
 5017SOL     OW21655   0.888   5.175   2.145  0.4471 -0.2343 -0.1269
 5017SOL    HW121656   0.880   5.220   2.061  1.6171 -2.5231 -1.5710
 5017SOL    HW221657   0.808   5.197   2.192  0.3765  2.2030 -1.2402
 5018SOL     OW21658   5.820   9.884   5.661 -0.3832 -0.3986  0.0113
 5018SOL    HW121659   5.746   9.825   5.677 -0.5608 -0.4501 -0.9506
 5018SOL    HW221660   5.842   9.871   5.569 -0.1789  0.7496 -0.1224
 5019SOL     OW21661  11.878  12.046   9.326 -0.0542  0.2801 -0.6349
 5019SOL    HW121662  11.891  12.033   9.232  0.2146 -0.7750 -0.4585
 5019SOL    HW221663  11.876  11.958   9.363  0.7522  0.7071  0.4774
 5020SOL     OW21664   2.220  12.723  11.427  0.3248  0.1793  0.4112
 5020SOL    HW121665   2.170  12.732  11.346  0.3497 -0.6462  0.2930
 5020SOL    HW221666   2.155  12.700  11.493  0.5219 -0.8069  0.2754
 5021SOL     OW21667   7.803   4.576   4.877 -0.2322  0.4144 -0.6253
 5021SOL    HW121668   7.736   4.567   4.808 -0.7578 -2.0533  0.1094
 5021SOL    HW221669   7.763   4.536   4.954  1.5737  0.1714  0.2288
 5022SOL     OW21670   3.142  12.744   9.064  0.0133  0.0603  0.4970
 5022SOL    HW121671   3.159  12.828   9.021 -2.9516  0.7566  0.4946
 5022SOL    HW221672   3.115  12.686   8.994 -0.8794  0.0088  0.8726
 5023SOL     OW21673   9.507   1.309   0.344  0.1330 -0.6911  0.4103
 5023SOL    HW121674   9.456   1.383   0.377 -0.8629 -1.5281  0.8180
 5023SOL    HW221675   9.468   1.291   0.258  0.7594 -0.3742  0.0602
 5024SOL     OW21676   8.034   6.504  11.127  0.2982 -0.0530  0.2578
 5024SOL    HW121677   8.085   6.486  11.048 -1.9312 -1.3816 -0.9809
 5024SOL    HW221678   8.048   6.428  11.183 -0.3328 -0.4726 -0.1320
 5025SOL     OW21679   0.661   7.153   2.191  0.3506 -0.4704  0.3425
 5025SOL    HW121680   0.569   7.151   2.164  0.5191 -1.4424 -0.1982
 5025SOL    HW221681   0.707   7.103   2.124  1.1193 -0.9127  1.1766
 5026SOL     OW21682   5.753  12.039  11.530 -0.2761  0.1886 -0.0895
 5026SOL    HW121683   5.726  12.045  11.622  0.1957  1.1582 -0.0049
 5026SOL    HW221684   5.815  11.966  11.529  1.7607  1.7941  0.9101
 5027SOL     OW21685   6.337   4.471   2.175 -0.3598 -0.0257 -0.0853
 5027SOL    HW121686   6.394   4.546   2.160  2.5197 -1.9452  0.2233
 5027SOL    HW221687   6.292   4.458   2.092 -1.0302  2.0659 -0.0959
 5028SOL     OW21688   1.961  10.570   1.143 -0.1503 -0.2752 -0.3266
 5028SOL    HW121689   1.957  10.616   1.059 -0.0945  0.9055  0.2969
 5028SOL    HW221690   1.872  10.573   1.176  0.4027  2.2684  1.1794
 5029SOL     OW21691   7.784   3.331  11.628  0.3107 -0.2397 -0.6548
 5029SOL    HW121692   7.710   3.274  11.645  1.4739 -1.7580 -0.4211
 5029SOL    HW221693   7.772   3.361  11.538  0.0517 -1.4940 -1.0554
 5030SOL     OW21694   2.081  12.722   1.428  0.4155  0.3411  0.0002
 5030SOL    HW121695   2.098  12.741   1.520 -1.6988 -0.6709  0.6504
 5030SOL    HW221696   2.114  12.799   1.382  0.0993  1.5847  1.7349
 5031SOL     OW21697   7.278   6.469   4.336  0.3035 -0.9316 -0.2657
 5031SOL    HW121698   7.313   6.539   4.390 -0.7025 -0.5226 -0.1339
 5031SOL    HW221699   7.215   6.424   4.392 -0.6029 -0.6312 -1.0228
 5032SOL     OW21700   3.711   6.060   8.548 -0.2630  0.5079  0.3221
 5032SOL    HW121701   3.630   6.106   8.571  0.3931  1.1435  1.4775
 5032SOL    HW221702   3.693   5.968   8.569 -0.6677  0.6542  0.6300
 5033SOL     OW21703   1.140   3.157  11.347  0.2332  0.1098 -0.4905
 5033SOL    HW121704   1.047   3.163  11.366  0.4163  0.5023  0.3032
 5033SOL    HW221705   1.156   3.063  11.337 -0.3625  0.0832 -1.2726
 5034SOL     OW21706  11.551   0.542   0.928 -0.1386  0.1498  0.2636
 5034SOL    HW121707  11.536   0.527   1.021 -0.7054  0.1545  0.1819
 5034SOL    HW221708  11.631   0.594   0.924  2.0167 -2.9194  0.5547
 5035SOL     OW21709   2.143   1.534   8.431  0.0242 -0.0044  0.0900
 5035SOL    HW121710   2.126   1.451   8.475  0.2885 -0.6537 -1.0187
 5035SOL    HW221711   2.201   1.512   8.358  0.1548  1.1610 -0.1810
 5036SOL     OW21712   1.438   0.931   1.191  0.1493 -0.0022 -0.3095
 5036SOL    HW121713   1.376   0.860   1.202  1.9986 -1.5186  0.9171
 5036SOL    HW221714   1.385   1.011   1.196 -1.5957 -1.1987  1.2758
 5037SOL     OW21715   2.069   3.772  11.350 -0.0579 -0.4200 -0.3866
 5037SOL    HW121716   2.026   3.851  11.318  1.0623  0.8203  0.9902
 5037SOL    HW221717   2.012   3.739  11.420 -1.4951 -1.9977 -2.1859
 5038SOL     OW21718   7.601   2.748  11.662 -0.0564  0.4625 -0.1567
 5038SOL    HW121719   7.649   2.685  11.608  1.0429  1.7450 -0.7548
 5038SOL    HW221720   7.636   2.833  11.636 -1.3318  1.3188  0.7800
 5039SOL     OW21721  12.258   6.954   3.592  0.1188 -0.0936 -0.0740
 5039SOL    HW121722  12.250   7.049   3.588  0.1305 -0.1151 -0.7929
 5039SOL    HW221723  12.294   6.929   3.507 -0.0099 -0.7542  0.0561
 5040SOL     OW21724   0.186   1.502  10.852  1.0415 -0.2883  0.2868
 5040SOL    HW121725   0.239   1.472  10.777  0.0994 -2.1624  0.3068
 5040SOL    HW221726   0.242   1.487  10.928  1.8205  1.1741  0.0440
 5041SOL     OW21727   9.115  11.856   8.655 -0.2276 -0.1020  0.2678
 5041SOL    HW121728   9.137  11.779   8.708 -2.7739 -1.7538 -0.8610
 5041SOL    HW221729   9.152  11.836   8.568  2.6918  1.9389  0.8996
 5042SOL     OW21730   3.123   3.922  10.502 -0.0335 -0.6426  0.0885
 5042SOL    HW121731   3.217   3.939  10.495 -0.2625  0.7107  0.0048
 5042SOL    HW221732   3.105   3.858  10.433  0.8297 -0.9582  0.1446
 5043SOL     OW21733   4.862   6.396   8.496  0.4096  0.7525 -0.1179
 5043SOL    HW121734   4.810   6.474   8.517 -0.8321  0.1797 -0.9472
 5043SOL    HW221735   4.810   6.323   8.530  1.4293  0.2506  0.4151
 5044SOL     OW21736   0.879   3.367   5.355 -0.2744 -0.0278  0.0557
 5044SOL    HW121737   0.785   3.358   5.370 -0.2231 -0.8817 -0.0683
 5044SOL    HW221738   0.908   3.431   5.420 -0.7684 -0.4981  0.7469
 5045SOL     OW21739   4.137   3.143   6.697 -0.3071 -0.1787 -0.2271
 5045SOL    HW121740   4.200   3.202   6.738 -0.4722 -0.4352  0.4225
 5045SOL    HW221741   4.052   3.183   6.713 -0.6650 -1.6715  2.3066
 5046SOL     OW21742   9.702   9.432   7.419  0.4097  0.1203 -0.2766
 5046SOL    HW121743   9.642   9.495   7.380 -0.0926  0.1961  0.5921
 5046SOL    HW221744   9.648   9.355   7.437  0.5977  0.1325  0.3740
 5047SOL     OW21745   1.871   3.757   9.000  0.4556  0.3075  0.2656
 5047SOL    HW121746   1.855   3.713   8.917  0.7492 -0.4452  0.5940
 5047SOL    HW221747   1.902   3.688   9.058  0.5052  0.8717  0.9281
 5048SOL     OW21748   3.390   1.647   2.873 -0.4052  0.2224 -0.0770
 5048SOL    HW121749   3.356   1.675   2.788  0.1510  2.1313  0.2873
 5048SOL    HW221750   3.421   1.558   2.859  0.2636  0.7259 -2.0526
 5049SOL     OW21751  11.236   7.868   8.938  0.0867  0.1147  0.2969
 5049SOL    HW121752  11.230   7.944   8.881 -1.1423  0.7251  1.1850
 5049SOL    HW221753  11.150   7.862   8.980  1.2460  0.4642  2.9946
 5050SOL     OW21754   2.245   4.177   7.723  0.1065 -0.0170 -0.5128
 5050SOL    HW121755   2.159   4.136   7.729  0.1414 -0.0968 -0.5572
 5050SOL    HW221756   2.296   4.135   7.792  0.1426 -0.0494 -0.5591
 5051SOL     OW21757   0.059   7.619   6.148 -0.3745 -0.4050 -0.1829
 5051SOL    HW121758   0.037   7.687   6.212  0.0972 -1.7097  1.4402
 5051SOL    HW221759   0.150   7.639   6.123 -1.1008  1.0880 -1.7893
 5052SOL     OW21760   1.714   5.796   2.170 -0.1473  0.0692 -0.3768
 5052SOL    HW121761   1.626   5.834   2.170 -0.7289 -1.0818  1.8311
 5052SOL    HW221762   1.704   5.712   2.216  1.8860 -0.6888 -1.1803
 5053SOL     OW21763   5.404   9.483   7.814  0.1332  0.3711 -0.2564
 5053SOL    HW121764   5.473   9.417   7.816  0.3565  0.6101  0.0720
 5053SOL    HW221765   5.405   9.515   7.724  1.5457  1.4995  0.1067
 5054SOL     OW21766  10.236   1.053   1.154  0.3640 -0.2399 -0.3930
 5054SOL    HW121767  10.321   1.042   1.112 -0.9758 -0.0425 -3.3937
 5054SOL    HW221768  10.227   1.147   1.169  0.6268 -0.2506 -0.1716
 5055SOL     OW21769   2.457   2.362   5.554  0.5440 -0.6952  0.0147
 5055SOL    HW121770   2.368   2.366   5.519  1.7095  0.0476 -3.1545
 5055SOL    HW221771   2.490   2.276   5.526  1.3889 -0.2493 -0.3829
 5056SOL     OW21772   4.178   9.096  11.244 -0.3628 -0.6585 -0.2306
 5056SOL    HW121773   4.235   9.167  11.214 -0.0046 -0.1053  1.6345
 5056SOL    HW221774   4.145   9.056  11.163  1.3219  0.0855 -1.3529
 5057SOL     OW21775  11.869   9.099   1.271  0.1702  0.3158  0.4854
 5057SOL    HW121776  11.852   9.067   1.360  1.3759 -0.4017  0.4740
 5057SOL    HW221777  11.908   9.185   1.284 -1.6596  1.1933  0.5562
 5058SOL     OW21778   3.148   5.506   1.714  0.0811 -0.0386  0.2934
 5058SOL    HW121779   3.090   5.445   1.670  0.0209 -0.6181  1.1707
 5058SOL    HW221780   3.167   5.573   1.647 -0.5572 -0.5257 -0.3885
 5059SOL     OW21781   7.290   4.984  11.905 -0.1238  0.3303 -0.7330
 5059SOL    HW121782   7.196   4.970  11.914 -0.0469  0.8754  1.4763
 5059SOL    HW221783   7.298   5.073  11.873 -0.3649  0.0271 -1.6490
 5060SOL     OW21784   8.356   8.783  12.768 -0.2420  0.3437 -0.3405
 5060SOL    HW121785   8.362   8.693  12.799  2.1523 -0.0761 -1.7861
 5060SOL    HW221786   8.340   8.835  12.847  1.1800 -1.0886  0.9479
 5061SOL     OW21787  11.064  10.108   7.696  0.3538 -0.4144 -0.3761
 5061SOL    HW121788  11.098  10.036   7.749 -0.3535 -0.1438  0.4829
 5061SOL    HW221789  10.980  10.130   7.738 -0.8550 -1.0290 -2.3593
 5062SOL     OW21790   0.545  10.297   7.562 -0.1907 -0.3278  0.4700
 5062SOL    HW121791   0.597  10.242   7.504  0.3076  0.6305 -0.0124
 5062SOL    HW221792   0.465  10.315   7.512 -1.1557 -1.9845  1.2963
 5063SOL     OW21793   5.965  11.217   3.368 -0.7633  0.6750  0.1043
 5063SOL    HW121794   5.916  11.223   3.450  0.0205 -1.7640  0.8427
 5063SOL    HW221795   5.914  11.156   3.314 -0.1320  0.5221 -0.3275
 5064SOL     OW21796   5.350   6.347   8.969  0.2073 -0.0823  0.2992
 5064SOL    HW121797   5.368   6.435   9.002  0.7746  0.0260 -0.2804
 5064SOL    HW221798   5.378   6.288   9.039  1.1962  0.1539  0.1166
 5065SOL     OW21799   0.107  10.759   0.817  0.2573 -0.7577  0.5294
 5065SOL    HW121800   0.029  10.813   0.832 -0.4986 -2.0355  1.3296
 5065SOL    HW221801   0.177  10.808   0.860 -0.3080 -0.1531  0.8012
 5066SOL     OW21802   6.731   7.244   5.109 -0.9714 -0.4671  0.4314
 5066SOL    HW121803   6.665   7.174   5.114 -1.4413 -0.0333  0.3417
 5066SOL    HW221804   6.710   7.291   5.029 -0.7566 -0.1221  0.5756
 5067SOL     OW21805   4.017   7.817   2.575  0.1394 -0.2237 -0.1974
 5067SOL    HW121806   4.096   7.859   2.541 -0.5491 -1.0938 -3.1528
 5067SOL    HW221807   3.948   7.841   2.514 -1.5437 -0.8876  1.3398
 5068SOL     OW21808   7.976   4.816  11.853  0.8975  0.3999  0.5894
 5068SOL    HW121809   7.898   4.771  11.887  0.1344  0.1441 -1.3244
 5068SOL    HW221810   7.987   4.891  11.911  1.2021 -1.2783  2.8627
 5069SOL     OW21811  12.739   8.361   0.152  0.1082  0.3253  0.1801
 5069SOL    HW121812  12.799   8.428   0.121 -0.4547  1.6685  1.8802
 5069SOL    HW221813  12.788   8.279   0.144  2.1092  1.3465  1.3744
 5070SOL     OW21814  12.014   7.420   7.046 -0.3198  0.2684  0.2257
 5070SOL    HW121815  12.109   7.429   7.041 -0.1482 -1.1636  0.6630
 5070SOL    HW221816  11.992   7.350   6.985 -0.8991 -0.4685  1.2257
 5071SOL     OW21817   4.344   1.602  12.009 -0.0751  0.1723 -0.1677
 5071SOL    HW121818   4.417   1.623  12.068 -0.2900  1.8914 -0.4604
 5071SOL    HW221819   4.332   1.681  11.956 -1.7139 -0.3158 -0.5954
 5072SOL     OW21820   5.726  10.629   9.021  0.1210 -0.4274 -0.1042
 5072SOL    HW121821   5.710  10.676   8.939 -1.0366  1.2983  1.0256
 5072SOL    HW221822   5.640  10.623   9.063  0.8573 -0.0508  1.5677
 5073SOL     OW21823   1.898   5.558   7.586 -0.0936 -0.1254  0.3224
 5073SOL    HW121824   1.891   5.497   7.513  0.6648 -1.1360  1.0518
 5073SOL    HW221825   1.868   5.508   7.662  1.4235  0.0586  1.0956
 5074SOL     OW21826   6.587  10.752   0.449  0.0585  0.3794  0.1449
 5074SOL    HW121827   6.580  10.837   0.405  1.6258 -0.4955 -1.9582
 5074SOL    HW221828   6.518  10.699   0.408 -0.8795  0.5704  1.4139
 5075SOL     OW21829   1.643   2.462   5.387  0.2482  0.3843  0.1129
 5075SOL    HW121830   1.667   2.442   5.477  0.1465 -0.9258 -0.1232
 5075SOL    HW221831   1.712   2.520   5.356  3.1854 -3.0860 -0.4767
 5076SOL     OW21832   7.307   7.165   2.957  0.3736  0.1272 -0.3963
 5076SOL    HW121833   7.293   7.233   2.891  1.8549 -0.5081 -1.4261
 5076SOL    HW221834   7.242   7.098   2.937 -0.0516  0.5294 -0.3734
 5077SOL     OW21835   6.500   0.956   2.377 -0.0067  0.0174  0.3625
 5077SOL    HW121836   6.481   0.915   2.292  0.5293 -0.5315  0.5030
 5077SOL    HW221837   6.443   1.033   2.379  0.6170  0.5562 -0.8882
 5078SOL     OW21838   9.698   2.618   1.927  0.8010  0.6267 -0.1728
 5078SOL    HW121839   9.768   2.668   1.887 -0.5002  0.0560 -3.5953
 5078SOL    HW221840   9.653   2.680   1.985  1.3204  2.3961 -1.5724
 5079SOL     OW21841   9.383   4.978   3.965 -0.0923 -0.0950 -0.2341
 5079SOL    HW121842   9.476   4.997   3.978 -0.1394 -0.5573  0.9490
 5079SOL    HW221843   9.338   5.031   4.031 -0.5822 -0.6081 -0.1459
 5080SOL     OW21844   0.733   5.764  12.644 -0.0782 -0.5038 -0.0036
 5080SOL    HW121845   0.702   5.712  12.718 -1.7167 -0.8782 -0.8981
 5080SOL    HW221846   0.753   5.699  12.576 -1.3278 -0.0611 -0.8380
 5081SOL     OW21847  10.028  11.719   7.467  0.4730  0.3069  0.0692
 5081SOL    HW121848  10.088  11.689   7.535 -0.5059  1.4019  1.4803
 5081SOL    HW221849  10.034  11.815   7.470 -2.0585  0.4955  0.9774
 5082SOL     OW21850   5.710   5.058   1.695  0.5850 -0.2203  0.6834
 5082SOL    HW121851   5.680   5.025   1.780  0.8872 -0.9284  0.5195
 5082SOL    HW221852   5.729   5.151   1.711 -1.4388  0.2159  0.8480
 5083SOL     OW21853   6.846   7.139   1.057 -0.0907  0.2712 -0.9877
 5083SOL    HW121854   6.903   7.070   1.022 -0.9507 -0.4492 -1.0234
 5083SOL    HW221855   6.786   7.159   0.984 -0.0616  0.8108 -0.8608
 5084SOL     OW21856   6.295   7.372   1.986  0.4107  0.6746  0.4682
 5084SOL    HW121857   6.300   7.393   1.893 -0.4864  0.4538  0.3596
 5084SOL    HW221858   6.361   7.428   2.027  2.1151 -0.5829 -0.4992
 5085SOL     OW21859  11.041   8.880   8.754  0.4252  0.3270 -0.1456
 5085SOL    HW121860  10.978   8.856   8.823  0.3428 -0.5289 -0.5101
 5085SOL    HW221861  11.125   8.884   8.799  0.2130  0.8154  0.2126
 5086SOL     OW21862   6.239   4.025   0.526 -0.3621 -0.0130 -0.0684
 5086SOL    HW121863   6.144   4.026   0.537 -0.3307  0.1344  0.1824
 5086SOL    HW221864   6.272   4.085   0.592  0.0539 -1.6276  1.2629
 5087SOL     OW21865   3.133   8.387   9.493 -0.3927 -0.1927  0.2731
 5087SOL    HW121866   3.215   8.425   9.461 -1.4019  0.0139 -2.3197
 5087SOL    HW221867   3.103   8.448   9.559  1.5246 -0.3045  1.3397
 5088SOL     OW21868   5.905   1.892  12.328  1.2452 -0.2162  0.2829
 5088SOL    HW121869   5.887   1.824  12.262  0.6115 -0.6652  0.9024
 5088SOL    HW221870   5.825   1.896  12.381  0.0788  3.0609 -1.4699
 5089SOL     OW21871   8.712   0.093   4.311  0.1447 -0.5287 -0.5868
 5089SOL    HW121872   8.764   0.099   4.231 -0.8318  1.0476 -1.1673
 5089SOL    HW221873   8.626   0.128   4.285 -0.5092 -0.9892  0.8866
 5090SOL     OW21874   8.429   1.215   5.534 -0.7985 -0.0359  0.3521
 5090SOL    HW121875   8.461   1.216   5.625  1.6535  1.0160 -0.4404
 5090SOL    HW221876   8.456   1.300   5.499 -0.0121 -1.1617 -1.9048
 5091SOL     OW21877   0.589  10.470   1.479  0.2479 -0.2110  0.3826
 5091SOL    HW121878   0.600  10.465   1.385 -0.8294  1.0209  0.1590
 5091SOL    HW221879   0.516  10.411   1.498 -0.4471  0.5858  0.2397
 5092SOL     OW21880   6.672   4.423   5.000 -0.1985  0.8936  0.4631
 5092SOL    HW121881   6.586   4.405   5.038  0.3208 -1.6079  0.6492
 5092SOL    HW221882   6.674   4.371   4.920  0.6447  2.0453 -0.2933
 5093SOL     OW21883   2.022   7.060   9.488  0.0353 -0.0211 -0.5488
 5093SOL    HW121884   1.947   7.020   9.532  0.5308 -0.8775 -0.4625
 5093SOL    HW221885   2.022   7.150   9.519  0.5818 -0.6788  1.5208
 5094SOL     OW21886   0.540   3.018   5.387  0.4399 -0.2256  0.0671
 5094SOL    HW121887   0.468   2.976   5.340 -0.1371  0.5939  0.1894
 5094SOL    HW221888   0.512   3.019   5.479  0.2996  0.6824  0.0247
 5095SOL     OW21889   9.673   5.397   2.498 -0.1231  0.0451  0.0336
 5095SOL    HW121890   9.763   5.431   2.500 -1.1869  3.2398 -0.0187
 5095SOL    HW221891   9.642   5.405   2.588 -0.4209 -0.9522  0.0299
 5096SOL     OW21892  12.303   9.659   9.378  0.3973 -0.0210  0.6335
 5096SOL    HW121893  12.258   9.592   9.326  0.5742  0.2811  0.0847
 5096SOL    HW221894  12.338   9.610   9.453 -0.6241 -0.2972  0.9423
 5097SOL     OW21895   8.715  11.996  10.862 -0.1188 -0.4615  0.0132
 5097SOL    HW121896   8.753  11.973  10.947  0.1014  3.1972  1.0555
 5097SOL    HW221897   8.665  11.918  10.837  2.3490 -2.8826  1.8995
 5098SOL     OW21898  10.249   5.196   7.061 -0.2447  0.5792 -0.5016
 5098SOL    HW121899  10.240   5.125   6.998 -1.2536 -0.6272  0.9456
 5098SOL    HW221900  10.162   5.206   7.099  0.5063  0.7102  1.2765
 5099SOL     OW21901   8.659   7.380   1.389 -0.5585  0.3520  0.1211
 5099SOL    HW121902   8.573   7.340   1.372 -0.0423 -0.6203 -0.2504
 5099SOL    HW221903   8.638   7.460   1.439 -1.6180 -0.3285  0.8157
 5100SOL     OW21904   7.057   7.728  11.300 -0.3689  0.4280  0.1113
 5100SOL    HW121905   7.110   7.739  11.378 -0.1284  1.5739 -0.2024
 5100SOL    HW221906   6.988   7.794  11.307 -0.5709  0.2903 -0.4587
 5101SOL     OW21907   8.429  12.005   1.689 -0.0513  0.1467  0.5455
 5101SOL    HW121908   8.471  11.972   1.610  0.7879  0.0801  1.0034
 5101SOL    HW221909   8.471  12.089   1.706 -0.4141  0.2855  0.7714
 5102SOL     OW21910   2.735   6.314   0.614  0.1712 -0.3874  0.5458
 5102SOL    HW121911   2.752   6.278   0.701 -0.3763  0.1532  0.8885
 5102SOL    HW221912   2.669   6.382   0.629  0.2967 -0.0780 -0.2514
 5103SOL     OW21913   8.095   4.463   7.969  0.1259  0.3592 -0.9870
 5103SOL    HW121914   8.052   4.383   7.999  0.8391 -0.2371 -1.5387
 5103SOL    HW221915   8.100   4.518   8.047 -0.2872 -0.1604 -0.5864
 5104SOL     OW21916  10.794  10.367   2.360 -0.3111  0.2584  0.8857
 5104SOL    HW121917  10.746  10.435   2.312 -1.8206 -0.0130  1.9483
 5104SOL    HW221918  10.769  10.379   2.451 -0.9529 -1.9458  1.0729
 5105SOL     OW21919   2.338   2.418   2.514  0.1986  0.3111 -0.3617
 5105SOL    HW121920   2.258   2.459   2.546  0.0094  0.7754 -1.4250
 5105SOL    HW221921   2.347   2.447   2.424  1.7685  0.5588 -0.1610
 5106SOL     OW21922   0.248  10.990  12.608  0.3867  0.2737 -0.3905
 5106SOL    HW121923   0.278  11.068  12.560  3.5546 -0.1763  0.6453
 5106SOL    HW221924   0.266  11.010  12.700 -1.0782 -0.7692  0.1619
 5107SOL     OW21925   2.954   9.365   3.641 -0.0861 -0.5113  0.2065
 5107SOL    HW121926   2.984   9.367   3.732  1.4579  0.8039 -0.2906
 5107SOL    HW221927   2.932   9.455   3.621 -3.0208 -1.1785  0.0424
 5108SOL     OW21928   0.092   9.699   2.894  0.0076  0.4581 -0.3126
 5108SOL    HW121929   0.145   9.749   2.832 -2.0180  1.8945 -1.0118
 5108SOL    HW221930   0.031   9.764   2.930  0.6714 -0.4486  2.7593
 5109SOL     OW21931   1.886   6.018   2.163  0.5040  0.3324  0.3275
 5109SOL    HW121932   1.966   6.007   2.112 -0.2630  0.3778 -0.9203
 5109SOL    HW221933   1.858   5.929   2.185  0.5692  0.2943  0.2537
 5110SOL     OW21934   8.038  10.592   3.886 -0.1537 -0.2781 -0.1479
 5110SOL    HW121935   7.963  10.608   3.944 -0.0888 -1.3758  0.2414
 5110SOL    HW221936   8.110  10.572   3.944  0.5669  1.1088 -0.5064
 5111SOL     OW21937  11.708   1.007   9.081 -0.5534 -0.2806  0.7368
 5111SOL    HW121938  11.792   1.030   9.041 -0.5301 -1.4735  0.0189
 5111SOL    HW221939  11.731   0.960   9.161 -0.4268 -2.4640 -0.5050
 5112SOL     OW21940   0.872   6.015   3.731 -0.0750 -0.5349 -0.1113
 5112SOL    HW121941   0.839   6.104   3.733 -0.7896 -0.4278 -5.0185
 5112SOL    HW221942   0.802   5.963   3.771 -1.9506  0.6630 -1.6801
 5113SOL     OW21943   1.649  11.288  11.732 -0.7364 -0.1937  0.4351
 5113SOL    HW121944   1.566  11.242  11.715 -0.3734 -0.2117 -1.4861
 5113SOL    HW221945   1.702  11.270  11.654  1.1184 -0.2515  1.6751
 5114SOL     OW21946   4.096   4.086   6.242  0.3643  0.5221 -0.1286
 5114SOL    HW121947   4.110   4.114   6.152  3.3762 -0.8849 -0.2060
 5114SOL    HW221948   4.143   4.150   6.295 -0.5495  0.7782  0.3945
 5115SOL     OW21949   5.920   1.294   8.441  0.0157  0.2844 -0.2972
 5115SOL    HW121950   5.898   1.387   8.434  1.5644  0.7203  0.3497
 5115SOL    HW221951   5.876   1.265   8.521 -1.9703 -0.0293 -1.4375
 5116SOL     OW21952   1.041   9.722   5.472 -0.1239  0.1701 -0.2975
 5116SOL    HW121953   0.973   9.669   5.431  0.4959 -0.0864 -1.0240
 5116SOL    HW221954   1.056   9.680   5.557  0.8033 -1.2344 -1.1154
 5117SOL     OW21955   4.545   1.788   3.574  0.0217  0.1940 -0.0032
 5117SOL    HW121956   4.585   1.828   3.651  0.5931  1.2259 -0.8176
 5117SOL    HW221957   4.617   1.747   3.527 -0.2326  0.0723 -0.2934
 5118SOL     OW21958   7.065  10.223   9.101  0.1267 -0.0822  0.3649
 5118SOL    HW121959   7.152  10.208   9.138  0.9986 -1.0001 -1.8902
 5118SOL    HW221960   7.080  10.274   9.022 -1.4916  0.4611  0.3622
 5119SOL     OW21961   0.598   9.395   5.587  0.4659  0.0085 -0.1784
 5119SOL    HW121962   0.547   9.409   5.507 -1.8024 -2.1821  0.7610
 5119SOL    HW221963   0.579   9.472   5.641 -0.9203 -0.1983 -0.3396
 5120SOL     OW21964   8.726   0.984   3.228  0.3622  0.0154  0.7172
 5120SOL    HW121965   8.645   1.028   3.202  0.1126 -0.2919  0.9752
 5120SOL    HW221966   8.707   0.891   3.219  1.3090 -0.0540 -1.1326
 5121SOL     OW21967   1.964   8.392   3.977 -0.7248  0.3125 -0.0175
 5121SOL    HW121968   2.046   8.410   4.022 -0.6541 -0.9607  0.3945
 5121SOL    HW221969   1.990   8.360   3.891 -0.7256 -1.3775  0.5834
 5122SOL     OW21970   2.827   7.736  10.850 -0.1507 -0.2835 -0.1171
 5122SOL    HW121971   2.852   7.825  10.874  0.3338 -0.5247  0.2863
 5122SOL    HW221972   2.828   7.736  10.754  0.9228 -0.1447 -0.1239
 5123SOL     OW21973   1.000   6.045   0.918 -0.7075  0.0644  0.4288
 5123SOL    HW121974   1.073   6.099   0.888  0.2403 -1.6615 -0.5977
 5123SOL    HW221975   1.025   6.018   1.006 -1.2158  1.3178  0.9673
 5124SOL     OW21976   2.438   6.949   9.320  0.0068 -0.6886  0.5745
 5124SOL    HW121977   2.479   6.912   9.242  1.9774  1.4223  0.5123
 5124SOL    HW221978   2.491   6.916   9.393 -0.3025 -0.6595  0.8166
 5125SOL     OW21979   5.664   0.426   7.934 -0.3767  0.4699  0.1032
 5125SOL    HW121980   5.700   0.455   7.850 -1.4204 -0.4681 -0.7028
 5125SOL    HW221981   5.737   0.385   7.979 -0.2366 -0.7836 -1.1968
 5126SOL     OW21982   3.226   8.851  12.326 -0.1133  0.0147  0.5831
 5126SOL    HW121983   3.191   8.795  12.257 -0.9288  0.3057  0.7506
 5126SOL    HW221984   3.319   8.828  12.331 -0.0559 -0.0518 -0.5643
 5127SOL     OW21985   7.540  10.968   1.153 -0.1535  0.1435 -0.1922
 5127SOL    HW121986   7.471  10.901   1.151 -0.5222  0.4987  0.3828
 5127SOL    HW221987   7.518  11.027   1.081 -1.5484  1.3132  1.1249
 5128SOL     OW21988   8.103   1.643  12.242  0.3055 -0.4599  0.1515
 5128SOL    HW121989   8.158   1.672  12.169  0.6508  0.1355  0.6393
 5128SOL    HW221990   8.077   1.724  12.286 -1.8277 -0.6528 -0.6775
 5129SOL     OW21991   0.641  10.127   4.599 -0.6114  0.2646  0.4507
 5129SOL    HW121992   0.638  10.216   4.634 -0.8069  0.1888  0.6247
 5129SOL    HW221993   0.713  10.085   4.646 -0.8407  0.1785  0.7287
 5130SOL     OW21994   6.009   5.932   8.201  0.4670  0.3145 -0.2220
 5130SOL    HW121995   5.914   5.921   8.195  0.5777  0.2203 -3.2971
 5130SOL    HW221996   6.023   6.026   8.189  0.7817  0.2098 -0.7320
 5131SOL     OW21997   5.559   4.756   9.550  0.5796 -0.3566  0.3647
 5131SOL    HW121998   5.481   4.804   9.577  1.1456  0.1424  1.1754
 5131SOL    HW221999   5.597   4.809   9.480  1.5947  0.8089  1.7414
 5132SOL     OW22000   3.064   9.399   0.325 -0.5146 -0.0929  0.4802
 5132SOL    HW122001   3.045   9.465   0.392  0.1113 -0.4970  1.0741
 5132SOL    HW222002   2.979   9.374   0.292 -0.7790  0.8491  0.4069
 5133SOL     OW22003   9.766   8.983   0.029  0.0948  0.2115  0.0239
 5133SOL    HW122004   9.685   9.033   0.043 -0.2815 -0.2456 -0.4872
 5133SOL    HW222005   9.816   8.997   0.109 -1.0575 -0.5523  0.9209
 5134SOL     OW22006   5.788   3.396   8.169 -0.3486 -0.0584 -0.1090
 5134SOL    HW122007   5.747   3.322   8.125  0.8151 -0.4518 -0.5763
 5134SOL    HW222008   5.768   3.471   8.113 -0.2643 -0.2801 -0.4393
 5135SOL     OW22009   3.797  10.602   6.762 -0.7505  0.2298 -0.5788
 5135SOL    HW122010   3.806  10.690   6.726 -1.3777  1.1349  1.3176
 5135SOL    HW222011   3.886  10.566   6.760 -0.4485  0.9937 -1.1668
 5136SOL     OW22012  12.299   4.024   1.600 -0.3640  0.3384  0.2001
 5136SOL    HW122013  12.338   3.972   1.671 -1.0598  1.1207  1.1849
 5136SOL    HW222014  12.205   4.003   1.603 -0.3349  0.0031 -0.8256
 5137SOL     OW22015   8.189   8.358  12.734 -0.4021 -0.3919  0.2010
 5137SOL    HW122016   8.250   8.402  12.793  0.6311  0.1188 -1.1798
 5137SOL    HW222017   8.241   8.287  12.695 -1.1704 -0.9530  0.1853
 5138SOL     OW22018   8.990  11.784   5.527  0.2015 -0.3869 -0.0172
 5138SOL    HW122019   9.047  11.818   5.457  0.1335 -1.4556 -0.6177
 5138SOL    HW222020   8.907  11.764   5.483 -0.7763  1.4230  0.9046
 5139SOL     OW22021   7.310   2.116  11.875 -0.4588 -0.3571 -0.1351
 5139SOL    HW122022   7.356   2.198  11.856  0.7106 -0.7190  1.0432
 5139SOL    HW222023   7.353   2.081  11.953 -0.9896 -2.0565 -0.5599
 5140SOL     OW22024   6.794   4.428  12.156 -0.3455 -0.5856 -0.0718
 5140SOL    HW122025   6.738   4.366  12.202 -1.0930  0.3954  0.3939
 5140SOL    HW222026   6.773   4.416  12.064 -2.0472  0.3934  0.1480
 5141SOL     OW22027  10.326  10.372   6.104 -0.3356  0.1204 -0.0126
 5141SOL    HW122028  10.345  10.345   6.193 -0.8257 -1.3842 -0.3266
 5141SOL    HW222029  10.259  10.310   6.074 -0.7478  1.0762 -1.1603
 5142SOL     OW22030  11.084  10.043   4.129 -0.3050 -0.0967  0.5701
 5142SOL    HW122031  11.048   9.999   4.052 -2.6876  1.3021  0.8073
 5142SOL    HW222032  11.113  10.128   4.097 -0.6930  0.2346  1.0782
 5143SOL     OW22033   6.676  12.533   0.338  1.0066 -0.1701  0.2180
 5143SOL    HW122034   6.758  12.544   0.291  0.7729  2.4165  0.2854
 5143SOL    HW222035   6.690  12.576   0.422 -0.2182 -0.2298  0.4731
 5144SOL     OW22036  11.714  11.172   4.304 -0.2540  0.1024 -0.8846
 5144SOL    HW122037  11.729  11.236   4.373 -0.1461  0.8646 -1.6012
 5144SOL    HW222038  11.664  11.220   4.237 -1.1424 -0.8619 -0.9488
 5145SOL     OW22039   3.280  10.141   2.069  0.1049  0.0458  0.9287
 5145SOL    HW122040   3.260  10.048   2.078 -1.1126  0.2627  0.7332
 5145SOL    HW222041   3.200  10.185   2.098  0.6234  1.0298  0.9068
 5146SOL     OW22042   9.003   6.246   5.459  0.0182 -0.2887  0.9096
 5146SOL    HW122043   8.945   6.221   5.388  2.5229  0.5474 -1.5853
 5146SOL    HW222044   9.011   6.341   5.451  0.6667 -0.2291  2.0574
 5147SOL     OW22045   7.761   9.514  11.280  0.7526 -0.5214 -0.0147
 5147SOL    HW122046   7.701   9.461  11.333 -0.4508  0.6321 -0.1781
 5147SOL    HW222047   7.844   9.511  11.328  1.6435 -4.8188 -1.4108
 5148SOL     OW22048  10.472   3.094   3.833  0.0879 -0.3657 -0.0880
 5148SOL    HW122049  10.529   3.063   3.763  1.1538  1.1912  0.0464
 5148SOL    HW222050  10.390   3.119   3.788  0.3061 -0.5614 -0.5994
 5149SOL     OW22051   1.315   5.086   3.498  0.2609  0.2936 -0.4601
 5149SOL    HW122052   1.233   5.055   3.462  0.7702 -1.8686  0.1140
 5149SOL    HW222053   1.347   5.014   3.553  2.4318  1.1311 -0.4947
 5150SOL     OW22054   5.700  12.065   1.022  0.1145  0.1521 -0.0050
 5150SOL    HW122055   5.775  12.103   1.068 -1.0347  0.9290  1.3191
 5150SOL    HW222056   5.729  12.056   0.931  1.6447  0.8614  0.3801
 5151SOL     OW22057   1.776  10.972   6.093  0.3493  0.4851 -0.1649
 5151SOL    HW122058   1.722  10.909   6.045 -1.9438  2.5050 -0.4764
 5151SOL    HW222059   1.733  10.981   6.178  1.6722  0.3358  0.5292
 5152SOL     OW22060   2.836   0.619   7.160 -0.1536  0.4723  0.4184
 5152SOL    HW122061   2.750   0.586   7.132 -0.0163  0.6391 -0.2243
 5152SOL    HW222062   2.893   0.543   7.157 -0.2792  0.3629  0.8374
 5153SOL     OW22063   6.806   4.005   1.214 -0.1973  0.2253  0.2932
 5153SOL    HW122064   6.896   3.987   1.241  0.5295  0.0510 -2.0960
 5153SOL    HW222065   6.771   3.920   1.187 -0.3278  0.6241 -0.8490
 5154SOL     OW22066   5.777   3.412   4.380 -0.6327  0.3001  0.2653
 5154SOL    HW122067   5.848   3.475   4.370  0.4407 -0.5946  1.8135
 5154SOL    HW222068   5.802   3.338   4.325  0.4252 -0.6234  1.9162
 5155SOL     OW22069   9.910   2.996   9.138 -0.2879 -0.3527  0.0418
 5155SOL    HW122070   9.859   3.036   9.208  0.9616 -0.0098  0.7886
 5155SOL    HW222071   9.915   3.063   9.070  1.2034  0.5720  0.9970
 5156SOL     OW22072   3.751   1.905   4.577 -0.1984  0.0651 -0.0530
 5156SOL    HW122073   3.803   1.826   4.591  2.6321  2.1369  2.3672
 5156SOL    HW222074   3.772   1.931   4.487  1.4088 -0.2354  0.2065
 5157SOL     OW22075   3.533  10.363   1.964  0.2981 -0.3713  0.6112
 5157SOL    HW122076   3.469  10.358   2.034 -0.2574 -0.2349  0.1215
 5157SOL    HW222077   3.579  10.279   1.968 -0.8091 -1.0351  0.1418
 5158SOL     OW22078   1.957  10.397   5.404  0.1083 -0.2013  0.6620
 5158SOL    HW122079   1.867  10.430   5.401 -0.3900 -1.5489 -0.1515
 5158SOL    HW222080   1.951  10.308   5.369  2.0513  0.3158 -1.2198
 5159SOL     OW22081  11.347   4.261  12.727  0.5297 -0.2115  0.0190
 5159SOL    HW122082  11.371   4.299  12.811  0.8756 -0.9757  0.2799
 5159SOL    HW222083  11.419   4.283  12.668  0.1657  0.5448 -0.1549
 5160SOL     OW22084  11.179   4.743   1.125 -0.4737 -0.0697 -0.6951
 5160SOL    HW122085  11.130   4.775   1.050 -0.2036  2.5696  0.1655
 5160SOL    HW222086  11.179   4.815   1.187 -0.0723 -1.8954  1.5913
 5161SOL     OW22087   9.748   8.515   3.047  0.3825 -0.8627 -0.6049
 5161SOL    HW122088   9.770   8.423   3.063  0.4107 -0.4512  2.2892
 5161SOL    HW222089   9.656   8.522   3.073  1.1829  0.4589  2.1985
 5162SOL     OW22090   3.519   3.520   6.315 -0.0008  0.0064  0.3488
 5162SOL    HW122091   3.443   3.518   6.373  0.3316  1.5558  0.9053
 5162SOL    HW222092   3.550   3.430   6.313 -1.3135 -0.4831  0.8373
 5163SOL     OW22093   5.953   0.017  12.491  0.2789  0.2034  0.0725
 5163SOL    HW122094   5.913  -0.069  12.503  0.8478 -0.0431  0.2597
 5163SOL    HW222095   5.885   0.079  12.513 -0.0029 -0.2067  0.3615
 5164SOL     OW22096   4.529   5.082   3.674  0.4974  0.0600 -0.2448
 5164SOL    HW122097   4.619   5.113   3.681 -0.1955  2.6736 -1.5101
 5164SOL    HW222098   4.486   5.114   3.752  0.5380 -0.8295  0.1556
 5165SOL     OW22099   4.951   0.959  12.147 -0.1781 -0.0718 -0.5193
 5165SOL    HW122100   5.000   1.031  12.186 -0.4938  0.3199 -0.8348
 5165SOL    HW222101   5.017   0.893  12.127  0.2519  0.5368 -1.1342
 5166SOL     OW22102  12.410   9.194   5.990  0.0365 -0.0925  0.1131
 5166SOL    HW122103  12.367   9.157   6.067 -0.6653  0.6220  0.0836
 5166SOL    HW222104  12.376   9.143   5.916 -0.2051 -0.0067  0.1637
 5167SOL     OW22105   4.539  12.417   3.719 -0.1832 -0.1940 -0.1937
 5167SOL    HW122106   4.574  12.419   3.808 -0.4059 -0.6928 -0.0922
 5167SOL    HW222107   4.457  12.466   3.725  0.4084  0.8530 -0.4018
 5168SOL     OW22108   8.081   0.885  10.749 -0.4209 -0.0718 -0.1007
 5168SOL    HW122109   8.137   0.852  10.820 -1.7625 -0.4035  0.8577
 5168SOL    HW222110   8.032   0.808  10.720 -2.3973  0.6797  1.0372
 5169SOL     OW22111   5.740   5.867  12.448 -0.1138  0.2152 -0.1844
 5169SOL    HW122112   5.676   5.938  12.450  1.2585  1.4805  2.0583
 5169SOL    HW222113   5.696   5.795  12.495  0.0338  1.0681  1.3286
 5170SOL     OW22114   2.967   1.134  12.028  0.2774 -0.0190 -0.3528
 5170SOL    HW122115   2.939   1.047  12.052  0.1848 -0.4383 -1.8629
 5170SOL    HW222116   3.062   1.127  12.019  0.2973  0.0919 -0.2295
 5171SOL     OW22117   5.756   9.265   8.007  0.4906  0.6238  0.7978
 5171SOL    HW122118   5.686   9.328   7.997 -0.0516 -0.1570 -0.5845
 5171SOL    HW222119   5.812   9.278   7.930  0.5875 -0.3017  0.6972
 5172SOL     OW22120   0.709  10.057   3.750  1.1134  0.0656  0.2286
 5172SOL    HW122121   0.753  10.114   3.687  0.8087  0.2452  0.1802
 5172SOL    HW222122   0.740   9.969   3.728 -0.1489 -0.0549 -1.1354
 5173SOL     OW22123   4.082  12.555  10.668  0.6261  0.3823  0.8568
 5173SOL    HW122124   4.107  12.646  10.683 -0.0470  0.6534  0.3937
 5173SOL    HW222125   3.987  12.557  10.662  0.6157 -0.3321  0.6857
 5174SOL     OW22126   4.062   8.616   1.670  0.4573 -0.1533  0.0271
 5174SOL    HW122127   3.986   8.566   1.642 -0.4675  1.4631 -0.4344
 5174SOL    HW222128   4.067   8.602   1.764 -0.0930 -0.6806 -0.0186
 5175SOL     OW22129   6.716  10.390   1.811  0.2005  0.0458 -0.4670
 5175SOL    HW122130   6.663  10.468   1.827 -3.5833 -2.4117  0.1708
 5175SOL    HW222131   6.760  10.373   1.894  0.5086  1.0884 -0.4027
 5176SOL     OW22132   8.008   3.243  10.383  0.1347  0.4252 -0.3625
 5176SOL    HW122133   8.049   3.328  10.367 -0.3593  0.3913 -2.0856
 5176SOL    HW222134   7.961   3.224  10.301 -0.3152 -1.1968  0.2364
 5177SOL     OW22135  12.562  11.422   5.766 -0.0678 -0.1377 -0.0894
 5177SOL    HW122136  12.532  11.337   5.800 -0.0484 -0.7339 -1.5039
 5177SOL    HW222137  12.583  11.405   5.674 -0.3253  1.4725 -0.4698
 5178SOL     OW22138   7.422   8.906   3.575 -0.0354  0.4010  0.2791
 5178SOL    HW122139   7.405   8.987   3.624  1.2896  0.0068  1.4541
 5178SOL    HW222140   7.454   8.844   3.641 -0.5285 -0.9337 -0.6919
 5179SOL     OW22141  11.172   7.113   4.623  0.1908  0.0930 -0.0732
 5179SOL    HW122142  11.133   7.170   4.689 -0.3313  0.4554 -0.6863
 5179SOL    HW222143  11.108   7.109   4.553  0.3042 -1.0914 -0.1438
 5180SOL     OW22144   0.575   2.487   8.256  0.3633 -0.7643 -0.2331
 5180SOL    HW122145   0.604   2.578   8.253  1.3528 -1.0672 -0.3924
 5180SOL    HW222146   0.570   2.460   8.164 -0.2737 -0.7778 -0.2017
 5181SOL     OW22147  10.710  10.934   2.841 -0.2844 -0.5480  0.2259
 5181SOL    HW122148  10.636  10.974   2.886  0.9025 -1.5057  3.2416
 5181SOL    HW222149  10.759  11.008   2.805 -0.5839  0.3795  1.6703
 5182SOL     OW22150   9.956   6.396   3.542  0.1284  0.4347  0.6510
 5182SOL    HW122151   9.877   6.445   3.567 -0.9350 -0.2751 -1.1251
 5182SOL    HW222152   9.961   6.326   3.608 -2.1783 -0.9553 -0.4967
 5183SOL     OW22153   1.497   3.477   1.834 -0.1796 -0.4609  0.1050
 5183SOL    HW122154   1.557   3.427   1.890 -0.7726  0.4552  1.6063
 5183SOL    HW222155   1.517   3.569   1.853  0.6669 -0.0550 -2.3783
 5184SOL     OW22156  10.813   3.270  10.487  0.2648 -0.0255 -0.4681
 5184SOL    HW122157  10.820   3.324  10.566  0.1064  2.9533 -2.3628
 5184SOL    HW222158  10.890   3.293  10.435 -1.2870  0.5986 -2.6162
 5185SOL     OW22159   8.959  12.003   9.875 -0.7251  0.0827 -0.0438
 5185SOL    HW122160   9.005  11.924   9.844 -1.3186 -0.4286  0.3703
 5185SOL    HW222161   8.997  12.020   9.961  0.1440  0.8669 -0.5633
 5186SOL     OW22162   6.562   0.098  10.830  0.0150 -0.4922  0.4543
 5186SOL    HW122163   6.621   0.077  10.759  0.2510 -1.2751  0.8688
 5186SOL    HW222164   6.476   0.069  10.800 -0.1366  0.4226 -0.0485
 5187SOL     OW22165   1.573   2.752   9.211 -0.6922  0.6712 -0.2699
 5187SOL    HW122166   1.610   2.738   9.123  0.1807 -0.8013  0.3024
 5187SOL    HW222167   1.490   2.706   9.210 -0.3182 -0.0133 -0.0837
 5188SOL     OW22168   9.770   9.647  10.722 -0.6589  0.0738 -0.1667
 5188SOL    HW122169   9.744   9.566  10.678 -1.1688 -0.2549  0.7027
 5188SOL    HW222170   9.791   9.619  10.811 -2.1920  1.0959  0.5497
 5189SOL     OW22171  10.499   3.471   4.605 -0.2010  0.1227 -0.0295
 5189SOL    HW122172  10.442   3.401   4.638 -1.1317  1.2415  0.8258
 5189SOL    HW222173  10.455   3.503   4.526 -0.7262  0.9198  0.5744
 5190SOL     OW22174   9.506   2.965   0.334 -0.3150 -0.5435  0.6097
 5190SOL    HW122175   9.436   2.947   0.271  0.1038 -3.0700  0.7735
 5190SOL    HW222176   9.499   2.895   0.398  2.9603 -1.4952  0.0793
 5191SOL     OW22177   5.234   0.017   8.224  0.1428 -0.3664 -0.5330
 5191SOL    HW122178   5.190  -0.067   8.239 -0.6665  0.0438 -0.5781
 5191SOL    HW222179   5.249   0.052   8.312 -0.6996  0.0428 -0.5501
 5192SOL     OW22180  12.321   5.201   1.196 -0.3500 -0.2283 -0.3049
 5192SOL    HW122181  12.272   5.196   1.278  1.5479  1.5985  1.0518
 5192SOL    HW222182  12.272   5.264   1.143 -0.4601  0.2385  0.3289
 5193SOL     OW22183  11.283   0.940   0.459 -0.0703 -0.3059  0.1468
 5193SOL    HW122184  11.197   0.960   0.424 -0.0211 -1.2822 -0.5795
 5193SOL    HW222185  11.270   0.861   0.511  0.7717 -1.8433 -1.8579
 5194SOL     OW22186  12.479   3.815  10.306  0.5372  0.0086 -0.2560
 5194SOL    HW122187  12.508   3.726  10.285  0.6730  0.3716 -1.7438
 5194SOL    HW222188  12.560   3.864  10.319  0.4536 -0.1979  1.1472
 5195SOL     OW22189   9.939  11.270   5.154  0.4784 -0.2817  0.0483
 5195SOL    HW122190   9.960  11.245   5.244  0.5875  0.4281  0.2277
 5195SOL    HW222191   9.953  11.365   5.152 -1.0308 -0.0428 -0.2954
 5196SOL     OW22192   4.251   1.081   1.844 -0.6544  0.2328  0.3550
 5196SOL    HW122193   4.220   1.159   1.890 -0.1588  0.0531  1.0102
 5196SOL    HW222194   4.171   1.035   1.818 -0.9589  1.1261 -0.3564
 5197SOL     OW22195   4.216  11.286   7.182 -0.2866  0.8844  0.0878
 5197SOL    HW122196   4.198  11.350   7.251  0.1921 -0.7668  1.8647
 5197SOL    HW222197   4.141  11.227   7.184 -1.0864  1.7313 -2.0423
 5198SOL     OW22198  10.414   1.921   7.866  0.0728  0.0848 -0.1030
 5198SOL    HW122199  10.509   1.930   7.869  0.5370 -2.9097 -1.6747
 5198SOL    HW222200  10.382   2.009   7.847  2.7372  0.7141 -2.2729
 5199SOL     OW22201  12.045   1.024   9.428 -0.3259  0.0502 -0.0892
 5199SOL    HW122202  12.132   1.049   9.459 -1.0083  1.4696  0.8094
 5199SOL    HW222203  11.997   1.106   9.423 -1.6927 -0.7282 -0.3161
 5200SOL     OW22204   5.847   5.334   6.062  0.0307  0.3014 -0.0740
 5200SOL    HW122205   5.810   5.295   5.983  0.8168 -1.7027  0.4879
 5200SOL    HW222206   5.895   5.411   6.031 -1.5719  0.9062 -1.2296
 5201SOL     OW22207   8.788   9.999   3.977 -0.0878  0.1899 -0.1054
 5201SOL    HW122208   8.837  10.077   4.004 -0.4600  0.6916 -0.8547
 5201SOL    HW222209   8.781   9.947   4.057  0.4848  0.7487  0.3241
 5202SOL     OW22210   0.220   4.745   5.717 -0.5222 -0.0558 -0.3668
 5202SOL    HW122211   0.167   4.732   5.796  0.2618 -1.4322 -0.0397
 5202SOL    HW222212   0.191   4.830   5.683 -1.8099 -0.0470  0.6655
 5203SOL     OW22213   5.452   2.799   9.056 -0.1689  0.1391 -0.2339
 5203SOL    HW122214   5.450   2.840   9.143 -0.9324 -0.9750  0.3111
 5203SOL    HW222215   5.374   2.833   9.012 -0.6305 -0.4379  0.1055
 5204SOL     OW22216   3.885  12.539   1.690  0.4830  0.1635 -0.0346
 5204SOL    HW122217   3.939  12.470   1.728  1.8518 -0.3809 -2.7083
 5204SOL    HW222218   3.830  12.494   1.626  0.9214  1.3820 -1.3465
 5205SOL     OW22219   1.776   5.330   0.012 -0.0023  0.2875  0.4621
 5205SOL    HW122220   1.778   5.331  -0.083 -2.7841  1.6288  0.3008
 5205SOL    HW222221   1.709   5.265   0.034 -0.4389  1.0272  1.4020
 5206SOL     OW22222   1.617   1.244   1.532 -0.0641  0.4796  0.4791
 5206SOL    HW122223   1.541   1.210   1.581 -1.2355  1.9832 -0.2115
 5206SOL    HW222224   1.668   1.292   1.597 -1.0646  1.5781  0.4962
 5207SOL     OW22225   8.324   5.223   5.090  0.3366  0.4284  0.2093
 5207SOL    HW122226   8.391   5.279   5.130 -0.7411  1.2652  0.9185
 5207SOL    HW222227   8.318   5.254   5.000  2.3393 -1.0488 -0.5112
 5208SOL     OW22228   1.008   9.052   2.712 -0.2212 -0.3659  0.3516
 5208SOL    HW122229   0.982   8.964   2.685 -1.9939  0.5065 -0.9995
 5208SOL    HW222230   1.096   9.064   2.677 -0.3180 -1.2806 -0.2244
 5209SOL     OW22231   9.593   7.140   6.855 -0.2235 -0.2326  0.6376
 5209SOL    HW122232   9.582   7.125   6.761  0.6591 -0.3273  0.5421
 5209SOL    HW222233   9.638   7.062   6.887  0.7235  0.3906  0.8760
 5210SOL     OW22234   3.785  10.157   4.225  0.1236  0.1727  0.0305
 5210SOL    HW122235   3.778  10.153   4.129 -0.1347  1.5688 -0.0352
 5210SOL    HW222236   3.698  10.186   4.254  0.5390  0.8923  0.5828
 5211SOL     OW22237  11.852  11.807   0.540 -0.0909  0.5349 -0.5157
 5211SOL    HW122238  11.898  11.728   0.512 -0.4253 -0.6743  2.0631
 5211SOL    HW222239  11.914  11.851   0.599  0.1144  2.2790 -1.9742
 5212SOL     OW22240   6.831   2.786  10.014 -0.4023  0.6820  0.0629
 5212SOL    HW122241   6.809   2.707  10.064 -2.2571  1.3712  0.4379
 5212SOL    HW222242   6.748   2.833  10.007  0.5717  2.3965 -0.5164
 5213SOL     OW22243   5.570   9.043   6.155  0.3367  0.1541  0.2217
 5213SOL    HW122244   5.549   8.952   6.131 -0.2558 -0.2792  2.2408
 5213SOL    HW222245   5.513   9.096   6.100  0.1585 -0.7094 -0.4532
 5214SOL     OW22246  12.421   6.059  12.341 -0.3234  0.4042  0.3000
 5214SOL    HW122247  12.352   6.081  12.403  0.7462  0.9013  1.3477
 5214SOL    HW222248  12.375   6.025  12.265 -1.9055  3.3162 -0.1713
 5215SOL     OW22249   7.579   0.901  12.274 -0.2172  0.1144  0.0280
 5215SOL    HW122250   7.581   0.816  12.319 -0.5756  0.0907  0.0072
 5215SOL    HW222251   7.668   0.934  12.282  0.2305 -0.7862 -0.9578
 5216SOL     OW22252   3.566  12.092  10.022 -0.2689  0.3101 -0.2049
 5216SOL    HW122253   3.659  12.114  10.010  1.2772 -3.7792  2.2786
 5216SOL    HW222254   3.543  12.044   9.943 -0.2050  1.0454 -0.6814
 5217SOL     OW22255   0.512  11.464   9.266 -0.6329  0.2403 -0.0583
 5217SOL    HW122256   0.421  11.493   9.261 -0.6932 -0.0726 -1.0202
 5217SOL    HW222257   0.506  11.369   9.270 -0.3986  0.2841  1.8869
 5218SOL     OW22258   0.950   1.696   9.277 -0.2747  0.0473  0.2583
 5218SOL    HW122259   0.926   1.623   9.221  0.7026 -0.2630  0.2354
 5218SOL    HW222260   1.028   1.733   9.237 -0.5977  0.9406  0.4244
 5219SOL     OW22261   1.821   2.802   4.808  0.4421  0.3515  0.1654
 5219SOL    HW122262   1.906   2.762   4.786  0.1554  0.6715 -1.7096
 5219SOL    HW222263   1.818   2.882   4.755 -0.3372  1.2222  1.4761
 5220SOL     OW22264   8.150   5.337   9.370  0.7320 -0.8263  0.2146
 5220SOL    HW122265   8.083   5.315   9.306  1.5536  1.9724 -1.8010
 5220SOL    HW222266   8.145   5.267   9.436 -4.0481 -0.8124  0.1825
 5221SOL     OW22267  11.051  10.104   5.686  0.3043  0.0208  0.4386
 5221SOL    HW122268  11.125  10.065   5.639  0.8591 -1.2471  2.2811
 5221SOL    HW222269  10.974  10.057   5.651  0.7705 -1.3678  1.1924
 5222SOL     OW22270  10.364   1.531   5.089  0.0576  0.3518 -0.4977
 5222SOL    HW122271  10.310   1.593   5.138 -1.0795 -0.8836 -0.1228
 5222SOL    HW222272  10.448   1.530   5.136  0.5733  2.4890 -1.2420
 5223SOL     OW22273   7.059   6.713   6.310 -0.4785  0.0092 -0.6907
 5223SOL    HW122274   7.026   6.801   6.330 -2.1992 -0.5491 -0.8758
 5223SOL    HW222275   6.996   6.678   6.247  1.1661 -0.7301 -1.9877
 5224SOL     OW22276   3.863   3.915   8.132  0.4449  0.0607  1.0224
 5224SOL    HW122277   3.801   3.918   8.060  0.5310 -0.9654  0.8930
 5224SOL    HW222278   3.854   3.827   8.168  0.7487  0.4009  1.9597
 5225SOL     OW22279  11.967   2.462   0.463  0.8520  0.0654 -0.2730
 5225SOL    HW122280  11.939   2.373   0.443  0.7009 -0.1122  0.6841
 5225SOL    HW222281  11.986   2.501   0.378 -2.4629  0.2755 -1.0334
 5226SOL     OW22282   3.930   6.067   1.358  0.0336  0.7419  0.0354
 5226SOL    HW122283   3.941   6.024   1.273  2.1231  0.7728  0.2303
 5226SOL    HW222284   3.857   6.127   1.346  0.8103  1.3542 -2.0089
 5227SOL     OW22285   6.222   9.382   5.492  0.6813 -0.0166  0.0379
 5227SOL    HW122286   6.231   9.305   5.550 -0.7771 -1.2547 -1.3092
 5227SOL    HW222287   6.280   9.362   5.418  0.8080  0.5033 -0.0025
 5228SOL     OW22288   1.653  10.854   7.238 -0.1535  0.0713 -0.2100
 5228SOL    HW122289   1.719  10.805   7.187  1.0365  1.9223 -0.5792
 5228SOL    HW222290   1.598  10.895   7.171  1.0918  2.0835 -0.1069
 5229SOL     OW22291   5.084   7.654  11.726  0.4779 -0.2378 -0.0785
 5229SOL    HW122292   5.105   7.745  11.747  0.1489 -0.3657  0.8357
 5229SOL    HW222293   5.020   7.660  11.654  0.2810  0.2526  0.1318
 5230SOL     OW22294   3.780  10.151   2.719  0.2524 -0.4907  0.2552
 5230SOL    HW122295   3.764  10.157   2.625 -1.8793  0.0752  0.5851
 5230SOL    HW222296   3.870  10.121   2.727  0.1085 -1.7201 -1.9812
 5231SOL     OW22297   1.748   5.223   8.150  0.3719 -0.3066  0.4141
 5231SOL    HW122298   1.673   5.216   8.210  0.4979  1.8130  0.9175
 5231SOL    HW222299   1.821   5.187   8.200  0.1987  0.1488  1.0159
 5232SOL     OW22300  10.029   6.747   2.917 -0.4790 -0.3796  0.3194
 5232SOL    HW122301  10.122   6.761   2.938 -0.5315 -0.3155  0.5101
 5232SOL    HW222302  10.003   6.674   2.973 -0.8836  0.4489  1.2327
 5233SOL     OW22303   7.232   5.976   6.506  0.1180  0.4911  0.2176
 5233SOL    HW122304   7.283   5.896   6.491  1.7492  1.6325 -0.4996
 5233SOL    HW222305   7.296   6.046   6.511 -1.2108  1.6792  1.8055
 5234SOL     OW22306   5.481   1.018   0.625  0.2188  0.4356  0.0309
 5234SOL    HW122307   5.426   1.092   0.652 -0.2125 -0.0788  0.5978
 5234SOL    HW222308   5.497   0.970   0.707  0.7227  0.0502 -0.2886
 5235SOL     OW22309   7.310  11.355   8.938  0.1753  0.0941 -0.1227
 5235SOL    HW122310   7.389  11.329   8.986 -0.5506  1.1993  1.7843
 5235SOL    HW222311   7.261  11.409   9.000 -1.1796  1.0199 -1.9176
 5236SOL     OW22312   8.665  11.295   1.564 -0.0698 -0.3104 -0.0105
 5236SOL    HW122313   8.745  11.303   1.617 -0.3630  1.3979  0.2212
 5236SOL    HW222314   8.615  11.373   1.585 -1.6887 -1.2118 -0.3856
 5237SOL     OW22315   3.951   4.380  12.636 -0.8165  0.1880  0.1236
 5237SOL    HW122316   3.897   4.301  12.643 -0.3414 -0.0714  1.0560
 5237SOL    HW222317   4.041   4.349  12.645 -0.6688  0.9285  1.5209
 5238SOL     OW22318   2.148   0.491  11.285  0.1003  0.3314  0.7597
 5238SOL    HW122319   2.202   0.421  11.323  0.9701  0.5558 -0.0073
 5238SOL    HW222320   2.059   0.470  11.312  0.7189  0.8162  3.4191
 5239SOL     OW22321  12.651   1.109   4.452 -0.6251  0.3982 -0.2280
 5239SOL    HW122322  12.681   1.171   4.519  0.5909 -0.1046 -0.2998
 5239SOL    HW222323  12.726   1.095   4.396 -0.7760 -1.3848 -0.0402
 5240SOL     OW22324  11.612   1.656   9.707  0.1600 -0.2275 -0.2070
 5240SOL    HW122325  11.595   1.624   9.619  0.6231  2.9722 -1.6069
 5240SOL    HW222326  11.604   1.751   9.700  0.9989  0.2144  3.0420
 5241SOL     OW22327   6.051  10.698  10.013 -0.1398  0.0056 -0.0090
 5241SOL    HW122328   6.143  10.672  10.020 -0.1499  0.1556  0.7614
 5241SOL    HW222329   6.049  10.758   9.938  0.1498 -0.9955 -0.8610
 5242SOL     OW22330   8.360   3.825   9.008 -0.1202 -0.0270 -0.4326
 5242SOL    HW122331   8.413   3.831   9.088 -1.2523  0.6938  0.3006
 5242SOL    HW222332   8.327   3.914   8.995  1.7177  0.4257 -2.9534
 5243SOL     OW22333   7.780   7.212   9.221  0.0196  0.0857 -0.4490
 5243SOL    HW122334   7.705   7.264   9.193 -1.2188 -0.4139  1.7511
 5243SOL    HW222335   7.829   7.269   9.281 -0.3096 -0.6137  0.5058
 5244SOL     OW22336  11.634   3.138   0.095  0.0226  0.1043 -0.1869
 5244SOL    HW122337  11.668   3.173   0.178 -0.3530 -1.5924  0.7305
 5244SOL    HW222338  11.589   3.057   0.120  1.4463 -1.4341 -2.2841
 5245SOL     OW22339   4.094   5.389   9.166  0.1620  0.7679  0.1272
 5245SOL    HW122340   4.172   5.400   9.113  1.4591  1.0423  2.0178
 5245SOL    HW222341   4.124   5.348   9.247 -1.2990  2.5989  1.7074
 5246SOL     OW22342  12.691   4.918   6.871 -0.1295  0.1104 -0.5957
 5246SOL    HW122343  12.625   4.915   6.801 -1.8472 -0.1943  0.9644
 5246SOL    HW222344  12.676   5.001   6.915 -0.5363 -0.6365  0.7322
 5247SOL     OW22345   7.270   3.829   4.837  0.2982  0.3609  0.2974
 5247SOL    HW122346   7.214   3.754   4.858  0.5111 -0.0542 -0.5663
 5247SOL    HW222347   7.211   3.894   4.800  0.2107  0.3600  0.4377
 5248SOL     OW22348  12.110   3.708   1.364  0.1631  0.2064 -0.8571
 5248SOL    HW122349  12.163   3.722   1.285  0.7768 -2.1505 -0.9453
 5248SOL    HW222350  12.165   3.655   1.421 -1.6120 -1.3106 -0.4390
 5249SOL     OW22351  10.148   8.179  10.958 -0.2464  0.2994 -0.6982
 5249SOL    HW122352  10.215   8.111  10.949  0.8464  1.5631 -2.9943
 5249SOL    HW222353  10.068   8.138  10.926  0.1043 -0.2957 -0.8261
 5250SOL     OW22354   6.187  11.533  11.303 -0.0949  0.2085  0.2399
 5250SOL    HW122355   6.144  11.615  11.277 -0.1255 -0.4206 -1.8400
 5250SOL    HW222356   6.199  11.485  11.221  1.5677 -1.0938  1.1862
 5251SOL     OW22357   9.982   8.815   0.638 -0.9880 -0.2787  0.1126
 5251SOL    HW122358  10.024   8.832   0.554 -0.5950  0.2247  0.4096
 5251SOL    HW222359   9.970   8.720   0.640  0.8585 -0.5555  0.3437
 5252SOL     OW22360  10.985   7.873   0.805  0.1582 -0.1952  0.0863
 5252SOL    HW122361  10.972   7.786   0.843  0.2562 -0.8947 -1.4173
 5252SOL    HW222362  10.985   7.858   0.711  0.7774  1.3663 -0.1851
 5253SOL     OW22363  10.047   1.026  12.039 -0.4621  0.2939  0.0500
 5253SOL    HW122364  10.096   1.042  11.958  0.8641  0.4740  0.8676
 5253SOL    HW222365  10.062   0.934  12.059  0.8400  0.7095  1.1146
 5254SOL     OW22366   5.507   2.472  12.787 -0.7463  0.0916  0.6040
 5254SOL    HW122367   5.430   2.437  12.831 -0.1588 -0.4474  1.2339
 5254SOL    HW222368   5.475   2.549  12.741 -1.3355  0.8699  2.2236
 5255SOL     OW22369   4.582   1.222  11.914  0.6321  0.2701 -0.1948
 5255SOL    HW122370   4.610   1.150  11.970 -0.8617  0.7079  1.1764
 5255SOL    HW222371   4.500   1.253  11.952  0.1028  1.3002 -2.0065
 5256SOL     OW22372   8.241   5.810  11.318 -0.3789 -0.6398 -0.1010
 5256SOL    HW122373   8.290   5.821  11.237 -0.1849  0.1801  0.1178
 5256SOL    HW222374   8.230   5.716  11.328  2.0380 -0.9356  0.3737
 5257SOL     OW22375  12.085  10.541  10.968 -0.2557  0.2609 -0.3495
 5257SOL    HW122376  12.120  10.567  10.883 -0.9611  0.3469 -0.6220
 5257SOL    HW222377  12.035  10.617  10.998  1.6420  0.9980  1.0928
 5258SOL     OW22378  12.355   6.623   5.373  0.0206 -0.0329 -0.2139
 5258SOL    HW122379  12.368   6.703   5.424 -0.8940  0.2152 -0.3425
 5258SOL    HW222380  12.425   6.623   5.308  0.8727 -0.0717  0.6814
 5259SOL     OW22381   3.418   8.604   2.701 -0.6693 -0.0611 -0.8096
 5259SOL    HW122382   3.400   8.565   2.787 -2.5708  0.3363 -0.9688
 5259SOL    HW222383   3.412   8.698   2.715 -0.4305  0.0239 -1.2613
 5260SOL     OW22384  12.362   7.806   5.083  0.7047  0.1735 -0.1523
 5260SOL    HW122385  12.399   7.723   5.115 -0.8300 -0.3463  0.3318
 5260SOL    HW222386  12.285   7.821   5.138  1.8858  2.8574  0.9937
 5261SOL     OW22387   9.486   4.904   2.830  0.1708 -0.6029  0.1417
 5261SOL    HW122388   9.481   4.939   2.741 -1.3397 -1.3159 -0.0914
 5261SOL    HW222389   9.521   4.816   2.820  0.5503 -0.4780  0.3315
 5262SOL     OW22390   0.485   5.320   5.848  0.0244 -0.7871  0.3646
 5262SOL    HW122391   0.509   5.380   5.918 -0.0688  0.1804 -0.4180
 5262SOL    HW222392   0.523   5.236   5.874 -0.7459 -0.6696  1.9949
 5263SOL     OW22393   0.566  12.449  12.124  0.0606  0.0241  0.2254
 5263SOL    HW122394   0.549  12.505  12.200 -0.3307  1.5171 -0.9249
 5263SOL    HW222395   0.552  12.360  12.157 -0.8473  0.6740  1.7075
 5264SOL     OW22396   4.557   0.557   9.191 -0.2036  0.3086  0.2400
 5264SOL    HW122397   4.531   0.616   9.121 -1.8324  0.1091  0.6480
 5264SOL    HW222398   4.557   0.611   9.270  1.5407  0.5133  0.1396
 5265SOL     OW22399  11.522   4.888   8.636  0.2843  0.7048 -0.2245
 5265SOL    HW122400  11.519   4.976   8.599  0.4418  1.2013  0.9020
 5265SOL    HW222401  11.436   4.876   8.676  0.0624  0.1193 -0.8644
 5266SOL     OW22402  11.505   3.922  12.054  0.3170 -0.0109 -0.0327
 5266SOL    HW122403  11.498   3.866  11.977 -1.6380 -0.5706  0.4970
 5266SOL    HW222404  11.474   4.008  12.025  0.0996 -0.0838 -0.0201
 5267SOL     OW22405  10.674  10.255  11.636  0.1358  0.3064  0.1876
 5267SOL    HW122406  10.629  10.237  11.553  0.6110 -1.9329  0.3449
 5267SOL    HW222407  10.606  10.246  11.703  0.2061 -0.1509  0.2003
 5268SOL     OW22408   3.601   7.197   0.684  0.4080  0.1974 -0.1262
 5268SOL    HW122409   3.576   7.224   0.773 -0.3893 -1.9574  0.3797
 5268SOL    HW222410   3.691   7.165   0.693 -0.3200 -1.8389  0.3903
 5269SOL     OW22411   0.663   9.838   0.912  0.1959 -0.2690  0.8509
 5269SOL    HW122412   0.733   9.775   0.927  0.4630  0.3427  2.4748
 5269SOL    HW222413   0.678   9.906   0.979 -1.0747  0.6277  0.2668
 5270SOL     OW22414   2.941  11.918  11.319 -0.0978 -0.5426  0.1201
 5270SOL    HW122415   2.940  11.927  11.414 -1.7766  0.7020  0.0393
 5270SOL    HW222416   2.898  11.835  11.302  0.1542 -0.7425  0.4518
 5271SOL     OW22417   6.029   2.389  12.587  0.1291  0.0962 -0.2786
 5271SOL    HW122418   6.041   2.454  12.657 -0.2409 -0.3549  0.2095
 5271SOL    HW222419   5.937   2.363  12.593  0.7411 -2.0565  0.9624
 5272SOL     OW22420  11.258   2.673   8.173  0.1412  0.5641 -0.2166
 5272SOL    HW122421  11.311   2.689   8.251 -1.3564  0.5454  0.8592
 5272SOL    HW222422  11.191   2.741   8.175 -0.4745  0.0098 -0.9794
 5273SOL     OW22423   2.810   3.323   8.283 -0.0045 -0.1957 -0.0975
 5273SOL    HW122424   2.725   3.321   8.326  0.8281 -0.0418  1.6445
 5273SOL    HW222425   2.823   3.415   8.258  0.8019  0.3647  2.1645
 5274SOL     OW22426   9.692  12.776   3.082  0.1304 -0.1642  0.0363
 5274SOL    HW122427   9.710  12.682   3.083 -0.5399 -0.2991 -0.1293
 5274SOL    HW222428   9.682  12.797   2.989 -0.4214 -0.0719  0.1137
 5275SOL     OW22429   5.783   2.973   5.561 -0.4259 -0.1529 -0.3493
 5275SOL    HW122430   5.813   3.043   5.504  0.1326 -0.1668 -0.0843
 5275SOL    HW222431   5.743   2.909   5.503 -0.8470  0.3322 -0.6046
 5276SOL     OW22432   1.137   8.697   4.715  0.4848 -0.0047  0.0779
 5276SOL    HW122433   1.140   8.606   4.684  0.1273 -0.0772  0.2518
 5276SOL    HW222434   1.054   8.704   4.762  0.3184  0.5343 -0.2935
 5277SOL     OW22435   3.267   0.246   9.313  0.6272  0.0444 -0.0533
 5277SOL    HW122436   3.359   0.268   9.297  0.2630  0.5618 -1.4952
 5277SOL    HW222437   3.249   0.282   9.400  1.7641 -0.0312  0.2285
 5278SOL     OW22438   6.675  11.341  10.700 -0.2346  0.5045 -0.7796
 5278SOL    HW122439   6.629  11.394  10.635 -1.7622 -2.4369 -2.2832
 5278SOL    HW222440   6.638  11.369  10.784 -1.4725  1.3304 -1.5655
 5279SOL     OW22441  11.438   0.266   2.902  0.4630 -0.0269 -0.3588
 5279SOL    HW122442  11.440   0.175   2.874 -5.1344 -0.8534  0.7680
 5279SOL    HW222443  11.430   0.316   2.821  1.0915 -0.7234 -0.8680
 5280SOL     OW22444   9.022   5.698   6.170 -0.3722  0.3894  0.3536
 5280SOL    HW122445   8.998   5.759   6.239 -0.1983  1.0562 -0.1681
 5280SOL    HW222446   8.951   5.705   6.106 -0.0069  0.5576 -0.0353
 5281SOL     OW22447   9.926   6.451   4.213  0.2786  0.0032  0.2590
 5281SOL    HW122448   9.993   6.513   4.184 -0.8165  1.3371  0.4883
 5281SOL    HW222449   9.895   6.485   4.296 -0.6529 -0.6177  0.1885
 5282SOL     OW22450   8.322   2.780   0.788  0.5418 -0.0993  0.0706
 5282SOL    HW122451   8.362   2.693   0.800  0.4780 -0.0717  0.4881
 5282SOL    HW222452   8.261   2.788   0.861 -0.5812 -0.3347 -0.8133
 5283SOL     OW22453  12.414   9.111  10.661  0.3774  0.3811 -0.2959
 5283SOL    HW122454  12.463   9.182  10.701 -0.8671  0.3476  1.3783
 5283SOL    HW222455  12.356   9.155  10.598 -0.5461  0.9086  0.8893
 5284SOL     OW22456   9.180   5.405   8.595 -0.0116  0.0723 -0.3477
 5284SOL    HW122457   9.239   5.348   8.546 -0.5641 -0.7822 -0.0462
 5284SOL    HW222458   9.136   5.458   8.528  1.0909  0.7323 -0.5721
 5285SOL     OW22459   8.033   3.068   3.465  0.2597  0.4964  0.0721
 5285SOL    HW122460   7.995   2.993   3.511  0.6781  0.6749  0.7177
 5285SOL    HW222461   8.097   3.104   3.526  0.6799  0.8640 -0.5708
 5286SOL     OW22462   7.729   4.260   1.697  0.7597  0.2656 -0.0998
 5286SOL    HW122463   7.781   4.242   1.618  0.5735  1.9849 -0.6676
 5286SOL    HW222464   7.793   4.283   1.763  0.8310  0.3429 -0.1959
 5287SOL     OW22465   2.877   9.927   8.179 -0.1134  0.3647  0.4865
 5287SOL    HW122466   2.864  10.015   8.214  3.2034  1.0215  0.3813
 5287SOL    HW222467   2.909   9.876   8.253  0.2635 -0.0928  0.0194
 5288SOL     OW22468   0.333   5.818   8.838  0.4861 -0.1422 -0.1294
 5288SOL    HW122469   0.417   5.823   8.883  0.6513 -2.0976 -0.1178
 5288SOL    HW222470   0.353   5.840   8.747  1.6883 -3.4361 -0.7900
 5289SOL     OW22471   4.141   4.392  11.644 -0.1077  0.0954  0.0122
 5289SOL    HW122472   4.196   4.330  11.597 -0.0866 -0.1293  0.3239
 5289SOL    HW222473   4.092   4.338  11.706 -1.1274  0.2158 -0.6678
 5290SOL     OW22474   2.660   1.029   6.399  0.7245 -0.0671 -0.4600
 5290SOL    HW122475   2.638   0.972   6.325 -2.1209 -0.2350  0.4219
 5290SOL    HW222476   2.720   0.976   6.452  0.8996 -0.8741 -1.4156
 5291SOL     OW22477   4.460  10.569   2.709  0.0135  0.1277  0.1743
 5291SOL    HW122478   4.449  10.586   2.803  0.1055  1.5029 -0.0491
 5291SOL    HW222479   4.422  10.645   2.666 -0.5214 -0.7460 -0.9399
 5292SOL     OW22480   7.388  12.692  11.202 -0.0864  0.4220 -0.1007
 5292SOL    HW122481   7.365  12.601  11.220 -0.1737  0.4109 -0.2642
 5292SOL    HW222482   7.365  12.739  11.282  0.6832  0.1772  0.2622
 5293SOL     OW22483   5.680   8.645   4.265  0.2207  0.1964  0.1323
 5293SOL    HW122484   5.603   8.588   4.264 -0.3298  0.8917  1.1505
 5293SOL    HW222485   5.705   8.651   4.357 -0.0523  2.0037  0.1295
 5294SOL     OW22486   3.719   9.541  12.036 -0.2665 -0.4018  0.3549
 5294SOL    HW122487   3.811   9.541  12.010 -0.1764 -0.2624  0.6655
 5294SOL    HW222488   3.699   9.633  12.052 -0.7395 -0.3120 -0.6717
 5295SOL     OW22489   8.987  11.206  10.069  1.2636  0.0301 -0.4482
 5295SOL    HW122490   9.036  11.256  10.004  1.1220 -1.0269 -1.3858
 5295SOL    HW222491   8.955  11.130  10.022 -1.0042  0.4985  0.2239
 5296SOL     OW22492   1.757  10.458  10.827 -0.6357  0.2395 -0.1050
 5296SOL    HW122493   1.684  10.421  10.777 -0.2259 -0.8590  0.0897
 5296SOL    HW222494   1.802  10.382  10.863  0.7857  0.8908 -0.4609
 5297SOL     OW22495   8.355   8.523   0.100 -0.0593 -0.1154 -0.1993
 5297SOL    HW122496   8.444   8.508   0.132 -0.5650 -0.7681  0.9816
 5297SOL    HW222497   8.306   8.549   0.178 -0.9392  0.0665 -0.8023
 5298SOL     OW22498   1.147   9.901   9.177  0.3016 -0.0920 -0.0933
 5298SOL    HW122499   1.182   9.969   9.233  0.5129  0.0776 -0.4290
 5298SOL    HW222500   1.198   9.823   9.199  2.8318  0.7493 -2.4797
 5299SOL     OW22501   4.397   0.190  11.744 -0.1048  0.5111 -0.7868
 5299SOL    HW122502   4.359   0.113  11.787 -1.4062  2.1549  1.2316
 5299SOL    HW222503   4.327   0.223  11.688 -1.1802  2.4928  1.5317
 5300SOL     OW22504   4.636   4.343   1.013  0.0213  0.2406 -0.2123
 5300SOL    HW122505   4.609   4.417   1.068 -0.6735 -0.4445  0.3904
 5300SOL    HW222506   4.729   4.358   0.996 -0.2583  1.6086 -0.6590
 5301SOL     OW22507   0.596   2.120   5.325 -0.6867  0.5891  0.2646
 5301SOL    HW122508   0.573   2.032   5.354  0.7022 -0.1345 -0.7223
 5301SOL    HW222509   0.517   2.172   5.342 -1.9426 -1.0860 -0.1670
 5302SOL     OW22510   4.212   2.463  11.735 -0.6283  0.6352  0.0295
 5302SOL    HW122511   4.182   2.432  11.649 -0.3302 -1.9270  0.7756
 5302SOL    HW222512   4.283   2.524  11.715  0.4847 -1.0754 -1.5774
 5303SOL     OW22513  11.641   0.432   7.066  0.1887 -0.0237  0.7434
 5303SOL    HW122514  11.709   0.473   7.120  1.3495 -1.5714  0.5278
 5303SOL    HW222515  11.608   0.361   7.121  0.4581 -0.7919 -0.0731
 5304SOL     OW22516  11.621   5.498   0.559 -0.8484 -0.2224  0.3070
 5304SOL    HW122517  11.679   5.522   0.487 -0.4689 -0.3643  0.5617
 5304SOL    HW222518  11.657   5.542   0.636 -1.3580  0.0773  0.3756
 5305SOL     OW22519   6.037   5.691   5.464 -0.0513 -0.2578 -0.4428
 5305SOL    HW122520   5.969   5.756   5.447  0.7230  0.3457 -1.3850
 5305SOL    HW222521   6.008   5.612   5.419 -1.2393 -0.7570  1.1196
 5306SOL     OW22522   6.967   8.440   6.651 -0.1781 -0.4506  0.4725
 5306SOL    HW122523   6.975   8.514   6.711 -1.2866 -1.6904  2.2180
 5306SOL    HW222524   6.877   8.410   6.662  0.2753 -2.1149 -0.1477
 5307SOL     OW22525   7.772   8.754   1.641 -0.0491 -0.1017  0.0178
 5307SOL    HW122526   7.782   8.842   1.604  0.5732  1.0541  2.7195
 5307SOL    HW222527   7.814   8.697   1.577 -2.2843  1.1918 -2.8801
 5308SOL     OW22528   7.342   9.584   6.978 -0.4162 -0.9057  0.0330
 5308SOL    HW122529   7.364   9.662   6.926  1.2048  0.5669  2.6984
 5308SOL    HW222530   7.250   9.595   7.000  0.0906  1.1185  1.5115
 5309SOL     OW22531   7.776   2.626   1.759 -0.0403 -0.2526 -0.1471
 5309SOL    HW122532   7.816   2.593   1.840  0.8262 -0.3694 -0.6020
 5309SOL    HW222533   7.704   2.565   1.741 -0.4360 -0.0403  0.6957
 5310SOL     OW22534   5.990   4.717  12.656  0.0787  0.0807  0.8992
 5310SOL    HW122535   5.919   4.652  12.652  1.1336 -1.1385  1.3444
 5310SOL    HW222536   5.993   4.742  12.749  0.6411 -0.3389  0.9932
 5311SOL     OW22537   1.942   1.761   7.537 -0.1951  0.0327 -0.8399
 5311SOL    HW122538   1.986   1.829   7.587 -0.4842 -1.1840  1.1516
 5311SOL    HW222539   1.965   1.780   7.446  2.5197  0.8181 -0.0888
 5312SOL     OW22540   6.272   7.980   2.865  0.1350 -0.1295  0.1430
 5312SOL    HW122541   6.350   7.987   2.921 -0.8432  1.0575  1.4082
 5312SOL    HW222542   6.308   7.962   2.778  1.8176  0.0166  0.7588
 5313SOL     OW22543   7.212   8.482   0.825 -0.3027 -0.0571  0.1554
 5313SOL    HW122544   7.269   8.552   0.794 -0.7084  0.0580 -0.3428
 5313SOL    HW222545   7.127   8.501   0.786 -0.4721 -0.6995  0.1969
 5314SOL     OW22546   7.303   6.119   1.337 -0.4813 -0.5490  0.3976
 5314SOL    HW122547   7.364   6.192   1.325 -0.7314 -0.3662  0.2270
 5314SOL    HW222548   7.359   6.043   1.352 -0.0533 -0.9574 -2.5863
 5315SOL     OW22549   9.379   9.555   3.991  0.3057 -0.0264 -0.6654
 5315SOL    HW122550   9.358   9.626   4.051 -0.5717 -0.1174 -0.8570
 5315SOL    HW222551   9.298   9.540   3.942  0.5706 -0.9642 -0.8289
 5316SOL     OW22552   6.068   3.221   4.613 -0.3086 -0.0658  0.5820
 5316SOL    HW122553   5.981   3.195   4.644 -0.6573  0.7246  0.2830
 5316SOL    HW222554   6.107   3.267   4.687  0.6652 -2.1132  1.4402
 5317SOL     OW22555  12.738   2.132   0.876 -0.2516 -0.8746  0.6740
 5317SOL    HW122556  12.828   2.138   0.908 -0.1657 -3.1356  0.9925
 5317SOL    HW222557  12.684   2.136   0.955 -0.4652  0.4327  0.4864
 5318SOL     OW22558   7.185  11.648   6.444 -0.1982 -0.3263  0.0320
 5318SOL    HW122559   7.204  11.571   6.390 -0.2133  0.4915 -1.1655
 5318SOL    HW222560   7.216  11.722   6.393  1.1138  0.4083  1.7580
 5319SOL     OW22561  10.580  12.416  10.038  0.2933 -0.1326 -0.1502
 5319SOL    HW122562  10.548  12.328  10.020  0.6272 -0.7522  1.9630
 5319SOL    HW222563  10.663  12.402  10.084  1.0804  1.3351 -1.0347
 5320SOL     OW22564   6.467  10.714   5.074  0.4540 -0.1590  0.1653
 5320SOL    HW122565   6.379  10.714   5.034  0.6838  0.3643 -0.3658
 5320SOL    HW222566   6.480  10.624   5.103 -1.0578  0.1600  2.0589
 5321SOL     OW22567   3.260   9.863   5.708  0.2289 -0.7395 -0.2465
 5321SOL    HW122568   3.327   9.880   5.774 -0.4053 -0.9964  0.4854
 5321SOL    HW222569   3.253   9.768   5.704 -1.2278 -0.7363  0.9229
 5322SOL     OW22570   1.256   1.461   5.514  0.1476  0.3439  0.3778
 5322SOL    HW122571   1.255   1.427   5.604 -0.1857  0.0828  0.2784
 5322SOL    HW222572   1.188   1.528   5.513  0.0059  0.2003  0.2680
 5323SOL     OW22573   4.280   1.900   4.053 -0.1192 -0.0452  0.0239
 5323SOL    HW122574   4.327   1.831   4.100 -1.7054 -1.6516 -0.6609
 5323SOL    HW222575   4.268   1.865   3.965 -0.2692  1.4719 -0.5990
 5324SOL     OW22576  11.585   1.247   5.629 -0.1637  0.0133 -0.4027
 5324SOL    HW122577  11.563   1.310   5.560 -0.5943 -2.3185 -2.5668
 5324SOL    HW222578  11.501   1.206   5.652  0.4380 -2.1346 -1.6510
 5325SOL     OW22579  10.146  12.540   6.114  0.2894 -0.0603  0.3591
 5325SOL    HW122580  10.114  12.452   6.096 -1.2851  0.5601 -0.0311
 5325SOL    HW222581  10.237  12.528   6.143  0.7195 -1.6581 -1.4647
 5326SOL     OW22582  10.122   7.527   9.795  0.1791  0.3690 -0.1777
 5326SOL    HW122583  10.103   7.460   9.861  0.6065 -1.3637 -1.7462
 5326SOL    HW222584  10.143   7.605   9.847 -1.4082 -0.3473  1.7071
 5327SOL     OW22585   3.394  11.480   3.412 -0.5101 -0.1641 -0.4654
 5327SOL    HW122586   3.325  11.426   3.451 -0.2154 -2.2677 -2.6380
 5327SOL    HW222587   3.475  11.447   3.452 -0.2686 -1.9117 -2.2142
 5328SOL     OW22588   0.586  12.298   0.429  0.3488 -0.1135  0.2421
 5328SOL    HW122589   0.639  12.344   0.364  1.9427 -1.9050  0.1830
 5328SOL    HW222590   0.641  12.225   0.457 -1.4064 -0.9909  1.5694
 5329SOL     OW22591  12.325   0.651   8.142  0.2654  0.0559  0.2388
 5329SOL    HW122592  12.307   0.695   8.224  0.0060  1.7939 -0.7123
 5329SOL    HW222593  12.241   0.651   8.095  1.0486  1.8759 -1.2837
 5330SOL     OW22594   7.707   8.871   5.359 -0.5762 -0.0542  0.6150
 5330SOL    HW122595   7.725   8.948   5.305 -0.5467 -1.0481 -0.8435
 5330SOL    HW222596   7.781   8.867   5.420  0.2403  0.1864 -0.3378
 5331SOL     OW22597   4.156   5.966  10.177 -0.2911  0.5611  0.8920
 5331SOL    HW122598   4.077   5.975  10.125  0.4478 -0.6769 -0.5219
 5331SOL    HW222599   4.142   6.023  10.253 -1.9109  1.4682 -0.0423
 5332SOL     OW22600  12.294  11.053   7.654 -0.2361 -0.3296 -0.2326
 5332SOL    HW122601  12.364  11.115   7.674 -1.3588  0.6748  0.7349
 5332SOL    HW222602  12.339  10.970   7.639  1.1653  0.3163  0.2346
 5333SOL     OW22603   4.900  11.225   2.781 -0.0157  0.3727 -0.0703
 5333SOL    HW122604   4.829  11.166   2.804  0.1619 -1.0585 -2.8665
 5333SOL    HW222605   4.860  11.292   2.726  0.7409 -0.4296 -1.6445
 5334SOL     OW22606   8.359  10.085  11.050  0.0900 -0.0486 -0.1114
 5334SOL    HW122607   8.294  10.060  10.984  1.1625 -0.0906 -1.1945
 5334SOL    HW222608   8.441  10.092  11.001  0.9504 -0.2109  1.2502
 5335SOL     OW22609  10.619  11.280  11.140 -0.1168  0.2810  0.2855
 5335SOL    HW122610  10.701  11.234  11.122 -0.8150 -0.6693 -0.5204
 5335SOL    HW222611  10.613  11.346  11.071 -0.2755  0.0130  0.0409
 5336SOL     OW22612   3.764   6.293   9.080 -0.2534 -0.1392 -0.2631
 5336SOL    HW122613   3.857   6.285   9.060  0.0086  0.0991  0.7872
 5336SOL    HW222614   3.720   6.247   9.009  0.6862 -0.6784 -0.5140
 5337SOL     OW22615   5.534   7.419  11.665 -0.2032 -0.4146 -0.4544
 5337SOL    HW122616   5.456   7.419  11.721  0.8418  0.8402  1.0595
 5337SOL    HW222617   5.504   7.456  11.582 -1.2456 -0.0963  0.0472
 5338SOL     OW22618   7.409  10.282   8.657 -0.0284 -0.0689  0.5266
 5338SOL    HW122619   7.368  10.347   8.599 -0.9937 -1.7561 -0.7683
 5338SOL    HW222620   7.431  10.209   8.599  2.5499 -0.2765  1.6467
 5339SOL     OW22621  12.743  11.573   0.020 -0.3351 -0.5187  0.4840
 5339SOL    HW122622  12.670  11.574   0.082  1.1171 -1.0112  2.2508
 5339SOL    HW222623  12.818  11.542   0.070  0.8283 -1.3148 -1.6173
 5340SOL     OW22624   3.830   8.143   7.881 -0.2226 -0.2764  0.7104
 5340SOL    HW122625   3.906   8.158   7.937  0.2581 -1.6816  0.4831
 5340SOL    HW222626   3.860   8.164   7.793 -0.2779 -0.2530  0.6967
 5341SOL     OW22627  12.553  11.224  11.226 -0.4184  0.2589  0.2276
 5341SOL    HW122628  12.496  11.276  11.283  0.2557  1.5265 -0.2240
 5341SOL    HW222629  12.634  11.214  11.277  0.3765  1.8295 -0.6474
 5342SOL     OW22630   5.693   9.534   8.633  0.2509  0.4837 -0.5416
 5342SOL    HW122631   5.749   9.605   8.666  0.5864  1.0757 -2.2641
 5342SOL    HW222632   5.755   9.469   8.600 -0.0645 -0.4183  0.5760
 5343SOL     OW22633   5.913   8.128   6.204  0.7459 -0.0906 -0.5143
 5343SOL    HW122634   5.921   8.046   6.155  0.2169 -0.4320 -0.0421
 5343SOL    HW222635   5.863   8.104   6.282  4.2719 -0.3035  1.8728
 5344SOL     OW22636   6.131   4.203   2.122  0.2583  0.0614 -0.3459
 5344SOL    HW122637   6.212   4.206   2.174 -0.1431 -1.2028  0.4079
 5344SOL    HW222638   6.128   4.114   2.086 -0.2466  0.4438 -1.2870
 5345SOL     OW22639   0.688  11.267   7.068 -0.0237  0.1558  0.2652
 5345SOL    HW122640   0.776  11.278   7.034  0.4660 -0.7154  1.1962
 5345SOL    HW222641   0.635  11.245   6.991  0.7328 -0.1553 -0.1772
 5346SOL     OW22642   2.937  10.428   0.660  0.1482 -0.1633 -0.5109
 5346SOL    HW122643   2.979  10.478   0.590  0.2469  1.2078  0.4889
 5346SOL    HW222644   2.940  10.337   0.629  0.6985  0.3261 -2.0154
 5347SOL     OW22645   2.320  11.172   9.917  0.5578 -0.0325 -0.1312
 5347SOL    HW122646   2.393  11.134   9.869  0.0206 -0.8435 -0.3226
 5347SOL    HW222647   2.245  11.117   9.895 -0.5272  1.8159 -1.3705
 5348SOL     OW22648   4.656  10.969   5.735  0.3309  0.1401  0.8553
 5348SOL    HW122649   4.651  10.933   5.823  0.2568 -1.1491  0.3443
 5348SOL    HW222650   4.665  10.893   5.678 -3.5925  0.5271 -0.6017
 5349SOL     OW22651   6.897   5.250   0.863 -0.1335 -0.1301 -0.4408
 5349SOL    HW122652   6.869   5.285   0.947  0.5780  0.0819 -0.2853
 5349SOL    HW222653   6.936   5.165   0.883  0.6623  0.2161 -0.4493
 5350SOL     OW22654   6.587   9.261   2.552 -0.0211 -0.4173 -0.1470
 5350SOL    HW122655   6.513   9.235   2.497 -0.4754  1.3107 -0.4121
 5350SOL    HW222656   6.626   9.336   2.507  0.8044 -0.2038  0.8791
 5351SOL     OW22657  11.962   3.395  10.353 -0.7550 -0.0032 -0.0479
 5351SOL    HW122658  11.930   3.307  10.332 -0.6480 -0.0388 -0.0590
 5351SOL    HW222659  11.988   3.432  10.269 -2.7396  0.8113 -0.3682
 5352SOL     OW22660  12.733   8.236   0.921  0.3499 -0.2228  0.1264
 5352SOL    HW122661  12.827   8.235   0.903  0.2624 -1.0770 -0.3512
 5352SOL    HW222662  12.725   8.260   1.013  0.9845  0.9033 -0.0978
 5353SOL     OW22663   9.733   7.884   2.995  0.5624  0.0073  0.5575
 5353SOL    HW122664   9.650   7.924   3.022  0.9716 -1.0589  3.7418
 5353SOL    HW222665   9.707   7.806   2.946 -0.2665  0.3538  0.4216
 5354SOL     OW22666  11.691   3.130   0.511  0.0408  0.3699  0.1091
 5354SOL    HW122667  11.665   3.170   0.594 -0.3750  1.8593 -0.7205
 5354SOL    HW222668  11.636   3.052   0.505 -0.0569  0.3369  1.1316
 5355SOL     OW22669   5.427   1.085   2.895 -0.7945 -0.1409 -0.7753
 5355SOL    HW122670   5.507   1.111   2.941 -0.1479 -0.6284 -1.6063
 5355SOL    HW222671   5.445   0.998   2.862 -2.4287 -1.1322  0.7574
 5356SOL     OW22672  11.300   8.315  12.536  0.3586  0.4710 -0.3627
 5356SOL    HW122673  11.221   8.369  12.544 -0.6748 -0.9319 -0.6982
 5356SOL    HW222674  11.316   8.282  12.625  0.9635  1.2620 -0.1665
 5357SOL     OW22675   0.936   6.465   7.027  0.7715  0.1151  0.7261
 5357SOL    HW122676   0.842   6.470   7.048  0.4349  0.1628 -0.6702
 5357SOL    HW222677   0.947   6.527   6.954  1.6723 -0.7059  0.1451
 5358SOL     OW22678   4.592  11.551   4.335  0.2141 -0.2620 -0.0160
 5358SOL    HW122679   4.579  11.608   4.260  0.2855  0.1099  0.2528
 5358SOL    HW222680   4.633  11.472   4.299 -0.4196 -0.3861 -0.4736
 5359SOL     OW22681  11.689   1.524  11.313 -0.0813  0.7627  0.0997
 5359SOL    HW122682  11.606   1.489  11.346  0.6595 -0.8103  0.3846
 5359SOL    HW222683  11.718   1.585  11.380  1.1631 -2.0241  2.3229
 5360SOL     OW22684   6.566   8.984   1.764  0.4375  0.7986  0.1852
 5360SOL    HW122685   6.573   8.937   1.681  0.0670  1.7530 -0.4002
 5360SOL    HW222686   6.656   8.987   1.797  1.0999  2.8418 -1.5714
 5361SOL     OW22687   9.271   9.007   7.639 -0.4006  0.4413  0.5476
 5361SOL    HW122688   9.258   9.054   7.557 -0.2321  1.7081  1.2098
 5361SOL    HW222689   9.226   8.924   7.627 -0.7765  0.8009 -0.6561
 5362SOL     OW22690   3.406   8.965   7.199  0.0946 -0.1561  0.2045
 5362SOL    HW122691   3.461   8.894   7.166 -0.0650 -0.8233  1.3201
 5362SOL    HW222692   3.453   9.045   7.175  0.8553 -0.6775 -0.0660
 5363SOL     OW22693   5.562   9.505   8.157 -0.1147  0.2265 -0.2966
 5363SOL    HW122694   5.634   9.561   8.186 -0.0405 -0.3493  0.6575
 5363SOL    HW222695   5.483   9.557   8.174  0.0265  0.6292 -0.8159
 5364SOL     OW22696   5.738   8.448   3.051 -0.0237  0.6387  0.2444
 5364SOL    HW122697   5.763   8.366   3.007 -0.1748 -0.8104  2.6406
 5364SOL    HW222698   5.668   8.484   2.998 -0.0661 -0.9002 -0.8036
 5365SOL     OW22699   0.613   6.158   1.819  0.1547  0.5080 -0.5911
 5365SOL    HW122700   0.560   6.210   1.758  0.7167 -0.5064 -1.9897
 5365SOL    HW222701   0.640   6.082   1.768  2.9922  0.9952  0.0588
 5366SOL     OW22702   3.961   1.514   2.643 -0.4410 -0.2374 -0.4748
 5366SOL    HW122703   4.016   1.557   2.708 -1.5425 -2.3624  2.0376
 5366SOL    HW222704   4.021   1.460   2.591  0.4024  1.2099 -1.0591
 5367SOL     OW22705   8.498   9.695   8.292 -0.0243  0.1323  0.1265
 5367SOL    HW122706   8.476   9.763   8.355  0.3816  0.9976 -0.6404
 5367SOL    HW222707   8.444   9.620   8.317 -0.9778  0.9590  0.5837
 5368SOL     OW22708   5.401   9.184   4.300  0.4154 -0.8453  0.2917
 5368SOL    HW122709   5.446   9.245   4.358  0.2648 -0.7464  0.3083
 5368SOL    HW222710   5.388   9.234   4.219 -3.2648  0.6311  1.5745
 5369SOL     OW22711   3.309   2.498   3.958  0.5643  0.2305 -0.7200
 5369SOL    HW122712   3.279   2.440   3.888 -1.5649 -1.4108  1.3470
 5369SOL    HW222713   3.247   2.571   3.957  0.3224  0.0350 -0.3771
 5370SOL     OW22714   6.808   9.120   5.345 -0.4440 -0.2406 -0.0579
 5370SOL    HW122715   6.716   9.138   5.327 -0.0276  1.3492 -0.7843
 5370SOL    HW222716   6.852   9.204   5.335  0.9679 -0.7616  1.2079
 5371SOL     OW22717  11.689   9.828  12.211 -0.1839 -0.1682  0.4840
 5371SOL    HW122718  11.658   9.910  12.171 -1.0924 -0.8474 -0.2370
 5371SOL    HW222719  11.770   9.853  12.256 -0.2434  1.0506 -0.0439
 5372SOL     OW22720   1.615   6.604   9.843 -0.1700 -0.1673 -0.1517
 5372SOL    HW122721   1.629   6.519   9.800  0.0300 -0.2421  0.0633
 5372SOL    HW222722   1.665   6.666   9.789 -0.9299 -0.0636 -0.7519
 5373SOL     OW22723   8.803  12.403  12.466  0.1227  0.2474  0.2776
 5373SOL    HW122724   8.827  12.452  12.545  0.4658  1.7204 -0.7041
 5373SOL    HW222725   8.864  12.433  12.399  1.1671 -2.4523 -0.1238
 5374SOL     OW22726   4.252   2.166  10.759  0.2866 -0.2371 -0.1505
 5374SOL    HW122727   4.291   2.232  10.818  0.5871 -1.1717  0.7310
 5374SOL    HW222728   4.298   2.085  10.781 -0.5985 -0.9012 -0.6959
 5375SOL     OW22729  12.037   9.252   6.031  0.2074  0.0025 -0.4644
 5375SOL    HW122730  12.082   9.286   5.954 -0.2396 -0.0453 -0.7469
 5375SOL    HW222731  12.073   9.302   6.104  1.0461 -0.3354 -0.6269
 5376SOL     OW22732  11.938   5.864  10.600  0.0164 -0.2646  0.1288
 5376SOL    HW122733  11.877   5.790  10.600 -0.4060  0.0651 -0.7991
 5376SOL    HW222734  11.966   5.872  10.691  0.8431 -2.1827  0.1019
 5377SOL     OW22735   4.738   9.910   1.505  0.0006 -0.1736  0.3529
 5377SOL    HW122736   4.810   9.963   1.538 -1.6675  0.7255  2.9208
 5377SOL    HW222737   4.704   9.866   1.583 -0.7429 -2.4860 -1.1660
 5378SOL     OW22738  12.593  11.358   6.838 -0.0385  0.2395 -0.0535
 5378SOL    HW122739  12.684  11.360   6.868  0.2449 -0.6856 -0.8151
 5378SOL    HW222740  12.543  11.394   6.912  0.8971  0.3508  0.5450
 5379SOL     OW22741   7.130  10.085   0.567  0.3294  0.2652 -0.0535
 5379SOL    HW122742   7.166  10.065   0.653 -0.4553 -0.7683  0.0618
 5379SOL    HW222743   7.087  10.170   0.577  1.7992  1.0208  0.0674
 5380SOL     OW22744   8.373   6.979   8.725  0.1174  0.0802  0.6863
 5380SOL    HW122745   8.333   7.055   8.767  0.0414  2.1536 -2.7380
 5380SOL    HW222746   8.309   6.950   8.660  2.2843  0.8232 -1.9998
 5381SOL     OW22747   2.244  10.853   5.002  0.0698  0.1161  0.2068
 5381SOL    HW122748   2.230  10.908   5.078 -0.8752 -2.0309  1.6897
 5381SOL    HW222749   2.338  10.834   5.003  0.0250 -0.1120  1.0347
 5382SOL     OW22750   6.849   1.413   4.180  0.1785  0.4023 -0.2118
 5382SOL    HW122751   6.896   1.475   4.236  3.9476 -3.2443  1.2188
 5382SOL    HW222752   6.888   1.425   4.094  0.3941  0.4668 -0.1061
 5383SOL     OW22753   1.567   8.307   7.180 -0.1672  0.5089 -0.1094
 5383SOL    HW122754   1.541   8.367   7.110 -1.3964 -0.3140 -0.3770
 5383SOL    HW222755   1.508   8.233   7.171  1.7584 -1.1032 -0.2500
 5384SOL     OW22756  10.885   7.576   4.145  0.4890  0.5888 -0.0329
 5384SOL    HW122757  10.792   7.558   4.160  0.0379  2.3022 -0.5395
 5384SOL    HW222758  10.898   7.559   4.052  0.7798  0.0566  0.0979
 5385SOL     OW22759  11.408  11.864   7.177  0.3768 -0.3469 -0.1184
 5385SOL    HW122760  11.349  11.805   7.224  0.4556  1.2526  2.1450
 5385SOL    HW222761  11.351  11.933   7.144  0.3878 -1.2404 -2.1465
 5386SOL     OW22762  10.701  10.046   6.056  0.6340 -0.4012  0.4799
 5386SOL    HW122763  10.609  10.042   6.082  0.6272  0.3187  0.5951
 5386SOL    HW222764  10.738  10.117   6.109  0.9914  0.0549 -0.3556
 5387SOL     OW22765   7.073  11.435   3.312  0.0332 -0.0146 -0.1195
 5387SOL    HW122766   7.096  11.517   3.268  1.1225 -0.7100 -0.9095
 5387SOL    HW222767   7.148  11.416   3.368  1.8612 -2.5488 -3.0582
 5388SOL     OW22768   1.946   8.679   7.358  0.0942  0.0322 -0.0165
 5388SOL    HW122769   1.943   8.608   7.422  0.3006  0.1463  0.1187
 5388SOL    HW222770   1.921   8.757   7.407 -0.3869  0.0162 -0.2233
 5389SOL     OW22771   1.129  12.611   3.095  0.4704 -0.1331  0.6534
 5389SOL    HW122772   1.180  12.561   3.031  2.0927  0.1229  1.7074
 5389SOL    HW222773   1.041  12.573   3.090  0.6027 -0.2883 -1.5303
 5390SOL     OW22774   5.418   2.080   8.702 -0.0887  0.6379 -0.1086
 5390SOL    HW122775   5.478   2.152   8.723  2.6543 -0.8254 -2.1513
 5390SOL    HW222776   5.465   2.001   8.728 -0.6783 -0.6431 -2.5543
 5391SOL     OW22777   2.854  12.634   9.692 -0.0629  0.2995  0.0489
 5391SOL    HW122778   2.780  12.668   9.642 -0.5146  1.8624  1.6597
 5391SOL    HW222779   2.931  12.657   9.640 -0.5927  0.3378 -0.7364
 5392SOL     OW22780   7.223   9.833   2.179  0.3888 -0.4388  0.1866
 5392SOL    HW122781   7.318   9.842   2.178  0.2391  1.8268  0.7885
 5392SOL    HW222782   7.192   9.913   2.222 -1.8452 -0.5747 -1.0305
 5393SOL     OW22783  12.058   5.948  10.956  0.3391 -0.5416 -0.3359
 5393SOL    HW122784  12.092   5.935  11.044  0.3877 -3.8968 -0.7295
 5393SOL    HW222785  12.127   5.917  10.898  1.0648  3.2705 -1.8118
 5394SOL     OW22786   1.229   5.678  12.115  0.3575  0.2151  0.3160
 5394SOL    HW122787   1.282   5.758  12.105  2.1657 -1.0264 -0.5820
 5394SOL    HW222788   1.153   5.694  12.060  1.4170  0.7648 -1.0660
 5395SOL     OW22789   3.361   2.405   4.207  0.2711  0.2966 -0.0408
 5395SOL    HW122790   3.321   2.436   4.125 -0.4625  1.2440  0.6411
 5395SOL    HW222791   3.290   2.359   4.252  0.5414  0.1826  0.2689
 5396SOL     OW22792   5.507  10.474   6.338 -0.0297 -0.1245  0.0359
 5396SOL    HW122793   5.589  10.435   6.305 -1.0794 -2.1859 -0.2774
 5396SOL    HW222794   5.486  10.423   6.416 -2.1354 -1.1006 -1.1137
 5397SOL     OW22795  11.892  11.048   6.568 -0.4054 -0.2307  0.1046
 5397SOL    HW122796  11.934  11.058   6.482 -2.7957  0.7272 -1.0486
 5397SOL    HW222797  11.806  11.011   6.548 -1.5415  1.2535  1.9436
 5398SOL     OW22798   3.839   2.567  12.061  0.1527 -0.9297  0.0210
 5398SOL    HW122799   3.831   2.481  12.021  0.4171 -1.2644  0.6748
 5398SOL    HW222800   3.914   2.607  12.017  0.6757 -1.4417  0.4184
 5399SOL     OW22801   6.047   0.974   8.742  0.1709  0.4614 -0.3232
 5399SOL    HW122802   5.987   0.964   8.668  0.1008  3.1099 -0.7235
 5399SOL    HW222803   5.996   0.948   8.818 -0.9486  1.0736 -0.8442
 5400SOL     OW22804   1.192   2.446  11.375 -0.3087 -0.1386 -1.0377
 5400SOL    HW122805   1.235   2.506  11.437  2.1934  0.5148 -3.2237
 5400SOL    HW222806   1.102   2.441  11.406  0.3680  1.5326  1.5926
 5401SOL     OW22807  11.099   9.779   3.108 -0.1250 -0.0861 -0.3487
 5401SOL    HW122808  11.072   9.783   3.200  1.3974  0.7678  0.1066
 5401SOL    HW222809  11.175   9.721   3.108  2.3874  2.9384 -0.2910
 5402SOL     OW22810   1.075   9.742   1.545 -0.3365 -0.2781 -0.8813
 5402SOL    HW122811   1.147   9.773   1.490  0.3346  0.1621  0.2106
 5402SOL    HW222812   1.010   9.812   1.541  0.0509  0.1071 -0.4948
 5403SOL     OW22813   0.683   0.445   8.901 -0.3893  0.4170  0.1433
 5403SOL    HW122814   0.653   0.355   8.914 -0.9630  0.7307  1.1240
 5403SOL    HW222815   0.744   0.440   8.827 -0.5421 -0.7440  0.0794
 5404SOL     OW22816   4.285  12.680   7.223 -0.0560  0.0250 -0.1768
 5404SOL    HW122817   4.373  12.643   7.211 -0.3632 -0.2454 -1.7808
 5404SOL    HW222818   4.227  12.614   7.186 -0.8251  0.8890 -0.5332
 5405SOL     OW22819   5.047   7.064   1.372 -0.1533 -0.0720  0.4311
 5405SOL    HW122820   5.044   7.110   1.455 -0.9574  0.6235  0.0404
 5405SOL    HW222821   5.002   7.123   1.310  1.0590 -0.2372 -0.6546
 5406SOL     OW22822   0.057   3.051   5.900  0.0307  0.4143 -0.0028
 5406SOL    HW122823  -0.018   3.007   5.860 -0.8465  1.2188  0.6938
 5406SOL    HW222824   0.118   2.980   5.921 -1.6126 -0.6047  1.6742
 5407SOL     OW22825   1.244   9.051   0.674  0.5088  0.0852 -0.1006
 5407SOL    HW122826   1.339   9.036   0.675  0.5941  0.6148  1.0537
 5407SOL    HW222827   1.209   8.986   0.735  0.1618  0.1650 -0.2104
 5408SOL     OW22828   6.969   5.997   9.068  0.3428  0.4081 -0.6951
 5408SOL    HW122829   6.917   6.073   9.095  1.9652  2.0676 -1.9556
 5408SOL    HW222830   6.940   5.926   9.125  0.1389  2.4430  1.8941
 5409SOL     OW22831  10.568   6.657   6.484  0.0804  0.0990 -0.0777
 5409SOL    HW122832  10.479   6.669   6.451 -0.7871 -0.6927  1.8339
 5409SOL    HW222833  10.601   6.745   6.500 -0.3721  0.3893 -0.7239
 5410SOL     OW22834  12.381   8.352   8.464  0.1809 -0.1221  0.0988
 5410SOL    HW122835  12.427   8.269   8.471 -0.4567 -0.5786 -0.9928
 5410SOL    HW222836  12.305   8.343   8.523 -0.4222 -0.6945 -0.7442
 5411SOL     OW22837   5.332   3.339   1.093 -0.9198 -0.0223  0.6596
 5411SOL    HW122838   5.263   3.341   1.027 -1.9793  1.0772  1.7470
 5411SOL    HW222839   5.315   3.416   1.147  1.2199  0.3264  0.9181
 5412SOL     OW22840   4.322   6.916   2.085  0.4682  0.1327  0.3588
 5412SOL    HW122841   4.404   6.867   2.091  1.2237  1.3909  0.7474
 5412SOL    HW222842   4.265   6.861   2.032  1.6709 -0.6394 -0.1774
 5413SOL     OW22843   5.223   7.369  11.763  0.2457  0.0924 -0.0171
 5413SOL    HW122844   5.158   7.438  11.775 -0.4866 -0.7363  0.9650
 5413SOL    HW222845   5.179   7.305  11.706  1.2960  0.8799 -1.7984
 5414SOL     OW22846   1.346   2.168   3.346 -0.4232  0.3906 -0.1440
 5414SOL    HW122847   1.286   2.206   3.410 -0.1987  1.0896 -0.3363
 5414SOL    HW222848   1.433   2.186   3.382 -0.3129  0.1025 -0.2638
 5415SOL     OW22849   5.030  11.241   0.013  0.0117  0.0326  0.0838
 5415SOL    HW122850   5.006  11.158   0.054  1.1746 -0.4441 -0.1732
 5415SOL    HW222851   4.958  11.259  -0.048 -1.1605  0.1683  1.4699
 5416SOL     OW22852   3.214   1.590   8.276  1.3599  0.7094 -0.0405
 5416SOL    HW122853   3.196   1.506   8.318  0.8429  0.3972 -0.8617
 5416SOL    HW222854   3.139   1.605   8.218  1.1734  2.0168  0.5098
 5417SOL     OW22855   5.027  11.677   0.410 -0.4224  0.3759 -0.2111
 5417SOL    HW122856   5.017  11.585   0.433  0.3756 -0.1329 -1.7953
 5417SOL    HW222857   5.122  11.691   0.406 -0.5269  1.3412  0.2349
 5418SOL     OW22858   3.220   1.368   7.314  0.0046 -0.2064  0.2088
 5418SOL    HW122859   3.126   1.384   7.307  0.1352  0.1342 -1.0202
 5418SOL    HW222860   3.247   1.414   7.394 -0.9492 -0.7545  0.8636
 5419SOL     OW22861  10.645   9.990   6.679 -0.0831 -1.2751  0.2219
 5419SOL    HW122862  10.727   9.961   6.639  0.8997  0.7234  0.6796
 5419SOL    HW222863  10.637   9.937   6.758  1.3360 -0.7611  0.7347
 5420SOL     OW22864  10.185   2.138   3.677 -0.2375 -0.1668 -0.0383
 5420SOL    HW122865  10.225   2.096   3.753 -0.9532  0.4534  0.6974
 5420SOL    HW222866  10.239   2.110   3.603 -0.0708 -1.5217  0.5656
 5421SOL     OW22867   2.621   3.061   4.494  0.3527 -0.2414  0.4573
 5421SOL    HW122868   2.573   3.000   4.551  3.7294 -1.3454  2.3827
 5421SOL    HW222869   2.665   3.005   4.431  0.2578  0.6291 -0.3992
 5422SOL     OW22870   2.055   0.178   2.021  0.0775 -0.2039 -0.4939
 5422SOL    HW122871   2.075   0.085   2.006 -1.0760 -0.3778 -1.0458
 5422SOL    HW222872   2.086   0.222   1.942  1.5312  0.0549  0.1724
 5423SOL     OW22873  10.921   3.801   2.389 -0.0979  0.1781 -0.0085
 5423SOL    HW122874  10.940   3.888   2.425 -0.8733  0.6433 -0.7037
 5423SOL    HW222875  10.940   3.809   2.296  3.1399 -1.3593  0.3492
 5424SOL     OW22876   4.774   1.414   9.247 -0.1925  0.3246  0.3505
 5424SOL    HW122877   4.799   1.327   9.280  1.6102  0.0682 -1.4862
 5424SOL    HW222878   4.804   1.414   9.156 -0.6421  2.6979  0.1553
 5425SOL     OW22879  11.227   0.578   6.275  0.1721  0.1785 -0.1712
 5425SOL    HW122880  11.284   0.651   6.296  3.1625 -1.7796 -0.7681
 5425SOL    HW222881  11.220   0.528   6.357  1.5303 -0.9136 -0.6737
 5426SOL     OW22882   7.342  10.605   1.811  0.2120 -0.2623  0.3309
 5426SOL    HW122883   7.393  10.632   1.734  2.9093 -0.4131  1.9422
 5426SOL    HW222884   7.304  10.687   1.844  2.6882  0.6201  1.2552
 5427SOL     OW22885   0.497   8.588   2.444 -0.0852 -0.0502 -0.3659
 5427SOL    HW122886   0.419   8.541   2.414 -1.6039  1.3444  1.1802
 5427SOL    HW222887   0.466   8.677   2.459  2.2855  1.0166 -1.4595
 5428SOL     OW22888   5.890   6.769  11.432 -0.3434 -0.3179  0.4861
 5428SOL    HW122889   5.873   6.854  11.471 -1.7052 -0.7966  0.9797
 5428SOL    HW222890   5.905   6.711  11.506 -0.3463 -0.7006  0.1899
 5429SOL     OW22891  10.666  11.700   5.294  0.2394 -0.0536  0.1535
 5429SOL    HW122892  10.633  11.787   5.272 -0.3423  0.4270  2.5787
 5429SOL    HW222893  10.727  11.678   5.224 -0.7634  1.6290 -1.3145
 5430SOL     OW22894   1.318   4.709   9.665 -0.2133  0.0537 -0.3067
 5430SOL    HW122895   1.231   4.749   9.666 -0.8975 -1.3541 -0.2585
 5430SOL    HW222896   1.306   4.627   9.616  1.4729  0.6374 -1.7696
 5431SOL     OW22897   9.423  11.912   1.764  0.6911 -0.2995  0.0454
 5431SOL    HW122898   9.477  11.864   1.702  0.2535  0.6118 -1.0707
 5431SOL    HW222899   9.333  11.887   1.744  0.3150  2.0108 -1.5728
 5432SOL     OW22900   8.471   3.460   6.578 -0.2253  0.4737  0.2215
 5432SOL    HW122901   8.404   3.504   6.526 -0.8151  0.0784  0.6261
 5432SOL    HW222902   8.431   3.450   6.665 -0.7476 -2.2011 -0.2277
 5433SOL     OW22903   2.017   5.584   6.995  0.1543  0.0223 -0.2825
 5433SOL    HW122904   2.047   5.498   6.967  0.3644  0.2771 -0.8495
 5433SOL    HW222905   1.935   5.597   6.946  0.3784  0.3526 -0.5664
 5434SOL     OW22906   9.589   8.756   3.775 -0.4404 -0.2239 -0.1918
 5434SOL    HW122907   9.549   8.843   3.776  1.0800  0.5343 -1.2647
 5434SOL    HW222908   9.678   8.771   3.742 -0.2734 -2.2424 -0.7887
 5435SOL     OW22909   8.183   8.095  11.045  1.0062 -0.2928 -0.3759
 5435SOL    HW122910   8.133   8.057  10.973  0.7153 -0.3287 -0.1571
 5435SOL    HW222911   8.260   8.133  11.003 -0.2680  1.7273 -1.0113
 5436SOL     OW22912   2.855   5.247   0.835  0.4613 -0.2470  0.0589
 5436SOL    HW122913   2.886   5.255   0.745  0.4432  0.9487  0.1480
 5436SOL    HW222914   2.918   5.297   0.887 -0.3682  0.3350  0.5169
 5437SOL     OW22915   8.442   8.368  11.152  0.8006  0.1224 -0.2239
 5437SOL    HW122916   8.360   8.371  11.102  0.3664  1.4729  0.5209
 5437SOL    HW222917   8.499   8.431  11.107  1.8254 -1.5318 -1.3435
 5438SOL     OW22918   2.332   7.760   3.569 -0.1397  0.1499 -0.2425
 5438SOL    HW122919   2.364   7.836   3.521 -0.6199  1.1981  1.0224
 5438SOL    HW222920   2.237   7.774   3.575 -0.3783 -1.0671 -0.8319
 5439SOL     OW22921   5.406   9.656   3.754 -0.0555  0.5655  0.5681
 5439SOL    HW122922   5.464   9.705   3.696  0.9353  2.3089  2.8740
 5439SOL    HW222923   5.452   9.574   3.772  0.3657  0.7191  0.1915
 5440SOL     OW22924  12.096   5.325   5.528  0.8883 -0.3761 -0.5015
 5440SOL    HW122925  12.016   5.364   5.495 -0.8584 -2.5512  0.8655
 5440SOL    HW222926  12.137   5.285   5.451 -1.1586 -2.1489 -0.7504
 5441SOL     OW22927   2.380  12.670   6.265  0.0062 -0.2113  1.2767
 5441SOL    HW122928   2.458  12.716   6.233 -0.8577 -0.0741 -0.8294
 5441SOL    HW222929   2.414  12.595   6.313  1.4876 -0.6560 -0.3551
 5442SOL     OW22930   4.622  11.178  11.468  0.3991 -0.1980 -0.1123
 5442SOL    HW122931   4.598  11.107  11.528  2.4236 -1.7179 -0.9733
 5442SOL    HW222932   4.688  11.139  11.410  0.2377  1.8865 -1.8234
 5443SOL     OW22933   4.043   0.624   3.548  0.0063 -0.2121 -0.0413
 5443SOL    HW122934   4.093   0.665   3.619  0.4411  0.5199 -0.7487
 5443SOL    HW222935   3.979   0.568   3.592 -0.1833  0.7534  0.9464
 5444SOL     OW22936   3.852   3.085   0.976  0.4036 -0.5916 -0.0302
 5444SOL    HW122937   3.930   3.076   0.921 -0.4493 -0.3308 -1.3213
 5444SOL    HW222938   3.781   3.103   0.914 -1.0360 -2.7055  0.8907
 5445SOL     OW22939  11.871   4.581  12.348 -0.0149 -0.3732  0.1975
 5445SOL    HW122940  11.948   4.598  12.402  1.8201  0.5469 -2.4517
 5445SOL    HW222941  11.834   4.668  12.331 -0.1005 -0.5483 -0.5776
 5446SOL     OW22942   0.546   8.935   8.785  0.2876  0.2419 -0.0302
 5446SOL    HW122943   0.610   8.932   8.714 -0.4906 -0.9059 -0.7038
 5446SOL    HW222944   0.461   8.934   8.741 -0.2107 -0.7464  0.9201
 5447SOL     OW22945  11.123   9.148   8.627 -0.1075  0.6132 -0.2543
 5447SOL    HW122946  11.068   9.073   8.647 -1.0758  0.9474 -1.5493
 5447SOL    HW222947  11.195   9.142   8.690  0.2340 -1.7936 -0.7401
 5448SOL     OW22948   9.911   3.975  10.538  0.0109 -0.2203 -0.4611
 5448SOL    HW122949   9.939   3.908  10.601 -0.1849 -0.6448 -0.8165
 5448SOL    HW222950   9.868   3.925  10.468  0.3200  0.2345 -0.9830
 5449SOL     OW22951   0.036   8.366   3.516 -0.0353  0.4426 -0.0849
 5449SOL    HW122952  -0.009   8.283   3.503  3.5071 -1.5760 -0.4883
 5449SOL    HW222953   0.077   8.384   3.431 -0.1894  2.3007  0.1960
 5450SOL     OW22954   1.634  11.743   1.734  0.1293  0.1511  0.0817
 5450SOL    HW122955   1.680  11.692   1.668 -0.7141  1.1965 -1.3854
 5450SOL    HW222956   1.700  11.805   1.767  0.6007 -0.4944  0.3759
 5451SOL     OW22957   3.262   1.608   0.724  0.4293 -0.2099 -0.3479
 5451SOL    HW122958   3.245   1.696   0.756 -2.1662 -0.3328 -1.1759
 5451SOL    HW222959   3.291   1.620   0.634  0.3713 -0.2073 -0.3657
 5452SOL     OW22960  11.297   0.680   2.364  1.1545 -0.4229  0.3538
 5452SOL    HW122961  11.225   0.705   2.306 -1.8347 -2.1623  3.0246
 5452SOL    HW222962  11.321   0.760   2.409  1.2756  0.2607 -0.8700
 5453SOL     OW22963   9.352   2.973   0.118  0.3197  0.5455 -0.0517
 5453SOL    HW122964   9.402   2.928   0.050 -0.5006  0.0689 -0.3415
 5453SOL    HW222965   9.284   3.021   0.070 -2.1940 -2.1550  0.5394
 5454SOL     OW22966  12.625   5.647   4.257 -0.2814  0.6264  0.9419
 5454SOL    HW122967  12.573   5.567   4.249 -1.6747  1.3537  2.2985
 5454SOL    HW222968  12.684   5.629   4.330  1.1760 -0.0449 -0.3373
 5455SOL     OW22969   6.718   4.540   0.530 -0.1789  0.0398  0.0566
 5455SOL    HW122970   6.664   4.563   0.605 -1.2688  0.0073 -0.6958
 5455SOL    HW222971   6.728   4.445   0.535 -0.9456 -0.0642 -0.2871
 5456SOL     OW22972   6.526   3.092   0.834 -0.0448  0.3976  0.3564
 5456SOL    HW122973   6.431   3.077   0.838 -0.0981  0.7277  0.4221
 5456SOL    HW222974   6.563   3.007   0.811 -0.4854  0.6588 -1.4124
 5457SOL     OW22975   1.790   7.285   6.732  0.4535  0.2228 -0.6542
 5457SOL    HW122976   1.802   7.360   6.790 -0.7803  0.1517 -0.2800
 5457SOL    HW222977   1.695   7.276   6.723  0.5645 -1.4978 -0.4127
 5458SOL     OW22978   4.171  10.869   2.259  0.1868  0.2527  0.1059
 5458SOL    HW122979   4.202  10.959   2.247  0.5693  0.1171  0.0798
 5458SOL    HW222980   4.132  10.845   2.175  3.5792 -0.9859 -1.2908
 5459SOL     OW22981  10.974   4.148   9.833  0.0283  0.2244  0.3243
 5459SOL    HW122982  11.061   4.113   9.814 -0.5374 -0.2982 -1.5502
 5459SOL    HW222983  10.914   4.093   9.783 -1.1415  2.0799 -0.4598
 5460SOL     OW22984   7.252   8.875   2.977  0.2547 -0.1008 -0.7420
 5460SOL    HW122985   7.189   8.905   2.912  0.1354  2.0366  0.2462
 5460SOL    HW222986   7.333   8.921   2.954  0.2732  0.5016  0.4161
 5461SOL     OW22987   1.828   8.454   2.220 -0.5058 -0.5166  0.0148
 5461SOL    HW122988   1.885   8.406   2.280 -0.3059 -0.3073 -0.0072
 5461SOL    HW222989   1.803   8.389   2.154 -1.2419 -0.9156  0.6767
 5462SOL     OW22990   1.686  11.648   9.780  0.3234 -0.0274  0.6278
 5462SOL    HW122991   1.622  11.622   9.713  2.3532 -2.3448 -0.6000
 5462SOL    HW222992   1.724  11.729   9.747  1.6172 -1.3662 -1.4572
 5463SOL     OW22993   1.053  10.182   5.496  0.5150 -0.2483  0.2324
 5463SOL    HW122994   1.008  10.167   5.579  0.2610 -1.0039 -0.0290
 5463SOL    HW222995   1.020  10.112   5.439  3.0477 -1.7359  0.4432
 5464SOL     OW22996   4.763  11.014   6.565 -0.1274  0.6752  0.1968
 5464SOL    HW122997   4.830  11.081   6.582 -0.0152  0.2138  1.7439
 5464SOL    HW222998   4.759  11.008   6.470 -1.3657  4.1250 -0.1260
 5465SOL     OW22999  11.094  10.762  10.330 -0.1883 -0.4095 -0.5522
 5465SOL    HW123000  11.079  10.817  10.407  1.6858 -0.3161 -0.2118
 5465SOL    HW223001  11.063  10.815  10.256  1.4817  1.1063 -0.2211
 5466SOL     OW23002   5.278   4.335  10.616  0.3122 -0.2448 -0.2103
 5466SOL    HW123003   5.226   4.267  10.573  2.0291  0.3325 -3.5562
 5466SOL    HW223004   5.221   4.411  10.617 -0.0959 -0.5390 -0.6437
 5467SOL     OW23005   0.086   6.778   6.383 -0.0742  0.5779 -0.1727
 5467SOL    HW123006   0.070   6.687   6.359 -1.7557  0.8309 -0.1205
 5467SOL    HW223007   0.117   6.819   6.302  0.5957 -0.0077 -0.2210
 5468SOL     OW23008  10.250  10.095  12.310 -0.4752 -0.4598  0.4719
 5468SOL    HW123009  10.303  10.017  12.327 -0.1946  0.2195  3.0874
 5468SOL    HW223010  10.166  10.061  12.277  0.3759 -1.7061 -0.4895
 5469SOL     OW23011   4.246   9.129   2.154  0.1005  0.1619 -0.4864
 5469SOL    HW123012   4.310   9.097   2.217 -0.5641  0.0881  0.1713
 5469SOL    HW223013   4.212   9.210   2.193 -0.7775 -0.2185 -0.4252
 5470SOL     OW23014   6.454   1.359   8.649  0.5831 -0.3754 -0.0818
 5470SOL    HW123015   6.521   1.299   8.615 -0.1312 -0.7699 -0.8017
 5470SOL    HW223016   6.371   1.316   8.630  0.1175  0.0745  0.8906
 5471SOL     OW23017   8.236   8.919   0.182  0.4098  0.0273 -0.2621
 5471SOL    HW123018   8.240   8.942   0.275  1.4610 -0.9844 -0.0328
 5471SOL    HW223019   8.143   8.920   0.161 -0.0277 -1.5836  1.3126
 5472SOL     OW23020   8.093   9.232   7.742 -0.4058  0.3455  0.4198
 5472SOL    HW123021   8.007   9.198   7.767 -1.1600  0.4655 -1.8445
 5472SOL    HW223022   8.152   9.157   7.752 -1.1960 -0.3571 -0.0863
 5473SOL     OW23023   7.160   3.717   1.124  0.3691  0.0529 -0.2767
 5473SOL    HW123024   7.156   3.654   1.052  0.4482  1.0262 -1.1648
 5473SOL    HW223025   7.087   3.693   1.181  1.5846 -2.0937  0.5222
 5474SOL     OW23026   3.784  10.884   1.069  0.0234  0.6676  0.0616
 5474SOL    HW123027   3.833  10.829   1.007 -0.2690 -0.7715  1.0631
 5474SOL    HW223028   3.743  10.951   1.014  0.4869 -0.0323 -1.1810
 5475SOL     OW23029   7.190   2.010  12.199 -0.3250  0.5354  0.1372
 5475SOL    HW123030   7.130   1.940  12.172 -0.8539  1.6010 -1.6616
 5475SOL    HW223031   7.267   1.964  12.232 -2.1063 -0.8823  2.6647
 5476SOL     OW23032   5.361  10.976   7.844  0.1655 -0.3076 -0.3284
 5476SOL    HW123033   5.303  11.044   7.809  0.1872  0.3897  0.9466
 5476SOL    HW223034   5.321  10.949   7.927  1.4954 -0.0097  0.4450
 5477SOL     OW23035   4.683  10.396   5.310 -0.0072  0.8543 -0.2247
 5477SOL    HW123036   4.648  10.308   5.299  0.9738  0.6572 -2.5012
 5477SOL    HW223037   4.717  10.418   5.223  2.3740  2.3275  0.9872
 5478SOL     OW23038   4.836   4.083   1.395  0.1285  0.1032 -0.1075
 5478SOL    HW123039   4.784   4.040   1.327  0.1037  1.8185 -1.2182
 5478SOL    HW223040   4.801   4.172   1.401  1.4178  0.5911  0.7726
 5479SOL     OW23041   5.930  11.084  10.639  0.0214  0.3915 -0.0846
 5479SOL    HW123042   5.897  11.062  10.726  2.2173  1.2666  1.0469
 5479SOL    HW223043   6.006  11.028  10.627  2.6749  3.5131  0.7344
 5480SOL     OW23044   0.493   4.363   3.348 -0.0470 -0.4667  0.3585
 5480SOL    HW123045   0.411   4.346   3.393  0.3812 -2.8126  0.4155
 5480SOL    HW223046   0.499   4.458   3.343 -2.3248 -0.2226  1.1082
 5481SOL     OW23047   9.415   3.425   9.950 -0.4010  0.1602  0.6269
 5481SOL    HW123048   9.457   3.427   9.864 -0.6124  1.6406  0.5307
 5481SOL    HW223049   9.427   3.335   9.981 -0.9095 -0.5887 -1.2317
 5482SOL     OW23050   8.284   6.378   0.609  0.2086  0.3495 -0.2570
 5482SOL    HW123051   8.319   6.329   0.683 -0.9337 -0.5171 -0.2695
 5482SOL    HW223052   8.343   6.359   0.537 -0.6819 -1.7481 -0.4863
 5483SOL     OW23053  12.515  10.423   5.501 -0.0654 -0.0547 -0.1104
 5483SOL    HW123054  12.532  10.345   5.554 -0.1360  0.4626  0.6931
 5483SOL    HW223055  12.585  10.485   5.526  0.0817  0.0886 -0.8502
 5484SOL     OW23056   0.795   7.879   5.223 -0.3387  0.4394 -0.0971
 5484SOL    HW123057   0.742   7.799   5.214  0.9846 -0.3333 -1.4321
 5484SOL    HW223058   0.867   7.854   5.280  0.9806  0.1322 -1.8052
 5485SOL     OW23059   7.858   5.974  10.607 -0.0248  0.3661  0.2548
 5485SOL    HW123060   7.779   5.926  10.581  1.4347 -1.0678 -1.9399
 5485SOL    HW223061   7.878   5.943  10.695 -2.1634  1.1849  1.0849
 5486SOL     OW23062   1.668   2.072   1.223  0.0859 -0.4333  0.5926
 5486SOL    HW123063   1.603   2.004   1.204  1.0283 -1.1656 -0.1357
 5486SOL    HW223064   1.616   2.151   1.238 -0.9641 -0.8525 -0.5992
 5487SOL     OW23065   7.056   2.821   5.429 -0.1041  0.0042  0.1176
 5487SOL    HW123066   7.050   2.839   5.523  2.7410  0.4100  0.3258
 5487SOL    HW223067   6.972   2.783   5.405 -1.3393  1.0308  2.5698
 5488SOL     OW23068  11.961   9.735  10.205  0.1616 -0.4335 -0.6610
 5488SOL    HW123069  11.997   9.773  10.125  0.1816  0.2890 -0.3132
 5488SOL    HW223070  12.015   9.770  10.275  0.1056 -1.0169 -0.3182
 5489SOL     OW23071   2.586   6.678   8.652 -0.7985  0.4121 -0.2908
 5489SOL    HW123072   2.550   6.734   8.584 -1.2474 -0.3523 -0.6989
 5489SOL    HW223073   2.680   6.695   8.652 -0.6109 -0.4471 -1.9318
 5490SOL     OW23074   1.329   1.930   5.517  0.1884 -0.6842  0.4001
 5490SOL    HW123075   1.304   2.014   5.479  1.1481 -1.0114 -1.0467
 5490SOL    HW223076   1.418   1.945   5.550  0.8100 -1.3917 -0.8694
 5491SOL     OW23077   7.564   9.877  11.392  0.1994 -0.0311  0.3040
 5491SOL    HW123078   7.521   9.796  11.365  0.9790 -1.0844  2.0483
 5491SOL    HW223079   7.495   9.927  11.436 -0.6734  1.0041 -2.0735
 5492SOL     OW23080   9.810  10.820   9.053 -0.5103  0.2687 -0.4942
 5492SOL    HW123081   9.835  10.790   9.140  2.9962  2.6016 -0.4997
 5492SOL    HW223082   9.715  10.837   9.060 -0.6609 -1.1285  2.3224
 5493SOL     OW23083  11.304  12.348   2.421  0.4160 -0.1036 -0.0171
 5493SOL    HW123084  11.309  12.306   2.507 -0.3444 -0.4994 -0.1609
 5493SOL    HW223085  11.312  12.441   2.440 -0.4141 -0.1346  0.5657
 5494SOL     OW23086   6.219   1.373  12.710  0.1085 -0.2643  0.0240
 5494SOL    HW123087   6.301   1.325  12.698 -0.0661 -0.4309 -0.5084
 5494SOL    HW223088   6.246   1.457  12.748  0.5446 -0.2297 -0.3528
 5495SOL     OW23089   4.470   4.389  10.897 -0.6482 -0.0417 -0.1896
 5495SOL    HW123090   4.545   4.351  10.851  0.4451  0.5334  1.0569
 5495SOL    HW223091   4.405   4.319  10.897  1.3389 -2.0912  2.1167
 5496SOL     OW23092  11.552   4.316  12.566  0.5311  0.3829  0.6448
 5496SOL    HW123093  11.541   4.320  12.471 -1.2824  1.5026  0.8614
 5496SOL    HW223094  11.610   4.241  12.580  0.1304 -0.3479 -1.2907
 5497SOL     OW23095   6.802   9.407   5.150  0.0346  0.0228 -0.0882
 5497SOL    HW123096   6.760   9.407   5.236 -1.0636  2.9501 -0.5149
 5497SOL    HW223097   6.896   9.410   5.170 -0.1855  0.1963  1.0268
 5498SOL     OW23098   0.376  12.052   3.445  0.6105  0.1484  0.0785
 5498SOL    HW123099   0.410  11.973   3.485  1.2035  0.2291 -0.2554
 5498SOL    HW223100   0.304  12.022   3.389  2.5334 -0.5370 -2.1649
 5499SOL     OW23101   4.171   2.114  12.461 -0.1709 -0.3217 -0.4601
 5499SOL    HW123102   4.260   2.147  12.474 -0.2515  0.0606 -0.8507
 5499SOL    HW223103   4.158   2.114  12.366 -1.8261  3.0794 -0.3906
 5500SOL     OW23104   7.284  10.025  11.435 -0.2648 -0.2046 -0.2218
 5500SOL    HW123105   7.256  10.092  11.373  0.8199 -0.1694 -0.7040
 5500SOL    HW223106   7.278  10.067  11.521  0.5211  0.5694 -0.5274
 5501SOL     OW23107   2.502  10.260  10.877  0.0919 -0.4223  0.3460
 5501SOL    HW123108   2.559  10.186  10.858  1.0812  0.4726 -0.2814
 5501SOL    HW223109   2.561  10.326  10.915 -0.2441  1.0110 -1.5110
 5502SOL     OW23110   4.023   0.836   8.741 -0.4464  0.5962  0.8640
 5502SOL    HW123111   3.982   0.918   8.714 -1.1732 -0.1328 -0.3173
 5502SOL    HW223112   3.965   0.802   8.810  0.0311  1.2165  1.5847
 5503SOL     OW23113   3.343  10.196   6.341  0.2459 -0.0404  0.1644
 5503SOL    HW123114   3.394  10.176   6.262 -1.3557 -0.3932 -0.8170
 5503SOL    HW223115   3.286  10.268   6.315  1.1804  1.2887  1.6621
 5504SOL     OW23116  11.164   8.883   0.458 -0.3146  0.0077 -0.4912
 5504SOL    HW123117  11.099   8.954   0.457  0.0313  0.3846  1.2731
 5504SOL    HW223118  11.122   8.813   0.408 -2.4844 -0.0773  1.2816
 5505SOL     OW23119   5.781   9.617   8.269 -0.0946  0.6904 -0.0603
 5505SOL    HW123120   5.747   9.705   8.283  1.3146  1.6619 -2.2734
 5505SOL    HW223121   5.874   9.623   8.287 -0.0921 -0.5413  0.4470
 5506SOL     OW23122   4.851   5.011   5.971 -0.5306  0.5423 -0.3554
 5506SOL    HW123123   4.863   4.916   5.970 -1.2742  0.4350  0.2824
 5506SOL    HW223124   4.784   5.026   6.037 -1.7629  1.3491 -1.7283
 5507SOL     OW23125   7.722  11.944   7.546  0.0411  0.2150 -0.6212
 5507SOL    HW123126   7.790  12.005   7.517  0.3538 -0.6682 -1.7858
 5507SOL    HW223127   7.731  11.868   7.489 -1.8765  0.0342 -0.7507
 5508SOL     OW23128   0.406  12.267   3.253 -1.0843 -0.4108 -0.0300
 5508SOL    HW123129   0.347  12.228   3.188 -0.1938 -1.0441 -0.4881
 5508SOL    HW223130   0.407  12.204   3.325 -0.3256 -0.8223 -0.3895
 5509SOL     OW23131   6.286   8.131   5.379 -0.0775  0.3988  0.5977
 5509SOL    HW123132   6.314   8.056   5.431 -1.6078  0.9794  2.3575
 5509SOL    HW223133   6.196   8.111   5.354  0.7197 -0.0626 -2.3266
 5510SOL     OW23134   4.078   1.462   1.710 -0.0372 -0.1809 -0.0028
 5510SOL    HW123135   4.012   1.527   1.687  0.2160  0.3672  0.7811
 5510SOL    HW223136   4.145   1.471   1.641  0.6483  1.3481  0.8019
 5511SOL     OW23137  10.732   0.931   8.132  0.1307  0.0475  0.0191
 5511SOL    HW123138  10.681   0.856   8.163  1.6877 -1.1318 -0.1642
 5511SOL    HW223139  10.713   0.935   8.038 -0.1428  0.0337  0.0720
 5512SOL     OW23140   9.467   2.832  11.932 -0.0815  0.2537 -0.1526
 5512SOL    HW123141   9.496   2.879  11.854  0.6088  0.8046  0.4395
 5512SOL    HW223142   9.439   2.746  11.898 -1.9733  1.2604 -1.3330
 5513SOL     OW23143   5.113   0.844   1.945  0.0941 -0.3009  0.3667
 5513SOL    HW123144   5.033   0.896   1.953  0.4983  0.2448  0.9809
 5513SOL    HW223145   5.173   0.901   1.896  0.1222 -0.6960 -0.0662
 5514SOL     OW23146   4.137  12.266   1.279  0.1461  0.7012  0.5647
 5514SOL    HW123147   4.111  12.342   1.226 -0.8002  1.2463  1.7851
 5514SOL    HW223148   4.071  12.260   1.348  0.0646 -1.3916  0.3775
 5515SOL     OW23149   5.095  10.059   2.079 -0.0098 -0.1869  0.0402
 5515SOL    HW123150   5.044   9.983   2.106  0.5938 -0.2479  1.0906
 5515SOL    HW223151   5.152  10.026   2.009 -1.3181 -0.1336 -1.0822
 5516SOL     OW23152   6.308  11.742   1.449 -0.3019  0.4516 -0.8343
 5516SOL    HW123153   6.246  11.687   1.498  0.6194  0.4884  0.3842
 5516SOL    HW223154   6.315  11.698   1.364 -0.7560 -0.4596 -0.4176
 5517SOL     OW23155   3.864  10.467   8.983 -0.4307  0.2159 -0.0919
 5517SOL    HW123156   3.875  10.561   8.971  0.8533  0.0450 -0.4951
 5517SOL    HW223157   3.948  10.438   9.020  0.0574 -1.0586 -2.0216
 5518SOL     OW23158   7.213   2.304   8.212 -0.5692 -0.5499  0.4781
 5518SOL    HW123159   7.169   2.221   8.227 -0.3074 -0.9903 -1.0704
 5518SOL    HW223160   7.142   2.367   8.203 -0.8384 -0.9573 -0.3046
 5519SOL     OW23161   5.300   8.940   7.912  0.3672  0.7480 -0.3375
 5519SOL    HW123162   5.253   8.876   7.860  1.3734 -0.6721  0.4180
 5519SOL    HW223163   5.239   9.013   7.921 -1.2516 -0.5368 -0.3376
 5520SOL     OW23164   3.548   1.549   5.315  0.2112  0.5658 -0.1298
 5520SOL    HW123165   3.516   1.469   5.275  1.5404 -1.2931  2.2667
 5520SOL    HW223166   3.477   1.612   5.303 -1.3271 -1.2600 -1.1588
 5521SOL     OW23167   9.124   2.883  11.734 -0.3084  0.2792  0.4180
 5521SOL    HW123168   9.192   2.941  11.768 -0.6543 -0.2311  2.0508
 5521SOL    HW223169   9.098   2.830  11.809 -3.1140  1.0531  0.0946
 5522SOL     OW23170   8.989   1.356   3.613  0.3838 -0.6967  0.2665
 5522SOL    HW123171   9.020   1.383   3.700  1.2043 -0.1599 -0.1920
 5522SOL    HW223172   8.895   1.339   3.627  0.2058  0.6763  0.9742
 5523SOL     OW23173   1.964   5.319   4.643  0.0629 -0.0692  0.2572
 5523SOL    HW123174   1.970   5.392   4.582 -1.5531  1.0252  1.3356
 5523SOL    HW223175   1.999   5.352   4.725  0.5151 -0.9390  0.4320
 5524SOL     OW23176   6.043  11.163   6.639  0.1243  0.2502  0.0133
 5524SOL    HW123177   6.103  11.185   6.568  1.9784  0.7934  1.6730
 5524SOL    HW223178   6.083  11.088   6.683 -0.6827  0.2729  0.8329
 5525SOL     OW23179   9.789   8.474   3.565  0.4091 -0.3131  0.2544
 5525SOL    HW123180   9.865   8.417   3.572  1.1103  0.6079  0.3811
 5525SOL    HW223181   9.778   8.511   3.653 -0.8014 -1.1832  0.4972
 5526SOL     OW23182  11.668  12.640   8.263  0.0442  0.1810 -0.2538
 5526SOL    HW123183  11.702  12.729   8.255 -0.3944  0.3727  0.0094
 5526SOL    HW223184  11.598  12.635   8.197 -0.3885  0.2519  0.1949
 5527SOL     OW23185   5.671   5.922   0.718  0.4419  0.4156  0.2349
 5527SOL    HW123186   5.726   5.845   0.732  0.7454  0.8691  1.7095
 5527SOL    HW223187   5.600   5.890   0.662  1.5674 -0.4602 -0.7362
 5528SOL     OW23188   7.919   5.695   2.381 -0.4279 -0.1053 -0.7035
 5528SOL    HW123189   7.995   5.746   2.406  0.5093 -1.2968 -1.0348
 5528SOL    HW223190   7.886   5.659   2.464 -0.5593  0.3144 -0.5734
 5529SOL     OW23191  10.842   3.581   4.968 -0.3722 -0.6027  0.1837
 5529SOL    HW123192  10.819   3.493   4.940 -0.9744 -0.5087  0.3842
 5529SOL    HW223193  10.916   3.606   4.911 -1.2043 -0.6342 -0.9373
 5530SOL     OW23194  11.425   3.372   7.617 -0.1004 -0.2578 -0.0687
 5530SOL    HW123195  11.413   3.453   7.665 -0.3318 -0.6700  0.5746
 5530SOL    HW223196  11.511   3.381   7.576  0.6284 -0.3732  1.3643
 5531SOL     OW23197   0.044  10.185   2.141  0.5230  0.0306  0.4328
 5531SOL    HW123198  -0.050  10.168   2.129  0.6632 -1.2605  0.9983
 5531SOL    HW223199   0.077  10.106   2.184  1.5902  1.0881  1.6087
 5532SOL     OW23200  10.883   9.560  12.093  0.2663  0.2734 -0.7259
 5532SOL    HW123201  10.850   9.536  12.006 -0.1219  1.8957 -1.0586
 5532SOL    HW223202  10.939   9.636  12.077 -1.4750  1.9502  0.6349
 5533SOL     OW23203   0.750   8.144   6.794  0.1807 -0.2729 -0.0490
 5533SOL    HW123204   0.777   8.085   6.723 -1.1142 -1.9081  0.7604
 5533SOL    HW223205   0.833   8.172   6.833  0.9013 -3.0057  0.6586
 5534SOL     OW23206  12.547   7.269  11.973 -0.2442  0.6273  0.1926
 5534SOL    HW123207  12.596   7.204  11.923 -1.2656 -0.9142  1.1079
 5534SOL    HW223208  12.597   7.278  12.054 -0.6481  0.1826  0.4976
 5535SOL     OW23209   0.150  10.109  11.527 -0.4493 -0.1635 -0.0470
 5535SOL    HW123210   0.220  10.060  11.483  0.2901 -0.6790  1.6181
 5535SOL    HW223211   0.083  10.044  11.545 -0.1452 -0.2535  0.7923
 5536SOL     OW23212   0.513   7.458   3.708  0.2214  0.3198  0.0047
 5536SOL    HW123213   0.559   7.538   3.682 -0.0088  0.2264 -0.7142
 5536SOL    HW223214   0.459   7.484   3.783 -1.7504  1.4679 -1.7184
 5537SOL     OW23215  11.115  10.284   7.487 -0.4309 -1.0288  0.4935
 5537SOL    HW123216  11.091  10.238   7.568 -1.4948 -0.0069  0.7958
 5537SOL    HW223217  11.051  10.355   7.481 -0.0805 -0.8231 -1.0215
 5538SOL     OW23218   8.399   7.525   3.957 -0.3724 -0.6465 -0.3619
 5538SOL    HW123219   8.382   7.566   3.872 -0.5660 -1.1329 -0.5600
 5538SOL    HW223220   8.313   7.506   3.993 -0.3152  0.3785  0.3576
 5539SOL     OW23221   6.376   6.545   8.843  0.2512 -0.1215  0.2622
 5539SOL    HW123222   6.446   6.481   8.858  0.7977  0.4758  0.3448
 5539SOL    HW223223   6.297   6.504   8.878  0.3956 -1.1424 -0.5503
 5540SOL     OW23224   2.168  11.916   1.609  0.1006  0.1340  0.2701
 5540SOL    HW123225   2.142  11.874   1.691  1.3351 -0.4887  0.3647
 5540SOL    HW223226   2.259  11.888   1.595  0.4079  1.4345 -0.5312
 5541SOL     OW23227   5.111   2.429   2.085 -0.5249 -0.8047 -0.5604
 5541SOL    HW123228   5.123   2.392   1.998 -0.5180 -1.0758 -0.4472
 5541SOL    HW223229   5.114   2.524   2.072  3.0341 -0.7458 -0.4330
 5542SOL     OW23230  10.127  10.304   3.534 -0.0838  0.0284 -0.0892
 5542SOL    HW123231  10.066  10.344   3.595 -1.4511 -0.0556 -1.3593
 5542SOL    HW223232  10.086  10.221   3.509  0.5898 -0.0806 -0.8946
 5543SOL     OW23233   0.231  12.654   6.087  0.4422 -0.0137 -0.1296
 5543SOL    HW123234   0.208  12.669   5.995  1.5060 -0.0229 -0.4058
 5543SOL    HW223235   0.151  12.675   6.135 -0.5209 -1.2150 -1.1406
 5544SOL     OW23236  11.668   4.769   9.827  0.1513 -0.0977 -0.2067
 5544SOL    HW123237  11.617   4.849   9.839 -0.8981 -0.5370 -1.4551
 5544SOL    HW223238  11.668   4.755   9.732  2.6391 -0.1342 -0.2618
 5545SOL     OW23239   8.980   7.243   1.040 -0.5459  0.3546  0.1754
 5545SOL    HW123240   9.022   7.213   1.120 -0.0060  1.1941  0.2150
 5545SOL    HW223241   8.997   7.173   0.976 -0.3231  0.0360  0.5815
 5546SOL     OW23242   8.683   8.927   9.850 -0.4648 -0.0772  0.3118
 5546SOL    HW123243   8.720   8.989   9.787 -1.4045  1.7618  1.4831
 5546SOL    HW223244   8.593   8.956   9.862 -0.8472 -1.5152  1.1322
 5547SOL     OW23245   6.151   6.121  11.150 -0.6690  0.0174  0.1396
 5547SOL    HW123246   6.180   6.132  11.240 -0.0203  0.4789 -0.1174
 5547SOL    HW223247   6.141   6.211  11.117 -0.3582 -0.1478 -0.4174
 5548SOL     OW23248   0.680  11.673   5.852  0.0767 -0.0012 -0.0416
 5548SOL    HW123249   0.639  11.588   5.868 -0.0560 -0.0881 -0.8349
 5548SOL    HW223250   0.623  11.716   5.788 -0.0647  0.8419  0.6353
 5549SOL     OW23251   7.301   0.587  11.637  0.1276  0.8671 -0.2440
 5549SOL    HW123252   7.249   0.649  11.689 -0.8781 -0.5957  0.5549
 5549SOL    HW223253   7.244   0.565  11.563  0.0268  0.0747  0.0638
 5550SOL     OW23254  10.151   7.221   2.781  0.4558 -0.5755 -0.0954
 5550SOL    HW123255  10.106   7.190   2.703 -1.7154  2.9679 -0.4626
 5550SOL    HW223256  10.230   7.264   2.748  1.0292 -1.5292 -0.0094
 5551SOL     OW23257  11.734  11.074   1.304 -0.7165  0.2418  0.1323
 5551SOL    HW123258  11.724  11.168   1.320 -0.6698  0.5808 -1.6228
 5551SOL    HW223259  11.726  11.065   1.210  2.5171 -1.0698 -0.1610
 5552SOL     OW23260   8.504   1.731   1.628  0.5533 -0.3499 -0.2037
 5552SOL    HW123261   8.478   1.690   1.545 -2.6870  1.4410 -0.2501
 5552SOL    HW223262   8.520   1.822   1.604  2.5031 -0.4125  0.7256
 5553SOL     OW23263   1.713   5.610   1.374  0.0150  0.2322 -0.1183
 5553SOL    HW123264   1.747   5.699   1.375  0.1876  0.1680  0.4766
 5553SOL    HW223265   1.620   5.619   1.393  0.1182  0.2632  0.4118
 5554SOL     OW23266   8.642   3.587   4.381  0.0777 -0.9264 -0.0948
 5554SOL    HW123267   8.650   3.675   4.418 -1.3063 -0.8887  0.1743
 5554SOL    HW223268   8.593   3.600   4.299  1.8064 -1.1942 -1.2257
 5555SOL     OW23269   2.264   2.595   5.321 -0.0114  0.0004  0.5830
 5555SOL    HW123270   2.253   2.543   5.241 -0.1851  0.7913  0.0788
 5555SOL    HW223271   2.303   2.678   5.290 -2.9224  1.5985  0.8285
 5556SOL     OW23272   3.772  12.526  10.610 -0.2423  0.4350 -0.6456
 5556SOL    HW123273   3.698  12.465  10.611  0.8270 -0.9179 -1.3813
 5556SOL    HW223274   3.752  12.586  10.538 -0.7971  0.3332 -0.5837
 5557SOL     OW23275   7.404   5.013   4.958 -0.2028 -0.3264 -0.0998
 5557SOL    HW123276   7.401   4.951   4.886  2.6144  0.5809 -1.1381
 5557SOL    HW223277   7.346   5.084   4.931  0.4964 -0.1886 -1.3165
 5558SOL     OW23278   7.618   5.637  11.334  0.4250 -0.2853 -0.5391
 5558SOL    HW123279   7.676   5.571  11.371  0.8241 -0.1324 -0.8882
 5558SOL    HW223280   7.549   5.586  11.291 -0.7461 -0.4818  1.4306
 5559SOL     OW23281   5.060   0.840   5.177  0.2373  0.2941  0.0935
 5559SOL    HW123282   4.971   0.875   5.177 -0.2218 -0.7048 -2.3759
 5559SOL    HW223283   5.114   0.913   5.147 -0.2594 -0.0394 -1.7272
 5560SOL     OW23284   1.016   0.421   8.479 -0.0191 -0.1315  0.0910
 5560SOL    HW123285   1.075   0.381   8.415 -0.3452 -2.4334  1.1459
 5560SOL    HW223286   1.061   0.411   8.563 -1.0654 -0.1944  0.6652
 5561SOL     OW23287   0.516   8.100   9.322 -0.7852 -0.8518  0.0790
 5561SOL    HW123288   0.575   8.028   9.297 -0.3792 -0.9128  1.1660
 5561SOL    HW223289   0.522   8.104   9.417 -3.6311 -1.7865  0.4042
 5562SOL     OW23290   9.569   8.635  12.222 -0.3052 -0.5014 -0.0904
 5562SOL    HW123291   9.501   8.596  12.277 -1.8005  1.7511 -0.1966
 5562SOL    HW223292   9.579   8.724  12.256  0.6871  0.0619 -1.7477
 5563SOL     OW23293   6.557   9.000   1.423 -0.5676  0.0112 -0.7915
 5563SOL    HW123294   6.620   8.928   1.412  0.5989  0.7106  0.9791
 5563SOL    HW223295   6.484   8.961   1.472 -0.5144 -0.2468 -0.9145
 5564SOL     OW23296   2.585   6.381   5.812 -0.6323  0.3223  0.0043
 5564SOL    HW123297   2.525   6.334   5.870  1.0051 -1.3851  0.3954
 5564SOL    HW223298   2.590   6.328   5.733 -0.2936  0.9300 -0.3945
 5565SOL     OW23299  12.560   8.151  12.682 -0.0585  0.5652  0.3911
 5565SOL    HW123300  12.554   8.062  12.645 -1.3300  0.2311  1.3345
 5565SOL    HW223301  12.495   8.202  12.633 -0.0619  0.7095  0.5438
 5566SOL     OW23302   9.198  10.045   2.803  0.1640 -0.3949  0.4071
 5566SOL    HW123303   9.220  10.115   2.742  0.4267  0.2006  1.1790
 5566SOL    HW223304   9.192   9.967   2.748 -0.1976  0.2340 -0.4751
 5567SOL     OW23305   7.863   4.477  11.912  0.4359 -0.3764 -0.0740
 5567SOL    HW123306   7.861   4.471  12.008  2.7457  0.8951  0.1306
 5567SOL    HW223307   7.839   4.568  11.893  0.6900 -0.4293 -0.6630
 5568SOL     OW23308   0.534  11.702   1.229 -0.3076 -0.5007  1.2175
 5568SOL    HW123309   0.485  11.722   1.149  0.7087 -1.8646  0.2224
 5568SOL    HW223310   0.595  11.775   1.239 -1.1951  0.2414  1.4077
 5569SOL     OW23311  11.866   7.991   0.188  0.5891  0.6253  0.3234
 5569SOL    HW123312  11.941   7.989   0.128  0.6485  1.9338  0.3333
 5569SOL    HW223313  11.831   7.902   0.185  1.3818  0.3251 -0.6389
 5570SOL     OW23314   7.124   3.684  11.937  0.0725  0.2287  0.1322
 5570SOL    HW123315   7.089   3.717  11.854  0.5554 -0.4556 -0.3550
 5570SOL    HW223316   7.137   3.763  11.990  0.7980  0.8032 -0.8581
 5571SOL     OW23317   4.155  11.261   2.670  0.1740 -0.6902  0.2140
 5571SOL    HW123318   4.226  11.244   2.732  3.0090 -0.9857 -2.8446
 5571SOL    HW223319   4.146  11.179   2.621 -1.5929 -0.3026 -0.1815
 5572SOL     OW23320  11.979   7.107   7.600  0.3601 -0.4916  0.7718
 5572SOL    HW123321  11.994   7.170   7.670 -0.9659  1.2069 -0.3903
 5572SOL    HW223322  12.065   7.094   7.559  0.5596  1.0817  0.6377
 5573SOL     OW23323   7.674   3.462   9.524  0.4125  0.4959 -0.0740
 5573SOL    HW123324   7.717   3.410   9.456 -1.2149 -2.1156  0.7539
 5573SOL    HW223325   7.660   3.548   9.483  0.7841 -0.5151 -2.5103
 5574SOL     OW23326  11.349   8.599   7.050  0.2868  0.5577  0.0602
 5574SOL    HW123327  11.365   8.657   6.975 -0.6059  0.0175 -0.5759
 5574SOL    HW223328  11.254   8.605   7.064 -0.0648 -1.7402 -0.8880
 5575SOL     OW23329  11.511   5.967   1.517  0.0161  0.1315  0.0751
 5575SOL    HW123330  11.601   5.978   1.486 -0.1714  1.5319 -0.0562
 5575SOL    HW223331  11.511   5.883   1.563  1.1350 -0.3694 -0.7874
 5576SOL     OW23332   2.395   9.949   9.134  0.0526  0.6304  0.6178
 5576SOL    HW123333   2.322  10.003   9.102 -1.8037 -0.5366  2.5641
 5576SOL    HW223334   2.420   9.895   9.059 -3.6645 -1.5739  0.6796
 5577SOL     OW23335   2.212   9.030   4.075 -0.2292  0.1377 -0.1216
 5577SOL    HW123336   2.163   8.949   4.090 -1.1496  1.0213  2.1930
 5577SOL    HW223337   2.213   9.040   3.980 -0.6895 -2.2000 -0.4399
 5578SOL     OW23338  11.726  12.010   3.125 -0.0132  0.1360  0.8846
 5578SOL    HW123339  11.780  12.061   3.065  0.6937 -0.5013  0.9646
 5578SOL    HW223340  11.644  11.996   3.078 -0.4506  1.8041  1.0803
 5579SOL     OW23341   9.847   8.592   1.339  0.7280  0.1831 -0.4227
 5579SOL    HW123342   9.860   8.538   1.417 -0.2493  0.1871 -0.2503
 5579SOL    HW223343   9.785   8.543   1.286 -0.6541  1.3998  0.0098
 5580SOL     OW23344   3.263   4.084   1.049  0.4797 -0.2050 -0.6449
 5580SOL    HW123345   3.304   4.075   1.135  0.5933 -1.0200 -0.7808
 5580SOL    HW223346   3.264   4.178   1.032 -0.3150  0.0557  0.6169
 5581SOL     OW23347  10.169   7.435   8.854  0.3411 -0.1875  0.7562
 5581SOL    HW123348  10.242   7.412   8.912 -1.5601 -0.6140  3.1691
 5581SOL    HW223349  10.184   7.527   8.832  1.6686 -0.3028  1.0979
 5582SOL     OW23350  12.136   9.840  10.415 -0.9033 -0.0035  0.1933
 5582SOL    HW123351  12.203   9.815  10.480  0.3374 -0.7099 -1.2888
 5582SOL    HW223352  12.145   9.935  10.408  1.5940 -0.2469 -1.5564
 5583SOL     OW23353  12.711   9.900   4.415 -0.8004  0.0582  0.2549
 5583SOL    HW123354  12.782   9.924   4.355 -0.2393 -1.4807  0.2577
 5583SOL    HW223355  12.638   9.878   4.358 -0.3904 -1.0128  0.1010
 5584SOL     OW23356   9.455   1.797   4.815  0.9164  0.3794  0.4013
 5584SOL    HW123357   9.386   1.864   4.807  1.7408  1.2598  0.5089
 5584SOL    HW223358   9.479   1.799   4.907  1.1737  0.1564  0.3381
 5585SOL     OW23359   6.641   0.243   6.314  0.1552 -0.3208  1.0676
 5585SOL    HW123360   6.587   0.321   6.323 -0.3084 -0.5403  0.3248
 5585SOL    HW223361   6.592   0.174   6.359 -1.5513 -1.1301 -1.7178
 5586SOL     OW23362   9.936   3.121   2.779 -0.0581 -0.0225  0.1276
 5586SOL    HW123363   9.928   3.118   2.874  0.0931  1.5242  0.2193
 5586SOL    HW223364  10.013   3.176   2.763  0.2822 -0.7567 -0.8950
 5587SOL     OW23365   5.613   9.299  11.852 -0.0783  0.0314  0.4222
 5587SOL    HW123366   5.586   9.358  11.781  0.5078  1.3876  1.2832
 5587SOL    HW223367   5.697   9.335  11.882 -0.1406 -0.7374  1.5506
 5588SOL     OW23368   9.290   3.537  10.216  0.4575 -0.0748 -0.2061
 5588SOL    HW123369   9.254   3.610  10.167  0.8410  0.9459  0.9869
 5588SOL    HW223370   9.383   3.536  10.193  0.3632 -0.4871 -0.5787
 5589SOL     OW23371   9.112   0.676  10.552 -0.4392 -0.2196  0.3529
 5589SOL    HW123372   9.020   0.700  10.555 -0.2240  0.6379  2.5555
 5589SOL    HW223373   9.144   0.695  10.641  1.5100 -1.8856  0.0721
 5590SOL     OW23374  12.688   9.913   2.503 -0.1961 -0.6320  0.9859
 5590SOL    HW123375  12.738   9.844   2.547 -0.4116 -0.2356  1.8876
 5590SOL    HW223376  12.699   9.896   2.410 -0.4428 -2.0365  1.1917
 5591SOL     OW23377   3.428  11.185  12.726 -0.2352 -0.6921 -0.1585
 5591SOL    HW123378   3.386  11.160  12.644  0.6902 -0.0063 -0.8638
 5591SOL    HW223379   3.521  11.189  12.706 -0.0040 -0.3599  0.8855
 5592SOL     OW23380  11.868   0.559  11.757 -0.3908 -0.0213  0.1717
 5592SOL    HW123381  11.935   0.491  11.754  0.0991  0.2297  3.0716
 5592SOL    HW223382  11.906   0.632  11.709 -0.2075 -1.1246 -1.4575
 5593SOL     OW23383   8.196   3.189   4.170 -0.0676  0.1968  0.4766
 5593SOL    HW123384   8.244   3.107   4.186  0.4911  1.0133  3.6842
 5593SOL    HW223385   8.180   3.189   4.076  0.6354 -3.1854  0.2246
 5594SOL     OW23386   4.933   9.845   2.089  0.0654  0.3225 -0.1626
 5594SOL    HW123387   4.888   9.909   2.035 -1.0513 -0.4174 -0.1436
 5594SOL    HW223388   4.893   9.761   2.066  1.1385 -0.3132  0.1777
 5595SOL     OW23389   2.764   9.011  12.202  0.1594 -0.8009 -0.4943
 5595SOL    HW123390   2.713   8.934  12.177 -0.0276 -0.6372 -0.6257
 5595SOL    HW223391   2.779   9.001  12.296  0.3289 -1.1093 -0.5550
 5596SOL     OW23392   5.633   5.688  11.846  0.0657 -0.0126 -0.1457
 5596SOL    HW123393   5.668   5.701  11.934 -0.6631  1.2089 -0.0171
 5596SOL    HW223394   5.690   5.621  11.807  1.2285  0.4116  0.7748
 5597SOL     OW23395   2.335   0.320   7.065  0.7044  0.1206 -0.2594
 5597SOL    HW123396   2.247   0.346   7.037  0.0511 -1.5075  0.1194
 5597SOL    HW223397   2.394   0.381   7.022 -0.6995  2.5250  1.0437
 5598SOL     OW23398   2.692   5.741   9.837  0.2914  0.0596 -0.1203
 5598SOL    HW123399   2.686   5.757   9.932  1.6508 -0.9487  0.1633
 5598SOL    HW223400   2.751   5.666   9.829 -1.1110 -0.9444 -1.6973
 5599SOL     OW23401   3.657   2.316   1.088  0.4748 -0.2309  0.1238
 5599SOL    HW123402   3.659   2.228   1.125 -1.3046 -0.1663  0.4461
 5599SOL    HW223403   3.565   2.335   1.074  0.7682  1.7798  0.5414
 5600SOL     OW23404   0.095   4.811   7.729 -0.0914  0.3635  0.4422
 5600SOL    HW123405   0.180   4.773   7.706 -0.8264 -0.5525 -0.8378
 5600SOL    HW223406   0.111   4.855   7.813  1.4556 -0.4404  0.6023
 5601SOL     OW23407   1.222   5.624   8.491 -0.3196 -0.3042  0.4519
 5601SOL    HW123408   1.190   5.556   8.550  0.4246 -0.4969  0.6353
 5601SOL    HW223409   1.301   5.657   8.532 -0.5121  0.4731  0.2127
 5602SOL     OW23410  11.446   2.072   3.063  0.5015 -0.0752  0.0833
 5602SOL    HW123411  11.427   2.124   2.985  0.4366  1.0248  0.8122
 5602SOL    HW223412  11.539   2.086   3.079  0.4005  0.1334  0.5038
 5603SOL     OW23413   0.394   7.980   1.363 -0.1116  0.0596  0.0455
 5603SOL    HW123414   0.488   7.998   1.371 -0.1355 -0.0097  0.5422
 5603SOL    HW223415   0.373   8.001   1.272  0.6728 -1.2948 -0.4717
 5604SOL     OW23416   6.151   4.172   6.247  0.0668 -0.0705 -0.0772
 5604SOL    HW123417   6.178   4.083   6.266 -0.9108 -0.3090  0.2698
 5604SOL    HW223418   6.144   4.176   6.152  2.0971  0.2550 -0.2594
 5605SOL     OW23419   3.214   0.443   1.025  0.0174  0.6234 -0.4669
 5605SOL    HW123420   3.288   0.475   1.076  0.5166 -0.0084 -0.7708
 5605SOL    HW223421   3.216   0.348   1.039 -1.0237  0.6499 -0.0988
 5606SOL     OW23422  10.829   8.083   6.965  0.0073  0.6378 -0.2607
 5606SOL    HW123423  10.881   8.043   7.034 -1.0251  2.2415  1.5497
 5606SOL    HW223424  10.748   8.031   6.962  0.4984 -0.1129 -1.0944
 5607SOL     OW23425   4.039   2.014   9.802 -0.1037  0.2852 -0.4857
 5607SOL    HW123426   4.088   1.939   9.769  1.9315  1.8343 -1.2263
 5607SOL    HW223427   4.028   2.071   9.726 -1.4080  0.8741  0.1000
 5608SOL     OW23428   3.936   9.240   0.559 -0.4910  0.4531 -0.3225
 5608SOL    HW123429   3.961   9.316   0.505  1.2163  0.8065  0.8704
 5608SOL    HW223430   3.935   9.167   0.498 -0.1185  1.0895 -1.1200
 5609SOL     OW23431  12.631   5.781   3.968  0.1604  0.1676  0.2715
 5609SOL    HW123432  12.675   5.739   4.042 -2.7954  0.7550  2.5697
 5609SOL    HW223433  12.611   5.709   3.909  4.3581 -0.0796 -1.1945
 5610SOL     OW23434   7.393   2.711   4.922 -0.1202 -0.1101 -0.4020
 5610SOL    HW123435   7.482   2.675   4.922 -1.0085 -2.5757 -1.6103
 5610SOL    HW223436   7.343   2.649   4.974 -1.3979  0.4792 -0.8995
 5611SOL     OW23437   2.012  10.875   7.435 -0.0699 -1.0473 -0.1799
 5611SOL    HW123438   2.033  10.806   7.498 -0.8641 -1.8091 -0.7299
 5611SOL    HW223439   1.973  10.945   7.488  0.1919 -1.2564  0.2953
 5612SOL     OW23440  12.730   3.098   5.559 -0.0929  0.5342 -0.1336
 5612SOL    HW123441  12.692   3.047   5.630 -0.8012 -0.8166 -1.4212
 5612SOL    HW223442  12.782   3.035   5.509  2.2163  1.9229  0.4005
 5613SOL     OW23443   6.761  10.962   6.375 -0.7098 -0.7095 -0.4211
 5613SOL    HW123444   6.855  10.954   6.391 -0.0863  2.6686 -1.5316
 5613SOL    HW223445   6.748  10.924   6.289 -0.3403 -1.1422 -0.2887
 5614SOL     OW23446   0.182   8.782   3.196 -0.0909 -0.6167  0.3379
 5614SOL    HW123447   0.125   8.757   3.269  0.0214 -0.8798  0.3359
 5614SOL    HW223448   0.240   8.849   3.232 -0.4981 -0.2323  0.3005
 5615SOL     OW23449   0.354   8.229   3.897  0.0101 -0.6432 -0.5587
 5615SOL    HW123450   0.279   8.238   3.955  0.9856 -0.6130  0.7403
 5615SOL    HW223451   0.349   8.305   3.839  0.5536  0.9512  1.3435
 5616SOL     OW23452   6.509   4.334   5.444  0.3078  0.1750  0.1447
 5616SOL    HW123453   6.477   4.405   5.502 -0.3342 -0.3332  0.4317
 5616SOL    HW223454   6.581   4.373   5.396 -0.3700  1.2029 -0.0806
 5617SOL     OW23455   4.799  11.992   5.402  0.2208  0.2560  0.5648
 5617SOL    HW123456   4.872  11.954   5.449 -1.6894 -1.7791  2.0862
 5617SOL    HW223457   4.739  11.919   5.385 -1.0409  1.6298 -1.5253
 5618SOL     OW23458  10.908   3.276   9.664  0.9286 -0.2963  0.6460
 5618SOL    HW123459  10.974   3.227   9.616 -0.1635  1.0427 -2.5230
 5618SOL    HW223460  10.827   3.227   9.650 -0.3495  2.3982 -3.2410
 5619SOL     OW23461   7.944   5.249   4.697 -0.1369  0.7415  0.5186
 5619SOL    HW123462   7.895   5.200   4.631 -0.5118  0.2928  1.1216
 5619SOL    HW223463   8.001   5.307   4.646 -0.0622  0.0520 -0.2012
 5620SOL     OW23464   6.392   6.742  11.274  0.0851  0.1691 -0.1157
 5620SOL    HW123465   6.441   6.790  11.341 -0.2243  0.9260 -0.4223
 5620SOL    HW223466   6.373   6.807  11.207 -0.9524 -0.2102 -0.2060
 5621SOL     OW23467   0.543  12.014   0.728 -0.0204  0.0220  0.5851
 5621SOL    HW123468   0.609  11.945   0.717 -0.5545 -0.3681 -0.2276
 5621SOL    HW223469   0.461  11.974   0.699 -0.5832  0.5850  1.3571
 5622SOL     OW23470  10.513   4.058   3.173 -0.5317 -0.0325 -0.1688
 5622SOL    HW123471  10.590   4.063   3.116 -0.1900  0.3653  0.3218
 5622SOL    HW223472  10.509   3.967   3.200 -0.7864 -0.2625 -0.9436
 5623SOL     OW23473   5.435   0.590   6.493  0.0245 -0.2090 -0.0329
 5623SOL    HW123474   5.441   0.508   6.543  1.8816 -0.2832 -0.2942
 5623SOL    HW223475   5.457   0.565   6.404  0.4649  0.5356 -0.1450
 5624SOL     OW23476   4.584   1.055   5.616  0.2206  0.0739 -0.0954
 5624SOL    HW123477   4.644   1.084   5.548 -0.5830  3.1944  0.3272
 5624SOL    HW223478   4.638   1.045   5.694  0.7570 -1.1237 -0.6007
 5625SOL     OW23479  12.689  11.109   2.655  0.2575  0.3816  0.4761
 5625SOL    HW123480  12.647  11.026   2.635  0.3157 -0.0738  2.0487
 5625SOL    HW223481  12.683  11.160   2.575 -3.1467  0.3006  0.5382
 5626SOL     OW23482   3.094   8.284   9.211 -0.2025 -0.8213 -0.0001
 5626SOL    HW123483   3.180   8.248   9.189  0.0996 -0.1992  0.1366
 5626SOL    HW223484   3.100   8.303   9.305 -0.5918 -1.0432  0.0724
 5627SOL     OW23485   4.778  10.268  12.410  0.1949 -0.4680 -0.2909
 5627SOL    HW123486   4.777  10.363  12.425  1.3483 -0.4992  0.0731
 5627SOL    HW223487   4.723  10.232  12.480  0.6294 -0.1425  0.2236
 5628SOL     OW23488   1.661   4.867  12.095  0.0694  0.1782  0.0043
 5628SOL    HW123489   1.754   4.892  12.095  0.1808 -0.1772 -1.1361
 5628SOL    HW223490   1.662   4.774  12.075 -0.6042  0.6200 -2.3810
 5629SOL     OW23491  12.738  11.629  10.657 -0.1682  0.2593 -0.0568
 5629SOL    HW123492  12.672  11.606  10.592 -0.8938  3.5010 -0.6705
 5629SOL    HW223493  12.692  11.627  10.741 -0.7529  1.1847 -0.3307
 5630SOL     OW23494   3.668   8.844   4.406 -0.2629  0.0114 -0.3583
 5630SOL    HW123495   3.727   8.907   4.365  0.1561  0.8706  1.4367
 5630SOL    HW223496   3.591   8.896   4.430 -0.9057 -0.6764 -0.9088
 5631SOL     OW23497  11.413   2.574   1.777  0.3538 -0.2391 -0.0634
 5631SOL    HW123498  11.384   2.648   1.724  0.4431  0.7632  1.2497
 5631SOL    HW223499  11.475   2.527   1.721  1.6673  1.6935 -0.3212
 5632SOL     OW23500   2.866   8.893   4.284  0.9267 -0.5373  0.4121
 5632SOL    HW123501   2.913   8.822   4.241 -0.7489 -3.8168  3.5068
 5632SOL    HW223502   2.779   8.892   4.244  1.3518  1.0043 -0.6560
 5633SOL     OW23503  11.133   0.102  12.741 -0.2616 -0.1972  0.0911
 5633SOL    HW123504  11.137   0.130  12.832  2.7143  1.2074 -0.3291
 5633SOL    HW223505  11.082   0.171  12.697  0.8908  0.8062  0.2590
 5634SOL     OW23506   6.654  10.909   4.058 -0.8527  0.0566 -0.1611
 5634SOL    HW123507   6.742  10.874   4.045 -0.3411  0.0796  2.7217
 5634SOL    HW223508   6.664  11.003   4.045 -0.6311 -0.0221 -0.5884
 5635SOL     OW23509   4.294   8.616   3.140  0.4350 -0.0047  0.2731
 5635SOL    HW123510   4.358   8.561   3.184 -0.7726 -0.5021  1.4883
 5635SOL    HW223511   4.260   8.562   3.069  0.8183 -0.0175  0.0994
 5636SOL     OW23512   2.595   1.984   4.256 -0.0647  0.2903 -0.3339
 5636SOL    HW123513   2.554   2.048   4.314 -1.1524 -0.5236 -0.1790
 5636SOL    HW223514   2.543   1.905   4.267  1.3903 -0.7168 -0.3382
 5637SOL     OW23515   3.010   9.572   0.631 -0.0434  0.0845 -0.0973
 5637SOL    HW123516   2.962   9.647   0.597  0.8093  1.2758  1.2362
 5637SOL    HW223517   2.949   9.529   0.690  0.4694  1.5991  1.6015
 5638SOL     OW23518  12.143   7.257   0.205  0.1099  0.0689 -0.1671
 5638SOL    HW123519  12.195   7.272   0.284  1.0228  1.4402 -0.9738
 5638SOL    HW223520  12.148   7.163   0.190 -1.1793 -0.4277  2.1013
 5639SOL     OW23521   6.353   2.576   9.445 -0.0918  0.5470  0.1507
 5639SOL    HW123522   6.284   2.512   9.427 -0.4396  0.6722  0.9988
 5639SOL    HW223523   6.307   2.649   9.488  0.0192  2.0487 -2.1139
 5640SOL     OW23524   3.441   3.843   9.947  0.4752 -0.2237  0.4433
 5640SOL    HW123525   3.397   3.922   9.977  0.5921  0.0387 -0.0664
 5640SOL    HW223526   3.414   3.833   9.856  1.3740 -0.1164  0.1495
 5641SOL     OW23527   0.428   6.719  11.945  0.2662  0.2368 -0.5298
 5641SOL    HW123528   0.499   6.783  11.936 -0.1814  1.0127  1.0818
 5641SOL    HW223529   0.356   6.755  11.894  0.2422  0.7035 -0.1771
 5642SOL     OW23530   3.845   8.436   6.139 -0.6629 -0.4318 -0.2012
 5642SOL    HW123531   3.773   8.473   6.088 -1.7898  0.2465  1.7747
 5642SOL    HW223532   3.838   8.341   6.125 -0.9111 -0.2766 -1.2779
 5643SOL     OW23533   4.819  12.250   5.498  0.5707  0.1661  0.0534
 5643SOL    HW123534   4.811  12.155   5.488  1.6617 -0.1013  1.4287
 5643SOL    HW223535   4.780  12.285   5.418 -1.3617 -1.3608  0.2597
 5644SOL     OW23536   9.979   9.420  11.227 -0.0904 -0.8928  0.6296
 5644SOL    HW123537   9.936   9.476  11.162 -0.7298 -1.9095  0.1585
 5644SOL    HW223538   9.917   9.348  11.241 -0.1349 -0.4919  2.6639
 5645SOL     OW23539   0.065   5.014   3.643 -0.1311 -0.7524  0.2341
 5645SOL    HW123540   0.155   4.983   3.651  0.4006  0.7359  0.4338
 5645SOL    HW223541   0.017   4.964   3.709  0.9020 -0.3843  1.3022
 5646SOL     OW23542  10.871   7.348   2.635  0.3118 -0.5240 -0.2824
 5646SOL    HW123543  10.883   7.337   2.729  0.5960 -2.0260 -0.4787
 5646SOL    HW223544  10.959   7.351   2.599  0.2511  1.4739 -0.3935
 5647SOL     OW23545  12.125   0.969   0.813  0.4636  0.0340 -0.5755
 5647SOL    HW123546  12.184   0.923   0.874  0.8432  0.4206 -0.6485
 5647SOL    HW223547  12.049   0.993   0.866 -0.2874 -1.6981 -0.7871
 5648SOL     OW23548   0.307   0.656   7.547  0.2854  0.1609 -0.1670
 5648SOL    HW123549   0.270   0.651   7.459  1.1984 -1.9442 -0.4902
 5648SOL    HW223550   0.325   0.565   7.570  1.5887  0.8048  1.5432
 5649SOL     OW23551  10.813   6.201   4.670 -0.1497  0.1285  0.6877
 5649SOL    HW123552  10.889   6.142   4.678 -0.6517 -0.6891 -0.2934
 5649SOL    HW223553  10.796   6.231   4.759 -0.3497 -1.8241  1.3447
 5650SOL     OW23554  12.665  11.579   1.135 -0.3099  0.0290  0.8568
 5650SOL    HW123555  12.653  11.672   1.151  1.1054  0.3641  0.1916
 5650SOL    HW223556  12.697  11.543   1.218 -0.4402  0.2241  0.9901
 5651SOL     OW23557   9.678   3.615   8.475  0.1490  0.3123  0.0120
 5651SOL    HW123558   9.722   3.672   8.538  3.5840 -0.0030 -1.8709
 5651SOL    HW223559   9.740   3.543   8.461 -1.6331 -0.9734 -1.7894
 5652SOL     OW23560   5.637   3.815   0.517 -0.1149 -0.5783 -0.1344
 5652SOL    HW123561   5.680   3.811   0.432  1.2036 -0.2032  0.4876
 5652SOL    HW223562   5.552   3.775   0.503  0.3825 -1.2231 -1.4525
 5653SOL     OW23563   3.140   9.921   8.378  0.3225 -0.0672  0.5468
 5653SOL    HW123564   3.219   9.957   8.417  0.9806 -0.1501 -0.6726
 5653SOL    HW223565   3.130   9.967   8.295  0.7390 -2.0590 -0.6796
 5654SOL     OW23566   1.397   5.556   6.492  0.3277  0.1832  0.4112
 5654SOL    HW123567   1.490   5.577   6.492  0.2657  0.4722 -0.4021
 5654SOL    HW223568   1.353   5.641   6.490  0.0636  0.0353 -0.5817
 5655SOL     OW23569  10.341   3.686   9.930 -0.0317 -0.3015 -0.1519
 5655SOL    HW123570  10.367   3.704   9.839  0.7110 -0.8734 -0.0617
 5655SOL    HW223571  10.421   3.657   9.973 -0.0207  1.4330  1.1078
 5656SOL     OW23572   1.760  11.865   9.248 -0.2545  0.0971 -0.1406
 5656SOL    HW123573   1.694  11.914   9.297  1.0858  1.6439  0.2109
 5656SOL    HW223574   1.798  11.805   9.312 -0.6482 -0.0935 -0.0885
 5657SOL     OW23575   3.676   0.310   1.765  0.2605  0.0885  0.3038
 5657SOL    HW123576   3.630   0.318   1.849  0.0460  0.7516  0.1285
 5657SOL    HW223577   3.768   0.302   1.789  0.1882  0.1504  0.6039
 5658SOL     OW23578   5.418   3.135   5.574 -0.0422  0.7889  0.1469
 5658SOL    HW123579   5.497   3.162   5.621 -0.7161  0.0681  1.7434
 5658SOL    HW223580   5.451   3.080   5.502  0.8882  0.0237  1.1219
 5659SOL     OW23581   6.523   2.120   7.135  0.5474 -0.1428 -0.3955
 5659SOL    HW123582   6.455   2.058   7.111  0.9195 -0.0050 -1.9126
 5659SOL    HW223583   6.589   2.067   7.181 -0.0525 -0.4772  0.0942
 5660SOL     OW23584   2.803   3.078   1.145  0.1484  0.1074  0.4514
 5660SOL    HW123585   2.753   3.018   1.200  0.2008  0.0764  0.4653
 5660SOL    HW223586   2.876   3.026   1.113  0.5154  0.3216  0.9305
 5661SOL     OW23587  10.875   9.267   4.135 -0.5425 -0.7622  0.2981
 5661SOL    HW123588  10.796   9.246   4.186  0.1662 -0.9769  1.3518
 5661SOL    HW223589  10.938   9.200   4.162  1.1106  1.3767  2.1255
 5662SOL     OW23590   5.728  10.829   8.081  0.2556 -0.1497  0.7083
 5662SOL    HW123591   5.725  10.903   8.142 -1.4739  0.5491 -0.1509
 5662SOL    HW223592   5.732  10.751   8.137  1.8500  0.5587  1.6319
 5663SOL     OW23593   0.930   3.797   6.577  0.0837  0.0555  0.1800
 5663SOL    HW123594   0.999   3.730   6.570  0.6475  0.6851 -0.5395
 5663SOL    HW223595   0.973   3.870   6.621 -0.3180  0.2052  0.3227
 5664SOL     OW23596   0.889  12.716  11.647  0.1039 -0.1265 -0.3157
 5664SOL    HW123597   0.818  12.738  11.586 -0.6971 -0.5832  0.4162
 5664SOL    HW223598   0.859  12.751  11.731  0.2155 -1.3027  0.2330
 5665SOL     OW23599   0.513   6.236   1.251 -0.5176 -0.1281 -0.3354
 5665SOL    HW123600   0.501   6.331   1.242 -1.7380 -0.2152  0.0769
 5665SOL    HW223601   0.579   6.213   1.186 -1.4564  0.7495 -1.6516
 5666SOL     OW23602  12.435   8.636   6.934  0.1556 -0.3426  0.1180
 5666SOL    HW123603  12.487   8.669   7.007  3.1807 -2.8701 -0.6698
 5666SOL    HW223604  12.358   8.597   6.975 -0.1747  1.6487  1.5363
 5667SOL     OW23605  12.086   0.635   0.790  0.1009 -0.0612 -0.3264
 5667SOL    HW123606  12.060   0.645   0.882 -1.3366  3.1620 -0.9263
 5667SOL    HW223607  12.174   0.599   0.794  0.8362  1.6911  2.4450
 5668SOL     OW23608   7.711   0.863   2.146  0.0569  0.2139 -0.1642
 5668SOL    HW123609   7.744   0.916   2.218 -1.2043  0.0917  0.5293
 5668SOL    HW223610   7.632   0.908   2.117  0.3402  0.0581 -1.2456
 5669SOL     OW23611   7.375   0.975   6.380  0.1089  0.1005  0.1357
 5669SOL    HW123612   7.402   0.885   6.397  1.3626  0.1698 -1.2935
 5669SOL    HW223613   7.319   0.969   6.302 -0.7841  0.4262  0.7429
 5670SOL     OW23614   1.274   0.232   5.619  0.2871  0.1350  0.2925
 5670SOL    HW123615   1.350   0.196   5.666  0.2500  0.1169  0.3385
 5670SOL    HW223616   1.308   0.253   5.532  0.3743  0.2398  0.3525
 5671SOL     OW23617   4.000   5.437   5.734  0.1642  0.4741 -0.7818
 5671SOL    HW123618   4.052   5.455   5.656  0.0129  0.1228 -0.9635
 5671SOL    HW223619   4.064   5.406   5.799  0.1185 -0.4482 -1.1640
 5672SOL     OW23620   3.830   6.074   1.689  0.3972 -0.5607 -0.1466
 5672SOL    HW123621   3.871   6.093   1.774  0.0695 -0.3436 -0.0351
 5672SOL    HW223622   3.860   5.986   1.667 -0.4450 -1.0995  0.7586
 5673SOL     OW23623   1.260  10.432   2.231 -0.2050  0.4903 -0.0894
 5673SOL    HW123624   1.212  10.385   2.162  0.1802  0.3820 -0.2889
 5673SOL    HW223625   1.320  10.366   2.267  0.9046  1.0262 -0.9055
 5674SOL     OW23626   9.565   1.541   8.719 -0.1707 -0.2912  0.5983
 5674SOL    HW123627   9.658   1.565   8.719 -1.0057  3.7363 -0.7538
 5674SOL    HW223628   9.532   1.574   8.802 -0.5290 -1.4230  0.9265
 5675SOL     OW23629  12.338   9.859   1.016  0.1197  1.1173 -0.0908
 5675SOL    HW123630  12.291   9.781   1.045 -0.2606  1.1190 -0.6994
 5675SOL    HW223631  12.383   9.832   0.936 -0.5356  1.7045 -0.6645
 5676SOL     OW23632   6.105   2.600   6.493 -0.1740  0.1902  0.0691
 5676SOL    HW123633   6.128   2.583   6.401  0.2667 -0.4888  0.2922
 5676SOL    HW223634   6.099   2.512   6.532  2.8526  0.4799  1.4556
 5677SOL     OW23635   6.770   5.781   5.929 -0.6979 -0.3096 -0.1862
 5677SOL    HW123636   6.704   5.828   5.879 -2.3717 -0.8984  1.3628
 5677SOL    HW223637   6.742   5.689   5.927 -0.2004 -0.5105  0.8776
 5678SOL     OW23638   1.198   9.844   1.993 -0.2761  0.0859  0.0623
 5678SOL    HW123639   1.163   9.773   1.939 -1.8418  0.0770  0.9965
 5678SOL    HW223640   1.120   9.894   2.020  0.8012  2.5748 -1.0770
 5679SOL     OW23641   2.907   2.632   7.456 -0.4999 -0.0141  0.2831
 5679SOL    HW123642   2.896   2.672   7.542 -0.6559 -0.0081  0.2620
 5679SOL    HW223643   2.960   2.554   7.472  0.2897  0.5070  0.2373
 5680SOL     OW23644   8.176   5.609   8.241 -0.3572 -0.1454  0.4128
 5680SOL    HW123645   8.120   5.649   8.175 -2.3967 -3.0375  0.1867
 5680SOL    HW223646   8.165   5.663   8.319 -1.6757  0.6525 -0.2942
 5681SOL     OW23647   2.927   3.589   8.233 -0.3151 -0.4320 -0.5040
 5681SOL    HW123648   3.004   3.643   8.254  0.1655 -1.1683 -0.3304
 5681SOL    HW223649   2.863   3.652   8.200  0.5042  0.1528 -1.0471
 5682SOL     OW23650   1.631   0.864   3.917  0.9300  0.0277  0.4157
 5682SOL    HW123651   1.555   0.814   3.890  1.3706 -0.1325 -0.5496
 5682SOL    HW223652   1.641   0.844   4.010  0.7755 -1.2374  0.1731
 5683SOL     OW23653  11.722   9.826   3.399 -0.4738  0.0930  0.2446
 5683SOL    HW123654  11.668   9.897   3.435  1.9777  1.4065  1.6382
 5683SOL    HW223655  11.798   9.871   3.362 -0.4702 -1.6403 -2.0652
 5684SOL     OW23656   4.903   1.946   6.033  0.3433  0.3979 -0.2671
 5684SOL    HW123657   4.927   2.039   6.035  0.6169  0.3137  1.6392
 5684SOL    HW223658   4.949   1.907   6.107 -1.2318 -0.8852  0.0979
 5685SOL     OW23659   2.247   5.777   4.793  0.3286  0.1361 -0.0150
 5685SOL    HW123660   2.317   5.769   4.857 -1.5035  0.2437  2.1088
 5685SOL    HW223661   2.166   5.768   4.844 -1.2380 -1.6593 -2.5476
 5686SOL     OW23662   6.360   8.352   9.877  0.1253  0.4770  0.3431
 5686SOL    HW123663   6.388   8.290   9.810  0.3387  0.7557  0.1677
 5686SOL    HW223664   6.270   8.375   9.852  0.3525  0.9090 -0.1043
 5687SOL     OW23665   0.143  10.937   4.313  0.0540 -0.3020 -0.7066
 5687SOL    HW123666   0.119  10.880   4.386  0.9170 -1.4679 -1.3131
 5687SOL    HW223667   0.076  10.921   4.247 -0.3510  0.2675 -0.4517
 5688SOL     OW23668   6.629   3.803   7.444 -0.5916 -1.0207 -0.0341
 5688SOL    HW123669   6.615   3.842   7.358  0.5251 -0.0420  0.1864
 5688SOL    HW223670   6.607   3.711   7.433 -1.8527 -0.6287 -0.9850
 5689SOL     OW23671   6.164   6.447  10.207  0.3027  0.4149  0.4420
 5689SOL    HW123672   6.121   6.362  10.217 -0.0335  0.6191  0.7258
 5689SOL    HW223673   6.177   6.479  10.296  0.3201  0.7163  0.3344
 5690SOL     OW23674   4.823   4.746  10.605 -0.1391 -0.0255  0.0053
 5690SOL    HW123675   4.799   4.712  10.691  0.6862 -0.9550 -0.1075
 5690SOL    HW223676   4.792   4.837  10.605 -0.6455 -0.1854  1.0627
 5691SOL     OW23677  11.464   1.052   1.247 -0.1423 -0.2692  0.0412
 5691SOL    HW123678  11.414   0.976   1.216  0.5013 -0.1966 -1.2456
 5691SOL    HW223679  11.404   1.125   1.236 -0.7322 -0.5487  1.1940
 5692SOL     OW23680   1.191   8.323   5.878  0.5484 -0.4375  0.2728
 5692SOL    HW123681   1.114   8.372   5.906  0.0352 -1.6452  1.0196
 5692SOL    HW223682   1.189   8.329   5.782 -1.7608 -2.2608  0.1062
 5693SOL     OW23683   1.354   7.367   4.608  0.2273  0.0753  0.5432
 5693SOL    HW123684   1.325   7.290   4.657 -3.8005  1.1636  0.2941
 5693SOL    HW223685   1.344   7.341   4.516 -0.3790  0.5840  0.4561
 5694SOL     OW23686   1.130  11.001   5.309 -0.1708  0.1728 -0.7164
 5694SOL    HW123687   1.196  11.029   5.245  1.3182 -1.8729 -0.1429
 5694SOL    HW223688   1.148  11.054   5.387 -0.1013  0.5622 -0.9903
 5695SOL     OW23689   1.503  11.676   3.094 -0.4087 -0.1000  0.3656
 5695SOL    HW123690   1.554  11.596   3.084 -0.2387  0.0314  0.1744
 5695SOL    HW223691   1.569  11.746   3.095 -0.4887 -0.0268  1.3949
 5696SOL     OW23692   0.848   3.040   3.718  0.0631 -0.2197  0.1332
 5696SOL    HW123693   0.755   3.062   3.724 -0.1070 -0.4062 -1.5738
 5696SOL    HW223694   0.851   2.949   3.690  0.7842 -0.3863  0.6848
 5697SOL     OW23695   0.009  10.991   0.931 -0.1523  0.0158 -0.4893
 5697SOL    HW123696   0.043  11.028   1.012 -0.2223 -0.8046 -0.0665
 5697SOL    HW223697  -0.027  11.065   0.883 -1.8216  0.2858  1.0648
 5698SOL     OW23698   2.621   8.201   9.436 -0.6291  0.3244  0.3063
 5698SOL    HW123699   2.631   8.199   9.532  3.2889 -0.0203  0.0568
 5698SOL    HW223700   2.614   8.294   9.415 -0.9489  0.4378  0.8880
 5699SOL     OW23701   0.302   7.714  10.805 -0.0905  0.0237 -0.0892
 5699SOL    HW123702   0.347   7.782  10.755  0.1149 -0.2549 -0.2823
 5699SOL    HW223703   0.209   7.732  10.790 -0.0569  0.7592  0.5280
 5700SOL     OW23704   8.147  10.021   3.367  0.7603  0.7124 -0.5552
 5700SOL    HW123705   8.222   9.979   3.324  2.2713  3.4039 -0.7731
 5700SOL    HW223706   8.187  10.084   3.427 -1.3601  1.3540  0.2499
 5701SOL     OW23707  11.108   9.158   7.580  0.0603  0.3092  0.2122
 5701SOL    HW123708  11.041   9.199   7.634 -0.2048  0.2436 -0.0624
 5701SOL    HW223709  11.059   9.103   7.519  0.4708 -1.7748  1.6690
 5702SOL     OW23710   9.960   9.149   4.334 -0.5581  0.0666  0.4220
 5702SOL    HW123711   9.984   9.064   4.371  1.2107  0.6802  0.8067
 5702SOL    HW223712   9.872   9.165   4.366  0.5020  0.1326  3.6721
 5703SOL     OW23713   1.884  12.493   8.247  0.2522 -0.5645  0.0034
 5703SOL    HW123714   1.872  12.496   8.152  1.3611 -0.2677 -0.1476
 5703SOL    HW223715   1.876  12.400   8.270  0.9708 -0.7673 -0.5356
 5704SOL     OW23716  12.351   3.807   5.264  0.1327  0.1009 -0.2407
 5704SOL    HW123717  12.355   3.818   5.169 -1.0031  1.2563 -0.1925
 5704SOL    HW223718  12.298   3.728   5.277 -0.3031  0.3300 -0.5804
 5705SOL     OW23719   2.487  11.760   5.913 -0.6079  0.1045 -0.4919
 5705SOL    HW123720   2.479  11.684   5.855 -0.8469  0.4281 -0.8905
 5705SOL    HW223721   2.552  11.734   5.978 -0.2336 -0.2199 -0.9884
 5706SOL     OW23722   7.888   5.794   8.325  0.0969 -0.5003  0.2246
 5706SOL    HW123723   7.799   5.805   8.361 -0.1106 -3.3933  0.8148
 5706SOL    HW223724   7.942   5.772   8.401  0.5032 -2.5507 -0.5888
 5707SOL     OW23725  12.567   7.241   5.336  0.0077 -0.2613  0.0859
 5707SOL    HW123726  12.479   7.275   5.353  0.1597  0.4813 -0.5251
 5707SOL    HW223727  12.564   7.210   5.246  0.2471 -0.6748  0.2159
 5708SOL     OW23728   0.389   3.046   5.618 -0.1625 -0.5135 -0.0831
 5708SOL    HW123729   0.349   2.968   5.581  0.4742 -1.6503  1.5147
 5708SOL    HW223730   0.315   3.101   5.644 -0.6127 -0.6173 -1.1251
 5709SOL     OW23731  10.910   7.569   6.003  0.4708  0.1352  0.1546
 5709SOL    HW123732  10.895   7.534   5.916  2.4836  0.1724 -0.2616
 5709SOL    HW223733  10.829   7.550   6.051  0.8449 -3.8247 -0.4479
 5710SOL     OW23734   4.124   9.989  10.274 -0.1966 -0.0409 -0.2120
 5710SOL    HW123735   4.147   9.947  10.356 -0.4292  0.1972 -0.0214
 5710SOL    HW223736   4.150  10.080  10.286  0.9732 -0.2643 -0.8911
 5711SOL     OW23737   9.930   6.414  10.361  0.2350  0.0634 -0.0868
 5711SOL    HW123738   9.842   6.452  10.370 -0.2885 -1.4014  1.9885
 5711SOL    HW223739   9.943   6.366  10.443  3.2851  0.7843 -0.0468
 5712SOL     OW23740   3.249   7.020   4.944  0.6322  0.0445  0.5818
 5712SOL    HW123741   3.178   6.965   4.912 -0.7088  2.2174 -0.4498
 5712SOL    HW223742   3.325   6.993   4.893 -0.7180  1.2239 -2.2885
 5713SOL     OW23743  12.132   7.380   7.404 -0.3250  0.4066  0.3950
 5713SOL    HW123744  12.093   7.431   7.475  0.6005 -1.3682  2.2851
 5713SOL    HW223745  12.109   7.428   7.325 -2.1228  2.0392  1.8002
 5714SOL     OW23746   2.702   6.662   1.391 -0.5467 -0.4918 -0.0760
 5714SOL    HW123747   2.625   6.608   1.411  0.4373 -1.9472 -0.0356
 5714SOL    HW223748   2.758   6.604   1.340  0.4266  0.6305 -0.3178
 5715SOL     OW23749   7.439   5.785   4.024  0.1800 -0.1162  0.2158
 5715SOL    HW123750   7.504   5.853   4.045 -0.4187  1.5690 -2.7942
 5715SOL    HW223751   7.361   5.833   3.997 -0.7266 -2.0254 -0.7777
 5716SOL     OW23752   4.949   3.538   1.115  0.1315  0.3791 -0.3760
 5716SOL    HW123753   4.925   3.629   1.132 -0.9615 -0.0329  0.4399
 5716SOL    HW223754   4.935   3.494   1.199  0.9353 -0.4885 -0.6768
 5717SOL     OW23755   3.163   9.199   8.116  0.0617  0.5008  0.2993
 5717SOL    HW123756   3.191   9.233   8.201 -0.3521  1.6591 -0.0063
 5717SOL    HW223757   3.235   9.219   8.057 -0.1686  0.8396  0.1272
 5718SOL     OW23758  12.775   9.782   3.385 -0.3761  0.1294  0.0087
 5718SOL    HW123759  12.791   9.874   3.364  0.6017  0.0443  0.3179
 5718SOL    HW223760  12.824   9.733   3.319  0.2570 -0.1436  0.6580
 5719SOL     OW23761   1.321   7.073   4.073 -0.2549 -0.1605 -0.5260
 5719SOL    HW123762   1.322   7.062   3.978  1.0050 -1.6820 -0.3600
 5719SOL    HW223763   1.405   7.114   4.093 -0.2874 -0.3367 -0.0162
 5720SOL     OW23764   6.716   9.505   9.999 -0.2668  0.0854 -0.0764
 5720SOL    HW123765   6.667   9.497  10.081  0.4567 -0.7965  0.2879
 5720SOL    HW223766   6.759   9.590  10.005 -1.7867  0.9314 -0.4482
 5721SOL     OW23767   3.859   8.140   0.535  0.8271 -0.4459  0.1333
 5721SOL    HW123768   3.947   8.139   0.573  1.0959  0.7028 -0.4133
 5721SOL    HW223769   3.810   8.074   0.584  1.2941  0.6319  2.1216
 5722SOL     OW23770   4.331   1.169   0.584  0.3617 -0.2044  0.0900
 5722SOL    HW123771   4.265   1.101   0.599  0.7741 -0.1016  2.9021
 5722SOL    HW223772   4.410   1.121   0.559  0.3667 -0.6922  1.0101
 5723SOL     OW23773   9.782   5.127   8.718 -0.1979  0.3251 -0.1304
 5723SOL    HW123774   9.780   5.157   8.627 -0.9486  0.1707 -0.1807
 5723SOL    HW223775   9.874   5.123   8.741  0.0482 -0.4835 -1.1815
 5724SOL     OW23776   4.012   6.193  11.632 -0.1119  0.0739  0.1536
 5724SOL    HW123777   3.921   6.175  11.611  0.2682 -1.1873 -0.4884
 5724SOL    HW223778   4.014   6.287  11.650 -1.5908  0.0627  0.5238
 5725SOL     OW23779   6.739   6.750   6.541 -0.2169  0.0124  0.0896
 5725SOL    HW123780   6.711   6.785   6.625  0.4362 -2.7870  1.6141
 5725SOL    HW223781   6.663   6.761   6.484 -1.9194 -0.9433  2.0331
 5726SOL     OW23782   3.804   0.940   5.430 -0.1843 -0.2994  0.4429
 5726SOL    HW123783   3.820   0.858   5.477  0.8082 -0.6677 -0.4890
 5726SOL    HW223784   3.713   0.933   5.400 -0.9202  0.0629  2.4852
 5727SOL     OW23785   3.922   2.079   4.384 -0.1482 -0.5739 -0.0312
 5727SOL    HW123786   3.983   2.069   4.311 -0.0135  2.0058 -0.3569
 5727SOL    HW223787   3.889   2.168   4.375 -2.9571 -1.4147  0.9387
 5728SOL     OW23788   8.067   1.084   7.238  0.7498  0.9576  0.0199
 5728SOL    HW123789   8.070   1.145   7.312 -3.1065  0.5767  0.7297
 5728SOL    HW223790   8.064   0.997   7.278 -1.3275  0.7440 -0.4612
 5729SOL     OW23791   0.287   8.334   2.011  0.4902 -0.1291  0.0764
 5729SOL    HW123792   0.205   8.295   1.978  1.3809 -0.4223 -1.9424
 5729SOL    HW223793   0.342   8.258   2.031  0.3287  0.0711  1.3557
 5730SOL     OW23794   9.179   9.573  10.410  0.1123 -0.4412  0.5407
 5730SOL    HW123795   9.092   9.544  10.382 -0.1539  0.6617  0.1620
 5730SOL    HW223796   9.237   9.549  10.338  0.1094 -1.0843  0.7476
 5731SOL     OW23797   4.137   5.423   4.857 -0.2920 -0.1994  0.2026
 5731SOL    HW123798   4.179   5.502   4.892 -1.5291  0.5638  0.0104
 5731SOL    HW223799   4.112   5.373   4.935 -0.7925  0.2912  0.3593
 5732SOL     OW23800   3.834   5.728  12.317  0.4193  0.2481  0.0053
 5732SOL    HW123801   3.769   5.696  12.254 -0.6543  0.7844  0.8086
 5732SOL    HW223802   3.894   5.780  12.265 -0.7346  1.1076 -0.5242
 5733SOL     OW23803   1.313   0.029   4.734 -0.0185  0.1830 -0.1921
 5733SOL    HW123804   1.317   0.018   4.640  3.0790 -1.4055 -0.0109
 5733SOL    HW223805   1.343   0.119   4.749 -1.3394  0.7317 -0.6927
 5734SOL     OW23806   5.662   6.189   0.534  0.2696  0.1525  0.2404
 5734SOL    HW123807   5.751   6.183   0.501 -0.4605 -0.7524 -1.8062
 5734SOL    HW223808   5.636   6.097   0.547 -0.1005  0.4401  1.5891
 5735SOL     OW23809   5.635   9.451   1.218 -0.0461  0.0540  0.4114
 5735SOL    HW123810   5.642   9.357   1.234 -0.9336 -0.0742  0.1170
 5735SOL    HW223811   5.710   9.472   1.162 -0.4252 -0.6861 -0.3913
 5736SOL     OW23812   4.594   7.050   2.557  0.0509 -0.2264  0.5353
 5736SOL    HW123813   4.636   6.994   2.622  0.4438 -1.4510 -0.7201
 5736SOL    HW223814   4.666   7.085   2.506 -0.3228 -0.8490 -0.4566
 5737SOL     OW23815  10.167   8.921   8.124 -0.2809  0.1342 -0.1681
 5737SOL    HW123816  10.105   8.936   8.053 -1.2470 -1.9745  0.1665
 5737SOL    HW223817  10.143   8.986   8.190 -0.6193  0.8452 -0.9609
 5738SOL     OW23818   7.469   5.575  12.206  0.1636  0.3064 -0.3176
 5738SOL    HW123819   7.527   5.651  12.211  1.3923 -0.3860 -2.4104
 5738SOL    HW223820   7.386   5.609  12.173  0.9724  0.7001 -2.0792
 5739SOL     OW23821  12.331   6.713  10.026 -0.0882 -0.0406 -0.2537
 5739SOL    HW123822  12.248   6.723  10.072  0.8884 -0.0275  1.6292
 5739SOL    HW223823  12.380   6.793  10.046  1.5027 -1.2909  1.2461
 5740SOL     OW23824   2.695   1.601   7.040 -0.7311 -0.0597 -0.2723
 5740SOL    HW123825   2.676   1.627   6.950 -0.4681  1.1494  0.0058
 5740SOL    HW223826   2.767   1.538   7.033  0.0751  0.9075 -0.8340
 5741SOL     OW23827   9.042   2.726   3.941  0.3086  0.0428  0.3872
 5741SOL    HW123828   9.022   2.814   3.975  1.8299  0.7874 -0.5329
 5741SOL    HW223829   9.084   2.742   3.857 -1.5193 -1.6868 -0.9207
 5742SOL     OW23830  11.359   8.495   9.470  0.2635 -0.4408  0.1869
 5742SOL    HW123831  11.355   8.409   9.427  0.0957 -0.0445 -0.6002
 5742SOL    HW223832  11.294   8.490   9.539 -0.6776 -0.5198 -0.6738
 5743SOL     OW23833  12.411  12.476   8.553 -0.2828 -0.6533  0.3902
 5743SOL    HW123834  12.404  12.543   8.621 -1.8584 -0.7770  0.3676
 5743SOL    HW223835  12.426  12.525   8.472  1.1084 -0.4823  0.7255
 5744SOL     OW23836   8.262  11.103   1.562 -0.3120  0.1912 -0.0218
 5744SOL    HW123837   8.252  11.197   1.550  1.9764  0.4511 -0.2903
 5744SOL    HW223838   8.252  11.067   1.473  1.4533  0.5066 -0.3865
 5745SOL     OW23839   9.320  11.745   0.818  0.0269 -0.3766  0.6396
 5745SOL    HW123840   9.248  11.808   0.823 -1.9458 -2.4858 -0.0234
 5745SOL    HW223841   9.344  11.729   0.909  1.9386  2.6785  0.8358
 5746SOL     OW23842   5.038   8.365  12.630  0.5522  0.3154 -0.0912
 5746SOL    HW123843   4.979   8.400  12.564  0.3623 -0.2071 -0.1956
 5746SOL    HW223844   5.125   8.371  12.590  0.3710 -0.5837 -0.6412
 5747SOL     OW23845   3.598   9.142   9.736  0.3096  0.1664 -0.0736
 5747SOL    HW123846   3.653   9.121   9.660 -1.5872 -0.9228 -1.2431
 5747SOL    HW223847   3.621   9.075   9.801  1.8373  1.0131  0.3138
 5748SOL     OW23848   8.300  11.192   6.819 -0.3473  0.0262 -1.0080
 5748SOL    HW123849   8.279  11.105   6.852  0.2829 -0.1953 -1.1801
 5748SOL    HW223850   8.284  11.251   6.893 -1.0886 -0.1833 -0.9873
 5749SOL     OW23851  11.969   5.749   4.874 -0.2924  0.4664 -0.5758
 5749SOL    HW123852  12.033   5.708   4.932  0.5027  1.7489 -0.5052
 5749SOL    HW223853  11.969   5.696   4.795  0.7417  0.3489 -0.5032
 5750SOL     OW23854   8.702   6.635   9.949  0.1950  0.4929  0.7937
 5750SOL    HW123855   8.757   6.687   9.891  0.8038  1.0808  1.8641
 5750SOL    HW223856   8.763   6.580   9.998 -0.4385 -1.2381 -0.2931
 5751SOL     OW23857   5.167   4.872   5.647  0.0377 -0.3019 -0.4265
 5751SOL    HW123858   5.256   4.900   5.670  0.2668  0.0327 -1.6435
 5751SOL    HW223859   5.115   4.952   5.645  0.0665 -0.2923 -1.2033
 5752SOL     OW23860   6.495   3.713  10.099  0.2434  0.3900  0.2850
 5752SOL    HW123861   6.523   3.804  10.084  0.0388  0.6907  1.6136
 5752SOL    HW223862   6.406   3.710  10.064  0.1715  0.7599  0.4278
 5753SOL     OW23863   2.226   2.027   2.336  0.4474 -0.0654 -0.2340
 5753SOL    HW123864   2.143   1.981   2.345  1.1210 -1.3370 -0.3304
 5753SOL    HW223865   2.218   2.074   2.252  0.1166 -0.8032 -0.6275
 5754SOL     OW23866  12.763   9.155   2.642  0.3481  0.6103  0.4090
 5754SOL    HW123867  12.844   9.142   2.692  1.1554 -0.1171 -1.0040
 5754SOL    HW223868  12.737   9.066   2.615 -1.2984  0.7600  1.3638
 5755SOL     OW23869   8.503   4.060   1.293  0.2873 -0.0654  0.3612
 5755SOL    HW123870   8.573   4.028   1.236 -1.5353 -1.4839 -1.2268
 5755SOL    HW223871   8.475   4.142   1.253 -1.1222 -1.1561 -1.0360
 5756SOL     OW23872   1.219  11.634   6.516 -0.0827  0.5307  0.2078
 5756SOL    HW123873   1.178  11.556   6.479  2.1581 -0.9441  0.6964
 5756SOL    HW223874   1.167  11.653   6.594 -0.1290 -1.0303  0.5937
 5757SOL     OW23875  12.063   3.871  12.179  0.1516  0.3075 -0.1581
 5757SOL    HW123876  11.977   3.829  12.172 -0.7574  2.0827 -0.4719
 5757SOL    HW223877  12.074   3.888  12.272 -1.0723  2.3362 -0.3149
 5758SOL     OW23878  11.553   6.929   2.971  0.1663  0.4980 -0.0030
 5758SOL    HW123879  11.548   7.001   3.035  0.6296  0.3826  0.1643
 5758SOL    HW223880  11.491   6.864   3.004 -0.1240  0.7430 -0.0595
 5759SOL     OW23881   1.031   8.273   9.360 -0.1655  0.0758 -0.2512
 5759SOL    HW123882   1.096   8.259   9.429 -0.8466  0.5657  0.5228
 5759SOL    HW223883   1.011   8.185   9.327  0.3761 -0.1374 -0.0201
 5760SOL     OW23884   9.207   4.403   0.216 -0.2597 -0.9554  0.1518
 5760SOL    HW123885   9.173   4.466   0.281  0.6831 -0.0372 -0.2066
 5760SOL    HW223886   9.168   4.319   0.241 -0.3804 -0.5101  1.5510
 5761SOL     OW23887  11.735  11.559   8.579 -0.1142  0.2116  0.8744
 5761SOL    HW123888  11.818  11.606   8.589 -0.1875  0.5936 -0.1977
 5761SOL    HW223889  11.734  11.497   8.652  1.3430 -0.1392  0.6353
 5762SOL     OW23890   9.821  10.065   2.129  0.1273 -0.2119 -0.2208
 5762SOL    HW123891   9.736  10.092   2.094  0.3264 -0.8544 -1.2438
 5762SOL    HW223892   9.848   9.993   2.073 -0.3099 -2.4713  2.2729
 5763SOL     OW23893   8.446   0.950   6.247 -0.1849 -0.6244 -0.4995
 5763SOL    HW123894   8.368   1.000   6.223  0.2776 -1.2996 -3.9201
 5763SOL    HW223895   8.496   1.010   6.303 -0.9861  1.6740 -2.0718
 5764SOL     OW23896   2.752   6.009   4.580  0.0011 -0.1951 -0.3248
 5764SOL    HW123897   2.736   6.023   4.487 -2.0538 -0.7292 -0.0929
 5764SOL    HW223898   2.733   6.094   4.620 -1.1334 -0.4998 -0.1884
 5765SOL     OW23899   6.416   0.177   5.755 -0.4224 -0.0751 -0.0072
 5765SOL    HW123900   6.463   0.172   5.672  0.1502 -1.4221  0.3693
 5765SOL    HW223901   6.442   0.098   5.803 -1.8867 -0.0977  0.8413
 5766SOL     OW23902   9.008   0.539   4.940  0.3833 -0.3554 -0.4965
 5766SOL    HW123903   9.025   0.452   4.978 -2.8688 -1.1819 -0.6512
 5766SOL    HW223904   8.948   0.522   4.868 -1.0556  2.0986  0.0325
 5767SOL     OW23905  10.663   6.300   3.503  0.0018  0.4556 -0.1301
 5767SOL    HW123906  10.727   6.255   3.448 -0.2939  1.2661 -1.1566
 5767SOL    HW223907  10.703   6.299   3.591 -0.3799 -2.5792  0.1323
 5768SOL     OW23908   4.586  12.643   1.851  0.2828  0.3259 -0.1090
 5768SOL    HW123909   4.601  12.644   1.757  1.2231 -0.7251  0.0162
 5768SOL    HW223910   4.593  12.551   1.876  0.4579  0.6375  1.0527
 5769SOL     OW23911   8.659   2.196  10.467 -0.0970  0.0811  0.0424
 5769SOL    HW123912   8.601   2.257  10.422 -0.5215  0.4276  1.0383
 5769SOL    HW223913   8.656   2.116  10.414 -0.7549  0.4042 -0.4131
 5770SOL     OW23914   0.424   7.861  10.481  0.3054  0.0156  0.3508
 5770SOL    HW123915   0.380   7.912  10.550  1.0552  0.5714  0.4255
 5770SOL    HW223916   0.491   7.811  10.527  0.7203  0.2887  0.0494
 5771SOL     OW23917   9.323   4.633   3.026  0.0842 -0.5238 -0.6774
 5771SOL    HW123918   9.229   4.652   3.018  0.2079  0.8258  0.6333
 5771SOL    HW223919   9.334   4.550   2.980 -1.6483 -0.4337 -1.3604
 5772SOL     OW23920   1.906   5.629   0.594 -0.0007  0.1011  0.3915
 5772SOL    HW123921   1.986   5.580   0.615  0.2630  0.7037  0.8157
 5772SOL    HW223922   1.874   5.589   0.514 -0.1187 -1.1663  1.0398
 5773SOL     OW23923   8.507   8.901  11.844  0.0417 -0.2355 -0.3162
 5773SOL    HW123924   8.558   8.921  11.923 -0.6895 -0.1135  0.1396
 5773SOL    HW223925   8.564   8.844  11.793  0.2603 -0.8851  0.6251
 5774SOL     OW23926   9.106   0.525   9.035 -0.3515 -0.0074 -0.0944
 5774SOL    HW123927   9.113   0.560   8.947 -0.7249 -0.4700 -0.3154
 5774SOL    HW223928   9.117   0.430   9.025  2.1415  0.1233  0.6681
 5775SOL     OW23929   9.084   8.975   3.585 -0.6260 -0.0796  0.0062
 5775SOL    HW123930   9.045   9.058   3.613 -0.5565 -0.3098  0.7974
 5775SOL    HW223931   9.129   8.942   3.663 -0.0873 -0.5370 -0.4900
 5776SOL     OW23932   3.139   4.918   8.344  0.3544 -0.1829  0.1156
 5776SOL    HW123933   3.208   4.861   8.310  0.9149  0.5729 -0.0292
 5776SOL    HW223934   3.139   4.994   8.286 -0.4820 -0.0900  0.2242
 5777SOL     OW23935   7.146   0.476   8.041  0.2542 -0.2093  0.3382
 5777SOL    HW123936   7.142   0.442   8.130  0.8611 -1.6510 -0.1585
 5777SOL    HW223937   7.055   0.493   8.018  0.0880  0.1520  1.2109
 5778SOL     OW23938   4.243   9.357   8.914 -0.7899  0.4821  0.1965
 5778SOL    HW123939   4.269   9.398   8.831 -1.7721  0.7508  0.0024
 5778SOL    HW223940   4.165   9.407   8.941 -0.8240  0.0099  0.9716
 5779SOL     OW23941   9.604   4.783   1.424  0.0886 -0.0622 -0.0122
 5779SOL    HW123942   9.577   4.871   1.451 -2.2920 -0.6032 -0.3865
 5779SOL    HW223943   9.565   4.725   1.489  0.3904 -0.9279 -0.5856
 5780SOL     OW23944   5.843   6.546  10.240  0.1809 -0.5452  0.3901
 5780SOL    HW123945   5.896   6.515  10.167 -0.7003 -0.0084 -0.5026
 5780SOL    HW223946   5.764   6.491  10.238  0.0322 -0.3494  0.7622
 5781SOL     OW23947   5.889   2.378   9.989  0.5719  0.2491  0.3311
 5781SOL    HW123948   5.882   2.291   9.951  0.2391  0.0082  0.9325
 5781SOL    HW223949   5.809   2.423   9.962  0.3414  0.0821  0.7240
 5782SOL     OW23950   5.434   8.760   9.981  0.3495 -0.3883  0.3431
 5782SOL    HW123951   5.463   8.802   9.900 -2.0169  1.8107  0.4834
 5782SOL    HW223952   5.363   8.703   9.954  1.0242 -1.3958  0.6488
 5783SOL     OW23953   3.593   4.789   1.140  0.6048 -0.5857  0.8627
 5783SOL    HW123954   3.607   4.780   1.046 -1.0636  2.4400  0.2024
 5783SOL    HW223955   3.677   4.765   1.179  1.7958 -0.5249 -1.4938
 5784SOL     OW23956   8.798  10.635   7.007  0.4647 -0.2493 -0.3039
 5784SOL    HW123957   8.837  10.604   7.089 -0.1311  3.3638  1.5704
 5784SOL    HW223958   8.709  10.602   7.009  0.7307 -0.9593  0.0372
 5785SOL     OW23959   0.111   3.745   7.053  0.0330 -0.1393  0.0630
 5785SOL    HW123960   0.040   3.755   6.990 -0.5150  0.2230  0.7277
 5785SOL    HW223961   0.101   3.656   7.087 -0.5389  0.1588  0.6772
 5786SOL     OW23962   6.490   1.652   5.791 -0.3466  0.4293 -0.0066
 5786SOL    HW123963   6.435   1.678   5.865 -0.2475  0.8049 -0.0635
 5786SOL    HW223964   6.515   1.734   5.749 -1.4940  0.1673 -1.2505
 5787SOL     OW23965  10.629   9.287   7.641  0.6639  0.3281  0.9585
 5787SOL    HW123966  10.570   9.242   7.703  0.5117 -1.0159 -0.1224
 5787SOL    HW223967  10.571   9.318   7.572  1.2795 -2.7517 -1.1739
 5788SOL     OW23968   6.619   6.906  11.324 -0.1489 -0.3253  0.1785
 5788SOL    HW123969   6.698   6.899  11.378 -0.4561 -2.0289  0.4663
 5788SOL    HW223970   6.632   6.841  11.255 -1.1295 -0.3378 -0.0029
 5789SOL     OW23971   8.867   4.461   1.675 -0.4094 -0.1072 -0.3433
 5789SOL    HW123972   8.806   4.407   1.625 -1.0990  0.6049 -0.2843
 5789SOL    HW223973   8.952   4.445   1.634 -0.1433 -2.9494  1.0055
 5790SOL     OW23974   1.357   5.265  11.469 -0.1218 -0.8898 -0.0514
 5790SOL    HW123975   1.299   5.254  11.393 -0.2157 -0.1406 -0.1020
 5790SOL    HW223976   1.445   5.263  11.432 -0.1710 -0.3608 -0.2172
 5791SOL     OW23977  11.000   6.582   0.533 -0.3046  0.0290 -0.6142
 5791SOL    HW123978  10.997   6.498   0.486  1.2027 -0.5636  0.3045
 5791SOL    HW223979  11.050   6.564   0.612 -0.3744  1.6982 -0.1533
 5792SOL     OW23980  10.860   3.712  11.641  0.1129 -0.3856  0.3874
 5792SOL    HW123981  10.886   3.632  11.687  1.4451  0.4987  1.2542
 5792SOL    HW223982  10.826   3.769  11.710  0.3218  0.2424 -0.0236
 5793SOL     OW23983   0.952  10.368   6.300  0.2845 -0.0374 -0.1908
 5793SOL    HW123984   0.980  10.416   6.378 -1.4263  0.5037  0.1328
 5793SOL    HW223985   0.967  10.428   6.228  1.0354 -0.2023 -0.1795
 5794SOL     OW23986   8.808   1.389   7.834  0.3335 -0.0119  0.1085
 5794SOL    HW123987   8.802   1.314   7.775  2.8581 -1.0053  0.9743
 5794SOL    HW223988   8.901   1.398   7.852 -0.1305  1.7599  2.0267
 5795SOL     OW23989   1.848  11.700   9.434 -0.0297 -0.6940 -0.4252
 5795SOL    HW123990   1.877  11.737   9.517  0.2807  0.3862 -0.9939
 5795SOL    HW223991   1.812  11.614   9.457 -3.8526  1.1566  1.4752
 5796SOL     OW23992   3.847   2.961   5.067  0.0283  0.1387 -0.0683
 5796SOL    HW123993   3.876   3.047   5.039  0.6808  0.0398  0.2809
 5796SOL    HW223994   3.757   2.973   5.096 -0.2364  0.4877 -1.0221
 5797SOL     OW23995   3.239  11.521   1.395 -0.2420  0.3874 -0.1200
 5797SOL    HW123996   3.164  11.510   1.336 -0.2962  0.6618 -0.1026
 5797SOL    HW223997   3.314  11.529   1.337 -0.1503 -0.4060 -0.1306
 5798SOL     OW23998   2.707   9.923   3.268 -0.0329  0.3328  0.0170
 5798SOL    HW123999   2.699  10.013   3.300  0.2238 -0.0222  1.1217
 5798SOL    HW224000   2.707   9.869   3.347 -0.0158 -0.6291 -0.6223
 5799SOL     OW24001   7.664   0.814  12.642 -0.2183 -0.6483  0.0072
 5799SOL    HW124002   7.701   0.788  12.558  0.3645 -1.5514  0.5292
 5799SOL    HW224003   7.734   0.863  12.685 -0.7345  0.3633 -0.2832
 5800SOL     OW24004   3.763   2.006  12.490  0.5050 -0.7698 -0.1444
 5800SOL    HW124005   3.675   1.969  12.487  0.0511 -0.1725  2.6354
 5800SOL    HW224006   3.800   1.987  12.404 -2.2669 -1.1649 -1.3818
 5801SOL     OW24007   5.286   7.184   7.983 -0.6477  0.1700 -0.3432
 5801SOL    HW124008   5.207   7.229   7.952 -1.5435 -1.0435  0.0998
 5801SOL    HW224009   5.357   7.245   7.963 -1.4555  0.5145 -2.4608
 5802SOL     OW24010  12.065   1.515   2.978  0.1846 -0.6577  0.8354
 5802SOL    HW124011  12.139   1.569   2.951 -0.9695  0.3740 -0.4469
 5802SOL    HW224012  12.098   1.425   2.979  1.0860 -0.3782 -1.1199
 5803SOL     OW24013  10.918   5.581   9.236  0.3466  0.4462 -0.2281
 5803SOL    HW124014  10.829   5.613   9.221 -0.5307 -1.8508 -0.3744
 5803SOL    HW224015  10.950   5.633   9.310 -1.2310  1.0922  0.0403
 5804SOL     OW24016  12.327   6.379   9.017 -0.2469  0.4243 -0.1046
 5804SOL    HW124017  12.398   6.315   9.024 -1.0483 -0.4166  0.7328
 5804SOL    HW224018  12.356   6.452   9.071  0.7318  0.8470 -1.1623
 5805SOL     OW24019   3.544   7.736   3.585 -0.2024 -0.3599  0.1196
 5805SOL    HW124020   3.462   7.785   3.575  0.5095  1.8950  3.7120
 5805SOL    HW224021   3.610   7.792   3.546  0.1747 -0.0803  1.1421
 5806SOL     OW24022   7.900   7.998   9.419  0.4359 -0.1230 -0.0078
 5806SOL    HW124023   7.889   7.911   9.382  0.9408  0.1596 -0.8497
 5806SOL    HW224024   7.842   7.999   9.495  0.8612 -1.3862  0.3645
 5807SOL     OW24025   8.237  10.193  11.597 -0.2189  0.5842 -0.3225
 5807SOL    HW124026   8.211  10.255  11.530  1.3601  1.8108  0.1374
 5807SOL    HW224027   8.321  10.158  11.566  0.3758  0.9356  0.8478
 5808SOL     OW24028   3.115   8.940   7.996  0.4631 -0.2290 -0.1820
 5808SOL    HW124029   3.021   8.925   7.986  0.3663 -0.0219  0.3841
 5808SOL    HW224030   3.121   9.019   8.050  0.9668  0.9482 -1.8688
 5809SOL     OW24031   5.182   1.799   6.029  0.1325  0.2446  0.0893
 5809SOL    HW124032   5.249   1.748   6.075 -0.6899 -0.5662  0.4344
 5809SOL    HW224033   5.205   1.890   6.045  1.8214  0.0100 -0.7921
 5810SOL     OW24034  10.429   7.291  12.232 -0.5541  0.5080 -0.6962
 5810SOL    HW124035  10.466   7.378  12.245 -0.8394  0.7451 -1.4245
 5810SOL    HW224036  10.506   7.235  12.220 -0.3935  0.9907 -2.1480
 5811SOL     OW24037   1.568  11.338   6.785 -0.4220  0.6032  0.2984
 5811SOL    HW124038   1.583  11.244   6.794  0.0182  0.7951  1.8556
 5811SOL    HW224039   1.478  11.346   6.753 -0.2910 -0.3409 -0.3540
 5812SOL     OW24040   3.761   2.207   5.484 -0.8633 -0.1103  0.1292
 5812SOL    HW124041   3.771   2.300   5.500  2.7135  0.1309 -2.4184
 5812SOL    HW224042   3.724   2.201   5.396  0.6450 -0.9953 -0.4858
 5813SOL     OW24043  11.116   4.204  11.835  0.3048 -0.7786 -0.4393
 5813SOL    HW124044  11.049   4.245  11.890 -0.5888 -0.5086 -1.6855
 5813SOL    HW224045  11.175   4.276  11.812 -0.1935 -0.5786 -1.0901
 5814SOL     OW24046   4.813   8.798   7.803 -0.3661  0.0170  0.0790
 5814SOL    HW124047   4.830   8.836   7.889 -1.5599 -0.3650  0.4970
 5814SOL    HW224048   4.890   8.745   7.785 -0.2605 -0.1868  1.0748
 5815SOL     OW24049   1.742   7.931   1.969 -0.5480  0.2128 -0.3707
 5815SOL    HW124050   1.753   7.869   1.897 -1.3708  0.6135 -0.8566
 5815SOL    HW224051   1.781   7.887   2.044 -0.9733 -0.8441 -0.7361
 5816SOL     OW24052   2.720  10.729   8.705  0.8185  0.1256 -0.0274
 5816SOL    HW124053   2.764  10.709   8.622  3.9087  1.4719  1.1471
 5816SOL    HW224054   2.791  10.744   8.767 -1.3492 -1.0457  2.9959
 5817SOL     OW24055   3.393  12.255   1.654  0.3517  0.5708  0.3586
 5817SOL    HW124056   3.416  12.211   1.736  1.1029 -0.5070 -0.3966
 5817SOL    HW224057   3.298  12.262   1.655  0.1649 -1.5090  0.3179
 5818SOL     OW24058  12.119   2.633   0.834  0.2653  0.6534  0.9368
 5818SOL    HW124059  12.028   2.614   0.812  0.4553 -0.7601  1.3161
 5818SOL    HW224060  12.130   2.600   0.923  1.7969 -1.5156  0.0207
 5819SOL     OW24061   6.674   3.538  10.923 -0.0019 -0.2624 -0.0755
 5819SOL    HW124062   6.662   3.531  11.018 -1.8215 -0.0187 -0.2494
 5819SOL    HW224063   6.712   3.453  10.898  1.5927  0.0956  0.9825
 5820SOL     OW24064   2.340   2.695   4.888 -0.0134 -0.5819 -0.3657
 5820SOL    HW124065   2.271   2.760   4.885  0.0841 -0.3749  1.0372
 5820SOL    HW224066   2.302   2.622   4.937  0.5815 -0.6876 -0.0557
 5821SOL     OW24067   1.871   3.494   7.589 -0.4137 -0.7719  0.6803
 5821SOL    HW124068   1.787   3.459   7.559 -0.1713 -0.7194 -0.0839
 5821SOL    HW224069   1.936   3.448   7.536 -0.0329  0.0353  0.4412
 5822SOL     OW24070   0.636  11.333   8.247 -0.0259 -0.3910  0.3099
 5822SOL    HW124071   0.672  11.353   8.160  0.2835 -0.5636  0.3972
 5822SOL    HW224072   0.542  11.351   8.239  0.1177  0.2869  0.1494
 5823SOL     OW24073   1.308   7.612  12.475  0.1814  0.1031  0.3018
 5823SOL    HW124074   1.314   7.646  12.386 -2.5780 -1.2092 -0.5021
 5823SOL    HW224075   1.225   7.644  12.508 -0.4607 -2.1467  1.1111
 5824SOL     OW24076   6.187   4.154  10.451  0.2883 -0.2746 -0.1337
 5824SOL    HW124077   6.178   4.215  10.524 -0.2445 -0.7190  0.1860
 5824SOL    HW224078   6.279   4.129  10.451  0.0306 -1.3428  1.2796
 5825SOL     OW24079  11.794   1.688   9.440  0.3939  0.4791 -0.4990
 5825SOL    HW124080  11.838   1.625   9.497  0.2023  0.3980 -0.4402
 5825SOL    HW224081  11.850   1.695   9.363  0.8613  0.8942 -0.1251
 5826SOL     OW24082   9.594   4.549   8.217  0.9626  0.0383 -0.4107
 5826SOL    HW124083   9.685   4.519   8.221  0.7493 -0.5566  0.2341
 5826SOL    HW224084   9.548   4.480   8.169  0.3332 -1.0917  1.6928
 5827SOL     OW24085   5.653  12.719  12.070 -0.0945 -0.3985  0.1586
 5827SOL    HW124086   5.566  12.689  12.042 -0.7221 -0.7260  2.2481
 5827SOL    HW224087   5.656  12.811  12.046 -1.5243 -0.0822  1.0980
 5828SOL     OW24088   5.980   0.340   8.892  0.2012 -0.0586  0.0158
 5828SOL    HW124089   5.979   0.428   8.929 -1.0132 -0.5632  1.2814
 5828SOL    HW224090   6.071   0.325   8.868  0.3611  1.6504 -0.5179
 5829SOL     OW24091   0.744   1.469   1.399 -0.4636  0.6771 -0.0147
 5829SOL    HW124092   0.827   1.490   1.355 -0.0158 -0.7358  0.1091
 5829SOL    HW224093   0.707   1.397   1.349 -0.3679 -0.3907  1.3734
 5830SOL     OW24094   5.900   1.127  10.977  0.1865 -0.1764  0.2467
 5830SOL    HW124095   5.865   1.207  11.016  0.5192 -0.4190  1.0511
 5830SOL    HW224096   5.933   1.076  11.051  0.0910 -1.0068 -0.2678
 5831SOL     OW24097   8.592  11.694   9.732  0.5722  0.5115  0.8964
 5831SOL    HW124098   8.594  11.608   9.774  0.4838 -1.0879 -2.1240
 5831SOL    HW224099   8.680  11.706   9.696  0.0265  0.7488 -0.4023
 5832SOL     OW24100   3.499   7.067  12.705  0.2282  0.9626 -0.1927
 5832SOL    HW124101   3.515   7.012  12.781 -0.5377  0.3166 -0.4873
 5832SOL    HW224102   3.584   7.105  12.684  0.6522  0.3185  0.3405
 5833SOL     OW24103   9.251  11.533   9.689  0.4734 -0.2124 -0.3488
 5833SOL    HW124104   9.275  11.625   9.703 -1.8588  0.3254  0.6033
 5833SOL    HW224105   9.259  11.520   9.595  0.0887  1.2197 -0.6028
 5834SOL     OW24106  11.280   1.837   9.971 -0.7696 -0.4525  0.1966
 5834SOL    HW124107  11.326   1.762  10.008  0.1064 -0.6732 -1.2527
 5834SOL    HW224108  11.187   1.818   9.985 -0.4990 -0.6268  2.0013
 5835SOL     OW24109   8.968  11.915   2.782  0.2758  0.2340 -0.0845
 5835SOL    HW124110   8.958  11.856   2.856  0.9145  0.2318  0.0089
 5835SOL    HW224111   8.901  11.888   2.719 -0.2411  0.2079  0.4694
 5836SOL     OW24112   3.777   2.561   0.786 -0.6470  0.1267 -0.4590
 5836SOL    HW124113   3.840   2.612   0.734  0.2608 -0.9564 -0.4667
 5836SOL    HW224114   3.772   2.477   0.740 -2.8747  0.5040 -1.0175
 5837SOL     OW24115   6.595   0.479   9.460 -0.0254 -0.1226 -0.2409
 5837SOL    HW124116   6.626   0.549   9.403 -0.3180  1.1519  1.1078
 5837SOL    HW224117   6.561   0.524   9.537 -0.6568 -1.7346  0.4698
 5838SOL     OW24118  10.045   1.928   1.633  0.1279 -0.0004 -0.0780
 5838SOL    HW124119  10.028   2.021   1.645  0.6820  0.2672 -1.2312
 5838SOL    HW224120  10.027   1.912   1.541  1.2649 -0.7532 -0.1970
 5839SOL     OW24121   6.817  11.736   8.087  0.1070 -0.5273  0.1043
 5839SOL    HW124122   6.730  11.753   8.051  0.4463 -1.6785 -1.3393
 5839SOL    HW224123   6.863  11.689   8.018  2.9137  2.5877 -0.3898
 5840SOL     OW24124  12.290   2.712   8.793 -0.3928 -0.2390  0.3780
 5840SOL    HW124125  12.380   2.685   8.778 -0.6282  0.4800 -3.0470
 5840SOL    HW224126  12.241   2.630   8.801  0.1302 -0.7335 -1.1580
 5841SOL     OW24127   4.659   0.641   7.951 -0.1067  0.4639  0.5152
 5841SOL    HW124128   4.621   0.597   7.876  0.3852  0.2927  0.3595
 5841SOL    HW224129   4.750   0.609   7.954  0.8149  2.7359 -0.6362
 5842SOL     OW24130   7.123   5.618   1.842 -0.5777  0.1098  0.5367
 5842SOL    HW124131   7.099   5.584   1.928  1.4762 -0.7984  0.8247
 5842SOL    HW224132   7.099   5.710   1.845 -1.3002 -0.0916  1.7757
 5843SOL     OW24133  12.384   2.600   1.757  0.1129 -0.2161 -0.3329
 5843SOL    HW124134  12.465   2.598   1.807 -0.6085  1.8911  1.0718
 5843SOL    HW224135  12.411   2.588   1.666  1.8801 -0.4488  0.1918
 5844SOL     OW24136   9.888   8.615   5.875  0.1275 -0.4623  0.8054
 5844SOL    HW124137   9.935   8.630   5.792 -0.4921 -0.0900  0.5147
 5844SOL    HW224138   9.948   8.560   5.926  0.6298 -0.4868  0.2136
 5845SOL     OW24139   0.570   1.454  10.053 -0.3662 -0.3487 -0.0711
 5845SOL    HW124140   0.615   1.380  10.012 -0.4460 -0.3394 -0.1749
 5845SOL    HW224141   0.631   1.485  10.119  0.2297  0.3270 -0.9157
 5846SOL     OW24142   9.497  10.377   0.770  0.1648 -0.0664 -0.1845
 5846SOL    HW124143   9.578  10.329   0.751  0.6424  0.9877 -0.8820
 5846SOL    HW224144   9.493  10.382   0.866  1.3482  0.5602 -0.1539
 5847SOL     OW24145   2.528   7.857   1.371  0.6893  0.2406 -0.5466
 5847SOL    HW124146   2.542   7.783   1.430 -1.1334  1.6010  1.7705
 5847SOL    HW224147   2.607   7.911   1.382  0.8538 -0.0651 -0.1913
 5848SOL     OW24148  12.174   1.703   2.789 -0.0521 -0.0553  0.1586
 5848SOL    HW124149  12.179   1.640   2.716 -0.3615 -0.2350  0.2921
 5848SOL    HW224150  12.248   1.762   2.774  1.8827 -1.9774  1.4459
 5849SOL     OW24151   5.325   8.273   4.898 -0.0595 -0.2496 -0.0390
 5849SOL    HW124152   5.284   8.252   4.815 -0.1599 -1.1187  0.2241
 5849SOL    HW224153   5.298   8.203   4.957  1.3427 -0.5501  0.2898
 5850SOL     OW24154   0.431  12.099   6.345  0.1192  0.9886  0.5886
 5850SOL    HW124155   0.342  12.114   6.313  0.1999  0.7621  0.2455
 5850SOL    HW224156   0.487  12.116   6.269  0.2612 -0.2585  0.3856
 5851SOL     OW24157   1.752   7.719  11.938  0.0102  0.6178  0.0658
 5851SOL    HW124158   1.659   7.708  11.960  0.0830  0.5357  0.3319
 5851SOL    HW224159   1.762   7.814  11.928  0.0133  0.6733  0.5618
 5852SOL     OW24160   0.685   6.571   8.323 -0.4645 -0.0480  0.2082
 5852SOL    HW124161   0.741   6.499   8.349  1.8175  1.3943 -0.3914
 5852SOL    HW224162   0.624   6.533   8.259  1.2033 -1.2997 -0.7130
 5853SOL     OW24163  11.857  10.255   7.407  0.4996  0.3253 -0.2774
 5853SOL    HW124164  11.918  10.327   7.396  2.1743 -1.1804 -1.5656
 5853SOL    HW224165  11.895  10.201   7.477  0.9078 -0.8240 -1.3444
 5854SOL     OW24166   1.693   5.320  10.622 -0.1915  0.4313 -0.2210
 5854SOL    HW124167   1.764   5.257  10.612 -0.6110 -0.1250  0.2150
 5854SOL    HW224168   1.685   5.361  10.536  0.1844 -0.0091 -0.4714
 5855SOL     OW24169   8.010  12.485  10.409  0.2389 -0.1627 -0.2205
 5855SOL    HW124170   8.083  12.445  10.457  0.5243  1.6007  0.8898
 5855SOL    HW224171   8.048  12.509  10.324  0.0465 -2.1914 -0.9434
 5856SOL     OW24172   6.229  11.861   4.770  0.1625 -0.0339 -0.0685
 5856SOL    HW124173   6.167  11.914   4.820  0.6199  0.0262  0.4442
 5856SOL    HW224174   6.220  11.773   4.805 -0.0665 -0.1454 -0.4100
 5857SOL     OW24175   5.500   7.776   8.133  0.2269 -0.1282  0.1668
 5857SOL    HW124176   5.441   7.762   8.207  0.9146 -0.0084  0.7488
 5857SOL    HW224177   5.509   7.690   8.093 -0.3398 -0.1465  0.0794
 5858SOL     OW24178   2.690   2.245  10.967 -0.2590  0.1322  0.0563
 5858SOL    HW124179   2.730   2.296  11.037 -0.4764  0.0864  0.2137
 5858SOL    HW224180   2.703   2.154  10.993  0.8228  0.0729 -0.6027
 5859SOL     OW24181   4.004  10.612   2.917  0.8408  0.2519 -0.1459
 5859SOL    HW124182   3.953  10.553   2.863  0.3965 -0.9069  1.4609
 5859SOL    HW224183   4.013  10.692   2.865 -0.3267 -0.4804 -1.5176
 5860SOL     OW24184   0.369   3.105  12.540 -0.3648  0.4277  0.5110
 5860SOL    HW124185   0.450   3.061  12.513 -0.5808  0.5759 -0.4419
 5860SOL    HW224186   0.398   3.183  12.587  0.0655  0.7095 -0.2048
 5861SOL     OW24187   7.243   9.034   9.690  0.6590 -0.1339 -0.2224
 5861SOL    HW124188   7.183   8.981   9.637 -1.3254  0.8388  0.9351
 5861SOL    HW224189   7.186   9.077   9.754  2.8499 -0.7836  2.3149
 5862SOL     OW24190   3.863  10.343   2.080  0.1901 -0.0624 -0.5052
 5862SOL    HW124191   3.956  10.327   2.067 -0.0259 -0.8506 -1.2026
 5862SOL    HW224192   3.855  10.364   2.173  1.0263 -0.2420 -0.3837
 5863SOL     OW24193   1.082  10.494   3.618  0.1922 -0.0271  0.2935
 5863SOL    HW124194   1.016  10.564   3.615  0.1408 -0.0957 -0.2304
 5863SOL    HW224195   1.090  10.465   3.527 -0.2779 -1.1725  0.5969
 5864SOL     OW24196  12.438   1.685   2.131  0.4738  0.0730 -0.2305
 5864SOL    HW124197  12.418   1.655   2.042  1.1795  0.8599 -0.6731
 5864SOL    HW224198  12.372   1.643   2.186 -0.6619  0.4243 -1.2700
 5865SOL     OW24199   2.300   6.090   1.660  0.2410  0.3644  0.1338
 5865SOL    HW124200   2.260   6.159   1.607  1.2165  1.1057  0.3335
 5865SOL    HW224201   2.309   6.129   1.747 -0.6333 -0.5737  0.6777
 5866SOL     OW24202   8.872  10.986  12.259  0.3229 -0.0770 -0.1959
 5866SOL    HW124203   8.857  11.072  12.221 -0.4672 -0.1251 -0.0099
 5866SOL    HW224204   8.946  10.950  12.209 -0.0835  0.2453 -1.0375
 5867SOL     OW24205  11.600   8.249  11.989 -0.0704  0.2045 -0.1755
 5867SOL    HW124206  11.638   8.217  11.907  1.1477  0.8108  0.1392
 5867SOL    HW224207  11.539   8.317  11.962 -1.7982 -1.4657 -0.7609
 5868SOL     OW24208  11.727   2.158  11.254  0.4620  0.6918 -0.0145
 5868SOL    HW124209  11.779   2.167  11.334  0.5465 -2.0276  0.3191
 5868SOL    HW224210  11.727   2.065  11.235 -0.1832  1.1640 -2.8308
 5869SOL     OW24211   5.819   6.351  10.654 -0.1729  0.4646 -0.0109
 5869SOL    HW124212   5.854   6.328  10.568  0.9002  0.1545  0.4780
 5869SOL    HW224213   5.869   6.295  10.715 -0.9431  0.6415  0.7984
 5870SOL     OW24214   9.739  10.981   2.400 -0.0513  0.4881  0.0151
 5870SOL    HW124215   9.795  10.920   2.448  0.3774  1.1613  0.3953
 5870SOL    HW224216   9.661  10.930   2.377  1.2136 -0.8496 -1.6178
 5871SOL     OW24217   1.654  10.376  11.184  0.3635  0.0906 -0.2413
 5871SOL    HW124218   1.645  10.282  11.205 -0.6038 -0.0400 -1.1638
 5871SOL    HW224219   1.737  10.401  11.225  1.8504 -1.7291 -1.9136
 5872SOL     OW24220   5.305   7.967  10.376 -0.2915  0.3179 -0.6397
 5872SOL    HW124221   5.305   7.969  10.472 -0.8772 -2.2275 -0.5334
 5872SOL    HW224222   5.283   8.057  10.351 -0.1301  1.0555  1.5877
 5873SOL     OW24223   5.983  12.540   1.883 -0.4058  0.0147  0.2682
 5873SOL    HW124224   5.917  12.551   1.815 -1.2615 -1.7219  0.7561
 5873SOL    HW224225   6.006  12.629   1.910  3.1157  1.2397 -5.1245
 5874SOL     OW24226   9.245   4.811   7.566 -0.3919  0.5268 -0.0191
 5874SOL    HW124227   9.155   4.787   7.587 -0.1880 -0.2469 -0.0199
 5874SOL    HW224228   9.265   4.761   7.487 -0.2081  1.2700 -0.4573
 5875SOL     OW24229   7.969   5.013  12.310  0.3592 -0.1203  0.0540
 5875SOL    HW124230   7.959   5.036  12.217 -0.2040  0.6461  0.2942
 5875SOL    HW224231   8.039   5.070  12.341  0.3362 -0.1572  0.1740
 5876SOL     OW24232   0.019   4.080   0.574 -0.4153  0.2684 -0.3714
 5876SOL    HW124233  -0.064   4.081   0.526  0.0064  0.0532 -1.1255
 5876SOL    HW224234   0.086   4.084   0.506  0.2274 -1.2017  0.1195
 5877SOL     OW24235   5.920   9.366   1.527 -0.1258  0.0900 -0.1342
 5877SOL    HW124236   5.961   9.452   1.527 -0.1152  0.1703  2.5317
 5877SOL    HW224237   5.963   9.319   1.598 -3.2415 -0.4943  1.5312
 5878SOL     OW24238   9.471   2.692   4.246  0.0706  0.4400 -0.4980
 5878SOL    HW124239   9.409   2.624   4.222  0.7254  0.8043 -3.6153
 5878SOL    HW224240   9.498   2.670   4.335 -1.5082 -1.9908 -0.5442
 5879SOL     OW24241   9.664   4.379   8.943 -0.2953 -0.0023 -0.5335
 5879SOL    HW124242   9.734   4.318   8.966 -0.0840  0.7083  0.8025
 5879SOL    HW224243   9.677   4.453   9.002 -2.2698  0.0798 -0.1484
 5880SOL     OW24244  11.731   2.490   0.656 -0.0376 -0.0486  0.4140
 5880SOL    HW124245  11.709   2.400   0.681  0.5538 -0.5267 -0.7096
 5880SOL    HW224246  11.770   2.482   0.569  2.4878  0.9881  1.3519
 5881SOL     OW24247   7.162   7.751   5.002 -0.2093  0.4256  0.5423
 5881SOL    HW124248   7.073   7.753   5.038  0.5144  2.1024  2.4397
 5881SOL    HW224249   7.153   7.705   4.919 -2.3529 -2.0346  1.9546
 5882SOL     OW24250   0.597   0.221   9.053  0.6783 -0.0092 -0.7597
 5882SOL    HW124251   0.691   0.206   9.060  0.2083 -2.4769  2.0521
 5882SOL    HW224252   0.560   0.135   9.032 -1.1334  0.1260  1.4963
 5883SOL     OW24253   1.033   4.931  11.039 -1.0284  0.6714  0.4581
 5883SOL    HW124254   0.976   4.998  11.075 -0.0417  0.3997  2.6759
 5883SOL    HW224255   1.020   4.855  11.095  1.5163  0.6310  1.1478
 5884SOL     OW24256   1.077   3.222  11.914  0.0520 -0.0313 -0.1108
 5884SOL    HW124257   1.000   3.177  11.948  0.2261 -0.6975 -0.5685
 5884SOL    HW224258   1.116   3.160  11.853 -0.2337  1.0862 -1.5046
 5885SOL     OW24259   0.594   0.782   2.780 -0.1623 -0.0763 -0.7106
 5885SOL    HW124260   0.608   0.712   2.844 -2.7575  0.2243  0.2900
 5885SOL    HW224261   0.635   0.859   2.820 -1.4791  0.0332  0.4921
 5886SOL     OW24262  11.885   9.425   0.314 -0.3986 -0.6501  0.2935
 5886SOL    HW124263  11.829   9.452   0.388  0.6939  1.2647  0.4792
 5886SOL    HW224264  11.948   9.365   0.353  0.7677  1.0809  1.1899
 5887SOL     OW24265  10.719   4.341   9.456 -0.3299 -0.6666  0.3597
 5887SOL    HW124266  10.712   4.326   9.362 -0.2014 -1.4165  0.4642
 5887SOL    HW224267  10.809   4.317   9.478 -0.6616 -1.5475  0.8469
 5888SOL     OW24268  12.570   4.040   9.558 -0.5312 -0.1905 -0.7095
 5888SOL    HW124269  12.607   4.123   9.587 -0.2627 -0.7846  0.7111
 5888SOL    HW224270  12.646   3.985   9.541 -0.7280 -0.6685 -0.0551
 5889SOL     OW24271   0.506   9.768  11.832 -0.2073  0.1949  0.5484
 5889SOL    HW124272   0.456   9.816  11.766 -0.7761 -0.5759  0.3949
 5889SOL    HW224273   0.556   9.703  11.782  0.3191  0.4277  0.7714
 5890SOL     OW24274   2.462  10.075   5.054  0.0773  0.4772  0.7690
 5890SOL    HW124275   2.429  10.058   4.965  1.5470  0.3630  0.2296
 5890SOL    HW224276   2.499   9.992   5.082  0.8385  0.8764  0.9564
 5891SOL     OW24277   0.861   9.272   2.805  0.5195  0.4361 -0.0324
 5891SOL    HW124278   0.935   9.215   2.785  1.0016  1.2361 -0.5636
 5891SOL    HW224279   0.785   9.227   2.766  1.0674  0.7035 -1.4834
 5892SOL     OW24280   5.503   0.849   9.762 -0.0325  0.2336 -0.3038
 5892SOL    HW124281   5.546   0.901   9.831 -0.4111  0.4423 -0.2261
 5892SOL    HW224282   5.562   0.774   9.749  0.7328  0.8960 -0.7191
 5893SOL     OW24283   4.068   3.326   2.495 -0.2949  0.4994  0.5646
 5893SOL    HW124284   4.135   3.258   2.505 -0.4535 -0.1765 -2.1681
 5893SOL    HW224285   4.076   3.380   2.574  2.4719 -0.4083  1.0112
 5894SOL     OW24286   4.632   7.748   8.576  0.6197 -0.7870  0.2801
 5894SOL    HW124287   4.679   7.823   8.539 -0.0540 -0.5568 -0.1189
 5894SOL    HW224288   4.650   7.754   8.670 -0.7925  0.8799  0.4863
 5895SOL     OW24289   5.516   9.312   6.377  0.7489  0.1415 -0.3167
 5895SOL    HW124290   5.521   9.381   6.443  0.8150  0.2831 -0.4706
 5895SOL    HW224291   5.422   9.297   6.366  0.7280 -1.3734  1.3647
 5896SOL     OW24292   1.248   6.494  12.529 -0.5452  0.3831  0.5241
 5896SOL    HW124293   1.192   6.419  12.549  0.0945  0.2322  1.8690
 5896SOL    HW224294   1.314   6.460  12.469  1.4903 -0.9773  3.3179
 5897SOL     OW24295  10.893   8.487  10.020  0.5203  0.1084 -0.7971
 5897SOL    HW124296  10.920   8.527   9.937 -0.3238  1.5109 -0.4198
 5897SOL    HW224297  10.936   8.539  10.087  0.5505 -0.5215 -0.3231
 5898SOL     OW24298   0.060   2.963   3.152 -0.1263 -0.3137  0.3978
 5898SOL    HW124299  -0.008   2.912   3.194  0.7555 -3.0321 -1.1794
 5898SOL    HW224300   0.013   3.025   3.095 -1.2728 -0.9902  0.5844
 5899SOL     OW24301   4.933  10.578   4.435  0.1451 -0.5134 -0.4735
 5899SOL    HW124302   5.017  10.546   4.402 -0.0309 -1.1216 -0.3447
 5899SOL    HW224303   4.870  10.554   4.368 -0.6205 -3.8874  1.1872
 5900SOL     OW24304   4.360   2.405   4.221 -0.1987 -0.0416 -0.5002
 5900SOL    HW124305   4.360   2.382   4.128 -2.1194  1.5434 -0.9394
 5900SOL    HW224306   4.360   2.500   4.223  0.4319 -0.0295  1.1743
 5901SOL     OW24307  12.667   7.049   3.849  0.7855  0.2083 -0.1970
 5901SOL    HW124308  12.656   6.956   3.869 -1.1479  0.8044  1.9663
 5901SOL    HW224309  12.660   7.055   3.754  2.5845 -1.9888 -0.5651
 5902SOL     OW24310   1.197   1.984   5.755  0.1907 -0.5017 -0.0353
 5902SOL    HW124311   1.234   1.968   5.668  1.7725 -2.8552  0.9718
 5902SOL    HW224312   1.178   1.897   5.790  2.1474  0.1470  3.0037
 5903SOL     OW24313   4.265   3.720   9.198 -0.2282  0.0263 -0.4674
 5903SOL    HW124314   4.228   3.798   9.241  0.1345 -1.2489  2.4112
 5903SOL    HW224315   4.203   3.700   9.128 -3.2736 -0.0219  2.0089
 5904SOL     OW24316   5.752   9.322   3.978 -0.2733 -0.4662  0.0916
 5904SOL    HW124317   5.736   9.378   4.054  0.7484 -0.3204  0.2233
 5904SOL    HW224318   5.817   9.258   4.008  0.6161 -0.0250 -0.8148
 5905SOL     OW24319   8.304   7.214   6.237 -0.5284 -0.5244  0.7618
 5905SOL    HW124320   8.286   7.121   6.224  0.6259 -0.6098 -0.5026
 5905SOL    HW224321   8.218   7.256   6.242 -1.1008 -1.3032 -1.6077
 5906SOL     OW24322   8.747   3.097   0.651 -0.5527  0.0094  0.1601
 5906SOL    HW124323   8.794   3.045   0.586  0.2723  1.4666 -0.4646
 5906SOL    HW224324   8.659   3.060   0.653  0.2969 -2.1574  0.6187
 5907SOL     OW24325  10.168  10.047   9.400  0.8659 -0.3088 -0.3497
 5907SOL    HW124326  10.123  10.096   9.332  0.0098 -1.1028 -0.3830
 5907SOL    HW224327  10.220  10.112   9.447  0.1795  0.5269 -0.7299
 5908SOL     OW24328   2.123   7.396   6.472  0.0398 -0.1680  0.0977
 5908SOL    HW124329   2.037   7.399   6.515 -0.6560 -2.0255 -1.0537
 5908SOL    HW224330   2.167   7.476   6.501 -1.0164 -0.4897  2.9211
 5909SOL     OW24331  10.348  12.701   4.274  0.5542 -0.2140  0.3235
 5909SOL    HW124332  10.395  12.740   4.348  1.1186  0.0615 -0.1739
 5909SOL    HW224333  10.359  12.606   4.286  2.1762 -0.1307 -0.3797
 5910SOL     OW24334   3.624   8.807   7.474 -0.1454 -0.0919  0.5603
 5910SOL    HW124335   3.613   8.724   7.429  0.6346  0.2181 -0.2236
 5910SOL    HW224336   3.561   8.866   7.431  0.6910  0.2400 -0.2604
 5911SOL     OW24337   1.818   7.193  12.699  0.2181 -0.4132 -0.5607
 5911SOL    HW124338   1.842   7.270  12.749 -0.2400  0.4346 -1.6201
 5911SOL    HW224339   1.731   7.169  12.732  0.4500 -0.6198 -0.0834
 5912SOL     OW24340   6.519  10.035   9.167  0.2242 -0.4561 -0.2327
 5912SOL    HW124341   6.548   9.955   9.210  0.1837 -0.9940 -1.1729
 5912SOL    HW224342   6.586  10.052   9.101 -0.0284  0.0097 -0.3748
 5913SOL     OW24343   6.255   3.820   7.304  0.0026 -0.4293 -0.2622
 5913SOL    HW124344   6.223   3.885   7.366 -0.3977 -1.8726  1.0964
 5913SOL    HW224345   6.230   3.854   7.218 -0.7762  0.8668  0.4572
 5914SOL     OW24346   0.161   6.302   1.185 -0.0156 -0.7313  0.1401
 5914SOL    HW124347   0.154   6.208   1.169 -2.7518 -0.4821 -0.5767
 5914SOL    HW224348   0.245   6.327   1.146  0.9055 -2.8900  0.6056
 5915SOL     OW24349   6.278   7.529   1.012  0.1857 -0.3847 -0.1958
 5915SOL    HW124350   6.299   7.521   0.919  0.5759  1.6382 -0.3256
 5915SOL    HW224351   6.337   7.469   1.056  0.0509 -1.3076 -1.2387
 5916SOL     OW24352  10.802  11.593   5.071 -0.4276 -0.0610  0.1387
 5916SOL    HW124353  10.832  11.502   5.068 -0.5683 -0.1571  1.2724
 5916SOL    HW224354  10.870  11.642   5.026 -0.0495 -0.6528  0.0560
 5917SOL     OW24355  10.692   3.132   0.872  0.2262  0.1747  0.4681
 5917SOL    HW124356  10.685   3.077   0.794 -1.1823 -0.0497  0.7158
 5917SOL    HW224357  10.631   3.092   0.935 -1.1235  2.1629  0.5305
 5918SOL     OW24358   5.183   8.129   6.835  0.0427 -0.5489 -0.5183
 5918SOL    HW124359   5.193   8.059   6.900 -2.5751  0.0416  0.6311
 5918SOL    HW224360   5.250   8.193   6.858 -0.9510 -0.2479  1.8144
 5919SOL     OW24361   7.965   9.720   1.832  0.4089 -0.1463 -0.0196
 5919SOL    HW124362   7.926   9.704   1.918  0.5009  3.3531  0.8291
 5919SOL    HW224363   7.892   9.754   1.779  1.1185  1.5149 -0.0076
 5920SOL     OW24364   2.400   1.691   7.338  0.3252  0.1330  0.0472
 5920SOL    HW124365   2.373   1.750   7.409 -0.7507 -1.0666  0.6614
 5920SOL    HW224366   2.321   1.645   7.313  0.8541 -0.0250 -1.4391
 5921SOL     OW24367  11.344   0.986   7.095  0.1217  0.1329 -0.6137
 5921SOL    HW124368  11.278   0.951   7.036 -0.5000  0.4213 -0.0956
 5921SOL    HW224369  11.385   1.057   7.046  0.7756 -0.7110 -1.3298
 5922SOL     OW24370   4.757  12.020  11.042 -0.0430  0.2090 -0.8618
 5922SOL    HW124371   4.786  11.970  11.119  1.6903  1.3069 -0.7443
 5922SOL    HW224372   4.665  12.039  11.059  0.1472 -0.0842  0.6812
 5923SOL     OW24373   1.916   6.048   5.768 -0.6760  0.2859 -0.2044
 5923SOL    HW124374   1.951   5.979   5.711 -0.5334  0.3690 -0.2184
 5923SOL    HW224375   1.838   6.009   5.808 -0.3267 -0.0514  0.1554
 5924SOL     OW24376   2.140   2.296   3.219 -0.1880  0.2841  0.3994
 5924SOL    HW124377   2.134   2.391   3.209 -0.0472  0.5271  2.1593
 5924SOL    HW224378   2.096   2.260   3.143  0.7244  1.7523 -0.8699
 5925SOL     OW24379   1.206   9.575   4.557 -0.3078  0.4911 -0.2485
 5925SOL    HW124380   1.278   9.539   4.505 -0.8236 -3.5623  1.4670
 5925SOL    HW224381   1.129   9.567   4.500 -0.2991 -0.5836 -0.1251
 5926SOL     OW24382   0.466   2.712   6.095 -0.2776  0.0406 -0.0458
 5926SOL    HW124383   0.538   2.660   6.129  0.7161  0.1918 -1.7518
 5926SOL    HW224384   0.488   2.802   6.120  0.8491  0.2500 -1.5804
 5927SOL     OW24385   1.120  11.788   0.911  0.5806 -0.2197 -0.0733
 5927SOL    HW124386   1.210  11.808   0.886  1.2609 -1.1805  1.4776
 5927SOL    HW224387   1.095  11.858   0.971  0.4759 -0.2296 -0.1046
 5928SOL     OW24388   9.479  10.024  11.553  0.0678 -0.4327 -0.4240
 5928SOL    HW124389   9.561  10.072  11.563 -0.6141  0.5045  1.1354
 5928SOL    HW224390   9.416  10.075  11.605 -0.9730 -2.3662  0.2973
 5929SOL     OW24391  10.844   8.506   2.209  0.1326  0.0039  0.3530
 5929SOL    HW124392  10.838   8.476   2.300  1.5169 -2.3025 -0.2169
 5929SOL    HW224393  10.781   8.451   2.162 -1.1316  1.7000 -0.0297
 5930SOL     OW24394  11.964   2.596   2.418 -0.7306 -1.1539  0.1339
 5930SOL    HW124395  12.042   2.624   2.370 -0.7297 -0.5570  0.4785
 5930SOL    HW224396  11.893   2.645   2.377 -0.4164  1.4254  2.3981
 5931SOL     OW24397   3.195   4.151  12.446  0.1366  0.9168 -0.1735
 5931SOL    HW124398   3.154   4.111  12.369  0.8198  1.8190 -1.0366
 5931SOL    HW224399   3.190   4.083  12.514  1.7412 -0.8833 -1.7203
 5932SOL     OW24400  11.746   7.715   7.340 -0.2140  0.0620  0.8512
 5932SOL    HW124401  11.791   7.798   7.322 -1.9785  0.8397 -0.2083
 5932SOL    HW224402  11.754   7.665   7.258  0.8690 -0.8682  1.4922
 5933SOL     OW24403   5.959   2.935  12.616 -0.4895  0.6477  0.2541
 5933SOL    HW124404   5.935   3.019  12.655 -0.6569  0.6380  0.1745
 5933SOL    HW224405   6.040   2.910  12.659 -1.5482 -0.1934  1.8470
 5934SOL     OW24406   7.756   7.942   4.495  0.3635 -0.1066  0.0577
 5934SOL    HW124407   7.785   8.000   4.565 -1.7835 -0.5342  1.4205
 5934SOL    HW224408   7.824   7.875   4.490  0.2746 -0.4493  2.2561
 5935SOL     OW24409   9.100  10.455  12.079 -0.6167 -0.3101  0.5911
 5935SOL    HW124410   9.055  10.453  11.994 -1.0010  0.1434  0.7793
 5935SOL    HW224411   9.051  10.519  12.130  1.7527  2.1810 -0.0573
 5936SOL     OW24412   6.520   7.312   9.334 -0.3181 -0.3525  0.3917
 5936SOL    HW124413   6.486   7.386   9.283 -0.5393 -1.0361 -0.4619
 5936SOL    HW224414   6.588   7.274   9.279 -0.6553 -1.1846  0.5318
 5937SOL     OW24415   6.350  10.415  12.620 -0.5101  0.3898  0.3338
 5937SOL    HW124416   6.254  10.422  12.613 -0.3892  2.3308 -0.0984
 5937SOL    HW224417   6.370  10.451  12.706 -0.0968  1.1504 -0.0720
 5938SOL     OW24418   6.206   5.910   6.229  0.0228  0.2677  0.1174
 5938SOL    HW124419   6.301   5.898   6.219 -0.1892 -1.2974 -0.3257
 5938SOL    HW224420   6.187   5.874   6.315 -0.5023 -1.9022 -0.8431
 5939SOL     OW24421   3.479   4.028   0.183 -0.1559 -0.4921  0.1311
 5939SOL    HW124422   3.399   4.068   0.151 -0.9303 -1.6115  0.5806
 5939SOL    HW224423   3.461   3.934   0.180  0.7996 -0.7262  1.1151
 5940SOL     OW24424   0.800   8.594   2.041 -0.4567 -0.4867  0.1279
 5940SOL    HW124425   0.888   8.605   2.076 -1.0308 -0.4819  1.6452
 5940SOL    HW224426   0.800   8.644   1.960 -0.0446  2.4117  1.7871
 5941SOL     OW24427   0.420   9.859   2.152  0.2229  0.0328  0.5434
 5941SOL    HW124428   0.514   9.862   2.135  0.2728 -0.3252  0.7652
 5941SOL    HW224429   0.390   9.779   2.108  0.4527 -1.2476  2.6121
 5942SOL     OW24430   1.473   5.251   6.063 -0.7945  0.0284 -0.6843
 5942SOL    HW124431   1.389   5.209   6.043 -1.8226  1.9488 -0.5796
 5942SOL    HW224432   1.483   5.242   6.157  0.3144 -2.2582 -0.9534
 5943SOL     OW24433   9.215   3.934   8.999 -0.5465 -0.9076  0.0001
 5943SOL    HW124434   9.130   3.938   8.955  0.0444 -0.4829 -1.1400
 5943SOL    HW224435   9.275   3.902   8.932  0.4098 -0.1221  0.4646
 5944SOL     OW24436   9.980   2.364   9.354 -0.5174 -1.0696  0.1237
 5944SOL    HW124437  10.043   2.368   9.282 -0.8036 -0.9223 -0.1184
 5944SOL    HW224438   9.989   2.450   9.397 -1.4099 -0.5767 -0.6424
 5945SOL     OW24439  11.741   0.545   9.905  0.6070  0.2507 -0.1777
 5945SOL    HW124440  11.830   0.569   9.932  0.7859  0.5420 -0.9982
 5945SOL    HW224441  11.684   0.582   9.973  0.7269  4.3303 -1.9689
 5946SOL     OW24442   3.081  11.486   9.649  0.4164 -0.5348  0.5557
 5946SOL    HW124443   3.167  11.526   9.635 -0.7877  1.3675 -2.3897
 5946SOL    HW224444   3.020  11.560   9.650 -1.3577 -1.9295  1.1198
 5947SOL     OW24445   4.560   4.826   6.626  0.0057  0.2978  0.0169
 5947SOL    HW124446   4.620   4.757   6.598 -0.1518 -1.1885  2.9881
 5947SOL    HW224447   4.480   4.809   6.577  1.3239  1.1882 -2.6115
 5948SOL     OW24448   8.430   4.285  11.782 -0.3752 -0.3757  0.2332
 5948SOL    HW124449   8.511   4.235  11.771 -0.3682 -0.5538  1.0305
 5948SOL    HW224450   8.407   4.313  11.693  0.7807  0.0204  0.0302
 5949SOL     OW24451   5.443   5.391   0.989  0.0499 -0.0920  0.2455
 5949SOL    HW124452   5.435   5.340   0.908 -1.9294  0.3186  0.1515
 5949SOL    HW224453   5.427   5.327   1.059  1.9555 -0.4902  0.3778
 5950SOL     OW24454   2.044   7.208  10.824 -0.4021 -0.2296 -0.2520
 5950SOL    HW124455   2.100   7.264  10.770  0.3760 -1.4621 -0.7625
 5950SOL    HW224456   1.961   7.255  10.828  0.1177  0.7978 -0.9468
 5951SOL     OW24457   1.583   7.224   2.742 -0.0552  0.0455 -0.3136
 5951SOL    HW124458   1.668   7.260   2.766  1.9318 -1.9403 -3.6153
 5951SOL    HW224459   1.538   7.296   2.697  0.5878  0.6230 -0.0529
 5952SOL     OW24460   0.159   6.033   7.649 -0.2469 -0.0136 -0.0262
 5952SOL    HW124461   0.073   6.072   7.661  0.4551  1.5102  0.2476
 5952SOL    HW224462   0.141   5.945   7.616 -1.8998  0.1862  0.2668
 5953SOL     OW24463   5.532  10.125   6.382 -0.0544  0.4414 -0.7967
 5953SOL    HW124464   5.480  10.044   6.379  1.4206 -0.6734  1.1076
 5953SOL    HW224465   5.581  10.125   6.300  1.1682 -1.5405 -0.1423
 5954SOL     OW24466  11.934   4.579   8.468  0.6104 -0.6950 -0.8203
 5954SOL    HW124467  11.991   4.629   8.528  0.1062  1.2323 -1.8539
 5954SOL    HW224468  11.863   4.548   8.524  0.3730  0.7072 -0.2839
 5955SOL     OW24469   9.817  11.710   3.636 -0.3506  0.0700 -0.5425
 5955SOL    HW124470   9.723  11.694   3.636 -0.2570 -0.5442 -1.3360
 5955SOL    HW224471   9.857  11.623   3.635  0.2156  0.3228 -0.9273
 5956SOL     OW24472  12.536  11.843   0.860 -0.3925  0.1253 -0.1783
 5956SOL    HW124473  12.553  11.891   0.941 -1.0359  0.1675 -0.0639
 5956SOL    HW224474  12.494  11.907   0.803 -1.2632 -0.2980 -0.0204
 5957SOL     OW24475   1.543   2.198   4.845  0.2561  0.0106 -0.5532
 5957SOL    HW124476   1.493   2.260   4.792 -0.7247  0.5997  0.9834
 5957SOL    HW224477   1.492   2.189   4.926  1.3437 -1.3727  0.0196
 5958SOL     OW24478   9.243   5.559   3.898 -1.2187  0.1173 -0.3921
 5958SOL    HW124479   9.249   5.519   3.811  0.2685 -0.1887 -0.1860
 5958SOL    HW224480   9.315   5.622   3.900 -0.0835 -1.1311  1.1983
 5959SOL     OW24481   0.527   1.228  11.500 -0.0682  0.2339  0.5677
 5959SOL    HW124482   0.498   1.145  11.462 -0.3051  0.1045  1.0231
 5959SOL    HW224483   0.553   1.206  11.590  0.1515  0.5973  0.5953
 5960SOL     OW24484  10.813  11.175  10.435 -0.2252 -0.4179  0.1643
 5960SOL    HW124485  10.869  11.239  10.477 -2.0336  1.3392  0.0703
 5960SOL    HW224486  10.778  11.122  10.507 -1.2074  0.8230  0.6326
 5961SOL     OW24487   4.788   6.249   3.686 -0.3012 -0.0137  0.0304
 5961SOL    HW124488   4.783   6.328   3.631 -1.5523  0.0786  0.2545
 5961SOL    HW224489   4.741   6.182   3.637  0.2696 -0.4873  0.1091
 5962SOL     OW24490   5.248   8.508   0.705 -0.1600  0.0112  0.1496
 5962SOL    HW124491   5.173   8.461   0.741 -0.9116  1.2007  0.2072
 5962SOL    HW224492   5.308   8.517   0.779 -0.3677 -0.1537  0.3393
 5963SOL     OW24493  12.086   6.971   8.535  0.5655  0.2008 -0.3261
 5963SOL    HW124494  12.117   6.886   8.502 -0.6713 -0.0163 -1.0030
 5963SOL    HW224495  11.992   6.958   8.547  0.2846  1.6031 -0.8366
 5964SOL     OW24496   1.510   1.597  10.079 -0.2589 -0.1128  0.5922
 5964SOL    HW124497   1.596   1.600  10.037 -0.5047 -0.9194  0.0084
 5964SOL    HW224498   1.501   1.683  10.122  1.0569 -0.2189  1.1294
 5965SOL     OW24499   2.795  11.363   0.514 -0.3095  0.3476 -0.3974
 5965SOL    HW124500   2.782  11.453   0.544  0.1695  0.6198 -0.9800
 5965SOL    HW224501   2.801  11.312   0.595  0.6843  1.0285 -0.0090
 5966SOL     OW24502   9.825   4.450   8.390 -0.5210  0.6185  0.0542
 5966SOL    HW124503   9.830   4.541   8.360 -0.6240  0.5686 -0.1173
 5966SOL    HW224504   9.916   4.424   8.403 -0.5108  0.9320  0.6745
 5967SOL     OW24505   6.932  10.432  11.470 -0.0299  0.2606  0.3045
 5967SOL    HW124506   6.866  10.500  11.485 -1.2025 -1.2567  2.4257
 5967SOL    HW224507   7.015  10.479  11.473 -0.8875  1.9714 -0.8878
 5968SOL     OW24508   3.047   9.122   7.747  0.3833 -0.2056 -0.4089
 5968SOL    HW124509   3.088   9.160   7.669 -0.2810  0.8013 -0.2814
 5968SOL    HW224510   3.113   9.061   7.781  1.0874  0.1087 -1.1737
 5969SOL     OW24511   1.098   1.864  11.743  0.1453 -0.2371 -0.1499
 5969SOL    HW124512   1.051   1.948  11.747  1.4769  0.8263 -3.4144
 5969SOL    HW224513   1.095   1.839  11.650  3.1514 -1.7562  0.0284
 5970SOL     OW24514   8.541   6.378   3.825 -0.2927 -0.2729 -0.5908
 5970SOL    HW124515   8.462   6.374   3.879  0.9039 -1.8769  1.1832
 5970SOL    HW224516   8.553   6.288   3.794  1.1230 -0.2051 -0.3165
 5971SOL     OW24517   5.049  10.196   4.753  0.1176  0.5041  0.3284
 5971SOL    HW124518   4.987  10.168   4.686 -0.8636  0.8228  1.0827
 5971SOL    HW224519   5.078  10.115   4.795 -0.9240  0.4291  0.9431
 5972SOL     OW24520  11.969   5.033  11.790  0.0455 -0.2395 -0.0741
 5972SOL    HW124521  11.947   5.056  11.880  2.1315  0.9269  0.1999
 5972SOL    HW224522  11.916   5.092  11.736 -1.8603 -1.5204  0.2909
 5973SOL     OW24523  12.011  10.063  12.473  0.0747  0.4884 -0.3415
 5973SOL    HW124524  12.017  10.064  12.569  0.9703  0.4273 -0.3883
 5973SOL    HW224525  12.091  10.019  12.445 -1.3392 -1.8591 -1.0464
 5974SOL     OW24526  12.636   0.593   8.628  0.3050  0.4789  0.6994
 5974SOL    HW124527  12.572   0.532   8.592 -1.2231  1.8588  1.0064
 5974SOL    HW224528  12.609   0.679   8.596  2.0566  1.1077  0.7777
 5975SOL     OW24529   8.418   1.534  11.084 -0.1409 -0.2530  0.2098
 5975SOL    HW124530   8.491   1.595  11.074  0.7324 -1.4465 -1.2423
 5975SOL    HW224531   8.342   1.581  11.050  0.5132  0.0563 -0.8892
 5976SOL     OW24532   8.873   4.313   1.381 -0.0630 -0.0388  0.0149
 5976SOL    HW124533   8.959   4.346   1.354  1.1187 -2.2813  0.7630
 5976SOL    HW224534   8.825   4.300   1.299  1.2718 -1.1358 -0.6373
 5977SOL     OW24535   8.112  10.550   9.044 -0.0871  0.3778  0.4490
 5977SOL    HW124536   8.094  10.461   9.071  2.1030 -0.3761 -0.3499
 5977SOL    HW224537   8.045  10.570   8.978 -0.3058 -0.8489  0.2900
 5978SOL     OW24538  10.358  11.772  11.121 -0.2447 -0.0090  0.4941
 5978SOL    HW124539  10.323  11.731  11.042 -0.8533  0.5745  0.4484
 5978SOL    HW224540  10.282  11.813  11.163  0.3543  1.2106  0.4442
 5979SOL     OW24541   0.729   8.132   3.026 -0.2465  0.1835  0.1650
 5979SOL    HW124542   0.787   8.160   3.098  1.1140 -1.9823 -0.0072
 5979SOL    HW224543   0.687   8.213   2.997  2.2482  1.7781  0.7109
 5980SOL     OW24544   5.962   9.771   1.814  0.0511  0.1227  0.0553
 5980SOL    HW124545   6.002   9.738   1.894 -0.4274  1.3480  0.8281
 5980SOL    HW224546   6.010   9.727   1.743  1.7978  0.4452  0.9710
 5981SOL     OW24547   7.316   9.365   6.709 -0.7991 -0.6943  0.1022
 5981SOL    HW124548   7.274   9.444   6.741  1.7026  0.3806  1.0027
 5981SOL    HW224549   7.364   9.393   6.631 -1.8346 -1.9056 -1.0126
 5982SOL     OW24550   8.544  11.374   7.676  0.0969  0.1593  0.0379
 5982SOL    HW124551   8.633  11.390   7.645 -0.0739 -2.4602 -2.2013
 5982SOL    HW224552   8.547  11.396   7.769  3.0174  0.3638 -0.0088
 5983SOL     OW24553   3.379   1.672   3.149 -0.8065 -0.0105 -0.3180
 5983SOL    HW124554   3.391   1.657   3.056 -1.6724  1.0047 -0.6115
 5983SOL    HW224555   3.466   1.692   3.182 -0.6355  0.5670 -1.1005
 5984SOL     OW24556   2.087  11.849   0.604  0.9087  0.6846 -0.2712
 5984SOL    HW124557   2.129  11.905   0.669 -2.2780  1.8141  0.9636
 5984SOL    HW224558   2.080  11.904   0.526  0.7211  0.8863 -0.1139
 5985SOL     OW24559  11.715   1.556  10.025  0.2144 -0.3826 -0.8599
 5985SOL    HW124560  11.726   1.490  10.092 -0.0787  0.2617 -0.1645
 5985SOL    HW224561  11.746   1.514   9.944  0.6059 -1.1441 -0.3230
 5986SOL     OW24562  12.546   7.852  10.765 -0.6398 -0.0403 -0.0286
 5986SOL    HW124563  12.497   7.776  10.797 -1.2235 -0.4833 -1.8669
 5986SOL    HW224564  12.483   7.925  10.771 -0.7310 -0.1099 -0.1425
 5987SOL     OW24565   8.065   7.946   7.972  0.0709  0.1984  0.5817
 5987SOL    HW124566   8.149   7.905   7.992  0.1746 -0.3405 -0.8322
 5987SOL    HW224567   8.033   7.978   8.056  1.2263 -0.4639  1.2965
 5988SOL     OW24568   2.226  11.736   4.046 -0.6529 -0.2856  0.2331
 5988SOL    HW124569   2.316  11.704   4.036 -0.6833 -0.3815  0.2701
 5988SOL    HW224570   2.171  11.659   4.029 -0.7658  0.0569 -1.0513
 5989SOL     OW24571  12.629   6.975   3.171 -0.4507 -0.2449 -0.1115
 5989SOL    HW124572  12.562   7.043   3.158  0.1942  0.6515  1.0498
 5989SOL    HW224573  12.703   7.005   3.119  0.2146  0.5420  1.2273
 5990SOL     OW24574  10.674  10.984  11.008  0.2187 -0.0610 -0.1920
 5990SOL    HW124575  10.749  11.043  11.016 -0.2384  0.8161 -1.8288
 5990SOL    HW224576  10.712  10.897  11.003  1.0106  0.2129  0.6804
 5991SOL     OW24577   1.129   9.724   7.017  0.0090 -0.0138  0.4146
 5991SOL    HW124578   1.210   9.733   6.968 -1.0807  0.1847 -1.4285
 5991SOL    HW224579   1.096   9.637   6.995 -0.5637  0.1265  0.6749
 5992SOL     OW24580   8.031   7.439   3.747  0.2057 -0.3532  0.3823
 5992SOL    HW124581   8.033   7.407   3.837  1.2526  0.0674  0.5238
 5992SOL    HW224582   8.106   7.498   3.741 -0.6628  0.7049 -0.3740
 5993SOL     OW24583   4.737   0.671   5.963 -0.6789  0.1297 -0.2320
 5993SOL    HW124584   4.714   0.712   6.046 -0.7992  0.8840 -0.6265
 5993SOL    HW224585   4.799   0.603   5.987 -0.8224  0.2383  0.4926
 5994SOL     OW24586  10.772   1.332   4.193 -0.2787  0.2304  0.0305
 5994SOL    HW124587  10.730   1.346   4.278 -0.2664 -2.6422  0.6143
 5994SOL    HW224588  10.847   1.275   4.213  0.8703  1.0677 -1.6789
 5995SOL     OW24589   6.150   2.749   7.683 -0.2880 -0.2629 -0.6376
 5995SOL    HW124590   6.178   2.722   7.770 -0.5528  0.7687 -0.2138
 5995SOL    HW224591   6.229   2.785   7.643  0.1095 -1.7487 -1.2707
 5996SOL     OW24592  12.675  11.636   9.598  0.2089 -0.0464  0.3317
 5996SOL    HW124593  12.663  11.560   9.655 -0.2104  0.0561  0.3837
 5996SOL    HW224594  12.769  11.651   9.597  0.4301 -1.3621 -0.7042
 5997SOL     OW24595   5.518   8.338  11.216 -0.2271 -0.1063 -0.1924
 5997SOL    HW124596   5.606   8.375  11.212 -0.0884 -0.5629 -1.9605
 5997SOL    HW224597   5.463   8.410  11.246  0.5474  0.5392 -0.2977
 5998SOL     OW24598   2.032   5.674   8.732  0.4192  0.1142 -0.4987
 5998SOL    HW124599   1.975   5.749   8.746  0.6288  0.7751 -2.8025
 5998SOL    HW224600   2.118   5.712   8.711  0.6490 -0.7566 -1.2024
 5999SOL     OW24601   1.388   0.483   3.385  0.2792 -0.1219 -0.1252
 5999SOL    HW124602   1.406   0.554   3.324  0.9720  1.0063  1.3297
 5999SOL    HW224603   1.302   0.503   3.421  0.5655  0.1095  0.4426
 6000SOL     OW24604   5.046   3.371   4.425  0.5095 -0.1299  0.7493
 6000SOL    HW124605   5.015   3.336   4.342 -1.0913  0.3210  1.1338
 6000SOL    HW224606   5.105   3.442   4.401  0.3519 -0.2475  0.0061
 6001SOL     OW24607   8.898  12.734   6.898 -0.2745 -0.1776 -0.0209
 6001SOL    HW124608   8.844  12.807   6.929 -0.0364  0.1261 -0.3164
 6001SOL    HW224609   8.966  12.775   6.844  1.1724 -0.3735  1.5479
 6002SOL     OW24610   1.331   4.669   2.888  0.1396  0.2243  0.3712
 6002SOL    HW124611   1.243   4.670   2.927 -1.0570 -0.0081 -2.1595
 6002SOL    HW224612   1.361   4.579   2.899 -0.4014  0.0310  0.3087
 6003SOL     OW24613   5.808   8.060   8.022  0.2082 -0.4351  0.2731
 6003SOL    HW124614   5.760   8.032   8.100  0.7100  0.7747  1.0521
 6003SOL    HW224615   5.848   7.980   7.989 -2.0839 -1.4395 -0.2517
 6004SOL     OW24616   0.157   1.157   7.662  0.3539  0.0537 -0.2823
 6004SOL    HW124617   0.135   1.065   7.671  0.8205  0.0674  1.4236
 6004SOL    HW224618   0.150   1.175   7.568 -1.0654 -1.3603 -0.4888
 6005SOL     OW24619   3.849   4.378   6.753 -0.8395 -0.3724 -0.1734
 6005SOL    HW124620   3.811   4.384   6.841 -0.9228 -1.5468 -0.1166
 6005SOL    HW224621   3.811   4.298   6.716 -0.1850 -0.3205 -0.9798
 6006SOL     OW24622   2.651   5.873  12.031 -0.1063  0.6270 -0.9915
 6006SOL    HW124623   2.590   5.831  11.971 -1.2789 -0.4175  0.8508
 6006SOL    HW224624   2.599   5.938  12.078 -0.2416 -1.0972  1.4707
 6007SOL     OW24625   3.019   1.941   4.874  0.0861  0.2266  0.0970
 6007SOL    HW124626   3.021   2.033   4.849 -0.5705  0.3440  0.4629
 6007SOL    HW224627   2.982   1.896   4.798  1.2260  0.1286 -0.4360
 6008SOL     OW24628   3.146   1.103  10.966 -0.2516 -0.2401  0.3641
 6008SOL    HW124629   3.073   1.165  10.976 -0.3659 -0.5102  1.2434
 6008SOL    HW224630   3.123   1.052  10.888  0.6737  1.9280 -1.4271
 6009SOL     OW24631   7.262   1.016   4.678  0.3246  0.5612 -0.4745
 6009SOL    HW124632   7.245   0.946   4.616  0.1850  1.2422 -1.2179
 6009SOL    HW224633   7.189   1.011   4.741 -0.0021  0.4230 -0.8622
 6010SOL     OW24634   0.045   7.994   9.016 -0.1874  0.5356  0.5544
 6010SOL    HW124635   0.043   7.968   8.925 -0.8732 -1.3050  1.0549
 6010SOL    HW224636   0.138   7.996   9.039 -0.0583  0.0613  0.0751
 6011SOL     OW24637   6.548   1.489   7.459 -0.3808 -0.6279 -0.2644
 6011SOL    HW124638   6.629   1.489   7.408  0.3208 -1.4044  0.8186
 6011SOL    HW224639   6.479   1.502   7.394  0.6206  0.5091 -1.1601
 6012SOL     OW24640   2.623   0.182   5.168 -0.2048 -0.6711  0.4268
 6012SOL    HW124641   2.648   0.135   5.248 -1.5518 -0.1374  1.1997
 6012SOL    HW224642   2.610   0.113   5.103 -1.6435 -1.3732  1.4066
 6013SOL     OW24643  11.643  10.293   8.378 -0.5945  0.2301  0.9573
 6013SOL    HW124644  11.686  10.264   8.297 -1.5784 -0.1623  0.5665
 6013SOL    HW224645  11.624  10.385   8.363  0.5999  0.5583  1.3571
 6014SOL     OW24646   5.715   9.890   7.840  0.2869 -0.4001 -0.1772
 6014SOL    HW124647   5.800   9.873   7.798 -0.1498 -1.7606 -0.5635
 6014SOL    HW224648   5.707   9.821   7.906 -0.0346  0.3925  0.6334
 6015SOL     OW24649  10.922  12.584  10.624  0.7576  0.1584  0.1176
 6015SOL    HW124650  10.974  12.507  10.601  1.0563  0.5035 -0.4065
 6015SOL    HW224651  10.866  12.555  10.696 -0.0292 -0.9120 -0.8844
 6016SOL     OW24652   0.760   3.089   6.988  0.2620 -0.6583  0.5739
 6016SOL    HW124653   0.780   3.115   6.898 -2.0452 -0.8932 -0.0593
 6016SOL    HW224654   0.795   3.160   7.042 -0.6845  0.8283 -0.7066
 6017SOL     OW24655   3.458   4.332   5.612 -0.0518  0.1493 -0.0283
 6017SOL    HW124656   3.416   4.246   5.614  1.7353 -0.7523  1.2929
 6017SOL    HW224657   3.466   4.358   5.704 -0.6436  1.7972 -0.4003
 6018SOL     OW24658   5.622   3.997   9.814 -0.0879 -0.9472 -0.2018
 6018SOL    HW124659   5.679   4.037   9.880 -1.6114 -0.2696  0.7469
 6018SOL    HW224660   5.600   3.911   9.850  0.0174 -1.0553 -0.3903
 6019SOL     OW24661   4.371  10.639   7.216 -0.1806  0.5920 -0.6464
 6019SOL    HW124662   4.353  10.548   7.194 -0.1821  0.4769 -0.1764
 6019SOL    HW224663   4.359  10.687   7.134 -1.5665  0.3670 -0.6022
 6020SOL     OW24664   3.224   0.985  12.402 -0.0689 -0.0818  0.3818
 6020SOL    HW124665   3.265   0.932  12.471  3.0374  0.2202 -1.0557
 6020SOL    HW224666   3.247   0.940  12.321 -2.0794  0.5662 -0.6090
 6021SOL     OW24667   3.884   4.342  10.702 -0.0288 -0.4267 -0.1068
 6021SOL    HW124668   3.846   4.288  10.633 -0.1841 -0.8398  0.2935
 6021SOL    HW224669   3.975   4.314  10.707 -0.0899 -0.5991  0.0485
 6022SOL     OW24670  11.523   9.448   2.567 -0.3281  0.3758 -0.2739
 6022SOL    HW124671  11.578   9.476   2.641  0.0192  1.0541 -0.7745
 6022SOL    HW224672  11.433   9.453   2.600 -0.2333  1.4955 -0.1428
 6023SOL     OW24673   5.483   1.023  12.759  0.4257  0.1275 -0.3873
 6023SOL    HW124674   5.573   1.044  12.732  0.2045  1.7466  0.0488
 6023SOL    HW224675   5.462   1.088  12.826  0.1825 -2.3747  2.1975
 6024SOL     OW24676   9.102   9.222   8.599 -0.4103 -0.1594  0.5294
 6024SOL    HW124677   9.034   9.197   8.536 -0.2698 -1.6567  0.9445
 6024SOL    HW224678   9.167   9.268   8.546 -1.0790  0.0667 -0.1234
 6025SOL     OW24679   6.623  12.614   3.880  0.2220 -0.0697  0.4421
 6025SOL    HW124680   6.620  12.610   3.976 -0.2783 -0.6960  0.4121
 6025SOL    HW224681   6.711  12.584   3.858 -0.0463 -1.0907  0.6760
 6026SOL     OW24682   5.485   2.176   0.802  0.4509  0.2462 -0.8022
 6026SOL    HW124683   5.479   2.087   0.838  0.6022  0.0311 -1.2936
 6026SOL    HW224684   5.575   2.182   0.770 -0.1593 -0.2145 -2.7651
 6027SOL     OW24685   0.160   1.005  11.877 -0.2941  0.3161 -0.1396
 6027SOL    HW124686   0.123   0.947  11.943  0.9826  1.2475  1.4626
 6027SOL    HW224687   0.198   0.946  11.812 -1.4398 -0.6275  0.0201
 6028SOL     OW24688   2.950  12.777   7.155 -0.3961  0.4200  0.2055
 6028SOL    HW124689   3.030  12.784   7.103 -0.5686 -0.8168 -0.2738
 6028SOL    HW224690   2.910  12.863   7.151  0.5418  0.8466 -0.1611
 6029SOL     OW24691   7.015  11.099   3.201  0.0408  0.1951 -0.0060
 6029SOL    HW124692   7.046  11.016   3.164 -0.0403  0.1512  0.0249
 6029SOL    HW224693   6.922  11.102   3.176 -0.3992 -0.5263  1.4180
 6030SOL     OW24694   1.338   2.757   3.196  0.2780 -0.3543 -0.0391
 6030SOL    HW124695   1.424   2.742   3.235  0.2701 -0.3866 -0.0340
 6030SOL    HW224696   1.355   2.809   3.118  0.0975  1.6756  1.2085
 6031SOL     OW24697   0.998   2.542   9.421  0.1404  0.4577  0.0896
 6031SOL    HW124698   1.055   2.590   9.362  0.6547  1.4674  1.3575
 6031SOL    HW224699   0.950   2.482   9.365  1.2236  0.7818 -1.2217
 6032SOL     OW24700   9.938   9.896   9.172  0.3394  0.9187 -0.8958
 6032SOL    HW124701  10.015   9.868   9.221 -0.7245  1.0290  0.9538
 6032SOL    HW224702   9.949   9.990   9.162 -0.1158  1.1538  0.5222
 6033SOL     OW24703   6.551   3.804   6.122 -0.2204 -0.0449  0.3339
 6033SOL    HW124704   6.531   3.879   6.177 -3.3461 -0.5329  0.0580
 6033SOL    HW224705   6.536   3.835   6.032 -0.1260 -0.6215  0.1143
 6034SOL     OW24706   4.150  11.801   2.812 -0.9703 -0.2272  0.3007
 6034SOL    HW124707   4.093  11.768   2.743 -0.0409  0.2904 -0.7398
 6034SOL    HW224708   4.217  11.733   2.823 -1.4708 -0.5940  1.1449
 6035SOL     OW24709   1.451  10.218   1.723  0.3986  0.5611 -0.2302
 6035SOL    HW124710   1.409  10.136   1.751 -0.9231  1.2909 -0.0104
 6035SOL    HW224711   1.382  10.283   1.728  1.8479  2.0810  1.3178
 6036SOL     OW24712  12.098  11.373   3.756 -0.2620 -0.6117  0.1451
 6036SOL    HW124713  12.155  11.296   3.762 -2.1106 -2.1675 -1.0320
 6036SOL    HW224714  12.147  11.435   3.701  0.0410 -2.2224 -1.5145
 6037SOL     OW24715   4.358   4.989   2.246  0.1108 -0.3268  0.0530
 6037SOL    HW124716   4.442   5.028   2.271  0.4802 -0.5788 -0.7570
 6037SOL    HW224717   4.294   5.030   2.304  0.7866 -0.0968  0.6463
 6038SOL     OW24718   0.216   2.503   7.705  0.5460  0.5393 -0.2919
 6038SOL    HW124719   0.185   2.425   7.658 -0.0070  0.3153  0.4359
 6038SOL    HW224720   0.139   2.538   7.748  0.8509  1.3309 -0.3564
 6039SOL     OW24721   9.462   5.556   9.242  0.2943 -0.0120  0.2843
 6039SOL    HW124722   9.457   5.491   9.171 -2.2983  2.0064 -1.5532
 6039SOL    HW224723   9.447   5.505   9.322 -1.2781 -1.7589 -1.0283
 6040SOL     OW24724   8.632   2.776   2.099 -1.0192  0.4520 -0.1538
 6040SOL    HW124725   8.663   2.811   2.015 -0.1049 -0.6232 -0.2886
 6040SOL    HW224726   8.624   2.682   2.084 -1.0188  0.2696  0.9124
 6041SOL     OW24727  12.237   0.119   5.537  0.1340 -0.2684 -0.1956
 6041SOL    HW124728  12.171   0.174   5.497 -0.0283 -0.7062 -0.5400
 6041SOL    HW224729  12.318   0.140   5.490  0.3976  0.7692  0.6870
 6042SOL     OW24730  11.820   7.680  12.668  0.0340 -0.1966 -0.0575
 6042SOL    HW124731  11.740   7.636  12.640  0.6036 -0.7241 -0.9061
 6042SOL    HW224732  11.822   7.667  12.763 -1.7576  1.3409  0.2539
 6043SOL     OW24733   8.150   2.077   6.415  0.2251 -0.2151  0.0410
 6043SOL    HW124734   8.221   2.091   6.352  2.9450 -0.5285  2.7750
 6043SOL    HW224735   8.173   1.995   6.459 -2.0851 -0.5091  0.8342
 6044SOL     OW24736   9.291   2.220   0.814 -0.0163  0.4538 -0.2359
 6044SOL    HW124737   9.322   2.182   0.732  1.2336 -0.8362  0.7696
 6044SOL    HW224738   9.370   2.253   0.857 -0.2049 -1.2341  1.5716
 6045SOL     OW24739   4.544   8.723  10.034 -0.1142  0.1157 -0.1791
 6045SOL    HW124740   4.490   8.797  10.006  0.5271  0.3933 -0.7138
 6045SOL    HW224741   4.509   8.648   9.986 -0.1601  0.2557 -0.3684
 6046SOL     OW24742   0.745   4.646   9.271  0.6313 -0.2942  0.4664
 6046SOL    HW124743   0.792   4.624   9.352  1.2236 -0.5993  0.0522
 6046SOL    HW224744   0.776   4.735   9.250 -0.4431  0.2735  1.2127
 6047SOL     OW24745   2.548   1.615  11.535  0.4602 -0.5287 -0.2165
 6047SOL    HW124746   2.492   1.557  11.484  0.6245 -2.5563  1.7459
 6047SOL    HW224747   2.490   1.684  11.566 -1.0551 -2.5299  1.6912
 6048SOL     OW24748   3.561   7.349   0.927  0.7217 -0.0408  0.0237
 6048SOL    HW124749   3.575   7.444   0.928  0.2032  0.0359  0.7854
 6048SOL    HW224750   3.474   7.338   0.888  1.8892 -0.3916 -2.7094
 6049SOL     OW24751   5.347   8.536   5.321 -0.6819  0.5764 -0.1944
 6049SOL    HW124752   5.304   8.451   5.333 -1.5062  0.8434 -1.1211
 6049SOL    HW224753   5.404   8.522   5.245  0.0051  0.5618  0.3108
 6050SOL     OW24754  11.747   6.352  10.293 -0.8886 -0.3688  0.4683
 6050SOL    HW124755  11.724   6.264  10.324 -1.2997  0.1494  1.7036
 6050SOL    HW224756  11.664   6.398  10.289 -0.5968  0.1736  0.5458
 6051SOL     OW24757   0.497   4.944   5.424  0.1074  0.0244 -0.5552
 6051SOL    HW124758   0.428   5.010   5.429  1.2274  1.4551 -2.4787
 6051SOL    HW224759   0.452   4.861   5.439 -1.8416  0.9883 -0.7230
 6052SOL     OW24760  11.498   1.071   5.140 -0.4170  0.0534 -0.0406
 6052SOL    HW124761  11.588   1.037   5.146 -0.7817 -0.9443  0.0715
 6052SOL    HW224762  11.498   1.127   5.063  0.4719  0.6119  0.3471
 6053SOL     OW24763   3.957   3.612   2.042  0.6974  0.0592 -0.1329
 6053SOL    HW124764   3.950   3.594   2.136  1.1617  0.3589 -0.0369
 6053SOL    HW224765   4.046   3.646   2.030  0.9122 -0.7202 -0.8130
 6054SOL     OW24766   5.014   4.075   4.034 -0.8114  0.2567 -0.4100
 6054SOL    HW124767   5.052   4.014   4.097  0.7117  0.0228 -1.5079
 6054SOL    HW224768   5.036   4.162   4.068  0.8915  0.1266 -1.0981
 6055SOL     OW24769  10.840   6.426   8.841 -0.4568  0.0975 -0.2904
 6055SOL    HW124770  10.762   6.411   8.895 -0.4746 -0.4158 -0.4532
 6055SOL    HW224771  10.822   6.508   8.795 -0.2391  0.8051  0.8365
 6056SOL     OW24772   1.047   9.709   1.205 -0.2686  0.3743 -0.4176
 6056SOL    HW124773   1.130   9.744   1.236  0.4939 -0.8994 -0.9336
 6056SOL    HW224774   1.063   9.615   1.193 -1.3905  0.3103 -1.7574
 6057SOL     OW24775   3.510   2.887   6.298 -0.0289  0.2769 -0.8207
 6057SOL    HW124776   3.603   2.909   6.299  0.1911 -0.4941  1.1386
 6057SOL    HW224777   3.509   2.792   6.284 -0.4210  0.0676  0.5049
 6058SOL     OW24778   6.192   8.215   0.928 -0.1541 -0.1505  0.1278
 6058SOL    HW124779   6.271   8.267   0.936 -0.7149  0.7962 -0.3907
 6058SOL    HW224780   6.122   8.278   0.914 -1.3353 -0.7835  2.5712
 6059SOL     OW24781  11.304   3.972  12.751  0.5498  0.1018 -0.2059
 6059SOL    HW124782  11.304   4.064  12.777 -0.0178  0.2374 -0.6753
 6059SOL    HW224783  11.395   3.943  12.765  0.9366  0.9619 -0.8786
 6060SOL     OW24784   7.132   2.036   0.574 -0.7408  0.2909  0.7469
 6060SOL    HW124785   7.174   2.009   0.655  0.5037 -1.4949 -0.4222
 6060SOL    HW224786   7.040   2.013   0.586 -0.6650  0.5162  1.8322
 6061SOL     OW24787   6.145  12.357   1.163 -0.0818  0.3192 -0.0409
 6061SOL    HW124788   6.096  12.432   1.195 -0.0600  0.7587 -0.9850
 6061SOL    HW224789   6.082  12.286   1.161 -0.6854  0.8529 -1.1483
 6062SOL     OW24790  11.535   3.841   4.613  0.4991 -0.1732 -0.1328
 6062SOL    HW124791  11.524   3.919   4.667 -0.4145  0.4991 -1.2486
 6062SOL    HW224792  11.582   3.779   4.669 -0.0896  0.6308  1.2809
 6063SOL     OW24793  10.629   9.082   6.013  0.3815 -0.3531  0.0957
 6063SOL    HW124794  10.643   9.155   5.953  0.2389 -0.8405 -0.5462
 6063SOL    HW224795  10.683   9.011   5.979  1.2137 -0.2857  1.2205
 6064SOL     OW24796   2.017   1.721   3.346  0.1727 -0.2864 -0.4493
 6064SOL    HW124797   2.061   1.719   3.431 -0.1611  1.5030 -0.1757
 6064SOL    HW224798   2.033   1.636   3.307  2.3381 -0.3162  0.4180
 6065SOL     OW24799   8.802  12.570   3.803  0.1849 -0.1945 -0.1061
 6065SOL    HW124800   8.843  12.647   3.763 -0.5557 -0.2790 -1.0587
 6065SOL    HW224801   8.788  12.510   3.730 -0.1430 -0.8410  0.4753
 6066SOL     OW24802  12.273   7.923  10.940  0.4110 -0.1639  0.0269
 6066SOL    HW124803  12.261   7.838  10.982  1.5484 -0.0464  0.6028
 6066SOL    HW224804  12.357   7.955  10.972 -0.1205  1.3119  0.0362
 6067SOL     OW24805  11.983  11.100   3.498 -0.2909  0.1001 -0.4184
 6067SOL    HW124806  11.931  11.046   3.557  1.4098  0.1818  1.2515
 6067SOL    HW224807  11.963  11.190   3.524  1.3637  0.1253  0.9581
 6068SOL     OW24808   7.781  11.881  10.525  0.3318  0.0098 -0.1591
 6068SOL    HW124809   7.707  11.929  10.487  0.2761  0.0631  0.0144
 6068SOL    HW224810   7.792  11.920  10.612  0.3604 -0.2152 -0.0609
 6069SOL     OW24811   9.932   0.971   2.975 -0.0597  0.1528  0.4281
 6069SOL    HW124812   9.878   1.036   2.930 -0.5063 -0.2991  0.3043
 6069SOL    HW224813   9.869   0.911   3.017  0.3399  0.6732  1.8353
 6070SOL     OW24814   6.708   0.210   9.497 -0.5091  0.4125  0.3753
 6070SOL    HW124815   6.625   0.163   9.490 -0.9177  1.3420 -2.0528
 6070SOL    HW224816   6.683   0.302   9.499  0.4627  0.7035 -0.4760
 6071SOL     OW24817  10.158   6.405   1.956 -0.2557 -0.0679 -0.4258
 6071SOL    HW124818  10.187   6.407   2.047 -0.1411  0.1571 -0.4686
 6071SOL    HW224819  10.236   6.385   1.905 -0.1249  0.7344 -0.5581
 6072SOL     OW24820   0.550  10.340   5.752  0.7577  0.2982 -0.0697
 6072SOL    HW124821   0.599  10.386   5.820 -0.8091  4.9063 -1.6114
 6072SOL    HW224822   0.613  10.327   5.681  0.9355  1.8467 -0.2429
 6073SOL     OW24823   2.319   3.488  10.816 -0.4603 -0.4348 -0.0874
 6073SOL    HW124824   2.324   3.430  10.739  1.1549  0.0577 -0.3910
 6073SOL    HW224825   2.324   3.428  10.891  0.3362 -0.7560 -0.3907
 6074SOL     OW24826   1.633   6.959  10.402  0.2993 -0.6065  0.1857
 6074SOL    HW124827   1.653   6.937  10.493 -1.8407 -2.2112  0.3406
 6074SOL    HW224828   1.538   6.972  10.400  0.3466 -0.1891 -1.7391
 6075SOL     OW24829   3.236   8.477   5.255 -0.6304 -0.7003 -0.0256
 6075SOL    HW124830   3.297   8.542   5.221 -0.3150 -1.9295 -2.0136
 6075SOL    HW224831   3.284   8.433   5.325 -0.5406  0.5988  0.7532
 6076SOL     OW24832   9.957   0.691   1.492 -0.2131 -0.3318 -0.5158
 6076SOL    HW124833  10.005   0.715   1.413 -0.8325 -1.1001 -1.1518
 6076SOL    HW224834   9.963   0.595   1.496 -0.9757 -0.3745 -0.1610
 6077SOL     OW24835   8.633   0.766   2.052 -0.2676  0.3880  0.2524
 6077SOL    HW124836   8.577   0.729   1.984  1.5234  0.5818 -1.4114
 6077SOL    HW224837   8.708   0.707   2.056 -0.3383  0.3640  2.1309
 6078SOL     OW24838   8.095   5.704   8.485  0.3096 -0.0907  0.4800
 6078SOL    HW124839   8.163   5.769   8.503  0.7671 -0.2060 -0.7306
 6078SOL    HW224840   8.055   5.687   8.570  0.9259  0.9487  0.9995
 6079SOL     OW24841  10.779   2.656   3.604  0.2969  0.2727  0.0370
 6079SOL    HW124842  10.752   2.622   3.519  0.4852 -0.5775  0.2959
 6079SOL    HW224843  10.866   2.618   3.618  0.2547  0.3777  0.6132
 6080SOL     OW24844  11.888   2.267   6.146 -0.4190 -0.1573 -0.4403
 6080SOL    HW124845  11.952   2.214   6.193  0.4834 -1.2396 -2.7197
 6080SOL    HW224846  11.823   2.203   6.116 -0.3863  0.3156 -1.5489
 6081SOL     OW24847   8.690   8.205   9.873 -0.2057 -0.0231  0.0171
 6081SOL    HW124848   8.751   8.252   9.931 -0.0578 -2.0056  1.5582
 6081SOL    HW224849   8.746   8.168   9.805  0.5038 -2.2491  1.6962
 6082SOL     OW24850  11.308   1.376   6.798  0.4549  0.3217  0.0856
 6082SOL    HW124851  11.344   1.338   6.718 -1.7877 -0.1702 -0.7807
 6082SOL    HW224852  11.233   1.320   6.820 -1.7287  2.9567 -0.0606
 6083SOL     OW24853   4.986   9.482   0.347  0.0270 -0.5064  0.3834
 6083SOL    HW124854   4.938   9.495   0.429  1.4906  1.4660  0.9994
 6083SOL    HW224855   4.961   9.556   0.292 -0.6189 -1.5894 -0.8434
 6084SOL     OW24856   3.089   3.747   0.765  0.2662  0.2925  0.0321
 6084SOL    HW124857   3.171   3.763   0.718  0.9938  1.3747  1.6178
 6084SOL    HW224858   3.025   3.729   0.695  1.8540 -0.7705 -1.2294
 6085SOL     OW24859   5.367   7.349  10.047 -0.0911  0.7808  0.1120
 6085SOL    HW124860   5.390   7.263  10.082  0.7374  0.9443 -0.0309
 6085SOL    HW224861   5.429   7.409  10.087  0.2740  1.1054 -0.9213
 6086SOL     OW24862  11.067   2.421   9.522  0.0658 -0.1136  0.1131
 6086SOL    HW124863  11.030   2.340   9.557  1.4951 -0.4230  0.9828
 6086SOL    HW224864  11.134   2.393   9.461  0.3275  0.4144  0.1488
 6087SOL     OW24865   8.165  12.076   8.286 -0.0285 -0.3874  0.5077
 6087SOL    HW124866   8.108  12.022   8.231 -0.4679  0.4282  0.1428
 6087SOL    HW224867   8.250  12.033   8.282 -0.1204 -0.4931 -0.6005
 6088SOL     OW24868   2.426   0.342   7.577  0.0403  0.0346 -0.4986
 6088SOL    HW124869   2.520   0.341   7.560  0.2787  1.7594  0.4504
 6088SOL    HW224870   2.407   0.256   7.613  1.5785  0.1806  0.7695
 6089SOL     OW24871   4.025   5.751  11.727 -0.1625  0.2241 -0.8675
 6089SOL    HW124872   4.078   5.671  11.736 -0.7941 -0.4090 -2.3415
 6089SOL    HW224873   4.079   5.809  11.674  0.8807  1.3901  1.3323
 6090SOL     OW24874   9.309   4.317   1.730  0.0366 -0.4644  0.0879
 6090SOL    HW124875   9.378   4.329   1.664 -0.3457  4.5563  0.1756
 6090SOL    HW224876   9.355   4.289   1.809  1.8514  1.3807 -0.2291
 6091SOL     OW24877  12.359   1.193   1.130  0.1889 -0.7971 -0.0164
 6091SOL    HW124878  12.346   1.248   1.207 -0.2849 -2.7464  1.3968
 6091SOL    HW224879  12.271   1.163   1.108  0.2675  0.0990 -1.6323
 6092SOL     OW24880   3.440  11.692   6.793  0.2616 -0.2067  0.5122
 6092SOL    HW124881   3.374  11.707   6.861 -0.4962 -2.9278  0.4945
 6092SOL    HW224882   3.501  11.630   6.833 -0.1817 -1.8491 -1.2303
 6093SOL     OW24883  10.840   3.730   0.491  0.2444  0.1128  0.1236
 6093SOL    HW124884  10.900   3.782   0.437  0.7980  0.1213  0.7312
 6093SOL    HW224885  10.755   3.770   0.478  0.4583  0.4125 -0.3686
 6094SOL     OW24886   3.529   9.091   1.028 -0.0021  0.1377  0.1442
 6094SOL    HW124887   3.439   9.067   1.050 -1.3918  2.4475 -2.3673
 6094SOL    HW224888   3.568   9.011   0.994 -1.3986 -0.6944  0.4119
 6095SOL     OW24889   5.678  11.638   4.326 -0.7527  0.4093  0.4189
 6095SOL    HW124890   5.687  11.687   4.244 -0.5719 -0.3067  0.0051
 6095SOL    HW224891   5.592  11.663   4.360 -0.9405  0.4970 -0.1219
 6096SOL     OW24892  10.082  10.407   8.842  0.3128  0.6844 -0.1285
 6096SOL    HW124893  10.136  10.364   8.908  0.4918  1.8677  0.5281
 6096SOL    HW224894   9.999  10.359   8.844 -1.3266  3.0713  4.0151
 6097SOL     OW24895   9.517   2.814   3.395  0.2943 -0.2526  0.1343
 6097SOL    HW124896   9.520   2.759   3.474 -0.2382 -1.2008 -0.4934
 6097SOL    HW224897   9.555   2.759   3.326  1.3334  0.7932 -0.1572
 6098SOL     OW24898   7.505   5.956  11.944 -0.0174  0.2631 -0.2812
 6098SOL    HW124899   7.511   6.048  11.971 -0.1605  0.9020 -2.2204
 6098SOL    HW224900   7.486   5.960  11.850 -1.0977 -1.7671 -0.2071
 6099SOL     OW24901   8.896   9.167   6.071  0.3654 -0.0303  0.1939
 6099SOL    HW124902   8.983   9.184   6.108  0.3679 -0.6018  0.4590
 6099SOL    HW224903   8.838   9.225   6.121  0.4322 -0.4876  0.8140
 6100SOL     OW24904  11.640   9.443   0.686 -0.5250  0.3251 -0.3613
 6100SOL    HW124905  11.663   9.465   0.776 -0.7816  2.5331 -0.7889
 6100SOL    HW224906  11.575   9.508   0.661  2.3862  2.3874 -3.4149
 6101SOL     OW24907   7.209  12.596   3.280 -0.0527 -0.2749 -0.5633
 6101SOL    HW124908   7.265  12.636   3.214 -0.2602  0.7717 -0.1246
 6101SOL    HW224909   7.120  12.622   3.255 -0.2760 -1.2332 -0.7883
 6102SOL     OW24910   4.132   2.296   4.014 -0.4933  0.1295 -0.5404
 6102SOL    HW124911   4.088   2.377   4.040  0.0800  0.1872  0.3308
 6102SOL    HW224912   4.224   2.322   4.005 -0.4635 -0.2157 -1.2583
 6103SOL     OW24913   2.594   5.993   3.398 -0.3920  0.1442  0.4246
 6103SOL    HW124914   2.518   6.005   3.454 -0.0925  0.6464  0.7386
 6103SOL    HW224915   2.633   5.910   3.426 -0.1134  0.5023  1.1286
 6104SOL     OW24916   9.641   5.525  11.158  0.3030 -0.1321 -0.2715
 6104SOL    HW124917   9.696   5.454  11.190  0.2728 -0.1018 -0.1524
 6104SOL    HW224918   9.703   5.592  11.128  0.3435  0.2634  0.6536
 6105SOL     OW24919   0.450  10.499   0.062 -0.0569  0.0806  0.1386
 6105SOL    HW124920   0.395  10.462   0.131 -1.3537  0.0322 -0.8872
 6105SOL    HW224921   0.466  10.589   0.089 -0.4738  0.0306  0.5551
 6106SOL     OW24922  10.427   2.722   4.483  0.2401 -0.7082  0.0033
 6106SOL    HW124923  10.408   2.811   4.453 -0.4158 -1.1004 -0.7655
 6106SOL    HW224924  10.418   2.726   4.578  1.0635  0.2449  0.0623
 6107SOL     OW24925   4.634   0.792   4.544  0.7047 -0.3868  0.2856
 6107SOL    HW124926   4.614   0.809   4.636  0.9654  1.0136  0.1085
 6107SOL    HW224927   4.701   0.724   4.547  0.2646 -0.8029  1.1021
 6108SOL     OW24928   9.190  11.054   6.567 -0.1095  0.0386  1.0390
 6108SOL    HW124929   9.160  11.119   6.630  0.6554  0.7210  0.7093
 6108SOL    HW224930   9.286  11.057   6.573 -0.0205  0.3139 -0.3567
 6109SOL     OW24931   8.305   4.855   8.864  0.1112 -1.0091  0.2804
 6109SOL    HW124932   8.268   4.849   8.776  0.5499 -1.6503  0.1323
 6109SOL    HW224933   8.332   4.947   8.872 -1.0543 -0.6392  0.2242
 6110SOL     OW24934   9.699  12.428   7.143 -0.4264 -0.2618 -0.0262
 6110SOL    HW124935   9.635  12.477   7.093 -1.6196 -0.6251  1.0814
 6110SOL    HW224936   9.647  12.370   7.199  0.8704 -0.7356  0.7484
 6111SOL     OW24937  10.930   5.019   8.909  0.0010  0.2978  0.3757
 6111SOL    HW124938  10.976   4.984   8.832  0.1713  2.1857 -0.4573
 6111SOL    HW224939  10.856   4.960   8.922 -0.7309  0.5751 -2.0338
 6112SOL     OW24940   0.423  11.768   8.724  0.5795 -0.3450  0.4279
 6112SOL    HW124941   0.377  11.781   8.641 -0.1594  0.1569  0.9026
 6112SOL    HW224942   0.505  11.814   8.712  0.8274 -0.9410 -0.3041
 6113SOL     OW24943   2.860  11.944   3.843  0.1534  0.8979  0.5331
 6113SOL    HW124944   2.946  11.930   3.804 -0.3523 -1.2138  0.0575
 6113SOL    HW224945   2.860  11.890   3.922 -0.8312  0.6226  0.3585
 6114SOL     OW24946   5.795   5.467   3.641 -0.3076  0.5913 -0.1413
 6114SOL    HW124947   5.757   5.529   3.579  0.7988  1.5091  0.0594
 6114SOL    HW224948   5.846   5.521   3.701  0.0950 -0.4464  0.4833
 6115SOL     OW24949   4.874   4.847  10.296  0.0909  0.0775 -0.1747
 6115SOL    HW124950   4.852   4.896  10.374  0.5329 -0.8752  0.5710
 6115SOL    HW224951   4.892   4.758  10.327 -0.2880 -0.4699 -1.4257
 6116SOL     OW24952   5.115   9.040  10.686  0.0228  0.3926  0.1196
 6116SOL    HW124953   5.025   9.039  10.718  0.7037  2.8246  2.6188
 6116SOL    HW224954   5.148   8.952  10.702 -1.5749 -0.2085  0.2272
 6117SOL     OW24955  11.735   7.133   7.455  0.5313  0.0691  0.0153
 6117SOL    HW124956  11.688   7.215   7.474  1.3144  0.8672 -1.3560
 6117SOL    HW224957  11.806   7.132   7.519 -0.7888 -0.7178  1.5401
 6118SOL     OW24958   8.302  10.638   5.886 -0.0664 -0.7993 -0.7824
 6118SOL    HW124959   8.251  10.558   5.878  1.5450 -2.0008  0.2645
 6118SOL    HW224960   8.378  10.613   5.939  0.2099  1.5638  0.0530
 6119SOL     OW24961   3.861   6.658   6.884  0.3423 -0.0906  0.1552
 6119SOL    HW124962   3.919   6.592   6.920  2.3402  0.7820 -1.2350
 6119SOL    HW224963   3.860   6.640   6.790 -0.3717  0.8978 -0.0468
 6120SOL     OW24964   8.160   5.588   9.234 -0.1817 -0.3221 -0.7823
 6120SOL    HW124965   8.161   5.498   9.266 -0.1089 -0.8626 -2.2442
 6120SOL    HW224966   8.244   5.624   9.262 -0.5352 -0.4492  0.4791
 6121SOL     OW24967   0.287  11.269   8.001  0.3114  0.0455 -0.3838
 6121SOL    HW124968   0.349  11.339   8.020  0.8565 -0.5539  0.0856
 6121SOL    HW224969   0.242  11.253   8.084  2.8336 -2.7043  0.6219
 6122SOL     OW24970   0.323   1.538   7.138  0.4999  0.3365  0.4990
 6122SOL    HW124971   0.330   1.632   7.120  0.3713  0.3158  0.3307
 6122SOL    HW224972   0.411   1.504   7.121  0.4781  0.3826  0.2800
 6123SOL     OW24973   6.761   2.340   0.126 -0.1027  0.0225 -0.4019
 6123SOL    HW124974   6.839   2.291   0.153 -1.3004 -1.2222  0.9855
 6123SOL    HW224975   6.794   2.427   0.104  1.8237 -0.7713 -0.9518
 6124SOL     OW24976   6.587   4.364  11.957 -0.4638 -0.1669 -0.6142
 6124SOL    HW124977   6.524   4.430  11.927  1.5247  2.3374  0.3728
 6124SOL    HW224978   6.565   4.350  12.049 -0.1277  0.0370 -0.5031
 6125SOL     OW24979  11.174   6.439   1.841  0.0717 -0.0067 -0.0018
 6125SOL    HW124980  11.176   6.532   1.817 -0.4450  0.0371  0.1106
 6125SOL    HW224981  11.158   6.394   1.758 -0.0514  0.0273  0.0042
 6126SOL     OW24982  12.217   5.350  11.235  0.4689 -0.5226  0.2854
 6126SOL    HW124983  12.300   5.330  11.192  0.6950 -0.4215  0.6757
 6126SOL    HW224984  12.151   5.316  11.175  0.7849 -0.4715 -0.0971
 6127SOL     OW24985   0.102   2.880   6.311  0.4841  0.2046  0.5582
 6127SOL    HW124986   0.111   2.974   6.299  0.4555  0.5767  2.9181
 6127SOL    HW224987   0.043   2.871   6.386 -0.1292 -1.7276 -0.0891
 6128SOL     OW24988  12.152   6.242   5.999 -0.3570  1.0415 -0.1193
 6128SOL    HW124989  12.209   6.185   5.948 -1.8594 -1.5712  0.8557
 6128SOL    HW224990  12.211   6.294   6.053  1.1360  0.8214 -1.4841
 6129SOL     OW24991  12.159   7.087   9.491 -0.1262 -0.4538  0.1547
 6129SOL    HW124992  12.069   7.102   9.521 -0.1434  0.0866 -0.1636
 6129SOL    HW224993  12.210   7.083   9.572 -0.1947  0.8558  0.2923
 6130SOL     OW24994   9.807   1.773   0.431 -0.0844 -0.2742 -0.0162
 6130SOL    HW124995   9.883   1.730   0.470 -0.3865  1.2358  2.4750
 6130SOL    HW224996   9.733   1.747   0.488 -1.1577 -0.4189 -1.4235
 6131SOL     OW24997   2.367  10.208   7.474 -0.3577  0.1663  0.4735
 6131SOL    HW124998   2.328  10.288   7.438  0.4096  0.2712 -0.1412
 6131SOL    HW224999   2.362  10.144   7.402 -0.2398 -0.0979  0.6973
 6132SOL     OW25000   2.366   5.718  10.097  0.0557  1.1537  0.1108
 6132SOL    HW125001   2.347   5.637  10.050  0.6673  0.8374  0.4060
 6132SOL    HW225002   2.360   5.786  10.030 -0.8701  0.9281 -0.0582
 6133SOL     OW25003   0.152   6.681   6.876  0.0296  0.0935  0.5232
 6133SOL    HW125004   0.115   6.768   6.886 -1.0312 -0.4795  1.7852
 6133SOL    HW225005   0.158   6.646   6.965 -0.7381 -1.5882 -0.0403
 6134SOL     OW25006  12.486   1.351   6.941 -0.4183 -0.1115  0.4215
 6134SOL    HW125007  12.409   1.399   6.971 -0.6386  0.1257 -0.4780
 6134SOL    HW225008  12.558   1.413   6.951 -1.0619  1.4694 -3.0968
 6135SOL     OW25009   8.003  11.416   7.329  1.0370  0.3102  0.3213
 6135SOL    HW125010   7.970  11.402   7.240  0.9465 -1.5085  0.6032
 6135SOL    HW225011   7.936  11.470   7.371  0.1900 -0.3254 -0.1841
 6136SOL     OW25012   4.157   8.190  10.757  0.1363 -0.2917 -0.4368
 6136SOL    HW125013   4.127   8.261  10.700  1.1853 -1.3796 -2.4430
 6136SOL    HW225014   4.077   8.152  10.793 -0.5541  0.3485 -1.2800
 6137SOL     OW25015   7.014   2.977  11.263 -0.0980 -0.1350 -0.1680
 6137SOL    HW125016   7.005   3.059  11.311  0.0643 -1.7064  2.7909
 6137SOL    HW225017   7.105   2.977  11.233  0.2943  0.2430  0.9394
 6138SOL     OW25018   5.548  10.438   2.674  0.0369 -0.0824 -0.8968
 6138SOL    HW125019   5.635  10.399   2.667  0.8225  1.1430  1.1465
 6138SOL    HW225020   5.564  10.532   2.678 -1.3136  0.1400  0.1255
 6139SOL     OW25021   6.805   8.487  10.056  0.0207 -0.0871  0.2107
 6139SOL    HW125022   6.887   8.536  10.053  0.1757 -0.3395 -2.5815
 6139SOL    HW225023   6.737   8.554  10.070  0.4993  0.5129 -0.2709
 6140SOL     OW25024   2.895   0.911   6.595 -0.1620 -0.0450 -0.1032
 6140SOL    HW125025   2.856   0.845   6.652 -0.5941 -0.9761 -1.4221
 6140SOL    HW225026   2.975   0.870   6.562 -0.5512 -0.0186 -1.1035
 6141SOL     OW25027   4.211   3.908   4.956 -0.0461  0.1359 -0.1235
 6141SOL    HW125028   4.254   3.968   4.895  0.7124 -0.1796  0.0873
 6141SOL    HW225029   4.154   3.854   4.901  0.3574  0.0973 -0.5084
 6142SOL     OW25030   4.802   8.703   7.427 -0.4816 -0.1455  0.1552
 6142SOL    HW125031   4.804   8.796   7.404  0.6614  0.4315  2.3242
 6142SOL    HW225032   4.713   8.688   7.456 -0.5925  0.3683  0.1017
 6143SOL     OW25033   4.666   0.294   3.695 -0.1563  0.2485  0.3488
 6143SOL    HW125034   4.696   0.321   3.608  0.2678 -0.4523  0.2705
 6143SOL    HW225035   4.597   0.357   3.717  2.1431  2.6562  1.0594
 6144SOL     OW25036   4.682   0.435  11.821  0.1706  0.1831  0.0244
 6144SOL    HW125037   4.666   0.462  11.730  1.3690 -0.4527 -0.3964
 6144SOL    HW225038   4.756   0.490  11.849  1.6111 -1.5077 -0.3244
 6145SOL     OW25039   9.382   9.949   6.254  0.5363 -0.0734  0.3399
 6145SOL    HW125040   9.449   9.914   6.312  1.4297 -0.8173 -1.0825
 6145SOL    HW225041   9.349   9.873   6.206 -0.8775  0.3762  0.5394
 6146SOL     OW25042   8.468  10.357   1.624 -0.9663  0.6491 -0.7269
 6146SOL    HW125043   8.538  10.292   1.616  0.9055  2.2836  1.2740
 6146SOL    HW225044   8.492  10.425   1.561 -0.9891  1.0217 -0.3334
 6147SOL     OW25045   7.121   3.339   3.789  0.2377 -0.6538 -0.0042
 6147SOL    HW125046   7.127   3.334   3.694 -3.5005  0.1773 -0.4132
 6147SOL    HW225047   7.040   3.388   3.806 -0.0024 -2.0075  3.6172
 6148SOL     OW25048   5.765   7.508   5.374  0.2163  0.1618  0.4491
 6148SOL    HW125049   5.846   7.539   5.334  0.0138 -1.3301 -1.2157
 6148SOL    HW225050   5.783   7.510   5.468  1.3424  2.0347  0.2483
 6149SOL     OW25051  11.490   8.121   2.496 -0.1226 -0.5074  0.3276
 6149SOL    HW125052  11.542   8.144   2.573 -0.6520  0.5586  0.3789
 6149SOL    HW225053  11.457   8.204   2.463 -1.8120 -1.1391  0.3208
 6150SOL     OW25054   8.351  11.050   5.852  0.8167  0.4566 -0.4731
 6150SOL    HW125055   8.360  11.029   5.945  0.5091  1.1660 -0.2797
 6150SOL    HW225056   8.384  10.972   5.806 -0.9416 -0.7744  0.2218
 6151SOL     OW25057   9.259  10.973  11.189 -0.0320  0.3116  0.5760
 6151SOL    HW125058   9.255  10.902  11.126  0.5914  1.9274 -1.4006
 6151SOL    HW225059   9.187  10.956  11.249 -0.7875 -1.1885 -0.6910
 6152SOL     OW25060  11.605   6.414  12.496 -0.1663 -0.2993  0.1637
 6152SOL    HW125061  11.586   6.449  12.583 -2.0883 -1.4316  0.2577
 6152SOL    HW225062  11.580   6.484  12.436 -1.0779 -0.3645  0.4537
 6153SOL     OW25063  12.669   0.055  11.275  1.0168 -0.0367  0.2454
 6153SOL    HW125064  12.687   0.149  11.283  2.8721 -0.2742 -0.5737
 6153SOL    HW225065  12.574   0.048  11.286  0.7254  2.0215 -0.4290
 6154SOL     OW25066  11.643   5.603   9.401 -0.1075  0.6857 -0.5623
 6154SOL    HW125067  11.660   5.692   9.432 -0.5813  0.6010 -0.0493
 6154SOL    HW225068  11.549   5.602   9.382 -0.4398 -0.1743  1.0012
 6155SOL     OW25069   4.982   1.649   3.697 -0.2517 -0.4037 -0.8107
 6155SOL    HW125070   4.944   1.682   3.778  0.3902 -2.2450  0.2947
 6155SOL    HW225071   5.052   1.712   3.676 -0.6756  0.2998 -0.1635
 6156SOL     OW25072  12.255  12.099   2.602  0.7608  0.3980 -0.0456
 6156SOL    HW125073  12.255  12.025   2.542 -0.2498 -0.9772  1.5486
 6156SOL    HW225074  12.326  12.080   2.664  0.4478  0.7006  0.4150
 6157SOL     OW25075  12.110   4.824  12.160  0.4706 -0.0078  1.0379
 6157SOL    HW125076  12.079   4.779  12.082 -1.2180  0.2868  1.4923
 6157SOL    HW225077  12.198   4.791  12.174  1.0177  0.3162 -1.2693
 6158SOL     OW25078   4.372  12.320   1.685 -0.0015 -0.2155  0.2437
 6158SOL    HW125079   4.332  12.235   1.668 -0.6141  0.5715 -2.9859
 6158SOL    HW225080   4.381  12.360   1.598  2.4589  2.0615  1.3911
 6159SOL     OW25081  10.845   4.006  10.135 -0.7253  0.2340  0.0813
 6159SOL    HW125082  10.841   3.923  10.086 -0.9197 -1.4565  2.7286
 6159SOL    HW225083  10.934   4.038  10.122 -0.1861 -1.1699  0.1696
 6160SOL     OW25084   6.575  10.338   5.675  0.1055 -0.1781 -0.0094
 6160SOL    HW125085   6.533  10.284   5.741  0.0844 -1.9716 -1.4137
 6160SOL    HW225086   6.668  10.333   5.696  0.2170 -1.6942 -0.7297
 6161SOL     OW25087   2.006  11.998   9.538 -0.6408  0.0592  0.0977
 6161SOL    HW125088   2.095  12.015   9.507 -0.2896 -2.7571 -0.7629
 6161SOL    HW225089   1.954  12.072   9.507  1.3696  1.7988  0.6748
 6162SOL     OW25090   5.690   3.222   1.774  0.3630 -0.4410 -0.2931
 6162SOL    HW125091   5.707   3.315   1.756 -0.3108  0.9411  4.6818
 6162SOL    HW225092   5.772   3.189   1.811  0.2955 -1.5930 -1.1281
 6163SOL     OW25093   9.268  12.586   3.305 -0.3539  0.1360 -0.2550
 6163SOL    HW125094   9.338  12.644   3.336  0.0256  0.3064 -1.3659
 6163SOL    HW225095   9.219  12.639   3.242 -0.9762 -0.2539 -0.1100
 6164SOL     OW25096  11.921   7.320  10.269  0.0400 -0.0901  0.0610
 6164SOL    HW125097  11.988   7.263  10.306  0.3540 -0.3092 -0.8257
 6164SOL    HW225098  11.838   7.281  10.296  0.2573 -0.1223  0.7016
 6165SOL     OW25099   5.000  12.601   3.031  0.3759  0.0546 -0.7105
 6165SOL    HW125100   5.056  12.546   2.976  1.5188  1.2655 -0.8113
 6165SOL    HW225101   4.912  12.588   2.995  0.4610 -2.2785 -0.2183
 6166SOL     OW25102   7.787   8.785   2.610  0.4369  0.0421 -0.0769
 6166SOL    HW125103   7.751   8.822   2.530  0.7908 -0.2184 -0.3597
 6166SOL    HW225104   7.779   8.856   2.675  0.2699  0.2959 -0.3741
 6167SOL     OW25105   6.114   0.679   9.650  0.0403  0.3270 -0.2985
 6167SOL    HW125106   6.185   0.673   9.586  1.4479  0.8744  1.1630
 6167SOL    HW225107   6.120   0.768   9.685 -1.1098  0.2446  0.1673
 6168SOL     OW25108  11.004   1.945   7.387 -0.3512  0.7763 -0.1714
 6168SOL    HW125109  11.023   1.885   7.315  1.3387 -0.1207  0.9482
 6168SOL    HW225110  11.076   1.932   7.449 -1.1725  2.2974  1.1934
 6169SOL     OW25111   2.835   2.160   7.361 -0.1078  0.3457  0.0188
 6169SOL    HW125112   2.763   2.186   7.419 -1.3551 -0.6669 -1.0159
 6169SOL    HW225113   2.855   2.070   7.386  0.5267  0.4748  0.0058
 6170SOL     OW25114   9.265   4.245   8.617  0.5769 -0.0308  0.0860
 6170SOL    HW125115   9.241   4.152   8.623 -1.2348  0.2580 -1.5566
 6170SOL    HW225116   9.227   4.285   8.695 -1.0524 -0.2594 -0.5483
 6171SOL     OW25117   3.799   9.414   3.596 -0.0015 -0.0375  0.0733
 6171SOL    HW125118   3.781   9.504   3.567 -0.7280 -0.3609 -0.5058
 6171SOL    HW225119   3.852   9.376   3.527 -2.1999 -0.9865 -1.2018
 6172SOL     OW25120   9.294  11.518   2.396 -0.0247  0.1462  0.8818
 6172SOL    HW125121   9.387  11.523   2.419 -0.1114 -1.7310  1.8172
 6172SOL    HW225122   9.294  11.501   2.302  0.5258  1.2356  0.6649
 6173SOL     OW25123   6.747   0.649   4.728  0.0966 -0.1932  0.1912
 6173SOL    HW125124   6.754   0.718   4.662  0.1900 -1.1483 -0.8285
 6173SOL    HW225125   6.654   0.625   4.728 -0.2474  0.9994  1.6934
 6174SOL     OW25126   6.467   7.591   2.688  0.3192 -0.4847  0.1128
 6174SOL    HW125127   6.555   7.607   2.721  0.2080 -1.8698  1.1669
 6174SOL    HW225128   6.469   7.500   2.657  0.0270  0.3049 -2.4841
 6175SOL     OW25129  10.062   2.987   1.473 -0.8141  0.0948 -0.2643
 6175SOL    HW125130  10.045   3.032   1.390 -0.5078 -0.8728 -0.8713
 6175SOL    HW225131  10.148   3.018   1.500 -1.8661  2.1772  0.9083
 6176SOL     OW25132   6.454   7.178   3.237 -0.1764  0.8235 -0.3090
 6176SOL    HW125133   6.501   7.229   3.303  0.5456 -2.0119  1.5968
 6176SOL    HW225134   6.367   7.164   3.274 -0.8728  1.8076 -1.4876
 6177SOL     OW25135   3.552   7.981   0.901  0.4587 -0.2114  0.8257
 6177SOL    HW125136   3.527   8.018   0.816  0.5942 -2.6469 -0.3492
 6177SOL    HW225137   3.613   7.910   0.880  0.7488 -0.6775  2.9861
 6178SOL     OW25138   8.494   6.163  11.094 -0.6824 -0.5261 -0.3587
 6178SOL    HW125139   8.573   6.195  11.050 -0.0359 -0.7290  0.6301
 6178SOL    HW225140   8.523   6.086  11.142 -1.7403 -1.2876 -0.8969
 6179SOL     OW25141   9.312  12.038   5.221 -0.3493  0.2197  0.0239
 6179SOL    HW125142   9.309  11.965   5.158 -1.4678  1.3447 -1.3116
 6179SOL    HW225143   9.246  12.016   5.286  1.1826 -1.2155  1.1700
 6180SOL     OW25144   2.778  10.309   5.750  0.2557 -0.3506 -0.3630
 6180SOL    HW125145   2.724  10.342   5.678 -1.4677 -1.5038  0.3148
 6180SOL    HW225146   2.866  10.339   5.731 -0.8540  3.0974 -0.6838
 6181SOL     OW25147   2.840   3.967   4.899  0.2638 -0.1667  0.0240
 6181SOL    HW125148   2.822   3.946   4.807 -3.4726 -1.1176  0.8415
 6181SOL    HW225149   2.773   4.031   4.923  1.1232  0.0235  2.1330
 6182SOL     OW25150   8.223   8.897   5.199 -0.0161 -0.2883  0.0717
 6182SOL    HW125151   8.127   8.890   5.199 -0.0536 -0.0256  1.3876
 6182SOL    HW225152   8.247   8.898   5.292  1.2164  0.3531 -0.2332
 6183SOL     OW25153   0.845  10.341   2.617 -0.1231 -0.4670 -0.0913
 6183SOL    HW125154   0.785  10.409   2.589  0.6229  0.3081  0.1394
 6183SOL    HW225155   0.887  10.311   2.536 -1.8320 -2.0581 -0.4599
 6184SOL     OW25156  11.666   4.386  12.306 -0.4540  0.0433  0.2982
 6184SOL    HW125157  11.590   4.436  12.276  0.0205  1.3248  1.1291
 6184SOL    HW225158  11.728   4.453  12.334  0.1881 -1.0257  1.5199
 6185SOL     OW25159  11.113   9.272   8.170 -0.2738  0.5978 -0.0091
 6185SOL    HW125160  11.061   9.243   8.095 -1.0754 -1.6829  1.3240
 6185SOL    HW225161  11.168   9.197   8.191 -0.4804  0.9610  2.0151
 6186SOL     OW25162   0.428   2.192   9.139 -0.6389  0.0161 -0.3297
 6186SOL    HW125163   0.417   2.255   9.211  0.0360 -0.5963  0.3321
 6186SOL    HW225164   0.364   2.123   9.158  0.2879 -0.6907  0.3149
 6187SOL     OW25165   5.167  11.467   1.383 -0.4263 -0.3548  0.5749
 6187SOL    HW125166   5.210  11.382   1.382  0.4957  0.0891  1.3226
 6187SOL    HW225167   5.232  11.527   1.420 -1.0612  0.6777  0.0722
 6188SOL     OW25168   2.687  10.082   3.714 -0.1061  0.1582  0.0557
 6188SOL    HW125169   2.637  10.017   3.763 -1.9040  0.0499 -1.8424
 6188SOL    HW225170   2.749  10.031   3.663 -2.1229 -0.2529 -2.1344
 6189SOL     OW25171   8.121   7.228  11.807 -0.1272 -0.1448 -0.3134
 6189SOL    HW125172   8.207   7.270  11.800 -0.5768  1.3355  1.9915
 6189SOL    HW225173   8.066   7.274  11.743  0.5856 -0.5945 -1.2671
 6190SOL     OW25174   9.957   8.086   7.853 -0.0643  0.3325 -0.7104
 6190SOL    HW125175  10.035   8.089   7.908  1.0868  0.6959 -2.2613
 6190SOL    HW225176   9.884   8.081   7.914  1.1907 -0.5834  0.7881
 6191SOL     OW25177   1.407   3.036  11.012  0.4806 -0.5748 -0.4086
 6191SOL    HW125178   1.448   2.954  11.039  0.6789 -1.0627 -2.0901
 6191SOL    HW225179   1.329   3.043  11.067 -0.4136 -2.7204 -1.2818
 6192SOL     OW25180   0.467   7.162   0.098 -0.1990  0.0695  0.1631
 6192SOL    HW125181   0.459   7.256   0.083 -1.1760  0.2516  1.6342
 6192SOL    HW225182   0.495   7.154   0.189 -1.1285 -1.0619  0.3835
 6193SOL     OW25183   4.586   8.299  10.216 -0.5140 -0.1427  0.1822
 6193SOL    HW125184   4.597   8.204  10.223 -3.9425 -0.6728  0.0887
 6193SOL    HW225185   4.592   8.330  10.307 -5.0141 -1.4182  1.1836
 6194SOL     OW25186  12.590   1.696   7.282  0.1556  0.3983  0.1472
 6194SOL    HW125187  12.654   1.626   7.294 -1.1809 -1.4296 -2.4885
 6194SOL    HW225188  12.593   1.745   7.365  2.9358 -1.2086  1.1537
 6195SOL     OW25189   4.121   4.453   1.173  0.5514 -0.6506  0.4941
 6195SOL    HW125190   4.191   4.477   1.234  1.3889 -1.7899  0.0192
 6195SOL    HW225191   4.167   4.415   1.098 -0.6197 -3.9056  1.2536
 6196SOL     OW25192   0.726   2.399  10.370 -0.0612 -0.3489 -0.0338
 6196SOL    HW125193   0.729   2.323  10.313 -0.4064  0.1234 -0.6989
 6196SOL    HW225194   0.763   2.369  10.453  1.6134 -0.7258 -0.8801
 6197SOL     OW25195   6.409  10.599   8.177  0.0993  0.3927  0.6199
 6197SOL    HW125196   6.373  10.515   8.149 -0.4198  0.9341 -0.3907
 6197SOL    HW225197   6.374  10.613   8.265  0.7835 -0.7834  1.1025
 6198SOL     OW25198   0.037   5.499   8.374  0.1926  0.3539 -0.0632
 6198SOL    HW125199  -0.049   5.530   8.344 -0.4246 -1.6066 -0.4640
 6198SOL    HW225200   0.098   5.566   8.343 -1.1715  1.8379  0.2851
 6199SOL     OW25201  11.871   7.553   9.560  0.0386 -0.0424  0.5379
 6199SOL    HW125202  11.781   7.536   9.533  0.1294 -0.9423  0.7563
 6199SOL    HW225203  11.870   7.642   9.596 -0.3673  0.6730 -1.1475
 6200SOL     OW25204   9.975   6.484  11.146 -0.9646  0.9790 -0.2241
 6200SOL    HW125205   9.930   6.569  11.149 -0.9491  0.9767  0.0819
 6200SOL    HW225206   9.956   6.451  11.058 -3.0583  0.1857  0.4527
 6201SOL     OW25207   9.972   5.593  10.311 -0.2898  0.4670 -0.4151
 6201SOL    HW125208   9.999   5.523  10.371 -0.8366  1.5737  1.2061
 6201SOL    HW225209   9.878   5.578  10.298 -0.1725  0.2295 -1.0270
 6202SOL     OW25210   6.049   1.306  10.325  0.2522  0.1378  0.5113
 6202SOL    HW125211   6.007   1.254  10.393 -1.1793 -1.6966 -1.6258
 6202SOL    HW225212   6.112   1.247  10.285 -0.1501  0.5884 -0.8527
 6203SOL     OW25213   1.766   8.174   3.812 -0.2136  0.3328 -0.6361
 6203SOL    HW125214   1.806   8.164   3.726  2.3896 -1.2169  0.6171
 6203SOL    HW225215   1.819   8.240   3.856  1.3011 -1.8804  1.1258
 6204SOL     OW25216   1.914   0.007  11.288  0.3992  0.4028 -0.2018
 6204SOL    HW125217   1.862   0.070  11.338 -0.4696 -0.6070  0.2091
 6204SOL    HW225218   1.857  -0.070  11.281  0.4626  0.5244 -2.7996
 6205SOL     OW25219   3.058   2.708   5.320  0.6487 -0.2925  0.1713
 6205SOL    HW125220   3.140   2.673   5.285  0.1454 -0.9619 -0.3760
 6205SOL    HW225221   3.082   2.745   5.405  1.4802 -0.6687  0.1110
 6206SOL     OW25222   5.805   3.718   4.640  0.0094  0.5214  0.1402
 6206SOL    HW125223   5.791   3.765   4.722 -1.4270 -0.8077  0.6899
 6206SOL    HW225224   5.848   3.637   4.665  2.9820  1.6594 -0.8657
 6207SOL     OW25225   4.858   1.177  12.747  0.1532  0.2562  0.3258
 6207SOL    HW125226   4.790   1.145  12.688  0.0894  1.2632 -0.1812
 6207SOL    HW225227   4.920   1.105  12.755 -2.2575 -1.7224  2.9316
 6208SOL     OW25228  10.702   9.491   5.068  0.4104 -0.5635 -0.2731
 6208SOL    HW125229  10.718   9.455   5.156  1.0055 -0.2644 -0.2509
 6208SOL    HW225230  10.644   9.565   5.082  0.9609 -0.1670 -0.0626
 6209SOL     OW25231  11.301  10.001   2.401 -0.0019  0.0182  0.1115
 6209SOL    HW125232  11.331   9.913   2.379 -1.1013 -0.6449  1.1258
 6209SOL    HW225233  11.381  10.051   2.417  0.6448 -0.6875 -0.8316
 6210SOL     OW25234   0.650   4.472   0.463  0.2096 -0.6862 -0.0919
 6210SOL    HW125235   0.726   4.438   0.416  0.7224  0.8916 -0.4634
 6210SOL    HW225236   0.580   4.410   0.443  0.8869 -1.0555 -1.4433
 6211SOL     OW25237   4.766   0.087   4.034 -0.0471  0.1490 -0.5021
 6211SOL    HW125238   4.807   0.005   4.007  0.6853  0.4466 -0.3194
 6211SOL    HW225239   4.703   0.106   3.965  1.4126  0.6294 -1.7759
 6212SOL     OW25240   1.067   1.535   4.774 -0.1599  0.1923 -0.2207
 6212SOL    HW125241   1.010   1.508   4.703 -1.5029  1.4720  0.3159
 6212SOL    HW225242   1.150   1.556   4.731 -0.7486  0.3328 -1.3294
 6213SOL     OW25243  11.882   9.039   5.167 -0.6212 -0.2029 -0.0446
 6213SOL    HW125244  11.957   9.080   5.125 -0.4630  0.0326  0.4652
 6213SOL    HW225245  11.867   8.959   5.117  0.3090 -0.5232  0.1775
 6214SOL     OW25246   7.453   5.504   2.652 -0.4914 -0.4546 -0.5755
 6214SOL    HW125247   7.491   5.428   2.696  1.8830  0.7029 -0.4418
 6214SOL    HW225248   7.426   5.471   2.567 -1.0088 -1.7738  0.0714
 6215SOL     OW25249   9.826   7.625   2.493 -0.1004 -0.4221 -0.2794
 6215SOL    HW125250   9.904   7.577   2.521  0.2846  1.2454  1.7826
 6215SOL    HW225251   9.774   7.561   2.445  2.3247 -1.6929 -1.3958
 6216SOL     OW25252   6.326   1.145  11.561 -0.3333 -0.5214 -0.0984
 6216SOL    HW125253   6.363   1.098  11.486  0.3754 -0.6020  0.2913
 6216SOL    HW225254   6.242   1.102  11.578 -0.8807  0.0152 -1.3372
 6217SOL     OW25255   6.567  12.284   5.405 -0.0982 -0.0510  0.9252
 6217SOL    HW125256   6.592  12.375   5.422 -0.3090  0.2198 -0.1130
 6217SOL    HW225257   6.560  12.279   5.309 -0.1290 -1.1524  0.9724
 6218SOL     OW25258   1.936  12.584  10.466 -0.2037 -0.4533 -0.3119
 6218SOL    HW125259   1.910  12.498  10.496 -0.1509 -0.1995  0.4910
 6218SOL    HW225260   1.965  12.630  10.545  0.3810  0.0810 -0.8156
 6219SOL     OW25261   1.906   0.575   5.504 -0.0563  0.0622  0.1298
 6219SOL    HW125262   1.938   0.520   5.433  0.8531 -0.6938  1.0920
 6219SOL    HW225263   1.874   0.513   5.570 -0.0969  0.7231  0.7414
 6220SOL     OW25264   9.806   8.516   2.311 -0.3737  0.0113  0.3427
 6220SOL    HW125265   9.838   8.592   2.262  0.8991 -1.1168 -0.6469
 6220SOL    HW225266   9.868   8.507   2.384  0.3455 -0.9111 -0.3628
 6221SOL     OW25267   3.881   8.695   9.057 -0.1908  0.3097 -0.0916
 6221SOL    HW125268   3.877   8.685   8.962  1.0142 -2.8090  0.0751
 6221SOL    HW225269   3.920   8.781   9.071  1.0006  0.2345 -2.4656
 6222SOL     OW25270   8.498   4.769   5.674  0.3268  0.1534 -0.2739
 6222SOL    HW125271   8.500   4.760   5.579  1.6754  0.8243 -0.3317
 6222SOL    HW225272   8.585   4.741   5.703 -0.2150 -0.4839  0.8146
 6223SOL     OW25273   1.168   6.603   3.358  0.3008 -0.3843  0.2724
 6223SOL    HW125274   1.194   6.536   3.422 -0.9057 -1.3494 -0.1968
 6223SOL    HW225275   1.099   6.652   3.402 -0.5642 -1.0817 -0.2904
 6224SOL     OW25276   2.181   8.710  12.156  0.8301 -0.0793 -0.1638
 6224SOL    HW125277   2.110   8.722  12.220  0.8522  1.6674 -0.4232
 6224SOL    HW225278   2.145   8.650  12.091 -1.0912  2.0687 -1.2085
 6225SOL     OW25279  11.954  11.408   0.256  0.3959  0.2481  0.0485
 6225SOL    HW125280  11.990  11.466   0.189  0.3464 -0.9716 -1.0765
 6225SOL    HW225281  11.898  11.347   0.207 -0.3183 -0.1359  1.3150
 6226SOL     OW25282   5.449  11.455   3.658  0.7833 -0.1140  0.1643
 6226SOL    HW125283   5.378  11.500   3.705  0.4085 -0.1468 -0.3684
 6226SOL    HW225284   5.469  11.379   3.713 -1.0424 -1.2855 -0.7041
 6227SOL     OW25285  12.484   2.062   9.286  0.0170 -0.1760  0.6336
 6227SOL    HW125286  12.513   2.140   9.237  0.9052 -0.0508  1.3407
 6227SOL    HW225287  12.414   2.025   9.232 -1.8876  2.2482  1.2280
 6228SOL     OW25288   8.333  11.391   4.712 -0.4659  0.1947 -0.2030
 6228SOL    HW125289   8.257  11.448   4.718 -0.5188  0.1090 -0.0405
 6228SOL    HW225290   8.304  11.318   4.656 -2.0311 -2.1600  3.2511
 6229SOL     OW25291   3.570   5.573   2.788 -0.2949  0.5379  0.1252
 6229SOL    HW125292   3.544   5.610   2.873  0.3099 -1.1829  1.1144
 6229SOL    HW225293   3.492   5.529   2.756 -0.1588  0.0739  0.4264
 6230SOL     OW25294  12.700   5.422   3.955  0.6598  0.2063 -0.0445
 6230SOL    HW125295  12.616   5.388   3.987  1.3351 -4.1296 -2.1180
 6230SOL    HW225296  12.753   5.432   4.034 -0.4785 -1.2840  0.9818
 6231SOL     OW25297   9.733   9.804   6.793 -0.4072 -0.1042  0.6251
 6231SOL    HW125298   9.642   9.811   6.762 -0.4593 -0.4269  0.7046
 6231SOL    HW225299   9.769   9.730   6.744 -0.8488 -1.4027  2.2230
 6232SOL     OW25300   0.446   7.197   9.237 -0.2419  0.0573 -0.0470
 6232SOL    HW125301   0.439   7.205   9.333 -1.3682 -0.7533 -0.0404
 6232SOL    HW225302   0.399   7.272   9.203  0.0818  0.2972  0.0271
 6233SOL     OW25303   1.011   8.641  11.540 -0.0147 -0.1010  0.3589
 6233SOL    HW125304   1.075   8.594  11.594 -1.1137 -1.9658  0.0989
 6233SOL    HW225305   1.064   8.689  11.476  1.1574 -0.7062  0.8468
 6234SOL     OW25306   7.893   8.743  10.500 -0.0935 -0.2044 -0.3119
 6234SOL    HW125307   7.978   8.786  10.506 -0.2952  0.4374 -1.6718
 6234SOL    HW225308   7.839   8.788  10.564  0.4057 -0.1789  0.0979
 6235SOL     OW25309   9.907   6.606   8.582  0.3665 -0.3762  0.1894
 6235SOL    HW125310   9.930   6.666   8.510 -2.3085 -0.0068 -0.4792
 6235SOL    HW225311   9.851   6.659   8.639 -2.4913 -2.2396 -0.6694
 6236SOL     OW25312   1.908   3.390   8.272  0.2883 -0.3416 -0.4631
 6236SOL    HW125313   1.830   3.424   8.316 -0.0876 -1.2915 -0.3862
 6236SOL    HW225314   1.884   3.384   8.180 -0.0533 -1.4998 -0.3120
 6237SOL     OW25315   2.075   7.625   3.654  0.3320  0.1590  0.2861
 6237SOL    HW125316   2.039   7.544   3.619 -0.8245  0.9747 -0.5014
 6237SOL    HW225317   2.029   7.694   3.606  1.8088  1.2791  0.4061
 6238SOL     OW25318   7.896   9.260  10.293 -0.5228  0.2575 -0.3026
 6238SOL    HW125319   7.867   9.308  10.371 -0.0183  0.3353 -0.1575
 6238SOL    HW225320   7.910   9.170  10.323 -1.1290  0.0962 -0.4950
 6239SOL     OW25321  11.486   2.545   1.373  0.1010 -0.0795 -0.2592
 6239SOL    HW125322  11.459   2.503   1.291 -0.1213 -1.5596  0.5383
 6239SOL    HW225323  11.542   2.617   1.346  0.8340 -1.1356 -1.6861
 6240SOL     OW25324   6.544   5.172   2.130 -0.1980  0.3863  0.6868
 6240SOL    HW125325   6.625   5.143   2.171 -1.0980 -1.2190  1.4360
 6240SOL    HW225326   6.566   5.255   2.088  1.5191  0.5766  1.8799
 6241SOL     OW25327   8.919   1.434   6.127  0.0533  0.5447 -0.1328
 6241SOL    HW125328   8.846   1.439   6.189  0.3466  0.3977  0.2260
 6241SOL    HW225329   8.992   1.478   6.172 -0.4485  2.8827 -1.4221
 6242SOL     OW25330   1.031   1.170   8.120  0.2284 -0.6391 -0.2535
 6242SOL    HW125331   0.977   1.189   8.043  0.9320  0.6368 -0.4769
 6242SOL    HW225332   1.096   1.240   8.120 -0.1123 -0.2622  1.8405
 6243SOL     OW25333  11.837   0.289   3.653 -0.7520  0.2028  0.0802
 6243SOL    HW125334  11.897   0.233   3.703 -1.7420  1.0301  2.3454
 6243SOL    HW225335  11.869   0.378   3.669 -0.8873  0.4756 -1.1138
 6244SOL     OW25336   3.977   7.364  10.258 -0.1681 -0.2704 -0.3652
 6244SOL    HW125337   3.982   7.318  10.342 -0.8967 -2.2368 -1.3279
 6244SOL    HW225338   3.894   7.412  10.263  0.2910  0.4509  0.4249
 6245SOL     OW25339   9.512   4.714   8.801  0.6363  0.2638 -0.5548
 6245SOL    HW125340   9.593   4.683   8.842 -0.5359 -2.4723 -0.0687
 6245SOL    HW225341   9.512   4.674   8.714  0.3250  1.1937 -0.9959
 6246SOL     OW25342   5.256   2.243   7.480  0.2398  0.0489  0.2789
 6246SOL    HW125343   5.242   2.165   7.426  1.8693 -1.2951  1.6679
 6246SOL    HW225344   5.210   2.224   7.562 -1.6363  1.7693 -0.3068
 6247SOL     OW25345   4.642   1.515   9.909 -0.6267 -0.8925 -0.2691
 6247SOL    HW125346   4.728   1.556   9.904 -1.9502  2.3265  0.6908
 6247SOL    HW225347   4.660   1.421   9.912  2.9772 -0.3250  2.3178
 6248SOL     OW25348   7.458  11.370   9.160  0.2432  0.2081 -0.2298
 6248SOL    HW125349   7.452  11.298   9.222 -0.1548  0.0193 -0.4824
 6248SOL    HW225350   7.377  11.419   9.172 -0.5966 -0.7278 -1.6866
 6249SOL     OW25351   0.669   3.638   9.746 -0.2614  0.5416 -0.2817
 6249SOL    HW125352   0.623   3.555   9.754  0.7836  0.0175  0.5584
 6249SOL    HW225353   0.604   3.704   9.766 -0.7946 -0.1474  0.3240
 6250SOL     OW25354   4.846   2.361   5.514  0.5342 -0.1575  1.0200
 6250SOL    HW125355   4.788   2.297   5.474  0.5994 -0.2647  1.0983
 6250SOL    HW225356   4.878   2.413   5.440  0.1965  0.0187  0.9947
 6251SOL     OW25357   7.079   3.586   0.585 -0.5172  0.2833 -0.6421
 6251SOL    HW125358   7.130   3.593   0.504 -0.2954 -0.8088 -0.6157
 6251SOL    HW225359   6.992   3.619   0.561  0.0009  1.5182 -0.8687
 6252SOL     OW25360   0.760  10.673   8.615  0.6323 -0.0024 -0.0383
 6252SOL    HW125361   0.737  10.581   8.626  1.4218 -0.0338  1.8143
 6252SOL    HW225362   0.856  10.674   8.615  0.7430  0.5131 -3.5397
 6253SOL     OW25363   6.622   4.234  11.163 -0.9142  0.3897 -0.1891
 6253SOL    HW125364   6.712   4.235  11.196 -1.5044 -1.5660  1.7068
 6253SOL    HW225365   6.631   4.243  11.069  1.1878  1.3114  0.0327
 6254SOL     OW25366   2.443  10.302   4.018  0.9293  0.5626 -0.3915
 6254SOL    HW125367   2.378  10.312   3.948  1.3035  2.0536 -0.5677
 6254SOL    HW225368   2.493  10.384   4.015  0.2152  1.1928  2.3957
 6255SOL     OW25369   5.672  11.289   7.690  0.3048 -0.0424 -0.6635
 6255SOL    HW125370   5.602  11.275   7.627 -0.5923  2.2800 -0.2747
 6255SOL    HW225371   5.648  11.234   7.765  0.1125 -0.9633 -1.3821
 6256SOL     OW25372   3.174  11.833   4.854  0.0094  0.4564  0.1539
 6256SOL    HW125373   3.209  11.896   4.791  1.7916  1.3480  1.9474
 6256SOL    HW225374   3.079  11.844   4.847  0.2213  2.1326 -0.7864
 6257SOL     OW25375   2.599  11.981   0.098  0.5470  0.0025 -0.3946
 6257SOL    HW125376   2.610  11.898   0.145  1.4443 -0.4466 -1.3491
 6257SOL    HW225377   2.540  11.960   0.025  1.7481 -0.1316 -1.3662
 6258SOL     OW25378   8.928   7.940   6.287  0.0431  0.1050 -0.1606
 6258SOL    HW125379   8.926   7.845   6.279  3.1453 -0.1617  0.8169
 6258SOL    HW225380   8.851   7.961   6.340 -0.7808 -1.8031 -0.4936
 6259SOL     OW25381   0.075  11.132   1.150 -0.5727  0.2052 -0.7882
 6259SOL    HW125382   0.020  11.168   1.219 -0.3401  0.8116 -0.9172
 6259SOL    HW225383   0.123  11.207   1.115  1.2032 -0.4562  0.0854
 6260SOL     OW25384  12.172   2.042   6.185 -0.1763 -0.3645  0.0803
 6260SOL    HW125385  12.104   1.992   6.230 -0.7091  0.1753 -0.1227
 6260SOL    HW225386  12.249   2.032   6.240 -0.4190 -0.9645  0.3246
 6261SOL     OW25387  11.290   0.003   1.831 -0.1318 -0.1423  0.1091
 6261SOL    HW125388  11.316  -0.047   1.754  1.3936 -0.7310  0.9589
 6261SOL    HW225389  11.197   0.021   1.818  0.6381  2.4806 -3.3815
 6262SOL     OW25390  11.684   0.730   0.176  0.2564  0.0238 -0.4319
 6262SOL    HW125391  11.640   0.647   0.154  1.5654 -0.6932 -0.4079
 6262SOL    HW225392  11.700   0.771   0.091 -1.7289  1.0060 -0.3933
 6263SOL     OW25393   2.434   4.165   6.285 -0.8151 -0.3551 -0.3818
 6263SOL    HW125394   2.372   4.185   6.215  0.7245 -1.2758 -2.1142
 6263SOL    HW225395   2.486   4.092   6.251 -0.0196 -0.8924  1.7746
 6264SOL     OW25396   3.129   0.538   6.367  0.2484  0.0380  0.3530
 6264SOL    HW125397   3.153   0.630   6.357 -1.4984  0.6044  1.0222
 6264SOL    HW225398   3.083   0.534   6.451  1.0800 -1.6303  0.7707
 6265SOL     OW25399   4.238   5.586  11.156 -0.1856  0.2120 -0.3571
 6265SOL    HW125400   4.217   5.507  11.206  1.2663 -0.3434 -0.5690
 6265SOL    HW225401   4.328   5.606  11.180  0.1200  0.6745 -1.7643
 6266SOL     OW25402  11.387  10.737   2.189 -0.0798  0.2441  0.2807
 6266SOL    HW125403  11.366  10.771   2.277  0.1150  0.8578  0.0926
 6266SOL    HW225404  11.462  10.789   2.161 -0.1941  0.1023 -0.2867
 6267SOL     OW25405   1.544   2.328  11.004 -0.5081 -0.1784 -0.4545
 6267SOL    HW125406   1.555   2.334  11.099  1.3097 -1.3282 -0.5388
 6267SOL    HW225407   1.632   2.311  10.970 -0.9353  1.1817 -2.4586
 6268SOL     OW25408   9.747   3.131   8.421 -0.3548 -0.0341  0.4181
 6268SOL    HW125409   9.701   3.205   8.380  0.2695 -0.1557 -0.5207
 6268SOL    HW225410   9.795   3.171   8.494 -0.0336  0.4897 -0.0758
 6269SOL     OW25411   1.184   1.297  11.350 -0.0238  0.2048 -0.5073
 6269SOL    HW125412   1.124   1.237  11.307 -1.0507  1.3237 -0.7152
 6269SOL    HW225413   1.166   1.382  11.309  1.5051  0.6320 -0.3596
 6270SOL     OW25414   2.735   1.251  10.125 -0.3445  0.1160 -0.2103
 6270SOL    HW125415   2.825   1.223  10.111  0.0742  1.5880 -0.6204
 6270SOL    HW225416   2.713   1.219  10.212  1.2360  1.3528  0.6881
 6271SOL     OW25417   8.207  10.459   2.449  0.2155  0.2412  0.4056
 6271SOL    HW125418   8.182  10.372   2.479  0.9253  0.2186  0.9559
 6271SOL    HW225419   8.211  10.451   2.353  0.5754 -0.4202  0.4672
 6272SOL     OW25420   0.172   2.058   1.065 -0.0359 -0.1449  0.2945
 6272SOL    HW125421   0.124   1.978   1.083 -0.7045  0.1410 -0.2126
 6272SOL    HW225422   0.128   2.125   1.117 -0.2287  0.1326 -0.2233
 6273SOL     OW25423   4.345   4.009  11.320 -0.1924  0.3121 -0.2162
 6273SOL    HW125424   4.338   3.928  11.271 -0.4573  0.9116 -1.1980
 6273SOL    HW225425   4.437   4.036  11.310 -0.0087 -0.0507  0.4284
 6274SOL     OW25426   6.292   2.502   0.717 -0.0132 -0.5637  0.2886
 6274SOL    HW125427   6.230   2.552   0.770 -0.9873 -1.0875 -0.3202
 6274SOL    HW225428   6.309   2.558   0.641  1.8156  0.4323  1.3518
 6275SOL     OW25429   1.789   9.197   2.209 -0.2033 -0.2870 -0.0922
 6275SOL    HW125430   1.713   9.207   2.151 -1.3403 -1.3055  1.1663
 6275SOL    HW225431   1.818   9.286   2.226 -1.2499  0.1325 -0.4199
 6276SOL     OW25432   3.153   6.853   9.731  0.8110  0.2896  0.9285
 6276SOL    HW125433   3.236   6.805   9.736  0.7890  0.1327  0.0404
 6276SOL    HW225434   3.128   6.846   9.639 -1.4863 -1.8951  1.6042
 6277SOL     OW25435   1.714  12.219   8.532  0.2605  0.3309 -0.3907
 6277SOL    HW125436   1.654  12.242   8.461  0.0192  1.4528  0.1691
 6277SOL    HW225437   1.671  12.250   8.612  0.8388 -0.3132  0.1879
 6278SOL     OW25438   0.850  12.566   9.841 -0.7873  0.2656  0.3374
 6278SOL    HW125439   0.929  12.598   9.797 -0.0304 -1.1645  0.5871
 6278SOL    HW225440   0.787  12.637   9.832  0.5072  1.4241  0.0711
 6279SOL     OW25441   8.427  12.782  10.298 -0.8485  0.0930  0.0208
 6279SOL    HW125442   8.465  12.853  10.245  0.6710 -0.6842  0.0262
 6279SOL    HW225443   8.464  12.795  10.385  3.1189 -3.1579 -0.8872
 6280SOL     OW25444   4.805   8.687  12.693  0.1493 -0.0474  0.4741
 6280SOL    HW125445   4.811   8.783  12.691 -2.1525  0.1424 -0.1774
 6280SOL    HW225446   4.848   8.663  12.775  1.5316  1.4471  0.2471
 6281SOL     OW25447   5.136   9.779   7.650  0.2892  0.0167 -0.7848
 6281SOL    HW125448   5.156   9.755   7.560  1.1655  0.4418 -0.7151
 6281SOL    HW225449   5.051   9.739   7.667 -1.0215  1.8503 -2.5477
 6282SOL     OW25450   2.604   8.743   8.189 -0.2539 -0.3734 -0.4029
 6282SOL    HW125451   2.653   8.737   8.107  0.3969  0.6138 -0.1034
 6282SOL    HW225452   2.671   8.740   8.257 -0.4884  1.7896 -0.0036
 6283SOL     OW25453   2.159   1.012   1.180  0.4746  0.6979 -0.1810
 6283SOL    HW125454   2.208   0.950   1.127  0.7460  2.8525 -2.6583
 6283SOL    HW225455   2.221   1.082   1.199 -0.6572  1.7674 -0.2826
 6284SOL     OW25456   2.931  11.304   4.060  0.1760 -0.0998  0.5068
 6284SOL    HW125457   2.995  11.280   3.993 -0.2025 -1.0814  0.4884
 6284SOL    HW225458   2.856  11.248   4.043  0.3511 -0.9148  2.2226
 6285SOL     OW25459  12.047   7.807   2.227  0.2605  0.3142  0.0833
 6285SOL    HW125460  11.992   7.885   2.224  0.5747  0.5088 -1.0194
 6285SOL    HW225461  12.113   7.827   2.294 -0.6235  0.3226  0.9673
 6286SOL     OW25462   0.814   2.252   7.211 -0.2923 -0.3788  0.0032
 6286SOL    HW125463   0.754   2.318   7.245 -0.3812 -1.2424  1.6117
 6286SOL    HW225464   0.896   2.268   7.258  0.4656  0.1514 -1.4386
 6287SOL     OW25465   2.283   7.719   8.784  0.4305  0.1505  0.2155
 6287SOL    HW125466   2.206   7.744   8.734 -0.5710  0.2010  1.7203
 6287SOL    HW225467   2.352   7.710   8.718 -0.8094  0.2213 -1.1540
 6288SOL     OW25468   4.842   9.417   3.460  0.2783 -0.2461 -0.2828
 6288SOL    HW125469   4.805   9.467   3.532 -1.9991 -0.7762 -1.0000
 6288SOL    HW225470   4.908   9.475   3.421  0.4904  0.6072  1.2893
 6289SOL     OW25471   3.129   4.379  10.151 -0.0693  0.4810  0.5410
 6289SOL    HW125472   3.129   4.454  10.210  1.5781  0.8597  0.1015
 6289SOL    HW225473   3.211   4.334  10.169  0.6930  0.8409 -1.7202
 6290SOL     OW25474   3.414  11.308   5.198 -0.8666  0.3365  0.5254
 6290SOL    HW125475   3.383  11.224   5.163 -0.1270  0.1604  0.2701
 6290SOL    HW225476   3.418  11.293   5.293 -1.5263  0.3605  0.5657
 6291SOL     OW25477   2.883   6.776   5.688 -0.3542  0.7341  0.1653
 6291SOL    HW125478   2.829   6.781   5.610 -1.6652  1.9768  1.1081
 6291SOL    HW225479   2.895   6.683   5.704 -0.0262  0.4613 -1.5065
 6292SOL     OW25480   4.988  10.980   3.652  0.1334  0.2781 -0.4868
 6292SOL    HW125481   4.957  11.044   3.588 -0.1598  1.9312  1.2180
 6292SOL    HW225482   5.073  11.014   3.681  0.6745 -0.9146 -0.6238
 6293SOL     OW25483   9.475  11.428  12.149  0.2761 -0.4356 -0.4737
 6293SOL    HW125484   9.511  11.402  12.234 -0.9632 -0.7069 -0.0071
 6293SOL    HW225485   9.522  11.373  12.086  2.1870  0.7142 -0.1463
 6294SOL     OW25486   2.866   8.834   6.124 -0.4292 -0.1941 -0.4572
 6294SOL    HW125487   2.917   8.892   6.181 -1.3034 -0.0680  0.2297
 6294SOL    HW225488   2.888   8.862   6.035  0.8558 -0.3031 -0.1910
 6295SOL     OW25489   7.269   5.544   5.136 -0.4569 -0.4014  0.3360
 6295SOL    HW125490   7.282   5.524   5.229 -0.2455 -0.9573  0.1859
 6295SOL    HW225491   7.200   5.611   5.136 -2.2009 -2.1326  0.7519
 6296SOL     OW25492  10.794   9.637  10.850  0.8728 -0.0785  0.4170
 6296SOL    HW125493  10.823   9.668  10.936  0.6632 -1.3156  0.9458
 6296SOL    HW225494  10.733   9.567  10.869 -0.5499  0.7966 -0.7336
 6297SOL     OW25495  10.084  10.818   3.268 -0.4846 -0.6712 -0.0103
 6297SOL    HW125496   9.998  10.849   3.240 -0.8693 -1.1769  0.5886
 6297SOL    HW225497  10.104  10.745   3.208 -1.3730 -1.8474  1.0741
 6298SOL     OW25498   6.750   2.896  11.843 -0.1037  0.2629  0.0472
 6298SOL    HW125499   6.803   2.840  11.786 -0.5120 -0.7487  0.6492
 6298SOL    HW225500   6.815   2.947  11.892  0.4206 -1.6974  1.5305
 6299SOL     OW25501  10.656   8.487   9.338 -0.6475  0.0479  0.4209
 6299SOL    HW125502  10.602   8.410   9.358  0.1736 -0.3250  1.2621
 6299SOL    HW225503  10.611   8.560   9.379 -1.3512 -0.0002 -0.2466
 6300SOL     OW25504   6.235   3.346   3.104  0.7516  0.6542  0.0704
 6300SOL    HW125505   6.285   3.267   3.083 -0.2694 -0.6414  2.1481
 6300SOL    HW225506   6.247   3.358   3.199 -3.3824 -0.2363  0.9005
 6301SOL     OW25507   8.516  10.373  11.776 -0.5431  0.2844  0.5714
 6301SOL    HW125508   8.445  10.313  11.796 -0.0440 -0.0778  1.2951
 6301SOL    HW225509   8.575  10.367  11.851 -0.2686  1.3602  0.4585
 6302SOL     OW25510   8.065   0.283   7.415 -0.5263  0.5473 -0.6004
 6302SOL    HW125511   8.114   0.241   7.486 -0.9242 -1.1837 -1.3004
 6302SOL    HW225512   8.131   0.306   7.350 -0.0018  3.1642  0.7237
 6303SOL     OW25513   3.481   6.146   2.542 -0.6348 -0.2756  0.2688
 6303SOL    HW125514   3.563   6.159   2.494 -1.6688  0.1670 -1.4650
 6303SOL    HW225515   3.505   6.091   2.616  1.4092  0.6653  0.3659
 6304SOL     OW25516   8.427   1.085   8.832 -0.1485  0.3985  0.1190
 6304SOL    HW125517   8.408   1.025   8.904 -1.6122  1.4447  0.6366
 6304SOL    HW225518   8.395   1.170   8.862 -0.5044  0.9197 -1.6497
 6305SOL     OW25519  10.385   3.474  10.230  0.1995  0.2182  0.1930
 6305SOL    HW125520  10.461   3.443  10.279 -0.5821 -0.8405  0.7694
 6305SOL    HW225521  10.381   3.568  10.248  0.6851  0.0680  1.1072
 6306SOL     OW25522   9.897   2.488   8.628  0.3891  0.1041  0.1825
 6306SOL    HW125523   9.939   2.402   8.635  0.0342 -0.0856 -0.0046
 6306SOL    HW225524   9.961   2.548   8.665  0.0024 -0.4313  1.8287
 6307SOL     OW25525   8.249   8.131   4.050 -0.4529  0.0807  0.5156
 6307SOL    HW125526   8.270   8.181   4.129 -2.9286  1.4900  0.3985
 6307SOL    HW225527   8.236   8.041   4.082  1.1774  0.0689  1.2299
 6308SOL     OW25528   5.353   9.842   2.698 -0.4191  0.0817  0.3611
 6308SOL    HW125529   5.296   9.890   2.758 -0.5365 -0.2246  0.4979
 6308SOL    HW225530   5.301   9.833   2.618  0.2880  1.7964 -0.3316
 6309SOL     OW25531   6.806   1.474   6.091 -0.0490  0.1517  0.6557
 6309SOL    HW125532   6.888   1.455   6.045 -0.3917  1.8111 -0.7576
 6309SOL    HW225533   6.775   1.556   6.052 -1.6309  0.3561  2.2049
 6310SOL     OW25534   5.641   5.624   4.390  0.2438  0.0817  0.4549
 6310SOL    HW125535   5.708   5.630   4.458  0.9446 -1.2087 -0.0886
 6310SOL    HW225536   5.656   5.539   4.349 -0.2053  0.7905 -1.2563
 6311SOL     OW25537  11.849   4.498  11.578 -0.0673 -0.0469  0.0059
 6311SOL    HW125538  11.830   4.456  11.661 -2.1721  1.3711  0.3203
 6311SOL    HW225539  11.775   4.475  11.522  0.5284  0.3187 -0.9577
 6312SOL     OW25540  11.171  10.588   7.618  0.3960  0.2159 -0.2359
 6312SOL    HW125541  11.168  10.497   7.646 -2.6269  0.5162  0.8263
 6312SOL    HW225542  11.097  10.597   7.558  1.2738  1.7441 -1.1726
 6313SOL     OW25543   2.269   7.296   2.419 -0.6439 -0.1273  0.5601
 6313SOL    HW125544   2.313   7.362   2.472  0.3979  1.0341 -1.6327
 6313SOL    HW225545   2.176   7.310   2.437 -0.3251 -0.0582  2.3460
 6314SOL     OW25546   4.783  12.647   8.576 -0.0464  0.2113  0.0475
 6314SOL    HW125547   4.809  12.565   8.620  0.4489  0.6887  0.6617
 6314SOL    HW225548   4.794  12.714   8.643 -2.1388  0.5641  0.1008
 6315SOL     OW25549   6.939  11.776  10.078 -0.1993 -0.0564  0.3031
 6315SOL    HW125550   6.953  11.768   9.983 -0.0597  1.1702  0.2051
 6315SOL    HW225551   7.010  11.726  10.117  2.2588  2.7175 -0.2414
 6316SOL     OW25552  12.592   3.448   1.113  0.0994 -0.2546  0.1693
 6316SOL    HW125553  12.607   3.541   1.131 -0.2254 -0.0637 -0.5118
 6316SOL    HW225554  12.592   3.442   1.018 -1.0679 -0.7408  0.1807
 6317SOL     OW25555   5.263  10.269   2.160  0.4999  0.2244  0.0692
 6317SOL    HW125556   5.350  10.247   2.127  1.1202 -0.0250  1.7700
 6317SOL    HW225557   5.213  10.187   2.152  0.8294 -0.0032  0.3187
 6318SOL     OW25558  12.151  10.196   3.373  0.3485  0.0013 -0.0678
 6318SOL    HW125559  12.098  10.166   3.300 -0.1706  0.1497  0.2337
 6318SOL    HW225560  12.172  10.287   3.351 -0.8801  0.4588  0.5314
 6319SOL     OW25561   4.971  11.779   6.085 -0.2590  0.0641  0.1716
 6319SOL    HW125562   4.951  11.872   6.074  1.1279  0.3257 -0.3597
 6319SOL    HW225563   4.991  11.748   5.997  0.0012 -0.5661  0.4439
 6320SOL     OW25564   7.834   5.791   3.868  0.7027  0.2744 -0.4466
 6320SOL    HW125565   7.802   5.782   3.778  0.2617  0.7105 -0.3304
 6320SOL    HW225566   7.818   5.705   3.907 -2.3997  1.0808  0.2797
 6321SOL     OW25567   1.496   2.065   7.034 -0.5323 -0.1304 -0.0025
 6321SOL    HW125568   1.552   2.000   7.076 -1.9636 -1.1663  0.3817
 6321SOL    HW225569   1.498   2.043   6.941  2.2985  1.9021 -0.5468
 6322SOL     OW25570   9.600  11.475   0.093 -0.3857 -0.0358 -0.1969
 6322SOL    HW125571   9.553  11.403   0.050 -1.5672  0.8300 -0.3892
 6322SOL    HW225572   9.533  11.539   0.114  0.8293  1.6745 -1.3122
 6323SOL     OW25573  10.400   9.699   5.902  0.8115  0.0332 -0.4731
 6323SOL    HW125574  10.338   9.664   5.967  0.0614  0.5610 -0.8931
 6323SOL    HW225575  10.485   9.662   5.928  0.4853  0.0417  0.6672
 6324SOL     OW25576   3.643  11.284   3.857 -0.0910 -0.1808  0.3530
 6324SOL    HW125577   3.572  11.238   3.901 -0.2668 -0.2582 -0.0042
 6324SOL    HW225578   3.644  11.246   3.769  1.2228 -1.0944  0.7323
 6325SOL     OW25579   9.213  11.084   9.810 -0.1554  0.4201 -0.4605
 6325SOL    HW125580   9.129  11.095   9.766  0.1232  1.5646 -0.7351
 6325SOL    HW225581   9.271  11.147   9.768  0.3367  0.9823  0.9909
 6326SOL     OW25582   6.498   7.870   1.230  0.2291 -0.0002 -0.7683
 6326SOL    HW125583   6.450   7.787   1.232  1.0811 -0.5082 -0.7170
 6326SOL    HW225584   6.446   7.927   1.173 -1.4135  0.1011  0.7515
 6327SOL     OW25585   9.832   4.194   1.043  0.1341 -0.1152 -0.1062
 6327SOL    HW125586   9.902   4.246   1.003  0.2012  0.4944  0.7853
 6327SOL    HW225587   9.752   4.238   1.015  0.1803  0.2968  0.3909
 6328SOL     OW25588   6.899  10.546   5.541  0.7850 -0.2164  0.5612
 6328SOL    HW125589   6.887  10.453   5.558  1.2148 -0.1885  1.0663
 6328SOL    HW225590   6.855  10.590   5.614 -0.3192  0.0154 -0.2134
 6329SOL     OW25591   3.521   2.791   2.405 -0.1496 -0.3486  0.0572
 6329SOL    HW125592   3.480   2.735   2.339  0.2644  0.1737 -0.6509
 6329SOL    HW225593   3.543   2.731   2.477 -0.6268 -0.9164 -0.2606
 6330SOL     OW25594   6.378  12.003   0.831  0.5775 -0.1202 -0.2669
 6330SOL    HW125595   6.388  11.987   0.737 -2.1468 -0.2657 -0.6276
 6330SOL    HW225596   6.379  12.098   0.839  1.5497 -0.1203 -0.3242
 6331SOL     OW25597   3.280   5.235   6.548 -0.3536 -0.3978  0.1011
 6331SOL    HW125598   3.260   5.219   6.456  0.6098  2.8357 -0.7857
 6331SOL    HW225599   3.204   5.283   6.581 -0.5532 -1.2576  0.9572
 6332SOL     OW25600   1.029   6.238   8.099  0.1905 -0.0045 -0.2695
 6332SOL    HW125601   0.974   6.201   8.168 -3.2645  2.6319 -1.3642
 6332SOL    HW225602   0.968   6.264   8.030  2.9234  2.2347 -2.0939
 6333SOL     OW25603   1.547   0.010  10.505 -0.3590  0.3062  0.3364
 6333SOL    HW125604   1.535  -0.083  10.482 -0.4082 -0.2127  2.2948
 6333SOL    HW225605   1.473   0.030  10.561 -0.9607  1.8968 -0.9585
 6334SOL     OW25606  10.404   1.514   9.427  0.4792  0.2145 -0.0051
 6334SOL    HW125607  10.430   1.598   9.464  0.3896 -0.4082  1.5594
 6334SOL    HW225608  10.460   1.450   9.472 -0.9596 -0.7576  0.4884
 6335SOL     OW25609   8.713   5.006   6.327  0.1475  0.0578 -0.1717
 6335SOL    HW125610   8.628   5.044   6.303 -0.5619 -0.4485  1.3795
 6335SOL    HW225611   8.761   5.000   6.245 -1.7083 -0.5872 -1.2697
 6336SOL     OW25612   3.849   1.047  12.516  0.0620  0.1372  0.2431
 6336SOL    HW125613   3.785   1.115  12.539 -0.0784  0.2419 -0.4355
 6336SOL    HW225614   3.809   0.965  12.545 -0.3866  0.2034 -0.1652
 6337SOL     OW25615   1.750   5.842   5.389  0.1896 -0.0516  0.7929
 6337SOL    HW125616   1.837   5.860   5.425  0.4504 -1.0890  0.7351
 6337SOL    HW225617   1.700   5.922   5.404  1.8111  1.4593 -1.2819
 6338SOL     OW25618   4.043   8.810   0.143 -0.3460 -0.3962 -0.2479
 6338SOL    HW125619   4.007   8.752   0.211 -0.2361  0.9773  1.0397
 6338SOL    HW225620   3.982   8.883   0.139 -0.5439 -0.6274 -1.9283
 6339SOL     OW25621   2.994   6.050   6.008  0.8964 -1.0286 -0.0323
 6339SOL    HW125622   3.032   5.965   5.986 -0.2776 -2.1779  2.0356
 6339SOL    HW225623   3.017   6.063   6.100  0.0153  0.3067  0.0313
 6340SOL     OW25624   7.274   3.890   3.332  0.0044 -0.0014 -0.1698
 6340SOL    HW125625   7.236   3.873   3.418  0.4928  1.7771  0.4490
 6340SOL    HW225626   7.210   3.945   3.288  1.0494  1.6098  0.2389
 6341SOL     OW25627   8.192   3.693   3.685 -0.3139  0.2518  0.4329
 6341SOL    HW125628   8.124   3.753   3.716  0.3686  0.5930  1.3275
 6341SOL    HW225629   8.195   3.708   3.591  0.0250  1.8420  0.6618
 6342SOL     OW25630  12.193   5.844   4.444 -0.0217 -0.1339  0.1216
 6342SOL    HW125631  12.271   5.899   4.436 -0.2216  0.0814 -0.3742
 6342SOL    HW225632  12.181   5.833   4.539  0.8479 -0.5111  0.2009
 6343SOL     OW25633  12.747   6.877   7.766 -0.2241  0.0831  0.2845
 6343SOL    HW125634  12.788   6.804   7.813  0.4975  0.1995 -0.1465
 6343SOL    HW225635  12.782   6.871   7.677  1.2739  1.9861  0.6616
 6344SOL     OW25636   5.415   1.254  12.507  0.3878  0.0034  0.3952
 6344SOL    HW125637   5.391   1.345  12.524  0.9457  0.2330 -0.0379
 6344SOL    HW225638   5.374   1.205  12.578 -0.2324  0.5442  0.4234
 6345SOL     OW25639   9.567   2.823   2.042 -0.2366  0.8196  0.1835
 6345SOL    HW125640   9.543   2.844   1.951  0.9762  1.0854 -0.0999
 6345SOL    HW225641   9.502   2.869   2.095 -0.1095  1.8613 -0.5259
 6346SOL     OW25642   7.685   8.024   6.559  0.2762 -0.4164 -0.2307
 6346SOL    HW125643   7.763   8.000   6.609  0.6184 -0.3376 -0.7237
 6346SOL    HW225644   7.675   8.118   6.573 -0.2546 -0.5790  0.5596
 6347SOL     OW25645  11.822   7.949   4.058 -0.3501  0.3362  0.4398
 6347SOL    HW125646  11.792   7.880   3.999 -1.3516  0.2418  1.0221
 6347SOL    HW225647  11.913   7.965   4.033 -1.2000  1.4364 -2.1700
 6348SOL     OW25648   7.736   9.870   4.542 -0.3368 -0.0877  0.0857
 6348SOL    HW125649   7.778   9.937   4.594 -0.6693 -0.9024  1.4623
 6348SOL    HW225650   7.679   9.824   4.604 -0.3536 -1.4243 -0.8779
 6349SOL     OW25651   1.100  10.100   0.020 -0.1553  0.0974 -0.1217
 6349SOL    HW125652   1.075  10.192   0.023 -1.3533 -0.0920 -2.0144
 6349SOL    HW225653   1.024  10.053   0.055  0.6722 -0.1626  1.3675
 6350SOL     OW25654   0.888  11.758   2.973 -0.0714 -0.1782  0.1143
 6350SOL    HW125655   0.872  11.678   2.922  0.4598 -0.5125  0.4642
 6350SOL    HW225656   0.947  11.810   2.918  1.2014 -0.9184  0.7314
 6351SOL     OW25657   5.409  10.863   0.906 -0.2891 -0.4787 -0.0153
 6351SOL    HW125658   5.441  10.779   0.940  0.8012 -0.2401 -0.4220
 6351SOL    HW225659   5.470  10.886   0.837  0.8068  1.7492  1.5734
 6352SOL     OW25660   5.946   2.088   2.211 -0.0148 -0.5640 -0.3569
 6352SOL    HW125661   5.977   2.008   2.169 -1.5871 -0.5660 -1.6198
 6352SOL    HW225662   5.894   2.057   2.285 -1.7043 -0.8321 -1.5894
 6353SOL     OW25663   4.221   1.043   7.474  0.3075 -0.2220  0.2381
 6353SOL    HW125664   4.272   0.998   7.542 -0.6068  0.1374  1.1794
 6353SOL    HW225665   4.173   0.973   7.430  1.0104 -0.4722 -0.1659
 6354SOL     OW25666   8.438   9.849  10.372  0.3216 -0.2370  0.1535
 6354SOL    HW125667   8.501   9.877  10.305  0.3460 -0.1169  0.2259
 6354SOL    HW225668   8.451   9.912  10.444 -1.4724  1.2286 -0.7189
 6355SOL     OW25669   9.594   3.682  11.984 -0.3007  0.0365 -0.0483
 6355SOL    HW125670   9.585   3.702  12.077  0.8425 -0.8790  0.2740
 6355SOL    HW225671   9.509   3.643  11.960 -0.1159 -1.0554  0.9727
 6356SOL     OW25672  11.553  12.322   4.263  0.3607 -0.0517 -0.1343
 6356SOL    HW125673  11.579  12.312   4.172  0.0987 -0.0882 -0.2051
 6356SOL    HW225674  11.467  12.364   4.259 -0.1065 -0.9649  0.0595
 6357SOL     OW25675   8.695  10.825   3.444  0.1789 -0.0763  0.0616
 6357SOL    HW125676   8.777  10.800   3.485  1.6807  1.4723 -1.7945
 6357SOL    HW225677   8.641  10.860   3.515  1.5281 -0.1601  1.1480
 6358SOL     OW25678   0.392  10.702   4.267 -0.0584 -0.5305  0.1006
 6358SOL    HW125679   0.432  10.675   4.184  1.8029 -1.3612  1.1949
 6358SOL    HW225680   0.424  10.791   4.280 -0.8457 -0.1723 -0.3356
 6359SOL     OW25681   5.023   7.955   7.064 -0.3330  0.2130 -0.0587
 6359SOL    HW125682   5.057   7.994   7.145 -0.8045  1.2015 -0.3190
 6359SOL    HW225683   5.098   7.911   7.025 -0.4030 -1.6141  1.6432
 6360SOL     OW25684   1.728   3.663   5.569 -0.4413 -0.0143 -0.7203
 6360SOL    HW125685   1.699   3.590   5.514 -0.6390  0.0035 -0.6423
 6360SOL    HW225686   1.697   3.741   5.524 -1.3064 -0.0362 -0.1789
 6361SOL     OW25687   8.210   0.418  11.422 -0.4007  0.1121  0.7341
 6361SOL    HW125688   8.273   0.469  11.474  0.4146 -1.0002  0.8781
 6361SOL    HW225689   8.155   0.375  11.487  0.4653 -1.0879  0.7066
 6362SOL     OW25690   1.369   2.017   1.661  0.2572  0.4329 -0.4818
 6362SOL    HW125691   1.378   2.032   1.567  1.6636  1.6867 -0.1947
 6362SOL    HW225692   1.283   2.054   1.683  0.6292  1.6628 -1.0186
 6363SOL     OW25693   2.639   8.108   8.673 -0.6910  0.1203 -0.5994
 6363SOL    HW125694   2.606   8.053   8.744  0.0327  1.7517  1.0656
 6363SOL    HW225695   2.582   8.185   8.674 -0.3588  0.3927 -1.4962
 6364SOL     OW25696  10.499   8.220   8.333 -0.1066 -0.2445  0.1149
 6364SOL    HW125697  10.405   8.212   8.316 -0.8638 -1.0045  3.8639
 6364SOL    HW225698  10.506   8.289   8.399  2.4548  2.1866 -2.3818
 6365SOL     OW25699   6.710   1.506   8.637  0.2031 -0.0216  0.3376
 6365SOL    HW125700   6.748   1.418   8.636  0.5040  0.1134 -0.3188
 6365SOL    HW225701   6.690   1.526   8.546  2.3430  1.5263  0.1279
 6366SOL     OW25702  12.415   8.360   6.251  0.6711  0.1349 -0.1633
 6366SOL    HW125703  12.489   8.399   6.204  0.8584 -0.9977 -0.8591
 6366SOL    HW225704  12.357   8.327   6.182 -0.0740  0.2609  0.3843
 6367SOL     OW25705   4.501   7.535  11.944 -0.7423 -0.1368  0.1695
 6367SOL    HW125706   4.474   7.578  11.863 -2.1895  0.7124  1.0844
 6367SOL    HW225707   4.433   7.556  12.007 -0.4779 -2.1220  1.2041
 6368SOL     OW25708   3.851   7.651   0.884 -0.3114  0.0749  0.0564
 6368SOL    HW125709   3.758   7.661   0.861 -0.0454 -0.3518 -1.2326
 6368SOL    HW225710   3.851   7.585   0.954 -0.9729  0.0182  0.0094
 6369SOL     OW25711   9.166   5.743  12.188  0.0754  0.0485  0.8902
 6369SOL    HW125712   9.204   5.739  12.275  0.0406 -2.6550  0.8824
 6369SOL    HW225713   9.106   5.669  12.185 -1.2897  1.1404 -0.8496
 6370SOL     OW25714   7.129  10.989  12.355 -0.6122 -0.3339  0.4014
 6370SOL    HW125715   7.210  11.017  12.398 -2.3300 -0.5780  4.1809
 6370SOL    HW225716   7.085  11.070  12.330 -0.0478 -0.1407  0.0229
 6371SOL     OW25717   4.562   4.694  11.529  0.4764  0.8060  0.0331
 6371SOL    HW125718   4.543   4.605  11.500 -0.6986  1.6097 -1.8720
 6371SOL    HW225719   4.570   4.744  11.447 -0.8131  2.8073  1.0472
 6372SOL     OW25720  12.474   7.970   8.939  0.1430 -0.1072 -0.3732
 6372SOL    HW125721  12.519   7.888   8.959 -0.8239 -0.3042  1.1896
 6372SOL    HW225722  12.480   7.978   8.843  2.2211 -0.8139 -0.3485
 6373SOL     OW25723   5.754   3.164   2.394 -0.0336  0.1149 -0.7030
 6373SOL    HW125724   5.709   3.080   2.405 -0.7369  0.6101  0.3554
 6373SOL    HW225725   5.842   3.140   2.365  0.2864 -1.0874  1.0834
 6374SOL     OW25726   5.825   2.055   9.496 -0.4740 -0.1388 -0.2590
 6374SOL    HW125727   5.813   2.116   9.569 -0.1101 -1.5316  1.0031
 6374SOL    HW225728   5.809   1.969   9.533 -1.4546 -0.8233 -2.1174
 6375SOL     OW25729   0.887   9.108   0.441  0.0740 -0.2446 -0.0761
 6375SOL    HW125730   0.869   9.047   0.370  2.1925  0.6001 -1.4510
 6375SOL    HW225731   0.982   9.124   0.436 -0.4351  3.6207 -0.2641
 6376SOL     OW25732   6.659   7.347   4.875 -0.3197 -0.1850  0.6628
 6376SOL    HW125733   6.607   7.426   4.890 -1.6422 -1.2168  1.8837
 6376SOL    HW225734   6.700   7.360   4.790 -0.9099  1.5914  0.6167
 6377SOL     OW25735   9.435   3.519  11.610 -0.2904 -0.2169  0.5375
 6377SOL    HW125736   9.341   3.507  11.601 -0.1401 -0.1753 -1.5280
 6377SOL    HW225737   9.458   3.582  11.541  1.6660 -2.5512 -1.1080
 6378SOL     OW25738   1.596  12.440   1.451 -0.1391  0.1608 -0.3289
 6378SOL    HW125739   1.646  12.416   1.529  1.4272  1.7453 -0.7824
 6378SOL    HW225740   1.517  12.482   1.485 -0.3298 -0.7420  0.3898
 6379SOL     OW25741  11.985   0.921   3.506  0.0887  0.4965  0.2220
 6379SOL    HW125742  12.080   0.919   3.491  0.0480 -1.0013  0.0033
 6379SOL    HW225743  11.954   0.993   3.451  0.9557  0.2829 -0.5734
 6380SOL     OW25744   6.740   3.855   9.838 -0.0305 -0.2793 -0.1455
 6380SOL    HW125745   6.645   3.840   9.834 -0.3104  0.9255  1.0053
 6380SOL    HW225746   6.760   3.905   9.759 -0.3847 -0.4195 -0.3258
 6381SOL     OW25747   0.893   6.869   6.086  0.4171 -0.0742  0.5446
 6381SOL    HW125748   0.913   6.837   6.174  1.7320  1.4507  0.8468
 6381SOL    HW225749   0.809   6.914   6.096  1.0960  1.1052  1.3451
 6382SOL     OW25750  10.844   3.139   4.497 -0.3280  0.0160 -0.1277
 6382SOL    HW125751  10.786   3.210   4.526  1.1947  1.5959 -0.7918
 6382SOL    HW225752  10.798   3.098   4.424 -0.9667  0.6844 -0.1058
 6383SOL     OW25753   8.899   4.721   4.160 -0.0929  0.6481  0.3769
 6383SOL    HW125754   8.845   4.797   4.140 -0.7136  0.0640 -0.1742
 6383SOL    HW225755   8.873   4.655   4.096 -0.3037 -0.3888  1.5055
 6384SOL     OW25756   0.941   5.104   8.529 -0.1412 -0.3081  0.1009
 6384SOL    HW125757   0.921   5.017   8.564 -0.2264  0.2914  1.6474
 6384SOL    HW225758   0.869   5.159   8.560  0.0391  0.3700 -0.6544
 6385SOL     OW25759   1.648   1.340   3.790  0.2714 -0.4182  0.0934
 6385SOL    HW125760   1.557   1.331   3.764  0.0321  0.5225  0.5678
 6385SOL    HW225761   1.659   1.277   3.862  0.0186 -0.5827 -0.0137
 6386SOL     OW25762   3.170   6.596   2.134 -0.7469  0.0048  0.2910
 6386SOL    HW125763   3.097   6.627   2.187 -0.1317 -0.2984  1.3547
 6386SOL    HW225764   3.170   6.501   2.147 -0.1776  0.0015  0.2915
 6387SOL     OW25765   2.540   7.736   7.489  0.1765  0.0551  0.5029
 6387SOL    HW125766   2.584   7.814   7.523  1.3389  0.3311 -1.4718
 6387SOL    HW225767   2.565   7.666   7.550  0.8642  0.8192  1.1217
 6388SOL     OW25768   8.706  11.158  11.091  0.0767  0.1843 -0.1221
 6388SOL    HW125769   8.646  11.142  11.019 -0.9218 -1.5368  1.0219
 6388SOL    HW225770   8.728  11.251  11.084 -2.1096  0.6963 -1.0527
 6389SOL     OW25771   4.291   7.092  10.113 -0.0950  0.5692 -0.0438
 6389SOL    HW125772   4.309   7.008  10.070  1.0235  2.0124 -2.6767
 6389SOL    HW225773   4.196   7.098  10.115 -0.1966 -0.8139  0.3691
 6390SOL     OW25774   3.195  11.619   5.510 -0.1986 -0.5375  0.0036
 6390SOL    HW125775   3.187  11.547   5.573  0.4071 -0.9977 -0.4304
 6390SOL    HW225776   3.246  11.686   5.556  1.7005 -1.5438 -0.5201
 6391SOL     OW25777   2.532   2.866   6.256 -0.7737 -0.1628  0.1079
 6391SOL    HW125778   2.537   2.802   6.184 -0.7805  0.5373 -0.5239
 6391SOL    HW225779   2.440   2.865   6.282 -1.0689  0.6125 -0.8552
 6392SOL     OW25780   3.040   3.745   5.588  0.1566 -0.1317 -0.1921
 6392SOL    HW125781   2.966   3.776   5.535 -1.4008 -1.0517  1.3597
 6392SOL    HW225782   3.088   3.687   5.529  0.0353  0.9792 -1.4307
 6393SOL     OW25783  12.105  10.706  11.662 -0.2783 -0.0215  0.2248
 6393SOL    HW125784  12.116  10.801  11.668 -1.5457  0.0986  1.2083
 6393SOL    HW225785  12.177  10.670  11.714  0.3502  0.3822 -0.3508
 6394SOL     OW25786   4.242   9.938   1.387  0.1780  0.3151 -0.4589
 6394SOL    HW125787   4.333   9.907   1.397  0.3079  0.6131 -0.7237
 6394SOL    HW225788   4.195   9.862   1.353 -0.0740 -0.4504  1.4535
 6395SOL     OW25789   3.830   0.050   4.619  0.2774 -0.1882  0.2003
 6395SOL    HW125790   3.885  -0.027   4.633 -0.0566 -0.5063 -0.1858
 6395SOL    HW225791   3.851   0.109   4.691  2.7584  0.6638 -1.1021
 6396SOL     OW25792   2.961  12.172   4.715  0.0063 -0.3617 -0.1875
 6396SOL    HW125793   2.886  12.122   4.682 -0.2284  0.7532 -1.4404
 6396SOL    HW225794   2.992  12.222   4.639  0.1231  1.5161  1.0127
 6397SOL     OW25795   1.307   6.765   6.439 -0.1022 -0.0840 -0.4047
 6397SOL    HW125796   1.293   6.751   6.345  0.1056  0.0528 -0.4556
 6397SOL    HW225797   1.269   6.851   6.456  1.1434  0.5315 -0.6501
 6398SOL     OW25798   9.429   9.417  11.501 -0.5620  0.3421 -0.7873
 6398SOL    HW125799   9.503   9.387  11.448 -0.8503 -0.3418 -0.8230
 6398SOL    HW225800   9.455   9.503  11.532  0.8522 -0.4330  0.3384
 6399SOL     OW25801   8.175   8.703   4.979  0.0953 -0.0875 -0.1394
 6399SOL    HW125802   8.108   8.737   5.038  1.1387  1.1020  0.4183
 6399SOL    HW225803   8.211   8.627   5.025 -0.4597 -0.3852 -0.1831
 6400SOL     OW25804   7.791   1.036   4.117 -0.0914 -0.8662  0.3064
 6400SOL    HW125805   7.826   1.095   4.185 -0.6145 -0.4546  0.2284
 6400SOL    HW225806   7.867   0.989   4.084  0.4913  0.4285 -0.2702
 6401SOL     OW25807  11.516  11.506   9.745  0.1482 -0.1537 -0.0490
 6401SOL    HW125808  11.597  11.531   9.791  0.8772  0.8388 -1.7770
 6401SOL    HW225809  11.523  11.549   9.660 -0.8461 -2.4361 -1.3590
 6402SOL     OW25810   3.286   4.681   7.315 -0.1170  0.2990  0.5706
 6402SOL    HW125811   3.266   4.589   7.299 -1.9353  0.4721  1.4825
 6402SOL    HW225812   3.200   4.722   7.323  0.6615  2.1492 -0.1630
 6403SOL     OW25813  11.623   2.863   9.729  0.1358 -0.5233 -0.2988
 6403SOL    HW125814  11.599   2.772   9.745 -1.6505 -0.1613 -0.7182
 6403SOL    HW225815  11.547   2.901   9.686  1.2921  0.8848 -1.2036
 6404SOL     OW25816   5.040  12.005   7.033  0.3879  0.1795  0.1880
 6404SOL    HW125817   5.011  11.974   7.119  0.6637 -0.2987  0.1135
 6404SOL    HW225818   5.123  12.050   7.051  1.2785 -1.3142 -0.0245
 6405SOL     OW25819   5.068   2.072   2.791 -0.4386  0.3596 -0.1653
 6405SOL    HW125820   5.103   2.029   2.713 -0.9981  0.7341 -0.6345
 6405SOL    HW225821   5.099   2.019   2.864 -1.0507 -0.7852 -0.7240
 6406SOL     OW25822   2.612   3.593   4.195  0.1777 -0.5181 -0.4054
 6406SOL    HW125823   2.529   3.547   4.191 -0.3005  0.1730  0.9610
 6406SOL    HW225824   2.610   3.640   4.279  2.3146 -1.2077  0.1149
 6407SOL     OW25825  12.619   0.545  11.768 -0.1363  0.2611  0.2585
 6407SOL    HW125826  12.677   0.588  11.705  1.6932 -0.2714  1.4817
 6407SOL    HW225827  12.587   0.616  11.824  0.8930  0.3531  0.7470
 6408SOL     OW25828   2.789  10.788  12.570  0.2402 -0.0625 -0.4803
 6408SOL    HW125829   2.760  10.873  12.537  0.8007 -0.1461 -1.2412
 6408SOL    HW225830   2.781  10.729  12.494 -1.2489 -0.9802  0.3389
 6409SOL     OW25831   3.249   4.672   9.646  0.5362  0.4921 -0.3822
 6409SOL    HW125832   3.194   4.721   9.585 -0.0420  3.1746  2.0768
 6409SOL    HW225833   3.188   4.636   9.710  1.2482 -0.9928 -0.4852
 6410SOL     OW25834   7.338   0.348   6.233  0.8307 -0.8270 -0.6875
 6410SOL    HW125835   7.295   0.327   6.316  1.4486 -3.4827 -0.9319
 6410SOL    HW225836   7.266   0.359   6.171  0.2545  3.0783  0.4224
 6411SOL     OW25837  10.459   0.807  12.647 -0.3858  0.5339  0.2421
 6411SOL    HW125838  10.550   0.818  12.620 -0.1699  0.6951  0.9968
 6411SOL    HW225839  10.408   0.838  12.572  0.1884  1.4202  0.2051
 6412SOL     OW25840   8.157   0.794   2.320  0.3671  0.4102  0.1340
 6412SOL    HW125841   8.080   0.812   2.266 -0.6126  1.9525  1.9612
 6412SOL    HW225842   8.230   0.832   2.271 -0.3398  0.8958 -0.5631
 6413SOL     OW25843  11.077   1.539   7.466  0.3715 -0.1065 -0.2661
 6413SOL    HW125844  11.076   1.491   7.383 -1.2290  1.8605 -1.4748
 6413SOL    HW225845  11.170   1.560   7.479  0.6380 -0.2500 -1.6917
 6414SOL     OW25846   5.511   5.117  12.128 -0.6631  0.4572 -0.7679
 6414SOL    HW125847   5.445   5.168  12.176  0.5112  0.3054  1.1163
 6414SOL    HW225848   5.518   5.161  12.043 -2.7247  0.8297 -0.8026
 6415SOL     OW25849   4.476   2.760   9.761  0.1669  0.2038  0.1035
 6415SOL    HW125850   4.531   2.834   9.736  0.7396 -0.3117 -0.1765
 6415SOL    HW225851   4.414   2.750   9.689  1.3924 -0.8632 -0.8394
 6416SOL     OW25852   8.530  10.293  11.240  0.2772 -0.1547 -0.3221
 6416SOL    HW125853   8.503  10.255  11.157  0.2787 -1.2378  0.1523
 6416SOL    HW225854   8.465  10.362  11.258 -0.0749 -0.3277 -0.9183
 6417SOL     OW25855   9.658  12.276  12.393 -0.6865  0.3052 -0.3999
 6417SOL    HW125856   9.595  12.288  12.463 -0.1928 -0.9013  0.2730
 6417SOL    HW225857   9.605  12.268  12.314 -1.2423  1.7700 -0.2144
 6418SOL     OW25858  10.686  10.211   0.345  0.6488 -0.1511 -0.3610
 6418SOL    HW125859  10.753  10.231   0.280  0.1154  0.6213 -0.6843
 6418SOL    HW225860  10.671  10.293   0.392  0.8929 -0.6546  0.6218
 6419SOL     OW25861   2.903  11.565   2.063 -0.0847  0.0018 -0.2783
 6419SOL    HW125862   2.902  11.472   2.041 -1.0020  0.2301 -1.3060
 6419SOL    HW225863   2.918  11.609   1.980  2.2186  0.7462  0.4719
 6420SOL     OW25864   9.168  11.928   3.548  0.3361 -0.0408 -0.5185
 6420SOL    HW125865   9.115  11.848   3.543 -0.1430 -0.0868  2.9091
 6420SOL    HW225866   9.104  11.999   3.545  0.7386  0.3249 -3.2107
 6421SOL     OW25867   0.863  11.139  11.424 -0.3217 -0.3894 -0.2093
 6421SOL    HW125868   0.829  11.228  11.433  0.5111  0.0164 -0.9270
 6421SOL    HW225869   0.799  11.084  11.468 -0.7667  0.5858  0.3849
 6422SOL     OW25870   7.144   9.917   4.170  0.3654 -0.5489 -0.0518
 6422SOL    HW125871   7.100   9.894   4.252  0.2802 -1.5726 -0.3671
 6422SOL    HW225872   7.103   9.861   4.104  0.2807  0.4252 -0.8381
 6423SOL     OW25873   9.810  12.090   3.114  0.0212  0.0051 -0.4782
 6423SOL    HW125874   9.859  12.160   3.157 -0.6498  0.9880 -1.2380
 6423SOL    HW225875   9.785  12.031   3.184 -0.9536  1.4998  0.5017
 6424SOL     OW25876   4.830   8.744   1.548  0.6013  0.0445  0.4811
 6424SOL    HW125877   4.753   8.792   1.579  0.8426  1.0400 -0.4160
 6424SOL    HW225878   4.904   8.798   1.574  0.8609  0.3525 -0.8453
 6425SOL     OW25879   9.102   1.814   2.221 -0.3975 -0.4395  0.9157
 6425SOL    HW125880   9.167   1.811   2.151 -0.2702 -2.1428  1.0687
 6425SOL    HW225881   9.028   1.765   2.188 -1.3036  0.7717  1.0818
 6426SOL     OW25882   4.000   4.719   3.909 -0.2779  0.5267  0.4433
 6426SOL    HW125883   4.069   4.710   3.843 -0.2120  0.4462  0.5220
 6426SOL    HW225884   3.948   4.639   3.900  0.4804 -0.1072  1.3413
 6427SOL     OW25885   0.153   7.308  12.003 -0.3463  0.1487 -0.0525
 6427SOL    HW125886   0.086   7.250  11.967 -1.4934  0.9432  0.7318
 6427SOL    HW225887   0.223   7.307  11.938  0.3469 -3.2121  0.5644
 6428SOL     OW25888   6.755   7.011   1.757  0.0648  0.2175  0.6370
 6428SOL    HW125889   6.672   7.053   1.781 -0.2311  0.6155 -0.9490
 6428SOL    HW225890   6.731   6.921   1.734 -0.1451  0.6410 -0.9140
 6429SOL     OW25891   8.323  11.972   0.746 -0.1640 -0.3516 -0.1170
 6429SOL    HW125892   8.310  12.066   0.764  4.7407  0.9055 -1.5652
 6429SOL    HW225893   8.362  11.939   0.827 -0.3812 -0.7208 -0.1663
 6430SOL     OW25894   5.004   8.845   2.674 -0.1544 -0.4656  0.1028
 6430SOL    HW125895   5.005   8.939   2.688  1.7894 -0.4828  0.3755
 6430SOL    HW225896   4.948   8.810   2.744 -0.2685  0.4156  0.4567
 6431SOL     OW25897  10.085   3.770  10.055 -0.0414 -0.3450 -0.2006
 6431SOL    HW125898  10.060   3.697  10.113  0.2970 -0.1517  0.1891
 6431SOL    HW225899  10.169   3.743  10.017 -0.3754 -0.5804 -0.8031
 6432SOL     OW25900   2.484   9.101   0.670  0.0410 -0.0568 -0.8875
 6432SOL    HW125901   2.511   9.027   0.615  0.1091 -0.7728  0.0994
 6432SOL    HW225902   2.463   9.170   0.607  0.8304 -0.6163 -1.7962
 6433SOL     OW25903   7.705   6.780  11.038  0.1516 -0.2201  0.0141
 6433SOL    HW125904   7.616   6.816  11.038  0.8153  1.6247 -1.7851
 6433SOL    HW225905   7.708   6.723  11.115 -1.7164  1.9271  1.8452
 6434SOL     OW25906   1.549   5.022   5.845 -0.4726 -0.1940  0.3229
 6434SOL    HW125907   1.546   4.954   5.912  0.0262 -1.0111 -0.4625
 6434SOL    HW225908   1.578   4.977   5.766  0.4957  1.0489 -0.0646
 6435SOL     OW25909   6.206  12.453   4.047 -0.2225 -0.2568  0.0793
 6435SOL    HW125910   6.282  12.496   4.010 -0.2014 -0.6347 -0.3176
 6435SOL    HW225911   6.226  12.359   4.042 -0.5134 -0.3405  0.4022
 6436SOL     OW25912  12.782   2.603  10.554 -0.2747 -0.6509 -0.0165
 6436SOL    HW125913  12.795   2.557  10.471  0.9995 -1.3470  0.5389
 6436SOL    HW225914  12.813   2.541  10.620  1.7729  1.0689  0.7461
 6437SOL     OW25915   0.178   0.933   3.839  0.3015 -0.3817  0.6663
 6437SOL    HW125916   0.106   0.870   3.842 -0.1392  0.1406  1.1555
 6437SOL    HW225917   0.157   0.990   3.766  1.0964 -1.2512 -0.2752
 6438SOL     OW25918   9.608   6.397   7.344  0.4364  0.0179  0.3528
 6438SOL    HW125919   9.694   6.405   7.302 -0.4713  1.5671 -1.3853
 6438SOL    HW225920   9.602   6.473   7.402  0.1341  0.0891  0.2302
 6439SOL     OW25921   1.516  12.010   3.263  0.8315 -0.4701 -0.1505
 6439SOL    HW125922   1.522  11.928   3.214 -0.8163 -0.6396 -0.1350
 6439SOL    HW225923   1.507  12.078   3.197  1.1341 -0.4193 -0.1396
 6440SOL     OW25924   6.524   2.179   5.690 -0.5263 -0.2681  0.3410
 6440SOL    HW125925   6.500   2.246   5.626  2.6526  1.8970  1.1623
 6440SOL    HW225926   6.484   2.209   5.772  0.3221  0.2713  0.5651
 6441SOL     OW25927  11.769   0.113   8.983 -0.0590  0.7218 -0.1031
 6441SOL    HW125928  11.732   0.049   9.044  3.0687 -0.7819  0.4417
 6441SOL    HW225929  11.804   0.182   9.039 -1.3621  1.7990 -0.5637
 6442SOL     OW25930   5.098  10.811   5.887 -0.4068 -0.3010 -0.0307
 6442SOL    HW125931   5.181  10.819   5.934 -1.7707 -0.6936  2.6235
 6442SOL    HW225932   5.060  10.899   5.888 -1.1826 -0.6199  1.1639
 6443SOL     OW25933   1.324   1.544   8.885 -0.0928 -0.1532 -0.5083
 6443SOL    HW125934   1.331   1.450   8.900  0.5446 -0.2329 -1.2313
 6443SOL    HW225935   1.415   1.574   8.877 -0.3221  0.3098 -1.5128
 6444SOL     OW25936   9.001   0.899   2.286 -0.9858  0.0275 -0.1254
 6444SOL    HW125937   9.081   0.878   2.239 -0.2213 -1.3318  1.6694
 6444SOL    HW225938   8.959   0.814   2.301 -1.3841  0.4499  1.2832
 6445SOL     OW25939   6.120  11.102   5.752  0.7179 -0.1624  0.9436
 6445SOL    HW125940   6.212  11.115   5.730  0.7045 -1.1852  0.1775
 6445SOL    HW225941   6.104  11.009   5.733 -1.2439  0.6399 -1.9787
 6446SOL     OW25942   4.337  10.155   4.455  0.2927 -0.0628  0.2448
 6446SOL    HW125943   4.264  10.104   4.421  0.3946  1.0005 -1.7153
 6446SOL    HW225944   4.413  10.098   4.443  0.2691  0.1417 -1.0677
 6447SOL     OW25945  11.194   8.257  11.239 -0.1470  0.3396 -0.2519
 6447SOL    HW125946  11.216   8.345  11.268  0.1949  0.3333 -0.4830
 6447SOL    HW225947  11.102   8.246  11.263 -0.3084  0.9113 -0.5892
 6448SOL     OW25948   9.315   6.044   3.348  0.0103  0.2722  0.0060
 6448SOL    HW125949   9.358   6.130   3.342 -0.0349  0.3300  0.4990
 6448SOL    HW225950   9.222   6.064   3.363  0.4206  0.1723  3.3524
 6449SOL     OW25951   8.292  10.630   9.214 -0.3994 -0.1171  0.6976
 6449SOL    HW125952   8.224  10.581   9.168 -1.1820  0.3588  1.3152
 6449SOL    HW225953   8.361  10.644   9.149 -2.5250  2.7104 -1.1952
 6450SOL     OW25954   9.808   7.740   1.782 -0.3729 -0.4283  0.2449
 6450SOL    HW125955   9.769   7.821   1.816 -0.9146 -0.4166 -0.3902
 6450SOL    HW225956   9.735   7.681   1.768 -0.2584 -0.2603 -1.3470
 6451SOL     OW25957   2.686  10.251   2.434  0.1982  0.4784 -0.1590
 6451SOL    HW125958   2.734  10.304   2.370  1.3650 -0.3085  0.0373
 6451SOL    HW225959   2.729  10.269   2.517 -0.4776  0.4977  0.1933
 6452SOL     OW25960   8.062   1.263   1.540  0.0167  0.5155  0.3900
 6452SOL    HW125961   8.038   1.180   1.498  0.5240  1.2775 -1.5472
 6452SOL    HW225962   8.096   1.238   1.625 -1.6616 -1.0944  0.6523
 6453SOL     OW25963   1.213   8.103   6.008  0.0148  0.1841  0.1199
 6453SOL    HW125964   1.206   8.187   5.963 -0.6809  0.4016  0.6077
 6453SOL    HW225965   1.296   8.066   5.979  0.6132  1.3124  0.3617
 6454SOL     OW25966   5.298   8.775   1.959  0.4603 -0.0263 -0.1719
 6454SOL    HW125967   5.354   8.848   1.933 -0.4838  0.9542  0.4912
 6454SOL    HW225968   5.247   8.756   1.881 -0.4572  1.1332  0.1185
 6455SOL     OW25969   5.040   3.744   0.761 -0.2009 -0.2613  0.1545
 6455SOL    HW125970   4.962   3.797   0.778  0.1863  0.0356  1.0940
 6455SOL    HW225971   5.015   3.655   0.786 -0.5239 -0.3393 -0.4327
 6456SOL     OW25972   3.570   0.067   8.301  0.1138 -0.7125  0.5732
 6456SOL    HW125973   3.550   0.008   8.228  1.6415 -1.3559  0.6141
 6456SOL    HW225974   3.489   0.072   8.351 -0.5602 -1.3774 -0.4033
 6457SOL     OW25975   0.642  10.040   1.645  0.1800 -0.7742  0.0213
 6457SOL    HW125976   0.603  10.107   1.589 -0.8947 -0.9630  0.5264
 6457SOL    HW225977   0.656  10.084   1.729 -0.1139 -1.0622  0.2209
 6458SOL     OW25978   0.980   9.643   4.749  0.6920  0.5099  0.4438
 6458SOL    HW125979   1.071   9.620   4.729 -0.0569 -2.2950 -0.0598
 6458SOL    HW225980   0.928   9.569   4.718 -1.7416  1.7384  1.2945
 6459SOL     OW25981   9.020   3.657   4.667 -0.1906  0.0066 -0.0604
 6459SOL    HW125982   8.982   3.619   4.588 -1.3562  0.5052  0.2398
 6459SOL    HW225983   9.106   3.688   4.639  0.8716 -2.8771 -0.2804
 6460SOL     OW25984  10.656  12.359   6.316 -0.0090  0.2751 -0.5085
 6460SOL    HW125985  10.575  12.411   6.314  0.7546  1.5050 -0.7412
 6460SOL    HW225986  10.716  12.407   6.259  1.0359 -0.3533  0.0472
 6461SOL     OW25987   7.038   0.538  11.517 -0.4724 -0.3129 -0.1002
 6461SOL    HW125988   6.952   0.495  11.509  0.2222 -1.5602 -1.2319
 6461SOL    HW225989   7.042   0.597  11.442 -0.1106 -0.6777 -0.3678
 6462SOL     OW25990   5.536   7.905   1.556 -0.4003 -0.0475 -0.7491
 6462SOL    HW125991   5.533   7.886   1.649  2.5094  1.4066 -0.2639
 6462SOL    HW225992   5.484   7.835   1.516  0.3272 -2.1844  1.7493
 6463SOL     OW25993   8.979   6.970   9.499  0.6959  0.4483  0.0118
 6463SOL    HW125994   8.935   6.887   9.481 -1.3168  1.6831 -1.1149
 6463SOL    HW225995   9.064   6.962   9.455  0.2252 -0.7337 -0.7344
 6464SOL     OW25996   9.068   7.281  12.273  0.0774  0.2016  0.3685
 6464SOL    HW125997   9.124   7.203  12.277  0.4081  0.4650  1.0248
 6464SOL    HW225998   9.087   7.319  12.187  0.6281  0.0787  0.4295
 6465SOL     OW25999   0.994   3.574   5.124 -0.7249 -0.4982  0.1055
 6465SOL    HW126000   1.048   3.647   5.095 -1.4491 -0.4817 -1.2691
 6465SOL    HW226001   0.923   3.614   5.174 -1.2013 -0.2318 -0.7703
 6466SOL     OW26002   8.125   7.510   1.531 -0.1075  0.2169  0.2327
 6466SOL    HW126003   8.098   7.596   1.499  0.1622  0.6599  1.1540
 6466SOL    HW226004   8.213   7.524   1.566 -0.2223 -0.3346  0.7655
 6467SOL     OW26005   5.303   5.641   0.427 -0.2856 -0.1070 -0.4361
 6467SOL    HW126006   5.372   5.657   0.363  0.3634  0.7698  0.4536
 6467SOL    HW226007   5.257   5.564   0.394 -0.5073  0.8038 -2.4027
 6468SOL     OW26008   1.592  12.608   2.537  0.0573  0.0332  0.6527
 6468SOL    HW126009   1.575  12.516   2.552 -0.5295  0.1326  0.5957
 6468SOL    HW226010   1.666  12.609   2.476 -0.5223 -0.4153 -0.0732
 6469SOL     OW26011   9.558   9.485   7.673 -0.1049  0.0100  0.4371
 6469SOL    HW126012   9.641   9.494   7.626  1.5504 -2.2508  2.6452
 6469SOL    HW226013   9.493   9.471   7.605  1.7583 -0.7541 -1.3005
 6470SOL     OW26014   5.229  11.118   4.204 -0.0965  0.5258  0.2688
 6470SOL    HW126015   5.234  11.178   4.129 -2.2870  1.1266  0.5179
 6470SOL    HW226016   5.315  11.076   4.207  1.9381  4.2630  0.6237
 6471SOL     OW26017   5.162   2.855   3.201 -0.0930 -0.1349  0.6083
 6471SOL    HW126018   5.200   2.775   3.164  0.8264  1.5395 -2.4239
 6471SOL    HW226019   5.149   2.835   3.294  2.9877 -2.7422  0.6477
 6472SOL     OW26020   5.953  10.942   7.630 -0.3752  0.2167 -0.0314
 6472SOL    HW126021   5.873  10.891   7.619 -0.7212  0.5601  0.8411
 6472SOL    HW226022   5.946  10.981   7.717 -0.4365  2.2983 -0.8922
 6473SOL     OW26023   3.557  10.219   9.161 -0.6018 -0.1252  0.4091
 6473SOL    HW126024   3.588  10.246   9.247 -1.5739 -1.3558  1.1676
 6473SOL    HW226025   3.486  10.158   9.178 -1.3434  0.1890 -1.2679
 6474SOL     OW26026   9.859  11.660   4.349 -0.1829  0.2157  0.7255
 6474SOL    HW126027   9.853  11.719   4.274 -0.1770  1.6465  1.7990
 6474SOL    HW226028   9.770  11.627   4.361 -0.3647  0.6507  0.5961
 6475SOL     OW26029   1.885   2.669   9.776  0.1015  0.4130  0.1473
 6475SOL    HW126030   1.910   2.594   9.831  1.9022  1.8680  1.4391
 6475SOL    HW226031   1.939   2.660   9.698 -0.8751 -0.4684 -0.4607
 6476SOL     OW26032   4.046   7.864   2.227 -0.2566 -0.1273  0.3447
 6476SOL    HW126033   4.014   7.843   2.139 -0.0591  1.3155 -0.0952
 6476SOL    HW226034   4.137   7.891   2.213 -0.1214 -0.2049  1.0486
 6477SOL     OW26035   0.780  10.837   1.412  0.5927 -0.2868  0.9931
 6477SOL    HW126036   0.705  10.803   1.363 -0.1151 -1.4477  2.7828
 6477SOL    HW226037   0.749  10.920   1.449  1.2062  0.7140 -0.6107
 6478SOL     OW26038   4.415   5.671   3.451 -0.0593 -0.1803 -0.1596
 6478SOL    HW126039   4.486   5.620   3.491  1.1687  0.6236 -1.2379
 6478SOL    HW226040   4.400   5.744   3.510 -0.3981 -0.6554  0.3518
 6479SOL     OW26041   2.834   5.382   7.008 -0.0912  0.3561  0.6124
 6479SOL    HW126042   2.884   5.456   6.974  0.2259  0.2471  0.8308
 6479SOL    HW226043   2.870   5.306   6.961 -0.5755  0.3673  0.2192
 6480SOL     OW26044   3.796   6.112  11.138 -0.1139  0.6041 -0.6044
 6480SOL    HW126045   3.888   6.123  11.113  0.1002 -0.3572 -0.2779
 6480SOL    HW226046   3.785   6.169  11.214  1.6132 -2.8295  2.5632
 6481SOL     OW26047   9.335   5.457  12.294  0.0509 -0.1814  0.3306
 6481SOL    HW126048   9.415   5.458  12.242  0.6763 -1.7904  1.1911
 6481SOL    HW226049   9.291   5.376  12.268  0.6347 -1.3031  2.5989
 6482SOL     OW26050   1.161   6.509  10.044  0.4806 -0.5134  0.2944
 6482SOL    HW126051   1.225   6.530  10.112 -0.1222 -2.0819  1.4126
 6482SOL    HW226052   1.107   6.440  10.082 -0.9397 -0.2903 -1.1777
 6483SOL     OW26053   1.812   6.216   5.051  0.1207  0.4088 -0.4534
 6483SOL    HW126054   1.721   6.198   5.030  0.3063  0.7078 -1.6099
 6483SOL    HW226055   1.861   6.147   5.006  0.3300 -1.9658  3.0679
 6484SOL     OW26056   3.537   7.506   6.417 -0.1513 -0.2496 -0.1219
 6484SOL    HW126057   3.487   7.573   6.462 -0.1897  0.8221 -1.6749
 6484SOL    HW226058   3.628   7.523   6.440 -0.1812  0.2024 -0.3370
 6485SOL     OW26059  10.544  10.391   5.697  0.4650 -0.3134  0.1249
 6485SOL    HW126060  10.493  10.462   5.735 -1.6315 -1.5146 -0.2660
 6485SOL    HW226061  10.582  10.345   5.772  2.6199  1.6708  0.3508
 6486SOL     OW26062   0.042   1.832   3.580 -0.6687  0.1287 -0.0423
 6486SOL    HW126063   0.024   1.878   3.662 -2.4380 -0.4060 -0.0951
 6486SOL    HW226064   0.111   1.884   3.538 -0.6845  1.1658  1.1593
 6487SOL     OW26065  11.153   2.469   3.381 -0.7036  0.2418 -0.2119
 6487SOL    HW126066  11.152   2.537   3.449 -2.0322  0.2091 -0.1806
 6487SOL    HW226067  11.146   2.517   3.299 -0.7077  0.1894 -0.2420
 6488SOL     OW26068  10.618   0.027   6.691 -0.0479  0.0714  0.4687
 6488SOL    HW126069  10.585   0.007   6.778  2.7877 -0.2143  1.5934
 6488SOL    HW226070  10.540   0.043   6.638 -1.8755 -0.2500  2.9154
 6489SOL     OW26071   6.268   3.807   7.904  0.4947  0.2957  0.0317
 6489SOL    HW126072   6.312   3.806   7.819 -0.0721  1.1204 -0.2876
 6489SOL    HW226073   6.180   3.772   7.886  0.3942  0.4138  0.2881
 6490SOL     OW26074  10.512  10.020   0.290 -0.2787  0.3520  0.4286
 6490SOL    HW126075  10.564   9.944   0.314 -0.6766  0.0738  0.4206
 6490SOL    HW226076  10.572  10.094   0.298  0.1590  0.0169  0.2647
 6491SOL     OW26077  10.837   5.882  12.203 -0.4721  1.0126 -0.1264
 6491SOL    HW126078  10.864   5.798  12.164 -3.5576 -1.4445  2.4250
 6491SOL    HW226079  10.881   5.885  12.288 -2.4564  0.4894  0.9839
 6492SOL     OW26080   9.487   9.833   5.155 -0.5535  0.4880 -0.2710
 6492SOL    HW126081   9.440   9.782   5.090 -0.3419 -0.9382  0.6488
 6492SOL    HW226082   9.426   9.903   5.179 -1.7365 -0.5942 -0.0140
 6493SOL     OW26083   8.885  11.609   9.665 -0.3547  0.4161  0.4651
 6493SOL    HW126084   8.900  11.606   9.571 -3.1622  0.2430 -0.0470
 6493SOL    HW226085   8.842  11.526   9.686  0.3705  0.3718  1.9595
 6494SOL     OW26086   6.319   4.938   2.426 -0.0268 -0.2390 -0.6713
 6494SOL    HW126087   6.301   5.016   2.478 -1.6776 -0.1446 -1.3224
 6494SOL    HW226088   6.412   4.921   2.439 -0.5991 -1.2390  3.6817
 6495SOL     OW26089   2.360  11.769   2.134  0.4201 -1.0569  0.4292
 6495SOL    HW126090   2.440  11.765   2.081  0.2563 -0.6392  0.1379
 6495SOL    HW226091   2.369  11.850   2.184  0.0885 -0.9017  0.2419
 6496SOL     OW26092   4.892   9.570   8.414 -0.2483  0.4244  0.3389
 6496SOL    HW126093   4.809   9.613   8.436 -1.1430 -1.2836  0.4443
 6496SOL    HW226094   4.926   9.620   8.339 -1.2518  1.2800  0.4368
 6497SOL     OW26095  12.409   4.496   6.345  0.0471  0.0902 -0.0190
 6497SOL    HW126096  12.483   4.441   6.319 -0.6421 -0.5701 -0.6222
 6497SOL    HW226097  12.414   4.498   6.441  2.6216  2.5701 -0.0402
 6498SOL     OW26098  11.442   8.472   8.582  0.2313  0.4828 -0.0736
 6498SOL    HW126099  11.495   8.407   8.536 -0.4969 -0.2224  0.0729
 6498SOL    HW226100  11.459   8.454   8.675 -1.4151 -0.7708  0.0341
 6499SOL     OW26101   8.070  10.470   0.612  0.0572  0.4210  1.0906
 6499SOL    HW126102   7.992  10.425   0.579  0.8926 -0.5089  0.3169
 6499SOL    HW226103   8.040  10.559   0.629 -0.6794  0.7257 -1.3364
 6500SOL     OW26104   9.549   9.229   1.835  0.2257 -0.5879 -0.4929
 6500SOL    HW126105   9.467   9.279   1.841  0.2876 -0.5496  0.1188
 6500SOL    HW226106   9.614   9.285   1.877  1.1322  0.5040 -3.1414
 6501SOL     OW26107   5.322   5.898   2.308  0.3084 -0.5401 -0.3710
 6501SOL    HW126108   5.291   5.909   2.397  2.0076 -2.0262  0.4564
 6501SOL    HW226109   5.326   5.803   2.295  3.4503 -0.4716 -0.7037
 6502SOL     OW26110   4.141   3.826   3.392  0.8711  0.3117  0.4317
 6502SOL    HW126111   4.119   3.919   3.383  2.5232  0.7382  0.6225
 6502SOL    HW226112   4.201   3.823   3.466  0.1182 -1.0530  1.0199
 6503SOL     OW26113   2.316   6.105  10.951 -0.2110  0.2616 -0.0188
 6503SOL    HW126114   2.401   6.147  10.938 -0.5457  1.6730  1.8769
 6503SOL    HW226115   2.328   6.015  10.921  1.9336  0.4502  0.1628
 6504SOL     OW26116   6.626   6.774   5.918 -0.3347  0.2283 -0.0962
 6504SOL    HW126117   6.638   6.868   5.929  0.9001  0.4004 -2.1986
 6504SOL    HW226118   6.541   6.755   5.956 -0.8554  2.2982 -0.1280
 6505SOL     OW26119   5.984   5.777   6.094 -0.1877  0.4244  0.2664
 6505SOL    HW126120   5.921   5.847   6.077  0.9846  1.1386 -1.4419
 6505SOL    HW226121   6.057   5.820   6.137 -0.1186 -0.0706  0.6529
 6506SOL     OW26122   2.483   6.543   3.146  0.2406 -0.1820  0.5479
 6506SOL    HW126123   2.430   6.535   3.225  0.7164  1.7280  1.1154
 6506SOL    HW226124   2.524   6.457   3.136 -0.4109 -0.6918  1.9478
 6507SOL     OW26125   8.510  12.405   3.248  0.3011  0.0905  0.3521
 6507SOL    HW126126   8.457  12.440   3.177  1.6928  1.3612 -0.1007
 6507SOL    HW226127   8.470  12.440   3.328 -0.3313 -0.0732  0.1107
 6508SOL     OW26128  10.536  10.693   5.561  0.0716  0.3184  0.1571
 6508SOL    HW126129  10.444  10.697   5.534  0.3766  3.4768 -0.8517
 6508SOL    HW226130  10.533  10.696   5.657 -0.8545 -0.9483  0.1906
 6509SOL     OW26131   0.845   3.358   9.236  0.5855 -0.3832 -0.2128
 6509SOL    HW126132   0.847   3.453   9.243 -0.5747 -0.0775 -2.9505
 6509SOL    HW226133   0.758   3.333   9.266  1.1944 -0.7654  1.3955
 6510SOL     OW26134   8.608   7.104   9.691 -0.0868  0.1846 -0.0944
 6510SOL    HW126135   8.525   7.143   9.720  0.5930  1.1750  0.5645
 6510SOL    HW226136   8.672   7.134   9.755  0.7996 -0.5230 -0.6353
 6511SOL     OW26137   3.569   4.619   0.910  0.0022 -0.1925 -0.2518
 6511SOL    HW126138   3.638   4.605   0.845 -2.8449 -0.6769 -3.5075
 6511SOL    HW226139   3.564   4.537   0.959  0.8477 -0.6338 -0.8941
 6512SOL     OW26140   6.010   4.183   0.850  0.0147 -0.0182  0.1543
 6512SOL    HW126141   6.006   4.135   0.933 -1.5971  1.0601  0.7533
 6512SOL    HW226142   5.962   4.264   0.867  0.2657  0.5535 -1.6418
 6513SOL     OW26143  11.012   0.852   6.195  0.1849 -0.5582 -0.5636
 6513SOL    HW126144  11.057   0.768   6.206  0.9628 -0.0249  0.4691
 6513SOL    HW226145  11.082   0.917   6.202 -0.6772  0.2711  0.7999
 6514SOL     OW26146   7.508   3.542   9.750  0.1484 -0.7221  0.1048
 6514SOL    HW126147   7.546   3.496   9.675  0.0023 -1.3248  0.3870
 6514SOL    HW226148   7.414   3.537   9.735  0.1541  0.2318 -0.2860
 6515SOL     OW26149  12.316   6.175   2.102  0.0575 -0.1405  0.9112
 6515SOL    HW126150  12.360   6.251   2.065  0.5059 -0.9158 -0.2243
 6515SOL    HW226151  12.284   6.204   2.187 -0.6716  1.6094  0.0821
 6516SOL     OW26152   0.780   6.053  11.203  0.3092 -0.0213 -0.1449
 6516SOL    HW126153   0.774   6.020  11.293  1.4290  0.5993  0.1637
 6516SOL    HW226154   0.872   6.077  11.191  0.3304 -0.7072 -1.6827
 6517SOL     OW26155  12.464   8.423   0.123  0.0230 -0.2573  0.1534
 6517SOL    HW126156  12.553   8.398   0.098 -0.7226 -1.9994 -0.9485
 6517SOL    HW226157  12.454   8.512   0.089  1.0815 -0.3393 -0.4372
 6518SOL     OW26158  12.228   4.416   7.209  0.6989  0.7424  0.4203
 6518SOL    HW126159  12.179   4.415   7.290 -1.4974 -1.2808 -0.8181
 6518SOL    HW226160  12.165   4.445   7.143  1.1825 -1.6254 -1.1909
 6519SOL     OW26161   5.354   5.373   1.448  0.3615  0.0193  0.2584
 6519SOL    HW126162   5.358   5.306   1.379  2.1712  0.9325 -0.6092
 6519SOL    HW226163   5.264   5.369   1.480 -0.9426  0.3631 -2.9671
 6520SOL     OW26164   4.918   1.361   2.378  0.4028 -0.3876  0.3802
 6520SOL    HW126165   4.894   1.269   2.366  1.3559 -0.3705 -2.1463
 6520SOL    HW226166   4.993   1.359   2.438 -0.1609 -1.1628  1.0762
 6521SOL     OW26167  12.593   2.374   5.859  0.4076 -0.4445 -0.0939
 6521SOL    HW126168  12.672   2.372   5.913  0.0045 -0.4917  0.4946
 6521SOL    HW226169  12.564   2.465   5.863  0.3737 -0.4480 -0.2364
 6522SOL     OW26170   2.216  10.427   9.978 -0.0565  0.6183 -0.1653
 6522SOL    HW126171   2.292  10.473  10.014 -0.5705  1.3791 -0.0304
 6522SOL    HW226172   2.159  10.413  10.053 -0.1600  0.2714 -0.3089
 6523SOL     OW26173   9.993  10.344   2.451 -0.2159 -0.0307 -0.2331
 6523SOL    HW126174  10.046  10.265   2.459 -0.6115 -0.1608  1.5410
 6523SOL    HW226175  10.043  10.401   2.393  0.3063 -1.3823 -1.1659
 6524SOL     OW26176   0.335  12.374   2.400  0.3665  0.6688  0.3339
 6524SOL    HW126177   0.367  12.287   2.376  0.0792  0.3412  1.1125
 6524SOL    HW226178   0.392  12.402   2.471  0.7212  1.3008 -0.1935
 6525SOL     OW26179   9.022   8.930  11.280 -0.3844  0.6397  0.3797
 6525SOL    HW126180   9.053   8.921  11.190 -2.6176  0.7517 -0.4660
 6525SOL    HW226181   9.035   9.023  11.300  0.9879  0.4347  0.5629
 6526SOL     OW26182  12.212   4.951   3.202  0.1416 -0.2227 -0.5701
 6526SOL    HW126183  12.126   4.938   3.242 -0.1445  1.3064 -0.6328
 6526SOL    HW226184  12.274   4.932   3.272 -0.3362  1.6192  0.4284
 6527SOL     OW26185   2.159   4.295   2.215 -0.0557 -0.3277  0.2182
 6527SOL    HW126186   2.118   4.258   2.136  1.2770 -0.1141 -0.6067
 6527SOL    HW226187   2.169   4.388   2.196 -1.3396  0.0717  1.3794
 6528SOL     OW26188   9.303   2.444   4.175 -0.2025  0.2181 -0.3814
 6528SOL    HW126189   9.297   2.390   4.254 -0.7404 -0.4214 -0.8499
 6528SOL    HW226190   9.351   2.390   4.113 -1.5398 -0.1142 -1.1650
 6529SOL     OW26191  12.284   5.882  10.390  0.0162  0.7855  0.2904
 6529SOL    HW126192  12.365   5.932  10.392  0.4638  0.0597  0.7017
 6529SOL    HW226193  12.303   5.806  10.335 -0.6119  0.9760 -0.2081
 6530SOL     OW26194   2.600   4.346   1.889  0.6278  0.3675  0.1866
 6530SOL    HW126195   2.583   4.390   1.806  1.5300  1.1204  0.3866
 6530SOL    HW226196   2.696   4.347   1.898  0.5812 -0.2729  0.9324
 6531SOL     OW26197   2.329   4.713   0.944 -0.8381 -0.0420 -0.2513
 6531SOL    HW126198   2.400   4.651   0.962  1.8715  3.3767  2.3307
 6531SOL    HW226199   2.255   4.680   0.994 -0.0527 -2.0040 -0.2911
 6532SOL     OW26200   2.714  10.369   8.653 -0.4659  0.2976  0.0177
 6532SOL    HW126201   2.767  10.311   8.707  0.0100  1.4755  0.8690
 6532SOL    HW226202   2.624  10.350   8.678 -0.3529 -0.4838 -0.1543
 6533SOL     OW26203   3.543  11.681   7.670  0.4876  0.0100 -0.3755
 6533SOL    HW126204   3.457  11.720   7.655  0.1710 -0.8771 -0.8925
 6533SOL    HW226205   3.539  11.649   7.760  0.6667  0.9190 -0.0268
 6534SOL     OW26206   9.944   4.039  10.108  0.1068  0.5770 -0.0735
 6534SOL    HW126207   9.970   3.948  10.124  2.3471  1.5666  2.8729
 6534SOL    HW226208   9.849   4.039  10.121  0.1546 -1.1995  0.5789
 6535SOL     OW26209   4.738   6.732   6.651  0.1666 -0.2033  0.4229
 6535SOL    HW126210   4.650   6.701   6.630 -0.0372  0.3032  0.4927
 6535SOL    HW226211   4.780   6.744   6.566  0.0366 -0.0922  0.3727
 6536SOL     OW26212   0.705   6.310  10.342  0.0918  0.0279 -0.1499
 6536SOL    HW126213   0.771   6.358  10.393 -0.3710  0.1911  0.3083
 6536SOL    HW226214   0.663   6.378  10.288  0.8437 -0.2060 -1.0508
 6537SOL     OW26215   6.473   8.558   2.429 -0.0068 -0.5128 -0.0935
 6537SOL    HW126216   6.531   8.529   2.500 -0.5454 -0.0390  0.5485
 6537SOL    HW226217   6.388   8.569   2.471 -0.6281 -1.4264 -1.0770
 6538SOL     OW26218  11.006   1.900  11.400 -0.6125 -0.1125  0.4349
 6538SOL    HW126219  11.035   1.847  11.327  1.3581  1.6427 -0.1477
 6538SOL    HW226220  10.989   1.838  11.470 -0.8845 -1.6788 -0.9508
 6539SOL     OW26221  10.479   9.324  11.097 -0.1448 -0.2882  0.3952
 6539SOL    HW126222  10.520   9.295  11.179 -0.0059  0.2008  0.5015
 6539SOL    HW226223  10.546   9.376  11.054  0.1741 -1.4542 -0.5709
 6540SOL     OW26224   1.254   2.380   8.017 -0.2723  0.4938  0.2812
 6540SOL    HW126225   1.188   2.332   7.967 -1.1911  0.5175  1.4450
 6540SOL    HW226226   1.206   2.422   8.088  1.1276 -0.4844  1.8925
 6541SOL     OW26227   8.420   0.711   3.893 -0.1461  0.0884  0.1903
 6541SOL    HW126228   8.510   0.694   3.922 -0.7040 -1.9456  0.8970
 6541SOL    HW226229   8.379   0.754   3.968  0.0715  0.4380  0.1083
 6542SOL     OW26230   8.084   8.686   8.500 -0.5418  0.2109  0.0181
 6542SOL    HW126231   8.100   8.773   8.464 -0.9607  0.4439  0.3819
 6542SOL    HW226232   8.064   8.701   8.592 -1.8109 -0.1446 -0.1787
 6543SOL     OW26233   6.789   1.089   4.706  0.0198  0.6181  0.1020
 6543SOL    HW126234   6.721   1.058   4.646  1.8541 -1.2804 -1.1154
 6543SOL    HW226235   6.866   1.103   4.651  1.5855 -0.5501  1.8648
 6544SOL     OW26236  11.812   1.967   1.640  0.3316  0.3846  0.0241
 6544SOL    HW126237  11.829   2.061   1.630 -0.9295  0.6694  0.3901
 6544SOL    HW226238  11.745   1.961   1.707 -0.0926 -0.7407 -0.4656
 6545SOL     OW26239   3.397   0.390  12.028  0.2119 -0.0946  0.6526
 6545SOL    HW126240   3.436   0.327  12.089  1.7991 -0.1659 -0.3735
 6545SOL    HW226241   3.388   0.341  11.946 -1.0748  0.2551  0.5626
 6546SOL     OW26242   0.578   2.832   1.413  0.4828  0.1251 -0.2350
 6546SOL    HW126243   0.494   2.788   1.404 -0.8045  2.3037  0.4175
 6546SOL    HW226244   0.615   2.798   1.494 -1.1511  1.2318  1.0188
 6547SOL     OW26245   5.596   3.064   3.581 -0.2395  0.4212 -0.1878
 6547SOL    HW126246   5.526   3.001   3.571 -0.9599  1.3067 -0.9080
 6547SOL    HW226247   5.594   3.087   3.674 -0.7930  0.3045 -0.1677
 6548SOL     OW26248  11.129   4.223   4.853 -0.4008  0.0310  0.5017
 6548SOL    HW126249  11.134   4.277   4.931  2.6501  1.6862 -0.6717
 6548SOL    HW226250  11.184   4.147   4.872  0.3177  0.4184 -0.0072
 6549SOL     OW26251   2.160   6.573   7.770  0.2717  0.0603  0.2416
 6549SOL    HW126252   2.161   6.666   7.751  2.3103 -0.1739 -1.1464
 6549SOL    HW226253   2.152   6.531   7.684  0.9833 -1.0384  0.6815
 6550SOL     OW26254   0.380   1.608   8.955  0.3233 -0.0673  0.0745
 6550SOL    HW126255   0.411   1.689   8.915  0.5947  0.1057  0.6328
 6550SOL    HW226256   0.421   1.606   9.041 -0.6712 -0.1824  0.5585
 6551SOL     OW26257   3.733   7.747  10.582 -0.4132  0.4652 -0.0649
 6551SOL    HW126258   3.701   7.759  10.492  0.2474 -0.9094 -0.5068
 6551SOL    HW226259   3.777   7.662  10.581  0.2844  0.7779  1.3771
 6552SOL     OW26260   1.333   8.173   4.895  0.0470 -0.6724  0.3633
 6552SOL    HW126261   1.243   8.190   4.922 -0.1546 -1.9145  0.5138
 6552SOL    HW226262   1.329   8.091   4.847  1.0393 -0.5332  0.0153
 6553SOL     OW26263   2.326   7.516   4.893  0.0844  0.4583  0.1073
 6553SOL    HW126264   2.282   7.475   4.967  0.2696  0.6659  0.3348
 6553SOL    HW226265   2.369   7.594   4.930 -0.3864  0.9412 -0.3436
 6554SOL     OW26266  10.008   3.152   3.303  0.3013 -0.0529  0.0760
 6554SOL    HW126267   9.979   3.135   3.213 -0.5513  1.3041  0.0668
 6554SOL    HW226268   9.955   3.092   3.356 -2.1932  1.9347 -0.0071
 6555SOL     OW26269   0.754   6.561   2.218  0.1208  0.8200  0.1965
 6555SOL    HW126270   0.810   6.638   2.227 -1.1040  1.6095  1.5414
 6555SOL    HW226271   0.780   6.503   2.289  0.0010  0.6794  0.1265
 6556SOL     OW26272   9.985  11.627  10.360 -0.9433 -0.0274 -0.1707
 6556SOL    HW126273   9.928  11.702  10.345 -1.2986  0.1959  1.9981
 6556SOL    HW226274   9.941  11.577  10.429  1.4892  0.2256  1.6954
 6557SOL     OW26275   8.673   6.606   4.532  0.2610  0.1374  0.1230
 6557SOL    HW126276   8.744   6.665   4.511  1.3701 -1.0631  0.3558
 6557SOL    HW226277   8.607   6.661   4.573 -0.9391  2.1640 -3.9372
 6558SOL     OW26278   6.449  11.337   8.541 -0.2904  0.0535 -0.4129
 6558SOL    HW126279   6.503  11.266   8.507 -0.5487  0.0579 -0.8437
 6558SOL    HW226280   6.509  11.411   8.548 -0.2897  0.1256 -1.1243
 6559SOL     OW26281   2.232   9.652   7.692  0.4561  0.5153  0.2117
 6559SOL    HW126282   2.294   9.580   7.681 -0.5554 -0.5650  1.2574
 6559SOL    HW226283   2.213   9.652   7.786 -0.4830  1.3744  0.0373
 6560SOL     OW26284   5.164   6.840   1.813 -0.5383  0.2294 -0.3054
 6560SOL    HW126285   5.214   6.760   1.829 -1.6509 -1.1528 -3.0621
 6560SOL    HW226286   5.099   6.843   1.882  1.7116  0.7796  1.9353
 6561SOL     OW26287  10.535   5.796   6.679  0.1789 -0.0154 -0.5595
 6561SOL    HW126288  10.453   5.777   6.635  1.4032  0.9982 -3.5293
 6561SOL    HW226289  10.562   5.881   6.645  2.4768 -0.3391  0.2430
 6562SOL     OW26290   2.351   4.435   0.180  0.6632 -0.6947 -0.4024
 6562SOL    HW126291   2.298   4.425   0.102  0.2368  1.5094 -0.4557
 6562SOL    HW226292   2.307   4.382   0.246  0.1500 -1.3303 -1.2344
 6563SOL     OW26293  11.555  10.521  11.104 -0.0938 -0.2254 -0.1477
 6563SOL    HW126294  11.629  10.486  11.154 -0.0438  0.2268  0.1014
 6563SOL    HW226295  11.484  10.529  11.168 -0.2010 -0.1672 -0.2724
 6564SOL     OW26296   1.759   9.077  10.778  0.3694 -0.1387 -0.0412
 6564SOL    HW126297   1.699   9.135  10.732 -0.2979 -1.3578 -0.7526
 6564SOL    HW226298   1.752   9.103  10.870 -1.1210 -0.1324 -0.1364
 6565SOL     OW26299   1.359   3.573  10.015  0.2644  0.1297  0.4541
 6565SOL    HW126300   1.420   3.632   9.971  0.2477  0.1272  0.4272
 6565SOL    HW226301   1.288   3.561   9.952  1.2806 -1.6321 -0.4500
 6566SOL     OW26302  10.386  10.412   4.241  0.0973  0.1358 -0.2264
 6566SOL    HW126303  10.476  10.434   4.265 -0.1400  1.3820 -0.3738
 6566SOL    HW226304  10.388  10.319   4.220  1.3410  0.1407 -0.2043
 6567SOL     OW26305   5.905   7.753   0.555  0.2433 -0.5922  0.3615
 6567SOL    HW126306   5.814   7.764   0.528  0.3201  0.1965  0.4090
 6567SOL    HW226307   5.903   7.756   0.651  0.2072 -1.5299  0.4013
 6568SOL     OW26308   2.800   8.362   5.661  0.0386 -0.3510  0.1667
 6568SOL    HW126309   2.765   8.364   5.750 -1.1887  0.8893 -0.2961
 6568SOL    HW226310   2.788   8.452   5.629  2.4337 -0.2216 -0.5347
 6569SOL     OW26311   7.700  10.694   5.253  0.1776  0.0554 -0.2003
 6569SOL    HW126312   7.623  10.707   5.309 -0.1107  1.0252 -0.8061
 6569SOL    HW226313   7.696  10.765   5.189  2.0519  0.6759  0.2927
 6570SOL     OW26314  11.041   4.343  11.154 -0.1973  0.0168 -0.2923
 6570SOL    HW126315  11.109   4.294  11.200 -0.0989 -0.3093 -0.7785
 6570SOL    HW226316  11.086   4.382  11.079 -0.3697  0.4940 -0.1505
 6571SOL     OW26317   2.302   0.448   1.314  0.3155 -0.0575  0.4904
 6571SOL    HW126318   2.207   0.456   1.309  0.2689  0.4741  1.8525
 6571SOL    HW226319   2.332   0.465   1.225 -0.7566  1.6052  0.4025
 6572SOL     OW26320   8.897   3.961   3.484 -0.5786  0.0006  0.0382
 6572SOL    HW126321   8.952   3.970   3.407 -1.0145  0.3175 -0.2378
 6572SOL    HW226322   8.918   3.874   3.518  1.9228  1.0031  1.3715
 6573SOL     OW26323   3.343   2.178   9.261  0.2210  0.0121  0.1343
 6573SOL    HW126324   3.325   2.263   9.302  0.0582  0.5005 -0.9224
 6573SOL    HW226325   3.286   2.176   9.184 -0.2687 -1.3488  0.5102
 6574SOL     OW26326   4.017   9.507   8.953  0.6484 -0.2474 -0.0059
 6574SOL    HW126327   3.943   9.525   9.011  0.6847 -0.4186  0.0972
 6574SOL    HW226328   4.079   9.577   8.971  0.4557 -0.0260 -0.1904
 6575SOL     OW26329   3.406   4.762  12.080  0.2565  0.3439  0.2745
 6575SOL    HW126330   3.339   4.808  12.030 -0.7151 -0.8328  0.4333
 6575SOL    HW226331   3.480   4.752  12.019 -0.9073 -1.0774 -0.9829
 6576SOL     OW26332   1.507   1.523   0.108 -0.2385 -0.0949  0.9083
 6576SOL    HW126333   1.589   1.475   0.116 -0.0578 -0.3306 -1.5408
 6576SOL    HW226334   1.459   1.478   0.039 -2.0022  0.6639  1.5786
 6577SOL     OW26335  12.058   6.001   5.029 -0.3910  0.4502  0.1223
 6577SOL    HW126336  12.084   6.005   5.121  1.1041 -0.9909 -0.1943
 6577SOL    HW226337  12.127   6.048   4.982  0.0750 -0.7270 -0.4335
 6578SOL     OW26338   0.266  10.127   3.986 -0.2639 -0.1520  0.8174
 6578SOL    HW126339   0.198  10.193   3.989 -1.4043 -1.1511 -1.0999
 6578SOL    HW226340   0.322  10.153   3.913  0.6414 -0.0772  1.5192
 6579SOL     OW26341   0.328   1.422   0.309 -0.5020  0.1004 -0.4358
 6579SOL    HW126342   0.405   1.425   0.251 -0.6821  1.5025 -0.6340
 6579SOL    HW226343   0.364   1.438   0.396 -0.2857 -1.5943 -0.1854
 6580SOL     OW26344   9.103  12.177  11.107  0.6996 -0.1501 -0.0184
 6580SOL    HW126345   9.193  12.208  11.115  1.2652 -0.9875 -2.4464
 6580SOL    HW226346   9.111  12.082  11.097 -0.4392 -0.2152 -0.4437
 6581SOL     OW26347  10.452   1.223   5.840  0.1827 -0.0569  0.2481
 6581SOL    HW126348  10.376   1.195   5.789 -1.1431  0.6437  1.7507
 6581SOL    HW226349  10.428   1.309   5.874  1.9262  0.4677  0.2524
 6582SOL     OW26350   6.104   5.847   7.628 -0.0026 -0.7769 -0.1749
 6582SOL    HW126351   6.123   5.921   7.571  0.4458 -0.6879  0.0786
 6582SOL    HW226352   6.042   5.881   7.692 -0.1133 -0.7355 -0.3040
 6583SOL     OW26353  10.976   2.178   6.554  0.2557 -0.1542  0.6692
 6583SOL    HW126354  11.018   2.093   6.566 -0.2585 -0.7059 -1.1785
 6583SOL    HW226355  10.926   2.170   6.473 -0.0285  1.8310  0.5843
 6584SOL     OW26356   7.052  10.619  10.849  0.1102 -0.2660 -0.5821
 6584SOL    HW126357   7.072  10.695  10.903  3.0740 -0.8922 -0.6381
 6584SOL    HW226358   6.965  10.637  10.814  0.0918  2.3779  0.5842
 6585SOL     OW26359   3.344   1.647   4.620 -0.2512 -0.2491 -0.5151
 6585SOL    HW126360   3.341   1.594   4.540  1.7199 -1.5206  0.1510
 6585SOL    HW226361   3.286   1.720   4.604 -1.5357 -1.5865 -2.2900
 6586SOL     OW26362  10.675  10.054   2.327  0.2408  0.0843  0.2544
 6586SOL    HW126363  10.699  10.147   2.331  0.3334  0.0833 -0.1509
 6586SOL    HW226364  10.756  10.007   2.346 -0.0695  0.0858  1.6197
 6587SOL     OW26365   9.562  10.455   1.068  0.4177  0.1440  0.2514
 6587SOL    HW126366   9.495  10.513   1.032 -1.4375 -1.3750  1.0359
 6587SOL    HW226367   9.624  10.514   1.112 -0.6137  1.6016 -0.1642
 6588SOL     OW26368  12.654   8.962  11.981  0.0742  0.4926 -0.8065
 6588SOL    HW126369  12.576   8.914  11.956  0.2898 -0.4221  0.2353
 6588SOL    HW226370  12.727   8.902  11.963  0.4279  0.8025 -0.4440
 6589SOL     OW26371  12.616  12.551  12.262 -0.6445 -0.1884 -0.5500
 6589SOL    HW126372  12.709  12.532  12.276 -0.5807  1.8344  2.8208
 6589SOL    HW226373  12.613  12.645  12.243 -1.9942 -0.3586 -1.3136
 6590SOL     OW26374  10.249   8.261  11.920 -0.3553 -0.0459 -0.5828
 6590SOL    HW126375  10.277   8.332  11.862  0.9513 -0.4027 -0.4136
 6590SOL    HW226376  10.211   8.196  11.861  0.1317 -0.0072 -0.9447
 6591SOL     OW26377   5.876   6.897  11.890  0.3392 -0.3975  0.5731
 6591SOL    HW126378   5.797   6.909  11.942  0.4933 -0.0286  0.7236
 6591SOL    HW226379   5.847   6.905  11.799  0.2102 -0.2481  0.6283
 6592SOL     OW26380  11.678   1.271   2.057 -1.0517  0.1084  0.4248
 6592SOL    HW126381  11.604   1.268   2.117 -0.2724 -0.7990  1.3628
 6592SOL    HW226382  11.716   1.358   2.069 -1.7390  0.4487  0.1892
 6593SOL     OW26383   4.798   6.850   5.861  0.1077 -0.4217  0.1948
 6593SOL    HW126384   4.768   6.850   5.771 -0.2336 -1.5240  0.2927
 6593SOL    HW226385   4.842   6.934   5.872 -1.2370  0.4095 -0.5201
 6594SOL     OW26386   5.547   0.160   1.427  0.0072  0.2228  0.3832
 6594SOL    HW126387   5.558   0.210   1.507  0.4926 -0.5431  0.8079
 6594SOL    HW226388   5.571   0.070   1.451 -1.6127 -0.3839 -0.1504
 6595SOL     OW26389   1.640   8.806   0.620  0.3034 -0.0502  0.0428
 6595SOL    HW126390   1.697   8.781   0.693 -0.5929  0.0461  0.7905
 6595SOL    HW226391   1.554   8.816   0.659 -0.4783 -1.2695 -1.2421
 6596SOL     OW26392   0.818   8.706   3.090 -0.0822  0.3350  0.0526
 6596SOL    HW126393   0.844   8.624   3.131  1.5042  1.5623  1.6490
 6596SOL    HW226394   0.752   8.743   3.149 -0.1438  0.6246 -0.1911
 6597SOL     OW26395   9.882   3.839   3.463  0.6580  0.1502 -0.0365
 6597SOL    HW126396   9.849   3.779   3.396 -1.7027 -1.2456  2.1834
 6597SOL    HW226397   9.935   3.783   3.520  0.7114  0.7920  0.5556
 6598SOL     OW26398   1.058   1.350  10.368 -0.1470 -0.1977  0.2231
 6598SOL    HW126399   0.985   1.359  10.429  0.7911  0.5149  1.2982
 6598SOL    HW226400   1.074   1.439  10.337 -0.6745 -0.5673 -1.1663
 6599SOL     OW26401   3.537   0.556   2.204 -0.3243 -0.9524  0.1363
 6599SOL    HW126402   3.504   0.544   2.115 -0.1974  0.2713 -0.1021
 6599SOL    HW226403   3.632   0.567   2.193 -0.6248  3.1355 -0.1384
 6600SOL     OW26404   1.812  11.586   1.362 -0.1175  0.1096  0.3317
 6600SOL    HW126405   1.786  11.656   1.302  0.5049  1.1200  1.2070
 6600SOL    HW226406   1.846  11.517   1.305 -0.1068  0.7966 -0.5085
 6601SOL     OW26407   8.755   8.308  12.448  0.8429  0.0295  0.0486
 6601SOL    HW126408   8.851   8.318  12.447  0.9279 -0.5693 -1.5789
 6601SOL    HW226409   8.740   8.218  12.419 -0.2079 -0.5367  2.1654
 6602SOL     OW26410  11.346   6.421   1.171 -0.2895 -0.0732 -0.4536
 6602SOL    HW126411  11.428   6.433   1.122  0.7021  0.7120  1.3190
 6602SOL    HW226412  11.322   6.330   1.155  0.8701 -0.2872 -1.1063
 6603SOL     OW26413   5.614   6.047   2.242 -0.2038 -0.4603 -0.1391
 6603SOL    HW126414   5.623   5.996   2.323 -0.5319 -0.8822 -0.3695
 6603SOL    HW226415   5.521   6.071   2.240 -0.5963 -1.9511 -1.2879
 6604SOL     OW26416   0.806   4.458   1.014  0.0241  0.1763 -0.0693
 6604SOL    HW126417   0.772   4.515   0.946 -1.4124 -3.7746 -3.0200
 6604SOL    HW226418   0.740   4.461   1.083 -0.1758  1.7257 -0.2902
 6605SOL     OW26419  11.466   4.037   3.348 -0.1002 -0.3470  0.1689
 6605SOL    HW126420  11.466   4.133   3.351  0.1850 -0.2938 -0.8773
 6605SOL    HW226421  11.471   4.009   3.439 -1.7206  0.6186  0.6004
 6606SOL     OW26422  12.275  10.747   8.779 -0.0604 -0.1067 -0.0443
 6606SOL    HW126423  12.328  10.826   8.780  1.9250 -1.3675  0.4732
 6606SOL    HW226424  12.268  10.722   8.871 -2.4853  0.5555  0.0138
 6607SOL     OW26425   7.123   4.001  11.352  0.1880 -0.0376 -0.1768
 6607SOL    HW126426   7.113   4.021  11.445  1.1400 -2.2040  0.4671
 6607SOL    HW226427   7.037   3.966  11.325 -1.1121  3.3719 -1.0221
 6608SOL     OW26428   2.473   6.042   3.109  0.1561 -0.0919 -0.1119
 6608SOL    HW126429   2.543   5.994   3.065  1.0029  0.4521  0.6242
 6608SOL    HW226430   2.453   5.989   3.187  0.9936  0.6544  0.6269
 6609SOL     OW26431   5.737   3.425   7.832  0.3245 -0.0072 -0.4518
 6609SOL    HW126432   5.803   3.493   7.821  0.1610  0.3640  0.6541
 6609SOL    HW226433   5.656   3.473   7.847  0.0585 -0.4522 -0.4447
 6610SOL     OW26434   3.868   8.804   5.102 -0.2075  0.3279  0.2466
 6610SOL    HW126435   3.832   8.799   5.014  1.2935  2.4041 -0.5633
 6610SOL    HW226436   3.920   8.725   5.112 -0.5500 -0.0191 -0.6415
 6611SOL     OW26437   1.221   0.407   8.665 -0.0356 -0.0004  0.0416
 6611SOL    HW126438   1.283   0.336   8.650  0.1442  0.2093 -0.2256
 6611SOL    HW226439   1.219   0.418   8.760 -0.0557 -0.3528  0.0831
 6612SOL     OW26440   4.608   7.490   4.531  0.0507  0.1671  0.1003
 6612SOL    HW126441   4.651   7.518   4.450 -0.0447  2.1358  0.6825
 6612SOL    HW226442   4.516   7.476   4.505  0.1698  0.0393 -0.2671
 6613SOL     OW26443  10.373   6.173   2.332 -0.2394  0.2435 -0.3759
 6613SOL    HW126444  10.317   6.098   2.353  2.7886 -1.5606  1.9234
 6613SOL    HW226445  10.433   6.140   2.265  0.0295  1.2078 -0.6291
 6614SOL     OW26446  11.158   8.533   0.808 -0.3098  0.3404  1.0583
 6614SOL    HW126447  11.221   8.565   0.743  0.7786 -0.3245  1.7549
 6614SOL    HW226448  11.210   8.520   0.887 -1.1293 -1.1473  1.3840
 6615SOL     OW26449   9.292   3.598   5.937  0.0061 -0.2818 -0.5596
 6615SOL    HW126450   9.341   3.558   5.865 -0.5729 -3.4283  0.6275
 6615SOL    HW226451   9.355   3.600   6.010  0.4204  2.3575 -0.8952
 6616SOL     OW26452   0.077   2.282   9.500  0.1546  0.5816 -0.1881
 6616SOL    HW126453   0.086   2.357   9.441 -2.4456  0.7625 -0.4480
 6616SOL    HW226454   0.152   2.290   9.560  1.3564  1.8971 -1.7704
 6617SOL     OW26455   1.469   9.112  11.447  0.1106 -0.8564 -0.2752
 6617SOL    HW126456   1.436   9.100  11.536 -0.1930  0.8264 -0.1206
 6617SOL    HW226457   1.396   9.149  11.398  0.5503 -0.9056 -0.9912
 6618SOL     OW26458  12.080   4.729   3.850 -0.1763  0.4190  0.0689
 6618SOL    HW126459  12.152   4.713   3.789 -0.9901 -0.3242 -0.7236
 6618SOL    HW226460  12.060   4.822   3.839 -1.4315 -0.0541 -2.0942
 6619SOL     OW26461   4.901   9.217   0.297  0.2263 -0.3187 -0.0161
 6619SOL    HW126462   4.827   9.222   0.236 -0.0435 -1.8707  0.1670
 6619SOL    HW226463   4.923   9.309   0.314 -1.5384  0.1706 -0.1988
 6620SOL     OW26464   6.457   2.421   7.127  0.7044  0.4389  0.4998
 6620SOL    HW126465   6.415   2.376   7.054 -1.3547  1.1200  1.1790
 6620SOL    HW226466   6.507   2.353   7.172  1.6235 -0.0881 -1.2317
 6621SOL     OW26467  11.196   9.630   7.191 -0.3159  0.1611  0.1417
 6621SOL    HW126468  11.217   9.627   7.097 -0.2368  0.3258  0.1537
 6621SOL    HW226469  11.105   9.659   7.193  0.2483  2.0753  0.1683
 6622SOL     OW26470   2.454   5.609   1.091 -0.4038 -0.2060 -0.1375
 6622SOL    HW126471   2.363   5.580   1.099 -0.2518 -0.3643  1.3176
 6622SOL    HW226472   2.488   5.605   1.181  1.4514 -1.5050 -0.8551
 6623SOL     OW26473  12.175   5.407   1.070 -0.4275 -0.1736  0.1838
 6623SOL    HW126474  12.130   5.421   0.986  1.2908  0.0762 -0.7558
 6623SOL    HW226475  12.231   5.484   1.080 -0.3812 -0.3539  1.4289
 6624SOL     OW26476   9.376  12.623   4.437 -0.2361  0.4794 -0.5461
 6624SOL    HW126477   9.344  12.540   4.474 -1.2491  1.0138 -0.1827
 6624SOL    HW226478   9.380  12.682   4.512  1.3526  0.5335 -0.6408
 6625SOL     OW26479   1.657   7.372   7.972  0.1629  0.7306  0.0104
 6625SOL    HW126480   1.666   7.392   8.065  0.3654  0.6536  0.0079
 6625SOL    HW226481   1.580   7.421   7.944  0.1880  0.8688  0.1857
 6626SOL     OW26482  10.536   2.264   5.464 -0.4119 -0.7399  0.3472
 6626SOL    HW126483  10.597   2.322   5.509 -1.5827 -0.8755  2.2104
 6626SOL    HW226484  10.586   2.230   5.390  0.7691  1.4860  0.0220
 6627SOL     OW26485  12.115   0.005   7.905 -0.2771  0.7313  0.2706
 6627SOL    HW126486  12.180   0.059   7.861 -1.2927  0.9433 -1.0383
 6627SOL    HW226487  12.115   0.036   7.995  1.5597  0.5804  0.3714
 6628SOL     OW26488   6.038  10.132   7.953 -0.2900 -0.0888 -0.1782
 6628SOL    HW126489   5.954  10.137   7.999 -0.5883 -1.3886 -0.5267
 6628SOL    HW226490   6.061  10.222   7.933 -0.3280  0.5116  2.2002
 6629SOL     OW26491   3.128   1.840   0.206 -0.0587  0.2536  0.6490
 6629SOL    HW126492   3.159   1.773   0.145 -0.2247  1.0574 -0.3425
 6629SOL    HW226493   3.130   1.922   0.156  1.7176  1.3190  2.3045
 6630SOL     OW26494   0.968  11.145   3.794 -0.0055 -0.2959 -0.1470
 6630SOL    HW126495   1.010  11.134   3.879 -1.1769 -0.8533  0.3708
 6630SOL    HW226496   0.875  11.136   3.812 -0.3116  0.2659 -1.3847
 6631SOL     OW26497   5.910   2.633   3.534  0.1610 -0.1307  0.3402
 6631SOL    HW126498   5.967   2.708   3.515  0.2962 -0.2426  0.3003
 6631SOL    HW226499   5.837   2.643   3.474 -0.1365  0.3173  0.7727
 6632SOL     OW26500   3.717   5.664   6.526 -0.2508 -0.0441 -0.2358
 6632SOL    HW126501   3.641   5.611   6.503  0.3096 -0.6977 -0.6286
 6632SOL    HW226502   3.789   5.626   6.476  0.7269 -0.6045  1.5155
 6633SOL     OW26503   6.722   1.572   4.549  0.1317 -0.2607  0.3213
 6633SOL    HW126504   6.641   1.583   4.599 -0.9970 -0.2967 -1.4105
 6633SOL    HW226505   6.717   1.483   4.514  1.5490 -0.7215  1.1967
 6634SOL     OW26506  10.297   6.730   9.346  0.4674 -0.5390  0.0165
 6634SOL    HW126507  10.308   6.775   9.429 -1.1293  0.4388 -0.2687
 6634SOL    HW226508  10.346   6.783   9.283  3.0753 -2.1559  0.5153
 6635SOL     OW26509  10.620   5.330   9.857  0.4224  0.3769  0.3070
 6635SOL    HW126510  10.653   5.384   9.928 -1.1863 -0.3159  1.6571
 6635SOL    HW226511  10.595   5.392   9.789  2.5129  1.0207  0.0614
 6636SOL     OW26512   7.066   6.984   2.981 -0.0474  0.3915  0.0097
 6636SOL    HW126513   7.020   6.966   2.899 -0.8963 -0.9927  0.7513
 6636SOL    HW226514   7.087   6.897   3.016  0.9010  0.9732  0.9304
 6637SOL     OW26515  11.054   9.704   8.761  0.0431 -0.0237  0.3861
 6637SOL    HW126516  11.075   9.741   8.847 -0.8245 -1.1778  1.1384
 6637SOL    HW226517  11.087   9.614   8.765  1.2061  0.3114 -1.0178
 6638SOL     OW26518   4.585   1.598   9.264  0.2874 -0.2954  0.6524
 6638SOL    HW126519   4.549   1.632   9.182 -0.3936 -1.3066  0.5147
 6638SOL    HW226520   4.652   1.535   9.237  1.4909  0.8424  0.9017
 6639SOL     OW26521   7.552   2.926   5.020  0.3819 -0.0720 -0.2568
 6639SOL    HW126522   7.553   2.852   5.081  3.4988  1.7630  2.2010
 6639SOL    HW226523   7.641   2.930   4.985 -0.4260  1.0218 -2.3407
 6640SOL     OW26524  10.643  10.756   6.849  0.1919 -0.4540  0.2944
 6640SOL    HW126525  10.696  10.679   6.869 -0.3131 -1.3430 -1.5251
 6640SOL    HW226526  10.567  10.722   6.802 -0.5695  1.0633  0.3374
 6641SOL     OW26527   7.717  11.933   1.981 -0.1329  0.4584 -0.0933
 6641SOL    HW126528   7.739  12.026   1.992  2.1069 -0.1406  0.9538
 6641SOL    HW226529   7.775  11.902   1.913 -0.1939 -0.3929  0.2271
 6642SOL     OW26530   0.053   8.085   4.892 -0.5368  0.2939  0.5497
 6642SOL    HW126531   0.093   8.172   4.898  0.2932 -0.0977  0.9896
 6642SOL    HW226532  -0.031   8.093   4.937 -1.1321  1.2347 -0.7064
 6643SOL     OW26533  11.810   3.625   5.350  0.1877  0.1938 -0.0302
 6643SOL    HW126534  11.800   3.689   5.420 -1.9468 -0.0518 -0.0703
 6643SOL    HW226535  11.820   3.541   5.394 -1.4091  0.0061  0.0032
 6644SOL     OW26536   0.795   4.504  12.250  0.3397  0.0862  0.2208
 6644SOL    HW126537   0.759   4.463  12.171 -0.6264 -0.3167  0.8575
 6644SOL    HW226538   0.761   4.593  12.248  0.4054  0.1106  0.1366
 6645SOL     OW26539  11.760   5.230   8.793  0.1062 -0.0661 -0.4900
 6645SOL    HW126540  11.670   5.226   8.827 -0.1514 -0.0230 -1.1476
 6645SOL    HW226541  11.803   5.295   8.849 -0.7697  1.2230 -1.2361
 6646SOL     OW26542   9.430   2.342   9.973  0.4954  0.0442  0.3817
 6646SOL    HW126543   9.494   2.360  10.042 -1.2286 -1.4741  2.5312
 6646SOL    HW226544   9.433   2.247   9.962 -1.1552 -0.0270  0.3286
 6647SOL     OW26545   5.063   2.160  10.244 -0.0372  0.1874 -0.6131
 6647SOL    HW126546   5.125   2.115  10.187 -0.6534 -0.4918 -0.7574
 6647SOL    HW226547   5.055   2.248  10.207  1.4517  0.5520 -0.1245
 6648SOL     OW26548  10.446  11.630   6.734 -0.3563 -0.1666  0.7008
 6648SOL    HW126549  10.431  11.724   6.747  0.1025 -0.1173  0.8772
 6648SOL    HW226550  10.394  11.608   6.657  0.8661  0.5863 -0.3734
 6649SOL     OW26551   3.708  11.641   5.812  0.0085 -0.1534  0.3805
 6649SOL    HW126552   3.696  11.649   5.717  1.1287  0.3728  0.2746
 6649SOL    HW226553   3.619  11.626   5.845 -0.4089 -0.3000 -0.7394
 6650SOL     OW26554   3.476  12.225  11.067  0.4115 -0.3884 -0.0934
 6650SOL    HW126555   3.551  12.194  11.118 -0.5401 -1.3579  0.7801
 6650SOL    HW226556   3.411  12.249  11.133 -0.6426 -1.1308 -0.8195
 6651SOL     OW26557   7.670   2.355  10.120 -0.9767 -0.1597  0.3572
 6651SOL    HW126558   7.723   2.285  10.158 -1.2199 -0.3866  0.2787
 6651SOL    HW226559   7.580   2.330  10.138 -1.0562  0.2755  0.5761
 6652SOL     OW26560   5.638  11.162   1.255 -0.3704  0.3294 -0.6966
 6652SOL    HW126561   5.642  11.125   1.343 -1.6950  0.6620 -0.4762
 6652SOL    HW226562   5.674  11.250   1.263  2.0833 -0.5675 -1.0708
 6653SOL     OW26563   4.341   4.120  10.842 -0.7108 -0.5496  0.0029
 6653SOL    HW126564   4.411   4.070  10.885 -1.0147  0.7631  2.2115
 6653SOL    HW226565   4.368   4.124  10.750  1.5885 -0.9625  0.5793
 6654SOL     OW26566   7.233   2.099   3.825  0.3807  0.0179  0.0905
 6654SOL    HW126567   7.242   2.006   3.844 -1.4108 -0.2137 -0.0498
 6654SOL    HW226568   7.201   2.103   3.735  0.2175  0.7539  0.1681
 6655SOL     OW26569   7.360  11.540   1.956 -0.3723  0.5802  0.0809
 6655SOL    HW126570   7.380  11.610   1.894 -3.5013  2.8264  1.3419
 6655SOL    HW226571   7.436  11.537   2.014  1.5911  0.0332 -2.3660
 6656SOL     OW26572   6.768   8.998   5.810 -0.4086  0.2597 -0.5302
 6656SOL    HW126573   6.739   8.912   5.842 -2.2942  0.7097 -0.8986
 6656SOL    HW226574   6.813   8.979   5.727 -0.6390 -0.3932 -0.5085
 6657SOL     OW26575   4.735  11.312   8.844  0.0492 -0.3498  0.0605
 6657SOL    HW126576   4.701  11.224   8.858 -1.2408 -0.1539 -1.4954
 6657SOL    HW226577   4.719  11.357   8.927 -1.4983 -0.9280  0.1141
 6658SOL     OW26578  10.037   4.005   3.277  0.0030 -0.8599 -0.1486
 6658SOL    HW126579  10.072   3.939   3.217  2.1099 -0.8028  0.9199
 6658SOL    HW226580  10.030   3.959   3.361  3.6442  0.6532  1.2035
 6659SOL     OW26581   2.087   3.042   7.081  0.1945  0.0446  0.2781
 6659SOL    HW126582   2.102   2.950   7.061 -0.3861  0.3298 -1.6360
 6659SOL    HW226583   2.018   3.069   7.021  1.7872  2.2553 -0.7006
 6660SOL     OW26584   0.608   0.846   0.990  0.2834  0.4438 -0.2226
 6660SOL    HW126585   0.649   0.832   0.905 -2.1192 -1.1760 -1.2390
 6660SOL    HW226586   0.595   0.759   1.026  1.6136  1.1197  2.0573
 6661SOL     OW26587   0.422   0.397   1.296  0.1897 -0.3003  0.1752
 6661SOL    HW126588   0.354   0.437   1.350  0.7628  0.2021  0.5410
 6661SOL    HW226589   0.400   0.424   1.207  0.2367  0.3512  0.3559
 6662SOL     OW26590   5.529  11.804   2.381  0.3995 -0.9027 -0.1761
 6662SOL    HW126591   5.560  11.759   2.302 -0.3729  0.2346 -1.1665
 6662SOL    HW226592   5.605  11.852   2.413  0.3969 -0.3696 -0.9588
 6663SOL     OW26593   3.904   6.094   9.242 -0.7644  0.4136  0.0223
 6663SOL    HW126594   3.849   6.151   9.187  2.4781  1.9943 -1.8784
 6663SOL    HW226595   3.952   6.155   9.297 -0.6026 -0.8869  1.3624
 6664SOL     OW26596  11.819   1.153  12.313 -0.7205  0.2255 -0.7800
 6664SOL    HW126597  11.761   1.135  12.239 -0.6482  1.1286 -1.0653
 6664SOL    HW226598  11.899   1.189  12.273  1.9552 -4.8369 -0.8711
 6665SOL     OW26599   7.564   8.485   0.968 -0.1905 -0.8385  0.5554
 6665SOL    HW126600   7.537   8.403   1.008 -0.6711 -1.1023 -0.2742
 6665SOL    HW226601   7.505   8.495   0.893 -0.8580  0.7891  1.2534
 6666SOL     OW26602   5.326   8.975   1.615 -0.0666 -0.3726  0.1131
 6666SOL    HW126603   5.326   9.040   1.544  2.1966 -0.6921 -0.2418
 6666SOL    HW226604   5.410   8.986   1.658  0.1409 -2.6632  0.4190
 6667SOL     OW26605   2.663  11.844  11.478  0.0694 -0.2331 -0.2692
 6667SOL    HW126606   2.629  11.773  11.424 -1.4085  0.3383 -0.1588
 6667SOL    HW226607   2.670  11.807  11.566  1.7636 -0.9522 -0.6872
 6668SOL     OW26608   2.034   1.667  10.630 -0.6378  0.2811  0.2899
 6668SOL    HW126609   2.054   1.713  10.549 -0.9588  0.9771  0.5946
 6668SOL    HW226610   2.033   1.735  10.697  0.5261 -0.4147  1.0421
 6669SOL     OW26611   7.828   9.386   9.842  0.3437  0.1324  0.4329
 6669SOL    HW126612   7.903   9.334   9.812 -0.1452 -1.3276  1.6006
 6669SOL    HW226613   7.778   9.403   9.762 -0.2027 -2.4739  0.1190
 6670SOL     OW26614   4.747   2.296   3.443  0.5437  0.6466  0.2888
 6670SOL    HW126615   4.729   2.214   3.488 -0.5780  1.0714  0.6648
 6670SOL    HW226616   4.666   2.347   3.453  0.3546  0.8736 -1.9653
 6671SOL     OW26617   4.656   4.231  11.617  0.0023  0.2159 -0.5771
 6671SOL    HW126618   4.623   4.313  11.654 -1.9857  0.2142 -2.1675
 6671SOL    HW226619   4.697   4.186  11.691  1.5940  2.8213  0.2206
 6672SOL     OW26620   8.338   7.540   9.020 -0.1975 -0.4090 -0.1362
 6672SOL    HW126621   8.398   7.467   9.036  0.0023 -0.2615 -0.2076
 6672SOL    HW226622   8.326   7.580   9.106  0.2420 -0.1039 -0.2152
 6673SOL     OW26623   1.691   8.047   4.721 -0.0156 -0.1588  0.7603
 6673SOL    HW126624   1.661   8.113   4.657 -0.4418 -0.1133  1.0072
 6673SOL    HW226625   1.690   7.965   4.672 -0.4421 -0.1418  0.7349
 6674SOL     OW26626   1.263   8.200   0.754 -0.0740 -0.3935  0.1465
 6674SOL    HW126627   1.349   8.174   0.787 -0.6613 -0.5037  1.6551
 6674SOL    HW226628   1.224   8.250   0.825 -0.1889  2.1001 -1.5255
 6675SOL     OW26629   4.081   3.214   4.459 -0.0233 -0.4260  0.3239
 6675SOL    HW126630   4.170   3.189   4.436  0.1667 -0.0702  0.6522
 6675SOL    HW226631   4.027   3.137   4.438  0.3135 -0.5302 -0.1664
 6676SOL     OW26632   4.386   5.728   5.572 -0.2979 -0.4268 -0.1023
 6676SOL    HW126633   4.372   5.785   5.497 -1.8530  0.3702  0.7427
 6676SOL    HW226634   4.386   5.787   5.648  1.1520 -1.2151  0.5624
 6677SOL     OW26635   2.987  11.813   1.055  0.2536 -0.0668  0.0376
 6677SOL    HW126636   2.957  11.901   1.031  0.0385 -0.1324  0.0651
 6677SOL    HW226637   3.079  11.811   1.028  0.2957  0.2109  0.1557
 6678SOL     OW26638   3.139   6.534   9.484  0.3673 -0.0895  0.3269
 6678SOL    HW126639   3.106   6.624   9.488 -0.0377 -0.1693 -0.8945
 6678SOL    HW226640   3.231   6.544   9.462  0.5155  0.0501  1.0004
 6679SOL     OW26641   6.902   0.564  12.631  0.0190 -0.7246  0.1296
 6679SOL    HW126642   6.918   0.645  12.584 -1.2335 -0.6311 -0.1699
 6679SOL    HW226643   6.842   0.588  12.702 -0.6928 -1.4438 -0.2045
 6680SOL     OW26644  12.595   7.650   0.133 -0.1447 -0.0386 -0.0267
 6680SOL    HW126645  12.531   7.705   0.089 -0.3925 -0.4158 -0.1391
 6680SOL    HW226646  12.543   7.589   0.185  0.1424  0.4896  0.8996
 6681SOL     OW26647   3.479   7.680   6.080 -0.7403  0.3187  0.1995
 6681SOL    HW126648   3.490   7.771   6.106 -0.0213 -0.0912  1.4080
 6681SOL    HW226649   3.409   7.647   6.135  0.3558 -0.3802  1.2367
 6682SOL     OW26650   7.072   5.120  10.237  0.1597  0.2130 -0.9110
 6682SOL    HW126651   7.078   5.114  10.333  2.0818  0.4310 -0.9772
 6682SOL    HW226652   7.108   5.207  10.217  1.1275 -0.3816 -1.8943
 6683SOL     OW26653   7.464   5.464  11.705  0.4684 -0.3897  0.8163
 6683SOL    HW126654   7.422   5.530  11.760 -0.8114  1.3133 -2.0042
 6683SOL    HW226655   7.396   5.435  11.645  1.8602 -1.9367 -0.1161
 6684SOL     OW26656   1.733   6.225   4.629 -0.4579 -0.4767 -0.2943
 6684SOL    HW126657   1.646   6.209   4.664  0.1768 -0.8893  1.1807
 6684SOL    HW226658   1.757   6.312   4.662  0.0233 -0.7290  0.0299
 6685SOL     OW26659   6.839   8.887   7.237 -0.3898 -0.6919  0.3718
 6685SOL    HW126660   6.797   8.803   7.219  3.1017 -2.6759  0.5982
 6685SOL    HW226661   6.810   8.910   7.325  0.7709 -3.2337  1.5115
 6686SOL     OW26662  10.696   5.692  11.488  0.3248 -0.1746  0.2244
 6686SOL    HW126663  10.737   5.738  11.414  1.3261  0.3604  1.0820
 6686SOL    HW226664  10.768   5.645  11.530 -0.0538  0.2242  1.3609
 6687SOL     OW26665   5.556   5.537   0.001 -0.1470 -0.1685 -0.3323
 6687SOL    HW126666   5.474   5.502   0.036  0.9827 -1.4721  1.1614
 6687SOL    HW226667   5.560   5.503  -0.089 -0.9651 -0.6008 -0.2117
 6688SOL     OW26668   2.037   3.511   9.910  0.0713  0.3678 -0.6610
 6688SOL    HW126669   1.958   3.459   9.894  0.0923  0.3533 -0.7164
 6688SOL    HW226670   2.045   3.567   9.833 -0.4623  1.1043 -0.1893
 6689SOL     OW26671   4.979   8.279   0.100 -0.2879  0.1630  0.6356
 6689SOL    HW126672   4.996   8.320   0.015 -0.1237  1.2421  1.1703
 6689SOL    HW226673   5.062   8.239   0.125 -0.0360  0.7611  0.7667
 6690SOL     OW26674   1.675   9.588  12.721  0.2194  0.4074 -0.5266
 6690SOL    HW126675   1.586   9.563  12.748 -0.2054  1.8401 -0.5459
 6690SOL    HW226676   1.662   9.643  12.644  1.2584 -1.0198 -1.7881
 6691SOL     OW26677   8.606   7.442   5.598  0.3780 -0.1226 -0.5512
 6691SOL    HW126678   8.665   7.516   5.585  0.7957 -0.2582  0.4973
 6691SOL    HW226679   8.608   7.426   5.693 -0.7038 -0.6520 -0.6055
 6692SOL     OW26680   1.966   1.139   0.446 -0.4588 -0.3423  0.3119
 6692SOL    HW126681   1.978   1.049   0.475  2.0435 -0.1373  0.1317
 6692SOL    HW226682   1.891   1.172   0.497 -0.6200 -2.1186  1.2818
 6693SOL     OW26683   4.850   6.746   3.724  0.1570  0.2720 -0.1367
 6693SOL    HW126684   4.885   6.771   3.810  0.1185  1.9380 -0.5748
 6693SOL    HW226685   4.927   6.728   3.671  0.2474  0.7113 -0.1617
 6694SOL     OW26686   1.290  12.000  12.735 -0.1225 -0.3151 -0.1133
 6694SOL    HW126687   1.225  11.961  12.676  0.0442  1.7030 -1.7078
 6694SOL    HW226688   1.331  11.924  12.778 -1.9496 -1.7338 -0.7339
 6695SOL     OW26689   5.562   0.861   7.884  0.5693  0.4049 -0.5410
 6695SOL    HW126690   5.589   0.929   7.946 -0.1495  0.0765  0.1525
 6695SOL    HW226691   5.513   0.907   7.817 -2.3758  0.3174  1.3756
 6696SOL     OW26692   1.672  11.955   2.877 -0.1982 -0.5450 -0.5201
 6696SOL    HW126693   1.684  11.924   2.967  1.0375  0.5748 -0.2760
 6696SOL    HW226694   1.602  11.900   2.843 -0.6677 -1.0242  1.1088
 6697SOL     OW26695   0.770   4.530   8.491  0.0538 -0.0431  0.1816
 6697SOL    HW126696   0.803   4.506   8.405 -1.2263 -2.4227  0.2785
 6697SOL    HW226697   0.685   4.570   8.474  0.9683  2.0319  0.2198
 6698SOL     OW26698   8.458   2.178   5.395 -0.2591 -0.3921 -0.0196
 6698SOL    HW126699   8.386   2.221   5.441  1.7054  1.3850  1.6122
 6698SOL    HW226700   8.508   2.250   5.356  0.2977 -1.6136 -1.7291
 6699SOL     OW26701   7.400   1.330   4.570  0.2509 -0.3256  0.2146
 6699SOL    HW126702   7.494   1.345   4.556 -0.2265  1.8789 -1.2355
 6699SOL    HW226703   7.382   1.249   4.522  1.2652 -0.2850 -0.2743
 6700SOL     OW26704   4.245   2.501   7.786  0.2129  0.0491  0.2343
 6700SOL    HW126705   4.199   2.579   7.756  0.8549  0.3533  0.0319
 6700SOL    HW226706   4.192   2.469   7.859 -1.3206 -0.6384 -1.0984
 6701SOL     OW26707   8.077   2.858   7.193  0.4358  0.0618  0.7732
 6701SOL    HW126708   8.146   2.792   7.198  1.5470  1.2211  1.3739
 6701SOL    HW226709   8.083   2.905   7.276 -0.4158  0.8279  0.4161
 6702SOL     OW26710   0.199   6.618  11.235 -0.1529  0.4839 -0.0564
 6702SOL    HW126711   0.150   6.584  11.160 -1.3691  0.2074  0.8184
 6702SOL    HW226712   0.213   6.541  11.291 -0.3342  0.8900  0.5604
 6703SOL     OW26713   3.287  10.957   8.960 -0.3523 -0.0007 -0.1433
 6703SOL    HW126714   3.367  10.923   9.002 -0.6573 -1.9663 -1.0401
 6703SOL    HW226715   3.238  10.879   8.936 -2.4679  1.1758  0.1721
 6704SOL     OW26716   8.755  12.750   0.889 -0.5253 -0.1839 -0.7304
 6704SOL    HW126717   8.845  12.733   0.917 -0.3099 -0.5176 -1.5906
 6704SOL    HW226718   8.764  12.820   0.824 -0.8403 -0.4977 -1.1125
 6705SOL     OW26719   9.207   0.359  11.577 -0.3331 -0.4090  0.0212
 6705SOL    HW126720   9.287   0.391  11.618 -0.7175 -0.1176  0.5520
 6705SOL    HW226721   9.209   0.264  11.592  0.1492 -0.4714 -0.3983
 6706SOL     OW26722   5.231   2.832  11.334 -0.6487 -0.0600  0.1894
 6706SOL    HW126723   5.161   2.856  11.395 -0.7607 -1.7554  0.8046
 6706SOL    HW226724   5.311   2.840  11.385 -0.2661  2.3595 -0.6586
 6707SOL     OW26725   5.433   3.274  11.571 -0.2495  0.4502  0.7968
 6707SOL    HW126726   5.521   3.236  11.566 -0.6417 -0.7499  2.1771
 6707SOL    HW226727   5.375   3.202  11.545 -0.8360  1.3266 -0.4316
 6708SOL     OW26728   5.404   0.292   4.444  0.0488 -0.4466 -0.4884
 6708SOL    HW126729   5.474   0.346   4.480 -0.5458 -0.4744  0.7871
 6708SOL    HW226730   5.447   0.211   4.416  0.7157  0.0728 -0.9821
 6709SOL     OW26731   1.562  12.532  10.427 -0.6760  0.8192 -0.1585
 6709SOL    HW126732   1.531  12.452  10.383 -0.1308 -0.0864  1.0546
 6709SOL    HW226733   1.655  12.537  10.404 -0.7326  1.1716 -0.3150
 6710SOL     OW26734   0.057  10.344  11.000  0.0759  0.1538  0.5273
 6710SOL    HW126735   0.055  10.383  11.087  0.8065 -2.6701  1.9356
 6710SOL    HW226736   0.026  10.254  11.013 -1.5687  0.1313 -2.4888
 6711SOL     OW26737   5.831   4.636   1.397 -0.3776  0.2710  0.1715
 6711SOL    HW126738   5.752   4.674   1.358  0.8467  2.2102 -0.5418
 6711SOL    HW226739   5.826   4.543   1.374 -1.5634  0.6805 -1.3847
 6712SOL     OW26740  11.746   0.111   8.220  0.1303 -0.4152 -0.2072
 6712SOL    HW126741  11.762   0.115   8.125  0.9481  0.8353 -0.0464
 6712SOL    HW226742  11.664   0.158   8.232  0.5126  0.2673 -0.2092
 6713SOL     OW26743  12.062  12.195   4.807  0.2559 -0.2509 -0.2360
 6713SOL    HW126744  12.073  12.140   4.729 -2.1700 -2.3447  0.7753
 6713SOL    HW226745  12.087  12.283   4.777  1.2346 -1.2904 -2.8190
 6714SOL     OW26746   5.050   2.563   1.131  0.2107 -0.1544  0.1136
 6714SOL    HW126747   5.026   2.537   1.043  4.9448 -1.2139 -1.1516
 6714SOL    HW226748   5.063   2.480   1.178 -2.6290  0.3855  2.0870
 6715SOL     OW26749  11.415  10.969   4.328 -0.2403 -0.2307  0.0490
 6715SOL    HW126750  11.485  10.927   4.277 -0.4836  0.4722 -0.8826
 6715SOL    HW226751  11.457  11.046   4.367 -0.4919  0.1943 -0.5138
 6716SOL     OW26752   3.835   1.070   2.635  0.2757  0.5168 -0.2735
 6716SOL    HW126753   3.861   0.989   2.679  0.5726  0.0031 -1.3783
 6716SOL    HW226754   3.849   1.054   2.542  2.7020  2.6639 -0.3919
 6717SOL     OW26755   0.700   7.901   4.957  0.3213 -0.6853  0.6482
 6717SOL    HW126756   0.722   7.881   5.048  0.0245 -1.2648  0.5977
 6717SOL    HW226757   0.758   7.975   4.934 -1.4204  1.2656  2.1193
 6718SOL     OW26758   0.845   9.375   2.217  0.3816 -0.3610 -0.3912
 6718SOL    HW126759   0.847   9.331   2.302 -0.2497  1.7290  0.7721
 6718SOL    HW226760   0.759   9.416   2.213  0.5354 -0.1404 -1.9057
 6719SOL     OW26761   7.237   8.016   2.746 -0.6003 -0.1306 -0.0118
 6719SOL    HW126762   7.231   8.102   2.705  0.0454 -0.0632  0.0391
 6719SOL    HW226763   7.158   7.970   2.716  0.9738 -0.9659 -3.3287
 6720SOL     OW26764  12.283   9.290   0.716 -0.3383 -0.1610 -0.0383
 6720SOL    HW126765  12.313   9.328   0.634 -3.0505  3.3171  0.3410
 6720SOL    HW226766  12.215   9.228   0.691  1.8839 -2.6238 -0.4776
 6721SOL     OW26767   1.464   4.838   1.028 -0.1161 -0.9999 -0.4163
 6721SOL    HW126768   1.526   4.908   1.009  0.7351 -1.1240  1.6429
 6721SOL    HW226769   1.504   4.759   0.990  0.3622 -0.8610 -0.2036
 6722SOL     OW26770   2.401   1.206   7.981  0.3252  0.0804  0.3696
 6722SOL    HW126771   2.353   1.150   7.920 -0.3650  0.0191  0.9556
 6722SOL    HW226772   2.492   1.200   7.953  0.2260 -1.1241  0.2692
 6723SOL     OW26773   1.939   3.151   7.599 -0.3032  0.4786 -0.0306
 6723SOL    HW126774   1.975   3.123   7.515  1.2197  0.5403  0.5573
 6723SOL    HW226775   2.003   3.120   7.664 -1.5284  0.2785  1.1185
 6724SOL     OW26776   4.000   3.144   4.745 -0.3925  0.2285 -0.0533
 6724SOL    HW126777   3.956   3.182   4.821 -1.0474 -1.1122  0.2745
 6724SOL    HW226778   3.989   3.210   4.676 -0.0655  1.3285  0.9036
 6725SOL     OW26779   1.570   3.774   9.400  0.0848  0.3363 -0.0394
 6725SOL    HW126780   1.602   3.858   9.432  0.9483 -0.3615  0.9657
 6725SOL    HW226781   1.647   3.716   9.400 -0.2341 -0.1783 -1.7713
 6726SOL     OW26782   2.487   7.329   9.176  1.7225 -0.3270  0.3637
 6726SOL    HW126783   2.554   7.261   9.180  1.3646 -0.6766  0.5166
 6726SOL    HW226784   2.414   7.294   9.227  0.6448 -0.8264 -1.4509
 6727SOL     OW26785   6.767   9.043   2.578 -0.1034  0.1291  0.2887
 6727SOL    HW126786   6.810   9.044   2.492 -0.0919  1.8568  0.2682
 6727SOL    HW226787   6.703   9.114   2.573  1.4945  1.8485  2.4592
 6728SOL     OW26788   7.262  12.750   5.788 -0.2471 -0.3673  0.3116
 6728SOL    HW126789   7.243  12.710   5.703  0.2361 -2.4209  1.1022
 6728SOL    HW226790   7.205  12.827   5.792 -0.2406 -0.1954 -1.8620
 6729SOL     OW26791   4.458   7.148   1.170  0.6179 -0.1361 -0.3210
 6729SOL    HW126792   4.397   7.081   1.141 -2.8795  1.6007  2.3509
 6729SOL    HW226793   4.514   7.104   1.233 -0.9145 -0.8520  0.5903
 6730SOL     OW26794   9.571   7.484   2.353 -0.6826  0.8482  0.0482
 6730SOL    HW126795   9.498   7.494   2.415 -1.9138 -0.5073 -1.1181
 6730SOL    HW226796   9.536   7.515   2.270 -0.2776 -0.7386 -0.7430
 6731SOL     OW26797   1.783   5.591   6.848 -0.0352  0.0496 -0.2461
 6731SOL    HW126798   1.786   5.651   6.773 -0.5882  1.0990  0.5488
 6731SOL    HW226799   1.763   5.505   6.809  1.9229  0.1103 -1.5209
 6732SOL     OW26800  11.314   1.398   9.233 -0.3308  0.1685  0.4709
 6732SOL    HW126801  11.272   1.464   9.288 -0.5350  1.2240 -0.9049
 6732SOL    HW226802  11.257   1.389   9.158 -0.1426 -1.3792  0.4691
 6733SOL     OW26803  12.042   6.380   1.332  0.1251  0.1318  0.1298
 6733SOL    HW126804  12.003   6.416   1.253  1.4611  0.0938 -0.5681
 6733SOL    HW226805  12.070   6.292   1.308  3.9990  1.3703 -0.6157
 6734SOL     OW26806   8.984   0.627   5.640 -0.0011 -0.1930 -0.6244
 6734SOL    HW126807   8.971   0.654   5.731  0.6591 -1.3209 -0.1774
 6734SOL    HW226808   9.070   0.584   5.639 -0.2428 -0.6921 -1.6587
 6735SOL     OW26809  10.353   8.866  11.765  0.0425  0.5830  0.1114
 6735SOL    HW126810  10.289   8.867  11.836 -0.1430  1.1521 -0.0621
 6735SOL    HW226811  10.436   8.890  11.806  0.4192 -1.3151  0.5748
 6736SOL     OW26812   9.700  12.225   3.517 -0.3717 -0.6053 -0.6068
 6736SOL    HW126813   9.655  12.302   3.552 -0.9803 -0.8997 -0.7322
 6736SOL    HW226814   9.767  12.261   3.458  0.1334 -0.1354  0.2411
 6737SOL     OW26815   8.982  12.301   4.259 -0.2288  0.0912  0.3206
 6737SOL    HW126816   8.971  12.365   4.189 -0.2986 -1.0408 -0.7441
 6737SOL    HW226817   8.941  12.341   4.335  2.5401  2.6954  0.6092
 6738SOL     OW26818   5.919  10.162  11.031  0.3819 -0.9427  0.1528
 6738SOL    HW126819   5.947  10.239  10.983 -0.4074 -0.6979  0.0671
 6738SOL    HW226820   5.850  10.123  10.977  0.1104 -1.1712  0.6538
 6739SOL     OW26821   3.025   9.226   1.676 -0.1828  0.4759  0.8929
 6739SOL    HW126822   2.945   9.259   1.634 -0.7170 -1.8482 -0.0594
 6739SOL    HW226823   3.094   9.241   1.611 -0.2988  0.3711  0.7426
 6740SOL     OW26824   8.521  12.373  11.191  0.2369  0.1240 -0.2076
 6740SOL    HW126825   8.539  12.355  11.098 -0.3934 -0.0535 -0.2991
 6740SOL    HW226826   8.553  12.296  11.237 -2.5531 -1.3904 -0.6072
 6741SOL     OW26827   4.740   5.861   1.507  0.6759 -0.3868  0.2922
 6741SOL    HW126828   4.783   5.934   1.551  1.7081 -0.7948 -0.0098
 6741SOL    HW226829   4.711   5.897   1.424  0.8977 -0.2342  0.2793
 6742SOL     OW26830   4.249   1.798  11.838  0.2283  0.2338 -0.0137
 6742SOL    HW126831   4.169   1.764  11.878 -0.5725  0.9303 -0.9615
 6742SOL    HW226832   4.257   1.886  11.875  0.4843  0.2157 -0.0279
 6743SOL     OW26833   4.782   6.872   0.185 -0.2285 -0.0378  0.5156
 6743SOL    HW126834   4.747   6.916   0.108 -3.1287 -0.9172  1.1906
 6743SOL    HW226835   4.741   6.918   0.259 -0.1714 -1.3396  1.3818
 6744SOL     OW26836   9.318   2.684  12.661  0.2202 -0.4603 -0.6314
 6744SOL    HW126837   9.340   2.618  12.726 -0.6699  0.9424  1.2230
 6744SOL    HW226838   9.389   2.748  12.665  0.2651 -0.4653 -1.2040
 6745SOL     OW26839  11.453   3.555   9.470 -0.3310 -0.0583  0.3266
 6745SOL    HW126840  11.384   3.613   9.504 -0.1152 -0.7162  2.0132
 6745SOL    HW226841  11.513   3.545   9.544  1.9655  1.0022 -1.2749
 6746SOL     OW26842   9.001   8.997   2.237 -0.0757 -0.1421  0.7263
 6746SOL    HW126843   9.050   8.932   2.187 -1.2891  0.5313 -1.5021
 6746SOL    HW226844   9.009   9.077   2.186  0.4623  1.2083  2.8337
 6747SOL     OW26845   7.339   8.593   4.656 -0.0900 -0.4522  0.2732
 6747SOL    HW126846   7.365   8.502   4.655 -1.1581 -0.7786 -0.8333
 6747SOL    HW226847   7.420   8.642   4.669  0.7807 -1.4744 -1.1560
 6748SOL     OW26848   4.391   1.948   8.019 -0.0774  0.0167 -0.4893
 6748SOL    HW126849   4.466   1.917   8.070 -1.6581 -3.8621 -0.1823
 6748SOL    HW226850   4.430   1.993   7.944  2.4876 -0.6050  0.3712
 6749SOL     OW26851   7.656  12.346   5.008  0.0384 -0.0577 -0.0067
 6749SOL    HW126852   7.693  12.322   4.923 -0.6118  1.0181 -0.6175
 6749SOL    HW226853   7.597  12.418   4.989  0.2871  0.5689  1.4423
 6750SOL     OW26854   0.319   7.112   7.128  0.3722  0.1013 -0.1050
 6750SOL    HW126855   0.368   7.192   7.143 -0.8508  1.1974 -1.6559
 6750SOL    HW226856   0.370   7.065   7.062  0.1783  0.4436 -0.4975
 6751SOL     OW26857  11.237   8.953   2.430  0.1653  0.0673  1.0988
 6751SOL    HW126858  11.290   8.921   2.503 -1.4519 -0.4923  2.0670
 6751SOL    HW226859  11.213   9.042   2.456  0.2865  0.1749  0.8452
 6752SOL     OW26860   9.748   6.794   2.992  0.7990  0.2707 -0.1735
 6752SOL    HW126861   9.707   6.879   2.975 -0.2285  0.0450  0.9309
 6752SOL    HW226862   9.839   6.804   2.965  0.8213  1.8922  0.3825
 6753SOL     OW26863   6.248   9.654   4.879 -0.0629 -0.1012  0.2092
 6753SOL    HW126864   6.311   9.712   4.919  0.3600 -0.0473 -0.5169
 6753SOL    HW226865   6.163   9.695   4.895  0.1696  0.3307  0.3304
 6754SOL     OW26866   0.027   6.923   5.445  0.1290 -0.0523  0.1660
 6754SOL    HW126867  -0.011   6.917   5.357  0.2398 -0.5768  0.1473
 6754SOL    HW226868   0.095   6.856   5.446 -0.9616 -1.1969  1.1672
 6755SOL     OW26869  11.956   4.637   2.171  0.9735  0.6675 -0.3226
 6755SOL    HW126870  11.869   4.601   2.186  0.8147  0.9197 -0.6323
 6755SOL    HW226871  11.976   4.685   2.251  1.7269 -1.1495  0.6451
 6756SOL     OW26872   1.405   8.895  12.375 -0.1127  0.0482  0.6481
 6756SOL    HW126873   1.412   8.974  12.428  1.6331  1.2875 -1.2663
 6756SOL    HW226874   1.495   8.863  12.367 -0.0263  0.7433 -2.5970
 6757SOL     OW26875   6.025   0.574   7.973 -0.6941  0.0145 -0.6441
 6757SOL    HW126876   5.958   0.636   7.943 -1.2711  0.7003  1.8233
 6757SOL    HW226877   6.070   0.621   8.043  1.5952 -0.9039 -1.4293
 6758SOL     OW26878   2.196  12.651   3.587  0.3146 -0.8329  0.0889
 6758SOL    HW126879   2.262  12.586   3.566  0.8456 -0.0492 -0.7245
 6758SOL    HW226880   2.122  12.629   3.530  0.7661 -0.3054 -0.7229
 6759SOL     OW26881   9.995   7.057  12.428  0.1289 -0.1368 -0.7302
 6759SOL    HW126882  10.017   6.973  12.470  0.5814 -0.5183 -1.6972
 6759SOL    HW226883  10.049   7.058  12.348 -0.1927  0.8877 -0.9391
 6760SOL     OW26884   8.524   0.682  11.828 -1.1257 -0.7481  0.3030
 6760SOL    HW126885   8.574   0.622  11.885  3.2836  0.7614 -1.5418
 6760SOL    HW226886   8.448   0.707  11.881  1.1595 -1.5971  4.4533
 6761SOL     OW26887   7.458  12.075   6.415  0.2473 -0.0919 -0.7219
 6761SOL    HW126888   7.464  12.094   6.509  0.8221 -1.2141 -0.5221
 6761SOL    HW226889   7.545  12.093   6.381 -0.0166  0.5306 -1.1009
 6762SOL     OW26890   4.475   0.768   6.901  0.4426 -0.4983  0.1270
 6762SOL    HW126891   4.530   0.766   6.822 -1.5303  0.8860 -1.4118
 6762SOL    HW226892   4.488   0.857   6.936 -0.0151 -0.5128  0.3353
 6763SOL     OW26893   6.896  11.061   0.785  0.1847  0.1210  0.2114
 6763SOL    HW126894   6.826  11.042   0.724 -0.1297  1.0449  0.2673
 6763SOL    HW226895   6.973  11.017   0.748 -0.4105 -0.8872  0.1487
 6764SOL     OW26896   2.497  12.641  10.545  0.7287  0.2001 -0.5796
 6764SOL    HW126897   2.451  12.608  10.468 -2.1441  1.7277  0.3089
 6764SOL    HW226898   2.510  12.734  10.528 -0.5864  0.7197  0.9684
 6765SOL     OW26899   1.636  11.286   5.694 -0.0083  0.0061 -0.2040
 6765SOL    HW126900   1.667  11.324   5.611  0.5186  0.5039  0.2162
 6765SOL    HW226901   1.664  11.195   5.690  1.0456  0.3108 -0.0807
 6766SOL     OW26902   9.478   5.214   2.390  0.2380 -0.2468 -0.3101
 6766SOL    HW126903   9.397   5.264   2.376  1.6599  2.3849  0.1027
 6766SOL    HW226904   9.541   5.280   2.420  2.6525 -2.1346 -0.9643
 6767SOL     OW26905   3.568   8.064   2.306 -0.1965  0.7960  0.1877
 6767SOL    HW126906   3.541   8.138   2.360 -1.0301 -0.2646  1.2834
 6767SOL    HW226907   3.486   8.031   2.269  0.3450  1.3867 -1.6214
 6768SOL     OW26908   0.470   5.849  11.373  0.7903  0.3040 -0.1274
 6768SOL    HW126909   0.411   5.923  11.384 -0.1653 -0.2809 -1.1500
 6768SOL    HW226910   0.551   5.877  11.416  0.3528  1.8066 -0.2073
 6769SOL     OW26911   1.848   9.958  11.624  0.1572 -0.3359  0.0749
 6769SOL    HW126912   1.842  10.041  11.576  1.9993 -0.0882  0.2140
 6769SOL    HW226913   1.759   9.943  11.657 -0.1792  1.6967  0.2206
 6770SOL     OW26914   3.669   4.855   6.419  0.1990  0.5359  0.0450
 6770SOL    HW126915   3.617   4.926   6.456  2.8717  1.5845  2.0754
 6770SOL    HW226916   3.678   4.792   6.491  2.5592  0.9197  0.1470
 6771SOL     OW26917   0.303   2.629  10.309 -0.0532 -0.5061 -0.1981
 6771SOL    HW126918   0.308   2.712  10.356  1.5762 -0.2713 -0.7431
 6771SOL    HW226919   0.360   2.570  10.359  0.5811 -0.6510 -1.0783
 6772SOL     OW26920   3.107   2.781   8.335  0.5331  0.0081 -0.3566
 6772SOL    HW126921   3.036   2.844   8.323 -1.1091 -1.4621  1.0186
 6772SOL    HW226922   3.080   2.705   8.283  0.8357 -0.7472  0.5624
 6773SOL     OW26923  10.129  12.692   4.130 -0.5273  0.0889  0.5277
 6773SOL    HW126924  10.201  12.695   4.193 -1.0679  0.4050  1.1446
 6773SOL    HW226925  10.107  12.600   4.123 -0.6463  0.0784  1.0185
 6774SOL     OW26926  10.241   1.583  11.363 -0.0216  0.6293 -0.2722
 6774SOL    HW126927  10.262   1.652  11.427  0.3639  0.4345 -0.1864
 6774SOL    HW226928  10.148   1.597  11.342 -0.0981  0.8199  0.1794
 6775SOL     OW26929   6.663   7.438   1.904  0.3959 -0.2457  0.5914
 6775SOL    HW126930   6.635   7.384   1.977  0.3039  0.5945  1.1977
 6775SOL    HW226931   6.758   7.424   1.899  0.1919 -1.5282 -0.1684
 6776SOL     OW26932  11.964   6.411   5.863 -0.0981  0.1186  0.2030
 6776SOL    HW126933  12.016   6.473   5.811 -0.9390 -0.1356 -0.9683
 6776SOL    HW226934  12.029   6.360   5.910  0.6327  1.5485  0.8091
 6777SOL     OW26935   9.092   6.660   8.849  0.0516 -0.0498  0.0402
 6777SOL    HW126936   9.056   6.748   8.865 -0.1480 -0.6073  3.2843
 6777SOL    HW226937   9.022   6.600   8.875  0.4612 -1.2180 -1.4123
 6778SOL     OW26938   1.494   9.975  10.732  0.3772 -0.0509  0.0445
 6778SOL    HW126939   1.562   9.969  10.664 -0.2604 -0.9146 -0.5332
 6778SOL    HW226940   1.414   9.998  10.684  0.1886  0.7169  0.6904
 6779SOL     OW26941   3.684   6.349   7.194 -0.2686 -0.0456  0.9322
 6779SOL    HW126942   3.602   6.398   7.194  0.3575  1.0425 -0.1254
 6779SOL    HW226943   3.667   6.275   7.253 -2.0666  0.0344  0.5800
 6780SOL     OW26944  11.787  12.229   5.787 -0.3709 -0.1529  0.0694
 6780SOL    HW126945  11.820  12.265   5.869 -0.5633  1.9613 -0.7355
 6780SOL    HW226946  11.812  12.136   5.790  0.5866  0.1215  2.0063
 6781SOL     OW26947   1.210   9.963   3.660  0.0656 -0.3936 -0.0960
 6781SOL    HW126948   1.258  10.035   3.620 -1.9169  0.9021 -0.2947
 6781SOL    HW226949   1.231   9.887   3.606  0.2100  0.5737 -1.4450
 6782SOL     OW26950   7.413   1.578   9.794  0.2874  0.0636 -0.2734
 6782SOL    HW126951   7.451   1.501   9.753 -0.0404  0.3690 -1.1669
 6782SOL    HW226952   7.324   1.583   9.759  0.0831  0.4797  0.2803
 6783SOL     OW26953   8.756   9.956   9.543 -0.9772  0.4620 -0.2703
 6783SOL    HW126954   8.699   9.992   9.611 -1.4652 -0.2723 -0.2747
 6783SOL    HW226955   8.699   9.899   9.492 -0.9231  1.9590 -2.0964
 6784SOL     OW26956  10.826   3.317  10.992 -0.0483  0.4044 -0.1083
 6784SOL    HW126957  10.777   3.357  11.063  0.0004 -1.2059  0.8647
 6784SOL    HW226958  10.912   3.297  11.030  0.9697  1.9794 -1.4147
 6785SOL     OW26959   6.405   5.995   8.119  0.8927  0.2841 -0.4138
 6785SOL    HW126960   6.495   5.977   8.094  0.8405 -0.2059 -0.2590
 6785SOL    HW226961   6.359   5.912   8.107  0.7866  0.1149  0.9747
 6786SOL     OW26962  11.240   7.333   7.774  0.2000  0.7366  0.1382
 6786SOL    HW126963  11.299   7.271   7.817 -0.0795  0.8727  0.7255
 6786SOL    HW226964  11.194   7.281   7.709  1.1384  0.6786 -0.4962
 6787SOL     OW26965   3.364   5.754   4.413 -0.2044  0.3689 -0.3828
 6787SOL    HW126966   3.376   5.819   4.344  1.2051  0.0219 -0.4943
 6787SOL    HW226967   3.448   5.709   4.417  0.5073  1.7276  2.9572
 6788SOL     OW26968   5.529   9.988   1.916  0.0095 -0.0559  0.0868
 6788SOL    HW126969   5.515   9.961   1.825  0.5704  2.0369 -0.6812
 6788SOL    HW226970   5.624   9.983   1.927  0.2929  2.5864 -0.4966
 6789SOL     OW26971   7.449  10.165  12.663  0.1558  0.5081 -0.0277
 6789SOL    HW126972   7.400  10.209  12.593 -0.8365  1.9541  1.4985
 6789SOL    HW226973   7.409  10.079  12.670 -0.9067  0.9805 -0.0907
 6790SOL     OW26974   8.062  11.135  11.116 -0.1853 -0.0508  0.6466
 6790SOL    HW126975   7.990  11.073  11.124  0.9042 -1.2977  1.0643
 6790SOL    HW226976   8.136  11.082  11.086  0.7271  1.0788  0.8500
 6791SOL     OW26977   8.818   7.936   9.731  0.5791 -0.3301 -0.1731
 6791SOL    HW126978   8.730   7.902   9.747  1.5959 -1.9092  2.8847
 6791SOL    HW226979   8.807   8.001   9.662 -2.9555 -0.5001  0.0815
 6792SOL     OW26980   1.228   0.371   0.467 -0.1037 -0.4189 -0.1230
 6792SOL    HW126981   1.188   0.296   0.511 -1.1741 -0.0455 -0.4357
 6792SOL    HW226982   1.244   0.342   0.378 -1.1767 -0.0582 -0.4412
 6793SOL     OW26983  10.704   0.062  12.378 -0.0763  0.1114  0.6585
 6793SOL    HW126984  10.739   0.141  12.420 -0.1868  0.2293  0.5268
 6793SOL    HW226985  10.658   0.094  12.300 -0.2907 -0.0651  0.7123
 6794SOL     OW26986  10.967   9.225   4.483  0.4957 -0.1320  0.2584
 6794SOL    HW126987  11.022   9.283   4.429  0.4632 -0.1683  0.1861
 6794SOL    HW226988  11.001   9.235   4.572  1.6292 -1.3266 -0.0139
 6795SOL     OW26989  11.702  12.425   8.809 -0.7522  0.2847  0.3162
 6795SOL    HW126990  11.611  12.444   8.833 -0.8100 -0.5462  0.7478
 6795SOL    HW226991  11.752  12.445   8.887 -0.5871  0.4643  0.1668
 6796SOL     OW26992   2.373   3.409   2.852  0.2973 -0.0577 -0.1233
 6796SOL    HW126993   2.341   3.394   2.941  1.9988 -1.4409  0.2977
 6796SOL    HW226994   2.458   3.451   2.863  1.1320 -1.4152 -1.0128
 6797SOL     OW26995   2.827   8.276   0.427  0.6970  0.0517  0.1503
 6797SOL    HW126996   2.904   8.329   0.449 -0.0406  1.2313 -0.0707
 6797SOL    HW226997   2.786   8.257   0.512  1.1460 -0.4666  0.2573
 6798SOL     OW26998   2.727   0.765  12.713  0.1649 -0.0941  0.3468
 6798SOL    HW126999   2.799   0.829  12.716  1.8358 -1.8140 -0.5435
 6798SOL    HW227000   2.770   0.682  12.692 -2.3276 -0.8735 -2.2223
 6799SOL     OW27001   2.532   4.161   2.414 -0.5048  0.3708 -0.1937
 6799SOL    HW127002   2.602   4.215   2.376 -0.5750  0.0853 -0.7372
 6799SOL    HW227003   2.470   4.225   2.451  0.9098  0.6190  1.9293
 6800SOL     OW27004   5.201   4.256   9.008  0.2918 -0.0232  0.2125
 6800SOL    HW127005   5.107   4.274   9.000  0.0007 -0.7355  1.7284
 6800SOL    HW227006   5.219   4.192   8.939  0.1088  1.5166 -1.3434
 6801SOL     OW27007   5.778  11.774  11.144  0.0854  0.5500  0.0980
 6801SOL    HW127008   5.762  11.865  11.118 -1.1771  0.3497  0.1145
 6801SOL    HW227009   5.761  11.723  11.065 -0.9514  0.1880  0.5364
 6802SOL     OW27010   8.467  11.143   4.644  0.0932  0.1839 -0.3087
 6802SOL    HW127011   8.554  11.150   4.684  0.2004  0.9395 -0.6629
 6802SOL    HW227012   8.440  11.053   4.662  0.6141  0.1752  0.4847
 6803SOL     OW27013   1.281   7.756   7.701 -0.2566  0.1141 -0.2971
 6803SOL    HW127014   1.367   7.796   7.711  0.4536 -1.1766 -1.0303
 6803SOL    HW227015   1.258   7.728   7.790  0.2841  0.0670 -0.1665
 6804SOL     OW27016  10.759  10.634   8.022 -0.2251  0.7645  0.2805
 6804SOL    HW127017  10.693  10.634   8.091 -0.8999 -0.1057 -0.3359
 6804SOL    HW227018  10.724  10.574   7.956  2.8683 -2.9402  1.5955
 6805SOL     OW27019   3.416   2.200  12.347  0.4031 -0.3139 -0.1293
 6805SOL    HW127020   3.492   2.241  12.307 -0.4737 -0.2599 -1.8328
 6805SOL    HW227021   3.380   2.143  12.279 -2.6168  1.6894 -0.3990
 6806SOL     OW27022  11.790   6.606   2.624 -0.4878 -0.4717 -0.9316
 6806SOL    HW127023  11.822   6.570   2.542 -0.7698  1.0710 -1.7522
 6806SOL    HW227024  11.804   6.700   2.616  0.5244 -0.3700  1.2528
 6807SOL     OW27025  10.606  10.152  11.382 -0.2393 -0.7353  0.1503
 6807SOL    HW127026  10.578  10.072  11.426 -0.2152 -0.8191  0.0163
 6807SOL    HW227027  10.701  10.150  11.386 -0.2277 -0.8847 -0.1493
 6808SOL     OW27028   2.112   7.416   0.820 -0.1045 -0.2159 -0.0919
 6808SOL    HW127029   2.196   7.379   0.794  0.9016  0.1554  2.3001
 6808SOL    HW227030   2.096   7.379   0.908 -0.8092  2.2029  0.8737
 6809SOL     OW27031  12.680   5.813  10.241 -0.1206 -0.0537  0.5354
 6809SOL    HW127032  12.717   5.842  10.158 -0.8051  0.2812  0.3319
 6809SOL    HW227033  12.639   5.892  10.277 -1.0225 -0.4950  0.5257
 6810SOL     OW27034   1.215  10.491   5.190 -0.1679 -0.6501  0.5802
 6810SOL    HW127035   1.216  10.556   5.119 -2.3599 -2.2636 -1.0964
 6810SOL    HW227036   1.173  10.536   5.263 -0.6750  0.1732 -0.1922
 6811SOL     OW27037   5.241   7.183   0.488  0.1405 -0.4028  0.1168
 6811SOL    HW127038   5.276   7.239   0.419 -0.5134  0.4631  0.4580
 6811SOL    HW227039   5.156   7.222   0.509  0.8530  0.1383  2.2815
 6812SOL     OW27040   1.283   7.297   3.103 -0.1349  0.3698  0.9176
 6812SOL    HW127041   1.373   7.291   3.134 -0.1384  3.0217  1.6590
 6812SOL    HW227042   1.272   7.221   3.046  2.6306  0.0718  0.6535
 6813SOL     OW27043   2.345   2.754   8.647  0.0536 -0.2378 -0.0924
 6813SOL    HW127044   2.288   2.781   8.719  1.0245 -0.9552  1.0028
 6813SOL    HW227045   2.400   2.685   8.685  1.5599  0.3385 -1.1063
 6814SOL     OW27046   2.313  11.291   4.533  0.3585  0.3321 -0.5892
 6814SOL    HW127047   2.350  11.346   4.602  0.3872  1.9223 -1.8168
 6814SOL    HW227048   2.228  11.262   4.568 -0.0464  1.8721 -0.2311
 6815SOL     OW27049   4.415   5.710  12.238  0.9143 -1.0149 -0.2613
 6815SOL    HW127050   4.412   5.805  12.246 -1.3347 -0.9672 -0.9329
 6815SOL    HW227051   4.417   5.678  12.328  1.9811 -0.3548 -0.0304
 6816SOL     OW27052   2.724   1.253   6.705  0.0242  0.3139 -0.0160
 6816SOL    HW127053   2.648   1.240   6.761  1.1691 -0.3482  1.4383
 6816SOL    HW227054   2.720   1.345   6.680 -0.9563  0.4153  0.4890
 6817SOL     OW27055  10.663   0.038   5.419 -0.1184  0.0274 -0.0863
 6817SOL    HW127056  10.703   0.043   5.506  0.8872 -1.9791 -0.3727
 6817SOL    HW227057  10.640  -0.054   5.409  0.4930  0.0606 -2.2413
 6818SOL     OW27058   0.251   0.514   1.984 -0.0633  0.4677  0.8981
 6818SOL    HW127059   0.257   0.461   1.905  1.9909  0.9697  0.6572
 6818SOL    HW227060   0.231   0.602   1.952 -2.4208  0.1268  1.2263
 6819SOL     OW27061   5.752  10.283   7.933 -0.0328  0.5396  0.2082
 6819SOL    HW127062   5.733  10.217   8.000  0.1830 -0.6561 -0.8761
 6819SOL    HW227063   5.685  10.271   7.867  2.4307 -1.6111 -2.1307
 6820SOL     OW27064  10.730   7.881   9.835  0.1752 -0.4638 -0.1502
 6820SOL    HW127065  10.730   7.932   9.754 -1.5084  0.6527  0.4866
 6820SOL    HW227066  10.730   7.790   9.807  2.9028 -0.2143 -1.3395
 6821SOL     OW27067   1.684  11.484   2.524 -0.0033 -0.5981  0.6499
 6821SOL    HW127068   1.667  11.403   2.475  1.5874 -0.7548  0.2978
 6821SOL    HW227069   1.637  11.552   2.476 -2.4744 -1.4680  1.7050
 6822SOL     OW27070  10.804   6.537   2.661  0.4126  0.2610  0.0416
 6822SOL    HW127071  10.809   6.617   2.713  1.4799  0.4086 -0.2715
 6822SOL    HW227072  10.869   6.479   2.699  2.4036  0.9672 -2.0816
 6823SOL     OW27073   9.777  12.289   6.257  0.4703  0.2475  0.5811
 6823SOL    HW127074   9.737  12.295   6.170  1.0269 -1.2903  0.1822
 6823SOL    HW227075   9.720  12.341   6.314 -0.2536  0.7581 -0.5817
 6824SOL     OW27076   1.802  12.586  12.225 -0.1744 -0.5726 -0.1828
 6824SOL    HW127077   1.896  12.567  12.226  0.1321  0.8182  0.4864
 6824SOL    HW227078   1.787  12.624  12.138  0.6648  2.4765  0.8659
 6825SOL     OW27079   9.719   0.881   9.994 -0.4466 -0.6095  0.1162
 6825SOL    HW127080   9.801   0.903  10.037 -0.7404 -1.0403  0.9102
 6825SOL    HW227081   9.698   0.958   9.941 -0.0546 -0.0986  0.6976
 6826SOL     OW27082   4.770   9.158   3.363 -0.1413  0.2364 -0.7265
 6826SOL    HW127083   4.787   9.229   3.425 -2.7286  0.9142 -0.6652
 6826SOL    HW227084   4.853   9.144   3.318  1.4106  0.7409  1.8254
 6827SOL     OW27085   7.546   0.781   7.674  0.0085 -0.6409 -0.7936
 6827SOL    HW127086   7.539   0.853   7.736  0.1398 -0.6317 -0.7885
 6827SOL    HW227087   7.625   0.734   7.701 -0.2758 -1.0000 -0.5745
 6828SOL     OW27088   8.743   1.590   5.576  0.2269  0.7519  0.2067
 6828SOL    HW127089   8.774   1.547   5.497  0.1505 -1.0992  1.1174
 6828SOL    HW227090   8.819   1.639   5.608  0.6303  0.5019 -0.3541
 6829SOL     OW27091   7.378  12.049   2.052  0.1106 -0.0008 -0.2643
 6829SOL    HW127092   7.309  11.987   2.079 -0.0477 -0.8062 -2.2933
 6829SOL    HW227093   7.374  12.047   1.957  1.6637  1.4458 -0.3859
 6830SOL     OW27094   3.398  11.281   0.845 -0.0438  0.2571 -0.4528
 6830SOL    HW127095   3.308  11.314   0.837 -0.1285  0.7938  1.9886
 6830SOL    HW227096   3.400  11.203   0.788 -1.9575  0.3940 -0.7741
 6831SOL     OW27097   6.854   1.667   8.243  0.3110 -0.0416 -0.5028
 6831SOL    HW127098   6.830   1.748   8.199 -2.1058 -0.4640 -0.1221
 6831SOL    HW227099   6.892   1.612   8.175 -1.0689  0.2384 -1.5500
 6832SOL     OW27100   0.999   2.437   3.442 -0.2452 -0.5356  0.3248
 6832SOL    HW127101   0.923   2.493   3.433 -1.0834 -1.4671  1.3210
 6832SOL    HW227102   1.071   2.487   3.404 -0.8389  1.4221  1.6453
 6833SOL     OW27103   3.167   1.120   0.768  0.4043 -0.4425 -0.2441
 6833SOL    HW127104   3.135   1.181   0.834 -1.2480 -1.4581 -0.0578
 6833SOL    HW227105   3.237   1.168   0.723 -1.6831  2.1206 -1.0150
 6834SOL     OW27106   0.678   4.543   5.498 -0.0318 -0.3330  0.2902
 6834SOL    HW127107   0.603   4.487   5.516  1.8084 -2.7146  1.2086
 6834SOL    HW227108   0.739   4.486   5.451  1.6472  1.1348  0.5911
 6835SOL     OW27109   9.073   2.945   1.657  0.0553 -0.1195  0.2575
 6835SOL    HW127110   9.080   2.850   1.664 -1.3983 -0.2991 -0.3608
 6835SOL    HW227111   9.130   2.967   1.583 -0.8069 -0.7100 -0.6014
 6836SOL     OW27112   9.563   6.720   7.757 -0.7622 -0.4669  0.4467
 6836SOL    HW127113   9.626   6.770   7.808  0.3293 -1.6036  0.2669
 6836SOL    HW227114   9.499   6.689   7.821 -0.5014 -0.2529  0.8143
 6837SOL     OW27115   8.707   0.688   9.882  0.4077  0.4771 -0.0803
 6837SOL    HW127116   8.755   0.740   9.817  2.1672 -0.8469  0.0849
 6837SOL    HW227117   8.618   0.681   9.847  1.4277 -0.6586 -2.6734
 6838SOL     OW27118   8.339  10.195  11.867  0.5017  0.0986 -0.7038
 6838SOL    HW127119   8.336  10.124  11.932  0.4688  0.1172 -0.6842
 6838SOL    HW227120   8.282  10.165  11.796  0.6344  0.0235 -0.7784
 6839SOL     OW27121  10.298  12.400   9.703  0.1889  0.3123 -0.3398
 6839SOL    HW127122  10.215  12.357   9.682 -0.4924  1.2301  0.3193
 6839SOL    HW227123  10.277  12.453   9.780  0.9595  1.8671 -1.1675
 6840SOL     OW27124   5.474   6.867   5.967 -0.1846 -0.9317 -0.1404
 6840SOL    HW127125   5.514   6.880   6.053 -0.7348 -0.1495  0.0114
 6840SOL    HW227126   5.430   6.781   5.974 -0.4672 -0.7437  0.4613
 6841SOL     OW27127   9.865   7.382   2.699  0.2654 -0.1507  0.1807
 6841SOL    HW127128   9.895   7.390   2.609  0.7820 -1.4175  0.2143
 6841SOL    HW227129   9.772   7.405   2.696  0.3136 -0.0332 -0.6431
 6842SOL     OW27130   8.707   5.113   3.040 -0.4377  0.1204 -0.4385
 6842SOL    HW127131   8.663   5.058   2.976 -2.0742 -0.1283  0.8334
 6842SOL    HW227132   8.637   5.145   3.097  0.8869  0.6912  0.9437
 6843SOL     OW27133   3.440   4.667   5.340 -0.0249 -0.3656  0.1374
 6843SOL    HW127134   3.499   4.592   5.351  1.0262  0.4824  0.4118
 6843SOL    HW227135   3.498   4.742   5.329 -1.0637  0.4042 -0.2641
 6844SOL     OW27136   4.214   3.464   0.502  0.1126  0.3097  0.4705
 6844SOL    HW127137   4.282   3.529   0.487  2.7047 -1.8898  1.8292
 6844SOL    HW227138   4.197   3.426   0.416  0.7505  0.7673  0.1370
 6845SOL     OW27139  12.243   4.030   5.634 -0.4427 -0.2811  0.7466
 6845SOL    HW127140  12.329   4.047   5.595 -1.1735  1.6476 -0.1534
 6845SOL    HW227141  12.230   3.936   5.622  1.0151 -0.3975 -0.2341
 6846SOL     OW27142   9.037  10.630   4.341 -0.9546  0.4165 -0.0595
 6846SOL    HW127143   9.069  10.703   4.394  2.5334 -0.8603 -0.1338
 6846SOL    HW227144   8.987  10.576   4.403  0.4904  0.4999  1.2602
 6847SOL     OW27145   9.954   4.837  12.083  0.2955  0.7636 -0.5656
 6847SOL    HW127146   9.867   4.804  12.060  0.2607  0.6830 -0.3216
 6847SOL    HW227147   9.994   4.766  12.133 -0.8483  2.1119  2.5126
 6848SOL     OW27148   8.631  11.135   4.333 -0.1054 -0.1150  0.2971
 6848SOL    HW127149   8.591  11.204   4.280 -1.6940  0.1663  1.7553
 6848SOL    HW227150   8.692  11.091   4.273 -1.8789  0.0927 -1.8159
 6849SOL     OW27151   5.125   5.384   7.473 -0.6450 -0.1582 -0.2531
 6849SOL    HW127152   5.142   5.436   7.394  1.2309  2.1083  1.4850
 6849SOL    HW227153   5.062   5.436   7.522  0.9932  0.4288  1.3598
 6850SOL     OW27154   9.496  12.370   7.530 -0.3883 -0.1630 -0.5129
 6850SOL    HW127155   9.507  12.388   7.623 -0.4650 -1.4583 -0.2268
 6850SOL    HW227156   9.480  12.455   7.490 -0.4081  0.4014  0.6672
 6851SOL     OW27157   9.155   7.422   9.616 -0.1071 -0.6413 -0.4944
 6851SOL    HW127158   9.129   7.474   9.692  0.6014  0.5211 -1.0238
 6851SOL    HW227159   9.073   7.399   9.573 -0.4063  0.5135 -0.5513
 6852SOL     OW27160   0.270   9.783   5.571 -0.2409 -0.1418  0.2721
 6852SOL    HW127161   0.347   9.779   5.515  0.0200 -0.1188  0.6230
 6852SOL    HW227162   0.202   9.823   5.517 -0.5426 -1.8129 -0.6388
 6853SOL     OW27163   5.353  12.313   5.373  0.0924 -0.6554  0.0176
 6853SOL    HW127164   5.413  12.288   5.443  0.2816 -2.1166 -0.6194
 6853SOL    HW227165   5.396  12.282   5.293 -1.3508 -1.4858 -0.4814
 6854SOL     OW27166   2.586   3.664   7.584  0.4104 -0.0569 -0.0718
 6854SOL    HW127167   2.642   3.650   7.508 -0.3192  0.3314 -0.6917
 6854SOL    HW227168   2.563   3.757   7.580 -0.2434 -0.2012  0.1977
 6855SOL     OW27169   3.676   7.566   5.657  0.0165  0.4584 -0.2976
 6855SOL    HW127170   3.617   7.633   5.693  1.1468  0.8799  0.8478
 6855SOL    HW227171   3.651   7.559   5.565 -1.1971  1.2863 -0.0626
 6856SOL     OW27172   6.162   4.766   9.155  0.3890  0.4618 -0.2963
 6856SOL    HW127173   6.097   4.805   9.213  0.2630 -0.3556  0.1345
 6856SOL    HW227174   6.129   4.677   9.139  2.2393 -0.6045  1.3528
 6857SOL     OW27175   8.745   1.320  11.727  0.2227  0.0936  0.0243
 6857SOL    HW127176   8.773   1.395  11.675 -0.5268 -0.8273 -1.7820
 6857SOL    HW227177   8.815   1.308  11.792  1.6977  0.6780 -1.4007
 6858SOL     OW27178   0.711   8.470   1.106 -0.0134 -0.2968  0.3550
 6858SOL    HW127179   0.619   8.455   1.082  0.0421 -0.6110  0.3311
 6858SOL    HW227180   0.740   8.539   1.047 -0.4196  0.2737  0.8023
 6859SOL     OW27181   4.897   2.589   2.353  0.0488 -0.5937 -0.4383
 6859SOL    HW127182   4.826   2.622   2.297 -0.8540  2.0183  2.0190
 6859SOL    HW227183   4.956   2.664   2.363  2.1210 -2.1016 -0.7084
 6860SOL     OW27184   5.022   9.567   1.361  0.7274  0.1278 -0.3898
 6860SOL    HW127185   4.948   9.520   1.324  0.0861 -1.7125  2.7926
 6860SOL    HW227186   5.099   9.517   1.334  0.1946 -1.7980  1.4003
 6861SOL     OW27187   4.575  11.576   8.004 -0.3235 -0.1184 -0.7459
 6861SOL    HW127188   4.505  11.590   7.941 -0.5649  2.4889 -0.0160
 6861SOL    HW227189   4.656  11.582   7.952 -0.5474 -0.6499 -1.1774
 6862SOL     OW27190  12.037   3.740   5.884 -0.5143  0.2225  0.2618
 6862SOL    HW127191  11.982   3.671   5.847 -0.1636 -0.4837  1.0104
 6862SOL    HW227192  11.976   3.802   5.924 -0.7954 -0.1849  0.4672
 6863SOL     OW27193   3.605   8.650   7.715  0.5680 -0.2974  0.0902
 6863SOL    HW127194   3.572   8.712   7.650 -1.3526 -0.4075  0.8962
 6863SOL    HW227195   3.635   8.705   7.787  0.1617 -0.2592  0.2310
 6864SOL     OW27196   1.728   8.109   2.398 -0.1531 -0.1910 -0.4068
 6864SOL    HW127197   1.796   8.176   2.402  0.0123 -0.3843  0.1055
 6864SOL    HW227198   1.725   8.072   2.486 -1.7401  0.6068 -0.0999
 6865SOL     OW27199   5.941   6.180  12.770  0.3735 -0.3153  0.3128
 6865SOL    HW127200   6.019   6.183  12.713  0.2369 -0.1022  0.1346
 6865SOL    HW227201   5.907   6.092  12.759 -0.6119  0.2049 -1.2473
 6866SOL     OW27202   7.974   2.302  11.355  0.8540  0.3496  0.0226
 6866SOL    HW127203   7.967   2.397  11.365 -0.3943  0.3072 -0.2859
 6866SOL    HW227204   7.935   2.266  11.434  0.3447  0.0898 -0.3410
 6867SOL     OW27205  11.867   6.359   0.963  0.4029 -0.1493  0.0553
 6867SOL    HW127206  11.891   6.430   0.903 -1.8167 -1.2789 -2.3560
 6867SOL    HW227207  11.951   6.327   0.997  1.5298  2.8246  0.3606
 6868SOL     OW27208  12.051  12.320   5.230 -0.0341  0.2898  0.8590
 6868SOL    HW127209  12.052  12.272   5.313 -0.6814  0.9062  1.2300
 6868SOL    HW227210  12.133  12.295   5.188 -0.7116 -1.8021  0.6567
 6869SOL     OW27211  10.981   9.353   7.931 -0.1029  0.2780 -0.0362
 6869SOL    HW127212  10.966   9.335   7.839  0.6059  0.8628 -0.2757
 6869SOL    HW227213  11.007   9.445   7.934 -1.5051  0.6773  0.9116
 6870SOL     OW27214   8.155   1.126   1.782 -0.1604 -0.3250 -0.8307
 6870SOL    HW127215   8.216   1.052   1.779 -0.0803 -0.4134  1.5585
 6870SOL    HW227216   8.120   1.125   1.871 -1.3794  1.5647 -1.2337
 6871SOL     OW27217  11.448   6.173   2.920 -0.0460 -0.1968  0.3033
 6871SOL    HW127218  11.427   6.090   2.879  0.8155 -0.0202 -0.5288
 6871SOL    HW227219  11.392   6.176   2.998 -0.4581 -1.3102  0.0701
 6872SOL     OW27220   1.712   9.632   6.844 -0.3794 -0.5751 -1.2048
 6872SOL    HW127221   1.649   9.575   6.800 -1.5978  0.7056 -1.1859
 6872SOL    HW227222   1.772   9.660   6.775 -1.1385 -0.0919 -1.6740
 6873SOL     OW27223   2.726   4.092  11.368 -0.4580 -0.4146 -0.4842
 6873SOL    HW127224   2.710   4.087  11.274 -0.2647 -0.8042 -0.4986
 6873SOL    HW227225   2.783   4.017  11.386  0.2899  0.2105 -0.2192
 6874SOL     OW27226   9.844   1.356  11.782  0.7757 -0.2134  0.2573
 6874SOL    HW127227   9.858   1.397  11.867  0.5743  0.1788  0.1063
 6874SOL    HW227228   9.761   1.310  11.790  0.4626  0.3108  0.0979
 6875SOL     OW27229   2.505  11.733   6.792 -0.0320  0.3093 -0.1480
 6875SOL    HW127230   2.557  11.716   6.713  1.6473 -0.0967  0.9840
 6875SOL    HW227231   2.546  11.810   6.831 -0.6706  0.3411  0.4795
 6876SOL     OW27232   6.331  10.531   7.327  0.3159  0.3395  0.3205
 6876SOL    HW127233   6.297  10.551   7.414 -0.1183 -0.4924  0.3533
 6876SOL    HW227234   6.408  10.588   7.317  0.4800  0.3038  1.3164
 6877SOL     OW27235   4.733   5.637   6.221  0.0428  0.7287 -0.3892
 6877SOL    HW127236   4.709   5.706   6.282 -1.6369 -1.8153  2.0743
 6877SOL    HW227237   4.660   5.576   6.224  0.9414 -0.6653 -3.2829
 6878SOL     OW27238   2.173   6.277   8.090  0.2178  0.7313 -0.3709
 6878SOL    HW127239   2.131   6.193   8.109 -0.7839  0.6532 -2.6402
 6878SOL    HW227240   2.100   6.336   8.069  1.0818  1.1725 -2.3288
 6879SOL     OW27241   1.107   6.599   8.342  0.4197  0.0575 -0.0690
 6879SOL    HW127242   1.043   6.627   8.276  1.4294  2.1795 -0.2232
 6879SOL    HW227243   1.065   6.618   8.426  0.2870  0.0880 -0.1410
 6880SOL     OW27244   1.045  12.614   1.194 -0.1995 -0.3657  0.4091
 6880SOL    HW127245   1.001  12.693   1.224 -0.9169  0.1036 -1.6871
 6880SOL    HW227246   1.013  12.545   1.253 -1.5220  0.4782  0.7343
 6881SOL     OW27247   9.668   4.948   3.592  0.0437  0.6074  0.1689
 6881SOL    HW127248   9.699   4.881   3.530  2.2783  0.4419  1.3840
 6881SOL    HW227249   9.573   4.951   3.577  0.0299 -1.8922 -0.8351
 6882SOL     OW27250   5.460   8.988   6.660  0.4683 -0.2343 -0.3097
 6882SOL    HW127251   5.511   8.973   6.580 -1.4816 -2.3809 -1.2791
 6882SOL    HW227252   5.378   9.026   6.629 -0.6018 -1.7452  0.5362
 6883SOL     OW27253   0.377  11.026   4.870  0.1273  0.3458  0.6351
 6883SOL    HW127254   0.350  10.993   4.784 -0.1626  0.5960  0.6312
 6883SOL    HW227255   0.444  10.963   4.900  2.4348  1.8310 -1.0643
 6884SOL     OW27256   7.741  12.777   0.966  1.0597 -0.6156  0.5722
 6884SOL    HW127257   7.831  12.746   0.961  1.4272  0.4902 -0.0640
 6884SOL    HW227258   7.748  12.864   1.006  0.2751 -0.5520  0.5841
 6885SOL     OW27259   8.339   7.531   6.286 -0.2056  0.3066 -0.0576
 6885SOL    HW127260   8.278   7.579   6.342  0.7246  1.2297  0.1846
 6885SOL    HW227261   8.419   7.524   6.338 -0.6105 -2.4498  0.3494
 6886SOL     OW27262   8.077   4.747   2.366  0.6375 -0.7579  0.2181
 6886SOL    HW127263   8.092   4.826   2.418  0.3211 -0.0748 -0.7086
 6886SOL    HW227264   8.034   4.778   2.287  1.1255 -1.7784 -0.4709
 6887SOL     OW27265   6.058  12.677   3.027 -0.5194  0.3423  0.0524
 6887SOL    HW127266   6.150  12.679   3.053 -0.0751 -1.2347 -1.2367
 6887SOL    HW227267   6.011  12.644   3.103  0.2779 -0.9017  0.0189
 6888SOL     OW27268   5.552   3.220   2.823  0.2533 -0.4884 -0.6820
 6888SOL    HW127269   5.487   3.271   2.872  1.6967  2.1904 -1.3446
 6888SOL    HW227270   5.577   3.149   2.883 -0.1855  0.9524  1.3033
 6889SOL     OW27271   3.298   7.128   6.670  0.2523  0.3507  0.4557
 6889SOL    HW127272   3.340   7.188   6.732  0.3289  1.7170 -0.8477
 6889SOL    HW227273   3.289   7.046   6.718  0.6972  1.2261  2.1164
 6890SOL     OW27274   6.032  11.546   5.950 -0.4067 -0.0250 -0.2683
 6890SOL    HW127275   6.000  11.458   5.929 -0.1110 -0.0104 -0.7750
 6890SOL    HW227276   5.962  11.604   5.922  0.6135  0.1208 -2.7357
 6891SOL     OW27277   0.390   6.288  12.690  0.4121 -0.4733 -0.2850
 6891SOL    HW127278   0.315   6.338  12.656  0.9578  0.5158 -0.0866
 6891SOL    HW227279   0.461   6.308  12.630  0.8810 -0.2519  0.3297
 6892SOL     OW27280   3.232   5.106   8.972  0.1382 -0.3682  0.0370
 6892SOL    HW127281   3.229   5.025   9.022  0.3273 -0.3259  0.1175
 6892SOL    HW227282   3.325   5.130   8.970 -0.1347  1.1474  2.1486
 6893SOL     OW27283   6.631   4.109   8.901 -0.3244 -0.3154  0.6941
 6893SOL    HW127284   6.688   4.060   8.959  1.7341  1.7391  0.5518
 6893SOL    HW227285   6.620   4.194   8.944 -0.0287  0.7027 -1.1261
 6894SOL     OW27286  11.101   1.353  10.928  0.0983  0.3328 -0.4971
 6894SOL    HW127287  11.049   1.432  10.940 -1.9807 -0.9388 -0.5525
 6894SOL    HW227288  11.064   1.291  10.992  1.1988 -0.8104 -0.9314
 6895SOL     OW27289   0.335   3.463  11.789 -0.3437  0.0167  0.2286
 6895SOL    HW127290   0.425   3.494  11.776  0.4767 -1.8503  1.1096
 6895SOL    HW227291   0.284   3.512  11.725  1.8450 -1.2558 -2.7424
 6896SOL     OW27292   1.699   2.544  10.588  0.2212 -0.1220  0.1794
 6896SOL    HW127293   1.699   2.616  10.651  0.3526  1.9810 -2.1161
 6896SOL    HW227294   1.651   2.577  10.513  3.0327 -1.1563 -2.2746
 6897SOL     OW27295  11.527   0.924  10.766  0.1476  0.5489  0.5289
 6897SOL    HW127296  11.485   0.886  10.843  0.9335  0.1904  0.7962
 6897SOL    HW227297  11.567   0.849  10.721 -1.5304  0.5311 -1.0450
 6898SOL     OW27298  12.055  11.012   2.481 -0.2357  0.4125  0.3238
 6898SOL    HW127299  12.061  10.986   2.573 -0.6794  1.1711  0.5837
 6898SOL    HW227300  12.138  11.055   2.462  0.9324 -1.9642 -0.4042
 6899SOL     OW27301  12.659   4.766   1.999  0.3518 -0.6097 -0.0391
 6899SOL    HW127302  12.671   4.845   1.947 -0.5606  0.7266  1.6925
 6899SOL    HW227303  12.680   4.694   1.938  1.1847  0.9205 -1.6591
 6900SOL     OW27304   2.998   8.990   9.106 -0.1992 -0.0391  0.6139
 6900SOL    HW127305   3.006   8.991   9.202 -0.5075  1.9798  0.6663
 6900SOL    HW227306   2.920   8.938   9.089 -1.6316  1.6406  1.6729
 6901SOL     OW27307   4.378   9.842  12.447  0.0541 -0.3811 -0.4473
 6901SOL    HW127308   4.469   9.852  12.420  0.6189 -1.1127  1.0930
 6901SOL    HW227309   4.370   9.751  12.473 -0.8778 -0.1054  0.2982
 6902SOL     OW27310   2.523  10.607   0.578  0.1982  0.3667  0.1697
 6902SOL    HW127311   2.469  10.532   0.554  0.0112  1.1490 -2.1811
 6902SOL    HW227312   2.567  10.581   0.658 -0.2435 -2.0531 -0.3034
 6903SOL     OW27313  10.771  12.586   3.145  0.4045  0.2959  0.7260
 6903SOL    HW127314  10.768  12.560   3.237 -2.5260 -2.7278 -0.0379
 6903SOL    HW227315  10.850  12.640   3.138  1.7115 -0.7978  4.5925
 6904SOL     OW27316   7.158   2.316   2.854  0.2577  0.5705 -0.0654
 6904SOL    HW127317   7.141   2.241   2.911 -1.1563  0.0133 -1.1795
 6904SOL    HW227318   7.214   2.373   2.907  0.9567 -1.0147  0.9955
 6905SOL     OW27319   8.922   8.599   7.553  0.1468 -0.3658 -0.0360
 6905SOL    HW127320   8.879   8.520   7.519  0.1170 -0.2516 -0.2721
 6905SOL    HW227321   8.967   8.570   7.632 -1.4743 -0.2145  0.9992
 6906SOL     OW27322   8.846   1.910   0.028 -0.2151  0.4135  0.0459
 6906SOL    HW127323   8.767   1.944  -0.014 -0.3616  0.5383  0.4157
 6906SOL    HW227324   8.881   1.985   0.076  1.1425  0.8679 -1.5730
 6907SOL     OW27325   3.600   0.353  10.339 -0.3930  0.3930 -0.2158
 6907SOL    HW127326   3.585   0.446  10.352 -0.4396  0.3506  0.0318
 6907SOL    HW227327   3.594   0.315  10.426  0.5338  0.2838 -0.1945
 6908SOL     OW27328   7.949  12.632  10.620 -0.1234  0.0554 -0.4177
 6908SOL    HW127329   8.018  12.699  10.616  1.2558 -1.3342 -0.8790
 6908SOL    HW227330   7.954  12.587  10.536 -2.0949  0.3462 -0.7423
 6909SOL     OW27331   8.133   9.446  12.652 -0.7483 -0.2204 -0.6912
 6909SOL    HW127332   8.168   9.504  12.585  0.6449  0.0355  0.1971
 6909SOL    HW227333   8.114   9.364  12.606  1.0605 -0.3605 -1.2774
 6910SOL     OW27334   7.235  11.793   1.636  0.1241 -0.1089 -0.0783
 6910SOL    HW127335   7.184  11.849   1.577 -1.6239  0.9048  2.2432
 6910SOL    HW227336   7.239  11.709   1.591 -1.8334  0.3891 -1.3173
 6911SOL     OW27337   5.700   5.465   4.925 -0.0630 -0.6876  0.1903
 6911SOL    HW127338   5.706   5.524   4.850 -0.1913  0.4349  1.0365
 6911SOL    HW227339   5.692   5.523   5.001 -1.5231 -1.8058  0.9386
 6912SOL     OW27340  11.869  10.622   1.871 -0.4399 -0.2290  0.2253
 6912SOL    HW127341  11.780  10.616   1.835 -0.2755 -2.4551  0.0428
 6912SOL    HW227342  11.925  10.587   1.802  0.3946 -0.3001  0.9214
 6913SOL     OW27343   6.084   3.463   8.008  0.1177  0.2441 -0.0500
 6913SOL    HW127344   6.077   3.437   8.100  1.7169 -0.2443 -0.0437
 6913SOL    HW227345   6.097   3.381   7.960  0.6458  0.6034 -0.5413
 6914SOL     OW27346   6.091   2.030   5.122  0.0835 -0.4410  0.5118
 6914SOL    HW127347   6.174   2.068   5.095  0.6968 -1.1229  1.4097
 6914SOL    HW227348   6.056   2.092   5.186 -1.5953  1.4236 -2.0163
 6915SOL     OW27349   3.288   5.862   7.819 -0.0392  0.2314  0.1904
 6915SOL    HW127350   3.257   5.922   7.887 -0.3563  1.2841 -0.8424
 6915SOL    HW227351   3.213   5.806   7.800 -0.2341  0.5298  0.0799
 6916SOL     OW27352   8.605   8.804   2.310  0.8368  0.0253  0.1883
 6916SOL    HW127353   8.568   8.887   2.279  0.3169  0.1583  1.1247
 6916SOL    HW227354   8.666   8.829   2.379  0.2499 -0.3863  0.8792
 6917SOL     OW27355  12.119   6.053   5.350 -0.3591 -0.6373  0.0500
 6917SOL    HW127356  12.056   5.985   5.374  1.2620 -2.2427  0.0147
 6917SOL    HW227357  12.176   6.061   5.427 -0.5055  0.6841  0.0384
 6918SOL     OW27358   0.515   9.229   7.628  0.6088 -0.2659  0.0636
 6918SOL    HW127359   0.609   9.229   7.644  0.5767 -1.4059  0.3233
 6918SOL    HW227360   0.483   9.307   7.672  0.8925 -1.8605  3.3666
 6919SOL     OW27361  12.239  10.817   2.943  0.1476  0.3213 -0.0694
 6919SOL    HW127362  12.209  10.797   3.031  1.2566 -0.8201  0.0798
 6919SOL    HW227363  12.249  10.912   2.942 -1.4994  0.5265  0.4770
 6920SOL     OW27364   3.687   2.955  10.974  0.3243  0.0139 -0.7561
 6920SOL    HW127365   3.597   2.945  11.006  0.2440  0.5326 -0.8042
 6920SOL    HW227366   3.678   3.003  10.892  0.6178 -0.2631 -0.9509
 6921SOL     OW27367  10.755   3.649  12.388 -0.5562  0.0376 -0.5308
 6921SOL    HW127368  10.835   3.675  12.343 -0.2506 -0.9117 -0.5672
 6921SOL    HW227369  10.783   3.580  12.449 -0.9469  1.3308  1.1908
 6922SOL     OW27370   7.852  12.032   4.791  0.5840  0.1715 -0.8828
 6922SOL    HW127371   7.850  11.976   4.868 -0.3432 -0.6820 -1.5142
 6922SOL    HW227372   7.881  12.117   4.824 -0.3915 -0.0173  0.5173
 6923SOL     OW27373  12.148   1.737  10.440 -0.0083 -0.1300  0.0475
 6923SOL    HW127374  12.200   1.764  10.364  0.3993 -2.1783 -0.4722
 6923SOL    HW227375  12.213   1.705  10.502 -0.4466  0.2387  0.6990
 6924SOL     OW27376   6.329   7.585   5.375 -0.0686  0.0220  0.0587
 6924SOL    HW127377   6.410   7.589   5.427 -0.7868 -0.5833  1.2741
 6924SOL    HW227378   6.279   7.662   5.401 -0.3759 -0.2140  0.1768
 6925SOL     OW27379   1.340  11.946   6.743 -0.0269  0.0533  1.0025
 6925SOL    HW127380   1.274  11.881   6.719  0.9074 -1.0042  1.2058
 6925SOL    HW227381   1.296  12.001   6.808 -1.2431  0.4264 -0.0940
 6926SOL     OW27382  11.019   6.667   5.209  0.0128 -0.6243 -0.4955
 6926SOL    HW127383  10.995   6.755   5.179  0.7285 -0.6492 -1.1809
 6926SOL    HW227384  10.994   6.665   5.302 -0.1612  0.2438 -0.5202
 6927SOL     OW27385   1.646  12.033   5.303 -0.2105 -0.0117  0.3202
 6927SOL    HW127386   1.712  11.999   5.363  0.7612  0.8610 -0.2244
 6927SOL    HW227387   1.616  12.114   5.343  0.4853  0.6061 -0.3622
 6928SOL     OW27388   8.852  12.342   3.622  0.4953 -0.6126 -0.3246
 6928SOL    HW127389   8.921  12.357   3.558  0.4053  0.7404 -0.1331
 6928SOL    HW227390   8.894  12.292   3.692  0.8919 -1.0737 -0.8890
 6929SOL     OW27391   2.369   6.430   8.253  0.4675 -0.0023 -0.5961
 6929SOL    HW127392   2.321   6.511   8.270  0.5489 -0.3092  1.3804
 6929SOL    HW227393   2.306   6.374   8.208  0.5921  1.3118 -2.5112
 6930SOL     OW27394   8.489  10.207   3.680  0.5162 -0.1443 -0.8959
 6930SOL    HW127395   8.553  10.277   3.689 -0.2457  0.3376  1.2036
 6930SOL    HW227396   8.522  10.135   3.734 -0.4158 -0.0830 -0.2106
 6931SOL     OW27397   3.244   6.987   5.494  0.2400  0.0440  0.2940
 6931SOL    HW127398   3.267   6.974   5.402  0.0827  0.4798  0.1907
 6931SOL    HW227399   3.284   7.071   5.517  0.4219 -0.1450  0.6741
 6932SOL     OW27400   2.989   4.344  10.583 -0.1244 -0.9378  0.3926
 6932SOL    HW127401   2.910   4.291  10.598 -1.1594  0.3472 -0.2997
 6932SOL    HW227402   2.963   4.433  10.608  0.7285 -0.2773 -0.9853
 6933SOL     OW27403  10.821   7.700   8.532 -0.5076  0.2111 -0.0073
 6933SOL    HW127404  10.899   7.754   8.543  0.7786 -1.6354  0.2594
 6933SOL    HW227405  10.786   7.726   8.447  0.7785  0.6013 -0.4357
 6934SOL     OW27406   1.468  10.807   6.499  0.4536  0.6113 -0.7187
 6934SOL    HW127407   1.438  10.717   6.489 -0.4567  0.8825 -0.5317
 6934SOL    HW227408   1.424  10.839   6.578  2.3689  0.5819  0.4065
 6935SOL     OW27409   1.291   7.334  11.186 -0.3059  0.1855  0.2471
 6935SOL    HW127410   1.202   7.367  11.194 -0.9241 -1.4243  0.4740
 6935SOL    HW227411   1.303   7.278  11.263  0.5486 -0.3955 -0.2906
 6936SOL     OW27412   3.212  10.893   0.031  0.4329 -0.4528 -0.5998
 6936SOL    HW127413   3.148  10.835  -0.010  0.0465 -0.1665 -0.4095
 6936SOL    HW227414   3.206  10.874   0.125 -0.6367  0.7982 -0.3816
 6937SOL     OW27415   2.224   2.163   7.257 -0.0318 -0.1868  0.4210
 6937SOL    HW127416   2.259   2.250   7.276  0.6794 -0.4497  0.3474
 6937SOL    HW227417   2.301   2.111   7.233 -0.5316 -0.6688 -0.1584
 6938SOL     OW27418   1.367   7.211   9.247  0.2162 -0.6260 -0.0248
 6938SOL    HW127419   1.312   7.220   9.170  0.3289 -1.0887 -0.1606
 6938SOL    HW227420   1.314   7.248   9.318  0.3629  0.3835 -0.4244
 6939SOL     OW27421   9.414   1.041   5.631  0.1989  0.1069  0.5701
 6939SOL    HW127422   9.334   1.081   5.667  0.7116  2.1611 -0.4296
 6939SOL    HW227423   9.394   1.027   5.539  0.7614  0.0079  0.4609
 6940SOL     OW27424   1.586   5.100   0.066  0.5233  0.5644  0.3368
 6940SOL    HW127425   1.533   5.062  -0.003 -0.8753  0.5284  1.3740
 6940SOL    HW227426   1.566   5.046   0.143  0.9586  1.4402  1.0760
 6941SOL     OW27427  10.404  12.484  10.475  0.2879 -0.6434  0.4696
 6941SOL    HW127428  10.330  12.525  10.519 -1.7888 -2.2297 -1.2834
 6941SOL    HW227429  10.480  12.509  10.527 -1.0803  3.1506  0.9558
 6942SOL     OW27430   9.777   6.286   4.062 -0.3840  0.3149  0.1478
 6942SOL    HW127431   9.768   6.338   3.983  0.0513 -1.4455 -1.1284
 6942SOL    HW227432   9.830   6.340   4.121 -0.3812  1.4902 -0.8986
 6943SOL     OW27433   4.189   1.463   9.283 -0.0984 -0.2985 -0.4954
 6943SOL    HW127434   4.242   1.506   9.350  0.8433 -1.5267 -0.4209
 6943SOL    HW227435   4.102   1.503   9.292  0.7810  1.7271 -0.6031
 6944SOL     OW27436   4.948   1.596   0.365  0.0819 -0.6697 -0.3486
 6944SOL    HW127437   4.957   1.544   0.286  0.8619  0.0863 -0.7702
 6944SOL    HW227438   5.036   1.596   0.404  0.5491  1.6571 -1.2222
 6945SOL     OW27439   3.312   2.261  10.106 -0.0416  0.0658  0.2507
 6945SOL    HW127440   3.233   2.294  10.149 -0.9101  1.7126 -2.3551
 6945SOL    HW227441   3.382   2.281  10.168 -1.5603 -1.2643  2.5584
 6946SOL     OW27442  11.593   3.175   4.825 -0.1132 -0.0172  1.0684
 6946SOL    HW127443  11.623   3.250   4.773  0.7626 -0.2783  1.1821
 6946SOL    HW227444  11.647   3.176   4.903  0.6498 -1.3568  0.6065
 6947SOL     OW27445   4.955   6.506   6.509  0.3628 -0.3426 -0.2277
 6947SOL    HW127446   4.888   6.565   6.475 -1.4590 -2.6921 -0.9464
 6947SOL    HW227447   4.932   6.420   6.474  2.4300 -1.6639  1.4016
 6948SOL     OW27448  11.591   2.842  10.808 -0.4369 -0.2362 -0.0414
 6948SOL    HW127449  11.536   2.892  10.747  0.1542  0.1105 -0.2952
 6948SOL    HW227450  11.678   2.881  10.800 -0.2504 -0.4775  0.6998
 6949SOL     OW27451   1.887   4.638   6.285 -0.3823  0.0176 -0.2902
 6949SOL    HW127452   1.850   4.553   6.312 -0.0057 -0.3497 -0.9055
 6949SOL    HW227453   1.974   4.639   6.325 -0.7562  0.5677  0.5536
 6950SOL     OW27454   0.408   8.133  12.321 -0.4832  0.5258  0.0277
 6950SOL    HW127455   0.468   8.108  12.391  2.1683  0.2864 -2.1846
 6950SOL    HW227456   0.345   8.191  12.364  0.2495 -0.5909  2.8339
 6951SOL     OW27457   3.862   9.000   4.326 -0.4793  0.6321 -0.3107
 6951SOL    HW127458   3.952   9.032   4.338  0.2300 -1.4159  0.2876
 6951SOL    HW227459   3.862   8.962   4.239  0.4842 -2.8625  1.0562
 6952SOL     OW27460  10.960   1.547   9.993  0.0867  0.2958  0.2986
 6952SOL    HW127461  10.879   1.496   9.993  0.1079  0.1400  2.6736
 6952SOL    HW227462  11.000   1.529  10.078  2.3354  0.8487 -0.5601
 6953SOL     OW27463  11.369   6.543   6.950  0.4172 -0.6230 -0.3837
 6953SOL    HW127464  11.333   6.544   6.861 -0.6954 -1.1470  0.0453
 6953SOL    HW227465  11.402   6.632   6.962  1.2506 -0.7468 -1.5729
 6954SOL     OW27466  10.805   1.595   7.267  0.0533  0.0810  0.0246
 6954SOL    HW127467  10.727   1.644   7.240  0.3928 -0.0057 -1.1517
 6954SOL    HW227468  10.876   1.632   7.216  0.5049 -0.9157 -0.0992
 6955SOL     OW27469   2.584   6.228   5.098  0.0126  0.0680 -0.3099
 6955SOL    HW127470   2.673   6.195   5.081 -0.8998 -1.7473 -1.9823
 6955SOL    HW227471   2.597   6.319   5.125  2.6693 -1.2633  3.9657
 6956SOL     OW27472   9.570   1.243   3.238 -0.6217 -0.2196 -0.0611
 6956SOL    HW127473   9.484   1.248   3.197 -0.8556  1.1837  0.5445
 6956SOL    HW227474   9.584   1.330   3.274  0.6950 -0.6762  0.5768
 6957SOL     OW27475   5.591   5.525   6.328 -0.0205  0.0730  0.1457
 6957SOL    HW127476   5.664   5.574   6.291 -0.9024  0.3613 -1.3156
 6957SOL    HW227477   5.595   5.543   6.422 -0.5583  3.3763 -0.3381
 6958SOL     OW27478   9.372   7.426   7.368  0.3462 -0.1633 -0.4499
 6958SOL    HW127479   9.413   7.422   7.455 -1.4055  0.8698  0.4791
 6958SOL    HW227480   9.368   7.519   7.348  1.0524 -0.4039 -1.8391
 6959SOL     OW27481   4.623   2.998   5.680 -0.3058  0.4293 -0.2877
 6959SOL    HW127482   4.673   2.921   5.653  0.1397  0.4916  0.3280
 6959SOL    HW227483   4.537   2.986   5.641 -0.3689 -0.5808  0.1410
 6960SOL     OW27484   5.899   2.669  12.418  0.3155  0.3623 -0.4898
 6960SOL    HW127485   5.851   2.717  12.487  0.3764 -0.0055 -0.1909
 6960SOL    HW227486   5.837   2.602  12.388 -0.1316  1.2365 -1.5957
 6961SOL     OW27487   5.070   5.552   6.324  0.0405 -0.2222 -0.1242
 6961SOL    HW127488   4.979   5.538   6.300 -0.5544  1.7683  0.7798
 6961SOL    HW227489   5.120   5.525   6.246 -1.3301 -0.7289 -0.8581
 6962SOL     OW27490   7.213   1.456   3.467  0.0515  0.4865 -0.2085
 6962SOL    HW127491   7.258   1.371   3.473 -0.3359  0.1727 -1.4407
 6962SOL    HW227492   7.137   1.447   3.525  1.2897  0.8616  1.5375
 6963SOL     OW27493   9.924   9.309   0.709 -0.1939 -0.2968  0.5141
 6963SOL    HW127494   9.963   9.375   0.766 -0.0001  0.0312  0.0136
 6963SOL    HW227495   9.967   9.227   0.731 -0.7380 -0.3449  1.4431
 6964SOL     OW27496   1.337  11.610   5.127 -0.2401  0.5329  0.1343
 6964SOL    HW127497   1.323  11.692   5.080  0.9490  1.6478  1.5963
 6964SOL    HW227498   1.432  11.596   5.122 -0.3516 -0.3911  0.4590
 6965SOL     OW27499   4.697   1.612   2.026  0.2965  0.0576 -0.3029
 6965SOL    HW127500   4.621   1.664   2.052  0.0100 -0.0905 -0.8328
 6965SOL    HW227501   4.771   1.654   2.070 -0.0324  0.4666 -0.1330
 6966SOL     OW27502   0.477  10.458   2.605  0.2528 -0.1296  0.1032
 6966SOL    HW127503   0.503  10.506   2.526 -0.7211  0.0541 -0.1199
 6966SOL    HW227504   0.382  10.451   2.598  0.3330 -1.7309  0.3483
 6967SOL     OW27505   5.633   0.506  10.143  0.2042  0.2885 -0.0181
 6967SOL    HW127506   5.618   0.478  10.052  1.0112 -0.1047 -0.0356
 6967SOL    HW227507   5.577   0.583  10.153 -1.0075 -0.5151 -0.3934
 6968SOL     OW27508  10.928   8.777  10.554 -0.2529  0.5404 -0.7135
 6968SOL    HW127509  10.979   8.727  10.490  1.0006 -0.8927  1.2688
 6968SOL    HW227510  10.977   8.858  10.565  1.4378 -0.6078  0.7845
 6969SOL     OW27511  12.249  11.729   7.029 -0.3050  0.5229  0.1009
 6969SOL    HW127512  12.193  11.774   7.092 -1.4708 -1.2668  0.4495
 6969SOL    HW227513  12.187  11.684   6.971  0.7312 -1.5330  0.4930
 6970SOL     OW27514   9.847   4.305   2.399 -0.4151 -0.8336 -0.0533
 6970SOL    HW127515   9.921   4.255   2.362 -0.9601 -1.8802  0.2199
 6970SOL    HW227516   9.844   4.385   2.348  1.9132 -0.0169  0.9557
 6971SOL     OW27517   6.615  12.438  11.822 -0.5819  0.1741 -0.0125
 6971SOL    HW127518   6.527  12.463  11.852 -1.3661  0.0850 -2.0917
 6971SOL    HW227519   6.672  12.508  11.853 -1.6096  0.9333  0.2204
 6972SOL     OW27520   9.100   8.017  10.382  0.0268  0.0990  0.1633
 6972SOL    HW127521   9.039   7.943  10.383 -2.1954  1.8108  0.3965
 6972SOL    HW227522   9.071   8.072  10.455  1.6404  1.1917  0.0258
 6973SOL     OW27523   2.891   2.289   8.902  0.0986  1.0019  0.2917
 6973SOL    HW127524   2.898   2.306   8.808 -0.2037  0.8267  0.2367
 6973SOL    HW227525   2.981   2.297   8.934  0.5972 -1.1032 -0.3853
 6974SOL     OW27526   5.866  12.452   7.467 -0.7543 -0.5072 -0.2349
 6974SOL    HW127527   5.924  12.526   7.449  0.4050 -1.7917 -2.1152
 6974SOL    HW227528   5.780  12.492   7.479  0.2154  1.3194  1.0925
 6975SOL     OW27529   6.524   0.316   6.624 -0.4719  0.0658  0.4007
 6975SOL    HW127530   6.520   0.409   6.648 -1.0687 -0.0604  0.8171
 6975SOL    HW227531   6.617   0.299   6.608 -0.6340  1.4688 -2.6766
 6976SOL     OW27532  12.115  10.702   3.752 -0.4892  0.1928 -0.3390
 6976SOL    HW127533  12.040  10.645   3.735  0.8509 -2.1459  0.9886
 6976SOL    HW227534  12.123  10.702   3.847  1.9599 -0.8018 -0.4671
 6977SOL     OW27535   3.195   8.732   9.183 -0.6411 -0.3547 -0.0818
 6977SOL    HW127536   3.128   8.797   9.203 -0.5180 -0.3397  0.2868
 6977SOL    HW227537   3.224   8.700   9.268  0.5542  0.3883 -0.1839
 6978SOL     OW27538   4.978   8.195  10.089 -0.3705  0.0284  0.6216
 6978SOL    HW127539   4.950   8.224  10.176 -0.0463 -1.0199  1.1038
 6978SOL    HW227540   5.002   8.103  10.102  0.3793  0.0610 -0.4228
 6979SOL     OW27541   2.012   3.797   1.919  0.1984  0.1409 -0.0688
 6979SOL    HW127542   1.991   3.780   2.011 -0.5062 -0.5752 -0.3461
 6979SOL    HW227543   2.108   3.801   1.917  0.2600 -0.6310  0.5778
 6980SOL     OW27544  12.179   4.749   4.861  0.2167 -0.2348  0.0646
 6980SOL    HW127545  12.273   4.762   4.868  0.6877 -2.5384 -0.8563
 6980SOL    HW227546  12.144   4.834   4.832  2.0359  0.5688  0.1264
 6981SOL     OW27547   5.072  10.136   9.438  0.4642  0.5831 -0.1158
 6981SOL    HW127548   4.985  10.165   9.468  1.4201  3.0129  0.4947
 6981SOL    HW227549   5.088  10.056   9.488 -1.3824  0.1063 -0.2017
 6982SOL     OW27550   1.505   8.968  11.040 -0.3821 -0.3252  0.2038
 6982SOL    HW127551   1.594   8.955  11.071  0.6231  0.2811 -2.1734
 6982SOL    HW227552   1.485   9.059  11.060  0.4383  0.1999 -1.1840
 6983SOL     OW27553   7.945  10.693   6.985 -0.1480  0.2638  0.5412
 6983SOL    HW127554   8.006  10.621   7.000  0.9324  1.0028 -0.1692
 6983SOL    HW227555   7.955  10.750   7.061  0.4389  0.6386  0.1923
 6984SOL     OW27556  10.547   7.982   5.239 -0.1033 -0.0467  0.0945
 6984SOL    HW127557  10.591   7.940   5.165 -1.0717 -0.0192 -0.5095
 6984SOL    HW227558  10.585   7.939   5.316 -0.1348 -1.1180 -0.4661
 6985SOL     OW27559   8.590  12.060   0.314  0.1240  0.0725  0.1194
 6985SOL    HW127560   8.519  12.071   0.251  1.4212  1.0864 -1.2367
 6985SOL    HW227561   8.635  11.980   0.286  0.1396  0.0123  0.3183
 6986SOL     OW27562   9.056   0.286  10.872  0.2340 -0.0112 -0.4390
 6986SOL    HW127563   9.086   0.245  10.953  1.9539  0.5411 -0.7573
 6986SOL    HW227564   9.019   0.369  10.900 -2.0168 -1.1121  0.0631
 6987SOL     OW27565   9.009   1.593   4.288 -0.4980 -0.2791  0.1865
 6987SOL    HW127566   9.066   1.662   4.254 -0.1026 -0.9241 -0.4907
 6987SOL    HW227567   8.933   1.640   4.324 -0.6526  0.4781 -1.0464
 6988SOL     OW27568  10.992   9.784   0.252 -0.3835  0.0836  0.4716
 6988SOL    HW127569  11.012   9.694   0.229  0.7978  0.5086 -0.2838
 6988SOL    HW227570  11.073   9.817   0.291 -1.1934  0.4615  1.8964
 6989SOL     OW27571   5.811   8.864   0.556  0.2807 -0.3928 -0.0786
 6989SOL    HW127572   5.786   8.948   0.596 -0.8477 -0.8182  0.1619
 6989SOL    HW227573   5.741   8.846   0.493  0.9864 -0.7229 -0.7744
 6990SOL     OW27574   5.014   7.644   6.865 -0.2966  0.3510 -0.4295
 6990SOL    HW127575   5.072   7.695   6.808 -0.2294  0.9660  0.1736
 6990SOL    HW227576   5.023   7.554   6.834 -0.3482  0.6868 -1.4574
 6991SOL     OW27577   6.375   2.720   5.413  0.1006 -0.5286 -0.0711
 6991SOL    HW127578   6.302   2.697   5.356 -0.8906  0.6675  0.6524
 6991SOL    HW227579   6.453   2.694   5.364 -0.7826 -1.5124 -1.0162
 6992SOL     OW27580   6.109   4.573  10.688 -0.3692  0.0025  0.4699
 6992SOL    HW127581   6.140   4.557  10.777  2.2897 -0.3972 -0.4470
 6992SOL    HW227582   6.139   4.661  10.668 -1.0608  0.1356  0.0077
 6993SOL     OW27583   6.401   8.495  12.606  0.1621 -0.0794 -0.4727
 6993SOL    HW127584   6.431   8.568  12.659 -1.4794  0.5376 -0.3340
 6993SOL    HW227585   6.384   8.425  12.669  0.4858 -0.1484 -0.4592
 6994SOL     OW27586   7.105   4.572   8.500  0.2403  0.2570  0.0078
 6994SOL    HW127587   7.156   4.644   8.464  1.1451 -0.5327 -0.3343
 6994SOL    HW227588   7.113   4.580   8.595 -1.2590  1.7119  0.0677
 6995SOL     OW27589   1.261  12.220   4.938  0.7601 -0.5034  0.0830
 6995SOL    HW127590   1.338  12.242   4.885 -0.2489  0.2751 -1.1052
 6995SOL    HW227591   1.297  12.194   5.023  2.3455 -0.4391 -0.5371
 6996SOL     OW27592  11.284   9.874  10.592  0.0640 -0.4557 -0.5245
 6996SOL    HW127593  11.353   9.878  10.658 -0.0083 -0.6003 -0.4392
 6996SOL    HW227594  11.329   9.887  10.509  0.1761 -0.4263 -0.4590
 6997SOL     OW27595   7.680  10.170   3.499 -0.2985  0.3340 -0.7756
 6997SOL    HW127596   7.661  10.253   3.454 -0.3129  0.1616 -1.0954
 6997SOL    HW227597   7.627  10.106   3.451 -0.1445  0.1120 -0.6455
 6998SOL     OW27598  12.297   9.423   6.662  0.1414  0.1809 -0.2029
 6998SOL    HW127599  12.265   9.361   6.727  0.0402 -0.6605 -1.0241
 6998SOL    HW227600  12.240   9.499   6.670 -1.6580 -1.0129 -1.1649
 6999SOL     OW27601   9.820   2.413   8.005  0.9426 -0.4706  0.0885
 6999SOL    HW127602   9.866   2.413   7.921  0.8753 -0.5156  0.0519
 6999SOL    HW227603   9.854   2.490   8.050  0.4822 -0.0660 -0.2488
 7000SOL     OW27604  10.906  12.459   0.632  0.3751  0.3172 -0.4566
 7000SOL    HW127605  10.868  12.514   0.701 -0.5973 -1.1646  0.2555
 7000SOL    HW227606  10.972  12.514   0.590  1.5590  1.0693  2.1608
 7001SOL     OW27607   9.684   3.553   3.549  0.6713  0.4411 -0.1049
 7001SOL    HW127608   9.701   3.608   3.472  0.3519 -0.8871 -1.1643
 7001SOL    HW227609   9.600   3.511   3.530  0.7940 -0.2284  0.7895
 7002SOL     OW27610   3.549   3.664  10.895 -0.1492  0.0534  0.2767
 7002SOL    HW127611   3.620   3.687  10.956 -0.3100  0.0048  0.4858
 7002SOL    HW227612   3.563   3.571  10.876  0.1348  0.1707 -0.0742
 7003SOL     OW27613  10.711   8.373   9.733 -0.1622 -0.1961 -0.2462
 7003SOL    HW127614  10.787   8.321   9.758 -0.1993  0.1498  0.6036
 7003SOL    HW227615  10.654   8.371   9.810 -0.0883  1.2275 -0.1325
 7004SOL     OW27616   8.547   1.245  11.311 -0.2023 -0.3797 -0.1025
 7004SOL    HW127617   8.523   1.338  11.301  0.1125 -0.3960 -1.2295
 7004SOL    HW227618   8.633   1.248  11.353 -0.4662 -0.1838  0.4293
 7005SOL     OW27619   8.998  10.865   7.605  0.1182 -0.5236  1.1754
 7005SOL    HW127620   8.949  10.789   7.572 -1.3073  0.6200  0.5180
 7005SOL    HW227621   8.967  10.876   7.695  1.1095 -1.3264  1.6280
 7006SOL     OW27622   7.329   4.341  10.058  0.5731  0.4956  0.0027
 7006SOL    HW127623   7.244   4.382  10.042  0.0001 -0.7640 -0.3678
 7006SOL    HW227624   7.327   4.262  10.004  2.7120  1.3258 -1.4169
 7007SOL     OW27625   1.169   8.063   7.930 -0.0004  0.2796  0.3312
 7007SOL    HW127626   1.096   8.125   7.924 -0.1454  0.0587 -0.2185
 7007SOL    HW227627   1.231   8.094   7.865 -0.5502 -0.7829 -0.7311
 7008SOL     OW27628   4.628   2.260   8.367 -0.1949 -0.1699 -0.4096
 7008SOL    HW127629   4.703   2.207   8.391 -0.5137 -0.5797 -0.3058
 7008SOL    HW227630   4.590   2.216   8.291  1.0855  1.3854 -2.0464
 7009SOL     OW27631  10.169   6.245   1.507  0.3512  0.8510  0.3457
 7009SOL    HW127632  10.135   6.202   1.585  0.3349 -2.2064 -1.1939
 7009SOL    HW227633  10.264   6.245   1.520  0.2948  1.3991  0.8207
 7010SOL     OW27634   7.532   3.685   5.822 -0.4227 -0.1361  0.0936
 7010SOL    HW127635   7.460   3.725   5.773  1.2930  1.4385 -1.2917
 7010SOL    HW227636   7.566   3.756   5.877  0.2902 -0.7512  0.4658
 7011SOL     OW27637   0.275  12.132   6.989  0.2193 -0.2525  0.2511
 7011SOL    HW127638   0.339  12.093   6.930  1.2438 -0.3442  1.3919
 7011SOL    HW227639   0.233  12.057   7.032 -0.6022 -0.1905 -0.4314
 7012SOL     OW27640  10.618   5.196   8.882  0.0637  0.6569  0.0182
 7012SOL    HW127641  10.678   5.171   8.812  0.4955 -1.5025  1.0859
 7012SOL    HW227642  10.675   5.223   8.953 -0.1478 -1.2544  0.9839
 7013SOL     OW27643   2.866  12.510  12.206  0.2129 -0.4168  0.2005
 7013SOL    HW127644   2.854  12.432  12.259  0.5309 -0.2388  0.5420
 7013SOL    HW227645   2.779  12.530  12.172  0.1476 -0.9622  0.0491
 7014SOL     OW27646   6.977   8.838   9.079  0.1888 -0.9996  0.1377
 7014SOL    HW127647   7.071   8.834   9.058  0.8747 -0.2776  2.6742
 7014SOL    HW227648   6.934   8.855   8.995  2.4085 -0.3835 -0.9512
 7015SOL     OW27649   0.860   1.085   7.007 -0.3845  0.1556 -0.2905
 7015SOL    HW127650   0.854   0.990   6.998 -0.4774  0.0866  0.4374
 7015SOL    HW227651   0.920   1.112   6.938  0.9136 -0.6362  0.4851
 7016SOL     OW27652   1.252  11.294   4.011  0.2716 -0.3355 -0.4537
 7016SOL    HW127653   1.250  11.269   3.919 -0.5978 -1.3133 -0.1857
 7016SOL    HW227654   1.161  11.284   4.040  0.8773 -2.0668  1.0233
 7017SOL     OW27655   4.467   2.482   4.533  0.4862  0.2037 -0.0943
 7017SOL    HW127656   4.436   2.415   4.594  0.2325 -0.0428 -0.4851
 7017SOL    HW227657   4.562   2.467   4.527  0.8543  1.5404  1.8004
 7018SOL     OW27658  10.178   8.862  11.548 -0.4643 -0.0549 -0.5390
 7018SOL    HW127659  10.138   8.940  11.588 -0.3534  0.3475 -1.1958
 7018SOL    HW227660  10.248   8.839  11.608 -1.8561 -0.9721  0.8053
 7019SOL     OW27661  10.325  12.078   6.275  0.2959 -0.5837  0.8163
 7019SOL    HW127662  10.275  12.089   6.194 -1.1360  0.6398  1.7939
 7019SOL    HW227663  10.311  12.160   6.323  1.4399 -1.1108  2.1230
 7020SOL     OW27664   2.206   6.201   5.348 -0.2711  0.0005 -0.2727
 7020SOL    HW127665   2.292   6.212   5.388 -0.0071 -1.5202 -0.3536
 7020SOL    HW227666   2.218   6.231   5.258  0.4444 -1.0623 -0.5491
 7021SOL     OW27667  11.752   1.072   5.752  0.3118 -0.5682 -0.5048
 7021SOL    HW127668  11.690   1.141   5.728 -0.2420 -0.9820 -0.2869
 7021SOL    HW227669  11.829   1.089   5.697  0.2988  0.3821 -0.2540
 7022SOL     OW27670   0.746   4.783   3.372  0.1808 -0.4698  0.4232
 7022SOL    HW127671   0.665   4.820   3.338 -0.1820 -2.3169 -0.8916
 7022SOL    HW227672   0.718   4.704   3.418  1.2400 -1.3271 -0.3590
 7023SOL     OW27673  10.610  11.517   1.116  0.4662  0.6198  0.4675
 7023SOL    HW127674  10.704  11.500   1.123  0.3614 -0.4092 -0.3717
 7023SOL    HW227675  10.595  11.528   1.022 -0.6200 -1.5797  0.3342
 7024SOL     OW27676   1.878   2.389   5.544  0.4115 -0.4834  0.2804
 7024SOL    HW127677   1.885   2.484   5.534  0.5672 -0.2230  2.3710
 7024SOL    HW227678   1.910   2.354   5.461  1.1930  1.2668 -0.2209
 7025SOL     OW27679   5.595  11.232   7.221 -0.6374 -0.2861 -0.0449
 7025SOL    HW127680   5.512  11.207   7.262 -1.3011  1.8394  0.0210
 7025SOL    HW227681   5.616  11.317   7.259  0.4043  0.2505 -1.7309
 7026SOL     OW27682   6.334  12.049  10.414  0.6966  0.3080 -0.0626
 7026SOL    HW127683   6.252  12.042  10.462  0.7984  0.9030  0.2098
 7026SOL    HW227684   6.309  12.039  10.322  0.8177 -3.5551  0.1672
 7027SOL     OW27685  12.399   0.239  10.316  0.3164  0.6341 -0.5455
 7027SOL    HW127686  12.463   0.295  10.360 -0.7621  1.9767 -0.6326
 7027SOL    HW227687  12.315   0.261  10.356 -0.0837 -1.3695 -0.1720
 7028SOL     OW27688   5.657   2.410   4.408  0.1884 -0.2867 -0.5014
 7028SOL    HW127689   5.673   2.360   4.489 -1.1526 -0.4004 -0.2759
 7028SOL    HW227690   5.592   2.475   4.433 -0.0306 -0.1405 -1.4233
 7029SOL     OW27691   6.468   2.899   3.896  0.0176  0.2499  0.4527
 7029SOL    HW127692   6.459   2.979   3.845 -1.7750 -1.0127 -1.4048
 7029SOL    HW227693   6.395   2.902   3.958  1.6035  1.3024  2.3890
 7030SOL     OW27694   7.961   9.325   2.115 -0.4159  0.3379 -0.3382
 7030SOL    HW127695   7.944   9.390   2.183 -0.7578  1.2890 -1.2976
 7030SOL    HW227696   7.880   9.275   2.109  0.2148 -0.9362  1.1573
 7031SOL     OW27697   1.617   7.223   1.238 -0.3108 -0.4349  0.2838
 7031SOL    HW127698   1.667   7.201   1.159  0.5873 -0.5454  0.8715
 7031SOL    HW227699   1.605   7.318   1.233 -0.1963 -0.4326  0.0504
 7032SOL     OW27700   5.779   6.510   8.938 -0.1900  0.1147 -0.5269
 7032SOL    HW127701   5.748   6.599   8.958 -1.3949 -0.4730  0.3078
 7032SOL    HW227702   5.768   6.502   8.843  0.4422  1.0395 -0.6890
 7033SOL     OW27703   4.472   1.176   2.582 -0.3481 -0.0801 -0.3803
 7033SOL    HW127704   4.501   1.148   2.495  2.6837  2.1226 -0.2162
 7033SOL    HW227705   4.495   1.268   2.587 -4.2289  0.9986  1.3564
 7034SOL     OW27706   7.319   1.941   9.979 -0.3182 -0.4782 -0.2596
 7034SOL    HW127707   7.259   1.903   9.915  0.4138  0.2101 -1.3886
 7034SOL    HW227708   7.395   1.969   9.927 -0.7608  2.4458  0.4915
 7035SOL     OW27709   6.284   8.677  10.111  0.0258 -0.5903 -1.0353
 7035SOL    HW127710   6.344   8.605  10.134  0.9757  0.8667  1.5366
 7035SOL    HW227711   6.205   8.660  10.162  0.0171 -0.1425 -0.8935
 7036SOL     OW27712   1.477   6.717  12.277  0.3428  0.0251 -0.4238
 7036SOL    HW127713   1.425   6.753  12.205  0.7055  0.9728 -0.2292
 7036SOL    HW227714   1.437   6.632  12.296 -1.3532  0.8626 -0.0688
 7037SOL     OW27715   4.134   8.639   3.784 -0.4052 -0.0545 -0.0281
 7037SOL    HW127716   4.170   8.694   3.854  2.4700 -2.0166  0.2013
 7037SOL    HW227717   4.176   8.671   3.705 -0.7468 -0.2572 -0.2937
 7038SOL     OW27718   6.489   2.542   2.105  0.2069  0.0526  0.1303
 7038SOL    HW127719   6.543   2.612   2.068  0.3949  0.0662  0.4326
 7038SOL    HW227720   6.542   2.463   2.095 -1.0596 -0.5813 -2.7435
 7039SOL     OW27721   9.861   9.251   7.226  0.3561 -0.2708  0.1945
 7039SOL    HW127722   9.814   9.222   7.147 -0.2246 -0.0710  0.4616
 7039SOL    HW227723   9.857   9.346   7.223 -2.4107 -0.2294  2.0326
 7040SOL     OW27724   8.201   7.326   8.051 -0.7158 -0.0735  0.3818
 7040SOL    HW127725   8.232   7.236   8.039 -0.7727 -0.1152  0.5500
 7040SOL    HW227726   8.215   7.368   7.966  1.1289  0.3085  0.8392
 7041SOL     OW27727   4.218   7.420   2.191  0.3516 -0.4726  0.5307
 7041SOL    HW127728   4.167   7.501   2.200 -1.6473 -1.3841 -1.3455
 7041SOL    HW227729   4.156   7.350   2.213  1.5732 -1.5641  0.6239
 7042SOL     OW27730   0.102  10.570   3.361  0.2107  0.1200  0.0590
 7042SOL    HW127731   0.110  10.589   3.455  0.0824  0.2053  0.0532
 7042SOL    HW227732   0.017  10.528   3.353  0.8148 -1.1746  0.1885
 7043SOL     OW27733   0.698   5.172   3.397  0.5327  0.3890  0.1909
 7043SOL    HW127734   0.778   5.158   3.345  0.7718 -1.9438  1.0646
 7043SOL    HW227735   0.629   5.182   3.331  0.9005 -2.0113 -0.6592
 7044SOL     OW27736  11.650   8.636   8.485  0.2865  0.0945 -0.6049
 7044SOL    HW127737  11.578   8.616   8.545  0.3534  0.1128 -0.5185
 7044SOL    HW227738  11.607   8.652   8.401  0.0884  1.2468 -0.2968
 7045SOL     OW27739   9.444  12.184   5.734 -0.4746 -0.4976  0.1862
 7045SOL    HW127740   9.458  12.102   5.687  0.9641 -0.4543  0.5207
 7045SOL    HW227741   9.473  12.166   5.824  0.1969  0.4789  0.1720
 7046SOL     OW27742   3.072  12.767   3.932  0.2444 -0.2516  0.2157
 7046SOL    HW127743   3.038  12.849   3.966  1.8518  0.9391 -0.8650
 7046SOL    HW227744   3.163  12.764   3.963  0.8009 -0.6135 -1.3338
 7047SOL     OW27745   8.453   0.069   0.704  0.1512  0.5052 -0.1794
 7047SOL    HW127746   8.543   0.065   0.671  0.6153  0.8193  0.9993
 7047SOL    HW227747   8.405   0.120   0.638  1.1372  1.4395 -0.2041
 7048SOL     OW27748  12.221   7.872   9.384  0.2872 -0.1572  0.0283
 7048SOL    HW127749  12.305   7.839   9.352  0.5329  0.4984 -0.0227
 7048SOL    HW227750  12.158   7.804   9.360  0.6366 -0.1718 -0.9096
 7049SOL     OW27751   4.753   1.312   8.349  0.3050  0.5650  0.2571
 7049SOL    HW127752   4.785   1.236   8.300  0.6370 -0.3788  1.8992
 7049SOL    HW227753   4.833   1.357   8.378  0.1068  0.6292  0.6962
 7050SOL     OW27754   8.164   4.713   4.689  0.0881  0.3336 -0.0154
 7050SOL    HW127755   8.164   4.625   4.651  0.0657  0.9165 -1.4088
 7050SOL    HW227756   8.232   4.709   4.757 -1.1569 -1.2661  1.2501
 7051SOL     OW27757  10.295   7.709   7.315 -0.1935 -0.3904 -0.3427
 7051SOL    HW127758  10.227   7.671   7.259  0.6036  0.7979 -2.2436
 7051SOL    HW227759  10.316   7.640   7.377 -1.3698 -1.6957 -1.3224
 7052SOL     OW27760  11.839   5.417   8.551 -1.0159  0.0136  0.1183
 7052SOL    HW127761  11.929   5.448   8.541 -1.6433  2.5679  1.4671
 7052SOL    HW227762  11.843   5.356   8.625 -0.0042 -2.1590 -1.6119
 7053SOL     OW27763   3.991   2.770   4.742  0.2730 -0.3369  0.5589
 7053SOL    HW127764   3.930   2.839   4.716  0.9631 -0.1029 -0.5201
 7053SOL    HW227765   4.077   2.812   4.740  0.6966 -1.1925 -0.0457
 7054SOL     OW27766   4.326   0.609   6.665 -0.4234  0.1592  0.2362
 7054SOL    HW127767   4.299   0.688   6.711 -0.0148  0.4280  0.0212
 7054SOL    HW227768   4.261   0.599   6.595 -0.6586  0.1236  0.4574
 7055SOL     OW27769  10.614   1.217   4.464 -0.0872 -0.6375  0.5667
 7055SOL    HW127770  10.682   1.150   4.459  0.7524  0.2125  0.1474
 7055SOL    HW227771  10.553   1.196   4.393 -0.7903 -1.9437  1.5291
 7056SOL     OW27772  12.242   8.708   5.822  0.1715  0.0160  0.1897
 7056SOL    HW127773  12.206   8.792   5.793  1.3331  0.8643  1.1042
 7056SOL    HW227774  12.184   8.642   5.782 -0.2404  1.2049 -1.2697
 7057SOL     OW27775   9.536   2.109   8.574  0.2603 -0.2341 -0.0719
 7057SOL    HW127776   9.544   2.116   8.669  0.4127  0.7018 -0.1451
 7057SOL    HW227777   9.624   2.083   8.545  0.2983 -0.2057  0.0166
 7058SOL     OW27778  10.095   3.468  11.165  0.5412 -0.2027  0.1911
 7058SOL    HW127779  10.016   3.508  11.129  0.1464  1.2548  2.4597
 7058SOL    HW227780  10.162   3.483  11.098 -0.5411  0.7263 -0.7357
 7059SOL     OW27781   0.653   8.472   7.431  0.0179  0.5851  0.5208
 7059SOL    HW127782   0.670   8.494   7.340  0.3792  0.4691  0.5584
 7059SOL    HW227783   0.615   8.385   7.428  0.5847  0.3291  0.5161
 7060SOL     OW27784   1.103   8.121  12.570  0.4132  0.2519  0.9112
 7060SOL    HW127785   1.165   8.185  12.606  0.3651  0.5115  0.5333
 7060SOL    HW227786   1.027   8.127  12.627  0.1878  0.9362  0.5471
 7061SOL     OW27787   0.689   6.271   9.542  0.1042 -0.1311 -0.2472
 7061SOL    HW127788   0.682   6.197   9.481  0.3711  0.0100 -0.4528
 7061SOL    HW227789   0.629   6.337   9.507 -0.3043 -0.3352  0.0631
 7062SOL     OW27790  12.217  11.664   0.522  0.1416 -0.7529  0.0541
 7062SOL    HW127791  12.312  11.653   0.530  0.3012 -1.5368 -2.0579
 7062SOL    HW227792  12.206  11.724   0.448 -0.9366 -3.1741 -1.9482
 7063SOL     OW27793   0.014   2.910   4.950  0.0825 -0.1121  0.3033
 7063SOL    HW127794  -0.024   2.983   4.902 -0.2789 -0.4602  0.0492
 7063SOL    HW227795   0.107   2.931   4.958  0.1836 -0.1483 -0.7206
 7064SOL     OW27796  12.422   5.257   2.466 -0.0105 -0.3110 -0.2259
 7064SOL    HW127797  12.430   5.164   2.485  0.0752  0.2132  2.9290
 7064SOL    HW227798  12.327   5.274   2.468  0.0316 -0.1261  0.6097
 7065SOL     OW27799   8.209   3.228   5.469  0.0243 -0.2975  0.2844
 7065SOL    HW127800   8.149   3.156   5.489  1.8930 -1.8426  0.7009
 7065SOL    HW227801   8.289   3.184   5.440  1.5155  1.5893  1.3309
 7066SOL     OW27802   4.859  12.164   2.305 -0.1629 -0.4840 -0.1556
 7066SOL    HW127803   4.920  12.175   2.232 -0.6730  0.2758 -0.4646
 7066SOL    HW227804   4.795  12.234   2.295 -0.0138 -0.1264  1.2496
 7067SOL     OW27805   3.803   9.437   7.305 -0.0511 -1.1233  0.0569
 7067SOL    HW127806   3.839   9.355   7.340 -0.4370 -1.4501 -0.3132
 7067SOL    HW227807   3.782   9.418   7.214 -0.8414 -0.8279  0.1708
 7068SOL     OW27808  11.362   1.273   6.531 -0.1665  0.0480  0.4820
 7068SOL    HW127809  11.388   1.327   6.457  0.3349  1.3595  1.5700
 7068SOL    HW227810  11.267   1.286   6.538 -0.2155 -0.0888  0.0615
 7069SOL     OW27811   3.691   7.338   7.455 -0.7774  0.4068  0.0664
 7069SOL    HW127812   3.734   7.362   7.537  1.0822 -0.8258 -0.4824
 7069SOL    HW227813   3.744   7.266   7.421 -2.6169 -0.3548 -1.2944
 7070SOL     OW27814   4.737   7.722   4.612  0.6254  0.1278 -0.3061
 7070SOL    HW127815   4.704   7.635   4.634  0.9401  0.1728  0.3829
 7070SOL    HW227816   4.670   7.760   4.555  0.2390 -0.3695 -0.1887
 7071SOL     OW27817   4.450   7.458  12.522 -0.0712 -0.0009  0.0484
 7071SOL    HW127818   4.529   7.430  12.569 -0.2357 -1.3553 -0.4522
 7071SOL    HW227819   4.484   7.507  12.446  0.2089  4.1205  2.4880
 7072SOL     OW27820   3.266  10.464  12.528 -0.0235 -0.2211 -0.1601
 7072SOL    HW127821   3.222  10.537  12.573 -0.5336 -0.3032 -0.5258
 7072SOL    HW227822   3.201  10.394  12.526  0.2508 -0.4723 -0.3852
 7073SOL     OW27823  10.029   7.456   5.931 -0.0176 -0.0690  0.1282
 7073SOL    HW127824  10.080   7.431   5.853 -0.8543  1.5117 -0.9846
 7073SOL    HW227825  10.025   7.551   5.927 -0.2556  0.0381  2.0454
 7074SOL     OW27826   3.488   8.440   1.924 -0.1436  0.1837 -0.1650
 7074SOL    HW127827   3.574   8.399   1.920 -0.5272 -0.5900 -0.8345
 7074SOL    HW227828   3.484   8.480   2.011  0.9116  0.3007 -0.1571
 7075SOL     OW27829   2.379   1.376   7.303 -0.7072 -0.1016 -0.2266
 7075SOL    HW127830   2.301   1.430   7.309  0.6562  2.2760 -2.0157
 7075SOL    HW227831   2.358   1.310   7.236 -1.6480 -0.4137  0.3686
 7076SOL     OW27832  10.351   7.632   4.878  0.2615 -0.1038  0.2535
 7076SOL    HW127833  10.313   7.716   4.850  0.8524  0.7315  1.8293
 7076SOL    HW227834  10.277   7.579   4.905 -0.2126 -0.4965 -1.6843
 7077SOL     OW27835   7.851  10.651   7.532  0.2741 -0.9045 -0.3579
 7077SOL    HW127836   7.939  10.669   7.566  0.9606 -1.0543 -1.9643
 7077SOL    HW227837   7.804  10.733   7.544  1.0307 -0.4197 -0.6349
 7078SOL     OW27838   4.487   4.303   4.942  0.1720  0.0761  0.0998
 7078SOL    HW127839   4.450   4.241   4.878  1.5896 -0.9319  0.2110
 7078SOL    HW227840   4.537   4.365   4.890 -0.3826  0.5190  0.0801
 7079SOL     OW27841   7.049   0.314   7.377 -0.2911  0.1966  0.3794
 7079SOL    HW127842   7.036   0.399   7.336 -3.9589 -0.6980 -0.7338
 7079SOL    HW227843   6.980   0.308   7.444 -2.1527 -2.8581 -1.5435
 7080SOL     OW27844   1.378   5.061   3.145  0.3048 -0.5507  0.0277
 7080SOL    HW127845   1.451   5.112   3.181 -0.0881 -0.4708  0.7189
 7080SOL    HW227846   1.347   5.008   3.218  0.2941 -1.3199 -0.5169
 7081SOL     OW27847  10.370   2.109   4.130 -0.4076  0.1022 -0.4489
 7081SOL    HW127848  10.301   2.150   4.182 -0.5528 -0.7166  0.0231
 7081SOL    HW227849  10.451   2.145   4.165 -0.4990 -0.5052  0.4171
 7082SOL     OW27850   2.900   8.404   5.059  0.1503 -0.4010  0.1549
 7082SOL    HW127851   2.915   8.477   4.998  1.3251 -0.2443  0.6236
 7082SOL    HW227852   2.934   8.327   5.013  1.8468 -0.1508  0.9344
 7083SOL     OW27853   5.865  11.510   8.633  0.0530 -0.3697  0.7192
 7083SOL    HW127854   5.941  11.460   8.602  0.7527  1.2614 -0.3764
 7083SOL    HW227855   5.824  11.543   8.553  0.7739  2.3660  1.3555
 7084SOL     OW27856   2.917   4.935   7.405  0.2121 -0.6113 -0.1846
 7084SOL    HW127857   2.997   4.898   7.440  1.2504 -0.1962 -1.9933
 7084SOL    HW227858   2.848   4.875   7.433  1.3170 -1.6766  0.3319
 7085SOL     OW27859  10.834   4.562  11.166  0.9538  0.3950  0.0804
 7085SOL    HW127860  10.893   4.637  11.155  2.4417 -0.6991  0.2434
 7085SOL    HW227861  10.890   4.486  11.150 -0.7619 -0.6663 -1.1400
 7086SOL     OW27862   5.325  12.356   4.194 -0.1859  0.6388  0.1647
 7086SOL    HW127863   5.377  12.417   4.142  1.1531 -0.9856 -0.5280
 7086SOL    HW227864   5.237  12.362   4.158  0.2895  0.9832 -0.9943
 7087SOL     OW27865   4.806   0.523  11.530  0.5532 -0.2845  0.0993
 7087SOL    HW127866   4.901   0.511  11.543  0.3177 -0.3993  2.2064
 7087SOL    HW227867   4.785   0.598  11.585 -0.6876 -0.7262  0.2471
 7088SOL     OW27868   0.072   8.316   5.733 -0.2093  0.2192  0.0585
 7088SOL    HW127869  -0.020   8.341   5.721 -0.4849 -0.1902  1.1678
 7088SOL    HW227870   0.083   8.310   5.828  1.0840  0.6761 -0.0403
 7089SOL     OW27871   3.682   9.394   6.295  0.0044  0.2411 -0.2879
 7089SOL    HW127872   3.745   9.447   6.246 -0.3665  0.6438 -0.3461
 7089SOL    HW227873   3.732   9.356   6.367  0.4772 -0.0771 -0.7855
 7090SOL     OW27874   1.006   8.285   7.814 -0.7660 -0.3721 -0.0402
 7090SOL    HW127875   0.914   8.302   7.833 -0.0759  1.5709  1.9762
 7090SOL    HW227876   1.032   8.355   7.755  0.1503  1.1038  1.9997
 7091SOL     OW27877   2.261   7.576   1.429  0.1444  0.0617  0.8436
 7091SOL    HW127878   2.175   7.616   1.435  0.2137  0.4410 -0.4500
 7091SOL    HW227879   2.308   7.629   1.365  0.7100 -1.2423  0.1374
 7092SOL     OW27880   8.967   4.356   2.492 -0.0648  0.4017 -0.1758
 7092SOL    HW127881   9.047   4.400   2.463  1.4204 -2.7279 -1.3361
 7092SOL    HW227882   8.909   4.359   2.416  0.1437  0.1606 -0.3481
 7093SOL     OW27883   6.248   9.508   2.906 -0.6380 -0.2067 -0.3729
 7093SOL    HW127884   6.281   9.507   2.996 -0.5757 -0.1538 -0.3948
 7093SOL    HW227885   6.325   9.489   2.852 -0.9281 -1.5462 -0.3360
 7094SOL     OW27886   1.525  11.065   7.093  0.1371  0.0847 -0.6882
 7094SOL    HW127887   1.455  11.129   7.100  1.2272  1.1887  0.6062
 7094SOL    HW227888   1.531  11.047   6.999 -1.3199  0.5624 -0.9014
 7095SOL     OW27889   8.537   8.384   4.384 -0.3481  0.5262 -0.2352
 7095SOL    HW127890   8.470   8.439   4.423 -0.3287 -0.0814  0.6768
 7095SOL    HW227891   8.572   8.437   4.312 -1.1757  1.2017 -0.1585
 7096SOL     OW27892   7.156   4.779   9.625 -0.1011 -0.1191 -0.3957
 7096SOL    HW127893   7.093   4.845   9.655 -0.8385 -0.0917 -1.9219
 7096SOL    HW227894   7.242   4.820   9.637 -0.4783  0.5511  0.0330
 7097SOL     OW27895   2.091  11.961   1.957 -0.1682  0.3738  0.0410
 7097SOL    HW127896   2.108  11.946   2.049 -1.0680 -2.9293 -0.2082
 7097SOL    HW227897   2.045  11.882   1.928  1.3891  0.5984 -3.5725
 7098SOL     OW27898   6.623   8.513   9.492 -0.5178  0.1369 -0.0151
 7098SOL    HW127899   6.687   8.448   9.522 -0.1104  0.7562  0.4652
 7098SOL    HW227900   6.661   8.547   9.411 -0.1586  0.6118  0.3484
 7099SOL     OW27901  10.459   0.440   6.123 -0.0057 -0.0718  0.0813
 7099SOL    HW127902  10.501   0.490   6.192  0.3937 -0.5493  0.1958
 7099SOL    HW227903  10.527   0.428   6.057 -0.5299  0.8159 -0.6342
 7100SOL     OW27904   0.019   2.535   5.226 -0.0238  0.0016 -0.0011
 7100SOL    HW127905  -0.022   2.620   5.218  0.3038  0.1217 -0.4859
 7100SOL    HW227906  -0.004   2.489   5.145 -0.1000 -0.3252  0.2018
 7101SOL     OW27907   1.078   6.917  11.901 -0.1316  0.7041 -0.4529
 7101SOL    HW127908   1.120   6.992  11.943  0.2283  0.4937 -0.4324
 7101SOL    HW227909   1.133   6.842  11.925 -0.0108  0.5581 -1.1705
 7102SOL     OW27910  11.073   1.188   1.202  0.3552  0.3234 -0.0624
 7102SOL    HW127911  10.988   1.232   1.207  0.2970  0.3406 -1.1206
 7102SOL    HW227912  11.051   1.096   1.186  0.4973 -0.0377  1.5609
 7103SOL     OW27913   3.219   6.634   7.841 -0.3060 -0.5122  1.0019
 7103SOL    HW127914   3.312   6.617   7.858  0.1403  1.2991  0.5561
 7103SOL    HW227915   3.174   6.588   7.912  0.8229 -2.2965  0.6530
 7104SOL     OW27916  10.897   7.126  12.045 -0.4289  0.3601  1.0199
 7104SOL    HW127917  10.969   7.105  12.105 -0.2168  0.7961  0.9166
 7104SOL    HW227918  10.818   7.099  12.092 -0.1249 -1.5865  0.5201
 7105SOL     OW27919   9.114   4.813   4.280 -0.5867 -0.3845 -0.0494
 7105SOL    HW127920   9.038   4.771   4.242  0.0218 -1.1859 -0.4200
 7105SOL    HW227921   9.184   4.798   4.217 -0.1180  0.3358  0.2826
 7106SOL     OW27922  11.332   5.571   4.049 -0.3729  0.0929  0.2847
 7106SOL    HW127923  11.268   5.614   3.992  0.1792  1.0558  0.3769
 7106SOL    HW227924  11.310   5.478   4.043 -1.1928  0.3159 -0.4116
 7107SOL     OW27925  12.266  10.448   3.349  0.1676 -0.1528  0.3117
 7107SOL    HW127926  12.266  10.535   3.388 -2.7012  0.3156 -0.5068
 7107SOL    HW227927  12.351  10.441   3.307  1.4458  1.2283  2.4552
 7108SOL     OW27928   8.473   3.507  11.137 -0.9099 -0.6261 -0.0192
 7108SOL    HW127929   8.544   3.443  11.127 -0.8237 -0.8495  1.7274
 7108SOL    HW227930   8.500   3.581  11.083  1.3568 -0.1831  1.5494
 7109SOL     OW27931   8.928   1.331   5.067 -0.1566  0.6467  0.4059
 7109SOL    HW127932   8.911   1.321   4.973  3.0650  0.8939 -0.3285
 7109SOL    HW227933   8.849   1.298   5.109 -1.2885 -0.5411 -2.3729
 7110SOL     OW27934   6.956   2.616  11.759 -0.2320  0.1736 -0.0108
 7110SOL    HW127935   7.029   2.662  11.801  0.7208 -0.9491 -0.3757
 7110SOL    HW227936   6.981   2.524  11.762 -0.9864 -0.1094 -1.4294
 7111SOL     OW27937   3.630  11.746   3.772  0.5420  0.5166 -0.1222
 7111SOL    HW127938   3.580  11.676   3.814 -0.5317  1.5597  0.4064
 7111SOL    HW227939   3.711  11.704   3.743 -0.4121 -1.1212 -0.5492
 7112SOL     OW27940   0.443   8.159   8.678 -0.6222 -0.5039  0.0437
 7112SOL    HW127941   0.403   8.152   8.765 -2.0099 -2.2231 -0.6754
 7112SOL    HW227942   0.453   8.253   8.665 -1.7142 -0.1425  1.4901
 7113SOL     OW27943   8.896  11.632  12.352  0.2203  0.0501  0.5798
 7113SOL    HW127944   8.924  11.574  12.423 -1.3835  0.7199  1.8045
 7113SOL    HW227945   8.860  11.573  12.286  0.7705 -0.4976  0.7496
 7114SOL     OW27946   2.408  12.525   6.621  0.3377 -0.2233 -0.9453
 7114SOL    HW127947   2.439  12.516   6.711 -0.8927 -0.4377 -0.5259
 7114SOL    HW227948   2.422  12.439   6.582  0.0674 -0.3871 -0.6888
 7115SOL     OW27949   8.731   6.397   0.162  0.1039  0.1940 -0.6446
 7115SOL    HW127950   8.826   6.406   0.155  0.0415  0.9163 -0.6587
 7115SOL    HW227951   8.697   6.450   0.090 -0.2934 -1.0866 -1.4277
 7116SOL     OW27952   1.727   6.523   1.609  0.5861  0.2159 -0.5416
 7116SOL    HW127953   1.727   6.524   1.513 -2.7924  0.2911 -0.6503
 7116SOL    HW227954   1.757   6.611   1.633  3.3681 -0.4049 -1.3860
 7117SOL     OW27955  11.168  10.770   3.300  0.3424  0.2103  0.6092
 7117SOL    HW127956  11.142  10.738   3.213 -0.7546  0.2488  0.9143
 7117SOL    HW227957  11.229  10.841   3.281 -1.0304  1.2338 -0.1926
 7118SOL     OW27958  11.764  12.285   9.349 -0.0963  0.1972 -0.2289
 7118SOL    HW127959  11.674  12.268   9.321  0.2608 -0.6443 -0.9158
 7118SOL    HW227960  11.806  12.199   9.349  0.3102  0.3403  1.6003
 7119SOL     OW27961   5.338  12.008   6.098  0.0789 -0.5205  0.1982
 7119SOL    HW127962   5.273  12.070   6.130  0.3107 -0.7240  1.0995
 7119SOL    HW227963   5.406  12.007   6.166  0.5512 -1.0316 -0.2651
 7120SOL     OW27964   2.939   1.377   7.004  0.3631 -0.2762 -0.6521
 7120SOL    HW127965   3.023   1.413   6.976 -0.9282  1.9817 -1.9285
 7120SOL    HW227966   2.898   1.347   6.923  0.5758 -2.9913  0.1522
 7121SOL     OW27967  11.859  12.545   3.853 -0.4392 -0.3403  0.2535
 7121SOL    HW127968  11.776  12.499   3.846 -0.9532  0.7308 -1.3964
 7121SOL    HW227969  11.890  12.552   3.763  0.0122  1.7391  0.5056
 7122SOL     OW27970   2.440   5.657   4.173 -0.0291 -0.5956 -0.4943
 7122SOL    HW127971   2.355   5.625   4.141 -0.1547 -0.1249 -0.6463
 7122SOL    HW227972   2.418   5.735   4.224  0.2154 -1.0599  0.3478
 7123SOL     OW27973   2.027   8.101  12.136  0.6546 -0.4579  0.1357
 7123SOL    HW127974   1.956   8.110  12.200  2.7076  0.1121  2.5077
 7123SOL    HW227975   2.051   8.009  12.139  1.9680 -0.1259  1.7379
 7124SOL     OW27976  10.371   2.677   5.113  0.0304  0.4149  0.2985
 7124SOL    HW127977  10.364   2.588   5.077  0.1858  0.2064  0.7735
 7124SOL    HW227978  10.455   2.709   5.082  0.5037 -0.0423  1.0698
 7125SOL     OW27979  11.118   7.812  10.026  0.0778  0.4366  0.0674
 7125SOL    HW127980  11.149   7.766  10.105  0.6647 -0.9271 -0.9090
 7125SOL    HW227981  11.148   7.902  10.037  1.9486 -0.1945  0.4891
 7126SOL     OW27982   1.225  12.243   2.525 -0.4704  0.1043  0.5692
 7126SOL    HW127983   1.295  12.308   2.533 -0.7464  0.4126  0.4960
 7126SOL    HW227984   1.234  12.208   2.437  0.3809 -0.7668  0.9886
 7127SOL     OW27985   1.028   5.440   3.043 -0.6922  0.7180 -0.3085
 7127SOL    HW127986   1.085   5.371   3.009 -1.9621 -0.9404  0.7718
 7127SOL    HW227987   0.982   5.399   3.116  1.4148  3.8682  3.1085
 7128SOL     OW27988   7.816   3.177   2.892 -0.1608 -0.0478  0.5911
 7128SOL    HW127989   7.819   3.220   2.978 -0.6140 -0.8769  1.0377
 7128SOL    HW227990   7.888   3.114   2.894 -0.7554 -0.7360  0.7394
 7129SOL     OW27991   2.286   5.194   6.466  0.0995 -0.2516  0.1970
 7129SOL    HW127992   2.222   5.264   6.454  0.0563 -0.4923 -1.1439
 7129SOL    HW227993   2.244   5.117   6.429  1.6131 -0.1409 -1.9573
 7130SOL     OW27994  11.054   4.586   2.175 -0.4668 -0.1118  0.0799
 7130SOL    HW127995  11.050   4.640   2.254 -2.8108  0.2597 -0.2336
 7130SOL    HW227996  11.119   4.630   2.120 -0.9793  1.3482  0.5824
 7131SOL     OW27997   5.340   3.437   6.117 -0.1310  0.5691  0.5561
 7131SOL    HW127998   5.294   3.515   6.084  0.2703  1.1669  1.3690
 7131SOL    HW227999   5.300   3.364   6.069 -0.2681  1.3009 -0.4882
 7132SOL     OW28000   8.577  12.480   8.507 -0.4138 -0.1529 -0.2918
 7132SOL    HW128001   8.502  12.527   8.469  0.8743  1.2945 -1.1625
 7132SOL    HW228002   8.550  12.461   8.597 -1.3312  1.5537 -0.1613
 7133SOL     OW28003  12.057   8.000   0.866 -0.4710  0.1478 -0.5342
 7133SOL    HW128004  12.040   8.091   0.888 -0.8480 -0.2535  0.9470
 7133SOL    HW228005  12.134   7.977   0.918 -0.6541 -0.5046 -0.5404
 7134SOL     OW28006   8.378   0.601   3.628 -0.0567  0.4254  0.1501
 7134SOL    HW128007   8.391   0.637   3.715 -0.6893 -0.1591  0.4988
 7134SOL    HW228008   8.282   0.599   3.618 -0.0127 -0.5257 -0.1221
 7135SOL     OW28009   4.795   2.874   8.899 -0.7206  0.7598 -0.4920
 7135SOL    HW128010   4.877   2.842   8.863  0.5858  2.6653  0.5547
 7135SOL    HW228011   4.756   2.926   8.828 -1.9076 -1.4243 -1.5402
 7136SOL     OW28012   6.164   7.406  11.593 -0.1118 -0.0627  0.3282
 7136SOL    HW128013   6.077   7.367  11.593  0.0918 -0.5290 -0.1891
 7136SOL    HW228014   6.170   7.452  11.509 -0.1508  0.6431  0.6998
 7137SOL     OW28015   5.699   0.047   4.810  0.0367  0.1230 -0.2332
 7137SOL    HW128016   5.652  -0.022   4.858 -0.6362  1.0391  0.4515
 7137SOL    HW228017   5.711   0.117   4.874  1.1729  0.4508 -0.7733
 7138SOL     OW28018  11.469   2.446   1.133 -0.3169  0.1113  0.2933
 7138SOL    HW128019  11.401   2.422   1.071  1.3129 -0.7998 -1.2007
 7138SOL    HW228020  11.531   2.373   1.132  0.7609  0.9482  1.5355
 7139SOL     OW28021  10.443   0.785   6.488 -0.4920 -0.2871 -0.1287
 7139SOL    HW128022  10.493   0.825   6.417  1.1313 -2.0404 -0.0468
 7139SOL    HW228023  10.460   0.691   6.480 -1.2531 -0.6463  1.8514
 7140SOL     OW28024   0.187   9.610   4.976 -0.0228 -0.4426  0.9567
 7140SOL    HW128025   0.098   9.603   5.009 -0.9498 -1.9492 -1.5862
 7140SOL    HW228026   0.227   9.526   4.996  0.0923 -0.5785  0.1946
 7141SOL     OW28027  10.589   4.778   1.029  0.2156  0.3909  0.1015
 7141SOL    HW128028  10.657   4.726   1.070  0.8340  1.9911  1.1898
 7141SOL    HW228029  10.527   4.714   0.995  0.5961 -1.0427  1.9561
 7142SOL     OW28030  10.285   9.513   4.518 -0.3757 -0.0375  0.0941
 7142SOL    HW128031  10.266   9.454   4.591  0.4155 -0.1872  0.1841
 7142SOL    HW228032  10.258   9.600   4.550 -1.9968 -0.3861 -0.2116
 7143SOL     OW28033  12.588  11.631   5.299 -0.1019  0.1102  0.1066
 7143SOL    HW128034  12.564  11.723   5.304 -4.3516 -0.7521 -0.6335
 7143SOL    HW228035  12.588  11.611   5.205 -2.0208 -1.1776  0.3287
 7144SOL     OW28036   4.745  11.824   0.552 -0.1169 -0.2616 -0.1716
 7144SOL    HW128037   4.796  11.789   0.625 -0.1942  0.5250  0.2770
 7144SOL    HW228038   4.764  11.765   0.479  1.6473  0.1376 -0.0877
 7145SOL     OW28039   3.610   1.092   3.635 -0.0627  0.3187 -0.7660
 7145SOL    HW128040   3.527   1.116   3.594 -0.2255 -1.0178 -1.2873
 7145SOL    HW228041   3.635   1.010   3.591  1.4151  0.5740 -0.4545
 7146SOL     OW28042   2.270   9.880  10.148  0.4722  0.3346 -0.1230
 7146SOL    HW128043   2.286   9.974  10.157 -0.2041  0.4980 -0.5927
 7146SOL    HW228044   2.357   9.840  10.155  0.4946  0.6177  4.1176
 7147SOL     OW28045   4.209   6.857  11.988  0.0400  0.2211 -0.1701
 7147SOL    HW128046   4.210   6.949  11.960 -1.1323 -0.1167 -1.3960
 7147SOL    HW228047   4.278   6.852  12.054  1.1901  1.6352 -1.1959
 7148SOL     OW28048   2.282   0.459   5.328 -0.0976  0.3858 -0.0331
 7148SOL    HW128049   2.297   0.379   5.378 -0.0297  0.1564 -0.4138
 7148SOL    HW228050   2.362   0.510   5.341  0.1586  0.0782 -0.3605
 7149SOL     OW28051   5.321   5.594   1.635 -0.0036 -0.2588 -0.1002
 7149SOL    HW128052   5.362   5.676   1.606 -2.3614  0.4930 -1.6007
 7149SOL    HW228053   5.339   5.533   1.564 -1.0847 -0.0350 -0.5832
 7150SOL     OW28054  11.103   6.539   4.302  0.4537  0.7424  0.5348
 7150SOL    HW128055  11.118   6.534   4.207 -0.9189 -0.4173  0.3489
 7150SOL    HW228056  11.178   6.493   4.340  1.1505  1.4413  0.0532
 7151SOL     OW28057  11.617   1.000   0.990  0.3004  0.1245  0.4074
 7151SOL    HW128058  11.542   1.051   0.961  0.5114  0.4332  0.4043
 7151SOL    HW228059  11.621   1.015   1.084 -1.1967 -1.9462  0.8687
 7152SOL     OW28060   9.954   3.244   1.672 -0.1192 -0.0123  0.2779
 7152SOL    HW128061   9.964   3.278   1.583 -0.1687  0.2514  0.3735
 7152SOL    HW228062  10.042   3.246   1.709 -0.5253  2.8498  1.3184
 7153SOL     OW28063   3.347   2.375   2.591 -0.7803  0.5618 -0.1933
 7153SOL    HW128064   3.407   2.327   2.648  0.1620 -0.0348 -1.6284
 7153SOL    HW228065   3.391   2.460   2.578 -0.8818  0.6101 -0.2186
 7154SOL     OW28066  12.138   5.383  10.530  0.0752  0.3587 -0.2420
 7154SOL    HW128067  12.091   5.348  10.454  0.1288  1.5688 -0.8677
 7154SOL    HW228068  12.212   5.430  10.492  1.0065 -0.3378  0.6626
 7155SOL     OW28069   6.010   2.939  12.318 -0.3101  0.5805 -0.3316
 7155SOL    HW128070   5.924   2.978  12.303 -0.2949  0.4612 -0.7515
 7155SOL    HW228071   6.015   2.926  12.413 -0.4728  1.2306 -0.2301
 7156SOL     OW28072   9.306  12.655  11.129  0.5225  0.3470  0.0072
 7156SOL    HW128073   9.285  12.646  11.222  1.8187  1.5437  0.4337
 7156SOL    HW228074   9.348  12.740  11.121  0.0717  0.4513 -1.7576
 7157SOL     OW28075   3.404   2.769   4.742  0.2911 -0.1015  0.1003
 7157SOL    HW128076   3.380   2.787   4.833 -4.4915 -0.3837 -0.8054
 7157SOL    HW228077   3.435   2.853   4.709  1.1750  0.2470  1.7164
 7158SOL     OW28078   5.238   9.149  10.178  0.4065  0.2061  0.0371
 7158SOL    HW128079   5.223   9.172  10.270  1.1693 -0.8500  0.4347
 7158SOL    HW228080   5.195   9.064  10.167  1.8172 -0.5082 -0.1063
 7159SOL     OW28081  12.218   2.591   1.963 -0.3370 -0.1376 -0.0080
 7159SOL    HW128082  12.274   2.608   1.887  1.3519 -0.3334  1.1467
 7159SOL    HW228083  12.130   2.584   1.926  0.1418  1.6884 -1.7151
 7160SOL     OW28084   0.937   8.897   7.100 -0.3452  0.3108  0.1370
 7160SOL    HW128085   0.977   8.967   7.151 -2.5612  0.2563  2.1374
 7160SOL    HW228086   0.852   8.932   7.072 -1.5954 -1.5542  1.3509
 7161SOL     OW28087  10.587   5.488   2.488 -0.2802 -0.3269  0.0581
 7161SOL    HW128088  10.546   5.499   2.574 -0.3753  0.4115 -0.0743
 7161SOL    HW228089  10.520   5.446   2.434 -0.3471 -0.4639  0.2486
 7162SOL     OW28090   9.921   9.548   5.754  0.5142 -0.4847 -0.1282
 7162SOL    HW128091   9.877   9.574   5.673  1.6035  0.2483 -0.5052
 7162SOL    HW228092   9.851   9.512   5.809 -0.5736  0.7001 -0.6851
 7163SOL     OW28093   1.185   1.706   0.928 -0.6047 -0.5848  0.3174
 7163SOL    HW128094   1.165   1.658   0.848 -1.2055 -1.5465  1.0252
 7163SOL    HW228095   1.105   1.701   0.981 -0.6927  1.2123  0.4299
 7164SOL     OW28096   1.395   6.383   6.115 -0.7324  0.5043 -0.1847
 7164SOL    HW128097   1.431   6.320   6.053  0.5255 -0.0225  1.0306
 7164SOL    HW228098   1.321   6.339   6.155 -0.4557  0.1591 -0.0470
 7165SOL     OW28099   0.371   5.893   7.998  0.3527 -0.0113 -0.4734
 7165SOL    HW128100   0.424   5.837   7.942 -0.7318 -2.0039  0.4140
 7165SOL    HW228101   0.352   5.970   7.944 -0.1210 -1.5584 -2.6307
 7166SOL     OW28102   4.938   7.914  10.072  0.3029 -0.1720 -0.2914
 7166SOL    HW128103   4.878   7.843  10.095  0.6844 -0.7078 -0.8970
 7166SOL    HW228104   5.025   7.872  10.072  0.7775  0.7543  1.2960
 7167SOL     OW28105   5.778   4.320  12.425  0.5620 -0.5343 -0.3092
 7167SOL    HW128106   5.864   4.362  12.417 -0.3528  1.2851 -1.2727
 7167SOL    HW228107   5.717   4.384  12.389 -1.4813 -0.9193  2.1906
 7168SOL     OW28108   0.931   8.243  10.827 -0.0518 -0.4120  0.6347
 7168SOL    HW128109   1.024   8.228  10.809 -0.0969 -0.2560  0.2721
 7168SOL    HW228110   0.885   8.195  10.759 -0.2486 -0.7330  0.9889
 7169SOL     OW28111   4.855   3.705   2.911  0.2794 -0.8082  0.1046
 7169SOL    HW128112   4.851   3.675   3.002  0.8993 -1.0926  0.0426
 7169SOL    HW228113   4.777   3.758   2.900  0.1400 -0.8663  0.7743
 7170SOL     OW28114   5.099   5.581  12.685 -0.3402 -0.4692  0.3889
 7170SOL    HW128115   5.079   5.633  12.763  1.8064  1.9399 -0.5260
 7170SOL    HW228116   5.083   5.640  12.612 -1.2627 -2.3306 -1.0101
 7171SOL     OW28117   3.206   6.233   5.024 -0.0942 -0.0679  0.0931
 7171SOL    HW128118   3.156   6.288   5.084  0.4026  0.2474  0.2287
 7171SOL    HW228119   3.206   6.281   4.941  1.5237  0.8555  0.5832
 7172SOL     OW28120   1.174   1.114   8.760  0.5749 -0.8286 -0.4392
 7172SOL    HW128121   1.236   1.136   8.691 -1.1518 -0.0789 -1.8341
 7172SOL    HW228122   1.127   1.037   8.726 -1.2682  0.4039 -0.7991
 7173SOL     OW28123   1.895   8.869   8.243  0.5789  0.0627  0.6666
 7173SOL    HW128124   1.987   8.847   8.255  0.6462 -1.2060 -1.5401
 7173SOL    HW228125   1.891   8.912   8.157 -0.8701  0.1213  0.7295
 7174SOL     OW28126   7.358   4.366   6.825  0.4510  0.1788 -0.1056
 7174SOL    HW128127   7.372   4.271   6.830  0.7830  0.2524  0.4462
 7174SOL    HW228128   7.431   4.404   6.874 -1.1958  0.5899  2.2028
 7175SOL     OW28129   0.331   4.157   2.656 -0.7747  0.0095 -0.1254
 7175SOL    HW128130   0.310   4.245   2.625 -1.3233 -0.6326 -1.6537
 7175SOL    HW228131   0.276   4.146   2.734  0.0878  1.3802  0.7231
 7176SOL     OW28132   7.364   3.582   6.146  0.0916  0.2492  0.2992
 7176SOL    HW128133   7.374   3.490   6.167 -1.0677 -0.0599 -0.4129
 7176SOL    HW228134   7.344   3.583   6.052  0.8013  1.2808  0.1385
 7177SOL     OW28135   0.846  11.601   5.082 -0.0143  0.9038 -0.6925
 7177SOL    HW128136   0.836  11.578   4.990 -0.6925 -0.2394 -0.3590
 7177SOL    HW228137   0.758  11.628   5.110 -0.0408  0.2951 -0.1521
 7178SOL     OW28138   8.155   4.678  11.991 -0.8347 -0.3156 -0.5955
 7178SOL    HW128139   8.207   4.599  11.981 -0.8584 -0.5928  1.0557
 7178SOL    HW228140   8.107   4.687  11.909  0.1389 -1.2884 -1.2899
 7179SOL     OW28141   6.050  11.500   3.550  0.4701  0.2175  0.4950
 7179SOL    HW128142   5.961  11.520   3.577  0.2933  1.8393 -1.1179
 7179SOL    HW228143   6.106  11.549   3.611  0.3130 -0.9719  1.6412
 7180SOL     OW28144   7.548   2.484   1.654 -1.1315 -0.3435  0.0636
 7180SOL    HW128145   7.506   2.399   1.668  0.6687 -1.2397  0.2767
 7180SOL    HW228146   7.588   2.477   1.568  1.6984 -0.9455  1.3268
 7181SOL     OW28147  11.296   7.627   6.894  0.1054 -0.1448  1.0921
 7181SOL    HW128148  11.254   7.545   6.865 -0.3612  0.7690 -1.0514
 7181SOL    HW228149  11.384   7.601   6.921  0.7526 -1.1720 -1.6049
 7182SOL     OW28150   2.353   7.054   2.761  0.2017 -0.2478  0.2093
 7182SOL    HW128151   2.294   7.121   2.794 -1.8355 -1.7081 -0.3176
 7182SOL    HW228152   2.333   6.975   2.812  1.5190 -0.8654 -0.1551
 7183SOL     OW28153   8.505   3.844   1.942  0.2427 -0.0154  0.2827
 7183SOL    HW128154   8.456   3.905   1.997  0.2879 -0.2398  0.5710
 7183SOL    HW228155   8.447   3.769   1.931 -0.0628  0.3312 -0.5811
 7184SOL     OW28156   1.631   6.294   1.394  0.0487 -0.5064  0.0639
 7184SOL    HW128157   1.580   6.257   1.322 -1.4557  0.9721  0.3252
 7184SOL    HW228158   1.645   6.220   1.453 -0.8913 -1.1699 -0.5144
 7185SOL     OW28159   7.169   5.678  11.627  0.5428 -0.3498 -0.1996
 7185SOL    HW128160   7.113   5.753  11.604  1.2952  0.6617  1.1564
 7185SOL    HW228161   7.216   5.659  11.546 -1.0548 -0.6348 -1.1172
 7186SOL     OW28162   3.322   1.169   4.936 -0.2214  0.3308  1.0030
 7186SOL    HW128163   3.333   1.241   4.873  2.2125  0.1523  1.1371
 7186SOL    HW228164   3.332   1.090   4.883 -1.3768  0.1074  1.1084
 7187SOL     OW28165   8.077   3.084   4.999 -0.7525  0.6247  0.2587
 7187SOL    HW128166   8.013   3.015   4.979  0.0639 -0.2736  0.6793
 7187SOL    HW228167   8.070   3.098   5.093 -0.5308  0.7255  0.2623
 7188SOL     OW28168   2.708   1.036  10.669  0.4943 -0.4452 -0.1313
 7188SOL    HW128169   2.619   1.062  10.691  0.9687  1.0021  0.1922
 7188SOL    HW228170   2.730   0.967  10.733  0.4826  0.9747  1.4764
 7189SOL     OW28171  11.560  11.963   5.269 -0.1643 -0.0004  0.4597
 7189SOL    HW128172  11.623  11.983   5.339  1.1823 -1.5536 -0.2602
 7189SOL    HW228173  11.614  11.944   5.193 -1.5183 -1.0755 -0.2702
 7190SOL     OW28174   3.002  12.611   0.572  0.4467  0.0230  0.3323
 7190SOL    HW128175   3.043  12.647   0.494  0.4002  0.6570  0.5897
 7190SOL    HW228176   3.056  12.535   0.596  0.5836 -0.0448 -0.1863
 7191SOL     OW28177   5.900  12.308  11.115 -0.3169 -0.5257 -0.1412
 7191SOL    HW128178   5.862  12.336  11.032  1.0375  0.5525 -0.4475
 7191SOL    HW228179   5.858  12.363  11.181 -2.2252 -2.1587  0.0810
 7192SOL     OW28180   6.965   1.456   4.758  0.4030 -0.5884  0.0977
 7192SOL    HW128181   7.006   1.406   4.828  0.7066 -1.0154 -0.3736
 7192SOL    HW228182   7.035   1.470   4.694  0.6572  1.5572  0.7932
 7193SOL     OW28183   3.911   0.527   2.869 -0.4919  0.0063 -0.0544
 7193SOL    HW128184   3.834   0.577   2.895 -0.3791  1.1788 -1.7928
 7193SOL    HW228185   3.975   0.544   2.937 -0.4523  2.3235 -0.5844
 7194SOL     OW28186   4.005   4.453   2.141  0.0820  0.6758  0.5190
 7194SOL    HW128187   3.943   4.399   2.190  0.7389 -0.6378 -0.0434
 7194SOL    HW228188   4.025   4.526   2.200 -1.6259  0.8906  0.8886
 7195SOL     OW28189   9.557  12.378   9.047  0.0054  0.6859  0.2127
 7195SOL    HW128190   9.606  12.399   8.968 -0.3938 -0.6629 -0.4297
 7195SOL    HW228191   9.505  12.456   9.066  1.4175  1.6624  0.1744
 7196SOL     OW28192   6.701   7.721  11.488 -0.1339  0.2811 -0.1663
 7196SOL    HW128193   6.724   7.723  11.395 -2.0072  1.0594 -0.6560
 7196SOL    HW228194   6.635   7.789  11.498 -2.6321 -2.1499  0.9757
 7197SOL     OW28195   7.129  10.402   5.102 -0.3664 -0.3037 -0.0400
 7197SOL    HW128196   7.048  10.408   5.052  0.1432 -1.5454 -1.0597
 7197SOL    HW228197   7.195  10.374   5.039  0.4777 -1.1332  1.1463
 7198SOL     OW28198   9.665   7.914   0.887 -0.3395  0.3272 -0.1435
 7198SOL    HW128199   9.603   7.983   0.910  2.0803  2.8995 -0.9104
 7198SOL    HW228200   9.644   7.891   0.797 -0.7303  0.5104 -0.0992
 7199SOL     OW28201   3.429   2.924   7.489 -0.2597  0.1299  0.4252
 7199SOL    HW128202   3.399   3.015   7.485 -0.1792  0.1077 -0.9242
 7199SOL    HW228203   3.349   2.873   7.493 -0.4036  0.1610 -1.3443
 7200SOL     OW28204   2.903   7.251   5.441  0.8212 -0.1300 -0.5012
 7200SOL    HW128205   2.960   7.174   5.438  0.1775 -0.5948 -1.5113
 7200SOL    HW228206   2.837   7.230   5.507  0.2126 -0.7767 -1.3003
 7201SOL     OW28207   8.716   8.781  10.259 -0.2904 -0.4009  0.1640
 7201SOL    HW128208   8.784   8.821  10.204 -0.1779 -0.2740  0.3966
 7201SOL    HW228209   8.656   8.853  10.278 -0.1124 -0.3515  0.5451
 7202SOL     OW28210   0.270   8.851   6.927  0.2418 -0.1156 -0.1363
 7202SOL    HW128211   0.242   8.924   6.983 -0.2210 -0.0143 -0.4988
 7202SOL    HW228212   0.189   8.818   6.888  0.6879  0.5538 -1.6577
 7203SOL     OW28213   2.856   6.840   1.158  0.2544 -0.6842  0.1441
 7203SOL    HW128214   2.907   6.920   1.145 -1.6371  0.4656 -0.4775
 7203SOL    HW228215   2.920   6.777   1.191  2.7434 -0.2058 -3.2394
 7204SOL     OW28216  11.109   9.278   3.211 -0.2529 -0.2155 -0.1000
 7204SOL    HW128217  11.075   9.200   3.254 -1.3471  0.8128  0.9632
 7204SOL    HW228218  11.197   9.253   3.183 -0.8260 -2.0411 -0.4143
 7205SOL     OW28219   5.107   1.176   6.880 -0.0471 -0.1045  0.2444
 7205SOL    HW128220   5.179   1.194   6.819  1.1376 -1.6976  1.1084
 7205SOL    HW228221   5.133   1.218   6.962 -1.0732  1.0006  0.0378
 7206SOL     OW28222   8.210   5.648  10.893  0.2996  0.0004 -0.0842
 7206SOL    HW128223   8.136   5.684  10.842  0.8199  0.5101 -0.5028
 7206SOL    HW228224   8.228   5.715  10.959  0.1384 -0.3016  0.2670
 7207SOL     OW28225   5.278   7.958  10.648  0.7756  0.1362  0.4112
 7207SOL    HW128226   5.196   7.983  10.690 -0.9788 -2.0554 -1.4646
 7207SOL    HW228227   5.295   7.869  10.680  1.2521 -0.2239 -0.7781
 7208SOL     OW28228   6.785  11.373   1.939  0.5446  0.1578  0.0390
 7208SOL    HW128229   6.694  11.390   1.965 -0.3062  0.1611 -2.6199
 7208SOL    HW228230   6.808  11.448   1.883  2.3247  0.3072  0.9031
 7209SOL     OW28231   1.318   4.646  11.392 -0.3956 -0.0917 -0.0930
 7209SOL    HW128232   1.227   4.675  11.385 -0.5191 -0.6288 -0.8324
 7209SOL    HW228233   1.369   4.720  11.359 -0.6065 -0.0495 -0.3291
 7210SOL     OW28234  12.062   7.079   0.483 -0.5129  0.2166  0.0111
 7210SOL    HW128235  12.154   7.063   0.459 -0.9424 -0.8286 -1.0511
 7210SOL    HW228236  12.029   6.993   0.507 -1.1810  0.6169  0.5417
 7211SOL     OW28237   5.385  12.221   8.045 -0.6916 -0.2819  0.5747
 7211SOL    HW128238   5.436  12.141   8.060 -0.6644 -0.8511 -2.1318
 7211SOL    HW228239   5.437  12.272   7.983 -0.3839  2.2556  2.7241
 7212SOL     OW28240   0.740   1.355  11.356 -0.5514 -0.2761  0.3461
 7212SOL    HW128241   0.767   1.437  11.398  1.2774 -0.3478 -0.5697
 7212SOL    HW228242   0.653   1.337  11.392 -1.1607  2.2281  0.3147
 7213SOL     OW28243   7.436  10.080   1.201 -0.3008  0.3956 -0.0723
 7213SOL    HW128244   7.413   9.994   1.238  0.5032 -0.1042 -0.6821
 7213SOL    HW228245   7.354  10.128   1.198 -0.5548  0.1258  1.4999
 7214SOL     OW28246   2.708   6.341   1.747 -0.3111 -0.3750 -0.3665
 7214SOL    HW128247   2.665   6.422   1.775 -1.7758 -1.4382  0.6391
 7214SOL    HW228248   2.800   6.355   1.765 -0.8017  0.2657  1.9455
 7215SOL     OW28249   0.609  11.934   3.568  0.0989 -0.1360  0.3465
 7215SOL    HW128250   0.675  11.874   3.534  0.5100 -0.2027  1.2219
 7215SOL    HW228251   0.659  12.004   3.611 -0.3902  0.1999  0.3875
 7216SOL     OW28252   9.655   4.522   3.061 -0.7370  0.2757  0.2274
 7216SOL    HW128253   9.626   4.545   3.150  1.5591 -0.4717  1.2408
 7216SOL    HW228254   9.614   4.437   3.044 -2.3690  1.0751 -0.0873
 7217SOL     OW28255   7.290  10.443   8.217 -0.1925  0.4771 -0.2660
 7217SOL    HW128256   7.254  10.524   8.184 -1.5098 -0.7913 -2.1440
 7217SOL    HW228257   7.233  10.375   8.181  1.3078 -1.3283  0.5936
 7218SOL     OW28258   1.240   6.788   5.211 -0.2060  0.0275 -0.0787
 7218SOL    HW128259   1.169   6.823   5.264 -1.3478 -1.5300 -0.5227
 7218SOL    HW228260   1.227   6.826   5.124  0.0664  0.4554  0.0626
 7219SOL     OW28261   3.461   6.273   1.995 -0.1440 -0.4826 -0.1740
 7219SOL    HW128262   3.382   6.219   1.985 -0.2782 -0.1597 -0.9261
 7219SOL    HW228263   3.516   6.248   1.922  1.0798 -1.7003  1.0973
 7220SOL     OW28264   6.799   8.757   7.566 -0.2391 -0.1435 -0.1535
 7220SOL    HW128265   6.806   8.699   7.491 -0.3115 -0.2376 -0.0893
 7220SOL    HW228266   6.745   8.830   7.536  0.2460  0.1265 -0.3745
 7221SOL     OW28267   4.009   1.290   1.924  0.3564 -0.1665  0.0518
 7221SOL    HW128268   4.034   1.354   1.857  1.0841  0.3004  0.7438
 7221SOL    HW228269   3.976   1.343   1.997 -0.8533 -0.6920 -0.0941
 7222SOL     OW28270  12.339   9.039  10.304  0.2562 -0.0965  0.0644
 7222SOL    HW128271  12.309   9.105  10.367  1.3208  0.4544  0.0138
 7222SOL    HW228272  12.285   9.054  10.226  0.4590  0.6790  0.0705
 7223SOL     OW28273   8.437   1.409  12.079  0.4862  0.8182 -0.3847
 7223SOL    HW128274   8.414   1.394  12.171  0.9729  2.0623 -0.0511
 7223SOL    HW228275   8.501   1.341  12.059 -1.6185 -1.2341 -0.6525
 7224SOL     OW28276   6.980  11.387   2.694 -0.7026  0.1847 -0.4031
 7224SOL    HW128277   6.913  11.430   2.641 -2.7188 -0.8910  1.1374
 7224SOL    HW228278   6.931  11.348   2.767  1.1356 -3.3754 -0.8594
 7225SOL     OW28279   7.945   4.735   1.109  0.2751 -0.6112 -0.4582
 7225SOL    HW128280   7.895   4.742   1.027 -0.9356  0.8047  0.3411
 7225SOL    HW228281   8.022   4.791   1.094 -0.1814  0.0253 -0.4855
 7226SOL     OW28282   8.076   8.817   4.623  0.2861 -0.4380  0.1267
 7226SOL    HW128283   8.167   8.802   4.647  0.3865  0.3859  0.2895
 7226SOL    HW228284   8.080   8.870   4.543 -0.0071  1.6833  1.4336
 7227SOL     OW28285   7.811  12.150   3.785  0.2185  0.0883  0.3250
 7227SOL    HW128286   7.867  12.099   3.843 -1.7816 -1.3271  1.1000
 7227SOL    HW228287   7.789  12.091   3.713 -1.9277 -0.1322  1.1058
 7228SOL     OW28288   7.488   9.117   7.243  0.4507 -0.2974 -0.0000
 7228SOL    HW128289   7.436   9.037   7.234  0.2247 -0.0834 -0.5854
 7228SOL    HW228290   7.451   9.178   7.180  1.3479 -0.1067 -0.3558
 7229SOL     OW28291  10.537   3.497   8.835  0.5196  0.5619  0.4735
 7229SOL    HW128292  10.490   3.414   8.827  2.9145 -0.6809 -2.7671
 7229SOL    HW228293  10.615   3.476   8.887 -1.1104  2.0701  3.8211
 7230SOL     OW28294   5.791  11.538   2.475  0.2858  0.3219  0.0436
 7230SOL    HW128295   5.830  11.625   2.471 -0.9532  0.9158  0.3873
 7230SOL    HW228296   5.791  11.516   2.568 -0.0100  0.2504  0.0272
 7231SOL     OW28297   6.408   7.555   7.867 -0.0563  0.0499 -0.2852
 7231SOL    HW128298   6.352   7.631   7.881 -0.8453 -0.5179 -0.2383
 7231SOL    HW228299   6.494   7.581   7.899 -0.4654  0.7115  0.2987
 7232SOL     OW28300  10.090   1.425   5.132 -0.8674 -0.6112 -0.1012
 7232SOL    HW128301  10.111   1.417   5.225  0.7687 -0.9474 -0.4802
 7232SOL    HW228302  10.107   1.338   5.096 -0.9166 -0.3273 -0.8207
 7233SOL     OW28303   8.603   3.885  10.339 -0.4789  0.4643  0.4878
 7233SOL    HW128304   8.545   3.961  10.342 -0.7711  0.2643  0.0439
 7233SOL    HW228305   8.626   3.876  10.247  1.4837  1.4389  0.8232
 7234SOL     OW28306   8.068   1.484  10.890 -0.4273  0.6569  0.1588
 7234SOL    HW128307   7.982   1.482  10.847 -0.3226 -1.2519 -0.0534
 7234SOL    HW228308   8.061   1.420  10.960  0.1981  1.9670  1.4651
 7235SOL     OW28309   8.926   4.098  12.308 -0.2197 -0.0935  0.6560
 7235SOL    HW128310   8.940   4.193  12.307 -0.3732 -0.0675  0.9208
 7235SOL    HW228311   8.880   4.081  12.390 -3.1358 -0.0018 -0.8361
 7236SOL     OW28312   1.210   9.407   8.333  0.6077  0.1718  0.2552
 7236SOL    HW128313   1.131   9.443   8.373 -0.6106  0.5513 -2.2661
 7236SOL    HW228314   1.280   9.465   8.360 -0.2932  0.8693  1.1368
 7237SOL     OW28315   1.869   8.946   6.560  0.2583  0.4001 -0.6598
 7237SOL    HW128316   1.954   8.921   6.595  0.2397  1.6511  0.3637
 7237SOL    HW228317   1.848   8.877   6.496  1.0785 -1.0536  0.5684
 7238SOL     OW28318   9.971   6.309   4.668 -0.1107  0.4671 -0.2579
 7238SOL    HW128319   9.914   6.368   4.618 -0.1650  1.3736  0.8383
 7238SOL    HW228320   9.963   6.225   4.623 -1.0832  0.9619 -1.0594
 7239SOL     OW28321   4.170   5.731   5.957 -0.4942 -0.0741  0.5319
 7239SOL    HW128322   4.163   5.817   5.997 -1.7362  0.4022 -0.6333
 7239SOL    HW228323   4.092   5.723   5.902  0.9323 -0.8300 -1.5169
 7240SOL     OW28324   2.465  10.810   8.778 -0.3481 -0.0927  0.0734
 7240SOL    HW128325   2.538  10.750   8.764 -0.4321 -0.3549  0.7149
 7240SOL    HW228326   2.486  10.887   8.726  0.3125 -0.2307  0.1320
 7241SOL     OW28327   6.093   3.186   7.250  0.2277  0.2622  0.1975
 7241SOL    HW128328   6.108   3.117   7.186 -1.2823  0.1621 -0.0699
 7241SOL    HW228329   6.069   3.262   7.199 -1.6078  0.0176  0.6268
 7242SOL     OW28330  12.469  11.755   3.587  0.0673  0.5401 -0.4991
 7242SOL    HW128331  12.466  11.676   3.534  0.0968 -0.7197  1.2996
 7242SOL    HW228332  12.540  11.740   3.650 -0.7383  1.4475  0.6829
 7243SOL     OW28333   5.316   1.622   9.772  0.2675  0.7719 -0.6879
 7243SOL    HW128334   5.346   1.709   9.798  0.3605  0.7244 -0.6341
 7243SOL    HW228335   5.337   1.616   9.679 -0.5681  1.1509 -0.9033
 7244SOL     OW28336   2.328   6.745   3.028 -0.0487 -0.2850  0.1614
 7244SOL    HW128337   2.405   6.791   2.993 -0.6421  1.0486  0.5417
 7244SOL    HW228338   2.365   6.677   3.085  0.8703 -0.8528 -1.0531
 7245SOL     OW28339   6.601   9.010   7.871 -0.5879  0.3394 -0.3213
 7245SOL    HW128340   6.689   9.045   7.859  0.7649 -2.2734  1.2793
 7245SOL    HW228341   6.601   8.927   7.825 -1.0348 -1.2995  2.3959
 7246SOL     OW28342  10.100   2.572   0.716 -0.2586  0.4691 -0.5559
 7246SOL    HW128343  10.006   2.551   0.716 -0.6756  1.9986  1.3024
 7246SOL    HW228344  10.110   2.636   0.646 -0.2766 -0.8656 -1.8007
 7247SOL     OW28345   0.743  10.461   3.068 -0.5186 -0.5009 -0.1408
 7247SOL    HW128346   0.650  10.467   3.045 -0.7396 -1.9224  0.2540
 7247SOL    HW228347   0.760  10.367   3.070  0.2359 -0.3797  2.4926
 7248SOL     OW28348   2.368   7.339   9.939 -0.0191 -0.3575 -0.1938
 7248SOL    HW128349   2.325   7.423   9.924  1.5060  0.3908 -0.5696
 7248SOL    HW228350   2.415   7.350  10.022  1.6091 -0.1930 -1.0934
 7249SOL     OW28351   4.414   3.588   8.078 -0.6378 -0.4999 -0.0637
 7249SOL    HW128352   4.321   3.593   8.100 -0.1375 -0.5763  2.2856
 7249SOL    HW228353   4.436   3.495   8.086 -0.5647 -0.6572 -1.7199
 7250SOL     OW28354   8.776   3.502   0.086 -0.0496 -0.2073  0.0620
 7250SOL    HW128355   8.810   3.429   0.034 -0.6432  0.3488 -1.1477
 7250SOL    HW228356   8.813   3.580   0.045  2.4171  0.1916  2.6766
 7251SOL     OW28357   2.777   1.448   3.415 -0.3144 -0.2973  0.2635
 7251SOL    HW128358   2.752   1.451   3.322 -0.6739 -1.5212  0.2948
 7251SOL    HW228359   2.716   1.385   3.454  1.1721 -1.4360  0.8718
 7252SOL     OW28360   2.464   5.968   6.825  0.4044 -0.2646 -0.1848
 7252SOL    HW128361   2.471   6.054   6.783  1.7426 -0.0912  0.3508
 7252SOL    HW228362   2.387   5.928   6.785 -1.1085  1.7284  0.5542
 7253SOL     OW28363   8.480   3.392   9.660  0.2591  0.2641  0.1116
 7253SOL    HW128364   8.459   3.304   9.690 -0.3107  0.3960  0.1037
 7253SOL    HW228365   8.518   3.379   9.572 -1.7823  0.1680 -0.8109
 7254SOL     OW28366   6.309  11.691   6.867  0.3008 -0.1347  0.1629
 7254SOL    HW128367   6.388  11.650   6.833  0.1471  0.2160 -0.6347
 7254SOL    HW228368   6.245  11.619   6.874  1.2780 -0.8797  2.8688
 7255SOL     OW28369   9.797   6.517   3.844  0.2458  0.5178  0.5994
 7255SOL    HW128370   9.891   6.507   3.828 -0.0801 -0.3686 -1.0191
 7255SOL    HW228371   9.776   6.603   3.808  0.3631  0.5334  0.5673
 7256SOL     OW28372   7.031   4.428   1.482  0.3134  0.4197 -0.0282
 7256SOL    HW128373   7.009   4.521   1.490  1.6901  0.6852  1.1082
 7256SOL    HW228374   7.123   4.427   1.455 -0.2997 -0.6502 -2.3773
 7257SOL     OW28375  12.472   4.200   7.138  0.2752 -0.0801  0.1224
 7257SOL    HW128376  12.463   4.289   7.170 -0.6914  0.0086 -0.3626
 7257SOL    HW228377  12.507   4.151   7.213 -0.6335  0.4010  0.8975
 7258SOL     OW28378   3.659   1.575   8.202  0.4024 -0.1156  0.3104
 7258SOL    HW128379   3.711   1.649   8.233  0.5342 -0.7691  1.7414
 7258SOL    HW228380   3.579   1.577   8.256 -0.4194  0.0416 -0.8831
 7259SOL     OW28381   2.472   1.344   8.289 -0.4235 -0.0418 -0.3790
 7259SOL    HW128382   2.412   1.371   8.220 -0.3601 -1.3086 -0.9580
 7259SOL    HW228383   2.441   1.258   8.316  1.6190 -1.1693 -1.3325
 7260SOL     OW28384   5.247   7.322   2.687 -0.2265 -1.0481 -0.2623
 7260SOL    HW128385   5.198   7.270   2.622 -0.7187  1.5886 -2.1896
 7260SOL    HW228386   5.202   7.304   2.770 -0.9318 -2.9280 -0.9821
 7261SOL     OW28387  12.249   7.529   9.011  0.4308 -0.3591  0.3405
 7261SOL    HW128388  12.251   7.529   8.915  0.0136 -0.0246  0.3301
 7261SOL    HW228389  12.326   7.477   9.036 -0.5635 -2.1934 -0.1937
 7262SOL     OW28390   9.672   0.392   0.566 -0.4444  0.0139  0.3537
 7262SOL    HW128391   9.689   0.455   0.495  0.5935 -0.2430  0.3575
 7262SOL    HW228392   9.759   0.366   0.596 -0.8720 -0.5896  1.1014
 7263SOL     OW28393   5.244   7.860   5.430 -0.7546 -0.3012 -0.3758
 7263SOL    HW128394   5.293   7.817   5.500 -0.8824 -0.6593 -0.5027
 7263SOL    HW228395   5.180   7.794   5.403  0.1373 -0.6438 -1.7163
 7264SOL     OW28396   7.982  11.916  10.252 -0.0166  0.1469  0.3276
 7264SOL    HW128397   7.963  11.992  10.308 -0.1834 -0.3344  0.9269
 7264SOL    HW228398   8.049  11.868  10.299 -1.5465 -1.3175  1.1008
 7265SOL     OW28399  10.089  11.980   9.015 -0.0798 -1.0718  0.0433
 7265SOL    HW128400  10.163  11.927   9.046 -0.6178 -1.7201  0.2457
 7265SOL    HW228401  10.014  11.946   9.064  0.0803  2.2433  2.9276
 7266SOL     OW28402   0.513   8.186   2.600  0.1029  0.1314 -0.1305
 7266SOL    HW128403   0.589   8.168   2.656  0.1521  1.6397  0.3385
 7266SOL    HW228404   0.491   8.101   2.561  1.2614 -0.5734  0.6831
 7267SOL     OW28405   9.567   8.323  11.076  0.4872  0.6863  0.4809
 7267SOL    HW128406   9.510   8.395  11.103  0.0948  1.0088 -1.1203
 7267SOL    HW228407   9.612   8.356  10.999 -0.2389 -1.0257 -0.7376
 7268SOL     OW28408   7.741   6.593   1.200 -0.3050  0.0523 -0.4407
 7268SOL    HW128409   7.700   6.538   1.266 -1.9931 -3.5119 -4.0293
 7268SOL    HW228410   7.669   6.639   1.158  0.2890 -0.1964 -1.7961
 7269SOL     OW28411  12.746   1.499   2.497 -0.4022 -0.1326  0.1666
 7269SOL    HW128412  12.707   1.534   2.416  0.3038 -0.2706 -0.2370
 7269SOL    HW228413  12.771   1.576   2.547  0.4587 -0.0395 -0.3863
 7270SOL     OW28414  12.655  10.348   6.646  0.7542  0.3584 -0.2061
 7270SOL    HW128415  12.582  10.384   6.596  0.0907 -2.1389 -1.2276
 7270SOL    HW228416  12.714  10.312   6.580  1.0811 -0.8379  0.6901
 7271SOL     OW28417   2.540   2.774   0.139  0.0534 -1.1329 -0.4225
 7271SOL    HW128418   2.531   2.846   0.202  0.0651 -2.3749  1.0816
 7271SOL    HW228419   2.451   2.754   0.113 -0.0518 -1.3623  0.1043
 7272SOL     OW28420   5.340   5.535   1.913 -0.2011  0.5942 -0.0326
 7272SOL    HW128421   5.300   5.574   1.836 -0.3337  1.0630  0.2731
 7272SOL    HW228422   5.417   5.589   1.931  0.8417 -0.5535 -0.8703
 7273SOL     OW28423   6.572   4.890   6.202  0.1741  0.3491  0.7006
 7273SOL    HW128424   6.647   4.900   6.260  0.2639 -0.8439  0.8154
 7273SOL    HW228425   6.598   4.822   6.140 -0.1608  1.1538 -0.3522
 7274SOL     OW28426   7.139   8.022   5.475 -0.1436  0.0677  0.2503
 7274SOL    HW128427   7.073   8.032   5.406 -1.4951  0.1189  1.5017
 7274SOL    HW228428   7.222   8.012   5.427 -1.2000 -1.4845 -1.4281
 7275SOL     OW28429   1.381   9.264   1.798  0.1330 -0.1518 -0.3795
 7275SOL    HW128430   1.392   9.359   1.794  2.4870 -0.3740 -0.7538
 7275SOL    HW228431   1.286   9.251   1.798 -0.2572  2.1854 -0.1663
 7276SOL     OW28432   7.960   9.868  10.822  0.6593  0.2837 -0.3623
 7276SOL    HW128433   7.998   9.872  10.910  0.3108  0.6510 -0.2283
 7276SOL    HW228434   7.866   9.868  10.836  0.5813  1.3731 -0.7619
 7277SOL     OW28435  12.220   4.504   1.775 -0.3468  0.2073  0.4593
 7277SOL    HW128436  12.301   4.520   1.728  1.6218  0.1601  3.5353
 7277SOL    HW228437  12.200   4.412   1.759 -0.1707  0.3824 -0.8289
 7278SOL     OW28438   8.661   4.663   9.371  0.3666 -0.5899  0.4446
 7278SOL    HW128439   8.703   4.606   9.436 -0.1991 -1.5178  0.0094
 7278SOL    HW228440   8.722   4.736   9.361  0.5224 -0.4825  1.9233
 7279SOL     OW28441  10.375   9.130   2.840  0.9899  0.4097  0.0970
 7279SOL    HW128442  10.443   9.197   2.842 -0.0187  1.4703 -0.1050
 7279SOL    HW228443  10.342   9.132   2.750 -1.2330  1.9394  0.8755
 7280SOL     OW28444   9.230  10.782   6.319 -0.0516  0.4028 -0.1347
 7280SOL    HW128445   9.240  10.801   6.225  0.2666  0.4532 -0.0913
 7280SOL    HW228446   9.319  10.770   6.350 -0.2319 -2.0940 -0.3549
 7281SOL     OW28447  11.030   7.406   1.539 -0.9705 -0.2159  0.1155
 7281SOL    HW128448  11.114   7.451   1.548 -0.6671 -0.7530  0.0090
 7281SOL    HW228449  10.986   7.420   1.622  0.0548 -1.5994  0.9309
 7282SOL     OW28450   4.363   7.915   0.742  0.3972 -0.2109 -0.4725
 7282SOL    HW128451   4.293   7.882   0.686 -0.4663  0.5575  0.1257
 7282SOL    HW228452   4.443   7.879   0.704 -0.3438 -1.4357 -0.9350
 7283SOL     OW28453  11.272   4.785   0.114 -0.1376  0.0935 -0.3172
 7283SOL    HW128454  11.224   4.710   0.081 -3.4023  0.4047  3.0831
 7283SOL    HW228455  11.359   4.751   0.135 -0.9509 -2.2544 -0.5319
 7284SOL     OW28456  10.019  11.412   9.083 -0.8773  0.5484  0.1794
 7284SOL    HW128457   9.957  11.358   9.033 -0.2340 -0.0151 -0.0262
 7284SOL    HW228458  10.065  11.463   9.017  0.5101 -0.7517  0.0848
 7285SOL     OW28459   2.389  11.561   9.295  0.2590 -0.2846  0.3950
 7285SOL    HW128460   2.350  11.627   9.353  1.4836 -0.8076  1.8786
 7285SOL    HW228461   2.467  11.604   9.259  0.5656 -0.5916  0.6741
 7286SOL     OW28462   7.366   8.941   9.945 -0.0387  0.0644 -0.4960
 7286SOL    HW128463   7.341   8.982   9.863 -0.6416  0.0944 -0.3044
 7286SOL    HW228464   7.399   9.012   9.999 -0.0660  0.1173 -0.5499
 7287SOL     OW28465   2.833   4.463   8.575  0.0090 -0.3099 -0.1767
 7287SOL    HW128466   2.889   4.514   8.517  0.1601  2.1347  1.8988
 7287SOL    HW228467   2.876   4.467   8.660 -1.1626 -2.0772  0.5710
 7288SOL     OW28468  10.449  10.435   6.943  0.0130 -0.1593  0.6277
 7288SOL    HW128469  10.525  10.395   6.986  1.0460  1.8642  0.7773
 7288SOL    HW228470  10.413  10.495   7.009 -0.6116  0.2505 -0.0779
 7289SOL     OW28471  10.828  11.452   0.370 -0.2610 -0.5458 -0.3283
 7289SOL    HW128472  10.744  11.459   0.326 -0.9844  0.6329  1.1698
 7289SOL    HW228473  10.891  11.485   0.306 -1.0614 -0.3709 -1.0465
 7290SOL     OW28474   5.502   3.469   9.422  0.1195  0.3882  0.2669
 7290SOL    HW128475   5.434   3.532   9.398 -0.6942  0.1557  1.8468
 7290SOL    HW228476   5.496   3.400   9.355 -2.3233 -0.4359  1.2279
 7291SOL     OW28477  10.247   8.465   5.971 -0.2703 -0.1956  0.0765
 7291SOL    HW128478  10.307   8.532   6.003 -0.7383  1.9022 -3.0612
 7291SOL    HW228479  10.170   8.473   6.026 -0.6194  2.4486 -0.6934
 7292SOL     OW28480   0.008  10.397   8.428  0.1633 -0.8577  0.1374
 7292SOL    HW128481   0.024  10.326   8.490 -0.5061 -2.2569 -1.2233
 7292SOL    HW228482  -0.085  10.418   8.439  0.7234  1.1516  1.8131
 7293SOL     OW28483   5.771   1.815   3.922 -0.0163  0.7920  0.1481
 7293SOL    HW128484   5.712   1.890   3.926 -0.4613  0.4658 -0.2253
 7293SOL    HW228485   5.796   1.808   3.830 -1.6087 -0.7531 -0.2086
 7294SOL     OW28486   0.013  10.638   0.576 -0.7047 -0.3783  0.1165
 7294SOL    HW128487  -0.080  10.634   0.598 -0.6197 -2.4401  0.2175
 7294SOL    HW228488   0.054  10.671   0.656 -1.1767 -0.9482  0.5993
 7295SOL     OW28489  10.924   3.195   5.684  0.3316  0.0077  0.3076
 7295SOL    HW128490  10.835   3.162   5.694  0.4063 -0.0301  0.9207
 7295SOL    HW228491  10.916   3.271   5.626 -0.2257  0.5314  1.0472
 7296SOL     OW28492   9.080   8.043  10.020  0.1646 -0.2897 -0.3451
 7296SOL    HW128493   9.017   8.056  10.090 -0.5652  2.0253 -1.3514
 7296SOL    HW228494   9.089   8.128   9.978  3.2839 -0.7288 -0.8574
 7297SOL     OW28495   3.630   6.579   8.919  0.6378 -0.0740 -0.6439
 7297SOL    HW128496   3.569   6.505   8.914  0.3200  0.0964  0.4124
 7297SOL    HW228497   3.681   6.573   8.839  0.5849 -1.4240 -0.6058
 7298SOL     OW28498   4.911   0.455   1.732 -0.2141  0.0342 -0.2146
 7298SOL    HW128499   4.998   0.471   1.769 -0.4053 -2.5092  1.5343
 7298SOL    HW228500   4.927   0.445   1.638  1.7303 -2.2428  0.2716
 7299SOL     OW28501  10.828   6.534   4.263  0.4268  0.4080  0.5439
 7299SOL    HW128502  10.788   6.467   4.208 -0.9029 -0.1367  2.1105
 7299SOL    HW228503  10.919   6.505   4.273  0.1771 -0.5305  0.2171
 7300SOL     OW28504  11.770  12.289   7.786 -0.0432 -0.1735 -0.0787
 7300SOL    HW128505  11.712  12.320   7.855 -2.2041 -0.6477 -1.5646
 7300SOL    HW228506  11.725  12.311   7.705  1.2801 -1.6902 -1.3078
 7301SOL     OW28507   4.423   0.363   0.298  0.5572  0.4135  0.3815
 7301SOL    HW128508   4.417   0.371   0.203  1.1187 -0.7892  0.2265
 7301SOL    HW228509   4.517   0.358   0.316  0.5064  1.4824  1.1023
 7302SOL     OW28510  11.468   8.728  11.221  0.1175 -0.1385 -0.3934
 7302SOL    HW128511  11.554   8.744  11.259  0.1415 -1.6525  0.2715
 7302SOL    HW228512  11.479   8.746  11.128  0.8948  0.5906 -0.1683
 7303SOL     OW28513   4.860   5.674   5.567  0.3470  0.3908 -0.1234
 7303SOL    HW128514   4.946   5.714   5.578  0.5012  0.4079 -1.2412
 7303SOL    HW228515   4.810   5.703   5.643  1.4877 -0.0709  0.8258
 7304SOL     OW28516   6.318  12.450  11.136  0.2042  0.0234 -0.9533
 7304SOL    HW128517   6.341  12.410  11.052  0.0907 -2.5647  0.1601
 7304SOL    HW228518   6.281  12.378  11.187 -3.3838  2.3000  0.0136
 7305SOL     OW28519   1.709  11.048   0.646  0.2472  0.3170 -0.7110
 7305SOL    HW128520   1.677  11.096   0.723  0.0304 -0.6326 -0.2002
 7305SOL    HW228521   1.636  11.051   0.584 -0.2673 -0.4788 -0.1611
 7306SOL     OW28522   2.935   2.327  10.610  0.0690 -0.4529  0.0637
 7306SOL    HW128523   2.877   2.328  10.534 -0.2960 -1.0165  0.3320
 7306SOL    HW228524   3.023   2.328  10.573 -0.0893  1.2566 -0.3364
 7307SOL     OW28525   0.902   9.336   9.694 -0.2034  0.0235 -0.3757
 7307SOL    HW128526   0.828   9.388   9.662 -1.2762 -0.6643  0.8885
 7307SOL    HW228527   0.875   9.307   9.781  1.2600 -0.8540 -0.1865
 7308SOL     OW28528   9.126   6.371  12.298 -0.2606  0.2376  0.0003
 7308SOL    HW128529   9.043   6.412  12.275  0.4379  1.4102 -0.5181
 7308SOL    HW228530   9.151   6.322  12.219 -0.3456  0.0766  0.0733
 7309SOL     OW28531   7.031  10.973   0.104  0.1850 -0.0857  0.2306
 7309SOL    HW128532   7.014  11.009   0.017 -1.1265 -1.0559  0.0361
 7309SOL    HW228533   7.112  10.923   0.094  0.0075 -0.2501 -0.4705
 7310SOL     OW28534   1.230   6.378   4.615  0.3169  0.1774  0.1384
 7310SOL    HW128535   1.229   6.328   4.696  0.3794  1.8026  1.1690
 7310SOL    HW228536   1.321   6.370   4.584 -0.1039 -1.8925 -0.7612
 7311SOL     OW28537   2.707  10.433   3.611  0.5591 -0.3217  0.4485
 7311SOL    HW128538   2.778  10.449   3.548  0.9895  1.4390  1.3038
 7311SOL    HW228539   2.748  10.446   3.697 -0.5679 -0.2409  0.9935
 7312SOL     OW28540   7.697   7.120  10.102  0.1123  0.2007 -0.2708
 7312SOL    HW128541   7.614   7.112  10.055 -0.9861  0.5114  1.5299
 7312SOL    HW228542   7.715   7.032  10.133 -0.5350  0.4709  0.9142
 7313SOL     OW28543   6.961   9.522  11.447  0.8863 -0.2421 -0.2608
 7313SOL    HW128544   6.911   9.441  11.437  0.8953 -0.1836 -0.8030
 7313SOL    HW228545   6.927   9.561  11.527 -0.6331  0.2708 -1.1218
 7314SOL     OW28546   2.932   0.860   8.375  0.0281 -0.1739 -0.5655
 7314SOL    HW128547   3.011   0.877   8.323  0.5166  2.1242  0.7969
 7314SOL    HW228548   2.964   0.842   8.463 -0.9357  0.6566 -0.0215
 7315SOL     OW28549   8.348   5.650   5.563 -0.5597 -0.3261  0.2117
 7315SOL    HW128550   8.258   5.681   5.553  0.0376  1.1156 -0.8720
 7315SOL    HW228551   8.381   5.640   5.473  0.9729  1.0524  0.5677
 7316SOL     OW28552   9.607   3.891   8.130  0.0989 -0.4522 -0.0495
 7316SOL    HW128553   9.575   3.882   8.219  1.0483  0.0027  0.3547
 7316SOL    HW228554   9.699   3.916   8.140 -0.0279  0.5449 -1.1394
 7317SOL     OW28555   7.360   5.507   1.753 -0.0639 -0.4261  0.1854
 7317SOL    HW128556   7.272   5.511   1.791  0.6468  1.3493  1.7830
 7317SOL    HW228557   7.418   5.502   1.828  1.2764  0.1129 -0.7877
 7318SOL     OW28558  12.707   3.405  10.828  0.4747 -0.1800  0.5714
 7318SOL    HW128559  12.758   3.326  10.845  1.1469  0.1817  0.2586
 7318SOL    HW228560  12.747   3.471  10.884  1.0284  0.3710 -0.4542
 7319SOL     OW28561   1.970  12.725   9.925 -0.0501 -0.3273  0.1263
 7319SOL    HW128562   1.926  12.685  10.000 -2.2604 -0.0523 -0.9473
 7319SOL    HW228563   1.926  12.687   9.849  2.5302 -1.0539 -1.1185
 7320SOL     OW28564  12.666  11.070   8.926  0.3801 -0.4319  0.0366
 7320SOL    HW128565  12.746  11.082   8.875 -0.4569 -1.4328 -1.6181
 7320SOL    HW228566  12.675  10.982   8.964  0.6319 -0.0184  0.9613
 7321SOL     OW28567   4.472   6.448   4.683  0.6576  0.0376  0.6143
 7321SOL    HW128568   4.400   6.510   4.691  0.8879  0.4863 -0.5343
 7321SOL    HW228569   4.524   6.481   4.609  1.2989 -1.0070  0.5775
 7322SOL     OW28570   4.344  10.540   3.474  0.9494 -0.2124 -0.3096
 7322SOL    HW128571   4.313  10.450   3.467  0.2856  0.0752 -1.4194
 7322SOL    HW228572   4.268  10.589   3.506  1.5458 -0.1630  1.0813
 7323SOL     OW28573   2.592  11.837   6.263  0.1522 -0.2938 -0.3730
 7323SOL    HW128574   2.629  11.759   6.223 -0.2771 -0.2674 -0.8294
 7323SOL    HW228575   2.500  11.816   6.277  0.1307 -0.0274 -0.1002
 7324SOL     OW28576   5.821   1.759  10.892 -0.0203  0.3562 -0.5360
 7324SOL    HW128577   5.861   1.692  10.836 -1.7730 -2.8101  1.6648
 7324SOL    HW228578   5.744   1.788  10.842 -1.0061 -1.6898 -0.3278
 7325SOL     OW28579   5.012   3.907   8.557 -0.3332 -0.3761  0.0476
 7325SOL    HW128580   4.944   3.926   8.492 -0.7936 -0.3244  0.5306
 7325SOL    HW228581   5.083   3.868   8.507 -0.6008 -0.1596 -0.5145
 7326SOL     OW28582  11.863   8.417   4.840 -0.5343  1.0772 -0.5834
 7326SOL    HW128583  11.770   8.398   4.840 -0.6858  1.8040 -0.4188
 7326SOL    HW228584  11.869   8.509   4.812  0.1809  0.7919 -1.4337
 7327SOL     OW28585   8.562   4.001   1.545  0.5676 -0.1208  0.0426
 7327SOL    HW128586   8.529   4.001   1.454  0.7937 -0.7015 -0.0444
 7327SOL    HW228587   8.588   3.910   1.560  0.0379 -0.1392  0.8736
 7328SOL     OW28588   1.856   8.956   0.430  0.4369 -0.4099  0.1100
 7328SOL    HW128589   1.810   8.904   0.496  0.9533 -1.7850 -0.5569
 7328SOL    HW228590   1.904   8.891   0.378 -2.5859  0.0531 -3.8271
 7329SOL     OW28591   8.629  10.648  12.206 -0.1818 -0.5150  0.2639
 7329SOL    HW128592   8.559  10.585  12.191  1.6916 -2.6936  0.1062
 7329SOL    HW228593   8.610  10.720  12.146 -3.2706 -0.0387  1.5881
 7330SOL     OW28594   3.803   8.546   9.538  0.3423  0.2448 -0.0300
 7330SOL    HW128595   3.709   8.555   9.554  0.3481 -0.7037  0.6654
 7330SOL    HW228596   3.817   8.589   9.454 -0.3378  2.2939  0.8393
 7331SOL     OW28597  12.727  11.121   5.025 -1.0043  0.6256 -0.3056
 7331SOL    HW128598  12.817  11.119   5.058 -1.3366  0.6994  0.6401
 7331SOL    HW228599  12.728  11.063   4.949 -0.5955 -0.9677  0.8661
 7332SOL     OW28600   5.128   5.969   1.517 -0.1785  0.1267 -0.6289
 7332SOL    HW128601   5.085   6.027   1.455  0.9288  1.8301  0.1231
 7332SOL    HW228602   5.063   5.955   1.585 -0.4688  0.4787 -0.8271
 7333SOL     OW28603  11.099   5.190   0.275  0.4456 -0.4456 -0.2431
 7333SOL    HW128604  11.008   5.182   0.244  0.2678 -1.2007  0.4347
 7333SOL    HW228605  11.142   5.111   0.243  0.9707  0.0616 -0.8394
 7334SOL     OW28606   9.671  10.482   4.555 -0.5137 -0.6540  0.1022
 7334SOL    HW128607   9.752  10.436   4.532 -0.0504  0.8525 -1.4972
 7334SOL    HW228608   9.690  10.574   4.537 -3.0585 -0.4136 -1.8368
 7335SOL     OW28609   1.415   6.969  10.026  0.0141  0.0152  0.0119
 7335SOL    HW128610   1.357   6.917   9.970 -4.5755  2.7055  1.7144
 7335SOL    HW228611   1.456   6.906  10.084 -1.2661 -2.0892 -1.2523
 7336SOL     OW28612  11.997   0.168   2.408 -0.2812  0.0128 -0.5666
 7336SOL    HW128613  11.983   0.169   2.502 -1.4761 -0.0796 -0.7248
 7336SOL    HW228614  12.055   0.094   2.393 -1.4740 -1.0551 -0.0615
 7337SOL     OW28615  12.591  10.990   8.586  0.4055 -0.4300  0.3642
 7337SOL    HW128616  12.581  10.902   8.550  1.9325  0.0918 -1.4763
 7337SOL    HW228617  12.681  10.993   8.619  0.6616  0.6906 -0.3698
 7338SOL     OW28618   6.103  12.331   4.591  0.7789  0.1332 -0.2683
 7338SOL    HW128619   6.021  12.370   4.563  0.9973  0.1109 -0.9744
 7338SOL    HW228620   6.086  12.237   4.592  1.3002 -0.0318 -2.2674
 7339SOL     OW28621   1.979   1.324   3.775  0.0034  0.0563 -0.3430
 7339SOL    HW128622   2.030   1.314   3.695  0.2881  2.0531 -0.4620
 7339SOL    HW228623   1.906   1.264   3.765  1.8333 -2.2967 -0.5367
 7340SOL     OW28624   8.964   1.988   4.909 -0.0365  0.0229 -0.2678
 7340SOL    HW128625   8.938   1.927   4.978 -0.7102 -0.5502 -1.0036
 7340SOL    HW228626   8.883   2.005   4.861  0.3507  0.6928 -0.7008
 7341SOL     OW28627   0.248   1.403   1.333 -0.0264 -0.2073 -0.3727
 7341SOL    HW128628   0.234   1.442   1.419  0.7868  1.4137 -0.9522
 7341SOL    HW228629   0.253   1.477   1.273 -0.7158 -1.3151 -1.8558
 7342SOL     OW28630   4.238   1.051  10.117  0.0252 -0.2808  0.4692
 7342SOL    HW128631   4.330   1.073  10.136  0.3591  0.3082 -1.5827
 7342SOL    HW228632   4.188   1.120  10.160  0.6957  0.6926 -0.2590
 7343SOL     OW28633  11.401  11.174   6.806  0.1546 -0.1288 -0.0807
 7343SOL    HW128634  11.408  11.083   6.776  1.0164 -0.5867  1.4196
 7343SOL    HW228635  11.458  11.178   6.883  1.5145  2.1154 -1.1019
 7344SOL     OW28636   7.591  10.424   3.268 -0.2097  0.3912 -0.2399
 7344SOL    HW128637   7.624  10.511   3.295 -0.2466  0.9069 -1.7887
 7344SOL    HW228638   7.533  10.398   3.340  0.1515  1.4387  0.4670
 7345SOL     OW28639   0.416  10.894   3.495  0.0556  0.0318 -0.0212
 7345SOL    HW128640   0.332  10.910   3.537 -0.3171  0.5146 -0.9021
 7345SOL    HW228641   0.407  10.808   3.455  0.8693 -1.0067  1.9170
 7346SOL     OW28642   0.777  11.145   9.219  0.1063  0.3494 -0.6812
 7346SOL    HW128643   0.691  11.140   9.175  0.4354 -1.3027 -1.2016
 7346SOL    HW228644   0.822  11.216   9.174 -1.0739  1.4078 -0.2368
 7347SOL     OW28645   3.632   9.425   0.601 -0.2961 -0.3901  0.4581
 7347SOL    HW128646   3.640   9.470   0.517 -0.0556 -1.8588 -0.3512
 7347SOL    HW228647   3.704   9.361   0.600  0.2956  0.2049  2.2005
 7348SOL     OW28648   3.097  10.319  10.277  0.0275 -0.2965  0.1684
 7348SOL    HW128649   3.127  10.272  10.355 -0.1513 -0.3366  0.2146
 7348SOL    HW228650   3.009  10.351  10.301 -0.1638 -0.5940 -0.1349
 7349SOL     OW28651   6.511  11.655   0.265 -0.0492 -0.0790  0.0893
 7349SOL    HW128652   6.524  11.663   0.359  1.7032  1.4617 -0.2219
 7349SOL    HW228653   6.480  11.742   0.237  0.5855 -0.1518 -0.9045
 7350SOL     OW28654   0.859  12.084   6.247  0.0678 -0.1212 -0.3663
 7350SOL    HW128655   0.794  12.015   6.261  0.4109 -0.4011 -0.0972
 7350SOL    HW228656   0.941  12.036   6.234 -0.0961  0.1427 -2.6935
 7351SOL     OW28657  10.436   6.322   2.591  0.2885 -0.9416 -0.4115
 7351SOL    HW128658  10.428   6.268   2.512 -2.3279 -3.4879  1.3730
 7351SOL    HW228659  10.368   6.388   2.582  0.6821 -0.5778 -0.7340
 7352SOL     OW28660  12.448   9.077   2.493 -0.3404 -0.1022 -0.1346
 7352SOL    HW128661  12.529   9.025   2.493 -0.0538  0.3204  0.8554
 7352SOL    HW228662  12.464   9.147   2.429  0.9207  1.1959  1.4966
 7353SOL     OW28663   7.445  10.978   5.497 -0.4149 -0.0734  0.4186
 7353SOL    HW128664   7.385  11.028   5.552  0.3927  1.3085  0.0618
 7353SOL    HW228665   7.525  11.030   5.493 -0.0537 -0.6838 -1.1339
 7354SOL     OW28666   3.540   4.050   9.629  0.1025  0.1140  0.1477
 7354SOL    HW128667   3.590   4.090   9.700  0.8935  1.1665 -0.9715
 7354SOL    HW228668   3.587   3.969   9.609  2.4575  1.8135 -1.9475
 7355SOL     OW28669   3.922   1.975   5.606  0.6848  0.0529 -0.2920
 7355SOL    HW128670   3.976   1.935   5.538  0.5121  0.7714 -0.8561
 7355SOL    HW228671   3.884   2.052   5.565  0.0870  0.1579  0.4340
 7356SOL     OW28672   8.978  12.528  12.268 -0.5097 -0.4800 -0.5074
 7356SOL    HW128673   8.988  12.623  12.273  1.4564 -0.6356 -0.8359
 7356SOL    HW228674   8.966  12.510  12.175 -0.6040 -0.5801 -0.4765
 7357SOL     OW28675   5.329   4.180   5.571 -0.4284 -0.6657 -0.8307
 7357SOL    HW128676   5.386   4.122   5.520 -0.4815  0.2699 -1.9966
 7357SOL    HW228677   5.257   4.124   5.598 -1.0297 -0.9449 -2.8390
 7358SOL     OW28678   2.506   8.603   5.321 -0.4145  0.1736  0.2387
 7358SOL    HW128679   2.570   8.592   5.250 -1.7176 -0.1679 -0.9269
 7358SOL    HW228680   2.553   8.576   5.400  0.6331 -0.8690 -0.6957
 7359SOL     OW28681   9.933   6.416  11.398  0.2323  0.0554  0.1825
 7359SOL    HW128682  10.013   6.364  11.411  0.6429 -0.0770 -2.2695
 7359SOL    HW228683   9.945   6.456  11.311 -1.8108  1.0858  0.3225
 7360SOL     OW28684   5.756   4.564   5.180  0.4866 -0.3998 -0.1465
 7360SOL    HW128685   5.749   4.592   5.088  0.0969 -2.9678 -0.9953
 7360SOL    HW228686   5.748   4.644   5.230 -2.5035  0.8335 -2.2586
 7361SOL     OW28687  11.505   2.562   8.065  0.0420  0.2072 -0.0672
 7361SOL    HW128688  11.432   2.598   8.116 -1.1458 -2.4894  0.3667
 7361SOL    HW228689  11.582   2.573   8.121 -0.9015 -0.9478  1.5659
 7362SOL     OW28690   3.231   9.771  12.491 -0.4510  0.2687 -0.0785
 7362SOL    HW128691   3.149   9.721  12.496 -0.0752 -0.4213 -0.6632
 7362SOL    HW228692   3.251   9.793  12.582 -1.3077  0.4831  0.0682
 7363SOL     OW28693   0.746   6.180   1.105  0.2665 -0.0508 -0.2128
 7363SOL    HW128694   0.758   6.089   1.133  0.8184 -0.0802 -0.5268
 7363SOL    HW228695   0.778   6.233   1.178 -0.1979 -0.1060  0.0323
 7364SOL     OW28696   6.356  11.304   1.977 -0.5190  0.2486  0.2275
 7364SOL    HW128697   6.427  11.304   1.912 -0.7104 -1.7077 -0.0534
 7364SOL    HW228698   6.383  11.238   2.040 -0.7029  1.6009  1.7715
 7365SOL     OW28699   6.354   0.151   7.050 -0.1009  0.2414 -0.9653
 7365SOL    HW128700   6.423   0.129   6.987 -0.7140 -0.9411 -1.2572
 7365SOL    HW228701   6.288   0.082   7.039  0.1494 -0.5270  1.5659
 7366SOL     OW28702  11.947  12.671   9.777 -0.5113  0.2079  0.5959
 7366SOL    HW128703  12.003  12.615   9.723  0.0967  1.2088  0.1777
 7366SOL    HW228704  11.909  12.611   9.841 -0.6192 -0.8599 -0.4310
 7367SOL     OW28705  10.002   6.808   7.896 -0.2094  0.2426 -0.0260
 7367SOL    HW128706  10.008   6.819   7.801  2.2162  0.3409  0.0595
 7367SOL    HW228707   9.912   6.833   7.918 -1.1101 -0.6596 -2.3737
 7368SOL     OW28708   3.535   7.761   1.251  0.1250 -0.2686  0.1136
 7368SOL    HW128709   3.530   7.855   1.233  0.0342 -0.1202  0.8805
 7368SOL    HW228710   3.451   7.739   1.290 -0.5049 -1.0244 -1.5965
 7369SOL     OW28711   6.282   4.946   0.671  0.0947 -0.9249  0.1701
 7369SOL    HW128712   6.228   4.910   0.741 -0.9336  0.2494  0.0136
 7369SOL    HW228713   6.307   5.033   0.702 -0.9627 -0.0973 -1.1692
 7370SOL     OW28714   1.576   4.298   8.017 -0.0333 -0.0357 -0.4622
 7370SOL    HW128715   1.668   4.324   8.014 -0.1186  0.7077  1.7859
 7370SOL    HW228716   1.561   4.252   7.934  2.4606 -0.5818 -0.6616
 7371SOL     OW28717   6.872   0.804   9.366 -0.0624 -0.3722 -0.1510
 7371SOL    HW128718   6.784   0.771   9.346 -1.0780  1.2979  1.2782
 7371SOL    HW228719   6.877   0.889   9.322 -0.2692  0.8241  2.0049
 7372SOL     OW28720   5.021   6.576   5.410 -0.1586 -0.4255 -0.0914
 7372SOL    HW128721   4.952   6.523   5.371 -1.7841  2.2962 -1.2613
 7372SOL    HW228722   5.102   6.530   5.389 -1.4248 -2.3078 -1.1492
 7373SOL     OW28723   0.276  11.914   2.082 -1.0614 -0.3812  0.1012
 7373SOL    HW128724   0.354  11.859   2.075  0.5720  1.7667  0.2771
 7373SOL    HW228725   0.224  11.892   2.005 -0.5204 -2.1760  0.2138
 7374SOL     OW28726   7.635  12.761   3.789  0.1604  0.0945  0.0038
 7374SOL    HW128727   7.567  12.699   3.761  0.3571 -1.8383  3.2628
 7374SOL    HW228728   7.710  12.706   3.810  1.3927  1.7781  0.1753
 7375SOL     OW28729   1.446   0.106  11.345 -0.4618  0.4767  0.5255
 7375SOL    HW128730   1.409   0.057  11.271  0.4207  4.0101 -2.5775
 7375SOL    HW228731   1.538   0.082  11.345 -0.6671 -0.3714  1.3020
 7376SOL     OW28732   3.987   6.733  12.512 -0.3556 -0.1036  0.0100
 7376SOL    HW128733   3.924   6.702  12.577 -0.7115  0.1730 -0.2011
 7376SOL    HW228734   4.027   6.654  12.477 -0.2636 -0.2592  0.4665
 7377SOL     OW28735  11.473   2.897   7.537  0.3770 -0.1491  0.3848
 7377SOL    HW128736  11.424   2.974   7.567 -0.3809 -0.8817  1.1008
 7377SOL    HW228737  11.519   2.927   7.459  0.5134  1.1680  0.9473
 7378SOL     OW28738  12.151   3.547   5.562 -0.0651  0.4109  0.1836
 7378SOL    HW128739  12.192   3.624   5.602  1.9463  0.9921 -2.7268
 7378SOL    HW228740  12.160   3.561   5.468 -1.0564 -2.6740 -0.4703
 7379SOL     OW28741   6.983   5.572  11.383  0.2091  0.1579  0.1400
 7379SOL    HW128742   7.016   5.631  11.316 -0.9818  1.1034  0.3476
 7379SOL    HW228743   6.964   5.629  11.458  1.2870 -0.8339  1.2187
 7380SOL     OW28744   7.146   2.824   8.312  0.2458  0.1858 -0.4429
 7380SOL    HW128745   7.231   2.840   8.352 -0.1696  3.8234 -0.6577
 7380SOL    HW228746   7.085   2.818   8.386  0.2759  1.0094 -0.3380
 7381SOL     OW28747   7.075   8.231   4.523  0.3898  0.5901  0.2249
 7381SOL    HW128748   7.163   8.205   4.496  0.1954  0.6523 -0.5013
 7381SOL    HW228749   7.078   8.232   4.618 -0.1356 -4.0916  0.4905
 7382SOL     OW28750   6.675   0.352   7.988  0.0453 -0.2259 -0.0812
 7382SOL    HW128751   6.702   0.318   8.074 -0.0527  1.5875  0.7284
 7382SOL    HW228752   6.580   0.359   7.994 -0.1529 -1.7394 -1.0224
 7383SOL     OW28753  12.205  11.378   2.361  0.3365 -0.5101  0.4984
 7383SOL    HW128754  12.197  11.287   2.389  2.9187 -1.1092 -0.4427
 7383SOL    HW228755  12.223  11.373   2.267  3.8232  0.6870  0.9659
 7384SOL     OW28756   5.877   2.429   6.391  0.4765  0.2850 -0.0329
 7384SOL    HW128757   5.938   2.481   6.338  1.5333 -2.6214 -1.8922
 7384SOL    HW228758   5.934   2.375   6.446 -0.4948 -0.3721  0.3483
 7385SOL     OW28759   9.175   5.386   6.687  0.0317 -0.1368  0.1444
 7385SOL    HW128760   9.101   5.327   6.674 -1.3338  1.8818 -1.9409
 7385SOL    HW228761   9.194   5.380   6.781 -0.1349 -3.6216  0.1200
 7386SOL     OW28762  12.150   8.350   9.084 -0.2662 -0.0099 -0.0512
 7386SOL    HW128763  12.151   8.255   9.097  0.4392  0.2399  2.0613
 7386SOL    HW228764  12.241   8.377   9.093 -0.8685  1.3214  4.0287
 7387SOL     OW28765   1.899  11.424   2.692  0.2540  0.4598 -0.3874
 7387SOL    HW128766   1.926  11.509   2.726  0.6116  0.8528 -1.5902
 7387SOL    HW228767   1.818  11.442   2.643 -1.1783 -0.3687  1.5578
 7388SOL     OW28768  12.562   4.423   5.038  0.3357  0.0584 -0.5898
 7388SOL    HW128769  12.567   4.438   4.943  1.5899 -1.9559 -0.9157
 7388SOL    HW228770  12.648   4.450   5.071  0.3789 -0.4737 -0.2565
 7389SOL     OW28771   5.642   8.173  10.582 -0.0320  0.2148  0.1342
 7389SOL    HW128772   5.665   8.084  10.554  0.8913  0.3465  0.4492
 7389SOL    HW228773   5.622   8.220  10.500 -2.3952 -0.7562  0.0686
 7390SOL     OW28774   1.598  10.681   7.447 -0.3617 -0.4761 -0.2259
 7390SOL    HW128775   1.615  10.659   7.356  1.3417  0.7436 -0.2508
 7390SOL    HW228776   1.593  10.777   7.448  1.3994 -0.3507  1.2050
 7391SOL     OW28777   8.378   5.076  11.139 -0.0591  0.0715  0.1315
 7391SOL    HW128778   8.450   5.105  11.082 -1.0822  1.1338 -0.6712
 7391SOL    HW228779   8.422   5.037  11.214  1.3530  0.0550 -0.6538
 7392SOL     OW28780   0.056   9.409   7.446 -0.1027 -0.2580 -0.1178
 7392SOL    HW128781   0.011   9.367   7.519  0.5717  1.8736  1.6103
 7392SOL    HW228782   0.131   9.351   7.428 -1.1258 -1.6029 -0.2043
 7393SOL     OW28783   8.957  11.487  10.121 -0.5953 -0.4910  0.3729
 7393SOL    HW128784   8.946  11.402  10.165  0.0193 -0.0407  1.4132
 7393SOL    HW228785   8.990  11.464  10.034 -1.2737 -1.3617  0.3242
 7394SOL     OW28786  11.978   5.809  12.240  0.4254  0.9757  0.2929
 7394SOL    HW128787  11.888   5.840  12.230  0.0887 -0.1040 -0.1299
 7394SOL    HW228788  11.972   5.714  12.233  1.5973  0.8861  0.2786
 7395SOL     OW28789   5.184   3.668   3.390 -0.3742  0.5814 -0.0997
 7395SOL    HW128790   5.132   3.741   3.423 -2.5213  0.2101 -2.3531
 7395SOL    HW228791   5.234   3.704   3.317 -0.0059  0.1874 -0.0529
 7396SOL     OW28792   9.274   6.218  11.502 -0.0322  0.1896  0.3087
 7396SOL    HW128793   9.229   6.216  11.418  0.9106  0.5099 -0.2164
 7396SOL    HW228794   9.205   6.231  11.567 -0.7335  0.2112 -0.4385
 7397SOL     OW28795   3.106   5.887   8.288 -0.5114  0.2156  0.1464
 7397SOL    HW128796   3.014   5.869   8.310 -0.1809 -0.8428  0.7750
 7397SOL    HW228797   3.146   5.912   8.371 -0.0150 -0.3670  0.0929
 7398SOL     OW28798   6.238   4.928  11.819  0.1739  0.4368 -0.3455
 7398SOL    HW128799   6.231   4.849  11.766 -0.8547  0.1359  0.2219
 7398SOL    HW228800   6.177   4.990  11.780  1.1048  1.0377 -0.8977
 7399SOL     OW28801   9.919   0.603   6.255 -0.2173 -0.9655 -0.3648
 7399SOL    HW128802  10.007   0.621   6.222 -0.3114 -2.3801 -1.4748
 7399SOL    HW228803   9.864   0.602   6.177 -0.9883 -1.3826  0.1691
 7400SOL     OW28804  10.393   4.321   4.425  0.2206  0.8579  0.3005
 7400SOL    HW128805  10.418   4.265   4.499 -0.5259  1.1802  0.8135
 7400SOL    HW228806  10.411   4.410   4.455  2.0799  0.9024 -0.7752
 7401SOL     OW28807   2.898   2.684   9.555  0.4158 -0.3274  0.0298
 7401SOL    HW128808   2.803   2.672   9.553  0.6480 -2.6992 -0.8030
 7401SOL    HW228809   2.918   2.710   9.644 -1.1388  1.8947 -0.1980
 7402SOL     OW28810  10.400   3.512   4.366  0.4389  0.0196  0.8751
 7402SOL    HW128811  10.446   3.576   4.312  1.5311 -0.4158  1.2484
 7402SOL    HW228812  10.308   3.536   4.360  0.2709 -0.9938 -2.5229
 7403SOL     OW28813   7.093   6.499   1.747  0.0349  0.0072  0.1282
 7403SOL    HW128814   7.032   6.439   1.790  0.2046  2.0985  3.6565
 7403SOL    HW228815   7.043   6.537   1.676 -2.1510  0.1310  1.6411
 7404SOL     OW28816   4.061   6.445  11.235  0.3229 -0.1938  0.3011
 7404SOL    HW128817   4.155   6.449  11.216 -0.3873  1.2235 -3.8799
 7404SOL    HW228818   4.042   6.527  11.280  0.7261  0.9669 -1.5185
 7405SOL     OW28819   9.764   5.210   8.455  0.5528  0.1538 -0.5686
 7405SOL    HW128820   9.829   5.153   8.414  1.2658  1.7905 -1.8424
 7405SOL    HW228821   9.680   5.181   8.419  0.8657 -0.2953 -0.9409
 7406SOL     OW28822   8.491  10.760   8.303 -0.0305 -0.1102 -0.1574
 7406SOL    HW128823   8.553  10.796   8.365  1.2947 -0.8864 -0.9788
 7406SOL    HW228824   8.500  10.665   8.312 -1.4177 -0.2469 -0.0045
 7407SOL     OW28825   2.989   2.174   4.739  0.0175  0.3715 -0.0209
 7407SOL    HW128826   2.903   2.134   4.720 -0.2331  0.4085  0.9775
 7407SOL    HW228827   3.028   2.188   4.653 -0.2404 -1.2603 -0.4478
 7408SOL     OW28828   4.382  12.011  12.127 -0.0326  0.0855 -0.2082
 7408SOL    HW128829   4.464  12.020  12.176 -0.8993  0.6815  1.2009
 7408SOL    HW228830   4.337  11.938  12.170  0.6530 -1.7116 -2.3626
 7409SOL     OW28831   9.717   8.249  11.847 -0.0536 -0.3886 -0.4886
 7409SOL    HW128832   9.781   8.317  11.828 -0.7720  0.1687 -0.9750
 7409SOL    HW228833   9.768   8.179  11.888  0.5912  0.6812  0.5949
 7410SOL     OW28834   7.823   5.374   7.653 -0.1006 -0.1436  0.0211
 7410SOL    HW128835   7.784   5.309   7.595  0.2476  0.2908 -0.7167
 7410SOL    HW228836   7.917   5.360   7.645  0.0726  1.3927 -1.3312
 7411SOL     OW28837  11.060   7.000   3.500 -0.2772  0.1443  0.5973
 7411SOL    HW128838  11.020   7.036   3.578  1.5501 -1.0120  2.1563
 7411SOL    HW228839  11.009   6.922   3.479 -0.3126  0.0247  1.1222
 7412SOL     OW28840  10.556   6.932   8.254  0.1769  0.5714 -0.1583
 7412SOL    HW128841  10.644   6.931   8.291  0.5509  1.1170 -1.0041
 7412SOL    HW228842  10.502   6.970   8.324  0.8144  1.3006 -0.0375
 7413SOL     OW28843   6.704  10.296   1.324  0.2832  0.1388 -0.6295
 7413SOL    HW128844   6.707  10.285   1.419  2.2506 -0.7480 -0.7570
 7413SOL    HW228845   6.618  10.334   1.308 -1.7466 -3.1763  1.1708
 7414SOL     OW28846   3.283   9.155  11.620 -0.2784 -0.0805 -0.4038
 7414SOL    HW128847   3.367   9.193  11.595 -0.0105 -0.2288  0.2680
 7414SOL    HW228848   3.223   9.181  11.549  0.6441 -1.2328 -1.6581
 7415SOL     OW28849   4.831   9.613  12.516 -0.0000 -0.2976 -0.1263
 7415SOL    HW128850   4.899   9.601  12.582 -1.2720  0.7169  1.4533
 7415SOL    HW228851   4.821   9.708  12.510 -1.0681 -0.4234 -0.5367
 7416SOL     OW28852   7.006  12.779   3.277  0.0821  0.1349 -0.0652
 7416SOL    HW128853   6.934  12.750   3.221  0.1590 -1.0485  0.4182
 7416SOL    HW228854   7.069  12.819   3.217  1.4417 -3.5142 -1.3262
 7417SOL     OW28855   0.088  10.282  11.782 -0.1741  0.3963  0.3263
 7417SOL    HW128856   0.126  10.271  11.869  2.0173  0.9481 -0.4847
 7417SOL    HW228857   0.158  10.257  11.722 -1.7152 -0.2401 -1.3131
 7418SOL     OW28858   3.669   5.434   3.732  0.1617  0.0960  0.4641
 7418SOL    HW128859   3.663   5.343   3.758 -1.2196  0.5111  1.7840
 7418SOL    HW228860   3.684   5.482   3.814 -0.0748  1.1134 -0.0650
 7419SOL     OW28861   1.230  11.229   5.519 -0.0624  0.8424 -0.5922
 7419SOL    HW128862   1.215  11.311   5.472  1.6824  2.1370  0.9565
 7419SOL    HW228863   1.314  11.197   5.487 -0.5759 -0.1974 -0.9484
 7420SOL     OW28864  11.539  10.042   0.104  0.3297 -0.2066 -0.4200
 7420SOL    HW128865  11.515  10.131   0.078  0.1821 -0.2769 -0.5207
 7420SOL    HW228866  11.635  10.043   0.105  0.3338 -0.1944 -0.9207
 7421SOL     OW28867   7.714   2.051  11.085  0.3100  0.8050 -0.5429
 7421SOL    HW128868   7.784   2.044  11.149 -2.3537  0.2157  2.5464
 7421SOL    HW228869   7.706   2.145  11.068  2.1652  0.8374 -1.4474
 7422SOL     OW28870   1.186  11.603  11.695  0.2433  0.2285  0.1077
 7422SOL    HW128871   1.173  11.517  11.654 -0.0635  0.3069  0.0342
 7422SOL    HW228872   1.274  11.629  11.670 -0.6096  1.1859 -2.2233
 7423SOL     OW28873   0.311   3.072   9.941 -0.0991  0.5781 -0.3962
 7423SOL    HW128874   0.357   2.988   9.942 -0.0957  0.5520 -1.6495
 7423SOL    HW228875   0.248   3.064   9.870  1.2883  2.3537 -1.9180
 7424SOL     OW28876   0.835   9.232   8.339 -0.8829 -0.0739  0.3377
 7424SOL    HW128877   0.760   9.184   8.306 -0.3646 -1.0029  0.4777
 7424SOL    HW228878   0.884   9.257   8.261 -0.7615 -0.4256  0.3019
 7425SOL     OW28879   8.840  11.322   6.339 -0.2728  0.3753 -0.3908
 7425SOL    HW128880   8.930  11.330   6.371 -0.7020  0.3271  0.8438
 7425SOL    HW228881   8.798  11.404   6.365 -1.1310 -0.4206  0.8443
 7426SOL     OW28882  12.666   2.557   3.028 -0.2194  0.2973 -0.4363
 7426SOL    HW128883  12.610   2.627   2.992 -1.1888  0.8793  2.0102
 7426SOL    HW228884  12.743   2.557   2.971 -1.1150  1.9226 -1.7633
 7427SOL     OW28885   2.313   6.763   1.393 -0.9241 -0.2798  0.1151
 7427SOL    HW128886   2.268   6.846   1.405 -1.1498 -0.2282 -0.9168
 7427SOL    HW228887   2.281   6.707   1.463 -2.1353 -0.0422 -0.2227
 7428SOL     OW28888   8.049  11.821   8.134  0.5950  0.5862  0.1851
 7428SOL    HW128889   8.011  11.814   8.221  0.3970  2.1723  0.2435
 7428SOL    HW228890   7.978  11.798   8.074 -0.1149  2.2100  0.3529
 7429SOL     OW28891   6.756   1.300   3.152 -0.1565 -0.1655 -0.4166
 7429SOL    HW128892   6.662   1.288   3.142 -0.0014 -0.6886 -1.3234
 7429SOL    HW228893   6.790   1.212   3.169  0.0978  0.1126  0.5664
 7430SOL     OW28894   2.587   6.323   0.954  0.2716  0.4428  0.6029
 7430SOL    HW128895   2.517   6.263   0.930  0.3258 -1.0449  3.5775
 7430SOL    HW228896   2.549   6.410   0.944 -0.3412 -0.0547 -2.3227
 7431SOL     OW28897  11.318   5.182   1.154  0.0589 -0.3243  0.5465
 7431SOL    HW128898  11.334   5.139   1.070  0.6433  0.5363  0.2049
 7431SOL    HW228899  11.234   5.226   1.143  1.4058  2.1244 -0.6024
 7432SOL     OW28900   2.551   4.397   2.168 -0.1293  0.3091  0.0347
 7432SOL    HW128901   2.640   4.367   2.188  0.5506  0.9158 -1.8280
 7432SOL    HW228902   2.552   4.412   2.073 -2.4035 -0.2104 -0.1285
 7433SOL     OW28903   1.056  12.416   3.967 -0.2506 -0.2946  0.3906
 7433SOL    HW128904   0.980  12.475   3.974 -1.9976 -2.1507 -1.3934
 7433SOL    HW228905   1.099  12.444   3.886  1.2345  0.9598  1.5643
 7434SOL     OW28906   0.346   4.626   4.267 -0.2011  0.1147 -0.2095
 7434SOL    HW128907   0.432   4.621   4.226  0.1610  0.2664  0.5126
 7434SOL    HW228908   0.292   4.566   4.216  0.5005 -0.4783 -0.2767
 7435SOL     OW28909   2.085  12.046   5.792  0.8194 -0.3233  0.2534
 7435SOL    HW128910   2.180  12.056   5.788  0.5597  2.6911 -2.7296
 7435SOL    HW228911   2.065  11.985   5.721  0.4984 -1.0654  0.9668
 7436SOL     OW28912   2.393   8.077  11.608 -0.2250 -0.1717  0.0519
 7436SOL    HW128913   2.462   8.032  11.558 -1.3197 -1.8953 -0.0010
 7436SOL    HW228914   2.429   8.164  11.625  1.2236 -0.3932 -1.5315
 7437SOL     OW28915   2.082   9.537   2.599 -0.2012 -0.3573 -0.0363
 7437SOL    HW128916   2.010   9.597   2.616 -0.2037 -0.1654 -0.7207
 7437SOL    HW228917   2.050   9.452   2.628 -0.8287 -0.3378 -0.6719
 7438SOL     OW28918   5.069   0.196   4.006 -0.0335  0.1691  0.1206
 7438SOL    HW128919   5.034   0.201   3.918 -1.2448 -1.8667  0.4376
 7438SOL    HW228920   4.992   0.189   4.063  0.7672 -0.4645  1.1720
 7439SOL     OW28921   1.157   8.582   3.739 -0.2647  0.3254 -0.4844
 7439SOL    HW128922   1.177   8.575   3.832  0.9122 -2.0084 -0.8325
 7439SOL    HW228923   1.172   8.674   3.718 -1.5726  1.1558  1.7958
 7440SOL     OW28924   1.533  11.978  11.473  0.1384 -0.5831 -0.4544
 7440SOL    HW128925   1.488  11.905  11.430 -0.2471 -1.8454  1.9139
 7440SOL    HW228926   1.586  11.937  11.541 -1.3033  1.3504  2.0420
 7441SOL     OW28927   8.548  10.705   3.926  0.3155  0.0272  0.0464
 7441SOL    HW128928   8.458  10.694   3.896  0.7127  1.1998 -1.7553
 7441SOL    HW228929   8.568  10.797   3.908  2.1919 -0.4597 -0.5572
 7442SOL     OW28930   5.782   2.302   4.712 -0.6300  0.7176  0.0049
 7442SOL    HW128931   5.702   2.353   4.724 -0.5361  0.8330  0.1456
 7442SOL    HW228932   5.754   2.223   4.665 -0.7497  0.9753 -0.3611
 7443SOL     OW28933   5.529   4.931   9.211 -0.6445 -0.4624 -0.4977
 7443SOL    HW128934   5.453   4.986   9.228  0.7047  1.4845 -0.2987
 7443SOL    HW228935   5.553   4.950   9.120  0.2036 -0.1903 -0.2343
 7444SOL     OW28936   9.590  12.659   7.400  0.2292 -0.0101 -0.1265
 7444SOL    HW128937   9.511  12.708   7.377 -1.2083 -0.7503  2.7066
 7444SOL    HW228938   9.649  12.724   7.439 -0.4199  0.0026  0.8600
 7445SOL     OW28939   5.191   2.114  11.255  0.3345 -0.2127 -0.2928
 7445SOL    HW128940   5.201   2.032  11.304  0.2218 -0.3103 -0.4321
 7445SOL    HW228941   5.233   2.097  11.171 -1.1522 -0.7086 -0.9732
 7446SOL     OW28942   3.888   0.735   2.306 -0.0343  0.4170 -0.1703
 7446SOL    HW128943   3.975   0.743   2.266  0.3428  2.2628  0.8946
 7446SOL    HW228944   3.836   0.689   2.241  0.7425  2.5837 -2.4739
 7447SOL     OW28945   9.465   8.313   1.184  0.1846 -0.3094 -0.0280
 7447SOL    HW128946   9.560   8.316   1.193  0.0615  0.3613  1.4431
 7447SOL    HW228947   9.434   8.383   1.242 -1.1879 -0.2166 -0.8328
 7448SOL     OW28948   4.352   8.528  10.353  0.5001 -0.0197 -0.4903
 7448SOL    HW128949   4.334   8.495  10.265 -3.0245  1.2134 -0.3591
 7448SOL    HW228950   4.393   8.613  10.339 -1.7022  0.9992 -1.0361
 7449SOL     OW28951  11.752   5.870   1.813  0.5909 -0.1995  0.0078
 7449SOL    HW128952  11.793   5.943   1.766  1.4593 -0.8433 -0.2434
 7449SOL    HW228953  11.691   5.913   1.873  0.8441  0.7257 -0.3706
 7450SOL     OW28954  11.461   3.615   8.552 -0.5662  0.3683  0.4156
 7450SOL    HW128955  11.478   3.672   8.627 -0.9774  1.1550 -0.0649
 7450SOL    HW228956  11.431   3.532   8.590 -0.5035  0.6650  1.1227
 7451SOL     OW28957  11.306   1.635   3.211  0.0985  0.0192  0.6519
 7451SOL    HW128958  11.322   1.679   3.294 -1.2440 -0.1183  0.9984
 7451SOL    HW228959  11.212   1.623   3.207  0.0343  0.6935 -1.2374
 7452SOL     OW28960   9.965   7.205   8.344 -0.3220 -0.0247  0.2407
 7452SOL    HW128961   9.904   7.211   8.271 -0.3191  1.0111  0.3150
 7452SOL    HW228962   9.981   7.295   8.370  0.4512 -0.3319  0.8832
 7453SOL     OW28963   6.467   5.235   5.503  0.5365 -0.2008 -0.0224
 7453SOL    HW128964   6.533   5.184   5.548 -0.2870 -0.2599  1.1530
 7453SOL    HW228965   6.463   5.198   5.415  1.1514 -1.0296  0.2936
 7454SOL     OW28966   9.013   7.687   1.910  0.5557 -0.2010 -0.5445
 7454SOL    HW128967   8.998   7.598   1.941  1.8370 -0.4157 -0.4688
 7454SOL    HW228968   9.105   7.704   1.931  0.3122  1.1614 -0.5065
 7455SOL     OW28969   7.217   7.130  10.503 -0.7801 -0.5850 -0.1298
 7455SOL    HW128970   7.180   7.146  10.590  0.9621 -0.4848  0.6368
 7455SOL    HW228971   7.256   7.043  10.509  0.9903  0.1640 -0.1781
 7456SOL     OW28972   4.961   9.038   1.265 -0.4491 -0.0105 -0.2526
 7456SOL    HW128973   5.017   9.103   1.223 -0.1523 -0.6991 -0.9409
 7456SOL    HW228974   5.007   9.015   1.346 -0.5038  0.5449 -0.0593
 7457SOL     OW28975  11.270   4.713   8.608 -0.4444 -0.1371  0.2808
 7457SOL    HW128976  11.302   4.718   8.698  1.1035 -0.1564 -0.2456
 7457SOL    HW228977  11.274   4.619   8.586  1.0470  0.0628 -0.4253
 7458SOL     OW28978   9.816  10.370   8.196 -0.5665 -0.3627  0.1441
 7458SOL    HW128979   9.890  10.315   8.168  1.4178  0.5389  3.0871
 7458SOL    HW228980   9.820  10.447   8.139 -0.7293 -1.3240 -1.2278
 7459SOL     OW28981   9.124   8.755   2.242 -0.0032 -0.0994  0.4652
 7459SOL    HW128982   9.185   8.802   2.299 -2.7166  1.7025  2.1040
 7459SOL    HW228983   9.109   8.671   2.286  1.7097 -0.8599 -0.3146
 7460SOL     OW28984  12.327   4.928  10.831  0.5686  0.0695 -0.2385
 7460SOL    HW128985  12.379   5.006  10.850 -0.5288  1.2458 -1.7399
 7460SOL    HW228986  12.351   4.866  10.899  1.7155  1.6048  0.8432
 7461SOL     OW28987   1.618   7.435  12.374 -0.0720 -0.3853  0.2965
 7461SOL    HW128988   1.616   7.525  12.404 -1.0045  0.0992 -1.1160
 7461SOL    HW228989   1.582   7.384  12.447 -1.9961  0.7040  0.1751
 7462SOL     OW28990  11.305  11.087   1.533 -0.1301  0.2883 -0.0614
 7462SOL    HW128991  11.305  10.991   1.533  0.9717  0.2289 -1.7831
 7462SOL    HW228992  11.397  11.110   1.549 -0.1785  0.9982 -0.7331
 7463SOL     OW28993   8.133   7.941   3.283 -0.2357 -0.4270 -0.2693
 7463SOL    HW128994   8.150   8.034   3.293  3.0686 -0.9563  0.1359
 7463SOL    HW228995   8.148   7.923   3.190 -0.8473 -0.5961 -0.3454
 7464SOL     OW28996   0.949  11.591   9.346 -0.3990  0.5624 -0.3901
 7464SOL    HW128997   1.001  11.535   9.403 -0.1738  1.7484  0.6256
 7464SOL    HW228998   1.012  11.656   9.314 -0.8972  0.9693 -0.5489
 7465SOL     OW28999   4.663  12.447   3.982  0.6563 -1.0603  0.7843
 7465SOL    HW129000   4.652  12.352   3.980 -3.3157 -0.8269  2.6728
 7465SOL    HW229001   4.668  12.469   4.075 -0.5629  0.6847  0.4868
 7466SOL     OW29002   3.209   3.435   0.060 -0.6589  0.2759 -0.0959
 7466SOL    HW129003   3.181   3.439  -0.032 -0.1279 -0.5464 -0.3129
 7466SOL    HW229004   3.301   3.459   0.058 -0.2667 -1.1356  0.0056
 7467SOL     OW29005   3.886   0.535   9.332  0.1032 -0.3295  0.2753
 7467SOL    HW129006   3.808   0.584   9.306 -0.1309 -0.4368  0.7615
 7467SOL    HW229007   3.885   0.457   9.277 -0.2559 -0.4408  0.4402
 7468SOL     OW29008   5.386   3.576   1.738 -0.4235  0.0263  0.6762
 7468SOL    HW129009   5.456   3.516   1.713 -1.9121 -0.8846 -1.6637
 7468SOL    HW229010   5.430   3.657   1.762  1.4233 -0.5578 -0.5696
 7469SOL     OW29011   4.941   0.241   0.318  0.3935 -0.0286 -0.3162
 7469SOL    HW129012   4.948   0.170   0.254 -0.5528 -0.8059  0.4219
 7469SOL    HW229013   5.014   0.226   0.378  1.3474  0.7628 -1.2306
 7470SOL     OW29014   3.379   0.520   4.851 -0.3819 -0.0921  0.0889
 7470SOL    HW129015   3.297   0.541   4.895 -1.0539 -1.9218 -0.2110
 7470SOL    HW229016   3.389   0.426   4.862 -0.1586 -0.5296 -2.9002
 7471SOL     OW29017   5.369  10.431  11.027  0.2380  0.0879  0.1469
 7471SOL    HW129018   5.464  10.419  11.026  0.2082 -0.4322  1.4519
 7471SOL    HW229019   5.341  10.408  10.939  1.4302  1.2766 -0.5793
 7472SOL     OW29020  12.114   6.986   8.825 -0.0109 -0.2976  0.3831
 7472SOL    HW129021  12.117   6.976   8.729  0.4066 -0.0506  0.3678
 7472SOL    HW229022  12.125   7.080   8.839 -1.9999 -0.0430  0.6040
 7473SOL     OW29023   2.976   2.246   7.739 -0.6228  0.4165  0.3737
 7473SOL    HW129024   2.961   2.300   7.662 -1.2024 -0.4983 -0.1748
 7473SOL    HW229025   2.901   2.264   7.796 -0.4094  0.7783  0.5409
 7474SOL     OW29026   2.963  12.595   0.176  0.2605  0.2930  0.3397
 7474SOL    HW129027   2.882  12.583   0.127 -0.1871  0.2704  1.0652
 7474SOL    HW229028   3.016  12.518   0.154  1.1337  1.4808 -2.0538
 7475SOL     OW29029  10.135   3.590   6.156 -0.1197 -0.1299  0.3306
 7475SOL    HW129030  10.213   3.593   6.211  0.2908  0.9185 -0.2847
 7475SOL    HW229031  10.101   3.501   6.167  1.2119 -0.6348  0.5310
 7476SOL     OW29032   0.669   8.900   5.243 -0.0794 -0.6640  0.0040
 7476SOL    HW129033   0.626   8.957   5.180  1.9090 -1.3776 -2.1278
 7476SOL    HW229034   0.762   8.919   5.234  0.3879 -1.8611  1.6872
 7477SOL     OW29035   5.459   8.092  11.367 -0.1210  0.4822 -0.2658
 7477SOL    HW129036   5.465   8.185  11.343 -2.3204  1.6564  3.0706
 7477SOL    HW229037   5.367   8.070  11.354  0.4158 -1.3614 -1.2046
 7478SOL     OW29038   0.545   8.195  11.945  0.4713  0.0579  0.3041
 7478SOL    HW129039   0.501   8.135  12.004 -0.1106  0.6331  0.4673
 7478SOL    HW229040   0.501   8.184  11.861  0.8440 -0.2640  0.1486
 7479SOL     OW29041   9.488   1.882   8.385 -0.5209  0.2376  0.3472
 7479SOL    HW129042   9.529   1.931   8.314 -0.1304 -0.2090  0.2606
 7479SOL    HW229043   9.479   1.945   8.456 -1.2807  0.7987 -0.2295
 7480SOL     OW29044   8.804   8.357  12.717  0.3612 -0.3364 -0.3082
 7480SOL    HW129045   8.785   8.279  12.768 -1.6065  0.7379  0.7178
 7480SOL    HW229046   8.777   8.335  12.628  0.4186 -1.0136 -0.1624
 7481SOL     OW29047   2.808   1.449   5.635  0.1762  0.0491 -0.3941
 7481SOL    HW129048   2.788   1.468   5.543 -0.0534  1.9969  0.0089
 7481SOL    HW229049   2.892   1.492   5.650  0.3602 -0.5234  0.2210
 7482SOL     OW29050  11.744  11.623   3.342  0.6320 -0.8378 -0.0449
 7482SOL    HW129051  11.793  11.660   3.268  0.7655  0.8931  0.8586
 7482SOL    HW229052  11.689  11.695   3.373 -0.8316 -2.0856  0.3876
 7483SOL     OW29053  12.222   9.828   2.300 -0.0821 -0.0007 -0.6506
 7483SOL    HW129054  12.201   9.867   2.385 -1.4384  0.3558 -1.1246
 7483SOL    HW229055  12.235   9.735   2.319 -1.8082 -0.1897 -0.2397
 7484SOL     OW29056  10.961  12.278   4.903  0.4702 -0.2151 -0.7509
 7484SOL    HW129057  10.905  12.206   4.933 -0.4764  0.9618  0.4180
 7484SOL    HW229058  11.048  12.258   4.937 -0.1719  0.0851  1.1783
 7485SOL     OW29059   7.277  12.287  12.257 -0.2302  0.3793  0.1318
 7485SOL    HW129060   7.292  12.291  12.352  0.1118  0.7028  0.0642
 7485SOL    HW229061   7.243  12.198  12.242  0.1733  0.1622  0.4877
 7486SOL     OW29062   1.766   1.399   0.111 -0.2664  0.7119 -0.3287
 7486SOL    HW129063   1.800   1.309   0.113 -0.1595  0.7517  1.6261
 7486SOL    HW229064   1.829   1.448   0.058 -1.1222 -0.6175 -2.7545
 7487SOL     OW29065   8.668   8.700   4.454 -0.0002  0.2170 -0.2006
 7487SOL    HW129066   8.684   8.717   4.361  0.9906 -0.9215 -0.2565
 7487SOL    HW229067   8.754   8.675   4.489 -0.8850 -2.3361  0.3420
 7488SOL     OW29068   1.552  10.110  11.164  0.5605 -0.0390 -1.1259
 7488SOL    HW129069   1.591  10.077  11.083 -0.9190 -1.5250 -1.2741
 7488SOL    HW229070   1.465  10.141  11.139  0.3582  0.1464 -0.2338
 7489SOL     OW29071  11.184   7.413   3.266 -0.4724 -0.4741  0.1016
 7489SOL    HW129072  11.182   7.509   3.266  0.4599 -0.4454  0.4292
 7489SOL    HW229073  11.092   7.387   3.274 -0.6755  0.3965  0.7412
 7490SOL     OW29074   3.289   3.275   7.948 -0.2386 -0.0831  0.3728
 7490SOL    HW129075   3.216   3.321   7.989 -1.7842 -0.3281 -1.9494
 7490SOL    HW229076   3.361   3.283   8.011 -2.1092  0.5645  2.5352
 7491SOL     OW29077   4.454   9.887   6.293 -0.5967 -0.2601  0.0760
 7491SOL    HW129078   4.415   9.961   6.339  1.6756 -0.4405  2.5363
 7491SOL    HW229079   4.543   9.914   6.273  0.5166 -2.4552  1.6326
 7492SOL     OW29080  11.534   9.786   9.606 -0.2771  0.2784  0.1653
 7492SOL    HW129081  11.551   9.781   9.512 -0.8850 -0.1954  0.0749
 7492SOL    HW229082  11.440   9.768   9.614 -0.4612  1.4303  0.7657
 7493SOL     OW29083   9.056   3.470   6.054 -0.5476  0.3193  0.1341
 7493SOL    HW129084   9.127   3.511   6.004 -0.8857  2.1032  0.9944
 7493SOL    HW229085   8.979   3.523   6.034 -0.7798  0.8459  2.1212
 7494SOL     OW29086  11.382  12.413   6.006 -0.3945  0.0446  0.3246
 7494SOL    HW129087  11.360  12.360   5.929 -0.3498  2.8184 -1.7716
 7494SOL    HW229088  11.333  12.373   6.078 -1.7963 -1.6922 -1.4725
 7495SOL     OW29089   4.036   2.544   4.065 -0.1006 -0.2518  0.2814
 7495SOL    HW129090   3.954   2.570   4.107 -0.0381  0.2738  0.0849
 7495SOL    HW229091   4.091   2.622   4.070  0.4193 -0.6187  0.4775
 7496SOL     OW29092  10.972   8.919   7.509  0.0273  0.2325  0.0934
 7496SOL    HW129093  10.889   8.963   7.527  1.1322  1.2198  3.5365
 7496SOL    HW229094  10.966   8.836   7.557  1.4643  0.9156  1.5428
 7497SOL     OW29095  11.729   3.866   9.632 -0.2753  0.2170  0.3459
 7497SOL    HW129096  11.727   3.804   9.705 -2.0778  0.8812  0.9085
 7497SOL    HW229097  11.791   3.934   9.661 -0.1985 -0.0423  0.8057
 7498SOL     OW29098   4.319   4.397   0.948 -0.1532  0.3422 -0.4870
 7498SOL    HW129099   4.379   4.472   0.938 -0.9615  1.2433  1.0423
 7498SOL    HW229100   4.370   4.322   0.918  2.6142  0.6998  2.6340
 7499SOL     OW29101  12.530   2.635   9.314  0.0187 -0.3414 -0.1228
 7499SOL    HW129102  12.517   2.555   9.263  0.7754 -0.6847  0.2052
 7499SOL    HW229103  12.447   2.647   9.360  0.0333 -1.1740  0.1464
 7500SOL     OW29104   7.367   0.911   0.635 -0.6853 -0.0891  0.0486
 7500SOL    HW129105   7.406   0.986   0.589 -1.1211 -0.4272 -0.8946
 7500SOL    HW229106   7.405   0.834   0.592 -2.1072 -0.4229 -0.6681
 7501SOL     OW29107   8.877   2.319  11.271 -0.7109 -0.0003  0.0704
 7501SOL    HW129108   8.920   2.398  11.241 -2.8740  0.2043 -2.9384
 7501SOL    HW229109   8.943   2.275  11.325  1.3255  2.7113  0.0132
 7502SOL     OW29110   6.401   3.642   4.151 -0.2796  0.0071 -0.5031
 7502SOL    HW129111   6.476   3.687   4.112  0.7466 -1.5416 -0.3816
 7502SOL    HW229112   6.388   3.687   4.235  1.5731 -0.7057  0.2169
 7503SOL     OW29113   7.743   5.788   2.829 -0.2910 -0.4115  0.5938
 7503SOL    HW129114   7.727   5.857   2.894 -1.3414  1.2483 -1.3135
 7503SOL    HW229115   7.839   5.779   2.829 -0.1753  0.5125  1.4305
 7504SOL     OW29116   3.486  11.627  10.750 -0.4594  0.2490 -0.2622
 7504SOL    HW129117   3.490  11.608  10.657 -0.1939 -0.8030 -0.0507
 7504SOL    HW229118   3.572  11.601  10.783  0.6709  3.5678 -0.2176
 7505SOL     OW29119   7.287   7.371  11.474  0.2921  0.1859 -0.2347
 7505SOL    HW129120   7.289   7.291  11.422  0.2314 -1.3598  2.0123
 7505SOL    HW229121   7.198   7.405  11.464 -0.4681 -1.4312  0.7385
 7506SOL     OW29122  10.999  11.862   8.604  0.2829 -0.1156 -0.7511
 7506SOL    HW129123  10.967  11.944   8.565 -2.1853 -1.0894 -0.9164
 7506SOL    HW229124  11.060  11.827   8.539 -0.0815  0.6649 -1.5384
 7507SOL     OW29125  12.445   2.572   8.495  0.0359 -0.2707  0.1818
 7507SOL    HW129126  12.516   2.571   8.431  0.4394  0.0236  0.6198
 7507SOL    HW229127  12.488   2.558   8.579 -0.3194  0.7068  0.5441
 7508SOL     OW29128  12.443   5.485  12.297 -0.3299  0.2604 -0.1297
 7508SOL    HW129129  12.353   5.457  12.310 -0.0254 -0.0611  1.4562
 7508SOL    HW229130  12.492   5.441  12.366  0.9495  0.9203 -0.5894
 7509SOL     OW29131   9.848   5.441   2.086  0.0884 -0.0482 -0.0449
 7509SOL    HW129132   9.901   5.487   2.020 -0.9909  0.5672 -0.5063
 7509SOL    HW229133   9.814   5.364   2.039  0.6837 -0.5325  0.2980
 7510SOL     OW29134   7.925   8.312   3.265 -0.6953  0.2961 -0.1629
 7510SOL    HW129135   8.012   8.315   3.224 -0.5656 -2.7305 -0.3585
 7510SOL    HW229136   7.940   8.339   3.355  0.4895 -0.1489 -0.1958
 7511SOL     OW29137  10.096  12.111   2.143 -0.3026  0.0348 -0.3650
 7511SOL    HW129138  10.164  12.150   2.199 -1.5400 -0.9724  1.9605
 7511SOL    HW229139  10.126  12.130   2.054  1.3735  2.4310  0.5782
 7512SOL     OW29140   0.393   9.980   9.597 -0.1197 -0.5812  0.2554
 7512SOL    HW129141   0.405   9.895   9.639 -0.6122 -0.4295  0.7086
 7512SOL    HW229142   0.361  10.038   9.666  1.0805  0.2206  0.1642
 7513SOL     OW29143  11.394   9.375   6.806  0.2312  1.0640 -0.0696
 7513SOL    HW129144  11.430   9.422   6.731  2.2231  0.6906  0.6014
 7513SOL    HW229145  11.470   9.357   6.862 -0.8309 -0.8520  0.8393
 7514SOL     OW29146   8.451  12.259   7.988 -0.0886 -0.0930  0.4188
 7514SOL    HW129147   8.536  12.299   7.971 -0.8308  0.5422 -2.1759
 7514SOL    HW229148   8.470  12.167   8.005  1.1430  0.1211  0.2476
 7515SOL     OW29149  12.534   8.573   9.041 -0.1214  0.3338 -0.1873
 7515SOL    HW129150  12.594   8.598   8.970  0.0643  0.8607  0.1508
 7515SOL    HW229151  12.514   8.655   9.085 -0.6530  0.0791  0.0527
 7516SOL     OW29152  11.839   4.154   3.459 -0.6062 -0.0562 -0.2772
 7516SOL    HW129153  11.796   4.240   3.457 -0.2330  0.1546  0.3980
 7516SOL    HW229154  11.878   4.149   3.546  0.3151 -0.4528 -0.7003
 7517SOL     OW29155   7.959   2.199  12.063  0.0357  0.1154 -0.0748
 7517SOL    HW129156   7.937   2.244  12.144 -1.1635 -1.1605  0.3614
 7517SOL    HW229157   8.052   2.177  12.071  0.2404  1.1071  0.3791
 7518SOL     OW29158  10.872   3.446  12.536 -0.0868  0.0294 -0.5088
 7518SOL    HW129159  10.897   3.497  12.613 -0.1439 -0.1953 -0.3407
 7518SOL    HW229160  10.900   3.356  12.557 -0.7236 -0.1641 -0.4594
 7519SOL     OW29161  11.580   8.655   7.597  0.1536 -0.4755  0.1301
 7519SOL    HW129162  11.671   8.660   7.570 -0.1469 -1.0113 -1.0256
 7519SOL    HW229163  11.530   8.671   7.517 -0.7721 -0.9459  0.5984
 7520SOL     OW29164  10.867   8.592  11.943  0.0759  0.0427 -0.0446
 7520SOL    HW129165  10.819   8.564  12.021  1.1833  1.5088  1.2306
 7520SOL    HW229166  10.847   8.685  11.934  0.1368 -0.0513 -1.4105
 7521SOL     OW29167   9.846   8.846   6.208 -0.3224  0.2907 -0.4833
 7521SOL    HW129168   9.885   8.916   6.155 -1.0172  1.6644  0.7404
 7521SOL    HW229169   9.754   8.843   6.180 -0.6297  0.8478  0.4325
 7522SOL     OW29170   0.695   8.364   3.599 -0.1177 -0.0292  0.6562
 7522SOL    HW129171   0.782   8.352   3.637  0.2730 -1.4504 -0.5710
 7522SOL    HW229172   0.678   8.281   3.553 -1.1228  1.0826 -1.0657
 7523SOL     OW29173   1.981  12.562   2.653  0.3248 -0.4466  0.3635
 7523SOL    HW129174   1.934  12.617   2.716 -0.5587  2.1860 -2.3650
 7523SOL    HW229175   2.074  12.578   2.671  0.0940  0.2009  0.9991
 7524SOL     OW29176   9.327   1.617   4.111 -0.3870  0.2882 -0.2853
 7524SOL    HW129177   9.256   1.673   4.144 -0.0728 -0.2322  1.3812
 7524SOL    HW229178   9.282   1.544   4.070 -0.9862 -1.4462  3.1274
 7525SOL     OW29179   9.305   7.405   3.392 -0.6485  0.1199  0.0608
 7525SOL    HW129180   9.334   7.318   3.362 -0.3310 -0.6134  2.3003
 7525SOL    HW229181   9.386   7.455   3.400 -0.5958 -0.0683  0.7686
 7526SOL     OW29182   9.546   1.223   8.949 -0.3755  0.4277  0.9223
 7526SOL    HW129183   9.631   1.199   8.986  1.1336  2.3174 -1.0292
 7526SOL    HW229184   9.555   1.203   8.855 -2.7780 -0.9957  0.9343
 7527SOL     OW29185  11.826   6.946   8.591 -0.2898  0.0593  0.2730
 7527SOL    HW129186  11.783   7.010   8.649 -1.7971 -0.6463 -0.0247
 7527SOL    HW229187  11.761   6.877   8.580 -0.1120  0.2190 -2.3824
 7528SOL     OW29188   6.339   7.592   4.063 -0.0545  0.6427  0.2672
 7528SOL    HW129189   6.407   7.592   4.130  0.0614  0.8335  0.1489
 7528SOL    HW229190   6.382   7.626   3.984 -0.2873  0.7686  0.1928
 7529SOL     OW29191   0.008   4.796   4.478 -0.9636  0.0938  0.3890
 7529SOL    HW129192  -0.009   4.726   4.415  0.8964  1.1439 -1.3791
 7529SOL    HW229193  -0.079   4.823   4.507 -1.7557 -2.8354  1.0943
 7530SOL     OW29194   6.193   6.974   6.260 -0.0259  0.3706 -0.2165
 7530SOL    HW129195   6.230   6.996   6.346  1.3937  0.9501 -0.9520
 7530SOL    HW229196   6.192   6.878   6.258 -1.5679  0.3163  1.0444
 7531SOL     OW29197   0.487   2.829   4.953 -0.1791 -0.3819  0.0432
 7531SOL    HW129198   0.533   2.841   5.036  3.0120 -0.4739 -1.5563
 7531SOL    HW229199   0.446   2.914   4.936  1.0517  0.3632  0.6696
 7532SOL     OW29200   5.637   3.526  11.766 -0.3256 -0.4892  0.5112
 7532SOL    HW129201   5.705   3.510  11.701 -0.9961 -3.1848  0.3467
 7532SOL    HW229202   5.594   3.607  11.737  1.2347 -0.0672 -0.7240
 7533SOL     OW29203  11.206  10.720   6.760 -0.1701 -0.3845 -0.4092
 7533SOL    HW129204  11.224  10.674   6.678 -0.2154 -0.4169 -0.4012
 7533SOL    HW229205  11.112  10.709   6.773 -0.2714  0.1242 -0.6647
 7534SOL     OW29206   4.277  10.405   8.415  0.1880 -0.1467  0.2486
 7534SOL    HW129207   4.337  10.333   8.396  0.4017  0.2462 -0.6349
 7534SOL    HW229208   4.324  10.458   8.480  0.8315  0.1698 -0.4536
 7535SOL     OW29209   1.019   4.599  12.702 -0.7163 -0.4002 -0.3019
 7535SOL    HW129210   0.970   4.610  12.783 -0.8333 -1.5038 -0.2067
 7535SOL    HW229211   1.043   4.507  12.701  2.3193  0.2705  0.1954
 7536SOL     OW29212   1.747  11.441  12.173  0.0903 -0.6932  0.0971
 7536SOL    HW129213   1.737  11.379  12.101  2.3408  0.7629 -1.6000
 7536SOL    HW229214   1.682  11.509  12.156 -1.6352 -1.9333  1.3621
 7537SOL     OW29215   1.376  12.604   5.686 -0.5988  0.0515 -0.2484
 7537SOL    HW129216   1.388  12.567   5.773  2.0407  0.1198 -0.5055
 7537SOL    HW229217   1.367  12.698   5.701 -0.4344  0.0320 -0.0362
 7538SOL     OW29218  11.895   3.396   8.353  0.1740  0.5932  0.6963
 7538SOL    HW129219  11.934   3.482   8.339  2.6968 -0.5175  0.4535
 7538SOL    HW229220  11.801   3.411   8.345  0.6007  2.5712 -3.9542
 7539SOL     OW29221   5.784   0.035  11.699 -0.0460 -0.6814  0.2795
 7539SOL    HW129222   5.761  -0.011  11.618  0.4576 -0.9183  0.2665
 7539SOL    HW229223   5.707   0.025  11.755 -0.8255  0.4242 -0.5704
 7540SOL     OW29224  10.142  10.476   2.246 -0.5164  0.1848 -0.0491
 7540SOL    HW129225  10.114  10.559   2.207  1.5181 -0.1143 -2.3903
 7540SOL    HW229226  10.112  10.410   2.183  1.3859 -0.4847 -0.2928
 7541SOL     OW29227   3.906   4.601   7.078  0.1748  0.4861  1.1181
 7541SOL    HW129228   3.865   4.669   7.026 -1.3462 -1.1279  0.0703
 7541SOL    HW229229   3.993   4.589   7.040 -0.0255  0.9612  0.5104
 7542SOL     OW29230   9.285  11.807  10.756  0.7304  0.0952  0.5421
 7542SOL    HW129231   9.192  11.828  10.744  0.7008  0.0709  0.7254
 7542SOL    HW229232   9.294  11.719  10.718  0.9737  0.6542 -0.7375
 7543SOL     OW29233   3.201   9.283   3.499 -0.4181  0.3457 -0.1082
 7543SOL    HW129234   3.182   9.195   3.532 -1.5120  0.4200 -0.4961
 7543SOL    HW229235   3.118   9.329   3.505 -0.5217  0.5675 -2.2828
 7544SOL     OW29236   0.209  12.724   3.661 -0.0770  0.5685  0.4938
 7544SOL    HW129237   0.179  12.728   3.571  1.9873 -0.0729 -0.2704
 7544SOL    HW229238   0.147  12.664   3.704 -0.7154  0.3979 -0.6299
 7545SOL     OW29239   5.686   0.814  10.637 -0.1382 -0.0478  0.0311
 7545SOL    HW129240   5.760   0.861  10.676  0.9293 -0.1074 -1.8320
 7545SOL    HW229241   5.651   0.875  10.572 -0.6850 -0.6621 -0.2633
 7546SOL     OW29242   6.299   1.248   3.617  0.0103  0.2895  0.2530
 7546SOL    HW129243   6.342   1.255   3.703  0.4643  0.6695  0.0026
 7546SOL    HW229244   6.289   1.154   3.604 -0.1641  0.2302  0.7728
 7547SOL     OW29245  10.294   4.074   8.898 -0.4913 -0.7354  0.4863
 7547SOL    HW129246  10.287   4.158   8.943 -0.1889 -0.5433  0.1831
 7547SOL    HW229247  10.211   4.064   8.850 -0.5680 -0.6588  0.6052
 7548SOL     OW29248  12.485   3.541   0.062  0.0417 -0.2929 -0.4481
 7548SOL    HW129249  12.420   3.472   0.078 -0.5669  0.8166  2.5248
 7548SOL    HW229250  12.569   3.502   0.085 -0.2102 -0.3067  0.4875
 7549SOL     OW29251  12.314   0.540   1.667  0.0372  0.2556 -0.4292
 7549SOL    HW129252  12.408   0.557   1.656  0.0063  0.4268 -0.4339
 7549SOL    HW229253  12.290   0.586   1.747 -0.2119  0.9118 -0.8626
 7550SOL     OW29254   6.098   9.992   4.757  0.2008  0.2569 -0.2303
 7550SOL    HW129255   6.119   9.911   4.711  2.1943 -0.3537  1.5908
 7550SOL    HW229256   6.154  10.058   4.715 -0.3397  0.4004 -0.7422
 7551SOL     OW29257   6.401  12.063  11.940  0.6282  0.3289  0.3519
 7551SOL    HW129258   6.372  12.089  11.853 -2.1050 -0.5598  0.8810
 7551SOL    HW229259   6.451  12.138  11.973  0.3256  1.3250 -1.3432
 7552SOL     OW29260   3.705   1.325   3.779  0.1836  0.5230  0.0557
 7552SOL    HW129261   3.800   1.327   3.763  0.2681  1.2220  0.6269
 7552SOL    HW229262   3.674   1.251   3.726  1.1069  0.0061  0.2063
 7553SOL     OW29263   5.423   5.138   5.852 -0.0608 -0.1843 -0.1933
 7553SOL    HW129264   5.459   5.134   5.763 -0.3255 -1.1399 -0.2618
 7553SOL    HW229265   5.448   5.225   5.883  0.0990  0.1391 -1.1755
 7554SOL     OW29266   5.972   4.088   6.633  0.1726  0.0114 -0.4143
 7554SOL    HW129267   5.899   4.028   6.649  1.0564 -0.9273  0.2217
 7554SOL    HW229268   6.003   4.113   6.720  0.8552  0.0872 -0.6741
 7555SOL     OW29269   1.296   7.932  11.443 -0.2706  0.5517 -0.3496
 7555SOL    HW129270   1.279   8.021  11.474 -1.0003  0.2646  0.0877
 7555SOL    HW229271   1.371   7.903  11.495  0.3058  1.0874 -0.8585
 7556SOL     OW29272   4.706   3.806   4.496  0.3989  0.2238 -0.0993
 7556SOL    HW129273   4.705   3.721   4.541 -1.2086 -0.5790 -1.5202
 7556SOL    HW229274   4.629   3.852   4.531  0.9777  0.9097  0.2949
 7557SOL     OW29275   2.273  11.090   2.091 -0.0608  0.4160 -0.2323
 7557SOL    HW129276   2.231  11.175   2.076 -2.9076 -0.7280  0.6108
 7557SOL    HW229277   2.218  11.027   2.044  0.7289 -1.1883  0.9084
 7558SOL     OW29278   1.150   0.593  12.432 -0.0557  0.5797  0.0103
 7558SOL    HW129279   1.075   0.651  12.422 -1.4109 -0.8365  1.5423
 7558SOL    HW229280   1.136   0.526  12.365 -1.3095 -0.8169  1.6091
 7559SOL     OW29281  10.498   9.666   0.712 -0.2731  0.3507  0.3972
 7559SOL    HW129282  10.404   9.680   0.700 -0.0414  2.1003  0.3764
 7559SOL    HW229283  10.506   9.630   0.800 -0.8909  1.5031  0.9498
 7560SOL     OW29284  11.874   1.240   2.778  0.1373 -0.0607 -0.6101
 7560SOL    HW129285  11.952   1.193   2.809 -0.3273 -0.6643 -0.3346
 7560SOL    HW229286  11.804   1.175   2.782 -0.5314  0.6677 -0.1644
 7561SOL     OW29287   3.000  11.044   7.423  0.5109 -0.0043 -0.2431
 7561SOL    HW129288   2.954  11.064   7.342 -0.1987 -0.1096  0.1284
 7561SOL    HW229289   2.958  11.099   7.489  1.0057 -0.0042  0.0818
 7562SOL     OW29290   0.906   9.481   7.830 -0.1325 -0.5898  0.3697
 7562SOL    HW129291   0.811   9.476   7.826 -0.0869 -0.6695 -1.6240
 7562SOL    HW229292   0.924   9.570   7.861 -0.8629  0.0468 -0.9825
 7563SOL     OW29293   4.674   9.762   2.286  0.2016  0.1782  0.3890
 7563SOL    HW129294   4.626   9.686   2.254  0.0659 -0.3196  1.6998
 7563SOL    HW229295   4.751   9.724   2.331  0.0672  0.7900  1.1643
 7564SOL     OW29296   8.428  10.761   7.665  0.1945  0.0888 -0.5970
 7564SOL    HW129297   8.405  10.850   7.637  0.8881  0.1647 -0.9496
 7564SOL    HW229298   8.385  10.752   7.751  1.8821  1.5904  0.4880
 7565SOL     OW29299   2.874   1.612   8.908 -0.6562  0.1667  0.3073
 7565SOL    HW129300   2.916   1.690   8.943  1.1530 -0.5414 -0.1620
 7565SOL    HW229301   2.865   1.629   8.815  0.9729 -0.6351 -0.0463
 7566SOL     OW29302   4.015   2.200   8.246  0.1198 -0.2399 -0.9055
 7566SOL    HW129303   4.086   2.232   8.301 -0.9778  0.2617  0.2713
 7566SOL    HW229304   3.952   2.163   8.308 -0.3718 -1.2250 -1.9690
 7567SOL     OW29305   5.286   9.915   1.532 -0.2965 -0.0654 -0.3459
 7567SOL    HW129306   5.230   9.892   1.607 -0.3571  2.1098  0.3450
 7567SOL    HW229307   5.375   9.902   1.564 -0.3346 -1.4367 -0.7294
 7568SOL     OW29308   6.603   5.549   3.105  0.0276  0.6196  0.0020
 7568SOL    HW129309   6.536   5.526   3.041  0.4489  0.5743 -0.4337
 7568SOL    HW229310   6.556   5.597   3.174 -1.2688 -3.0894  1.9602
 7569SOL     OW29311   0.218   4.060   9.801  0.5969 -0.9598 -0.2524
 7569SOL    HW129312   0.233   4.155   9.795 -0.9762 -0.3079  3.3658
 7569SOL    HW229313   0.305   4.024   9.819  1.3200 -0.3549 -2.2864
 7570SOL     OW29314   5.108   0.563   1.069  0.1764  0.6254  0.3934
 7570SOL    HW129315   5.049   0.493   1.040 -0.1607 -0.5013  3.3891
 7570SOL    HW229316   5.186   0.517   1.100  1.0136  1.8123  0.1230
 7571SOL     OW29317  11.184   9.055   2.746 -0.2184 -0.1074 -0.1279
 7571SOL    HW129318  11.261   9.111   2.742 -0.0563 -0.3701 -1.2888
 7571SOL    HW229319  11.113   9.108   2.709 -0.6441  0.2003  1.1123
 7572SOL     OW29320   0.706   9.325   6.970  0.1805 -0.0206  0.3701
 7572SOL    HW129321   0.726   9.276   6.890  1.2934 -0.2823  0.7944
 7572SOL    HW229322   0.747   9.410   6.956  0.6989 -0.1948  0.8168
 7573SOL     OW29323   9.668   3.190   2.745 -0.0584 -0.0824 -0.1530
 7573SOL    HW129324   9.607   3.177   2.817  0.4103 -0.1936  0.2349
 7573SOL    HW229325   9.753   3.202   2.788  0.4302 -1.3665 -0.7108
 7574SOL     OW29326   3.484  11.107   0.205  0.2536 -0.0423 -0.5160
 7574SOL    HW129327   3.478  11.189   0.253  0.8332 -0.3159  0.0421
 7574SOL    HW229328   3.456  11.130   0.116 -0.8845  0.4495 -0.0525
 7575SOL     OW29329   6.184   1.157   8.121 -0.0230 -0.5506 -0.3270
 7575SOL    HW129330   6.214   1.196   8.203  0.5601  0.2285 -0.8966
 7575SOL    HW229331   6.100   1.117   8.142 -1.1037  1.7933  0.0835
 7576SOL     OW29332   7.566   3.339   0.278 -0.0298  0.7211 -0.2680
 7576SOL    HW129333   7.657   3.309   0.271  0.2535  0.5770  2.8058
 7576SOL    HW229334   7.516   3.271   0.234  1.1496 -0.9411  0.8184
 7577SOL     OW29335   0.395   1.778   7.038  0.3645 -0.2591  0.0092
 7577SOL    HW129336   0.378   1.745   6.950  0.1948  0.2372 -0.1500
 7577SOL    HW229337   0.311   1.816   7.066  0.6384  0.3233  0.0551
 7578SOL     OW29338   4.233   6.687   3.840 -0.2422 -0.8997  0.2906
 7578SOL    HW129339   4.307   6.721   3.891 -1.0395  0.1218  0.7853
 7578SOL    HW229340   4.227   6.745   3.765  0.6608 -2.1530 -0.8085
 7579SOL     OW29341   9.438   8.953   1.801  0.4206  0.0547 -1.0287
 7579SOL    HW129342   9.456   8.911   1.885 -1.8490  0.4012 -0.3095
 7579SOL    HW229343   9.494   9.031   1.802  0.7677 -0.1890 -0.0453
 7580SOL     OW29344   8.134   6.898   8.594 -0.2373 -0.2954  0.3236
 7580SOL    HW129345   8.105   6.821   8.545 -0.9117  0.0088  0.2384
 7580SOL    HW229346   8.061   6.959   8.588 -0.3057 -0.2167  1.6462
 7581SOL     OW29347   7.803   0.992   4.442  0.3913  0.1110  0.2455
 7581SOL    HW129348   7.796   0.898   4.458 -0.7073  0.2552  0.6387
 7581SOL    HW229349   7.878   0.999   4.383 -0.5411 -1.1859 -1.2044
 7582SOL     OW29350  12.508   8.068  10.440  0.3423 -0.2358 -0.0420
 7582SOL    HW129351  12.541   7.978  10.439  2.1596  0.4036  0.2533
 7582SOL    HW229352  12.470   8.078  10.527  1.7205 -0.1884  0.5769
 7583SOL     OW29353   9.787   5.045  10.142 -0.3611  0.3534 -0.0273
 7583SOL    HW129354   9.808   4.952  10.152 -0.1596  0.3017 -0.8135
 7583SOL    HW229355   9.829   5.070  10.059 -1.4640  0.8226 -0.4720
 7584SOL     OW29356  11.654   9.677   3.728  0.0507 -0.0328  0.0208
 7584SOL    HW129357  11.603   9.747   3.769  1.9135  2.7605 -2.0209
 7584SOL    HW229358  11.735   9.673   3.779 -0.6622 -1.9413  1.0993
 7585SOL     OW29359   4.067   9.607  10.367 -0.0973 -0.2217 -0.4149
 7585SOL    HW129360   3.998   9.666  10.397  1.1855  1.7532 -1.1253
 7585SOL    HW229361   4.059   9.608  10.272  1.7824  1.2859 -0.6264
 7586SOL     OW29362   1.752   9.038   7.777 -0.4173  0.3855 -0.1063
 7586SOL    HW129363   1.828   9.029   7.835 -0.2601  0.4956 -0.2964
 7586SOL    HW229364   1.789   9.059   7.691 -0.6947  1.1611 -0.0447
 7587SOL     OW29365   5.006   7.829   8.895 -0.2205  0.4637 -0.4465
 7587SOL    HW129366   5.046   7.794   8.975  0.9728 -3.1236 -2.3648
 7587SOL    HW229367   5.064   7.901   8.869  2.5280 -1.6554 -0.7068
 7588SOL     OW29368   5.028  10.513   2.923  0.1828 -0.1994 -0.0309
 7588SOL    HW129369   5.089  10.449   2.886  0.1831 -0.8399  1.0263
 7588SOL    HW229370   5.082  10.589   2.943  0.3576 -0.2099 -0.4477
 7589SOL     OW29371   4.949  10.648   1.704 -0.2699  0.0837 -0.0764
 7589SOL    HW129372   4.875  10.666   1.763 -0.0964  0.4223  0.0386
 7589SOL    HW229373   4.923  10.569   1.657 -0.8821  0.4182 -0.3204
 7590SOL     OW29374   6.648   5.980   3.328 -0.1266 -0.3269 -0.3846
 7590SOL    HW129375   6.567   5.944   3.363 -0.2542  0.0339 -0.2995
 7590SOL    HW229376   6.645   5.958   3.235 -0.4530 -0.0932 -0.4360
 7591SOL     OW29377   8.824   0.847   7.011  0.0276  0.2128 -0.1604
 7591SOL    HW129378   8.811   0.754   6.993 -0.7299 -0.3511  2.7806
 7591SOL    HW229379   8.919   0.859   7.006  0.0403 -0.2603 -2.1965
 7592SOL     OW29380  10.537  10.637  12.459 -0.4574  0.0526 -0.0014
 7592SOL    HW129381  10.506  10.599  12.541  0.0747  0.9302  0.6234
 7592SOL    HW229382  10.469  10.615  12.395 -1.0832 -0.2936  0.7635
 7593SOL     OW29383  10.998   6.143   1.858 -0.0691  0.6912 -0.3328
 7593SOL    HW129384  11.080   6.171   1.899 -0.3888  1.4802 -0.2172
 7593SOL    HW229385  11.000   6.185   1.771 -0.0855  0.2469 -0.5471
 7594SOL     OW29386  10.311   8.104   5.229  0.0574  0.2040 -0.2414
 7594SOL    HW129387  10.242   8.044   5.257 -0.9065  1.2960 -0.2192
 7594SOL    HW229388  10.390   8.049   5.226 -0.6734 -0.9288  0.3280
 7595SOL     OW29389   8.621   8.136   3.707  0.5396  0.3646 -0.0236
 7595SOL    HW129390   8.614   8.116   3.613 -0.1557  0.9415 -0.1011
 7595SOL    HW229391   8.669   8.218   3.710 -0.2379  0.8268  0.0663
 7596SOL     OW29392   7.787   2.875   9.647  0.9953  0.4212  0.5757
 7596SOL    HW129393   7.779   2.872   9.552  0.7111  0.5752  0.5937
 7596SOL    HW229394   7.705   2.837   9.679  2.0975 -2.0362  0.7541
 7597SOL     OW29395   9.979   5.059   2.094  0.1982 -0.4191 -0.0613
 7597SOL    HW129396   9.923   5.134   2.073 -1.3130 -1.1607  1.1721
 7597SOL    HW229397   9.988   5.062   2.189  0.5317 -1.5221 -0.0525
 7598SOL     OW29398   5.392   2.692  10.156  0.3497 -0.7780 -0.7744
 7598SOL    HW129399   5.417   2.732  10.239 -1.6313  1.1767 -1.0119
 7598SOL    HW229400   5.475   2.675  10.111  1.3853 -0.1524  0.8315
 7599SOL     OW29401   9.683   3.823   7.106  0.4369 -0.0244 -0.1651
 7599SOL    HW129402   9.611   3.883   7.088 -0.5775 -0.6643  1.5513
 7599SOL    HW229403   9.754   3.854   7.050  0.3426  3.4639  1.3497
 7600SOL     OW29404   0.125   1.083  10.472  0.0909  0.3222  0.6921
 7600SOL    HW129405   0.190   1.147  10.443  0.8198 -0.9007 -0.4604
 7600SOL    HW229406   0.174   1.020  10.523 -0.2576 -0.3766  0.1762
 7601SOL     OW29407  10.472   1.329  10.189 -0.7221 -0.4578  0.1024
 7601SOL    HW129408  10.458   1.404  10.247  1.6249  1.1868 -1.2651
 7601SOL    HW229409  10.387   1.315  10.147 -0.8175  2.9338 -1.1515
 7602SOL     OW29410   7.415   3.031  12.732 -0.5090  0.0399 -0.3976
 7602SOL    HW129411   7.387   2.940  12.746 -1.0081  0.5102  2.2746
 7602SOL    HW229412   7.351   3.065  12.669 -2.7919 -0.4529  1.4718
 7603SOL     OW29413   3.412   2.787   1.460  0.3510  0.4482 -0.2577
 7603SOL    HW129414   3.371   2.760   1.377 -1.3647  1.7634  0.0991
 7603SOL    HW229415   3.499   2.816   1.436 -0.1924  1.0146 -1.6548
 7604SOL     OW29416  10.489   2.012   4.616  0.1995  0.0950  0.1402
 7604SOL    HW129417  10.411   1.999   4.562 -0.1785  2.7582 -0.0886
 7604SOL    HW229418  10.552   2.055   4.558  0.8630  0.3650  1.0381
 7605SOL     OW29419   0.951  12.191   6.014 -0.5200 -0.6121 -0.0363
 7605SOL    HW129420   0.923  12.139   6.089  2.1273  0.2995  1.7284
 7605SOL    HW229421   0.932  12.282   6.039  2.5147 -0.0730  0.7094
 7606SOL     OW29422  10.957  12.336  12.535 -0.6353  0.5850  0.6095
 7606SOL    HW129423  11.016  12.363  12.465  0.5556  0.2059  1.4518
 7606SOL    HW229424  10.882  12.395  12.527 -0.4967  0.5835 -0.9347
 7607SOL     OW29425   3.650  10.861   2.410  0.2758  0.1133  0.2444
 7607SOL    HW129426   3.714  10.931   2.397 -0.1453  0.0683 -2.5386
 7607SOL    HW229427   3.589  10.897   2.475  0.7339  1.8744 -0.2403
 7608SOL     OW29428   6.516   1.264   1.544  0.5258  0.2812 -0.1727
 7608SOL    HW129429   6.493   1.320   1.618 -2.3115  0.2034 -0.8958
 7608SOL    HW229430   6.449   1.283   1.478 -0.5210 -3.8303 -0.5221
 7609SOL     OW29431   7.870   2.499   0.048 -0.1397 -0.6186 -0.2829
 7609SOL    HW129432   7.964   2.515   0.057 -0.2480 -0.3495  0.4816
 7609SOL    HW229433   7.842   2.472   0.136 -1.0062  0.5653 -0.1748
 7610SOL     OW29434   6.374   6.016  11.503  0.1973 -0.3643 -0.8923
 7610SOL    HW129435   6.321   5.940  11.477 -2.2420  0.7855  0.3616
 7610SOL    HW229436   6.341   6.088  11.449 -0.1633  0.5588  0.4861
 7611SOL     OW29437   6.378   9.240   6.940  0.4779  0.1732  0.1116
 7611SOL    HW129438   6.362   9.189   7.019  0.3065 -0.1373 -0.1203
 7611SOL    HW229439   6.292   9.246   6.898  0.5791  0.2877 -0.0795
 7612SOL     OW29440   6.356   0.742  11.723 -0.1003 -0.2707  0.1230
 7612SOL    HW129441   6.303   0.822  11.721  0.0682 -0.1059  1.2853
 7612SOL    HW229442   6.292   0.671  11.732 -0.2865 -0.3383 -1.4550
 7613SOL     OW29443   2.793   8.908   0.330 -0.0202 -0.5331  0.0784
 7613SOL    HW129444   2.754   8.894   0.243 -1.0934  0.7613  0.3160
 7613SOL    HW229445   2.797   8.821   0.369 -1.2333 -0.9090 -0.5809
 7614SOL     OW29446   5.335   5.678   5.704  0.0320 -0.7449  0.1828
 7614SOL    HW129447   5.240   5.676   5.700  0.0734 -0.8309 -1.0712
 7614SOL    HW229448   5.363   5.684   5.612  1.2506 -1.6793  0.4702
 7615SOL     OW29449   6.997   7.385   8.371 -0.6967  0.0038  0.2446
 7615SOL    HW129450   6.997   7.472   8.410 -3.1444 -0.4339  1.4240
 7615SOL    HW229451   7.057   7.334   8.426 -0.1037  0.6527  0.2129
 7616SOL     OW29452   2.244   2.095   9.733  0.7266 -0.2222  0.1232
 7616SOL    HW129453   2.317   2.134   9.781  1.7497 -0.1847 -1.3923
 7616SOL    HW229454   2.186   2.168   9.715 -0.3423 -0.4482  2.3751
 7617SOL     OW29455  10.928   6.730  12.502 -0.4737 -0.1259 -0.7470
 7617SOL    HW129456  10.874   6.655  12.527 -0.7614 -0.0338 -1.1035
 7617SOL    HW229457  10.887   6.805  12.545  0.3956 -0.3014  0.4613
 7618SOL     OW29458   8.695  12.312   1.654  0.3493  0.0251 -0.0761
 7618SOL    HW129459   8.606  12.324   1.622  0.1656  0.5244  0.6146
 7618SOL    HW229460   8.694  12.225   1.695  0.0309  0.2679  0.4315
 7619SOL     OW29461   5.594   2.254   8.800 -0.6155  0.0390 -0.7971
 7619SOL    HW129462   5.536   2.269   8.875 -1.7763 -0.5920 -1.5389
 7619SOL    HW229463   5.617   2.341   8.769  0.6031  0.3352  0.8044
 7620SOL     OW29464   4.566   0.963  12.776  0.0669  0.1570 -0.0787
 7620SOL    HW129465   4.471   0.953  12.763 -0.2807  0.1789  2.0380
 7620SOL    HW229466   4.583   1.056  12.762 -0.1343  0.0765 -0.9007
 7621SOL     OW29467   8.609  11.866   3.427 -0.3908  0.5924 -0.2658
 7621SOL    HW129468   8.600  11.916   3.507  1.0948  1.7996 -0.7979
 7621SOL    HW229469   8.633  11.931   3.360  1.8417 -0.7957 -0.9383
 7622SOL     OW29470   7.119  10.084   6.389  0.4676  0.4882 -0.7135
 7622SOL    HW129471   7.157  10.002   6.357 -1.2152 -0.7916  0.4017
 7622SOL    HW229472   7.171  10.105   6.467 -0.6829 -0.9456  0.4831
 7623SOL     OW29473   8.194   6.504  11.714  0.3324  0.0510 -0.0405
 7623SOL    HW129474   8.164   6.413  11.707 -1.4117  0.6102 -0.1378
 7623SOL    HW229475   8.253   6.515  11.640  0.8711 -1.0949  0.1860
 7624SOL     OW29476   1.362   4.178   9.866  0.0801 -0.2299  0.0617
 7624SOL    HW129477   1.268   4.170   9.850  0.2120 -2.0555  0.0055
 7624SOL    HW229478   1.383   4.104   9.922  1.5178  0.0707 -0.0469
 7625SOL     OW29479   2.435   3.942   3.031 -0.4734 -0.1777 -0.2368
 7625SOL    HW129480   2.519   3.905   3.056 -0.4815 -0.1650 -0.1906
 7625SOL    HW229481   2.394   3.874   2.978 -0.4817 -0.2289 -0.1643
 7626SOL     OW29482  12.208  10.423   6.029 -0.4037 -0.2751  0.0451
 7626SOL    HW129483  12.263  10.354   5.993  0.0335  0.1413 -0.1059
 7626SOL    HW229484  12.160  10.458   5.954  1.3416  1.3498 -0.3864
 7627SOL     OW29485   5.933   3.678  10.391  0.5800  0.1701  0.3527
 7627SOL    HW129486   5.963   3.769  10.395  0.6437  0.2399 -1.1501
 7627SOL    HW229487   5.861   3.679  10.328  2.5293 -1.2794 -2.0874
 7628SOL     OW29488   1.233   5.575   0.674  0.2857  0.2528 -0.1324
 7628SOL    HW129489   1.172   5.516   0.719  1.7898 -0.3761  1.1693
 7628SOL    HW229490   1.266   5.524   0.600 -2.6755  1.5040 -2.5415
 7629SOL     OW29491   5.456   8.836   3.701 -0.3536 -0.4729  0.1442
 7629SOL    HW129492   5.389   8.856   3.766  0.4252 -1.7601  1.4146
 7629SOL    HW229493   5.428   8.755   3.660  0.9499 -1.6927  1.5432
 7630SOL     OW29494   9.959  10.055  10.869 -0.9520  0.2236 -0.3409
 7630SOL    HW129495  10.018  10.127  10.850 -1.2045  0.3940 -0.4843
 7630SOL    HW229496   9.889  10.094  10.921 -0.3390 -0.2123  0.8478
 7631SOL     OW29497   8.028  12.780   6.538  0.2520 -0.3156 -0.2747
 7631SOL    HW129498   8.004  12.693   6.573  0.6510 -0.4620 -0.3550
 7631SOL    HW229499   8.057  12.829   6.615 -0.4522 -0.0872 -0.1555
 7632SOL     OW29500   4.907  10.473   7.666 -0.2631 -0.3567 -0.8623
 7632SOL    HW129501   4.987  10.522   7.646 -0.5567  0.2397 -0.5945
 7632SOL    HW229502   4.838  10.516   7.616 -1.3164  2.1182  2.3309
 7633SOL     OW29503   6.695   7.966   3.241  0.5828 -0.3544 -0.1819
 7633SOL    HW129504   6.732   7.912   3.310  1.7330  0.3661 -0.2064
 7633SOL    HW229505   6.671   8.048   3.284 -0.8042 -0.7144 -0.2175
 7634SOL     OW29506   2.615   8.889   5.921 -0.2458 -0.3515  0.1262
 7634SOL    HW129507   2.622   8.949   5.995 -0.1636 -1.7011  1.2339
 7634SOL    HW229508   2.544   8.925   5.868  0.4671  1.2957  0.2041
 7635SOL     OW29509   8.303   6.627  10.317  0.3421  0.1849  0.1661
 7635SOL    HW129510   8.339   6.716  10.320  0.9457 -0.0308 -0.2372
 7635SOL    HW229511   8.346   6.588  10.241 -0.5296 -0.1937 -0.1430
 7636SOL     OW29512  10.536   6.031   1.344 -0.2742 -0.3583 -0.1161
 7636SOL    HW129513  10.484   5.952   1.331 -0.3822 -0.3308  0.1402
 7636SOL    HW229514  10.589   6.039   1.264  3.0135 -3.1120  1.5662
 7637SOL     OW29515   2.633   6.253   0.107 -0.5160  0.2518 -0.3639
 7637SOL    HW129516   2.609   6.247   0.199  0.8982 -0.6689 -0.0168
 7637SOL    HW229517   2.561   6.300   0.066 -1.0667  0.8703  1.2446
 7638SOL     OW29518  10.745   5.303   6.502  0.0317 -0.3107 -0.2824
 7638SOL    HW129519  10.817   5.250   6.468 -0.7255 -0.0911 -2.3679
 7638SOL    HW229520  10.768   5.393   6.479  0.8347  0.2458  2.3691
 7639SOL     OW29521   5.428   2.401   6.785  0.1314  0.0858  0.5558
 7639SOL    HW129522   5.399   2.356   6.864  1.0874  0.6027  1.2137
 7639SOL    HW229523   5.519   2.426   6.802 -0.4457  2.5812  0.3706
 7640SOL     OW29524   9.865   2.418   4.031 -0.4802  0.4088 -0.2330
 7640SOL    HW129525   9.837   2.333   4.064 -1.5471  0.3703 -1.1621
 7640SOL    HW229526   9.872   2.474   4.108  0.5786 -0.5926  0.4329
 7641SOL     OW29527   0.650   5.839   1.302 -0.0834 -0.2625  0.1633
 7641SOL    HW129528   0.705   5.870   1.230 -1.1179 -0.4229 -0.7233
 7641SOL    HW229529   0.611   5.758   1.269 -0.8334 -0.1611  0.7764
 7642SOL     OW29530   4.504   4.557  10.186 -0.3598 -0.1719  0.1407
 7642SOL    HW129531   4.428   4.499  10.184 -0.3155 -0.2867  1.3436
 7642SOL    HW229532   4.579   4.499  10.200 -0.1814  0.0581  0.1628
 7643SOL     OW29533  10.808   8.978   1.980  0.0804 -0.2902 -0.2529
 7643SOL    HW129534  10.780   8.989   2.071  2.3731  0.3394  0.4577
 7643SOL    HW229535  10.816   8.883   1.969 -0.9697 -0.4121 -0.0701
 7644SOL     OW29536   8.791   1.863  10.881 -0.2479  0.2711  0.6196
 7644SOL    HW129537   8.801   1.769  10.866  0.8264  0.7028 -2.1969
 7644SOL    HW229538   8.717   1.889  10.826 -0.8731  1.0200  1.7707
 7645SOL     OW29539  11.351   1.896   0.188  0.1155 -0.2639  0.2580
 7645SOL    HW129540  11.274   1.842   0.174  0.8267 -1.0217 -0.8980
 7645SOL    HW229541  11.420   1.855   0.136  1.0227  1.0155  0.3808
 7646SOL     OW29542   1.133   4.191   0.488 -0.3529 -0.2402  0.3865
 7646SOL    HW129543   1.138   4.097   0.505 -1.9133 -0.6568 -1.1953
 7646SOL    HW229544   1.146   4.199   0.394  2.7091  1.4626  0.8421
 7647SOL     OW29545   8.086   0.837   4.880  0.2992  0.3759 -0.1384
 7647SOL    HW129546   8.176   0.816   4.853  0.5359  0.0724  0.8436
 7647SOL    HW229547   8.057   0.758   4.926 -0.1790  0.7925  0.2721
 7648SOL     OW29548   9.599  12.315   1.410  0.7457 -0.4753 -0.4486
 7648SOL    HW129549   9.631  12.293   1.498 -1.0272 -0.5584  0.2234
 7648SOL    HW229550   9.641  12.398   1.390 -0.2597  0.5420  1.3390
 7649SOL     OW29551  10.064  10.460   3.320 -0.4670 -0.0471  0.6111
 7649SOL    HW129552  10.053  10.554   3.336  2.0121  0.6978 -1.4509
 7649SOL    HW229553  10.086  10.424   3.406 -1.6468  1.1802  1.4740
 7650SOL     OW29554   7.436   7.286   9.985  0.0902  0.5558 -0.1061
 7650SOL    HW129555   7.426   7.352   9.916  2.0383  1.4376  0.3727
 7650SOL    HW229556   7.458   7.337  10.063 -2.3415 -0.3945  1.2987
 7651SOL     OW29557  10.315   9.189  11.446 -0.1252 -0.4755  0.4564
 7651SOL    HW129558  10.261   9.115  11.419  0.3056 -0.2151 -1.2296
 7651SOL    HW229559  10.280   9.264  11.399  1.8691 -0.3732 -1.0313
 7652SOL     OW29560   8.421   2.604   7.410  0.1916 -0.2299  0.0829
 7652SOL    HW129561   8.415   2.640   7.499  1.6744 -0.5481  0.3385
 7652SOL    HW229562   8.493   2.542   7.415  0.2051 -0.3394 -1.3198
 7653SOL     OW29563   1.207   0.790   3.031 -0.4091  0.3205 -0.1032
 7653SOL    HW129564   1.244   0.855   2.971 -0.9150  0.5406 -0.1852
 7653SOL    HW229565   1.278   0.728   3.046 -0.4656 -0.0831 -1.4082
 7654SOL     OW29566   2.211   7.274   8.569  1.2136  0.3312  0.3962
 7654SOL    HW129567   2.147   7.235   8.629  0.9633 -1.4134 -0.9234
 7654SOL    HW229568   2.291   7.281   8.621  0.3821  1.1658  1.6370
 7655SOL     OW29569   7.556  11.483   6.653  0.5044 -0.3342  0.2325
 7655SOL    HW129570   7.567  11.558   6.595 -1.0125 -1.0949 -1.1144
 7655SOL    HW229571   7.528  11.521   6.736 -0.6457  0.6041 -0.5397
 7656SOL     OW29572   8.992   8.107  10.817  0.5596  0.1482 -0.3874
 7656SOL    HW129573   8.902   8.139  10.807  0.2401 -0.6773 -0.2625
 7656SOL    HW229574   9.015   8.072  10.731  0.1462 -1.1455  0.0112
 7657SOL     OW29575   6.410   7.944   2.139  0.2651 -0.0901  0.0415
 7657SOL    HW129576   6.434   7.852   2.140 -0.6705 -0.4173  3.5536
 7657SOL    HW229577   6.314   7.944   2.134  0.1014  0.5214  2.1647
 7658SOL     OW29578  12.258   4.414   8.440  0.1862 -0.8243  0.1916
 7658SOL    HW129579  12.199   4.374   8.503  0.1345  0.8729  1.2776
 7658SOL    HW229580  12.210   4.412   8.357 -0.5690 -1.2786  0.6323
 7659SOL     OW29581  12.000   0.273   9.538 -0.4764  0.0952  0.1813
 7659SOL    HW129582  12.064   0.243   9.602 -1.4506 -0.2188  1.0231
 7659SOL    HW229583  12.051   0.326   9.477  0.5391  0.0741  0.9857
 7660SOL     OW29584   3.299  10.914   7.031 -0.5722 -0.1887 -0.3585
 7660SOL    HW129585   3.293  10.820   7.045  0.2475  0.0084  1.7101
 7660SOL    HW229586   3.216  10.949   7.064 -0.0258 -0.0281  0.9005
 7661SOL     OW29587   1.593   9.895   6.922  0.5024  0.2596 -0.1466
 7661SOL    HW129588   1.644   9.974   6.902 -0.5249  0.4199 -2.4316
 7661SOL    HW229589   1.650   9.823   6.896  0.4645  0.3338 -0.4298
 7662SOL     OW29590  12.658   2.139   9.076 -0.5602  0.8398 -0.2566
 7662SOL    HW129591  12.743   2.146   9.120 -0.1125  1.4415 -1.1811
 7662SOL    HW229592  12.663   2.203   9.005 -2.1635  1.5984  0.2759
 7663SOL     OW29593   3.608  11.202  11.646 -0.3251  0.2607  0.5943
 7663SOL    HW129594   3.567  11.116  11.634  2.4930 -1.2145  0.7134
 7663SOL    HW229595   3.649  11.197  11.732  1.2499  1.1223 -0.0730
 7664SOL     OW29596   2.120   1.833   9.463 -0.5962  0.3149 -0.1792
 7664SOL    HW129597   2.054   1.860   9.526  0.0146 -0.5273  0.8546
 7664SOL    HW229598   2.131   1.739   9.478  0.7674  0.4167 -0.3791
 7665SOL     OW29599   8.676   4.007   5.358  0.2185  0.4972  0.4993
 7665SOL    HW129600   8.623   3.928   5.346  1.8611 -0.5551 -0.3684
 7665SOL    HW229601   8.642   4.069   5.294 -0.8252  0.3538  0.8925
 7666SOL     OW29602   6.700   2.017   8.487 -0.2129  0.2818 -0.1112
 7666SOL    HW129603   6.665   1.971   8.564  0.7665  1.6190  1.2141
 7666SOL    HW229604   6.764   2.079   8.524 -0.3640  1.6015 -1.9323
 7667SOL     OW29605   3.133   5.839   3.673  0.3420  0.6608  0.3932
 7667SOL    HW129606   3.223   5.826   3.702  0.4506  1.3303  0.3860
 7667SOL    HW229607   3.097   5.901   3.736 -0.8380 -1.2942  1.7417
 7668SOL     OW29608   4.949   5.577  11.800 -0.0335  0.4086  0.9670
 7668SOL    HW129609   4.860   5.544  11.787  0.3016 -0.4169  0.7152
 7668SOL    HW229610   4.994   5.507  11.847  0.7671  0.3922  0.2065
 7669SOL     OW29611   8.295  10.152  12.509  0.2527  0.3824  0.0466
 7669SOL    HW129612   8.251  10.190  12.432 -0.3577 -0.7982 -0.2091
 7669SOL    HW229613   8.327  10.228  12.558  0.8757  1.1602 -1.4903
 7670SOL     OW29614   4.401  11.675   7.812 -0.2395 -0.2021 -0.2906
 7670SOL    HW129615   4.457  11.726   7.753  0.7829  0.1508  0.9162
 7670SOL    HW229616   4.340  11.739   7.848 -2.5170 -0.8400 -2.7072
 7671SOL     OW29617   6.018   9.511   6.652  0.0913 -0.5665  0.3817
 7671SOL    HW129618   5.995   9.483   6.741 -1.3299  2.8133  1.2159
 7671SOL    HW229619   5.935   9.507   6.604 -0.0227  1.3566  0.3601
 7672SOL     OW29620  10.576  11.465   9.372 -0.0754  0.2203  0.8704
 7672SOL    HW129621  10.670  11.482   9.365  0.1400 -0.4683  1.8045
 7672SOL    HW229622  10.563  11.381   9.328 -0.3700  0.6110  0.1976
 7673SOL     OW29623   4.348  10.087   0.907  0.4611 -0.1132 -0.7933
 7673SOL    HW129624   4.387  10.117   0.989  1.4697 -0.6203 -1.0665
 7673SOL    HW229625   4.404  10.124   0.839 -1.0471  1.3008 -1.3403
 7674SOL     OW29626   3.804   1.673   1.695 -0.4013 -0.2246  0.1767
 7674SOL    HW129627   3.881   1.730   1.695 -0.5569  0.0592  2.4486
 7674SOL    HW229628   3.731   1.733   1.710 -1.3228 -0.3055 -3.2430
 7675SOL     OW29629   6.785   5.771   4.448 -0.3806  0.2271  0.5043
 7675SOL    HW129630   6.797   5.725   4.531 -1.3206  0.1063  0.5793
 7675SOL    HW229631   6.869   5.816   4.434  1.1968 -2.7448 -0.3951
 7676SOL     OW29632   2.254   6.727  12.722  0.2892 -0.0311 -0.4059
 7676SOL    HW129633   2.331   6.784  12.725  0.1038  0.1921  0.3526
 7676SOL    HW229634   2.261   6.680  12.639  1.0568  0.2475 -0.4985
 7677SOL     OW29635   8.347   6.673  12.407 -0.5235  0.0323  0.1138
 7677SOL    HW129636   8.287   6.664  12.481 -1.7945 -0.7810 -0.9415
 7677SOL    HW229637   8.407   6.742  12.432 -1.9319  0.9049  1.2447
 7678SOL     OW29638   5.361  10.992   3.312  0.1909  0.4068 -0.0911
 7678SOL    HW129639   5.454  10.995   3.333  0.7286 -2.6545 -1.5025
 7678SOL    HW229640   5.329  11.081   3.330  3.0525  1.1918  1.7050
 7679SOL     OW29641  10.024   0.356   9.675 -0.0916 -0.2640  0.1960
 7679SOL    HW129642   9.956   0.423   9.671 -1.2733 -1.3449  1.4749
 7679SOL    HW229643  10.073   0.376   9.754 -1.1947 -1.5567  1.2446
 7680SOL     OW29644   6.685  11.252   7.903 -0.1053 -1.2663 -0.3070
 7680SOL    HW129645   6.771  11.211   7.898 -0.9802 -3.1007 -1.4312
 7680SOL    HW229646   6.701  11.345   7.887  1.5891 -1.6480 -1.0214
 7681SOL     OW29647   6.873   1.516   9.113 -0.1239  0.6420 -0.1312
 7681SOL    HW129648   6.831   1.535   9.029 -0.8903 -0.9091 -0.1397
 7681SOL    HW229649   6.825   1.570   9.176  0.5150  1.8861 -0.6838
 7682SOL     OW29650   7.846   7.506   5.952  0.4282 -0.0873  0.0798
 7682SOL    HW129651   7.876   7.576   5.894 -0.6366  1.1596  0.9964
 7682SOL    HW229652   7.759   7.483   5.918  1.9195 -3.1622 -2.1067
 7683SOL     OW29653   5.249   2.790   1.107 -0.0187  0.3227  0.7745
 7683SOL    HW129654   5.191   2.789   1.031  2.0337  0.9405 -0.8871
 7683SOL    HW229655   5.276   2.881   1.116  1.5206 -0.1077  0.8078
 7684SOL     OW29656   4.149  10.721   3.612  0.0952 -0.1351 -0.8593
 7684SOL    HW129657   4.124  10.648   3.668 -0.3223 -0.3050 -1.2586
 7684SOL    HW229658   4.138  10.799   3.666 -0.7139 -0.2623 -0.8335
 7685SOL     OW29659   8.986   7.373   6.698  0.6030  0.0928 -0.1268
 7685SOL    HW129660   8.910   7.421   6.665  0.8643 -0.3566 -1.4287
 7685SOL    HW229661   8.976   7.375   6.793 -1.2894 -0.3431 -0.2791
 7686SOL     OW29662   6.775  12.322   0.533  0.6618  0.2643 -0.5995
 7686SOL    HW129663   6.868  12.311   0.514  0.4223 -4.1880 -0.1105
 7686SOL    HW229664   6.733  12.245   0.496 -2.3667  0.4044  2.0956
 7687SOL     OW29665   9.376   2.343   3.819  0.3171 -0.3748 -0.6321
 7687SOL    HW129666   9.455   2.394   3.799 -1.0176  1.1298 -2.3665
 7687SOL    HW229667   9.380   2.330   3.914  1.5198  1.6196 -0.3459
 7688SOL     OW29668   7.995  12.784   4.331 -0.1132  0.5023 -0.0737
 7688SOL    HW129669   7.933  12.711   4.338 -0.6468  1.0619  1.7034
 7688SOL    HW229670   8.024  12.782   4.240 -2.2586 -0.1956 -0.8197
 7689SOL     OW29671  11.858   9.853   7.822  0.1486 -0.2990 -0.2703
 7689SOL    HW129672  11.932   9.854   7.761  1.3981 -1.2641  1.1526
 7689SOL    HW229673  11.894   9.815   7.903 -1.1936  1.7234  1.3853
 7690SOL     OW29674  12.614   8.748   0.757 -0.3387  0.1490  0.1295
 7690SOL    HW129675  12.649   8.830   0.791  1.5102 -1.5880  2.8043
 7690SOL    HW229676  12.677   8.721   0.690  1.1998 -0.8358  1.8899
 7691SOL     OW29677   4.222   8.876  10.673  0.4379 -0.4096 -0.1670
 7691SOL    HW129678   4.147   8.876  10.613  2.6859  0.7681 -3.2946
 7691SOL    HW229679   4.206   8.950  10.732 -1.7394 -1.4317  0.6086
 7692SOL     OW29680  10.463  11.996   2.080  0.4903 -0.4663  0.2405
 7692SOL    HW129681  10.477  11.911   2.121 -0.6164 -0.2968  0.9938
 7692SOL    HW229682  10.450  11.977   1.988 -2.5876 -1.4551  0.7765
 7693SOL     OW29683   6.806   7.831   2.179  0.3530  0.4120  0.3191
 7693SOL    HW129684   6.723   7.785   2.189  0.3451  0.0841 -1.0866
 7693SOL    HW229685   6.870   7.762   2.161  1.4238  0.3898  3.5466
 7694SOL     OW29686  10.469  11.259   9.266  0.0697  0.5321  0.3489
 7694SOL    HW129687  10.379  11.292   9.259  0.4408  1.2407 -2.8370
 7694SOL    HW229688  10.479  11.203   9.189  2.7971  1.7973 -0.3427
 7695SOL     OW29689  12.707  11.240   0.801  0.4188 -0.4734  0.4403
 7695SOL    HW129690  12.637  11.304   0.817 -0.6189 -0.7207 -2.4818
 7695SOL    HW229691  12.788  11.288   0.817 -0.3546  0.2978  2.3501
 7696SOL     OW29692   4.605  10.501   6.785  0.2701 -0.0346 -0.6757
 7696SOL    HW129693   4.521  10.483   6.743 -0.3176  0.8589  0.0778
 7696SOL    HW229694   4.640  10.576   6.737 -0.6755  1.3687  0.7273
 7697SOL     OW29695  10.042   1.740   0.618  0.0627  0.7276 -0.0058
 7697SOL    HW129696  10.007   1.812   0.671 -0.8389 -0.0103  0.4309
 7697SOL    HW229697  10.058   1.670   0.680 -0.1876  0.1447 -0.5794
 7698SOL     OW29698   8.187   6.325   0.129  0.1684  0.4102 -0.6699
 7698SOL    HW129699   8.272   6.316   0.087  0.8005  1.1576  0.4093
 7698SOL    HW229700   8.163   6.236   0.154 -0.8092 -0.2724 -3.6059
 7699SOL     OW29701  11.457   8.629   2.479 -0.1014 -0.2327  0.0334
 7699SOL    HW129702  11.509   8.682   2.539  1.1640 -1.9069  0.4770
 7699SOL    HW229703  11.369   8.630   2.517  0.1881  0.4842  0.7244
 7700SOL     OW29704   3.548   3.845   5.327 -0.0502 -0.1056  0.5819
 7700SOL    HW129705   3.456   3.871   5.326 -0.7072 -2.1000  2.3822
 7700SOL    HW229706   3.595   3.922   5.295 -2.1787  1.6308  1.4298
 7701SOL     OW29707  11.374   5.258   1.427  0.3347 -0.0626 -0.3211
 7701SOL    HW129708  11.385   5.251   1.332 -0.0865  1.2053 -0.4834
 7701SOL    HW229709  11.437   5.325   1.454 -0.0490  0.1017  0.1879
 7702SOL     OW29710   8.317   9.485   5.479 -0.0009  0.2779  0.1570
 7702SOL    HW129711   8.281   9.411   5.430  0.6187 -1.4771  2.2043
 7702SOL    HW229712   8.379   9.526   5.419 -0.3049 -0.8955 -1.0094
 7703SOL     OW29713   0.116   6.997   8.228 -0.7664 -0.1382 -0.4079
 7703SOL    HW129714   0.081   7.086   8.219  0.6057  0.3186 -1.4519
 7703SOL    HW229715   0.112   6.979   8.322  0.2591  1.5932  0.0101
 7704SOL     OW29716   0.166   7.027  10.168  0.0694 -0.1293 -0.1617
 7704SOL    HW129717   0.077   7.000  10.146  0.2847 -0.5810 -0.4937
 7704SOL    HW229718   0.215   7.021  10.086  0.3342  0.4279 -0.0512
 7705SOL     OW29719  10.822   0.052   8.207  0.4644  0.2048  0.1403
 7705SOL    HW129720  10.896  -0.002   8.180  1.2056  2.2590 -2.4077
 7705SOL    HW229721  10.745   0.008   8.170  0.7615 -0.3243  0.1421
 7706SOL     OW29722   4.607   1.133   6.446  0.2338 -0.2699  0.3745
 7706SOL    HW129723   4.528   1.187   6.447 -0.0877 -0.7422  1.6663
 7706SOL    HW229724   4.679   1.196   6.436 -0.2626  0.1951 -0.3588
 7707SOL     OW29725   6.391   7.084   9.488 -0.4270  0.4242  0.0131
 7707SOL    HW129726   6.403   7.165   9.439  2.3761  1.6338  2.3980
 7707SOL    HW229727   6.305   7.093   9.529 -1.7006  0.5099 -2.4654
 7708SOL     OW29728   2.711   0.518  10.606  0.7012  0.1586  0.1551
 7708SOL    HW129729   2.708   0.526  10.511  1.4398  0.4947  0.1487
 7708SOL    HW229730   2.645   0.452  10.627  0.8719 -0.2775 -0.6325
 7709SOL     OW29731  11.053  10.915  10.092  0.0189  0.1332 -0.1313
 7709SOL    HW129732  11.141  10.899  10.058 -0.7679 -3.7466 -0.7900
 7709SOL    HW229733  10.999  10.922  10.013 -0.5990 -0.0110  0.2806
 7710SOL     OW29734   1.668  11.576   4.760 -0.7297 -0.2790  0.2609
 7710SOL    HW129735   1.625  11.561   4.676  1.2438  0.1196 -0.8957
 7710SOL    HW229736   1.611  11.636   4.807 -1.7064 -0.2284 -0.9472
 7711SOL     OW29737   5.814   2.373   1.925  0.6230 -0.4767  0.1182
 7711SOL    HW129738   5.878   2.443   1.939 -0.1121  0.5722 -1.4837
 7711SOL    HW229739   5.758   2.375   2.004  0.7293  0.6163  0.1772
 7712SOL     OW29740   3.443   7.958   1.597  0.1020  0.2529 -0.0376
 7712SOL    HW129741   3.453   8.027   1.531 -0.5568  1.5630  1.2117
 7712SOL    HW229742   3.519   7.969   1.655  0.4719 -0.6553 -0.3251
 7713SOL     OW29743  12.679  11.008   5.523 -0.1175 -0.1389 -0.6813
 7713SOL    HW129744  12.691  10.915   5.508 -1.6564 -0.4449 -0.1850
 7713SOL    HW229745  12.632  11.040   5.446  0.4022  0.2310 -0.8511
 7714SOL     OW29746   1.331   2.977   9.225  0.1978  0.2941 -0.1771
 7714SOL    HW129747   1.241   3.012   9.224 -0.0853 -0.4184  0.1289
 7714SOL    HW229748   1.386   3.054   9.242 -0.1140  1.2541 -2.8867
 7715SOL     OW29749  11.956   1.951   2.990 -0.1892  0.2800 -0.5371
 7715SOL    HW129750  11.914   2.030   2.957 -0.7511  0.0353 -0.4065
 7715SOL    HW229751  11.919   1.880   2.938  1.4038  0.2280 -1.7025
 7716SOL     OW29752   3.644   4.112   3.073  0.0447 -0.6535  0.5975
 7716SOL    HW129753   3.637   4.197   3.031  0.3021 -1.6416 -1.5513
 7716SOL    HW229754   3.559   4.099   3.115  0.6640  1.4806  2.7609
 7717SOL     OW29755  10.233   6.324   0.819 -0.1572 -1.1323 -0.9438
 7717SOL    HW129756  10.298   6.360   0.759  1.2031  1.0051  1.5605
 7717SOL    HW229757  10.155   6.310   0.765 -0.0488  3.4885 -2.7645
 7718SOL     OW29758   6.336   0.230   7.689 -0.3782  0.3273  0.0578
 7718SOL    HW129759   6.339   0.262   7.599 -1.5427  0.2003 -0.0525
 7718SOL    HW229760   6.294   0.301   7.738  0.2448  0.3932  0.5066
 7719SOL     OW29761   6.499   5.535   0.750  0.1306 -0.0604 -0.1371
 7719SOL    HW129762   6.466   5.450   0.721 -1.8864  1.0185 -1.2398
 7719SOL    HW229763   6.523   5.522   0.842 -0.2478 -1.7709 -0.2573
 7720SOL     OW29764   3.293   5.147   0.706 -0.0705 -0.3817  0.0872
 7720SOL    HW129765   3.281   5.059   0.743  1.1839 -0.6826 -0.1932
 7720SOL    HW229766   3.335   5.132   0.622  0.6307  0.5079  0.2699
 7721SOL     OW29767   1.741  12.653   2.137  0.7810 -0.2194 -0.0090
 7721SOL    HW129768   1.690  12.733   2.147 -0.3935 -1.1252  1.8399
 7721SOL    HW229769   1.778  12.637   2.223  2.0090 -1.0337 -0.6585
 7722SOL     OW29770  11.443   4.001  11.397  0.5242  0.1850  0.4017
 7722SOL    HW129771  11.462   3.908  11.390  2.3052  0.5210  0.1978
 7722SOL    HW229772  11.420   4.028  11.308  2.1162  0.3253  0.0047
 7723SOL     OW29773   9.400   9.501   7.889 -0.1292  0.2210  0.1297
 7723SOL    HW129774   9.411   9.593   7.867  0.6164  0.0749 -0.1465
 7723SOL    HW229775   9.454   9.454   7.825 -0.0439 -0.3701  0.6207
 7724SOL     OW29776  10.980   7.675   1.958  0.4604  0.0878 -0.4898
 7724SOL    HW129777  11.063   7.695   1.915  0.6056  1.3608  0.3436
 7724SOL    HW229778  10.999   7.680   2.052 -0.1779 -1.2632 -0.2576
 7725SOL     OW29779   0.398   2.365   3.894 -0.6933  0.1545 -0.4932
 7725SOL    HW129780   0.419   2.332   3.807 -0.8272 -1.3121 -0.0097
 7725SOL    HW229781   0.419   2.291   3.952  1.0662  1.6636  0.9066
 7726SOL     OW29782  10.448   7.842   0.295  0.2028  0.3113 -0.1513
 7726SOL    HW129783  10.367   7.892   0.283 -0.8479 -1.1037  0.7607
 7726SOL    HW229784  10.433   7.790   0.374  1.4244 -1.0711 -0.7721
 7727SOL     OW29785   6.636   8.982   8.201  0.1335 -0.6036  0.4701
 7727SOL    HW129786   6.723   9.021   8.208 -0.3194  1.0204 -1.7222
 7727SOL    HW229787   6.624   8.965   8.107 -0.9572 -3.2313  0.9768
 7728SOL     OW29788  10.226   2.196   8.832  0.2072  0.9914  0.2336
 7728SOL    HW129789  10.197   2.154   8.751 -1.4596  1.3615  0.5920
 7728SOL    HW229790  10.265   2.279   8.803 -0.2911  1.0794 -0.2179
 7729SOL     OW29791   8.913  12.146   4.766  0.2369  0.0446 -0.5248
 7729SOL    HW129792   8.974  12.085   4.809 -0.0842 -0.3672 -0.6431
 7729SOL    HW229793   8.943  12.233   4.792  0.1620 -0.1887  0.3752
 7730SOL     OW29794   4.150   6.918  12.291  0.0143  0.5421  0.5438
 7730SOL    HW129795   4.228   6.960  12.327  0.8084  0.5200 -1.0673
 7730SOL    HW229796   4.159   6.826  12.317 -0.2869  0.8057  1.6636
 7731SOL     OW29797   3.023   9.612   3.501  0.4230  0.0485 -0.1092
 7731SOL    HW129798   3.059   9.699   3.514  0.6064  0.0148 -0.3794
 7731SOL    HW229799   3.030   9.597   3.407 -0.6335  0.1824 -0.2202
 7732SOL     OW29800   0.087   5.678   0.375  0.0323 -0.3233 -0.1825
 7732SOL    HW129801   0.119   5.767   0.392  2.5936 -1.3830  1.0407
 7732SOL    HW229802   0.132   5.652   0.294  0.7791 -1.1348  0.4762
 7733SOL     OW29803   2.000   6.873   6.961  0.3185  0.3443  0.3937
 7733SOL    HW129804   1.941   6.866   6.886  0.4258 -0.1169  0.3484
 7733SOL    HW229805   2.029   6.783   6.977  0.4012  0.4585  0.9024
 7734SOL     OW29806   6.615   1.099   0.050 -0.5870  0.1398  0.0619
 7734SOL    HW129807   6.584   1.189   0.036 -0.1713  0.8245  2.8939
 7734SOL    HW229808   6.708   1.108   0.070 -0.4899 -0.9492  0.1604
 7735SOL     OW29809   1.331   3.380   4.970 -0.4482  0.2627  0.1693
 7735SOL    HW129810   1.398   3.429   5.019 -1.4241 -0.3650  2.2470
 7735SOL    HW229811   1.374   3.297   4.949 -0.5868 -0.1869  1.6003
 7736SOL     OW29812   4.144  10.361   2.025 -0.2858 -0.1819 -0.2914
 7736SOL    HW129813   4.187  10.391   1.944  0.0890 -0.2686 -0.1295
 7736SOL    HW229814   4.197  10.286   2.053  0.2641  0.5369  0.6400
 7737SOL     OW29815  12.372   5.907  11.231  0.1888  0.1098  0.1461
 7737SOL    HW129816  12.422   5.839  11.276  0.4951  0.8509  0.9571
 7737SOL    HW229817  12.406   5.907  11.142  0.5186 -0.4686  0.2656
 7738SOL     OW29818   2.462   3.791  12.400  0.0074 -0.4846  0.3888
 7738SOL    HW129819   2.509   3.718  12.361 -1.1191 -0.8922 -0.2787
 7738SOL    HW229820   2.450   3.766  12.492 -1.0210 -1.5229  0.0019
 7739SOL     OW29821   5.576   9.720   9.047  0.2907 -0.1791 -0.1617
 7739SOL    HW129822   5.572   9.645   8.987 -0.1356 -0.5145  0.2746
 7739SOL    HW229823   5.488   9.758   9.045  0.4704  0.2367 -0.2822
 7740SOL     OW29824   0.116   3.960   1.538 -0.4100  0.1366  0.2901
 7740SOL    HW129825   0.073   4.046   1.539 -2.8765 -1.0040 -0.1413
 7740SOL    HW229826   0.072   3.911   1.608 -1.2177 -1.6908 -1.4011
 7741SOL     OW29827   9.779   7.913   7.275  0.5775  0.0625 -1.0575
 7741SOL    HW129828   9.858   7.875   7.312 -0.3532 -0.3844  0.5671
 7741SOL    HW229829   9.806   7.946   7.189  2.8748  1.3011  0.0552
 7742SOL     OW29830   2.652   4.084  11.686  0.1321 -0.2000 -0.4513
 7742SOL    HW129831   2.639   4.021  11.615 -0.8921 -2.0043  1.2208
 7742SOL    HW229832   2.747   4.082  11.702  0.4979  0.8655 -2.2496
 7743SOL     OW29833   9.125   3.344   5.334  0.6237 -0.0153 -0.0075
 7743SOL    HW129834   9.202   3.384   5.295  0.5674 -0.9429 -1.0976
 7743SOL    HW229835   9.150   3.327   5.425  1.2756  0.7658 -0.0283
 7744SOL     OW29836   0.703   0.480   9.338 -0.4077 -0.1755  0.0762
 7744SOL    HW129837   0.619   0.488   9.293  1.5178  2.6518 -3.5268
 7744SOL    HW229838   0.720   0.568   9.371  1.5247 -0.4393 -0.1378
 7745SOL     OW29839   4.641   6.343   9.240 -0.5184  0.0766  0.0493
 7745SOL    HW129840   4.628   6.400   9.316 -1.4581 -0.1567  0.0734
 7745SOL    HW229841   4.554   6.307   9.222  0.1775 -1.8630  0.4443
 7746SOL     OW29842   9.647  10.946   8.767 -0.1793 -0.3153 -0.5270
 7746SOL    HW129843   9.670  10.892   8.842  0.5136  0.6513 -0.0206
 7746SOL    HW229844   9.620  10.884   8.699 -0.0601 -1.2362  0.2640
 7747SOL     OW29845   4.227   5.002   2.001 -0.5699 -0.2416 -0.1407
 7747SOL    HW129846   4.246   5.018   2.093 -0.3826  0.6541 -0.3254
 7747SOL    HW229847   4.166   5.072   1.976  0.3115  0.2445 -1.0028
 7748SOL     OW29848   2.981   0.999   1.809  0.3606 -0.0273 -0.1866
 7748SOL    HW129849   2.907   1.054   1.834 -1.2822 -2.0018 -0.4363
 7748SOL    HW229850   3.024   0.977   1.892 -0.1396  0.0910  0.1102
 7749SOL     OW29851   5.298   4.251   4.016 -0.7205 -0.3061  0.2761
 7749SOL    HW129852   5.283   4.333   3.970  0.0429 -0.3105  0.0029
 7749SOL    HW229853   5.346   4.276   4.095  2.0044 -0.7342 -1.1495
 7750SOL     OW29854   1.825   2.133  11.124  0.0884 -0.3495  0.0571
 7750SOL    HW129855   1.921   2.123  11.128  0.1611  0.6755  1.8986
 7750SOL    HW229856   1.794   2.104  11.210 -1.2548 -0.5067 -0.4608
 7751SOL     OW29857  12.205  11.425   1.189 -0.2223  0.2848 -0.0692
 7751SOL    HW129858  12.138  11.360   1.210 -0.8532  0.6941 -0.7738
 7751SOL    HW229859  12.158  11.492   1.140  0.8801  0.1656 -1.3341
 7752SOL     OW29860   4.163  12.261   2.318 -0.6203  0.5909 -0.0345
 7752SOL    HW129861   4.112  12.271   2.238  0.1913  0.8301 -0.5289
 7752SOL    HW229862   4.253  12.249   2.288 -0.2887  0.8055  0.8397
 7753SOL     OW29863   6.330   5.451  10.161 -0.5008  0.0629 -0.0549
 7753SOL    HW129864   6.418   5.459  10.125 -0.1353 -0.0928  0.7728
 7753SOL    HW229865   6.294   5.540  10.156 -0.2804  0.1368 -0.3562
 7754SOL     OW29866   1.961   1.486   0.877  0.4904  0.2882 -0.3016
 7754SOL    HW129867   1.963   1.475   0.782  0.6041 -2.3086 -0.0706
 7754SOL    HW229868   1.893   1.426   0.907 -0.2079  1.7718  1.2112
 7755SOL     OW29869  11.895   6.516   9.745  0.0346 -0.3011  0.3547
 7755SOL    HW129870  11.902   6.588   9.808  2.7488 -0.8812  0.8327
 7755SOL    HW229871  11.888   6.437   9.799 -0.5179 -0.5886 -0.1278
 7756SOL     OW29872  11.132  10.358   2.134 -0.1102  0.0057 -0.3965
 7756SOL    HW129873  11.115  10.319   2.220 -0.7501  1.7474  0.3103
 7756SOL    HW229874  11.224  10.383   2.137 -0.1883  0.2770 -0.1012
 7757SOL     OW29875  11.610   2.543   7.117 -0.6518  0.0753 -0.5996
 7757SOL    HW129876  11.637   2.500   7.036 -1.7828 -1.2443 -0.3096
 7757SOL    HW229877  11.692   2.563   7.162 -0.0588 -0.6052 -1.3407
 7758SOL     OW29878   7.820   1.738   2.586  0.0470  0.2136  0.1032
 7758SOL    HW129879   7.890   1.675   2.603 -1.5271 -1.4470  0.6260
 7758SOL    HW229880   7.792   1.767   2.673 -2.1953 -1.7749  0.1402
 7759SOL     OW29881   5.450   0.618   7.985 -0.5260  0.0999  0.0926
 7759SOL    HW129882   5.495   0.699   7.958 -0.6160  0.8235  1.9733
 7759SOL    HW229883   5.517   0.551   7.980 -0.2190  0.4416 -0.6461
 7760SOL     OW29884   8.355   7.448  11.098  0.1220  0.0935 -0.1009
 7760SOL    HW129885   8.450   7.443  11.111 -0.0076  1.0163  1.3155
 7760SOL    HW229886   8.339   7.538  11.070 -0.2417 -0.3493 -1.3928
 7761SOL     OW29887   3.793  10.630   2.413  0.2565  0.2879  0.2305
 7761SOL    HW129888   3.726  10.698   2.420 -1.7953 -1.7390  2.9984
 7761SOL    HW229889   3.745  10.553   2.382  2.1367 -0.3879 -1.1789
 7762SOL     OW29890   5.062   0.930  11.134 -0.2652 -0.1886  0.4511
 7762SOL    HW129891   5.151   0.906  11.161 -0.1204  0.9061  1.0313
 7762SOL    HW229892   5.050   0.887  11.050 -0.2327 -2.6228  1.6224
 7763SOL     OW29893   4.435   6.842   7.130  0.1243  0.2588  0.1805
 7763SOL    HW129894   4.421   6.934   7.107  1.5568  0.6144  0.6115
 7763SOL    HW229895   4.439   6.796   7.046  1.7504  0.9797 -0.1797
 7764SOL     OW29896   7.021   1.208   9.318 -0.5165 -0.0123  0.0342
 7764SOL    HW129897   7.114   1.197   9.298 -0.7526 -1.0223 -0.5519
 7764SOL    HW229898   7.012   1.303   9.333  0.7444  0.0051  0.8967
 7765SOL     OW29899   6.933  12.436   7.015  0.1826 -0.3801 -0.4481
 7765SOL    HW129900   6.893  12.374   7.076 -2.1590  0.0842 -1.4027
 7765SOL    HW229901   6.958  12.510   7.069 -2.3356  0.2499  0.0008
 7766SOL     OW29902   1.246   5.641   7.507 -0.3830  0.3931 -0.1248
 7766SOL    HW129903   1.311   5.665   7.442  0.5067  0.4054  0.7434
 7766SOL    HW229904   1.168   5.617   7.456  0.3273  0.2787 -1.1830
 7767SOL     OW29905   2.922   1.192   6.520 -0.4235  0.1203  0.4236
 7767SOL    HW129906   2.845   1.212   6.574 -0.5865 -1.0824  0.6702
 7767SOL    HW229907   2.947   1.103   6.547 -0.5813 -0.5702 -1.5577
 7768SOL     OW29908  12.174   1.570   1.237  0.0187  0.2760 -0.8109
 7768SOL    HW129909  12.110   1.641   1.230 -0.6415 -0.3604 -1.3173
 7768SOL    HW229910  12.232   1.583   1.161 -1.4789 -1.0461 -2.2639
 7769SOL     OW29911   0.684   8.331   5.006 -0.1410 -0.2108 -0.0851
 7769SOL    HW129912   0.727   8.317   5.091 -0.5352 -3.1384 -0.2621
 7769SOL    HW229913   0.604   8.279   5.011 -1.1163  1.0608 -1.6177
 7770SOL     OW29914   3.311   9.468  10.003  0.1106 -0.0513  0.2338
 7770SOL    HW129915   3.401   9.496   9.988 -0.0744  0.6606  0.3925
 7770SOL    HW229916   3.263   9.550  10.016 -0.4393 -0.4592  0.7904
 7771SOL     OW29917   4.343   7.741   0.116 -0.4680  0.6681 -0.3063
 7771SOL    HW129918   4.275   7.677   0.137 -0.9126  1.3491  0.3639
 7771SOL    HW229919   4.365   7.723   0.024 -1.2829  0.1998 -0.4221
 7772SOL     OW29920   2.555   1.523   5.733 -0.7287  0.7030  0.0379
 7772SOL    HW129921   2.645   1.492   5.722 -0.8038  0.5101 -0.0434
 7772SOL    HW229922   2.510   1.495   5.653 -0.8994  0.6676  0.1452
 7773SOL     OW29923  11.204   3.209   8.452 -0.6764 -0.8089  0.1681
 7773SOL    HW129924  11.190   3.293   8.408 -0.2705 -1.4871 -1.3362
 7773SOL    HW229925  11.296   3.187   8.433 -0.3001 -0.8579  1.8950
 7774SOL     OW29926  11.472   1.408   0.957  0.3194 -0.1673  0.0920
 7774SOL    HW129927  11.414   1.453   1.018  2.2455  1.2812  0.9511
 7774SOL    HW229928  11.428   1.325   0.939 -1.8075  0.7018  0.9672
 7775SOL     OW29929   5.678   6.024   4.238 -0.0670  0.3984 -0.1696
 7775SOL    HW129930   5.754   5.970   4.263 -0.6410 -0.0862  0.6001
 7775SOL    HW229931   5.694   6.048   4.147  1.7006  1.4879  0.3748
 7776SOL     OW29932   1.014   4.631   1.154  0.2125  0.1379 -0.0242
 7776SOL    HW129933   1.011   4.594   1.065 -2.1553  1.4662 -0.5744
 7776SOL    HW229934   1.082   4.698   1.150  0.4189 -0.1013 -0.6994
 7777SOL     OW29935   3.580   1.334   5.761 -0.0055 -0.0227  0.0161
 7777SOL    HW129936   3.534   1.340   5.845 -1.0897  3.3287 -0.6679
 7777SOL    HW229937   3.509   1.328   5.696  0.7068  0.1933 -0.7963
 7778SOL     OW29938  10.318  12.733   2.770  1.1290  0.0145  0.1776
 7778SOL    HW129939  10.299  12.646   2.735  1.2396  0.2024 -0.3513
 7778SOL    HW229940  10.276  12.793   2.708 -0.5631  0.2989  1.5139
 7779SOL     OW29941   3.283   0.761   4.170 -0.2692  0.1812 -0.0427
 7779SOL    HW129942   3.258   0.676   4.133  2.2322 -1.0869  0.9164
 7779SOL    HW229943   3.342   0.739   4.242  0.0094  2.7592  0.6166
 7780SOL     OW29944   8.465   4.124  12.448  0.2267  0.4164 -0.1600
 7780SOL    HW129945   8.434   4.179  12.520  1.1400 -0.7391  1.1617
 7780SOL    HW229946   8.392   4.122  12.386 -1.0636  0.4786  1.2929
 7781SOL     OW29947  11.890   4.127   8.650  0.2027  0.5103 -0.6244
 7781SOL    HW129948  11.924   4.175   8.575  2.2115 -1.6782 -1.2515
 7781SOL    HW229949  11.939   4.161   8.725  1.1350 -0.0505 -0.9623
 7782SOL     OW29950   8.098   4.083   3.363 -0.2681 -0.2542 -0.0120
 7782SOL    HW129951   8.174   4.116   3.316 -0.6515 -2.6414 -2.5603
 7782SOL    HW229952   8.128   4.073   3.454  1.3590  1.8896 -0.2291
 7783SOL     OW29953   1.810   8.714   9.000 -0.0153 -0.5032 -0.2950
 7783SOL    HW129954   1.866   8.713   9.078 -0.8272 -1.2570  0.3027
 7783SOL    HW229955   1.800   8.621   8.977 -0.6815 -0.3480 -0.6417
 7784SOL     OW29956   8.316  11.599   3.717  0.0364 -0.3750 -0.0528
 7784SOL    HW129957   8.353  11.666   3.659  1.4218 -0.4130  0.7479
 7784SOL    HW229958   8.299  11.524   3.660  0.1242  0.0434 -0.6368
 7785SOL     OW29959   9.298  11.726   9.960  0.2749 -0.2953  0.3503
 7785SOL    HW129960   9.260  11.741  10.047 -1.3988 -0.0291 -0.3931
 7785SOL    HW229961   9.352  11.803   9.943  0.8031 -0.4564  1.2265
 7786SOL     OW29962   0.801   5.704  11.045  0.4749 -0.4449 -0.0824
 7786SOL    HW129963   0.721   5.752  11.029  0.5899 -0.1991  0.0680
 7786SOL    HW229964   0.801   5.689  11.140  0.3787 -0.8494 -0.1437
 7787SOL     OW29965   4.182   4.314   6.886 -0.1378  0.4289  0.0991
 7787SOL    HW129966   4.208   4.244   6.826 -1.2003 -0.8062  0.9940
 7787SOL    HW229967   4.165   4.389   6.830  0.4014 -0.2236 -0.9692
 7788SOL     OW29968  10.974   8.080   8.556  0.0042 -0.6359  0.4358
 7788SOL    HW129969  10.894   8.085   8.609  0.0799 -2.5341  0.7768
 7788SOL    HW229970  10.957   8.137   8.481 -0.8994  0.4901  1.4465
 7789SOL     OW29971   9.042   1.631   6.685 -0.0943  0.0641 -1.1923
 7789SOL    HW129972   9.008   1.719   6.700 -1.4672 -0.6857  0.4310
 7789SOL    HW229973   9.040   1.589   6.771  1.7332 -1.1720 -1.6903
 7790SOL     OW29974   8.283   8.144   5.671 -0.0542  0.1645 -0.4353
 7790SOL    HW129975   8.340   8.116   5.743 -2.7543 -0.4196  1.6506
 7790SOL    HW229976   8.308   8.235   5.655  0.0706  0.5991  1.8843
 7791SOL     OW29977   1.775   8.628   8.285 -0.1037 -0.1126  0.4032
 7791SOL    HW129978   1.798   8.717   8.258 -1.7435 -0.2690 -1.7890
 7791SOL    HW229979   1.686   8.635   8.319 -0.2996 -0.9345  0.0849
 7792SOL     OW29980   2.520   0.317   2.775  0.9397 -0.1088  0.3531
 7792SOL    HW129981   2.561   0.249   2.721  0.3526 -0.8142  0.7707
 7792SOL    HW229982   2.455   0.270   2.827 -0.1024  0.9186  0.0163
 7793SOL     OW29983   5.457   6.538  11.823 -0.6842 -0.1077  0.2991
 7793SOL    HW129984   5.386   6.547  11.887  0.4618 -1.6355  1.8898
 7793SOL    HW229985   5.490   6.449  11.837  0.4143 -0.0447 -1.6186
 7794SOL     OW29986   3.077   6.133  12.001 -0.4620 -0.8369  0.0977
 7794SOL    HW129987   3.013   6.079  11.954  0.1775  1.5690 -3.9674
 7794SOL    HW229988   3.035   6.218  12.011 -0.0465 -0.8583  2.9978
 7795SOL     OW29989   5.800   8.273  10.774 -0.9862  0.1691  0.6248
 7795SOL    HW129990   5.711   8.284  10.742 -0.1760  1.0808 -1.4660
 7795SOL    HW229991   5.843   8.356  10.756  0.1941 -0.1142  1.9701
 7796SOL     OW29992   7.460   9.547  12.526  0.4190 -0.0444 -0.2898
 7796SOL    HW129993   7.546   9.566  12.488  0.0932 -0.9328 -1.5425
 7796SOL    HW229994   7.465   9.454  12.551  0.2219  0.2160  0.7837
 7797SOL     OW29995  10.261   3.950   3.636 -0.1925  0.0294 -0.1962
 7797SOL    HW129996  10.272   4.044   3.644 -0.2024 -0.0955  1.7769
 7797SOL    HW229997  10.257   3.918   3.726  1.4913 -2.0639 -0.7583
 7798SOL     OW29998  10.261   0.980   5.500  0.3885  0.4849 -0.0243
 7798SOL    HW129999  10.248   1.043   5.429 -0.1577 -1.2315 -1.5115
 7798SOL    HW230000  10.243   0.895   5.461  0.3099 -0.5615  2.1270
 7799SOL     OW30001   2.575   2.086   8.944  0.3468  0.0260  0.3182
 7799SOL    HW130002   2.663   2.051   8.931 -0.1307 -1.8843  1.7229
 7799SOL    HW230003   2.527   2.014   8.984 -1.9294  0.9480 -0.5947
 7800SOL     OW30004   6.325   5.645   5.452 -0.0906 -0.1509  0.0440
 7800SOL    HW130005   6.307   5.678   5.365 -1.3529 -0.3451  0.2149
 7800SOL    HW230006   6.247   5.668   5.504  0.1243 -1.0623  0.8146
 7801SOL     OW30007   6.166   7.390   3.998 -0.1986  0.1384  0.4053
 7801SOL    HW130008   6.221   7.468   4.008  0.0828 -0.0379  0.2326
 7801SOL    HW230009   6.178   7.342   4.080 -1.7626  1.1505  1.2756
 7802SOL     OW30010   9.405   2.591  12.408 -0.1267 -0.2034  0.0141
 7802SOL    HW130011   9.354   2.660  12.367 -0.4145 -0.3573  0.1138
 7802SOL    HW230012   9.395   2.605  12.502  1.2698  0.6988  0.0595
 7803SOL     OW30013   3.612   6.692   2.713  0.1559  0.0423 -0.3524
 7803SOL    HW130014   3.632   6.785   2.703  2.0355 -0.1745  0.9482
 7803SOL    HW230015   3.558   6.672   2.636 -2.7203  2.7761  0.7274
 7804SOL     OW30016   5.035   3.715   0.462 -0.3209  0.1763  0.6891
 7804SOL    HW130017   4.990   3.631   0.457 -2.1287  1.1565 -0.6213
 7804SOL    HW230018   5.059   3.724   0.555 -0.6166 -1.4748  0.9556
 7805SOL     OW30019   0.826  11.102   5.543  0.3114  0.2024  0.1619
 7805SOL    HW130020   0.769  11.036   5.583 -0.2247 -1.3993 -2.9168
 7805SOL    HW230021   0.817  11.179   5.600 -1.4203 -1.4101  2.2444
 7806SOL     OW30022   8.166  10.418  11.928  0.0798  0.5872 -0.1931
 7806SOL    HW130023   8.241  10.362  11.906  0.5705  0.6325  1.2356
 7806SOL    HW230024   8.096  10.357  11.952  0.8695  0.4943  2.1890
 7807SOL     OW30025   6.033   8.202   7.491 -0.3756  0.7687 -0.5646
 7807SOL    HW130026   5.983   8.133   7.535 -0.8678  1.2461 -0.3650
 7807SOL    HW230027   5.994   8.284   7.522  1.1038  1.1841  0.3047
 7808SOL     OW30028  11.529  10.725   6.045 -0.3729 -0.4985 -0.1790
 7808SOL    HW130029  11.592  10.659   6.016  1.7990  1.7211 -0.8616
 7808SOL    HW230030  11.456  10.715   5.984  0.2496 -1.7395 -0.7707
 7809SOL     OW30031   7.245   6.200  12.371 -0.3132  0.6602  0.0575
 7809SOL    HW130032   7.336   6.217  12.347  0.2771 -1.5205  0.4663
 7809SOL    HW230033   7.250   6.160  12.458 -1.6618  0.5533  0.1108
 7810SOL     OW30034   1.472   4.842   2.276 -0.1657  0.3591 -0.5116
 7810SOL    HW130035   1.379   4.824   2.292 -1.4624  3.4363 -3.3756
 7810SOL    HW230036   1.489   4.804   2.190  0.5228  1.8481 -1.0579
 7811SOL     OW30037  11.960   5.380  11.620 -0.6038 -0.4289 -0.2680
 7811SOL    HW130038  11.923   5.292  11.613  0.6400 -0.8825 -1.5857
 7811SOL    HW230039  11.902   5.435  11.567 -0.7233 -0.6718 -0.3887
 7812SOL     OW30040   2.714   2.517  11.621 -0.4952 -0.2916  0.3858
 7812SOL    HW130041   2.801   2.495  11.589 -0.2286 -0.0133  0.9009
 7812SOL    HW230042   2.714   2.613  11.626 -1.4879 -0.1370 -1.4322
 7813SOL     OW30043  11.588  11.313   6.454  0.2154 -0.6249 -0.1196
 7813SOL    HW130044  11.567  11.308   6.361  0.9908  0.8110 -0.3883
 7813SOL    HW230045  11.586  11.221   6.483  1.3363 -1.2452 -1.8531
 7814SOL     OW30046   5.314   2.838   4.022 -0.3282 -0.3263  0.1173
 7814SOL    HW130047   5.317   2.931   4.041  0.7316 -0.2574 -0.2800
 7814SOL    HW230048   5.254   2.830   3.948 -2.3833 -0.2863  1.7213
 7815SOL     OW30049   0.841   1.536   2.377  0.5103  0.4421  0.1295
 7815SOL    HW130050   0.899   1.471   2.418  0.2519 -0.2249 -0.5318
 7815SOL    HW230051   0.855   1.616   2.428  1.5136  0.1152  0.3988
 7816SOL     OW30052   1.764   8.959   3.452  0.5832  0.2338 -0.2043
 7816SOL    HW130053   1.677   8.951   3.413 -0.8519 -2.1113  3.0817
 7816SOL    HW230054   1.765   9.046   3.492  1.1069  1.5968 -2.9345
 7817SOL     OW30055   5.978   3.313   1.241 -0.1806 -0.4152 -0.2821
 7817SOL    HW130056   5.900   3.258   1.240  0.0024 -0.7013  0.4301
 7817SOL    HW230057   5.967   3.369   1.317  0.7099 -1.0778  0.3604
 7818SOL     OW30058  11.544   6.173   9.076 -0.3914  0.3280 -0.0930
 7818SOL    HW130059  11.607   6.186   9.004  1.6238  1.6059  1.7858
 7818SOL    HW230060  11.560   6.083   9.104 -2.2347 -0.7150 -2.0818
 7819SOL     OW30061  11.504  12.565   6.365  0.0490 -0.4461  0.1331
 7819SOL    HW130062  11.525  12.585   6.274 -1.6357  2.1967  0.2312
 7819SOL    HW230063  11.476  12.648   6.402  2.7903 -0.9253  3.7691
 7820SOL     OW30064   6.610   1.625   1.786 -0.1351 -0.7435 -0.2036
 7820SOL    HW130065   6.686   1.682   1.773  1.4474 -2.6402  0.3589
 7820SOL    HW230066   6.586   1.638   1.878  1.5108 -2.4153  0.5115
 7821SOL     OW30067  10.105  10.588   6.705 -0.0363 -0.6921 -0.2447
 7821SOL    HW130068  10.049  10.662   6.728 -0.1784 -0.3591 -1.5520
 7821SOL    HW230069  10.167  10.581   6.777  0.2949  1.0172 -0.3205
 7822SOL     OW30070   3.031  11.033   4.110  0.7854  0.1794  0.7416
 7822SOL    HW130071   3.027  11.107   4.049 -1.1728 -0.2673  0.2406
 7822SOL    HW230072   3.091  10.971   4.069 -0.4818 -0.1047 -0.7924
 7823SOL     OW30073   3.947   4.818   4.533 -0.3761 -0.1924  0.3266
 7823SOL    HW130074   4.018   4.833   4.596  0.0917 -1.6447  0.1705
 7823SOL    HW230075   3.917   4.730   4.551  0.2232 -0.9188 -1.9071
 7824SOL     OW30076   0.166  11.909   1.821  0.4473  0.1633 -0.1507
 7824SOL    HW130077   0.079  11.933   1.853  0.6004  0.1997  0.2470
 7824SOL    HW230078   0.150  11.858   1.742  0.0950  1.1442 -0.7381
 7825SOL     OW30079   4.395   4.704   9.454  0.8699 -0.2162  0.2777
 7825SOL    HW130080   4.414   4.798   9.449  0.5926 -0.1914 -0.4015
 7825SOL    HW230081   4.299   4.699   9.461  0.9359 -0.4263  1.1975
 7826SOL     OW30082   1.984   6.813   3.239 -0.2170  0.0286  0.0001
 7826SOL    HW130083   1.975   6.735   3.294 -0.4901 -0.3051 -0.5135
 7826SOL    HW230084   2.017   6.780   3.155  0.2633  0.5415 -0.0228
 7827SOL     OW30085   9.743   6.929   6.984  0.2632  0.2070  0.0208
 7827SOL    HW130086   9.717   6.945   7.075  1.2566 -0.5241  0.4572
 7827SOL    HW230087   9.785   6.843   6.987  0.6042  0.3328 -1.0726
 7828SOL     OW30088   1.039   1.354   9.542 -0.1173  0.3531  0.1235
 7828SOL    HW130089   1.015   1.445   9.559 -0.8535 -0.0796  1.5892
 7828SOL    HW230090   1.005   1.306   9.617  3.2221 -0.6857  1.1489
 7829SOL     OW30091   2.124   0.329   2.836 -0.1615 -0.0270  0.1678
 7829SOL    HW130092   2.165   0.404   2.793 -0.9507  0.8263  0.8711
 7829SOL    HW230093   2.105   0.359   2.925 -1.3622 -0.7315  0.1704
 7830SOL     OW30094   5.769   9.302   6.528 -0.4604  0.0037 -0.0621
 7830SOL    HW130095   5.793   9.387   6.491 -0.2754 -0.4848 -1.0942
 7830SOL    HW230096   5.683   9.283   6.491 -0.3043 -0.4640 -0.1916
 7831SOL     OW30097   1.516  12.724   9.131  0.1004 -0.5874  0.2723
 7831SOL    HW130098   1.517  12.772   9.048  0.5093 -1.3366 -0.1718
 7831SOL    HW230099   1.526  12.791   9.198 -0.4946  0.0590 -0.2668
 7832SOL     OW30100  11.584   6.407   0.887 -0.0724 -0.4100 -0.1272
 7832SOL    HW130101  11.601   6.496   0.857  0.6019 -1.3235 -2.7566
 7832SOL    HW230102  11.669   6.376   0.921  0.4253 -0.8856 -1.7213
 7833SOL     OW30103   6.960   9.300  10.112  0.3021 -0.2933 -0.6401
 7833SOL    HW130104   6.917   9.319  10.029 -0.0902  0.6649 -0.2366
 7833SOL    HW230105   6.979   9.386  10.149 -0.4275 -0.6857  0.7190
 7834SOL     OW30106   1.570   5.442   7.532  0.5529 -0.4133  0.1299
 7834SOL    HW130107   1.641   5.387   7.566 -0.3545 -0.4907  2.0345
 7834SOL    HW230108   1.579   5.437   7.437  0.4850 -3.9964  0.1491
 7835SOL     OW30109   7.794   1.566   5.821 -0.2760 -0.3980 -0.2357
 7835SOL    HW130110   7.746   1.626   5.878  0.6703  0.2607 -0.1172
 7835SOL    HW230111   7.756   1.480   5.840  0.7014 -0.3785  2.1971
 7836SOL     OW30112  10.870   8.607  11.110 -0.2376  0.3944  0.2020
 7836SOL    HW130113  10.943   8.563  11.068  0.0412 -0.4493  1.5210
 7836SOL    HW230114  10.794   8.588  11.054  0.3168  0.2931 -0.5304
 7837SOL     OW30115   0.318  11.052   4.524  0.4133  0.1345  0.4612
 7837SOL    HW130116   0.253  10.991   4.491  0.5269 -1.5877  3.1520
 7837SOL    HW230117   0.267  11.120   4.568  0.3924 -0.2453  1.0214
 7838SOL     OW30118  11.167   9.157  10.204 -0.1390  0.0989 -0.1629
 7838SOL    HW130119  11.252   9.122  10.230  0.7452  1.4891 -1.0419
 7838SOL    HW230120  11.125   9.086  10.156 -0.5108 -1.4258  2.2338
 7839SOL     OW30121   0.180   0.842   4.534  0.2379 -0.1726  0.3793
 7839SOL    HW130122   0.157   0.887   4.454 -0.4864 -0.1346  0.6095
 7839SOL    HW230123   0.207   0.911   4.595 -0.4946 -0.0817  0.6034
 7840SOL     OW30124   7.074   7.968   7.304  0.5463 -0.0488 -0.1166
 7840SOL    HW130125   7.100   7.885   7.344  2.4238  0.3393 -0.4656
 7840SOL    HW230126   7.033   8.017   7.375 -5.0880 -2.9250 -0.8074
 7841SOL     OW30127   0.412   5.197   7.290  0.1200  0.2608 -0.2566
 7841SOL    HW130128   0.349   5.126   7.300 -0.7214  0.8705 -1.0850
 7841SOL    HW230129   0.419   5.211   7.196  0.0825  1.4337 -0.0989
 7842SOL     OW30130   9.001   1.708  11.100 -0.1750 -0.3824 -0.4835
 7842SOL    HW130131   8.990   1.630  11.154  2.5101 -0.8130 -0.4053
 7842SOL    HW230132   9.005   1.674  11.010 -0.4264 -0.1690 -0.5754
 7843SOL     OW30133   4.742   9.182  12.580  0.4869 -0.5720  0.6917
 7843SOL    HW130134   4.680   9.204  12.510  0.0514 -1.5902  0.7395
 7843SOL    HW230135   4.768   9.267  12.617 -0.9528 -0.1219  0.7300
 7844SOL     OW30136  12.712  12.082  10.686 -0.2837  0.1508 -0.3183
 7844SOL    HW130137  12.641  12.133  10.724 -1.2436 -0.2248 -1.5454
 7844SOL    HW230138  12.692  11.992  10.711 -0.2891  0.0373 -0.7201
 7845SOL     OW30139  11.105  11.909   7.195 -0.1635  0.6512  0.4781
 7845SOL    HW130140  11.108  11.863   7.279  2.2189 -1.3753 -0.5797
 7845SOL    HW230141  11.028  11.873   7.151  0.4145 -0.7411  0.5525
 7846SOL     OW30142   5.065   8.432   5.809  0.2600  0.0817  0.1547
 7846SOL    HW130143   4.993   8.441   5.871  1.3755  0.8586  1.3968
 7846SOL    HW230144   5.133   8.386   5.858  1.3392  1.1198 -0.3020
 7847SOL     OW30145   2.967  12.714   9.391 -0.1506  0.2232  0.1808
 7847SOL    HW130146   3.034  12.646   9.389 -1.0358 -0.7223  1.4094
 7847SOL    HW230147   2.918  12.701   9.309  1.5714  1.4171 -1.1105
 7848SOL     OW30148   7.813   1.885   7.356 -0.0880  0.0971  0.0802
 7848SOL    HW130149   7.888   1.839   7.395 -0.1769  0.1387  0.3023
 7848SOL    HW230150   7.823   1.872   7.262  1.5019  2.0277 -0.0884
 7849SOL     OW30151  10.192   8.340   7.585 -0.1385  0.1148  0.0242
 7849SOL    HW130152  10.266   8.395   7.609  0.2000 -0.9181  1.5378
 7849SOL    HW230153  10.119   8.373   7.639 -1.1410  1.8133 -2.2161
 7850SOL     OW30154  10.401   4.105  11.734 -0.1530 -0.2077  0.3318
 7850SOL    HW130155  10.350   4.131  11.811 -1.0574 -1.6314  0.2591
 7850SOL    HW230156  10.485   4.075  11.770  0.3691  1.4165  0.5266
 7851SOL     OW30157  10.843   7.438   0.640  0.2817  0.3010 -0.3301
 7851SOL    HW130158  10.932   7.467   0.661  0.6375 -0.9143 -0.0874
 7851SOL    HW230159  10.843   7.344   0.659 -1.5502  0.5766  1.3778
 7852SOL     OW30160   6.442   0.192   2.369 -0.0314  0.4128 -0.3052
 7852SOL    HW130161   6.366   0.238   2.332  0.0979  1.1615  0.3424
 7852SOL    HW230162   6.518   0.239   2.334  0.1262  0.0753 -0.4245
 7853SOL     OW30163   1.951   2.258   3.467  0.7756 -0.6050  0.2825
 7853SOL    HW130164   1.914   2.284   3.383 -0.5796 -1.7980  0.4636
 7853SOL    HW230165   1.920   2.168   3.481  2.8136 -1.2741  1.0308
 7854SOL     OW30166  11.940   1.249   9.320  0.2549 -0.1626 -0.6081
 7854SOL    HW130167  11.972   1.327   9.364 -0.4043  1.2642 -2.5383
 7854SOL    HW230168  11.853   1.273   9.287  0.6472 -1.1599 -2.5204
 7855SOL     OW30169   1.283  11.165   2.362 -0.1014  0.1728  0.2653
 7855SOL    HW130170   1.215  11.187   2.298 -0.5878  1.2056  1.0979
 7855SOL    HW230171   1.346  11.112   2.313 -0.8445  0.2847 -0.8615
 7856SOL     OW30172   5.255   0.760   0.964 -0.4160 -0.5053  0.4262
 7856SOL    HW130173   5.214   0.683   1.003  1.3573 -0.7293  2.0125
 7856SOL    HW230174   5.349   0.744   0.974  0.0410  1.0312 -0.9292
 7857SOL     OW30175  11.999   1.849  11.781  0.0633 -0.4149  0.5263
 7857SOL    HW130176  12.025   1.833  11.872  3.6106  0.8894 -0.0874
 7857SOL    HW230177  12.068   1.807  11.728  0.5423  2.4584 -1.3679
 7858SOL     OW30178   2.257   2.053   0.383  0.4905 -0.1731 -0.4817
 7858SOL    HW130179   2.180   1.998   0.371  0.8576 -1.2434  1.6275
 7858SOL    HW230180   2.237   2.134   0.336 -1.2151 -1.0396 -1.3274
 7859SOL     OW30181   4.211  10.357   0.688  0.0539 -0.1661 -0.1367
 7859SOL    HW130182   4.175  10.446   0.687  1.3449  0.3835 -1.4710
 7859SOL    HW230183   4.204  10.330   0.780 -0.2185  1.3808  0.3342
 7860SOL     OW30184  11.662   4.687  10.598 -0.2304  0.0063 -0.0920
 7860SOL    HW130185  11.685   4.673  10.690  0.9873 -0.9207 -0.5069
 7860SOL    HW230186  11.590   4.625  10.582 -0.4024  0.1247  0.2136
 7861SOL     OW30187  11.096   4.024   7.419 -0.4210 -0.5433  0.3985
 7861SOL    HW130188  11.051   3.974   7.350 -0.3524 -1.0151  0.6901
 7861SOL    HW230189  11.177   4.054   7.378 -0.2540 -1.0527  0.3546
 7862SOL     OW30190  11.058  10.625  11.590  0.3011 -0.5376  0.1476
 7862SOL    HW130191  11.135  10.593  11.638  0.7727 -0.4812 -0.5658
 7862SOL    HW230192  10.984  10.582  11.633  0.9456 -3.0979 -1.1272
 7863SOL     OW30193   0.292   6.129   7.889 -0.1659  0.3642  0.3759
 7863SOL    HW130194   0.226   6.128   7.819 -1.3878  1.0753  1.4610
 7863SOL    HW230195   0.290   6.219   7.922  1.5368  0.4600  0.3045
 7864SOL     OW30196   6.885   2.991   6.761  0.0026  0.0268  0.1514
 7864SOL    HW130197   6.932   2.996   6.678  0.7610  1.5179  0.6290
 7864SOL    HW230198   6.844   2.905   6.761  2.4850 -1.2576 -0.4334
 7865SOL     OW30199   6.677   8.970   1.030  0.2873 -0.3982 -0.4126
 7865SOL    HW130200   6.763   8.983   1.071 -0.9201  0.9650  1.9117
 7865SOL    HW230201   6.647   9.058   1.007 -1.8169 -0.4105  1.8648
 7866SOL     OW30202   0.647   1.488   4.682  0.0832 -0.0394  0.3859
 7866SOL    HW130203   0.691   1.427   4.742 -0.9712 -0.1685  1.0533
 7866SOL    HW230204   0.558   1.454   4.674 -0.0951  0.5914 -0.4101
 7867SOL     OW30205   1.096   3.367   7.768 -0.4981 -0.2926 -0.1289
 7867SOL    HW130206   1.142   3.319   7.837 -3.7623 -1.5283  1.4280
 7867SOL    HW230207   1.129   3.457   7.774  1.8489 -1.1462  0.5945
 7868SOL     OW30208   0.121   1.343   0.100 -0.1617  0.2966 -0.2033
 7868SOL    HW130209   0.084   1.423   0.063 -0.0294  0.4404 -0.0264
 7868SOL    HW230210   0.188   1.374   0.162  0.0937  0.0448 -0.3529
 7869SOL     OW30211  11.755   6.628   6.942 -0.1357 -0.1572  0.2260
 7869SOL    HW130212  11.840   6.609   6.982  0.4052  0.0231 -0.7827
 7869SOL    HW230213  11.717   6.541   6.926  0.5131 -0.2967 -0.6368
 7870SOL     OW30214  11.155  10.399  10.504 -0.0840 -0.1018  0.2131
 7870SOL    HW130215  11.182  10.485  10.537 -1.4794 -0.2022  1.7662
 7870SOL    HW230216  11.063  10.391  10.530  0.2852 -2.4811  1.0511
 7871SOL     OW30217  10.167  10.238   4.725 -0.2472 -0.0252  0.4787
 7871SOL    HW130218  10.073  10.240   4.742 -0.5168 -0.0971 -0.9512
 7871SOL    HW230219  10.193  10.330   4.720 -0.9126  0.0895 -2.4998
 7872SOL     OW30220   0.731   6.085   7.724 -0.1016  0.0277 -0.9164
 7872SOL    HW130221   0.747   6.149   7.793  0.6080 -1.5901  0.5018
 7872SOL    HW230222   0.637   6.090   7.707 -0.4601 -0.1024  0.8130
 7873SOL     OW30223   4.830   3.986  10.776 -0.6725  0.3258 -0.1949
 7873SOL    HW130224   4.802   3.899  10.805  0.7995 -0.1510 -0.1035
 7873SOL    HW230225   4.779   4.047  10.829 -0.2237 -0.5100  1.2657
 7874SOL     OW30226  10.524   0.933   3.199  0.2263 -0.2318  0.3708
 7874SOL    HW130227  10.558   0.995   3.265  0.5446 -0.2016  0.1770
 7874SOL    HW230228  10.532   0.847   3.241 -1.8529 -0.0203  1.3622
 7875SOL     OW30229   3.224   5.871   5.601 -0.2587  0.2075 -0.0175
 7875SOL    HW130230   3.152   5.820   5.638  1.7505 -2.2823  0.8078
 7875SOL    HW230231   3.204   5.879   5.508 -2.2727  0.9057  0.4414
 7876SOL     OW30232  10.141   5.506   9.580 -0.3971  0.6944 -0.2114
 7876SOL    HW130233  10.167   5.588   9.538 -0.4446  0.1645 -1.2889
 7876SOL    HW230234  10.185   5.508   9.665  2.1302  0.4227 -1.4280
 7877SOL     OW30235   7.103  10.765   5.639 -0.1069 -0.1699 -0.1404
 7877SOL    HW130236   7.102  10.674   5.668  1.0908 -0.0529  0.3389
 7877SOL    HW230237   7.140  10.761   5.551 -1.5037 -0.2831 -0.7464
 7878SOL     OW30238  10.868   0.028  11.418  0.1524  0.8523  0.4626
 7878SOL    HW130239  10.924   0.094  11.458  1.0333  0.0228  0.6319
 7878SOL    HW230240  10.835  -0.025  11.491  1.0853 -0.1328  0.2104
 7879SOL     OW30241   5.463   4.677  11.799 -0.3907  0.3706  0.0172
 7879SOL    HW130242   5.488   4.585  11.789  0.3268  0.8115 -3.9795
 7879SOL    HW230243   5.544   4.721  11.826 -0.3214  0.0335  0.3612
 7880SOL     OW30244  10.977   1.045   5.449  0.0455 -0.1220 -0.6064
 7880SOL    HW130245  10.997   0.965   5.400  0.0130 -0.0587 -0.7227
 7880SOL    HW230246  11.063   1.086   5.464  0.2003 -0.8079  0.5396
 7881SOL     OW30247   4.511   1.269  12.673 -0.6447  0.1433 -0.6385
 7881SOL    HW130248   4.515   1.365  12.672 -1.0958  0.1736  0.0092
 7881SOL    HW230249   4.532   1.244  12.583  0.7184  0.7950 -0.5370
 7882SOL     OW30250   0.526   2.987   1.663  0.3753  0.1174  0.4343
 7882SOL    HW130251   0.489   3.064   1.705 -0.2856  0.0284  0.0418
 7882SOL    HW230252   0.462   2.918   1.680  1.4464 -0.6238  1.6792
 7883SOL     OW30253   9.272  12.741   8.737 -0.7834 -0.5638  0.3226
 7883SOL    HW130254   9.276  12.647   8.754 -0.3520 -0.4736  0.7417
 7883SOL    HW230255   9.268  12.748   8.642 -0.3881 -0.9966  0.2684
 7884SOL     OW30256   5.513   3.925   7.505 -0.0761 -0.3836  0.6612
 7884SOL    HW130257   5.459   3.985   7.556  0.4618 -2.1837  3.5594
 7884SOL    HW230258   5.461   3.844   7.501  1.1337 -1.1922  0.9057
 7885SOL     OW30259   9.799   0.292   6.694 -0.3136  0.1551 -0.0448
 7885SOL    HW130260   9.725   0.339   6.657 -1.5523 -0.5184  1.4508
 7885SOL    HW230261   9.835   0.243   6.620 -2.9553 -1.5043 -0.3900
 7886SOL     OW30262   7.599   7.649   4.118 -0.3066 -0.4700  0.2612
 7886SOL    HW130263   7.647   7.656   4.036 -0.8233 -0.0775 -0.0177
 7886SOL    HW230264   7.614   7.732   4.162 -0.1194 -0.6380  0.5129
 7887SOL     OW30265   3.493  10.849  10.306  0.1625 -0.0990 -0.0850
 7887SOL    HW130266   3.487  10.926  10.250  1.8417 -0.9622 -1.5469
 7887SOL    HW230267   3.409  10.804  10.294 -0.6603  1.2296  0.4478
 7888SOL     OW30268   0.960   8.401   6.366  0.0250  0.0857 -0.0542
 7888SOL    HW130269   0.945   8.348   6.287  1.8635 -0.0430 -0.3560
 7888SOL    HW230270   0.949   8.338   6.438 -1.8734  0.2500 -0.1460
 7889SOL     OW30271   4.958  11.262   9.158 -0.1418  0.4962 -0.3463
 7889SOL    HW130272   4.876  11.262   9.207 -0.4998  0.7779 -0.9325
 7889SOL    HW230273   5.003  11.341   9.187  0.5102 -0.2990  0.9088
 7890SOL     OW30274   3.190   6.930  11.888  0.3328 -0.0502 -0.2306
 7890SOL    HW130275   3.133   6.873  11.939  0.7640 -1.2382 -1.0294
 7890SOL    HW230276   3.248   6.970  11.953 -0.9778  0.7019  0.5170
 7891SOL     OW30277   5.676   7.786   8.427  0.0644 -0.2194 -0.1899
 7891SOL    HW130278   5.679   7.696   8.393 -0.5187  0.1114 -1.1669
 7891SOL    HW230279   5.596   7.788   8.480 -0.7195  0.1011 -1.3475
 7892SOL     OW30280   2.886  10.739   3.511  0.1406 -0.3858 -0.4614
 7892SOL    HW130281   2.886  10.825   3.468 -1.4934 -0.2308 -0.1967
 7892SOL    HW230282   2.820  10.746   3.580  0.9422 -1.4385  0.4631
 7893SOL     OW30283   3.784   3.476   1.170 -0.2145 -0.5430  0.3789
 7893SOL    HW130284   3.880   3.478   1.169 -0.2265  0.9443  0.0168
 7893SOL    HW230285   3.758   3.565   1.149 -1.6937 -0.9344  0.4421
 7894SOL     OW30286   2.119   7.280   2.727  0.2611 -0.0779  0.1242
 7894SOL    HW130287   2.086   7.204   2.774 -0.5830  0.1297 -0.1232
 7894SOL    HW230288   2.191   7.312   2.782  1.1637 -1.4996 -0.1627
 7895SOL     OW30289   7.734  11.651   4.239 -0.0528  0.6671 -0.3282
 7895SOL    HW130290   7.734  11.618   4.149 -0.2915  0.6804 -0.3318
 7895SOL    HW230291   7.663  11.603   4.283  0.9090 -0.3300  0.2091
 7896SOL     OW30292   9.426   3.507   1.929 -0.3019 -0.2668 -0.5446
 7896SOL    HW130293   9.350   3.512   1.871  0.6698  0.9316 -1.7613
 7896SOL    HW230294   9.404   3.564   2.003 -1.6839 -2.0561  0.5223
 7897SOL     OW30295   4.883   9.777   4.568 -0.2104  0.3141  0.6439
 7897SOL    HW130296   4.949   9.818   4.623  0.8304  0.9513 -0.9984
 7897SOL    HW230297   4.906   9.684   4.567  0.1459  0.4014  0.7757
 7898SOL     OW30298   1.795  10.252   0.988 -0.1878  0.6801  0.3046
 7898SOL    HW130299   1.761  10.162   0.985 -0.3960  0.7281  0.9437
 7898SOL    HW230300   1.776  10.288   0.901  2.2133 -0.6988 -0.8846
 7899SOL     OW30301   8.743  12.688   0.265  0.8913  0.4044  0.3834
 7899SOL    HW130302   8.711  12.722   0.181  1.2792  1.7177  0.7435
 7899SOL    HW230303   8.783  12.604   0.244 -1.1698 -0.4581 -0.3624
 7900SOL     OW30304   2.275   0.347   8.897 -0.0140 -0.0744 -0.2283
 7900SOL    HW130305   2.330   0.299   8.959  0.0019 -0.0108 -0.1923
 7900SOL    HW230306   2.313   0.328   8.811 -2.5990 -3.8080 -0.7936
 7901SOL     OW30307   2.609   1.873   3.492 -0.2808  0.6266 -0.5964
 7901SOL    HW130308   2.638   1.802   3.435 -0.2368  0.5938 -0.5323
 7901SOL    HW230309   2.669   1.871   3.566 -0.9855 -0.0124 -0.0160
 7902SOL     OW30310  12.017   8.250  10.820 -0.2277 -0.1015 -0.1232
 7902SOL    HW130311  12.074   8.325  10.833  0.6915 -1.3275  4.6150
 7902SOL    HW230312  12.069   8.188  10.769  2.1315 -0.4359  2.4897
 7903SOL     OW30313  10.647   3.520   9.407 -0.0711 -0.5517  0.0894
 7903SOL    HW130314  10.608   3.439   9.373 -0.8980 -0.2819  0.3498
 7903SOL    HW230315  10.740   3.500   9.418 -0.2435 -1.4287  0.0451
 7904SOL     OW30316   8.386   7.896   9.028 -0.4093 -0.2350 -0.0715
 7904SOL    HW130317   8.413   7.972   8.975 -1.6937  2.0747  2.3234
 7904SOL    HW230318   8.311   7.860   8.979  0.5280 -0.3104 -1.5129
 7905SOL     OW30319   6.186   7.728   7.948 -0.0354 -0.0204  0.1177
 7905SOL    HW130320   6.104   7.766   7.916  0.3703  0.4445 -0.3906
 7905SOL    HW230321   6.233   7.802   7.986  0.3123 -0.2114  0.0619
 7906SOL     OW30322   1.904   1.632   4.233 -0.7183 -0.3713  0.2604
 7906SOL    HW130323   1.815   1.640   4.199 -1.5830 -1.3589  2.1312
 7906SOL    HW230324   1.929   1.542   4.214 -0.9901 -0.7574  1.6062
 7907SOL     OW30325   1.640   3.780  11.828 -0.0261  0.7303  0.4790
 7907SOL    HW130326   1.732   3.806  11.837  0.4892 -0.5582 -0.6093
 7907SOL    HW230327   1.624   3.721  11.902 -0.2676  1.6604  1.1836
 7908SOL     OW30328   2.265   7.196   3.195  0.4112  0.6407 -0.0237
 7908SOL    HW130329   2.360   7.195   3.202  0.4472 -0.2859 -0.5750
 7908SOL    HW230330   2.234   7.200   3.286  0.9636  0.6958  0.1629
 7909SOL     OW30331   5.683   3.819  11.045  0.1238 -0.0180 -0.3132
 7909SOL    HW130332   5.607   3.875  11.027  0.3841  0.7395  0.7842
 7909SOL    HW230333   5.727   3.863  11.119  0.2091 -1.7976  0.7447
 7910SOL     OW30334   8.624   1.381   0.755  0.5396 -1.1760 -0.4746
 7910SOL    HW130335   8.545   1.381   0.809  0.7887 -0.1277 -0.0853
 7910SOL    HW230336   8.662   1.468   0.769  0.1454 -0.5078 -3.0070
 7911SOL     OW30337   5.972   8.472   0.245 -0.6635  0.4929 -0.6582
 7911SOL    HW130338   6.030   8.409   0.204 -0.4014  0.5620 -0.3971
 7911SOL    HW230339   6.024   8.552   0.254 -0.5902  0.3585  0.1574
 7912SOL     OW30340   7.064   1.401  12.776 -0.0339  0.0831  0.1346
 7912SOL    HW130341   7.017   1.396  12.859  0.0454  1.0731  0.2503
 7912SOL    HW230342   6.996   1.406  12.709 -0.1288  2.0086  0.3327
 7913SOL     OW30343  10.247  11.263   2.048 -0.1563  0.3368  0.4207
 7913SOL    HW130344  10.165  11.287   2.004 -0.7719 -1.6397  0.3763
 7913SOL    HW230345  10.219  11.234   2.135  0.0051 -3.3523 -0.6083
 7914SOL     OW30346   0.668  10.991   3.606 -0.0446 -0.0471  0.6376
 7914SOL    HW130347   0.583  10.968   3.567  0.1598  1.8199 -1.0660
 7914SOL    HW230348   0.729  10.928   3.568 -0.1316  0.7400 -0.9040
 7915SOL     OW30349   6.966   5.142   9.352 -0.1156  0.4471  0.3021
 7915SOL    HW130350   6.931   5.168   9.438  1.1519  1.9102  0.4373
 7915SOL    HW230351   6.961   5.047   9.351  1.7980  0.2128  2.9250
 7916SOL     OW30352   4.111  12.041   6.177 -0.0483  0.4289  0.0578
 7916SOL    HW130353   4.079  11.997   6.098  0.9030 -0.4025  0.1150
 7916SOL    HW230354   4.037  12.038   6.238 -1.1665  2.0227 -1.1315
 7917SOL     OW30355   5.025  10.347   9.763 -0.0844 -0.5076  0.7641
 7917SOL    HW130356   5.074  10.285   9.817  0.7921 -0.4138  0.0986
 7917SOL    HW230357   4.996  10.295   9.687  0.2669 -0.2198  0.4256
 7918SOL     OW30358   8.258   4.912   0.445 -0.3396  0.0969  0.0093
 7918SOL    HW130359   8.267   4.999   0.486 -2.2647  1.0556 -1.4134
 7918SOL    HW230360   8.270   4.851   0.517  1.1540  1.5301  1.0534
 7919SOL     OW30361   1.086  12.354   0.277  0.0595  0.0029  0.1907
 7919SOL    HW130362   1.159  12.416   0.271  0.4779 -0.2503  2.0476
 7919SOL    HW230363   1.121  12.272   0.243 -0.2685  0.5511 -1.5758
 7920SOL     OW30364   8.732  10.682   9.176 -0.4668  0.2727  0.6327
 7920SOL    HW130365   8.798  10.677   9.107  0.6751 -0.2381  1.7255
 7920SOL    HW230366   8.782  10.700   9.255 -1.8147  1.5015  1.2444
 7921SOL     OW30367   1.375   6.466   8.622  0.4832 -0.1058 -0.0182
 7921SOL    HW130368   1.375   6.457   8.717 -1.3772 -1.1052 -0.0669
 7921SOL    HW230369   1.317   6.541   8.605 -0.3645 -0.8332 -0.3968
 7922SOL     OW30370   2.757   4.281   0.972  0.2947 -0.1105 -0.0299
 7922SOL    HW130371   2.838   4.302   0.926  0.0095  3.3778  0.7854
 7922SOL    HW230372   2.783   4.223   1.043  2.4269  2.0710  1.1052
 7923SOL     OW30373   0.232   4.052   3.666  0.0771  0.1538 -0.0620
 7923SOL    HW130374   0.275   4.036   3.750 -0.7250  0.4863  0.4240
 7923SOL    HW230375   0.240   3.970   3.619 -2.3808 -1.1889  1.6555
 7924SOL     OW30376   6.631  10.829   1.452  0.1095  0.2711 -0.1171
 7924SOL    HW130377   6.690  10.761   1.486 -1.7225 -1.7276 -0.7275
 7924SOL    HW230378   6.664  10.847   1.363  0.3756 -0.1112 -0.0977
 7925SOL     OW30379   2.491  11.361   0.467  0.5949  0.5437 -0.5634
 7925SOL    HW130380   2.581  11.369   0.437  0.0859  1.3523 -1.9728
 7925SOL    HW230381   2.439  11.365   0.387 -0.6628 -0.7226  0.1539
 7926SOL     OW30382   3.846   6.031   3.716  0.3388  0.5917  0.5520
 7926SOL    HW130383   3.855   5.958   3.778  1.4090  0.3062  0.0846
 7926SOL    HW230384   3.902   6.099   3.752  2.1198 -0.0781 -0.7880
 7927SOL     OW30385   0.669   9.581  11.374 -0.5648  0.3932 -0.0021
 7927SOL    HW130386   0.748   9.550  11.330 -0.3794  0.0276  0.5809
 7927SOL    HW230387   0.663   9.674  11.350 -0.8268  0.0655 -1.3208
 7928SOL     OW30388   6.213   3.301   3.669  0.5206 -0.0443  0.2134
 7928SOL    HW130389   6.122   3.273   3.671  0.4009  0.3895  0.6907
 7928SOL    HW230390   6.220   3.356   3.591  1.1007 -2.5504 -1.6349
 7929SOL     OW30391   0.891   3.784   4.439 -0.4215  0.4078  1.1993
 7929SOL    HW130392   0.905   3.712   4.378  0.6953 -0.6879  2.7078
 7929SOL    HW230393   0.799   3.776   4.465 -0.5643  0.1345  0.6203
 7930SOL     OW30394   0.014   5.450   2.730  0.0809  0.2493 -0.3037
 7930SOL    HW130395  -0.071   5.469   2.691 -0.5355 -1.4675  0.0992
 7930SOL    HW230396   0.056   5.390   2.667  0.3474 -0.1256  0.2232
 7931SOL     OW30397   9.332   1.500   3.717  0.6069 -0.4307 -0.1853
 7931SOL    HW130398   9.282   1.547   3.651  2.0318  0.7000 -0.4999
 7931SOL    HW230399   9.355   1.567   3.782  3.3144 -0.4460 -1.0177
 7932SOL     OW30400  12.586   9.092   6.843 -0.1209 -0.0827 -0.2360
 7932SOL    HW130401  12.512   9.060   6.893 -1.0077  0.8982 -0.8850
 7932SOL    HW230402  12.566   9.184   6.825  0.6493 -0.1237 -1.4740
 7933SOL     OW30403   3.531   1.943   3.047  0.7202  0.5373 -0.2172
 7933SOL    HW130404   3.572   1.918   2.964  1.9537  2.2696 -0.1895
 7933SOL    HW230405   3.559   1.876   3.109 -1.2834 -1.5377 -1.3999
 7934SOL     OW30406   8.262   0.809   5.615  0.3108  0.1478 -0.2196
 7934SOL    HW130407   8.195   0.767   5.670  0.6095  1.7622  1.4732
 7934SOL    HW230408   8.233   0.899   5.607  1.8097  0.6570 -0.2120
 7935SOL     OW30409   7.325  10.427  11.773 -0.3797  0.3969 -0.2714
 7935SOL    HW130410   7.317  10.443  11.867 -0.5423  1.1595 -0.4089
 7935SOL    HW230411   7.419  10.411  11.759 -0.1386  1.6578 -0.1760
 7936SOL     OW30412  10.761   8.837   0.674  0.4585  0.3288  0.0415
 7936SOL    HW130413  10.831   8.794   0.723 -0.2022  0.1170  0.8213
 7936SOL    HW230414  10.709   8.882   0.741 -1.4273 -1.3067 -0.2304
 7937SOL     OW30415   6.885   0.745   5.973  0.1171  0.0992 -0.0889
 7937SOL    HW130416   6.869   0.747   6.067  0.5570  0.2558 -0.0139
 7937SOL    HW230417   6.801   0.721   5.934 -0.0507 -0.0213  0.3475
 7938SOL     OW30418   7.232  12.254   0.367  0.3784 -0.2453 -0.2515
 7938SOL    HW130419   7.290  12.306   0.312  0.1036 -0.5061 -0.7936
 7938SOL    HW230420   7.146  12.262   0.326  0.2959 -0.9750 -0.2421
 7939SOL     OW30421   4.284   2.455   3.028 -0.5816  0.3162 -0.1629
 7939SOL    HW130422   4.373   2.420   3.024 -1.0450 -1.0168  0.5984
 7939SOL    HW230423   4.241   2.422   2.948 -0.2380  1.4988 -0.8686
 7940SOL     OW30424   8.040   3.275   9.231  0.0201  0.2547  0.3384
 7940SOL    HW130425   8.097   3.311   9.299  0.5531 -0.3049  0.2034
 7940SOL    HW230426   8.080   3.302   9.149 -0.5800  0.8628  0.2370
 7941SOL     OW30427   0.671   7.547   8.210  0.1610 -0.1371  0.5495
 7941SOL    HW130428   0.600   7.610   8.224 -1.2944 -1.3105 -1.0360
 7941SOL    HW230429   0.659   7.482   8.279 -0.3595 -0.3488  0.2704
 7942SOL     OW30430   7.023   2.633   7.307 -0.3597 -0.2744 -0.1807
 7942SOL    HW130431   7.118   2.645   7.297 -0.3523  0.6509  0.8503
 7942SOL    HW230432   6.997   2.588   7.227  0.9841 -0.7473 -0.3902
 7943SOL     OW30433  12.054   8.792  10.039 -0.3948  0.3233  0.0668
 7943SOL    HW130434  12.006   8.829  10.113  0.2716 -0.9994  1.2193
 7943SOL    HW230435  12.128   8.746  10.079  1.5220  1.7676 -1.5950
 7944SOL     OW30436   8.289   6.690   0.237 -0.4543  0.0326  0.0993
 7944SOL    HW130437   8.326   6.700   0.149 -1.5870  0.4796 -0.3529
 7944SOL    HW230438   8.336   6.616   0.275 -1.4744 -1.6523 -1.7239
 7945SOL     OW30439  12.641   7.691   5.976 -0.1798  0.7264  0.1711
 7945SOL    HW130440  12.725   7.659   6.008 -0.1858  1.5549  1.0647
 7945SOL    HW230441  12.577   7.631   6.014  0.0589 -0.9816 -1.9107
 7946SOL     OW30442   0.652   1.237   9.926 -0.2340 -0.3060  0.5760
 7946SOL    HW130443   0.578   1.221   9.868 -1.3902  0.5880  1.7407
 7946SOL    HW230444   0.667   1.153   9.969 -0.5313 -0.5117  0.2854
 7947SOL     OW30445   7.371   1.475   4.204  0.3564 -0.0093  0.1232
 7947SOL    HW130446   7.410   1.497   4.288 -0.4884  0.6634  0.3566
 7947SOL    HW230447   7.433   1.506   4.139  0.0836  1.3542  0.4834
 7948SOL     OW30448  11.828   3.310  10.762  0.0191  0.0956  0.1253
 7948SOL    HW130449  11.759   3.350  10.815 -0.8531 -1.9650  0.6120
 7948SOL    HW230450  11.782   3.260  10.695  0.9911 -1.3337  0.4747
 7949SOL     OW30451   6.594   0.589   3.036  0.2574  0.2251 -0.4604
 7949SOL    HW130452   6.544   0.589   3.118 -0.3200  0.2888 -0.8059
 7949SOL    HW230453   6.685   0.579   3.063 -0.0907 -1.7351  0.0958
 7950SOL     OW30454   4.494   3.807   2.211  0.0902  0.5036  0.2293
 7950SOL    HW130455   4.566   3.769   2.161 -0.1606 -0.9411  0.9172
 7950SOL    HW230456   4.496   3.762   2.295 -0.4516  1.7970  0.9613
 7951SOL     OW30457   1.801   1.456   8.494  0.1780  0.2409  0.6859
 7951SOL    HW130458   1.726   1.513   8.510 -0.7539 -0.8152  0.1746
 7951SOL    HW230459   1.811   1.454   8.399  0.9850  0.5290  0.7560
 7952SOL     OW30460   0.355   4.833   1.569 -0.3368  0.4664  0.5362
 7952SOL    HW130461   0.310   4.789   1.641 -0.2020  0.3307  0.5396
 7952SOL    HW230462   0.439   4.787   1.561 -0.5714  0.1337 -0.0603
 7953SOL     OW30463  10.529   0.684   2.197 -0.1882  0.1836 -0.3522
 7953SOL    HW130464  10.559   0.761   2.245 -3.0757  1.6177 -0.6761
 7953SOL    HW230465  10.542   0.611   2.258  0.4368  1.2623  0.8465
 7954SOL     OW30466   1.193   1.393   9.329  0.1471 -0.6050 -0.1265
 7954SOL    HW130467   1.143   1.375   9.409 -1.3540  1.1792 -0.6043
 7954SOL    HW230468   1.129   1.386   9.258  1.3624 -1.7666 -1.1767
 7955SOL     OW30469   9.523   7.087   3.671  0.3308 -0.0525 -0.5364
 7955SOL    HW130470   9.548   7.176   3.648 -0.6650  0.6988  1.1462
 7955SOL    HW230471   9.428   7.092   3.686 -0.1815 -1.8877 -2.5992
 7956SOL     OW30472   3.781   9.069   7.128 -0.0182 -0.6515  0.3055
 7956SOL    HW130473   3.834   9.074   7.208 -1.1540 -0.3622  1.0611
 7956SOL    HW230474   3.842   9.094   7.058  1.8500 -3.7683  0.6131
 7957SOL     OW30475   4.546   5.468  10.936 -0.1487 -0.9058  0.1104
 7957SOL    HW130476   4.475   5.406  10.947 -1.8690  0.6846 -1.2907
 7957SOL    HW230477   4.548   5.486  10.842 -0.0033  1.4176  0.4871
 7958SOL     OW30478   4.460   9.094  10.428  0.5808  0.1480 -0.2407
 7958SOL    HW130479   4.468   9.004  10.396 -1.2860 -0.0061 -0.3970
 7958SOL    HW230480   4.513   9.097  10.507  0.1152 -1.2871  0.1371
 7959SOL     OW30481  10.436   5.732   1.856 -0.1900 -0.5215 -0.0587
 7959SOL    HW130482  10.487   5.671   1.910  3.7509  1.7878 -0.7559
 7959SOL    HW230483  10.500   5.767   1.794 -3.0084  1.8529 -1.8341
 7960SOL     OW30484   8.368   9.891   3.250 -0.2938  0.3064  0.2691
 7960SOL    HW130485   8.443   9.853   3.203  0.0055  1.1932 -0.0056
 7960SOL    HW230486   8.407   9.938   3.323 -0.3756  2.2791 -0.8721
 7961SOL     OW30487   8.034   2.096   2.028 -0.1013  0.1478 -0.3718
 7961SOL    HW130488   7.979   2.148   1.970 -0.5211  0.1404  0.0080
 7961SOL    HW230489   8.122   2.130   2.014 -0.2266  0.2812 -0.8623
 7962SOL     OW30490  10.752   2.068   7.011 -0.2546  0.0381 -0.2149
 7962SOL    HW130491  10.724   2.034   7.095 -0.4712 -1.7349 -0.9621
 7962SOL    HW230492  10.843   2.096   7.026 -0.1745 -0.5804  0.5237
 7963SOL     OW30493   4.166   6.938   5.393  0.0115  0.0876 -0.0450
 7963SOL    HW130494   4.222   6.984   5.331  1.3590 -0.7760  0.4939
 7963SOL    HW230495   4.094   6.998   5.409 -1.0228 -0.0957 -3.2963
 7964SOL     OW30496  10.241  12.110  11.009  0.4768  0.1115  0.3627
 7964SOL    HW130497  10.156  12.068  11.026  0.2470  0.6664  0.6212
 7964SOL    HW230498  10.280  12.120  11.096  0.7959 -0.1195  0.2461
 7965SOL     OW30499   4.445   8.928   8.654  0.4877  0.2418 -0.0911
 7965SOL    HW130500   4.413   8.868   8.587 -1.5075  1.4044 -0.2630
 7965SOL    HW230501   4.420   9.015   8.622 -0.6935  0.8176  2.1888
 7966SOL     OW30502  10.776   5.890   9.439  0.6193 -0.9734  0.2554
 7966SOL    HW130503  10.767   5.892   9.344 -0.8453 -1.9871  0.3476
 7966SOL    HW230504  10.819   5.973   9.460  1.3660 -0.9187 -1.3100
 7967SOL     OW30505   7.013  12.051   4.324 -0.6947 -0.0164 -0.5616
 7967SOL    HW130506   7.056  12.048   4.239  0.1092 -2.8032 -0.1736
 7967SOL    HW230507   6.969  12.136   4.327  1.1858  1.1253 -2.7645
 7968SOL     OW30508   7.361   4.426   3.247  0.2272  0.3690  0.0264
 7968SOL    HW130509   7.456   4.415   3.254  0.2620  1.5904  3.5438
 7968SOL    HW230510   7.325   4.348   3.290 -0.3366  0.6074 -0.0087
 7969SOL     OW30511   1.505   7.469   9.622 -0.0925 -0.0105  0.1154
 7969SOL    HW130512   1.463   7.546   9.660 -0.9080 -0.5250  0.2634
 7969SOL    HW230513   1.591   7.501   9.593  0.2317  0.5868  1.6349
 7970SOL     OW30514   4.130   9.745   1.809 -0.1801  0.7668 -0.0554
 7970SOL    HW130515   4.083   9.805   1.867  1.7771  0.9036  1.5210
 7970SOL    HW230516   4.093   9.659   1.827  0.9081  0.6751  2.1108
 7971SOL     OW30517   2.155  10.780   2.056  0.5015 -0.2106 -0.2963
 7971SOL    HW130518   2.249  10.771   2.071  0.4333 -0.4225  0.0116
 7971SOL    HW230519   2.138  10.724   1.980  0.9033  1.1166 -1.4190
 7972SOL     OW30520   2.323   2.433   7.737  0.4276 -0.6893  0.2948
 7972SOL    HW130521   2.263   2.367   7.772 -0.9004  0.1101 -0.3632
 7972SOL    HW230522   2.279   2.516   7.757  3.2099  0.2653  3.4210
 7973SOL     OW30523   1.749   1.632   9.029  0.2743 -0.0214 -0.3866
 7973SOL    HW130524   1.825   1.597   8.982  0.6903 -1.2270  1.1089
 7973SOL    HW230525   1.787   1.695   9.091 -0.2005  1.0338 -1.1301
 7974SOL     OW30526   4.443   2.402   5.396 -0.3141 -0.3255  0.1803
 7974SOL    HW130527   4.452   2.481   5.449 -1.9314 -0.4120  0.6347
 7974SOL    HW230528   4.351   2.378   5.404 -0.3413 -1.0441 -1.6991
 7975SOL     OW30529   9.106   0.449   6.322 -0.2509 -0.2685  0.2892
 7975SOL    HW130530   9.021   0.404   6.322 -0.0128 -0.7538 -0.7795
 7975SOL    HW230531   9.117   0.479   6.232  0.6277 -0.0522  0.4646
 7976SOL     OW30532   6.235   8.200  12.359 -0.1789  0.1993 -0.8224
 7976SOL    HW130533   6.238   8.131  12.425  0.9038  1.7658  0.8992
 7976SOL    HW230534   6.326   8.231  12.353 -0.7407  1.9147 -1.0012
 7977SOL     OW30535   8.866   6.545  11.890 -1.1808  0.0793 -0.3825
 7977SOL    HW130536   8.794   6.482  11.890 -2.7975  1.8415 -2.1432
 7977SOL    HW230537   8.902   6.542  11.802 -0.4139  0.6930 -0.1095
 7978SOL     OW30538   8.355   6.820   0.880 -0.3303 -0.3517 -0.2698
 7978SOL    HW130539   8.394   6.744   0.836 -0.4700 -0.3678 -0.3648
 7978SOL    HW230540   8.261   6.808   0.871 -0.3423  0.6151 -1.6268
 7979SOL     OW30541   8.542   0.076   8.425  0.6798  0.3331 -0.3009
 7979SOL    HW130542   8.470   0.029   8.468  0.1776  1.3509  0.0138
 7979SOL    HW230543   8.621   0.031   8.454  0.1602 -1.1474 -1.0816
 7980SOL     OW30544   6.920   0.128  11.563 -0.1873  0.3802 -0.1905
 7980SOL    HW130545   6.901   0.216  11.594 -0.5636  0.1154  0.3553
 7980SOL    HW230546   6.848   0.108  11.503 -1.5692 -0.5067  1.6455
 7981SOL     OW30547   4.743   5.407   4.716 -0.5086  0.1855  0.3716
 7981SOL    HW130548   4.673   5.452   4.668 -0.3132  2.4394  2.0474
 7981SOL    HW230549   4.823   5.450   4.687 -0.1791  0.0264  1.0383
 7982SOL     OW30550   2.273   1.465   3.620  0.5249 -0.3032 -0.1088
 7982SOL    HW130551   2.225   1.546   3.603 -0.6072 -1.2501 -1.8091
 7982SOL    HW230552   2.357   1.494   3.654  0.6460  1.6854 -1.8421
 7983SOL     OW30553   1.577   8.189   9.348 -0.2164  0.3918  0.0816
 7983SOL    HW130554   1.609   8.200   9.438 -0.4181  2.0406 -0.0200
 7983SOL    HW230555   1.631   8.249   9.296 -0.5925 -0.0117 -0.7951
 7984SOL     OW30556   9.325  11.839  11.020  0.0659 -0.0643 -0.0770
 7984SOL    HW130557   9.330  11.828  10.925 -0.2161 -0.3234 -0.0637
 7984SOL    HW230558   9.399  11.895  11.042 -0.6523  1.1293 -0.6233
 7985SOL     OW30559   4.713  10.265   6.084 -0.4077  0.7542 -0.1074
 7985SOL    HW130560   4.746  10.331   6.023  0.7322 -0.4839 -0.9000
 7985SOL    HW230561   4.772  10.271   6.159 -0.3848  0.7418 -0.1244
 7986SOL     OW30562   6.806   7.917   8.853 -0.0379  0.0089  0.3086
 7986SOL    HW130563   6.817   8.003   8.812 -0.4369 -1.5639 -3.4649
 7986SOL    HW230564   6.890   7.874   8.839 -0.8131 -1.2430 -0.6296
 7987SOL     OW30565   1.049  10.233   4.207  0.5344  0.2908  0.6851
 7987SOL    HW130566   1.084  10.165   4.150  0.9276 -0.7330  2.0968
 7987SOL    HW230567   1.126  10.279   4.240  0.4088 -0.1320  1.5906
 7988SOL     OW30568  11.146   1.214  10.680  0.1923 -0.3427 -0.2367
 7988SOL    HW130569  11.239   1.190  10.677  0.4428  0.6105 -0.8339
 7988SOL    HW230570  11.118   1.193  10.769  1.3307  0.5546  0.3678
 7989SOL     OW30571   9.523  10.634   9.475 -0.5077 -0.1460 -0.1410
 7989SOL    HW130572   9.552  10.542   9.472 -2.0439 -0.6835  0.7114
 7989SOL    HW230573   9.570  10.671   9.550 -0.7568 -0.5528  0.2182
 7990SOL     OW30574   4.579   7.831   0.555  0.6544  0.6668  0.0904
 7990SOL    HW130575   4.596   7.902   0.493 -1.4995  1.5652  0.4358
 7990SOL    HW230576   4.552   7.757   0.499 -0.0074  1.0628 -0.1209
 7991SOL     OW30577   1.436   6.391  12.321 -0.3553  0.3059  0.0563
 7991SOL    HW130578   1.418   6.302  12.354 -0.9121  0.3045 -0.2445
 7991SOL    HW230579   1.448   6.380  12.227  0.1930  0.4658  0.1029
 7992SOL     OW30580   3.174   3.286   3.122 -0.0442  0.0119  0.7923
 7992SOL    HW130581   3.176   3.370   3.167 -2.3874  2.1736 -2.6921
 7992SOL    HW230582   3.160   3.222   3.192 -0.8533  2.7613  3.3641
 7993SOL     OW30583   1.996   9.298   6.504 -0.0557  0.0247  0.1980
 7993SOL    HW130584   2.061   9.299   6.433 -1.2958 -0.7156 -1.0212
 7993SOL    HW230585   1.936   9.227   6.480 -0.4246 -0.3656  2.1102
 7994SOL     OW30586   3.353   6.883   7.831 -0.3452  0.0300  0.5390
 7994SOL    HW130587   3.410   6.858   7.904  1.6827 -1.0246 -1.2904
 7994SOL    HW230588   3.289   6.811   7.824  0.4521 -0.6731  0.3151
 7995SOL     OW30589   6.873   4.796   9.084 -0.2665 -0.1887 -0.0491
 7995SOL    HW130590   6.960   4.830   9.104  0.2986 -1.0785 -0.9531
 7995SOL    HW230591   6.832   4.866   9.033  0.2266 -0.1117 -0.3468
 7996SOL     OW30592   9.971   9.972   6.035 -0.2674 -0.3592  0.3393
 7996SOL    HW130593   9.914   9.901   6.004  0.4973 -1.0752  0.5504
 7996SOL    HW230594   9.918  10.017   6.100 -1.5903  0.6416 -1.3288
 7997SOL     OW30595   6.982  11.868   9.429  0.5289  0.0026 -0.6164
 7997SOL    HW130596   6.929  11.920   9.490  0.4326 -1.2704  0.4219
 7997SOL    HW230597   7.056  11.839   9.480  0.2271 -1.4566 -0.9655
 7998SOL     OW30598  11.899  10.913   5.204 -0.2168  0.0820 -0.3833
 7998SOL    HW130599  11.820  10.866   5.178 -0.6652  1.2506 -1.1867
 7998SOL    HW230600  11.939  10.857   5.270 -0.3803 -1.7357 -1.7614
 7999SOL     OW30601   6.907   1.934   5.024  0.3019 -0.0536  0.4017
 7999SOL    HW130602   6.977   1.888   4.978 -0.7127 -0.2214 -1.0541
 7999SOL    HW230603   6.875   1.999   4.962 -1.6681 -0.8321  0.5105
 8000SOL     OW30604   0.986  10.697   7.050 -0.3865 -0.0874 -0.0424
 8000SOL    HW130605   1.063  10.729   7.004 -0.2658 -0.9570 -0.4500
 8000SOL    HW230606   1.016  10.682   7.140 -0.5952  1.4950  0.3278
 8001SOL     OW30607   9.415   6.387   3.829 -0.0760 -0.4832  0.9038
 8001SOL    HW130608   9.492   6.356   3.781 -1.3273 -0.6464 -1.1450
 8001SOL    HW230609   9.434   6.479   3.846  0.3773 -0.3939 -0.0073
 8002SOL     OW30610   3.592   9.935   0.511 -0.3197 -0.3653  0.0521
 8002SOL    HW130611   3.644  10.014   0.495 -0.8578 -0.2483 -1.2471
 8002SOL    HW230612   3.518   9.966   0.563 -0.6680  0.0606 -0.6760
 8003SOL     OW30613   5.163   7.503  11.387  0.1016  0.1384 -0.2979
 8003SOL    HW130614   5.106   7.525  11.461  0.3747  0.1801 -0.0975
 8003SOL    HW230615   5.104   7.474  11.318 -0.0684 -1.8030  0.5812
 8004SOL     OW30616   4.894   5.602   0.101 -0.0284  0.2137  0.1009
 8004SOL    HW130617   4.928   5.684   0.066 -1.0835  0.3891 -0.5525
 8004SOL    HW230618   4.847   5.561   0.028 -1.1077 -0.0712  0.9147
 8005SOL     OW30619   3.474   7.769   1.910 -0.2110 -0.1937  0.3025
 8005SOL    HW130620   3.491   7.697   1.849  0.7421  0.9637 -0.8650
 8005SOL    HW230621   3.435   7.727   1.987 -1.2663 -1.7345 -1.0004
 8006SOL     OW30622  10.653   9.416   2.562  0.0548  0.4323 -0.0457
 8006SOL    HW130623  10.581   9.432   2.501 -0.7123  0.3353  0.8123
 8006SOL    HW230624  10.732   9.442   2.514 -0.4563 -0.2599 -1.3005
 8007SOL     OW30625   6.414   6.828   5.481  0.4037  0.0829 -0.0838
 8007SOL    HW130626   6.458   6.787   5.406  1.8939  1.0669  0.2110
 8007SOL    HW230627   6.372   6.755   5.527  2.4439 -1.0779  0.0706
 8008SOL     OW30628  10.194   8.699  10.234  0.0426 -0.1871 -0.0350
 8008SOL    HW130629  10.138   8.678  10.308  0.2347 -0.2626  0.0908
 8008SOL    HW230630  10.277   8.654  10.254  0.7031  1.2560  0.5867
 8009SOL     OW30631   1.211   2.355   6.121  0.1734 -0.3058 -0.4815
 8009SOL    HW130632   1.247   2.303   6.193  1.0707 -0.5220 -1.0655
 8009SOL    HW230633   1.125   2.384   6.152  0.9768  0.5064  1.0958
 8010SOL     OW30634   9.528   2.081   9.634 -0.1446 -0.2118  0.0298
 8010SOL    HW130635   9.448   2.100   9.683 -1.3140  1.2061 -2.1981
 8010SOL    HW230636   9.498   2.025   9.562  0.8695  0.2875 -0.7942
 8011SOL     OW30637   9.776   2.518  10.320 -0.2104  0.4332  0.1771
 8011SOL    HW130638   9.798   2.580  10.250  0.7819 -0.0847  0.0221
 8011SOL    HW230639   9.710   2.564  10.372 -0.8325  0.8941 -0.9922
 8012SOL     OW30640   7.364  11.973   1.801 -0.4036 -0.0111 -0.6641
 8012SOL    HW130641   7.312  11.909   1.752 -0.2722 -1.2854  0.7947
 8012SOL    HW230642   7.455  11.950   1.781 -0.3581 -0.0839 -0.3686
 8013SOL     OW30643  10.369  11.256   7.430  0.5922 -0.1668 -0.0845
 8013SOL    HW130644  10.336  11.312   7.359 -0.9348  0.0339  0.7262
 8013SOL    HW230645  10.419  11.315   7.486  0.1410  0.1154  0.0339
 8014SOL     OW30646   9.211   7.209   2.509  0.0063 -0.9468 -0.8623
 8014SOL    HW130647   9.301   7.179   2.495  0.4716  0.6333 -1.4971
 8014SOL    HW230648   9.166   7.188   2.427  0.3806  0.1615 -1.3798
 8015SOL     OW30649   4.638   6.739   1.829 -0.0158 -0.2701 -0.1463
 8015SOL    HW130650   4.633   6.650   1.864 -1.0836  0.2356  1.0824
 8015SOL    HW230651   4.717   6.739   1.776  1.0193 -1.4536  1.2852
 8016SOL     OW30652   6.878   6.252  10.397 -0.2990 -0.2744 -0.1126
 8016SOL    HW130653   6.787   6.248  10.426 -0.1486  0.6992  0.5268
 8016SOL    HW230654   6.915   6.168  10.424 -0.6684 -0.1485  0.8336
 8017SOL     OW30655   6.688   0.083   3.065  0.4675 -0.7166  0.2211
 8017SOL    HW130656   6.743   0.144   3.114 -1.3201 -0.2976  1.8101
 8017SOL    HW230657   6.600   0.097   3.099 -1.1151  0.2026 -3.7400
 8018SOL     OW30658   9.483   9.245   9.562  0.4165  0.2466  0.2892
 8018SOL    HW130659   9.442   9.173   9.515 -0.4427  0.2813  0.9482
 8018SOL    HW230660   9.522   9.300   9.494  0.4365 -0.4482 -0.2667
 8019SOL     OW30661   8.435  12.686  12.525 -0.1125  0.0467  0.4020
 8019SOL    HW130662   8.392  12.768  12.503  1.9436  1.6940  2.0850
 8019SOL    HW230663   8.437  12.637  12.443 -1.2046  1.7473 -0.7065
 8020SOL     OW30664   4.044   4.310   3.970  0.0035 -0.1718  0.4805
 8020SOL    HW130665   4.055   4.404   3.985 -0.4174 -0.2824  1.5323
 8020SOL    HW230666   3.950   4.297   3.964  0.0962 -0.3512 -0.9992
 8021SOL     OW30667  10.695   0.870   2.996  0.1260  0.2863 -0.4778
 8021SOL    HW130668  10.638   0.892   3.070  1.5081  2.8493 -0.0692
 8021SOL    HW230669  10.781   0.854   3.035  0.2045 -1.5344 -1.2871
 8022SOL     OW30670   5.422  11.144   5.542  0.1013 -0.3996 -0.8114
 8022SOL    HW130671   5.371  11.132   5.622 -0.1311  1.0925 -0.6982
 8022SOL    HW230672   5.487  11.211   5.566  1.5849 -1.6595 -1.1944
 8023SOL     OW30673  12.036   0.499  10.546  0.1607 -1.3215 -0.0974
 8023SOL    HW130674  12.076   0.486  10.632  0.6809 -2.3090 -0.4736
 8023SOL    HW230675  12.072   0.429  10.492  2.7640  1.3530 -2.1681
 8024SOL     OW30676   7.312   1.957   7.252 -0.1506  0.0702 -0.6308
 8024SOL    HW130677   7.271   1.885   7.203  0.7012 -1.8483  1.3319
 8024SOL    HW230678   7.271   1.954   7.338  0.6524  1.2947 -0.1810
 8025SOL     OW30679   9.130  11.197  10.487 -0.2867  0.0878 -0.3541
 8025SOL    HW130680   9.200  11.235  10.435  0.0864 -0.2787 -0.1227
 8025SOL    HW230681   9.146  11.228  10.576  1.2751 -2.2562  0.2779
 8026SOL     OW30682  10.644   0.308   3.227  0.2060  0.1163 -0.4110
 8026SOL    HW130683  10.565   0.267   3.262 -0.5618  2.3215  0.6297
 8026SOL    HW230684  10.613   0.360   3.152  0.5779  1.2209  0.1786
 8027SOL     OW30685   5.120   8.543   3.294 -1.3574 -0.6270  0.3923
 8027SOL    HW130686   5.199   8.491   3.309 -1.1425 -0.3573  0.2089
 8027SOL    HW230687   5.143   8.631   3.324 -1.2955 -0.3461 -0.4568
 8028SOL     OW30688   7.059  12.515   5.191 -0.4127 -0.2781 -0.9683
 8028SOL    HW130689   6.964  12.507   5.195 -0.2938 -1.9788 -0.7075
 8028SOL    HW230690   7.075  12.577   5.120 -1.7427  2.1196  0.6968
 8029SOL     OW30691   8.536   9.690   2.452 -0.4084  1.0649 -0.3275
 8029SOL    HW130692   8.583   9.607   2.443 -0.2181  1.2169 -0.8018
 8029SOL    HW230693   8.488   9.683   2.534 -1.8330 -0.2450 -1.2201
 8030SOL     OW30694  10.381   9.229   4.067  0.2942 -0.0918 -0.7514
 8030SOL    HW130695  10.312   9.227   4.132  1.1797 -1.0589  0.2065
 8030SOL    HW230696  10.391   9.138   4.039  1.0273  0.0670 -1.0393
 8031SOL     OW30697   9.850   8.432   0.258  0.2076 -0.1021 -0.3851
 8031SOL    HW130698   9.818   8.393   0.177  0.5766 -2.4274  0.5148
 8031SOL    HW230699   9.929   8.480   0.232  0.5128 -1.1072 -1.3771
 8032SOL     OW30700   8.366   2.252   4.765 -0.5466 -0.5975 -0.1116
 8032SOL    HW130701   8.283   2.264   4.810  0.9163  0.8150  2.4032
 8032SOL    HW230702   8.420   2.327   4.792  2.1100 -2.3037 -0.2784
 8033SOL     OW30703  11.560   5.453   0.851  0.6548 -0.2632  0.1931
 8033SOL    HW130704  11.493   5.469   0.784  0.5524 -3.4227 -0.6066
 8033SOL    HW230705  11.632   5.513   0.827 -0.7564  1.2068 -0.5724
 8034SOL     OW30706   3.950  10.320   0.562 -0.3910  0.6702 -0.3325
 8034SOL    HW130707   3.952  10.360   0.476  0.5571  0.2624 -0.5205
 8034SOL    HW230708   4.033  10.347   0.603  0.5632 -1.4748 -0.6773
 8035SOL     OW30709   1.291  11.319   6.077  0.2324 -0.3498  0.0061
 8035SOL    HW130710   1.355  11.270   6.026  1.2802  1.1911 -0.2125
 8035SOL    HW230711   1.217  11.332   6.018  0.3941 -0.7193 -0.2816
 8036SOL     OW30712   3.780   2.294   6.867 -0.3265 -0.5380 -0.0791
 8036SOL    HW130713   3.716   2.232   6.833 -0.1255 -0.2432 -1.0291
 8036SOL    HW230714   3.729   2.371   6.891 -0.5391 -0.9475  0.8292
 8037SOL     OW30715   7.966  10.798  11.762 -0.5603 -0.1332  0.0563
 8037SOL    HW130716   8.034  10.855  11.727 -2.1683  1.3818 -0.7298
 8037SOL    HW230717   7.946  10.738  11.690 -1.7387  1.0165 -0.6064
 8038SOL     OW30718   4.217   9.614  11.479 -0.5797 -0.5327  0.2782
 8038SOL    HW130719   4.200   9.550  11.411  0.0376 -0.5986  0.1766
 8038SOL    HW230720   4.133   9.659  11.492 -0.6357 -0.3404 -0.7085
 8039SOL     OW30721   6.449  10.189   3.147 -0.4075  0.1300  0.2100
 8039SOL    HW130722   6.404  10.121   3.097  0.2104 -0.5410  0.5568
 8039SOL    HW230723   6.456  10.154   3.235  1.9170 -0.3525 -0.1018
 8040SOL     OW30724   5.118  11.780   8.739  0.0146 -0.1765  0.0118
 8040SOL    HW130725   5.071  11.733   8.670 -0.8324 -0.6571  0.8871
 8040SOL    HW230726   5.177  11.839   8.692  0.5289 -1.5297 -1.1217
 8041SOL     OW30727   4.597   2.148  10.724 -0.5557 -0.1609 -0.3072
 8041SOL    HW130728   4.635   2.062  10.704 -0.3634 -0.3928  0.9738
 8041SOL    HW230729   4.521   2.154  10.666 -1.5552 -1.9130  0.7341
 8042SOL     OW30730   1.202   4.761  12.366  0.0721  0.0741  0.3067
 8042SOL    HW130731   1.285   4.806  12.348 -0.0554  0.3941  0.5143
 8042SOL    HW230732   1.166   4.741  12.279  0.4565 -0.2320  0.2171
 8043SOL     OW30733   6.539   2.184   0.525  0.5970  0.0697  0.6307
 8043SOL    HW130734   6.522   2.159   0.434  2.2349 -0.0400  0.3291
 8043SOL    HW230735   6.452   2.195   0.564 -0.2133 -2.8433 -0.1274
 8044SOL     OW30736   9.253   8.072   3.774  0.4898  0.1980 -0.0467
 8044SOL    HW130737   9.186   8.075   3.843  0.0144 -0.0313 -0.4915
 8044SOL    HW230738   9.306   7.995   3.795  0.2707  0.0583  0.0014
 8045SOL     OW30739   1.446  11.731  11.769  0.1175  0.0459 -0.0248
 8045SOL    HW130740   1.518  11.752  11.709  0.2473  1.4313  0.5873
 8045SOL    HW230741   1.475  11.765  11.854 -0.0873 -1.8317  0.8447
 8046SOL     OW30742  10.660   9.221   3.154 -0.0215 -0.1684 -0.3746
 8046SOL    HW130743  10.591   9.287   3.147  0.0133 -0.0737  0.1157
 8046SOL    HW230744  10.722   9.258   3.217 -0.9208 -1.4544  1.3538
 8047SOL     OW30745   9.226   4.134   9.904 -0.2572  0.6829  0.0433
 8047SOL    HW130746   9.165   4.062   9.886 -2.0749  1.9804  0.7685
 8047SOL    HW230747   9.270   4.108   9.985 -1.1268  0.5041  0.4754
 8048SOL     OW30748   8.671   6.068   3.430  0.5907 -0.7760 -0.2306
 8048SOL    HW130749   8.694   6.011   3.357 -0.3517 -0.8810 -0.4558
 8048SOL    HW230750   8.641   6.007   3.498 -0.4139 -0.5685 -0.4702
 8049SOL     OW30751  10.496  10.577   6.158  0.6068  0.3278  0.1487
 8049SOL    HW130752  10.417  10.534   6.122 -0.0437 -1.0287  2.8923
 8049SOL    HW230753  10.564  10.510   6.152  0.6492  0.3049  0.8243
 8050SOL     OW30754   7.479  10.610   1.537 -0.4953 -0.4927 -0.0895
 8050SOL    HW130755   7.454  10.623   1.445  1.0562  1.7282 -0.2749
 8050SOL    HW230756   7.518  10.522   1.538  0.0905 -0.3008 -1.7334
 8051SOL     OW30757   2.249   2.382   1.106  0.0192  0.3816 -0.1710
 8051SOL    HW130758   2.247   2.287   1.099  0.2540  0.2675  1.1900
 8051SOL    HW230759   2.161   2.410   1.078  0.8863  0.0636 -3.7765
 8052SOL     OW30760  12.557  10.656   0.750  0.2756 -0.3532  0.8646
 8052SOL    HW130761  12.488  10.723   0.754  0.5108  0.0396 -1.0089
 8052SOL    HW230762  12.511  10.574   0.772 -0.6878 -0.0228  0.1575
 8053SOL     OW30763   1.927   8.102   3.587 -0.2609 -0.1226 -0.4597
 8053SOL    HW130764   2.006   8.098   3.533  1.0376 -2.1518  1.4121
 8053SOL    HW230765   1.868   8.037   3.548  0.8691 -1.9545  0.6983
 8054SOL     OW30766   5.916   3.766   2.938 -0.1106  0.0846 -0.6736
 8054SOL    HW130767   5.837   3.714   2.922  0.0832 -0.7580  0.8794
 8054SOL    HW230768   5.983   3.726   2.882 -0.4415 -0.0566 -0.9741
 8055SOL     OW30769  11.418   7.345   1.594  0.1126  0.3261  0.3493
 8055SOL    HW130770  11.437   7.349   1.500 -0.4190 -2.0535  0.0840
 8055SOL    HW230771  11.503   7.331   1.635  0.2317  0.4267  0.1391
 8056SOL     OW30772  10.092  10.838  11.229 -0.1911 -0.3645 -0.3452
 8056SOL    HW130773  10.166  10.777  11.228  0.6447  0.6107 -0.2531
 8056SOL    HW230774  10.105  10.891  11.308 -1.8929 -1.2033  0.5613
 8057SOL     OW30775   1.343   7.136  12.395 -0.0070 -0.1110  0.4417
 8057SOL    HW130776   1.384   7.203  12.340 -1.3928 -0.2362 -0.7993
 8057SOL    HW230777   1.272   7.182  12.439  0.7353 -0.1501  1.7428
 8058SOL     OW30778  11.324   9.726   2.797  0.1346  0.9665 -0.6604
 8058SOL    HW130779  11.233   9.731   2.767  0.0247  1.6411 -0.2218
 8058SOL    HW230780  11.359   9.814   2.784  0.5053  0.9024 -0.1367
 8059SOL     OW30781   2.698  10.867   5.429 -0.0126 -0.2695 -0.0538
 8059SOL    HW130782   2.656  10.855   5.344  0.4248 -2.9277  0.0048
 8059SOL    HW230783   2.767  10.800   5.431  1.0520  0.8064  1.7606
 8060SOL     OW30784   7.755   2.937   4.408 -0.1581  0.3257  0.8624
 8060SOL    HW130785   7.760   2.974   4.496 -0.2639  2.5603 -0.0157
 8060SOL    HW230786   7.665   2.951   4.381  0.5154  2.3232 -0.6233
 8061SOL     OW30787  12.556   3.261   6.655  0.6267  0.4594  0.0012
 8061SOL    HW130788  12.648   3.250   6.679  0.1442 -1.7182  1.1831
 8061SOL    HW230789  12.514   3.292   6.735  0.1486  0.1867 -0.1375
 8062SOL     OW30790   1.200   4.687   9.983 -0.2274 -0.1355  0.0986
 8062SOL    HW130791   1.180   4.729  10.067  1.8690  2.5971 -0.6357
 8062SOL    HW230792   1.120   4.697   9.931 -0.2337  1.8844  0.4122
 8063SOL     OW30793   3.648   2.430  11.657 -0.6657 -0.3345 -0.5870
 8063SOL    HW130794   3.563   2.462  11.689 -0.9935 -1.7718  0.0620
 8063SOL    HW230795   3.626   2.350  11.608  0.2845 -0.5589 -0.6604
 8064SOL     OW30796   2.892   3.025   2.650 -0.0792  0.1886  0.3192
 8064SOL    HW130797   2.986   3.018   2.660 -0.0869  0.5421  0.6663
 8064SOL    HW230798   2.879   3.093   2.584 -0.1053  0.7381  0.8867
 8065SOL     OW30799  11.296  11.840  11.893 -0.2999  0.2997 -0.2533
 8065SOL    HW130800  11.354  11.799  11.956  0.5004  0.7551 -0.6827
 8065SOL    HW230801  11.209  11.835  11.933 -0.1912 -1.5891 -0.1977
 8066SOL     OW30802   5.156   7.719   1.304 -0.7761 -0.0211  0.4207
 8066SOL    HW130803   5.115   7.645   1.348 -0.3279 -0.2326  0.4879
 8066SOL    HW230804   5.089   7.751   1.244 -0.2601 -1.8543 -1.2230
 8067SOL     OW30805  10.156   5.946   2.271 -0.0184 -0.0894 -0.0423
 8067SOL    HW130806  10.231   5.908   2.226 -1.1186 -1.5089 -0.7693
 8067SOL    HW230807  10.097   5.972   2.200  1.2512  4.5114  0.2985
 8068SOL     OW30808  11.146   4.106  10.729 -0.0976  0.4111 -0.0803
 8068SOL    HW130809  11.198   4.026  10.722  1.4358  1.4465 -1.0767
 8068SOL    HW230810  11.082   4.087  10.798  0.9804 -1.2622  0.5166
 8069SOL     OW30811   6.705   5.770  10.912  0.2017 -0.7274 -0.0381
 8069SOL    HW130812   6.619   5.808  10.929  0.1646 -1.1305  0.7255
 8069SOL    HW230813   6.723   5.716  10.989  1.9239  0.7336  0.6499
 8070SOL     OW30814   9.075   9.242   7.774 -0.2530 -0.2473 -0.3908
 8070SOL    HW130815   9.128   9.321   7.768 -0.0538 -0.0326  2.7147
 8070SOL    HW230816   9.095   9.206   7.860 -2.4160 -2.1631 -0.5987
 8071SOL     OW30817   9.408   8.684  10.326  0.2937 -0.5288  0.1308
 8071SOL    HW130818   9.442   8.710  10.411 -1.5321 -1.4877  1.2440
 8071SOL    HW230819   9.432   8.755  10.267 -0.8368  1.6021  2.0674
 8072SOL     OW30820   5.367   0.227   9.373  0.3095  0.2547  0.4179
 8072SOL    HW130821   5.434   0.185   9.318 -0.7306  0.2573 -0.9189
 8072SOL    HW230822   5.284   0.198   9.335 -0.4562  0.2423  2.0549
 8073SOL     OW30823   5.961   6.830   9.526 -0.0522 -0.1874 -0.8549
 8073SOL    HW130824   5.969   6.770   9.452  1.1149 -1.3890  0.2069
 8073SOL    HW230825   6.049   6.864   9.539 -0.3923  0.5565 -0.4368
 8074SOL     OW30826  10.768   1.839   1.542  0.0968  0.0935  0.2584
 8074SOL    HW130827  10.682   1.816   1.578 -1.1404  3.0816 -0.4857
 8074SOL    HW230828  10.827   1.837   1.618 -1.7597  2.9666  1.9653
 8075SOL     OW30829   5.884  12.416   3.122  0.5254  0.5448 -0.3504
 8075SOL    HW130830   5.907  12.491   3.177  1.3186  0.3521 -0.4156
 8075SOL    HW230831   5.788  12.420   3.116  0.5449  1.4496 -0.2132
 8076SOL     OW30832   2.784   9.461  11.336  0.1815  0.0584  0.0492
 8076SOL    HW130833   2.848   9.445  11.405  0.1566 -0.0329  0.0513
 8076SOL    HW230834   2.836   9.479  11.258  0.2093 -0.5366 -0.0698
 8077SOL     OW30835   9.124  11.549   0.473 -0.5266  0.7039  0.1190
 8077SOL    HW130836   9.182  11.624   0.479  0.6325  0.0202 -1.6514
 8077SOL    HW230837   9.043  11.577   0.516  0.7162  2.0441  1.7362
 8078SOL     OW30838   2.842   9.124   4.441  0.1195 -0.6037 -0.2545
 8078SOL    HW130839   2.936   9.143   4.444  0.2681 -1.0487 -1.4395
 8078SOL    HW230840   2.836   9.042   4.391 -0.9298 -0.3071 -0.6404
 8079SOL     OW30841   9.998   2.317   2.085 -0.0715  0.4118 -0.1349
 8079SOL    HW130842  10.038   2.380   2.024 -0.0329 -0.0934 -0.6466
 8079SOL    HW230843  10.064   2.248   2.093 -0.5698 -0.1110 -0.4695
 8080SOL     OW30844   1.686  10.900  10.823 -0.2988  0.0383 -0.0140
 8080SOL    HW130845   1.618  10.833  10.825 -0.6628  0.4100  0.2370
 8080SOL    HW230846   1.766  10.853  10.847 -0.6087 -0.2394  0.4990
 8081SOL     OW30847   4.426   6.999   8.269  0.3858  0.2574  0.2299
 8081SOL    HW130848   4.348   6.949   8.293 -0.3711  1.4650  0.3588
 8081SOL    HW230849   4.417   7.082   8.315  0.7826  1.1648 -1.2344
 8082SOL     OW30850   4.622  12.410  10.337  0.8912  0.1121 -0.0184
 8082SOL    HW130851   4.681  12.484  10.348  1.1199 -0.1317  0.4163
 8082SOL    HW230852   4.535  12.446  10.351  0.8135  0.7257 -1.7859
 8083SOL     OW30853  11.207  10.054   9.776 -0.1512  0.5745 -0.3047
 8083SOL    HW130854  11.243  10.045   9.864 -0.9687  0.9201  0.0779
 8083SOL    HW230855  11.244   9.981   9.727 -2.6171 -1.9823  1.3288
 8084SOL     OW30856  10.080   9.386   3.431 -0.1716  0.2166 -0.2083
 8084SOL    HW130857  10.150   9.329   3.398 -0.2640  1.2352 -2.3318
 8084SOL    HW230858  10.126   9.464   3.462 -0.1216 -0.5740  1.8307
 8085SOL     OW30859   4.643   5.088   9.749  0.2127  0.1529  0.0495
 8085SOL    HW130860   4.619   5.152   9.681  0.0960 -0.2221 -0.2678
 8085SOL    HW230861   4.673   5.141   9.822  0.6488  0.5527 -0.4151
 8086SOL     OW30862  10.590   2.426   7.479  0.0003 -0.2736  0.8238
 8086SOL    HW130863  10.630   2.453   7.561  0.9347  1.1198 -0.0369
 8086SOL    HW230864  10.663   2.399   7.424 -0.5497 -0.6777  0.2748
 8087SOL     OW30865   4.020   7.169   1.511 -0.2890 -0.3467 -0.0668
 8087SOL    HW130866   4.048   7.189   1.600  0.9231 -0.2869 -0.4400
 8087SOL    HW230867   4.101   7.148   1.465 -0.8056  0.3956 -1.3566
 8088SOL     OW30868   2.373   9.830   3.531  0.2001 -0.2657 -0.1170
 8088SOL    HW130869   2.351   9.849   3.440 -0.4205  0.8284  0.2416
 8088SOL    HW230870   2.316   9.757   3.555 -0.3952  0.1346 -0.2981
 8089SOL     OW30871   9.358   4.285  11.891  0.1946  0.0962 -0.2445
 8089SOL    HW130872   9.402   4.203  11.868  2.5824  1.1880  0.1785
 8089SOL    HW230873   9.366   4.339  11.812  0.4822  0.6669  0.1713
 8090SOL     OW30874   0.284   6.413   6.209 -0.0521 -0.0339 -0.3372
 8090SOL    HW130875   0.199   6.453   6.229  0.1493 -1.1769  3.3871
 8090SOL    HW230876   0.263   6.324   6.180 -0.1472 -0.1461  0.0765
 8091SOL     OW30877   5.864   3.492   9.140 -0.2936 -0.1967 -0.0664
 8091SOL    HW130878   5.873   3.565   9.201 -0.5223 -0.8135  0.7209
 8091SOL    HW230879   5.777   3.502   9.102 -1.1916 -1.1993  1.6004
 8092SOL     OW30880   5.161   6.810  10.817  0.2141  0.3730 -0.2687
 8092SOL    HW130881   5.165   6.816  10.912  2.1798  1.2487 -0.3415
 8092SOL    HW230882   5.090   6.749  10.799 -2.2356  2.4327  1.6472
 8093SOL     OW30883   1.340   8.760  10.986  0.2503 -0.4601 -0.4891
 8093SOL    HW130884   1.404   8.828  11.007  1.8375 -1.5768 -1.4255
 8093SOL    HW230885   1.373   8.721  10.905 -1.1845 -1.6390 -0.5470
 8094SOL     OW30886   2.809   4.879  12.126 -0.2344 -0.0273 -0.3930
 8094SOL    HW130887   2.809   4.934  12.204  0.0229 -0.9363  0.2709
 8094SOL    HW230888   2.749   4.807  12.148 -1.7644  0.7345 -1.8169
 8095SOL     OW30889  10.977   5.321   4.189  0.1794 -0.3077  0.0178
 8095SOL    HW130890  10.917   5.393   4.169 -1.7394 -1.7756  0.1939
 8095SOL    HW230891  11.012   5.342   4.275 -2.0028 -0.5671  1.0359
 8096SOL     OW30892  10.092   9.098   7.087  0.3185  0.5687  0.3286
 8096SOL    HW130893  10.076   9.148   7.006  1.0632  1.0496  0.4716
 8096SOL    HW230894  10.183   9.069   7.080  0.8561  1.8437  1.6469
 8097SOL     OW30895   8.543  10.693   8.791 -0.5533  0.1035  0.2325
 8097SOL    HW130896   8.537  10.598   8.783 -0.1930  0.0944  0.0067
 8097SOL    HW230897   8.530  10.725   8.701  2.5759  0.0722 -0.3487
 8098SOL     OW30898   3.909  12.490   0.166  0.5177  0.2172 -0.1049
 8098SOL    HW130899   3.934  12.553   0.098 -1.6789 -1.4239 -2.6395
 8098SOL    HW230900   3.989  12.441   0.184  1.1274  0.5702 -1.6572
 8099SOL     OW30901   3.539   9.604   3.055 -1.2108 -0.0007  0.2462
 8099SOL    HW130902   3.606   9.580   3.119 -0.7947 -1.3881 -0.6644
 8099SOL    HW230903   3.525   9.698   3.069  1.4511  0.5147  0.0050
 8100SOL     OW30904   2.254   9.996   2.019  0.0689 -0.4831 -0.1314
 8100SOL    HW130905   2.293   9.937   2.085 -1.4753 -1.4352 -0.0082
 8100SOL    HW230906   2.213  10.065   2.071  0.2098 -0.3626 -0.1806
 8101SOL     OW30907   0.296   8.521   9.379  0.0006 -0.4061 -0.0715
 8101SOL    HW130908   0.296   8.441   9.431 -2.1847 -0.7349 -0.4560
 8101SOL    HW230909   0.354   8.502   9.305  0.7713 -1.0231  0.6843
 8102SOL     OW30910   3.366  10.330   7.314 -0.3557 -0.0241  0.4824
 8102SOL    HW130911   3.430  10.278   7.361 -1.1039 -1.4134  0.0443
 8102SOL    HW230912   3.416  10.402   7.275  1.0358 -1.3141 -0.2347
 8103SOL     OW30913   5.315  10.167  12.016  0.6374  0.5569  0.2225
 8103SOL    HW130914   5.275  10.081  12.016  0.9377  0.4140  0.7869
 8103SOL    HW230915   5.250  10.224  12.057  0.4111  0.6199 -0.2111
 8104SOL     OW30916  12.098   6.913  12.126 -1.0390  0.1400  0.7175
 8104SOL    HW130917  12.180   6.946  12.090 -1.7885 -0.7278 -2.0764
 8104SOL    HW230918  12.123   6.837  12.178 -0.0132  0.1689  0.2958
 8105SOL     OW30919   1.000   2.218   3.614  0.7972 -0.1029 -0.3465
 8105SOL    HW130920   1.013   2.293   3.556 -0.1999 -0.1163 -0.6008
 8105SOL    HW230921   0.936   2.163   3.570 -0.5575  0.2552  1.0745
 8106SOL     OW30922  10.436  11.912   1.064  0.1901  0.6552  0.2011
 8106SOL    HW130923  10.412  11.918   1.156  0.8450  1.1899  0.3546
 8106SOL    HW230924  10.354  11.898   1.018 -0.2805  1.4504  0.7753
 8107SOL     OW30925  11.931   2.941   0.790  0.1335 -0.3973  0.4830
 8107SOL    HW130926  11.980   2.913   0.712  0.6340  0.5777  0.4391
 8107SOL    HW230927  11.983   2.910   0.864  0.3471 -0.1538  0.4340
 8108SOL     OW30928   2.861   2.961   9.832  0.5800  0.3486 -0.1529
 8108SOL    HW130929   2.783   2.959   9.888  0.0612 -0.1844 -0.8801
 8108SOL    HW230930   2.894   3.051   9.841  0.2905  0.3825  0.6968
 8109SOL     OW30931   7.522   8.167   9.468 -0.8272  0.1141  0.1099
 8109SOL    HW130932   7.555   8.077   9.467 -0.7627  0.1447 -0.7186
 8109SOL    HW230933   7.437   8.161   9.512 -0.6112 -0.2709  0.4882
 8110SOL     OW30934   2.915   4.121   8.509  0.1100  0.2419  0.1622
 8110SOL    HW130935   2.992   4.167   8.478 -0.8693  1.8370  0.0126
 8110SOL    HW230936   2.938   4.092   8.597  1.4271 -0.7099 -0.4647
 8111SOL     OW30937   3.160   3.843   6.092 -0.2985  0.9344 -0.5845
 8111SOL    HW130938   3.153   3.900   6.168  0.1662  1.8417 -1.2078
 8111SOL    HW230939   3.075   3.850   6.048 -1.4397 -1.3399  0.9939
 8112SOL     OW30940   2.236   7.766   6.215  0.2055 -0.3236 -0.0702
 8112SOL    HW130941   2.286   7.807   6.145  1.2171 -0.5871  0.4790
 8112SOL    HW230942   2.157   7.734   6.173 -0.0695  1.1582 -0.7275
 8113SOL     OW30943   8.520   9.715   0.515  0.1847 -0.1359 -0.2103
 8113SOL    HW130944   8.534   9.741   0.606 -0.1926 -2.0451  0.4219
 8113SOL    HW230945   8.493   9.624   0.519  2.1198 -0.9085 -2.3510
 8114SOL     OW30946   2.009   4.074   2.948 -0.2012 -0.2241 -0.1570
 8114SOL    HW130947   1.986   4.051   2.858  0.8978 -0.1283 -0.4800
 8114SOL    HW230948   2.011   4.170   2.949  0.6972 -0.2307 -0.2905
 8115SOL     OW30949  11.125  10.859   9.166 -0.3968  0.0710  0.6748
 8115SOL    HW130950  11.112  10.946   9.129  1.1005  0.4588  0.9686
 8115SOL    HW230951  11.220  10.847   9.165 -0.6377 -2.1067 -0.5592
 8116SOL     OW30952  12.434   0.910   6.454 -0.1026 -0.0726 -0.0649
 8116SOL    HW130953  12.490   0.833   6.457 -0.7757 -0.5440  0.6727
 8116SOL    HW230954  12.402   0.921   6.543 -1.8556 -0.3249 -0.6223
 8117SOL     OW30955  10.818   7.915   2.532  0.3011  0.3697 -0.2686
 8117SOL    HW130956  10.876   7.847   2.498 -0.1210 -1.2941  2.0778
 8117SOL    HW230957  10.773   7.949   2.454  1.4699 -1.1337 -1.6694
 8118SOL     OW30958   7.832   0.325   8.456 -0.2300  0.4311 -0.0610
 8118SOL    HW130959   7.757   0.302   8.402  0.1898  1.9841 -1.3721
 8118SOL    HW230960   7.831   0.261   8.527 -2.9682  0.5894  0.1528
 8119SOL     OW30961   6.263   0.901   8.516 -0.1584  0.5029 -0.2100
 8119SOL    HW130962   6.352   0.890   8.548 -0.6828 -0.0254  1.1309
 8119SOL    HW230963   6.222   0.961   8.579 -1.2167 -0.5740  0.1708
 8120SOL     OW30964   5.619   4.351   6.702  0.0504  0.5989 -0.4396
 8120SOL    HW130965   5.694   4.300   6.733 -0.0709  0.9861  0.5520
 8120SOL    HW230966   5.543   4.310   6.745 -0.0847  1.3654  0.0694
 8121SOL     OW30967   2.463   8.881   2.170  0.4632  0.2405 -0.1019
 8121SOL    HW130968   2.499   8.956   2.217 -0.3327  1.2209 -1.0113
 8121SOL    HW230969   2.370   8.901   2.160  0.1289 -1.1410  0.1319
 8122SOL     OW30970  12.433   4.775  11.986  0.2479  0.1931  0.1887
 8122SOL    HW130971  12.363   4.830  11.950  0.1175 -0.0112  0.1346
 8122SOL    HW230972  12.401   4.748  12.072 -0.5886 -1.5001 -0.6073
 8123SOL     OW30973   1.029   6.029   8.515  0.4745  0.7289  0.0881
 8123SOL    HW130974   0.993   5.982   8.590 -0.0204  1.3990  0.2854
 8123SOL    HW230975   1.093   6.088   8.553  0.1628  1.1301  0.0015
 8124SOL     OW30976   9.645  11.909   1.389 -0.1224 -0.1666 -0.1902
 8124SOL    HW130977   9.596  11.865   1.458 -0.2829  2.2041  1.3400
 8124SOL    HW230978   9.596  11.989   1.372  2.0717  1.3172 -0.0258
 8125SOL     OW30979   8.936   8.924   2.711  0.5114  0.4681 -0.5681
 8125SOL    HW130980   8.919   8.855   2.775  0.4484 -0.0007 -1.0829
 8125SOL    HW230981   8.904   9.004   2.753  1.4078  0.3387  0.4109
 8126SOL     OW30982   2.319   8.836   6.464  0.4573  0.6455 -0.0736
 8126SOL    HW130983   2.287   8.778   6.395 -2.3424  0.5055  1.2088
 8126SOL    HW230984   2.387   8.889   6.422 -0.3691 -0.1754 -2.6084
 8127SOL     OW30985   7.255   5.465   1.382  0.6625  0.2186  0.0448
 8127SOL    HW130986   7.185   5.471   1.317  0.9041 -1.3062 -0.3977
 8127SOL    HW230987   7.211   5.480   1.466 -0.1786 -0.5818 -0.2359
 8128SOL     OW30988   0.852   2.765   7.299 -0.1117 -0.2741  0.8089
 8128SOL    HW130989   0.904   2.756   7.219  0.0657 -0.0772  0.9020
 8128SOL    HW230990   0.762   2.754   7.270  0.0307 -1.5166  0.7756
 8129SOL     OW30991  10.657  11.995   4.199  0.3158  0.0711  0.3103
 8129SOL    HW130992  10.620  11.978   4.286  0.2776  0.3588  0.3537
 8129SOL    HW230993  10.689  12.086   4.205 -1.9181  0.9869 -0.7567
 8130SOL     OW30994   8.702   4.121  10.031 -0.2162  0.0333  0.5328
 8130SOL    HW130995   8.670   4.204   9.995  1.9562  1.1819  1.0033
 8130SOL    HW230996   8.751   4.081   9.960 -1.1485 -0.7898  0.3507
 8131SOL     OW30997   9.706  12.515   2.367 -0.0543  0.0941  0.1376
 8131SOL    HW130998   9.621  12.473   2.372  0.1986 -1.0142 -2.9152
 8131SOL    HW230999   9.769  12.443   2.371  0.6231  0.6499 -0.3396
 8132SOL     OW31000  10.251   4.446  10.510  0.0673 -0.1982  0.0201
 8132SOL    HW131001  10.346   4.438  10.516  0.0799  0.2128  0.3247
 8132SOL    HW231002  10.235   4.535  10.480 -0.2159 -0.3528 -0.3114
 8133SOL     OW31003   5.652   2.008   2.237  0.4267 -0.2192 -0.6106
 8133SOL    HW131004   5.673   2.046   2.152 -1.1863  3.1299  0.2798
 8133SOL    HW231005   5.690   2.070   2.300 -1.9505 -0.2657  1.0007
 8134SOL     OW31006   3.943   6.022   3.463 -0.6476  0.6994  0.4373
 8134SOL    HW131007   3.914   6.061   3.545  1.1792  2.1598  0.4590
 8134SOL    HW231008   3.996   6.090   3.421  0.1222 -0.7071 -1.0065
 8135SOL     OW31009   5.805   2.800  10.457  0.1436  0.3499  0.3022
 8135SOL    HW131010   5.878   2.738  10.451  0.7474  1.1165 -0.5790
 8135SOL    HW231011   5.776   2.812  10.366 -0.1581  1.1105  0.4883
 8136SOL     OW31012  10.231   8.763   8.341 -0.3540  0.1717 -0.2371
 8136SOL    HW131013  10.207   8.767   8.249 -0.2670 -0.3672 -0.2900
 8136SOL    HW231014  10.312   8.813   8.348  0.8583 -1.5973 -0.8820
 8137SOL     OW31015   7.693   4.162   8.090 -0.4519 -0.4264  0.0077
 8137SOL    HW131016   7.756   4.092   8.075  0.2472  0.5499 -2.1039
 8137SOL    HW231017   7.632   4.154   8.016 -0.3727  1.1360 -0.2537
 8138SOL     OW31018   5.620  11.718   2.138 -0.2819  0.4600 -0.3334
 8138SOL    HW131019   5.655  11.805   2.119 -0.4584  1.0123  1.5649
 8138SOL    HW231020   5.690  11.658   2.114  1.1208  1.3702  1.2243
 8139SOL     OW31021   5.280   8.749   0.990  0.6310 -0.0986 -0.1238
 8139SOL    HW131022   5.312   8.667   0.954 -0.5477  0.4960 -2.8225
 8139SOL    HW231023   5.345   8.815   0.963 -0.0101  0.2859 -0.7718
 8140SOL     OW31024   7.603  10.305   0.239  0.3315 -0.4373 -0.2057
 8140SOL    HW131025   7.545  10.288   0.313  0.1417  2.1751  0.3270
 8140SOL    HW231026   7.631  10.218   0.211 -1.4024 -1.6287  1.4557
 8141SOL     OW31027   9.459   8.181   0.362  0.7417  0.6302 -0.1356
 8141SOL    HW131028   9.497   8.096   0.341 -0.3762  0.0694 -0.0041
 8141SOL    HW231029   9.533   8.237   0.383  1.4575 -0.5412  0.5725
 8142SOL     OW31030   5.430   2.520   8.764 -0.1983 -0.1651 -0.1945
 8142SOL    HW131031   5.449   2.597   8.710 -0.7040  0.3090  0.2894
 8142SOL    HW231032   5.408   2.451   8.701  1.9342 -0.4183 -0.7232
 8143SOL     OW31033  10.615   9.288   1.468  0.3068  0.5291  0.0461
 8143SOL    HW131034  10.533   9.328   1.439 -0.3385 -0.4723  0.4314
 8143SOL    HW231035  10.651   9.350   1.532 -1.1352  0.1015  1.3271
 8144SOL     OW31036   4.970  11.175   1.242 -0.2923 -0.0689  0.3128
 8144SOL    HW131037   5.052  11.136   1.213  0.3130  0.3159  1.4408
 8144SOL    HW231038   4.968  11.261   1.200 -0.2269 -0.1629  0.1149
 8145SOL     OW31039   6.407   0.964   3.270 -0.2130 -0.1244 -0.0039
 8145SOL    HW131040   6.319   0.938   3.297  0.0181 -0.1205  0.7693
 8145SOL    HW231041   6.465   0.915   3.328  0.2634  0.9916  0.4764
 8146SOL     OW31042  11.191   8.574  10.795 -0.1438  0.1033 -0.3096
 8146SOL    HW131043  11.255   8.583  10.725  1.2360 -0.1062  0.8724
 8146SOL    HW231044  11.213   8.644  10.857  2.3252 -2.9843  2.6138
 8147SOL     OW31045   1.530   5.316   1.754 -0.0988  0.2415  0.0540
 8147SOL    HW131046   1.619   5.341   1.731  0.7393 -1.5335  1.1435
 8147SOL    HW231047   1.478   5.336   1.676  1.5284 -0.0702 -1.1437
 8148SOL     OW31048   7.263   6.994   3.982 -0.5430 -0.2571 -0.1280
 8148SOL    HW131049   7.200   7.063   4.004 -0.5675 -0.2447 -0.2326
 8148SOL    HW231050   7.219   6.943   3.914 -0.5003 -0.3383 -0.0948
 8149SOL     OW31051   3.101   1.959   5.970  0.1674  0.4279  0.9363
 8149SOL    HW131052   3.175   2.018   5.959 -0.8642  2.0245  2.0387
 8149SOL    HW231053   3.038   2.010   6.022 -2.1081 -0.4835 -0.7634
 8150SOL     OW31054  12.688   3.191   2.276 -0.1603 -0.2476 -0.5108
 8150SOL    HW131055  12.758   3.164   2.217  0.8234 -0.4364  0.6953
 8150SOL    HW231056  12.676   3.284   2.257  1.5998  0.2181  0.3667
 8151SOL     OW31057   8.199  11.933   3.654 -0.1559  0.5759  0.4957
 8151SOL    HW131058   8.223  12.026   3.653  0.3679  0.4437 -0.0176
 8151SOL    HW231059   8.136  11.923   3.582  0.6685  0.3213 -0.2092
 8152SOL     OW31060  10.429  10.753   1.305 -0.1825  0.2131  0.0947
 8152SOL    HW131061  10.403  10.817   1.371 -0.4158 -1.3332  1.5671
 8152SOL    HW231062  10.358  10.754   1.241 -0.7753  0.5218  0.7534
 8153SOL     OW31063   4.931   8.548   6.542  0.2362 -0.4966 -0.1689
 8153SOL    HW131064   4.903   8.550   6.633  0.8973 -2.4460  0.1356
 8153SOL    HW231065   4.850   8.541   6.492 -0.1153  0.2660  0.2673
 8154SOL     OW31066   6.422   4.065   4.022  0.2219 -0.2852  0.0991
 8154SOL    HW131067   6.459   4.150   4.047  0.0442  0.2480 -1.3695
 8154SOL    HW231068   6.473   4.038   3.945 -2.2119  0.3675 -1.8514
 8155SOL     OW31069   6.715  10.801  10.218  0.3592  0.0123 -0.5647
 8155SOL    HW131070   6.641  10.805  10.278  0.4467 -1.8029 -0.2760
 8155SOL    HW231071   6.789  10.836  10.269  0.3067 -0.9520  0.2066
 8156SOL     OW31072   9.824   4.084  10.889 -0.4729  0.2681 -0.2899
 8156SOL    HW131073   9.745   4.104  10.840 -1.4399 -1.7339  0.3281
 8156SOL    HW231074   9.808   3.997  10.926  0.7091  1.1077  2.4761
 8157SOL     OW31075   8.122   1.708   0.393  0.2435  0.0223 -0.1073
 8157SOL    HW131076   8.055   1.745   0.450  0.5275 -0.2446  0.4117
 8157SOL    HW231077   8.084   1.625   0.363  0.9681 -0.9609  1.5244
 8158SOL     OW31078   0.113   3.769   0.514 -0.4953 -0.1581 -0.1661
 8158SOL    HW131079   0.112   3.823   0.435 -0.7528  0.2952  0.1407
 8158SOL    HW231080   0.174   3.698   0.494 -0.0135  0.3517 -0.5038
 8159SOL     OW31081  11.132   8.650  12.677 -0.7447 -0.6117 -0.3231
 8159SOL    HW131082  11.062   8.632  12.615 -1.8191 -0.2709  0.7561
 8159SOL    HW231083  11.190   8.711  12.631 -1.1675 -0.8707 -1.2144
 8160SOL     OW31084   0.389   5.246   6.474 -0.0652  0.0955  0.2318
 8160SOL    HW131085   0.458   5.240   6.540 -0.5455  0.5680  0.7831
 8160SOL    HW231086   0.347   5.160   6.477  0.0615  0.0369  0.3788
 8161SOL     OW31087   3.728   5.450   1.923  0.0944  0.6387  0.3982
 8161SOL    HW131088   3.701   5.490   2.006 -1.2315  0.7637 -0.0568
 8161SOL    HW231089   3.782   5.376   1.948 -1.0717  0.1070  1.4234
 8162SOL     OW31090   1.485   7.564  10.022 -0.0570  0.0505 -0.2279
 8162SOL    HW131091   1.478   7.485  10.075  3.5195 -1.0794 -1.1321
 8162SOL    HW231092   1.578   7.569   9.998 -0.9109  2.0748 -3.9295
 8163SOL     OW31093   4.086   5.446   3.929  0.2214 -0.0149  0.3655
 8163SOL    HW131094   4.125   5.385   3.991 -0.0823 -0.6610 -0.0635
 8163SOL    HW231095   4.016   5.489   3.978 -1.5859 -2.2068 -0.1383
 8164SOL     OW31096   0.052   3.618   8.453 -1.1484 -0.2849  0.0552
 8164SOL    HW131097   0.147   3.608   8.456 -0.9406  1.3885  0.0392
 8164SOL    HW231098   0.018   3.534   8.483  0.3248 -1.0123 -0.2218
 8165SOL     OW31099   7.678   4.622   0.027  0.5074 -0.0819  0.1510
 8165SOL    HW131100   7.723   4.657   0.104  3.1150 -1.4556 -0.6633
 8165SOL    HW231101   7.656   4.700  -0.024  0.2912  0.7333  1.4230
 8166SOL     OW31102   1.121   0.535  10.196 -0.3247 -0.0442 -0.5059
 8166SOL    HW131103   1.028   0.521  10.212 -0.4021 -1.1323 -1.7266
 8166SOL    HW231104   1.157   0.447  10.182  1.1136  0.2524  0.9576
 8167SOL     OW31105  11.766   2.662   7.853 -0.6730  0.0548 -0.3794
 8167SOL    HW131106  11.742   2.751   7.827  2.0106  0.8875 -0.2996
 8167SOL    HW231107  11.761   2.663   7.948  0.4515  0.4997 -0.3131
 8168SOL     OW31108  10.492   0.835   9.359  0.3839  0.5014  0.1974
 8168SOL    HW131109  10.514   0.861   9.269  0.7658  1.0055  0.4348
 8168SOL    HW231110  10.475   0.741   9.353  0.0148  0.5993 -0.4769
 8169SOL     OW31111   9.101   1.414   5.570  0.3004  0.5750  0.0079
 8169SOL    HW131112   9.167   1.448   5.510 -1.2929  1.7971 -1.1618
 8169SOL    HW231113   9.134   1.435   5.657  1.1003  1.8183 -0.5711
 8170SOL     OW31114   7.181   9.962   1.474  0.4750 -0.2593  0.2238
 8170SOL    HW131115   7.085   9.955   1.473  0.3917  0.6688  0.2440
 8170SOL    HW231116   7.212   9.875   1.450 -0.3511 -0.9670  1.6034
 8171SOL     OW31117   7.879  11.512   6.660  0.8026 -0.0307 -0.4610
 8171SOL    HW131118   7.885  11.591   6.714 -0.1150  0.2108 -0.6946
 8171SOL    HW231119   7.851  11.444   6.720 -1.7980  0.5753 -0.8779
 8172SOL     OW31120  12.407   0.611   4.657 -0.2870 -0.0749 -0.2084
 8172SOL    HW131121  12.360   0.529   4.676 -0.1371  0.3502  2.3740
 8172SOL    HW231122  12.462   0.625   4.734  0.9526  1.6204 -1.3413
 8173SOL     OW31123  12.347   0.912   1.333 -0.2483  0.4556 -0.2531
 8173SOL    HW131124  12.351   0.832   1.385 -0.5279  0.1236 -0.7355
 8173SOL    HW231125  12.420   0.965   1.365  1.3469 -0.9065 -1.4431
 8174SOL     OW31126   5.245   3.506   2.002 -0.1881  0.1168 -0.2479
 8174SOL    HW131127   5.289   3.422   1.989  2.8149  1.4478  0.4870
 8174SOL    HW231128   5.269   3.558   1.925  2.9622  2.1199  1.8340
 8175SOL     OW31129   3.834   7.874   5.466  0.0383  0.1481 -0.3681
 8175SOL    HW131130   3.857   7.784   5.488  2.5224  1.0366  1.1561
 8175SOL    HW231131   3.827   7.918   5.551 -1.6461  1.3030 -1.0599
 8176SOL     OW31132   2.556  11.670  11.304 -0.4225 -0.5401 -0.2679
 8176SOL    HW131133   2.534  11.584  11.269  0.2728 -0.9483  0.2825
 8176SOL    HW231134   2.618  11.707  11.241  1.6137 -1.6837  0.9681
 8177SOL     OW31135   1.468   1.484  12.226  0.2459  0.2030  0.2693
 8177SOL    HW131136   1.373   1.490  12.215  0.5015  1.3631 -1.8544
 8177SOL    HW231137   1.498   1.575  12.228  1.4063 -0.1424 -0.1468
 8178SOL     OW31138  10.661   1.686  10.902  0.1277 -0.0309  0.1000
 8178SOL    HW131139  10.581   1.732  10.879 -0.5771 -0.3159  1.8737
 8178SOL    HW231140  10.684   1.636  10.823 -0.6842  1.0897 -0.8654
 8179SOL     OW31141   0.722  10.844  10.451 -0.3741  0.6514 -0.2621
 8179SOL    HW131142   0.715  10.757  10.412 -2.8265  1.1066 -1.0702
 8179SOL    HW231143   0.743  10.901  10.377 -0.0087  0.9079  0.0363
 8180SOL     OW31144  10.463  12.419   5.941 -0.3134  0.1033 -0.2605
 8180SOL    HW131145  10.388  12.361   5.933 -0.9425  0.7811  0.4629
 8180SOL    HW231146  10.475  12.457   5.854  0.9886 -2.1060 -1.1229
 8181SOL     OW31147   8.546   9.271   9.439  0.2680 -0.4518  0.2565
 8181SOL    HW131148   8.544   9.335   9.369 -2.7126 -2.0488 -1.3381
 8181SOL    HW231149   8.503   9.194   9.402 -1.4331 -1.4048  3.7802
 8182SOL     OW31150   2.273   2.578   7.134  0.0773  0.4962  0.2205
 8182SOL    HW131151   2.363   2.608   7.139  0.1478  0.6062 -1.2125
 8182SOL    HW231152   2.221   2.652   7.164  0.3690  1.3130 -1.1589
 8183SOL     OW31153  12.661  12.134   5.918  0.2526  0.4871 -0.5586
 8183SOL    HW131154  12.595  12.144   5.987  0.2930  1.0032 -0.5921
 8183SOL    HW231155  12.679  12.223   5.889  0.7862  0.3288 -0.7194
 8184SOL     OW31156   8.118  11.435   6.503 -0.1037  0.6863 -0.4178
 8184SOL    HW131157   8.111  11.341   6.490  1.5705  0.1914  1.7640
 8184SOL    HW231158   8.033  11.462   6.537  0.0047 -0.3975  0.7645
 8185SOL     OW31159   5.370   6.270  11.917  0.2434 -0.0956  0.6308
 8185SOL    HW131160   5.437   6.315  11.967  2.6158 -1.8495 -0.7656
 8185SOL    HW231161   5.368   6.181  11.953  0.0807 -0.6154 -0.5939
 8186SOL     OW31162   1.651   1.340   0.354  0.2339  0.1151 -0.4457
 8186SOL    HW131163   1.558   1.323   0.335  0.0142  0.5261  0.2317
 8186SOL    HW231164   1.695   1.322   0.271 -0.4098 -0.4024 -0.6884
 8187SOL     OW31165   9.627   9.707   3.867  0.2611  0.0487 -0.4831
 8187SOL    HW131166   9.713   9.732   3.899 -0.1310 -1.5193  2.0459
 8187SOL    HW231167   9.570   9.714   3.944 -1.6221 -0.1475 -1.7911
 8188SOL     OW31168   6.954   1.140   4.494 -0.2563  0.0542  0.0033
 8188SOL    HW131169   6.904   1.216   4.465  0.9109  0.9184  0.2061
 8188SOL    HW231170   6.937   1.073   4.427 -1.2927  0.4750 -0.1756
 8189SOL     OW31171   9.864   9.313  12.419 -0.3685  0.2539  0.5089
 8189SOL    HW131172   9.777   9.330  12.455 -0.2319  1.2086  0.4120
 8189SOL    HW231173   9.901   9.246  12.476 -0.7584  0.6095  1.1843
 8190SOL     OW31174   8.043   4.212  12.012 -0.3230 -0.0396  0.1004
 8190SOL    HW131175   7.986   4.289  12.011  1.7958  1.6547  1.3403
 8190SOL    HW231176   7.983   4.138  11.998 -2.5565  1.7303 -0.3244
 8191SOL     OW31177   5.961   5.972  10.031 -0.1837 -0.2741  0.0901
 8191SOL    HW131178   5.922   5.884  10.025 -0.2383 -0.2731  0.4192
 8191SOL    HW231179   5.995   5.989   9.943 -0.8018 -0.3348 -0.1653
 8192SOL     OW31180   0.575   5.108   9.772 -0.3196 -0.3533 -0.3659
 8192SOL    HW131181   0.591   5.202   9.763  2.3200 -0.6177  0.4655
 8192SOL    HW231182   0.610   5.070   9.690  1.5547 -0.7903  0.5697
 8193SOL     OW31183   1.511   9.106   1.993 -0.4649  0.3971  0.3732
 8193SOL    HW131184   1.467   9.157   1.925 -0.4932 -2.1027 -1.6731
 8193SOL    HW231185   1.584   9.064   1.947  0.5724 -0.0468  2.3353
 8194SOL     OW31186   3.964   3.173   2.814  0.0892 -0.1256 -0.8942
 8194SOL    HW131187   4.022   3.135   2.747  0.7742 -1.6927  0.5051
 8194SOL    HW231188   4.019   3.176   2.893 -0.9029  1.0456 -0.2252
 8195SOL     OW31189   7.585   5.862  12.661  0.1429 -0.1312  0.1223
 8195SOL    HW131190   7.503   5.863  12.710  0.7417 -0.8623  1.1702
 8195SOL    HW231191   7.570   5.922  12.588 -2.2106 -2.1133 -1.1653
 8196SOL     OW31192  12.336  11.603   2.681 -0.0726  0.1285 -0.6479
 8196SOL    HW131193  12.335  11.540   2.752  1.0959 -0.5352 -1.2053
 8196SOL    HW231194  12.250  11.594   2.640 -0.3377 -0.2663 -0.0164
 8197SOL     OW31195   8.844   7.814   5.948  0.1821 -0.3523 -0.5106
 8197SOL    HW131196   8.850   7.780   5.859  1.7386  2.5084 -1.6424
 8197SOL    HW231197   8.796   7.897   5.939  0.4290  0.0370  1.3202
 8198SOL     OW31198   4.780   4.043   2.114  0.2088 -0.0118  0.2043
 8198SOL    HW131199   4.862   4.055   2.066  1.0120 -0.9137  1.3103
 8198SOL    HW231200   4.805   3.998   2.195 -1.5742 -1.8457 -0.1771
 8199SOL     OW31201   8.826   2.109   5.240  0.2686 -0.1422 -0.4947
 8199SOL    HW131202   8.785   2.055   5.307 -0.3157 -0.2506 -0.9396
 8199SOL    HW231203   8.756   2.132   5.180  0.5143  1.0861 -0.3372
 8200SOL     OW31204   7.885   4.028   9.917  0.3663  0.2004 -0.4755
 8200SOL    HW131205   7.872   4.001   9.826 -1.1957  1.5135 -0.6955
 8200SOL    HW231206   7.884   4.124   9.914  1.7752  0.2901  0.7579
 8201SOL     OW31207  11.421   3.718  11.303  0.0497 -0.5277  0.3479
 8201SOL    HW131208  11.375   3.646  11.259 -0.4751 -0.0886  0.1718
 8201SOL    HW231209  11.481   3.674  11.364  0.3051 -1.1270 -0.3220
 8202SOL     OW31210   1.298   9.687   2.637 -0.1624 -0.2493  0.0501
 8202SOL    HW131211   1.356   9.611   2.646 -0.1229 -0.5149 -2.0002
 8202SOL    HW231212   1.256   9.696   2.722 -0.7718 -3.0731  0.1173
 8203SOL     OW31213  10.185   0.656   6.336 -0.5362  1.1002 -0.2605
 8203SOL    HW131214  10.230   0.697   6.410 -0.5939  0.4010  0.1730
 8203SOL    HW231215  10.141   0.580   6.374 -0.3763  0.5981 -1.0572
 8204SOL     OW31216  11.366   2.094   3.429 -0.3388 -0.0372  0.0342
 8204SOL    HW131217  11.327   2.114   3.344  1.1320  1.2059 -0.3823
 8204SOL    HW231218  11.383   2.000   3.425  0.6388  0.1667 -1.4808
 8205SOL     OW31219   8.960  11.643   5.834 -0.1385 -0.2665 -0.1182
 8205SOL    HW131220   8.960  11.725   5.786  0.6051 -1.3529 -2.0560
 8205SOL    HW231221   9.012  11.661   5.912 -0.7112  1.3090 -0.0657
 8206SOL     OW31222   8.278  11.145  12.076  0.1456  0.2424 -0.4238
 8206SOL    HW131223   8.233  11.199  12.012  0.7197  1.6789  0.3383
 8206SOL    HW231224   8.368  11.139  12.045 -0.0500 -0.8703 -0.8467
 8207SOL     OW31225   6.126  11.968   1.638  0.0388 -0.0959  0.0928
 8207SOL    HW131226   6.132  11.873   1.625 -0.4564 -0.1049 -0.0899
 8207SOL    HW231227   6.174  11.984   1.720  1.7983 -0.2432 -0.8514
 8208SOL     OW31228  11.737  11.186  11.849 -0.1962  0.0992 -0.6147
 8208SOL    HW131229  11.734  11.120  11.918  0.3595 -0.1713 -0.8437
 8208SOL    HW231230  11.670  11.249  11.873 -2.4352 -1.7434 -1.5695
 8209SOL     OW31231   6.581   8.165   9.326 -0.7300  0.2155 -0.0614
 8209SOL    HW131232   6.623   8.166   9.412  1.4706  0.1825 -1.0769
 8209SOL    HW231233   6.573   8.072   9.305  2.3977  0.1528 -1.4950
 8210SOL     OW31234   8.404   1.596  12.580  0.4668  0.2770 -0.0746
 8210SOL    HW131235   8.409   1.529  12.648 -0.2356  1.3621  1.0920
 8210SOL    HW231236   8.318   1.582  12.539  0.0417  0.8497  0.6043
 8211SOL     OW31237   1.690   0.556   7.981 -0.8826  0.4916 -0.1889
 8211SOL    HW131238   1.637   0.476   7.976  0.2667 -0.2225 -3.6381
 8211SOL    HW231239   1.781   0.525   7.978 -0.4070  1.8661 -1.0957
 8212SOL     OW31240  11.121   3.627   1.723  0.0884  0.1824 -0.1673
 8212SOL    HW131241  11.030   3.604   1.707  0.4014 -0.9150 -0.4803
 8212SOL    HW231242  11.118   3.697   1.788 -0.9623 -0.1215  0.1245
 8213SOL     OW31243   8.711   6.265  10.111 -0.0068 -0.0983  0.1789
 8213SOL    HW131244   8.668   6.200  10.056 -1.7597  1.3913 -0.3101
 8213SOL    HW231245   8.691   6.238  10.201  0.7155 -1.1201  0.0549
 8214SOL     OW31246   4.255   5.093   7.873 -0.2817  0.4282 -0.0331
 8214SOL    HW131247   4.249   5.099   7.778  1.1173 -0.6055 -0.2172
 8214SOL    HW231248   4.253   4.999   7.891 -1.2378  0.6234  1.0362
 8215SOL     OW31249  11.785   5.497   4.227  0.3735  0.0502 -0.9092
 8215SOL    HW131250  11.699   5.468   4.195 -0.1050  1.2675 -0.7816
 8215SOL    HW231251  11.794   5.586   4.194  0.8548  0.5318  0.4488
 8216SOL     OW31252   2.074  10.639  12.704  0.1693  0.0024  0.2864
 8216SOL    HW131253   2.151  10.609  12.656  0.5573  0.7554  0.4096
 8216SOL    HW231254   2.006  10.575  12.684  0.6950 -0.4161 -0.2023
 8217SOL     OW31255   8.473  11.302   2.948 -0.2416 -0.3310  0.5581
 8217SOL    HW131256   8.486  11.322   2.855  0.8745  0.2077  0.8166
 8217SOL    HW231257   8.425  11.377   2.982 -1.6494 -1.0299  0.2077
 8218SOL     OW31258   3.830   1.386   7.447  0.5269 -0.6997  0.1725
 8218SOL    HW131259   3.852   1.476   7.472 -0.4467 -0.5530  0.5781
 8218SOL    HW231260   3.820   1.389   7.352 -0.2855 -0.1739  0.2589
 8219SOL     OW31261   4.345   7.402   6.247 -0.4410  0.0161 -0.2252
 8219SOL    HW131262   4.310   7.384   6.334  0.3729  0.2795  0.1696
 8219SOL    HW231263   4.440   7.393   6.258 -0.4369 -2.2186 -1.5992
 8220SOL     OW31264   3.564  10.167  12.273  0.1754  0.0895  0.0611
 8220SOL    HW131265   3.617  10.211  12.207 -2.1387  0.9815 -1.2987
 8220SOL    HW231266   3.581  10.216  12.354  0.6702  0.9400 -0.5439
 8221SOL     OW31267   5.302   3.896   7.906  0.0336 -0.0279  0.1351
 8221SOL    HW131268   5.303   3.965   7.972  1.2436 -0.7771  0.9401
 8221SOL    HW231269   5.338   3.820   7.951 -0.1726 -0.8697 -1.0753
 8222SOL     OW31270   4.805   6.773   9.238  0.0606  0.0774  0.2494
 8222SOL    HW131271   4.862   6.846   9.261 -0.4310  1.1608 -1.7879
 8222SOL    HW231272   4.853   6.724   9.172 -0.9554  0.4816 -0.8255
 8223SOL     OW31273   5.932   2.660  10.220 -0.3013 -0.1025  0.2127
 8223SOL    HW131274   5.983   2.585  10.190  0.4157  1.1497 -1.9036
 8223SOL    HW231275   5.841   2.630  10.215 -0.1341 -0.3945 -2.1271
 8224SOL     OW31276   1.754   1.269  11.851 -0.2497  0.3150  0.0597
 8224SOL    HW131277   1.808   1.342  11.879 -0.8808  0.8333 -0.0413
 8224SOL    HW231278   1.814   1.195  11.844  0.7690  1.2437 -1.6425
 8225SOL     OW31279   1.561   0.730   0.481 -0.1630 -0.0615  0.3571
 8225SOL    HW131280   1.632   0.684   0.436  0.1290 -0.1884  0.9345
 8225SOL    HW231281   1.530   0.668   0.546 -1.7168 -0.5153 -0.7615
 8226SOL     OW31282  12.494  11.558   3.411  0.5612  0.4593  0.3988
 8226SOL    HW131283  12.586  11.531   3.411  0.0118 -1.7365 -1.6457
 8226SOL    HW231284  12.475  11.579   3.319 -1.0546  0.5809  0.7226
 8227SOL     OW31285  11.092   3.682   4.145 -0.2825  0.0294  0.2475
 8227SOL    HW131286  11.071   3.595   4.110  1.1400 -0.4535  0.5315
 8227SOL    HW231287  11.121   3.665   4.234  2.7978  0.3965 -0.5675
 8228SOL     OW31288   5.473  10.228   2.844  0.0322  0.3623  0.9750
 8228SOL    HW131289   5.513  10.151   2.803 -1.2290  0.0843  0.2367
 8228SOL    HW231290   5.513  10.302   2.799  3.0834  0.3432  3.2885
 8229SOL     OW31291   6.751  12.062   3.840  0.5110  0.6613  0.1757
 8229SOL    HW131292   6.778  12.084   3.929  1.8869 -1.3559  0.3066
 8229SOL    HW231293   6.815  12.105   3.783  1.3764 -0.4358  0.3020
 8230SOL     OW31294  11.072   6.569   1.506  0.4892  0.4523 -0.1338
 8230SOL    HW131295  11.005   6.506   1.479  0.1995  0.9007 -0.4683
 8230SOL    HW231296  11.153   6.518   1.508  0.1641 -0.0639  0.1502
 8231SOL     OW31297   7.013   0.953   0.409  0.1143  0.1706 -0.0694
 8231SOL    HW131298   7.035   1.046   0.410 -3.5320  1.2058  0.8918
 8231SOL    HW231299   7.054   0.917   0.488 -0.6442  1.6380  1.0428
 8232SOL     OW31300   8.059   9.320   3.964 -0.1053  0.4229  0.2640
 8232SOL    HW131301   7.995   9.257   3.930  0.9364 -0.7682  0.4489
 8232SOL    HW231302   8.046   9.320   4.058  0.9326 -0.7500  0.4410
 8233SOL     OW31303   1.187   6.412  11.205  0.1473  0.3853 -0.4005
 8233SOL    HW131304   1.258   6.365  11.249 -0.3648 -0.4839 -0.4827
 8233SOL    HW231305   1.210   6.505  11.216 -0.4877  0.3099  2.6745
 8234SOL     OW31306   9.553   0.783   8.422 -0.4150 -0.4634  0.1242
 8234SOL    HW131307   9.548   0.823   8.509  0.7784 -0.6488  0.2840
 8234SOL    HW231308   9.526   0.692   8.437 -0.2453 -0.4863  0.2859
 8235SOL     OW31309   3.488   9.916   5.893  0.0536  0.1640  0.3866
 8235SOL    HW131310   3.546   9.841   5.906 -0.7613 -0.2608  1.7794
 8235SOL    HW231311   3.487   9.961   5.978  0.0097  1.3918 -0.2419
 8236SOL     OW31312   1.676  11.289   3.504  0.1538 -0.4160 -0.1398
 8236SOL    HW131313   1.677  11.379   3.471  0.0323 -1.3530 -2.9190
 8236SOL    HW231314   1.583  11.266   3.508  0.2441 -0.9543 -1.0491
 8237SOL     OW31315   3.103   7.368   2.812  0.0120 -0.2859 -0.2593
 8237SOL    HW131316   3.079   7.327   2.895 -0.3112 -1.4665 -0.9114
 8237SOL    HW231317   3.019   7.397   2.775  0.0579 -0.5868 -0.5944
 8238SOL     OW31318   9.641   3.744   0.115 -0.5513  0.0518 -0.2157
 8238SOL    HW131319   9.552   3.708   0.108  0.2739 -1.9346 -1.3081
 8238SOL    HW231320   9.681   3.693   0.185 -0.1844  0.8060  0.1338
 8239SOL     OW31321  11.919   6.212   9.668  0.4842 -0.3850  0.4869
 8239SOL    HW131322  11.841   6.168   9.702 -0.1412 -0.2387 -0.6932
 8239SOL    HW231323  11.937   6.281   9.733 -2.7233  2.1429 -0.9963
 8240SOL     OW31324   5.404   8.491   0.941 -0.2868 -0.0751 -0.1939
 8240SOL    HW131325   5.414   8.469   1.033 -0.8326  1.1537  0.1803
 8240SOL    HW231326   5.437   8.414   0.894  0.1001 -0.6697  1.0135
 8241SOL     OW31327   3.403  10.014   4.762 -0.2752  0.0191  0.1877
 8241SOL    HW131328   3.435  10.070   4.691 -0.8457  0.4489  0.2651
 8241SOL    HW231329   3.477   9.956   4.782  0.3164  0.7226  0.0813
 8242SOL     OW31330   9.213   1.680  12.579 -0.1537 -0.3544  0.3015
 8242SOL    HW131331   9.191   1.601  12.530 -0.7284 -0.7484  1.1572
 8242SOL    HW231332   9.239   1.648  12.666 -0.1350  0.3777  0.5782
 8243SOL     OW31333  12.475  11.985   9.855 -0.4201  0.1070  0.0295
 8243SOL    HW131334  12.515  12.061   9.898  1.4236  0.1398 -1.5811
 8243SOL    HW231335  12.419  12.023   9.787  1.3656  0.1220 -1.5253
 8244SOL     OW31336  12.464   7.843   3.794 -0.4173 -0.1062  0.2441
 8244SOL    HW131337  12.385   7.896   3.805 -1.1507 -0.5722 -2.2360
 8244SOL    HW231338  12.435   7.753   3.813  0.0682 -0.0373  1.3978
 8245SOL     OW31339   4.273   8.935   8.169 -0.0756 -0.0443  0.1283
 8245SOL    HW131340   4.313   8.990   8.236 -2.3397  1.4187  0.3869
 8245SOL    HW231341   4.198   8.895   8.213 -1.8355  1.2480 -1.5355
 8246SOL     OW31342  10.498   1.974  11.053  0.0855  0.4824 -0.3690
 8246SOL    HW131343  10.534   1.979  11.141  0.5002  0.5938 -0.5436
 8246SOL    HW231344  10.571   1.994  10.996 -0.1429  0.2453 -0.7489
 8247SOL     OW31345   2.712  10.777   2.891 -0.3806  0.2140 -0.2276
 8247SOL    HW131346   2.747  10.862   2.918 -0.9766  0.1403  0.8513
 8247SOL    HW231347   2.699  10.785   2.796  0.2622  1.0581 -0.2554
 8248SOL     OW31348   9.675  11.375  10.303 -0.2242  0.4473  0.0934
 8248SOL    HW131349   9.694  11.422  10.222 -0.6131 -0.4087 -0.5090
 8248SOL    HW231350   9.596  11.325  10.284 -0.8601  0.9444  1.3063
 8249SOL     OW31351   8.385   6.382  11.952 -0.2597 -0.1639  0.1371
 8249SOL    HW131352   8.308   6.430  11.919  0.3870  1.3754  0.7702
 8249SOL    HW231353   8.414   6.433  12.027  0.8507 -1.2442  0.4645
 8250SOL     OW31354   1.143   2.523  11.007 -0.2619  0.0553  0.0086
 8250SOL    HW131355   1.092   2.465  11.062  0.5006 -1.0276 -0.3919
 8250SOL    HW231356   1.218   2.547  11.061  2.0493 -3.3108 -1.3552
 8251SOL     OW31357   1.924   6.415   9.308 -0.4456  0.5169  0.2234
 8251SOL    HW131358   1.848   6.472   9.289  0.3565  1.3757 -0.5344
 8251SOL    HW231359   2.000   6.472   9.296  0.4099 -0.7797 -0.8217
 8252SOL     OW31360   0.627  12.761  10.706 -0.1679  0.9414  0.5448
 8252SOL    HW131361   0.681  12.837  10.730  2.1645 -1.0054  1.9261
 8252SOL    HW231362   0.689  12.695  10.678 -2.0843 -0.6917 -0.0921
 8253SOL     OW31363   7.617  10.897   2.824  0.1783  0.2257 -0.1400
 8253SOL    HW131364   7.552  10.962   2.852 -1.4894 -1.8731  1.2470
 8253SOL    HW231365   7.594  10.877   2.733 -1.1370 -0.4214  0.3036
 8254SOL     OW31366   1.368   6.686  11.539 -0.0754 -0.1617  0.1772
 8254SOL    HW131367   1.357   6.591  11.531 -0.8853 -0.0369 -0.2536
 8254SOL    HW231368   1.457   6.702  11.508 -0.8431 -0.4783 -2.3907
 8255SOL     OW31369   4.995   0.667   2.784  0.0876 -0.2499  0.1986
 8255SOL    HW131370   5.010   0.749   2.738 -0.8597 -0.4327 -0.4534
 8255SOL    HW231371   5.013   0.599   2.718  0.1361 -0.5556  0.5193
 8256SOL     OW31372  10.724  12.491  12.466  0.2929  0.3460  0.5524
 8256SOL    HW131373  10.720  12.498  12.370  1.8804  0.7790  0.4877
 8256SOL    HW231374  10.660  12.555  12.498 -2.2734 -1.6550 -0.1701
 8257SOL     OW31375   7.595   2.887   1.710  0.2620 -0.0154  0.0808
 8257SOL    HW131376   7.675   2.856   1.666  0.3682  0.0056  0.2603
 8257SOL    HW231377   7.624   2.913   1.797  0.3762  1.5757 -0.4019
 8258SOL     OW31378   0.814   1.963  12.326  0.0620 -0.2588  0.6092
 8258SOL    HW131379   0.793   1.888  12.383  0.4475 -0.2078  0.8222
 8258SOL    HW231380   0.809   1.928  12.237  0.4783 -0.6043  0.7173
 8259SOL     OW31381   3.993   7.541   5.105  0.3486 -0.1122 -0.2633
 8259SOL    HW131382   4.086   7.559   5.112  0.4398 -0.7268  0.1866
 8259SOL    HW231383   3.951   7.612   5.154  0.6281 -0.3776  0.3633
 8260SOL     OW31384   7.150   8.175  12.633 -0.0467 -0.4754 -0.2797
 8260SOL    HW131385   7.095   8.236  12.683  0.6315 -0.1019  0.0267
 8260SOL    HW231386   7.129   8.089  12.668 -0.8225 -0.3972 -0.5322
 8261SOL     OW31387   3.349   1.721  10.381 -0.2306  0.3040  0.2862
 8261SOL    HW131388   3.372   1.643  10.432  1.2512  1.4371  1.4059
 8261SOL    HW231389   3.255   1.731  10.394 -0.6371 -1.7882 -0.6162
 8262SOL     OW31390   4.439   4.998   1.694 -0.0344  0.1426  0.1769
 8262SOL    HW131391   4.498   4.962   1.760  0.4057  0.2930 -0.1277
 8262SOL    HW231392   4.401   5.075   1.736  1.0833  0.8852 -0.1093
 8263SOL     OW31393   3.417   0.718   4.419 -0.0448 -0.4842  0.1849
 8263SOL    HW131394   3.345   0.661   4.444 -0.8780  0.4644  0.0441
 8263SOL    HW231395   3.464   0.736   4.501  0.3317 -1.4852  0.1984
 8264SOL     OW31396   5.745   1.627   6.344  0.4048 -0.3997 -0.9268
 8264SOL    HW131397   5.770   1.552   6.398 -2.3390 -1.5645 -1.0882
 8264SOL    HW231398   5.691   1.681   6.401 -1.3466 -0.9191 -2.0130
 8265SOL     OW31399  11.542   7.829   5.938  0.4592 -0.3802 -0.2425
 8265SOL    HW131400  11.623   7.853   5.983  0.6655  0.8291 -1.1916
 8265SOL    HW231401  11.481   7.808   6.008  1.3497 -0.5059  0.5179
 8266SOL     OW31402  12.290   8.829   6.357  0.0612 -0.3648  0.5464
 8266SOL    HW131403  12.323   8.861   6.441  3.3637 -0.5121 -0.5244
 8266SOL    HW231404  12.284   8.734   6.368 -2.3926 -0.1731  1.4219
 8267SOL     OW31405   2.339   3.815   6.174  0.1109 -0.5679 -0.1282
 8267SOL    HW131406   2.365   3.871   6.101 -1.5160  0.7056  0.1903
 8267SOL    HW231407   2.247   3.838   6.190  0.2789 -1.1214  2.0056
 8268SOL     OW31408  10.405   3.627   2.477 -0.2503 -0.0718 -0.1319
 8268SOL    HW131409  10.445   3.670   2.402 -1.7143  0.1759 -0.8139
 8268SOL    HW231410  10.321   3.594   2.443 -0.6153 -0.5858  1.2102
 8269SOL     OW31411   4.661  10.716   3.188 -0.0850  0.1641  0.5984
 8269SOL    HW131412   4.667  10.621   3.178  0.4077  0.3195 -0.8799
 8269SOL    HW231413   4.747  10.741   3.222  0.8917  0.3355 -1.7802
 8270SOL     OW31414   8.936   4.156   9.692 -0.2800  0.1087 -1.1592
 8270SOL    HW131415   8.960   4.248   9.706 -0.2041  0.1638 -1.6261
 8270SOL    HW231416   8.983   4.108   9.760 -1.1075  0.5197 -0.2764
 8271SOL     OW31417   9.834   4.645   1.613 -0.0357 -0.1835  0.1945
 8271SOL    HW131418   9.872   4.708   1.674  0.6081 -0.6222  0.2565
 8271SOL    HW231419   9.741   4.666   1.612  0.3149  1.4681 -0.6301
 8272SOL     OW31420   7.570   4.075  10.741 -0.3130 -0.1779  0.1219
 8272SOL    HW131421   7.568   3.988  10.781  0.5141  0.0066  0.5887
 8272SOL    HW231422   7.515   4.067  10.663 -0.3789 -1.0742  0.2532
 8273SOL     OW31423   4.041   5.556   1.643  0.1487  0.3429  0.5984
 8273SOL    HW131424   4.043   5.464   1.669  2.1008  0.4527  0.9795
 8273SOL    HW231425   4.095   5.560   1.563 -1.9004  0.7950 -0.8476
 8274SOL     OW31426   1.843  11.902   7.003 -0.2265 -0.8392  0.0527
 8274SOL    HW131427   1.857  11.939   7.090  2.4135 -1.5017 -0.0024
 8274SOL    HW231428   1.783  11.963   6.960 -2.3984 -1.0182  2.6128
 8275SOL     OW31429   5.463   3.644   6.624  0.0511  0.1362  0.0834
 8275SOL    HW131430   5.399   3.612   6.688 -0.5614 -0.1204 -0.6388
 8275SOL    HW231431   5.421   3.629   6.540  1.0910 -0.0668 -0.4104
 8276SOL     OW31432   2.822   4.638   6.735 -0.0962 -0.3279  0.3871
 8276SOL    HW131433   2.903   4.690   6.735 -0.7498  0.7425 -0.2566
 8276SOL    HW231434   2.763   4.687   6.792 -0.8339 -0.1530 -0.5032
 8277SOL     OW31435   2.114   0.179  11.810 -0.3539 -0.1153 -0.0350
 8277SOL    HW131436   2.094   0.135  11.893  0.2698  0.8003  0.6126
 8277SOL    HW231437   2.195   0.227  11.827 -1.6033  2.2735 -0.3063
 8278SOL     OW31438   8.170  11.875   4.238 -0.3531 -0.5615  0.1842
 8278SOL    HW131439   8.109  11.901   4.169 -1.5109  0.1229  1.4071
 8278SOL    HW231440   8.210  11.957   4.267  0.5474 -0.9109 -0.0472
 8279SOL     OW31441   1.250  11.711   1.801  0.2462 -0.0229 -0.0037
 8279SOL    HW131442   1.181  11.647   1.817  0.6364 -0.3758  0.3040
 8279SOL    HW231443   1.217  11.793   1.838 -0.6562  0.1890 -1.2391
 8280SOL     OW31444   1.396   1.732   1.604 -0.4864  0.2497  0.0457
 8280SOL    HW131445   1.491   1.738   1.614 -0.4736  0.0370  0.0543
 8280SOL    HW231446   1.369   1.820   1.580 -0.0234 -0.1516 -2.1773
 8281SOL     OW31447  11.961   1.404   8.208 -0.5634  0.3311  0.1205
 8281SOL    HW131448  11.956   1.469   8.278  0.0437  0.0137  0.4631
 8281SOL    HW231449  11.997   1.452   8.133 -0.1929  0.4056  0.3487
 8282SOL     OW31450  11.448   1.440  11.400  0.0705 -0.1390 -0.5450
 8282SOL    HW131451  11.385   1.505  11.370  1.0896  0.8207 -0.6777
 8282SOL    HW231452  11.397   1.379  11.452 -0.6939  1.6177  0.8719
 8283SOL     OW31453   9.951  10.339   7.502 -0.0734 -0.2026 -0.3910
 8283SOL    HW131454   9.902  10.296   7.432 -2.3992  2.8704 -0.8844
 8283SOL    HW231455   9.957  10.274   7.571 -2.2461 -1.7255 -1.5295
 8284SOL     OW31456   9.522   8.263   7.068 -0.1090 -0.3593  0.6552
 8284SOL    HW131457   9.469   8.327   7.019  0.3413 -1.3485 -1.2210
 8284SOL    HW231458   9.471   8.246   7.147 -1.4411  0.4903  0.0238
 8285SOL     OW31459   0.692   9.208   7.232 -0.3579  0.0283 -0.2505
 8285SOL    HW131460   0.678   9.264   7.156  0.7837 -0.5807 -0.9401
 8285SOL    HW231461   0.727   9.267   7.299 -1.1230  0.5202 -0.2773
 8286SOL     OW31462  12.111   4.069   8.931 -0.1966  0.2817 -0.0960
 8286SOL    HW131463  12.166   4.093   9.004  0.1259  0.9763 -0.5601
 8286SOL    HW231464  12.058   4.147   8.914 -1.3783 -0.3915  0.3852
 8287SOL     OW31465   0.376   8.425   7.655 -0.2297 -0.6333  0.2988
 8287SOL    HW131466   0.291   8.433   7.700 -0.0169 -0.4857  0.6792
 8287SOL    HW231467   0.390   8.512   7.617 -1.5975 -1.4310 -2.2290
 8288SOL     OW31468   7.657   7.951   4.910 -0.5297 -0.3338  0.1383
 8288SOL    HW131469   7.609   7.871   4.931 -0.6614 -0.4058 -0.4270
 8288SOL    HW231470   7.734   7.948   4.966 -1.0056 -0.3868  0.8020
 8289SOL     OW31471   6.522  10.438   3.129 -0.0390 -0.1258  0.2001
 8289SOL    HW131472   6.611  10.441   3.165  1.2414 -0.3408 -2.6466
 8289SOL    HW231473   6.498  10.345   3.134  1.7534 -0.8856 -2.8308
 8290SOL     OW31474   0.110   4.190  11.050 -0.3398  0.2201  0.1187
 8290SOL    HW131475   0.120   4.278  11.086 -0.0031 -0.3834  1.5722
 8290SOL    HW231476   0.159   4.192  10.967  0.1913  1.2114  0.4367
 8291SOL     OW31477   7.995   9.697  11.643  0.2960  0.8976 -0.1161
 8291SOL    HW131478   8.074   9.749  11.661  0.5603  0.2409  0.6980
 8291SOL    HW231479   7.996   9.629  11.710  0.1981 -0.4418 -1.4150
 8292SOL     OW31480   3.250  12.380   9.693  0.1384 -0.0381 -0.5448
 8292SOL    HW131481   3.267  12.455   9.636  0.7112  0.6686  0.5212
 8292SOL    HW231482   3.193  12.415   9.762 -0.4778 -0.8530 -0.6258
 8293SOL     OW31483   5.956   3.243  10.356 -0.2354 -0.2844  0.2701
 8293SOL    HW131484   5.901   3.286  10.421 -0.0426  0.7233 -0.2133
 8293SOL    HW231485   5.948   3.298  10.278  0.8225 -0.5651 -0.0506
 8294SOL     OW31486   2.788  11.689   2.452 -0.1766 -0.6034 -0.2848
 8294SOL    HW131487   2.844  11.615   2.476  0.8076  0.3663  0.4976
 8294SOL    HW231488   2.762  11.727   2.535 -0.1647  0.3064 -0.6901
 8295SOL     OW31489   4.596   8.361   4.966  0.1553  0.2427  0.4927
 8295SOL    HW131490   4.650   8.299   5.016  0.5977 -0.4326 -0.7755
 8295SOL    HW231491   4.604   8.444   5.013  1.3648 -0.1292  0.9670
 8296SOL     OW31492   0.010   5.752   6.802 -0.3807  0.2568  0.4546
 8296SOL    HW131493   0.012   5.659   6.779  2.5535  0.0645  1.1128
 8296SOL    HW231494  -0.055   5.758   6.872 -1.3063 -1.0970 -0.2354
 8297SOL     OW31495  10.818   7.052  12.360  0.4417 -0.2620  0.1243
 8297SOL    HW131496  10.774   7.028  12.442  1.5228 -0.8490  0.5511
 8297SOL    HW231497  10.814   7.148  12.359  1.5592 -0.1524  1.5580
 8298SOL     OW31498   7.962   1.088   6.803 -0.1931  0.5229 -0.2352
 8298SOL    HW131499   7.936   1.178   6.783 -0.8127  0.4264  0.1268
 8298SOL    HW231500   7.942   1.077   6.895  2.5986  0.9488  0.5286
 8299SOL     OW31501   6.345   2.933   7.155  0.1085  0.7513  0.5968
 8299SOL    HW131502   6.254   2.938   7.125  1.0485  1.7784 -2.4880
 8299SOL    HW231503   6.358   2.840   7.175 -1.0474  0.1680 -1.1072
 8300SOL     OW31504   2.936   5.181   3.595 -0.0238 -0.1773  0.2112
 8300SOL    HW131505   2.896   5.094   3.592 -0.7257  0.1366  0.2467
 8300SOL    HW231506   2.907   5.223   3.514 -1.3528  0.7295  1.1285
 8301SOL     OW31507   7.832  10.602   7.869  1.0134 -0.0746  0.0690
 8301SOL    HW131508   7.894  10.533   7.845  0.8385  0.1818 -1.2280
 8301SOL    HW231509   7.886  10.679   7.885  1.1240 -0.2138  0.3805
 8302SOL     OW31510   5.314   5.058   7.511  0.2320  0.0947 -0.1050
 8302SOL    HW131511   5.250   5.076   7.580  0.8579  0.8164  0.2978
 8302SOL    HW231512   5.324   4.963   7.512  1.4749  0.1992  1.9549
 8303SOL     OW31513   3.448   1.382   6.870  0.0382  0.0429  0.2928
 8303SOL    HW131514   3.455   1.433   6.789  1.5050 -1.1483 -0.3665
 8303SOL    HW231515   3.436   1.292   6.841  0.2514 -0.3607  1.4191
 8304SOL     OW31516  11.653  12.682   1.160  0.0638 -0.1666 -0.2134
 8304SOL    HW131517  11.626  12.773   1.170 -1.7994 -0.5290 -1.6489
 8304SOL    HW231518  11.743  12.688   1.127 -1.0418  1.2859 -3.3739
 8305SOL     OW31519   6.268   2.136   3.666  0.1776 -0.5392  0.3438
 8305SOL    HW131520   6.314   2.082   3.602  0.6040  0.4907 -0.2512
 8305SOL    HW231521   6.221   2.201   3.613 -0.0931 -0.1431  1.0474
 8306SOL     OW31522   4.655   1.703   8.004 -0.1076 -0.3146 -0.1049
 8306SOL    HW131523   4.582   1.653   8.040 -0.2376  0.0892  0.1915
 8306SOL    HW231524   4.669   1.774   8.066  0.0318  0.0579 -0.5574
 8307SOL     OW31525   7.798   1.628  10.747  0.0495  0.5982 -0.3138
 8307SOL    HW131526   7.704   1.627  10.733  0.0085  0.3556 -0.0156
 8307SOL    HW231527   7.811   1.689  10.819 -0.1935 -1.7889  1.8948
 8308SOL     OW31528   9.758   3.871   3.881  0.1690  0.5546 -0.4644
 8308SOL    HW131529   9.842   3.888   3.838  0.6747  2.3675  1.0907
 8308SOL    HW231530   9.694   3.915   3.825  0.3879  0.1313 -1.0610
 8309SOL     OW31531   3.688   1.200  10.819  0.3165  0.1468 -0.4603
 8309SOL    HW131532   3.642   1.189  10.736 -0.0614 -1.4342 -0.0830
 8309SOL    HW231533   3.741   1.278  10.808  0.7639 -0.3969 -2.4187
 8310SOL     OW31534   5.718   2.979   0.246  0.3095  0.9078 -0.5405
 8310SOL    HW131535   5.674   2.950   0.326 -1.5135  0.6663 -1.5840
 8310SOL    HW231536   5.745   2.898   0.203  0.5393  1.0084 -0.5879
 8311SOL     OW31537   2.306  11.470   3.730  0.2381 -0.2025 -0.6555
 8311SOL    HW131538   2.223  11.454   3.685 -0.8726  0.8903  0.9112
 8311SOL    HW231539   2.335  11.556   3.699  0.6036 -0.4177 -0.9199
 8312SOL     OW31540   5.332   2.849  11.844 -0.4545  0.6844 -0.4681
 8312SOL    HW131541   5.417   2.893  11.834 -0.4194  0.7695  0.1408
 8312SOL    HW231542   5.348   2.782  11.910 -0.7736  0.4627 -0.6181
 8313SOL     OW31543   8.471   9.666   3.500  0.0790 -0.2604 -0.6968
 8313SOL    HW131544   8.470   9.761   3.485 -1.1036  0.0892  1.2627
 8313SOL    HW231545   8.381   9.638   3.485  0.9042 -1.6621 -4.0005
 8314SOL     OW31546   4.682   7.655   4.176  1.0705 -0.3091 -0.2498
 8314SOL    HW131547   4.588   7.672   4.181  1.1267 -0.0739  0.0727
 8314SOL    HW231548   4.690   7.560   4.180  0.9467 -0.2904  1.9241
 8315SOL     OW31549   5.553   8.777   4.005 -0.0156  0.7091  0.2128
 8315SOL    HW131550   5.568   8.689   3.971  1.0951  1.6673 -1.9746
 8315SOL    HW231551   5.458   8.789   3.997 -0.0886 -0.0328 -0.1568
 8316SOL     OW31552   9.806   0.197   0.830  0.0872  0.2305  0.2181
 8316SOL    HW131553   9.838   0.108   0.838  0.9912  0.5352  0.1417
 8316SOL    HW231554   9.854   0.234   0.756 -1.4983  0.2745 -0.8365
 8317SOL     OW31555  10.690   3.068   4.281 -0.2515 -0.5213 -0.3381
 8317SOL    HW131556  10.621   3.014   4.319 -1.0915 -0.5490 -1.8065
 8317SOL    HW231557  10.644   3.127   4.221  0.6937  1.4517  0.7457
 8318SOL     OW31558   8.298   2.211   1.280  0.0987  0.1055  0.1127
 8318SOL    HW131559   8.327   2.173   1.363 -0.4154 -0.1324  0.1863
 8318SOL    HW231560   8.237   2.147   1.244  1.5259 -0.5574 -1.2405
 8319SOL     OW31561   7.787  10.539  12.660  0.5937 -0.4598  0.4964
 8319SOL    HW131562   7.830  10.580  12.585 -2.2134 -0.2145 -1.1350
 8319SOL    HW231563   7.719  10.601  12.686 -1.3660 -2.4120  0.3363
 8320SOL     OW31564   9.686   9.764   9.219 -0.4977  0.1614 -0.5744
 8320SOL    HW131565   9.660   9.709   9.145 -1.6996 -0.0706 -0.0038
 8320SOL    HW231566   9.774   9.795   9.196  0.1572 -1.8582 -0.9775
 8321SOL     OW31567   9.839   6.636   3.535 -0.0622 -0.0061 -0.4487
 8321SOL    HW131568   9.929   6.664   3.520  0.0945  0.1561  0.7082
 8321SOL    HW231569   9.802   6.626   3.448  0.4653  1.8992 -0.9166
 8322SOL     OW31570   3.629   3.335   3.983 -0.6024 -0.0896  0.6759
 8322SOL    HW131571   3.672   3.408   3.938 -0.3176 -0.4718  0.3167
 8322SOL    HW231572   3.686   3.260   3.966 -1.7552 -0.7574 -0.3885
 8323SOL     OW31573   1.637   7.015   1.430  0.2229 -0.2674  0.5327
 8323SOL    HW131574   1.564   7.049   1.482 -1.2559 -1.7818 -0.4297
 8323SOL    HW231575   1.638   7.070   1.352  0.0344 -0.2980  0.5071
 8324SOL     OW31576   0.169   1.909   8.303 -0.5600  0.1623 -0.0926
 8324SOL    HW131577   0.092   1.854   8.318  0.4313 -1.4027 -0.4930
 8324SOL    HW231578   0.236   1.870   8.359  0.5667  0.0377 -1.4796
 8325SOL     OW31579   0.335   5.190   7.706 -0.7751  0.1625 -0.1334
 8325SOL    HW131580   0.328   5.106   7.660 -0.1807 -0.3800  0.7503
 8325SOL    HW231581   0.392   5.173   7.780 -0.5817  1.3740  0.0247
 8326SOL     OW31582   8.529   2.700   2.863 -0.2421 -0.4229  0.1859
 8326SOL    HW131583   8.546   2.611   2.894  0.4260 -0.5371 -0.4779
 8326SOL    HW231584   8.548   2.697   2.769  2.6155  1.0773  0.5928
 8327SOL     OW31585   9.710  11.237   8.815 -0.0667 -0.3834 -0.3338
 8327SOL    HW131586   9.723  11.145   8.791  2.4052 -0.2273  0.1822
 8327SOL    HW231587   9.760  11.248   8.896 -1.7401  1.0387  0.5813
 8328SOL     OW31588   4.885   9.941   6.956 -0.9843 -0.2161 -0.0303
 8328SOL    HW131589   4.927  10.002   7.018 -1.8504 -0.2078  0.5673
 8328SOL    HW231590   4.821   9.894   7.009 -2.3213  0.3504 -1.0774
 8329SOL     OW31591   6.972   7.637   3.580  0.0573  0.3585 -0.2438
 8329SOL    HW131592   6.965   7.607   3.670 -0.5016  0.9549 -0.0763
 8329SOL    HW231593   7.057   7.607   3.550 -0.0623 -0.4778  0.2455
 8330SOL     OW31594  11.594   6.198   3.753 -0.5273  0.7761 -0.1740
 8330SOL    HW131595  11.511   6.246   3.754 -0.7829  0.3601 -0.9814
 8330SOL    HW231596  11.583   6.131   3.686 -0.0687 -0.2517  0.7452
 8331SOL     OW31597  10.713   8.463   3.127  0.1242  0.5362  0.0333
 8331SOL    HW131598  10.630   8.463   3.080  0.3776 -0.5150 -0.4431
 8331SOL    HW231599  10.769   8.523   3.077  0.7608 -1.4142 -1.7622
 8332SOL     OW31600   1.602  12.049   8.005 -0.0301  0.2244 -0.1474
 8332SOL    HW131601   1.681  12.043   7.951  0.1093  1.0837 -0.0450
 8332SOL    HW231602   1.570  12.138   7.991 -1.4856 -0.3717 -0.8784
 8333SOL     OW31603   6.912   7.960   6.330 -0.1627  0.6895 -0.2918
 8333SOL    HW131604   6.943   7.966   6.239 -1.3321 -2.7701 -1.0375
 8333SOL    HW231605   6.819   7.980   6.325 -0.7244 -1.6897 -0.3166
 8334SOL     OW31606   4.894   2.414   3.238 -0.5660 -0.1640 -0.5823
 8334SOL    HW131607   4.813   2.456   3.207 -2.2253 -0.1700  3.1758
 8334SOL    HW231608   4.871   2.379   3.324  2.8833 -2.2069 -0.3150
 8335SOL     OW31609  11.584   8.939   4.735  0.0974 -0.1829 -0.0747
 8335SOL    HW131610  11.504   8.887   4.731  0.1479 -0.2448 -0.2869
 8335SOL    HW231611  11.582   8.978   4.822 -0.9059  1.0089 -0.6053
 8336SOL     OW31612   5.139   3.774   5.157 -0.2073 -0.0655 -0.2777
 8336SOL    HW131613   5.047   3.780   5.180 -0.4597 -0.8116 -1.0286
 8336SOL    HW231614   5.140   3.772   5.061  0.4347 -1.8561 -0.2846
 8337SOL     OW31615   9.872   0.305   4.935  0.1657  0.3356 -0.3704
 8337SOL    HW131616   9.874   0.211   4.950  1.5181  0.2871 -0.6439
 8337SOL    HW231617   9.884   0.343   5.022 -2.0450  0.3276 -0.0141
 8338SOL     OW31618   2.688   1.446  11.153  0.1725  0.5852  0.4214
 8338SOL    HW131619   2.653   1.358  11.147 -1.3389  1.1264  1.0543
 8338SOL    HW231620   2.706   1.460  11.246 -0.1007  1.1221  0.4014
 8339SOL     OW31621   5.697   5.555  12.533  1.0068 -0.2084  0.5895
 8339SOL    HW131622   5.755   5.582  12.604  0.7368 -0.4619  0.9039
 8339SOL    HW231623   5.742   5.585  12.454  0.5688  1.4796  0.9282
 8340SOL     OW31624   4.010   7.056  12.104 -1.1661  0.0489  0.4277
 8340SOL    HW131625   4.072   7.022  12.169  1.0445  0.2891 -1.4213
 8340SOL    HW231626   3.954   6.981  12.082  0.0022 -0.8564  0.4583
 8341SOL     OW31627   1.466   6.253   5.163 -0.1014 -0.1603  0.1829
 8341SOL    HW131628   1.522   6.330   5.167 -1.0118  0.4780  1.0912
 8341SOL    HW231629   1.504   6.193   5.228 -0.5130  0.3010  0.8527
 8342SOL     OW31630   0.241   0.743   3.582 -0.1718 -0.0194 -0.0171
 8342SOL    HW131631   0.297   0.677   3.540 -0.8427 -0.8248  0.3327
 8342SOL    HW231632   0.225   0.708   3.669  1.5341  1.8112  1.1264
 8343SOL     OW31633   1.648   2.691   4.122 -0.5062  0.3889 -0.2318
 8343SOL    HW131634   1.571   2.746   4.108 -0.4117  0.8002  0.7320
 8343SOL    HW231635   1.692   2.689   4.037 -1.7852 -0.2027 -0.9173
 8344SOL     OW31636  10.913  10.493   7.468 -0.1601  0.1604 -0.3016
 8344SOL    HW131637  10.904  10.510   7.374 -0.9073  0.2534 -0.2181
 8344SOL    HW231638  10.844  10.545   7.508  0.7119  0.8182  0.3834
 8345SOL     OW31639   1.315  11.491   3.597 -0.4501 -0.0875  0.4383
 8345SOL    HW131640   1.274  11.575   3.617 -2.6006 -1.1062  0.6499
 8345SOL    HW231641   1.402  11.496   3.635 -0.8413  1.7189  1.1762
 8346SOL     OW31642   8.435   2.338  12.490  0.1204 -0.6173  0.3716
 8346SOL    HW131643   8.403   2.411  12.543 -3.3014 -1.5999 -0.1118
 8346SOL    HW231644   8.448   2.267  12.553 -1.6698 -1.0876  0.2571
 8347SOL     OW31645   9.717  11.646  10.654 -0.2092  0.0291 -0.4203
 8347SOL    HW131646   9.676  11.728  10.626 -1.0995 -0.0649  0.5807
 8347SOL    HW231647   9.662  11.614  10.725  1.9658  0.2476  1.4761
 8348SOL     OW31648   7.146   9.248   2.272 -0.1103  0.2392 -0.0253
 8348SOL    HW131649   7.060   9.287   2.258  0.0392  0.4780 -0.2835
 8348SOL    HW231650   7.207   9.321   2.266 -0.0831  0.5113  2.6400
 8349SOL     OW31651   1.506   3.701   4.114  0.0656 -0.3074 -0.2007
 8349SOL    HW131652   1.449   3.727   4.187 -0.8596  1.3790 -1.4539
 8349SOL    HW231653   1.488   3.608   4.102 -0.8118 -0.2922  0.8229
 8350SOL     OW31654   0.596   3.846   2.452 -0.5784  0.0479  0.3542
 8350SOL    HW131655   0.632   3.832   2.539  4.9429 -0.9669 -1.6836
 8350SOL    HW231656   0.572   3.939   2.451  0.5978  0.4368  2.5333
 8351SOL     OW31657   3.203   7.271   6.460 -0.0219 -0.2220  0.3133
 8351SOL    HW131658   3.237   7.265   6.549  0.7309  1.1602  0.1352
 8351SOL    HW231659   3.197   7.180   6.431  0.0779 -0.6753  1.6277
 8352SOL     OW31660   0.297   8.086   9.702  0.4510 -0.0265  0.0310
 8352SOL    HW131661   0.282   8.008   9.756  1.2470 -0.6364 -0.6095
 8352SOL    HW231662   0.216   8.096   9.652  0.4811 -0.6633 -0.1501
 8353SOL     OW31663   8.725   1.179   5.995  0.1097 -0.5972  0.5162
 8353SOL    HW131664   8.754   1.252   5.940  0.1514 -1.3587 -0.5092
 8353SOL    HW231665   8.789   1.110   5.976  0.9485 -0.4552  2.5806
 8354SOL     OW31666   5.541   0.343   5.228  0.1182  0.1806 -0.0427
 8354SOL    HW131667   5.525   0.414   5.166 -1.5954 -0.3507 -0.2540
 8354SOL    HW231668   5.635   0.348   5.246  0.2609  1.6989 -1.0097
 8355SOL     OW31669   9.906   7.940  11.473 -0.6358  0.4229  0.0787
 8355SOL    HW131670   9.919   7.929  11.567 -0.4034  0.7491  0.0869
 8355SOL    HW231671   9.990   7.971  11.441 -0.5540 -0.2045 -0.3246
 8356SOL     OW31672   3.832  12.519   3.428  0.0762  0.1863  1.0828
 8356SOL    HW131673   3.927  12.510   3.425  0.2352  1.7478 -1.5254
 8356SOL    HW231674   3.817  12.614   3.432 -1.2904  0.1581 -1.4979
 8357SOL     OW31675   5.452   3.080   1.795 -0.1720  0.0987 -0.3713
 8357SOL    HW131676   5.538   3.122   1.806 -0.7411  1.4762 -0.9029
 8357SOL    HW231677   5.465   2.990   1.824  1.6202  0.0933 -1.0689
 8358SOL     OW31678   7.586   4.285   4.243  0.1066  0.0195  0.1010
 8358SOL    HW131679   7.623   4.304   4.157 -0.2873  1.0356  0.1425
 8358SOL    HW231680   7.495   4.314   4.237  0.2442  0.6809  1.0461
 8359SOL     OW31681   3.625   4.939   9.605  0.3344  0.2437  0.4002
 8359SOL    HW131682   3.623   5.034   9.609  0.8279  0.2987 -0.5135
 8359SOL    HW231683   3.570   4.911   9.679  0.1005  1.2284  0.6126
 8360SOL     OW31684   1.101   9.217   8.519 -0.3929  0.1193  0.7330
 8360SOL    HW131685   1.019   9.266   8.515 -0.2494  0.2765 -0.7709
 8360SOL    HW231686   1.090   9.147   8.454  0.7883  0.3474  0.2645
 8361SOL     OW31687   5.028   6.576   4.742  0.5600 -0.2388  0.0095
 8361SOL    HW131688   5.005   6.630   4.667 -1.3525 -0.6675  0.2297
 8361SOL    HW231689   4.996   6.624   4.818 -0.0996 -1.0908  0.2970
 8362SOL     OW31690   9.396   7.679  10.292 -0.1257  0.2695  0.2219
 8362SOL    HW131691   9.351   7.763  10.298  2.8278  2.2577 -2.5163
 8362SOL    HW231692   9.432   7.677  10.203  2.5579 -2.4873  1.1976
 8363SOL     OW31693   0.118  12.326   0.626 -0.1326 -0.3137 -0.0035
 8363SOL    HW131694   0.205  12.366   0.622  0.2556 -1.1884 -0.3585
 8363SOL    HW231695   0.061  12.389   0.580  0.3765  0.0747 -0.1152
 8364SOL     OW31696   3.366  12.594  10.493  0.2165  0.2232  0.1202
 8364SOL    HW131697   3.395  12.592  10.401 -1.5450  0.2104 -0.4732
 8364SOL    HW231698   3.400  12.677  10.526  3.8530 -1.2513  0.5751
 8365SOL     OW31699  12.332   0.311   4.662  0.1657 -0.0989 -0.8347
 8365SOL    HW131700  12.263   0.367   4.699  0.2144  0.3881 -1.4550
 8365SOL    HW231701  12.290   0.225   4.653  0.5131 -0.5572  1.4110
 8366SOL     OW31702   2.543   4.236   1.393 -0.1139  0.2036 -0.1753
 8366SOL    HW131703   2.563   4.315   1.343  0.1348 -0.8824 -1.8737
 8366SOL    HW231704   2.613   4.230   1.457 -1.1478  2.3312  1.2603
 8367SOL     OW31705  11.508   1.668  10.622  0.0357  0.1414  0.4457
 8367SOL    HW131706  11.575   1.647  10.687 -0.8324  1.3847  1.8051
 8367SOL    HW231707  11.435   1.703  10.674 -1.3848 -0.5055 -1.0513
 8368SOL     OW31708   5.708   7.591   2.474  1.0778 -0.1947  0.5974
 8368SOL    HW131709   5.649   7.529   2.516  0.5579  0.1738  0.4254
 8368SOL    HW231710   5.774   7.612   2.540 -0.5124  1.4552  1.7414
 8369SOL     OW31711   0.358   0.752   0.732  0.4088  0.1060  0.3879
 8369SOL    HW131712   0.319   0.788   0.812  1.2721  0.5437  0.6178
 8369SOL    HW231713   0.424   0.815   0.707  1.6710 -1.1003  0.5649
 8370SOL     OW31714  11.277   4.209   7.262  0.0361 -0.3790  0.4451
 8370SOL    HW131715  11.209   4.181   7.200  0.5312 -1.5886  0.4222
 8370SOL    HW231716  11.346   4.245   7.206  0.0891 -0.6109  0.3615
 8371SOL     OW31717   8.566   4.165   5.557  0.0687  0.2100  0.1550
 8371SOL    HW131718   8.613   4.115   5.491  0.1889  1.0092 -0.3697
 8371SOL    HW231719   8.626   4.169   5.632  1.2461  1.9755 -0.8169
 8372SOL     OW31720   9.380   8.865   0.679 -0.1640  0.4138  0.3407
 8372SOL    HW131721   9.395   8.844   0.586  0.5318 -0.7230  0.6905
 8372SOL    HW231722   9.466   8.858   0.719 -0.2682  1.9780  0.8962
 8373SOL     OW31723   7.439   8.757   7.582  0.1356  0.6435 -0.2605
 8373SOL    HW131724   7.403   8.778   7.496 -4.1690 -0.1649  1.1127
 8373SOL    HW231725   7.435   8.839   7.631 -1.3276  0.2585  0.3124
 8374SOL     OW31726   6.213   7.138   8.768 -0.3783  0.0428 -0.7172
 8374SOL    HW131727   6.133   7.189   8.758  0.1670  1.3079  0.9465
 8374SOL    HW231728   6.256   7.174   8.845  2.4509  0.2799 -2.2452
 8375SOL     OW31729   1.379  11.809   1.233  0.4175 -0.3592  0.1151
 8375SOL    HW131730   1.392  11.879   1.297  0.4056  0.1032 -0.3797
 8375SOL    HW231731   1.288  11.781   1.246 -0.8199  2.1186 -1.9667
 8376SOL     OW31732   8.857   4.511   3.982  0.1457  0.0528  0.1962
 8376SOL    HW131733   8.772   4.475   3.958  0.6147  1.1050 -3.8338
 8376SOL    HW231734   8.918   4.439   3.964  0.3163  0.0354  0.8367
 8377SOL     OW31735   1.650   5.883  10.208  0.0886 -0.1315  0.1403
 8377SOL    HW131736   1.659   5.949  10.277 -2.0070 -0.8858  1.2126
 8377SOL    HW231737   1.590   5.923  10.145 -2.6614 -1.5280  1.6670
 8378SOL     OW31738   1.960  10.450   3.103  0.1657  0.2674 -0.3293
 8378SOL    HW131739   1.933  10.464   3.012 -1.6310 -4.0363 -0.7140
 8378SOL    HW231740   2.049  10.415   3.097  0.1497  0.2448 -0.4471
 8379SOL     OW31741   0.914   6.260   4.207 -0.3358 -0.3325 -0.4012
 8379SOL    HW131742   0.945   6.256   4.298  0.5368  0.6614 -0.6388
 8379SOL    HW231743   0.819   6.266   4.215 -0.2690 -0.2751  0.4507
 8380SOL     OW31744   0.289   7.498   1.038 -0.4777  0.2131 -0.5534
 8380SOL    HW131745   0.224   7.567   1.052 -2.0714 -1.0159 -1.5786
 8380SOL    HW231746   0.277   7.471   0.947  0.7526 -0.8013 -0.4541
 8381SOL     OW31747   5.263  10.271   1.776 -0.5045  0.4613  0.1836
 8381SOL    HW131748   5.168  10.282   1.770 -0.6637  1.3566  2.7788
 8381SOL    HW231749   5.273  10.180   1.807 -0.5034  0.3185 -0.2347
 8382SOL     OW31750   7.683   8.546   5.694  0.5254 -0.3670 -0.2667
 8382SOL    HW131751   7.736   8.594   5.757 -0.2294  1.4027 -0.9145
 8382SOL    HW231752   7.747   8.511   5.631  1.0013  1.3655 -0.7951
 8383SOL     OW31753   9.621   0.516   6.615 -0.1398  0.0400 -0.4641
 8383SOL    HW131754   9.639   0.581   6.547 -2.1360 -0.5138 -1.6288
 8383SOL    HW231755   9.525   0.513   6.620 -0.0997 -2.2595  0.0560
 8384SOL     OW31756  10.373  11.598   4.430  0.3275  0.3650 -0.5670
 8384SOL    HW131757  10.395  11.591   4.523 -3.4542  0.8058  0.5540
 8384SOL    HW231758  10.439  11.546   4.385  1.1967 -1.4883  2.5509
 8385SOL     OW31759   6.897   7.372   6.777 -0.5198  0.1777  0.0403
 8385SOL    HW131760   6.897   7.428   6.700 -1.7320  0.7691  0.4512
 8385SOL    HW231761   6.988   7.375   6.808  0.0649 -0.3347 -1.5189
 8386SOL     OW31762   1.830  11.943   5.466  0.0795  0.3153 -0.2566
 8386SOL    HW131763   1.848  11.857   5.428 -0.2458  0.0100  0.2638
 8386SOL    HW231764   1.915  11.987   5.466  0.4271 -0.3306  0.2595
 8387SOL     OW31765   4.997   7.054   9.591  0.8404  0.5568  0.4404
 8387SOL    HW131766   5.054   7.118   9.633 -0.8227  0.7047  2.6522
 8387SOL    HW231767   4.954   7.009   9.664 -0.2879 -0.9915 -1.1081
 8388SOL     OW31768  10.071   5.334  12.339 -0.0829  0.7081  0.0951
 8388SOL    HW131769  10.135   5.386  12.388 -0.2722 -0.0264  1.1480
 8388SOL    HW231770  10.024   5.285  12.406  0.6795 -1.5125 -0.9181
 8389SOL     OW31771   2.372   2.342  11.065  0.4306  0.5410  0.7363
 8389SOL    HW131772   2.455   2.295  11.063 -0.1726 -0.6136  1.3893
 8389SOL    HW231773   2.348   2.344  11.157 -0.7147  0.0208  0.4666
 8390SOL     OW31774   4.016   2.097   0.149 -0.0574 -0.4475 -0.1087
 8390SOL    HW131775   4.068   2.091   0.229  0.9793 -0.8705 -0.7885
 8390SOL    HW231776   3.955   2.169   0.165  0.9776  0.2968  0.5845
 8391SOL     OW31777   9.383   8.371   2.269 -0.4606  0.0815  0.5723
 8391SOL    HW131778   9.379   8.433   2.342 -0.2271 -1.0757  1.5881
 8391SOL    HW231779   9.321   8.302   2.292 -2.0580  0.7433 -1.3793
 8392SOL     OW31780   5.999   9.005   0.697 -0.5236  0.2190 -0.4364
 8392SOL    HW131781   6.044   9.086   0.672  2.3183 -0.7669  1.0076
 8392SOL    HW231782   6.065   8.936   0.683 -2.4195 -1.7032 -0.4232
 8393SOL     OW31783   5.411   1.776   8.105 -0.1620 -0.2649 -0.1278
 8393SOL    HW131784   5.495   1.813   8.080  0.0620 -0.7887 -0.1573
 8393SOL    HW231785   5.351   1.851   8.106 -0.0541 -0.1413 -1.6665
 8394SOL     OW31786   2.929  11.807   7.274 -0.0221  0.7561 -0.2430
 8394SOL    HW131787   2.920  11.783   7.182 -3.7685  1.7473 -0.2847
 8394SOL    HW231788   2.922  11.902   7.276 -0.5728  0.7114  1.1130
 8395SOL     OW31789   0.570  10.758   9.997 -0.5198 -0.2151  0.1307
 8395SOL    HW131790   0.643  10.708  10.032  0.1246  0.9672  0.5280
 8395SOL    HW231791   0.510  10.692   9.962  0.0379 -1.2760  1.1275
 8396SOL     OW31792   2.528   4.441   6.641 -0.4169  0.3169  0.3602
 8396SOL    HW131793   2.500   4.452   6.732 -1.8270  1.3536 -0.1613
 8396SOL    HW231794   2.464   4.381   6.603 -0.0962  0.2383 -0.0637
 8397SOL     OW31795   0.841  11.054   2.037  0.1091  0.6694 -0.0062
 8397SOL    HW131796   0.929  11.019   2.021 -0.4534 -0.5020 -0.5853
 8397SOL    HW231797   0.852  11.149   2.029  1.0689  0.4772 -1.4236
 8398SOL     OW31798   8.566   6.302   2.427 -0.6696 -0.7682  0.4584
 8398SOL    HW131799   8.572   6.213   2.463 -0.0934 -1.3956 -1.0645
 8398SOL    HW231800   8.643   6.347   2.463  0.7041 -1.8132 -1.0108
 8399SOL     OW31801   4.594   0.104  11.008  0.2794  0.1927 -0.0271
 8399SOL    HW131802   4.587   0.137  10.918  1.3684  2.1472  0.5455
 8399SOL    HW231803   4.571   0.179  11.063  1.5277 -0.3814  1.3471
 8400SOL     OW31804   1.428   7.431  11.941 -0.2931 -0.3771 -0.6578
 8400SOL    HW131805   1.374   7.484  11.883  0.7051 -0.2535 -1.4861
 8400SOL    HW231806   1.487   7.383  11.883  2.2363  1.3683  0.2892
 8401SOL     OW31807   9.927   3.235  10.671 -0.4353  0.1139  0.0305
 8401SOL    HW131808   9.906   3.178  10.598 -2.0985  0.5967  0.1036
 8401SOL    HW231809  10.000   3.191  10.716 -1.8387 -2.1185  0.2733
 8402SOL     OW31810   1.556   8.740   4.280 -0.0419  0.4211  0.1041
 8402SOL    HW131811   1.480   8.790   4.251 -0.0251  0.5275  0.2475
 8402SOL    HW231812   1.524   8.650   4.286 -0.1992  0.4895  0.3136
 8403SOL     OW31813   2.284  12.308   9.581 -0.1455 -0.7647  0.1447
 8403SOL    HW131814   2.272  12.374   9.513  0.3230 -1.0078 -0.1824
 8403SOL    HW231815   2.330  12.353   9.652  1.3026 -1.0361 -0.5900
 8404SOL     OW31816   2.450  11.069   2.654 -0.1096  0.1916  0.1638
 8404SOL    HW131817   2.531  11.044   2.609  1.5330  2.1757  1.8235
 8404SOL    HW231818   2.405  10.986   2.670  2.0840 -1.0899  0.0987
 8405SOL     OW31819   5.760   2.609   2.673  0.5495  0.2231  0.5047
 8405SOL    HW131820   5.682   2.565   2.707  0.1587  0.6618  0.1842
 8405SOL    HW231821   5.788   2.667   2.745  1.0346 -0.4971  0.9066
 8406SOL     OW31822   1.150  10.400   8.392 -0.1791 -0.0525 -0.1641
 8406SOL    HW131823   1.237  10.377   8.360  0.2939  0.2854  0.8462
 8406SOL    HW231824   1.134  10.488   8.359  0.6508  0.6227  1.1637
 8407SOL     OW31825  10.247   1.798  12.588 -0.1478 -0.3924 -0.3872
 8407SOL    HW131826  10.258   1.891  12.610 -1.1201 -0.0643 -1.2240
 8407SOL    HW231827  10.160   1.793  12.550 -0.0188 -1.6243 -0.5429
 8408SOL     OW31828   3.140   8.221   9.692  0.1560 -0.0397 -0.0242
 8408SOL    HW131829   3.214   8.161   9.687  1.3768  1.4397 -0.0964
 8408SOL    HW231830   3.150   8.278   9.616  0.3449  1.7218  1.2562
 8409SOL     OW31831   1.839   8.447   7.490  0.7524  0.5999  0.1048
 8409SOL    HW131832   1.781   8.398   7.548  1.7297  0.7210  1.2259
 8409SOL    HW231833   1.837   8.399   7.407 -0.6607  0.4119  0.2258
 8410SOL     OW31834   1.286   0.470  10.687 -0.4221  0.4580 -0.3041
 8410SOL    HW131835   1.374   0.434  10.674  0.2983  0.8546  2.7694
 8410SOL    HW231836   1.228   0.396  10.671  0.6205 -0.4191 -0.1844
 8411SOL     OW31837   5.898   2.676   7.021 -0.4667  0.1728  0.2830
 8411SOL    HW131838   5.803   2.692   7.017 -0.3854  0.5111 -0.6181
 8411SOL    HW231839   5.914   2.609   6.954 -0.2479 -0.8823  1.3648
 8412SOL     OW31840  11.859   9.631   3.243  0.0584  0.0586  0.2818
 8412SOL    HW131841  11.873   9.588   3.327 -0.6300  1.0296  0.9181
 8412SOL    HW231842  11.810   9.711   3.264 -2.1321 -0.7681 -1.2561
 8413SOL     OW31843  10.181   6.513   9.587  0.7679 -0.7138 -0.0748
 8413SOL    HW131844  10.106   6.573   9.587  1.4051  0.0960 -0.4930
 8413SOL    HW231845  10.160   6.450   9.518  0.3873 -0.6036 -0.0656
 8414SOL     OW31846   8.606   5.758   2.163 -0.5150  0.4056  0.0358
 8414SOL    HW131847   8.691   5.801   2.172 -0.5956  0.7904 -0.8774
 8414SOL    HW231848   8.586   5.764   2.069 -1.2658 -0.2211  0.1423
 8415SOL     OW31849   6.078   5.310   8.597 -0.0472 -0.1108  0.4481
 8415SOL    HW131850   6.135   5.234   8.585  0.2618  0.2314 -0.3534
 8415SOL    HW231851   6.135   5.376   8.637 -0.2431 -0.2177  0.8994
 8416SOL     OW31852   3.759   0.291   3.341  0.1406 -0.1074  0.1648
 8416SOL    HW131853   3.737   0.224   3.406 -1.7812 -0.4848 -0.8027
 8416SOL    HW231854   3.793   0.241   3.266  1.7093  0.2767  0.5817
 8417SOL     OW31855   3.647   6.662  10.940 -0.3545 -0.1915 -0.4614
 8417SOL    HW131856   3.641   6.566  10.937 -2.0609 -0.1640  0.4909
 8417SOL    HW231857   3.557   6.691  10.925 -0.0600  1.2251  0.4139
 8418SOL     OW31858   8.127   0.130   8.125  0.0661  1.0806  0.5747
 8418SOL    HW131859   8.076   0.210   8.139 -1.1871  0.3863  0.1164
 8418SOL    HW231860   8.121   0.083   8.208 -1.8621  0.0273 -0.0911
 8419SOL     OW31861   2.237   6.318   9.464  0.3023  0.6441  0.3126
 8419SOL    HW131862   2.146   6.291   9.446  0.3439  0.3699  0.5073
 8419SOL    HW231863   2.248   6.399   9.414  0.2212  0.2222 -0.4048
 8420SOL     OW31864   3.414   6.165   3.734 -0.5209 -0.6368  0.4036
 8420SOL    HW131865   3.338   6.211   3.771  0.1266  0.6057  0.2500
 8420SOL    HW231866   3.388   6.147   3.643  0.0312  1.5323 -0.2640
 8421SOL     OW31867  11.027   5.346   2.770 -0.1171  0.3227 -0.1839
 8421SOL    HW131868  11.086   5.279   2.803 -1.0596 -0.2635  0.3757
 8421SOL    HW231869  11.084   5.419   2.745  0.7796  0.0831  1.0813
 8422SOL     OW31870   1.501   2.675   6.712 -0.4366 -0.2898 -0.1349
 8422SOL    HW131871   1.407   2.667   6.723 -0.3994  1.5858  2.3282
 8422SOL    HW231872   1.536   2.681   6.801  1.6431  2.0882 -0.9715
 8423SOL     OW31873   2.808   7.403  10.294  0.2435  0.4380 -0.1525
 8423SOL    HW131874   2.867   7.357  10.354 -0.4376  1.8352  1.6705
 8423SOL    HW231875   2.855   7.484  10.272  0.3297  0.1037 -1.2625
 8424SOL     OW31876   3.606  12.669   1.779  0.4667  0.2211 -0.0062
 8424SOL    HW131877   3.643  12.708   1.700  1.8484 -2.9733 -1.1011
 8424SOL    HW231878   3.671  12.687   1.847  0.9768  0.0443 -0.4370
 8425SOL     OW31879   5.216   5.036  11.621 -0.0594  0.5358 -0.0669
 8425SOL    HW131880   5.133   5.076  11.645 -0.8612 -0.5623 -0.9674
 8425SOL    HW231881   5.240   4.982  11.697  1.8308  3.7508  1.8736
 8426SOL     OW31882   6.023   3.509   8.275 -0.4573 -0.1542  0.3797
 8426SOL    HW131883   6.029   3.605   8.278  1.5466 -0.2727  1.3140
 8426SOL    HW231884   5.934   3.493   8.243 -0.3888  2.0155 -1.1858
 8427SOL     OW31885   0.945   8.804   2.557 -0.1795  0.1603  0.0036
 8427SOL    HW131886   0.980   8.715   2.570 -0.5937  0.0853  0.6584
 8427SOL    HW231887   1.003   8.843   2.491  0.3199 -0.4191  0.0843
 8428SOL     OW31888   9.140  10.101   8.174 -0.4027  0.1582  0.3755
 8428SOL    HW131889   9.136  10.117   8.080  1.0130  2.3057  0.5964
 8428SOL    HW231890   9.055  10.129   8.207 -0.9548 -0.7412 -0.2576
 8429SOL     OW31891   5.637   2.222  11.950 -1.0664  0.3252  0.0641
 8429SOL    HW131892   5.571   2.215  12.019  0.4286  1.1603  1.6628
 8429SOL    HW231893   5.694   2.147  11.964 -1.1018  0.1618 -0.6627
 8430SOL     OW31894   9.811   9.592   7.622 -0.2313  0.5938  0.0022
 8430SOL    HW131895   9.832   9.541   7.544  1.9577  0.7479  0.4259
 8430SOL    HW231896   9.894   9.597   7.671 -1.3262  1.2464  1.8974
 8431SOL     OW31897   4.462   0.348   5.572  0.2152  0.3022 -0.5010
 8431SOL    HW131898   4.423   0.400   5.642  0.1924  0.2813 -0.4985
 8431SOL    HW231899   4.452   0.257   5.601  0.5290  0.3102 -0.3621
 8432SOL     OW31900   5.925   2.570   7.806  0.3642 -0.1179 -0.3617
 8432SOL    HW131901   5.959   2.502   7.864 -2.0335 -0.1075  1.1856
 8432SOL    HW231902   5.974   2.649   7.830  0.2831 -0.3964  0.7704
 8433SOL     OW31903   4.587   3.693   0.886  0.6099  0.3935 -0.1604
 8433SOL    HW131904   4.562   3.731   0.970  0.3399  1.5326 -0.7340
 8433SOL    HW231905   4.570   3.762   0.823  0.9021 -0.4141 -1.1467
 8434SOL     OW31906   9.686   6.957   4.334  0.4179 -0.0563 -0.3592
 8434SOL    HW131907   9.620   6.927   4.395  1.0417 -0.3275  0.1992
 8434SOL    HW231908   9.667   7.050   4.321  0.7386  0.2045  0.8694
 8435SOL     OW31909   7.366   6.102   3.928  0.2295  0.2666 -0.3567
 8435SOL    HW131910   7.323   6.017   3.918 -0.4717  0.8531 -2.8815
 8435SOL    HW231911   7.294   6.164   3.943  0.7385  0.4854  1.5431
 8436SOL     OW31912   8.937  11.286   6.078 -0.1373 -0.3202  0.4305
 8436SOL    HW131913   8.877  11.331   6.019 -0.8350  0.1044  1.4294
 8436SOL    HW231914   8.899  11.298   6.165  1.7589  0.5479  1.1945
 8437SOL     OW31915   3.516   0.922   4.011 -0.3550  0.2840  0.1518
 8437SOL    HW131916   3.520   1.018   4.014  1.0801  0.3657 -2.1796
 8437SOL    HW231917   3.492   0.901   3.921 -0.8251 -1.5727  0.6613
 8438SOL     OW31918  12.299  10.057   8.928 -0.2333  0.6691  0.1295
 8438SOL    HW131919  12.282   9.977   8.878  0.1515  0.9115 -0.4008
 8438SOL    HW231920  12.294  10.127   8.862  0.0472  1.0178  0.4796
 8439SOL     OW31921   4.449  10.931  11.007  0.1053 -0.2942 -0.1387
 8439SOL    HW131922   4.373  10.960  11.056 -0.2653 -1.3752 -0.0510
 8439SOL    HW231923   4.484  11.011  10.967 -1.2651  0.1616 -0.4659
 8440SOL     OW31924   6.268   1.625   0.017 -0.5607  0.2554  0.0839
 8440SOL    HW131925   6.294   1.686  -0.052 -0.6157 -1.4002 -1.4877
 8440SOL    HW231926   6.182   1.656   0.046  0.3786  2.1924  0.9483
 8441SOL     OW31927   1.660   8.696  11.836 -0.5643  0.4448  0.3868
 8441SOL    HW131928   1.643   8.611  11.798 -0.0553  0.3738  0.3085
 8441SOL    HW231929   1.668   8.680  11.930 -1.6311  0.5903  0.5137
 8442SOL     OW31930   1.119   5.573   6.765  0.6322  0.4899 -0.0919
 8442SOL    HW131931   1.064   5.573   6.687 -0.8854  1.0607  0.9445
 8442SOL    HW231932   1.072   5.518   6.828  1.3488  0.8225  0.7522
 8443SOL     OW31933   5.708  10.385   7.183 -0.4290 -0.4223  0.3496
 8443SOL    HW131934   5.720  10.381   7.088  1.5169 -0.4104  0.5640
 8443SOL    HW231935   5.678  10.475   7.199  2.5611  0.7507 -0.0013
 8444SOL     OW31936  12.722   6.105  10.051 -0.3898 -0.2558  0.0855
 8444SOL    HW131937  12.631   6.120  10.078  0.0453 -2.8999  3.5741
 8444SOL    HW231938  12.766   6.188  10.070 -1.9246  1.1009 -1.7192
 8445SOL     OW31939   1.243  10.514  10.396  0.2760 -0.1646 -0.4304
 8445SOL    HW131940   1.299  10.536  10.471  0.4299 -2.3183  0.1542
 8445SOL    HW231941   1.163  10.480  10.436  0.0868 -0.7040 -1.2584
 8446SOL     OW31942   4.380   0.546   7.028  0.1927  0.4580  0.0835
 8446SOL    HW131943   4.295   0.528   6.987  0.4408  0.1401 -0.3034
 8446SOL    HW231944   4.410   0.627   6.987  0.7751 -0.2433 -0.9268
 8447SOL     OW31945   5.680   5.117   3.729 -0.6567  0.3884 -0.0728
 8447SOL    HW131946   5.726   5.034   3.715 -0.1762  0.2737  1.8652
 8447SOL    HW231947   5.589   5.091   3.746 -1.1484  0.5012 -2.2408
 8448SOL     OW31948   0.127   8.968   5.798 -0.1840  0.0472 -0.2164
 8448SOL    HW131949   0.093   8.918   5.871 -1.3069 -0.1589 -0.8612
 8448SOL    HW231950   0.210   9.004   5.830 -0.8848  0.3758  1.3029
 8449SOL     OW31951   7.918   2.415  10.303 -0.8100 -0.6024 -0.2787
 8449SOL    HW131952   7.880   2.419  10.391 -1.4029 -1.8053 -0.4595
 8449SOL    HW231953   7.850   2.452  10.246 -0.8530 -0.7820 -0.3461
 8450SOL     OW31954   9.133  11.722   4.471 -0.2856  0.0356 -0.5809
 8450SOL    HW131955   9.114  11.760   4.385 -0.2788 -0.6945 -0.9082
 8450SOL    HW231956   9.135  11.628   4.456 -0.0854 -0.0878  0.1844
 8451SOL     OW31957  11.076   8.219   8.101 -0.5428  0.5055  0.1259
 8451SOL    HW131958  11.017   8.236   8.174 -0.0780 -0.6311  0.7913
 8451SOL    HW231959  11.029   8.156   8.046 -0.3693  0.3774  0.1226
 8452SOL     OW31960   3.004  11.172   5.404  0.2675  0.3288 -0.1326
 8452SOL    HW131961   2.912  11.156   5.384 -0.4605  1.4896  2.0151
 8452SOL    HW231962   3.040  11.086   5.424 -0.7222  0.0201  0.3716
 8453SOL     OW31963  12.738  10.617   3.091  0.1450  0.1391  0.5099
 8453SOL    HW131964  12.830  10.615   3.065 -0.7013  0.3775 -3.0086
 8453SOL    HW231965  12.723  10.532   3.131  1.6244 -0.4286 -0.0607
 8454SOL     OW31966   8.065   0.203   5.118 -0.1472 -0.4073  0.3128
 8454SOL    HW131967   8.140   0.258   5.142 -0.6122 -0.3100  1.6784
 8454SOL    HW231968   8.056   0.213   5.024  0.7785  0.5871  0.3125
 8455SOL     OW31969   4.405  11.112   8.394 -0.0433  0.5904  0.1299
 8455SOL    HW131970   4.398  11.202   8.423  1.9387  0.4001  1.4192
 8455SOL    HW231971   4.337  11.065   8.443  0.5306  0.9885  1.3251
 8456SOL     OW31972   3.820   0.977   4.293  0.1919 -0.4528  0.1816
 8456SOL    HW131973   3.816   1.033   4.216 -1.3216  0.6017  0.9811
 8456SOL    HW231974   3.793   0.891   4.262 -0.9188  0.0810 -0.3814
 8457SOL     OW31975   7.812   7.706  12.631 -0.5859 -0.2948 -0.0484
 8457SOL    HW131976   7.896   7.671  12.661 -1.9304 -2.2889  1.7910
 8457SOL    HW231977   7.786   7.649  12.558  0.1112  1.0218 -1.3726
 8458SOL     OW31978   5.331   6.279   5.773  0.4161 -0.1305 -0.4679
 8458SOL    HW131979   5.272   6.308   5.843  1.2996  2.5984 -0.7505
 8458SOL    HW231980   5.273   6.260   5.699 -0.3712 -1.1782  0.3885
 8459SOL     OW31981  11.646   0.623   9.654  0.4879 -0.6104  0.2842
 8459SOL    HW131982  11.684   0.711   9.654  1.2639 -0.9223  1.0525
 8459SOL    HW231983  11.679   0.583   9.735 -1.1655 -1.0518  0.7644
 8460SOL     OW31984  11.860   1.883  10.966  0.2446  0.2999 -0.6717
 8460SOL    HW131985  11.950   1.914  10.963  1.2344 -2.1065  1.0198
 8460SOL    HW231986  11.865   1.789  10.950 -1.9700  0.0813 -0.5022
 8461SOL     OW31987   8.361   0.636   2.627  0.0150 -0.0821  0.4148
 8461SOL    HW131988   8.391   0.726   2.625 -0.8611  0.2494  1.1338
 8461SOL    HW231989   8.268   0.641   2.604  0.1421 -0.9008 -0.3494
 8462SOL     OW31990   1.841   6.467   6.018 -0.3653  0.3421 -0.1133
 8462SOL    HW131991   1.844   6.385   6.067 -2.9545 -0.2660 -0.7712
 8462SOL    HW231992   1.819   6.440   5.929 -0.8608  1.7141 -0.4324
 8463SOL     OW31993  12.734   2.832   5.189 -0.4384 -0.0828  1.1269
 8463SOL    HW131994  12.761   2.867   5.104  0.0762  0.4369  1.5003
 8463SOL    HW231995  12.639   2.846   5.192 -0.3967  0.2756  0.8123
 8464SOL     OW31996  10.482   4.044   2.674  0.0714  0.2516  0.0090
 8464SOL    HW131997  10.397   4.078   2.646  0.9271  2.8848  0.3156
 8464SOL    HW231998  10.486   4.065   2.768  1.9673  2.4706 -0.4682
 8465SOL     OW31999   2.216   5.163  10.577  0.5380 -0.3843 -0.2989
 8465SOL    HW132000   2.175   5.247  10.556 -0.1574 -0.2418  1.4052
 8465SOL    HW232001   2.265   5.181  10.658  1.8887 -1.1932 -0.9096
 8466SOL     OW32002   2.236   8.751   2.382  0.2177 -0.2559  0.1071
 8466SOL    HW132003   2.204   8.836   2.352  0.0232 -1.4874 -3.6783
 8466SOL    HW232004   2.158   8.709   2.420 -1.0282 -0.4735 -2.4403
 8467SOL     OW32005   4.078   7.996   6.447  0.4506 -0.6244 -0.2310
 8467SOL    HW132006   4.119   8.011   6.362 -0.0647  0.3331 -0.3273
 8467SOL    HW232007   4.127   7.924   6.486  0.8477 -0.9056 -1.2366
 8468SOL     OW32008  11.384   3.303  10.945 -0.6919 -0.1458  0.3549
 8468SOL    HW132009  11.347   3.241  10.882 -0.8728 -0.7228  1.0065
 8468SOL    HW232010  11.345   3.387  10.922  0.5443  0.0111 -1.3603
 8469SOL     OW32011   6.008   5.604  12.007 -0.4274 -0.4176  0.1725
 8469SOL    HW132012   5.973   5.693  12.006 -0.7236 -0.5397 -0.3169
 8469SOL    HW232013   6.059   5.600  12.088 -1.7103 -0.2942  1.0275
 8470SOL     OW32014  12.667   2.539   6.518 -0.4656  0.3691  0.3771
 8470SOL    HW132015  12.748   2.570   6.558 -0.8527 -0.4890  1.8928
 8470SOL    HW232016  12.668   2.577   6.430  1.8622 -0.1191  0.1304
 8471SOL     OW32017   4.199   2.739   6.217 -0.3953  0.5043 -0.3914
 8471SOL    HW132018   4.290   2.712   6.231  0.4175  2.9777 -0.4916
 8471SOL    HW232019   4.200   2.784   6.132 -1.4947  1.3857  0.0391
 8472SOL     OW32020   6.014   7.910   6.049 -0.4828  0.0890 -0.4957
 8472SOL    HW132021   6.107   7.933   6.046 -0.5818  0.4554 -0.8239
 8472SOL    HW232022   5.998   7.868   5.965 -0.0161 -2.3452  0.5600
 8473SOL     OW32023   2.543   1.440   2.945 -0.4398  0.4461  0.5420
 8473SOL    HW132024   2.549   1.444   2.850 -2.3929 -0.7687  0.3097
 8473SOL    HW232025   2.605   1.372   2.970  1.2022  1.8060  0.3397
 8474SOL     OW32026   7.393   0.266   2.771  0.3496 -0.2569  0.3817
 8474SOL    HW132027   7.320   0.249   2.831  1.4314 -0.5281  1.6811
 8474SOL    HW232028   7.352   0.299   2.692 -1.0840  1.0993  1.6244
 8475SOL     OW32029   9.118   1.793   4.186  0.4275  0.5112  0.1758
 8475SOL    HW132030   9.086   1.824   4.101 -0.6410  0.7125  0.6413
 8475SOL    HW232031   9.127   1.872   4.239 -0.6490  0.2317  0.8152
 8476SOL     OW32032   0.135  10.219   9.648  0.3110  0.3353  0.5390
 8476SOL    HW132033   0.047  10.246   9.675 -0.4674 -1.1017 -0.3964
 8476SOL    HW232034   0.137  10.237   9.554 -0.1880 -2.4596 -0.1091
 8477SOL     OW32035   5.416   5.353   4.525 -0.2268 -0.8664  0.7540
 8477SOL    HW132036   5.391   5.279   4.580  0.1106 -0.0590  2.0426
 8477SOL    HW232037   5.490   5.321   4.473 -2.3213 -2.5509 -1.4307
 8478SOL     OW32038  11.976  10.992   8.339 -0.0632  0.2534  0.0052
 8478SOL    HW132039  11.989  11.022   8.429  0.3814 -0.0222  0.0359
 8478SOL    HW232040  11.987  11.072   8.286  2.8498 -0.0943 -0.0527
 8479SOL     OW32041   8.570   6.521  11.640 -0.0487 -0.3986 -0.5748
 8479SOL    HW132042   8.523   6.581  11.698  0.6697 -1.1741  0.8403
 8479SOL    HW232043   8.514   6.515  11.562  0.0517  2.4019 -0.9750
 8480SOL     OW32044  10.643   2.489   8.346  0.2260 -0.2567  0.1911
 8480SOL    HW132045  10.738   2.497   8.342  0.0736  2.2341  0.3109
 8480SOL    HW232046  10.623   2.491   8.440 -0.0189  0.7567  0.1288
 8481SOL     OW32047   4.657   8.630   6.515  0.4530 -0.3525  0.1915
 8481SOL    HW132048   4.681   8.719   6.542  2.4191 -0.4203 -1.1707
 8481SOL    HW232049   4.561   8.628   6.524  0.4202  1.6472  0.9312
 8482SOL     OW32050   3.251  10.894   0.314  0.4141 -0.3127  0.4127
 8482SOL    HW132051   3.276  10.899   0.406 -0.1847 -0.0246  0.5600
 8482SOL    HW232052   3.313  10.952   0.270  0.4417 -0.1347  0.6856
 8483SOL     OW32053   4.739  11.818   5.758  0.3481  0.1857 -0.3058
 8483SOL    HW132054   4.812  11.789   5.702  2.9201  1.1962  2.2650
 8483SOL    HW232055   4.778  11.883   5.817 -2.4660  0.1672  1.7936
 8484SOL     OW32056   2.734   3.561   1.382 -0.5801  0.4039 -0.1907
 8484SOL    HW132057   2.757   3.475   1.415  0.0048  1.2566  1.7877
 8484SOL    HW232058   2.751   3.556   1.288  2.2395 -0.7971  0.2747
 8485SOL     OW32059   9.786   8.732  10.491  0.2233 -0.4186  0.3204
 8485SOL    HW132060   9.741   8.724  10.407 -0.4593  0.0686  0.6298
 8485SOL    HW232061   9.839   8.653  10.497  1.2261  0.1159 -1.1142
 8486SOL     OW32062   9.679   3.286  11.077 -0.3371 -0.4960  0.2256
 8486SOL    HW132063   9.637   3.353  11.131 -2.3124 -2.2282  0.9646
 8486SOL    HW232064   9.758   3.329  11.044 -0.8706  1.7779  1.6348
 8487SOL     OW32065  10.888   9.557  10.130 -0.0887 -0.4266  0.0740
 8487SOL    HW132066  10.919   9.644  10.156 -4.9035  1.4629  0.4860
 8487SOL    HW232067  10.936   9.497  10.187  1.6350  2.1537  1.5765
 8488SOL     OW32068   2.241   2.902   3.957 -0.1638  0.0257 -0.5205
 8488SOL    HW132069   2.250   2.901   4.053 -3.2927  2.7335 -0.0174
 8488SOL    HW232070   2.212   2.813   3.936 -0.4097 -0.3470  1.1768
 8489SOL     OW32071   5.027   1.903   0.655  0.1312  0.2412 -0.4100
 8489SOL    HW132072   4.984   1.819   0.670 -0.3708  0.7108  0.9497
 8489SOL    HW232073   4.956   1.966   0.652  0.5698  0.7358 -0.5176
 8490SOL     OW32074   8.679   5.622   4.005  0.1360 -0.1211  0.2082
 8490SOL    HW132075   8.591   5.657   4.019  0.1192 -0.5390  1.2361
 8490SOL    HW232076   8.676   5.584   3.917 -0.1721  1.4235 -0.4853
 8491SOL     OW32077  11.558   1.745   0.009  0.1009 -0.3758  0.1302
 8491SOL    HW132078  11.500   1.731  -0.066  0.7907  0.2227 -0.5271
 8491SOL    HW232079  11.608   1.823  -0.013 -1.1654  1.0976  2.1436
 8492SOL     OW32080   3.674   3.049  10.431  0.0219  0.1281 -0.4494
 8492SOL    HW132081   3.722   2.987  10.376  0.2509  1.6845 -2.0861
 8492SOL    HW232082   3.738   3.116  10.452 -0.6768  0.7272 -0.2160
 8493SOL     OW32083  12.720   1.608  12.253 -0.5499  0.1194 -0.2132
 8493SOL    HW132084  12.741   1.565  12.336 -0.8698  0.7488  0.2060
 8493SOL    HW232085  12.786   1.575  12.192  1.0913  1.2899  0.8180
 8494SOL     OW32086   0.997  12.733   5.459 -0.0907 -0.3512 -0.1378
 8494SOL    HW132087   1.085  12.768   5.446  1.3499 -3.8996 -1.2224
 8494SOL    HW232088   0.961  12.724   5.370 -1.0636 -0.1394  0.2164
 8495SOL     OW32089   1.482   0.491   0.654  0.8595 -0.4056 -0.1115
 8495SOL    HW132090   1.437   0.518   0.734  0.3322  0.4155 -0.6776
 8495SOL    HW232091   1.428   0.525   0.583  0.8886 -1.8062 -0.8494
 8496SOL     OW32092   6.982  10.643  12.416 -0.2280  0.2205 -0.2715
 8496SOL    HW132093   7.006  10.657  12.325  2.4301 -1.3467  0.0618
 8496SOL    HW232094   6.927  10.565  12.415 -0.8489  0.6558 -0.5825
 8497SOL     OW32095   4.447   0.075   2.664  0.1692  0.7752 -0.0884
 8497SOL    HW132096   4.441  -0.019   2.648 -0.1709  0.8411 -0.3555
 8497SOL    HW232097   4.411   0.116   2.585 -0.3035  1.1200  0.2957
 8498SOL     OW32098  10.394   2.341   5.741 -0.5793  0.6177  0.0266
 8498SOL    HW132099  10.383   2.249   5.719  1.0962  0.4758 -0.3281
 8498SOL    HW232100  10.420   2.383   5.658 -1.8691  1.5320  0.0483
 8499SOL     OW32101   7.420  12.328   5.381 -0.2291  0.5560  0.1122
 8499SOL    HW132102   7.498  12.360   5.337  0.5358 -1.2375  0.0623
 8499SOL    HW232103   7.453  12.289   5.462 -1.1436  0.3422  0.3947
 8500SOL     OW32104  10.137   8.026   7.205  0.3611 -0.0840  0.5535
 8500SOL    HW132105  10.131   7.946   7.258 -0.0918 -0.9469 -0.7480
 8500SOL    HW232106  10.084   8.007   7.128  0.1206  1.5540  0.2937
 8501SOL     OW32107  12.175   6.053   8.687  0.0170 -0.4459  0.3574
 8501SOL    HW132108  12.140   5.965   8.700 -2.3471  0.4784  0.8007
 8501SOL    HW232109  12.238   6.044   8.615 -0.8210 -2.3358 -0.1890
 8502SOL     OW32110   8.304  11.606  10.201  0.0799 -0.2553  0.0765
 8502SOL    HW132111   8.279  11.693  10.171  0.8349  0.1798  0.6746
 8502SOL    HW232112   8.346  11.620  10.285  0.8451 -1.1212 -0.1371
 8503SOL     OW32113   9.670   6.858   8.590 -0.6318 -0.4684  0.1439
 8503SOL    HW132114   9.748   6.913   8.596 -0.5125 -0.4659 -1.1106
 8503SOL    HW232115   9.636   6.855   8.679  0.4590  0.0252  0.6013
 8504SOL     OW32116   2.328  11.592   1.379 -0.9413 -0.1079  0.0407
 8504SOL    HW132117   2.351  11.685   1.370  3.7278 -1.0729 -0.8186
 8504SOL    HW232118   2.257  11.591   1.442 -0.9628  4.0234  0.3733
 8505SOL     OW32119  12.231   0.973   4.368  0.1275 -0.0888 -0.3056
 8505SOL    HW132120  12.267   1.018   4.292  1.9577  1.5334  1.4066
 8505SOL    HW232121  12.266   0.884   4.361 -0.4715 -0.2390 -1.7852
 8506SOL     OW32122   2.014   7.534   5.035 -0.2677 -0.1827 -0.5133
 8506SOL    HW132123   1.953   7.591   5.081 -0.4581 -0.1060 -0.8558
 8506SOL    HW232124   2.019   7.571   4.947 -1.2182 -1.3118 -1.0707
 8507SOL     OW32125   5.648   2.193   2.878 -0.0462 -0.2089  1.0612
 8507SOL    HW132126   5.630   2.188   2.972  1.9324 -0.5281  1.4702
 8507SOL    HW232127   5.743   2.204   2.873 -0.0411 -0.8755 -0.9295
 8508SOL     OW32128   2.757   0.746   0.790  0.3542  0.0828 -0.8319
 8508SOL    HW132129   2.814   0.801   0.737  1.3719  0.4316  0.5759
 8508SOL    HW232130   2.816   0.682   0.831 -0.4176 -0.2798 -0.2487
 8509SOL     OW32131  12.333   3.946  12.577  0.1436 -0.5937 -0.4555
 8509SOL    HW132132  12.365   4.028  12.614 -1.3352 -0.5715  0.8736
 8509SOL    HW232133  12.382   3.878  12.624 -0.2510 -0.5119  0.0850
 8510SOL     OW32134   3.119   4.587  12.095 -0.5216 -0.5379  0.6161
 8510SOL    HW132135   3.116   4.581  12.190  1.5724  0.0047  0.7576
 8510SOL    HW232136   3.116   4.681  12.076 -3.8556 -0.6578 -0.0738
 8511SOL     OW32137  10.027   1.887   8.865  0.3828 -0.1230  0.0599
 8511SOL    HW132138   9.934   1.869   8.877  0.6590 -0.9569  1.1392
 8511SOL    HW232139  10.060   1.904   8.953  1.2516  0.1405 -0.3047
 8512SOL     OW32140   7.043   9.547   0.176  0.0752  0.3991  0.3691
 8512SOL    HW132141   7.025   9.461   0.138  1.0532  0.2509  0.2327
 8512SOL    HW232142   7.106   9.588   0.117 -1.4314  1.8110 -0.3535
 8513SOL     OW32143   0.872  10.713   9.523 -0.0692 -0.2759  0.2592
 8513SOL    HW132144   0.866  10.801   9.486  0.4738 -0.0492  0.7006
 8513SOL    HW232145   0.852  10.655   9.449 -2.0129  0.2313  0.3179
 8514SOL     OW32146   4.836   2.205  10.888 -0.0483 -0.0659 -0.4115
 8514SOL    HW132147   4.875   2.119  10.869 -1.7654 -1.0648  0.3760
 8514SOL    HW232148   4.752   2.203  10.842  0.0905  1.4007 -0.7651
 8515SOL     OW32149   2.550   3.575   1.654  0.1325 -0.2521  0.3684
 8515SOL    HW132150   2.538   3.591   1.560  0.3327 -1.2517  0.1574
 8515SOL    HW232151   2.545   3.662   1.694 -2.0419  0.0008 -0.3177
 8516SOL     OW32152   6.534   9.923   8.170 -0.4980  1.0810  0.5367
 8516SOL    HW132153   6.445   9.947   8.194 -1.4398 -1.0612 -0.5432
 8516SOL    HW232154   6.528   9.897   8.078  1.7878  3.3195 -0.3508
 8517SOL     OW32155   7.420   9.769   3.490 -0.2753  0.2758  0.4454
 8517SOL    HW132156   7.499   9.792   3.441  0.1569 -0.0362  0.9849
 8517SOL    HW232157   7.392   9.685   3.453 -0.4078  0.4279  0.1972
 8518SOL     OW32158   7.569   3.696  11.412  0.1788 -0.0870 -0.1074
 8518SOL    HW132159   7.474   3.683  11.415 -0.0957  1.3756 -1.1943
 8518SOL    HW232160   7.601   3.660  11.494 -1.0374 -2.5847 -0.6483
 8519SOL     OW32161  10.267  11.347  10.762  0.4225  0.1314 -0.0945
 8519SOL    HW132162  10.327  11.365  10.690  1.5591  0.7699  0.9712
 8519SOL    HW232163  10.288  11.258  10.789 -0.9325 -0.6126 -1.3873
 8520SOL     OW32164   2.626   8.957   4.852 -0.1175  0.2927 -0.1151
 8520SOL    HW132165   2.709   8.981   4.893 -0.0594  0.0991 -0.1179
 8520SOL    HW232166   2.639   8.973   4.759  0.0149 -0.0057 -0.1515
 8521SOL     OW32167   9.865   4.863   3.149 -0.0691  0.1754 -0.1029
 8521SOL    HW132168   9.908   4.793   3.101  1.4477  0.5106  0.6864
 8521SOL    HW232169   9.815   4.911   3.083 -0.9886 -1.4939 -0.6858
 8522SOL     OW32170   1.638   4.769   3.120  0.5150 -0.2114  0.0119
 8522SOL    HW132171   1.612   4.818   3.042 -1.2336 -0.4156  0.4429
 8522SOL    HW232172   1.619   4.677   3.098  0.3754 -0.3105  0.5407
 8523SOL     OW32173   5.721  11.536   5.005 -0.2394 -0.3446 -0.3493
 8523SOL    HW132174   5.816  11.525   5.008 -0.2283 -1.1143 -2.1470
 8523SOL    HW232175   5.690  11.464   4.950 -1.6812  0.8332 -1.1684
 8524SOL     OW32176   2.412   2.263   0.154 -0.5679  0.0807  0.0991
 8524SOL    HW132177   2.467   2.248   0.077  0.5900 -0.1100  0.9316
 8524SOL    HW232178   2.438   2.350   0.185  1.5018 -1.1506  2.2014
 8525SOL     OW32179   4.101   7.594   4.040  0.1328 -0.0076  0.0991
 8525SOL    HW132180   4.171   7.630   3.985  0.6242 -1.7412 -0.4844
 8525SOL    HW232181   4.112   7.499   4.033 -2.3623 -0.3494 -0.1194
 8526SOL     OW32182   0.028   1.970  10.922 -0.1629  0.2775 -0.2986
 8526SOL    HW132183   0.002   1.878  10.913  0.6540  0.0545 -0.4873
 8526SOL    HW232184  -0.009   2.013  10.846  0.5395 -0.1610 -0.9006
 8527SOL     OW32185   9.587   9.703   5.749 -0.6036 -0.1370 -0.2040
 8527SOL    HW132186   9.665   9.730   5.797  0.2337 -2.1851 -0.3289
 8527SOL    HW232187   9.549   9.785   5.718  1.6179  0.9294 -0.3169
 8528SOL     OW32188   3.328   8.778  10.391 -0.7173  0.2676  0.5986
 8528SOL    HW132189   3.253   8.734  10.350 -1.0054 -0.9183  2.2771
 8528SOL    HW232190   3.375   8.707  10.435  1.9640  0.8331 -1.1737
 8529SOL     OW32191   9.682   2.226   0.070  0.2849 -0.1564  0.1465
 8529SOL    HW132192   9.598   2.195   0.035 -0.2698  1.2274  0.1867
 8529SOL    HW232193   9.674   2.217   0.165 -0.6139  1.7221  0.3099
 8530SOL     OW32194   3.218   0.845  10.148  0.5258 -0.0960 -0.1404
 8530SOL    HW132195   3.227   0.939  10.138  1.6301 -0.1822 -0.0349
 8530SOL    HW232196   3.238   0.809  10.062  1.9360 -0.3294  0.2549
 8531SOL     OW32197  10.892   8.508   3.646  0.4667  0.2567 -0.1781
 8531SOL    HW132198  10.984   8.533   3.636  0.5329  0.2353  0.3801
 8531SOL    HW232199  10.894   8.425   3.692  0.0947  1.7323  2.6884
 8532SOL     OW32200   8.201  11.337  10.999 -0.0106  0.0598  0.4164
 8532SOL    HW132201   8.157  11.267  11.047  2.6498 -0.1339  2.7842
 8532SOL    HW232202   8.190  11.414  11.054 -0.9483  1.0384 -1.0577
 8533SOL     OW32203   2.982   4.681   1.661  0.2692 -0.3197  0.0728
 8533SOL    HW132204   2.926   4.607   1.638  0.9926 -0.1480 -2.5146
 8533SOL    HW232205   2.925   4.758   1.652  0.2984 -0.3277 -0.1731
 8534SOL     OW32206   2.719   4.175   3.093  0.1991  0.2960 -0.2410
 8534SOL    HW132207   2.806   4.138   3.079  0.4405  1.2939 -1.5661
 8534SOL    HW232208   2.730   4.269   3.078 -0.7937  0.6709  1.1550
 8535SOL     OW32209   7.352   2.763   9.955 -0.2324 -0.2127  0.2236
 8535SOL    HW132210   7.307   2.742  10.037 -0.3820 -0.7407  0.0081
 8535SOL    HW232211   7.340   2.857   9.944 -1.2943 -0.3530  0.1547
 8536SOL     OW32212   3.747   7.748   5.004 -0.4014 -0.3676 -0.0147
 8536SOL    HW132213   3.658   7.712   5.001 -0.4492 -0.2114 -0.5998
 8536SOL    HW232214   3.750   7.811   4.932 -0.5681  1.4131  1.4555
 8537SOL     OW32215   8.536   3.144  12.746  0.1974 -0.7167 -0.0549
 8537SOL    HW132216   8.578   3.134  12.661  3.7825 -0.1636  1.4624
 8537SOL    HW232217   8.516   3.054  12.773 -2.4904 -0.8262 -2.0155
 8538SOL     OW32218   2.318   0.364   8.601 -0.4578 -0.4997 -0.6227
 8538SOL    HW132219   2.307   0.450   8.643  1.2186  0.2156 -1.5385
 8538SOL    HW232220   2.381   0.380   8.530 -0.8319 -2.3078 -1.4165
 8539SOL     OW32221   6.178  10.279   6.408 -0.3323  0.7369  0.0009
 8539SOL    HW132222   6.181  10.371   6.380  0.1847  0.3861 -1.1660
 8539SOL    HW232223   6.167  10.283   6.503  1.3117  2.0261  0.1845
 8540SOL     OW32224  10.439  11.080   9.855  0.1466 -0.5046 -0.3081
 8540SOL    HW132225  10.477  11.002   9.815  0.5568 -0.4682  0.0024
 8540SOL    HW232226  10.449  11.065   9.949 -0.4165 -0.3972 -0.2296
 8541SOL     OW32227  11.193  11.115  11.903 -0.5994  0.1703 -0.3891
 8541SOL    HW132228  11.200  11.167  11.983 -1.8827 -1.1580  0.6445
 8541SOL    HW232229  11.261  11.048  11.912 -1.1605 -0.3714 -0.0707
 8542SOL     OW32230   6.488   8.344   5.428 -0.1547 -0.1235 -0.3299
 8542SOL    HW132231   6.419   8.278   5.426  1.0399 -1.4130 -0.4439
 8542SOL    HW232232   6.569   8.294   5.427  0.8215  1.3605 -2.0128
 8543SOL     OW32233   1.687   3.567   1.485  0.1798  0.3698 -0.3174
 8543SOL    HW132234   1.738   3.587   1.563  0.6775 -1.5865 -0.0699
 8543SOL    HW232235   1.617   3.632   1.484  1.4581  1.8020  0.4999
 8544SOL     OW32236   6.239   3.606   5.585  0.6918 -0.1174  0.3348
 8544SOL    HW132237   6.265   3.582   5.496  0.1324 -0.4156  0.2488
 8544SOL    HW232238   6.144   3.607   5.584  0.6825  0.3413  0.8140
 8545SOL     OW32239   6.748   8.679   9.297  0.9221  0.0046 -0.3328
 8545SOL    HW132240   6.737   8.760   9.246  0.2781 -0.3224 -0.7280
 8545SOL    HW232241   6.840   8.680   9.324  1.5525 -0.3113 -2.3488
 8546SOL     OW32242  10.384   6.001   6.976 -0.4297 -0.1030  0.4463
 8546SOL    HW132243  10.338   6.005   6.892  1.0817  1.0783 -0.3736
 8546SOL    HW232244  10.423   5.913   6.977  0.3260  0.2038 -0.5423
 8547SOL     OW32245   4.851   0.838   9.878  0.1033 -0.1329 -0.5962
 8547SOL    HW132246   4.807   0.894   9.815 -1.3149 -2.3671 -1.7169
 8547SOL    HW232247   4.910   0.784   9.825 -0.4593 -1.4515  0.0772
 8548SOL     OW32248   6.506   3.503   0.087  0.0496  0.1607 -0.0087
 8548SOL    HW132249   6.434   3.515   0.149 -0.4294  1.0902 -0.7202
 8548SOL    HW232250   6.464   3.498   0.002  0.8315  1.0804 -0.4746
 8549SOL     OW32251   2.487   2.664   8.160 -1.1330 -0.1716 -0.0574
 8549SOL    HW132252   2.514   2.755   8.156 -2.0738  0.1070 -0.2680
 8549SOL    HW232253   2.539   2.626   8.231 -0.8503  0.5630  0.1340
 8550SOL     OW32254  10.619   5.373  12.598 -0.3060  0.4826 -0.4007
 8550SOL    HW132255  10.696   5.359  12.543 -1.7025  1.1941 -2.7009
 8550SOL    HW232256  10.596   5.285  12.630  0.7658  0.1063 -0.6331
 8551SOL     OW32257  12.114   3.492   1.067 -0.2062 -0.0450  0.0101
 8551SOL    HW132258  12.030   3.531   1.093 -0.2172 -0.5938  0.8457
 8551SOL    HW232259  12.178   3.530   1.127  0.1758  0.4647 -0.7045
 8552SOL     OW32260   2.855   4.220   4.253  0.2810  0.7726  0.0447
 8552SOL    HW132261   2.826   4.222   4.344 -1.8003  0.8222 -0.5736
 8552SOL    HW232262   2.881   4.129   4.239 -1.0406  0.3451  0.2309
 8553SOL     OW32263   4.563   6.618   8.103 -0.2871  0.2300  0.4427
 8553SOL    HW132264   4.556   6.697   8.050  1.2676  1.1277  1.4915
 8553SOL    HW232265   4.499   6.558   8.066  0.1537  1.1115 -1.9031
 8554SOL     OW32266   8.734   4.874   6.780  0.5211  0.1486 -0.0283
 8554SOL    HW132267   8.789   4.866   6.858  2.2433  0.2302 -1.1607
 8554SOL    HW232268   8.657   4.923   6.809  0.6241 -0.7219  1.8286
 8555SOL     OW32269  11.198   6.641   1.219  0.1974  0.4049  0.3274
 8555SOL    HW132270  11.124   6.615   1.164  0.4049 -0.3773  0.4029
 8555SOL    HW232271  11.265   6.573   1.203  1.7155  2.1683 -1.3138
 8556SOL     OW32272  10.485   6.422   2.856 -0.1019  0.4345 -0.0435
 8556SOL    HW132273  10.550   6.487   2.829  0.4137 -0.2060 -0.3737
 8556SOL    HW232274  10.462   6.376   2.775  0.1238 -0.3165  0.3083
 8557SOL     OW32275   2.345   7.427   1.738 -0.4786 -0.1647  0.0397
 8557SOL    HW132276   2.411   7.496   1.736 -1.2232  0.5774 -2.7650
 8557SOL    HW232277   2.384   7.355   1.688 -0.9864 -0.5203  0.1441
 8558SOL     OW32278   8.792   6.578   3.414 -0.2108 -0.4893 -0.4394
 8558SOL    HW132279   8.866   6.597   3.472  1.5965 -2.5766 -1.9186
 8558SOL    HW232280   8.732   6.526   3.467  0.7151 -1.1253  0.0037
 8559SOL     OW32281  12.140   1.163   0.134 -0.7005  0.0505  0.1860
 8559SOL    HW132282  12.220   1.212   0.152 -0.0156 -1.2633  0.8137
 8559SOL    HW232283  12.106   1.139   0.220  0.2870 -2.6202 -0.1094
 8560SOL     OW32284   5.179   6.487   3.390 -0.1573 -0.0511  0.1429
 8560SOL    HW132285   5.155   6.463   3.300 -0.3579 -0.5701  0.3303
 8560SOL    HW232286   5.179   6.403   3.437  0.9688  0.0706  0.3870
 8561SOL     OW32287   6.467   2.481   6.547  0.1276 -0.4783 -1.0849
 8561SOL    HW132288   6.401   2.481   6.616  1.5198  0.0121  0.3297
 8561SOL    HW232289   6.491   2.388   6.537  0.4058 -0.4922 -0.3777
 8562SOL     OW32290   5.943   2.314   3.320 -0.1826 -0.8152 -0.5444
 8562SOL    HW132291   5.961   2.312   3.227  3.1465  0.2203 -0.0433
 8562SOL    HW232292   5.867   2.257   3.331  0.0049 -1.8574 -3.7076
 8563SOL     OW32293   2.987   6.617  10.932 -0.2552  0.0424 -0.5062
 8563SOL    HW132294   2.948   6.704  10.932 -2.7480 -0.9863 -1.7557
 8563SOL    HW232295   3.043   6.616  10.854 -0.7327  0.3348 -0.8595
 8564SOL     OW32296  12.614   5.309   9.008  0.0854  0.2979 -0.4944
 8564SOL    HW132297  12.563   5.265   8.940  1.5467  1.1314 -2.2127
 8564SOL    HW232298  12.549   5.350   9.064 -1.2440 -2.0235 -0.1955
 8565SOL     OW32299   9.299   6.595   7.072 -0.3500  0.4426  0.1393
 8565SOL    HW132300   9.386   6.607   7.033 -0.7645  1.1789 -0.6071
 8565SOL    HW232301   9.303   6.509   7.113  0.3040 -0.1411 -1.0817
 8566SOL     OW32302   8.429   9.668   2.719 -0.4400 -0.3078  0.3871
 8566SOL    HW132303   8.335   9.682   2.732 -0.1147  0.3926  2.2230
 8566SOL    HW232304   8.465   9.661   2.807  1.3639  0.2620 -0.2584
 8567SOL     OW32305   2.138  11.227   9.656  0.1755  0.2109 -0.0394
 8567SOL    HW132306   2.112  11.159   9.718  1.8705  0.4980  1.0420
 8567SOL    HW232307   2.072  11.295   9.665 -0.3466 -0.3496  0.4342
 8568SOL     OW32308   6.962   1.310   7.191  0.2205 -0.0357 -0.2676
 8568SOL    HW132309   7.029   1.252   7.227  0.0048 -0.6283 -0.8179
 8568SOL    HW232310   6.915   1.257   7.127  0.1430  0.7968 -0.9232
 8569SOL     OW32311   7.037   9.885   8.749  0.7203  0.0575  0.1947
 8569SOL    HW132312   7.022   9.834   8.669  0.5085 -1.1072  0.9608
 8569SOL    HW232313   7.122   9.927   8.734  1.1168 -0.8805 -0.2755
 8570SOL     OW32314  12.080   9.639   9.564 -0.4960 -0.0602 -0.4094
 8570SOL    HW132315  12.157   9.669   9.514  0.1888 -0.5837  0.3175
 8570SOL    HW232316  12.042   9.570   9.509 -0.8730  0.6955 -1.1123
 8571SOL     OW32317  10.626   1.267   9.796  0.5775 -0.0381 -0.4604
 8571SOL    HW132318  10.652   1.213   9.870  0.3629  1.0146  0.4166
 8571SOL    HW232319  10.658   1.355   9.819 -0.3672  0.4988 -1.1525
 8572SOL     OW32320   4.036   5.273   1.652 -0.2893 -0.8815  0.2483
 8572SOL    HW132321   4.000   5.256   1.564 -0.5917 -3.2807  0.7587
 8572SOL    HW232322   4.117   5.222   1.654  0.7118  0.6566  0.7685
 8573SOL     OW32323  12.512  11.881   7.241 -0.3761 -0.1662  0.0799
 8573SOL    HW132324  12.511  11.939   7.317 -0.0864  3.8577 -2.7034
 8573SOL    HW232325  12.579  11.816   7.262  1.5115  2.2556  2.2858
 8574SOL     OW32326   0.786  12.319   9.980 -0.0733 -0.1195  0.4920
 8574SOL    HW132327   0.711  12.270   9.946  0.5614 -0.6034 -0.2473
 8574SOL    HW232328   0.800  12.389   9.916  0.3709 -0.2896  0.3992
 8575SOL     OW32329   1.900  10.638   8.670 -0.1822 -0.0875 -0.4177
 8575SOL    HW132330   1.973  10.578   8.653  0.6644  0.4102  1.2912
 8575SOL    HW232331   1.894  10.642   8.765 -4.0143 -1.9524 -0.4014
 8576SOL     OW32332   8.771  12.360   3.268 -0.3845 -0.0763 -0.1832
 8576SOL    HW132333   8.823  12.433   3.236  0.4018 -1.4597 -2.2703
 8576SOL    HW232334   8.687  12.399   3.294 -0.2665  1.4727 -1.9580
 8577SOL     OW32335  12.320   9.859   1.843  0.2440  0.1096  0.3111
 8577SOL    HW132336  12.406   9.891   1.815  0.9644 -0.8767  1.3444
 8577SOL    HW232337  12.260   9.892   1.776  1.5629 -0.0880 -1.0120
 8578SOL     OW32338   0.574   3.270  11.371  0.3429  0.0943  0.3431
 8578SOL    HW132339   0.495   3.301  11.414  0.0720  0.0523 -0.1125
 8578SOL    HW232340   0.561   3.175  11.364  0.2385  0.1414 -0.1169
 8579SOL     OW32341   5.531  12.642  11.287 -0.1370  0.0788 -0.0579
 8579SOL    HW132342   5.483  12.689  11.219 -0.3977  0.6133  0.4847
 8579SOL    HW232343   5.468  12.635  11.359 -0.7018 -2.5985 -0.7111
 8580SOL     OW32344   9.603   7.426   0.608  0.1108  0.1044 -0.6587
 8580SOL    HW132345   9.532   7.433   0.672  0.6941  1.7808 -0.1521
 8580SOL    HW232346   9.637   7.337   0.620 -1.1275 -0.3228 -0.0995
 8581SOL     OW32347   3.112  10.716   4.763  0.4540 -0.2527 -0.4918
 8581SOL    HW132348   3.083  10.630   4.733 -1.5103  0.3012 -0.2708
 8581SOL    HW232349   3.085  10.720   4.855  2.0149 -0.0009 -0.0008
 8582SOL     OW32350  12.138  10.760   0.276  0.8168  0.3081  0.2860
 8582SOL    HW132351  12.116  10.814   0.200  0.7695  0.3952  0.3618
 8582SOL    HW232352  12.231  10.780   0.293 -0.2118  3.8226  3.0627
 8583SOL     OW32353  12.121   2.536   5.298 -0.6567 -0.2669  0.1322
 8583SOL    HW132354  12.098   2.462   5.355  0.2516  0.3905  1.4124
 8583SOL    HW232355  12.211   2.519   5.271 -0.8022 -0.1478 -0.4481
 8584SOL     OW32356   3.611   8.154   5.078 -0.6413 -0.3527  0.7174
 8584SOL    HW132357   3.546   8.086   5.094  1.3309 -2.3258  0.7759
 8584SOL    HW232358   3.682   8.135   5.140  0.3362  1.2425  0.1447
 8585SOL     OW32359   9.557   1.391   6.197  0.3742 -0.5716  0.2539
 8585SOL    HW132360   9.649   1.409   6.181  0.2011 -0.7697 -1.0973
 8585SOL    HW232361   9.551   1.375   6.291  1.4895  0.6942  0.5630
 8586SOL     OW32362   0.816   6.202  10.038  0.3444  0.6852 -0.3375
 8586SOL    HW132363   0.821   6.222  10.132  0.8140 -0.6550 -0.0611
 8586SOL    HW232364   0.897   6.157  10.019 -0.3974 -0.3818 -1.0644
 8587SOL     OW32365   8.097  11.600   9.930  0.1174 -0.4246  0.1634
 8587SOL    HW132366   8.085  11.506   9.912  0.1794 -0.5051  0.5339
 8587SOL    HW232367   8.061  11.643   9.853 -0.7183 -0.7325  0.3679
 8588SOL     OW32368   6.078   2.194   6.813  0.2895  0.0428  0.3750
 8588SOL    HW132369   5.995   2.147   6.813  0.5317 -0.4032 -0.4695
 8588SOL    HW232370   6.145   2.127   6.830  0.5502  0.2480  0.1731
 8589SOL     OW32371  10.960   9.791   8.117 -0.3442 -0.0181 -0.3490
 8589SOL    HW132372  10.940   9.801   8.210 -0.4507 -0.0294 -0.3710
 8589SOL    HW232373  10.953   9.880   8.082  1.5212  0.3089  0.0143
 8590SOL     OW32374  11.593   7.109   9.850  0.3126 -0.6098 -0.3389
 8590SOL    HW132375  11.576   7.106   9.944 -1.2611 -1.2831 -0.6061
 8590SOL    HW232376  11.527   7.051   9.812 -1.3752  2.2397 -2.1530
 8591SOL     OW32377   3.115  12.240   4.493 -0.4928 -0.1591  0.2255
 8591SOL    HW132378   3.114  12.173   4.425  1.5047  0.1067 -0.1405
 8591SOL    HW232379   3.121  12.323   4.445 -0.8104  0.1477  0.7060
 8592SOL     OW32380   4.698  11.069   3.860 -0.0935  0.4796 -0.0812
 8592SOL    HW132381   4.676  11.015   3.785  2.5121 -0.4567 -0.2442
 8592SOL    HW232382   4.723  11.007   3.929  0.3659  1.3991  0.6126
 8593SOL     OW32383   8.773   9.204   1.428  0.3242  0.2142 -0.1129
 8593SOL    HW132384   8.696   9.261   1.428 -0.3286 -0.5849 -2.2830
 8593SOL    HW232385   8.769   9.158   1.345  1.6415 -1.9339  0.9258
 8594SOL     OW32386  10.651   6.772   7.768  0.2007 -0.1695  0.3716
 8594SOL    HW132387  10.614   6.860   7.775  0.2419  0.0235 -1.4934
 8594SOL    HW232388  10.576   6.716   7.747  0.2758 -0.4986  0.9465
 8595SOL     OW32389   8.913   5.042   6.140 -0.1060 -0.3345 -0.5853
 8595SOL    HW132390   8.945   4.954   6.161 -1.1546 -0.2740  1.5514
 8595SOL    HW232391   8.991   5.097   6.143  0.1924 -0.7901  0.8171
 8596SOL     OW32392   6.706  10.170  11.272  0.5995 -0.4588  0.4915
 8596SOL    HW132393   6.698  10.121  11.190 -0.6243 -1.0861  0.9697
 8596SOL    HW232394   6.669  10.112  11.338  0.4283  0.5518  1.3008
 8597SOL     OW32395   4.860   1.471   6.952  0.2570 -0.1176  0.3409
 8597SOL    HW132396   4.802   1.525   7.007 -0.2292  0.2044 -0.4546
 8597SOL    HW232397   4.945   1.476   6.994  0.1551  1.0633  0.4560
 8598SOL     OW32398   6.066  10.231  12.194 -0.1039 -0.0569  0.1862
 8598SOL    HW132399   6.098  10.294  12.258  0.4323  1.6397 -1.6521
 8598SOL    HW232400   6.133  10.230  12.126 -1.6686 -0.1162 -1.4063
 8599SOL     OW32401   9.419  10.470   8.360 -0.6002 -0.5344 -0.4761
 8599SOL    HW132402   9.331  10.437   8.379 -1.0627  1.5591  1.4247
 8599SOL    HW232403   9.403  10.547   8.305  0.0527 -0.1675 -0.1540
 8600SOL     OW32404   5.597   6.585   0.381 -0.0719  0.3645 -0.5022
 8600SOL    HW132405   5.678   6.625   0.351  1.2457 -0.7020  1.4102
 8600SOL    HW232406   5.550   6.562   0.301  2.5609 -1.0765 -1.7676
 8601SOL     OW32407   3.427   1.866  11.646 -0.6050 -0.0215 -0.3522
 8601SOL    HW132408   3.407   1.795  11.706 -0.0017 -0.5389 -0.7464
 8601SOL    HW232409   3.502   1.834  11.596  1.9519  2.1650  1.7363
 8602SOL     OW32410  11.905   1.088   2.002  0.5503 -0.6972  0.0227
 8602SOL    HW132411  11.974   1.136   1.955  0.3157  1.0824  1.4090
 8602SOL    HW232412  11.828   1.144   1.996  0.0371 -1.2610  1.0182
 8603SOL     OW32413   0.057  11.497   1.661 -0.4638 -0.2071 -0.6213
 8603SOL    HW132414  -0.034  11.504   1.689 -0.2149  0.9765 -0.0442
 8603SOL    HW232415   0.087  11.588   1.653  0.4938 -0.5707 -1.3819
 8604SOL     OW32416   4.993   2.565   4.133 -0.5169  0.2387  0.1372
 8604SOL    HW132417   4.942   2.593   4.209 -0.0085 -1.1355  1.0264
 8604SOL    HW232418   4.930   2.564   4.061 -1.3464  0.2214  0.8415
 8605SOL     OW32419   8.329   9.769   9.269  0.1290 -0.0997  0.0210
 8605SOL    HW132420   8.355   9.825   9.196 -1.5207  0.8285  0.1091
 8605SOL    HW232421   8.242   9.800   9.294  0.5056 -0.6032  2.1820
 8606SOL     OW32422  11.944  12.601   3.089 -0.3965  0.4828 -0.4076
 8606SOL    HW132423  11.849  12.598   3.077 -0.4033  0.3319 -0.3210
 8606SOL    HW232424  11.959  12.553   3.170 -0.4181  2.0808  0.5877
 8607SOL     OW32425   6.134   5.810   8.684  0.2214  0.5868 -0.3395
 8607SOL    HW132426   6.072   5.761   8.629 -1.6077  2.7920 -0.4300
 8607SOL    HW232427   6.078   5.857   8.746  1.8356  2.4401 -0.1989
 8608SOL     OW32428   3.088  12.582   8.823  0.6213 -0.3206 -0.1148
 8608SOL    HW132429   3.101  12.523   8.749  0.1026  0.4151 -0.8132
 8608SOL    HW232430   3.133  12.663   8.797  1.1191 -0.3080  0.7220
 8609SOL     OW32431   9.791   3.021   9.934  0.6461  0.6473 -0.0715
 8609SOL    HW132432   9.817   3.086   9.999  1.4133  0.1551  0.1305
 8609SOL    HW232433   9.764   3.073   9.858  0.0916  1.2161  0.4986
 8610SOL     OW32434   6.178  11.824   0.963  0.2599 -0.2109 -0.4580
 8610SOL    HW132435   6.109  11.835   0.897  1.0684  0.8306 -1.1542
 8610SOL    HW232436   6.256  11.861   0.922  0.9420 -0.1977  0.8262
 8611SOL     OW32437   2.759   1.928   9.223  0.2520 -0.1771  0.1935
 8611SOL    HW132438   2.716   1.884   9.150  1.5459 -0.8593 -0.1995
 8611SOL    HW232439   2.707   2.007   9.238 -1.4415 -1.2425  0.1468
 8612SOL     OW32440   0.270   8.868   9.357 -0.4184  0.5283 -0.2718
 8612SOL    HW132441   0.230   8.955   9.357  0.3229  0.9066 -1.8151
 8612SOL    HW232442   0.362   8.884   9.335  0.0277 -0.5432  0.6894
 8613SOL     OW32443   0.940   9.276  12.043  0.1304  0.5028  0.4654
 8613SOL    HW132444   0.918   9.235  12.127  3.1258 -1.3993  0.5108
 8613SOL    HW232445   0.995   9.351  12.067 -0.3594  0.9370  0.2352
 8614SOL     OW32446   0.499   1.421   5.662  0.1889 -0.0255  0.2689
 8614SOL    HW132447   0.420   1.379   5.628 -0.2991  1.4759 -0.5504
 8614SOL    HW232448   0.570   1.388   5.606  0.0806 -0.9272  0.6390
 8615SOL     OW32449   9.304   8.491   4.553 -0.1676  0.1256  0.2158
 8615SOL    HW132450   9.377   8.523   4.499 -1.2588  1.6151 -0.4410
 8615SOL    HW232451   9.301   8.397   4.535  1.5904  0.0146  0.2884
 8616SOL     OW32452   7.390   8.908  12.586 -0.2522  0.1594 -0.0839
 8616SOL    HW132453   7.393   8.886  12.679 -1.5243 -0.4791 -0.1838
 8616SOL    HW232454   7.389   9.004  12.584 -0.2428  0.1745  0.5569
 8617SOL     OW32455   4.233   1.335   9.560 -0.1828  0.1787  0.0465
 8617SOL    HW132456   4.318   1.353   9.601  0.1324 -2.7720  0.9141
 8617SOL    HW232457   4.168   1.357   9.626 -0.0527  1.2829 -0.1781
 8618SOL     OW32458   5.826   6.084   4.547  0.0544  0.4445  0.1199
 8618SOL    HW132459   5.748   6.138   4.559 -0.4295 -0.5381  1.6692
 8618SOL    HW232460   5.793   5.999   4.518  0.5871  0.1987  0.2076
 8619SOL     OW32461   4.050   9.417   5.019 -0.6555 -0.1276  0.3858
 8619SOL    HW132462   4.029   9.451   5.106 -0.4635  0.8335  0.0624
 8619SOL    HW232463   3.971   9.370   4.993 -0.6041 -0.6984  1.2015
 8620SOL     OW32464   0.339   7.994   7.249 -0.8974 -0.0045 -0.0055
 8620SOL    HW132465   0.424   7.966   7.284 -0.3816 -0.2569 -1.4080
 8620SOL    HW232466   0.275   7.954   7.307 -0.1449 -2.5769 -0.8315
 8621SOL     OW32467   5.882  10.102   6.625 -0.3434 -0.4318 -0.3229
 8621SOL    HW132468   5.883  10.033   6.558 -0.9269 -0.8233  0.0596
 8621SOL    HW232469   5.836  10.175   6.583 -0.7287 -0.6841 -0.3413
 8622SOL     OW32470   5.336  12.201  12.174  0.3087 -0.1077  0.0867
 8622SOL    HW132471   5.246  12.203  12.140  0.8889  2.4187 -1.5700
 8622SOL    HW232472   5.386  12.156  12.107  0.5063 -0.4561  0.4615
 8623SOL     OW32473   1.857  10.708  10.922 -0.0424 -0.0264 -0.0098
 8623SOL    HW132474   1.835  10.619  10.894  0.7819  0.2920 -1.8230
 8623SOL    HW232475   1.949  10.719  10.897 -0.7310  2.0861 -2.0187
 8624SOL     OW32476  12.435   8.101  10.011 -0.4040 -0.2469 -0.0550
 8624SOL    HW132477  12.506   8.067   9.955 -1.0288  0.8142 -1.5399
 8624SOL    HW232478  12.481   8.149  10.080  0.3543 -0.0116 -0.7017
 8625SOL     OW32479  10.478   3.089   2.586 -0.1700  0.5730 -0.1554
 8625SOL    HW132480  10.572   3.102   2.583 -0.3800  2.1704 -0.5233
 8625SOL    HW232481  10.466   3.009   2.637  1.3981  0.0011 -0.6497
 8626SOL     OW32482   6.093   3.622   5.885 -0.1992  0.0888 -0.4242
 8626SOL    HW132483   6.046   3.591   5.808  0.2964 -0.3913 -0.5369
 8626SOL    HW232484   6.153   3.551   5.908  2.4396  1.6836 -1.9070
 8627SOL     OW32485   5.664   7.470  10.430  0.0666  0.6209 -0.3537
 8627SOL    HW132486   5.607   7.393  10.434 -0.2527  0.8146 -0.8988
 8627SOL    HW232487   5.740   7.441  10.379 -0.5679  0.9531 -1.5517
 8628SOL     OW32488   5.280   4.390  12.629  0.1431 -0.0352 -0.6777
 8628SOL    HW132489   5.194   4.426  12.649  0.1798  0.3769 -1.2308
 8628SOL    HW232490   5.332   4.465  12.601  1.3805  0.1138  1.7412
 8629SOL     OW32491  11.946   2.787   8.871 -0.6444  0.6381  0.6310
 8629SOL    HW132492  11.961   2.755   8.960 -0.6281  1.1079  0.7984
 8629SOL    HW232493  12.002   2.865   8.863  0.5321 -0.2683 -0.3115
 8630SOL     OW32494   9.225   1.739  10.746 -0.2297  0.0215  0.2496
 8630SOL    HW132495   9.241   1.654  10.705 -0.7084  0.2468 -0.4225
 8630SOL    HW232496   9.225   1.802  10.674  1.4656  0.8026  0.8790
 8631SOL     OW32497   4.143   6.288   8.032  0.7055  0.6669  0.5724
 8631SOL    HW132498   4.103   6.296   7.945 -1.1139  1.1926  1.4094
 8631SOL    HW232499   4.127   6.198   8.057  2.7196  0.0201 -0.2792
 8632SOL     OW32500   4.583   6.382   1.270 -0.1548  0.2063  0.5297
 8632SOL    HW132501   4.669   6.402   1.308  0.2396  0.1760 -0.3117
 8632SOL    HW232502   4.542   6.468   1.257  0.4278  0.3438 -0.5661
 8633SOL     OW32503   9.569   4.816  12.223 -0.7065 -0.7750 -0.5123
 8633SOL    HW132504   9.616   4.795  12.142  1.0498  1.2148 -0.1174
 8633SOL    HW232505   9.635   4.808  12.291 -0.5691  2.9219 -0.0235
 8634SOL     OW32506   7.700   7.588   9.796 -0.3050 -0.2955 -0.0870
 8634SOL    HW132507   7.671   7.580   9.887  1.8772  1.4730  0.8539
 8634SOL    HW232508   7.649   7.661   9.761 -0.9482 -0.8021 -0.2371
 8635SOL     OW32509  12.153   4.470   4.259  0.8026  0.2540  0.0666
 8635SOL    HW132510  12.140   4.403   4.193 -0.0066  1.2320 -0.8013
 8635SOL    HW232511  12.130   4.427   4.342  2.2703 -1.1136 -0.1869
 8636SOL     OW32512   3.306   3.585  10.799  0.4010  0.1133  0.3309
 8636SOL    HW132513   3.292   3.575  10.705  0.1929  0.8371  0.2778
 8636SOL    HW232514   3.387   3.635  10.806  0.2967  0.2569  0.5273
 8637SOL     OW32515   8.573   0.863   4.889 -0.1891  0.3277 -0.2883
 8637SOL    HW132516   8.615   0.876   4.804 -1.6645  1.3661 -0.9110
 8637SOL    HW232517   8.634   0.809   4.938  0.4131 -0.8951 -2.2478
 8638SOL     OW32518   2.741   2.895   4.327 -0.1562 -0.0833  0.3909
 8638SOL    HW132519   2.706   2.886   4.238  2.3917  1.2754 -0.8397
 8638SOL    HW232520   2.774   2.807   4.348  1.4283  0.1178 -1.0554
 8639SOL     OW32521   7.203   6.176   2.892  0.0939  0.4652 -0.1226
 8639SOL    HW132522   7.226   6.098   2.841  0.7912 -1.5291  2.9807
 8639SOL    HW232523   7.286   6.205   2.930 -0.5218  1.3295  0.5979
 8640SOL     OW32524   2.460   5.052  12.297  0.2842 -0.3331 -0.0254
 8640SOL    HW132525   2.530   5.116  12.284  0.8388 -1.3318 -2.5233
 8640SOL    HW232526   2.497   4.989  12.359  1.3842 -0.5061 -0.8291
 8641SOL     OW32527   5.341   8.230   8.497 -0.4397  0.1118 -0.4418
 8641SOL    HW132528   5.324   8.314   8.540 -0.9868  0.0205 -0.4652
 8641SOL    HW232529   5.428   8.204   8.527 -1.7163 -1.1094  2.5318
 8642SOL     OW32530   8.033   9.366  11.606  0.2908 -0.1009 -0.5242
 8642SOL    HW132531   7.979   9.424  11.660 -1.2625  0.0026 -2.0787
 8642SOL    HW232532   7.984   9.284  11.604  2.0369 -1.2526  0.9490
 8643SOL     OW32533   5.788   1.220   0.976  0.3144  0.1472 -0.7952
 8643SOL    HW132534   5.758   1.309   0.956  0.8758  0.9381  1.5635
 8643SOL    HW232535   5.719   1.183   1.030  0.6685 -0.3768 -0.6916
 8644SOL     OW32536  10.150   0.344   2.136 -0.5058  0.0929  0.5696
 8644SOL    HW132537  10.155   0.435   2.108 -2.8089  0.6949  1.9399
 8644SOL    HW232538  10.061   0.333   2.168 -0.8919 -3.1424 -1.1707
 8645SOL     OW32539   0.449  11.409   5.091 -0.4601  0.2437  0.3180
 8645SOL    HW132540   0.416  11.376   5.007 -1.1368  0.1478  0.6105
 8645SOL    HW232541   0.372  11.409   5.148  0.1534 -0.4367  1.1718
 8646SOL     OW32542   4.086   9.386   7.577  0.0572  0.4567  0.1686
 8646SOL    HW132543   4.121   9.314   7.526 -0.6750  0.4863 -0.4012
 8646SOL    HW232544   4.075   9.457   7.514  2.0297  1.5354  0.9728
 8647SOL     OW32545   4.327   0.244   7.085  0.4312  0.4343 -0.5083
 8647SOL    HW132546   4.319   0.251   7.180  1.6962  1.5963 -0.4600
 8647SOL    HW232547   4.252   0.293   7.051  1.2130  1.9409 -0.1026
 8648SOL     OW32548   2.465   8.755   1.275 -0.5311  0.5090  0.2442
 8648SOL    HW132549   2.387   8.809   1.283 -1.4893 -0.8307  0.3609
 8648SOL    HW232550   2.520   8.780   1.349 -0.4748  2.0187 -0.2781
 8649SOL     OW32551   3.735   2.665   3.662 -0.2520  0.0493 -0.6337
 8649SOL    HW132552   3.645   2.683   3.688 -0.2913  0.6458 -1.1578
 8649SOL    HW232553   3.779   2.750   3.667  1.0400 -0.6548  2.3769
 8650SOL     OW32554   0.268   9.015   3.268 -0.3712 -0.2272 -0.0747
 8650SOL    HW132555   0.175   9.040   3.262 -1.3463 -2.6424  2.6443
 8650SOL    HW232556   0.305   9.076   3.332  0.5457  1.9848 -2.5469
 8651SOL     OW32557  11.633   2.990   0.835 -0.6054 -0.0976 -0.2169
 8651SOL    HW132558  11.602   3.076   0.810 -1.6252  0.0610  1.4350
 8651SOL    HW232559  11.726   3.003   0.856 -0.3735  0.2540 -1.3817
 8652SOL     OW32560   3.935   0.283   1.874 -0.2257  0.1478 -0.2799
 8652SOL    HW132561   3.909   0.258   1.963 -1.2594  2.5705  0.1740
 8652SOL    HW232562   4.004   0.348   1.887  1.9473 -1.7870 -1.3881
 8653SOL     OW32563   9.893   8.881   1.685  0.5489 -0.3767 -0.3101
 8653SOL    HW132564   9.837   8.804   1.673  0.3937 -0.0445 -1.9422
 8653SOL    HW232565   9.889   8.926   1.601 -0.8747  2.4326  1.1370
 8654SOL     OW32566   0.718   9.002   6.994 -0.0702  0.0498 -0.0742
 8654SOL    HW132567   0.682   9.062   7.058  0.5916 -0.0657  0.4182
 8654SOL    HW232568   0.700   9.043   6.909 -1.2940  0.0180  0.1500
 8655SOL     OW32569   3.945   3.480   4.223  0.5249  0.3760  0.7899
 8655SOL    HW132570   3.978   3.433   4.146  0.1922 -1.4843  1.7190
 8655SOL    HW232571   3.930   3.411   4.288 -1.8556  1.5340  1.5876
 8656SOL     OW32572   6.886   6.980   2.762  0.1755  0.1068  0.3821
 8656SOL    HW132573   6.810   6.966   2.818 -0.3122 -0.9536 -0.5061
 8656SOL    HW232574   6.854   6.967   2.673  1.4182 -0.5594 -0.0007
 8657SOL     OW32575   0.675   0.491   2.880  0.0973 -0.1964  0.7054
 8657SOL    HW132576   0.766   0.516   2.891  0.9794 -2.1435 -1.3869
 8657SOL    HW232577   0.678   0.413   2.825 -2.8680 -0.0823  0.2127
 8658SOL     OW32578   0.745   8.791   2.300 -0.1800 -0.4486  0.1000
 8658SOL    HW132579   0.794   8.713   2.326  1.7253  0.7855  0.4090
 8658SOL    HW232580   0.697   8.817   2.379  1.0951  0.0459  0.7324
 8659SOL     OW32581   9.105   0.303  12.602  0.1199  0.1690  0.0672
 8659SOL    HW132582   9.193   0.322  12.636  0.5331 -2.4603  0.6444
 8659SOL    HW232583   9.117   0.230  12.542 -1.7440 -0.6092  0.5726
 8660SOL     OW32584   6.273   2.187   1.230 -0.0090 -0.3538 -0.1999
 8660SOL    HW132585   6.199   2.135   1.262 -0.1622  0.5857  1.0853
 8660SOL    HW232586   6.233   2.257   1.180  0.1859 -1.3116 -1.7465
 8661SOL     OW32587  12.257  10.266   9.161 -0.1885 -0.4614 -0.6003
 8661SOL    HW132588  12.275  10.205   9.090  0.3291  0.6886 -1.4899
 8661SOL    HW232589  12.171  10.302   9.141  0.6964  1.1725 -1.6536
 8662SOL     OW32590   0.731   1.849   1.437  0.3476 -0.6381 -0.4673
 8662SOL    HW132591   0.702   1.928   1.482 -1.3853 -1.0655 -0.7665
 8662SOL    HW232592   0.825   1.842   1.458  0.1131  0.4519  1.0983
 8663SOL     OW32593   7.259   5.963   4.662  0.4948  0.0831 -0.1978
 8663SOL    HW132594   7.333   6.014   4.628 -0.5162  0.5648 -1.8242
 8663SOL    HW232595   7.298   5.880   4.689  1.4565 -0.3351 -2.5719
 8664SOL     OW32596  11.171   3.279  12.209 -0.3237 -0.7454  0.2112
 8664SOL    HW132597  11.137   3.266  12.120  1.9086  0.9706 -1.0001
 8664SOL    HW232598  11.234   3.208  12.221 -1.0289 -1.3073  0.6835
 8665SOL     OW32599   4.365   1.896   9.768 -0.2494 -0.7799 -0.0620
 8665SOL    HW132600   4.407   1.834   9.709 -0.4694  0.2907 -1.4140
 8665SOL    HW232601   4.282   1.855   9.792 -0.3717 -1.0382 -0.8910
 8666SOL     OW32602   1.332   5.755   7.245 -0.0729  0.2300 -0.2636
 8666SOL    HW132603   1.278   5.833   7.231 -1.8137 -0.1543  3.1610
 8666SOL    HW232604   1.402   5.784   7.304 -1.0059 -0.7445  1.4379
 8667SOL     OW32605   4.358   8.307  10.904 -0.4171  0.6281 -0.4718
 8667SOL    HW132606   4.369   8.240  10.972 -0.9073 -0.1920 -1.1937
 8667SOL    HW232607   4.285   8.276  10.851  0.3354  0.9510 -1.7393
 8668SOL     OW32608   2.494   9.189  10.255 -0.4999  0.0862 -0.7623
 8668SOL    HW132609   2.485   9.094  10.263 -0.5449  0.1892  0.5027
 8668SOL    HW232610   2.507   9.204  10.161  0.2213 -1.2314 -0.8879
 8669SOL     OW32611   8.090   2.736  10.419  0.2127 -0.2250  0.1287
 8669SOL    HW132612   8.128   2.821  10.398  1.0065 -0.9537 -1.5456
 8669SOL    HW232613   8.014   2.729  10.362  0.4917 -0.8773 -0.1694
 8670SOL     OW32614   3.911  10.051   6.244  0.1223 -0.1682  0.1487
 8670SOL    HW132615   3.991  10.006   6.218  0.9360  0.1919  1.9102
 8670SOL    HW232616   3.862  10.062   6.162  1.7731 -0.5474 -0.9304
 8671SOL     OW32617   6.369   3.858   3.195 -0.7237 -0.1232  0.0311
 8671SOL    HW132618   6.445   3.807   3.169 -0.5171  0.2628 -0.1414
 8671SOL    HW232619   6.314   3.862   3.117 -0.3234  0.6435 -0.2324
 8672SOL     OW32620   9.848  10.661   7.022  0.0275 -0.4760 -0.0085
 8672SOL    HW132621   9.898  10.721   7.077 -1.1310  0.0291  0.5332
 8672SOL    HW232622   9.801  10.717   6.961 -0.7179 -0.8419  0.2094
 8673SOL     OW32623   4.560   5.274  12.263  0.3227  0.4858 -0.6604
 8673SOL    HW132624   4.564   5.215  12.338 -0.4151  1.4926  0.2038
 8673SOL    HW232625   4.635   5.251  12.209  0.3000 -0.9227 -0.1134
 8674SOL     OW32626  12.389   6.138   5.866  0.4231  0.5249  0.0279
 8674SOL    HW132627  12.460   6.089   5.824  0.0098 -1.1799  1.2058
 8674SOL    HW232628  12.430   6.181   5.941  0.0154 -1.7882  1.6907
 8675SOL     OW32629   2.700   4.261   4.040 -0.3029 -0.4530  0.4713
 8675SOL    HW132630   2.645   4.183   4.038  2.3266 -2.4453 -1.5665
 8675SOL    HW232631   2.756   4.250   4.116 -0.7243  0.1080  0.8745
 8676SOL     OW32632  12.492   7.719   0.749  0.1208  0.3786 -0.5246
 8676SOL    HW132633  12.432   7.789   0.723 -0.3920  1.4010  2.8435
 8676SOL    HW232634  12.578   7.761   0.749  0.1915  0.2384 -0.9794
 8677SOL     OW32635   1.420   2.322   2.923 -0.1060  0.2730  0.1202
 8677SOL    HW132636   1.369   2.350   2.999 -0.0515 -0.3475  0.3849
 8677SOL    HW232637   1.406   2.228   2.917 -0.8514  0.4327 -1.1921
 8678SOL     OW32638   5.084   7.986   6.622  0.0391 -0.4370 -0.2037
 8678SOL    HW132639   5.121   8.037   6.694  0.7681  3.8690 -3.2563
 8678SOL    HW232640   5.003   8.031   6.600  0.6895 -0.4837 -3.0766
 8679SOL     OW32641   7.995   3.432   9.959  0.3047  0.8816  0.0768
 8679SOL    HW132642   8.045   3.374   9.901 -1.4329  0.2228 -0.8531
 8679SOL    HW232643   7.974   3.508   9.904  0.7162  1.3946  0.6199
 8680SOL     OW32644  12.347   4.482  11.057  0.3458 -0.3400  0.7783
 8680SOL    HW132645  12.310   4.398  11.029 -0.9166  0.7331 -0.9949
 8680SOL    HW232646  12.278   4.521  11.111  0.5589 -0.0917  0.8711
 8681SOL     OW32647   6.128   7.739   5.474 -0.5343 -0.4049  0.8365
 8681SOL    HW132648   6.142   7.796   5.549  0.2448  1.8279 -0.8829
 8681SOL    HW232649   6.044   7.767   5.437 -0.9313 -1.5069  0.8753
 8682SOL     OW32650   0.838   8.679   1.766 -0.3896  0.2048 -0.0237
 8682SOL    HW132651   0.927   8.659   1.795 -0.7689 -0.1156  0.9607
 8682SOL    HW232652   0.840   8.773   1.744  0.7625 -0.2776 -2.2610
 8683SOL     OW32653   1.465   3.472  11.287  0.1427 -0.0392  1.0349
 8683SOL    HW132654   1.442   3.502  11.375  0.9582 -0.5549  1.4339
 8683SOL    HW232655   1.400   3.405  11.267 -0.5890  0.7104  0.8742
 8684SOL     OW32656   4.457   0.504   4.793  0.4669 -0.2835  0.2568
 8684SOL    HW132657   4.535   0.491   4.738  0.4939 -0.5006  0.3442
 8684SOL    HW232658   4.414   0.581   4.756 -0.5927 -1.5866 -1.3326
 8685SOL     OW32659   9.638  10.212   1.623 -0.3091 -0.4316  0.2338
 8685SOL    HW132660   9.596  10.297   1.610  1.8591  0.6036 -0.5272
 8685SOL    HW232661   9.607  10.158   1.550 -0.1423  0.3952 -0.4643
 8686SOL     OW32662  12.398   9.345   6.269 -0.3006 -0.1928 -0.3748
 8686SOL    HW132663  12.434   9.316   6.186 -0.9506 -2.2794  0.0066
 8686SOL    HW232664  12.396   9.265   6.323 -0.9543  0.8703  1.2388
 8687SOL     OW32665   9.599   0.131   1.278 -0.3752 -0.1824 -1.2584
 8687SOL    HW132666   9.684   0.140   1.320 -0.4478 -1.1705 -0.8725
 8687SOL    HW232667   9.544   0.197   1.320 -0.0891 -0.2686 -0.7483
 8688SOL     OW32668   0.526   0.585   6.198  0.3942 -0.3027  0.1496
 8688SOL    HW132669   0.529   0.681   6.199  2.2890 -0.3354  0.5637
 8688SOL    HW232670   0.553   0.559   6.286  0.0968 -1.2291 -0.0235
 8689SOL     OW32671   4.740   5.137   4.691 -0.4052  0.3413 -0.2679
 8689SOL    HW132672   4.832   5.119   4.707 -0.3890 -0.8177 -1.4535
 8689SOL    HW232673   4.731   5.231   4.704  0.7278  0.3382  0.7727
 8690SOL     OW32674   1.933   7.277   5.083  0.0447 -0.1576  0.0598
 8690SOL    HW132675   1.964   7.367   5.074  0.9886 -0.6182 -1.8806
 8690SOL    HW232676   2.002   7.233   5.132  0.9236 -0.3895 -1.3093
 8691SOL     OW32677   3.064   4.511   8.106  0.0192  0.2841 -0.3984
 8691SOL    HW132678   3.006   4.440   8.133  0.0403  0.1294 -0.7459
 8691SOL    HW232679   3.092   4.486   8.017  0.2191  0.6055 -0.4266
 8692SOL     OW32680   4.687   2.394   2.353 -0.2204  0.9453  0.2410
 8692SOL    HW132681   4.699   2.303   2.379  0.1947  0.4275 -1.5742
 8692SOL    HW232682   4.772   2.434   2.366 -0.0615  0.7341 -0.1191
 8693SOL     OW32683  10.454   3.509  12.104  0.2255 -0.1332 -0.0018
 8693SOL    HW132684  10.424   3.580  12.047 -1.5182  0.5513  1.6822
 8693SOL    HW232685  10.385   3.443  12.098  1.0111 -0.9511 -0.2128
 8694SOL     OW32686  12.560   1.615   9.097  0.2689  0.2888  0.0889
 8694SOL    HW132687  12.640   1.660   9.124  0.6848 -1.0408  1.2003
 8694SOL    HW232688  12.566   1.529   9.139 -1.8408  0.2321  0.3455
 8695SOL     OW32689   0.375   7.101   2.881  0.5173 -0.2238 -0.6415
 8695SOL    HW132690   0.427   7.157   2.937  0.5890 -0.1233 -0.8073
 8695SOL    HW232691   0.419   7.016   2.885  0.0976 -0.4160  0.0374
 8696SOL     OW32692   2.561   3.883  10.951 -0.0873  0.5017 -0.6966
 8696SOL    HW132693   2.563   3.798  10.908  0.0726 -0.8417  1.8202
 8696SOL    HW232694   2.514   3.868  11.032 -0.8515  3.0527 -0.5743
 8697SOL     OW32695   0.304  11.540   4.848  0.2091  0.0658 -0.6996
 8697SOL    HW132696   0.327  11.455   4.812  0.2163  0.3549 -1.3827
 8697SOL    HW232697   0.214  11.528   4.881  0.0924 -0.1122 -1.0824
 8698SOL     OW32698   4.442   0.237   9.899  0.3777  0.3192 -0.3769
 8698SOL    HW132699   4.429   0.332   9.890  0.1749  0.3212 -0.0665
 8698SOL    HW232700   4.518   0.228   9.957  1.0906  0.2966 -1.2896
 8699SOL     OW32701   7.658   1.023   1.386 -0.1510 -0.2468 -0.4392
 8699SOL    HW132702   7.658   0.941   1.335 -0.5517  0.3407 -1.4214
 8699SOL    HW232703   7.751   1.043   1.398 -0.0176  0.1407 -1.8782
 8700SOL     OW32704   2.681  11.913   3.286 -0.4074 -0.1714 -0.0963
 8700SOL    HW132705   2.607  11.962   3.323  0.8400  1.0296  0.9034
 8700SOL    HW232706   2.726  11.876   3.362 -0.0599 -1.0249 -0.7047
 8701SOL     OW32707   3.754   1.076   9.660 -0.2217  0.4587  0.0777
 8701SOL    HW132708   3.836   1.049   9.703 -0.1915 -0.8283 -0.7239
 8701SOL    HW232709   3.689   1.012   9.690 -1.2043  2.0511  1.4877
 8702SOL     OW32710  10.045   8.191   3.151  0.2768  0.3528  0.1045
 8702SOL    HW132711  10.020   8.252   3.220  0.5075 -1.2329  1.6460
 8702SOL    HW232712  10.108   8.132   3.192 -0.1864 -1.1347 -1.2210
 8703SOL     OW32713   3.110   7.244   7.404  0.0921 -0.4994  0.3204
 8703SOL    HW132714   3.066   7.322   7.371  0.7263  0.5517  1.8384
 8703SOL    HW232715   3.059   7.218   7.480 -0.2246 -1.7098 -0.2825
 8704SOL     OW32716   0.801   6.463   2.501  0.6443 -0.4979  0.5196
 8704SOL    HW132717   0.877   6.520   2.514  0.8502 -0.4447 -0.7529
 8704SOL    HW232718   0.835   6.375   2.518  1.6449 -0.7301 -2.1384
 8705SOL     OW32719   1.421   3.674   1.178 -0.5709 -0.1720 -0.2404
 8705SOL    HW132720   1.506   3.686   1.222 -1.0524 -1.5527  1.1634
 8705SOL    HW232721   1.419   3.743   1.112  0.8281  1.1087  0.9592
 8706SOL     OW32722   0.455   8.373   9.607  0.4680 -0.2225 -0.6534
 8706SOL    HW132723   0.424   8.326   9.685 -0.0156 -0.4220 -0.9678
 8706SOL    HW232724   0.448   8.466   9.631 -0.8349 -0.2421 -0.8850
 8707SOL     OW32725   0.585   6.220  11.432 -0.1795  0.3220 -0.2694
 8707SOL    HW132726   0.675   6.192  11.446  0.3400  1.4073 -1.2631
 8707SOL    HW232727   0.545   6.214  11.519 -0.0065 -2.8472 -0.2911
 8708SOL     OW32728   3.421   7.889   9.165  0.5950  0.6135 -0.2948
 8708SOL    HW132729   3.396   7.919   9.077  1.5051  1.4240 -0.2922
 8708SOL    HW232730   3.509   7.854   9.154  0.1777 -0.5642  0.0391
 8709SOL     OW32731   0.969   0.676   7.090  0.7019  0.4268  0.2498
 8709SOL    HW132732   1.048   0.726   7.110  0.0244  1.4710  0.3624
 8709SOL    HW232733   0.910   0.692   7.164 -1.4653  3.5523 -1.9171
 8710SOL     OW32734   2.540   7.149  10.758 -0.2356 -0.0427  0.2444
 8710SOL    HW132735   2.509   7.089  10.826 -1.3472 -1.1464 -1.1591
 8710SOL    HW232736   2.463   7.202  10.737 -0.0620 -0.0824 -0.5186
 8711SOL     OW32737   6.860   0.471   3.093  0.6130  0.0813  0.2169
 8711SOL    HW132738   6.852   0.450   2.999 -0.2941  1.8572 -0.1544
 8711SOL    HW232739   6.856   0.387   3.137 -2.8418 -0.6297 -1.1559
 8712SOL     OW32740  10.138   0.379   0.852 -0.2492 -0.1944  0.3283
 8712SOL    HW132741  10.061   0.401   0.800  1.4651  1.1277 -1.8723
 8712SOL    HW232742  10.178   0.306   0.805  1.1945  0.8433 -0.1192
 8713SOL     OW32743   7.930   6.386   4.070  0.2444 -0.3068 -0.1270
 8713SOL    HW132744   7.936   6.291   4.073 -2.2604 -0.5335  0.7806
 8713SOL    HW232745   7.859   6.404   4.008  2.1162  1.1503 -2.0125
 8714SOL     OW32746   1.949   1.993   0.674 -0.6974 -0.0376  0.6327
 8714SOL    HW132747   1.968   1.938   0.598 -1.6275 -2.6746  2.1281
 8714SOL    HW232748   1.853   1.992   0.680 -0.6462  0.2653  1.7124
 8715SOL     OW32749   8.864  11.767   4.866 -0.7733  0.5495 -0.2107
 8715SOL    HW132750   8.813  11.742   4.789  0.4990 -1.3491 -0.4841
 8715SOL    HW232751   8.954  11.774   4.835 -0.2146 -0.3837  1.1102
 8716SOL     OW32752   5.675  12.510   8.946  0.4414  0.0087 -0.2639
 8716SOL    HW132753   5.748  12.495   8.887  0.5823 -0.5648  0.0519
 8716SOL    HW232754   5.713  12.505   9.034 -0.0522 -0.7366 -0.0877
 8717SOL     OW32755   8.108   2.891   3.760 -0.4383 -0.1519  0.0151
 8717SOL    HW132756   8.193   2.859   3.729 -0.1326 -1.0103  1.6133
 8717SOL    HW232757   8.044   2.849   3.703  0.1679 -0.3366 -0.5378
 8718SOL     OW32758   9.386   1.044  10.377 -0.4972  0.4160 -0.8703
 8718SOL    HW132759   9.394   1.118  10.437 -1.3192 -0.3039  0.1499
 8718SOL    HW232760   9.419   0.969  10.426 -0.7384 -0.1020 -1.4840
 8719SOL     OW32761   3.808   7.598  11.044 -0.3391  0.0506  0.1436
 8719SOL    HW132762   3.752   7.644  10.981  0.4056  0.4113 -0.2653
 8719SOL    HW232763   3.894   7.639  11.034  0.4303 -1.6064 -0.4389
 8720SOL     OW32764   0.336  10.235  10.962  0.0246 -0.3999  0.1583
 8720SOL    HW132765   0.389  10.263  10.888 -1.7082  0.4162 -0.8509
 8720SOL    HW232766   0.251  10.278  10.949 -0.3408 -0.1518  2.6702
 8721SOL     OW32767   1.162   6.802   4.671  0.4796 -0.2385 -0.0783
 8721SOL    HW132768   1.217   6.867   4.715  0.1523 -0.1383  0.1895
 8721SOL    HW232769   1.139   6.843   4.588  1.8467 -0.7964 -0.7567
 8722SOL     OW32770  11.203   8.745  10.991 -0.2509  0.2808  0.0056
 8722SOL    HW132771  11.227   8.837  10.980 -1.6025  0.4519 -2.0169
 8722SOL    HW232772  11.171   8.739  11.081 -1.9317  2.2435 -0.4040
 8723SOL     OW32773  11.785   9.805  11.219 -0.2085  0.6686 -0.5563
 8723SOL    HW132774  11.750   9.802  11.307 -1.6033 -0.7270 -1.1073
 8723SOL    HW232775  11.873   9.767  11.226 -0.3515  0.4744  0.1893
 8724SOL     OW32776  11.526   5.777  11.846 -0.1608 -0.3172  0.3195
 8724SOL    HW132777  11.573   5.803  11.926 -0.3763 -0.7575  0.5907
 8724SOL    HW232778  11.434   5.789  11.868 -0.1865  0.4735 -0.1871
 8725SOL     OW32779   4.674   8.815   4.577 -0.3955  0.2383 -0.2259
 8725SOL    HW132780   4.743   8.879   4.562 -1.2741  1.3231  0.2522
 8725SOL    HW232781   4.619   8.821   4.499 -1.3443  1.2066  0.4982
 8726SOL     OW32782   4.230   7.616   6.124  0.1442  0.0033 -0.0747
 8726SOL    HW132783   4.224   7.570   6.040 -4.0208 -1.1487  0.6161
 8726SOL    HW232784   4.264   7.550   6.184 -0.4984 -0.3968 -0.1445
 8727SOL     OW32785   7.019  11.800  11.771 -0.0236 -0.0395 -0.0475
 8727SOL    HW132786   7.082  11.755  11.715  0.9412  1.4774 -0.2645
 8727SOL    HW232787   7.026  11.757  11.856  1.9480  0.5958  0.1644
 8728SOL     OW32788   6.227   4.113   1.505  0.5179  0.7045  0.2359
 8728SOL    HW132789   6.178   4.078   1.580  1.6619  0.1300  0.7452
 8728SOL    HW232790   6.278   4.038   1.473  2.1104  1.6016  0.6001
 8729SOL     OW32791  11.426  10.149   3.833 -0.0454 -0.0890 -0.1357
 8729SOL    HW132792  11.398  10.216   3.895  0.9357 -0.0965  0.3279
 8729SOL    HW232793  11.449  10.197   3.754 -1.2529 -0.0751 -0.5051
 8730SOL     OW32794   1.243  12.087   4.135 -0.2300 -0.1589  0.2569
 8730SOL    HW132795   1.220  12.065   4.045  0.2638  1.4029 -0.2971
 8730SOL    HW232796   1.303  12.018   4.162  0.3466 -0.1541 -0.9433
 8731SOL     OW32797   7.279   7.983   5.053  0.5291 -0.5845 -0.4344
 8731SOL    HW132798   7.226   7.905   5.036 -0.3535 -0.3094  0.8937
 8731SOL    HW232799   7.216   8.054   5.059  0.9284 -0.3485  1.8227
 8732SOL     OW32800   1.834   7.294  12.201  0.3593 -0.3285  0.0592
 8732SOL    HW132801   1.813   7.353  12.129  2.0656  0.9688  0.5930
 8732SOL    HW232802   1.767   7.312  12.267 -0.4474 -0.6259 -0.6443
 8733SOL     OW32803   0.965   2.033   3.309  0.0450  0.0228 -0.9268
 8733SOL    HW132804   0.925   1.957   3.265 -0.4399 -0.1202 -0.2504
 8733SOL    HW232805   0.903   2.056   3.378  1.3286 -0.4965  0.4626
 8734SOL     OW32806  10.122  11.323   5.449  0.1181 -0.4189  0.0198
 8734SOL    HW132807  10.194  11.384   5.465 -1.0889  0.4874  2.5154
 8734SOL    HW232808  10.048  11.378   5.425 -0.1448 -1.2298 -1.1333
 8735SOL     OW32809   6.202   6.230   8.653 -0.2818 -0.2395 -0.7361
 8735SOL    HW132810   6.261   6.185   8.593  0.7876 -0.2652  0.3032
 8735SOL    HW232811   6.116   6.194   8.633 -0.0585  0.1250 -2.6028
 8736SOL     OW32812  12.739   5.672   1.432  0.1984  0.0962 -0.2849
 8736SOL    HW132813  12.664   5.634   1.477  2.3248 -0.8124  2.7719
 8736SOL    HW232814  12.772   5.601   1.376  0.3258 -0.3771  0.3885
 8737SOL     OW32815   3.658  11.542   1.619 -0.3891  0.2993 -0.2078
 8737SOL    HW132816   3.728  11.534   1.684 -0.8564  0.7612  0.3611
 8737SOL    HW232817   3.662  11.460   1.570  1.1378  0.6766 -0.7926
 8738SOL     OW32818   0.173  10.254   1.492 -0.0661  0.0932 -0.2609
 8738SOL    HW132819   0.083  10.283   1.479  0.0312  0.6148  0.1826
 8738SOL    HW232820   0.193  10.202   1.414 -1.0451 -0.7881  0.0509
 8739SOL     OW32821  11.670   2.212   5.963  0.3005 -0.0841  0.0223
 8739SOL    HW132822  11.627   2.271   6.025 -0.0046  0.5725 -0.8050
 8739SOL    HW232823  11.702   2.269   5.893  1.5230 -0.6999  0.0499
 8740SOL     OW32824   1.728   4.395  12.216  0.1124  0.0837  0.7999
 8740SOL    HW132825   1.790   4.462  12.243  0.3026 -0.0880  0.7938
 8740SOL    HW232826   1.750   4.319  12.270  1.3283 -0.6844 -0.6768
 8741SOL     OW32827   8.474   1.091  12.254  0.7284 -0.3771  0.5264
 8741SOL    HW132828   8.516   1.117  12.336 -0.6913 -0.0982  1.1959
 8741SOL    HW232829   8.527   1.132  12.186  2.6027 -1.5237  1.2092
 8742SOL     OW32830   2.988   2.024   5.391 -0.4414  0.7959 -0.1858
 8742SOL    HW132831   2.902   2.058   5.366 -1.3332 -0.6008  0.9023
 8742SOL    HW232832   2.986   1.932   5.367  0.9020  0.8112 -0.4685
 8743SOL     OW32833   8.615  12.557   4.665 -0.1485  0.0308 -0.2065
 8743SOL    HW132834   8.709  12.540   4.676 -0.0401  0.6268 -0.2022
 8743SOL    HW232835   8.610  12.648   4.638 -0.6200 -0.4998 -2.0025
 8744SOL     OW32836   3.418   0.290   7.809  0.5636 -0.1639 -0.5215
 8744SOL    HW132837   3.476   0.362   7.787  1.9123 -1.1095 -0.1599
 8744SOL    HW232838   3.475   0.222   7.845 -0.9401 -0.5195  1.3938
 8745SOL     OW32839   7.021  12.106   6.869 -0.5647  0.7970  0.3979
 8745SOL    HW132840   6.981  12.179   6.820 -0.7706  0.6229  0.3066
 8745SOL    HW232841   6.996  12.028   6.821 -0.5447  0.6446  0.6341
 8746SOL     OW32842   4.441   0.235   7.868  0.1751 -0.1972  0.3885
 8746SOL    HW132843   4.410   0.307   7.923  0.3836 -1.2982  2.0373
 8746SOL    HW232844   4.462   0.165   7.930  1.1190 -1.2670 -1.0615
 8747SOL     OW32845  12.743  11.471   7.912  0.3932  0.6529  0.4107
 8747SOL    HW132846  12.767  11.420   7.989  0.2858  3.2980  2.3323
 8747SOL    HW232847  12.649  11.456   7.902  0.9429 -2.5093 -1.5550
 8748SOL     OW32848   6.732  12.218   7.963  0.0307 -0.1953 -0.0976
 8748SOL    HW132849   6.823  12.188   7.955  0.0821  0.2368 -1.4491
 8748SOL    HW232850   6.712  12.210   8.056  1.6744  0.3237  0.3352
 8749SOL     OW32851   0.523   3.151   1.414  0.3047  0.0682 -0.1452
 8749SOL    HW132852   0.434   3.131   1.385  1.0502 -2.1746 -1.1079
 8749SOL    HW232853   0.541   3.086   1.482  1.4728 -0.0210 -0.5165
 8750SOL     OW32854   5.517   8.549   8.094 -0.1727 -0.1486 -0.0347
 8750SOL    HW132855   5.516   8.644   8.094 -1.3953 -0.1442  0.6687
 8750SOL    HW232856   5.558   8.526   8.010 -1.3486  1.0039 -0.9775
 8751SOL     OW32857   6.451   6.503   4.927  0.0291  0.2834  0.1364
 8751SOL    HW132858   6.447   6.409   4.947 -1.2955  0.5750  1.4598
 8751SOL    HW232859   6.359   6.532   4.929  0.4398  1.6619  0.0592
 8752SOL     OW32860   1.730   3.870   6.838  0.0874 -0.0775  0.3031
 8752SOL    HW132861   1.695   3.812   6.905  2.5200 -1.0874  0.7849
 8752SOL    HW232862   1.713   3.958   6.871  1.1540 -0.5506  2.2401
 8753SOL     OW32863   1.697   2.092   2.712  0.1050 -0.5194  0.0929
 8753SOL    HW132864   1.604   2.094   2.689  0.1488 -0.2275 -0.0690
 8753SOL    HW232865   1.708   2.162   2.776  0.6869  1.1900 -1.7692
 8754SOL     OW32866   6.305   1.858  10.185 -0.2630  0.5058  0.4260
 8754SOL    HW132867   6.370   1.790  10.201  1.0779  1.6598  0.0104
 8754SOL    HW232868   6.291   1.898  10.271  0.3736  0.9446  0.3303
 8755SOL     OW32869   3.259   1.211   2.231 -0.1264 -0.2421 -0.1321
 8755SOL    HW132870   3.329   1.192   2.293  1.0233  0.1124 -1.2805
 8755SOL    HW232871   3.192   1.256   2.283  1.9941  2.6014  0.3904
 8756SOL     OW32872   9.365   2.652   9.340 -0.1190 -0.1441  0.4289
 8756SOL    HW132873   9.375   2.563   9.307 -1.2980 -0.4928  0.9621
 8756SOL    HW232874   9.407   2.650   9.427 -2.2984 -0.9082  1.5469
 8757SOL     OW32875   3.838   4.535   0.027 -0.0467  0.0470 -0.1888
 8757SOL    HW132876   3.908   4.578   0.076  0.2923 -0.4035 -0.2755
 8757SOL    HW232877   3.883   4.478  -0.035 -0.4900 -0.2992 -0.1983
 8758SOL     OW32878   6.369   4.215  10.217 -0.2417  0.6136  0.2926
 8758SOL    HW132879   6.448   4.253  10.179 -0.5408  0.1372 -0.8853
 8758SOL    HW232880   6.322   4.289  10.255 -0.6867  1.4519 -1.7071
 8759SOL     OW32881   2.360   5.974   3.560  0.0567  0.2844 -0.1519
 8759SOL    HW132882   2.288   6.007   3.614 -0.2367 -2.2191  1.1116
 8759SOL    HW232883   2.409   5.915   3.617  0.1656 -1.9519 -2.3777
 8760SOL     OW32884   2.201   6.296   1.475  0.0731 -0.1619 -0.4275
 8760SOL    HW132885   2.186   6.365   1.539 -1.8287 -0.6453 -0.2757
 8760SOL    HW232886   2.268   6.331   1.416  0.6348  0.9569  0.8412
 8761SOL     OW32887  11.844   6.158   2.206  0.0445 -0.4137 -0.6136
 8761SOL    HW132888  11.810   6.194   2.288  1.2309 -2.9842  1.1550
 8761SOL    HW232889  11.780   6.092   2.180  0.0321 -0.1120 -1.3752
 8762SOL     OW32890   4.813  10.317  10.006 -1.0544 -0.5944  0.1488
 8762SOL    HW132891   4.851  10.308   9.918 -1.3076  0.0583 -0.0341
 8762SOL    HW232892   4.868  10.381  10.049  0.2498 -2.3128  1.1620
 8763SOL     OW32893   4.159  10.548   0.999  0.2610 -0.2325 -0.7145
 8763SOL    HW132894   4.240  10.551   0.948 -0.2335  0.4392 -1.4720
 8763SOL    HW232895   4.115  10.468   0.970 -0.0337  0.1642 -1.3687
 8764SOL     OW32896   0.135  10.761   8.668  0.1879 -0.1571  0.6357
 8764SOL    HW132897   0.185  10.778   8.747  1.0026  1.4738 -0.1875
 8764SOL    HW232898   0.066  10.701   8.696 -0.6902  1.7721  3.0058
 8765SOL     OW32899   0.799   5.780   7.050 -0.4780 -0.0148  0.2467
 8765SOL    HW132900   0.878   5.805   7.002 -0.5161  1.5577  0.9330
 8765SOL    HW232901   0.829   5.715   7.113  0.0870 -0.0931 -0.0957
 8766SOL     OW32902   6.724   0.951   5.369 -0.0336 -0.3792 -0.0715
 8766SOL    HW132903   6.721   0.900   5.450  0.9430 -0.2528  0.0626
 8766SOL    HW232904   6.808   0.927   5.329 -0.2950 -0.0868 -0.8143
 8767SOL     OW32905  11.927   5.902   5.486  0.0032 -0.0043 -0.4729
 8767SOL    HW132906  11.868   5.896   5.411 -1.0528 -0.1323  0.3479
 8767SOL    HW232907  11.893   5.974   5.539  0.1381 -0.5445  0.3832
 8768SOL     OW32908   3.689   9.110   1.955 -0.3810  0.3480  0.5169
 8768SOL    HW132909   3.770   9.069   1.927 -1.5878 -1.3348 -0.7251
 8768SOL    HW232910   3.677   9.182   1.893  0.1493  0.6038  0.7065
 8769SOL     OW32911   8.887   6.835   1.162 -0.3443 -0.3624  0.1765
 8769SOL    HW132912   8.851   6.755   1.123  0.2582 -0.8680  0.6305
 8769SOL    HW232913   8.824   6.859   1.230 -0.8632 -0.0695 -0.3960
 8770SOL     OW32914   5.927  10.988  10.891  0.3055 -0.0915 -0.2948
 8770SOL    HW132915   6.008  10.960  10.932  1.7270  2.1843 -1.3254
 8770SOL    HW232916   5.880  10.907  10.871  3.8858 -1.7827 -2.7828
 8771SOL     OW32917  11.965   0.054  10.744  0.2278  0.3916  0.7538
 8771SOL    HW132918  11.910  -0.019  10.774 -0.3707  0.9405  1.0340
 8771SOL    HW232919  11.925   0.132  10.784  0.3225  0.9743 -0.2486
 8772SOL     OW32920  10.614   6.654   2.929  0.0586  0.0543  0.0975
 8772SOL    HW132921  10.701   6.628   2.959 -0.2713 -0.5838  0.5229
 8772SOL    HW232922  10.579   6.708   3.000  0.0413  0.1667  0.0033
 8773SOL     OW32923   8.431   5.265   3.656  0.1668  0.2286 -0.2329
 8773SOL    HW132924   8.351   5.214   3.668 -0.3285  0.6799 -1.4276
 8773SOL    HW232925   8.463   5.281   3.745 -0.8759 -0.2548  0.2501
 8774SOL     OW32926   1.799   7.959   6.180 -1.0202 -0.3429  0.4978
 8774SOL    HW132927   1.843   7.892   6.127 -2.0606 -1.5181  1.0806
 8774SOL    HW232928   1.838   8.042   6.151  1.6905 -1.3084  1.0815
 8775SOL     OW32929   8.989   6.531  11.660  0.1967  0.0286 -0.5808
 8775SOL    HW132930   8.997   6.437  11.644  2.4616  0.4974 -2.9387
 8775SOL    HW232931   8.957   6.567  11.577  0.9491  1.4772 -0.2881
 8776SOL     OW32932  11.009  10.188   7.172  0.0866  0.5887 -0.5333
 8776SOL    HW132933  11.093  10.144   7.160  1.3891  2.5199  0.8461
 8776SOL    HW232934  10.986  10.171   7.263 -0.1631  1.4354 -0.4286
 8777SOL     OW32935  11.171   8.297   6.939 -0.4068  0.5475 -0.2548
 8777SOL    HW132936  11.151   8.390   6.945 -2.1191  0.1618  0.6289
 8777SOL    HW232937  11.218   8.277   7.020 -0.5340  0.5359 -0.1835
 8778SOL     OW32938   8.856  10.085   9.122 -0.0854 -0.0699 -0.3005
 8778SOL    HW132939   8.928  10.089   9.061 -2.1488 -1.1821 -3.0138
 8778SOL    HW232940   8.862   9.997   9.161 -0.0201 -0.1988 -0.6010
 8779SOL     OW32941   6.070  12.485  11.369  0.3748  0.0306 -0.3708
 8779SOL    HW132942   6.020  12.423  11.422  2.0767 -2.3827 -1.4112
 8779SOL    HW232943   6.028  12.483  11.283  1.8372 -1.6425 -1.1091
 8780SOL     OW32944   1.141   1.896   0.459  0.8556  0.3587 -0.0844
 8780SOL    HW132945   1.049   1.877   0.440  0.9578 -1.4784  0.9763
 8780SOL    HW232946   1.176   1.931   0.377 -0.9558  1.9071 -0.2666
 8781SOL     OW32947   3.652   5.969  12.131 -0.0620 -0.0691  0.0536
 8781SOL    HW132948   3.635   6.062  12.143  0.1104  0.2883 -2.1233
 8781SOL    HW232949   3.742   5.965  12.099  0.6696 -1.1786  2.0787
 8782SOL     OW32950   4.280  11.264   3.685 -0.1751  0.3531  0.1529
 8782SOL    HW132951   4.211  11.330   3.693 -0.8168 -0.2580 -0.2908
 8782SOL    HW232952   4.319  11.282   3.599  0.8353  1.2668  0.7696
 8783SOL     OW32953   5.321  11.975   7.116  0.1291 -0.0308  0.3748
 8783SOL    HW132954   5.328  11.915   7.190 -1.2705  1.1085  1.4961
 8783SOL    HW232955   5.409  11.978   7.079  0.6057 -1.4611  1.3108
 8784SOL     OW32956   4.702  11.335  10.771  0.5491 -0.3399 -0.1739
 8784SOL    HW132957   4.714  11.264  10.708  1.0290  0.2760 -0.7970
 8784SOL    HW232958   4.791  11.357  10.800  0.2638 -1.6090  1.8897
 8785SOL     OW32959   2.310   8.430   8.935 -0.1311 -0.0223  0.6953
 8785SOL    HW132960   2.222   8.462   8.913  0.2056 -0.3150 -1.2300
 8785SOL    HW232961   2.294   8.347   8.981 -0.8769  0.3552  1.1289
 8786SOL     OW32962   1.631  12.063  10.672 -0.0000 -0.4927 -0.6808
 8786SOL    HW132963   1.656  12.154  10.689 -1.3039 -0.3185  0.5296
 8786SOL    HW232964   1.584  12.067  10.588  1.2017 -0.3073 -1.3581
 8787SOL     OW32965  10.896   3.433  10.179  0.1503 -0.3717 -0.1966
 8787SOL    HW132966  10.930   3.430  10.090 -0.1558  1.4949 -0.4219
 8787SOL    HW232967  10.822   3.372  10.179  1.0362 -1.4818 -0.7941
 8788SOL     OW32968   6.507   5.961   0.632 -0.3275  0.2579 -1.1044
 8788SOL    HW132969   6.576   5.898   0.651  0.6346  1.5284 -0.2218
 8788SOL    HW232970   6.550   6.030   0.583 -0.9863  1.0263 -0.6306
 8789SOL     OW32971   1.096   4.505  11.062 -0.0685  0.1917 -0.1249
 8789SOL    HW132972   1.054   4.523  10.978  0.5553 -1.6335 -0.8698
 8789SOL    HW232973   1.186   4.535  11.051  0.0190 -0.0682 -0.1024
 8790SOL     OW32974   0.461  12.513   2.163  0.2187  0.1096 -0.1641
 8790SOL    HW132975   0.420  12.511   2.249 -0.9800 -1.3597 -0.7426
 8790SOL    HW232976   0.489  12.604   2.153  1.6255  0.0444  2.3165
 8791SOL     OW32977  10.816  10.437   3.499 -0.0412  0.3869 -0.5775
 8791SOL    HW132978  10.759  10.380   3.448 -1.1664  2.8015 -2.1971
 8791SOL    HW232979  10.821  10.518   3.448  1.8982  1.5875  1.3405
 8792SOL     OW32980   9.623   9.539   0.706  0.1665  0.3549 -0.6400
 8792SOL    HW132981   9.546   9.530   0.649  0.3217  3.7095 -1.5619
 8792SOL    HW232982   9.695   9.506   0.653 -0.3767 -1.6425 -0.2325
 8793SOL     OW32983   8.325   0.741   1.190 -0.4187 -0.3869  0.4710
 8793SOL    HW132984   8.293   0.772   1.105  1.3651 -0.9409 -0.4586
 8793SOL    HW232985   8.418   0.722   1.175 -0.0404 -0.4456  2.5744
 8794SOL     OW32986   7.165   9.662   5.725 -0.4510 -0.2677  0.3788
 8794SOL    HW132987   7.139   9.574   5.698  1.0787 -0.7798  0.4698
 8794SOL    HW232988   7.248   9.650   5.770  1.0655  1.4633 -1.7033
 8795SOL     OW32989   4.529  11.874   9.939  0.0317 -0.1253 -0.0006
 8795SOL    HW132990   4.498  11.819   9.867 -2.1148  1.8014 -0.6495
 8795SOL    HW232991   4.579  11.943   9.896 -1.6838  1.3251  0.2127
 8796SOL     OW32992   4.918   9.836  10.600  0.3590  0.2985 -0.3581
 8796SOL    HW132993   4.895   9.756  10.647  1.3912  0.5825  0.6665
 8796SOL    HW232994   4.841   9.855  10.546 -1.0283  0.1546  1.4849
 8797SOL     OW32995  11.146   1.645   4.177 -0.1240 -0.1243  0.4278
 8797SOL    HW132996  11.214   1.669   4.113  0.3967 -1.4921  0.4428
 8797SOL    HW232997  11.064   1.656   4.130  0.1967 -0.0658 -0.1311
 8798SOL     OW32998   5.797   9.579   6.475  0.0795  0.3082  0.8806
 8798SOL    HW132999   5.714   9.618   6.503  0.6534  1.2022  1.3881
 8798SOL    HW233000   5.810   9.610   6.385  0.3265  0.9532  1.1361
 8799SOL     OW33001   5.943   9.427  10.386 -0.3786  0.1719 -0.1632
 8799SOL    HW133002   5.948   9.384  10.471 -1.0018  1.2104  0.4322
 8799SOL    HW233003   6.033   9.449  10.364 -0.1250 -0.8831 -0.1923
 8800SOL     OW33004   3.074   1.266   5.675  1.0631 -0.0729  0.1725
 8800SOL    HW133005   3.093   1.208   5.602 -0.2625  0.6485 -0.7884
 8800SOL    HW233006   3.035   1.344   5.635  0.5250  0.4462  1.6174
 8801SOL     OW33007  10.475   9.704  10.150 -0.0955 -0.0117 -0.2467
 8801SOL    HW133008  10.558   9.733  10.189 -0.4742  0.5177  0.1856
 8801SOL    HW233009  10.486   9.610  10.139  0.7250  0.1121 -0.5918
 8802SOL     OW33010   7.085   6.758   4.911  0.6087 -0.1898  0.2549
 8802SOL    HW133011   6.994   6.748   4.885  0.2891 -1.7181  1.7956
 8802SOL    HW233012   7.135   6.718   4.840  0.0335 -0.3140 -0.0889
 8803SOL     OW33013  10.971   3.198   3.720  0.1462  0.3608  0.1339
 8803SOL    HW133014  10.998   3.283   3.684 -0.6521  0.0320 -1.3124
 8803SOL    HW233015  10.876   3.199   3.715 -0.0713  0.5539  2.9383
 8804SOL     OW33016   9.018   2.282   8.909  0.5594 -0.2455 -0.3515
 8804SOL    HW133017   9.027   2.204   8.963  0.0095 -1.0446 -1.3624
 8804SOL    HW233018   8.989   2.351   8.969  1.6505 -0.6503  0.6615
 8805SOL     OW33019   8.102   5.650   1.021  0.2270  0.0968  0.0951
 8805SOL    HW133020   8.060   5.732   0.994  0.0379 -0.0776 -0.1447
 8805SOL    HW233021   8.182   5.646   0.968 -0.4585 -0.5593 -0.9368
 8806SOL     OW33022   6.287   1.940   9.143 -0.6963 -0.4678  0.3275
 8806SOL    HW133023   6.310   1.964   9.233 -0.4661  1.6233 -0.2418
 8806SOL    HW233024   6.195   1.912   9.149 -1.0242  0.7101  1.0524
 8807SOL     OW33025   3.466   8.652   1.422 -0.3461  0.4693  0.1239
 8807SOL    HW133026   3.386   8.680   1.467 -1.3054 -1.1096 -0.5040
 8807SOL    HW233027   3.500   8.580   1.477  0.8177  1.2866  0.5235
 8808SOL     OW33028  10.702   4.999   3.479  0.1450  0.1143  0.0342
 8808SOL    HW133029  10.680   5.090   3.498 -0.0763  0.3510 -1.2537
 8808SOL    HW233030  10.620   4.960   3.450  0.4935 -0.1616 -0.6024
 8809SOL     OW33031  12.297   3.968   9.461  0.3339  0.0438  0.0740
 8809SOL    HW133032  12.387   3.958   9.491 -0.0429 -0.4895  1.0511
 8809SOL    HW233033  12.294   3.923   9.377  0.8226 -0.4574  0.3249
 8810SOL     OW33034   5.594   7.936   1.269  0.0752 -0.0163 -0.8400
 8810SOL    HW133035   5.582   7.952   1.363 -0.7276  0.8744 -1.0794
 8810SOL    HW233036   5.668   7.875   1.264  0.5997  0.5011  0.3358
 8811SOL     OW33037  12.766   3.935   2.085 -0.8533 -0.2871  0.3086
 8811SOL    HW133038  12.730   3.985   2.012 -0.1470  2.2071  1.5463
 8811SOL    HW233039  12.851   3.976   2.103 -1.0390 -0.7140  2.5497
 8812SOL     OW33040  12.386   6.107   2.449  0.3136 -0.2145  0.1309
 8812SOL    HW133041  12.460   6.048   2.434  0.4942  0.0298  0.0684
 8812SOL    HW233042  12.316   6.049   2.481  1.1643 -0.1598  2.2275
 8813SOL     OW33043   5.779  11.955   5.086  0.4721 -0.1569 -0.0241
 8813SOL    HW133044   5.700  11.993   5.048  1.2179  1.1015 -0.3749
 8813SOL    HW233045   5.796  12.009   5.164  1.4218  0.0960 -0.3984
 8814SOL     OW33046   8.244   8.378  10.128 -0.2002  0.3649  0.1218
 8814SOL    HW133047   8.185   8.452  10.113 -0.2335  0.4036  0.4242
 8814SOL    HW233048   8.298   8.373  10.049  0.3284  1.1934  0.4140
 8815SOL     OW33049   6.162   6.987   5.076  0.8900 -0.1135 -0.5604
 8815SOL    HW133050   6.204   6.902   5.091  0.9731 -0.1728 -1.1242
 8815SOL    HW233051   6.213   7.027   5.006  0.1503 -0.0882 -1.0986
 8816SOL     OW33052   3.009   4.773  12.578 -0.6538 -0.4074  0.2908
 8816SOL    HW133053   3.044   4.720  12.650 -0.8535  0.6854  1.2206
 8816SOL    HW233054   2.917   4.745  12.570 -0.8712  0.0731  1.0499
 8817SOL     OW33055  10.841   8.713   8.943 -0.1453 -0.0484 -0.5680
 8817SOL    HW133056  10.764   8.754   8.902  0.3766 -0.9826 -2.5969
 8817SOL    HW233057  10.819   8.710   9.036 -1.9362  1.0412 -0.8932
 8818SOL     OW33058   8.448  10.455  12.120  0.2060 -0.7181  0.1559
 8818SOL    HW133059   8.374  10.422  12.170 -0.1064  0.4993  0.5418
 8818SOL    HW233060   8.409  10.510  12.052  0.7190 -0.5935 -0.0424
 8819SOL     OW33061   6.576  11.197   7.638 -0.7748  0.2121  0.2722
 8819SOL    HW133062   6.591  11.103   7.651 -1.8329 -0.2226 -1.3321
 8819SOL    HW233063   6.616  11.238   7.715  0.8094 -1.4345  0.4119
 8820SOL     OW33064  12.498   0.414   3.462  0.3515  0.1317 -0.3796
 8820SOL    HW133065  12.467   0.493   3.506  0.8885 -1.0508  2.2936
 8820SOL    HW233066  12.585   0.438   3.429 -0.0002  1.0063 -0.7166
 8821SOL     OW33067   6.974   0.557  11.048 -0.2387 -0.2361  0.1425
 8821SOL    HW133068   6.982   0.536  10.955  2.0867  0.4763  0.1084
 8821SOL    HW233069   7.065   0.565  11.079 -0.9404 -0.1720  2.4143
 8822SOL     OW33070   6.168   4.216   8.755 -0.1485  0.7095 -0.5905
 8822SOL    HW133071   6.121   4.222   8.838 -1.2585  0.1757 -1.1551
 8822SOL    HW233072   6.143   4.130   8.720  0.7104  0.7154 -1.2316
 8823SOL     OW33073   9.575   0.103  10.473  0.0165  0.1841 -0.3756
 8823SOL    HW133074   9.652   0.151  10.442 -1.0528  2.6539  0.4964
 8823SOL    HW233075   9.570   0.124  10.566 -1.7450  0.1720 -0.4370
 8824SOL     OW33076   8.303  11.844   1.391 -0.0304  0.0501  0.6488
 8824SOL    HW133077   8.292  11.784   1.465 -0.8801 -0.5925  0.0201
 8824SOL    HW233078   8.269  11.796   1.316  0.8617  0.6720 -0.1791
 8825SOL     OW33079  10.909   1.757   6.712 -0.3295  0.3562 -0.3792
 8825SOL    HW133080  10.825   1.773   6.669 -1.0353 -1.7378  0.0624
 8825SOL    HW233081  10.891   1.769   6.805 -0.4783 -1.1525 -0.1830
 8826SOL     OW33082   5.507   6.556  10.426  0.1822 -0.1209  1.0607
 8826SOL    HW133083   5.430   6.530  10.477 -1.1604  0.6673 -0.4920
 8826SOL    HW233084   5.536   6.475  10.385 -1.1819 -0.0707 -0.0770
 8827SOL     OW33085  11.649   1.326   1.778  0.2600  0.1942  0.0746
 8827SOL    HW133086  11.620   1.289   1.861  0.9686 -0.6679 -0.0484
 8827SOL    HW233087  11.648   1.420   1.792 -1.3165  0.1551  0.4906
 8828SOL     OW33088   7.550   4.484  10.074 -0.1168  0.5926 -0.0300
 8828SOL    HW133089   7.517   4.496   9.985  2.5020 -2.0372 -1.5394
 8828SOL    HW233090   7.495   4.415  10.111 -0.1657  0.5275 -0.2231
 8829SOL     OW33091   7.746   7.527  10.483  0.0418  0.1540 -0.7345
 8829SOL    HW133092   7.711   7.441  10.458 -0.7529  0.5556 -1.0309
 8829SOL    HW233093   7.741   7.528  10.579  3.0381 -1.3701 -0.4311
 8830SOL     OW33094   9.216   0.568   2.733 -0.1213  0.4249  0.2472
 8830SOL    HW133095   9.245   0.598   2.819 -3.6548  0.7860  1.4807
 8830SOL    HW233096   9.122   0.584   2.733 -0.3388 -0.0488 -3.5411
 8831SOL     OW33097  10.515   6.787   9.841  0.1382 -0.2814 -0.4655
 8831SOL    HW133098  10.445   6.722   9.828 -0.3614 -0.4195  2.2685
 8831SOL    HW233099  10.539   6.778   9.933  1.2978  2.2306 -0.4384
 8832SOL     OW33100   6.518   6.319  11.359 -0.7538 -0.1285 -0.0313
 8832SOL    HW133101   6.568   6.328  11.440 -0.6017 -0.9011 -0.0348
 8832SOL    HW233102   6.541   6.397  11.309  0.3180 -0.3718  0.0464
 8833SOL     OW33103   1.629   1.375  10.578 -0.3891  0.0770 -0.4073
 8833SOL    HW133104   1.660   1.465  10.568 -0.7137  0.1923 -0.3878
 8833SOL    HW233105   1.709   1.322  10.580 -0.1282  0.4763  0.8028
 8834SOL     OW33106   5.040  12.140   1.773  0.2625 -0.3945 -0.1035
 8834SOL    HW133107   4.951  12.112   1.792 -0.5103  1.3165 -0.9848
 8834SOL    HW233108   5.095  12.081   1.824 -1.3701 -1.3618  0.6125
 8835SOL     OW33109   6.951  11.191   3.655 -0.0938 -0.4162  0.1709
 8835SOL    HW133110   7.014  11.167   3.587 -0.9222  2.7946 -1.9817
 8835SOL    HW233111   6.877  11.133   3.641 -0.0528 -0.1385 -1.4709
 8836SOL     OW33112  10.448   3.584  12.415  0.5605 -0.3789 -0.1013
 8836SOL    HW133113  10.356   3.579  12.387  0.7421 -1.3682 -0.5920
 8836SOL    HW233114  10.451   3.530  12.494  0.6251  0.0634  0.2000
 8837SOL     OW33115   8.494   4.987   8.628 -0.4344  0.3955 -0.2328
 8837SOL    HW133116   8.536   5.013   8.547 -1.2647  0.5767 -0.6177
 8837SOL    HW233117   8.563   4.943   8.678  0.1134  0.3859 -0.9802
 8838SOL     OW33118   4.974   7.162   0.738 -0.1361 -0.2680 -0.3677
 8838SOL    HW133119   5.023   7.234   0.698 -1.0939  0.6018 -0.0237
 8838SOL    HW233120   4.969   7.096   0.670  0.0703  0.3255 -0.9711
 8839SOL     OW33121   0.180   5.180   0.641 -0.6692  0.6558  0.2384
 8839SOL    HW133122   0.231   5.105   0.611  0.5199  2.0316 -1.3639
 8839SOL    HW233123   0.105   5.185   0.581 -0.9274  0.5589  0.5495
 8840SOL     OW33124   9.609   2.354  11.801  0.5072  0.0497 -0.2351
 8840SOL    HW133125   9.643   2.406  11.729 -0.0502  1.6717  0.6327
 8840SOL    HW233126   9.684   2.339  11.858  0.8924 -1.0247 -0.9825
 8841SOL     OW33127   5.277   3.289  11.261 -0.1000  0.0170 -0.5623
 8841SOL    HW133128   5.319   3.354  11.206  0.9096 -0.0978  0.0486
 8841SOL    HW233129   5.307   3.204  11.228  1.1774 -0.0322  0.6438
 8842SOL     OW33130   1.069   2.643  10.738 -0.2010 -0.6329  0.1221
 8842SOL    HW133131   1.035   2.696  10.665 -0.6599 -0.3472  0.5362
 8842SOL    HW233132   1.043   2.553  10.716 -2.4932 -0.2893  1.0726
 8843SOL     OW33133   8.261   2.679   2.652 -0.2855 -0.3546  0.2769
 8843SOL    HW133134   8.337   2.730   2.623 -0.1774 -0.5867  0.1533
 8843SOL    HW233135   8.290   2.588   2.647 -0.6563 -0.4547 -0.0092
 8844SOL     OW33136   8.618   0.623   7.989 -0.3998  0.3285 -0.3470
 8844SOL    HW133137   8.671   0.671   7.925 -0.5426  0.3216 -0.4720
 8844SOL    HW233138   8.636   0.666   8.072 -1.1538  1.1394 -0.5833
 8845SOL     OW33139   0.647   1.937   8.298 -0.4068 -0.1875  0.4142
 8845SOL    HW133140   0.642   1.922   8.393 -3.1114 -2.3375  0.0544
 8845SOL    HW233141   0.649   1.849   8.260  1.7102  0.6237 -1.5727
 8846SOL     OW33142   3.014   9.355   7.180 -0.5672  0.0395  0.3266
 8846SOL    HW133143   3.038   9.442   7.147 -0.4938 -0.1811 -0.2002
 8846SOL    HW233144   3.085   9.332   7.239 -0.4620  0.2288  0.2763
 8847SOL     OW33145   5.961   2.568   1.082  0.1785 -0.2862 -0.0645
 8847SOL    HW133146   5.925   2.656   1.086  1.2718  0.2369 -1.1067
 8847SOL    HW233147   5.886   2.512   1.063 -0.2286  0.7015 -1.5444
 8848SOL     OW33148   0.036   0.271  11.821  0.6902 -0.2393 -0.3647
 8848SOL    HW133149   0.069   0.352  11.783  1.0594 -1.0553 -1.8299
 8848SOL    HW233150   0.031   0.289  11.915 -0.7857  2.0297 -0.8045
 8849SOL     OW33151  10.099   0.057   5.371 -0.9261 -0.0872 -0.3128
 8849SOL    HW133152  10.111   0.026   5.281 -0.5738  0.3625 -0.4237
 8849SOL    HW233153  10.029   0.002   5.406 -1.6733  0.3130 -1.1413
 8850SOL     OW33154   6.555  12.068   6.241 -0.1960 -0.1404 -0.5363
 8850SOL    HW133155   6.554  12.101   6.151  0.4745 -0.2367 -0.5805
 8850SOL    HW233156   6.490  12.123   6.287 -0.2015  0.2177 -0.9667
 8851SOL     OW33157   4.618   3.852   8.449 -0.0860  0.1812  0.2039
 8851SOL    HW133158   4.703   3.842   8.405 -0.2400  0.8057 -0.2539
 8851SOL    HW233159   4.567   3.907   8.390 -0.7990 -0.1442  0.5008
 8852SOL     OW33160   5.954   5.704   9.981  0.2642 -0.3605  0.4544
 8852SOL    HW133161   6.039   5.685  10.020  0.2461 -0.0666  0.6392
 8852SOL    HW233162   5.922   5.618   9.952  0.9195 -0.3837 -0.2366
 8853SOL     OW33163   8.556   2.323   1.803 -0.0430 -0.1039  0.0959
 8853SOL    HW133164   8.461   2.338   1.805  0.1961  1.5231  1.3302
 8853SOL    HW233165   8.588   2.379   1.733 -0.1361 -2.0223 -1.5794
 8854SOL     OW33166   9.700   1.946   4.774  0.1426 -0.1741 -0.3814
 8854SOL    HW133167   9.617   1.899   4.769  0.7130 -1.2798  0.1649
 8854SOL    HW233168   9.675   2.038   4.775 -1.1941 -0.4943  1.5157
 8855SOL     OW33169   1.217   5.191   2.680  0.0391  0.5435 -0.2458
 8855SOL    HW133170   1.221   5.237   2.764 -1.0701 -0.7492  0.5649
 8855SOL    HW233171   1.146   5.234   2.633 -1.8426 -1.0531  1.0143
 8856SOL     OW33172   7.324  11.269   5.521 -0.2445  0.2369  0.1764
 8856SOL    HW133173   7.244  11.234   5.482  0.0395 -0.9293  0.5963
 8856SOL    HW233174   7.368  11.314   5.449  0.3722 -2.0523 -0.9614
 8857SOL     OW33175   4.881   7.947   2.843  0.0048 -0.5963 -0.1796
 8857SOL    HW133176   4.899   8.026   2.895 -1.3388  0.4382 -1.2325
 8857SOL    HW233177   4.796   7.916   2.876  0.4313 -1.5039  0.0894
 8858SOL     OW33178   6.878   7.661   1.144  0.2265 -0.3735 -0.0455
 8858SOL    HW133179   6.814   7.599   1.107  0.4328 -0.0110 -1.0352
 8858SOL    HW233180   6.837   7.747   1.133 -0.0921 -0.3185  1.3963
 8859SOL     OW33181   4.257   5.294   8.455  0.4594 -0.1184  0.1763
 8859SOL    HW133182   4.345   5.328   8.438  0.1920  1.1946  1.2524
 8859SOL    HW233183   4.205   5.324   8.381  0.5480  0.6030  0.4004
 8860SOL     OW33184   1.732   0.721   7.290 -0.3554 -0.5062  0.5757
 8860SOL    HW133185   1.652   0.758   7.253  0.2845 -0.6567 -1.0337
 8860SOL    HW233186   1.803   0.770   7.249  0.4173 -1.2333  1.0047
 8861SOL     OW33187   5.455   7.343   4.208 -0.3538 -0.3728 -0.3307
 8861SOL    HW133188   5.523   7.346   4.275 -2.0442  0.7376  1.4033
 8861SOL    HW233189   5.484   7.407   4.142  0.6568 -0.5170 -0.0512
 8862SOL     OW33190  10.224   5.369  10.945  0.4151  0.0076 -0.0487
 8862SOL    HW133191  10.243   5.340  10.856  1.0792 -1.3573  0.5104
 8862SOL    HW233192  10.189   5.291  10.989 -2.8777  1.3714  0.0861
 8863SOL     OW33193  12.454  10.116   6.574  0.1021 -0.4363 -0.0163
 8863SOL    HW133194  12.395  10.168   6.628  1.5648  2.2909 -0.8161
 8863SOL    HW233195  12.408  10.107   6.491 -0.0064 -0.0160 -0.0071
 8864SOL     OW33196   1.186   6.273   1.173  0.4415 -0.3255  0.0142
 8864SOL    HW133197   1.091   6.280   1.169  0.5281  1.0205 -0.0615
 8864SOL    HW233198   1.217   6.363   1.168  1.6917 -0.6766  1.0130
 8865SOL     OW33199   0.611   3.103   8.178 -0.2252  1.0304 -0.3171
 8865SOL    HW133200   0.598   3.011   8.154  1.3825  1.1466 -1.7599
 8865SOL    HW233201   0.561   3.152   8.113  0.1666  1.2229 -0.4722
 8866SOL     OW33202   7.576  12.441  10.900  0.2169 -0.4046 -0.1625
 8866SOL    HW133203   7.626  12.429  10.980  2.1391 -0.1359 -1.2589
 8866SOL    HW233204   7.508  12.505  10.923  0.8641 -0.1796  1.1920
 8867SOL     OW33205  12.691   3.197   0.581  0.0689 -0.0627 -0.4594
 8867SOL    HW133206  12.756   3.132   0.552  0.7235  0.3279  0.0848
 8867SOL    HW233207  12.732   3.281   0.561 -0.8311  0.1917 -1.2796
 8868SOL     OW33208   2.259  11.756   4.704  0.2748  0.4224 -0.1596
 8868SOL    HW133209   2.176  11.722   4.671  0.3907 -1.2196  1.1026
 8868SOL    HW233210   2.283  11.825   4.642 -1.1725 -0.2208 -1.5166
 8869SOL     OW33211  11.804   4.110   2.893  0.1415  0.2322  0.0221
 8869SOL    HW133212  11.726   4.156   2.923  0.4396  0.1087  0.9984
 8869SOL    HW233213  11.803   4.027   2.939  1.3950  0.6498  0.8716
 8870SOL     OW33214  11.949   7.981   8.315 -0.1826  0.2626 -0.8096
 8870SOL    HW133215  11.855   7.966   8.322 -0.6706  2.0799 -2.4440
 8870SOL    HW233216  11.977   7.928   8.240  0.3154 -1.0019  0.2403
 8871SOL     OW33217  11.472   8.228   6.524 -0.0407 -0.1206  0.5953
 8871SOL    HW133218  11.465   8.287   6.449 -0.1994 -0.5777  0.2443
 8871SOL    HW233219  11.405   8.259   6.585  0.7282  0.8468  0.9761
 8872SOL     OW33220  11.952   2.500   1.804 -0.3750 -0.1257  0.0789
 8872SOL    HW133221  11.882   2.444   1.835 -0.9014  0.7914  0.5852
 8872SOL    HW233222  11.929   2.519   1.713 -0.1001 -0.8609 -0.1489
 8873SOL     OW33223  10.661   0.072  10.073 -0.0837 -0.3211  0.7448
 8873SOL    HW133224  10.588   0.025  10.033 -0.2496  0.9778 -0.5829
 8873SOL    HW233225  10.619   0.142  10.123  0.2220  0.8175 -0.5321
 8874SOL     OW33226   3.242   0.430   4.222 -0.0955 -0.1940  0.0454
 8874SOL    HW133227   3.272   0.369   4.155  1.6373  0.1257  0.4933
 8874SOL    HW233228   3.168   0.476   4.181  2.1024  1.3878 -2.4548
 8875SOL     OW33229   1.618   6.889   4.846  0.1770 -0.2906  0.2593
 8875SOL    HW133230   1.631   6.820   4.780  3.9038 -0.0978  0.5962
 8875SOL    HW233231   1.624   6.843   4.930 -2.3200 -0.1982  0.5507
 8876SOL     OW33232   0.804   4.090   1.236  0.4275 -0.7923  0.0695
 8876SOL    HW133233   0.772   4.046   1.157 -2.2313  2.3108 -0.8311
 8876SOL    HW233234   0.741   4.067   1.303  0.8313 -0.8562  0.4299
 8877SOL     OW33235   9.740   2.884   3.135 -0.0542 -0.6306  0.0505
 8877SOL    HW133236   9.834   2.897   3.124 -0.5301  3.6019 -0.7390
 8877SOL    HW233237   9.714   2.834   3.057  1.3992 -1.2629 -0.0710
 8878SOL     OW33238   3.311   2.078   3.766  0.0374 -0.2842 -0.0343
 8878SOL    HW133239   3.404   2.095   3.774  0.1277 -0.8266  0.1247
 8878SOL    HW233240   3.305   2.008   3.700 -0.4368  1.4789 -1.9766
 8879SOL     OW33241  11.326   2.415   4.995  0.2280 -0.2277  0.0416
 8879SOL    HW133242  11.373   2.495   5.019 -0.8808  0.8736 -1.2637
 8879SOL    HW233243  11.269   2.442   4.923  0.6255 -2.4538 -1.1959
 8880SOL     OW33244   5.928   6.570  12.397 -0.0915  0.3197 -0.2519
 8880SOL    HW133245   5.965   6.558  12.310 -1.4583 -0.2796 -0.7748
 8880SOL    HW233246   5.984   6.636  12.438 -0.2599  1.6854 -2.1027
 8881SOL     OW33247   8.919  11.261   5.171  0.0793 -0.3056 -0.0148
 8881SOL    HW133248   9.011  11.238   5.176 -0.1864 -1.3769  0.1116
 8881SOL    HW233249   8.897  11.254   5.078  0.1405  0.0269 -0.0551
 8882SOL     OW33250   1.230   3.516   3.148 -0.2615  0.0183 -0.0003
 8882SOL    HW133251   1.191   3.511   3.236  1.3882 -2.1638  0.7141
 8882SOL    HW233252   1.157   3.496   3.089 -1.5252  2.0527  0.7718
 8883SOL     OW33253   4.161   6.460   0.796  0.0253  0.4782 -0.1109
 8883SOL    HW133254   4.223   6.388   0.787 -0.0357  0.3535  0.4581
 8883SOL    HW233255   4.094   6.442   0.730 -0.2862 -0.3001  0.4024
 8884SOL     OW33256   7.095   7.268   4.471  0.6325 -0.4247  0.5104
 8884SOL    HW133257   7.111   7.344   4.526 -0.2915  0.7190 -0.7299
 8884SOL    HW233258   7.168   7.267   4.409 -0.1370  0.4046 -0.4495
 8885SOL     OW33259   5.465   9.870   6.294  0.1943 -0.1283 -0.0955
 8885SOL    HW133260   5.406   9.811   6.341 -0.9124  1.9322  1.2374
 8885SOL    HW233261   5.458   9.842   6.203 -0.2460 -2.0629  0.4867
 8886SOL     OW33262   8.379   0.883  10.510  0.3627 -0.1268  0.3734
 8886SOL    HW133263   8.293   0.908  10.543 -1.6548 -0.7398 -3.7441
 8886SOL    HW233264   8.383   0.788  10.523 -0.4468 -0.3729 -0.9331
 8887SOL     OW33265  10.376   8.352   7.212  1.0314 -0.1488 -0.7111
 8887SOL    HW133266  10.328   8.314   7.139  0.0528 -0.5756  0.1184
 8887SOL    HW233267  10.466   8.325   7.199  0.7747 -0.6700 -1.4669
 8888SOL     OW33268  12.170   0.403   1.950 -0.2981 -0.3213 -0.1922
 8888SOL    HW133269  12.121   0.482   1.971 -0.8194 -0.4306 -0.9549
 8888SOL    HW233270  12.145   0.341   2.019  0.6531  0.3750  0.8193
 8889SOL     OW33271   8.997   7.812   6.809 -0.3346 -0.0639  0.2433
 8889SOL    HW133272   9.077   7.764   6.787  0.1158  0.6706  0.2470
 8889SOL    HW233273   9.014   7.849   6.895 -1.0692 -0.7138  0.6801
 8890SOL     OW33274   8.875   6.462  12.237 -0.0205  0.7097  0.2438
 8890SOL    HW133275   8.864   6.515  12.158 -1.2781  1.9099  1.1715
 8890SOL    HW233276   8.827   6.382  12.219 -0.6718  1.1593 -0.0392
 8891SOL     OW33277  12.274   6.136   4.979  0.5745  0.6210 -0.0545
 8891SOL    HW133278  12.334   6.101   5.044 -1.1366 -0.7396  0.8780
 8891SOL    HW233279  12.264   6.228   5.002  2.6722  1.0468 -0.5927
 8892SOL     OW33280   4.205   6.147   3.367  0.1006  0.6472  0.6104
 8892SOL    HW133281   4.209   6.122   3.460  1.9456  0.4894  0.5277
 8892SOL    HW233282   4.175   6.238   3.368  0.2481  0.6976  1.3776
 8893SOL     OW33283   9.762  10.461   9.001 -0.0252 -0.3938  0.5446
 8893SOL    HW133284   9.742  10.460   9.094 -0.3486 -1.7268  0.4731
 8893SOL    HW233285   9.806  10.377   8.985  1.1779  0.3553 -0.2608
 8894SOL     OW33286   1.587   9.610  12.274 -0.2084  0.2693  0.2476
 8894SOL    HW133287   1.530   9.555  12.328 -0.1603  0.5079  0.5448
 8894SOL    HW233288   1.538   9.691  12.262 -0.3487  0.1003 -0.3288
 8895SOL     OW33289   0.148   7.375   9.382  0.5304 -0.3274  0.5181
 8895SOL    HW133290   0.054   7.359   9.389  0.3726  0.6300  0.6644
 8895SOL    HW233291   0.188   7.294   9.415 -0.2379 -0.5100  1.0320
 8896SOL     OW33292   9.376   0.869   5.389  0.0739 -0.6766  0.4142
 8896SOL    HW133293   9.382   0.903   5.300 -0.9536 -0.5643  0.3782
 8896SOL    HW233294   9.417   0.783   5.384  2.2301  0.2970  0.3910
 8897SOL     OW33295   4.736  10.142   9.325 -0.1441  0.5934 -0.0228
 8897SOL    HW133296   4.746  10.047   9.313  0.1862  0.5566  0.5081
 8897SOL    HW233297   4.642  10.155   9.337  0.0238  0.0078  2.4659
 8898SOL     OW33298   8.097   3.454   5.035 -0.2150 -0.0850  0.1736
 8898SOL    HW133299   8.058   3.404   5.107  1.2090 -0.4787  0.7092
 8898SOL    HW233300   8.119   3.538   5.074  1.9489 -0.8211  0.6754
 8899SOL     OW33301   2.813   8.089   5.606 -0.0992  0.2900  0.5485
 8899SOL    HW133302   2.895   8.076   5.654 -0.0164 -0.8136  0.1649
 8899SOL    HW233303   2.805   8.183   5.595  1.1375  0.4101  0.5811
 8900SOL     OW33304   1.914   5.248  11.079  0.2761 -0.4544  0.3689
 8900SOL    HW133305   1.829   5.256  11.036  0.2270 -0.6415  0.4302
 8900SOL    HW233306   1.974   5.299  11.024 -0.0991  0.6768  0.9568
 8901SOL     OW33307  10.750  10.009   8.211  0.2133  0.0564  0.0575
 8901SOL    HW133308  10.778  10.006   8.302 -0.1877  0.8597  0.2178
 8901SOL    HW233309  10.830  10.027   8.162  0.5577 -1.1365  0.1741
 8902SOL     OW33310   0.564   9.850   3.567 -0.0594 -0.1622 -0.4173
 8902SOL    HW133311   0.516   9.878   3.489 -1.0027  0.6383  0.4183
 8902SOL    HW233312   0.507   9.875   3.640  1.6538  0.8946  0.6209
 8903SOL     OW33313   6.993   5.049   4.980  0.6552 -0.0399  1.1154
 8903SOL    HW133314   6.909   5.077   4.943 -0.0184 -1.2290  1.6914
 8903SOL    HW233315   7.021   5.123   5.034  1.1053  1.2770 -0.8255
 8904SOL     OW33316   2.424   9.807   7.528 -0.4287  0.1613  0.2051
 8904SOL    HW133317   2.447   9.809   7.435 -1.0629 -1.3258 -0.0191
 8904SOL    HW233318   2.348   9.749   7.532  0.4370 -0.9329  1.8294
 8905SOL     OW33319   7.377   2.760  12.778 -0.0433  0.3845  0.1011
 8905SOL    HW133320   7.352   2.687  12.722 -1.0564 -0.5919  1.7527
 8905SOL    HW233321   7.470   2.745  12.797 -0.5497 -1.2381  1.4668
 8906SOL     OW33322   0.402   6.251   8.667  0.1760 -0.1560 -0.5842
 8906SOL    HW133323   0.346   6.311   8.717  0.4919 -1.2360  1.1387
 8906SOL    HW233324   0.369   6.164   8.690  2.0130 -0.7787 -0.2060
 8907SOL     OW33325   3.113   2.585   5.726  0.1518 -0.4287  0.4035
 8907SOL    HW133326   3.101   2.537   5.644 -0.5704 -0.7772  0.7090
 8907SOL    HW233327   3.105   2.519   5.795 -0.5316  0.0605  0.8077
 8908SOL     OW33328   4.628  12.732   3.608  0.4368  0.8066  0.1469
 8908SOL    HW133329   4.718  12.763   3.610  0.9258 -0.5802  1.2614
 8908SOL    HW233330   4.595  12.747   3.697 -0.0909  0.3637  0.0350
 8909SOL     OW33331  11.996   2.280   2.185  0.2870  0.3064 -0.4666
 8909SOL    HW133332  12.026   2.368   2.164 -0.2203  0.6431  0.1992
 8909SOL    HW233333  11.902   2.288   2.196  0.3650 -0.1151  0.6232
 8910SOL     OW33334   0.084   1.462   6.223  0.3676 -0.0555  0.0538
 8910SOL    HW133335   0.150   1.393   6.226 -0.2755 -0.6592  1.9511
 8910SOL    HW233336   0.126   1.538   6.264 -0.7550 -1.1508  3.5938
 8911SOL     OW33337  10.629   1.746   3.169 -0.2202 -0.1199 -0.1028
 8911SOL    HW133338  10.535   1.756   3.184 -0.8404 -0.8585 -2.9055
 8911SOL    HW233339  10.668   1.818   3.217 -2.2847  0.6216  0.5940
 8912SOL     OW33340   2.167  12.140  10.431  0.0028 -0.3449 -0.1666
 8912SOL    HW133341   2.091  12.117  10.378  0.4653 -1.1105 -0.5091
 8912SOL    HW233342   2.149  12.102  10.517  0.8754 -2.3090 -0.7939
 8913SOL     OW33343   7.359   9.078  10.393 -0.9333 -0.0330 -0.2251
 8913SOL    HW133344   7.294   9.140  10.359 -0.5887  1.1049  1.0912
 8913SOL    HW233345   7.442   9.125  10.387 -0.6263 -0.4649  0.5634
 8914SOL     OW33346   9.685   5.999   3.557 -0.4859  0.3952  0.2496
 8914SOL    HW133347   9.769   6.033   3.527  0.3386 -1.6154  0.0581
 8914SOL    HW233348   9.642   5.970   3.476 -1.1859  1.0206  0.3937
 8915SOL     OW33349   4.599   6.982  12.763  0.0927  0.3500 -0.4812
 8915SOL    HW133350   4.624   6.899  12.722 -2.5806  0.2685 -2.1420
 8915SOL    HW233351   4.506   6.973  12.783 -0.3430  3.0216 -0.9047
 8916SOL     OW33352   7.487  10.771   5.691  0.7581 -0.0426 -0.2099
 8916SOL    HW133353   7.457  10.789   5.602  0.6770  0.3871 -0.0974
 8916SOL    HW233354   7.539  10.691   5.683 -0.2315 -0.6872 -0.4456
 8917SOL     OW33355  12.000   5.885   2.822 -0.2634 -0.5842  0.4184
 8917SOL    HW133356  12.077   5.937   2.848 -0.0070 -0.0789 -1.2687
 8917SOL    HW233357  11.994   5.816   2.888  0.0866  0.8830  2.0701
 8918SOL     OW33358  10.316  11.654   2.793 -0.4103  0.1076  0.5971
 8918SOL    HW133359  10.347  11.566   2.772 -2.9020 -0.9643  1.1158
 8918SOL    HW233360  10.318  11.659   2.888 -0.2955  0.6305  0.5722
 8919SOL     OW33361  10.429   7.291  12.751  0.1107 -0.1092  0.1353
 8919SOL    HW133362  10.384   7.275  12.834 -0.0971 -1.9906 -0.3015
 8919SOL    HW233363  10.400   7.220  12.694  2.6380 -0.6399 -0.5819
 8920SOL     OW33364   8.853   5.121   4.955  0.7151  0.1989  0.5313
 8920SOL    HW133365   8.868   5.079   4.870 -0.0328  1.1151 -0.0636
 8920SOL    HW233366   8.794   5.061   5.000 -1.8490  1.4067 -1.0284
 8921SOL     OW33367   4.146   4.150   9.782 -0.0840 -0.1294  0.3620
 8921SOL    HW133368   4.180   4.088   9.717  2.0084 -0.5120  1.7429
 8921SOL    HW233369   4.065   4.109   9.813  1.5742 -2.6062  1.7176
 8922SOL     OW33370   2.160   7.957   4.671 -0.0984  0.1513  0.3888
 8922SOL    HW133371   2.106   8.019   4.622 -0.2511  1.3945  2.0380
 8922SOL    HW233372   2.159   7.991   4.760  3.2775  0.1716  0.5425
 8923SOL     OW33373  10.069   5.185   7.771 -0.5057  0.0449  0.0420
 8923SOL    HW133374   9.987   5.216   7.810 -0.1675 -0.2268  1.0080
 8923SOL    HW233375  10.091   5.106   7.820  0.2230 -0.0066 -0.3489
 8924SOL     OW33376   6.663  10.055   9.449  0.5702 -0.1326 -0.2015
 8924SOL    HW133377   6.703  10.123   9.503 -0.0065 -0.1330  0.2325
 8924SOL    HW233378   6.716  10.055   9.368  0.3797  1.0513 -0.3502
 8925SOL     OW33379   8.158  10.048  10.457 -0.5605  0.2507  0.4314
 8925SOL    HW133380   8.109  10.002  10.389  0.0381 -1.0152  0.8217
 8925SOL    HW233381   8.210   9.980  10.499  1.9938  1.5869 -0.3332
 8926SOL     OW33382   1.000   2.053   6.638  0.3762 -0.5473  0.3966
 8926SOL    HW133383   1.031   2.135   6.676  0.2749  0.3432 -1.3300
 8926SOL    HW233384   0.911   2.042   6.672  0.1150  0.4578  0.0536
 8927SOL     OW33385   6.727   3.425   5.871 -0.0528  0.0361 -0.4234
 8927SOL    HW133386   6.742   3.335   5.898  0.1380  0.2449  0.1838
 8927SOL    HW233387   6.779   3.435   5.791  0.6008 -0.1521 -0.0321
 8928SOL     OW33388   3.906  11.478   5.806  0.2488  0.0468 -0.7361
 8928SOL    HW133389   3.943  11.488   5.893 -0.7205  3.0570 -0.5304
 8928SOL    HW233390   3.828  11.534   5.806 -2.1829 -2.9772 -2.3266
 8929SOL     OW33391   7.699   4.470   5.100  0.4988  0.1916 -0.2983
 8929SOL    HW133392   7.654   4.389   5.123  1.6864 -0.7977 -1.3232
 8929SOL    HW233393   7.769   4.478   5.164  0.6822  0.1408 -0.4911
 8930SOL     OW33394   4.766  10.572  12.531 -0.3980  0.2738  0.0997
 8930SOL    HW133395   4.692  10.576  12.592  1.6869 -0.3931  2.8921
 8930SOL    HW233396   4.763  10.655  12.485 -2.8018  0.3048  0.1720
 8931SOL     OW33397   9.908   1.255   7.245 -0.0305 -0.3716 -0.0322
 8931SOL    HW133398   9.823   1.261   7.201 -0.1783  0.8572  0.4045
 8931SOL    HW233399   9.925   1.161   7.251 -1.7279 -0.6699  0.5619
 8932SOL     OW33400   0.579  12.184   5.213 -0.5763  0.4160 -0.2329
 8932SOL    HW133401   0.499  12.132   5.198 -1.6166  1.1424  2.2084
 8932SOL    HW233402   0.572  12.212   5.305  2.6684  0.2766  0.1725
 8933SOL     OW33403   3.835   2.599   4.238 -0.2551  0.4421  0.2206
 8933SOL    HW133404   3.760   2.605   4.178 -0.4264  1.4248  0.5135
 8933SOL    HW233405   3.803   2.633   4.321  0.8126  1.9480  0.0520
 8934SOL     OW33406   1.543   6.743   0.813 -0.0132 -0.3040  0.0243
 8934SOL    HW133407   1.581   6.831   0.816  1.8745 -1.0001 -1.5616
 8934SOL    HW233408   1.613   6.688   0.779 -1.1502 -2.4549  0.9932
 8935SOL     OW33409   7.379  10.306   0.432 -0.1492  0.4303 -0.1184
 8935SOL    HW133410   7.398  10.335   0.521  0.0245  0.3384 -0.1251
 8935SOL    HW233411   7.296  10.349   0.409 -0.1204  0.5649  0.0349
 8936SOL     OW33412   6.629  10.476   6.796  0.0498 -0.1259  0.5682
 8936SOL    HW133413   6.581  10.431   6.726 -1.9982  0.8776  1.2511
 8936SOL    HW233414   6.663  10.555   6.755  0.0311 -0.2113  0.3870
 8937SOL     OW33415   8.826  10.409   8.811  0.0208 -0.2772 -0.2301
 8937SOL    HW133416   8.914  10.426   8.843 -0.6855 -0.2672  1.8088
 8937SOL    HW233417   8.822  10.314   8.799  0.8317 -0.1259 -2.0941
 8938SOL     OW33418   4.126  11.955   5.550  0.0011  0.9574 -0.0538
 8938SOL    HW133419   4.155  11.864   5.546 -0.1986  0.8143  1.4051
 8938SOL    HW233420   4.131  11.985   5.459  0.3528 -0.4108 -0.5152
 8939SOL     OW33421   5.380   2.496   7.447 -0.1145 -0.2844 -0.6800
 8939SOL    HW133422   5.448   2.522   7.509  0.9367 -0.7505 -1.5922
 8939SOL    HW233423   5.359   2.406   7.472  0.9151 -0.7740 -1.4683
 8940SOL     OW33424   1.706   4.043   0.139  0.7776  0.8122 -0.0886
 8940SOL    HW133425   1.651   4.076   0.069 -1.1861 -0.5554  0.7205
 8940SOL    HW233426   1.740   3.960   0.106 -1.6957 -0.8187  1.1394
 8941SOL     OW33427   6.343   0.096  11.757 -0.1476 -0.3376  0.3184
 8941SOL    HW133428   6.254   0.105  11.791 -0.6188  0.3586 -1.0281
 8941SOL    HW233429   6.399   0.130  11.826 -0.9553 -0.4319  1.0308
 8942SOL     OW33430   6.010   4.089   4.210 -0.3532  0.1676 -0.2249
 8942SOL    HW133431   5.994   3.996   4.229  0.2466  0.2974  0.9719
 8942SOL    HW233432   5.926   4.131   4.223 -1.0445 -0.4071 -2.3296
 8943SOL     OW33433  10.232   5.895   0.036 -0.2568  0.3815 -0.0724
 8943SOL    HW133434  10.207   5.857  -0.048 -0.4467  1.6144 -0.5921
 8943SOL    HW233435  10.217   5.989   0.026  0.0699  0.5968  1.2184
 8944SOL     OW33436   3.386   8.341   8.397 -0.4612  0.0501  0.4132
 8944SOL    HW133437   3.405   8.376   8.483  2.0310  1.0998 -0.4816
 8944SOL    HW233438   3.342   8.412   8.350 -2.4623 -0.7523  0.9613
 8945SOL     OW33439   8.310   5.636   3.204 -0.4174 -0.1616 -0.4577
 8945SOL    HW133440   8.278   5.567   3.261  0.2727 -0.8312 -0.8651
 8945SOL    HW233441   8.241   5.648   3.139  0.9224 -3.0860 -2.6333
 8946SOL     OW33442  12.455   3.723  10.558 -0.2602 -0.4331 -0.4775
 8946SOL    HW133443  12.456   3.775  10.478 -0.7101 -0.3202 -0.4121
 8946SOL    HW233444  12.372   3.676  10.556 -0.5430  0.0225  0.2013
 8947SOL     OW33445  12.262   9.697   9.045 -0.1885 -0.2871 -0.2452
 8947SOL    HW133446  12.260   9.737   8.958  0.6008  0.3733  0.0282
 8947SOL    HW233447  12.325   9.750   9.094 -0.3410 -0.8871  0.6142
 8948SOL     OW33448   1.756   6.797  11.224  0.2896  0.2602 -0.3092
 8948SOL    HW133449   1.768   6.806  11.130  1.3699 -0.3063 -0.2386
 8948SOL    HW233450   1.835   6.834  11.262  0.9705 -1.6421  0.2674
 8949SOL     OW33451   0.527   1.152   5.852  0.3976 -0.1470 -0.8427
 8949SOL    HW133452   0.611   1.139   5.809  0.0754 -0.1648 -1.4821
 8949SOL    HW233453   0.520   1.246   5.864 -0.7901  0.1889 -3.5336
 8950SOL     OW33454   4.913   0.169  12.516  0.0561 -0.5869  0.1442
 8950SOL    HW133455   4.875   0.092  12.558 -0.4398 -0.4088  0.0290
 8950SOL    HW233456   5.007   0.149  12.507  0.1919 -0.5852  1.4185
 8951SOL     OW33457   7.740   1.039   0.304 -0.9672 -0.3602 -0.5838
 8951SOL    HW133458   7.706   0.950   0.298 -0.4453 -0.4959 -1.7080
 8951SOL    HW233459   7.760   1.050   0.397  0.1872 -1.8928 -0.6091
 8952SOL     OW33460  10.859   9.139   8.378  0.1184 -0.0456  0.3740
 8952SOL    HW133461  10.931   9.092   8.421  0.0986 -0.1011  0.3480
 8952SOL    HW233462  10.889   9.150   8.288 -0.0073 -0.2866  0.3005
 8953SOL     OW33463   8.256   2.413   3.896  0.6586  0.2118 -0.0301
 8953SOL    HW133464   8.312   2.399   3.973 -0.4568 -0.5584  0.6759
 8953SOL    HW233465   8.193   2.341   3.899 -0.8840  1.4767 -0.3309
 8954SOL     OW33466  12.459   9.507   8.813  0.1334 -0.2503  0.1294
 8954SOL    HW133467  12.456   9.556   8.731  0.4888 -0.8126 -0.2268
 8954SOL    HW233468  12.481   9.572   8.879  1.5610 -0.0937 -0.4781
 8955SOL     OW33469   3.008  12.782   3.212 -0.7448 -0.1569 -0.0067
 8955SOL    HW133470   2.944  12.750   3.149 -1.3525  0.0385  0.5040
 8955SOL    HW233471   3.091  12.781   3.164 -1.1136 -0.4779 -0.6518
 8956SOL     OW33472  12.347  12.588   8.952 -0.3365 -0.4116  0.0515
 8956SOL    HW133473  12.400  12.631   9.019 -0.7780 -1.4832  1.1243
 8956SOL    HW233474  12.324  12.504   8.990 -2.4388 -0.1653 -0.5468
 8957SOL     OW33475  11.479   1.415   1.422 -0.2491  0.1000 -0.1920
 8957SOL    HW133476  11.409   1.430   1.485 -0.0012  0.1979  0.0598
 8957SOL    HW233477  11.513   1.329   1.444  0.8837  0.7819  0.8208
 8958SOL     OW33478   3.788   8.279   3.957  0.6973  0.0402  0.0431
 8958SOL    HW133479   3.780   8.186   3.937 -1.6075  0.2145 -0.0744
 8958SOL    HW233480   3.831   8.316   3.880  1.4366 -0.8810 -0.0012
 8959SOL     OW33481  11.795   7.895   8.768 -0.2448  0.3760 -0.3077
 8959SOL    HW133482  11.859   7.872   8.835 -0.8958 -0.5263  0.0248
 8959SOL    HW233483  11.847   7.915   8.690  0.6263  2.8266  0.7956
 8960SOL     OW33484   8.391   0.179   0.093 -0.1667 -0.2064 -0.4019
 8960SOL    HW133485   8.308   0.214   0.127 -0.0535 -0.2275 -0.1016
 8960SOL    HW233486   8.459   0.223   0.144 -0.0394 -1.4028  0.5130
 8961SOL     OW33487   1.713  12.439   7.681 -0.1887 -0.0434 -0.1402
 8961SOL    HW133488   1.795  12.403   7.648  0.0506 -0.3427  0.7519
 8961SOL    HW233489   1.646  12.377   7.652 -0.1372  0.3200 -1.0621
 8962SOL     OW33490   2.112  10.461  12.024  0.0850 -0.1823  0.4859
 8962SOL    HW133491   2.155  10.532  12.071  0.3665  1.1738 -1.7074
 8962SOL    HW233492   2.184  10.408  11.990 -0.0383  0.3031 -0.5522
 8963SOL     OW33493  11.222   4.929   3.795  0.5372  0.4302  0.6157
 8963SOL    HW133494  11.223   4.869   3.870 -1.5257 -0.7239 -0.1992
 8963SOL    HW233495  11.285   4.893   3.733 -1.3329 -1.5358 -0.2610
 8964SOL     OW33496   8.739  11.648   3.185  0.5461  0.3209  0.0162
 8964SOL    HW133497   8.734  11.556   3.160  0.7041  0.7421 -1.6604
 8964SOL    HW233498   8.655  11.685   3.158  0.5367  0.7024  0.5538
 8965SOL     OW33499  12.498   6.365   9.373  0.0203 -0.2663 -0.4680
 8965SOL    HW133500  12.424   6.425   9.361 -0.8157 -1.5866 -2.4597
 8965SOL    HW233501  12.558   6.388   9.302  0.1622 -1.1112 -0.6231
 8966SOL     OW33502  11.999   3.323   3.942  0.0170 -0.3073  0.5715
 8966SOL    HW133503  12.054   3.265   3.994 -0.1338  0.2814  1.4306
 8966SOL    HW233504  11.927   3.268   3.912 -0.4303 -0.4630  1.8502
 8967SOL     OW33505   4.268   0.614   2.531 -0.7892  0.2204  0.4550
 8967SOL    HW133506   4.329   0.572   2.592 -1.0924 -1.1664 -0.1610
 8967SOL    HW233507   4.322   0.670   2.477 -0.1479 -0.4312  0.4056
 8968SOL     OW33508   8.847   8.840   1.075  0.0057 -0.6784 -0.4194
 8968SOL    HW133509   8.769   8.890   1.051  1.0963  0.7660 -1.1364
 8968SOL    HW233510   8.875   8.880   1.158  0.9675  0.0383 -1.0721
 8969SOL     OW33511   2.932  12.245  10.897 -0.2928 -0.2207 -0.4724
 8969SOL    HW133512   2.924  12.181  10.968 -2.1263 -2.7453 -2.7367
 8969SOL    HW233513   2.852  12.296  10.900 -1.6325 -2.0715 -2.1394
 8970SOL     OW33514  11.337   4.920   1.896 -0.2310  0.5181 -0.2967
 8970SOL    HW133515  11.376   4.997   1.854  1.3275 -0.0548  0.0067
 8970SOL    HW233516  11.329   4.856   1.825 -1.4102  0.8950 -0.5231
 8971SOL     OW33517   8.021   5.244   2.744  0.3303  0.3752  0.2303
 8971SOL    HW133518   8.019   5.184   2.818 -0.5545  0.6778  0.4625
 8971SOL    HW233519   7.973   5.321   2.774 -1.5209 -0.1434 -1.1996
 8972SOL     OW33520   2.099   4.449   5.230 -0.4952  0.3236  0.0210
 8972SOL    HW133521   2.159   4.515   5.197  1.2579 -1.1437  0.1286
 8972SOL    HW233522   2.056   4.415   5.151 -1.0912  1.2545 -0.0739
 8973SOL     OW33523   5.889   9.263   8.687  0.0507  0.3695 -0.6696
 8973SOL    HW133524   5.941   9.328   8.734 -0.3887 -1.5326  2.8154
 8973SOL    HW233525   5.945   9.235   8.614  2.0487  1.4945  0.3528
 8974SOL     OW33526   5.557   1.101  11.895  0.2047  0.3119  0.1715
 8974SOL    HW133527   5.612   1.036  11.939 -0.9357 -1.1793 -0.4974
 8974SOL    HW233528   5.543   1.169  11.961  2.6372  0.6592  0.4211
 8975SOL     OW33529   7.964  12.420   0.425  0.0288 -0.0148 -0.1982
 8975SOL    HW133530   8.039  12.368   0.396 -1.7788 -2.6625 -0.5288
 8975SOL    HW233531   8.000  12.484   0.486  2.6167 -0.7332 -0.8791
 8976SOL     OW33532  11.972  11.742   5.445 -0.7025  0.1515  0.2958
 8976SOL    HW133533  11.978  11.699   5.360 -1.2780 -0.7274  0.6882
 8976SOL    HW233534  11.895  11.800   5.436 -0.4151  0.4968  0.0337
 8977SOL     OW33535   2.518   9.416   4.019 -0.0118 -0.0973  0.4491
 8977SOL    HW133536   2.577   9.462   4.080  1.8115 -1.6674 -0.0357
 8977SOL    HW233537   2.443   9.390   4.073 -0.5597  2.3501  0.9861
 8978SOL     OW33538   2.407   7.535   9.321  0.0151  0.0520 -0.2204
 8978SOL    HW133539   2.445   7.477   9.256  0.2795  1.2038 -1.1161
 8978SOL    HW233540   2.467   7.609   9.326 -0.0332  0.0237  1.2919
 8979SOL     OW33541  10.199  10.373   5.236  0.3936  0.3195 -0.3088
 8979SOL    HW133542  10.234  10.378   5.325  0.5664 -0.1701 -0.3421
 8979SOL    HW233543  10.273  10.395   5.180  0.3207  0.4910 -0.3384
 8980SOL     OW33544   7.235   9.873   4.823 -0.2406  1.0188  0.8397
 8980SOL    HW133545   7.175   9.839   4.890 -0.2166 -1.4458 -0.3076
 8980SOL    HW233546   7.317   9.825   4.838  0.1052  1.2570 -0.2537
 8981SOL     OW33547   8.528  11.046  10.831 -0.0628  0.1133 -0.4304
 8981SOL    HW133548   8.468  11.119  10.813  0.6991  0.9042  0.1871
 8981SOL    HW233549   8.597  11.055  10.765  0.1548  0.0932 -0.2054
 8982SOL     OW33550  11.680  12.771   6.707  0.5627 -0.1621  0.3735
 8982SOL    HW133551  11.722  12.712   6.644 -0.8093  0.5043 -1.2319
 8982SOL    HW233552  11.679  12.856   6.663 -0.4045  0.3247  1.2963
 8983SOL     OW33553   2.436  10.311   8.202  0.2180 -0.2009  0.8515
 8983SOL    HW133554   2.412  10.369   8.274  1.4022 -1.0022  1.9120
 8983SOL    HW233555   2.522  10.276   8.226 -0.3351 -2.1805  0.1050
 8984SOL     OW33556  11.835   1.960   9.870  0.5677  0.5900  0.2699
 8984SOL    HW133557  11.756   2.002   9.837 -0.4281 -1.5789 -0.2834
 8984SOL    HW233558  11.808   1.920   9.952  1.0790 -0.2168  0.0545
 8985SOL     OW33559   8.549   7.778  12.099  0.5918 -0.6867  0.6714
 8985SOL    HW133560   8.558   7.773  12.194  3.0649 -1.9722  0.4431
 8985SOL    HW233561   8.545   7.686  12.070 -0.3915 -0.3155 -0.4807
 8986SOL     OW33562  11.099  11.034   1.388  0.2497  0.2967  0.3720
 8986SOL    HW133563  11.165  11.068   1.449  0.0417  1.4162 -0.0005
 8986SOL    HW233564  11.022  11.017   1.443  0.6089 -0.3126  0.6886
 8987SOL     OW33565  12.258   6.300  11.138  0.4066  0.4092 -0.0972
 8987SOL    HW133566  12.217   6.369  11.190 -1.0613 -0.4495 -0.0797
 8987SOL    HW233567  12.283   6.233  11.201  0.5215  0.2733 -0.2860
 8988SOL     OW33568   5.258   1.022   0.203 -0.0699 -0.0288  0.3210
 8988SOL    HW133569   5.297   1.108   0.186 -0.1898  0.2534  1.4201
 8988SOL    HW233570   5.296   0.995   0.287 -1.4775 -0.1910  0.9319
 8989SOL     OW33571   6.961   8.799   0.662  0.1289 -0.4617  0.3418
 8989SOL    HW133572   7.018   8.826   0.590 -0.7572  0.1671 -0.1336
 8989SOL    HW233573   6.873   8.820   0.632 -0.3370 -1.1326  1.2002
 8990SOL     OW33574   6.042   4.541   8.183 -0.3666  0.1001  0.0622
 8990SOL    HW133575   6.055   4.625   8.227 -1.1763 -0.3713  1.2902
 8990SOL    HW233576   5.995   4.562   8.103 -0.8353  0.8098  0.5084
 8991SOL     OW33577   5.227   7.084   7.686 -0.3553  0.1567  0.7457
 8991SOL    HW133578   5.256   7.175   7.680 -0.9002  0.3051  0.2261
 8991SOL    HW233579   5.308   7.033   7.690  0.0011  0.5610 -0.6838
 8992SOL     OW33580   2.231   0.079   9.937  0.2994 -0.7013 -0.0487
 8992SOL    HW133581   2.160   0.040   9.988 -2.1263  2.4740 -0.6428
 8992SOL    HW233582   2.226   0.036   9.852 -1.5300 -0.0618 -0.3249
 8993SOL     OW33583   4.207   6.850   8.359  0.9127  0.5623  0.1106
 8993SOL    HW133584   4.177   6.822   8.446  1.1747  0.6300  0.2255
 8993SOL    HW233585   4.271   6.782   8.334  0.8655  0.5640 -0.0115
 8994SOL     OW33586   4.599   7.799   3.620  0.3267  0.0801  0.3606
 8994SOL    HW133587   4.555   7.790   3.704 -1.3011 -0.0683 -0.4627
 8994SOL    HW233588   4.685   7.759   3.633 -0.6534 -1.8423  1.4011
 8995SOL     OW33589   5.195   1.413   5.655  0.2913  0.4540  0.4829
 8995SOL    HW133590   5.218   1.449   5.740  1.8685 -0.5313  0.5188
 8995SOL    HW233591   5.215   1.483   5.593  0.7390  0.6008  0.7876
 8996SOL     OW33592   2.012   5.912   9.586  0.3466 -0.4951  0.5385
 8996SOL    HW133593   2.070   5.848   9.627  1.3808  1.5411  2.4456
 8996SOL    HW233594   1.925   5.890   9.618  0.7528 -0.6628  1.5669
 8997SOL     OW33595  11.909   7.061   8.326  0.4821  0.4311  0.7110
 8997SOL    HW133596  11.927   7.133   8.266  0.5451 -0.0209  0.1759
 8997SOL    HW233597  11.971   7.072   8.398  0.0061  1.3229  1.0011
 8998SOL     OW33598   5.665   5.588   5.236  0.2395  0.6177  0.0379
 8998SOL    HW133599   5.587   5.534   5.226 -0.1351  1.1971 -0.2335
 8998SOL    HW233600   5.644   5.649   5.307 -0.1557  1.7949 -1.0646
 8999SOL     OW33601   4.941   9.520   4.593 -0.0297  0.2087 -0.4550
 8999SOL    HW133602   5.008   9.486   4.653  0.6242 -0.3994 -1.4962
 8999SOL    HW233603   4.859   9.479   4.622  0.1995  0.2567  0.2710
 9000SOL     OW33604   6.964   9.609   1.531  0.0062 -0.1924 -0.3544
 9000SOL    HW133605   7.013   9.530   1.553  0.2031 -0.0558 -0.2931
 9000SOL    HW233606   6.970   9.663   1.610 -0.6835 -0.3915 -0.1540
 9001SOL     OW33607   9.020   0.510  10.346 -0.0738 -0.1216 -0.3360
 9001SOL    HW133608   9.031   0.547  10.259  2.5780 -2.1118 -0.9949
 9001SOL    HW233609   9.047   0.579  10.406  0.3741  0.5070 -1.2466
 9002SOL     OW33610  12.305  12.337   1.558 -0.5748 -0.2397  0.0830
 9002SOL    HW133611  12.368  12.404   1.530 -3.0760  2.1093 -0.3541
 9002SOL    HW233612  12.229  12.352   1.501 -1.6554 -2.7605  0.7683
 9003SOL     OW33613   8.330  11.712   5.625 -0.5968  1.0444  0.1004
 9003SOL    HW133614   8.310  11.804   5.643  0.8559  1.4232 -0.0657
 9003SOL    HW233615   8.327  11.670   5.711  0.9755  1.7458  0.5570
 9004SOL     OW33616   9.303   8.617  10.778 -0.1537 -0.2508 -0.3705
 9004SOL    HW133617   9.352   8.698  10.790  0.6823 -0.6482 -1.0222
 9004SOL    HW233618   9.251   8.633  10.699  0.0030 -0.3459 -0.4926
 9005SOL     OW33619   0.814   0.585   9.616 -0.3761  0.8972  0.9196
 9005SOL    HW133620   0.874   0.526   9.662 -1.2713 -0.5326  0.3249
 9005SOL    HW233621   0.871   0.644   9.567  0.5994 -1.2358 -0.6641
 9006SOL     OW33622  11.670  10.987   6.106  0.1744  0.1928  0.7593
 9006SOL    HW133623  11.625  10.914   6.064 -1.3836  1.4360  0.1696
 9006SOL    HW233624  11.649  10.979   6.199  0.0559 -0.1379  0.7030
 9007SOL     OW33625  11.387   7.365   4.808 -0.7686  0.1197  0.0219
 9007SOL    HW133626  11.298   7.390   4.783 -1.4031 -0.1712  1.8359
 9007SOL    HW233627  11.437   7.446   4.804 -1.1905  0.3552 -0.6500
 9008SOL     OW33628  11.958   7.258   4.429 -0.1067 -0.2353  0.2004
 9008SOL    HW133629  11.905   7.299   4.361  2.4295  0.3366 -1.5741
 9008SOL    HW233630  12.018   7.327   4.458  0.5184 -1.1660  1.1964
 9009SOL     OW33631   7.222   1.962   7.814 -0.5829 -0.0954 -0.3176
 9009SOL    HW133632   7.251   1.984   7.725  0.0848 -0.6427 -0.2437
 9009SOL    HW233633   7.301   1.966   7.867 -0.8850 -0.2915  0.1542
 9010SOL     OW33634   6.450   9.352  10.432 -0.2203  0.1422  0.1417
 9010SOL    HW133635   6.431   9.266  10.470 -1.0509  0.7332  1.1251
 9010SOL    HW233636   6.395   9.412  10.481  1.0142  1.3693  0.0844
 9011SOL     OW33637   6.890  10.145   9.592  0.6792  0.6161 -0.1005
 9011SOL    HW133638   6.913  10.052   9.585 -1.1711  0.1213 -0.0759
 9011SOL    HW233639   6.889  10.162   9.686  1.1597  0.7090 -0.1099
 9012SOL     OW33640   5.947   3.948   9.079 -0.0577 -0.5208 -0.1149
 9012SOL    HW133641   5.913   3.974   9.165  4.0947 -0.2492  1.6837
 9012SOL    HW233642   5.982   4.028   9.042 -0.3960 -0.9401 -1.3800
 9013SOL     OW33643  12.495   5.157   5.677  0.2690  0.2206 -0.6028
 9013SOL    HW133644  12.450   5.094   5.620  1.7517 -2.3323  0.8405
 9013SOL    HW233645  12.472   5.128   5.766  1.0688  1.7219  0.1264
 9014SOL     OW33646   5.616   6.069   2.687 -0.1775  0.5257 -0.5886
 9014SOL    HW133647   5.611   6.000   2.620 -4.4107 -0.2548  0.2646
 9014SOL    HW233648   5.628   6.022   2.769 -1.0650  0.9521 -0.2037
 9015SOL     OW33649   4.383   4.482   7.383  0.2142 -0.7151 -0.1684
 9015SOL    HW133650   4.349   4.569   7.403 -0.6658 -0.7858 -1.2763
 9015SOL    HW233651   4.444   4.496   7.310  0.4951 -0.9616  0.0128
 9016SOL     OW33652  10.624   3.630   8.565  0.1962  0.5096 -0.0547
 9016SOL    HW133653  10.654   3.539   8.573  1.8743  1.1723  1.8727
 9016SOL    HW233654  10.530   3.626   8.582  0.2447 -0.8617  0.0042
 9017SOL     OW33655   1.761   2.754   3.881  0.8897  0.2252  0.1442
 9017SOL    HW133656   1.760   2.731   3.788 -0.6656  0.7556 -0.0046
 9017SOL    HW233657   1.765   2.850   3.882  1.2803  0.2050  0.6293
 9018SOL     OW33658   2.858  10.159   8.766  0.2784  0.0587 -0.6312
 9018SOL    HW133659   2.883  10.095   8.700 -1.0878 -0.9610 -0.2187
 9018SOL    HW233660   2.849  10.108   8.847  0.1630  0.9504 -0.0674
 9019SOL     OW33661   6.138   7.605   8.897  0.3551  0.3454  0.2908
 9019SOL    HW133662   6.184   7.626   8.815 -0.7874 -1.5598 -0.9079
 9019SOL    HW233663   6.048   7.585   8.870 -0.2673  0.5018  2.1299
 9020SOL     OW33664   6.132  10.451  12.363  0.0512 -0.0552 -0.1200
 9020SOL    HW133665   6.138  10.543  12.335  0.4155  0.1127  0.5058
 9020SOL    HW233666   6.099  10.456  12.452 -3.7018 -0.6755 -1.2994
 9021SOL     OW33667   5.831   3.040   3.448  0.1511  0.2450  0.7014
 9021SOL    HW133668   5.738   3.056   3.467 -0.0398  0.8255 -0.6317
 9021SOL    HW233669   5.832   3.009   3.358  1.2553  0.1351  0.7392
 9022SOL     OW33670  11.946   4.967   2.150  0.1593  0.1450  0.4284
 9022SOL    HW133671  11.994   4.909   2.210 -1.3868 -1.6543  0.0340
 9022SOL    HW233672  11.988   4.953   2.065 -0.4034 -0.6858  0.2727
 9023SOL     OW33673   4.557  10.244   0.077  0.4643  0.2365  0.4060
 9023SOL    HW133674   4.465  10.226   0.097  0.1272  1.3945  0.0155
 9023SOL    HW233675   4.589  10.293   0.152  0.4513  0.7417  0.0903
 9024SOL     OW33676   1.738   6.606   6.445 -0.5993 -0.1943  0.2744
 9024SOL    HW133677   1.665   6.585   6.386 -1.8619  1.5174  1.1298
 9024SOL    HW233678   1.720   6.555   6.524  0.4717 -1.6094 -0.3632
 9025SOL     OW33679   0.553  10.760   1.268 -0.6264 -0.4951  0.5236
 9025SOL    HW133680   0.608  10.811   1.209  0.3239  0.0740  1.8393
 9025SOL    HW233681   0.500  10.705   1.211 -1.8571  2.0995 -0.9839
 9026SOL     OW33682  10.318   3.903  12.534 -0.0091  0.2711 -0.3785
 9026SOL    HW133683  10.378   3.950  12.592 -1.4026  0.9928  0.5444
 9026SOL    HW233684  10.252   3.866  12.593 -1.9099  1.6505 -1.5034
 9027SOL     OW33685   1.105   6.937  12.755  0.3206 -0.0874  0.2524
 9027SOL    HW133686   1.194   6.972  12.750  0.8277 -1.2521  0.6668
 9027SOL    HW233687   1.102   6.870  12.687 -0.0283 -0.5052  0.6793
 9028SOL     OW33688   2.492   4.708  11.948 -0.0118 -0.2253 -0.1051
 9028SOL    HW133689   2.563   4.650  11.978  2.1601  2.8422  1.1494
 9028SOL    HW233690   2.449   4.736  12.028 -0.7285  0.2720 -0.6551
 9029SOL     OW33691   9.868   6.550   3.103  0.0101  0.3127 -0.0919
 9029SOL    HW133692   9.859   6.462   3.139 -1.1585 -0.2127 -1.5639
 9029SOL    HW233693   9.785   6.567   3.058  0.6961  1.6396 -0.9533
 9030SOL     OW33694   9.157   1.282   5.219  0.1965 -0.2986  0.3868
 9030SOL    HW133695   9.149   1.187   5.224  0.5135 -0.3431  0.0674
 9030SOL    HW233696   9.076   1.310   5.175 -0.1210 -0.3709  0.9088
 9031SOL     OW33697   1.711   7.104   5.129  0.0604 -0.2671  0.3486
 9031SOL    HW133698   1.773   7.176   5.113  0.1024 -0.0390  1.4590
 9031SOL    HW233699   1.738   7.067   5.213  0.1278 -1.6931 -0.2721
 9032SOL     OW33700   8.336   4.612   2.464  0.1291  0.0066  0.7664
 9032SOL    HW133701   8.284   4.636   2.387  1.6449  2.5560  0.4110
 9032SOL    HW233702   8.427   4.619   2.434  0.7259 -0.5566  2.3635
 9033SOL     OW33703   4.804   1.433  11.826  0.2702 -0.1851 -0.3735
 9033SOL    HW133704   4.849   1.489  11.762  0.2501  1.0459  0.6428
 9033SOL    HW233705   4.713   1.464  11.824  0.4555  0.4846  0.8756
 9034SOL     OW33706  10.182  10.139   1.823  0.6170  0.4572  0.8108
 9034SOL    HW133707  10.181  10.220   1.873  0.1220 -0.7305  2.8165
 9034SOL    HW233708  10.102  10.141   1.772  0.6373  1.2415  0.7946
 9035SOL     OW33709   5.874   7.222   9.734  0.2001  0.6824  0.1344
 9035SOL    HW133710   5.798   7.166   9.719  0.8554  0.5745 -3.8577
 9035SOL    HW233711   5.944   7.161   9.756  0.3156  0.1077 -1.6563
 9036SOL     OW33712   8.833   3.487   1.863  0.9125  0.3546  0.6249
 9036SOL    HW133713   8.744   3.486   1.897  0.9558  2.6636  0.9530
 9036SOL    HW233714   8.887   3.453   1.934  0.4139 -0.1912  0.7516
 9037SOL     OW33715   2.956   0.942   0.694 -0.8530 -0.3152  0.1405
 9037SOL    HW133716   3.040   0.906   0.720 -0.3405  0.6365 -0.1398
 9037SOL    HW233717   2.968   1.037   0.697 -1.7596 -0.1635 -0.3815
 9038SOL     OW33718   1.686   7.860  10.999  0.0062  0.6626  0.5063
 9038SOL    HW133719   1.693   7.949  10.963 -2.7444  0.7007 -0.1304
 9038SOL    HW233720   1.643   7.872  11.084  0.6387  0.0002  0.9359
 9039SOL     OW33721   1.655   0.838  10.707 -0.6163  0.4459  0.1338
 9039SOL    HW133722   1.582   0.833  10.768 -0.7419  1.7713  0.1332
 9039SOL    HW233723   1.622   0.800  10.626 -1.4762  1.4334 -0.0009
 9040SOL     OW33724   1.857  11.523   1.982  0.6042 -0.0468 -0.1903
 9040SOL    HW133725   1.882  11.448   2.035  1.2360 -0.3704 -0.9346
 9040SOL    HW233726   1.779  11.558   2.026  0.0817 -1.3400 -0.0408
 9041SOL     OW33727  11.858  11.293   2.544 -0.5740  0.3688  0.5146
 9041SOL    HW133728  11.813  11.266   2.624 -0.9987 -0.7191 -0.0737
 9041SOL    HW233729  11.836  11.226   2.480  0.1951  0.9390 -0.3769
 9042SOL     OW33730   2.608  12.214   7.557 -0.2211 -0.1503 -0.1739
 9042SOL    HW133731   2.520  12.181   7.541 -0.6729  0.7800  0.3301
 9042SOL    HW233732   2.642  12.160   7.628 -0.9769  0.5014  0.6975
 9043SOL     OW33733   8.937   0.595   8.198  0.1148  0.0489  0.2706
 9043SOL    HW133734   8.863   0.647   8.229 -0.5914 -0.7079 -0.1375
 9043SOL    HW233735   9.012   0.627   8.249 -0.4026  1.1141  0.3790
 9044SOL     OW33736   9.803   5.780   3.686  0.2696  0.2218  0.1734
 9044SOL    HW133737   9.748   5.854   3.658  0.0328  0.1388  0.4107
 9044SOL    HW233738   9.884   5.820   3.716 -0.6005  0.5983  2.2450
 9045SOL     OW33739   9.352   7.404   6.086  0.2631  0.4869 -0.1408
 9045SOL    HW133740   9.357   7.496   6.109 -0.6905  0.8170 -1.1767
 9045SOL    HW233741   9.435   7.384   6.044  0.8699  0.5990  0.9628
 9046SOL     OW33742   4.272   8.514  10.631 -0.3622 -0.1838 -0.2661
 9046SOL    HW133743   4.322   8.517  10.549  1.4959 -1.3687  0.7400
 9046SOL    HW233744   4.195   8.460  10.610  0.6735 -1.4493 -0.9832
 9047SOL     OW33745  10.364   2.830  10.578  0.4283 -0.5042 -0.2469
 9047SOL    HW133746  10.404   2.917  10.576  0.0460 -0.3038  0.2925
 9047SOL    HW233747  10.414   2.778  10.516  1.1600 -0.1067  0.0051
 9048SOL     OW33748   9.633   7.211   0.025  0.4398 -0.5273  0.3109
 9048SOL    HW133749   9.570   7.243   0.090  2.4349 -0.4402  2.3271
 9048SOL    HW233750   9.715   7.253   0.049  1.1808 -0.0153 -2.7022
 9049SOL     OW33751   0.924   4.223   8.413  0.1243  0.1065 -0.0670
 9049SOL    HW133752   0.942   4.228   8.507  0.3378 -1.3461 -0.0174
 9049SOL    HW233753   0.909   4.130   8.396 -1.7887  0.5655 -1.1333
 9050SOL     OW33754   0.533  10.796   0.564  0.1748 -0.1001  0.2012
 9050SOL    HW133755   0.497  10.720   0.518  2.7643 -0.3370 -1.6864
 9050SOL    HW233756   0.519  10.869   0.504  0.3093  0.3383  0.6950
 9051SOL     OW33757   2.579   2.598   5.550  0.3114 -0.2333  0.5183
 9051SOL    HW133758   2.534   2.513   5.557 -1.9758  0.8888  0.5976
 9051SOL    HW233759   2.600   2.606   5.457  2.1289 -1.5807  0.7605
 9052SOL     OW33760  10.485   1.614   9.904 -0.1488  0.1900 -0.0929
 9052SOL    HW133761  10.444   1.628   9.819  0.9442  2.3157 -0.3363
 9052SOL    HW233762  10.421   1.645   9.968 -1.8381 -3.2909  0.1314
 9053SOL     OW33763   5.811   2.184   9.761 -0.6184 -0.3286 -0.5824
 9053SOL    HW133764   5.905   2.201   9.767 -0.7852  0.1669  1.2823
 9053SOL    HW233765   5.800   2.096   9.795 -0.7510 -0.7649 -1.7091
 9054SOL     OW33766   4.604   7.033   5.626  0.0386 -0.1370 -0.1423
 9054SOL    HW133767   4.587   7.057   5.535 -1.7625  0.5339  0.3282
 9054SOL    HW233768   4.664   7.101   5.658  0.1155  0.0308 -0.6328
 9055SOL     OW33769   1.363   8.633   5.940  0.3367  0.1061  0.2329
 9055SOL    HW133770   1.346   8.693   6.012  1.6770  0.3215  0.4005
 9055SOL    HW233771   1.296   8.653   5.875  0.0670  0.9899  0.7693
 9056SOL     OW33772  11.160  11.449  11.966  0.6011 -0.4282  0.6623
 9056SOL    HW133773  11.222  11.462  11.894 -2.1682  0.9602 -1.6335
 9056SOL    HW233774  11.194  11.505  12.036  1.6551  0.7219 -0.7051
 9057SOL     OW33775  10.083  11.122  10.030 -0.4048 -0.1154  0.6809
 9057SOL    HW133776  10.049  11.211  10.033  1.4224  0.6972 -0.4755
 9057SOL    HW233777  10.009  11.068  10.002 -1.3379  1.1570  0.6320
 9058SOL     OW33778   4.620   9.067   8.431 -0.4526 -0.1557 -0.6910
 9058SOL    HW133779   4.682   8.996   8.417  1.7987  1.1750  1.6581
 9058SOL    HW233780   4.673   9.138   8.469 -3.1427  1.6475 -0.0127
 9059SOL     OW33781   5.451   9.378   9.355  0.7057 -0.5301  0.3501
 9059SOL    HW133782   5.427   9.393   9.264 -2.4533 -1.8609  0.8565
 9059SOL    HW233783   5.437   9.462   9.398  0.2896 -0.4074 -0.0263
 9060SOL     OW33784  11.385  11.399   9.199 -0.1140 -0.2755 -0.0024
 9060SOL    HW133785  11.344  11.480   9.169 -0.7428 -0.3236  0.6822
 9060SOL    HW233786  11.366  11.396   9.293 -0.1067 -1.2220 -0.0171
 9061SOL     OW33787   7.763   8.867   6.291 -0.4834 -0.1746  0.3129
 9061SOL    HW133788   7.817   8.938   6.327  0.5430 -0.7503 -0.0325
 9061SOL    HW233789   7.679   8.907   6.273 -0.6755  0.4228  2.2569
 9062SOL     OW33790   3.145   8.050   6.154  0.4319  0.3689 -0.4844
 9062SOL    HW133791   3.120   8.008   6.072  1.7658  0.0951 -0.7701
 9062SOL    HW233792   3.189   8.131   6.128 -0.2650  0.9160  0.0048
 9063SOL     OW33793  11.084   3.000  10.933 -0.9838  0.3717 -0.9604
 9063SOL    HW133794  11.119   3.060  10.868  1.8998 -0.4380 -0.2764
 9063SOL    HW233795  11.120   2.915  10.909 -1.1207 -0.2154  0.7830
 9064SOL     OW33796   8.033   6.830  10.437  0.2629  0.0617  0.4259
 9064SOL    HW133797   8.044   6.917  10.474  2.9496  1.1471 -2.5580
 9064SOL    HW233798   8.115   6.785  10.455  0.3114 -0.5485 -1.1680
 9065SOL     OW33799   0.744  12.475  11.830  0.0574  0.7807 -0.4019
 9065SOL    HW133800   0.716  12.459  11.739  0.1808 -0.2730 -0.2633
 9065SOL    HW233801   0.671  12.524  11.869 -0.1050  1.0276 -0.9975
 9066SOL     OW33802   6.848  11.648   6.517  0.5724 -0.1912  0.0001
 9066SOL    HW133803   6.840  11.616   6.607 -1.2006  0.1934  0.0187
 9066SOL    HW233804   6.924  11.707   6.519  1.1276 -0.9147  1.0053
 9067SOL     OW33805   4.633   3.974  12.614  0.3754 -0.4158 -0.4904
 9067SOL    HW133806   4.628   4.055  12.664  0.7542  0.2183 -1.4539
 9067SOL    HW233807   4.555   3.976  12.558 -0.7283 -1.7196  0.9039
 9068SOL     OW33808  12.293   0.391   7.122  0.5805  0.4820 -0.1518
 9068SOL    HW133809  12.217   0.334   7.129  0.8064  0.2207  0.2030
 9068SOL    HW233810  12.368   0.333   7.132  0.8038  1.0347  2.0517
 9069SOL     OW33811   1.123   5.365   5.797 -0.1279 -0.5268  0.0866
 9069SOL    HW133812   1.045   5.420   5.792  1.0144  1.1017 -0.6370
 9069SOL    HW233813   1.140   5.356   5.891  0.2005  1.2163  0.2277
 9070SOL     OW33814  11.981  12.563  12.559  0.9033 -0.4046  0.1332
 9070SOL    HW133815  11.985  12.644  12.609  2.3339  0.2123 -0.9001
 9070SOL    HW233816  11.906  12.516  12.594 -0.6734  1.8732  0.0261
 9071SOL     OW33817   5.432   1.900   4.631  0.0156  0.1863 -0.1839
 9071SOL    HW133818   5.390   1.957   4.567  0.3263 -0.9506 -1.4502
 9071SOL    HW233819   5.436   1.814   4.588  0.4566 -0.5593  1.2710
 9072SOL     OW33820   5.323   4.082   2.307 -0.0874  0.0939  0.5830
 9072SOL    HW133821   5.355   4.142   2.375  1.3377 -0.6254  0.5740
 9072SOL    HW233822   5.228   4.094   2.308  0.1020  1.8922  1.0097
 9073SOL     OW33823   9.150  10.345   0.418  0.1352  0.0824 -0.1610
 9073SOL    HW133824   9.211  10.283   0.459 -0.9575 -0.8130  0.1763
 9073SOL    HW233825   9.105  10.386   0.492 -0.5294 -0.1606 -0.4311
 9074SOL     OW33826   3.476   3.739  11.972  0.2583  0.0948  0.1652
 9074SOL    HW133827   3.517   3.812  12.018 -0.8891 -0.1771  1.7066
 9074SOL    HW233828   3.382   3.757  11.977  0.0709  0.2978 -2.5635
 9075SOL     OW33829  10.643  10.424   0.969  0.5300 -0.1707 -0.4768
 9075SOL    HW133830  10.566  10.370   0.981  0.7755 -0.5460 -0.5766
 9075SOL    HW233831  10.715  10.372   1.005  0.7658  0.0950 -0.5593
 9076SOL     OW33832   4.858   8.659  10.590  0.3232  0.5408 -0.2005
 9076SOL    HW133833   4.807   8.707  10.655  0.5036  0.7275 -0.1998
 9076SOL    HW233834   4.894   8.585  10.638  0.8818  0.9637  0.0306
 9077SOL     OW33835   4.641   8.208   8.276 -0.3574  0.7427  0.0191
 9077SOL    HW133836   4.616   8.221   8.184  0.5498 -0.5612 -0.4466
 9077SOL    HW233837   4.722   8.258   8.286  0.0897  0.0821 -0.1959
 9078SOL     OW33838  10.242   4.396   8.808 -0.1020  0.0760 -0.3948
 9078SOL    HW133839  10.318   4.402   8.750 -0.0582  1.2674 -0.2372
 9078SOL    HW233840  10.279   4.384   8.895  0.0126  2.2298 -0.0917
 9079SOL     OW33841  10.714  10.439   9.873  0.3889  0.0853  0.7583
 9079SOL    HW133842  10.665  10.518   9.855  0.2255 -0.2711 -0.4366
 9079SOL    HW233843  10.680  10.408   9.957 -0.8252  0.3067  0.3654
 9080SOL     OW33844   0.004   3.723  11.994 -0.4521  0.2600 -0.2322
 9080SOL    HW133845   0.020   3.817  12.003 -0.2206  0.1858  0.1159
 9080SOL    HW233846  -0.092   3.716  11.991 -0.4933  0.4252  0.6122
 9081SOL     OW33847   1.765   2.455  10.223  0.1285  0.1892  0.4512
 9081SOL    HW133848   1.738   2.544  10.200  0.5676 -0.0323 -1.0679
 9081SOL    HW233849   1.859   2.462  10.238  0.2857 -0.1352 -0.3609
 9082SOL     OW33850   0.971   0.410   8.073 -0.1129  0.2925  0.1313
 9082SOL    HW133851   0.983   0.466   8.149  4.2515 -0.8307  0.5403
 9082SOL    HW233852   0.930   0.466   8.007  0.6326  2.7924  1.6875
 9083SOL     OW33853   1.782   1.619  10.613  0.4087  0.0986 -0.4582
 9083SOL    HW133854   1.877   1.607  10.613  0.2607 -1.1949 -1.0563
 9083SOL    HW233855   1.763   1.662  10.529  0.6009  1.8963  0.3544
 9084SOL     OW33856   4.254   9.528   8.057 -0.1298  0.0317 -0.0902
 9084SOL    HW133857   4.233   9.468   7.985 -0.0011 -0.1815  0.0512
 9084SOL    HW233858   4.304   9.599   8.016  0.8415 -0.6074 -0.0365
 9085SOL     OW33859   6.378   6.894   0.614 -0.2878  0.1257  0.3385
 9085SOL    HW133860   6.337   6.833   0.552 -1.1331  1.3795 -0.3884
 9085SOL    HW233861   6.472   6.880   0.603 -0.4621 -1.2478  0.4063
 9086SOL     OW33862   4.271   2.303   6.960 -0.1518  0.5102  0.1292
 9086SOL    HW133863   4.338   2.235   6.954  0.3313  0.9632  0.3161
 9086SOL    HW233864   4.189   2.255   6.967 -0.0232 -0.0641 -1.7170
 9087SOL     OW33865   6.877   0.412   1.353 -0.6758  0.2332 -0.2155
 9087SOL    HW133866   6.841   0.374   1.433  0.7064  1.4388  1.0295
 9087SOL    HW233867   6.814   0.480   1.329 -0.9185  0.1065  0.0503
 9088SOL     OW33868   0.779   4.463   2.487  0.7247 -0.3948  0.3851
 9088SOL    HW133869   0.826   4.408   2.551 -1.4028 -0.0729  2.3653
 9088SOL    HW233870   0.803   4.553   2.510  0.3774 -0.2981  0.3746
 9089SOL     OW33871   7.535   0.334   2.064 -0.2254 -0.2180  0.1102
 9089SOL    HW133872   7.616   0.290   2.037  0.0371 -0.0663  0.6342
 9089SOL    HW233873   7.481   0.265   2.101 -0.3251 -0.3144 -0.2117
 9090SOL     OW33874   5.094   2.024   6.691 -0.3920  0.2095 -0.2312
 9090SOL    HW133875   5.063   2.074   6.615  0.4670  0.3092 -0.5187
 9090SOL    HW233876   5.014   2.004   6.740 -0.9427  0.2468 -1.0957
 9091SOL     OW33877   1.260   0.735   1.253 -0.2207 -0.7794 -0.0578
 9091SOL    HW133878   1.258   0.722   1.348 -0.8032  1.3023  0.2807
 9091SOL    HW233879   1.169   0.726   1.226 -0.4173  0.7895 -0.0253
 9092SOL     OW33880  11.818  11.932   5.777 -0.2191 -0.2457 -0.0395
 9092SOL    HW133881  11.912  11.919   5.786 -0.1109 -1.1150 -1.9250
 9092SOL    HW233882  11.779  11.847   5.796 -0.3772 -0.6449 -2.0109
 9093SOL     OW33883   3.038  10.125   6.009 -0.6662  0.2661 -0.2191
 9093SOL    HW133884   2.972  10.058   5.989  1.1683 -1.3749 -1.1701
 9093SOL    HW233885   3.090  10.085   6.079 -0.2740  1.2498  0.0560
 9094SOL     OW33886   2.631   5.180   4.033  0.0012  0.2129  0.0061
 9094SOL    HW133887   2.592   5.209   4.116 -0.9408  0.1426 -0.3978
 9094SOL    HW233888   2.583   5.229   3.966  0.6550  0.1596 -0.5120
 9095SOL     OW33889   8.020   0.546   8.878 -0.0513  0.7273 -0.2099
 9095SOL    HW133890   7.970   0.601   8.939  0.9983  2.3377 -0.7270
 9095SOL    HW233891   7.969   0.548   8.797 -0.8017 -0.3625  0.2240
 9096SOL     OW33892   2.956  10.893   8.041 -0.5572 -0.0329 -0.4861
 9096SOL    HW133893   2.898  10.933   7.976 -0.2089 -0.8630 -1.3441
 9096SOL    HW233894   3.038  10.880   7.994  0.2553  0.8956  0.6357
 9097SOL     OW33895  11.052   4.291   2.211 -0.3608  0.3306  0.6365
 9097SOL    HW133896  11.065   4.385   2.198  1.4655  0.3569  2.2065
 9097SOL    HW233897  11.072   4.277   2.304 -0.8374 -1.5789  0.4912
 9098SOL     OW33898   8.924   3.716  10.991  0.0569 -0.2929 -0.0850
 9098SOL    HW133899   8.994   3.768  11.028 -1.1236  0.9743  0.4672
 9098SOL    HW233900   8.879   3.776  10.931 -1.1753 -0.7352  0.3618
 9099SOL     OW33901   6.490   8.990  12.188 -0.3464  0.0610 -0.2334
 9099SOL    HW133902   6.531   9.024  12.109  1.0488  0.5912  0.6785
 9099SOL    HW233903   6.511   9.054  12.256 -1.0255 -0.6656  0.6968
 9100SOL     OW33904  11.711   9.057   8.949 -0.6873  0.0613  0.7795
 9100SOL    HW133905  11.771   8.997   8.993  0.9862  1.3859  0.4383
 9100SOL    HW233906  11.759   9.085   8.870 -1.9389  0.8299  0.2633
 9101SOL     OW33907   1.465   0.578   8.383  0.3072 -0.3509  0.5917
 9101SOL    HW133908   1.509   0.559   8.465 -1.6540 -2.1880  1.3060
 9101SOL    HW233909   1.401   0.507   8.372 -1.2659  1.2106 -1.2154
 9102SOL     OW33910   5.946   7.891   8.475 -0.2821  0.0458  0.8601
 9102SOL    HW133911   5.921   7.983   8.460 -0.7410  0.2249  2.5819
 9102SOL    HW233912   5.865   7.842   8.459 -0.2964  0.0418  0.9460
 9103SOL     OW33913   4.796   8.877   3.468 -0.0822 -0.1725 -0.5707
 9103SOL    HW133914   4.802   8.945   3.401  0.0534 -0.6074 -1.0045
 9103SOL    HW233915   4.728   8.908   3.528  1.3335  1.3129  0.3567
 9104SOL     OW33916   0.034   3.229  12.647 -0.0907 -0.1114  0.1077
 9104SOL    HW133917   0.116   3.188  12.623  0.2497 -0.5366  1.8524
 9104SOL    HW233918  -0.033   3.165  12.623  0.0677  0.2220 -1.2813
 9105SOL     OW33919   4.023  11.380   6.442  0.0557  0.1815 -0.1486
 9105SOL    HW133920   3.963  11.424   6.503 -1.2647  0.6276 -1.6897
 9105SOL    HW233921   3.969  11.315   6.398  1.4207 -1.3704  0.3891
 9106SOL     OW33922   5.586   0.102   4.326 -0.4431 -0.2689  0.2162
 9106SOL    HW133923   5.635   0.185   4.327  0.5093 -0.8117  0.2038
 9106SOL    HW233924   5.562   0.090   4.234 -0.0162 -0.3176  0.1071
 9107SOL     OW33925   1.356  10.843   0.324  0.2632 -0.2019  0.3680
 9107SOL    HW133926   1.333  10.859   0.232  1.2767  0.0247  0.1447
 9107SOL    HW233927   1.398  10.925   0.352  1.3810 -0.8335  0.5657
 9108SOL     OW33928   4.683  11.123   1.210 -0.6147 -0.0154 -0.2674
 9108SOL    HW133929   4.661  11.065   1.283 -0.1512  1.3062  0.9653
 9108SOL    HW233930   4.777  11.110   1.197 -0.5925  0.1345 -0.2617
 9109SOL     OW33931   1.276   8.487  11.042  0.3001 -0.1368  0.2207
 9109SOL    HW133932   1.238   8.512  11.126  0.6648 -0.9982  0.6478
 9109SOL    HW233933   1.323   8.566  11.013  1.4632 -0.2813  1.5639
 9110SOL     OW33934   3.466   6.095  10.937  0.4677  0.1604 -0.1243
 9110SOL    HW133935   3.456   6.185  10.966  2.0750 -0.0162  1.1387
 9110SOL    HW233936   3.389   6.078  10.884 -1.1190  1.5176  1.5999
 9111SOL     OW33937   6.948   2.685   1.009 -0.0273  0.4903  0.1886
 9111SOL    HW133938   6.917   2.594   1.012  0.2002  0.3379 -1.3478
 9111SOL    HW233939   6.867   2.737   1.008 -0.1601  0.3117  0.9342
 9112SOL     OW33940   9.051  10.891  11.303  0.1020  0.4550  0.0727
 9112SOL    HW133941   8.964  10.922  11.279  0.5725 -0.1353 -2.8775
 9112SOL    HW233942   9.046  10.796  11.295  0.9991  0.4152 -0.2483
 9113SOL     OW33943   4.342   9.383   1.902 -0.1431  0.0106  0.2798
 9113SOL    HW133944   4.263   9.372   1.849  0.2921  0.9033 -0.5678
 9113SOL    HW233945   4.378   9.295   1.911 -1.5934 -0.5246  1.2730
 9114SOL     OW33946  11.239  10.106   6.432 -0.1151 -0.0989  0.4567
 9114SOL    HW133947  11.197  10.035   6.383 -1.4471  0.6903  0.3832
 9114SOL    HW233948  11.182  10.121   6.507  2.1420 -1.5959  2.6153
 9115SOL     OW33949   6.006   0.290   6.616  0.3034  0.4208 -0.3281
 9115SOL    HW133950   5.959   0.371   6.595  0.0765  0.1614 -0.8558
 9115SOL    HW233951   5.973   0.226   6.552  0.2760 -0.1593  0.2540
 9116SOL     OW33952   6.318   4.327   7.464  0.2636  0.0717 -0.0257
 9116SOL    HW133953   6.294   4.390   7.396  1.5629  0.8273  0.1595
 9116SOL    HW233954   6.371   4.379   7.526 -1.1978 -0.4827  1.7914
 9117SOL     OW33955  10.324   1.144   9.278 -0.4888  0.3527 -0.0021
 9117SOL    HW133956  10.310   1.146   9.372 -0.0366 -1.1549  0.1109
 9117SOL    HW233957  10.409   1.188   9.266 -0.0315 -0.3958  0.4108
 9118SOL     OW33958   9.867  12.432   3.444 -0.5697 -0.0036 -0.0564
 9118SOL    HW133959   9.918  12.453   3.522  0.2189 -0.1198 -0.5300
 9118SOL    HW233960   9.818  12.512   3.425  0.2384  0.4750 -0.1969
 9119SOL     OW33961   3.568   3.444   3.301  0.0303 -0.1697  0.2811
 9119SOL    HW133962   3.588   3.350   3.299 -0.9970 -0.3922  0.0148
 9119SOL    HW233963   3.545   3.466   3.210  1.1326  0.5472  0.1531
 9120SOL     OW33964   8.443  10.820  10.633 -0.7024 -0.7117  0.3993
 9120SOL    HW133965   8.520  10.838  10.579 -0.4939 -0.5866  0.7357
 9120SOL    HW233966   8.456  10.873  10.712 -0.8257 -1.1668  0.7322
 9121SOL     OW33967   4.575   4.950  10.995 -0.5402 -0.0543 -0.0568
 9121SOL    HW133968   4.623   5.030  10.972  1.4456 -0.9952  0.6384
 9121SOL    HW233969   4.484   4.980  11.007 -0.1633  1.7927 -1.3765
 9122SOL     OW33970   5.738   4.288  10.468 -0.1429  0.1180  0.4632
 9122SOL    HW133971   5.810   4.276  10.406  0.3575 -1.2220  1.2741
 9122SOL    HW233972   5.759   4.369  10.515 -1.1407  1.8621 -1.8658
 9123SOL     OW33973   5.740   9.914   9.683  0.8419 -0.0653  0.8484
 9123SOL    HW133974   5.832   9.942   9.680  1.1906 -1.2072 -1.0370
 9123SOL    HW233975   5.744   9.820   9.664 -0.8836  0.3942 -2.4870
 9124SOL     OW33976   4.914   6.121   6.790 -0.4027 -0.8101 -0.1377
 9124SOL    HW133977   4.936   6.190   6.853 -0.2808 -0.3562 -0.6734
 9124SOL    HW233978   4.909   6.042   6.844  1.9828 -0.8659  0.1472
 9125SOL     OW33979   4.801   5.886   2.375 -0.2013 -0.1646  0.0423
 9125SOL    HW133980   4.816   5.935   2.456 -1.7394  1.6225 -0.6875
 9125SOL    HW233981   4.882   5.897   2.325 -0.2874  1.1943  0.1494
 9126SOL     OW33982  10.482   3.262   9.394 -0.4769  0.4981  0.0342
 9126SOL    HW133983  10.389   3.285   9.390 -0.0456  2.3727 -0.1270
 9126SOL    HW233984  10.516   3.288   9.308  0.4940  1.2830  0.6511
 9127SOL     OW33985   4.525  12.241   6.900 -0.4222  0.1892 -0.1610
 9127SOL    HW133986   4.557  12.154   6.875 -0.3594  0.5527 -1.4305
 9127SOL    HW233987   4.473  12.227   6.978 -0.5089 -1.0104 -0.4279
 9128SOL     OW33988   4.814  10.663   9.439  0.0389  0.0905  0.3231
 9128SOL    HW133989   4.826  10.627   9.527 -1.9435 -1.0700  0.1914
 9128SOL    HW233990   4.763  10.743   9.453 -0.6671 -0.3350  0.2120
 9129SOL     OW33991   1.812  12.273   0.212 -0.0184  0.1288 -0.6017
 9129SOL    HW133992   1.800  12.230   0.297 -2.5835  0.5495 -0.6656
 9129SOL    HW233993   1.730  12.320   0.198  0.9448  1.3172 -2.6385
 9130SOL     OW33994   6.460   4.210   6.391  0.2272 -0.0534 -0.9026
 9130SOL    HW133995   6.446   4.254   6.306 -2.1809 -0.3238 -0.6923
 9130SOL    HW233996   6.374   4.206   6.431  1.2140 -0.5204  1.3243
 9131SOL     OW33997   9.121  12.206   4.491  0.8423  0.1782  0.3504
 9131SOL    HW133998   9.053  12.139   4.482  0.3588  0.6140  0.7346
 9131SOL    HW233999   9.106  12.266   4.418  0.2946  0.7318  0.9142
 9132SOL     OW34000  10.146   1.690   1.733 -0.4325  0.1296  0.0742
 9132SOL    HW134001  10.117   1.768   1.687  0.3203  0.4978  0.2169
 9132SOL    HW234002  10.111   1.617   1.681  0.6161  0.5286 -1.2564
 9133SOL     OW34003   6.945   1.994  11.897  0.5241 -0.1471 -0.3928
 9133SOL    HW134004   7.018   2.035  11.943  0.9986 -0.7126 -0.6297
 9133SOL    HW234005   6.981   1.912  11.863  0.3614  0.5156 -2.2822
 9134SOL     OW34006   2.548   7.213  12.636 -0.1218  0.5391  0.7097
 9134SOL    HW134007   2.587   7.158  12.568 -0.1131  0.9043  0.4183
 9134SOL    HW234008   2.458   7.227  12.608  0.0073  1.0527  0.5513
 9135SOL     OW34009   2.516   7.509   3.840  0.8609  0.5534 -0.2364
 9135SOL    HW134010   2.424   7.488   3.859  0.5800  1.6741 -0.3063
 9135SOL    HW234011   2.517   7.528   3.746  1.1742  0.5174 -0.2418
 9136SOL     OW34012   2.489   6.051   5.280  0.1646 -0.2377 -0.8170
 9136SOL    HW134013   2.510   6.111   5.209 -0.5423 -1.1954 -1.8796
 9136SOL    HW234014   2.453   6.107   5.349 -0.3506  0.5763 -1.7175
 9137SOL     OW34015   4.367   8.711   2.694 -0.3833 -0.3268  0.5720
 9137SOL    HW134016   4.445   8.732   2.642 -0.7523  0.4273  0.3027
 9137SOL    HW234017   4.297   8.706   2.629 -0.4785 -1.5105  0.7498
 9138SOL     OW34018   2.202  12.144  11.597  0.1848 -0.0325  0.2079
 9138SOL    HW134019   2.211  12.190  11.514  1.2856  0.1234  0.3977
 9138SOL    HW234020   2.114  12.167  11.628  0.0239  0.4470 -0.5827
 9139SOL     OW34021   1.197  10.191   9.575 -0.4793  0.0820  0.7472
 9139SOL    HW134022   1.185  10.101   9.545  0.1104  0.5430 -1.0224
 9139SOL    HW234023   1.278  10.220   9.532 -0.8702  1.5866  0.9469
 9140SOL     OW34024   2.652   1.766  10.803  0.1560  0.6575 -0.6417
 9140SOL    HW134025   2.746   1.763  10.823  0.1096  0.3773 -0.4515
 9140SOL    HW234026   2.615   1.693  10.853 -0.4570  1.9636  0.9029
 9141SOL     OW34027   5.802   4.746  10.496 -0.0827  0.1861  0.5428
 9141SOL    HW134028   5.746   4.811  10.538 -0.0359 -0.8426  2.2923
 9141SOL    HW234029   5.758   4.726  10.413 -0.2029  2.2486  0.0770
 9142SOL     OW34030   5.740  11.564   8.007  0.3364  0.2595  0.5608
 9142SOL    HW134031   5.776  11.651   8.023  0.1343  1.0346 -2.5405
 9142SOL    HW234032   5.817  11.507   8.000  0.4556  0.0167  2.9668
 9143SOL     OW34033   2.068   5.200   0.636 -0.1175  0.4727  0.1321
 9143SOL    HW134034   2.006   5.219   0.706 -0.5384  1.4953 -0.4996
 9143SOL    HW234035   2.075   5.281   0.586  0.1874 -0.2212 -1.0060
 9144SOL     OW34036   3.457  12.261   6.078  0.2070 -0.4797  0.3876
 9144SOL    HW134037   3.364  12.239   6.070 -0.0113  0.7921 -1.3671
 9144SOL    HW234038   3.461  12.326   6.148 -0.2353 -0.5894  0.5139
 9145SOL     OW34039   2.944   8.126  11.593 -0.6809  0.3106 -0.4075
 9145SOL    HW134040   2.904   8.040  11.607 -0.4140  0.3918  1.0538
 9145SOL    HW234041   2.902   8.182  11.658  1.3750  0.5173  0.8454
 9146SOL     OW34042   0.908   2.291   8.820 -0.0747  0.2131 -0.1958
 9146SOL    HW134043   0.985   2.347   8.810  0.2867 -0.0538  0.9412
 9146SOL    HW234044   0.834   2.352   8.822  0.3535  0.7408  1.5502
 9147SOL     OW34045   2.115   9.627   0.802 -0.3749  0.1502  0.9401
 9147SOL    HW134046   2.148   9.540   0.779 -2.9691 -0.7423  0.2221
 9147SOL    HW234047   2.157   9.686   0.739  0.6031 -0.7324  0.7415
 9148SOL     OW34048   8.548   0.112   5.750  0.2252  0.4149  0.9523
 9148SOL    HW134049   8.534   0.019   5.763  1.1532  0.2153  0.5884
 9148SOL    HW234050   8.612   0.137   5.818 -0.1247  0.8134  1.1414
 9149SOL     OW34051   3.074   1.791   3.448 -0.0420 -0.4761  0.7525
 9149SOL    HW134052   3.160   1.759   3.421 -0.2448 -2.3780  2.1192
 9149SOL    HW234053   3.089   1.880   3.479  1.4430 -0.8088  1.0275
 9150SOL     OW34054   2.914   8.591  12.318 -0.1228  0.2455  0.0272
 9150SOL    HW134055   2.967   8.565  12.243  0.7845  0.6860  0.5004
 9150SOL    HW234056   2.908   8.686  12.311 -1.0586  0.1848 -0.1489
 9151SOL     OW34057   7.818   6.756   8.833  0.1412 -0.4515  0.5878
 9151SOL    HW134058   7.729   6.754   8.870  0.3334 -1.4408  1.0319
 9151SOL    HW234059   7.865   6.818   8.889 -0.3536  0.3541  0.1305
 9152SOL     OW34060   6.760  11.883   9.272  0.3960 -0.8112 -0.7049
 9152SOL    HW134061   6.682  11.917   9.316 -0.0241  0.5059 -2.3245
 9152SOL    HW234062   6.833  11.905   9.330 -0.0077  1.8419 -1.0603
 9153SOL     OW34063  11.825  11.369  12.777  0.5609 -0.0545 -0.4040
 9153SOL    HW134064  11.860  11.312  12.709  0.1105  0.4812 -1.0979
 9153SOL    HW234065  11.762  11.425  12.732 -0.1689 -0.0668  0.5530
 9154SOL     OW34066   8.365  12.452  10.119 -0.4326  0.6548  0.1348
 9154SOL    HW134067   8.292  12.514  10.127 -0.8848  0.6418 -2.7820
 9154SOL    HW234068   8.440  12.507  10.099 -0.0051  0.5244  1.3398
 9155SOL     OW34069   3.137  11.540   0.481 -0.0512 -0.1294 -0.2157
 9155SOL    HW134070   3.107  11.537   0.390  1.7410  1.5755 -0.9295
 9155SOL    HW234071   3.076  11.598   0.525  0.5255  1.0782 -0.9705
 9156SOL     OW34072   2.264  12.643   7.393 -0.6945  0.6901 -0.4767
 9156SOL    HW134073   2.319  12.639   7.314 -1.9045  1.0348 -1.3617
 9156SOL    HW234074   2.224  12.729   7.391  0.0119  1.0887  1.0766
 9157SOL     OW34075  10.600   3.834   1.573  0.4363 -0.0272 -0.2450
 9157SOL    HW134076  10.545   3.902   1.612  1.1688  0.7248 -0.5021
 9157SOL    HW234077  10.539   3.775   1.528 -0.1624  0.7159 -0.4069
 9158SOL     OW34078   2.846   0.328  12.269 -0.4067 -0.1143 -0.2040
 9158SOL    HW134079   2.807   0.242  12.255 -0.4031 -0.3143  0.9098
 9158SOL    HW234080   2.940   0.312  12.272 -0.4771 -0.3705  1.7398
 9159SOL     OW34081   8.621   7.366   3.825 -0.5646  0.1157 -0.2530
 9159SOL    HW134082   8.607   7.297   3.760 -2.7481  1.8541 -1.7943
 9159SOL    HW234083   8.534   7.404   3.839  0.4272  2.1186  1.0309
 9160SOL     OW34084   9.831  12.439   0.521 -0.5721  0.1013 -0.2170
 9160SOL    HW134085   9.742  12.407   0.533 -0.3154  0.1335  2.2787
 9160SOL    HW234086   9.826  12.532   0.544 -0.0311  0.2928 -0.8364
 9161SOL     OW34087   3.040  12.702  12.634  0.0557 -0.2370  0.2594
 9161SOL    HW134088   3.120  12.652  12.648 -0.3629 -1.5380 -1.5741
 9161SOL    HW234089   2.970  12.645  12.666 -0.1575  1.4308  3.1102
 9162SOL     OW34090  12.334   3.651   9.015  0.2530 -0.1922 -0.4480
 9162SOL    HW134091  12.373   3.736   8.999  1.0400 -0.1210  1.5062
 9162SOL    HW234092  12.259   3.646   8.955  1.3457  1.0189 -1.9823
 9163SOL     OW34093  12.145   2.964   0.590  0.6249  0.7561  0.2983
 9163SOL    HW134094  12.167   2.939   0.500  0.2453  0.8085  0.1852
 9163SOL    HW234095  12.092   3.043   0.579  0.5119  0.7159  0.5645
 9164SOL     OW34096  11.257   5.738   0.409 -0.1642 -0.0761 -0.4174
 9164SOL    HW134097  11.197   5.743   0.334  0.3104  0.2027 -0.7805
 9164SOL    HW234098  11.322   5.806   0.392 -1.7207  2.1026  1.7238
 9165SOL     OW34099   8.029   8.102   4.554 -0.2061 -0.2650 -0.5321
 9165SOL    HW134100   7.959   8.119   4.617  0.0743 -1.7102  0.2025
 9165SOL    HW234101   8.007   8.158   4.479 -2.2079 -0.7543 -0.3818
 9166SOL     OW34102   2.057   6.333   8.887  0.0317 -0.1823 -0.0989
 9166SOL    HW134103   2.091   6.256   8.933 -0.4908 -0.0566  0.5112
 9166SOL    HW234104   2.043   6.303   8.797  0.2203 -0.6813  0.0338
 9167SOL     OW34105   4.974   4.657   4.036 -0.1033  0.0929  1.1809
 9167SOL    HW134106   4.969   4.602   3.957 -0.8739  0.8009  0.7206
 9167SOL    HW234107   4.898   4.715   4.030  0.9309  1.5309  1.4261
 9168SOL     OW34108   9.175   3.367   3.583  0.1340 -0.2311 -0.0855
 9168SOL    HW134109   9.108   3.430   3.609 -1.6558 -1.8744 -0.5491
 9168SOL    HW234110   9.136   3.281   3.601  1.9121 -1.2532 -0.8563
 9169SOL     OW34111   9.863   7.716  12.379  0.5215  0.2974 -0.7140
 9169SOL    HW134112   9.923   7.643  12.391 -0.4208 -0.9820 -2.9949
 9169SOL    HW234113   9.776   7.677  12.385 -0.0978  1.7668  0.6847
 9170SOL     OW34114   3.334   5.383   5.294 -0.1157  0.5076  0.0102
 9170SOL    HW134115   3.343   5.407   5.386  1.0072 -1.7119  0.5348
 9170SOL    HW234116   3.389   5.447   5.248  2.1747 -0.4062  1.2749
 9171SOL     OW34117  10.282   7.654  10.803 -0.1773 -0.6170  0.9868
 9171SOL    HW134118  10.282   7.704  10.721  0.1173 -0.7311  0.9136
 9171SOL    HW234119  10.293   7.563  10.775  1.5580 -0.5206  1.2101
 9172SOL     OW34120   2.949   6.196  10.238 -0.0614  0.2107 -0.2867
 9172SOL    HW134121   2.901   6.277  10.220 -0.8420  0.1746  1.4054
 9172SOL    HW234122   2.907   6.130  10.184  0.1013  0.7836 -1.1256
 9173SOL     OW34123   0.948   0.512   9.872  0.4443  0.4313 -0.2180
 9173SOL    HW134124   0.870   0.567   9.885  0.3724 -0.0648  1.8857
 9173SOL    HW234125   1.020   0.565   9.905  0.3316 -0.7380  2.1714
 9174SOL     OW34126   2.985   8.656   5.263  0.4365  0.2733  0.2104
 9174SOL    HW134127   3.049   8.586   5.248 -0.2557 -0.2372 -0.5165
 9174SOL    HW234128   3.036   8.737   5.261  1.0643 -0.1218 -0.3377
 9175SOL     OW34129   4.438   6.859  11.641 -0.0725  0.4235 -0.3253
 9175SOL    HW134130   4.520   6.832  11.681 -0.8514  1.0982  1.9005
 9175SOL    HW234131   4.445   6.955  11.636 -0.6430  0.4685 -0.3007
 9176SOL     OW34132   4.590  10.466   3.397 -0.2164  0.2046 -0.9234
 9176SOL    HW134133   4.509  10.509   3.424 -0.1907 -0.8591  1.0173
 9176SOL    HW234134   4.652  10.485   3.468  0.3744 -1.3288 -0.9866
 9177SOL     OW34135  10.534   8.024   4.235 -0.2299  0.5174  0.3697
 9177SOL    HW134136  10.577   8.022   4.321 -0.0256 -0.0470  0.2564
 9177SOL    HW234137  10.449   7.982   4.251  0.4376 -1.0758 -0.0350
 9178SOL     OW34138   5.732   9.742   2.677 -0.1412 -0.2589 -0.0952
 9178SOL    HW134139   5.760   9.701   2.595 -0.1054 -0.7899  0.1785
 9178SOL    HW234140   5.651   9.697   2.700  0.4440 -0.9140  0.7494
 9179SOL     OW34141   5.559   1.867  10.000 -0.2410  0.2707 -0.8720
 9179SOL    HW134142   5.515   1.939  10.045  0.1613  0.9815 -1.5920
 9179SOL    HW234143   5.530   1.874   9.909 -2.6492 -2.3862 -0.4244
 9180SOL     OW34144   7.197   0.431   9.243  0.2885 -0.0126 -0.1554
 9180SOL    HW134145   7.162   0.512   9.280  0.9962 -0.2459  1.0820
 9180SOL    HW234146   7.152   0.422   9.160  1.2470  2.4204 -1.0382
 9181SOL     OW34147   4.906   5.264  12.716 -0.1365  0.8481  0.0600
 9181SOL    HW134148   4.832   5.324  12.726 -0.4519  0.6902 -1.1449
 9181SOL    HW234149   4.978   5.318  12.684  0.8463  1.3417  2.8632
 9182SOL     OW34150  12.451   9.083   0.424 -0.5027 -0.4704  0.6033
 9182SOL    HW134151  12.359   9.058   0.426  0.0272 -2.7019  0.5469
 9182SOL    HW234152  12.492   9.018   0.367  0.8186  1.6709 -1.0632
 9183SOL     OW34153   7.244   1.895   0.368 -0.1571  0.0541  0.8826
 9183SOL    HW134154   7.217   1.961   0.432 -1.1600 -0.7732  1.3201
 9183SOL    HW234155   7.245   1.813   0.416 -1.7832 -0.7421 -0.3343
 9184SOL     OW34156   0.846   2.553   9.026  0.5410  0.1808 -0.1024
 9184SOL    HW134157   0.883   2.639   9.008 -1.0118  1.1879  1.1867
 9184SOL    HW234158   0.806   2.527   8.943  1.4022  0.4811 -0.6303
 9185SOL     OW34159  12.127   7.712   7.307  0.0429  0.0260 -0.2159
 9185SOL    HW134160  12.217   7.684   7.325  0.1550  0.7542  0.4450
 9185SOL    HW234161  12.107   7.774   7.378 -1.8450 -1.9321  1.0863
 9186SOL     OW34162   9.170  11.321  12.412  0.8682  0.0903  0.3126
 9186SOL    HW134163   9.083  11.354  12.432  0.0464 -1.7502 -0.0983
 9186SOL    HW234164   9.155  11.248  12.353  2.7357  0.0742 -0.2006
 9187SOL     OW34165  11.594   0.504   1.217  0.1693  0.8011 -0.0110
 9187SOL    HW134166  11.618   0.597   1.217  0.3571  0.7580 -0.5412
 9187SOL    HW234167  11.590   0.480   1.309 -1.5442  1.7543  0.1985
 9188SOL     OW34168   9.866  10.847   3.849 -0.2538  0.2985 -0.8685
 9188SOL    HW134169   9.890  10.761   3.885  1.5745 -0.0044 -2.6089
 9188SOL    HW234170   9.779  10.865   3.885 -0.6114 -2.1912 -0.3028
 9189SOL     OW34171   7.796   7.755   0.493  0.0569 -0.3924 -0.1129
 9189SOL    HW134172   7.891   7.744   0.482  0.0489 -0.2613 -0.3300
 9189SOL    HW234173   7.770   7.683   0.550  0.3448 -0.2155  0.2471
 9190SOL     OW34174   4.419   3.684   4.065  0.8124 -0.2025  0.1037
 9190SOL    HW134175   4.399   3.750   3.999  1.5864  1.0857  1.1172
 9190SOL    HW234176   4.338   3.676   4.116  1.3066  1.5659  1.2779
 9191SOL     OW34177   0.077   0.073   4.827  0.0774 -0.3767 -0.6895
 9191SOL    HW134178   0.103   0.118   4.907 -1.2307  1.2493 -1.1251
 9191SOL    HW234179   0.140   0.002   4.818  1.4458  0.5936  0.7179
 9192SOL     OW34180  11.229   5.850   9.336  0.0993 -0.0021 -0.0129
 9192SOL    HW134181  11.184   5.809   9.409  0.0155  1.4783  0.8044
 9192SOL    HW234182  11.161   5.896   9.288  0.2444 -0.4917 -0.7006
 9193SOL     OW34183   7.255   8.810   9.018 -0.1229  0.5076 -0.4912
 9193SOL    HW134184   7.294   8.728   9.049 -1.0189 -0.3196 -1.4698
 9193SOL    HW234185   7.310   8.878   9.056  0.5615 -0.5361  0.4632
 9194SOL     OW34186   9.541   2.639  10.407  0.6616 -0.2451  0.2444
 9194SOL    HW134187   9.501   2.617  10.491  1.3145 -0.6365  0.4577
 9194SOL    HW234188   9.467   2.663  10.351  0.2303  0.0650  0.9396
 9195SOL     OW34189  10.405   5.172   9.057 -0.0485 -0.3501  0.1040
 9195SOL    HW134190  10.482   5.151   9.006 -0.4271 -1.9957  0.1662
 9195SOL    HW234191  10.388   5.264   9.038  2.0253  0.1053  0.2452
 9196SOL     OW34192   9.735  11.947   8.042  0.2713  0.3563 -1.1616
 9196SOL    HW134193   9.772  11.860   8.026  2.5513  0.7207  1.3834
 9196SOL    HW234194   9.756  11.997   7.963  3.3552 -0.1427 -0.7884
 9197SOL     OW34195   5.405  12.676   9.621  0.5263 -0.2394 -0.0460
 9197SOL    HW134196   5.482  12.689   9.566  0.5535  0.7648  0.2089
 9197SOL    HW234197   5.332  12.672   9.559  0.5517  0.9211 -0.1681
 9198SOL     OW34198   7.986   2.289   3.796 -0.0444 -0.0222  0.7054
 9198SOL    HW134199   7.906   2.282   3.848 -0.5079 -1.7407 -0.1691
 9198SOL    HW234200   7.958   2.331   3.714  0.0724 -0.0898  0.6302
 9199SOL     OW34201  12.502   7.442   9.094  0.0081 -0.0002  0.4766
 9199SOL    HW134202  12.536   7.521   9.051  2.4575 -1.7606 -1.1221
 9199SOL    HW234203  12.518   7.458   9.187  1.2896  1.0835  0.1170
 9200SOL     OW34204   6.705   8.225   5.034  0.0914 -0.3245  0.4443
 9200SOL    HW134205   6.615   8.212   5.063  0.9622 -2.4094  2.5050
 9200SOL    HW234206   6.698   8.283   4.958 -2.8979  0.1006  0.9451
 9201SOL     OW34207   9.433   8.274  12.492 -0.3161 -0.3705  0.2037
 9201SOL    HW134208   9.508   8.220  12.517  1.4389  0.3830 -2.9108
 9201SOL    HW234209   9.383   8.218  12.433 -1.2868 -0.2751  0.9213
 9202SOL     OW34210   4.336  11.797   8.212 -0.1787 -0.5255 -0.1841
 9202SOL    HW134211   4.302  11.770   8.297  0.5259  0.8949  0.5845
 9202SOL    HW234212   4.429  11.777   8.216  0.0643  0.5118 -0.1748
 9203SOL     OW34213   9.838   2.717  10.148 -0.3886 -0.2508  0.2726
 9203SOL    HW134214   9.889   2.673  10.081 -0.7308 -1.5113  0.8087
 9203SOL    HW234215   9.750   2.723  10.111 -0.5977 -1.0252  0.6291
 9204SOL     OW34216   6.515  12.288   3.369  0.7210 -0.5339  0.2097
 9204SOL    HW134217   6.458  12.336   3.308 -0.6328 -0.2428  1.6371
 9204SOL    HW234218   6.543  12.211   3.320 -1.1412 -0.8245 -0.4673
 9205SOL     OW34219   9.581   9.115  10.538  0.4590  0.2706 -0.1541
 9205SOL    HW134220   9.612   9.129  10.448  0.6021 -0.0128 -0.1511
 9205SOL    HW234221   9.644   9.052  10.575 -1.1353 -1.7688 -0.7251
 9206SOL     OW34222   5.362   9.108   5.436  0.1292  0.4848  0.7925
 9206SOL    HW134223   5.391   9.051   5.364 -1.0757  1.1675 -0.2747
 9206SOL    HW234224   5.269   9.086   5.447 -0.4175  2.3382  0.2302
 9207SOL     OW34225   6.014   2.637  11.315 -0.0660 -0.2602  0.7070
 9207SOL    HW134226   6.094   2.620  11.265 -0.1119  1.5532 -0.0526
 9207SOL    HW234227   5.944   2.600  11.262 -0.1264  1.7391 -0.7248
 9208SOL     OW34228   2.633   4.986   8.066 -0.0875 -0.5083  0.4716
 9208SOL    HW134229   2.715   4.982   8.115 -0.9702 -1.2286  1.9613
 9208SOL    HW234230   2.646   4.925   7.993  1.3914  0.8836 -0.5285
 9209SOL     OW34231  12.027  12.567   2.852 -0.1983  0.4675  0.1013
 9209SOL    HW134232  12.004  12.583   2.944  0.1909 -1.2149  0.5236
 9209SOL    HW234233  12.088  12.494   2.855  0.3788  0.8509 -1.4666
 9210SOL     OW34234   8.291   7.161   3.059  0.0730  0.6746 -0.5735
 9210SOL    HW134235   8.377   7.196   3.040  0.5406 -0.5845 -0.8945
 9210SOL    HW234236   8.307   7.092   3.124 -0.6553  0.2677 -0.8137
 9211SOL     OW34237   9.427   7.594   6.427 -0.3644  0.2133 -0.3875
 9211SOL    HW134238   9.454   7.621   6.515  1.7109  1.0023 -1.2044
 9211SOL    HW234239   9.348   7.646   6.409 -1.3809 -0.6526  1.3188
 9212SOL     OW34240   7.020  10.667   8.884 -0.0613 -0.2139  0.5441
 9212SOL    HW134241   7.083  10.738   8.874 -0.5719  0.2288  0.4306
 9212SOL    HW234242   7.071  10.587   8.870 -0.0127  0.1954 -2.2694
 9213SOL     OW34243  10.057   5.898   3.705 -0.3136 -0.1230 -0.6633
 9213SOL    HW134244  10.080   5.957   3.777  0.0994 -0.6302 -0.3755
 9213SOL    HW234245  10.090   5.942   3.626  2.0866 -1.0371 -0.2245
 9214SOL     OW34246   8.504   5.593   9.380 -0.2462 -0.3728  0.1452
 9214SOL    HW134247   8.520   5.611   9.473  2.3515 -1.2971 -0.0332
 9214SOL    HW234248   8.535   5.504   9.367 -0.4064 -0.2041 -1.6515
 9215SOL     OW34249   3.111   0.816   2.321 -0.3787 -0.7605  0.0491
 9215SOL    HW134250   3.101   0.738   2.376  0.3906 -0.5072  0.5616
 9215SOL    HW234251   3.102   0.889   2.382  1.6735 -0.4814  0.0821
 9216SOL     OW34252   1.945   5.747   7.799 -0.2590  0.2345 -0.0999
 9216SOL    HW134253   1.967   5.672   7.744 -2.0792 -0.6451  0.3124
 9216SOL    HW234254   1.865   5.722   7.844 -1.9787  3.0739 -1.2695
 9217SOL     OW34255   3.000   0.615   4.175 -0.2464 -0.6101 -0.6110
 9217SOL    HW134256   3.017   0.671   4.251  0.2313 -0.5637 -0.7434
 9217SOL    HW234257   2.907   0.595   4.180 -0.1221 -1.0309  0.2745
 9218SOL     OW34258   4.685   6.740   1.513 -0.4487 -0.4231 -0.7074
 9218SOL    HW134259   4.728   6.654   1.517 -1.3360 -0.8909  3.2795
 9218SOL    HW234260   4.710   6.783   1.596 -3.4035  1.4055 -0.6239
 9219SOL     OW34261   1.026   6.176  11.238  0.3418 -0.4849 -0.6051
 9219SOL    HW134262   0.987   6.195  11.323 -0.7903  0.2852 -1.2779
 9219SOL    HW234263   1.087   6.248  11.222  0.9300 -0.8926 -0.2330
 9220SOL     OW34264   9.299   3.985  11.089  0.2834 -0.5234 -0.2365
 9220SOL    HW134265   9.204   3.995  11.085  0.1387 -1.8315 -0.7298
 9220SOL    HW234266   9.322   4.009  11.179 -0.3275  1.0636 -0.4785
 9221SOL     OW34267   2.139   8.115   3.451  0.0531 -0.0936 -0.0671
 9221SOL    HW134268   2.220   8.065   3.460 -0.6178 -1.4316 -1.0483
 9221SOL    HW234269   2.125   8.120   3.356  0.1695  2.1511 -0.0327
 9222SOL     OW34270  10.141   4.271  11.727 -0.6498  1.0315  0.2669
 9222SOL    HW134271  10.202   4.319  11.670  0.6241 -1.0388 -0.2197
 9222SOL    HW234272  10.168   4.295  11.816 -0.9922  2.3025  0.0553
 9223SOL     OW34273   8.677   5.333   1.806  0.9272  0.1002 -0.2303
 9223SOL    HW134274   8.648   5.334   1.897  1.2310  1.5621 -0.1307
 9223SOL    HW234275   8.763   5.292   1.808  0.8939  0.0427  0.1130
 9224SOL     OW34276   3.389  11.098   9.899 -0.3118  0.0649 -0.4284
 9224SOL    HW134277   3.353  11.022   9.945  0.0053  1.3211  2.0546
 9224SOL    HW234278   3.482  11.078   9.888 -0.2116  0.1204  0.3017
 9225SOL     OW34279   0.596   1.256  12.384 -0.0873 -0.3486 -0.1978
 9225SOL    HW134280   0.659   1.200  12.428  0.1508 -0.0652 -0.1715
 9225SOL    HW234281   0.510   1.223  12.411  0.0404  0.3645  1.2049
 9226SOL     OW34282   0.323   4.998   2.602 -0.1827  0.0060 -0.3106
 9226SOL    HW134283   0.380   5.075   2.595  1.1714 -0.8518  0.7901
 9226SOL    HW234284   0.275   5.011   2.684  0.4908 -0.6007  0.1849
 9227SOL     OW34285   1.143   2.324  12.134  0.4244 -0.1808  0.2477
 9227SOL    HW134286   1.190   2.339  12.216  0.2547 -1.6383  0.6310
 9227SOL    HW234287   1.068   2.384  12.138  0.3223 -0.3603  1.2425
 9228SOL     OW34288   8.520   6.150   3.140 -0.1951  0.4226  0.1613
 9228SOL    HW134289   8.561   6.166   3.055  0.4089  0.7585  0.5134
 9228SOL    HW234290   8.483   6.062   3.132  0.3877  0.2061 -0.2491
 9229SOL     OW34291   1.579   0.238   7.373  0.3200 -0.3066 -0.4134
 9229SOL    HW134292   1.584   0.325   7.412 -0.3233  0.3361 -1.7074
 9229SOL    HW234293   1.607   0.179   7.443  0.6763  0.9201  0.5168
 9230SOL     OW34294   0.400  12.296   1.539  0.6359 -0.0085 -0.3353
 9230SOL    HW134295   0.465  12.274   1.606  0.8797 -0.8828 -0.8337
 9230SOL    HW234296   0.378  12.388   1.555  1.6558  0.1684  0.1324
 9231SOL     OW34297   5.575   2.501   5.129  0.5760  0.0173  0.1318
 9231SOL    HW134298   5.650   2.500   5.071 -0.2523 -0.5474 -0.9664
 9231SOL    HW234299   5.555   2.409   5.145 -1.2545  0.0616 -1.4887
 9232SOL     OW34300   4.540   0.804  10.562 -0.3386  0.6880  0.4651
 9232SOL    HW134301   4.623   0.840  10.533 -0.4644  0.1918 -0.5627
 9232SOL    HW234302   4.476   0.836  10.498 -0.5344 -0.8619 -0.1632
 9233SOL     OW34303   3.472   5.597  10.230 -0.2777 -0.1335  0.2324
 9233SOL    HW134304   3.463   5.674  10.286 -2.6278 -0.2728  0.1615
 9233SOL    HW234305   3.485   5.633  10.142  1.7303  0.0995  0.5788
 9234SOL     OW34306   2.245   3.562   9.500  0.1749  0.0501  0.1012
 9234SOL    HW134307   2.225   3.484   9.448 -0.6793 -1.1731  2.1454
 9234SOL    HW234308   2.334   3.546   9.534  0.8613  0.9926 -1.1622
 9235SOL     OW34309   6.354  12.601   3.562  0.0665 -0.3602  0.3655
 9235SOL    HW134310   6.365  12.696   3.569 -0.6943 -0.1504 -0.9628
 9235SOL    HW234311   6.266  12.585   3.596  0.0190 -0.5258  0.1683
 9236SOL     OW34312  11.940   7.666   9.946  0.4091 -0.1487  0.1309
 9236SOL    HW134313  11.945   7.570   9.947 -0.3720 -0.1962  1.3752
 9236SOL    HW234314  12.029   7.694   9.926  0.4906 -1.1331 -1.0325
 9237SOL     OW34315   6.901   9.497   2.929  0.2613 -0.7929 -0.3221
 9237SOL    HW134316   6.918   9.444   3.007  0.5117  0.5683  0.5799
 9237SOL    HW234317   6.931   9.442   2.857  2.6191 -1.0679  0.7425
 9238SOL     OW34318   8.042   4.523  12.740  0.0840  0.2343  0.4651
 9238SOL    HW134319   7.957   4.509  12.697  0.4119 -0.6000  0.0619
 9238SOL    HW234320   8.044   4.617  12.759 -0.4056  0.4942 -0.6611
 9239SOL     OW34321  10.147   2.569  11.943 -0.8653 -0.3521  0.2529
 9239SOL    HW134322  10.132   2.643  11.884 -2.2548 -0.5976  0.2710
 9239SOL    HW234323  10.160   2.494  11.884 -0.7200 -0.3284  0.2530
 9240SOL     OW34324   7.928   1.406   6.104  0.2727 -0.2934  0.3662
 9240SOL    HW134325   7.983   1.329   6.091 -0.3924 -0.4073 -2.3702
 9240SOL    HW234326   7.983   1.479   6.076 -0.2502 -0.1999 -0.4643
 9241SOL     OW34327   3.610   5.485   5.791  0.1912  0.2734  0.5987
 9241SOL    HW134328   3.569   5.434   5.861 -2.4433 -0.3789 -1.2764
 9241SOL    HW234329   3.676   5.426   5.754 -0.5129 -0.5392  0.6018
 9242SOL     OW34330  11.879   1.453   8.626 -0.1094 -0.1981  0.0715
 9242SOL    HW134331  11.822   1.388   8.667  0.9644 -0.9157  0.4745
 9242SOL    HW234332  11.941   1.477   8.694  0.4076  0.1595 -0.5148
 9243SOL     OW34333  10.021  11.034   7.576 -0.2482  1.1243  0.5058
 9243SOL    HW134334  10.055  10.945   7.577 -2.7267  0.0077 -1.6239
 9243SOL    HW234335  10.049  11.070   7.492 -1.7310  1.2087  0.0101
 9244SOL     OW34336   9.690   9.342   9.038 -0.3962 -0.5874 -0.0879
 9244SOL    HW134337   9.697   9.256   9.081  0.6165 -1.7802 -2.4489
 9244SOL    HW234338   9.636   9.326   8.961 -1.5202  1.3000  0.2656
 9245SOL     OW34339   9.709   4.698   2.408  0.2690  0.0513 -0.1025
 9245SOL    HW134340   9.744   4.654   2.330  0.4476 -0.5519  0.3083
 9245SOL    HW234341   9.683   4.785   2.377 -0.8167 -0.5959 -1.1232
 9246SOL     OW34342  12.296   7.531  12.434  0.0375  0.2856  0.1631
 9246SOL    HW134343  12.222   7.553  12.490  0.0598  1.5856 -0.2755
 9246SOL    HW234344  12.285   7.439  12.413 -0.5825  0.0765  1.3822
 9247SOL     OW34345  11.533   9.541   8.776  0.1642  0.4425  1.2432
 9247SOL    HW134346  11.566   9.460   8.815  1.9821  1.1507  1.2813
 9247SOL    HW234347  11.525   9.523   8.683 -1.1263 -0.2833  1.4708
 9248SOL     OW34348   1.529   2.713   9.669 -0.0781 -0.3549  0.3671
 9248SOL    HW134349   1.482   2.674   9.742 -0.7170  1.5692  1.0564
 9248SOL    HW234350   1.518   2.808   9.681 -1.7410  0.0538 -3.1753
 9249SOL     OW34351  10.851   6.786  11.980 -0.0945 -0.4936  0.0787
 9249SOL    HW134352  10.759   6.763  11.964 -1.1887  3.0220  0.5393
 9249SOL    HW234353  10.866   6.763  12.072 -0.5898 -0.7712  0.0946
 9250SOL     OW34354   6.141   4.579   6.581 -0.1434  0.0702 -0.0980
 9250SOL    HW134355   6.219   4.524   6.571  0.0425  0.6580 -2.4731
 9250SOL    HW234356   6.150   4.619   6.667  1.2581 -1.2240  0.4053
 9251SOL     OW34357  12.341  10.782   5.468 -0.2078 -0.3222 -0.1196
 9251SOL    HW134358  12.307  10.703   5.426  1.0887 -2.6665  2.8491
 9251SOL    HW234359  12.432  10.787   5.441 -0.0322 -0.3916  0.4516
 9252SOL     OW34360   3.237   2.304   9.854  0.4197  0.0484 -0.4223
 9252SOL    HW134361   3.163   2.364   9.852  0.4418  0.0764 -1.7169
 9252SOL    HW234362   3.255   2.290   9.947 -1.0138  0.2669 -0.0901
 9253SOL     OW34363   1.335   7.240   1.166  0.1214 -0.3068 -0.1141
 9253SOL    HW134364   1.333   7.161   1.111  1.8820  1.0597 -2.2848
 9253SOL    HW234365   1.428   7.259   1.178 -0.2600  1.1839  0.7846
 9254SOL     OW34366   0.247   7.221  11.365 -0.2662  0.6409 -0.5445
 9254SOL    HW134367   0.178   7.198  11.302 -0.1464 -0.1290 -0.4001
 9254SOL    HW234368   0.232   7.314  11.383 -0.6573  0.7329 -1.2694
 9255SOL     OW34369   3.089   3.327   4.446 -0.0957  0.1904  0.2162
 9255SOL    HW134370   3.041   3.317   4.528 -0.5188  1.2106  0.1010
 9255SOL    HW234371   3.023   3.313   4.378 -0.3150  1.8121  0.0573
 9256SOL     OW34372   5.298   6.039   8.534  0.4537 -0.2969  0.3542
 9256SOL    HW134373   5.346   6.074   8.609 -1.7821 -1.6742  2.6028
 9256SOL    HW234374   5.358   5.977   8.494  1.4027 -0.2363  1.6070
 9257SOL     OW34375   7.040  12.679  10.445 -0.2990  0.3737 -0.1745
 9257SOL    HW134376   7.127  12.711  10.468  0.2702 -1.2588  0.1030
 9257SOL    HW234377   7.022  12.610  10.509 -0.8602 -0.7990 -1.5377
 9258SOL     OW34378   1.579   6.153   5.604  0.1024  0.0889  0.4411
 9258SOL    HW134379   1.600   6.167   5.511  0.6011 -1.3285  0.3057
 9258SOL    HW234380   1.602   6.061   5.619 -0.0120  0.2938  1.9649
 9259SOL     OW34381   4.008  11.725   5.172 -0.0630  0.0868  0.0629
 9259SOL    HW134382   3.977  11.677   5.249 -0.2483  0.3516  0.1563
 9259SOL    HW234383   4.021  11.815   5.204 -0.5246  0.2892 -0.3107
 9260SOL     OW34384  10.238   1.904   4.504 -0.0081 -0.3179  0.3311
 9260SOL    HW134385  10.143   1.902   4.512 -0.0028  0.2905  0.6176
 9260SOL    HW234386  10.269   1.861   4.584 -0.0453 -0.9987 -0.0160
 9261SOL     OW34387   5.137   9.221   4.840  0.2685  0.2498  0.2986
 9261SOL    HW134388   5.066   9.157   4.847 -2.2919  2.7902 -0.2587
 9261SOL    HW234389   5.182   9.200   4.759 -0.5799 -0.7604  0.0826
 9262SOL     OW34390   2.528   7.453   2.778  0.0156 -0.9730  0.1297
 9262SOL    HW134391   2.602   7.461   2.837  1.1602 -0.6639 -1.2874
 9262SOL    HW234392   2.503   7.543   2.758  1.9898 -0.9194 -2.6182
 9263SOL     OW34393   7.153  11.394   4.593 -0.2504  0.0713  0.0551
 9263SOL    HW134394   7.165  11.404   4.498 -0.3404 -0.3962 -0.0119
 9263SOL    HW234395   7.129  11.302   4.603  0.7070 -0.1275  0.6200
 9264SOL     OW34396   3.326   4.489  10.850  0.2731  0.7642  0.5143
 9264SOL    HW134397   3.398   4.432  10.876  0.0605 -0.2804 -1.0146
 9264SOL    HW234398   3.334   4.566  10.906  1.7101  0.0514  1.3425
 9265SOL     OW34399   8.751  11.484   3.839  0.1562 -0.3480  0.3458
 9265SOL    HW134400   8.699  11.564   3.843  0.4655 -0.1688  1.0463
 9265SOL    HW234401   8.833  11.507   3.883 -0.0305 -1.2416  1.2088
 9266SOL     OW34402   7.020   2.824   3.648  0.0534  0.4068  0.5556
 9266SOL    HW134403   7.046   2.732   3.647 -0.1951  0.3024  1.8127
 9266SOL    HW234404   6.938   2.827   3.600  0.2982  0.0561  0.1138
 9267SOL     OW34405  12.095   5.988   1.239  0.0284 -0.0312 -0.0820
 9267SOL    HW134406  12.174   5.934   1.242  0.8219  1.1410  0.5706
 9267SOL    HW234407  12.053   5.975   1.324  2.3273  3.3675  1.8008
 9268SOL     OW34408  11.888   6.308   9.401 -0.4564  0.2202  0.3170
 9268SOL    HW134409  11.793   6.300   9.401 -0.3787 -1.1120 -1.1391
 9268SOL    HW234410  11.914   6.286   9.491 -1.5014  0.9030  0.8186
 9269SOL     OW34411   1.245   2.602   6.605 -0.3632 -0.4800  0.1309
 9269SOL    HW134412   1.317   2.539   6.606 -1.5355 -1.8711  0.0361
 9269SOL    HW234413   1.189   2.576   6.678 -1.1547  0.1197 -0.2516
 9270SOL     OW34414   4.543   6.272   3.538 -0.4850  0.3220 -0.0040
 9270SOL    HW134415   4.512   6.361   3.559 -1.6635 -0.0583 -0.0361
 9270SOL    HW234416   4.532   6.265   3.443  0.1215  0.3242 -0.0762
 9271SOL     OW34417   1.891   9.206   5.359  0.1546  0.2348 -0.6362
 9271SOL    HW134418   1.914   9.115   5.377 -2.3766 -0.1731  0.9959
 9271SOL    HW234419   1.944   9.257   5.420 -1.0344 -0.4732  1.0773
 9272SOL     OW34420   9.250   4.890  12.520 -0.3395 -0.1236  0.5786
 9272SOL    HW134421   9.259   4.832  12.445 -0.2715 -1.3218  1.4803
 9272SOL    HW234422   9.156   4.904  12.529 -0.2874  1.0992 -0.4933
 9273SOL     OW34423   6.467  12.329  10.254 -0.7115 -0.1516 -0.1825
 9273SOL    HW134424   6.523  12.302  10.327  0.2502 -1.6634 -1.4059
 9273SOL    HW234425   6.462  12.424  10.262  0.3679 -0.1711  1.1557
 9274SOL     OW34426   7.437   0.813   3.873 -0.4131  0.2754 -0.0090
 9274SOL    HW134427   7.532   0.819   3.861 -0.4436 -0.1803 -0.4752
 9274SOL    HW234428   7.417   0.884   3.934  0.2797  0.1474  0.3816
 9275SOL     OW34429  11.047   7.698   5.204 -0.1027  0.2901  0.4195
 9275SOL    HW134430  11.132   7.741   5.191  0.3214 -0.6999 -0.1375
 9275SOL    HW234431  11.060   7.639   5.278 -0.8228  1.4338  1.4990
 9276SOL     OW34432   9.795   5.986   2.355 -0.5232 -0.2005 -0.2126
 9276SOL    HW134433   9.840   5.903   2.339 -2.8298 -1.3964 -0.9621
 9276SOL    HW234434   9.755   6.008   2.271 -1.1562  0.8898  0.3576
 9277SOL     OW34435   2.492  11.488   2.044 -0.3434  0.1427 -0.4642
 9277SOL    HW134436   2.409  11.465   2.003 -0.7610  0.9005 -0.0701
 9277SOL    HW234437   2.517  11.571   2.002 -1.2767  1.4670  1.4215
 9278SOL     OW34438   9.177   9.561   2.069  0.0677  0.1542  0.2674
 9278SOL    HW134439   9.095   9.547   2.021  0.4757 -0.3754 -0.3036
 9278SOL    HW234440   9.205   9.648   2.043  0.2948 -0.1343 -0.4957
 9279SOL     OW34441  10.019   8.167  10.000  0.4134 -0.0873 -0.1281
 9279SOL    HW134442  10.103   8.174  10.046  0.3344 -0.5223  0.0917
 9279SOL    HW234443  10.029   8.090   9.943  0.1167 -0.2286  0.0073
 9280SOL     OW34444   2.147  10.594   6.385  0.0834  0.0223  0.7644
 9280SOL    HW134445   2.069  10.588   6.331  0.4501 -0.4978  0.2875
 9280SOL    HW234446   2.220  10.595   6.323  0.4490  0.7779  1.1901
 9281SOL     OW34447  11.266   8.094   4.528  0.0158 -0.2942  0.1639
 9281SOL    HW134448  11.349   8.130   4.558  0.2222 -1.0040  0.4650
 9281SOL    HW234449  11.221   8.066   4.608 -0.4673 -0.0177 -0.0049
 9282SOL     OW34450  11.574   7.723   4.556  0.2032  0.5795  0.3154
 9282SOL    HW134451  11.480   7.712   4.573  0.3681 -0.9860  0.3570
 9282SOL    HW234452  11.607   7.634   4.547  1.4610  1.1471 -1.0081
 9283SOL     OW34453   9.190   3.899   1.836 -0.2867 -0.3224  0.1685
 9283SOL    HW134454   9.162   3.881   1.925 -0.1161  1.5918  0.6447
 9283SOL    HW234455   9.116   3.946   1.797  1.3424  3.0602  0.8396
 9284SOL     OW34456   1.305   4.146  10.706  0.1450 -0.2707 -0.5643
 9284SOL    HW134457   1.311   4.135  10.800 -1.4800 -1.1070 -0.5299
 9284SOL    HW234458   1.226   4.199  10.692 -0.7732 -1.8080 -1.5170
 9285SOL     OW34459   6.599   8.651   0.448 -0.4000  0.7620  0.1301
 9285SOL    HW134460   6.663   8.681   0.513 -0.4414  2.7592 -0.6762
 9285SOL    HW234461   6.569   8.731   0.405 -1.0491 -0.4095 -1.7382
 9286SOL     OW34462   6.474   2.141   1.434  0.3381  0.1218  0.6299
 9286SOL    HW134463   6.466   2.066   1.493  0.4764  0.1394  0.6720
 9286SOL    HW234464   6.386   2.154   1.399  0.0127  0.7601  1.6240
 9287SOL     OW34465   6.042  10.295   3.356 -0.4075  0.3712 -0.5433
 9287SOL    HW134466   6.036  10.388   3.379 -0.4775  0.4549 -0.8864
 9287SOL    HW234467   6.022  10.249   3.437 -0.6225  0.6576 -0.4293
 9288SOL     OW34468   1.793   9.989  11.958  0.9941  0.2074  0.0110
 9288SOL    HW134469   1.796  10.077  11.995 -0.5024  0.8906 -1.3209
 9288SOL    HW234470   1.877   9.978  11.914  1.7905  0.3443  1.4500
 9289SOL     OW34471   6.504   9.139   5.665  0.0497  0.6195  0.2981
 9289SOL    HW134472   6.597   9.146   5.687  0.1899 -0.4071  0.0934
 9289SOL    HW234473   6.496   9.181   5.580  0.0141  2.1434  1.0217
 9290SOL     OW34474   4.176   8.663  12.291 -0.3683  0.0163  0.0326
 9290SOL    HW134475   4.246   8.644  12.229  0.3241 -0.7214  1.0121
 9290SOL    HW234476   4.183   8.757  12.308  0.3241 -0.0338  0.0397
 9291SOL     OW34477   8.060   1.525   6.617 -0.0978  0.2081 -0.2352
 9291SOL    HW134478   8.011   1.500   6.538  0.6762 -1.0553 -0.3472
 9291SOL    HW234479   8.118   1.595   6.588 -0.0478 -0.0297 -0.7327
 9292SOL     OW34480   7.725   9.259   8.127  0.1514  0.1415 -0.5292
 9292SOL    HW134481   7.665   9.306   8.185  0.5080 -0.9700  0.8087
 9292SOL    HW234482   7.726   9.310   8.046 -1.4972  0.9479 -0.0810
 9293SOL     OW34483   3.876   5.277   2.142 -0.3255 -0.5378  0.2280
 9293SOL    HW134484   3.798   5.223   2.131 -0.2450 -0.8905  1.2276
 9293SOL    HW234485   3.909   5.254   2.229  0.7387 -0.1888 -0.0660
 9294SOL     OW34486   1.803  12.370  10.098 -0.0760  0.2422  0.1333
 9294SOL    HW134487   1.818  12.352  10.005  0.6307  1.0076  0.0884
 9294SOL    HW234488   1.731  12.312  10.122 -0.1779 -0.0635 -0.8582
 9295SOL     OW34489   6.636   5.596   2.468  0.1365 -0.0522  0.2272
 9295SOL    HW134490   6.692   5.521   2.450  2.7538  1.2164  2.2917
 9295SOL    HW234491   6.660   5.661   2.403 -0.0613 -0.0240  0.1807
 9296SOL     OW34492   1.908   5.155   2.364  0.3922  0.4847 -0.1458
 9296SOL    HW134493   1.904   5.144   2.459 -0.6444 -1.1203 -0.3298
 9296SOL    HW234494   1.837   5.099   2.331  1.0502  0.6344 -1.8873
 9297SOL     OW34495   7.215  11.680  11.618 -0.1123 -0.6403  0.0057
 9297SOL    HW134496   7.203  11.628  11.539  0.0075  2.4163 -2.1949
 9297SOL    HW234497   7.310  11.685  11.630 -0.0534  0.2489 -0.7028
 9298SOL     OW34498  11.627   2.214  10.191  0.5264  0.2624  0.0057
 9298SOL    HW134499  11.609   2.122  10.171 -0.2204  0.5822 -0.8845
 9298SOL    HW234500  11.703   2.236  10.138 -0.4886  0.6718 -1.3491
 9299SOL     OW34501   3.263  10.617   7.477 -0.5169 -0.1780  0.1832
 9299SOL    HW134502   3.189  10.558   7.489 -0.7581  0.2642  0.9162
 9299SOL    HW234503   3.340  10.562   7.495 -0.7834 -0.0199  2.0026
 9300SOL     OW34504   0.953   3.845   2.312 -0.2280  0.0996  0.1621
 9300SOL    HW134505   0.904   3.898   2.375  0.5766  0.7270  0.2864
 9300SOL    HW234506   1.029   3.899   2.290  1.1692 -1.4171  1.0519
 9301SOL     OW34507  10.613   3.355  11.464 -0.1056  0.3263 -0.3062
 9301SOL    HW134508  10.519   3.368  11.448  0.0250  0.5281 -0.9367
 9301SOL    HW234509  10.617   3.272  11.512 -0.4447 -1.0554 -2.5089
 9302SOL     OW34510  11.478   0.995   8.522 -0.1583 -0.1545  0.0904
 9302SOL    HW134511  11.385   1.018   8.532 -0.0855  1.0768 -1.5698
 9302SOL    HW234512  11.499   0.947   8.602 -2.0075  0.2482  0.8941
 9303SOL     OW34513  11.371   7.562  11.702 -0.6147  0.2448  0.0518
 9303SOL    HW134514  11.448   7.571  11.647 -1.0969 -0.2297 -0.7188
 9303SOL    HW234515  11.304   7.616  11.659 -0.5982  0.9868  0.9381
 9304SOL     OW34516  11.716   0.293   5.422  0.3130 -0.5828  0.4184
 9304SOL    HW134517  11.777   0.318   5.353  1.9852  0.0243  2.0105
 9304SOL    HW234518  11.630   0.312   5.387  1.1814  0.9220 -1.0240
 9305SOL     OW34519   5.096  11.851   0.968  0.1180  0.1946 -0.1893
 9305SOL    HW134520   5.118  11.896   1.049 -1.1878 -1.0741  0.9187
 9305SOL    HW234521   5.128  11.762   0.980 -0.4481 -0.1155 -0.9055
 9306SOL     OW34522   8.729   4.193  10.668  0.4491  0.2988  0.1197
 9306SOL    HW134523   8.762   4.245  10.741  0.3938 -1.2466  1.3121
 9306SOL    HW234524   8.801   4.192  10.605  1.7285 -0.7883  1.5094
 9307SOL     OW34525   2.469   3.000   8.287 -0.0841 -0.2915  0.0207
 9307SOL    HW134526   2.384   3.018   8.246 -0.5281 -0.4275  0.8578
 9307SOL    HW234527   2.506   3.087   8.305 -0.1076 -0.2319 -0.2144
 9308SOL     OW34528   6.737   6.442   5.219  0.2984 -0.2615  0.6334
 9308SOL    HW134529   6.797   6.493   5.165 -1.1214  0.6249 -0.1713
 9308SOL    HW234530   6.681   6.397   5.156  0.4069 -1.4448  1.3637
 9309SOL     OW34531   5.431  12.075  11.902 -0.0852  0.0228  0.2450
 9309SOL    HW134532   5.411  11.999  11.957  0.7551  0.2673  0.9115
 9309SOL    HW234533   5.525  12.090  11.915 -0.7022  2.8411  2.3105
 9310SOL     OW34534  11.321   5.423  10.612  0.0381 -0.1904 -0.4105
 9310SOL    HW134535  11.354   5.339  10.642  1.0679  0.9607  1.9561
 9310SOL    HW234536  11.235   5.403  10.574 -0.3890 -2.1345  1.3843
 9311SOL     OW34537  12.662   3.102  12.072  0.1255  0.2006  0.2479
 9311SOL    HW134538  12.746   3.095  12.117  1.1377 -1.0426 -1.7051
 9311SOL    HW234539  12.597   3.094  12.142  1.5968  0.5182  1.7300
 9312SOL     OW34540   1.434   4.388   1.397  0.3289 -0.9300 -0.0348
 9312SOL    HW134541   1.520   4.384   1.356  0.1107 -1.4169 -0.4636
 9312SOL    HW234542   1.373   4.365   1.326 -0.1786 -0.2962  0.1800
 9313SOL     OW34543   1.647   6.213   6.413  1.1431 -0.1018  0.0810
 9313SOL    HW134544   1.609   6.294   6.378 -1.3361 -0.8135  0.9629
 9313SOL    HW234545   1.609   6.204   6.500  2.6938 -1.3701  0.6679
 9314SOL     OW34546   8.795  10.981  11.274  0.0600  0.4858  0.0087
 9314SOL    HW134547   8.758  11.041  11.209 -1.7508 -0.9943 -0.4232
 9314SOL    HW234548   8.719  10.933  11.308  1.1293  0.1604  2.1528
 9315SOL     OW34549  10.199  10.694   1.158  0.9354  0.0996 -0.0294
 9315SOL    HW134550  10.174  10.761   1.094 -0.7471 -0.4688 -0.0022
 9315SOL    HW234551  10.224  10.618   1.105  1.2809  0.2157 -0.0339
 9316SOL     OW34552   3.070   4.370   4.428 -0.3146  0.1971  0.1244
 9316SOL    HW134553   2.988   4.415   4.407  0.4107  1.0943 -0.9077
 9316SOL    HW234554   3.117   4.367   4.345  0.5800 -0.5783  0.6389
 9317SOL     OW34555  11.582   9.106   1.956  0.9177  0.3217  0.5366
 9317SOL    HW134556  11.578   9.018   1.991 -0.7052  0.4826  0.8403
 9317SOL    HW234557  11.608   9.161   2.030  2.7364  0.0313  0.1523
 9318SOL     OW34558  11.706   8.614   8.112 -0.1678 -0.3774  0.4851
 9318SOL    HW134559  11.662   8.693   8.144  0.1459  0.2997 -0.7360
 9318SOL    HW234560  11.634   8.553   8.095 -0.4315 -0.2625  1.1227
 9319SOL     OW34561  12.552   8.799   3.638 -0.2194 -0.5999 -0.1044
 9319SOL    HW134562  12.561   8.726   3.700  0.8383  1.5891  2.5678
 9319SOL    HW234563  12.637   8.842   3.640 -1.1055  1.2860 -0.7534
 9320SOL     OW34564   4.408  10.780   3.307  1.0197 -0.2342 -0.4264
 9320SOL    HW134565   4.490  10.771   3.258  0.1196 -2.5487 -1.6450
 9320SOL    HW234566   4.405  10.705   3.365 -0.6485 -0.7551 -1.1046
 9321SOL     OW34567   8.948   1.801   3.397  0.1727  0.6990 -0.0262
 9321SOL    HW134568   9.001   1.775   3.322 -2.7027 -3.7382 -0.8797
 9321SOL    HW234569   8.967   1.735   3.464 -2.1769  0.6025  0.6165
 9322SOL     OW34570   9.897   2.756   2.210  0.1861 -0.0893 -0.3514
 9322SOL    HW134571   9.841   2.828   2.181 -1.2464 -0.4686  1.2548
 9322SOL    HW234572   9.958   2.741   2.138 -1.1523  1.0180 -1.7704
 9323SOL     OW34573   8.472   2.111  12.706  0.3891 -0.0518  0.6475
 9323SOL    HW134574   8.491   2.064  12.625 -0.6584  1.1146 -0.3231
 9323SOL    HW234575   8.451   2.043  12.769  1.2641 -0.9866 -0.0480
 9324SOL     OW34576   1.892   1.894   8.746  0.3255 -0.5009  0.3044
 9324SOL    HW134577   1.937   1.812   8.728 -0.0829 -0.4340 -1.1432
 9324SOL    HW234578   1.956   1.962   8.725  0.1472 -0.4395 -0.0662
 9325SOL     OW34579   2.162  10.896   9.059 -0.1077 -0.2324  0.0216
 9325SOL    HW134580   2.163  10.807   9.094 -0.0745 -0.7552 -1.2258
 9325SOL    HW234581   2.226  10.893   8.987  0.5742  1.0550  0.5498
 9326SOL     OW34582   5.704  11.225   0.821  0.1024 -0.0365 -0.1275
 9326SOL    HW134583   5.614  11.246   0.796  0.1447  1.4593  0.8140
 9326SOL    HW234584   5.696  11.184   0.907  0.3244  0.3264  0.0694
 9327SOL     OW34585  11.893  11.666   2.072 -0.0552  0.1069 -0.0572
 9327SOL    HW134586  11.953  11.615   2.125 -0.6302  0.4150  0.9204
 9327SOL    HW234587  11.878  11.613   1.993  0.3596 -0.6181  0.3498
 9328SOL     OW34588   0.996  12.420   2.015 -0.4824  0.5505  0.6559
 9328SOL    HW134589   1.027  12.435   2.104  0.1293 -2.6174  1.0851
 9328SOL    HW234590   0.916  12.370   2.025 -0.3967  0.1290 -0.5576
 9329SOL     OW34591   6.925   6.943  11.784  0.2243  0.2765  0.4690
 9329SOL    HW134592   6.915   7.037  11.802 -1.6301 -0.1817  2.2102
 9329SOL    HW234593   6.965   6.908  11.864  0.3276 -0.5006  0.0806
 9330SOL     OW34594   4.427   3.180   7.790  0.3517  0.0058  0.0523
 9330SOL    HW134595   4.408   3.148   7.702  1.5630 -1.2535  0.2037
 9330SOL    HW234596   4.342   3.204   7.827 -0.4754 -1.8456 -0.5641
 9331SOL     OW34597   0.751   6.834  11.100 -0.2390  0.2399  0.3302
 9331SOL    HW134598   0.843   6.811  11.115 -0.5042 -0.0385  1.7050
 9331SOL    HW234599   0.705   6.794  11.173 -1.3891  0.8555 -0.0386
 9332SOL     OW34600   8.467   2.782   3.130  0.1976  0.2420 -0.2608
 9332SOL    HW134601   8.549   2.743   3.162 -0.4208  0.1252  1.2688
 9332SOL    HW234602   8.450   2.736   3.048  1.2387 -0.3079 -0.1957
 9333SOL     OW34603   1.397   0.335   1.274  0.3924  0.0801  0.0790
 9333SOL    HW134604   1.430   0.345   1.184  1.1962  0.2677  0.3864
 9333SOL    HW234605   1.418   0.245   1.297 -1.3246 -0.5070 -0.5000
 9334SOL     OW34606  12.002   2.662   3.285  0.2641  0.0108 -0.5460
 9334SOL    HW134607  12.009   2.734   3.222  0.1132  0.6570  0.1562
 9334SOL    HW234608  11.923   2.682   3.335  1.2741  0.4424  0.9687
 9335SOL     OW34609   2.904  10.403   2.324 -0.1538 -0.2266 -0.6352
 9335SOL    HW134610   2.851  10.479   2.301  0.5201  0.1848 -0.8302
 9335SOL    HW234611   2.943  10.375   2.241  1.3344  0.5343 -0.2188
 9336SOL     OW34612   5.888   4.173   1.644 -0.2442 -0.2971  0.5251
 9336SOL    HW134613   5.932   4.253   1.672 -0.9339 -0.0671  0.9999
 9336SOL    HW234614   5.948   4.102   1.668  1.1763  0.1514 -1.5222
 9337SOL     OW34615   7.819   4.040  12.076 -0.0708  0.3251  0.3624
 9337SOL    HW134616   7.752   4.103  12.104 -0.5303 -0.5805  1.3712
 9337SOL    HW234617   7.770   3.976  12.024  0.3967  0.7792 -0.6691
 9338SOL     OW34618   8.377   7.798   6.060 -0.4952 -0.5280 -0.1420
 9338SOL    HW134619   8.291   7.841   6.064 -0.2211  0.3510 -2.2722
 9338SOL    HW234620   8.429   7.841   6.127 -1.3715 -0.2792  0.3975
 9339SOL     OW34621   2.740   8.625   1.199  0.2816  0.2646  0.3620
 9339SOL    HW134622   2.667   8.604   1.258 -1.6938  0.3917 -1.8890
 9339SOL    HW234623   2.711   8.704   1.152  0.7281 -1.0602 -2.3209
 9340SOL     OW34624  12.730   8.002   6.505  0.2822 -0.0661  0.0685
 9340SOL    HW134625  12.814   8.046   6.505  0.0067  0.4642 -0.4663
 9340SOL    HW234626  12.726   7.958   6.590  1.2232 -0.3471 -0.0250
 9341SOL     OW34627   2.427   6.216   5.500  0.2087  0.4026 -0.3039
 9341SOL    HW134628   2.503   6.184   5.548 -0.8017 -1.3836  0.1669
 9341SOL    HW234629   2.415   6.306   5.531  1.6624  0.4677  0.1499
 9342SOL     OW34630   3.702   6.826   8.695 -0.1938 -0.1834  0.3491
 9342SOL    HW134631   3.735   6.737   8.682  0.6608  0.0901  0.5887
 9342SOL    HW234632   3.640   6.838   8.623  0.5268 -0.5792 -0.3660
 9343SOL     OW34633   4.324  10.070   1.613 -0.1108 -0.4184 -0.3142
 9343SOL    HW134634   4.321   9.986   1.659  0.3131  0.0452  0.6012
 9343SOL    HW234635   4.294  10.050   1.525 -0.9476 -1.3578  0.1507
 9344SOL     OW34636   5.400   8.469   9.128  0.6619  0.3357 -0.2407
 9344SOL    HW134637   5.411   8.526   9.053  1.2450  0.8755  0.2453
 9344SOL    HW234638   5.486   8.467   9.170 -0.2178  2.0426  1.8197
 9345SOL     OW34639   9.543   8.545   9.640  0.5171  0.0387  0.1777
 9345SOL    HW134640   9.506   8.539   9.729  1.2670  1.5088  0.6314
 9345SOL    HW234641   9.613   8.610   9.649  0.5506  0.2588 -1.5196
 9346SOL     OW34642   5.068   7.400  12.208 -0.3024 -0.1723  0.1805
 9346SOL    HW134643   5.137   7.446  12.257 -0.1450 -1.3275  1.0790
 9346SOL    HW234644   5.074   7.436  12.119  1.5863 -0.3605  0.1908
 9347SOL     OW34645   4.760   8.570   5.930  0.7101 -0.6516  0.0302
 9347SOL    HW134646   4.743   8.650   5.880  1.7822  1.3832  2.6966
 9347SOL    HW234647   4.682   8.516   5.915 -0.5331  1.3063 -1.0278
 9348SOL     OW34648   0.377   8.476  11.858 -0.4871 -0.4018 -0.3828
 9348SOL    HW134649   0.305   8.412  11.853  0.0732 -1.5351  3.4970
 9348SOL    HW234650   0.454   8.424  11.878  0.7343  1.1808 -0.8012
 9349SOL     OW34651   4.902  10.427  12.251  0.4657 -0.3548  0.0981
 9349SOL    HW134652   4.883  10.346  12.300  0.2584 -0.4799 -0.1848
 9349SOL    HW234653   4.960  10.477  12.308 -1.4755  0.4842  1.4310
 9350SOL     OW34654   0.193  11.592   6.632 -0.0674 -0.0395  0.0740
 9350SOL    HW134655   0.235  11.635   6.707 -0.2322  0.7181 -0.2604
 9350SOL    HW234656   0.122  11.651   6.608 -0.0081 -0.2780 -0.6871
 9351SOL     OW34657   4.130   3.653   3.685  0.2675 -0.0981 -0.1058
 9351SOL    HW134658   4.202   3.715   3.685  1.1341 -1.0758  0.3715
 9351SOL    HW234659   4.070   3.685   3.752 -0.3545  1.3676 -1.3046
 9352SOL     OW34660   4.677   7.894   3.068  0.2933 -0.4722  0.1136
 9352SOL    HW134661   4.704   7.840   3.142  0.2013 -0.8132 -0.0996
 9352SOL    HW234662   4.583   7.908   3.081  0.6152  1.0422  1.0661
 9353SOL     OW34663   8.130   7.948   1.685 -0.0432  0.2042 -0.3222
 9353SOL    HW134664   8.166   7.866   1.718  0.1082 -0.6703 -2.5037
 9353SOL    HW234665   8.199   8.013   1.699  0.5710 -0.4495 -0.3162
 9354SOL     OW34666   8.214  11.688   1.182 -0.1026  0.1785  0.5122
 9354SOL    HW134667   8.143  11.703   1.120 -0.0665 -1.9506 -0.1264
 9354SOL    HW234668   8.294  11.706   1.132 -0.1196  2.8155  1.3014
 9355SOL     OW34669   3.211   3.408   9.092  0.1783 -0.0083  0.8372
 9355SOL    HW134670   3.270   3.446   9.157  2.5134  0.1969 -1.2289
 9355SOL    HW234671   3.211   3.314   9.111 -0.5978  0.2326  2.1500
 9356SOL     OW34672   6.656   0.539   4.356  0.3888  0.1019 -0.6336
 9356SOL    HW134673   6.675   0.535   4.262  1.8226 -0.8088 -0.3367
 9356SOL    HW234674   6.575   0.488   4.366 -0.1002  0.6884 -1.4260
 9357SOL     OW34675   6.678  10.588  11.602 -0.1571  0.7548 -0.3426
 9357SOL    HW134676   6.660  10.650  11.532  0.9424  0.2212 -1.1126
 9357SOL    HW234677   6.592  10.549  11.622 -0.5758  1.3417 -0.9511
 9358SOL     OW34678  10.024   8.521   5.010  0.1421  0.5245  0.6584
 9358SOL    HW134679   9.937   8.501   4.978  1.1035 -2.1901 -0.6214
 9358SOL    HW234680  10.032   8.616   5.005 -2.3160  0.7306 -0.2348
 9359SOL     OW34681   3.114   0.998  10.388 -0.6072 -0.4116  0.2732
 9359SOL    HW134682   3.020   1.014  10.400 -0.2746  1.3753  0.8334
 9359SOL    HW234683   3.120   0.946  10.308 -1.9640  1.7995 -1.3984
 9360SOL     OW34684  12.058   1.805   0.677 -0.3622  0.1267  0.4715
 9360SOL    HW134685  11.989   1.763   0.728 -0.1289 -1.1910 -0.2790
 9360SOL    HW234686  12.021   1.890   0.653 -0.5725  0.6961  2.6035
 9361SOL     OW34687   2.304   0.293   4.337  0.1441  0.5761  0.3483
 9361SOL    HW134688   2.389   0.306   4.379 -0.5261  1.3441  1.5251
 9361SOL    HW234689   2.242   0.285   4.410 -0.5717 -1.8351 -0.4327
 9362SOL     OW34690  10.765   5.794   2.253  0.4219  0.1601 -0.1275
 9362SOL    HW134691  10.767   5.828   2.163  0.8888 -1.6580 -0.8356
 9362SOL    HW234692  10.849   5.750   2.264  0.7846  1.1653  1.5691
 9363SOL     OW34693   0.578   7.585   1.310 -0.0682  0.6846 -0.1918
 9363SOL    HW134694   0.564   7.613   1.401 -0.3484  0.0929 -0.0488
 9363SOL    HW234695   0.577   7.666   1.260  4.4007  1.6318  0.7973
 9364SOL     OW34696   9.821   5.066   1.509  0.3415  0.2307  0.7656
 9364SOL    HW134697   9.869   5.042   1.430 -1.2139  1.1745 -0.5137
 9364SOL    HW234698   9.811   5.161   1.504 -2.1674  0.0102  0.6601
 9365SOL     OW34699   6.717  10.498  10.974  0.0137 -0.2353  0.0214
 9365SOL    HW134700   6.772  10.495  11.052 -1.0694 -1.5604  0.7659
 9365SOL    HW234701   6.634  10.459  11.001 -0.6979  0.0926 -1.5592
 9366SOL     OW34702   3.073   6.924   0.035  0.5466 -0.2884  0.5674
 9366SOL    HW134703   2.996   6.960  -0.010  0.7461 -0.2353  0.2602
 9366SOL    HW234704   3.039   6.851   0.086  0.3301 -0.4421  0.2128
 9367SOL     OW34705   0.453   6.001  10.442  0.6855  0.2013  0.0009
 9367SOL    HW134706   0.402   5.921  10.454  1.3927 -0.3547 -0.6402
 9367SOL    HW234707   0.448   6.045  10.527  1.0034 -0.9402  0.6340
 9368SOL     OW34708   1.351   7.568   4.034 -0.3047 -0.2897 -0.2881
 9368SOL    HW134709   1.350   7.505   3.961  2.6975 -0.3767 -0.3772
 9368SOL    HW234710   1.293   7.530   4.099 -2.0574 -0.8659 -2.0640
 9369SOL     OW34711   5.063  12.427  12.250 -0.5596 -0.4503  0.5729
 9369SOL    HW134712   5.155  12.453  12.258 -1.3292  2.3290  1.2360
 9369SOL    HW234713   5.066  12.343  12.203  2.2028  0.4288 -1.0294
 9370SOL     OW34714   3.063   6.624   6.204 -0.1321 -0.3835 -0.2208
 9370SOL    HW134715   2.981   6.670   6.183 -0.6029 -0.6918  0.8925
 9370SOL    HW234716   3.036   6.555   6.264  0.5896 -1.9838 -1.6494
 9371SOL     OW34717   8.754   5.861  11.947  0.0604 -0.6092  0.0598
 9371SOL    HW134718   8.782   5.794  12.010  0.5827 -0.5397 -0.0910
 9371SOL    HW234719   8.685   5.909  11.992  1.9147  0.8822  1.5195
 9372SOL     OW34720   5.882  10.046   4.900  0.1627  0.3103 -0.5345
 9372SOL    HW134721   5.946  10.014   4.838 -1.1314  1.2828 -2.4817
 9372SOL    HW234722   5.847   9.967   4.942  1.8475 -0.2832 -0.1642
 9373SOL     OW34723  11.924  10.693   4.165  0.1485 -0.1091 -0.2172
 9373SOL    HW134724  11.843  10.741   4.178  0.9547  0.9997  0.9564
 9373SOL    HW234725  11.925  10.628   4.234  0.9206  0.8467  0.7021
 9374SOL     OW34726   7.972  11.744   2.585 -0.4858  0.2041  0.1008
 9374SOL    HW134727   7.959  11.813   2.650 -1.9499 -0.3356  0.4122
 9374SOL    HW234728   7.923  11.669   2.619 -1.2315 -0.1114 -1.5957
 9375SOL     OW34729   5.053   3.680   7.053  0.5062  0.2039 -0.8220
 9375SOL    HW134730   5.043   3.624   7.130  0.4224  0.1143 -0.8977
 9375SOL    HW234731   5.137   3.653   7.015  2.0546  2.2521  0.8792
 9376SOL     OW34732   0.873  11.456   4.192 -0.7699 -0.0366 -0.0545
 9376SOL    HW134733   0.854  11.539   4.237 -0.8244 -1.0578  1.9473
 9376SOL    HW234734   0.923  11.482   4.115 -1.4323  1.9092  0.1009
 9377SOL     OW34735   8.263  12.040   5.404  0.2984 -0.1768 -0.7027
 9377SOL    HW134736   8.344  11.994   5.382  0.0796 -0.5266 -0.7938
 9377SOL    HW234737   8.195  11.990   5.358 -0.2495 -1.2689  1.2147
 9378SOL     OW34738  10.890   7.761   6.587 -0.1835  0.2261 -0.0363
 9378SOL    HW134739  10.806   7.718   6.601  0.5729 -1.1755  0.4916
 9378SOL    HW234740  10.915   7.794   6.673  0.2328 -0.2166  0.0198
 9379SOL     OW34741   8.493  10.398   1.140  0.8992  0.2182 -0.4101
 9379SOL    HW134742   8.535  10.478   1.171 -0.1744  0.9966 -0.9069
 9379SOL    HW234743   8.428  10.377   1.207  1.8229 -0.8027  0.1990
 9380SOL     OW34744   0.576   0.991   9.036  0.4137  0.3687  0.8002
 9380SOL    HW134745   0.630   1.025   8.966  1.3693  0.3382  1.5044
 9380SOL    HW234746   0.608   0.901   9.050  1.7202  1.0623  2.6877
 9381SOL     OW34747  10.212   5.085  11.734 -0.2922  0.1481  0.3584
 9381SOL    HW134748  10.151   5.098  11.661 -0.4771  1.6458  0.7565
 9381SOL    HW234749  10.183   5.003  11.774 -1.5637  0.4161  0.0544
 9382SOL     OW34750  12.582  10.221   1.033  0.0934  0.3831  0.2376
 9382SOL    HW134751  12.570  10.235   0.939 -1.3139  0.3102  0.3798
 9382SOL    HW234752  12.585  10.126   1.044  0.8531  0.3985  0.2140
 9383SOL     OW34753   1.727   5.400   7.926 -0.2173 -0.2650 -0.3910
 9383SOL    HW134754   1.709   5.353   7.845  1.7480  0.3981 -1.2641
 9383SOL    HW234755   1.772   5.336   7.981  1.0785  0.0840 -0.9935
 9384SOL     OW34756   4.086   7.236   4.708 -0.0461  0.0182 -0.0453
 9384SOL    HW134757   4.037   7.275   4.635  1.8789 -1.0681 -2.0185
 9384SOL    HW234758   4.110   7.311   4.762 -0.2822  1.0510 -1.3128
 9385SOL     OW34759  11.781   7.802   4.750  0.5650 -0.0857  0.2230
 9385SOL    HW134760  11.788   7.720   4.797 -2.4400  0.5785  2.0914
 9385SOL    HW234761  11.712   7.787   4.685 -0.5833  1.0851  1.1091
 9386SOL     OW34762   3.911  10.615   7.594  0.1440  0.7057 -0.1570
 9386SOL    HW134763   3.988  10.663   7.564 -0.6431  1.8458 -0.4137
 9386SOL    HW234764   3.881  10.662   7.671  0.7020 -0.7688  1.0090
 9387SOL     OW34765   2.714  12.210   4.008 -0.3871 -0.5419 -0.4051
 9387SOL    HW134766   2.785  12.148   4.028 -0.5639 -0.1544  1.6986
 9387SOL    HW234767   2.699  12.200   3.914 -0.3136 -3.5782 -0.2114
 9388SOL     OW34768   5.161   6.867   5.775 -0.0344  0.2410 -0.0347
 9388SOL    HW134769   5.100   6.932   5.741  0.6709  1.0564  0.2143
 9388SOL    HW234770   5.132   6.784   5.738 -0.6251  0.7822 -0.7960
 9389SOL     OW34771  11.554  11.220   7.729 -0.1142  0.5819 -0.4984
 9389SOL    HW134772  11.532  11.267   7.810  0.9844  0.4898 -0.1365
 9389SOL    HW234773  11.619  11.155   7.756  0.2692  0.5474 -1.4609
 9390SOL     OW34774   2.212   6.415   9.983 -0.5235 -0.3995  0.4079
 9390SOL    HW134775   2.198   6.373   9.899  0.4926  0.8490 -0.4327
 9390SOL    HW234776   2.126   6.450  10.007 -0.6613 -0.0549 -0.5317
 9391SOL     OW34777  10.152   8.880   0.128  0.6787  0.8558 -0.3762
 9391SOL    HW134778  10.152   8.798   0.079  1.5751  0.7717 -0.2577
 9391SOL    HW234779  10.229   8.927   0.096  0.3817  1.4901 -0.1793
 9392SOL     OW34780  10.957   8.640  12.473  0.1371  0.4130 -0.3114
 9392SOL    HW134781  10.976   8.627  12.380 -0.3742 -0.7956 -0.2632
 9392SOL    HW234782  10.937   8.733  12.481 -1.4233  0.2345 -1.7230
 9393SOL     OW34783   3.057  12.225   7.749  0.4142 -0.0867  0.5804
 9393SOL    HW134784   3.030  12.280   7.675  2.2905  0.7355  0.4320
 9393SOL    HW234785   3.148  12.251   7.765  0.8465 -2.0504  1.5597
 9394SOL     OW34786   5.259  12.468   3.602  0.2073  0.3041 -0.1041
 9394SOL    HW134787   5.330  12.471   3.538  2.6557  0.8666  2.4750
 9394SOL    HW234788   5.216  12.384   3.586  1.4131 -0.0359 -1.7631
 9395SOL     OW34789   3.328   0.680   6.125  0.0688  0.2041  0.3406
 9395SOL    HW134790   3.328   0.771   6.094  2.2610  0.6184  1.2923
 9395SOL    HW234791   3.359   0.687   6.216 -1.7758 -1.3364  1.1387
 9396SOL     OW34792  11.817  11.924   3.632 -0.2223 -0.4033 -0.0461
 9396SOL    HW134793  11.912  11.934   3.627 -0.1769 -0.8203 -0.1018
 9396SOL    HW234794  11.783  11.968   3.555 -0.0390 -0.6478 -0.2688
 9397SOL     OW34795   9.473  11.362   8.900  0.0781  0.0744 -0.2080
 9397SOL    HW134796   9.514  11.392   8.981 -0.1604  1.1666 -0.4717
 9397SOL    HW234797   9.537  11.303   8.861 -0.5352 -1.9366  1.6277
 9398SOL     OW34798   8.615  11.510   6.400  0.2604  0.1822  0.0333
 9398SOL    HW134799   8.595  11.603   6.406  1.0999  0.3350  0.6781
 9398SOL    HW234800   8.600  11.476   6.488  1.9037  0.1358  0.3257
 9399SOL     OW34801   7.080   3.530  11.047 -0.1089 -0.4443 -0.3081
 9399SOL    HW134802   7.058   3.603  10.989 -1.9654 -0.9815 -0.3325
 9399SOL    HW234803   7.095   3.456  10.988  2.2224 -0.0524 -0.3151
 9400SOL     OW34804   3.967   9.331   8.742  0.2774  0.1720 -0.6319
 9400SOL    HW134805   4.001   9.245   8.766 -0.9530 -0.0255  0.5169
 9400SOL    HW234806   3.987   9.387   8.817  0.3506  0.6927 -1.0293
 9401SOL     OW34807   9.094   7.772   6.045  0.2018  0.5515 -0.1940
 9401SOL    HW134808   9.093   7.832   6.120 -0.5900  0.0234  0.2434
 9401SOL    HW234809   9.001   7.755   6.027  0.3903 -1.2664  0.3077
 9402SOL     OW34810  11.103   7.333   5.425 -0.5791 -0.2881  0.0247
 9402SOL    HW134811  11.104   7.394   5.498 -2.7714 -0.3084  0.1356
 9402SOL    HW234812  11.195   7.314   5.408  0.0275  0.7108  1.9301
 9403SOL     OW34813  11.551   0.152  11.331 -0.0843  0.1549 -0.3281
 9403SOL    HW134814  11.530   0.115  11.245 -0.4477  1.4108 -0.8029
 9403SOL    HW234815  11.475   0.133  11.385 -0.1850  0.0305 -0.5113
 9404SOL     OW34816   4.525   2.002   4.777 -0.3479 -0.3287 -0.1267
 9404SOL    HW134817   4.537   2.029   4.868 -1.2594 -1.1821  0.2557
 9404SOL    HW234818   4.558   1.913   4.773  1.4205  0.3256 -1.0855
 9405SOL     OW34819   4.181  12.569   1.619 -0.3688  0.2193 -0.1359
 9405SOL    HW134820   4.119  12.606   1.682  0.3465  1.4511 -0.1332
 9405SOL    HW234821   4.264  12.611   1.639  0.0363  0.0599 -1.4078
 9406SOL     OW34822   1.741  11.458   7.181 -0.4607  0.1982 -0.1545
 9406SOL    HW134823   1.764  11.534   7.127 -1.8704  0.5604 -0.3076
 9406SOL    HW234824   1.645  11.454   7.176 -0.3509 -3.1453 -2.2481
 9407SOL     OW34825   5.646   6.198  11.834 -0.1728  0.0181  0.8610
 9407SOL    HW134826   5.589   6.121  11.834 -1.2658  0.7969  1.2575
 9407SOL    HW234827   5.664   6.216  11.742  0.4187 -0.9389  0.7823
 9408SOL     OW34828   9.402  11.427  10.434  0.5949 -0.2819 -0.6943
 9408SOL    HW134829   9.485  11.409  10.479  1.2099  1.0392 -1.2530
 9408SOL    HW234830   9.419  11.505  10.381 -1.0292  0.0662 -0.7747
 9409SOL     OW34831   2.918   5.787   7.366  0.3754  0.1910 -0.0617
 9409SOL    HW134832   2.892   5.779   7.274  1.0599  2.5495 -0.5412
 9409SOL    HW234833   2.836   5.784   7.414 -0.2256  1.2081 -0.9823
 9410SOL     OW34834   9.764  12.171   2.383 -0.5224 -0.2649 -0.2764
 9410SOL    HW134835   9.694  12.124   2.338 -0.9327 -1.6754  1.6634
 9410SOL    HW234836   9.793  12.237   2.321 -2.9269 -0.2522 -1.5152
 9411SOL     OW34837   5.058   5.644  11.560 -0.0733 -0.3509 -0.1850
 9411SOL    HW134838   5.096   5.567  11.517  0.8514 -0.3234  0.5509
 9411SOL    HW234839   5.021   5.610  11.642 -0.9333 -0.2366 -0.5132
 9412SOL     OW34840  11.121   3.573   5.407  0.9788 -0.2482  0.6002
 9412SOL    HW134841  11.036   3.549   5.369  0.3225  0.6503  1.4254
 9412SOL    HW234842  11.123   3.669   5.402  1.7011 -0.2296  1.0795
 9413SOL     OW34843   7.002   7.909   2.657  0.7027  0.7326 -0.2471
 9413SOL    HW134844   7.068   7.877   2.595 -0.6210 -0.2452 -1.2212
 9413SOL    HW234845   6.920   7.902   2.610 -0.0356  2.7945  0.6106
 9414SOL     OW34846   0.731  11.801   8.953 -0.1192  0.0730 -0.1792
 9414SOL    HW134847   0.687  11.720   8.977  0.4503 -0.5793 -1.2782
 9414SOL    HW234848   0.754  11.841   9.037 -1.4405 -0.3053  0.3887
 9415SOL     OW34849   8.954   3.552   5.075 -0.1389  0.1839  0.2089
 9415SOL    HW134850   8.953   3.646   5.060  0.7198  0.1790  0.0456
 9415SOL    HW234851   8.963   3.542   5.169 -2.3509  0.2343  0.4772
 9416SOL     OW34852   4.820  12.553   3.348 -0.2898 -0.3602  0.2036
 9416SOL    HW134853   4.879  12.618   3.385  0.2109 -0.0394 -1.1015
 9416SOL    HW234854   4.769  12.602   3.283 -1.8480 -0.6769  1.1328
 9417SOL     OW34855   0.859   1.887   4.604  0.1898 -0.0190  0.3592
 9417SOL    HW134856   0.947   1.852   4.585 -0.3336 -0.8207 -0.7627
 9417SOL    HW234857   0.817   1.891   4.518 -0.4497  1.5977  0.7152
 9418SOL     OW34858   7.872   9.151   3.898  0.0041 -0.0354  0.6101
 9418SOL    HW134859   7.913   9.066   3.883 -1.8119 -0.6728 -1.1127
 9418SOL    HW234860   7.825   9.141   3.981  0.1323 -0.5732  0.6183
 9419SOL     OW34861   2.700   1.140  12.228  0.1348 -0.0389 -0.1746
 9419SOL    HW134862   2.732   1.219  12.184  1.4734 -0.4502  0.0188
 9419SOL    HW234863   2.725   1.068  12.170  1.8070 -0.5799  1.1317
 9420SOL     OW34864   4.268   1.029   9.728  0.3524 -0.2032 -0.3309
 9420SOL    HW134865   4.294   0.946   9.768 -0.7636  0.7247  2.5699
 9420SOL    HW234866   4.195   1.060   9.781  1.6625  3.3758 -0.3151
 9421SOL     OW34867  10.675   8.871   7.923 -0.2915  0.4255 -0.2897
 9421SOL    HW134868  10.718   8.827   7.996 -0.6446 -0.9313 -0.8687
 9421SOL    HW234869  10.582   8.862   7.940 -0.3731  1.5268 -0.0997
 9422SOL     OW34870   4.942  11.037   5.064 -0.9884  0.4187  0.0995
 9422SOL    HW134871   4.978  10.950   5.079 -2.7761 -0.1735  1.3818
 9422SOL    HW234872   5.012  11.086   5.021  0.2481 -1.4753 -0.1444
 9423SOL     OW34873   1.499   6.681   9.045 -0.6524  0.1293 -0.0176
 9423SOL    HW134874   1.442   6.631   8.985 -1.1592  1.9933 -1.1979
 9423SOL    HW234875   1.464   6.663   9.132 -1.9767 -0.1429 -0.5780
 9424SOL     OW34876  12.229   8.996   8.969 -0.2413  0.1067 -0.2504
 9424SOL    HW134877  12.155   9.031   8.921 -0.1385 -0.3122 -0.7196
 9424SOL    HW234878  12.191   8.928   9.025 -0.2590  0.1155 -0.2525
 9425SOL     OW34879   1.243   6.663   7.668 -0.4645 -0.3083 -0.2635
 9425SOL    HW134880   1.197   6.586   7.702 -0.7994 -0.8038 -1.7486
 9425SOL    HW234881   1.182   6.735   7.682 -0.8200 -0.5992 -0.2828
 9426SOL     OW34882   7.776  10.566   0.932  0.5749  0.1691 -0.1349
 9426SOL    HW134883   7.734  10.521   1.006 -0.8862 -0.3365 -1.2406
 9426SOL    HW234884   7.869  10.543   0.941  0.2433 -0.9072  0.8317
 9427SOL     OW34885  11.904  11.561   8.013 -0.3283  0.2632  0.3460
 9427SOL    HW134886  11.812  11.576   7.989 -1.0035 -2.5121  0.7905
 9427SOL    HW234887  11.901  11.546   8.107  0.1079 -2.4042  0.0033
 9428SOL     OW34888   2.124   3.379   3.981 -0.1471  0.5307 -0.1116
 9428SOL    HW134889   2.048   3.346   4.028  0.2806  0.7909  0.7926
 9428SOL    HW234890   2.159   3.448   4.037  1.8422 -0.8296  0.4436
 9429SOL     OW34891   6.994   7.688   8.549 -0.0994  0.2503 -0.2858
 9429SOL    HW134892   6.975   7.698   8.642  0.0594  0.5785 -0.2852
 9429SOL    HW234893   7.090   7.682   8.545 -0.1209 -0.0250 -0.4054
 9430SOL     OW34894   5.471   5.727   3.869 -0.1414  0.2622  0.0683
 9430SOL    HW134895   5.513   5.663   3.926 -1.0213 -1.5291 -1.2061
 9430SOL    HW234896   5.378   5.705   3.872 -0.0360 -1.8454 -4.1241
 9431SOL     OW34897   6.273   6.521  10.717 -0.0180 -0.3228 -0.5118
 9431SOL    HW134898   6.185   6.548  10.747  0.1407 -0.7721  0.3849
 9431SOL    HW234899   6.320   6.499  10.797  1.3914  1.2398 -0.8393
 9432SOL     OW34900   4.266   1.421   2.815  0.3510 -0.6096 -0.5508
 9432SOL    HW134901   4.355   1.414   2.852  0.3055 -0.1213 -0.3433
 9432SOL    HW234902   4.208   1.395   2.887  0.3414 -1.3982 -0.8325
 9433SOL     OW34903   5.900   3.979  11.193 -0.6606  0.2838 -0.2681
 9433SOL    HW134904   5.831   4.018  11.246  0.8613  1.5508  0.8719
 9433SOL    HW234905   5.981   4.014  11.230  0.6502 -1.7595 -1.0444
 9434SOL     OW34906   7.957   2.207   6.556  0.0919  0.2206 -0.1449
 9434SOL    HW134907   7.987   2.276   6.614 -0.9117  0.3736  0.2194
 9434SOL    HW234908   8.035   2.180   6.507  0.8799  0.3282  1.0153
 9435SOL     OW34909  12.413   1.697   2.485  0.0930 -0.4253 -0.0246
 9435SOL    HW134910  12.400   1.785   2.449 -1.9857  0.1872  1.9709
 9435SOL    HW234911  12.506   1.694   2.508  0.5022  0.7044 -1.3799
 9436SOL     OW34912   9.287   7.868  12.291  0.6695  0.1520 -0.1867
 9436SOL    HW134913   9.290   7.824  12.206  0.8477  1.1854 -0.7371
 9436SOL    HW234914   9.296   7.961  12.270 -1.4823  0.6360  0.7744
 9437SOL     OW34915  11.508   2.141   4.022  0.8981  0.0676  0.6929
 9437SOL    HW134916  11.538   2.062   4.067  1.9519  0.5834  0.9286
 9437SOL    HW234917  11.570   2.209   4.050  0.1533  0.9195  0.3005
 9438SOL     OW34918   5.923   5.715   4.463  0.0435  0.1379  0.0500
 9438SOL    HW134919   5.952   5.749   4.547  1.8040 -0.5594 -0.2406
 9438SOL    HW234920   5.991   5.653   4.437 -0.6152  0.1098 -1.7468
 9439SOL     OW34921   3.802   5.961   0.136  0.4131 -0.0077 -0.2473
 9439SOL    HW134922   3.863   6.021   0.092  0.8722 -0.2132  0.0952
 9439SOL    HW234923   3.825   5.969   0.229 -1.4949  1.5164  0.1501
 9440SOL     OW34924  11.834   3.886   9.054 -0.2032 -0.3109  0.0416
 9440SOL    HW134925  11.801   3.799   9.080 -1.0647 -1.0759 -3.1285
 9440SOL    HW234926  11.926   3.871   9.032 -0.0750 -0.1859  0.5007
 9441SOL     OW34927   9.760   8.346   1.164  0.4676 -0.1835  0.2470
 9441SOL    HW134928   9.796   8.322   1.079 -1.2132 -0.7178 -0.3499
 9441SOL    HW234929   9.812   8.296   1.227  0.9638 -0.6847 -0.5497
 9442SOL     OW34930  12.070  12.584   6.625 -0.2891  0.0540 -0.0760
 9442SOL    HW134931  12.138  12.593   6.558  0.8138 -1.1026  0.8639
 9442SOL    HW234932  11.988  12.593   6.576  0.5065  0.9819 -1.2998
 9443SOL     OW34933   1.589   7.778   3.231 -0.2548 -0.0030  0.1642
 9443SOL    HW134934   1.543   7.802   3.150  2.4306  1.1201 -1.1493
 9443SOL    HW234935   1.536   7.708   3.268 -1.8793 -0.2285 -2.3000
 9444SOL     OW34936  10.110   0.009   1.872 -0.4430 -0.6884  0.2333
 9444SOL    HW134937  10.168  -0.062   1.843 -0.9694 -1.4186  0.9221
 9444SOL    HW234938  10.170   0.080   1.896  0.1154 -1.0186 -0.1462
 9445SOL     OW34939   7.800   9.884   4.174  0.4047  0.8274  0.3388
 9445SOL    HW134940   7.742   9.814   4.144  0.2244  0.3518  1.7460
 9445SOL    HW234941   7.820   9.933   4.094  0.3356 -0.6609 -0.6451
 9446SOL     OW34942   5.490  12.144   0.878  0.2553 -0.0437 -0.6352
 9446SOL    HW134943   5.440  12.066   0.853 -1.7356  0.0536  2.4681
 9446SOL    HW234944   5.561  12.110   0.933  2.5491  0.0184 -3.3528
 9447SOL     OW34945   9.482   4.377   0.282  0.0780  0.2401 -0.1842
 9447SOL    HW134946   9.405   4.376   0.225  0.1028 -1.7544 -0.2722
 9447SOL    HW234947   9.507   4.469   0.288 -1.8551  0.8490 -0.7590
 9448SOL     OW34948   7.746   2.884  10.435 -0.3208 -0.5227 -0.1595
 9448SOL    HW134949   7.663   2.868  10.389 -0.0037  1.7492 -1.7354
 9448SOL    HW234950   7.814   2.861  10.371  0.1712  0.6925 -0.1144
 9449SOL     OW34951   6.050   6.096   5.210 -0.2195 -0.1732 -0.6046
 9449SOL    HW134952   6.040   6.028   5.144  0.4400 -0.8013 -0.0716
 9449SOL    HW234953   6.124   6.149   5.179 -0.2025 -0.1897 -0.5923
 9450SOL     OW34954   7.643   9.324   5.242 -0.3959 -0.2870  0.7566
 9450SOL    HW134955   7.594   9.378   5.180  0.9899 -0.5095 -0.5968
 9450SOL    HW234956   7.634   9.369   5.326  0.8350  2.1731 -0.3349
 9451SOL     OW34957   5.786  12.052   8.839  0.5199 -0.3619 -0.0749
 9451SOL    HW134958   5.702  12.097   8.849  0.8689  0.4563 -0.6982
 9451SOL    HW234959   5.850  12.123   8.833  0.9885 -0.8881 -2.0119
 9452SOL     OW34960   7.554  10.797   6.238  0.1411  0.4836  0.5354
 9452SOL    HW134961   7.572  10.763   6.150  1.4019 -0.1357  1.0025
 9452SOL    HW234962   7.470  10.758   6.262  0.4210 -0.4175  0.1228
 9453SOL     OW34963   9.475   5.760   6.542 -0.2465  0.1210  0.4052
 9453SOL    HW134964   9.439   5.777   6.455 -0.7902 -0.0106  0.5980
 9453SOL    HW234965   9.416   5.694   6.580 -0.3952  0.6389  1.1078
 9454SOL     OW34966   6.745   1.528  11.454  0.3551  0.0218  0.7847
 9454SOL    HW134967   6.838   1.541  11.436  0.1183 -0.0502 -0.5745
 9454SOL    HW234968   6.743   1.457  11.518  1.1833 -1.5602 -0.8451
 9455SOL     OW34969   2.257   4.906   2.935  0.2546 -0.6456 -0.3188
 9455SOL    HW134970   2.168   4.911   2.969  0.2536 -1.5192 -0.1734
 9455SOL    HW234971   2.250   4.939   2.845 -0.5298 -2.1905 -0.8541
 9456SOL     OW34972  10.932   9.966   2.730  0.5953  0.1992 -0.4710
 9456SOL    HW134973  10.993  10.034   2.700  2.2921 -0.4522  1.2891
 9456SOL    HW234974  10.913   9.990   2.820 -0.1905 -0.7054 -0.3844
 9457SOL     OW34975   6.020   3.063   0.293 -0.2370 -0.0357  0.6635
 9457SOL    HW134976   6.083   3.099   0.230  0.2680  1.4212  1.9344
 9457SOL    HW234977   5.936   3.064   0.247  0.2129  0.4687 -0.1625
 9458SOL     OW34978   2.117   1.567   1.481 -0.3759 -0.2163 -0.0810
 9458SOL    HW134979   2.030   1.607   1.487 -0.5163 -0.4422 -0.5577
 9458SOL    HW234980   2.125   1.543   1.389 -0.7576 -2.3066  0.3876
 9459SOL     OW34981  12.623   5.127   4.049 -1.0785 -0.0620 -0.4655
 9459SOL    HW134982  12.680   5.051   4.046  1.5110  1.5753  2.2346
 9459SOL    HW234983  12.547   5.098   4.099 -0.5014 -1.0960 -0.1548
 9460SOL     OW34984   8.531   1.856   5.817 -0.4647  0.1020  0.1914
 9460SOL    HW134985   8.495   1.778   5.777 -0.2838 -0.1191  0.4525
 9460SOL    HW234986   8.555   1.913   5.744 -1.3458  0.2575  0.0182
 9461SOL     OW34987   6.326   2.696   5.666  0.1961 -0.1317 -0.1983
 9461SOL    HW134988   6.235   2.670   5.658  0.1058  0.4524 -1.2314
 9461SOL    HW234989   6.355   2.714   5.576  1.5918 -1.1578  0.0061
 9462SOL     OW34990  11.065   8.934   9.440 -0.0205  0.4134 -0.4546
 9462SOL    HW134991  11.022   9.020   9.436  0.2275  0.7428  2.1852
 9462SOL    HW234992  10.994   8.872   9.423 -0.3523  1.0798 -1.6747
 9463SOL     OW34993   0.000   1.211  12.226  0.4164  0.7373 -0.1455
 9463SOL    HW134994   0.002   1.266  12.148  0.2795  0.1657 -0.5634
 9463SOL    HW234995  -0.038   1.129  12.196 -3.0457  1.6686  1.2936
 9464SOL     OW34996  10.257  11.410   6.000  0.9010  0.6047 -0.0906
 9464SOL    HW134997  10.334  11.413   6.057  0.4956 -1.0442  0.6048
 9464SOL    HW234998  10.284  11.357   5.925  0.9579  1.4753 -0.7006
 9465SOL     OW34999   4.881  10.427   6.941 -0.4952  0.1348 -0.5387
 9465SOL    HW135000   4.956  10.407   6.886 -1.1434 -1.0581 -1.0212
 9465SOL    HW235001   4.811  10.450   6.879 -1.5514 -2.2811 -0.3422
 9466SOL     OW35002   5.950   7.130   7.292  0.1976  0.4853 -0.1140
 9466SOL    HW135003   5.896   7.051   7.287  0.2162  0.3775  1.0499
 9466SOL    HW235004   5.903   7.186   7.354  0.5689  1.0821 -0.3740
 9467SOL     OW35005   5.592   1.912  12.275 -0.4924 -0.4393 -0.0867
 9467SOL    HW135006   5.626   1.889  12.188 -0.7102  0.1535 -0.3355
 9467SOL    HW235007   5.615   2.005  12.285  1.2454 -0.9578  1.2946
 9468SOL     OW35008   6.293   2.610   5.092 -0.4171 -0.2463  0.5676
 9468SOL    HW135009   6.310   2.703   5.111 -0.4899 -0.4883  1.9179
 9468SOL    HW235010   6.355   2.588   5.023  0.3796  0.5298  1.0180
 9469SOL     OW35011  10.263  10.086   3.726 -0.5577  0.2443 -0.2342
 9469SOL    HW135012  10.312  10.121   3.652  0.1710 -0.2938 -0.0231
 9469SOL    HW235013  10.235  10.163   3.775  3.1491  0.6622  1.6227
 9470SOL     OW35014   7.160   5.691   0.383  0.2215 -0.1445  0.1284
 9470SOL    HW135015   7.201   5.607   0.404  1.3894 -0.1137 -1.8026
 9470SOL    HW235016   7.227   5.756   0.402 -0.2124  0.2485  0.3424
 9471SOL     OW35017  11.875  11.380   9.225  0.0309 -0.0398 -0.2228
 9471SOL    HW135018  11.874  11.475   9.231 -0.9338 -0.0759  0.5153
 9471SOL    HW235019  11.934  11.360   9.152  1.3433  1.0615  0.5059
 9472SOL     OW35020   6.689  10.702   2.487  0.0902 -0.2662  0.5158
 9472SOL    HW135021   6.604  10.703   2.444  0.4613  1.3468 -0.2455
 9472SOL    HW235022   6.672  10.661   2.572 -1.1892 -1.0450 -0.0772
 9473SOL     OW35023   3.665   4.511   5.527  0.4673  0.1385 -0.2109
 9473SOL    HW135024   3.584   4.462   5.544 -0.6442  2.2476  0.9571
 9473SOL    HW235025   3.727   4.444   5.498 -1.2628 -1.7818  0.2286
 9474SOL     OW35026   3.667   0.577   5.084  0.2414 -0.3148 -0.3321
 9474SOL    HW135027   3.704   0.502   5.132  0.4261  1.0119  1.7420
 9474SOL    HW235028   3.574   0.575   5.105  0.5692  1.2195  1.6033
 9475SOL     OW35029   5.607   1.307   8.459 -0.3225 -0.8472 -0.1030
 9475SOL    HW135030   5.664   1.272   8.528  0.8354 -1.1827 -1.1686
 9475SOL    HW235031   5.618   1.402   8.464 -2.3067 -0.6652  1.8377
 9476SOL     OW35032  10.353   1.627   2.350  0.2352 -0.1641 -0.1403
 9476SOL    HW135033  10.300   1.549   2.332 -0.1705  0.2022 -0.5734
 9476SOL    HW235034  10.441   1.604   2.322 -0.0928 -0.1212 -1.2421
 9477SOL     OW35035  10.270   8.967  10.164 -0.0657  0.2104  0.4513
 9477SOL    HW135036  10.211   8.966  10.239 -0.6695  0.5569 -0.0078
 9477SOL    HW235037  10.250   8.885  10.117 -0.4132  0.4758  0.1273
 9478SOL     OW35038   1.911   5.043   4.660 -0.3021  0.7485 -0.2328
 9478SOL    HW135039   1.822   5.060   4.691 -0.4439  1.5064 -1.0288
 9478SOL    HW235040   1.948   5.129   4.641  0.0521  0.3598 -1.3926
 9479SOL     OW35041   0.803   1.431   6.996  0.4777  0.2948  0.3807
 9479SOL    HW135042   0.716   1.415   7.032  0.4482 -0.4464 -0.0068
 9479SOL    HW235043   0.862   1.381   7.052  0.4614 -0.6245 -0.3996
 9480SOL     OW35044   5.517   8.777   5.470  0.2967 -0.1293  0.1590
 9480SOL    HW135045   5.438   8.727   5.490 -1.0048  2.2520  1.4850
 9480SOL    HW235046   5.524   8.774   5.374 -1.3942 -0.4034  0.0160
 9481SOL     OW35047   6.330   0.182   6.092  0.4435  0.2894  0.1381
 9481SOL    HW135048   6.331   0.133   6.174 -2.6868 -0.9108 -0.3728
 9481SOL    HW235049   6.368   0.122   6.028  2.7526  1.1711  0.6142
 9482SOL     OW35050   1.347   0.757   7.533  0.6355 -0.0631  0.0009
 9482SOL    HW135051   1.363   0.755   7.438  0.2717 -1.6343 -0.0640
 9482SOL    HW235052   1.346   0.850   7.555 -2.3668  0.5553 -2.0828
 9483SOL     OW35053   0.420   1.080   1.090  0.3122 -0.0740 -0.8134
 9483SOL    HW135054   0.429   1.174   1.077 -0.5914  0.1201 -0.1365
 9483SOL    HW235055   0.495   1.042   1.044  0.8028  0.9827 -0.9110
 9484SOL     OW35056   0.224   2.048   9.251 -0.0344  0.7608 -0.1145
 9484SOL    HW135057   0.157   2.103   9.210 -0.3363 -0.3223 -1.1295
 9484SOL    HW235058   0.173   1.978   9.293  0.4227  0.2358 -0.4258
 9485SOL     OW35059   5.660   3.635   2.979 -0.2871  0.2065  0.3829
 9485SOL    HW135060   5.658   3.561   3.041  0.9532  0.2767  0.5346
 9485SOL    HW235061   5.642   3.595   2.894  2.4592 -0.7148  0.1160
 9486SOL     OW35062   7.548  10.330  11.931 -0.1114  0.8294  0.3147
 9486SOL    HW135063   7.465  10.286  11.952 -0.4070  1.4653  0.5127
 9486SOL    HW235064   7.600  10.322  12.011  1.1540 -2.0021 -0.6568
 9487SOL     OW35065   0.667   3.774   8.460 -0.5509 -0.0384  0.5325
 9487SOL    HW135066   0.644   3.686   8.490 -1.2287 -0.1002 -0.1567
 9487SOL    HW235067   0.648   3.773   8.367 -0.2029  0.7307  0.4503
 9488SOL     OW35068   1.374  11.334  12.711 -0.2703 -0.3125 -0.5564
 9488SOL    HW135069   1.433  11.259  12.723 -2.1069 -1.8119 -0.3800
 9488SOL    HW235070   1.380  11.354  12.618  0.2630 -0.6604 -0.6030
 9489SOL     OW35071   7.315   1.704   8.986  0.5907  0.1351 -0.6284
 9489SOL    HW135072   7.348   1.768   9.050 -1.9232  0.3487  0.5864
 9489SOL    HW235073   7.250   1.653   9.035 -0.1992 -0.8239 -2.5855
 9490SOL     OW35074  12.553   3.485   0.785 -0.0259  0.1486  0.5006
 9490SOL    HW135075  12.593   3.564   0.749  0.9933 -0.4246  0.3555
 9490SOL    HW235076  12.581   3.415   0.727 -2.7612 -0.0608 -0.7185
 9491SOL     OW35077   9.084  11.775   9.814 -0.1405  0.8021 -0.5299
 9491SOL    HW135078   9.044  11.704   9.765 -1.8299  1.4077 -0.1082
 9491SOL    HW235079   9.154  11.734   9.865 -0.2508 -0.3111 -1.2552
 9492SOL     OW35080   1.063   8.784   6.081 -0.1208  0.2263 -0.0625
 9492SOL    HW135081   1.144   8.803   6.128 -0.3425  0.6233  0.1686
 9492SOL    HW235082   1.035   8.870   6.047  0.2966 -0.1191 -1.3551
 9493SOL     OW35083   1.763  10.512   9.197 -0.8013  0.2507  0.7847
 9493SOL    HW135084   1.808  10.596   9.206  0.8917 -0.4689 -0.3864
 9493SOL    HW235085   1.787  10.481   9.110 -1.5370 -1.3599  1.1107
 9494SOL     OW35086   7.914  10.320   9.850  0.3552  0.0093 -0.6889
 9494SOL    HW135087   7.930  10.379   9.776  1.3843  0.5280 -0.0759
 9494SOL    HW235088   7.949  10.236   9.821 -0.6935 -0.1999 -1.3884
 9495SOL     OW35089   5.683   1.645   9.930 -0.3930  0.0706 -0.0831
 9495SOL    HW135090   5.666   1.594   9.851  1.8331 -0.2036 -0.4584
 9495SOL    HW235091   5.609   1.704   9.937 -1.5913 -1.2150 -1.2892
 9496SOL     OW35092   8.782  12.709   9.464 -0.0286 -0.3784 -0.6357
 9496SOL    HW135093   8.695  12.748   9.472  0.5110  0.6585  0.4494
 9496SOL    HW235094   8.766  12.615   9.458 -1.1611 -0.4934  2.4268
 9497SOL     OW35095   4.896   4.285   2.206  0.6177 -0.6812  0.1745
 9497SOL    HW135096   4.814   4.333   2.212  0.1876 -1.1110 -1.7025
 9497SOL    HW235097   4.959   4.350   2.174  0.1165 -1.2066 -2.0196
 9498SOL     OW35098  12.113  11.943   3.327  0.4502 -0.4937 -0.2316
 9498SOL    HW135099  12.066  11.937   3.410  0.0008 -2.6057 -0.5672
 9498SOL    HW235100  12.067  12.010   3.277  0.3709  0.3908  0.9945
 9499SOL     OW35101   1.901   3.774   3.884 -0.2202  0.1413  0.2977
 9499SOL    HW135102   1.970   3.828   3.844 -2.6713  3.4931  0.1375
 9499SOL    HW235103   1.856   3.734   3.811 -0.1910  0.2940  0.1947
 9500SOL     OW35104   4.540  12.085   1.888  0.1454  0.5782  0.0378
 9500SOL    HW135105   4.504  12.015   1.942  1.8678  0.4559  1.1107
 9500SOL    HW235106   4.532  12.052   1.798 -0.3862 -0.3541  0.4091
 9501SOL     OW35107  11.518   9.414   8.057  0.1414 -0.3617  0.4062
 9501SOL    HW135108  11.519   9.350   8.129  0.6418  1.3580  1.9939
 9501SOL    HW235109  11.461   9.484   8.088 -1.1013 -0.3679 -1.6676
 9502SOL     OW35110  11.163   1.402   8.997 -0.4682  0.1791 -0.1296
 9502SOL    HW135111  11.133   1.317   9.028  1.4686 -0.7157 -0.5445
 9502SOL    HW235112  11.141   1.402   8.904 -0.9766  0.3775 -0.0117
 9503SOL     OW35113   9.695   9.761   8.221 -0.1172 -0.5586  0.3250
 9503SOL    HW135114   9.601   9.759   8.201  0.0623  0.4109 -0.7454
 9503SOL    HW235115   9.715   9.673   8.251 -1.4645 -0.6589  1.0160
 9504SOL     OW35116   7.898  11.483   2.714 -0.2329  0.2036 -0.3023
 9504SOL    HW135117   7.926  11.425   2.643  0.8936 -1.7015  1.5799
 9504SOL    HW235118   7.804  11.468   2.722 -0.2173 -0.2138 -0.8365
 9505SOL     OW35119   9.810   6.746   0.629 -0.0040  0.1542 -0.4577
 9505SOL    HW135120   9.758   6.693   0.689  1.6055 -0.2680  0.6291
 9505SOL    HW235121   9.900   6.715   0.641  0.4928  0.6844 -2.4422
 9506SOL     OW35122   2.693   2.247   0.986 -0.2917 -0.1567  0.0292
 9506SOL    HW135123   2.636   2.279   1.056  0.4433  0.1809  0.4844
 9506SOL    HW235124   2.647   2.170   0.951 -2.1943  1.4357 -1.2181
 9507SOL     OW35125   8.994   8.319   3.639  0.8052 -0.9070 -0.4330
 9507SOL    HW135126   8.998   8.235   3.684  2.0982  0.2059  1.7121
 9507SOL    HW235127   8.901   8.342   3.640  0.5571 -1.8642 -0.1473
 9508SOL     OW35128   7.848   7.167   2.766 -0.3692 -0.0368  0.0462
 9508SOL    HW135129   7.758   7.166   2.798 -1.7745 -0.9496 -3.4660
 9508SOL    HW235130   7.866   7.259   2.746 -1.3964 -0.0978 -1.2799
 9509SOL     OW35131   2.369   7.831   4.544  0.2848 -0.5557  0.1281
 9509SOL    HW135132   2.326   7.814   4.460  2.2600  0.8174 -1.2382
 9509SOL    HW235133   2.305   7.882   4.593 -0.3895 -0.1813 -1.0867
 9510SOL     OW35134   8.713   2.991  11.212 -0.1719  0.0163  0.1778
 9510SOL    HW135135   8.804   3.021  11.219 -0.6341  1.4279  0.6076
 9510SOL    HW235136   8.663   3.072  11.201 -1.2610 -0.8456 -1.4400
 9511SOL     OW35137  11.007   3.940  11.517 -0.0887 -0.5209  0.1405
 9511SOL    HW135138  10.960   3.861  11.543 -1.6575 -0.1237 -1.2888
 9511SOL    HW235139  11.002   3.997  11.594 -2.8226 -0.1537 -0.1791
 9512SOL     OW35140  10.622   4.405  10.326 -0.1936 -0.1474  0.2256
 9512SOL    HW135141  10.676   4.327  10.341 -0.1015 -0.0064  0.6642
 9512SOL    HW235142  10.544   4.372  10.282 -0.1982 -0.5050  0.4941
 9513SOL     OW35143   6.388   4.889   7.300 -0.2816 -0.2796 -0.0497
 9513SOL    HW135144   6.448   4.815   7.292 -1.1405 -1.0193  0.1481
 9513SOL    HW235145   6.301   4.850   7.291 -0.8974  0.3044  2.5346
 9514SOL     OW35146   2.430   1.887   5.999 -0.0167 -0.0812  0.2520
 9514SOL    HW135147   2.514   1.909   5.958 -0.1402  0.5841  0.3496
 9514SOL    HW235148   2.372   1.959   5.975 -0.5056 -0.4418  0.3483
 9515SOL     OW35149   9.359   4.343   0.001 -0.0914 -0.1663 -0.0352
 9515SOL    HW135150   9.297   4.387   0.059  0.6322 -1.0649  1.4961
 9515SOL    HW235151   9.397   4.413  -0.053 -1.0896  0.6321  0.2852
 9516SOL     OW35152   5.390   3.307   7.428 -0.4094 -0.0411 -0.2861
 9516SOL    HW135153   5.310   3.352   7.403 -0.2460 -0.8248 -2.4562
 9516SOL    HW235154   5.460   3.371   7.413 -0.5767  0.5499  1.3386
 9517SOL     OW35155   7.953   4.244   3.726  0.0681  0.1177 -0.4862
 9517SOL    HW135156   7.890   4.174   3.744  0.3515  0.0883  0.4442
 9517SOL    HW235157   7.936   4.310   3.793 -1.0367  1.5485 -2.1198
 9518SOL     OW35158  12.525   9.876  12.620 -0.2104  0.0114 -0.6868
 9518SOL    HW135159  12.483   9.927  12.550  0.8669 -0.4645 -1.7170
 9518SOL    HW235160  12.538   9.790  12.582  0.0307 -0.3790  0.2654
 9519SOL     OW35161   3.894   6.916   2.558  0.5496 -0.5674 -0.0578
 9519SOL    HW135162   3.920   6.825   2.542  1.5304 -0.0845 -1.4423
 9519SOL    HW235163   3.895   6.957   2.471 -0.3508  0.6564  0.4750
 9520SOL     OW35164  12.242   1.318   9.689 -0.5474  0.6913  0.1204
 9520SOL    HW135165  12.190   1.246   9.724  0.8315  0.2720  1.4256
 9520SOL    HW235166  12.320   1.276   9.653  0.0992  1.5003  0.5553
 9521SOL     OW35167   2.307   1.162  11.459 -0.2630  0.2364  0.5014
 9521SOL    HW135168   2.354   1.229  11.509 -0.5617  1.5416 -0.8793
 9521SOL    HW235169   2.350   1.162  11.373 -0.8127 -0.7493  0.2144
 9522SOL     OW35170   0.616   8.776   4.561  0.0989  0.1443 -0.3233
 9522SOL    HW135171   0.526   8.794   4.533 -0.9208 -0.2518  2.3207
 9522SOL    HW235172   0.639   8.851   4.615  1.5713  0.4438 -1.3098
 9523SOL     OW35173  12.291   1.461   5.571 -0.0035  0.4357 -0.0750
 9523SOL    HW135174  12.334   1.506   5.498 -1.8005  1.1209 -0.7875
 9523SOL    HW235175  12.358   1.455   5.639  1.4630  0.5917 -1.4432
 9524SOL     OW35176   0.419   8.660  12.539  0.2162 -0.7158  0.7682
 9524SOL    HW135177   0.356   8.726  12.567  0.5894  0.6961 -1.4244
 9524SOL    HW235178   0.371   8.605  12.477  0.7304 -0.4636  0.1239
 9525SOL     OW35179  12.560  10.828   6.241 -0.9387 -0.1199  0.1642
 9525SOL    HW135180  12.649  10.793   6.246 -0.3741  1.1777 -0.1212
 9525SOL    HW235181  12.516  10.795   6.319  0.1388  0.0980  0.8893
 9526SOL     OW35182  11.523   2.525   0.076 -0.4138 -0.5739 -0.5837
 9526SOL    HW135183  11.434   2.490   0.075  0.2192 -2.2590 -0.5647
 9526SOL    HW235184  11.565   2.486  -0.001  0.5292 -0.3764 -0.1777
 9527SOL     OW35185   4.100   0.147   7.580  0.6121  0.7615  0.2279
 9527SOL    HW135186   4.065   0.171   7.666 -0.1954  0.6496 -0.0627
 9527SOL    HW235187   4.175   0.205   7.568 -1.1087  3.0519 -0.3354
 9528SOL     OW35188   7.196   9.167   5.441  0.0776 -0.1988 -0.4654
 9528SOL    HW135189   7.287   9.158   5.469  0.1944 -1.6423 -1.2150
 9528SOL    HW235190   7.145   9.132   5.514 -0.0003  1.7422  0.4914
 9529SOL     OW35191   4.759   0.067   8.770  0.3734  0.5642  0.1965
 9529SOL    HW135192   4.742   0.162   8.776 -0.2468  0.5055 -0.4578
 9529SOL    HW235193   4.679   0.027   8.804  0.5022  0.2712  0.1527
 9530SOL     OW35194   1.307   1.140  10.912  0.6428 -0.3825 -0.5765
 9530SOL    HW135195   1.356   1.126  10.831  1.2680 -1.1571 -0.0848
 9530SOL    HW235196   1.339   1.072  10.971 -1.2498 -1.1027 -0.3119
 9531SOL     OW35197   1.766   5.416   4.079 -0.6681  0.4356 -0.0843
 9531SOL    HW135198   1.794   5.373   4.160  1.5777  1.9669  0.0831
 9531SOL    HW235199   1.713   5.490   4.109 -0.7653  0.3604 -0.0730
 9532SOL     OW35200   1.052  10.753   4.045 -0.1317  0.1268 -0.3929
 9532SOL    HW135201   0.987  10.722   3.982  0.1920 -0.9314 -0.2226
 9532SOL    HW235202   1.128  10.696   4.031  0.5931  1.0405 -0.2696
 9533SOL     OW35203   0.130   3.375   4.117 -0.0193  0.0217 -0.0193
 9533SOL    HW135204   0.137   3.350   4.025 -0.3268  0.0535 -0.0529
 9533SOL    HW235205   0.054   3.327   4.149  0.0094  0.1130  0.1853
 9534SOL     OW35206   6.357   1.720   4.479  0.2473 -0.5102  0.3017
 9534SOL    HW135207   6.263   1.706   4.491  0.1124 -0.6087 -0.7378
 9534SOL    HW235208   6.364   1.811   4.450  0.4746 -0.4965  0.3981
 9535SOL     OW35209  12.648   4.401   0.130  0.2585 -0.1135  0.1961
 9535SOL    HW135210  12.560   4.414   0.165 -0.7362 -1.3910 -1.6732
 9535SOL    HW235211  12.650   4.309   0.104  1.0125  0.6099 -2.6455
 9536SOL     OW35212  10.291   4.468   4.031  0.8532  0.0889 -0.0054
 9536SOL    HW135213  10.252   4.546   3.994 -0.8653 -0.2658  0.9480
 9536SOL    HW235214  10.344   4.431   3.961 -0.5868  0.5734 -1.3842
 9537SOL     OW35215   1.838   0.025   7.296 -0.1285  0.0306  0.1678
 9537SOL    HW135216   1.773  -0.003   7.232  0.0787 -1.5051  0.5904
 9537SOL    HW235217   1.802  -0.000   7.381  1.4179 -1.8623  0.3497
 9538SOL     OW35218   8.118  11.795   6.741  0.3524  0.7305 -0.1433
 9538SOL    HW135219   8.118  11.888   6.765 -3.7427  0.4288  1.8108
 9538SOL    HW235220   8.117  11.748   6.824 -2.0017 -0.8438 -0.9544
 9539SOL     OW35221   3.430   4.482   6.741 -0.4216  0.3316  0.0717
 9539SOL    HW135222   3.447   4.543   6.812  0.7109  1.4663 -1.1262
 9539SOL    HW235223   3.347   4.510   6.704  0.1878  1.2927 -0.5966
 9540SOL     OW35224   6.006  10.820   6.573 -0.0051 -0.9727  0.0109
 9540SOL    HW135225   6.009  10.837   6.479 -2.2929  1.2223  0.2148
 9540SOL    HW235226   6.085  10.862   6.608  0.2497 -0.7546 -0.8149
 9541SOL     OW35227   2.810   1.405   5.096 -0.2618  0.2751  0.1195
 9541SOL    HW135228   2.847   1.480   5.050 -0.3789 -0.0698 -0.5476
 9541SOL    HW235229   2.768   1.353   5.027  1.3968 -1.3585  0.2692
 9542SOL     OW35230   1.332   2.416   1.023  0.3307 -0.2457  0.0312
 9542SOL    HW135231   1.412   2.464   1.046 -0.6970  0.9122  1.4252
 9542SOL    HW235232   1.279   2.480   0.975 -0.3805 -0.4920  0.4694
 9543SOL     OW35233   0.612   8.624  12.728  0.6623 -0.2153  0.1918
 9543SOL    HW135234   0.667   8.570  12.671  1.9894  0.9019  0.3607
 9543SOL    HW235235   0.539   8.650  12.673 -0.0390 -2.1476  0.1114
 9544SOL     OW35236  12.411   3.870  11.638 -1.1309  0.7859 -0.1802
 9544SOL    HW135237  12.450   3.955  11.621  2.5971 -0.6950  0.0046
 9544SOL    HW235238  12.418   3.823  11.555  0.4352 -0.5190  0.6322
 9545SOL     OW35239   6.010  12.431   0.630  0.0983  0.3434 -0.0872
 9545SOL    HW135240   6.055  12.506   0.589 -0.6635  1.3417  0.8537
 9545SOL    HW235241   6.081  12.379   0.668  0.6126  0.8337 -0.3523
 9546SOL     OW35242   2.068   6.637   9.742 -0.0792 -0.2186 -0.4344
 9546SOL    HW135243   2.137   6.611   9.680  0.7788 -0.9998  0.7940
 9546SOL    HW235244   2.088   6.727   9.764  2.2657 -1.1935  1.9664
 9547SOL     OW35245  12.393   6.614   0.896  0.3788  0.0393 -0.2319
 9547SOL    HW135246  12.442   6.693   0.917  0.6167  0.2170 -1.4187
 9547SOL    HW235247  12.410   6.555   0.970  1.3511  0.5675 -0.0204
 9548SOL     OW35248   1.743   4.640   5.443 -0.3010  0.3809 -0.5775
 9548SOL    HW135249   1.834   4.670   5.432  0.1747 -0.6099  0.4703
 9548SOL    HW235250   1.717   4.612   5.355 -0.0044  1.7148 -1.1232
 9549SOL     OW35251   0.339   4.845   6.863  0.4013  0.2800 -0.1570
 9549SOL    HW135252   0.372   4.854   6.774  0.0360 -0.4628 -0.3743
 9549SOL    HW235253   0.318   4.752   6.872  0.5450  0.3240  0.7429
 9550SOL     OW35254   2.104  11.534   9.001  0.0071 -0.1428  0.0754
 9550SOL    HW135255   2.143  11.582   8.928  1.6076 -2.0960 -0.4703
 9550SOL    HW235256   2.021  11.502   8.967  1.4624 -2.4507 -1.6202
 9551SOL     OW35257   7.814   3.574   9.248 -0.5117  0.7420 -0.1843
 9551SOL    HW135258   7.770   3.492   9.273  1.4928 -0.1866  0.4805
 9551SOL    HW235259   7.788   3.636   9.317 -0.0878 -0.0462  0.7131
 9552SOL     OW35260  11.892  12.292  12.340  0.5735  0.3476 -0.0923
 9552SOL    HW135261  11.973  12.252  12.309  1.3316  0.6586  1.4098
 9552SOL    HW235262  11.843  12.220  12.379  0.3572  0.2512 -0.5429
 9553SOL     OW35263   5.042   9.249   2.030  0.6066  0.1836  0.2466
 9553SOL    HW135264   5.100   9.231   1.956 -0.4083 -0.2785 -0.4604
 9553SOL    HW235265   5.034   9.344   2.032  1.3766  0.2534  0.3534
 9554SOL     OW35266  12.527   5.729  12.587  0.0720  0.1567  0.0453
 9554SOL    HW135267  12.509   5.647  12.633 -0.7633 -1.2051 -2.5481
 9554SOL    HW235268  12.619   5.724  12.564  0.0650  0.0527  0.0425
 9555SOL     OW35269   9.173   6.939   2.304  0.1367  0.2602  0.0874
 9555SOL    HW135270   9.217   6.932   2.389 -0.5733  1.0015  0.5298
 9555SOL    HW235271   9.238   6.979   2.247  0.9805 -1.1986 -0.0074
 9556SOL     OW35272   4.344   5.615   4.053  0.1195  0.0940  0.5345
 9556SOL    HW135273   4.290   5.545   4.089  0.4888  0.1950  1.2985
 9556SOL    HW235274   4.352   5.679   4.124 -0.1203  0.8661 -0.1087
 9557SOL     OW35275   5.061  11.374   3.397  0.2883  0.0697 -0.2319
 9557SOL    HW135276   4.992  11.421   3.349  0.8757  1.9965  0.6766
 9557SOL    HW235277   5.083  11.433   3.469  1.3683 -1.4931  0.7773
 9558SOL     OW35278  11.872   9.600   1.251 -0.1218  0.0879 -0.3565
 9558SOL    HW135279  11.793   9.642   1.218 -0.3223 -0.1409 -0.1736
 9558SOL    HW235280  11.932   9.672   1.270 -1.5360  0.5692  2.8867
 9559SOL     OW35281   1.470   0.447   9.941  0.0657  0.1325 -0.4263
 9559SOL    HW135282   1.486   0.418  10.031 -1.0488  0.0393 -0.2354
 9559SOL    HW235283   1.476   0.542   9.946  0.0670  0.1247 -0.2535
 9560SOL     OW35284   7.313   7.898   8.609 -0.5563  1.0851  0.2533
 9560SOL    HW135285   7.351   7.973   8.563 -0.5782  0.8235 -0.2060
 9560SOL    HW235286   7.385   7.834   8.613 -1.6753 -0.7203 -3.4845
 9561SOL     OW35287   5.195   3.502   6.618  0.0864  0.6300 -0.1020
 9561SOL    HW135288   5.163   3.413   6.610 -0.7923  0.8920  0.4463
 9561SOL    HW235289   5.118   3.554   6.641  0.7994  1.3489  0.7103
 9562SOL     OW35290   8.314  10.675   1.553  0.2083  0.3091 -0.0550
 9562SOL    HW135291   8.238  10.713   1.507 -0.3354  1.2166  1.5228
 9562SOL    HW235292   8.295  10.582   1.558 -0.3067  0.3781 -0.5580
 9563SOL     OW35293   9.741   2.403  11.111  0.4217  0.3762 -0.2088
 9563SOL    HW135294   9.800   2.454  11.055 -0.2185  2.4872  0.9164
 9563SOL    HW235295   9.776   2.414  11.199 -0.1434 -0.6044  0.1528
 9564SOL     OW35296   2.438   9.036   0.000  0.3450 -0.1811 -0.1123
 9564SOL    HW135297   2.452   8.971  -0.069  0.8229  1.0383 -1.2106
 9564SOL    HW235298   2.497   9.108  -0.023 -0.3416  0.7479  0.9442
 9565SOL     OW35299  10.789   6.768   4.835 -0.0180  0.1951  0.0568
 9565SOL    HW135300  10.760   6.806   4.751 -1.8420 -0.9249  0.1243
 9565SOL    HW235301  10.846   6.696   4.810 -0.3954 -0.0110 -0.2299
 9566SOL     OW35302   3.741   2.889   4.584 -0.7551  0.9370  0.1912
 9566SOL    HW135303   3.706   2.804   4.559  1.0434 -0.2844  1.5531
 9566SOL    HW235304   3.738   2.889   4.679  1.9681  1.0884  0.3614
 9567SOL     OW35305   4.762   2.214   1.802  0.7214 -0.0488 -0.1438
 9567SOL    HW135306   4.836   2.270   1.825  1.3134 -1.4169  1.4933
 9567SOL    HW235307   4.801   2.131   1.776 -0.1910 -0.8261  0.8443
 9568SOL     OW35308   4.424   7.732   2.399  0.7952  0.1337 -0.3643
 9568SOL    HW135309   4.420   7.641   2.426 -0.5110  0.5474  0.9256
 9568SOL    HW235310   4.517   7.755   2.405  0.9543 -0.7181  0.6279
 9569SOL     OW35311   5.315  12.037  11.160  0.3219  1.0575 -0.3636
 9569SOL    HW135312   5.387  12.043  11.222 -0.1169  1.3325  0.1289
 9569SOL    HW235313   5.244  12.088  11.200 -0.1614  0.7509 -0.8098
 9570SOL     OW35314   4.863   0.532  10.548 -0.2553 -0.1110 -0.2924
 9570SOL    HW135315   4.948   0.490  10.539 -0.7058 -1.1244  0.0363
 9570SOL    HW235316   4.878   0.622  10.519  0.4294 -0.8025 -2.2717
 9571SOL     OW35317   4.704   5.115   2.881 -0.1870  0.3602 -0.5640
 9571SOL    HW135318   4.725   5.047   2.817 -0.4079 -0.3858  0.1516
 9571SOL    HW235319   4.609   5.117   2.884 -0.1896  0.9629 -0.8508
 9572SOL     OW35320   9.952  10.796   1.297  0.0573 -0.4468 -0.4487
 9572SOL    HW135321  10.042  10.764   1.293 -0.3386 -1.4795 -1.5000
 9572SOL    HW235322   9.946  10.861   1.227  0.3948  0.7673  0.6163
 9573SOL     OW35323   2.059   4.903   9.723 -0.0708 -0.4072  0.1603
 9573SOL    HW135324   2.047   4.810   9.745  2.7558 -0.3329  2.6022
 9573SOL    HW235325   2.112   4.902   9.643  0.8864 -0.9537  0.7822
 9574SOL     OW35326  10.077   6.187   4.181 -0.1537 -0.4619  0.2936
 9574SOL    HW135327  10.154   6.213   4.231  0.0809  2.6851 -1.4441
 9574SOL    HW235328  10.016   6.259   4.191 -0.4740 -0.0923 -2.9727
 9575SOL     OW35329   1.792   3.367   8.019  0.0222  0.5279 -0.1371
 9575SOL    HW135330   1.744   3.442   7.984 -0.0791  1.1983  1.3737
 9575SOL    HW235331   1.860   3.350   7.953  0.1081  2.0036 -0.4673
 9576SOL     OW35332  11.789   6.645  10.589  0.0568 -0.2697  0.0787
 9576SOL    HW135333  11.740   6.608  10.661  1.2884 -1.0655  0.5412
 9576SOL    HW235334  11.842   6.714  10.628  0.5631 -0.5529 -0.0942
 9577SOL     OW35335   2.149   3.178   2.498 -0.1354  0.0974 -0.1154
 9577SOL    HW135336   2.155   3.086   2.523  0.4415  0.4339  1.0453
 9577SOL    HW235337   2.189   3.182   2.411  3.5616 -0.1569  1.3734
 9578SOL     OW35338  10.302   9.781   2.732 -0.0746  0.0534 -0.0420
 9578SOL    HW135339  10.281   9.738   2.649  2.7802  1.4834 -1.6357
 9578SOL    HW235340  10.264   9.869   2.723  1.6738  0.7989 -0.6633
 9579SOL     OW35341  10.414   4.487   8.598  0.4279  0.4759 -0.0745
 9579SOL    HW135342  10.415   4.394   8.575  1.3927  0.6778 -0.9318
 9579SOL    HW235343  10.328   4.517   8.571  0.6612  0.1569 -1.2210
 9580SOL     OW35344  12.153   3.039   5.703 -0.2320 -0.5003  0.2171
 9580SOL    HW135345  12.118   3.017   5.789 -2.2217 -1.3413 -0.7542
 9580SOL    HW235346  12.095   2.996   5.641  0.8955  0.4309 -1.5879
 9581SOL     OW35347   3.769   5.230   8.355  0.2571  0.2492 -0.0768
 9581SOL    HW135348   3.774   5.135   8.360 -0.7659  0.1000 -1.4374
 9581SOL    HW235349   3.842   5.255   8.298  1.1073  0.3864  1.0405
 9582SOL     OW35350   2.380   9.808   6.865  0.3469  0.5813 -0.0492
 9582SOL    HW135351   2.423   9.847   6.941 -0.4542  0.3658  0.5205
 9582SOL    HW235352   2.374   9.879   6.801  1.1153  0.7371  0.0378
 9583SOL     OW35353   2.333  10.517  12.667 -0.1834  0.4151 -0.2923
 9583SOL    HW135354   2.360  10.499  12.757 -0.0096 -0.0206 -0.4284
 9583SOL    HW235355   2.414  10.537  12.620  0.0296 -1.4716 -0.8353
 9584SOL     OW35356   8.951   7.414   6.976  0.3714  0.4329  0.3472
 9584SOL    HW135357   8.922   7.504   6.960 -2.3189 -0.1737  1.3234
 9584SOL    HW235358   8.872   7.367   7.003  1.0019 -3.0079 -2.8784
 9585SOL     OW35359   8.794   9.255  10.327 -0.2473 -0.5722 -1.2279
 9585SOL    HW135360   8.850   9.288  10.257  0.0330  0.1765 -0.6694
 9585SOL    HW235361   8.705   9.279  10.300 -0.0075  1.4061 -0.4928
 9586SOL     OW35362   4.564  10.536  12.701  0.1638  0.5766 -0.3623
 9586SOL    HW135363   4.473  10.566  12.695 -0.1537 -0.1647  0.5126
 9586SOL    HW235364   4.557  10.444  12.727  1.1638  0.4736 -0.4317
 9587SOL     OW35365  12.463   1.773   3.757 -0.7127  0.0255  0.8960
 9587SOL    HW135366  12.373   1.742   3.752 -0.4166 -0.8946  1.1411
 9587SOL    HW235367  12.497   1.762   3.668 -0.7764  0.1835  0.8512
 9588SOL     OW35368   8.851   9.888   7.981  0.3965 -0.0979 -0.5011
 9588SOL    HW135369   8.769   9.861   8.022  0.1270  0.8611 -0.3804
 9588SOL    HW235370   8.915   9.822   8.009  0.3068  0.6767  1.7135
 9589SOL     OW35371  12.753   9.178   4.643  0.3419 -0.0304  0.1350
 9589SOL    HW135372  12.753   9.199   4.736  1.1262  0.0047  0.1372
 9589SOL    HW235373  12.668   9.208   4.611 -0.1651 -0.5780  0.9540
 9590SOL     OW35374   7.752   7.505  10.758  0.7499  1.0020 -0.0384
 9590SOL    HW135375   7.802   7.427  10.780  0.6771  1.3480  1.4688
 9590SOL    HW235376   7.661   7.476  10.754  0.6509  1.1017  1.1355
 9591SOL     OW35377  11.577   8.470  12.613  0.4721 -0.3563  0.1649
 9591SOL    HW135378  11.510   8.501  12.673 -1.5044 -2.8308 -0.6420
 9591SOL    HW235379  11.652   8.449  12.669 -0.5867 -0.6577  1.5108
 9592SOL     OW35380   9.456   7.920   3.085 -0.1730 -0.2969 -0.3637
 9592SOL    HW135381   9.440   7.923   3.179 -1.8134 -1.7236 -0.5409
 9592SOL    HW235382   9.408   7.842   3.055 -0.4136  0.5954 -2.4934
 9593SOL     OW35383  11.023   2.198   4.759 -0.1505  0.0975  0.1655
 9593SOL    HW135384  11.069   2.180   4.677 -0.1154  0.6994  0.0477
 9593SOL    HW235385  11.056   2.132   4.820  0.6352  0.3202 -0.0100
 9594SOL     OW35386   8.095   8.967  11.793  0.5973  0.0848 -0.0778
 9594SOL    HW135387   8.178   8.989  11.752  0.2611  1.8193  0.0774
 9594SOL    HW235388   8.108   8.987  11.886  0.6357 -1.6347  0.3299
 9595SOL     OW35389   7.782  10.865   0.583 -0.0135  1.1328  0.4613
 9595SOL    HW135390   7.735  10.827   0.509  1.6850  2.2433 -1.2741
 9595SOL    HW235391   7.868  10.822   0.582  0.6080  2.3124  0.7619
 9596SOL     OW35392   1.042   8.521  12.389 -0.3409 -0.2693 -0.3727
 9596SOL    HW135393   1.096   8.595  12.417 -2.0332  0.7382  0.3434
 9596SOL    HW235394   1.092   8.481  12.317  2.1724 -0.4425  1.3298
 9597SOL     OW35395   8.543  11.261   0.078  0.2413  0.0389  0.5010
 9597SOL    HW135396   8.515  11.302   0.159 -1.0293 -2.9818  1.7428
 9597SOL    HW235397   8.473  11.280   0.016 -0.0869  0.1424  0.9030
 9598SOL     OW35398   8.315   5.396   4.859  0.5534 -0.1056  0.1321
 9598SOL    HW135399   8.313   5.309   4.818  0.0793  0.4512 -1.0684
 9598SOL    HW235400   8.289   5.456   4.789  1.7738  1.1135  0.6813
 9599SOL     OW35401  12.475   7.087   1.281  0.5066  0.3776 -0.2669
 9599SOL    HW135402  12.483   7.146   1.357 -0.6118  1.7083 -1.1289
 9599SOL    HW235403  12.503   7.002   1.314  2.4170  1.4093  0.9910
 9600SOL     OW35404   8.566   6.925  10.635  0.6179  0.3173  0.2279
 9600SOL    HW135405   8.644   6.871  10.651  0.8075  1.0435  1.9028
 9600SOL    HW235406   8.560   6.983  10.711 -1.8171 -0.0036  0.3581
 9601SOL     OW35407   6.763  12.115  12.496  0.2117  0.6507  0.2646
 9601SOL    HW135408   6.746  12.144  12.586 -1.0862 -0.4637  0.4113
 9601SOL    HW235409   6.824  12.042  12.506 -1.8904 -1.1861  0.5308
 9602SOL     OW35410   0.881   4.694   1.756 -0.1601 -0.6252 -0.7439
 9602SOL    HW135411   0.895   4.652   1.671  0.1348 -2.7956  0.2781
 9602SOL    HW235412   0.814   4.640   1.799 -0.6156  0.6684  0.2475
 9603SOL     OW35413   2.477   4.451   3.190  0.1416 -0.0069 -0.1928
 9603SOL    HW135414   2.416   4.523   3.173 -0.0536  0.9284  3.5896
 9603SOL    HW235415   2.456   4.422   3.279  2.5202 -2.4687 -0.3034
 9604SOL     OW35416   4.275   4.767  11.160 -0.1657 -0.0489  0.1979
 9604SOL    HW135417   4.293   4.718  11.080 -0.2396 -0.3923  0.3865
 9604SOL    HW235418   4.233   4.703  11.218 -2.7106  0.8899 -0.4825
 9605SOL     OW35419   0.023   7.883   2.549  0.0377 -0.2445  0.6497
 9605SOL    HW135420   0.065   7.801   2.526  0.0738 -0.5039  1.6024
 9605SOL    HW235421   0.093   7.948   2.543 -0.0915 -0.2027 -0.5287
 9606SOL     OW35422   2.146  12.333   8.891  0.0056 -0.0347 -0.5597
 9606SOL    HW135423   2.242  12.333   8.896  0.0051  1.6352  0.1293
 9606SOL    HW235424   2.120  12.246   8.921  1.3275 -0.7945 -1.5395
 9607SOL     OW35425   8.520   2.665   2.365  0.5053  0.1099  0.4123
 9607SOL    HW135426   8.577   2.696   2.295 -1.0705  1.9476 -0.1532
 9607SOL    HW235427   8.455   2.611   2.321  1.0617 -0.9671  0.8778
 9608SOL     OW35428   0.686   8.863   2.639 -0.6246 -0.3532  0.5451
 9608SOL    HW135429   0.672   8.870   2.734 -0.8375 -0.2602  0.5070
 9608SOL    HW235430   0.781   8.853   2.629 -0.2359  2.5656  0.5838
 9609SOL     OW35431   4.108   4.669  11.773  0.0254 -0.4300 -0.0691
 9609SOL    HW135432   4.092   4.635  11.685 -2.0778  1.3834 -0.4856
 9609SOL    HW235433   4.089   4.595  11.831 -2.1917 -0.6921 -1.0257
 9610SOL     OW35434  11.747   7.035   2.817  0.4310 -0.1925  0.0674
 9610SOL    HW135435  11.666   7.003   2.857  0.1681 -0.6395 -0.7969
 9610SOL    HW235436  11.812   7.033   2.888 -0.2406 -0.0849  0.6968
 9611SOL     OW35437   9.773   1.265   5.824  0.2613 -0.0381 -0.1222
 9611SOL    HW135438   9.777   1.234   5.734  2.1326 -1.2571  0.3327
 9611SOL    HW235439   9.695   1.222   5.860  1.8542 -3.1375  0.0039
 9612SOL     OW35440   1.483  12.344   4.825  0.2171  0.6205  0.2078
 9612SOL    HW135441   1.549  12.365   4.891 -1.7812 -0.7455  2.8539
 9612SOL    HW235442   1.427  12.422   4.823  0.4959  0.8124 -0.1756
 9613SOL     OW35443   5.873   7.158   4.954  0.5159  0.0037 -0.0491
 9613SOL    HW135444   5.795   7.205   4.925 -0.2054 -0.1993  1.4404
 9613SOL    HW235445   5.942   7.224   4.955 -0.0701  0.6289  0.3339
 9614SOL     OW35446   2.919   7.557   3.536 -0.1006 -0.0467 -0.0366
 9614SOL    HW135447   2.974   7.590   3.465  0.7187  1.2127  1.1190
 9614SOL    HW235448   2.899   7.635   3.588 -1.0966 -0.8633  0.8248
 9615SOL     OW35449   5.470   4.726   4.586 -0.5898 -0.1838 -0.2278
 9615SOL    HW135450   5.539   4.667   4.558  0.7213  2.0954 -2.1367
 9615SOL    HW235451   5.448   4.778   4.508 -1.2044  2.2570  1.4434
 9616SOL     OW35452   5.148   9.770   0.504 -0.0521  0.0642 -0.3138
 9616SOL    HW135453   5.191   9.709   0.444 -0.4579  0.0358 -0.5807
 9616SOL    HW235454   5.055   9.763   0.483 -0.2321 -0.1819  0.5433
 9617SOL     OW35455   3.914   9.812   9.187  0.5223 -0.0739  0.0344
 9617SOL    HW135456   3.888   9.721   9.198 -1.8304  0.5497  0.2902
 9617SOL    HW235457   3.879   9.837   9.101  2.4023  0.2349 -0.6892
 9618SOL     OW35458  12.367   6.345   7.106 -0.2202 -0.2331  0.2734
 9618SOL    HW135459  12.400   6.413   7.165 -1.1196  1.4095 -1.0136
 9618SOL    HW235460  12.275   6.367   7.093 -0.0817 -0.5847 -1.6204
 9619SOL     OW35461   2.099   8.985  10.433 -0.0753 -1.2371 -0.4628
 9619SOL    HW135462   2.074   9.003  10.524  1.1649 -1.2589 -0.0878
 9619SOL    HW235463   2.166   8.917  10.440  0.5849 -0.7064 -1.3236
 9620SOL     OW35464   5.350   8.803  10.475  0.0457  0.2943  0.2598
 9620SOL    HW135465   5.257   8.807  10.496 -0.4066  0.2480 -1.5178
 9620SOL    HW235466   5.352   8.781  10.381  1.8372  0.6546  0.1800
 9621SOL     OW35467   6.758   4.463   3.213 -0.2618  0.2466  0.0378
 9621SOL    HW135468   6.797   4.548   3.236  0.7980 -0.6657  1.8248
 9621SOL    HW235469   6.671   4.465   3.254 -0.7416  0.9152 -0.9700
 9622SOL     OW35470   3.521   5.106   9.330  0.3323  0.2002 -0.1353
 9622SOL    HW135471   3.432   5.070   9.333  1.7213 -3.7983 -0.8392
 9622SOL    HW235472   3.520   5.165   9.255 -1.6731  0.1086 -0.2360
 9623SOL     OW35473  11.218   8.687   1.379  0.0162 -0.2139 -0.1075
 9623SOL    HW135474  11.252   8.776   1.385  1.3829 -0.7614  0.8662
 9623SOL    HW235475  11.123   8.697   1.384  0.1381  1.2127 -0.4339
 9624SOL     OW35476   2.173   2.787  10.426  0.2977 -0.1703 -0.0784
 9624SOL    HW135477   2.090   2.755  10.460 -0.1427  0.4134 -0.5857
 9624SOL    HW235478   2.238   2.757  10.490 -0.3717 -0.0677  0.6738
 9625SOL     OW35479   6.718   4.279   0.577 -0.1656 -0.2205 -0.5989
 9625SOL    HW135480   6.662   4.243   0.645 -0.6494 -1.0943 -1.4299
 9625SOL    HW235481   6.798   4.226   0.582  0.2365  0.4201 -0.0231
 9626SOL     OW35482   8.955   7.178   2.065 -0.4499  0.1257 -0.7103
 9626SOL    HW135483   8.953   7.147   2.155  0.8143  1.0238 -0.3298
 9626SOL    HW235484   8.867   7.163   2.032 -0.4476 -1.9280  0.0718
 9627SOL     OW35485   9.467  12.406   2.415 -0.2822  0.2943 -0.4854
 9627SOL    HW135486   9.513  12.337   2.464  1.2250  1.3806 -0.3175
 9627SOL    HW235487   9.387  12.420   2.464  0.6126  0.4654  0.9857
 9628SOL     OW35488   0.105   3.456   7.134  0.3609  0.1316 -0.1475
 9628SOL    HW135489   0.136   3.368   7.115  0.8058  0.5254 -1.3523
 9628SOL    HW235490   0.013   3.445   7.158  0.9957 -0.8947  2.0445
 9629SOL     OW35491   7.759  11.963  11.432 -0.1090 -0.3191 -0.2765
 9629SOL    HW135492   7.664  11.974  11.424  0.0490  1.1141 -0.5243
 9629SOL    HW235493   7.795  12.043  11.395  1.2142 -0.9229 -0.3352
 9630SOL     OW35494   5.369   5.795   6.828  0.4985  0.1810 -0.2488
 9630SOL    HW135495   5.357   5.701   6.819  3.5089 -0.2267 -1.0138
 9630SOL    HW235496   5.311   5.833   6.762 -1.0638 -1.0445  0.3375
 9631SOL     OW35497   7.864  10.838  11.999  0.7198 -0.5342 -0.1597
 9631SOL    HW135498   7.809  10.917  11.996 -1.6267 -2.0609  0.0696
 9631SOL    HW235499   7.896  10.828  11.909  1.0879  0.6758 -0.1855
 9632SOL     OW35500   9.012   8.202  11.075  0.1594  0.2444  0.0972
 9632SOL    HW135501   8.926   8.176  11.110 -0.4022  0.4603 -1.0671
 9632SOL    HW235502   9.016   8.161  10.988 -0.1358  2.7552 -1.1990
 9633SOL     OW35503   5.879   9.855   4.196  0.2012  0.5405  0.0549
 9633SOL    HW135504   5.908   9.943   4.172  0.7791  0.2876 -0.2023
 9633SOL    HW235505   5.872   9.857   4.291  1.0935  0.6081  0.1280
 9634SOL     OW35506  10.558   0.508   3.564 -0.1810 -0.1578  0.5431
 9634SOL    HW135507  10.527   0.425   3.599  0.8553 -0.0934  1.6746
 9634SOL    HW235508  10.610   0.546   3.635 -0.6453  1.4595  0.0549
 9635SOL     OW35509  12.220  12.637   5.606 -0.7811  0.0261  0.2037
 9635SOL    HW135510  12.219  12.731   5.589 -0.5995  0.1418  0.8094
 9635SOL    HW235511  12.183  12.598   5.527 -2.6248  0.7188  0.6597
 9636SOL     OW35512   0.157  12.747   2.590  0.1429 -0.4152  0.1973
 9636SOL    HW135513   0.208  12.677   2.631  1.5769  1.0033  0.9582
 9636SOL    HW235514   0.207  12.770   2.511 -0.0578  0.0423  0.2000
 9637SOL     OW35515  10.893  10.398   8.921 -0.4850 -0.1346  0.2789
 9637SOL    HW135516  10.825  10.452   8.960 -0.2859  0.8953 -0.7387
 9637SOL    HW235517  10.931  10.453   8.852  0.1037 -1.3680 -0.4220
 9638SOL     OW35518   7.134   5.553   8.961 -0.4214 -0.2031 -0.1504
 9638SOL    HW135519   7.215   5.503   8.964  0.4915  1.1515 -1.0531
 9638SOL    HW235520   7.100   5.549   9.051  1.2213  0.1258  0.5182
 9639SOL     OW35521   7.481   9.938   8.823 -0.4362 -0.3980 -0.4440
 9639SOL    HW135522   7.451   9.942   8.914  0.6923  0.4840 -0.0976
 9639SOL    HW235523   7.575   9.957   8.828 -0.3428 -0.4621 -1.7889
 9640SOL     OW35524   1.493   2.785  11.105  0.2124 -0.0983  0.3975
 9640SOL    HW135525   1.574   2.768  11.152  0.3702 -0.8630 -0.1488
 9640SOL    HW235526   1.434   2.715  11.132 -0.3019  0.4874  0.8423
 9641SOL     OW35527   1.324   1.246  11.904 -0.0862 -0.0030 -1.2344
 9641SOL    HW135528   1.264   1.210  11.839  0.5939 -1.8745 -0.9016
 9641SOL    HW235529   1.368   1.318  11.859 -3.4622  2.3591 -1.0413
 9642SOL     OW35530   6.470   5.426   5.698 -0.0692 -0.2047  0.1643
 9642SOL    HW135531   6.476   5.349   5.641 -0.2024 -0.8621  1.0308
 9642SOL    HW235532   6.418   5.489   5.648 -0.1794 -0.7703 -0.4418
 9643SOL     OW35533   6.858   8.460   7.599  0.4454 -0.1439  0.2046
 9643SOL    HW135534   6.839   8.455   7.693  2.6711  0.3813  0.7371
 9643SOL    HW235535   6.783   8.507   7.562 -0.5674 -0.5345  1.6712
 9644SOL     OW35536  11.283   0.821   3.567  0.1436  0.2948  0.4702
 9644SOL    HW135537  11.257   0.912   3.584  0.7157  0.5262  0.1315
 9644SOL    HW235538  11.378   0.821   3.576  0.1252 -0.3250  0.6982
 9645SOL     OW35539   5.339   5.880  10.744 -0.2802  0.5865  0.4334
 9645SOL    HW135540   5.335   5.948  10.677  1.7378  0.0760 -0.2928
 9645SOL    HW235541   5.386   5.808  10.703 -0.3810 -0.3710  1.8992
 9646SOL     OW35542   7.969  10.935   0.271  0.1146  0.3801  0.1837
 9646SOL    HW135543   7.895  10.876   0.259  0.4085  0.4199 -2.3439
 9646SOL    HW235544   8.046  10.878   0.259  0.4818  0.6450  1.1857
 9647SOL     OW35545   6.623   6.025  11.250 -0.4070  0.1180 -0.0678
 9647SOL    HW135546   6.599   6.112  11.281 -0.1930 -0.3980  1.6915
 9647SOL    HW235547   6.655   5.980  11.328  1.3918 -0.8932 -1.3027
 9648SOL     OW35548   5.923   5.688   9.666 -0.5817  0.1372  0.8156
 9648SOL    HW135549   5.954   5.602   9.635  0.4269  0.3843  1.1113
 9648SOL    HW235550   5.880   5.669   9.749 -2.1735 -0.3490 -0.0684
 9649SOL     OW35551   1.787   2.202   7.401 -0.1158 -0.1961  0.6389
 9649SOL    HW135552   1.772   2.191   7.494  1.6013  1.9836  1.2674
 9649SOL    HW235553   1.711   2.251   7.370 -1.1691 -1.7665  0.6331
 9650SOL     OW35554   8.180   8.815   2.763 -0.2661 -0.2647  0.1754
 9650SOL    HW135555   8.153   8.903   2.789 -2.2463 -0.6404 -0.4766
 9650SOL    HW235556   8.236   8.828   2.687  0.7929  0.5025  1.0613
 9651SOL     OW35557   5.696   0.457  12.470  0.3130 -0.2763  0.0337
 9651SOL    HW135558   5.739   0.387  12.519 -1.4402 -0.3496  1.5426
 9651SOL    HW235559   5.633   0.495  12.531  1.0292  2.5065 -0.7983
 9652SOL     OW35560   4.670   0.514   4.555  0.1499  0.2471  0.0035
 9652SOL    HW135561   4.763   0.494   4.544  0.0726 -1.2175  1.5694
 9652SOL    HW235562   4.630   0.496   4.470  0.9539 -1.4103 -0.0648
 9653SOL     OW35563   4.470  11.122  10.122  0.1762 -0.2443  0.6083
 9653SOL    HW135564   4.537  11.096  10.186 -0.5482  0.5041  1.7177
 9653SOL    HW235565   4.508  11.101  10.037  0.8407 -2.0824  1.3066
 9654SOL     OW35566   8.206   9.868   7.440  0.5737 -0.2404  0.6466
 9654SOL    HW135567   8.151   9.798   7.404  0.0484 -0.3395  1.6026
 9654SOL    HW235568   8.161   9.893   7.521  2.0372 -0.4407  1.5485
 9655SOL     OW35569   6.400   6.919   0.254 -0.1017  0.2316 -0.3176
 9655SOL    HW135570   6.474   6.879   0.298 -0.4369  1.5585  1.5468
 9655SOL    HW235571   6.422   7.012   0.249 -1.5763  0.6400  0.2132
 9656SOL     OW35572   3.138   0.614   3.412  0.2387  0.0986  0.3128
 9656SOL    HW135573   3.053   0.592   3.450  0.0987 -0.2296 -0.1824
 9656SOL    HW235574   3.179   0.529   3.395  0.1264  0.2268 -0.6511
 9657SOL     OW35575   4.844   1.388   1.288 -0.1962 -0.4335  0.1815
 9657SOL    HW135576   4.814   1.476   1.311 -0.0212 -0.0207 -1.0712
 9657SOL    HW235577   4.764   1.335   1.285 -0.2151 -0.5181  1.7165
 9658SOL     OW35578   7.013   1.366  11.629  0.3152 -0.2922 -0.3340
 9658SOL    HW135579   7.092   1.335  11.673  0.9219 -0.6274 -1.6299
 9658SOL    HW235580   7.040   1.447  11.586  0.2477 -0.9690 -1.6744
 9659SOL     OW35581   5.976   0.196   4.200  0.0372 -0.2774  0.6856
 9659SOL    HW135582   5.936   0.225   4.282  3.0448 -1.3878  2.7551
 9659SOL    HW235583   5.953   0.104   4.193 -0.1722 -0.1968  0.3176
 9660SOL     OW35584  10.652   2.744   4.216 -0.1925  0.1744  0.4017
 9660SOL    HW135585  10.745   2.762   4.208 -0.4172  0.6989 -1.3251
 9660SOL    HW235586  10.614   2.775   4.134 -1.6682 -1.4398  0.4222
 9661SOL     OW35587   9.220   5.424   4.589 -0.0649 -0.3905  0.4664
 9661SOL    HW135588   9.156   5.493   4.573  2.0410  1.1441 -1.9372
 9661SOL    HW235589   9.182   5.347   4.546 -1.1598 -0.0421  0.7620
 9662SOL     OW35590   0.840   3.770   4.824 -0.2959  0.1773  0.6329
 9662SOL    HW135591   0.827   3.688   4.871 -0.8810 -0.8865 -1.2563
 9662SOL    HW235592   0.753   3.810   4.820 -0.0765  0.7427  1.2374
 9663SOL     OW35593   6.415   2.767   1.864  0.2917 -0.2341  0.0730
 9663SOL    HW135594   6.499   2.753   1.909  0.3944 -0.3044 -0.1378
 9663SOL    HW235595   6.398   2.684   1.819 -1.6229 -1.5158  2.8948
 9664SOL     OW35596  12.088   7.133   2.049  0.0379 -0.0800 -0.1225
 9664SOL    HW135597  12.011   7.081   2.073  1.9907 -1.7607  3.0786
 9664SOL    HW235598  12.081   7.212   2.103 -0.4809  0.8634 -1.4923
 9665SOL     OW35599  12.595   7.010  12.693 -0.2445  0.3538  0.6296
 9665SOL    HW135600  12.684   6.995  12.661 -1.0388 -1.6836 -0.8177
 9665SOL    HW235601  12.569   7.094  12.655  0.6235  0.3877  0.0955
 9666SOL     OW35602   9.709  10.391   9.792  0.3354  0.3469 -0.3260
 9666SOL    HW135603   9.726  10.485   9.798  1.2576  0.3677 -2.3063
 9666SOL    HW235604   9.772  10.352   9.852 -0.3375  0.9930  0.8325
 9667SOL     OW35605   0.036  12.645   0.657  0.5493 -0.0781  0.2699
 9667SOL    HW135606  -0.019  12.592   0.598 -0.7760 -0.0374  1.4155
 9667SOL    HW235607  -0.013  12.727   0.667  0.7673 -0.0689  1.3796
 9668SOL     OW35608   5.511   4.352   3.644 -0.3024 -0.1433 -0.3484
 9668SOL    HW135609   5.537   4.310   3.561 -0.0433 -2.0638  0.6405
 9668SOL    HW235610   5.472   4.281   3.695  0.9748  0.5978  1.7973
 9669SOL     OW35611   6.925   2.020   4.574 -0.2642 -0.4051  0.0541
 9669SOL    HW135612   7.003   2.051   4.621 -1.2222  0.5904  1.0195
 9669SOL    HW235613   6.887   2.099   4.537 -0.0791 -1.0590 -1.6060
 9670SOL     OW35614   0.372  12.517   0.259  0.6192  0.4930  0.7650
 9670SOL    HW135615   0.431  12.590   0.275  1.2593 -0.1348  1.3438
 9670SOL    HW235616   0.414  12.465   0.191 -0.8241  1.7210 -1.1917
 9671SOL     OW35617   9.894  11.413   7.845 -0.4201  0.1597 -0.2933
 9671SOL    HW135618   9.847  11.431   7.763 -0.6010  0.7259 -0.0765
 9671SOL    HW235619   9.978  11.377   7.818 -1.7069 -2.8016 -0.6679
 9672SOL     OW35620   6.394   3.579   6.474 -0.2010  0.2195  0.4304
 9672SOL    HW135621   6.305   3.614   6.474  0.2284  1.3924  1.4105
 9672SOL    HW235622   6.416   3.568   6.381 -1.8051 -1.3232  0.1898
 9673SOL     OW35623   8.024   3.018   2.961 -0.0737 -0.1260  0.3221
 9673SOL    HW135624   8.081   3.035   3.036 -2.4448  0.8730  2.0329
 9673SOL    HW235625   7.985   2.933   2.979 -1.7638  0.7616  1.0491
 9674SOL     OW35626   3.539   9.731   1.964  0.1104  0.3022  0.3735
 9674SOL    HW135627   3.483   9.655   1.951  2.2041 -1.4518  1.1228
 9674SOL    HW235628   3.549   9.768   1.876  1.6580 -2.2706 -0.6497
 9675SOL     OW35629   7.846   6.032   3.222 -0.3548  0.5857 -0.0741
 9675SOL    HW135630   7.939   6.047   3.205 -0.4429  0.0017 -1.1794
 9675SOL    HW235631   7.843   6.001   3.312  0.5518  0.3348 -0.1160
 9676SOL     OW35632   6.817  10.237   7.177 -0.2042  0.2130 -0.2052
 9676SOL    HW135633   6.848  10.284   7.255  0.6300  0.1146 -0.4656
 9676SOL    HW235634   6.793  10.307   7.116 -1.2664  0.2914  0.2827
 9677SOL     OW35635   1.165   6.041   1.372 -0.2742  0.2298  0.3698
 9677SOL    HW135636   1.084   6.059   1.418 -2.0094  2.5033 -3.1513
 9677SOL    HW235637   1.216   6.122   1.379  0.3646 -0.1375  0.0903
 9678SOL     OW35638   2.104   8.826   6.648 -1.0556 -0.1913  0.4748
 9678SOL    HW135639   2.180   8.846   6.594 -0.8763 -0.1520  0.7372
 9678SOL    HW235640   2.094   8.731   6.641 -2.5345  0.0663 -1.5906
 9679SOL     OW35641   4.513   7.889   4.448  0.0432  0.0482  0.4427
 9679SOL    HW135642   4.432   7.852   4.412 -0.3188  0.4166  0.8768
 9679SOL    HW235643   4.576   7.882   4.376 -0.0505 -1.2825  0.4721
 9680SOL     OW35644  12.486   1.588   8.822 -0.0331  0.7164  0.0020
 9680SOL    HW135645  12.493   1.623   8.911 -1.4445  1.6932 -0.2409
 9680SOL    HW235646  12.425   1.514   8.830  1.1456 -0.2648  0.1158
 9681SOL     OW35647   7.505   4.804  11.919 -0.1988  0.4026  0.2265
 9681SOL    HW135648   7.553   4.819  11.838  0.7140  1.0464  0.8681
 9681SOL    HW235649   7.425   4.856  11.910  0.1208  0.8458 -0.0724
 9682SOL     OW35650  12.308  10.755   2.457  0.0429 -0.0081 -0.1467
 9682SOL    HW135651  12.255  10.686   2.416  0.8498 -0.8752  0.2314
 9682SOL    HW235652  12.268  10.770   2.542  1.0803 -1.5669  0.6773
 9683SOL     OW35653   2.581   6.669  11.904 -0.5103 -0.5435  0.1310
 9683SOL    HW135654   2.528   6.598  11.942 -1.8182  0.6890  0.7078
 9683SOL    HW235655   2.540   6.749  11.938  0.6805  0.4971 -0.8342
 9684SOL     OW35656   5.144   3.254   9.584 -0.6335 -0.2657 -0.5716
 9684SOL    HW135657   5.132   3.159   9.590 -0.6448 -0.1946  0.9202
 9684SOL    HW235658   5.056   3.290   9.598 -0.4633 -0.0221 -0.0941
 9685SOL     OW35659   2.454   0.804   3.703 -0.0102 -0.5196  0.7475
 9685SOL    HW135660   2.389   0.821   3.635 -0.7710  0.6436  1.7116
 9685SOL    HW235661   2.441   0.712   3.727  0.3113 -0.9590 -0.6868
 9686SOL     OW35662   4.037   5.782   1.853 -0.5227 -0.5169 -0.0638
 9686SOL    HW135663   4.131   5.764   1.859  0.4542  2.5483 -3.1382
 9686SOL    HW235664   4.007   5.731   1.778 -0.6516  0.5324 -0.7511
 9687SOL     OW35665   1.883   5.117  10.218  0.1714 -0.3828 -0.6714
 9687SOL    HW135666   1.910   5.026  10.226 -0.3699 -0.4598  0.4681
 9687SOL    HW235667   1.787   5.114  10.223  0.0536  0.1311 -2.0323
 9688SOL     OW35668   3.911   1.125   4.030  0.0218  0.3061 -0.5803
 9688SOL    HW135669   3.920   1.169   3.945  0.5522 -0.4567 -0.9315
 9688SOL    HW235670   3.936   1.034   4.013  1.1477  0.3607  0.6097
 9689SOL     OW35671   2.717   9.625   7.038 -0.0123  0.1176  0.5049
 9689SOL    HW135672   2.675   9.556   7.089 -0.0992  0.0672  0.3649
 9689SOL    HW235673   2.802   9.637   7.079 -0.2575  0.3944  0.9476
 9690SOL     OW35674   3.112   9.880   3.490 -0.2541  0.0288 -0.2575
 9690SOL    HW135675   3.161   9.916   3.564 -0.8935  0.8484 -0.2222
 9690SOL    HW235676   3.149   9.923   3.414 -1.4805  1.3196 -0.1571
 9691SOL     OW35677   3.343  10.588  10.886  0.0200 -0.2925  0.5657
 9691SOL    HW135678   3.299  10.656  10.937  0.9706  0.5854  0.2462
 9691SOL    HW235679   3.285  10.573  10.812  0.8302  1.8722 -0.6155
 9692SOL     OW35680   8.477   2.375   5.867  0.1319  0.5246  0.4064
 9692SOL    HW135681   8.520   2.296   5.835  0.2518  0.1665  1.4147
 9692SOL    HW235682   8.401   2.343   5.915 -2.0690  1.1855 -2.3583
 9693SOL     OW35683   0.601   6.818   9.413  0.0667 -0.3475 -0.3322
 9693SOL    HW135684   0.687   6.850   9.384 -0.5794  0.1667 -1.7656
 9693SOL    HW235685   0.583   6.870   9.492  0.3488  0.7441 -0.9572
 9694SOL     OW35686   1.154  11.115   2.134  0.4964 -0.1557 -0.2885
 9694SOL    HW135687   1.170  11.042   2.074 -2.3839 -0.4570 -0.8357
 9694SOL    HW235688   1.168  11.194   2.081  2.8672 -0.2410  0.1010
 9695SOL     OW35689   2.786   5.619  11.819  0.6315  0.6417  0.3823
 9695SOL    HW135690   2.880   5.633  11.811  0.8087 -0.9843 -0.9246
 9695SOL    HW235691   2.777   5.554  11.889  0.6894 -0.8103 -0.9045
 9696SOL     OW35692   2.060   6.733   3.850  0.8281 -0.1963 -0.0172
 9696SOL    HW135693   2.029   6.818   3.882  1.1294  0.1430 -0.6153
 9696SOL    HW235694   2.155   6.737   3.859  0.7789 -0.9198  1.0313
 9697SOL     OW35695  10.837  11.499   9.302  0.3018  0.3643  0.0792
 9697SOL    HW135696  10.859  11.409   9.275 -2.1096  0.4747 -2.7718
 9697SOL    HW235697  10.919  11.547   9.292  1.3968 -1.2445  0.6724
 9698SOL     OW35698   3.870  12.618   3.136 -0.2088  0.1848 -0.1690
 9698SOL    HW135699   3.897  12.656   3.219  1.0315  0.1488 -0.5340
 9698SOL    HW235700   3.882  12.688   3.072 -0.1322 -0.1036 -0.4750
 9699SOL     OW35701   3.428   1.137   6.705 -0.0316 -0.6533 -0.1492
 9699SOL    HW135702   3.458   1.160   6.617  1.3811  0.0367  0.4765
 9699SOL    HW235703   3.476   1.057   6.726  0.6186 -0.1130  0.4704
 9700SOL     OW35704   0.427   3.516   4.570 -0.5343 -0.3029  0.1458
 9700SOL    HW135705   0.440   3.607   4.596 -0.6259  0.0412 -0.9751
 9700SOL    HW235706   0.515   3.477   4.577  1.0242  1.4223 -5.0748
 9701SOL     OW35707   4.910   9.499  10.334 -0.2407  0.1413  0.0909
 9701SOL    HW135708   4.909   9.589  10.299 -0.6068 -0.3152 -1.1425
 9701SOL    HW235709   4.822   9.488  10.371  0.1172  0.5975  1.1118
 9702SOL     OW35710  10.131   7.931   5.336 -0.2334 -0.4236 -0.2970
 9702SOL    HW135711  10.062   7.965   5.393 -0.5196 -0.4255 -0.6397
 9702SOL    HW235712  10.115   7.836   5.334 -0.7725 -0.3249 -1.0920
 9703SOL     OW35713   7.811  10.499   9.637  0.4746 -0.7956 -0.1342
 9703SOL    HW135714   7.799  10.508   9.731  1.7622 -0.5551  0.0249
 9703SOL    HW235715   7.723  10.479   9.603  0.2035 -2.1282  1.2511
 9704SOL     OW35716   9.254   6.043   2.373 -0.2768  0.0226  0.0770
 9704SOL    HW135717   9.302   5.988   2.435  0.0603 -0.0099 -0.2099
 9704SOL    HW235718   9.190   6.089   2.427  0.6813  0.7586  0.6269
 9705SOL     OW35719   7.173  11.740   4.992 -0.3798 -0.0299  0.3782
 9705SOL    HW135720   7.106  11.709   4.931  0.0293 -1.6789  0.7083
 9705SOL    HW235721   7.163  11.684   5.069  0.3032  0.8090  1.1075
 9706SOL     OW35722   5.634   1.253   4.675  0.3436  0.2444  0.1559
 9706SOL    HW135723   5.573   1.226   4.606 -1.2594 -0.7634  1.8758
 9706SOL    HW235724   5.601   1.337   4.705  1.7978  1.3264 -1.0931
 9707SOL     OW35725   6.276   6.570   7.959  0.2489 -0.7039  0.2349
 9707SOL    HW135726   6.325   6.575   7.877  0.2743  0.7831  0.3147
 9707SOL    HW235727   6.319   6.632   8.017 -0.2193 -1.1999  1.1419
 9708SOL     OW35728   6.939  12.301   7.685  0.1063  0.2358  0.1657
 9708SOL    HW135729   6.954  12.259   7.601 -0.4668 -1.4006  0.8398
 9708SOL    HW235730   6.870  12.365   7.668  0.3119  0.2356 -0.6936
 9709SOL     OW35731   9.835   9.533   9.703 -0.3020  0.1832 -0.0306
 9709SOL    HW135732   9.870   9.556   9.789 -1.1520  0.3835  0.2735
 9709SOL    HW235733   9.889   9.582   9.641 -0.3612  0.8745  0.4573
 9710SOL     OW35734   8.722   3.452  10.069  0.5024  0.0527  0.1669
 9710SOL    HW135735   8.684   3.482   9.986  0.2765 -0.1642  0.1888
 9710SOL    HW235736   8.727   3.530  10.123  0.2569  0.1184  0.0973
 9711SOL     OW35737   8.472   4.216  10.552 -0.5812 -0.6464 -0.2936
 9711SOL    HW135738   8.565   4.206  10.571 -0.1430 -0.7337 -2.2304
 9711SOL    HW235739   8.436   4.128  10.557  0.3404 -1.3211 -3.4841
 9712SOL     OW35740  10.219   8.421   6.321  0.5554 -0.0620 -0.2932
 9712SOL    HW135741  10.137   8.372   6.327  0.4207  0.2488  0.5467
 9712SOL    HW235742  10.221   8.475   6.400 -0.2634  2.7750 -2.0294
 9713SOL     OW35743   7.272   7.769   3.139 -0.5090  0.6153  0.2074
 9713SOL    HW135744   7.241   7.700   3.080  0.7781  2.1015 -2.4087
 9713SOL    HW235745   7.367   7.761   3.139 -0.4472  1.1653  1.4537
 9714SOL     OW35746   2.493   4.978   5.848 -0.1057  0.7417 -0.3678
 9714SOL    HW135747   2.542   5.058   5.866  1.1623  0.4495 -2.1942
 9714SOL    HW235748   2.401   5.002   5.861  0.4221  1.2968  3.1499
 9715SOL     OW35749   3.114  12.618  12.338 -0.4436 -0.3851  0.2427
 9715SOL    HW135750   3.024  12.622  12.309 -0.3464  0.4737  0.0475
 9715SOL    HW235751   3.108  12.607  12.433 -0.8231  3.5716  0.8280
 9716SOL     OW35752   7.329  11.212  11.011 -0.4471 -0.2831 -0.0223
 9716SOL    HW135753   7.350  11.305  11.012 -1.0746 -0.1287 -0.7001
 9716SOL    HW235754   7.303  11.192  11.101 -0.5722  0.2541  0.0659
 9717SOL     OW35755  12.616   2.056   0.099 -0.1910 -0.2098 -0.2372
 9717SOL    HW135756  12.523   2.035   0.104 -0.2394 -0.0465 -0.4914
 9717SOL    HW235757  12.644   2.061   0.190 -0.6537  0.7504 -0.1343
 9718SOL     OW35758  10.724  12.670   0.223 -0.4685  0.0227 -0.4387
 9718SOL    HW135759  10.628  12.679   0.229 -0.4684 -0.3933  0.2926
 9718SOL    HW235760  10.745  12.705   0.136 -1.0364  2.0904  0.1935
 9719SOL     OW35761  10.881   0.323   9.254 -0.4322 -0.2520 -0.6396
 9719SOL    HW135762  10.911   0.235   9.233 -0.5299 -0.2599 -0.7498
 9719SOL    HW235763  10.912   0.377   9.181 -0.9277 -0.3125 -0.9051
 9720SOL     OW35764   7.297  11.922   2.400  0.2572 -0.3784  0.4266
 9720SOL    HW135765   7.283  11.884   2.312  0.5527 -1.4868  0.8381
 9720SOL    HW235766   7.367  11.985   2.387 -1.0027  0.9062 -0.5022
 9721SOL     OW35767  12.239   1.971   3.980  0.0003 -0.1407  0.1816
 9721SOL    HW135768  12.293   1.975   4.060 -0.2011 -0.2926  0.3258
 9721SOL    HW235769  12.234   1.878   3.960 -2.1616 -0.3661  1.5065
 9722SOL     OW35770   3.382  11.792  12.653  0.2858 -0.4913 -0.4685
 9722SOL    HW135771   3.395  11.702  12.682  1.3214 -0.2909 -0.2796
 9722SOL    HW235772   3.459  11.839  12.685 -0.9531  0.7904  0.7200
 9723SOL     OW35773   6.495   2.402  10.833 -0.1169  0.1843 -0.1360
 9723SOL    HW135774   6.515   2.494  10.817 -2.0797  0.4946 -1.1021
 9723SOL    HW235775   6.400   2.400  10.844 -0.0837 -1.7064  0.1571
 9724SOL     OW35776   6.477  12.043   3.997 -0.2195  0.2336  0.6940
 9724SOL    HW135777   6.506  12.052   3.906 -2.1235 -0.1065  0.0149
 9724SOL    HW235778   6.531  12.106   4.046  2.2100 -0.9587 -0.3066
 9725SOL     OW35779  10.457   8.814   2.214 -0.4737  0.1413  0.6988
 9725SOL    HW135780  10.396   8.832   2.286  1.7157  0.3538  2.5956
 9725SOL    HW235781  10.433   8.727   2.184  1.0160 -1.8215  4.4910
 9726SOL     OW35782   7.431   9.981   5.407 -0.7203 -0.0765  0.2260
 9726SOL    HW135783   7.455   9.950   5.320  0.5983  0.3617  0.4046
 9726SOL    HW235784   7.372  10.055   5.391  1.1961  1.3932 -0.3981
 9727SOL     OW35785  11.683   0.271   2.731 -0.2928 -0.5828  0.1864
 9727SOL    HW135786  11.680   0.365   2.748 -1.1814 -0.7976  1.3430
 9727SOL    HW235787  11.603   0.237   2.772 -0.2631 -1.7743 -0.6897
 9728SOL     OW35788   2.704   4.326   4.716  0.0106  0.4463  0.4233
 9728SOL    HW135789   2.772   4.378   4.759 -0.0615  1.7359 -0.9134
 9728SOL    HW235790   2.656   4.390   4.662 -1.2381 -0.7168  0.0993
 9729SOL     OW35791   6.674   1.436   3.833  0.3864 -0.5596  0.5696
 9729SOL    HW135792   6.706   1.403   3.748 -1.4668  1.4518 -1.0158
 9729SOL    HW235793   6.586   1.399   3.841  0.2958 -0.1939  1.3000
 9730SOL     OW35794   0.397   9.632   6.231  0.2876 -0.4480  0.4771
 9730SOL    HW135795   0.460   9.636   6.303 -1.4610  1.3907  2.0245
 9730SOL    HW235796   0.444   9.669   6.156  1.1347  0.6978  1.5340
 9731SOL     OW35797  12.083   8.570   2.804 -0.4761 -0.5261  0.0442
 9731SOL    HW135798  12.165   8.601   2.764 -0.2302 -0.2180  0.7722
 9731SOL    HW235799  12.066   8.633   2.874 -1.4957 -0.4289 -0.2798
 9732SOL     OW35800   4.332   7.024   3.264 -0.0367 -0.1371 -0.2794
 9732SOL    HW135801   4.239   7.011   3.248 -0.2490  1.4331 -0.4636
 9732SOL    HW235802   4.370   7.037   3.178  0.2539 -0.2015 -0.1620
 9733SOL     OW35803   1.904  12.248   9.444 -0.1543  0.5637 -0.5318
 9733SOL    HW135804   1.818  12.271   9.409 -0.2011  0.5413 -0.4325
 9733SOL    HW235805   1.965  12.268   9.373  0.0202  2.7307  0.1398
 9734SOL     OW35806   8.878   1.743   1.655  0.2235 -0.3478  0.2526
 9734SOL    HW135807   8.812   1.681   1.623 -1.9759  1.2379  1.4884
 9734SOL    HW235808   8.840   1.779   1.735  1.2722  2.7784 -0.5199
 9735SOL     OW35809   0.127   4.768  11.475 -0.1183 -0.4507 -0.2369
 9735SOL    HW135810   0.110   4.759  11.569 -0.2160 -0.5320 -0.2631
 9735SOL    HW235811   0.082   4.848  11.450 -1.2293 -1.1387 -0.4934
 9736SOL     OW35812   6.145   0.243  12.022  0.2707  0.1276 -0.4652
 9736SOL    HW135813   6.061   0.283  12.044  2.1173  3.9866  0.3748
 9736SOL    HW235814   6.178   0.207  12.104 -0.1096 -0.5842 -0.6125
 9737SOL     OW35815  11.181   2.155   1.750  0.4693  0.5089 -0.5799
 9737SOL    HW135816  11.245   2.139   1.820 -0.6769  1.1371  0.6375
 9737SOL    HW235817  11.107   2.196   1.794 -1.4114 -1.5204 -1.7023
 9738SOL     OW35818   9.683   3.400   8.703  0.1053  0.3466 -0.1629
 9738SOL    HW135819   9.758   3.421   8.759  1.3145  0.0816 -1.6137
 9738SOL    HW235820   9.672   3.306   8.713 -0.4649  0.4862  0.5558
 9739SOL     OW35821   8.429  12.238   4.038 -0.1903  0.6053  0.7681
 9739SOL    HW135822   8.401  12.325   4.066  2.3614  0.9698  2.4469
 9739SOL    HW235823   8.469  12.199   4.116 -0.1078 -1.6043 -0.2902
 9740SOL     OW35824   5.574   0.208   2.378 -0.1771 -0.1868  0.7930
 9740SOL    HW135825   5.501   0.244   2.429 -1.4097  0.0319 -0.9855
 9740SOL    HW235826   5.616   0.285   2.339 -1.6575 -0.4196 -1.5120
 9741SOL     OW35827   2.911  12.339   7.198  0.1374  0.0116  0.3898
 9741SOL    HW135828   2.995  12.382   7.186 -0.5131  2.0622  2.6086
 9741SOL    HW235829   2.873  12.338   7.110  1.5445  1.0359 -0.2775
 9742SOL     OW35830   7.034   7.466   4.690  0.2303 -0.0170 -0.9446
 9742SOL    HW135831   7.062   7.453   4.781  0.5137 -0.0497 -1.0355
 9742SOL    HW235832   7.107   7.512   4.649  0.2902 -0.3990 -1.2701
 9743SOL     OW35833   7.939   3.765  10.803 -0.5086 -0.1637 -0.5148
 9743SOL    HW135834   7.867   3.783  10.742 -0.9622 -2.0238 -0.5674
 9743SOL    HW235835   7.897   3.735  10.883  0.1526  0.8445  0.2407
 9744SOL     OW35836   8.754   9.071   4.379  0.5152  0.0953  0.0714
 9744SOL    HW135837   8.723   9.152   4.337 -1.4332 -0.6818 -0.1093
 9744SOL    HW235838   8.713   9.072   4.466  0.3000 -0.7826 -0.0082
 9745SOL     OW35839  11.560   5.218   0.978  0.2374  0.3248 -0.3468
 9745SOL    HW135840  11.472   5.189   0.953  0.3891  0.6811 -1.3067
 9745SOL    HW235841  11.569   5.304   0.938  2.1735 -0.9505 -2.9404
 9746SOL     OW35842   3.070   0.579   9.349  0.4462 -0.0327 -0.0760
 9746SOL    HW135843   3.084   0.579   9.254 -1.5163  0.2643 -0.4064
 9746SOL    HW235844   2.975   0.584   9.359  0.4356 -2.4770  1.9114
 9747SOL     OW35845  12.182  11.100  10.222  0.0735 -0.2247 -0.0439
 9747SOL    HW135846  12.178  11.049  10.303  1.0096  0.2476  0.3163
 9747SOL    HW235847  12.142  11.184  10.246  1.4567  0.3608  0.2994
 9748SOL     OW35848   1.333   8.499   6.495  0.4152 -0.5069 -0.2075
 9748SOL    HW135849   1.298   8.494   6.406  0.4785  1.1063 -0.3518
 9748SOL    HW235850   1.269   8.552   6.543 -0.0769 -2.0888  0.9746
 9749SOL     OW35851   3.097  10.582  11.337 -0.7713 -0.0606  0.2872
 9749SOL    HW135852   3.034  10.510  11.330 -2.8835  1.5094  1.8703
 9749SOL    HW235853   3.050  10.658  11.301  0.8767  0.8493 -0.0436
 9750SOL     OW35854   3.041  11.064  10.400 -0.3491 -0.6507 -0.0265
 9750SOL    HW135855   3.065  11.136  10.458 -3.2556  0.7429 -0.3648
 9750SOL    HW235856   3.043  10.986  10.455 -0.5643  0.2466  1.2934
 9751SOL     OW35857  11.546   0.597   9.308 -0.3191 -0.1679 -0.0819
 9751SOL    HW135858  11.515   0.658   9.374  0.2871  1.6676 -1.4006
 9751SOL    HW235859  11.641   0.609   9.307 -0.3483  0.1842 -1.5335
 9752SOL     OW35860   7.070   0.807   4.568  0.5645  0.4012 -1.0108
 9752SOL    HW135861   7.023   0.856   4.501 -1.6611 -0.0684  0.1053
 9752SOL    HW235862   7.028   0.832   4.650  1.2567 -1.2324 -0.1115
 9753SOL     OW35863   6.878   3.144   3.385 -0.0442 -0.4030 -0.8844
 9753SOL    HW135864   6.956   3.177   3.429 -0.9752 -2.3723  2.6210
 9753SOL    HW235865   6.830   3.223   3.360  1.1672  0.8795  0.6152
 9754SOL     OW35866   9.559  10.831   5.026  1.1722  0.5953  0.6811
 9754SOL    HW135867   9.607  10.760   4.983  1.2712  2.1353 -1.9303
 9754SOL    HW235868   9.487  10.851   4.966  0.2799  1.7537  2.0723
 9755SOL     OW35869  12.404   2.441   3.734  0.4020  0.4796 -0.2080
 9755SOL    HW135870  12.366   2.511   3.788 -0.1334  0.3660 -0.4245
 9755SOL    HW235871  12.405   2.478   3.645  2.0877  0.9941 -0.0121
 9756SOL     OW35872   9.299   1.127   9.166 -0.0173  0.0592 -0.0727
 9756SOL    HW135873   9.205   1.131   9.181 -0.0244 -0.1574 -0.0685
 9756SOL    HW235874   9.329   1.051   9.215  0.6054  1.7307  2.2855
 9757SOL     OW35875   2.985   3.668   3.037 -0.7619  0.6151 -0.0675
 9757SOL    HW135876   2.928   3.707   2.971 -0.8025 -1.1878 -1.1898
 9757SOL    HW235877   3.011   3.584   2.998 -0.1019 -0.1275  1.8681
 9758SOL     OW35878  10.178   2.829   1.271  0.1955 -0.2859  0.3368
 9758SOL    HW135879  10.125   2.864   1.342  0.6312 -0.8933  0.9842
 9758SOL    HW235880  10.125   2.759   1.233  0.2487 -0.4386  0.5399
 9759SOL     OW35881   7.874  11.264   1.694 -0.1394 -0.0118 -0.2865
 9759SOL    HW135882   7.945  11.201   1.683  0.5838  0.7272  0.0878
 9759SOL    HW235883   7.805  11.215   1.739 -0.0094 -0.8286 -0.9547
 9760SOL     OW35884   9.855   6.727  11.213 -0.2543 -0.0798  0.3808
 9760SOL    HW135885   9.878   6.756  11.301 -0.4291 -0.1792  0.4591
 9760SOL    HW235886   9.760   6.713  11.216 -0.3222  0.2993  0.0648
 9761SOL     OW35887  11.699   4.542   3.741  0.1745 -0.3163  0.5230
 9761SOL    HW135888  11.779   4.513   3.785  1.0821 -1.7611 -1.8375
 9761SOL    HW235889  11.631   4.483   3.773  0.4916 -0.3894  1.0653
 9762SOL     OW35890  11.970   6.100   7.767  0.2555  0.2214  0.2080
 9762SOL    HW135891  11.993   6.128   7.856 -1.0505 -2.0388  1.3185
 9762SOL    HW235892  11.943   6.181   7.724  1.3191  1.4509  1.7034
 9763SOL     OW35893   4.269   3.829   6.923 -0.0149 -0.2914 -0.2484
 9763SOL    HW135894   4.262   3.915   6.880 -1.2407  0.1720  0.8033
 9763SOL    HW235895   4.245   3.846   7.014 -0.1058 -1.7311  0.0163
 9764SOL     OW35896   9.583   0.800   8.728  0.1272 -0.0818 -0.1048
 9764SOL    HW135897   9.553   0.846   8.807  1.0682  0.1454  0.1343
 9764SOL    HW235898   9.674   0.827   8.718  0.5010 -1.3758 -0.3512
 9765SOL     OW35899   2.670   3.552   1.099  0.4085  0.1415  0.4847
 9765SOL    HW135900   2.724   3.610   1.045  1.1823  0.2482  1.3592
 9765SOL    HW235901   2.684   3.465   1.063  0.5721  0.2664  0.2427
 9766SOL     OW35902   4.100  10.166   8.237 -0.0824 -0.0063 -0.4873
 9766SOL    HW135903   4.035  10.214   8.185  1.0600  0.6942 -1.3140
 9766SOL    HW235904   4.181  10.173   8.187  1.0974  0.7438  1.3828
 9767SOL     OW35905   8.475   7.729  12.369 -0.1772 -0.3556 -0.5456
 9767SOL    HW135906   8.416   7.805  12.365  0.6012  0.3948  1.2150
 9767SOL    HW235907   8.416   7.654  12.382 -1.0183 -0.2314 -3.0499
 9768SOL     OW35908   6.499   8.792   1.125 -0.7114 -0.1969 -0.4977
 9768SOL    HW135909   6.531   8.774   1.213 -1.8655 -1.8263 -0.3605
 9768SOL    HW235910   6.566   8.848   1.086  0.2713 -0.2015  1.0925
 9769SOL     OW35911   1.888   2.243   0.203  0.4731 -0.0708  0.0790
 9769SOL    HW135912   1.853   2.207   0.122 -0.1741 -0.6665  0.6112
 9769SOL    HW235913   1.977   2.270   0.181  0.0494  0.4830 -1.0202
 9770SOL     OW35914   3.835   2.321   4.307  0.5834 -0.4155 -0.1236
 9770SOL    HW135915   3.879   2.406   4.318  0.6058 -0.4511  0.0591
 9770SOL    HW235916   3.852   2.297   4.216  0.3731 -0.1069 -0.2499
 9771SOL     OW35917   5.498  11.718  10.103  0.3908  0.4478  0.4208
 9771SOL    HW135918   5.467  11.742  10.190  1.0864  1.0907  0.4992
 9771SOL    HW235919   5.496  11.622  10.102  0.8140  0.4236  1.2926
 9772SOL     OW35920  10.259  11.649  12.729 -0.2531 -0.3260  0.4893
 9772SOL    HW135921  10.300  11.563  12.740  0.5680 -0.2304 -1.3943
 9772SOL    HW235922  10.308  11.706  12.789  1.3739 -0.5502 -0.5576
 9773SOL     OW35923   5.105   1.800  12.110  0.2263  0.0243 -0.0509
 9773SOL    HW135924   5.179   1.818  12.168 -0.3579  0.0117  0.7290
 9773SOL    HW235925   5.137   1.736  12.048  0.4984 -0.9989  1.1091
 9774SOL     OW35926   1.114   9.365   5.326 -0.5496 -0.8294 -0.7134
 9774SOL    HW135927   1.028   9.323   5.337  0.1118 -2.3333 -1.0193
 9774SOL    HW235928   1.119   9.428   5.398 -1.8363 -0.8334 -0.5941
 9775SOL     OW35929   3.016   7.932   8.324 -0.1819  0.3753 -0.1167
 9775SOL    HW135930   2.995   7.870   8.395  0.5730  0.5275  0.2435
 9775SOL    HW235931   2.937   7.932   8.269 -0.4759 -0.3459  0.2851
 9776SOL     OW35932   4.313  12.272   8.014 -0.3068 -0.5947  0.1247
 9776SOL    HW135933   4.317  12.204   8.082  0.7149  1.2485  2.0200
 9776SOL    HW235934   4.236  12.324   8.037 -1.5568 -1.4905 -1.7829
 9777SOL     OW35935   6.160  12.693   5.375 -0.2504  0.2952 -0.2534
 9777SOL    HW135936   6.084  12.635   5.375 -0.2191  0.2361 -1.4818
 9777SOL    HW235937   6.179  12.707   5.468  0.7250 -2.9784  0.1713
 9778SOL     OW35938   6.193   2.036   0.899 -0.8278 -0.5607 -0.4083
 9778SOL    HW135939   6.161   2.126   0.893  0.5291 -0.0725 -0.7651
 9778SOL    HW235940   6.115   1.982   0.890 -1.6244  0.5763 -0.5546
 9779SOL     OW35941   2.236   5.048   9.275  0.2165 -0.0766 -0.1704
 9779SOL    HW135942   2.216   5.011   9.189 -1.0095 -1.3864  0.6391
 9779SOL    HW235943   2.325   5.082   9.266  0.7376 -1.6487 -1.5030
 9780SOL     OW35944   7.466   1.406   1.584 -0.3038 -0.2576  0.2572
 9780SOL    HW135945   7.526   1.447   1.645  0.1865 -2.0100  1.0291
 9780SOL    HW235946   7.388   1.386   1.636  0.1841 -1.9173  0.4290
 9781SOL     OW35947   2.481   2.224   4.781 -0.2372 -0.0289  0.3408
 9781SOL    HW135948   2.572   2.251   4.799 -0.4708  1.2509 -0.2627
 9781SOL    HW235949   2.489   2.137   4.742  0.7418  0.0634  0.3023
 9782SOL     OW35950   9.776   9.326  11.939 -0.6209 -0.4337  0.7298
 9782SOL    HW135951   9.706   9.352  11.999 -0.9362 -0.7436  0.4988
 9782SOL    HW235952   9.737   9.334  11.852 -0.2600 -0.2798  0.5818
 9783SOL     OW35953   5.837   5.852   5.696 -0.0703 -0.4707  0.6731
 9783SOL    HW135954   5.860   5.878   5.607 -1.1316 -0.4403  0.3891
 9783SOL    HW235955   5.882   5.915   5.752  1.5718 -1.2020  0.2388
 9784SOL     OW35956   3.467   0.987   1.899 -0.0442  0.3131 -0.3018
 9784SOL    HW135957   3.539   1.043   1.928 -0.0895  0.6763 -0.8657
 9784SOL    HW235958   3.416   1.043   1.840  0.1074 -0.4330 -1.1587
 9785SOL     OW35959   9.349   1.046  12.598 -0.6469 -0.1530 -0.0759
 9785SOL    HW135960   9.420   1.088  12.646 -0.8087 -1.1552  1.1009
 9785SOL    HW235961   9.392   1.000  12.526 -0.0786 -0.8611  0.7057
 9786SOL     OW35962   3.611  11.497   5.102 -0.1927 -0.1359 -0.4061
 9786SOL    HW135963   3.566  11.441   5.164  1.2231 -1.4605 -0.5096
 9786SOL    HW235964   3.597  11.456   5.016  1.2246 -0.6421 -0.4273
 9787SOL     OW35965   0.639   6.844  12.200 -0.3446 -0.1959  0.0855
 9787SOL    HW135966   0.679   6.926  12.170  1.6447 -1.3801 -0.7197
 9787SOL    HW235967   0.554   6.870  12.235 -0.5098  1.9971 -1.6839
 9788SOL     OW35968   6.549   2.167   0.223 -0.5839 -0.0839  0.7648
 9788SOL    HW135969   6.613   2.236   0.209 -0.9633 -0.0546 -1.1313
 9788SOL    HW235970   6.481   2.183   0.157 -0.5866 -2.3580  0.1055
 9789SOL     OW35971   2.924   2.478   5.208 -0.4224 -0.3342 -0.5932
 9789SOL    HW135972   2.980   2.549   5.241  1.8707 -1.3647 -1.9710
 9789SOL    HW235973   2.879   2.516   5.133 -0.6190  0.1731 -0.2252
 9790SOL     OW35974   4.669  12.474   4.264 -0.2296 -0.2830 -0.4456
 9790SOL    HW135975   4.606  12.546   4.269 -1.3976 -1.2521 -0.4948
 9790SOL    HW235976   4.725  12.485   4.341 -1.6088 -0.3787  0.6265
 9791SOL     OW35977   5.595   9.270   7.162 -0.4714 -0.5618  0.2504
 9791SOL    HW135978   5.603   9.364   7.178 -1.4688 -0.4451  0.1303
 9791SOL    HW235979   5.500   9.253   7.165 -0.4757 -1.1626 -1.9830
 9792SOL     OW35980   9.483  10.813  11.789 -0.3373 -0.3442 -0.3104
 9792SOL    HW135981   9.488  10.826  11.884  0.3732  0.8626 -0.4901
 9792SOL    HW235982   9.394  10.783  11.774 -0.3760 -0.8449  0.7662
 9793SOL     OW35983  11.566  11.974   8.545 -0.4073  0.1714  0.3317
 9793SOL    HW135984  11.578  12.054   8.596  1.0971 -0.8937  1.7637
 9793SOL    HW235985  11.613  11.990   8.463 -1.2576  1.2154  0.0306
 9794SOL     OW35986  11.241   7.198   6.041 -0.4603  0.1728 -0.0342
 9794SOL    HW135987  11.289   7.279   6.056 -0.3053  0.2597 -0.9230
 9794SOL    HW235988  11.266   7.171   5.952 -0.6179 -0.7742  0.1941
 9795SOL     OW35989   6.007   1.368   4.207 -0.0011  0.0384 -0.3570
 9795SOL    HW135990   6.070   1.440   4.215  0.5611 -0.5755  1.3441
 9795SOL    HW235991   5.922   1.411   4.202  0.1869  0.8771  2.1208
 9796SOL     OW35992   1.405   7.183   9.680  0.0732  0.3117 -0.6229
 9796SOL    HW135993   1.327   7.135   9.707  0.0312  0.6983 -0.0443
 9796SOL    HW235994   1.390   7.273   9.709  2.4263 -0.2966  3.3633
 9797SOL     OW35995   0.764   2.886   2.599  0.5251 -0.3608 -0.5816
 9797SOL    HW135996   0.810   2.806   2.573 -0.0220 -0.3906 -1.4804
 9797SOL    HW235997   0.815   2.956   2.559  2.4661 -0.0067  2.2090
 9798SOL     OW35998   2.445   6.935   2.513 -0.5394 -0.1409 -0.2346
 9798SOL    HW135999   2.426   6.964   2.603 -3.7111 -0.9338 -0.5232
 9798SOL    HW236000   2.483   6.847   2.524  0.3531  0.3036  0.3437
 9799SOL     OW36001   8.506   3.794   0.859  0.5015 -0.5672  0.1793
 9799SOL    HW136002   8.420   3.757   0.876 -0.4247  2.1946  2.1109
 9799SOL    HW236003   8.564   3.718   0.853 -1.7803 -2.4284  0.3402
 9800SOL     OW36004  11.667   3.351   8.739  0.5015  0.1778  0.2804
 9800SOL    HW136005  11.670   3.402   8.658 -0.5702 -0.4929 -0.2041
 9800SOL    HW236006  11.574   3.330   8.750  0.7082 -0.2007  1.3954
 9801SOL     OW36007   6.498   4.170  11.414 -0.5170 -0.6884 -0.1343
 9801SOL    HW136008   6.410   4.199  11.389 -0.2942  0.0322 -0.0910
 9801SOL    HW236009   6.551   4.188  11.336  0.3466  2.2625  1.0088
 9802SOL     OW36010  11.208   0.178   3.549  0.1035 -0.6311 -0.0880
 9802SOL    HW136011  11.254   0.248   3.595  0.4402 -1.3471  0.6972
 9802SOL    HW236012  11.251   0.098   3.580 -1.8836 -1.3630  0.9161
 9803SOL     OW36013   7.656   1.136  11.882 -0.2851  0.8798  0.1071
 9803SOL    HW136014   7.694   1.049  11.874 -0.3189  0.9179 -0.4893
 9803SOL    HW236015   7.574   1.122  11.928 -0.7769  0.4599 -0.8752
 9804SOL     OW36016   0.871   1.685   4.193 -0.4794  0.1465 -0.4767
 9804SOL    HW136017   0.888   1.775   4.220 -0.6896  0.1355 -0.3158
 9804SOL    HW236018   0.811   1.650   4.259 -1.1083  0.1674 -1.0285
 9805SOL     OW36019   3.829   7.928  11.087  0.2382  0.1772  0.0121
 9805SOL    HW136020   3.742   7.888  11.093  0.2276  0.1803 -0.1116
 9805SOL    HW236021   3.887   7.856  11.063 -0.3327  0.8118 -4.0432
 9806SOL     OW36022   6.158   1.562  10.375  0.3643 -0.5222  0.6203
 9806SOL    HW136023   6.126   1.472  10.368 -1.1915 -0.0239  0.9828
 9806SOL    HW236024   6.198   1.580  10.290 -1.1118 -0.8961 -0.1907
 9807SOL     OW36025  10.524  12.335   0.110  0.3746 -0.2864  0.6615
 9807SOL    HW136026  10.448  12.353   0.054  1.1056 -2.3876 -1.1649
 9807SOL    HW236027  10.507  12.383   0.190 -0.3872  3.5921 -1.5889
 9808SOL     OW36028   2.837   2.697  10.752 -0.3368  0.4050 -0.1613
 9808SOL    HW136029   2.812   2.608  10.780 -0.6887  0.2036 -1.0803
 9808SOL    HW236030   2.920   2.685  10.706  0.9658  0.9245  1.9197
 9809SOL     OW36031  11.748  12.615   6.497  0.4735  0.2127  0.0845
 9809SOL    HW136032  11.658  12.605   6.468 -0.3459 -1.5230  2.8461
 9809SOL    HW236033  11.789  12.530   6.479  1.0199  0.3732  0.5434
 9810SOL     OW36034  12.532   4.349  12.614 -0.2105  0.0238  0.2633
 9810SOL    HW136035  12.494   4.429  12.651 -0.1730 -0.3436  1.1105
 9810SOL    HW236036  12.615   4.377  12.577  0.2374  0.2210  1.3762
 9811SOL     OW36037  11.602   2.686   4.346  0.4108  0.1670 -0.5439
 9811SOL    HW136038  11.608   2.593   4.326  3.3107 -0.5360  2.6558
 9811SOL    HW236039  11.646   2.730   4.273  0.6846 -1.1403 -1.1850
 9812SOL     OW36040   2.900   7.758   4.413 -0.2730  0.7994 -0.2232
 9812SOL    HW136041   2.889   7.852   4.423  0.4287  0.7636  1.1246
 9812SOL    HW236042   2.828   7.731   4.355 -0.2746  2.1916 -0.9147
 9813SOL     OW36043   0.130   9.046   7.333 -0.2571  0.3469  0.3618
 9813SOL    HW136044   0.143   8.977   7.399  1.5358 -0.3972 -0.7124
 9813SOL    HW236045   0.197   9.111   7.352  0.5961 -0.1049 -0.9984
 9814SOL     OW36046   7.373   9.176  11.431  0.1974  0.1193  0.3135
 9814SOL    HW136047   7.336   9.139  11.351  1.4251  0.1391 -0.2977
 9814SOL    HW236048   7.325   9.133  11.502 -0.0048 -0.9123 -0.4174
 9815SOL     OW36049   7.826   6.425   9.814 -0.0594  0.1627  0.2166
 9815SOL    HW136050   7.822   6.498   9.876 -1.0662  0.3599 -0.0652
 9815SOL    HW236051   7.886   6.362   9.855 -1.4678 -0.1584  1.9018
 9816SOL     OW36052   1.137   2.585   7.844  0.4190  0.1218  0.5704
 9816SOL    HW136053   1.069   2.527   7.808  0.0960 -0.1856  1.6180
 9816SOL    HW236054   1.184   2.530   7.906  1.0963  0.5727  0.4583
 9817SOL     OW36055  11.672  11.740   4.842 -0.2084  0.6494  0.8524
 9817SOL    HW136056  11.580  11.728   4.865 -0.7439  1.9100 -0.4401
 9817SOL    HW236057  11.715  11.660   4.872 -1.8205 -0.2026  1.0138
 9818SOL     OW36058   0.147   6.008   2.025  0.0568  0.4047  0.3594
 9818SOL    HW136059   0.135   5.930   1.971  0.8729 -0.1394  0.9405
 9818SOL    HW236060   0.059   6.045   2.033 -0.1570  0.1789 -0.8555
 9819SOL     OW36061   2.205   1.685  10.925 -0.6796 -0.3514 -0.2519
 9819SOL    HW136062   2.168   1.772  10.932  0.7234  0.4787 -2.1405
 9819SOL    HW236063   2.196   1.663  10.832  2.8157 -0.3356 -0.7377
 9820SOL     OW36064   2.764   8.547   9.553  0.5114  0.3097  0.5156
 9820SOL    HW136065   2.707   8.544   9.476  1.9794  1.7586 -0.6972
 9820SOL    HW236066   2.718   8.602   9.615 -0.2598 -0.1037  0.3253
 9821SOL     OW36067   6.886   2.121   9.031 -0.1755  0.7337 -0.0400
 9821SOL    HW136068   6.947   2.170   9.085  0.0212 -0.2241  0.6088
 9821SOL    HW236069   6.808   2.112   9.085  0.3867 -1.1250  0.5225
 9822SOL     OW36070   5.344   0.069   7.042 -0.1600 -0.3407 -0.2630
 9822SOL    HW136071   5.432   0.099   7.064 -0.3020 -0.1279  0.0143
 9822SOL    HW236072   5.306   0.141   6.990 -0.0951 -0.5237 -0.5701
 9823SOL     OW36073   7.753  10.805   0.026 -0.1593  0.3708 -0.0382
 9823SOL    HW136074   7.689  10.845  -0.032 -2.2451  0.3300  2.0565
 9823SOL    HW236075   7.833  10.856   0.013 -0.5630  0.4642 -2.7051
 9824SOL     OW36076   5.451   6.153   1.256  0.2024 -0.7586 -0.2294
 9824SOL    HW136077   5.526   6.095   1.242 -0.7820 -2.0755 -0.2493
 9824SOL    HW236078   5.376   6.094   1.265 -1.1477  0.5578 -2.0659
 9825SOL     OW36079   7.304   0.062   3.621 -0.3304 -0.2428 -0.2577
 9825SOL    HW136080   7.343  -0.005   3.564  4.0022  0.8652  1.0358
 9825SOL    HW236081   7.299   0.021   3.707  1.8753  0.7722  0.4319
 9826SOL     OW36082   7.883   5.539   2.165 -0.3482 -0.3681  0.1626
 9826SOL    HW136083   7.977   5.520   2.165 -0.1349  0.5324  1.4084
 9826SOL    HW236084   7.871   5.597   2.240 -1.6107  0.9857 -1.0332
 9827SOL     OW36085   2.690   8.029   0.865  0.2426  1.1099 -0.3127
 9827SOL    HW136086   2.719   8.075   0.786  1.6517  0.3196 -0.2720
 9827SOL    HW236087   2.704   8.092   0.936  0.6898  1.1725 -0.4573
 9828SOL     OW36088  12.627   6.529   7.856  0.5236 -0.4435 -0.0007
 9828SOL    HW136089  12.703   6.580   7.882  0.1660  0.4183 -0.5937
 9828SOL    HW236090  12.552   6.586   7.873  0.0135 -1.1989  0.3833
 9829SOL     OW36091   6.491   3.458   9.598 -0.0064 -0.0959 -0.0743
 9829SOL    HW136092   6.462   3.380   9.552 -0.8817  0.9714 -1.3797
 9829SOL    HW236093   6.449   3.453   9.684 -0.4168 -0.8300 -0.3180
 9830SOL     OW36094   6.290   7.703  11.334  0.0368 -0.5709 -0.4449
 9830SOL    HW136095   6.292   7.612  11.305 -0.4458 -0.7917  0.1963
 9830SOL    HW236096   6.198   7.729  11.325  0.0787 -0.3092 -0.1383
 9831SOL     OW36097   7.155   7.997   1.079 -0.3782  0.0395 -0.8493
 9831SOL    HW136098   7.234   8.027   1.034 -0.7413  1.3100 -0.6779
 9831SOL    HW236099   7.140   7.909   1.045  0.4319  0.2438 -1.7788
 9832SOL     OW36100  11.522  12.681   0.605  0.0821 -0.4189 -0.1955
 9832SOL    HW136101  11.529  12.729   0.688 -0.4494  0.8346 -0.8436
 9832SOL    HW236102  11.569  12.599   0.621  1.8856  0.7096  0.6636
 9833SOL     OW36103   0.337   8.200   3.119 -0.6688 -0.3886  0.2501
 9833SOL    HW136104   0.371   8.257   3.050  0.3583  0.1807  1.2038
 9833SOL    HW236105   0.332   8.114   3.079  3.4469 -0.8983  0.4489
 9834SOL     OW36106   3.458   3.807   1.381 -0.2089 -0.5085 -0.0797
 9834SOL    HW136107   3.398   3.881   1.376 -0.5203 -0.7302  0.3084
 9834SOL    HW236108   3.525   3.835   1.444  1.1771  0.4866 -1.8769
 9835SOL     OW36109   6.914  10.738   4.727  0.3516  0.0390  0.0918
 9835SOL    HW136110   6.883  10.784   4.805  0.5457  1.5548 -0.6994
 9835SOL    HW236111   6.871  10.652   4.732  1.0380 -0.2490  2.3019
 9836SOL     OW36112   0.067   8.323   5.994 -0.0508  0.5962  0.0335
 9836SOL    HW136113   0.143   8.350   6.045 -0.0091  1.0240 -0.2439
 9836SOL    HW236114  -0.008   8.337   6.052  0.0329  0.7065  0.1147
 9837SOL     OW36115   6.321   5.365   9.740 -0.2673 -0.2066  0.2411
 9837SOL    HW136116   6.233   5.382   9.708 -0.6384  1.8320  2.0548
 9837SOL    HW236117   6.379   5.403   9.674 -0.8916  0.9642  0.3306
 9838SOL     OW36118   4.188  11.911   3.438  0.3556  0.2243 -0.9408
 9838SOL    HW136119   4.125  11.983   3.425 -0.5638 -0.1879  0.8854
 9838SOL    HW236120   4.238  11.938   3.515  1.0663 -0.3855 -1.1871
 9839SOL     OW36121   2.571   9.277  12.722 -0.7705  0.6154 -0.0049
 9839SOL    HW136122   2.572   9.368  12.749  1.4059  1.4337 -2.4126
 9839SOL    HW236123   2.546   9.279  12.630 -1.4927 -1.3222  0.0923
 9840SOL     OW36124   6.570  10.196   8.855 -0.2830  0.3041  0.1940
 9840SOL    HW136125   6.651  10.243   8.874 -0.3998  1.2433 -1.3603
 9840SOL    HW236126   6.599  10.113   8.816 -0.0135  1.2319 -1.6824
 9841SOL     OW36127   4.311  12.728  10.863  0.0269 -0.7782 -0.1897
 9841SOL    HW136128   4.281  12.800  10.918 -0.3355 -2.2765  1.6615
 9841SOL    HW236129   4.285  12.754  10.774 -0.5185  1.1254  0.4697
 9842SOL     OW36130   9.528   5.873   3.376  0.0091 -0.5480 -0.1687
 9842SOL    HW136131   9.443   5.916   3.381 -0.8112 -2.1194  0.2441
 9842SOL    HW236132   9.551   5.875   3.283 -0.6778 -0.4517 -0.3400
 9843SOL     OW36133   0.080   7.332   4.679 -0.7255  0.0340  0.5523
 9843SOL    HW136134   0.058   7.408   4.732  1.0717 -0.2217  1.7428
 9843SOL    HW236135   0.057   7.257   4.734 -0.9375 -0.2783  0.0491
 9844SOL     OW36136  12.392   2.525   5.271 -0.4171 -0.2774 -0.2923
 9844SOL    HW136137  12.393   2.563   5.358 -1.0220  0.4444 -0.5879
 9844SOL    HW236138  12.427   2.594   5.214 -0.1803 -0.6793 -0.6425
 9845SOL     OW36139   0.852  10.838   3.400 -0.2164  0.2254  0.0785
 9845SOL    HW136140   0.874  10.757   3.355  0.6269 -0.1050  1.0594
 9845SOL    HW236141   0.913  10.903   3.364 -0.2528  0.2031 -0.0226
 9846SOL     OW36142   9.183   9.346   2.232  0.9229 -0.3439  0.1761
 9846SOL    HW136143   9.210   9.425   2.184  1.9552 -0.7714  0.0195
 9846SOL    HW236144   9.106   9.315   2.185  0.7282  0.3728  0.0132
 9847SOL     OW36145  12.614   4.160   0.377 -0.0193  0.4135  0.1769
 9847SOL    HW136146  12.636   4.252   0.388  2.0526 -0.2024  1.6493
 9847SOL    HW236147  12.651   4.136   0.292  1.6960  0.3726  0.8956
 9848SOL     OW36148   0.073   9.049   8.666  0.1264  0.0738 -0.1080
 9848SOL    HW136149   0.013   8.981   8.696 -0.3823  0.6684  0.2532
 9848SOL    HW236150   0.024   9.131   8.678  0.2667  0.4245 -1.6570
 9849SOL     OW36151   6.344  11.300   7.797 -0.1560  0.9615 -0.0738
 9849SOL    HW136152   6.384  11.279   7.713 -2.6409  3.0417 -1.9271
 9849SOL    HW236153   6.286  11.226   7.815 -0.2058  0.8595 -0.6281
 9850SOL     OW36154   0.818   3.468  10.365  0.6643 -0.2979  0.6346
 9850SOL    HW136155   0.847   3.391  10.415  1.0138 -1.2911 -1.0352
 9850SOL    HW236156   0.886   3.479  10.298  1.0515  1.9840  1.3279
 9851SOL     OW36157  12.578  11.908  11.554 -0.2204  0.4725 -0.8075
 9851SOL    HW136158  12.498  11.879  11.511 -0.5475  1.2834 -0.7686
 9851SOL    HW236159  12.647  11.897  11.488 -0.6390  1.2737 -1.4000
 9852SOL     OW36160   0.774   7.226   8.657 -0.8575  0.3725  0.0671
 9852SOL    HW136161   0.702   7.166   8.678  0.2888 -0.4799  1.7594
 9852SOL    HW236162   0.853   7.174   8.668  0.0819  1.5297 -0.9133
 9853SOL     OW36163   8.515   6.601   9.046 -0.3029  0.0032  0.5378
 9853SOL    HW136164   8.521   6.515   9.005  0.0505  0.7912 -1.1855
 9853SOL    HW236165   8.444   6.645   9.000 -0.9790  0.4054  1.9068
 9854SOL     OW36166  12.746   1.957   2.043 -0.1668 -0.6727 -0.2245
 9854SOL    HW136167  12.741   1.948   2.139 -1.5783  0.0939 -0.2111
 9854SOL    HW236168  12.655   1.960   2.014  0.2130  1.2148 -1.3771
 9855SOL     OW36169  12.651   0.359   2.106 -0.3443  0.4911 -0.0563
 9855SOL    HW136170  12.595   0.379   2.181  0.3357  1.2058  0.2755
 9855SOL    HW236171  12.591   0.345   2.033 -0.9515  1.2983  0.2759
 9856SOL     OW36172   9.946   5.632   4.173  0.0450 -0.5150  0.2050
 9856SOL    HW136173  10.026   5.674   4.142 -0.4907  0.5737  0.2501
 9856SOL    HW236174   9.948   5.545   4.134  0.0590  0.3285 -1.7831
 9857SOL     OW36175   2.614  11.862   8.921  0.3834  0.1767 -0.1245
 9857SOL    HW136176   2.639  11.799   8.853  0.2614 -0.8743  0.7770
 9857SOL    HW236177   2.692  11.917   8.932  0.9223 -0.5729 -0.0963
 9858SOL     OW36178   9.603  11.297  10.636  0.0485  0.1751  0.2423
 9858SOL    HW136179   9.522  11.291  10.687 -1.3896  2.9225 -1.4325
 9858SOL    HW236180   9.668  11.330  10.698 -0.7077  0.1129  1.0925
 9859SOL     OW36181  11.727   2.119   2.952  0.2018  0.2683  0.7978
 9859SOL    HW136182  11.723   2.077   2.866  1.4712  1.3561  0.1826
 9859SOL    HW236183  11.711   2.212   2.934  0.5485  0.5153  1.7205
 9860SOL     OW36184  10.856   6.523  11.335 -0.1580 -0.0447 -0.1143
 9860SOL    HW136185  10.773   6.559  11.303  0.1783  0.3774 -0.5271
 9860SOL    HW236186  10.904   6.598  11.367  0.9372  0.0554 -1.8464
 9861SOL     OW36187  11.254   8.984   1.318  0.3644  0.4021 -0.4103
 9861SOL    HW136188  11.214   9.070   1.305  1.0625  1.0984  1.6627
 9861SOL    HW236189  11.345   9.002   1.340  0.0202 -0.6684  2.2918
 9862SOL     OW36190   4.364   8.997   3.216  0.7550  0.1522  0.2818
 9862SOL    HW136191   4.383   8.934   3.146 -0.8741 -0.7537  0.5931
 9862SOL    HW236192   4.269   9.009   3.212  0.4328 -0.7734  3.0091
 9863SOL     OW36193   4.718  12.583   5.206 -0.5933  1.0112  0.1651
 9863SOL    HW136194   4.691  12.497   5.239  0.9767  0.7447  0.8703
 9863SOL    HW236195   4.644  12.641   5.225 -0.6595  0.3630  2.1193
 9864SOL     OW36196   5.097   1.471   6.717 -0.1347  0.1862 -0.0880
 9864SOL    HW136197   5.149   1.549   6.733  1.3988 -0.6983 -0.5927
 9864SOL    HW236198   5.055   1.452   6.800  0.2422  0.9869  0.2950
 9865SOL     OW36199   2.073   8.084   3.163  0.3180 -0.6292  0.6160
 9865SOL    HW136200   2.074   8.124   3.076 -1.4126 -0.4867  0.6332
 9865SOL    HW236201   2.012   8.011   3.156  0.9284 -1.2518  1.4689
 9866SOL     OW36202   1.699  10.061   3.920  0.6403  0.0585 -0.0600
 9866SOL    HW136203   1.639  10.085   3.990  1.2054 -1.1374  0.8920
 9866SOL    HW236204   1.757  10.136   3.910  0.7657  0.1158  1.0155
 9867SOL     OW36205   5.004   4.252   6.248 -0.2706  0.0360  0.4807
 9867SOL    HW136206   5.097   4.275   6.242 -0.5289  1.0677 -0.0011
 9867SOL    HW236207   5.003   4.164   6.283  1.0199 -1.1595 -2.1782
 9868SOL     OW36208   7.064   3.413   4.152  0.2183 -0.4368  0.0602
 9868SOL    HW136209   7.133   3.382   4.212  0.7552 -1.3143 -0.9811
 9868SOL    HW236210   7.014   3.476   4.204  0.5092 -1.3676  1.5139
 9869SOL     OW36211   6.002   5.845  12.348 -0.1982  0.4894  0.6546
 9869SOL    HW136212   5.976   5.866  12.258  1.8883 -0.7753 -0.3091
 9869SOL    HW236213   5.920   5.845  12.397 -1.3816  1.3188 -1.2156
 9870SOL     OW36214   1.879   4.131   3.774  0.0899 -0.1347  0.4647
 9870SOL    HW136215   1.783   4.136   3.783  0.0211  1.4721 -0.7407
 9870SOL    HW236216   1.893   4.073   3.699  0.0729 -0.3023  0.5892
 9871SOL     OW36217   1.758   0.505   4.408  0.3853  0.5208 -0.3112
 9871SOL    HW136218   1.742   0.565   4.336  0.1128  1.3647  0.4322
 9871SOL    HW236219   1.825   0.549   4.462  0.7136 -0.1711 -0.1379
 9872SOL     OW36220   9.961   6.759  11.680  0.5779 -0.2145  0.3847
 9872SOL    HW136221   9.915   6.675  11.679  0.1274  0.0312  0.1639
 9872SOL    HW236222   9.923   6.807  11.754  0.7770 -0.1794  0.4627
 9873SOL     OW36223   5.286   3.036   3.042  0.3290 -0.7835 -0.0225
 9873SOL    HW136224   5.375   3.047   3.077 -0.0805 -1.6970  1.3520
 9873SOL    HW236225   5.250   2.962   3.089 -1.7250  0.4904  0.5366
 9874SOL     OW36226   5.190  11.970   1.533 -0.6628  0.6279  0.7708
 9874SOL    HW136227   5.277  11.931   1.523 -0.1032  2.2123 -1.1911
 9874SOL    HW236228   5.131  11.895   1.542  0.7993 -0.5097  1.2138
 9875SOL     OW36229  11.813   7.035   5.860  0.9287  0.3929  0.5115
 9875SOL    HW136230  11.782   6.954   5.902 -0.2269  0.9802  0.8382
 9875SOL    HW236231  11.837   7.008   5.771 -1.9183  0.1201 -0.2631
 9876SOL     OW36232   9.218   7.085   4.196  0.2001  0.3280 -0.4566
 9876SOL    HW136233   9.264   7.076   4.112 -2.8653  0.2312 -2.2889
 9876SOL    HW236234   9.204   7.180   4.205 -0.5347  0.2557 -0.7372
 9877SOL     OW36235   1.200   1.012   2.286  0.0382 -0.4737  0.5406
 9877SOL    HW136236   1.221   0.950   2.216  1.8354  0.4275  0.2475
 9877SOL    HW236237   1.283   1.053   2.308 -0.9746  1.2642  1.2967
 9878SOL     OW36238   9.600   6.158   4.439  0.0981  0.7137  0.5259
 9878SOL    HW136239   9.559   6.199   4.363  0.9466  1.6364  0.5582
 9878SOL    HW236240   9.589   6.221   4.510 -0.3636  0.0140  1.0966
 9879SOL     OW36241   2.318   5.186   9.625  0.2789  0.1293  0.2957
 9879SOL    HW136242   2.284   5.159   9.540  2.1865  1.5973 -1.0368
 9879SOL    HW236243   2.240   5.211   9.675 -1.0092 -2.1626 -0.4392
 9880SOL     OW36244   4.548   7.174  10.148  0.1910 -0.2989  0.2097
 9880SOL    HW136245   4.458   7.146  10.134  0.1106  0.6847 -1.7403
 9880SOL    HW236246   4.545   7.270  10.138  1.3997 -0.2231  0.3731
 9881SOL     OW36247   4.816  10.719  10.669  0.5672 -0.2593  0.0197
 9881SOL    HW136248   4.814  10.633  10.626 -0.1435 -1.4432  2.2510
 9881SOL    HW236249   4.909  10.731  10.692  0.3754 -1.5480  1.6725
 9882SOL     OW36250   2.824   4.085   1.140  0.1476 -0.6789 -0.0949
 9882SOL    HW136251   2.904   4.039   1.113  0.9664 -0.6532  2.1054
 9882SOL    HW236252   2.845   4.122   1.226 -1.7564  0.6052 -0.1150
 9883SOL     OW36253  10.063   6.201  10.243 -0.1772 -0.4858 -0.0687
 9883SOL    HW136254  10.061   6.290  10.277  0.4565 -0.6312  0.3660
 9883SOL    HW236255  10.037   6.210  10.151 -0.6398  0.0739  0.1078
 9884SOL     OW36256   5.228   6.651   2.109 -0.4426  0.2256 -0.0787
 9884SOL    HW136257   5.149   6.612   2.072 -0.7611  1.5094 -0.8096
 9884SOL    HW236258   5.196   6.707   2.180 -0.1393  0.3371 -0.0264
 9885SOL     OW36259   7.515   9.874   2.529 -0.2830  0.0922 -0.0955
 9885SOL    HW136260   7.539   9.904   2.441  3.2121 -0.2811  0.6074
 9885SOL    HW236261   7.524   9.953   2.584  0.7412 -0.3638  0.4121
 9886SOL     OW36262   8.605  12.391  12.089 -0.0202  0.2347 -0.3482
 9886SOL    HW136263   8.688  12.371  12.131  0.3983  1.8058 -0.3984
 9886SOL    HW236264   8.615  12.359  11.999  0.9457  1.3668 -0.6674
 9887SOL     OW36265  12.636   7.054  11.271  0.7083 -0.6220 -0.0090
 9887SOL    HW136266  12.695   7.109  11.219  0.6639 -0.0137  0.5676
 9887SOL    HW236267  12.631   6.972  11.223  1.0112 -0.2231 -0.7357
 9888SOL     OW36268   1.333  11.286   0.826  0.3607 -0.3572  0.0657
 9888SOL    HW136269   1.403  11.228   0.796  0.2952 -1.2027  1.4231
 9888SOL    HW236270   1.367  11.324   0.907 -0.0321  0.6685 -0.2367
 9889SOL     OW36271   5.325  12.201   8.911 -0.1066  0.1437 -0.1613
 9889SOL    HW136272   5.332  12.121   8.964  1.1662 -0.9349 -1.8463
 9889SOL    HW236273   5.414  12.234   8.905 -0.6888  2.1274  1.0204
 9890SOL     OW36274   1.315  12.515   5.429  0.1071 -0.2618  0.6038
 9890SOL    HW136275   1.297  12.538   5.520 -2.0724 -1.4145  0.5284
 9890SOL    HW236276   1.285  12.424   5.421  2.0019 -0.8318 -0.8149
 9891SOL     OW36277  11.795   0.239   4.360 -0.1455  0.7753  0.8636
 9891SOL    HW136278  11.853   0.275   4.426  1.9254  0.8313 -0.8627
 9891SOL    HW236279  11.851   0.182   4.307 -1.8308  0.2623 -0.4893
 9892SOL     OW36280   1.916   8.676   4.912 -0.3267  0.2191 -0.0510
 9892SOL    HW136281   1.870   8.740   4.857  1.7298  0.8067 -1.2234
 9892SOL    HW236282   1.967   8.730   4.973 -1.2590 -0.4123  1.3284
 9893SOL     OW36283  12.509   2.984   1.405 -0.2649  0.8647 -0.0310
 9893SOL    HW136284  12.504   3.060   1.463 -1.2600 -0.8605  2.2782
 9893SOL    HW236285  12.596   2.948   1.420 -1.0143 -0.3943  1.5769
 9894SOL     OW36286   2.506   6.239   9.258 -0.0245  0.3642 -0.1665
 9894SOL    HW136287   2.485   6.317   9.310 -1.6161 -0.5687  0.6460
 9894SOL    HW236288   2.524   6.273   9.171 -1.2315  1.6058  0.0377
 9895SOL     OW36289  11.410   0.710  11.361  0.0729 -0.2885 -0.2929
 9895SOL    HW136290  11.455   0.785  11.401  0.2313 -0.7319  0.3743
 9895SOL    HW236291  11.389   0.740  11.272 -1.5810  1.2568  0.5501
 9896SOL     OW36292  11.574   1.546   4.793  0.6783  0.0835 -0.0613
 9896SOL    HW136293  11.635   1.507   4.730  1.8800  0.0625  1.0662
 9896SOL    HW236294  11.630   1.579   4.863 -0.5445  1.0831  0.4818
 9897SOL     OW36295   3.357   8.359   0.976 -0.1259 -0.2125 -0.2224
 9897SOL    HW136296   3.263   8.346   0.984 -0.1724  0.3868  0.2712
 9897SOL    HW236297   3.389   8.279   0.935 -1.1791  0.5642 -2.7408
 9898SOL     OW36298  11.774   8.657   8.922  0.4980  0.1749  0.2715
 9898SOL    HW136299  11.825   8.677   8.843  0.7806  1.8717  0.8467
 9898SOL    HW236300  11.814   8.712   8.990 -1.9630  1.4328  0.8017
 9899SOL     OW36301   5.368  11.214  10.216  0.3972 -0.3240  0.4097
 9899SOL    HW136302   5.366  11.302  10.253  0.6015  0.1862 -0.7296
 9899SOL    HW236303   5.425  11.222  10.139  0.1172 -1.3601  0.0775
 9900SOL     OW36304   4.855   6.748   0.628  0.7578 -0.6078  0.2967
 9900SOL    HW136305   4.945   6.721   0.649  0.5025 -1.5074  0.2722
 9900SOL    HW236306   4.824   6.789   0.709 -0.0884 -3.7048  1.7087
 9901SOL     OW36307   2.854   7.050   8.444 -0.0577  0.1118 -0.1726
 9901SOL    HW136308   2.805   7.052   8.526  1.4824  1.5194  0.7544
 9901SOL    HW236309   2.910   6.972   8.452 -0.6523 -0.3488 -0.3717
 9902SOL     OW36310   6.310   9.159   6.586  0.0744  0.1330  0.1523
 9902SOL    HW136311   6.295   9.253   6.578  1.9142  0.6274  1.6453
 9902SOL    HW236312   6.398   9.153   6.623  0.0829 -2.1994 -0.1391
 9903SOL     OW36313   7.460   8.467  10.746  0.0568 -0.7956  0.3753
 9903SOL    HW136314   7.517   8.396  10.717 -0.5021 -0.5858 -1.3972
 9903SOL    HW236315   7.374   8.443  10.712 -0.2908  0.3444  0.4238
 9904SOL     OW36316  11.676   4.781   8.443  0.0561 -0.0400 -0.3338
 9904SOL    HW136317  11.746   4.846   8.444  0.3685 -0.3796  0.2352
 9904SOL    HW236318  11.623   4.802   8.520  0.3703 -0.6828  0.0614
 9905SOL     OW36319  12.448   7.587   1.003 -0.0369 -0.2853  0.5603
 9905SOL    HW136320  12.455   7.622   0.914  2.2912  1.3545  1.2746
 9905SOL    HW236321  12.356   7.600   1.028 -0.0891  2.0260 -0.5736
 9906SOL     OW36322  11.143   8.094  11.878  0.5419 -0.5684 -0.0985
 9906SOL    HW136323  11.186   8.171  11.841  0.8772 -1.3797 -1.4261
 9906SOL    HW236324  11.123   8.120  11.969  2.7049  0.2532  0.1932
 9907SOL     OW36325   3.875  11.354   7.726 -0.4032  0.2965  0.0314
 9907SOL    HW136326   3.940  11.305   7.675 -1.5781 -0.3346 -0.8921
 9907SOL    HW236327   3.827  11.405   7.661 -1.9767 -0.5719  0.4677
 9908SOL     OW36328   7.603   7.412   9.182 -0.0689 -0.2310 -0.1417
 9908SOL    HW136329   7.511   7.388   9.174  0.1717 -2.1068  1.8603
 9908SOL    HW236330   7.601   7.501   9.218 -1.0227  0.4392 -1.7022
 9909SOL     OW36331   4.091   3.258   4.114 -0.1590  0.0193  0.6838
 9909SOL    HW136332   4.105   3.169   4.081 -0.2999  0.1558  0.2550
 9909SOL    HW236333   4.147   3.264   4.191  1.2140  0.1344 -0.2781
 9910SOL     OW36334   9.827   5.686   5.789 -0.4811  0.1910  0.1930
 9910SOL    HW136335   9.750   5.742   5.799 -1.2716 -0.9818  0.8625
 9910SOL    HW236336   9.889   5.740   5.739 -1.7375  1.1463 -0.3973
 9911SOL     OW36337   0.975   4.961   1.737  0.2300 -0.4174 -0.0471
 9911SOL    HW136338   0.947   4.870   1.745 -0.4929 -0.3160 -1.2378
 9911SOL    HW236339   0.894   5.011   1.741  0.6117  0.1781  0.4458
 9912SOL     OW36340   8.608   7.914   7.021 -0.2307  0.6803 -0.6176
 9912SOL    HW136341   8.658   7.990   7.049  0.4062 -0.8747  3.0122
 9912SOL    HW236342   8.666   7.868   6.960  1.6548  0.4387  1.2439
 9913SOL     OW36343   0.407   7.337  11.066 -0.0091  0.0611  0.9640
 9913SOL    HW136344   0.399   7.357  11.159  1.1527 -2.8136  1.7644
 9913SOL    HW236345   0.355   7.258  11.053  0.4845 -0.0437 -0.6812
 9914SOL     OW36346   5.652   8.492   3.605 -0.1937 -0.0885 -0.3591
 9914SOL    HW136347   5.701   8.556   3.554  0.9479 -1.2545 -0.7703
 9914SOL    HW236348   5.703   8.411   3.599 -0.9730 -0.7423  1.1305
 9915SOL     OW36349   0.263  12.668   4.812 -0.0931 -0.8673 -0.5834
 9915SOL    HW136350   0.333  12.678   4.749 -0.4136 -0.5317 -0.8904
 9915SOL    HW236351   0.307  12.647   4.894  0.3049 -1.6180 -0.9805
 9916SOL     OW36352   1.933   5.903  10.975 -0.7057  0.3252 -0.1535
 9916SOL    HW136353   1.967   5.989  11.001 -2.0966  0.3970  1.5610
 9916SOL    HW236354   1.847   5.922  10.937 -0.7565 -0.2669 -0.3459
 9917SOL     OW36355  11.758   9.924   1.352 -0.3266 -0.2205  0.1197
 9917SOL    HW136356  11.666   9.946   1.369 -1.5610 -2.4599 -2.8682
 9917SOL    HW236357  11.775   9.848   1.407 -1.6175 -2.2025 -2.0307
 9918SOL     OW36358  10.858   5.810  11.888 -0.3621 -1.0518  0.3602
 9918SOL    HW136359  10.825   5.881  11.833  1.3610 -1.2712 -1.0433
 9918SOL    HW236360  10.783   5.751  11.898 -1.4978  0.3789  0.6305
 9919SOL     OW36361   3.141   8.398  12.208  0.2130  0.1102  0.1714
 9919SOL    HW136362   3.122   8.335  12.139 -0.3419  1.3738 -0.8822
 9919SOL    HW236363   3.226   8.436  12.184  0.2437  0.2165  0.4378
 9920SOL     OW36364   0.267  11.382  11.900  0.8098  0.1931  0.7764
 9920SOL    HW136365   0.293  11.473  11.884  0.6653  0.1809  0.4678
 9920SOL    HW236366   0.345  11.331  11.879  0.5101  0.1448 -0.2799
 9921SOL     OW36367   9.122   9.255   6.451 -0.0884  0.0022 -0.2840
 9921SOL    HW136368   9.181   9.180   6.452 -0.6074 -0.4517 -1.7337
 9921SOL    HW236369   9.062   9.239   6.524 -0.4422 -1.2006 -0.8148
 9922SOL     OW36370   2.974  11.123   6.380 -0.2102 -0.6731  0.1707
 9922SOL    HW136371   3.035  11.163   6.443 -1.2529 -0.9518  1.3979
 9922SOL    HW236372   3.031  11.082   6.315  0.9142 -0.3689  0.9226
 9923SOL     OW36373   0.575   4.440   4.200  0.3655  0.3300  0.1807
 9923SOL    HW136374   0.609   4.352   4.181  0.6120  0.5664 -0.5061
 9923SOL    HW236375   0.635   4.475   4.265  2.1229  1.1333 -1.7520
 9924SOL     OW36376   0.457   5.082   4.018  0.0318 -0.3467  0.2425
 9924SOL    HW136377   0.390   5.027   3.977 -0.1380  0.7359 -1.0062
 9924SOL    HW236378   0.522   5.095   3.949  1.3198 -0.9878  1.2898
 9925SOL     OW36379   7.842   3.453  12.316 -0.2675  0.2280 -0.1510
 9925SOL    HW136380   7.931   3.472  12.346  0.1047 -0.5490 -0.7304
 9925SOL    HW236381   7.796   3.537  12.321  0.6932  0.7858 -0.4795
 9926SOL     OW36382   2.756   1.065  12.496 -0.4534 -0.0529  0.4157
 9926SOL    HW136383   2.759   1.082  12.590 -2.2280  0.3266  0.4409
 9926SOL    HW236384   2.679   1.113  12.465  0.3654  0.2266 -1.3302
 9927SOL     OW36385  11.596   3.069  11.929 -0.3280 -0.0542  0.4882
 9927SOL    HW136386  11.641   2.984  11.927  2.1493  1.1742 -0.7074
 9927SOL    HW236387  11.605   3.099  12.019 -1.0004 -0.9331  0.8608
 9928SOL     OW36388   1.671   8.179   8.576  0.5871 -1.1230 -0.1037
 9928SOL    HW136389   1.607   8.159   8.644 -1.0903  0.5126 -1.0930
 9928SOL    HW236390   1.654   8.116   8.506  0.5480 -1.1551 -0.0638
 9929SOL     OW36391   7.502   3.382   2.557 -0.7299 -0.0791 -0.1804
 9929SOL    HW136392   7.436   3.313   2.563 -0.7130 -0.0749  0.1046
 9929SOL    HW236393   7.578   3.346   2.603 -0.9043  0.3301  0.4518
 9930SOL     OW36394   2.520   5.606   7.381 -0.1412 -0.0371  0.3742
 9930SOL    HW136395   2.556   5.540   7.322  0.6977  0.5964  0.1384
 9930SOL    HW236396   2.489   5.675   7.322 -0.5391  0.0045  0.6329
 9931SOL     OW36397  10.571   3.328  11.921  0.1589  0.1637 -0.4085
 9931SOL    HW136398  10.537   3.400  11.973  4.2487  0.7670  1.8378
 9931SOL    HW236399  10.565   3.251  11.978 -1.1755 -0.6731 -1.5824
 9932SOL     OW36400   9.966   7.756   5.671  0.1131  0.4282 -0.0763
 9932SOL    HW136401   9.940   7.791   5.586  0.3688 -1.2787 -0.9046
 9932SOL    HW236402  10.061   7.749   5.667  0.1537  0.6203  0.4594
 9933SOL     OW36403   6.383   8.947   8.280  0.2469  0.2820  0.4253
 9933SOL    HW136404   6.474   8.952   8.252  0.6070 -0.3241  1.4269
 9933SOL    HW236405   6.387   8.913   8.370 -0.9112  1.2405  0.8695
 9934SOL     OW36406   1.572   2.404   3.481  0.4147  0.0580  0.3595
 9934SOL    HW136407   1.610   2.333   3.430 -0.7006 -0.6837  0.5375
 9934SOL    HW236408   1.567   2.370   3.571 -1.5106 -0.2405  0.1755
 9935SOL     OW36409   4.980   7.061   5.727  0.5943  0.2862  0.7766
 9935SOL    HW136410   4.981   7.117   5.804  0.8127  1.6375 -0.1696
 9935SOL    HW236411   5.019   7.114   5.658 -1.8088  0.0822 -0.8858
 9936SOL     OW36412   3.549   0.018  10.366  0.5936 -0.1586 -0.4443
 9936SOL    HW136413   3.618   0.074  10.402 -2.6335  1.6973  3.6719
 9936SOL    HW236414   3.509   0.072  10.297  0.9745  0.2572 -0.3473
 9937SOL     OW36415   4.322   3.955   6.537  0.3450 -0.1948  0.0218
 9937SOL    HW136416   4.264   3.897   6.488  1.2005 -0.3576 -0.8304
 9937SOL    HW236417   4.398   3.901   6.557  0.9127  0.4680 -0.3073
 9938SOL     OW36418   8.412   0.829   2.196 -0.2285  0.4561 -0.0246
 9938SOL    HW136419   8.381   0.739   2.195  0.0211  0.3550 -1.3876
 9938SOL    HW236420   8.492   0.827   2.143 -0.3782  1.5112 -0.3165
 9939SOL     OW36421  12.290   5.633   1.082  0.2430  0.3407  0.3823
 9939SOL    HW136422  12.292   5.657   0.989 -0.7826 -0.6212  0.0825
 9939SOL    HW236423  12.271   5.715   1.128  1.2436  0.9172 -0.1973
 9940SOL     OW36424   7.514   5.250   2.756  0.0176  0.5532  0.5291
 9940SOL    HW136425   7.442   5.189   2.769  0.6806 -0.3171  0.1793
 9940SOL    HW236426   7.589   5.209   2.798  0.7383  0.5766 -0.6856
 9941SOL     OW36427   8.592   8.681   8.051  0.1797  0.5065 -0.1255
 9941SOL    HW136428   8.668   8.681   8.110  1.4160 -1.1383 -1.6054
 9941SOL    HW236429   8.619   8.626   7.977 -2.9386 -1.3406 -0.0886
 9942SOL     OW36430  10.853   2.446   4.183  0.3681  0.0188 -0.0434
 9942SOL    HW136431  10.761   2.418   4.188 -0.8022  3.4989  0.3417
 9942SOL    HW236432  10.875   2.472   4.272  0.5530  2.3814 -0.7226
 9943SOL     OW36433   8.986   4.380  12.313 -0.3926 -0.6045 -0.1642
 9943SOL    HW136434   9.059   4.423  12.268 -0.6075 -0.6558 -0.5661
 9943SOL    HW236435   8.995   4.407  12.404 -0.0114 -0.4160 -0.2547
 9944SOL     OW36436   2.553   6.463   7.284  0.1883 -0.4484  0.0742
 9944SOL    HW136437   2.587   6.485   7.198  0.9105  0.7232  0.6323
 9944SOL    HW236438   2.625   6.418   7.328 -0.0023 -0.6028  0.2326
 9945SOL     OW36439   6.692   5.509   5.838  0.4053  0.0960 -0.0898
 9945SOL    HW136440   6.709   5.436   5.897 -0.5169  1.0392  1.4013
 9945SOL    HW236441   6.617   5.481   5.786  1.2876 -0.7800 -0.9574
 9946SOL     OW36442   2.652   8.017   9.996 -0.1727 -0.3745  0.0616
 9946SOL    HW136443   2.630   7.934  10.037  0.6314 -0.2677  0.7388
 9946SOL    HW236444   2.721   8.054  10.052 -0.6046  0.8021 -0.1443
 9947SOL     OW36445   8.935   2.568   8.490  0.5441  0.1640 -0.2458
 9947SOL    HW136446   8.973   2.611   8.567 -0.6949  2.1104 -0.6535
 9947SOL    HW236447   8.906   2.640   8.434  0.1063 -1.2201 -1.8866
 9948SOL     OW36448   2.229   9.686   8.347  0.1188 -0.2752 -0.3574
 9948SOL    HW136449   2.236   9.773   8.387 -0.4719 -0.0861 -0.6440
 9948SOL    HW236450   2.315   9.669   8.310  0.6096 -0.3553  0.7839
 9949SOL     OW36451   8.002   9.121   4.507 -0.7145 -0.0914 -0.4084
 9949SOL    HW136452   8.070   9.187   4.507 -1.7410  1.0040 -0.9469
 9949SOL    HW236453   8.025   9.061   4.436 -0.3632  0.3151 -0.6343
 9950SOL     OW36454   1.801   5.894   1.329 -0.3031  0.5756  0.3906
 9950SOL    HW136455   1.896   5.896   1.344  0.3640 -1.0273 -2.5923
 9950SOL    HW236456   1.790   5.933   1.242 -2.2537 -0.0837  0.2956
 9951SOL     OW36457  10.982  11.706   4.421 -0.1443  0.1326  0.5638
 9951SOL    HW136458  11.016  11.794   4.402  1.0154 -0.4778 -0.3943
 9951SOL    HW236459  10.911  11.694   4.358 -1.2800  0.9117  1.6682
 9952SOL     OW36460   9.081  10.958   8.708 -0.2491  0.1169  0.1516
 9952SOL    HW136461   8.988  10.947   8.726 -0.4325  2.0173  0.5623
 9952SOL    HW236462   9.086  11.037   8.654  1.0384 -0.6819 -0.9780
 9953SOL     OW36463  12.266  10.871  11.135 -0.6786 -0.1382 -0.0566
 9953SOL    HW136464  12.331  10.803  11.118 -1.1757 -0.7135  0.3374
 9953SOL    HW236465  12.271  10.886  11.229  0.0950  1.0583 -0.2661
 9954SOL     OW36466   4.654   5.563  12.500  0.1059 -0.2182  0.2761
 9954SOL    HW136467   4.730   5.619  12.517  0.3311  0.1844 -1.7884
 9954SOL    HW236468   4.579   5.623  12.501  0.3829  0.3064 -2.2756
 9955SOL     OW36469  10.036  10.049   1.150  0.1411  0.5483  0.1007
 9955SOL    HW136470  10.073  10.137   1.138 -0.2589  0.5088 -1.7481
 9955SOL    HW236471  10.110   9.990   1.142 -0.0971  0.5122 -2.8836
 9956SOL     OW36472   7.496  11.941   6.065  0.5491  0.7743 -0.7970
 9956SOL    HW136473   7.512  12.034   6.052 -0.6326  1.0398 -0.5048
 9956SOL    HW236474   7.415  11.924   6.016 -0.3250  0.3498  0.7286
 9957SOL     OW36475   9.517   4.788   7.826  0.3383 -0.4400 -0.1366
 9957SOL    HW136476   9.548   4.879   7.821 -0.2282 -0.2011  0.5008
 9957SOL    HW236477   9.439   4.793   7.882 -0.4829 -1.1101 -1.1715
 9958SOL     OW36478  11.209   8.382   3.369  0.6064 -0.8447  0.0680
 9958SOL    HW136479  11.126   8.409   3.331  0.9037 -0.5717 -0.3923
 9958SOL    HW236480  11.259   8.463   3.378  0.6844 -0.9578  0.6823
 9959SOL     OW36481   1.637   6.934   6.505  0.3917 -0.4141 -0.4107
 9959SOL    HW136482   1.670   6.955   6.417 -0.1063 -0.7884 -0.6882
 9959SOL    HW236483   1.568   6.870   6.490 -0.4337  0.3144  0.1763
 9960SOL     OW36484   2.215   2.382  11.333 -0.2567  0.3266  0.1109
 9960SOL    HW136485   2.291   2.398  11.388 -0.4187 -0.6965  0.6581
 9960SOL    HW236486   2.142   2.424  11.379  0.1830  2.7968 -1.2408
 9961SOL     OW36487   3.193   2.339   3.739  0.0913 -0.0639  0.3231
 9961SOL    HW136488   3.220   2.249   3.755 -0.8634 -0.3088  0.5994
 9961SOL    HW236489   3.251   2.369   3.669 -0.6857 -1.4368 -0.9593
 9962SOL     OW36490   4.579   0.765   0.914 -0.3512 -0.2162  0.1783
 9962SOL    HW136491   4.488   0.793   0.910 -0.2708 -0.0432 -2.1992
 9962SOL    HW236492   4.576   0.670   0.911 -0.4742 -0.1926 -1.0657
 9963SOL     OW36493   0.361   5.622  11.283 -0.7157  0.8954  0.3019
 9963SOL    HW136494   0.436   5.567  11.258 -0.1199  0.9133  1.9388
 9963SOL    HW236495   0.400   5.700  11.321 -1.5437  0.6842  1.6577
 9964SOL     OW36496   5.766   0.873   0.915  0.3818  0.7006  0.4718
 9964SOL    HW136497   5.771   0.889   0.821  1.1578  0.2622  0.4245
 9964SOL    HW236498   5.789   0.958   0.955 -0.6124  1.0678  0.2806
 9965SOL     OW36499  12.266   9.820  10.703 -0.2173 -0.0929  0.8350
 9965SOL    HW136500  12.178   9.785  10.708 -0.6271  0.8814  0.6629
 9965SOL    HW236501  12.290   9.839  10.794 -0.7693  1.0106  0.7706
 9966SOL     OW36502   5.517   6.534   5.819  0.8716 -0.0474  0.5321
 9966SOL    HW136503   5.444   6.561   5.875  0.6761  0.8387 -0.1261
 9966SOL    HW236504   5.480   6.464   5.765  0.2828  0.8594 -0.2737
 9967SOL     OW36505   8.356   6.185  12.743  0.4054  0.2084 -0.0099
 9967SOL    HW136506   8.444   6.199  12.777  0.8694  0.2991 -1.1873
 9967SOL    HW236507   8.349   6.091  12.732 -0.3185  0.0152  1.7396
 9968SOL     OW36508   4.393  10.903   0.729  0.3985  0.2149 -0.1169
 9968SOL    HW136509   4.342  10.923   0.651 -1.3584  0.5471  1.0535
 9968SOL    HW236510   4.393  10.984   0.780 -0.8421 -0.6880  1.4451
 9969SOL     OW36511   7.625   4.640   8.673 -0.1271 -0.1298  0.0635
 9969SOL    HW136512   7.582   4.621   8.590 -0.9423  0.1824  0.4086
 9969SOL    HW236513   7.651   4.732   8.666  0.8367 -0.4100 -0.2838
 9970SOL     OW36514  10.764   3.998   2.978 -0.0520 -0.1324 -0.5822
 9970SOL    HW136515  10.819   4.041   2.911  1.1492 -0.2696  0.2775
 9970SOL    HW236516  10.713   3.934   2.929  1.0296 -0.4474 -1.3459
 9971SOL     OW36517   7.190   7.162   6.304 -0.7805  0.0767 -0.2784
 9971SOL    HW136518   7.137   7.147   6.226 -1.6271  0.2396  0.2394
 9971SOL    HW236519   7.185   7.257   6.318  1.9806  0.5566 -1.7852
 9972SOL     OW36520   8.329   5.914  10.447 -0.0813  0.7991  0.0401
 9972SOL    HW136521   8.267   5.949  10.382  0.4680 -0.3938 -1.1737
 9972SOL    HW236522   8.400   5.979  10.449 -0.9682  1.7669  0.8382
 9973SOL     OW36523   5.489   6.613   9.763  0.4807  0.0010  0.2257
 9973SOL    HW136524   5.408   6.578   9.802  0.9080  0.0105  1.1351
 9973SOL    HW236525   5.510   6.690   9.816 -0.0796  1.2897 -1.3414
 9974SOL     OW36526   0.150  11.902   6.610  0.1499 -0.1398 -0.5073
 9974SOL    HW136527   0.176  11.850   6.686  0.5975  0.0428 -0.5299
 9974SOL    HW236528   0.154  11.993   6.640  1.2615 -0.0031 -1.0063
 9975SOL     OW36529   9.298   6.804   8.058 -0.6541  0.0307 -0.4035
 9975SOL    HW136530   9.376   6.764   8.096  0.1262  0.3085 -1.6458
 9975SOL    HW236531   9.305   6.896   8.080 -1.2369 -0.1288  0.4665
 9976SOL     OW36532   4.926  10.308   5.700 -0.5321 -0.1200 -0.6425
 9976SOL    HW136533   4.886  10.348   5.777 -1.1236 -0.7090 -0.6385
 9976SOL    HW236534   5.003  10.263   5.733 -0.2897  0.3598 -0.5349
 9977SOL     OW36535   1.373   1.314   4.138 -0.6959 -0.9419  0.1178
 9977SOL    HW136536   1.333   1.227   4.144 -2.5931 -0.5053 -3.3772
 9977SOL    HW236537   1.444   1.304   4.074 -0.4882 -0.0687  0.1968
 9978SOL     OW36538   8.612  10.296   2.382  1.0384 -0.5032 -0.1897
 9978SOL    HW136539   8.564  10.366   2.338  0.1154 -2.1480 -1.9658
 9978SOL    HW236540   8.547  10.250   2.434  1.2066 -1.2049 -0.5842
 9979SOL     OW36541   3.780  11.857  12.479 -0.3278  0.3166 -0.6491
 9979SOL    HW136542   3.844  11.803  12.433  1.0596  0.0309  1.4745
 9979SOL    HW236543   3.696  11.826  12.448  0.5216 -0.4442 -2.3024
 9980SOL     OW36544   7.064   2.433  10.044 -0.0692  0.0968 -0.3702
 9980SOL    HW136545   7.081   2.499   9.977 -0.7167  1.0867  0.4195
 9980SOL    HW236546   7.151   2.405  10.072  0.2084  0.1556 -1.1465
 9981SOL     OW36547   0.328   2.074   2.137  0.6736  0.4486 -0.3031
 9981SOL    HW136548   0.386   2.127   2.083  1.1199 -0.6357 -0.9210
 9981SOL    HW236549   0.386   2.033   2.201  0.4207  0.2757 -0.1851
 9982SOL     OW36550   2.354  10.648   8.982 -0.1680  0.0324  0.7429
 9982SOL    HW136551   2.374  10.704   8.907  0.3744  1.2868  1.7783
 9982SOL    HW236552   2.434  10.599   8.998 -0.1669  0.0277  0.7240
 9983SOL     OW36553   6.283  12.689   8.481 -0.1981 -0.2184 -0.2839
 9983SOL    HW136554   6.264  12.645   8.564 -0.2467 -0.7368 -0.5628
 9983SOL    HW236555   6.294  12.781   8.504  1.1202 -0.5461  0.5019
 9984SOL     OW36556   3.526  11.316   1.951 -0.3501  0.3233 -0.2803
 9984SOL    HW136557   3.437  11.328   1.917 -0.2417 -1.0827 -1.1676
 9984SOL    HW236558   3.575  11.283   1.876  1.2824  2.2963 -0.1753
 9985SOL     OW36559   5.179   9.057   9.841  0.3413 -0.3269 -0.2377
 9985SOL    HW136560   5.176   9.151   9.861 -0.7284 -0.8098  2.1958
 9985SOL    HW236561   5.271   9.039   9.823  0.7428  0.9957  0.3710
 9986SOL     OW36562   5.329   9.903   4.042  0.0202 -0.0768  0.0279
 9986SOL    HW136563   5.320   9.916   3.948  0.5226 -0.9556 -0.1529
 9986SOL    HW236564   5.398   9.963   4.069  0.4629 -0.4217 -0.3178
 9987SOL     OW36565   3.421   6.954  11.228  0.0142  0.2882  0.3166
 9987SOL    HW136566   3.376   7.007  11.163  0.1912  0.0012 -0.0438
 9987SOL    HW236567   3.398   6.994  11.312 -1.2455 -0.0994  0.1761
 9988SOL     OW36568   0.670   3.762   3.964 -0.4656 -0.3091 -0.5278
 9988SOL    HW136569   0.582   3.734   3.941 -1.3679  1.2358  0.8341
 9988SOL    HW236570   0.669   3.857   3.955  1.1533 -0.2798 -0.7666
 9989SOL     OW36571   3.419  12.477  11.994 -0.0378  0.1110  0.1566
 9989SOL    HW136572   3.492  12.529  12.026 -0.7089  0.5450  1.0137
 9989SOL    HW236573   3.370  12.536  11.936  0.5047 -0.3057 -0.7500
 9990SOL     OW36574   7.001   7.650   2.119 -0.1762 -0.2159 -0.2135
 9990SOL    HW136575   7.062   7.687   2.055  0.1545  1.4965  1.0095
 9990SOL    HW236576   7.057   7.616   2.189 -0.5720  0.2802  0.3611
 9991SOL     OW36577   8.093   1.521   7.587 -0.0460 -0.0073  0.0345
 9991SOL    HW136578   8.180   1.559   7.597 -0.0090 -0.4039  1.5244
 9991SOL    HW236579   8.040   1.565   7.653 -0.3505 -1.4913  0.8275
 9992SOL     OW36580   2.089   7.466  10.378 -0.6054  0.2514  0.0664
 9992SOL    HW136581   2.151   7.534  10.352 -0.8098  0.9332  1.2998
 9992SOL    HW236582   2.011   7.485  10.327  0.5398 -1.3673 -2.4629
 9993SOL     OW36583   9.652   4.963   0.380 -0.2998 -0.2620 -0.9065
 9993SOL    HW136584   9.734   4.917   0.396  0.2255  1.2685  1.3868
 9993SOL    HW236585   9.585   4.905   0.416 -0.0603 -0.8086 -1.3278
 9994SOL     OW36586   8.279  10.721   1.824  0.2761 -0.2368 -0.3419
 9994SOL    HW136587   8.296  10.814   1.835  0.0567 -0.2227 -0.1247
 9994SOL    HW236588   8.294  10.705   1.731 -0.5062  0.1821 -0.5479
 9995SOL     OW36589   7.674  12.697  10.171  0.5414  0.1452  0.2218
 9995SOL    HW136590   7.679  12.760  10.242 -1.3991  1.2392 -0.5267
 9995SOL    HW236591   7.702  12.746  10.093 -0.1397 -0.1712 -0.2322
 9996SOL     OW36592   7.266   4.567  12.696 -0.3700  0.7623  0.4640
 9996SOL    HW136593   7.331   4.510  12.657 -0.1095  1.3168  0.0733
 9996SOL    HW236594   7.184   4.544  12.653 -0.1460  1.1328 -0.1749
 9997SOL     OW36595   4.675   1.889   3.779  0.3342  0.2134  0.2507
 9997SOL    HW136596   4.765   1.860   3.789 -0.4270 -2.3538  0.5705
 9997SOL    HW236597   4.646   1.910   3.868  0.4457  0.4718  0.2260
 9998SOL     OW36598   8.185  10.572   8.011 -0.2997  0.2679  0.2362
 9998SOL    HW136599   8.239  10.555   8.088 -0.8077  0.1674  0.5774
 9998SOL    HW236600   8.117  10.632   8.042 -2.2807 -2.0360  0.6496
 9999SOL     OW36601   0.348   0.062   6.640 -0.6408  0.2495  0.5690
 9999SOL    HW136602   0.397  -0.020   6.641  1.0641  1.2380  0.2393
 9999SOL    HW236603   0.301   0.060   6.557 -0.3297 -0.2259  0.3981
10000SOL     OW36604   7.095   9.307   3.379 -0.2903  0.4472 -0.5524
10000SOL    HW136605   7.069   9.330   3.468  0.5201  2.4658 -0.7746
10000SOL    HW236606   7.163   9.240   3.390  0.3872  1.2685  0.4002
10001SOL     OW36607   1.636   4.265   8.329 -0.3718 -0.3207 -0.0237
10001SOL    HW136608   1.680   4.197   8.278 -1.0044 -1.1990  0.5707
10001SOL    HW236609   1.673   4.256   8.417 -1.1914 -0.5996  0.3081
10002SOL     OW36610  11.322   0.746   4.072 -0.3266 -0.1821 -0.0299
10002SOL    HW136611  11.320   0.710   4.161  0.2537 -0.3713 -0.0894
10002SOL    HW236612  11.322   0.670   4.015 -0.0733 -0.0762 -0.1758
10003SOL     OW36613   7.997   7.094   3.442  0.4044 -0.5534 -0.4855
10003SOL    HW136614   8.073   7.147   3.466  0.2879 -0.8620  0.6012
10003SOL    HW236615   8.023   7.051   3.360  0.3335  1.5029 -1.6648
10004SOL     OW36616   2.057   2.617   8.022  0.2779  0.1373  0.1592
10004SOL    HW136617   2.071   2.703   7.983  0.3419 -0.1727 -0.5183
10004SOL    HW236618   1.964   2.615   8.043  0.2978  0.4133  0.2728
10005SOL     OW36619   1.132   1.431   8.099  0.4167  0.0779  0.4483
10005SOL    HW136620   1.226   1.433   8.117  0.7032 -0.4838 -0.8815
10005SOL    HW236621   1.120   1.487   8.022 -0.3728  0.3452  0.7543
10006SOL     OW36622   5.805   0.078   1.796  0.3404 -1.0231  0.3181
10006SOL    HW136623   5.820   0.070   1.890  0.4848 -0.3148  0.3632
10006SOL    HW236624   5.891   0.060   1.757  0.9195  1.1141  0.4725
10007SOL     OW36625   0.312   0.185  11.786  0.4892  0.5192  0.5833
10007SOL    HW136626   0.252   0.226  11.848 -0.6673  2.6246 -1.7415
10007SOL    HW236627   0.345   0.258  11.733  1.2277 -1.1586 -1.4274
10008SOL     OW36628  12.708   4.877   3.991 -0.2969 -0.0476  0.2743
10008SOL    HW136629  12.721   4.811   3.922  0.2669  0.7390 -0.3837
10008SOL    HW236630  12.730   4.830   4.072  4.8411  0.4395 -0.4710
10009SOL     OW36631   9.501   7.725   7.899 -0.0846 -0.2430 -0.5088
10009SOL    HW136632   9.540   7.802   7.858 -2.9153  0.8215 -1.4292
10009SOL    HW236633   9.530   7.729   7.990  1.8671  0.4269 -1.0967
10010SOL     OW36634  10.556   7.020   7.803  1.1326  0.2860 -0.1277
10010SOL    HW136635  10.499   7.039   7.729 -1.5289 -0.4368  1.5913
10010SOL    HW236636  10.603   7.102   7.818 -0.7985  1.5563 -0.5705
10011SOL     OW36637   7.676   0.530   0.999 -0.3315 -0.0923 -0.3989
10011SOL    HW136638   7.584   0.510   1.015 -0.0851 -0.7101  0.3331
10011SOL    HW236639   7.723   0.453   1.034  0.4363  0.0781 -1.0421
10012SOL     OW36640   8.175   7.180   9.729 -0.1498 -0.3198  0.1172
10012SOL    HW136641   8.081   7.165   9.719 -0.4830  1.4971  0.0706
10012SOL    HW236642   8.207   7.193   9.639 -0.0704  0.0877  0.1994
10013SOL     OW36643  12.772   8.509  10.224 -0.2346  0.1272 -0.1263
10013SOL    HW136644  12.768   8.442  10.156 -0.7471  0.0247  0.0065
10013SOL    HW236645  12.682   8.520  10.254 -0.3319  1.6793 -0.9194
10014SOL     OW36646   2.153   8.854   8.329  0.3124 -0.0542 -0.1667
10014SOL    HW136647   2.177   8.768   8.293  0.0605 -0.2810  0.2010
10014SOL    HW236648   2.229   8.880   8.381  0.2612 -0.2021 -0.0166
10015SOL     OW36649  11.431   0.739   6.326  0.5022 -0.6213 -0.2215
10015SOL    HW136650  11.489   0.801   6.283 -0.2686  0.5949  0.4419
10015SOL    HW236651  11.451   0.747   6.419 -0.8861  0.0101  0.0446
10016SOL     OW36652   1.102   8.322  11.383  0.2581  0.3609  0.2329
10016SOL    HW136653   1.011   8.344  11.398  0.7477  2.7621 -0.0102
10016SOL    HW236654   1.131   8.383  11.315  1.6476 -1.3865 -0.8462
10017SOL     OW36655   2.716   9.353   8.094 -0.3056  0.0370  0.2362
10017SOL    HW136656   2.721   9.284   8.160 -0.6241  0.5084  0.7646
10017SOL    HW236657   2.791   9.339   8.037  0.0584 -0.2803  0.7973
10018SOL     OW36658   7.668  11.187   6.470  0.3447 -0.0736 -0.5945
10018SOL    HW136659   7.722  11.262   6.446 -0.7808  0.5394 -1.2686
10018SOL    HW236660   7.727  11.130   6.520  1.3909  0.9362 -0.6463
10019SOL     OW36661   0.165   7.664   3.077  0.0021 -0.1057  0.2970
10019SOL    HW136662   0.242   7.708   3.039 -0.3524  0.0939 -0.1998
10019SOL    HW236663   0.154   7.706   3.162  1.3383 -1.1747  1.0235
10020SOL     OW36664   1.071   8.302   8.236  0.5767 -0.0224 -0.6726
10020SOL    HW136665   1.146   8.246   8.216 -0.3279 -1.0579 -1.2938
10020SOL    HW236666   1.065   8.300   8.332  1.5934  0.4390 -0.5892
10021SOL     OW36667   4.057   0.312  11.020  0.2881 -0.6034  0.2323
10021SOL    HW136668   4.024   0.385  10.969 -0.1047 -1.0264 -0.1331
10021SOL    HW236669   3.979   0.274  11.061  0.0750 -2.4053 -1.6694
10022SOL     OW36670   6.339   5.979   2.432 -0.1496  0.5380  0.1621
10022SOL    HW136671   6.428   5.944   2.441  0.5975  2.2446 -0.1390
10022SOL    HW236672   6.330   6.040   2.505 -0.8299  0.8761 -0.1995
10023SOL     OW36673   9.828  12.494   1.403 -0.6140 -0.0016  0.0091
10023SOL    HW136674   9.838  12.588   1.388 -1.5620  0.2537  0.8561
10023SOL    HW236675   9.800  12.487   1.494  1.6401 -1.2599  0.6914
10024SOL     OW36676   2.564   6.701   4.301  0.5852  0.2010  0.3779
10024SOL    HW136677   2.636   6.726   4.243 -1.2912  2.1850 -1.2409
10024SOL    HW236678   2.485   6.726   4.254 -1.4877 -4.5281  0.7339
10025SOL     OW36679   9.024   7.891   7.096  0.6748 -0.5044  0.1655
10025SOL    HW136680   9.100   7.948   7.094  1.2908 -1.1735  2.2594
10025SOL    HW236681   8.990   7.898   7.185  0.1884 -2.6242  0.2011
10026SOL     OW36682   5.215  10.979   4.777  0.4240  0.2985  0.4030
10026SOL    HW136683   5.194  11.041   4.848 -0.8708  0.6024 -0.2057
10026SOL    HW236684   5.311  10.977   4.774  0.4938  0.9466  1.5789
10027SOL     OW36685   2.387   9.977   7.745  0.0009 -0.3648  0.0791
10027SOL    HW136686   2.447   9.959   7.817 -0.5829 -2.5135  0.0712
10027SOL    HW236687   2.398   9.903   7.685 -2.4242 -0.6642 -0.0698
10028SOL     OW36688   7.492   3.437   1.936  0.4646 -0.1286 -0.4655
10028SOL    HW136689   7.543   3.396   1.867  1.3928  0.4827 -0.1666
10028SOL    HW236690   7.557   3.463   2.002 -0.1238  1.3718 -0.4275
10029SOL     OW36691  11.983   9.088   3.719 -0.0100  0.0876  0.0865
10029SOL    HW136692  11.919   9.039   3.770 -0.8051 -0.3746 -1.2970
10029SOL    HW236693  12.027   9.022   3.666  0.0425  0.6762 -0.6191
10030SOL     OW36694   9.684  10.586   2.724 -0.4090  0.2141 -0.7989
10030SOL    HW136695   9.750  10.583   2.655 -0.4483  0.9740 -0.8837
10030SOL    HW236696   9.732  10.572   2.805 -0.5168 -1.8072 -1.0468
10031SOL     OW36697   4.800   6.264   2.325 -0.3885 -0.1732  0.0530
10031SOL    HW136698   4.885   6.303   2.306 -0.3495 -0.3072 -0.0559
10031SOL    HW236699   4.819   6.196   2.390 -0.1249 -1.3918 -1.2345
10032SOL     OW36700   6.992  11.923   6.470 -0.0466  0.0398 -0.5076
10032SOL    HW136701   6.948  11.974   6.401 -0.3540 -0.3081 -0.5752
10032SOL    HW236702   7.076  11.898   6.431 -0.5680 -0.8779 -1.0883
10033SOL     OW36703   0.067   4.350   3.045 -0.4280 -0.4530 -0.4691
10033SOL    HW136704   0.020   4.273   3.077  0.4591 -0.6499  0.4214
10033SOL    HW236705   0.091   4.398   3.124 -0.5492  0.4892 -0.9927
10034SOL     OW36706   5.988   0.054   4.510  0.3883 -0.4041  0.3246
10034SOL    HW136707   6.027   0.019   4.590 -0.0850 -1.8787 -0.0726
10034SOL    HW236708   5.902   0.013   4.504 -0.1754  0.7880 -0.2144
10035SOL     OW36709   2.810   8.651   0.448  0.3061  0.0958  0.0568
10035SOL    HW136710   2.726   8.607   0.434  0.1074  0.7245 -0.7832
10035SOL    HW236711   2.875   8.584   0.431 -0.0073 -0.4853  1.0082
10036SOL     OW36712   9.817   5.455   9.201  0.0393  0.2302 -0.2793
10036SOL    HW136713   9.722   5.446   9.196 -0.0686 -0.4739  1.9848
10036SOL    HW236714   9.849   5.365   9.211  0.9850  0.4313 -1.3099
10037SOL     OW36715   8.975   4.735   1.646  0.2017  0.7433 -0.2966
10037SOL    HW136716   8.946   4.775   1.728  1.4831 -1.9632  1.6167
10037SOL    HW236717   8.907   4.671   1.625  0.6681  0.2768 -0.4150
10038SOL     OW36718   0.296   5.381   9.869  0.0026 -0.6734  0.1303
10038SOL    HW136719   0.382   5.398   9.830  0.4847 -2.2216  0.4437
10038SOL    HW236720   0.247   5.334   9.801 -1.1653  1.4394 -0.5872
10039SOL     OW36721   2.558  12.271  12.275  0.1965  0.3636  0.1450
10039SOL    HW136722   2.539  12.356  12.316 -1.3487  0.3482 -0.4577
10039SOL    HW236723   2.572  12.292  12.183 -0.4836 -0.0522 -0.0589
10040SOL     OW36724   7.759   3.255   3.422 -0.1395  0.4821 -0.0033
10040SOL    HW136725   7.779   3.171   3.465 -0.2799  0.5171  0.1334
10040SOL    HW236726   7.836   3.309   3.438  0.6606 -0.1626 -1.5084
10041SOL     OW36727   4.118  11.673  10.840 -0.5735  0.1364 -0.0911
10041SOL    HW136728   4.095  11.685  10.748  0.4254  0.4290 -0.3196
10041SOL    HW236729   4.073  11.745  10.885 -0.1734  0.6590 -0.5122
10042SOL     OW36730   2.140  12.497   8.322 -0.1368  0.2494  0.3844
10042SOL    HW136731   2.047  12.482   8.309 -0.1221 -1.1139  1.6518
10042SOL    HW236732   2.149  12.520   8.414  0.9010 -0.9516  0.6178
10043SOL     OW36733   5.367   4.774   2.941 -0.0366  0.1798 -0.2275
10043SOL    HW136734   5.308   4.756   3.014  0.7155  1.3061  0.7179
10043SOL    HW236735   5.335   4.856   2.904  0.0138 -0.0112 -0.6924
10044SOL     OW36736   2.202   3.185   4.714  0.1338  0.3898 -0.1936
10044SOL    HW136737   2.140   3.165   4.784 -1.0664 -1.1895 -1.6006
10044SOL    HW236738   2.173   3.269   4.680 -1.0263 -0.1243 -0.5501
10045SOL     OW36739   8.740   8.078   5.880  0.3092  0.2567  0.2006
10045SOL    HW136740   8.691   8.096   5.960  0.2895  0.8041  0.0655
10045SOL    HW236741   8.688   8.118   5.810  0.5915  0.2285 -0.0262
10046SOL     OW36742   8.821   8.239   5.545  0.2312  0.1401  0.0679
10046SOL    HW136743   8.766   8.172   5.585 -0.9159 -0.2866 -2.0724
10046SOL    HW236744   8.788   8.322   5.580 -1.1420 -0.1744 -0.4508
10047SOL     OW36745   8.810   3.460   4.685 -0.0069 -0.1101  0.1662
10047SOL    HW136746   8.898   3.493   4.667 -0.3020  0.4041 -0.3830
10047SOL    HW236747   8.765   3.464   4.601 -0.3023 -1.1850  0.2586
10048SOL     OW36748   8.936   5.549   8.938 -0.7316 -0.0213  0.4730
10048SOL    HW136749   8.936   5.512   9.026  2.2394  0.4854  0.8129
10048SOL    HW236750   8.931   5.644   8.951  0.4383  0.0993  0.1922
10049SOL     OW36751   2.077  11.038   9.840  0.0437 -0.3273 -0.1429
10049SOL    HW136752   2.091  10.945   9.855 -0.1285 -0.2848  0.3202
10049SOL    HW236753   2.025  11.067   9.916  0.0973  0.1411 -0.2794
10050SOL     OW36754  10.206   7.597   9.552  0.1432 -0.2339 -0.1155
10050SOL    HW136755  10.300   7.585   9.564  0.1281  0.8925  1.4279
10050SOL    HW236756  10.167   7.573   9.636 -0.7147  1.3251 -0.0162
10051SOL     OW36757  10.706   6.135   0.174  0.0646 -0.1982  0.3225
10051SOL    HW136758  10.662   6.087   0.105  0.6829  0.1821 -0.3555
10051SOL    HW236759  10.636   6.174   0.226 -0.4325  1.5821 -1.5586
10052SOL     OW36760   5.626   8.085   6.811  0.2359 -0.2559 -0.0908
10052SOL    HW136761   5.624   7.989   6.814 -4.5154 -0.3814 -0.7155
10052SOL    HW236762   5.624   8.106   6.718 -1.9214  0.3014  0.0384
10053SOL     OW36763  12.092  12.323   3.891  0.2823 -0.2420  0.5335
10053SOL    HW136764  12.143  12.319   3.972  1.0022  1.4944  0.2119
10053SOL    HW236765  12.123  12.402   3.847 -1.0279 -0.4344 -0.8211
10054SOL     OW36766  12.541   8.527   4.563 -0.4047  0.2303  0.4988
10054SOL    HW136767  12.524   8.559   4.474 -2.3165 -0.0438  0.7306
10054SOL    HW236768  12.637   8.528   4.570 -0.1723 -0.2567 -1.7433
10055SOL     OW36769  12.741  11.754   2.264  0.0771 -0.0504  0.6673
10055SOL    HW136770  12.829  11.779   2.292  0.6047  0.3576 -1.1948
10055SOL    HW236771  12.688  11.832   2.278  0.6288  0.5860 -0.5955
10056SOL     OW36772   3.295   1.229   1.394  0.2965 -0.5922 -0.2543
10056SOL    HW136773   3.254   1.283   1.462  0.7630  0.2328 -0.6124
10056SOL    HW236774   3.365   1.284   1.358  1.2341 -1.6956 -0.1694
10057SOL     OW36775  12.048  11.548   0.063  0.1084  0.5143 -0.3520
10057SOL    HW136776  11.994  11.536  -0.015  1.1582  1.6959 -1.2931
10057SOL    HW236777  12.135  11.520   0.037 -0.2638 -3.3760  1.7364
10058SOL     OW36778   2.264  11.059   3.406 -0.0013 -0.1673  0.1375
10058SOL    HW136779   2.201  11.075   3.477  0.0912  0.8309  0.0047
10058SOL    HW236780   2.268  11.141   3.359  1.1301 -0.3389 -0.0818
10059SOL     OW36781  10.737  11.154   3.971 -0.4433 -0.0197  0.2938
10059SOL    HW136782  10.676  11.146   3.897  1.6630  1.1601 -1.6958
10059SOL    HW236783  10.796  11.080   3.961  0.1863  0.4584  0.4681
10060SOL     OW36784   9.019   0.850   1.493 -0.2393 -0.4904  0.5667
10060SOL    HW136785   9.019   0.926   1.435 -1.1242 -0.7064  0.2708
10060SOL    HW236786   8.962   0.875   1.566 -1.4916 -1.2823 -0.1063
10061SOL     OW36787   6.008   9.729  11.802 -0.1386 -0.3198 -0.9788
10061SOL    HW136788   5.948   9.661  11.834  0.0869  0.2748  0.8134
10061SOL    HW236789   6.010   9.717  11.707 -4.3145  0.5623 -1.3886
10062SOL     OW36790  10.304  11.992   8.707  0.3141 -0.5263  0.2271
10062SOL    HW136791  10.312  11.901   8.678  0.7252 -1.2490  2.4292
10062SOL    HW236792  10.391  12.016   8.737  0.9782  1.6507 -2.9330
10063SOL     OW36793  10.345   7.317   2.624  0.1870 -0.0299 -0.3048
10063SOL    HW136794  10.341   7.405   2.662  2.2620  0.0903 -0.2377
10063SOL    HW236795  10.324   7.330   2.531 -0.1073  0.4379 -0.1741
10064SOL     OW36796   7.552   6.917   0.337  0.0265 -0.1815 -0.0688
10064SOL    HW136797   7.626   6.858   0.325  0.0474 -1.1041  3.4284
10064SOL    HW236798   7.591   6.999   0.366 -0.2152  0.0754 -0.4671
10065SOL     OW36799   2.935   5.657   8.789 -0.5436 -0.3397  0.2774
10065SOL    HW136800   2.855   5.606   8.804 -0.0299 -0.9959  0.8528
10065SOL    HW236801   2.946   5.656   8.694 -1.6023  0.3694  0.1280
10066SOL     OW36802   7.740   5.071   2.762 -0.4510 -0.4346 -0.6878
10066SOL    HW136803   7.737   5.005   2.832 -0.7777  1.1067  0.8343
10066SOL    HW236804   7.828   5.107   2.768 -0.0911 -1.0830 -1.8821
10067SOL     OW36805   3.631   8.816   7.940 -0.3153  0.3703 -0.1155
10067SOL    HW136806   3.643   8.884   7.874  0.2060  0.6400  0.2406
10067SOL    HW236807   3.541   8.826   7.970 -0.2922  0.7938 -0.1893
10068SOL     OW36808   6.554   6.386  12.018  0.2270 -0.0518 -0.7252
10068SOL    HW136809   6.600   6.469  12.028  1.3022 -0.8502  1.8408
10068SOL    HW236810   6.607   6.337  11.956  0.8053  0.4060 -0.6064
10069SOL     OW36811   8.012   1.676  11.776  0.8669  0.4440  0.4943
10069SOL    HW136812   8.097   1.663  11.817  0.6814 -0.3183  0.6549
10069SOL    HW236813   7.952   1.624  11.829  0.5050  0.0020 -0.3305
10070SOL     OW36814   9.690   1.255   2.559 -0.0007  0.5625 -0.5170
10070SOL    HW136815   9.612   1.301   2.591 -0.6095 -0.5519 -0.3439
10070SOL    HW236816   9.698   1.282   2.468  2.0353  4.1648  0.5312
10071SOL     OW36817   9.192   5.093   9.575 -0.1466 -0.2090 -0.6388
10071SOL    HW136818   9.195   5.142   9.493  0.2258  1.2703  0.2209
10071SOL    HW236819   9.283   5.089   9.604 -0.5483  1.9314  1.1664
10072SOL     OW36820   5.964   1.694   2.735  0.5835 -0.1973 -0.8411
10072SOL    HW136821   5.971   1.781   2.774 -1.7086 -0.8510  1.2025
10072SOL    HW236822   6.005   1.635   2.799 -0.8467 -0.9891 -0.6250
10073SOL     OW36823  12.294   5.302   8.251 -0.0249 -0.6516 -0.0776
10073SOL    HW136824  12.254   5.385   8.226  1.6829  0.5047  0.8254
10073SOL    HW236825  12.367   5.291   8.190  0.9591 -0.4661  1.0441
10074SOL     OW36826  12.115   9.257   6.509 -0.6836  0.7619  0.5933
10074SOL    HW136827  12.191   9.296   6.553 -0.5863 -0.1281  1.2471
10074SOL    HW236828  12.096   9.178   6.560 -2.7348  1.5338  1.1119
10075SOL     OW36829   9.092   2.574   7.943  0.2684  0.2556  0.6807
10075SOL    HW136830   9.156   2.643   7.930  1.7185 -0.8171  1.7992
10075SOL    HW236831   9.053   2.594   8.029  0.3078 -0.0168  0.7624
10076SOL     OW36832  11.471   7.115   3.882 -0.4286 -0.2227  0.5386
10076SOL    HW136833  11.402   7.122   3.948  0.3226  0.2360  1.2898
10076SOL    HW236834  11.424   7.094   3.801 -1.4642  0.2421  0.9979
10077SOL     OW36835   4.412   9.395   9.126  0.0612 -0.0828 -0.1566
10077SOL    HW136836   4.387   9.332   9.194 -0.3153 -2.8970 -2.6936
10077SOL    HW236837   4.337   9.398   9.067  1.1312  0.6743 -1.5501
10078SOL     OW36838  10.759   1.105   7.213 -0.1117  0.4830 -0.0954
10078SOL    HW136839  10.771   1.198   7.195  0.2426  0.2275 -1.2600
10078SOL    HW236840  10.807   1.090   7.295 -1.3044  1.5753  0.8469
10079SOL     OW36841   6.730   2.970   2.229  0.2305 -0.3193  0.5397
10079SOL    HW136842   6.763   2.890   2.269 -1.8279 -2.6228 -1.9760
10079SOL    HW236843   6.645   2.985   2.270 -0.7081 -1.2040 -0.9768
10080SOL     OW36844   1.114   1.326   1.469 -0.0090  0.4765  0.1732
10080SOL    HW136845   1.193   1.380   1.481  1.1128 -0.7176 -1.4763
10080SOL    HW236846   1.128   1.251   1.527  0.1912  0.1370 -0.3140
10081SOL     OW36847   6.587   7.926   5.322 -0.4506  0.0625  0.4034
10081SOL    HW136848   6.597   7.831   5.313 -1.7819 -0.1330  0.6977
10081SOL    HW236849   6.523   7.936   5.393  0.3610  1.2137  1.0030
10082SOL     OW36850   3.354   4.614   6.007 -0.3380  0.6466  0.0518
10082SOL    HW136851   3.420   4.571   5.952 -0.0375  2.1711 -0.8428
10082SOL    HW236852   3.295   4.543   6.034  0.9201 -0.5373 -0.1930
10083SOL     OW36853   3.997   1.356   4.135  0.0262  0.5300  0.0771
10083SOL    HW136854   3.945   1.276   4.127 -1.8771  1.6346  0.7202
10083SOL    HW236855   4.044   1.363   4.052 -0.8980 -0.5178 -0.5551
10084SOL     OW36856   5.482   7.799  10.275  0.3452 -0.4260  0.4003
10084SOL    HW136857   5.399   7.835  10.307 -0.9768 -0.9950 -2.1013
10084SOL    HW236858   5.526   7.874  10.233 -0.9318 -0.9108 -1.9804
10085SOL     OW36859  10.445   0.214   3.953 -0.3604  0.1521 -0.3710
10085SOL    HW136860  10.458   0.174   4.039  0.5261  0.1798 -0.4827
10085SOL    HW236861  10.518   0.275   3.944 -0.7231  0.5073 -0.9405
10086SOL     OW36862   6.984   9.633   6.362 -0.1187 -0.0056  0.5396
10086SOL    HW136863   6.922   9.695   6.325 -0.0876 -0.0141  0.4722
10086SOL    HW236864   7.050   9.687   6.405  1.9746  0.2290 -2.6425
10087SOL     OW36865   5.402   1.899   8.428  0.3008  0.1852  0.5671
10087SOL    HW136866   5.441   1.981   8.396 -1.1118  0.8812  0.5702
10087SOL    HW236867   5.406   1.906   8.523 -0.4223  0.5608  0.5750
10088SOL     OW36868   1.734   3.190   8.610  0.5590  0.0903  0.1496
10088SOL    HW136869   1.681   3.270   8.611  0.5226  0.0894  2.4178
10088SOL    HW236870   1.786   3.198   8.530 -0.4786  1.6659 -0.4404
10089SOL     OW36871   6.373   4.020   9.412  0.2551  0.4496  0.6277
10089SOL    HW136872   6.418   4.041   9.493 -1.5298 -1.5785  2.2787
10089SOL    HW236873   6.401   3.930   9.392 -0.0153  0.6066 -0.4951
10090SOL     OW36874   5.432   3.013   4.416 -0.1042  0.2118  0.3223
10090SOL    HW136875   5.468   3.101   4.413  1.0277 -0.2674 -1.4262
10090SOL    HW236876   5.411   2.998   4.508  1.9331  1.4107  1.0281
10091SOL     OW36877   2.828   8.644   9.153  0.3568  0.8527 -0.0362
10091SOL    HW136878   2.796   8.554   9.152  1.7536  0.3305 -0.5995
10091SOL    HW236879   2.913   8.640   9.109  1.5853  2.0271  2.0430
10092SOL     OW36880   7.341   6.410  12.098  0.0387  0.4979 -0.2245
10092SOL    HW136881   7.261   6.462  12.101 -0.7414 -0.5094 -1.8471
10092SOL    HW236882   7.394   6.451  12.030  1.9017  2.3850  2.1871
10093SOL     OW36883   8.443   8.550   3.869  0.1826  0.0251 -0.1690
10093SOL    HW136884   8.431   8.456   3.859  1.1280 -0.1555  0.3007
10093SOL    HW236885   8.493   8.577   3.792  0.4524  0.0378  0.0114
10094SOL     OW36886   0.069   2.510   1.241  0.2987 -0.2847 -0.1292
10094SOL    HW136887   0.134   2.440   1.244  0.4933 -0.1979 -1.5872
10094SOL    HW236888   0.014   2.489   1.166  0.8985  1.5607 -1.1511
10095SOL     OW36889   5.077   2.496   0.415 -0.5484 -0.2946 -0.2700
10095SOL    HW136890   5.073   2.590   0.401 -1.3420 -0.0628  1.3132
10095SOL    HW236891   5.166   2.471   0.390  0.3887  1.2477  1.3421
10096SOL     OW36892  10.854   9.246   6.233  0.0804  0.4985 -0.5910
10096SOL    HW136893  10.875   9.265   6.142  4.1553  0.9493  0.2343
10096SOL    HW236894  10.805   9.164   6.230  1.5856 -0.4240 -3.1329
10097SOL     OW36895  12.668   6.604  12.021 -0.2330  0.2758  0.5022
10097SOL    HW136896  12.699   6.620  12.110 -0.7801 -1.7687  1.1151
10097SOL    HW236897  12.577   6.634  12.021  0.1817  1.6198  0.1648
10098SOL     OW36898  12.573   0.106   6.247 -0.4290 -0.2828  0.0451
10098SOL    HW136899  12.576   0.023   6.295  1.0893  1.0091  2.4317
10098SOL    HW236900  12.652   0.106   6.193  0.0877 -0.0394  0.7774
10099SOL     OW36901   8.131  12.102  10.526  0.5501 -0.1343 -0.2128
10099SOL    HW136902   8.188  12.178  10.533  0.3459 -0.0690  1.0090
10099SOL    HW236903   8.053  12.125  10.576 -0.4288 -0.3588 -1.5729
10100SOL     OW36904  12.776   2.047  12.196 -0.3757  0.3634  1.2106
10100SOL    HW136905  12.689   2.008  12.186 -0.4482  0.4944  1.3244
10100SOL    HW236906  12.799   2.033  12.288  0.6309 -1.5373  0.7172
10101SOL     OW36907   9.266  10.374   1.283  0.8032  0.0337 -0.5991
10101SOL    HW136908   9.238  10.441   1.220  1.3989 -1.0167 -2.0524
10101SOL    HW236909   9.206  10.383   1.356 -1.1066  0.1311 -2.1087
10102SOL     OW36910   1.805   8.732   3.627 -0.0593  1.2056  0.1469
10102SOL    HW136911   1.810   8.771   3.715 -0.4034 -0.0656  0.7524
10102SOL    HW236912   1.795   8.807   3.569 -4.7008  2.0251  1.5455
10103SOL     OW36913   6.720   5.196   5.964 -0.5649 -0.3284 -0.3454
10103SOL    HW136914   6.763   5.162   6.043  0.2089 -0.9034 -1.0030
10103SOL    HW236915   6.641   5.239   5.997  1.4740  2.6175  1.1594
10104SOL     OW36916   4.564   3.974   1.426 -0.5798 -0.0649  0.4678
10104SOL    HW136917   4.495   4.015   1.373 -0.7880 -0.5060  0.3955
10104SOL    HW236918   4.580   4.036   1.496  1.5514  1.8193 -1.4985
10105SOL     OW36919   4.563   4.188   1.235 -0.3668 -0.3916  0.1563
10105SOL    HW136920   4.557   4.233   1.151  0.5034 -2.3615 -1.0158
10105SOL    HW236921   4.636   4.231   1.280 -0.4616  0.2906 -0.3198
10106SOL     OW36922  12.309   8.073   3.097  0.0097 -0.0459  0.8598
10106SOL    HW136923  12.384   8.029   3.058 -1.6654 -0.4768 -2.2030
10106SOL    HW236924  12.335   8.165   3.103  1.1837 -0.3736  1.0766
10107SOL     OW36925   0.490   8.701   7.051  0.4016 -0.5524 -0.2914
10107SOL    HW136926   0.513   8.768   7.116 -1.5571 -0.9623  0.9104
10107SOL    HW236927   0.442   8.749   6.984 -0.6931 -0.6447  0.3933
10108SOL     OW36928  10.788   4.348   1.144 -0.0890 -0.5092 -0.1330
10108SOL    HW136929  10.812   4.340   1.236 -1.3706 -0.5462  0.2187
10108SOL    HW236930  10.853   4.296   1.097  0.5057 -0.5858  0.7535
10109SOL     OW36931   1.320   3.514  10.286  0.3900  0.1688  0.2290
10109SOL    HW136932   1.297   3.422  10.301  1.1300 -0.1075 -0.2541
10109SOL    HW236933   1.309   3.527  10.192 -0.8426  0.9104  0.4633
10110SOL     OW36934   2.698  12.195   3.733  0.0452 -0.2381 -0.4962
10110SOL    HW136935   2.759  12.122   3.745  1.0195  0.3819 -1.5383
10110SOL    HW236936   2.723  12.235   3.650 -0.3300  1.4237  0.1384
10111SOL     OW36937   8.675   6.788   9.599  0.2379  0.1218 -0.1303
10111SOL    HW136938   8.633   6.720   9.651 -1.1594  0.6267 -0.5649
10111SOL    HW236939   8.725   6.840   9.663  0.7043 -0.8281  0.3047
10112SOL     OW36940   7.681   8.119   7.007 -0.3151 -0.3987 -0.1250
10112SOL    HW136941   7.594   8.146   7.038 -0.0336  0.6806 -0.2185
10112SOL    HW236942   7.679   8.024   7.010 -1.4110 -0.3864  0.1381
10113SOL     OW36943   3.900   0.531   0.162  0.3412 -0.3353 -0.3763
10113SOL    HW136944   3.896   0.599   0.229  2.5887 -0.2374 -0.2672
10113SOL    HW236945   3.973   0.475   0.189 -0.7901 -2.2305 -1.0092
10114SOL     OW36946   6.657   2.917   8.019  0.1781 -0.4287 -0.5393
10114SOL    HW136947   6.664   2.886   7.928  0.8466  0.9582 -0.9863
10114SOL    HW236948   6.747   2.938   8.044 -0.0349 -0.5855  0.3687
10115SOL     OW36949   7.422   9.228   6.434  0.2501  0.3660  0.2319
10115SOL    HW136950   7.330   9.220   6.410 -0.3390  2.4625  1.4902
10115SOL    HW236951   7.436   9.323   6.442  2.3600  0.0684  0.6529
10116SOL     OW36952   8.500  10.512   2.293  0.8881 -0.1175 -0.1328
10116SOL    HW136953   8.420  10.513   2.240 -0.2087 -0.3938  1.4454
10116SOL    HW236954   8.524  10.604   2.303  1.1712 -0.0699 -1.1830
10117SOL     OW36955  11.129   0.971   4.478  0.3620 -0.2742 -0.3029
10117SOL    HW136956  11.109   1.032   4.407 -2.0663 -1.7308 -0.9710
10117SOL    HW236957  11.218   0.941   4.460  2.2530  3.9244  0.8148
10118SOL     OW36958   8.356  10.035   5.655  0.0083 -0.4723  0.2566
10118SOL    HW136959   8.361  10.093   5.578  0.1631 -2.8082 -1.6111
10118SOL    HW236960   8.428  10.064   5.711 -0.2270  1.4335 -0.3455
10119SOL     OW36961   0.252   6.022   5.245 -0.0610 -0.0361 -0.0718
10119SOL    HW136962   0.306   5.944   5.227 -0.9312 -0.0996 -2.9083
10119SOL    HW236963   0.177   5.988   5.293  0.5384 -0.5853  0.5022
10120SOL     OW36964   5.262   5.288   1.735  0.3285 -0.1234  0.0656
10120SOL    HW136965   5.193   5.304   1.671 -0.1773 -1.8158  0.1450
10120SOL    HW236966   5.323   5.229   1.691  0.0089 -1.2566  1.0815
10121SOL     OW36967   3.241   2.050  11.550 -0.4485  0.4065  0.4098
10121SOL    HW136968   3.177   2.083  11.613 -0.2505  1.1901  0.2184
10121SOL    HW236969   3.297   1.991  11.600 -0.0836  1.2806  1.0635
10122SOL     OW36970  11.509  11.423  11.563 -0.3108 -0.1960  0.1694
10122SOL    HW136971  11.494  11.396  11.653 -1.3053  0.0893  0.1010
10122SOL    HW236972  11.467  11.355  11.510 -0.5308  0.1182 -0.0610
10123SOL     OW36973   9.271   8.222   4.472 -0.3640 -0.1263 -0.4253
10123SOL    HW136974   9.289   8.164   4.546 -2.3575  0.9970  1.0047
10123SOL    HW236975   9.177   8.238   4.475 -0.0361  2.4922 -1.2680
10124SOL     OW36976   1.291   5.492   5.219 -0.1540 -0.2371  0.3982
10124SOL    HW136977   1.354   5.558   5.247  0.2494 -0.2553 -0.4249
10124SOL    HW236978   1.333   5.409   5.237 -0.4762 -0.2680  1.0207
10125SOL     OW36979  12.627  10.543   1.561  0.4191  0.1327 -0.2127
10125SOL    HW136980  12.693  10.515   1.497  0.3448 -1.8992  0.5125
10125SOL    HW236981  12.615  10.636   1.544  1.9787  0.1178 -1.7141
10126SOL     OW36982   9.801   0.262   8.255 -0.7413 -0.1054  0.0779
10126SOL    HW136983   9.812   0.168   8.262  0.4177  0.0402  0.3762
10126SOL    HW236984   9.809   0.295   8.344  1.7182  0.5228 -0.2883
10127SOL     OW36985   7.277   1.171   8.149  0.6820  0.0934 -0.4366
10127SOL    HW136986   7.304   1.079   8.143  1.0268  0.2076 -0.6812
10127SOL    HW236987   7.216   1.173   8.223  0.3645 -0.4058 -0.6731
10128SOL     OW36988   2.572   8.204   4.571  0.0287  0.3314  0.3709
10128SOL    HW136989   2.524   8.204   4.489  1.1214  0.2367 -0.2802
10128SOL    HW236990   2.513   8.246   4.633 -1.0806 -0.2052 -0.2870
10129SOL     OW36991   8.100   8.564   1.786 -0.3822 -0.2552 -0.2269
10129SOL    HW136992   8.134   8.478   1.814 -0.2820  0.4916  2.2395
10129SOL    HW236993   8.026   8.580   1.845 -0.6509  1.1724 -0.9236
10130SOL     OW36994  12.440   7.058  12.204 -0.0918  0.1955 -0.2354
10130SOL    HW136995  12.396   6.981  12.237 -1.2248  0.5619 -0.8492
10130SOL    HW236996  12.532   7.045  12.227  0.0972 -2.2640 -1.9812
10131SOL     OW36997   9.286   8.424  10.462  0.0562  0.0458 -0.1818
10131SOL    HW136998   9.253   8.510  10.489  0.7254  1.1041 -2.5066
10131SOL    HW236999   9.210   8.381  10.421 -0.1821 -0.3332  0.6482
10132SOL     OW37000   5.292   5.923   8.172 -0.3139 -0.3050 -0.5359
10132SOL    HW137001   5.230   5.994   8.189 -0.4736 -0.2974 -1.1105
10132SOL    HW237002   5.321   5.938   8.082  1.4557  0.3742  0.1182
10133SOL     OW37003   5.236  12.377  12.548  0.5415 -0.4768  0.5714
10133SOL    HW137004   5.233  12.405  12.640  2.1736  0.2521  0.4336
10133SOL    HW237005   5.329  12.360  12.531  0.3414 -0.0361 -1.1050
10134SOL     OW37006   3.520   8.324   8.652 -0.0831  0.3185  0.1109
10134SOL    HW137007   3.454   8.307   8.720  1.3167  0.8582  1.6665
10134SOL    HW237008   3.554   8.411   8.674  1.4091 -0.1095 -0.4447
10135SOL     OW37009   3.125   5.323   3.197  0.5963  0.2414 -0.0510
10135SOL    HW137010   3.119   5.380   3.120 -0.7879  3.2139  2.0764
10135SOL    HW237011   3.049   5.266   3.191  0.7808  0.0846 -1.1026
10136SOL     OW37012   5.718   2.551  10.830 -0.1603 -0.0971 -0.8406
10136SOL    HW137013   5.642   2.584  10.877 -0.5375 -0.0113 -1.4888
10136SOL    HW237014   5.746   2.625  10.776  2.0496  0.7898  1.3388
10137SOL     OW37015  11.006  11.785   4.092  0.0446  0.4454  0.6715
10137SOL    HW137016  10.936  11.733   4.130 -0.2633  1.3934  1.4222
10137SOL    HW237017  10.966  11.869   4.071 -0.4673 -0.6394 -3.9189
10138SOL     OW37018  12.226   2.128  10.043  0.4950  1.0018  0.1030
10138SOL    HW137019  12.197   2.210  10.082  1.4772  1.3335  0.1704
10138SOL    HW237020  12.167   2.114   9.969  0.4490  1.8780 -0.0337
10139SOL     OW37021   9.517   0.701   8.133 -0.3007 -0.3411 -0.3263
10139SOL    HW137022   9.500   0.792   8.108  1.9942 -0.0598 -1.1046
10139SOL    HW237023   9.556   0.707   8.221 -0.0062 -0.5541 -0.4410
10140SOL     OW37024   1.815   4.766   1.480 -0.3288 -0.5370  0.1712
10140SOL    HW137025   1.817   4.794   1.572  0.3504 -1.8965  0.5954
10140SOL    HW237026   1.724   4.782   1.453 -0.3475  0.5999  0.8270
10141SOL     OW37027   2.838   9.354   2.074  0.0127  0.2926 -0.7230
10141SOL    HW137028   2.747   9.345   2.104 -1.0257  4.0890 -2.1108
10141SOL    HW237029   2.879   9.271   2.095 -3.0050 -0.5770  2.6083
10142SOL     OW37030   9.445   2.122   3.140 -0.0360 -0.2911 -0.1468
10142SOL    HW137031   9.471   2.214   3.154 -0.8852 -0.3228  2.1067
10142SOL    HW237032   9.523   2.072   3.165 -0.4771 -0.2237  1.5136
10143SOL     OW37033   6.736   6.488   6.297 -0.0770 -0.0520 -0.5795
10143SOL    HW137034   6.799   6.465   6.365  0.2482  1.6883 -0.2279
10143SOL    HW237035   6.775   6.565   6.254 -1.0608 -0.1105 -1.6221
10144SOL     OW37036   6.980   2.731   3.989 -0.0367  0.2909 -0.2841
10144SOL    HW137037   7.059   2.736   3.935  0.8814  0.3225  1.0059
10144SOL    HW237038   6.931   2.810   3.966  0.6317  0.6171 -0.6373
10145SOL     OW37039   9.322  12.710  12.681 -0.3369  0.0569  0.0029
10145SOL    HW137040   9.397  12.734  12.734 -0.1952  0.5228 -0.3974
10145SOL    HW237041   9.350  12.727  12.591 -0.8866  0.1495 -0.1541
10146SOL     OW37042  12.282   9.734   5.513  0.0487  0.4371  0.1949
10146SOL    HW137043  12.377   9.721   5.516  0.0537  0.6339  0.9040
10146SOL    HW237044  12.268   9.787   5.434  0.1409 -2.7050 -2.1186
10147SOL     OW37045   2.851   9.971  12.395 -0.0989  0.6760 -0.0665
10147SOL    HW137046   2.913   9.899  12.406 -0.7233  0.2702  0.9004
10147SOL    HW237047   2.836   9.975  12.300  0.2306 -0.2073 -0.1633
10148SOL     OW37048   7.400   1.057   5.417  0.1218  0.0606 -0.5790
10148SOL    HW137049   7.330   1.013   5.464 -0.5849  0.6305 -1.0703
10148SOL    HW237050   7.473   0.995   5.419  0.3049  0.2867  1.6970
10149SOL     OW37051   8.072   0.660   6.551 -0.6551 -0.9138  0.3848
10149SOL    HW137052   8.059   0.720   6.478 -0.1421 -1.8746 -0.5298
10149SOL    HW237053   8.131   0.706   6.610 -2.2041  0.4680  0.9372
10150SOL     OW37054  11.509   3.340  11.201  0.0702  0.2938 -0.5269
10150SOL    HW137055  11.462   3.322  11.120  0.3768  1.9368 -1.0985
10150SOL    HW237056  11.597   3.306  11.186 -0.2346 -0.6210 -0.3492
10151SOL     OW37057  11.370   3.180   1.705 -0.5880 -0.5265 -0.2921
10151SOL    HW137058  11.279   3.182   1.676 -0.6668  0.2601 -0.0157
10151SOL    HW237059  11.378   3.255   1.763  0.6923  0.4718 -1.6821
10152SOL     OW37060  10.506   8.185   7.743  0.0248 -0.6291 -0.0430
10152SOL    HW137061  10.481   8.277   7.756  1.4232 -0.1637 -0.4511
10152SOL    HW237062  10.476   8.164   7.655 -1.6953 -1.0786  0.6135
10153SOL     OW37063   1.885   7.830   8.806 -0.3613 -0.1653 -0.0070
10153SOL    HW137064   1.942   7.833   8.729 -0.1872 -0.4705  0.1105
10153SOL    HW237065   1.857   7.921   8.817 -0.0464 -0.0424 -0.1753
10154SOL     OW37066   5.589   9.812   3.621 -0.4942 -0.7527 -0.8104
10154SOL    HW137067   5.604   9.885   3.560  0.1795 -0.8609 -0.7817
10154SOL    HW237068   5.659   9.750   3.602  0.7970 -0.0135  1.2473
10155SOL     OW37069   3.747   3.862   3.344 -0.0963  0.5093 -0.1295
10155SOL    HW137070   3.653   3.866   3.363 -0.4118  0.9199 -1.6882
10155SOL    HW237071   3.768   3.769   3.352 -0.9573  0.1983 -1.1289
10156SOL     OW37072   4.013   2.918   6.838  0.2898 -0.1195  0.0326
10156SOL    HW137073   4.084   2.875   6.885  0.6629 -0.2206 -0.6050
10156SOL    HW237074   4.057   2.978   6.778 -0.0239 -1.5776 -1.7828
10157SOL     OW37075   4.900   9.689   5.672 -0.6149 -0.1242 -0.1868
10157SOL    HW137076   4.942   9.622   5.618  0.9394 -0.1776  1.0319
10157SOL    HW237077   4.914   9.771   5.625  2.9020  0.2146  1.1747
10158SOL     OW37078   2.662   1.726   7.288 -0.5372 -0.4620  0.1998
10158SOL    HW137079   2.668   1.689   7.200 -0.9498 -0.0440 -0.0102
10158SOL    HW237080   2.571   1.713   7.314 -0.3705 -0.7560  0.6430
10159SOL     OW37081   3.615   0.047   6.079  0.7948 -0.0526 -0.7048
10159SOL    HW137082   3.621   0.081   5.989  3.8700 -1.2792 -1.0897
10159SOL    HW237083   3.546  -0.019   6.075  0.1455  0.6544 -1.8636
10160SOL     OW37084  11.169   9.608   1.574 -0.6877  0.1350 -0.0063
10160SOL    HW137085  11.170   9.670   1.501 -0.8776 -0.6198 -0.6600
10160SOL    HW237086  11.259   9.604   1.604 -0.7987  1.3112  0.5564
10161SOL     OW37087   2.500   7.204   3.324 -0.1151  0.7015  0.4683
10161SOL    HW137088   2.512   7.290   3.364 -0.9662  1.0229  0.0491
10161SOL    HW237089   2.573   7.196   3.262 -1.2212  2.0873 -1.1190
10162SOL     OW37090   3.699   8.829  10.604  0.0731  0.3241 -1.0324
10162SOL    HW137091   3.663   8.791  10.684  1.2066  1.2949 -0.0139
10162SOL    HW237092   3.626   8.879  10.566 -0.3098  0.3628 -0.2662
10163SOL     OW37093   7.470   5.626   4.987  0.0332 -0.2628  0.2821
10163SOL    HW137094   7.463   5.708   4.938 -2.0588 -1.7293 -2.1680
10163SOL    HW237095   7.396   5.629   5.048  0.1314 -0.1896  0.3966
10164SOL     OW37096  12.579   9.035   1.406  0.0782  0.0322  0.4541
10164SOL    HW137097  12.545   8.969   1.345 -0.2832 -0.8878  1.6090
10164SOL    HW237098  12.509   9.099   1.412  0.2555  0.3110 -0.3500
10165SOL     OW37099   4.025  10.044   7.205 -0.5335 -0.1967 -0.3928
10165SOL    HW137100   4.073   9.992   7.140 -1.2450 -1.9807  0.4293
10165SOL    HW237101   4.026  10.133   7.170 -1.4854 -1.1938 -3.2259
10166SOL     OW37102   0.920  10.709   3.627 -0.7729 -0.0886  0.3433
10166SOL    HW137103   0.906  10.740   3.537 -0.9314  0.8484  0.6895
10166SOL    HW237104   0.984  10.769   3.664 -1.1531 -0.1081  1.0521
10167SOL     OW37105   9.347   7.576   9.940  0.4228 -0.3145  0.1086
10167SOL    HW137106   9.410   7.532   9.884  0.9901 -0.6912  1.0187
10167SOL    HW237107   9.397   7.649   9.978  0.0013  0.0301  0.0030
10168SOL     OW37108   2.323   7.236   0.731  0.3511 -0.3208  0.0345
10168SOL    HW137109   2.286   7.178   0.664  0.6017 -1.7888  1.1110
10168SOL    HW237110   2.374   7.178   0.786  0.7271  0.9793  1.0921
10169SOL     OW37111   9.359   7.531   0.273  0.1308 -0.0997  0.2476
10169SOL    HW137112   9.315   7.561   0.193  1.7988  1.8230 -0.0219
10169SOL    HW237113   9.301   7.557   0.344 -1.3228 -1.7385 -0.2724
10170SOL     OW37114  11.744   8.989   7.626 -0.1780  0.5147  0.3207
10170SOL    HW137115  11.652   8.966   7.636 -0.0085 -0.3038  0.0469
10170SOL    HW237116  11.764   9.040   7.705 -1.4366  2.6966 -0.6822
10171SOL     OW37117   2.665   3.826   8.784  0.0569  0.1740  0.2381
10171SOL    HW137118   2.698   3.796   8.870  1.5861  0.1276 -0.3264
10171SOL    HW237119   2.640   3.917   8.798 -0.9976 -0.2221  1.0497
10172SOL     OW37120   3.976   1.946   0.420  0.1745 -0.3370 -0.0593
10172SOL    HW137121   3.953   1.902   0.502 -0.7720  0.4818  0.1405
10172SOL    HW237122   3.896   1.993   0.396  1.7683  3.1829  0.9822
10173SOL     OW37123   9.540   9.841   9.417  0.5946  0.1937  0.0765
10173SOL    HW137124   9.597   9.810   9.346  0.9992  0.1214  0.4249
10173SOL    HW237125   9.492   9.763   9.444  0.9191  0.0729  0.3163
10174SOL     OW37126  10.829   7.186   4.213  0.2591  0.1023  0.0903
10174SOL    HW137127  10.749   7.192   4.162  0.5182  0.3911 -0.2876
10174SOL    HW237128  10.899   7.181   4.148  0.4562 -1.7478  0.3883
10175SOL     OW37129   3.455   3.608   7.022  0.3045  0.3055  0.4379
10175SOL    HW137130   3.406   3.636   7.100 -1.6618 -0.8411 -0.3069
10175SOL    HW237131   3.462   3.513   7.032 -1.1893 -0.0600 -1.3701
10176SOL     OW37132   9.479   7.905   3.348  0.5329 -0.2378  0.3139
10176SOL    HW137133   9.417   7.856   3.401  0.0684 -2.8568 -2.4084
10176SOL    HW237134   9.554   7.847   3.337  0.1617 -0.3117 -2.6608
10177SOL     OW37135   3.227   1.890   0.821  0.7716 -0.1113  0.3034
10177SOL    HW137136   3.297   1.953   0.839 -0.6155  1.5175  0.2427
10177SOL    HW237137   3.169   1.936   0.760  0.1749 -1.8146 -0.4709
10178SOL     OW37138   9.537   7.428   7.584  0.1457 -0.0662 -0.0859
10178SOL    HW137139   9.520   7.466   7.671 -0.9314  0.2307 -0.4204
10178SOL    HW237140   9.599   7.357   7.602  1.6063  1.3250  0.6494
10179SOL     OW37141  11.388   0.264   0.086  0.0554  0.0789 -0.4900
10179SOL    HW137142  11.359   0.295  -0.000  0.6195  0.4891 -0.5387
10179SOL    HW237143  11.307   0.241   0.132 -0.3582  1.2044 -0.6221
10180SOL     OW37144   6.120   3.000   9.431 -0.1188  0.3324  0.1836
10180SOL    HW137145   6.119   3.045   9.346 -0.6970  2.3942  1.2235
10180SOL    HW237146   6.197   2.943   9.427  1.0806  1.9498 -0.9467
10181SOL     OW37147  12.212   3.193   4.062 -0.2250  0.1821 -0.0128
10181SOL    HW137148  12.292   3.175   4.110  0.3926 -0.0162 -1.0979
10181SOL    HW237149  12.233   3.266   4.005 -1.0466  0.6288  0.2282
10182SOL     OW37150   3.640   8.193   6.375  0.1309  0.3577  0.5708
10182SOL    HW137151   3.732   8.175   6.398  0.2866  1.4502  0.8982
10182SOL    HW237152   3.604   8.233   6.454 -0.8992 -0.8851  0.7600
10183SOL     OW37153  11.141   6.296   2.569  0.4579  0.4586 -0.0520
10183SOL    HW137154  11.224   6.336   2.596 -0.4459  0.6996  2.5922
10183SOL    HW237155  11.164   6.204   2.553  1.4529  0.7814 -0.6167
10184SOL     OW37156   1.894  10.545  10.343  0.0883  0.2600 -0.3339
10184SOL    HW137157   1.914  10.638  10.355 -0.0832  0.3047 -0.3921
10184SOL    HW237158   1.832  10.524  10.413 -1.6747  0.7527 -1.6759
10185SOL     OW37159   3.901   4.997   6.861  0.7830  0.0957  0.0947
10185SOL    HW137160   3.889   5.029   6.772  0.6661 -0.3931 -0.0678
10185SOL    HW237161   3.982   5.038   6.891  1.0864 -0.1313 -0.4140
10186SOL     OW37162   2.452   3.601   6.541 -0.4587  0.2843  0.3307
10186SOL    HW137163   2.480   3.640   6.623 -1.6104  0.7007  0.5405
10186SOL    HW237164   2.457   3.506   6.557 -0.4348  0.3592  0.7878
10187SOL     OW37165   1.581   0.492   8.948 -0.4325  0.4422 -0.5335
10187SOL    HW137166   1.672   0.467   8.938 -0.3956  0.2766  0.1611
10187SOL    HW237167   1.549   0.440   9.022 -0.7051  1.4836  0.1169
10188SOL     OW37168   2.517  12.429   9.713 -0.2619 -0.0041  0.1156
10188SOL    HW137169   2.553  12.384   9.636 -0.1151  0.9983 -0.4260
10188SOL    HW237170   2.561  12.389   9.788 -0.5366 -1.1267 -0.3015
10189SOL     OW37171   6.069   8.489  10.993 -0.1509  0.1211 -0.0149
10189SOL    HW137172   6.046   8.400  11.019  0.6642 -0.1670 -0.2342
10189SOL    HW237173   5.986   8.536  10.990 -0.5801 -0.6128  0.1769
10190SOL     OW37174   0.047   9.647   0.195  0.1189 -0.4412 -0.7448
10190SOL    HW137175   0.070   9.562   0.158  1.0190 -0.6892  0.3259
10190SOL    HW237176   0.128   9.680   0.234 -0.8178 -0.3600  1.2777
10191SOL     OW37177  12.121   1.522   1.815 -0.0798  0.3507 -0.1566
10191SOL    HW137178  12.069   1.588   1.861  0.1886  0.2907  0.2410
10191SOL    HW237179  12.069   1.500   1.737 -1.4276 -0.8628  1.0122
10192SOL     OW37180   0.742  12.155   4.507  0.5150 -0.2229 -0.0004
10192SOL    HW137181   0.783  12.173   4.422  1.7788  0.0880  0.6405
10192SOL    HW237182   0.776  12.068   4.531  0.8909  0.0727  0.5760
10193SOL     OW37183   0.747   6.044   6.759  0.0720 -0.0690 -0.4418
10193SOL    HW137184   0.741   5.999   6.843 -0.0254 -1.6368 -1.2533
10193SOL    HW237185   0.676   6.005   6.707  0.6205  0.3293 -1.4984
10194SOL     OW37186   2.875  11.688  10.870 -0.0404 -0.3458 -0.3471
10194SOL    HW137187   2.806  11.626  10.845 -0.1758  0.1967 -1.3809
10194SOL    HW237188   2.935  11.637  10.925  0.0342 -1.4829 -1.4360
10195SOL     OW37189   2.035   4.082   5.906 -0.4906  0.1086  0.0396
10195SOL    HW137190   2.117   4.067   5.859  0.6621  0.4415  1.8241
10195SOL    HW237191   1.999   4.162   5.867  0.5808  0.5434 -0.0936
10196SOL     OW37192  12.066   1.951   7.203 -0.5080  0.0925 -0.4713
10196SOL    HW137193  12.101   1.992   7.282  2.4959 -1.8336 -0.6322
10196SOL    HW237194  12.102   2.004   7.131  0.5007 -0.7354 -0.5972
10197SOL     OW37195  10.356   0.894   4.100  0.6111  0.2222  0.2439
10197SOL    HW137196  10.362   0.948   4.021 -1.5932  0.6886  0.3470
10197SOL    HW237197  10.263   0.878   4.111  1.0301 -1.5432  1.6403
10198SOL     OW37198  11.077   9.949   8.339 -0.3671  0.3504  0.3325
10198SOL    HW137199  11.067  10.037   8.376  1.9783 -0.8241  4.4370
10198SOL    HW237200  11.022   9.893   8.394 -0.4388 -0.9997 -1.0531
10199SOL     OW37201   4.462   3.370  12.121  0.4091  0.2045 -0.3478
10199SOL    HW137202   4.444   3.279  12.099 -1.8455  0.9106 -1.7391
10199SOL    HW237203   4.533   3.395  12.062 -0.0379 -0.2215 -1.0874
10200SOL     OW37204  12.406  10.775   0.285  0.4161  0.6328  0.5825
10200SOL    HW137205  12.473  10.718   0.248  0.1396 -1.3164  2.8580
10200SOL    HW237206  12.455  10.843   0.331  0.7504  1.4895 -0.9598
10201SOL     OW37207   2.918   6.262   1.425 -0.2776  0.7997 -0.1450
10201SOL    HW137208   2.973   6.331   1.462  0.9592  0.1295 -0.6572
10201SOL    HW237209   2.979   6.209   1.373 -0.9797 -1.2464  1.0087
10202SOL     OW37210   4.392   5.984   0.268  0.4233  0.2071  0.1803
10202SOL    HW137211   4.332   5.979   0.342  0.4526 -1.2869  0.1385
10202SOL    HW237212   4.472   6.021   0.304  0.4498 -0.5438  0.9318
10203SOL     OW37213  10.879   8.336  11.809 -0.1071  0.5705 -0.7833
10203SOL    HW137214  10.971   8.340  11.781  1.2426 -1.3799  2.6967
10203SOL    HW237215  10.870   8.408  11.871 -0.6224  0.1410 -0.3525
10204SOL     OW37216  11.268  11.992   4.873 -0.3933 -0.2847  0.4250
10204SOL    HW137217  11.214  12.039   4.937  0.4631  1.1552  0.1329
10204SOL    HW237218  11.254  12.039   4.791  1.2229  0.0856  0.3332
10205SOL     OW37219   2.969   5.770   4.224  0.4012  0.2944 -0.1919
10205SOL    HW137220   2.943   5.701   4.285  0.8215  1.4344  1.3176
10205SOL    HW237221   3.061   5.786   4.244  0.1278  1.7770 -0.0381
10206SOL     OW37222   7.358   2.629  11.562 -0.0658  0.4237 -0.3571
10206SOL    HW137223   7.387   2.641  11.471  1.2354  0.7465  0.0801
10206SOL    HW237224   7.410   2.692  11.612 -0.8349  0.3121  0.6074
10207SOL     OW37225   9.914   6.590   5.091  0.4320  0.0980  0.1046
10207SOL    HW137226   9.898   6.514   5.035 -0.4732 -0.3008  0.8886
10207SOL    HW237227   9.852   6.581   5.163  2.5898 -0.2296  2.0190
10208SOL     OW37228   9.248   9.146   2.879  0.2462  0.3473 -0.3963
10208SOL    HW137229   9.227   9.108   2.964  1.3575 -0.2100 -0.3550
10208SOL    HW237230   9.202   9.091   2.816  0.6810 -0.1881 -0.2476
10209SOL     OW37231   6.745   1.959   8.233 -0.6300  0.4416  0.2430
10209SOL    HW137232   6.715   1.976   8.323  0.0408  0.4157  0.4742
10209SOL    HW237233   6.716   2.036   8.184  0.0557  1.0295  0.7374
10210SOL     OW37234   5.497   4.995   8.691 -0.2020 -0.6177 -0.3671
10210SOL    HW137235   5.499   4.900   8.681  0.1183 -0.5524 -0.9581
10210SOL    HW237236   5.404   5.017   8.689 -0.4908 -1.1786  2.5433
10211SOL     OW37237   2.886  12.447  11.519 -0.0202 -0.2953 -0.0444
10211SOL    HW137238   2.867  12.354  11.515  0.4100 -0.5134  1.8687
10211SOL    HW237239   2.966  12.458  11.467  0.2906 -1.1120  0.2534
10212SOL     OW37240   3.691  11.401  12.496  0.6264 -0.1528  0.4650
10212SOL    HW137241   3.662  11.320  12.540 -0.0961 -1.4288 -2.1691
10212SOL    HW237242   3.778  11.380  12.462  1.6761  1.2160  2.1022
10213SOL     OW37243   0.009   7.743  10.798  0.2756  0.5283  0.3946
10213SOL    HW137244  -0.066   7.799  10.820 -0.4938 -0.8931  1.5145
10213SOL    HW237245  -0.028   7.676  10.739  0.9571  0.5557 -0.0774
10214SOL     OW37246  12.015   5.673   0.821  0.0126  0.0214  0.0992
10214SOL    HW137247  12.013   5.733   0.895  0.0598 -0.4454  0.4863
10214SOL    HW237248  12.106   5.672   0.792 -0.3735  1.8373 -1.3388
10215SOL     OW37249   9.017   0.267   9.780 -0.1648  0.1567  0.4806
10215SOL    HW137250   9.105   0.301   9.764 -0.6222  1.0186 -0.3002
10215SOL    HW237251   9.010   0.190   9.725 -0.8820  1.7427 -1.8266
10216SOL     OW37252   3.106   3.721   2.355 -0.3334 -0.3827  0.4099
10216SOL    HW137253   3.078   3.630   2.356  1.3821 -0.9330  1.2584
10216SOL    HW237254   3.196   3.718   2.324 -0.5980  1.1572 -0.6206
10217SOL     OW37255   7.346   7.364  12.554  0.5466 -0.1881 -0.6803
10217SOL    HW137256   7.339   7.322  12.639 -0.9472  1.4771  0.1053
10217SOL    HW237257   7.258   7.399  12.538  1.2779  1.1849 -1.9879
10218SOL     OW37258   8.720  11.940   9.997  0.0200 -0.0030  0.0849
10218SOL    HW137259   8.809  11.943   9.961 -0.4344 -0.7215 -1.1704
10218SOL    HW237260   8.704  11.846  10.012 -1.1249 -0.0765 -1.3404
10219SOL     OW37261   5.150   5.487   6.562  0.2158 -0.2784 -0.0326
10219SOL    HW137262   5.115   5.398   6.555 -3.0374  0.5423  3.0626
10219SOL    HW237263   5.130   5.528   6.478 -0.4795 -1.7426 -0.6142
10220SOL     OW37264   6.094   5.081   8.987 -0.0035  0.4823  0.6623
10220SOL    HW137265   6.023   5.017   8.995  1.0264 -0.8370 -0.3175
10220SOL    HW237266   6.051   5.160   8.954 -1.0885 -0.1739  0.4413
10221SOL     OW37267   6.060   9.613   1.573  0.0039  0.1617 -0.5756
10221SOL    HW137268   6.153   9.603   1.591 -0.3315 -1.0435  0.6830
10221SOL    HW237269   6.056   9.668   1.495  1.7739 -0.1578 -0.9292
10222SOL     OW37270   0.255  12.121   8.231 -0.7201 -0.3281  0.2627
10222SOL    HW137271   0.282  12.182   8.300  1.6415 -0.5682 -0.3368
10222SOL    HW237272   0.306  12.041   8.250  0.0487 -0.3719 -1.7597
10223SOL     OW37273   5.699   8.131   4.669  0.0564  0.4489  0.4312
10223SOL    HW137274   5.788   8.166   4.667 -0.2756  1.3257  0.3053
10223SOL    HW237275   5.678   8.124   4.762  0.4996 -0.4120  0.4674
10224SOL     OW37276  10.244   2.508   7.978  0.2908 -0.1950 -0.3107
10224SOL    HW137277  10.300   2.500   7.901  0.8853  1.7185 -0.1159
10224SOL    HW237278  10.302   2.489   8.052  0.7082  1.6279 -0.1199
10225SOL     OW37279  11.554   3.456  10.038 -0.5926  0.1095  0.0001
10225SOL    HW137280  11.539   3.398   9.963 -0.2863 -0.5066  0.4021
10225SOL    HW237281  11.467   3.482  10.066 -0.6917  1.0066 -1.0655
10226SOL     OW37282  10.195  11.119   0.423 -0.0573 -0.3170  0.0473
10226SOL    HW137283  10.107  11.147   0.447  0.1033 -0.4179  0.7762
10226SOL    HW237284  10.185  11.028   0.396 -0.4350  0.1370 -1.4750
10227SOL     OW37285   7.123   1.818   6.438  0.4157 -0.3793 -0.7288
10227SOL    HW137286   7.155   1.735   6.473 -0.1915 -1.0940 -1.7898
10227SOL    HW237287   7.162   1.823   6.350 -0.8032 -0.3212 -1.2799
10228SOL     OW37288   7.867  10.259  11.025 -0.3477 -0.4864 -0.2757
10228SOL    HW137289   7.950  10.305  11.023  0.2336 -1.5155 -1.3223
10228SOL    HW237290   7.822  10.292  11.103  0.7898  0.4992 -0.0203
10229SOL     OW37291   3.146   3.211  11.371 -0.3722  0.0980  0.4879
10229SOL    HW137292   3.180   3.244  11.455  1.1393  1.0450 -0.4563
10229SOL    HW237293   3.158   3.284  11.310  0.5095 -1.2558 -1.0319
10230SOL     OW37294   3.693   5.712   9.358  0.6719  0.2582 -1.0460
10230SOL    HW137295   3.715   5.804   9.372  1.2868  0.1110 -1.0166
10230SOL    HW237296   3.669   5.707   9.265  0.2291  0.5260 -0.9479
10231SOL     OW37297   3.518   5.606   0.459  0.0721 -0.5333 -0.1033
10231SOL    HW137298   3.439   5.551   0.456 -0.3674  0.0929 -0.5028
10231SOL    HW237299   3.583   5.557   0.409  0.1928 -1.4374  0.9247
10232SOL     OW37300  10.422   3.226   1.956  0.1292 -0.1360 -0.3536
10232SOL    HW137301  10.494   3.199   1.900  1.3526  2.4902 -0.1762
10232SOL    HW237302  10.464   3.256   2.037 -1.0117  2.2712 -0.5596
10233SOL     OW37303   4.780   3.692   8.832  0.1588  0.7561 -0.3485
10233SOL    HW137304   4.714   3.622   8.839  0.3147  0.7038  1.0110
10233SOL    HW237305   4.735   3.762   8.785 -0.5789  0.3791 -0.2336
10234SOL     OW37306   4.770   0.127   6.087 -0.1503  0.0430  0.0218
10234SOL    HW137307   4.757   0.044   6.042 -0.8036 -0.0236  0.3256
10234SOL    HW237308   4.819   0.104   6.166 -1.5222 -0.2630  0.8048
10235SOL     OW37309   1.658   0.431  12.343 -0.1720  0.4766 -0.2645
10235SOL    HW137310   1.694   0.435  12.254 -3.2461 -0.8725 -1.7395
10235SOL    HW237311   1.566   0.457  12.332  0.0949  3.6174  3.1689
10236SOL     OW37312  11.176  11.601   6.516  0.4521  0.5075  0.1053
10236SOL    HW137313  11.162  11.625   6.608  0.5512 -1.4561  0.6575
10236SOL    HW237314  11.269  11.616   6.501  0.6785 -0.2505  0.6793
10237SOL     OW37315   5.444  11.394   5.191  0.7818 -0.0292 -0.2062
10237SOL    HW137316   5.405  11.312   5.221  0.1918  0.2111 -0.2975
10237SOL    HW237317   5.536  11.374   5.178  1.0043 -0.2370  1.4264
10238SOL     OW37318   9.882   5.262  11.765 -0.1885 -0.1385 -0.1004
10238SOL    HW137319   9.831   5.212  11.829 -0.5253 -1.5614 -1.4165
10238SOL    HW237320   9.949   5.200  11.735  1.2750  1.1655  0.3569
10239SOL     OW37321   7.904  11.530   8.326 -0.5231  0.0716  0.3820
10239SOL    HW137322   7.969  11.469   8.361 -0.8493 -0.4151  0.1661
10239SOL    HW237323   7.890  11.501   8.236 -0.1433  0.9309  0.0398
10240SOL     OW37324   1.436   5.407   3.062 -0.0318 -0.0171  0.0846
10240SOL    HW137325   1.476   5.430   2.978 -0.2356 -1.4975 -0.4449
10240SOL    HW237326   1.400   5.490   3.094  2.4516  1.1451  0.0758
10241SOL     OW37327  12.742   3.905   3.903  0.4921 -0.3600 -0.0570
10241SOL    HW137328  12.686   3.944   3.837  1.2959  0.9235 -0.0001
10241SOL    HW237329  12.792   3.978   3.939  0.5184 -1.1241  1.5363
10242SOL     OW37330   5.951   6.840   6.476 -0.4230 -0.1455  0.1271
10242SOL    HW137331   5.886   6.813   6.540 -0.2116 -3.0850 -0.7630
10242SOL    HW237332   6.028   6.862   6.527 -0.8235 -0.6518  0.9624
10243SOL     OW37333   4.732   6.833  10.162 -0.2881 -0.3090 -0.2561
10243SOL    HW137334   4.773   6.874  10.238 -2.6188  0.7314  0.5440
10243SOL    HW237335   4.752   6.891  10.089  1.7028 -1.1524 -0.4514
10244SOL     OW37336  10.681   1.497   4.587  0.0348  0.4169  0.0000
10244SOL    HW137337  10.621   1.541   4.527 -0.1128 -0.1601 -0.2786
10244SOL    HW237338  10.669   1.404   4.569  1.5688  0.3041 -0.6229
10245SOL     OW37339   6.005   9.192   1.737 -0.2711  0.3437 -0.3306
10245SOL    HW137340   5.968   9.112   1.699 -0.2551 -0.5516  1.4745
10245SOL    HW237341   5.934   9.229   1.790  0.3926  0.3469  0.5803
10246SOL     OW37342  12.286   7.170   8.486 -0.1325  0.0849  0.3768
10246SOL    HW137343  12.234   7.137   8.559  1.0515 -1.2813  0.6406
10246SOL    HW237344  12.247   7.131   8.408 -1.3134  1.4386  0.2432
10247SOL     OW37345  10.471  11.181   2.572  0.0404  0.0392  0.6222
10247SOL    HW137346  10.549  11.125   2.567 -0.2379 -0.3896  1.0452
10247SOL    HW237347  10.444  11.191   2.481 -0.0655 -0.7498  0.5585
10248SOL     OW37348   2.307  10.492  10.424  0.3050  0.3431  0.1114
10248SOL    HW137349   2.308  10.399  10.445 -1.1047 -0.2225 -2.0611
10248SOL    HW237350   2.385  10.506  10.371 -0.4917 -0.0625 -1.2050
10249SOL     OW37351  12.339   8.362  11.252 -0.2057  0.0060  0.2518
10249SOL    HW137352  12.277   8.289  11.252 -0.1503 -0.0441 -0.3309
10249SOL    HW237353  12.406   8.337  11.188  0.6029 -0.0935  1.1087
10250SOL     OW37354   6.292  12.668   1.642 -0.5737 -0.1805 -0.1084
10250SOL    HW137355   6.369  12.657   1.586 -1.3104  0.1522 -1.2257
10250SOL    HW237356   6.274  12.580   1.675 -0.8010 -0.6170 -1.3331
10251SOL     OW37357  12.316   6.962   3.295  0.7482 -0.8777  0.0922
10251SOL    HW137358  12.262   6.979   3.218  0.2745 -0.1690  0.5691
10251SOL    HW237359  12.391   6.913   3.262 -0.5043 -2.4628 -0.4879
10252SOL     OW37360   2.910   9.135  10.134 -0.2430 -0.1228 -0.1342
10252SOL    HW137361   2.869   9.049  10.143 -0.6955 -0.0118 -0.9822
10252SOL    HW237362   2.885   9.164  10.046 -1.1130  1.3994  0.5713
10253SOL     OW37363  11.452  10.772   7.483  0.7735  0.1439 -0.2076
10253SOL    HW137364  11.450  10.704   7.550  1.2653 -1.0647 -1.3640
10253SOL    HW237365  11.474  10.852   7.530  0.9526 -0.6412  1.0824
10254SOL     OW37366  10.265  11.154   1.482  0.2416  0.0231 -0.1388
10254SOL    HW137367  10.232  11.244   1.482 -0.6041 -0.2631 -1.3892
10254SOL    HW237368  10.231  11.116   1.401  1.3612 -1.1460 -0.0916
10255SOL     OW37369   8.197   2.149  12.164 -0.1526 -0.2397 -0.4848
10255SOL    HW137370   8.200   2.134  12.259 -0.0623 -0.3620 -0.5070
10255SOL    HW237371   8.216   2.064  12.126  1.3701  0.1379 -0.6099
10256SOL     OW37372   3.254   4.341   7.449  0.1832  0.0107 -0.4020
10256SOL    HW137373   3.319   4.305   7.509  1.3976 -0.3491 -1.8818
10256SOL    HW237374   3.292   4.330   7.362 -1.9584 -0.4461 -1.3586
10257SOL     OW37375  11.474   2.211   2.257  0.6684 -0.4660 -0.0821
10257SOL    HW137376  11.498   2.300   2.280  1.8728 -0.3088 -1.7192
10257SOL    HW237377  11.392   2.195   2.303 -1.7499  2.8983 -2.6889
10258SOL     OW37378   6.019   6.680   5.708 -0.0814  0.4740  0.0677
10258SOL    HW137379   6.016   6.634   5.793 -0.6445  1.4845  0.6131
10258SOL    HW237380   5.929   6.676   5.676  0.0539  0.4287 -0.3109
10259SOL     OW37381  12.564  10.458   6.301  0.0085  0.9450  0.3770
10259SOL    HW137382  12.546  10.519   6.373  1.9455  1.1456  0.7620
10259SOL    HW237383  12.560  10.512   6.222 -0.8488  1.0020  0.4544
10260SOL     OW37384   7.693   2.836   2.447 -0.0337  0.3459 -0.1093
10260SOL    HW137385   7.724   2.777   2.378 -0.2071  0.7592 -0.5479
10260SOL    HW237386   7.666   2.916   2.400 -0.8315  0.3650  0.3596
10261SOL     OW37387   4.641   0.015   3.248 -0.8595  0.8599 -0.1961
10261SOL    HW137388   4.583  -0.035   3.304 -0.8937  1.6744  0.5044
10261SOL    HW237389   4.583   0.061   3.187 -0.9636  1.5828  0.4293
10262SOL     OW37390   2.196  11.149   5.663  0.3617 -0.3123 -0.1370
10262SOL    HW137391   2.225  11.240   5.652 -0.8428  0.1604  0.3963
10262SOL    HW237392   2.163  11.124   5.577  1.2677 -0.4625 -0.4459
10263SOL     OW37393   5.156   5.103   7.736  0.1294  0.2347 -0.0443
10263SOL    HW137394   5.115   5.016   7.731  1.3779 -0.2947 -1.7301
10263SOL    HW237395   5.233   5.090   7.790  1.0194 -0.0418 -1.3310
10264SOL     OW37396   9.254   9.859   3.320 -0.6860 -0.5565 -0.4005
10264SOL    HW137397   9.183   9.910   3.279 -0.6400 -0.6319 -0.5750
10264SOL    HW237398   9.287   9.916   3.390 -0.6584 -0.3588 -0.5714
10265SOL     OW37399   3.502   6.573   6.451  0.2896 -0.2682  0.0148
10265SOL    HW137400   3.438   6.634   6.414  0.1630 -0.9884 -0.9924
10265SOL    HW237401   3.570   6.565   6.384  1.1155 -0.0118  0.8056
10266SOL     OW37402   2.200   7.252   0.096  0.1159 -0.5274  1.0304
10266SOL    HW137403   2.235   7.281   0.181  0.4099  0.7814  0.4924
10266SOL    HW237404   2.262   7.185   0.067 -0.1268 -1.1788  1.9451
10267SOL     OW37405   0.214   3.201   9.229  0.1098 -0.5320 -0.4196
10267SOL    HW137406   0.275   3.179   9.300  0.1522  1.3260  0.1613
10267SOL    HW237407   0.189   3.292   9.246  0.3704  0.0774 -2.9803
10268SOL     OW37408   7.503  10.790   2.214  0.1746  0.1303 -0.4122
10268SOL    HW137409   7.467  10.708   2.249 -1.6381  0.2382 -1.8757
10268SOL    HW237410   7.591  10.767   2.185  0.4346 -0.7970  1.0043
10269SOL     OW37411   6.723   4.206   3.641 -0.1690  0.0060 -0.3787
10269SOL    HW137412   6.649   4.262   3.665 -1.7648 -2.4080  0.6857
10269SOL    HW237413   6.709   4.186   3.549  0.8002  1.8023 -0.9707
10270SOL     OW37414   5.226  10.438   8.288 -0.3058 -0.7141 -0.5285
10270SOL    HW137415   5.263  10.522   8.315  0.1267 -0.8860 -0.5818
10270SOL    HW237416   5.140  10.460   8.251 -0.2530 -0.3136 -0.4157
10271SOL     OW37417  11.385   7.687   8.202  0.0239  0.1415 -0.1691
10271SOL    HW137418  11.313   7.637   8.241  0.0021  0.3851  0.1100
10271SOL    HW237419  11.458   7.625   8.198 -0.2343 -0.1414 -0.5650
10272SOL     OW37420   6.253   4.829   7.903  0.0467 -0.3707  0.1233
10272SOL    HW137421   6.308   4.836   7.981  0.8772 -0.7713 -0.4028
10272SOL    HW237422   6.171   4.872   7.927  0.7790  0.7115  0.7628
10273SOL     OW37423   5.431   1.721   6.246 -0.0083 -0.3809  0.4083
10273SOL    HW137424   5.470   1.750   6.328  0.2730  0.5234 -0.0282
10273SOL    HW237425   5.466   1.781   6.180 -0.3779 -0.9686 -0.3437
10274SOL     OW37426   7.120   2.603   9.828  0.2972  0.0410  0.0339
10274SOL    HW137427   7.132   2.698   9.828  0.6622  0.0067  0.6983
10274SOL    HW237428   7.207   2.568   9.807 -0.0718 -0.1431 -1.2958
10275SOL     OW37429   4.944   5.515   9.814  0.2865 -0.2841 -0.2137
10275SOL    HW137430   4.853   5.497   9.787 -0.0751  2.0115 -0.7582
10275SOL    HW237431   4.997   5.481   9.742 -0.0643 -2.0706  0.3191
10276SOL     OW37432   3.188  11.409   7.760 -0.7794 -0.1363 -0.3222
10276SOL    HW137433   3.180  11.429   7.667  0.0270 -0.3165 -0.4404
10276SOL    HW237434   3.172  11.492   7.805  1.8868  0.7280 -0.7689
10277SOL     OW37435  10.701  10.285   5.888  0.4506 -0.0556 -0.5374
10277SOL    HW137436  10.678  10.319   5.975 -2.8189 -0.0856 -1.2423
10277SOL    HW237437  10.717  10.191   5.902  0.3368  0.0159  0.0913
10278SOL     OW37438   2.342   8.097   7.227 -0.1381  0.4006 -0.6075
10278SOL    HW137439   2.428   8.070   7.195 -0.6795  1.2745 -3.0910
10278SOL    HW237440   2.322   8.176   7.177 -1.5993  1.3248  1.2955
10279SOL     OW37441   8.170  12.100   4.045 -0.2397  0.6518 -0.1232
10279SOL    HW137442   8.252  12.150   4.042 -0.6620  1.5001  1.3548
10279SOL    HW237443   8.102  12.166   4.032 -0.7230  0.0409 -0.7556
10280SOL     OW37444  10.644  10.257   6.773  0.4481 -0.3013 -0.2849
10280SOL    HW137445  10.731  10.252   6.813  0.7103 -1.4693 -0.9404
10280SOL    HW237446  10.634  10.173   6.727 -1.3390 -0.5001  0.3832
10281SOL     OW37447   8.623   0.266   0.246  0.2311 -0.2658 -0.6104
10281SOL    HW137448   8.710   0.243   0.278 -0.1252 -0.2285  0.4271
10281SOL    HW237449   8.638   0.337   0.183  0.8273  0.9457  0.8423
10282SOL     OW37450   0.745   9.460  12.340 -0.5087  0.2528  0.6323
10282SOL    HW137451   0.700   9.478  12.258 -0.8851 -0.7613  0.6053
10282SOL    HW237452   0.682   9.486  12.408 -1.0443 -0.8991  0.5939
10283SOL     OW37453   3.791   8.045   5.272 -0.0822  0.3389  0.0420
10283SOL    HW137454   3.880   8.079   5.279  1.5244 -2.7833 -2.6981
10283SOL    HW237455   3.784   7.981   5.343  0.5043 -0.6186 -0.7519
10284SOL     OW37456  10.719   2.611  11.709 -0.7109 -0.2281 -0.4547
10284SOL    HW137457  10.782   2.596  11.779 -0.9979  1.7711  0.3061
10284SOL    HW237458  10.715   2.528  11.661 -0.4585 -1.6418  1.8363
10285SOL     OW37459   0.017  10.765   6.552  0.3959  0.4061 -0.5718
10285SOL    HW137460  -0.011  10.799   6.637  1.1071 -1.3171  0.4203
10285SOL    HW237461   0.109  10.740   6.565  0.5213  0.1165 -1.8487
10286SOL     OW37462  11.207   5.345   3.116  0.3593  0.2126 -0.1050
10286SOL    HW137463  11.268   5.376   3.183  0.5546  1.3319 -0.7788
10286SOL    HW237464  11.124   5.334   3.162  0.3104  1.6590  0.1952
10287SOL     OW37465   0.165   1.716   8.663 -0.0040  0.4816  0.0699
10287SOL    HW137466   0.180   1.625   8.688 -1.2657 -0.8785 -3.5154
10287SOL    HW237467   0.246   1.743   8.621  0.2091  0.8841  0.7292
10288SOL     OW37468   0.830   4.885   5.812 -0.3185 -0.5934 -0.7169
10288SOL    HW137469   0.903   4.941   5.835 -0.6662 -0.6720  0.6828
10288SOL    HW237470   0.795   4.922   5.731 -1.1466  1.8592  0.6552
10289SOL     OW37471   7.899  12.156  10.650 -0.1446  0.7121 -0.2579
10289SOL    HW137472   7.903  12.242  10.692 -0.5619  0.9396 -0.6796
10289SOL    HW237473   7.872  12.096  10.720  0.6264  0.8305  0.1608
10290SOL     OW37474   9.051   7.700   9.155  0.1199 -0.3182 -0.1718
10290SOL    HW137475   9.043   7.608   9.178  2.1072 -0.4957 -0.0604
10290SOL    HW237476   9.024   7.747   9.235  0.1031 -0.8160  0.1173
10291SOL     OW37477   5.977  10.873   3.513  0.0808  0.2062  0.4742
10291SOL    HW137478   5.882  10.860   3.519  0.1213 -0.0188  0.6786
10291SOL    HW237479   6.006  10.876   3.605  0.4638 -1.2265  0.4254
10292SOL     OW37480   6.753   9.069   2.872  0.0626  0.3268  0.6374
10292SOL    HW137481   6.763   9.054   2.778 -2.1465  0.0289  0.3880
10292SOL    HW237482   6.674   9.123   2.879 -0.3548 -0.4378  2.3502
10293SOL     OW37483   3.879   9.063   3.373  0.0563 -0.4057  0.1781
10293SOL    HW137484   3.841   9.046   3.459 -1.4604 -0.8104 -0.5364
10293SOL    HW237485   3.822   9.015   3.312  0.0429  1.2914 -1.2089
10294SOL     OW37486   5.023   4.394   0.371  0.4981  0.2834  0.2248
10294SOL    HW137487   5.027   4.487   0.346 -0.7171 -0.0931 -1.5976
10294SOL    HW237488   5.112   4.373   0.398  0.7807  2.0087  0.7880
10295SOL     OW37489   9.542   6.093   0.288 -0.4412 -0.6219  0.7304
10295SOL    HW137490   9.502   6.150   0.354  1.3713 -1.7618  2.9556
10295SOL    HW237491   9.498   6.009   0.298 -2.3016 -0.0404 -1.7480
10296SOL     OW37492   1.144   6.279   7.739  0.2562  0.3941 -1.5595
10296SOL    HW137493   1.053   6.269   7.768 -0.3475 -0.8737 -3.7119
10296SOL    HW237494   1.178   6.350   7.793 -1.3436 -0.4683  0.7899
10297SOL     OW37495   4.505  10.750   7.835  0.3726  0.1653  0.3283
10297SOL    HW137496   4.586  10.798   7.852 -0.2755  1.4372  0.0021
10297SOL    HW237497   4.498  10.686   7.906  0.8928  1.0768  1.2162
10298SOL     OW37498   1.645   3.700   1.932  0.1060  0.2707 -0.1519
10298SOL    HW137499   1.636   3.793   1.952  2.0094  0.4630  0.0294
10298SOL    HW237500   1.643   3.657   2.018 -1.9039 -0.0100 -0.3026
10299SOL     OW37501   0.427   9.399   2.384 -0.0028 -0.2671 -0.1243
10299SOL    HW137502   0.470   9.445   2.456 -2.4145  2.2322 -0.1444
10299SOL    HW237503   0.403   9.314   2.422  2.7246 -0.8413  0.5537
10300SOL     OW37504   2.707  11.314   7.802  0.1580  0.2016 -0.9531
10300SOL    HW137505   2.674  11.278   7.884  1.8865 -0.1262 -0.3511
10300SOL    HW237506   2.722  11.407   7.822  1.5450 -0.0865 -0.5362
10301SOL     OW37507   3.511   2.217   3.025 -0.0423 -0.5008  0.0857
10301SOL    HW137508   3.582   2.257   3.075  0.7076 -2.3701  0.5965
10301SOL    HW237509   3.514   2.124   3.049 -2.7269 -0.6335  0.1963
10302SOL     OW37510   9.661   9.620   9.004 -0.0036 -0.2815  0.6932
10302SOL    HW137511   9.676   9.537   9.049  0.5922 -1.0709 -0.9031
10302SOL    HW237512   9.583   9.605   8.950  1.3518 -0.5745 -1.2883
10303SOL     OW37513   4.587   4.916  11.959  0.1772 -0.1014  0.0256
10303SOL    HW137514   4.535   4.872  11.891  1.0301 -1.9530  0.5140
10303SOL    HW237515   4.541   4.898  12.040  2.3659 -3.3697  0.7348
10304SOL     OW37516   3.443   6.691  11.304  0.5700  0.5027 -0.4073
10304SOL    HW137517   3.391   6.673  11.382  1.8651  1.0509  0.6323
10304SOL    HW237518   3.437   6.785  11.292  1.4937  0.6178 -0.1083
10305SOL     OW37519   1.782   2.834   2.040 -0.1133 -0.0324 -0.5572
10305SOL    HW137520   1.825   2.887   2.107 -0.2985  0.0502 -0.5030
10305SOL    HW237521   1.852   2.780   2.003 -0.3331 -1.5333  1.0665
10306SOL     OW37522   8.536   5.264  10.308 -0.1090 -0.3444  0.3933
10306SOL    HW137523   8.621   5.225  10.330 -0.0056 -0.3322  0.0240
10306SOL    HW237524   8.484   5.254  10.388  0.5047  0.4074  0.8945
10307SOL     OW37525   0.019   2.670   9.697  0.2265 -0.8393 -0.0075
10307SOL    HW137526  -0.045   2.695   9.763  0.1248 -2.8541  0.6978
10307SOL    HW237527  -0.020   2.596   9.651  1.5686 -1.4098 -0.2850
10308SOL     OW37528  11.443   5.783  10.877  0.3538  0.1846  0.2319
10308SOL    HW137529  11.369   5.737  10.837 -1.8683  1.2804  2.7565
10308SOL    HW237530  11.487   5.826  10.804 -1.7590 -0.1929 -1.3592
10309SOL     OW37531   1.669   0.461   2.428 -0.1312 -0.1726  0.3161
10309SOL    HW137532   1.730   0.531   2.404 -0.4735  0.2478  0.6680
10309SOL    HW237533   1.657   0.471   2.522 -0.8638 -0.1527  0.2271
10310SOL     OW37534   5.922   7.483   6.180 -0.7481  0.1664 -0.0534
10310SOL    HW137535   5.869   7.425   6.126 -1.2217  0.8561 -0.3426
10310SOL    HW237536   6.006   7.487   6.134 -0.8063 -0.0646 -0.1824
10311SOL     OW37537   4.647  10.988   1.441  0.2086 -0.9400 -0.0698
10311SOL    HW137538   4.663  11.036   1.522 -0.2054  1.4724 -1.2930
10311SOL    HW237539   4.686  10.902   1.454  1.9725  0.0828  1.9158
10312SOL     OW37540   4.345   2.390   4.861 -1.1344  0.1347  0.2175
10312SOL    HW137541   4.390   2.358   4.938  1.8560  0.8804 -1.0813
10312SOL    HW237542   4.368   2.328   4.792 -0.7230  1.4328 -0.8511
10313SOL     OW37543  10.532  10.795   4.241 -0.2580  0.0272  0.0638
10313SOL    HW137544  10.564  10.885   4.244  0.5676 -0.2414 -0.2316
10313SOL    HW237545  10.444  10.799   4.277 -0.3323  0.9990 -0.1967
10314SOL     OW37546   2.878   4.372   1.852  0.2869 -0.1004  0.6557
10314SOL    HW137547   2.914   4.313   1.786 -0.4517  0.5582 -0.3746
10314SOL    HW237548   2.895   4.459   1.818  0.4470  0.2719  1.6543
10315SOL     OW37549  11.176   4.395   1.306 -0.0219  0.1246  0.4309
10315SOL    HW137550  11.221   4.321   1.347  1.0077  1.6673  2.2545
10315SOL    HW237551  11.092   4.401   1.351 -1.1321 -1.2894 -1.3276
10316SOL     OW37552   2.707   9.494   1.863 -0.5833 -0.1095  0.3026
10316SOL    HW137553   2.662   9.422   1.818  0.0613 -0.1703 -0.2498
10316SOL    HW237554   2.747   9.454   1.940 -0.1630 -0.3577 -0.0452
10317SOL     OW37555   8.680  11.126   7.609 -0.4888 -0.3223 -0.2177
10317SOL    HW137556   8.626  11.205   7.608 -0.0186  0.0035 -1.4070
10317SOL    HW237557   8.721  11.126   7.695 -1.0133  0.3664  0.0420
10318SOL     OW37558   1.297   2.699   9.488 -0.8394  0.3587  0.1618
10318SOL    HW137559   1.386   2.708   9.523 -0.9405 -0.8108  0.7458
10318SOL    HW237560   1.277   2.606   9.496 -0.4282 -0.3034 -4.1047
10319SOL     OW37561   8.515  10.594   6.109 -0.6352  0.0254 -0.1240
10319SOL    HW137562   8.575  10.661   6.076 -0.2618  0.0754  0.6355
10319SOL    HW237563   8.459  10.641   6.170 -0.6383 -0.2715  0.0999
10320SOL     OW37564  11.927   8.657   5.585 -0.0296 -0.4313  0.1697
10320SOL    HW137565  11.998   8.616   5.633  0.6403 -0.1644 -0.5744
10320SOL    HW237566  11.967   8.734   5.543 -1.1507  0.7418  1.1727
10321SOL     OW37567   8.752   5.202   0.251 -0.8776  0.2007 -0.1720
10321SOL    HW137568   8.842   5.229   0.234 -1.0712 -0.5586 -2.7283
10321SOL    HW237569   8.760   5.127   0.310  0.2038 -0.0810 -0.6558
10322SOL     OW37570   6.705   0.814   4.508  0.4846  0.1760 -1.0634
10322SOL    HW137571   6.644   0.886   4.518  0.7200  0.2204  0.1140
10322SOL    HW237572   6.650   0.738   4.490  0.1232  0.3259 -0.5951
10323SOL     OW37573   5.817   9.104  10.189  0.3288  0.2051 -0.6545
10323SOL    HW137574   5.725   9.130  10.185 -0.0602 -1.1110 -0.5308
10323SOL    HW237575   5.824   9.029  10.130  1.1704 -0.1521 -0.1170
10324SOL     OW37576   7.312   6.207   0.979 -0.7860  0.1072 -0.8810
10324SOL    HW137577   7.235   6.219   0.923 -0.1083  0.4372 -1.7504
10324SOL    HW237578   7.309   6.114   1.003 -1.7842  0.2417 -0.4002
10325SOL     OW37579   1.203   5.833   2.417 -0.3832  0.4522  0.2755
10325SOL    HW137580   1.141   5.765   2.388 -0.5385  1.6785 -2.6742
10325SOL    HW237581   1.289   5.791   2.412 -0.6643 -0.2396  0.9944
10326SOL     OW37582   5.927  10.444   8.684 -0.5622  0.0872  0.2617
10326SOL    HW137583   6.011  10.488   8.694 -0.2493 -0.6381  0.9963
10326SOL    HW237584   5.862  10.513   8.697 -0.0810  0.5260  0.3585
10327SOL     OW37585   9.660  11.048   1.374 -0.4545  0.3787 -0.1171
10327SOL    HW137586   9.731  11.109   1.392 -0.2880  0.1760 -0.0764
10327SOL    HW237587   9.688  10.966   1.415  0.1065 -0.2003 -1.5844
10328SOL     OW37588   9.007   6.488   0.922 -0.7877 -0.3679  0.4766
10328SOL    HW137589   8.974   6.401   0.947 -2.3632  0.1003  0.1291
10328SOL    HW237590   9.081   6.503   0.982  0.7523 -2.7006 -0.6752
10329SOL     OW37591   9.763   9.739  12.141 -0.3089  0.4659 -0.3800
10329SOL    HW137592   9.667   9.738  12.150 -0.3420 -0.9271 -0.5979
10329SOL    HW237593   9.794   9.688  12.216  0.2371  0.5243 -0.5665
10330SOL     OW37594  12.313   9.616   4.706  0.2291  0.5759  0.1442
10330SOL    HW137595  12.335   9.693   4.654  2.3832  0.1054  0.2939
10330SOL    HW237596  12.218   9.624   4.721  0.0720  2.2060 -1.3867
10331SOL     OW37597   2.447   1.881   9.811 -0.8128 -0.2867  0.0858
10331SOL    HW137598   2.469   1.837   9.730 -0.2838 -1.6015  0.9130
10331SOL    HW237599   2.351   1.881   9.814 -0.8437  0.2178 -0.7589
10332SOL     OW37600   4.542   3.507   5.610 -0.1788 -0.2266 -0.1274
10332SOL    HW137601   4.579   3.426   5.644  1.3546 -0.3670 -1.9153
10332SOL    HW237602   4.462   3.480   5.566  0.2676 -0.7928 -0.6202
10333SOL     OW37603   7.119  12.677   2.572 -0.2068 -0.2202  0.0755
10333SOL    HW137604   7.120  12.699   2.665  1.3891  0.2363 -0.0300
10333SOL    HW237605   7.045  12.727   2.536 -1.7219 -1.4683  1.3064
10334SOL     OW37606   0.376   3.185   9.453  0.5446  0.2145 -0.1719
10334SOL    HW137607   0.402   3.120   9.518 -0.4086  0.7998  0.8268
10334SOL    HW237608   0.309   3.238   9.497 -0.3346  0.4528 -1.7298
10335SOL     OW37609   9.342   1.674   9.485  0.3421  0.2937  0.1513
10335SOL    HW137610   9.329   1.704   9.575 -1.3811  0.4607 -0.1025
10335SOL    HW237611   9.259   1.631   9.462  0.4909  0.8288 -1.5643
10336SOL     OW37612   2.141   2.117   6.554  0.1470  0.5213  0.2543
10336SOL    HW137613   2.204   2.177   6.513  0.8012  0.3726  0.9973
10336SOL    HW237614   2.143   2.039   6.499 -0.3564  1.0024 -0.4539
10337SOL     OW37615   2.775   4.402  10.874 -0.2083 -0.2965 -0.0420
10337SOL    HW137616   2.760   4.467  10.804  0.6548  1.7251  1.5445
10337SOL    HW237617   2.868   4.411  10.894 -0.0617 -2.0979  0.2245
10338SOL     OW37618   4.494   0.729   3.641 -0.2308  0.5464 -0.0495
10338SOL    HW137619   4.486   0.824   3.636 -0.7415  0.5840  1.1431
10338SOL    HW237620   4.522   0.712   3.731 -0.8825 -0.4658 -0.0199
10339SOL     OW37621   3.004   3.536   2.085  0.5131  0.1859  0.8444
10339SOL    HW137622   2.979   3.628   2.075  0.2853 -0.0191 -0.7261
10339SOL    HW237623   3.080   3.526   2.027 -0.3419 -0.9325 -0.1274
10340SOL     OW37624   0.289  10.926   9.852  0.4609  0.3182 -0.1495
10340SOL    HW137625   0.200  10.920   9.819  0.7572  0.6939 -1.0603
10340SOL    HW237626   0.283  10.899   9.943 -0.2424 -1.7501 -0.7537
10341SOL     OW37627   0.813   8.345  10.015  0.5915  0.2788  0.1735
10341SOL    HW137628   0.827   8.312  10.104 -0.8648  1.8978  1.0738
10341SOL    HW237629   0.721   8.328   9.998  0.5649  1.0741 -0.5390
10342SOL     OW37630  10.975   1.227   9.792  0.0473  0.3473 -0.0306
10342SOL    HW137631  10.910   1.225   9.723  0.9064  0.7850 -0.8737
10342SOL    HW237632  10.928   1.201   9.871 -0.7013 -1.2937 -0.9801
10343SOL     OW37633   8.843   5.730   1.182  0.0179 -0.4964 -0.1492
10343SOL    HW137634   8.886   5.767   1.259 -0.0329 -0.1573 -0.2784
10343SOL    HW237635   8.858   5.636   1.188  1.6257 -0.3076 -0.6910
10344SOL     OW37636   1.642  10.653   0.844 -0.0789 -0.0650  0.4222
10344SOL    HW137637   1.608  10.602   0.771  0.0461 -0.6574  0.7771
10344SOL    HW237638   1.583  10.729   0.850 -1.6042 -1.2663  1.2912
10345SOL     OW37639   9.955   1.809   4.751 -0.1333 -0.1151 -0.3469
10345SOL    HW137640   9.987   1.877   4.811  2.3761  0.0978 -1.7933
10345SOL    HW237641   9.863   1.831   4.738 -0.6504  0.1328  2.9408
10346SOL     OW37642   6.489   1.713   8.631 -0.3276  0.0763 -0.1524
10346SOL    HW137643   6.536   1.786   8.671  2.5069 -0.9441 -1.4031
10346SOL    HW237644   6.478   1.739   8.539  1.0544 -1.1279 -0.7083
10347SOL     OW37645   4.840   1.688   5.939 -0.7205  0.1951  0.0132
10347SOL    HW137646   4.887   1.771   5.952  0.3540 -0.5232  0.8696
10347SOL    HW237647   4.759   1.714   5.895 -1.4354  1.9851  2.2072
10348SOL     OW37648   8.770   6.150   4.395 -0.8212 -0.1155  0.1498
10348SOL    HW137649   8.820   6.147   4.314  0.4407  0.0709  0.8951
10348SOL    HW237650   8.699   6.211   4.378  0.2464  1.0196 -0.3888
10349SOL     OW37651   6.842   4.723   3.300  0.3492 -0.1280  0.2803
10349SOL    HW137652   6.934   4.745   3.286 -0.1778  2.9138  0.9681
10349SOL    HW237653   6.826   4.745   3.392 -1.1771 -0.1858  0.0541
10350SOL     OW37654   2.392   9.139   4.970 -0.3885  0.0373 -0.0053
10350SOL    HW137655   2.304   9.103   4.983 -1.5686  3.1233  1.4646
10350SOL    HW237656   2.441   9.067   4.930 -3.0090 -2.4735  0.9094
10351SOL     OW37657   8.908   9.265  11.548  0.2671  0.4131 -0.2380
10351SOL    HW137658   8.896   9.211  11.470  2.8427  0.2458 -0.6100
10351SOL    HW237659   8.844   9.336  11.539 -1.1300 -0.9135 -1.2368
10352SOL     OW37660   9.802   1.174   2.791  0.2450  0.3608 -0.1596
10352SOL    HW137661   9.776   1.208   2.706 -1.4741 -0.9884 -0.2343
10352SOL    HW237662   9.754   1.228   2.854 -0.6466 -0.3558 -0.1925
10353SOL     OW37663   0.718  10.903   5.696 -0.3919 -0.3316  0.2311
10353SOL    HW137664   0.709  10.812   5.670 -1.7583 -0.3869  0.7805
10353SOL    HW237665   0.793  10.905   5.755 -0.2509 -1.0682  0.0750
10354SOL     OW37666   5.537   4.384   3.246 -0.0926 -0.3219 -0.4127
10354SOL    HW137667   5.581   4.299   3.251 -1.2827 -0.9261  0.4391
10354SOL    HW237668   5.534   4.405   3.153 -0.2702 -1.4917 -0.6827
10355SOL     OW37669   9.644  11.319   0.589  0.3142  0.2209  0.1354
10355SOL    HW137670   9.629  11.253   0.521  1.7077 -1.0755  1.0152
10355SOL    HW237671   9.595  11.287   0.664 -0.0445  0.8783  0.1826
10356SOL     OW37672   8.099   2.083   1.135  0.1197  0.0799  0.0575
10356SOL    HW137673   8.006   2.088   1.117  0.1275 -1.9048 -0.8001
10356SOL    HW237674   8.129   2.006   1.086  2.0130  0.1014  1.0829
10357SOL     OW37675   7.223  11.652   7.051  0.7047 -0.4842 -0.3896
10357SOL    HW137676   7.166  11.721   7.017  1.5180  0.3246 -0.1585
10357SOL    HW237677   7.200  11.646   7.144  1.2624  0.1311 -0.2030
10358SOL     OW37678   3.626   1.605  11.480  0.1327 -0.1363 -0.0795
10358SOL    HW137679   3.538   1.583  11.511 -0.1802 -0.5630 -1.2486
10358SOL    HW237680   3.669   1.521  11.469 -0.2271 -0.1012 -2.1068
10359SOL     OW37681   5.065   5.011   6.842  0.4812  0.5423  0.3956
10359SOL    HW137682   5.126   4.969   6.902 -0.9397 -0.4702  1.1988
10359SOL    HW237683   4.997   5.047   6.898 -0.4700  0.2620 -0.5508
10360SOL     OW37684   2.285   1.322   4.535  0.6570 -0.6339 -0.1826
10360SOL    HW137685   2.217   1.341   4.599  1.0064 -2.7538  0.8887
10360SOL    HW237686   2.366   1.322   4.585  1.1053 -0.9125 -0.8934
10361SOL     OW37687   4.130   3.929   5.910  0.0754 -0.3160 -0.4549
10361SOL    HW137688   4.214   3.894   5.941 -0.9354 -1.7973  0.7773
10361SOL    HW237689   4.148   4.022   5.895  2.3137 -0.8676 -1.7604
10362SOL     OW37690   0.110  11.694   5.534 -0.1972  0.8158 -0.6393
10362SOL    HW137691   0.196  11.665   5.566 -0.0171  2.1361  0.1798
10362SOL    HW237692   0.128  11.735   5.450 -0.1571  0.3163 -0.8745
10363SOL     OW37693   0.909   7.331  12.612  0.4659  0.2348  0.2078
10363SOL    HW137694   0.827   7.378  12.598  0.7417  0.7713  0.3578
10363SOL    HW237695   0.884   7.253  12.662 -0.1373 -0.2987 -0.8886
10364SOL     OW37696   5.090  11.972   5.698 -0.1113  1.1129  0.0032
10364SOL    HW137697   5.160  12.033   5.675  0.7335 -0.2464 -1.1226
10364SOL    HW237698   5.077  11.919   5.620  0.9288 -1.8363  1.6905
10365SOL     OW37699   0.356   7.399   5.237 -0.4121 -0.4522 -0.0562
10365SOL    HW137700   0.299   7.323   5.241 -0.4574 -0.4134  0.0481
10365SOL    HW237701   0.442   7.363   5.213  0.0359 -0.8095  1.8453
10366SOL     OW37702  11.298  11.250   3.674 -0.6389 -0.1478 -0.2635
10366SOL    HW137703  11.225  11.280   3.618 -0.6928  1.7704  0.7449
10366SOL    HW237704  11.256  11.229   3.757 -0.3188 -1.2681 -0.3776
10367SOL     OW37705  10.803   0.985  11.077 -0.4409 -0.3851 -0.1235
10367SOL    HW137706  10.840   0.903  11.045  0.8168 -0.5337  1.5515
10367SOL    HW237707  10.734   0.958  11.138 -0.9310 -0.1663 -0.5764
10368SOL     OW37708   1.895  11.886   2.531  0.8350 -0.4877  0.2140
10368SOL    HW137709   1.974  11.930   2.501  0.3667  0.5417  0.4316
10368SOL    HW237710   1.884  11.812   2.471  2.7842 -1.5799  1.1175
10369SOL     OW37711   7.020   5.508   3.723  0.0970  0.3656  0.4923
10369SOL    HW137712   7.007   5.602   3.731 -2.4435  0.2147 -0.7071
10369SOL    HW237713   7.058   5.496   3.636  0.0059  0.2702  0.4647
10370SOL     OW37714   3.674   7.536   7.276  0.1014  0.1441  0.2421
10370SOL    HW137715   3.665   7.457   7.330  1.1513 -0.3226 -0.2506
10370SOL    HW237716   3.694   7.504   7.188 -1.1542  0.9138 -0.3566
10371SOL     OW37717   9.252   2.961   1.433 -0.3545  0.2715 -0.3855
10371SOL    HW137718   9.202   2.971   1.352 -2.1456 -2.6888  0.2103
10371SOL    HW237719   9.335   2.923   1.405 -0.2239  0.9349 -0.9539
10372SOL     OW37720  11.013   1.713   0.972  0.2591 -0.5381  0.1509
10372SOL    HW137721  11.046   1.803   0.963 -0.5732 -0.1516  0.8353
10372SOL    HW237722  11.056   1.665   0.901  0.1046  0.5782 -0.7260
10373SOL     OW37723   4.922   1.516   3.357  0.0766 -0.3038  0.2253
10373SOL    HW137724   5.003   1.525   3.307 -0.5513 -1.6219 -1.1111
10373SOL    HW237725   4.931   1.431   3.401 -1.5298 -1.6368 -1.8670
10374SOL     OW37726   5.227   5.507   4.968  0.4195  0.0929 -0.3258
10374SOL    HW137727   5.201   5.508   4.876  0.0667 -2.0652 -0.3024
10374SOL    HW237728   5.148   5.535   5.015 -0.3745 -1.6862 -0.5378
10375SOL     OW37729   0.751   3.936  10.122  0.1790  0.3583  0.0099
10375SOL    HW137730   0.815   3.865  10.121 -1.7245 -1.4823 -1.5183
10375SOL    HW237731   0.720   3.940  10.212  0.8269 -0.2839  0.2683
10376SOL     OW37732   2.353   0.464   0.810 -0.0927 -0.0696  0.3346
10376SOL    HW137733   2.271   0.511   0.796  0.7546  1.2463 -0.4833
10376SOL    HW237734   2.391   0.457   0.722 -0.6574 -3.2854  0.2355
10377SOL     OW37735  12.566  12.445   9.080 -0.2927  0.6652  0.5212
10377SOL    HW137736  12.544  12.410   8.994 -0.1838  1.9135 -0.0308
10377SOL    HW237737  12.494  12.416   9.137 -0.5658  0.1673 -0.0732
10378SOL     OW37738   8.642   0.025  11.624  1.0660 -0.2831 -0.0088
10378SOL    HW137739   8.594   0.102  11.594 -1.3721 -2.1026 -1.1261
10378SOL    HW237740   8.602   0.002  11.708  0.6147 -1.2451 -0.4682
10379SOL     OW37741   5.523   3.310   2.422 -0.4915  0.1366  0.2937
10379SOL    HW137742   5.603   3.265   2.394  1.5542  1.9939  2.6103
10379SOL    HW237743   5.476   3.246   2.475 -0.8306 -1.1218 -1.4555
10380SOL     OW37744   0.125   0.630  12.195 -0.0678 -0.3172  0.0450
10380SOL    HW137745   0.189   0.701  12.185 -1.0535  0.5860 -0.0226
10380SOL    HW237746   0.054   0.670  12.245 -0.2159 -1.5443  0.8493
10381SOL     OW37747   4.779   8.289   1.058 -0.3049  0.4167  0.6075
10381SOL    HW137748   4.783   8.378   1.023  0.1198  0.5517  0.9897
10381SOL    HW237749   4.764   8.301   1.151 -1.2678  0.0616  0.5083
10382SOL     OW37750   2.318   7.024   4.390  0.5171 -0.0409 -0.0757
10382SOL    HW137751   2.391   7.062   4.440 -1.0333  2.3999  0.5040
10382SOL    HW237752   2.250   7.092   4.391 -1.3876 -1.7961 -1.4907
10383SOL     OW37753  10.931   9.733   7.155 -0.7164  0.1072  0.1876
10383SOL    HW137754  10.904   9.643   7.173  0.5072 -0.1818  0.6587
10383SOL    HW237755  10.854   9.786   7.175 -1.2033 -0.7614  0.6633
10384SOL     OW37756   2.212   1.583   6.832 -0.0724  0.7013  0.2446
10384SOL    HW137757   2.173   1.520   6.893 -0.8754 -1.8752 -2.6848
10384SOL    HW237758   2.295   1.544   6.807 -0.6620  0.6138 -1.7751
10385SOL     OW37759   5.478   6.781   3.918  0.1096  0.4546  0.5074
10385SOL    HW137760   5.522   6.857   3.956  1.2100 -0.0653  0.2851
10385SOL    HW237761   5.534   6.707   3.938 -0.1528 -0.0852 -0.6354
10386SOL     OW37762   2.043   5.444  10.732 -0.1568  0.0767  0.3652
10386SOL    HW137763   1.952   5.423  10.715 -0.8026  1.6267  1.6288
10386SOL    HW237764   2.059   5.525  10.683  0.3349  0.1596  0.6519
10387SOL     OW37765  12.671   5.873   1.098 -0.1770 -0.0079 -0.0465
10387SOL    HW137766  12.588   5.850   1.139 -0.1661 -0.5623 -0.3223
10387SOL    HW237767  12.684   5.805   1.031  0.0471  0.5961 -0.6276
10388SOL     OW37768   3.002   7.238  11.542  0.0695  0.0717 -0.4694
10388SOL    HW137769   3.013   7.143  11.549  1.0273  0.2756  1.4124
10388SOL    HW237770   2.910   7.250  11.516 -0.1163 -1.3600 -0.5209
10389SOL     OW37771   8.850   7.008   5.234  0.3839 -0.7046  0.3646
10389SOL    HW137772   8.937   6.978   5.260  0.5617 -0.6994 -0.2012
10389SOL    HW237773   8.792   6.977   5.304  0.7032 -1.5573  0.2688
10390SOL     OW37774  11.932   7.949   5.478  0.1959  0.1124 -0.2790
10390SOL    HW137775  11.873   7.897   5.424  0.1426  0.2651 -0.3667
10390SOL    HW237776  11.881   8.025   5.503 -0.1605 -0.5077  0.9429
10391SOL     OW37777   0.774  10.533   5.243 -0.2642  0.1455  0.1980
10391SOL    HW137778   0.802  10.624   5.253 -1.6233  0.5655  0.4779
10391SOL    HW237779   0.800  10.491   5.325  1.8666 -0.1767 -0.5873
10392SOL     OW37780   1.912   4.437   8.379 -0.1568 -0.4658  0.4542
10392SOL    HW137781   1.970   4.375   8.335 -0.4999 -0.0515 -0.6138
10392SOL    HW237782   1.891   4.502   8.312 -0.8694  0.0733  1.1790
10393SOL     OW37783   8.347   1.855   6.429  0.1643  0.1772 -0.0247
10393SOL    HW137784   8.348   1.810   6.345 -0.5860 -0.5426  0.3426
10393SOL    HW237785   8.439   1.857   6.456  0.6883  2.0699 -1.6947
10394SOL     OW37786   6.259   6.435  12.029 -0.5505 -0.3926  0.0961
10394SOL    HW137787   6.236   6.480  11.948  0.0096 -0.7859 -0.2904
10394SOL    HW237788   6.352   6.415  12.020 -0.5982 -0.8874  0.6188
10395SOL     OW37789   9.794  12.485   7.461  0.2460  0.5795 -0.0689
10395SOL    HW137790   9.720  12.542   7.439 -0.2276  0.2521  0.6499
10395SOL    HW237791   9.833  12.526   7.538 -0.2652 -0.1970  0.6227
10396SOL     OW37792  10.322  10.262   6.370  0.3988 -0.2405 -0.3727
10396SOL    HW137793  10.344  10.172   6.392  1.9791  0.1850 -0.1303
10396SOL    HW237794  10.382  10.316   6.422 -1.6863  1.0369  0.8556
10397SOL     OW37795   2.843   1.335   3.823  0.6106  0.3065  0.5923
10397SOL    HW137796   2.765   1.281   3.833  1.2254 -0.8389 -0.4323
10397SOL    HW237797   2.913   1.272   3.806  1.2573  1.4437 -1.2455
10398SOL     OW37798   1.476  10.305   2.296  0.9227  0.2839  0.2872
10398SOL    HW137799   1.534  10.357   2.351 -0.0871 -0.7159  2.4368
10398SOL    HW237800   1.535  10.250   2.244  1.9171  0.4875  1.1730
10399SOL     OW37801   1.837   9.405  12.591  0.3273 -0.2659  0.1609
10399SOL    HW137802   1.803   9.484  12.634  0.3127  0.4140 -1.0487
10399SOL    HW237803   1.814   9.334  12.650  1.2767  0.7367  1.8138
10400SOL     OW37804  11.478   0.438  10.393 -0.3001 -0.0675  0.2951
10400SOL    HW137805  11.543   0.435  10.463 -0.3008  1.0185  0.3554
10400SOL    HW237806  11.492   0.522  10.351 -0.2756 -0.7163 -1.0544
10401SOL     OW37807   8.141   2.532   3.473 -0.0053  0.5321 -0.0380
10401SOL    HW137808   8.221   2.543   3.422 -0.2266  0.2677 -0.4473
10401SOL    HW237809   8.169   2.540   3.564  0.4061  0.9252 -0.1967
10402SOL     OW37810   0.043   4.105  12.591 -0.2875 -0.2046 -0.0445
10402SOL    HW137811   0.028   4.010  12.591  1.6841 -0.5695  0.2256
10402SOL    HW237812  -0.019   4.139  12.655 -1.7487 -1.1556 -0.8976
10403SOL     OW37813   7.404  11.011  12.451 -0.1028 -0.3516  0.1826
10403SOL    HW137814   7.433  10.928  12.414  0.1417 -0.2396  0.1167
10403SOL    HW237815   7.438  11.077  12.390  0.5567 -0.1433  0.7615
10404SOL     OW37816   5.199   3.072  12.577 -0.5592 -0.5317  0.2876
10404SOL    HW137817   5.236   3.038  12.496  0.9501  0.0968  0.6567
10404SOL    HW237818   5.153   3.152  12.552  1.0030  0.3789  0.1673
10405SOL     OW37819   2.279  12.325   6.332  0.5223 -0.0235  0.0490
10405SOL    HW137820   2.357  12.346   6.280 -0.0685 -0.3758 -1.0181
10405SOL    HW237821   2.300  12.242   6.374  0.0587 -1.1069 -1.7379
10406SOL     OW37822   0.632   6.395  11.806  0.2832 -0.3320 -0.1849
10406SOL    HW137823   0.675   6.311  11.823 -0.3156 -0.5194  0.4152
10406SOL    HW237824   0.683   6.458  11.858  1.3924 -0.1239 -1.4522
10407SOL     OW37825  12.102   0.004   8.748 -0.1849  0.6226  0.1715
10407SOL    HW137826  12.026  -0.013   8.803  1.1837  0.6871  2.1845
10407SOL    HW237827  12.155   0.066   8.799  1.4162  0.2585 -0.9811
10408SOL     OW37828   0.327  12.016   0.918  0.5609 -0.3803  0.4666
10408SOL    HW137829   0.411  12.032   0.874  0.2860  0.0748  0.0992
10408SOL    HW237830   0.341  11.934   0.966  1.7504  0.5266  1.7474
10409SOL     OW37831   6.488   3.655   3.079 -0.2678  0.2610 -0.3203
10409SOL    HW137832   6.535   3.576   3.052 -0.1874  0.9519 -2.4098
10409SOL    HW237833   6.407   3.654   3.027 -0.9878  0.7964  0.7513
10410SOL     OW37834   1.980  10.205   9.762  0.2172 -0.2894  0.2943
10410SOL    HW137835   2.062  10.250   9.742 -0.2795  0.2849 -0.5093
10410SOL    HW237836   1.990  10.176   9.853 -0.5581  4.0275  2.0311
10411SOL     OW37837  12.527   7.742  12.143  0.3807  0.2079  0.0810
10411SOL    HW137838  12.474   7.709  12.071  1.5856 -1.3116 -0.1688
10411SOL    HW237839  12.482   7.712  12.222  0.2340 -0.0682 -0.1050
10412SOL     OW37840   2.017   3.034  10.500 -0.3553  0.1950 -0.4430
10412SOL    HW137841   1.993   3.009  10.411 -1.5330 -0.7924  0.1220
10412SOL    HW237842   1.966   2.976  10.556  0.8516  0.3491  0.8842
10413SOL     OW37843   1.650   7.833   8.164  0.2666 -0.5053  0.4270
10413SOL    HW137844   1.587   7.773   8.124  0.1020 -0.9810  1.3802
10413SOL    HW237845   1.629   7.831   8.258  1.0949  0.0536  0.6309
10414SOL     OW37846   4.754   7.126   6.984  0.0537 -0.3235  0.4572
10414SOL    HW137847   4.708   7.145   7.066 -0.9479 -0.5184 -0.0364
10414SOL    HW237848   4.718   7.042   6.955  0.1560 -0.1045 -0.3404
10415SOL     OW37849   4.725   1.852   1.839 -0.3290  0.5550  0.3406
10415SOL    HW137850   4.714   1.886   1.928 -0.9667 -1.1548  0.9481
10415SOL    HW237851   4.807   1.803   1.843 -1.8383 -2.1304  0.9188
10416SOL     OW37852   2.163   2.769   8.437 -0.2688  0.2116  0.5316
10416SOL    HW137853   2.084   2.760   8.491  0.5213 -0.5137  1.6056
10416SOL    HW237854   2.234   2.736   8.493  0.8266  1.0229 -0.3473
10417SOL     OW37855  10.084  10.874   5.450 -0.0307  0.2921  0.3178
10417SOL    HW137856  10.067  10.810   5.380  0.1355 -0.5478  1.0190
10417SOL    HW237857  10.174  10.856   5.477 -0.2206  0.3404  1.0080
10418SOL     OW37858   4.528  10.277   7.917 -0.2023 -0.0110  0.4648
10418SOL    HW137859   4.521  10.366   7.953 -0.0295  1.2530 -2.3689
10418SOL    HW237860   4.439  10.243   7.920 -1.2583  2.1072 -2.5352
10419SOL     OW37861  11.445   4.450   7.975 -0.2583  0.6845 -0.6261
10419SOL    HW137862  11.408   4.473   7.890 -1.2503  3.0410  0.3582
10419SOL    HW237863  11.539   4.440   7.959 -0.4615  0.8729 -2.0177
10420SOL     OW37864   2.918  11.628   1.274  0.1118 -0.5056 -0.1522
10420SOL    HW137865   2.963  11.682   1.209 -0.9649  1.4831  0.6370
10420SOL    HW237866   2.848  11.585   1.225  0.8939 -1.1034 -0.7727
10421SOL     OW37867   4.643  11.755   8.662  0.1106  0.0101 -0.4538
10421SOL    HW137868   4.704  11.748   8.735 -0.7805 -1.5619  0.1841
10421SOL    HW237869   4.677  11.694   8.596 -1.3148 -1.7383  0.3537
10422SOL     OW37870  10.217   2.160   6.525  0.5362  0.2113 -0.1331
10422SOL    HW137871  10.143   2.219   6.536  1.6078  1.8376 -1.1971
10422SOL    HW237872  10.286   2.198   6.579  0.7473 -1.0508  0.5229
10423SOL     OW37873   1.327   5.388   7.632  0.2528  0.0491 -0.4698
10423SOL    HW137874   1.282   5.460   7.587  0.3815 -0.8291 -2.1133
10423SOL    HW237875   1.420   5.406   7.617  0.4479  0.9752  1.5035
10424SOL     OW37876  12.308   5.771   5.297 -0.0183 -0.4012  0.3574
10424SOL    HW137877  12.244   5.764   5.368  0.5276  0.0937  0.9123
10424SOL    HW237878  12.309   5.684   5.257 -1.3157 -0.3158  0.0775
10425SOL     OW37879  12.349   4.414   7.747  0.2785  0.2094  0.1575
10425SOL    HW137880  12.372   4.487   7.805 -1.0154  0.0542  0.9104
10425SOL    HW237881  12.256   4.398   7.765 -0.0410 -0.1529 -1.6299
10426SOL     OW37882   2.465   9.520   0.009  0.6047  0.5363  0.3830
10426SOL    HW137883   2.461   9.603  -0.038 -0.9711  0.8830  1.0506
10426SOL    HW237884   2.392   9.469  -0.027  0.9198 -0.1674  0.7165
10427SOL     OW37885   1.185  11.475   9.966 -0.5037 -0.2020  0.9341
10427SOL    HW137886   1.260  11.465  10.024 -1.5037  0.0599  2.3356
10427SOL    HW237887   1.183  11.394   9.915  0.5263 -0.3440  1.0985
10428SOL     OW37888   6.745   5.453   4.346 -0.1007  0.0678  0.2574
10428SOL    HW137889   6.726   5.547   4.342  1.4906  0.5612  2.5017
10428SOL    HW237890   6.802   5.443   4.421  2.3622 -2.2955 -1.7166
10429SOL     OW37891  11.365   8.374   8.844 -0.1262  0.9934  0.2305
10429SOL    HW137892  11.280   8.409   8.820 -0.4032  1.6617  2.0312
10429SOL    HW237893  11.397   8.432   8.914  1.0965 -0.1424  0.6778
10430SOL     OW37894   5.562   5.396   6.998 -0.5876  0.0534  0.6533
10430SOL    HW137895   5.587   5.469   6.942 -0.5291 -0.7838 -0.4512
10430SOL    HW237896   5.475   5.418   7.030  1.2259  2.9099  4.3659
10431SOL     OW37897   2.621   8.765   6.956  0.0964 -0.0559  0.0577
10431SOL    HW137898   2.665   8.849   6.967 -1.0985  0.7314 -0.8499
10431SOL    HW237899   2.611   8.756   6.861 -0.9776 -0.5659  0.1987
10432SOL     OW37900   6.732   1.658   2.280  0.7101 -0.3583  0.1563
10432SOL    HW137901   6.822   1.689   2.285  0.7341 -0.4489  0.2747
10432SOL    HW237902   6.679   1.738   2.289  0.7779 -0.3081  0.1052
10433SOL     OW37903   0.876   9.536   6.746 -0.3471  0.2215 -0.2713
10433SOL    HW137904   0.784   9.525   6.770 -0.1708 -1.3658 -0.2261
10433SOL    HW237905   0.925   9.502   6.822  0.2346 -1.1460 -1.2085
10434SOL     OW37906   4.726   0.165   4.799  0.1824  0.0839  0.1842
10434SOL    HW137907   4.714   0.115   4.880  1.1617 -0.3344  0.0867
10434SOL    HW237908   4.767   0.247   4.826  0.1362  0.1167  0.1558
10435SOL     OW37909   3.596   4.650   8.409  0.2614  0.2997  0.0927
10435SOL    HW137910   3.649   4.599   8.348 -2.1832 -0.8662 -1.2176
10435SOL    HW237911   3.572   4.588   8.478 -1.3279  0.1067 -0.6041
10436SOL     OW37912   7.120   5.660   1.132 -0.3424 -0.5705 -0.1009
10436SOL    HW137913   7.082   5.746   1.146  1.1055  0.2961 -1.1909
10436SOL    HW237914   7.209   5.667   1.167 -0.1300 -1.5372 -0.4174
10437SOL     OW37915   9.284   1.895   7.119 -0.0394 -0.0189 -0.5478
10437SOL    HW137916   9.227   1.972   7.114 -0.6436 -0.3991  0.2592
10437SOL    HW237917   9.344   1.914   7.191  0.5046  0.1478 -1.0433
10438SOL     OW37918   0.937   1.204  11.282 -0.6259 -0.1699 -0.5296
10438SOL    HW137919   0.860   1.255  11.304 -1.8427 -1.5215 -1.4932
10438SOL    HW237920   0.958   1.228  11.192 -0.2468 -0.2067 -0.4542
10439SOL     OW37921   3.056   2.791  10.901 -0.3035  0.1789  0.0626
10439SOL    HW137922   2.987   2.736  10.864 -0.7751  0.0339  1.1228
10439SOL    HW237923   3.128   2.730  10.919 -0.2575  0.1641 -0.1793
10440SOL     OW37924   6.428  11.822   6.177 -0.1625 -0.1446 -0.0010
10440SOL    HW137925   6.433  11.736   6.218  1.3732 -0.4127 -0.6928
10440SOL    HW237926   6.474  11.880   6.237 -1.0474  0.1899  0.3807
10441SOL     OW37927   6.207  10.122  12.644  0.1641 -0.1898  0.3049
10441SOL    HW137928   6.150  10.196  12.621 -0.8751 -0.4438  1.8923
10441SOL    HW237929   6.206  10.066  12.566 -0.2244  0.7322 -0.3808
10442SOL     OW37930  12.203   7.313   0.966 -0.2044 -0.3372 -0.3652
10442SOL    HW137931  12.244   7.390   0.927 -1.0836  0.7239  0.7042
10442SOL    HW237932  12.165   7.266   0.891  0.1079  0.4107 -1.0133
10443SOL     OW37933  10.571   3.978   0.707  0.0290 -0.2256 -0.2770
10443SOL    HW137934  10.622   4.053   0.676  1.5097 -0.8505  0.5584
10443SOL    HW237935  10.571   3.918   0.632  1.2328 -0.5603 -0.0252
10444SOL     OW37936   5.952   3.836   7.796  0.2437 -0.1168 -0.0891
10444SOL    HW137937   5.869   3.878   7.772 -0.7236  0.3403  3.5652
10444SOL    HW237938   5.944   3.747   7.761 -1.2070  0.2947 -0.9203
10445SOL     OW37939   2.043   4.489   3.462  0.4653 -0.0239  0.4014
10445SOL    HW137940   1.955   4.465   3.431  0.7572  0.8767 -1.2594
10445SOL    HW237941   2.045   4.462   3.554 -1.5710  0.0073  0.4902
10446SOL     OW37942   8.859  10.981   2.962 -0.5952  0.2998  0.2162
10446SOL    HW137943   8.884  10.890   2.945  1.7352  1.0841 -0.9953
10446SOL    HW237944   8.942  11.029   2.964 -1.7453  2.3914  0.9482
10447SOL     OW37945   1.119  10.400  12.726 -0.1381  0.3672  0.0047
10447SOL    HW137946   1.148  10.481  12.684 -0.3950  0.6825  0.4368
10447SOL    HW237947   1.090  10.426  12.813  2.1378 -0.5540  1.0975
10448SOL     OW37948   5.563  10.476   4.664  0.3123  0.3247  0.3349
10448SOL    HW137949   5.606  10.532   4.599  0.2745  0.7368  0.6652
10448SOL    HW237950   5.598  10.389   4.646 -0.1622  0.3182 -0.6508
10449SOL     OW37951   0.567   5.761  12.132  0.5675  0.2066 -0.0727
10449SOL    HW137952   0.506   5.687  12.138  0.1705  0.6003  1.1724
10449SOL    HW237953   0.570   5.796  12.221  3.7754 -0.7142  0.2878
10450SOL     OW37954  12.105   2.837   6.676 -0.3162  0.3739  0.0437
10450SOL    HW137955  12.076   2.758   6.630  1.7967 -0.6679  0.3743
10450SOL    HW237956  12.142   2.805   6.758 -0.4225  1.8234  0.6902
10451SOL     OW37957   5.668   6.277  11.548 -0.2137  0.3480  0.0252
10451SOL    HW137958   5.676   6.184  11.526  0.8686 -0.0415  1.8385
10451SOL    HW237959   5.739   6.320  11.501  0.6217 -0.0986  0.8523
10452SOL     OW37960   3.508   9.682   0.056  0.4049 -0.2756  0.3122
10452SOL    HW137961   3.552   9.597   0.057 -1.5492 -1.3979 -1.2736
10452SOL    HW237962   3.537   9.725   0.136  3.1081 -1.5236  0.1225
10453SOL     OW37963   6.758   2.230   3.269  0.0532  0.3716 -0.0864
10453SOL    HW137964   6.769   2.145   3.226 -0.8301  0.8130 -1.2573
10453SOL    HW237965   6.746   2.209   3.362  2.3571 -0.5941  0.0586
10454SOL     OW37966   7.320  10.476   2.674 -0.7835  0.1656 -0.2263
10454SOL    HW137967   7.252  10.538   2.650 -1.0663 -0.5946 -1.4924
10454SOL    HW237968   7.274  10.394   2.691 -0.4935  0.3925  2.0884
10455SOL     OW37969   8.047   5.756   3.347 -0.3713  0.0047  0.5458
10455SOL    HW137970   7.994   5.793   3.277  1.6317 -1.7535 -2.1271
10455SOL    HW237971   7.993   5.686   3.385 -0.6070 -0.6894 -1.0114
10456SOL     OW37972   6.908   1.897  10.853 -0.0583  0.6988 -0.3067
10456SOL    HW137973   6.892   1.963  10.920  1.2564  0.6198  0.1205
10456SOL    HW237974   6.848   1.825  10.876  0.6423  0.5114  1.0431
10457SOL     OW37975   4.295   6.670  12.346  0.1410 -0.6206  0.1954
10457SOL    HW137976   4.351   6.713  12.281 -0.8110 -1.0853 -0.9743
10457SOL    HW237977   4.259   6.594  12.300 -2.6686  0.4973  0.3545
10458SOL     OW37978   7.008   4.667  10.792 -0.0818  0.0862 -0.0236
10458SOL    HW137979   6.971   4.728  10.728 -2.1763 -0.4356  0.6134
10458SOL    HW237980   6.987   4.707  10.877 -1.6458 -1.5170  0.4066
10459SOL     OW37981   0.415   6.049  10.735  0.0855  0.2929 -0.7768
10459SOL    HW137982   0.487   6.009  10.783  0.6052  0.6538 -1.2449
10459SOL    HW237983   0.348   6.067  10.801 -0.5440 -2.1429 -0.6660
10460SOL     OW37984  11.494  12.452   6.735 -0.2500  0.9223  0.2447
10460SOL    HW137985  11.581  12.489   6.750  0.1325 -0.1701  0.8838
10460SOL    HW237986  11.511  12.361   6.710 -1.1727  1.0266 -0.8255
10461SOL     OW37987   5.903   3.481   2.694 -0.1829  0.0701  0.1083
10461SOL    HW137988   5.979   3.539   2.704  0.2991 -0.5175 -0.0714
10461SOL    HW237989   5.941   3.394   2.682 -0.8313 -0.0451 -1.3868
10462SOL     OW37990   7.804   7.905  11.101 -0.3921 -0.6204 -0.5369
10462SOL    HW137991   7.899   7.909  11.110 -0.6435  0.6435  2.7762
10462SOL    HW237992   7.787   7.817  11.067  1.8304 -2.2418  2.1467
10463SOL     OW37993   5.153  10.600   0.863  0.0881 -0.8302  0.2085
10463SOL    HW137994   5.166  10.520   0.812 -1.6160 -1.6116  0.9331
10463SOL    HW237995   5.242  10.631   0.881  0.7727 -2.0939 -0.7822
10464SOL     OW37996   5.692   7.960   7.159 -0.1127  0.2776  0.3480
10464SOL    HW137997   5.645   7.894   7.108  1.5214  0.1219 -1.0566
10464SOL    HW237998   5.640   8.040   7.150 -1.5614 -0.5196  1.1994
10465SOL     OW37999   4.955   6.351   9.446 -0.2947  0.5113  0.2804
10465SOL    HW138000   4.881   6.402   9.414 -1.1277 -0.2739  0.9116
10465SOL    HW238001   5.032   6.394   9.409 -0.9826  2.0778  0.6014
10466SOL     OW38002   0.502   4.420   8.236 -0.0109 -0.3566 -0.1169
10466SOL    HW138003   0.579   4.366   8.220 -0.4148 -1.0233  0.1503
10466SOL    HW238004   0.433   4.358   8.258 -0.3714  0.2915  0.6626
10467SOL     OW38005  10.282   6.167   3.259  0.1837  0.0059  0.1207
10467SOL    HW138006  10.241   6.104   3.200  0.9836 -0.9359  0.5413
10467SOL    HW238007  10.212   6.230   3.278 -0.6602 -0.7752 -0.2712
10468SOL     OW38008   9.360   5.163   7.847  0.1177  0.1452 -0.2602
10468SOL    HW138009   9.310   5.117   7.914  0.2371 -1.1671 -1.0518
10468SOL    HW238010   9.450   5.162   7.879  0.1902 -0.5648 -0.4767
10469SOL     OW38011   7.579   0.421   6.914 -0.1743 -0.0481 -0.5003
10469SOL    HW138012   7.519   0.363   6.867 -0.5421  0.1614 -0.2980
10469SOL    HW238013   7.625   0.470   6.845 -3.1302  2.7741 -0.7463
10470SOL     OW38014   8.418   8.517   7.303 -0.3227  0.3580  0.6336
10470SOL    HW138015   8.363   8.450   7.262 -0.0500  0.6982 -0.3052
10470SOL    HW238016   8.358   8.589   7.323 -0.0734  1.1835 -1.3874
10471SOL     OW38017   0.061  10.215   5.781  0.3576  0.0374 -0.1753
10471SOL    HW138018  -0.012  10.220   5.719 -1.0009  1.1805  1.4519
10471SOL    HW238019   0.110  10.138   5.753 -2.0147 -1.3620 -0.7423
10472SOL     OW38020   6.644   9.923   8.777  0.2570 -0.4073  0.1569
10472SOL    HW138021   6.598   9.843   8.801 -0.2965  0.0585  0.7069
10472SOL    HW238022   6.640   9.927   8.682  0.9600 -1.4150  0.0713
10473SOL     OW38023   7.323   1.798   7.571  0.1651  0.0012  0.3684
10473SOL    HW138024   7.228   1.791   7.584 -0.0918 -2.1971 -1.9034
10473SOL    HW238025   7.344   1.725   7.513  3.3223  0.2768  1.0103
10474SOL     OW38026   9.671   0.875   4.129  0.3419 -0.5888 -0.0235
10474SOL    HW138027   9.643   0.939   4.064 -1.4657 -2.9032 -1.6951
10474SOL    HW238028   9.605   0.880   4.199  1.0035  0.2964  0.5640
10475SOL     OW38029   4.105  11.824  11.960 -0.2884 -0.1162 -0.0625
10475SOL    HW138030   4.192  11.858  11.939 -0.2336 -1.5532 -2.4582
10475SOL    HW238031   4.104  11.735  11.925 -2.7724 -0.0866 -0.2595
10476SOL     OW38032   4.784   9.157   3.039 -0.4617 -0.3944 -0.1342
10476SOL    HW138033   4.722   9.091   3.071 -0.7544  0.1524  0.4399
10476SOL    HW238034   4.753   9.177   2.950 -1.3396  0.1391  0.2740
10477SOL     OW38035  10.740   6.394   8.111  0.7532  0.1545  0.3721
10477SOL    HW138036  10.822   6.430   8.078  1.4976 -1.4066  0.4325
10477SOL    HW238037  10.694   6.470   8.147  2.4632  0.9683  0.9638
10478SOL     OW38038  10.453   0.351   5.579  0.0191 -0.2974 -0.6287
10478SOL    HW138039  10.521   0.381   5.519  0.0341 -0.3554 -0.6415
10478SOL    HW238040  10.383   0.317   5.522  0.6429 -1.6980 -0.6210
10479SOL     OW38041   9.111   0.731  12.380  0.0119 -0.3674  0.0208
10479SOL    HW138042   9.201   0.717  12.352 -0.1568 -0.5044 -0.4544
10479SOL    HW238043   9.117   0.799  12.448  0.7320 -1.9751  1.6355
10480SOL     OW38044  12.340   4.134  10.085 -0.1439  0.0965  0.4841
10480SOL    HW138045  12.403   4.089  10.028  2.1568  0.9312  2.2400
10480SOL    HW238046  12.289   4.063  10.125 -0.4601 -0.5842 -1.0575
10481SOL     OW38047   7.720   8.848   4.375  0.0114 -1.0200 -0.0771
10481SOL    HW138048   7.709   8.914   4.307 -1.9236 -0.3099  0.8348
10481SOL    HW238049   7.653   8.782   4.355 -0.7850 -0.6540  1.2643
10482SOL     OW38050   2.603   3.240  10.338 -0.0879  0.0372  0.2006
10482SOL    HW138051   2.510   3.235  10.360  0.0976 -0.8763  0.8452
10482SOL    HW238052   2.645   3.265  10.420  0.1133  1.8495 -0.4257
10483SOL     OW38053  10.332   8.847  10.478  0.0860 -0.6897  0.3769
10483SOL    HW138054  10.260   8.900  10.442 -0.5907 -0.6850  1.6895
10483SOL    HW238055  10.399   8.849  10.410  0.2342  2.1193  0.4944
10484SOL     OW38056   7.563   8.514   0.339  0.7384 -0.3439 -0.1174
10484SOL    HW138057   7.558   8.580   0.269 -0.1636  0.6134  0.8198
10484SOL    HW238058   7.487   8.457   0.324  1.0236 -0.6499 -0.4102
10485SOL     OW38059   4.908   0.874   6.918 -0.2096 -0.3210 -0.8996
10485SOL    HW138060   4.891   0.908   7.007 -0.8737  0.5593 -1.3420
10485SOL    HW238061   4.954   0.946   6.874 -0.5360 -0.4676 -1.4887
10486SOL     OW38062   0.306  11.563   1.319  0.6774  0.1465 -0.1551
10486SOL    HW138063   0.379  11.570   1.258  0.4672  0.0721 -0.4220
10486SOL    HW238064   0.346  11.552   1.405  1.0183 -2.0742 -0.5239
10487SOL     OW38065   9.025  10.018   6.317 -0.2009 -0.0494  0.2123
10487SOL    HW138066   9.101  10.028   6.259 -0.2624 -0.4586  0.0554
10487SOL    HW238067   9.060   9.975   6.395  0.3985  2.7549  1.5990
10488SOL     OW38068   7.656   1.700   6.872  0.2867 -0.0314 -0.2927
10488SOL    HW138069   7.587   1.707   6.938  0.4466  0.4247 -0.1684
10488SOL    HW238070   7.638   1.770   6.810  1.1124  0.6262  0.1974
10489SOL     OW38071  11.400   1.817   3.445  0.0602  0.1680 -0.3402
10489SOL    HW138072  11.490   1.789   3.427  0.5808  0.1613  1.9089
10489SOL    HW238073  11.398   1.828   3.540 -0.9642  4.7761 -0.6641
10490SOL     OW38074   0.337   0.873  12.273 -0.1630  0.9952 -0.0688
10490SOL    HW138075   0.268   0.862  12.339 -0.2748  0.3410 -0.2806
10490SOL    HW238076   0.369   0.962  12.285 -0.1408  0.8610  0.9045
10491SOL     OW38077   1.271   7.622   3.674 -0.1440  0.2464 -0.3465
10491SOL    HW138078   1.303   7.534   3.656  0.7744  0.0983  1.7580
10491SOL    HW238079   1.325   7.678   3.619  1.8797 -0.2495  1.0229
10492SOL     OW38080  12.418   8.308   4.692 -0.6580 -0.0110  0.2186
10492SOL    HW138081  12.471   8.384   4.666  1.0039 -0.3468  2.3355
10492SOL    HW238082  12.428   8.246   4.621  1.1039  0.3026  0.1454
10493SOL     OW38083   8.511  12.182   8.505  0.2997 -0.2871  0.2798
10493SOL    HW138084   8.603  12.181   8.479  0.4559  2.5113  0.4767
10493SOL    HW238085   8.513  12.209   8.597 -0.7086 -0.7339  0.4403
10494SOL     OW38086   8.513   0.154   6.675 -0.7370 -0.4425 -0.0968
10494SOL    HW138087   8.585   0.174   6.734 -0.4393 -1.6149 -0.0357
10494SOL    HW238088   8.518   0.059   6.661 -2.8274 -0.7237  0.6655
10495SOL     OW38089   4.339   7.114   3.806 -0.1218  0.1613 -0.3985
10495SOL    HW138090   4.331   7.035   3.754 -1.0751  0.3983 -0.6233
10495SOL    HW238091   4.270   7.106   3.872  1.6923 -0.6375  1.5392
10496SOL     OW38092  12.774  10.713   8.395  0.4870  0.2817 -0.5673
10496SOL    HW138093  12.833  10.788   8.381  0.3497  0.4442 -0.2880
10496SOL    HW238094  12.826  10.637   8.371  0.7661  0.4345 -0.4564
10497SOL     OW38095   3.309   2.580  10.482  0.3658 -0.7583 -0.1818
10497SOL    HW138096   3.344   2.666  10.457  0.8444 -0.8142  0.2843
10497SOL    HW238097   3.378   2.540  10.535 -0.4552 -0.8011  0.8999
10498SOL     OW38098   2.442  10.999   9.478 -0.3423  0.3184  0.2458
10498SOL    HW138099   2.531  11.023   9.452  0.2571 -1.6551  0.2579
10498SOL    HW238100   2.387  11.023   9.403  0.5654 -0.4898 -0.6998
10499SOL     OW38101   5.303   5.215  10.350  0.4041  0.2686  0.1181
10499SOL    HW138102   5.296   5.141  10.411  2.2737 -1.2383 -1.3643
10499SOL    HW238103   5.217   5.257  10.354  0.1352 -0.3441  2.9837
10500SOL     OW38104   4.031   8.162   8.450 -0.3883 -0.1253 -0.6025
10500SOL    HW138105   4.030   8.155   8.546  0.0431 -0.4388 -0.6154
10500SOL    HW238106   3.947   8.125   8.423 -0.2804 -0.5559 -0.3682
10501SOL     OW38107  11.608  11.686   7.025 -0.9243  0.5288 -0.7348
10501SOL    HW138108  11.555  11.761   7.053 -0.5476 -0.1631  2.2680
10501SOL    HW238109  11.555  11.610   7.050 -0.2676 -0.1832 -1.4804
10502SOL     OW38110   7.115   4.244   0.185 -0.7849  0.0215  0.4169
10502SOL    HW138111   7.189   4.304   0.188 -2.3283  2.1085 -0.6042
10502SOL    HW238112   7.138   4.175   0.247  0.9935  1.7694  1.8475
10503SOL     OW38113   2.440  11.250  11.378 -0.6246 -0.5429 -0.0964
10503SOL    HW138114   2.347  11.232  11.391 -1.1229  2.1851  0.5540
10503SOL    HW238115   2.481  11.222  11.460 -1.3670  1.1619  0.8969
10504SOL     OW38116   6.636   6.310   3.586  0.0662 -0.3196 -0.3244
10504SOL    HW138117   6.627   6.395   3.631 -2.1697 -0.9582  0.5706
10504SOL    HW238118   6.707   6.266   3.632 -0.6593 -0.0383  1.1343
10505SOL     OW38119   0.831  10.388   7.515 -0.6082 -0.4358  0.1592
10505SOL    HW138120   0.776  10.408   7.439 -0.2677  0.2685  0.0911
10505SOL    HW238121   0.920  10.381   7.478 -0.2622  1.0733  0.6493
10506SOL     OW38122   6.654   1.043   6.239  0.2712  0.2206  0.3113
10506SOL    HW138123   6.588   1.112   6.230  0.0577  0.2330  1.7875
10506SOL    HW238124   6.605   0.967   6.272  1.0252  0.3249  1.7327
10507SOL     OW38125   5.995  12.555   1.285 -0.2275  0.5367  0.1726
10507SOL    HW138126   5.964  12.610   1.358 -0.0373 -0.0400  0.6934
10507SOL    HW238127   5.915  12.531   1.238 -0.5633 -0.6848  1.3254
10508SOL     OW38128   1.140   0.463   7.044  0.0600  0.0626 -0.3331
10508SOL    HW138129   1.062   0.518   7.055 -0.3899 -0.5828 -0.2643
10508SOL    HW238130   1.184   0.469   7.129 -0.1780  0.0376 -0.2042
10509SOL     OW38131  12.016   2.347  11.544 -0.1739 -0.2611  0.1795
10509SOL    HW138132  11.964   2.326  11.621 -0.0857  1.2938  0.6943
10509SOL    HW238133  11.983   2.431  11.514 -0.3509 -0.9418 -1.6338
10510SOL     OW38134   8.916  11.493   9.384  0.2835 -0.2686 -0.5340
10510SOL    HW138135   8.837  11.544   9.369 -0.3110 -1.4527 -1.5059
10510SOL    HW238136   8.955  11.482   9.298  1.4705  0.2049 -0.0854
10511SOL     OW38137  11.296   3.784   9.880 -0.0854  0.3112 -0.0598
10511SOL    HW138138  11.387   3.807   9.864  0.2613 -0.2694  0.9256
10511SOL    HW238139  11.300   3.695   9.917 -0.9514  0.6964  1.0201
10512SOL     OW38140   7.404   4.611   3.506 -0.1822  0.7103  0.2826
10512SOL    HW138141   7.355   4.586   3.585 -0.3381 -2.6417 -0.7311
10512SOL    HW238142   7.493   4.580   3.523  0.2503  1.6562 -0.1713
10513SOL     OW38143  10.200   1.903  10.211 -0.0775  0.0521  0.5367
10513SOL    HW138144  10.278   1.954  10.227 -0.3234  0.8291 -0.6070
10513SOL    HW238145  10.134   1.967  10.185 -0.7494 -0.7151  0.3066
10514SOL     OW38146  11.421   9.301   4.573 -0.5491  0.2548  0.7433
10514SOL    HW138147  11.483   9.228   4.568 -0.6769  0.0738  1.5587
10514SOL    HW238148  11.368   9.293   4.493  0.8594  0.7882 -0.2788
10515SOL     OW38149   7.014   8.910   6.433 -0.3316 -0.0682  0.2348
10515SOL    HW138150   6.944   8.940   6.375  0.2027  2.0392  0.5764
10515SOL    HW238151   6.989   8.944   6.519  0.5168 -0.3115  0.5880
10516SOL     OW38152  11.791   9.666  10.937  0.2426  0.4653  0.0004
10516SOL    HW138153  11.754   9.714  11.011  0.3120 -0.0621  0.3915
10516SOL    HW238154  11.715   9.632  10.890  0.2099 -0.2547  0.5564
10517SOL     OW38155   0.797   8.971   1.782 -0.3652  0.5070 -0.0945
10517SOL    HW138156   0.809   9.035   1.852  0.1142  0.6932 -0.3444
10517SOL    HW238157   0.719   9.001   1.736  0.0300  1.0824 -0.3950
10518SOL     OW38158   5.881   3.247   9.278  0.2499 -0.0022  0.2753
10518SOL    HW138159   5.902   3.336   9.248  0.6823  0.6570  2.4192
10518SOL    HW238160   5.963   3.199   9.268 -0.3187 -0.6398 -2.2165
10519SOL     OW38161   7.774  11.785   5.222  0.5302 -0.0375  0.1334
10519SOL    HW138162   7.764  11.702   5.268  0.0678  0.5633  1.1471
10519SOL    HW238163   7.707  11.842   5.259  1.8605  1.2877  0.6280
10520SOL     OW38164   1.599   6.896   1.724  0.3342 -0.1113  0.6307
10520SOL    HW138165   1.676   6.838   1.727  0.7083  0.4067  2.0391
10520SOL    HW238166   1.547   6.863   1.651  1.5313 -0.9454  0.1138
10521SOL     OW38167  10.366  10.908   1.520 -0.0114  0.3881 -0.2981
10521SOL    HW138168  10.318  10.991   1.526 -1.4390 -0.5172  2.0160
10521SOL    HW238169  10.449  10.924   1.564 -0.1456  0.6807 -0.1514
10522SOL     OW38170   7.183   3.876   0.626 -0.0785  0.3936  0.7530
10522SOL    HW138171   7.096   3.842   0.646 -1.1917  0.6327 -2.8833
10522SOL    HW238172   7.243   3.806   0.653 -1.6759 -1.1034  0.5851
10523SOL     OW38173   5.985   6.691   8.736 -0.1696 -0.0779  0.2233
10523SOL    HW138174   5.928   6.654   8.669  1.1472  0.9801 -1.5670
10523SOL    HW238175   6.002   6.780   8.707  2.5397 -0.3945  0.5126
10524SOL     OW38176   9.832   9.241  10.991  0.4347  0.1298 -0.7537
10524SOL    HW138177   9.920   9.233  10.956  2.2847 -0.6800  3.5099
10524SOL    HW238178   9.813   9.335  10.987  1.0292  0.2158 -2.5031
10525SOL     OW38179   6.101   0.935  11.599  0.0055  0.1532  0.1655
10525SOL    HW138180   6.106   0.928  11.694 -1.5045  0.4961  0.2905
10525SOL    HW238181   6.084   0.846  11.568  0.4549  0.0492  0.2168
10526SOL     OW38182   6.249   8.058   1.675 -0.2180 -0.0288 -0.1040
10526SOL    HW138183   6.277   8.081   1.586  0.9960  1.9395  0.7073
10526SOL    HW238184   6.326   8.019   1.715  0.0822  1.3839  0.7980
10527SOL     OW38185  10.443  11.316  12.484  0.4151 -0.1372  0.0443
10527SOL    HW138186  10.489  11.370  12.548  0.0527 -0.2233  0.3801
10527SOL    HW238187  10.503  11.243  12.467 -0.6532 -1.7358  2.5546
10528SOL     OW38188   4.807   9.632   9.733 -0.3571 -0.4726 -0.0034
10528SOL    HW138189   4.824   9.575   9.808 -0.0244 -1.4182 -0.7834
10528SOL    HW238190   4.834   9.581   9.657 -0.0153  0.7422 -0.7261
10529SOL     OW38191   9.652   5.992   5.326 -0.6586  0.2666  0.5540
10529SOL    HW138192   9.643   5.928   5.256 -0.4721 -1.3454  1.9496
10529SOL    HW238193   9.572   5.983   5.378 -0.5571  1.0595  0.8642
10530SOL     OW38194   8.808   0.806   9.210 -0.1808  0.1067 -0.0563
10530SOL    HW138195   8.897   0.812   9.173  0.5281  0.0752  1.5682
10530SOL    HW238196   8.766   0.738   9.157  0.1446  1.3031 -1.9778
10531SOL     OW38197   2.093   6.930   5.441  0.3918 -0.1558 -0.4580
10531SOL    HW138198   2.036   7.004   5.463 -0.4938 -0.5481 -1.3420
10531SOL    HW238199   2.178   6.953   5.477  0.1609  1.3574 -0.8340
10532SOL     OW38200   9.055   8.935  10.715  0.3559  1.0607 -0.2232
10532SOL    HW138201   9.141   8.956  10.679  0.8260  0.1058  0.2939
10532SOL    HW238202   9.008   8.892  10.643  1.3654 -1.0364  0.2715
10533SOL     OW38203   0.250  12.761  11.993  0.5983 -0.1219  0.2571
10533SOL    HW138204   0.303  12.785  12.069  1.1461  1.2724 -0.5096
10533SOL    HW238205   0.268  12.830  11.929 -0.8195 -0.5619 -0.6760
10534SOL     OW38206   6.196   1.574   4.085  0.1096 -0.0221  0.4302
10534SOL    HW138207   6.238   1.488   4.091  0.7708  0.1945 -0.7394
10534SOL    HW238208   6.255   1.625   4.029 -0.8507  0.8430  0.1783
10535SOL     OW38209   9.237   8.137   6.906  0.5396 -0.2542  0.4744
10535SOL    HW138210   9.177   8.208   6.931  1.3566  0.3766  0.7026
10535SOL    HW238211   9.271   8.105   6.989 -0.4979 -1.5454  0.4326
10536SOL     OW38212   5.571   7.102   2.497  0.0795  0.9698  0.5744
10536SOL    HW138213   5.538   7.133   2.582  0.4437  1.1353  0.6600
10536SOL    HW238214   5.590   7.182   2.448 -0.9116  0.8792  0.0130
10537SOL     OW38215   0.291   2.003   0.445  0.8444  0.2833  0.3931
10537SOL    HW138216   0.249   2.019   0.529  1.0712  0.8065  0.4125
10537SOL    HW238217   0.378   1.970   0.468  0.4431 -0.8739  0.3535
10538SOL     OW38218   0.203   3.012   1.364 -0.6762 -0.3095  0.2011
10538SOL    HW138219   0.202   2.927   1.322 -0.4725 -0.8891  1.3177
10538SOL    HW238220   0.195   3.075   1.293 -2.0153 -1.2883 -0.5447
10539SOL     OW38221   0.544   5.475  10.409 -0.6080  0.1999 -0.5371
10539SOL    HW138222   0.452   5.450  10.417 -0.3057 -0.7375  0.3653
10539SOL    HW238223   0.578   5.419  10.338 -0.5541 -0.0486 -0.3189
10540SOL     OW38224  11.532   5.720   8.865 -0.0514  0.2820 -0.0521
10540SOL    HW138225  11.610   5.737   8.811 -0.6300  2.1873 -0.3651
10540SOL    HW238226  11.565   5.667   8.938  1.5366  0.9335 -0.2362
10541SOL     OW38227   0.896  10.001   5.367  0.2079 -0.2295 -0.1020
10541SOL    HW138228   0.812   9.963   5.340 -0.3665  0.5386  0.5394
10541SOL    HW238229   0.952   9.925   5.382 -0.7259 -0.8219  0.5610
10542SOL     OW38230   7.367  11.834  11.990 -0.3314 -0.1567 -0.1288
10542SOL    HW138231   7.398  11.924  12.000 -0.0272 -0.3767  1.1495
10542SOL    HW238232   7.376  11.815  11.897  0.7763  0.7151 -0.2180
10543SOL     OW38233   8.312   6.950  11.096 -0.6126  0.1022  0.5648
10543SOL    HW138234   8.353   7.000  11.167 -0.8728  0.8720  0.1779
10543SOL    HW238235   8.257   6.886  11.140  1.8499 -1.7767  1.1629
10544SOL     OW38236   5.717   4.349   5.345  0.5256  0.0278 -0.2445
10544SOL    HW138237   5.737   4.420   5.284  1.7576  0.2263  0.3564
10544SOL    HW238238   5.622   4.353   5.357  0.5312  1.3308 -0.5135
10545SOL     OW38239   9.117   5.740  12.506  0.0232  0.4707 -0.2089
10545SOL    HW138240   9.126   5.796  12.584 -1.0706 -0.6265  0.7340
10545SOL    HW238241   9.025   5.749  12.481 -0.1805 -0.8903 -0.0257
10546SOL     OW38242   0.613   1.018   1.336 -0.0068 -0.0944 -0.5545
10546SOL    HW138243   0.687   0.975   1.379  0.6165 -0.5966 -2.0333
10546SOL    HW238244   0.535   0.976   1.374  0.5668 -2.4268 -1.7300
10547SOL     OW38245   8.735   9.474   9.782  0.1881 -0.0031 -0.1538
10547SOL    HW138246   8.760   9.562   9.810 -0.5433 -0.3183  1.5863
10547SOL    HW238247   8.810   9.443   9.731  1.1787  0.9663  0.6803
10548SOL     OW38248  12.525   7.129   5.744 -0.2130 -0.0954 -0.4642
10548SOL    HW138249  12.439   7.124   5.702  0.7754  0.3129 -2.6645
10548SOL    HW238250  12.563   7.042   5.731 -0.2749 -0.3052  0.5945
10549SOL     OW38251   9.630   5.723   2.189  0.1807 -0.3113 -0.0244
10549SOL    HW138252   9.622   5.666   2.112  0.1136  0.4190 -0.5671
10549SOL    HW238253   9.719   5.706   2.222 -0.0378 -1.1398  0.1606
10550SOL     OW38254   0.388   7.534   4.372 -0.0435 -0.1624  0.3243
10550SOL    HW138255   0.435   7.502   4.295  0.2086 -0.0164  0.4171
10550SOL    HW238256   0.455   7.542   4.440 -0.6191 -2.3311  1.2191
10551SOL     OW38257   2.319   1.422   9.154 -0.0746  0.0452 -0.2664
10551SOL    HW138258   2.260   1.373   9.212  0.6464 -1.3286 -0.6491
10551SOL    HW238259   2.401   1.373   9.156  1.0156  1.7845  0.0594
10552SOL     OW38260   1.368   0.923  10.580  0.0988  0.0357 -0.0009
10552SOL    HW138261   1.344   0.846  10.529  0.6404 -0.1389 -0.0006
10552SOL    HW238262   1.378   0.890  10.669 -2.4699  0.6354  0.5810
10553SOL     OW38263   7.321   0.755   8.956  0.8795 -0.0290 -0.7447
10553SOL    HW138264   7.285   0.668   8.939 -0.8993  0.6490 -0.6165
10553SOL    HW238265   7.408   0.753   8.916  1.2532 -2.1480  0.0318
10554SOL     OW38266   4.158   8.904   3.636  0.4292  0.2444  0.1788
10554SOL    HW138267   4.084   8.937   3.686  1.1117  2.5625 -0.2358
10554SOL    HW238268   4.232   8.959   3.662  1.3113  0.0452 -1.7079
10555SOL     OW38269  10.348   9.387  11.722 -0.4294 -0.1246 -0.0067
10555SOL    HW138270  10.267   9.385  11.671 -1.1464 -0.0812  1.1113
10555SOL    HW238271  10.366   9.295  11.742  0.4107 -0.2432 -1.1526
10556SOL     OW38272   4.314   8.690   3.532 -0.3810 -0.3987 -0.0881
10556SOL    HW138273   4.273   8.776   3.535 -0.4004 -0.3512 -1.1799
10556SOL    HW238274   4.381   8.698   3.464 -0.5751 -1.3156 -0.4086
10557SOL     OW38275   6.773   1.335   2.874 -0.0287 -0.1497 -0.1209
10557SOL    HW138276   6.784   1.349   2.968 -1.1582 -0.2398  0.0396
10557SOL    HW238277   6.729   1.250   2.868  1.1336 -0.7299 -0.8008
10558SOL     OW38278   4.684  12.666   6.265  0.7178  0.8006 -0.5640
10558SOL    HW138279   4.589  12.653   6.270  0.3813  2.3783 -1.8850
10558SOL    HW238280   4.703  12.666   6.172  2.4765 -2.0553 -0.3024
10559SOL     OW38281  12.162  12.773   0.760  0.4627 -0.2446 -0.4607
10559SOL    HW138282  12.160  12.715   0.836  0.8460  2.9024  2.1698
10559SOL    HW238283  12.083  12.750   0.711 -0.2078 -1.9218  1.2630
10560SOL     OW38284   7.024   1.536  11.972  0.0584  0.3392 -0.1616
10560SOL    HW138285   7.111   1.547  12.009 -0.5461  1.6233  0.9791
10560SOL    HW238286   7.021   1.599  11.900  0.8327 -1.3429 -1.7411
10561SOL     OW38287   3.076   8.516  12.631 -0.6793 -0.3106 -0.1318
10561SOL    HW138288   3.095   8.477  12.716 -1.4840 -0.6734 -0.1116
10561SOL    HW238289   3.000   8.467  12.598 -1.2638  0.7684 -0.4192
10562SOL     OW38290   6.112  10.676  10.683  0.4426  0.3200 -0.0857
10562SOL    HW138291   6.136  10.744  10.620 -1.2198  0.4384 -0.6289
10562SOL    HW238292   6.108  10.721  10.767 -0.9958  1.0215 -0.4902
10563SOL     OW38293  11.781   7.332   5.358 -0.8593  0.1923  0.3312
10563SOL    HW138294  11.724   7.296   5.425  1.3261 -1.4262  1.4457
10563SOL    HW238295  11.826   7.405   5.400 -1.4720  0.9526 -0.2909
10564SOL     OW38296  12.308   8.884   1.944 -0.2459  0.2222 -0.4044
10564SOL    HW138297  12.392   8.872   1.989 -0.4656  0.2434  0.0187
10564SOL    HW238298  12.328   8.946   1.873  0.5390 -1.3063 -1.5769
10565SOL     OW38299  10.720  10.640  12.682 -0.0726  0.3674 -0.2306
10565SOL    HW138300  10.696  10.690  12.604 -0.7157  1.0933  0.4138
10565SOL    HW238301  10.809  10.609  12.665  0.6977  2.4636 -0.3133
10566SOL     OW38302   3.954  12.184   1.755 -0.3771  0.1909  0.0659
10566SOL    HW138303   3.891  12.167   1.826  1.8430 -0.4219  2.0301
10566SOL    HW238304   4.018  12.244   1.794  1.9941 -1.6829 -0.7136
10567SOL     OW38305   0.547   6.639   0.407  0.3937  0.2491  0.0843
10567SOL    HW138306   0.484   6.597   0.465 -0.6520  3.2229  1.3061
10567SOL    HW238307   0.499   6.652   0.325  0.9554 -1.4371 -0.5553
10568SOL     OW38308   7.454  12.716   4.239  0.1740  0.5053  0.6603
10568SOL    HW138309   7.490  12.654   4.175  0.7972  1.5026  0.0138
10568SOL    HW238310   7.452  12.667   4.321 -0.5925 -0.7816 -0.0951
10569SOL     OW38311   8.198  10.628   6.516  0.0604  0.7101  0.2223
10569SOL    HW138312   8.166  10.700   6.571 -2.7386 -0.0907 -0.2138
10569SOL    HW238313   8.190  10.551   6.572 -0.7310  0.1969 -0.5926
10570SOL     OW38314  12.065   3.927   3.028  0.5650  0.2115  0.1522
10570SOL    HW138315  12.136   3.967   3.078 -0.2370  2.5494 -0.4510
10570SOL    HW238316  11.992   3.988   3.037 -1.2270 -1.8348  0.2728
10571SOL     OW38317   0.816   8.068   6.128 -0.6286  0.5764 -0.2774
10571SOL    HW138318   0.749   8.096   6.190  0.5982  2.3368  0.3318
10571SOL    HW238319   0.826   8.143   6.068 -0.3418 -0.2930 -1.3496
10572SOL     OW38320   8.572   9.642   1.633  0.7732 -0.1601  0.1425
10572SOL    HW138321   8.571   9.680   1.545  1.8030 -1.0629 -0.2853
10572SOL    HW238322   8.566   9.717   1.692 -1.0272  0.3925 -0.6797
10573SOL     OW38323   4.596   9.104   3.675 -0.5170  0.1298 -0.0461
10573SOL    HW138324   4.573   9.080   3.585 -0.3302  0.0693 -0.0785
10573SOL    HW238325   4.527   9.063   3.728 -2.3226  2.5836 -0.3427
10574SOL     OW38326   0.918   7.397  11.687 -0.1847 -0.2083  0.6074
10574SOL    HW138327   0.924   7.416  11.780 -1.6703  1.4670  0.4108
10574SOL    HW238328   0.914   7.483  11.645 -2.5033 -0.9009 -0.7567
10575SOL     OW38329   7.302   4.452   1.523  0.6406 -0.0551 -0.1053
10575SOL    HW138330   7.322   4.511   1.595 -1.3188 -0.8258  1.1607
10575SOL    HW238331   7.344   4.369   1.547 -0.9684 -0.6543  0.8096
10576SOL     OW38332  11.509   7.423  10.048  0.4906  0.8239 -0.0153
10576SOL    HW138333  11.601   7.395  10.045  0.1320 -0.5449  0.8674
10576SOL    HW238334  11.514   7.518  10.063  1.7879  0.5584  1.5689
10577SOL     OW38335   8.844   0.049   8.126  0.2686 -0.9214 -0.1855
10577SOL    HW138336   8.762   0.002   8.111 -0.2607  0.2094 -0.9371
10577SOL    HW238337   8.895  -0.010   8.182 -1.6602 -1.0312  1.6107
10578SOL     OW38338  11.709   4.940   9.319 -0.1804  0.3791  0.1872
10578SOL    HW138339  11.700   4.920   9.225 -0.3008 -0.2139  0.3180
10578SOL    HW238340  11.802   4.960   9.330 -0.6987  3.8201 -0.6646
10579SOL     OW38341   5.729  12.733   0.747  0.6974  0.1319  1.0156
10579SOL    HW138342   5.713  12.792   0.821  0.6241  1.3445  0.0771
10579SOL    HW238343   5.752  12.792   0.675  1.2126 -1.0522  0.1912
10580SOL     OW38344   5.045   4.157   8.273  0.6917 -0.9986 -0.5545
10580SOL    HW138345   4.956   4.121   8.276  0.5519 -0.5847  0.6371
10580SOL    HW238346   5.033   4.251   8.284  1.2578 -0.9013 -0.7395
10581SOL     OW38347  11.679   6.888   7.015 -0.1798  0.4217 -0.3634
10581SOL    HW138348  11.583   6.881   7.014 -0.1636 -0.9439  1.6169
10581SOL    HW238349  11.709   6.798   7.005  0.8051  0.5634  1.0032
10582SOL     OW38350   0.512   1.340   8.304  0.0718 -0.1306 -0.2141
10582SOL    HW138351   0.419   1.358   8.317  0.5318  1.1420  1.8511
10582SOL    HW238352   0.530   1.262   8.357  0.3866  0.2978  0.3215
10583SOL     OW38353   0.164   8.422   3.966  0.1348  0.1000  0.1145
10583SOL    HW138354   0.114   8.502   3.953  0.5363  0.6932  1.8883
10583SOL    HW238355   0.191   8.426   4.058  1.8631 -1.0905 -0.2958
10584SOL     OW38356   9.457   1.959   7.314  0.0226 -0.1828  0.3857
10584SOL    HW138357   9.501   1.884   7.353 -0.1089 -0.3481  0.2204
10584SOL    HW238358   9.527   2.021   7.295  0.0311  0.1462  1.4100
10585SOL     OW38359  10.809  12.082   1.267 -0.5059 -0.1867  0.1551
10585SOL    HW138360  10.807  12.002   1.215 -0.2821  0.4601 -0.8884
10585SOL    HW238361  10.880  12.134   1.229 -0.1687  0.2039  1.2811
10586SOL     OW38362   7.478  10.213   2.956 -0.2821 -0.3397  0.1234
10586SOL    HW138363   7.557  10.266   2.943 -0.4156 -0.3750 -0.8847
10586SOL    HW238364   7.498  10.159   3.033 -0.2551  1.3434  1.3370
10587SOL     OW38365   8.348   8.178   0.349  0.0648 -0.2151  0.3873
10587SOL    HW138366   8.355   8.172   0.444  1.6590 -0.1797  0.2960
10587SOL    HW238367   8.348   8.273   0.331  0.9191 -0.2278  0.2934
10588SOL     OW38368   0.979   3.914   8.305 -0.0871  0.4508 -0.1605
10588SOL    HW138369   1.035   3.991   8.320 -0.9993  1.2542 -0.7226
10588SOL    HW238370   1.039   3.841   8.300  0.7381  0.9928  1.3220
10589SOL     OW38371   8.010   4.810  10.650  0.1474  0.0817 -0.0863
10589SOL    HW138372   7.955   4.743  10.609 -0.3041 -0.1263  0.8403
10589SOL    HW238373   8.022   4.780  10.740  1.0021  0.6082 -0.0113
10590SOL     OW38374   4.889   3.622   6.392  0.0010 -0.3335 -0.0224
10590SOL    HW138375   4.885   3.549   6.454 -0.8622 -0.0053  0.3270
10590SOL    HW238376   4.876   3.700   6.446 -2.1355 -0.1270 -0.7629
10591SOL     OW38377   0.315   2.172   0.698 -0.1628 -0.3955  0.1136
10591SOL    HW138378   0.326   2.100   0.761  1.1576 -0.2005  0.1375
10591SOL    HW238379   0.301   2.249   0.753 -1.6705 -0.6268  0.0860
10592SOL     OW38380   4.292  12.391  10.632 -0.6242 -0.1927 -0.7511
10592SOL    HW138381   4.221  12.454  10.626 -0.2383  0.4838  1.1862
10592SOL    HW238382   4.341  12.402  10.550 -0.9845  1.5214 -0.7736
10593SOL     OW38383   8.673   8.774   0.158 -0.0944 -0.1541  0.0496
10593SOL    HW138384   8.737   8.827   0.206 -0.3044  0.0211  0.1344
10593SOL    HW238385   8.603   8.835   0.135  1.1853  0.4345 -2.7749
10594SOL     OW38386   9.022   2.190   4.577  0.0818 -0.0741  0.2661
10594SOL    HW138387   9.088   2.219   4.641  1.3519  0.9555 -1.4306
10594SOL    HW238388   8.977   2.270   4.551  0.3363 -0.3115 -0.9383
10595SOL     OW38389   6.617   5.891   6.509 -0.2514 -0.3325 -0.1668
10595SOL    HW138390   6.597   5.976   6.469  1.0699  0.3170  0.4787
10595SOL    HW238391   6.563   5.889   6.588  0.4017  0.3391  0.3097
10596SOL     OW38392  10.101  12.505   6.777  0.2628  0.1921 -0.4493
10596SOL    HW138393  10.191  12.472   6.769  0.7124  0.8357  1.5025
10596SOL    HW238394  10.111  12.592   6.816 -1.2678 -0.2817  1.0928
10597SOL     OW38395   3.052   4.004  12.236  0.3588 -0.1909  0.1128
10597SOL    HW138396   3.119   3.946  12.199  0.4707  1.4768 -2.6301
10597SOL    HW238397   2.969   3.958  12.221  0.4231  0.3063 -2.2755
10598SOL     OW38398   0.002  11.155   2.139 -0.0166  0.1736  0.4622
10598SOL    HW138399   0.069  11.189   2.079  0.4398 -1.7238 -0.1949
10598SOL    HW238400  -0.076  11.146   2.085  0.4265 -1.6483  0.0292
10599SOL     OW38401   9.484   0.341   4.571 -0.3050  0.4748  0.0410
10599SOL    HW138402   9.522   0.304   4.651 -1.4754  0.0707  0.4360
10599SOL    HW238403   9.462   0.431   4.595 -0.4174  0.4324  0.1003
10600SOL     OW38404  10.524   6.389   9.950  0.4763 -0.1784  0.3552
10600SOL    HW138405  10.431   6.395   9.971 -0.0472  1.5788 -2.1182
10600SOL    HW238406  10.562   6.467   9.992  0.4101  0.3149 -0.4839
10601SOL     OW38407   0.707   9.482   9.968  0.6719 -0.5097  0.5333
10601SOL    HW138408   0.742   9.510   9.883 -0.8836 -1.1682 -0.3749
10601SOL    HW238409   0.732   9.390   9.974 -0.3720 -0.8369  0.1274
10602SOL     OW38410   7.805   5.043  10.481 -0.0039 -0.2496 -0.5003
10602SOL    HW138411   7.736   5.045  10.547  0.6007 -0.9586  0.1726
10602SOL    HW238412   7.787   4.965  10.429 -0.1014 -0.0511 -0.7689
10603SOL     OW38413  11.754   2.357   6.969 -0.0302  0.6812  0.0680
10603SOL    HW138414  11.845   2.387   6.970 -0.1890  1.1919 -0.3234
10603SOL    HW238415  11.748   2.299   6.893 -0.2314  1.2987 -0.3914
10604SOL     OW38416  12.166   4.135   0.342 -0.0765 -0.4949  0.6553
10604SOL    HW138417  12.240   4.096   0.296 -0.5063 -0.1248 -0.3860
10604SOL    HW238418  12.098   4.068   0.341 -0.4043 -0.1658 -0.0883
10605SOL     OW38419   0.851   0.831   6.886 -0.3700 -0.3573  0.4112
10605SOL    HW138420   0.907   0.842   6.808  0.6996  1.0776  1.3199
10605SOL    HW238421   0.906   0.782   6.948 -0.4989  0.1565  0.9385
10606SOL     OW38422   0.342   2.577   4.079  0.4652 -0.0180 -0.6949
10606SOL    HW138423   0.372   2.508   4.020 -0.2692 -0.2166 -0.8425
10606SOL    HW238424   0.388   2.656   4.049  0.2079 -0.1446 -1.4418
10607SOL     OW38425  11.895   4.257   7.365 -0.2299 -0.1775 -0.2387
10607SOL    HW138426  11.988   4.242   7.380 -0.2831 -1.2010 -0.7972
10607SOL    HW238427  11.871   4.327   7.425  0.7536 -0.3581  0.3756
10608SOL     OW38428   3.632   6.078   5.296  0.0610  0.0357 -0.4477
10608SOL    HW138429   3.679   6.054   5.376 -1.5432 -1.6108  0.0558
10608SOL    HW238430   3.619   6.172   5.303  0.8791  0.0825  0.6985
10609SOL     OW38431   8.355  11.564   9.912  0.0056 -0.0212 -0.1903
10609SOL    HW138432   8.384  11.516   9.989 -1.4930 -0.9203 -0.1382
10609SOL    HW238433   8.265  11.591   9.933 -0.2922  0.0481 -1.4597
10610SOL     OW38434  11.423   8.177   9.066  0.4444  0.7284  0.3135
10610SOL    HW138435  11.471   8.135   8.994 -1.1161  0.4104 -0.5806
10610SOL    HW238436  11.452   8.268   9.063 -0.5460  1.0480 -1.6152
10611SOL     OW38437   3.402   5.929   4.192 -0.1605  0.4642  0.0560
10611SOL    HW138438   3.327   5.984   4.172  0.3231  0.1673 -3.0513
10611SOL    HW238439   3.456   5.982   4.250 -1.2847  1.8999 -0.1543
10612SOL     OW38440   8.875   6.587  10.354  0.0737  0.0722  0.5071
10612SOL    HW138441   8.873   6.494  10.374  0.0312 -0.4140 -1.5671
10612SOL    HW238442   8.783   6.615  10.364 -0.4362 -0.7442 -1.3942
10613SOL     OW38443   5.680   7.232   7.699 -0.2295 -0.1438 -0.4984
10613SOL    HW138444   5.694   7.200   7.610 -0.6964  0.3700 -0.7629
10613SOL    HW238445   5.744   7.301   7.710 -0.0172 -0.3627 -0.3509
10614SOL     OW38446  10.381   6.429   9.133 -0.4084 -0.4122  0.0612
10614SOL    HW138447  10.368   6.465   9.045 -0.3300  0.6972  0.4884
10614SOL    HW238448  10.310   6.467   9.185  0.4325  0.1661  0.8243
10615SOL     OW38449  10.032  12.749   3.402 -0.1494 -0.2292 -0.0903
10615SOL    HW138450   9.997  12.792   3.480 -0.5624 -1.2949  0.3296
10615SOL    HW238451  10.123  12.729   3.424 -0.1604 -0.2058 -0.0247
10616SOL     OW38452   9.431   0.940   0.466 -0.6743  0.6024 -0.3295
10616SOL    HW138453   9.515   0.985   0.476 -0.3098  0.1206 -1.1545
10616SOL    HW238454   9.392   0.979   0.388 -1.6059  1.4025  0.5020
10617SOL     OW38455   8.471   7.851   2.629  0.4852 -0.2958  0.1814
10617SOL    HW138456   8.482   7.944   2.649  0.5983  0.1741 -1.8447
10617SOL    HW238457   8.550   7.828   2.580  0.6445 -1.5910  0.9914
10618SOL     OW38458   1.792   7.163   6.095  0.2367  0.2404  0.3986
10618SOL    HW138459   1.830   7.132   6.012  2.3758  2.0234  0.6115
10618SOL    HW238460   1.722   7.101   6.114 -0.1752 -0.3860 -2.6097
10619SOL     OW38461   5.609   9.482  11.341 -0.1218  0.4816  0.2766
10619SOL    HW138462   5.524   9.441  11.321  0.7481 -2.3627  1.8392
10619SOL    HW238463   5.646   9.501  11.255 -2.1031  1.3231 -0.4511
10620SOL     OW38464   5.534   4.968   6.405  0.1090  0.0299 -0.0251
10620SOL    HW138465   5.452   4.919   6.414 -0.1383  0.3214 -0.6020
10620SOL    HW238466   5.543   4.980   6.310 -0.1612  1.6364  0.1304
10621SOL     OW38467   1.820   7.866   2.252 -0.6056  0.0619  0.4678
10621SOL    HW138468   1.797   7.942   2.305  0.8505  1.1591 -0.4009
10621SOL    HW238469   1.915   7.868   2.247 -0.6619 -0.0815 -2.0258
10622SOL     OW38470   1.768   8.562   0.340 -0.0053  0.9636  0.1532
10622SOL    HW138471   1.801   8.472   0.343 -1.6462  0.3308  0.5040
10622SOL    HW238472   1.831   8.613   0.390 -0.4289 -0.4950  2.3275
10623SOL     OW38473   1.786  11.883   9.684 -0.8635 -0.0169  0.0285
10623SOL    HW138474   1.861  11.923   9.641 -1.2474 -0.1760 -0.8060
10623SOL    HW238475   1.741  11.956   9.726 -0.4301  0.1252  0.2535
10624SOL     OW38476   2.972   8.937  11.493  0.4129  0.5267  0.3830
10624SOL    HW138477   2.913   8.950  11.420  1.1453 -1.6497 -0.6873
10624SOL    HW238478   3.045   8.997  11.476  1.1543 -0.7773 -1.4139
10625SOL     OW38479   5.429   2.142   1.954 -0.4248  0.7664 -0.5055
10625SOL    HW138480   5.464   2.104   1.873  0.0408 -0.4939  0.2608
10625SOL    HW238481   5.387   2.069   1.999 -2.3009  1.8341 -0.4311
10626SOL     OW38482   7.414   3.848  10.983 -0.3326 -0.0256 -0.1361
10626SOL    HW138483   7.498   3.839  11.028  0.1043  1.5388 -0.5526
10626SOL    HW238484   7.357   3.888  11.048 -0.9032 -1.4949  0.2875
10627SOL     OW38485   1.168   1.721   5.114  0.4697  0.4193 -0.5420
10627SOL    HW138486   1.236   1.764   5.062  1.9914 -1.8239 -0.5532
10627SOL    HW238487   1.195   1.629   5.117 -3.2308 -0.8718 -1.5811
10628SOL     OW38488   3.819   0.228   1.244  0.1843  0.3841 -0.4554
10628SOL    HW138489   3.806   0.316   1.208  2.7616  0.9600 -0.1921
10628SOL    HW238490   3.914   0.220   1.255 -0.0603 -1.9875  0.7013
10629SOL     OW38491   4.480   2.054   5.061  0.4728  0.1006 -0.2518
10629SOL    HW138492   4.491   2.148   5.074 -1.1278  0.1665  0.8578
10629SOL    HW238493   4.386   2.041   5.051  0.6176 -1.4299 -0.0056
10630SOL     OW38494   4.842   7.386  11.493 -0.0367 -0.4785  0.0885
10630SOL    HW138495   4.800   7.451  11.548  1.4250  0.2208  0.4391
10630SOL    HW238496   4.810   7.405  11.405  0.7372  1.0788  0.1051
10631SOL     OW38497  10.651   0.679   8.267  0.0926  0.6914 -0.2969
10631SOL    HW138498  10.663   0.723   8.351  0.8140 -0.6332  0.3249
10631SOL    HW238499  10.573   0.624   8.280 -0.8000  1.7243 -1.0643
10632SOL     OW38500  11.551   2.222   8.256  0.5333  0.2840 -0.4973
10632SOL    HW138501  11.637   2.261   8.266  0.5716 -0.1112  0.8595
10632SOL    HW238502  11.554   2.176   8.172  0.8758  2.1638 -1.5595
10633SOL     OW38503   5.136   1.455   1.660  0.5671 -0.1116  0.2833
10633SOL    HW138504   5.053   1.432   1.618  0.7624 -0.8870  0.2982
10633SOL    HW238505   5.128   1.423   1.750  1.7856 -2.5230 -0.3699
10634SOL     OW38506   9.950  12.326  11.399  0.5343 -0.0765  0.0077
10634SOL    HW138507  10.029  12.377  11.419 -0.4381  1.2350  0.5943
10634SOL    HW238508   9.968  12.287  11.313  2.0819 -0.3583  0.4245
10635SOL     OW38509   6.695   0.362   1.991  0.3105  0.6619  0.4189
10635SOL    HW138510   6.646   0.432   1.947 -1.5281 -0.7042  0.1941
10635SOL    HW238511   6.775   0.405   2.023  0.1775  2.3975 -1.4314
10636SOL     OW38512  12.689   9.553   4.825  0.4947 -0.1759  0.6446
10636SOL    HW138513  12.618   9.491   4.838  0.3131  0.1858  1.4264
10636SOL    HW238514  12.744   9.543   4.903  2.9979 -2.5902 -1.2142
10637SOL     OW38515   7.314   3.793   8.371 -0.3168  0.6174  0.3668
10637SOL    HW138516   7.356   3.748   8.298  0.8079 -1.0190  1.9118
10637SOL    HW238517   7.252   3.730   8.406 -1.8382  1.8742  0.0385
10638SOL     OW38518   6.085   3.533   6.452 -0.3769 -0.3413  0.5380
10638SOL    HW138519   6.083   3.438   6.449  0.5388 -0.3992  1.2780
10638SOL    HW238520   6.042   3.561   6.371  0.5816 -1.3946 -0.3664
10639SOL     OW38521   8.093  10.984   8.166  0.1467  0.0656  0.3048
10639SOL    HW138522   8.016  10.959   8.216  0.0464  0.3454  0.2903
10639SOL    HW238523   8.157  11.010   8.232 -0.0392  0.5873  0.2854
10640SOL     OW38524   1.317  11.717  10.134  0.3285 -0.1093  0.0420
10640SOL    HW138525   1.352  11.801  10.104  0.3253 -0.2608 -0.3847
10640SOL    HW238526   1.222  11.727  10.128  0.3419 -0.3502 -0.5687
10641SOL     OW38527   9.363   8.829   2.399 -0.5371 -0.6881 -0.3138
10641SOL    HW138528   9.427   8.761   2.419 -1.0275 -0.9913  0.2490
10641SOL    HW238529   9.362   8.886   2.476 -0.6768 -0.4738 -0.4705
10642SOL     OW38530   5.464   8.570   7.418  0.0555 -0.2531  0.2982
10642SOL    HW138531   5.382   8.556   7.370  0.2039  1.4746 -0.5276
10642SOL    HW238532   5.501   8.650   7.380  0.0245  1.4407  3.5253
10643SOL     OW38533   1.905   9.971  12.398 -0.3819 -0.3833  0.3311
10643SOL    HW138534   1.857  10.047  12.432 -0.9149 -0.2806 -0.6310
10643SOL    HW238535   1.854   9.896  12.427 -1.2465 -0.2681 -0.8261
10644SOL     OW38536   6.552  11.400   2.461 -0.3314  0.4843 -0.3315
10644SOL    HW138537   6.647  11.406   2.457 -0.3513  0.9422 -0.2141
10644SOL    HW238538   6.534  11.318   2.506 -0.0064 -0.1853 -1.3865
10645SOL     OW38539   8.440   1.965   1.843 -0.1648 -0.2026  0.5046
10645SOL    HW138540   8.465   1.880   1.878 -0.8060 -0.3538  0.6167
10645SOL    HW238541   8.494   1.976   1.765  0.5908 -0.2895  1.0035
10646SOL     OW38542  12.563   4.878  12.329  0.2711  1.1501  0.1427
10646SOL    HW138543  12.491   4.941  12.335  1.2988  2.3485  0.4372
10646SOL    HW238544  12.637   4.930  12.298  0.5075 -0.4732 -2.2597
10647SOL     OW38545   3.385  10.039   7.948 -0.4476 -0.0641 -0.1219
10647SOL    HW138546   3.383  10.125   7.989 -1.8058 -0.5764  0.9334
10647SOL    HW238547   3.478  10.025   7.927  0.0357  0.9317  1.2217
10648SOL     OW38548   3.473   3.057   2.389 -0.2068 -0.4458  0.3184
10648SOL    HW138549   3.502   2.967   2.407 -1.1795 -1.1406 -1.3761
10648SOL    HW238550   3.417   3.049   2.312 -1.1622  1.4866  0.7565
10649SOL     OW38551  10.468   1.982   1.460  0.2221  0.1102 -0.7556
10649SOL    HW138552  10.452   1.897   1.500 -0.7065 -0.4282 -2.2062
10649SOL    HW238553  10.501   2.036   1.532  0.9837 -1.4987  0.1607
10650SOL     OW38554   0.153   4.009   1.147 -0.1037 -0.3759 -0.7522
10650SOL    HW138555   0.248   4.019   1.133  0.0144 -0.7973 -0.2791
10650SOL    HW238556   0.144   3.925   1.192 -0.5920  0.2503  0.3691
10651SOL     OW38557   8.401   1.476   0.895 -0.1092 -0.7186  0.3136
10651SOL    HW138558   8.405   1.452   0.987  0.1145  1.7105  1.0132
10651SOL    HW238559   8.308   1.491   0.878 -0.2463 -1.9103 -0.1146
10652SOL     OW38560   2.040   7.476  11.813 -0.1012 -0.1219 -0.2417
10652SOL    HW138561   2.003   7.453  11.728  0.1988 -0.6404 -0.2355
10652SOL    HW238562   2.123   7.520  11.792 -0.2569  0.1751 -0.2314
10653SOL     OW38563  11.776  10.384  10.230  0.2020  0.0387 -0.4864
10653SOL    HW138564  11.691  10.422  10.207  0.3942 -0.1076 -1.5071
10653SOL    HW238565  11.783  10.394  10.325 -1.0584 -0.1693 -0.3662
10654SOL     OW38566   0.467   1.413   3.111 -0.8989 -0.5293  0.2437
10654SOL    HW138567   0.515   1.334   3.087 -0.9767 -0.6005  0.3196
10654SOL    HW238568   0.448   1.457   3.027  0.0774 -0.0379  0.2691
10655SOL     OW38569  10.349  11.396   6.360 -0.1026 -0.2973  0.2185
10655SOL    HW138570  10.327  11.484   6.389  0.5948 -0.1411  0.2996
10655SOL    HW238571  10.443  11.399   6.345 -0.2270 -0.7611 -0.7276
10656SOL     OW38572   3.661  12.432   4.342 -0.3426 -0.6612  0.3643
10656SOL    HW138573   3.578  12.400   4.309 -0.5807 -0.1065  0.4087
10656SOL    HW238574   3.655  12.423   4.437 -0.5892 -0.0920  0.4112
10657SOL     OW38575   4.127   3.084  12.113  0.4918 -0.3589  0.0212
10657SOL    HW138576   4.061   3.106  12.179  1.4965  1.1516  0.5712
10657SOL    HW238577   4.085   3.105  12.030  0.4670  1.2535  0.4005
10658SOL     OW38578  10.882   7.373   0.306  0.2746  0.2709  0.3648
10658SOL    HW138579  10.831   7.374   0.387 -0.8443 -0.1298 -0.3182
10658SOL    HW238580  10.843   7.443   0.253  0.4633 -0.0194 -0.1572
10659SOL     OW38581   9.536   9.018   5.533  0.5149 -0.0620  0.0580
10659SOL    HW138582   9.568   8.952   5.470 -0.1443  0.8977 -1.3332
10659SOL    HW238583   9.514   9.093   5.479 -0.7727  0.5494  1.3898
10660SOL     OW38584  11.991   6.290   2.040  0.2004  0.4799  0.1392
10660SOL    HW138585  12.028   6.365   2.086  1.3079  0.5398 -0.8250
10660SOL    HW238586  11.962   6.231   2.110  1.6978  0.6426  0.9305
10661SOL     OW38587   8.570   8.232   3.364  0.4991 -0.0291 -0.6062
10661SOL    HW138588   8.511   8.265   3.296  0.3654  4.5621  1.3781
10661SOL    HW238589   8.650   8.283   3.353  0.9883 -0.1950  1.7282
10662SOL     OW38590   2.353   9.383   8.480  0.1433  0.0750 -0.4890
10662SOL    HW138591   2.415   9.320   8.518 -0.0771  0.0270 -0.2137
10662SOL    HW238592   2.271   9.369   8.527 -0.1428 -0.0070 -0.9947
10663SOL     OW38593  12.095   3.900  10.914  0.1329  0.1178  0.3029
10663SOL    HW138594  12.069   3.991  10.901  2.1660  1.3213  3.4168
10663SOL    HW238595  12.028   3.863  10.970 -0.2953 -0.0928 -0.3379
10664SOL     OW38596  12.029   0.083  11.057  0.1175  0.3782  0.5824
10664SOL    HW138597  12.061  -0.006  11.052 -1.0880 -0.0632  0.3298
10664SOL    HW238598  11.935   0.076  11.039  0.2650  1.8753 -0.9728
10665SOL     OW38599   5.735   3.060   7.548 -0.2961 -0.0808 -0.2805
10665SOL    HW138600   5.796   3.014   7.606 -1.0535 -1.4662 -0.5247
10665SOL    HW238601   5.673   3.102   7.607  0.4790  0.7768 -0.0481
10666SOL     OW38602   0.542   2.393  10.870 -0.4534 -0.5664 -0.5996
10666SOL    HW138603   0.551   2.333  10.796 -1.6754 -0.9564 -0.4505
10666SOL    HW238604   0.541   2.336  10.947 -2.8429 -0.5202 -0.5264
10667SOL     OW38605  12.506   0.561   2.552 -0.2472 -0.7431  0.5402
10667SOL    HW138606  12.465   0.613   2.621  0.9186  2.3810 -0.9059
10667SOL    HW238607  12.598   0.587   2.554  0.4107 -2.7870 -0.3667
10668SOL     OW38608   0.984   9.575  12.424 -0.1545  0.3701  0.3254
10668SOL    HW138609   0.922   9.529  12.368  1.3309  0.2802 -1.3279
10668SOL    HW238610   1.012   9.651  12.373  0.5399  0.8149  1.3270
10669SOL     OW38611   3.691   5.152   3.574 -0.7339  0.2629 -0.4458
10669SOL    HW138612   3.752   5.198   3.632 -1.3071 -0.8049  1.0620
10669SOL    HW238613   3.680   5.066   3.614 -1.2262 -0.4916 -2.1179
10670SOL     OW38614   4.381  10.302   5.162 -0.4600  0.2556  0.0343
10670SOL    HW138615   4.464  10.295   5.210 -1.1450 -0.3355  1.1884
10670SOL    HW238616   4.367  10.396   5.152  0.4477  0.3567 -0.3660
10671SOL     OW38617   9.901   9.109  12.604  0.2760 -0.0024 -0.0204
10671SOL    HW138618   9.895   9.193  12.649  0.0683  0.2596 -0.5317
10671SOL    HW238619   9.860   9.047  12.664 -1.4580  0.6109 -0.5065
10672SOL     OW38620   7.142   4.832   1.429 -0.0383  0.1156 -0.2358
10672SOL    HW138621   7.195   4.796   1.358 -0.4094 -1.4255  0.2262
10672SOL    HW238622   7.205   4.855   1.497  0.2474  0.8446 -0.7308
10673SOL     OW38623  11.106   0.864   5.631 -0.4111 -0.0479 -0.2382
10673SOL    HW138624  11.045   0.914   5.685  0.3477  0.2052  0.4119
10673SOL    HW238625  11.051   0.801   5.584 -1.5129  1.9006 -1.6995
10674SOL     OW38626   4.931  12.661   0.996 -0.0221  0.2074 -0.3167
10674SOL    HW138627   4.931  12.573   0.958 -0.6875  0.3223 -0.5862
10674SOL    HW238628   4.873  12.655   1.071  1.3654 -0.0448  0.7897
10675SOL     OW38629   6.017   5.886   2.912 -0.3418 -0.2134  0.1575
10675SOL    HW138630   6.039   5.973   2.881  0.2246 -0.2294  0.5002
10675SOL    HW238631   6.075   5.827   2.863 -2.0617 -0.6076 -1.5264
10676SOL     OW38632   3.978   5.597  10.034  0.2664 -0.3416  0.1505
10676SOL    HW138633   4.017   5.510  10.043  0.2207 -0.3171  0.5997
10676SOL    HW238634   3.998   5.640  10.117 -1.3614 -0.5800  0.6901
10677SOL     OW38635   3.294   3.518   6.464 -0.2391  0.0464 -0.1873
10677SOL    HW138636   3.291   3.423   6.454  0.3952  0.0750 -0.6655
10677SOL    HW238637   3.317   3.532   6.556  2.8338 -0.3199 -0.7947
10678SOL     OW38638   4.214   3.965   2.003  0.4522 -0.0300  0.1627
10678SOL    HW138639   4.146   4.024   2.037  1.6562  1.3283  0.3067
10678SOL    HW238640   4.259   4.017   1.937  0.1570 -1.5681 -1.3186
10679SOL     OW38641   3.783  10.857   1.556 -0.4332  0.1482  0.3286
10679SOL    HW138642   3.855  10.798   1.578  0.7578  0.8359 -1.4481
10679SOL    HW238643   3.790  10.927   1.621  0.8185  0.4234 -0.0639
10680SOL     OW38644   3.422   2.866  11.001 -0.1889  0.3142 -0.3397
10680SOL    HW138645   3.434   2.833  11.090 -0.5141  1.8843  0.3251
10680SOL    HW238646   3.328   2.853  10.983 -0.0422 -0.3937 -0.6387
10681SOL     OW38647  10.646  12.534  11.359 -0.1918 -0.4799  0.1449
10681SOL    HW138648  10.671  12.585  11.436 -0.6008 -0.7439  0.4610
10681SOL    HW238649  10.620  12.449  11.394 -3.3694  0.3485  0.0780
10682SOL     OW38650   2.601  11.485  12.508  0.3346  0.2772 -0.1245
10682SOL    HW138651   2.618  11.576  12.483  1.3486  1.0274  2.8354
10682SOL    HW238652   2.621  11.434  12.430  2.1594  2.4106 -1.1563
10683SOL     OW38653   5.730   9.643  12.628  0.4463 -0.0179 -0.6617
10683SOL    HW138654   5.749   9.596  12.547 -2.3271 -0.8999 -0.9078
10683SOL    HW238655   5.689   9.577  12.685 -0.0074  1.1870  0.4698
10684SOL     OW38656   3.903   3.406   9.001 -0.0618  0.0916  0.3753
10684SOL    HW138657   3.820   3.416   9.047 -1.0287 -2.4546 -0.5935
10684SOL    HW238658   3.935   3.320   9.029  0.1812 -0.7770 -2.2542
10685SOL     OW38659   1.730  10.296   6.849 -0.4440 -0.2343  0.8527
10685SOL    HW138660   1.703  10.205   6.833 -1.2836  0.2514 -0.7880
10685SOL    HW238661   1.822  10.289   6.873 -0.0788 -1.4516 -0.7003
10686SOL     OW38662   3.016   1.818   9.018  0.3496  0.0498 -0.0906
10686SOL    HW138663   3.010   1.799   9.112  1.1640 -0.1356 -0.0671
10686SOL    HW238664   3.106   1.847   9.005  0.0705  0.6619 -0.7192
10687SOL     OW38665   4.442   1.490   5.419  0.1408 -0.3553 -0.4454
10687SOL    HW138666   4.452   1.448   5.333 -1.8513 -1.5667 -0.1390
10687SOL    HW238667   4.404   1.423   5.475  1.1884  0.4896  1.3614
10688SOL     OW38668   9.292   5.841   9.779 -0.2338  0.2695  0.3654
10688SOL    HW138669   9.379   5.860   9.813  0.7011 -1.8236 -0.7275
10688SOL    HW238670   9.305   5.825   9.686 -1.2125 -2.9902  0.6529
10689SOL     OW38671   7.615  11.536   0.129  0.0021  0.2800 -0.6067
10689SOL    HW138672   7.537  11.563   0.179 -0.0295 -0.3769 -0.2918
10689SOL    HW238673   7.580  11.478   0.061  0.0691  1.0178 -1.2827
10690SOL     OW38674   3.207   7.318   4.685  0.5873 -0.2781 -0.0157
10690SOL    HW138675   3.284   7.333   4.740 -0.6434  1.1826  1.4690
10690SOL    HW238676   3.140   7.288   4.747 -0.6123  0.5707 -0.8621
10691SOL     OW38677   6.295   5.724  10.138 -0.4966  0.3901  0.2670
10691SOL    HW138678   6.300   5.745  10.044  0.8842 -1.3127 -0.0997
10691SOL    HW238679   6.386   5.725  10.167 -0.8738  0.4015  1.4823
10692SOL     OW38680   3.038   0.580   7.472 -0.1771  0.6818  0.5126
10692SOL    HW138681   3.028   0.504   7.415  0.3401  1.0735 -0.1110
10692SOL    HW238682   3.026   0.656   7.414 -3.4768  1.1395  1.5635
10693SOL     OW38683   8.616   1.515   4.617 -0.1762 -0.2035 -0.2493
10693SOL    HW138684   8.602   1.444   4.554 -1.1432 -0.3056  0.0738
10693SOL    HW238685   8.529   1.537   4.649  0.3763 -1.1581  2.1641
10694SOL     OW38686   6.756   9.920   9.032  0.4410 -0.1458  0.1151
10694SOL    HW138687   6.797   9.834   9.041 -1.4682 -1.0200  0.8030
10694SOL    HW238688   6.735   9.927   8.938 -1.6940 -1.5760  0.4335
10695SOL     OW38689  10.310  10.002   8.217 -0.4401 -0.5652 -0.0894
10695SOL    HW138690  10.214  10.007   8.207 -0.4830  0.4936  0.7634
10695SOL    HW238691  10.337  10.091   8.238  0.3573 -1.3811  2.8308
10696SOL     OW38692   7.681   9.444   4.693 -0.0186  0.3507  0.2420
10696SOL    HW138693   7.760   9.449   4.639 -0.9861 -1.0291 -1.4046
10696SOL    HW238694   7.645   9.532   4.692  0.0873  0.4052 -1.2662
10697SOL     OW38695  11.850   7.047   3.109 -0.4765 -0.2684 -0.2245
10697SOL    HW138696  11.876   6.984   3.042  2.2419 -1.0708  1.4490
10697SOL    HW238697  11.772   7.010   3.149 -0.6938 -1.0050 -1.2952
10698SOL     OW38698   2.316   2.278   1.381 -0.2153 -0.7556 -0.2211
10698SOL    HW138699   2.403   2.245   1.401  0.0326 -0.1651 -0.3064
10698SOL    HW238700   2.306   2.265   1.287  0.0705 -0.1629 -0.3387
10699SOL     OW38701  10.718   6.116  11.299  0.1909  0.3915 -0.0007
10699SOL    HW138702  10.763   6.156  11.225 -0.8126 -0.5259 -1.1632
10699SOL    HW238703  10.631   6.094  11.265  0.0486 -0.9719  1.1326
10700SOL     OW38704   5.442   2.241  12.113  0.4976  0.4945  0.2216
10700SOL    HW138705   5.474   2.255  12.202  1.2454  1.2713 -0.1613
10700SOL    HW238706   5.392   2.320  12.093 -1.0362 -0.3632  0.5216
10701SOL     OW38707   0.794  12.222   2.560  0.0002 -0.0812 -0.3615
10701SOL    HW138708   0.812  12.304   2.513  1.3428  0.4341  0.9543
10701SOL    HW238709   0.708  12.195   2.529 -0.2557  1.5659 -1.2085
10702SOL     OW38710   4.238   7.451   3.219  0.4744 -0.2189 -0.3062
10702SOL    HW138711   4.217   7.517   3.286 -0.9640 -0.3060 -0.6523
10702SOL    HW238712   4.153   7.424   3.185  1.1953  0.2892 -2.6459
10703SOL     OW38713   5.950  11.202   9.858 -0.3018  0.1510  0.2657
10703SOL    HW138714   6.031  11.243   9.827 -0.7632 -0.3143 -1.7660
10703SOL    HW238715   5.960  11.197   9.953  2.1570 -0.0959  0.0763
10704SOL     OW38716   4.172   3.848   6.335 -0.3027 -0.5767  0.6499
10704SOL    HW138717   4.141   3.933   6.302 -2.0510 -1.2741  0.3780
10704SOL    HW238718   4.163   3.789   6.260  0.5500 -1.0812  0.9413
10705SOL     OW38719  12.549   2.669   3.305  0.1525  0.1054 -0.1374
10705SOL    HW138720  12.628   2.645   3.257  0.3115 -1.5019  0.8519
10705SOL    HW238721  12.478   2.629   3.254  0.0116  0.9831 -0.6580
10706SOL     OW38722   2.620   3.027  11.857  0.3742  0.2886  0.9728
10706SOL    HW138723   2.641   3.051  11.947 -0.4687  2.0870  0.7374
10706SOL    HW238724   2.700   3.045  11.808  1.2745 -1.9446  1.5161
10707SOL     OW38725   3.661   9.789   2.219  0.2214  0.4153  0.5533
10707SOL    HW138726   3.636   9.697   2.211 -3.0396  1.0073  2.4382
10707SOL    HW238727   3.594   9.836   2.170  0.9966  1.8896  0.8673
10708SOL     OW38728   6.884   8.812   8.261 -0.2880  0.6445 -0.4491
10708SOL    HW138729   6.944   8.761   8.315  0.6351  1.1519 -0.9670
10708SOL    HW238730   6.830   8.747   8.216 -0.9968  0.2175  0.9862
10709SOL     OW38731   2.945   0.579  10.358 -0.3075  0.4916  0.2624
10709SOL    HW138732   3.008   0.644  10.327  0.3231  0.2167  0.9319
10709SOL    HW238733   2.865   0.598  10.310  0.0290  1.4115  0.0479
10710SOL     OW38734   8.017   9.834   3.836  0.5573 -0.1115 -0.6984
10710SOL    HW138735   8.054   9.748   3.856 -1.2516 -1.4652 -2.7395
10710SOL    HW238736   8.083   9.875   3.779  0.2375 -1.3425 -2.0132
10711SOL     OW38737  10.780   0.171   5.969  0.0195  0.2983  0.1340
10711SOL    HW138738  10.712   0.118   6.010 -0.1922  1.0729  0.7969
10711SOL    HW238739  10.733   0.229   5.909  0.2140  0.0496 -0.2701
10712SOL     OW38740   5.624   8.013  10.143 -0.3553  0.1568  0.2940
10712SOL    HW138741   5.649   8.087  10.087 -1.0135 -0.4392 -0.8257
10712SOL    HW238742   5.707   7.981  10.178  0.1372  0.2464 -0.7327
10713SOL     OW38743  11.640   7.552   0.290 -0.3942  0.3393  0.1321
10713SOL    HW138744  11.580   7.479   0.305  0.6737 -0.5244  0.2826
10713SOL    HW238745  11.585   7.630   0.301 -1.4796 -0.4180  0.3017
10714SOL     OW38746   4.404  12.143   3.831 -0.3915 -0.1678  0.4244
10714SOL    HW138747   4.404  12.139   3.926 -0.5134  0.9558  0.4872
10714SOL    HW238748   4.494  12.166   3.808 -0.9330  2.1710  0.4381
10715SOL     OW38749   8.491   8.978   4.231  0.0981 -0.3700 -0.3343
10715SOL    HW138750   8.503   8.919   4.156 -0.2295 -0.1429 -0.5644
10715SOL    HW238751   8.580   9.000   4.258  0.3262  2.0583 -2.6308
10716SOL     OW38752   4.028   3.905   8.754 -0.0206 -0.0963 -0.0171
10716SOL    HW138753   4.096   3.964   8.784  0.3959 -0.1973 -0.7581
10716SOL    HW238754   3.973   3.891   8.832  0.9725 -0.2629  0.6715
10717SOL     OW38755   0.601   6.893   6.046  0.2419  0.2700 -0.8592
10717SOL    HW138756   0.558   6.837   6.111  0.2139 -0.7048 -1.6935
10717SOL    HW238757   0.554   6.876   5.964  0.9163  0.7169 -1.3513
10718SOL     OW38758   3.386   0.194   0.141 -0.4530  0.1224  0.2410
10718SOL    HW138759   3.403   0.287   0.160  2.1681 -0.0625 -0.8138
10718SOL    HW238760   3.315   0.195   0.077 -1.3791  1.2849  1.2250
10719SOL     OW38761   6.682   2.328   2.072 -0.2240 -0.0055  0.3914
10719SOL    HW138762   6.752   2.347   2.134  0.9831 -0.0106 -0.9238
10719SOL    HW238763   6.711   2.367   1.990 -0.3694 -2.4938 -0.9484
10720SOL     OW38764  12.461   2.930  10.606 -0.1865 -0.7822  0.5935
10720SOL    HW138765  12.480   2.948  10.513  1.8495 -1.4624  0.8323
10720SOL    HW238766  12.373   2.966  10.619 -0.3146 -0.1785 -1.4573
10721SOL     OW38767  11.880  10.504   9.229  0.1866  0.0565  0.0303
10721SOL    HW138768  11.915  10.430   9.179  2.1511  0.8051  0.2183
10721SOL    HW238769  11.886  10.578   9.169 -0.5074  0.3455  0.3069
10722SOL     OW38770   8.648  10.393   7.766 -0.0100 -0.2541 -0.6596
10722SOL    HW138771   8.723  10.433   7.723 -0.5654  1.6080  0.0013
10722SOL    HW238772   8.629  10.451   7.840 -0.2779 -2.2824  0.9583
10723SOL     OW38773  12.281  10.123   0.681  0.2480  0.0126 -0.4216
10723SOL    HW138774  12.235  10.207   0.678  0.1469  0.1042  1.8840
10723SOL    HW238775  12.215  10.058   0.659 -0.4233  0.3379  0.5504
10724SOL     OW38776   0.215   6.394   8.784 -0.7807  0.0925  0.0074
10724SOL    HW138777   0.136   6.346   8.758 -0.8813  0.5855 -0.6165
10724SOL    HW238778   0.192   6.486   8.769  0.5138  0.1565 -1.8688
10725SOL     OW38779   5.918   5.039   6.140 -0.1838 -0.2900 -0.2836
10725SOL    HW138780   6.001   5.036   6.187  0.8967  0.9897 -1.9546
10725SOL    HW238781   5.890   5.130   6.147 -1.6190 -0.7592  0.4759
10726SOL     OW38782   6.336  11.039   2.938  0.1672  0.1948  0.5747
10726SOL    HW138783   6.406  11.104   2.933  0.7039 -0.4785 -2.1541
10726SOL    HW238784   6.380  10.959   2.967  0.6799 -0.3207 -1.4830
10727SOL     OW38785   5.956   7.305   3.811 -0.1453  0.3131 -0.0097
10727SOL    HW138786   6.045   7.312   3.846  0.1180  1.9815 -0.8931
10727SOL    HW238787   5.901   7.289   3.887  0.8763 -0.6475  0.5646
10728SOL     OW38788   6.624   9.292  12.768 -0.1073  0.0070 -0.3564
10728SOL    HW138789   6.620   9.205  12.730  1.1811 -0.8772  1.3970
10728SOL    HW238790   6.681   9.342  12.709  0.0970 -0.6740 -0.7422
10729SOL     OW38791  10.388   7.061  11.461 -0.2223  0.0941  0.5127
10729SOL    HW138792  10.404   7.015  11.543  1.2603 -0.0926  0.1442
10729SOL    HW238793  10.415   7.151  11.478  1.6698 -0.2891 -0.2044
10730SOL     OW38794  11.922  12.123   9.654 -0.1024  0.2204 -0.1972
10730SOL    HW138795  11.901  12.207   9.612 -2.3610  0.4443  1.2007
10730SOL    HW238796  11.937  12.064   9.580 -1.2479  1.2191 -1.2939
10731SOL     OW38797   5.497   6.095   5.890 -0.3775 -0.0460 -0.4159
10731SOL    HW138798   5.435   6.152   5.844 -0.2065  1.1846  0.7919
10731SOL    HW238799   5.445   6.052   5.958 -0.6513 -1.9308 -1.7465
10732SOL     OW38800   7.171   2.716   0.164  0.1471  0.1658 -0.5127
10732SOL    HW138801   7.239   2.723   0.097 -0.8932  1.6822 -1.4761
10732SOL    HW238802   7.174   2.624   0.191  3.4924  0.4464  0.5313
10733SOL     OW38803   0.134   6.506   0.382 -0.2073  0.3052 -0.1445
10733SOL    HW138804   0.105   6.569   0.316 -1.8510  1.8898  1.9364
10733SOL    HW238805   0.195   6.449   0.336 -0.3927  2.0182 -2.7118
10734SOL     OW38806   5.674   7.023   6.454  0.0768  0.6484  0.2292
10734SOL    HW138807   5.752   7.064   6.417 -0.1728  0.2752 -0.7387
10734SOL    HW238808   5.661   7.068   6.538  1.3906  0.6338  0.4587
10735SOL     OW38809   3.988  11.027  11.424 -0.4217 -0.7538 -0.1313
10735SOL    HW138810   4.060  10.965  11.431 -0.2742 -0.6199 -0.4238
10735SOL    HW238811   3.945  11.024  11.509 -0.0393 -0.7932  0.0607
10736SOL     OW38812   2.516   2.009  11.619  0.2311 -0.2653  0.7904
10736SOL    HW138813   2.578   2.078  11.596  1.2560 -0.6069  2.3798
10736SOL    HW238814   2.496   1.966  11.536 -0.1253  1.6498 -0.1805
10737SOL     OW38815   9.234  11.452   7.943 -0.3618  0.3208 -0.4887
10737SOL    HW138816   9.217  11.358   7.942  0.1765  0.1701  1.1748
10737SOL    HW238817   9.197  11.483   8.026 -1.4604  1.7883 -1.4758
10738SOL     OW38818   5.246   2.516   3.778  0.4839  0.0630  0.5894
10738SOL    HW138819   5.289   2.477   3.854  2.0177 -0.4378 -0.5037
10738SOL    HW238820   5.315   2.526   3.713 -0.4201  2.0779 -0.1617
10739SOL     OW38821   0.315   2.117   0.186 -0.5587 -0.1126 -0.3636
10739SOL    HW138822   0.295   2.105   0.279 -0.9633  1.1736 -0.2779
10739SOL    HW238823   0.233   2.146   0.147 -0.3400 -0.4564 -1.1025
10740SOL     OW38824   6.059   7.031  10.842 -0.0126  0.2222 -0.0613
10740SOL    HW138825   6.115   7.089  10.791  1.7331 -1.6064 -0.3379
10740SOL    HW238826   5.970   7.052  10.813  0.6106  2.1601 -0.7153
10741SOL     OW38827   6.002  12.201   6.000 -0.1127 -0.2533 -0.1948
10741SOL    HW138828   5.973  12.287   5.970 -1.1187 -0.7837 -0.8188
10741SOL    HW238829   6.037  12.216   6.087 -0.0335  0.8298 -0.4035
10742SOL     OW38830   0.707   5.380   5.636  0.0194  1.2456 -0.0642
10742SOL    HW138831   0.701   5.376   5.540  0.2304  1.2693 -0.0779
10742SOL    HW238832   0.617   5.366   5.666  0.2905 -1.2670 -0.1879
10743SOL     OW38833   1.967   1.364   4.199 -0.7910  0.0648 -0.4353
10743SOL    HW138834   1.957   1.367   4.294 -0.4230 -1.2443 -0.3340
10743SOL    HW238835   1.976   1.270   4.179  2.2548  0.4459 -1.3977
10744SOL     OW38836   0.482   0.120   6.281  0.1467 -0.0900 -0.5056
10744SOL    HW138837   0.427   0.187   6.242 -0.5662 -0.3417  0.0458
10744SOL    HW238838   0.426   0.044   6.289  0.3267 -0.1171  0.7761
10745SOL     OW38839  12.347   9.359   2.172 -0.5974 -0.0072 -0.1046
10745SOL    HW138840  12.370   9.275   2.211 -0.5121  0.3108  0.5405
10745SOL    HW238841  12.315   9.337   2.084 -0.6352 -0.7158  0.0820
10746SOL     OW38842  11.580   4.014   9.429  0.1503 -0.4081 -0.4272
10746SOL    HW138843  11.634   4.052   9.360  0.7111 -1.3499 -0.5286
10746SOL    HW238844  11.642   3.978   9.492 -0.3320  1.4303  1.1916
10747SOL     OW38845   7.945   9.433   8.399  0.3586 -0.0204  0.1976
10747SOL    HW138846   8.003   9.491   8.349  0.6590 -1.4314 -1.1473
10747SOL    HW238847   7.863   9.432   8.348 -0.3698  0.7860  1.2991
10748SOL     OW38848   5.383  10.717   9.455  0.0863  0.1720  0.0467
10748SOL    HW138849   5.300  10.670   9.461 -0.5769  0.9265 -2.1411
10748SOL    HW238850   5.445  10.653   9.420 -0.1795  0.2208 -0.5244
10749SOL     OW38851   7.603   0.545   5.660  0.3195  0.1380  0.1305
10749SOL    HW138852   7.510   0.553   5.681 -0.2767  1.2988 -2.5296
10749SOL    HW238853   7.644   0.622   5.700 -0.6839  1.9824 -2.1249
10750SOL     OW38854   1.104   4.572   4.961  0.3838  0.1509  0.3136
10750SOL    HW138855   1.167   4.633   4.924 -0.3098  0.9958  0.4771
10750SOL    HW238856   1.151   4.529   5.033  1.7416 -1.5196 -1.4696
10751SOL     OW38857  10.197  12.549   1.143  0.6228  0.1496  0.2892
10751SOL    HW138858  10.290  12.528   1.131  0.4866  0.5614 -1.9896
10751SOL    HW238859  10.151  12.469   1.117  0.3176  0.7193 -1.0297
10752SOL     OW38860  10.928   1.842   9.483 -0.5238  0.5787 -0.2972
10752SOL    HW138861  10.892   1.836   9.395 -1.4131 -1.2627  0.1551
10752SOL    HW238862  11.018   1.872   9.470 -1.1876  2.1152 -1.6728
10753SOL     OW38863  10.326  10.551   3.429  0.2016  0.1951 -0.3988
10753SOL    HW138864  10.394  10.618   3.427  0.7500 -0.3687 -1.2596
10753SOL    HW238865  10.304  10.543   3.522  1.7019  0.0090 -0.0311
10754SOL     OW38866   6.674  10.321   4.309  0.6131  0.0874  0.2476
10754SOL    HW138867   6.681  10.411   4.341  2.1652 -0.2823  1.0103
10754SOL    HW238868   6.701  10.267   4.383  0.4581 -0.9795 -0.4596
10755SOL     OW38869   7.478   7.790   6.013  0.7945  0.2536  0.0332
10755SOL    HW138870   7.507   7.831   5.931  1.8102 -0.2237  0.1386
10755SOL    HW238871   7.559   7.774   6.062  0.1810  0.8967  1.3258
10756SOL     OW38872   6.683   0.713  12.727 -0.0689 -0.1245  0.1372
10756SOL    HW138873   6.738   0.790  12.712  0.6541 -0.6229  0.2175
10756SOL    HW238874   6.627   0.738  12.801  0.9230 -0.0637  0.8890
10757SOL     OW38875   3.694  11.747   4.959 -0.6038 -0.2549 -0.1594
10757SOL    HW138876   3.673  11.662   4.996 -0.0178 -0.9471 -1.3567
10757SOL    HW238877   3.664  11.810   5.024  0.4478 -1.4034  1.4993
10758SOL     OW38878   0.264   2.156   4.226 -0.4233 -0.6021  0.1942
10758SOL    HW138879   0.265   2.061   4.209  0.6891 -0.5201 -0.2379
10758SOL    HW238880   0.206   2.165   4.302  0.6781 -1.7927  1.2215
10759SOL     OW38881   2.320   4.602   5.781 -0.1157 -0.2865 -0.3432
10759SOL    HW138882   2.260   4.528   5.769 -0.0640 -0.3950  0.0516
10759SOL    HW238883   2.402   4.571   5.744 -0.1436 -0.3619 -0.3446
10760SOL     OW38884   1.386   1.244   0.304 -0.0525 -0.1020 -0.2793
10760SOL    HW138885   1.387   1.157   0.345  0.2854 -0.4923 -1.0986
10760SOL    HW238886   1.301   1.282   0.330  1.4723  1.1302  3.7388
10761SOL     OW38887   1.893   6.843  11.619  0.0231 -0.2275  0.1420
10761SOL    HW138888   1.824   6.777  11.620  0.1177 -0.3471  1.9977
10761SOL    HW238889   1.966   6.803  11.666  0.0020  1.2296  1.5094
10762SOL     OW38890  12.210   1.216   5.776 -0.4405  0.1942  0.6282
10762SOL    HW138891  12.207   1.165   5.857  1.5841 -0.8776  0.1081
10762SOL    HW238892  12.293   1.262   5.781  0.9377 -1.7707 -1.8364
10763SOL     OW38893  12.578   2.291   7.760 -0.0686 -0.1539 -0.0424
10763SOL    HW138894  12.508   2.354   7.777 -0.3074  0.2277 -2.1198
10763SOL    HW238895  12.654   2.327   7.804 -0.6938  0.4994  0.5346
10764SOL     OW38896   7.207   3.952  10.542  0.2096 -0.0813  0.5723
10764SOL    HW138897   7.157   3.950  10.460  0.8496  1.7994  0.0915
10764SOL    HW238898   7.169   4.025  10.591  0.1731 -0.8707  1.7712
10765SOL     OW38899   3.041   2.014  10.278 -0.1690 -0.5170 -0.2717
10765SOL    HW138900   3.073   2.104  10.263 -2.6509  0.5226  0.2829
10765SOL    HW238901   2.959   2.010  10.229 -0.8021 -2.0392  0.8754
10766SOL     OW38902  10.180   7.896   2.093  0.3174  0.5779  0.0720
10766SOL    HW138903  10.180   7.865   2.003  0.7821  0.0304  0.2600
10766SOL    HW238904  10.092   7.931   2.106 -0.3874 -1.0816 -0.0050
10767SOL     OW38905   6.276   1.656   2.895  0.0008 -0.1177  0.5812
10767SOL    HW138906   6.363   1.692   2.910  0.5573 -1.0842 -0.2690
10767SOL    HW238907   6.286   1.562   2.905 -0.5367 -0.4109 -1.2966
10768SOL     OW38908   3.318   4.033   1.293 -0.4819  0.2594 -0.1974
10768SOL    HW138909   3.338   4.091   1.367 -1.5641  2.0710 -1.2381
10768SOL    HW238910   3.238   3.988   1.319 -0.9060  0.9526 -0.2676
10769SOL     OW38911   6.385   7.746  12.052  0.5814  0.7905 -0.2649
10769SOL    HW138912   6.299   7.705  12.058  0.0945  1.5941 -1.3970
10769SOL    HW238913   6.404   7.774  12.142  0.1026 -0.2399  0.1734
10770SOL     OW38914   6.615   6.149   4.554  0.0056 -0.0529  0.3187
10770SOL    HW138915   6.698   6.127   4.595  0.7671  1.2141 -0.4644
10770SOL    HW238916   6.616   6.244   4.548 -0.3481 -0.1411 -2.0126
10771SOL     OW38917   4.917   0.582   3.748  0.3752  0.6121  0.2908
10771SOL    HW138918   4.850   0.615   3.687  1.4108  0.6560 -0.8582
10771SOL    HW238919   4.995   0.572   3.694  0.5601 -2.2598  0.9128
10772SOL     OW38920   1.338   9.780   0.037 -0.4311  0.3325  0.3330
10772SOL    HW138921   1.306   9.866   0.064 -0.7001  0.7590 -1.2404
10772SOL    HW238922   1.265   9.721   0.055 -1.8710  1.1362 -2.2901
10773SOL     OW38923   2.487   0.316  10.640 -0.0656  0.6986  0.1626
10773SOL    HW138924   2.456   0.406  10.637  2.0300  1.4677 -0.0007
10773SOL    HW238925   2.519   0.299  10.551 -0.7955 -0.3694  0.0821
10774SOL     OW38926   9.058   2.205  11.993 -0.2711  0.0271  0.4886
10774SOL    HW138927   9.135   2.210  12.051  0.5143 -1.6390 -0.3499
10774SOL    HW238928   9.029   2.115  11.998  0.4673 -0.4995 -2.4351
10775SOL     OW38929  11.635   7.563   9.388 -0.2880  0.4260  0.0840
10775SOL    HW138930  11.579   7.518   9.452 -3.1193  0.2546 -2.3246
10775SOL    HW238931  11.613   7.655   9.399 -1.1159  0.3558 -0.8845
10776SOL     OW38932  12.659   6.689  10.479 -0.1322 -0.3995 -0.1421
10776SOL    HW138933  12.601   6.756  10.444 -0.3509 -0.7373 -0.4343
10776SOL    HW238934  12.683   6.636  10.403  0.0044 -0.6735  0.0909
10777SOL     OW38935   0.658   2.489   6.130  0.7323  0.3510  0.0326
10777SOL    HW138936   0.734   2.506   6.074 -0.4149  1.1809 -1.3644
10777SOL    HW238937   0.608   2.423   6.082 -0.7732  1.7991 -0.4986
10778SOL     OW38938   3.954   4.751  12.458 -0.2940  0.2324 -0.0648
10778SOL    HW138939   4.039   4.794  12.448 -0.2801  0.8723  2.2481
10778SOL    HW238940   3.920   4.744  12.369  0.0355  4.4219 -0.7305
10779SOL     OW38941   1.783  12.266  11.246  0.3180  0.1070  0.1942
10779SOL    HW138942   1.857  12.207  11.258  0.0546 -0.2307  0.1735
10779SOL    HW238943   1.720  12.216  11.195 -1.1375 -0.6880  2.5730
10780SOL     OW38944   8.551   9.844   9.784 -0.4397  0.5167  0.3898
10780SOL    HW138945   8.477   9.796   9.745 -0.9072  1.8446 -0.4374
10780SOL    HW238946   8.516   9.932   9.800  0.9698  1.1629  0.0011
10781SOL     OW38947  11.683   1.758   0.761  0.0489 -0.3669  0.8965
10781SOL    HW138948  11.651   1.682   0.711  1.2465 -1.6438  2.0018
10781SOL    HW238949  11.737   1.720   0.831  0.6416  1.5109  1.5120
10782SOL     OW38950   6.334   1.010   1.488 -0.1382  0.1520 -0.5187
10782SOL    HW138951   6.362   1.097   1.517 -1.9547  0.7475 -0.4614
10782SOL    HW238952   6.392   0.990   1.415  0.9436  0.9787  0.0679
10783SOL     OW38953  11.634   7.917   8.217  0.0332  0.5861 -0.5528
10783SOL    HW138954  11.580   7.851   8.174 -0.5610  2.0865 -2.2208
10783SOL    HW238955  11.649   7.882   8.305 -1.5664 -1.0234 -0.8624
10784SOL     OW38956  10.384  11.298   4.944 -0.0479 -0.0997 -0.4927
10784SOL    HW138957  10.456  11.325   5.001 -1.2233  0.0893  0.9698
10784SOL    HW238958  10.424  11.238   4.881  1.3583 -0.0875  0.3435
10785SOL     OW38959   4.761   3.500   7.054 -0.0225  0.0690  0.1205
10785SOL    HW138960   4.755   3.500   7.149 -3.4146 -1.0610  0.0506
10785SOL    HW238961   4.684   3.549   7.025  0.5530 -0.1875 -2.0634
10786SOL     OW38962   6.063   4.761   2.356 -0.5625 -0.0210  0.3176
10786SOL    HW138963   6.100   4.745   2.269 -2.5618 -0.1315 -0.5813
10786SOL    HW238964   6.124   4.821   2.398  0.3594  0.1880 -1.2461
10787SOL     OW38965   0.026   1.578   3.727  0.2097  0.2912 -0.0907
10787SOL    HW138966   0.061   1.647   3.782  1.0989  0.4343 -0.8171
10787SOL    HW238967  -0.019   1.624   3.656 -0.3168  0.1130  0.1223
10788SOL     OW38968  11.673   4.739   3.295  0.6112 -0.0045  0.5892
10788SOL    HW138969  11.723   4.709   3.219  1.2299 -2.0046  1.7073
10788SOL    HW238970  11.619   4.811   3.262  1.3817 -0.3492 -1.5531
10789SOL     OW38971   5.934   1.005  12.093 -0.3304 -0.1775  0.0886
10789SOL    HW138972   5.990   0.941  12.137 -1.6383 -0.7178  1.0468
10789SOL    HW238973   5.898   1.058  12.165 -1.8784 -0.5486 -0.3725
10790SOL     OW38974   8.449  11.225   3.310  0.0645  0.2310 -0.0499
10790SOL    HW138975   8.477  11.315   3.293  1.2326 -0.1468 -0.2254
10790SOL    HW238976   8.474  11.209   3.401 -0.4330  0.1922  0.0796
10791SOL     OW38977   4.904   0.377   4.810 -0.0596 -0.2792 -0.2018
10791SOL    HW138978   4.952   0.460   4.802 -1.1202  0.4780  0.8536
10791SOL    HW238979   4.929   0.342   4.895 -0.6035 -0.3811 -0.0794
10792SOL     OW38980   8.750  11.753  12.682  0.6211  0.1072  0.2570
10792SOL    HW138981   8.770  11.841  12.715 -1.5542 -0.2009  2.7714
10792SOL    HW238982   8.814  11.697  12.725  1.2535  0.2986 -0.4135
10793SOL     OW38983   4.352  12.216   3.101 -0.1052 -0.1988  0.4099
10793SOL    HW138984   4.287  12.257   3.158  2.8324  0.5974  3.5015
10793SOL    HW238985   4.388  12.143   3.152  0.5375 -1.4898 -1.7238
10794SOL     OW38986   6.295   7.353   8.008  0.8818  0.0156  0.1016
10794SOL    HW138987   6.258   7.393   8.087  0.2962 -1.1363  0.4363
10794SOL    HW238988   6.304   7.425   7.946 -0.7004  0.5604  0.4714
10795SOL     OW38989   9.025   2.633   9.749 -0.2021 -0.4369 -0.3335
10795SOL    HW138990   9.046   2.591   9.666  0.2119 -1.0895  0.1015
10795SOL    HW238991   9.108   2.672   9.779 -0.0776 -1.1919  0.3348
10796SOL     OW38992   0.340   3.797   8.725 -0.2544  0.1741 -0.2115
10796SOL    HW138993   0.420   3.812   8.775 -0.6816  1.3835  0.1470
10796SOL    HW238994   0.272   3.783   8.791 -0.3425 -0.8906 -0.5129
10797SOL     OW38995   0.012   7.611   4.766 -0.0106  0.6305 -0.3676
10797SOL    HW138996   0.007   7.686   4.826 -1.5730 -0.1975  0.6101
10797SOL    HW238997   0.085   7.632   4.708  2.6158  0.8421  2.6745
10798SOL     OW38998   7.896   4.040   1.883  0.5397  0.6614  0.1087
10798SOL    HW138999   7.985   4.069   1.863  0.7083  0.1227  0.0558
10798SOL    HW239000   7.906   3.948   1.905  0.0251  0.6624  0.3477
10799SOL     OW39001   3.497  10.000   0.001 -0.0993  0.0835 -0.0048
10799SOL    HW139002   3.527   9.915   0.031  1.9667  0.8652  0.2716
10799SOL    HW239003   3.444   9.981  -0.077 -0.5295 -1.4984  0.6464
10800SOL     OW39004   4.663  10.863   8.609  0.4688 -0.1387 -0.3790
10800SOL    HW139005   4.673  10.768   8.611 -0.1351 -0.2021 -0.3721
10800SOL    HW239006   4.729  10.895   8.671  1.3137 -0.4938 -1.0788
10801SOL     OW39007   7.988   4.574   2.534  0.4039  0.2008 -0.0883
10801SOL    HW139008   7.913   4.545   2.482  1.7191 -0.6983 -1.5558
10801SOL    HW239009   8.024   4.648   2.486 -0.1690  1.3787  1.2116
10802SOL     OW39010  10.221  10.276   3.912 -0.2141 -0.1921 -0.2727
10802SOL    HW139011  10.255  10.365   3.922 -0.3233 -0.0092 -1.4138
10802SOL    HW239012  10.247  10.231   3.993  0.7512  0.5773 -0.1420
10803SOL     OW39013   2.469   2.298   8.814  0.0639  0.0218 -0.7672
10803SOL    HW139014   2.485   2.211   8.851 -0.3906 -0.9506 -2.6983
10803SOL    HW239015   2.517   2.358   8.871 -0.8253 -1.2948  1.5120
10804SOL     OW39016   4.034   9.783   5.338  0.0897  0.0055 -0.1184
10804SOL    HW139017   4.102   9.816   5.397  0.5722 -0.9260 -0.1291
10804SOL    HW239018   4.004   9.860   5.290  0.4927  0.5827  0.5355
10805SOL     OW39019   9.393   7.145   1.480  0.3947 -0.0980  0.4722
10805SOL    HW139020   9.454   7.213   1.452  1.1861 -0.5717  0.9957
10805SOL    HW239021   9.396   7.080   1.410  0.9230 -0.3841  0.7566
10806SOL     OW39022   3.961   7.460   3.045  0.3692  0.0875 -0.0748
10806SOL    HW139023   3.943   7.511   2.966 -3.6059 -0.0610  0.5460
10806SOL    HW239024   3.935   7.517   3.117  2.6682 -0.2778  1.1428
10807SOL     OW39025   5.072   6.326   3.209  0.5646  0.9253  0.7134
10807SOL    HW139026   5.126   6.247   3.208 -0.9076 -0.1120 -0.4145
10807SOL    HW239027   5.012   6.313   3.282 -0.4202  0.4609 -0.1637
10808SOL     OW39028   0.538   9.981   6.985  1.4439  0.1167  0.0988
10808SOL    HW139029   0.459   9.933   6.963 -1.4101  3.1505  2.6752
10808SOL    HW239030   0.555  10.036   6.908  1.7540 -1.2809 -0.8685
10809SOL     OW39031   1.906   3.980   9.182 -0.1143  0.2892  0.1423
10809SOL    HW139032   1.864   3.912   9.131  0.6130  0.6099 -0.9156
10809SOL    HW239033   1.914   3.943   9.270  0.4172 -1.0595 -0.4483
10810SOL     OW39034   6.568   6.975   3.832 -0.3238 -0.8407  0.2681
10810SOL    HW139035   6.539   6.943   3.746 -1.5583  0.1424  0.2868
10810SOL    HW239036   6.606   7.061   3.815  0.3931 -1.0888  0.5795
10811SOL     OW39037   6.794  11.555   2.572  0.1036  0.5994  0.0286
10811SOL    HW139038   6.842  11.635   2.549  0.8576  0.0950 -0.1841
10811SOL    HW239039   6.767  11.518   2.488  0.7852  0.0139  0.0570
10812SOL     OW39040   2.900   6.411   3.032  0.2758  0.3165  0.1187
10812SOL    HW139041   2.892   6.330   3.082  0.3736  0.7727  0.9115
10812SOL    HW239042   2.830   6.407   2.967 -2.1442  1.1672  2.4705
10813SOL     OW39043   4.321   0.840  12.743  0.4459  0.0393  0.4425
10813SOL    HW139044   4.268   0.879  12.673  0.2213  0.5554  0.8889
10813SOL    HW239045   4.257   0.794  12.798  0.7143 -1.0183 -0.1014
10814SOL     OW39046  12.715   9.983   7.897  0.2057 -0.8727  0.2762
10814SOL    HW139047  12.787  10.037   7.866 -1.3134  1.2463  0.2417
10814SOL    HW239048  12.750   9.936   7.973  2.0294 -1.1084 -0.6588
10815SOL     OW39049   4.573   4.190   1.629  0.3014 -0.1682  0.5945
10815SOL    HW139050   4.592   4.284   1.621  2.1984 -0.6339 -0.9812
10815SOL    HW239051   4.602   4.168   1.718  0.7858  0.5621  0.6308
10816SOL     OW39052   2.567  11.286  11.661 -0.1428 -0.1919 -0.6986
10816SOL    HW139053   2.509  11.361  11.673 -0.0812 -0.1421 -0.7138
10816SOL    HW239054   2.540  11.223  11.728  0.5214  0.2812  0.0196
10817SOL     OW39055   7.358  10.356   9.200  0.0735 -0.2420 -0.2517
10817SOL    HW139056   7.413  10.278   9.211 -0.9857 -0.9592  0.1083
10817SOL    HW239057   7.386  10.395   9.117  1.4001 -0.3541  0.1248
10818SOL     OW39058   4.652   8.892   8.831  0.0443  0.0704  0.2407
10818SOL    HW139059   4.614   8.901   8.744 -0.0395  0.5410  0.3260
10818SOL    HW239060   4.594   8.830   8.876 -0.2251  0.2475  0.1408
10819SOL     OW39061   6.509  11.899   2.544  0.2818  0.0188 -0.2443
10819SOL    HW139062   6.543  11.850   2.619  1.1618  2.1079  0.8162
10819SOL    HW239063   6.415  11.882   2.544  0.5158 -1.4033  0.2349
10820SOL     OW39064   9.816   5.942   5.552  0.2202 -0.2654 -0.0084
10820SOL    HW139065   9.889   5.926   5.493  0.3144 -1.1472  0.3309
10820SOL    HW239066   9.799   6.036   5.544  0.3578 -0.3329 -1.2780
10821SOL     OW39067  11.510  11.134   2.687 -0.3002 -0.1037 -0.0408
10821SOL    HW139068  11.593  11.175   2.713 -0.2763 -0.5364  0.5852
10821SOL    HW239069  11.534  11.078   2.613 -0.3865  1.2070 -1.0998
10822SOL     OW39070   9.912   3.989   9.537 -1.0737 -0.5677  0.1381
10822SOL    HW139071   9.852   4.051   9.496  0.2097 -0.0223 -1.0035
10822SOL    HW239072   9.924   3.920   9.471 -0.1217 -0.4414  0.1679
10823SOL     OW39073   8.994  10.709  12.541 -0.3295  0.0022  0.0789
10823SOL    HW139074   8.987  10.654  12.619 -2.2889  1.0984  0.7399
10823SOL    HW239075   8.905  10.737  12.523  0.3178  1.2004 -1.5447
10824SOL     OW39076   6.268   8.133   2.432 -0.2897 -0.2393 -0.4850
10824SOL    HW139077   6.227   8.205   2.384 -1.6330 -0.0772  0.8152
10824SOL    HW239078   6.203   8.064   2.433  0.5506 -1.0590 -0.7258
10825SOL     OW39079   5.229   0.793   4.053 -0.1192  0.2297  0.5753
10825SOL    HW139080   5.272   0.711   4.030 -1.3908 -0.7397  1.5577
10825SOL    HW239081   5.177   0.816   3.975 -0.0685 -0.0926  0.4460
10826SOL     OW39082   2.421   9.982   1.171 -0.1101  0.5690  0.1178
10826SOL    HW139083   2.433   9.906   1.113 -1.1955 -0.3740  1.0861
10826SOL    HW239084   2.358  10.037   1.125  0.2920  0.6360 -0.3578
10827SOL     OW39085   1.784   1.749   9.398  0.5069  0.1558  0.4107
10827SOL    HW139086   1.759   1.657   9.407  2.4816 -0.3601  1.0672
10827SOL    HW239087   1.806   1.759   9.306  1.2592 -0.3110  0.5322
10828SOL     OW39088   5.676   8.547   0.370 -0.0122  0.0895  0.1793
10828SOL    HW139089   5.658   8.583   0.284  0.2240 -0.8789 -0.2895
10828SOL    HW239090   5.601   8.572   0.423 -0.2658  0.4983 -0.3677
10829SOL     OW39091   7.703   6.801   1.916 -0.4457 -0.3840 -0.1982
10829SOL    HW139092   7.704   6.709   1.888  0.5099 -0.3074 -0.4474
10829SOL    HW239093   7.742   6.849   1.843  0.6965 -0.0075  0.6238
10830SOL     OW39094   7.301   6.432  11.163  0.3010 -0.2925  0.0138
10830SOL    HW139095   7.274   6.352  11.118  0.8171 -0.3537 -0.1884
10830SOL    HW239096   7.236   6.443  11.233 -1.3808  0.5527 -1.5772
10831SOL     OW39097   1.493   7.281  12.175  0.3198 -0.4659  0.0540
10831SOL    HW139098   1.553   7.339  12.221 -0.6291  1.0369 -0.5240
10831SOL    HW239099   1.479   7.324  12.090 -2.0927 -0.3800  0.4327
10832SOL     OW39100  12.544   2.996  10.348  0.0565  0.1170  0.2942
10832SOL    HW139101  12.639   3.008  10.351  0.4653 -2.5409  1.7467
10832SOL    HW239102  12.531   2.924  10.285 -1.3253  2.1518 -1.9066
10833SOL     OW39103   0.896   2.055   1.903  0.0839  0.0902 -0.2520
10833SOL    HW139104   0.826   2.110   1.938  1.3844  1.4343  0.3569
10833SOL    HW239105   0.884   1.970   1.946  0.6520  1.2074  2.3568
10834SOL     OW39106   7.384   3.282  11.875 -0.4005  0.3745 -0.2471
10834SOL    HW139107   7.336   3.346  11.929 -0.5123 -0.7110  0.9883
10834SOL    HW239108   7.320   3.254  11.809 -1.6299 -1.2198  1.5135
10835SOL     OW39109   7.441  11.049   8.056  0.1075 -0.2912  0.4861
10835SOL    HW139110   7.402  11.110   8.118  1.4996  0.1041  1.0294
10835SOL    HW239111   7.516  11.012   8.103  1.6519  0.5639 -1.1859
10836SOL     OW39112   0.323  12.163   3.023 -0.2428 -0.2984  0.0262
10836SOL    HW139113   0.230  12.150   3.001  0.2750 -3.7184 -0.6869
10836SOL    HW239114   0.350  12.238   2.970 -2.5597  0.7714  0.2441
10837SOL     OW39115   1.169   7.975   7.559 -0.1001 -0.0387 -0.6295
10837SOL    HW139116   1.087   7.999   7.602  0.1808 -0.0332 -0.0929
10837SOL    HW239117   1.190   7.888   7.593  2.8882  1.9683  3.4939
10838SOL     OW39118   3.153   2.026   2.760  0.1291  0.2226 -0.4730
10838SOL    HW139119   3.067   2.005   2.724  0.3349  1.6790 -1.9256
10838SOL    HW239120   3.151   2.121   2.774  0.9075  0.0382  1.1851
10839SOL     OW39121   8.243   6.973  12.537  0.7982  0.3103  0.0495
10839SOL    HW139122   8.331   6.953  12.507  1.8723 -0.1353  3.1353
10839SOL    HW239123   8.207   6.889  12.565 -1.6713  0.0397 -3.3959
10840SOL     OW39124   1.700   4.839   0.577 -0.3696  0.1018 -0.7953
10840SOL    HW139125   1.678   4.932   0.583 -1.0381 -0.1304  0.7081
10840SOL    HW239126   1.787   4.832   0.616 -0.7669 -0.0508  0.0731
10841SOL     OW39127   5.930  11.441   4.794  0.3637 -0.0936  0.3375
10841SOL    HW139128   5.853  11.412   4.745  0.7353  0.9442 -0.9246
10841SOL    HW239129   5.993  11.370   4.785 -0.3069 -0.8122  1.1083
10842SOL     OW39130   2.713   5.346   0.412  0.8046  0.7294  0.3766
10842SOL    HW139131   2.676   5.381   0.493  0.7869  0.1893  0.6077
10842SOL    HW239132   2.807   5.343   0.428  0.6438 -1.4018  1.2163
10843SOL     OW39133   9.786  11.448   7.590  0.2963  0.4888  0.0824
10843SOL    HW139134   9.713  11.385   7.587 -0.0271  0.8108  0.9356
10843SOL    HW239135   9.770  11.506   7.516  0.5299 -0.3412 -0.6481
10844SOL     OW39136   2.526   1.273   8.564  0.3942  0.0772 -0.4280
10844SOL    HW139137   2.495   1.280   8.473 -2.3490 -0.5153  0.3700
10844SOL    HW239138   2.523   1.363   8.597 -0.2077  0.0709 -0.4569
10845SOL     OW39139   6.832   9.196   7.931 -0.4348 -0.9814 -0.4180
10845SOL    HW139140   6.804   9.286   7.949  1.5336 -0.6613  1.3959
10845SOL    HW239141   6.875   9.167   8.011  0.2510 -3.0489 -1.4472
10846SOL     OW39142   6.715  11.505   7.793 -0.3059 -0.5993  0.3326
10846SOL    HW139143   6.704  11.492   7.699 -0.0558 -2.1679  0.4912
10846SOL    HW239144   6.627  11.520   7.826 -0.4486 -0.5175 -0.0775
10847SOL     OW39145   0.503   4.289   8.528  0.2270  0.1491 -0.4684
10847SOL    HW139146   0.456   4.355   8.478 -1.1089 -1.2631 -1.1447
10847SOL    HW239147   0.469   4.205   8.497 -1.4041 -0.8633  3.3982
10848SOL     OW39148   0.580   7.269   5.168  0.2915 -0.0297  0.4816
10848SOL    HW139149   0.591   7.196   5.228  1.4073  0.2337  0.6312
10848SOL    HW239150   0.594   7.231   5.081  2.2155  0.2112  0.6397
10849SOL     OW39151   6.169   2.982   4.488 -0.3255 -0.4636 -0.1302
10849SOL    HW139152   6.093   2.930   4.462 -0.9299  0.1700  0.3529
10849SOL    HW239153   6.133   3.053   4.541  0.6897 -0.6812  0.8934
10850SOL     OW39154   8.660   1.574  10.970  0.4686  0.2817  0.1318
10850SOL    HW139155   8.747   1.534  10.970  0.1810 -0.6097  3.1132
10850SOL    HW239156   8.612   1.524  10.904  1.8644 -0.0077 -0.7183
10851SOL     OW39157   1.514   8.800   2.387  0.2499 -0.0644 -0.2280
10851SOL    HW139158   1.592   8.848   2.358  0.3388 -1.0239 -1.6655
10851SOL    HW239159   1.548   8.715   2.415 -0.2036 -0.2237 -0.1603
10852SOL     OW39160   6.932   3.243   5.578  0.0658 -0.3793 -0.2563
10852SOL    HW139161   6.865   3.184   5.611  0.5551  0.1015  1.6860
10852SOL    HW239162   6.976   3.194   5.508  1.0913 -2.7295  1.9077
10853SOL     OW39163   6.194   2.426   1.103  0.6443 -0.1211 -0.1820
10853SOL    HW139164   6.273   2.477   1.116  0.5986 -0.5196  2.0193
10853SOL    HW239165   6.122   2.488   1.112  0.6455 -0.1978  0.3704
10854SOL     OW39166   5.977   5.325   8.995 -0.7037  0.3758 -0.6218
10854SOL    HW139167   6.025   5.387   9.050 -0.0397  1.0573 -1.9324
10854SOL    HW239168   5.885   5.336   9.021 -0.3388  0.0144  0.9730
10855SOL     OW39169   6.971   1.835  12.144 -0.2885  0.3430 -0.2622
10855SOL    HW139170   6.935   1.764  12.198 -0.8899 -0.6489 -1.9076
10855SOL    HW239171   6.897   1.868  12.094  0.1382  1.6638 -0.0607
10856SOL     OW39172   2.618   2.863  11.354 -0.1911 -0.8063  0.2704
10856SOL    HW139173   2.711   2.848  11.372 -0.2521 -0.6030  0.7831
10856SOL    HW239174   2.615   2.897  11.265  0.7148  3.9923  1.8046
10857SOL     OW39175   9.461   4.392   0.571 -0.2553 -0.0355  0.0905
10857SOL    HW139176   9.463   4.482   0.539  0.8813 -0.0454  0.0929
10857SOL    HW239177   9.510   4.342   0.506 -2.3860 -1.0160 -0.8716
10858SOL     OW39178   8.525   4.902   9.568  0.0915  0.0008 -0.4647
10858SOL    HW139179   8.432   4.902   9.547  0.1106 -0.5745 -0.5654
10858SOL    HW239180   8.565   4.958   9.501 -0.3881  1.7312  0.6171
10859SOL     OW39181  12.555   0.269  11.832  0.2584  0.0257  0.5965
10859SOL    HW139182  12.648   0.249  11.821 -0.0903 -0.3324 -2.2752
10859SOL    HW239183  12.548   0.363  11.816 -0.1612 -0.3889 -2.1283
10860SOL     OW39184   3.437   0.564   9.194 -0.0152 -0.0589 -0.2560
10860SOL    HW139185   3.399   0.586   9.279 -1.1198  0.2265 -0.8029
10860SOL    HW239186   3.375   0.600   9.130  1.3837  0.7515 -1.1897
10861SOL     OW39187  11.135   8.120   0.864  0.1749  0.3583 -0.3237
10861SOL    HW139188  11.227   8.125   0.836  0.5674 -1.2924  0.5661
10861SOL    HW239189  11.102   8.040   0.824 -0.4085  0.1029  0.6505
10862SOL     OW39190   5.892  11.529   0.223  0.1314 -0.3657 -0.0973
10862SOL    HW139191   5.893  11.450   0.168  1.2937 -0.5159  0.1012
10862SOL    HW239192   5.926  11.499   0.308  0.3177  0.2950  0.0629
10863SOL     OW39193   6.015   6.866   2.274  0.2774  0.5738 -0.3059
10863SOL    HW139194   5.940   6.907   2.316 -1.2090  0.7020 -2.8662
10863SOL    HW239195   5.984   6.779   2.249  1.1802  0.4044 -0.8730
10864SOL     OW39196   8.699   7.040   1.532  0.6229  0.4584  0.3332
10864SOL    HW139197   8.741   7.125   1.516  0.4637  0.5442  0.3728
10864SOL    HW239198   8.683   7.038   1.626  1.1314  0.1513  0.4201
10865SOL     OW39199   6.200   1.333  10.663 -0.2144 -0.0534  0.2791
10865SOL    HW139200   6.184   1.249  10.621 -0.2695 -0.7009  1.5731
10865SOL    HW239201   6.257   1.313  10.737  2.9481  1.5562 -1.5045
10866SOL     OW39202  11.625   8.123   4.176 -0.2301 -0.0412 -0.2108
10866SOL    HW139203  11.544   8.093   4.218  0.5304  0.3380  1.5811
10866SOL    HW239204  11.675   8.044   4.160 -0.2521 -0.1353  0.1866
10867SOL     OW39205   6.498   8.866   9.467 -0.4526 -0.0413 -0.0476
10867SOL    HW139206   6.556   8.881   9.542 -1.3600  0.4955  0.5718
10867SOL    HW239207   6.530   8.926   9.400 -0.6409  0.7030  0.5044
10868SOL     OW39208   8.561  11.999   8.114  0.5058 -0.3518  0.5219
10868SOL    HW139209   8.574  12.008   8.209 -1.8076  0.0888  0.8748
10868SOL    HW239210   8.567  11.905   8.098  2.6219 -0.3067  0.7613
10869SOL     OW39211  11.119   7.444   4.666 -0.8590 -0.0719 -0.5175
10869SOL    HW139212  11.179   7.515   4.645 -2.1847  1.9734  1.9841
10869SOL    HW239213  11.038   7.466   4.619 -0.7094 -1.0132 -1.2472
10870SOL     OW39214   3.787  11.828   0.343 -0.1607 -0.2243  0.0698
10870SOL    HW139215   3.696  11.799   0.351 -0.2175 -0.3222 -0.8372
10870SOL    HW239216   3.815  11.797   0.256  1.0716 -1.1110  0.7443
10871SOL     OW39217   0.883   8.200   7.348 -0.4145  0.1094  0.5289
10871SOL    HW139218   0.927   8.277   7.384 -1.6907  0.3276  1.6618
10871SOL    HW239219   0.841   8.231   7.267  2.6744 -0.4409 -1.4789
10872SOL     OW39220   0.122  11.239   9.300 -0.0133 -0.1399  0.6134
10872SOL    HW139221   0.109  11.225   9.394 -0.9354 -0.4677  0.4440
10872SOL    HW239222   0.165  11.324   9.294  1.0598 -0.5976  1.3889
10873SOL     OW39223   9.795   6.114   9.371 -0.3412  0.1037 -0.2284
10873SOL    HW139224   9.764   6.191   9.418 -0.0161  0.3845 -0.4681
10873SOL    HW239225   9.840   6.149   9.294 -0.3570 -0.3309 -0.4419
10874SOL     OW39226  10.879   9.943   2.440 -0.0776  0.5571  0.1111
10874SOL    HW139227  10.943  10.000   2.396  1.6557 -2.7390 -2.0978
10874SOL    HW239228  10.896   9.956   2.533  1.0953  2.6778 -0.3337
10875SOL     OW39229   0.173  10.927   8.457  0.4798 -0.0220  0.4256
10875SOL    HW139230   0.149  10.867   8.527 -0.7389 -0.7780 -0.5915
10875SOL    HW239231   0.252  10.971   8.489  0.8756 -1.4903  1.5756
10876SOL     OW39232   8.397  10.758  10.305 -0.2948 -0.3248 -0.2120
10876SOL    HW139233   8.472  10.741  10.362  0.1723 -1.1027 -1.0332
10876SOL    HW239234   8.427  10.826  10.245 -0.1022 -0.8893 -0.7726
10877SOL     OW39235   9.082   4.607   0.378 -0.9858  0.4077 -0.1074
10877SOL    HW139236   9.066   4.662   0.455  0.9769  1.2779 -0.2623
10877SOL    HW239237   8.997   4.602   0.334 -1.7226  1.4340  1.1426
10878SOL     OW39238  11.659   5.964   3.092  0.1767 -0.2909 -0.3526
10878SOL    HW139239  11.660   5.893   3.027 -2.2453  0.6611 -1.5426
10878SOL    HW239240  11.673   6.043   3.040 -2.6033  0.5712  0.0453
10879SOL     OW39241  11.888   0.901   1.226 -0.4735  0.0725 -0.1745
10879SOL    HW139242  11.825   0.957   1.272  1.5802  0.9068  1.8107
10879SOL    HW239243  11.973   0.933   1.255  0.8630 -1.7188 -1.9037
10880SOL     OW39244   4.805   6.454   5.292 -0.1243  0.0654 -0.2215
10880SOL    HW139245   4.820   6.436   5.199 -0.7051  1.4422 -0.6007
10880SOL    HW239246   4.715   6.426   5.309 -0.0240 -0.1714 -0.0641
10881SOL     OW39247   9.440   1.005  11.964 -0.1267  0.1508 -0.4519
10881SOL    HW139248   9.530   0.983  11.985 -0.3159 -1.4043 -1.1166
10881SOL    HW239249   9.388   0.970  12.036 -0.3497 -0.7765 -1.0422
10882SOL     OW39250   2.775  12.352   3.499 -0.1101  0.0998 -0.1682
10882SOL    HW139251   2.803  12.280   3.442  1.7944  0.7506 -0.0894
10882SOL    HW239252   2.831  12.425   3.476 -2.0674  1.6591 -0.2997
10883SOL     OW39253   8.657   9.024   2.780 -0.7731  0.0957  0.6294
10883SOL    HW139254   8.699   9.104   2.810 -1.0210  0.0182  1.1872
10883SOL    HW239255   8.566   9.048   2.765 -0.8421 -0.0781  0.7734
10884SOL     OW39256   7.364   9.697   8.635 -0.4202 -0.2359  0.3189
10884SOL    HW139257   7.304   9.765   8.606  0.6186  0.8985  0.7082
10884SOL    HW239258   7.332   9.616   8.595 -1.4595  0.5534 -0.4737
10885SOL     OW39259   1.266   8.917  10.420  0.4657  0.1641 -0.5197
10885SOL    HW139260   1.176   8.908  10.451  0.1932 -1.1077 -1.6361
10885SOL    HW239261   1.317   8.927  10.500 -0.3534 -1.8994  0.3220
10886SOL     OW39262  11.023   5.716   8.852  0.1411 -0.1101  0.7511
10886SOL    HW139263  11.031   5.641   8.910 -1.6457  0.3027  1.6048
10886SOL    HW239264  11.044   5.682   8.765 -1.1536 -1.7597  1.0302
10887SOL     OW39265   7.988   8.582   0.011  0.4485 -0.4857 -0.7443
10887SOL    HW139266   8.001   8.537   0.094  2.3791  0.7646 -0.3067
10887SOL    HW239267   8.011   8.517  -0.056  0.6078 -0.9628 -0.2307
10888SOL     OW39268   6.468  10.055  12.767  0.5195  0.5448 -0.5729
10888SOL    HW139269   6.386  10.076  12.722 -0.3192  0.2407  0.7452
10888SOL    HW239270   6.501   9.976  12.723 -0.6693 -0.1872 -0.1894
10889SOL     OW39271   6.270   7.279   7.509 -0.0456  0.0182 -0.5241
10889SOL    HW139272   6.334   7.284   7.580 -0.9178  0.8523  0.2284
10889SOL    HW239273   6.189   7.312   7.547 -0.9322 -0.9843 -1.4638
10890SOL     OW39274   0.714   0.959  10.517  0.1397 -0.5304 -0.0019
10890SOL    HW139275   0.791   0.979  10.463  0.3443  0.7042  0.7132
10890SOL    HW239276   0.657   1.035  10.506  0.0059 -0.4396  1.1795
10891SOL     OW39277   0.894   3.452  10.709 -0.0389  0.1598  0.0841
10891SOL    HW139278   0.937   3.383  10.761 -1.1082 -1.0910 -0.6205
10891SOL    HW239279   0.955   3.468  10.637  0.6001  0.5736  0.7003
10892SOL     OW39280   5.797   1.730   1.200 -0.0819 -0.3720 -0.1135
10892SOL    HW139281   5.818   1.778   1.120  1.0714  1.5381  1.2588
10892SOL    HW239282   5.715   1.685   1.180  0.5112 -0.5289 -2.5744
10893SOL     OW39283  11.673   1.350   9.807 -0.5269  0.1281 -0.5033
10893SOL    HW139284  11.603   1.345   9.873  0.4837  0.8215  0.6874
10893SOL    HW239285  11.656   1.278   9.747 -1.2611 -0.7873  0.7648
10894SOL     OW39286   9.204   1.597  11.315 -0.0130  0.1283 -0.4377
10894SOL    HW139287   9.264   1.608  11.240  0.9440 -0.1620  0.2657
10894SOL    HW239288   9.248   1.533  11.371 -1.4679 -0.8419 -0.3694
10895SOL     OW39289  11.950   5.543   7.684  0.1130 -0.4712 -0.2217
10895SOL    HW139290  12.044   5.534   7.704 -0.1074 -0.4372  0.8675
10895SOL    HW239291  11.917   5.602   7.751 -0.5634  0.0817 -1.0219
10896SOL     OW39292   1.445   1.834   2.427  0.5224 -0.7575 -0.4336
10896SOL    HW139293   1.409   1.749   2.403  2.5002 -0.9571 -3.1762
10896SOL    HW239294   1.463   1.877   2.343  2.4202  1.0719  0.8069
10897SOL     OW39295  11.241   7.299   8.115 -0.1749 -0.3226  0.5306
10897SOL    HW139296  11.280   7.269   8.033  0.7548 -1.4246  1.3361
10897SOL    HW239297  11.284   7.246   8.182 -1.7140 -0.2142  1.6404
10898SOL     OW39298   4.712   3.485   1.727 -0.0336  0.8837 -0.1566
10898SOL    HW139299   4.662   3.446   1.799 -1.8562  1.8492 -0.8247
10898SOL    HW239300   4.672   3.449   1.648  1.6375  0.1964 -0.7273
10899SOL     OW39301   1.730   1.691   0.904 -0.2648  0.3364 -0.0201
10899SOL    HW139302   1.797   1.759   0.904  0.7559 -0.6165 -1.4384
10899SOL    HW239303   1.771   1.617   0.949 -0.1773 -0.4148 -1.3039
10900SOL     OW39304   1.374   0.041  11.591 -0.3558 -0.0373  0.2202
10900SOL    HW139305   1.402   0.068  11.504 -0.1691 -1.8844 -0.3414
10900SOL    HW239306   1.310   0.107  11.618 -1.3962 -0.1105 -1.8738
10901SOL     OW39307   0.178   3.196   7.114  0.2445  0.8037 -0.5406
10901SOL    HW139308   0.209   3.114   7.153 -0.4879  0.8555  0.1779
10901SOL    HW239309   0.253   3.228   7.064  0.6505 -0.1294 -0.5530
10902SOL     OW39310   3.072   2.036  10.989  0.5260  0.0376 -0.2293
10902SOL    HW139311   3.012   1.987  10.933 -0.0489 -0.8920  1.1283
10902SOL    HW239312   3.129   2.083  10.929 -0.2604 -0.6659 -1.5716
10903SOL     OW39313   3.568  10.202   4.645 -0.1357 -0.0845  0.3176
10903SOL    HW139314   3.572  10.164   4.558  0.1470  2.3079 -0.7966
10903SOL    HW239315   3.648  10.254   4.653 -0.2830 -0.0479  1.9073
10904SOL     OW39316   5.547   6.127   6.566  0.1259  0.5745  0.5501
10904SOL    HW139317   5.486   6.069   6.521 -0.1592  2.8368 -2.2543
10904SOL    HW239318   5.495   6.167   6.635 -0.8858  0.6922 -0.2641
10905SOL     OW39319  12.429   5.034   5.904 -0.0686 -0.4660  0.0794
10905SOL    HW139320  12.391   4.955   5.941 -0.0599  0.6490  2.6313
10905SOL    HW239321  12.449   5.090   5.979 -1.1702  2.4929 -1.6380
10906SOL     OW39322   8.089   1.482  10.330  0.3874 -0.1131 -0.0587
10906SOL    HW139323   8.127   1.407  10.376  0.9273  0.9585  1.3119
10906SOL    HW239324   8.024   1.516  10.391 -1.1683 -0.5331 -1.4291
10907SOL     OW39325   5.523   1.960   7.342  0.2429  0.4132  0.3886
10907SOL    HW139326   5.452   1.902   7.314 -0.6097  2.1591 -1.3178
10907SOL    HW239327   5.483   2.014   7.411  0.7798 -0.4153  1.3755
10908SOL     OW39328   0.788   4.136   1.546 -0.6070  0.2540 -0.2275
10908SOL    HW139329   0.860   4.196   1.563 -2.0410  1.4842  2.0922
10908SOL    HW239330   0.823   4.050   1.567  1.4960  0.0830 -3.6652
10909SOL     OW39331   4.542   1.302   8.548 -0.3613 -0.7559  0.1498
10909SOL    HW139332   4.613   1.287   8.485  0.6628  1.6442  0.6258
10909SOL    HW239333   4.587   1.325   8.629 -1.6941 -2.0054  1.2933
10910SOL     OW39334   0.498   7.775   6.374 -0.1730  0.4179 -0.1958
10910SOL    HW139335   0.580   7.803   6.334  0.4634  0.4380  1.0869
10910SOL    HW239336   0.432   7.835   6.339  0.7524  1.9534  0.5932
10911SOL     OW39337   8.788  12.764  10.254 -0.4045  0.6739  0.1243
10911SOL    HW139338   8.778  12.669  10.247 -0.3393  0.5518  1.3539
10911SOL    HW239339   8.732  12.800  10.185 -1.0177 -0.2443  0.1273
10912SOL     OW39340   0.117  10.188   0.883  0.9153 -0.1565  0.3773
10912SOL    HW139341   0.105  10.267   0.935  0.7423  0.0826 -0.0240
10912SOL    HW239342   0.074  10.207   0.800 -0.1178 -1.0695  0.6753
10913SOL     OW39343   2.110  12.033   3.333  0.1620 -0.0588  1.2708
10913SOL    HW139344   2.088  11.978   3.408  0.6842 -1.9940  0.0789
10913SOL    HW239345   2.041  12.016   3.269  0.5636  0.3675  0.7107
10914SOL     OW39346   1.187  10.688   8.343  0.3073 -0.8841 -0.0132
10914SOL    HW139347   1.214  10.693   8.251 -1.6804  0.1113 -0.5953
10914SOL    HW239348   1.242  10.752   8.387 -2.0599  2.3910 -1.4673
10915SOL     OW39349   3.598  10.257   8.084 -0.1497  0.6577 -0.4506
10915SOL    HW139350   3.569  10.187   8.142  0.3200 -0.6344 -1.7113
10915SOL    HW239351   3.540  10.331   8.104 -1.9751 -0.7067 -0.4672
10916SOL     OW39352   8.480   2.887  10.982  0.1996 -0.1351 -0.1747
10916SOL    HW139353   8.419   2.929  10.921 -0.0888  0.2426  0.3613
10916SOL    HW239354   8.443   2.905  11.068  1.5916  1.0071  0.2347
10917SOL     OW39355   5.584   7.408   7.415  0.0694  0.5073  0.3755
10917SOL    HW139356   5.538   7.363   7.486  2.3963  0.3043  1.8537
10917SOL    HW239357   5.559   7.360   7.336  0.9274 -2.2034  1.6446
10918SOL     OW39358   6.465   8.861   0.360 -0.6978 -0.0307 -0.1064
10918SOL    HW139359   6.404   8.865   0.434 -2.4252 -0.5369 -1.4240
10918SOL    HW239360   6.417   8.903   0.288  0.6628 -0.1564 -1.1090
10919SOL     OW39361   1.541  10.906  11.786 -0.0306 -0.2495  0.2043
10919SOL    HW139362   1.554  10.816  11.756 -1.3058 -0.7624  1.1521
10919SOL    HW239363   1.614  10.922  11.846 -1.0151 -1.4692  1.8025
10920SOL     OW39364   7.897   1.701   8.725 -0.0604  0.3705  0.0009
10920SOL    HW139365   7.962   1.744   8.669  0.3594 -1.4304 -0.9804
10920SOL    HW239366   7.938   1.694   8.811  1.5720 -1.6746 -0.8517
10921SOL     OW39367   2.178   6.820   7.431  0.0438  0.0604  0.6289
10921SOL    HW139368   2.212   6.736   7.400  0.7603 -0.7559  3.2923
10921SOL    HW239369   2.209   6.884   7.368  0.3888 -1.5479 -0.9072
10922SOL     OW39370   4.725   0.636   1.716 -0.2522  0.3719  0.0426
10922SOL    HW139371   4.800   0.576   1.715  0.0763  0.7735  0.1142
10922SOL    HW239372   4.764   0.723   1.710 -0.7663  0.5532 -0.8170
10923SOL     OW39373  10.937  10.856   6.929 -0.5331 -0.2624 -0.3678
10923SOL    HW139374  10.843  10.866   6.916 -0.7694 -0.5253  0.9648
10923SOL    HW239375  10.945  10.826   7.020  0.9448  1.8580  0.2739
10924SOL     OW39376   4.555   0.621   1.522  0.1887 -0.1036 -0.3045
10924SOL    HW139377   4.470   0.616   1.565 -0.1961 -2.1420 -1.1837
10924SOL    HW239378   4.614   0.657   1.589 -1.0895  0.1577  0.7210
10925SOL     OW39379   3.868  12.292   3.263  0.7917  0.0969 -0.1048
10925SOL    HW139380   3.816  12.305   3.184 -1.0185 -1.6303  0.7256
10925SOL    HW239381   3.846  12.367   3.319  0.9796  0.5655 -0.6478
10926SOL     OW39382   0.672   0.727   9.037 -0.2024 -0.1890 -0.4223
10926SOL    HW139383   0.692   0.656   8.976  0.5871 -2.4057  2.2619
10926SOL    HW239384   0.751   0.738   9.089 -1.0617  1.1644  0.6728
10927SOL     OW39385   7.895  12.020   9.707  0.1080 -0.0274  0.4363
10927SOL    HW139386   7.981  12.053   9.733  0.2608  0.2316 -0.3566
10927SOL    HW239387   7.835  12.052   9.775  0.5718  0.1668  0.7585
10928SOL     OW39388   6.136   4.773   7.224  0.3853  0.3207  0.3967
10928SOL    HW139389   6.049   4.763   7.263  0.2484 -1.1064 -0.2230
10928SOL    HW239390   6.120   4.819   7.142  0.1533 -0.3333  0.0713
10929SOL     OW39391   9.070   7.472   8.815 -0.2474  0.2187 -1.0357
10929SOL    HW139392   9.001   7.415   8.850  0.2932 -0.1864 -0.6206
10929SOL    HW239393   9.132   7.412   8.774  1.4148  0.2794  1.2355
10930SOL     OW39394  10.117   7.585   3.986 -0.1997  0.2042 -0.2264
10930SOL    HW139395  10.030   7.617   3.965 -0.3758  0.1170  0.3468
10930SOL    HW239396  10.173   7.616   3.915 -0.6839  0.3214 -0.5564
10931SOL     OW39397   4.490   4.002   8.269  0.4920 -0.0551  0.7885
10931SOL    HW139398   4.431   4.075   8.289  1.1475  0.3508  1.2777
10931SOL    HW239399   4.476   3.985   8.176 -1.5588 -1.0127  1.2014
10932SOL     OW39400   6.125  11.104   3.078  0.1536  0.4198  0.7794
10932SOL    HW139401   6.156  11.073   3.163  0.6934  1.0995  0.8382
10932SOL    HW239402   6.194  11.080   3.017 -1.3662 -2.4840  0.0019
10933SOL     OW39403  11.776   2.043   8.195 -0.3353 -0.1290 -0.1132
10933SOL    HW139404  11.691   2.002   8.212  0.4438 -1.6101  0.4005
10933SOL    HW239405  11.775   2.062   8.101 -1.4131  0.3387 -0.0176
10934SOL     OW39406   7.535  11.030   7.796 -0.3701 -0.3469 -0.5347
10934SOL    HW139407   7.513  11.083   7.873 -0.7939  1.8233 -2.0781
10934SOL    HW239408   7.456  11.033   7.741 -1.1206 -4.1363  0.0227
10935SOL     OW39409   6.985  12.337   6.382 -0.7967 -0.6758  0.4255
10935SOL    HW139410   7.008  12.277   6.311 -0.0755 -0.4520  0.4536
10935SOL    HW239411   6.894  12.360   6.366 -0.4402 -0.0600 -0.8618
10936SOL     OW39412   0.793  11.291  11.804  0.2006 -0.0616  0.5721
10936SOL    HW139413   0.844  11.278  11.884 -1.2694 -0.6053  1.4482
10936SOL    HW239414   0.792  11.386  11.792  0.8640 -0.0073  0.9108
10937SOL     OW39415   8.290   9.943   1.695 -0.1405  0.6489  0.2225
10937SOL    HW139416   8.325   9.903   1.775 -1.6231  1.2899  1.2426
10937SOL    HW239417   8.228   9.878   1.662  0.2366  0.5226 -0.2465
10938SOL     OW39418   9.958   8.737  12.051  0.8188 -0.3321  0.0061
10938SOL    HW139419   9.914   8.786  12.120  1.5375 -0.7983  0.8151
10938SOL    HW239420   9.928   8.646  12.064 -1.2331 -0.0374 -2.0498
10939SOL     OW39421  11.742  12.029   5.532  0.1748 -0.0335 -0.6109
10939SOL    HW139422  11.680  12.091   5.569  0.9597  0.2596  0.2506
10939SOL    HW239423  11.780  11.984   5.608  0.0745 -1.1209 -1.1920
10940SOL     OW39424   3.322   9.210   6.185 -0.3151 -0.0073 -0.5742
10940SOL    HW139425   3.265   9.192   6.260  0.6582  1.9114  0.7197
10940SOL    HW239426   3.409   9.186   6.214 -0.1576 -1.1513 -1.8679
10941SOL     OW39427   6.220   4.187   6.525  0.0966 -0.1941  0.2795
10941SOL    HW139428   6.184   4.183   6.436  1.6534 -0.9415 -0.3529
10941SOL    HW239429   6.157   4.139   6.579 -1.1092  0.6667 -0.3060
10942SOL     OW39430   4.418   4.239   4.292 -0.5400 -0.2183 -0.2193
10942SOL    HW139431   4.351   4.225   4.226  0.8418 -1.6851 -1.3853
10942SOL    HW239432   4.500   4.213   4.250  0.4276 -1.0894  2.0031
10943SOL     OW39433   1.352   4.558  11.017 -0.0827  0.1118 -0.1745
10943SOL    HW139434   1.420   4.495  10.991  0.7626  0.8256  0.2524
10943SOL    HW239435   1.400   4.631  11.055 -1.1218  0.4585  0.5275
10944SOL     OW39436   6.162  11.893   9.831 -0.2765  0.6503  0.2080
10944SOL    HW139437   6.217  11.856   9.763  0.3222  0.6462  0.6888
10944SOL    HW239438   6.075  11.858   9.813  0.4560 -2.0425  1.3443
10945SOL     OW39439   2.377   5.981  12.094  0.2608  0.5604  0.0541
10945SOL    HW139440   2.292   5.974  12.137  0.3785  2.6389  0.7572
10945SOL    HW239441   2.423   5.900  12.117 -1.7473 -0.9341 -0.9394
10946SOL     OW39442   3.796   1.994   3.923  0.5743  0.8147 -0.1405
10946SOL    HW139443   3.786   1.899   3.924  0.5847  0.8165  0.1265
10946SOL    HW239444   3.888   2.007   3.898  0.5460  0.7573 -0.2772
10947SOL     OW39445  12.592   9.360  12.265 -0.2055 -0.1757  0.0688
10947SOL    HW139446  12.633   9.282  12.228 -0.1617 -0.2276  0.2275
10947SOL    HW239447  12.570   9.413  12.189 -0.1762 -0.3143 -0.0372
10948SOL     OW39448   4.118  12.734   3.338  0.3922  0.1120 -0.0882
10948SOL    HW139449   4.148  12.822   3.317  1.0755 -0.5685 -2.3195
10948SOL    HW239450   4.197  12.684   3.356  0.1322 -0.3538 -0.1974
10949SOL     OW39451  11.734   4.932   4.338  0.2984  0.1161 -0.0335
10949SOL    HW139452  11.812   4.987   4.349  0.5906 -0.1301 -0.8634
10949SOL    HW239453  11.747   4.886   4.255  1.1707 -2.9848  1.6605
10950SOL     OW39454  11.615  10.347   7.232 -0.2570  0.0897  0.2499
10950SOL    HW139455  11.641  10.380   7.145 -1.0495  0.5938  0.1924
10950SOL    HW239456  11.680  10.280   7.252  2.0417  2.3235  0.7796
10951SOL     OW39457   3.276  12.258   3.979  0.3494  0.3168 -0.5608
10951SOL    HW139458   3.271  12.172   3.939 -1.4413 -0.3036  0.8347
10951SOL    HW239459   3.369  12.277   3.986  0.7433 -0.7841 -2.3277
10952SOL     OW39460   0.642   0.121  11.570 -0.7300  0.2089  0.2086
10952SOL    HW139461   0.653   0.117  11.665  1.7997  0.4561 -0.0080
10952SOL    HW239462   0.603   0.207  11.554  0.6618  1.0018  0.9247
10953SOL     OW39463   6.425   1.071  10.375  0.1757 -0.3833 -0.4504
10953SOL    HW139464   6.491   1.002  10.387 -0.0772 -0.5489  0.0021
10953SOL    HW239465   6.358   1.051  10.440 -0.9654 -0.9586 -1.7616
10954SOL     OW39466   6.260  12.723   4.622  0.4980 -0.5922 -0.7173
10954SOL    HW139467   6.218  12.713   4.707  0.9779 -1.1407 -0.5368
10954SOL    HW239468   6.332  12.784   4.638  0.9479 -1.1519 -0.5980
10955SOL     OW39469   0.037  11.073   6.788 -0.9983 -0.7478  0.0428
10955SOL    HW139470   0.117  11.022   6.772 -1.2513 -0.9617 -0.5821
10955SOL    HW239471   0.068  11.163   6.798 -0.5082 -1.0467  1.4856
10956SOL     OW39472   0.242   2.579   9.584  0.6554  0.0968 -0.6095
10956SOL    HW139473   0.244   2.614   9.495  0.4193  1.8836  0.0399
10956SOL    HW239474   0.156   2.605   9.618  0.1661 -1.8122 -0.3157
10957SOL     OW39475   6.991   1.126   6.026 -0.6012 -0.5418  0.2144
10957SOL    HW139476   7.008   1.218   6.003  1.7865 -1.2493 -1.1616
10957SOL    HW239477   6.926   1.131   6.096 -1.7720  2.1209 -0.9288
10958SOL     OW39478  10.589  11.559   7.014  0.3119 -0.2369 -0.3426
10958SOL    HW139479  10.663  11.500   7.024 -0.6523 -1.3223  0.6118
10958SOL    HW239480  10.559  11.545   6.924 -0.3141 -1.7166  0.0789
10959SOL     OW39481   6.306   3.881   4.540 -0.4959  0.0907 -0.0278
10959SOL    HW139482   6.303   3.934   4.619  2.9424 -0.5152  0.6553
10959SOL    HW239483   6.348   3.937   4.475  1.9227 -1.1942  0.3165
10960SOL     OW39484   6.432   9.521   5.629  0.1827 -0.4321  0.3044
10960SOL    HW139485   6.394   9.471   5.557  3.4693 -1.4982 -0.8880
10960SOL    HW239486   6.524   9.494   5.630  1.0151  2.0929  2.7589
10961SOL     OW39487  12.172  11.830   5.613  0.3178 -0.4838 -0.6082
10961SOL    HW139488  12.240  11.762   5.619 -0.2824 -0.9804  1.9162
10961SOL    HW239489  12.107  11.793   5.554  0.0555 -2.1283  0.6357
10962SOL     OW39490   7.952   5.289   3.486 -0.2128 -0.3624 -0.8631
10962SOL    HW139491   7.997   5.207   3.507 -0.5570 -0.4893 -0.6086
10962SOL    HW239492   7.884   5.263   3.424 -1.5837 -0.6125  0.6662
10963SOL     OW39493   9.936   6.514   2.395  0.2130 -0.1754 -0.1260
10963SOL    HW139494   9.888   6.592   2.424  0.3679  0.1266 -0.6837
10963SOL    HW239495   9.887   6.481   2.320  1.4778  0.7865 -1.4312
10964SOL     OW39496   1.052   7.639  11.353  0.0430  0.1113  0.3091
10964SOL    HW139497   1.141   7.618  11.382 -0.6476 -0.7983  1.9093
10964SOL    HW239498   1.029   7.569  11.292 -0.1836 -0.6729  1.2594
10965SOL     OW39499   3.686  11.126  11.916 -0.1146 -0.1125 -0.5237
10965SOL    HW139500   3.736  11.053  11.952 -0.1222  0.5719  0.9324
10965SOL    HW239501   3.700  11.198  11.977 -1.5977  0.5654 -0.9375
10966SOL     OW39502   8.062  11.438   1.115 -0.2705 -0.5748 -0.2457
10966SOL    HW139503   8.016  11.355   1.125 -0.2521 -0.4655  0.8019
10966SOL    HW239504   8.155  11.415   1.123 -0.2914 -0.3811  0.5689
10967SOL     OW39505   0.110   4.501   2.601 -0.0608 -0.0609  0.0786
10967SOL    HW139506   0.143   4.590   2.588  1.1790 -0.7652 -1.9128
10967SOL    HW239507   0.166   4.446   2.547 -0.2848 -2.2020  1.8648
10968SOL     OW39508   8.276   3.750  10.520  0.1469 -0.2872 -0.0209
10968SOL    HW139509   8.317   3.681  10.468  0.2377 -1.5666  1.6557
10968SOL    HW239510   8.228   3.703  10.588 -0.1369  1.3028  0.9307
10969SOL     OW39511   4.614   3.849   1.166 -0.0966  0.3738  0.0835
10969SOL    HW139512   4.707   3.839   1.147 -0.1748  1.2532 -0.8497
10969SOL    HW239513   4.611   3.884   1.255  0.4358 -0.1992  0.3312
10970SOL     OW39514   1.315   5.720   4.217 -0.1166  0.0849 -0.1956
10970SOL    HW139515   1.389   5.660   4.204 -1.1491 -1.0837 -0.7961
10970SOL    HW239516   1.322   5.746   4.309  0.0702 -1.3412  0.2101
10971SOL     OW39517  10.654   3.695   2.563  0.7918 -0.2587 -0.4915
10971SOL    HW139518  10.575   3.642   2.551  0.3877  0.1361  0.3365
10971SOL    HW239519  10.726   3.632   2.562  0.4445 -0.6502 -1.0064
10972SOL     OW39520   2.717   3.354  11.716 -0.4114 -0.8724  0.7156
10972SOL    HW139521   2.784   3.288  11.698 -0.2000 -0.0606 -1.8697
10972SOL    HW239522   2.661   3.353  11.639 -0.3168  2.0078  0.5122
10973SOL     OW39523   5.713   3.632   8.584  0.4044 -0.2125  0.7518
10973SOL    HW139524   5.704   3.706   8.525 -2.5925  0.6486  2.1209
10973SOL    HW239525   5.707   3.555   8.528  1.7808  0.5065 -0.4654
10974SOL     OW39526   1.031  12.724  11.933  0.0031 -0.0086  0.4503
10974SOL    HW139527   1.117  12.755  11.963 -0.3135  0.0436  1.3245
10974SOL    HW239528   1.047  12.636  11.901  0.7728  0.7361 -1.3439
10975SOL     OW39529   5.839  11.318   0.437  0.0341 -0.4375  0.1176
10975SOL    HW139530   5.918  11.277   0.472 -0.5072 -0.9392  0.8050
10975SOL    HW239531   5.782  11.244   0.416 -0.8464 -0.0670  1.0985
10976SOL     OW39532   3.921   4.737   4.172 -0.1519  0.7447 -0.0053
10976SOL    HW139533   3.877   4.657   4.200 -1.1929  1.5281  0.6639
10976SOL    HW239534   3.934   4.726   4.078  1.1502 -0.8623  0.3107
10977SOL     OW39535   9.433  10.637   7.391 -0.5963  0.3469  0.0217
10977SOL    HW139536   9.352  10.680   7.418 -1.4939  0.5314 -2.6737
10977SOL    HW239537   9.500  10.705   7.396 -0.6638  0.3299  1.7569
10978SOL     OW39538  10.654   4.966   3.971 -0.2758  0.0252  0.8618
10978SOL    HW139539  10.672   4.939   4.061 -0.8482 -0.7639  0.7480
10978SOL    HW239540  10.729   4.933   3.921 -1.3565 -2.1877  0.5839
10979SOL     OW39541  11.995   4.484   9.074  0.2770 -0.1907  0.1802
10979SOL    HW139542  11.961   4.449   9.156  0.3161 -2.2410 -0.6239
10979SOL    HW239543  11.957   4.572   9.067 -0.2208 -0.2233  2.0658
10980SOL     OW39544   7.464   6.308   4.546 -0.9586  0.0808 -0.0649
10980SOL    HW139545   7.508   6.392   4.555  0.0490 -0.4352 -0.0791
10980SOL    HW239546   7.378   6.322   4.585 -1.1791  1.4020 -0.9606
10981SOL     OW39547  11.681   4.972   4.843 -0.2545  0.3633  0.0534
10981SOL    HW139548  11.707   4.917   4.769  0.6613  1.8993 -0.8334
10981SOL    HW239549  11.741   4.948   4.913  0.2359  0.3103 -0.3743
10982SOL     OW39550   3.802  12.578  11.104  0.3029  0.6974  0.9978
10982SOL    HW139551   3.765  12.630  11.033  0.1674 -0.8800 -0.1476
10982SOL    HW239552   3.840  12.502  11.061  0.7197 -0.0397  2.5757
10983SOL     OW39553   0.282   4.222  12.510  0.2518  0.1338  0.4722
10983SOL    HW139554   0.197   4.178  12.519 -0.6978  1.2572 -1.9553
10983SOL    HW239555   0.286   4.281  12.585 -0.5060 -0.8194  1.3054
10984SOL     OW39556   7.053  11.566   7.266 -0.3119 -0.0558  0.0812
10984SOL    HW139557   6.993  11.606   7.203  1.4112  1.8456 -0.4292
10984SOL    HW239558   7.034  11.472   7.260 -2.4065  0.3646 -0.8810
10985SOL     OW39559   0.806   6.120   5.171 -0.0460 -0.0945 -0.8319
10985SOL    HW139560   0.810   6.077   5.086  0.9936 -0.8772 -0.4028
10985SOL    HW239561   0.800   6.213   5.150 -0.2008 -0.3024 -1.7532
10986SOL     OW39562   0.184   1.503   7.832  0.2092  0.4395  0.3222
10986SOL    HW139563   0.232   1.432   7.874 -0.3589  1.3032  2.6107
10986SOL    HW239564   0.246   1.542   7.772  1.1907 -0.6893  0.5627
10987SOL     OW39565   7.835   8.878   0.202 -0.0288 -0.4098 -0.0575
10987SOL    HW139566   7.862   8.962   0.239 -0.7565  0.2607 -1.0207
10987SOL    HW239567   7.917   8.837   0.174  0.2779  0.2336 -0.1151
10988SOL     OW39568   7.110   4.093   3.263 -0.3792 -0.3528 -0.0700
10988SOL    HW139569   7.181   4.149   3.294 -1.8052  0.9114  1.0807
10988SOL    HW239570   7.103   4.112   3.170  0.9889 -0.7596 -0.2763
10989SOL     OW39571   6.892   0.187   0.848 -0.9231  0.2030  0.5376
10989SOL    HW139572   6.876   0.092   0.847  0.1467 -0.0046 -0.4033
10989SOL    HW239573   6.870   0.215   0.936 -0.9404 -0.9937  0.9288
10990SOL     OW39574   5.103  10.119   1.498 -0.0409 -0.1274  0.3831
10990SOL    HW139575   5.168  10.051   1.519 -0.6760 -1.6971 -2.2220
10990SOL    HW239576   5.123  10.143   1.407 -0.5861  2.3981  0.8667
10991SOL     OW39577   4.324   9.582  10.330  0.1481 -0.0955 -0.2409
10991SOL    HW139578   4.229   9.588  10.321  0.3332  0.2461 -2.6450
10991SOL    HW239579   4.341   9.489  10.346 -0.6400  0.0458  1.5847
10992SOL     OW39580   5.967   0.595   7.095 -0.0118 -0.3919  0.2703
10992SOL    HW139581   6.030   0.632   7.157  1.0961  3.1024 -2.5249
10992SOL    HW239582   6.021   0.568   7.020 -1.5736 -0.2293 -0.9619
10993SOL     OW39583   3.826  12.044   2.969 -0.1873  0.2154  0.0014
10993SOL    HW139584   3.881  12.046   3.047 -0.5377 -0.6480  0.2828
10993SOL    HW239585   3.747  12.091   2.993  1.4933  4.1746 -1.3220
10994SOL     OW39586   5.999  10.392  10.909 -0.0372  0.4746  0.3540
10994SOL    HW139587   6.089  10.410  10.934 -0.2111  1.9263  0.0019
10994SOL    HW239588   5.959  10.478  10.898 -1.4494 -0.1447  0.4216
10995SOL     OW39589   4.424  10.093   9.724  0.5683 -0.2924 -0.0683
10995SOL    HW139590   4.386  10.008   9.744  0.6833 -0.2681  0.2495
10995SOL    HW239591   4.347  10.150   9.709  0.4416 -0.0016  1.5613
10996SOL     OW39592  11.049  12.698   3.203  0.2643  0.1267 -0.1781
10996SOL    HW139593  11.065  12.792   3.196  0.1086  0.1365 -0.3861
10996SOL    HW239594  11.118  12.658   3.149 -0.6214  0.1821 -1.3822
10997SOL     OW39595  12.330  10.522   7.014  0.4069 -0.2801 -0.4840
10997SOL    HW139596  12.380  10.517   7.096  0.7272  0.5195 -0.6167
10997SOL    HW239597  12.261  10.456   7.024 -1.3186  1.6644  1.6386
10998SOL     OW39598   5.128   9.746  12.341 -0.5820  0.2715 -0.1063
10998SOL    HW139599   5.175   9.669  12.310 -0.4064  0.5577 -0.5562
10998SOL    HW239600   5.088   9.783  12.262 -1.5205  0.0585  0.2622
10999SOL     OW39601   9.964  12.263   3.261 -0.0284  0.3189  0.4399
10999SOL    HW139602  10.017  12.314   3.200 -2.5650  1.2527 -1.1251
10999SOL    HW239603   9.936  12.326   3.328  1.3078 -0.3235  1.6632
11000SOL     OW39604   2.565  12.133   6.293  0.5976  0.6776 -0.2813
11000SOL    HW139605   2.609  12.077   6.230  0.8743  0.9097 -0.3008
11000SOL    HW239606   2.492  12.081   6.325  1.2684  0.0313  0.2377
11001SOL     OW39607  12.418   5.842   0.711 -0.3062  0.2132 -0.1366
11001SOL    HW139608  12.429   5.937   0.701 -0.6378  0.2175 -0.4934
11001SOL    HW239609  12.415   5.809   0.621  1.9428 -0.4056 -0.0259
11002SOL     OW39610   6.285   1.443   0.455 -0.5387  0.1866 -0.0535
11002SOL    HW139611   6.284   1.539   0.450  1.4902  0.2094 -1.0323
11002SOL    HW239612   6.318   1.424   0.542 -0.4798  0.3843 -0.0323
11003SOL     OW39613   2.366   6.549   5.885  0.3042  0.5038  0.0531
11003SOL    HW139614   2.433   6.485   5.862 -0.6155 -0.5725  0.3219
11003SOL    HW239615   2.372   6.556   5.981 -0.1360  0.2158  0.1018
11004SOL     OW39616  12.086   0.990   9.973 -0.0227 -0.3276  0.0468
11004SOL    HW139617  12.022   0.984  10.044  0.0283  1.1018  0.2437
11004SOL    HW239618  12.143   0.914   9.986 -1.0886 -1.0796  0.4459
11005SOL     OW39619  12.631   5.728   2.105 -0.6683  0.1007  0.0733
11005SOL    HW139620  12.558   5.783   2.135 -1.0005  0.0926 -0.6958
11005SOL    HW239621  12.590   5.659   2.054 -0.4776 -2.1649  2.7267
11006SOL     OW39622   4.814   9.579  11.653 -0.3860 -0.0769  0.3375
11006SOL    HW139623   4.831   9.491  11.620 -0.6138 -0.1902  0.5194
11006SOL    HW239624   4.754   9.618  11.589 -3.7943 -1.5473  2.3875
11007SOL     OW39625   1.341   3.492   6.026 -0.0069  0.3646  1.0119
11007SOL    HW139626   1.355   3.406   5.987 -2.0380 -0.2156  1.4948
11007SOL    HW239627   1.362   3.481   6.119 -0.1748  0.4126  1.0567
11008SOL     OW39628   5.335   0.778   5.627  0.6178  0.1708 -0.4207
11008SOL    HW139629   5.297   0.865   5.635  1.9530  0.6703  0.9469
11008SOL    HW239630   5.272   0.720   5.668 -0.8899  0.2415 -2.4532
11009SOL     OW39631   6.483   8.110   0.430  0.1121 -0.5491 -0.9270
11009SOL    HW139632   6.495   8.204   0.417  1.2675 -0.7125 -1.1620
11009SOL    HW239633   6.458   8.101   0.521 -0.5433  0.0283 -1.0444
11010SOL     OW39634  10.948  10.723   7.177 -0.2596 -0.0099 -0.1097
11010SOL    HW139635  11.026  10.730   7.231 -0.7446 -0.7498  0.7220
11010SOL    HW239636  10.938  10.629   7.161 -2.0765 -0.1608  1.4992
11011SOL     OW39637   4.877   9.291   1.109  0.1384  0.2102 -0.0133
11011SOL    HW139638   4.819   9.225   1.072  0.0269 -0.3182  1.0653
11011SOL    HW239639   4.828   9.373   1.100  0.5482  0.2741 -1.9433
11012SOL     OW39640   6.130   6.147   6.114  0.2509 -0.0770 -0.2772
11012SOL    HW139641   6.142   6.079   6.181 -0.7444  1.0864  1.1331
11012SOL    HW239642   6.041   6.179   6.127  0.7228  1.5881 -0.8314
11013SOL     OW39643   6.982   2.673   9.509  0.2186 -0.1737 -0.1221
11013SOL    HW139644   6.992   2.703   9.599  1.1012  0.7036 -0.4810
11013SOL    HW239645   6.934   2.744   9.465  2.2993  0.8051 -0.9764
11014SOL     OW39646   0.399   1.028   2.858  0.1281  0.3208  0.0224
11014SOL    HW139647   0.314   1.021   2.816 -0.3493  1.5022  0.7534
11014SOL    HW239648   0.382   1.013   2.951  0.4805  1.8503  0.3646
11015SOL     OW39649  12.381   9.701   5.063  0.1103 -0.1276  0.0014
11015SOL    HW139650  12.475   9.714   5.048  0.1049 -0.6950 -0.5503
11015SOL    HW239651  12.367   9.607   5.048 -0.4747 -0.1232  0.4864
11016SOL     OW39652   3.687   6.194   1.317 -0.0586 -0.2724  0.0068
11016SOL    HW139653   3.678   6.099   1.313 -0.4352 -0.3460  1.8846
11016SOL    HW239654   3.674   6.223   1.226 -2.7616 -1.7789 -0.1761
11017SOL     OW39655   5.989   8.900   7.733  0.1993 -0.0074 -0.2013
11017SOL    HW139656   6.074   8.882   7.772 -0.0394  1.6057  1.1573
11017SOL    HW239657   6.009   8.944   7.650  0.6808 -0.5495 -0.3757
11018SOL     OW39658   7.277   8.243   0.742  0.1076  0.2480 -0.0997
11018SOL    HW139659   7.253   8.321   0.792 -1.3738 -0.1923 -0.0631
11018SOL    HW239660   7.314   8.183   0.807  2.3121  1.2750 -0.3038
11019SOL     OW39661  12.022  12.699  10.474 -0.1943  0.1048  0.2192
11019SOL    HW139662  12.047  12.771  10.416  0.1886 -0.3236 -0.1625
11019SOL    HW239663  11.991  12.741  10.554 -1.5607  0.7361 -0.6123
11020SOL     OW39664  11.629  10.764   1.182 -0.0374  0.8268  0.1882
11020SOL    HW139665  11.667  10.756   1.094  0.5676  0.5737  0.4728
11020SOL    HW239666  11.534  10.767   1.166 -0.0247 -0.7670 -0.3734
11021SOL     OW39667   6.620  10.443   5.431  0.8648  0.2588 -0.4226
11021SOL    HW139668   6.613  10.385   5.507  0.3633  0.1277 -0.5673
11021SOL    HW239669   6.703  10.418   5.390  2.0841  1.5628  1.0974
11022SOL     OW39670   6.931   8.048   2.274  0.5915  0.2110  0.4033
11022SOL    HW139671   6.860   8.111   2.286  0.8785  0.9226 -1.3157
11022SOL    HW239672   6.887   7.969   2.243  0.4826  0.5895 -0.4648
11023SOL     OW39673   2.753   4.154   7.226  0.1612 -0.1907  0.9842
11023SOL    HW139674   2.682   4.110   7.179  0.9920  0.0070 -0.5144
11023SOL    HW239675   2.764   4.103   7.306 -2.5937  0.5928  1.9777
11024SOL     OW39676   5.688   3.095   8.719 -0.3058  0.2839 -0.6652
11024SOL    HW139677   5.729   3.160   8.776 -0.2154 -0.1821 -0.1885
11024SOL    HW239678   5.755   3.074   8.655 -0.8684  1.8276 -1.8111
11025SOL     OW39679  10.252   1.935   9.810 -0.2497  0.2010  0.1938
11025SOL    HW139680  10.272   2.012   9.757 -0.8550  0.4657  0.3449
11025SOL    HW239681  10.246   1.968   9.899 -0.1392 -0.0885  0.3108
11026SOL     OW39682   8.072   8.994   5.651 -0.0622  0.3057  0.1272
11026SOL    HW139683   8.017   9.073   5.650 -0.4954  0.0131  0.8582
11026SOL    HW239684   8.091   8.979   5.743  2.0432  0.9438 -0.1430
11027SOL     OW39685   5.085   6.192   2.044  0.2520  0.1627  0.1043
11027SOL    HW139686   5.066   6.215   2.135  1.2202 -2.1592  0.9755
11027SOL    HW239687   5.006   6.148   2.014  0.2912  0.0617  0.1483
11028SOL     OW39688   5.163   6.111   9.748  0.0209  0.3920  0.3203
11028SOL    HW139689   5.127   6.160   9.822  0.2293  0.5178  0.3397
11028SOL    HW239690   5.093   6.111   9.682 -0.4046 -0.2857  0.7694
11029SOL     OW39691  10.861  12.398   5.459  0.1373 -0.1468  0.1819
11029SOL    HW139692  10.872  12.457   5.533 -0.5607  0.2960 -0.0602
11029SOL    HW239693  10.826  12.317   5.497  1.1463 -0.4355  0.5204
11030SOL     OW39694   5.869  11.924  12.260 -0.1780 -0.2810 -0.2026
11030SOL    HW139695   5.801  11.992  12.251 -0.5570 -0.8574 -2.4103
11030SOL    HW239696   5.852  11.884  12.345 -1.6574  0.6119 -0.0424
11031SOL     OW39697   0.312   7.731   1.469 -0.0663 -0.2198  0.1825
11031SOL    HW139698   0.315   7.814   1.421 -0.7116  0.5831  1.4761
11031SOL    HW239699   0.400   7.720   1.504  0.7547 -1.4020 -2.0630
11032SOL     OW39700  12.115   0.374   7.928 -0.1154 -0.3246  0.4814
11032SOL    HW139701  12.032   0.422   7.932  0.3960  0.5492  0.8401
11032SOL    HW239702  12.093   0.291   7.886 -1.2667 -0.2922  0.9864
11033SOL     OW39703   3.018  12.175   8.419 -0.2818  0.5796  0.3938
11033SOL    HW139704   3.112  12.165   8.433 -0.6359 -0.9484  2.0448
11033SOL    HW239705   2.980  12.099   8.462 -2.0827 -0.7218 -3.0962
11034SOL     OW39706   5.377   4.634  11.499  0.0898 -0.8896 -0.7721
11034SOL    HW139707   5.449   4.574  11.481 -0.5858 -1.2870 -2.3323
11034SOL    HW239708   5.420   4.714  11.528  1.0519 -1.7704  0.3338
11035SOL     OW39709   9.455   3.551   8.974 -0.0361  0.1844 -0.6081
11035SOL    HW139710   9.509   3.627   8.994 -0.0988 -0.2493  1.4360
11035SOL    HW239711   9.447   3.551   8.878  0.0761  2.6419 -0.6715
11036SOL     OW39712   6.114  10.337   3.008 -0.5645  0.1119 -0.2488
11036SOL    HW139713   6.101  10.424   2.970 -3.0160 -0.8325 -1.8364
11036SOL    HW239714   6.026  10.299   3.010  0.1276 -1.5995  2.3510
11037SOL     OW39715   7.029   6.472   1.092 -0.6552  0.3731 -0.1953
11037SOL    HW139716   6.974   6.407   1.134 -2.9296  1.4915 -1.2873
11037SOL    HW239717   6.995   6.556   1.123  0.8246  1.1051 -0.4663
11038SOL     OW39718   2.704   8.082   1.385 -0.0137  0.5396 -0.5454
11038SOL    HW139719   2.796   8.109   1.394  0.4084 -0.6833 -1.0290
11038SOL    HW239720   2.655   8.155   1.421  1.1921  0.5144  1.2774
11039SOL     OW39721   0.362   1.416  12.275  0.5518  0.5016 -0.1018
11039SOL    HW139722   0.347   1.439  12.367 -1.7982 -1.4501  0.0914
11039SOL    HW239723   0.401   1.328  12.278  0.4104  0.3956 -0.9839
11040SOL     OW39724  12.005  12.678  11.670 -0.1862  0.2089 -0.0011
11040SOL    HW139725  12.091  12.648  11.640 -0.4394  0.7971 -1.3880
11040SOL    HW239726  11.971  12.606  11.722 -0.3202 -1.4995 -2.3044
11041SOL     OW39727   2.871   6.644   0.813 -0.1741 -0.2398  0.1454
11041SOL    HW139728   2.781   6.610   0.815  0.5656 -2.6787 -2.1097
11041SOL    HW239729   2.925   6.571   0.843  1.1893  0.3861 -0.7007
11042SOL     OW39730   8.020   2.364   6.778 -0.7626  0.5674 -0.3689
11042SOL    HW139731   8.047   2.369   6.869 -0.6060  0.7005 -0.4218
11042SOL    HW239732   8.008   2.456   6.751  0.4098  0.6019 -0.8419
11043SOL     OW39733  11.546  10.297   0.011 -0.2834 -1.0222  0.1362
11043SOL    HW139734  11.617  10.254  -0.036 -1.5728 -0.1865 -2.8657
11043SOL    HW239735  11.588  10.369   0.058  0.8051  0.8274 -3.3047
11044SOL     OW39736   8.950  10.857   6.886  0.4221 -0.0507  0.4910
11044SOL    HW139737   8.944  10.767   6.855  1.1273  0.3808 -0.9688
11044SOL    HW239738   8.861  10.877   6.918  0.0307 -0.9774  0.0162
11045SOL     OW39739  12.127  12.660   5.977  0.9304 -0.1585  0.5457
11045SOL    HW139740  12.185  12.614   5.916  0.1676  0.5426 -0.7591
11045SOL    HW239741  12.183  12.725   6.020  0.9742  1.2372 -1.4670
11046SOL     OW39742   4.482   2.187   4.367  0.1374  0.3752  0.1240
11046SOL    HW139743   4.425   2.256   4.333  0.8680  0.9933  0.1397
11046SOL    HW239744   4.561   2.192   4.313  0.6076  0.2250  0.7854
11047SOL     OW39745   1.987   6.488   4.006  0.6043  0.5590  0.2398
11047SOL    HW139746   1.977   6.577   3.972  1.9105  0.5626 -0.1943
11047SOL    HW239747   1.945   6.490   4.092 -0.6957  1.1805 -0.3757
11048SOL     OW39748   6.717  12.743  12.161  0.9048  0.2509 -0.1858
11048SOL    HW139749   6.682  12.821  12.118 -1.0694  0.6865  1.9614
11048SOL    HW239750   6.640  12.687  12.173  1.8286 -0.8937  0.5947
11049SOL     OW39751  11.155   7.291   0.847  0.3138  0.2330 -0.6395
11049SOL    HW139752  11.141   7.366   0.905  0.0945  0.4829 -1.0087
11049SOL    HW239753  11.233   7.248   0.881  0.7740  0.9589 -0.7663
11050SOL     OW39754  10.682   8.269   1.000 -0.3618  0.2614  0.5672
11050SOL    HW139755  10.734   8.194   0.970  1.9526  2.3570 -1.0995
11050SOL    HW239756  10.624   8.289   0.926 -1.5926 -0.3498  1.3363
11051SOL     OW39757  12.203   2.206   7.707 -0.7565 -0.3145 -0.3076
11051SOL    HW139758  12.264   2.279   7.720 -1.6985  0.5359 -0.5400
11051SOL    HW239759  12.146   2.209   7.783 -1.1910 -0.4212 -0.6273
11052SOL     OW39760   5.534  10.046   8.396  0.2428 -0.0864 -0.2331
11052SOL    HW139761   5.478  10.064   8.472 -1.4937  1.6267 -1.8180
11052SOL    HW239762   5.570   9.959   8.414 -0.8026 -0.1198  2.1275
11053SOL     OW39763   5.035   6.301   9.941  0.0450 -0.3664  0.8191
11053SOL    HW139764   4.974   6.374   9.932  0.0749 -0.2566  1.4241
11053SOL    HW239765   5.006   6.256  10.021  0.8571 -0.2131  1.2123
11054SOL     OW39766  11.546   4.088  10.623 -0.0335  0.2664 -0.3346
11054SOL    HW139767  11.563   4.141  10.701 -0.4971  1.7457 -1.2110
11054SOL    HW239768  11.601   4.010  10.635 -1.3386 -0.3818  2.2651
11055SOL     OW39769   1.611   0.089   2.569 -0.4714 -0.3849  0.4072
11055SOL    HW139770   1.570   0.004   2.551  1.7257 -1.1829 -1.2479
11055SOL    HW239771   1.703   0.068   2.584 -0.1772  1.5761  1.5876
11056SOL     OW39772   5.999   8.971   8.929 -0.9462 -0.4499  0.2557
11056SOL    HW139773   6.017   9.063   8.952  0.5951 -0.0929 -2.0456
11056SOL    HW239774   6.001   8.925   9.013  1.4138  1.1485  1.1943
11057SOL     OW39775   8.738   6.810   8.923  0.2483 -0.5953 -0.4127
11057SOL    HW139776   8.706   6.728   8.959  0.6122 -0.8289 -0.6148
11057SOL    HW239777   8.833   6.796   8.913  0.5323  0.2828  0.7493
11058SOL     OW39778   8.764   3.003  10.914 -0.1659  0.3049  0.0382
11058SOL    HW139779   8.750   3.025  10.822  1.1882  0.1379 -0.2324
11058SOL    HW239780   8.690   2.947  10.936  0.3258 -1.0528 -1.4619
11059SOL     OW39781   3.571  10.425   3.906 -0.7760  0.5566  0.4063
11059SOL    HW139782   3.481  10.455   3.913 -0.4002  2.0848 -0.7261
11059SOL    HW239783   3.592  10.434   3.813  0.0948 -1.1778  0.3910
11060SOL     OW39784   9.419   8.977   8.121  0.1764  0.2839  0.0607
11060SOL    HW139785   9.478   8.999   8.193 -0.2964 -1.3935  1.0162
11060SOL    HW239786   9.476   8.942   8.053  0.3405 -1.9467  1.2229
11061SOL     OW39787   2.747  11.010   9.407 -0.0511  0.2319 -0.3774
11061SOL    HW139788   2.801  10.978   9.479 -2.4420 -3.3929  0.0886
11061SOL    HW239789   2.804  11.007   9.331  2.0424  2.5533  0.9701
11062SOL     OW39790   9.348  11.616  11.165 -0.1162 -0.1519  0.3467
11062SOL    HW139791   9.334  11.689  11.105  1.7355 -0.2082 -0.2099
11062SOL    HW239792   9.387  11.657  11.243 -0.2470 -0.3857  0.5340
11063SOL     OW39793   6.951   5.196   2.856 -0.3906  0.1150  0.4012
11063SOL    HW139794   6.947   5.108   2.819  1.3628  0.1910 -0.0229
11063SOL    HW239795   6.924   5.185   2.947  0.5978 -1.0019  0.5774
11064SOL     OW39796   7.553   8.654   5.384  0.1267 -0.2643  0.2694
11064SOL    HW139797   7.616   8.725   5.374  1.2798 -1.2577  0.2048
11064SOL    HW239798   7.507   8.673   5.465 -1.2047  1.7439 -0.8711
11065SOL     OW39799   2.987   8.647   8.829 -0.4123  0.2203  0.4052
11065SOL    HW139800   3.052   8.645   8.900 -1.4805 -0.3296  1.4113
11065SOL    HW239801   2.959   8.556   8.820  0.9709 -0.0552 -1.9937
11066SOL     OW39802  10.601   3.097  12.067  0.7360  0.1110  0.0897
11066SOL    HW139803  10.525   3.090  12.124  0.0548  0.6449 -0.7332
11066SOL    HW239804  10.619   3.006  12.041  0.3995 -0.0199  0.3077
11067SOL     OW39805   3.334  11.834   8.878  0.1776 -0.4612  0.3564
11067SOL    HW139806   3.300  11.806   8.964  0.7218 -4.5524 -0.5472
11067SOL    HW239807   3.256  11.841   8.823  0.0735 -2.2545  0.1928
11068SOL     OW39808   0.796   8.543   1.358  0.2094 -0.0399 -0.4857
11068SOL    HW139809   0.762   8.513   1.274 -0.5120 -1.2313  0.2142
11068SOL    HW239810   0.810   8.463   1.409 -0.6641  0.7150  1.0181
11069SOL     OW39811   5.904   8.733  11.321  0.3062  0.1499 -0.4232
11069SOL    HW139812   5.930   8.702  11.408  0.8610  0.9359 -0.3023
11069SOL    HW239813   5.919   8.828  11.324  2.6917 -0.0972 -2.1809
11070SOL     OW39814   2.113   2.146   3.713 -0.5287  0.3043 -0.0232
11070SOL    HW139815   2.160   2.208   3.657  0.1665  0.7175  0.9898
11070SOL    HW239816   2.082   2.078   3.653  3.2120 -1.1838 -0.5566
11071SOL     OW39817  11.737   0.352  10.508  0.2286  0.5079 -0.0227
11071SOL    HW139818  11.713   0.261  10.527 -0.4419  0.5803 -0.4764
11071SOL    HW239819  11.788   0.380  10.584  1.4031 -0.5907 -0.3829
11072SOL     OW39820   4.089   2.584   9.536 -0.8428  0.0241  0.5282
11072SOL    HW139821   4.088   2.503   9.587 -2.7390 -0.3165  0.0262
11072SOL    HW239822   4.064   2.557   9.448  1.0058  0.8156 -0.3102
11073SOL     OW39823   1.976   0.775   8.341 -0.0752  0.5035 -0.4047
11073SOL    HW139824   1.924   0.813   8.270 -1.5387 -0.1054  0.2982
11073SOL    HW239825   1.911   0.751   8.407  1.3082  2.2754  1.7546
11074SOL     OW39826  10.472   8.931   5.048 -0.6186  0.0722  0.1419
11074SOL    HW139827  10.519   8.889   4.977 -0.3882  1.2224 -0.4091
11074SOL    HW239828  10.504   8.889   5.127  1.9388  1.3218 -0.1430
11075SOL     OW39829   0.231   8.328   4.913 -0.3494 -0.1434  0.8523
11075SOL    HW139830   0.274   8.368   4.837 -0.9615  2.4166  1.7818
11075SOL    HW239831   0.143   8.364   4.913 -0.1505  0.4921  3.1582
11076SOL     OW39832   4.218   8.841   1.421  0.0607  0.0739  0.2052
11076SOL    HW139833   4.202   8.928   1.458 -0.5617  0.5668 -1.1367
11076SOL    HW239834   4.130   8.807   1.402  0.3619  0.0155 -1.1596
11077SOL     OW39835   1.262   7.345   3.914  0.2625 -0.3310  0.0579
11077SOL    HW139836   1.221   7.316   3.833 -1.3758  1.4851  0.1713
11077SOL    HW239837   1.347   7.302   3.914 -0.3702 -1.7299 -1.7651
11078SOL     OW39838  12.280   1.144   7.693 -0.4188 -0.5256 -0.1902
11078SOL    HW139839  12.276   1.239   7.707 -0.0985 -0.5148 -0.1734
11078SOL    HW239840  12.199   1.111   7.733 -0.7260 -0.2194 -0.5499
11079SOL     OW39841   6.167   2.060  10.014 -0.3090 -0.1809 -0.5741
11079SOL    HW139842   6.214   2.032  10.093  0.1007  1.7377 -0.0735
11079SOL    HW239843   6.081   2.087  10.046 -1.6271 -3.0369 -1.3934
11080SOL     OW39844   8.257   1.602  10.707  0.0057  0.2913  0.2391
11080SOL    HW139845   8.171   1.579  10.742  1.1518 -0.8480  2.5397
11080SOL    HW239846   8.309   1.522  10.717  1.5752  1.2071 -0.2401
11081SOL     OW39847   3.244   0.590   2.101 -0.3467 -0.2160  0.4957
11081SOL    HW139848   3.297   0.660   2.140 -0.5398 -0.1027  0.5552
11081SOL    HW239849   3.157   0.628   2.093 -0.0712  0.1391 -1.0462
11082SOL     OW39850   3.982   0.770   6.703  0.2997 -0.1569 -0.1926
11082SOL    HW139851   4.056   0.802   6.755  1.0866 -2.1578  0.0037
11082SOL    HW239852   3.963   0.842   6.642  1.4160  0.9833  0.7516
11083SOL     OW39853   3.803  10.219  11.840 -0.2550 -0.3981 -0.6969
11083SOL    HW139854   3.819  10.163  11.764 -0.6729  1.2573 -2.0643
11083SOL    HW239855   3.851  10.299  11.821 -0.4382  0.0729  0.7643
11084SOL     OW39856   4.350   3.410  10.816 -0.1456  0.8018  0.3088
11084SOL    HW139857   4.325   3.489  10.769 -0.4528  0.5452  0.0332
11084SOL    HW239858   4.324   3.338  10.758 -0.5068  0.4800  0.8524
11085SOL     OW39859   7.369  11.353   0.043 -0.1113 -0.0422 -0.0001
11085SOL    HW139860   7.353  11.259   0.033  1.4288 -0.3995  0.6053
11085SOL    HW239861   7.388  11.384  -0.046  2.0586 -0.8903  0.1034
11086SOL     OW39862  10.382   2.234   2.092 -0.4358  0.1042 -0.0624
11086SOL    HW139863  10.351   2.257   2.005 -1.3384  0.8511  0.4372
11086SOL    HW239864  10.307   2.193   2.134 -0.6688  1.5295  1.0116
11087SOL     OW39865  11.235   3.498   9.968  0.7544 -0.1593  0.3465
11087SOL    HW139866  11.252   3.527  10.057  2.6389 -0.2887  0.0536
11087SOL    HW239867  11.145   3.465   9.971  0.2426  1.2424  1.8161
11088SOL     OW39868   2.586   1.617   5.046 -0.0564  0.8976  0.0979
11088SOL    HW139869   2.661   1.627   4.987 -0.2488 -0.1922 -0.3567
11088SOL    HW239870   2.603   1.680   5.117  1.2453  0.7203 -0.0237
11089SOL     OW39871   2.102   6.794   4.190 -0.6309 -0.4257  0.2548
11089SOL    HW139872   2.183   6.838   4.165 -1.0764 -1.3710 -3.3243
11089SOL    HW239873   2.123   6.701   4.189 -1.3356 -0.6187  1.2488
11090SOL     OW39874   2.556   3.642   0.379  0.0269  0.5246 -0.3654
11090SOL    HW139875   2.561   3.694   0.299  1.1640 -1.0258 -1.3676
11090SOL    HW239876   2.639   3.593   0.381 -0.1107  0.2853  1.5970
11091SOL     OW39877   1.867   7.168   3.119  0.5267 -0.0096 -0.3087
11091SOL    HW139878   1.815   7.087   3.123 -0.0966  0.3757 -0.3460
11091SOL    HW239879   1.956   7.141   3.139  0.4014 -0.7782 -0.7393
11092SOL     OW39880  11.418   7.711   6.176  0.3880  0.0938 -0.5682
11092SOL    HW139881  11.325   7.705   6.159  0.3498  0.5891 -0.5637
11092SOL    HW239882  11.427   7.787   6.234  0.8820  0.6454 -1.3328
11093SOL     OW39883   2.439  10.151   0.942  0.3698  0.5097  0.2291
11093SOL    HW139884   2.478  10.230   0.905 -1.0475  0.2430 -2.0054
11093SOL    HW239885   2.501  10.081   0.920 -0.0891  0.4764 -1.0246
11094SOL     OW39886   1.401  12.779   4.230 -0.3273 -0.9061 -0.2454
11094SOL    HW139887   1.358  12.704   4.188 -0.3943 -0.2667 -1.3703
11094SOL    HW239888   1.492  12.753   4.241  0.1853 -0.3714 -2.7117
11095SOL     OW39889  10.976   2.350   4.472 -0.0790 -0.9460  0.0042
11095SOL    HW139890  11.038   2.401   4.524 -0.0814  0.1495 -1.0143
11095SOL    HW239891  10.901   2.409   4.461 -0.2100 -1.2792 -0.9482
11096SOL     OW39892   2.663   0.364  12.766 -0.5268  0.3862  0.7457
11096SOL    HW139893   2.568   0.377  12.759 -0.3345  1.1952 -0.6959
11096SOL    HW239894   2.687   0.321  12.685  0.8264  3.4854 -0.6526
11097SOL     OW39895  10.709   1.756   8.566 -0.6355  0.1557 -0.0329
11097SOL    HW139896  10.651   1.753   8.489  0.4923 -1.0010 -0.8759
11097SOL    HW239897  10.771   1.684   8.552  1.3845  1.6917  0.5357
11098SOL     OW39898  11.118   2.593   6.188  0.5252  0.1350  0.2110
11098SOL    HW139899  11.143   2.531   6.257 -0.5854  1.5577  2.0010
11098SOL    HW239900  11.081   2.539   6.119 -0.3215 -1.2347  1.6720
11099SOL     OW39901   4.481  10.857   9.034 -0.0490 -0.4491  0.3328
11099SOL    HW139902   4.476  10.877   9.128 -1.9111  1.1227 -0.0528
11099SOL    HW239903   4.510  10.766   9.031 -0.5748 -0.7390  2.4480
11100SOL     OW39904  12.333   4.654   4.630  0.2442 -0.2399 -0.1514
11100SOL    HW139905  12.278   4.600   4.687 -0.7884  0.3457 -0.5504
11100SOL    HW239906  12.402   4.596   4.600 -0.0839 -0.9718  0.4764
11101SOL     OW39907   5.043   1.386  12.106  0.7565 -0.2186  0.3687
11101SOL    HW139908   5.080   1.438  12.178  0.2779  0.6546 -0.0049
11101SOL    HW239909   4.954   1.420  12.096  1.8962  2.2522 -3.0129
11102SOL     OW39910   1.624   5.948  12.109  0.0924 -0.3747 -0.0806
11102SOL    HW139911   1.679   5.930  12.033 -1.6277 -2.1957 -0.9757
11102SOL    HW239912   1.684   5.985  12.174  1.6362  1.2529 -2.2598
11103SOL     OW39913   9.758   2.953   2.426  0.7086 -0.0522 -0.0097
11103SOL    HW139914   9.758   2.876   2.484  4.0537 -0.1477  0.0448
11103SOL    HW239915   9.816   2.928   2.354  1.4612  2.2421 -0.2528
11104SOL     OW39916   2.932   3.746   6.637  0.3962 -0.5002  0.4960
11104SOL    HW139917   2.884   3.664   6.627 -1.6079  0.5103  1.3240
11104SOL    HW239918   2.963   3.767   6.549 -2.1227 -0.4054 -0.4490
11105SOL     OW39919  10.893  10.217  10.754  0.6521  0.3676 -0.0275
11105SOL    HW139920  10.825  10.213  10.822 -0.6369 -0.5233 -1.3073
11105SOL    HW239921  10.920  10.126  10.742  1.4304  0.6113 -0.1763
11106SOL     OW39922   1.008   3.442  10.085  0.3437  0.4275  0.2479
11106SOL    HW139923   1.041   3.419   9.998 -0.7614  0.9385 -0.3298
11106SOL    HW239924   0.999   3.358  10.130  0.0344  0.0656 -0.4713
11107SOL     OW39925   1.369   0.194   7.206 -0.2651 -0.3951 -0.2288
11107SOL    HW139926   1.383   0.114   7.156  1.8183 -0.8437  0.9554
11107SOL    HW239927   1.432   0.189   7.278 -0.8872  1.7623  0.5490
11108SOL     OW39928   0.709  11.681   3.911 -0.5245  0.3403  0.0744
11108SOL    HW139929   0.732  11.590   3.893  0.1895  0.4450  0.4182
11108SOL    HW239930   0.616  11.688   3.888 -0.3544 -0.2356 -0.8322
11109SOL     OW39931   1.965   1.211   1.529  0.3599  0.2255 -0.3597
11109SOL    HW139932   1.910   1.287   1.550 -1.1372 -1.4231  2.3463
11109SOL    HW239933   1.925   1.173   1.451 -0.2922  0.9393 -0.3850
11110SOL     OW39934   4.472   1.778  11.236  0.3867  0.3853  0.5459
11110SOL    HW139935   4.402   1.744  11.292 -0.7099 -1.0980 -1.6209
11110SOL    HW239936   4.551   1.770  11.289 -0.6876 -0.3362  2.1060
11111SOL     OW39937   2.500   7.580   1.246 -0.1891 -0.4590  0.0201
11111SOL    HW139938   2.529   7.543   1.329  1.4680  1.4738  0.3939
11111SOL    HW239939   2.582   7.602   1.200 -1.0660  0.7229 -1.0520
11112SOL     OW39940   5.709   1.327  10.653 -0.5707  0.0866 -0.2174
11112SOL    HW139941   5.711   1.336  10.558 -0.2303 -0.4139 -0.2596
11112SOL    HW239942   5.656   1.249  10.669  0.8980 -0.9400 -0.0895
11113SOL     OW39943   4.884  11.313   9.831  0.1673 -0.4700  0.1422
11113SOL    HW139944   4.792  11.321   9.857  0.7444 -1.2563  2.7947
11113SOL    HW239945   4.899  11.389   9.774 -2.2423 -0.6924 -0.9210
11114SOL     OW39946   1.315  12.606  11.730 -0.1720  0.4778  0.0763
11114SOL    HW139947   1.350  12.669  11.793  0.4708  0.7268 -0.5207
11114SOL    HW239948   1.292  12.660  11.653 -1.8657  0.3325  0.4358
11115SOL     OW39949   7.397   3.649   8.147  0.2799 -0.7996 -0.3998
11115SOL    HW139950   7.336   3.584   8.111  0.4691 -0.6877 -0.9327
11115SOL    HW239951   7.454   3.599   8.205 -0.1808 -0.9432 -0.0689
11116SOL     OW39952   5.371  12.616  10.399 -0.5062 -0.0027  0.2470
11116SOL    HW139953   5.350  12.580  10.313 -0.2223  0.9955 -0.2481
11116SOL    HW239954   5.358  12.710  10.390  2.6019  0.5326  0.3258
11117SOL     OW39955  10.470   0.852   6.806  0.1698  0.2646  0.1013
11117SOL    HW139956  10.549   0.824   6.853  0.0816  2.7432  1.9252
11117SOL    HW239957  10.487   0.829   6.715  3.5024  1.5581  0.2397
11118SOL     OW39958   3.248   7.452   5.822 -0.6242  0.1723 -0.6254
11118SOL    HW139959   3.208   7.365   5.828 -0.0758 -0.0903 -0.7934
11118SOL    HW239960   3.279   7.458   5.732  1.8447 -0.5630  0.1148
11119SOL     OW39961   0.805   7.345   5.328  0.0214  0.2795 -0.1683
11119SOL    HW139962   0.801   7.437   5.355 -0.9354 -0.6354  3.2744
11119SOL    HW239963   0.768   7.346   5.239 -0.1958  3.1677 -0.1684
11120SOL     OW39964  11.902   7.341   6.714  0.0616 -0.2091  0.0252
11120SOL    HW139965  11.979   7.394   6.694 -0.8323  1.7257  1.3451
11120SOL    HW239966  11.935   7.272   6.772  0.8855  0.3193  0.1985
11121SOL     OW39967   9.675  10.038   4.923  0.7083 -0.4387  0.0797
11121SOL    HW139968   9.658  10.086   4.842  3.3619 -0.9094 -0.8378
11121SOL    HW239969   9.616   9.962   4.919  1.2168 -0.7682 -1.7179
11122SOL     OW39970  11.977   1.208   8.402  0.7644  0.0705  0.2669
11122SOL    HW139971  11.962   1.275   8.469 -1.8034 -0.3096  0.1842
11122SOL    HW239972  11.938   1.244   8.323 -1.0343 -1.6157  0.3145
11123SOL     OW39973   4.775   2.383   1.302  0.1895  0.1592  0.1041
11123SOL    HW139974   4.826   2.353   1.377 -1.0412  0.9815  1.3255
11123SOL    HW239975   4.778   2.479   1.308  1.3624  0.3069 -1.8400
11124SOL     OW39976   8.306  10.908   2.764 -0.1161 -0.1318 -0.4296
11124SOL    HW139977   8.260  10.992   2.769  1.9933  1.0142  0.9913
11124SOL    HW239978   8.265  10.863   2.690 -2.2269  1.5486 -0.3820
11125SOL     OW39979  11.071   4.565   9.155 -0.9588  0.2681  0.0155
11125SOL    HW139980  11.131   4.639   9.170 -1.0462  0.1272  1.1646
11125SOL    HW239981  11.110   4.493   9.204 -0.4669 -0.6886 -1.7335
11126SOL     OW39982   8.360  11.552  11.730  0.9125 -0.5994 -0.0064
11126SOL    HW139983   8.269  11.537  11.704  1.0564 -0.1125 -0.8502
11126SOL    HW239984   8.371  11.647  11.724  1.2849 -0.5791  0.7822
11127SOL     OW39985   3.863   3.388   9.366 -0.0252  0.3588  0.6195
11127SOL    HW139986   3.872   3.311   9.310  2.0192  1.0518 -0.1067
11127SOL    HW239987   3.792   3.438   9.326  0.3313  0.0644 -0.4374
11128SOL     OW39988   8.364   6.500  11.469  0.2535  0.5537  0.8092
11128SOL    HW139989   8.326   6.582  11.436 -1.0911  0.2421  1.5075
11128SOL    HW239990   8.371   6.444  11.393 -3.8442 -0.5587  1.0500
11129SOL     OW39991   0.463   2.386  10.134 -0.9713 -0.1780  0.4429
11129SOL    HW139992   0.509   2.318  10.086 -0.7135  0.9107 -0.9245
11129SOL    HW239993   0.370   2.368  10.118 -0.9461 -0.8158  0.9813
11130SOL     OW39994   9.999   2.455   3.419  0.3408  0.2655 -0.1145
11130SOL    HW139995   9.912   2.495   3.429 -0.3767 -1.2902  0.1477
11130SOL    HW239996  10.003   2.388   3.488  1.3747 -0.3337 -0.7306
11131SOL     OW39997   6.049  10.352   1.447  0.1271 -0.1512  0.0218
11131SOL    HW139998   5.967  10.312   1.475  0.2388  0.8306  1.9016
11131SOL    HW239999   6.115  10.316   1.506  0.8711 -0.0932 -0.7578
11132SOL     OW40000   1.177   5.935  11.231  0.0744 -0.3267  0.2233
11132SOL    HW140001   1.250   5.945  11.170  0.7958 -1.3323  0.8775
11132SOL    HW240002   1.121   6.011  11.215  0.4142 -0.3876 -1.4351
11133SOL     OW40003   6.889   3.959   1.946 -0.0950 -0.2444  0.2233
11133SOL    HW140004   6.819   4.023   1.931  1.3263  1.8186  1.8258
11133SOL    HW240005   6.876   3.929   2.036  1.0241  0.1408  0.5326
11134SOL     OW40006   1.261  10.801   4.732 -0.3086  0.4686  0.5210
11134SOL    HW140007   1.204  10.837   4.664  1.0645  0.0495 -0.9121
11134SOL    HW240008   1.312  10.734   4.687  1.2992  0.8245  1.7477
11135SOL     OW40009   0.135   1.589   3.381 -0.2979  0.0164 -0.2185
11135SOL    HW140010   0.174   1.519   3.433  0.4809  0.5607 -0.0655
11135SOL    HW240011   0.134   1.665   3.439  0.2213  0.5284 -0.8581
11136SOL     OW40012  10.272  12.259  10.447  0.2200  0.2384  0.2853
11136SOL    HW140013  10.196  12.295  10.492  0.4228  0.8790  0.1249
11136SOL    HW240014  10.329  12.334  10.432 -0.4460  0.3465 -2.2667
11137SOL     OW40015   9.595  10.666  12.175 -0.4587 -0.0319 -0.3889
11137SOL    HW140016   9.600  10.664  12.079  0.4490 -0.0375 -0.3495
11137SOL    HW240017   9.535  10.737  12.194 -0.0311  0.4923 -0.9545
11138SOL     OW40018  11.107  12.617   0.507  0.2819  0.0679  0.0042
11138SOL    HW140019  11.047  12.610   0.432 -0.4866 -1.6047  0.7211
11138SOL    HW240020  11.177  12.676   0.476 -1.6432  2.0434 -0.8981
11139SOL     OW40021   6.547  11.770   3.960 -0.1716  0.4332 -0.1647
11139SOL    HW140022   6.505  11.855   3.976  0.0894  0.6938 -0.7902
11139SOL    HW240023   6.555  11.766   3.864  1.8542  0.7173 -0.0590
11140SOL     OW40024  12.461   5.937  10.642  0.3403 -0.6484  0.0877
11140SOL    HW140025  12.379   5.891  10.624  0.6972 -0.9906 -0.6884
11140SOL    HW240026  12.440   5.994  10.716 -0.0398 -2.2625  1.2896
11141SOL     OW40027   6.956   6.756   1.167 -0.1658  0.2870 -0.2243
11141SOL    HW140028   6.875   6.774   1.215  0.7925  0.9622  1.1981
11141SOL    HW240029   6.949   6.810   1.088  0.4065  3.1779  1.5447
11142SOL     OW40030   6.524  10.450  12.433 -0.0708 -0.7418  0.1592
11142SOL    HW140031   6.591  10.384  12.452 -0.9890 -2.0434 -0.9859
11142SOL    HW240032   6.446  10.419  12.479 -0.3095 -0.0213  0.2548
11143SOL     OW40033  12.061   5.459   1.359 -0.3116  0.5299 -0.3711
11143SOL    HW140034  12.081   5.451   1.266  0.1560 -0.3327 -0.2077
11143SOL    HW240035  12.017   5.377   1.381  2.4708 -0.7610  0.8558
11144SOL     OW40036   7.838   4.666   8.206  0.0277 -0.4208 -0.0371
11144SOL    HW140037   7.804   4.576   8.210 -1.2522  0.0401 -0.0254
11144SOL    HW240038   7.804   4.700   8.124 -0.1579  0.3005  0.3319
11145SOL     OW40039   1.908   0.152   2.344 -0.2048  0.3629 -0.1579
11145SOL    HW140040   1.881   0.106   2.264 -0.5407  0.6902 -0.2363
11145SOL    HW240041   1.989   0.109   2.370 -0.3045 -0.0097 -0.4542
11146SOL     OW40042   0.375  11.416  10.180 -0.1375  0.0873 -0.2945
11146SOL    HW140043   0.390  11.485  10.245 -1.0370 -0.7692  0.8752
11146SOL    HW240044   0.280  11.403  10.180  0.0514 -1.5039 -0.0745
11147SOL     OW40045   1.866  12.129  11.901 -0.5846 -0.1367  0.3005
11147SOL    HW140046   1.872  12.034  11.912 -1.1770 -0.2108 -0.0243
11147SOL    HW240047   1.873  12.143  11.807  0.7968  0.2419  0.4411
11148SOL     OW40048   8.082  11.822   0.252  0.1512 -0.1256  0.2284
11148SOL    HW140049   8.013  11.759   0.233 -0.1277  0.5861 -1.2481
11148SOL    HW240050   8.122  11.841   0.167 -0.1029  2.0447  0.5203
11149SOL     OW40051  10.148   9.992   2.881 -0.5759  0.2283  0.6062
11149SOL    HW140052  10.192  10.073   2.854 -1.6504  0.4245 -0.6491
11149SOL    HW240053  10.116   9.953   2.800 -1.6155 -0.5470  1.3548
11150SOL     OW40054  11.213  10.105   6.859  0.5921 -0.3296 -0.5787
11150SOL    HW140055  11.200  10.106   6.953 -0.7061  1.4427 -0.7297
11150SOL    HW240056  11.169  10.026   6.829  2.6955 -2.0006  0.4350
11151SOL     OW40057  12.161   1.020   8.520 -0.0214  0.0085  0.5213
11151SOL    HW140058  12.236   1.054   8.471  0.0465 -0.3398  0.3756
11151SOL    HW240059  12.085   1.066   8.483 -0.0566 -0.7607 -0.4216
11152SOL     OW40060   0.704   3.840   2.728  0.1458  0.4672 -0.0711
11152SOL    HW140061   0.637   3.798   2.782  1.1483 -1.6069 -0.3697
11152SOL    HW240062   0.672   3.930   2.716 -1.3989  0.2236  1.7447
11153SOL     OW40063   8.837   4.876   3.756 -0.3969  0.2081  0.0791
11153SOL    HW140064   8.835   4.966   3.721 -1.7940 -0.3749 -1.4632
11153SOL    HW240065   8.746   4.857   3.777 -0.2367 -1.1471 -0.3977
11154SOL     OW40066   7.427   3.828   3.736 -0.1787 -0.3633 -0.3948
11154SOL    HW140067   7.501   3.784   3.777  0.1417  0.2002 -0.3635
11154SOL    HW240068   7.466   3.901   3.688 -0.7361  0.0656 -0.2023
11155SOL     OW40069   9.694   7.940   4.871 -0.3836  0.1094  0.0548
11155SOL    HW140070   9.734   7.918   4.787 -0.0288  0.4657  0.1292
11155SOL    HW240071   9.649   7.859   4.898 -1.0744  0.1890 -0.7987
11156SOL     OW40072   6.450  11.270  10.062  0.3837 -0.2913  0.1379
11156SOL    HW140073   6.449  11.365  10.056  1.1579 -0.3594 -1.8833
11156SOL    HW240074   6.416  11.240   9.977  2.5918 -1.7815 -0.3126
11157SOL     OW40075   7.318   4.869   3.770 -0.0820 -0.1055 -0.2530
11157SOL    HW140076   7.385   4.842   3.833  0.0277 -1.6495 -0.9795
11157SOL    HW240077   7.296   4.788   3.723 -0.2983  0.9515 -2.0445
11158SOL     OW40078   7.954   9.251   5.366 -0.0858 -0.0903 -0.0695
11158SOL    HW140079   7.892   9.210   5.306 -0.5921  0.8167 -0.1865
11158SOL    HW240080   7.923   9.226   5.453 -0.7767  0.5661 -0.1202
11159SOL     OW40081   5.337   9.023  12.284 -0.1231 -0.2847  0.3623
11159SOL    HW140082   5.328   9.100  12.339 -0.1283  0.8272 -1.1359
11159SOL    HW240083   5.354   9.057  12.196 -1.1234 -1.9496 -0.5425
11160SOL     OW40084  11.501  11.425   5.608  0.0635  0.7904  0.2180
11160SOL    HW140085  11.411  11.432   5.639 -0.1405 -0.5320  0.0065
11160SOL    HW240086  11.534  11.515   5.607 -1.3069  1.3095  0.1296
11161SOL     OW40087   5.211   1.548   8.944  0.0336  0.1984 -0.4559
11161SOL    HW140088   5.143   1.506   8.996  2.0217 -0.4843  1.7622
11161SOL    HW240089   5.184   1.534   8.853 -3.6313  1.5049  0.2506
11162SOL     OW40090   3.119  12.138   9.654  0.3374  0.0508  0.1316
11162SOL    HW140091   3.161  12.223   9.662  0.4949  0.0034 -0.1524
11162SOL    HW240092   3.171  12.092   9.587  1.3546 -0.9148  1.5257
11163SOL     OW40093  12.604   6.375  11.804 -0.0308  0.7388 -0.2007
11163SOL    HW140094  12.683   6.420  11.835 -0.6832  0.3777  2.1943
11163SOL    HW240095  12.552   6.444  11.762  0.4829  1.5082  0.3920
11164SOL     OW40096   0.120   9.187   6.548  0.1814  0.1696 -0.5109
11164SOL    HW140097   0.146   9.260   6.491  2.2275 -0.5875 -0.6268
11164SOL    HW240098   0.135   9.219   6.636  1.2894 -0.1640 -0.5687
11165SOL     OW40099   3.692   4.515   8.201  0.7189 -0.2758  0.5524
11165SOL    HW140100   3.752   4.501   8.128  1.6371  0.9826  1.0282
11165SOL    HW240101   3.612   4.470   8.175  0.9750  0.2468 -1.2885
11166SOL     OW40102  11.223   5.773   7.311  0.9237 -0.1099 -0.3200
11166SOL    HW140103  11.280   5.817   7.375  0.5366  0.3377 -0.2809
11166SOL    HW240104  11.178   5.844   7.265  1.4313 -0.4040 -1.3210
11167SOL     OW40105   2.799   5.595   7.767 -0.0927  0.2751 -0.1587
11167SOL    HW140106   2.848   5.578   7.686  2.0025 -1.1549  1.3273
11167SOL    HW240107   2.834   5.679   7.799  1.0608 -0.4734  0.6120
11168SOL     OW40108   6.769   7.587   9.127 -0.0327 -0.3085  0.3027
11168SOL    HW140109   6.770   7.497   9.094 -0.6705 -0.5301  0.8544
11168SOL    HW240110   6.705   7.632   9.072  0.8165  0.0120 -0.4509
11169SOL     OW40111   7.074   7.308   7.660  0.2090  1.0219  0.6115
11169SOL    HW140112   7.092   7.343   7.573  0.6853  0.0276  0.2876
11169SOL    HW240113   6.986   7.271   7.654  1.0973 -1.1063 -0.1730
11170SOL     OW40114   4.018   4.585   0.358 -0.3133  0.1922  0.1992
11170SOL    HW140115   3.929   4.606   0.386 -1.3697  0.5884 -2.9640
11170SOL    HW240116   4.073   4.650   0.401 -1.6052  0.3137  1.7568
11171SOL     OW40117   8.445   5.816  12.288  0.3770  0.0497  0.0390
11171SOL    HW140118   8.407   5.884  12.343  0.3067  0.2002 -0.1964
11171SOL    HW240119   8.379   5.747  12.286  1.6133 -1.3669  2.7375
11172SOL     OW40120   1.707   9.669   5.837 -0.3210 -0.1099 -0.2566
11172SOL    HW140121   1.643   9.716   5.784 -0.1507  1.3916  0.7826
11172SOL    HW240122   1.664   9.587   5.860 -0.9959 -0.0894 -1.3795
11173SOL     OW40123   4.524   5.511  12.082 -0.2766 -0.1133 -0.1071
11173SOL    HW140124   4.467   5.580  12.117 -1.3133 -0.6942 -0.5909
11173SOL    HW240125   4.538   5.452  12.156 -2.3034 -1.2338 -0.5188
11174SOL     OW40126   6.291  12.129   9.320  0.4464  0.4230 -0.1374
11174SOL    HW140127   6.256  12.097   9.236  2.2519  0.8154 -1.0821
11174SOL    HW240128   6.275  12.223   9.317  0.2511  0.3999  0.1109
11175SOL     OW40129  12.049   9.083  11.428  0.2558  0.6320  0.1364
11175SOL    HW140130  12.135   9.071  11.389  1.2473  1.4376  1.9543
11175SOL    HW240131  11.987   9.068  11.356  1.8172 -1.4204 -0.8592
11176SOL     OW40132  10.416   4.273  11.048 -0.7083  0.3489  0.0459
11176SOL    HW140133  10.344   4.211  11.036  1.8503 -2.5201 -2.1033
11176SOL    HW240134  10.432   4.309  10.961  0.8899  0.3763  0.3138
11177SOL     OW40135   5.987   9.918   2.517  0.1172 -0.2197 -0.3509
11177SOL    HW140136   6.031   9.927   2.601 -0.0973 -1.1092 -0.1301
11177SOL    HW240137   5.960  10.007   2.494  0.3171  0.0515  0.4414
11178SOL     OW40138   3.281   8.060  12.423 -0.2657  0.6181  0.2571
11178SOL    HW140139   3.326   8.139  12.392  1.0169  0.3512  1.3639
11178SOL    HW240140   3.317   8.044  12.510 -1.4073 -0.5037  0.5554
11179SOL     OW40141   1.496   9.092   6.281  0.2005 -0.5471 -0.0398
11179SOL    HW140142   1.437   9.139   6.221  0.8193  0.3073  0.0098
11179SOL    HW240143   1.467   9.119   6.368 -0.4516 -1.4955  0.0516
11180SOL     OW40144   2.783   3.120   6.887  0.3840  0.3125 -0.1857
11180SOL    HW140145   2.832   3.052   6.840 -0.0337 -0.0736 -0.0702
11180SOL    HW240146   2.772   3.190   6.823  0.2872  0.0161 -0.4987
11181SOL     OW40147   5.523  10.237  10.651 -0.4774 -0.6964 -0.1988
11181SOL    HW140148   5.551  10.148  10.672  1.9376  0.3657  1.5593
11181SOL    HW240149   5.526  10.242  10.556  0.0802 -2.2836 -0.2880
11182SOL     OW40150   6.880   8.823  10.292 -1.0073 -1.1402  0.1246
11182SOL    HW140151   6.956   8.844  10.345 -0.2157 -2.6835 -0.3312
11182SOL    HW240152   6.810   8.805  10.355 -0.9781  0.1427  0.5450
11183SOL     OW40153  12.347   3.701   1.202  0.0154  0.5632 -0.6096
11183SOL    HW140154  12.375   3.774   1.146  0.4520 -0.6543 -2.0210
11183SOL    HW240155  12.426   3.649   1.214 -1.0766 -1.8018 -2.8980
11184SOL     OW40156   3.188  12.072   0.981  0.4003  0.2234  0.5039
11184SOL    HW140157   3.209  12.116   0.898  0.6771 -0.1315  0.3848
11184SOL    HW240158   3.256  12.006   0.991  0.3763  0.2753  1.0262
11185SOL     OW40159   3.590   2.078   3.754  0.1159 -0.1327 -0.0691
11185SOL    HW140160   3.662   2.044   3.809  1.5569 -0.2807 -1.9599
11185SOL    HW240161   3.633   2.115   3.678 -1.6936  2.2805 -0.0258
11186SOL     OW40162   4.780   0.104   2.261  0.8760  0.7078  0.2224
11186SOL    HW140163   4.786   0.101   2.166  2.8366 -0.1267  0.3169
11186SOL    HW240164   4.721   0.177   2.280  0.8498  1.1876 -1.6103
11187SOL     OW40165   2.264   5.079  11.104  0.0566  0.3775 -0.4069
11187SOL    HW140166   2.170   5.087  11.120  0.3472  2.0204  0.6700
11187SOL    HW240167   2.272   5.084  11.009 -0.7493  3.7656 -0.4384
11188SOL     OW40168   0.740   2.867   8.017  0.1910 -0.4151 -0.1500
11188SOL    HW140169   0.799   2.802   7.979  1.1026 -0.1781  0.8233
11188SOL    HW240170   0.666   2.871   7.956 -0.6213 -3.4422  0.4617
11189SOL     OW40171   0.443   6.379  12.424  0.0030 -0.2601  0.4948
11189SOL    HW140172   0.483   6.446  12.368  0.4991 -0.0760  1.0622
11189SOL    HW240173   0.364   6.421  12.459 -2.7538 -1.6910 -3.2745
11190SOL     OW40174   0.469   6.843   2.889  0.3496  0.0498  0.7316
11190SOL    HW140175   0.428   6.757   2.897  0.2902  0.1340  1.3977
11190SOL    HW240176   0.532   6.833   2.818 -0.6403 -0.1462 -0.1328
11191SOL     OW40177  10.197  11.265  11.201  0.3392  0.3102 -0.2271
11191SOL    HW140178  10.236  11.348  11.170  1.4355  0.1690  0.7116
11191SOL    HW240179  10.258  11.198  11.171  0.7934  0.0712  1.1699
11192SOL     OW40180   6.937   5.711  10.335  0.0665  0.0778 -0.1952
11192SOL    HW140181   6.860   5.733  10.388 -0.1955  1.2273 -1.0034
11192SOL    HW240182   6.913   5.631  10.289 -0.3050 -0.0478  0.2089
11193SOL     OW40183   6.594   1.878  11.137  0.6973  0.1848 -0.1560
11193SOL    HW140184   6.619   1.833  11.218  0.6849 -1.9335 -1.2464
11193SOL    HW240185   6.503   1.852  11.123  0.2320  1.7192 -0.1271
11194SOL     OW40186   1.705  12.110   4.114 -0.6014 -0.3426  0.0893
11194SOL    HW140187   1.797  12.099   4.138 -1.0443 -0.5576  1.7725
11194SOL    HW240188   1.704  12.188   4.059  0.5204 -0.0517  0.4554
11195SOL     OW40189   0.165  12.377   3.535  0.3834  0.5397 -0.1379
11195SOL    HW140190   0.095  12.313   3.526  0.7410  0.2567 -1.0732
11195SOL    HW240191   0.121  12.462   3.527  0.0356  0.3849  0.1377
11196SOL     OW40192   9.719  11.956   4.176  0.1834 -0.4076  0.1647
11196SOL    HW140193   9.799  12.002   4.151  0.2232 -0.8043 -0.4741
11196SOL    HW240194   9.649  12.005   4.131 -0.1369  0.8864  1.9522
11197SOL     OW40195  10.224   9.284  11.040  0.6492 -0.0253 -0.0436
11197SOL    HW140196  10.319   9.275  11.054  0.6362 -2.2857 -0.9629
11197SOL    HW240197  10.189   9.302  11.127  1.6780 -2.1180  0.9087
11198SOL     OW40198   9.606   4.940   2.287 -0.0361 -0.2533  0.6136
11198SOL    HW140199   9.601   4.951   2.192 -0.5020 -1.2398  0.5109
11198SOL    HW240200   9.578   5.025   2.322 -0.1357  0.0292 -0.1297
11199SOL     OW40201   2.121   9.075   4.918 -0.2384 -0.0081 -0.1655
11199SOL    HW140202   2.057   9.145   4.909  0.6239  0.7472 -0.5217
11199SOL    HW240203   2.152   9.058   4.829 -0.3782 -0.7854 -0.0726
11200SOL     OW40204  11.245   2.349  11.335  0.4990  0.0668 -0.4866
11200SOL    HW140205  11.316   2.290  11.361 -0.7014 -0.9960  0.5185
11200SOL    HW240206  11.177   2.291  11.302 -0.0133  1.0481 -1.1839
11201SOL     OW40207   3.308   3.774   2.060 -0.2428 -0.7635 -0.4812
11201SOL    HW140208   3.313   3.678   2.057 -0.6361 -0.7748 -0.9463
11201SOL    HW240209   3.398   3.803   2.044 -0.2147 -1.0479 -0.8483
11202SOL     OW40210   2.957   6.061   8.640 -0.4624 -0.2949  0.3259
11202SOL    HW140211   2.943   5.971   8.672 -0.1452 -0.4038  0.1591
11202SOL    HW240212   2.941   6.116   8.716  2.6510 -0.6680  1.3878
11203SOL     OW40213   7.867   9.521   0.738  0.1000 -0.9681  0.1606
11203SOL    HW140214   7.787   9.499   0.690  0.8765  0.0098 -1.6855
11203SOL    HW240215   7.840   9.521   0.830 -2.2816  0.2325 -0.4457
11204SOL     OW40216   9.382  12.387   3.180 -0.1815 -0.0333 -0.2689
11204SOL    HW140217   9.458  12.395   3.237 -1.5392  2.3712  1.3628
11204SOL    HW240218   9.314  12.438   3.223 -2.4077 -1.1431 -2.2448
11205SOL     OW40219   3.617   3.761   9.177  0.0494 -0.2605  0.1290
11205SOL    HW140220   3.549   3.806   9.128  0.5541  0.4506  0.0630
11205SOL    HW240221   3.586   3.762   9.267 -0.3852 -0.6257 -0.0143
11206SOL     OW40222   4.674   4.679   6.423  0.3738  0.2320 -0.2776
11206SOL    HW140223   4.649   4.693   6.331  0.2302  0.6070 -0.1794
11206SOL    HW240224   4.738   4.608   6.419 -1.5829 -1.6628 -0.4319
11207SOL     OW40225   6.662   1.540   1.404  0.3582 -0.0411  0.0390
11207SOL    HW140226   6.622   1.498   1.480 -1.7148 -0.2935 -1.0798
11207SOL    HW240227   6.756   1.525   1.414 -0.0222 -1.8631  1.4895
11208SOL     OW40228   0.241  11.410   5.281  0.0242 -0.0164  0.2040
11208SOL    HW140229   0.155  11.369   5.295  0.5805 -0.8164  1.4393
11208SOL    HW240230   0.225  11.504   5.292 -0.5509 -0.2194  1.2146
11209SOL     OW40231   5.675   0.045  10.441  0.3725 -0.4761  0.1756
11209SOL    HW140232   5.637   0.102  10.374  0.6102  2.1241  2.0963
11209SOL    HW240233   5.606   0.037  10.507  0.8871 -1.1985  0.6307
11210SOL     OW40234   8.138   7.468   9.354  0.1399  0.6057  0.2231
11210SOL    HW140235   8.137   7.543   9.413 -3.3893  0.8268  0.0792
11210SOL    HW240236   8.065   7.413   9.383  0.7163 -1.2482 -1.5769
11211SOL     OW40237  10.605  12.773   4.132  0.1796  0.4688  0.2723
11211SOL    HW140238  10.525  12.729   4.162 -0.1872 -0.2189 -1.5889
11211SOL    HW240239  10.605  12.857   4.178 -2.3020  1.0357 -0.6147
11212SOL     OW40240   2.731   9.116   9.605  0.1857  0.7650 -0.0903
11212SOL    HW140241   2.639   9.137   9.591  0.4295  1.6602 -0.4542
11212SOL    HW240242   2.753   9.158   9.689  0.1201  0.0541  0.2906
11213SOL     OW40243   7.413   7.754   4.711  0.3702 -0.4500 -0.1483
11213SOL    HW140244   7.329   7.799   4.711  0.9297  0.6091 -0.6439
11213SOL    HW240245   7.458   7.784   4.632  2.4601  1.3888  1.6147
11214SOL     OW40246   4.385   5.596   1.225  0.0188 -0.5928  0.5511
11214SOL    HW140247   4.476   5.585   1.251  0.2598 -2.6326 -0.9216
11214SOL    HW240248   4.389   5.642   1.141 -0.1894 -1.7313 -0.1094
11215SOL     OW40249   3.807  12.774   3.398 -0.0238 -0.2392  0.0426
11215SOL    HW140250   3.753  12.795   3.322 -1.1676 -0.9982  0.6141
11215SOL    HW240251   3.888  12.824   3.385 -1.0206  1.2647 -0.6225
11216SOL     OW40252   8.834   1.190  11.393  0.0164  0.2812  0.0445
11216SOL    HW140253   8.854   1.244  11.469 -2.1842 -0.0142  0.9100
11216SOL    HW240254   8.913   1.194  11.339  1.0879  1.7083  1.6194
11217SOL     OW40255   7.620   5.698   0.157  0.5599 -0.1656 -0.3351
11217SOL    HW140256   7.530   5.709   0.189 -0.1509 -2.3357 -1.3944
11217SOL    HW240257   7.610   5.662   0.069  2.4752 -0.1448 -0.5928
11218SOL     OW40258   7.554   6.474   2.805  0.0131  0.2927 -0.3000
11218SOL    HW140259   7.510   6.533   2.745  1.0240  0.2328 -1.1319
11218SOL    HW240260   7.634   6.448   2.759  0.8621  0.3089  1.1061
11219SOL     OW40261  10.369   1.749   3.849  0.5575 -0.4446 -0.3114
11219SOL    HW140262  10.372   1.654   3.839  1.1481 -0.6909  1.7864
11219SOL    HW240263  10.450   1.772   3.894  0.4099  1.0530 -0.7392
11220SOL     OW40264   3.136   5.472  10.443 -0.2782 -0.0555 -0.8591
11220SOL    HW140265   3.170   5.442  10.527 -0.7193 -0.1309 -0.7033
11220SOL    HW240266   3.086   5.397  10.410 -0.9617  0.3182 -0.7059
11221SOL     OW40267   6.507   9.960  10.466 -0.0471 -0.2746 -0.1901
11221SOL    HW140268   6.511   9.871  10.501 -1.8006  0.0428  0.9045
11221SOL    HW240269   6.533  10.016  10.540  0.1805  0.1863 -0.6115
11222SOL     OW40270   4.363   1.890   5.993 -0.0118 -0.3634  0.0522
11222SOL    HW140271   4.394   1.809   5.952 -0.3009 -0.9175  0.8979
11222SOL    HW240272   4.325   1.941   5.920  1.4024 -0.3692 -0.7124
11223SOL     OW40273  12.538   2.309   8.670 -0.2795 -0.4370  0.2173
11223SOL    HW140274  12.559   2.223   8.707  1.3155 -0.5522 -0.8677
11223SOL    HW240275  12.591   2.314   8.591 -1.6112  0.8855 -0.6329
11224SOL     OW40276   4.377   0.306   4.962  0.2447 -0.4731 -0.4104
11224SOL    HW140277   4.388   0.387   4.913 -2.9790  0.9096  0.8831
11224SOL    HW240278   4.443   0.311   5.031  1.7820 -0.2499 -1.8396
11225SOL     OW40279   0.728   1.221  11.779  0.3128 -0.5553 -0.2761
11225SOL    HW140280   0.769   1.259  11.857 -0.4014 -1.7002  0.7086
11225SOL    HW240281   0.797   1.168  11.738  0.9810  0.8528 -1.0137
11226SOL     OW40282   1.866   7.663   3.385 -0.0862 -0.1543  0.1071
11226SOL    HW140283   1.784   7.711   3.379 -0.1662 -0.0177  1.8936
11226SOL    HW240284   1.840   7.573   3.404  0.1614 -0.3505 -0.4433
11227SOL     OW40285   4.097  12.396   4.607  0.4515  0.1963 -0.4133
11227SOL    HW140286   4.188  12.420   4.592  0.3130  1.0725  0.1185
11227SOL    HW240287   4.099  12.338   4.682  0.4745  1.0651  0.2719
11228SOL     OW40288   1.325   8.922   6.497  0.1148 -0.3877  0.7091
11228SOL    HW140289   1.416   8.940   6.521 -0.0395  0.2403  0.8559
11228SOL    HW240290   1.275   8.990   6.542 -0.3295 -0.1027 -0.1976
11229SOL     OW40291   1.491   4.696   7.055 -0.7046 -0.0350  0.2085
11229SOL    HW140292   1.399   4.702   7.080 -1.0647 -2.5566 -0.1830
11229SOL    HW240293   1.492   4.631   6.984  1.4550 -0.7579  0.8204
11230SOL     OW40294   4.303   1.876   9.070  0.2928 -0.5734  0.3267
11230SOL    HW140295   4.351   1.959   9.073 -1.6674  0.9099 -2.9120
11230SOL    HW240296   4.239   1.883   9.141  1.1380 -0.0256  1.0533
11231SOL     OW40297   8.227   1.166   1.271  0.8294  1.0917 -0.2571
11231SOL    HW140298   8.319   1.140   1.272  0.8775  1.1857 -1.1258
11231SOL    HW240299   8.199   1.161   1.362  1.1681 -0.8177 -0.2135
11232SOL     OW40300   2.826   0.151   6.457  0.2110 -0.3064  0.0454
11232SOL    HW140301   2.730   0.152   6.452  0.2218 -1.0697 -0.4095
11232SOL    HW240302   2.845   0.119   6.545  0.0591  1.1711  0.6482
11233SOL     OW40303   6.743   7.991   4.386 -0.2109 -0.7084 -0.4308
11233SOL    HW140304   6.649   7.993   4.403 -0.0864  0.3948  0.2502
11233SOL    HW240305   6.774   8.078   4.413  0.6043 -0.0903 -3.0128
11234SOL     OW40306   1.512   9.750   5.633  0.4677 -0.6540  0.4252
11234SOL    HW140307   1.481   9.833   5.667 -1.0684 -0.7967 -0.5551
11234SOL    HW240308   1.436   9.711   5.591  1.6238 -1.7166 -0.7622
11235SOL     OW40309   4.854   7.333   7.382 -0.4935 -0.2610 -0.4118
11235SOL    HW140310   4.948   7.316   7.374 -0.6278 -2.0797  1.0059
11235SOL    HW240311   4.813   7.272   7.320 -0.7598  0.2316 -0.7267
11236SOL     OW40312  10.559   0.407  10.395  0.4280  0.6292  0.2753
11236SOL    HW140313  10.649   0.387  10.368 -0.1073 -0.2824 -0.9289
11236SOL    HW240314  10.504   0.357  10.334 -0.9170  1.9572  0.3381
11237SOL     OW40315   1.335  10.386  12.484 -0.3658 -0.0403  0.3717
11237SOL    HW140316   1.358  10.303  12.527 -1.5307  0.0630  1.2163
11237SOL    HW240317   1.360  10.453  12.547  2.0159  0.4142 -0.9077
11238SOL     OW40318  10.540  11.697   7.855 -0.1983 -0.4489 -0.1060
11238SOL    HW140319  10.582  11.676   7.771  0.1338 -1.2337  0.2461
11238SOL    HW240320  10.453  11.728   7.831  0.3264  0.5273 -0.8105
11239SOL     OW40321   3.564   9.108   8.114 -0.2683 -0.7203 -0.1995
11239SOL    HW140322   3.643   9.097   8.061  0.1232  0.9098 -0.0300
11239SOL    HW240323   3.576   9.047   8.187  0.6618 -0.7768 -0.3813
11240SOL     OW40324   2.998   9.804   9.716  0.0480 -0.3277  0.1256
11240SOL    HW140325   2.976   9.746   9.643  2.2076 -0.9078 -0.1359
11240SOL    HW240326   2.990   9.892   9.679  2.0547 -0.6320 -1.1810
11241SOL     OW40327   2.191   4.346   5.492 -0.2740  0.1010 -1.0035
11241SOL    HW140328   2.152   4.384   5.413  0.2596  1.4874 -0.6298
11241SOL    HW240329   2.128   4.363   5.561  0.5490  1.6126 -0.5642
11242SOL     OW40330   3.069   1.936   1.113 -0.5017 -0.0186 -0.0032
11242SOL    HW140331   3.002   1.968   1.172 -0.9722 -1.2016  0.1408
11242SOL    HW240332   3.025   1.927   1.028 -0.4331 -0.4523  0.0042
11243SOL     OW40333   0.550   2.492   4.675  0.4891 -0.4850  0.0750
11243SOL    HW140334   0.578   2.584   4.672  2.2670 -0.9916 -0.0712
11243SOL    HW240335   0.465   2.494   4.720  0.9700  1.1241  0.9924
11244SOL     OW40336   7.061   2.248   9.204  0.1243 -0.4482  0.6521
11244SOL    HW140337   7.042   2.182   9.270 -1.2532 -1.8745 -1.0717
11244SOL    HW240338   7.047   2.332   9.249  0.6048 -1.3156  2.5190
11245SOL     OW40339   4.538  10.395   1.983  0.0490  0.4651  0.0513
11245SOL    HW140340   4.605  10.363   1.922  0.2822  1.5066 -0.2435
11245SOL    HW240341   4.583  10.460   2.037 -0.2696 -0.1240  1.0646
11246SOL     OW40342   7.237   8.259  10.230  0.2127 -0.4442  0.0081
11246SOL    HW140343   7.327   8.261  10.197 -0.0594  1.4526 -0.7182
11246SOL    HW240344   7.185   8.225  10.156  0.1638 -0.3837  0.0154
11247SOL     OW40345   5.342   2.363   1.288  0.0926 -0.0747 -0.3951
11247SOL    HW140346   5.368   2.455   1.296  2.3432 -0.7272  0.6963
11247SOL    HW240347   5.418   2.321   1.247  0.6696 -1.9974  2.3683
11248SOL     OW40348  11.429   7.076   5.825 -0.3836 -0.0278 -0.0807
11248SOL    HW140349  11.476   7.138   5.880 -2.1970 -1.6214  3.6634
11248SOL    HW240350  11.410   7.124   5.745  2.4395  2.5124  0.6011
11249SOL     OW40351   2.305  11.562   5.040  0.2111  0.0534 -0.1874
11249SOL    HW140352   2.272  11.646   5.070  0.3216  0.1819 -0.4294
11249SOL    HW240353   2.397  11.578   5.020  0.6153 -0.4564  1.1181
11250SOL     OW40354   6.667   7.904  12.684  0.3333  0.4258 -0.4055
11250SOL    HW140355   6.663   7.979  12.743 -0.6626 -0.6190  0.9379
11250SOL    HW240356   6.696   7.940  12.601 -0.7081  2.3978  0.0219
11251SOL     OW40357   9.234   5.624   7.717  0.5783 -0.1063 -0.7771
11251SOL    HW140358   9.302   5.656   7.657  1.6389 -1.5803 -0.4070
11251SOL    HW240359   9.232   5.530   7.703 -1.6225 -0.0880 -0.9626
11252SOL     OW40360  11.120   0.244   1.286 -0.2705  0.3121 -0.3431
11252SOL    HW140361  11.159   0.160   1.259 -0.3907  0.2381 -0.2833
11252SOL    HW240362  11.195   0.304   1.288 -0.4212  0.6192 -2.0303
11253SOL     OW40363   1.482   4.709   9.890  0.3739 -0.3187  0.4678
11253SOL    HW140364   1.418   4.727   9.960  0.8024  1.3533  0.4726
11253SOL    HW240365   1.430   4.709   9.810  0.1059 -0.7424  0.6374
11254SOL     OW40366   9.622  12.727   8.300 -0.2013 -0.2516  0.4060
11254SOL    HW140367   9.684  12.710   8.371  1.0047  0.0955 -0.5355
11254SOL    HW240368   9.663  12.689   8.223 -1.6556 -0.9238 -0.0613
11255SOL     OW40369   4.029  11.395   9.964  0.3050  0.2832  0.1161
11255SOL    HW140370   4.100  11.351  10.010  1.1258  0.5425 -0.8584
11255SOL    HW240371   3.952  11.339   9.979  1.0288 -0.7738  0.0156
11256SOL     OW40372   0.360   3.340  12.687 -0.5975  0.2629  0.2412
11256SOL    HW140373   0.418   3.403  12.730 -0.7723  0.3106  0.4084
11256SOL    HW240374   0.373   3.356  12.593  0.1351 -0.1610  0.2625
11257SOL     OW40375  12.629  10.785   6.777 -0.1093 -0.2020  0.9249
11257SOL    HW140376  12.546  10.739   6.789  0.0698 -0.7665  0.1029
11257SOL    HW240377  12.611  10.875   6.801 -1.0803 -0.2262  0.3127
11258SOL     OW40378   1.984   9.492   4.549  0.5431  0.8852 -0.3084
11258SOL    HW140379   1.911   9.434   4.569  0.7191  0.8651  0.2845
11258SOL    HW240380   2.054   9.433   4.520  0.8594  0.7564  0.6932
11259SOL     OW40381   3.418   8.966   5.556  0.0609  0.4622  0.4039
11259SOL    HW140382   3.508   8.936   5.553 -0.0456  0.2051 -1.4736
11259SOL    HW240383   3.367   8.888   5.581  0.2715  0.4276  0.7359
11260SOL     OW40384   8.316   4.467  11.591 -0.4518  0.0048  0.1204
11260SOL    HW140385   8.243   4.423  11.548  0.1987  0.1838 -1.2317
11260SOL    HW240386   8.326   4.549  11.542 -0.9205  1.1560  1.8608
11261SOL     OW40387   1.571   6.396   3.956 -0.8281 -0.0350 -0.2032
11261SOL    HW140388   1.551   6.327   3.893  0.3955 -0.7867  0.2024
11261SOL    HW240389   1.487   6.438   3.972 -0.9346  1.7001 -4.0387
11262SOL     OW40390  10.951   9.117   2.305 -0.2607 -0.1101  0.0309
11262SOL    HW140391  10.891   9.090   2.235  0.2184  0.5418 -0.6509
11262SOL    HW240392  11.037   9.119   2.263  0.3911 -1.7207  1.1718
11263SOL     OW40393   9.923  11.901   6.921  0.0260 -0.7667 -0.1282
11263SOL    HW140394   9.902  11.979   6.973  0.1577 -0.7113 -0.1550
11263SOL    HW240395   9.989  11.932   6.859 -0.2837 -0.7831 -0.4682
11264SOL     OW40396   7.435  12.672   4.675 -0.3589  0.3545 -0.0842
11264SOL    HW140397   7.376  12.747   4.676  0.2943  0.9145 -1.0179
11264SOL    HW240398   7.437  12.641   4.765 -1.0098  1.1651  0.2223
11265SOL     OW40399   6.586   8.028   0.820 -0.0152 -0.2859 -0.1435
11265SOL    HW140400   6.639   8.107   0.829  0.5136 -0.5574 -0.8346
11265SOL    HW240401   6.515   8.053   0.761 -0.3385 -0.0922  0.3177
11266SOL     OW40402   5.164   0.953   3.278  0.3554  0.4026  0.1592
11266SOL    HW140403   5.184   0.986   3.365 -1.8469  0.8781  0.5517
11266SOL    HW240404   5.069   0.939   3.279  0.3911 -0.3192 -1.9142
11267SOL     OW40405   7.522  11.473   6.976 -0.2841 -1.0876 -0.1626
11267SOL    HW140406   7.451  11.533   6.998  0.2720  0.2418 -1.7534
11267SOL    HW240407   7.527  11.413   7.050 -1.5864  0.1627  0.9971
11268SOL     OW40408  11.121   9.431   6.132  0.3031 -0.5831  0.3061
11268SOL    HW140409  11.091   9.521   6.119  0.6044 -0.0687  2.6928
11268SOL    HW240410  11.198   9.423   6.076  0.4799  0.7532  0.3172
11269SOL     OW40411   8.392   2.711   1.666 -0.7569 -0.5631 -0.2400
11269SOL    HW140412   8.486   2.699   1.651 -0.7182 -0.9581  0.2760
11269SOL    HW240413   8.383   2.719   1.761 -1.1677  0.2336 -0.3368
11270SOL     OW40414   2.325   3.953   6.489 -0.4656  0.1571  0.3282
11270SOL    HW140415   2.380   3.984   6.417  0.1094 -0.4453  0.4905
11270SOL    HW240416   2.384   3.954   6.565 -0.9087  0.2590  0.6714
11271SOL     OW40417  12.582   3.995   8.342  0.5449 -0.6550 -0.5050
11271SOL    HW140418  12.536   3.929   8.291  1.1099 -1.1524 -0.3798
11271SOL    HW240419  12.573   3.966   8.433  0.7089 -0.5043 -0.4395
11272SOL     OW40420   0.683   1.874   4.404  0.7639 -0.0736  0.2054
11272SOL    HW140421   0.614   1.901   4.344 -2.5739  0.8920  4.0457
11272SOL    HW240422   0.678   1.778   4.405  0.1668 -0.0495 -0.2554
11273SOL     OW40423   3.496   0.141   4.264 -0.2622 -0.3121 -0.4154
11273SOL    HW140424   3.474   0.079   4.195 -0.2278 -0.5309 -0.2328
11273SOL    HW240425   3.568   0.099   4.312 -2.9039 -2.1846  2.3444
11274SOL     OW40426   0.042   0.276  10.719  0.0622 -0.0466 -0.3836
11274SOL    HW140427   0.076   0.343  10.778 -0.4824 -1.8156  2.0986
11274SOL    HW240428  -0.053   0.277  10.734  0.0569 -1.4311 -0.1763
11275SOL     OW40429   0.758   3.174   9.019 -0.2801 -0.2901 -0.0312
11275SOL    HW140430   0.667   3.200   9.014 -0.9170 -1.8775  1.8407
11275SOL    HW240431   0.801   3.246   9.066 -0.5089  0.5434 -1.0800
11276SOL     OW40432   3.161   4.060   0.302  0.2707 -0.5209 -0.2702
11276SOL    HW140433   3.098   3.988   0.304  1.3641 -1.5796 -1.4749
11276SOL    HW240434   3.214   4.049   0.381 -0.9690  0.3463  0.7227
11277SOL     OW40435   3.642  11.353   9.984  0.0742 -0.5239 -0.0664
11277SOL    HW140436   3.727  11.326  10.018 -1.0412 -3.4823  0.6850
11277SOL    HW240437   3.579  11.327  10.052 -1.6614 -0.9907 -1.7421
11278SOL     OW40438   9.820   9.211   5.456 -0.3031 -0.2661 -0.6320
11278SOL    HW140439   9.877   9.175   5.523  1.0338  0.1452 -1.5184
11278SOL    HW240440   9.798   9.136   5.400 -1.0099 -0.5059 -0.0587
11279SOL     OW40441   3.897   3.036   3.459  0.5576 -0.0338 -0.2628
11279SOL    HW140442   3.879   3.101   3.527 -0.2588 -0.0453 -0.4488
11279SOL    HW240443   3.885   3.085   3.377 -1.5647 -0.7461 -0.4355
11280SOL     OW40444   4.791   2.798  11.406  0.2350  0.4517 -0.2407
11280SOL    HW140445   4.855   2.763  11.345 -0.3538 -0.5309 -0.3141
11280SOL    HW240446   4.707   2.789  11.361 -0.3464 -1.3000  1.1040
11281SOL     OW40447   3.873   9.792  10.489  0.1683 -0.3239  0.1897
11281SOL    HW140448   3.859   9.761  10.578  2.1269 -1.1946  0.2584
11281SOL    HW240449   3.944   9.855  10.497  0.2234 -0.2594 -0.7225
11282SOL     OW40450  12.414   7.928   6.428  0.2793  0.0912 -0.4913
11282SOL    HW140451  12.470   7.859   6.463 -0.0748  0.3148  0.5594
11282SOL    HW240452  12.468   8.006   6.429  0.1744  0.1635 -0.1178
11283SOL     OW40453   2.778   2.650  12.765  0.0556  0.6840  0.1370
11283SOL    HW140454   2.707   2.620  12.709 -0.9886  2.0639  0.6518
11283SOL    HW240455   2.858   2.632  12.715 -0.7656  0.6502 -1.2050
11284SOL     OW40456   2.608   0.675   1.659 -0.5127  0.6296 -0.2764
11284SOL    HW140457   2.562   0.758   1.643 -1.5799 -0.0647 -0.9643
11284SOL    HW240458   2.596   0.625   1.579 -1.3352 -0.8335  0.7056
11285SOL     OW40459   8.687   2.770   1.673 -0.5935  0.2038 -0.2434
11285SOL    HW140460   8.735   2.744   1.752 -0.7975 -2.7795 -0.9670
11285SOL    HW240461   8.730   2.849   1.643  1.1903 -0.0678  1.4116
11286SOL     OW40462   4.367   2.949  10.459  0.3009 -0.7202  0.1872
11286SOL    HW140463   4.355   2.966  10.553  0.3980 -0.1127  0.0882
11286SOL    HW240464   4.286   2.979  10.419  0.0702 -1.3993  0.1189
11287SOL     OW40465  10.544   6.602  10.317  0.4723 -0.8422 -0.0696
11287SOL    HW140466  10.510   6.673  10.371  1.6075  0.7382 -1.3205
11287SOL    HW240467  10.506   6.523  10.354 -1.3711  0.4667  0.9842
11288SOL     OW40468   1.462   9.569   0.457  0.7367 -0.3739 -0.0423
11288SOL    HW140469   1.554   9.541   0.458  1.0021  0.3954 -0.7391
11288SOL    HW240470   1.465   9.658   0.419 -0.3231 -0.4654 -0.3793
11289SOL     OW40471   1.663  10.149   7.891  0.3742 -0.3886  0.1872
11289SOL    HW140472   1.665  10.245   7.900 -1.7849 -0.1819 -0.9722
11289SOL    HW240473   1.579  10.123   7.928  0.5381 -1.7343 -0.3457
11290SOL     OW40474   3.527   8.859   6.719 -0.5397 -0.6906  0.7037
11290SOL    HW140475   3.551   8.921   6.788 -2.4422 -0.7171  1.4277
11290SOL    HW240476   3.589   8.877   6.648 -1.5813  2.7085  0.4921
11291SOL     OW40477  12.722   4.475  10.635 -0.1161  0.4025 -0.6071
11291SOL    HW140478  12.692   4.482  10.544 -0.2200 -1.5584 -0.7659
11291SOL    HW240479  12.778   4.397  10.636  2.0733  1.8633  0.4691
11292SOL     OW40480   6.199  10.810   5.458  0.2122  0.0518 -0.7631
11292SOL    HW140481   6.228  10.720   5.467 -0.9204 -0.4168 -1.6233
11292SOL    HW240482   6.201  10.827   5.364 -0.9375  0.4413 -0.7328
11293SOL     OW40483   3.360   4.395   1.035  0.7560  0.3223 -0.7308
11293SOL    HW140484   3.415   4.358   1.104 -1.5118 -0.3127  0.8529
11293SOL    HW240485   3.370   4.490   1.045  1.6252  0.2207 -0.5668
11294SOL     OW40486   2.483  11.839   0.598 -0.1038  0.3754  0.2561
11294SOL    HW140487   2.422  11.768   0.580  1.0148 -0.0097 -2.5541
11294SOL    HW240488   2.435  11.918   0.574 -0.5858  0.3968  1.2442
11295SOL     OW40489   0.126   9.596   3.941 -0.0019  0.1138  0.2358
11295SOL    HW140490   0.092   9.512   3.969  0.2126 -0.0937 -0.1187
11295SOL    HW240491   0.221   9.588   3.951 -0.0272  0.5792  0.9280
11296SOL     OW40492   6.685   8.797   6.806 -0.5701  0.0276  1.1123
11296SOL    HW140493   6.689   8.758   6.719 -0.7869  1.1188  0.5987
11296SOL    HW240494   6.676   8.722   6.866 -1.8177 -0.6678  0.1063
11297SOL     OW40495  11.021   8.125   7.274  0.3588 -0.2302 -0.0767
11297SOL    HW140496  11.086   8.193   7.255  0.7898 -0.7209 -0.3810
11297SOL    HW240497  11.069   8.043   7.263 -1.0125 -0.7246 -3.1727
11298SOL     OW40498  11.024   4.576   3.818  0.4899 -0.1045 -0.6733
11298SOL    HW140499  10.968   4.641   3.777 -0.5430 -1.7529 -2.0253
11298SOL    HW240500  10.975   4.545   3.894  1.1759  0.9613  0.2322
11299SOL     OW40501   2.109   3.615   8.053 -0.3164 -0.8303 -0.0842
11299SOL    HW140502   2.042   3.682   8.043  1.7355  1.6675  1.7715
11299SOL    HW240503   2.124   3.583   7.963 -1.0823  1.4602 -1.1042
11300SOL     OW40504   2.481   8.111   2.318  0.1289  0.1223  0.1393
11300SOL    HW140505   2.400   8.062   2.304  0.2997  0.0796 -0.7454
11300SOL    HW240506   2.453   8.187   2.370 -0.5586  0.3347 -0.5183
11301SOL     OW40507   6.623   2.545   5.087 -0.0222  0.7453  0.8272
11301SOL    HW140508   6.617   2.568   4.995 -0.2846  2.2862  1.1972
11301SOL    HW240509   6.667   2.460   5.088 -0.1950  0.6141 -0.7112
11302SOL     OW40510   9.127  11.522   8.214 -0.2157 -0.1387  0.6278
11302SOL    HW140511   9.122  11.458   8.285  0.8765 -0.1505  0.7077
11302SOL    HW240512   9.179  11.594   8.249 -1.6401  0.9380  0.6212
11303SOL     OW40513   3.858   9.856   2.950 -0.3787  0.5011  0.3661
11303SOL    HW140514   3.835   9.848   3.043  0.9925 -1.6363  0.5883
11303SOL    HW240515   3.812   9.784   2.907  1.4427 -0.4817 -0.0422
11304SOL     OW40516   9.586   1.726   1.933  0.1004  0.3111 -0.2549
11304SOL    HW140517   9.555   1.791   1.869  0.6372  1.0989  0.2636
11304SOL    HW240518   9.535   1.647   1.913 -0.1747  0.7181 -1.2580
11305SOL     OW40519   0.768   3.294   2.663 -0.3087  0.0302  0.0575
11305SOL    HW140520   0.764   3.386   2.636  1.9144 -0.1648 -1.1628
11305SOL    HW240521   0.811   3.296   2.748  2.0976  0.0231 -1.0895
11306SOL     OW40522   1.022   7.108   4.159  0.3405 -0.6769  0.1455
11306SOL    HW140523   1.021   7.186   4.214 -0.0840  0.1838 -1.0453
11306SOL    HW240524   1.115   7.092   4.142  0.5594 -1.5954  1.9385
11307SOL     OW40525   7.283   0.534  11.326 -0.0829 -0.1536  0.3912
11307SOL    HW140526   7.285   0.515  11.232  0.1191  1.9969 -0.0889
11307SOL    HW240527   7.325   0.619  11.334 -3.0816  1.3361  1.9769
11308SOL     OW40528   6.310   1.125   2.398 -0.2988 -0.2871  0.4001
11308SOL    HW140529   6.329   1.202   2.345 -1.7331 -1.6961 -2.3719
11308SOL    HW240530   6.272   1.160   2.479 -1.4216  1.9222 -0.9879
11309SOL     OW40531   3.939   2.606   8.965  0.2246  0.4009  0.3912
11309SOL    HW140532   3.914   2.672   9.030 -0.0970  0.7577 -0.0846
11309SOL    HW240533   4.027   2.632   8.937  0.2932  0.3477  0.5560
11310SOL     OW40534   4.645  10.763   4.826  0.2069 -0.1461 -0.0765
11310SOL    HW140535   4.626  10.838   4.769 -1.2631 -0.0568  0.4905
11310SOL    HW240536   4.710  10.713   4.777 -0.4179  0.3422 -1.4816
11311SOL     OW40537   0.111  12.645   3.433 -0.6449  0.1505 -0.1739
11311SOL    HW140538   0.042  12.679   3.375 -0.6563 -0.6304 -0.6194
11311SOL    HW240539   0.170  12.597   3.376  1.4572  2.5016 -0.1682
11312SOL     OW40540   8.693   1.529   1.664 -0.2238 -0.2540 -0.2182
11312SOL    HW140541   8.627   1.596   1.644  0.6687  1.1595  1.2576
11312SOL    HW240542   8.643   1.455   1.697 -1.1891 -0.0123 -1.0690
11313SOL     OW40543  12.077   9.633   3.698 -0.2855 -0.4890 -0.3941
11313SOL    HW140544  12.052   9.725   3.700  0.6520 -0.1747 -1.8592
11313SOL    HW240545  12.167   9.632   3.730 -0.6577 -1.0470  0.6669
11314SOL     OW40546   5.219  12.698   7.959 -0.3541 -0.7531 -0.0583
11314SOL    HW140547   5.226  12.744   8.042 -1.5289 -0.9884  0.1909
11314SOL    HW240548   5.197  12.608   7.983  0.0811 -1.0105 -0.6006
11315SOL     OW40549   2.310   7.705   9.054 -0.0282  0.2395  0.2188
11315SOL    HW140550   2.314   7.723   8.960 -2.0792 -1.4351 -0.2526
11315SOL    HW240551   2.331   7.612   9.062  0.5839  0.4565  1.5081
11316SOL     OW40552   8.586   3.774  10.583 -0.2166 -0.0033 -0.2461
11316SOL    HW140553   8.605   3.829  10.507 -0.5883  1.6402  0.8188
11316SOL    HW240554   8.507   3.812  10.622 -0.3974 -1.1973  0.6157
11317SOL     OW40555   0.464   3.820  12.390 -0.0732  0.2819 -0.3267
11317SOL    HW140556   0.546   3.829  12.342 -0.1449 -0.3787 -0.5782
11317SOL    HW240557   0.412   3.896  12.364 -0.3589 -0.3927 -1.7819
11318SOL     OW40558  11.104   0.582  10.248 -0.3845 -0.2581 -0.4782
11318SOL    HW140559  11.102   0.596  10.153 -0.8272 -0.8594 -0.5633
11318SOL    HW240560  11.026   0.530  10.266  0.3522 -1.2143  0.0422
11319SOL     OW40561   8.052   2.944   0.645  0.0266 -0.0051 -0.4018
11319SOL    HW140562   8.054   2.978   0.734  0.5816  0.2825 -0.5153
11319SOL    HW240563   7.970   2.977   0.609  1.2740  2.7282 -1.0516
11320SOL     OW40564  11.151   9.845   1.073 -0.0321 -0.4942  0.1502
11320SOL    HW140565  11.240   9.865   1.044 -0.2303  0.1196 -0.0493
11320SOL    HW240566  11.138   9.754   1.047  0.4790 -0.5384  0.0347
11321SOL     OW40567   4.238   9.529   2.576 -0.0050  0.4360 -0.3978
11321SOL    HW140568   4.281   9.604   2.535  2.3608 -0.9563 -0.6609
11321SOL    HW240569   4.154   9.563   2.606  0.1752  2.6967 -2.1678
11322SOL     OW40570   3.815  10.620  11.995 -0.0096 -0.4113  0.2235
11322SOL    HW140571   3.756  10.673  11.941 -1.9501 -1.8181  0.8378
11322SOL    HW240572   3.867  10.570  11.933  1.2642  1.5081 -0.3523
11323SOL     OW40573   0.036   0.173  12.429 -0.1364 -0.4381 -0.3388
11323SOL    HW140574   0.089   0.097  12.454 -0.4134 -0.3734  0.4801
11323SOL    HW240575   0.098   0.247  12.429 -0.5108 -0.0246  2.4101
11324SOL     OW40576   2.409  12.219   5.798 -0.1131 -1.1949 -0.1520
11324SOL    HW140577   2.407  12.128   5.828  1.9302 -0.9557  0.8356
11324SOL    HW240578   2.479  12.260   5.848 -0.4484  0.7397 -1.1594
11325SOL     OW40579   0.088   8.454   9.823  0.4215  0.5357  0.0316
11325SOL    HW140580   0.032   8.419   9.893  1.2824 -0.6320  0.1698
11325SOL    HW240581   0.075   8.549   9.827 -0.9390  0.3532  0.5693
11326SOL     OW40582   5.553   8.399   8.736  0.3753 -0.3130  0.0049
11326SOL    HW140583   5.531   8.477   8.787 -0.2478 -0.1610 -0.4822
11326SOL    HW240584   5.554   8.328   8.800 -0.1688 -0.0839  0.2739
11327SOL     OW40585   6.133   9.046   8.180  0.3298  0.0073  0.4511
11327SOL    HW140586   6.203   9.000   8.226  1.5045  1.3289  0.0299
11327SOL    HW240587   6.067   8.978   8.164  0.9789 -1.0049  1.8765
11328SOL     OW40588   7.378  12.766   8.635 -0.4708  0.3338 -0.7624
11328SOL    HW140589   7.334  12.741   8.716 -1.0253  1.0389 -0.8402
11328SOL    HW240590   7.454  12.707   8.631 -0.7154 -0.0564  0.0013
11329SOL     OW40591   0.712   1.144   6.236  0.2196  0.0537 -0.2354
11329SOL    HW140592   0.634   1.089   6.245  0.1050  0.3119  0.4231
11329SOL    HW240593   0.698   1.194   6.156 -1.2272  1.5611  0.9032
11330SOL     OW40594   6.911   7.580   5.134 -0.0664  0.0981 -0.0222
11330SOL    HW140595   6.889   7.628   5.214  0.5372  1.0504 -0.4082
11330SOL    HW240596   6.829   7.577   5.084  0.2309  2.1693 -0.7135
11331SOL     OW40597   5.511  11.465   8.611  0.2632 -0.6838  0.5540
11331SOL    HW140598   5.474  11.446   8.524  1.8637  1.1170 -0.5956
11331SOL    HW240599   5.533  11.558   8.608  2.4290 -1.0676  2.0985
11332SOL     OW40600   6.466   0.799   1.766 -0.2821  0.6311 -0.5659
11332SOL    HW140601   6.477   0.811   1.671 -1.7146  2.2147 -0.5676
11332SOL    HW240602   6.441   0.885   1.799  0.4600  0.1819  1.3306
11333SOL     OW40603   4.450   8.651  12.400 -0.3401 -0.1317 -0.6088
11333SOL    HW140604   4.542   8.650  12.374  0.4501  2.9594  1.5552
11333SOL    HW240605   4.404   8.612  12.325  2.5227 -0.1479 -2.5245
11334SOL     OW40606  11.312   2.273   2.476  0.4540 -0.3700  0.3306
11334SOL    HW140607  11.248   2.334   2.438  0.7455 -0.4237 -0.2634
11334SOL    HW240608  11.272   2.187   2.466 -0.2864 -0.2261  1.8425
11335SOL     OW40609   6.693   4.475   5.726  0.4173  0.3125  0.2017
11335SOL    HW140610   6.726   4.455   5.639  0.5409  0.7376  0.1505
11335SOL    HW240611   6.639   4.399   5.749 -1.2359  1.0355 -1.0596
11336SOL     OW40612   0.932   3.910   1.578  0.3496  0.1062 -0.4781
11336SOL    HW140613   1.020   3.947   1.574  0.5548 -0.3721 -0.3655
11336SOL    HW240614   0.941   3.830   1.628 -0.2754  0.3963  0.1186
11337SOL     OW40615   3.325   8.509   9.328  0.0444  0.3545  0.2468
11337SOL    HW140616   3.387   8.532   9.398 -0.9150 -1.1859  1.6628
11337SOL    HW240617   3.370   8.442   9.277 -0.9299 -1.9428  2.2181
11338SOL     OW40618  11.778   6.032   2.722  0.4227  0.3024  0.1630
11338SOL    HW140619  11.741   6.100   2.779  1.5332  1.0285  0.0461
11338SOL    HW240620  11.854   5.999   2.769 -0.8325 -1.8538  0.8268
11339SOL     OW40621   7.277   4.008   4.366 -0.0361 -0.0321 -0.3220
11339SOL    HW140622   7.371   4.014   4.350  0.0430  0.3801  0.2600
11339SOL    HW240623   7.246   3.943   4.303  0.4613  0.5932 -1.2284
11340SOL     OW40624  11.845   7.712   3.200 -0.4752  0.0986  0.4498
11340SOL    HW140625  11.879   7.792   3.160 -0.9950 -0.4523 -1.1743
11340SOL    HW240626  11.904   7.694   3.273  0.2373  1.4007  0.2146
11341SOL     OW40627   2.510   5.614  10.936 -0.2504 -0.0356 -0.2366
11341SOL    HW140628   2.605   5.608  10.923 -0.1296 -0.6388  0.8005
11341SOL    HW240629   2.473   5.593  10.851  0.5151 -1.8570 -0.1591
11342SOL     OW40630   9.729   7.069   9.293 -0.3472  0.5150  0.6970
11342SOL    HW140631   9.675   7.119   9.355 -1.7335 -0.1030  0.0223
11342SOL    HW240632   9.746   7.129   9.221 -1.0014  0.4077  0.4459
11343SOL     OW40633   0.769  11.628  11.260 -0.5980  0.2103 -0.4376
11343SOL    HW140634   0.789  11.717  11.233 -0.4371  0.0649 -0.7992
11343SOL    HW240635   0.840  11.605  11.320 -0.4488  0.1968 -0.6207
11344SOL     OW40636   6.124   3.090   8.888 -0.3616 -0.1001 -0.1553
11344SOL    HW140637   6.041   3.067   8.847  0.3786 -2.2927 -0.6059
11344SOL    HW240638   6.188   3.089   8.816  0.2223  0.6020  0.3308
11345SOL     OW40639  12.500   2.985   2.362 -0.0113 -0.1350  0.5359
11345SOL    HW140640  12.474   3.010   2.273  1.8723 -1.2921 -0.3776
11345SOL    HW240641  12.467   2.896   2.374  2.3058 -1.1662 -0.1997
11346SOL     OW40642   1.333   1.768   0.650 -0.0191  0.2647 -0.0091
11346SOL    HW140643   1.330   1.819   0.569 -0.0991 -1.1140 -0.9070
11346SOL    HW240644   1.319   1.833   0.720  0.5174  1.5524 -1.0519
11347SOL     OW40645  11.130   2.888   2.400 -0.8766 -0.4259 -0.0271
11347SOL    HW140646  11.151   2.959   2.339  0.4172 -0.4774  0.3390
11347SOL    HW240647  11.041   2.863   2.376 -1.9003  2.1912  0.6903
11348SOL     OW40648   1.252   1.570   8.486 -0.1537  0.0844  0.4712
11348SOL    HW140649   1.310   1.498   8.460 -2.1338 -0.9330 -1.4631
11348SOL    HW240650   1.199   1.533   8.557  0.6953  0.5972  1.3868
11349SOL     OW40651  11.515  10.543   0.505 -0.0807 -0.2177 -0.3339
11349SOL    HW140652  11.610  10.538   0.511  0.1603 -0.3421 -2.9896
11349SOL    HW240653  11.495  10.635   0.522  0.3207 -0.4689  1.6935
11350SOL     OW40654   4.192   8.501   5.609  0.1665  0.3513 -0.0501
11350SOL    HW140655   4.145   8.418   5.599  0.1669  0.4195 -0.6430
11350SOL    HW240656   4.210   8.530   5.520 -1.5814  1.9878  0.0609
11351SOL     OW40657  12.500   3.275   9.680 -0.1619 -0.1827  0.0864
11351SOL    HW140658  12.510   3.188   9.720  0.1727  0.0938  0.6168
11351SOL    HW240659  12.585   3.290   9.637  0.6900  0.8706  2.0008
11352SOL     OW40660   5.518  11.814   3.745  0.6338  0.3512 -0.6884
11352SOL    HW140661   5.487  11.726   3.766 -0.8400  1.4751  2.6741
11352SOL    HW240662   5.604  11.820   3.788 -0.2257  1.1302  1.0437
11353SOL     OW40663   8.253   2.337  10.947  0.3054  0.3082 -0.7407
11353SOL    HW140664   8.223   2.289  10.870 -0.2873 -0.4860 -0.0204
11353SOL    HW240665   8.173   2.366  10.991  0.5694 -0.9206  0.6178
11354SOL     OW40666   6.876  11.667   5.146  0.5049 -0.0225 -0.6723
11354SOL    HW140667   6.942  11.724   5.105  1.2685  0.3760  1.0307
11354SOL    HW240668   6.838  11.720   5.216  1.3944 -1.6380  1.1216
11355SOL     OW40669  10.235  10.032   9.730  0.5879  0.3027  0.2394
11355SOL    HW140670  10.286  10.085   9.669  1.3428  1.0831  1.5201
11355SOL    HW240671  10.187  10.096   9.783  0.5549 -0.3369  0.9932
11356SOL     OW40672   1.552   5.780   3.428 -0.3414  0.5156 -0.0070
11356SOL    HW140673   1.581   5.692   3.406 -1.2259  0.5759 -1.5053
11356SOL    HW240674   1.585   5.836   3.357  0.0941  1.3842  0.8482
11357SOL     OW40675   1.083   4.769  11.345  0.2179  0.7447  0.5124
11357SOL    HW140676   1.028   4.757  11.423 -0.4176 -0.1052 -0.0479
11357SOL    HW240677   1.084   4.864  11.331 -0.0909  0.8690  1.2447
11358SOL     OW40678   6.212   4.941   1.754  0.6903 -0.4853  0.1547
11358SOL    HW140679   6.244   5.018   1.800  1.1611 -0.2536 -0.5492
11358SOL    HW240680   6.276   4.872   1.775  1.1055 -0.2849 -0.4391
11359SOL     OW40681   0.799   7.230  10.716  0.1044 -0.2810  0.1967
11359SOL    HW140682   0.888   7.247  10.745  0.1841 -2.1260  1.2358
11359SOL    HW240683   0.809   7.182  10.634 -0.0537  1.9688 -1.2271
11360SOL     OW40684   8.189   0.924  11.695  0.8039 -0.2396 -0.2705
11360SOL    HW140685   8.143   0.848  11.659 -1.0829  1.0281 -0.6745
11360SOL    HW240686   8.160   0.929  11.786 -1.0306  1.3209 -0.8654
11361SOL     OW40687   7.431  12.082   4.212  0.1332 -0.7291 -0.1411
11361SOL    HW140688   7.467  12.047   4.131 -1.0497 -0.8391 -0.6415
11361SOL    HW240689   7.462  12.022   4.280  1.7987 -0.1783 -0.3793
11362SOL     OW40690  12.180   0.115   9.707 -0.8691 -0.2375  0.2711
11362SOL    HW140691  12.242   0.120   9.780 -0.0049 -0.6130 -0.4151
11362SOL    HW240692  12.140   0.028   9.717  1.4359 -1.6223 -1.3488
11363SOL     OW40693   0.629  12.508   2.825 -0.5181  0.3011  0.7651
11363SOL    HW140694   0.611  12.465   2.909 -1.5812  0.9193  0.8746
11363SOL    HW240695   0.685  12.582   2.848 -0.7978  0.4634  0.9330
11364SOL     OW40696   3.916  11.677   7.714  0.4849 -0.0283 -0.1582
11364SOL    HW140697   3.849  11.610   7.723  0.9908 -0.4803  0.2914
11364SOL    HW240698   3.914  11.724   7.798 -0.1616  0.8126 -0.6201
11365SOL     OW40699  10.949   5.831   7.212  0.3045 -0.5175 -0.4758
11365SOL    HW140700  10.979   5.903   7.157 -1.7987  1.4618  0.7748
11365SOL    HW240701  10.864   5.808   7.175  0.1396 -1.0948  0.2549
11366SOL     OW40702   9.535  12.529   6.944 -0.2523 -0.1784 -0.0168
11366SOL    HW140703   9.474  12.455   6.939  0.3664 -1.0412  3.0903
11366SOL    HW240704   9.482  12.603   6.972 -0.0822 -0.7952  2.1243
11367SOL     OW40705  10.720   8.526  12.165  0.0543 -0.9868 -0.4115
11367SOL    HW140706  10.629   8.499  12.178  0.3394 -1.3813  0.8549
11367SOL    HW240707  10.772   8.455  12.202  0.8363  0.5920  1.7670
11368SOL     OW40708   2.185   1.877   6.235 -0.2200  0.5158 -0.4540
11368SOL    HW140709   2.221   1.952   6.187  2.0380 -0.1397  0.0887
11368SOL    HW240710   2.238   1.873   6.315 -2.2920  0.1280  0.9608
11369SOL     OW40711  11.347   7.164   7.044  0.0802  0.2535 -0.3283
11369SOL    HW140712  11.337   7.252   7.082  0.8283  0.3409 -0.3098
11369SOL    HW240713  11.421   7.126   7.093  0.4698  0.0269 -1.0859
11370SOL     OW40714  11.601   7.934   1.352 -0.4298  0.2627 -0.4009
11370SOL    HW140715  11.600   7.861   1.290 -0.0642  0.5247 -0.7135
11370SOL    HW240716  11.522   7.984   1.331 -0.4507  0.2004 -0.4717
11371SOL     OW40717  12.765   7.628   9.631 -0.1525  0.2770  0.2169
11371SOL    HW140718  12.684   7.678   9.632  0.0582  0.6213  1.2646
11371SOL    HW240719  12.801   7.641   9.543 -1.2244  0.1020 -0.2670
11372SOL     OW40720   6.777   2.448   1.099 -0.1015  0.6327 -0.2891
11372SOL    HW140721   6.771   2.403   1.014 -0.7837 -0.2156  0.1918
11372SOL    HW240722   6.715   2.401   1.155  2.0931 -0.3856  1.3913
11373SOL     OW40723   0.472   8.163  11.669 -0.2409  0.0256  0.1175
11373SOL    HW140724   0.529   8.095  11.636  0.2465  0.0900  0.7989
11373SOL    HW240725   0.494   8.241  11.617 -1.2184 -0.4623 -1.0691
11374SOL     OW40726  11.801   9.393   4.942  0.9176 -0.6151 -0.3251
11374SOL    HW140727  11.730   9.419   5.002 -0.5367  1.7455 -2.8292
11374SOL    HW240728  11.881   9.409   4.992 -0.2187 -1.0068  1.7499
11375SOL     OW40729   8.938   6.682   9.490  0.6907 -0.2996  0.3481
11375SOL    HW140730   8.862   6.625   9.504  0.7656 -0.7985 -1.1421
11375SOL    HW240731   9.012   6.631   9.523  0.4831 -0.1279  1.0931
11376SOL     OW40732  12.353   9.191   1.366 -0.5143  0.4662 -0.1535
11376SOL    HW140733  12.284   9.256   1.375 -0.9604 -0.0236  0.0335
11376SOL    HW240734  12.413   9.228   1.301 -0.7918  1.0301 -0.0952
11377SOL     OW40735  10.773   7.353   7.176  0.1161  0.1288  0.1822
11377SOL    HW140736  10.689   7.362   7.131  0.5948  2.2139 -0.3625
11377SOL    HW240737  10.749   7.329   7.266 -0.9396 -1.3350 -0.4302
11378SOL     OW40738  10.419   8.552   6.933  0.8361 -0.1117  0.0870
11378SOL    HW140739  10.327   8.546   6.960  0.4793  1.1462 -0.7469
11378SOL    HW240740  10.459   8.612   6.996  0.7526  0.3877 -0.3287
11379SOL     OW40741   6.731  10.234  10.844  0.3739  0.0415  0.8614
11379SOL    HW140742   6.749  10.325  10.867  2.8668 -0.4732  1.1909
11379SOL    HW240743   6.757  10.184  10.921 -1.2964 -0.9740  0.8216
11380SOL     OW40744   9.711   0.535   7.973  0.3024 -0.3558 -0.2602
11380SOL    HW140745   9.802   0.535   8.000  0.2144  0.2767  0.0656
11380SOL    HW240746   9.664   0.574   8.047  0.0354  1.3112 -1.2703
11381SOL     OW40747   9.882  11.691   8.193  0.5166  0.5566  0.2799
11381SOL    HW140748   9.799  11.730   8.219  1.4163  1.7708  1.4796
11381SOL    HW240749   9.948  11.757   8.217  1.7966 -0.1747 -1.0522
11382SOL     OW40750   3.299   8.490   8.791  0.3980 -0.0746 -0.4555
11382SOL    HW140751   3.259   8.506   8.877 -1.2331  0.2601 -1.2365
11382SOL    HW240752   3.249   8.418   8.754  2.4298 -1.6488 -0.3252
11383SOL     OW40753   4.586  11.850   0.979  0.1437  0.3844 -0.2791
11383SOL    HW140754   4.503  11.804   0.966  0.2890  0.7644 -2.9962
11383SOL    HW240755   4.580  11.928   0.924  1.9219  0.9757  0.2712
11384SOL     OW40756   9.092  10.615   3.517 -0.6190 -0.5205  0.2396
11384SOL    HW140757   9.109  10.575   3.603  1.1939 -1.3472 -0.4617
11384SOL    HW240758   9.155  10.686   3.511 -1.0315 -0.1903 -0.2455
11385SOL     OW40759   8.715   1.592   0.570 -0.2366 -0.6343 -0.0978
11385SOL    HW140760   8.656   1.521   0.547  0.4756 -0.7494 -1.7175
11385SOL    HW240761   8.713   1.651   0.494  0.3494  0.2883  0.5688
11386SOL     OW40762  12.762   9.184   9.361  0.1901  0.5998 -0.3969
11386SOL    HW140763  12.769   9.193   9.456 -1.5483 -1.3384 -0.0246
11386SOL    HW240764  12.679   9.227   9.339  0.7851  1.4117 -1.1229
11387SOL     OW40765   8.624   3.972  12.606 -0.4327  0.2226  0.1349
11387SOL    HW140766   8.553   3.998  12.548  0.0507  2.1936  0.3599
11387SOL    HW240767   8.583   3.955  12.690 -1.0859 -2.2813 -0.5924
11388SOL     OW40768  12.247   8.709  12.713 -0.0674  0.2644 -0.0090
11388SOL    HW140769  12.299   8.647  12.662  0.6895  2.4817 -2.0851
11388SOL    HW240770  12.156   8.684  12.695  0.2038  0.3530 -1.6644
11389SOL     OW40771  10.472   0.804   7.367  0.3679  0.3985 -0.1857
11389SOL    HW140772  10.510   0.860   7.435  0.9808  1.1379 -1.1052
11389SOL    HW240773  10.409   0.749   7.413  1.4024  0.2633  1.1195
11390SOL     OW40774  10.896   8.449   1.124 -0.5406 -0.3381  0.1874
11390SOL    HW140775  10.837   8.377   1.102  0.9012 -1.7091  0.5742
11390SOL    HW240776  10.848   8.501   1.188 -1.2800 -1.5003  0.6005
11391SOL     OW40777   2.166   0.865   4.670 -0.1027  0.5674  0.0839
11391SOL    HW140778   2.215   0.858   4.751 -0.2683 -2.4137  0.0402
11391SOL    HW240779   2.216   0.812   4.607 -1.6724  0.0806 -0.8173
11392SOL     OW40780   3.100   0.090   5.426  0.4935  0.4811  0.0743
11392SOL    HW140781   3.099   0.074   5.520 -1.1321 -0.0068 -0.0066
11392SOL    HW240782   3.150   0.017   5.389  0.5270  0.2979  0.4840
11393SOL     OW40783   4.991  10.769   7.317 -0.5024  0.2735  0.0412
11393SOL    HW140784   5.064  10.830   7.328  0.1425 -0.1955 -1.4303
11393SOL    HW240785   4.991  10.748   7.224 -0.0820 -2.6959  0.6164
11394SOL     OW40786  12.265   7.006  11.479 -0.0770  0.5594 -0.0008
11394SOL    HW140787  12.321   7.054  11.418  2.4893 -1.1286  0.8831
11394SOL    HW240788  12.230   6.933  11.427  1.2067 -0.2372  0.2200
11395SOL     OW40789   8.175   0.667   9.612  0.7704 -1.2468  0.5374
11395SOL    HW140790   8.226   0.600   9.567  1.4151 -0.4667  0.0921
11395SOL    HW240791   8.125   0.619   9.678 -0.1346 -2.4114 -0.9256
11396SOL     OW40792   3.746   3.756   5.510 -0.2100  0.6296  0.0662
11396SOL    HW140793   3.665   3.772   5.461  0.7068 -0.1522 -1.7922
11396SOL    HW240794   3.754   3.831   5.568 -0.6401  2.3377 -1.9814
11397SOL     OW40795   1.024   5.895  11.470  0.4038  0.2375 -0.0129
11397SOL    HW140796   0.937   5.930  11.450  0.0211 -0.1484  0.9313
11397SOL    HW240797   1.080   5.929  11.400 -0.6526 -0.1321 -1.0744
11398SOL     OW40798  11.860  11.691   6.164  0.5793 -0.3912  0.3726
11398SOL    HW140799  11.810  11.759   6.118  1.1431  0.0772  0.4512
11398SOL    HW240800  11.846  11.612   6.112  3.1214  0.5900 -2.0489
11399SOL     OW40801   4.710   5.502   9.697  0.5604  0.7566 -0.1309
11399SOL    HW140802   4.652   5.576   9.715  0.8725  1.4050 -1.6924
11399SOL    HW240803   4.651   5.427   9.690  0.1961  0.9142  0.9650
11400SOL     OW40804  12.113   7.375   2.739  0.2019  0.3829  0.5372
11400SOL    HW140805  12.177   7.303   2.743  0.1061  0.3101  0.8308
11400SOL    HW240806  12.069   7.372   2.824  0.1729  0.7685  0.5392
11401SOL     OW40807   8.918  10.407  11.876 -0.7089 -0.0491 -0.0912
11401SOL    HW140808   8.914  10.421  11.781  1.9646  0.5979 -0.1895
11401SOL    HW240809   8.826  10.409  11.904 -1.5526  0.1850 -2.5856
11402SOL     OW40810   9.586   0.452   1.345  0.0325  0.3936  0.3335
11402SOL    HW140811   9.532   0.397   1.401  0.1867 -1.1346 -0.9550
11402SOL    HW240812   9.577   0.540   1.382  0.0176 -0.5037  2.6398
11403SOL     OW40813   4.957   6.135   2.519 -0.1428 -0.1524  0.4607
11403SOL    HW140814   4.967   6.050   2.561  0.9354 -1.1714 -1.7207
11403SOL    HW240815   5.046   6.171   2.517 -0.4622  0.6653  0.6313
11404SOL     OW40816  11.310   3.574   5.872 -0.7869 -0.2933  0.1029
11404SOL    HW140817  11.321   3.589   5.966 -0.3820 -0.3773  0.0702
11404SOL    HW240818  11.273   3.486   5.866 -2.0152  0.1899  0.2396
11405SOL     OW40819   0.340   7.256  10.165 -0.5873  0.3716  0.1385
11405SOL    HW140820   0.300   7.343  10.160  0.4090  0.8421 -0.0439
11405SOL    HW240821   0.266   7.196  10.171 -1.2872  1.2975  1.3259
11406SOL     OW40822  11.312   6.666   0.855  0.3435 -0.1054 -0.8118
11406SOL    HW140823  11.221   6.687   0.835 -0.6215 -1.9447  1.2132
11406SOL    HW240824  11.324   6.576   0.822  0.8135 -0.5641  0.5340
11407SOL     OW40825   2.906   5.514   1.974  0.2267  0.0824 -0.3303
11407SOL    HW140826   2.927   5.594   2.021 -0.8263 -0.4927  1.1925
11407SOL    HW240827   2.989   5.467   1.967  0.7243  0.9839 -0.6445
11408SOL     OW40828   9.970   5.923   9.980  0.4558  0.0400  0.4605
11408SOL    HW140829  10.033   5.893  10.045 -0.8206 -0.7536  1.3839
11408SOL    HW240830   9.961   5.849   9.919  0.9276  0.4175 -0.0779
11409SOL     OW40831  11.633   9.173   3.075 -0.5828 -0.2948  0.4017
11409SOL    HW140832  11.698   9.214   3.132  1.3253 -0.5271 -1.4797
11409SOL    HW240833  11.608   9.092   3.119  1.2320 -0.7252  0.6767
11410SOL     OW40834   7.848   1.742   0.422  0.6734  0.3820 -0.0288
11410SOL    HW140835   7.765   1.697   0.405 -0.3945  1.6354  1.6011
11410SOL    HW240836   7.827   1.806   0.490  2.9419  0.9006  0.2467
11411SOL     OW40837   6.148   5.056   9.963 -0.4881  1.0144  0.3018
11411SOL    HW140838   6.141   4.982  10.022  2.4190  0.1014 -0.3377
11411SOL    HW240839   6.088   5.036   9.891  0.3739 -0.8328  0.0626
11412SOL     OW40840   6.144   4.906  10.389 -0.3769  0.1480  0.2574
11412SOL    HW140841   6.220   4.953  10.355 -0.8921  1.2689  0.5927
11412SOL    HW240842   6.129   4.835  10.327  1.1760 -0.3502  0.4047
11413SOL     OW40843   6.361   7.785   6.931 -1.0370 -0.4704 -0.1723
11413SOL    HW140844   6.432   7.749   6.878 -1.0769 -1.7858  0.6221
11413SOL    HW240845   6.373   7.746   7.017 -1.2630  1.2372  0.6875
11414SOL     OW40846   7.085  11.273   9.294  0.2051  0.0400  0.3254
11414SOL    HW140847   7.066  11.302   9.384 -0.5180 -0.2833  0.2823
11414SOL    HW240848   7.072  11.179   9.297 -0.9012  0.1561 -0.3797
11415SOL     OW40849   8.885   2.509   3.956 -0.4878  0.1977 -0.2136
11415SOL    HW140850   8.924   2.595   3.972 -1.0149  0.0152  2.5327
11415SOL    HW240851   8.934   2.474   3.882 -0.4233  2.9148 -1.5727
11416SOL     OW40852  11.915   0.598   2.844 -0.3040 -0.1178  0.2205
11416SOL    HW140853  11.888   0.687   2.824 -0.6119 -0.3129 -0.2607
11416SOL    HW240854  12.000   0.588   2.800 -1.4281 -0.8633 -1.9177
11417SOL     OW40855   6.928  11.909   1.965  0.2113  1.1146  0.0617
11417SOL    HW140856   6.976  11.828   1.948 -0.8822  0.5525 -0.4173
11417SOL    HW240857   6.988  11.961   2.018  0.9646  0.0356  0.3085
11418SOL     OW40858   7.944   1.752   5.183 -0.2065 -0.0413 -0.8055
11418SOL    HW140859   7.892   1.826   5.154 -0.7869 -0.7620 -1.6678
11418SOL    HW240860   7.913   1.679   5.129  1.7211 -0.4975 -1.3447
11419SOL     OW40861   0.256   9.130   9.342 -0.3991  0.3299 -0.1736
11419SOL    HW140862   0.305   9.192   9.396  0.2601 -0.4638  0.1452
11419SOL    HW240863   0.169   9.170   9.334 -0.3131  0.7778  0.9263
11420SOL     OW40864   5.557  12.397   4.890 -0.0494 -0.3625  0.3954
11420SOL    HW140865   5.527  12.480   4.927  0.9100 -0.3673  1.2067
11420SOL    HW240866   5.477  12.355   4.858 -0.3491  1.7741 -1.9745
11421SOL     OW40867  12.400  11.826  12.230  0.0641  0.4840  0.4230
11421SOL    HW140868  12.369  11.882  12.158 -1.3356  0.2530  0.8138
11421SOL    HW240869  12.366  11.868  12.309  0.2389 -0.1335  0.8315
11422SOL     OW40870   4.569   5.672   8.962  0.2833  0.1915 -0.5851
11422SOL    HW140871   4.569   5.765   8.938  0.9415  0.7301  1.3056
11422SOL    HW240872   4.655   5.659   9.003 -0.5428 -0.7484  0.9273
11423SOL     OW40873  11.188  10.372   3.746  0.1368  0.1218 -0.3317
11423SOL    HW140874  11.183  10.276   3.754 -0.8943  0.2737  1.2394
11423SOL    HW240875  11.097  10.401   3.745  0.4243  1.2146  1.3306
11424SOL     OW40876   5.216  11.324   5.556  0.0930  0.1649 -0.1951
11424SOL    HW140877   5.272  11.401   5.551  1.8772 -0.7414  2.9047
11424SOL    HW240878   5.258  11.260   5.500 -1.1893  1.2017 -2.4851
11425SOL     OW40879  11.481   2.487  10.016  0.4512 -0.2700  0.9720
11425SOL    HW140880  11.566   2.490  10.059  0.9266  1.9609  0.0094
11425SOL    HW240881  11.438   2.569  10.041 -0.9858 -0.8654  0.5766
11426SOL     OW40882   9.651   6.821  11.853  0.5181 -0.0807  0.1891
11426SOL    HW140883   9.741   6.823  11.886  1.0829  1.9738 -1.2757
11426SOL    HW240884   9.649   6.888  11.785 -2.0069 -0.4399 -0.1857
11427SOL     OW40885   9.313   1.242   0.594 -0.7678  0.2937 -0.2132
11427SOL    HW140886   9.285   1.330   0.568 -1.0770 -0.0764 -1.1668
11427SOL    HW240887   9.307   1.190   0.514 -0.5787 -0.5987  0.3374
11428SOL     OW40888  11.606  12.669   2.536 -0.0622 -0.2228  0.3106
11428SOL    HW140889  11.695  12.645   2.560 -0.4522 -1.6576  0.3963
11428SOL    HW240890  11.601  12.651   2.442 -0.2284 -0.0310  0.2815
11429SOL     OW40891   2.753   1.908   1.826 -0.3149 -0.2838  0.3564
11429SOL    HW140892   2.810   1.943   1.757  0.0985 -0.9160  0.3586
11429SOL    HW240893   2.693   1.850   1.779  0.7941 -1.7346  0.6352
11430SOL     OW40894   2.012   4.185   1.036  0.0242 -0.4477 -0.5175
11430SOL    HW140895   2.049   4.177   1.124 -0.2754 -2.0375 -0.4993
11430SOL    HW240896   1.966   4.102   1.022 -2.0407  0.7399 -1.2159
11431SOL     OW40897   3.879   7.595   5.457 -0.3110 -0.6588  0.6026
11431SOL    HW140898   3.949   7.530   5.463 -0.3718 -0.9173 -1.0333
11431SOL    HW240899   3.800   7.548   5.486 -0.2720 -1.1993 -0.1239
11432SOL     OW40900   7.083   9.860   5.565 -0.3520  0.1407 -0.2335
11432SOL    HW140901   7.106   9.796   5.633  0.8685  0.9426  0.1553
11432SOL    HW240902   7.088   9.944   5.609  0.3759  0.6726 -1.2871
11433SOL     OW40903  11.222   2.949  11.843  0.1774  0.0400 -0.8297
11433SOL    HW140904  11.223   2.930  11.937 -0.1826 -0.5582 -0.9382
11433SOL    HW240905  11.212   3.044  11.838 -1.5323 -0.0694 -0.2601
11434SOL     OW40906   2.582   7.538  10.362  0.4166  0.7007  0.0161
11434SOL    HW140907   2.513   7.478  10.332  0.5936 -1.0029  2.6725
11434SOL    HW240908   2.661   7.484  10.363  1.8540  2.5409 -2.7161
11435SOL     OW40909   9.968  12.630   5.156  0.1601  0.5920 -0.2087
11435SOL    HW140910  10.039  12.571   5.130  0.3380  1.0799 -0.8606
11435SOL    HW240911   9.898  12.572   5.185  0.1644  0.0242 -1.2736
11436SOL     OW40912   1.698  10.138  10.345 -0.2787  0.6719  0.5389
11436SOL    HW140913   1.703  10.115  10.252 -0.2749 -0.7041  0.8434
11436SOL    HW240914   1.689  10.053  10.389  2.5592  1.0336  2.0083
11437SOL     OW40915   0.238  12.644   1.191 -0.1933 -0.2654 -0.1248
11437SOL    HW140916   0.275  12.556   1.197 -2.5120 -1.2575  1.0812
11437SOL    HW240917   0.188  12.643   1.109 -1.0759 -0.4854  0.3942
11438SOL     OW40918   2.233   1.282   0.990  0.3009 -0.6358  0.2916
11438SOL    HW140919   2.309   1.224   0.991  1.0130  0.2649  0.3517
11438SOL    HW240920   2.219   1.302   0.898  0.4297 -0.4457  0.3113
11439SOL     OW40921  12.000  12.670   5.126 -0.2520 -0.0348 -0.1113
11439SOL    HW140922  11.911  12.635   5.128 -0.3586  0.2040 -0.4383
11439SOL    HW240923  12.050  12.604   5.078 -0.0224 -0.6620  0.9794
11440SOL     OW40924   2.060   6.937   1.853  0.1445  0.2293  0.0994
11440SOL    HW140925   2.128   7.000   1.829  0.4438 -0.3377 -0.5645
11440SOL    HW240926   2.096   6.852   1.828  0.0598 -0.2992  1.6847
11441SOL     OW40927  11.092  11.415   9.791  0.7775 -0.1007 -0.3689
11441SOL    HW140928  11.027  11.381   9.730 -1.7799  2.0645  0.9348
11441SOL    HW240929  11.102  11.507   9.768  2.6831 -0.1473  0.1010
11442SOL     OW40930   2.169   7.926   2.739  0.8369 -0.4672  0.0529
11442SOL    HW140931   2.136   7.895   2.824  1.1333 -0.3400  0.2191
11442SOL    HW240932   2.092   7.929   2.683  0.9739 -2.7594 -0.3542
11443SOL     OW40933   3.187   0.561  10.662 -0.2047 -0.0593  0.1720
11443SOL    HW140934   3.182   0.505  10.584 -0.8589 -0.3538  0.4162
11443SOL    HW240935   3.280   0.571  10.678 -0.0549  0.0340 -0.6709
11444SOL     OW40936  12.246   4.279   2.947 -0.1502 -0.1203  1.0972
11444SOL    HW140937  12.332   4.262   2.907  0.8574  0.6627  2.7940
11444SOL    HW240938  12.239   4.215   3.017 -1.3620 -0.7177  0.4629
11445SOL     OW40939  10.580   0.912   9.113 -0.2030 -0.1061 -0.4656
11445SOL    HW140940  10.535   0.936   9.032 -0.2231 -1.9481 -1.0544
11445SOL    HW240941  10.664   0.956   9.108 -0.5672  0.5377 -1.0524
11446SOL     OW40942   6.810   1.879   7.686  1.1193  0.2241  0.6759
11446SOL    HW140943   6.755   1.806   7.659  0.7282  0.7771 -0.0311
11446SOL    HW240944   6.754   1.956   7.678  1.7541  0.6938  0.7063
11447SOL     OW40945   0.644   3.565  10.531  0.0781  0.2825 -0.1899
11447SOL    HW140946   0.717   3.562  10.593 -2.2382 -1.1226  2.6621
11447SOL    HW240947   0.683   3.535  10.448  2.4967 -1.5656  1.4723
11448SOL     OW40948   5.732   9.725   9.274 -0.1426  0.2120  0.2885
11448SOL    HW140949   5.674   9.700   9.201 -0.3157 -0.4126  0.6353
11448SOL    HW240950   5.676   9.777   9.332  0.8560  3.8976 -1.7358
11449SOL     OW40951   9.206   7.317   7.104  0.1050  0.5127  0.6579
11449SOL    HW140952   9.210   7.269   7.021 -0.8682 -0.1629  0.9778
11449SOL    HW240953   9.114   7.344   7.111 -0.3110 -1.1886  2.4611
11450SOL     OW40954   2.781  10.186   9.739  0.5482  0.7678  0.1992
11450SOL    HW140955   2.798  10.160   9.830 -0.9770 -2.9483 -0.3995
11450SOL    HW240956   2.689  10.164   9.726  0.9736  0.3535 -2.5111
11451SOL     OW40957   9.224   7.011   3.432  0.3534  0.6889 -0.1877
11451SOL    HW140958   9.294   7.060   3.389 -1.0189  2.5705 -0.3955
11451SOL    HW240959   9.256   6.998   3.522  1.3601  0.6635 -0.5389
11452SOL     OW40960   1.274   3.604   4.742  0.3365  0.2854 -0.4002
11452SOL    HW140961   1.246   3.522   4.784  0.2064 -0.5998 -2.1447
11452SOL    HW240962   1.326   3.576   4.667  0.9791  1.8384 -0.5772
11453SOL     OW40963   4.809   2.907   3.649 -0.1896 -0.1170 -0.0553
11453SOL    HW140964   4.851   2.875   3.569  0.1835 -0.6741  0.3560
11453SOL    HW240965   4.809   3.002   3.639 -0.5113 -0.1932 -0.8951
11454SOL     OW40966   3.298   4.817  12.328 -0.2865 -0.1841  0.4950
11454SOL    HW140967   3.222   4.860  12.288  0.7316  1.4419  0.2110
11454SOL    HW240968   3.339   4.770  12.255  0.1057  0.6219  0.1867
11455SOL     OW40969   9.297   6.535   2.931 -0.2253  0.0428  0.2388
11455SOL    HW140970   9.306   6.518   3.025 -0.7696 -0.8572  0.1359
11455SOL    HW240971   9.207   6.511   2.911  0.0906 -0.4321 -0.6477
11456SOL     OW40972   9.419   4.233   1.981  0.0768  0.3269  0.7640
11456SOL    HW140973   9.329   4.214   2.007 -0.4732 -0.0231 -1.2552
11456SOL    HW240974   9.472   4.190   2.048 -1.2350 -1.8787  0.4991
11457SOL     OW40975   3.124   8.372   0.108  0.6655  0.3205  0.2027
11457SOL    HW140976   3.046   8.420   0.134  1.4552  3.9829 -3.1534
11457SOL    HW240977   3.164   8.343   0.190 -2.9027  0.3539  2.1290
11458SOL     OW40978   1.420   0.921   7.072  0.6784  0.6245 -1.1664
11458SOL    HW140979   1.338   0.879   7.047  1.1772 -0.9412 -0.3093
11458SOL    HW240980   1.394   1.002   7.116 -0.7833 -1.9970  3.4452
11459SOL     OW40981   4.757  12.281  10.042 -0.0916  0.0366 -0.3214
11459SOL    HW140982   4.827  12.217  10.027  0.7481  1.2311 -1.9490
11459SOL    HW240983   4.772  12.313  10.131  1.7287  0.5191 -0.7443
11460SOL     OW40984  12.682   5.663   0.924 -0.4425  0.2807  0.0308
11460SOL    HW140985  12.722   5.579   0.941  1.1885  1.1632  0.7826
11460SOL    HW240986  12.644   5.655   0.836 -0.1973 -1.1640  0.0459
11461SOL     OW40987  10.203   5.268   1.249  0.3755 -0.5837  0.0793
11461SOL    HW140988  10.282   5.323   1.254 -0.4296  0.5723  0.4846
11461SOL    HW240989  10.199   5.240   1.157  0.6118  0.3406 -0.2253
11462SOL     OW40990   3.075   2.548   7.031 -0.2949  0.5074  0.1588
11462SOL    HW140991   3.150   2.570   6.976  1.3549  0.5840  2.3276
11462SOL    HW240992   3.024   2.487   6.978  1.2539  0.4825 -1.3986
11463SOL     OW40993   2.316   6.137   0.422 -0.3825 -0.0819  0.0131
11463SOL    HW140994   2.237   6.125   0.475 -1.1197 -0.5598 -1.1398
11463SOL    HW240995   2.333   6.231   0.424 -1.4016  0.1225 -0.2861
11464SOL     OW40996   9.142   3.078  11.939  0.4807 -0.5234  0.3173
11464SOL    HW140997   9.107   2.993  11.910  0.9108 -0.5665 -0.0971
11464SOL    HW240998   9.070   3.119  11.986  0.3143 -1.1816  0.6485
11465SOL     OW40999   0.655   8.822   4.231 -0.4411 -0.1161 -0.2481
11465SOL    HW141000   0.596   8.767   4.180 -0.7130  0.0591 -0.1187
11465SOL    HW241001   0.602   8.897   4.257 -0.9790 -1.2789  2.2714
11466SOL     OW41002   1.199  11.365   7.360 -0.1189 -0.3811 -0.7251
11466SOL    HW141003   1.115  11.327   7.337  0.4664 -2.4106  0.2821
11466SOL    HW241004   1.205  11.356   7.455  0.3983  1.6173 -0.5050
11467SOL     OW41005   4.315   1.063   8.800  0.3532 -0.4310  0.3138
11467SOL    HW141006   4.400   1.030   8.773  0.4309  0.3711 -0.4547
11467SOL    HW241007   4.307   1.148   8.757 -0.0959  0.2928  1.7515
11468SOL     OW41008   5.777   0.548  11.922 -0.6529  0.0113  0.6912
11468SOL    HW141009   5.723   0.610  11.873 -0.0549 -0.2698 -0.3599
11468SOL    HW241010   5.782   0.585  12.010  0.2286  1.8271 -0.0683
11469SOL     OW41011   0.130   2.260   7.603 -0.0944 -0.2599  0.0629
11469SOL    HW141012   0.122   2.177   7.651 -0.3752 -0.4151 -0.2469
11469SOL    HW241013   0.121   2.235   7.511 -1.8841  0.3240  0.0510
11470SOL     OW41014  12.571   9.585   2.381  0.0906  0.0151 -0.2126
11470SOL    HW141015  12.588   9.643   2.307 -1.0410  1.4717  0.5854
11470SOL    HW241016  12.647   9.595   2.438 -1.4170  3.4669  1.5112
11471SOL     OW41017   0.846   8.279   5.971 -0.6110  0.0842 -0.4014
11471SOL    HW141018   0.882   8.365   5.989  0.9026 -0.8849  1.6321
11471SOL    HW241019   0.813   8.285   5.881  0.3417  2.4559 -0.6691
11472SOL     OW41020   5.930  11.372   1.390  0.2310  0.3342 -0.3554
11472SOL    HW141021   5.859  11.356   1.451  1.2925 -0.7389  0.6598
11472SOL    HW241022   5.888  11.410   1.313 -1.3773  0.0290  0.3387
11473SOL     OW41023   0.580   6.575   8.965  0.4432  0.0134 -0.5114
11473SOL    HW141024   0.595   6.501   8.906  2.1794  0.1010 -0.2536
11473SOL    HW241025   0.511   6.545   9.024 -0.0845 -0.7348 -1.4846
11474SOL     OW41026   3.638   0.203  10.564  0.1115 -0.1384 -0.0634
11474SOL    HW141027   3.562   0.218  10.621 -0.2326  0.5272 -0.6870
11474SOL    HW241028   3.712   0.195  10.624 -0.0932  1.4923  0.4440
11475SOL     OW41029   4.790   8.363   9.722  0.4378  0.3803  0.1440
11475SOL    HW141030   4.748   8.360   9.808  0.4196 -0.7963  0.1084
11475SOL    HW241031   4.866   8.306   9.730  1.0507  1.1147 -0.3109
11476SOL     OW41032  11.441   0.136   1.342 -0.3383  0.1489  0.2649
11476SOL    HW141033  11.442   0.228   1.317  0.6671  0.0339 -0.1531
11476SOL    HW241034  11.416   0.089   1.262 -0.9393  0.0637  0.5003
11477SOL     OW41035  11.301   6.670   2.401 -0.8406  0.1884  0.0640
11477SOL    HW141036  11.209   6.690   2.387 -0.7258  1.6057  1.0956
11477SOL    HW241037  11.306   6.640   2.492 -0.5031 -1.5277 -0.4823
11478SOL     OW41038   0.803   4.913   2.585 -0.0762  0.1132 -0.2542
11478SOL    HW141039   0.797   4.887   2.493 -0.2746  0.4268 -0.3308
11478SOL    HW241040   0.718   4.952   2.605 -0.2200 -0.4310  0.2108
11479SOL     OW41041   9.790   0.333   6.258 -0.5373 -0.1146 -0.0900
11479SOL    HW141042   9.860   0.285   6.302 -0.5035 -0.3536 -0.4006
11479SOL    HW241043   9.814   0.425   6.267 -1.2713 -0.0554  1.6789
11480SOL     OW41044   6.633   6.572   9.008 -0.2760 -0.6144  0.2159
11480SOL    HW141045   6.596   6.484   9.015 -0.5862 -0.6969 -1.9690
11480SOL    HW241046   6.727   6.558   8.999 -0.3083 -0.7241  0.0465
11481SOL     OW41047   8.416  11.977   3.184 -0.4637 -0.4718 -0.3627
11481SOL    HW141048   8.484  12.041   3.164  0.4658 -0.6671  1.8586
11481SOL    HW241049   8.375  12.012   3.264 -2.6544 -0.6273 -1.3661
11482SOL     OW41050   7.492   2.999   0.617  0.4172 -0.1603  0.1715
11482SOL    HW141051   7.422   3.007   0.681 -0.0038 -2.0567  0.0189
11482SOL    HW241052   7.447   2.984   0.533  0.9889 -0.6766 -0.0495
11483SOL     OW41053  11.822   3.673   2.310  0.4247 -0.9340  0.4310
11483SOL    HW141054  11.727   3.664   2.312  0.4911 -2.6151 -1.2826
11483SOL    HW241055  11.836   3.768   2.311 -1.3666 -0.5796 -0.9002
11484SOL     OW41056   5.347   7.713  12.008 -0.0299 -0.1396  0.2997
11484SOL    HW141057   5.399   7.739  12.084  0.0542 -2.2893  1.0695
11484SOL    HW241058   5.308   7.794  11.976  2.1640  1.2403  0.9177
11485SOL     OW41059   7.160   1.317   6.967  0.3247  0.2338 -0.2426
11485SOL    HW141060   7.166   1.412   6.971 -1.1578  0.4289 -1.5865
11485SOL    HW241061   7.077   1.300   6.922  0.4321 -1.7021  0.1925
11486SOL     OW41062   2.859   3.556   7.697  0.0937  0.0135 -0.6499
11486SOL    HW141063   2.861   3.511   7.782  2.2592 -2.0437 -1.6823
11486SOL    HW241064   2.864   3.485   7.633 -0.8515  1.5575 -2.5194
11487SOL     OW41065   7.315   9.783   9.868  0.6568  0.5479 -0.2373
11487SOL    HW141066   7.241   9.728   9.894 -0.0676  1.1692 -0.9129
11487SOL    HW241067   7.282   9.833   9.793  1.2227  2.0333  0.4687
11488SOL     OW41068   3.467  10.435   5.960 -0.1408  0.3276 -0.7059
11488SOL    HW141069   3.494  10.361   5.905 -0.5431  0.0066 -0.4808
11488SOL    HW241070   3.539  10.497   5.954  1.6369 -1.3425  1.4688
11489SOL     OW41071   4.744  12.308   1.096  0.2237  0.4756 -0.2438
11489SOL    HW141072   4.679  12.338   1.033 -0.5245 -0.9630 -0.1898
11489SOL    HW241073   4.812  12.266   1.043 -0.2491 -0.4505 -0.1306
11490SOL     OW41074   0.462  11.153   9.823  0.3085 -0.0753 -0.2724
11490SOL    HW141075   0.408  11.074   9.824 -0.1008  0.2020 -0.2394
11490SOL    HW241076   0.476  11.173   9.916  1.5233 -0.8547 -0.2691
11491SOL     OW41077   5.813   1.364  12.213 -0.4512 -0.7796 -0.0309
11491SOL    HW141078   5.780   1.274  12.215  1.5775 -1.5714  0.3738
11491SOL    HW241079   5.821   1.389  12.305  1.7834 -1.3426 -0.0110
11492SOL     OW41080   7.724   2.372   0.997 -0.3785 -0.2735  0.1235
11492SOL    HW141081   7.801   2.406   0.951 -0.7612  1.7488  0.8458
11492SOL    HW241082   7.650   2.412   0.952 -0.8828 -0.4882  0.7417
11493SOL     OW41083   8.955   1.880  10.536  0.5992  0.0732  0.3195
11493SOL    HW141084   8.938   1.974  10.540 -2.8003 -0.4375  0.9674
11493SOL    HW241085   8.912   1.844  10.614 -0.9128 -2.3103 -1.4692
11494SOL     OW41086   5.964   4.835   2.896 -0.1841 -0.1999  0.3139
11494SOL    HW141087   5.921   4.773   2.955 -0.5263  1.2985  1.7310
11494SOL    HW241088   6.012   4.781   2.834  1.2553 -1.8856  2.7361
11495SOL     OW41089   7.449   7.986  12.173  0.4841 -0.1400  0.2201
11495SOL    HW141090   7.419   7.896  12.163  0.6871 -0.4883  2.2925
11495SOL    HW241091   7.376   8.031  12.217  0.0323  0.9657 -1.5500
11496SOL     OW41092  10.655  11.527   1.760 -0.7130 -0.0057 -0.2659
11496SOL    HW141093  10.681  11.618   1.744 -0.7069  0.3482  1.5928
11496SOL    HW241094  10.634  11.493   1.673 -1.2373  1.9358 -0.9572
11497SOL     OW41095  12.351   2.635   9.669 -0.3832  0.1020  0.2713
11497SOL    HW141096  12.340   2.666   9.759  1.9612 -2.4616  1.5897
11497SOL    HW241097  12.346   2.714   9.615 -1.2453  1.7989  2.6847
11498SOL     OW41098  11.683   0.944   4.736 -0.9185  0.2368  0.3156
11498SOL    HW141099  11.599   0.960   4.694  0.0739  0.6696 -1.6387
11498SOL    HW241100  11.745   0.999   4.688  0.5969 -0.6115  1.2091
11499SOL     OW41101   2.572   7.755   8.710  0.1976  0.0528 -0.4326
11499SOL    HW141102   2.567   7.700   8.631 -0.0361 -0.0967 -0.3157
11499SOL    HW241103   2.647   7.721   8.759  0.4441  0.2515 -0.6675
11500SOL     OW41104  11.102   1.628   0.729 -0.0038  0.2175 -0.0196
11500SOL    HW141105  11.156   1.566   0.681 -0.0879 -0.2570  0.4954
11500SOL    HW241106  11.124   1.713   0.691  2.4522  0.2745  1.3664
11501SOL     OW41107   8.461   7.693   8.573 -0.0437  0.3022 -0.0436
11501SOL    HW141108   8.398   7.650   8.630 -1.6599  2.9154  0.3226
11501SOL    HW241109   8.535   7.713   8.630  1.2139 -2.6907 -0.4511
11502SOL     OW41110  12.164   0.971   8.168  0.1102 -0.2238 -0.4625
11502SOL    HW141111  12.090   0.919   8.201 -0.1735 -0.4154 -1.3738
11502SOL    HW241112  12.123   1.038   8.114  0.3265  2.0480  1.9850
11503SOL     OW41113   4.984   6.420   2.931  0.1207 -0.0509  0.5306
11503SOL    HW141114   5.018   6.388   3.014 -1.4573 -1.6079  0.6424
11503SOL    HW241115   4.934   6.346   2.895 -0.2304  0.9698 -1.2343
11504SOL     OW41116   0.895   5.427   4.721  0.1584 -0.1832 -0.1655
11504SOL    HW141117   0.951   5.368   4.670  2.4968  0.7199  1.1720
11504SOL    HW241118   0.931   5.514   4.704  0.0215  0.2865  1.7664
11505SOL     OW41119   2.750  12.117   1.788 -0.4160 -0.2206  0.0414
11505SOL    HW141120   2.716  12.150   1.705 -0.5537 -0.7645 -0.1223
11505SOL    HW241121   2.726  12.183   1.853  0.8253  0.8567 -0.5566
11506SOL     OW41122  10.639   1.772  12.486  0.2964 -0.2459  0.1095
11506SOL    HW141123  10.686   1.691  12.469  1.3892  0.5266 -0.6523
11506SOL    HW241124  10.707   1.836  12.505 -0.4535  0.8192 -0.6724
11507SOL     OW41125   8.409   7.353   1.530 -0.0578  0.4992  0.7981
11507SOL    HW141126   8.445   7.382   1.613 -1.5739  0.8974  1.3472
11507SOL    HW241127   8.345   7.286   1.553  0.7364 -0.6407 -0.1908
11508SOL     OW41128   6.216   3.441   9.111  0.5708  0.3546 -0.0177
11508SOL    HW141129   6.228   3.536   9.103 -1.1290  0.7486  1.3069
11508SOL    HW241130   6.158   3.419   9.038  1.7758  0.1358 -0.9239
11509SOL     OW41131   5.889   1.267   3.936  0.0551  1.0321  0.4494
11509SOL    HW141132   5.915   1.291   4.026 -0.7236  1.7054  0.5080
11509SOL    HW241133   5.885   1.351   3.890  1.6763  0.5933 -0.5732
11510SOL     OW41134   5.235  12.322   2.120 -0.1775  1.0888 -0.9514
11510SOL    HW141135   5.144  12.325   2.091 -0.5249  0.9015  0.0691
11510SOL    HW241136   5.230  12.291   2.211  1.0468 -1.1071 -1.5407
11511SOL     OW41137   3.684   3.849   1.550 -0.0642 -0.6526  0.6162
11511SOL    HW141138   3.732   3.778   1.593  0.0670 -0.2905  1.0779
11511SOL    HW241139   3.744   3.883   1.484 -0.4364 -1.5158 -0.1938
11512SOL     OW41140  12.699   4.212  10.353 -0.6378  0.2002 -0.1137
11512SOL    HW141141  12.708   4.117  10.350 -0.4156  0.1538  1.2546
11512SOL    HW241142  12.787   4.243  10.377 -0.3242  0.8751 -1.9762
11513SOL     OW41143  10.882   7.409   3.277 -0.4478  0.3207 -0.0546
11513SOL    HW141144  10.833   7.480   3.236  0.2134  0.4315 -0.6648
11513SOL    HW241145  10.850   7.330   3.233  0.1109  0.4205 -0.6695
11514SOL     OW41146   5.429   9.949   8.980 -0.0638  0.2649  0.6578
11514SOL    HW141147   5.433   9.957   9.076  0.9033  1.1916  0.5545
11514SOL    HW241148   5.432  10.039   8.948 -1.2726  0.0170 -0.2426
11515SOL     OW41149  10.931   8.371   6.028  0.1615  0.0097  0.3700
11515SOL    HW141150  10.906   8.437   5.964 -1.2494 -2.3019 -1.6652
11515SOL    HW241151  11.015   8.337   5.997 -0.2721 -0.7564  0.0065
11516SOL     OW41152  10.625  10.693  11.633 -0.0917  0.0876 -0.0446
11516SOL    HW141153  10.625  10.734  11.719 -0.0388  0.4412 -0.2123
11516SOL    HW241154  10.668  10.756  11.576  0.1178 -0.2652 -0.2764
11517SOL     OW41155   3.053   1.462   4.587  0.1829 -0.4159  0.6380
11517SOL    HW141156   3.036   1.368   4.579  0.4126 -0.3176 -1.2479
11517SOL    HW241157   3.108   1.483   4.513 -0.7687  1.4330  0.4052
11518SOL     OW41158   0.818   6.458  12.223  0.8796 -0.4791  0.5635
11518SOL    HW141159   0.762   6.535  12.233  1.3223 -0.2877  1.8286
11518SOL    HW241160   0.869   6.475  12.144 -0.9932 -0.7861 -0.7753
11519SOL     OW41161   1.725   0.411   3.967  0.1049  0.2260  0.3755
11519SOL    HW141162   1.758   0.336   3.918 -1.3507 -0.9126  1.0575
11519SOL    HW241163   1.770   0.405   4.052 -0.0652  0.0716  0.4560
11520SOL     OW41164   6.469   7.027   2.117 -0.2714 -0.1819  0.8946
11520SOL    HW141165   6.380   7.004   2.091  0.0675 -0.6396  0.0794
11520SOL    HW241166   6.480   6.986   2.203 -0.3762 -1.3780  0.3657
11521SOL     OW41167   5.924   5.397  12.754 -0.3953 -0.3241 -0.4662
11521SOL    HW141168   5.857   5.332  12.732 -1.9745  0.8593  0.5784
11521SOL    HW241169   5.968   5.362  12.831 -0.2297 -0.8172 -0.7801
11522SOL     OW41170  10.530   6.331   4.374 -0.8669 -0.2737 -0.5534
11522SOL    HW141171  10.559   6.251   4.419  0.5298  1.0776  1.1128
11522SOL    HW241172  10.543   6.312   4.281  2.8628 -0.8531 -0.1012
11523SOL     OW41173   0.756   7.298   6.735  0.0430 -0.3591  0.1539
11523SOL    HW141174   0.834   7.297   6.679 -0.1019  1.4474 -0.1630
11523SOL    HW241175   0.789   7.324   6.821  0.1914 -2.6371  0.8402
11524SOL     OW41176   8.884   2.432  10.846 -0.2576 -0.1913 -0.1261
11524SOL    HW141177   8.832   2.357  10.877  1.0647  0.2556  3.7721
11524SOL    HW241178   8.973   2.398  10.841  0.0065  0.5658 -0.6560
11525SOL     OW41179   8.257   5.381   1.267  0.0656 -0.4054 -0.5302
11525SOL    HW141180   8.190   5.346   1.327  1.0977 -1.7835 -0.1276
11525SOL    HW241181   8.245   5.476   1.271 -0.2068 -0.4723  1.5205
11526SOL     OW41182   5.041   7.082  10.756 -0.0070 -0.7072 -0.3060
11526SOL    HW141183   5.116   7.141  10.747 -0.8849  1.1810  3.1423
11526SOL    HW241184   5.076   7.004  10.799  0.4758 -1.1866 -1.5220
11527SOL     OW41185   1.523   5.223   4.076 -0.0496  0.1100 -0.0652
11527SOL    HW141186   1.555   5.133   4.063  0.5698  0.2473  0.4435
11527SOL    HW241187   1.597   5.278   4.049  0.1756  0.4324  1.1398
11528SOL     OW41188   6.326  11.129   9.548  0.2644  0.3487 -0.1781
11528SOL    HW141189   6.329  11.041   9.511 -1.9789  1.3522 -3.0689
11528SOL    HW241190   6.235  11.156   9.539  0.9890  3.1848  0.1096
11529SOL     OW41191   3.880  11.430   7.144 -0.0871 -0.5140  0.0381
11529SOL    HW141192   3.928  11.511   7.129 -1.4473  0.3169 -0.0553
11529SOL    HW241193   3.945  11.369   7.179  1.4318 -0.0796 -1.8979
11530SOL     OW41194   9.325   9.293   8.978 -0.1866  0.6762 -0.1256
11530SOL    HW141195   9.286   9.231   8.916 -3.1960  0.7510  1.4972
11530SOL    HW241196   9.393   9.338   8.928 -1.2895 -0.4594 -2.8256
11531SOL     OW41197   0.491   1.071   7.330  0.7398 -0.1680 -0.2917
11531SOL    HW141198   0.424   1.139   7.317  0.2112 -0.7766 -0.8827
11531SOL    HW241199   0.565   1.100   7.276  0.4122 -0.1938 -0.7638
11532SOL     OW41200   5.592   7.889  11.263  0.2066 -0.1486  0.4778
11532SOL    HW141201   5.559   7.958  11.321 -2.1912 -1.1717  0.4384
11532SOL    HW241202   5.551   7.907  11.178  2.5534  0.5005 -0.6097
11533SOL     OW41203   4.580  11.629   3.249 -0.4201 -0.1874  0.0807
11533SOL    HW141204   4.598  11.553   3.305 -0.6559  0.6536  1.3489
11533SOL    HW241205   4.499  11.666   3.285 -1.1584 -0.2160 -1.4961
11534SOL     OW41206   6.013   6.896   8.947  0.3005 -0.1871 -0.4592
11534SOL    HW141207   5.921   6.874   8.954  0.5870 -1.4854 -0.6089
11534SOL    HW241208   6.028   6.905   8.852 -0.1701  2.3568 -0.3566
11535SOL     OW41209   3.619   2.742  10.213  0.3022  0.2709 -0.4506
11535SOL    HW141210   3.574   2.664  10.182 -0.9246  0.5839  0.4646
11535SOL    HW241211   3.710   2.714  10.224 -0.2852 -1.3302  0.7716
11536SOL     OW41212   1.157   7.102   7.477  0.3675 -0.4461 -0.0025
11536SOL    HW141213   1.213   7.086   7.401 -0.2447 -1.1523 -0.3154
11536SOL    HW241214   1.117   7.017   7.495 -1.7238  0.3487 -0.6725
11537SOL     OW41215   1.279   3.267   5.876  0.2480  0.7048  0.0522
11537SOL    HW141216   1.359   3.233   5.836 -1.3561 -0.6714 -2.1840
11537SOL    HW241217   1.219   3.282   5.803 -2.0004  0.5153  1.7327
11538SOL     OW41218   8.074   0.599   3.540 -0.0609 -0.4170 -0.1749
11538SOL    HW141219   8.016   0.616   3.465 -0.9984 -0.7449  0.4490
11538SOL    HW241220   8.088   0.504   3.537  1.1488 -0.2289 -0.8115
11539SOL     OW41221   5.984   5.971   3.644 -0.6685 -0.2667  0.5003
11539SOL    HW141222   6.006   5.927   3.561 -1.2526  0.7131 -0.1907
11539SOL    HW241223   5.916   6.034   3.620 -0.8341  0.0385  1.7349
11540SOL     OW41224   8.841   8.873   2.437 -0.5562 -0.1512 -1.0446
11540SOL    HW141225   8.863   8.919   2.519  0.0518  0.2983 -1.4495
11540SOL    HW241226   8.892   8.919   2.370  0.2299 -1.5303 -1.4378
11541SOL     OW41227   1.261   4.290   6.200 -0.4030  0.5445  0.0996
11541SOL    HW141228   1.219   4.261   6.120  0.7675 -1.7151  0.2211
11541SOL    HW241229   1.285   4.209   6.246  0.7624  1.7416  1.7500
11542SOL     OW41230   7.504  10.646  10.026 -0.0743 -0.4338  0.2418
11542SOL    HW141231   7.448  10.682   9.958 -0.7481 -2.5062 -0.3734
11542SOL    HW241232   7.452  10.651  10.106  0.2687  0.8908  0.4202
11543SOL     OW41233   2.940   3.943  12.596 -0.0175  0.0009 -0.3332
11543SOL    HW141234   2.850   3.960  12.565 -0.2661 -0.7723 -0.0400
11543SOL    HW241235   2.971   4.029  12.623 -0.2008  0.5179 -1.6504
11544SOL     OW41236   7.997   9.078   0.354 -0.4386 -0.0233 -0.2296
11544SOL    HW141237   7.961   9.164   0.372 -2.0328 -0.6544 -0.2624
11544SOL    HW241238   8.072   9.070   0.413 -0.9949  0.9092  0.6248
11545SOL     OW41239   9.819  12.530  12.440 -0.2805  0.3461 -0.6190
11545SOL    HW141240   9.877  12.545  12.514 -0.4110  1.7627 -0.7838
11545SOL    HW241241   9.757  12.464  12.471 -1.3212  2.0481  1.1207
11546SOL     OW41242   4.161  10.163   7.671 -0.3570 -0.2503  0.1998
11546SOL    HW141243   4.086  10.116   7.707 -0.9491  0.3159 -0.2687
11546SOL    HW241244   4.133  10.255   7.669  0.5490  0.0485  0.5342
11547SOL     OW41245   6.258  10.254   7.353  0.2452 -0.3237  0.2994
11547SOL    HW141246   6.350  10.246   7.329  0.2456  1.9270 -0.6264
11547SOL    HW241247   6.242  10.348   7.362 -1.8320 -0.6742  1.0388
11548SOL     OW41248  11.863   0.662   3.579  0.0892  0.2852 -0.2498
11548SOL    HW141249  11.946   0.641   3.623  1.9658  1.6600 -2.8546
11548SOL    HW241250  11.876   0.752   3.547 -3.3405  1.4440  1.1359
11549SOL     OW41251  10.129   3.122  10.799 -0.8878 -0.2146 -0.1054
11549SOL    HW141252  10.220   3.150  10.811  0.1265 -2.7212 -1.2996
11549SOL    HW241253  10.087   3.144  10.882  0.8977  0.6297  0.6473
11550SOL     OW41254   3.406   6.577   5.032 -0.0685 -0.1391  0.5682
11550SOL    HW141255   3.320   6.588   4.993 -0.6454  0.0142  1.8561
11550SOL    HW241256   3.447   6.663   5.026  0.3663 -0.4131 -0.8394
11551SOL     OW41257   8.152  10.432   6.703 -0.1423 -0.0615  0.3653
11551SOL    HW141258   8.138  10.405   6.794 -1.9981  1.4136  0.5837
11551SOL    HW241259   8.070  10.410   6.659  1.1523 -1.8332 -1.2765
11552SOL     OW41260   5.424   1.115  10.587 -0.1121 -0.1363  0.7714
11552SOL    HW141261   5.382   1.054  10.647 -1.1133 -0.3050 -0.0660
11552SOL    HW241262   5.492   1.062  10.544 -1.3152 -0.8554 -0.3271
11553SOL     OW41263  10.286   1.017   6.904 -0.3540 -0.1179  0.3287
11553SOL    HW141264  10.293   0.986   6.994 -1.8492 -1.3962  0.0445
11553SOL    HW241265  10.342   0.957   6.854  0.5389  0.6400  0.3858
11554SOL     OW41266  10.810  10.193   7.751 -0.3760  0.2328 -0.1855
11554SOL    HW141267  10.766  10.255   7.692 -0.7436 -0.7138 -0.9432
11554SOL    HW241268  10.821  10.240   7.833 -0.5432  1.3334 -0.7866
11555SOL     OW41269   4.641   3.568   4.123  0.1727  0.1538  0.1967
11555SOL    HW141270   4.560   3.591   4.079 -0.2300 -0.5068  0.5751
11555SOL    HW241271   4.687   3.651   4.135 -0.5705  0.5627  0.2303
11556SOL     OW41272   6.324   6.965  12.684  0.4030 -0.1629  0.5649
11556SOL    HW141273   6.229   6.962  12.693  0.3770  0.9294  0.8206
11556SOL    HW241274   6.357   6.911  12.756 -0.0226 -1.2962 -0.0640
11557SOL     OW41275   9.278   8.703  11.311  0.1022  0.2101 -0.3500
11557SOL    HW141276   9.271   8.624  11.366  0.5503  0.3009 -0.1604
11557SOL    HW241277   9.197   8.751  11.329  0.5219  0.5425  0.7171
11558SOL     OW41278   6.352   5.902   5.155  0.3782  0.5437  0.3349
11558SOL    HW141279   6.399   5.972   5.111  0.0987  1.6723  1.7229
11558SOL    HW241280   6.377   5.911   5.247 -0.8381 -0.2109  0.7687
11559SOL     OW41281   9.084   7.993   1.713  0.7646  0.1990 -0.0481
11559SOL    HW141282   9.161   8.049   1.702  0.4572  1.2354  2.3470
11559SOL    HW241283   9.010   8.047   1.684  0.7494 -0.1469 -0.6744
11560SOL     OW41284   0.937   0.848   2.788 -0.5571  0.0700 -0.1734
11560SOL    HW141285   0.978   0.931   2.809 -2.7782  1.0008  0.8442
11560SOL    HW241286   1.000   0.802   2.733  1.7313  1.3933  1.2142
11561SOL     OW41287  11.788  12.402   9.714  0.4946 -0.1087  0.3717
11561SOL    HW141288  11.709  12.456   9.709  0.9491  0.4932 -0.4669
11561SOL    HW241289  11.795  12.378   9.806  0.1197  1.0118  0.7076
11562SOL     OW41290   3.224   0.878   7.663  0.2230 -0.3095  0.1565
11562SOL    HW141291   3.183   0.823   7.730 -0.1434 -1.1722 -0.7323
11562SOL    HW241292   3.301   0.914   7.705 -1.1637  0.9772  1.7404
11563SOL     OW41293   3.789   0.617   7.332  0.0972 -0.0221  0.4990
11563SOL    HW141294   3.733   0.663   7.394 -0.4810  0.4010 -0.3275
11563SOL    HW241295   3.829   0.686   7.279  0.1730 -0.4016  0.0521
11564SOL     OW41296   1.689   4.017   1.874 -0.0346  0.4408 -0.0723
11564SOL    HW141297   1.650   4.085   1.818 -0.0026 -0.1174 -0.7827
11564SOL    HW241298   1.681   4.052   1.963  1.6905  2.2558 -0.5526
11565SOL     OW41299   0.511   1.620  12.146  0.2119 -0.0215 -0.3452
11565SOL    HW141300   0.476   1.709  12.158  0.6321  0.2075 -0.7902
11565SOL    HW241301   0.437   1.562  12.166 -0.5361  0.4574 -1.6554
11566SOL     OW41302   6.060   7.705   0.853 -0.4997  0.7917  0.5638
11566SOL    HW141303   6.011   7.644   0.908 -0.1614  0.4487  0.4905
11566SOL    HW241304   6.129   7.652   0.814 -0.1245  1.2482  0.5948
11567SOL     OW41305   6.929  12.309  10.160 -0.1578  0.9018  0.3919
11567SOL    HW141306   6.893  12.222  10.143 -1.1837  1.3541  0.2137
11567SOL    HW241307   6.956  12.340  10.074 -0.0462  0.8734  0.4163
11568SOL     OW41308   7.261   5.082   7.909  0.0815  0.0281  0.0347
11568SOL    HW141309   7.329   5.148   7.926 -0.5571  0.9534 -0.8778
11568SOL    HW241310   7.179   5.132   7.905 -0.7756 -1.1403  1.7131
11569SOL     OW41311   3.995   3.560   0.663  0.3984 -0.3546  0.4050
11569SOL    HW141312   3.948   3.601   0.591  0.8891  2.1116  1.3748
11569SOL    HW241313   4.085   3.552   0.631  0.3063 -0.6580  0.2206
11570SOL     OW41314   8.694  10.537  10.358  0.2123  0.1935  0.0573
11570SOL    HW141315   8.701  10.573  10.269 -0.8088 -1.9730 -0.9830
11570SOL    HW241316   8.773  10.483  10.368  0.9763  1.4450  1.0117
11571SOL     OW41317   8.756   5.942   9.909  0.0222 -0.6973 -0.5604
11571SOL    HW141318   8.800   5.892   9.840  1.1998 -0.7492  0.2123
11571SOL    HW241319   8.727   5.875   9.971 -1.3135 -0.6775 -1.1274
11572SOL     OW41320   0.803   0.024   4.423 -0.0431  0.1485  0.2198
11572SOL    HW141321   0.876  -0.008   4.477  1.1590 -0.5203 -1.6889
11572SOL    HW241322   0.733  -0.040   4.438  1.3016 -1.7773 -1.2299
11573SOL     OW41323   6.522   1.910   5.371  0.0395 -0.3968  0.0469
11573SOL    HW141324   6.481   1.830   5.338  1.3411 -1.2352  0.3873
11573SOL    HW241325   6.595   1.926   5.312 -1.3307  1.7012 -1.2066
11574SOL     OW41326   8.550   3.134   4.015  0.8438  0.1784  0.2116
11574SOL    HW141327   8.576   3.219   4.051  0.7433  1.0608 -1.6701
11574SOL    HW241328   8.605   3.071   4.061  1.5568  1.3392  1.0256
11575SOL     OW41329   8.328  11.045   0.347  0.1121  0.2692 -0.4177
11575SOL    HW141330   8.276  10.984   0.399 -1.2477  2.4520  0.9550
11575SOL    HW241331   8.405  11.063   0.401  0.9167 -0.7576 -1.1720
11576SOL     OW41332   0.098   0.337   9.201  0.1766  0.2327  0.0663
11576SOL    HW141333   0.098   0.414   9.257 -0.8640 -0.0002  0.4104
11576SOL    HW241334   0.013   0.295   9.218  0.8795 -1.1952  0.1884
11577SOL     OW41335   9.288  10.235   2.156  0.6076  0.4463 -0.0910
11577SOL    HW141336   9.233  10.302   2.196 -1.5620 -1.0525 -0.3425
11577SOL    HW241337   9.377  10.269   2.163 -0.1678  2.3251  1.7571
11578SOL     OW41338   4.719   4.763  10.841  0.3016  0.0350  0.2237
11578SOL    HW141339   4.788   4.762  10.907 -0.0302  1.5551  0.6443
11578SOL    HW241340   4.662   4.835  10.868 -0.4863 -0.0774 -1.0771
11579SOL     OW41341  10.137  10.513   7.654 -0.2114  0.5057 -0.1155
11579SOL    HW141342  10.137  10.606   7.631  1.1980  0.5054 -0.1978
11579SOL    HW241343  10.074  10.474   7.594 -0.5901  1.3516 -0.2918
11580SOL     OW41344  12.516  11.621  11.761 -0.3330  0.3581  0.0037
11580SOL    HW141345  12.444  11.662  11.713 -0.4898 -0.3933 -0.4246
11580SOL    HW241346  12.478  11.598  11.846 -0.8721 -0.8265 -0.5320
11581SOL     OW41347   3.906   6.470  10.957 -0.5022 -0.4559 -0.6329
11581SOL    HW141348   3.955   6.392  10.983  0.1237  0.0659 -0.2085
11581SOL    HW241349   3.914   6.529  11.032 -0.0111  0.4576 -1.3841
11582SOL     OW41350   4.225   9.808  12.230  0.3738  0.4374  0.4667
11582SOL    HW141351   4.213   9.713  12.227 -4.6521  0.8041 -0.0164
11582SOL    HW241352   4.268   9.824  12.313  0.3144 -2.2171  1.0959
11583SOL     OW41353   8.757   8.041  10.511 -0.7755  0.1323  0.0845
11583SOL    HW141354   8.836   7.992  10.492 -0.8484 -0.0380  0.2258
11583SOL    HW241355   8.716   8.054  10.425 -1.3242 -1.0061  0.1601
11584SOL     OW41356   9.608   3.130   9.721  0.1538 -0.8642 -0.6214
11584SOL    HW141357   9.538   3.091   9.773  0.3834 -0.4831 -0.0166
11584SOL    HW241358   9.567   3.202   9.674  0.2468 -0.2686  0.1801
11585SOL     OW41359   0.808   3.966   3.583  0.5010  0.5459 -0.1564
11585SOL    HW141360   0.875   4.000   3.642  0.2867  0.9815 -0.1566
11585SOL    HW241361   0.761   4.044   3.554  0.0681  0.2536 -0.2425
11586SOL     OW41362   6.157  12.411  12.770 -0.0373 -0.2165 -0.4483
11586SOL    HW141363   6.218  12.343  12.799 -0.7623 -0.9577 -0.6237
11586SOL    HW241364   6.159  12.406  12.674  0.8016  0.8313 -0.5010
11587SOL     OW41365   5.863  12.368   3.719  0.0736  0.4083  0.1351
11587SOL    HW141366   5.820  12.390   3.801  1.6087 -1.1205  1.4196
11587SOL    HW241367   5.846  12.275   3.707 -0.2654  0.6440 -1.3978
11588SOL     OW41368   9.716   8.533   8.542  0.3984  0.2110  0.6575
11588SOL    HW141369   9.711   8.583   8.624  0.0498  0.5740  0.4213
11588SOL    HW241370   9.805   8.498   8.540  0.0501 -0.8168  1.7820
11589SOL     OW41371   8.908   8.701   2.058  0.6292  0.0047  0.1284
11589SOL    HW141372   8.902   8.613   2.096 -0.3677  0.0452  0.0930
11589SOL    HW241373   8.981   8.742   2.104 -0.5238  0.0524  2.0319
11590SOL     OW41374   9.815  11.018   7.777  0.4701 -0.1234 -0.0148
11590SOL    HW141375   9.876  11.057   7.715  2.4354 -2.0370  0.6048
11590SOL    HW241376   9.827  10.924   7.767  0.1826 -0.5199  2.5671
11591SOL     OW41377  11.840   6.499   7.865 -0.3505 -0.3600 -0.5548
11591SOL    HW141378  11.749   6.513   7.838  0.0208 -0.1150 -1.7620
11591SOL    HW241379  11.880   6.586   7.863 -0.0246 -0.4996 -0.2750
11592SOL     OW41380   1.256   7.824   2.094  0.2956  0.0417  0.1992
11592SOL    HW141381   1.165   7.795   2.104  0.2127  0.5640  1.1224
11592SOL    HW241382   1.286   7.840   2.184  1.5818 -0.9353 -0.0237
11593SOL     OW41383   5.210  12.744   6.041 -0.1900 -0.8898  0.2009
11593SOL    HW141384   5.167  12.720   5.960  0.4386  0.3885 -0.5467
11593SOL    HW241385   5.285  12.684   6.048  0.6176 -0.0594 -0.9666
11594SOL     OW41386   1.756   0.788   2.690  0.0091  0.3870  0.0524
11594SOL    HW141387   1.845   0.799   2.724 -0.5042  1.1377  1.2276
11594SOL    HW241388   1.703   0.847   2.743 -1.1029  0.4230 -1.0528
11595SOL     OW41389   1.266   4.224   4.991  0.1285 -0.3999 -0.2630
11595SOL    HW141390   1.327   4.164   4.947  0.8120 -1.2400  1.6999
11595SOL    HW241391   1.179   4.189   4.972  0.4787 -1.5198  0.1333
11596SOL     OW41392  11.175   4.851   3.400  0.3314 -0.2453  0.5937
11596SOL    HW141393  11.115   4.890   3.463  0.8042  0.2706  0.7320
11596SOL    HW241394  11.118   4.803   3.340 -0.2659  0.6480  0.4240
11597SOL     OW41395   4.394   2.921  12.563  0.4389 -0.4604  0.2346
11597SOL    HW141396   4.375   2.838  12.519 -0.0774  0.5988 -1.6653
11597SOL    HW241397   4.394   2.986  12.492  2.1574  0.9790  1.4612
11598SOL     OW41398   5.544  12.413   9.940 -0.0335 -0.8442  0.0769
11598SOL    HW141399   5.587  12.329   9.955  1.7515 -0.2822 -1.6103
11598SOL    HW241400   5.546  12.425   9.846 -1.4421  0.5137  0.1864
11599SOL     OW41401   2.122   4.659   8.847 -0.0228  0.0528 -0.0472
11599SOL    HW141402   2.161   4.605   8.916  1.4666 -0.5309 -1.2882
11599SOL    HW241403   2.115   4.746   8.885  0.6986 -0.2764  0.8773
11600SOL     OW41404   9.735   8.734  12.704  0.2517  0.2139 -0.2440
11600SOL    HW141405   9.731   8.819  12.748  0.4076  0.5243 -0.8170
11600SOL    HW241406   9.798   8.746  12.633 -2.4450  0.7798 -2.7294
11601SOL     OW41407   5.322  11.238   6.307 -0.0031  0.0086 -0.0128
11601SOL    HW141408   5.243  11.183   6.306  0.1673 -0.2411  0.2466
11601SOL    HW241409   5.290  11.326   6.327 -0.1867 -0.1375  0.3384
11602SOL     OW41410  12.436   7.104   4.750  0.3441 -0.0025 -0.0574
11602SOL    HW141411  12.391   7.020   4.746  1.0183 -0.3592 -0.4291
11602SOL    HW241412  12.427   7.141   4.662  2.4693 -1.0094 -0.7647
11603SOL     OW41413   3.095   6.398   3.964 -0.1856  0.3284  0.2256
11603SOL    HW141414   3.190   6.402   3.966 -0.1520 -0.2824  1.9141
11603SOL    HW241415   3.071   6.355   4.047 -1.9625  1.3828  0.3131
11604SOL     OW41416   3.777   2.302   5.105  0.4841  0.0044  0.3172
11604SOL    HW141417   3.753   2.279   5.195  1.9924 -0.0773  0.7235
11604SOL    HW241418   3.696   2.291   5.056 -0.0653 -1.2370  1.4164
11605SOL     OW41419  12.572   1.182   9.575 -0.1386 -0.1512 -0.2034
11605SOL    HW141420  12.590   1.115   9.509  2.0098  1.2869 -1.2096
11605SOL    HW241421  12.610   1.262   9.538 -0.9085  1.2083  1.7927
11606SOL     OW41422   7.358   0.812  11.323 -0.0333  0.0212  0.2738
11606SOL    HW141423   7.423   0.813  11.253 -1.1411 -2.3294 -0.9156
11606SOL    HW241424   7.293   0.878  11.297  0.3293  0.2270 -0.1118
11607SOL     OW41425   1.568  12.221  10.166 -0.8215 -0.1148 -0.8259
11607SOL    HW141426   1.615  12.163  10.105  0.9846  0.4715 -0.0780
11607SOL    HW241427   1.567  12.173  10.249  0.3746  0.7137 -0.2936
11608SOL     OW41428   6.970   4.692   3.806  0.2733  0.3265  0.0239
11608SOL    HW141429   6.993   4.679   3.898 -0.9167  1.7256  0.5565
11608SOL    HW241430   7.053   4.681   3.759  1.2933  1.4342  1.4572
11609SOL     OW41431  12.010   4.393   0.340  0.5529 -0.7974  0.0862
11609SOL    HW141432  11.965   4.459   0.288  0.0717 -1.0924  0.1240
11609SOL    HW241433  11.984   4.309   0.302 -0.9639 -1.1014  1.6729
11610SOL     OW41434   2.865   8.082  12.632  0.7369 -0.2580  0.4137
11610SOL    HW141435   2.820   8.054  12.712  1.4761 -0.3379  0.8188
11610SOL    HW241436   2.943   8.128  12.664 -0.4573  2.3644 -0.2186
11611SOL     OW41437   5.396   2.153   2.780 -0.1190  0.1923 -0.3621
11611SOL    HW141438   5.391   2.101   2.700 -0.7241  0.0497 -0.2385
11611SOL    HW241439   5.489   2.177   2.788 -0.3727  2.0452 -2.2509
11612SOL     OW41440   5.873   4.107   9.343  0.0261  0.0845  0.2958
11612SOL    HW141441   5.968   4.099   9.348 -0.0227 -0.3934  0.5668
11612SOL    HW241442   5.853   4.194   9.376  0.4051  0.3732 -0.2157
11613SOL     OW41443   1.739   6.020   1.083 -0.6228 -0.2743  0.3340
11613SOL    HW141444   1.649   5.991   1.071 -0.5016 -0.4098 -0.2811
11613SOL    HW241445   1.783   5.995   1.002 -0.1061  0.0717  0.5039
11614SOL     OW41446  10.379   3.089  10.249 -0.3856 -0.0585 -0.9466
11614SOL    HW141447  10.431   3.170  10.250  1.6294 -1.2793 -0.2942
11614SOL    HW241448  10.313   3.102  10.316  0.8355  0.5179  0.1839
11615SOL     OW41449  11.945   9.799  12.366 -0.1623 -0.2732 -0.0825
11615SOL    HW141450  11.991   9.770  12.287 -0.5982  1.0480 -0.8379
11615SOL    HW241451  11.985   9.883  12.388 -1.8220  0.6345 -0.4295
11616SOL     OW41452   0.159   2.377   1.891 -0.3475  0.2428  0.9500
11616SOL    HW141453   0.084   2.370   1.950 -1.3335  0.5263 -0.2362
11616SOL    HW241454   0.162   2.292   1.846  1.8216 -0.8875  2.9739
11617SOL     OW41455   9.055   4.333   2.774 -0.2145  0.5386 -0.0386
11617SOL    HW141456   9.022   4.251   2.810 -0.9141  1.0431  0.5043
11617SOL    HW241457   8.996   4.354   2.702  0.6296  0.0067 -0.8997
11618SOL     OW41458   3.842   2.890   2.114 -0.2697  0.1091 -0.3486
11618SOL    HW141459   3.767   2.851   2.159  0.8443 -0.9953  0.6136
11618SOL    HW241460   3.829   2.868   2.021 -0.7554 -0.6808 -0.0959
11619SOL     OW41461   0.253   6.570   1.045 -0.7962  0.1695 -0.6130
11619SOL    HW141462   0.215   6.541   0.962 -1.0656 -0.2946 -0.3358
11619SOL    HW241463   0.339   6.529   1.047 -0.3141  1.1174 -1.1829
11620SOL     OW41464   7.462  11.611   5.346 -0.3227  0.0015 -0.5698
11620SOL    HW141465   7.510  11.545   5.296  1.3719  0.6732  0.0982
11620SOL    HW241466   7.516  11.627   5.423 -2.0218  0.2626  0.6039
11621SOL     OW41467   6.034  11.529   7.852  0.0866  0.3654 -0.4543
11621SOL    HW141468   6.072  11.572   7.928 -0.3663 -0.7285  0.4111
11621SOL    HW241469   6.043  11.593   7.781  2.3719  0.6296  0.0036
11622SOL     OW41470   0.145   1.151   5.098  0.0254 -0.6178 -0.2779
11622SOL    HW141471   0.057   1.188   5.104  0.3016 -0.2107  2.2652
11622SOL    HW241472   0.200   1.223   5.067 -0.1519 -0.1073  0.5620
11623SOL     OW41473   1.167  12.499   3.724 -0.5749  0.3209 -0.0365
11623SOL    HW141474   1.196  12.447   3.649  0.9390 -0.9443  1.3217
11623SOL    HW241475   1.249  12.524   3.768 -1.4197 -0.7682  2.3080
11624SOL     OW41476   4.833   0.518  12.452  0.6364  0.1482 -0.4164
11624SOL    HW141477   4.754   0.571  12.444  0.9973  0.7056 -0.3622
11624SOL    HW241478   4.819   0.466  12.531  1.3347  2.0452  1.0525
11625SOL     OW41479   2.734  11.661   4.325  0.3962  0.9538 -0.3309
11625SOL    HW141480   2.660  11.636   4.381  0.6047 -1.0036 -0.8702
11625SOL    HW241481   2.757  11.749   4.354 -1.6140  1.2875  0.4066
11626SOL     OW41482   4.386   8.261   4.743  0.4748 -0.1429  0.6324
11626SOL    HW141483   4.454   8.198   4.719  0.0735 -0.0426 -0.8388
11626SOL    HW241484   4.426   8.315   4.812  1.2708 -1.1577  0.9815
11627SOL     OW41485   3.786   8.319  11.052  0.2390 -0.4992 -0.7391
11627SOL    HW141486   3.710   8.376  11.041  1.4452  1.4839  0.6145
11627SOL    HW241487   3.759   8.235  11.014 -2.8553 -0.0856  0.2910
11628SOL     OW41488   0.500   4.759   9.238  0.1433  0.0215 -0.3031
11628SOL    HW141489   0.508   4.822   9.310 -0.6002  0.5718 -0.6801
11628SOL    HW241490   0.584   4.714   9.235  0.9933  1.5455 -0.5204
11629SOL     OW41491   6.105   8.879  10.331 -0.0680  0.5000  0.8335
11629SOL    HW141492   6.114   8.785  10.317 -2.3347  0.3777 -0.2635
11629SOL    HW241493   6.101   8.917  10.243 -0.2296  1.4881  1.2435
11630SOL     OW41494   0.063   9.782   1.396  0.5603 -0.3343  0.2513
11630SOL    HW141495   0.129   9.784   1.327  1.7477  0.7860  1.3718
11630SOL    HW241496   0.060   9.871   1.430 -1.9732 -0.1961 -0.1222
11631SOL     OW41497  12.607   7.750   9.020  0.2816 -0.2591 -0.4528
11631SOL    HW141498  12.693   7.749   9.063 -0.2234  0.9657  0.6629
11631SOL    HW241499  12.624   7.717   8.932  2.0366  0.5935 -0.4804
11632SOL     OW41500   1.626   7.825   8.502 -0.3317 -0.3489 -0.7886
11632SOL    HW141501   1.541   7.800   8.467 -0.8952 -0.0880  0.3559
11632SOL    HW241502   1.645   7.758   8.568  0.3419 -0.3929 -1.0196
11633SOL     OW41503   7.767   7.340   7.117 -0.5785  0.1435 -0.5479
11633SOL    HW141504   7.792   7.432   7.126 -0.7859  0.3674 -2.0240
11633SOL    HW241505   7.672   7.340   7.130 -0.8910  0.4790 -2.5880
11634SOL     OW41506   3.740  11.473   3.080  0.3726  0.3873  0.3237
11634SOL    HW141507   3.685  11.394   3.086 -0.2166  0.6393 -1.2589
11634SOL    HW241508   3.681  11.541   3.047  1.2588  1.0855  0.1245
11635SOL     OW41509  11.010   4.267   2.835  0.4901 -0.2642  0.0633
11635SOL    HW141510  11.023   4.361   2.844 -0.7353 -0.0995  0.2422
11635SOL    HW241511  11.085   4.237   2.784  0.8297  0.8224 -0.0957
11636SOL     OW41512  11.287   6.008   9.767 -0.6612 -0.1154  0.2872
11636SOL    HW141513  11.338   6.053   9.700 -0.3036  1.3788  1.5113
11636SOL    HW241514  11.197   6.036   9.752 -1.0136 -1.8200 -1.1287
11637SOL     OW41515   0.799   7.350   5.781 -0.3224  0.1274 -0.4464
11637SOL    HW141516   0.804   7.443   5.805 -1.7085 -0.0366  0.6032
11637SOL    HW241517   0.731   7.346   5.715 -1.8283 -0.3810  1.0649
11638SOL     OW41518   3.529   8.213   5.603  0.1512  0.1271  0.1057
11638SOL    HW141519   3.493   8.177   5.684  1.5865 -1.4432  0.1029
11638SOL    HW241520   3.611   8.255   5.630  1.3604 -1.6254 -0.6610
11639SOL     OW41521   9.741   8.658   1.770  0.6373  0.1663 -0.0194
11639SOL    HW141522   9.647   8.669   1.755  0.7098 -0.4382 -0.9639
11639SOL    HW241523   9.747   8.591   1.838  0.4076 -0.7317 -0.8772
11640SOL     OW41524   0.284   4.477   0.208 -0.0231  0.0190 -0.7364
11640SOL    HW141525   0.277   4.383   0.190 -0.1468 -0.6409  2.2307
11640SOL    HW241526   0.373   4.489   0.239 -0.4882  0.5395  0.4576
11641SOL     OW41527   4.345   9.461   8.675  0.5855 -0.1872  0.0150
11641SOL    HW141528   4.375   9.548   8.701 -0.4996  0.9020 -2.1090
11641SOL    HW241529   4.291   9.476   8.597 -0.1957 -2.7002 -0.0315
11642SOL     OW41530   0.886   9.783  11.055  0.7431  0.1402 -0.5257
11642SOL    HW141531   0.883   9.698  11.012  2.5669  0.9185 -2.3572
11642SOL    HW241532   0.797   9.817  11.047  0.0387 -1.4625  0.0356
11643SOL     OW41533   7.511   1.421   8.726  0.3355  0.0921 -0.3595
11643SOL    HW141534   7.577   1.404   8.659 -0.6564 -0.1533 -1.3132
11643SOL    HW241535   7.437   1.366   8.701 -0.5860  1.0646  0.1374
11644SOL     OW41536  12.326   6.017   8.275  0.5467  0.5427  0.0731
11644SOL    HW141537  12.362   6.013   8.363 -0.7074 -1.3412  0.5777
11644SOL    HW241538  12.396   5.982   8.219  0.6588 -0.1122  0.6054
11645SOL     OW41539  11.363   2.721   1.548  0.3369  0.0322  0.2519
11645SOL    HW141540  11.382   2.650   1.486  2.4783 -1.3272  2.2918
11645SOL    HW241541  11.433   2.784   1.535  0.7998 -0.2607  1.2279
11646SOL     OW41542   5.176   6.008   5.785 -0.1515  0.3756 -0.2989
11646SOL    HW141543   5.095   5.981   5.829  0.0630  1.0137  0.5014
11646SOL    HW241544   5.148   6.078   5.726  0.3541  3.5747  2.9529
11647SOL     OW41545   3.477   8.487   2.191  0.1782 -0.0297 -0.0602
11647SOL    HW141546   3.500   8.395   2.183  1.1963  0.0021  1.7758
11647SOL    HW241547   3.460   8.499   2.285  0.4559  1.7228 -0.1915
11648SOL     OW41548   1.834   0.395   5.693 -0.1317  0.0624 -0.4262
11648SOL    HW141549   1.869   0.404   5.781  0.3508 -0.8763 -0.5043
11648SOL    HW241550   1.874   0.314   5.660 -3.6027 -2.0970  0.1065
11649SOL     OW41551  10.492  10.930   0.045  0.4613 -0.4170  0.2012
11649SOL    HW141552  10.510  10.911   0.137  1.9859  1.1804  0.2766
11649SOL    HW241553  10.555  10.998   0.022 -0.6999  0.0657 -1.7053
11650SOL     OW41554  12.371   5.342   3.516 -0.1856 -0.5552 -0.4679
11650SOL    HW141555  12.279   5.320   3.531 -0.6982  1.4710 -0.2710
11650SOL    HW241556  12.371   5.396   3.437  0.6250  0.5122  0.2159
11651SOL     OW41557   5.589   0.869   8.542  0.2840 -0.2602 -0.8352
11651SOL    HW141558   5.515   0.921   8.511 -0.6704 -0.9011  0.2834
11651SOL    HW241559   5.555   0.822   8.618  1.5811 -1.2721 -0.8435
11652SOL     OW41560  12.355   2.218   2.321 -0.5702  0.1830  0.0888
11652SOL    HW141561  12.445   2.246   2.335 -0.2475 -0.8711  0.2402
11652SOL    HW241562  12.327   2.264   2.242  0.0439  0.6286  0.1207
11653SOL     OW41563   4.992   6.351   4.168 -0.1021  0.5443  0.2146
11653SOL    HW141564   4.947   6.322   4.089  1.0268 -0.9174  0.0755
11653SOL    HW241565   4.929   6.408   4.211 -1.3424  0.0977 -0.9275
11654SOL     OW41566   3.730  11.119   8.160  0.4485  0.6086  0.7205
11654SOL    HW141567   3.755  11.036   8.200 -0.3285  0.1409  0.2394
11654SOL    HW241568   3.784  11.125   8.081 -0.7236 -0.2789 -0.1791
11655SOL     OW41569  10.036  11.530   2.551 -0.1615  0.4051  0.2038
11655SOL    HW141570  10.067  11.452   2.598 -0.6728 -0.3495 -0.6754
11655SOL    HW241571  10.008  11.497   2.466 -1.2459  1.4164  0.1418
11656SOL     OW41572   4.205   9.675   9.043 -0.0381 -0.1910 -0.4925
11656SOL    HW141573   4.167   9.762   9.061 -2.2066 -1.4211  1.5292
11656SOL    HW241574   4.296   9.682   9.070  0.4336  1.9781 -2.3360
11657SOL     OW41575   6.151   1.518   5.835  0.3447  0.3220  0.0134
11657SOL    HW141576   6.196   1.592   5.795 -1.3720  0.7711 -1.2156
11657SOL    HW241577   6.070   1.554   5.869  0.0929 -0.7546  0.6216
11658SOL     OW41578   2.570   2.492   9.406  0.2954  0.3038 -0.1008
11658SOL    HW141579   2.608   2.548   9.473  0.2836  1.2020 -0.8313
11658SOL    HW241580   2.610   2.522   9.324  0.5792 -1.0001 -0.4766
11659SOL     OW41581   2.010   4.642   5.592  0.8053 -0.3242 -0.2273
11659SOL    HW141582   2.066   4.657   5.516 -0.0455 -1.9312 -1.2463
11659SOL    HW241583   2.019   4.721   5.645  1.8106  0.6454 -1.7562
11660SOL     OW41584   0.127  12.460   4.687  0.3352 -0.0896  0.2162
11660SOL    HW141585   0.190  12.464   4.616  0.1312  0.4441  0.0561
11660SOL    HW241586   0.145  12.538   4.740  0.3529 -0.3757  0.6342
11661SOL     OW41587   7.453   7.567   1.715  0.4775  0.2242  0.4305
11661SOL    HW141588   7.395   7.494   1.695 -0.9957  1.6265 -0.6992
11661SOL    HW241589   7.540   7.535   1.693 -0.1551 -1.0896 -0.3197
11662SOL     OW41590   5.898   6.331   7.943  0.3246 -0.1010  0.0348
11662SOL    HW141591   5.864   6.359   7.858  0.6279 -0.9369 -0.3724
11662SOL    HW241592   5.824   6.288   7.985 -0.3257  1.7526  0.9140
11663SOL     OW41593  12.348  12.055   6.685  0.1386 -0.0217 -0.4336
11663SOL    HW141594  12.357  12.113   6.761  1.2471 -0.3358 -0.3036
11663SOL    HW241595  12.362  12.111   6.610  1.4138 -0.1326 -0.3001
11664SOL     OW41596   6.875   8.425   2.676  0.5739  0.0356 -0.0273
11664SOL    HW141597   6.895   8.333   2.692  0.1017 -0.1457 -0.4655
11664SOL    HW241598   6.961   8.467   2.674  0.8039 -0.4204  0.0229
11665SOL     OW41599  10.231   9.981   9.083  0.1744  0.2661 -0.1302
11665SOL    HW141600  10.313   9.975   9.036 -0.5775 -1.9073 -1.2627
11665SOL    HW241601  10.213   9.892   9.114 -2.3877  0.3632 -1.0891
11666SOL     OW41602   7.264   0.912   5.117 -0.4101 -0.0361 -0.1608
11666SOL    HW141603   7.300   0.905   5.205 -2.8590 -0.1463  0.9118
11666SOL    HW241604   7.294   0.833   5.072 -0.2018 -0.6289  0.9936
11667SOL     OW41605   7.294   1.876   2.496  0.0524  0.5754 -0.8914
11667SOL    HW141606   7.341   1.959   2.505  0.6368  0.0534  1.9350
11667SOL    HW241607   7.203   1.901   2.483  0.1520  1.7152  0.3774
11668SOL     OW41608   0.958   9.985   9.806  0.1870  0.1906 -0.3339
11668SOL    HW141609   0.951   9.974   9.711  0.4961 -0.3484 -0.2973
11668SOL    HW241610   0.960  10.080   9.819  0.8262  0.2633 -0.9138
11669SOL     OW41611   5.479   5.644   8.852 -0.4196  0.2627 -0.0974
11669SOL    HW141612   5.523   5.699   8.918  0.3037 -0.0752 -0.2806
11669SOL    HW241613   5.395   5.621   8.891  0.6011 -1.1820  1.3760
11670SOL     OW41614   2.940   4.130   1.677  0.2042  0.0281 -1.0211
11670SOL    HW141615   2.916   4.046   1.716  0.7403  0.5287  0.4542
11670SOL    HW241616   3.034   4.139   1.695 -0.1497  1.6445  0.2739
11671SOL     OW41617   9.311   2.193   7.872 -0.3087  0.2918  0.0210
11671SOL    HW141618   9.374   2.251   7.914 -0.1824 -0.5156  0.9640
11671SOL    HW241619   9.311   2.113   7.925 -1.1946 -0.2070 -0.6874
11672SOL     OW41620   0.456   9.435   4.551 -0.1624 -0.3102  0.0343
11672SOL    HW141621   0.436   9.505   4.613  0.2724 -1.0238  1.0163
11672SOL    HW241622   0.415   9.357   4.589  3.3163 -1.6359  1.5878
11673SOL     OW41623   2.050  12.519  11.249 -0.3099 -0.0071 -0.1365
11673SOL    HW141624   2.100  12.592  11.211  0.2585  0.1891  0.9642
11673SOL    HW241625   1.975  12.509  11.190  0.4770  0.3614 -1.2424
11674SOL     OW41626  12.091   7.847   1.232 -0.5747 -0.2249  0.1010
11674SOL    HW141627  12.153   7.852   1.304  0.9036 -0.2958 -1.1008
11674SOL    HW241628  12.010   7.814   1.271  0.2554 -0.4991  1.6577
11675SOL     OW41629  12.012   4.316   2.786  0.5622  0.0693 -0.2334
11675SOL    HW141630  12.089   4.270   2.820 -0.8778 -2.2711  0.0659
11675SOL    HW241631  11.943   4.298   2.850  0.1865  3.9159  0.6601
11676SOL     OW41632   9.899   3.428   3.353 -0.2717 -0.5434  0.7061
11676SOL    HW141633   9.825   3.385   3.395 -1.1135  1.9495  1.9385
11676SOL    HW241634   9.954   3.356   3.321 -3.0320 -2.4653  0.0138
11677SOL     OW41635  10.839   9.096   7.025 -0.2243 -0.5008 -0.0515
11677SOL    HW141636  10.842   9.085   6.930  0.1997 -0.7924 -0.0083
11677SOL    HW241637  10.908   9.159   7.044  0.6668 -1.5252  0.1989
11678SOL     OW41638   5.390  11.754   0.459  0.0654  0.3254 -0.3407
11678SOL    HW141639   5.360  11.843   0.439 -1.0937  0.2825  1.0233
11678SOL    HW241640   5.434  11.725   0.379  1.7320  2.6298 -0.3663
11679SOL     OW41641   4.173  10.914   3.369 -0.2927  0.2948 -0.7319
11679SOL    HW141642   4.208  10.845   3.311 -0.4952  1.8898 -2.8926
11679SOL    HW241643   4.164  10.871   3.454  1.1840 -1.8667 -1.5587
11680SOL     OW41644   4.647   7.241   7.202  0.4286  0.4570 -0.0821
11680SOL    HW141645   4.556   7.260   7.227 -0.1902  0.9042 -2.3716
11680SOL    HW241646   4.687   7.328   7.192  0.8549  0.2827  0.1170
11681SOL     OW41647   0.582   5.471  11.316  0.2045  0.0233 -0.7197
11681SOL    HW141648   0.674   5.492  11.300  0.1544  0.1200 -0.8838
11681SOL    HW241649   0.577   5.376  11.302  0.1891  0.0858 -1.1703
11682SOL     OW41650   8.888   3.509   1.215 -0.2734  0.3354  0.1496
11682SOL    HW141651   8.795   3.510   1.240 -0.4927 -1.5070 -0.4673
11682SOL    HW241652   8.929   3.570   1.276 -1.5112 -0.6000  2.0318
11683SOL     OW41653  11.644   9.071   4.961 -0.3267 -0.1808 -0.2495
11683SOL    HW141654  11.709   9.137   4.984 -0.3189 -0.9351  2.1900
11683SOL    HW241655  11.585   9.069   5.036 -1.5657 -1.4582 -1.2076
11684SOL     OW41656   0.895   6.572   6.536 -0.3724 -0.8189 -0.3423
11684SOL    HW141657   0.902   6.477   6.541  1.9730 -0.7695 -1.1631
11684SOL    HW241658   0.972   6.604   6.582 -0.8508  0.6721 -0.5185
11685SOL     OW41659   6.880  10.381  11.785 -0.4539  0.2231  0.0983
11685SOL    HW141660   6.925  10.297  11.791 -1.1833 -0.0881  1.5611
11685SOL    HW241661   6.854  10.387  11.693  0.0243 -0.9363 -0.1282
11686SOL     OW41662   9.297  12.003   4.530  0.4031  0.7725 -0.4330
11686SOL    HW141663   9.235  12.073   4.507 -1.5058 -0.7569 -0.2291
11686SOL    HW241664   9.317  11.960   4.447 -1.0249 -0.4167 -0.2155
11687SOL     OW41665   5.380   0.927   4.832 -0.7094  0.3264  0.1704
11687SOL    HW141666   5.333   0.878   4.765 -1.8253  0.5849  0.7410
11687SOL    HW241667   5.325   1.004   4.848 -0.0292  0.6952  0.7781
11688SOL     OW41668   4.176   1.147   1.315 -0.5981 -0.4409 -0.4619
11688SOL    HW141669   4.268   1.170   1.328 -0.6080  0.1568 -1.3454
11688SOL    HW241670   4.140   1.139   1.403 -0.7003  3.3519  0.0017
11689SOL     OW41671   2.937   5.877   6.428  0.6500 -0.1313 -0.0845
11689SOL    HW141672   2.975   5.803   6.380  1.8691  0.6543 -0.3762
11689SOL    HW241673   2.972   5.954   6.384 -1.1870  0.6542 -0.2512
11690SOL     OW41674   9.222   3.040  10.161 -0.0081 -0.0375  0.2655
11690SOL    HW141675   9.193   3.111  10.219  0.2812 -0.7167  1.2633
11690SOL    HW241676   9.142   2.996  10.135 -0.2653  1.1066 -0.9912
11691SOL     OW41677   5.849   7.334   3.337  0.3260 -0.0536 -0.2476
11691SOL    HW141678   5.837   7.429   3.347 -1.3207 -0.3271  0.5962
11691SOL    HW241679   5.766   7.296   3.364  1.1047 -1.7821 -0.1744
11692SOL     OW41680  12.515   8.476   4.108 -0.2583 -0.0110 -0.5945
11692SOL    HW141681  12.438   8.421   4.095 -0.4248 -0.2729  1.1996
11692SOL    HW241682  12.581   8.417   4.145  0.6774  0.3037 -1.6994
11693SOL     OW41683  11.972  10.687  10.102  0.3141 -0.7518 -0.0727
11693SOL    HW141684  12.018  10.689  10.185 -0.0431 -1.0717  0.1360
11693SOL    HW241685  11.881  10.704  10.124  0.3027 -0.2996 -0.4622
11694SOL     OW41686   4.155   7.338   4.049  0.0522  0.2194 -0.3891
11694SOL    HW141687   4.169   7.292   4.131  1.4947  0.5042 -0.4456
11694SOL    HW241688   4.134   7.269   3.986  0.7077 -0.2010 -0.1544
11695SOL     OW41689   3.087   9.978  10.478 -0.5634  0.3193 -0.2163
11695SOL    HW141690   3.105   9.911  10.545 -0.1564 -0.2417 -0.8670
11695SOL    HW241691   3.157   9.966  10.414  1.2802  3.2960  1.0631
11696SOL     OW41692  10.000  11.683   2.912  0.4099 -0.3420  0.6497
11696SOL    HW141693   9.940  11.613   2.938 -0.5149 -0.4521 -1.5032
11696SOL    HW241694  10.087  11.650   2.932 -0.1607 -0.4681  3.2062
11697SOL     OW41695   4.693  11.734   1.414  0.4444 -0.1369  0.6774
11697SOL    HW141696   4.640  11.800   1.458  0.7451  0.7977 -0.3320
11697SOL    HW241697   4.781  11.770   1.412  0.6251 -0.5816  0.1661
11698SOL     OW41698   3.067   9.039   7.163 -0.2469 -0.1551  0.2505
11698SOL    HW141699   2.977   9.042   7.196 -0.1977  0.3806  0.3582
11698SOL    HW241700   3.107   9.119   7.198 -0.1219  0.3041 -0.9039
11699SOL     OW41701  10.052   4.529   1.479 -0.0841 -0.4946 -0.2929
11699SOL    HW141702  10.109   4.600   1.509  0.8449 -1.6818  0.8394
11699SOL    HW241703   9.965   4.553   1.509  0.3715 -0.2611  0.8779
11700SOL     OW41704   9.009   5.661   3.743  0.2185 -0.7064 -0.2628
11700SOL    HW141705   9.085   5.660   3.685  0.8903  1.1103  0.5264
11700SOL    HW241706   9.022   5.587   3.801  1.0070 -0.8413 -0.5995
11701SOL     OW41707  10.330   6.980   3.349 -1.0332  0.0298 -0.2009
11701SOL    HW141708  10.416   6.986   3.307  0.0108  2.0506  2.0077
11701SOL    HW241709  10.322   6.888   3.374  1.4697  0.1233  1.3152
11702SOL     OW41710   6.253   2.364   4.665  0.3771  0.4066  0.3818
11702SOL    HW141711   6.186   2.344   4.730 -0.3279 -1.3817 -0.8317
11702SOL    HW241712   6.210   2.426   4.605  0.0061 -0.2270 -0.0202
11703SOL     OW41713   1.869   6.136   1.584 -0.6923  0.4635 -0.1091
11703SOL    HW141714   1.904   6.091   1.661 -2.0320 -0.7216 -0.1496
11703SOL    HW241715   1.789   6.178   1.615 -1.7674 -0.8178 -1.0178
11704SOL     OW41716   6.509   7.970   9.501  0.0670 -0.4829 -0.7183
11704SOL    HW141717   6.545   7.912   9.434  1.2867 -1.3011  0.5964
11704SOL    HW241718   6.416   7.947   9.506  0.3497 -1.7150 -0.8480
11705SOL     OW41719  10.588   2.908   1.976  0.4436 -0.0506 -0.1364
11705SOL    HW141720  10.589   3.000   1.947  2.4105 -0.1489 -0.5121
11705SOL    HW241721  10.529   2.864   1.915 -1.7881  1.1724  0.9672
11706SOL     OW41722   8.665   8.085  11.740 -0.6365 -0.2186 -0.7877
11706SOL    HW141723   8.675   8.179  11.724  1.5812 -0.1220  0.6571
11706SOL    HW241724   8.711   8.043  11.668  0.3294 -0.0878 -0.2712
11707SOL     OW41725  12.062   0.431   3.789  0.4272 -0.0619 -0.2090
11707SOL    HW141726  12.028   0.393   3.870  1.0982 -0.3516 -0.0569
11707SOL    HW241727  12.055   0.526   3.803  0.7018 -0.1069  0.2620
11708SOL     OW41728   0.327   3.060  10.215 -0.0928 -0.1585 -0.3154
11708SOL    HW141729   0.320   3.069  10.120  1.5519 -1.4697 -0.6114
11708SOL    HW241730   0.368   3.141  10.244  0.8590 -0.3875 -0.9530
11709SOL     OW41731   4.638   1.768   3.169  0.0382 -0.0472 -0.5981
11709SOL    HW141732   4.627   1.696   3.231 -1.2902 -0.0020 -0.7536
11709SOL    HW241733   4.615   1.846   3.220 -1.3406 -0.0381 -1.1926
11710SOL     OW41734   8.550   7.862   7.676 -0.0376  0.4152  0.2703
11710SOL    HW141735   8.506   7.930   7.624  0.5460  0.8422  0.3254
11710SOL    HW241736   8.478   7.808   7.710 -0.5222  1.0864  0.3385
11711SOL     OW41737   0.027   6.301   2.643 -0.3343  0.4367 -0.1325
11711SOL    HW141738  -0.037   6.229   2.643  1.2510 -1.1128 -2.3663
11711SOL    HW241739   0.098   6.270   2.699  0.3724  0.2023 -1.1343
11712SOL     OW41740   9.589   6.556   5.006 -0.8856  0.3482  0.1744
11712SOL    HW141741   9.578   6.618   4.934  0.0177  0.8786  0.4736
11712SOL    HW241742   9.625   6.478   4.964 -1.6024  0.1698 -0.1341
11713SOL     OW41743  10.712   8.970   9.926 -0.0130  0.5078 -0.4472
11713SOL    HW141744  10.630   8.982   9.877 -0.9536 -2.6329  0.0908
11713SOL    HW241745  10.711   9.039   9.992 -2.4096  0.4056 -0.2894
11714SOL     OW41746   1.184   1.654   9.630  0.1764 -0.1456  0.0207
11714SOL    HW141747   1.089   1.670   9.626 -0.1715 -1.9443  0.2797
11714SOL    HW241748   1.215   1.668   9.541  0.2172  3.2536  0.4471
11715SOL     OW41749  11.645   4.092  12.643  0.3193 -0.0652  0.4408
11715SOL    HW141750  11.730   4.060  12.613  0.2167  0.5651 -0.5620
11715SOL    HW241751  11.613   4.022  12.700  1.2054 -0.6164  0.2959
11716SOL     OW41752  12.772   5.669  12.164 -0.1332  0.0566 -0.5521
11716SOL    HW141753  12.782   5.645  12.072 -3.0488 -0.2581 -0.8781
11716SOL    HW241754  12.789   5.763  12.166  0.4671 -0.0230 -1.3025
11717SOL     OW41755   3.280  11.405   4.803 -0.1368  0.3106  0.4271
11717SOL    HW141756   3.190  11.399   4.771  0.1676  0.4276 -0.4748
11717SOL    HW241757   3.291  11.329   4.859 -0.7988  0.2943  0.5390
11718SOL     OW41758   7.549   9.435  11.440 -0.1046  0.1547  0.2036
11718SOL    HW141759   7.497   9.355  11.452 -0.4833  0.5534  1.3120
11718SOL    HW241760   7.621   9.426  11.503  0.4527  0.2098 -0.4132
11719SOL     OW41761   0.418   0.465   4.210  0.2898  0.1231  0.1781
11719SOL    HW141762   0.474   0.424   4.144 -0.3679 -1.0861  0.3439
11719SOL    HW241763   0.466   0.455   4.292 -0.1792 -0.9831  0.3325
11720SOL     OW41764  12.367  11.667   9.791  0.0573 -0.2702  0.4158
11720SOL    HW141765  12.417  11.743   9.760 -0.4530  0.0757  0.4262
11720SOL    HW241766  12.433  11.601   9.811  0.6598  0.8398  2.2824
11721SOL     OW41767   7.542   3.462  10.652  0.1892  0.2473  0.1838
11721SOL    HW141768   7.503   3.408  10.584  1.3735 -1.1437  0.5598
11721SOL    HW241769   7.474   3.527  10.673 -0.8907 -0.4537 -0.9828
11722SOL     OW41770   5.766   4.840   4.588  0.3626 -0.5290  0.3175
11722SOL    HW141771   5.791   4.759   4.542  1.2452 -0.6327  0.9464
11722SOL    HW241772   5.849   4.885   4.603 -0.0286  0.0312  0.8351
11723SOL     OW41773   4.443   0.675   6.066 -0.1765  0.7090 -0.1895
11723SOL    HW141774   4.355   0.686   6.102  0.2063  0.1960  0.9502
11723SOL    HW241775   4.488   0.757   6.086 -0.2386  0.7684 -0.2957
11724SOL     OW41776   8.095   3.960   9.489 -0.2044 -0.0489  0.2227
11724SOL    HW141777   8.167   3.967   9.553 -0.4358  2.3191  0.3150
11724SOL    HW241778   8.037   4.033   9.510 -1.3734 -0.4516 -1.4058
11725SOL     OW41779   1.895   6.333  12.663  0.5305  0.7204 -0.6768
11725SOL    HW141780   1.839   6.392  12.613  0.1592  0.3096 -0.7515
11725SOL    HW241781   1.877   6.356  12.754 -1.7383 -1.1374 -0.5823
11726SOL     OW41782   8.724   8.225   2.734  0.4409 -0.3627  0.2471
11726SOL    HW141783   8.692   8.308   2.770 -0.8954 -1.0872  0.8198
11726SOL    HW241784   8.656   8.162   2.757  1.0709 -1.4750 -0.8442
11727SOL     OW41785   5.222   5.113   8.295  0.1401  0.4814  0.3176
11727SOL    HW141786   5.223   5.020   8.275  1.2500  0.8572 -1.7026
11727SOL    HW241787   5.310   5.132   8.327  0.2052  0.9734 -0.1246
11728SOL     OW41788   1.366   2.810   4.981  1.0991  0.2147 -0.1415
11728SOL    HW141789   1.400   2.721   4.974  0.3487 -0.0887 -0.0010
11728SOL    HW241790   1.325   2.826   4.896  0.1000 -0.0545  0.2841
11729SOL     OW41791   9.952   0.156   6.054 -0.3765  0.0263  0.6129
11729SOL    HW141792   9.928   0.102   5.979 -1.4243 -2.5102  2.6094
11729SOL    HW241793   9.870   0.197   6.081  0.3109  2.3550 -0.5441
11730SOL     OW41794   7.869   3.512  11.947 -0.4085  0.5384  0.2235
11730SOL    HW141795   7.928   3.462  12.004 -0.5306 -1.4863 -1.3021
11730SOL    HW241796   7.791   3.457  11.939 -0.7911  1.2208 -1.0674
11731SOL     OW41797   7.740   3.970  12.378  0.2953  0.0399 -0.5902
11731SOL    HW141798   7.658   3.922  12.371  1.2511 -2.0722  1.3286
11731SOL    HW241799   7.794   3.936  12.307  0.0784  0.1977 -0.8313
11732SOL     OW41800   4.832  12.672  10.614 -0.1216 -0.6274 -0.6871
11732SOL    HW141801   4.756  12.682  10.670  1.8575 -0.3798  2.1809
11732SOL    HW241802   4.846  12.577  10.609  0.1153 -0.6299 -0.0883
11733SOL     OW41803  12.146   9.489   2.584 -0.3202 -0.4328  0.0893
11733SOL    HW141804  12.196   9.524   2.510  0.5726 -0.4226  0.6859
11733SOL    HW241805  12.174   9.398   2.591 -1.3013 -0.7766 -0.3268
11734SOL     OW41806   0.070   7.347  10.851 -0.0171 -0.1722 -0.0718
11734SOL    HW141807   0.111   7.426  10.885 -0.9333  0.5674 -0.6097
11734SOL    HW241808   0.103   7.339  10.761  1.4201 -1.4080  0.5265
11735SOL     OW41809   0.449   7.919   5.800 -0.0244  0.0892 -0.4579
11735SOL    HW141810   0.518   7.877   5.850 -0.4969 -0.5681 -0.3442
11735SOL    HW241811   0.476   8.011   5.793 -0.2746  0.3659  1.5865
11736SOL     OW41812   7.100  11.987   4.066 -0.2187 -0.5954  0.7086
11736SOL    HW141813   7.059  11.908   4.030 -0.1360 -0.9521  1.3787
11736SOL    HW241814   7.173  11.954   4.118 -1.1633 -0.2077  2.3555
11737SOL     OW41815  10.819   7.369   6.781  0.6010  0.4146 -0.3347
11737SOL    HW141816  10.753   7.419   6.830  0.3175  1.1245 -1.4130
11737SOL    HW241817  10.779   7.353   6.696  1.4291 -0.0433 -0.6503
11738SOL     OW41818   4.724  11.360   3.207 -0.2092  0.2154 -0.4390
11738SOL    HW141819   4.670  11.336   3.283 -1.9465  0.1276 -1.6447
11738SOL    HW241820   4.743  11.453   3.220 -1.6873  0.5646 -0.5465
11739SOL     OW41821   7.285   0.687  12.037  0.2162 -0.6890 -0.1198
11739SOL    HW141822   7.251   0.748  12.103  1.7791  1.1915 -0.9577
11739SOL    HW241823   7.219   0.689  11.967  0.0735 -0.2493  0.0248
11740SOL     OW41824   4.125   4.204  10.672 -0.4175 -0.4628 -0.3564
11740SOL    HW141825   4.179   4.208  10.752 -2.8038  4.0667  1.3973
11740SOL    HW241826   4.183   4.236  10.603 -0.1065  2.4620  1.0992
11741SOL     OW41827   0.100   3.222   5.300  0.1413 -0.2390 -0.3516
11741SOL    HW141828   0.041   3.279   5.249 -0.0820 -0.1835 -0.0365
11741SOL    HW241829   0.188   3.252   5.276  0.0256  0.4642  0.0482
11742SOL     OW41830  12.211   6.750  10.870  0.2148 -0.2443  0.2723
11742SOL    HW141831  12.133   6.715  10.913 -0.2599 -1.1626 -1.2671
11742SOL    HW241832  12.235   6.683  10.807  0.6944  1.1962 -1.1270
11743SOL     OW41833  11.541   5.368   4.146 -0.0687 -0.1591 -0.1311
11743SOL    HW141834  11.524   5.278   4.117  2.0532 -0.1400 -1.5975
11743SOL    HW241835  11.504   5.423   4.077 -0.9201  0.1342  0.5258
11744SOL     OW41836   8.336  12.724   8.188 -0.1124  0.4971  0.2821
11744SOL    HW141837   8.427  12.739   8.164 -0.5698  1.8566 -0.7108
11744SOL    HW241838   8.292  12.703   8.105 -0.8715  0.7571  0.6080
11745SOL     OW41839  11.042  10.995   3.499 -0.2407 -0.3358  0.4186
11745SOL    HW141840  11.113  10.934   3.520 -0.0490 -1.3065 -2.5677
11745SOL    HW241841  10.987  10.947   3.437 -2.8409  0.8657  1.6342
11746SOL     OW41842   3.956   6.212   9.582 -0.0177 -0.5174  0.3959
11746SOL    HW141843   3.940   6.294   9.629 -0.7741 -0.0880 -0.5842
11746SOL    HW241844   4.031   6.229   9.527 -1.3133  0.1720 -1.2409
11747SOL     OW41845   2.614   1.927   2.604 -0.4598 -0.1210 -0.0920
11747SOL    HW141846   2.565   1.861   2.654 -1.8739  1.0638  0.1474
11747SOL    HW241847   2.546   1.983   2.566  0.5793 -0.6393 -2.9207
11748SOL     OW41848   3.188   1.371   7.822  0.3681  0.0260  0.1487
11748SOL    HW141849   3.236   1.366   7.739 -0.1750 -1.4341 -0.1086
11748SOL    HW241850   3.135   1.291   7.824 -0.2768  0.4563  1.5142
11749SOL     OW41851  12.224  11.383  10.644 -0.2948  0.4913  0.5499
11749SOL    HW141852  12.186  11.470  10.657  1.7535  1.1426  3.0747
11749SOL    HW241853  12.253  11.357  10.731  1.4959 -1.6092 -0.5814
11750SOL     OW41854   4.962  12.720  12.154 -0.5140 -0.3146  0.2551
11750SOL    HW141855   4.889  12.677  12.198 -0.7011  0.0920  0.3390
11750SOL    HW241856   5.019  12.648  12.126 -0.0871 -0.5569  1.6674
11751SOL     OW41857   9.348  12.076  10.209  0.3454 -0.3017  0.5387
11751SOL    HW141858   9.418  12.107  10.267  0.3792 -0.3848  0.5418
11751SOL    HW241859   9.353  12.134  10.133 -0.0601  0.1779  0.8643
11752SOL     OW41860   8.172   1.886   1.856 -0.0866  0.4651 -0.2932
11752SOL    HW141861   8.135   1.935   1.930  1.0567 -0.2266  0.7735
11752SOL    HW241862   8.265   1.909   1.855 -0.1337  0.6887 -1.7191
11753SOL     OW41863   9.460   1.601   5.858 -0.1622  0.3299 -0.0252
11753SOL    HW141864   9.481   1.691   5.836  1.2278  0.8146  2.8277
11753SOL    HW241865   9.539   1.552   5.839  0.2488  0.3547  1.5190
11754SOL     OW41866   8.752  11.045   5.821  0.0293  1.0304 -0.7023
11754SOL    HW141867   8.701  11.125   5.839 -1.0226  0.3261 -0.4589
11754SOL    HW241868   8.820  11.074   5.761 -1.1487  1.8590 -1.6978
11755SOL     OW41869   1.378  10.645  11.734 -0.0858  0.5991  0.1545
11755SOL    HW141870   1.473  10.636  11.731 -0.2237 -1.0129 -0.0720
11755SOL    HW241871   1.349  10.576  11.792 -1.2473 -0.1255 -1.2300
11756SOL     OW41872   2.267   9.841   3.283 -0.5514 -0.6186 -0.2250
11756SOL    HW141873   2.315   9.852   3.201 -0.5203 -0.1127 -0.1437
11756SOL    HW241874   2.197   9.907   3.278 -0.8546 -0.9277 -0.0678
11757SOL     OW41875   4.380  10.827   4.664  0.3222  0.0920 -0.2140
11757SOL    HW141876   4.316  10.893   4.692 -1.7114 -2.3532  1.4183
11757SOL    HW241877   4.348  10.797   4.579  0.5549  0.3603 -0.3975
11758SOL     OW41878  12.071   6.202  12.138  0.4268 -0.1478  0.0513
11758SOL    HW141879  12.031   6.225  12.054 -0.2641 -0.6275  0.2477
11758SOL    HW241880  12.094   6.110  12.129  2.1835  0.2792 -0.3262
11759SOL     OW41881   3.363   9.081   9.515  0.8093 -0.3636  0.3786
11759SOL    HW141882   3.389   9.149   9.577  0.7456  0.2058 -0.2108
11759SOL    HW241883   3.273   9.103   9.493  1.2323  0.1984 -0.8895
11760SOL     OW41884   8.622   0.117  10.831  0.7427  1.0008  0.2766
11760SOL    HW141885   8.717   0.105  10.824  0.7806  1.2849  0.2859
11760SOL    HW241886   8.596   0.061  10.904  0.5023 -1.1941 -1.3713
11761SOL     OW41887   0.365   2.805   6.431  0.1020 -0.1328  0.1759
11761SOL    HW141888   0.372   2.850   6.515  1.3726 -3.1184  1.8125
11761SOL    HW241889   0.274   2.820   6.404  0.2731  2.7677  0.8505
11762SOL     OW41890  12.418   0.254   5.393 -0.2907  0.1515 -0.4645
11762SOL    HW141891  12.407   0.183   5.330  1.2888 -0.9596  0.4439
11762SOL    HW241892  12.476   0.316   5.350 -0.9256  0.4561 -0.8989
11763SOL     OW41893   5.734  10.813  12.422  0.3058  0.6060  0.5027
11763SOL    HW141894   5.774  10.770  12.498  3.0717  0.3353 -0.9954
11763SOL    HW241895   5.782  10.895  12.412  2.0052 -0.5984 -2.5065
11764SOL     OW41896   8.788   3.126  10.552 -0.1356  0.2191 -0.0630
11764SOL    HW141897   8.722   3.179  10.596  0.0483  0.3618  0.0447
11764SOL    HW241898   8.746   3.041  10.538 -0.0685  0.0528  0.7238
11765SOL     OW41899   1.763   9.295   1.402  0.1327 -0.6196 -0.8936
11765SOL    HW141900   1.733   9.366   1.346 -0.7521  1.0476  1.5302
11765SOL    HW241901   1.686   9.271   1.454  1.4698 -0.1702  1.4663
11766SOL     OW41902  10.951   9.763   0.561  0.4087 -0.0173  0.0158
11766SOL    HW141903  11.010   9.760   0.637  0.0502  0.0775  0.3047
11766SOL    HW241904  10.986   9.833   0.506 -0.1402  0.8997  0.7924
11767SOL     OW41905   3.035   8.433   0.480 -0.4490  0.3393  0.3990
11767SOL    HW141906   3.048   8.418   0.574  0.8249 -0.9256  0.0577
11767SOL    HW241907   3.091   8.508   0.459  2.1417 -1.5469  0.0443
11768SOL     OW41908   2.512   3.021   0.307  0.3214 -0.2327  0.6354
11768SOL    HW141909   2.598   3.063   0.307  1.0615 -1.6099  2.7709
11768SOL    HW241910   2.452   3.092   0.329  1.0165  0.5403  0.1217
11769SOL     OW41911   7.824   9.187   6.320  0.6703 -0.2130 -0.1130
11769SOL    HW141912   7.845   9.182   6.413 -0.3531  3.1282  0.4425
11769SOL    HW241913   7.880   9.257   6.286 -2.7218  2.5693 -0.5884
11770SOL     OW41914   9.205  10.858   6.988  0.2964  0.5779  0.0038
11770SOL    HW141915   9.196  10.902   7.072  1.1049 -1.5254  1.2584
11770SOL    HW241916   9.115  10.846   6.958  0.0441  2.6583 -0.2079
11771SOL     OW41917   9.697  10.818   1.003  0.1198  0.5564 -0.0971
11771SOL    HW141918   9.651  10.764   0.938 -1.2532  1.5985 -0.0523
11771SOL    HW241919   9.682  10.773   1.086  0.0799  0.3360 -0.2208
11772SOL     OW41920   4.823   6.324   6.386  0.1749  0.1974  0.1404
11772SOL    HW141921   4.740   6.371   6.377 -0.0952 -0.4425 -0.8793
11772SOL    HW241922   4.835   6.279   6.303  1.3421 -0.0708  0.4236
11773SOL     OW41923  12.473   7.702   2.369 -0.1353  0.1673  0.1788
11773SOL    HW141924  12.426   7.670   2.291 -1.3656  1.2238  0.4556
11773SOL    HW241925  12.469   7.628   2.430  0.5867 -0.5687 -0.6166
11774SOL     OW41926   9.504   9.028   3.834  0.0833  0.0189 -0.3398
11774SOL    HW141927   9.587   9.029   3.883  0.8142 -0.8064 -1.5284
11774SOL    HW241928   9.453   9.099   3.874  1.9188  1.5376 -0.5114
11775SOL     OW41929  10.888  12.202   2.357  0.4388  0.1694 -0.3115
11775SOL    HW141930  10.974  12.161   2.357  0.8715  0.7200 -3.8905
11775SOL    HW241931  10.905  12.295   2.371 -0.0148 -0.0525  2.2835
11776SOL     OW41932  11.370   3.851  10.791 -0.2521 -0.0510 -0.5352
11776SOL    HW141933  11.437   3.785  10.773  2.3182  2.1445  0.3229
11776SOL    HW241934  11.364   3.854  10.886 -2.0321 -0.5783 -0.5999
11777SOL     OW41935   3.424  10.552   4.859  0.3716  0.4484  0.1259
11777SOL    HW141936   3.366  10.550   4.783  0.7697  0.7015 -0.1892
11777SOL    HW241937   3.403  10.472   4.908 -0.2721  0.5590  0.0431
11778SOL     OW41938   2.333   7.143   5.154 -0.3070 -0.0917  0.8140
11778SOL    HW141939   2.399   7.147   5.086 -1.1205  1.6812  0.0462
11778SOL    HW241940   2.252   7.122   5.108 -1.1475  2.5767  0.9202
11779SOL     OW41941  10.598   8.570   1.623 -0.2342  0.1470  0.3134
11779SOL    HW141942  10.525   8.533   1.574  1.4223 -0.2917 -2.0612
11779SOL    HW241943  10.605   8.515   1.701 -1.8648 -0.3535  0.1487
11780SOL     OW41944   0.093   0.257   7.434 -0.3877 -0.2575  0.3362
11780SOL    HW141945   0.017   0.209   7.468 -0.1755 -1.0325 -0.2503
11780SOL    HW241946   0.151   0.268   7.509 -0.7867 -0.2296  0.6437
11781SOL     OW41947   0.841  10.903   9.348 -0.6038 -0.4034 -0.8043
11781SOL    HW141948   0.839  10.992   9.312  1.8162 -0.0055 -0.1577
11781SOL    HW241949   0.768  10.858   9.307  0.6482  0.6290 -4.5459
11782SOL     OW41950   6.221   7.449  11.316  0.2992  0.0922  0.4517
11782SOL    HW141951   6.139   7.457  11.269 -0.7043  1.9527  2.3813
11782SOL    HW241952   6.278   7.401  11.256 -2.3555 -1.8861 -0.6817
11783SOL     OW41953   1.965   5.127   8.823  0.1790  0.7065  0.8084
11783SOL    HW141954   1.998   5.044   8.857  0.6526  0.6820  0.2980
11783SOL    HW241955   1.971   5.117   8.728  0.1814  1.3076  0.7467
11784SOL     OW41956   3.706   0.542   2.595 -0.9403 -0.0405 -1.2502
11784SOL    HW141957   3.695   0.472   2.531 -0.0450 -1.6770  0.3175
11784SOL    HW241958   3.800   0.557   2.599 -0.8644 -0.7923  0.4999
11785SOL     OW41959   3.526   4.810   4.363 -0.9271  0.2160 -0.1440
11785SOL    HW141960   3.611   4.805   4.407 -0.9740 -1.7317 -0.1908
11785SOL    HW241961   3.538   4.759   4.283 -1.3629  2.2417 -1.5696
11786SOL     OW41962   2.480  12.021   9.340 -0.2185 -0.0601 -0.0756
11786SOL    HW141963   2.540  12.095   9.332  1.3181 -1.1930  0.5841
11786SOL    HW241964   2.530  11.954   9.387 -2.8950 -0.0925  3.0286
11787SOL     OW41965   4.508   9.621   9.022  0.2207  0.5797 -0.1066
11787SOL    HW141966   4.594   9.639   9.061  0.6856  0.2216 -0.9402
11787SOL    HW241967   4.470   9.554   9.078  1.0512 -0.2327 -0.4897
11788SOL     OW41968   2.951  12.423   9.835  0.0217 -0.0428  0.6092
11788SOL    HW141969   2.914  12.500   9.792  2.1771 -0.0506 -1.4476
11788SOL    HW241970   2.907  12.420   9.920 -2.4118  1.6019 -0.4756
11789SOL     OW41971   6.804   5.779  12.402  0.2297 -0.1210 -0.4275
11789SOL    HW141972   6.800   5.803  12.310  1.6160  1.9282 -0.0113
11789SOL    HW241973   6.753   5.846  12.447 -1.1169 -1.5558  0.2632
11790SOL     OW41974   2.452  10.051   6.349  0.4459 -0.2672  0.2980
11790SOL    HW141975   2.434  10.142   6.369 -0.6336 -0.5586  0.6896
11790SOL    HW241976   2.530  10.054   6.294  0.3597  0.8924  0.2175
11791SOL     OW41977   7.426   1.501   1.268  0.2566  0.2160  0.0098
11791SOL    HW141978   7.466   1.502   1.355  0.9092  0.1939 -0.2817
11791SOL    HW241979   7.440   1.412   1.236 -0.3275  0.1107  0.0323
11792SOL     OW41980   7.075   8.062   0.185 -0.1140  0.1742  0.0705
11792SOL    HW141981   7.154   8.113   0.168 -0.1369 -0.0749 -0.8189
11792SOL    HW241982   7.066   8.006   0.109 -0.0069 -1.2867  1.0986
11793SOL     OW41983   7.724  11.336   1.357 -0.3436  0.3129  0.6894
11793SOL    HW141984   7.673  11.365   1.433 -0.7713  1.2783  0.0449
11793SOL    HW241985   7.685  11.382   1.283  1.7056  1.3881  0.2190
11794SOL     OW41986  12.025   4.561   6.164  0.2152  0.5797  0.6956
11794SOL    HW141987  11.949   4.602   6.123 -0.1366 -0.5452  0.1589
11794SOL    HW241988  12.000   4.551   6.256  0.1834  1.2551  0.7661
11795SOL     OW41989   5.985   6.722   2.665 -0.3842  0.0907 -0.1052
11795SOL    HW141990   5.919   6.661   2.633 -0.8815 -0.4542  1.7952
11795SOL    HW241991   5.936   6.785   2.718  0.6411 -0.9498  2.2494
11796SOL     OW41992   0.733   4.375   8.686 -0.1643 -0.7350 -0.2456
11796SOL    HW141993   0.663   4.329   8.642 -0.6083 -0.9610  0.6714
11796SOL    HW241994   0.753   4.449   8.629 -0.7851 -0.9669 -0.7693
11797SOL     OW41995   0.162   0.756   3.057 -0.2422  0.0599 -0.2002
11797SOL    HW141996   0.211   0.833   3.083 -1.9782  1.2036 -0.1226
11797SOL    HW241997   0.216   0.713   2.991  2.9003 -1.2346  2.9167
11798SOL     OW41998   9.020   6.765   3.572  0.2659 -0.4178  0.3012
11798SOL    HW141999   9.107   6.743   3.607  0.1390  1.2959  1.8229
11798SOL    HW242000   8.963   6.767   3.649 -1.0187 -0.8502 -0.5950
11799SOL     OW42001   8.114   9.099   2.044  0.2502 -0.1982  0.3052
11799SOL    HW142002   8.063   9.180   2.038  1.4476  0.5944  0.3693
11799SOL    HW242003   8.135   9.077   1.953  0.2737 -0.2101  0.3134
11800SOL     OW42004   2.467   5.526  10.379  0.5187  0.0196  0.5969
11800SOL    HW142005   2.467   5.618  10.406  1.6975  0.2111  0.0252
11800SOL    HW242006   2.532   5.522  10.308 -2.2821 -0.4429 -2.1815
11801SOL     OW42007  12.384  10.105   6.319 -0.2436  0.1358 -0.0079
11801SOL    HW142008  12.458  10.142   6.272 -0.6616  0.6072 -0.3155
11801SOL    HW242009  12.335  10.056   6.253 -0.7287  0.6422 -0.0386
11802SOL     OW42010   1.536  11.355   7.784 -0.2589  0.6617 -0.1233
11802SOL    HW142011   1.474  11.366   7.712  1.1409  0.8819 -1.3364
11802SOL    HW242012   1.530  11.437   7.833 -0.7144  0.8043 -0.4120
11803SOL     OW42013   9.858   9.238   6.959  0.3578  0.0438  0.2432
11803SOL    HW142014   9.904   9.182   6.897 -0.9215 -0.6911 -0.0756
11803SOL    HW242015   9.892   9.326   6.942  1.1327 -0.3761 -0.4356
11804SOL     OW42016   9.509   2.844   9.218 -0.7419  0.7720 -0.2823
11804SOL    HW142017   9.457   2.792   9.279 -1.2152  1.1737 -0.3270
11804SOL    HW242018   9.474   2.933   9.227 -0.5453  0.9126 -0.8376
11805SOL     OW42019   2.145   1.705   8.041 -0.0032  0.0036 -0.3502
11805SOL    HW142020   2.133   1.799   8.056  0.6063 -0.2511  2.1071
11805SOL    HW242021   2.230   1.698   7.999  0.6345  0.4831  0.8227
11806SOL     OW42022   1.694   8.013   2.640 -0.0736  0.4101  0.0690
11806SOL    HW142023   1.763   8.019   2.706  0.4811  0.0329 -0.4708
11806SOL    HW242024   1.633   7.947   2.674  0.6531 -0.4032 -0.2014
11807SOL     OW42025   6.887  11.214   2.896 -0.3082  0.1676 -0.2207
11807SOL    HW142026   6.826  11.191   2.966 -2.0114  0.3936 -1.5745
11807SOL    HW242027   6.907  11.130   2.854 -0.1263  0.1654 -0.1301
11808SOL     OW42028   1.264  11.783   3.062  0.4662 -0.0069 -0.0980
11808SOL    HW142029   1.345  11.733   3.066  0.0679 -0.6072  0.7308
11808SOL    HW242030   1.239  11.796   3.153  1.3133  2.9724 -0.1991
11809SOL     OW42031   8.979   1.669   5.628 -0.0168 -0.2026 -0.4754
11809SOL    HW142032   9.007   1.686   5.718  1.2574  0.8334 -1.0325
11809SOL    HW242033   9.010   1.580   5.611 -0.7939 -0.6361  0.2869
11810SOL     OW42034   4.334   6.708   6.145  0.4363  0.1468  0.2110
11810SOL    HW142035   4.321   6.648   6.071  0.4071 -0.3070  0.5826
11810SOL    HW242036   4.263   6.773   6.135 -1.8018 -1.8720  1.7956
11811SOL     OW42037  10.798   2.992   9.960  0.6501 -0.7480  0.1654
11811SOL    HW142038  10.768   2.923   9.900  1.4174 -0.6111 -0.3843
11811SOL    HW242039  10.832   2.945  10.036  1.4070 -0.9993 -0.3165
11812SOL     OW42040  10.420   2.233   9.475 -0.0588 -0.5699 -0.5266
11812SOL    HW142041  10.506   2.193   9.484 -0.5419 -1.4479  0.3891
11812SOL    HW242042  10.416   2.299   9.545 -0.5028 -1.2562  0.1139
11813SOL     OW42043   4.031  10.089   1.557 -0.5844 -0.1918  0.4157
11813SOL    HW142044   4.105  10.052   1.509 -0.7548  0.7518 -0.6339
11813SOL    HW242045   3.958  10.030   1.539 -0.6916  0.2476 -0.6750
11814SOL     OW42046   4.826   3.383  12.132  0.3875  0.3136  0.5948
11814SOL    HW142047   4.833   3.422  12.045  0.6051 -0.0382  0.4527
11814SOL    HW242048   4.891   3.313  12.132 -0.1278 -0.1691  0.7850
11815SOL     OW42049   2.145   1.868   7.703 -0.0625 -0.8042 -0.7526
11815SOL    HW142050   2.147   1.909   7.789 -0.7975  0.0014 -1.1100
11815SOL    HW242051   2.132   1.775   7.721 -0.9145 -0.5553 -0.0124
11816SOL     OW42052   6.730   4.907   2.940  0.2417 -0.0847 -0.0208
11816SOL    HW142053   6.793   4.954   2.994  0.8909 -1.3564  0.3560
11816SOL    HW242054   6.664   4.876   3.002  1.0361 -1.6257  0.0895
11817SOL     OW42055  12.472  11.328   3.799  0.3897  0.1561 -0.4555
11817SOL    HW142056  12.391  11.308   3.751 -0.2918  0.6621  0.4379
11817SOL    HW242057  12.464  11.279   3.881  2.5270 -2.4368 -1.6470
11818SOL     OW42058   3.567  11.876  11.622  0.3429  0.5860  0.0029
11818SOL    HW142059   3.559  11.970  11.641  0.8320  0.8678 -1.0866
11818SOL    HW242060   3.661  11.859  11.623  0.4502  0.7207 -2.4104
11819SOL     OW42061   8.629   8.564   0.871  0.0236  0.4410 -0.2866
11819SOL    HW142062   8.544   8.607   0.882 -0.2310 -0.5027  1.9186
11819SOL    HW242063   8.609   8.470   0.871  1.1331  0.1679  1.3294
11820SOL     OW42064   7.918   1.934   2.224  0.4305 -0.0388  0.1078
11820SOL    HW142065   7.911   1.982   2.306 -0.6151  2.6898 -1.4377
11820SOL    HW242066   7.969   1.991   2.167 -2.1779  0.0464 -2.3393
11821SOL     OW42067  11.976   9.265   1.014 -0.3333 -0.2815  0.1718
11821SOL    HW142068  12.050   9.314   0.977  0.3599 -0.7374  0.9164
11821SOL    HW242069  11.993   9.266   1.109 -0.7533 -1.2568  0.2600
11822SOL     OW42070   6.487   6.423  10.921 -0.4147 -0.4408  0.2013
11822SOL    HW142071   6.454   6.334  10.938  0.9392 -1.3409 -1.5954
11822SOL    HW242072   6.490   6.463  11.008 -2.8779 -1.4516  0.8623
11823SOL     OW42073  11.980   9.603   2.759  0.1277 -0.2681 -0.0107
11823SOL    HW142074  12.047   9.586   2.693 -0.0594 -1.3961  0.0790
11823SOL    HW242075  12.024   9.585   2.842  1.1234  3.4337  0.4259
11824SOL     OW42076   7.074  11.843   8.117  0.2910 -0.4455  0.7679
11824SOL    HW142077   6.984  11.844   8.085 -0.5014 -3.0065  2.6628
11824SOL    HW242078   7.068  11.812   8.207  3.1861 -2.6717  0.3399
11825SOL     OW42079   2.568   2.366   3.567 -0.2639 -0.1724 -0.4901
11825SOL    HW142080   2.574   2.273   3.545 -1.5960 -0.4807  0.3087
11825SOL    HW242081   2.519   2.404   3.494 -0.9168 -0.3776 -0.1719
11826SOL     OW42082   5.065   1.485   8.699  0.6320 -0.1227 -0.3081
11826SOL    HW142083   5.026   1.484   8.611  3.2619  0.0209 -1.5627
11826SOL    HW242084   4.989   1.487   8.758 -1.2410 -0.3119 -2.5339
11827SOL     OW42085  11.869   0.975  10.247 -0.6293  0.2610  0.0579
11827SOL    HW142086  11.833   0.941  10.328 -1.7507 -0.9974 -0.9258
11827SOL    HW242087  11.850   1.069  10.249 -0.8099  0.2100  1.1383
11828SOL     OW42088  10.897  11.328   5.065 -0.5957  0.5566 -1.1069
11828SOL    HW142089  10.906  11.258   5.129 -0.7293  1.2473 -0.3137
11828SOL    HW242090  10.859  11.285   4.988 -0.6955 -0.2322 -0.6325
11829SOL     OW42091  12.295  10.456   5.107  0.0217 -0.0383 -0.0915
11829SOL    HW142092  12.375  10.506   5.093  0.5422 -1.3139 -2.1114
11829SOL    HW242093  12.262  10.438   5.019 -1.5539 -0.9860  0.6469
11830SOL     OW42094  11.848   3.537   9.270  0.3332 -0.3036  0.2272
11830SOL    HW142095  11.761   3.558   9.238 -0.2046  0.8482  2.2442
11830SOL    HW242096  11.878   3.464   9.215 -1.0117  0.6465 -1.8660
11831SOL     OW42097   1.150   3.581   4.088 -0.0122  0.0367 -0.1388
11831SOL    HW142098   1.155   3.657   4.030  1.1378  1.4843  1.7291
11831SOL    HW242099   1.160   3.506   4.030  2.3086  1.4257 -1.7130
11832SOL     OW42100  11.237   4.713   3.971  0.3442 -0.1839  0.0135
11832SOL    HW142101  11.242   4.696   4.065  0.0051  0.7972  0.2150
11832SOL    HW242102  11.180   4.643   3.937  0.1976 -0.3414  0.5843
11833SOL     OW42103  10.812   7.404   9.882  0.5473 -0.0930 -0.3787
11833SOL    HW142104  10.742   7.362   9.933 -0.0117 -0.1045 -1.1349
11833SOL    HW242105  10.892   7.384   9.930 -0.1269  1.4485  1.5296
11834SOL     OW42106   6.617   8.617  11.817  0.1268 -0.1722  0.3011
11834SOL    HW142107   6.543   8.621  11.756 -0.0105  0.7287  0.5170
11834SOL    HW242108   6.622   8.705  11.855  1.5601 -0.0918 -0.0027
11835SOL     OW42109   5.172   7.514  12.688  0.1262  0.2944  0.5506
11835SOL    HW142110   5.265   7.491  12.680  0.1201  0.6583 -0.7670
11835SOL    HW242111   5.153   7.500  12.781  1.6300  0.7280  0.9616
11836SOL     OW42112  12.128   5.177   1.393 -0.3902  0.3757 -0.2872
11836SOL    HW142113  12.108   5.089   1.362  0.4937 -0.0835  0.4044
11836SOL    HW242114  12.120   5.170   1.488  0.0059  0.9611 -0.2108
11837SOL     OW42115  12.492   6.483  12.667 -0.9852 -0.5060  1.0122
11837SOL    HW142116  12.569   6.443  12.708  1.3025  0.9783 -1.5262
11837SOL    HW242117  12.426   6.413  12.668  0.9828 -2.4837  1.6008
11838SOL     OW42118  11.541   5.222   2.397 -0.1291 -0.9199  0.7183
11838SOL    HW142119  11.544   5.202   2.304 -1.8565  2.6382 -0.3042
11838SOL    HW242120  11.630   5.207   2.428  1.1268 -0.0004 -2.0969
11839SOL     OW42121   6.793   8.542  11.307  0.4943  0.4760 -0.0683
11839SOL    HW142122   6.868   8.552  11.366  1.9162  0.5282 -1.7789
11839SOL    HW242123   6.802   8.454  11.271  0.4382  0.9074 -1.1762
11840SOL     OW42124   0.068   2.007   5.153 -0.5397  0.0449 -0.3633
11840SOL    HW142125   0.014   2.023   5.230 -0.8934 -0.6499 -0.4634
11840SOL    HW242126   0.006   1.980   5.085 -0.0619 -0.8939 -0.4429
11841SOL     OW42127  10.309  12.095   1.628 -0.2972  0.1118  0.1358
11841SOL    HW142128  10.241  12.068   1.566  0.1590  0.1217 -0.3675
11841SOL    HW242129  10.350  12.171   1.588 -0.4917  0.5739  0.7962
11842SOL     OW42130  10.204   5.722  12.627  0.1833 -0.2009 -0.1690
11842SOL    HW142131  10.142   5.679  12.567 -1.0013 -0.1968  0.9972
11842SOL    HW242132  10.258   5.650  12.660  1.0168 -0.1709 -1.3932
11843SOL     OW42133   7.193   8.195   1.322 -0.3192  0.8713 -0.0279
11843SOL    HW142134   7.226   8.200   1.412 -1.1307 -0.2393  0.3587
11843SOL    HW242135   7.223   8.110   1.290 -1.7244  0.3744 -0.0841
11844SOL     OW42136   7.715   2.584   3.623  0.4274 -0.3625 -0.8656
11844SOL    HW142137   7.647   2.532   3.667 -1.1061 -0.3868 -3.1284
11844SOL    HW242138   7.779   2.519   3.595  1.7800 -0.2884  1.7563
11845SOL     OW42139   9.930  10.825   3.027 -0.0494 -0.0029  0.4475
11845SOL    HW142140   9.838  10.806   3.006  0.5353 -1.7746 -0.7045
11845SOL    HW242141   9.947  10.908   2.981 -0.2361 -1.2615 -2.0849
11846SOL     OW42142   5.052   0.086  10.913 -0.2447  0.6077 -0.0402
11846SOL    HW142143   4.986   0.064  10.978  0.6119 -0.6558  0.4242
11846SOL    HW242144   5.136   0.064  10.953  0.2684 -1.0639 -1.8538
11847SOL     OW42145   5.123  10.609   7.603  0.0771  0.0969 -0.6532
11847SOL    HW142146   5.207  10.628   7.644 -0.2419 -1.6373  0.9153
11847SOL    HW242147   5.143  10.547   7.534  0.1327 -0.0394 -0.5147
11848SOL     OW42148   4.593   9.377  10.117 -0.4475  0.3558 -0.1231
11848SOL    HW142149   4.601   9.470  10.095  0.5001 -0.0990 -1.8804
11848SOL    HW242150   4.574   9.334  10.034 -3.6033 -0.7869  1.0294
11849SOL     OW42151   6.571   3.494  10.595 -0.2946 -0.0666  0.2725
11849SOL    HW142152   6.604   3.573  10.551  0.0519 -0.1527  0.3776
11849SOL    HW242153   6.504   3.527  10.655 -0.7626  0.0550 -0.3067
11850SOL     OW42154   3.048  10.356  12.703 -0.2021  0.3154  0.0236
11850SOL    HW142155   3.099  10.279  12.729  1.0735  1.0149 -0.2851
11850SOL    HW242156   3.003  10.330  12.623 -0.6482 -0.4408  0.5049
11851SOL     OW42157  11.247   6.969   2.725 -0.8536 -0.3601 -0.4600
11851SOL    HW142158  11.312   6.907   2.692 -1.4144 -1.1265 -0.1526
11851SOL    HW242159  11.296   7.051   2.735  0.1139 -0.9690 -0.0417
11852SOL     OW42160   5.058   3.479   5.578 -0.9056  0.4403 -0.1915
11852SOL    HW142161   5.096   3.442   5.658 -0.7135  0.2362 -0.3736
11852SOL    HW242162   4.975   3.434   5.567 -1.4440  1.2551  0.4887
11853SOL     OW42163  11.420   7.469   1.863 -0.2937  0.4384 -0.1336
11853SOL    HW142164  11.445   7.377   1.867  0.6743  0.7292  1.0136
11853SOL    HW242165  11.493   7.515   1.905 -0.6211  1.7569 -0.9715
11854SOL     OW42166  12.344   7.172   9.310  0.0700 -0.3021  0.5511
11854SOL    HW142167  12.379   7.084   9.295  0.5663  0.0317 -0.3192
11854SOL    HW242168  12.292   7.163   9.390 -1.9163 -1.9637 -0.8015
11855SOL     OW42169   6.548   6.589   4.336 -0.2232 -0.1518  0.1248
11855SOL    HW142170   6.551   6.554   4.246  0.8804 -0.7666  0.3795
11855SOL    HW242171   6.593   6.673   4.330 -0.9495  0.2257 -0.0687
11856SOL     OW42172   2.706   2.925   7.517  0.0452  0.4427  0.3562
11856SOL    HW142173   2.621   2.904   7.478  1.0149  0.8598 -2.1847
11856SOL    HW242174   2.730   2.847   7.566 -0.4634 -0.9076 -1.4310
11857SOL     OW42175   7.999   1.744   1.389 -0.7215  0.2171 -0.2254
11857SOL    HW142176   7.959   1.657   1.398 -0.3907 -0.2152 -2.3055
11857SOL    HW242177   8.055   1.753   1.466 -0.4301 -1.6140 -0.1786
11858SOL     OW42178   1.395  10.184   2.783  0.2188 -0.2271 -0.4094
11858SOL    HW142179   1.348  10.215   2.706  0.9560  1.7331 -0.1189
11858SOL    HW242180   1.406  10.090   2.769 -1.6949 -0.3060 -1.5713
11859SOL     OW42181   4.177   5.412  10.068  0.1719 -0.1052 -0.0357
11859SOL    HW142182   4.189   5.480  10.135 -0.8468  0.1011 -0.0519
11859SOL    HW242183   4.235   5.440   9.996 -0.0070  0.5953  0.0787
11860SOL     OW42184  11.675  11.212   8.225  0.0757  0.5308  0.2778
11860SOL    HW142185  11.621  11.236   8.300  2.0887  1.6011  1.4597
11860SOL    HW242186  11.713  11.127   8.249  0.3887  0.6712  0.2823
11861SOL     OW42187   5.280   8.216  11.081 -0.1394  0.3687  0.3173
11861SOL    HW142188   5.369   8.244  11.104  0.5510 -1.1084 -0.4435
11861SOL    HW242189   5.248   8.171  11.159 -0.1549  0.7050  0.5118
11862SOL     OW42190   1.835   7.391   3.267  0.4925 -0.1842  0.3785
11862SOL    HW142191   1.847   7.333   3.192 -1.7510 -0.2564  0.0058
11862SOL    HW242192   1.820   7.478   3.230  1.4746  0.1950  0.8416
11863SOL     OW42193   0.290   1.705   5.211  0.0193  0.0894  0.1784
11863SOL    HW142194   0.282   1.714   5.306 -2.2867  1.1666 -0.0397
11863SOL    HW242195   0.294   1.795   5.179  0.4691 -0.2568 -0.7687
11864SOL     OW42196  11.958   3.527   2.105 -0.3002  0.0891  0.4150
11864SOL    HW142197  11.917   3.582   2.171  2.8415  1.1873  1.6646
11864SOL    HW242198  12.052   3.531   2.125  0.6995 -0.7529 -3.2143
11865SOL     OW42199   5.570  10.291  10.369  0.0037 -0.0820 -0.0772
11865SOL    HW142200   5.621  10.211  10.360 -0.6646 -0.4770 -0.4170
11865SOL    HW242201   5.619  10.344  10.432 -0.7241 -1.7252  1.9995
11866SOL     OW42202   7.538   9.233   8.777  0.4119 -0.3701  0.0181
11866SOL    HW142203   7.506   9.315   8.741 -0.0121 -0.2047  0.7499
11866SOL    HW242204   7.471   9.207   8.840  1.1823 -0.5921  0.7615
11867SOL     OW42205   4.240  11.876   8.779  0.5340 -0.3556  0.0466
11867SOL    HW142206   4.235  11.928   8.698  1.0816 -1.8041 -0.9435
11867SOL    HW242207   4.330  11.886   8.808  0.1140  0.8912  1.0097
11868SOL     OW42208  11.751   4.880   2.829 -0.7780  0.4858 -0.2864
11868SOL    HW142209  11.817   4.939   2.792  1.4520 -1.7711 -0.1509
11868SOL    HW242210  11.718   4.927   2.906  1.2519  1.3691  0.0941
11869SOL     OW42211   2.936  11.358   3.251  0.0891 -0.2875  0.2046
11869SOL    HW142212   2.842  11.364   3.233 -0.3352 -0.9549  1.9127
11869SOL    HW242213   2.957  11.441   3.294  0.0889 -0.4740  0.5659
11870SOL     OW42214   5.003   2.453   5.858 -0.8998  0.4665  0.1205
11870SOL    HW142215   5.081   2.406   5.886 -1.2105 -0.7578 -0.9644
11870SOL    HW242216   4.943   2.448   5.932 -0.5982 -0.0788  0.3283
11871SOL     OW42217  10.995   7.248   7.878  0.5607  0.1802 -0.0243
11871SOL    HW142218  11.073   7.283   7.835  0.4887 -2.1169 -2.1743
11871SOL    HW242219  11.000   7.154   7.867 -2.4933 -0.0831 -0.1898
11872SOL     OW42220  10.238  10.679   4.923 -0.0718  0.0587  0.2990
11872SOL    HW142221  10.208  10.712   5.008 -1.8568 -0.1681 -0.2038
11872SOL    HW242222  10.165  10.625   4.891  0.7260 -0.1843 -1.2096
11873SOL     OW42223   7.316  12.365   1.278 -0.2101 -0.1940 -0.4124
11873SOL    HW142224   7.412  12.371   1.280 -0.2983  1.7748  0.7502
11873SOL    HW242225   7.298  12.274   1.253  1.9084 -0.0343 -2.9112
11874SOL     OW42226   7.359   1.247  12.599  0.6978  0.5483 -0.1673
11874SOL    HW142227   7.320   1.334  12.589 -1.6245 -0.5115 -1.1189
11874SOL    HW242228   7.397   1.227  12.514 -1.7494 -0.6294 -1.0783
11875SOL     OW42229   6.277   8.937   9.651 -0.2291  0.3604 -0.4970
11875SOL    HW142230   6.346   8.941   9.584  1.1752  1.3195  0.9258
11875SOL    HW242231   6.258   9.029   9.671  0.2376  0.1141  1.2274
11876SOL     OW42232  11.025   3.602   9.216  0.4829  0.5955  0.8669
11876SOL    HW142233  11.075   3.683   9.218 -0.2497  1.1733 -1.4241
11876SOL    HW242234  10.938   3.628   9.187  0.3327 -1.0170 -0.2858
11877SOL     OW42235  11.690   9.979  12.533  0.0091 -0.0747  0.3410
11877SOL    HW142236  11.784   9.981  12.513  0.2091  1.7306  1.3645
11877SOL    HW242237  11.659  10.067  12.515 -2.2636 -1.3637 -3.2088
11878SOL     OW42238   4.172   4.787  10.496 -0.0584  0.4318  0.6503
11878SOL    HW142239   4.266   4.778  10.515 -0.4317 -2.3540  1.6912
11878SOL    HW242240   4.131   4.796  10.582 -0.8207  0.8973  0.2517
11879SOL     OW42241   4.912  11.792   4.096  0.3927  0.2310  0.3275
11879SOL    HW142242   4.998  11.831   4.081 -0.0158  0.0689 -3.4131
11879SOL    HW242243   4.860  11.863   4.133  1.6817  0.7834  1.1745
11880SOL     OW42244  10.082   9.351   7.618  0.3679 -0.0316  0.0421
11880SOL    HW142245  10.095   9.328   7.526 -0.8617 -1.2248  0.1383
11880SOL    HW242246  10.165   9.328   7.660  0.7716  0.0829 -0.6838
11881SOL     OW42247   8.676   4.552  11.754  0.0266 -0.4745  0.2959
11881SOL    HW142248   8.644   4.477  11.705  2.2806 -1.7266  0.5841
11881SOL    HW242249   8.704   4.516  11.838 -1.8859  1.2902  1.8132
11882SOL     OW42250  10.322   2.858   0.781  0.7373 -0.0574 -0.2283
11882SOL    HW142251  10.405   2.822   0.749  0.2323 -1.7673  0.2757
11882SOL    HW242252  10.313   2.823   0.869 -0.2931  0.5111 -0.0852
11883SOL     OW42253   6.994   9.708   9.145  0.2550  0.3149 -0.2233
11883SOL    HW142254   6.927   9.716   9.213 -1.0428 -1.2163 -1.2553
11883SOL    HW242255   7.021   9.798   9.127 -0.8802  0.8901  0.8391
11884SOL     OW42256   7.359   2.051   5.140 -0.7082 -0.6556  0.5973
11884SOL    HW142257   7.352   1.983   5.072 -1.3048 -1.1507  1.1393
11884SOL    HW242258   7.416   2.012   5.206  1.8252  0.7310 -0.6552
11885SOL     OW42259   6.310   9.236  12.007 -0.9896 -0.2017  0.1798
11885SOL    HW142260   6.270   9.266  12.088 -2.1365 -0.6076 -0.2201
11885SOL    HW242261   6.373   9.169  12.034  0.5646  1.4711  0.9523
11886SOL     OW42262   9.939   1.212   2.240 -0.1725 -0.3216 -0.7121
11886SOL    HW142263   9.987   1.247   2.165 -1.5315  0.3650 -1.3115
11886SOL    HW242264   9.958   1.272   2.312 -0.3899  0.1301 -1.0295
11887SOL     OW42265   9.060   4.721   3.882  0.6635  0.1277 -0.1172
11887SOL    HW142266   9.032   4.813   3.883  1.7575  0.4709  0.8227
11887SOL    HW242267   8.982   4.673   3.909  0.8102  1.0435  2.2248
11888SOL     OW42268   3.293   6.142   4.737 -0.2025  0.3284  0.4165
11888SOL    HW142269   3.370   6.197   4.734  0.1671 -0.0024  2.3548
11888SOL    HW242270   3.225   6.198   4.774 -0.4520  0.1432  0.2434
11889SOL     OW42271   4.819   5.769   4.398 -0.1102  0.0916  0.2162
11889SOL    HW142272   4.785   5.802   4.314 -0.4955  0.0335  0.3477
11889SOL    HW242273   4.905   5.810   4.406 -1.0669  2.1034  0.9678
11890SOL     OW42274   7.070   0.525  10.152 -0.0045 -0.3976 -0.0595
11890SOL    HW142275   7.002   0.532  10.085  0.6416  2.7455 -0.5474
11890SOL    HW242276   7.149   0.559  10.110  1.2250 -1.3827  1.3404
11891SOL     OW42277   6.015   9.790   9.370 -0.3819  0.3546  0.2096
11891SOL    HW142278   6.022   9.880   9.401 -0.8127  0.4125  0.1413
11891SOL    HW242279   5.921   9.770   9.372 -0.1428 -0.7949  2.2160
11892SOL     OW42280   2.409   2.861   1.278  0.4099 -0.2585  0.7877
11892SOL    HW142281   2.393   2.894   1.367  1.8186  1.4788  0.4667
11892SOL    HW242282   2.332   2.887   1.229 -0.2349 -0.9419  1.4200
11893SOL     OW42283   9.923   1.048   1.386 -0.7333 -0.5300 -0.0864
11893SOL    HW142284   9.915   1.099   1.305 -2.2043 -2.3471 -1.1810
11893SOL    HW242285   9.972   0.970   1.360 -0.1943 -0.6020  1.0782
11894SOL     OW42286   2.112  12.034   5.488  0.8612  0.2469 -0.0563
11894SOL    HW142287   2.117  11.941   5.510  0.3351 -0.1358 -1.4677
11894SOL    HW242288   2.203  12.063   5.487  1.1155 -0.5302 -0.6700
11895SOL     OW42289   5.325   6.122   4.917 -0.5309 -0.3269 -0.0126
11895SOL    HW142290   5.416   6.152   4.918 -1.1351  1.5860  0.6501
11895SOL    HW242291   5.326   6.041   4.968  0.7108 -0.1042  0.3432
11896SOL     OW42292   3.229  12.289  10.394  0.8191  0.1876  0.0243
11896SOL    HW142293   3.172  12.237  10.451 -0.7090  0.9746 -0.7202
11896SOL    HW242294   3.216  12.379  10.424  1.1498  0.4491 -0.6077
11897SOL     OW42295  10.415   6.425  11.849 -0.1040  0.1364 -0.7565
11897SOL    HW142296  10.445   6.402  11.762 -0.1127  0.6527 -0.8989
11897SOL    HW242297  10.328   6.384  11.856 -0.0572  0.0052 -0.9470
11898SOL     OW42298  12.017   8.895   5.482  0.3475  0.2702 -0.4620
11898SOL    HW142299  12.086   8.929   5.427  0.4314 -0.3465 -0.7479
11898SOL    HW242300  11.936   8.925   5.441  0.4168  2.9568  1.1246
11899SOL     OW42301   1.392  11.517  12.319 -0.2483  0.1986  0.4498
11899SOL    HW142302   1.310  11.545  12.359 -0.3325 -0.5501  0.8215
11899SOL    HW242303   1.458  11.578  12.353 -0.3252 -0.4013  1.7311
11900SOL     OW42304  11.203   1.175   7.354  0.2791 -0.0351  0.7989
11900SOL    HW142305  11.281   1.186   7.408 -0.1990 -1.4040  1.8419
11900SOL    HW242306  11.236   1.143   7.270  1.0185  1.9478  0.2929
11901SOL     OW42307   7.444   4.792   0.364 -0.2525 -0.5272 -0.6577
11901SOL    HW142308   7.373   4.727   0.363 -0.0642 -0.7973  0.8892
11901SOL    HW242309   7.405   4.870   0.323 -0.8419 -1.2429 -1.5073
11902SOL     OW42310   2.191   4.219  11.876  0.5273 -0.0829 -0.1865
11902SOL    HW142311   2.197   4.262  11.791 -1.3857 -1.5728 -1.1654
11902SOL    HW242312   2.207   4.127  11.857 -2.2653 -0.8063  0.6022
11903SOL     OW42313   0.268   7.409   2.450 -0.4206 -0.1453 -0.2873
11903SOL    HW142314   0.342   7.350   2.434  0.4101  0.8346 -0.1714
11903SOL    HW242315   0.240   7.390   2.539  0.7424  0.5794  0.2523
11904SOL     OW42316   6.216   1.865   1.131 -0.0358  0.0307  0.0096
11904SOL    HW142317   6.245   1.942   1.083  0.2514 -0.5257 -0.7292
11904SOL    HW242318   6.121   1.870   1.131 -0.0053  1.0932  1.1603
11905SOL     OW42319   8.081   1.835   4.528 -0.0558  0.4592 -0.4460
11905SOL    HW142320   7.997   1.791   4.525 -0.8458  1.9626 -1.7863
11905SOL    HW242321   8.102   1.841   4.622 -2.0925  1.2311  0.0150
11906SOL     OW42322  10.510   9.490   8.740 -0.2402 -0.4535 -0.4425
11906SOL    HW142323  10.515   9.529   8.652 -0.4628 -0.4983 -0.4751
11906SOL    HW242324  10.511   9.396   8.725  0.0733 -0.4617 -0.3753
11907SOL     OW42325   0.667  11.423   3.833 -0.6916  0.3893  0.2726
11907SOL    HW142326   0.677  11.327   3.833 -2.2134  0.1903 -0.9346
11907SOL    HW242327   0.573  11.437   3.827 -0.4164  1.9348 -1.2150
11908SOL     OW42328  12.546   7.910  12.551  0.3198  0.0641  0.0408
11908SOL    HW142329  12.498   7.924  12.469  0.5363 -2.7743 -0.6603
11908SOL    HW242330  12.517   7.825  12.582  0.8454  0.7211  2.5517
11909SOL     OW42331  10.345   4.349  11.582 -0.7591  0.3297 -0.3577
11909SOL    HW142332  10.403   4.354  11.506 -0.8961  0.1392 -0.4766
11909SOL    HW242333  10.374   4.270  11.628 -1.1905  0.0029 -0.6385
11910SOL     OW42334   4.940   6.644  10.463  0.1512  0.3672 -0.4230
11910SOL    HW142335   4.980   6.630  10.549  2.2369  1.1364 -1.2144
11910SOL    HW242336   5.000   6.602  10.402 -1.2236 -0.0292 -1.5459
11911SOL     OW42337   6.831   0.919   9.965  0.1793 -0.2311 -0.0426
11911SOL    HW142338   6.776   0.934   9.888 -0.5058 -1.2081  0.2383
11911SOL    HW242339   6.902   0.864   9.933  0.4598  0.2141 -0.1923
11912SOL     OW42340  11.487  12.547   7.552  0.0204  0.4796  0.0115
11912SOL    HW142341  11.419  12.582   7.494 -0.3010  0.2289  0.2328
11912SOL    HW242342  11.551  12.509   7.492  0.0908  0.9409 -0.2084
11913SOL     OW42343   5.092   9.788   1.705  0.3608 -0.2358  0.0380
11913SOL    HW142344   5.032   9.828   1.768  1.1852  1.4398 -0.1938
11913SOL    HW242345   5.048   9.707   1.679 -0.5872 -0.3535  1.7988
11914SOL     OW42346  10.367   9.198   9.403  0.0752  0.1224  0.5559
11914SOL    HW142347  10.453   9.220   9.438 -0.4422  1.0774  1.2860
11914SOL    HW242348  10.347   9.268   9.341 -0.3924  0.2022  0.7883
11915SOL     OW42349  11.483  10.243  10.228 -0.1009  0.3293  0.1338
11915SOL    HW142350  11.401  10.262  10.183 -0.0118 -1.2517 -0.7719
11915SOL    HW242351  11.538  10.320  10.210 -1.2551  1.2873  0.5261
11916SOL     OW42352   3.467   7.137   9.407  0.0868 -0.1995  0.1723
11916SOL    HW142353   3.553   7.167   9.435  0.6806 -1.2466 -0.4728
11916SOL    HW242354   3.424   7.108   9.487  1.0072 -1.2943  0.2914
11917SOL     OW42355  10.245  12.216   8.888 -0.3897 -0.1603  0.2920
11917SOL    HW142356  10.272  12.306   8.870 -3.4653  1.1519  1.5322
11917SOL    HW242357  10.267  12.202   8.980  1.0906 -1.1329 -0.1861
11918SOL     OW42358  11.102   4.186   5.540  0.0180  0.2944 -0.0088
11918SOL    HW142359  11.127   4.095   5.555  0.9073  0.5428  0.0687
11918SOL    HW242360  11.175   4.237   5.574 -0.2941  1.0285 -0.4127
11919SOL     OW42361   6.928  10.005  10.509 -0.3884  0.3048  0.0172
11919SOL    HW142362   7.013  10.024  10.469 -1.9084  2.4975 -2.5964
11919SOL    HW242363   6.904  10.086  10.554 -1.7827  0.4196 -0.8306
11920SOL     OW42364  12.239   8.587   8.819 -0.6876 -0.2949  0.3788
11920SOL    HW142365  12.305   8.656   8.811 -0.9098  0.0827  1.6123
11920SOL    HW242366  12.189   8.610   8.897 -0.2439 -2.2716  1.3158
11921SOL     OW42367   4.951   1.746   3.016 -0.2161 -0.1177 -0.2596
11921SOL    HW142368   4.870   1.794   3.035 -0.9519 -0.8440 -1.4785
11921SOL    HW242369   5.020   1.812   3.028 -0.7962  0.1357  2.3091
11922SOL     OW42370   5.069   3.236  12.201 -0.3322 -0.1757  0.0969
11922SOL    HW142371   5.081   3.298  12.273 -0.8789  1.0325 -0.8010
11922SOL    HW242372   5.120   3.274  12.129 -0.7784 -0.7151 -0.5077
11923SOL     OW42373   1.748   1.362  12.529 -0.2596  0.0770  0.4035
11923SOL    HW142374   1.763   1.428  12.461  0.9003  0.6150  1.1341
11923SOL    HW242375   1.708   1.289  12.483  0.9304  0.2237 -0.9647
11924SOL     OW42376   5.292  10.537   2.978 -0.2231  1.1727 -0.4513
11924SOL    HW142377   5.288  10.459   2.922 -0.1758  1.1618 -0.4394
11924SOL    HW242378   5.285  10.610   2.917 -1.7244  1.1487 -0.3481
11925SOL     OW42379  11.043   2.174  10.026  0.2409 -0.2241 -0.0074
11925SOL    HW142380  11.043   2.224   9.945  1.0903  0.1571  0.2209
11925SOL    HW242381  10.967   2.116  10.018  0.3672 -0.2573 -1.1052
11926SOL     OW42382   1.524   4.362  10.863  0.0483  0.0464 -0.0445
11926SOL    HW142383   1.589   4.431  10.851  0.4947 -0.5242 -1.0870
11926SOL    HW242384   1.471   4.366  10.783 -2.1343  1.4228  1.3567
11927SOL     OW42385   5.650  10.358   1.900 -0.9484  0.2619  0.2765
11927SOL    HW142386   5.610  10.324   1.979  2.3652  0.8449  2.4004
11927SOL    HW242387   5.659  10.452   1.915  2.3338  0.0142  0.6608
11928SOL     OW42388  12.383  10.312   8.262 -0.1121 -0.5323  0.5493
11928SOL    HW142389  12.437  10.301   8.184 -2.5949 -0.8974 -1.2002
11928SOL    HW242390  12.388  10.406   8.281  0.6861 -0.4756  0.1326
11929SOL     OW42391   5.651   8.092   6.515  0.2782 -0.5668 -0.0301
11929SOL    HW142392   5.647   8.183   6.485  1.0011 -0.7237 -0.6369
11929SOL    HW242393   5.728   8.056   6.472  0.3950 -1.2775  0.7471
11930SOL     OW42394   1.624   2.062   2.050 -0.8798 -0.0918 -0.1347
11930SOL    HW142395   1.550   2.110   2.087 -0.2930  1.4861 -0.9143
11930SOL    HW242396   1.648   2.112   1.972  2.2930  0.6361  1.1459
11931SOL     OW42397   3.183   3.069  11.791  0.6859  0.3134 -0.2541
11931SOL    HW142398   3.187   2.988  11.740 -0.7707 -1.1185  1.7570
11931SOL    HW242399   3.253   3.060  11.856  0.9776  1.0113 -0.4622
11932SOL     OW42400   2.236  10.313   9.743 -0.2122  0.3756  0.7768
11932SOL    HW142401   2.262  10.231   9.785 -1.0635  0.3201  1.2199
11932SOL    HW242402   2.233  10.377   9.814 -2.7201  0.0360  1.0701
11933SOL     OW42403   9.797   4.140  11.751  0.1996 -0.0107 -0.2966
11933SOL    HW142404   9.722   4.117  11.697  0.2277  0.5761 -0.5916
11933SOL    HW242405   9.873   4.104  11.705 -0.0258 -2.0571  0.8297
11934SOL     OW42406   8.801   7.261   5.307 -0.2285  0.1083  0.0712
11934SOL    HW142407   8.820   7.176   5.269 -0.6742  0.3839 -0.7941
11934SOL    HW242408   8.752   7.307   5.239 -1.1545  0.5686  1.0295
11935SOL     OW42409  11.251   3.779   1.408 -0.0421  0.0305 -0.1175
11935SOL    HW142410  11.252   3.683   1.410 -0.5818  0.0298  0.2330
11935SOL    HW242411  11.198   3.801   1.332  0.9368  0.0633 -0.8184
11936SOL     OW42412   8.199   1.809   0.076  0.0610  0.4884 -0.2088
11936SOL    HW142413   8.281   1.825   0.029 -0.7931  1.3411 -1.4752
11936SOL    HW242414   8.183   1.890   0.124 -0.2519  0.4883 -0.3077
11937SOL     OW42415   3.078  11.064   8.775 -0.2714 -0.1893 -0.6722
11937SOL    HW142416   3.126  11.005   8.832 -1.7364 -0.4009  0.4151
11937SOL    HW242417   3.120  11.149   8.787  1.1282 -0.7499 -1.3827
11938SOL     OW42418   0.022  12.557   8.377 -0.9867  0.1475 -0.4816
11938SOL    HW142419  -0.015  12.513   8.301 -0.6198  1.7121 -1.6272
11938SOL    HW242420  -0.012  12.647   8.371  0.5948  0.8184  0.0887
11939SOL     OW42421   4.691   8.998   2.467 -0.4300 -0.8345 -0.5487
11939SOL    HW142422   4.786   9.006   2.458 -0.1630 -0.3221  2.0187
11939SOL    HW242423   4.668   8.925   2.409  1.6058 -1.3672 -0.7645
11940SOL     OW42424   9.423   7.467   6.830 -0.0999 -0.0347 -0.6252
11940SOL    HW142425   9.374   7.412   6.770  0.1931 -0.2409 -0.6753
11940SOL    HW242426   9.454   7.408   6.898 -2.0849  0.4856  0.8367
11941SOL     OW42427   0.724   6.192  12.144  0.7950  0.1822  0.4397
11941SOL    HW142428   0.781   6.266  12.166  0.2079  0.0639  2.5850
11941SOL    HW242429   0.741   6.128  12.212 -0.3178 -0.7618 -0.1401
11942SOL     OW42430   6.322  10.467   6.954 -0.1912 -0.2480  0.0230
11942SOL    HW142431   6.241  10.415   6.956 -0.1225 -0.3537  0.0525
11942SOL    HW242432   6.390  10.406   6.982 -0.0659 -0.2263 -0.2272
11943SOL     OW42433   2.356  11.304   2.555  0.5072  0.1441  0.3205
11943SOL    HW142434   2.446  11.336   2.543  0.1309  1.5778  1.0589
11943SOL    HW242435   2.366  11.211   2.576  2.0251  0.7276  2.6089
11944SOL     OW42436  10.154   0.338   8.810  0.1097  0.2165 -0.0547
11944SOL    HW142437  10.168   0.373   8.722 -1.8735  0.7212 -0.2041
11944SOL    HW242438  10.172   0.244   8.802 -0.4208  0.1941 -1.0829
11945SOL     OW42439   8.654   6.942   3.767 -0.1102 -0.0346  0.2008
11945SOL    HW142440   8.668   6.876   3.836 -0.5767 -0.0936  0.2400
11945SOL    HW242441   8.743   6.967   3.741  0.0784 -0.6585  0.2067
11946SOL     OW42442   3.322   2.090   0.410 -0.1879  0.0395 -0.0851
11946SOL    HW142443   3.308   2.073   0.317  2.4515  0.7771 -0.7052
11946SOL    HW242444   3.301   2.182   0.421  0.2551  0.1536 -0.1545
11947SOL     OW42445  11.176   7.835   7.386 -0.1492 -0.1489 -0.1943
11947SOL    HW142446  11.247   7.797   7.334 -0.2857 -1.2942  0.4148
11947SOL    HW242447  11.111   7.765   7.393 -1.5551  1.0111 -1.0954
11948SOL     OW42448   5.501   3.631  12.015 -0.3469 -0.0449 -0.3131
11948SOL    HW142449   5.501   3.567  11.944 -1.9372 -0.8695  0.3904
11948SOL    HW242450   5.594   3.648  12.031  0.0672  0.8611 -3.1639
11949SOL     OW42451   6.435   9.641   5.134 -0.2328  0.0093 -0.2779
11949SOL    HW142452   6.461   9.727   5.101 -1.2475 -0.2804 -1.9921
11949SOL    HW242453   6.377   9.659   5.207  0.7988  0.7369  0.3782
11950SOL     OW42454   5.619   7.585   0.207 -0.2438 -0.2361  0.3312
11950SOL    HW142455   5.609   7.643   0.283  1.6056  0.1241  0.3401
11950SOL    HW242456   5.621   7.645   0.132 -0.9228 -0.5079  0.0892
11951SOL     OW42457   4.496   9.775   2.050 -0.6563  0.3990 -0.2094
11951SOL    HW142458   4.541   9.848   2.092  1.1208  0.6176 -2.3149
11951SOL    HW242459   4.426   9.751   2.112 -0.6957  3.2029  0.9816
11952SOL     OW42460   1.537   2.308   9.009  0.1597  0.0333 -0.6992
11952SOL    HW142461   1.559   2.281   8.920  0.6577  1.6042 -1.0839
11952SOL    HW242462   1.556   2.231   9.063  0.0480 -0.8657 -1.9114
11953SOL     OW42463   1.311   3.749   1.631  0.5961  0.3763 -0.2026
11953SOL    HW142464   1.381   3.774   1.570  2.3364  0.0308  1.5195
11953SOL    HW242465   1.251   3.697   1.579  1.5003  0.8854 -1.8342
11954SOL     OW42466   7.860  11.721  11.927  0.6727 -0.1513  0.1955
11954SOL    HW142467   7.863  11.761  12.014  1.0620 -0.3197  0.2660
11954SOL    HW242468   7.872  11.794  11.866  0.8919 -0.0958  0.3050
11955SOL     OW42469   4.214   6.985   4.664  0.1336  0.4468 -0.5477
11955SOL    HW142470   4.215   6.933   4.745  0.2790  0.7778 -0.3352
11955SOL    HW242471   4.168   7.065   4.688  1.6087  1.2648 -0.3499
11956SOL     OW42472   4.314  11.522   9.501  1.0800  0.1776 -0.4971
11956SOL    HW142473   4.350  11.598   9.546  1.3153 -0.1948 -0.0548
11956SOL    HW242474   4.306  11.455   9.569  1.3402 -0.3569 -0.9857
11957SOL     OW42475   0.489   2.694   2.858 -0.5009 -0.3128 -0.4406
11957SOL    HW142476   0.547   2.769   2.871 -0.6947 -0.3521  0.6658
11957SOL    HW242477   0.533   2.621   2.901 -1.4217 -0.3183  0.5150
11958SOL     OW42478   9.947   5.266   0.718  0.3703 -0.2270 -0.6113
11958SOL    HW142479   9.922   5.231   0.804 -1.7855  3.3930  0.4541
11958SOL    HW242480  10.010   5.336   0.738 -0.5985  1.0553 -1.8692
11959SOL     OW42481   8.150   8.694   0.581  0.7286  0.2884 -0.1514
11959SOL    HW142482   8.244   8.679   0.580  0.6403 -0.3995  0.7967
11959SOL    HW242483   8.114   8.622   0.632 -0.1815  1.2334  0.5997
11960SOL     OW42484   6.452   1.438   1.719  0.3160  0.2503  0.8967
11960SOL    HW142485   6.377   1.496   1.707 -0.1960  0.0653  2.9832
11960SOL    HW242486   6.524   1.497   1.743  0.8033  0.3790 -0.6987
11961SOL     OW42487   1.965  11.383   0.807  0.0390  0.2763 -0.0656
11961SOL    HW142488   2.023  11.420   0.873  2.3437 -0.6684 -1.4425
11961SOL    HW242489   1.877  11.402   0.839  1.0756  2.4490  1.7450
11962SOL     OW42490   8.128   1.542   0.904  0.2310 -0.3398 -0.1929
11962SOL    HW142491   8.122   1.450   0.878  0.4211 -0.7710  1.2338
11962SOL    HW242492   8.093   1.545   0.993  0.3510  0.9539 -0.1647
11963SOL     OW42493  11.376   0.772   4.823 -0.6765  0.3718  0.1664
11963SOL    HW142494  11.322   0.843   4.858 -1.8336 -1.1056  1.5006
11963SOL    HW242495  11.448   0.765   4.885 -0.0000  1.0211 -0.5260
11964SOL     OW42496   2.469  12.161   8.563  0.2196 -0.0977  0.0670
11964SOL    HW142497   2.558  12.142   8.591  0.8219  1.7772 -0.4826
11964SOL    HW242498   2.474  12.245   8.518 -2.1101  0.9136  1.4825
11965SOL     OW42499   0.902   1.294   9.754 -0.3314  0.3173  0.2276
11965SOL    HW142500   0.824   1.287   9.699  0.0842  0.9733 -0.4757
11965SOL    HW242501   0.870   1.284   9.844 -1.2695  0.8803 -0.0323
11966SOL     OW42502  12.736   7.158  11.819 -0.1412 -0.3163 -0.6917
11966SOL    HW142503  12.709   7.142  11.728 -1.0193 -0.5665 -0.3916
11966SOL    HW242504  12.750   7.070  11.855  1.9982 -0.1933 -1.0891
11967SOL     OW42505   2.058   1.074   4.790 -0.3303  0.1548  0.2701
11967SOL    HW142506   2.093   1.015   4.723 -4.2791 -2.2363  0.0126
11967SOL    HW242507   2.097   1.043   4.872  1.5898  0.6347 -0.4015
11968SOL     OW42508   9.703   4.110   2.497 -0.4088 -0.0876  0.2542
11968SOL    HW142509   9.672   4.103   2.587 -1.4650 -0.1184 -0.1028
11968SOL    HW242510   9.752   4.193   2.495 -0.4996 -0.0173  0.8120
11969SOL     OW42511  11.454   9.839  10.360 -0.4430 -0.1696  0.4766
11969SOL    HW142512  11.548   9.830  10.377 -0.5233  0.8320  1.5572
11969SOL    HW242513  11.448   9.912  10.299 -0.4623 -1.0411 -0.6072
11970SOL     OW42514  11.094   9.204   5.356 -0.0489 -0.2186 -0.0391
11970SOL    HW142515  11.044   9.217   5.275  1.4944 -3.2403 -1.6632
11970SOL    HW242516  11.030   9.169   5.418 -0.7845 -0.1070 -0.7183
11971SOL     OW42517   3.676   0.915   9.016  0.1632  0.5664 -0.5933
11971SOL    HW142518   3.732   0.876   8.949  0.0284  0.7099 -0.7943
11971SOL    HW242519   3.645   0.841   9.068 -1.1580  0.2229 -1.7799
11972SOL     OW42520   4.804  12.153  11.673 -0.3977  0.4401  0.5275
11972SOL    HW142521   4.896  12.174  11.661 -0.3773 -0.7827 -2.1163
11972SOL    HW242522   4.757  12.225  11.632 -0.6244  0.6924  1.2107
11973SOL     OW42523   2.341   9.503   2.485 -0.0226 -0.2114  0.5195
11973SOL    HW142524   2.380   9.582   2.449 -0.0203  0.0873  1.1551
11973SOL    HW242525   2.251   9.527   2.505 -0.7839 -1.0925 -1.5692
11974SOL     OW42526   3.760   3.271   4.362  0.2087 -0.0190  0.3371
11974SOL    HW142527   3.690   3.334   4.344  0.4297  0.5900  1.5018
11974SOL    HW242528   3.715   3.188   4.376 -0.3005  0.3660  1.0600
11975SOL     OW42529   6.524  12.725   2.320  0.0290  0.1876  1.1195
11975SOL    HW142530   6.510  12.809   2.364  0.6913  0.1639  1.3841
11975SOL    HW242531   6.474  12.732   2.239 -0.8289  0.4112  1.6434
11976SOL     OW42532   8.503   4.406   2.193 -0.1317 -0.1728 -0.5249
11976SOL    HW142533   8.413   4.401   2.158 -0.8472 -1.0682  1.3171
11976SOL    HW242534   8.546   4.328   2.158  0.0621  0.4330 -1.6880
11977SOL     OW42535   1.363   0.728   9.587 -0.3926  0.3738  0.0826
11977SOL    HW142536   1.388   0.786   9.515 -0.6925 -0.2096 -0.4993
11977SOL    HW242537   1.416   0.758   9.661  2.2966 -1.0135 -1.1658
11978SOL     OW42538   1.081  11.940  10.813 -0.0733 -0.0926  0.1222
11978SOL    HW142539   1.035  12.005  10.866 -0.8339 -1.0036  0.6093
11978SOL    HW242540   1.065  11.857  10.858 -2.5494 -1.2911 -2.6071
11979SOL     OW42541   4.818  11.902   2.785 -0.0068  0.9614 -0.4409
11979SOL    HW142542   4.751  11.920   2.851 -1.2602 -0.7097 -1.2054
11979SOL    HW242543   4.817  11.979   2.728  1.3616  2.6128  1.6169
11980SOL     OW42544  12.436  10.455  12.642  0.7614 -0.8884 -0.1404
11980SOL    HW142545  12.424  10.451  12.547 -0.1593  0.3918 -0.0954
11980SOL    HW242546  12.514  10.509  12.654 -0.8052  1.5057 -0.1378
11981SOL     OW42547   7.006  11.967   7.802  0.0278  0.1154  0.1729
11981SOL    HW142548   6.966  11.962   7.715  1.6574 -0.2369 -0.5801
11981SOL    HW242549   7.010  11.876   7.832 -3.1283  0.4055  1.9130
11982SOL     OW42550   3.707   6.312   8.213  0.0240 -0.2358 -0.0379
11982SOL    HW142551   3.684   6.299   8.121 -1.3894  0.2422  0.2190
11982SOL    HW242552   3.705   6.225   8.251 -1.0165 -0.2721 -0.1320
11983SOL     OW42553   6.928   5.438   9.472 -0.3276  0.2319 -0.2020
11983SOL    HW142554   7.013   5.479   9.485  0.4142 -0.9932 -1.0152
11983SOL    HW242555   6.933   5.356   9.522 -1.4050  0.6175  0.5662
11984SOL     OW42556   7.497   9.450  10.474 -0.1123  0.3703 -0.3450
11984SOL    HW142557   7.569   9.510  10.495 -1.7517  2.2339  0.2753
11984SOL    HW242558   7.428   9.474  10.536 -1.2428 -1.4345 -0.8436
11985SOL     OW42559   2.554   8.640   4.099  0.1354  0.3979 -0.3670
11985SOL    HW142560   2.509   8.717   4.136 -1.0543  0.3310 -1.5969
11985SOL    HW242561   2.640   8.673   4.074  0.6015  0.6884  1.4566
11986SOL     OW42562   9.758   9.379   9.454 -0.1095  0.2179  0.1683
11986SOL    HW142563   9.760   9.423   9.538  2.4353 -0.6378  0.6382
11986SOL    HW242564   9.825   9.311   9.460  0.6582  0.5681 -2.7645
11987SOL     OW42565   3.512   9.338  11.637  0.1552  0.1945  0.4305
11987SOL    HW142566   3.556   9.344  11.552  0.0056  1.6351  0.4302
11987SOL    HW242567   3.562   9.272  11.685  0.4708 -0.3698 -0.6332
11988SOL     OW42568  12.538  11.432   0.913  0.3186 -0.3413  0.1114
11988SOL    HW142569  12.558  11.507   0.968 -1.2102  1.0009 -1.0761
11988SOL    HW242570  12.477  11.379   0.966  0.1613  0.0736  0.3460
11989SOL     OW42571   8.390   3.912   0.607  0.3839 -0.2849  0.2550
11989SOL    HW142572   8.329   3.956   0.665  0.0219 -2.1071  1.3428
11989SOL    HW242573   8.457   3.875   0.664 -0.1270 -2.3584 -0.3717
11990SOL     OW42574   8.357   8.419  10.708  0.1640 -0.3437 -0.4122
11990SOL    HW142575   8.314   8.436  10.624  2.2941 -1.4224 -1.8004
11990SOL    HW242576   8.423   8.488  10.716  0.8663 -1.0128 -0.2958
11991SOL     OW42577   8.210   0.752   7.484  0.0375  0.4126 -0.0101
11991SOL    HW142578   8.147   0.800   7.431  0.3477  0.8589  0.0182
11991SOL    HW242579   8.182   0.768   7.574 -2.1344 -2.5515 -0.0158
11992SOL     OW42580   5.233  10.104  11.671 -0.4152  0.4590 -0.3414
11992SOL    HW142581   5.233  10.009  11.684 -1.9774  0.2496 -1.5664
11992SOL    HW242582   5.255  10.115  11.578 -0.5531  1.2672 -0.2802
11993SOL     OW42583  10.065   5.959   0.678 -0.1692  0.0350 -0.2762
11993SOL    HW142584   9.984   5.991   0.718  0.1212  0.5622 -0.0999
11993SOL    HW242585  10.059   5.986   0.586  0.0357  0.5180 -0.1470
11994SOL     OW42586   6.796   3.396   3.337 -0.6183 -0.7073  0.1914
11994SOL    HW142587   6.774   3.471   3.282 -2.3876 -0.9392  0.5257
11994SOL    HW242588   6.803   3.432   3.425  0.2480 -0.6695  0.1167
11995SOL     OW42589   8.970   9.804   4.167 -0.4327  0.1647 -0.0594
11995SOL    HW142590   9.064   9.814   4.187 -0.3324 -0.7662 -0.0485
11995SOL    HW242591   8.926   9.832   4.247 -0.2456  2.3155 -0.6492
11996SOL     OW42592   0.866  12.462   5.032  0.2142 -0.4525  0.7143
11996SOL    HW142593   0.909  12.415   4.960  1.0432 -1.2380  1.6837
11996SOL    HW242594   0.928  12.456   5.105  0.3028  2.0841  0.9239
11997SOL     OW42595  12.400   8.090   0.104  0.1828 -0.3011  0.1155
11997SOL    HW142596  12.368   8.178   0.123  0.5088  0.2480 -1.6556
11997SOL    HW242597  12.472   8.103   0.043  1.0895 -1.7501  0.7974
11998SOL     OW42598   2.166  12.367   5.931 -0.4126  0.0625  0.4032
11998SOL    HW142599   2.162  12.444   5.988  1.4421  0.8249 -0.4115
11998SOL    HW242600   2.258  12.360   5.907 -0.6888 -1.9269 -0.2468
11999SOL     OW42601   0.002   9.515   3.070  0.1189  0.3406  0.4036
11999SOL    HW142602   0.023   9.596   3.022  0.7275  0.3409  0.6637
11999SOL    HW242603  -0.093   9.508   3.064 -0.1727  2.1201  2.0440
12000SOL     OW42604   2.398   4.342   4.116 -0.3662 -0.1662  0.3536
12000SOL    HW142605   2.444   4.423   4.098 -1.7466  0.2109 -1.9931
12000SOL    HW242606   2.456   4.273   4.083 -1.2182  0.2834 -2.3333
12001SOL     OW42607   7.434   5.732   9.047 -1.0658 -0.1420  0.1707
12001SOL    HW142608   7.528   5.745   9.053 -0.8913 -0.6751 -1.0368
12001SOL    HW242609   7.422   5.686   8.964 -2.3433 -0.5218  0.5443
12002SOL     OW42610  10.416   8.257   0.872 -0.2005  0.3591  0.2489
12002SOL    HW142611  10.416   8.349   0.846 -1.7042  1.1254  2.6369
12002SOL    HW242612  10.360   8.214   0.807 -1.5435  1.6403  0.4979
12003SOL     OW42613   3.691   1.157   1.971 -0.1853  0.3499  0.1333
12003SOL    HW142614   3.677   1.123   2.059  1.6927  0.7764  0.6298
12003SOL    HW242615   3.713   1.249   1.984 -1.3091  0.7934 -0.9100
12004SOL     OW42616   7.133   3.247   9.950  0.5804  0.2519 -0.0696
12004SOL    HW142617   7.190   3.320   9.977  0.7634  0.0008  0.2245
12004SOL    HW242618   7.051   3.262   9.997 -0.3182  1.7077 -1.9660
12005SOL     OW42619   1.484   8.410   5.883  0.5857  0.0042  0.1735
12005SOL    HW142620   1.489   8.487   5.940  0.2509 -0.3081  0.6365
12005SOL    HW242621   1.391   8.390   5.879  0.5191  0.5013 -1.1524
12006SOL     OW42622   3.517   6.547   2.898 -0.3401  0.3032 -0.0399
12006SOL    HW142623   3.507   6.611   2.968  0.1866  0.1366  0.1920
12006SOL    HW242624   3.540   6.599   2.821  0.4893  0.3583  0.2421
12007SOL     OW42625   7.645   3.636   3.923  0.2149  0.3484  0.1929
12007SOL    HW142626   7.626   3.636   4.017 -1.5698  2.9327 -0.0742
12007SOL    HW242627   7.568   3.594   3.883  1.1665 -1.1666 -0.1654
12008SOL     OW42628   1.713   5.228   5.098  0.2084  0.6476  0.0904
12008SOL    HW142629   1.777   5.278   5.150 -1.1917  0.6690  1.8694
12008SOL    HW242630   1.697   5.149   5.149  0.4126 -0.4064 -1.4159
12009SOL     OW42631   9.414  11.072   0.634  0.4815 -0.4506  0.1394
12009SOL    HW142632   9.490  11.035   0.589  0.8078  1.7409 -1.2765
12009SOL    HW242633   9.452  11.134   0.697 -0.0269  2.0512 -1.8480
12010SOL     OW42634  11.841   7.023   5.543 -0.5514  0.5494  0.8410
12010SOL    HW142635  11.768   6.980   5.499  0.0431  0.9634 -0.6091
12010SOL    HW242636  11.804   7.104   5.578 -0.3902  1.9268 -1.8932
12011SOL     OW42637  11.460  10.242   9.075 -0.4349 -0.1536  0.0154
12011SOL    HW142638  11.507  10.208   8.999 -0.1202  2.8137 -1.2539
12011SOL    HW242639  11.487  10.185   9.147  2.6728 -0.5091 -1.2636
12012SOL     OW42640   6.323   6.080  12.006 -0.0711 -0.1040  0.2952
12012SOL    HW142641   6.240   6.045  11.973  0.2697  0.1026 -0.8428
12012SOL    HW242642   6.300   6.123  12.088 -0.7773 -1.5505  0.8768
12013SOL     OW42643  10.041   9.095   6.412 -0.0803 -0.1752 -0.1326
12013SOL    HW142644  10.085   9.032   6.468 -0.3319 -0.2949 -0.0657
12013SOL    HW242645  10.108   9.159   6.389  0.3843 -0.9001 -0.8471
12014SOL     OW42646   4.830   9.022   7.590 -0.3123  0.0145  0.2532
12014SOL    HW142647   4.870   9.084   7.652 -0.1344  0.5895 -0.4218
12014SOL    HW242648   4.799   8.950   7.645  0.8143 -0.0061  0.8921
12015SOL     OW42649  12.356  11.172  10.035 -0.1697  0.2960  0.4644
12015SOL    HW142650  12.353  11.102   9.971  1.2205 -2.2016  2.9041
12015SOL    HW242651  12.300  11.141  10.107 -2.2845  3.2985  0.2972
12016SOL     OW42652   7.444   6.506   5.599 -0.5264 -0.3033 -0.6610
12016SOL    HW142653   7.440   6.443   5.670  0.6785  0.6863  0.3505
12016SOL    HW242654   7.496   6.463   5.531  0.2736 -0.4203  0.0100
12017SOL     OW42655   7.494   6.041   3.699 -0.3992 -0.8025  0.1531
12017SOL    HW142656   7.417   5.998   3.664 -2.1980  2.9845 -1.1482
12017SOL    HW242657   7.466   6.077   3.783 -0.2583  0.7937 -0.4292
12018SOL     OW42658   4.931   1.561   7.282 -0.3873 -0.0861  0.2687
12018SOL    HW142659   4.986   1.482   7.284 -0.1327  0.0791 -0.0219
12018SOL    HW242660   4.911   1.579   7.374 -1.5547 -1.2530  0.2628
12019SOL     OW42661   2.777  10.347  12.624  0.4551 -0.2932  0.0997
12019SOL    HW142662   2.688  10.311  12.616 -0.2472  1.3694  0.1097
12019SOL    HW242663   2.774  10.400  12.704  0.5102  2.2741 -1.5051
12020SOL     OW42664   3.370   6.326  12.171  0.2520 -0.3352 -0.5795
12020SOL    HW142665   3.381   6.417  12.142  0.3585 -0.3080 -0.4562
12020SOL    HW242666   3.280   6.321  12.202  0.6922  0.1572  0.8865
12021SOL     OW42667   1.654   4.214   2.873  0.0547 -0.3151 -0.2403
12021SOL    HW142668   1.574   4.219   2.821  0.2104  0.4180 -0.4316
12021SOL    HW242669   1.624   4.217   2.963 -0.0874  1.7960 -0.2947
12022SOL     OW42670   6.772   1.999   6.459  0.5707  0.6002  0.2652
12022SOL    HW142671   6.786   1.934   6.390  0.4450  0.2857  0.5316
12022SOL    HW242672   6.706   2.058   6.424  0.7132  0.6057  0.0068
12023SOL     OW42673  11.386  11.969   7.442 -0.4227  0.3870 -1.0329
12023SOL    HW142674  11.469  11.927   7.463  0.0462  1.0040 -1.6121
12023SOL    HW242675  11.373  11.954   7.348 -0.8168  0.5486 -1.0101
12024SOL     OW42676  12.677   8.312   4.286 -0.0876  0.4553 -0.0074
12024SOL    HW142677  12.762   8.279   4.316  0.2892  0.8185 -0.6554
12024SOL    HW242678  12.614   8.277   4.349  0.6459  0.9708  1.0447
12025SOL     OW42679   6.470   9.082   8.679  0.3082  0.4239  0.1829
12025SOL    HW142680   6.461   8.988   8.663 -0.1484  0.7273 -1.5012
12025SOL    HW242681   6.541   9.089   8.743  0.2699 -1.0581  0.4175
12026SOL     OW42682   6.915   5.317   2.236 -0.2313 -0.4630 -0.2179
12026SOL    HW142683   6.876   5.230   2.225  1.2320 -1.4030  1.4689
12026SOL    HW242684   6.909   5.334   2.330  0.0237  1.0153 -0.4505
12027SOL     OW42685   8.590   8.134   6.665  0.3323  0.0976 -0.0137
12027SOL    HW142686   8.667   8.171   6.709 -0.2490  2.2002 -0.6568
12027SOL    HW242687   8.620   8.049   6.633  1.4349 -0.5505  2.4517
12028SOL     OW42688  10.224   3.638  10.494  0.0052  0.2374 -0.4843
12028SOL    HW142689  10.181   3.595  10.420  0.4397  0.9027 -1.1417
12028SOL    HW242690  10.161   3.704  10.524 -0.1437  0.0143 -0.3084
12029SOL     OW42691   6.856   9.340   7.278 -0.4604  0.2357  0.5391
12029SOL    HW142692   6.925   9.394   7.315  1.0427 -1.4436  0.2931
12029SOL    HW242693   6.880   9.250   7.302 -2.2814 -0.4480 -0.0052
12030SOL     OW42694  11.222   2.648   2.876  0.3370  0.0412 -0.5270
12030SOL    HW142695  11.165   2.672   2.949  2.2069 -0.4653  1.1861
12030SOL    HW242696  11.197   2.708   2.805 -0.7663  1.3169  0.8746
12031SOL     OW42697   7.045  11.873   6.107  0.3617 -0.2819  0.3170
12031SOL    HW142698   6.982  11.924   6.157 -0.2718 -0.4255 -0.3175
12031SOL    HW242699   7.057  11.793   6.158 -0.3240 -0.4528  0.2151
12032SOL     OW42700   2.199   0.107   2.444  0.1989  0.0256 -0.2867
12032SOL    HW142701   2.186   0.117   2.538 -1.1435  1.9999 -0.6186
12032SOL    HW242702   2.255   0.180   2.419 -0.8405  0.5173 -1.2566
12033SOL     OW42703   0.556  11.897   0.399 -0.3009 -0.1633  0.2968
12033SOL    HW142704   0.482  11.877   0.457 -0.4884 -0.6233 -0.0928
12033SOL    HW242705   0.595  11.976   0.436 -0.0574 -0.7705  1.3878
12034SOL     OW42706   1.343   5.644   9.220 -0.1129  0.3204 -0.5993
12034SOL    HW142707   1.357   5.611   9.309 -1.5957  2.1296  0.3675
12034SOL    HW242708   1.431   5.659   9.186  0.5020 -1.2271  0.2071
12035SOL     OW42709   4.634   5.047   2.329  0.6963  0.3288  0.3048
12035SOL    HW142710   4.676   4.972   2.372  1.2617  0.9473  0.8605
12035SOL    HW242711   4.615   5.107   2.401 -1.6192 -0.1217  0.1453
12036SOL     OW42712   0.349   8.974  10.973  0.6211 -0.7701  0.6492
12036SOL    HW142713   0.361   8.890  10.928 -1.6219 -2.0382  2.2171
12036SOL    HW242714   0.254   8.986  10.976  0.8775  2.0211  0.2554
12037SOL     OW42715   8.644   7.903   8.503  0.1114  0.4361  0.4229
12037SOL    HW142716   8.588   7.849   8.448  1.8183 -0.5427 -0.4289
12037SOL    HW242717   8.733   7.889   8.469  0.8408  2.3246  1.3809
12038SOL     OW42718   5.776   0.571   6.858 -0.2026 -0.0208 -0.0520
12038SOL    HW142719   5.709   0.633   6.829  1.5958  1.8677 -0.4247
12038SOL    HW242720   5.738   0.530   6.936 -0.7048  3.1480  1.5369
12039SOL     OW42721  11.631   1.887  11.587  0.3625 -0.4206  0.2014
12039SOL    HW142722  11.723   1.886  11.559  0.5585 -1.2137  0.8342
12039SOL    HW242723  11.582   1.869  11.507  0.7414  0.2994 -0.1961
12040SOL     OW42724   4.956   3.866   9.555  0.3195 -0.3210  0.1675
12040SOL    HW142725   4.911   3.913   9.485  1.2145  1.4551  0.7169
12040SOL    HW242726   4.984   3.935   9.615 -0.5922 -1.7785  2.4050
12041SOL     OW42727   6.882   0.628   5.104  0.7814 -0.3340  0.0482
12041SOL    HW142728   6.926   0.602   5.184 -0.0162 -1.0697  0.2607
12041SOL    HW242729   6.790   0.636   5.129  0.8104  1.5856 -0.2777
12042SOL     OW42730   5.745   0.929   1.720  0.5582  1.0335  0.0346
12042SOL    HW142731   5.820   0.872   1.739 -0.0654  0.2642  0.2336
12042SOL    HW242732   5.735   0.923   1.625 -0.6214 -0.6727  0.2139
12043SOL     OW42733   1.335   1.612   4.692 -0.0577 -0.3426  0.6217
12043SOL    HW142734   1.391   1.664   4.634 -0.5046  0.8063  1.1810
12043SOL    HW242735   1.396   1.558   4.742  0.3536 -1.1271 -0.6689
12044SOL     OW42736  11.226  11.338   0.476 -0.1266  0.5871 -0.2852
12044SOL    HW142737  11.306  11.342   0.423  0.6424  0.4117  0.8216
12044SOL    HW242738  11.245  11.392   0.552 -1.8657  2.2888 -0.9889
12045SOL     OW42739  12.223  10.948   9.369  0.4164 -0.4236  0.2937
12045SOL    HW142740  12.295  11.007   9.392 -0.5556  0.0804  2.2656
12045SOL    HW242741  12.223  10.883   9.439 -1.8027  0.3169  1.0589
12046SOL     OW42742   9.999  12.348  10.998  0.1023 -0.5746  0.3490
12046SOL    HW142743   9.982  12.415  11.064  1.0441 -1.1763  1.2420
12046SOL    HW242744  10.095  12.344  10.993  0.0462 -1.0290 -0.5521
12047SOL     OW42745   1.179   6.202   6.135 -0.1436  0.2485  0.7455
12047SOL    HW142746   1.116   6.203   6.206 -0.8008 -0.9623  0.2043
12047SOL    HW242747   1.127   6.217   6.056  0.5692  1.5181  0.4836
12048SOL     OW42748   8.296   4.697   2.823 -0.3793  0.4800 -0.2554
12048SOL    HW142749   8.249   4.754   2.762 -0.5156  1.5958  0.8519
12048SOL    HW242750   8.255   4.611   2.812 -2.0676  1.2155 -0.0054
12049SOL     OW42751  10.652   7.573   0.467 -0.5775 -0.0637 -0.5850
12049SOL    HW142752  10.677   7.656   0.426 -2.8747  1.6268  1.1816
12049SOL    HW242753  10.724   7.554   0.527 -0.1431  0.7835 -0.8179
12050SOL     OW42754   7.511   8.119   8.213 -0.1086 -0.2276 -0.7983
12050SOL    HW142755   7.476   8.031   8.195  0.1891 -0.3642 -0.7246
12050SOL    HW242756   7.529   8.156   8.127 -0.0895 -0.3012 -0.8253
12051SOL     OW42757   6.478   1.290  12.266 -0.3668 -0.3313 -0.3276
12051SOL    HW142758   6.429   1.297  12.184  0.7787  2.3902 -0.8840
12051SOL    HW242759   6.564   1.255  12.241  0.1101  0.8449 -0.3723
12052SOL     OW42760   0.127   4.757   9.780 -0.6022  0.7995 -0.4759
12052SOL    HW142761   0.085   4.841   9.761 -1.6309  0.3269 -0.3641
12052SOL    HW242762   0.059   4.706   9.825 -0.1958 -0.3185 -1.0996
12053SOL     OW42763   5.393   1.316   7.098 -0.0884  0.1897 -0.0454
12053SOL    HW142764   5.374   1.391   7.042 -2.1129 -0.1100  0.1408
12053SOL    HW242765   5.413   1.245   7.036 -1.7205  0.0142 -0.4340
12054SOL     OW42766   0.945   4.955   4.742  0.6806 -0.7219  0.1276
12054SOL    HW142767   0.916   4.863   4.741 -4.3177  0.6008  0.7178
12054SOL    HW242768   0.938   4.983   4.651  1.5819 -0.7084  0.0541
12055SOL     OW42769   4.043   4.954  12.720 -0.2273  0.3320 -0.0770
12055SOL    HW142770   3.953   4.948  12.752  0.0317  0.5283  0.7172
12055SOL    HW242771   4.036   4.943  12.625 -0.8269 -2.4433  0.1938
12056SOL     OW42772   7.092  12.411   7.333  0.3859  0.1969 -0.0151
12056SOL    HW142773   7.169  12.361   7.307 -1.5805 -1.7735 -2.6218
12056SOL    HW242774   7.029  12.345   7.361 -1.8713  1.2040 -2.3203
12057SOL     OW42775   6.212  12.472   7.075 -0.0600  0.0328  0.4270
12057SOL    HW142776   6.173  12.541   7.022  0.4669  0.3118  0.4011
12057SOL    HW242777   6.143  12.406   7.083 -0.1879  0.0520 -0.4834
12058SOL     OW42778  10.076   9.708   0.509  0.1655 -0.1432 -0.5380
12058SOL    HW142779  10.115   9.633   0.462  0.0881  0.1683 -1.1121
12058SOL    HW242780  10.027   9.755   0.441 -0.1905  0.1548 -0.0744
12059SOL     OW42781   3.024   7.226  12.762 -0.5338 -0.9133  0.1194
12059SOL    HW142782   2.962   7.267  12.822  0.4410  0.3796  0.2877
12059SOL    HW242783   3.110   7.237  12.804  0.6907  2.8193 -2.7098
12060SOL     OW42784   3.912   4.908   2.590 -0.3777 -0.1532  0.3572
12060SOL    HW142785   3.960   4.959   2.655 -1.3855  2.4764 -0.8234
12060SOL    HW242786   3.866   4.841   2.641  0.3855  0.5866  2.0975
12061SOL     OW42787  10.375   9.513  12.482 -0.1975 -0.2214  0.6218
12061SOL    HW142788  10.467   9.526  12.461 -0.3382  1.0468  0.7523
12061SOL    HW242789  10.340   9.601  12.495 -1.7536 -0.5911 -0.7463
12062SOL     OW42790   8.272   0.975   5.161 -0.1549  0.2810  0.0649
12062SOL    HW142791   8.177   0.983   5.162 -0.1812 -0.0553  0.9416
12062SOL    HW242792   8.300   1.026   5.084 -1.0324  0.4077 -0.1737
12063SOL     OW42793   5.032   2.193   6.046  0.1373  0.7566  0.0448
12063SOL    HW142794   5.126   2.212   6.041  0.0251  1.2367 -0.3150
12063SOL    HW242795   4.999   2.255   6.111  0.2237 -0.0692  0.9049
12064SOL     OW42796   0.562   5.838  12.409  0.9030  0.1509  0.2718
12064SOL    HW142797   0.533   5.929  12.398 -1.3915 -0.7153 -1.9047
12064SOL    HW242798   0.565   5.825  12.504  0.7836  2.3209  0.6334
12065SOL     OW42799  10.099   3.822   3.077  0.4533 -0.0409  0.3252
12065SOL    HW142800  10.004   3.832   3.074  0.4383  0.0782  1.1046
12065SOL    HW242801  10.125   3.811   2.985 -0.2038  0.9168  0.0121
12066SOL     OW42802   9.225   1.743   9.715  0.3948 -0.6524  0.0719
12066SOL    HW142803   9.246   1.661   9.760  1.5555 -0.3079  0.1843
12066SOL    HW242804   9.133   1.733   9.689  0.3110 -1.6922  0.7087
12067SOL     OW42805  11.469   5.118   4.026 -0.1062  0.4157 -0.9241
12067SOL    HW142806  11.393   5.115   3.969 -0.3346 -0.4570 -0.5780
12067SOL    HW242807  11.537   5.069   3.979  0.7571  2.4062 -1.9232
12068SOL     OW42808  10.308  10.957   4.863 -0.0994  0.7400  0.0894
12068SOL    HW142809  10.225  11.000   4.883  0.6872  1.7732  1.3415
12068SOL    HW242810  10.288  10.898   4.791 -1.8298  1.2362  0.1137
12069SOL     OW42811   0.872   1.799   3.735  0.3445  0.4647  0.1790
12069SOL    HW142812   0.794   1.852   3.715 -0.4851 -0.9270 -0.3832
12069SOL    HW242813   0.929   1.811   3.660  0.6028  1.3279  0.4997
12070SOL     OW42814   7.299   5.335  11.517  0.6241 -0.6635 -0.5873
12070SOL    HW142815   7.209   5.329  11.485  0.3767  0.7051 -0.2204
12070SOL    HW242816   7.353   5.312  11.441  0.0148  0.9191 -1.5548
12071SOL     OW42817   7.664   8.652  10.672  0.1779 -1.0201 -0.1844
12071SOL    HW142818   7.603   8.579  10.657 -0.7405 -0.3096 -0.0062
12071SOL    HW242819   7.613   8.730  10.651  0.2602 -0.2391  2.2954
12072SOL     OW42820   6.224   8.957  12.115 -0.1778  0.3809  0.0406
12072SOL    HW142821   6.220   8.862  12.127  1.3124 -0.0437 -2.3189
12072SOL    HW242822   6.308   8.983  12.152  0.1609  0.5124 -0.8031
12073SOL     OW42823   9.616   9.501   5.538  0.6161 -0.3136 -0.0276
12073SOL    HW142824   9.636   9.546   5.456  2.7635  2.2145  1.6887
12073SOL    HW242825   9.626   9.569   5.605  1.2144 -2.7557  2.5432
12074SOL     OW42826  11.602   5.141   8.558 -0.2543  0.0609 -1.0333
12074SOL    HW142827  11.663   5.162   8.629 -1.2951 -0.0118 -0.0832
12074SOL    HW242828  11.602   5.218   8.502  1.3239 -0.2620 -1.5234
12075SOL     OW42829   0.235   2.883   0.448 -0.2466 -0.2855 -0.8338
12075SOL    HW142830   0.197   2.814   0.502 -1.7655  1.4262  0.4075
12075SOL    HW242831   0.330   2.870   0.455 -0.4332 -0.8662  1.2776
12076SOL     OW42832  11.121  10.841   7.386  0.0008  0.5371 -0.2685
12076SOL    HW142833  11.125  10.839   7.481  2.1550 -0.8815 -0.3318
12076SOL    HW242834  11.187  10.906   7.360 -0.7742  1.1325 -0.8085
12077SOL     OW42835   4.023   4.809   8.819  0.3721 -0.2607 -0.2458
12077SOL    HW142836   3.991   4.766   8.898  2.4446 -1.2333  0.1515
12077SOL    HW242837   4.043   4.899   8.848 -0.2733 -0.1737 -0.0578
12078SOL     OW42838   7.819  10.229   3.219  0.5610  0.5166  0.2701
12078SOL    HW142839   7.761  10.302   3.199  0.1106  0.4022  1.1387
12078SOL    HW242840   7.761  10.153   3.225  1.2767 -0.5993 -3.6483
12079SOL     OW42841   9.577   1.629   2.868  0.2103 -0.0593  0.1403
12079SOL    HW142842   9.561   1.548   2.917 -0.2595 -0.1513 -0.1645
12079SOL    HW242843   9.504   1.635   2.807 -0.0860  0.9211  0.5800
12080SOL     OW42844   8.603   7.427   0.794  0.1564  0.9968  0.5444
12080SOL    HW142845   8.640   7.493   0.853  0.0529  0.9838  0.6228
12080SOL    HW242846   8.542   7.475   0.738  2.1335  1.5219 -1.3053
12081SOL     OW42847   1.250  11.374   0.166  0.2527  0.1939 -0.5290
12081SOL    HW142848   1.332  11.327   0.183 -0.0845 -0.5927 -0.9922
12081SOL    HW242849   1.258  11.405   0.076  1.2965  2.7969  0.3907
12082SOL     OW42850   4.188   7.481   1.583  0.0456  0.3787  0.2042
12082SOL    HW142851   4.252   7.414   1.608  0.2123  0.1351 -0.8353
12082SOL    HW242852   4.241   7.552   1.545 -0.2565  0.4221 -0.1407
12083SOL     OW42853   9.333   0.824  11.221  0.2925  0.4505 -0.4874
12083SOL    HW142854   9.424   0.811  11.246 -0.1572 -0.3087  0.8758
12083SOL    HW242855   9.300   0.735  11.204 -0.3753  0.6306 -0.2028
12084SOL     OW42856   0.196   0.098   1.343  0.1366  0.3095  0.2798
12084SOL    HW142857   0.196   0.021   1.286 -0.4368 -0.4267  1.2594
12084SOL    HW242858   0.147   0.164   1.294  1.3285  0.3510 -0.9221
12085SOL     OW42859  11.812   7.626   9.143  0.2922  0.0088  0.1801
12085SOL    HW142860  11.845   7.697   9.198 -0.5762 -0.5061  1.4085
12085SOL    HW242861  11.719   7.646   9.132 -0.0533 -1.1170  0.8687
12086SOL     OW42862   7.606   5.010   1.862  0.1689 -0.3487 -0.0812
12086SOL    HW142863   7.563   5.052   1.788  1.1790 -0.9454 -1.0418
12086SOL    HW242864   7.691   5.055   1.869  0.0683 -0.2628  0.7534
12087SOL     OW42865   3.650   5.712   7.476 -0.6224  0.6483  0.0962
12087SOL    HW142866   3.730   5.763   7.489  0.3420 -0.3072 -1.7401
12087SOL    HW242867   3.584   5.758   7.528  0.7703  2.3168  0.4818
12088SOL     OW42868   9.287   0.560   0.299  0.2851  0.2338  0.3826
12088SOL    HW142869   9.200   0.595   0.285 -0.4857 -2.0503 -1.1316
12088SOL    HW242870   9.346   0.622   0.256 -0.3129  2.6572  2.7717
12089SOL     OW42871   0.173   2.458   9.908 -0.2273  0.3556  0.0275
12089SOL    HW142872   0.175   2.390   9.976 -0.7532  0.3539  0.0516
12089SOL    HW242873   0.177   2.540   9.957 -0.4538  0.3513  0.0576
12090SOL     OW42874   8.306  10.466   0.356  0.5038 -0.4561 -0.5238
12090SOL    HW142875   8.363  10.515   0.415 -0.1796 -0.3317  0.0507
12090SOL    HW242876   8.352  10.384   0.340  1.1946 -0.0390 -0.6908
12091SOL     OW42877  12.647   9.327   3.290  0.1662 -0.0405 -0.1178
12091SOL    HW142878  12.720   9.373   3.249  0.4771  0.0317  0.5026
12091SOL    HW242879  12.574   9.339   3.229  0.1678  1.5003  0.1240
12092SOL     OW42880  12.742  10.875   1.836 -0.5928  0.1271  0.0780
12092SOL    HW142881  12.785  10.954   1.867  0.8581 -1.3627  2.1623
12092SOL    HW242882  12.801  10.804   1.861 -1.9829 -1.6655 -1.3958
12093SOL     OW42883   3.506   3.804   5.706  0.3041  0.2232  0.5580
12093SOL    HW142884   3.504   3.725   5.652  1.2203  1.1439 -0.8876
12093SOL    HW242885   3.415   3.818   5.731 -0.1191 -0.3703 -0.5619
12094SOL     OW42886   0.331  11.764   7.104 -0.8233  0.2892  0.0946
12094SOL    HW142887   0.258  11.809   7.147 -1.7538  0.6667 -1.7554
12094SOL    HW242888   0.315  11.671   7.121 -1.0461  0.4455  0.7507
12095SOL     OW42889   8.570  12.179   3.100 -0.5068 -0.2396  0.1689
12095SOL    HW142890   8.525  12.206   3.020  0.7879 -0.0152 -0.5022
12095SOL    HW242891   8.548  12.247   3.164 -0.7613  0.0931 -0.2671
12096SOL     OW42892   2.753   4.150   7.673  0.6629 -0.3259 -0.3859
12096SOL    HW142893   2.672   4.160   7.723  0.7313 -0.9032 -0.1482
12096SOL    HW242894   2.738   4.074   7.617  1.5532 -1.3589  0.7224
12097SOL     OW42895   8.881   9.224  12.376  0.2134  0.4898  0.1755
12097SOL    HW142896   8.820   9.223  12.302  0.8941  1.2345 -0.4121
12097SOL    HW242897   8.958   9.176  12.345  0.6220  1.0617  0.2816
12098SOL     OW42898   1.271   3.039   5.647 -0.0343 -0.1499  0.7514
12098SOL    HW142899   1.234   3.012   5.731  1.1304 -0.5386  1.1691
12098SOL    HW242900   1.363   3.059   5.667  0.9306 -2.5521 -0.8187
12099SOL     OW42901   6.961  11.508   8.196 -0.0680  0.1520  0.7325
12099SOL    HW142902   7.000  11.514   8.283  2.2984  1.7299 -0.3181
12099SOL    HW242903   6.935  11.598   8.175 -0.4034 -0.1656 -0.2850
12100SOL     OW42904   5.912  12.199   1.180  0.2184 -0.5121 -0.1571
12100SOL    HW142905   5.946  12.109   1.182 -0.1108 -0.6375  1.7174
12100SOL    HW242906   5.895  12.220   1.272  1.7198  2.0265 -0.3626
12101SOL     OW42907   7.895   0.345   2.198 -0.2778  0.0070  0.0148
12101SOL    HW142908   7.915   0.428   2.155 -1.5604 -0.7924 -2.3116
12101SOL    HW242909   7.977   0.321   2.243  0.1883  2.3453  0.5235
12102SOL     OW42910   7.692   3.511   2.096  0.3046  0.0981 -0.1566
12102SOL    HW142911   7.651   3.570   2.159 -0.5196 -1.9386  1.2943
12102SOL    HW242912   7.715   3.433   2.146 -0.1145 -1.5033 -2.2786
12103SOL     OW42913   0.550   6.246   4.392 -0.3152 -0.1612  0.0553
12103SOL    HW142914   0.561   6.231   4.299 -0.3678  0.1085  0.0055
12103SOL    HW242915   0.456   6.235   4.407 -0.5451  1.2044 -0.1854
12104SOL     OW42916   0.858   2.408   9.234 -0.2232  0.0402  0.0568
12104SOL    HW142917   0.838   2.450   9.150 -0.3927 -0.1306  0.0120
12104SOL    HW242918   0.777   2.363   9.258  0.6305 -2.1868 -1.0130
12105SOL     OW42919   2.163   0.879   8.708  0.1586  0.5064  0.5950
12105SOL    HW142920   2.183   0.968   8.737 -3.2070  2.5936 -2.6004
12105SOL    HW242921   2.218   0.867   8.630  0.2202 -0.0434  0.7216
12106SOL     OW42922   9.533   5.519   1.427 -0.1211 -0.0324  0.7919
12106SOL    HW142923   9.604   5.581   1.412  2.2711 -2.9176 -0.8668
12106SOL    HW242924   9.459   5.574   1.454  2.1670  3.3271  0.8866
12107SOL     OW42925   4.218   6.584   4.714 -0.3475  0.1455  0.3440
12107SOL    HW142926   4.180   6.610   4.630  1.5895  0.3768 -0.5012
12107SOL    HW242927   4.260   6.663   4.747  1.4269 -0.6475  0.0890
12108SOL     OW42928   5.574   8.321  12.356  0.6140 -0.2032 -0.3038
12108SOL    HW142929   5.585   8.394  12.418  1.0119 -1.5203  1.2563
12108SOL    HW242930   5.479   8.315  12.344  0.5569  0.3476 -0.1650
12109SOL     OW42931   7.894   1.380   6.776 -0.5371  0.0505 -0.3836
12109SOL    HW142932   7.808   1.411   6.750  0.4734  1.6285 -2.0661
12109SOL    HW242933   7.955   1.436   6.729  1.4501  0.0214  1.9566
12110SOL     OW42934   4.397   6.833   8.012 -0.0088 -0.3514  0.1292
12110SOL    HW142935   4.435   6.868   8.092  0.1281  0.9461 -0.4681
12110SOL    HW242936   4.402   6.906   7.949 -0.6333 -1.1460 -0.8823
12111SOL     OW42937  10.138   2.597  11.672  0.1359 -0.1349  0.1564
12111SOL    HW142938  10.229   2.625  11.684 -0.4963  1.8926  0.6743
12111SOL    HW242939  10.089   2.679  11.664 -1.4301 -1.1854 -2.0428
12112SOL     OW42940  12.460   3.136  11.254  0.0867 -0.2097 -0.9582
12112SOL    HW142941  12.516   3.128  11.177 -0.0056  0.3012 -1.0859
12112SOL    HW242942  12.405   3.213  11.235  1.2457  0.9973  0.3494
12113SOL     OW42943   4.797   5.506   2.034 -0.2873  0.2909 -0.6935
12113SOL    HW142944   4.740   5.452   2.089  0.5489  0.1407  0.0461
12113SOL    HW242945   4.746   5.585   2.016  0.6266  2.0207  3.2830
12114SOL     OW42946  12.584  10.133   0.438 -0.2024  0.5098  0.0028
12114SOL    HW142947  12.491  10.113   0.426  0.6078 -2.9193 -1.9168
12114SOL    HW242948  12.601  10.205   0.377 -1.4045  0.5534 -0.3124
12115SOL     OW42949   8.778   7.909  12.265 -0.5889 -0.0330 -0.1773
12115SOL    HW142950   8.720   7.979  12.232 -1.1260  0.1694  1.1435
12115SOL    HW242951   8.779   7.921  12.360  1.1434 -0.4348 -0.1129
12116SOL     OW42952   3.191   5.404  11.491  0.0663  0.5530 -0.2914
12116SOL    HW142953   3.182   5.384  11.398  1.6556 -0.6572 -0.2195
12116SOL    HW242954   3.102   5.394  11.526 -0.2860 -0.4850 -1.4092
12117SOL     OW42955   9.709   8.279  12.285  0.1944 -0.5014 -0.6414
12117SOL    HW142956   9.634   8.310  12.336  1.0514  0.5859 -0.0062
12117SOL    HW242957   9.675   8.202  12.238 -0.9074 -0.9086  0.7334
12118SOL     OW42958   7.949  12.369   2.171 -0.0068 -0.4504  0.2034
12118SOL    HW142959   8.031  12.409   2.199  1.3919 -2.3673 -0.9322
12118SOL    HW242960   7.910  12.432   2.110  0.0143  0.9631  1.5952
12119SOL     OW42961   8.944  10.090  10.776 -0.5266  0.1348  0.0078
12119SOL    HW142962   8.856  10.073  10.743 -1.1239 -0.3762  1.7735
12119SOL    HW242963   8.961  10.019  10.838  1.6401 -0.4844 -1.1856
12120SOL     OW42964   7.235  10.734   2.601 -0.1447  0.9743 -0.4641
12120SOL    HW142965   7.275  10.771   2.522 -0.6081 -2.2061 -2.3605
12120SOL    HW242966   7.155  10.692   2.570 -0.1668 -0.6995  1.6115
12121SOL     OW42967   9.495   8.127   0.971 -0.3642 -0.9356  0.7757
12121SOL    HW142968   9.434   8.054   0.984 -2.1952 -0.1084 -2.3649
12121SOL    HW242969   9.457   8.199   1.020 -0.7073 -1.0174  0.6301
12122SOL     OW42970   9.485   9.173   1.554 -0.4871 -0.4206  0.1404
12122SOL    HW142971   9.545   9.154   1.626 -0.6638  0.1377  0.4461
12122SOL    HW242972   9.500   9.104   1.491 -1.4522 -1.8599  1.3995
12123SOL     OW42973   6.859  11.325  10.451  0.5550  0.2452  0.3314
12123SOL    HW142974   6.807  11.324  10.370  0.7149 -1.5700  0.2015
12123SOL    HW242975   6.797  11.347  10.520  0.4805  2.1498 -0.2941
12124SOL     OW42976  12.589   6.624  10.183 -0.2336 -0.1553 -0.4071
12124SOL    HW142977  12.634   6.567  10.120 -1.6847 -0.0684 -1.5823
12124SOL    HW242978  12.512   6.656  10.135  0.5954  2.9441  0.1355
12125SOL     OW42979   9.871   1.314  12.472 -0.5803  0.1344 -0.0828
12125SOL    HW142980   9.809   1.386  12.459 -0.7573 -0.0154 -0.0756
12125SOL    HW242981   9.870   1.266  12.389  0.4068  0.8008 -0.5007
12126SOL     OW42982  12.334   4.643   8.270  0.5068  0.4538 -0.1335
12126SOL    HW142983  12.251   4.684   8.246 -0.5864 -2.2919 -1.5587
12126SOL    HW242984  12.308   4.572   8.329  1.8936 -0.2157 -0.3061
12127SOL     OW42985   3.526   8.287   9.577  0.4451 -0.3074  0.6537
12127SOL    HW142986   3.491   8.368   9.615  2.1896  0.4598  0.7372
12127SOL    HW242987   3.530   8.304   9.483 -0.2425 -0.7536  0.5316
12128SOL     OW42988  11.754   2.844  11.894  0.3138  0.6268 -0.4213
12128SOL    HW142989  11.844   2.873  11.909  0.3665  0.1942  0.1206
12128SOL    HW242990  11.748   2.833  11.799  1.0781 -0.1043 -0.3969
12129SOL     OW42991   9.918   8.169   1.281  0.4083 -0.6102 -0.4335
12129SOL    HW142992   9.907   8.086   1.327  1.0041 -0.2837  0.3155
12129SOL    HW242993   9.995   8.155   1.226  0.2859 -0.6740 -0.5899
12130SOL     OW42994  10.215   2.917   9.231  0.4995 -0.1589  0.1065
12130SOL    HW142995  10.129   2.915   9.274 -0.1061 -0.2992 -1.0693
12130SOL    HW242996  10.277   2.894   9.300 -0.5280 -1.1770  0.7279
12131SOL     OW42997   7.358   9.063  12.223 -0.0529  0.3245  0.2313
12131SOL    HW142998   7.331   8.975  12.248  0.9722 -0.4510 -1.2207
12131SOL    HW242999   7.290   9.092  12.162  0.4762 -0.1930 -0.6375
12132SOL     OW43000   2.150   2.546   8.265  0.1546  0.2601 -0.0755
12132SOL    HW143001   2.126   2.610   8.331 -1.1202 -0.8337  0.5696
12132SOL    HW243002   2.131   2.588   8.182 -1.7578  0.3536  0.3599
12133SOL     OW43003   2.770  10.294   1.823  0.2591 -0.8529 -0.1690
12133SOL    HW143004   2.698  10.297   1.886 -1.1168  0.8622 -1.7103
12133SOL    HW243005   2.818  10.376   1.838  1.0408 -1.3080 -0.1239
12134SOL     OW43006   4.249  10.113   3.749  0.5231  0.3275  0.0700
12134SOL    HW143007   4.324  10.172   3.757 -0.4453  1.7758 -1.1280
12134SOL    HW243008   4.255  10.077   3.661  0.0463  0.1262  0.1155
12135SOL     OW43009   3.264   6.771   8.631 -0.3376  0.2632 -0.4452
12135SOL    HW143010   3.330   6.838   8.614 -0.5025  0.5824  0.1561
12135SOL    HW243011   3.308   6.707   8.687  0.5155 -1.2971 -2.7173
12136SOL     OW43012   1.040   7.274  11.343  0.4016 -0.3552 -0.5511
12136SOL    HW143013   1.021   7.301  11.253 -0.6483 -0.2428 -0.3028
12136SOL    HW243014   0.971   7.314  11.396  0.7722 -0.7536  0.2597
12137SOL     OW43015  11.230   9.229   3.936 -0.1460  0.2795 -0.2488
12137SOL    HW143016  11.176   9.181   3.998  0.6553 -0.0873  0.1744
12137SOL    HW243017  11.287   9.163   3.896  1.7139  0.9832  1.1067
12138SOL     OW43018   7.777  10.546   4.052 -0.2287 -0.0497  0.1254
12138SOL    HW143019   7.827  10.568   4.130 -1.4001  0.0633  0.8747
12138SOL    HW243020   7.793  10.452   4.040  0.2936  0.0202  0.2508
12139SOL     OW43021   0.784   4.902   2.972  0.3101  0.0007  0.5392
12139SOL    HW143022   0.710   4.926   2.916  1.0618  1.9615  0.2854
12139SOL    HW243023   0.753   4.827   3.023 -1.5974  0.3398 -0.0504
12140SOL     OW43024   2.795   0.142   0.075 -0.2066 -0.1378 -0.4682
12140SOL    HW143025   2.738   0.219   0.070 -0.5836 -0.3368  0.5626
12140SOL    HW243026   2.870   0.165   0.020 -0.5009  0.8071 -0.5004
12141SOL     OW43027   1.438   7.156   6.998  0.1113  0.5509 -0.1287
12141SOL    HW143028   1.431   7.236   6.945  2.1515  1.9091  1.4693
12141SOL    HW243029   1.481   7.093   6.940 -0.6397  0.9240 -1.1166
12142SOL     OW43030  12.411   0.377   6.109  0.0582 -0.1499  0.0695
12142SOL    HW143031  12.379   0.327   6.034  1.2703  0.2321 -0.7457
12142SOL    HW243032  12.437   0.311   6.173 -0.1747 -0.5055 -0.2014
12143SOL     OW43033  10.299   7.927   1.672  0.3665  0.2703 -0.2329
12143SOL    HW143034  10.268   7.839   1.694  2.1228 -0.4376 -0.4002
12143SOL    HW243035  10.237   7.986   1.715  0.9790 -1.0542  2.7299
12144SOL     OW43036   7.157   7.395   6.809 -0.5540 -0.1273  0.2170
12144SOL    HW143037   7.225   7.417   6.873 -0.7435 -1.0186  0.7471
12144SOL    HW243038   7.202   7.397   6.725 -0.3619  1.3228  0.3273
12145SOL     OW43039   4.881   7.513  10.047  0.1208  0.8261  0.3549
12145SOL    HW143040   4.909   7.458   9.974  0.2992  0.1068  0.9555
12145SOL    HW243041   4.959   7.523  10.102 -0.1931  0.7612  0.8202
12146SOL     OW43042   4.540  11.104  12.650  0.2206  0.1005  0.0964
12146SOL    HW143043   4.543  11.152  12.733 -2.5716  1.0774 -0.2472
12146SOL    HW243044   4.452  11.065  12.649  0.5921 -0.7918 -1.9124
12147SOL     OW43045   4.324   9.533  10.012 -0.7183 -0.4961  0.2876
12147SOL    HW143046   4.371   9.559  10.092  0.2583 -0.8066 -0.1714
12147SOL    HW243047   4.376   9.570   9.941 -0.7833 -1.4379 -0.2589
12148SOL     OW43048   4.828   2.048   6.734 -0.0012 -0.0160  0.0226
12148SOL    HW143049   4.855   2.124   6.785  1.3983  0.5970 -1.5209
12148SOL    HW243050   4.767   2.083   6.669 -0.8940 -0.5907  0.5218
12149SOL     OW43051   4.624   8.414   9.020 -0.1654 -0.0086  0.3536
12149SOL    HW143052   4.695   8.383   8.965  0.3131 -0.0908  1.0082
12149SOL    HW243053   4.666   8.469   9.086 -0.5732 -0.8105  1.3137
12150SOL     OW43054   1.886  11.218   4.999  0.5699  0.4685  0.1730
12150SOL    HW143055   1.814  11.243   4.940  0.1410  0.1947  0.5767
12150SOL    HW243056   1.965  11.228   4.946  0.2616  1.1002 -0.1705
12151SOL     OW43057  11.275   8.949   2.981  0.0777 -0.1058  0.9639
12151SOL    HW143058  11.335   8.875   2.981  0.0966 -0.0918  1.3907
12151SOL    HW243059  11.273   8.978   2.889 -0.4957 -1.0780  0.6547
12152SOL     OW43060   2.226  10.735  10.247 -0.1693 -0.1148 -0.2547
12152SOL    HW143061   2.139  10.734  10.207 -1.0581 -0.5710  1.5901
12152SOL    HW243062   2.267  10.653  10.218 -0.1435  0.3144 -1.4989
12153SOL     OW43063   8.566   0.384  10.766 -0.8896  0.5728 -0.4016
12153SOL    HW143064   8.599   0.308  10.814 -1.0562  0.1480 -0.9446
12153SOL    HW243065   8.605   0.459  10.810 -1.1001  0.2054  0.4447
12154SOL     OW43066   3.056   3.719  12.706 -0.2137 -0.1305  0.1928
12154SOL    HW143067   3.001   3.641  12.706 -0.0494 -0.2499 -0.3288
12154SOL    HW243068   2.998   3.789  12.676  0.0624 -0.3716 -0.9605
12155SOL     OW43069   6.624   0.784  10.600  0.0278 -0.3350  0.0645
12155SOL    HW143070   6.617   0.734  10.681  1.3625 -0.8384 -0.0964
12155SOL    HW243071   6.577   0.731  10.535 -0.2541 -0.3894  0.3103
12156SOL     OW43072   4.087   8.237   7.045 -0.3166  0.0647 -0.4865
12156SOL    HW143073   4.127   8.150   7.043  0.5342  0.4402 -2.2157
12156SOL    HW243074   4.122   8.277   7.125 -0.2713 -0.9680  0.0362
12157SOL     OW43075   4.198  12.016   7.902  0.3299 -0.3920  0.6778
12157SOL    HW143076   4.291  12.032   7.920  0.2136  0.3122  0.6968
12157SOL    HW243077   4.198  11.958   7.826  0.7937  0.9481 -0.3870
12158SOL     OW43078   1.208  12.320   5.739 -0.4313  0.2189 -0.2075
12158SOL    HW143079   1.153  12.389   5.702  1.2107  0.6012 -2.1211
12158SOL    HW243080   1.276  12.366   5.788 -0.0607 -0.0964 -0.4173
12159SOL     OW43081  11.236  10.041   7.135  0.3150  0.1424 -0.5332
12159SOL    HW143082  11.311   9.987   7.110  0.1310 -1.1389  1.4725
12159SOL    HW243083  11.235  10.038   7.230 -2.0525  0.4721 -0.4923
12160SOL     OW43084  12.696   4.526  10.344 -0.2859 -0.4185  0.4722
12160SOL    HW143085  12.726   4.558  10.259  3.4075 -1.6490  1.1352
12160SOL    HW243086  12.660   4.439  10.326 -2.6672  0.6003 -0.1612
12161SOL     OW43087   6.050  11.684   4.468 -0.3164  0.0459 -0.1411
12161SOL    HW143088   6.086  11.646   4.548 -1.7796  1.9736  1.5327
12161SOL    HW243089   6.113  11.751   4.442  0.1144 -0.5189 -0.5741
12162SOL     OW43090   1.000   0.488  11.264  0.0376  0.1823  0.0068
12162SOL    HW143091   1.027   0.579  11.267  0.3322  0.0666  1.0589
12162SOL    HW243092   0.985   0.463  11.355 -4.7494  0.5434 -0.4331
12163SOL     OW43093  11.510   8.944   0.765  0.0861  0.7169  0.3288
12163SOL    HW143094  11.525   9.022   0.818 -2.7805  0.8744  1.0530
12163SOL    HW243095  11.553   8.874   0.813  1.5705  1.5997  0.3488
12164SOL     OW43096   1.517   8.922   7.031 -0.2843  0.6135  0.3902
12164SOL    HW143097   1.572   8.844   7.032  1.3950  1.7452  0.3792
12164SOL    HW243098   1.468   8.917   6.949  1.5186  0.6945 -0.7232
12165SOL     OW43099  12.675   6.502   9.918 -0.1712  0.4074  0.4375
12165SOL    HW143100  12.731   6.428   9.892  0.7759  1.6291 -1.2196
12165SOL    HW243101  12.695   6.570   9.854  0.9621  3.0772  3.3517
12166SOL     OW43102   3.058   3.312   1.684  0.5907  0.3025 -0.0757
12166SOL    HW143103   3.096   3.300   1.771  0.7478  2.3095  0.1854
12166SOL    HW243104   2.971   3.349   1.700 -0.8022 -2.4045 -0.7318
12167SOL     OW43105   7.638   2.110   7.179 -0.3970 -0.0786 -0.1742
12167SOL    HW143106   7.709   2.175   7.178  0.5671 -1.0892 -2.1138
12167SOL    HW243107   7.683   2.025   7.182 -1.6046 -0.7321  0.8262
12168SOL     OW43108  10.695   9.607   1.938 -0.5822 -0.0220 -0.2297
12168SOL    HW143109  10.709   9.516   1.966 -2.6549 -0.8661 -1.7339
12168SOL    HW243110  10.609   9.630   1.974 -1.0703  0.5595 -1.7021
12169SOL     OW43111   2.094   6.131   0.587 -0.1350 -0.0148 -0.7248
12169SOL    HW143112   2.082   6.116   0.680  0.6158 -0.5943 -0.7131
12169SOL    HW243113   2.006   6.122   0.550 -0.8580  2.4588  0.1886
12170SOL     OW43114   7.230   2.499   8.961  0.0416  0.1137  0.1094
12170SOL    HW143115   7.150   2.539   8.926  0.6556  1.6890  0.4062
12170SOL    HW243116   7.268   2.451   8.888  0.6052  2.2300 -1.0801
12171SOL     OW43117   6.845   5.438   1.075  0.1093 -0.7557  0.3580
12171SOL    HW143118   6.838   5.403   1.164 -0.7269  0.1340  0.6521
12171SOL    HW243119   6.908   5.509   1.082 -2.1134  1.2638  0.8929
12172SOL     OW43120   2.678  11.227   5.620  0.0637  0.1027 -0.0575
12172SOL    HW143121   2.707  11.197   5.533  1.8253 -0.8331  0.7898
12172SOL    HW243122   2.716  11.314   5.629  0.5214 -0.0988  0.0361
12173SOL     OW43123   6.273   3.433   5.941 -0.3493 -0.1015  0.1462
12173SOL    HW143124   6.363   3.465   5.946  0.1959 -1.7204  1.5587
12173SOL    HW243125   6.277   3.361   5.878 -0.5538 -0.4767  0.5601
12174SOL     OW43126   7.752   7.493   8.720 -0.7416  0.0386 -0.4369
12174SOL    HW143127   7.745   7.427   8.789 -0.4466  1.4008  0.9430
12174SOL    HW243128   7.677   7.476   8.663 -1.4794 -0.5821  0.6830
12175SOL     OW43129   4.418   7.651   4.205 -0.4921 -0.0906 -0.4298
12175SOL    HW143130   4.360   7.726   4.191 -2.1794 -1.3758 -0.6198
12175SOL    HW243131   4.378   7.603   4.278 -0.1367 -1.4447 -1.0906
12176SOL     OW43132   6.741   1.766   7.955  0.4301  0.2228 -0.5968
12176SOL    HW143133   6.836   1.773   7.967  0.1449  1.0852  1.6521
12176SOL    HW243134   6.720   1.838   7.895  0.8364  2.2772  1.5981
12177SOL     OW43135   3.800   5.419   2.692 -0.3590 -0.0490  0.1720
12177SOL    HW143136   3.732   5.486   2.688 -0.5530 -0.2419  0.2262
12177SOL    HW243137   3.883   5.468   2.692 -0.4624  0.1393 -1.0693
12178SOL     OW43138   1.362   4.207   2.387  0.1180  0.1165  0.0990
12178SOL    HW143139   1.336   4.147   2.457 -0.5864  0.7761  0.4131
12178SOL    HW243140   1.412   4.153   2.327  1.1001 -0.3783  1.3130
12179SOL     OW43141   1.009  11.617   3.982  0.2412 -0.0723  0.6124
12179SOL    HW143142   1.032  11.574   3.900  0.6589 -1.2794  1.3377
12179SOL    HW243143   0.940  11.680   3.958 -0.3999 -1.1477 -0.4878
12180SOL     OW43144  11.785   8.684   4.047  0.6697 -0.6172  0.5104
12180SOL    HW143145  11.767   8.675   4.141 -3.2221  1.7520  0.2329
12180SOL    HW243146  11.719   8.630   4.005 -0.2315  1.3817 -0.7894
12181SOL     OW43147   3.734   1.706   7.174  0.0699 -0.1480 -0.3199
12181SOL    HW143148   3.771   1.655   7.102  0.3791 -0.4837  0.0697
12181SOL    HW243149   3.640   1.709   7.155 -0.1945 -2.1721  0.4160
12182SOL     OW43150   7.045   7.872  10.611  0.1220  0.1132  0.2596
12182SOL    HW143151   7.079   7.955  10.578  0.1038  0.5502  1.2962
12182SOL    HW243152   6.956   7.892  10.640  1.1277  0.5444  3.3972
12183SOL     OW43153   6.380   7.740   1.816 -0.0596  0.0515  0.1728
12183SOL    HW143154   6.301   7.793   1.832  0.6863  0.7798  1.7014
12183SOL    HW243155   6.429   7.789   1.751  0.0096  0.5915  0.6207
12184SOL     OW43156   9.935  11.171   0.461  0.1067 -0.3370  0.4841
12184SOL    HW143157   9.872  11.104   0.487 -0.0426  0.4083  2.1943
12184SOL    HW243158   9.883  11.232   0.408 -0.4743 -0.0636  1.3450
12185SOL     OW43159   5.118   8.700   5.446 -0.1018  0.0980  0.0580
12185SOL    HW143160   5.177   8.697   5.521  0.0339  0.6642 -0.0236
12185SOL    HW243161   5.160   8.644   5.381  1.6488  2.3929 -0.9170
12186SOL     OW43162   4.833   8.971  12.096  0.0156 -0.1273  0.3939
12186SOL    HW143163   4.809   9.054  12.055 -0.0098 -0.2228  0.2143
12186SOL    HW243164   4.928   8.976  12.106 -0.2133  0.9651  2.6571
12187SOL     OW43165   0.188   2.672  11.638 -0.3218  0.1856 -0.2999
12187SOL    HW143166   0.132   2.625  11.577 -0.0931  0.2377 -0.5495
12187SOL    HW243167   0.135   2.746  11.667 -0.6726 -0.2001  0.0701
12188SOL     OW43168   5.148   6.364   1.497  0.5899 -0.4065 -0.7156
12188SOL    HW143169   5.205   6.440   1.485  1.4599 -1.0427 -0.6810
12188SOL    HW243170   5.146   6.350   1.592 -1.6119  1.0776 -0.4590
12189SOL     OW43171   0.322   9.650   8.844  0.5241 -0.7017 -0.1298
12189SOL    HW143172   0.400   9.608   8.882  0.0529  0.0581  1.7875
12189SOL    HW243173   0.270   9.578   8.810  0.7324 -1.5042  1.1867
12190SOL     OW43174   8.063   6.424   1.364  0.5547  0.1891 -0.0360
12190SOL    HW143175   8.061   6.462   1.452  0.5961 -0.8149  0.4165
12190SOL    HW243176   8.074   6.499   1.306 -1.3803  1.0908  0.6589
12191SOL     OW43177   1.743   8.400   4.153  0.0606 -0.6466 -0.8032
12191SOL    HW143178   1.803   8.394   4.079 -0.3459 -0.9537 -1.1120
12191SOL    HW243179   1.785   8.351   4.224  1.3220  1.1589 -0.2220
12192SOL     OW43180  11.327  10.515  11.669  0.0800  0.2969 -0.7641
12192SOL    HW143181  11.314  10.584  11.735  0.2577 -0.3682 -0.0242
12192SOL    HW243182  11.329  10.434  11.719 -0.6963 -0.3129 -1.6933
12193SOL     OW43183   5.493  10.052  10.876 -0.0034  0.1901 -0.6333
12193SOL    HW143184   5.400  10.042  10.898 -0.7699  0.4688 -3.4183
12193SOL    HW243185   5.506   9.997  10.799  1.9042  0.9312 -0.8970
12194SOL     OW43186   4.613   5.777   1.041 -0.1052 -0.7261  0.5723
12194SOL    HW143187   4.706   5.795   1.055  0.0501  0.0409 -1.2003
12194SOL    HW243188   4.611   5.707   0.977 -0.7859 -1.7130  1.6237
12195SOL     OW43189   4.255  11.046   5.719  1.0357 -0.3230  0.0111
12195SOL    HW143190   4.270  11.081   5.631 -0.5461  0.0365 -0.1465
12195SOL    HW243191   4.187  11.103   5.756  0.8263 -1.1961  1.0050
12196SOL     OW43192  10.542   0.684   2.872  0.2621  0.4467  0.1865
12196SOL    HW143193  10.489   0.734   2.810 -2.2358 -0.8058  1.1775
12196SOL    HW243194  10.585   0.750   2.926  0.0167  1.5226 -0.8987
12197SOL     OW43195  11.190   1.387   2.802  0.1188  0.2863 -0.1031
12197SOL    HW143196  11.117   1.449   2.793  1.3183  1.9538  1.1645
12197SOL    HW243197  11.261   1.427   2.752  0.9036 -0.0964  0.6951
12198SOL     OW43198  11.949   6.087   6.064 -0.9326  0.3649 -0.4951
12198SOL    HW143199  12.019   6.145   6.035  1.3355 -1.0266  1.8221
12198SOL    HW243200  11.971   6.002   6.026 -0.8953 -0.2642  0.9083
12199SOL     OW43201   6.236   8.038   3.941  0.8377  0.0133 -0.2077
12199SOL    HW143202   6.162   7.991   3.979  0.9858 -0.2199 -0.2056
12199SOL    HW243203   6.235   8.124   3.985  0.3206  0.1671 -0.5102
12200SOL     OW43204   0.336  11.908   1.543 -0.1703  0.6845  0.0909
12200SOL    HW143205   0.293  11.864   1.469  0.1260  1.8687 -0.8384
12200SOL    HW243206   0.278  11.893   1.617  0.7512 -2.6641  0.2705
12201SOL     OW43207  10.183   1.169   3.162 -0.0031  0.5129  0.3453
12201SOL    HW143208  10.093   1.140   3.176  0.2257  0.1404  1.0955
12201SOL    HW243209  10.186   1.193   3.069 -0.8026  0.2815  0.2505
12202SOL     OW43210  11.180   2.608   3.622 -0.2635  0.0350  0.1576
12202SOL    HW143211  11.184   2.700   3.595 -1.6708  0.6020  1.6815
12202SOL    HW243212  11.251   2.599   3.685  0.7439 -0.3207 -0.9985
12203SOL     OW43213   5.638   6.665   5.535 -0.0587 -0.1600 -0.3427
12203SOL    HW143214   5.662   6.692   5.447 -0.9581  0.1851 -0.4939
12203SOL    HW243215   5.700   6.595   5.557  1.1933  0.8308 -0.6174
12204SOL     OW43216   3.754   8.150   2.640 -0.1517  0.1007 -0.0028
12204SOL    HW143217   3.847   8.157   2.621 -0.2969  0.6854 -0.5712
12204SOL    HW243218   3.718   8.098   2.568 -0.3651  0.4742 -0.1763
12205SOL     OW43219   7.471   0.236   9.461 -0.4067 -0.2432 -0.0129
12205SOL    HW143220   7.410   0.240   9.534  0.0576 -2.3116  0.5322
12205SOL    HW243221   7.419   0.203   9.388 -0.5920  0.7473 -0.3524
12206SOL     OW43222   7.675   9.693   5.198  0.1885  0.4206 -0.2535
12206SOL    HW143223   7.730   9.622   5.167  0.8193  0.9889 -0.4550
12206SOL    HW243224   7.733   9.749   5.249 -0.2848  0.8285 -0.1482
12207SOL     OW43225  11.243   1.224   8.706 -0.4998  0.1443  0.0015
12207SOL    HW143226  11.272   1.158   8.768 -0.5684 -0.0637 -0.1865
12207SOL    HW243227  11.199   1.175   8.637 -3.4262  0.5832  1.3999
12208SOL     OW43228   5.296   1.281  10.981 -0.6097  0.2305  0.2571
12208SOL    HW143229   5.224   1.245  11.032  1.1422 -0.3263  2.5583
12208SOL    HW243230   5.293   1.376  10.998 -2.6564  0.7446 -2.3374
12209SOL     OW43231   1.063   5.504   8.696 -0.4186  0.2246 -0.0306
12209SOL    HW143232   1.022   5.485   8.612 -1.1895  0.5722  0.2616
12209SOL    HW243233   1.135   5.440   8.702 -1.0936 -0.5922 -0.4067
12210SOL     OW43234   4.187   7.909   1.740  0.3535 -0.0699 -0.0547
12210SOL    HW143235   4.133   7.859   1.802  0.5207  0.7394  0.7596
12210SOL    HW243236   4.266   7.855   1.730  0.7554  0.2298  1.2083
12211SOL     OW43237   6.807   5.978   4.700  0.3424  0.6612  0.1487
12211SOL    HW143238   6.879   6.017   4.748 -0.5431  2.0116  0.4128
12211SOL    HW243239   6.779   5.904   4.754  1.6653 -0.0275 -0.0805
12212SOL     OW43240  11.076   2.179   5.486 -0.1540 -0.0299  0.3909
12212SOL    HW143241  11.138   2.119   5.443 -0.8961 -1.3478  1.1139
12212SOL    HW243242  10.991   2.137   5.476 -1.1979  2.3475 -1.6691
12213SOL     OW43243   1.442   0.467   1.511  0.5925  0.2198 -0.5697
12213SOL    HW143244   1.373   0.530   1.532  0.0724 -0.7214  0.6507
12213SOL    HW243245   1.416   0.429   1.427 -0.9528 -0.8434  0.3396
12214SOL     OW43246  11.583  11.581   1.016  0.0295  0.3065 -0.2497
12214SOL    HW143247  11.547  11.655   1.065 -1.3174 -0.2907 -0.3142
12214SOL    HW243248  11.586  11.612   0.925 -0.1591  0.4101 -0.2204
12215SOL     OW43249   4.827   4.018  12.250  0.1588  0.6134  0.0442
12215SOL    HW143250   4.801   3.975  12.168 -1.2270 -0.0008  0.7633
12215SOL    HW243251   4.756   4.078  12.269 -0.0282  0.0319  1.2839
12216SOL     OW43252   9.868   3.732   8.649  0.2264 -0.0054  0.4705
12216SOL    HW143253   9.852   3.803   8.711  0.1731 -0.5345  1.0707
12216SOL    HW243254   9.883   3.655   8.704  1.8912 -0.1467 -0.1277
12217SOL     OW43255   0.178   4.833  10.371  0.3535  0.0668  0.2678
12217SOL    HW143256   0.131   4.890  10.310 -1.2061 -1.4300 -0.0103
12217SOL    HW243257   0.192   4.752  10.323  2.5975  0.1589  0.6252
12218SOL     OW43258   5.773   7.312   7.018 -0.3189  0.0696 -0.3448
12218SOL    HW143259   5.774   7.398   6.976 -1.0142 -0.2253 -0.9896
12218SOL    HW243260   5.814   7.253   6.955  1.0623  0.0929  0.5022
12219SOL     OW43261  10.228   7.343   4.004  0.1590  0.3548 -0.1101
12219SOL    HW143262  10.290   7.347   3.931  0.9262  0.3083  0.5326
12219SOL    HW243263  10.196   7.433   4.013 -0.4090  0.2423 -0.8931
12220SOL     OW43264   1.224   0.754   6.968  0.1091 -1.2355  0.1427
12220SOL    HW143265   1.214   0.662   6.942 -1.2282 -0.8951 -0.6889
12220SOL    HW243266   1.223   0.802   6.885  1.5226 -0.5004  0.5154
12221SOL     OW43267   4.378   6.952   9.537  0.3194  0.0490 -0.6829
12221SOL    HW143268   4.372   6.986   9.448  0.6246  2.1167  0.0207
12221SOL    HW243269   4.471   6.938   9.552  0.3503  0.4897 -0.4359
12222SOL     OW43270  12.008   5.986   1.513  0.2248  0.3323  0.0707
12222SOL    HW143271  12.041   6.058   1.567  0.1054  1.4882 -1.3347
12222SOL    HW243272  12.053   5.909   1.547  0.3146  1.0291  1.6588
12223SOL     OW43273   4.741   9.338   8.476 -0.1080 -0.5359  0.0628
12223SOL    HW143274   4.679   9.338   8.404 -0.6008 -0.0949  0.4804
12223SOL    HW243275   4.818   9.383   8.442 -0.7677  0.7007  0.1614
12224SOL     OW43276   2.002  10.174   4.303  0.3375 -0.0522 -0.8089
12224SOL    HW143277   1.956  10.168   4.219  0.4693 -0.0342 -0.8831
12224SOL    HW243278   2.015  10.083   4.329 -1.0839 -0.0548 -0.0377
12225SOL     OW43279   9.050  10.260   4.728 -0.4302  0.8551 -0.4303
12225SOL    HW143280   9.045  10.323   4.656 -2.2019  1.8171  0.4565
12225SOL    HW243281   8.958  10.247   4.754 -0.1868 -2.5080 -0.8877
12226SOL     OW43282   4.976   9.410   7.289 -0.2644 -0.4153  0.7655
12226SOL    HW143283   4.976   9.328   7.241  2.5342  0.5109 -1.0851
12226SOL    HW243284   5.069   9.427   7.308 -0.8994  1.4763  2.6437
12227SOL     OW43285   7.782   5.576   5.575  0.3834 -0.0870  0.2766
12227SOL    HW143286   7.854   5.533   5.622 -0.3287 -0.2099  1.3043
12227SOL    HW243287   7.814   5.664   5.555  0.2496  0.4438  2.2159
12228SOL     OW43288   0.044   7.789   1.866  0.9147 -0.9014  0.1365
12228SOL    HW143289   0.030   7.879   1.837 -1.2130 -1.0723  0.4719
12228SOL    HW243290   0.127   7.764   1.827  0.3541  0.3833 -2.0270
12229SOL     OW43291   7.809  12.402   9.061 -0.7244  0.7183  0.0472
12229SOL    HW143292   7.815  12.345   9.138  0.7917  1.6235  0.6436
12229SOL    HW243293   7.835  12.345   8.988  1.3786  0.7282  0.7168
12230SOL     OW43294   9.470   2.591   1.740 -0.0098  0.1315  0.3078
12230SOL    HW143295   9.389   2.569   1.787  1.0572 -0.4161  1.9640
12230SOL    HW243296   9.532   2.615   1.808  1.1452  0.9032 -0.9619
12231SOL     OW43297   4.754   9.515   0.866  0.5572 -0.7225 -0.3467
12231SOL    HW143298   4.699   9.438   0.876  0.6111 -0.7079  0.1052
12231SOL    HW243299   4.693   9.588   0.860  0.5163 -0.4824  2.1031
12232SOL     OW43300   4.381   5.680   2.337  0.3575  0.3939 -0.6519
12232SOL    HW143301   4.477   5.681   2.336  0.3851 -0.2375  0.1749
12232SOL    HW243302   4.359   5.588   2.352 -0.3711  0.5983 -0.4749
12233SOL     OW43303   6.910  10.242  10.630  0.6185  0.3404  0.2174
12233SOL    HW143304   6.983  10.282  10.678  0.6133 -1.3799  1.7287
12233SOL    HW243305   6.850  10.212  10.698 -1.4365  1.4851 -0.9857
12234SOL     OW43306  12.505   2.745   6.153  0.3312  0.0076  0.1891
12234SOL    HW143307  12.484   2.698   6.072 -0.3990 -0.1706  0.4718
12234SOL    HW243308  12.504   2.837   6.127  3.2108 -0.1249 -0.6947
12235SOL     OW43309   9.945  11.775  10.021  0.1899  0.3850 -0.4975
12235SOL    HW143310  10.024  11.828  10.030  1.4852 -1.3161 -1.2390
12235SOL    HW243311   9.977  11.685  10.020 -1.8379 -0.3830 -0.1658
12236SOL     OW43312   9.320  11.622   5.340  0.2440  0.2181  0.5218
12236SOL    HW143313   9.302  11.652   5.429 -0.9680  2.3389 -0.3421
12236SOL    HW243314   9.382  11.550   5.350  0.1302  0.3907  3.0588
12237SOL     OW43315  10.129  11.714   2.232  0.2790 -0.2596 -0.4307
12237SOL    HW143316  10.086  11.706   2.147  0.0995  1.2056 -0.5034
12237SOL    HW243317  10.070  11.769   2.284  1.3798  0.5921 -0.0577
12238SOL     OW43318   9.355   3.809   2.551  0.0503  0.5542 -0.2795
12238SOL    HW143319   9.441   3.769   2.541  0.1974  0.9267 -0.5159
12238SOL    HW243320   9.312   3.795   2.466 -0.2030  0.1814 -0.0931
12239SOL     OW43321   2.563  12.059   3.482 -0.7162 -0.1977 -0.7413
12239SOL    HW143322   2.478  12.102   3.488  0.3536  1.8562  0.9365
12239SOL    HW243323   2.611  12.111   3.418  0.2237  0.4694  0.4732
12240SOL     OW43324   1.934   3.965   8.808  0.1589 -0.3158  0.2941
12240SOL    HW143325   1.935   3.921   8.894  0.6511  0.7454  0.8457
12240SOL    HW243326   1.850   3.940   8.770 -0.1135 -0.7263  1.1282
12241SOL     OW43327  10.459   4.228   8.555  0.0369 -0.5427 -0.2753
12241SOL    HW143328  10.438   4.145   8.512 -0.3596 -1.7323  2.0638
12241SOL    HW243329  10.555   4.231   8.555  0.0902  0.2394 -2.4496
12242SOL     OW43330   0.384   5.991  12.073  0.0107  0.3025  0.5636
12242SOL    HW143331   0.456   5.933  12.098 -0.9992 -1.5229 -0.5144
12242SOL    HW243332   0.427   6.067  12.034  1.4065 -1.3011 -1.2268
12243SOL     OW43333   1.020  12.276   0.518 -0.0450  0.1396  0.3480
12243SOL    HW143334   0.928  12.257   0.504 -0.2783  1.2387  0.3267
12243SOL    HW243335   1.052  12.306   0.432  0.1569  0.4220  0.5191
12244SOL     OW43336   6.146   4.284  10.926 -0.2689  0.5349 -0.2716
12244SOL    HW143337   6.193   4.237  10.994 -2.0844  0.3456  0.9143
12244SOL    HW243338   6.158   4.377  10.948 -1.2174  0.4630  0.5871
12245SOL     OW43339   6.500   0.641  11.531 -0.1657  0.2521 -0.2210
12245SOL    HW143340   6.451   0.678  11.605  1.9482 -0.8902  1.8987
12245SOL    HW243341   6.482   0.548  11.534  1.4531 -0.0925  0.1727
12246SOL     OW43342   5.498   1.364  11.273  0.1816  0.4138  0.0315
12246SOL    HW143343   5.415   1.333  11.310  1.1391 -0.2993  1.6933
12246SOL    HW243344   5.525   1.434  11.332 -0.1360  1.9793 -1.5943
12247SOL     OW43345   6.639   2.170   6.232  0.7295 -0.0126  0.0600
12247SOL    HW143346   6.550   2.152   6.264  0.4130  0.1438 -0.7106
12247SOL    HW243347   6.640   2.263   6.213  1.7298  0.4312  2.0650
12248SOL     OW43348   4.695   1.380   4.184 -0.1890 -0.0708 -0.3071
12248SOL    HW143349   4.719   1.311   4.123  0.8227 -0.0587  0.0598
12248SOL    HW243350   4.621   1.344   4.233  0.2642 -0.8645 -0.1874
12249SOL     OW43351   3.881   5.959  10.795 -0.0065 -0.2236  0.1158
12249SOL    HW143352   3.825   6.037  10.803  0.5994  0.5249 -2.1621
12249SOL    HW243353   3.825   5.894  10.752  0.4451  0.1020 -1.0045
12250SOL     OW43354  12.488   6.001   9.858 -0.1108  0.3716 -0.3220
12250SOL    HW143355  12.443   6.070   9.811  0.9776  0.7108 -0.8948
12250SOL    HW243356  12.580   6.014   9.837  0.0889 -1.4887 -0.7685
12251SOL     OW43357   3.686   6.694   3.799 -0.2709 -0.3469 -0.4410
12251SOL    HW143358   3.766   6.666   3.845 -0.1902  0.0783 -0.3198
12251SOL    HW243359   3.709   6.692   3.707 -0.1001 -0.1679 -0.4027
12252SOL     OW43360   7.964   7.481   0.212  0.0549  0.2480 -0.1152
12252SOL    HW143361   7.891   7.421   0.227  1.6777 -1.4263  1.5873
12252SOL    HW243362   7.971   7.531   0.293  1.7801 -0.7950  0.4319
12253SOL     OW43363   7.229  11.819   2.141 -0.6013 -0.2602  0.0995
12253SOL    HW143364   7.135  11.805   2.145 -0.3208 -2.0177  1.5167
12253SOL    HW243365   7.266  11.732   2.126  0.8203  0.3774 -0.2698
12254SOL     OW43366  12.063   1.685  11.456  0.1890 -0.2388 -0.1848
12254SOL    HW143367  12.144   1.693  11.507  0.3433 -1.5396 -0.1999
12254SOL    HW243368  12.082   1.730  11.374  0.1852  1.2414  0.5917
12255SOL     OW43369   2.867   9.602   5.482  0.5215  0.2304 -0.3651
12255SOL    HW143370   2.855   9.544   5.406 -0.5325  0.3884 -0.3257
12255SOL    HW243371   2.820   9.682   5.459  1.1751  0.7234 -0.0146
12256SOL     OW43372   5.079   9.233   9.057 -0.3573 -0.1422  0.2572
12256SOL    HW143373   5.000   9.286   9.045 -0.3737 -0.7111 -3.3297
12256SOL    HW243374   5.150   9.297   9.065 -0.9247  0.3600  1.5374
12257SOL     OW43375  11.342   3.388   9.746  0.4059  0.1402 -0.1612
12257SOL    HW143376  11.409   3.452   9.723 -0.6507  2.4036  2.5419
12257SOL    HW243377  11.291   3.429   9.816 -2.1829 -2.5319 -0.2558
12258SOL     OW43378   9.143   5.022   5.809 -0.1616  0.4748  0.2489
12258SOL    HW143379   9.059   5.035   5.853 -1.1308 -0.0053 -1.3507
12258SOL    HW243380   9.137   4.934   5.772  0.7505  0.6962 -0.4631
12259SOL     OW43381   2.210   2.835   5.533 -0.4415 -0.0906 -0.3031
12259SOL    HW143382   2.273   2.818   5.603 -0.4291  0.1093 -0.2659
12259SOL    HW243383   2.262   2.828   5.453 -0.6172 -1.1092 -0.3427
12260SOL     OW43384   6.046   5.758   0.808 -0.1978  0.3777 -0.3172
12260SOL    HW143385   6.105   5.833   0.816  0.0028  0.0798  1.4303
12260SOL    HW243386   6.093   5.686   0.850 -0.8105 -0.4907 -1.0700
12261SOL     OW43387   9.396   0.361   2.956  0.4754 -0.1388  0.0404
12261SOL    HW143388   9.361   0.439   3.000  0.6871  0.5670 -1.0171
12261SOL    HW243389   9.489   0.380   2.943  0.3986 -0.3117 -0.7844
12262SOL     OW43390   4.327   4.470   9.588 -0.0618 -0.1737  0.0044
12262SOL    HW143391   4.362   4.535   9.528 -1.8435  1.2040  0.3731
12262SOL    HW243392   4.282   4.407   9.533  0.9661 -0.6847 -0.2883
12263SOL     OW43393   0.712   8.924   7.633  0.1852 -0.9236  0.9108
12263SOL    HW143394   0.778   8.973   7.683  1.0058 -1.0339 -0.0523
12263SOL    HW243395   0.655   8.991   7.596  1.3548 -0.6508 -0.4729
12264SOL     OW43396  10.544   1.528   5.340  0.3242 -0.6445 -0.0739
12264SOL    HW143397  10.613   1.511   5.404  1.3946  0.3313 -0.9131
12264SOL    HW243398  10.473   1.470   5.365  1.6096 -2.0183  0.5775
12265SOL     OW43399   7.464   9.182   9.562 -0.4357  0.2431 -0.4683
12265SOL    HW143400   7.399   9.172   9.632  2.3001 -0.3442  2.1711
12265SOL    HW243401   7.479   9.093   9.530  0.5573  0.0641  0.4389
12266SOL     OW43402   6.385   0.519   5.337 -0.1458 -0.0460 -0.0727
12266SOL    HW143403   6.376   0.431   5.300  1.4856 -0.2898  0.0228
12266SOL    HW243404   6.467   0.552   5.299 -0.3578  1.1436  0.4720
12267SOL     OW43405   3.228   6.208  10.250 -0.0739  0.0123 -1.5009
12267SOL    HW143406   3.235   6.252  10.165 -0.7077  0.5433 -1.2894
12267SOL    HW243407   3.134   6.198  10.264  0.0491 -1.2504 -1.4473
12268SOL     OW43408   4.031   0.340   8.357 -0.1042 -0.2872 -0.0336
12268SOL    HW143409   4.035   0.260   8.410 -0.5916 -0.0105  0.4354
12268SOL    HW243410   4.083   0.404   8.406  0.8195 -0.4923 -0.7316
12269SOL     OW43411   8.030   9.290   4.249 -0.6100 -0.2236 -0.0470
12269SOL    HW143412   8.075   9.317   4.329  1.3764 -1.8183 -0.5665
12269SOL    HW243413   7.998   9.202   4.268  0.1125 -0.7244 -1.0744
12270SOL     OW43414   8.220   3.672   6.976 -0.1788  0.2003 -0.0694
12270SOL    HW143415   8.133   3.643   7.002  0.2202 -1.7956 -0.7287
12270SOL    HW243416   8.248   3.732   7.045 -1.6438  0.0483  0.6883
12271SOL     OW43417  10.132   3.952   9.841  0.3458  0.1801 -0.3695
12271SOL    HW143418  10.207   3.895   9.824 -0.6280 -0.7826 -1.7460
12271SOL    HW243419  10.123   3.952   9.936  1.4331 -0.5442 -0.2408
12272SOL     OW43420   5.048   1.620  11.585  0.3258  0.1236 -0.0771
12272SOL    HW143421   5.141   1.600  11.596  1.0795  2.7925 -0.7597
12272SOL    HW243422   5.040   1.650  11.495 -0.8650  1.2820  0.3711
12273SOL     OW43423  11.008   9.833  12.498  0.8344  0.1108 -0.1647
12273SOL    HW143424  11.047   9.821  12.585 -0.9953  0.2696  0.7351
12273SOL    HW243425  11.025   9.925  12.477  1.1915  0.1007  0.0795
12274SOL     OW43426   7.647   1.311   3.171 -0.6864 -0.5885  0.1042
12274SOL    HW143427   7.729   1.360   3.168 -0.6693 -0.5347  1.0381
12274SOL    HW243428   7.579   1.378   3.168 -0.8092 -0.7053 -2.9451
12275SOL     OW43429  12.087   9.049   4.399  0.2448 -0.2585  0.3020
12275SOL    HW143430  12.039   9.120   4.357 -0.4765 -1.1888 -0.4727
12275SOL    HW243431  12.044   9.038   4.484 -1.9122 -2.0000 -0.9095
12276SOL     OW43432   6.325   0.375   2.973 -0.1988 -0.7646 -0.1040
12276SOL    HW143433   6.254   0.335   2.922  0.0705 -1.2985 -0.0710
12276SOL    HW243434   6.288   0.457   3.004 -0.1028 -0.0310 -1.8166
12277SOL     OW43435   8.262   6.246   2.980  0.8611  0.2838  0.2164
12277SOL    HW143436   8.307   6.322   2.942  1.5327 -0.7562 -1.1334
12277SOL    HW243437   8.280   6.174   2.920 -0.8660 -0.6698  0.7716
12278SOL     OW43438   1.713   9.504   6.147 -0.2378  0.2739 -0.1714
12278SOL    HW143439   1.782   9.437   6.143 -2.3259 -2.1148  1.0701
12278SOL    HW243440   1.667   9.496   6.063 -0.1862  0.5486 -0.2288
12279SOL     OW43441   3.907   6.238   6.943 -0.3394  0.0959 -0.0070
12279SOL    HW143442   3.908   6.158   6.891  0.8861  0.3089 -0.3559
12279SOL    HW243443   3.815   6.262   6.949 -0.8560 -1.9304  1.0481
12280SOL     OW43444   5.458   7.121   0.640  0.2316  0.1184  0.0573
12280SOL    HW143445   5.390   7.135   0.574  0.4539  1.8685  0.1539
12280SOL    HW243446   5.540   7.135   0.592  0.4221  0.6329  0.5318
12281SOL     OW43447   9.875   8.688   8.135  0.5582 -0.3807  0.4929
12281SOL    HW143448   9.915   8.602   8.146 -0.5104 -1.4013 -2.5431
12281SOL    HW243449   9.902   8.716   8.047 -0.2468  1.7903  0.8649
12282SOL     OW43450   2.275   4.286   2.489 -0.1924 -0.2364 -0.2641
12282SOL    HW143451   2.234   4.368   2.517  1.3372 -0.3797  2.9367
12282SOL    HW243452   2.231   4.263   2.408 -0.8710  3.6114 -1.1949
12283SOL     OW43453   8.343   7.846   7.032  0.0593  0.2279  0.4318
12283SOL    HW143454   8.309   7.935   7.046  1.2229  0.9345 -0.9927
12283SOL    HW243455   8.437   7.857   7.019 -0.0241 -0.9706 -1.6379
12284SOL     OW43456   2.135   2.904   9.817  0.0914  0.4128  0.3310
12284SOL    HW143457   2.219   2.950   9.820 -0.2332  0.9632  1.9674
12284SOL    HW243458   2.157   2.815   9.789  1.0834  0.8265 -0.2442
12285SOL     OW43459   6.224   5.701   3.540 -0.1792 -0.0891  0.1221
12285SOL    HW143460   6.148   5.671   3.490  0.2360 -1.3520  0.2087
12285SOL    HW243461   6.201   5.683   3.631  0.3314 -0.7620  0.1246
12286SOL     OW43462   6.551  12.673   1.525  0.3901  0.5327 -0.2606
12286SOL    HW143463   6.610  12.601   1.549 -1.3487 -1.4437 -1.5318
12286SOL    HW243464   6.577  12.697   1.436 -1.1115 -0.8552 -1.1113
12287SOL     OW43465   6.114   4.157   5.963  0.5366 -0.4432  0.5861
12287SOL    HW143466   6.051   4.228   5.956  0.8866 -0.2825 -2.2750
12287SOL    HW243467   6.064   4.078   5.941  0.9960 -0.5111 -0.2471
12288SOL     OW43468   9.238  11.404  10.993  0.3864  0.6112  0.0362
12288SOL    HW143469   9.273  11.480  11.040  0.4824  0.9097 -0.5131
12288SOL    HW243470   9.169  11.371  11.050 -1.4071  2.6281 -0.8477
12289SOL     OW43471   7.206   9.640   1.943 -0.6991 -0.5274 -0.0182
12289SOL    HW143472   7.277   9.694   1.910 -0.7572 -0.2031  0.3885
12289SOL    HW243473   7.134   9.701   1.959 -0.7275 -0.7054  0.5600
12290SOL     OW43474   4.551   0.694  11.862  0.4173 -0.6582 -0.9619
12290SOL    HW143475   4.593   0.704  11.777 -1.1615  0.7142 -1.6279
12290SOL    HW243476   4.594   0.759  11.918  0.2812 -0.3712 -1.1893
12291SOL     OW43477   4.131   7.042   2.794  0.1425 -0.3701 -0.3195
12291SOL    HW143478   4.131   7.090   2.712  0.2015  0.1232 -0.0384
12291SOL    HW243479   4.098   7.106   2.858  0.7231 -0.5432  0.1552
12292SOL     OW43480  11.182   4.387   0.237 -0.0073 -0.3089  0.3411
12292SOL    HW143481  11.169   4.438   0.316 -0.0605  2.1584 -1.1479
12292SOL    HW243482  11.094   4.376   0.200  0.3137  2.2045 -1.4159
12293SOL     OW43483   4.038   6.318   4.962  0.1870  0.2916  0.4714
12293SOL    HW143484   4.099   6.389   4.982 -1.7446  2.2194 -0.1526
12293SOL    HW243485   3.993   6.347   4.882  0.7284 -2.5971 -1.0222
12294SOL     OW43486   1.082   2.904   9.998  0.7287 -0.3318 -0.0684
12294SOL    HW143487   1.061   2.817  10.030  0.4013 -0.4396 -0.5719
12294SOL    HW243488   1.013   2.924   9.935  0.3252  0.6334  0.6462
12295SOL     OW43489   8.572  11.120   8.340 -0.5832  0.5679  0.4861
12295SOL    HW143490   8.558  11.205   8.380 -1.7186  1.5919 -1.9163
12295SOL    HW243491   8.625  11.072   8.404  0.8534  3.3390  1.5552
12296SOL     OW43492   1.079  12.729   4.067 -0.0532  0.0869 -0.6054
12296SOL    HW143493   0.995  12.688   4.090  0.2284 -0.5796 -0.7733
12296SOL    HW243494   1.145  12.673   4.107  0.2968  1.0511  0.2197
12297SOL     OW43495   7.833  12.060  12.156 -0.0158  0.1185 -0.0195
12297SOL    HW143496   7.891  12.133  12.135  0.6649 -0.5077 -0.3598
12297SOL    HW243497   7.749  12.101  12.177  0.1785  0.9604 -0.8317
12298SOL     OW43498   0.459   0.249   5.296  0.0841  0.6224 -0.4022
12298SOL    HW143499   0.413   0.322   5.337  1.3520  1.9920 -1.3442
12298SOL    HW243500   0.540   0.240   5.346 -0.0364 -0.1331 -0.3243
12299SOL     OW43501  11.978   1.156   6.091 -0.4078  0.0420  0.3911
12299SOL    HW143502  11.996   1.249   6.080 -2.9275  0.6228  0.4942
12299SOL    HW243503  11.911   1.152   6.160 -0.3423 -1.8629  0.4236
12300SOL     OW43504   6.099  10.399   2.669  0.2828 -0.4272 -0.1942
12300SOL    HW143505   6.133  10.437   2.750  0.8530 -1.1714 -0.0774
12300SOL    HW243506   6.004  10.396   2.682  0.3841 -0.7282  0.5335
12301SOL     OW43507   0.722   9.217   6.391  0.6580 -0.2335 -0.0568
12301SOL    HW143508   0.679   9.154   6.450 -0.8006  1.2532  0.5469
12301SOL    HW243509   0.736   9.167   6.311  0.6507 -1.6760  0.7928
12302SOL     OW43510   2.361  10.681  11.679  0.7890  0.1867  0.1108
12302SOL    HW143511   2.332  10.621  11.610  1.5640 -1.2823  1.0014
12302SOL    HW243512   2.432  10.634  11.723  0.5983  1.2499  1.6414
12303SOL     OW43513   4.355   9.048   8.377  0.3032  0.0410 -0.0291
12303SOL    HW143514   4.319   9.111   8.439  0.3334 -0.3704  0.4071
12303SOL    HW243515   4.450   9.053   8.390  0.3062 -0.0860 -0.0061
12304SOL     OW43516   3.736   4.491  11.328 -0.2805 -0.7715  0.3895
12304SOL    HW143517   3.783   4.444  11.259 -0.1159 -0.2431  0.1358
12304SOL    HW243518   3.723   4.426  11.397  1.5814 -0.7231  0.8333
12305SOL     OW43519   3.081   3.949   4.793  0.0670 -0.4643 -0.3425
12305SOL    HW143520   3.120   4.035   4.805  0.4153 -0.5481 -0.8343
12305SOL    HW243521   2.999   3.952   4.841  0.4062 -0.0875  0.2199
12306SOL     OW43522  11.918   5.000  10.546 -0.0886  0.2161  0.6540
12306SOL    HW143523  11.936   4.907  10.529 -2.5344 -0.6960  2.4374
12306SOL    HW243524  11.854   5.024  10.479 -1.0934 -0.0636  1.4840
12307SOL     OW43525   9.457   3.142  11.000  0.2508 -0.1162 -0.1254
12307SOL    HW143526   9.490   3.070  10.946  0.0235 -1.6554  1.6657
12307SOL    HW243527   9.535   3.177  11.043  0.2788  0.3109 -0.5155
12308SOL     OW43528   4.456   6.337   8.358 -0.5609  0.1652 -0.3265
12308SOL    HW143529   4.545   6.306   8.338  0.5337  1.3290  2.2771
12308SOL    HW243530   4.418   6.266   8.411 -1.3894 -0.5059 -1.7648
12309SOL     OW43531  11.907  10.115   7.633 -0.5307  0.1588  0.7264
12309SOL    HW143532  11.931  10.144   7.721  2.9299 -0.2788  0.0493
12309SOL    HW243533  11.850  10.039   7.647  1.2014 -0.8724  2.6693
12310SOL     OW43534   6.158  11.140   1.432 -0.0580  0.1011 -0.5122
12310SOL    HW143535   6.230  11.120   1.372  0.6481  2.0998 -0.4087
12310SOL    HW243536   6.134  11.230   1.412 -2.7602 -0.5685 -0.7004
12311SOL     OW43537   0.088   7.967   9.333 -0.2021 -0.2240  0.3961
12311SOL    HW143538   0.136   8.036   9.287  0.8998 -1.8374 -1.0196
12311SOL    HW243539   0.010   7.953   9.280  2.1784 -3.7142 -2.6771
12312SOL     OW43540   2.828  10.933  10.020 -0.4504 -0.0970  0.1896
12312SOL    HW143541   2.847  11.010   9.967  0.4393 -1.0205 -0.8856
12312SOL    HW243542   2.733  10.923  10.016 -0.4998  0.5408 -0.2264
12313SOL     OW43543   8.880  10.247   7.331 -0.3140 -0.5676 -0.7422
12313SOL    HW143544   8.897  10.228   7.424  0.8220  1.2184 -0.5520
12313SOL    HW243545   8.948  10.198   7.284 -0.4504 -0.9065 -0.5886
12314SOL     OW43546   9.944   9.862   4.294 -0.3652 -0.3786  0.3978
12314SOL    HW143547   9.878   9.795   4.313 -0.8777 -0.5517 -1.7158
12314SOL    HW243548   9.931   9.882   4.201  0.7883  1.5677  0.6143
12315SOL     OW43549   6.851   7.505   7.866 -0.2987 -0.0897 -0.5862
12315SOL    HW143550   6.920   7.482   7.929 -0.1372 -1.8844 -1.3458
12315SOL    HW243551   6.778   7.534   7.920  0.1631 -0.6695  0.3829
12316SOL     OW43552   4.120  10.583   9.302 -0.4518 -0.0528  0.0897
12316SOL    HW143553   4.133  10.631   9.220 -0.4834 -0.8125 -0.3660
12316SOL    HW243554   4.098  10.494   9.275  1.6862 -0.9121  0.9066
12317SOL     OW43555   3.060   5.736   4.707 -0.0482  0.4974  0.1606
12317SOL    HW143556   3.106   5.759   4.627 -1.0385  1.1889 -0.2273
12317SOL    HW243557   3.074   5.810   4.766  0.7857 -0.0626  0.7016
12318SOL     OW43558   7.675   1.689  12.225 -0.3484  0.1509 -0.7081
12318SOL    HW143559   7.678   1.733  12.141 -3.8385  0.8663 -0.5847
12318SOL    HW243560   7.612   1.618  12.213  0.9582 -1.3492  0.6792
12319SOL     OW43561   3.306  10.402  10.149 -0.1627  0.6036  0.4028
12319SOL    HW143562   3.344  10.448  10.224  0.5644  0.5437  0.0812
12319SOL    HW243563   3.227  10.361  10.183  1.3436 -1.3330  1.7298
12320SOL     OW43564   6.365  11.180   8.871 -0.4039  0.0622  0.0551
12320SOL    HW143565   6.343  11.272   8.884  2.2281  0.8144 -0.1867
12320SOL    HW243566   6.370  11.143   8.959  1.6117  1.0359  0.4230
12321SOL     OW43567   1.857  12.196   8.859  0.1009  0.0495 -0.1610
12321SOL    HW143568   1.896  12.117   8.823  0.7781  0.2090  0.2140
12321SOL    HW243569   1.850  12.178   8.953  0.0119  0.3341 -0.1122
12322SOL     OW43570  11.210  11.924   9.427  0.2390  0.0123  0.2270
12322SOL    HW143571  11.278  11.869   9.466 -0.1843 -0.6292  0.0609
12322SOL    HW243572  11.208  11.900   9.335  0.0818  0.3361  0.1433
12323SOL     OW43573   7.082   3.817   2.375  0.3914  0.0227  0.4768
12323SOL    HW143574   7.041   3.753   2.316 -0.3437  0.0960  0.8956
12323SOL    HW243575   7.039   3.802   2.459  0.9653  0.3684  0.8337
12324SOL     OW43576   4.799   4.624   0.922  0.0270  0.1911  0.2713
12324SOL    HW143577   4.785   4.704   0.974  0.9169 -0.0715  0.9279
12324SOL    HW243578   4.824   4.657   0.835 -0.9818  0.6283  0.1270
12325SOL     OW43579   1.947   3.640   5.917  0.3476  0.2146 -0.2717
12325SOL    HW143580   1.867   3.693   5.913  0.7749  1.1100  1.7378
12325SOL    HW243581   1.969   3.623   5.825 -1.7167  0.5777 -0.8872
12326SOL     OW43582   3.106   1.630   4.822 -0.1433 -0.2272  0.1215
12326SOL    HW143583   3.067   1.614   4.737 -0.5283  1.7418 -0.1110
12326SOL    HW243584   3.193   1.589   4.816 -0.1383 -0.0625 -1.2275
12327SOL     OW43585   9.903   9.327   1.964  0.3054  0.3037 -0.0019
12327SOL    HW143586   9.897   9.421   1.982  0.2647  0.1722  0.7317
12327SOL    HW243587   9.840   9.288   2.025  0.2377 -0.1874 -0.3887
12328SOL     OW43588   3.814  10.105   4.863 -0.3747  0.8596 -0.4561
12328SOL    HW143589   3.800  10.159   4.941  0.8128 -0.2868  0.6002
12328SOL    HW243590   3.763  10.148   4.795 -1.8815  1.6021  1.0723
12329SOL     OW43591   5.697  11.768   9.559 -0.2198  0.4854 -0.0143
12329SOL    HW143592   5.642  11.698   9.595 -0.3993  0.2401 -0.7514
12329SOL    HW243593   5.726  11.735   9.474 -0.0074  1.1593 -0.2110
12330SOL     OW43594  10.388   6.519   1.389  0.3006 -0.5098  0.1138
12330SOL    HW143595  10.318   6.538   1.451 -0.6880 -1.2523 -0.7396
12330SOL    HW243596  10.429   6.440   1.424 -1.1816 -1.7824 -0.8660
12331SOL     OW43597  10.346   8.914   6.216 -0.6669  0.2942  0.0645
12331SOL    HW143598  10.337   8.952   6.303 -3.2908 -1.1871  0.5482
12331SOL    HW243599  10.361   8.821   6.233  1.7634  0.3837 -1.1137
12332SOL     OW43600   9.876   5.436   3.089  0.0008 -0.6279 -1.0743
12332SOL    HW143601   9.789   5.426   3.127  0.4993  0.7056  0.4964
12332SOL    HW243602   9.935   5.394   3.151  0.6515 -0.0554 -1.2957
12333SOL     OW43603   6.607   5.219  11.901  0.6389 -0.4847  0.1361
12333SOL    HW143604   6.594   5.312  11.884 -3.2520 -0.3068  2.9678
12333SOL    HW243605   6.670   5.216  11.974  0.5875 -0.0772  0.1962
12334SOL     OW43606   6.013  11.961  10.782 -0.0619 -0.7067 -0.2193
12334SOL    HW143607   5.987  11.985  10.871 -2.2083  1.9819 -1.4205
12334SOL    HW243608   5.948  11.898  10.754 -0.9140  0.3573 -0.6921
12335SOL     OW43609   2.543   2.209   8.320 -0.0556 -0.2288 -0.2855
12335SOL    HW143610   2.559   2.196   8.414  0.9817  1.8464 -0.1277
12335SOL    HW243611   2.545   2.304   8.308 -0.5393 -0.4354 -2.3662
12336SOL     OW43612   4.262   5.753   7.601 -0.1408 -0.0350 -0.0470
12336SOL    HW143613   4.219   5.748   7.686 -1.0030  0.6235 -0.4321
12336SOL    HW243614   4.355   5.737   7.620 -0.4025 -0.4399  0.9335
12337SOL     OW43615  11.048  11.965   6.133  0.1755  0.7386  0.2480
12337SOL    HW143616  11.094  11.888   6.166  0.2177  1.0399  0.9120
12337SOL    HW243617  10.993  11.932   6.063 -0.6073 -0.0876  1.2287
12338SOL     OW43618  10.524   8.257   9.328 -0.2956  0.2942  0.4068
12338SOL    HW143619  10.587   8.226   9.263 -2.2140  1.3516 -2.1243
12338SOL    HW243620  10.491   8.177   9.369 -0.5953 -0.6163 -1.5000
12339SOL     OW43621   7.572   0.573   1.981  0.3462 -0.0908  0.3274
12339SOL    HW143622   7.549   0.481   1.991 -1.4350  0.3326  0.4373
12339SOL    HW243623   7.577   0.607   2.070 -4.0825  1.0126  0.3883
12340SOL     OW43624   8.851  11.795  11.580  0.5777 -0.0223 -1.0616
12340SOL    HW143625   8.898  11.878  11.590  0.9256 -0.3473  0.2543
12340SOL    HW243626   8.792  11.809  11.506 -1.2083  2.2555  0.6733
12341SOL     OW43627   8.099   8.130   5.305  0.2999  0.7277  0.1969
12341SOL    HW143628   8.049   8.149   5.225  1.1397 -0.5262 -0.6658
12341SOL    HW243629   8.165   8.198   5.309  2.5082 -1.0863 -2.1854
12342SOL     OW43630   4.795  12.381   8.353  0.4403  0.3152  0.2541
12342SOL    HW143631   4.829  12.455   8.303 -0.2959  1.0537  0.8229
12342SOL    HW243632   4.823  12.398   8.443  0.2862 -0.1098  0.3839
12343SOL     OW43633   0.445   0.892   6.990 -0.0850  0.1390  0.4416
12343SOL    HW143634   0.412   0.982   6.991 -1.2486 -0.2665 -0.0924
12343SOL    HW243635   0.452   0.867   7.082  0.9784  1.0255  0.6189
12344SOL     OW43636   9.367   5.812   2.476  0.1074 -0.3120  0.3088
12344SOL    HW143637   9.278   5.778   2.483 -0.8407  1.4499 -1.8327
12344SOL    HW243638   9.423   5.735   2.475 -1.6059 -1.6113 -0.6641
12345SOL     OW43639  10.924   1.987   4.238  0.3890 -0.0225  0.3878
12345SOL    HW143640  10.931   1.956   4.328  1.1283  2.2029  1.1378
12345SOL    HW243641  10.980   2.064   4.234 -1.2428  1.1497 -1.4243
12346SOL     OW43642  11.436   8.319   0.547  0.2956  0.2402  0.1678
12346SOL    HW143643  11.484   8.398   0.526 -1.0235  0.7371 -1.1589
12346SOL    HW243644  11.344   8.342   0.535 -0.4003 -0.5193  3.1039
12347SOL     OW43645   1.572   4.493   6.880 -0.4575 -0.2142 -0.2053
12347SOL    HW143646   1.625   4.533   6.812 -1.0905 -0.4932 -0.8720
12347SOL    HW243647   1.559   4.403   6.850 -0.2622 -0.5030  0.5620
12348SOL     OW43648   3.914   3.118   2.322 -0.0993  0.3001  0.1362
12348SOL    HW143649   3.935   3.058   2.393  1.9975  0.9990  0.1949
12348SOL    HW243650   3.881   3.062   2.252  0.8345 -0.8028  0.5462
12349SOL     OW43651   0.819   9.807   9.942 -0.2647  0.0729  0.2985
12349SOL    HW143652   0.877   9.869   9.897 -0.4948 -1.0339 -1.6303
12349SOL    HW243653   0.732   9.823   9.903 -0.3102 -1.4779 -0.3185
12350SOL     OW43654   3.195   4.403  12.568  0.3377 -0.4303 -0.2471
12350SOL    HW143655   3.174   4.315  12.534  1.4701 -0.2146 -1.6127
12350SOL    HW243656   3.282   4.422  12.533 -0.0903  1.4490 -0.3915
12351SOL     OW43657  10.394   9.382   9.189  0.5089 -0.0600 -0.0051
12351SOL    HW143658  10.417   9.437   9.114  2.0598 -0.4579  0.1572
12351SOL    HW243659  10.410   9.437   9.265 -0.5926  0.1734  0.0768
12352SOL     OW43660   9.101   0.266   1.530 -0.1967  0.2597 -0.3884
12352SOL    HW143661   9.093   0.268   1.625  1.3758  0.2511 -0.2455
12352SOL    HW243662   9.078   0.355   1.503 -1.9796 -0.0742 -0.1602
12353SOL     OW43663  11.514   4.355   2.331 -0.2632  0.5907  0.1203
12353SOL    HW143664  11.558   4.282   2.286 -0.8586  1.1342 -1.3870
12353SOL    HW243665  11.452   4.389   2.267 -1.0568  1.4850  1.3276
12354SOL     OW43666   2.507   3.190   2.376 -0.8160  0.1816  0.3807
12354SOL    HW143667   2.519   3.120   2.441 -0.3988 -0.3385 -0.2401
12354SOL    HW243668   2.547   3.267   2.416  0.9547 -0.5317  0.0733
12355SOL     OW43669   9.977   1.915  12.630 -0.1979  0.2494 -0.5223
12355SOL    HW143670   9.949   1.938  12.718  1.6001 -1.5810  0.6508
12355SOL    HW243671   9.911   1.852  12.599  0.8248 -1.6765  0.9557
12356SOL     OW43672  12.551   2.520  11.122 -0.1431 -0.1331 -0.0454
12356SOL    HW143673  12.645   2.522  11.137 -0.2273  1.3378  0.4380
12356SOL    HW243674  12.513   2.531  11.209 -0.7056  2.4380 -0.5489
12357SOL     OW43675   5.741   7.790   5.699  0.1635  0.2656  0.0626
12357SOL    HW143676   5.706   7.866   5.651 -1.7167  0.7883  2.0888
12357SOL    HW243677   5.688   7.716   5.668  0.1658  0.2790  0.0264
12358SOL     OW43678   2.655   4.126   8.881 -0.3555  0.3614  0.1276
12358SOL    HW143679   2.669   4.148   8.973 -0.5049  0.7870  0.0477
12358SOL    HW243680   2.740   4.140   8.840 -0.4696  0.8796  0.0609
12359SOL     OW43681   6.697   5.121   5.648  0.0614  0.2266 -0.1971
12359SOL    HW143682   6.766   5.101   5.585 -0.0745  0.0272 -0.2838
12359SOL    HW243683   6.731   5.196   5.698  0.0045  0.6436 -0.7752
12360SOL     OW43684   8.784   6.860   2.510  0.0938  0.1040 -0.5767
12360SOL    HW143685   8.750   6.822   2.591 -1.5285  0.6518 -0.9576
12360SOL    HW243686   8.723   6.931   2.490  0.0786 -0.4338 -2.6168
12361SOL     OW43687  11.809  11.241   3.821 -0.9282  0.1827  0.3528
12361SOL    HW143688  11.898  11.205   3.820 -1.4284 -1.1115  0.4543
12361SOL    HW243689  11.820  11.332   3.848  0.5063  0.4695 -1.0309
12362SOL     OW43690   5.735   2.357   9.085 -0.2436  0.0139 -0.1234
12362SOL    HW143691   5.700   2.352   9.174 -1.6338  1.8378 -0.5149
12362SOL    HW243692   5.681   2.422   9.041  1.5686  0.4993 -1.7889
12363SOL     OW43693   7.924   8.507   5.563 -0.2622 -0.5666 -0.0342
12363SOL    HW143694   7.955   8.426   5.602 -0.6587 -0.3660  0.7181
12363SOL    HW243695   7.978   8.519   5.485 -0.3143 -1.6330 -0.2380
12364SOL     OW43696   8.302   4.143   1.665 -0.1207  0.7033  0.3133
12364SOL    HW143697   8.368   4.205   1.634 -0.2247  1.5259  1.6240
12364SOL    HW243698   8.353   4.068   1.696  0.1906  1.1424  0.8976
12365SOL     OW43699   5.708   8.975   7.058 -0.3771 -0.5578 -0.0111
12365SOL    HW143700   5.771   8.933   7.000 -0.9368  0.2410 -1.2236
12365SOL    HW243701   5.622   8.950   7.024 -0.7150  0.6963 -0.1241
12366SOL     OW43702   5.657   5.197   2.514  0.2474 -0.0112 -0.3272
12366SOL    HW143703   5.746   5.176   2.487  0.7476 -1.4626  2.1003
12366SOL    HW243704   5.631   5.123   2.569 -2.0569  0.8998 -0.0703
12367SOL     OW43705   6.295  12.432  12.466  0.2950  0.7832 -0.0632
12367SOL    HW143706   6.368  12.373  12.447  0.3000  0.2027  1.5952
12367SOL    HW243707   6.331  12.493  12.531 -0.4380  1.0289  0.1194
12368SOL     OW43708   1.541   9.789  10.295  0.1449  0.0131 -0.0981
12368SOL    HW143709   1.455   9.756  10.268  0.4818 -0.4116 -0.6843
12368SOL    HW243710   1.602   9.745  10.236  0.7736  0.2311  0.3888
12369SOL     OW43711   9.342   6.092   4.027 -0.1199 -0.8469 -0.1132
12369SOL    HW143712   9.363   6.037   3.952  2.2649  0.4016 -0.4500
12369SOL    HW243713   9.333   6.030   4.100  3.0041 -1.7811 -0.3672
12370SOL     OW43714  12.373   1.183   9.216  0.5599 -0.1408 -0.0430
12370SOL    HW143715  12.278   1.195   9.205  0.5981  0.0332 -0.1746
12370SOL    HW243716  12.405   1.269   9.242  1.1081  0.5498 -2.7404
12371SOL     OW43717   4.056  11.705   8.915 -0.3081  0.4641  0.2736
12371SOL    HW143718   3.970  11.728   8.881 -0.4307  1.0206  0.9343
12371SOL    HW243719   4.113  11.776   8.885 -0.3242  0.7147  0.8191
12372SOL     OW43720   5.456   0.168   1.931  0.1389  0.7563  1.0041
12372SOL    HW143721   5.379   0.192   1.982  0.1919 -0.7683  1.8454
12372SOL    HW243722   5.502   0.104   1.985  1.0377  0.2857 -0.2720
12373SOL     OW43723   7.332   8.144   4.507 -0.3233  0.6844  0.3754
12373SOL    HW143724   7.426   8.164   4.508 -0.1067 -0.2643  2.2075
12373SOL    HW243725   7.323   8.073   4.444 -0.1225  1.9738 -1.1788
12374SOL     OW43726   4.474   1.565   6.691 -0.3539 -0.5174 -0.2303
12374SOL    HW143727   4.563   1.582   6.660 -0.3969 -2.3884 -1.5155
12374SOL    HW243728   4.482   1.564   6.786  1.0053 -0.6544 -0.3213
12375SOL     OW43729   9.482   8.150   9.695 -0.0363  0.3675  0.1387
12375SOL    HW143730   9.477   8.072   9.640  1.3155 -0.4320  1.0752
12375SOL    HW243731   9.392   8.166   9.722 -0.3035 -1.1473  0.2593
12376SOL     OW43732   2.971   5.074   7.196  0.1833 -0.2630 -0.6157
12376SOL    HW143733   2.942   5.028   7.275 -2.1640  0.0897 -1.1964
12376SOL    HW243734   2.947   5.016   7.124 -0.3720  0.6932 -1.2166
12377SOL     OW43735   0.403   0.954   3.418 -0.2402  0.0103  0.2697
12377SOL    HW143736   0.365   0.907   3.493 -0.6566 -0.0912 -0.0026
12377SOL    HW243737   0.332   0.961   3.355  0.3280 -0.6829 -0.4842
12378SOL     OW43738   6.795  11.109   1.813 -0.1339  0.3205 -0.2541
12378SOL    HW143739   6.708  11.096   1.852  0.4156 -0.5352  0.7372
12378SOL    HW243740   6.819  11.197   1.840  0.2743 -0.2862  1.5117
12379SOL     OW43741   5.997   5.038  10.863  0.0085  0.1399  0.0779
12379SOL    HW143742   6.032   5.013  10.778  1.4149 -1.1434  0.9907
12379SOL    HW243743   5.918   5.089  10.842 -0.3942 -1.1926 -1.9479
12380SOL     OW43744   0.484   3.930  11.617 -0.0647  0.6019 -0.2803
12380SOL    HW143745   0.563   3.901  11.663  1.0450 -0.6507 -2.7809
12380SOL    HW243746   0.412   3.901  11.673  1.1974 -0.8022  0.6878
12381SOL     OW43747   6.432   1.333   2.238  0.4384 -0.6374 -0.5628
12381SOL    HW143748   6.441   1.286   2.155 -1.5235 -1.1895 -0.5135
12381SOL    HW243749   6.385   1.413   2.214  1.1250 -0.1050 -0.1756
12382SOL     OW43750   9.214   8.326  12.766  0.0948 -0.0820 -0.2361
12382SOL    HW143751   9.171   8.269  12.830  0.7702 -1.0272 -0.6087
12382SOL    HW243752   9.305   8.298  12.768  0.0667 -0.3569 -1.8589
12383SOL     OW43753   0.398   2.674  11.096 -0.5086  0.3036  0.1643
12383SOL    HW143754   0.486   2.677  11.133 -0.0737  2.1809 -0.8730
12383SOL    HW243755   0.348   2.739  11.146 -1.2586 -0.5845  0.5957
12384SOL     OW43756   8.983   2.751  11.002 -0.0315  0.2518  0.3474
12384SOL    HW143757   9.006   2.836  10.966  0.4794 -0.1841 -0.3846
12384SOL    HW243758   8.925   2.712  10.936 -1.4391  0.6003  1.3344
12385SOL     OW43759  10.794  10.899  12.351  0.1322 -0.1154  0.1577
12385SOL    HW143760  10.859  10.865  12.413  2.4683  0.4772 -1.8102
12385SOL    HW243761  10.757  10.821  12.310 -0.2160 -0.4605  1.1029
12386SOL     OW43762   5.524  10.450   0.339  0.2639 -0.3091 -0.2629
12386SOL    HW143763   5.435  10.433   0.308 -0.2200 -1.1625  1.4681
12386SOL    HW243764   5.520  10.438   0.434  2.0948  0.2539 -0.0585
12387SOL     OW43765   2.585   7.948  11.421 -0.2912  0.4322  0.2694
12387SOL    HW143766   2.497   7.922  11.392 -1.3504  1.2919  2.4531
12387SOL    HW243767   2.637   7.951  11.341 -1.9430 -1.2437 -0.9560
12388SOL     OW43768   2.475   3.605   5.839  0.0963 -0.0623 -0.0591
12388SOL    HW143769   2.476   3.576   5.748 -1.1383  0.3871 -0.2329
12388SOL    HW243770   2.393   3.570   5.874  0.8905 -0.8406  1.0958
12389SOL     OW43771   0.943  12.050  10.089 -0.1892  0.5101  0.1939
12389SOL    HW143772   0.849  12.043  10.071  0.0934  1.2735 -1.8496
12389SOL    HW243773   0.969  11.961  10.113 -1.4121  0.2736  0.6975
12390SOL     OW43774  11.677   8.906   8.489  0.0870  0.1513 -0.0143
12390SOL    HW143775  11.766   8.934   8.466  0.0908 -0.4919 -0.8320
12390SOL    HW243776  11.680   8.810   8.483 -0.3777  0.0516  1.0529
12391SOL     OW43777  10.000   1.394  10.675 -0.4823 -0.6013  0.1444
12391SOL    HW143778  10.021   1.376  10.766 -1.3613 -1.1318  0.2496
12391SOL    HW243779  10.002   1.308  10.633  1.0769 -0.2434 -0.6024
12392SOL     OW43780  10.115   1.484   1.985  0.7329  0.1151  0.6087
12392SOL    HW143781  10.040   1.486   1.926  0.8904 -0.9305  0.3389
12392SOL    HW243782  10.117   1.570   2.026 -1.9825 -0.5093  2.3249
12393SOL     OW43783   8.219   6.158  11.516  0.4861  0.7374 -0.7556
12393SOL    HW143784   8.238   6.075  11.561 -1.0629  0.4349 -0.6000
12393SOL    HW243785   8.304   6.184  11.479  0.5686 -2.4368 -3.3313
12394SOL     OW43786   7.608  11.894   8.393 -0.0692  0.3888  0.0588
12394SOL    HW143787   7.532  11.842   8.366  1.2597 -1.0088 -1.1929
12394SOL    HW243788   7.581  11.936   8.475 -2.0831 -0.2678 -0.2197
12395SOL     OW43789  11.691  11.954   0.183 -0.1880 -0.0512  0.4934
12395SOL    HW143790  11.731  11.918   0.104  0.6344 -0.1144  0.9283
12395SOL    HW243791  11.609  11.905   0.193 -0.6620  0.4794 -0.7269
12396SOL     OW43792  10.790   1.805   1.851  0.2513  0.0902  0.0714
12396SOL    HW143793  10.839   1.725   1.865  0.7609  0.2724 -0.6326
12396SOL    HW243794  10.796   1.852   1.935  0.7353 -0.1750  0.1878
12397SOL     OW43795   4.621  10.417   9.750 -0.2434 -0.3887 -0.6348
12397SOL    HW143796   4.530  10.412   9.721 -0.2066  0.4630 -0.9180
12397SOL    HW243797   4.654  10.327   9.742 -0.4981 -0.3532 -2.3267
12398SOL     OW43798  12.674   2.905  10.816 -0.1048 -0.0645 -0.1588
12398SOL    HW143799  12.597   2.926  10.763  0.2276 -1.1700 -1.1093
12398SOL    HW243800  12.639   2.854  10.889 -0.4265  0.5535  0.1300
12399SOL     OW43801   9.913   7.198   0.852  0.2508 -0.0054 -0.4494
12399SOL    HW143802   9.943   7.115   0.815  0.1301 -0.7402  1.0141
12399SOL    HW243803   9.905   7.180   0.946  0.2324  1.6772 -0.1107
12400SOL     OW43804   5.771   6.257   3.079  0.2187  0.0864  0.1648
12400SOL    HW143805   5.835   6.273   3.148 -1.0734 -0.2931  1.4951
12400SOL    HW243806   5.807   6.301   3.002  2.1113 -0.2076  0.8353
12401SOL     OW43807   7.496   4.735  11.125 -0.4960 -0.2876 -0.2182
12401SOL    HW143808   7.453   4.732  11.040  0.4586 -2.0425 -0.7055
12401SOL    HW243809   7.590   4.738  11.105 -0.2582 -0.5717  0.7650
12402SOL     OW43810   7.686   8.388   2.636  0.3363 -0.0921  0.3897
12402SOL    HW143811   7.723   8.335   2.706  2.2739  0.4817 -0.1245
12402SOL    HW243812   7.743   8.465   2.631  1.8512 -1.2333 -3.3783
12403SOL     OW43813   9.731   6.027   0.099  0.2724  0.0271 -0.1099
12403SOL    HW143814   9.679   6.039   0.019 -0.5910 -1.6141  0.1543
12403SOL    HW243815   9.681   6.071   0.167  0.1513 -0.0122 -0.1729
12404SOL     OW43816   1.386   9.216   3.858 -0.0813  0.5007  0.1415
12404SOL    HW143817   1.449   9.253   3.919  1.2137  0.5046 -1.1332
12404SOL    HW243818   1.401   9.121   3.863  1.4599  0.5919 -1.5538
12405SOL     OW43819   3.317   9.666   6.547  0.0243  0.4363  0.3984
12405SOL    HW143820   3.394   9.705   6.589  0.3899 -0.0843  0.2247
12405SOL    HW243821   3.353   9.614   6.475 -0.3896 -0.7039  0.9885
12406SOL     OW43822   1.688   6.382   9.698 -0.0090 -0.6572  0.7951
12406SOL    HW143823   1.767   6.354   9.651 -0.9719 -2.0125 -0.0888
12406SOL    HW243824   1.616   6.357   9.641 -1.0814  1.7055  0.9974
12407SOL     OW43825   4.016   0.729  11.492  0.1345 -0.1389  0.1124
12407SOL    HW143826   3.965   0.754  11.569 -0.5855  0.0441 -0.4138
12407SOL    HW243827   3.962   0.755  11.418  1.7003  1.5746 -0.5103
12408SOL     OW43828   1.188   9.766   3.176  0.1674 -0.1366  0.1862
12408SOL    HW143829   1.252   9.698   3.157 -0.8471 -1.3272  0.8796
12408SOL    HW243830   1.113   9.745   3.121  0.5761  1.6556 -1.1596
12409SOL     OW43831   0.531   2.099  12.584 -0.6387  0.0944 -0.8669
12409SOL    HW143832   0.529   2.057  12.670 -1.3270  1.2451 -0.2910
12409SOL    HW243833   0.596   2.169  12.593 -1.4753  0.8963 -0.9440
12410SOL     OW43834   9.208   3.199   3.885 -0.6802 -0.0081 -0.2660
12410SOL    HW143835   9.163   3.273   3.845 -1.4833 -0.6211 -0.5257
12410SOL    HW243836   9.137   3.145   3.921 -0.0706 -0.3364  0.4703
12411SOL     OW43837   7.415   0.697   6.426 -0.1916  0.1775 -0.6188
12411SOL    HW143838   7.461   0.626   6.382 -1.9881 -0.9127 -0.8513
12411SOL    HW243839   7.329   0.660   6.449 -1.0437  2.1417 -0.3746
12412SOL     OW43840   7.482   8.034  12.531 -0.7920  0.5251 -0.3773
12412SOL    HW143841   7.420   8.028  12.458  0.0986  0.4587 -1.1350
12412SOL    HW243842   7.459   8.116  12.575 -0.8219  0.9635 -1.1979
12413SOL     OW43843   3.245   9.269   1.516  0.4902 -0.4618  0.0311
12413SOL    HW143844   3.337   9.291   1.530  0.0532  0.3819  1.8173
12413SOL    HW243845   3.216   9.329   1.447  1.2051 -0.5403 -0.3431
12414SOL     OW43846   2.748  11.395  11.853  0.1234 -0.6774  0.0023
12414SOL    HW143847   2.722  11.363  11.766  1.3319  3.4146 -2.1137
12414SOL    HW243848   2.838  11.365  11.864  0.1378 -0.7818 -0.3885
12415SOL     OW43849   3.224   4.421   6.119  0.4106 -0.6125 -0.0429
12415SOL    HW143850   3.295   4.359   6.102 -0.3787 -1.4028 -0.5387
12415SOL    HW243851   3.152   4.390   6.065 -0.3439  0.1319  0.5149
12416SOL     OW43852   8.664   7.013  10.025  0.0093 -0.2238 -0.1196
12416SOL    HW143853   8.674   6.944  10.090 -1.3180 -1.2161 -0.9152
12416SOL    HW243854   8.586   7.062  10.054  1.0896  1.1403  0.5876
12417SOL     OW43855  12.103   3.601   1.788 -0.1158  0.2409 -0.3729
12417SOL    HW143856  12.188   3.621   1.748  0.3296  1.1051  0.9389
12417SOL    HW243857  12.092   3.667   1.856 -1.5721 -0.2287 -0.1176
12418SOL     OW43858   7.156  11.064   5.425  0.2183  0.1043  0.5813
12418SOL    HW143859   7.203  11.042   5.345 -0.3467 -0.4266  0.3909
12418SOL    HW243860   7.072  11.098   5.396  0.2765  0.5684  0.9342
12419SOL     OW43861   5.166   1.871   2.647  0.2363 -0.3701 -0.2785
12419SOL    HW143862   5.260   1.881   2.661  0.4020 -0.9095 -0.9295
12419SOL    HW243863   5.154   1.886   2.553 -0.2984 -0.4617 -0.2286
12420SOL     OW43864   6.841   2.033  10.611 -0.5942  0.5447  0.0138
12420SOL    HW143865   6.853   2.003  10.701  2.1373  1.8882  0.1861
12420SOL    HW243866   6.927   2.064  10.583 -0.7180 -1.8381 -3.8900
12421SOL     OW43867   6.246  12.391   9.332  0.4934 -0.0763  0.0532
12421SOL    HW143868   6.287  12.477   9.339 -0.9446  0.6932 -0.5845
12421SOL    HW243869   6.170  12.395   9.390 -1.0846  0.0461 -1.9064
12422SOL     OW43870   9.240   5.392   7.369  0.1766 -0.5012  0.1053
12422SOL    HW143871   9.159   5.444   7.368 -0.1315 -0.9299 -1.6196
12422SOL    HW243872   9.242   5.352   7.456 -0.9336  0.3210  0.5431
12423SOL     OW43873  11.924   7.582   4.445  0.1540 -0.0851 -0.9238
12423SOL    HW143874  11.841   7.581   4.398  1.0306  0.1330 -2.5265
12423SOL    HW243875  11.899   7.587   4.537 -1.6101  1.3068 -1.4257
12424SOL     OW43876   8.057   0.119   5.809  0.3683  0.2027 -0.2855
12424SOL    HW143877   8.108   0.051   5.765  1.3866  0.8991 -0.2277
12424SOL    HW243878   8.065   0.099   5.902  0.9318  0.5608 -0.2494
12425SOL     OW43879  12.578   0.899   4.590  0.2322 -0.5971  0.1576
12425SOL    HW143880  12.600   0.986   4.558  0.3861  0.2326  2.3189
12425SOL    HW243881  12.550   0.850   4.512 -0.3403  1.5204 -1.0404
12426SOL     OW43882   4.146   0.560   8.047  0.3753  0.0321 -0.2176
12426SOL    HW143883   4.192   0.601   8.121  0.3014  1.9311 -1.1533
12426SOL    HW243884   4.212   0.556   7.978 -1.0937  4.7159 -2.3001
12427SOL     OW43885  11.814   8.734   2.518  0.0737  0.3127 -0.4460
12427SOL    HW143886  11.726   8.745   2.481  0.7298  0.4390 -2.0670
12427SOL    HW243887  11.872   8.733   2.442  1.2244 -2.7691  0.3078
12428SOL     OW43888   8.213   8.036   4.783 -0.4807 -0.0093 -0.2409
12428SOL    HW143889   8.181   7.950   4.810 -2.8701  0.4138 -1.4640
12428SOL    HW243890   8.149   8.066   4.717  0.2987  2.6747  0.1101
12429SOL     OW43891   9.582   5.672   9.799 -0.4240  0.1490 -0.3732
12429SOL    HW143892   9.636   5.696   9.874  0.7163 -0.8831 -0.8423
12429SOL    HW243893   9.635   5.696   9.723 -0.2271 -1.6519 -0.8406
12430SOL     OW43894  12.303  10.554  11.800 -0.1042 -0.1038  0.1425
12430SOL    HW143895  12.378  10.512  11.758  0.7043  1.7111 -0.3282
12430SOL    HW243896  12.253  10.482  11.838  1.5311 -1.4157 -0.0907
12431SOL     OW43897   5.194   8.732   7.713  0.8316  0.6651  0.0558
12431SOL    HW143898   5.169   8.750   7.622 -0.4443 -1.1942 -0.0216
12431SOL    HW243899   5.134   8.663   7.740  3.2875 -1.0955  1.2791
12432SOL     OW43900   0.730  10.349  10.664 -0.0035 -1.2259  0.3892
12432SOL    HW143901   0.809  10.296  10.654 -0.1463 -1.2428 -0.7675
12432SOL    HW243902   0.723  10.398  10.582 -1.1470 -1.1578  0.5118
12433SOL     OW43903   3.421   2.808  10.407  0.2194  0.4995  0.4444
12433SOL    HW143904   3.396   2.900  10.409  0.6197  0.6494 -0.6827
12433SOL    HW243905   3.498   2.805  10.351  0.2461 -0.5164  0.5097
12434SOL     OW43906   0.890  12.311   5.409  0.0567 -0.1054 -0.0204
12434SOL    HW143907   0.864  12.227   5.371 -2.3928  1.1856 -1.4258
12434SOL    HW243908   0.972  12.333   5.364  0.9646 -1.8792  0.6731
12435SOL     OW43909   4.028  10.360   6.275 -0.4951 -0.2073  0.3129
12435SOL    HW143910   4.058  10.434   6.328 -1.0591 -0.0739  0.4525
12435SOL    HW243911   4.099  10.296   6.280  0.2532  0.5633 -0.2916
12436SOL     OW43912   1.802  12.063   7.787 -0.3813  0.5376  0.1742
12436SOL    HW143913   1.818  11.979   7.743 -1.8106 -0.3251  1.2359
12436SOL    HW243914   1.832  12.129   7.724  0.1223 -0.7357 -0.9650
12437SOL     OW43915  12.354   3.052   6.830 -0.3144  0.1095  0.7978
12437SOL    HW143916  12.448   3.036   6.821  0.1480  2.7316  0.1860
12437SOL    HW243917  12.321   3.051   6.740 -0.3332  1.8698  0.7612
12438SOL     OW43918   6.863  10.433   6.521 -0.1218  0.4898  0.4637
12438SOL    HW143919   6.892  10.521   6.496 -0.0937  0.6811  1.1681
12438SOL    HW243920   6.839  10.392   6.437 -1.0827  1.5012  0.2114
12439SOL     OW43921   6.643   0.563   3.657 -0.3625  0.3434  0.5427
12439SOL    HW143922   6.632   0.646   3.704  2.1962  0.3686  1.2243
12439SOL    HW243923   6.675   0.588   3.570 -1.9402  0.1284 -0.1456
12440SOL     OW43924  11.041   4.320  10.080 -0.2312 -0.2819 -0.4455
12440SOL    HW143925  10.999   4.301   9.996 -0.4860  1.0929 -0.6434
12440SOL    HW243926  11.058   4.233  10.118  0.9119 -0.9716 -2.3871
12441SOL     OW43927   3.791  12.698   0.362  0.0097 -0.3965 -0.3456
12441SOL    HW143928   3.806  12.617   0.312 -0.7058  0.0594 -1.3241
12441SOL    HW243929   3.763  12.762   0.296 -0.5050  0.3453  0.5743
12442SOL     OW43930   6.949   0.071   6.032 -0.8995  0.5281 -0.8844
12442SOL    HW143931   6.921  -0.020   6.025 -0.8041  0.5287 -1.3059
12442SOL    HW243932   6.980   0.093   5.944 -0.0211  0.6755 -0.5379
12443SOL     OW43933   4.860   5.359   0.990 -1.1936  0.0220 -0.1735
12443SOL    HW143934   4.875   5.419   0.916 -1.7273  2.8186  1.8320
12443SOL    HW243935   4.947   5.326   1.012 -0.5051  1.8152 -0.0179
12444SOL     OW43936  11.083  12.744   5.909  0.0820  0.1277  0.4448
12444SOL    HW143937  11.026  12.798   5.964 -0.3088 -0.4651  0.6424
12444SOL    HW243938  11.140  12.699   5.972  0.0591 -0.0766  0.3180
12445SOL     OW43939   0.495   5.626  10.634 -0.3396 -0.3083 -0.3157
12445SOL    HW143940   0.508   5.560  10.566 -1.7250  0.8883 -1.8313
12445SOL    HW243941   0.401   5.642  10.633  0.0126  1.9869 -0.3131
12446SOL     OW43942   6.609   0.974   0.916 -0.2950  0.0937  0.1365
12446SOL    HW143943   6.644   1.055   0.878  2.1219 -0.6428  0.6325
12446SOL    HW243944   6.685   0.931   0.955 -1.0922 -3.3333 -1.6979
12447SOL     OW43945  10.857   8.426   1.528 -0.0904  0.2951  0.0130
12447SOL    HW143946  10.874   8.333   1.516  1.3806  0.4143  0.9238
12447SOL    HW243947  10.787   8.446   1.466 -0.3316 -1.3798 -0.2867
12448SOL     OW43948   1.234   4.996   0.412  0.0399  0.1821 -0.4792
12448SOL    HW143949   1.242   4.943   0.333  0.8180 -2.6021  1.3225
12448SOL    HW243950   1.140   5.013   0.420 -0.0978  0.1364 -1.7133
12449SOL     OW43951   5.574   1.313   1.503  0.2609 -0.1331  0.2752
12449SOL    HW143952   5.516   1.261   1.559 -0.4281 -0.6350 -0.8583
12449SOL    HW243953   5.650   1.256   1.489 -0.8227 -1.2017 -1.5721
12450SOL     OW43954   5.102   4.799   0.652  0.1672  0.5365  0.0896
12450SOL    HW143955   5.183   4.849   0.637 -0.1404  1.0539  0.1435
12450SOL    HW243956   5.074   4.771   0.565  1.2906 -1.0818  0.1862
12451SOL     OW43957   9.065   5.028   2.762  0.0334  0.2564 -0.2724
12451SOL    HW143958   9.017   5.101   2.722  1.0245  0.4269 -1.1942
12451SOL    HW243959   9.157   5.054   2.755  0.2720  0.2650  2.0900
12452SOL     OW43960   1.837   4.821   6.898 -0.6506 -0.1621 -0.1221
12452SOL    HW143961   1.770   4.856   6.957 -1.4438 -3.2246  0.9847
12452SOL    HW243962   1.919   4.857   6.933 -1.3875  0.6955  0.8094
12453SOL     OW43963   0.658   7.561   6.732  0.2392 -0.2404  0.2368
12453SOL    HW143964   0.685   7.472   6.708  0.0929  0.2429 -1.9303
12453SOL    HW243965   0.580   7.578   6.679 -2.3883 -0.2887  3.7355
12454SOL     OW43966   7.947   2.820   9.863 -0.2825  0.3399  0.4331
12454SOL    HW143967   7.923   2.904   9.901  2.2157  2.4745 -2.2289
12454SOL    HW243968   7.919   2.826   9.772 -1.7723 -2.6063  0.5536
12455SOL     OW43969   3.770   8.495   1.600 -0.0337 -0.2004  0.0453
12455SOL    HW143970   3.753   8.581   1.640 -1.1148 -0.5385  0.3395
12455SOL    HW243971   3.723   8.433   1.656  2.4773 -1.2775  1.1325
12456SOL     OW43972   1.835   1.081   1.748 -0.0957  0.2801  0.1088
12456SOL    HW143973   1.845   0.989   1.723  0.3908  0.1631  0.7009
12456SOL    HW243974   1.853   1.130   1.668 -0.1679 -0.1368 -0.1655
12457SOL     OW43975  10.149   8.369   6.837 -0.1247 -0.0692 -0.3314
12457SOL    HW143976  10.114   8.458   6.841 -0.8505 -0.3681  0.2969
12457SOL    HW243977  10.113   8.333   6.756  0.3042  0.2629 -0.6698
12458SOL     OW43978  11.722   2.433   0.231  0.6330  0.6473  0.2068
12458SOL    HW143979  11.656   2.496   0.201 -0.4584 -0.3123  0.4894
12458SOL    HW243980  11.805   2.480   0.226 -0.2392  2.4143  1.2330
12459SOL     OW43981  12.461   5.562  12.051 -0.3201 -0.6026  0.3389
12459SOL    HW143982  12.467   5.533  12.142  2.9267  0.1241  0.4668
12459SOL    HW243983  12.490   5.653  12.052  2.0689 -1.2140 -1.6159
12460SOL     OW43984   2.128  10.059   3.628  0.4784 -0.3816  0.3772
12460SOL    HW143985   2.041  10.097   3.615  0.6288 -0.3406 -0.5541
12460SOL    HW243986   2.111   9.979   3.678 -0.2253 -0.9584 -0.7356
12461SOL     OW43987   3.458   1.865   4.054 -0.2325 -0.1646 -0.1185
12461SOL    HW143988   3.524   1.921   4.093  1.0702 -2.4339  1.1750
12461SOL    HW243989   3.497   1.836   3.972  0.4467 -1.4795  0.6304
12462SOL     OW43990  11.477   9.917   7.096 -0.5020  0.0586  0.2517
12462SOL    HW143991  11.547   9.853   7.090 -0.4735  0.1022  0.0987
12462SOL    HW243992  11.497   9.981   7.027  0.2240  0.9881  1.2834
12463SOL     OW43993   7.701   3.478   1.383 -0.0342 -0.3204  0.3574
12463SOL    HW143994   7.660   3.559   1.413 -1.3263  0.3148 -2.7197
12463SOL    HW243995   7.632   3.433   1.335  1.9505 -0.8047 -2.2546
12464SOL     OW43996   4.744   2.031   0.758 -0.1956  0.1136 -0.8649
12464SOL    HW143997   4.770   1.956   0.811  2.9369  0.8078 -1.1967
12464SOL    HW243998   4.649   2.032   0.762 -0.3290 -3.4231 -0.3058
12465SOL     OW43999   5.915   4.800   6.760 -0.1299 -0.2689 -0.1658
12465SOL    HW144000   5.895   4.823   6.669 -2.4921 -0.7179  0.1811
12465SOL    HW244001   5.858   4.856   6.812 -0.7906 -1.8898  0.9288
12466SOL     OW44002  10.449   4.542   1.546 -0.6242 -0.4219 -0.2956
12466SOL    HW144003  10.494   4.463   1.515 -0.6100  0.0866 -1.6507
12466SOL    HW244004  10.520   4.600   1.574 -0.3378  0.4077 -2.4973
12467SOL     OW44005   5.428   0.106  10.148  0.4201 -0.0927 -0.3611
12467SOL    HW144006   5.359   0.073  10.090  0.3104 -1.6251  0.5637
12467SOL    HW244007   5.396   0.085  10.236 -0.1211  3.4981  0.4184
12468SOL     OW44008   1.371   6.780   2.829  0.0287  0.5599  0.5208
12468SOL    HW144009   1.457   6.814   2.853  1.1635 -1.5804 -0.2447
12468SOL    HW244010   1.339   6.735   2.907 -1.5733  3.3404  1.6088
12469SOL     OW44011   4.820  11.207  12.287 -0.4219 -0.2750 -0.1701
12469SOL    HW144012   4.829  11.273  12.219  0.6743 -0.2264  0.0032
12469SOL    HW244013   4.746  11.237  12.341 -0.8694  0.0240 -0.9437
12470SOL     OW44014  12.064   9.438  11.950 -0.1816  0.3624  0.2299
12470SOL    HW144015  12.072   9.530  11.927  1.1854 -0.0695 -1.1865
12470SOL    HW244016  12.148   9.399  11.925  0.1926 -0.8535  2.9277
12471SOL     OW44017   7.129   2.244   1.740  0.6627 -0.2351  0.2573
12471SOL    HW144018   7.130   2.269   1.833 -0.8115  0.5138  0.1067
12471SOL    HW244019   7.191   2.171   1.734  2.2883  0.9540  1.4560
12472SOL     OW44020   0.391   6.738   3.626  0.5437  0.1504 -0.5750
12472SOL    HW144021   0.419   6.688   3.549 -0.3366 -1.2605 -0.0174
12472SOL    HW244022   0.400   6.677   3.699 -0.6849  0.7706  0.1201
12473SOL     OW44023  12.698   4.496   7.563  0.7557 -0.0863  0.1419
12473SOL    HW144024  12.719   4.574   7.511 -0.6476  1.2253  1.4422
12473SOL    HW244025  12.664   4.530   7.645 -2.4005 -1.9786 -0.1847
12474SOL     OW44026   4.928   3.859   3.201  0.0448  0.2102 -0.1036
12474SOL    HW144027   4.964   3.826   3.118 -1.1763 -1.0596 -0.1575
12474SOL    HW244028   4.959   3.949   3.206  0.3556  0.2294 -1.8192
12475SOL     OW44029   3.879   6.249  10.508  0.2331 -0.9547 -0.8646
12475SOL    HW144030   3.792   6.215  10.528 -0.4044  0.2635 -1.4428
12475SOL    HW244031   3.881   6.335  10.550  0.4114 -0.1296 -2.4855
12476SOL     OW44032  11.533   7.099   7.225  0.9825 -0.3920 -0.0293
12476SOL    HW144033  11.502   7.112   7.315  2.5591  0.9085  0.3769
12476SOL    HW244034  11.602   7.164   7.214  0.4249 -0.1109 -2.4085
12477SOL     OW44035   3.428  11.343  11.234 -0.1965  0.3099  0.0253
12477SOL    HW144036   3.482  11.287  11.290 -0.4763 -0.7280 -0.7150
12477SOL    HW244037   3.367  11.385  11.294 -1.0182 -1.3887  0.4527
12478SOL     OW44038   7.651   6.405   1.398  0.3123  0.4047  0.2196
12478SOL    HW144039   7.635   6.366   1.484 -1.4383  1.4272  0.3980
12478SOL    HW244040   7.567   6.401   1.354  0.0139  3.8182  0.2241
12479SOL     OW44041   2.943   8.529   1.595  0.5386 -0.4970  0.1632
12479SOL    HW144042   2.866   8.582   1.574  1.3621  0.1960 -1.3132
12479SOL    HW244043   3.017   8.590   1.588  1.3557 -1.4701  0.0595
12480SOL     OW44044   4.052   2.957   2.518 -0.0696  0.8005  0.5946
12480SOL    HW144045   4.107   2.892   2.474 -0.5172 -0.3107  1.6101
12480SOL    HW244046   4.012   2.909   2.590 -1.3456  1.9187  0.6678
12481SOL     OW44047   5.369   7.701  10.689 -0.4997  0.5795 -0.5448
12481SOL    HW144048   5.426   7.693  10.612 -0.1918 -0.6470 -0.2117
12481SOL    HW244049   5.428   7.698  10.763 -0.7315  2.4157 -0.2284
12482SOL     OW44050   3.782   0.453   9.681  0.4477  0.3661  0.1782
12482SOL    HW144051   3.854   0.457   9.745 -0.9977  0.4535  1.8832
12482SOL    HW244052   3.738   0.370   9.700 -0.9243  1.1083  0.3709
12483SOL     OW44053   2.019  11.727   6.490 -0.1358  0.5639 -0.2339
12483SOL    HW144054   2.086  11.706   6.556  1.7792  1.4325 -1.8113
12483SOL    HW244055   1.980  11.642   6.469  2.3911 -0.4688 -1.2031
12484SOL     OW44056  11.166   2.865  11.289  0.0988 -0.3385 -0.0305
12484SOL    HW144057  11.190   2.866  11.196  1.2108  0.5837  0.2444
12484SOL    HW244058  11.081   2.910  11.293  0.9932  1.4501 -0.3841
12485SOL     OW44059  12.671  11.789  11.953  0.3655  0.3438 -0.2692
12485SOL    HW144060  12.617  11.851  11.904 -1.3703 -1.1382 -0.3340
12485SOL    HW244061  12.678  11.712  11.896  2.5008  0.4328 -0.2110
12486SOL     OW44062   9.268  10.571   4.152 -0.0531 -0.8306 -0.4671
12486SOL    HW144063   9.328  10.502   4.181 -0.1936 -0.8074 -0.1240
12486SOL    HW244064   9.194  10.566   4.213  0.0685 -0.1821 -0.2647
12487SOL     OW44065   9.235   1.002  12.191  0.2685  0.0475 -0.2376
12487SOL    HW144066   9.205   0.964  12.273  1.7328 -3.4414 -1.1350
12487SOL    HW244067   9.159   0.999  12.133  0.2458 -1.3294 -0.1726
12488SOL     OW44068  10.396  11.916   0.269  0.0912  0.1701 -0.0318
12488SOL    HW144069  10.350  11.997   0.288  1.0745  0.9932 -1.0131
12488SOL    HW244070  10.489  11.940   0.269  0.4100 -0.9976 -0.1165
12489SOL     OW44071   8.561   8.934   3.456 -0.4178  0.1249  0.3364
12489SOL    HW144072   8.618   9.010   3.441  0.6434 -0.0419  2.8897
12489SOL    HW244073   8.596   8.866   3.399  0.3837  0.7631  0.0387
12490SOL     OW44074   0.864   4.409   9.137 -0.3968  0.1405  0.7068
12490SOL    HW144075   0.817   4.464   9.200 -1.7240 -0.1713  0.0215
12490SOL    HW244076   0.864   4.460   9.056  1.3982  0.5862  0.9551
12491SOL     OW44077   2.416   3.434  11.083 -0.3762 -0.0105  0.1254
12491SOL    HW144078   2.373   3.488  11.150 -0.4849  1.3156 -0.9585
12491SOL    HW244079   2.467   3.497  11.032  0.8220 -1.1970 -0.1910
12492SOL     OW44080   9.395   3.037   5.550 -0.4484  0.1232 -0.1641
12492SOL    HW144081   9.467   3.061   5.492  1.1561 -0.7881  1.3671
12492SOL    HW244082   9.399   2.942   5.556 -0.1446  0.2334  1.9234
12493SOL     OW44083   6.825  12.426   3.819 -0.6716  0.1035  0.1977
12493SOL    HW144084   6.876  12.347   3.838 -0.4504  0.2720  0.3037
12493SOL    HW244085   6.813  12.425   3.724  0.2013  0.4806  0.0820
12494SOL     OW44086   7.278  10.223  11.206 -0.0521 -0.6110  0.1881
12494SOL    HW144087   7.247  10.311  11.227 -1.0806 -1.3019  1.7645
12494SOL    HW244088   7.226  10.196  11.131  0.7912  0.3831 -0.7779
12495SOL     OW44089   0.292   9.691  10.186 -0.7372  0.6773  0.1928
12495SOL    HW144090   0.366   9.709  10.244 -0.6545 -1.3672  0.8201
12495SOL    HW244091   0.215   9.696  10.242 -0.8019  0.2211  0.1543
12496SOL     OW44092   8.327   4.754   0.015  0.1686  0.5103  1.4256
12496SOL    HW144093   8.394   4.814   0.048  1.0966  0.2059  0.1790
12496SOL    HW244094   8.305   4.788  -0.072 -1.3589  0.6320  1.8422
12497SOL     OW44095   2.150   0.723   6.861 -0.0422 -0.1232  0.1811
12497SOL    HW144096   2.216   0.660   6.833  0.6538  0.9067 -0.5650
12497SOL    HW244097   2.174   0.804   6.817 -1.5007  0.4170  0.3289
12498SOL     OW44098   1.173   7.970   9.999  0.0159 -0.4879  0.0713
12498SOL    HW144099   1.096   7.956  10.053  0.3885 -2.2735  0.1950
12498SOL    HW244100   1.145   8.034   9.933 -1.2343 -0.3168  0.7389
12499SOL     OW44101   9.487   0.095   0.080 -0.3651 -0.6163 -0.5405
12499SOL    HW144102   9.501   0.189   0.083  0.4648 -0.7288 -0.4492
12499SOL    HW244103   9.535   0.066   0.003 -1.6700 -0.8124 -1.3037
12500SOL     OW44104   7.474  10.716   3.235  0.0847  0.4815 -0.4263
12500SOL    HW144105   7.460  10.807   3.261 -1.3672  0.3609 -0.7041
12500SOL    HW244106   7.548  10.720   3.175 -0.2011  1.5463 -0.7364
12501SOL     OW44107   3.581  10.922  10.860  0.2106  0.2388 -0.0833
12501SOL    HW144108   3.590  10.923  10.955 -1.7009 -0.7539  0.1598
12501SOL    HW244109   3.599  11.012  10.833  0.3097  0.6464  1.2721
12502SOL     OW44110   1.644   4.115   8.977  0.0342 -0.0137  0.7938
12502SOL    HW144111   1.722   4.169   8.967 -0.4878  0.4407 -1.3264
12502SOL    HW244112   1.583   4.148   8.911 -1.1617 -1.7286  0.9643
12503SOL     OW44113  10.216   7.999   3.272 -0.3310  0.1211 -0.2144
12503SOL    HW144114  10.232   7.946   3.193 -0.0041  0.7152 -0.5587
12503SOL    HW244115  10.293   7.985   3.326 -0.3486  0.0665 -0.2033
12504SOL     OW44116   4.821   5.424  11.550  0.3049 -0.5309 -0.3395
12504SOL    HW144117   4.784   5.340  11.521 -0.1646  0.1525 -1.7816
12504SOL    HW244118   4.784   5.437  11.637 -2.3775 -0.2418 -1.3981
12505SOL     OW44119   9.311  12.604   2.621 -0.1813 -0.0812  0.1730
12505SOL    HW144120   9.289  12.563   2.705 -0.3655  1.3997  0.8884
12505SOL    HW244121   9.405  12.619   2.626 -0.1780 -0.0745  0.0807
12506SOL     OW44122   6.028   6.164   1.555 -0.8196 -0.2330  0.1828
12506SOL    HW144123   6.056   6.198   1.470  0.7579 -1.3122  0.2162
12506SOL    HW244124   5.956   6.104   1.534  0.0236 -1.0427 -0.5050
12507SOL     OW44125  10.135  12.708  10.385  0.3941 -0.1699  0.0401
12507SOL    HW144126  10.122  12.636  10.323 -0.0200  0.4309 -0.5777
12507SOL    HW244127  10.062  12.698  10.448  0.7815 -0.7427  0.4049
12508SOL     OW44128   4.539   8.613   5.551 -0.1620 -0.7648 -0.2426
12508SOL    HW144129   4.589   8.638   5.472 -1.5240 -0.5631 -1.0757
12508SOL    HW244130   4.478   8.686   5.564 -0.8999 -1.4470  0.1690
12509SOL     OW44131   4.746  11.210   7.645  0.4482 -0.1159 -0.5496
12509SOL    HW144132   4.663  11.192   7.689 -0.1356  1.6307 -0.8279
12509SOL    HW244133   4.726  11.202   7.552  0.6813 -0.0735 -0.6030
12510SOL     OW44134  10.581   0.550   6.342 -0.0968 -0.3146  0.0336
12510SOL    HW144135  10.598   0.504   6.424  0.0890  1.4414  1.0399
12510SOL    HW244136  10.638   0.627   6.346 -1.3932  0.7358 -0.9210
12511SOL     OW44137   6.170   1.211   8.862 -0.3438  0.1711  0.4672
12511SOL    HW144138   6.100   1.229   8.925 -1.0813  3.4552 -1.0543
12511SOL    HW244139   6.130   1.156   8.796 -1.3196  1.4057 -0.0000
12512SOL     OW44140   6.457   0.899   2.096 -0.5354 -0.3326  0.3397
12512SOL    HW144141   6.551   0.884   2.085 -0.3381 -0.2686  1.7695
12512SOL    HW244142   6.431   0.943   2.015  0.5699 -0.7407 -0.2688
12513SOL     OW44143   0.458   8.801   5.635  0.4527 -0.4356 -0.2783
12513SOL    HW144144   0.431   8.709   5.642 -1.7556  0.2580  1.8284
12513SOL    HW244145   0.471   8.829   5.726  0.8738  1.3908 -0.8625
12514SOL     OW44146   0.505   2.494   2.092 -0.2373 -0.3592 -0.3705
12514SOL    HW144147   0.555   2.561   2.044 -2.8772  1.4550 -0.8419
12514SOL    HW244148   0.513   2.520   2.184 -1.5306  0.9078 -0.5773
12515SOL     OW44149  10.143   3.065   0.655  0.5995  0.1068 -0.0764
12515SOL    HW144150  10.113   3.123   0.726 -0.5702  0.6052 -0.9423
12515SOL    HW244151  10.194   2.998   0.700 -0.5227  0.1197  1.3221
12516SOL     OW44152   3.129   4.001   4.407  0.3232  0.1215 -0.3601
12516SOL    HW144153   3.100   3.928   4.461 -0.6440  1.3537  0.8381
12516SOL    HW244154   3.144   3.962   4.321 -0.3586 -1.4496  0.1980
12517SOL     OW44155   5.321   4.863   6.172 -0.3030  1.0692 -0.0465
12517SOL    HW144156   5.334   4.859   6.266  2.2493 -0.7874 -0.3711
12517SOL    HW244157   5.299   4.773   6.147 -1.1131  1.5699 -1.2124
12518SOL     OW44158   1.898  12.516   4.233  0.0586  0.0841 -0.0831
12518SOL    HW144159   1.887  12.600   4.187 -1.4338 -0.8035 -1.4953
12518SOL    HW244160   1.901  12.540   4.326  0.8293  1.7761 -0.4972
12519SOL     OW44161  11.061  10.691  11.242 -0.1013  0.0913  0.0758
12519SOL    HW144162  11.019  10.776  11.259 -0.0671  0.0434  0.4068
12519SOL    HW244163  11.079  10.691  11.148 -0.2526  0.3818  0.0471
12520SOL     OW44164   2.386   3.031   3.202 -0.5185 -0.6852 -0.9736
12520SOL    HW144165   2.334   3.014   3.281  0.1967  1.7315  0.1405
12520SOL    HW244166   2.476   3.033   3.233 -0.1629 -0.3487 -1.9825
12521SOL     OW44167  11.101   9.523   7.467  0.2742  0.5069  0.4360
12521SOL    HW144168  11.150   9.571   7.400 -0.1792 -0.9554 -1.0246
12521SOL    HW244169  11.167   9.468   7.510  0.1023 -1.0329 -1.1391
12522SOL     OW44170   7.860   0.996   2.352  0.1795 -0.6603 -0.1200
12522SOL    HW144171   7.916   1.046   2.291 -0.0664 -1.6793 -1.2223
12522SOL    HW244172   7.911   0.991   2.432  0.7713  0.2180 -0.4190
12523SOL     OW44173   2.873   4.994  12.408 -0.1134  0.8536 -0.5264
12523SOL    HW144174   2.784   4.961  12.418  0.4212 -0.4768 -0.0246
12523SOL    HW244175   2.929   4.925  12.443  1.0616  2.2219  0.4010
12524SOL     OW44176   6.423   1.696   5.280  0.0574  0.0059 -0.0871
12524SOL    HW144177   6.492   1.637   5.251  1.2123  1.1139  0.3316
12524SOL    HW244178   6.342   1.652   5.255  0.9233 -0.7561 -1.7034
12525SOL     OW44179   0.206   8.431   5.191  0.3667  0.1779  0.2745
12525SOL    HW144180   0.232   8.390   5.109  0.1891 -0.2256  0.4132
12525SOL    HW244181   0.173   8.517   5.167  2.6103  1.0626  0.1654
12526SOL     OW44182  12.276  11.877   4.751  0.5639  0.4073  0.0868
12526SOL    HW144183  12.277  11.782   4.737 -0.7075  0.3105  0.5366
12526SOL    HW244184  12.354  11.894   4.803 -0.0952 -0.6625  1.4945
12527SOL     OW44185   4.860   5.700   5.293 -0.5455  0.2990 -0.4768
12527SOL    HW144186   4.880   5.793   5.282 -0.5190  0.1237 -2.0521
12527SOL    HW244187   4.826   5.694   5.383 -1.2665  1.9472 -0.5928
12528SOL     OW44188  11.140   6.653   7.758  0.0329 -0.3259 -0.2064
12528SOL    HW144189  11.161   6.730   7.706  0.5632 -0.5863 -0.3913
12528SOL    HW244190  11.080   6.684   7.825 -1.1664 -0.1095 -1.3536
12529SOL     OW44191   1.996   0.865   2.811  0.1693 -0.1640 -0.0643
12529SOL    HW144192   2.000   0.939   2.871  2.1391 -1.7739  1.9792
12529SOL    HW244193   2.064   0.882   2.747  0.8794 -0.3442  0.6256
12530SOL     OW44194  12.550   8.038   5.633  0.3892  0.1734 -0.4094
12530SOL    HW144195  12.602   8.101   5.684  2.4339  0.0586 -2.1922
12530SOL    HW244196  12.496   7.994   5.698  2.2633  0.5667  1.5644
12531SOL     OW44197   1.842   4.086   5.534  0.4596  0.8151  0.6535
12531SOL    HW144198   1.793   4.041   5.466  0.0336  0.3413  1.2620
12531SOL    HW244199   1.828   4.179   5.516  0.8213  0.7045 -0.2311
12532SOL     OW44200   3.016   0.176  12.714  0.1380 -0.6637 -0.0407
12532SOL    HW144201   3.045   0.093  12.677 -1.4110 -1.1674 -0.2034
12532SOL    HW244202   3.097   0.221  12.739  1.0808 -1.4958 -1.4700
12533SOL     OW44203   6.848   6.145   8.805  0.3037 -0.3761  0.3489
12533SOL    HW144204   6.832   6.134   8.898  1.6773 -1.0389  0.5427
12533SOL    HW244205   6.880   6.060   8.776 -1.0186 -0.4705 -0.9544
12534SOL     OW44206   1.068   8.213   2.072  0.0014  0.1196 -0.3744
12534SOL    HW144207   0.990   8.260   2.044  0.3027  0.6393 -0.3484
12534SOL    HW244208   1.141   8.270   2.048  0.2507  1.1503  2.4093
12535SOL     OW44209  11.065   5.054   4.091 -0.2948 -0.4214  0.0261
12535SOL    HW144210  11.004   5.113   4.133  0.3782  2.0466 -2.1816
12535SOL    HW244211  11.151   5.081   4.123 -0.0404 -0.9207 -0.2214
12536SOL     OW44212   4.461   6.183  10.595 -0.1145  0.2200 -0.2239
12536SOL    HW144213   4.375   6.220  10.614  0.2820  0.8217  0.4396
12536SOL    HW244214   4.475   6.201  10.502  1.1926  4.2277  0.5650
12537SOL     OW44215  10.606   6.322   8.953  0.3753 -0.2571 -0.3777
12537SOL    HW144216  10.521   6.332   8.910  0.6470  0.2973 -0.7995
12537SOL    HW244217  10.635   6.234   8.928  0.0933 -0.3061 -0.5342
12538SOL     OW44218   0.337   6.122   5.525  0.1103  0.2903 -0.1783
12538SOL    HW144219   0.250   6.114   5.488 -0.0775 -0.5637  0.4323
12538SOL    HW244220   0.394   6.140   5.450 -0.8811  3.4354 -0.3373
12539SOL     OW44221  10.656   7.679   6.758  0.4362 -1.5530  0.4881
12539SOL    HW144222  10.604   7.747   6.712  0.4009 -1.5571  0.5219
12539SOL    HW244223  10.590   7.618   6.790  0.4075 -1.1827  1.1491
12540SOL     OW44224   7.883   5.560  11.754  0.2757  0.1799 -0.1381
12540SOL    HW144225   7.822   5.486  11.759  1.8824 -1.1360  1.2759
12540SOL    HW244226   7.832   5.636  11.782 -0.7217 -0.8828  1.0390
12541SOL     OW44227  12.142   3.226   5.003 -0.0024  0.5074  0.0089
12541SOL    HW144228  12.223   3.175   5.005  0.4578  1.1695 -1.2840
12541SOL    HW244229  12.074   3.160   4.989  0.3969  0.0515  0.1572
12542SOL     OW44230  10.364  12.018   5.397 -0.0883  0.5161  0.0925
12542SOL    HW144231  10.270  12.037   5.396  0.4241  3.8467  1.3891
12542SOL    HW244232  10.372  11.945   5.458 -1.7468  1.0383  1.0172
12543SOL     OW44233   1.270   1.557   3.852 -0.0398  0.1320 -0.5929
12543SOL    HW144234   1.302   1.470   3.827  1.0510  0.9449 -2.2428
12543SOL    HW244235   1.214   1.584   3.779  0.9384  1.4469 -0.8940
12544SOL     OW44236  11.658   8.036   7.440  0.5840  0.3862  0.3697
12544SOL    HW144237  11.623   8.109   7.490 -1.8122 -0.9285  0.7412
12544SOL    HW244238  11.635   7.958   7.491  1.8070 -0.7505 -0.7176
12545SOL     OW44239  10.575   7.253   1.859 -0.4152 -0.2543 -0.0538
12545SOL    HW144240  10.545   7.344   1.847 -0.7172 -0.3355  0.0848
12545SOL    HW244241  10.495   7.204   1.877 -0.3187 -0.6435 -0.6612
12546SOL     OW44242   9.464  11.705   6.681 -0.2836  0.1607  0.2886
12546SOL    HW144243   9.484  11.777   6.741 -1.3620  0.7715 -0.0544
12546SOL    HW244244   9.379  11.729   6.643  0.0419 -0.5564 -0.9460
12547SOL     OW44245   9.308   8.132  12.209  0.7512  0.2741 -0.0839
12547SOL    HW144246   9.362   8.108  12.134 -0.0444  0.6828 -0.8071
12547SOL    HW244247   9.291   8.226  12.198 -0.6772  0.0138 -0.2711
12548SOL     OW44248   1.069   8.593   8.266 -0.5493  0.3476  0.0509
12548SOL    HW144249   1.036   8.503   8.265  0.0442  0.1270 -0.1835
12548SOL    HW244250   1.144   8.590   8.325 -1.1500  0.9224  0.8586
12549SOL     OW44251   8.265   8.739   7.315  0.7481  0.0699  0.6346
12549SOL    HW144252   8.244   8.804   7.382 -0.9156 -0.3867  0.5932
12549SOL    HW244253   8.182   8.721   7.272  1.2768 -1.6436  0.2445
12550SOL     OW44254  12.432   6.244   5.334  0.4101  0.0929 -0.3450
12550SOL    HW144255  12.416   6.293   5.254  0.4090  0.0407 -0.3766
12550SOL    HW244256  12.472   6.162   5.305  1.3765  0.5003 -0.2182
12551SOL     OW44257   1.735   7.355   5.827  0.3789  0.8369  0.4806
12551SOL    HW144258   1.691   7.272   5.846  0.2482  0.0391 -2.7511
12551SOL    HW244259   1.819   7.329   5.788  0.3298  2.1916 -0.5932
12552SOL     OW44260   2.916   5.996  11.850 -0.2870 -0.0851 -0.5492
12552SOL    HW144261   2.836   6.016  11.801 -0.1429  0.0125 -0.7488
12552SOL    HW244262   2.949   5.916  11.810 -0.0540  0.1126 -0.7546
12553SOL     OW44263   1.942  11.151   2.642 -1.1804  0.0135  0.1872
12553SOL    HW144264   2.021  11.134   2.591 -0.6480 -0.3471  1.0967
12553SOL    HW244265   1.937  11.247   2.647  0.3464  0.0636  1.7876
12554SOL     OW44266   1.760   5.743   3.068 -0.1704  0.3683 -0.1234
12554SOL    HW144267   1.713   5.676   3.018 -0.6339  0.1569  0.5779
12554SOL    HW244268   1.819   5.693   3.125  1.6710  0.6446 -1.6738
12555SOL     OW44269  12.257  10.400   6.303 -0.5087  0.3573 -0.3419
12555SOL    HW144270  12.349  10.420   6.286 -0.9316  2.3589 -0.4463
12555SOL    HW244271  12.217  10.394   6.215 -0.6782  0.5507 -0.2798
12556SOL     OW44272  12.624   1.186   5.705 -0.1887 -0.5376 -0.0642
12556SOL    HW144273  12.633   1.280   5.696  0.0137 -0.6062 -0.5905
12556SOL    HW244274  12.607   1.172   5.799 -3.3231  0.2641 -0.4063
12557SOL     OW44275   5.394   2.977   1.367 -0.2635  0.0182  0.5538
12557SOL    HW144276   5.475   2.937   1.335 -1.1778 -0.8353 -0.8122
12557SOL    HW244277   5.374   2.928   1.447 -0.5654 -1.3001 -0.2880
12558SOL     OW44278   2.938  10.807   2.111 -0.4998 -0.2240  0.0164
12558SOL    HW144279   3.022  10.764   2.099 -0.3831  0.3601 -1.4772
12558SOL    HW244280   2.933  10.871   2.040 -1.0661  1.6109  1.6068
12559SOL     OW44281  11.753  11.325   8.834 -0.2907 -0.2666 -0.3276
12559SOL    HW144282  11.708  11.350   8.915 -1.7387 -0.7720 -0.9397
12559SOL    HW244283  11.828  11.274   8.863 -1.0249 -0.8023  0.7002
12560SOL     OW44284   7.786   7.856   4.044  0.0905  0.0047  0.3643
12560SOL    HW144285   7.771   7.926   4.107 -4.1303 -0.2747 -0.0625
12560SOL    HW244286   7.766   7.895   3.959  1.1026 -0.8444 -0.2904
12561SOL     OW44287   1.443   6.580   1.868 -0.3767  0.1981 -0.2944
12561SOL    HW144288   1.452   6.674   1.880 -2.5198  0.3583  0.5160
12561SOL    HW244289   1.528   6.544   1.894  0.1605  1.8161  0.3141
12562SOL     OW44290   0.484   1.472   0.092 -0.3652  1.0426  0.2574
12562SOL    HW144291   0.572   1.506   0.077  0.0937 -0.7633 -1.5572
12562SOL    HW244292   0.426   1.544   0.066  0.5526  0.6955 -3.2512
12563SOL     OW44293   9.965   0.914   3.426  0.0075 -0.1104 -0.5907
12563SOL    HW144294   9.991   0.966   3.501  1.4213 -0.0146 -1.1256
12563SOL    HW244295   9.918   0.975   3.369  1.0085  0.4188 -0.8697
12564SOL     OW44296  11.879   8.069   2.201 -0.1884 -0.0087 -0.4359
12564SOL    HW144297  11.836   8.148   2.234 -1.2853  0.4693 -2.8378
12564SOL    HW244298  11.905   8.091   2.112  0.9341 -1.8493 -0.6079
12565SOL     OW44299   3.782  12.155   8.368 -0.0422  0.2034  0.0500
12565SOL    HW144300   3.841  12.089   8.331  2.0071  0.5219  2.4654
12565SOL    HW244301   3.782  12.225   8.304  1.4379 -0.2463 -0.4849
12566SOL     OW44302   4.387   8.552  12.118 -0.7805  0.6324  0.3938
12566SOL    HW144303   4.401   8.586  12.030  1.2552 -1.5765 -0.2489
12566SOL    HW244304   4.315   8.489  12.109  0.4731 -0.7873 -0.1131
12567SOL     OW44305   2.536   7.547   5.646 -0.1485 -0.2222  0.2560
12567SOL    HW144306   2.483   7.514   5.719  0.7933  0.9287  1.5034
12567SOL    HW244307   2.533   7.642   5.654 -0.4157 -0.0357 -1.5302
12568SOL     OW44308   7.541   2.142  10.862  0.7135  0.3403 -0.3320
12568SOL    HW144309   7.472   2.090  10.905  0.9358 -0.6289 -1.1096
12568SOL    HW244310   7.582   2.081  10.801  0.5346  1.6237 -1.7765
12569SOL     OW44311   4.064  11.691   8.525 -0.1208  0.5325  0.1784
12569SOL    HW144312   3.987  11.738   8.557 -1.3440 -0.7733 -0.7090
12569SOL    HW244313   4.045  11.599   8.546  0.1133 -0.0899 -2.1066
12570SOL     OW44314   7.673   8.324  12.695 -0.0498 -0.0849  0.4679
12570SOL    HW144315   7.746   8.357  12.643  1.2783  0.5514  2.6164
12570SOL    HW244316   7.604   8.390  12.686  1.0474  1.2314  1.3698
12571SOL     OW44317  11.454   3.830   3.944  0.5205 -0.0479  0.0097
12571SOL    HW144318  11.488   3.756   3.895  0.7192 -0.0180  0.1013
12571SOL    HW244319  11.405   3.790   4.016 -1.5236 -0.1258 -1.3540
12572SOL     OW44320   2.024   1.089   5.242 -0.1249 -0.0855 -0.3614
12572SOL    HW144321   2.026   1.052   5.330  0.8637 -0.5397 -0.5638
12572SOL    HW244322   1.931   1.095   5.221 -0.3496 -1.2758  0.1769
12573SOL     OW44323   1.643   4.144  12.656  0.1732  0.0267 -0.5232
12573SOL    HW144324   1.678   4.221  12.701 -1.5350  0.9539 -0.6946
12573SOL    HW244325   1.549   4.147  12.673 -0.0477 -1.5283 -1.3005
12574SOL     OW44326   4.506   0.049   8.071 -0.1239  0.8106 -0.4206
12574SOL    HW144327   4.531   0.055   8.163 -0.8736  0.1379 -0.1633
12574SOL    HW244328   4.562  -0.020   8.035 -1.0691 -0.1875 -0.0210
12575SOL     OW44329  12.532  11.758   4.535 -0.5442 -0.5140  0.0653
12575SOL    HW144330  12.501  11.712   4.614 -2.4474  0.3518 -0.1286
12575SOL    HW244331  12.474  11.727   4.465  1.5716 -1.8296 -1.2190
12576SOL     OW44332   5.953   1.282   6.239  0.7414  0.1527 -0.2569
12576SOL    HW144333   5.915   1.215   6.181 -0.3133 -0.2131  0.8254
12576SOL    HW244334   6.042   1.252   6.254  0.7096 -0.2805 -0.8802
12577SOL     OW44335   7.198   2.438  10.568 -0.0838  0.4693  0.2363
12577SOL    HW144336   7.182   2.466  10.658 -0.6099 -2.0048  0.9785
12577SOL    HW244337   7.271   2.377  10.575  1.1613  1.7047 -1.3333
12578SOL     OW44338   8.819   0.506  10.078 -0.1251 -0.0790 -0.0513
12578SOL    HW144339   8.790   0.566  10.009 -0.0695 -0.6439 -0.5753
12578SOL    HW244340   8.785   0.544  10.159 -1.7383 -0.3441 -0.5636
12579SOL     OW44341   0.612   9.518  10.433  0.0493  0.3121  0.4971
12579SOL    HW144342   0.544   9.452  10.447  0.0678  0.1344 -0.2175
12579SOL    HW244343   0.574   9.580  10.371  1.4591 -1.2739 -2.1172
12580SOL     OW44344   0.746  11.663   7.241  0.5407 -0.0101 -0.1363
12580SOL    HW144345   0.668  11.620   7.206  1.9764 -1.7052 -1.4681
12580SOL    HW244346   0.785  11.597   7.299  2.2905 -0.2168 -1.4785
12581SOL     OW44347   9.051  11.045   4.735 -0.4714  0.3502 -0.4859
12581SOL    HW144348   9.133  11.094   4.740 -0.7723  0.8453 -0.3921
12581SOL    HW244349   9.052  11.005   4.649  1.9275 -3.2490  0.9642
12582SOL     OW44350   6.750  11.688   4.105 -0.2628  0.3128 -0.1158
12582SOL    HW144351   6.758  11.771   4.152  1.1549 -0.2153  0.6723
12582SOL    HW244352   6.686  11.704   4.037 -1.8999  1.3317  1.5623
12583SOL     OW44353   4.643   8.080   3.647  0.1430  0.1080 -0.2622
12583SOL    HW144354   4.575   8.106   3.709  0.4235  0.1594  0.0271
12583SOL    HW244355   4.630   7.987   3.635  1.3262 -0.3356  1.4432
12584SOL     OW44356   3.122   8.168  11.098 -0.2752  0.3115  0.2179
12584SOL    HW144357   3.198   8.124  11.134 -0.6099 -1.5436 -1.2209
12584SOL    HW244358   3.050   8.145  11.157 -0.5249 -1.4586 -0.7312
12585SOL     OW44359   4.119   2.957   2.040 -0.0138  0.3678  0.1883
12585SOL    HW144360   4.111   3.017   1.965 -0.8459 -1.0360 -0.8889
12585SOL    HW244361   4.031   2.955   2.078  0.3035  0.7386  0.9605
12586SOL     OW44362   1.495   4.120   6.515  0.0506 -0.3257  0.5523
12586SOL    HW144363   1.548   4.068   6.456 -1.3586 -1.2913  0.0757
12586SOL    HW244364   1.436   4.056   6.557 -1.3940  0.7883  0.3150
12587SOL     OW44365   4.703   9.548   9.460 -0.4967 -0.0614  0.2866
12587SOL    HW144366   4.679   9.456   9.463  0.7319 -0.4494 -0.9917
12587SOL    HW244367   4.624   9.594   9.492 -2.0915 -1.3920 -1.5228
12588SOL     OW44368   7.002   7.318   2.531 -0.1612  0.8323  0.0512
12588SOL    HW144369   7.001   7.272   2.447 -0.0651 -0.6269  0.8198
12588SOL    HW244370   7.017   7.410   2.508  0.2368  0.4055 -1.5005
12589SOL     OW44371   7.418   7.871   7.595 -0.4688 -0.4491  0.1007
12589SOL    HW144372   7.348   7.929   7.625  0.6362  0.2947  1.3653
12589SOL    HW244373   7.458   7.919   7.521  0.4523  0.4865  1.1520
12590SOL     OW44374   7.693   2.422  12.002 -0.1227  0.6416 -0.2373
12590SOL    HW144375   7.785   2.435  11.979 -0.1518 -0.9437 -1.3606
12590SOL    HW244376   7.645   2.465  11.931 -0.2466  0.4039 -0.2952
12591SOL     OW44377  10.955   3.529   2.856  0.0892 -0.1608 -0.4283
12591SOL    HW144378  11.031   3.491   2.811  0.7346  2.2116 -1.4733
12591SOL    HW244379  10.963   3.623   2.842 -2.5609  0.2404  0.2331
12592SOL     OW44380  10.631   3.523   5.355 -0.9039  0.2673 -0.0288
12592SOL    HW144381  10.630   3.455   5.423  0.1592  0.1020 -0.1646
12592SOL    HW244382  10.586   3.482   5.281  0.4699 -0.6401 -0.4095
12593SOL     OW44383   0.501   0.557  12.465  0.1949 -0.4207 -0.4648
12593SOL    HW144384   0.471   0.524  12.550 -0.5335 -0.8914 -0.8911
12593SOL    HW244385   0.593   0.578  12.479  0.1118 -0.5910  0.4163
12594SOL     OW44386   3.617   3.040   8.832  0.5921 -0.3623  0.1692
12594SOL    HW144387   3.670   3.119   8.823  1.1912 -0.9398 -2.0209
12594SOL    HW244388   3.626   2.996   8.748 -1.6827 -1.5614  0.4791
12595SOL     OW44389   5.722   2.400   1.404  1.0563 -0.4653 -0.3435
12595SOL    HW144390   5.686   2.476   1.358 -0.2704 -0.6672  0.2977
12595SOL    HW244391   5.769   2.437   1.478  0.3690 -0.2539 -0.0027
12596SOL     OW44392   4.742   7.542   7.535 -0.1935  0.3966  0.0832
12596SOL    HW144393   4.773   7.626   7.502 -0.1957  0.1636 -0.5237
12596SOL    HW244394   4.783   7.477   7.478 -0.0759 -0.0206  0.6393
12597SOL     OW44395  11.157   9.741   9.382  0.4602 -0.5304 -0.0621
12597SOL    HW144396  11.220   9.675   9.353  0.9002 -0.4121  0.6048
12597SOL    HW244397  11.161   9.739   9.477 -0.1456 -0.1307 -0.0200
12598SOL     OW44398   1.326   2.395   0.078  0.0968 -0.4442  0.1297
12598SOL    HW144399   1.302   2.475   0.032  0.9535 -0.6060 -0.6169
12598SOL    HW244400   1.388   2.423   0.145  0.8638 -0.5605 -0.5270
12599SOL     OW44401   1.191   3.941   5.770  0.1784  0.3177 -0.5198
12599SOL    HW144402   1.099   3.926   5.747  0.5380  0.8712 -2.5416
12599SOL    HW244403   1.196   4.036   5.786  0.5632  0.4876 -1.5089
12600SOL     OW44404  10.855   7.474   5.758 -0.3191  0.3937 -0.6260
12600SOL    HW144405  10.802   7.394   5.757 -0.1586  0.1969  1.4026
12600SOL    HW244406  10.808   7.535   5.701 -2.1200 -0.1768  0.1814
12601SOL     OW44407   6.330   3.591   7.102 -0.4261  0.2735 -0.4503
12601SOL    HW144408   6.289   3.640   7.031 -0.0015 -0.6568 -1.3559
12601SOL    HW244409   6.378   3.656   7.152  1.4725  0.5953 -2.5743
12602SOL     OW44410   2.887   1.083   7.320  0.1159  0.3713 -0.1034
12602SOL    HW144411   2.974   1.060   7.350  0.1883  0.1333 -0.4880
12602SOL    HW244412   2.831   1.011   7.350  0.0741  0.4581  0.0277
12603SOL     OW44413   0.449  12.617   6.794  0.1006  0.0867  0.1641
12603SOL    HW144414   0.424  12.525   6.786 -0.5266  0.0886  1.7485
12603SOL    HW244415   0.545  12.615   6.800  0.0472 -0.5642  1.0983
12604SOL     OW44416   7.665   0.148   4.165 -0.1667 -0.5777 -0.0719
12604SOL    HW144417   7.760   0.157   4.167 -0.2089  1.0984 -2.1209
12604SOL    HW244418   7.649   0.056   4.145  0.9165 -1.3909  2.4633
12605SOL     OW44419   1.111   5.914   9.615  0.0720  0.4324 -0.0859
12605SOL    HW144420   1.117   5.897   9.709  2.7420  0.6216 -0.1585
12605SOL    HW244421   1.081   5.831   9.578 -0.2925  0.1291  0.8496
12606SOL     OW44422  11.507   7.634  11.952 -0.4676 -0.5965  0.5734
12606SOL    HW144423  11.563   7.562  11.922  0.3780  0.0691  0.4708
12606SOL    HW244424  11.448   7.650  11.878  1.1175  0.5430 -0.5489
12607SOL     OW44425  10.727   5.709   7.066  0.5513  0.5125  0.2732
12607SOL    HW144426  10.762   5.744   6.984  0.1087 -1.2327 -0.7288
12607SOL    HW244427  10.632   5.703   7.051  0.6613 -1.5712  0.1512
12608SOL     OW44428  10.367   3.217   4.302  0.2222 -0.3470  0.6912
12608SOL    HW144429  10.386   3.309   4.322  2.0659 -0.2659 -1.0175
12608SOL    HW244430  10.418   3.200   4.223 -1.3479 -2.4133  0.0518
12609SOL     OW44431   4.955   9.175   5.194  0.2151  0.1060 -0.0479
12609SOL    HW144432   4.927   9.194   5.284  0.8271 -0.6362  0.3131
12609SOL    HW244433   5.051   9.176   5.199  0.2520  0.1640 -0.7218
12610SOL     OW44434   9.977   1.082   6.560  0.7017  0.0047 -0.3709
12610SOL    HW144435   9.925   1.142   6.507 -1.5019 -0.5043  1.0968
12610SOL    HW244436   9.941   0.996   6.541  0.2539 -0.2494  1.4425
12611SOL     OW44437   3.267   0.746  11.389  0.5677 -0.2278  0.4307
12611SOL    HW144438   3.258   0.702  11.473 -2.3010  1.7249  1.2436
12611SOL    HW244439   3.186   0.726  11.342  0.1605  2.2345 -0.0588
12612SOL     OW44440   0.253  11.765   8.494 -0.1466 -0.4486  0.4215
12612SOL    HW144441   0.177  11.812   8.527 -1.7801 -1.6820 -1.3665
12612SOL    HW244442   0.287  11.820   8.424 -0.5506 -0.7452 -0.0154
12613SOL     OW44443   7.629   5.273   5.220 -0.0961 -0.0936  0.7837
12613SOL    HW144444   7.597   5.357   5.188  2.4349  0.4004 -0.6850
12613SOL    HW244445   7.656   5.291   5.310  1.7181  1.1215  0.0620
12614SOL     OW44446   1.796   4.960  12.684 -0.2834 -0.7732  0.1329
12614SOL    HW144447   1.762   5.009  12.759  0.5426  0.8000 -0.4769
12614SOL    HW244448   1.846   4.888  12.723  0.1721  0.0518  1.1132
12615SOL     OW44449  11.870   5.470  10.947  0.1107 -0.5790  0.3884
12615SOL    HW144450  11.868   5.407  10.876  0.0870 -0.4896  0.3092
12615SOL    HW244451  11.920   5.428  11.016 -0.7794 -1.0986  0.7319
12616SOL     OW44452   5.943   1.405   7.543  0.5138  0.5023  0.0420
12616SOL    HW144453   5.918   1.321   7.505 -1.3394  0.9955  0.0415
12616SOL    HW244454   6.038   1.411   7.530  0.3710 -0.6282 -1.8858
12617SOL     OW44455   6.617   6.161  10.437 -0.0973 -0.5715  0.2365
12617SOL    HW144456   6.604   6.104  10.362 -1.7891 -0.3792  0.3334
12617SOL    HW244457   6.554   6.233  10.424 -0.8937 -0.8561  2.0980
12618SOL     OW44458   4.336   3.243   5.033 -0.0837  0.0669  0.0229
12618SOL    HW144459   4.245   3.225   5.057 -0.9743  0.2097 -2.9322
12618SOL    HW244460   4.346   3.337   5.045 -0.0534 -0.0474  1.0360
12619SOL     OW44461   7.263   4.592  11.776  0.4375 -0.7217 -0.7043
12619SOL    HW144462   7.216   4.675  11.768 -0.0111 -0.9275 -0.2273
12619SOL    HW244463   7.208   4.529  11.730 -0.1270 -1.1064  0.4616
12620SOL     OW44464  11.378  10.834   1.182 -0.6955  0.2469  0.2082
12620SOL    HW144465  11.374  10.750   1.229 -1.3506 -0.0950 -0.4351
12620SOL    HW244466  11.288  10.851   1.156 -0.7429  1.6680  1.1793
12621SOL     OW44467   6.323  10.597   9.645  0.5101 -0.1921 -0.6274
12621SOL    HW144468   6.375  10.660   9.595  0.8403 -0.3804 -0.5195
12621SOL    HW244469   6.312  10.523   9.586  0.4536 -0.1998 -0.6080
12622SOL     OW44470  11.631   7.310   6.869  0.4013 -0.2390  0.1982
12622SOL    HW144471  11.721   7.329   6.843  0.4085  1.0200  1.0764
12622SOL    HW244472  11.637   7.282   6.961 -0.0713 -0.5414  0.1474
12623SOL     OW44473   3.725   6.795   7.173  0.7986 -0.1916 -0.5943
12623SOL    HW144474   3.696   6.753   7.092  0.1079  0.7515 -0.8545
12623SOL    HW244475   3.779   6.729   7.217  0.3439 -1.0716 -1.3364
12624SOL     OW44476   6.834  11.548  11.620 -0.6289 -0.8293  0.5226
12624SOL    HW144477   6.819  11.555  11.714  0.6023 -0.6861  0.7239
12624SOL    HW244478   6.917  11.503  11.612 -1.2125 -1.7680 -0.5345
12625SOL     OW44479   5.177   1.244   2.336  0.1185  0.5095 -0.2181
12625SOL    HW144480   5.269   1.257   2.358  0.9249 -1.2125 -2.1506
12625SOL    HW244481   5.159   1.309   2.268 -0.1182  0.9039  0.2221
12626SOL     OW44482   4.878   1.985   9.169 -0.3167  0.1444 -0.6173
12626SOL    HW144483   4.839   1.958   9.252  2.2614  0.7139  0.8643
12626SOL    HW244484   4.846   2.075   9.156 -2.6557 -0.7419 -1.5727
12627SOL     OW44485  11.034   6.714   2.358  0.6247 -0.1962  0.5031
12627SOL    HW144486  11.041   6.723   2.263  0.9740  0.6301  0.6007
12627SOL    HW244487  11.009   6.622   2.371  2.0637 -0.7337 -0.3037
12628SOL     OW44488   9.465  11.505   2.702 -0.0843 -0.0607 -0.0856
12628SOL    HW144489   9.472  11.588   2.656  0.5172  0.4008  0.8083
12628SOL    HW244490   9.371  11.493   2.716 -0.3144 -0.3976 -1.7304
12629SOL     OW44491   8.537  12.094   6.435 -0.0899 -0.5733 -0.0562
12629SOL    HW144492   8.484  12.069   6.359 -0.2444 -0.5826  0.0529
12629SOL    HW244493   8.550  12.188   6.426 -3.0653  0.1430  1.6880
12630SOL     OW44494   6.543  10.722  10.600  0.0611 -0.3327 -0.4140
12630SOL    HW144495   6.481  10.690  10.534  0.2337 -0.6472 -0.4242
12630SOL    HW244496   6.569  10.808  10.568 -2.4232  1.0429  0.9414
12631SOL     OW44497   3.525   0.090   9.673 -0.5811 -0.4386 -0.2606
12631SOL    HW144498   3.594   0.030   9.702 -0.6408 -0.0092  0.7973
12631SOL    HW244499   3.525   0.081   9.578  1.1187 -0.2655 -0.3173
12632SOL     OW44500  11.364  11.829   9.980  0.7152  0.2066  0.3792
12632SOL    HW144501  11.386  11.812   9.888 -1.4839 -2.1261  0.1610
12632SOL    HW244502  11.397  11.752  10.027  2.0644  1.5039  1.6488
12633SOL     OW44503  12.645   6.268   1.325 -0.0158 -0.2369 -0.3715
12633SOL    HW144504  12.694   6.350   1.321  0.2411 -0.2370  1.7966
12633SOL    HW244505  12.602   6.269   1.410 -2.6657 -0.9143 -1.5814
12634SOL     OW44506   1.247   1.449  11.641 -0.1418 -0.3917 -0.2993
12634SOL    HW144507   1.315   1.465  11.707 -1.7691  1.5995  1.0012
12634SOL    HW244508   1.281   1.491  11.562 -0.1029  1.2061  0.5237
12635SOL     OW44509   9.079   1.567   8.560  0.0202 -0.2283  0.3377
12635SOL    HW144510   9.168   1.555   8.592  0.1905 -1.6801 -0.5926
12635SOL    HW244511   9.026   1.510   8.615  0.0258 -1.1873 -0.6257
12636SOL     OW44512   4.508   2.337   5.077  0.2252  0.3289  0.0588
12636SOL    HW144513   4.582   2.392   5.052  0.1111  0.1890 -0.6044
12636SOL    HW244514   4.482   2.370   5.163  1.0633  0.3675  0.3111
12637SOL     OW44515  10.413  12.422  12.578  0.2791  0.3886 -0.4664
12637SOL    HW144516  10.464  12.498  12.549  0.0819  0.8384  0.3216
12637SOL    HW244517  10.322  12.447  12.559  0.2825 -0.1236 -1.2276
12638SOL     OW44518   0.256   9.589   3.597 -0.2574  0.4096 -0.4658
12638SOL    HW144519   0.276   9.627   3.511  0.0204  0.4931 -0.3670
12638SOL    HW244520   0.266   9.662   3.658  1.0490  0.0114 -0.1762
12639SOL     OW44521   3.905   2.174   4.661 -0.2129 -0.0030  0.0434
12639SOL    HW144522   3.932   2.096   4.710  0.0105 -0.0786 -0.1997
12639SOL    HW244523   3.892   2.142   4.572 -0.1439  0.2351 -0.0510
12640SOL     OW44524  10.761   8.788   9.227  0.2228 -0.1293 -0.2313
12640SOL    HW144525  10.752   8.805   9.321  0.3480 -0.9083 -0.0737
12640SOL    HW244526  10.827   8.718   9.221 -0.4602 -0.7370 -0.8359
12641SOL     OW44527  10.938   1.987   5.176  0.1521  0.5723 -0.4170
12641SOL    HW144528  10.965   2.078   5.167 -1.2304  1.0505 -0.0009
12641SOL    HW244529  10.960   1.947   5.091  1.9507  0.9319 -0.1601
12642SOL     OW44530   2.330   0.269  10.132 -0.2486  0.2136  0.5484
12642SOL    HW144531   2.393   0.225  10.189  0.5554  1.0666  0.3387
12642SOL    HW244532   2.300   0.200  10.072 -0.4859 -0.4969  1.4566
12643SOL     OW44533   8.725   1.186   5.344  0.4197  0.4213 -0.5797
12643SOL    HW144534   8.709   1.114   5.283 -0.6904 -0.4420  0.6670
12643SOL    HW244535   8.710   1.147   5.431  1.1235  1.8191  0.1993
12644SOL     OW44536  12.017   7.682   1.978 -0.0618  0.1270  0.8494
12644SOL    HW144537  11.966   7.602   1.985 -0.9818  0.5596 -0.4716
12644SOL    HW244538  12.019   7.718   2.067  0.6341 -1.4853  1.5244
12645SOL     OW44539   7.212   7.795  11.894  0.6415 -0.1108  0.0612
12645SOL    HW144540   7.287   7.842  11.856  0.1969 -0.1816 -0.9402
12645SOL    HW244541   7.137   7.850  11.873  0.3039 -0.5024  0.2442
12646SOL     OW44542   3.680  12.392   0.226 -0.0468 -0.1135  0.2677
12646SOL    HW144543   3.768  12.413   0.196  0.0473  0.0393  0.6471
12646SOL    HW244544   3.622  12.429   0.159  0.1995 -1.1630 -0.5579
12647SOL     OW44545  10.019   6.329   0.679  0.1937 -0.4340 -0.3296
12647SOL    HW144546  10.052   6.324   0.589 -0.3210 -0.8658 -0.4931
12647SOL    HW244547   9.935   6.283   0.677  0.0084 -0.1309  0.2918
12648SOL     OW44548   4.243   1.458   2.112 -0.0359 -0.2800 -0.5486
12648SOL    HW144549   4.314   1.436   2.051 -0.6611 -2.9384 -0.4597
12648SOL    HW244550   4.265   1.545   2.144  0.6312  1.0123 -4.0992
12649SOL     OW44551   2.370   3.661   8.707 -0.4333 -0.6658  0.2473
12649SOL    HW144552   2.338   3.740   8.750  0.0661  0.0209 -0.6096
12649SOL    HW244553   2.401   3.606   8.779 -0.5089  0.0396  0.8355
12650SOL     OW44554   8.952  11.699   2.987  0.3588 -0.0794 -0.3660
12650SOL    HW144555   8.860  11.703   3.012  0.2210  2.3623 -1.0117
12650SOL    HW244556   8.982  11.614   3.019 -2.7554 -2.1710 -2.4476
12651SOL     OW44557   9.954  10.522  12.443  0.1592 -0.1186 -0.6948
12651SOL    HW144558   9.886  10.482  12.497  1.8116 -1.5345  0.4780
12651SOL    HW244559   9.928  10.614  12.435 -1.2310 -0.3318  0.7802
12652SOL     OW44560   0.432   6.092   0.527  0.7637 -0.3269  0.2170
12652SOL    HW144561   0.491   6.159   0.563  1.0317  0.9850 -2.3720
12652SOL    HW244562   0.484   6.012   0.527  1.1892 -0.0651  1.4614
12653SOL     OW44563   9.665   2.572   9.837 -0.9098  0.5194 -0.1351
12653SOL    HW144564   9.649   2.652   9.887 -0.6429 -0.3063  1.3433
12653SOL    HW244565   9.760   2.566   9.832 -0.9317  1.0642 -1.5752
12654SOL     OW44566   8.069   5.771   5.174 -0.0343  0.5186  0.2123
12654SOL    HW144567   7.998   5.731   5.124  0.7848 -0.3478 -0.2991
12654SOL    HW244568   8.040   5.860   5.191 -1.1993  0.2024 -0.0663
12655SOL     OW44569   7.948   3.749   6.846  0.4251  0.2045  0.0903
12655SOL    HW144570   7.973   3.660   6.823  0.4040 -0.2390  1.6706
12655SOL    HW244571   7.975   3.802   6.771  0.7148 -1.0754 -0.7382
12656SOL     OW44572   1.289   4.292   9.152 -0.1835  0.3728  0.1951
12656SOL    HW144573   1.372   4.247   9.165 -0.1122 -0.4585 -2.5722
12656SOL    HW244574   1.312   4.374   9.110 -0.7736 -0.6479 -2.2966
12657SOL     OW44575   6.953  10.422   7.373 -0.0206 -0.1274 -0.0502
12657SOL    HW144576   7.033  10.442   7.323 -0.4990  0.5705 -0.5564
12657SOL    HW244577   6.907  10.505   7.378 -1.1208 -0.6888 -0.4815
12658SOL     OW44578   6.463   5.484   1.511  0.2616  0.2759  0.2422
12658SOL    HW144579   6.465   5.558   1.450 -0.5822  0.7646  0.7865
12658SOL    HW244580   6.391   5.504   1.571 -0.1740 -1.1298  0.2262
12659SOL     OW44581   9.588   5.653   2.568  0.3180  0.1788  0.4008
12659SOL    HW144582   9.679   5.681   2.579  0.5167 -1.1204  2.7818
12659SOL    HW244583   9.594   5.572   2.518  0.3987  0.4266  0.0036
12660SOL     OW44584  12.555   0.225  10.743 -0.5717  0.5716 -0.5169
12660SOL    HW144585  12.571   0.156  10.808 -1.1875 -0.1267 -1.0897
12660SOL    HW244586  12.496   0.286  10.787 -0.8037  0.2265 -0.3470
12661SOL     OW44587   9.026  11.365   1.458  0.3292  0.3209  0.4240
12661SOL    HW144588   9.095  11.310   1.494 -0.0292 -0.0403  0.5694
12661SOL    HW244589   8.982  11.402   1.535  0.9468  1.2915  0.3208
12662SOL     OW44590   4.289   7.745   0.964  0.3082  0.2267  0.2799
12662SOL    HW144591   4.302   7.804   0.890 -0.7767  1.0963  0.7581
12662SOL    HW244592   4.209   7.776   1.007 -0.8559 -2.1563  0.0102
12663SOL     OW44593   4.910   0.523   5.186  0.4209  0.1261  0.6635
12663SOL    HW144594   4.888   0.594   5.125  0.7093  1.0522  1.6163
12663SOL    HW244595   4.965   0.564   5.252  1.7196 -1.2845  0.5142
12664SOL     OW44596   6.783  11.225   8.492  0.2479  0.0215  0.5844
12664SOL    HW144597   6.772  11.320   8.484 -1.1559 -0.1312  0.4775
12664SOL    HW244598   6.861  11.206   8.441  0.6448  1.1378  0.7423
12665SOL     OW44599   2.347  10.004   4.138  0.4529  0.0311  0.3147
12665SOL    HW144600   2.423  10.062   4.129  0.3306  0.2063  0.3913
12665SOL    HW244601   2.283  10.041   4.077  0.4211 -0.1007  0.2682
12666SOL     OW44602   3.502   9.770   8.997  0.3177 -0.2303 -0.2072
12666SOL    HW144603   3.486   9.691   8.947  0.8128  0.3436 -1.3095
12666SOL    HW244604   3.586   9.754   9.041 -0.3289 -0.9051  0.8217
12667SOL     OW44605  12.419   6.848   7.252  0.3365  0.3405  0.3539
12667SOL    HW144606  12.502   6.881   7.285  1.0616 -0.7019 -0.3556
12667SOL    HW244607  12.358   6.860   7.325  1.5433 -0.5574  1.5615
12668SOL     OW44608   8.080  12.707   5.030 -0.3264  0.1118 -0.5063
12668SOL    HW144609   8.122  12.793   5.026 -0.8545  0.3799 -0.4408
12668SOL    HW244610   8.039  12.704   5.117 -0.8103  0.0389 -0.7306
12669SOL     OW44611  10.253   0.264   5.398  0.2356 -0.0143  0.2942
12669SOL    HW144612  10.184   0.204   5.370 -0.6723  1.2271 -0.2436
12669SOL    HW244613  10.330   0.236   5.349 -0.1316 -0.8139  0.1545
12670SOL     OW44614   6.149   0.436   7.775 -0.0127 -0.0902  0.1394
12670SOL    HW144615   6.080   0.422   7.710  1.0579 -2.4614 -0.5989
12670SOL    HW244616   6.114   0.504   7.833 -2.6983 -0.7595 -0.5511
12671SOL     OW44617   8.618  10.084   6.215 -0.1199 -0.7125  0.0267
12671SOL    HW144618   8.658  10.147   6.156 -2.0144 -0.7607 -1.3704
12671SOL    HW244619   8.529  10.116   6.230  0.4879 -0.2340  3.5907
12672SOL     OW44620   9.265   8.774   7.880 -0.0140 -0.1754 -0.2895
12672SOL    HW144621   9.267   8.698   7.939  0.4257 -1.5077 -1.9339
12672SOL    HW244622   9.271   8.850   7.938  0.5382 -1.4220  1.3580
12673SOL     OW44623   7.137  12.354   3.510  0.1982 -0.7155 -0.3838
12673SOL    HW144624   7.145  12.441   3.473  1.1614  0.4342  2.2675
12673SOL    HW244625   7.071  12.363   3.579  0.7773 -1.8709  0.3690
12674SOL     OW44626   0.448  11.940   3.137 -0.3034  0.3504 -0.0002
12674SOL    HW144627   0.428  12.020   3.089 -0.3957 -0.1177 -0.7458
12674SOL    HW244628   0.499  11.971   3.213 -2.2236  1.3443  0.9484
12675SOL     OW44629   5.848   1.410   6.881  0.1467  0.5478 -0.0749
12675SOL    HW144630   5.922   1.349   6.885  1.0874  1.6387 -0.3376
12675SOL    HW244631   5.812   1.409   6.970  0.9212  0.5292  0.2527
12676SOL     OW44632   6.355   7.970   9.901  0.4123 -0.5660  0.0308
12676SOL    HW144633   6.431   8.011   9.859  0.8666 -1.2740  0.1362
12676SOL    HW244634   6.380   7.878   9.909  0.5213 -0.4052  2.2132
12677SOL     OW44635  12.756   8.979   3.525 -0.2935  0.2816 -0.0444
12677SOL    HW144636  12.779   9.023   3.444 -0.7389  0.6374  0.0170
12677SOL    HW244637  12.807   9.024   3.592  0.5891 -0.4525 -0.2068
12678SOL     OW44638  10.745  10.037   1.878 -0.4947 -0.0539  0.2800
12678SOL    HW144639  10.707   9.954   1.851  0.1796 -0.2284 -0.1598
12678SOL    HW244640  10.805  10.014   1.949 -0.0597  0.0055 -0.0635
12679SOL     OW44641   0.272  10.100   8.365 -0.1517  0.4721 -0.2005
12679SOL    HW144642   0.348  10.147   8.329  1.7269 -1.0056  1.5552
12679SOL    HW244643   0.275  10.120   8.459 -2.4682  1.0034 -0.1837
12680SOL     OW44644   6.626   1.082   2.859 -0.2195  0.3922  0.2875
12680SOL    HW144645   6.602   1.006   2.912 -0.4438  1.4860  1.8253
12680SOL    HW244646   6.582   1.068   2.776  1.2201 -2.0581 -0.1850
12681SOL     OW44647   3.388   5.956   5.299  0.2778 -0.2515  0.0230
12681SOL    HW144648   3.483   5.968   5.292  0.0775  0.7924 -1.5022
12681SOL    HW244649   3.358   6.035   5.345  0.1919 -0.8516  1.0181
12682SOL     OW44650  11.735   5.502  10.180  0.2352  0.5407  0.6768
12682SOL    HW144651  11.815   5.542  10.213  0.4523  0.0459  0.7571
12682SOL    HW244652  11.669   5.571  10.187  0.9601  1.4339 -0.7315
12683SOL     OW44653   6.608   2.722   9.470  0.7045 -0.2893 -0.1985
12683SOL    HW144654   6.525   2.677   9.455  0.8020 -0.6635  0.3252
12683SOL    HW244655   6.668   2.683   9.407  0.2949  0.5501 -1.1283
12684SOL     OW44656  12.503   5.263   4.417  0.2159  0.1468 -0.1972
12684SOL    HW144657  12.492   5.260   4.512  1.4097  0.3370 -0.0350
12684SOL    HW244658  12.461   5.183   4.386 -0.0322 -0.0095  0.5041
12685SOL     OW44659   9.993   1.955   0.818  0.6408  0.2177 -0.1162
12685SOL    HW144660  10.067   2.016   0.809 -0.6866  2.0355  0.7651
12685SOL    HW244661  10.006   1.916   0.905  1.4298 -0.7025 -0.6331
12686SOL     OW44662   4.741   6.432   9.663  0.7055  0.1884 -0.3825
12686SOL    HW144663   4.757   6.448   9.570  2.1271 -0.7916 -0.3356
12686SOL    HW244664   4.721   6.338   9.668 -0.1371  0.3862  0.2183
12687SOL     OW44665   1.770   6.368   2.792  1.2011  0.5208 -0.2395
12687SOL    HW144666   1.771   6.455   2.833  0.2387  0.5586 -0.2929
12687SOL    HW244667   1.724   6.313   2.855  0.4652  0.3891 -0.8899
12688SOL     OW44668  10.679   4.109  11.785  0.0047  0.4990 -0.2312
12688SOL    HW144669  10.759   4.060  11.807  0.0527  0.7477  0.1600
12688SOL    HW244670  10.693   4.137  11.695  2.0725  3.7581  0.9152
12689SOL     OW44671   6.747   6.641   3.052  0.1455 -0.2476 -0.5550
12689SOL    HW144672   6.695   6.563   3.031 -1.2532  0.4297  0.3103
12689SOL    HW244673   6.799   6.656   2.972  0.2811 -1.9091 -0.8254
12690SOL     OW44674   6.202   7.775   6.430 -0.0371 -0.6727 -0.1077
12690SOL    HW144675   6.182   7.683   6.413  0.6804 -0.8070 -0.2713
12690SOL    HW244676   6.132   7.806   6.486  0.1249 -1.5266  0.5715
12691SOL     OW44677   3.435   6.862   5.620 -0.0335 -0.4242  0.1028
12691SOL    HW144678   3.486   6.922   5.565 -0.8804  0.6842  0.4950
12691SOL    HW244679   3.345   6.874   5.592 -0.4585  0.0119  1.5991
12692SOL     OW44680   2.683   1.917   1.473 -0.7449 -0.0332  0.5615
12692SOL    HW144681   2.751   1.925   1.540  0.2752  0.5541 -0.5186
12692SOL    HW244682   2.714   1.848   1.415  0.9862  2.8111 -2.1835
12693SOL     OW44683   8.443  11.680   9.469 -0.0414 -0.4943 -0.1230
12693SOL    HW144684   8.420  11.607   9.412 -0.9771 -1.3194  1.2534
12693SOL    HW244685   8.372  11.685   9.532 -0.2302  1.9194 -0.4274
12694SOL     OW44686   6.334   2.641   8.919  0.0607  0.1392  0.1109
12694SOL    HW144687   6.425   2.649   8.889  0.8141 -1.3024  1.8373
12694SOL    HW244688   6.289   2.597   8.847  0.4742  1.6312 -1.1193
12695SOL     OW44689   9.151   1.856   6.404  0.1088 -0.7672 -0.3023
12695SOL    HW144690   9.234   1.892   6.435 -0.2742 -0.5433  0.4911
12695SOL    HW244691   9.091   1.931   6.402 -0.5868 -1.2538  0.9832
12696SOL     OW44692   6.148   6.195  12.520 -0.4617  0.2669 -0.6053
12696SOL    HW144693   6.177   6.282  12.549 -1.1409  0.3740 -0.2010
12696SOL    HW244694   6.067   6.212  12.472 -0.6030 -0.1439 -0.5148
12697SOL     OW44695  11.491   7.377   5.101  0.0130  0.8008  0.2770
12697SOL    HW144696  11.442   7.459   5.104  0.8053  1.2651  1.6069
12697SOL    HW244697  11.569   7.398   5.050 -0.7148  0.3127 -1.0664
12698SOL     OW44698   0.315   8.622   5.835 -0.4075  0.6755  0.2707
12698SOL    HW144699   0.235   8.649   5.791  0.4642  1.8012 -0.6598
12698SOL    HW244700   0.286   8.554   5.897 -1.8039 -0.1914 -1.2620
12699SOL     OW44701  12.785   2.903   7.622 -0.1537 -0.1792 -0.2982
12699SOL    HW144702  12.797   2.814   7.590 -0.8293  0.2652 -1.9131
12699SOL    HW244703  12.690   2.913   7.630 -0.0656  0.2623  0.3228
12700SOL     OW44704   8.650   0.347   3.309 -0.1824 -0.1107 -0.5256
12700SOL    HW144705   8.735   0.378   3.278 -0.1134 -1.1010 -1.3749
12700SOL    HW244706   8.659   0.347   3.405 -0.7241  3.8835 -0.3066
12701SOL     OW44707   3.123   6.764   5.052  0.2125  0.3590 -0.5334
12701SOL    HW144708   3.086   6.679   5.077 -1.0685  0.7195 -1.1254
12701SOL    HW244709   3.165   6.748   4.968 -0.6156  0.4379 -0.9754
12702SOL     OW44710   6.209   1.152   6.399 -0.5479  0.2712 -0.3733
12702SOL    HW144711   6.154   1.079   6.427  0.6169 -1.3724 -2.1168
12702SOL    HW244712   6.230   1.198   6.480 -0.2872 -2.0726  0.9872
12703SOL     OW44713   4.521   9.047  11.986  0.0038 -0.1656  0.7711
12703SOL    HW144714   4.572   8.967  11.977  0.5253  0.1561  0.8512
12703SOL    HW244715   4.489   9.065  11.897  0.1923 -0.2568  0.6845
12704SOL     OW44716  10.708   9.489   6.224 -0.1847 -0.2790  0.5179
12704SOL    HW144717  10.749   9.403   6.236 -3.6589 -1.9830  1.5280
12704SOL    HW244718  10.666   9.507   6.307 -2.8423  0.4403 -0.8714
12705SOL     OW44719   0.267   4.704   4.741  0.3126  0.4263  0.4021
12705SOL    HW144720   0.191   4.667   4.786  0.4353 -0.1486  0.1493
12705SOL    HW244721   0.328   4.631   4.733  0.3232  0.5286 -0.6225
12706SOL     OW44722   0.185   6.931   5.146  0.1441 -0.0690 -0.1125
12706SOL    HW144723   0.267   6.901   5.185  0.0516 -0.2035 -0.0196
12706SOL    HW244724   0.145   6.851   5.110  0.3270  0.0884 -0.6611
12707SOL     OW44725   6.370  10.827   1.847  0.2580 -0.6838 -0.4304
12707SOL    HW144726   6.362  10.837   1.752  0.2879 -0.3217 -0.3958
12707SOL    HW244727   6.285  10.793   1.874 -0.0585  0.0452 -0.4792
12708SOL     OW44728  11.852   3.517   4.079 -0.1867 -0.1660 -0.7870
12708SOL    HW144729  11.870   3.588   4.017 -0.3977 -1.3687 -2.2721
12708SOL    HW244730  11.901   3.442   4.045 -0.6368 -0.9679  0.2770
12709SOL     OW44731   7.141   1.531   8.576 -0.1891  0.4690  0.0242
12709SOL    HW144732   7.099   1.610   8.542  0.5129  0.6786 -0.3929
12709SOL    HW244733   7.214   1.563   8.630 -0.5604  0.1173  0.7456
12710SOL     OW44734  12.158  12.230   4.393  0.5811  0.1498  0.3528
12710SOL    HW144735  12.194  12.154   4.438  0.7643  0.3272  0.5067
12710SOL    HW244736  12.087  12.195   4.338  0.1822 -0.0333  0.9799
12711SOL     OW44737  12.264  11.158   8.210  0.1209 -0.2671 -0.7839
12711SOL    HW144738  12.225  11.072   8.196 -0.9146 -0.7701  3.7570
12711SOL    HW244739  12.190  11.218   8.216  0.4663  0.0163  1.0414
12712SOL     OW44740  11.022   0.333   0.298 -0.7700  0.2976 -0.2127
12712SOL    HW144741  11.079   0.262   0.268  0.8325  2.2236 -2.0249
12712SOL    HW244742  11.022   0.325   0.393  2.1983 -0.1283 -0.1524
12713SOL     OW44743   5.115   2.352   9.379 -0.0469 -0.7245 -0.0727
12713SOL    HW144744   5.056   2.353   9.454 -0.1871 -1.1488 -0.1710
12713SOL    HW244745   5.195   2.311   9.412 -0.1147 -0.9273 -0.1551
12714SOL     OW44746   2.609   5.669  11.656 -0.5708  0.1261  0.0499
12714SOL    HW144747   2.563   5.586  11.643 -0.1752  0.0102 -0.6653
12714SOL    HW244748   2.673   5.651  11.724  0.1782 -0.4387 -0.7850
12715SOL     OW44749   6.186   6.587   3.395  0.8861 -0.0714  0.2823
12715SOL    HW144750   6.232   6.662   3.432  2.0543 -0.7997  0.3615
12715SOL    HW244751   6.179   6.606   3.301  0.4192  0.5098  0.4329
12716SOL     OW44752   4.974   9.346  10.866 -0.6438  0.1719  0.2813
12716SOL    HW144753   4.966   9.292  10.787 -1.0831  0.9163 -0.1900
12716SOL    HW244754   5.050   9.402  10.849  0.5465 -1.0502  1.2485
12717SOL     OW44755   5.852   7.540   2.998  0.4546  0.1192 -0.0575
12717SOL    HW144756   5.821   7.542   2.908  2.1586  0.4846 -0.6772
12717SOL    HW244757   5.773   7.551   3.051 -0.5518  0.1253 -1.4943
12718SOL     OW44758   0.348   9.100   3.917 -0.2161  0.3764  0.1959
12718SOL    HW144759   0.443   9.105   3.907 -0.1489  1.2506  1.0792
12718SOL    HW244760   0.322   9.025   3.864  0.7938  0.9609 -1.1887
12719SOL     OW44761   8.128   6.281   0.902  0.3866 -0.2652  0.3948
12719SOL    HW144762   8.145   6.253   0.992 -1.2501  1.2256  1.2292
12719SOL    HW244763   8.072   6.358   0.911 -0.3976 -0.4838 -1.9316
12720SOL     OW44764   0.678   2.856   7.097 -0.5815  0.1705 -0.1787
12720SOL    HW144765   0.696   2.941   7.056 -0.0383  0.0032 -0.3008
12720SOL    HW244766   0.755   2.803   7.075 -0.5726 -0.1198  0.5326
12721SOL     OW44767   3.369  10.751   2.934  0.4860 -0.3919 -0.2505
12721SOL    HW144768   3.379  10.789   3.021 -0.0527  0.7811 -0.6794
12721SOL    HW244769   3.453  10.707   2.917  0.5829 -0.6503  0.8546
12722SOL     OW44770  11.223   4.023   1.011  0.6052 -0.8034  0.5846
12722SOL    HW144771  11.311   4.037   1.045 -0.2120 -0.8775  2.9011
12722SOL    HW244772  11.185   3.958   1.069 -1.5037  0.3799  0.6194
12723SOL     OW44773   6.315   5.688   4.046 -0.4180  0.1824 -0.3643
12723SOL    HW144774   6.376   5.619   4.021 -0.7901 -0.1546 -0.3402
12723SOL    HW244775   6.370   5.766   4.057 -0.0483 -0.0200 -0.7539
12724SOL     OW44776   3.637   7.824   9.966 -0.0150 -0.2358 -0.0757
12724SOL    HW144777   3.667   7.909   9.934 -1.7488  0.3454 -0.2367
12724SOL    HW244778   3.685   7.812  10.049 -0.1868  1.1721  0.2482
12725SOL     OW44779   7.947   2.432   0.866  0.3276 -0.5246  0.7635
12725SOL    HW144780   7.992   2.434   0.782  0.9001 -3.1348  0.9472
12725SOL    HW244781   7.969   2.516   0.907  1.9297 -0.1757 -0.7086
12726SOL     OW44782   7.418  11.475  11.029 -0.1252 -0.4111  0.3543
12726SOL    HW144783   7.504  11.516  11.014  0.4103 -2.0096 -1.1667
12726SOL    HW244784   7.358  11.549  11.034  0.9023  0.6447 -1.6672
12727SOL     OW44785   7.479   7.431   3.298 -0.1289  0.3713  0.0563
12727SOL    HW144786   7.459   7.448   3.390 -1.0067  0.7111 -0.1833
12727SOL    HW244787   7.393   7.429   3.256  0.2261 -0.3480 -0.6609
12728SOL     OW44788  10.914  10.395   3.735  0.3819  0.3635  0.0048
12728SOL    HW144789  10.853  10.432   3.799  1.1938 -0.5729  1.3955
12728SOL    HW244790  10.875  10.415   3.650 -0.4441  2.1907  0.7498
12729SOL     OW44791   9.980   7.314   1.503 -0.3780  0.1561  0.0827
12729SOL    HW144792  10.043   7.365   1.452 -0.4301 -0.2092 -0.3519
12729SOL    HW244793   9.978   7.228   1.461  0.5391 -0.5817  1.4685
12730SOL     OW44794   1.822   5.751   2.597  0.4134  0.1128  0.3655
12730SOL    HW144795   1.891   5.739   2.532  0.3429  1.6467 -0.0096
12730SOL    HW244796   1.826   5.671   2.650 -0.6957 -2.0247 -2.5489
12731SOL     OW44797   2.796   0.971   3.142 -0.0088  0.8845 -0.4307
12731SOL    HW144798   2.735   0.909   3.181 -0.2058  0.7668 -0.9143
12731SOL    HW244799   2.803   0.943   3.051  1.1685  0.5817 -0.2626
12732SOL     OW44800  11.563   0.127   9.536 -0.1943 -0.0048 -0.1331
12732SOL    HW144801  11.490   0.070   9.511  0.7585 -1.0891 -0.5178
12732SOL    HW244802  11.599   0.087   9.615  0.6115 -0.0771 -0.5257
12733SOL     OW44803   9.109   6.413  11.923 -0.6036 -0.1971  0.7027
12733SOL    HW144804   9.026   6.460  11.936 -1.1375 -0.9676  0.1576
12733SOL    HW244805   9.176   6.481  11.932 -1.4045  1.0803 -1.8529
12734SOL     OW44806   1.148   4.844   7.035  0.5046  0.2218 -0.2315
12734SOL    HW144807   1.054   4.845   7.053  0.4626 -0.6713 -0.3480
12734SOL    HW244808   1.158   4.781   6.964  1.1161  0.8541 -0.7306
12735SOL     OW44809   2.036   2.496   4.547 -0.5963 -0.5669  0.3483
12735SOL    HW144810   2.099   2.440   4.592 -0.4317  0.5665  1.5869
12735SOL    HW244811   2.048   2.475   4.454  0.6079 -1.3836  0.6621
12736SOL     OW44812   5.619  10.697  10.252  0.3198 -0.7939  0.1936
12736SOL    HW144813   5.688  10.636  10.226  2.5972  1.4564  0.5677
12736SOL    HW244814   5.635  10.775  10.199 -1.1679  0.2511  1.2142
12737SOL     OW44815   4.940  12.048   7.668  0.3573  0.2732 -0.0635
12737SOL    HW144816   4.866  12.037   7.608 -0.6491 -3.1176  1.5603
12737SOL    HW244817   4.913  12.117   7.728 -1.0994 -0.2184 -0.1140
12738SOL     OW44818   5.702  11.103   5.377 -0.4788 -0.1681  0.0585
12738SOL    HW144819   5.762  11.072   5.445  0.8108  2.6388  0.3458
12738SOL    HW244820   5.615  11.076   5.407  0.4382 -3.2371  0.2674
12739SOL     OW44821   3.175   6.695   3.591  0.1441 -0.7353 -0.1792
12739SOL    HW144822   3.109   6.732   3.650 -0.8272 -0.2096 -1.5631
12739SOL    HW244823   3.127   6.671   3.512  1.4404 -1.3143 -0.8254
12740SOL     OW44824   2.973  10.922   4.617 -0.2933  0.3927 -0.3365
12740SOL    HW144825   2.992  10.841   4.665  0.4981  0.7875  0.0190
12740SOL    HW244826   2.948  10.892   4.529 -2.4067 -0.3874  0.4578
12741SOL     OW44827   4.313   4.296   0.561  0.3883  0.1829  0.1563
12741SOL    HW144828   4.312   4.306   0.466 -0.1197  0.2500  0.1670
12741SOL    HW244829   4.374   4.363   0.591  1.1818 -0.3719 -0.1790
12742SOL     OW44830   5.856   1.660  10.173  0.4654 -0.7206 -0.3917
12742SOL    HW144831   5.799   1.677  10.098 -0.2309 -0.5793  0.1538
12742SOL    HW244832   5.864   1.565  10.176 -1.4440 -0.9051  0.7176
12743SOL     OW44833   9.438   5.853   0.320 -0.1083  0.3550  0.5825
12743SOL    HW144834   9.412   5.761   0.310  0.1669  0.2203  1.0872
12743SOL    HW244835   9.466   5.860   0.411  0.0773  0.8912  0.4851
12744SOL     OW44836   8.371  11.606   3.994 -0.2106  0.2606 -0.5573
12744SOL    HW144837   8.353  11.584   3.902 -1.7702 -0.1544 -0.1843
12744SOL    HW244838   8.385  11.700   3.994  0.7329  0.1380 -1.3403
12745SOL     OW44839   3.773   4.669   0.404 -0.1219 -0.1997 -0.1598
12745SOL    HW144840   3.684   4.636   0.395 -1.1561  2.4099 -0.4222
12745SOL    HW244841   3.764   4.747   0.459  2.5195 -1.6553  2.6963
12746SOL     OW44842   5.383   1.299   5.039 -0.8216  0.0112  0.2439
12746SOL    HW144843   5.415   1.272   5.125  0.4958  0.0196 -0.2243
12746SOL    HW244844   5.384   1.395   5.042  0.5697  0.0229 -0.2466
12747SOL     OW44845  10.415   6.371   8.327 -0.4300  0.5563  0.0860
12747SOL    HW144846  10.390   6.280   8.311  0.4315  0.1964  0.7535
12747SOL    HW244847  10.356   6.401   8.396  0.8801 -0.2814  1.6335
12748SOL     OW44848   2.692   3.869   6.464 -0.3177 -0.7176 -0.1979
12748SOL    HW144849   2.608   3.880   6.509  0.2903  1.5657  0.5336
12748SOL    HW244850   2.746   3.820   6.527 -0.1240  0.6689  0.7748
12749SOL     OW44851   6.375   4.983   6.050 -0.1758 -0.2383 -0.4590
12749SOL    HW144852   6.425   4.940   6.119 -0.2970 -0.0220 -0.2348
12749SOL    HW244853   6.434   4.984   5.974  1.6715  3.3146  0.7766
12750SOL     OW44854   7.820   5.586  10.495  0.3417  0.3403 -0.7830
12750SOL    HW144855   7.795   5.546  10.579  3.2764  1.6000  0.8261
12750SOL    HW244856   7.765   5.664  10.489  1.4769  1.3658  1.0959
12751SOL     OW44857  11.355   1.336   8.307  0.1869 -0.1672  0.1181
12751SOL    HW144858  11.438   1.330   8.355 -0.4311 -4.3508  0.9925
12751SOL    HW244859  11.380   1.330   8.215  0.9093  0.5660  0.2519
12752SOL     OW44860  11.714  11.180   9.986  0.5660 -1.1380  0.7316
12752SOL    HW144861  11.647  11.140   9.930  0.9980 -1.2096  0.2702
12752SOL    HW244862  11.786  11.117   9.987  1.0296 -0.6175  0.4430
12753SOL     OW44863   4.295   0.765  11.400  0.1275 -0.2309  0.5480
12753SOL    HW144864   4.310   0.784  11.307  0.4238 -2.1934  0.1468
12753SOL    HW244865   4.199   0.765  11.409 -0.0988  5.0601  1.4994
12754SOL     OW44866   2.529   5.784   5.211 -0.2057 -0.2170 -0.2455
12754SOL    HW144867   2.445   5.766   5.168 -1.0322 -0.9177  1.5565
12754SOL    HW244868   2.524   5.876   5.235 -0.0967 -0.0470 -0.8399
12755SOL     OW44869   1.479   0.282   4.252 -0.1965  0.7574 -0.3605
12755SOL    HW144870   1.561   0.238   4.272 -1.6536 -2.0817 -0.1992
12755SOL    HW244871   1.448   0.315   4.337 -0.4801 -0.5452  0.0641
12756SOL     OW44872  10.950  11.667  11.621 -0.3253 -0.8404  0.2367
12756SOL    HW144873  10.977  11.697  11.534 -2.5216  0.3606 -0.0861
12756SOL    HW244874  11.022  11.611  11.649  3.1859  3.0254  0.0137
12757SOL     OW44875   3.976   1.618   8.230 -0.1394  0.1044 -0.3959
12757SOL    HW144876   3.986   1.603   8.136 -0.3600 -1.2144 -0.2420
12757SOL    HW244877   4.063   1.603   8.266 -0.2267 -0.2236 -0.3115
12758SOL     OW44878  11.857   6.594   4.739 -0.3395  0.2737 -0.4383
12758SOL    HW144879  11.890   6.630   4.656 -1.0846  0.1060 -0.8169
12758SOL    HW244880  11.778   6.547   4.714  1.1428 -2.5873 -0.1575
12759SOL     OW44881   2.425  12.627   8.570  0.3423 -0.0568 -0.3314
12759SOL    HW144882   2.403  12.714   8.537  0.9431  0.3355  0.2653
12759SOL    HW244883   2.340  12.582   8.577 -0.2782  1.2479  1.4561
12760SOL     OW44884   9.949  12.350   5.274 -0.3611 -0.0713 -0.0035
12760SOL    HW144885   9.881  12.304   5.225  1.1158 -1.1697 -1.1086
12760SOL    HW244886   9.920  12.345   5.365 -1.7852 -0.4541 -0.4529
12761SOL     OW44887   1.966   4.073   5.211 -0.2360 -0.1841 -0.0879
12761SOL    HW144888   1.907   4.145   5.235  0.1538 -0.2116  0.9799
12761SOL    HW244889   2.042   4.083   5.268  0.7351 -0.2670 -1.3037
12762SOL     OW44890   3.375   0.313   7.534  0.4899  0.1569 -0.2510
12762SOL    HW144891   3.400   0.292   7.624 -1.2449  0.2778  0.3041
12762SOL    HW244892   3.401   0.405   7.523  0.4163  0.2424  0.2474
12763SOL     OW44893  10.755  12.726   9.088 -0.0749  0.1872  0.9135
12763SOL    HW144894  10.773  12.796   9.025  0.5416 -0.8312 -0.0802
12763SOL    HW244895  10.728  12.651   9.034 -1.3044 -0.1820  1.9911
12764SOL     OW44896   9.785   6.272   3.219  0.2342  0.2286 -0.1448
12764SOL    HW144897   9.762   6.197   3.165  1.2795  0.1658 -0.5332
12764SOL    HW244898   9.838   6.235   3.290  0.0848  0.4985  0.1131
12765SOL     OW44899  10.695   8.279   5.676 -0.4817  0.2957  0.5093
12765SOL    HW144900  10.617   8.224   5.671 -1.1069  1.1803  0.3703
12765SOL    HW244901  10.695   8.314   5.765  0.0305 -0.0790  0.6647
12766SOL     OW44902   4.432   2.554   0.957  0.9252 -0.3448 -0.8354
12766SOL    HW144903   4.437   2.644   0.924  2.3373 -0.1672 -0.2022
12766SOL    HW244904   4.346   2.548   0.999  1.4013  1.1893  0.4332
12767SOL     OW44905   3.731   2.208   6.079  0.1445  0.2409  0.1390
12767SOL    HW144906   3.723   2.121   6.118 -1.8601  0.5212  0.4441
12767SOL    HW244907   3.746   2.266   6.153  1.3463  0.1950 -0.0521
12768SOL     OW44908   3.644  11.106   0.940 -0.1953 -0.5164  0.5483
12768SOL    HW144909   3.693  11.166   0.995  0.7499  0.3613 -1.1750
12768SOL    HW244910   3.560  11.149   0.925  0.7686  0.8707 -1.3427
12769SOL     OW44911  11.045   6.209   3.204  0.0022 -0.0622 -0.0421
12769SOL    HW144912  10.971   6.184   3.259 -0.4780 -1.3828 -1.2298
12769SOL    HW244913  11.034   6.158   3.124  0.1621  2.4427 -1.7918
12770SOL     OW44914   4.661   3.303   0.652  0.9276  0.2187  0.7379
12770SOL    HW144915   4.605   3.377   0.631  0.1620 -0.1225  1.4685
12770SOL    HW244916   4.714   3.332   0.726  0.8785  0.1606  0.7966
12771SOL     OW44917   2.481   4.063   3.586  0.5034  0.5815 -0.5394
12771SOL    HW144918   2.540   4.124   3.629 -1.2604  0.5512  2.1315
12771SOL    HW244919   2.457   4.000   3.653  0.5917 -1.8670 -2.6429
12772SOL     OW44920  10.920  12.632   9.433 -0.3981 -0.9444  0.2431
12772SOL    HW144921  10.891  12.721   9.450 -0.0656 -0.5569 -1.1779
12772SOL    HW244922  10.855  12.577   9.478  0.4897 -0.0107  2.8314
12773SOL     OW44923  11.930   2.023   1.228 -0.1437  0.5609  0.2619
12773SOL    HW144924  11.877   2.094   1.264  0.3444  0.2610  1.6395
12773SOL    HW244925  12.012   2.027   1.277  0.1824 -0.4774 -0.1736
12774SOL     OW44926   6.689   3.048   4.134  0.4390  0.0252  0.6730
12774SOL    HW144927   6.738   2.969   4.157  0.7851  0.5699  1.9024
12774SOL    HW244928   6.756   3.114   4.118  0.1383  0.2403  0.2936
12775SOL     OW44929   2.135  11.423   6.434 -0.3475  0.3608  0.0397
12775SOL    HW144930   2.197  11.352   6.445  0.9556  1.1660 -1.6365
12775SOL    HW244931   2.139  11.472   6.516  0.7360  0.0106  0.2064
12776SOL     OW44932   1.561   7.610   5.130  0.4296  0.0846  0.1851
12776SOL    HW144933   1.467   7.607   5.147  0.3362 -1.4100 -0.4362
12776SOL    HW244934   1.570   7.664   5.052 -0.2855 -2.3388 -1.6942
12777SOL     OW44935   0.641  10.900   5.337 -0.1477 -0.5810  0.8135
12777SOL    HW144936   0.602  10.834   5.395  0.0470 -1.3221  0.1030
12777SOL    HW244937   0.735  10.883   5.339 -0.2739 -1.7596 -1.0810
12778SOL     OW44938   0.886   2.867   4.747 -0.3875  0.0774 -0.7403
12778SOL    HW144939   0.938   2.854   4.668 -1.0355  0.0844 -1.1742
12778SOL    HW244940   0.812   2.807   4.739  1.2351 -2.4525  1.4579
12779SOL     OW44941   9.579  11.237   3.081  0.1758 -0.1219  0.2860
12779SOL    HW144942   9.641  11.283   3.024 -0.8811  0.4381 -0.4498
12779SOL    HW244943   9.571  11.294   3.157  1.1492 -0.5873  0.7555
12780SOL     OW44944   3.102  10.927   5.488 -0.1156 -0.0370 -0.2591
12780SOL    HW144945   3.164  10.854   5.486 -1.2877 -1.0685 -0.4802
12780SOL    HW244946   3.037  10.900   5.552 -1.5422 -0.0451 -1.6441
12781SOL     OW44947   6.580   2.525  11.875 -0.0849  0.0834  0.3561
12781SOL    HW144948   6.510   2.462  11.859 -0.6575  0.3990  1.4808
12781SOL    HW244949   6.622   2.494  11.956  1.7144 -0.6440 -0.7957
12782SOL     OW44950  11.828   4.641  10.816  0.2189 -0.7009 -0.0014
12782SOL    HW144951  11.819   4.658  10.909  0.6012  1.0184 -0.2317
12782SOL    HW244952  11.921   4.623  10.803  0.9176  2.5044 -0.4386
12783SOL     OW44953  10.491   8.592  10.776  0.0752 -0.1335  0.0855
12783SOL    HW144954  10.573   8.629  10.811  0.6387 -1.0953 -0.1787
12783SOL    HW244955  10.520   8.522  10.717 -0.9553 -0.7080  0.2475
12784SOL     OW44956   0.515  11.252   4.405 -0.1781 -0.3458 -0.4804
12784SOL    HW144957   0.429  11.211   4.415  0.2883 -1.2039  0.0991
12784SOL    HW244958   0.538  11.236   4.313  0.1503 -1.7234 -0.1826
12785SOL     OW44959   0.557   7.717   1.570 -0.5096 -0.1183  0.4930
12785SOL    HW144960   0.563   7.731   1.664  0.0569  2.1264  0.1889
12785SOL    HW244961   0.635   7.758   1.534 -0.9073 -0.5708 -0.9967
12786SOL     OW44962  11.699   3.349   0.330 -0.3452  0.0609 -0.0462
12786SOL    HW144963  11.669   3.279   0.388  1.4517 -0.9127 -0.2184
12786SOL    HW244964  11.748   3.408   0.387  1.6470 -1.0335 -0.5395
12787SOL     OW44965   9.057   0.335   8.601  0.3525  0.0495  0.1528
12787SOL    HW144966   9.136   0.323   8.548  0.2719  0.1103  0.0173
12787SOL    HW244967   8.993   0.276   8.561  0.1648  0.4066 -0.0824
12788SOL     OW44968   5.462   5.843  12.538  0.0630  0.8679 -0.6241
12788SOL    HW144969   5.464   5.794  12.621  2.7600  0.0829 -1.0585
12788SOL    HW244970   5.411   5.922  12.558  1.0491  0.9377  1.9419
12789SOL     OW44971   6.497  12.456   2.760 -0.4668 -0.2093  0.4149
12789SOL    HW144972   6.450  12.528   2.717 -0.6632 -1.2426 -1.2210
12789SOL    HW244973   6.583  12.456   2.719 -0.5013 -0.9535  0.3329
12790SOL     OW44974   4.516   9.363   1.427  0.7314 -0.1488 -0.3662
12790SOL    HW144975   4.420   9.356   1.426  0.7657 -0.7909 -1.8682
12790SOL    HW244976   4.533   9.457   1.433 -0.0062  0.0249 -0.8605
12791SOL     OW44977   9.592  11.092   8.079 -0.2190 -1.3442  0.2838
12791SOL    HW144978   9.601  11.073   8.173  0.3544  0.8249  0.7376
12791SOL    HW244979   9.657  11.160   8.063 -3.0116  1.2991 -0.7437
12792SOL     OW44980  11.048   3.981  11.240 -0.0380 -0.4102 -0.4040
12792SOL    HW144981  11.015   3.955  11.326 -0.4563  2.2597  0.3509
12792SOL    HW244982  10.973   3.973  11.182 -0.0707 -1.1124 -0.2712
12793SOL     OW44983  12.312  10.228   2.394  0.2656  0.2076 -0.2086
12793SOL    HW144984  12.259  10.207   2.471 -0.5633 -0.3148 -0.9110
12793SOL    HW244985  12.390  10.269   2.430  0.7016 -1.6067  1.0398
12794SOL     OW44986   7.529   6.172  12.647  0.0015 -0.4887  0.2648
12794SOL    HW144987   7.615   6.131  12.659  1.2128  1.8032 -0.1602
12794SOL    HW244988   7.507   6.208  12.732 -0.9149 -1.6635  0.5549
12795SOL     OW44989   0.464  11.414   6.131  0.2296  0.1301  0.0469
12795SOL    HW144990   0.402  11.479   6.162  0.7308  0.8346 -0.3827
12795SOL    HW244991   0.500  11.374   6.210 -0.2324  0.2256  0.3064
12796SOL     OW44992  11.709   4.602   9.385 -0.2872  0.4212  0.0549
12796SOL    HW144993  11.762   4.664   9.435 -0.3385 -0.3428  1.0961
12796SOL    HW244994  11.773   4.542   9.347 -0.2484  1.0034 -0.8198
12797SOL     OW44995   1.191   8.953   1.306 -0.2515 -0.3079 -0.8931
12797SOL    HW144996   1.212   8.968   1.214 -0.4599  4.8192 -0.3924
12797SOL    HW244997   1.109   8.903   1.303  0.6163 -1.8116 -3.3234
12798SOL     OW44998   6.555   8.681   0.111  0.0534 -0.2491 -0.3232
12798SOL    HW144999   6.630   8.623   0.128 -1.3978 -1.7911  1.2765
12798SOL    HW245000   6.483   8.642   0.161 -1.0588  2.9419  0.7976
12799SOL     OW45001   3.370   2.810   3.642 -0.5441  0.3263  0.1330
12799SOL    HW145002   3.378   2.807   3.738  0.3082 -1.0763  0.0461
12799SOL    HW245003   3.358   2.903   3.622  1.4085  0.9305  1.4709
12800SOL     OW45004   1.920   1.905  12.142 -0.2305  0.0497  0.2591
12800SOL    HW145005   2.002   1.954  12.131 -0.7991  1.2305  1.0380
12800SOL    HW245006   1.873   1.953  12.210 -1.3841 -0.8686  0.1303
12801SOL     OW45007   8.672   5.074  12.112  0.4729  0.0022 -0.1939
12801SOL    HW145008   8.586   5.038  12.090  0.4750 -0.7473  0.9048
12801SOL    HW245009   8.665   5.096  12.205  1.4716 -0.0906 -0.0877
12802SOL     OW45010   9.562  12.047   2.216  0.3883  0.1408  0.0714
12802SOL    HW145011   9.518  12.066   2.133  0.3713  0.6532  0.1888
12802SOL    HW245012   9.515  11.972   2.252 -1.1781  1.3656  0.7297
12803SOL     OW45013   2.244   9.693  11.783 -0.2372 -0.2357  0.0695
12803SOL    HW145014   2.244   9.614  11.730 -2.8626  0.4415 -1.0930
12803SOL    HW245015   2.327   9.736  11.761  0.6153 -1.9853 -0.2879
12804SOL     OW45016  10.291   6.136  10.559  0.2150 -0.2132 -0.0000
12804SOL    HW145017  10.321   6.205  10.619  0.4905 -0.1967 -0.1549
12804SOL    HW245018  10.276   6.060  10.615  0.4477 -0.1905  0.0953
12805SOL     OW45019   9.540   8.689   0.175  0.4816  0.1224 -0.0609
12805SOL    HW145020   9.527   8.745   0.252 -1.2742  1.2557 -1.1172
12805SOL    HW245021   9.618   8.725   0.132 -0.5873  1.7843 -0.6979
12806SOL     OW45022   6.315   9.238  12.693  0.0493 -0.3130 -0.3413
12806SOL    HW145023   6.397   9.190  12.677  0.5839  0.7925 -1.0257
12806SOL    HW245024   6.336   9.329  12.672 -1.0798  0.1543  0.4827
12807SOL     OW45025   8.122  12.209   6.339  0.1896 -0.0718  0.3381
12807SOL    HW145026   8.113  12.140   6.274  1.5758  0.3955 -0.3757
12807SOL    HW245027   8.200  12.258   6.313  0.6105  0.3321  2.1635
12808SOL     OW45028   2.018   6.518   0.680  0.2323 -0.1037  0.3448
12808SOL    HW145029   1.956   6.465   0.731  0.3584 -0.8015 -0.2087
12808SOL    HW245030   2.097   6.465   0.677  0.2214 -0.0725 -0.5749
12809SOL     OW45031   0.927  12.515   6.345  0.0227 -0.0927  0.5864
12809SOL    HW145032   0.959  12.505   6.255 -2.1915  0.0887 -0.2943
12809SOL    HW245033   1.004  12.538   6.396  1.3079  0.0157 -1.3055
12810SOL     OW45034   1.255  12.348   7.099  0.0781 -0.7155  0.1646
12810SOL    HW145035   1.234  12.430   7.055  2.4668 -0.3548 -0.4613
12810SOL    HW245036   1.350  12.342   7.094  0.0201 -3.2681  0.7033
12811SOL     OW45037   6.932   7.034  10.642  0.1056 -0.5437  0.6437
12811SOL    HW145038   6.967   7.030  10.732  0.5447 -0.4540  0.4824
12811SOL    HW245039   6.843   7.000  10.649  0.7414 -2.2712  0.8008
12812SOL     OW45040   4.646   2.652   6.880 -0.4693  0.4864  0.6474
12812SOL    HW145041   4.670   2.592   6.950  2.3205  0.5483 -0.1439
12812SOL    HW245042   4.638   2.737   6.924 -0.6816  0.2020  1.1752
12813SOL     OW45043   9.918   2.035   0.105 -0.0986  0.2791  0.3665
12813SOL    HW145044   9.943   2.071   0.191  1.7957  2.1028 -0.8382
12813SOL    HW245045   9.852   2.096   0.073 -2.3959 -1.5785  1.3150
12814SOL     OW45046   0.120   9.823   7.324 -0.3130  0.0945 -0.4882
12814SOL    HW145047   0.198   9.841   7.377 -0.4158  0.8480 -0.5776
12814SOL    HW245048   0.069   9.762   7.377  0.0610  0.0536 -0.1677
12815SOL     OW45049   8.181  11.606   7.390 -0.1901 -0.0438  0.3858
12815SOL    HW145050   8.154  11.516   7.371  0.1417 -0.3064  1.1050
12815SOL    HW245051   8.113  11.661   7.350  0.1089 -0.5749 -0.8896
12816SOL     OW45052   8.188   8.792   9.806  0.4266 -0.3847 -0.1683
12816SOL    HW145053   8.134   8.869   9.828  0.0480 -0.5882 -0.3821
12816SOL    HW245054   8.276   8.827   9.798  0.1497  0.1573 -0.9744
12817SOL     OW45055   3.488  12.071   3.237  0.3192  0.0508  0.2287
12817SOL    HW145056   3.551  12.122   3.187  0.4006 -0.5743 -0.3170
12817SOL    HW245057   3.407  12.122   3.232  0.7786  0.8939  0.9947
12818SOL     OW45058  10.971   9.445   2.167  0.3332 -0.1784 -0.0099
12818SOL    HW145059  10.993   9.368   2.220  0.0366  0.0282  0.4173
12818SOL    HW245060  11.010   9.518   2.213  0.3671 -0.0365 -0.2627
12819SOL     OW45061   0.394   8.214   6.943  0.9041 -0.5083  0.4603
12819SOL    HW145062   0.402   8.205   7.038  0.9348  1.9173  0.7312
12819SOL    HW245063   0.343   8.137   6.916  1.6454 -1.7188  2.2837
12820SOL     OW45064   3.334   1.283   1.983  0.1874 -0.2380 -0.4929
12820SOL    HW145065   3.284   1.224   1.927  0.9617 -1.3412 -0.0441
12820SOL    HW245066   3.298   1.269   2.071 -1.2736  1.7484 -0.6956
12821SOL     OW45067   0.061   3.658   2.030  0.5359 -0.3526 -0.3769
12821SOL    HW145068   0.076   3.752   2.024  0.8221 -0.2874  1.1296
12821SOL    HW245069   0.045   3.631   1.939 -0.4306  1.2750 -0.7217
12822SOL     OW45070   0.317   9.282  12.330  0.1404 -0.4120  0.3612
12822SOL    HW145071   0.306   9.230  12.410 -1.4787 -1.2012 -0.3297
12822SOL    HW245072   0.344   9.219  12.264  0.3457  0.0242  0.0263
12823SOL     OW45073   3.277   3.947   5.386 -0.5555  0.2080 -0.1611
12823SOL    HW145074   3.296   3.934   5.479 -1.4458 -0.6443 -0.0832
12823SOL    HW245075   3.283   4.042   5.373  0.6045  0.2403  0.5253
12824SOL     OW45076   5.385   6.360   8.544  0.0826  0.4814  0.0218
12824SOL    HW145077   5.444   6.418   8.593  2.1114 -1.3142 -0.1764
12824SOL    HW245078   5.443   6.301   8.497 -1.9030 -0.8567 -0.8688
12825SOL     OW45079   3.553   4.179   4.655 -0.0528 -0.2206 -0.3457
12825SOL    HW145080   3.628   4.225   4.618 -0.6305  1.0988  0.0545
12825SOL    HW245081   3.586   4.092   4.677  0.6533 -0.5986 -2.6416
12826SOL     OW45082   0.336   6.831   4.382  0.5382  0.6908 -0.1852
12826SOL    HW145083   0.288   6.913   4.388  1.2534  1.0939  0.1930
12826SOL    HW245084   0.378   6.822   4.468  0.7687  0.1235 -0.3531
12827SOL     OW45085   3.375   1.060   4.391 -0.0385  0.3641  0.0864
12827SOL    HW145086   3.280   1.071   4.390 -0.0245  0.4844 -0.0722
12827SOL    HW245087   3.390   0.970   4.419 -0.1659  0.7689  1.5356
12828SOL     OW45088   7.509   7.447   5.371 -0.1635  0.3099  0.3838
12828SOL    HW145089   7.490   7.354   5.359  4.1370 -0.6522 -0.4489
12828SOL    HW245090   7.453   7.491   5.307 -1.9278 -1.6954  0.4429
12829SOL     OW45091   3.322   9.077  11.135  0.3903 -0.4669 -0.2251
12829SOL    HW145092   3.261   9.069  11.208 -0.1837 -0.6251 -0.7204
12829SOL    HW245093   3.404   9.104  11.176 -0.0638 -0.0382  0.4176
12830SOL     OW45094   8.364  12.258  12.162 -0.3613 -0.7533  1.0468
12830SOL    HW145095   8.450  12.298  12.159 -0.5273 -0.4306  0.4764
12830SOL    HW245096   8.352  12.220  12.075 -0.7461 -0.8999  1.1619
12831SOL     OW45097  10.795   2.521   2.467 -0.2455  0.4871  0.2425
12831SOL    HW145098  10.810   2.445   2.523  2.1838 -0.4696 -1.5464
12831SOL    HW245099  10.814   2.596   2.523  2.0768 -0.4346  0.8082
12832SOL     OW45100   3.484   0.591   9.853  0.3544 -0.5259  0.8866
12832SOL    HW145101   3.479   0.636   9.937  0.5026 -1.8920  1.6619
12832SOL    HW245102   3.500   0.499   9.876  0.6699 -0.8846 -0.6423
12833SOL     OW45103   4.841   3.747   9.153  0.1106 -0.1751 -0.6439
12833SOL    HW145104   4.750   3.719   9.137  0.3833 -0.3235 -2.1405
12833SOL    HW245105   4.892   3.667   9.143  0.3383 -0.3165  1.2947
12834SOL     OW45106  11.393   8.080   5.151  0.1500 -0.2004  0.0910
12834SOL    HW145107  11.392   8.134   5.229  1.0333  0.0358 -0.0511
12834SOL    HW245108  11.313   8.104   5.104 -0.8896 -1.0227  1.3541
12835SOL     OW45109   2.559   9.604   7.850 -0.1851  0.2562 -0.6026
12835SOL    HW145110   2.522   9.640   7.930  1.0878  0.4326 -0.0763
12835SOL    HW245111   2.534   9.511   7.851 -1.3484  0.5492 -0.7195
12836SOL     OW45112  10.800   8.631   5.024 -0.0422 -0.7276  0.3579
12836SOL    HW145113  10.884   8.652   5.064 -0.3337 -0.0615  0.6340
12836SOL    HW245114  10.780   8.706   4.969 -0.9979 -0.3539  1.1799
12837SOL     OW45115  11.717   3.855   1.141  0.0155  0.2161 -0.4130
12837SOL    HW145116  11.702   3.943   1.106 -0.2361  1.0591  1.6798
12837SOL    HW245117  11.665   3.851   1.221 -1.5039 -2.5404 -1.3738
12838SOL     OW45118   1.533   1.469   5.852  0.0257  0.5237 -0.4373
12838SOL    HW145119   1.548   1.406   5.923 -3.7884 -0.6562 -0.4595
12838SOL    HW245120   1.585   1.545   5.877  1.2048 -0.9475  2.0299
12839SOL     OW45121   7.946   8.192   4.306  0.4894  0.0530 -0.6861
12839SOL    HW145122   8.016   8.230   4.252 -0.0147 -0.6713 -1.8814
12839SOL    HW245123   7.890   8.267   4.328  2.7228  1.0797  2.1273
12840SOL     OW45124   2.473  10.704  12.055  0.1816 -0.1172  0.2239
12840SOL    HW145125   2.381  10.681  12.067 -0.4611  1.4650 -1.1727
12840SOL    HW245126   2.497  10.667  11.970 -0.2880  2.3654 -1.1049
12841SOL     OW45127  12.758   4.852   6.269 -0.2382  0.1138 -0.4362
12841SOL    HW145128  12.724   4.942   6.271 -3.3379 -0.9264 -0.2258
12841SOL    HW245129  12.769   4.834   6.175 -0.4064  0.4564 -0.5265
12842SOL     OW45130   6.625   6.418   1.948 -0.1428 -0.6594  0.2484
12842SOL    HW145131   6.576   6.500   1.957 -0.0056 -0.2056 -2.3598
12842SOL    HW245132   6.642   6.390   2.038  2.3486  3.6575  1.4028
12843SOL     OW45133  12.515   1.646   0.235  0.1424 -0.1562  0.3539
12843SOL    HW145134  12.580   1.635   0.305 -0.1831 -0.4695  0.6101
12843SOL    HW245135  12.431   1.638   0.279 -0.1632 -4.2509 -0.5425
12844SOL     OW45136   1.902   3.565   2.991 -0.2850 -0.5232 -0.2214
12844SOL    HW145137   1.919   3.507   3.065 -0.8379 -2.1947 -1.3270
12844SOL    HW245138   1.932   3.651   3.019 -0.1949 -1.1763  1.8070
12845SOL     OW45139   7.800   3.648   3.136 -0.5877 -0.0623  0.1751
12845SOL    HW145140   7.793   3.621   3.228  2.1306 -0.5516  0.3134
12845SOL    HW245141   7.765   3.737   3.135 -0.3722  0.0718  1.7607
12846SOL     OW45142  11.404  11.357   0.897 -0.0767  0.3163 -0.2405
12846SOL    HW145143  11.482  11.316   0.860  0.5816  0.5280  0.8439
12846SOL    HW245144  11.438  11.433   0.944 -0.9048  0.2727  0.4487
12847SOL     OW45145  11.166   1.269   6.149  0.0362  0.6202 -0.2854
12847SOL    HW145146  11.072   1.254   6.139 -0.1090  1.1178  0.2905
12847SOL    HW245147  11.173   1.330   6.223  0.8340  0.3076 -0.0954
12848SOL     OW45148  12.597   7.871   2.204  0.3172 -0.0712 -0.0252
12848SOL    HW145149  12.661   7.802   2.185 -0.4432 -1.3295  1.7004
12848SOL    HW245150  12.536   7.831   2.266  0.6166  2.5214  2.1626
12849SOL     OW45151   0.287   2.301   9.678 -0.1356 -0.3749 -0.3808
12849SOL    HW145152   0.266   2.262   9.763  2.9866 -0.3745  0.5160
12849SOL    HW245153   0.286   2.395   9.694 -2.6521 -0.1804 -1.2468
12850SOL     OW45154   8.253  11.710   9.700  0.5003  0.3495  0.7880
12850SOL    HW145155   8.202  11.632   9.676  2.2961 -0.8619  0.7464
12850SOL    HW245156   8.308  11.681   9.773  0.5359  1.8732  1.4058
12851SOL     OW45157   6.070  10.067   3.183  0.0214 -0.1478 -0.2002
12851SOL    HW145158   6.057  10.147   3.234 -2.5953 -0.4779 -0.2031
12851SOL    HW245159   6.140  10.020   3.228 -0.5865  0.6741  1.7036
12852SOL     OW45160   7.692   2.807   9.352 -0.0952  0.0873  0.0892
12852SOL    HW145161   7.663   2.732   9.404 -0.3260  1.2187  1.6367
12852SOL    HW245162   7.614   2.835   9.305 -0.1313 -0.3122 -0.0952
12853SOL     OW45163   1.466   2.897   4.071  0.6400  0.3701 -0.0602
12853SOL    HW145164   1.448   2.974   4.125  0.7844 -1.6488  3.1638
12853SOL    HW245165   1.458   2.928   3.981 -1.2649  3.6432  1.0618
12854SOL     OW45166   2.995   7.010   5.596  0.5029 -0.4449  0.3013
12854SOL    HW145167   2.942   6.934   5.620 -1.1702  1.0922  1.7288
12854SOL    HW245168   3.071   6.973   5.551  0.6121 -3.0897  2.4141
12855SOL     OW45169   8.621   8.988  11.417  0.0254 -0.2686  0.0567
12855SOL    HW145170   8.551   9.048  11.442 -0.0765 -0.4222  0.1412
12855SOL    HW245171   8.632   8.930  11.492  1.2748  0.6922  0.6588
12856SOL     OW45172   2.182   6.670  12.026 -0.0998 -0.2475  0.1213
12856SOL    HW145173   2.247   6.732  11.994 -2.9345  1.7627 -2.3665
12856SOL    HW245174   2.231   6.590  12.044  2.9579  1.0276 -1.7758
12857SOL     OW45175   6.844  11.025  11.548  0.4564 -0.0317  0.1333
12857SOL    HW145176   6.839  11.076  11.629  0.3308 -0.3456  0.3237
12857SOL    HW245177   6.832  10.934  11.575  0.0277 -0.1054 -0.2844
12858SOL     OW45178   2.158   0.709   3.728  0.0726 -0.4910 -0.1013
12858SOL    HW145179   2.215   0.634   3.746  3.3357  1.8668  0.3467
12858SOL    HW245180   2.179   0.735   3.639 -1.6651 -0.5310 -0.5700
12859SOL     OW45181   5.332   5.521   6.733 -0.4815  0.1507 -0.0329
12859SOL    HW145182   5.256   5.520   6.675 -0.1017 -1.1270 -0.5379
12859SOL    HW245183   5.317   5.449   6.794  0.3538 -0.1712 -0.1949
12860SOL     OW45184   7.516   2.083   0.103 -0.2374 -0.0876  0.1020
12860SOL    HW145185   7.537   2.131   0.183 -0.8138  2.0138 -0.9226
12860SOL    HW245186   7.588   2.022   0.092 -0.0931 -0.3651  2.1400
12861SOL     OW45187   5.939   2.899  10.082  0.3935 -0.3206 -0.0514
12861SOL    HW145188   5.931   2.819  10.133  1.4349 -0.4327 -0.0316
12861SOL    HW245189   5.859   2.948  10.100 -0.1687 -1.2767  0.0671
12862SOL     OW45190   8.742   0.599   2.510  0.1187 -0.4878  0.6795
12862SOL    HW145191   8.689   0.561   2.439  0.7384  0.5907 -0.4017
12862SOL    HW245192   8.825   0.621   2.468  0.4540  0.2958  1.7256
12863SOL     OW45193   2.744   3.693   3.648 -0.7575 -0.9958 -0.0415
12863SOL    HW145194   2.749   3.732   3.561  0.3933 -0.6522  0.1582
12863SOL    HW245195   2.826   3.645   3.658 -0.7107 -0.7391  0.9766
12864SOL     OW45196   3.839   5.433   9.150 -0.0327  0.1496 -0.3572
12864SOL    HW145197   3.812   5.436   9.242 -0.4783  1.0069 -0.5072
12864SOL    HW245198   3.935   5.428   9.154 -0.1141 -1.6223  0.1572
12865SOL     OW45199   4.909   7.268   1.617  0.4463  0.4432  0.3472
12865SOL    HW145200   4.826   7.290   1.574 -0.1113 -2.9256 -0.6400
12865SOL    HW245201   4.883   7.221   1.696  1.4840  1.9469  1.6231
12866SOL     OW45202   0.704   9.497   0.347 -0.1908 -0.3214 -0.2342
12866SOL    HW145203   0.734   9.443   0.274 -0.3520 -2.0138  0.9032
12866SOL    HW245204   0.768   9.481   0.417 -0.7490  0.2722  0.4339
12867SOL     OW45205   4.927   0.731   8.259  0.0453 -0.4136  0.0488
12867SOL    HW145206   4.886   0.645   8.268  0.0955 -0.2781  1.9926
12867SOL    HW245207   5.018   0.711   8.234 -0.3012 -0.8534 -0.8883
12868SOL     OW45208   2.301   0.220   5.445  1.0684  0.7448 -0.1186
12868SOL    HW145209   2.296   0.139   5.396 -2.7982  0.0243  1.1307
12868SOL    HW245210   2.339   0.195   5.529  0.0194  0.2084  0.2108
12869SOL     OW45211   2.624   2.837   8.470 -0.0701  0.1095  0.2110
12869SOL    HW145212   2.652   2.892   8.543  1.1668 -0.3389  0.0925
12869SOL    HW245213   2.581   2.897   8.409 -0.8571  0.5333  1.1631
12870SOL     OW45214  12.121  12.483   3.355 -0.6387  0.7540 -0.4008
12870SOL    HW145215  12.117  12.578   3.354  1.4630  0.9123 -1.1359
12870SOL    HW245216  12.133  12.460   3.447 -1.2548  1.1785 -0.2086
12871SOL     OW45217   1.880  11.776   2.257  0.1346 -0.3114 -0.7157
12871SOL    HW145218   1.790  11.767   2.225  0.0941 -0.9554 -0.4381
12871SOL    HW245219   1.906  11.687   2.280  0.0697  0.1542  1.2798
12872SOL     OW45220   6.355   5.991   5.914  0.0586 -0.0223 -0.1067
12872SOL    HW145221   6.278   5.979   5.970  0.2248  0.3216  0.1947
12872SOL    HW245222   6.329   6.061   5.853  0.2811  0.3859  0.2637
12873SOL     OW45223   8.359  10.354  10.628  0.2243 -0.1520 -0.0416
12873SOL    HW145224   8.317  10.359  10.542 -0.8372 -1.1647  0.3921
12873SOL    HW245225   8.292  10.383  10.689  1.5274  2.3344  0.3528
12874SOL     OW45226  12.247  10.019   0.184  0.0778  0.0487  0.0949
12874SOL    HW145227  12.299   9.940   0.197 -1.4864 -0.8850  0.9868
12874SOL    HW245228  12.308  10.082   0.145  1.5355 -1.3621 -0.0011
12875SOL     OW45229   9.090   5.264  11.761 -0.0714  0.3708  0.5766
12875SOL    HW145230   9.180   5.297  11.755 -0.4519  1.2381 -0.5703
12875SOL    HW245231   9.080   5.207  11.685 -0.5851  0.4925  0.5549
12876SOL     OW45232   5.570   2.973   4.072 -0.4327  0.5205 -1.2949
12876SOL    HW145233   5.630   3.005   4.004 -1.7401  0.0763 -2.7297
12876SOL    HW245234   5.562   2.880   4.053 -0.8103  0.3933 -0.4992
12877SOL     OW45235   6.861   6.090   6.420  0.5830 -0.6819  0.3528
12877SOL    HW145236   6.885   6.069   6.511  1.5791  1.4705  0.6681
12877SOL    HW245237   6.767   6.106   6.423  0.4248 -1.6395  0.7784
12878SOL     OW45238   3.796   4.068  10.070 -0.0166  0.4154  0.2391
12878SOL    HW145239   3.730   4.087  10.004  1.6173 -3.4524 -2.9438
12878SOL    HW245240   3.850   4.147  10.075  0.6061  0.5128 -4.3363
12879SOL     OW45241   0.634   9.904   8.289  0.1698  0.0180 -0.3665
12879SOL    HW145242   0.687   9.978   8.317 -0.4660  0.7021 -0.8937
12879SOL    HW245243   0.666   9.830   8.340  0.4824  0.7587  0.5483
12880SOL     OW45244   3.089   3.735   1.182 -0.4312 -0.0272  0.5760
12880SOL    HW145245   3.010   3.759   1.230  0.2569 -0.6350  2.0629
12880SOL    HW245246   3.120   3.655   1.225  0.4296 -0.3816 -0.6546
12881SOL     OW45247   0.040   2.820   6.587 -0.0865  0.3910  0.3919
12881SOL    HW145248   0.056   2.865   6.670 -1.1086 -0.1237  0.8798
12881SOL    HW245249   0.070   2.730   6.602  1.5412  0.7607 -0.4404
12882SOL     OW45250  11.114   6.388   5.473  0.2534 -0.3091  0.1476
12882SOL    HW145251  11.064   6.458   5.432  0.8691  0.7040  1.0614
12882SOL    HW245252  11.164   6.349   5.401 -1.9268 -1.4932 -0.8198
12883SOL     OW45253   6.983   4.430  10.372 -0.1768  1.0670 -0.4298
12883SOL    HW145254   6.898   4.456  10.409  0.0415  0.2901  0.6726
12883SOL    HW245255   6.961   4.388  10.289 -1.1620 -1.5231  1.0449
12884SOL     OW45256   2.272   4.438   1.934  0.3119  0.1615 -0.9688
12884SOL    HW145257   2.225   4.366   1.891  0.6558 -0.0893 -0.9296
12884SOL    HW245258   2.356   4.400   1.958  0.8892  0.8566 -1.8380
12885SOL     OW45259   8.194   9.479   0.404 -0.0386  0.3364  0.0250
12885SOL    HW145260   8.222   9.563   0.367 -0.3819  0.3641 -0.1726
12885SOL    HW245261   8.196   9.418   0.331  2.4099 -0.4009  0.5903
12886SOL     OW45262   4.341   1.700   7.063 -0.3501  0.1587 -0.7435
12886SOL    HW145263   4.416   1.744   7.024 -0.2452  0.8807  0.2400
12886SOL    HW245264   4.265   1.741   7.021 -0.2283  0.5815 -0.5593
12887SOL     OW45265   1.606   6.922   8.416 -0.3799  0.2622  0.1948
12887SOL    HW145266   1.643   6.855   8.358  1.5282 -0.5165  2.1573
12887SOL    HW245267   1.511   6.918   8.399 -0.2495 -2.2990 -0.4354
12888SOL     OW45268   9.428   4.690   5.885  0.8508  0.3889 -0.0417
12888SOL    HW145269   9.450   4.659   5.797 -0.4996  1.0674 -0.6516
12888SOL    HW245270   9.370   4.765   5.870  1.8949  1.5468  1.4186
12889SOL     OW45271  12.344  10.780   0.583  0.7142 -0.3004 -0.6854
12889SOL    HW145272  12.344  10.702   0.527  0.4961 -0.1474 -0.8960
12889SOL    HW245273  12.397  10.844   0.536  2.4352 -0.9057  0.3113
12890SOL     OW45274   3.194   1.469   1.123  0.0065 -0.5256 -0.3194
12890SOL    HW145275   3.241   1.387   1.110 -0.1231 -0.7372  0.4573
12890SOL    HW245276   3.255   1.525   1.171 -0.3490 -0.6316  0.2716
12891SOL     OW45277   9.437  11.011   7.844 -0.9310 -0.1910  0.6889
12891SOL    HW145278   9.493  11.016   7.921 -0.9225 -0.7237  0.7211
12891SOL    HW245279   9.494  11.038   7.772 -1.6644  3.1376  1.1551
12892SOL     OW45280  11.277   7.815   1.030 -0.3227  0.0195  0.3035
12892SOL    HW145281  11.220   7.751   1.072  0.6981  0.2011  2.0751
12892SOL    HW245282  11.218   7.880   0.991 -1.3783 -1.8330 -1.3899
12893SOL     OW45283   5.460   2.216   4.583 -0.4897  0.2694  0.2131
12893SOL    HW145284   5.536   2.164   4.556 -0.0136  0.6769  0.7517
12893SOL    HW245285   5.393   2.196   4.517 -0.4635 -1.3640  0.6315
12894SOL     OW45286   0.759   9.026   8.533  0.3864  0.4575  0.2748
12894SOL    HW145287   0.706   8.984   8.465 -0.0201 -0.1555  0.9488
12894SOL    HW245288   0.773   9.115   8.502 -0.1193  0.2998 -0.4220
12895SOL     OW45289   7.981   3.945   9.120  0.5397 -0.1009  0.4604
12895SOL    HW145290   8.017   3.868   9.075  0.2415  0.9072 -1.6136
12895SOL    HW245291   8.023   4.019   9.077 -1.4355  1.0009  0.3410
12896SOL     OW45292   3.052  10.849   5.024  0.3268 -0.3377  0.0729
12896SOL    HW145293   3.082  10.861   5.114 -1.1367 -2.4341  0.9179
12896SOL    HW245294   3.027  10.937   4.995  1.2400  0.4405  1.5249
12897SOL     OW45295   4.361   1.249   7.558 -0.1952  0.6040  0.0057
12897SOL    HW145296   4.304   1.176   7.534  0.3733 -0.1822  0.9855
12897SOL    HW245297   4.301   1.316   7.592 -0.7560  0.7661 -1.2386
12898SOL     OW45298   0.657  10.669   9.683  0.2716 -0.6515  0.0481
12898SOL    HW145299   0.693  10.630   9.763  0.5742 -2.2087 -0.7965
12898SOL    HW245300   0.734  10.686   9.628  0.0301 -0.0389 -0.1114
12899SOL     OW45301   7.128   8.087  11.353 -0.5772 -0.2166 -0.0807
12899SOL    HW145302   7.188   8.026  11.395  0.1306  0.0192 -0.7244
12899SOL    HW245303   7.044   8.042  11.354 -0.2334 -0.8769  0.1443
12900SOL     OW45304   8.743   5.077   9.886 -0.0223  0.0532  0.1963
12900SOL    HW145305   8.747   5.167   9.916 -0.4044  1.0185 -2.3717
12900SOL    HW245306   8.830   5.059   9.852  0.0426 -0.5409  0.6654
12901SOL     OW45307   5.288   9.795   2.196  0.2590  0.0249 -0.2340
12901SOL    HW145308   5.227   9.758   2.132 -0.2176  1.6290 -0.7482
12901SOL    HW245309   5.373   9.795   2.151 -0.0602  1.0832 -0.8772
12902SOL     OW45310   0.793   8.550  12.525  0.0216  0.1879 -0.0967
12902SOL    HW145311   0.723   8.507  12.477 -0.4904  0.4092  0.4313
12902SOL    HW245312   0.874   8.518  12.486 -0.3836  0.3969 -1.1192
12903SOL     OW45313   9.073   7.785   1.149  0.9380  0.1223  0.2138
12903SOL    HW145314   9.126   7.715   1.113  0.9591 -0.1067  0.6780
12903SOL    HW245315   8.996   7.741   1.185 -0.0000  0.5310 -1.2011
12904SOL     OW45316   5.349   7.589   1.966  0.1970 -0.4044 -0.5970
12904SOL    HW145317   5.286   7.602   2.036 -1.1168  3.7992 -2.3031
12904SOL    HW245318   5.435   7.595   2.009 -0.5738  1.9292  0.7341
12905SOL     OW45319   6.365   1.526   6.188 -0.3130 -0.1922 -0.1045
12905SOL    HW145320   6.269   1.523   6.191 -0.3679  0.5031 -0.9550
12905SOL    HW245321   6.385   1.566   6.104  0.7084  0.7828  0.5865
12906SOL     OW45322   4.359  10.793   6.991  1.0438  0.5191  0.2715
12906SOL    HW145323   4.365  10.887   6.977 -1.4056  0.5477 -1.1683
12906SOL    HW245324   4.267  10.772   6.975  1.3922 -2.0474  1.1254
12907SOL     OW45325   0.179   3.220  12.292 -0.1963  0.4985  0.1289
12907SOL    HW145326   0.259   3.202  12.341  0.1921 -0.9238 -0.9559
12907SOL    HW245327   0.168   3.144  12.235 -1.6461  1.2400 -0.6459
12908SOL     OW45328   8.513   9.348   9.887  0.3657  0.7466  0.0016
12908SOL    HW145329   8.573   9.401   9.834  1.3971 -0.9395 -0.5932
12908SOL    HW245330   8.450   9.314   9.824  1.6395 -1.3291 -0.2534
12909SOL     OW45331   1.728   1.621   1.804 -0.0863  0.8753 -0.4710
12909SOL    HW145332   1.697   1.692   1.748 -1.2118  0.2456 -0.6994
12909SOL    HW245333   1.648   1.574   1.828  0.5312  0.3083  0.5248
12910SOL     OW45334   6.311  11.294   4.545 -0.1578 -0.4675 -0.3352
12910SOL    HW145335   6.393  11.249   4.529  0.6923  0.1387  1.9510
12910SOL    HW245336   6.284  11.326   4.459  3.7307  2.1935 -0.8470
12911SOL     OW45337   6.723   8.888   0.622  0.2265  0.0623  0.1570
12911SOL    HW145338   6.630   8.911   0.613  0.1017 -0.6941 -0.5408
12911SOL    HW245339   6.763   8.966   0.661 -0.8625  0.0565  1.3439
12912SOL     OW45340   6.676   2.684   1.204  0.7563  0.6489  0.3385
12912SOL    HW145341   6.609   2.715   1.144 -0.2943  1.4087  1.8445
12912SOL    HW245342   6.721   2.615   1.156 -0.5452  0.6990 -1.0220
12913SOL     OW45343   3.570   2.029   5.515 -0.3144 -0.4298 -0.4671
12913SOL    HW145344   3.640   2.093   5.509 -0.7267  0.0951  0.1528
12913SOL    HW245345   3.552   2.004   5.424  0.3515 -0.2210 -0.6602
12914SOL     OW45346  11.744   9.859  11.813 -0.3671 -0.6707 -0.1341
12914SOL    HW145347  11.649   9.843  11.806 -0.6589  0.5837  0.7156
12914SOL    HW245348  11.772   9.803  11.885 -0.6222 -0.4346  0.1506
12915SOL     OW45349   2.287   5.552   2.241  0.4290  0.2939  0.0815
12915SOL    HW145350   2.218   5.499   2.201  3.0817 -1.6250 -2.3716
12915SOL    HW245351   2.269   5.641   2.211 -1.0109 -0.1273 -0.3902
12916SOL     OW45352   0.811   7.836  11.376 -0.2680  0.3793  0.1742
12916SOL    HW145353   0.890   7.818  11.324 -0.6519 -2.4982  0.4095
12916SOL    HW245354   0.835   7.911  11.430  2.0910  0.0221 -0.2330
12917SOL     OW45355  12.606   0.067   1.739 -0.3870 -0.2118 -0.1453
12917SOL    HW145356  12.658  -0.013   1.751  1.0802  0.3321 -2.2681
12917SOL    HW245357  12.664   0.126   1.691 -2.1776  1.3561 -0.4808
12918SOL     OW45358  10.645   5.125   6.990  0.2217  0.1254 -0.1248
12918SOL    HW145359  10.716   5.153   7.047  0.1952 -0.9664  0.4784
12918SOL    HW245360  10.684   5.122   6.902  0.8760 -0.2645  0.1680
12919SOL     OW45361   4.135   5.413   2.652  0.0755  0.5206  0.0151
12919SOL    HW145362   4.103   5.414   2.562 -1.3466  0.2050  0.4842
12919SOL    HW245363   4.110   5.327   2.685  3.1260 -0.5418 -0.1147
12920SOL     OW45364   8.451   0.413   6.318 -0.1647 -0.2785  0.0389
12920SOL    HW145365   8.492   0.453   6.396 -0.6048  0.2057  0.0334
12920SOL    HW245366   8.358   0.430   6.330 -0.1736  0.4605 -0.9607
12921SOL     OW45367   7.758   3.612   4.500 -0.3908  0.4482 -0.0051
12921SOL    HW145368   7.677   3.562   4.493 -0.1791  0.0899  0.0930
12921SOL    HW245369   7.811   3.564   4.563  0.2613  0.1801 -0.7386
12922SOL     OW45370   7.599   0.290  10.814  0.1030 -0.2802 -0.3206
12922SOL    HW145371   7.621   0.370  10.767 -2.0510  2.1013  2.3794
12922SOL    HW245372   7.604   0.314  10.907 -0.0390 -3.4792  0.6449
12923SOL     OW45373   5.180   6.274  11.581 -0.0770 -0.1873 -0.1070
12923SOL    HW145374   5.113   6.326  11.536  1.8265  0.4548 -2.3888
12923SOL    HW245375   5.135   6.195  11.610 -1.7001 -0.0511 -2.0988
12924SOL     OW45376   7.959  10.921  10.071  0.2630  0.4020  0.5137
12924SOL    HW145377   7.870  10.941  10.101  0.5469  1.2986  0.7711
12924SOL    HW245378   7.991  10.857  10.134  0.5752  1.6967  1.7334
12925SOL     OW45379  12.161   0.289  10.423 -0.0716 -0.0430 -0.2646
12925SOL    HW145380  12.194   0.231  10.491  2.3258 -0.3270 -1.5670
12925SOL    HW245381  12.110   0.231  10.365  2.1215 -0.9168 -1.4306
12926SOL     OW45382  11.032   3.820   0.844 -0.8089  0.9045 -0.2880
12926SOL    HW145383  11.083   3.786   0.771 -1.8893  1.7735 -1.4919
12926SOL    HW245384  11.060   3.911   0.854  0.1186  0.4973  1.1323
12927SOL     OW45385   3.287   8.021   7.304 -0.4172  0.2813  0.0555
12927SOL    HW145386   3.195   8.037   7.325 -0.5586  0.2641 -0.5327
12927SOL    HW245387   3.302   7.930   7.328 -1.0127 -0.2227 -1.4071
12928SOL     OW45388   4.321   2.784   2.161  0.0952  0.2293  0.5877
12928SOL    HW145389   4.307   2.705   2.108 -0.2870  0.7299 -0.0812
12928SOL    HW245390   4.261   2.849   2.123  0.1076  0.7214  1.3905
12929SOL     OW45391   5.231   2.291   5.871 -0.0452  0.1039  0.0607
12929SOL    HW145392   5.269   2.293   5.783 -0.2531 -1.2716 -0.0727
12929SOL    HW245393   5.284   2.227   5.919 -0.8056 -0.1878  0.5211
12930SOL     OW45394   7.104   6.210   3.896 -0.3201 -0.1987  0.3149
12930SOL    HW145395   7.022   6.183   3.936 -1.1404  0.5914 -0.7776
12930SOL    HW245396   7.130   6.289   3.944 -1.0853  0.5066 -0.3923
12931SOL     OW45397   8.718   9.580   1.118 -0.4825 -0.0053 -0.1803
12931SOL    HW145398   8.793   9.578   1.059 -1.2239 -0.6292 -1.1444
12931SOL    HW245399   8.701   9.673   1.132  1.0462  0.1617  0.8499
12932SOL     OW45400   7.017   5.122  11.876  0.2065  0.0250  0.2690
12932SOL    HW145401   6.996   5.214  11.892 -0.9095 -0.0214 -0.8356
12932SOL    HW245402   7.001   5.109  11.783 -0.0898 -1.3953  0.4902
12933SOL     OW45403   5.272   1.938   2.053  0.3009  0.8687 -0.3729
12933SOL    HW145404   5.248   1.971   2.140  0.0067 -0.4463  0.0651
12933SOL    HW245405   5.306   1.850   2.070  1.3021  1.0167 -1.4778
12934SOL     OW45406   5.028   2.919  11.464 -0.2619 -0.1205 -0.0705
12934SOL    HW145407   5.008   3.008  11.494  1.6854 -0.2831  2.0349
12934SOL    HW245408   4.946   2.872  11.472 -1.1268  1.2662 -0.3819
12935SOL     OW45409   7.378   0.381   8.575 -0.3506  0.2936  0.4463
12935SOL    HW145410   7.344   0.438   8.644 -2.3590  1.5454 -1.4510
12935SOL    HW245411   7.302   0.330   8.547  0.4699 -0.3565 -0.6817
12936SOL     OW45412  11.997   2.545   6.314 -0.2809  0.1415 -0.0084
12936SOL    HW145413  11.971   2.460   6.279 -0.5509  0.1647  0.1331
12936SOL    HW245414  12.088   2.554   6.289  0.1465 -0.7904  1.1272
12937SOL     OW45415   4.210  12.481  10.947 -0.2814 -0.2568 -0.3289
12937SOL    HW145416   4.141  12.536  10.986 -1.1750  0.3178 -2.5714
12937SOL    HW245417   4.275  12.544  10.915  0.7527 -0.7506  0.7100
12938SOL     OW45418   7.063   8.378   1.843  0.1123  0.1688  0.5214
12938SOL    HW145419   7.106   8.404   1.762  0.5943  0.4154  0.8506
12938SOL    HW245420   7.034   8.460   1.883  0.0615  0.0658  0.6983
12939SOL     OW45421   9.730   2.310   0.338  0.7919 -0.3618  0.2600
12939SOL    HW145422   9.799   2.370   0.309  0.6441 -0.4033 -0.1808
12939SOL    HW245423   9.738   2.309   0.433  1.7653 -0.7843  0.1864
12940SOL     OW45424   2.045   5.576  12.211  0.7692 -0.6235  0.1794
12940SOL    HW145425   1.974   5.569  12.275  1.3155 -0.1597  0.8383
12940SOL    HW245426   2.015   5.643  12.149  0.6161 -0.4583  0.4329
12941SOL     OW45427   4.625   9.900   4.576 -0.0809  0.0906 -0.7362
12941SOL    HW145428   4.701   9.846   4.557  0.6491  1.3893 -1.6699
12941SOL    HW245429   4.562   9.839   4.615  1.4805 -0.9792  0.2652
12942SOL     OW45430  10.551   9.066   0.265  0.1453  0.3115 -0.1059
12942SOL    HW145431  10.570   9.077   0.172 -3.2187  0.7580 -0.8796
12942SOL    HW245432  10.627   9.019   0.300  1.4317 -0.0571 -3.0931
12943SOL     OW45433   5.264  10.189   3.389  0.4090 -0.1277 -0.4739
12943SOL    HW145434   5.170  10.177   3.370  0.1174  0.7734  0.3463
12943SOL    HW245435   5.308  10.144   3.317 -0.6590 -0.2893 -1.0547
12944SOL     OW45436   4.379   9.598   6.025  0.0591 -0.2761 -0.1419
12944SOL    HW145437   4.362   9.591   5.931  1.0592  2.1969 -0.6055
12944SOL    HW245438   4.436   9.675   6.033  1.4057 -1.4087  2.3454
12945SOL     OW45439   5.389   4.851  10.762  0.1451  0.2942 -0.0109
12945SOL    HW145440   5.365   4.784  10.826  0.4819  0.0170 -0.1746
12945SOL    HW245441   5.484   4.851  10.761  0.1438  0.4758 -0.3296
12946SOL     OW45442  12.179   8.542   9.795 -0.2437  0.3921  0.1044
12946SOL    HW145443  12.189   8.460   9.843 -0.8420 -0.0875 -0.5686
12946SOL    HW245444  12.260   8.590   9.813  0.1935 -0.4152  0.3670
12947SOL     OW45445   3.925  12.271   5.797 -0.2746 -0.6258 -0.1826
12947SOL    HW145446   3.856  12.207   5.817 -0.3152  0.2127  2.7678
12947SOL    HW245447   3.902  12.348   5.848  3.1871 -0.5585  1.5376
12948SOL     OW45448  10.708   7.987   2.218 -0.1980  0.0825  0.4923
12948SOL    HW145449  10.654   8.011   2.143 -0.7850 -2.3770  0.0502
12948SOL    HW245450  10.658   7.919   2.263  2.7134 -2.8983 -0.3732
12949SOL     OW45451   7.062  11.452   1.313  0.1074  0.0421  0.0016
12949SOL    HW145452   6.991  11.410   1.265  0.1554  0.4260 -0.4042
12949SOL    HW245453   7.138  11.442   1.256  0.7834 -1.7980  1.1021
12950SOL     OW45454  12.192   2.451   8.509 -0.0671 -0.5590  0.2108
12950SOL    HW145455  12.278   2.491   8.497  0.4254 -1.0512  1.9530
12950SOL    HW245456  12.149   2.506   8.575 -1.4512  0.1802 -1.2298
12951SOL     OW45457  10.778  12.297  10.680  0.4096 -0.4041  0.1659
12951SOL    HW145458  10.848  12.241  10.713 -0.7065 -2.2067 -0.3669
12951SOL    HW245459  10.766  12.363  10.747 -0.7060 -2.9893  2.7293
12952SOL     OW45460   7.114   7.442   6.304  0.2564 -0.2489 -0.9107
12952SOL    HW145461   7.053   7.471   6.237 -0.7755 -0.1587  0.0376
12952SOL    HW245462   7.174   7.516   6.317  0.6119 -0.3599 -1.8893
12953SOL     OW45463   3.250   2.366   5.105 -0.4289 -0.2865 -0.4757
12953SOL    HW145464   3.166   2.376   5.061  0.0596 -1.2290 -1.6782
12953SOL    HW245465   3.234   2.300   5.172 -0.6333 -0.5439 -0.7732
12954SOL     OW45466  10.108   9.321   4.650  0.7093 -0.1316 -0.2699
12954SOL    HW145467  10.057   9.342   4.728 -0.3169  1.0304 -1.2136
12954SOL    HW245468  10.144   9.234   4.668 -0.6150 -0.4704  0.9467
12955SOL     OW45469   5.351  10.089   9.623 -0.0859  0.2185  0.0118
12955SOL    HW145470   5.285  10.021   9.606 -0.6748  0.9049 -0.4606
12955SOL    HW245471   5.387  10.109   9.537 -0.8998  1.4893 -0.0592
12956SOL     OW45472   9.533  11.812   6.118 -0.0563 -0.5333 -0.1533
12956SOL    HW145473   9.571  11.853   6.196  2.2594 -1.6725 -0.5766
12956SOL    HW245474   9.484  11.737   6.150 -0.6766  0.0751  0.3271
12957SOL     OW45475   9.800   0.896   5.413 -0.4365  0.6015  0.3220
12957SOL    HW145476   9.854   0.880   5.490 -2.4508 -0.0480  1.6824
12957SOL    HW245477   9.818   0.823   5.355  0.6833  0.7898  0.4167
12958SOL     OW45478   6.013   1.065   5.595  0.1878 -0.5963 -0.3964
12958SOL    HW145479   6.103   1.050   5.621  0.0373 -0.9273 -0.0609
12958SOL    HW245480   5.995   1.156   5.620  0.8963 -0.0175 -1.8451
12959SOL     OW45481   3.744   6.285   5.086  0.7425  0.0085  0.1396
12959SOL    HW145482   3.669   6.304   5.029  0.3762 -1.1412  0.2015
12959SOL    HW245483   3.741   6.190   5.097  0.9267  0.1780  1.9237
12960SOL     OW45484   2.144   4.944   4.759  0.5704 -0.2148 -0.3968
12960SOL    HW145485   2.060   4.959   4.715  0.9771 -0.2093 -1.1894
12960SOL    HW245486   2.163   5.027   4.802  0.5056  0.0166 -0.8059
12961SOL     OW45487  11.818   0.277   5.868 -0.3323 -0.2608 -0.0535
12961SOL    HW145488  11.889   0.282   5.804  2.2176 -0.6524  2.5408
12961SOL    HW245489  11.807   0.183   5.884  0.3579 -0.1067  1.3908
12962SOL     OW45490   7.077   4.843   6.375 -0.1426 -0.0206  0.2335
12962SOL    HW145491   7.098   4.896   6.298 -0.2643  0.8901  0.8090
12962SOL    HW245492   7.102   4.754   6.351  1.2842  0.4992 -0.2816
12963SOL     OW45493  12.513   0.425   0.195 -0.4504 -0.4104 -0.3299
12963SOL    HW145494  12.509   0.517   0.169 -0.7043 -0.0615  0.8977
12963SOL    HW245495  12.442   0.384   0.145 -0.5088  0.1095 -0.6850
12964SOL     OW45496   7.738   4.405   8.165  0.0072  0.3856  0.1866
12964SOL    HW145497   7.712   4.314   8.148  0.8775 -0.0939  1.2429
12964SOL    HW245498   7.719   4.451   8.084  1.3333 -1.1490 -1.0601
12965SOL     OW45499   4.006   9.998   3.377 -0.2571 -0.2180  0.1243
12965SOL    HW145500   4.075   9.944   3.339  0.3490 -0.7204  1.8520
12965SOL    HW245501   3.931   9.984   3.320  1.1498  0.7068 -2.0814
12966SOL     OW45502   5.996   5.004   7.334  0.1237  0.7011 -0.5032
12966SOL    HW145503   6.072   5.051   7.300 -0.6017  1.0150 -1.7469
12966SOL    HW245504   5.921   5.045   7.291 -0.7007 -0.1314  0.0939
12967SOL     OW45505  11.142   8.427   3.885 -0.2061 -0.2572 -0.6378
12967SOL    HW145506  11.219   8.370   3.883 -2.8909 -4.3958  1.2565
12967SOL    HW245507  11.088   8.397   3.812 -2.5124 -1.7250  1.4943
12968SOL     OW45508   6.064  12.058   0.721  0.7887  0.4447 -1.4199
12968SOL    HW145509   6.115  12.018   0.651  1.5546 -0.4876 -0.3723
12968SOL    HW245510   6.129  12.089   0.783  0.2576 -2.9916  1.2015
12969SOL     OW45511   4.876   5.121   6.991 -0.0365 -0.2642 -0.1264
12969SOL    HW145512   4.861   5.159   7.078 -0.3713  0.4483 -0.4879
12969SOL    HW245513   4.796   5.073   6.972  0.1786 -0.7232  0.1052
12970SOL     OW45514   8.617   8.116   4.236  0.1811 -0.1182  0.0636
12970SOL    HW145515   8.574   8.197   4.262  0.7228  0.2934 -0.3072
12970SOL    HW245516   8.612   8.060   4.314 -0.4984  0.1375  0.2045
12971SOL     OW45517   0.075   8.050   5.595 -0.2774 -0.5328 -0.0836
12971SOL    HW145518   0.133   8.034   5.670 -0.4325 -1.9313 -0.2393
12971SOL    HW245519   0.096   8.140   5.568 -0.3156  0.0532  1.6979
12972SOL     OW45520   8.273  11.128   7.890  0.4208 -0.5052 -0.5421
12972SOL    HW145521   8.287  11.151   7.981 -0.5653 -2.5842  0.1895
12972SOL    HW245522   8.180  11.142   7.875  0.5377 -0.3681 -1.1874
12973SOL     OW45523   4.065   1.320   2.968  0.1842  0.1162  0.3508
12973SOL    HW145524   3.993   1.258   2.956  0.6826 -0.5704  0.8505
12973SOL    HW245525   4.038   1.375   3.041  0.0559  0.0277  0.3702
12974SOL     OW45526  12.033   8.604   6.246 -0.3442  0.1634  0.0748
12974SOL    HW145527  12.037   8.667   6.175  0.8564  0.2989  0.2313
12974SOL    HW245528  12.122   8.604   6.283 -0.5143 -1.0732  0.5441
12975SOL     OW45529   3.880   1.529   8.708  0.0695 -0.3645 -0.0412
12975SOL    HW145530   3.901   1.459   8.770 -0.8476  0.7777  1.6219
12975SOL    HW245531   3.794   1.504   8.672  0.4866 -0.8954 -0.7043
12976SOL     OW45532   3.790  11.291   8.701  0.7894  0.4232  0.2252
12976SOL    HW145533   3.733  11.308   8.776 -1.2444 -3.3413 -0.2247
12976SOL    HW245534   3.738  11.319   8.625  0.1043 -1.6055 -0.0936
12977SOL     OW45535   7.739   8.626  10.319  0.7039  0.3726 -0.6314
12977SOL    HW145536   7.656   8.632  10.365  1.2362 -1.0848  0.6058
12977SOL    HW245537   7.800   8.677  10.372  0.9741  0.0040 -0.5791
12978SOL     OW45538  11.366   9.126   0.560 -0.6580 -0.0987  0.0959
12978SOL    HW145539  11.410   9.179   0.495  0.7208 -0.6001  0.5785
12978SOL    HW245540  11.343   9.187   0.630  2.3764 -0.2821  1.4063
12979SOL     OW45541  12.196   0.895  11.491  0.2158  0.1667  0.1600
12979SOL    HW145542  12.140   0.957  11.444 -1.3028 -0.0446  1.5704
12979SOL    HW245543  12.162   0.896  11.581  0.5669 -2.1819  0.3904
12980SOL     OW45544   1.711   4.812   4.876  0.1980  0.2083  0.8200
12980SOL    HW145545   1.722   4.783   4.785 -3.5436  1.5888 -0.2526
12980SOL    HW245546   1.791   4.860   4.895  0.9774  0.1706 -1.8758
12981SOL     OW45547   6.215   2.950   0.964  0.5228 -0.2323  0.2076
12981SOL    HW145548   6.181   2.862   0.945 -1.0934  0.2246  0.7768
12981SOL    HW245549   6.219   2.993   0.878  1.3678 -0.8585 -0.0791
12982SOL     OW45550   0.665   6.653   4.757  0.0228 -0.0547 -0.6464
12982SOL    HW145551   0.646   6.562   4.783 -0.3591 -0.4999 -2.3757
12982SOL    HW245552   0.754   6.669   4.790  1.0986 -1.9345 -2.3832
12983SOL     OW45553   1.618   2.892   6.583 -0.0845  0.4705  0.3255
12983SOL    HW145554   1.602   2.806   6.622  0.6951 -0.0789 -0.5119
12983SOL    HW245555   1.586   2.954   6.648  2.4172 -0.3473  2.5630
12984SOL     OW45556   1.569   6.678   7.793  0.2319 -0.3317  0.3367
12984SOL    HW145557   1.598   6.635   7.712 -1.9367 -1.5071  0.0992
12984SOL    HW245558   1.554   6.769   7.767  0.8210 -0.3955 -0.2543
12985SOL     OW45559  11.387   3.556   1.118 -0.3404 -0.4244 -0.0621
12985SOL    HW145560  11.381   3.643   1.158  0.0874 -0.8752  1.0203
12985SOL    HW245561  11.417   3.499   1.189  0.4089 -1.2650 -1.0219
12986SOL     OW45562   7.339  12.316   0.068 -0.3622  0.1156 -0.0980
12986SOL    HW145563   7.279  12.250   0.104  0.7024 -0.5058  0.5669
12986SOL    HW245564   7.414  12.265   0.037  0.4739  1.0139  0.4224
12987SOL     OW45565   9.724  10.905   5.948  0.5414 -0.2123  0.8377
12987SOL    HW145566   9.637  10.945   5.950  0.8018  0.5172 -0.7773
12987SOL    HW245567   9.776  10.958   6.009  0.3222  0.5698  0.3595
12988SOL     OW45568  11.971  12.604   2.288  0.0615 -0.2002  0.3412
12988SOL    HW145569  12.044  12.623   2.348 -0.0560 -0.9388  0.7413
12988SOL    HW245570  11.976  12.672   2.221 -0.8409  1.6763  2.0970
12989SOL     OW45571   0.594   8.990   1.563 -0.3108 -0.9818 -0.7749
12989SOL    HW145572   0.602   9.048   1.488  3.0908 -0.0238  0.1555
12989SOL    HW245573   0.631   8.907   1.533  1.0751 -0.5912 -0.2249
12990SOL     OW45574   2.909   7.159   4.661  0.1026  0.4031  0.3056
12990SOL    HW145575   2.967   7.083   4.652  0.0878  0.4504 -0.2274
12990SOL    HW245576   2.924   7.191   4.750 -0.7137 -0.9009  0.9555
12991SOL     OW45577   1.040  12.609   5.841  0.3755 -0.1167  0.3870
12991SOL    HW145578   1.031  12.566   5.756 -0.5074  1.3824 -0.3129
12991SOL    HW245579   1.062  12.700   5.820  0.6771  0.1612  1.7861
12992SOL     OW45580   0.908   9.032   3.218  0.1966  0.6364 -0.0823
12992SOL    HW145581   0.888   9.100   3.153  0.7295  1.2974  0.4347
12992SOL    HW245582   0.855   9.057   3.295 -0.7471 -0.3648 -0.3759
12993SOL     OW45583   5.989  12.681   7.444  0.0900 -0.2381 -0.1558
12993SOL    HW145584   6.000  12.764   7.489 -1.4021  0.9526 -1.8728
12993SOL    HW245585   6.054  12.683   7.373 -1.1306  0.2975 -1.2925
12994SOL     OW45586  11.134   0.591   5.984 -0.5076  0.3373  0.2897
12994SOL    HW145587  11.064   0.621   5.926 -0.4571  1.6877  0.8851
12994SOL    HW245588  11.192   0.667   5.993  1.5614 -0.9917 -0.8887
12995SOL     OW45589  11.328   7.514   1.253  0.1038  0.0309  0.6595
12995SOL    HW145590  11.330   7.581   1.322 -0.7032 -0.6847  1.4060
12995SOL    HW245591  11.405   7.461   1.269 -0.6102 -0.7403  1.6670
12996SOL     OW45592   3.488   5.232   6.251  0.0342  0.2241 -0.0879
12996SOL    HW145593   3.527   5.203   6.333  2.2443  1.7458 -0.5017
12996SOL    HW245594   3.448   5.316   6.272 -1.3890 -0.4175 -0.1177
12997SOL     OW45595  11.679   3.135  10.599 -0.1408  0.3057  0.3303
12997SOL    HW145596  11.651   3.109  10.511 -3.9513 -1.1657  1.7665
12997SOL    HW245597  11.735   3.063  10.628 -0.3927 -0.1380 -0.2434
12998SOL     OW45598   0.007   1.752   8.438 -0.2432  0.0126  0.0147
12998SOL    HW145599   0.068   1.753   8.512 -0.2844  2.2843  0.0796
12998SOL    HW245600  -0.051   1.677   8.456  0.2608  0.0190  1.8423
12999SOL     OW45601   6.399   3.074  10.836 -0.2063 -0.3191 -0.1475
12999SOL    HW145602   6.303   3.074  10.840 -0.2011  0.3777  0.0078
12999SOL    HW245603   6.426   3.044  10.923 -0.2864 -3.6499 -1.1142
13000SOL     OW45604   6.927   2.109   1.582  0.1246 -0.2021  0.1883
13000SOL    HW145605   6.993   2.163   1.626 -0.8743  1.5087 -0.3356
13000SOL    HW245606   6.844   2.134   1.623 -0.6868  0.6208 -1.8410
13001SOL     OW45607   8.993   8.957   6.794 -0.0865  0.5147 -0.4112
13001SOL    HW145608   8.915   8.995   6.753 -0.9012 -1.3159 -0.6103
13001SOL    HW245609   8.971   8.950   6.886  0.0590  0.4843 -0.3784
13002SOL     OW45610   2.705  11.001   4.334 -0.7364  0.2665  0.2667
13002SOL    HW145611   2.624  11.027   4.377 -1.8940 -2.0766 -0.3439
13002SOL    HW245612   2.683  10.999   4.241  0.6515  1.5713 -0.1355
13003SOL     OW45613   0.932   7.035   6.486 -0.3803 -0.6660 -0.0789
13003SOL    HW145614   0.986   6.961   6.460  0.1686  0.3425 -2.0502
13003SOL    HW245615   0.889   7.063   6.405  0.0679  1.6413  0.4027
13004SOL     OW45616   1.576   7.516   9.324  0.3149  0.5406  0.0731
13004SOL    HW145617   1.549   7.606   9.339  0.4894  0.8079 -1.0907
13004SOL    HW245618   1.494   7.467   9.316  0.0999  1.1420 -2.2587
13005SOL     OW45619   9.649  12.415   4.349  0.1618  0.0569 -0.2003
13005SOL    HW145620   9.722  12.354   4.341 -0.2404 -0.2941 -1.3304
13005SOL    HW245621   9.584  12.369   4.401  0.6799  0.3230  0.7032
13006SOL     OW45622  12.631   9.091  11.097 -0.0916  0.4136  0.3007
13006SOL    HW145623  12.585   9.171  11.070  1.0161  0.9153 -0.1900
13006SOL    HW245624  12.659   9.109  11.187 -0.2619  0.3873  0.3588
13007SOL     OW45625   3.402   3.124   4.358 -0.2139  0.0173  0.2142
13007SOL    HW145626   3.316   3.107   4.320  0.3591  1.2741 -1.8295
13007SOL    HW245627   3.462   3.071   4.305  0.4400  0.3346  0.6271
13008SOL     OW45628   6.406  11.510   3.986  0.2787 -0.0512  0.5241
13008SOL    HW145629   6.423  11.599   4.016  2.0198 -0.0907 -0.2288
13008SOL    HW245630   6.487  11.483   3.943 -0.8354 -1.3364 -0.8845
13009SOL     OW45631   6.154   8.413   5.231 -0.2143  0.6158 -0.8998
13009SOL    HW145632   6.144   8.322   5.259 -2.3241  1.3054  0.8261
13009SOL    HW245633   6.196   8.406   5.145 -1.3096 -2.0567 -1.3431
13010SOL     OW45634   9.417   7.125  10.001 -0.1053  0.6650 -0.9070
13010SOL    HW145635   9.404   7.030  10.013  1.5874  0.5051 -0.0435
13010SOL    HW245636   9.391   7.141   9.911 -3.5193  0.0047 -0.1998
13011SOL     OW45637   0.244   2.819   5.543  0.0983 -0.2529 -0.8032
13011SOL    HW145638   0.217   2.862   5.462  0.1294 -0.6784 -1.0419
13011SOL    HW245639   0.161   2.794   5.585  0.0743  0.2899 -0.5285
13012SOL     OW45640   7.331   3.995  12.752  0.1766  0.0969  0.3895
13012SOL    HW145641   7.323   3.938  12.829  0.7575 -0.1445  0.2775
13012SOL    HW245642   7.415   4.039  12.764  0.1037  0.3266  0.0685
13013SOL     OW45643   2.396   2.204   2.765  0.0563 -0.0274 -0.1819
13013SOL    HW145644   2.475   2.257   2.761 -0.6768  1.0011 -2.0494
13013SOL    HW245645   2.386   2.169   2.676 -1.9079  0.3911 -0.1683
13014SOL     OW45646   0.065   9.406   3.588 -0.5467 -0.1212 -1.0303
13014SOL    HW145647   0.081   9.359   3.506  2.1453 -1.0583 -0.1014
13014SOL    HW245648   0.134   9.473   3.591  0.1014 -0.7999  0.8853
13015SOL     OW45649   1.666   2.733   8.579  1.0118  0.1852  0.1544
13015SOL    HW145650   1.603   2.679   8.532  0.6844 -0.1504  0.9703
13015SOL    HW245651   1.681   2.687   8.662  0.2745  1.6251  1.1278
13016SOL     OW45652  10.690   9.183  11.707 -0.1743  1.0018 -0.0738
13016SOL    HW145653  10.737   9.232  11.639  0.2177 -2.5416 -2.6624
13016SOL    HW245654  10.601   9.174  11.672  0.2643 -1.6384 -0.7438
13017SOL     OW45655   5.483   1.976   3.727 -0.2597 -0.2059  0.0304
13017SOL    HW145656   5.516   1.887   3.740  1.4666  0.0402 -2.1159
13017SOL    HW245657   5.389   1.964   3.714 -0.2189 -1.5831  0.7754
13018SOL     OW45658   7.663   6.917   2.971  0.0721  0.0967  0.1150
13018SOL    HW145659   7.571   6.915   2.996  0.2273  0.8617  0.7901
13018SOL    HW245660   7.697   6.832   2.997 -0.7785 -0.8209 -1.5709
13019SOL     OW45661   2.130   7.069   5.799 -0.4539 -0.0987 -0.4376
13019SOL    HW145662   2.120   6.984   5.841  1.3219 -0.9326 -1.6103
13019SOL    HW245663   2.192   7.054   5.728 -0.0813  2.1942 -0.6685
13020SOL     OW45664   4.872  11.290   3.889 -0.8791  0.1321 -0.4818
13020SOL    HW145665   4.802  11.225   3.884 -2.0091  1.3767 -1.9374
13020SOL    HW245666   4.863  11.341   3.808  0.5619  1.4955  0.1623
13021SOL     OW45667   2.565   8.502   0.447 -0.0692 -0.1785 -0.2337
13021SOL    HW145668   2.491   8.488   0.388  0.4579  0.3264 -1.0343
13021SOL    HW245669   2.526   8.544   0.524 -0.8509 -1.3521  0.0361
13022SOL     OW45670   5.081  11.879   9.008 -0.4091 -0.1222 -0.2055
13022SOL    HW145671   5.073  11.817   8.936  2.2216  0.0091 -0.6875
13022SOL    HW245672   5.094  11.825   9.086  0.0136 -0.2203 -0.3411
13023SOL     OW45673   5.250   5.197   3.385  0.2074 -0.3974 -0.0806
13023SOL    HW145674   5.332   5.239   3.412  0.0227  0.2447 -0.4795
13023SOL    HW245675   5.277   5.114   3.347  0.9411  0.7821 -2.3520
13024SOL     OW45676  12.152  11.202  10.992 -0.0788  0.3353 -0.4015
13024SOL    HW145677  12.134  11.292  10.967  0.6729  0.7676  0.5626
13024SOL    HW245678  12.243  11.187  10.967 -0.1465 -0.1005 -0.3989
13025SOL     OW45679   6.211   3.857   6.572 -0.7498  0.2701 -0.2447
13025SOL    HW145680   6.190   3.900   6.489 -0.6743  2.7917  0.9469
13025SOL    HW245681   6.129   3.816   6.600 -0.9287 -0.0778 -1.2527
13026SOL     OW45682   6.656   7.746  10.354  0.0948  0.2709  0.5302
13026SOL    HW145683   6.649   7.776  10.264 -0.7385  1.4278  0.9524
13026SOL    HW245684   6.728   7.682  10.353  0.6921  0.9310 -0.7609
13027SOL     OW45685   5.391  10.794   5.619  0.4085  0.4188 -0.1982
13027SOL    HW145686   5.358  10.768   5.533 -1.0792  0.4754  0.3174
13027SOL    HW245687   5.334  10.867   5.645  0.8960  0.4592  0.7906
13028SOL     OW45688   0.085   1.855   9.375  0.5662 -0.2289  0.6368
13028SOL    HW145689   0.022   1.840   9.304  0.7517  1.0781  0.1608
13028SOL    HW245690   0.033   1.890   9.447  0.4014 -1.4146  1.1130
13029SOL     OW45691   2.685   5.301  11.934 -0.1510 -0.1886  0.4546
13029SOL    HW145692   2.612   5.343  11.978  0.5308  1.5669 -0.0179
13029SOL    HW245693   2.762   5.325  11.985  0.4627  0.5804 -0.7742
13030SOL     OW45694   6.756   8.700   4.962 -0.4196  0.2798 -0.2153
13030SOL    HW145695   6.712   8.616   4.975 -1.7302  0.9937  0.0920
13030SOL    HW245696   6.743   8.747   5.044  1.5640  0.2572  0.1523
13031SOL     OW45697  12.703   9.859   6.925  0.0759  0.0042  0.3918
13031SOL    HW145698  12.722   9.919   6.853 -0.1243  0.9954  1.1369
13031SOL    HW245699  12.749   9.897   7.000 -1.5168  0.2202  1.2968
13032SOL     OW45700   9.681   5.891  10.340 -0.1472 -0.5100 -0.1259
13032SOL    HW145701   9.592   5.895  10.305 -0.2336  0.1717  0.1593
13032SOL    HW245702   9.702   5.798  10.343 -0.7291 -0.6524 -0.5060
13033SOL     OW45703   5.700   7.293   3.091 -0.9261 -0.2101  0.0793
13033SOL    HW145704   5.662   7.376   3.121 -1.0319 -0.9441  2.0956
13033SOL    HW245705   5.782   7.285   3.140 -0.8616 -1.2516 -0.1872
13034SOL     OW45706   0.877   6.133  11.491  0.1035  0.1081 -0.0069
13034SOL    HW145707   0.830   6.088  11.561 -1.4686  1.9080  0.1740
13034SOL    HW245708   0.893   6.221  11.527  0.0928  0.7673 -1.5550
13035SOL     OW45709  12.696  11.573   5.950  0.2013 -0.2458  0.0661
13035SOL    HW145710  12.650  11.537   5.874  0.5989 -3.1951  1.1236
13035SOL    HW245711  12.642  11.647   5.977 -1.2712 -0.6359 -1.6066
13036SOL     OW45712   9.002   1.484   8.306  0.5727 -0.4217 -0.3464
13036SOL    HW145713   9.075   1.497   8.245  1.1590 -0.2571  0.3890
13036SOL    HW245714   9.038   1.504   8.392 -0.4752  0.1580 -0.0263
13037SOL     OW45715   6.609   8.178   8.603  0.3442 -0.2197  0.4471
13037SOL    HW145716   6.626   8.086   8.582  0.2954 -0.4500  1.3870
13037SOL    HW245717   6.519   8.179   8.635 -0.1675  0.3991 -0.9059
13038SOL     OW45718  11.761  11.985   7.181 -0.3606 -0.0404  0.1722
13038SOL    HW145719  11.763  11.972   7.086  1.3399 -0.1075  0.1696
13038SOL    HW245720  11.755  11.896   7.217  2.1795 -0.3177  0.0999
13039SOL     OW45721   3.775   0.032   1.620  0.1637 -0.0504  0.2932
13039SOL    HW145722   3.761   0.125   1.641 -0.7907  0.0488 -0.6868
13039SOL    HW245723   3.849   0.031   1.561 -0.1834  0.1547 -0.1508
13040SOL     OW45724   0.774  10.620   0.811  0.4250  0.5376 -0.1101
13040SOL    HW145725   0.695  10.584   0.850  1.1192 -0.9263  0.0106
13040SOL    HW245726   0.742  10.683   0.747 -0.8004  0.8135  0.7406
13041SOL     OW45727   3.226   3.516   8.711  0.2601  0.0879  0.3831
13041SOL    HW145728   3.172   3.457   8.764 -0.1076 -0.2951 -0.3943
13041SOL    HW245729   3.182   3.518   8.626  0.4775  1.2039  0.2838
13042SOL     OW45730   6.642  10.512   8.840 -0.7900 -0.1051  0.2506
13042SOL    HW145731   6.703  10.563   8.787 -0.3602  0.0733  0.9013
13042SOL    HW245732   6.696  10.475   8.910 -1.1661 -1.1320  0.0136
13043SOL     OW45733  12.278   1.511   6.992  0.5454 -0.0372  0.3263
13043SOL    HW145734  12.257   1.561   7.070 -0.5048  0.5003 -0.2778
13043SOL    HW245735  12.193   1.482   6.959  1.0129 -0.6779 -0.3409
13044SOL     OW45736   7.936   1.312   7.691  0.3506  0.4548  0.4689
13044SOL    HW145737   7.985   1.341   7.769  1.3609 -1.5210  0.6197
13044SOL    HW245738   7.960   1.376   7.624  2.6636 -0.0337  0.7174
13045SOL     OW45739   7.775   4.761   1.686  0.0353  0.2171 -0.4599
13045SOL    HW145740   7.778   4.687   1.625 -2.5444  0.2607 -0.7516
13045SOL    HW245741   7.719   4.826   1.643 -2.0387  0.1836  1.9788
13046SOL     OW45742   9.753  12.208  11.566  0.2854 -0.3000 -0.0371
13046SOL    HW145743   9.833  12.244  11.527 -1.4679  3.5990 -0.4559
13046SOL    HW245744   9.756  12.238  11.657 -0.9107  0.3621 -0.2026
13047SOL     OW45745  11.277   0.953   8.832 -0.2153 -0.1773  0.6040
13047SOL    HW145746  11.314   0.949   8.920 -1.9414 -0.8386  1.3329
13047SOL    HW245747  11.213   0.882   8.829 -1.1515  0.6756 -0.7207
13048SOL     OW45748   1.900   4.411   4.782  0.2599 -0.7690 -0.0921
13048SOL    HW145749   1.869   4.502   4.784 -2.0926 -1.5119  0.3262
13048SOL    HW245750   1.910   4.391   4.689  1.8065  0.1764 -0.1735
13049SOL     OW45751   6.774   0.927   6.539  0.0867  0.5922  0.2900
13049SOL    HW145752   6.805   0.916   6.449 -0.0770  0.7672  0.2107
13049SOL    HW245753   6.853   0.939   6.591  0.2676 -0.6871  0.3455
13050SOL     OW45754  10.619   4.999  11.952 -0.0271  0.1527  0.5186
13050SOL    HW145755  10.631   5.061  11.881  0.5258  0.1124  0.5778
13050SOL    HW245756  10.686   5.022  12.016  1.3615 -1.6132 -0.2331
13051SOL     OW45757   6.209   5.751   6.929 -0.4540 -0.6501 -0.1235
13051SOL    HW145758   6.191   5.747   6.835 -0.2831  0.5013 -0.2194
13051SOL    HW245759   6.180   5.666   6.963 -1.2736 -0.7672 -1.0858
13052SOL     OW45760   1.302  10.636   0.166  0.2222  0.4922 -0.1378
13052SOL    HW145761   1.279  10.547   0.192 -1.6020  1.1062  0.5542
13052SOL    HW245762   1.320  10.681   0.248 -2.7999  1.7254 -0.0164
13053SOL     OW45763   1.082  11.680  10.466 -0.2119 -0.0677 -0.2850
13053SOL    HW145764   0.999  11.651  10.505 -1.4098  2.0075 -1.0915
13053SOL    HW245765   1.102  11.614  10.400 -2.1443  0.1794 -1.2070
13054SOL     OW45766   3.029   1.880   8.565 -1.0097 -0.1647  0.6063
13054SOL    HW145767   3.121   1.861   8.583 -0.8709 -0.3594 -0.2682
13054SOL    HW245768   3.020   1.974   8.583 -0.7455 -0.2339  1.1028
13055SOL     OW45769  10.374   6.898   2.083  0.0314  0.5230 -1.0157
13055SOL    HW145770  10.371   6.958   2.158  0.2633  0.9147 -1.3161
13055SOL    HW245771  10.439   6.833   2.107 -1.7520 -0.9039  0.2589
13056SOL     OW45772   1.759   8.293   0.583  0.1368  0.1525 -0.1316
13056SOL    HW145773   1.845   8.262   0.553 -0.0760 -0.2157 -0.3647
13056SOL    HW245774   1.772   8.313   0.675  1.3142  3.0845 -0.8099
13057SOL     OW45775   5.355   2.972   3.427  0.6419 -0.0006  0.1684
13057SOL    HW145776   5.266   2.972   3.461  0.5944  0.1808  0.0443
13057SOL    HW245777   5.394   2.892   3.462  0.0623 -0.7102 -0.7513
13058SOL     OW45778   9.533   1.653   0.178  0.1665  0.3758 -0.1404
13058SOL    HW145779   9.625   1.656   0.150  0.1539  1.3461 -0.1093
13058SOL    HW245780   9.522   1.565   0.214  0.9465  0.0778 -0.6096
13059SOL     OW45781   5.892   7.379   8.273  0.7302  0.0578 -0.3314
13059SOL    HW145782   5.815   7.422   8.311  0.6161  2.1325 -2.6072
13059SOL    HW245783   5.962   7.394   8.336 -0.2113  0.2119  0.7051
13060SOL     OW45784  12.513  11.274   3.282 -1.2256  0.1013  0.1507
13060SOL    HW145785  12.598  11.310   3.256  0.5177 -1.0495  3.5884
13060SOL    HW245786  12.449  11.336   3.248  1.2724  3.3563  0.8588
13061SOL     OW45787   6.512   3.717   4.692  0.3286 -0.0138  0.2021
13061SOL    HW145788   6.537   3.802   4.727  0.9905  0.2175 -0.7862
13061SOL    HW245789   6.469   3.737   4.609  0.2254 -0.6314  0.1006
13062SOL     OW45790   1.641   8.192  10.551  0.6441  0.0897 -0.0399
13062SOL    HW145791   1.666   8.191  10.459  0.7881 -1.3055 -0.0130
13062SOL    HW245792   1.594   8.109  10.564 -0.3963  0.7893  0.8731
13063SOL     OW45793   2.260   7.551   8.075 -0.1712  0.1386 -0.3865
13063SOL    HW145794   2.336   7.497   8.057 -1.4409 -1.3590 -1.5059
13063SOL    HW245795   2.231   7.581   7.989 -1.7190 -0.5894 -0.1645
13064SOL     OW45796   5.247   9.288  12.406  0.1383 -0.0657  0.1821
13064SOL    HW145797   5.257   9.350  12.334  0.8364  1.1472  1.2800
13064SOL    HW245798   5.326   9.299  12.458 -1.0070  0.1940  1.9542
13065SOL     OW45799   7.880   1.976  10.252 -0.2625  0.4176 -0.0041
13065SOL    HW145800   7.907   1.937  10.336 -0.4648 -1.2536 -0.6736
13065SOL    HW245801   7.815   2.042  10.276 -0.3062 -0.0265  1.1643
13066SOL     OW45802   0.440   7.271   5.942 -0.1047 -0.0135  0.2609
13066SOL    HW145803   0.452   7.333   6.014  0.7383  0.1001  0.0348
13066SOL    HW245804   0.524   7.226   5.934 -0.2185 -0.1074 -0.5732
13067SOL     OW45805   0.234   3.691   6.734 -0.0150 -0.6945 -0.2034
13067SOL    HW145806   0.149   3.717   6.697  0.9407  0.3418 -1.8066
13067SOL    HW245807   0.268   3.626   6.672  1.6274  1.0815 -1.2727
13068SOL     OW45808   8.295   7.783  12.619 -0.1273 -0.1701 -0.4852
13068SOL    HW145809   8.301   7.803  12.713 -1.6771 -0.3020 -0.3331
13068SOL    HW245810   8.265   7.864  12.579 -0.0876 -0.2992 -0.7792
13069SOL     OW45811   3.920   6.021   4.879  0.9477 -0.3316  0.5451
13069SOL    HW145812   3.832   5.987   4.898  0.5510 -0.2583 -1.0375
13069SOL    HW245813   3.918   6.111   4.909  0.0816  0.0239 -0.5258
13070SOL     OW45814   0.250   0.514   6.492  0.3339  0.4778  0.1842
13070SOL    HW145815   0.217   0.579   6.430  0.5039  0.7007  0.3267
13070SOL    HW245816   0.344   0.511   6.474  0.1380 -0.7315 -0.7744
13071SOL     OW45817   5.358   5.671   7.560 -0.2315  0.3185  0.0506
13071SOL    HW145818   5.325   5.738   7.500 -1.7003 -1.1332 -0.8115
13071SOL    HW245819   5.300   5.676   7.635 -0.6875 -0.3531 -0.2545
13072SOL     OW45820  10.000   1.239   6.269 -0.1003  0.4119  0.1622
13072SOL    HW145821   9.915   1.204   6.295 -0.3957  0.4890 -0.6451
13072SOL    HW245822  10.019   1.196   6.185  1.5210 -0.9859  1.1818
13073SOL     OW45823   1.311  11.780   3.904 -0.0787 -0.4694  0.3819
13073SOL    HW145824   1.312  11.794   3.810 -1.0597 -0.3632  0.3744
13073SOL    HW245825   1.378  11.838   3.938 -1.2876  1.2447 -0.0413
13074SOL     OW45826   7.560   3.752   4.751  0.1510  0.3973  0.0982
13074SOL    HW145827   7.479   3.791   4.783 -0.7134 -1.4994  0.3655
13074SOL    HW245828   7.618   3.750   4.827 -0.1784  0.2060  0.3462
13075SOL     OW45829   3.711   2.992  12.048 -0.4151 -0.2109  0.0220
13075SOL    HW145830   3.659   3.070  12.028  1.5651  1.4771  1.0986
13075SOL    HW245831   3.746   2.964  11.964 -0.4140  0.6235 -0.2640
13076SOL     OW45832  12.557   0.372   7.755  0.3875 -0.4029  0.3450
13076SOL    HW145833  12.627   0.413   7.703  0.2639  0.0897  0.5599
13076SOL    HW245834  12.487   0.438   7.756  0.6592 -0.1033  1.7189
13077SOL     OW45835   1.335   3.752  10.717  0.1937 -0.2375  0.3489
13077SOL    HW145836   1.392   3.675  10.717 -0.6502 -0.8900  1.0948
13077SOL    HW245837   1.334   3.781  10.626  0.1172 -1.4367 -0.0609
13078SOL     OW45838   6.224   8.886   6.352  0.5684 -0.2574  0.3362
13078SOL    HW145839   6.283   8.813   6.334  0.9421  0.3154 -0.8625
13078SOL    HW245840   6.137   8.852   6.328  0.2290 -1.3460  2.7827
13079SOL     OW45841   0.040  10.427   9.408  0.5784 -0.6484  0.3692
13079SOL    HW145842   0.128  10.402   9.379  0.6133  0.3027 -0.3791
13079SOL    HW245843   0.012  10.494   9.346 -0.3623 -0.3715  1.0688
13080SOL     OW45844   5.233   1.164  12.718 -0.1447  0.3414 -0.1385
13080SOL    HW145845   5.290   1.211  12.778 -0.3550  2.1787 -1.2923
13080SOL    HW245846   5.188   1.099  12.772  1.0043  0.7168  1.3013
13081SOL     OW45847   7.305   8.598  12.063  0.3194  0.1724 -0.7187
13081SOL    HW145848   7.267   8.556  12.141  1.1759  0.2601 -0.2430
13081SOL    HW245849   7.363   8.666  12.098 -1.3235  2.0511 -1.4718
13082SOL     OW45850   9.094  11.833   1.954 -0.6845  0.1404 -0.0744
13082SOL    HW145851   9.081  11.755   2.008 -0.9868  0.8136  0.8572
13082SOL    HW245852   9.089  11.906   2.016 -0.0124  0.8806 -0.8707
13083SOL     OW45853   6.793   5.691   2.211  0.1371  0.5611  0.3334
13083SOL    HW145854   6.741   5.645   2.145 -3.7586  3.1445  1.2531
13083SOL    HW245855   6.824   5.770   2.168 -0.4015  1.1127  0.9437
13084SOL     OW45856   7.685   8.614  11.967  0.0645 -0.3781  0.4587
13084SOL    HW145857   7.651   8.567  11.891  1.5845  1.0062 -1.1687
13084SOL    HW245858   7.779   8.621  11.951  0.3461  0.3971  2.2313
13085SOL     OW45859   9.474   8.727  12.599 -0.8959  0.4743 -0.1999
13085SOL    HW145860   9.552   8.712  12.653 -1.2214  0.7018  0.3491
13085SOL    HW245861   9.499   8.798  12.540 -0.2566 -0.3442 -0.9421
13086SOL     OW45862   3.537   5.293   3.152 -0.1678 -0.0784  0.0965
13086SOL    HW145863   3.501   5.378   3.177  0.4967  0.7473 -1.6338
13086SOL    HW245864   3.462   5.233   3.156 -0.9229  0.8506  0.1033
13087SOL     OW45865   6.766   7.728   6.453  0.0491 -0.0798  0.2810
13087SOL    HW145866   6.799   7.680   6.377 -0.5036 -1.5689  0.9549
13087SOL    HW245867   6.747   7.816   6.419 -0.3236 -0.7573 -1.3381
13088SOL     OW45868  11.774   0.337   9.336 -1.0022  0.7214  0.5314
13088SOL    HW145869  11.833   0.275   9.293 -0.5297 -0.1627  2.3555
13088SOL    HW245870  11.798   0.422   9.298 -0.9426 -0.0328 -1.2417
13089SOL     OW45871   6.167  10.477   4.182  0.0955 -0.1106  0.1651
13089SOL    HW145872   6.121  10.514   4.107 -0.8885 -2.1876 -0.3186
13089SOL    HW245873   6.260  10.482   4.159 -0.2564 -3.2658 -2.5405
13090SOL     OW45874  11.925   1.604  10.335 -0.6323 -0.1297 -0.4078
13090SOL    HW145875  11.968   1.624  10.252  0.6390 -0.6713  0.0945
13090SOL    HW245876  11.972   1.656  10.400 -0.7059 -0.7491  0.1587
13091SOL     OW45877   5.652   3.862   7.935  0.1813  0.1166  0.0586
13091SOL    HW145878   5.625   3.954   7.935 -3.1837 -0.6638  2.4079
13091SOL    HW245879   5.665   3.841   7.842  0.7923  2.8392 -0.5519
13092SOL     OW45880   6.076   8.051  10.007 -0.1440 -0.0286  0.0367
13092SOL    HW145881   6.063   8.131  10.057  2.2640  1.4452 -1.4466
13092SOL    HW245882   6.095   8.082   9.918  1.4598 -2.1755 -0.4476
13093SOL     OW45883   3.522  11.308   3.074  0.1787  0.0974  0.2695
13093SOL    HW145884   3.457  11.378   3.069  0.4290  0.3316  0.2010
13093SOL    HW245885   3.550  11.295   2.983  1.0971  0.8453  0.4194
13094SOL     OW45886   2.145   0.237  10.393 -0.3968  0.2912 -0.5152
13094SOL    HW145887   2.132   0.156  10.343 -0.8059  0.2487 -0.3432
13094SOL    HW245888   2.239   0.238  10.412 -0.5536 -0.6792  0.3847
13095SOL     OW45889  10.424  11.983   3.335 -0.1750 -0.4931 -0.3369
13095SOL    HW145890  10.396  12.030   3.257  0.1363  0.5414  0.1556
13095SOL    HW245891  10.343  11.953   3.377 -0.3565 -0.7035 -0.8330
13096SOL     OW45892   5.710  12.718   9.751 -0.4184  0.1114 -0.3169
13096SOL    HW145893   5.710  12.794   9.810 -1.6790  2.6164 -3.2378
13096SOL    HW245894   5.643  12.660   9.786  0.5526  0.2978  2.0051
13097SOL     OW45895   4.630   2.087  10.407  0.1276 -0.1190  0.1077
13097SOL    HW145896   4.656   2.178  10.423 -0.8981 -0.2603  3.0101
13097SOL    HW245897   4.535   2.088  10.408  0.0943 -1.4212  1.6162
13098SOL     OW45898  11.084   0.046   3.994  0.2321  0.1991  0.2228
13098SOL    HW145899  11.172   0.008   4.003  1.1398  2.0752 -0.2271
13098SOL    HW245900  11.037   0.016   4.071  0.5141 -2.6344 -0.5803
13099SOL     OW45901   2.648   0.406   8.946 -0.0742  0.1435  0.0454
13099SOL    HW145902   2.615   0.495   8.938 -0.1437  0.1340  0.2217
13099SOL    HW245903   2.717   0.411   9.012  0.5767  0.2432 -0.6273
13100SOL     OW45904   0.231   5.297   0.992 -0.1612 -0.4255  0.9570
13100SOL    HW145905   0.300   5.253   0.943  1.0733  1.4123  0.9141
13100SOL    HW245906   0.274   5.328   1.072 -0.7023  1.3534  0.6186
13101SOL     OW45907   6.536  12.244  11.388 -0.0602  0.4096 -0.7562
13101SOL    HW145908   6.447  12.280  11.396 -0.7843 -1.4629  0.0420
13101SOL    HW245909   6.592  12.310  11.430 -1.1853  1.1576 -0.3820
13102SOL     OW45910   8.201   1.903   9.160 -0.0106  0.2547 -0.8469
13102SOL    HW145911   8.215   1.891   9.254 -2.2510 -0.8687 -0.5917
13102SOL    HW245912   8.273   1.854   9.119  0.4476 -0.0415  0.2697
13103SOL     OW45913   6.014   7.182   2.202  0.1291 -0.0795 -0.0744
13103SOL    HW145914   5.937   7.141   2.241  0.0234 -0.1174 -0.3246
13103SOL    HW245915   6.056   7.228   2.275  0.2389 -0.6124  0.2105
13104SOL     OW45916   1.772   1.253   4.429 -0.4544 -0.7072 -0.0799
13104SOL    HW145917   1.740   1.338   4.398 -0.3205 -0.5071  0.3260
13104SOL    HW245918   1.714   1.231   4.503  0.7013 -0.0553  1.0627
13105SOL     OW45919   2.166   2.003  11.022  0.3967  0.2877 -0.0166
13105SOL    HW145920   2.254   2.035  11.041  0.1815  1.4554 -0.8688
13105SOL    HW245921   2.113   2.031  11.097 -0.0567  3.1997 -1.2839
13106SOL     OW45922  12.428  10.342   3.152  0.8389 -0.4119 -0.1676
13106SOL    HW145923  12.407  10.423   3.105 -0.5750  0.6203  2.0850
13106SOL    HW245924  12.400  10.272   3.093 -0.5641  0.8087 -1.0076
13107SOL     OW45925   9.322  10.151  11.731 -0.1996 -0.2191  0.0151
13107SOL    HW145926   9.239  10.171  11.775 -0.2847 -1.7818  0.6457
13107SOL    HW245927   9.389  10.183  11.791 -0.3228  0.8485 -0.3922
13108SOL     OW45928  10.858   8.002   5.898 -0.1372 -0.2808 -0.2493
13108SOL    HW145929  10.927   7.998   5.964  0.2679  1.4650 -0.5102
13108SOL    HW245930  10.906   8.011   5.815 -0.6575 -0.6794 -0.5928
13109SOL     OW45931   5.374   3.604   7.527  0.1901  0.2201 -0.3116
13109SOL    HW145932   5.302   3.661   7.498  1.6680  2.8803  0.8738
13109SOL    HW245933   5.418   3.578   7.446 -1.0938 -0.1027 -0.9416
13110SOL     OW45934   5.431   4.683   5.285  0.5347 -0.1761  0.0242
13110SOL    HW145935   5.523   4.712   5.281  0.8798 -1.2351  0.0673
13110SOL    HW245936   5.410   4.685   5.378  0.7805 -0.7402  0.0926
13111SOL     OW45937   7.162  12.655   1.872  0.5391 -0.2269  0.6031
13111SOL    HW145938   7.156  12.707   1.952 -0.0384  0.5674  0.0572
13111SOL    HW245939   7.244  12.607   1.880  1.0963  0.8007  1.1020
13112SOL     OW45940   1.036   2.830  10.378 -0.1669  0.2741 -0.2458
13112SOL    HW145941   0.987   2.750  10.393  1.7342 -0.8719  0.2766
13112SOL    HW245942   1.053   2.864  10.466 -2.7242  2.4889 -0.4788
13113SOL     OW45943   9.037   8.603   1.539  0.0412 -0.1096 -0.4609
13113SOL    HW145944   9.000   8.687   1.515  0.8677 -0.1961 -2.1263
13113SOL    HW245945   9.039   8.604   1.635 -0.9604  1.2992 -0.4314
13114SOL     OW45946  10.959   8.122   2.707  0.3799 -0.1100  0.0990
13114SOL    HW145947  10.962   8.028   2.688  2.2436 -0.0618  0.0524
13114SOL    HW245948  11.045   8.155   2.682 -0.7247  1.9108 -1.2737
13115SOL     OW45949  11.689  12.708  11.683 -0.1578 -0.3571 -0.5595
13115SOL    HW145950  11.722  12.635  11.735  0.4278  0.6594  0.5436
13115SOL    HW245951  11.742  12.783  11.710 -1.3381  0.6764 -0.9886
13116SOL     OW45952   1.109   2.604   4.922 -0.3962 -0.1615  0.0844
13116SOL    HW145953   1.132   2.671   4.858  1.7078  0.8917  1.8123
13116SOL    HW245954   1.076   2.653   4.997  1.2006 -1.0074  1.3988
13117SOL     OW45955   7.828   1.498   5.088  0.1605  0.3067 -0.2160
13117SOL    HW145956   7.756   1.470   5.032 -0.4310  3.2818 -1.0945
13117SOL    HW245957   7.790   1.504   5.176 -0.3336  0.6475 -0.4484
13118SOL     OW45958  12.140  12.100  12.298  0.3697 -0.0679  0.7293
13118SOL    HW145959  12.221  12.120  12.346  1.5877  0.1019 -1.2645
13118SOL    HW245960  12.112  12.015  12.333  2.0314 -0.6530  0.7344
13119SOL     OW45961   4.295   8.892   5.043 -0.4411 -0.3010 -0.3166
13119SOL    HW145962   4.227   8.937   4.994  0.3550  0.7097 -0.5416
13119SOL    HW245963   4.376   8.938   5.019  0.0136  0.0824  1.7316
13120SOL     OW45964   1.238   4.749   7.267 -0.3409 -0.3721  0.4172
13120SOL    HW145965   1.160   4.703   7.298 -0.6388 -2.4954 -2.9106
13120SOL    HW245966   1.208   4.796   7.189  1.2049  0.8908  0.5465
13121SOL     OW45967  11.552   6.599   0.685 -0.8076 -0.3712 -0.3133
13121SOL    HW145968  11.467   6.627   0.653 -0.1603  1.7968 -0.3052
13121SOL    HW245969  11.609   6.603   0.608 -0.3918 -0.3022 -0.0046
13122SOL     OW45970   1.928   0.833   7.851  0.1296  0.2449 -0.2405
13122SOL    HW145971   1.950   0.771   7.920  0.7745  2.6420  1.8667
13122SOL    HW245972   1.833   0.840   7.856  0.1332  0.0916  0.1130
13123SOL     OW45973   0.661   6.454   7.027  0.1368 -0.3466  0.5146
13123SOL    HW145974   0.668   6.444   6.933  1.2404  0.8056  0.4525
13123SOL    HW245975   0.576   6.496   7.041 -0.1879 -0.8481  0.0818
13124SOL     OW45976   2.664   6.243   1.481  0.0278  0.2565  0.0670
13124SOL    HW145977   2.658   6.258   1.576 -0.4336  1.0137 -0.0764
13124SOL    HW245978   2.758   6.246   1.463  0.1435 -0.2676  0.5546
13125SOL     OW45979   2.720   7.376   4.293  0.2762  0.3392  0.0173
13125SOL    HW145980   2.732   7.469   4.274  0.2150  0.8314  2.0871
13125SOL    HW245981   2.794   7.354   4.349 -0.6516 -0.3709  1.0052
13126SOL     OW45982   5.876   3.435  10.114 -0.1056  0.1146 -0.4275
13126SOL    HW145983   5.848   3.447  10.023 -2.2145  0.0105  0.1358
13126SOL    HW245984   5.955   3.488  10.123  0.2432 -0.0203 -2.3562
13127SOL     OW45985   2.941   2.253   3.457 -0.5790  0.3036 -0.0455
13127SOL    HW145986   3.000   2.263   3.383  0.4593 -2.1395  0.3653
13127SOL    HW245987   2.854   2.269   3.420  0.1427  2.1983 -1.0455
13128SOL     OW45988  10.002   3.309  12.289 -0.1049  0.7145 -0.0436
13128SOL    HW145989   9.992   3.217  12.266 -0.6282  0.5759  0.6945
13128SOL    HW245990   9.982   3.313  12.383 -0.2946  1.6068 -0.1091
13129SOL     OW45991  11.626   9.609   5.266 -0.4445  0.2415 -0.4820
13129SOL    HW145992  11.719   9.593   5.282 -0.4055  0.3727 -0.5721
13129SOL    HW245993  11.602   9.675   5.332 -1.0241 -1.4187  1.0522
13130SOL     OW45994   1.544   4.727   2.057  0.6413 -0.1569  0.0977
13130SOL    HW145995   1.637   4.738   2.040  0.3386 -1.7842 -3.5150
13130SOL    HW245996   1.522   4.642   2.019 -2.2245 -0.1446  1.4361
13131SOL     OW45997   2.270   4.401   9.309 -0.3647 -0.6906 -0.0646
13131SOL    HW145998   2.237   4.331   9.253 -0.6616  1.2972 -2.5444
13131SOL    HW245999   2.357   4.372   9.336 -0.9282 -2.4822 -0.0355
13132SOL     OW46000   5.983   0.815   1.748  0.3954  0.1683  0.2152
13132SOL    HW146001   6.052   0.821   1.683 -1.1046 -1.4525 -1.6662
13132SOL    HW246002   5.973   0.721   1.764 -0.4453  0.4409  1.5068
13133SOL     OW46003  11.064   6.476   3.175  0.4716 -0.3866 -0.3571
13133SOL    HW146004  11.042   6.384   3.186  1.9330 -0.9085 -1.4731
13133SOL    HW246005  11.115   6.479   3.094 -0.6380  1.5982 -1.0447
13134SOL     OW46006  12.307   9.293  10.905  0.2317 -0.4947 -0.3875
13134SOL    HW146007  12.382   9.307  10.963  0.1752 -0.5859 -0.2910
13134SOL    HW246008  12.249   9.235  10.955 -0.6177  0.7935  0.1818
13135SOL     OW46009   1.218   7.994   2.698 -0.2546 -0.2177 -0.5371
13135SOL    HW146010   1.173   8.022   2.778 -0.0480  0.5947 -0.7042
13135SOL    HW246011   1.149   7.961   2.642 -0.4520 -0.4117 -0.1863
13136SOL     OW46012   1.329   9.359   2.484  0.5124 -0.2685 -0.2273
13136SOL    HW146013   1.391   9.311   2.430  0.5450 -1.6377  0.9866
13136SOL    HW246014   1.243   9.322   2.463  0.5850 -1.2009  1.0254
13137SOL     OW46015   3.569   8.145   7.283 -0.0290 -0.3619 -0.6663
13137SOL    HW146016   3.497   8.082   7.285 -0.2254 -0.1222  0.5409
13137SOL    HW246017   3.592   8.159   7.375 -0.1680  1.5293 -0.8689
13138SOL     OW46018   9.001  10.407   1.873  0.3293  0.5969  0.1730
13138SOL    HW146019   9.059  10.335   1.900  0.5805  0.1862 -1.3640
13138SOL    HW246020   9.004  10.469   1.946  0.4421 -0.7476  1.3588
13139SOL     OW46021   4.628  11.347   2.759 -0.5371  0.2289  0.2354
13139SOL    HW146022   4.548  11.306   2.789  0.7380 -1.0416  2.1048
13139SOL    HW246023   4.623  11.437   2.792 -1.3318  0.2483  0.0582
13140SOL     OW46024   5.761   4.307   5.031 -0.1674  0.8377 -0.0258
13140SOL    HW146025   5.765   4.399   5.057 -0.1118  1.1729 -1.1945
13140SOL    HW246026   5.774   4.308   4.936 -0.4384 -0.3534 -0.0852
13141SOL     OW46027   7.181   7.090   1.955  0.2553  0.6539  0.0158
13141SOL    HW146028   7.201   6.999   1.976  0.3228  0.4832 -0.7466
13141SOL    HW246029   7.184   7.136   2.039  0.2608 -0.0386  0.3984
13142SOL     OW46030   4.407   5.410   3.699 -0.0059 -0.4707 -0.5346
13142SOL    HW146031   4.490   5.415   3.652 -0.8348 -1.3832 -2.1943
13142SOL    HW246032   4.386   5.501   3.721  1.2339 -0.2008 -0.4120
13143SOL     OW46033   3.159   3.504  10.125  0.2833  0.1962  0.3029
13143SOL    HW146034   3.232   3.480  10.069  1.0422 -0.4659  1.5248
13143SOL    HW246035   3.159   3.438  10.194 -1.1964  0.4473  0.5750
13144SOL     OW46036   3.336  10.327   0.090 -0.1107 -0.2546  0.3966
13144SOL    HW146037   3.308  10.344   0.180 -1.6323  0.3722 -0.1656
13144SOL    HW246038   3.293  10.245   0.066  2.9812 -2.3226  1.3055
13145SOL     OW46039   5.726  10.539   8.080 -0.1563  0.0687  0.2406
13145SOL    HW146040   5.662  10.581   8.021  0.8723  0.2187 -0.8069
13145SOL    HW246041   5.700  10.447   8.081  1.7645 -0.6972 -3.2971
13146SOL     OW46042   3.768   6.192   6.318 -0.2273  0.0895 -0.1823
13146SOL    HW146043   3.732   6.161   6.401  0.8516  3.2635  1.6451
13146SOL    HW246044   3.698   6.242   6.278  0.3541  1.6899  0.7150
13147SOL     OW46045   0.064  11.195   3.485  0.0368 -0.1762 -0.3430
13147SOL    HW146046   0.123  11.186   3.559  0.8787 -0.3383 -1.0263
13147SOL    HW246047  -0.021  11.214   3.525  0.4210 -0.5098  0.6698
13148SOL     OW46048   2.379   2.284  11.821  0.0003 -0.0129 -0.2384
13148SOL    HW146049   2.296   2.318  11.788  0.5456  1.1719 -0.4354
13148SOL    HW246050   2.390   2.200  11.777 -2.1061 -1.2476  1.3753
13149SOL     OW46051  12.366   4.233   5.855  0.4638  0.2674 -0.2903
13149SOL    HW146052  12.372   4.138   5.844  0.3627  0.2808 -0.4634
13149SOL    HW246053  12.273   4.252   5.849  0.2065  0.0896  2.2657
13150SOL     OW46054   9.372   6.585   4.304  0.3146 -0.3394 -0.1061
13150SOL    HW146055   9.328   6.545   4.230  2.0416  0.0184 -1.3942
13150SOL    HW246056   9.392   6.674   4.275 -0.1083  0.2446  1.2848
13151SOL     OW46057  11.439   1.560   9.934 -0.1310  0.2315  0.0242
13151SOL    HW146058  11.502   1.605   9.879 -0.1791  1.1422  0.6857
13151SOL    HW246059  11.362   1.549   9.879 -0.2434  1.2981 -0.0496
13152SOL     OW46060   0.786  12.429   9.357 -0.1537  0.0162  0.2426
13152SOL    HW146061   0.761  12.510   9.312  0.0327  0.3495  0.7187
13152SOL    HW246062   0.829  12.376   9.291  1.0269  0.9183  0.2501
13153SOL     OW46063   4.552   3.815   6.545 -0.7177 -0.6608 -0.1865
13153SOL    HW146064   4.564   3.720   6.540  0.1649 -0.5425 -0.4276
13153SOL    HW246065   4.591   3.839   6.630  0.9726 -0.2545 -1.0350
13154SOL     OW46066   7.273   3.214   5.743 -0.0317  0.1622  0.6105
13154SOL    HW146067   7.317   3.157   5.679 -2.7289  0.3804 -1.6150
13154SOL    HW246068   7.314   3.300   5.730 -0.6203  0.2341 -1.0095
13155SOL     OW46069   2.814   9.636   6.622  0.0356 -0.2469  0.1537
13155SOL    HW146070   2.814   9.596   6.709  1.5679 -0.4374  0.0897
13155SOL    HW246071   2.779   9.568   6.565 -0.2946 -0.3772  0.5001
13156SOL     OW46072  12.718   0.809   4.806 -0.4904  0.1766 -0.0901
13156SOL    HW146073  12.675   0.816   4.720 -2.0438 -0.4504  0.5938
13156SOL    HW246074  12.711   0.716   4.829  2.7600 -0.3332 -0.6302
13157SOL     OW46075   7.246  10.532  11.094  0.4402  0.0516  0.1880
13157SOL    HW146076   7.162  10.566  11.064 -0.6527 -1.5956  1.2492
13157SOL    HW246077   7.277  10.476  11.022  1.1185  1.3564 -0.5823
13158SOL     OW46078   3.243   9.778   5.402  0.5775  0.6976  0.1687
13158SOL    HW146079   3.188   9.744   5.473  0.3231  1.4395  0.3376
13158SOL    HW246080   3.325   9.802   5.446 -0.1939  2.8283  0.5921
13159SOL     OW46081   9.305  12.708   1.910  0.4420  0.3205  0.3301
13159SOL    HW146082   9.345  12.788   1.876  0.7505  0.3663  0.7945
13159SOL    HW246083   9.211  12.726   1.909  0.4406  0.3272 -0.4700
13160SOL     OW46084   1.437   9.568   7.044 -0.0811 -0.1388  0.2126
13160SOL    HW146085   1.448   9.644   6.987  0.5759 -1.2388 -1.1881
13160SOL    HW246086   1.444   9.604   7.133  0.3333  1.4118 -0.4046
13161SOL     OW46087   2.905  11.858   4.903  0.1860 -0.1053  0.2044
13161SOL    HW146088   2.865  11.839   4.988 -0.2908 -0.1460 -0.0280
13161SOL    HW246089   2.842  11.914   4.858 -0.5787 -1.8230 -0.9716
13162SOL     OW46090   2.819   9.810   7.523 -0.1054 -0.2110  0.3490
13162SOL    HW146091   2.746   9.754   7.549  0.6517 -1.5135 -0.2181
13162SOL    HW246092   2.890   9.786   7.583 -0.1202  1.0412  0.8971
13163SOL     OW46093   9.059  11.611   2.119 -0.6839  0.1886 -0.1372
13163SOL    HW146094   9.007  11.538   2.085 -0.3611  0.0754 -0.3967
13163SOL    HW246095   9.053  11.602   2.214  0.3720 -0.9362 -0.1421
13164SOL     OW46096  10.943   5.445   0.454  0.1870 -0.3706 -0.4111
13164SOL    HW146097  10.945   5.351   0.471 -2.5788 -0.7417 -1.6019
13164SOL    HW246098  10.932   5.451   0.359 -2.2627  1.0293 -0.1039
13165SOL     OW46099   0.069   9.340   1.094 -0.5823  0.1894  0.9764
13165SOL    HW146100   0.046   9.249   1.077 -0.4381 -0.2039  2.6560
13165SOL    HW246101   0.024   9.390   1.026 -0.4385 -1.1493 -0.1364
13166SOL     OW46102   4.751   4.475   2.047 -0.0363 -0.0780 -0.3311
13166SOL    HW146103   4.830   4.445   2.002  0.4703 -0.0426  0.5093
13166SOL    HW246104   4.682   4.415   2.018  0.1139  0.3574 -1.6659
13167SOL     OW46105   7.217   1.254   9.974 -0.2553  0.6446 -0.2577
13167SOL    HW146106   7.283   1.288  10.034 -0.3701  0.7591 -0.1962
13167SOL    HW246107   7.266   1.197   9.914 -0.2274  0.0665  0.3032
13168SOL     OW46108   5.884   9.897   6.433 -0.0250 -0.1537  0.0751
13168SOL    HW146109   5.818   9.831   6.455  0.5586 -0.6094  0.4959
13168SOL    HW246110   5.865   9.921   6.343 -1.2261  0.2714  0.4159
13169SOL     OW46111   7.922   5.906   4.716 -0.1636  0.5052 -0.0112
13169SOL    HW146112   7.980   5.937   4.647 -0.2608 -1.7989 -1.2283
13169SOL    HW246113   7.869   5.838   4.675 -0.3117 -0.8989  2.3011
13170SOL     OW46114  12.141   5.071   2.876  0.0912 -0.1424 -0.1354
13170SOL    HW146115  12.192   5.148   2.851 -0.0795 -0.7317 -2.5037
13170SOL    HW246116  12.192   4.997   2.843 -1.4761 -0.8407 -1.0902
13171SOL     OW46117   1.857   2.613  11.008 -0.4564 -0.3090  0.3459
13171SOL    HW146118   1.801   2.537  10.994 -0.8520  0.0135  0.1721
13171SOL    HW246119   1.937   2.576  11.045 -1.2135 -0.6488  1.6876
13172SOL     OW46120  10.355   8.076  11.271 -0.0218  0.0009  0.1332
13172SOL    HW146121  10.408   8.053  11.195 -0.8029  0.1059 -0.4571
13172SOL    HW246122  10.371   8.169  11.284  0.5870 -0.1460  0.4865
13173SOL     OW46123   8.864   5.930   2.082 -0.3719 -0.4192 -0.2166
13173SOL    HW146124   8.855   6.025   2.075 -0.3475 -0.3821  0.2673
13173SOL    HW246125   8.946   5.916   2.130 -0.7762 -0.6674  0.4169
13174SOL     OW46126   3.629   8.229   8.270  0.3387  0.3128 -0.3649
13174SOL    HW146127   3.693   8.300   8.257 -0.8216  1.3014 -0.9035
13174SOL    HW246128   3.551   8.274   8.301  0.0917 -0.9563  0.9357
13175SOL     OW46129  10.610  12.709  12.020  0.5578  0.0023  0.3440
13175SOL    HW146130  10.664  12.765  11.964  1.6966  0.3319  1.7244
13175SOL    HW246131  10.562  12.771  12.076 -0.6646 -0.3171 -0.3054
13176SOL     OW46132   3.717   9.555   5.039 -0.4448 -0.1957  0.5427
13176SOL    HW146133   3.646   9.591   5.092 -0.2791  0.9610  0.0109
13176SOL    HW246134   3.793   9.554   5.098 -0.3651  0.6809  0.4686
13177SOL     OW46135   9.243   0.991  10.981 -0.1414 -0.4474 -0.3966
13177SOL    HW146136   9.184   0.921  11.006  0.3670 -1.3172 -1.5190
13177SOL    HW246137   9.315   0.987  11.044 -0.8813  0.1166  0.5042
13178SOL     OW46138   8.581   1.394  12.357  0.0067 -0.2641  0.1780
13178SOL    HW146139   8.586   1.299  12.368 -0.6143 -0.2639  0.5277
13178SOL    HW246140   8.488   1.414  12.371  0.3353  0.5343  1.3056
13179SOL     OW46141  11.599   2.286   7.275  0.1762 -0.4183 -0.1904
13179SOL    HW146142  11.589   2.249   7.187 -2.0394 -1.9907  0.6011
13179SOL    HW246143  11.693   2.282   7.293  0.6378 -0.3719 -2.3341
13180SOL     OW46144   9.366   4.475   8.452 -0.2289  0.0177 -0.4772
13180SOL    HW146145   9.301   4.492   8.384 -1.2855 -0.6076  0.3463
13180SOL    HW246146   9.338   4.393   8.492  1.0554 -0.2417 -0.0629
13181SOL     OW46147   7.838   5.742   1.725  0.3010 -0.3324 -0.1860
13181SOL    HW146148   7.820   5.713   1.815 -0.5844 -2.8900 -1.1047
13181SOL    HW246149   7.751   5.759   1.688  0.6362  0.3010 -0.6904
13182SOL     OW46150   2.353  10.906   7.516 -0.4870  0.1921  0.4635
13182SOL    HW146151   2.276  10.963   7.507 -0.2032  0.3291 -1.4240
13182SOL    HW246152   2.413  10.956   7.571 -1.0753  0.8141  0.5637
13183SOL     OW46153   2.904   9.614   1.725  0.0561  0.0792 -0.1199
13183SOL    HW146154   2.977   9.565   1.763  0.7968  1.7142  0.6550
13183SOL    HW246155   2.826   9.578   1.768  0.6355 -0.0132  0.8788
13184SOL     OW46156   7.074   3.256   9.699 -0.8196 -0.2239  0.5954
13184SOL    HW146157   7.087   3.262   9.794  1.7840  1.3883  0.2406
13184SOL    HW246158   7.004   3.320   9.681  0.0044  0.9122  1.2677
13185SOL     OW46159   1.745   3.067   1.588 -0.6084 -1.1412  0.1040
13185SOL    HW146160   1.764   2.999   1.524 -1.8826 -1.6917  0.2655
13185SOL    HW246161   1.738   3.147   1.537  0.9914 -1.0923 -0.0797
13186SOL     OW46162   3.578   7.615   8.966  0.2308 -0.2482  0.0771
13186SOL    HW146163   3.647   7.618   9.033 -1.5482  0.0412  2.0170
13186SOL    HW246164   3.514   7.552   9.000 -1.1519  0.5723 -0.8751
13187SOL     OW46165   5.418  10.117   4.858  0.6052 -0.5902  0.9598
13187SOL    HW146166   5.323  10.108   4.863  0.4346  0.8456  0.6922
13187SOL    HW246167   5.443  10.153   4.943  0.7110  0.5204  0.4661
13188SOL     OW46168   6.955   3.205  11.422 -1.1631 -0.5906  0.5580
13188SOL    HW146169   6.930   3.263  11.350  0.9630 -0.2950 -0.0097
13188SOL    HW246170   6.994   3.263  11.487 -0.9202 -1.1380  0.9096
13189SOL     OW46171  11.485  10.980   4.832  0.0975  0.2601  0.5528
13189SOL    HW146172  11.483  11.011   4.923  1.0572  1.0985  0.3019
13189SOL    HW246173  11.421  10.909   4.830 -0.1636  0.4339  1.8114
13190SOL     OW46174   8.731   4.197   5.756 -0.1826 -0.0183 -0.2216
13190SOL    HW146175   8.783   4.124   5.788 -0.6910 -0.3082 -0.0582
13190SOL    HW246176   8.779   4.275   5.785 -0.2483 -0.2769  0.6053
13191SOL     OW46177  11.679   6.583  10.046 -0.4711 -0.4290 -0.5365
13191SOL    HW146178  11.737   6.654  10.073 -0.0075 -1.1692  0.5166
13191SOL    HW246179  11.731   6.504  10.058 -1.2655 -1.0091 -0.8261
13192SOL     OW46180   6.936   6.808   7.929 -0.5048  0.9003  0.0673
13192SOL    HW146181   6.842   6.816   7.911 -0.5928  1.5822  0.7453
13192SOL    HW246182   6.950   6.864   8.006  0.2956  0.0769  0.5390
13193SOL     OW46183   8.653   3.043   0.967 -0.1334  0.2649  0.2128
13193SOL    HW146184   8.703   2.976   1.014  1.0404  0.3698 -0.8570
13193SOL    HW246185   8.609   3.092   1.037  0.9113 -0.0967  1.1565
13194SOL     OW46186   8.525   9.511  10.802 -0.0600 -0.4363  0.3781
13194SOL    HW146187   8.481   9.437  10.760 -0.1302 -0.6141  0.7664
13194SOL    HW246188   8.471   9.587  10.779  0.7134 -0.2852 -1.1167
13195SOL     OW46189   9.230   5.666   5.048  0.6298 -0.1531  0.5914
13195SOL    HW146190   9.200   5.577   5.066  1.3707 -0.2059  1.7256
13195SOL    HW246191   9.269   5.695   5.131  0.9935  0.9858  0.0464
13196SOL     OW46192  11.115   5.013  11.469  0.1498 -0.1261 -0.3744
13196SOL    HW146193  11.078   5.024  11.381 -0.1601  0.5994 -0.1599
13196SOL    HW246194  11.194   4.961  11.455  0.3387  0.3503 -1.1415
13197SOL     OW46195   0.284   6.227   4.475 -0.8404 -0.1132 -0.8827
13197SOL    HW146196   0.301   6.201   4.565 -0.0488 -0.7306 -1.1936
13197SOL    HW246197   0.272   6.322   4.479  0.9742  0.1333 -0.3544
13198SOL     OW46198  12.397   6.698  11.132 -0.7450  0.2244 -0.1821
13198SOL    HW146199  12.348   6.648  11.198 -0.6473 -0.3788 -0.5559
13198SOL    HW246200  12.374   6.657  11.049  0.7855 -0.4313 -0.3273
13199SOL     OW46201  11.540   1.078   4.394  0.2017  0.1147  0.1925
13199SOL    HW146202  11.625   1.052   4.358  0.2267 -0.9142  0.9679
13199SOL    HW246203  11.506   0.999   4.436 -0.7422  0.7516  0.6595
13200SOL     OW46204   7.909  12.355   6.912  0.7453 -0.2684 -0.2420
13200SOL    HW146205   7.892  12.314   6.997  0.9546  0.5131  0.1918
13200SOL    HW246206   7.994  12.318   6.885  0.7957 -0.3349  0.0028
13201SOL     OW46207  11.488   2.594   4.050  0.2352 -0.2259 -0.0827
13201SOL    HW146208  11.508   2.645   4.129 -0.7030 -2.3608  1.6411
13201SOL    HW246209  11.569   2.547   4.030  0.6712  0.8091 -0.8213
13202SOL     OW46210   7.877   2.185  12.731  0.1852  0.2780  0.1982
13202SOL    HW146211   7.912   2.217  12.814  0.0347  2.0293 -0.3677
13202SOL    HW246212   7.831   2.260  12.694  0.7859 -0.2591 -1.7638
13203SOL     OW46213   0.076   2.912   4.238 -0.7002 -0.1655 -0.3409
13203SOL    HW146214   0.020   2.882   4.309 -0.7366 -1.2434 -0.8123
13203SOL    HW246215   0.103   2.832   4.193  1.1529  0.3132 -0.1731
13204SOL     OW46216   0.556   2.119   4.015 -0.5907  0.7540 -0.0844
13204SOL    HW146217   0.624   2.138   3.950 -0.4239 -0.7637 -0.4072
13204SOL    HW246218   0.599   2.132   4.100  0.1716 -0.3116 -0.2831
13205SOL     OW46219   3.877   5.394  12.193 -0.3463  0.3480  0.3674
13205SOL    HW146220   3.960   5.430  12.163 -0.6532  0.3170 -0.5410
13205SOL    HW246221   3.810   5.448  12.151 -0.8375 -1.5123 -1.4088
13206SOL     OW46222   8.714   4.786   0.057 -0.0205  0.0115 -0.1645
13206SOL    HW146223   8.683   4.739  -0.021  1.3533  2.2869 -2.2343
13206SOL    HW246224   8.635   4.824   0.095 -0.8428 -1.9312  0.1937
13207SOL     OW46225   3.958   4.545   8.406 -0.0397 -0.1103 -0.2378
13207SOL    HW146226   3.914   4.463   8.383 -1.5315  1.0758 -1.7897
13207SOL    HW246227   3.922   4.567   8.492 -2.2302  0.5704 -1.2435
13208SOL     OW46228   4.274   1.567   3.154 -0.1739  0.4815  0.0191
13208SOL    HW146229   4.298   1.477   3.134 -0.7166  0.2367  0.4219
13208SOL    HW246230   4.281   1.573   3.250  2.1343  1.5552 -0.1514
13209SOL     OW46231   5.289  12.219   1.660 -0.2685 -0.1800 -0.2000
13209SOL    HW146232   5.302  12.138   1.611 -1.6459 -1.0219  0.7329
13209SOL    HW246233   5.213  12.201   1.716 -0.1291  1.4961  0.5983
13210SOL     OW46234   8.422   5.439   4.055 -0.1043 -0.1678 -0.2545
13210SOL    HW146235   8.393   5.495   4.127 -0.4976 -0.4143 -0.2178
13210SOL    HW246236   8.371   5.468   3.979 -1.1325 -1.1948  0.0122
13211SOL     OW46237   4.213   5.399   1.100 -0.5713  0.4118  0.0260
13211SOL    HW146238   4.270   5.460   1.146  0.4285  1.1666 -2.0732
13211SOL    HW246239   4.133   5.449   1.083 -0.6827  0.3516  0.3738
13212SOL     OW46240   8.626  11.618  11.882  0.2957 -0.1433  0.1429
13212SOL    HW146241   8.564  11.664  11.826 -0.1177  1.3217  1.7188
13212SOL    HW246242   8.675  11.562  11.823 -0.9981  0.3655 -1.4715
13213SOL     OW46243   8.097   8.398   7.441 -0.3344  0.2295 -0.2877
13213SOL    HW146244   8.097   8.356   7.355  1.4631 -1.0195  0.2557
13213SOL    HW246245   8.169   8.355   7.489  0.4675  2.7175  0.9290
13214SOL     OW46246   5.569  10.084  11.462  0.5397  0.0474 -0.5403
13214SOL    HW146247   5.569  10.178  11.477  1.5799  0.2885 -1.8313
13214SOL    HW246248   5.554  10.075  11.367  0.6088 -1.0747 -0.4602
13215SOL     OW46249   5.135   2.931   4.398  0.1590 -0.1746  0.5536
13215SOL    HW146250   5.220   2.975   4.400  0.5297 -0.8727  0.7097
13215SOL    HW246251   5.123   2.905   4.306  0.1174 -0.0832  0.5331
13216SOL     OW46252   2.576   9.010  10.694 -0.3531 -0.2555  0.8364
13216SOL    HW146253   2.569   9.061  10.775  2.3332 -0.0242  1.0109
13216SOL    HW246254   2.521   9.057  10.632 -1.7205  0.0976  2.2421
13217SOL     OW46255  11.713  10.991   5.464  0.2464 -0.1775 -0.4967
13217SOL    HW146256  11.779  10.979   5.396  1.4175  1.2702  0.3317
13217SOL    HW246257  11.728  11.080   5.497 -2.1484  0.2175 -0.2920
13218SOL     OW46258   8.265  11.709   7.711  0.1230 -0.6708 -0.5576
13218SOL    HW146259   8.186  11.748   7.672  0.4390  0.4685 -0.1196
13218SOL    HW246260   8.233  11.636   7.763 -0.6006 -0.4931 -0.7443
13219SOL     OW46261   7.507  12.043   3.915 -0.3839 -0.0004 -0.1975
13219SOL    HW146262   7.452  12.050   3.837  0.6241  1.3729 -0.8267
13219SOL    HW246263   7.564  12.120   3.911  0.4853 -0.5296  1.2844
13220SOL     OW46264   3.760   7.551   0.342  0.3937  0.5299  0.1461
13220SOL    HW146265   3.810   7.473   0.319 -1.4965 -0.0303 -2.5945
13220SOL    HW246266   3.731   7.587   0.258 -0.6806  2.9062  1.4316
13221SOL     OW46267   1.227  10.034   1.745 -0.3360  0.7061 -0.3325
13221SOL    HW146268   1.236   9.966   1.811 -0.3744  0.4685 -0.5742
13221SOL    HW246269   1.137  10.066   1.756 -0.7503 -0.1645 -1.0711
13222SOL     OW46270   0.417  11.684  11.989 -0.1610 -0.5463  0.0273
13222SOL    HW146271   0.393  11.669  12.081 -0.3095  1.3529  0.3259
13222SOL    HW246272   0.337  11.718  11.949  0.6120  1.1302 -0.1534
13223SOL     OW46273   6.885   3.316   7.464 -0.0215  0.1244  0.2611
13223SOL    HW146274   6.908   3.236   7.417 -0.0528  0.0449  0.3794
13223SOL    HW246275   6.843   3.285   7.544 -1.6752  0.2906 -0.5094
13224SOL     OW46276   5.184   4.180   1.558 -0.6452  0.1344 -0.1994
13224SOL    HW146277   5.159   4.159   1.468 -0.4875 -0.1410 -0.1780
13224SOL    HW246278   5.108   4.153   1.610 -1.3446  1.5960 -0.3783
13225SOL     OW46279   0.339   4.376   5.271 -0.4151  0.3201  0.4885
13225SOL    HW146280   0.245   4.363   5.283 -0.9306  0.7199 -2.4383
13225SOL    HW246281   0.347   4.468   5.245  0.3869 -0.3777 -2.0062
13226SOL     OW46282   9.725   0.080   5.724  0.1485  0.7098  0.1331
13226SOL    HW146283   9.724   0.175   5.710  0.4182  0.8086  0.7794
13226SOL    HW246284   9.643   0.061   5.769 -0.3920  0.4818 -0.8918
13227SOL     OW46285   8.666  11.814   3.887  0.3081 -0.0393 -0.1104
13227SOL    HW146286   8.601  11.830   3.955  0.3448 -2.7211  0.6457
13227SOL    HW246287   8.617  11.821   3.805 -0.9587 -1.7495  0.4425
13228SOL     OW46288   1.522   5.194   9.008  0.1164  0.1710  0.1086
13228SOL    HW146289   1.556   5.193   9.098  0.4619  1.0627 -0.0025
13228SOL    HW246290   1.596   5.223   8.955  0.3424 -1.7155 -0.6658
13229SOL     OW46291   4.897  12.309   9.672  0.7252 -0.0911  0.1672
13229SOL    HW146292   4.977  12.330   9.722  1.2927 -1.3362 -0.1913
13229SOL    HW246293   4.913  12.221   9.638  0.8674  1.1359 -3.2294
13230SOL     OW46294   8.944   8.561  10.772 -0.4867 -0.6491  0.1590
13230SOL    HW146295   9.003   8.506  10.824 -0.5214 -0.4793  0.3767
13230SOL    HW246296   8.906   8.622  10.835 -1.9144 -1.6105  0.2605
13231SOL     OW46297   6.438   4.153   4.788  0.2943 -0.6216 -0.1747
13231SOL    HW146298   6.528   4.164   4.819  0.0789  0.0988  0.2323
13231SOL    HW246299   6.441   4.177   4.696  0.5294 -0.6706 -0.1809
13232SOL     OW46300  10.257  10.058   1.410 -0.7986 -0.5196  0.3756
13232SOL    HW146301  10.292  10.009   1.336  0.0597 -0.5312  0.7836
13232SOL    HW246302  10.181  10.007   1.438 -1.3210 -0.3533 -0.6766
13233SOL     OW46303  11.065   1.174   9.107 -0.2180 -0.1618 -0.3436
13233SOL    HW146304  11.096   1.102   9.051 -1.9883 -1.5226  0.3289
13233SOL    HW246305  11.108   1.160   9.191 -1.1304 -0.9413  0.0190
13234SOL     OW46306   6.898   3.608   9.853 -0.0710 -0.2466 -0.0731
13234SOL    HW146307   6.843   3.684   9.838 -0.8464 -1.1258 -2.0493
13234SOL    HW246308   6.866   3.572   9.936 -2.1768 -0.4337 -0.8988
13235SOL     OW46309   1.047   6.742  10.194  0.2862 -0.5925  0.4323
13235SOL    HW146310   0.968   6.760  10.145  0.4093  0.3589  0.5647
13235SOL    HW246311   1.085   6.665  10.152 -0.4149 -0.7131  0.0197
13236SOL     OW46312   7.861   4.753   0.849  0.2515 -0.3948  0.0027
13236SOL    HW146313   7.880   4.674   0.799 -1.3671  0.6995 -2.5367
13236SOL    HW246314   7.851   4.821   0.783  1.4561  1.9601  2.0931
13237SOL     OW46315   7.667   4.531   0.770 -0.2024 -0.2195 -0.5805
13237SOL    HW146316   7.592   4.484   0.732 -3.0691  3.4041  0.0698
13237SOL    HW246317   7.721   4.554   0.694 -0.0581 -2.2828 -1.1528
13238SOL     OW46318   3.655  11.374   8.487 -0.5436  0.1484 -0.4971
13238SOL    HW146319   3.601  11.453   8.484  0.9644  1.1783 -2.1235
13238SOL    HW246320   3.686  11.362   8.398 -0.5500 -2.2016 -0.2473
13239SOL     OW46321  12.421   3.879   7.214 -0.3473 -0.4082  0.4483
13239SOL    HW146322  12.514   3.891   7.234  0.3513  2.1946 -3.2637
13239SOL    HW246323  12.377   3.948   7.263  0.5105  1.8807 -1.8009
13240SOL     OW46324   7.177   4.393  11.597 -0.0728  0.0955 -0.9089
13240SOL    HW146325   7.083   4.393  11.577 -0.2789 -0.4675 -0.0236
13240SOL    HW246326   7.220   4.373  11.514 -0.7147  0.7426 -1.4031
13241SOL     OW46327   5.679   8.980   4.665 -0.2460  0.0059 -0.0538
13241SOL    HW146328   5.716   9.045   4.606  0.3302 -0.8036 -0.6166
13241SOL    HW246329   5.591   9.011   4.684 -0.1286  0.7226 -0.6472
13242SOL     OW46330   5.820  12.058   8.227 -0.2851  0.0435 -0.1427
13242SOL    HW146331   5.801  12.152   8.230 -0.6833 -0.0405  0.0768
13242SOL    HW246332   5.771  12.022   8.301 -1.5837 -0.5780 -1.2562
13243SOL     OW46333   5.834   7.741   5.039  0.1585 -0.5134 -0.0911
13243SOL    HW146334   5.842   7.830   5.005  1.0239 -0.7647 -0.5652
13243SOL    HW246335   5.801   7.690   4.965 -0.4768 -0.5744  0.2215
13244SOL     OW46336  10.254   0.792   5.302  0.0112 -0.4661 -0.2304
13244SOL    HW146337  10.212   0.841   5.232 -0.9200 -0.4516  0.3251
13244SOL    HW246338  10.326   0.745   5.259 -1.0412 -1.1109 -1.3615
13245SOL     OW46339   4.581  12.578   2.706 -0.2362  0.0656  0.4340
13245SOL    HW146340   4.557  12.576   2.799  1.3662  1.7266  0.9515
13245SOL    HW246341   4.676  12.566   2.706 -0.2131  0.0680 -1.0195
13246SOL     OW46342   7.375   9.619   5.856  0.8316 -0.1102  0.0368
13246SOL    HW146343   7.441   9.687   5.870 -1.4710  2.1401  0.8333
13246SOL    HW246344   7.368   9.575   5.941  1.4554 -0.5173 -0.1190
13247SOL     OW46345   6.377   9.129   1.625  0.0192 -0.5081 -0.1030
13247SOL    HW146346   6.451   9.108   1.682 -0.4684  0.4971  0.9262
13247SOL    HW246347   6.312   9.168   1.683 -0.4269  0.7056 -1.3764
13248SOL     OW46348   5.327   7.732   3.080 -0.3627 -0.2059  0.4253
13248SOL    HW146349   5.297   7.791   3.011  2.3654 -0.1269 -0.8294
13248SOL    HW246350   5.269   7.656   3.075 -1.2674  0.5354 -0.8050
13249SOL     OW46351   3.211  10.246  10.541 -0.3089  0.6217 -0.3189
13249SOL    HW146352   3.306  10.238  10.553 -0.3914 -0.1874 -0.1602
13249SOL    HW246353   3.175  10.168  10.581 -0.9937  0.5710 -1.0072
13250SOL     OW46354  12.361   6.140   3.357 -0.6091  0.4947  0.0111
13250SOL    HW146355  12.269   6.167   3.344 -0.6091 -0.0731 -1.3820
13250SOL    HW246356  12.356   6.061   3.410 -0.9456  0.2962 -0.3150
13251SOL     OW46357   2.358   7.560  11.776  0.2839  0.2178 -0.6270
13251SOL    HW146358   2.344   7.583  11.868 -0.3618 -0.8593 -0.4412
13251SOL    HW246359   2.396   7.639  11.737 -1.9688  1.6750 -0.0664
13252SOL     OW46360  12.294  11.979   2.932  0.0114 -0.3293  0.2700
13252SOL    HW146361  12.385  11.997   2.955  0.1279  0.4655 -0.7352
13252SOL    HW246362  12.298  11.946   2.842 -0.5925 -1.5454  0.6642
13253SOL     OW46363  10.968  11.702  12.346 -0.2065  0.6813  0.0534
13253SOL    HW146364  11.001  11.627  12.396  0.4563  1.6272  1.0898
13253SOL    HW246365  10.879  11.678  12.323 -0.2941 -0.0884  1.0993
13254SOL     OW46366  11.213   1.753   5.281 -1.0178  0.0488 -0.1218
13254SOL    HW146367  11.239   1.765   5.189 -1.2206  0.0156 -0.1828
13254SOL    HW246368  11.234   1.837   5.322 -0.7285 -0.0063 -0.1507
13255SOL     OW46369   6.676   7.392   7.404 -0.8909  0.7139  0.5675
13255SOL    HW146370   6.654   7.457   7.337 -0.5580 -0.1283 -0.3804
13255SOL    HW246371   6.676   7.442   7.486 -0.3498  1.9748 -0.1614
13256SOL     OW46372   4.381   7.970   8.654  0.5887 -0.0046 -0.3463
13256SOL    HW146373   4.460   7.947   8.701 -0.2151 -2.2929  0.0037
13256SOL    HW246374   4.365   8.061   8.677  3.5778  0.8408 -1.1696
13257SOL     OW46375   3.552   3.345   3.629  0.5317 -0.4116  0.3119
13257SOL    HW146376   3.514   3.284   3.692  0.1357  0.5462  1.0328
13257SOL    HW246377   3.594   3.412   3.684  0.4872  0.2487 -0.4497
13258SOL     OW46378   2.672  10.160   7.954 -0.4381  0.2202 -0.5815
13258SOL    HW146379   2.634  10.187   8.037 -0.7644  0.9918 -0.9689
13258SOL    HW246380   2.627  10.214   7.889 -0.1065 -0.2915 -1.2443
13259SOL     OW46381  10.276   6.350   1.205  0.0636 -0.2865 -0.0076
13259SOL    HW146382  10.241   6.418   1.147 -2.5393 -1.3896  0.1190
13259SOL    HW246383  10.307   6.398   1.282 -1.1985  0.8259 -0.1492
13260SOL     OW46384  12.705   9.656   8.996 -0.0004 -0.0428  0.8500
13260SOL    HW146385  12.740   9.578   8.952 -1.5089 -2.0775  3.0108
13260SOL    HW246386  12.760   9.667   9.073  0.1411  1.0159  0.6099
13261SOL     OW46387   6.580   4.348   1.386 -0.0873  0.0671  0.0205
13261SOL    HW146388   6.600   4.258   1.409 -0.5726 -0.1608 -0.4286
13261SOL    HW246389   6.540   4.343   1.299 -3.2962  0.3377  1.3432
13262SOL     OW46390   1.982   7.065   7.745  0.0971  0.1314 -0.6484
13262SOL    HW146391   2.010   7.154   7.723 -0.1712  0.5906  0.7905
13262SOL    HW246392   1.917   7.077   7.813  0.1903 -1.1878 -0.3171
13263SOL     OW46393   3.284   7.281  10.329 -0.0868  0.0643 -0.7771
13263SOL    HW146394   3.268   7.251  10.240  0.2751 -1.6903 -0.2951
13263SOL    HW246395   3.332   7.363  10.319 -1.2291  0.5964 -2.1795
13264SOL     OW46396   0.514   2.834   4.057  0.1149  0.3187 -0.0982
13264SOL    HW146397   0.439   2.881   4.022 -0.8194  0.0678  1.5013
13264SOL    HW246398   0.582   2.846   3.990 -0.7338  2.1398 -0.7152
13265SOL     OW46399  10.355   4.672  11.586  0.0889 -0.3935 -0.0901
13265SOL    HW146400  10.314   4.716  11.661  0.7914 -0.8187  0.5529
13265SOL    HW246401  10.325   4.582  11.591 -0.9488 -0.1323 -1.1267
13266SOL     OW46402   1.251   3.726   0.787  0.4330 -0.2986  0.3583
13266SOL    HW146403   1.210   3.641   0.769  1.0995 -0.0526 -2.8380
13266SOL    HW246404   1.229   3.743   0.879 -3.4292 -1.8963 -0.0546
13267SOL     OW46405  12.730   9.119   2.049  0.3018  0.7717  0.0560
13267SOL    HW146406  12.756   9.195   2.102 -1.2374  1.1359  0.3368
13267SOL    HW246407  12.772   9.044   2.092  0.4977  1.2718  0.7531
13268SOL     OW46408   4.228  10.943   9.611 -0.0379 -0.1547 -0.1927
13268SOL    HW146409   4.294  10.897   9.663 -1.2982  0.0323  1.6819
13268SOL    HW246410   4.188  10.875   9.557  1.6603 -0.2626 -1.3741
13269SOL     OW46411   0.906   0.648   4.925  0.3242 -0.5563  0.2166
13269SOL    HW146412   0.876   0.718   4.868  1.0506 -0.0677  0.4229
13269SOL    HW246413   0.928   0.576   4.866 -1.1901 -0.9209  0.0565
13270SOL     OW46414   6.542   2.108   2.636  0.1037  0.5209  0.5142
13270SOL    HW146415   6.606   2.037   2.649 -2.1233 -1.6117  0.4883
13270SOL    HW246416   6.507   2.125   2.724 -1.8444 -0.9574  0.0948
13271SOL     OW46417  10.754  11.696   8.541 -0.7065 -0.7286 -0.3427
13271SOL    HW146418  10.748  11.662   8.631  1.1682  0.8111  0.4250
13271SOL    HW246419  10.678  11.753   8.532 -1.5774 -1.8233 -0.1965
13272SOL     OW46420  10.627   7.108   1.529 -0.4916 -0.0962  0.0866
13272SOL    HW146421  10.699   7.135   1.586 -0.8710  0.9199  0.1027
13272SOL    HW246422  10.632   7.012   1.529  1.2580 -0.0374 -0.4561
13273SOL     OW46423   9.514   6.148  11.219  0.2327  0.3234  0.0865
13273SOL    HW146424   9.524   6.179  11.130  1.9060 -0.8989 -0.2068
13273SOL    HW246425   9.591   6.181  11.265 -0.2301  0.3259  0.8844
13274SOL     OW46426   2.815   6.350   6.094 -0.2068  0.1007 -0.2514
13274SOL    HW146427   2.748   6.413   6.065 -0.7172 -1.0445 -1.6432
13274SOL    HW246428   2.878   6.347   6.022  1.5188  1.2943  1.1086
13275SOL     OW46429   9.913  12.316   2.223 -0.1972  0.1240  0.1329
13275SOL    HW146430   9.959  12.238   2.190  1.2819  0.9905  0.0592
13275SOL    HW246431   9.955  12.389   2.178 -1.5192  0.9852  0.2542
13276SOL     OW46432   6.820  11.895   8.987  0.0542  0.3891 -0.0351
13276SOL    HW146433   6.822  11.811   8.942  1.5404  0.5221 -0.2790
13276SOL    HW246434   6.796  11.873   9.077 -1.5943 -0.0313 -0.5500
13277SOL     OW46435   4.278   7.202  10.392 -0.5643  0.3167 -0.0789
13277SOL    HW146436   4.296   7.164  10.306  0.6045 -0.8905  0.6521
13277SOL    HW246437   4.202   7.154  10.425 -0.7877  0.5254 -0.2950
13278SOL     OW46438  11.015  10.599   0.813  0.1456 -0.3348 -0.3761
13278SOL    HW146439  11.005  10.505   0.798  0.2310 -0.4341  0.1797
13278SOL    HW246440  10.989  10.639   0.730  1.5094 -0.9136 -1.1142
13279SOL     OW46441   2.831   8.806   2.910  0.1273  0.0371  0.0528
13279SOL    HW146442   2.763   8.844   2.855  0.4078  0.5752  0.0796
13279SOL    HW246443   2.840   8.866   2.984  1.0327  0.2700 -0.2394
13280SOL     OW46444  10.667  11.356   6.731 -0.2497  0.2871 -0.2565
13280SOL    HW146445  10.658  11.263   6.752  1.5301  0.1300  0.0204
13280SOL    HW246446  10.742  11.385   6.784 -0.1766  1.6385 -1.0540
13281SOL     OW46447  11.218   7.551  11.282  0.8148 -0.1652  0.1776
13281SOL    HW146448  11.289   7.486  11.277  1.3444  0.4102  0.0159
13281SOL    HW246449  11.235   7.611  11.209 -0.4124 -0.5696 -0.4696
13282SOL     OW46450   8.555   8.069   1.955  0.3257  0.4090 -0.2621
13282SOL    HW146451   8.635   8.063   2.007  1.5823  0.5824 -2.1103
13282SOL    HW246452   8.487   8.033   2.012  2.1201 -1.9904  0.5173
13283SOL     OW46453   5.914   4.827   0.558 -0.4940 -0.1467  0.0091
13283SOL    HW146454   5.892   4.869   0.475 -0.5505 -2.1225 -1.0292
13283SOL    HW246455   5.999   4.786   0.543 -1.1354 -1.7081  0.4235
13284SOL     OW46456   8.307  12.522  12.718 -0.4345 -0.5694 -1.2185
13284SOL    HW146457   8.358  12.541  12.796 -0.9602  2.8614 -1.5655
13284SOL    HW246458   8.355  12.564  12.647 -3.2850  2.3745 -1.6291
13285SOL     OW46459   6.060   2.049   3.153  0.2577  0.2046  0.4142
13285SOL    HW146460   6.066   1.986   3.081 -0.4577  0.0013  0.5183
13285SOL    HW246461   6.068   1.996   3.232  0.7063  0.3836  0.4914
13286SOL     OW46462   3.377   9.720   9.622 -0.6041 -0.1857  0.4695
13286SOL    HW146463   3.330   9.763   9.550  1.0100  1.9900  0.6299
13286SOL    HW246464   3.397   9.633   9.588 -2.3469 -0.2100 -0.6086
13287SOL     OW46465  11.091   1.321   6.524 -0.3358  0.0586  0.2714
13287SOL    HW146466  11.056   1.366   6.601  0.7636  0.6166  0.4602
13287SOL    HW246467  11.031   1.343   6.453  0.0877  1.7121  0.3938
13288SOL     OW46468   0.487   7.406  12.420 -0.0986 -0.4739 -0.0326
13288SOL    HW146469   0.405   7.452  12.403 -1.1572 -1.7059  1.4562
13288SOL    HW246470   0.505   7.358  12.339 -1.5307 -1.1607  0.0328
13289SOL     OW46471   3.089   0.164   5.754 -0.1112 -0.0975  0.1486
13289SOL    HW146472   3.009   0.214   5.737  0.7536  1.3276  0.1082
13289SOL    HW246473   3.097   0.162   5.849 -0.2145 -0.3042  0.1552
13290SOL     OW46474   9.060   1.283   9.127 -0.0106 -0.0676 -0.3493
13290SOL    HW146475   9.001   1.296   9.053  0.2770  0.2749 -0.5185
13290SOL    HW246476   9.141   1.326   9.102  0.5226 -1.0308 -0.3605
13291SOL     OW46477   5.115   4.898   9.880  0.1881 -0.1592 -0.2908
13291SOL    HW146478   5.040   4.922   9.825  1.0745 -0.5532 -1.7539
13291SOL    HW246479   5.134   4.976   9.931 -1.2866 -0.0968  0.2070
13292SOL     OW46480   5.041   7.331   7.669  0.5778 -0.9589 -0.0307
13292SOL    HW146481   4.996   7.248   7.653  0.0111 -0.7551  0.4684
13292SOL    HW246482   5.061   7.365   7.582 -1.4951 -0.3719 -0.3297
13293SOL     OW46483   8.492  11.063  11.785  0.1246 -0.1454 -0.7810
13293SOL    HW146484   8.485  11.109  11.701  2.0784 -0.3722 -1.1031
13293SOL    HW246485   8.523  11.130  11.846  2.1147 -0.7690 -1.0554
13294SOL     OW46486   5.993  12.151  12.146 -0.9101 -0.3849 -0.0884
13294SOL    HW146487   6.022  12.181  12.233 -1.0069  1.7578 -0.7371
13294SOL    HW246488   5.969  12.059  12.159  0.1505 -0.4328  1.8908
13295SOL     OW46489   9.198  11.118   1.577  0.4628  0.3432  0.0674
13295SOL    HW146490   9.127  11.053   1.573 -0.1945  1.1234 -1.6960
13295SOL    HW246491   9.267  11.074   1.626 -0.8701 -0.7922  1.0221
13296SOL     OW46492   6.043  11.796   3.465 -0.9089  0.0621  0.2086
13296SOL    HW146493   6.047  11.787   3.561  2.5916 -1.8447  0.0558
13296SOL    HW246494   6.097  11.872   3.446  1.7605 -1.8143 -0.2896
13297SOL     OW46495  12.083   4.569   5.765  0.3443 -0.2003  0.1060
13297SOL    HW146496  12.167   4.612   5.744  1.4754 -2.7656 -1.0624
13297SOL    HW246497  12.030   4.639   5.804  2.5454  1.8544 -0.2987
13298SOL     OW46498   8.138   0.352   1.909 -0.1958  0.4211 -0.2013
13298SOL    HW146499   8.202   0.401   1.857 -0.8378  0.6389 -0.8006
13298SOL    HW246500   8.121   0.408   1.984 -0.0044  0.5563 -0.2573
13299SOL     OW46501   4.006  10.817   2.060  0.0728 -0.4411  0.4529
13299SOL    HW146502   4.051  10.809   1.976 -0.2294 -0.1141  0.2630
13299SOL    HW246503   3.914  10.833   2.038  0.0465 -0.0355  0.8472
13300SOL     OW46504   5.505   7.240   4.991  0.4570 -0.6621 -0.2354
13300SOL    HW146505   5.457   7.318   5.020  0.4501 -0.3739 -0.9727
13300SOL    HW246506   5.574   7.275   4.934  1.0131 -1.1358  0.1439
13301SOL     OW46507   3.487  10.134   7.476 -0.3958  0.1351  0.6781
13301SOL    HW146508   3.565  10.172   7.515 -1.3913  1.1058  1.8009
13301SOL    HW246509   3.512  10.045   7.454  1.0611  0.4738  0.8867
13302SOL     OW46510   6.071   1.681   1.833 -0.0024 -0.4191  0.2268
13302SOL    HW146511   6.112   1.611   1.782 -0.2156 -0.0044 -0.5277
13302SOL    HW246512   6.034   1.637   1.909  3.2976 -0.6222  1.8735
13303SOL     OW46513  10.023   2.266  11.120  0.5059  0.8905 -0.1622
13303SOL    HW146514  10.086   2.221  11.064  0.2278 -0.5610  0.6230
13303SOL    HW246515  10.012   2.352  11.081  1.5584  0.4988 -1.3726
13304SOL     OW46516   4.057   7.765   1.933 -0.1985 -0.8441 -0.0668
13304SOL    HW146517   4.011   7.702   1.878  2.5551 -2.4317 -0.7713
13304SOL    HW246518   4.140   7.722   1.954  1.0179  1.8016  1.0271
13305SOL     OW46519   5.390   7.802   4.584  0.2145  0.7497 -0.0754
13305SOL    HW146520   5.337   7.827   4.659  1.3145 -0.5741  1.2034
13305SOL    HW246521   5.333   7.817   4.508 -1.5057  0.6058  1.1287
13306SOL     OW46522   6.662   3.521   7.321  0.3838 -0.3343  0.0148
13306SOL    HW146523   6.677   3.510   7.227 -0.4771 -0.0954 -0.1644
13306SOL    HW246524   6.748   3.507   7.361  0.8312 -0.1045 -0.8328
13307SOL     OW46525   7.981  12.332   7.580  0.5192  0.8153 -1.0387
13307SOL    HW146526   8.040  12.304   7.650  1.0281 -2.1996 -2.5013
13307SOL    HW246527   7.901  12.357   7.625  1.2974  0.3185  0.7165
13308SOL     OW46528   7.826  10.929   6.389 -0.3745 -0.3756 -0.3420
13308SOL    HW146529   7.827  10.931   6.293  0.5141 -2.3615 -0.4281
13308SOL    HW246530   7.765  10.858   6.411  0.3912 -0.7910  0.5018
13309SOL     OW46531   7.507   8.696   4.286 -0.2119 -0.0491  0.6675
13309SOL    HW146532   7.533   8.604   4.287  1.1367  0.2380 -1.2830
13309SOL    HW246533   7.413   8.694   4.268 -0.2873 -1.0511  1.1288
13310SOL     OW46534  10.043   4.900  11.317 -0.2772  0.3336  0.1262
13310SOL    HW146535  10.121   4.943  11.284 -0.5331 -0.6574 -1.9290
13310SOL    HW246536  10.063   4.807  11.312 -2.0605 -0.0059 -1.8541
13311SOL     OW46537   6.211   1.980  11.921 -0.1009 -0.3560  0.0762
13311SOL    HW146538   6.228   1.974  11.827 -0.0204 -1.0132  0.1257
13311SOL    HW246539   6.265   1.910  11.959  0.7157  0.6037  0.7255
13312SOL     OW46540   2.651   5.369   5.749  0.3344  0.5413  0.6398
13312SOL    HW146541   2.684   5.385   5.837 -0.4430  1.9946  0.6861
13312SOL    HW246542   2.703   5.425   5.692  0.6525 -0.1881  0.1943
13313SOL     OW46543  11.372   7.353   5.355 -0.2785 -0.0185  0.5417
13313SOL    HW146544  11.399   7.415   5.422  1.5423 -0.3679  0.1746
13313SOL    HW246545  11.438   7.361   5.286  0.2482 -2.6316  0.6634
13314SOL     OW46546   1.157   2.192   7.842 -1.0495 -0.1424  0.0620
13314SOL    HW146547   1.206   2.233   7.770 -0.1625 -1.1480  0.0736
13314SOL    HW246548   1.066   2.192   7.812 -0.7856  0.1033 -0.7547
13315SOL     OW46549   2.407  10.636  10.051  0.1404  0.3491  0.3900
13315SOL    HW146550   2.493  10.625  10.010 -0.8869 -0.8600 -1.5638
13315SOL    HW246551   2.387  10.729  10.040 -0.4179 -0.0234 -2.7327
13316SOL     OW46552   2.974  12.102   4.062  0.3165 -0.3077  0.1280
13316SOL    HW146553   2.967  12.028   4.002 -1.2332 -0.6731  0.7007
13316SOL    HW246554   3.006  12.174   4.008  0.8795 -1.1332 -0.6648
13317SOL     OW46555   3.537   4.918  11.339 -0.0327 -0.2540 -0.0459
13317SOL    HW146556   3.472   4.918  11.410 -0.2658  0.4170 -0.2513
13317SOL    HW246557   3.485   4.924  11.259  0.2753  0.1615 -0.2193
13318SOL     OW46558   3.694   4.595   2.001 -0.1420 -0.7321 -0.1976
13318SOL    HW146559   3.764   4.571   1.940 -0.4152 -1.9058 -0.0812
13318SOL    HW246560   3.712   4.686   2.024  2.2058 -1.3981  0.9604
13319SOL     OW46561  12.290   5.641   0.803 -0.2274  0.2343 -0.1967
13319SOL    HW146562  12.351   5.715   0.801 -0.1282  0.2584  1.7311
13319SOL    HW246563  12.327   5.577   0.742  0.6849  1.0211 -0.4921
13320SOL     OW46564   5.434   8.970   0.905 -0.2143  0.3769 -0.1681
13320SOL    HW146565   5.433   9.031   0.832  0.6798  0.5636 -0.0288
13320SOL    HW246566   5.404   9.021   0.980 -1.0762  0.2004 -0.3719
13321SOL     OW46567   9.811   2.019   2.216  0.3208 -0.3447 -0.2515
13321SOL    HW146568   9.850   2.010   2.129 -1.8530  0.8814 -1.4395
13321SOL    HW246569   9.863   2.088   2.257  0.2816  0.3485 -1.3032
13322SOL     OW46570  11.357   2.720   1.096 -0.2188 -0.1952  0.7764
13322SOL    HW146571  11.414   2.735   1.020  0.8808 -2.3620  1.1083
13322SOL    HW246572  11.375   2.630   1.122 -1.8942 -0.0704  2.5386
13323SOL     OW46573  12.303   2.010   2.495  0.0383 -0.2805 -0.2567
13323SOL    HW146574  12.217   2.040   2.525  0.5087  0.5837  0.2558
13323SOL    HW246575  12.326   2.070   2.424  0.9969  0.6219  0.7902
13324SOL     OW46576   1.509   1.287   9.217  0.1090  0.4296 -0.0127
13324SOL    HW146577   1.450   1.270   9.143 -0.9316 -0.6661  1.0378
13324SOL    HW246578   1.538   1.200   9.244  1.1791  0.8804  0.3368
13325SOL     OW46579  12.709   8.806   4.956  0.5995  0.0210 -0.4571
13325SOL    HW146580  12.680   8.796   4.865  0.4033 -0.5257 -0.3383
13325SOL    HW246581  12.644   8.863   4.996  1.6280  1.7068 -1.1001
13326SOL     OW46582   1.689   5.782   4.173  0.4009 -0.1965 -0.0748
13326SOL    HW146583   1.666   5.864   4.130  1.1903  0.4815  0.7544
13326SOL    HW246584   1.622   5.720   4.145 -0.8229  0.9946  0.1348
13327SOL     OW46585   3.585  10.377  12.467 -0.0088  0.1555  0.1606
13327SOL    HW146586   3.576  10.443  12.536 -0.0985  0.3496 -0.0339
13327SOL    HW246587   3.575  10.427  12.385  1.7891  0.2076 -0.0587
13328SOL     OW46588   8.683   0.252   9.140  0.4027 -0.6535  0.1969
13328SOL    HW146589   8.770   0.263   9.180  0.5734  0.3239 -0.4007
13328SOL    HW246590   8.691   0.294   9.054 -0.3861 -1.4157 -0.2663
13329SOL     OW46591   1.800   1.031   5.037  0.3819 -0.0745  0.3509
13329SOL    HW146592   1.753   1.106   5.073 -0.5238 -1.1242  1.4067
13329SOL    HW246593   1.801   1.047   4.942 -1.3271  0.4078  0.3902
13330SOL     OW46594   4.836   1.828  12.166 -0.3318 -0.0377 -0.1900
13330SOL    HW146595   4.930   1.810  12.160 -0.4638 -1.2496  0.9627
13330SOL    HW246596   4.830   1.917  12.201  0.3977 -0.3673  0.7991
13331SOL     OW46597   0.345   9.818   4.035  0.2846  0.6903 -0.2806
13331SOL    HW146598   0.372   9.758   4.105 -1.1315  2.3075  1.8005
13331SOL    HW246599   0.405   9.892   4.043  0.4408  0.6683 -1.1615
13332SOL     OW46600   9.704   1.672  10.285  0.4049  0.0988  0.8029
13332SOL    HW146601   9.746   1.614  10.349  1.6443 -0.0567 -0.1195
13332SOL    HW246602   9.767   1.678  10.213 -0.6574  0.8362 -0.0955
13333SOL     OW46603  11.995   3.104   1.851 -0.7066 -0.8696  0.0766
13333SOL    HW146604  12.059   3.064   1.910 -0.7240 -0.5289  0.3288
13333SOL    HW246605  12.003   3.198   1.867 -1.5446 -0.8441  0.3931
13334SOL     OW46606   2.186   1.434  10.481  0.0051  0.5110 -0.0913
13334SOL    HW146607   2.266   1.439  10.533 -1.2735  0.4308  1.9650
13334SOL    HW246608   2.192   1.349  10.436 -0.8467 -1.6494  3.4930
13335SOL     OW46609   7.062   6.226   1.469 -0.1248 -0.2641 -0.1057
13335SOL    HW146610   7.142   6.195   1.426 -0.6993 -0.9860 -0.6732
13335SOL    HW246611   6.991   6.194   1.414 -0.8170  0.2721  0.4590
13336SOL     OW46612  11.271  12.319   8.306  0.1510 -0.2442  0.4286
13336SOL    HW146613  11.201  12.383   8.300  0.3725 -0.1036 -0.8566
13336SOL    HW246614  11.232  12.238   8.273  0.7307 -0.0318 -0.8310
13337SOL     OW46615   7.189   2.165  10.115 -0.3210 -0.5864  0.4866
13337SOL    HW146616   7.225   2.095  10.061 -2.0217 -1.2766  0.1512
13337SOL    HW246617   7.153   2.119  10.192  1.6744  0.3319  2.0427
13338SOL     OW46618   6.739   8.255   6.227  0.0777  0.0897  0.0500
13338SOL    HW146619   6.789   8.232   6.306 -1.0938  0.6960  0.9854
13338SOL    HW246620   6.746   8.350   6.221  0.4469  0.0217 -0.7964
13339SOL     OW46621   9.491   4.111   0.386  0.1079  0.3243  0.0581
13339SOL    HW146622   9.546   4.069   0.320 -0.0048  1.5503 -0.8368
13339SOL    HW246623   9.474   4.199   0.352  0.3758  1.1446  1.9054
13340SOL     OW46624   1.054  11.771  10.118  0.2568 -0.1031 -0.1604
13340SOL    HW146625   1.021  11.743  10.033  0.7733  0.1228 -0.4355
13340SOL    HW246626   1.041  11.694  10.175  1.3080 -0.7861 -0.8106
13341SOL     OW46627   8.721   7.550   9.150  0.9593  0.0475 -0.2175
13341SOL    HW146628   8.629   7.565   9.172  0.9446 -0.5958  0.1718
13341SOL    HW246629   8.740   7.615   9.082 -0.0468 -0.4383 -0.9883
13342SOL     OW46630   3.001   1.698   4.193 -0.1903  0.2405 -0.1676
13342SOL    HW146631   2.971   1.627   4.136  0.8166 -0.0228 -0.3865
13342SOL    HW246632   3.020   1.770   4.133 -0.9068  0.6035  0.0262
13343SOL     OW46633   7.295   6.120   1.858  0.3455 -0.3957  0.1516
13343SOL    HW146634   7.205   6.088   1.851  0.0735 -0.0415  1.6498
13343SOL    HW246635   7.307   6.176   1.781  0.4874 -3.1520 -1.9894
13344SOL     OW46636   0.543   2.794  12.248 -0.1352  0.0229  0.1301
13344SOL    HW146637   0.557   2.852  12.173 -0.5881 -0.2267 -0.1566
13344SOL    HW246638   0.523   2.709  12.208  0.3302 -0.2862  0.5425
13345SOL     OW46639   9.853   5.670   0.688 -0.1796  0.2318 -0.1969
13345SOL    HW146640   9.861   5.759   0.723 -0.7522 -0.3094  1.4405
13345SOL    HW246641   9.770   5.639   0.724  0.6518 -1.4293  0.3710
13346SOL     OW46642   4.461   3.651  11.917 -0.1972 -0.4161  0.1634
13346SOL    HW146643   4.414   3.685  11.993 -1.1768 -0.9061 -0.2056
13346SOL    HW246644   4.399   3.659  11.844  0.2956 -1.0482 -0.3445
13347SOL     OW46645   6.125   9.739   4.611  0.7386  0.3932 -0.2233
13347SOL    HW146646   6.084   9.657   4.639  1.6017 -0.3963 -1.1609
13347SOL    HW246647   6.104   9.745   4.517  1.6424  0.6581 -0.4147
13348SOL     OW46648   0.851   2.406   0.853  0.1143 -0.2667 -0.5551
13348SOL    HW146649   0.762   2.387   0.824  0.9372  0.7861 -4.2515
13348SOL    HW246650   0.848   2.499   0.876  0.1162 -0.4335  0.1511
13349SOL     OW46651   8.596   9.882   7.013  0.6758 -0.3057  0.0965
13349SOL    HW146652   8.646   9.803   7.032  0.6095  0.1172  2.3895
13349SOL    HW246653   8.662   9.948   6.994  0.7965 -0.5932 -0.4954
13350SOL     OW46654  11.286   9.384   0.702 -0.1662 -0.3779 -0.3737
13350SOL    HW146655  11.216   9.429   0.749 -0.5384  0.0157 -1.2720
13350SOL    HW246656  11.335   9.454   0.658 -0.0231 -0.7514 -0.8226
13351SOL     OW46657  11.469   2.204  12.087 -0.0249  0.2147  0.1788
13351SOL    HW146658  11.412   2.206  12.010  0.1898  0.9567  0.0292
13351SOL    HW246659  11.450   2.286  12.132  2.4125  1.5284 -0.9863
13352SOL     OW46660   0.239   8.241   0.524  0.6609  0.1586  0.7883
13352SOL    HW146661   0.159   8.188   0.514  0.1575  1.1855 -1.0454
13352SOL    HW246662   0.250   8.250   0.619 -2.4981  1.5689  1.1519
13353SOL     OW46663   1.312   9.977   4.544  0.1173 -0.0265  0.5552
13353SOL    HW146664   1.336  10.042   4.611 -0.9699 -1.3128  2.2566
13353SOL    HW246665   1.328   9.893   4.585 -0.0888 -0.8763 -1.0250
13354SOL     OW46666   2.356   3.843   5.731 -0.1880  0.2984  0.2924
13354SOL    HW146667   2.307   3.825   5.650 -1.6575  2.4554  0.6131
13354SOL    HW246668   2.398   3.760   5.752 -0.1600 -0.4871 -2.3934
13355SOL     OW46669   0.305  10.000   4.268 -0.7116  0.1263  0.1185
13355SOL    HW146670   0.311   9.937   4.340 -1.2391  0.8534  0.8057
13355SOL    HW246671   0.321  10.085   4.308  2.3628  0.3160 -1.1598
13356SOL     OW46672  12.453   5.051  10.266 -0.0130  0.7579  0.6384
13356SOL    HW146673  12.489   4.968  10.299 -0.6520 -0.1346 -0.7838
13356SOL    HW246674  12.360   5.032  10.250 -0.1397  1.7179  0.1626
13357SOL     OW46675   3.412   3.132  11.957 -0.4283  0.8170 -0.0374
13357SOL    HW146676   3.406   3.219  11.996  0.6137  0.5750  0.6893
13357SOL    HW246677   3.458   3.146  11.874  1.1222  0.7781  0.7817
13358SOL     OW46678   4.717  10.948  11.609 -0.5683  0.0108  0.3829
13358SOL    HW146679   4.664  10.896  11.669 -0.2895  1.0758  1.5866
13358SOL    HW246680   4.770  10.883  11.562 -0.7625 -0.8514  1.3079
13359SOL     OW46681   5.763   9.584   1.897 -0.5374 -0.2795  0.0180
13359SOL    HW146682   5.815   9.515   1.938 -1.2611 -0.9542 -0.1980
13359SOL    HW246683   5.828   9.649   1.869  0.3102 -1.6132 -1.2479
13360SOL     OW46684   3.972   8.581  11.118 -0.1143  0.4784 -0.4553
13360SOL    HW146685   4.049   8.544  11.075 -0.9088 -0.3830 -1.1812
13360SOL    HW246686   3.919   8.504  11.143 -0.8013  1.0572 -0.0885
13361SOL     OW46687  10.304   9.153   1.409 -0.0599 -0.1241  0.1456
13361SOL    HW146688  10.389   9.157   1.454  0.1922 -0.3484 -0.3121
13361SOL    HW246689  10.261   9.235   1.433  0.0553 -0.2498  0.8251
13362SOL     OW46690   5.330   6.161   6.190  0.4226  0.3094  0.4830
13362SOL    HW146691   5.308   6.190   6.279  1.9322  0.0657  0.9575
13362SOL    HW246692   5.403   6.100   6.201 -0.0868 -0.6032 -0.8466
13363SOL     OW46693  10.373  11.782   5.054  0.2232 -0.1480 -0.2543
13363SOL    HW146694  10.429  11.831   5.114  1.4857 -0.9967 -0.6995
13363SOL    HW246695  10.305  11.745   5.110  1.6695 -1.3533  0.7970
13364SOL     OW46696   4.910  12.136   3.062 -0.6349 -0.8224 -0.3599
13364SOL    HW146697   4.948  12.048   3.064  1.8924  0.1613 -0.9889
13364SOL    HW246698   4.942  12.178   3.142  1.2201  0.6049 -1.7627
13365SOL     OW46699   2.351   7.535  12.062 -0.3011 -0.1971  0.4783
13365SOL    HW146700   2.437   7.554  12.100 -1.2212  1.8879  1.6837
13365SOL    HW246701   2.348   7.439  12.057  1.9382 -0.3357  0.7346
13366SOL     OW46702  10.656   7.922   5.516 -0.0113 -0.4234 -0.2593
13366SOL    HW146703  10.749   7.942   5.521  0.4237 -2.2580 -0.2206
13366SOL    HW246704  10.649   7.832   5.548 -1.8877 -0.1228  0.3294
13367SOL     OW46705  10.935   1.098   7.786 -0.3962 -0.4990 -0.3099
13367SOL    HW146706  10.993   1.104   7.863 -1.1297  1.7587  0.1361
13367SOL    HW246707  10.930   1.004   7.768  1.7269 -0.9223  0.9090
13368SOL     OW46708   1.829   8.879  10.308  0.3031 -0.5483 -0.2004
13368SOL    HW146709   1.908   8.909  10.353 -0.7268  1.8266  0.2168
13368SOL    HW246710   1.763   8.946  10.329 -1.9939 -2.6965 -0.0673
13369SOL     OW46711   8.673   7.146   4.627 -0.2945 -0.7469  0.1909
13369SOL    HW146712   8.609   7.080   4.652  0.1353 -1.4283 -0.4443
13369SOL    HW246713   8.740   7.142   4.696  0.0294 -1.4089 -0.1490
13370SOL     OW46714   2.171  12.305   1.114  0.2469  0.6268 -0.4380
13370SOL    HW146715   2.225  12.330   1.039  1.2941  0.4798  0.2463
13370SOL    HW246716   2.180  12.377   1.176 -1.0273  0.9852 -0.6387
13371SOL     OW46717   5.189   0.293   0.439  0.1133 -0.1812  0.0679
13371SOL    HW146718   5.202   0.289   0.345  0.5854 -1.1128  0.1602
13371SOL    HW246719   5.252   0.231   0.475 -0.6534 -0.4882  0.9359
13372SOL     OW46720   7.786   0.057   6.800 -0.1980 -0.2750 -0.1521
13372SOL    HW146721   7.879   0.078   6.804 -0.2240 -0.3063  1.3139
13372SOL    HW246722   7.775  -0.014   6.865 -1.3125  0.0705  0.0572
13373SOL     OW46723   5.484   5.013   1.320  0.3135 -0.5875 -0.1984
13373SOL    HW146724   5.455   4.939   1.266  3.0476 -0.0632 -2.6152
13373SOL    HW246725   5.573   4.990   1.347 -0.8600 -0.8355  4.4023
13374SOL     OW46726  12.238   3.345   9.058 -0.3229 -0.6085 -0.1971
13374SOL    HW146727  12.309   3.294   9.096 -0.1085 -0.0897  0.1190
13374SOL    HW246728  12.259   3.436   9.082 -0.0267 -0.2336 -1.8089
13375SOL     OW46729   9.146   7.721   2.475 -0.1425  1.1097 -0.0699
13375SOL    HW146730   9.200   7.710   2.397  0.1155  1.1735  0.0944
13375SOL    HW246731   9.143   7.816   2.489 -2.4480  1.3241 -1.5427
13376SOL     OW46732   2.308   3.222   7.877  0.1181 -0.3482 -0.0024
13376SOL    HW146733   2.263   3.253   7.956 -0.0877  0.3237 -0.3750
13376SOL    HW246734   2.385   3.278   7.869  2.1812 -2.6982  1.7070
13377SOL     OW46735   6.925  11.557   6.262 -0.4762 -0.4464  0.5778
13377SOL    HW146736   6.890  11.603   6.338 -1.4503 -2.2128  1.2462
13377SOL    HW246737   6.969  11.480   6.298 -2.9929 -2.6454 -0.6329
13378SOL     OW46738  10.206  11.941  12.422 -0.3029  0.3849  0.1024
13378SOL    HW146739  10.291  11.970  12.388 -1.2600  0.8074 -2.0970
13378SOL    HW246740  10.208  11.965  12.515  1.4634  1.5599 -0.1852
13379SOL     OW46741  10.751   8.054   3.422  0.2041 -0.2305 -0.6130
13379SOL    HW146742  10.745   8.147   3.402 -1.5673 -0.0479  0.5265
13379SOL    HW246743  10.810   8.049   3.498 -0.2450  0.0490 -0.2411
13380SOL     OW46744   1.435   9.518   2.864 -0.1579 -0.6164 -0.2564
13380SOL    HW146745   1.499   9.447   2.870  0.0058 -0.4335  0.2533
13380SOL    HW246746   1.470   9.587   2.922  1.3632  1.2082 -3.1287
13381SOL     OW46747   0.158   1.367   7.007 -0.2275  0.4627 -0.3566
13381SOL    HW146748   0.086   1.405   6.957 -1.3074 -0.1177  0.6950
13381SOL    HW246749   0.198   1.441   7.053  0.7479  0.9951 -1.9869
13382SOL     OW46750  10.597   8.579   7.834 -0.5544  0.5872 -0.0047
13382SOL    HW146751  10.680   8.532   7.839 -0.8317  0.0410 -0.4862
13382SOL    HW246752  10.619   8.669   7.855 -0.0801  0.1804  1.3781
13383SOL     OW46753   3.574   4.690   7.593  0.1703 -0.2119  0.2327
13383SOL    HW146754   3.527   4.629   7.650 -0.5401  0.3769  0.2801
13383SOL    HW246755   3.581   4.771   7.644  1.3878 -0.3307  0.2951
13384SOL     OW46756  11.609   7.406  11.304 -0.7698  0.2951  0.3198
13384SOL    HW146757  11.534   7.353  11.275 -1.6836  2.3479 -1.3326
13384SOL    HW246758  11.613   7.391  11.398 -3.8454  0.7372  0.6472
13385SOL     OW46759   1.727   5.248   7.710 -0.1310  0.1132  0.1427
13385SOL    HW146760   1.814   5.210   7.695  0.2357  0.5292  1.1074
13385SOL    HW246761   1.673   5.212   7.639  0.9872  0.4001 -0.9000
13386SOL     OW46762   6.298   5.198   4.227  0.1405 -0.1844  0.0522
13386SOL    HW146763   6.333   5.227   4.143 -0.9057  0.1494 -0.2724
13386SOL    HW246764   6.250   5.118   4.207  1.9579 -1.5490  0.7465
13387SOL     OW46765   5.080   7.151   5.095  0.1638 -0.0308 -0.0849
13387SOL    HW146766   5.159   7.122   5.142  1.2011  0.1688 -1.6440
13387SOL    HW246767   5.111   7.173   5.007 -1.3785  1.4811 -0.2977
13388SOL     OW46768   7.378   1.001  10.956 -0.2761  0.2571  0.5054
13388SOL    HW146769   7.355   1.091  10.978 -0.8529 -0.0370  1.1233
13388SOL    HW246770   7.364   0.996  10.861  0.8043  1.1101  0.2724
13389SOL     OW46771   0.633   5.833   9.540  0.2353 -0.4563 -0.4136
13389SOL    HW146772   0.628   5.888   9.618  0.2724 -2.0581  0.7813
13389SOL    HW246773   0.723   5.841   9.511  0.3633 -0.2321  0.0284
13390SOL     OW46774   0.888  12.246  11.319  0.1307  0.0678  0.0946
13390SOL    HW146775   0.931  12.177  11.370  0.3894  0.8898  0.9977
13390SOL    HW246776   0.835  12.198  11.255  0.8305 -0.9665  0.2631
13391SOL     OW46777  12.506   3.907  10.744  0.8380 -0.3959 -0.3918
13391SOL    HW146778  12.521   3.872  10.832  0.9658  0.7499  0.0549
13391SOL    HW246779  12.488   3.830  10.690 -1.9662 -0.9367  1.1678
13392SOL     OW46780   1.167  10.588   5.717 -0.0094 -0.3560 -0.4698
13392SOL    HW146781   1.222  10.552   5.787 -0.6311  0.2617  0.3762
13392SOL    HW246782   1.215  10.571   5.637  1.5855  0.4456  0.2647
13393SOL     OW46783   1.627   5.525  11.491  0.0271 -0.5413  0.1661
13393SOL    HW146784   1.582   5.503  11.409  1.6464  1.1657 -1.2720
13393SOL    HW246785   1.684   5.449  11.507 -0.6910 -1.1257  0.0313
13394SOL     OW46786   8.514   7.689   7.299  0.7223  0.0717 -0.3828
13394SOL    HW146787   8.559   7.678   7.382  0.7669 -2.7692 -0.6920
13394SOL    HW246788   8.584   7.712   7.237  0.6275  2.6554  0.3349
13395SOL     OW46789   1.008   0.614   8.269  0.2281  0.0254  0.3276
13395SOL    HW146790   1.032   0.546   8.333 -0.0086  0.6268  1.0794
13395SOL    HW246791   1.084   0.672   8.268  0.0706  0.2335  0.3671
13396SOL     OW46792   5.990   2.951  11.314 -0.2428 -0.1671 -0.2049
13396SOL    HW146793   5.916   2.890  11.306  0.2143 -0.6268 -1.0445
13396SOL    HW246794   6.054   2.919  11.250 -1.2757  3.0734 -3.1810
13397SOL     OW46795   9.111   8.112   0.125 -0.3443  0.3443  0.1834
13397SOL    HW146796   9.183   8.068   0.169  0.0494  0.4373 -0.3544
13397SOL    HW246797   9.077   8.174   0.190 -0.7294 -0.5407  0.8520
13398SOL     OW46798   2.830  11.654  10.230  0.0298  0.3904 -0.6873
13398SOL    HW146799   2.883  11.588  10.276 -0.7709 -1.0076 -1.6734
13398SOL    HW246800   2.819  11.725  10.293 -0.1973 -1.0017  0.9234
13399SOL     OW46801   8.785   7.013  10.829  0.4917 -0.4590 -0.2663
13399SOL    HW146802   8.796   6.937  10.772 -0.5287 -1.0276  0.2726
13399SOL    HW246803   8.869   7.018  10.877 -0.1164 -2.5520  1.2090
13400SOL     OW46804   6.345   1.337   5.741  0.2197 -0.5560  0.0439
13400SOL    HW146805   6.307   1.356   5.656 -0.7808 -0.0154  0.5957
13400SOL    HW246806   6.284   1.375   5.804  0.3001 -2.0151  1.0540
13401SOL     OW46807   4.732   0.037   0.012 -0.4108  0.1542 -0.3295
13401SOL    HW146808   4.786   0.002  -0.059 -0.9213 -0.8547 -0.2342
13401SOL    HW246809   4.789   0.035   0.089 -0.2321  0.1413 -0.4611
13402SOL     OW46810   1.142   5.637   5.648  0.2499 -0.0787  0.2094
13402SOL    HW146811   1.134   5.578   5.573  2.7370 -0.5307  0.2091
13402SOL    HW246812   1.079   5.604   5.712  0.0747 -1.4072 -0.6222
13403SOL     OW46813   8.199   6.317   4.684 -0.3331  0.1992 -0.4551
13403SOL    HW146814   8.133   6.387   4.692  0.0448  0.3969  1.4499
13403SOL    HW246815   8.275   6.351   4.732 -0.1398 -1.4931  0.5158
13404SOL     OW46816   6.516  12.623  10.611 -0.5958 -0.7537 -0.0249
13404SOL    HW146817   6.482  12.587  10.528  0.6684 -1.9435 -0.0628
13404SOL    HW246818   6.488  12.714  10.611 -1.2531 -0.9293 -1.4205
13405SOL     OW46819   3.904   9.850   4.322 -0.4758  0.0293 -0.0279
13405SOL    HW146820   3.973   9.828   4.260  0.0352  0.1798  0.4712
13405SOL    HW246821   3.885   9.942   4.306 -1.0623 -0.1973 -0.6418
13406SOL     OW46822  10.737   4.527   4.601  0.3920 -0.6210  0.2854
13406SOL    HW146823  10.741   4.447   4.652  0.7344 -1.7573 -1.4295
13406SOL    HW246824  10.806   4.583   4.637 -0.1683 -0.8747  1.8092
13407SOL     OW46825  11.989  12.389  10.017  0.2165  0.0892 -0.0339
13407SOL    HW146826  12.041  12.349  10.086  0.2733  0.9468  0.4315
13407SOL    HW246827  11.919  12.326   9.999  0.9140 -0.6836 -0.0636
13408SOL     OW46828   3.447   9.569   6.305 -0.1938  0.4246  1.0920
13408SOL    HW146829   3.384   9.536   6.240  0.7078  1.7443 -0.5283
13408SOL    HW246830   3.514   9.501   6.310  0.2495  0.7340 -0.1694
13409SOL     OW46831  12.531  11.011   3.774 -0.6839 -0.0406 -0.3908
13409SOL    HW146832  12.452  10.961   3.798  0.0246 -1.0587 -0.0894
13409SOL    HW246833  12.520  11.030   3.680 -0.7539 -1.2340 -0.6466
13410SOL     OW46834   6.808   2.781   5.317  0.4224  0.4546 -0.0524
13410SOL    HW146835   6.731   2.806   5.369 -1.2837 -2.0785 -1.1406
13410SOL    HW246836   6.811   2.685   5.324  2.0943  0.3112 -1.9384
13411SOL     OW46837   1.444   7.889   5.185  0.0234 -0.6039 -0.2883
13411SOL    HW146838   1.448   7.972   5.233  0.9557 -1.1460  0.5985
13411SOL    HW246839   1.506   7.832   5.229 -0.6842 -1.8299 -0.8155
13412SOL     OW46840   0.998   3.339   4.415 -0.2883 -0.0937  0.3667
13412SOL    HW146841   0.905   3.317   4.407  0.0366 -1.3536 -0.2689
13412SOL    HW246842   1.006   3.381   4.500 -1.3935 -0.2130  0.5422
13413SOL     OW46843   6.070   6.415   3.809  0.5521  0.4476  0.2011
13413SOL    HW146844   6.069   6.454   3.897 -1.2189 -1.7696  1.2706
13413SOL    HW246845   6.163   6.399   3.792  0.8770 -0.0204  2.1549
13414SOL     OW46846   4.302  11.378  10.319  0.0418  0.3120 -0.1278
13414SOL    HW146847   4.394  11.356  10.304  0.1096 -0.3358  1.1298
13414SOL    HW246848   4.255  11.334  10.249  0.5859 -0.3562 -0.0803
13415SOL     OW46849  12.331   8.627   9.261  0.0396 -0.0684  0.6419
13415SOL    HW146850  12.325   8.535   9.287  0.4820 -0.2847  0.0133
13415SOL    HW246851  12.318   8.676   9.342 -2.4487 -0.6130  0.6501
13416SOL     OW46852   7.494   4.598   1.202  0.0898 -0.5313 -0.4472
13416SOL    HW146853   7.575   4.569   1.161  1.3277 -1.8334  2.5635
13416SOL    HW246854   7.431   4.529   1.180 -0.0402  0.0774 -2.1363
13417SOL     OW46855   3.659   3.050  10.728 -0.2992  0.6853 -0.9165
13417SOL    HW146856   3.563   3.050  10.728 -0.3459 -1.4131 -1.6601
13417SOL    HW246857   3.683   3.020  10.640  1.0213  0.5862 -0.5353
13418SOL     OW46858   4.872   9.667   1.090 -0.2218  0.2985  0.2363
13418SOL    HW146859   4.840   9.625   1.170  0.1893 -0.8191 -0.1609
13418SOL    HW246860   4.838   9.613   1.019  0.3236  0.6377 -0.2956
13419SOL     OW46861   1.898  11.854   4.153  0.9224 -0.2106 -0.1024
13419SOL    HW146862   1.913  11.846   4.059  3.1022 -0.2856  0.1943
13419SOL    HW246863   1.820  11.801   4.169  1.7330 -1.9972 -1.5736
13420SOL     OW46864   1.113   7.372   2.072  0.4321  0.1123 -0.2829
13420SOL    HW146865   1.202   7.405   2.081  0.7565 -0.4963 -1.1436
13420SOL    HW246866   1.063   7.421   2.137  1.4114  0.3743  0.3045
13421SOL     OW46867  10.482   8.305  10.827  0.0467 -0.6199 -0.4141
13421SOL    HW146868  10.495   8.217  10.863  1.0385 -0.7092 -0.9752
13421SOL    HW246869  10.534   8.307  10.748 -0.1792  0.3988 -0.5539
13422SOL     OW46870   5.489   2.767   6.157 -0.3051 -0.4834 -0.1131
13422SOL    HW146871   5.451   2.820   6.228 -1.1742  0.6983 -1.4102
13422SOL    HW246872   5.542   2.829   6.106 -0.0660 -1.2099 -0.7690
13423SOL     OW46873   6.025   9.648   2.062 -0.0773  0.4906 -0.4864
13423SOL    HW146874   6.062   9.560   2.066  1.0359  0.9280 -0.7015
13423SOL    HW246875   6.081   9.701   2.118  0.0799  1.3343 -1.3969
13424SOL     OW46876   4.564   8.975   5.827  0.2697  0.1282  0.2434
13424SOL    HW146877   4.546   9.069   5.826  1.3594  0.3683  1.0156
13424SOL    HW246878   4.597   8.958   5.915  0.0086 -1.0011  0.1395
13425SOL     OW46879   6.619  11.301   1.336  0.0413  0.0207 -0.1343
13425SOL    HW146880   6.527  11.308   1.364  0.2141 -1.3170  0.8843
13425SOL    HW246881   6.616  11.253   1.254 -0.3104  2.0851 -1.4016
13426SOL     OW46882   3.600  10.707  11.816 -0.4545  0.4928 -0.4592
13426SOL    HW146883   3.536  10.720  11.886  0.6194  0.4985  0.5530
13426SOL    HW246884   3.557  10.741  11.737 -0.9192  2.4455  0.5764
13427SOL     OW46885  11.973   9.226   9.115  0.3652  0.0532 -0.2255
13427SOL    HW146886  11.978   9.144   9.165  1.1617 -0.0097 -0.4059
13427SOL    HW246887  11.974   9.199   9.024  1.1169  0.2914 -0.2895
13428SOL     OW46888   3.357  10.302  11.586  0.3253  0.1719  0.3940
13428SOL    HW146889   3.417  10.322  11.659  0.3717  0.8694  0.1708
13428SOL    HW246890   3.297  10.237  11.622 -0.3563  1.3298  1.4326
13429SOL     OW46891  12.292   7.452   3.468 -0.2967 -0.2234 -0.0405
13429SOL    HW146892  12.337   7.532   3.496 -1.5804  0.7495 -0.6547
13429SOL    HW246893  12.361   7.386   3.466  1.8423  1.7770 -3.5889
13430SOL     OW46894   9.621   7.985   3.914 -0.1714  0.5077 -0.0645
13430SOL    HW146895   9.714   7.966   3.902 -0.3160 -1.5579  1.4168
13430SOL    HW246896   9.575   7.910   3.876 -1.2824  1.5718 -0.9346
13431SOL     OW46897   0.254  10.489   6.066  0.2020  0.7704 -0.8112
13431SOL    HW146898   0.295  10.458   6.146 -0.2381 -0.9800 -1.2112
13431SOL    HW246899   0.268  10.584   6.066 -0.0894  0.8562  1.4782
13432SOL     OW46900   9.919  11.880   0.093  0.0213 -0.1731 -0.5588
13432SOL    HW146901   9.908  11.789   0.120 -0.3812 -0.2348 -0.9202
13432SOL    HW246902   9.864  11.930   0.153  1.9152  0.0779  1.0620
13433SOL     OW46903  10.657   2.251   2.314 -0.0414  0.3721  0.0378
13433SOL    HW146904  10.752   2.268   2.309  0.0158  0.2783  0.7435
13433SOL    HW246905  10.650   2.168   2.360 -0.4921  0.6348  0.4454
13434SOL     OW46906   3.357   8.413   4.089 -0.9619  0.2999  0.4634
13434SOL    HW146907   3.360   8.479   4.159 -1.5322 -0.4064  1.1630
13434SOL    HW246908   3.290   8.351   4.117  1.7015 -2.3681  1.4465
13435SOL     OW46909   3.956   6.313   3.077  0.2976  0.3535  0.5630
13435SOL    HW146910   3.872   6.314   3.124  0.1150  1.6847  0.2374
13435SOL    HW246911   3.931   6.306   2.985  0.5881 -0.0898  0.5129
13436SOL     OW46912   6.431   8.571   5.560 -0.4417 -0.4808 -0.1110
13436SOL    HW146913   6.458   8.500   5.501 -0.7168  1.0512 -2.2203
13436SOL    HW246914   6.361   8.533   5.612 -1.7145 -1.3694 -2.3080
13437SOL     OW46915   2.380   7.164   6.836  0.0681 -0.0106 -0.5807
13437SOL    HW146916   2.459   7.217   6.825  0.2915 -0.1643  0.1918
13437SOL    HW246917   2.339   7.164   6.750  0.3975  0.8863 -0.7531
13438SOL     OW46918   1.341   2.865   1.481 -0.3124  0.2193  0.1432
13438SOL    HW146919   1.313   2.895   1.567  0.3992  0.7496  0.1939
13438SOL    HW246920   1.417   2.810   1.498  0.2365  0.8596 -0.1899
13439SOL     OW46921   3.581  12.016   3.688  0.1707  0.3156 -0.3790
13439SOL    HW146922   3.601  11.937   3.738  1.5188  1.1484  0.4748
13439SOL    HW246923   3.622  12.000   3.603  0.1524 -0.0322 -0.3264
13440SOL     OW46924   8.956   6.964   1.435  0.0984  0.0132  0.0065
13440SOL    HW146925   8.937   6.966   1.529 -0.6596  1.3483 -0.1475
13440SOL    HW246926   8.929   7.050   1.404  0.4301 -0.3826 -1.4261
13441SOL     OW46927   0.169   6.839   1.948 -0.1884 -0.2472 -0.1981
13441SOL    HW146928   0.147   6.928   1.976  3.0037  0.3493  0.9074
13441SOL    HW246929   0.125   6.782   2.011  0.4624  0.7648  1.2349
13442SOL     OW46930   3.529   5.943   8.992 -0.5853  0.1172  0.4116
13442SOL    HW146931   3.584   5.899   8.928  0.3019  0.0548  1.2065
13442SOL    HW246932   3.455   5.883   9.006  1.0040 -1.5696  2.0892
13443SOL     OW46933   9.941   2.987   5.462  0.7225 -0.0152  0.5569
13443SOL    HW146934   9.977   2.952   5.381  0.3501  0.8761 -0.0147
13443SOL    HW246935   9.994   2.948   5.531  0.6383 -1.2816 -0.0670
13444SOL     OW46936   0.715  11.602   0.570 -0.2127  0.2205 -0.7492
13444SOL    HW146937   0.785  11.637   0.515  0.6013  0.2345  0.2412
13444SOL    HW246938   0.639  11.595   0.513  1.0835 -1.5574 -2.3558
13445SOL     OW46939   6.792   6.734   6.201 -0.2025 -0.2545  0.0431
13445SOL    HW146940   6.782   6.740   6.106  0.7080 -0.7236 -0.0928
13445SOL    HW246941   6.741   6.807   6.235 -2.0366 -1.1222 -0.7039
13446SOL     OW46942   8.906   8.564  11.317 -0.3213  0.6282 -0.0774
13446SOL    HW146943   8.856   8.641  11.344  1.1737  1.6632 -0.1185
13446SOL    HW246944   8.974   8.554  11.384 -0.1226 -0.2955 -0.3980
13447SOL     OW46945   0.179   8.745   8.765 -0.0097 -0.4403  0.6608
13447SOL    HW146946   0.253   8.789   8.724 -0.2586  0.6592  1.3526
13447SOL    HW246947   0.168   8.664   8.715 -0.6239  1.0451 -1.7600
13448SOL     OW46948   1.372   0.311   4.707  0.5588 -0.6703 -0.3514
13448SOL    HW146949   1.461   0.330   4.735  1.4866 -2.5735 -1.7957
13448SOL    HW246950   1.365   0.348   4.619 -0.7981  1.2382  0.4941
13449SOL     OW46951  11.028   9.481   5.341 -0.0304 -0.2484  0.3459
13449SOL    HW146952  11.018   9.574   5.322 -1.2572 -0.1638  1.2581
13449SOL    HW246953  11.061   9.443   5.259  1.9049  1.1747  0.3906
13450SOL     OW46954   0.393   7.204   4.687  0.1219 -0.3537  0.0030
13450SOL    HW146955   0.334   7.142   4.731 -1.1852  1.8349  1.5191
13450SOL    HW246956   0.342   7.235   4.612  0.5082 -0.5885 -0.3594
13451SOL     OW46957   7.766  11.457  10.553 -0.3691 -0.2316 -0.5679
13451SOL    HW146958   7.819  11.513  10.495  0.9460  0.7252  1.4257
13451SOL    HW246959   7.730  11.518  10.618  0.6354 -1.5676  1.3339
13452SOL     OW46960   2.707   0.644   8.538  0.4135  0.5535 -0.0147
13452SOL    HW146961   2.794   0.675   8.565  1.4249  0.0565 -2.4394
13452SOL    HW246962   2.704   0.661   8.444 -2.0652  0.3440 -0.0257
13453SOL     OW46963   1.213   0.071   5.334 -0.5131  0.2445  0.3822
13453SOL    HW146964   1.289   0.013   5.331 -2.2591 -2.1884  0.7251
13453SOL    HW246965   1.206   0.106   5.246  0.8809  0.3850  0.3042
13454SOL     OW46966  11.669   9.984   9.726  0.6593  0.4639 -0.5365
13454SOL    HW146967  11.626   9.905   9.692 -1.5349  1.8644 -1.2349
13454SOL    HW246968  11.746   9.995   9.671 -0.3551  0.1379 -2.0910
13455SOL     OW46969   0.376   5.370   7.506  0.0988 -0.3102  0.1995
13455SOL    HW146970   0.365   5.312   7.430 -0.2097 -0.6701  0.5153
13455SOL    HW246971   0.345   5.318   7.580 -1.9930  0.9080  0.2515
13456SOL     OW46972   9.664   9.405   4.796  0.1801 -0.8644  0.1591
13456SOL    HW146973   9.573   9.405   4.824  0.1942 -1.1478  0.2041
13456SOL    HW246974   9.713   9.379   4.873  0.2861 -0.8700  0.0900
13457SOL     OW46975  12.219   6.568  12.203  0.5277  0.4150  0.0344
13457SOL    HW146976  12.248   6.481  12.232 -0.5269 -0.0598 -0.2860
13457SOL    HW246977  12.290   6.599  12.147  1.0454 -0.1236  0.3801
13458SOL     OW46978  11.492   0.239  12.458 -0.3691 -0.1847  0.3215
13458SOL    HW146979  11.496   0.327  12.495  1.9411  1.1428 -2.7172
13458SOL    HW246980  11.483   0.252  12.364  1.3550 -3.1230 -0.3950
13459SOL     OW46981   1.995   2.627   6.548  0.0833 -0.5763 -0.3833
13459SOL    HW146982   1.980   2.587   6.462  0.0272 -0.7670 -0.2847
13459SOL    HW246983   1.990   2.721   6.532  0.7199 -0.5876 -0.7179
13460SOL     OW46984   3.338   1.055   9.108 -0.7263  0.1740 -0.7407
13460SOL    HW146985   3.410   1.113   9.134 -0.8940  0.5039 -1.0023
13460SOL    HW246986   3.312   1.013   9.189  1.3834 -1.8452 -1.0006
13461SOL     OW46987   3.553   4.893   2.555 -0.4358  0.4670 -0.2708
13461SOL    HW146988   3.541   4.800   2.538 -0.9638  0.6513 -0.9644
13461SOL    HW246989   3.631   4.898   2.609  0.3318 -0.2804 -1.2699
13462SOL     OW46990   9.720   2.337   8.349  0.5865 -0.2763  0.3010
13462SOL    HW146991   9.778   2.403   8.311  1.2158 -0.5553  0.7642
13462SOL    HW246992   9.699   2.371   8.436  2.4247 -1.5379  1.2978
13463SOL     OW46993   0.606   3.010   2.072  0.0824  0.3699  0.3374
13463SOL    HW146994   0.605   2.978   1.982  0.1235 -0.5581  0.6505
13463SOL    HW246995   0.522   2.983   2.108 -0.2921  1.4995  0.3325
13464SOL     OW46996  10.042  11.441  11.653  0.2125 -0.2238 -0.4809
13464SOL    HW146997  10.001  11.394  11.726 -1.7013  4.4794  1.8990
13464SOL    HW246998  10.114  11.489  11.693 -0.7276  2.3046 -1.6254
13465SOL     OW46999   7.010   6.517   0.101  0.4643  0.1171 -0.3462
13465SOL    HW147000   7.032   6.515   0.194 -0.0133 -0.1906 -0.2407
13465SOL    HW247001   6.947   6.446   0.089 -2.4434  2.4634 -0.1388
13466SOL     OW47002   7.133  10.345   2.340 -0.8218  0.2505  0.1322
13466SOL    HW147003   7.146  10.413   2.274 -1.0254 -0.7919 -1.0165
13466SOL    HW247004   7.160  10.387   2.423  3.0798  0.4941 -1.0378
13467SOL     OW47005   9.022   8.462   7.773 -0.2172 -0.3583 -0.4090
13467SOL    HW147006   9.063   8.455   7.859 -0.0838  0.7603 -0.3708
13467SOL    HW247007   8.937   8.420   7.783 -0.9261  1.2970  0.7669
13468SOL     OW47008   9.029   9.976   3.218  0.1253  0.2651  0.0225
13468SOL    HW147009   9.033  10.029   3.138 -1.3466  0.5698  0.1242
13468SOL    HW247010   9.011  10.039   3.288  2.6544  0.1768  0.8323
13469SOL     OW47011  11.661  10.794   5.136  0.2337  0.4171  0.3586
13469SOL    HW147012  11.637  10.726   5.072  1.0912 -0.2957  0.7767
13469SOL    HW247013  11.612  10.871   5.108  0.2275 -0.0141 -0.8909
13470SOL     OW47014  10.788   7.336  12.406  0.2995  0.6186  0.3274
13470SOL    HW147015  10.709   7.386  12.424 -0.1411  0.7294 -1.7366
13470SOL    HW247016  10.824   7.374  12.326  1.5339 -0.5084  0.2970
13471SOL     OW47017   8.819  12.252  12.176 -0.3639 -0.0108  0.6095
13471SOL    HW147018   8.758  12.188  12.213 -1.7772  0.4102 -0.8779
13471SOL    HW247019   8.878  12.200  12.121 -0.0659 -0.2942  1.1922
13472SOL     OW47020   5.912   5.244   3.266  0.6289  0.3648 -1.0781
13472SOL    HW147021   5.825   5.284   3.269  0.7676  0.6341 -0.1042
13472SOL    HW247022   5.938   5.239   3.358  1.3660 -0.3307 -1.3165
13473SOL     OW47023   9.186   0.233   9.067  0.3195  0.0598  0.2597
13473SOL    HW147024   9.259   0.180   9.100  0.2940 -0.4128 -0.4059
13473SOL    HW247025   9.183   0.213   8.973 -0.0997  0.7636  0.1142
13474SOL     OW47026  10.948   6.818  10.023  0.0363  0.1689  0.0338
13474SOL    HW147027  10.913   6.806  10.112  1.8978  0.1188  0.8082
13474SOL    HW247028  11.020   6.755  10.018  0.8228  1.1313 -1.0263
13475SOL     OW47029   7.248  10.015  10.043  0.5187 -0.3161  0.1356
13475SOL    HW147030   7.324  10.073  10.044  0.0672  0.3060  1.6995
13475SOL    HW247031   7.275   9.942   9.988  1.6008  0.7251 -0.7719
13476SOL     OW47032   7.470   1.392   3.706 -0.2144 -0.2754  0.3156
13476SOL    HW147033   7.468   1.334   3.630  1.1264 -0.1911  0.1910
13476SOL    HW247034   7.387   1.376   3.751 -0.7480 -0.7925 -0.8098
13477SOL     OW47035   2.731   5.032  11.900  0.4714 -0.3588  0.1807
13477SOL    HW147036   2.720   5.002  11.990  0.0907 -0.3583  0.1333
13477SOL    HW247037   2.713   5.126  11.903 -1.2134 -0.6522 -0.1967
13478SOL     OW47038  12.047   2.791   5.270  0.0361  0.1428  0.7680
13478SOL    HW147039  12.078   2.701   5.282 -0.6342 -0.2966 -0.5072
13478SOL    HW247040  11.951   2.782   5.267 -0.1255  1.1183  2.1110
13479SOL     OW47041   0.747   2.513  10.010  0.0296 -0.3051  0.1064
13479SOL    HW147042   0.786   2.433  10.044 -0.8377 -0.2949  1.1918
13479SOL    HW247043   0.661   2.518  10.053  0.0277  1.1529 -0.0130
13480SOL     OW47044   3.551   4.249   2.741 -0.0259  0.6752 -0.4103
13480SOL    HW147045   3.464   4.285   2.725 -0.2569 -0.0387 -0.8058
13480SOL    HW247046   3.544   4.157   2.715  0.6835  0.4621  0.1233
13481SOL     OW47047   1.933  10.724   9.234  0.4979 -0.2052  0.3041
13481SOL    HW147048   1.969  10.683   9.312  1.3443 -0.5117 -0.2332
13481SOL    HW247049   1.995  10.703   9.165  1.2184  2.3225  0.0680
13482SOL     OW47050   5.502  12.094   4.648  0.7653 -0.4696 -0.1691
13482SOL    HW147051   5.417  12.126   4.678  0.7185 -2.0567  1.5849
13482SOL    HW247052   5.491  12.080   4.554 -0.6747  0.0237 -0.0980
13483SOL     OW47053  10.364   0.685   1.237 -0.1583  0.3378  0.0192
13483SOL    HW147054  10.271   0.664   1.234  0.4121 -2.3469 -1.5031
13483SOL    HW247055  10.409   0.601   1.229  2.4425  1.4382  1.5778
13484SOL     OW47056   8.549  10.565   9.326  0.1354  0.4462  0.2455
13484SOL    HW147057   8.480  10.548   9.262 -0.4845 -1.4123  1.3372
13484SOL    HW247058   8.618  10.608   9.275 -1.6226  1.9831 -0.9476
13485SOL     OW47059   8.946   9.916   2.266 -0.4405 -0.2412 -0.3558
13485SOL    HW147060   9.034   9.943   2.242 -0.8767  0.1781 -1.6032
13485SOL    HW247061   8.913   9.986   2.322 -0.3711  0.1581 -0.8119
13486SOL     OW47062  11.801   1.443  12.047 -0.2730 -0.6127 -0.1770
13486SOL    HW147063  11.722   1.406  12.087  0.2483 -3.5723 -1.6054
13486SOL    HW247064  11.873   1.411  12.101  0.0646  0.8386  0.2640
13487SOL     OW47065   8.748   9.731  11.052  0.5483 -0.3525 -0.3750
13487SOL    HW147066   8.672   9.784  11.027 -0.0980 -1.9025 -1.9105
13487SOL    HW247067   8.822   9.791  11.047 -0.0081  0.2325 -3.0662
13488SOL     OW47068   2.427   1.985   5.259 -0.4171  0.0640 -0.2167
13488SOL    HW147069   2.393   2.022   5.178  1.0918 -1.1351 -1.4505
13488SOL    HW247070   2.501   2.041   5.281 -0.2545 -0.1629 -0.1838
13489SOL     OW47071   5.262   9.621  10.578 -0.4926 -0.2541 -0.2730
13489SOL    HW147072   5.264   9.693  10.515 -1.4988 -0.1813 -0.2262
13489SOL    HW247073   5.241   9.544  10.526 -0.7704 -0.2851 -0.1176
13490SOL     OW47074   2.691   5.138   7.785 -0.2833 -0.1708  0.2288
13490SOL    HW147075   2.642   5.198   7.729  0.8295  0.1577 -0.4059
13490SOL    HW247076   2.692   5.180   7.871 -1.0996 -0.1856  0.2599
13491SOL     OW47077   6.862   5.174  11.209  0.8178  0.5340  0.0597
13491SOL    HW147078   6.854   5.239  11.139  0.1979 -0.9082 -1.2627
13491SOL    HW247079   6.773   5.162  11.242  0.9066  0.2629  0.2093
13492SOL     OW47080  11.270   8.923   0.086  0.4622  0.0581  0.0026
13492SOL    HW147081  11.302   8.833   0.081 -0.3262 -0.1799 -1.3385
13492SOL    HW247082  11.277   8.956  -0.003 -2.3343  0.2082 -0.2339
13493SOL     OW47083   4.333   8.472   5.975  0.1751  0.0430  0.2537
13493SOL    HW147084   4.366   8.561   5.982  0.8334 -0.2229  0.5581
13493SOL    HW247085   4.375   8.436   5.897 -0.2650  0.0739  0.0006
13494SOL     OW47086   4.929   7.824   0.023  0.6768 -0.1022  0.3291
13494SOL    HW147087   4.914   7.824   0.118  0.9546 -0.5889  0.3794
13494SOL    HW247088   5.015   7.865   0.013  0.2042  0.8827  0.1999
13495SOL     OW47089  11.262  12.615   7.376  0.2789  0.0571 -0.1362
13495SOL    HW147090  11.191  12.679   7.377  0.4750  0.2742  0.0291
13495SOL    HW247091  11.307  12.629   7.293  0.0050 -0.2185 -0.3323
13496SOL     OW47092   1.919   8.078   4.902 -0.1008  0.6378 -0.3321
13496SOL    HW147093   1.853   8.036   4.847  0.7709  1.6638 -2.2765
13496SOL    HW247094   1.869   8.121   4.971 -1.3670  0.2718 -0.9830
13497SOL     OW47095   4.830   7.134  11.845 -0.1157 -0.9064  0.4031
13497SOL    HW147096   4.894   7.124  11.774 -0.1601 -0.7689  0.3431
13497SOL    HW247097   4.879   7.114  11.925 -0.0848 -1.1382  0.3272
13498SOL     OW47098   3.384   5.012   4.207  0.0881  0.3565 -0.2385
13498SOL    HW147099   3.316   5.059   4.159 -0.4137 -1.2114 -1.1424
13498SOL    HW247100   3.349   5.004   4.296 -1.7497 -1.8292 -1.0541
13499SOL     OW47101  10.670   6.349   7.871  0.4841  0.0572 -0.3902
13499SOL    HW147102  10.663   6.375   7.963  0.4054  1.2821 -0.7273
13499SOL    HW247103  10.579   6.344   7.841  0.3957 -2.2139  0.0622
13500SOL     OW47104   5.272   3.564   2.935 -0.6752 -0.5024 -0.3552
13500SOL    HW147105   5.235   3.478   2.954 -2.1352  0.1650 -0.0369
13500SOL    HW247106   5.321   3.552   2.854  0.4426 -1.9666  0.4725
13501SOL     OW47107   1.178   3.051   6.936 -0.0345 -0.5400  0.3845
13501SOL    HW147108   1.200   3.069   6.845  1.5513 -3.7167  0.0371
13501SOL    HW247109   1.160   3.138   6.973  1.3731  1.0673 -2.3819
13502SOL     OW47110   4.569   2.259   1.388  0.1460  0.2433 -1.0288
13502SOL    HW147111   4.536   2.332   1.440 -0.1302 -1.2877  1.0760
13502SOL    HW247112   4.647   2.294   1.344 -0.0393  1.8236 -0.1818
13503SOL     OW47113   5.523   2.440   4.758 -0.2938  0.5697  0.0867
13503SOL    HW147114   5.478   2.383   4.695  0.5264 -0.0062  0.0087
13503SOL    HW247115   5.484   2.418   4.842  1.8946 -2.2108  0.5317
13504SOL     OW47116   9.587  11.435  12.409  0.2262 -0.4264 -0.0996
13504SOL    HW147117   9.534  11.513  12.428  0.2724 -0.4683  0.2065
13504SOL    HW247118   9.604  11.396  12.495  1.2568 -0.0745 -0.1249
13505SOL     OW47119   2.491  10.423   3.085 -0.3992 -0.2849 -0.1488
13505SOL    HW147120   2.526  10.342   3.046  1.4612  0.0978  0.6166
13505SOL    HW247121   2.497  10.488   3.015  1.3406 -0.0151  0.1928
13506SOL     OW47122   8.158   2.363  11.823 -0.1028  0.1955  0.5359
13506SOL    HW147123   8.253   2.358  11.814 -0.1543 -0.5917  0.3987
13506SOL    HW247124   8.125   2.350  11.734 -0.3832 -1.0831  0.8073
13507SOL     OW47125   5.085   2.715   4.551 -0.1552 -0.1909  0.0269
13507SOL    HW147126   5.075   2.789   4.491  0.4742 -1.6503 -1.9579
13507SOL    HW247127   5.172   2.728   4.590 -0.1335  0.2204 -0.1467
13508SOL     OW47128  10.209  10.326   1.198  0.2650 -0.1568  0.5544
13508SOL    HW147129  10.221  10.420   1.211  0.3590 -0.1225  0.2252
13508SOL    HW247130  10.288  10.287   1.235  0.1083 -0.1255  0.9280
13509SOL     OW47131   3.327   7.839   7.708 -0.8561 -0.0076 -0.2755
13509SOL    HW147132   3.341   7.920   7.758 -1.2172 -1.3027  2.1152
13509SOL    HW247133   3.407   7.788   7.723 -0.2809  0.1635 -2.4305
13510SOL     OW47134   7.018   7.579   3.862 -0.5740  0.1098  0.0176
13510SOL    HW147135   7.056   7.497   3.830  1.0655  0.5404  0.7270
13510SOL    HW247136   7.078   7.607   3.932 -0.3958  2.5114 -0.9993
13511SOL     OW47137  10.695   0.961   4.601 -0.2001 -0.0998  0.6171
13511SOL    HW147138  10.704   0.889   4.539  1.4208  1.8041 -1.5094
13511SOL    HW247139  10.765   0.948   4.665 -0.7098 -1.0420  1.0081
13512SOL     OW47140   2.709   8.005   4.732 -0.0351 -0.0741  0.2655
13512SOL    HW147141   2.689   8.091   4.695 -2.1524 -0.4215  0.4496
13512SOL    HW247142   2.669   7.943   4.671  1.3108 -0.9441  0.2295
13513SOL     OW47143   6.572  11.800  10.939 -0.5584  0.0819 -0.0396
13513SOL    HW147144   6.597  11.886  10.974  1.6672 -0.7150  0.5070
13513SOL    HW247145   6.586  11.808  10.844 -1.2723  0.6017 -0.1034
13514SOL     OW47146   8.938  12.014   6.048 -0.3144 -0.1076 -0.0545
13514SOL    HW147147   8.876  11.943   6.062 -0.4109 -0.2030 -0.9649
13514SOL    HW247148   8.884  12.093   6.049 -0.1869 -0.0116  1.1197
13515SOL     OW47149   7.175  10.104  10.405 -0.1911  0.0010 -0.3133
13515SOL    HW147150   7.255  10.084  10.357  1.0809 -1.3483  2.1784
13515SOL    HW247151   7.205  10.129  10.493 -2.4561  0.5848  0.3691
13516SOL     OW47152   9.691  11.194   5.030 -0.3881 -0.5893 -0.0292
13516SOL    HW147153   9.784  11.215   5.039 -0.4488  1.4098 -2.7945
13516SOL    HW247154   9.689  11.117   4.973 -0.4472 -1.3270  0.9412
13517SOL     OW47155  11.240   1.573   8.121 -0.2998 -0.0800 -0.2287
13517SOL    HW147156  11.242   1.648   8.180 -0.3146  1.5998 -2.2536
13517SOL    HW247157  11.332   1.548   8.110 -0.1100  0.9652 -1.1194
13518SOL     OW47158   1.554   4.887   5.116  0.2529  0.2453 -0.4158
13518SOL    HW147159   1.614   4.912   5.186 -2.0333  0.9869  1.4132
13518SOL    HW247160   1.589   4.930   5.038  0.7647  2.7220  1.0685
13519SOL     OW47161   9.853  11.012   1.119  0.5682  0.0724 -0.2448
13519SOL    HW147162   9.779  11.054   1.161  0.9798  0.1985  0.3643
13519SOL    HW247163   9.815  10.963   1.046 -0.3796 -1.5796  1.3017
13520SOL     OW47164   1.749   1.220   0.680 -0.3049 -0.1314 -0.4651
13520SOL    HW147165   1.686   1.187   0.615  0.4912  0.0869 -1.3666
13520SOL    HW247166   1.705   1.294   0.720 -1.8725 -1.8231  1.1394
13521SOL     OW47167   5.018  10.269   6.159  0.0902 -0.6158 -0.5133
13521SOL    HW147168   5.049  10.186   6.194  2.6344  0.1594 -0.7453
13521SOL    HW247169   5.006  10.253   6.065 -1.4148 -1.2189 -0.2471
13522SOL     OW47170   9.844   8.836   3.701 -0.1788 -0.1153  0.1491
13522SOL    HW147171   9.836   8.878   3.615  0.4037  0.3556  0.3155
13522SOL    HW247172   9.903   8.763   3.687 -1.2191 -0.9284 -0.1482
13523SOL     OW47173   6.496   2.264  11.539  0.1411 -0.2445 -0.0013
13523SOL    HW147174   6.408   2.231  11.558  0.6867 -1.4348  0.6038
13523SOL    HW247175   6.510   2.333  11.604 -0.6433  0.5233 -0.6301
13524SOL     OW47176   9.306   3.106   2.110 -0.2934  0.6597  0.3694
13524SOL    HW147177   9.231   3.131   2.057  0.3935  0.4347 -0.7504
13524SOL    HW247178   9.382   3.122   2.054  0.2776 -3.1662 -0.2037
13525SOL     OW47179   3.836   6.228   4.592 -0.1957 -0.3939 -0.1901
13525SOL    HW147180   3.867   6.316   4.611 -1.6614  0.2880 -0.8197
13525SOL    HW247181   3.867   6.209   4.504 -1.4862  0.2945 -0.8256
13526SOL     OW47182   9.915   9.283   6.195 -0.9288  0.4177  0.2241
13526SOL    HW147183   9.890   9.344   6.265  1.1851  2.7753 -0.9148
13526SOL    HW247184  10.009   9.269   6.208 -0.9899 -1.0887 -0.7291
13527SOL     OW47185  11.000   6.885   7.432 -0.1096  0.2883  0.3606
13527SOL    HW147186  10.920   6.919   7.472 -0.0386 -0.2815  0.9998
13527SOL    HW247187  11.003   6.793   7.458 -2.1408 -1.3752 -4.1909
13528SOL     OW47188   6.700   3.592   4.998 -0.7924 -0.4100  0.0622
13528SOL    HW147189   6.632   3.539   4.956 -1.6921  0.2960  0.6121
13528SOL    HW247190   6.750   3.629   4.926 -1.1883 -0.6712 -0.3486
13529SOL     OW47191   4.498  10.477  11.570  0.5389 -0.6993 -0.2786
13529SOL    HW147192   4.454  10.436  11.645  0.1868 -3.4086 -1.8351
13529SOL    HW247193   4.427  10.516  11.519  0.5945 -0.3813 -0.1207
13530SOL     OW47194   2.897   5.903   7.782  0.2630 -0.0057  0.4390
13530SOL    HW147195   2.882   5.980   7.727 -1.0461  0.0415  0.8301
13530SOL    HW247196   2.844   5.918   7.860  0.3599 -1.0756  0.7343
13531SOL     OW47197   7.834   8.315  12.458  0.4777 -0.1070  0.4874
13531SOL    HW147198   7.882   8.343  12.380 -0.8019 -0.0410 -0.3074
13531SOL    HW247199   7.856   8.223  12.468  0.0692 -0.3206 -0.4272
13532SOL     OW47200   9.196   0.558   0.868 -0.5436 -0.1685  1.3734
13532SOL    HW147201   9.207   0.649   0.893  0.3843  1.1483 -2.9187
13532SOL    HW247202   9.285   0.526   0.853 -0.9178 -0.1275 -1.6533
13533SOL     OW47203   0.855   6.389   7.634 -0.2682  0.5036 -0.0701
13533SOL    HW147204   0.789   6.367   7.568 -1.1846  0.6059  0.8032
13533SOL    HW247205   0.819   6.462   7.682  0.2774  0.2664  0.7279
13534SOL     OW47206   8.961  12.599   2.514  0.4240 -0.6268  0.0236
13534SOL    HW147207   9.049  12.636   2.505 -0.5154  2.3095  1.6049
13534SOL    HW247208   8.965  12.548   2.595  0.7160 -0.6161  0.0180
13535SOL     OW47209  11.737  12.231   7.301  0.2036 -0.4510 -0.0535
13535SOL    HW147210  11.776  12.159   7.251 -1.2262 -0.3626 -1.3801
13535SOL    HW247211  11.661  12.257   7.249 -0.9833  0.0903  1.8763
13536SOL     OW47212   9.743   1.500   3.715 -0.2687 -0.1907  0.1847
13536SOL    HW147213   9.728   1.443   3.790 -0.6874 -0.2118  0.0883
13536SOL    HW247214   9.828   1.473   3.681  0.9544  1.2101  1.8964
13537SOL     OW47215   2.036   4.875   5.762  0.2435 -0.2537 -0.4426
13537SOL    HW147216   2.121   4.904   5.795  0.2388 -1.3432  0.5759
13537SOL    HW247217   1.972   4.927   5.811  0.2740 -1.0584  0.4869
13538SOL     OW47218   9.011   1.956   2.454 -0.0223 -0.2597 -0.4037
13538SOL    HW147219   9.072   1.918   2.391 -0.0326  1.1301 -1.2904
13538SOL    HW247220   8.928   1.963   2.408 -0.3081 -0.1933  0.1080
13539SOL     OW47221   8.126  10.847   4.853  0.0443  0.0974  0.5076
13539SOL    HW147222   8.083  10.816   4.933  1.2825 -0.6400  0.9150
13539SOL    HW247223   8.162  10.768   4.814 -0.5203  0.4588 -0.7832
13540SOL     OW47224   3.275   2.259   0.762 -0.0826  1.0687  0.1087
13540SOL    HW147225   3.302   2.336   0.713  1.4990  0.1823 -0.5014
13540SOL    HW247226   3.271   2.289   0.853  0.6481  1.8466 -0.1022
13541SOL     OW47227  10.681   0.162  11.256  0.4745  0.0434 -0.3759
13541SOL    HW147228  10.624   0.128  11.326 -0.0238  2.1871  0.3313
13541SOL    HW247229  10.764   0.115  11.268  0.9313  1.3624  2.6894
13542SOL     OW47230   6.449   4.051  10.842  0.6075  0.6554 -0.1577
13542SOL    HW147231   6.449   3.958  10.867  0.1229  0.8089  0.4344
13542SOL    HW247232   6.429   4.050  10.748  0.9138  0.1506 -0.2255
13543SOL     OW47233   5.946   9.816  10.995 -0.0415 -0.3777 -0.3334
13543SOL    HW147234   6.030   9.801  10.952 -0.1648 -0.6151 -0.4951
13543SOL    HW247235   5.954   9.772  11.080  0.4428  0.6650  0.1674
13544SOL     OW47236   9.253   0.835   0.091  0.0853  0.0678 -0.4873
13544SOL    HW147237   9.239   0.808   0.000  1.5877  0.0555 -0.7394
13544SOL    HW247238   9.179   0.797   0.139  1.4249 -3.5558 -0.9846
13545SOL     OW47239   7.235  12.143   2.856 -0.1172  0.1584  0.2092
13545SOL    HW147240   7.153  12.163   2.901  0.0440  0.7518  0.2481
13545SOL    HW247241   7.213  12.071   2.797 -0.7750  0.5850 -0.0816
13546SOL     OW47242   6.766   0.731  12.313  0.3379 -0.9472 -0.3313
13546SOL    HW147243   6.727   0.647  12.336  0.1422 -0.6570  0.4317
13546SOL    HW247244   6.846   0.736  12.365 -0.0165 -0.3606  0.1795
13547SOL     OW47245   4.791   8.513  11.427 -0.5160  0.1371  0.7060
13547SOL    HW147246   4.827   8.424  11.435 -1.7523 -0.7109 -1.8068
13547SOL    HW247247   4.716   8.502  11.369  0.6307  3.1849 -1.5986
13548SOL     OW47248  11.814  11.627   7.660 -0.0492  0.3424  0.8716
13548SOL    HW147249  11.872  11.552   7.671  2.4596  2.0458 -0.0844
13548SOL    HW247250  11.805  11.637   7.565 -0.7273  1.0120  0.9936
13549SOL     OW47251  10.500   6.617   1.142 -0.5843  0.5330  0.1254
13549SOL    HW147252  10.472   6.578   1.225  0.2648 -1.2684 -0.3874
13549SOL    HW247253  10.506   6.543   1.082  0.5431  1.5503 -1.0723
13550SOL     OW47254  12.314   6.449  10.922  0.1551 -0.0133  0.3043
13550SOL    HW147255  12.224   6.428  10.895  0.3954  0.0970 -0.6028
13550SOL    HW247256  12.330   6.393  10.998 -1.0700  0.7620  1.1811
13551SOL     OW47257   3.362   5.148   0.431 -0.0715 -0.5117 -0.0302
13551SOL    HW147258   3.320   5.062   0.422 -1.0867 -0.1326  0.9408
13551SOL    HW247259   3.416   5.156   0.352 -2.1078 -0.8615 -1.5281
13552SOL     OW47260  12.115   7.411   4.938 -0.4122  0.0829 -0.3475
13552SOL    HW147261  12.198   7.379   4.904  0.1522  1.0698  0.0459
13552SOL    HW247262  12.116   7.505   4.918 -1.1318  0.2270  0.2463
13553SOL     OW47263  12.176   3.707   3.951 -0.0612 -0.8372  0.2847
13553SOL    HW147264  12.082   3.701   3.930  0.0261 -3.2092  0.2375
13553SOL    HW247265  12.199   3.797   3.933 -2.6515  0.2279  1.6667
13554SOL     OW47266  12.404   5.823   0.454 -0.3118  0.5145  0.0789
13554SOL    HW147267  12.351   5.902   0.454 -0.4440  0.4687 -2.1434
13554SOL    HW247268  12.473   5.840   0.390 -0.2931 -1.1150 -0.3730
13555SOL     OW47269   1.869   6.223   9.124  0.2658 -0.0315 -0.0224
13555SOL    HW147270   1.955   6.193   9.096  1.4473  1.7802  1.3700
13555SOL    HW247271   1.887   6.284   9.196 -2.1428  0.9187 -0.1085
13556SOL     OW47272   9.899   7.159  12.010  0.1425 -0.0733  0.6330
13556SOL    HW147273   9.884   7.238  12.062 -0.5300  0.2524 -0.0359
13556SOL    HW247274   9.896   7.189  11.919 -0.9468 -0.9860  0.3335
13557SOL     OW47275   6.003   5.043   3.114  0.2578 -0.0247  0.6953
13557SOL    HW147276   5.955   5.117   3.151 -1.2550 -0.7133  0.1498
13557SOL    HW247277   5.953   5.017   3.038  0.1260 -2.3265  1.4960
13558SOL     OW47278  11.215  11.105   7.361 -0.7067  0.1784 -0.1768
13558SOL    HW147279  11.289  11.148   7.405 -1.7698  1.9895 -0.0628
13558SOL    HW247280  11.147  11.099   7.428 -0.8751 -0.9553 -0.4356
13559SOL     OW47281   4.052  10.848   8.707  0.0213  0.0466 -0.8527
13559SOL    HW147282   3.979  10.818   8.652 -1.0892  1.0494  0.0142
13559SOL    HW247283   4.018  10.842   8.796  1.4344 -0.5880 -0.3313
13560SOL     OW47284  10.542   9.930   1.666 -0.7451  0.3976  0.6430
13560SOL    HW147285  10.549   9.896   1.576 -2.2360  0.2040  0.5715
13560SOL    HW247286  10.570  10.021   1.659  0.3360  0.0567  0.2385
13561SOL     OW47287   1.727  12.461  12.622  0.3069  0.3440 -0.2049
13561SOL    HW147288   1.747  12.475  12.715 -0.4338 -2.7328  0.5412
13561SOL    HW247289   1.811  12.440  12.582  0.1377 -2.7631  0.8241
13562SOL     OW47290   7.221   4.369   2.054  0.0141  0.1739 -0.4069
13562SOL    HW147291   7.172   4.372   1.972 -0.5062  1.0927 -0.0844
13562SOL    HW247292   7.286   4.301   2.041 -1.8006 -1.6187 -0.6071
13563SOL     OW47293   3.557   6.433   1.610  0.7334 -0.2264 -0.1281
13563SOL    HW147294   3.582   6.358   1.664  1.3871 -0.5332 -0.8403
13563SOL    HW247295   3.506   6.489   1.669 -0.4243 -1.5842  0.2242
13564SOL     OW47296   6.926   1.910  11.369  0.2126 -0.4130 -1.0899
13564SOL    HW147297   6.833   1.887  11.379  0.0683 -0.8354 -2.9749
13564SOL    HW247298   6.973   1.832  11.398 -0.1311 -1.1408 -2.3928
13565SOL     OW47299   4.035   2.389   5.108 -0.2641 -0.0142  0.1150
13565SOL    HW147300   3.950   2.346   5.105  0.3365 -1.2682  0.5898
13565SOL    HW247301   4.022   2.471   5.060 -1.1065 -1.3238 -2.0265
13566SOL     OW47302  10.762   1.920   0.348 -0.6329 -0.1213 -0.2151
13566SOL    HW147303  10.838   1.889   0.396 -1.3016  0.9248  1.6739
13566SOL    HW247304  10.748   1.855   0.280  2.0962 -0.1790 -0.8305
13567SOL     OW47305   6.342   1.945   7.922  0.0717  0.4192  0.2121
13567SOL    HW147306   6.289   1.976   7.848  1.9338  0.3323 -1.2183
13567SOL    HW247307   6.281   1.894   7.975 -1.7718  2.0224 -0.2397
13568SOL     OW47308   4.937  11.405  11.560 -0.1555 -0.1502 -0.6928
13568SOL    HW147309   5.000  11.385  11.630 -1.2211  0.5479  0.5122
13568SOL    HW247310   4.890  11.323  11.546 -1.3987  0.2251  0.9774
13569SOL     OW47311  11.696   6.625   1.847  0.3165 -0.3284  0.4151
13569SOL    HW147312  11.721   6.707   1.805  0.4621 -1.5263 -2.0128
13569SOL    HW247313  11.604   6.637   1.869  0.3658  0.5307  0.1966
13570SOL     OW47314  11.965   4.174   1.035 -0.4526 -0.7949  0.2121
13570SOL    HW147315  11.892   4.218   1.077 -0.4474  0.2922 -0.8708
13570SOL    HW247316  12.020   4.245   1.000 -0.6428 -1.6181 -1.9120
13571SOL     OW47317   8.009   6.647   9.134 -0.0043 -0.4623 -0.2906
13571SOL    HW147318   8.100   6.643   9.166 -0.4104 -0.5769  0.8955
13571SOL    HW247319   8.018   6.660   9.039  1.2562 -0.9491 -0.2670
13572SOL     OW47320   8.498  10.842   7.186  0.0190 -0.2571 -0.1214
13572SOL    HW147321   8.440  10.766   7.181  0.9216 -0.9466 -0.1827
13572SOL    HW247322   8.444  10.909   7.229 -0.7224 -0.9843  0.1186
13573SOL     OW47323   5.364   1.217   8.506  0.4787 -0.3794  0.2858
13573SOL    HW147324   5.443   1.271   8.498  1.3210 -1.4559  1.0473
13573SOL    HW247325   5.385   1.138   8.456 -0.3029 -0.4815  0.1186
13574SOL     OW47326   7.845   6.569   4.325 -0.1660  0.9330 -0.3141
13574SOL    HW147327   7.876   6.511   4.255  1.1738 -0.2851  1.2271
13574SOL    HW247328   7.780   6.625   4.282  0.6385  0.2649 -2.5299
13575SOL     OW47329   2.307   1.414   2.650 -0.1947 -0.2049  1.0022
13575SOL    HW147330   2.257   1.493   2.670 -1.8771 -0.3433 -2.1137
13575SOL    HW247331   2.393   1.447   2.624 -0.6627  0.5738  0.3813
13576SOL     OW47332   5.177  10.607   3.515 -0.1632 -0.5095 -0.1838
13576SOL    HW147333   5.217  10.674   3.571 -2.7921  0.9053  0.1621
13576SOL    HW247334   5.216  10.622   3.428 -0.7096  1.5648 -0.1265
13577SOL     OW47335   6.535   2.705   3.688  0.1106 -0.0982  0.7084
13577SOL    HW147336   6.521   2.751   3.606  3.4818  1.3536  0.7988
13577SOL    HW247337   6.529   2.773   3.755  0.7062 -0.6273  1.3179
13578SOL     OW47338   3.330   5.190   1.403 -0.8439  0.6247 -0.0231
13578SOL    HW147339   3.387   5.267   1.412  0.5520 -0.1394 -1.6284
13578SOL    HW247340   3.258   5.221   1.348 -0.4495  0.8953 -0.4034
13579SOL     OW47341  11.873   3.524   6.465 -0.0308 -0.2869  0.2106
13579SOL    HW147342  11.817   3.593   6.430  1.3098  0.1625 -1.1722
13579SOL    HW247343  11.851   3.447   6.412 -0.8534 -0.7124  1.1274
13580SOL     OW47344   7.896  10.018   7.551 -0.2931 -0.1035  0.5832
13580SOL    HW147345   7.869  10.099   7.595  2.6150  1.4331 -0.1913
13580SOL    HW247346   7.862  10.027   7.462 -1.5896 -0.6890  0.9933
13581SOL     OW47347   0.903   1.359  12.459 -0.0176  0.7133 -0.0764
13581SOL    HW147348   0.877   1.299  12.529  0.9849  0.5266  0.1469
13581SOL    HW247349   0.820   1.385  12.418 -0.5170 -0.2497  0.2877
13582SOL     OW47350   8.887   0.799  11.777 -0.0719 -0.5335 -0.3876
13582SOL    HW147351   8.912   0.720  11.729  0.1814  0.1708 -1.4578
13582SOL    HW247352   8.843   0.854  11.711  0.6779  0.6512  0.0745
13583SOL     OW47353   4.972   3.024   9.555 -0.0923  0.3054  0.1898
13583SOL    HW147354   4.908   3.043   9.624 -0.9587  1.2226 -0.8105
13583SOL    HW247355   4.979   2.929   9.554  1.0388  0.3223  2.4801
13584SOL     OW47356   5.780  11.141   3.845  0.3289  0.1616  0.4268
13584SOL    HW147357   5.764  11.220   3.896  1.4626  0.2118  0.7382
13584SOL    HW247358   5.790  11.072   3.911  0.3516 -0.0446  0.2093
13585SOL     OW47359   4.604  11.254   7.061  0.2850 -0.1812 -0.4168
13585SOL    HW147360   4.544  11.184   7.090  0.9272  0.2643  2.3136
13585SOL    HW247361   4.547  11.316   7.016 -1.0095 -0.6790  0.4448
13586SOL     OW47362  11.087   8.556  11.392  0.4732  0.1903  0.6996
13586SOL    HW147363  11.036   8.600  11.323  2.3131 -2.0481 -2.3346
13586SOL    HW247364  11.129   8.628  11.440 -1.1679  1.8746 -0.2628
13587SOL     OW47365   0.395  10.322   9.733  0.3115 -0.1906  0.0893
13587SOL    HW147366   0.330  10.264   9.694  0.9444  0.8491 -2.7362
13587SOL    HW247367   0.350  10.361   9.808 -1.3369 -1.5855 -0.1195
13588SOL     OW47368   1.471  12.386  11.803  0.0501  0.4051  0.2664
13588SOL    HW147369   1.422  12.455  11.759 -0.8799  0.2984  1.1147
13588SOL    HW247370   1.519  12.342  11.732  1.0026  2.1527 -0.2546
13589SOL     OW47371   2.010   6.030   1.796  0.4410 -0.1894 -0.0520
13589SOL    HW147372   2.081   5.966   1.801 -0.3249 -1.0081  0.6489
13589SOL    HW247373   1.949   6.005   1.865 -0.6982  0.3040 -0.8330
13590SOL     OW47374   3.196   5.363   5.928 -0.0203  0.2865  0.3149
13590SOL    HW147375   3.271   5.305   5.921 -0.8283 -0.5896 -2.6159
13590SOL    HW247376   3.140   5.338   5.854 -2.9193  1.2853  2.0204
13591SOL     OW47377   6.449  12.621   0.765 -0.3254  0.1525 -0.0908
13591SOL    HW147378   6.430  12.683   0.694 -0.5881  1.0713  0.7533
13591SOL    HW247379   6.442  12.674   0.845  0.1072 -0.8288  0.6104
13592SOL     OW47380   0.903   1.599   3.921  0.5670  1.5288 -0.5710
13592SOL    HW147381   0.872   1.677   3.875 -0.5195  1.6440  0.3046
13592SOL    HW247382   0.928   1.631   4.008 -0.9696  0.7517  0.1902
13593SOL     OW47383   1.939   9.514   7.004 -0.6518  0.1155 -0.4280
13593SOL    HW147384   1.850   9.533   6.975 -0.9589 -1.4892 -0.6133
13593SOL    HW247385   1.993   9.580   6.960 -1.8324  1.8280  0.5710
13594SOL     OW47386  12.121   6.098   3.970  0.3146 -0.2134  0.3708
13594SOL    HW147387  12.047   6.115   3.911  0.8906  0.0327 -0.3026
13594SOL    HW247388  12.125   6.176   4.025  0.8454  0.3444 -0.4399
13595SOL     OW47389   3.302   9.402   8.637 -0.3731 -0.5810  0.3242
13595SOL    HW147390   3.226   9.398   8.580  1.3551  1.6731 -2.3889
13595SOL    HW247391   3.319   9.310   8.661 -1.9460 -1.4798 -1.7688
13596SOL     OW47392   3.979   6.701   0.213 -0.1659 -0.1814 -0.3388
13596SOL    HW147393   4.034   6.658   0.148 -0.3183 -0.5845 -0.2079
13596SOL    HW247394   3.916   6.633   0.239 -1.0106  0.4005 -0.8187
13597SOL     OW47395   8.318   1.226   7.778 -0.5721 -0.6520  0.0482
13597SOL    HW147396   8.398   1.174   7.772  0.8713  1.3456  0.8731
13597SOL    HW247397   8.301   1.233   7.872 -0.2860  0.9601  0.0106
13598SOL     OW47398   3.253  10.074   4.311  0.4878  0.2470 -0.0354
13598SOL    HW147399   3.211  10.086   4.396 -0.2362 -0.2410 -0.3092
13598SOL    HW247400   3.208  10.135   4.253 -0.7325 -1.1529 -0.6147
13599SOL     OW47401  12.595  11.085   5.258 -0.1220  0.5309  0.1861
13599SOL    HW147402  12.503  11.111   5.256 -0.7745 -1.6180 -1.5025
13599SOL    HW247403  12.620  11.077   5.166  0.4763 -2.8950  0.5341
13600SOL     OW47404   3.154   7.746  11.449  0.6506 -0.0241 -0.3985
13600SOL    HW147405   3.117   7.797  11.520  1.4534  0.1054 -0.0548
13600SOL    HW247406   3.151   7.656  11.480 -0.0268 -0.0924 -0.6676
13601SOL     OW47407   8.743   6.680   5.764  0.0937  0.1550  0.2935
13601SOL    HW147408   8.750   6.616   5.693  0.3819  1.6792 -1.1251
13601SOL    HW247409   8.649   6.683   5.783 -0.2772  1.1856 -1.4864
13602SOL     OW47410   0.793   4.367  10.244  0.0713  0.6651  0.3342
13602SOL    HW147411   0.870   4.372  10.187 -1.3409  2.1593 -1.5700
13602SOL    HW247412   0.775   4.457  10.268 -0.3230  0.2012  1.8964
13603SOL     OW47413  11.806  10.458   2.094  0.0095 -0.2676 -0.4538
13603SOL    HW147414  11.827  10.512   2.018 -1.2047 -1.4881 -1.7150
13603SOL    HW247415  11.834  10.370   2.070 -0.8075 -0.7579  0.3246
13604SOL     OW47416   0.420  12.166  10.588 -0.5256  0.6121 -0.4488
13604SOL    HW147417   0.447  12.256  10.572  0.4807  0.3323 -0.4233
13604SOL    HW247418   0.363  12.171  10.665 -1.0302  1.2988 -0.8586
13605SOL     OW47419   2.697   2.849   4.055  0.5428  0.2147  0.1313
13605SOL    HW147420   2.664   2.763   4.028  1.2712 -0.0384  0.0441
13605SOL    HW247421   2.791   2.836   4.068  0.8609  1.2607 -0.9755
13606SOL     OW47422  12.774   1.705  11.144  0.4433  0.1681  0.2434
13606SOL    HW147423  12.704   1.696  11.080 -0.1816 -0.1909  0.9599
13606SOL    HW247424  12.850   1.665  11.102 -0.2747 -1.2034  0.1857
13607SOL     OW47425   6.888  11.509  11.929 -0.4827  0.0574  0.7545
13607SOL    HW147426   6.873  11.447  12.001  0.3222  0.5489  1.3685
13607SOL    HW247427   6.877  11.595  11.969  0.5422  0.3491  0.4369
13608SOL     OW47428   2.717   3.795   8.179  0.0342  0.0729 -0.0186
13608SOL    HW147429   2.718   3.865   8.244 -1.5723 -0.8506  1.0675
13608SOL    HW247430   2.624   3.780   8.160  0.3384 -1.6340 -0.3542
13609SOL     OW47431   0.123   4.891  10.044  0.0751  0.0913  0.0574
13609SOL    HW147432   0.103   4.956  10.111  0.7361  0.4289 -0.0681
13609SOL    HW247433   0.170   4.939   9.976  1.3530 -0.6610  0.3610
13610SOL     OW47434   3.088   4.169   5.735 -1.0550 -0.3631 -0.0474
13610SOL    HW147435   3.059   4.210   5.816 -0.3354  0.8831 -0.3993
13610SOL    HW247436   3.101   4.242   5.674  0.6207 -1.0565 -0.5877
13611SOL     OW47437   3.659   3.831   9.778 -0.1788  0.3928 -0.2662
13611SOL    HW147438   3.702   3.756   9.820 -0.2449  0.2281 -0.4862
13611SOL    HW247439   3.604   3.869   9.847 -0.6724 -0.1774 -0.3327
13612SOL     OW47440   8.391   3.517   9.193 -0.2848 -0.5861 -0.0039
13612SOL    HW147441   8.428   3.499   9.280 -1.5256  0.8748  0.8838
13612SOL    HW247442   8.300   3.542   9.211 -1.2448 -2.3746 -1.9375
13613SOL     OW47443   5.951  11.766  10.495  0.8592  0.7148  0.0532
13613SOL    HW147444   6.044  11.770  10.474  0.4062 -0.3042 -2.5297
13613SOL    HW247445   5.920  11.687  10.451 -1.5000  1.8252 -0.4308
13614SOL     OW47446   9.739  12.597   6.103 -0.2301 -0.5650 -0.6613
13614SOL    HW147447   9.810  12.622   6.162  1.1898 -3.0731 -1.1571
13614SOL    HW247448   9.752  12.651   6.025  0.7273 -0.5122 -0.4766
13615SOL     OW47449  11.637   3.930  12.301  0.1384  0.1954 -0.6735
13615SOL    HW147450  11.561   3.937  12.244 -0.0748 -0.2584 -0.4536
13615SOL    HW247451  11.635   3.839  12.332  0.6809  0.2230 -0.5442
13616SOL     OW47452   1.161   7.021   9.669  0.3926  0.5440 -0.1340
13616SOL    HW147453   1.167   6.965   9.592  1.1101 -0.5294  0.6766
13616SOL    HW247454   1.067   7.039   9.678  0.1338 -0.6165 -0.3625
13617SOL     OW47455   7.885   0.048   5.619  0.4518  0.1086 -0.1127
13617SOL    HW147456   7.936   0.061   5.539 -1.0606  0.1269 -1.1019
13617SOL    HW247457   7.937   0.091   5.687  0.8886  1.7308 -1.4024
13618SOL     OW47458   7.292   0.330   7.524  0.0615  0.1108  0.1876
13618SOL    HW147459   7.354   0.386   7.477 -0.3803  0.6212  0.1998
13618SOL    HW247460   7.217   0.324   7.465 -0.4563  0.6709  0.7707
13619SOL     OW47461  12.294   7.404   8.307  0.1510 -0.0298 -0.1348
13619SOL    HW147462  12.237   7.409   8.230  1.1759 -0.1563 -0.9270
13619SOL    HW247463  12.285   7.313   8.337 -0.4120  0.0764  0.0269
13620SOL     OW47464   4.482  11.772  10.400  0.3632  0.8545  0.0704
13620SOL    HW147465   4.513  11.710  10.465  0.9885  0.6981 -0.3656
13620SOL    HW247466   4.561  11.820  10.373  0.5650 -0.5450 -2.1297
13621SOL     OW47467   0.465   0.398   9.212  0.6181 -0.3398  0.0068
13621SOL    HW147468   0.410   0.442   9.146 -0.3188 -0.0787  0.9335
13621SOL    HW247469   0.517   0.335   9.161 -0.0621 -0.1353 -0.9839
13622SOL     OW47470   7.207   0.940   5.615  0.0360  0.1353  0.4363
13622SOL    HW147471   7.161   1.017   5.649 -0.0407 -0.3633  1.5004
13622SOL    HW247472   7.199   0.875   5.684 -1.4244 -1.4445 -1.1397
13623SOL     OW47473   6.349   2.204   1.821  0.0627 -0.5198  1.0165
13623SOL    HW147474   6.399   2.128   1.791  1.5612 -0.3347  2.8795
13623SOL    HW247475   6.258   2.175   1.819  0.1961 -1.0591 -1.9370
13624SOL     OW47476  12.574   3.755   5.439 -0.2091  0.0833  0.0270
13624SOL    HW147477  12.542   3.668   5.462  2.2531 -1.1153 -0.7728
13624SOL    HW247478  12.517   3.783   5.368  0.4424 -2.0124 -1.4266
13625SOL     OW47479   6.982   5.276  10.526  0.2269  0.1013  0.1403
13625SOL    HW147480   7.018   5.188  10.533 -0.0145 -0.1422 -1.2291
13625SOL    HW247481   7.051   5.327  10.484  0.9496  0.9792  2.2837
13626SOL     OW47482  12.540   3.664   7.062 -0.3200 -0.0582 -0.0248
13626SOL    HW147483  12.517   3.598   7.126  0.7150  0.9102  1.3997
13626SOL    HW247484  12.496   3.744   7.091 -0.5791  0.1930 -1.0417
13627SOL     OW47485   1.617   2.262   5.220  0.3202 -0.2510 -1.3139
13627SOL    HW147486   1.624   2.328   5.289 -1.7454 -0.0909 -1.1843
13627SOL    HW247487   1.638   2.179   5.263 -2.7659 -0.4325  0.1119
13628SOL     OW47488   0.726  11.833   7.523  0.4401  0.2681  0.4215
13628SOL    HW147489   0.749  11.758   7.468 -0.4767  0.4257 -0.1844
13628SOL    HW247490   0.665  11.884   7.471 -0.1093  0.6574  1.4052
13629SOL     OW47491   8.796   9.067  10.789  0.6112 -0.0144 -0.4160
13629SOL    HW147492   8.803   9.131  10.860  0.4629  1.2726 -1.5226
13629SOL    HW247493   8.884   9.063  10.752  0.4595  0.1169 -0.8035
13630SOL     OW47494   3.318   1.855   9.644  0.4944 -0.8928  0.1695
13630SOL    HW147495   3.281   1.904   9.718  0.7184  1.2445 -1.0419
13630SOL    HW247496   3.247   1.851   9.580  0.8533 -1.1388 -0.2184
13631SOL     OW47497   0.474   5.954   3.770  0.2812  0.6084  0.5741
13631SOL    HW147498   0.507   5.980   3.856  1.2942  1.4684 -0.0508
13631SOL    HW247499   0.529   6.001   3.708 -0.9216  0.5951 -0.5486
13632SOL     OW47500  11.718   0.253   9.986  0.0392 -0.2521  0.4564
13632SOL    HW147501  11.752   0.330  10.032 -1.0184  0.1873  0.5428
13632SOL    HW247502  11.648   0.221  10.043 -0.0359 -0.8228  0.0492
13633SOL     OW47503   2.725   3.951   8.396  0.1392  0.0556 -0.5233
13633SOL    HW147504   2.790   4.005   8.439 -1.1096  1.3881 -0.2347
13633SOL    HW247505   2.657   3.938   8.462 -1.0817  0.8584 -1.5776
13634SOL     OW47506   4.603   4.538   1.174  0.2294  0.1480  0.3576
13634SOL    HW147507   4.695   4.548   1.197  0.1872  2.5603 -0.2958
13634SOL    HW247508   4.555   4.587   1.240 -0.8021 -2.3297  1.5987
13635SOL     OW47509   1.755   8.092  12.651  0.5306  0.7355 -0.5348
13635SOL    HW147510   1.783   8.056  12.735  1.1024 -0.0142 -1.0296
13635SOL    HW247511   1.681   8.149  12.673  1.1828  1.1875  0.5622
13636SOL     OW47512  12.439   8.268   2.423 -0.0836 -0.2256  0.4124
13636SOL    HW147513  12.475   8.182   2.441  0.2504  0.1523  1.6493
13636SOL    HW247514  12.492   8.328   2.476  1.5566  1.1372 -2.4688
13637SOL     OW47515  10.274   1.560   4.575  0.0679  0.2803  0.1710
13637SOL    HW147516  10.299   1.471   4.552  0.9608  0.6285 -0.2508
13637SOL    HW247517  10.319   1.615   4.511  0.0780  1.0807  0.8520
13638SOL     OW47518   4.371   8.664   6.336  0.2902 -0.1819  0.2581
13638SOL    HW147519   4.463   8.651   6.310 -0.0789 -2.0820 -0.1911
13638SOL    HW247520   4.364   8.759   6.350  2.5924 -0.1096  1.3471
13639SOL     OW47521   7.981   7.504   2.591 -1.0763  0.2381 -0.0235
13639SOL    HW147522   7.997   7.572   2.655 -1.6523  2.6021 -2.2210
13639SOL    HW247523   7.891   7.476   2.608 -0.2096 -1.4871  2.1239
13640SOL     OW47524   1.158   7.759  10.605  0.3702 -0.1967  0.2259
13640SOL    HW147525   1.172   7.697  10.533 -0.9354 -0.8665  0.5054
13640SOL    HW247526   1.066   7.786  10.595  0.9912  1.9762 -0.0792
13641SOL     OW47527   3.524  11.593   0.751  0.2598 -0.1126  0.2950
13641SOL    HW147528   3.512  11.500   0.772 -0.6024  0.3821  2.2165
13641SOL    HW247529   3.580  11.626   0.821  0.6782  0.7949 -0.4540
13642SOL     OW47530   6.909   4.560   8.291 -0.1721 -0.2650  0.0903
13642SOL    HW147531   6.927   4.517   8.375 -0.2930 -0.1533  0.1738
13642SOL    HW247532   6.985   4.617   8.277  0.6888 -1.5495 -0.7137
13643SOL     OW47533   8.235  10.121   3.926  0.6379  0.1295  0.0125
13643SOL    HW147534   8.187  10.076   3.995  1.8829  2.2766  2.4567
13643SOL    HW247535   8.168  10.167   3.876 -0.1814 -0.2781  0.7235
13644SOL     OW47536   8.089   7.125   9.336  0.5708 -0.0609  0.4261
13644SOL    HW147537   8.020   7.173   9.382 -0.5303 -0.5210 -0.7098
13644SOL    HW247538   8.121   7.186   9.269 -0.1685 -0.5523 -0.3908
13645SOL     OW47539   2.013   9.369   5.643  0.6939 -0.1234 -0.8468
13645SOL    HW147540   1.957   9.296   5.672 -1.8957  1.6865 -0.8977
13645SOL    HW247541   1.996   9.439   5.707  2.0764  0.8800 -1.5346
13646SOL     OW47542   3.522   6.781   4.182  0.4045  0.1460  0.3238
13646SOL    HW147543   3.523   6.696   4.227  1.5789  1.2503  2.5688
13646SOL    HW247544   3.470   6.837   4.239 -1.1159  0.7799 -1.5887
13647SOL     OW47545   7.440   1.513   9.251 -1.1345  0.2521  0.1625
13647SOL    HW147546   7.420   1.500   9.158  0.9154 -0.6103 -0.1999
13647SOL    HW247547   7.490   1.595   9.253 -0.2430 -0.2872  0.3455
13648SOL     OW47548   3.691   4.266   0.429 -0.0181  0.1765 -0.2124
13648SOL    HW147549   3.692   4.172   0.414 -0.0818  0.2736 -0.8553
13648SOL    HW247550   3.608   4.283   0.473  0.1108 -0.0957  0.1442
13649SOL     OW47551   1.301   7.363   3.482 -0.1944 -0.9028  0.4556
13649SOL    HW147552   1.269   7.331   3.566  0.2000  0.3534  1.1099
13649SOL    HW247553   1.228   7.351   3.422 -0.5054 -1.7594  0.9906
13650SOL     OW47554   1.288   1.580   0.232 -0.0825 -0.0003 -0.3760
13650SOL    HW147555   1.377   1.602   0.204 -1.0145  1.0119 -2.8544
13650SOL    HW247556   1.274   1.491   0.200 -0.1931  0.1033 -0.6177
13651SOL     OW47557   4.065   5.318   0.396 -0.9580 -0.2735  0.2555
13651SOL    HW147558   4.065   5.290   0.305  0.4599 -0.1811  0.2125
13651SOL    HW247559   4.021   5.248   0.443 -1.9060 -0.2196 -0.5184
13652SOL     OW47560   7.005   9.234   1.560 -0.0827 -0.0838  0.3287
13652SOL    HW147561   6.939   9.246   1.491 -0.0497  0.9365  0.4633
13652SOL    HW247562   6.955   9.214   1.638 -0.0848 -2.2024 -0.1496
13653SOL     OW47563   9.425   4.120  10.413 -0.4833 -0.2645 -0.0379
13653SOL    HW147564   9.416   4.033  10.451  1.5180 -0.3453  0.3765
13653SOL    HW247565   9.467   4.173  10.482  0.8403  0.2628 -1.1851
13654SOL     OW47566   2.994   3.067   7.748  0.4428 -0.2852  0.0563
13654SOL    HW147567   3.046   3.049   7.826  2.2996  1.2671 -0.7318
13654SOL    HW247568   2.918   3.116   7.780  1.1294  0.2387  0.9231
13655SOL     OW47569   3.523   4.447   5.022 -0.0845 -0.4656 -0.0518
13655SOL    HW147570   3.465   4.422   4.950 -1.9587 -0.7052  1.4617
13655SOL    HW247571   3.552   4.365   5.060 -0.4096 -0.3525  0.4512
13656SOL     OW47572  11.040   1.337   1.617 -0.3169  0.1419  0.6681
13656SOL    HW147573  11.004   1.252   1.592  0.9057 -0.3213  0.4040
13656SOL    HW247574  10.966   1.397   1.611 -0.7646 -0.5202 -1.1587
13657SOL     OW47575   9.201   9.894   5.764  0.2828  0.2094 -0.6261
13657SOL    HW147576   9.154   9.946   5.830  0.4644 -0.7880  0.3201
13657SOL    HW247577   9.152   9.813   5.757 -0.4612  0.7742 -2.6993
13658SOL     OW47578   6.899   5.933   3.461  0.0318  0.1930  0.9891
13658SOL    HW147579   6.807   5.935   3.436 -0.4903  0.9295  2.7985
13658SOL    HW247580   6.941   5.999   3.405 -0.7690  0.6731  0.9410
13659SOL     OW47581   0.513   4.138  10.102 -0.0858 -0.3862 -0.0766
13659SOL    HW147582   0.552   4.068  10.051  0.4127 -0.2198  0.0723
13659SOL    HW247583   0.572   4.150  10.176 -0.1595  0.1952 -0.1078
13660SOL     OW47584   5.907   2.018  11.065  0.5501  0.3553  0.6024
13660SOL    HW147585   5.959   2.087  11.023  1.6573  0.1968  1.6417
13660SOL    HW247586   5.895   1.952  10.997  1.4146  0.5605  0.2395
13661SOL     OW47587   2.167   7.482   5.619 -0.2180 -0.0859 -0.1861
13661SOL    HW147588   2.234   7.488   5.687 -0.9648 -1.0917  0.6864
13661SOL    HW247589   2.095   7.434   5.661 -0.3740 -1.4940 -1.9518
13662SOL     OW47590   5.061   7.555  11.977  0.3835 -0.0716  0.3871
13662SOL    HW147591   4.968   7.550  11.957 -0.2279  2.7652  1.9172
13662SOL    HW247592   5.099   7.606  11.905  1.3609 -3.2440 -1.5322
13663SOL     OW47593  10.932   1.518   4.769  0.3945  0.4833 -0.1449
13663SOL    HW147594  10.883   1.564   4.837  0.1561  1.4975 -1.0010
13663SOL    HW247595  10.866   1.490   4.706  0.7659  0.7111 -0.6383
13664SOL     OW47596   9.596   6.428   9.361  0.7609  0.0193  0.0451
13664SOL    HW147597   9.623   6.518   9.379  2.9275 -0.7178  0.7697
13664SOL    HW247598   9.533   6.408   9.430  0.6275  0.7974  0.1638
13665SOL     OW47599   2.464  10.942   9.728  0.2852  0.2965  0.3932
13665SOL    HW147600   2.476  10.847   9.735  0.4797  0.1841 -1.0714
13665SOL    HW247601   2.456  10.958   9.634  3.7319  2.0977  0.2219
13666SOL     OW47602   3.436   9.222  10.688  0.3904 -0.4122 -0.8923
13666SOL    HW147603   3.392   9.207  10.605 -0.2657 -1.5068 -0.3589
13666SOL    HW247604   3.522   9.181  10.678  1.4217  1.7968 -1.9640
13667SOL     OW47605   5.309   4.185   5.196 -0.2912 -0.8337 -0.2141
13667SOL    HW147606   5.215   4.199   5.210 -0.0540  0.1181  0.6127
13667SOL    HW247607   5.318   4.091   5.184 -1.0431 -1.3780  2.6189
13668SOL     OW47608   1.933  10.884   2.715 -0.6455  0.0134 -0.1110
13668SOL    HW147609   1.927  10.897   2.809  0.9463  2.1683 -0.2433
13668SOL    HW247610   1.930  10.972   2.678  0.1246 -0.6955 -1.9911
13669SOL     OW47611   1.381   9.131   0.083  0.2042 -0.1915  0.0806
13669SOL    HW147612   1.326   9.087   0.019 -1.1575  1.3116  0.1432
13669SOL    HW247613   1.412   9.210   0.038  0.3991  0.1608  0.8151
13670SOL     OW47614   3.880   9.989   9.576 -0.2326 -0.2696  0.3862
13670SOL    HW147615   3.953  10.005   9.635  0.9876  2.1105 -1.5544
13670SOL    HW247616   3.812  10.049   9.605  0.5876  1.3447 -0.8501
13671SOL     OW47617  12.449   5.252   4.691  0.0109  0.4975 -0.0567
13671SOL    HW147618  12.416   5.324   4.744 -1.0075 -0.3816  0.5415
13671SOL    HW247619  12.417   5.173   4.734 -2.7512 -0.2690 -3.1051
13672SOL     OW47620   0.856   4.450  11.537  0.1264 -0.3528  0.2405
13672SOL    HW147621   0.948   4.442  11.563  0.2803 -0.4388 -0.3126
13672SOL    HW247622   0.859   4.490  11.451 -0.4959  2.5250  1.4428
13673SOL     OW47623   1.128   9.732  12.254  0.6039  0.5250  0.0285
13673SOL    HW147624   1.218   9.748  12.225  0.3276  2.0039 -0.0703
13673SOL    HW247625   1.086   9.818  12.254 -0.6509 -0.0486  0.6621
13674SOL     OW47626   0.541   2.591   8.655  0.3992  0.1757  0.8159
13674SOL    HW147627   0.488   2.635   8.721  1.2138  4.0517 -0.8494
13674SOL    HW247628   0.480   2.533   8.610 -1.8104  2.3489  0.8040
13675SOL     OW47629   7.219   2.441  12.678  0.6632  0.3460 -0.2383
13675SOL    HW147630   7.140   2.389  12.661  1.4588 -0.6530 -0.9935
13675SOL    HW247631   7.231   2.437  12.773  0.2943 -0.2299 -0.2138
13676SOL     OW47632   4.316   9.531  11.739 -0.2617  0.3055 -0.1646
13676SOL    HW147633   4.331   9.620  11.771 -2.0289  1.2580 -1.7767
13676SOL    HW247634   4.289   9.543  11.648 -2.1915 -1.7482  0.0557
13677SOL     OW47635  11.300   5.798   3.208  0.0172 -0.0153  0.3936
13677SOL    HW147636  11.221   5.746   3.199  1.4078 -1.9725 -1.3640
13677SOL    HW247637  11.371   5.735   3.205  1.7483  1.8549 -0.3851
13678SOL     OW47638   4.158   6.591   0.054  0.0045  0.2284  0.4867
13678SOL    HW147639   4.206   6.530   0.110  2.1161  0.1125 -1.3142
13678SOL    HW247640   4.150   6.546  -0.030  0.4982  1.8985 -0.5026
13679SOL     OW47641   2.744  11.785   2.696 -0.3027 -0.0344  0.2719
13679SOL    HW147642   2.783  11.840   2.763  0.6967 -0.3648 -0.0155
13679SOL    HW247643   2.651  11.784   2.716 -0.4783  2.3753 -0.1589
13680SOL     OW47644  11.839  10.079   5.924 -0.4099  0.1837 -0.1866
13680SOL    HW147645  11.820  10.153   5.982 -0.8006 -0.5779  0.6909
13680SOL    HW247646  11.934  10.070   5.927 -0.4129  0.2458  0.2310
13681SOL     OW47647  10.834   1.886   7.624  0.3641 -0.0040  0.4615
13681SOL    HW147648  10.824   1.794   7.598  0.8088  0.4561 -1.5371
13681SOL    HW247649  10.924   1.908   7.598 -0.3145  1.4635 -0.7483
13682SOL     OW47650  12.373   2.684  10.345 -0.0736  0.2086  0.0117
13682SOL    HW147651  12.379   2.588  10.339 -3.1155 -0.1672  1.1101
13682SOL    HW247652  12.292   2.700  10.394 -0.1918  3.3821 -0.9891
13683SOL     OW47653  12.118  12.344  11.167  0.0549 -0.1104 -0.0071
13683SOL    HW147654  12.183  12.366  11.234 -0.5685 -1.2586  1.0170
13683SOL    HW247655  12.038  12.328  11.215 -0.5123 -0.6048 -1.0667
13684SOL     OW47656   5.797  11.418   2.726  0.1359 -0.3804  0.0150
13684SOL    HW147657   5.810  11.428   2.820  0.2683 -1.1375  0.0817
13684SOL    HW247658   5.878  11.377   2.695  0.6491  1.0433 -0.6493
13685SOL     OW47659  12.761  11.732   3.661 -0.3620  0.3607 -0.0079
13685SOL    HW147660  12.792  11.711   3.749 -2.4306  1.1178  0.9643
13685SOL    HW247661  12.736  11.648   3.623 -0.4377  0.1300  0.5391
13686SOL     OW47662   1.998   7.071   2.824  0.0085  0.0583 -0.8104
13686SOL    HW147663   1.980   6.995   2.769  1.1171 -0.0911 -0.9818
13686SOL    HW247664   2.056   7.038   2.893  0.2734  0.6804 -0.7259
13687SOL     OW47665   2.722   7.825   9.670 -0.0729  0.0712  0.2617
13687SOL    HW147666   2.672   7.745   9.656 -1.4534  0.7796  0.9567
13687SOL    HW247667   2.763   7.843   9.585  3.0518 -3.1304  0.8570
13688SOL     OW47668   5.461   5.593   7.839  0.4751  0.2769 -0.0554
13688SOL    HW147669   5.416   5.556   7.915  1.6416  0.9223  0.9646
13688SOL    HW247670   5.402   5.574   7.765 -0.0525 -1.5295  0.7776
13689SOL     OW47671   7.704   4.301   4.483  0.3612 -0.2206 -0.3612
13689SOL    HW147672   7.714   4.396   4.482  1.1067 -0.2680  1.0219
13689SOL    HW247673   7.634   4.284   4.419  0.5362  1.2003 -0.9647
13690SOL     OW47674  11.742  10.007  11.037  0.7646 -0.1556 -0.5768
13690SOL    HW147675  11.673  10.057  11.080  2.3453  1.6747 -0.0637
13690SOL    HW247676  11.759   9.934  11.096  0.3339  0.2513  0.0586
13691SOL     OW47677   0.856   5.926   8.145 -0.3265 -0.1896  1.1064
13691SOL    HW147678   0.945   5.893   8.161 -0.0758  0.5279  1.2430
13691SOL    HW247679   0.847   5.925   8.049 -0.0935 -0.0793  1.0824
13692SOL     OW47680   9.302   0.542   1.832  0.2178 -0.1537 -0.9883
13692SOL    HW147681   9.274   0.628   1.802  1.9513 -0.5835 -4.2913
13692SOL    HW247682   9.396   0.551   1.845  0.5438 -1.6674 -2.0565
13693SOL     OW47683  12.111  12.613  11.087  0.5592  0.1544 -0.1526
13693SOL    HW147684  12.175  12.575  11.027 -1.1862 -0.7142 -1.5367
13693SOL    HW247685  12.098  12.546  11.154  0.4361 -0.0211 -0.3542
13694SOL     OW47686  12.094   3.013   7.306 -0.2967 -0.4730 -0.3278
13694SOL    HW147687  12.130   3.075   7.369 -0.5264  0.8915 -1.4932
13694SOL    HW247688  12.065   2.939   7.359 -2.0797  1.3403  1.3719
13695SOL     OW47689   9.749   2.967   3.877  0.0798  0.4402 -0.6455
13695SOL    HW147690   9.767   3.023   3.952 -1.2736 -1.0469  0.8871
13695SOL    HW247691   9.818   2.901   3.878  0.7794  1.1290 -1.5099
13696SOL     OW47692   4.755   7.486   7.146  0.3415  0.2590  0.5411
13696SOL    HW147693   4.795   7.565   7.110 -3.9573  1.5054 -2.1592
13696SOL    HW247694   4.687   7.517   7.204 -0.7812 -1.4725  0.2248
13697SOL     OW47695   4.405   9.891  12.044 -0.6015  0.1314  0.3837
13697SOL    HW147696   4.491   9.913  12.080  0.6577 -0.8212 -1.8071
13697SOL    HW247697   4.357   9.855  12.118  1.8701 -1.8542  1.1938
13698SOL     OW47698   0.023   7.682  11.833 -0.5902  0.2183  0.8097
13698SOL    HW147699  -0.044   7.614  11.835  0.2680 -0.6760  0.1027
13698SOL    HW247700   0.072   7.670  11.915 -0.4265 -0.0279  0.6755
13699SOL     OW47701   8.982   5.043  12.297 -0.3302  0.2353  0.2333
13699SOL    HW147702   9.035   5.120  12.279  0.8140 -0.8057 -1.1147
13699SOL    HW247703   8.957   5.011  12.210 -0.4862 -1.1033  0.7500
13700SOL     OW47704   8.732   8.887  11.669  0.4698 -0.0235 -0.1715
13700SOL    HW147705   8.755   8.965  11.721  1.1248  0.0569 -0.5706
13700SOL    HW247706   8.809   8.871  11.615 -0.3680  0.1709 -1.4687
13701SOL     OW47707  11.143   8.554   5.747 -0.5484  0.0197  0.4815
13701SOL    HW147708  11.186   8.535   5.830  0.5420 -1.5784 -0.3820
13701SOL    HW247709  11.215   8.572   5.686 -1.2041 -0.5859 -0.5148
13702SOL     OW47710  11.988  12.075   6.848 -0.2854  0.3544  0.1971
13702SOL    HW147711  11.904  12.030   6.836 -1.5553  2.2713  1.2203
13702SOL    HW247712  11.983  12.150   6.788  0.3165  0.9502  0.8734
13703SOL     OW47713   6.092  12.105   6.595 -0.1449 -0.1879 -0.4306
13703SOL    HW147714   6.069  12.019   6.559 -0.0386 -0.3518 -0.1084
13703SOL    HW247715   6.016  12.132   6.645 -0.3111  0.0626 -0.8094
13704SOL     OW47716  10.399   1.186   2.626 -0.1740  0.1932 -0.0806
13704SOL    HW147717  10.329   1.131   2.592 -1.0662  0.3520  1.4059
13704SOL    HW247718  10.400   1.168   2.721  0.1638  1.9703  0.2863
13705SOL     OW47719   7.293   9.527   1.208 -0.4929 -0.1292 -0.2178
13705SOL    HW147720   7.358   9.456   1.213 -2.0430 -1.5410  0.9197
13705SOL    HW247721   7.237   9.503   1.134 -2.2418 -1.2775  1.3766
13706SOL     OW47722  11.458   9.690   7.289  0.0717  0.0262 -0.0445
13706SOL    HW147723  11.433   9.681   7.381 -1.0099  1.9723 -0.1008
13706SOL    HW247724  11.377   9.675   7.240  0.2063  0.9012 -0.5626
13707SOL     OW47725   2.527  12.725   2.872 -0.0800  0.1634  0.1278
13707SOL    HW147726   2.575  12.728   2.790  1.4983  0.5235  1.0305
13707SOL    HW247727   2.561  12.798   2.924  1.8122 -2.2155  2.5603
13708SOL     OW47728   7.118   6.732   3.055  0.4452 -0.0269 -0.4121
13708SOL    HW147729   7.078   6.669   3.115 -2.2977  1.4415 -0.5302
13708SOL    HW247730   7.093   6.702   2.968 -0.1747  0.7316 -0.5076
13709SOL     OW47731   9.637  10.262   3.247 -0.1905 -0.0041  0.5530
13709SOL    HW147732   9.560  10.249   3.191  0.9051 -0.1114 -0.9997
13709SOL    HW247733   9.704  10.298   3.188  0.8232  0.5068  1.9565
13710SOL     OW47734   0.498   3.301  10.315 -0.0230  0.1667 -0.1694
13710SOL    HW147735   0.572   3.303  10.255  0.4303 -0.0724  0.3747
13710SOL    HW247736   0.527   3.246  10.388 -0.4439  0.7143  0.4263
13711SOL     OW47737   6.480   9.009   7.058  0.7099  0.2478 -0.0011
13711SOL    HW147738   6.482   8.936   7.120  0.6835 -0.7259 -1.0931
13711SOL    HW247739   6.542   9.073   7.093  1.9695 -1.0108  0.1645
13712SOL     OW47740   3.255   3.476   1.972 -0.1361  0.4925 -0.5798
13712SOL    HW147741   3.264   3.510   1.883 -1.1196 -1.1390 -1.3569
13712SOL    HW247742   3.339   3.434   1.990  0.4059  1.6368 -0.3393
13713SOL     OW47743  11.876   2.501  11.131  0.1093 -0.4194 -0.2133
13713SOL    HW147744  11.876   2.416  11.086 -0.8319 -0.8781  0.6171
13713SOL    HW247745  11.816   2.555  11.080  0.8862 -0.1728 -0.8762
13714SOL     OW47746   6.096  11.279   3.698  0.3578  0.1349 -0.2576
13714SOL    HW147747   6.181  11.315   3.673 -0.4559  2.3916 -0.0578
13714SOL    HW247748   6.035  11.315   3.633 -0.6702 -0.2107  0.4836
13715SOL     OW47749   3.221   7.512   5.155  0.3019  0.2022  0.6532
13715SOL    HW147750   3.209   7.567   5.232  0.9059  2.3967 -0.7518
13715SOL    HW247751   3.138   7.464   5.147 -0.3550  1.1075  1.7494
13716SOL     OW47752   3.802  11.939   9.533  0.3725 -0.0483 -0.3402
13716SOL    HW147753   3.817  12.030   9.509  0.7970  0.2938  1.1356
13716SOL    HW247754   3.843  11.930   9.619  0.3139 -1.6276 -0.4497
13717SOL     OW47755   2.622   7.158   2.906  0.1959  0.0573 -0.4275
13717SOL    HW147756   2.565   7.107   2.848 -0.7664  0.8777 -0.2425
13717SOL    HW247757   2.649   7.097   2.974 -0.2745 -0.4073 -0.6532
13718SOL     OW47758  11.979   4.982   8.701 -0.3077 -0.7892 -0.6502
13718SOL    HW147759  12.053   5.042   8.692 -1.1594  0.3662 -0.3117
13718SOL    HW247760  11.929   5.017   8.775 -0.7150 -2.0726 -0.2892
13719SOL     OW47761   1.452   4.446   4.903 -0.0250  0.9046  0.3515
13719SOL    HW147762   1.387   4.384   4.935 -0.2431  1.1993  0.4837
13719SOL    HW247763   1.537   4.408   4.928 -0.2025  1.4112  1.8003
13720SOL     OW47764   8.397  11.219   6.249  0.2495 -0.3064  0.1635
13720SOL    HW147765   8.309  11.222   6.211  1.6462 -0.1868 -3.4923
13720SOL    HW247766   8.411  11.306   6.286 -1.4789 -0.6641  1.7986
13721SOL     OW47767   3.400   2.972   9.667  0.6668 -0.7132  0.5197
13721SOL    HW147768   3.377   2.889   9.625  0.3334 -0.3204 -0.0873
13721SOL    HW247769   3.396   2.953   9.760  0.9492 -1.4769  0.3873
13722SOL     OW47770   4.022  10.456   0.316 -0.3707  0.0747 -0.0400
13722SOL    HW147771   4.100  10.500   0.282  0.1277 -0.3716  0.5066
13722SOL    HW247772   3.950  10.514   0.292 -0.0353 -0.1529 -1.7414
13723SOL     OW47773   7.772   0.754   2.588 -0.1916 -0.0617  0.3898
13723SOL    HW147774   7.720   0.821   2.544  0.5866  0.0558 -0.3746
13723SOL    HW247775   7.798   0.694   2.518 -0.7300 -1.0769  1.0311
13724SOL     OW47776  10.588  12.495  12.192 -0.1893 -0.2729 -0.0399
13724SOL    HW147777  10.598  12.579  12.147 -0.5705  0.5780  1.3908
13724SOL    HW247778  10.497  12.494  12.221 -0.5112 -1.7115 -1.0050
13725SOL     OW47779   0.254   0.971   1.281 -0.0553  0.6065  0.1891
13725SOL    HW147780   0.304   1.017   1.214 -1.5743  1.4289 -0.4287
13725SOL    HW247781   0.211   1.040   1.332 -1.8157 -0.0585 -0.3104
13726SOL     OW47782   6.524  10.985   5.476 -0.1890  0.2975 -0.0198
13726SOL    HW147783   6.487  11.015   5.393  0.9492 -0.2941 -0.7717
13726SOL    HW247784   6.509  10.890   5.476 -0.1346  0.2888  0.4157
13727SOL     OW47785   0.206   1.702   3.901 -0.4079  0.2487 -0.6578
13727SOL    HW147786   0.281   1.686   3.958  0.3178 -1.3511 -1.9962
13727SOL    HW247787   0.188   1.796   3.912  1.2303  0.4889  0.3606
13728SOL     OW47788   2.826  12.032  11.803  0.0306 -0.2909  0.2845
13728SOL    HW147789   2.730  12.033  11.813 -0.0032 -1.0814  0.1525
13728SOL    HW247790   2.858  12.080  11.879 -0.4831  0.2246  0.1837
13729SOL     OW47791   0.595   9.670   5.087 -0.5528 -0.0951  0.3032
13729SOL    HW147792   0.681   9.674   5.047 -1.2991 -0.9681 -1.4821
13729SOL    HW247793   0.555   9.755   5.067 -0.0632  0.3853  1.3013
13730SOL     OW47794   2.118  12.286   3.676  0.0451  0.1383  0.0816
13730SOL    HW147795   2.173  12.250   3.607 -2.1986 -2.4636 -0.5420
13730SOL    HW247796   2.078  12.210   3.718 -0.6313  1.7487  2.5997
13731SOL     OW47797   4.614   8.357   3.482  0.1041 -0.8842 -0.4533
13731SOL    HW147798   4.641   8.287   3.541  0.2249 -0.3252  0.1699
13731SOL    HW247799   4.624   8.437   3.534 -2.8822 -0.6253 -0.0890
13732SOL     OW47800   9.218  11.227   8.855 -0.7573 -0.0535  0.2994
13732SOL    HW147801   9.204  11.222   8.950 -0.5007  0.8342  0.3983
13732SOL    HW247802   9.286  11.294   8.845  0.2164 -1.1160 -0.4337
13733SOL     OW47803   1.069   1.140   2.994  0.2998 -0.1505 -0.1272
13733SOL    HW147804   1.139   1.082   3.022  0.1461 -0.4265 -0.3107
13733SOL    HW247805   1.106   1.188   2.920 -0.3677 -1.7987 -1.6163
13734SOL     OW47806   2.179  12.608   5.667  0.0267  0.5500  0.2353
13734SOL    HW147807   2.251  12.545   5.659 -1.0619 -0.9501  1.6530
13734SOL    HW247808   2.188  12.644   5.755 -1.8226 -0.8427  1.0538
13735SOL     OW47809   7.738   9.544   1.545  0.2894 -0.1124  0.4199
13735SOL    HW147810   7.738   9.588   1.460 -1.0837 -1.9625 -0.6254
13735SOL    HW247811   7.800   9.472   1.536  0.1746 -0.2928  0.9912
13736SOL     OW47812   9.509   8.050  11.725  0.1712 -0.1853  0.2530
13736SOL    HW147813   9.428   8.000  11.717  0.2177 -0.5461  1.7586
13736SOL    HW247814   9.572   8.002  11.671 -0.0105 -1.2926  0.9854
13737SOL     OW47815   1.253   1.001  12.038  0.0294  0.5347  0.4525
13737SOL    HW147816   1.184   0.995  12.104 -0.6632  2.5185 -0.0179
13737SOL    HW247817   1.249   1.091  12.008  2.3082  0.4798 -0.1901
13738SOL     OW47818   4.216  12.456   8.796 -0.0734 -0.0605 -0.1440
13738SOL    HW147819   4.192  12.391   8.730 -1.3021  0.5824 -0.3667
13738SOL    HW247820   4.231  12.405   8.876 -1.4050 -0.6078 -0.2151
13739SOL     OW47821   4.053   3.644   9.010  0.1092  0.0477 -0.1060
13739SOL    HW147822   4.008   3.725   8.988 -1.5576 -0.7218  0.3035
13739SOL    HW247823   3.985   3.577   9.008  0.7105 -0.8028  2.9469
13740SOL     OW47824  10.272  11.975   2.396  0.4937 -0.3449 -0.1546
13740SOL    HW147825  10.225  11.921   2.459  1.8323  0.1819  1.3795
13740SOL    HW247826  10.324  11.913   2.345  0.5105 -0.6713  0.2548
13741SOL     OW47827   7.415   7.092   9.743  0.5528 -0.1218  0.5780
13741SOL    HW147828   7.334   7.044   9.761  0.4210 -0.0390  0.2199
13741SOL    HW247829   7.412   7.166   9.803  0.1902  0.0691  0.3331
13742SOL     OW47830  10.641  10.784  12.127 -0.0489  0.4643 -0.4505
13742SOL    HW147831  10.605  10.696  12.132  1.7399 -0.3587 -1.0856
13742SOL    HW247832  10.723  10.774  12.078  0.3081  2.4434 -0.3538
13743SOL     OW47833   5.008   4.503   8.709 -0.0649  0.2122  0.1937
13743SOL    HW147834   4.912   4.497   8.710 -0.0082 -0.7508  0.9846
13743SOL    HW247835   5.035   4.443   8.639 -0.0374  0.7056 -0.2296
13744SOL     OW47836   4.820   3.044   7.020  0.7961 -0.3718  0.4054
13744SOL    HW147837   4.877   2.995   6.961 -0.8600 -2.4930  0.4681
13744SOL    HW247838   4.732   3.017   6.996 -0.0752  0.9384  1.9571
13745SOL     OW47839  10.604  12.209   8.150  0.0172 -0.4818 -0.6123
13745SOL    HW147840  10.627  12.281   8.209 -0.0478  1.2788 -2.6113
13745SOL    HW247841  10.608  12.130   8.205  0.1514  1.0134  1.6529
13746SOL     OW47842   8.996   6.903  10.185 -0.6649 -0.1692  0.4009
13746SOL    HW147843   8.992   6.957  10.106  2.2780  0.5961  0.6853
13746SOL    HW247844   8.953   6.956  10.252 -0.3790  0.5437  0.0263
13747SOL     OW47845   1.317   6.919   3.452 -0.1380  0.5451 -0.0406
13747SOL    HW147846   1.235   6.966   3.472 -1.1785  0.2431 -3.0614
13747SOL    HW247847   1.321   6.850   3.517 -1.0755  1.9221  1.5761
13748SOL     OW47848  10.610   2.939  11.117 -1.1003  0.7243 -0.4904
13748SOL    HW147849  10.619   2.976  11.029  1.1825 -1.7548 -1.4014
13748SOL    HW247850  10.668   2.992  11.171 -1.1986  1.1837 -0.8258
13749SOL     OW47851   5.762  10.402   6.222  1.3661  0.2232 -0.3911
13749SOL    HW147852   5.807  10.469   6.170  3.9739 -0.6779  0.5364
13749SOL    HW247853   5.822  10.328   6.221  0.4118 -0.6474  1.9717
13750SOL     OW47854   3.945   1.401   3.460  0.5287  0.2210  0.0646
13750SOL    HW147855   3.936   1.449   3.543  0.2908  0.5730 -0.1576
13750SOL    HW247856   3.857   1.368   3.442  1.0933 -2.1115  1.2642
13751SOL     OW47857  11.766  12.422  12.676  0.2480 -0.1592 -0.0327
13751SOL    HW147858  11.802  12.354  12.732 -1.2918 -2.0084 -1.1552
13751SOL    HW247859  11.700  12.466  12.730  0.0251 -0.7387  0.1729
13752SOL     OW47860   2.501   0.601   7.768  0.0170  0.0932 -0.4403
13752SOL    HW147861   2.513   0.694   7.787 -0.9626  0.2200 -0.4177
13752SOL    HW247862   2.478   0.598   7.675  1.3308 -0.2452 -0.7766
13753SOL     OW47863  10.281   1.318   1.165  0.0462 -0.0052  0.1425
13753SOL    HW147864  10.233   1.383   1.114 -0.9243 -0.0524  0.9666
13753SOL    HW247865  10.373   1.335   1.145 -0.2252  1.2449 -0.1034
13754SOL     OW47866   8.129  10.780   5.671  0.5371  0.8100  1.0887
13754SOL    HW147867   8.068  10.854   5.680  1.5561  1.6411  1.4164
13754SOL    HW247868   8.183  10.784   5.750  0.2929 -0.6054  1.3511
13755SOL     OW47869   8.986   8.200   4.504 -0.0741 -0.4941  0.1604
13755SOL    HW147870   8.967   8.259   4.430 -0.1881 -0.6609  0.0563
13755SOL    HW247871   8.931   8.124   4.488 -2.6415  0.7905  2.1323
13756SOL     OW47872   9.380  11.778   7.221  0.4151 -0.2821 -0.5935
13756SOL    HW147873   9.287  11.798   7.208  0.3719  0.7812  1.0627
13756SOL    HW247874   9.391  11.775   7.316  2.0672 -0.4743 -0.7636
13757SOL     OW47875   2.212  12.766  12.590 -0.3220 -0.0375  0.7286
13757SOL    HW147876   2.136  12.821  12.575 -0.7544 -0.6853  0.5073
13757SOL    HW247877   2.177  12.687  12.631  0.1222 -0.6453 -0.0334
13758SOL     OW47878   1.673  10.033   9.724  0.0737 -0.3805  0.1742
13758SOL    HW147879   1.659  10.090   9.800  1.1487 -0.8505  0.7490
13758SOL    HW247880   1.715  10.089   9.660 -0.8510  0.0234 -0.0876
13759SOL     OW47881   6.075   4.418   5.470 -0.5339 -0.2213 -0.0786
13759SOL    HW147882   6.133   4.348   5.499 -1.2135 -0.9371 -0.4045
13759SOL    HW247883   6.089   4.488   5.534  1.3684  0.0068 -0.6844
13760SOL     OW47884   5.001   4.480  12.668  0.4758 -0.0085 -0.4995
13760SOL    HW147885   5.029   4.543  12.602 -2.1586  1.0783 -0.6940
13760SOL    HW247886   4.960   4.533  12.736 -0.3896 -1.3879  0.0961
13761SOL     OW47887  11.534   3.137   4.305 -0.5075  0.1283 -0.4527
13761SOL    HW147888  11.587   3.136   4.225 -0.0333 -0.9486 -0.1397
13761SOL    HW247889  11.593   3.104   4.373 -1.6047 -1.1996 -0.1105
13762SOL     OW47890   5.794   1.171   7.434 -0.2401 -0.1575 -1.1012
13762SOL    HW147891   5.871   1.146   7.383  2.0265 -0.4726  2.1830
13762SOL    HW247892   5.730   1.104   7.414  1.5886 -1.9389 -1.3187
13763SOL     OW47893   0.964   0.850   0.171 -0.3475  0.8257 -0.0161
13763SOL    HW147894   0.959   0.927   0.115 -0.2767  0.3282 -0.7148
13763SOL    HW247895   0.873   0.826   0.188 -0.4607 -0.9149 -2.5790
13764SOL     OW47896   6.882   1.769   7.367  0.6682  0.0775 -0.7307
13764SOL    HW147897   6.958   1.758   7.424  0.1282 -0.6248 -0.1271
13764SOL    HW247898   6.855   1.680   7.344 -1.1635  0.1821  0.7117
13765SOL     OW47899   8.169  12.294  11.590 -0.0755  0.1389 -0.1048
13765SOL    HW147900   8.260  12.301  11.561 -0.6727  0.0696 -2.2199
13765SOL    HW247901   8.139  12.384  11.599 -0.1309  0.1741 -0.6157
13766SOL     OW47902  10.599   2.534   5.330 -0.3723 -0.2507 -0.3619
13766SOL    HW147903  10.522   2.480   5.313 -1.7026  1.5537 -0.4106
13766SOL    HW247904  10.671   2.487   5.288 -1.6921 -1.2719 -1.6005
13767SOL     OW47905   3.461   3.238   0.698  0.0690  0.0594 -0.0140
13767SOL    HW147906   3.493   3.316   0.744  0.9115 -0.0514 -0.3978
13767SOL    HW247907   3.485   3.253   0.606 -2.7460  0.8896 -0.7020
13768SOL     OW47908   2.823   1.185  11.639  0.2173  0.5690  0.0217
13768SOL    HW147909   2.893   1.224  11.691  0.4352  0.1014  0.0870
13768SOL    HW247910   2.752   1.169  11.701 -0.4544  2.2065 -0.2708
13769SOL     OW47911   7.269   5.199   4.822 -0.3497 -0.0328  0.2781
13769SOL    HW147912   7.236   5.151   4.746 -0.8531 -1.4036  1.3136
13769SOL    HW247913   7.198   5.257   4.847 -1.5554 -1.9603  1.6454
13770SOL     OW47914   3.150   9.130   0.073  0.2972 -0.1303  0.0620
13770SOL    HW147915   3.150   9.056   0.012  2.0977  0.0423 -0.2020
13770SOL    HW247916   3.142   9.090   0.160 -0.6566 -0.4861 -0.1796
13771SOL     OW47917   4.920   6.082   0.505  0.4273  0.0423  0.0813
13771SOL    HW147918   4.881   5.995   0.515  1.3052 -0.1451  2.6002
13771SOL    HW247919   4.944   6.108   0.594  1.1058  2.4548 -0.7232
13772SOL     OW47920   5.794  12.241  12.422  0.1761  0.2295 -0.0874
13772SOL    HW147921   5.759  12.201  12.501 -0.4870  1.8779  0.5066
13772SOL    HW247922   5.889  12.232  12.431  0.0661 -0.4726  0.4128
13773SOL     OW47923  10.991   6.469   7.995 -0.4050 -0.3685  0.3149
13773SOL    HW147924  11.013   6.555   7.960 -2.5745  0.5412  1.0100
13773SOL    HW247925  11.054   6.453   8.064 -0.0198  0.6991  0.2179
13774SOL     OW47926   4.336  10.977   1.430  0.7193 -0.2924 -0.2632
13774SOL    HW147927   4.346  11.035   1.355  1.2737 -1.2126 -0.9159
13774SOL    HW247928   4.425  10.952   1.454  0.6120  0.6297  1.2380
13775SOL     OW47929   4.717   6.256   8.301 -0.2669 -0.1410  0.2579
13775SOL    HW147930   4.758   6.249   8.215 -0.6938 -2.0631  0.1530
13775SOL    HW247931   4.790   6.254   8.363 -0.0169  0.1393 -0.0236
13776SOL     OW47932   4.290   2.867  11.347  0.4510  0.3202  0.1419
13776SOL    HW147933   4.221   2.925  11.315 -0.8051 -0.5884  1.0952
13776SOL    HW247934   4.319   2.907  11.429  0.1992  0.0732  0.3540
13777SOL     OW47935   5.829   7.922   0.143 -0.1215  0.0719 -0.0838
13777SOL    HW147936   5.766   7.930   0.215 -0.4428 -0.7531 -0.2622
13777SOL    HW247937   5.910   7.892   0.185  0.0325  0.6997  0.0830
13778SOL     OW47938  12.782   8.412   4.847 -0.3383 -0.1676 -0.3028
13778SOL    HW147939  12.811   8.432   4.758  0.0851  0.9748  0.0702
13778SOL    HW247940  12.691   8.441   4.850 -0.7832 -1.4371 -0.7334
13779SOL     OW47941  11.276   6.640  11.604  0.6892  0.1709  0.0356
13779SOL    HW147942  11.211   6.589  11.652 -0.1076  1.3753  0.2818
13779SOL    HW247943  11.279   6.600  11.518 -0.1185 -0.1294  0.1394
13780SOL     OW47944   1.891   9.844  12.728 -0.2296 -0.1666 -0.1786
13780SOL    HW147945   1.800   9.864  12.750 -0.2648 -0.4388 -0.0603
13780SOL    HW247946   1.886   9.789  12.650 -0.1307  0.3677 -0.5620
13781SOL     OW47947   3.382   5.138  12.202  0.0201  0.2260 -0.1561
13781SOL    HW147948   3.412   5.113  12.114  0.3755  1.2047 -0.3217
13781SOL    HW247949   3.450   5.197  12.234  1.2880 -2.1001  1.8497
13782SOL     OW47950   4.008  11.768  11.399 -0.3609 -0.1210 -0.2038
13782SOL    HW147951   4.101  11.786  11.408 -0.4870  0.5983 -0.2692
13782SOL    HW247952   4.002  11.701  11.332  0.1036 -0.0917 -0.2725
13783SOL     OW47953   5.500   9.138   0.685 -0.0758  0.0353 -0.0586
13783SOL    HW147954   5.448   9.081   0.629  0.9074 -2.0033  0.9741
13783SOL    HW247955   5.568   9.173   0.627  0.8497 -1.9293 -0.2513
13784SOL     OW47956  11.312   2.831   9.247 -0.1770  0.1718 -0.0543
13784SOL    HW147957  11.401   2.866   9.244 -0.1337  0.0230 -1.3395
13784SOL    HW247958  11.315   2.754   9.190 -0.5757 -1.2266  1.7356
13785SOL     OW47959   2.324   6.785   3.385  0.1134 -0.1892  0.5188
13785SOL    HW147960   2.328   6.804   3.479 -2.1860  0.0772  0.6264
13785SOL    HW247961   2.294   6.694   3.381 -0.3223 -0.0295  0.0559
13786SOL     OW47962   0.263   4.364  10.857 -0.4578 -0.1140 -0.2259
13786SOL    HW147963   0.332   4.425  10.832 -0.1775 -0.9268 -1.5711
13786SOL    HW247964   0.290   4.280  10.818 -1.5210 -0.7695  0.3832
13787SOL     OW47965   7.097  12.407   4.840 -0.4700 -0.0729 -0.7599
13787SOL    HW147966   7.181  12.373   4.872 -0.1866 -0.0270 -1.4434
13787SOL    HW247967   7.031  12.355   4.887 -0.1002  0.8484  0.8448
13788SOL     OW47968  12.177   7.072   5.414 -0.2696 -0.2901 -0.3229
13788SOL    HW147969  12.131   6.996   5.449 -3.5579  2.3059  1.4622
13788SOL    HW247970  12.110   7.124   5.372  1.5876  2.3391 -0.2622
13789SOL     OW47971   4.583  10.681   5.980 -0.0845  0.7315  0.1989
13789SOL    HW147972   4.541  10.732   6.049 -0.8190 -0.2865  0.5241
13789SOL    HW247973   4.512  10.657   5.921  0.3876  0.7848 -0.4013
13790SOL     OW47974   5.879   7.791   6.659 -0.1461  0.6658 -0.4604
13790SOL    HW147975   5.806   7.805   6.720  0.9133 -0.9378  1.2712
13790SOL    HW247976   5.957   7.794   6.714  0.9642  0.4951 -1.9808
13791SOL     OW47977   6.975   4.611   1.981 -0.1698  0.2883  0.1962
13791SOL    HW147978   7.057   4.562   1.992 -1.2557 -1.6764 -0.0153
13791SOL    HW247979   6.986   4.659   1.899  0.8945  0.3197  0.3490
13792SOL     OW47980  12.748   0.715   2.545 -0.0143  0.2734  0.0636
13792SOL    HW147981  12.727   0.808   2.545  1.0646  0.5324 -0.9168
13792SOL    HW247982  12.769   0.695   2.636 -1.7917  0.5982  0.5913
13793SOL     OW47983   8.049   7.389  10.175 -0.3257  0.4954 -0.9708
13793SOL    HW147984   8.091   7.463  10.131 -0.9955  1.5913  0.1622
13793SOL    HW247985   7.956   7.412  10.178 -0.5191 -0.2977 -0.4303
13794SOL     OW47986   1.037   3.558   6.105  0.0772  0.3737  0.7439
13794SOL    HW147987   1.064   3.559   6.197  1.3883 -0.2339  0.3891
13794SOL    HW247988   1.091   3.625   6.063  0.6602 -0.4598  0.1253
13795SOL     OW47989  11.439   6.208  10.459  0.4274 -0.1588 -0.3528
13795SOL    HW147990  11.519   6.159  10.439  0.7664  0.7215 -1.2422
13795SOL    HW247991  11.378   6.142  10.492  1.4994 -0.8511  0.3217
13796SOL     OW47992   4.160   9.694   4.707 -0.1798 -0.6567  0.2307
13796SOL    HW147993   4.100   9.759   4.744 -0.7960  1.6928 -4.1630
13796SOL    HW247994   4.103   9.623   4.676 -0.2475 -0.4155 -0.2130
13797SOL     OW47995  10.274   1.359  12.219  0.0559  0.8045 -0.3865
13797SOL    HW147996  10.246   1.423  12.153  1.6428  2.5017  0.5358
13797SOL    HW247997  10.359   1.389  12.248  0.5306 -1.3458  0.6487
13798SOL     OW47998   8.554  10.414   8.804 -0.3870 -0.0613  0.0194
13798SOL    HW147999   8.649  10.427   8.796 -0.6243  2.9780  0.8599
13798SOL    HW248000   8.542  10.381   8.893 -0.0783 -1.1736 -0.3468
13799SOL     OW48001   6.203  12.071   0.397  0.2263  0.7308 -0.6508
13799SOL    HW148002   6.137  12.026   0.344  0.5438  0.5552 -0.8966
13799SOL    HW248003   6.181  12.164   0.389 -1.1410  0.5888  0.7883
13800SOL     OW48004   4.649   8.084   6.260 -0.2201 -0.2595  0.4670
13800SOL    HW148005   4.640   8.080   6.164  0.9698  0.1349  0.3294
13800SOL    HW248006   4.732   8.040   6.278 -0.6899 -0.8003  1.3777
13801SOL     OW48007   6.506  11.070   1.505 -0.6445  0.0734  0.0908
13801SOL    HW148008   6.557  11.151   1.498  0.0540 -0.5080 -2.0560
13801SOL    HW248009   6.569  11.000   1.493 -1.6876 -0.7105 -1.0093
13802SOL     OW48010  12.029   3.209   9.920 -0.0635 -0.0109  0.2224
13802SOL    HW148011  11.983   3.127   9.904  2.3653 -1.6211  0.9491
13802SOL    HW248012  12.055   3.240   9.833  0.3175 -0.8440  0.0295
13803SOL     OW48013   5.153   0.327   6.262  0.0921 -0.0744  0.2343
13803SOL    HW148014   5.099   0.402   6.238 -0.5582 -0.3083  0.9245
13803SOL    HW248015   5.199   0.303   6.182 -0.5495  0.3623 -0.2691
13804SOL     OW48016   6.123   3.774   1.299 -0.1206  0.4908  0.3285
13804SOL    HW148017   6.136   3.721   1.377 -0.8778  0.7999  0.6818
13804SOL    HW248018   6.204   3.824   1.289 -0.0070  0.4214  0.9014
13805SOL     OW48019  12.719   4.663   6.979 -0.1516  0.2507 -0.3417
13805SOL    HW148020  12.685   4.711   7.055  2.1059  1.2005  0.1549
13805SOL    HW248021  12.710   4.724   6.907 -0.5903  0.0384 -0.4720
13806SOL     OW48022  12.040   7.466   0.580  0.1576  0.8655 -0.0800
13806SOL    HW148023  11.956   7.432   0.613  0.9192  0.4260  1.4654
13806SOL    HW248024  12.016   7.544   0.530 -1.3052 -0.0160 -0.8247
13807SOL     OW48025   3.913   6.475   9.304  0.3019  0.1283 -0.4195
13807SOL    HW148026   3.899   6.464   9.210 -1.0126  3.2021 -0.6875
13807SOL    HW248027   4.002   6.510   9.312  0.3350  0.0697 -0.5329
13808SOL     OW48028  12.430   0.529   8.449 -0.5032  0.3110 -0.7018
13808SOL    HW148029  12.367   0.459   8.433 -1.0500 -0.4289  3.5434
13808SOL    HW248030  12.377   0.608   8.454 -0.8149  0.0657  0.2902
13809SOL     OW48031   3.292  10.233   2.901  0.1584 -0.2869  0.1157
13809SOL    HW148032   3.266  10.321   2.873 -1.9718 -0.4008  1.5276
13809SOL    HW248033   3.378  10.219   2.859 -0.5034  1.5034 -2.0365
13810SOL     OW48034   0.062   5.888   5.701  0.0886  0.2624 -0.0072
13810SOL    HW148035   0.129   5.825   5.673 -1.3443 -1.0178 -0.7000
13810SOL    HW248036   0.038   5.933   5.620  0.7032  1.3377  0.3928
13811SOL     OW48037   7.600   3.760   1.845 -0.3870  0.4073 -0.2599
13811SOL    HW148038   7.616   3.845   1.886 -1.9588  0.0561  1.2405
13811SOL    HW248039   7.586   3.701   1.919  2.6175 -1.6672 -1.1747
13812SOL     OW48040   5.091   4.064   5.606 -0.6217  0.4434  0.5383
13812SOL    HW148041   5.060   3.984   5.563  0.7809  0.1303  0.0479
13812SOL    HW248042   5.107   4.038   5.696  0.9122 -0.1816  0.1289
13813SOL     OW48043   0.241  10.867   7.241 -0.3418  0.6168  0.3637
13813SOL    HW148044   0.210  10.938   7.297 -3.2572 -0.5860  0.4850
13813SOL    HW248045   0.254  10.793   7.301 -0.1412  0.2694 -0.0998
13814SOL     OW48046   3.097   1.328   5.949  0.7285  0.1262 -0.0585
13814SOL    HW148047   3.101   1.235   5.971  0.0858  0.2505  0.6343
13814SOL    HW248048   3.059   1.330   5.861 -0.8646 -0.2201  0.5720
13815SOL     OW48049   2.196  11.893   9.776 -0.7167  0.0598 -0.1747
13815SOL    HW148050   2.146  11.941   9.710 -0.3923 -0.4866 -0.8340
13815SOL    HW248051   2.287  11.917   9.759 -0.4253 -1.6302 -1.2644
13816SOL     OW48052   9.691   6.338  12.324  0.1123  0.0710  0.9681
13816SOL    HW148053   9.636   6.372  12.253 -0.7184  0.9018  1.9789
13816SOL    HW248054   9.662   6.247  12.335  2.5532 -1.2117 -1.9488
13817SOL     OW48055   3.641  11.843   1.587  0.6558  0.1598 -0.0622
13817SOL    HW148056   3.702  11.891   1.643  0.6285 -0.2343  0.3088
13817SOL    HW248057   3.669  11.752   1.593  0.8241  0.1424 -0.9119
13818SOL     OW48058   0.123   9.671   8.235  0.2223 -0.0455  0.1016
13818SOL    HW148059   0.129   9.577   8.253  0.9498 -0.6994 -2.8854
13818SOL    HW248060   0.196   9.709   8.283  0.7463 -1.2176  0.2796
13819SOL     OW48061   8.684  10.078   1.253  0.4449  0.1194  0.2319
13819SOL    HW148062   8.690  10.172   1.237  0.6798  0.0570 -0.0534
13819SOL    HW248063   8.659  10.070   1.345 -0.3315  0.4726  0.0619
13820SOL     OW48064   0.301   7.165   6.436 -0.1301 -0.1351  0.8841
13820SOL    HW148065   0.284   7.076   6.468 -2.8896  0.7755  2.3224
13820SOL    HW248066   0.294   7.158   6.341  0.3929 -1.5619  0.9274
13821SOL     OW48067   3.145   0.363   5.310 -0.0474 -0.3284  0.1106
13821SOL    HW148068   3.120   0.282   5.353  0.2452 -1.3942 -1.6321
13821SOL    HW248069   3.202   0.336   5.238  0.9727  1.5185  0.1409
13822SOL     OW48070  12.722   3.180   4.134  0.3612  0.2711  0.6753
13822SOL    HW148071  12.774   3.100   4.134  0.2678  0.2070  1.2332
13822SOL    HW248072  12.667   3.173   4.212  1.0843  1.3452  1.3143
13823SOL     OW48073   0.339   7.875  11.584 -0.7843 -0.1798 -0.1137
13823SOL    HW148074   0.276   7.804  11.578 -0.3601 -0.4794 -1.6122
13823SOL    HW248075   0.291   7.953  11.555 -0.4395 -0.4625 -1.5540
13824SOL     OW48076   9.590  11.588   2.940  0.2129 -0.3648 -0.8691
13824SOL    HW148077   9.673  11.549   2.966  1.3115  1.6485 -1.1112
13824SOL    HW248078   9.573  11.551   2.853  2.1086  0.8331 -1.8536
13825SOL     OW48079   3.389   3.453   9.309 -0.2852  0.2162  0.4152
13825SOL    HW148080   3.398   3.512   9.384 -1.7155 -0.8694  1.5019
13825SOL    HW248081   3.368   3.368   9.347  1.5485 -1.0072 -1.1168
13826SOL     OW48082   8.615   8.657   6.570 -0.2896  0.5626 -0.0726
13826SOL    HW148083   8.572   8.580   6.532 -2.7255  1.8494 -0.1226
13826SOL    HW248084   8.633   8.632   6.661  1.1967 -0.8727 -0.7227
13827SOL     OW48085   6.144   0.887   7.655  0.6980  0.2609 -0.2124
13827SOL    HW148086   6.134   0.961   7.715 -0.1267 -0.1173  0.1270
13827SOL    HW248087   6.201   0.921   7.586  1.6494  0.7125  0.7623
13828SOL     OW48088   6.936   4.813   0.465 -0.1085  0.0419  0.0107
13828SOL    HW148089   7.011   4.796   0.408 -0.2595  1.0796 -0.5079
13828SOL    HW248090   6.860   4.803   0.409 -0.3192 -0.0111  0.3027
13829SOL     OW48091   4.047   8.652  11.752 -0.1358  0.8367  0.1599
13829SOL    HW148092   3.960   8.683  11.777 -0.4567 -0.1539  0.3344
13829SOL    HW248093   4.103   8.679  11.824 -0.5254  0.4843  0.6074
13830SOL     OW48094  11.824  10.933   3.116 -0.0979  0.5441  0.2069
13830SOL    HW148095  11.838  10.844   3.084  1.1552  1.2802 -1.4964
13830SOL    HW248096  11.903  10.954   3.164  0.4518  1.3376 -0.9905
13831SOL     OW48097   6.201   0.013   6.592  0.9400 -0.5506  0.1834
13831SOL    HW148098   6.140   0.051   6.528  1.4934  0.3996  0.1929
13831SOL    HW248099   6.183   0.062   6.672  1.6750 -0.3027  0.1968
13832SOL     OW48100   5.573   7.582  10.851  0.2801 -0.3366  0.2501
13832SOL    HW148101   5.568   7.605  10.944 -1.0255  1.7188 -0.2731
13832SOL    HW248102   5.621   7.654  10.811 -1.1967  0.0039 -1.0012
13833SOL     OW48103  10.984   3.800   2.818  0.3883 -0.3598  0.2021
13833SOL    HW148104  11.015   3.821   2.906  0.2547 -0.9770  0.4040
13833SOL    HW248105  11.052   3.835   2.760  0.4547  0.0938  0.5452
13834SOL     OW48106   0.630  10.160  11.707 -0.4421 -0.5805  0.0408
13834SOL    HW148107   0.616  10.254  11.692 -2.7249 -0.5972  1.4819
13834SOL    HW248108   0.724  10.148  11.701  0.1334  2.1952  1.7815
13835SOL     OW48109   8.658  11.749   2.902 -0.1268  0.0089 -0.4127
13835SOL    HW148110   8.689  11.834   2.935  0.3543 -0.7665  1.2365
13835SOL    HW248111   8.617  11.708   2.979  0.0009 -1.4139 -1.0883
13836SOL     OW48112   0.772  10.400   8.663  0.3990 -0.1647 -0.0085
13836SOL    HW148113   0.771  10.318   8.713 -1.6875 -0.2844 -0.1465
13836SOL    HW248114   0.752  10.374   8.574 -0.4181  0.4955 -0.0294
13837SOL     OW48115  10.149   6.593   1.754 -0.4358  0.5677 -0.9006
13837SOL    HW148116  10.166   6.531   1.824  1.0068  1.6083 -0.2765
13837SOL    HW248117  10.143   6.678   1.798  2.5505  1.5482 -2.1558
13838SOL     OW48118   3.196   4.829   2.518  0.3795  0.1018 -0.1947
13838SOL    HW148119   3.270   4.851   2.462  1.4847  0.9722  1.5330
13838SOL    HW248120   3.228   4.758   2.573  0.5829  1.5834  1.7156
13839SOL     OW48121   3.929  10.707  11.128 -0.1073  0.7299  0.2192
13839SOL    HW148122   3.947  10.653  11.205  0.2500 -0.4551 -0.6784
13839SOL    HW248123   3.846  10.674  11.094  0.4116  0.3214 -0.6867
13840SOL     OW48124   7.337   9.154   3.257  0.2342 -0.1931 -0.5759
13840SOL    HW148125   7.426   9.126   3.276 -0.1844 -0.7820  0.6704
13840SOL    HW248126   7.288   9.073   3.246 -0.3903  0.0905  0.0279
13841SOL     OW48127   7.430   1.886   6.355 -0.0549 -0.1605  0.4090
13841SOL    HW148128   7.356   1.880   6.295 -0.3538 -0.2721  0.7895
13841SOL    HW248129   7.415   1.816   6.419  0.1535  0.0892  0.7344
13842SOL     OW48130  12.427  11.930  12.525  0.0677 -0.0141 -0.0290
13842SOL    HW148131  12.479  11.948  12.604 -0.8870 -0.2636  0.6630
13842SOL    HW248132  12.409  12.017  12.489 -0.3936  0.1658  0.6202
13843SOL     OW48133   6.504  11.112   4.496 -0.1374  0.1170  0.1316
13843SOL    HW148134   6.499  11.019   4.517  0.5877  0.1563  0.5188
13843SOL    HW248135   6.589  11.140   4.530 -0.1217  0.8052 -0.4449
13844SOL     OW48136   5.867   3.471  11.630 -0.3609 -0.3207  0.2048
13844SOL    HW148137   5.959   3.448  11.619 -0.8209 -1.9431 -0.5224
13844SOL    HW248138   5.838   3.494  11.541 -1.6297 -3.8509 -0.4322
13845SOL     OW48139   9.782  11.625   8.974 -0.5932  0.4774 -0.0006
13845SOL    HW148140   9.755  11.544   9.018 -0.6409  0.4410 -0.0945
13845SOL    HW248141   9.846  11.596   8.908 -0.0219  0.6135  0.4908
13846SOL     OW48142  10.628   2.167  11.947  0.4003 -0.1660  0.4391
13846SOL    HW148143  10.585   2.085  11.971 -0.5390  0.1948  0.0288
13846SOL    HW248144  10.595   2.188  11.860 -1.7375  2.1534  1.6672
13847SOL     OW48145   4.899  11.743  10.362 -0.0562  0.0084  0.0670
13847SOL    HW148146   4.824  11.799  10.341 -0.0243 -0.2749 -0.8210
13847SOL    HW248147   4.863  11.654  10.363  0.5379 -0.2986 -1.8826
13848SOL     OW48148   9.834   7.243   3.059  0.7013 -0.2261 -0.3300
13848SOL    HW148149   9.782   7.199   2.992  0.7157  0.8204 -1.0523
13848SOL    HW248150   9.905   7.181   3.079 -0.5145 -1.4619  0.3221
13849SOL     OW48151   4.913   7.192  11.037 -0.8021 -0.1561  0.1090
13849SOL    HW148152   4.994   7.148  11.063 -0.4654  0.4582  0.1086
13849SOL    HW248153   4.929   7.221  10.947 -0.4795  1.2252  0.5896
13850SOL     OW48154   7.812  11.371   7.718 -0.3298  0.6881 -0.5509
13850SOL    HW148155   7.840  11.462   7.727  0.4026  0.4580 -0.3550
13850SOL    HW248156   7.722  11.376   7.686 -0.6769  1.4953  0.4858
13851SOL     OW48157   4.520  11.463   1.556  0.6211  0.0395 -0.2388
13851SOL    HW148158   4.475  11.510   1.486  1.0501  0.3030 -0.3415
13851SOL    HW248159   4.592  11.418   1.512 -0.1066 -1.1770 -0.2325
13852SOL     OW48160   9.143   3.336   0.465 -0.1581 -0.2652  0.4435
13852SOL    HW148161   9.235   3.359   0.454  0.1311 -0.6060  1.8801
13852SOL    HW248162   9.142   3.240   0.469 -0.5631 -0.2631  0.4822
13853SOL     OW48163   8.695   1.020   9.335 -0.4688  0.2599 -0.3491
13853SOL    HW148164   8.735   0.941   9.299 -1.0148  0.5966 -1.7667
13853SOL    HW248165   8.768   1.080   9.350 -0.1513 -0.1724 -0.1293
13854SOL     OW48166   1.621  10.245   3.212 -0.1342  0.4430  0.5026
13854SOL    HW148167   1.567  10.296   3.152  1.5099 -0.7767 -2.2123
13854SOL    HW248168   1.629  10.159   3.169  1.6977 -0.2780  2.1507
13855SOL     OW48169  10.795  11.198  11.859  0.3033  0.0071 -0.1765
13855SOL    HW148170  10.849  11.277  11.867  1.1266 -0.5842  0.2732
13855SOL    HW248171  10.858  11.126  11.859 -0.4656 -0.6784 -0.0563
13856SOL     OW48172   3.113  12.366   0.301  0.0375 -0.1046 -0.4474
13856SOL    HW148173   3.204  12.336   0.306  0.8495  2.2687  0.3914
13856SOL    HW248174   3.092  12.363   0.208  1.8887  1.6798 -1.0087
13857SOL     OW48175   4.504   5.240   6.285  0.3361 -0.0815  0.1519
13857SOL    HW148176   4.431   5.197   6.330  0.8783 -1.0460  0.1417
13857SOL    HW248177   4.492   5.333   6.304 -0.3590 -0.3143  0.9421
13858SOL     OW48178  12.369   3.750   5.004 -0.1323 -0.6765  0.1391
13858SOL    HW148179  12.435   3.681   4.995  2.5089  1.7573 -0.3947
13858SOL    HW248180  12.335   3.762   4.915 -0.1001 -0.7971  0.1095
13859SOL     OW48181   2.226  12.367   3.075  0.5389 -0.3448  0.1523
13859SOL    HW148182   2.171  12.445   3.062 -0.5212 -1.4198 -2.6647
13859SOL    HW248183   2.305  12.400   3.117  0.6390  2.4981 -1.9702
13860SOL     OW48184   6.480   4.620   9.555  0.1524 -0.3713  0.6972
13860SOL    HW148185   6.401   4.664   9.588  1.1742  0.8865  1.5988
13860SOL    HW248186   6.542   4.626   9.628  2.1533  1.5556 -1.0164
13861SOL     OW48187  12.645   0.835  11.290  0.5007 -0.6115 -0.1638
13861SOL    HW148188  12.660   0.862  11.199 -1.0545  2.2381  0.3019
13861SOL    HW248189  12.551   0.818  11.294  0.2233  1.0766  1.2802
13862SOL     OW48190  12.262  11.373   3.171 -0.1206  0.1094  0.2604
13862SOL    HW148191  12.231  11.330   3.251 -0.9053  0.7459  0.3064
13862SOL    HW248192  12.254  11.466   3.189 -0.3017  0.2613 -0.5636
13863SOL     OW48193   2.048   8.750  11.784  1.4359  0.0493  0.7625
13863SOL    HW148194   2.066   8.669  11.735 -0.1714 -0.6159  1.1982
13863SOL    HW248195   2.133   8.777  11.818  2.5439  0.2399 -1.8950
13864SOL     OW48196  12.341   6.839   8.802  0.2125 -0.0372 -0.3642
13864SOL    HW148197  12.349   6.828   8.897  0.6119  1.2189 -0.2320
13864SOL    HW248198  12.283   6.915   8.792  1.1795  0.6320 -1.0902
13865SOL     OW48199   6.085   9.452   8.325  0.4076 -0.1300 -0.6080
13865SOL    HW148200   6.006   9.399   8.338 -0.8813  1.7552 -0.3220
13865SOL    HW248201   6.051   9.540   8.309  2.4706  0.6220 -1.0374
13866SOL     OW48202   9.511   6.935   8.213 -0.4570  0.3669  0.0301
13866SOL    HW148203   9.456   7.002   8.172 -0.4836 -1.0871 -2.5115
13866SOL    HW248204   9.590   6.933   8.160  0.2595 -0.4659  1.0903
13867SOL     OW48205   9.608  12.059  10.080 -0.5657 -0.4759  0.0941
13867SOL    HW148206   9.539  11.996  10.056 -0.5558 -0.7460  0.7493
13867SOL    HW248207   9.665  12.062  10.004 -0.7970 -0.9553 -0.1059
13868SOL     OW48208   2.263  12.608   2.720 -0.4558  0.0924 -0.6258
13868SOL    HW148209   2.312  12.556   2.783  0.2900  1.0408 -0.4018
13868SOL    HW248210   2.278  12.699   2.746 -0.4370  0.4951 -1.9481
13869SOL     OW48211   4.017   9.487   4.614 -0.3357  0.3283  0.5555
13869SOL    HW148212   3.980   9.470   4.527  2.0773 -1.7617 -0.2099
13869SOL    HW248213   3.962   9.436   4.673  0.2864 -1.4642 -0.3323
13870SOL     OW48214   3.528   3.098   1.965  0.3494 -0.1164  0.4519
13870SOL    HW148215   3.569   3.113   1.879 -1.2281 -1.3803 -0.5960
13870SOL    HW248216   3.568   3.017   1.996 -0.2938 -0.5801  0.0924
13871SOL     OW48217   3.103   0.051  12.001  0.5448 -0.0023 -0.0656
13871SOL    HW148218   3.149   0.134  12.005  0.4034  0.1801 -1.6622
13871SOL    HW248219   3.132   0.003  12.079 -1.4973  2.5820  2.5270
13872SOL     OW48220   8.448   3.626   3.499  0.3432  0.3951  0.6518
13872SOL    HW148221   8.503   3.628   3.420  0.9236  0.3641  1.0447
13872SOL    HW248222   8.379   3.563   3.480 -0.0564  1.0653 -0.1792
13873SOL     OW48223  10.732   1.298  11.050 -0.6610 -0.1541 -1.0838
13873SOL    HW148224  10.746   1.208  11.020 -2.5006 -0.6342 -0.6426
13873SOL    HW248225  10.661   1.291  11.114  0.8036  1.2998  0.8101
13874SOL     OW48226   6.926   2.325   4.035 -0.2463  0.1190  0.1509
13874SOL    HW148227   7.007   2.359   3.997 -0.9098  0.2579 -1.2098
13874SOL    HW248228   6.860   2.339   3.967 -1.4306  0.0553  1.2492
13875SOL     OW48229   6.102   1.654   4.558  0.2714 -0.1389  0.1938
13875SOL    HW148230   6.010   1.660   4.582 -0.0427 -1.0276 -0.7469
13875SOL    HW248231   6.106   1.681   4.466  1.4756  3.2977  1.0791
13876SOL     OW48232  11.791  11.296   1.082 -0.3360 -0.7123 -0.3420
13876SOL    HW148233  11.779  11.344   1.164 -0.4580 -1.1977 -0.0739
13876SOL    HW248234  11.850  11.224   1.105  0.1023 -0.5055 -0.8147
13877SOL     OW48235   1.235  10.109   4.030  0.6426  0.4690 -0.4531
13877SOL    HW148236   1.319  10.095   4.075  0.4704  2.6897  0.6817
13877SOL    HW248237   1.260  10.141   3.943  0.9386 -2.0233 -1.3946
13878SOL     OW48238   6.273   0.381   5.829 -0.2467 -0.2940 -0.9302
13878SOL    HW148239   6.345   0.430   5.868  0.4249 -1.2351 -0.9529
13878SOL    HW248240   6.309   0.294   5.812 -2.2124 -1.8362  1.8997
13879SOL     OW48241  10.173   7.466   4.957  0.5007 -0.1610  0.4313
13879SOL    HW148242  10.177   7.372   4.939  0.4652 -0.1346  0.2812
13879SOL    HW248243  10.185   7.473   5.051  1.1960 -0.2691  0.3542
13880SOL     OW48244   0.175   7.889   5.831 -0.3455 -0.1669  0.0622
13880SOL    HW148245   0.148   7.818   5.773 -0.0706 -0.8818  0.7921
13880SOL    HW248246   0.269   7.896   5.820 -0.5164  0.8649 -0.8570
13881SOL     OW48247  12.263  11.530   5.326  0.7015 -0.4987  0.1280
13881SOL    HW148248  12.183  11.571   5.294 -0.0421 -0.4934  1.8563
13881SOL    HW248249  12.325  11.538   5.254 -0.0002  1.9524 -0.2985
13882SOL     OW48250  11.260   2.005   2.417  0.0981  0.4744 -0.5232
13882SOL    HW148251  11.247   1.933   2.356 -1.5026  0.7563 -0.5470
13882SOL    HW248252  11.342   1.983   2.463  0.7105 -0.3069 -1.9396
13883SOL     OW48253  11.754  11.406  11.151 -0.4029 -0.2112  0.3725
13883SOL    HW148254  11.672  11.447  11.176 -0.7261 -0.7479  0.2212
13883SOL    HW248255  11.742  11.384  11.059  0.0185 -0.0388  0.2752
13884SOL     OW48256   6.179   7.134   9.711 -0.0113  0.7649  0.5882
13884SOL    HW148257   6.185   7.224   9.678 -1.1502  1.0547  1.1291
13884SOL    HW248258   6.129   7.141   9.792  0.6218 -0.2606  1.0999
13885SOL     OW48259   5.970   7.477   9.830  0.1153  0.0001 -0.4680
13885SOL    HW148260   5.979   7.521   9.746  0.4533 -0.7763 -0.8468
13885SOL    HW248261   5.921   7.397   9.811 -0.2238  0.0468  0.1569
13886SOL     OW48262   0.327  11.153  11.599 -0.4682  0.5244 -0.0236
13886SOL    HW148263   0.232  11.155  11.586 -0.4734  0.5941  0.0181
13886SOL    HW248264   0.341  11.082  11.662 -0.1035 -2.2057 -2.9156
13887SOL     OW48265   8.300  10.876   8.657  0.0610  0.1729 -0.3633
13887SOL    HW148266   8.239  10.918   8.596  2.4017  0.8489 -2.3765
13887SOL    HW248267   8.279  10.782   8.652 -0.9356  0.4104 -0.8247
13888SOL     OW48268   1.098  12.283   9.803 -0.4253  0.3005 -0.5136
13888SOL    HW148269   1.061  12.301   9.716  1.4875  0.9580 -1.2373
13888SOL    HW248270   1.027  12.303   9.864 -1.5803  0.5191 -1.8838
13889SOL     OW48271   0.157   8.452  11.247 -0.8080 -0.4982 -0.8763
13889SOL    HW148272   0.175   8.509  11.172 -0.8615  0.7983  0.0602
13889SOL    HW248273   0.226   8.386  11.244  0.1542  0.4824 -1.1701
13890SOL     OW48274   3.304   9.942   7.632 -0.0297 -0.2311  0.6928
13890SOL    HW148275   3.334   9.973   7.718 -0.5504  0.9574  0.4632
13890SOL    HW248276   3.212   9.921   7.644 -0.0961 -0.0937  0.4246
13891SOL     OW48277  11.622  10.458   6.961 -0.3605 -0.7386  0.5389
13891SOL    HW148278  11.545  10.512   6.941 -0.3474 -1.6960 -2.6537
13891SOL    HW248279  11.696  10.508   6.926 -0.1063 -1.8140 -0.5179
13892SOL     OW48280  10.305   0.643   7.763 -0.3848  0.0537 -0.0555
13892SOL    HW148281  10.261   0.728   7.770 -1.4261 -0.5983  2.3532
13892SOL    HW248282  10.258   0.586   7.824  1.5774 -1.6922 -0.0412
13893SOL     OW48283   3.060   8.808   2.174  0.0938 -0.5683 -0.3826
13893SOL    HW148284   3.150   8.784   2.193  0.4574 -2.1835 -3.5701
13893SOL    HW248285   3.008   8.758   2.237  1.3148 -1.2985  0.0695
13894SOL     OW48286  10.606   7.514   3.579  0.4189  0.8906  0.4420
13894SOL    HW148287  10.549   7.519   3.502  1.3039  1.1161 -0.2086
13894SOL    HW248288  10.694   7.510   3.543  0.7724 -0.6104  1.3992
13895SOL     OW48289   6.044   2.319   4.836 -0.4693  0.0642  0.6307
13895SOL    HW148290   5.973   2.311   4.773  0.8860  2.3439 -1.3397
13895SOL    HW248291   6.037   2.408   4.871 -0.0076 -0.4907  2.2594
13896SOL     OW48292  11.017   4.214   6.889 -0.4241  0.6283  0.2210
13896SOL    HW148293  11.079   4.164   6.943 -0.2903 -0.3849 -0.8274
13896SOL    HW248294  10.936   4.163   6.892 -0.5849  0.8687 -0.0793
13897SOL     OW48295   6.049   6.424   8.484  0.0819 -0.4721  0.0522
13897SOL    HW148296   6.041   6.517   8.464 -0.0353 -0.3960  0.4394
13897SOL    HW248297   6.060   6.422   8.579  0.5055 -0.8265 -0.0042
13898SOL     OW48298  10.844  10.958   1.795  0.8601  0.1425 -0.1256
13898SOL    HW148299  10.821  10.944   1.887  0.5966  3.0874  0.3663
13898SOL    HW248300  10.940  10.960   1.794  0.8573  0.6191  0.1984
13899SOL     OW48301   9.303   7.036   7.681 -0.0840 -0.1836  0.6103
13899SOL    HW148302   9.243   6.995   7.743  0.5326 -0.3543  1.1084
13899SOL    HW248303   9.254   7.110   7.645 -0.5174 -0.1929  1.1682
13900SOL     OW48304   1.882   4.726   1.217 -0.3051 -0.0192 -0.1700
13900SOL    HW148305   1.837   4.804   1.183  0.1324 -0.0223 -0.7628
13900SOL    HW248306   1.858   4.724   1.310 -0.4448  0.7413 -0.1802
13901SOL     OW48307   4.541   3.045   3.620 -0.1688 -0.1311  0.0793
13901SOL    HW148308   4.502   3.098   3.690  0.8105 -0.8567  1.2345
13901SOL    HW248309   4.636   3.051   3.636 -0.0301 -2.3548  0.3823
13902SOL     OW48310   8.812   9.111  11.824 -0.4648  0.3545 -0.0743
13902SOL    HW148311   8.777   9.198  11.808  0.2699  0.5366 -0.7627
13902SOL    HW248312   8.907   9.121  11.813 -0.0051  0.1325  2.8452
13903SOL     OW48313   1.395  10.010   5.714  0.2484 -0.2515  0.2013
13903SOL    HW148314   1.457  10.063   5.765 -0.3119  1.2390 -0.6112
13903SOL    HW248315   1.414  10.032   5.623  0.0765 -1.5739 -0.1649
13904SOL     OW48316   8.422   5.373   0.997 -0.0965 -0.2710 -0.0614
13904SOL    HW148317   8.494   5.310   0.991 -0.4234 -0.5016 -3.0359
13904SOL    HW248318   8.426   5.405   1.087  2.2063 -2.0177  0.5656
13905SOL     OW48319   3.592  10.418   7.809  0.3139 -0.3230 -0.1096
13905SOL    HW148320   3.509  10.396   7.852  0.4049 -0.6270 -0.0907
13905SOL    HW248321   3.634  10.480   7.868 -0.2072  0.3691 -0.4399
13906SOL     OW48322   7.454   2.134   2.521 -0.1615 -0.5620  0.4692
13906SOL    HW148323   7.411   2.218   2.505 -1.0606 -1.2896 -1.1370
13906SOL    HW248324   7.455   2.125   2.616 -0.1418  1.2051  0.6603
13907SOL     OW48325   8.734   4.402  11.971 -0.4660  0.4406 -0.0715
13907SOL    HW148326   8.667   4.340  11.945 -1.2457  0.5089  1.6191
13907SOL    HW248327   8.749   4.384  12.064  0.1518  1.9787  0.1621
13908SOL     OW48328   5.301   0.089  10.421  0.1082  0.6128  0.2067
13908SOL    HW148329   5.289   0.164  10.363 -1.0425  0.0820 -0.2812
13908SOL    HW248330   5.216   0.080  10.466 -0.0826 -0.9167 -0.4017
13909SOL     OW48331  10.293   0.037   9.334 -0.0212  0.0066 -0.8469
13909SOL    HW148332  10.370   0.009   9.383  0.5751  0.6528 -1.3928
13909SOL    HW248333  10.243   0.090   9.396 -0.0651 -0.4661 -0.4728
13910SOL     OW48334   8.238   8.071  12.649 -0.5885  0.0989  0.3135
13910SOL    HW148335   8.144   8.055  12.651 -0.6365  0.4293  1.0654
13910SOL    HW248336   8.263   8.080  12.741  0.0466  0.7324  0.0920
13911SOL     OW48337   1.644  12.744   1.038  0.6269 -0.0183 -0.3115
13911SOL    HW148338   1.649  12.674   0.973 -0.1784  0.4395 -0.8798
13911SOL    HW248339   1.607  12.702   1.115  2.1842 -0.7201  0.1060
13912SOL     OW48340   7.777  10.970  12.593 -0.1487 -0.7124  0.1680
13912SOL    HW148341   7.725  11.050  12.586 -0.7667 -1.1077  0.2033
13912SOL    HW248342   7.867  11.001  12.600 -0.4796  0.0422  1.4854
13913SOL     OW48343   6.989  10.616   1.140 -0.2845 -0.2413 -0.3298
13913SOL    HW148344   7.027  10.703   1.126 -1.7494  0.0856 -2.8117
13913SOL    HW248345   7.046  10.557   1.090  0.8361 -0.8266  1.5243
13914SOL     OW48346   1.182   6.015   4.384  0.0412  0.0238  0.3738
13914SOL    HW148347   1.277   6.018   4.390 -0.0343 -0.0391  1.8117
13914SOL    HW248348   1.152   5.986   4.470 -1.1801 -2.8355 -0.8688
13915SOL     OW48349   2.316   6.507   6.183 -0.0377 -0.3914  0.1171
13915SOL    HW148350   2.245   6.444   6.199  0.9511 -1.2435  1.4062
13915SOL    HW248351   2.308   6.571   6.253 -0.8316  0.7691 -0.9986
13916SOL     OW48352   2.058  11.388   4.838  0.2425 -0.1543 -0.0723
13916SOL    HW148353   2.137  11.435   4.812  1.1464 -1.7111 -0.2481
13916SOL    HW248354   2.052  11.401   4.932  0.8918 -0.2691 -0.0097
13917SOL     OW48355  11.545   7.701   2.123  0.0515 -0.2120 -0.5518
13917SOL    HW148356  11.545   7.648   2.203  2.1613  1.5470  0.7232
13917SOL    HW248357  11.452   7.718   2.107 -0.4365 -0.0839  1.9342
13918SOL     OW48358   9.395   1.412  11.419  0.5544 -0.0865  0.1072
13918SOL    HW148359   9.471   1.463  11.391  0.3911 -0.0135 -0.2083
13918SOL    HW248360   9.406   1.327  11.376  0.4238 -0.0518  0.0011
13919SOL     OW48361  11.276   5.887   8.876  0.1021  0.0934 -0.3736
13919SOL    HW148362  11.289   5.978   8.850  0.3914  0.6734  1.6115
13919SOL    HW248363  11.365   5.852   8.885  0.0276  0.0554  0.2576
13920SOL     OW48364   9.542  12.288   4.789  0.7275  0.5459 -0.2782
13920SOL    HW148365   9.565  12.367   4.838  1.1846 -0.5414  1.3469
13920SOL    HW248366   9.448  12.278   4.803  1.0867 -0.5496  1.6919
13921SOL     OW48367   4.867   2.892   1.989  0.0952  0.1652  0.4347
13921SOL    HW148368   4.935   2.948   1.952 -0.8692  2.4658  1.9150
13921SOL    HW248369   4.813   2.868   1.914  0.8401  0.7872 -0.3195
13922SOL     OW48370   4.837   3.692  12.581  0.0067 -0.2280  0.5803
13922SOL    HW148371   4.881   3.772  12.553 -1.1393  0.4863  0.7423
13922SOL    HW248372   4.834   3.637  12.503  0.8072 -0.1222  0.4690
13923SOL     OW48373   3.839   3.978   0.093 -0.0793 -0.4285  0.1091
13923SOL    HW148374   3.904   3.974   0.023 -0.2069 -1.9997  0.0655
13923SOL    HW248375   3.873   4.046   0.152  1.5999 -1.1614  0.0619
13924SOL     OW48376   0.183   8.875  11.318 -0.3468  0.2984 -0.2980
13924SOL    HW148377   0.260   8.918  11.355  0.0518 -0.2912 -0.4264
13924SOL    HW248378   0.186   8.895  11.225 -0.1904  0.0412 -0.3493
13925SOL     OW48379   2.372   2.194   4.352 -0.0019 -0.4354 -0.1901
13925SOL    HW148380   2.357   2.215   4.260 -0.5172 -1.4839 -0.3581
13925SOL    HW248381   2.334   2.268   4.400 -0.0784 -0.0704 -0.8003
13926SOL     OW48382   2.042   7.958   0.710 -0.0911  0.3294 -0.6658
13926SOL    HW148383   2.123   7.935   0.666 -0.3168  0.6619 -1.2666
13926SOL    HW248384   1.995   7.875   0.719  0.3826  0.1127 -0.1699
13927SOL     OW48385  12.552   4.119   6.075  0.6132 -0.2621  0.0703
13927SOL    HW148386  12.478   4.178   6.064 -0.5159 -1.2809  1.6907
13927SOL    HW248387  12.531   4.044   6.018 -1.5301 -2.1724  3.0221
13928SOL     OW48388   0.158   3.271   6.005  0.5176  0.3205 -0.6244
13928SOL    HW148389   0.228   3.295   5.944  1.3244  0.7018  0.4166
13928SOL    HW248390   0.117   3.193   5.966  1.6301 -0.0091 -1.1707
13929SOL     OW48391   4.078   1.696   8.527  0.5148  0.2382 -0.5242
13929SOL    HW148392   4.023   1.766   8.491 -0.8913 -0.5359  0.0207
13929SOL    HW248393   4.015   1.634   8.565  1.8025 -0.5039  0.4618
13930SOL     OW48394  12.673   7.881   1.559  0.1568  0.0213 -0.1995
13930SOL    HW148395  12.598   7.898   1.617  0.9122 -0.7292  1.0586
13930SOL    HW248396  12.742   7.939   1.592 -0.0781  1.3344 -1.8779
13931SOL     OW48397   8.774  10.283   1.790  0.2267 -0.1586 -0.2319
13931SOL    HW148398   8.825  10.202   1.783  0.5822  0.0191  0.2439
13931SOL    HW248399   8.835  10.346   1.827 -0.0985  0.2841 -0.4488
13932SOL     OW48400   2.852   0.716   3.018 -0.3074 -0.1288  0.0788
13932SOL    HW148401   2.896   0.707   3.102  0.3104 -0.2108 -0.2401
13932SOL    HW248402   2.851   0.627   2.982  1.0727  0.1641 -0.7830
13933SOL     OW48403  10.781  12.229   6.967  0.0894  0.0251  0.0554
13933SOL    HW148404  10.788  12.244   7.062 -0.6115 -0.0163  0.1151
13933SOL    HW248405  10.758  12.314   6.931 -2.1996 -0.4713  0.2112
13934SOL     OW48406   8.086   0.585   5.430  0.3530 -0.1942 -0.1834
13934SOL    HW148407   8.085   0.557   5.521  1.1066 -5.4466 -1.4658
13934SOL    HW248408   8.154   0.652   5.426 -0.3388  0.8685  3.1477
13935SOL     OW48409   4.409   0.512   9.921 -0.7844  0.0149 -0.1735
13935SOL    HW148410   4.327   0.511   9.971 -1.0010  0.6401 -0.4946
13935SOL    HW248411   4.476   0.536   9.985 -0.8894 -0.2779  0.0453
13936SOL     OW48412  12.211   7.166   1.812  0.3963  0.1499  0.0255
13936SOL    HW148413  12.182   7.170   1.903  1.9491  1.0313  0.5098
13936SOL    HW248414  12.149   7.222   1.765  0.1017  0.3821  0.6753
13937SOL     OW48415  12.188   4.612   2.802  0.1075  0.2894 -0.6254
13937SOL    HW148416  12.189   4.663   2.883 -2.3524  0.6167 -0.7370
13937SOL    HW248417  12.138   4.534   2.824  1.9363 -1.0845 -1.0790
13938SOL     OW48418  10.330  10.500  12.330 -0.3842  0.4568 -0.0290
13938SOL    HW148419  10.281  10.467  12.405 -1.0546  0.7418 -0.3355
13938SOL    HW248420  10.264  10.515  12.263  0.3051 -0.6404 -0.9890
13939SOL     OW48421  12.616   9.398   6.424  0.8384 -0.0143 -0.0381
13939SOL    HW148422  12.595   9.384   6.517  0.8011  1.5456  0.2051
13939SOL    HW248423  12.537   9.371   6.377  0.9029 -0.9368  0.3487
13940SOL     OW48424   6.283  12.142   9.849  0.8060 -0.0365 -0.1811
13940SOL    HW148425   6.265  12.166   9.758 -0.3827 -0.5844 -0.1162
13940SOL    HW248426   6.251  12.052   9.856  1.3513 -0.1713  0.6524
13941SOL     OW48427   4.042   6.761   9.983  0.5217 -0.2048  0.0227
13941SOL    HW148428   3.957   6.727   9.955  0.0848 -0.1456  1.2049
13941SOL    HW248429   4.104   6.728   9.918  0.0665 -3.0431  0.8888
13942SOL     OW48430   4.637   0.699   2.735 -0.4064 -0.0930 -0.5724
13942SOL    HW148431   4.678   0.676   2.818 -1.3415  0.9001  0.1965
13942SOL    HW248432   4.607   0.616   2.698 -0.3951 -0.4914  0.3018
13943SOL     OW48433  11.149   5.183  11.050  0.2908 -0.0508 -0.2302
13943SOL    HW148434  11.132   5.227  10.966  0.4531  0.7504  0.1530
13943SOL    HW248435  11.220   5.233  11.089 -0.9650  0.6574  1.1996
13944SOL     OW48436   5.472   3.986  11.019  0.0816  0.1028 -0.1378
13944SOL    HW148437   5.417   3.954  11.091  1.4179  0.5669  1.1267
13944SOL    HW248438   5.412   4.040  10.966 -0.8961 -0.1331  0.6901
13945SOL     OW48439   1.527   9.342  11.200  0.8477  0.1832 -0.4253
13945SOL    HW148440   1.461   9.367  11.264  1.4345 -0.5737  0.4920
13945SOL    HW248441   1.493   9.262  11.160  0.3635  0.7873 -1.2697
13946SOL     OW48442   2.654   4.789  10.067  0.9662 -0.0243  0.3978
13946SOL    HW148443   2.699   4.781  10.151  2.6009  0.6113 -0.3679
13946SOL    HW248444   2.692   4.720  10.012 -2.3806 -2.6385  1.0262
13947SOL     OW48445   2.418   5.083   1.174  0.0475 -0.5143  0.0488
13947SOL    HW148446   2.475   5.123   1.108  0.0610 -0.6866 -0.0447
13947SOL    HW248447   2.402   5.153   1.238 -2.2643  0.5832 -1.5778
13948SOL     OW48448  10.414   7.144  10.255 -0.3859  1.2901 -0.1933
13948SOL    HW148449  10.498   7.136  10.300  1.5334  2.8770 -3.1344
13948SOL    HW248450  10.381   7.054  10.249  1.9001  0.3894 -0.2853
13949SOL     OW48451   7.428  10.708   6.933 -0.6163 -0.5529 -0.5170
13949SOL    HW148452   7.492  10.661   6.986  0.0183  0.1608 -0.6376
13949SOL    HW248453   7.410  10.650   6.859  0.4163 -0.4658 -0.8455
13950SOL     OW48454  10.593   6.484   8.592  0.1735 -0.3372 -0.4496
13950SOL    HW148455  10.541   6.408   8.618  0.2406  0.0309  0.8489
13950SOL    HW248456  10.533   6.558   8.599  0.0367 -0.2744 -1.9528
13951SOL     OW48457   7.569   0.835   5.871  0.2152 -0.0781  0.4357
13951SOL    HW148458   7.633   0.774   5.907 -1.3179 -0.9554  1.8163
13951SOL    HW248459   7.613   0.874   5.795  2.3757 -0.5720  1.3531
13952SOL     OW48460   0.302  11.656  12.676  0.6163 -0.0629 -0.1573
13952SOL    HW148461   0.252  11.611  12.608  0.6781  0.1894 -0.3691
13952SOL    HW248462   0.385  11.678  12.635  0.8734 -0.4103  0.1725
13953SOL     OW48463   5.760   9.825   4.454 -0.8312  0.1197 -0.1647
13953SOL    HW148464   5.733   9.872   4.533 -0.4127  2.4694 -1.3444
13953SOL    HW248465   5.691   9.844   4.390 -1.2072 -1.8214 -0.4022
13954SOL     OW48466   6.100   1.099   4.216 -0.1862 -0.7689  0.4390
13954SOL    HW148467   6.013   1.073   4.246 -0.2406 -0.2335  0.7570
13954SOL    HW248468   6.103   1.194   4.231  0.0299 -0.5967 -0.6229
13955SOL     OW48469  10.954   1.213   9.483 -0.5730 -0.3913 -0.1463
13955SOL    HW148470  11.040   1.173   9.501 -0.5460 -1.0363 -1.5791
13955SOL    HW248471  10.891   1.148   9.516 -0.5174 -0.8361 -0.9057
13956SOL     OW48472   2.599   6.095   1.854 -0.6401  0.1413 -0.3338
13956SOL    HW148473   2.622   6.183   1.824  1.7600  0.2879  1.6178
13956SOL    HW248474   2.577   6.105   1.946  0.3214 -1.3478  0.1011
13957SOL     OW48475   8.819   7.170   3.125  0.1696  0.1728  0.1563
13957SOL    HW148476   8.867   7.172   3.207 -0.4726 -1.9498  0.6549
13957SOL    HW248477   8.839   7.084   3.087 -1.2551  0.2237 -0.8240
13958SOL     OW48478   5.732   6.926   9.440  0.0445 -0.8690 -0.3297
13958SOL    HW148479   5.804   6.887   9.490  0.2811 -0.1382 -0.0878
13958SOL    HW248480   5.775   6.985   9.378 -0.3107 -0.9663 -0.6744
13959SOL     OW48481   9.011   5.559   7.380  0.1566  0.5859  0.0639
13959SOL    HW148482   8.965   5.599   7.307 -3.1059 -2.4705  0.2125
13959SOL    HW248483   8.957   5.578   7.456  0.5905 -0.7634  0.7437
13960SOL     OW48484   4.911   8.195   8.869  0.2248  0.7988  0.0115
13960SOL    HW148485   4.917   8.218   8.777 -0.4468  0.7721 -0.0485
13960SOL    HW248486   4.842   8.129   8.873 -0.0816  1.1360  0.5869
13961SOL     OW48487   4.391   4.881   5.112  0.2431  0.2106 -0.1323
13961SOL    HW148488   4.304   4.859   5.147  0.6550  1.0858  1.5104
13961SOL    HW248489   4.382   4.970   5.078  1.1565  1.4454  2.6344
13962SOL     OW48490   6.377   1.282   9.036  0.4346  0.5749 -0.2274
13962SOL    HW148491   6.435   1.316   8.967  0.0979  0.0490 -0.7817
13962SOL    HW248492   6.299   1.252   8.989  0.2322  0.1381  0.3782
13963SOL     OW48493   6.450   7.886  11.487 -0.3767 -0.2067  0.2168
13963SOL    HW148494   6.387   7.817  11.465 -2.8470  1.4338  1.7805
13963SOL    HW248495   6.427   7.959  11.430  0.4168  0.2697  0.4898
13964SOL     OW48496   2.502  10.790   0.955 -0.1340 -0.0825  0.3345
13964SOL    HW148497   2.581  10.810   0.904  0.6977 -1.4022  1.0530
13964SOL    HW248498   2.437  10.763   0.890 -0.7049  2.9162 -0.4808
13965SOL     OW48499   1.118   1.604   0.439  0.1264  0.5344  0.2221
13965SOL    HW148500   1.164   1.605   0.355  0.1413 -1.2782  0.1704
13965SOL    HW248501   1.155   1.678   0.487  0.9497  0.9080 -0.9367
13966SOL     OW48502   1.328   1.923   3.618  0.1074 -0.1504 -0.3512
13966SOL    HW148503   1.358   1.924   3.527 -2.2598  2.6930 -1.2761
13966SOL    HW248504   1.321   2.016   3.641 -1.4173 -0.7753  1.9862
13967SOL     OW48505   8.504   0.819   6.015  0.3726  0.9362 -0.2524
13967SOL    HW148506   8.488   0.847   6.105 -0.8792  0.9075 -0.4540
13967SOL    HW248507   8.479   0.726   6.014 -0.5668  1.1861 -0.8509
13968SOL     OW48508   1.459   7.251   5.694  0.1460  0.5091  0.2138
13968SOL    HW148509   1.417   7.337   5.691 -1.1387 -0.0641  0.9268
13968SOL    HW248510   1.496   7.239   5.606 -0.2463  1.5007 -0.0992
13969SOL     OW48511   5.130   1.760  11.097 -0.5618  0.3312 -0.1062
13969SOL    HW148512   5.153   1.668  11.085 -1.1149  0.0874  0.5769
13969SOL    HW248513   5.164   1.804  11.020  0.8419 -0.2346  0.1599
13970SOL     OW48514   7.976   2.752   3.057  0.4683  0.0677 -0.3589
13970SOL    HW148515   8.015   2.679   3.009  0.6211  0.2874 -0.5681
13970SOL    HW248516   8.002   2.738   3.148  2.3857  1.0776 -0.7087
13971SOL     OW48517   9.265  10.059   3.586  0.0812 -0.3602  0.3073
13971SOL    HW148518   9.195  10.092   3.642  1.3830 -0.6174  2.1783
13971SOL    HW248519   9.266  10.119   3.511 -2.0837 -0.3380  0.2559
13972SOL     OW48520   0.773   7.598   9.794  0.2536 -0.5792  0.1651
13972SOL    HW148521   0.698   7.553   9.833  0.7147 -1.1273  0.4379
13972SOL    HW248522   0.813   7.532   9.738  0.3063 -0.1646 -0.2903
13973SOL     OW48523  11.746   1.272  11.757 -0.4645 -0.6627 -0.0634
13973SOL    HW148524  11.681   1.340  11.776  1.0049  1.0943 -1.0542
13973SOL    HW248525  11.736   1.209  11.829 -1.7444  0.6793  1.0062
13974SOL     OW48526   1.004   0.344  10.515  0.2686  0.2332 -0.6640
13974SOL    HW148527   0.987   0.438  10.519 -0.5608  0.0557  0.3947
13974SOL    HW248528   1.044   0.324  10.600  0.1091 -0.4260 -0.7427
13975SOL     OW48529  12.344  10.373  10.580  0.1525  0.0241 -0.3277
13975SOL    HW148530  12.294  10.426  10.643  0.7583 -0.6338  0.7452
13975SOL    HW248531  12.367  10.294  10.629  1.0948 -0.2765 -1.2241
13976SOL     OW48532   5.431   3.644  10.258 -0.0953 -0.3690  0.6308
13976SOL    HW148533   5.515   3.690  10.268 -0.4977  0.5603 -0.1207
13976SOL    HW248534   5.454   3.552  10.265  0.5886 -0.0898  3.3276
13977SOL     OW48535   1.748   2.748  11.229  0.5848 -0.1860 -0.0950
13977SOL    HW148536   1.787   2.661  11.219  0.8192  0.1651 -3.0858
13977SOL    HW248537   1.819   2.809  11.205 -0.4186  0.6765 -0.9747
13978SOL     OW48538   0.414   6.356   4.917  0.1592 -0.2362 -0.0646
13978SOL    HW148539   0.508   6.339   4.903  0.0948  0.0727 -0.9121
13978SOL    HW248540   0.407   6.373   5.011  0.8505 -0.9100  0.1244
13979SOL     OW48541   7.399   6.463   1.344 -0.2441 -0.1759 -0.0033
13979SOL    HW148542   7.377   6.482   1.252  0.4627 -0.1531 -0.1740
13979SOL    HW248543   7.332   6.510   1.394 -0.0926  0.5863 -0.4896
13980SOL     OW48544   6.464   6.015   9.950  0.1170  0.0297 -0.0533
13980SOL    HW148545   6.425   5.932   9.920 -0.3974 -0.3974  1.6452
13980SOL    HW248546   6.482   6.000  10.043 -1.0508  2.1969  0.5820
13981SOL     OW48547   3.022  10.069  11.431 -0.1432  0.1790  0.3783
13981SOL    HW148548   2.952  10.121  11.470  0.4957  0.4733  1.1677
13981SOL    HW248549   3.095  10.076  11.493  0.6167 -0.0532 -0.4606
13982SOL     OW48550   6.352  10.121   7.639 -0.1432 -0.1748  0.1385
13982SOL    HW148551   6.347  10.207   7.681 -0.3979  1.2902 -2.6463
13982SOL    HW248552   6.263  10.102   7.611  0.3377  0.0849 -1.7550
13983SOL     OW48553   5.986   7.305   8.762  0.2285 -0.4231  0.7592
13983SOL    HW148554   5.935   7.319   8.842 -0.1466 -0.3836  0.5194
13983SOL    HW248555   5.926   7.257   8.704  0.3973 -0.2004  0.3975
13984SOL     OW48556   2.141   3.377   5.562 -0.0010 -0.0085 -0.2820
13984SOL    HW148557   2.075   3.310   5.575  0.9747 -0.5767  2.3755
13984SOL    HW248558   2.224   3.335   5.586  0.8105  1.7371  0.1922
13985SOL     OW48559   9.154  11.431   6.086  0.3741 -0.0650  0.4374
13985SOL    HW148560   9.077  11.374   6.080 -0.1891  0.7998 -1.1314
13985SOL    HW248561   9.198  11.403   6.166 -1.3949 -0.7997  1.2087
13986SOL     OW48562   9.836   0.034   4.983 -0.1537 -0.4991  0.1748
13986SOL    HW148563   9.870   0.016   5.070  2.3989 -0.0180 -0.6394
13986SOL    HW248564   9.848  -0.047   4.934 -0.2307 -0.3408 -0.1129
13987SOL     OW48565  12.465  10.146  11.265 -0.5068 -0.8196 -0.1653
13987SOL    HW148566  12.478  10.167  11.173  2.0509 -1.3546  0.0144
13987SOL    HW248567  12.542  10.181  11.310 -1.1644 -1.4971  1.6215
13988SOL     OW48568   4.661   4.469   1.628  0.0641  0.0654  0.1542
13988SOL    HW148569   4.628   4.516   1.704  0.0164 -0.8283  0.6967
13988SOL    HW248570   4.751   4.445   1.651  0.5501  1.0480 -0.6551
13989SOL     OW48571   6.931  10.259   7.593 -0.2279 -0.0467 -0.7953
13989SOL    HW148572   6.926  10.279   7.687 -0.2738  2.1522 -1.1983
13989SOL    HW248573   6.933  10.345   7.551  2.3211 -0.9066 -2.7115
13990SOL     OW48574   3.455   4.655   8.742 -0.8891 -0.2561 -0.4008
13990SOL    HW148575   3.437   4.586   8.678  0.3005  0.1756 -1.2418
13990SOL    HW248576   3.398   4.728   8.715 -1.3982 -0.5493 -0.1263
13991SOL     OW48577   5.030   2.483   3.572  0.3384 -0.2463 -0.5051
13991SOL    HW148578   5.118   2.496   3.608 -0.0000 -0.0863  0.2908
13991SOL    HW248579   5.038   2.403   3.519  1.2010  0.3294 -1.2898
13992SOL     OW48580   7.616   1.082   5.065 -0.1789 -0.2029 -0.5213
13992SOL    HW148581   7.639   1.142   4.994 -0.3175  0.7339  0.2051
13992SOL    HW248582   7.592   1.000   5.021 -1.3868  0.7067 -1.6194
13993SOL     OW48583   5.104   8.108   9.093  0.0781 -0.1859  0.6258
13993SOL    HW148584   5.148   8.166   9.155 -0.6949  0.6947  0.3648
13993SOL    HW248585   5.154   8.117   9.012 -0.9377  1.3532  0.1226
13994SOL     OW48586  10.702   9.952   7.742  0.7522 -0.2203 -0.6212
13994SOL    HW148587  10.745  10.037   7.729  1.2032  0.0106  1.8761
13994SOL    HW248588  10.774   9.890   7.749  0.5766 -0.2947  0.6701
13995SOL     OW48589   1.369   2.254   1.894  0.1432  0.4399 -0.2944
13995SOL    HW148590   1.347   2.161   1.897 -1.0259  0.7135  2.2945
13995SOL    HW248591   1.303   2.292   1.835 -1.9328  0.1358  1.6859
13996SOL     OW48592   6.359  11.522   0.076 -0.2805  0.0402  0.0061
13996SOL    HW148593   6.415  11.470   0.019  0.1023 -0.7823  1.0945
13996SOL    HW248594   6.416  11.548   0.148 -1.2697 -0.7757  1.1212
13997SOL     OW48595   7.382  11.852  10.265  0.1308  0.3325  0.1258
13997SOL    HW148596   7.356  11.862  10.174  0.1652 -1.0459 -0.0516
13997SOL    HW248597   7.409  11.761  10.273  0.6457  0.5683  1.3887
13998SOL     OW48598   2.216   2.018   5.449  0.1009 -0.0662  0.0167
13998SOL    HW148599   2.286   2.013   5.515 -0.0260 -0.0476  0.1527
13998SOL    HW248600   2.263   2.023   5.366  0.2613 -0.7708  0.0569
13999SOL     OW48601   5.495   5.695   2.108 -0.8962 -0.0357 -0.2455
13999SOL    HW148602   5.525   5.762   2.168  0.5382 -1.4959  0.7671
13999SOL    HW248603   5.575   5.666   2.062 -1.5931 -0.5271 -1.1928
14000SOL     OW48604   5.470   9.219   9.093 -0.2140  0.0475 -0.1053
14000SOL    HW148605   5.481   9.157   9.165  0.0066 -2.0055 -1.7847
14000SOL    HW248606   5.553   9.266   9.088 -0.0885 -0.0764  0.7217
14001SOL     OW48607  10.430  11.147   8.607 -0.0646  0.0708  0.0665
14001SOL    HW148608  10.510  11.138   8.659 -0.5677  0.3311  0.8977
14001SOL    HW248609  10.427  11.239   8.582 -0.9012  0.4175  1.3667
14002SOL     OW48610   9.665  11.661  11.027  0.3677  0.1997  0.2955
14002SOL    HW148611   9.683  11.571  11.053  0.1688  0.3991  1.1433
14002SOL    HW248612   9.586  11.656  10.974  0.7691 -0.2074 -0.2844
14003SOL     OW48613   2.967  10.812   0.911  0.9204  0.0551 -0.0727
14003SOL    HW148614   3.020  10.751   0.859  1.1134  0.6405 -0.5680
14003SOL    HW248615   2.933  10.758   0.983  0.0719 -0.9424 -1.1746
14004SOL     OW48616   2.564   6.162   1.248  0.0210  0.3251  0.3788
14004SOL    HW148617   2.648   6.134   1.212 -0.2119 -0.0115  0.0861
14004SOL    HW248618   2.586   6.200   1.333  0.7211  2.1436 -0.5508
14005SOL     OW48619   0.851   6.511   9.911 -0.3328 -0.0966  0.2632
14005SOL    HW148620   0.869   6.445   9.978 -1.6831 -1.0846 -0.3110
14005SOL    HW248621   0.862   6.594   9.957  0.2561 -0.7196  1.3131
14006SOL     OW48622   5.191   6.073   4.271  0.1622  0.2279  0.3864
14006SOL    HW148623   5.266   6.097   4.325  1.1891 -0.0736 -0.8573
14006SOL    HW248624   5.177   6.149   4.214  1.0506 -0.6005 -0.9948
14007SOL     OW48625   0.620  10.434   1.185 -0.0418  0.9309  0.3568
14007SOL    HW148626   0.578  10.519   1.169 -0.7931  0.3847 -0.7014
14007SOL    HW248627   0.596  10.381   1.109 -0.8456 -0.7228  1.7037
14008SOL     OW48628   8.471   9.283   7.852 -0.0911 -0.5097  0.4601
14008SOL    HW148629   8.557   9.280   7.894 -0.9185  0.8224  2.4135
14008SOL    HW248630   8.411   9.311   7.922 -2.1271 -1.3839 -0.8256
14009SOL     OW48631   1.668  12.471   6.251 -0.0648  0.6945  0.0282
14009SOL    HW148632   1.672  12.566   6.243 -0.0492  0.6784 -0.1551
14009SOL    HW248633   1.608  12.444   6.182 -0.4689  0.6137  0.4034
14010SOL     OW48634   4.782   6.495   6.823  0.1701  0.7603 -0.3137
14010SOL    HW148635   4.804   6.428   6.758 -0.8976 -0.2528  0.3129
14010SOL    HW248636   4.784   6.577   6.775  0.1784  0.1139 -1.4492
14011SOL     OW48637   4.748   0.387   3.142  0.6611  0.0483 -0.0300
14011SOL    HW148638   4.668   0.338   3.126 -0.0330  0.7862  1.0943
14011SOL    HW248639   4.738   0.467   3.091  0.9826 -0.1473 -0.4072
14012SOL     OW48640   7.410   2.504   9.859  0.0390 -0.1562  0.2538
14012SOL    HW148641   7.412   2.591   9.897 -1.0224 -0.0823  0.1548
14012SOL    HW248642   7.401   2.445   9.934  1.0300 -0.2120  0.3427
14013SOL     OW48643   0.312   3.555   2.149  0.5182 -0.3314  0.7076
14013SOL    HW148644   0.373   3.628   2.158  0.4494  0.0340 -1.2831
14013SOL    HW248645   0.236   3.593   2.105  0.4674 -1.5734 -0.3309
14014SOL     OW48646   9.107  10.900  11.588 -0.2838 -0.0955  0.0439
14014SOL    HW148647   9.113  10.814  11.547 -1.6651 -0.9014  1.4020
14014SOL    HW248648   9.197  10.932  11.591  0.2405 -1.4391 -0.5893
14015SOL     OW48649  11.046   1.404   8.732 -0.1907  0.1371  0.2190
14015SOL    HW148650  11.125   1.353   8.714  0.8379  1.3620  1.1306
14015SOL    HW248651  11.069   1.494   8.708 -1.4475  0.4471  0.1140
14016SOL     OW48652   7.498   0.320  11.401  0.0638  0.4401 -0.1859
14016SOL    HW148653   7.412   0.346  11.434  0.2203  1.4407 -0.5105
14016SOL    HW248654   7.529   0.398  11.354  1.3077  0.2252  0.2553
14017SOL     OW48655   3.584   9.891  12.267  0.4970  0.1244 -0.4812
14017SOL    HW148656   3.576   9.986  12.275 -0.4318 -0.0526  1.0032
14017SOL    HW248657   3.640   9.866  12.341 -0.6678 -0.6424  0.1618
14018SOL     OW48658   1.761   4.254   7.585  0.1037 -0.6252  0.2760
14018SOL    HW148659   1.817   4.318   7.629  0.8215  0.2409 -1.7721
14018SOL    HW248660   1.822   4.199   7.535 -0.7633 -0.4056 -1.0803
14019SOL     OW48661   8.901   6.650   3.177  0.0238 -0.3087  0.2503
14019SOL    HW148662   8.854   6.623   3.256 -0.4406  1.8831  0.8002
14019SOL    HW248663   8.983   6.686   3.209 -0.8578  2.1529 -0.0112
14020SOL     OW48664   4.789   8.225  12.189 -0.1880  0.4430  0.0364
14020SOL    HW148665   4.714   8.193  12.238 -0.7281  0.5548 -0.7068
14020SOL    HW248666   4.844   8.148  12.176  0.2784  0.5347  1.3601
14021SOL     OW48667   6.006   9.690   2.390  0.2458 -0.3754 -0.3254
14021SOL    HW148668   6.008   9.777   2.430  0.1896 -1.0825  1.2822
14021SOL    HW248669   5.918   9.682   2.354  0.2033  0.1765 -0.3499
14022SOL     OW48670   7.600   8.249   2.060 -0.2634 -0.4103  0.3375
14022SOL    HW148671   7.643   8.275   1.979 -1.6480  0.2548 -0.2181
14022SOL    HW248672   7.548   8.173   2.037 -1.8532  0.6772  0.1922
14023SOL     OW48673   9.894  11.462   6.922 -0.5019  0.0222 -0.2855
14023SOL    HW148674   9.942  11.387   6.888 -0.4400  0.6307 -1.6054
14023SOL    HW248675   9.895  11.526   6.850 -1.6853  0.7723  0.3312
14024SOL     OW48676   3.495   1.825   6.860  0.0441 -0.0365 -0.4025
14024SOL    HW148677   3.455   1.810   6.946  1.5825  0.9691  0.5276
14024SOL    HW248678   3.581   1.785   6.866  0.2899  0.3162 -1.3784
14025SOL     OW48679  12.404   6.889   9.106  0.2375 -0.2422 -0.2034
14025SOL    HW148680  12.387   6.888   9.201  1.3018 -1.4211 -0.0038
14025SOL    HW248681  12.412   6.982   9.085  0.3671  0.0280  0.9374
14026SOL     OW48682   6.229   5.206   6.070  0.3877 -0.6524  0.3935
14026SOL    HW148683   6.166   5.214   5.998  1.3694 -1.0485 -0.5287
14026SOL    HW248684   6.275   5.125   6.053  2.5553  0.6051 -0.1091
14027SOL     OW48685  12.687  11.950   1.872 -0.1470 -0.4633 -0.4363
14027SOL    HW148686  12.648  12.006   1.938 -0.3260 -0.5209 -0.4920
14027SOL    HW248687  12.627  11.954   1.798 -0.7047 -1.5321 -0.0679
14028SOL     OW48688   5.388  11.006   6.792  0.2278  0.0685  0.4144
14028SOL    HW148689   5.433  11.078   6.835  0.2844  0.4379 -0.2398
14028SOL    HW248690   5.443  10.929   6.810  0.4290  0.2777  0.7052
14029SOL     OW48691   9.472   1.815  12.625  0.5412 -0.2347  0.1322
14029SOL    HW148692   9.419   1.760  12.568 -0.2917  0.9785 -0.2994
14029SOL    HW248693   9.426   1.812  12.710 -0.3728  0.9664 -0.2906
14030SOL     OW48694   6.561   1.913  10.675 -0.0122  0.5021 -0.5628
14030SOL    HW148695   6.482   1.930  10.727  0.0415 -1.2121  0.1368
14030SOL    HW248696   6.633   1.928  10.736  0.1032 -0.2196 -0.5125
14031SOL     OW48697   3.996  12.703   4.204 -0.5732  0.2015 -0.0950
14031SOL    HW148698   3.904  12.730   4.198 -0.8231 -0.7459 -1.0230
14031SOL    HW248699   3.992  12.608   4.212  0.2599  0.3380  3.3853
14032SOL     OW48700   8.493  10.342   2.807 -0.2515  0.0918 -0.5045
14032SOL    HW148701   8.474  10.424   2.762  1.1318 -0.2105 -1.7508
14032SOL    HW248702   8.409  10.296   2.809 -0.9031  1.2523 -0.3773
14033SOL     OW48703   6.208   1.522   2.500 -0.6378  0.0125 -0.0076
14033SOL    HW148704   6.254   1.495   2.421 -2.5254  1.3601 -1.6465
14033SOL    HW248705   6.276   1.564   2.554  0.7352 -1.2013 -0.7443
14034SOL     OW48706   2.315  10.088   9.895  0.6510 -0.1838  0.1265
14034SOL    HW148707   2.266  10.102   9.976  0.4343 -0.3509  0.0249
14034SOL    HW248708   2.275  10.010   9.856 -0.6435  1.1030 -1.2130
14035SOL     OW48709  11.106   7.866   4.022 -0.1955  0.3409 -0.2169
14035SOL    HW148710  11.044   7.936   4.044 -2.3735 -1.1327 -1.2916
14035SOL    HW248711  11.092   7.800   4.090 -0.0580 -0.1555 -0.6620
14036SOL     OW48712   1.683   0.841   1.298  0.5945  0.6259 -0.5473
14036SOL    HW148713   1.603   0.885   1.271  0.3863  1.5711  1.4319
14036SOL    HW248714   1.660   0.748   1.302 -0.1507  0.7965 -0.8155
14037SOL     OW48715  12.020   8.840   0.569 -0.5813 -0.0335  0.1957
14037SOL    HW148716  11.935   8.843   0.614 -0.1479 -0.2723  1.0431
14037SOL    HW248717  12.015   8.760   0.516 -0.7085 -0.2967  0.6012
14038SOL     OW48718   6.223   8.802   7.827 -0.3819  0.9517 -0.8944
14038SOL    HW148719   6.270   8.757   7.757  0.5858  0.5642 -0.0171
14038SOL    HW248720   6.177   8.732   7.874 -0.2129  1.0716 -0.5403
14039SOL     OW48721  10.465   3.171   3.175 -0.5357 -0.2086 -0.5765
14039SOL    HW148722  10.491   3.206   3.089  0.1612  0.2214 -0.1983
14039SOL    HW248723  10.372   3.148   3.164 -0.5395  0.1285 -1.3498
14040SOL     OW48724   2.905   4.162   3.888 -0.0195 -0.2360 -0.4567
14040SOL    HW148725   2.835   4.215   3.927  0.4814 -0.2212  0.4517
14040SOL    HW248726   2.880   4.072   3.905  0.8987 -0.2212  1.2487
14041SOL     OW48727   4.397   7.618   1.462  0.5654  0.0851 -0.5595
14041SOL    HW148728   4.448   7.567   1.399  0.9367  1.0975 -1.0883
14041SOL    HW248729   4.367   7.694   1.413 -1.6582 -0.5791 -0.3396
14042SOL     OW48730  10.262   1.030   2.177  0.5790  0.0327 -0.0365
14042SOL    HW148731  10.234   1.111   2.136  0.8493  1.0696  1.7463
14042SOL    HW248732  10.183   0.995   2.219  0.8732  0.4296  0.8751
14043SOL     OW48733  11.575   9.072   8.063 -0.0945 -0.1059 -0.4677
14043SOL    HW148734  11.579   9.148   8.120  0.3956  0.9998 -1.9178
14043SOL    HW248735  11.649   9.017   8.090 -0.7098 -0.3127  0.8700
14044SOL     OW48736   1.261   9.455   8.624  0.1222  0.1802 -0.0777
14044SOL    HW148737   1.272   9.549   8.643  0.1529  0.3277 -0.8004
14044SOL    HW248738   1.192   9.427   8.684 -0.0527  0.7240 -0.0146
14045SOL     OW48739   4.549   8.518   1.420 -0.3026 -0.1462 -0.5066
14045SOL    HW148740   4.625   8.573   1.435  0.5612 -0.1325 -4.0919
14045SOL    HW248741   4.585   8.437   1.384 -1.9205  0.1504 -3.0386
14046SOL     OW48742   8.872  10.345   6.867 -0.3767  0.5517  0.1699
14046SOL    HW148743   8.960  10.381   6.876  0.3537 -0.9865 -0.3897
14046SOL    HW248744   8.854  10.350   6.773  0.5557 -2.1591 -0.2630
14047SOL     OW48745  12.053   4.514  10.478  0.4116  0.8828 -0.5743
14047SOL    HW148746  12.067   4.539  10.569  2.6026  1.0631 -0.8990
14047SOL    HW248747  12.141   4.512  10.440 -0.5271  2.2470 -3.0678
14048SOL     OW48748   8.981   7.632   4.944  0.1342  0.3067  0.1742
14048SOL    HW148749   8.938   7.559   4.899 -0.1253  1.0593 -0.8222
14048SOL    HW248750   8.961   7.618   5.036 -0.9204 -0.2218 -0.1247
14049SOL     OW48751   9.723   4.768   3.374  0.0190 -0.0646 -0.2374
14049SOL    HW148752   9.673   4.697   3.336  0.8805 -0.3988 -0.7816
14049SOL    HW248753   9.755   4.818   3.299 -0.3409  0.7334  0.1290
14050SOL     OW48754   7.229   4.722   5.190  0.0142 -0.3899  0.1536
14050SOL    HW148755   7.208   4.666   5.115  1.1316 -1.2726  0.4552
14050SOL    HW248756   7.163   4.700   5.256 -0.4886 -0.2010 -0.2821
14051SOL     OW48757   8.708   6.849   0.160 -0.1090 -0.3120 -0.4190
14051SOL    HW148758   8.659   6.838   0.241 -1.5766 -0.1148 -1.2430
14051SOL    HW248759   8.670   6.926   0.119 -0.5416 -1.3631 -2.0787
14052SOL     OW48760   6.287   1.561  11.446  0.1567 -0.0559 -0.0815
14052SOL    HW148761   6.307   1.489  11.507  0.9142  0.7016  0.5877
14052SOL    HW248762   6.282   1.638  11.502  0.1916  0.5491 -0.9065
14053SOL     OW48763   4.967   1.966  10.859 -0.2404 -0.0696 -0.1270
14053SOL    HW148764   4.918   1.905  10.805 -1.1386  0.1662  0.3959
14053SOL    HW248765   5.052   1.923  10.874 -0.6145 -0.8867 -0.3054
14054SOL     OW48766   5.142  10.258   8.000 -0.6978 -0.5139 -0.3578
14054SOL    HW148767   5.209  10.306   8.047 -0.7913 -0.5788 -0.1555
14054SOL    HW248768   5.187  10.182   7.963 -0.0342  0.8743 -2.6077
14055SOL     OW48769   9.360   4.192   2.388 -0.2445  0.2511  0.3385
14055SOL    HW148770   9.443   4.174   2.344 -0.3860 -0.8652  0.4926
14055SOL    HW248771   9.384   4.238   2.468 -0.0686  3.6571 -1.4770
14056SOL     OW48772   4.022   5.571   8.855 -0.3383  0.2340 -0.0215
14056SOL    HW148773   3.990   5.601   8.940  1.0364 -0.1486  0.6573
14056SOL    HW248774   4.081   5.498   8.876 -0.7906 -0.5497 -1.3825
14057SOL     OW48775   0.962   9.852  11.870  0.0605 -0.5004 -0.5336
14057SOL    HW148776   0.882   9.892  11.906 -1.0064  0.6672 -3.8093
14057SOL    HW248777   0.946   9.758  11.876 -1.5342 -0.2893 -1.0052
14058SOL     OW48778   3.316  12.334   1.362 -0.5432  0.0471  0.6117
14058SOL    HW148779   3.383  12.371   1.304 -0.3391  0.1043  0.8828
14058SOL    HW248780   3.235  12.378   1.335 -0.4006  0.2813  0.5589
14059SOL     OW48781  11.295   9.711   5.253 -0.2693 -0.2949 -0.5165
14059SOL    HW148782  11.304   9.775   5.182 -0.7578  0.8409  0.4034
14059SOL    HW248783  11.293   9.764   5.333 -0.1252 -1.5121  0.3254
14060SOL     OW48784   6.167  11.720   1.816  0.0287 -0.0480 -0.0718
14060SOL    HW148785   6.140  11.779   1.886 -1.8561 -2.0410  0.9852
14060SOL    HW248786   6.246  11.678   1.850  2.7693  3.2532 -1.7362
14061SOL     OW48787   9.368  10.670   1.986 -0.4523 -0.7060 -0.2022
14061SOL    HW148788   9.431  10.742   1.999 -0.2241 -1.0338  0.5959
14061SOL    HW248789   9.300  10.686   2.052 -0.6548 -0.9479 -0.3535
14062SOL     OW48790   0.188   1.183   9.916  0.2079 -0.5939  0.2412
14062SOL    HW148791   0.097   1.161   9.895 -0.0498 -1.9778  2.4966
14062SOL    HW248792   0.238   1.151   9.841 -1.0049 -1.1388 -0.3653
14063SOL     OW48793   0.562   4.708  12.040  0.2569 -0.2196  0.3149
14063SOL    HW148794   0.498   4.766  11.998  0.4061 -0.2048  0.1072
14063SOL    HW248795   0.531   4.620  12.021  0.0075 -0.2089  0.6643
14064SOL     OW48796   7.615   1.941  10.709  0.0368  0.0891  0.0644
14064SOL    HW148797   7.613   1.935  10.614 -1.4835  0.5236  0.0471
14064SOL    HW248798   7.605   1.850  10.739 -1.4247  0.1296 -0.2124
14065SOL     OW48799  10.779   9.279   9.161 -0.1908 -0.0708  0.0512
14065SOL    HW148800  10.747   9.287   9.071  0.0973 -0.3711 -0.0810
14065SOL    HW248801  10.750   9.192   9.188  1.3568 -0.7645 -0.4197
14066SOL     OW48802  10.473   8.573  11.696  0.0446 -0.3086  0.4876
14066SOL    HW148803  10.559   8.561  11.654 -0.5303  0.7777 -1.0905
14066SOL    HW248804  10.476   8.661  11.732  0.3327 -1.0407  2.3755
14067SOL     OW48805   0.763  11.657   4.779  0.3233 -0.4376 -0.6657
14067SOL    HW148806   0.854  11.629   4.776  0.5000 -0.1578  1.1157
14067SOL    HW248807   0.721  11.596   4.839 -0.1378  0.7776  0.2901
14068SOL     OW48808   2.290  10.420   5.055 -0.0475  0.1251 -0.3550
14068SOL    HW148809   2.237  10.473   4.996  0.9422 -0.4535 -1.8073
14068SOL    HW248810   2.235  10.344   5.075 -0.5707  0.5564 -0.1262
14069SOL     OW48811   4.798  11.275   2.058  0.0993  0.0329 -0.6207
14069SOL    HW148812   4.729  11.336   2.082  0.4730  0.7908 -1.4375
14069SOL    HW248813   4.875  11.330   2.042  0.9226 -0.7921  0.2963
14070SOL     OW48814  10.960   4.124   8.748 -0.0355  0.5369 -0.1764
14070SOL    HW148815  10.989   4.084   8.667 -1.1705 -0.6534 -0.0451
14070SOL    HW248816  11.021   4.092   8.814  0.4272  0.8751 -0.4422
14071SOL     OW48817   5.299   0.623  11.316  0.1501  0.3062 -0.0582
14071SOL    HW148818   5.309   0.698  11.256  0.4743  1.3284  1.2335
14071SOL    HW248819   5.377   0.625  11.371 -0.9475  0.4703  1.5598
14072SOL     OW48820   8.222   1.710  10.191 -0.0632 -0.2569  0.1418
14072SOL    HW148821   8.313   1.741  10.195  0.8649 -2.3703 -1.7943
14072SOL    HW248822   8.209   1.664  10.273  1.3237 -1.5081 -0.2873
14073SOL     OW48823   7.792   6.460   8.713  0.3687  0.3180 -0.0601
14073SOL    HW148824   7.742   6.419   8.642  0.2608  1.5379 -0.7089
14073SOL    HW248825   7.754   6.422   8.793  0.8129 -1.4309 -0.6269
14074SOL     OW48826  11.101   0.189   4.480  0.1131 -0.1386  0.4919
14074SOL    HW148827  11.185   0.215   4.518 -0.9239  1.6768  1.6818
14074SOL    HW248828  11.108   0.094   4.470  2.5292  0.0333 -0.0547
14075SOL     OW48829  12.126   4.687   7.971 -0.4027 -0.1392 -0.3126
14075SOL    HW148830  12.097   4.601   8.003  0.1140 -0.5505 -0.9300
14075SOL    HW248831  12.046   4.730   7.941 -0.7085 -0.2740  0.2840
14076SOL     OW48832   6.565   1.703   2.036  0.2363 -0.6502 -0.1649
14076SOL    HW148833   6.516   1.780   2.064 -1.1153 -1.3898 -0.4089
14076SOL    HW248834   6.613   1.676   2.114  0.1986  0.0532  0.1064
14077SOL     OW48835   3.467   5.351   3.565 -0.5822  0.2825 -0.0419
14077SOL    HW148836   3.553   5.365   3.603  0.1735 -1.4008 -1.0330
14077SOL    HW248837   3.451   5.430   3.513 -0.5547  1.4972  1.7089
14078SOL     OW48838   3.878   2.270  10.089  0.0848  0.4665 -0.2574
14078SOL    HW148839   3.881   2.267  10.185 -0.4221 -1.0449 -0.2499
14078SOL    HW248840   3.879   2.363  10.067  1.9530  0.8400  1.1342
14079SOL     OW48841   3.059   2.315   2.724  0.4615  0.0190 -0.4936
14079SOL    HW148842   3.153   2.333   2.725 -0.0502  3.2649  0.7010
14079SOL    HW248843   3.034   2.321   2.632  1.3292 -0.5615 -0.7849
14080SOL     OW48844   0.064  12.143   2.950  0.1156  0.3664  0.0738
14080SOL    HW148845   0.014  12.130   2.870 -0.7255  0.6093  0.5518
14080SOL    HW248846  -0.002  12.150   3.019  0.6909  2.6464  0.4681
14081SOL     OW48847   8.273  12.041  10.780 -0.3223  0.2923 -0.5195
14081SOL    HW148848   8.245  12.043  10.689 -3.8665 -1.0226  0.3837
14081SOL    HW248849   8.273  11.948  10.803  1.4144  0.5238  0.6446
14082SOL     OW48850   8.076   0.120  11.759 -0.3365  0.0873  0.1057
14082SOL    HW148851   7.983   0.105  11.743 -0.2765  0.6749 -0.8945
14082SOL    HW248852   8.115   0.033  11.762 -0.9342 -0.1698  0.7074
14083SOL     OW48853  10.321  10.985   1.922 -0.1631  0.1364 -0.0254
14083SOL    HW148854  10.312  11.068   1.968 -1.7253 -0.1592  0.2511
14083SOL    HW248855  10.365  11.008   1.840 -1.0814  1.3374 -0.2054
14084SOL     OW48856   6.083   9.250   1.317 -0.0929  0.1748 -0.2373
14084SOL    HW148857   6.131   9.304   1.379  0.5332 -0.1545 -0.4202
14084SOL    HW248858   5.991   9.266   1.337  0.0972 -0.0185  0.8602
14085SOL     OW48859   2.614   6.549   2.437 -0.1042  0.0344  0.0613
14085SOL    HW148860   2.544   6.489   2.408  1.2246 -1.8576  0.5750
14085SOL    HW248861   2.690   6.522   2.386  1.0493 -0.1214  1.7918
14086SOL     OW48862   1.926   5.200   4.021 -0.0142  0.1893  0.3048
14086SOL    HW148863   1.868   5.276   4.024  1.8497  1.7325 -0.4088
14086SOL    HW248864   1.872   5.129   3.986 -0.7004  2.3833 -3.5986
14087SOL     OW48865   8.889   7.407   9.556 -0.1685  0.0709  0.0328
14087SOL    HW148866   8.824   7.350   9.514 -1.0655 -1.4371  3.1124
14087SOL    HW248867   8.838   7.482   9.588  0.3737  0.8622 -0.8935
14088SOL     OW48868   9.685  10.919  10.247 -0.4856  0.3762  0.0306
14088SOL    HW148869   9.589  10.922  10.249 -0.5249 -0.6958  1.3953
14088SOL    HW248870   9.711  10.945  10.335  0.2482 -3.6378  1.2001
14089SOL     OW48871  11.946   6.846   2.955  0.5702  0.6510  0.0317
14089SOL    HW148872  11.996   6.787   2.898  2.6859  0.2148  2.1798
14089SOL    HW248873  11.914   6.791   3.026  1.0870  1.7395  1.1597
14090SOL     OW48874   1.667   1.870   7.528 -0.6922  0.2542  0.3858
14090SOL    HW148875   1.640   1.789   7.485  2.1392 -0.8908  0.5661
14090SOL    HW248876   1.758   1.855   7.553 -1.4715  1.6026  4.9716
14091SOL     OW48877   5.120   8.341   4.296  0.2666 -0.2831  0.2117
14091SOL    HW148878   5.101   8.376   4.383 -0.7336 -0.0789 -0.0738
14091SOL    HW248879   5.210   8.367   4.279  1.1074 -1.8549  1.9005
14092SOL     OW48880  10.367   7.628   0.484  0.0072 -0.4305  0.3267
14092SOL    HW148881  10.455   7.598   0.506  0.1757  0.6225  1.1843
14092SOL    HW248882  10.341   7.575   0.409  1.1826 -1.0789  0.3593
14093SOL     OW48883  11.534  11.213   2.164  0.1814  0.1242  0.4872
14093SOL    HW148884  11.494  11.270   2.230 -1.4011 -0.5868  0.1801
14093SOL    HW248885  11.460  11.176   2.116  1.2717  0.0022 -1.1788
14094SOL     OW48886   4.205  11.636   0.502  0.1834 -0.1019  0.0874
14094SOL    HW148887   4.186  11.717   0.550  2.6085  0.4350  0.2752
14094SOL    HW248888   4.178  11.655   0.412 -0.8317  0.2838  0.4615
14095SOL     OW48889   5.659  12.708  10.085  0.0179 -0.4585  0.5679
14095SOL    HW148890   5.635  12.629  10.036  0.6601 -0.3652  0.0973
14095SOL    HW248891   5.575  12.748  10.108 -0.2904  0.0197 -1.2802
14096SOL     OW48892   7.544  10.328   2.368 -0.0574 -0.1693 -0.0013
14096SOL    HW148893   7.555  10.311   2.461 -1.1891 -0.9316  0.0202
14096SOL    HW248894   7.593  10.259   2.325  2.1567  1.3311 -0.0371
14097SOL     OW48895   7.308  10.143   5.065  0.6997  0.1983  0.8897
14097SOL    HW148896   7.375  10.078   5.085  0.3967 -0.3414  0.1877
14097SOL    HW248897   7.318  10.210   5.133  1.9263  0.1110  0.8154
14098SOL     OW48898   9.645   9.212   0.812 -0.0528 -0.5095  0.4459
14098SOL    HW148899   9.693   9.150   0.756  0.5622 -0.6374  1.0989
14098SOL    HW248900   9.659   9.297   0.770  0.5157 -0.5876  0.4689
14099SOL     OW48901   6.781   7.998  10.959 -0.1803 -0.4671 -0.3806
14099SOL    HW148902   6.847   8.065  10.974 -0.7725  0.0671 -0.1027
14099SOL    HW248903   6.819   7.941  10.892  1.3696 -1.3255  1.1796
14100SOL     OW48904  10.726   4.845   9.448  0.8107 -0.0197 -0.2973
14100SOL    HW148905  10.766   4.905   9.511  0.9855  2.4227 -2.5751
14100SOL    HW248906  10.748   4.882   9.362 -1.2447 -1.9659 -1.7713
14101SOL     OW48907   5.986   9.261  10.027 -0.4221 -0.1967  0.1969
14101SOL    HW148908   5.957   9.348  10.057  1.3364  0.0859  1.2413
14101SOL    HW248909   5.946   9.200  10.089  1.4287  0.2249  1.9211
14102SOL     OW48910   3.911   1.933   4.811  0.2389 -0.2073 -0.3580
14102SOL    HW148911   3.965   1.855   4.804  0.8994  0.2730 -0.7813
14102SOL    HW248912   3.837   1.917   4.752  1.6617  0.4882 -2.4708
14103SOL     OW48913   2.131  10.551   5.551 -0.1597  0.2311  0.1529
14103SOL    HW148914   2.103  10.481   5.492  0.0246 -0.6939  1.1385
14103SOL    HW248915   2.070  10.547   5.624  0.7370  0.1185  0.9150
14104SOL     OW48916  12.140   4.133  11.563 -0.0724 -0.0773 -0.7421
14104SOL    HW148917  12.147   4.042  11.535  0.7115 -0.2388 -0.0616
14104SOL    HW248918  12.084   4.131  11.640  1.3326 -0.2480  0.3263
14105SOL     OW48919   8.211   2.267   5.524 -0.0996 -0.1110  0.5325
14105SOL    HW148920   8.172   2.203   5.465  2.0766 -0.3655 -0.7271
14105SOL    HW248921   8.161   2.348   5.509 -0.2706 -0.4607 -0.8541
14106SOL     OW48922  11.108   8.781   6.049  0.0248  0.2788  0.5760
14106SOL    HW148923  11.185   8.769   5.994  0.2117 -1.7632  1.1926
14106SOL    HW248924  11.131   8.853   6.108  0.5830  1.1439 -0.6602
14107SOL     OW48925   2.284   3.952   7.069  0.0522 -0.3505  0.0396
14107SOL    HW148926   2.197   3.920   7.044  0.7131 -0.5411 -2.2293
14107SOL    HW248927   2.339   3.874   7.070  0.4647 -0.0611  0.2355
14108SOL     OW48928   8.058   5.365   8.814  0.1956  0.2254 -0.0908
14108SOL    HW148929   8.076   5.276   8.844  0.9853 -0.2086 -1.7228
14108SOL    HW248930   7.999   5.401   8.880  0.3505 -1.2866  0.9316
14109SOL     OW48931   7.280   4.686  10.881  0.3903  0.0517 -0.3092
14109SOL    HW148932   7.283   4.772  10.839  0.0975  0.0849 -0.2674
14109SOL    HW248933   7.187   4.664  10.882  0.3749  0.1450  0.5154
14110SOL     OW48934   1.518  11.270   9.706 -0.2375 -0.0730  0.0527
14110SOL    HW148935   1.540  11.270   9.613  1.3156  0.0589  0.3884
14110SOL    HW248936   1.603  11.258   9.750 -1.0200 -0.7253  1.4279
14111SOL     OW48937  10.181   9.699   2.492 -0.2796 -0.3178  0.2102
14111SOL    HW148938  10.089   9.682   2.473 -0.1781 -2.0095  0.9912
14111SOL    HW248939  10.228   9.628   2.449  0.7388  0.8269 -0.6369
14112SOL     OW48940   1.917  11.167   8.842  0.3302  0.2374  0.2796
14112SOL    HW148941   1.911  11.122   8.759  1.8612 -0.0644  0.3153
14112SOL    HW248942   1.908  11.260   8.820  2.7018  0.3307 -0.5079
14113SOL     OW48943   0.529   8.174   0.903  0.5926  0.6132  0.0386
14113SOL    HW148944   0.437   8.160   0.884  0.4566  1.0306  0.3869
14113SOL    HW248945   0.560   8.230   0.832  0.6346  0.2930 -0.1993
14114SOL     OW48946   1.956   3.271   9.427 -0.1136  0.1656 -0.0352
14114SOL    HW148947   1.928   3.319   9.349  0.8583  2.1649  0.7778
14114SOL    HW248948   2.047   3.248   9.409 -0.5446 -1.3768 -0.3798
14115SOL     OW48949   0.022  11.784   0.818  0.3435 -0.7891 -0.2571
14115SOL    HW148950  -0.073  11.792   0.813  0.3522 -0.4768  0.0581
14115SOL    HW248951   0.055  11.873   0.803  0.4884 -0.4269  1.9745
14116SOL     OW48952   5.489   9.057   7.579 -0.3021  0.4157 -0.0977
14116SOL    HW148953   5.423   9.003   7.535 -0.1606 -1.0642  1.3635
14116SOL    HW248954   5.525   8.999   7.646  1.9100  1.4715 -0.3096
14117SOL     OW48955   5.915  11.314  11.611 -0.2213 -0.2874 -0.2003
14117SOL    HW148956   5.931  11.361  11.530 -0.9297  0.7718  0.2509
14117SOL    HW248957   5.904  11.223  11.584 -0.1095 -0.0017 -1.2473
14118SOL     OW48958   3.989  11.712   3.377 -0.0958 -0.0076  0.1210
14118SOL    HW148959   4.060  11.773   3.395 -0.9175  0.5028  1.8741
14118SOL    HW248960   3.928  11.761   3.322  0.4062 -0.1118 -0.5468
14119SOL     OW48961   4.275   4.693   6.789  0.0206  0.1024 -0.4332
14119SOL    HW148962   4.281   4.788   6.774 -1.0309  0.0404 -1.3987
14119SOL    HW248963   4.185   4.670   6.765  0.4343 -1.2349 -0.8326
14120SOL     OW48964   1.111   9.444   0.536 -0.0697 -0.3240  0.2329
14120SOL    HW148965   1.054   9.436   0.460  1.0140 -2.0652 -0.4507
14120SOL    HW248966   1.163   9.364   0.536  1.9139  0.8810  1.1987
14121SOL     OW48967  12.542  11.198   6.484 -0.1851  0.3607 -0.4443
14121SOL    HW148968  12.447  11.208   6.495 -0.0779  0.4506  0.4546
14121SOL    HW248969  12.569  11.141   6.556  0.5464  0.8797 -0.2965
14122SOL     OW48970   8.391   7.807   8.345 -0.5149  0.4058 -0.3347
14122SOL    HW148971   8.321   7.856   8.388  1.2906  1.6857  1.3367
14122SOL    HW248972   8.426   7.750   8.414 -1.6077 -2.2830 -1.8618
14123SOL     OW48973  11.871  11.775   3.169  0.1847  0.2532  0.1305
14123SOL    HW148974  11.910  11.769   3.082  2.2536 -0.9823  1.0667
14123SOL    HW248975  11.840  11.866   3.175  0.1734  0.4275 -1.7693
14124SOL     OW48976   7.086   3.240   6.504 -0.0181  0.1438 -0.1823
14124SOL    HW148977   7.080   3.331   6.476 -0.0855  0.3450  0.4923
14124SOL    HW248978   7.156   3.238   6.568 -0.8920 -0.0185  0.8012
14125SOL     OW48979   5.854   0.967  12.632 -0.1560  0.4819 -0.2671
14125SOL    HW148980   5.947   0.985  12.620  0.1887 -0.9333  0.0736
14125SOL    HW248981   5.810   1.032  12.577  1.0578  0.5230 -1.2512
14126SOL     OW48982   5.494   1.811  11.906  0.4545  0.1553  0.4709
14126SOL    HW148983   5.444   1.730  11.918  1.1649 -0.3080  0.3782
14126SOL    HW248984   5.433   1.880  11.932 -0.2486 -0.3853  0.3177
14127SOL     OW48985  10.187  10.805  12.597  0.2781 -0.7543 -0.3903
14127SOL    HW148986  10.129  10.767  12.531 -0.7287 -0.2124  0.1619
14127SOL    HW248987  10.129  10.836  12.665  1.1530  0.6375 -0.2350
14128SOL     OW48988   9.881  11.452   1.811 -0.0503  0.9246  0.0831
14128SOL    HW148989   9.883  11.395   1.734  0.8837  1.6642 -0.4579
14128SOL    HW248990   9.853  11.537   1.777  1.5739  1.5833  0.3191
14129SOL     OW48991   3.110   0.771   3.201 -0.1183 -0.2118 -0.0475
14129SOL    HW148992   3.109   0.728   3.286  1.4680 -2.1291 -0.9287
14129SOL    HW248993   3.094   0.700   3.138 -1.3581  1.1741 -1.3735
14130SOL     OW48994   5.096   1.177   4.199 -0.1253  0.1725 -0.4205
14130SOL    HW148995   5.004   1.158   4.177  0.7373 -0.7753 -3.7003
14130SOL    HW248996   5.135   1.091   4.214  0.7562  0.3430 -1.5907
14131SOL     OW48997   6.492   4.597  12.246  0.1632  0.4136  0.4603
14131SOL    HW148998   6.448   4.682  12.243  1.7094  1.2690  0.4265
14131SOL    HW248999   6.566   4.611  12.306 -0.6802 -1.5026  2.0540
14132SOL     OW49000   2.264   1.594  12.217 -0.2010  0.1065  0.0264
14132SOL    HW149001   2.329   1.527  12.195 -0.8441 -1.4653  2.4973
14132SOL    HW249002   2.293   1.630  12.301 -2.1884 -0.2973  0.9471
14133SOL     OW49003   1.453   2.985   2.630 -0.1180 -0.1705 -0.0313
14133SOL    HW149004   1.496   2.902   2.649  0.4014 -0.0402 -0.6193
14133SOL    HW249005   1.362   2.971   2.657 -0.0013 -0.8792  0.0161
14134SOL     OW49006   2.094   1.329  11.635 -0.2579  0.1710  0.0838
14134SOL    HW149007   2.001   1.324  11.614  0.1488  0.7152 -2.2284
14134SOL    HW249008   2.131   1.247  11.602  0.7397  1.9141 -3.7422
14135SOL     OW49009   1.991   3.298   3.461  0.5497 -0.2213  0.5070
14135SOL    HW149010   1.898   3.297   3.486  1.3428  1.3783  4.2171
14135SOL    HW249011   2.029   3.223   3.507  1.9842  2.5594  4.4663
14136SOL     OW49012   0.013  10.382   6.398 -0.1976 -0.2509  0.2545
14136SOL    HW149013  -0.064  10.432   6.371  0.0428  0.4487  0.8290
14136SOL    HW249014   0.080  10.449   6.414  1.2000 -0.9235 -2.2058
14137SOL     OW49015  11.286   0.362  12.649 -0.2218  0.7470 -0.4245
14137SOL    HW149016  11.197   0.344  12.618 -0.2836 -3.2109  1.3379
14137SOL    HW249017  11.325   0.418  12.582 -3.5381  1.3901 -1.9953
14138SOL     OW49018   3.164   2.359   2.032  0.2742  0.1302 -0.2752
14138SOL    HW149019   3.233   2.426   2.029  0.5357 -0.1075  0.2855
14138SOL    HW249020   3.193   2.292   1.970  0.6172 -0.0325  0.0583
14139SOL     OW49021   7.692   6.743   3.828 -0.5222 -0.1638 -0.0352
14139SOL    HW149022   7.613   6.786   3.794 -1.0858 -1.3547 -0.2781
14139SOL    HW249023   7.744   6.724   3.751 -0.1234  0.3381  0.1005
14140SOL     OW49024   4.805   2.028   5.797 -0.0170  0.6585  0.7366
14140SOL    HW149025   4.837   1.986   5.877  0.7562  1.6405  0.9689
14140SOL    HW249026   4.869   2.098   5.780 -0.9201  1.3339  0.0286
14141SOL     OW49027  12.349   1.325   0.235 -0.0666 -0.7870  0.3051
14141SOL    HW149028  12.427   1.313   0.180  0.5059 -0.5864  1.0567
14141SOL    HW249029  12.383   1.322   0.325 -0.9403 -0.7562  0.6391
14142SOL     OW49030   3.132   5.354   9.764 -0.0145  0.3618 -0.0075
14142SOL    HW149031   3.097   5.427   9.712 -1.9602  0.1057  0.8289
14142SOL    HW249032   3.058   5.293   9.772  0.7828 -0.4719  1.4798
14143SOL     OW49033   8.851   0.324  12.693 -0.1815  0.0651  0.4557
14143SOL    HW149034   8.839   0.231  12.713 -1.4598 -0.4299 -2.2345
14143SOL    HW249035   8.943   0.332  12.666 -0.2242 -0.5373  0.1327
14144SOL     OW49036   2.851   3.893  10.976 -0.7563 -0.4398  0.2810
14144SOL    HW149037   2.874   3.888  10.883 -0.9944  1.2395  0.1029
14144SOL    HW249038   2.755   3.887  10.977 -0.8582  0.8680  0.2722
14145SOL     OW49039  11.970   9.275   4.311 -0.3009  0.2893 -0.8860
14145SOL    HW149040  11.994   9.343   4.248 -1.0095  1.1206 -0.2827
14145SOL    HW249041  11.946   9.323   4.390 -0.8923 -0.6674 -0.4685
14146SOL     OW49042   0.716  12.491   2.008  0.0692 -0.0182  0.3335
14146SOL    HW149043   0.639  12.518   2.058 -1.1277 -1.0369 -0.9006
14146SOL    HW249044   0.738  12.404   2.042  2.1300  1.1221  2.2496
14147SOL     OW49045   0.103   8.998  11.768 -0.1713 -0.1304 -0.5272
14147SOL    HW149046   0.041   9.061  11.805 -0.3461  0.8518 -2.3832
14147SOL    HW249047   0.064   8.973  11.684  1.1953 -0.6770 -1.0176
14148SOL     OW49048   8.280   9.063   7.839 -0.3663 -0.3245 -0.1116
14148SOL    HW149049   8.359   9.108   7.868 -1.1054  0.9557 -0.0094
14148SOL    HW249050   8.297   8.970   7.858  0.6855  0.0405  0.8705
14149SOL     OW49051   9.525   5.161   9.416  0.3692  0.1534 -0.2773
14149SOL    HW149052   9.520   5.255   9.433 -0.6341  0.1334 -0.3815
14149SOL    HW249053   9.605   5.132   9.459  0.0692  0.8560  0.7795
14150SOL     OW49054   1.143   0.517   4.051  0.0674 -0.3438  0.1664
14150SOL    HW149055   1.121   0.454   4.121 -0.1273 -0.6552 -0.1699
14150SOL    HW249056   1.058   0.547   4.020  0.1312 -0.8076 -0.4753
14151SOL     OW49057   2.149   5.347   4.265 -0.3583 -0.3297 -0.2862
14151SOL    HW149058   2.209   5.378   4.198 -0.3571  1.9453  0.6762
14151SOL    HW249059   2.064   5.383   4.241 -0.2713  0.9166  1.1187
14152SOL     OW49060   9.507   6.700   6.917  0.0380 -0.1283 -0.7246
14152SOL    HW149061   9.498   6.765   6.987 -0.1848 -1.4101  0.4885
14152SOL    HW249062   9.601   6.684   6.911  0.2183  1.1219 -1.8561
14153SOL     OW49063   8.904   2.480   7.639  0.3575  0.0540 -0.0720
14153SOL    HW149064   8.994   2.462   7.667 -0.4091 -2.0830  1.2488
14153SOL    HW249065   8.851   2.461   7.716 -1.4074 -0.6775 -1.4050
14154SOL     OW49066   6.182  10.525   8.718 -0.3761 -0.2745 -0.6011
14154SOL    HW149067   6.264  10.476   8.716  0.0740  0.3687  0.8873
14154SOL    HW249068   6.194  10.594   8.652  0.6558  0.3534  0.2118
14155SOL     OW49069   6.416  11.981   8.013 -0.1651  0.1030 -0.3284
14155SOL    HW149070   6.323  11.972   7.991 -0.7326 -2.7181  2.4645
14155SOL    HW249071   6.420  12.059   8.068 -0.3164  1.7100 -2.4521
14156SOL     OW49072   8.331   8.774  12.507  0.3612 -0.2990 -0.1533
14156SOL    HW149073   8.416   8.758  12.466  1.1686  1.1015  0.8926
14156SOL    HW249074   8.350   8.781  12.601 -1.1451 -1.4460  0.2874
14157SOL     OW49075  10.061   1.748   2.081 -0.3216 -0.2505  0.6851
14157SOL    HW149076  10.111   1.794   2.148  0.4266  0.1992 -0.1813
14157SOL    HW249077  10.001   1.814   2.046 -0.1249 -0.2619  0.3231
14158SOL     OW49078  11.687   7.440   7.639 -0.0943 -0.7663 -0.3732
14158SOL    HW149079  11.756   7.407   7.696 -0.4403 -2.0883 -0.6694
14158SOL    HW249080  11.633   7.495   7.695  0.0601 -1.3504  0.3663
14159SOL     OW49081   2.400   0.511   4.037 -0.5705  0.0998 -0.3656
14159SOL    HW149082   2.421   0.419   4.054 -3.7753 -0.5180  0.9850
14159SOL    HW249083   2.415   0.521   3.943 -1.5130 -2.2453 -0.8491
14160SOL     OW49084   4.699   6.617   0.896 -0.0205 -0.1382  0.7271
14160SOL    HW149085   4.763   6.640   0.963 -0.2755  1.9612  0.3512
14160SOL    HW249086   4.673   6.702   0.859 -2.5345 -0.9576  0.4435
14161SOL     OW49087   3.221   9.448  12.197  0.0523 -0.0548  0.2917
14161SOL    HW149088   3.274   9.369  12.185  2.8562  1.8481 -1.0821
14161SOL    HW249089   3.174   9.459  12.114 -0.6697 -0.4825  0.6380
14162SOL     OW49090   7.695  12.666  11.884 -0.1603 -0.4347 -0.1544
14162SOL    HW149091   7.775  12.636  11.928  0.3259  0.7172 -0.2116
14162SOL    HW249092   7.727  12.720  11.812 -0.9656 -1.5837 -1.4279
14163SOL     OW49093  12.584  11.047   0.668 -0.2651  1.0277  0.2409
14163SOL    HW149094  12.559  10.985   0.737  0.6242 -0.7595 -0.9407
14163SOL    HW249095  12.618  11.123   0.714 -1.2483  0.5867  1.7580
14164SOL     OW49096   7.910   0.521   3.058  0.2946 -0.3978 -0.0255
14164SOL    HW149097   7.866   0.467   3.123  0.9442 -0.4607  0.3681
14164SOL    HW249098   7.845   0.587   3.034  0.0626 -0.3492  0.7156
14165SOL     OW49099  11.042   4.876   0.932  0.0120  0.2163 -0.0837
14165SOL    HW149100  10.992   4.911   1.006 -0.2749  0.7072 -0.5025
14165SOL    HW249101  10.976   4.847   0.869  0.1883 -2.7237  0.9460
14166SOL     OW49102   6.422   3.127   3.735 -0.1673  0.6754 -0.1644
14166SOL    HW149103   6.494   3.189   3.729  0.7585 -0.4823 -1.4372
14166SOL    HW249104   6.346   3.176   3.702  0.4632  1.2559 -0.7956
14167SOL     OW49105   7.155   5.311   4.350 -0.0101  0.1132  0.0691
14167SOL    HW149106   7.220   5.382   4.354 -0.4689  0.6365 -1.2127
14167SOL    HW249107   7.190   5.251   4.284 -0.0497 -0.4468  0.5410
14168SOL     OW49108   5.951   7.184   4.328 -0.6046  0.2051 -0.6163
14168SOL    HW149109   5.958   7.122   4.401  0.1115 -0.1402 -0.9636
14168SOL    HW249110   5.922   7.130   4.254 -0.7607  0.4362 -0.7234
14169SOL     OW49111   4.285   4.802   4.549 -0.0365 -0.4075  0.1345
14169SOL    HW149112   4.280   4.863   4.623  0.6446 -0.8477  0.5499
14169SOL    HW249113   4.315   4.857   4.476 -0.7883  0.0437  0.1520
14170SOL     OW49114   7.624  12.336   6.947  0.0801  0.2635  0.2326
14170SOL    HW149115   7.714  12.362   6.927  0.1951  0.8505  1.4024
14170SOL    HW249116   7.596  12.398   7.015 -1.5387  0.6936 -0.7818
14171SOL     OW49117   8.379  10.492  11.319  0.2199 -0.4390  0.3529
14171SOL    HW149118   8.435  10.505  11.396 -0.7181 -0.9616  1.1444
14171SOL    HW249119   8.364  10.580  11.285  1.2818 -0.2621  0.2917
14172SOL     OW49120   6.179   4.195   9.870 -0.0260 -0.1332  0.4962
14172SOL    HW149121   6.266   4.163   9.894 -0.0153 -0.3825  0.1348
14172SOL    HW249122   6.135   4.118   9.834  0.1659  0.3576 -0.8340
14173SOL     OW49123   6.456   1.000  12.623  0.6371 -0.6295  0.0606
14173SOL    HW149124   6.444   1.090  12.596 -0.3849 -0.1295  1.9720
14173SOL    HW249125   6.518   1.004  12.697 -1.6611 -1.0404  2.1463
14174SOL     OW49126   2.940   4.538   4.824  0.0531  0.0968  0.1071
14174SOL    HW149127   2.919   4.586   4.744  1.7005  0.4354 -0.1593
14174SOL    HW249128   3.030   4.563   4.844  0.1179 -1.0086  1.3372
14175SOL     OW49129   9.306  10.319  11.971  0.3717  0.1948 -0.1670
14175SOL    HW149130   9.305  10.245  12.031 -1.0243  0.3439  0.0235
14175SOL    HW249131   9.250  10.385  12.013  0.2349  0.7083 -1.1244
14176SOL     OW49132   7.475   9.072   5.278  0.5445 -0.0441  0.7762
14176SOL    HW149133   7.472   8.998   5.338 -2.3938  0.6656  1.6623
14176SOL    HW249134   7.515   9.142   5.328  1.3158 -0.3932  0.6690
14177SOL     OW49135  10.804   8.860   1.050  0.1566  0.4874  0.0320
14177SOL    HW149136  10.872   8.845   0.984  1.4029 -2.3765  1.7446
14177SOL    HW249137  10.852   8.875   1.131 -1.3135  1.8188  0.6976
14178SOL     OW49138   6.599  11.473   2.156  0.9039  0.6502  0.2893
14178SOL    HW149139   6.627  11.554   2.113  0.4177 -0.4417 -2.2429
14178SOL    HW249140   6.504  11.477   2.156  0.8736  0.0348  0.0270
14179SOL     OW49141   1.861   0.980  12.631 -0.2258  0.2542 -0.4006
14179SOL    HW149142   1.779   1.025  12.608 -0.0432 -0.2071 -2.0591
14179SOL    HW249143   1.923   1.051  12.647 -0.3100  0.6272 -1.6177
14180SOL     OW49144  10.700   5.528   1.780  0.6485 -0.2027  0.2378
14180SOL    HW149145  10.692   5.623   1.786  0.5707 -0.2609  1.2668
14180SOL    HW249146  10.761   5.513   1.708  0.8733  0.6401  0.2479
14181SOL     OW49147   6.860   4.878  11.270 -0.0232  0.0089 -0.3466
14181SOL    HW149148   6.784   4.838  11.228 -0.2767  1.2738 -1.1413
14181SOL    HW249149   6.855   4.971  11.246  0.8814  0.4195  0.9229
14182SOL     OW49150   6.004   4.095   3.551 -0.1274 -0.5076 -0.2523
14182SOL    HW149151   6.089   4.062   3.524 -0.5332 -0.3995 -1.7703
14182SOL    HW249152   5.953   4.101   3.470 -2.0899 -2.0106  0.7764
14183SOL     OW49153   8.345   5.386   2.332  0.2199 -0.3334 -0.5548
14183SOL    HW149154   8.416   5.330   2.363  1.2844  1.1347 -0.2426
14183SOL    HW249155   8.386   5.472   2.320 -1.4876  0.5273 -0.4561
14184SOL     OW49156   7.978   4.173   4.443  0.2632 -0.0099  0.4115
14184SOL    HW149157   7.993   4.145   4.353  1.0026 -0.0797  0.5524
14184SOL    HW249158   8.066   4.183   4.480 -0.0114  0.8807  0.8609
14185SOL     OW49159   4.955   1.935   7.409 -0.2861  0.5209  0.4726
14185SOL    HW149160   4.948   2.030   7.399 -1.0187  0.4808  0.5789
14185SOL    HW249161   4.899   1.899   7.340  0.3007  0.1527  0.1768
14186SOL     OW49162  10.674   1.769   9.649  0.2052 -0.5772 -0.5061
14186SOL    HW149163  10.682   1.718   9.569 -1.6985  0.2470 -1.2881
14186SOL    HW249164  10.580   1.775   9.665  0.2783  2.6036 -0.4841
14187SOL     OW49165   7.363   3.062   7.865 -0.1254 -0.5521 -0.0475
14187SOL    HW149166   7.406   3.144   7.890  0.7031 -0.5436 -1.3895
14187SOL    HW249167   7.359   3.011   7.946  2.7716 -0.6965  0.1051
14188SOL     OW49168  12.345   9.801  10.991 -0.4106  0.0750 -1.1311
14188SOL    HW149169  12.372   9.874  11.048  3.1166 -0.0940 -2.3357
14188SOL    HW249170  12.281   9.753  11.043  0.5896  1.4675  1.5947
14189SOL     OW49171   4.113  12.603   9.004  0.3097 -0.5157  0.0084
14189SOL    HW149172   4.159  12.589   8.921  0.2094  2.6535 -0.6910
14189SOL    HW249173   4.025  12.569   8.987  0.8243 -1.7022 -0.4649
14190SOL     OW49174   1.456  12.273   8.008 -0.3019  0.1039  0.1671
14190SOL    HW149175   1.369  12.303   8.033 -0.4342 -0.5806  0.5517
14190SOL    HW249176   1.507  12.353   7.997 -0.1694  0.5049  2.8788
14191SOL     OW49177  11.966   7.167  12.298 -0.5970  0.1649 -0.4407
14191SOL    HW149178  11.982   7.157  12.205 -1.3149  1.3819 -0.7086
14191SOL    HW249179  11.955   7.077  12.330  0.8807 -0.3502 -1.2741
14192SOL     OW49180  10.376   5.014  10.390  0.0726  0.0257 -0.1183
14192SOL    HW149181  10.465   5.046  10.405 -0.2922  1.9319 -1.5621
14192SOL    HW249182  10.388   4.932  10.341  1.0226 -1.1524  1.9685
14193SOL     OW49183   2.802   7.168  10.928  0.2216  0.1005 -0.5449
14193SOL    HW149184   2.721   7.133  10.965  0.7319 -0.5898 -0.0679
14193SOL    HW249185   2.785   7.262  10.919  0.1835  0.3874  1.8166
14194SOL     OW49186   7.248   9.274   1.442 -0.3311  0.5563 -0.6480
14194SOL    HW149187   7.268   9.355   1.489  1.0707 -0.6331  0.9725
14194SOL    HW249188   7.171   9.238   1.486  0.8309 -0.4295  0.6964
14195SOL     OW49189   5.771   9.680  10.855  0.4533 -0.0544 -0.1805
14195SOL    HW149190   5.831   9.740  10.901  1.5299 -0.1592 -1.3980
14195SOL    HW249191   5.764   9.717  10.767 -1.6776  0.2115  0.0517
14196SOL     OW49192   0.500  10.705   1.765 -0.3849  0.0927  0.1951
14196SOL    HW149193   0.530  10.622   1.729 -0.3505  0.5404 -0.8433
14196SOL    HW249194   0.490  10.689   1.859 -2.1639 -1.6164 -0.2355
14197SOL     OW49195   6.692   2.376   3.890  0.7190 -0.0771  0.3619
14197SOL    HW149196   6.622   2.394   3.953 -0.3654 -0.6078 -0.6424
14197SOL    HW249197   6.724   2.462   3.864 -0.2742  0.2095  0.0704
14198SOL     OW49198   7.605   3.147  12.170 -0.1429 -0.1320 -0.3526
14198SOL    HW149199   7.574   3.224  12.217  2.5788  0.1159  1.2333
14198SOL    HW249200   7.545   3.077  12.196 -0.9213  0.8231  0.4963
14199SOL     OW49201  11.486   7.314   0.312  0.3544 -0.5016 -0.3549
14199SOL    HW149202  11.401   7.295   0.271  0.2980  0.4774 -0.7199
14199SOL    HW249203  11.549   7.264   0.260  0.1265 -0.3155 -0.8241
14200SOL     OW49204  10.770  10.691  11.033  0.0223 -0.2167  0.4326
14200SOL    HW149205  10.757  10.622  11.098  0.7400  0.6606  1.5535
14200SOL    HW249206  10.831  10.653  10.969 -0.2261 -0.8896  0.5936
14201SOL     OW49207   8.769   3.065   2.417 -0.4102  0.4827 -0.1999
14201SOL    HW149208   8.708   3.100   2.353  0.9933  0.3127 -1.7039
14201SOL    HW249209   8.856   3.080   2.378  0.3773 -2.4274  0.1496
14202SOL     OW49210   2.937  11.607  11.470 -0.1411  0.1973  0.2848
14202SOL    HW149211   2.920  11.515  11.450  1.7740  0.0048 -0.6952
14202SOL    HW249212   2.858  11.637  11.514 -1.1434 -1.6859 -0.1295
14203SOL     OW49213   2.189  12.427   9.172 -0.8505  0.1539  0.2718
14203SOL    HW149214   2.157  12.410   9.083 -3.9338  0.5218  1.2098
14203SOL    HW249215   2.166  12.347   9.221  0.3897  0.1445  0.8793
14204SOL     OW49216   8.949   4.496  12.555 -0.4520  0.1276  0.2328
14204SOL    HW149217   8.889   4.446  12.611 -0.5285 -0.9071 -0.7249
14204SOL    HW249218   8.893   4.558  12.509 -0.8426 -0.8562 -0.6792
14205SOL     OW49219   9.627  11.229   8.398  0.1948  0.6154 -0.4238
14205SOL    HW149220   9.532  11.222   8.387  0.2147 -0.7266  0.0342
14205SOL    HW249221   9.639  11.302   8.458 -0.6632 -0.2976  0.9077
14206SOL     OW49222  10.345   2.645   2.903 -0.0929 -0.6241  0.1608
14206SOL    HW149223  10.333   2.739   2.891 -1.7147 -0.6311  1.4200
14206SOL    HW249224  10.388   2.637   2.989  0.3131 -1.0346 -0.0742
14207SOL     OW49225   0.605   5.563   1.259  0.4479  0.1443 -0.2890
14207SOL    HW149226   0.572   5.525   1.178 -1.2474  1.5209 -0.3089
14207SOL    HW249227   0.533   5.553   1.322  0.6462  1.5618  0.2189
14208SOL     OW49228   5.424   3.468  11.125 -0.4163 -0.2597  0.1818
14208SOL    HW149229   5.453   3.460  11.034  0.9533  0.3112  0.5436
14208SOL    HW249230   5.503   3.452  11.177 -0.7259  1.3149  1.2135
14209SOL     OW49231   7.460  10.395   7.899 -0.3506  0.3166  0.3077
14209SOL    HW149232   7.367  10.406   7.920 -1.0697 -1.5008 -1.5623
14209SOL    HW249233   7.490  10.484   7.880 -1.8845  0.8715  0.3098
14210SOL     OW49234   4.237   6.474   1.748 -0.5073  0.1357  0.3676
14210SOL    HW149235   4.221   6.550   1.693  0.9410  0.2998  0.1385
14210SOL    HW249236   4.211   6.399   1.694  0.9915  0.2870 -0.6030
14211SOL     OW49237   7.545   9.716   8.377  0.3106  0.5466 -0.1258
14211SOL    HW149238   7.621   9.772   8.390  0.9100 -0.3541  0.4284
14211SOL    HW249239   7.528   9.679   8.464  1.4578 -2.0046 -0.9050
14212SOL     OW49240   2.575  12.688   3.916  0.4898 -0.6112  0.1378
14212SOL    HW149241   2.620  12.713   3.997  0.5298 -1.3423  0.3421
14212SOL    HW249242   2.645  12.682   3.851  1.0505 -3.7194  0.8920
14213SOL     OW49243  12.600   8.384  11.054 -0.1539  0.1697  0.0265
14213SOL    HW149244  12.642   8.394  11.139  2.4633  2.2301 -1.3483
14213SOL    HW249245  12.673   8.373  10.992 -2.0018 -3.3172 -1.8283
14214SOL     OW49246   3.841   2.080   8.831  0.2444  0.3027 -0.1412
14214SOL    HW149247   3.902   2.010   8.852  0.0841  0.5501  1.2817
14214SOL    HW249248   3.769   2.036   8.785  0.4873 -0.3542  0.0938
14215SOL     OW49249   6.883   5.383   1.875 -0.1784 -0.3328 -0.6047
14215SOL    HW149250   6.942   5.357   1.804  0.7059 -0.4815  0.1676
14215SOL    HW249251   6.941   5.410   1.946 -1.0152 -1.4500  0.5454
14216SOL     OW49252   7.750  10.263   7.392  0.0096  0.4709  0.3521
14216SOL    HW149253   7.662  10.257   7.429 -1.0024  3.1750 -1.3245
14216SOL    HW249254   7.798  10.318   7.453 -0.0163  0.4710  0.3725
14217SOL     OW49255   0.343   6.589   4.787 -0.2028 -0.1365 -0.1984
14217SOL    HW149256   0.324   6.504   4.828  1.8797 -0.5109  0.1002
14217SOL    HW249257   0.424   6.575   4.739 -0.6136  1.3202 -1.3875
14218SOL     OW49258   8.491   9.384   7.363  0.2690  0.7921 -0.2151
14218SOL    HW149259   8.435   9.459   7.344 -1.7929 -0.8857 -1.1897
14218SOL    HW249260   8.446   9.336   7.432  0.5072 -0.5383 -0.9361
14219SOL     OW49261   3.766   6.434   1.450  0.0381 -0.1422  0.2640
14219SOL    HW149262   3.685   6.453   1.497 -0.0762 -0.6303  0.2683
14219SOL    HW249263   3.745   6.360   1.393  0.6311 -0.6387  0.6782
14220SOL     OW49264   0.140  10.241   8.636 -0.2113  0.4303  0.3573
14220SOL    HW149265   0.084  10.165   8.620  1.2068 -0.7845  0.9273
14220SOL    HW249266   0.228  10.210   8.617  0.3032  2.2708 -0.4295
14221SOL     OW49267  12.564   6.060   9.580 -0.7003  0.2028  0.2012
14221SOL    HW149268  12.628   6.044   9.650 -0.4534 -1.1743 -0.2992
14221SOL    HW249269  12.618   6.077   9.502 -0.7661 -3.0644 -0.7285
14222SOL     OW49270   5.102  10.208   3.970 -0.3499  0.4599 -0.1976
14222SOL    HW149271   5.071  10.283   4.021 -2.6481 -0.2292 -0.4456
14222SOL    HW249272   5.095  10.237   3.879 -2.1987 -0.3137 -0.3459
14223SOL     OW49273   3.798   8.558   9.263 -0.6096 -0.7290  0.4829
14223SOL    HW149274   3.885   8.525   9.284 -1.0773 -1.3800  1.4307
14223SOL    HW249275   3.808   8.597   9.176  0.6867 -0.5478  0.6911
14224SOL     OW49276   7.342   3.588   3.529 -0.3804 -0.1102 -0.2408
14224SOL    HW149277   7.262   3.593   3.476 -0.6450 -0.2493  0.1412
14224SOL    HW249278   7.352   3.677   3.564 -0.2402 -0.0346 -0.4680
14225SOL     OW49279   8.281   9.021   7.086  0.2935 -0.2189 -0.1593
14225SOL    HW149280   8.212   9.013   7.152 -1.7975  2.0279 -1.8705
14225SOL    HW249281   8.339   9.089   7.120 -0.3131  0.3413 -0.2279
14226SOL     OW49282   3.247   2.044   2.378  0.6824 -1.0856 -0.4069
14226SOL    HW149283   3.222   2.086   2.296 -0.7450 -0.8758  0.1037
14226SOL    HW249284   3.269   2.117   2.437 -0.6452 -1.0721  0.1129
14227SOL     OW49285   9.062   3.559   9.642  0.1190  0.1389 -0.3184
14227SOL    HW149286   9.072   3.565   9.737 -0.1614  2.6759 -0.3832
14227SOL    HW249287   9.089   3.470   9.621  0.3774 -0.4307  2.1100
14228SOL     OW49288   0.947   6.096   2.725  0.2950  0.4966 -0.0591
14228SOL    HW149289   0.883   6.119   2.658 -0.9834 -1.0392  0.5708
14228SOL    HW249290   0.961   6.177   2.774 -1.7967  0.7220  0.2615
14229SOL     OW49291   8.165   0.535   4.925 -0.4923  0.5766 -0.5497
14229SOL    HW149292   8.178   0.537   5.020  1.0318  1.4893 -0.7388
14229SOL    HW249293   8.186   0.445   4.899  0.5467  0.6934 -0.1734
14230SOL     OW49294  11.684   5.896   0.635 -0.4015  0.3910  0.2075
14230SOL    HW149295  11.776   5.899   0.611 -0.5363 -0.3891 -0.4383
14230SOL    HW249296  11.639   5.860   0.559 -1.2564  0.8068  0.4892
14231SOL     OW49297   7.629  10.465   5.688  0.4960 -0.0925  0.1821
14231SOL    HW149298   7.629  10.412   5.768  1.8954  1.2568  1.1200
14231SOL    HW249299   7.695  10.532   5.703 -0.5303  1.3564 -1.3555
14232SOL     OW49300   3.067   0.790   5.868 -0.4503  0.6303  0.2152
14232SOL    HW149301   3.069   0.861   5.932  0.2820 -0.2836  1.2389
14232SOL    HW249302   3.070   0.834   5.783  1.2485  1.7858  0.8263
14233SOL     OW49303   2.257   1.054   1.481  0.4551  0.0084  0.0431
14233SOL    HW149304   2.162   1.059   1.474  0.1822 -2.6340  0.8480
14233SOL    HW249305   2.287   1.142   1.458 -2.1413  0.8619 -0.4431
14234SOL     OW49306   9.367  10.499   5.564  0.3368 -0.2441 -0.0268
14234SOL    HW149307   9.397  10.585   5.536  0.1269 -0.4263 -0.8660
14234SOL    HW249308   9.274  10.497   5.540 -0.1962  0.0424  1.8544
14235SOL     OW49309  12.512   8.837  10.234 -1.1365 -0.0409  0.0563
14235SOL    HW149310  12.559   8.820  10.315 -0.8379 -1.6429 -0.4267
14235SOL    HW249311  12.451   8.907  10.256  0.9162  1.6017  0.8882
14236SOL     OW49312   8.121   1.922   0.637 -0.6076 -0.1913 -0.1624
14236SOL    HW149313   8.178   1.863   0.687  0.3286  0.1442 -0.8087
14236SOL    HW249314   8.124   2.005   0.685  0.7392  0.2995 -1.0326
14237SOL     OW49315   3.392   8.471  12.205 -0.5560  0.0984 -0.4814
14237SOL    HW149316   3.357   8.503  12.288 -0.7954  1.4116 -1.0709
14237SOL    HW249317   3.486   8.465  12.220 -0.7047 -0.8070  0.2369
14238SOL     OW49318  10.470   9.010   9.800 -0.3877  0.5793 -0.5570
14238SOL    HW149319  10.406   8.939   9.807 -0.2676  0.4971 -0.2839
14238SOL    HW249320  10.418   9.090   9.803 -0.4409  0.5229  0.1432
14239SOL     OW49321   8.119  12.019   6.120  0.0889  0.5665 -0.2596
14239SOL    HW149322   8.049  11.981   6.171 -0.6621  3.0462  0.7036
14239SOL    HW249323   8.079  12.041   6.036  0.5104 -0.6303 -0.7997
14240SOL     OW49324   2.073  11.926   2.793  0.2635 -0.5309  0.1079
14240SOL    HW149325   1.996  11.983   2.793  1.1984  0.8762  2.2072
14240SOL    HW249326   2.146  11.983   2.769  1.2294 -0.7317  2.2761
14241SOL     OW49327  10.320   0.548   0.251  0.3772 -0.5496  0.0360
14241SOL    HW149328  10.228   0.540   0.276  0.4958 -1.9136  0.0934
14241SOL    HW249329  10.323   0.627   0.197 -0.7949 -0.4154  0.1390
14242SOL     OW49330   0.968   2.724  11.422  0.0145  0.4447 -0.9052
14242SOL    HW149331   0.975   2.632  11.448 -1.0906  0.2748 -1.1867
14242SOL    HW249332   0.902   2.760  11.481 -0.5704  0.7126 -1.7077
14243SOL     OW49333   6.018   1.655   0.743  0.3840 -0.4081  0.5837
14243SOL    HW149334   6.020   1.711   0.821 -0.5832 -0.9836  1.0399
14243SOL    HW249335   6.031   1.714   0.670  1.3675  0.1435  1.1728
14244SOL     OW49336   5.725   3.482   2.061  0.1568 -0.1177 -0.2342
14244SOL    HW149337   5.763   3.473   2.149  0.3807  0.7484 -0.2411
14244SOL    HW249338   5.661   3.410   2.056  0.2194 -0.2424  0.5982
14245SOL     OW49339   6.178   4.667   3.867 -0.1045  0.0670  0.6330
14245SOL    HW149340   6.093   4.624   3.867  0.0143 -0.2879  3.2762
14245SOL    HW249341   6.235   4.608   3.818 -0.7299 -1.1394  1.3289
14246SOL     OW49342   9.829   0.131   6.499  0.0019 -0.1042 -0.1898
14246SOL    HW149343   9.830   0.095   6.411  2.5311 -2.1952  0.5851
14246SOL    HW249344   9.837   0.055   6.557 -2.2870  1.1193  1.9697
14247SOL     OW49345   0.978   3.706  11.070  0.7835  0.1983  0.6110
14247SOL    HW149346   1.060   3.754  11.058  0.2538  0.9201 -0.2674
14247SOL    HW249347   0.917   3.770  11.107  1.4398 -1.1404  4.4188
14248SOL     OW49348   5.163   1.758   3.355  0.0012 -0.4948  0.0248
14248SOL    HW149349   5.093   1.822   3.338 -0.1811 -0.8815 -0.7036
14248SOL    HW249350   5.156   1.695   3.283  0.4193 -1.1321  0.5361
14249SOL     OW49351   2.362   5.554   8.396  0.2195  0.1375  0.0045
14249SOL    HW149352   2.362   5.562   8.300 -1.1509 -1.8548 -0.2322
14249SOL    HW249353   2.282   5.598   8.424 -0.9842 -1.8640 -0.1200
14250SOL     OW49354   8.673  12.172   3.437  0.1816 -0.5832 -0.3528
14250SOL    HW149355   8.709  12.247   3.391 -0.4432  0.5004  0.8538
14250SOL    HW249356   8.586  12.160   3.399  0.3946 -0.8925 -0.7496
14251SOL     OW49357   0.391   7.042  11.986 -0.5540 -0.1359 -0.4623
14251SOL    HW149358   0.391   7.134  11.960  0.0692  0.4247  1.3917
14251SOL    HW249359   0.479   7.011  11.965  0.0902  0.4334  1.2474
14252SOL     OW49360   1.733   4.598   3.946 -0.5662 -0.1394  0.1884
14252SOL    HW149361   1.780   4.515   3.953 -0.1191  0.1187  0.2799
14252SOL    HW249362   1.793   4.662   3.982 -0.5865  0.3486 -0.6308
14253SOL     OW49363   3.985   4.853   2.928  0.0166 -0.5478 -0.0567
14253SOL    HW149364   3.924   4.783   2.951 -0.0076 -0.4669  0.1290
14253SOL    HW249365   3.938   4.934   2.948  0.6984 -0.4954  1.4641
14254SOL     OW49366   6.397   4.661   5.494  0.0371 -0.0999  0.3509
14254SOL    HW149367   6.322   4.653   5.552 -0.1277  0.9341  0.3038
14254SOL    HW249368   6.464   4.704   5.547  0.4269 -0.5839  0.2493
14255SOL     OW49369   8.251   0.647   4.164 -0.3020  0.1143  0.1285
14255SOL    HW149370   8.299   0.564   4.155 -0.8776 -0.6161  2.7770
14255SOL    HW249371   8.275   0.678   4.251 -1.8584  1.5716  0.0729
14256SOL     OW49372   4.571   5.489  10.057 -0.0848  0.5030  0.1542
14256SOL    HW149373   4.515   5.508  10.132  1.0114 -0.4995  1.2659
14256SOL    HW249374   4.621   5.412  10.083  0.0610 -0.1106 -1.7619
14257SOL     OW49375   1.690   4.093   4.081 -0.4817  0.2701  0.1427
14257SOL    HW149376   1.739   4.011   4.077  0.5736  0.8894 -0.3167
14257SOL    HW249377   1.666   4.111   3.990 -0.8324  0.3936  0.2589
14258SOL     OW49378   8.385  10.982   8.900 -0.4627  0.4769 -0.4788
14258SOL    HW149379   8.318  10.951   8.960 -0.7257  0.2249 -0.8973
14258SOL    HW249380   8.369  10.934   8.819 -0.5893  1.3729 -0.9974
14259SOL     OW49381   1.287  12.002   1.402  0.3324 -0.5434 -0.3834
14259SOL    HW149382   1.316  11.953   1.478  1.2135 -0.0339 -0.3730
14259SOL    HW249383   1.200  12.033   1.425  0.8338  0.1422  0.7010
14260SOL     OW49384  10.235  11.584  11.857  0.1646  0.2986  0.0073
14260SOL    HW149385  10.321  11.606  11.823  0.4701 -0.3445  0.3445
14260SOL    HW249386  10.249  11.506  11.910 -1.2265 -2.3288 -3.1297
14261SOL     OW49387   8.063  11.759   1.815  0.6357  0.1436 -0.4825
14261SOL    HW149388   8.019  11.772   1.898 -0.1728 -0.3263 -0.8180
14261SOL    HW249389   8.087  11.846   1.786  0.9273  0.3092  0.2406
14262SOL     OW49390   4.448   8.153   0.452 -0.0426 -0.0943  0.1357
14262SOL    HW149391   4.407   8.211   0.388 -0.4611  0.6631  1.0764
14262SOL    HW249392   4.512   8.103   0.401 -0.1056  0.7560 -0.8056
14263SOL     OW49393   9.416  11.024   9.994  0.2844 -0.8130  0.1466
14263SOL    HW149394   9.406  11.071  10.077  0.3134 -4.3301  2.3710
14263SOL    HW249395   9.336  11.043   9.946  0.0903  1.0407  1.1077
14264SOL     OW49396  11.840  10.020   0.087 -0.2545 -0.3325 -0.0511
14264SOL    HW149397  11.806   9.936   0.057 -2.4655  1.1866 -2.2577
14264SOL    HW249398  11.891  10.053   0.012 -0.2297  0.7115  0.4083
14265SOL     OW49399   9.865   7.201   9.843  0.1876 -0.5550  0.3180
14265SOL    HW149400   9.800   7.230   9.908  0.5898 -0.1550  0.5434
14265SOL    HW249401   9.867   7.272   9.778  0.3427 -0.6010  0.2724
14266SOL     OW49402   7.003   0.950   5.036 -0.4435  0.1245  0.2647
14266SOL    HW149403   6.968   0.886   5.098  0.2145 -1.5799 -1.0620
14266SOL    HW249404   7.096   0.956   5.057 -0.2501 -0.3385 -0.4350
14267SOL     OW49405   6.730   5.098   1.370 -0.4476  0.2118 -0.2030
14267SOL    HW149406   6.654   5.068   1.420  0.3968 -1.0345  0.3540
14267SOL    HW249407   6.724   5.051   1.287  0.1886 -0.5603  0.1826
14268SOL     OW49408   0.681  10.868  11.292  0.0212 -0.3731 -0.0920
14268SOL    HW149409   0.713  10.843  11.379  0.5258  1.3591  0.2555
14268SOL    HW249410   0.587  10.849  11.295 -0.4308  1.6623  1.6622
14269SOL     OW49411   0.617   0.043   5.825  0.0086  0.1801 -0.2481
14269SOL    HW149412   0.556   0.023   5.896  1.6269 -0.9931  0.8804
14269SOL    HW249413   0.594  -0.019   5.756  0.6221 -1.0157  0.6019
14270SOL     OW49414   8.322   9.981   8.024 -0.6206 -0.5794  0.4666
14270SOL    HW149415   8.405   9.934   8.010  1.0957  2.1521  0.8030
14270SOL    HW249416   8.287   9.995   7.937 -0.1033 -0.7000  0.2367
14271SOL     OW49417  12.486   1.184  11.533 -0.2399  0.0591 -0.2165
14271SOL    HW149418  12.470   1.174  11.439 -2.1789  0.5700  0.0076
14271SOL    HW249419  12.519   1.274  11.542  0.4165 -0.1565 -0.4544
14272SOL     OW49420   4.097   4.619  11.455 -0.3633 -0.0042  0.3184
14272SOL    HW149421   4.118   4.580  11.370  2.0193 -0.1264  0.9076
14272SOL    HW249422   4.085   4.544  11.513  1.7197  0.0618  0.8870
14273SOL     OW49423   1.960  12.722   0.322  0.1960 -0.7703  0.4610
14273SOL    HW149424   1.963  12.632   0.355 -0.4799 -1.7372 -1.9001
14273SOL    HW249425   1.866  12.743   0.320  0.2893 -0.3804  0.1299
14274SOL     OW49426   9.692   0.066  11.757  0.3120  0.2123 -0.0583
14274SOL    HW149427   9.741   0.130  11.809  1.6788 -0.2943 -0.6879
14274SOL    HW249428   9.612   0.113  11.731  1.2470  1.6481 -0.4489
14275SOL     OW49429   5.009   5.054   3.765 -0.2141 -0.0279  0.2474
14275SOL    HW149430   5.027   5.009   3.848 -0.4831 -0.5145  0.0438
14275SOL    HW249431   5.066   5.012   3.701 -3.6779 -3.3874 -0.9877
14276SOL     OW49432   2.228  11.717   8.812  0.0940 -0.0802  0.4633
14276SOL    HW149433   2.293  11.660   8.852 -1.0446  0.9430  4.2488
14276SOL    HW249434   2.266  11.804   8.815 -0.5163  0.1963  0.4793
14277SOL     OW49435  12.459   4.211   3.639 -0.2765 -0.0556 -0.1000
14277SOL    HW149436  12.495   4.125   3.658  0.0947 -0.0820 -0.9066
14277SOL    HW249437  12.384   4.194   3.581 -1.6753 -0.0094  1.5882
14278SOL     OW49438   0.512   2.174   8.342 -0.4278  0.6569  0.0400
14278SOL    HW149439   0.542   2.186   8.432 -0.7648 -0.1000  0.2645
14278SOL    HW249440   0.565   2.101   8.310 -1.4856 -0.2048  0.1973
14279SOL     OW49441   4.060   5.231   8.657  0.1396 -0.0288  0.1877
14279SOL    HW149442   3.975   5.268   8.636 -1.0330 -2.7580 -0.3016
14279SOL    HW249443   4.121   5.275   8.597 -1.2824  0.3818 -1.0075
14280SOL     OW49444   2.837  10.844   3.964  0.1608 -0.6440 -0.2746
14280SOL    HW149445   2.802  10.926   4.001 -2.1403 -1.8075  0.3227
14280SOL    HW249446   2.836  10.782   4.037  2.8398 -1.0150 -0.4571
14281SOL     OW49447  10.981   5.145  11.881 -0.5484  0.1337  0.3716
14281SOL    HW149448  10.937   5.136  11.965 -0.9534  0.5284  0.2066
14281SOL    HW249449  10.977   5.239  11.862 -0.2299  0.0828  0.0348
14282SOL     OW49450   5.232  11.450   4.667  0.4522  0.3387  0.1243
14282SOL    HW149451   5.182  11.518   4.712  1.2026  1.2278 -0.3443
14282SOL    HW249452   5.180  11.371   4.679 -0.9053  1.1573 -0.0878
14283SOL     OW49453   2.311   3.680   3.598  0.1489 -0.2417  0.1234
14283SOL    HW149454   2.380   3.730   3.555 -0.1148  2.5593  2.6317
14283SOL    HW249455   2.352   3.646   3.677 -0.4461 -1.6534 -0.1559
14284SOL     OW49456  10.488   1.841   1.897  0.0584 -0.8582  0.0123
14284SOL    HW149457  10.507   1.858   1.990  0.7015 -0.0187 -0.2559
14284SOL    HW249458  10.571   1.811   1.861  0.2590  0.4054 -0.6338
14285SOL     OW49459   3.727   4.964   8.416  0.0309 -0.3305 -0.5686
14285SOL    HW149460   3.743   4.918   8.499 -0.0749 -1.1243 -0.9799
14285SOL    HW249461   3.713   4.894   8.352 -1.7055  0.2785 -0.9023
14286SOL     OW49462   9.043  11.437   8.485 -0.1591 -0.6218  0.1015
14286SOL    HW149463   8.970  11.499   8.495  0.5261  0.2283 -0.0251
14286SOL    HW249464   9.121  11.490   8.501  0.4819 -1.2813 -0.7840
14287SOL     OW49465   0.687  10.200   5.554  0.1905 -0.0504  0.7260
14287SOL    HW149466   0.762  10.173   5.607  1.9771 -1.0216 -2.0629
14287SOL    HW249467   0.669  10.125   5.498 -1.3346  1.0038 -0.2793
14288SOL     OW49468   3.052   9.956   1.422 -0.0514 -0.3052  0.3719
14288SOL    HW149469   3.134   9.911   1.442 -0.0637 -0.4465  0.1138
14288SOL    HW249470   3.012   9.902   1.353 -0.7184 -0.6610  1.0194
14289SOL     OW49471   1.125  12.534   2.655 -0.0807 -0.4770 -0.0757
14289SOL    HW149472   1.122  12.485   2.573 -4.1819 -1.1078  0.2149
14289SOL    HW249473   1.071  12.483   2.716 -0.1240  1.7407  1.9116
14290SOL     OW49474   9.332   1.314   1.430  0.0440 -0.7258 -0.2749
14290SOL    HW149475   9.424   1.318   1.456  0.2773 -1.4679 -0.9792
14290SOL    HW249476   9.305   1.224   1.448 -0.2444 -0.8046 -1.0579
14291SOL     OW49477  10.933   1.623   8.902 -0.4477 -0.1412  0.4949
14291SOL    HW149478  10.959   1.611   8.811  0.0940  1.2793  0.4322
14291SOL    HW249479  10.893   1.540   8.928 -1.5303 -0.2245 -1.3248
14292SOL     OW49480   1.453   6.663   6.662 -0.3144 -0.5703  0.5943
14292SOL    HW149481   1.409   6.700   6.585 -1.1228 -0.9462  0.8697
14292SOL    HW249482   1.395   6.594   6.692 -0.4706  0.1907  2.1158
14293SOL     OW49483   3.259   8.257   2.232 -0.3561 -0.0312  0.1211
14293SOL    HW149484   3.208   8.183   2.267  0.3285 -0.8575 -0.5830
14293SOL    HW249485   3.323   8.275   2.301  0.3349 -0.9893 -0.2432
14294SOL     OW49486   9.636   9.655   5.308 -0.2777  0.3966 -0.3111
14294SOL    HW149487   9.657   9.609   5.227  1.0151 -0.9769  0.7478
14294SOL    HW249488   9.610   9.743   5.279  1.6000  0.4401 -2.1364
14295SOL     OW49489  12.192   2.187   4.403 -0.1552 -0.2385 -0.4228
14295SOL    HW149490  12.198   2.282   4.390 -2.1885 -0.2859 -2.2082
14295SOL    HW249491  12.232   2.172   4.489  0.5052  2.1747 -0.2335
14296SOL     OW49492  11.698  10.940   2.529  0.4357 -0.5612  0.0237
14296SOL    HW149493  11.746  10.949   2.612 -1.8022 -0.4771  1.3933
14296SOL    HW249494  11.677  10.847   2.524  0.0333 -0.4650 -0.1171
14297SOL     OW49495   0.696   2.038   6.017 -0.2598  0.4004  0.3041
14297SOL    HW149496   0.792   2.031   6.019 -0.2754  0.3874  1.2737
14297SOL    HW249497   0.668   1.961   5.966  0.2425  0.4185 -0.0059
14298SOL     OW49498   1.308   7.526   2.191 -0.4327 -0.5375 -0.0543
14298SOL    HW149499   1.384   7.562   2.236 -0.8773  1.3272 -0.7134
14298SOL    HW249500   1.233   7.557   2.241 -0.8198 -1.3701 -0.0981
14299SOL     OW49501   5.883   4.320   2.029  0.0976  0.4034  0.5993
14299SOL    HW149502   5.968   4.276   2.024 -0.3480 -0.3819 -0.5779
14299SOL    HW249503   5.891   4.380   2.103  0.3594 -2.4423  3.0351
14300SOL     OW49504   5.096   5.818   0.678 -0.4213 -0.2369 -0.6368
14300SOL    HW149505   5.121   5.804   0.586 -0.8258 -0.3036 -0.7418
14300SOL    HW249506   5.137   5.902   0.701  1.8766 -1.4481 -0.0591
14301SOL     OW49507   7.797  10.245   1.490  0.9969 -0.2828  0.3210
14301SOL    HW149508   7.768  10.238   1.399  0.4881  0.1737  0.4391
14301SOL    HW249509   7.837  10.160   1.509 -0.8027 -1.1828  0.3269
14302SOL     OW49510   1.176   9.570   2.974  0.1705 -0.2761 -0.3393
14302SOL    HW149511   1.263   9.542   2.945  0.8581  0.3740  1.0474
14302SOL    HW249512   1.165   9.658   2.937  2.0894  1.6372  3.1384
14303SOL     OW49513   8.570   4.719  12.614 -0.0580 -0.3029 -0.0144
14303SOL    HW149514   8.523   4.686  12.538 -2.8165  0.1377  1.3769
14303SOL    HW249515   8.566   4.814  12.605  0.9535 -0.2454 -0.0403
14304SOL     OW49516   9.574   0.912   7.905  0.5190  0.5716 -0.2215
14304SOL    HW149517   9.529   0.981   7.954  0.0506  1.1074 -1.3717
14304SOL    HW249518   9.637   0.959   7.849 -0.5155  0.1957 -1.7732
14305SOL     OW49519   9.817   4.091   3.077  0.1258 -0.1578 -0.0078
14305SOL    HW149520   9.888   4.081   3.140  0.0464 -1.1081 -0.0540
14305SOL    HW249521   9.833   4.021   3.013 -0.0942  0.4641 -0.7437
14306SOL     OW49522   2.837  10.595   4.112 -0.2737  0.3997  0.2839
14306SOL    HW149523   2.839  10.658   4.184 -0.4235  1.1763 -0.3767
14306SOL    HW249524   2.916  10.542   4.125 -0.0013  0.8942  0.7067
14307SOL     OW49525   5.684   2.631   5.672 -0.0320  0.1112  0.4947
14307SOL    HW149526   5.672   2.716   5.714  0.9802  0.2206  0.5922
14307SOL    HW249527   5.597   2.608   5.640 -0.0983  1.8216 -0.7451
14308SOL     OW49528   8.307   1.441  12.326  0.7302 -0.7344 -0.4552
14308SOL    HW149529   8.285   1.372  12.389  0.7783 -0.3944 -0.0560
14308SOL    HW249530   8.223   1.483  12.308  0.4959 -1.6581 -1.6374
14309SOL     OW49531   6.238  12.351   0.771  0.3659 -0.5253  0.0119
14309SOL    HW149532   6.323  12.387   0.748  1.2664 -1.7866  1.2001
14309SOL    HW249533   6.254  12.301   0.851 -1.1486 -2.1240 -0.6158
14310SOL     OW49534   2.305   9.563   4.378  0.3901  0.1442  0.1464
14310SOL    HW149535   2.267   9.581   4.464  1.8497  1.2746  0.5955
14310SOL    HW249536   2.238   9.513   4.332 -1.8661  2.4894  0.6793
14311SOL     OW49537  11.476   2.685   3.619  0.0760  0.4793 -0.3906
14311SOL    HW149538  11.554   2.631   3.635 -0.5859 -0.5755 -0.6558
14311SOL    HW249539  11.461   2.677   3.525 -0.3667  0.6657 -0.3368
14312SOL     OW49540   8.311   7.616   2.331 -0.5358  0.2654  0.6176
14312SOL    HW149541   8.372   7.587   2.399 -0.9900  2.1613  1.9055
14312SOL    HW249542   8.243   7.549   2.330  1.0523 -1.4255 -0.2237
14313SOL     OW49543   6.403  10.934   6.415  0.3188 -0.3396 -0.7066
14313SOL    HW149544   6.316  10.972   6.427  0.3760 -0.8479  2.1676
14313SOL    HW249545   6.408  10.914   6.322 -2.0885  0.9481 -1.2077
14314SOL     OW49546   3.874   1.285   8.885  0.0120  0.0090  0.4686
14314SOL    HW149547   3.778   1.287   8.887 -0.0299  0.9512 -0.9058
14314SOL    HW249548   3.901   1.351   8.948 -0.3089  1.2523 -0.6584
14315SOL     OW49549   4.079   2.415  11.500 -1.0691 -0.3033 -0.0406
14315SOL    HW149550   4.115   2.432  11.413 -1.3238  0.4513 -0.0028
14315SOL    HW249551   4.031   2.333  11.490 -0.3645 -0.6876 -0.3866
14316SOL     OW49552   4.743   5.138  12.077  0.1113 -0.0027  0.1455
14316SOL    HW149553   4.809   5.099  12.134 -0.2442 -0.2212  0.4189
14316SOL    HW249554   4.693   5.063  12.045  0.1072  0.1463 -0.1999
14317SOL     OW49555  12.326   6.532   3.094  0.0780 -0.1365  0.1583
14317SOL    HW149556  12.385   6.522   3.019 -1.3141  1.7099 -1.2958
14317SOL    HW249557  12.370   6.597   3.150  2.1914 -3.0879  2.2433
14318SOL     OW49558   4.237  10.444   5.418  0.8438  0.0430 -0.3905
14318SOL    HW149559   4.264  10.506   5.350  1.8131  2.6799  2.2019
14318SOL    HW249560   4.149  10.472   5.442  0.7806 -0.4169 -0.0848
14319SOL     OW49561   9.322  11.146   3.622  0.2363 -0.1438  0.3191
14319SOL    HW149562   9.304  11.240   3.617  0.6519  0.0068  1.3527
14319SOL    HW249563   9.416  11.140   3.638  0.3917 -0.7816 -0.7036
14320SOL     OW49564   2.704   5.109   1.484  0.0433  0.0912 -0.0244
14320SOL    HW149565   2.744   5.144   1.404 -0.5418  1.0651  0.0898
14320SOL    HW249566   2.704   5.183   1.545 -1.3870 -0.0474  0.1808
14321SOL     OW49567  10.314   5.584  10.522 -0.3933  0.5507 -0.7362
14321SOL    HW149568  10.390   5.529  10.542  0.5736  2.1357  0.1292
14321SOL    HW249569  10.351   5.659  10.475 -1.6736  0.5309 -1.8335
14322SOL     OW49570   7.452   0.616   9.626  0.3438  0.2157 -0.6254
14322SOL    HW149571   7.489   0.583   9.545  0.7856  0.3105 -0.4623
14322SOL    HW249572   7.361   0.636   9.604  0.5966  0.7338 -1.2346
14323SOL     OW49573   6.599  12.574   3.443 -0.8384 -0.5486  0.7388
14323SOL    HW149574   6.524  12.581   3.503 -1.2290 -0.3627  0.2425
14323SOL    HW249575   6.597  12.483   3.414 -0.3034 -0.7900  1.4361
14324SOL     OW49576   8.490   6.441  12.420  0.2726 -0.0701 -0.0739
14324SOL    HW149577   8.439   6.370  12.381 -2.7132  1.2850  1.0746
14324SOL    HW249578   8.441   6.520  12.398  2.1534  1.4147  0.7976
14325SOL     OW49579   0.629   1.671   5.690  0.7455  0.1506  0.1639
14325SOL    HW149580   0.558   1.606   5.694  1.2136 -0.3515  0.5567
14325SOL    HW249581   0.684   1.641   5.618 -0.0846  1.2333 -0.9602
14326SOL     OW49582   4.023   7.686   8.970  0.8736  0.1663  0.1100
14326SOL    HW149583   3.993   7.640   8.891  1.4243 -0.6128  0.3358
14326SOL    HW249584   4.099   7.736   8.941  2.2076 -1.5464  0.4853
14327SOL     OW49585   1.614   6.408  11.377 -0.1821  0.2213  0.1290
14327SOL    HW149586   1.590   6.495  11.343 -0.1870  0.8356  1.6107
14327SOL    HW249587   1.532   6.373  11.411 -0.4348 -0.9253 -1.5492
14328SOL     OW49588   7.263   3.273   3.146  0.2135 -0.0847 -0.2913
14328SOL    HW149589   7.224   3.197   3.190 -1.5993  1.4265  0.8743
14328SOL    HW249590   7.188   3.325   3.117  1.3897  0.3421 -2.8710
14329SOL     OW49591   6.194  10.767   8.139 -0.0375 -0.6625 -0.0804
14329SOL    HW149592   6.288  10.754   8.142  0.0775  0.2641  3.0401
14329SOL    HW249593   6.160  10.719   8.214 -1.9866 -0.2890 -0.6605
14330SOL     OW49594  11.347   4.205  10.255  0.0875  0.4260  0.1560
14330SOL    HW149595  11.317   4.236  10.340  0.4410  0.8688  0.1232
14330SOL    HW249596  11.395   4.279  10.218 -1.4696  0.8487 -1.1512
14331SOL     OW49597   4.584   7.173   9.839 -0.7383 -0.4274  0.3335
14331SOL    HW149598   4.491   7.162   9.817 -0.4379 -1.4975 -0.4867
14331SOL    HW249599   4.588   7.154   9.932 -1.3045 -0.6664  0.3180
14332SOL     OW49600   3.466   7.842   6.882 -0.3019 -0.3641  0.1590
14332SOL    HW149601   3.488   7.793   6.962 -1.9468  0.5396  1.2174
14332SOL    HW249602   3.374   7.821   6.866 -0.6416  1.2849 -0.1650
14333SOL     OW49603   1.357   3.568  11.545 -0.0673  0.3722 -0.1398
14333SOL    HW149604   1.388   3.648  11.589  0.1325 -0.4632  1.3115
14333SOL    HW249605   1.295   3.599  11.480  1.0777  1.8182 -0.5989
14334SOL     OW49606   4.666   6.515  10.463 -0.1846 -0.2648  0.7376
14334SOL    HW149607   4.724   6.584  10.430  1.4736 -0.8045  2.3628
14334SOL    HW249608   4.638   6.546  10.550 -2.5692  0.0699 -0.0571
14335SOL     OW49609  11.157   6.397   9.678  0.3286 -0.0127 -0.1153
14335SOL    HW149610  11.065   6.424   9.666 -0.0730 -1.3127 -0.0853
14335SOL    HW249611  11.186   6.445   9.755 -0.1898  0.7455 -0.3764
14336SOL     OW49612  12.629  12.591   6.513 -0.3895 -0.1108  0.3790
14336SOL    HW149613  12.656  12.650   6.443  0.2870 -0.9076 -0.0507
14336SOL    HW249614  12.675  12.509   6.495 -0.8653 -0.5986  1.2795
14337SOL     OW49615   8.391   9.441  12.314  0.2504 -0.6150 -0.1404
14337SOL    HW149616   8.370   9.373  12.378 -0.1699  0.8174  1.3288
14337SOL    HW249617   8.313   9.498  12.313  2.4441  2.9416  2.9166
14338SOL     OW49618   2.901   1.177   9.483  0.1532  0.0001 -0.1020
14338SOL    HW149619   2.991   1.190   9.452  0.0545  0.6478 -0.1264
14338SOL    HW249620   2.852   1.249   9.444 -0.0145  0.7188  1.4083
14339SOL     OW49621   1.668   9.655  10.095  0.0486 -0.4844  0.0288
14339SOL    HW149622   1.603   9.666  10.026  0.3195 -0.8111 -0.2781
14339SOL    HW249623   1.746   9.698  10.062 -0.0893  0.1812  0.5276
14340SOL     OW49624   8.107   1.468   4.902  0.8514 -0.0899  0.0650
14340SOL    HW149625   8.048   1.393   4.910 -0.6417  1.0870  0.5989
14340SOL    HW249626   8.155   1.470   4.985 -1.1046  1.1106  1.2376
14341SOL     OW49627  10.468  12.147   9.649  0.2732 -0.3339  0.1963
14341SOL    HW149628  10.403  12.194   9.701  0.5327 -0.5130  0.6925
14341SOL    HW249629  10.528  12.110   9.714  1.4251  0.6366 -0.2811
14342SOL     OW49630   3.760   3.442   1.953 -0.3537 -0.3984  0.2319
14342SOL    HW149631   3.825   3.504   1.987  0.3649 -1.8199  1.5908
14342SOL    HW249632   3.812   3.376   1.907 -1.0315 -0.4507 -0.4708
14343SOL     OW49633   4.347   2.573   0.550 -0.0068 -0.0798 -0.8525
14343SOL    HW149634   4.393   2.491   0.567  1.7275  0.5174 -2.3180
14343SOL    HW249635   4.349   2.621   0.633 -0.0477 -1.0421 -0.2909
14344SOL     OW49636   6.783   2.624   9.285 -0.0758  0.2211 -0.1671
14344SOL    HW149637   6.852   2.678   9.246 -0.5240  1.6843  0.9645
14344SOL    HW249638   6.828   2.575   9.354 -0.1349  1.1507  0.5502
14345SOL     OW49639   0.738   3.441  12.473 -0.3199  0.0994  0.0093
14345SOL    HW149640   0.649   3.410  12.460  0.9988 -4.8452  0.7468
14345SOL    HW249641   0.755   3.427  12.566  1.9533 -1.7301 -0.5973
14346SOL     OW49642   3.608  10.961   4.470  0.4497 -0.0632  0.1634
14346SOL    HW149643   3.613  10.966   4.374 -0.1184  0.0078  0.1323
14346SOL    HW249644   3.666  10.889   4.493 -0.3072 -0.8551 -0.3370
14347SOL     OW49645   7.633   4.292   3.933 -0.8034  0.0226 -0.7352
14347SOL    HW149646   7.542   4.306   3.959 -0.7835  1.2420 -1.2296
14347SOL    HW249647   7.635   4.314   3.840  0.0014  0.0656 -0.7185
14348SOL     OW49648  10.068   5.950   0.418 -0.1792  0.2757 -0.3458
14348SOL    HW149649  10.044   6.040   0.397  0.0570  0.3547 -0.2810
14348SOL    HW249650  10.005   5.896   0.369 -1.5433  0.4896  1.0940
14349SOL     OW49651  12.182   6.566   7.312  0.6380 -0.0240 -0.4925
14349SOL    HW149652  12.190   6.542   7.220 -1.8480 -0.5551 -0.6331
14349SOL    HW249653  12.202   6.485   7.359  2.5790  0.4190 -0.4955
14350SOL     OW49654   5.245   6.532   2.449 -0.8659 -0.2563 -0.1011
14350SOL    HW149655   5.268   6.469   2.518 -1.1445 -3.5271 -2.7341
14350SOL    HW249656   5.168   6.577   2.483 -1.2032 -1.9665  1.6191
14351SOL     OW49657   2.316  12.686  10.306  0.5322 -0.3152 -0.1005
14351SOL    HW149658   2.233  12.712  10.265  0.4796 -1.7402 -0.9640
14351SOL    HW249659   2.312  12.591  10.308  2.5686 -0.4563 -1.0224
14352SOL     OW49660   7.397   8.289   8.771 -0.5687  0.4051  0.2008
14352SOL    HW149661   7.422   8.341   8.694  1.2454 -1.3023 -0.4392
14352SOL    HW249662   7.311   8.323   8.795 -0.8434  1.5572 -2.0854
14353SOL     OW49663   6.228  12.149   4.082  0.1153  0.5744 -0.2163
14353SOL    HW149664   6.302  12.108   4.038  0.0647  1.3338 -1.0527
14353SOL    HW249665   6.242  12.132   4.175  0.8722 -0.0336 -0.4345
14354SOL     OW49666  11.956   4.721  11.483  0.0038 -0.1403 -0.4652
14354SOL    HW149667  11.882   4.667  11.511 -0.2599  0.0458 -0.7936
14354SOL    HW249668  12.018   4.659  11.446 -0.3498 -0.2078 -0.9515
14355SOL     OW49669   6.741   1.310   4.425 -0.3430 -0.1048 -0.2153
14355SOL    HW149670   6.702   1.234   4.381  0.4601 -0.3146 -0.5916
14355SOL    HW249671   6.763   1.369   4.353  2.6532 -1.2196 -0.3380
14356SOL     OW49672   8.893   8.995  10.235 -0.6534  0.1113  0.0501
14356SOL    HW149673   8.917   9.003  10.143 -1.8882 -0.4593 -0.3458
14356SOL    HW249674   8.865   9.083  10.261  0.0528  0.3546 -0.0081
14357SOL     OW49675   4.634   3.898   3.741 -0.2812  0.5911 -0.1467
14357SOL    HW149676   4.599   3.827   3.687  0.2164 -1.0031  1.4992
14357SOL    HW249677   4.564   3.917   3.804 -0.4121  1.5986 -0.5778
14358SOL     OW49678   9.909   9.722   2.980  0.2097 -0.0401 -0.4862
14358SOL    HW149679   9.980   9.741   3.042  0.4001 -2.2687  0.0443
14358SOL    HW249680   9.836   9.693   3.035 -0.1316 -0.5646 -1.2092
14359SOL     OW49681  10.216   1.893   6.518  0.3620  0.1173  0.4040
14359SOL    HW149682  10.246   1.983   6.535  1.1352 -0.0785  0.1264
14359SOL    HW249683  10.147   1.878   6.582  1.1645  0.4364  1.3617
14360SOL     OW49684   2.006   8.657   8.505  0.0565  0.2857  0.5497
14360SOL    HW149685   1.942   8.715   8.546 -0.6829 -1.3433  1.7947
14360SOL    HW249686   2.089   8.705   8.511 -0.9145  2.2086 -0.6402
14361SOL     OW49687   6.786  12.474   5.210  0.0116 -0.6876  0.4306
14361SOL    HW149688   6.759  12.535   5.142  1.8834 -0.9390 -0.5904
14361SOL    HW249689   6.754  12.513   5.291 -4.3347 -1.4817 -0.6267
14362SOL     OW49690   2.254   4.470   7.276  0.0840  0.6045 -0.8459
14362SOL    HW149691   2.205   4.489   7.356  0.7586  1.4642 -0.6095
14362SOL    HW249692   2.200   4.506   7.205  0.0206  0.8846 -0.6573
14363SOL     OW49693   2.458  12.101  10.149 -0.3139 -0.5933 -0.2789
14363SOL    HW149694   2.534  12.140  10.106  1.3385 -3.1242  0.1750
14363SOL    HW249695   2.455  12.143  10.235 -0.4298  0.6436 -0.8581
14364SOL     OW49696   8.355  11.202   8.142  0.4665  0.1762  0.3615
14364SOL    HW149697   8.367  11.140   8.214  0.1499  1.5574  1.6611
14364SOL    HW249698   8.443  11.217   8.108  0.7465  0.1790  1.0624
14365SOL     OW49699  11.156  10.166   0.271 -0.3714 -0.3112 -0.0893
14365SOL    HW149700  11.206  10.232   0.317 -2.0256  1.4802 -0.7305
14365SOL    HW249701  11.154  10.091   0.331  1.5644  0.1724  0.6399
14366SOL     OW49702   8.674   5.199  11.211  0.0749  0.6014  0.2287
14366SOL    HW149703   8.630   5.121  11.245  0.6837 -0.0685 -0.4729
14366SOL    HW249704   8.675   5.186  11.116 -0.2534  1.7076  0.0650
14367SOL     OW49705   2.908   1.678  10.961 -0.0797 -0.2934 -0.2977
14367SOL    HW149706   2.942   1.753  10.912 -0.2040  0.3091  0.5247
14367SOL    HW249707   2.899   1.709  11.051 -1.1487 -0.9705 -0.1492
14368SOL     OW49708   1.925   7.904   5.945 -0.1722 -0.9064  0.1558
14368SOL    HW149709   1.948   7.996   5.934  1.2510 -1.4321 -1.9046
14368SOL    HW249710   1.853   7.889   5.883  0.6761 -1.4871 -0.7395
14369SOL     OW49711  12.397   3.758   3.727 -0.0376  0.5171 -0.1721
14369SOL    HW149712  12.380   3.663   3.731 -0.0276  0.4314 -1.6425
14369SOL    HW249713  12.368   3.791   3.812 -0.3741 -0.7575  0.2327
14370SOL     OW49714   3.776   0.407   4.720 -0.2673 -0.4476 -0.1213
14370SOL    HW149715   3.722   0.383   4.644  1.3862 -2.0262 -0.8884
14370SOL    HW249716   3.816   0.490   4.695  0.2230 -0.9258 -0.9760
14371SOL     OW49717  10.427  11.717   8.266 -0.3654 -0.1240  0.6909
14371SOL    HW149718  10.410  11.792   8.323 -0.8089  1.2753 -1.2069
14371SOL    HW249719  10.407  11.748   8.178 -0.7422 -2.5396 -0.1575
14372SOL     OW49720   8.107   1.794   3.529 -0.3537  0.1193 -0.3929
14372SOL    HW149721   8.164   1.842   3.469  1.1832 -0.3031  0.6732
14372SOL    HW249722   8.083   1.715   3.482  0.1196  0.1976 -0.7761
14373SOL     OW49723   3.407   2.184   8.845  0.5153  0.4239 -0.2798
14373SOL    HW149724   3.498   2.205   8.823  0.6761  0.0942  0.0557
14373SOL    HW249725   3.411   2.095   8.878  0.1786  0.6579  0.4102
14374SOL     OW49726   7.608  10.475   3.812 -0.1452  0.4373  0.2381
14374SOL    HW149727   7.608  10.397   3.867 -0.2571  0.1913 -0.1107
14374SOL    HW249728   7.690  10.470   3.763 -0.2579  0.4206  0.0505
14375SOL     OW49729   4.419   8.843   5.547  0.0292  0.4666  0.5044
14375SOL    HW149730   4.329   8.816   5.563 -0.9379  1.7804 -2.1507
14375SOL    HW249731   4.429   8.924   5.597 -0.4434  0.6266  0.3387
14376SOL     OW49732   7.771   2.826   0.876 -0.1639 -0.4679 -0.3080
14376SOL    HW149733   7.726   2.910   0.886 -0.5182 -0.7584  0.5424
14376SOL    HW249734   7.722   2.781   0.807  0.4983  0.3193 -1.3371
14377SOL     OW49735   0.768   8.496   2.758 -0.0986  0.4923 -0.2680
14377SOL    HW149736   0.769   8.589   2.738  0.1541  1.2194  2.6781
14377SOL    HW249737   0.753   8.453   2.674 -0.4316  3.1743 -1.6684
14378SOL     OW49738   0.900  11.596   0.840  0.2294  0.1065 -0.0555
14378SOL    HW149739   0.967  11.658   0.809 -0.3647  0.1265 -1.3211
14378SOL    HW249740   0.920  11.586   0.934  2.1219 -0.0378 -0.4186
14379SOL     OW49741   5.436   3.779   4.822 -0.0414  0.2118 -0.0421
14379SOL    HW149742   5.493   3.846   4.784  0.7346  0.4408  1.4435
14379SOL    HW249743   5.487   3.741   4.893 -0.2789 -2.3260 -1.1120
14380SOL     OW49744   7.507  12.605   5.850  0.3613 -0.3413  0.3925
14380SOL    HW149745   7.500  12.511   5.836  0.3845 -0.1833 -0.8038
14380SOL    HW249746   7.425  12.641   5.817  0.8917  0.1755 -0.3989
14381SOL     OW49747   3.064   0.257   1.820  0.2336 -0.1851 -0.1965
14381SOL    HW149748   2.996   0.224   1.879  0.2419 -0.9736 -0.6248
14381SOL    HW249749   3.133   0.191   1.824  0.3939 -0.0551 -0.8003
14382SOL     OW49750   9.365   8.725   7.245 -0.3134  0.1295 -0.0402
14382SOL    HW149751   9.276   8.709   7.278  0.4512 -0.3947  1.9294
14382SOL    HW249752   9.415   8.650   7.275  0.7914  0.3815 -1.1969
14383SOL     OW49753   5.793   3.165   7.295 -0.5688  0.2200 -0.6638
14383SOL    HW149754   5.774   3.136   7.384  0.5367 -0.8694 -0.7521
14383SOL    HW249755   5.871   3.220   7.303  2.0847 -3.0985 -1.3041
14384SOL     OW49756   7.599   2.434   3.833  0.1769  0.3324  0.0635
14384SOL    HW149757   7.619   2.507   3.893 -1.8566  0.5681  0.5290
14384SOL    HW249758   7.646   2.360   3.870  1.3626  1.1457  0.2459
14385SOL     OW49759   4.697   9.488  11.050  0.2230  0.0435  0.3876
14385SOL    HW149760   4.730   9.577  11.035  0.3242 -0.5161 -4.0583
14385SOL    HW249761   4.776   9.435  11.063  0.2779  0.3177  1.2105
14386SOL     OW49762   9.697   2.738   1.215  0.1577  0.5546  0.0228
14386SOL    HW149763   9.753   2.688   1.275 -1.1289  0.0775  0.8575
14386SOL    HW249764   9.718   2.829   1.233 -0.8941  0.4611  1.9397
14387SOL     OW49765  10.350   8.552   2.152 -0.1723  0.3773 -0.1119
14387SOL    HW149766  10.259   8.574   2.135 -0.3204  0.0402  0.2401
14387SOL    HW249767  10.366   8.472   2.102 -0.3591 -0.1263  0.6229
14388SOL     OW49768   7.787   7.792   1.299 -0.1011  0.6242 -0.2448
14388SOL    HW149769   7.763   7.884   1.308 -0.0602  0.5849  0.2618
14388SOL    HW249770   7.863   7.780   1.355  0.0071  0.3236 -0.4500
14389SOL     OW49771   4.825   4.084   6.137  0.3461 -0.0734 -0.5276
14389SOL    HW149772   4.871   4.164   6.162 -0.6878  0.7217 -1.0887
14389SOL    HW249773   4.824   4.032   6.217  1.6107  0.1639 -0.3250
14390SOL     OW49774   4.898  10.692   8.425  0.4591  0.0451 -0.3077
14390SOL    HW149775   4.961  10.744   8.476 -0.1728  1.3368 -0.8017
14390SOL    HW249776   4.831  10.667   8.489  0.0783  0.9931 -0.3154
14391SOL     OW49777   8.812   0.599   6.146  0.7954  0.1872 -0.2913
14391SOL    HW149778   8.849   0.647   6.220 -1.9454  0.6134  0.9202
14391SOL    HW249779   8.838   0.651   6.070 -0.1036  2.3618  0.7816
14392SOL     OW49780   5.691   5.585   8.626 -0.7366 -0.2788  0.5760
14392SOL    HW149781   5.642   5.609   8.704  0.4429 -1.5449  1.7546
14392SOL    HW249782   5.782   5.601   8.649 -0.3929 -0.3217 -0.6773
14393SOL     OW49783   6.215  11.291   3.407 -0.5157 -0.6538 -0.0078
14393SOL    HW149784   6.128  11.268   3.375 -0.7778  0.4483 -0.0933
14393SOL    HW249785   6.203  11.372   3.455  0.9961  1.5632 -3.0443
14394SOL     OW49786   2.130  10.965   2.417  0.0002 -0.5203 -0.4454
14394SOL    HW149787   2.122  11.041   2.359  0.6438 -0.4013 -0.3829
14394SOL    HW249788   2.221  10.966   2.446 -0.0045 -1.2848 -0.3928
14395SOL     OW49789   7.407   4.747   3.259  0.1724  0.4764 -0.3895
14395SOL    HW149790   7.379   4.700   3.181 -0.8490 -0.4380  0.4957
14395SOL    HW249791   7.390   4.686   3.331 -1.4951  2.2848  0.8421
14396SOL     OW49792   7.826   5.868   8.622 -0.0815 -0.6445 -0.2996
14396SOL    HW149793   7.782   5.885   8.539 -0.2693 -1.1302 -0.3006
14396SOL    HW249794   7.842   5.774   8.622 -0.1166 -0.6546  0.2330
14397SOL     OW49795   9.325  10.037   5.246 -0.2800  0.1754 -0.0917
14397SOL    HW149796   9.366  10.119   5.219  1.3418 -1.0958 -1.6496
14397SOL    HW249797   9.311  10.048   5.340  1.1710  1.7049 -0.0027
14398SOL     OW49798  12.363  10.557   8.351 -0.0438  0.4809 -0.0825
14398SOL    HW149799  12.423  10.616   8.397  0.6682 -0.8935  0.8251
14398SOL    HW249800  12.278  10.574   8.390  0.0433  1.2653 -0.2075
14399SOL     OW49801  11.260   1.070   4.138 -0.0357 -0.7209  1.1550
14399SOL    HW149802  11.225   0.981   4.128 -1.2894 -0.3054  1.6439
14399SOL    HW249803  11.350   1.064   4.106 -0.6134 -1.7922 -0.3717
14400SOL     OW49804  11.984   6.784   5.245  0.0822  0.2724 -0.0970
14400SOL    HW149805  11.892   6.792   5.218  0.3807  0.9261 -0.9566
14400SOL    HW249806  12.033   6.830   5.178  1.0246  0.2320  0.5424
14401SOL     OW49807   8.137  10.072   5.190 -0.6001  1.0935  0.1305
14401SOL    HW149808   8.125  10.161   5.155  0.6775  1.2566  0.0853
14401SOL    HW249809   8.110  10.014   5.119 -0.5105  1.4401 -0.1902
14402SOL     OW49810   3.885   9.424   2.238  0.0163  0.4485  0.0918
14402SOL    HW149811   3.905   9.333   2.217  2.8987  1.1505 -0.6722
14402SOL    HW249812   3.832   9.455   2.164 -0.3920 -0.3818  0.0220
14403SOL     OW49813   0.251   1.978   2.556  0.3581 -0.0352  0.8744
14403SOL    HW149814   0.344   1.954   2.565  0.2677 -1.1834 -0.8208
14403SOL    HW249815   0.206   1.926   2.623  0.6378 -1.7532 -0.1984
14404SOL     OW49816   4.453   1.996   8.412  0.2408  0.4847  0.0821
14404SOL    HW149817   4.362   1.975   8.388  0.5727 -0.9577 -0.0122
14404SOL    HW249818   4.470   1.942   8.489  1.3966 -0.1877 -0.6140
14405SOL     OW49819   1.384   3.448   5.614  0.1774 -0.7399  0.0256
14405SOL    HW149820   1.464   3.447   5.561  0.8357 -1.3415  0.9925
14405SOL    HW249821   1.326   3.387   5.570 -0.0194  0.1908 -1.0546
14406SOL     OW49822   9.607   5.168  10.324  0.0898  0.0598  0.2151
14406SOL    HW149823   9.519   5.181  10.289 -0.3529 -0.4221  1.1181
14406SOL    HW249824   9.651   5.114  10.259 -0.8563 -1.1774  0.5525
14407SOL     OW49825   2.086   0.033  10.208 -0.2506 -0.5652  0.4235
14407SOL    HW149826   2.032  -0.045  10.200  1.9281 -1.9672 -1.9729
14407SOL    HW249827   2.047   0.096  10.148  0.6162 -1.5414 -1.2351
14408SOL     OW49828  12.702   5.269   7.470  0.1587 -0.3276 -0.0905
14408SOL    HW149829  12.744   5.184   7.456 -1.7480 -1.1544 -1.1907
14408SOL    HW249830  12.740   5.326   7.402  1.1456 -0.3758  0.3950
14409SOL     OW49831   4.738   8.019  11.318  0.2146 -0.2953 -0.3907
14409SOL    HW149832   4.683   7.959  11.268 -0.0291  0.3948 -0.9665
14409SOL    HW249833   4.824   7.976  11.319 -0.6078 -2.1116  1.7848
14410SOL     OW49834  10.503   9.397   3.405 -0.2315  0.2283  0.0883
14410SOL    HW149835  10.470   9.358   3.486  1.2704 -1.5681 -0.0846
14410SOL    HW249836  10.447   9.361   3.337  0.9832 -1.5664 -0.0409
14411SOL     OW49837   2.399   5.111  11.904 -0.2152  0.0830  0.1989
14411SOL    HW149838   2.490   5.118  11.877 -0.4596 -0.6958 -0.8743
14411SOL    HW249839   2.358   5.191  11.872  0.1424  0.5725  0.9408
14412SOL     OW49840   3.137   6.288   9.383  0.3275  0.2924  0.0504
14412SOL    HW149841   3.135   6.366   9.438  0.5459  1.1321 -1.1193
14412SOL    HW249842   3.124   6.320   9.294  0.9926 -0.9400 -0.5152
14413SOL     OW49843   4.344   5.394   6.630 -0.3239  0.5049  0.3992
14413SOL    HW149844   4.315   5.447   6.705 -0.6843 -0.1256  0.7106
14413SOL    HW249845   4.329   5.450   6.554 -0.7476  0.8334  0.7192
14414SOL     OW49846   6.237   0.638   8.687 -0.2372  0.8568  0.0459
14414SOL    HW149847   6.185   0.643   8.767 -1.5055  0.3564 -0.7150
14414SOL    HW249848   6.176   0.661   8.617 -0.2746 -2.3657 -1.1853
14415SOL     OW49849  11.400  10.926   6.710  0.3485  0.2765 -0.1667
14415SOL    HW149850  11.479  10.872   6.705  1.3752  1.3446  2.5850
14415SOL    HW249851  11.328  10.863   6.714  1.2417 -0.7811 -0.1643
14416SOL     OW49852   1.283   4.122  10.983  0.1915  0.1929  0.3422
14416SOL    HW149853   1.366   4.155  11.016  0.5478 -0.3609  0.0132
14416SOL    HW249854   1.218   4.186  11.013  0.9731  1.7091 -1.0747
14417SOL     OW49855   9.408  10.006   0.760 -0.1686  0.8115 -0.2491
14417SOL    HW149856   9.444  10.040   0.842  0.8821 -0.6509 -0.0545
14417SOL    HW249857   9.480  10.012   0.697 -0.4058  0.2753 -0.5836
14418SOL     OW49858   2.867   8.469   3.196 -0.7176 -0.0907 -0.0054
14418SOL    HW149859   2.875   8.400   3.130  0.1056  1.0111 -1.1307
14418SOL    HW249860   2.866   8.423   3.280 -1.4592 -1.5218 -0.7582
14419SOL     OW49861   4.193   2.887   1.584 -0.2496 -0.1209 -0.0181
14419SOL    HW149862   4.115   2.934   1.611 -0.9715 -1.1188 -0.3167
14419SOL    HW249863   4.251   2.954   1.550 -1.2180  0.5579 -0.3582
14420SOL     OW49864   0.927  10.725   7.996 -0.0013  0.1014  0.0862
14420SOL    HW149865   0.983  10.784   8.045 -0.1980  0.4181 -0.0648
14420SOL    HW249866   0.928  10.759   7.906 -0.8919  0.4550  0.2032
14421SOL     OW49867  10.513  11.208   3.806 -0.6301  0.1596 -0.0696
14421SOL    HW149868  10.502  11.303   3.812 -0.0869  0.2069  0.3316
14421SOL    HW249869  10.428  11.172   3.830 -0.4904  0.5236  0.9955
14422SOL     OW49870   0.878   7.456   9.580  0.0493 -0.1316 -0.1809
14422SOL    HW149871   0.904   7.366   9.560 -1.3185 -0.6441  0.1987
14422SOL    HW249872   0.861   7.495   9.495 -1.0995 -0.8195 -0.2968
14423SOL     OW49873   7.267  11.230   8.223 -0.3366 -0.1821 -0.3691
14423SOL    HW149874   7.240  11.259   8.136  0.1527  0.6432 -0.2554
14423SOL    HW249875   7.186  11.208   8.268 -0.7927  1.6277 -0.2462
14424SOL     OW49876   3.899   4.013   1.391  0.2748 -0.4295 -0.0963
14424SOL    HW149877   3.955   3.935   1.388  1.7446  0.5875 -0.4018
14424SOL    HW249878   3.861   4.019   1.303  0.4304 -0.6042 -0.1759
14425SOL     OW49879   5.913   9.990   6.902 -0.3613  0.0064  0.1352
14425SOL    HW149880   5.904  10.030   6.816  1.7878  0.7700  0.2186
14425SOL    HW249881   5.879  10.055   6.963  0.6853  0.6402  0.0595
14426SOL     OW49882   3.869   4.632   7.547 -0.2577 -0.3054 -0.4373
14426SOL    HW149883   3.799   4.697   7.541 -1.2958 -1.1586  1.5650
14426SOL    HW249884   3.929   4.654   7.475 -1.6666  1.5209 -1.1151
14427SOL     OW49885   4.640  10.546   1.296  0.3163  0.0213 -0.1807
14427SOL    HW149886   4.590  10.620   1.261  0.7993  0.6918  0.5049
14427SOL    HW249887   4.625  10.475   1.234  0.5440  0.9451 -1.3263
14428SOL     OW49888   1.378  12.275  12.783 -0.0560 -0.0539  0.9761
14428SOL    HW149889   1.379  12.190  12.738  0.2647 -0.5475  1.8995
14428SOL    HW249890   1.340  12.335  12.719  0.8371 -0.6388 -0.1448
14429SOL     OW49891   4.476   5.418   8.396 -0.2358 -0.5701 -0.2388
14429SOL    HW149892   4.520   5.421   8.481  0.8541 -0.3819 -0.7974
14429SOL    HW249893   4.469   5.510   8.370 -0.2675 -0.6487 -0.5080
14430SOL     OW49894  12.683   3.482   2.132  0.5987 -0.0647  0.6929
14430SOL    HW149895  12.736   3.546   2.086  0.6034 -0.6415 -0.1181
14430SOL    HW249896  12.621   3.535   2.183 -0.6058  0.6265 -1.3462
14431SOL     OW49897   8.152   8.627   3.761 -0.3990  0.3684  0.5913
14431SOL    HW149898   8.214   8.581   3.704 -0.4919  1.5206 -0.4911
14431SOL    HW249899   8.196   8.710   3.781  0.0932 -0.4110  3.1163
14432SOL     OW49900   2.649   2.560   4.013  0.0496 -0.0598 -0.0960
14432SOL    HW149901   2.714   2.524   4.073 -0.5272  0.0469  0.6038
14432SOL    HW249902   2.660   2.508   3.933 -0.1752 -1.2202  0.5943
14433SOL     OW49903   6.517   0.265   9.751  0.6323 -0.2492 -0.6956
14433SOL    HW149904   6.528   0.358   9.730  0.1643  0.4713  1.8569
14433SOL    HW249905   6.606   0.233   9.765  0.7327  0.1531 -0.3871
14434SOL     OW49906   6.832   2.258   4.485 -0.1820 -0.2009  0.8379
14434SOL    HW149907   6.737   2.275   4.483 -0.0400  0.6711 -1.9508
14434SOL    HW249908   6.864   2.315   4.556 -1.6239  0.1132  1.2875
14435SOL     OW49909   5.129   0.996   2.997  0.0195 -0.3202 -0.8027
14435SOL    HW149910   5.132   1.022   3.089  0.1284  0.6815 -1.0692
14435SOL    HW249911   5.185   1.060   2.953 -2.0033  0.7835 -1.9093
14436SOL     OW49912   3.644   2.665   4.443 -0.3485  0.1915  0.1070
14436SOL    HW149913   3.641   2.570   4.460 -0.8093  0.1462 -0.2033
14436SOL    HW249914   3.553   2.689   4.427 -0.5404  1.0823  2.2046
14437SOL     OW49915  12.258   3.195   6.013  0.4596 -0.3017  0.2986
14437SOL    HW149916  12.306   3.259   5.961  0.3777  0.2196  0.8469
14437SOL    HW249917  12.166   3.210   5.992  0.4613 -0.5134  0.1285
14438SOL     OW49918   2.490   1.613   6.211  0.4190  0.2373 -0.0103
14438SOL    HW149919   2.429   1.681   6.182 -0.2597 -0.6345 -0.7230
14438SOL    HW249920   2.436   1.556   6.266  0.5669 -0.5628 -0.6773
14439SOL     OW49921   8.973   3.941  11.187  0.0140 -0.5925  0.1645
14439SOL    HW149922   8.987   4.032  11.162 -2.1881 -0.3624 -0.4906
14439SOL    HW249923   8.930   3.945  11.272 -1.5058 -0.8947 -0.5501
14440SOL     OW49924  10.338  12.446  12.247  0.2422 -0.8756  0.2543
14440SOL    HW149925  10.311  12.376  12.306  0.8708 -2.0590 -0.8022
14440SOL    HW249926  10.321  12.411  12.159  0.2376  0.4457 -0.2966
14441SOL     OW49927   9.234   9.177   7.397 -0.0852  0.3198 -0.1573
14441SOL    HW149928   9.145   9.165   7.431 -0.2647 -0.2808 -0.8325
14441SOL    HW249929   9.242   9.114   7.326  1.2618 -0.4217  0.5970
14442SOL     OW49930   3.217   0.189  12.294 -0.2765 -0.0909  0.3648
14442SOL    HW149931   3.305   0.220  12.318 -1.1117  3.1420 -0.2505
14442SOL    HW249932   3.231   0.101  12.259  3.0484  1.0992 -1.7235
14443SOL     OW49933   6.067  11.337  12.663 -0.3737 -0.4617  0.2069
14443SOL    HW149934   6.044  11.278  12.734 -0.3415 -2.5423 -1.4312
14443SOL    HW249935   6.066  11.283  12.585  1.0952  1.3942 -1.2017
14444SOL     OW49936   2.017   1.793   5.064  0.1229 -0.2756  0.4842
14444SOL    HW149937   2.055   1.870   5.107 -0.8044  1.0530 -0.9737
14444SOL    HW249938   2.052   1.795   4.975 -0.3053 -1.2541  0.2815
14445SOL     OW49939   1.703   2.163   6.805  0.0225 -0.0967 -0.1492
14445SOL    HW149940   1.683   2.087   6.751 -1.6546 -0.4304  0.8719
14445SOL    HW249941   1.670   2.238   6.756  1.9371  0.0730 -1.2921
14446SOL     OW49942   6.846  10.893   6.118 -0.2373 -0.3201 -0.0293
14446SOL    HW149943   6.793  10.844   6.055 -0.0804  0.9662 -1.1961
14446SOL    HW249944   6.924  10.919   6.069  0.0776  0.3662  0.8057
14447SOL     OW49945   5.425   7.451  11.960  0.1120  0.0366  0.1675
14447SOL    HW149946   5.391   7.532  11.997  0.7182  0.7194 -0.7058
14447SOL    HW249947   5.348   7.406  11.926 -0.1100  0.8601 -0.4679
14448SOL     OW49948   9.645   5.035  11.218 -0.1292  0.1345 -0.5069
14448SOL    HW149949   9.577   5.101  11.232  0.7687  0.8607  0.5866
14448SOL    HW249950   9.597   4.952  11.216 -1.1667  0.7180 -0.9078
14449SOL     OW49951   8.731  10.088  11.567  0.1493  0.9331  0.2521
14449SOL    HW149952   8.715  10.099  11.661  0.4632  0.3297  0.3856
14449SOL    HW249953   8.761   9.997  11.559 -3.7689 -0.4627 -0.9500
14450SOL     OW49954  11.550   5.833   4.066  0.1449  0.2322 -0.2641
14450SOL    HW149955  11.466   5.874   4.084  0.5541  1.6302 -1.3687
14450SOL    HW249956  11.572   5.785   4.146 -1.7093 -0.2171  0.0128
14451SOL     OW49957  11.202  10.143  12.565  1.0684 -0.1358  0.0567
14451SOL    HW149958  11.110  10.144  12.538  0.6240  1.1328  1.5009
14451SOL    HW249959  11.212  10.219  12.621  3.1823  0.1275 -0.5637
14452SOL     OW49960   3.984  12.138   4.810 -0.4684 -0.3859  0.7472
14452SOL    HW149961   3.962  12.049   4.781 -0.5952  0.1890 -1.0660
14452SOL    HW249962   4.079  12.136   4.821 -0.1560 -0.2301 -1.4285
14453SOL     OW49963   4.794   4.866   5.653 -0.5101  0.4504 -0.1626
14453SOL    HW149964   4.791   4.772   5.636  0.7969  0.2444  0.5763
14453SOL    HW249965   4.887   4.888   5.650 -0.7043  1.5035  0.7721
14454SOL     OW49966  11.980  12.162  12.716  0.2030 -0.2896 -0.4106
14454SOL    HW149967  12.047  12.222  12.684 -1.1548  0.2732 -2.3505
14454SOL    HW249968  12.015  12.075  12.700  0.8097 -0.0075 -0.6214
14455SOL     OW49969  10.979   8.914   0.019  0.4375  0.2803 -0.4261
14455SOL    HW149970  11.030   8.892  -0.059  0.9530 -2.8373  0.6569
14455SOL    HW249971  11.044   8.917   0.089 -0.3862 -0.0671  0.3606
14456SOL     OW49972   8.271   7.027   5.011  0.4483 -0.2156  0.4531
14456SOL    HW149973   8.340   7.086   4.982  0.8515 -0.4837  0.8398
14456SOL    HW249974   8.228   6.999   4.931  1.2718 -0.6219  0.1380
14457SOL     OW49975  10.242   3.180   3.431  0.3124  0.0009 -0.2493
14457SOL    HW149976  10.172   3.157   3.369 -0.9570  0.2257  1.0280
14457SOL    HW249977  10.309   3.114   3.418 -0.2540 -0.3725 -1.3583
14458SOL     OW49978   8.273   9.338  10.713 -0.1814 -0.5502  0.6270
14458SOL    HW149979   8.251   9.316  10.622 -1.3937  0.2984  0.6875
14458SOL    HW249980   8.298   9.255  10.752  1.1864 -0.8040 -0.6922
14459SOL     OW49981   3.070  10.152   4.073  0.4866  0.6181  0.5080
14459SOL    HW149982   3.004  10.160   4.004  1.2802 -1.6998 -0.6332
14459SOL    HW249983   3.062  10.062   4.104  3.1347  0.2077  0.2557
14460SOL     OW49984  10.388   4.743   9.465  0.1842 -0.4407  0.0844
14460SOL    HW149985  10.389   4.788   9.549  0.1663 -0.4695  0.0999
14460SOL    HW249986  10.415   4.810   9.402  1.9080 -0.8568  0.3267
14461SOL     OW49987   6.985   1.356   5.562  0.2251 -0.3258  0.5415
14461SOL    HW149988   6.956   1.294   5.495 -0.1337  0.9147 -0.4835
14461SOL    HW249989   7.068   1.390   5.529 -0.4054  0.9854  0.2334
14462SOL     OW49990   9.717  11.858   3.262 -0.1950  0.1920 -0.0031
14462SOL    HW149991   9.655  11.851   3.189 -0.4685  0.9318  0.1506
14462SOL    HW249992   9.750  11.769   3.274 -1.7629 -0.3720  0.3754
14463SOL     OW49993   8.253   3.672   4.855 -0.0103 -0.0654  0.3825
14463SOL    HW149994   8.213   3.589   4.880  0.9640 -0.7056 -0.1464
14463SOL    HW249995   8.319   3.649   4.790  0.0745  1.1577  0.0105
14464SOL     OW49996   8.499   4.106   0.440  0.3187 -0.0425 -0.3169
14464SOL    HW149997   8.424   4.149   0.398 -0.7433  0.4400  1.9028
14464SOL    HW249998   8.459   4.043   0.500  1.6399  0.9112  1.6424
14465SOL     OW49999   8.323   4.666   9.074 -0.4047 -0.2463  0.3239
14465SOL    HW150000   8.232   4.669   9.105 -0.4547  0.6550  0.1203
14465SOL    HW250001   8.318   4.702   8.985  0.1806 -0.0131  0.3840
14466SOL     OW50002   4.415  12.031   5.838 -0.0021  0.1068  0.1821
14466SOL    HW150003   4.333  12.056   5.794 -0.3847 -1.6342 -0.1547
14466SOL    HW250004   4.439  11.948   5.798 -0.2791 -1.5271  3.1198
14467SOL     OW50005  11.370   8.694   4.792 -0.0640  0.0080 -0.2472
14467SOL    HW150006  11.330   8.682   4.706 -0.0980 -0.2341 -0.2005
14467SOL    HW250007  11.306   8.658   4.853 -0.1061  0.3213 -0.1071
14468SOL     OW50008   2.549   5.036  10.168 -0.3405  0.3604  0.0391
14468SOL    HW150009   2.454   5.044  10.161 -0.5318 -1.5705 -0.1539
14468SOL    HW250010   2.569   4.948  10.133  1.5302  0.7827 -0.0936
14469SOL     OW50011  12.165  11.983   4.532 -0.0804 -0.1109 -0.5459
14469SOL    HW150012  12.075  12.003   4.560 -0.3142 -1.2020 -0.5032
14469SOL    HW250013  12.203  11.934   4.604  0.0400 -0.9978 -1.1972
14470SOL     OW50014   1.175  11.627   5.725  0.5050 -0.3211 -0.5410
14470SOL    HW150015   1.110  11.632   5.655  0.8184  1.6240 -0.7488
14470SOL    HW250016   1.198  11.719   5.744  0.8814 -0.8052  1.6920
14471SOL     OW50017   2.345  11.452  11.678 -0.1013 -0.0347  0.2704
14471SOL    HW150018   2.271  11.475  11.734 -1.0337 -2.0749 -0.0311
14471SOL    HW250019   2.327  11.496  11.595 -2.1109 -2.0410 -0.4636
14472SOL     OW50020   1.481   8.623  10.783  0.3646  0.5171  0.2123
14472SOL    HW150021   1.450   8.536  10.758  1.7541  0.2121 -0.5960
14472SOL    HW250022   1.498   8.668  10.700  0.4777  1.2490  0.6176
14473SOL     OW50023   4.706   3.143  10.979 -0.5100 -0.5065 -0.1054
14473SOL    HW150024   4.699   3.093  11.061 -1.1132 -1.3915 -0.6743
14473SOL    HW250025   4.624   3.192  10.974 -0.1129  0.2056  0.2251
14474SOL     OW50026   4.315   4.922   1.429  0.6830 -0.0123  0.1390
14474SOL    HW150027   4.261   4.847   1.455  0.5113  0.2733  0.6193
14474SOL    HW250028   4.354   4.953   1.511  1.1156  0.1430 -0.1241
14475SOL     OW50029   1.604  10.529   0.103  0.0918  0.2010  0.2060
14475SOL    HW150030   1.597  10.604   0.163  0.8638  0.6410 -0.2414
14475SOL    HW250031   1.546  10.551   0.030 -0.9315 -0.3837  0.8250
14476SOL     OW50032   3.684   4.895   0.510 -0.4476  0.0325 -0.2788
14476SOL    HW150033   3.633   4.901   0.590  1.3005 -3.1937  1.2872
14476SOL    HW250034   3.620   4.879   0.441 -1.7681 -0.2359  0.9771
14477SOL     OW50035   9.945   6.251   3.772  0.6346  0.1303  0.7352
14477SOL    HW150036   9.992   6.178   3.813  1.3716  0.0851 -0.1269
14477SOL    HW250037   9.979   6.329   3.815 -0.8418 -0.0497  2.3184
14478SOL     OW50038   9.663   9.095   9.139 -0.4652  0.0409 -0.1607
14478SOL    HW150039   9.732   9.031   9.156 -2.2640 -2.3550 -1.3459
14478SOL    HW250040   9.588   9.063   9.188 -1.1387  1.8917  0.0870
14479SOL     OW50041   9.173   1.766  10.358  0.4270 -0.2087  0.5843
14479SOL    HW150042   9.201   1.854  10.334  1.0416 -0.7039 -0.6274
14479SOL    HW250043   9.100   1.779  10.418  0.6905  1.1184  0.6425
14480SOL     OW50044   7.538   7.366   1.468  0.5450  0.1336 -0.3441
14480SOL    HW150045   7.518   7.398   1.380  2.2278 -0.5120 -1.0093
14480SOL    HW250046   7.517   7.273   1.465 -0.6451  0.3569  0.3796
14481SOL     OW50047  11.887  10.102  11.900  0.1648  0.1216 -0.2368
14481SOL    HW150048  11.831  10.025  11.890  0.4652 -0.1646  0.2590
14481SOL    HW250049  11.959  10.087  11.839  0.3344 -0.0967  0.0140
14482SOL     OW50050  11.881  11.146  12.642  0.0836 -0.3036  0.1502
14482SOL    HW150051  11.850  11.105  12.723 -0.4053  0.1740  0.2158
14482SOL    HW250052  11.872  11.078  12.576 -1.5962 -0.0496  0.0752
14483SOL     OW50053  10.729   1.432   6.564 -0.2632  0.3312  0.6638
14483SOL    HW150054  10.641   1.408   6.535 -0.9783  1.1203  2.0633
14483SOL    HW250055  10.781   1.435   6.484 -1.6808  0.5861 -0.2866
14484SOL     OW50056   2.390   0.481   9.265  0.2123  0.1966  0.2417
14484SOL    HW150057   2.399   0.538   9.188 -1.8708  0.6416  0.2735
14484SOL    HW250058   2.341   0.405   9.233 -1.8286  0.9830  1.3704
14485SOL     OW50059   3.633   4.672   9.512 -0.7027  0.0908 -0.2540
14485SOL    HW150060   3.598   4.761   9.505  0.3584  0.4335 -1.5299
14485SOL    HW250061   3.678   4.657   9.429  0.0222 -1.2574  0.3517
14486SOL     OW50062   1.452   0.489  12.559 -0.4475 -0.1730  0.3772
14486SOL    HW150063   1.363   0.516  12.534 -0.6306  0.2696  1.4661
14486SOL    HW250064   1.463   0.522  12.648  1.8888  2.3651 -0.7205
14487SOL     OW50065   6.551   0.597   1.944  0.0756 -0.2259 -0.4476
14487SOL    HW150066   6.555   0.682   1.901  1.9190  0.1710  0.3730
14487SOL    HW250067   6.476   0.553   1.905 -0.7991  1.6868 -1.0407
14488SOL     OW50068   6.180   6.529  10.454 -0.2010 -0.0023 -0.0295
14488SOL    HW150069   6.095   6.561  10.483 -1.5566 -1.5436 -2.0076
14488SOL    HW250070   6.221   6.493  10.533 -1.3647  0.7590  0.9463
14489SOL     OW50071   7.919   3.431   0.012 -0.7397 -0.3132  0.2742
14489SOL    HW150072   7.923   3.341  -0.021  1.2042  0.0536 -0.6229
14489SOL    HW250073   7.887   3.422   0.102 -1.1787 -1.8252 -0.0009
14490SOL     OW50074   8.331   5.549   0.501  0.2122  0.0362  0.0217
14490SOL    HW150075   8.313   5.568   0.409 -0.5489 -0.5401  0.0398
14490SOL    HW250076   8.273   5.607   0.550  1.0863  0.8152  0.1685
14491SOL     OW50077  10.072   7.559   4.653 -0.2679  0.0611 -0.0343
14491SOL    HW150078  10.161   7.531   4.633 -0.7058  0.8345 -3.6059
14491SOL    HW250079  10.080   7.608   4.735  2.4856 -0.2816 -0.0196
14492SOL     OW50080   7.280   1.955   1.544  0.3161 -0.8180  0.4711
14492SOL    HW150081   7.332   1.958   1.624  1.8325 -2.1786 -0.3857
14492SOL    HW250082   7.284   1.863   1.516  1.1210 -0.1333 -1.9502
14493SOL     OW50083   7.897   0.575  11.687 -0.1022  0.2626 -0.2134
14493SOL    HW150084   7.806   0.605  11.681 -0.2756 -0.3559 -0.7266
14493SOL    HW250085   7.924   0.601  11.775 -0.4313  1.3922 -0.4194
14494SOL     OW50086   8.502   0.022   7.842  0.0406 -0.5425 -0.0857
14494SOL    HW150087   8.496   0.018   7.747 -0.4963  0.2451 -0.1005
14494SOL    HW250088   8.411   0.013   7.872 -0.3608  2.9282  0.1437
14495SOL     OW50089  11.209  11.854   0.304 -0.5065  0.0232 -0.3849
14495SOL    HW150090  11.304  11.847   0.301 -0.4538 -0.5671  1.4773
14495SOL    HW250091  11.192  11.919   0.373 -1.4546  2.4235 -2.6939
14496SOL     OW50092   8.480  10.281   8.462 -0.1964  0.6890 -0.0503
14496SOL    HW150093   8.395  10.246   8.435  0.2550 -0.4252 -0.0709
14496SOL    HW250094   8.473  10.289   8.557 -0.0944 -0.0467  0.0223
14497SOL     OW50095   1.311   1.900   9.220 -0.5678 -0.6602 -0.0999
14497SOL    HW150096   1.370   1.917   9.146 -1.9672 -1.4251 -1.4412
14497SOL    HW250097   1.276   1.812   9.204 -1.2314 -0.6768  1.2613
14498SOL     OW50098   6.917   6.054   6.669  0.2116  0.3500  0.5663
14498SOL    HW150099   6.933   5.961   6.654 -0.2903  0.2738  0.4838
14498SOL    HW250100   6.890   6.059   6.761  1.1219  0.5340  0.8335
14499SOL     OW50101  12.668  10.604   5.671  0.1444 -0.3818  0.2464
14499SOL    HW150102  12.697  10.522   5.710 -2.7608 -0.1590  3.3551
14499SOL    HW250103  12.708  10.673   5.725 -0.9037  0.0735  0.4671
14500SOL     OW50104   6.086   7.715   4.150 -0.1943 -0.3286  0.2536
14500SOL    HW150105   6.175   7.685   4.134 -0.3637 -0.7508  0.0843
14500SOL    HW250106   6.051   7.653   4.214  0.7180  1.7457  2.9735
14501SOL     OW50107   1.866   8.232   4.367  0.3325 -0.0779  0.3524
14501SOL    HW150108   1.864   8.200   4.458  0.1456 -0.4023  0.2346
14501SOL    HW250109   1.949   8.200   4.332 -0.9009 -2.6002 -0.5331
14502SOL     OW50110   3.417   6.427   7.210  0.2288 -0.4740 -0.3483
14502SOL    HW150111   3.447   6.411   7.300  0.0297 -0.7321 -0.3244
14502SOL    HW250112   3.321   6.423   7.217  0.0838  1.7761 -0.1378
14503SOL     OW50113   3.866   4.901   7.385 -0.2235  0.1632 -0.1683
14503SOL    HW150114   3.865   4.848   7.305 -0.4334  0.7422 -0.5574
14503SOL    HW250115   3.831   4.985   7.358 -2.6649 -0.3724  1.0942
14504SOL     OW50116   8.362  10.097   5.357 -0.8095  0.4146 -0.1363
14504SOL    HW150117   8.379  10.191   5.349  2.1502 -0.0527 -0.4235
14504SOL    HW250118   8.279  10.084   5.310 -0.1541  2.5516 -2.0761
14505SOL     OW50119   1.168   1.398   3.154  0.1648  0.5148 -0.7270
14505SOL    HW150120   1.090   1.434   3.113 -1.1898 -1.1974  0.2472
14505SOL    HW250121   1.149   1.398   3.247  1.0717 -0.5004 -0.5176
14506SOL     OW50122   1.822   1.958  10.390  0.0803 -0.0455  0.3811
14506SOL    HW150123   1.766   1.890  10.352 -0.8491 -0.4309  2.3259
14506SOL    HW250124   1.785   2.040  10.358  0.8251 -0.3821 -1.4741
14507SOL     OW50125   9.674   3.287   5.679  0.8072 -0.1953  0.1963
14507SOL    HW150126   9.763   3.266   5.709  1.0684 -0.3370 -0.6335
14507SOL    HW250127   9.664   3.236   5.598 -0.9044 -2.0250  1.4901
14508SOL     OW50128   5.116   2.441   1.667 -0.8545 -0.1982 -0.0758
14508SOL    HW150129   5.145   2.413   1.753 -0.3232  0.6013  0.0169
14508SOL    HW250130   5.196   2.448   1.615 -1.1990 -0.9709 -0.7282
14509SOL     OW50131   7.586   4.227   5.142 -0.2495 -0.0008  0.4466
14509SOL    HW150132   7.559   4.185   5.224  0.3151 -1.1766  0.0554
14509SOL    HW250133   7.508   4.274   5.112 -0.8091 -0.5138  1.0746
14510SOL     OW50134   8.710   8.280   1.824 -0.2101  0.0535 -0.1897
14510SOL    HW150135   8.639   8.229   1.864  1.1887  0.0558  2.5485
14510SOL    HW250136   8.700   8.368   1.860  1.3820 -0.0492  0.5849
14511SOL     OW50137  10.696   4.144   3.670  0.3827  0.7764 -0.2875
14511SOL    HW150138  10.645   4.112   3.745  1.0617  2.0402  0.7703
14511SOL    HW250139  10.631   4.176   3.608 -0.1567  1.3131  0.5423
14512SOL     OW50140   1.885   5.180   3.041  0.2960 -0.1327 -0.2827
14512SOL    HW150141   1.795   5.160   3.014  0.5598 -0.3499 -1.0032
14512SOL    HW250142   1.887   5.275   3.049  0.2185 -0.0668 -1.0456
14513SOL     OW50143   3.343   2.737   5.673  0.3283 -0.6485 -0.3762
14513SOL    HW150144   3.344   2.711   5.581 -1.6839  0.7143 -0.8515
14513SOL    HW250145   3.261   2.700   5.707  0.3495  0.0708  0.4731
14514SOL     OW50146   8.696   4.097  11.903  0.4233  0.1769  0.0692
14514SOL    HW150147   8.658   4.070  11.986 -0.7464  0.5409 -0.3273
14514SOL    HW250148   8.779   4.050  11.898 -0.5167 -1.5885  0.4185
14515SOL     OW50149   2.851   3.000   2.937 -0.1356  0.0924  0.2996
14515SOL    HW150150   2.891   3.081   2.967 -0.6745  0.3433  0.3489
14515SOL    HW250151   2.838   3.012   2.843 -2.7374  1.2015  0.7009
14516SOL     OW50152   7.898   1.489  12.199  0.8567 -0.2263  0.3305
14516SOL    HW150153   7.973   1.544  12.221 -0.3309  1.2411  0.8583
14516SOL    HW250154   7.822   1.546  12.208 -0.3867 -1.7827  0.2649
14517SOL     OW50155   8.125  12.628   2.853 -0.3924  0.4030 -0.2635
14517SOL    HW150156   8.114  12.610   2.759 -1.2490  1.0989 -0.3132
14517SOL    HW250157   8.177  12.709   2.856  1.1784 -0.5774 -0.0906
14518SOL     OW50158  10.370   8.593   0.147 -1.1243  0.0643 -0.4894
14518SOL    HW150159  10.389   8.502   0.121  0.2748  0.5472 -1.2882
14518SOL    HW250160  10.420   8.646   0.085  0.4189  1.3458  1.7157
14519SOL     OW50161   3.643   1.189  10.277 -0.2963  0.2609  0.8823
14519SOL    HW150162   3.711   1.123  10.292 -1.2560 -1.0359 -0.2693
14519SOL    HW250163   3.683   1.252  10.216  0.5664  0.6997  1.8630
14520SOL     OW50164   4.777  12.217   7.096 -0.1218  0.0846  0.2697
14520SOL    HW150165   4.873  12.215   7.086 -0.0810 -1.3552  0.6733
14520SOL    HW250166   4.754  12.309   7.084  1.1523  0.2630 -1.3322
14521SOL     OW50167   7.699  10.091  11.591 -0.3917  0.5330 -0.4667
14521SOL    HW150168   7.764  10.062  11.527 -1.2987 -0.5170 -0.9511
14521SOL    HW250169   7.697  10.020  11.656  1.7593  2.3313  1.7525
14522SOL     OW50170   4.839  12.557   0.349 -0.2940  0.2223 -0.2483
14522SOL    HW150171   4.746  12.545   0.368 -0.5503  1.4957 -0.5844
14522SOL    HW250172   4.866  12.476   0.308 -0.9060 -0.7139  1.1176
14523SOL     OW50173   5.497   9.878   4.355  0.6140  0.3036  0.0647
14523SOL    HW150174   5.500   9.935   4.278  0.5320  0.4914  0.2009
14523SOL    HW250175   5.440   9.924   4.417  0.1157 -0.1728 -0.0281
14524SOL     OW50176   6.325   3.604   8.582 -0.4747  0.2718 -0.4609
14524SOL    HW150177   6.284   3.601   8.668 -1.9005  2.1256 -1.0029
14524SOL    HW250178   6.282   3.536   8.531 -0.5157  0.0063 -0.0709
14525SOL     OW50179   6.949   2.401   2.698 -0.2276  0.0345  0.3217
14525SOL    HW150180   7.014   2.346   2.743 -0.6176 -1.7349 -1.2018
14525SOL    HW250181   6.983   2.490   2.708  1.4689 -0.6611  1.1433
14526SOL     OW50182   8.520  11.078   1.105 -0.2826  0.1333  0.3954
14526SOL    HW150183   8.598  11.126   1.131  0.8731 -1.0282 -0.7986
14526SOL    HW250184   8.466  11.075   1.184  1.2708  0.1978  1.5087
14527SOL     OW50185   5.266   6.293   6.442  0.3293 -0.5613  0.0732
14527SOL    HW150186   5.206   6.221   6.460 -0.2543  0.0395  0.5739
14527SOL    HW250187   5.312   6.307   6.526  1.1873 -1.0153 -0.3017
14528SOL     OW50188  11.922   6.704  12.706  0.3842  0.0978  0.2260
14528SOL    HW150189  11.898   6.697  12.614 -0.1635 -0.5331  0.4112
14528SOL    HW250190  11.968   6.788  12.713  0.5333  0.0929 -0.6394
14529SOL     OW50191  10.641  11.098  10.125  0.4769  0.1625 -0.1090
14529SOL    HW150192  10.579  11.171  10.133  0.5904  0.3145 -0.5642
14529SOL    HW250193  10.716  11.124  10.178 -0.1004 -0.3021  0.9558
14530SOL     OW50194   1.879   6.021   8.603 -0.5704 -0.4121  0.0706
14530SOL    HW150195   1.851   6.106   8.638  0.5526  0.0316 -0.0717
14530SOL    HW250196   1.849   5.958   8.669 -0.5958  0.1832  0.6469
14531SOL     OW50197   3.779  11.577  11.091 -0.1701 -0.4327  0.1025
14531SOL    HW150198   3.854  11.527  11.126 -0.3934 -1.6921 -1.1001
14531SOL    HW250199   3.738  11.615  11.167  2.1485  0.9721  0.7559
14532SOL     OW50200   0.590  11.465   3.268 -0.9954 -0.2827  0.7186
14532SOL    HW150201   0.595  11.520   3.189 -0.1875 -1.0885  0.1896
14532SOL    HW250202   0.585  11.376   3.234 -5.1997 -0.5245  1.4744
14533SOL     OW50203  11.046   6.932   5.407 -0.0960 -0.4193 -0.0091
14533SOL    HW150204  10.985   7.005   5.419  0.2368 -0.0228 -0.6293
14533SOL    HW250205  11.109   6.964   5.342  0.0595 -1.2618 -0.2868
14534SOL     OW50206   9.008   9.676  11.317 -0.3468  0.1549  0.0956
14534SOL    HW150207   9.079   9.622  11.351 -1.3969  0.0445  2.2191
14534SOL    HW250208   9.045   9.716  11.238  1.9364 -0.1880  0.9185
14535SOL     OW50209   1.787   1.338   6.820 -0.1798  0.2430 -0.1163
14535SOL    HW150210   1.806   1.246   6.799  1.1089  0.2685  0.8634
14535SOL    HW250211   1.800   1.384   6.737 -0.1796 -0.3546 -0.4598
14536SOL     OW50212   4.159   3.187   7.855  0.0086  0.7464  0.3469
14536SOL    HW150213   4.103   3.213   7.928 -0.9944  0.1343 -0.1862
14536SOL    HW250214   4.176   3.094   7.870  1.2848  1.0262  0.7497
14537SOL     OW50215   5.228   7.207   4.867 -0.2725 -0.1801 -0.5353
14537SOL    HW150216   5.273   7.161   4.796  0.0515 -1.0069  0.1898
14537SOL    HW250217   5.297   7.258   4.909 -0.5585  0.7113 -1.0977
14538SOL     OW50218   8.115   8.008   8.278  0.0862 -0.1386  0.1342
14538SOL    HW150219   8.058   8.066   8.227  0.5235  0.2097  0.0296
14538SOL    HW250220   8.068   7.925   8.283 -0.6782  0.3050  0.5073
14539SOL     OW50221   1.536   9.758  12.551  0.8482  0.4501  0.1920
14539SOL    HW150222   1.499   9.814  12.619 -0.2740  0.9498 -0.7833
14539SOL    HW250223   1.463   9.702  12.523  1.4167 -0.0873 -0.2601
14540SOL     OW50224   2.294   1.842  12.766  0.3853 -0.1723  0.3785
14540SOL    HW150225   2.200   1.855  12.775  0.0869 -1.6318 -0.3133
14540SOL    HW250226   2.305   1.747  12.767  1.9878 -0.0036  1.6218
14541SOL     OW50227   9.633   7.350   7.933  0.4253 -0.2124 -0.0595
14541SOL    HW150228   9.704   7.399   7.892 -1.0291  0.8060 -1.4791
14541SOL    HW250229   9.611   7.281   7.870  0.6870 -1.0646  0.7491
14542SOL     OW50230  10.830   7.061   8.079  0.1002 -0.1980 -0.0079
14542SOL    HW150231  10.894   7.053   8.150  0.2633  0.4228 -0.0838
14542SOL    HW250232  10.820   6.971   8.047  1.9673 -0.1500 -0.9033
14543SOL     OW50233   2.796  12.049   1.373  0.0267 -0.6818  0.1776
14543SOL    HW150234   2.863  11.981   1.385  0.6158 -0.1530 -0.0610
14543SOL    HW250235   2.844  12.123   1.334 -0.9988 -0.8877 -1.6114
14544SOL     OW50236   5.674  10.882   2.293 -0.4829  0.4844 -0.6289
14544SOL    HW150237   5.650  10.796   2.258  0.7664 -0.1826  0.0770
14544SOL    HW250238   5.591  10.927   2.307 -1.3119 -1.4680  1.1455
14545SOL     OW50239   1.522   3.340   2.636  0.2249 -0.0134 -1.2660
14545SOL    HW150240   1.501   3.416   2.582 -0.3390  0.4928 -0.3328
14545SOL    HW250241   1.595   3.299   2.589 -0.0986  0.5390 -2.2985
14546SOL     OW50242   2.493  11.769  11.895 -0.0309 -0.2159  0.3620
14546SOL    HW150243   2.521  11.684  11.930 -0.1018 -1.2538 -1.8898
14546SOL    HW250244   2.398  11.770  11.907  0.1016  0.0854  1.4525
14547SOL     OW50245   0.590   5.006   2.804  0.1040 -0.0304 -0.0904
14547SOL    HW150246   0.505   4.965   2.785 -0.4511  0.3267  1.4076
14547SOL    HW250247   0.605   5.066   2.732 -1.0700  0.0956 -0.2486
14548SOL     OW50248   7.699   9.827   3.363  0.2569 -0.4438 -0.2307
14548SOL    HW150249   7.781   9.779   3.374  1.9904  2.3982  0.3049
14548SOL    HW250250   7.718   9.892   3.294 -0.6777  1.8454  1.5247
14549SOL     OW50251   6.860   5.796   9.252 -0.7595  0.0078 -0.1016
14549SOL    HW150252   6.834   5.705   9.263 -1.6339  0.3033  0.4072
14549SOL    HW250253   6.858   5.833   9.341  0.2188  0.3676 -0.2124
14550SOL     OW50254  11.793   1.933   4.047 -0.1927 -0.7421  0.6862
14550SOL    HW150255  11.781   1.887   3.964  2.4406 -0.0536 -0.1973
14550SOL    HW250256  11.779   1.866   4.114 -5.0820 -0.7490  0.0051
14551SOL     OW50257  11.326   2.984   6.581 -0.5299 -0.3016  0.1465
14551SOL    HW150258  11.267   2.972   6.506 -2.4453 -1.1387  1.6781
14551SOL    HW250259  11.348   3.077   6.581 -0.6627 -0.2608 -1.3273
14552SOL     OW50260  10.013   0.546   7.769 -0.5870  0.1488 -0.6723
14552SOL    HW150261  10.008   0.637   7.738 -1.2083  1.0597  1.8962
14552SOL    HW250262   9.955   0.498   7.709 -0.0082  1.3426 -2.2769
14553SOL     OW50263   4.913   3.938   4.836  0.0666 -0.5276  0.4171
14553SOL    HW150264   4.927   3.953   4.742  2.7467  1.8869  1.0776
14553SOL    HW250265   5.000   3.920   4.871 -0.3751  1.4123  2.8292
14554SOL     OW50266   0.945   4.394   5.738 -0.3897  0.2099  0.2259
14554SOL    HW150267   0.987   4.478   5.759 -0.8364  0.2800  0.8478
14554SOL    HW250268   1.019   4.336   5.718 -0.0047  0.4216  0.9818
14555SOL     OW50269   7.558   8.308   4.448 -0.4814  0.1590 -0.1572
14555SOL    HW150270   7.623   8.375   4.471 -0.3561 -0.1298  0.3468
14555SOL    HW250271   7.509   8.346   4.375  0.4145  0.2695 -0.7111
14556SOL     OW50272  12.172   6.829  11.299  0.2402 -0.3624 -0.5924
14556SOL    HW150273  12.171   6.747  11.249 -0.1321 -0.1706 -0.8963
14556SOL    HW250274  12.160   6.897  11.234 -0.8578 -0.1436 -0.1688
14557SOL     OW50275   6.580  12.059   6.554  0.3829 -0.0270  0.1370
14557SOL    HW150276   6.496  12.058   6.509 -0.2394 -0.1249  1.2715
14557SOL    HW250277   6.601  12.152   6.563 -0.1774  0.0400  0.8654
14558SOL     OW50278  11.069   0.164   6.873  0.1048  0.1525  0.3498
14558SOL    HW150279  11.117   0.178   6.955 -0.7447  1.0249  0.7201
14558SOL    HW250280  11.024   0.081   6.886  1.6938 -0.8224 -0.1141
14559SOL     OW50281   2.988   7.135   7.645 -1.1672 -0.2755 -0.0063
14559SOL    HW150282   2.954   7.075   7.710 -1.0977 -0.0593  0.2308
14559SOL    HW250283   2.970   7.223   7.680 -0.3611 -0.1542  0.1414
14560SOL     OW50284   0.377   1.436   0.599  0.4893  0.0140 -0.5646
14560SOL    HW150285   0.471   1.437   0.617  0.4685  1.4042 -0.4578
14560SOL    HW250286   0.344   1.516   0.639 -0.9633 -1.0518  0.4821
14561SOL     OW50287   9.924   5.145   9.943 -0.3123 -0.2662  0.1883
14561SOL    HW150288  10.014   5.163   9.913 -0.1610 -0.0833  0.7362
14561SOL    HW250289   9.869   5.196   9.884 -0.1547 -1.4769 -1.0527
14562SOL     OW50290  11.410   9.174   2.850 -0.1556 -0.4602  0.4068
14562SOL    HW150291  11.499   9.141   2.859  0.3250  0.6734 -0.0168
14562SOL    HW250292  11.412   9.260   2.891 -0.5602  0.3703 -1.2080
14563SOL     OW50293  11.503   6.596   0.352  0.1544 -0.0117  0.1659
14563SOL    HW150294  11.522   6.514   0.397  1.7521 -0.4860 -1.2503
14563SOL    HW250295  11.588   6.641   0.348 -0.0635  0.3178 -1.7083
14564SOL     OW50296   4.460  11.402  10.694  0.0969  0.0833 -0.1142
14564SOL    HW150297   4.552  11.423  10.715  0.1384  0.1841 -0.3925
14564SOL    HW250298   4.464  11.316  10.653 -0.1556 -0.8472  1.7135
14565SOL     OW50299  11.620   2.984  11.479 -0.0629  0.0419  0.2337
14565SOL    HW150300  11.569   3.025  11.548 -1.2235 -1.2265  0.1812
14565SOL    HW250301  11.554   2.940  11.424  1.0699 -1.7546  0.2238
14566SOL     OW50302   1.907   2.160   2.143 -0.4392  0.0018 -0.5566
14566SOL    HW150303   1.908   2.181   2.236 -0.1343 -1.2691 -0.2619
14566SOL    HW250304   1.822   2.119   2.128 -0.8924  1.0765 -1.0591
14567SOL     OW50305  10.204   1.730   2.567  0.5495  0.3507  0.0450
14567SOL    HW150306  10.142   1.773   2.507 -0.2238  0.5426  0.9577
14567SOL    HW250307  10.277   1.703   2.511  0.0507  0.9264 -0.9060
14568SOL     OW50308   3.736   3.677   2.750  0.1014 -0.1993  0.3239
14568SOL    HW150309   3.803   3.684   2.818  0.2857  0.3941  0.0886
14568SOL    HW250310   3.746   3.587   2.717 -0.1185 -0.5561  1.1970
14569SOL     OW50311   9.729   9.158   2.150 -0.5889 -0.7186 -0.1217
14569SOL    HW150312   9.640   9.192   2.158 -0.5430 -0.1857 -1.5876
14569SOL    HW250313   9.723   9.090   2.083  0.1359 -0.5563 -0.3628
14570SOL     OW50314   9.424  11.907   0.007 -0.5134 -0.9163 -0.0590
14570SOL    HW150315   9.418  11.960  -0.072  0.6342 -3.3184 -1.8898
14570SOL    HW250316   9.334  11.899   0.038 -1.0441 -0.3629 -1.4138
14571SOL     OW50317  10.760   0.525  12.122 -0.1360  0.7306 -0.6478
14571SOL    HW150318  10.810   0.606  12.129  0.3073  0.3370  1.6021
14571SOL    HW250319  10.825   0.455  12.127 -0.4239  0.1513 -3.3513
14572SOL     OW50320   8.149   8.026   3.710  0.4982 -0.1146 -0.0220
14572SOL    HW150321   8.205   8.015   3.786  0.7000  0.5125 -0.0686
14572SOL    HW250322   8.209   8.038   3.637  0.3161 -1.4657 -0.4186
14573SOL     OW50323  11.522   4.986   7.080 -0.1629  0.1043  0.4805
14573SOL    HW150324  11.565   4.974   6.995  0.4288  2.0631  0.4375
14573SOL    HW250325  11.503   5.080   7.083 -0.4323  0.0138  2.3935
14574SOL     OW50326   4.293   5.879   4.171  0.2313 -0.0939  0.1404
14574SOL    HW150327   4.370   5.936   4.163  1.4590 -1.6060  0.6872
14574SOL    HW250328   4.262   5.895   4.260  0.8025 -0.5248  0.4260
14575SOL     OW50329  11.430   6.596   8.603  0.0733  0.3294 -0.0601
14575SOL    HW150330  11.436   6.503   8.621 -0.6228  0.6057  1.7809
14575SOL    HW250331  11.359   6.604   8.539 -0.1022 -0.3549  0.0452
14576SOL     OW50332   0.957   0.018   0.962 -0.3668 -0.1260 -0.0657
14576SOL    HW150333   1.005   0.015   0.880  0.3663 -0.2198  0.3618
14576SOL    HW250334   1.024   0.015   1.030 -1.0232 -2.0746  0.5777
14577SOL     OW50335   9.440   2.272  10.364 -0.1548 -0.0321  0.8338
14577SOL    HW150336   9.510   2.299  10.305  1.7287  0.8994  3.2986
14577SOL    HW250337   9.480   2.204  10.419 -1.5108 -0.1945  1.6676
14578SOL     OW50338   8.218   1.743  10.484  0.3897  0.2091 -0.7998
14578SOL    HW150339   8.265   1.704  10.557  0.6004  2.6176  0.4418
14578SOL    HW250340   8.131   1.702  10.487  0.6341 -0.2544  0.3455
14579SOL     OW50341  11.851   1.881   8.612  0.5874 -0.1409 -0.1326
14579SOL    HW150342  11.898   1.804   8.644  0.6827  0.4255  1.1670
14579SOL    HW250343  11.821   1.925   8.691 -1.0339  0.2081 -0.8989
14580SOL     OW50344   2.383   4.198   5.301 -0.1532  0.1239 -0.2113
14580SOL    HW150345   2.303   4.149   5.322  0.5646 -0.6440  0.8123
14580SOL    HW250346   2.363   4.289   5.325  0.1197 -0.4592  2.6240
14581SOL     OW50347   0.869   8.695  12.201  0.0578  1.0403  0.1032
14581SOL    HW150348   0.874   8.740  12.285 -1.2931 -0.7631  1.2203
14581SOL    HW250349   0.950   8.646  12.196  0.0040  0.9042  0.5110
14582SOL     OW50350   5.961   1.912   1.975  0.1719 -0.1796 -0.0931
14582SOL    HW150351   5.987   1.879   1.889 -0.7692  0.3534 -0.5928
14582SOL    HW250352   5.877   1.956   1.960 -0.7230 -1.2945  1.3488
14583SOL     OW50353   4.992   6.587  10.752  0.1321  0.0434  0.3501
14583SOL    HW150354   4.910   6.620  10.787  0.3634 -0.8427  1.8092
14583SOL    HW250355   5.005   6.503  10.796  0.9966 -0.6318 -1.0935
14584SOL     OW50356   1.443  11.240  10.028 -0.0222 -0.1127  0.3093
14584SOL    HW150357   1.421  11.277   9.942 -1.7250 -0.3797  0.5915
14584SOL    HW250358   1.475  11.314  10.079  1.0079  0.0461 -0.5534
14585SOL     OW50359   1.752   6.175   7.380  0.2272 -0.5409  0.4690
14585SOL    HW150360   1.732   6.255   7.331 -0.6354 -1.3250 -0.5220
14585SOL    HW250361   1.704   6.106   7.333 -1.2714 -1.2427  2.8380
14586SOL     OW50362   2.381   8.401  12.159  0.3783 -0.3864 -0.3241
14586SOL    HW150363   2.393   8.335  12.228 -0.9369 -1.5324 -1.1488
14586SOL    HW250364   2.415   8.481  12.198  0.2481 -1.1288  1.4443
14587SOL     OW50365   6.453   8.519   1.099 -0.1790 -0.6212  0.1451
14587SOL    HW150366   6.430   8.612   1.102 -1.2089 -0.7982 -1.1494
14587SOL    HW250367   6.523   8.509   1.163  0.7791  1.2844 -0.5287
14588SOL     OW50368   8.691   3.310   3.173 -0.3209 -0.0638  0.0727
14588SOL    HW150369   8.781   3.281   3.190  0.2723  1.7336  0.1874
14588SOL    HW250370   8.685   3.396   3.214 -2.3391 -0.4433  0.6799
14589SOL     OW50371   5.398   9.521   6.983  0.6234  0.1311  0.5573
14589SOL    HW150372   5.417   9.611   6.955  0.3289  0.2960  0.8705
14589SOL    HW250373   5.414   9.468   6.905  0.6630  0.4743  0.3277
14590SOL     OW50374  10.306   8.863  10.802 -0.5270 -0.0778  0.4521
14590SOL    HW150375  10.370   8.797  10.777  0.4729  1.5601 -1.5709
14590SOL    HW250376  10.351   8.918  10.866  0.0817  1.0103 -0.8902
14591SOL     OW50377   7.214   1.518   5.043  0.0712  0.3762 -0.5598
14591SOL    HW150378   7.234   1.484   4.956  1.8715 -0.1560  0.0275
14591SOL    HW250379   7.143   1.462   5.075  0.0314 -0.0187 -1.3189
14592SOL     OW50380   1.690   4.795   3.373 -0.1685 -0.0100 -0.0180
14592SOL    HW150381   1.724   4.876   3.410 -1.6772  0.8781 -0.4985
14592SOL    HW250382   1.685   4.812   3.279  0.9262 -1.2171 -0.3210
14593SOL     OW50383   4.717   8.600  10.365  0.6078  0.1477  0.4384
14593SOL    HW150384   4.675   8.516  10.383 -1.2677  1.0104  0.2471
14593SOL    HW250385   4.772   8.616  10.442  0.4875 -0.9379  0.7660
14594SOL     OW50386   6.503  12.363   0.690 -0.1516 -0.3889 -0.1828
14594SOL    HW150387   6.498  12.454   0.718  1.0295 -0.0829 -0.8845
14594SOL    HW250388   6.596  12.341   0.696 -0.3406 -1.3649 -0.6019
14595SOL     OW50389  10.436  12.560   0.760 -0.3594 -0.3019 -0.0799
14595SOL    HW150390  10.492  12.584   0.686 -1.2699 -0.2917 -0.7887
14595SOL    HW250391  10.442  12.635   0.819 -1.4781  0.7852 -1.2717
14596SOL     OW50392   1.448  10.389   1.209  0.6140 -0.0119  0.1965
14596SOL    HW150393   1.496  10.313   1.240 -0.6732 -0.8058  0.3417
14596SOL    HW250394   1.410  10.360   1.125  0.2938  0.5328  0.1504
14597SOL     OW50395  11.098  10.302   2.940 -0.8168  0.6083  0.7342
14597SOL    HW150396  11.093  10.211   2.967 -5.1047  0.7434  0.9539
14597SOL    HW250397  11.149  10.345   3.009 -0.2007 -1.2603  1.5122
14598SOL     OW50398   4.463   6.093  11.585 -0.1771  0.0712  0.1842
14598SOL    HW150399   4.464   6.186  11.563  0.1539 -0.1864 -0.9596
14598SOL    HW250400   4.555   6.069  11.594 -0.2758  0.3028  2.6637
14599SOL     OW50401   3.582   8.983   8.347  0.0651 -0.4376  0.3498
14599SOL    HW150402   3.568   8.895   8.312  1.0460 -1.2430  1.9009
14599SOL    HW250403   3.495   9.011   8.375 -0.2018 -1.0685  0.1742
14600SOL     OW50404  11.886   4.587   0.179  0.1941 -0.1033 -0.0937
14600SOL    HW150405  11.946   4.660   0.164  0.7934 -1.0296 -2.5429
14600SOL    HW250406  11.800   4.621   0.154  0.4685 -0.2224 -1.2054
14601SOL     OW50407   4.526   3.610   1.523  0.0467  0.9093 -0.2763
14601SOL    HW150408   4.560   3.534   1.475  1.0312  0.3808  1.1639
14601SOL    HW250409   4.597   3.674   1.521  0.4255  0.5775  1.0687
14602SOL     OW50410   3.403   7.658   0.809  0.0922 -0.2588 -0.5028
14602SOL    HW150411   3.336   7.726   0.818 -0.8203 -1.3098  1.3230
14602SOL    HW250412   3.396   7.630   0.718 -0.3732  1.2023 -0.9512
14603SOL     OW50413  11.218   0.505  10.483  0.8624  0.5597 -0.4687
14603SOL    HW150414  11.304   0.475  10.455 -0.0427 -1.8680 -0.9124
14603SOL    HW250415  11.166   0.506  10.403 -0.1502 -0.5372  0.1283
14604SOL     OW50416   1.646   0.341   4.761  0.0795  0.0818 -0.3972
14604SOL    HW150417   1.640   0.435   4.781 -0.9771  0.1218 -0.8214
14604SOL    HW250418   1.708   0.307   4.825  2.4783  1.5022 -1.8072
14605SOL     OW50419   8.840   1.543   0.897 -0.2959  0.1779  0.4497
14605SOL    HW150420   8.810   1.551   0.988  0.3778  1.0067  0.6146
14605SOL    HW250421   8.862   1.633   0.871 -3.3370  0.4575 -1.5701
14606SOL     OW50422   5.958   3.528   3.531  0.1328 -0.3065  0.2010
14606SOL    HW150423   5.891   3.514   3.598  0.5252 -0.7978  0.4923
14606SOL    HW250424   5.925   3.482   3.454  1.1773 -2.5324  1.0031
14607SOL     OW50425   6.145  10.208   8.869 -0.3890  0.6989  0.0543
14607SOL    HW150426   6.219  10.165   8.827  0.8043  1.3642  1.3644
14607SOL    HW250427   6.166  10.301   8.866 -0.3596  0.7956  1.8128
14608SOL     OW50428   5.542  11.254   2.281 -0.3307 -0.1886  0.2612
14608SOL    HW150429   5.610  11.266   2.347 -1.3956  0.7452  1.2264
14608SOL    HW250430   5.497  11.174   2.307  0.9173 -1.3346 -0.9027
14609SOL     OW50431   2.173   3.402   0.258  0.1321  0.2822 -0.5418
14609SOL    HW150432   2.102   3.363   0.309 -0.2486  1.1038 -0.4362
14609SOL    HW250433   2.215   3.464   0.317  0.0738  0.7930 -1.0285
14610SOL     OW50434  10.186   1.161   0.312 -0.2787 -0.2062 -0.0756
14610SOL    HW150435  10.167   1.140   0.404 -0.8756  0.8172  0.0481
14610SOL    HW250436  10.272   1.203   0.315  0.4226 -1.5521 -0.1969
14611SOL     OW50437   4.586   8.680   2.066 -0.4185 -0.4857  0.3357
14611SOL    HW150438   4.534   8.600   2.077 -2.4039  0.7389  0.3410
14611SOL    HW250439   4.534   8.735   2.008  0.8553  0.8646  0.4129
14612SOL     OW50440   0.375   4.629   5.185  0.1070 -0.1951  0.3616
14612SOL    HW150441   0.462   4.639   5.223  0.8183  2.6067 -1.5968
14612SOL    HW250442   0.341   4.719   5.180 -2.0450 -0.9987 -0.7727
14613SOL     OW50443   7.874  10.293   4.012  0.7849 -0.6291  0.0469
14613SOL    HW150444   7.854  10.202   4.032  1.4473 -1.0444 -1.1255
14613SOL    HW250445   7.937  10.289   3.940 -1.3381  0.7783 -2.0180
14614SOL     OW50446   0.179   8.987   9.928  0.6431 -0.7063 -0.6733
14614SOL    HW150447   0.246   8.984   9.859  2.2423 -0.8490  0.8245
14614SOL    HW250448   0.208   9.057   9.986  0.5874 -2.0667  1.0756
14615SOL     OW50449   2.125  11.007  10.937 -0.3277  0.1543  0.3931
14615SOL    HW150450   2.131  10.929  10.881  0.8664  0.6808 -0.2622
14615SOL    HW250451   2.041  10.998  10.982 -2.1582  0.4788 -2.6827
14616SOL     OW50452   5.445   0.717   7.504 -0.2428 -0.2009  0.6454
14616SOL    HW150453   5.442   0.683   7.414  0.3038  0.3485  0.4173
14616SOL    HW250454   5.524   0.771   7.507 -0.6409  0.3651  1.2479
14617SOL     OW50455   7.176   7.767   1.953 -0.3496  0.0874 -0.1465
14617SOL    HW150456   7.262   7.789   1.917  0.7612 -0.9797  1.6880
14617SOL    HW250457   7.136   7.709   1.888  2.0537 -2.6975  0.6411
14618SOL     OW50458   7.991  11.020   3.388  0.5393 -0.3643 -0.1884
14618SOL    HW150459   8.021  10.934   3.415 -0.1111 -0.8382 -0.9570
14618SOL    HW250460   8.051  11.046   3.317  1.8034  0.5803  1.1391
14619SOL     OW50461   4.767   6.524  12.052  0.2768 -0.6794 -0.6319
14619SOL    HW150462   4.853   6.534  12.010  1.0383  1.5630  1.2621
14619SOL    HW250463   4.705   6.555  11.987  1.2754  1.1357 -0.7873
14620SOL     OW50464   4.228   1.769   1.043 -0.0833 -0.6049  0.7141
14620SOL    HW150465   4.142   1.741   1.075  0.0853 -1.3345  0.5569
14620SOL    HW250466   4.280   1.784   1.122  0.4402 -2.7374  0.8424
14621SOL     OW50467  10.790   0.916   6.033  0.1298  0.3039 -0.3092
14621SOL    HW150468  10.857   0.956   5.977 -0.1813  0.5831 -0.4879
14621SOL    HW250469  10.840   0.874   6.103  0.5551 -0.5530 -1.1038
14622SOL     OW50470   7.533   1.853   0.301 -0.3303 -0.4996  0.5743
14622SOL    HW150471   7.549   1.759   0.300 -1.2751 -0.6783  1.0910
14622SOL    HW250472   7.445   1.862   0.338 -0.1319  0.6033  0.8122
14623SOL     OW50473   0.904   1.385   4.625  0.1485 -0.5794  0.1921
14623SOL    HW150474   0.810   1.394   4.644  0.0940 -0.7027 -0.0187
14623SOL    HW250475   0.910   1.388   4.530  0.4571  0.3362  0.2298
14624SOL     OW50476   9.327   1.154   2.477 -0.3406  0.1584 -0.0342
14624SOL    HW150477   9.284   1.222   2.425 -0.9335  0.5420  0.9405
14624SOL    HW250478   9.255   1.104   2.515  0.0901 -0.2199  0.2920
14625SOL     OW50479   4.939   8.764   8.613  0.5504 -0.1912  0.1568
14625SOL    HW150480   5.026   8.767   8.573  0.8637  0.2526  0.8351
14625SOL    HW250481   4.941   8.686   8.669  0.7744  0.1973  0.7098
14626SOL     OW50482  12.341   9.716   2.834 -0.6434 -0.2600  0.0955
14626SOL    HW150483  12.349   9.721   2.929 -2.0078 -0.8061  0.2567
14626SOL    HW250484  12.362   9.625   2.813  0.2381  0.0036 -0.2011
14627SOL     OW50485   5.604   9.558  11.074  0.2333  0.0859 -0.2305
14627SOL    HW150486   5.514   9.552  11.043  0.3047  2.5306 -1.1565
14627SOL    HW250487   5.656   9.571  10.994  1.0058  1.6540  0.4672
14628SOL     OW50488   7.749   9.839  11.683 -0.1222 -0.4477  0.4614
14628SOL    HW150489   7.834   9.794  11.674  0.0870 -0.4222  2.0582
14628SOL    HW250490   7.687   9.768  11.701 -0.2176 -0.3348  0.5724
14629SOL     OW50491   8.965   0.860   8.523  0.3990  0.1705 -0.0996
14629SOL    HW150492   8.884   0.852   8.573  0.3219 -1.2473 -0.4252
14629SOL    HW250493   9.034   0.833   8.583  0.6765  1.5436  0.2334
14630SOL     OW50494   6.347   3.337  10.348  0.7577 -0.3071 -0.2559
14630SOL    HW150495   6.286   3.325  10.420  0.8026 -0.1787 -0.1962
14630SOL    HW250496   6.312   3.283  10.277  0.1018  0.4307 -0.5116
14631SOL     OW50497  11.082   7.570   0.639  1.0791  0.0801  0.0656
14631SOL    HW150498  11.060   7.611   0.556 -1.7953  1.3586  1.3340
14631SOL    HW250499  11.174   7.592   0.653  1.8298 -0.6666 -2.9534
14632SOL     OW50500   7.781   3.056   3.631  0.1140 -0.2276  0.7834
14632SOL    HW150501   7.835   2.986   3.666 -2.0480 -1.7080  1.3346
14632SOL    HW250502   7.701   3.013   3.602 -0.9003  1.8935  0.2293
14633SOL     OW50503  10.394   0.945  12.423 -0.3916 -0.8415  0.0478
14633SOL    HW150504  10.457   1.010  12.391 -0.2510 -1.9657 -2.1477
14633SOL    HW250505  10.308   0.983  12.403 -0.3474 -0.6667  0.1899
14634SOL     OW50506   5.977  11.427  12.263 -0.1071  0.0891  0.0407
14634SOL    HW150507   6.027  11.495  12.218 -1.1455  0.5331 -0.4727
14634SOL    HW250508   5.963  11.462  12.351 -0.0353  0.2257 -0.0024
14635SOL     OW50509   9.388  11.946   5.602 -0.4270  0.0914  0.1821
14635SOL    HW150510   9.361  11.924   5.512 -1.5741 -0.9487  0.7477
14635SOL    HW250511   9.363  11.869   5.653 -0.4929  0.9821  1.5182
14636SOL     OW50512  12.696   8.113  10.914  0.1474 -0.4624  0.5861
14636SOL    HW150513  12.721   8.160  10.994 -1.2904  1.3564  0.0600
14636SOL    HW250514  12.620   8.061  10.940  0.9090 -1.4600  0.8508
14637SOL     OW50515  12.686   4.593   4.314  0.0844  0.4773  0.0958
14637SOL    HW150516  12.607   4.569   4.265 -0.1578 -0.0001  0.6960
14637SOL    HW250517  12.754   4.535   4.280 -0.3198 -0.5784  1.0066
14638SOL     OW50518   6.161   3.241  10.615  0.5091 -0.4646 -0.0045
14638SOL    HW150519   6.172   3.217  10.707 -1.9490  0.3741  0.5924
14638SOL    HW250520   6.122   3.163  10.575  1.0396 -0.6244 -0.2200
14639SOL     OW50521   2.019  10.245  10.902 -0.0574 -0.2650  0.0020
14639SOL    HW150522   2.093  10.232  10.961  0.7799 -0.6188 -1.0913
14639SOL    HW250523   1.958  10.175  10.926 -0.9169  1.1399  2.1587
14640SOL     OW50524   2.419   9.374   8.196 -0.4907 -0.2292 -0.0968
14640SOL    HW150525   2.385   9.390   8.284  1.4557 -0.9877  0.8531
14640SOL    HW250526   2.397   9.283   8.178  0.3742 -0.5212  0.2480
14641SOL     OW50527  10.520  10.358   8.475  0.4792  0.2938 -0.7594
14641SOL    HW150528  10.603  10.352   8.428 -0.0840  0.9644 -1.8705
14641SOL    HW250529  10.455  10.372   8.407 -0.4151  0.8668  0.1926
14642SOL     OW50530  10.777   3.716   9.100 -0.1788 -0.0510  0.3042
14642SOL    HW150531  10.693   3.702   9.142 -0.6676  0.7033 -0.3916
14642SOL    HW250532  10.755   3.742   9.010  0.7861  0.2635  0.1477
14643SOL     OW50533   1.965  12.344  12.532  0.4446 -0.2393  0.4314
14643SOL    HW150534   1.965  12.249  12.533 -1.1976 -0.2766 -0.2492
14643SOL    HW250535   1.998  12.368  12.446 -2.2512 -0.3107 -0.7077
14644SOL     OW50536   3.233   6.347   0.705 -0.7643 -0.1073 -0.0045
14644SOL    HW150537   3.294   6.291   0.754  0.1726 -2.1068 -3.1504
14644SOL    HW250538   3.272   6.434   0.710  0.8560 -0.8050  0.4488
14645SOL     OW50539   8.715  10.408   3.511 -0.4104 -0.0524  0.2076
14645SOL    HW150540   8.793  10.441   3.465 -0.6719 -0.5691 -0.6088
14645SOL    HW250541   8.681  10.338   3.455 -0.2025 -1.3443  1.6348
14646SOL     OW50542  11.221  11.541   8.270  0.2007 -0.2638 -0.4058
14646SOL    HW150543  11.249  11.464   8.319  0.2113  0.2016  0.3447
14646SOL    HW250544  11.139  11.567   8.312  0.8720  0.9101  0.2279
14647SOL     OW50545   9.171   4.222  10.391  0.2962  0.0028 -0.0343
14647SOL    HW150546   9.260   4.188  10.379  0.6536  1.6926 -3.2905
14647SOL    HW250547   9.182   4.317  10.397 -1.1712  0.1048  1.8925
14648SOL     OW50548   4.240   0.987   2.581 -0.0320  0.4381 -0.5356
14648SOL    HW150549   4.215   0.923   2.513 -0.7897  1.8185 -1.6080
14648SOL    HW250550   4.237   1.071   2.536  2.4313  1.1218  0.4487
14649SOL     OW50551   6.154   8.583   8.043 -0.6493 -0.1643  0.0547
14649SOL    HW150552   6.222   8.533   8.090 -1.3496 -0.2464  1.0087
14649SOL    HW250553   6.101   8.622   8.113 -0.5453  1.3475 -0.6744
14650SOL     OW50554   1.586   3.616   0.301  0.2407  0.5964 -0.8998
14650SOL    HW150555   1.574   3.523   0.280  0.5972  0.5769 -1.0253
14650SOL    HW250556   1.530   3.631   0.377  1.2627 -0.0819  0.0288
14651SOL     OW50557   5.186   7.202   5.625  0.0073 -0.2145 -0.4137
14651SOL    HW150558   5.219   7.199   5.714  0.3942 -0.5955 -0.5669
14651SOL    HW250559   5.255   7.161   5.572 -0.7749 -1.1760 -0.7171
14652SOL     OW50560   1.691   1.577   6.437 -0.1907 -0.0968  0.2728
14652SOL    HW150561   1.757   1.603   6.501 -1.9537  1.4086  1.6152
14652SOL    HW250562   1.670   1.658   6.390 -0.8980 -0.6037 -0.3130
14653SOL     OW50563  11.662   2.326  11.675  0.7547  0.0696 -0.1679
14653SOL    HW150564  11.714   2.247  11.661  0.4986 -0.0808 -0.2813
14653SOL    HW250565  11.683   2.382  11.600  0.3211 -0.2285 -0.5216
14654SOL     OW50566   5.022   0.961   0.055  0.1166  0.2676 -0.1358
14654SOL    HW150567   5.077   0.992   0.127 -0.9530  0.3825  0.6522
14654SOL    HW250568   4.971   0.889   0.093  0.8977 -0.9585 -1.3041
14655SOL     OW50569   5.023   4.203  12.784 -0.0208  0.0973 -0.4434
14655SOL    HW150570   4.980   4.229  12.865  1.0190  0.4523  0.0068
14655SOL    HW250571   5.013   4.278  12.726  0.7211  0.5153 -0.0428
14656SOL     OW50572   6.158   9.386   1.859 -0.1909 -0.0770 -0.0905
14656SOL    HW150573   6.122   9.311   1.813  2.3121 -1.0197 -0.6940
14656SOL    HW250574   6.205   9.435   1.791  0.8241  0.3040  0.8642
14657SOL     OW50575   3.590   3.287   2.294  0.5004 -0.3069  0.4029
14657SOL    HW150576   3.525   3.229   2.334  0.5374  0.5514  1.7937
14657SOL    HW250577   3.551   3.312   2.210  0.2454 -1.8812  0.0236
14658SOL     OW50578   3.887  12.036  11.338  0.0842  0.6725 -0.2062
14658SOL    HW150579   3.907  11.949  11.371 -0.6244  0.9604  1.0524
14658SOL    HW250580   3.947  12.094  11.386  0.4593  0.8928 -0.9332
14659SOL     OW50581  10.973   2.759   4.184 -0.0284  0.6518 -0.0269
14659SOL    HW150582  11.031   2.772   4.259  0.3696  0.7024 -0.3454
14659SOL    HW250583  11.018   2.800   4.111 -0.7509  1.2629 -0.1482
14660SOL     OW50584   5.743  10.516   5.742 -0.6107 -0.0734  0.6260
14660SOL    HW150585   5.771  10.596   5.786 -1.3717  0.6838 -0.2261
14660SOL    HW250586   5.706  10.462   5.811  0.1968  0.1724  1.2640
14661SOL     OW50587   3.023  10.622   6.443  0.0189 -0.2467 -0.4751
14661SOL    HW150588   3.090  10.581   6.387  0.3618 -0.5986  0.1888
14661SOL    HW250589   3.073  10.674   6.506 -0.3638 -0.0062 -0.3662
14662SOL     OW50590   3.163   8.589   9.869 -0.2721 -0.5318  0.0899
14662SOL    HW150591   3.113   8.597   9.787  3.0134 -0.6724 -2.1402
14662SOL    HW250592   3.171   8.678   9.901 -0.1796 -0.2439 -0.7070
14663SOL     OW50593  11.655   1.927   6.005  0.2852 -0.3353 -0.1617
14663SOL    HW150594  11.691   2.015   5.994 -1.2031  0.0813 -2.3740
14663SOL    HW250595  11.614   1.928   6.091  0.4297  1.0902 -0.0881
14664SOL     OW50596   8.211   4.232   2.766  0.1032 -0.1136 -0.5387
14664SOL    HW150597   8.275   4.199   2.829 -1.2209 -1.0919  0.3539
14664SOL    HW250598   8.259   4.235   2.683  2.0819  1.8363  0.5870
14665SOL     OW50599   9.213  10.411   9.832  0.2186  0.2789  0.5729
14665SOL    HW150600   9.273  10.337   9.847  0.0619 -0.2223 -1.0359
14665SOL    HW250601   9.271  10.484   9.811  0.3367  0.3344  1.0813
14666SOL     OW50602   4.430   5.120   3.009  0.2068  0.1024  0.0717
14666SOL    HW150603   4.406   5.202   2.966 -0.0373 -0.7697 -1.5133
14666SOL    HW250604   4.346   5.081   3.036  0.1780 -0.4784 -0.8195
14667SOL     OW50605   6.349  11.326   1.292  0.7236  0.0037 -0.2632
14667SOL    HW150606   6.314  11.278   1.217  1.1024 -1.5943  0.5324
14667SOL    HW250607   6.374  11.411   1.257  0.8010 -0.6642 -1.9161
14668SOL     OW50608   1.620   9.781   2.579 -0.3390 -0.2144 -0.1509
14668SOL    HW150609   1.592   9.700   2.536 -0.3822  0.4059 -1.3506
14668SOL    HW250610   1.572   9.850   2.532  1.3060  0.6795 -0.5894
14669SOL     OW50611   5.382  12.668   6.597 -0.1585  0.1365  0.1822
14669SOL    HW150612   5.328  12.747   6.592 -1.3960 -0.7409 -0.8414
14669SOL    HW250613   5.320  12.596   6.609  0.8228 -0.8369 -0.3273
14670SOL     OW50614   9.682   9.720   2.593 -0.7688 -0.0020  0.5538
14670SOL    HW150615   9.633   9.793   2.630 -1.9525 -0.5943  0.2119
14670SOL    HW250616   9.626   9.644   2.608  0.9601 -1.0933  2.0466
14671SOL     OW50617   2.904   2.078   6.777 -0.0466 -0.3178 -0.2763
14671SOL    HW150618   2.874   1.994   6.811 -1.2445 -0.3668 -1.3546
14671SOL    HW250619   2.987   2.059   6.734 -1.1674 -1.3770 -2.1172
14672SOL     OW50620   0.447   5.755   4.093 -0.0237  0.0219 -0.3213
14672SOL    HW150621   0.441   5.687   4.160 -0.3745  0.2154 -0.1539
14672SOL    HW250622   0.422   5.836   4.139 -3.6876 -0.3069 -1.4433
14673SOL     OW50623   8.580  12.449   4.285 -0.0188 -0.7965  0.3036
14673SOL    HW150624   8.600  12.484   4.198  1.3442 -1.3800  0.3550
14673SOL    HW250625   8.535  12.521   4.330  0.7563  0.1072 -0.3199
14674SOL     OW50626  11.939  12.454   8.390  0.3225 -0.7027 -0.2388
14674SOL    HW150627  11.880  12.495   8.327  1.8162  1.8156 -0.0890
14674SOL    HW250628  11.893  12.462   8.474 -0.3383 -1.3523 -0.5252
14675SOL     OW50629  10.621   0.348   4.869  0.0992 -0.3117 -0.1403
14675SOL    HW150630  10.542   0.380   4.914  0.1144 -0.6413  0.1225
14675SOL    HW250631  10.596   0.347   4.776  0.0859  0.4209 -0.1478
14676SOL     OW50632   2.713   0.134   2.193  0.4098 -0.1928  0.2533
14676SOL    HW150633   2.643   0.069   2.205  0.8968 -0.6556  0.6022
14676SOL    HW250634   2.688   0.206   2.251 -0.8025  0.5053 -1.0652
14677SOL     OW50635   6.412   7.083   2.901 -0.4834  0.3615 -0.4082
14677SOL    HW150636   6.411   6.999   2.854  2.0124 -0.6850  1.1870
14677SOL    HW250637   6.407   7.058   2.993  0.6427  1.9573  0.1227
14678SOL     OW50638   7.415  11.197   2.459  0.2601  0.3205  0.1006
14678SOL    HW150639   7.409  11.206   2.364  0.9436 -1.9605 -0.2283
14678SOL    HW250640   7.325  11.212   2.490 -0.3285 -0.5308 -1.1017
14679SOL     OW50641   8.850   9.792   5.300  1.0363  0.2035 -0.3186
14679SOL    HW150642   8.915   9.816   5.365  2.2263  1.7241 -1.9750
14679SOL    HW250643   8.766   9.803   5.344  1.8131  1.0960  0.9850
14680SOL     OW50644   4.588   7.877  11.989 -0.4586 -0.1995 -0.2664
14680SOL    HW150645   4.623   7.844  11.907 -0.8876 -0.5635 -0.3058
14680SOL    HW250646   4.530   7.949  11.964  0.3122  0.4664 -0.1949
14681SOL     OW50647  10.326   7.930   0.558 -0.6680  0.0997  0.0210
14681SOL    HW150648  10.271   7.922   0.480 -0.6738  0.2837  0.0065
14681SOL    HW250649  10.313   7.848   0.604  0.8420 -0.8511 -1.1463
14682SOL     OW50650   8.673  10.526   4.240  0.5891 -0.2695  0.3281
14682SOL    HW150651   8.643  10.460   4.303 -1.1845 -0.1499 -0.3250
14682SOL    HW250652   8.600  10.587   4.234 -0.2380 -1.3715 -3.3422
14683SOL     OW50653   5.804  12.673  11.068 -0.4562 -0.4310  0.0759
14683SOL    HW150654   5.782  12.616  11.142  0.7521  1.0325  1.6389
14683SOL    HW250655   5.884  12.635  11.031 -0.0047 -0.0991  0.7134
14684SOL     OW50656   6.621   2.754   3.134 -0.5819  0.0606  0.2349
14684SOL    HW150657   6.632   2.689   3.064 -0.5042  1.6980 -1.3737
14684SOL    HW250658   6.706   2.759   3.176  0.6605  1.8113 -2.1955
14685SOL     OW50659   2.781   3.393   2.145 -0.0787  0.1497  0.1186
14685SOL    HW150660   2.858   3.446   2.125  1.2148 -1.7480 -0.2003
14685SOL    HW250661   2.717   3.456   2.180  1.1187  1.9880 -0.8161
14686SOL     OW50662   0.618   2.265   8.644  0.0933  0.7428  0.2626
14686SOL    HW150663   0.565   2.317   8.705 -1.0523 -0.3321  0.2433
14686SOL    HW250664   0.635   2.183   8.691  1.9615  1.1407  0.3402
14687SOL     OW50665   5.147   2.096   2.284  0.3656 -0.7757 -0.5826
14687SOL    HW150666   5.237   2.086   2.318  0.8093  1.4904 -0.9498
14687SOL    HW250667   5.125   2.187   2.301 -2.5124 -1.6229  0.8846
14688SOL     OW50668   6.213   2.906  10.108  0.2893  0.2370 -0.2224
14688SOL    HW150669   6.235   2.813  10.105 -0.2670  0.0859  0.1634
14688SOL    HW250670   6.122   2.910  10.079  0.1102  0.5852  0.3679
14689SOL     OW50671  12.266  12.410  12.105 -0.3219 -0.4529 -0.1035
14689SOL    HW150672  12.320  12.446  12.035  0.7791  0.2758  1.1034
14689SOL    HW250673  12.325  12.352  12.154 -1.2007 -1.3140 -0.0314
14690SOL     OW50674   4.682   5.440   7.403  0.2002 -0.3145 -0.1024
14690SOL    HW150675   4.648   5.505   7.464 -0.7139 -0.2556 -0.6573
14690SOL    HW250676   4.685   5.359   7.454 -4.4238 -1.2761 -0.9333
14691SOL     OW50677   5.095  12.168   5.431  0.1938 -0.7643  0.4515
14691SOL    HW150678   5.000  12.175   5.421  0.1447 -0.0048  1.2706
14691SOL    HW250679   5.131  12.210   5.352 -0.1033 -3.4914 -1.2536
14692SOL     OW50680   2.100  10.641   4.575 -0.1479  0.3602 -0.8125
14692SOL    HW150681   2.063  10.696   4.506  1.1362  1.2421 -0.8514
14692SOL    HW250682   2.064  10.677   4.656 -1.6001 -0.6295 -1.0024
14693SOL     OW50683   7.706  10.866   5.055  0.3088  0.1179  0.6214
14693SOL    HW150684   7.652  10.870   4.976 -0.7482 -3.5920  0.9381
14693SOL    HW250685   7.779  10.809   5.031  0.8337  0.2332  1.8692
14694SOL     OW50686  10.085   8.218   0.317  0.3221 -0.4805  0.1470
14694SOL    HW150687   9.990   8.224   0.323 -0.0147 -0.3781 -3.3927
14694SOL    HW250688  10.117   8.286   0.376 -1.7362 -0.5853  1.4974
14695SOL     OW50689  10.235   9.409   0.695  0.2557  0.6697  0.2727
14695SOL    HW150690  10.201   9.325   0.664  0.8163  0.4981  0.1099
14695SOL    HW250691  10.239   9.463   0.617  1.7965  0.1945 -0.0034
14696SOL     OW50692   7.013   1.868   4.335 -0.2733 -0.0695  0.1057
14696SOL    HW150693   6.965   1.907   4.261  0.0034  1.8453  0.9036
14696SOL    HW250694   6.951   1.871   4.408 -0.6505 -2.2280 -0.0487
14697SOL     OW50695   1.871   2.473   8.593  0.5265  0.9407  0.0802
14697SOL    HW150696   1.794   2.477   8.650 -0.2321  0.9445 -0.9209
14697SOL    HW250697   1.914   2.557   8.605 -0.5554  1.6153 -0.6056
14698SOL     OW50698   1.321   4.756   8.185  0.0487 -0.2410 -0.4942
14698SOL    HW150699   1.260   4.721   8.251 -0.0031  0.9022  0.0916
14698SOL    HW250700   1.377   4.816   8.234 -0.0777  0.7384 -1.5089
14699SOL     OW50701   4.254   8.920   1.114 -0.2026 -0.3569  0.3761
14699SOL    HW150702   4.324   8.984   1.122  0.1467 -0.4527 -1.5436
14699SOL    HW250703   4.258   8.870   1.196  2.2938 -0.6824  0.1212
14700SOL     OW50704   5.637   8.341   8.260  0.1020 -0.8545  0.4196
14700SOL    HW150705   5.608   8.401   8.190  3.9648 -0.1667 -0.8284
14700SOL    HW250706   5.652   8.398   8.335  2.0898 -0.4306 -0.2387
14701SOL     OW50707   6.467   4.660   1.198 -0.2908 -0.7259  0.2759
14701SOL    HW150708   6.375   4.660   1.226 -0.4710  1.0269 -0.1867
14701SOL    HW250709   6.487   4.752   1.181  0.9067 -1.2806 -1.7380
14702SOL     OW50710   3.932   3.350   1.503 -0.6411  0.0401 -0.0638
14702SOL    HW150711   3.871   3.293   1.456 -0.5482 -0.0222 -0.1087
14702SOL    HW250712   3.986   3.389   1.434  0.4143 -1.1027  0.0778
14703SOL     OW50713   7.343   8.799  11.881  0.7904  0.0976  0.0219
14703SOL    HW150714   7.275   8.843  11.932 -0.5021 -1.9512  0.1981
14703SOL    HW250715   7.338   8.707  11.909  1.8765 -0.5932 -1.8633
14704SOL     OW50716  12.230   8.152   5.669 -0.1257  0.4752 -0.4991
14704SOL    HW150717  12.261   8.205   5.742 -0.7972 -0.6844  0.6582
14704SOL    HW250718  12.152   8.108   5.702 -0.2143 -0.3926 -1.7852
14705SOL     OW50719   4.899   1.402   7.779 -0.0217  0.4987 -0.0654
14705SOL    HW150720   4.988   1.412   7.746 -0.0290  1.1110  0.0806
14705SOL    HW250721   4.901   1.324   7.833  0.0601 -0.3828 -1.2959
14706SOL     OW50722   5.188   8.101   9.650 -0.3777 -0.1193 -0.3642
14706SOL    HW150723   5.141   8.158   9.590  0.3463 -0.3705 -1.1872
14706SOL    HW250724   5.270   8.147   9.668 -0.4477 -0.1998  0.1777
14707SOL     OW50725  12.193  10.123   5.114  0.8529 -0.1081 -0.1167
14707SOL    HW150726  12.162  10.206   5.150  0.2314  0.0671 -1.0118
14707SOL    HW250727  12.118  10.089   5.065  1.8172 -0.0702 -1.6795
14708SOL     OW50728   4.755   6.664   2.303  0.4390  0.4888  0.1125
14708SOL    HW150729   4.814   6.706   2.365  0.5221  0.5001  0.0252
14708SOL    HW250730   4.715   6.592   2.353  1.8171 -0.6221 -0.3115
14709SOL     OW50731   2.249   2.917   0.683 -0.3664  0.1473  0.5105
14709SOL    HW150732   2.331   2.907   0.634 -1.1829  0.4093 -0.9467
14709SOL    HW250733   2.278   2.928   0.774  1.2238  0.4163  0.0137
14710SOL     OW50734   0.296   5.439   4.940  0.3766  0.0196 -0.1139
14710SOL    HW150735   0.217   5.494   4.938  0.0491 -0.3194  1.6917
14710SOL    HW250736   0.363   5.495   4.979  0.0148 -0.8212  1.8393
14711SOL     OW50737   4.999   8.243   3.635  0.5485 -0.1107  0.3199
14711SOL    HW150738   5.087   8.218   3.607  0.5827  0.1632  0.1678
14711SOL    HW250739   5.013   8.294   3.715  0.6487  1.0551 -0.4129
14712SOL     OW50740   6.122   8.795   0.884  0.2335  0.4875  0.0644
14712SOL    HW150741   6.202   8.845   0.900  0.0056  0.8239  0.1589
14712SOL    HW250742   6.102   8.753   0.968 -1.1592  2.5397  0.8271
14713SOL     OW50743   0.932  11.844  11.104 -0.2469  0.2745  0.3849
14713SOL    HW150744   0.980  11.796  11.037  0.2966  0.8937  0.3267
14713SOL    HW250745   1.000  11.882  11.160 -0.6128  2.0426 -0.3110
14714SOL     OW50746   6.727   7.354   8.723 -0.3004 -0.1004 -1.0633
14714SOL    HW150747   6.670   7.306   8.783 -1.9208  0.5573 -2.0131
14714SOL    HW250748   6.812   7.310   8.731 -0.7811 -0.7780  0.7816
14715SOL     OW50749   0.804   1.826  11.148 -0.4817 -0.2644 -0.1763
14715SOL    HW150750   0.753   1.890  11.198 -0.2279  0.8117 -1.2589
14715SOL    HW250751   0.748   1.805  11.073 -0.4904 -1.2011  0.0825
14716SOL     OW50752   1.277   9.352   4.266  0.1469 -0.2671  0.1466
14716SOL    HW150753   1.333   9.380   4.338 -0.6900  2.5333 -0.1669
14716SOL    HW250754   1.323   9.380   4.187 -1.4454  1.9355 -0.1228
14717SOL     OW50755  10.337   5.748  11.181  0.3323  0.2253  0.3970
14717SOL    HW150756  10.377   5.680  11.236 -0.5023  0.3406  1.1677
14717SOL    HW250757  10.252   5.712  11.156  0.6480  0.2373 -0.7178
14718SOL     OW50758   8.222   9.478   7.669 -1.1266  0.0571  0.1191
14718SOL    HW150759   8.188   9.463   7.580  0.6816  0.4845 -0.6904
14718SOL    HW250760   8.204   9.397   7.716 -0.6732 -0.7985 -1.1314
14719SOL     OW50761   2.707   5.360   2.969  0.1677  0.3628 -0.3079
14719SOL    HW150762   2.660   5.281   2.940 -0.6680  0.7853 -0.1525
14719SOL    HW250763   2.787   5.362   2.916  0.4559 -0.8693  0.0621
14720SOL     OW50764   5.640   6.647   9.188  0.5646 -0.3348  0.4377
14720SOL    HW150765   5.627   6.573   9.248  0.2883 -0.2406  0.4993
14720SOL    HW250766   5.600   6.721   9.234 -0.6238 -0.4715 -0.3133
14721SOL     OW50767  10.905  10.313   0.192  0.1403 -0.1254 -0.2398
14721SOL    HW150768  10.976  10.260   0.227 -0.5436  0.3855  2.1519
14721SOL    HW250769  10.930  10.331   0.102  3.0434  0.0692  0.5112
14722SOL     OW50770   6.146  10.563   6.381  0.2343 -0.6851  0.5840
14722SOL    HW150771   6.170  10.563   6.474  0.3046 -1.1052  0.5684
14722SOL    HW250772   6.114  10.651   6.365 -1.8107 -1.1862  1.5285
14723SOL     OW50773   1.943  12.570   4.980  0.0686  0.0608  0.2839
14723SOL    HW150774   1.938  12.630   4.906  2.7966  1.2694  0.9196
14723SOL    HW250775   1.886  12.609   5.046  0.4307  0.9986  0.0655
14724SOL     OW50776   3.574   0.087   0.935 -0.0143 -0.1111 -0.5240
14724SOL    HW150777   3.490   0.088   0.981  0.3176 -0.3545  0.0960
14724SOL    HW250778   3.640   0.094   1.004  0.5465 -2.1290 -0.8040
14725SOL     OW50779   4.510   7.598   1.004  0.0164 -0.3477  0.0920
14725SOL    HW150780   4.447   7.660   0.966  0.9297  0.2348 -0.4989
14725SOL    HW250781   4.515   7.623   1.096 -0.8402 -0.6002  0.2210
14726SOL     OW50782   9.339  12.256   0.112  0.6725  0.7719 -0.2279
14726SOL    HW150783   9.357  12.308   0.034  0.8034  1.5681  0.3155
14726SOL    HW250784   9.418  12.264   0.165 -0.1966  2.0172  0.9440
14727SOL     OW50785   5.086   4.300   8.548 -0.3019  0.3153  0.5093
14727SOL    HW150786   5.102   4.211   8.516 -0.7041 -0.4626  2.3254
14727SOL    HW250787   5.133   4.357   8.486 -1.5810 -0.9889 -1.8009
14728SOL     OW50788   3.742  10.895   2.014 -0.0898  0.5627  0.2976
14728SOL    HW150789   3.702  10.927   2.095 -0.6337  2.2512 -0.5680
14728SOL    HW250790   3.709  10.806   2.004 -1.4496  0.9412  1.0514
14729SOL     OW50791   6.787  10.062   5.264  0.0756 -0.1444  0.1317
14729SOL    HW150792   6.720  10.083   5.198  0.2485  2.6630  0.7123
14729SOL    HW250793   6.870  10.070   5.218  0.1156 -0.9385  0.0556
14730SOL     OW50794  12.472   4.327   8.207  0.1668 -0.2001 -0.0187
14730SOL    HW150795  12.431   4.336   8.293 -1.3173  0.1017 -0.7146
14730SOL    HW250796  12.476   4.233   8.191  0.1015 -0.2441  0.2269
14731SOL     OW50797   7.340   5.347   2.427  0.4421  0.2984  0.2822
14731SOL    HW150798   7.255   5.386   2.447 -0.1355 -0.3905 -0.6953
14731SOL    HW250799   7.318   5.267   2.378  1.6152 -0.4869  0.9763
14732SOL     OW50800  10.975   8.726   5.256 -0.4486 -0.0448  0.6104
14732SOL    HW150801  10.965   8.631   5.263  0.6152 -0.2945 -0.8170
14732SOL    HW250802  11.032   8.739   5.180 -0.5373  1.7404  0.7995
14733SOL     OW50803  11.051   0.449   6.765  0.2157  0.3655  0.2528
14733SOL    HW150804  11.068   0.498   6.845  1.0370 -0.1562  0.4064
14733SOL    HW250805  11.043   0.358   6.794 -1.7983  0.4261  0.0409
14734SOL     OW50806  12.082  10.775   4.899  0.2232  0.0424  0.1496
14734SOL    HW150807  12.146  10.757   4.830  0.3105 -0.6816  0.4155
14734SOL    HW250808  12.002  10.795   4.851  0.1353 -1.0016 -0.1766
14735SOL     OW50809   7.506  10.347   6.206 -0.1264  0.3147  0.3192
14735SOL    HW150810   7.419  10.381   6.230 -0.5666 -1.7344  1.9097
14735SOL    HW250811   7.509  10.259   6.244  1.3314 -1.0855 -2.6983
14736SOL     OW50812  12.128   3.389   2.991 -0.4105  0.7483 -0.8633
14736SOL    HW150813  12.105   3.343   3.072  1.0118 -1.0786 -1.4375
14736SOL    HW250814  12.100   3.480   3.007 -3.1201 -0.1808  0.4145
14737SOL     OW50815   9.023   9.997   9.629  0.2343 -0.0821 -0.1863
14737SOL    HW150816   9.080  10.018   9.556  0.5541  0.6974  0.2811
14737SOL    HW250817   8.936   9.990   9.590  0.3416  0.6976 -0.5883
14738SOL     OW50818   4.049   5.447   2.345  0.0035 -0.6147  0.0233
14738SOL    HW150819   4.009   5.403   2.271  0.6596 -0.1516 -0.6266
14738SOL    HW250820   3.992   5.522   2.363  0.8486  0.3813 -1.2758
14739SOL     OW50821   0.405  11.200   3.460 -0.1687 -0.2505  0.0315
14739SOL    HW150822   0.405  11.107   3.439  0.5271 -0.4450  0.8212
14739SOL    HW250823   0.489  11.232   3.427 -0.6427  0.2214 -0.7318
14740SOL     OW50824   6.065   4.320   5.039  0.3368 -0.4128 -0.4042
14740SOL    HW150825   5.981   4.294   5.001  0.3907  0.5701 -1.2296
14740SOL    HW250826   6.072   4.269   5.120 -0.2919 -1.7228 -1.1539
14741SOL     OW50827  10.436   6.986  11.180  0.1004 -0.2868  0.3720
14741SOL    HW150828  10.408   6.978  11.272 -1.9622  2.7272  0.1591
14741SOL    HW250829  10.367   7.039  11.139  2.2313  0.6467 -2.2967
14742SOL     OW50830   8.354   5.080   9.002  0.1778  0.3098 -0.1123
14742SOL    HW150831   8.324   5.152   9.057 -2.1040 -0.0818 -0.7392
14742SOL    HW250832   8.405   5.122   8.932 -0.5413  1.2653 -0.0830
14743SOL     OW50833   4.772   9.040   9.419 -0.1538 -0.3085 -0.0605
14743SOL    HW150834   4.769   8.966   9.358  0.1763 -0.0749 -0.3635
14743SOL    HW250835   4.863   9.043   9.449  0.0244  0.4513 -0.6507
14744SOL     OW50836   8.539   3.940   0.218  0.3990  0.0612 -0.2926
14744SOL    HW150837   8.527   4.013   0.158  1.1312 -0.9274 -1.7095
14744SOL    HW250838   8.552   3.981   0.304  1.3918  1.6325 -1.1356
14745SOL     OW50839   9.935   4.237   7.638 -0.0304  0.1394 -0.1233
14745SOL    HW150840  10.028   4.229   7.618  0.2588  1.3933  0.6655
14745SOL    HW250841   9.895   4.164   7.590  1.6283 -1.9983  1.5357
14746SOL     OW50842   3.709  12.113   5.328 -0.1791  0.3054  0.4695
14746SOL    HW150843   3.760  12.126   5.248 -0.2666 -0.9536  0.1992
14746SOL    HW250844   3.684  12.202   5.354  0.2088  0.7683 -0.6616
14747SOL     OW50845   5.845   8.635  12.591 -0.0237 -0.3521 -0.0815
14747SOL    HW150846   5.871   8.624  12.500  0.7619 -1.3666  0.2420
14747SOL    HW250847   5.925   8.664  12.636 -0.3782  0.0476  0.3019
14748SOL     OW50848   6.561   6.649   5.320  0.4966 -0.3439 -0.0731
14748SOL    HW150849   6.489   6.598   5.282  0.5001 -0.4783  0.0979
14748SOL    HW250850   6.637   6.591   5.314  1.0254  0.4768 -1.9604
14749SOL     OW50851   8.488   2.908   0.362  0.3474  0.4950 -0.2655
14749SOL    HW150852   8.394   2.909   0.375  0.2295  0.0173 -1.0480
14749SOL    HW250853   8.524   2.888   0.449 -0.2773  0.5001 -0.0035
14750SOL     OW50854   6.406   3.462   8.822  0.7095 -0.0377 -0.2134
14750SOL    HW150855   6.458   3.476   8.743  0.3081  2.6466 -0.1042
14750SOL    HW250856   6.421   3.540   8.875 -1.4088 -0.3491  0.9804
14751SOL     OW50857   8.036   1.156   0.134 -1.0740 -0.1824  0.5074
14751SOL    HW150858   7.943   1.176   0.149 -1.2400 -1.0832  0.7214
14751SOL    HW250859   8.053   1.191   0.046 -1.5301  0.2632  0.5867
14752SOL     OW50860   4.824   9.429   3.148 -0.4574  0.8547  0.0887
14752SOL    HW150861   4.831   9.459   3.238  0.0915  1.2698 -0.0845
14752SOL    HW250862   4.822   9.333   3.155 -1.7398  0.9063  0.6094
14753SOL     OW50863  11.350   0.130  11.504 -0.1351 -0.9425 -0.1427
14753SOL    HW150864  11.340   0.046  11.549  1.2783 -2.5571 -2.6170
14753SOL    HW250865  11.299   0.120  11.423  1.6898 -0.2538 -1.4475
14754SOL     OW50866   2.630   9.738   1.279 -0.3841 -0.1500 -0.2927
14754SOL    HW150867   2.711   9.729   1.229 -0.5804  1.7142 -1.0393
14754SOL    HW250868   2.561   9.735   1.213 -0.9018 -1.0548  0.2674
14755SOL     OW50869   2.775   4.497   6.507  0.0423  0.1594  0.0466
14755SOL    HW150870   2.695   4.453   6.538  1.0387 -0.9666  1.1538
14755SOL    HW250871   2.791   4.566   6.571 -0.9867  1.5830 -1.1633
14756SOL     OW50872   8.900   8.664   6.555  0.0657  0.5977  0.5686
14756SOL    HW150873   8.808   8.640   6.564  0.0346  1.1822  2.0982
14756SOL    HW250874   8.944   8.582   6.532 -0.9542  0.5360 -1.4084
14757SOL     OW50875   0.700  12.051   9.856 -0.0820 -0.0072 -0.0250
14757SOL    HW150876   0.717  11.958   9.840  0.8369 -0.2978  2.2995
14757SOL    HW250877   0.637  12.052   9.928  0.6699  1.1484  0.6483
14758SOL     OW50878   6.797   6.412   9.430 -0.5140 -0.2963  0.4374
14758SOL    HW150879   6.761   6.345   9.487  1.7475 -1.8115  0.2180
14758SOL    HW250880   6.831   6.479   9.490  0.6462 -1.2334  0.8731
14759SOL     OW50881   6.635   6.758   0.280 -0.4872  0.4493 -0.9199
14759SOL    HW150882   6.704   6.817   0.309  0.7730 -0.9946 -0.8649
14759SOL    HW250883   6.655   6.741   0.188 -0.7061 -0.0544 -0.8773
14760SOL     OW50884  11.903   3.909  11.132  0.3240 -0.2767 -0.2204
14760SOL    HW150885  11.969   3.917  11.200 -0.1636  0.8106  0.1397
14760SOL    HW250886  11.843   3.982  11.147 -0.0106 -0.2430 -1.5793
14761SOL     OW50887  11.553   9.577  10.777  0.0369  0.1210  0.2413
14761SOL    HW150888  11.530   9.573  10.684  0.2980 -0.9447  0.2030
14761SOL    HW250889  11.512   9.657  10.809 -0.4356  0.2626 -0.6880
14762SOL     OW50890  11.433   0.853   4.534 -0.3768 -0.3503  0.9316
14762SOL    HW150891  11.490   0.795   4.485  0.4213  0.3734  0.9910
14762SOL    HW250892  11.415   0.806   4.616  0.7603 -0.2627  1.2409
14763SOL     OW50893  10.699   5.201  10.520 -0.0502  0.1188  0.0300
14763SOL    HW150894  10.734   5.117  10.490  1.0001  0.4011  0.3960
14763SOL    HW250895  10.720   5.262  10.449 -0.0169  0.2431  0.1460
14764SOL     OW50896   6.894  10.674  11.297  0.2936  0.1970  0.3119
14764SOL    HW150897   6.817  10.723  11.326 -0.1372  0.3243 -0.9735
14764SOL    HW250898   6.961  10.741  11.283 -0.4590  0.5517 -1.9713
14765SOL     OW50899   5.988   7.796   5.800 -0.0723  0.2321  0.2194
14765SOL    HW150900   5.909   7.800   5.747  0.8295  0.5814 -1.1362
14765SOL    HW250901   6.027   7.711   5.779  0.6823  0.6893 -0.2628
14766SOL     OW50902   2.568   8.889   1.505 -0.3719  0.4894 -0.3171
14766SOL    HW150903   2.537   8.861   1.592 -0.3947  2.5680  0.3943
14766SOL    HW250904   2.586   8.982   1.515  0.8351  0.5135 -2.2326
14767SOL     OW50905  10.845   7.119   8.649  0.8259 -0.2787  0.4230
14767SOL    HW150906  10.862   7.173   8.726 -1.1500  0.5303  0.3489
14767SOL    HW250907  10.831   7.182   8.578  1.6843 -0.9923 -0.4014
14768SOL     OW50908   8.750   1.079  10.426 -0.1630  0.5520  0.2588
14768SOL    HW150909   8.826   1.133  10.405 -0.0532 -0.2334 -1.6254
14768SOL    HW250910   8.713   1.056  10.340 -2.9279  1.4555  1.1154
14769SOL     OW50911  11.973   9.016   9.262  0.1044  0.4747  0.7504
14769SOL    HW150912  11.927   9.071   9.325 -3.6492 -0.9287 -0.4520
14769SOL    HW250913  12.009   8.945   9.314 -2.6974 -0.5281  1.5043
14770SOL     OW50914  12.073   7.358   9.618 -0.3902  0.1964  0.5086
14770SOL    HW150915  12.010   7.425   9.595  0.0932  0.5699  0.2660
14770SOL    HW250916  12.023   7.276   9.617 -1.4763  0.7450  2.7357
14771SOL     OW50917   0.208   0.583   3.837  0.2785 -0.5758 -0.6380
14771SOL    HW150918   0.201   0.623   3.924 -0.0318 -0.6313 -0.6368
14771SOL    HW250919   0.301   0.561   3.828  0.4045 -0.1053 -0.5274
14772SOL     OW50920   7.581   6.750   8.578 -0.0408 -0.1037 -0.1176
14772SOL    HW150921   7.542   6.683   8.523  0.5186  0.4235 -1.1742
14772SOL    HW250922   7.552   6.728   8.667 -0.3914 -1.3479 -0.5295
14773SOL     OW50923   6.388   8.134   7.771  0.4281 -0.3288  0.0688
14773SOL    HW150924   6.481   8.144   7.748  0.6013 -0.6407  0.6100
14773SOL    HW250925   6.341   8.171   7.697  0.9896 -0.0088 -0.1377
14774SOL     OW50926  12.522  11.851   3.934 -0.1012  0.0969 -0.6440
14774SOL    HW150927  12.485  11.763   3.926  1.4933 -0.6036 -0.5962
14774SOL    HW250928  12.545  11.859   4.026  0.2924  0.3468 -0.7642
14775SOL     OW50929   3.890   9.430   8.023 -0.3253 -0.4970  0.3378
14775SOL    HW150930   3.841   9.422   8.105 -3.9560  2.1897 -1.2628
14775SOL    HW250931   3.935   9.514   8.030 -0.2623 -0.4782 -0.2512
14776SOL     OW50932   2.544   9.828   5.110 -0.1096 -0.1183 -0.1464
14776SOL    HW150933   2.629   9.812   5.150  0.1828 -0.3505 -0.8313
14776SOL    HW250934   2.481   9.825   5.182  0.4268 -0.2772  0.3154
14777SOL     OW50935  11.417   4.777   5.386  0.0622  0.1671  0.1820
14777SOL    HW150936  11.335   4.739   5.353  0.0569  0.7710 -0.5297
14777SOL    HW250937  11.408   4.871   5.372  1.4605  0.1343 -1.3192
14778SOL     OW50938   0.196   3.459   8.878  0.1755 -0.1644 -0.2180
14778SOL    HW150939   0.201   3.379   8.930 -1.1490  0.4525  0.9042
14778SOL    HW250940   0.240   3.437   8.796  1.6602 -1.3852  0.8581
14779SOL     OW50941   7.587   9.399   2.381  0.1954 -0.9902 -0.4339
14779SOL    HW150942   7.534   9.376   2.457 -2.6092  0.1702 -1.8989
14779SOL    HW250943   7.562   9.336   2.314  1.9164 -1.4087 -0.7402
14780SOL     OW50944   7.905   5.289   5.454 -1.2075 -0.2964  0.0434
14780SOL    HW150945   7.810   5.289   5.464 -1.3324  1.5879 -0.7876
14780SOL    HW250946   7.937   5.340   5.528 -1.1738  2.2879 -1.6459
14781SOL     OW50947   5.631   8.333  12.076  0.1501 -0.1255 -0.2707
14781SOL    HW150948   5.703   8.375  12.030 -0.4828  0.4625 -0.7587
14781SOL    HW250949   5.601   8.399  12.139 -0.1916 -0.2244 -0.3262
14782SOL     OW50950   5.086  12.352   3.212 -0.3379 -0.0903  0.4747
14782SOL    HW150951   5.085  12.325   3.304 -0.0487  0.9577  0.8028
14782SOL    HW250952   5.015  12.416   3.205 -1.3090 -1.2169 -0.3899
14783SOL     OW50953   7.761   8.220   2.858  0.0257 -0.5358 -0.3039
14783SOL    HW150954   7.686   8.166   2.833 -0.0954 -1.2275  1.4705
14783SOL    HW250955   7.769   8.210   2.953  1.3009  0.9102 -0.2049
14784SOL     OW50956   6.450   2.523   1.128 -0.3083  0.1809 -0.3733
14784SOL    HW150957   6.447   2.609   1.086 -1.1238  0.3887  0.0771
14784SOL    HW250958   6.482   2.464   1.060 -0.3765  0.7259 -0.8878
14785SOL     OW50959   1.936   7.497   2.082 -0.0135  0.2244 -0.3561
14785SOL    HW150960   2.024   7.519   2.051 -0.5918 -0.2866 -2.4747
14785SOL    HW250961   1.943   7.406   2.110  0.0393  0.0479 -0.9292
14786SOL     OW50962  12.649   6.333   9.658  0.1254  0.1127  0.6591
14786SOL    HW150963  12.617   6.361   9.572 -0.5055  1.2530  1.2395
14786SOL    HW250964  12.633   6.239   9.659 -0.8354  0.2470 -0.0818
14787SOL     OW50965   4.788   4.195   0.768 -0.4215 -0.7196  0.0316
14787SOL    HW150966   4.865   4.142   0.789  1.5445  2.1322  0.7649
14787SOL    HW250967   4.787   4.198   0.672  0.7100 -0.4317  0.0100
14788SOL     OW50968   0.736   3.488   7.257 -0.3307  0.3015  0.4688
14788SOL    HW150969   0.746   3.572   7.214 -0.2148 -0.5173 -1.1935
14788SOL    HW250970   0.642   3.482   7.277 -0.3490  0.7954  0.5234
14789SOL     OW50971   1.871   9.345  10.083 -0.8169  0.0692  0.4636
14789SOL    HW150972   1.850   9.346  10.176  2.9611  0.2125  1.4726
14789SOL    HW250973   1.888   9.437  10.062 -2.1667  0.1128 -0.5727
14790SOL     OW50974   1.156  10.044   6.995  0.2590 -0.1169  0.4511
14790SOL    HW150975   1.131   9.997   7.075 -0.5195 -0.6506 -0.0928
14790SOL    HW250976   1.092  10.016   6.930  0.9094  0.2845 -0.3772
14791SOL     OW50977  10.284   1.658  10.907  0.3032  0.3609 -0.0763
14791SOL    HW150978  10.206   1.693  10.863 -0.4446 -2.3917 -1.1556
14791SOL    HW250979  10.354   1.717  10.882 -1.3614  2.9758  0.9680
14792SOL     OW50980   2.332   4.681   1.383 -0.0219  0.0770  0.2249
14792SOL    HW150981   2.237   4.673   1.391 -0.0444  0.1813  0.0629
14792SOL    HW250982   2.345   4.748   1.316  0.1659  0.1652  0.3481
14793SOL     OW50983   1.509   3.017   9.757  0.1113 -0.2886 -1.0209
14793SOL    HW150984   1.461   2.993   9.836  2.2948 -2.3328 -0.1994
14793SOL    HW250985   1.499   3.112   9.750 -0.0106 -0.0096  1.7977
14794SOL     OW50986   6.433  11.353   1.708 -0.4399  0.3273  0.0094
14794SOL    HW150987   6.352  11.381   1.667  0.1149  2.1552  0.0847
14794SOL    HW250988   6.490  11.429   1.704  1.1224 -0.7676  0.3844
14795SOL     OW50989   7.321  12.394   2.733  0.4071 -0.2480 -0.1047
14795SOL    HW150990   7.314  12.309   2.777  1.2040 -0.0103  0.5036
14795SOL    HW250991   7.308  12.374   2.640 -0.2156 -0.9134  0.1140
14796SOL     OW50992   7.840   2.768   0.243 -0.3232 -0.2731 -0.1453
14796SOL    HW150993   7.795   2.819   0.310  0.1765 -1.2967  0.9984
14796SOL    HW250994   7.929   2.803   0.241 -0.2391 -0.4765 -0.0147
14797SOL     OW50995   8.986   1.371   9.781  0.0789 -0.1011  0.4019
14797SOL    HW150996   8.954   1.428   9.851  0.3273  0.1402  0.3250
14797SOL    HW250997   9.032   1.431   9.722  0.0237 -0.3311  0.1264
14798SOL     OW50998  12.695   3.617   7.476 -0.2244  0.0619  0.0380
14798SOL    HW150999  12.771   3.670   7.499 -0.6428  0.6862  0.0063
14798SOL    HW251000  12.632   3.631   7.547 -0.3496 -0.3737  0.0192
14799SOL     OW51001   5.736   9.012   4.946  0.7969  0.1053  0.6987
14799SOL    HW151002   5.747   8.993   4.853  0.5733  1.0540  0.4666
14799SOL    HW251003   5.813   9.063   4.969 -0.4165  2.2213  0.3476
14800SOL     OW51004   6.375   6.241   5.343  0.0101  0.6495  0.1820
14800SOL    HW151005   6.359   6.148   5.362 -0.7668  1.0406  1.6545
14800SOL    HW251006   6.322   6.259   5.266  0.8892 -0.3193 -0.6945
14801SOL     OW51007   5.132  12.463   4.529  0.3796  0.0461  0.4658
14801SOL    HW151008   5.168  12.519   4.460  0.8546 -0.2688  0.4507
14801SOL    HW251009   5.105  12.524   4.598  0.2266  0.3408  0.1503
14802SOL     OW51010  12.622   4.513   9.595  0.3198  0.9919  0.1373
14802SOL    HW151011  12.635   4.420   9.613 -0.9526  0.3914 -1.6791
14802SOL    HW251012  12.618   4.518   9.499 -3.9308  2.1619  0.1696
14803SOL     OW51013  10.938   0.093   7.890  0.3005 -0.2040 -0.4093
14803SOL    HW151014  11.011   0.145   7.925 -0.3324  1.2120 -1.1031
14803SOL    HW251015  10.941   0.011   7.940  1.6407  0.2870  0.3824
14804SOL     OW51016   3.769   9.184   5.068  0.5743 -0.5709 -0.1445
14804SOL    HW151017   3.745   9.154   4.980  0.5804  0.8649 -0.6601
14804SOL    HW251018   3.686   9.212   5.107  1.0322  2.9444 -1.3650
14805SOL     OW51019   0.723   4.571   2.218 -0.2229  0.0943  0.4383
14805SOL    HW151020   0.643   4.579   2.270  0.2475  0.2020  1.1559
14805SOL    HW251021   0.765   4.491   2.250  0.0787  0.1685  0.2362
14806SOL     OW51022   6.500   6.193   8.279  0.5060 -0.1216 -0.6195
14806SOL    HW151023   6.457   6.125   8.226  0.4537  0.4708 -1.3554
14806SOL    HW251024   6.437   6.265   8.280 -0.8210 -1.1523  2.7490
14807SOL     OW51025   5.723  10.088  12.442  0.6906 -0.0705  0.1741
14807SOL    HW151026   5.760  10.061  12.358 -0.2232 -0.8786  0.0137
14807SOL    HW251027   5.641  10.131  12.420  1.3876  1.5541  0.5410
14808SOL     OW51028   5.722   8.026   2.523 -0.4715 -0.2303  0.0494
14808SOL    HW151029   5.691   7.996   2.437 -1.4845  0.1433  0.2689
14808SOL    HW251030   5.814   8.049   2.509  0.3355 -3.2042 -0.1763
14809SOL     OW51031   0.672   8.253   4.408 -0.7964 -0.4315 -0.1491
14809SOL    HW151032   0.611   8.327   4.417  0.9909  0.9299  1.8462
14809SOL    HW251033   0.747   8.290   4.361 -0.2363 -1.2136  0.1128
14810SOL     OW51034   1.078  12.649  12.254 -0.3613  0.6474  0.6818
14810SOL    HW151035   1.148  12.639  12.189 -2.5419 -0.6101 -1.6891
14810SOL    HW251036   1.091  12.577  12.315  0.6595  0.7132  0.5644
14811SOL     OW51037   4.270  12.063   4.848  0.0433 -0.0561  0.6822
14811SOL    HW151038   4.303  12.105   4.927 -0.0398  0.8116  0.2683
14811SOL    HW251039   4.304  11.973   4.852  1.9491  0.6064  0.5935
14812SOL     OW51040   6.907   0.876   8.970  0.2505 -0.8504 -0.0020
14812SOL    HW151041   6.852   0.797   8.965 -0.6021 -0.2462 -0.4885
14812SOL    HW251042   6.860   0.935   9.029  0.1097 -0.1331 -0.8106
14813SOL     OW51043   5.006   6.904  12.042  0.1889  0.6303 -0.5898
14813SOL    HW151044   5.057   6.840  12.091  1.9449  0.4763 -2.4510
14813SOL    HW251045   4.919   6.866  12.036 -0.5488  1.2515  3.3611
14814SOL     OW51046   2.144   0.675   1.058  0.3481 -0.2631  0.1163
14814SOL    HW151047   2.211   0.733   1.022  0.7301  0.0978  1.3621
14814SOL    HW251048   2.062   0.723   1.047  0.8440  1.4037  2.7322
14815SOL     OW51049   1.632   5.925   3.227  0.1532 -0.0758  0.0512
14815SOL    HW151050   1.655   5.862   3.158 -1.4230 -0.9440  0.2746
14815SOL    HW251051   1.633   6.010   3.183 -4.1117 -0.8406 -2.1135
14816SOL     OW51052   4.644   4.902   1.844  0.3236  0.6437 -0.1297
14816SOL    HW151053   4.660   4.849   1.923  1.9275 -1.3904 -1.6906
14816SOL    HW251054   4.728   4.945   1.827  0.4652 -0.1419 -1.5324
14817SOL     OW51055   2.105   8.004   7.707  0.2782  0.1667  0.3485
14817SOL    HW151056   2.152   8.002   7.623  0.7674 -0.3822  0.6237
14817SOL    HW251057   2.058   7.920   7.711 -1.7122  1.1819 -0.4469
14818SOL     OW51058   2.271   3.997   3.244 -0.1954  0.1559  0.4534
14818SOL    HW151059   2.204   3.930   3.233  0.6980 -0.5773 -0.7435
14818SOL    HW251060   2.313   4.004   3.158  0.3710  1.5567  0.8196
14819SOL     OW51061  12.112   6.004   2.408  0.3057 -0.4550 -0.2155
14819SOL    HW151062  12.063   5.922   2.414 -2.3124  0.8932 -1.4586
14819SOL    HW251063  12.092   6.050   2.489 -1.1302  0.3848 -1.0154
14820SOL     OW51064   8.290   6.056   2.801 -0.2073  0.0479  0.0923
14820SOL    HW151065   8.275   5.973   2.754 -1.5201  0.2328  0.1365
14820SOL    HW251066   8.383   6.074   2.788 -0.4079 -0.1752 -2.0232
14821SOL     OW51067   0.913   0.229   0.204 -0.4199  0.1589 -0.5868
14821SOL    HW151068   0.980   0.232   0.136 -1.4126  1.3120 -1.5695
14821SOL    HW251069   0.962   0.233   0.286  0.7780 -0.5431 -1.2393
14822SOL     OW51070   1.956   1.994   3.523  0.1761  0.0348 -0.9514
14822SOL    HW151071   1.908   1.919   3.557 -0.3527  0.0483 -1.6613
14822SOL    HW251072   2.020   1.956   3.462  0.1164  0.1351 -1.0769
14823SOL     OW51073   8.085  10.651   7.676  0.0977  0.3912 -0.4734
14823SOL    HW151074   8.140  10.672   7.601 -0.5316 -0.5952 -1.2386
14823SOL    HW251075   8.128  10.575   7.716  0.1914  0.6430 -0.0940
14824SOL     OW51076   8.867   7.181   8.835  0.1459 -0.3124 -0.0385
14824SOL    HW151077   8.877   7.246   8.903 -0.5116 -0.9144  0.6446
14824SOL    HW251078   8.778   7.192   8.803 -0.1752 -1.2574  0.4983
14825SOL     OW51079  10.027   9.143   8.809 -0.1925 -0.2474  0.1869
14825SOL    HW151080  10.016   9.205   8.880 -2.6681 -1.8764  1.3640
14825SOL    HW251081  10.003   9.192   8.730  3.3393  1.8035  0.2207
14826SOL     OW51082  11.247   5.641  10.768 -0.1463  0.0963 -0.7677
14826SOL    HW151083  11.285   5.585  10.701  0.6032  0.1135 -0.3598
14826SOL    HW251084  11.156   5.611  10.775  0.7053 -2.3760  0.7883
14827SOL     OW51085  11.929   6.133   8.620  0.1105 -0.1040  0.5180
14827SOL    HW151086  12.004   6.078   8.640  0.6423  1.0213  1.8046
14827SOL    HW251087  11.933   6.147   8.525  1.2166 -0.4949  0.4957
14828SOL     OW51088   5.300   6.085   7.207  0.5296  0.3749  0.0318
14828SOL    HW151089   5.214   6.123   7.189  0.9409  0.9141 -0.8822
14828SOL    HW251090   5.353   6.158   7.239  0.1684 -0.3145  2.4077
14829SOL     OW51091   5.768   7.227   1.686  0.1318 -0.0125 -0.7686
14829SOL    HW151092   5.815   7.233   1.769 -0.0782 -1.9209 -0.4523
14829SOL    HW251093   5.715   7.307   1.682 -0.3890 -0.1974  1.2920
14830SOL     OW51094   7.618   8.314  10.588 -0.4093 -0.0856  0.5454
14830SOL    HW151095   7.709   8.294  10.609  0.2915  0.7254 -1.4127
14830SOL    HW251096   7.581   8.230  10.559  0.1794 -0.1462 -0.0626
14831SOL     OW51097   0.276   4.888   1.171 -0.1456  0.1269 -0.3404
14831SOL    HW151098   0.262   4.812   1.228  0.8303 -1.4748 -2.0928
14831SOL    HW251099   0.199   4.942   1.183 -1.1722 -1.4479  0.5652
14832SOL     OW51100  11.379  12.374   7.706  0.2238 -0.5264 -0.5599
14832SOL    HW151101  11.451  12.419   7.662  1.5545 -1.8826  0.1073
14832SOL    HW251102  11.336  12.324   7.637  1.4947 -1.6324 -0.6036
14833SOL     OW51103   0.206   1.498   6.607  0.0740 -0.3429 -0.2965
14833SOL    HW151104   0.230   1.441   6.534 -1.4464 -0.2749 -0.8965
14833SOL    HW251105   0.134   1.452   6.651  0.3556  0.0524  0.6142
14834SOL     OW51106  10.790   4.037   4.570  0.0142 -0.1518  0.1481
14834SOL    HW151107  10.879   4.025   4.536 -0.2300  0.3157 -0.6894
14834SOL    HW251108  10.803   4.077   4.656  0.6184 -0.3092  0.1383
14835SOL     OW51109   5.140   1.193   8.668  0.1456  0.6123  0.4586
14835SOL    HW151110   5.219   1.218   8.621 -0.3826  0.3368 -0.6189
14835SOL    HW251111   5.080   1.267   8.654 -0.0344  0.5038  0.6470
14836SOL     OW51112   3.933  12.217  12.600 -0.0356  0.0566 -0.7013
14836SOL    HW151113   3.928  12.140  12.543  2.4709 -1.1622  0.5434
14836SOL    HW251114   3.964  12.287  12.543 -0.2512 -0.3986 -1.3973
14837SOL     OW51115   4.987  12.342   7.773 -0.0482 -0.1864  0.2579
14837SOL    HW151116   5.074  12.305   7.786  0.0143  0.0818  0.5992
14837SOL    HW251117   4.988  12.425   7.820 -0.2204  0.2078 -0.4069
14838SOL     OW51118  10.156   5.133   3.458  0.7809 -0.0802 -0.3956
14838SOL    HW151119  10.066   5.102   3.470  0.9697  0.0480  1.7814
14838SOL    HW251120  10.210   5.055   3.472  1.0634  0.1662 -0.1156
14839SOL     OW51121   8.362   5.976   3.677  0.2799 -0.1526  0.2615
14839SOL    HW151122   8.363   5.880   3.674 -1.0174 -0.1700 -1.1403
14839SOL    HW251123   8.301   6.001   3.607  1.2900  1.7265 -0.0063
14840SOL     OW51124   9.825   1.879   1.961 -0.7253 -0.2495  0.3111
14840SOL    HW151125   9.776   1.929   1.896 -1.1664 -2.1772 -0.9091
14840SOL    HW251126   9.757   1.834   2.012 -0.3149 -1.3181 -0.0534
14841SOL     OW51127  11.429   4.501  12.276  0.3703  0.4238 -0.4933
14841SOL    HW151128  11.373   4.579  12.281  0.3151  0.3733 -0.3342
14841SOL    HW251129  11.368   4.427  12.276  0.4317  0.3737 -0.4522
14842SOL     OW51130   6.051   6.711  11.912  0.5071 -0.3341 -0.3494
14842SOL    HW151131   5.988   6.783  11.904 -0.5867 -1.2335 -0.0200
14842SOL    HW251132   6.115   6.743  11.977 -0.2157  0.1720  0.1256
14843SOL     OW51133   6.378   6.716   0.825 -0.6068 -0.7047  0.0638
14843SOL    HW151134   6.395   6.796   0.775  0.0295 -0.2555  0.9430
14843SOL    HW251135   6.285   6.721   0.848 -1.0146 -1.1460 -1.4266
14844SOL     OW51136  10.253   9.286   2.562 -0.2914  0.0389 -0.2256
14844SOL    HW151137  10.223   9.195   2.567 -0.4842  0.0312 -1.3773
14844SOL    HW251138  10.327   9.283   2.502  2.5981 -0.0665  3.0472
14845SOL     OW51139   2.720   5.683  10.762  0.3929  0.5535 -0.0050
14845SOL    HW151140   2.714   5.750  10.694  0.7183  0.1591 -0.4284
14845SOL    HW251141   2.771   5.613  10.722 -1.1095 -0.5514 -0.0469
14846SOL     OW51142   2.671   3.898   0.339 -0.3236  0.6256  0.2910
14846SOL    HW151143   2.670   3.924   0.247 -0.3827  0.4304  0.2380
14846SOL    HW251144   2.602   3.950   0.380 -0.7065  0.2591  0.1078
14847SOL     OW51145   2.479   5.913   4.952  0.1265  0.2661  0.3126
14847SOL    HW151146   2.429   5.994   4.943  0.6734  0.4182 -2.2981
14847SOL    HW251147   2.568   5.936   4.926  0.6451 -0.8670  0.9928
14848SOL     OW51148   3.270  12.399   9.002 -0.8008 -0.1852  0.1890
14848SOL    HW151149   3.275  12.332   9.070 -0.0733  1.7071  2.1194
14848SOL    HW251150   3.177  12.424   9.001 -0.8904 -0.5052  0.1747
14849SOL     OW51151  10.955   2.069   0.167 -0.4482  0.1045 -0.2770
14849SOL    HW151152  10.886   2.044   0.229 -1.0218 -1.0313 -1.3129
14849SOL    HW251153  11.020   2.115   0.220 -0.5768 -1.4333  1.3076
14850SOL     OW51154   0.144   5.668   2.846 -0.0381  0.1613 -0.0277
14850SOL    HW151155   0.097   5.672   2.929 -1.8450 -0.8665 -0.9316
14850SOL    HW251156   0.083   5.625   2.786  1.8555 -0.7097 -1.4556
14851SOL     OW51157   1.915  12.525   1.196  0.4108  0.0390 -0.3072
14851SOL    HW151158   1.862  12.450   1.169  1.7575 -0.3540 -2.0715
14851SOL    HW251159   1.998  12.488   1.224  1.4071  0.8587 -2.0172
14852SOL     OW51160   3.083  10.907   1.324  0.1655  0.2449  0.0747
14852SOL    HW151161   3.028  10.942   1.394  0.3992  0.2524  0.2547
14852SOL    HW251162   3.166  10.884   1.367  0.8306  1.5667 -0.4413
14853SOL     OW51163  11.016   5.005  11.207  0.3252  0.2886  0.4960
14853SOL    HW151164  11.058   5.068  11.149  1.0682 -1.3216 -0.8143
14853SOL    HW251165  10.923   5.029  11.205  0.4854  0.8923 -0.5521
14854SOL     OW51166  10.990  11.846   9.553  0.4033 -0.2902 -0.0715
14854SOL    HW151167  10.941  11.855   9.472 -0.3303  0.3956  0.4374
14854SOL    HW251168  11.075  11.886   9.534  0.0871  0.2461 -0.3654
14855SOL     OW51169   5.414   5.717   6.320  0.1127  0.0919  0.0210
14855SOL    HW151170   5.453   5.629   6.323  0.3509  0.1845 -0.2234
14855SOL    HW251171   5.365   5.718   6.238  1.0805  0.5747 -0.5791
14856SOL     OW51172   1.485   9.482   1.228 -0.0420 -0.5579 -0.4872
14856SOL    HW151173   1.459   9.557   1.175 -1.8220 -0.4099  0.4884
14856SOL    HW251174   1.478   9.407   1.169 -0.9990 -0.2734 -0.7642
14857SOL     OW51175   4.774   8.828   8.397 -0.1196  0.1420  0.5420
14857SOL    HW151176   4.829   8.856   8.325 -0.9958 -0.9051 -0.5843
14857SOL    HW251177   4.832   8.780   8.455  0.5071  0.6141  0.3099
14858SOL     OW51178  12.344   1.265   2.063 -0.1708 -0.4957 -0.1104
14858SOL    HW151179  12.298   1.181   2.073  2.0393 -1.7207  0.3503
14858SOL    HW251180  12.367   1.291   2.152 -0.5020  0.4306 -0.2838
14859SOL     OW51181  10.489   4.888   1.461 -0.0704  0.4286  0.2525
14859SOL    HW151182  10.445   4.966   1.495 -0.8075 -0.3741  1.2124
14859SOL    HW251183  10.546   4.861   1.533  0.8219  0.5471 -0.3930
14860SOL     OW51184   6.912   0.222   1.913 -0.1725  0.3526  0.6238
14860SOL    HW151185   6.823   0.195   1.936 -0.1270 -1.4883 -1.0685
14860SOL    HW251186   6.924   0.305   1.959 -3.5087  1.7627 -0.6902
14861SOL     OW51187  12.195  12.236   1.882 -0.5541  0.2767  0.2402
14861SOL    HW151188  12.266  12.282   1.836 -1.6617  1.2562 -0.5547
14861SOL    HW251189  12.129  12.220   1.814 -0.4531 -2.0584  0.6058
14862SOL     OW51190   6.856  12.419   4.080 -0.6901  0.0975  0.1679
14862SOL    HW151191   6.840  12.446   3.989  1.7711  1.0860 -0.0748
14862SOL    HW251192   6.824  12.492   4.132  0.8017  1.0551 -0.1679
14863SOL     OW51193   8.983   7.727   8.911 -0.5074 -0.2004 -0.2973
14863SOL    HW151194   9.007   7.725   9.004 -2.1466  0.7662  0.1739
14863SOL    HW251195   8.997   7.637   8.881 -0.7310 -0.7141  1.0872
14864SOL     OW51196   8.241   5.255   0.808  0.3344  0.1826  0.1095
14864SOL    HW151197   8.314   5.304   0.846  0.4584  0.2452 -0.2022
14864SOL    HW251198   8.171   5.260   0.873  0.0586  1.4594 -0.2575
14865SOL     OW51199   4.286   1.592  10.491  0.6774  0.1642 -0.1647
14865SOL    HW151200   4.281   1.593  10.396  0.8747 -0.7676 -0.1910
14865SOL    HW251201   4.285   1.684  10.516  1.3063  0.4362 -1.0979
14866SOL     OW51202  11.477   1.101  11.718 -0.0812  0.2033  0.4384
14866SOL    HW151203  11.474   1.170  11.784 -0.3742  0.5108  0.1046
14866SOL    HW251204  11.465   1.020  11.767  0.4751  0.3694  0.8599
14867SOL     OW51205   0.033  11.783  12.515 -0.5757  0.1977  0.2587
14867SOL    HW151206  -0.034  11.843  12.483 -0.3389  0.4437  0.2288
14867SOL    HW251207   0.108  11.797  12.457 -0.2488  0.4273  0.7337
14868SOL     OW51208  11.908   1.516   6.614  0.7884  0.0776 -0.2148
14868SOL    HW151209  11.929   1.454   6.544  0.0689  0.7121 -1.0192
14868SOL    HW251210  11.831   1.479   6.657 -0.0206  0.6987 -1.0932
14869SOL     OW51211   4.789  11.050   1.650  0.3050  0.3582 -0.3626
14869SOL    HW151212   4.847  11.115   1.609  0.4255  1.5020  1.4850
14869SOL    HW251213   4.847  10.980   1.678  0.2607 -0.2823 -1.8113
14870SOL     OW51214  10.620   6.194   0.536  0.3264 -0.0864  0.2267
14870SOL    HW151215  10.619   6.099   0.542 -0.3285 -0.0772  0.3313
14870SOL    HW251216  10.712   6.218   0.546  0.4789 -0.6998  0.3147
14871SOL     OW51217  11.525  10.933   8.194 -0.2910  0.1879 -0.6292
14871SOL    HW151218  11.452  10.902   8.247 -0.1872  0.0122 -0.5878
14871SOL    HW251219  11.602  10.890   8.231  0.2589  2.4841  1.1342
14872SOL     OW51220  12.693  11.854  12.745 -0.4461  0.2292 -0.4723
14872SOL    HW151221  12.783  11.886  12.745 -0.2007 -0.2719  1.9573
14872SOL    HW251222  12.699  11.761  12.724 -0.4190  0.2181 -0.4114
14873SOL     OW51223  11.980   0.399  11.516 -0.0528 -0.0042  0.0223
14873SOL    HW151224  11.914   0.349  11.467  0.8790 -1.2494 -0.0011
14873SOL    HW251225  12.025   0.333  11.569  0.3251  1.0252  1.0104
14874SOL     OW51226   2.332  12.669   0.094 -0.0729 -0.0744  0.0913
14874SOL    HW151227   2.328  12.590   0.040  0.5740 -0.8680  1.1664
14874SOL    HW251228   2.424  12.696   0.091  0.1904 -0.6842  1.5158
14875SOL     OW51229   7.655   1.690   8.611  0.2541  0.0744 -0.2730
14875SOL    HW151230   7.678   1.778   8.579  2.0509 -0.3946 -0.3324
14875SOL    HW251231   7.731   1.661   8.660  0.1663 -1.9258 -1.2345
14876SOL     OW51232   7.868   4.989   3.764 -0.3377 -0.3247 -0.0630
14876SOL    HW151233   7.851   4.922   3.698 -3.1994 -0.0021  0.2317
14876SOL    HW251234   7.834   5.069   3.726  2.2594  0.9050 -0.0416
14877SOL     OW51235   6.811  12.206   5.451  0.5212  0.4201  0.1277
14877SOL    HW151236   6.715  12.212   5.444  0.2912 -0.0460  2.1186
14877SOL    HW251237   6.837  12.153   5.376 -0.8026  0.4316 -0.3728
14878SOL     OW51238   3.222   7.243   8.497  0.1638 -0.1371 -0.1058
14878SOL    HW151239   3.129   7.231   8.515  0.6021  0.7683  3.6844
14878SOL    HW251240   3.228   7.250   8.402 -3.6519  0.0705 -0.4698
14879SOL     OW51241   4.418   3.324   7.063 -0.2275 -0.5466  0.2074
14879SOL    HW151242   4.331   3.363   7.055 -0.3160 -0.5596  0.9559
14879SOL    HW251243   4.437   3.329   7.157  0.8093 -0.0464 -0.0101
14880SOL     OW51244   7.970  10.818   7.942 -0.3587  0.1553 -0.0789
14880SOL    HW151245   8.046  10.809   7.886  1.4117 -2.1847  2.4345
14880SOL    HW251246   8.002  10.869   8.017 -0.7128 -2.1283  1.7253
14881SOL     OW51247   6.022  10.215  11.896 -0.0091  0.1477 -0.4031
14881SOL    HW151248   5.982  10.296  11.928 -0.0663 -0.0567  0.0521
14881SOL    HW251249   5.960  10.146  11.921  0.5549 -0.1569  0.1900
14882SOL     OW51250   5.527  12.291   7.818 -0.2329 -0.3145 -0.1200
14882SOL    HW151251   5.549  12.374   7.775  1.2309 -0.7911 -0.3246
14882SOL    HW251252   5.522  12.227   7.747 -1.3464 -0.4305  0.0405
14883SOL     OW51253   9.052  11.422  11.319  0.1343 -0.1119  0.3986
14883SOL    HW151254   9.045  11.388  11.408 -1.5188 -0.1359  0.2985
14883SOL    HW251255   9.066  11.344  11.265  2.9015  0.0532  0.7417
14884SOL     OW51256   2.934   4.825  11.094  0.8419  0.7628  0.7641
14884SOL    HW151257   2.852   4.874  11.090  1.2462  1.3739 -1.7620
14884SOL    HW251258   3.001   4.888  11.065  1.6473 -0.7027 -0.7236
14885SOL     OW51259   0.379   1.335   0.996  0.0209  0.2853  0.4005
14885SOL    HW151260   0.354   1.426   0.979  1.2609  0.8206  1.2912
14885SOL    HW251261   0.315   1.284   0.947 -0.7968  1.6268 -0.0123
14886SOL     OW51262   8.961   0.854   8.878  0.4259  0.5708 -0.0544
14886SOL    HW151263   8.986   0.858   8.971  2.6287  0.5417 -0.5996
14886SOL    HW251264   8.908   0.775   8.871 -1.8644  1.8164  1.5839
14887SOL     OW51265   2.995   8.624  10.724  0.6032 -0.4255  0.1010
14887SOL    HW151266   2.978   8.668  10.807 -0.8114 -1.4314  0.3878
14887SOL    HW251267   3.030   8.538  10.749  2.4112  0.1260 -0.4206
14888SOL     OW51268   0.640   3.947   9.100  0.2334 -0.4144 -0.2078
14888SOL    HW151269   0.688   4.029   9.113 -0.0727 -0.4809  1.5298
14888SOL    HW251270   0.551   3.966   9.127 -0.1208 -1.0206 -0.9000
14889SOL     OW51271  11.473   6.730   3.943 -0.0256  0.7013  0.0581
14889SOL    HW151272  11.458   6.808   3.890  0.4157 -0.0879 -1.2822
14889SOL    HW251273  11.560   6.743   3.981 -0.7325  1.7021  1.4113
14890SOL     OW51274  10.606   2.702   7.353  0.3589 -0.6258  0.5035
14890SOL    HW151275  10.561   2.777   7.316  0.7922 -0.5829  0.0531
14890SOL    HW251276  10.542   2.631   7.349 -0.4855  0.0084  2.0873
14891SOL     OW51277   1.565   7.701   2.223 -0.1823  0.3566 -0.1360
14891SOL    HW151278   1.656   7.695   2.252 -0.4132  1.0125  0.7746
14891SOL    HW251279   1.565   7.664   2.135  0.8868 -0.0271  0.0152
14892SOL     OW51280  12.242   1.606   9.688  0.0713  0.0610  0.4481
14892SOL    HW151281  12.157   1.637   9.720 -1.1140 -0.6060 -1.8760
14892SOL    HW251282  12.231   1.512   9.678  1.7348 -0.3440  1.8155
14893SOL     OW51283   7.221   5.007  10.050  0.1300 -0.0554  0.0751
14893SOL    HW151284   7.310   5.038  10.034 -0.4995  1.2247 -1.1746
14893SOL    HW251285   7.183   5.071  10.110 -0.5190  0.5006 -0.8885
14894SOL     OW51286   4.416   2.421  10.658 -0.4041  0.4398 -0.2431
14894SOL    HW151287   4.406   2.347  10.598 -0.1476  0.0911  0.1406
14894SOL    HW251288   4.510   2.440  10.658 -0.4473  0.6618 -0.2154
14895SOL     OW51289   2.868   8.319  11.404 -0.1999  0.4980  0.3016
14895SOL    HW151290   2.781   8.356  11.418 -0.2943 -0.1648  1.6299
14895SOL    HW251291   2.869   8.239  11.457  0.9396  0.0763 -0.3235
14896SOL     OW51292   0.140   4.432   1.233 -0.2040  0.0802  0.1064
14896SOL    HW151293   0.067   4.383   1.195  0.9338 -1.7342  0.1371
14896SOL    HW251294   0.214   4.415   1.174  0.6516  0.3014  1.0823
14897SOL     OW51295   7.573   2.051   8.765 -0.3817  0.0108  0.1850
14897SOL    HW151296   7.569   2.123   8.829 -0.9968 -0.5370  0.7807
14897SOL    HW251297   7.629   1.986   8.807  0.5047  0.2910 -0.5303
14898SOL     OW51298   3.814   1.542   5.193  0.0597 -0.1311 -0.0262
14898SOL    HW151299   3.740   1.562   5.251 -1.5654 -0.4008 -1.8754
14898SOL    HW251300   3.874   1.615   5.205 -0.5991  0.2262  1.3749
14899SOL     OW51301   7.389   7.517   9.812  0.0384  0.3378  0.0282
14899SOL    HW151302   7.345   7.583   9.757  0.6798  1.7194  1.1144
14899SOL    HW251303   7.438   7.568   9.876  0.1845 -1.2201  1.2136
14900SOL     OW51304   7.290   7.311   2.590 -0.0303 -0.2076  0.1372
14900SOL    HW151305   7.215   7.371   2.587  1.9280  2.5652  1.8275
14900SOL    HW251306   7.252   7.226   2.612 -2.8227  0.5963 -1.0737
14901SOL     OW51307   8.008   8.836   1.856  0.0816 -0.3947 -0.0389
14901SOL    HW151308   8.078   8.822   1.921  1.1756 -0.8425 -1.2721
14901SOL    HW251309   8.029   8.920   1.816  2.3345 -2.2559 -3.1925
14902SOL     OW51310   8.307   2.818   5.544  0.6452 -0.0201  0.1971
14902SOL    HW151311   8.350   2.742   5.584  1.1210  0.3588  0.4164
14902SOL    HW251312   8.303   2.883   5.615  1.2439  0.5601 -0.2930
14903SOL     OW51313   2.084   0.259  12.740  0.1986  0.4495 -0.2788
14903SOL    HW151314   2.179   0.268  12.730  0.1076  1.7784 -0.1775
14903SOL    HW251315   2.073   0.184  12.799  1.1592 -0.0076 -0.6561
14904SOL     OW51316   1.594   0.074   2.159  0.2949  0.3389 -0.2204
14904SOL    HW151317   1.637   0.143   2.109  1.1807  0.7887  1.0834
14904SOL    HW251318   1.545   0.121   2.227  0.7334 -0.2920  0.5519
14905SOL     OW51319  11.490   3.345  10.649 -0.1302 -0.4262 -0.1857
14905SOL    HW151320  11.547   3.275  10.616  0.5790  0.6320 -1.2698
14905SOL    HW251321  11.419   3.298  10.693  0.6447 -1.8181 -0.3453
14906SOL     OW51322   2.464   2.557  11.721  0.1360  0.1241 -0.2654
14906SOL    HW151323   2.436   2.466  11.728  2.0014 -0.4175  0.8392
14906SOL    HW251324   2.559   2.554  11.726  0.3189  2.0581 -1.3608
14907SOL     OW51325   8.719   8.999  10.462 -0.0914  0.3818  0.3704
14907SOL    HW151326   8.758   9.008  10.549  1.0555 -1.0605  0.0532
14907SOL    HW251327   8.790   8.965  10.407 -1.8039 -2.8196 -0.1485
14908SOL     OW51328   5.116   5.100  10.071  0.3617  0.1992  0.0733
14908SOL    HW151329   5.037   5.141  10.104 -0.1623 -0.8960  0.2342
14908SOL    HW251330   5.164   5.073  10.150  0.4794  0.0964 -0.0322
14909SOL     OW51331   8.505   4.776   4.167  0.0239  0.2877  0.6713
14909SOL    HW151332   8.523   4.732   4.084 -1.6480 -0.4469  0.6635
14909SOL    HW251333   8.439   4.842   4.144  0.0567  0.5376  1.2974
14910SOL     OW51334  12.423  11.605   9.262 -0.3307 -0.2098 -0.0467
14910SOL    HW151335  12.462  11.658   9.191  0.9099 -0.5063  0.3802
14910SOL    HW251336  12.344  11.569   9.224  0.9275 -1.3527 -1.7379
14911SOL     OW51337  10.997   3.692  12.053 -0.3269 -0.0752  0.3065
14911SOL    HW151338  11.038   3.776  12.073 -1.6471  1.2948 -2.2280
14911SOL    HW251339  11.026   3.672  11.963 -1.4185 -1.4489  0.2256
14912SOL     OW51340   2.780   9.608   6.185  0.8195 -0.0050  0.7516
14912SOL    HW151341   2.734   9.547   6.243 -2.2198 -0.0586 -1.4376
14912SOL    HW251342   2.806   9.681   6.241 -0.3279 -0.8534  2.4670
14913SOL     OW51343   0.497  12.660   3.169 -0.0171  0.1266 -0.4184
14913SOL    HW151344   0.511  12.721   3.096 -1.4682  0.0417 -0.8135
14913SOL    HW251345   0.512  12.713   3.247  1.0520  0.3589 -0.7699
14914SOL     OW51346   5.340  10.429   8.572 -0.1557  0.1818  0.0437
14914SOL    HW151347   5.325  10.335   8.559  1.0694 -0.2501  1.4656
14914SOL    HW251348   5.368  10.461   8.486 -1.1567 -0.6174 -0.5972
14915SOL     OW51349   8.914  10.641   3.898 -0.6928 -0.2275 -0.0156
14915SOL    HW151350   8.842  10.584   3.927 -0.5321 -1.5731 -2.0013
14915SOL    HW251351   8.933  10.697   3.973 -3.6204  0.0014  0.6860
14916SOL     OW51352   2.840   1.548   2.749  0.0427 -0.5873  0.0658
14916SOL    HW151353   2.802   1.513   2.830  1.4663  0.4373  1.2363
14916SOL    HW251354   2.884   1.629   2.776  0.7134 -0.3120 -1.7109
14917SOL     OW51355   5.240   3.182   7.819 -0.1512 -0.1120 -0.1808
14917SOL    HW151356   5.148   3.182   7.843  0.2710 -0.3132  1.6132
14917SOL    HW251357   5.248   3.113   7.753 -1.3135  0.0630 -0.5128
14918SOL     OW51358  12.555   3.166   3.912 -0.2676  0.6095  0.0006
14918SOL    HW151359  12.618   3.192   3.979  1.1923 -1.2870 -0.5671
14918SOL    HW251360  12.557   3.238   3.849  0.3207  1.1900  0.6641
14919SOL     OW51361  11.747   6.679   2.163 -0.4444 -0.0896 -0.7468
14919SOL    HW151362  11.769   6.705   2.074 -0.7226 -0.0658 -0.8096
14919SOL    HW251363  11.663   6.633   2.154  0.4074 -1.7277 -0.7652
14920SOL     OW51364   4.698  10.296  11.461 -0.6690 -0.0529  0.2044
14920SOL    HW151365   4.628  10.346  11.501 -0.8149 -0.5489  0.5821
14920SOL    HW251366   4.693  10.318  11.368 -0.6584  0.7072  0.3771
14921SOL     OW51367   6.234   2.726   4.312  0.3449  0.2551 -0.3923
14921SOL    HW151368   6.311   2.682   4.276  0.0644 -1.1009  0.5672
14921SOL    HW251369   6.256   2.819   4.312  2.0016 -0.1143 -0.0839
14922SOL     OW51370   7.203   4.895   2.346  0.5006  0.1330 -0.5150
14922SOL    HW151371   7.233   4.959   2.281  0.3487  0.5226 -0.2087
14922SOL    HW251372   7.283   4.870   2.393  0.2820  1.8764  0.9303
14923SOL     OW51373   3.243   9.330   3.870 -0.1060  0.3109 -0.5025
14923SOL    HW151374   3.204   9.294   3.950  1.1311  0.8683  0.3630
14923SOL    HW251375   3.291   9.256   3.832  0.5970  0.4492  0.1027
14924SOL     OW51376   3.439   5.053   1.025  0.1404 -0.1481 -0.0272
14924SOL    HW151377   3.433   4.970   1.072 -0.3408  0.5168  1.1322
14924SOL    HW251378   3.394   5.115   1.081 -1.6255  0.4448 -1.9843
14925SOL     OW51379  11.951   2.940   6.115  0.2488 -0.2964  0.3650
14925SOL    HW151380  11.869   2.891   6.110  0.8132 -1.2954  0.7383
14925SOL    HW251381  12.019   2.873   6.126  1.1880  0.4601 -0.5819
14926SOL     OW51382   7.558   9.024   6.553 -0.3979  0.0578  0.5105
14926SOL    HW151383   7.518   9.101   6.513  0.2015 -0.0498 -0.3192
14926SOL    HW251384   7.651   9.043   6.556 -0.2944 -0.4519  0.7247
14927SOL     OW51385  10.199   4.824   7.854 -0.2716  0.3599  0.0778
14927SOL    HW151386  10.220   4.747   7.801 -0.7764  0.4651 -0.2851
14927SOL    HW251387  10.240   4.806   7.939  0.4429  0.1400 -0.3101
14928SOL     OW51388   0.271  10.667  10.279  0.2681  0.4630  0.2628
14928SOL    HW151389   0.336  10.671  10.349  0.1737 -0.6388  0.4452
14928SOL    HW251390   0.266  10.574  10.257 -2.0641  0.3066  1.0649
14929SOL     OW51391  12.197  11.908   7.244  0.6127 -0.0287  0.5413
14929SOL    HW151392  12.185  11.985   7.189 -0.1360 -0.0823  0.6247
14929SOL    HW251393  12.291  11.891   7.240  0.8319  1.0631  0.7616
14930SOL     OW51394   2.768   9.863   1.674 -0.2140 -0.4543 -0.0193
14930SOL    HW151395   2.829   9.790   1.661  0.1377 -0.3921  1.1785
14930SOL    HW251396   2.809   9.937   1.630 -0.0994 -0.7405 -0.3985
14931SOL     OW51397   6.367   5.015   4.461  0.3564 -0.2424 -0.1328
14931SOL    HW151398   6.338   5.061   4.382  0.0745 -0.0448  0.0818
14931SOL    HW251399   6.454   5.050   4.478 -0.3333  1.1504  0.7328
14932SOL     OW51400   1.029   8.015   2.516  0.2257  0.0981 -0.0270
14932SOL    HW151401   1.071   8.002   2.431  2.4259  0.7164  0.9098
14932SOL    HW251402   1.055   8.103   2.542  0.2934 -0.3994  1.6794
14933SOL     OW51403   0.257   8.690  11.767 -0.2912 -0.6891 -0.1515
14933SOL    HW151404   0.253   8.681  11.672  0.8520  2.0225 -0.5335
14933SOL    HW251405   0.313   8.618  11.795  2.2760  0.4211 -1.9893
14934SOL     OW51406   6.718  12.295   6.312 -0.1729 -0.1019  0.1948
14934SOL    HW151407   6.666  12.299   6.393  0.3168 -1.0880  0.5721
14934SOL    HW251408   6.664  12.340   6.247  0.2182  2.4088  1.4706
14935SOL     OW51409   0.114   6.603   2.352 -0.2366  0.8640 -0.1717
14935SOL    HW151410   0.124   6.543   2.278 -0.1388 -0.3603  0.8104
14935SOL    HW251411   0.025   6.637   2.342 -0.1401  0.9092 -0.9814
14936SOL     OW51412   8.759   3.957   1.983  0.0818 -0.4400 -0.6174
14936SOL    HW151413   8.794   3.968   1.894 -1.4504  0.1258 -1.1972
14936SOL    HW251414   8.699   3.882   1.975  0.1737 -0.5809  0.0147
14937SOL     OW51415   3.346   5.194   5.572  0.4558 -0.2770  0.5835
14937SOL    HW151416   3.410   5.124   5.557 -1.8846 -2.0405 -2.4972
14937SOL    HW251417   3.291   5.160   5.643  0.4800 -0.6932  0.4106
14938SOL     OW51418   9.144   6.765   3.265 -0.1135 -0.0146 -0.4496
14938SOL    HW151419   9.121   6.774   3.357 -0.9934  0.3032 -0.6962
14938SOL    HW251420   9.233   6.728   3.266  1.6067  3.6267  0.6068
14939SOL     OW51421   5.695   4.994   8.236  0.1317  0.0729 -0.3169
14939SOL    HW151422   5.755   4.963   8.168 -0.6531 -1.6839 -0.2880
14939SOL    HW251423   5.623   5.035   8.188  0.3083  0.2014 -0.4711
14940SOL     OW51424   2.200   1.608   2.804 -0.1407 -0.1112  0.3161
14940SOL    HW151425   2.176   1.578   2.892  1.1461 -0.0429  0.7153
14940SOL    HW251426   2.117   1.638   2.766 -0.4140  2.3547  2.4842
14941SOL     OW51427   3.219  12.320  11.908 -0.0884 -0.2810 -0.9280
14941SOL    HW151428   3.136  12.358  11.939 -0.7113 -0.8882 -1.7861
14941SOL    HW251429   3.280  12.393  11.905 -0.5351  0.1409 -0.0975
14942SOL     OW51430   8.531   9.166  10.773  0.1173  0.6419 -0.2018
14942SOL    HW151431   8.487   9.153  10.689 -1.0184 -1.7330  0.6741
14942SOL    HW251432   8.615   9.121  10.762 -0.4843 -0.6324  0.2431
14943SOL     OW51433   1.514  11.949   4.018  0.2708  0.4031 -0.5962
14943SOL    HW151434   1.593  11.988   4.055  0.8107 -0.5396 -0.7134
14943SOL    HW251435   1.470  12.021   3.973  1.1189  0.9221 -0.6129
14944SOL     OW51436   5.773  11.799   0.511 -0.1555  0.1822 -0.5925
14944SOL    HW151437   5.762  11.710   0.546 -0.5157  1.0913  1.8182
14944SOL    HW251438   5.786  11.854   0.589 -1.3540  2.4443 -1.8744
14945SOL     OW51439   3.463  10.786  11.578  0.0109 -1.0139 -0.1506
14945SOL    HW151440   3.414  10.705  11.562 -1.5088  0.0629 -1.1735
14945SOL    HW251441   3.403  10.856  11.553  1.7682  0.4045 -0.6115
14946SOL     OW51442   3.234   4.616  10.611 -0.2518 -0.1549 -0.7239
14946SOL    HW151443   3.252   4.560  10.686 -0.8591 -0.6507 -0.9489
14946SOL    HW251444   3.289   4.581  10.540  1.9360  1.5563 -0.0020
14947SOL     OW51445  10.324   1.466  10.710  0.0850 -0.2513  0.0173
14947SOL    HW151446  10.289   1.551  10.736 -0.3290  0.0288 -1.3784
14947SOL    HW251447  10.328   1.416  10.792  0.4020  1.1114  0.8736
14948SOL     OW51448   0.291  10.432   5.750  0.1248 -0.9908  0.1147
14948SOL    HW151449   0.264  10.474   5.669 -0.2415  0.1602  0.8086
14948SOL    HW251450   0.383  10.409   5.737  0.6131  0.8676  0.0207
14949SOL     OW51451   7.581  12.582  12.363  0.1440  0.3218 -0.3519
14949SOL    HW151452   7.607  12.635  12.439 -2.2654 -0.0896  0.8420
14949SOL    HW251453   7.650  12.516  12.355 -0.0424 -0.2356  2.1089
14950SOL     OW51454   4.036  12.699   0.018  0.3960  0.4400 -0.4476
14950SOL    HW151455   4.084  12.755   0.079 -0.5931 -1.0297  1.8052
14950SOL    HW251456   4.090  12.621   0.008 -0.6014 -0.4318  0.6590
14951SOL     OW51457  11.920   8.031   4.318  0.4448 -0.0273  0.4895
14951SOL    HW151458  11.882   8.016   4.231  0.6486  1.1862  0.1744
14951SOL    HW251459  11.845   8.026   4.378  0.2025 -0.2184  0.1757
14952SOL     OW51460   8.260   0.606   0.378  0.0998  0.1311  0.0040
14952SOL    HW151461   8.257   0.578   0.286 -2.1280 -0.6200  0.2329
14952SOL    HW251462   8.342   0.570   0.412  0.9137  0.3331 -1.6472
14953SOL     OW51463   0.683   0.184   4.666  0.0770 -0.0155  0.2991
14953SOL    HW151464   0.665   0.108   4.721 -0.3691  0.9672  1.5617
14953SOL    HW251465   0.778   0.192   4.666  0.0959 -0.2131  0.6566
14954SOL     OW51466  10.310   1.461  11.757  0.1115 -0.2077 -0.1059
14954SOL    HW151467  10.248   1.507  11.814  1.5489  0.3164  1.1324
14954SOL    HW251468  10.381   1.435  11.816  0.4707 -1.9388 -1.2316
14955SOL     OW51469   6.077   1.262  11.291  0.3995  0.3193  0.0966
14955SOL    HW151470   6.079   1.350  11.254  1.8010  0.2947  0.0489
14955SOL    HW251471   6.156   1.220  11.257  0.1804 -0.6841  0.7800
14956SOL     OW51472   5.049   4.311   6.870 -0.6670  0.9304  0.0670
14956SOL    HW151473   5.047   4.274   6.958  0.3017  2.8367  0.9455
14956SOL    HW251474   4.966   4.284   6.831  0.3133 -2.8625  0.2360
14957SOL     OW51475   0.911   7.876   4.584 -0.2039 -0.0989 -0.1813
14957SOL    HW151476   0.846   7.942   4.607  0.7206  0.5890  0.5072
14957SOL    HW251477   0.992   7.925   4.573  0.1881 -0.9295 -1.1499
14958SOL     OW51478   4.076   1.196   5.114  0.0695 -0.4510 -0.5732
14958SOL    HW151479   4.138   1.166   5.181 -1.0994  0.3926  0.9650
14958SOL    HW251480   4.001   1.137   5.123 -0.3922  0.1140 -0.6270
14959SOL     OW51481   7.454   2.851   3.252  0.3751  0.3362  0.0850
14959SOL    HW151482   7.542   2.831   3.285  0.9348  2.7678  0.2340
14959SOL    HW251483   7.423   2.922   3.307 -2.0936 -1.0260  0.5852
14960SOL     OW51484   2.970   3.976   6.829  0.5619 -0.3419 -0.1546
14960SOL    HW151485   2.972   3.896   6.775 -0.6403 -0.6971  0.2684
14960SOL    HW251486   2.904   4.031   6.786 -0.8587 -0.8855  1.2437
14961SOL     OW51487   5.961   0.851   8.951 -0.9902 -0.5698 -0.4761
14961SOL    HW151488   5.993   0.872   9.038  0.6231 -1.6161 -0.7805
14961SOL    HW251489   5.877   0.807   8.966 -1.5799  0.7953  0.4205
14962SOL     OW51490   4.702   6.451   7.778  0.1677 -0.4537  0.5421
14962SOL    HW151491   4.696   6.532   7.728  0.3947 -1.6144 -1.4790
14962SOL    HW251492   4.617   6.409   7.766  0.1693 -0.6909  1.2957
14963SOL     OW51493  12.665   2.044   4.278 -0.0279 -0.4099 -0.4622
14963SOL    HW151494  12.740   2.081   4.324  0.4682  1.6088 -2.7061
14963SOL    HW251495  12.594   2.047   4.342  1.0519  0.5205  0.7418
14964SOL     OW51496   4.235   4.489   4.817 -0.4632  0.6363 -0.3211
14964SOL    HW151497   4.280   4.438   4.884  1.0240  0.6600 -1.2364
14964SOL    HW251498   4.272   4.577   4.824 -0.5602  0.7343 -0.9175
14965SOL     OW51499  11.828   7.844   3.731 -0.3371  0.1057  0.3255
14965SOL    HW151500  11.820   7.751   3.753 -0.0367 -0.6319 -2.3483
14965SOL    HW251501  11.800   7.850   3.640  0.1271  2.5714  0.2680
14966SOL     OW51502   1.641   5.158   2.878 -0.6136  0.1763  0.2434
14966SOL    HW151503   1.621   5.240   2.831 -1.3275  0.2483  0.6477
14966SOL    HW251504   1.556   5.114   2.884 -0.2442 -0.5532  0.1106
14967SOL     OW51505   6.085   2.423   9.435  0.0618  0.2802 -0.0726
14967SOL    HW151506   6.079   2.497   9.375 -1.1150 -0.2672 -0.6704
14967SOL    HW251507   5.999   2.418   9.476  0.8288  0.6084  1.6521
14968SOL     OW51508   0.436   6.799   7.049 -0.1093  0.3843 -0.1369
14968SOL    HW151509   0.405   6.870   6.993  0.1259  0.8847  0.3513
14968SOL    HW251510   0.409   6.719   7.004 -1.9816  0.7764  0.1857
14969SOL     OW51511   2.430  11.274   0.729  0.3243 -0.2544  0.3464
14969SOL    HW151512   2.466  11.303   0.646 -0.5961 -0.3310 -0.0924
14969SOL    HW251513   2.339  11.305   0.728  0.5405  0.4970  1.6926
14970SOL     OW51514   0.551  11.555   4.166 -0.4460 -0.7656 -0.3677
14970SOL    HW151515   0.479  11.596   4.214 -0.4166  0.5476 -1.4086
14970SOL    HW251516   0.630  11.588   4.209 -0.4317 -0.5504 -0.5633
14971SOL     OW51517   0.016   8.839  10.229  0.0141 -0.2362 -0.0905
14971SOL    HW151518  -0.074   8.835  10.196  0.2424 -0.1890 -0.7359
14971SOL    HW251519   0.066   8.781  10.170  0.4410 -0.1002  0.1336
14972SOL     OW51520  10.313   8.307   3.860 -0.0444  0.5021 -0.4187
14972SOL    HW151521  10.275   8.330   3.944  0.5361  2.1628 -0.5805
14972SOL    HW251522  10.238   8.303   3.800 -0.1886  2.0126 -0.3718
14973SOL     OW51523   5.132  12.464   2.838 -0.2712  0.0830 -0.1332
14973SOL    HW151524   5.160  12.374   2.823 -0.1011  0.2597 -0.8912
14973SOL    HW251525   5.201  12.518   2.799 -0.3246  0.5520  0.3926
14974SOL     OW51526   1.602   1.088  12.532 -0.8621  0.0643 -0.5193
14974SOL    HW151527   1.541   1.159  12.547 -0.5153  0.4698 -0.9784
14974SOL    HW251528   1.595   1.070  12.438 -1.4398 -0.9650 -0.2954
14975SOL     OW51529   4.880  10.583   9.700 -0.2006 -0.2841 -0.2074
14975SOL    HW151530   4.794  10.552   9.728 -0.6127  1.3734  0.4544
14975SOL    HW251531   4.936  10.506   9.705 -1.4470 -1.1980  0.1648
14976SOL     OW51532   1.504  10.439  11.543 -0.0836  0.5078 -0.2601
14976SOL    HW151533   1.426  10.494  11.533 -0.0694  1.0299  1.9403
14976SOL    HW251534   1.573  10.499  11.569  0.2536 -0.3605  0.9423
14977SOL     OW51535  11.068   7.652   0.372  0.7796 -0.0354  0.2784
14977SOL    HW151536  11.155   7.687   0.357 -0.3428  2.4675 -1.0118
14977SOL    HW251537  11.043   7.614   0.287  0.9915 -1.7855  0.9571
14978SOL     OW51538   9.484   7.081   0.686 -0.0328  0.5046  0.7183
14978SOL    HW151539   9.398   7.108   0.719 -0.4826 -2.9862  2.9005
14978SOL    HW251540   9.539   7.076   0.764  0.9398 -1.2046 -0.0299
14979SOL     OW51541   4.776  11.668   4.570  0.1288  0.6761 -0.4185
14979SOL    HW151542   4.826  11.736   4.613  0.8728  0.0570 -0.2694
14979SOL    HW251543   4.750  11.706   4.486 -0.4446  1.5250  0.1429
14980SOL     OW51544   4.183  10.229   9.658 -0.2128  0.0176 -0.0333
14980SOL    HW151545   4.176  10.226   9.562  1.5409 -0.4904 -0.1770
14980SOL    HW251546   4.122  10.162   9.688 -0.8831  0.2744 -0.7820
14981SOL     OW51547   8.257   5.016  11.433 -0.0623 -0.0628 -0.0688
14981SOL    HW151548   8.245   4.969  11.516 -0.9728 -0.3504 -0.3508
14981SOL    HW251549   8.219   5.102  11.448 -0.1321 -0.0780 -0.1595
14982SOL     OW51550   1.474   8.863   2.865  0.8736  0.6552  0.1303
14982SOL    HW151551   1.562   8.898   2.853 -0.1823  3.0376 -1.5624
14982SOL    HW251552   1.438   8.859   2.777 -0.4523 -1.1678  0.6896
14983SOL     OW51553   8.415   4.596   9.407  0.6392  0.2756  0.0579
14983SOL    HW151554   8.504   4.631   9.399  0.3371  1.8600  2.4392
14983SOL    HW251555   8.420   4.531   9.477  0.2512 -1.1019 -1.1397
14984SOL     OW51556   5.755   2.089   3.179  0.3206 -0.4423  0.2474
14984SOL    HW151557   5.820   2.138   3.127 -1.0629 -0.8891 -2.0619
14984SOL    HW251558   5.716   2.154   3.237  0.8747  0.4556 -0.3656
14985SOL     OW51559   9.309   4.005  11.856 -0.1427 -0.1177 -0.5213
14985SOL    HW151560   9.331   3.912  11.843 -0.0201  0.0500 -1.6859
14985SOL    HW251561   9.233   4.019  11.800  0.8606  0.8581 -1.7180
14986SOL     OW51562  10.215   7.910  11.431  0.0120 -0.2499  0.2449
14986SOL    HW151563  10.277   7.837  11.421  0.4746  0.0294  1.0096
14986SOL    HW251564  10.260   7.985  11.393 -0.2752 -0.2591 -0.1158
14987SOL     OW51565  11.414  11.718  11.690  0.5376  0.1871 -0.0907
14987SOL    HW151566  11.390  11.759  11.773  2.0469 -0.0581  0.5120
14987SOL    HW251567  11.499  11.676  11.708  1.2916  0.7963 -1.9790
14988SOL     OW51568   3.703   9.869   3.493  0.7224  0.1799 -0.0259
14988SOL    HW151569   3.645   9.940   3.464 -0.5506 -0.9203 -0.2846
14988SOL    HW251570   3.716   9.885   3.587  1.2175  1.2587 -0.2637
14989SOL     OW51571   5.989  12.634   9.670  0.8757 -0.0270 -0.3002
14989SOL    HW151572   6.000  12.573   9.743  2.1601  1.4396  0.8153
14989SOL    HW251573   5.913  12.688   9.695 -0.9622 -1.7608 -1.7974
14990SOL     OW51574   0.605   7.687  10.577  0.0393 -0.3726  0.3741
14990SOL    HW151575   0.586   7.608  10.526  1.0910 -0.6321  0.3590
14990SOL    HW251576   0.606   7.658  10.668  0.5677 -0.4236  0.3599
14991SOL     OW51577  11.791   0.241  11.854 -0.1419  0.0120 -0.0812
14991SOL    HW151578  11.712   0.216  11.806 -0.6053  0.4322  0.4550
14991SOL    HW251579  11.863   0.223  11.793 -0.6634 -0.1844 -0.6449
14992SOL     OW51580  10.252   1.572   0.262 -0.3199  0.3545  0.1596
14992SOL    HW151581  10.272   1.660   0.229 -0.3828  0.7141  1.0601
14992SOL    HW251582  10.317   1.515   0.220  1.1914  1.1706  1.3056
14993SOL     OW51583   8.766   2.556   9.798  0.4201 -0.3690 -0.7338
14993SOL    HW151584   8.746   2.639   9.755  0.5019 -1.4452 -2.9858
14993SOL    HW251585   8.862   2.553   9.800  0.4199  0.0010  0.2359
14994SOL     OW51586   1.078  11.241   7.003 -0.0786  0.1404  0.5051
14994SOL    HW151587   1.057  11.292   6.925 -1.9539  0.5059  1.1839
14994SOL    HW251588   1.109  11.157   6.970  0.2099  0.6663 -0.6124
14995SOL     OW51589   9.328  12.644   8.319 -0.2106  0.5148  0.1065
14995SOL    HW151590   9.411  12.691   8.308 -1.3753  2.4752 -0.8012
14995SOL    HW251591   9.285  12.650   8.234 -1.8429  0.6520  0.9006
14996SOL     OW51592   0.444   4.064   5.198 -0.3711 -0.1555  0.2488
14996SOL    HW151593   0.409   4.152   5.211 -0.2265 -0.1710  0.7695
14996SOL    HW251594   0.473   4.062   5.107  1.4261  0.9801  0.7485
14997SOL     OW51595   7.631   1.711  12.708  0.2656  0.3642  0.1065
14997SOL    HW151596   7.638   1.790  12.762 -0.4170 -0.5376  1.5970
14997SOL    HW251597   7.559   1.662  12.747 -0.1248 -0.4465 -1.5427
14998SOL     OW51598   1.919  12.072   1.651 -0.2935  0.6574  0.0812
14998SOL    HW151599   2.002  12.027   1.638  0.3063  0.0544  4.4656
14998SOL    HW251600   1.942  12.150   1.700 -2.2633  0.2224  1.8311
14999SOL     OW51601  12.611  12.199   6.574  0.0437  0.5085 -0.0080
14999SOL    HW151602  12.678  12.203   6.506  0.4598 -0.8382  0.2995
14999SOL    HW251603  12.528  12.210   6.527  0.4531  2.5888 -0.3435
15000SOL     OW51604   8.541   2.124   6.437  0.1889 -0.0290 -0.7158
15000SOL    HW151605   8.554   2.030   6.451 -0.8836 -0.0101  0.7137
15000SOL    HW251606   8.477   2.129   6.366 -0.1560 -0.4221 -0.4414
15001SOL     OW51607   9.329  12.647   7.641  0.8584 -0.2892  0.0084
15001SOL    HW151608   9.397  12.669   7.705  0.5688 -0.0280  0.2365
15001SOL    HW251609   9.294  12.564   7.671  0.4386  0.0341  0.4395
15002SOL     OW51610   0.572  11.357   1.109  0.2784 -0.1037 -0.7904
15002SOL    HW151611   0.607  11.279   1.066 -0.4491 -0.5547 -0.5929
15002SOL    HW251612   0.492  11.377   1.060 -0.9233 -1.0069  0.6859
15003SOL     OW51613   7.744   5.193  12.503  0.5864  0.2610 -0.5881
15003SOL    HW151614   7.658   5.218  12.536  0.9477  1.3819 -0.4185
15003SOL    HW251615   7.731   5.177  12.410 -0.5925 -3.6452  0.0813
15004SOL     OW51616   9.484   0.796   6.254 -0.3705  0.4501 -0.4041
15004SOL    HW151617   9.399   0.839   6.251 -1.1497 -0.9485  0.5328
15004SOL    HW251618   9.470   0.711   6.213  0.8016  0.5309 -1.0250
15005SOL     OW51619   8.428   0.350   5.755  0.3717 -0.8180  0.5436
15005SOL    HW151620   8.469   0.264   5.748 -2.0810 -1.9922 -0.7826
15005SOL    HW251621   8.499   0.412   5.738  1.9619 -2.6118  0.2876
15006SOL     OW51622   0.185   9.353   2.966 -0.2764  0.5594  0.4970
15006SOL    HW151623   0.116   9.409   3.001 -0.7374  0.7386 -0.6564
15006SOL    HW251624   0.266   9.402   2.983 -0.6251  1.3354 -0.0379
15007SOL     OW51625  12.477   8.711   0.062 -0.3524  0.0334  0.3593
15007SOL    HW151626  12.542   8.708  -0.009 -0.6903  1.9023 -0.0793
15007SOL    HW251627  12.393   8.724   0.017 -0.7182  0.0784  1.0509
15008SOL     OW51628   4.304   5.110  12.343  0.3231  0.0189  0.0735
15008SOL    HW151629   4.394   5.114  12.376 -0.0178  0.9503  0.9623
15008SOL    HW251630   4.313   5.117  12.248  1.1856  0.1702  0.1531
15009SOL     OW51631   2.246   9.610   2.822  0.0988 -0.2074 -0.1475
15009SOL    HW151632   2.183   9.609   2.750 -0.3029 -0.8682  0.2004
15009SOL    HW251633   2.216   9.541   2.881 -0.0183  0.8315  1.0451
15010SOL     OW51634   0.176   0.101   0.926  0.2597  0.1768 -0.2237
15010SOL    HW151635   0.173   0.128   0.835  4.0164 -2.9155 -1.5836
15010SOL    HW251636   0.266   0.118   0.953  0.4155 -2.5912  1.4665
15011SOL     OW51637   6.529   9.590   0.997 -0.2260  0.3257 -0.1135
15011SOL    HW151638   6.546   9.683   0.980  1.1512  0.3999  1.4451
15011SOL    HW251639   6.490   9.589   1.084  1.2288 -0.6554  0.5485
15012SOL     OW51640   5.637   1.844  12.667 -0.3588 -0.3071 -0.2754
15012SOL    HW151641   5.577   1.859  12.741  0.5057 -0.7008  0.5319
15012SOL    HW251642   5.718   1.815  12.708  0.3072 -0.0478 -1.3623
15013SOL     OW51643   9.214  11.197   8.278 -0.2010  0.3177  0.0924
15013SOL    HW151644   9.188  11.202   8.186 -1.8407  0.0669  0.5060
15013SOL    HW251645   9.263  11.277   8.294  0.9247 -0.0692 -1.2189
15014SOL     OW51646   3.009   7.986   7.269  0.2567  0.4524 -0.3673
15014SOL    HW151647   3.038   7.924   7.202  0.6871  0.4491 -0.1792
15014SOL    HW251648   2.988   8.065   7.220 -0.9001 -0.0344 -0.6860
15015SOL     OW51649   3.922   8.755   7.980 -0.1826 -0.2217  0.0048
15015SOL    HW151650   3.987   8.822   7.959  1.5397 -1.1255  2.0501
15015SOL    HW251651   3.838   8.798   7.967  0.8441  1.6876 -0.6605
15016SOL     OW51652   1.624  10.688   8.678  0.1960 -0.1722  0.4390
15016SOL    HW151653   1.718  10.678   8.662  0.4438  2.7640 -0.4862
15016SOL    HW251654   1.612  10.669   8.771  1.4020 -2.0503  0.2560
15017SOL     OW51655   4.523   3.153  10.348 -0.1150  0.1662 -0.1467
15017SOL    HW151656   4.459   3.221  10.366  1.3012  1.0344  2.0479
15017SOL    HW251657   4.476   3.071  10.364 -1.3051  0.6777 -0.9279
15018SOL     OW51658   3.134  12.440   3.413 -0.2382  0.1088  0.0331
15018SOL    HW151659   3.137  12.456   3.319 -0.3525 -2.1548 -0.4137
15018SOL    HW251660   3.078  12.509   3.448  0.8138  1.7535 -1.3355
15019SOL     OW51661  11.312  11.013   7.133 -0.1857 -0.0197 -0.4867
15019SOL    HW151662  11.278  11.041   7.218 -0.4077  0.0519 -0.6004
15019SOL    HW251663  11.339  10.922   7.147  0.6967  0.2909 -0.0676
15020SOL     OW51664   2.507   2.099  10.800 -0.2396 -0.4362  0.4348
15020SOL    HW151665   2.534   2.182  10.839 -1.0381  0.8265 -1.5465
15020SOL    HW251666   2.582   2.073  10.745 -0.7797  0.1123 -0.5964
15021SOL     OW51667   2.572   0.629  12.381  0.0804  0.3913 -0.1955
15021SOL    HW151668   2.659   0.639  12.420  0.3720  1.5488 -1.0781
15021SOL    HW251669   2.573   0.689  12.306 -0.9208 -0.7729 -1.1807
15022SOL     OW51670   2.344  11.207   2.895 -0.2848 -0.2336  0.0981
15022SOL    HW151671   2.309  11.286   2.854 -1.6957 -0.3796  0.9633
15022SOL    HW251672   2.397  11.165   2.827  1.4067  1.9911 -0.0681
15023SOL     OW51673   0.589   3.283   2.079 -0.2196 -0.0988 -0.4772
15023SOL    HW151674   0.494   3.278   2.088 -0.1711 -1.4666 -0.5449
15023SOL    HW251675   0.619   3.192   2.086  1.0454  0.2631 -0.8984
15024SOL     OW51676   7.466   3.061   9.615  0.0833 -0.1682 -0.0363
15024SOL    HW151677   7.440   3.148   9.645 -0.3227 -1.3827  3.6026
15024SOL    HW251678   7.391   3.029   9.565  0.2772  1.5354 -1.4999
15025SOL     OW51679  12.689  12.461   0.512  0.6446  0.2816  0.1746
15025SOL    HW151680  12.663  12.515   0.438 -0.1784 -0.2833  0.0306
15025SOL    HW251681  12.632  12.384   0.506  2.0242 -0.7819  0.1517
15026SOL     OW51682   4.025   1.102   5.502  0.5551 -0.2936  0.1414
15026SOL    HW151683   3.944   1.051   5.493  0.3119  0.0102  0.5465
15026SOL    HW251684   4.081   1.049   5.558 -0.0196  0.2396  1.2596
15027SOL     OW51685   5.343   7.690   9.873 -0.5309 -0.1447  0.5703
15027SOL    HW151686   5.417   7.644   9.911  0.0357  0.0360 -0.2818
15027SOL    HW251687   5.307   7.742   9.945  0.9542  0.7498  0.7114
15028SOL     OW51688   3.594   7.251   6.024  0.3026 -0.1232  0.1357
15028SOL    HW151689   3.538   7.296   5.961 -0.3647 -0.3412  0.5636
15028SOL    HW251690   3.644   7.188   5.972  1.8652  1.6488 -0.6131
15029SOL     OW51691   0.575  10.790   6.029 -0.4905 -0.4935  0.0925
15029SOL    HW151692   0.667  10.791   6.057 -0.3926 -0.8380 -0.2107
15029SOL    HW251693   0.571  10.854   5.958 -0.4536 -0.5804  0.0117
15030SOL     OW51694   8.864  11.494   8.138 -0.0601 -0.5898 -0.1373
15030SOL    HW151695   8.959  11.504   8.124 -0.0302  0.3876  0.6273
15030SOL    HW251696   8.857  11.427   8.206  0.1419  0.0122  0.4918
15031SOL     OW51697   3.108   1.141   4.660  0.5246  0.5945  0.1098
15031SOL    HW151698   3.099   1.156   4.754  0.8004 -2.2719  0.7140
15031SOL    HW251699   3.029   1.178   4.621  0.8601  2.6964  1.2966
15032SOL     OW51700   5.714   1.187  12.513  0.0621  0.3245 -0.0521
15032SOL    HW151701   5.758   1.269  12.491 -0.1675  0.4978  0.1293
15032SOL    HW251702   5.621   1.206  12.503  0.0507 -0.3929 -1.6722
15033SOL     OW51703   1.075   7.970   6.194  0.0702  0.2402  0.1062
15033SOL    HW151704   1.136   8.013   6.133 -0.1035  1.1090  0.5292
15033SOL    HW251705   0.988   7.987   6.158 -0.1335  1.9987  1.3224
15034SOL     OW51706   0.949   8.508   3.251  0.2100  0.0454 -0.0947
15034SOL    HW151707   0.971   8.536   3.339 -0.6373  0.2175  0.0751
15034SOL    HW251708   0.900   8.426   3.263 -0.9087  0.6566 -0.3095
15035SOL     OW51709   6.493   5.252   3.047 -0.0642  0.8337 -0.1276
15035SOL    HW151710   6.540   5.186   3.097  0.4396  1.0172 -0.3518
15035SOL    HW251711   6.403   5.247   3.079  0.0057  0.1662 -0.0198
15036SOL     OW51712   0.301   3.579  12.344  0.1799 -0.3430  0.4138
15036SOL    HW151713   0.282   3.578  12.251 -1.2232 -1.6221  0.6741
15036SOL    HW251714   0.336   3.666  12.361 -0.3482  0.1994 -1.1463
15037SOL     OW51715  10.536   2.007   2.135  0.0088 -0.5672  0.2284
15037SOL    HW151716  10.583   2.011   2.218  0.4880 -1.6058  0.0247
15037SOL    HW251717  10.499   2.094   2.124  1.9560  0.3110  0.3642
15038SOL     OW51718   9.416  10.373   4.571 -0.1691 -0.2056  0.2345
15038SOL    HW151719   9.395  10.364   4.478  0.9122  0.0875 -0.0544
15038SOL    HW251720   9.495  10.427   4.573  0.3727 -0.9947  1.2757
15039SOL     OW51721   5.766   3.428  10.698 -0.0426 -0.2731 -0.2588
15039SOL    HW151722   5.854   3.449  10.668 -0.7776  2.3948 -0.7849
15039SOL    HW251723   5.708   3.474  10.637 -1.7551  0.0165  1.4845
15040SOL     OW51724   7.144   3.830   4.234  0.3957 -0.5266  0.4963
15040SOL    HW151725   7.158   3.739   4.208 -0.7032 -0.6378  0.2789
15040SOL    HW251726   7.049   3.840   4.237  0.5056  0.3866  1.3187
15041SOL     OW51727   1.793   1.116   2.883 -0.4242 -0.3344 -0.3939
15041SOL    HW151728   1.888   1.123   2.887 -0.5096  4.0178 -0.7025
15041SOL    HW251729   1.766   1.104   2.974  0.3363 -2.5538 -0.3977
15042SOL     OW51730   4.821  10.050  10.171  0.0345 -0.0596 -0.3841
15042SOL    HW151731   4.742  10.056  10.225  1.6100  1.9999  1.9048
15042SOL    HW251732   4.817  10.127  10.114 -0.1668 -0.6101 -1.1263
15043SOL     OW51733   9.852   3.536   3.769  0.1990 -0.3800  0.8147
15043SOL    HW151734   9.780   3.539   3.706 -0.5840  0.4647  1.7082
15043SOL    HW251735   9.816   3.576   3.848  1.4966 -0.4223  1.4551
15044SOL     OW51736   5.019   5.225   2.808  0.2006  0.5259  0.3779
15044SOL    HW151737   5.058   5.311   2.796  0.0831  0.5312  0.0199
15044SOL    HW251738   4.952   5.238   2.875 -0.4903  0.9296 -0.3679
15045SOL     OW51739   8.490   3.702   4.736 -0.2120  0.3968  0.5870
15045SOL    HW151740   8.512   3.717   4.644 -1.3393 -1.5545 -0.0464
15045SOL    HW251741   8.575   3.701   4.781  0.6833 -1.9492 -0.9802
15046SOL     OW51742   2.168   0.056   0.468  0.1782  0.4712  0.2218
15046SOL    HW151743   2.098   0.010   0.421  1.3997  0.2674 -1.5013
15046SOL    HW251744   2.122   0.120   0.522 -1.3294  1.0530 -1.6179
15047SOL     OW51745   4.446   7.199  10.638 -0.1272  0.5179 -0.0495
15047SOL    HW151746   4.412   7.193  10.549 -3.4486 -0.3534  1.1131
15047SOL    HW251747   4.459   7.109  10.665  0.2029  0.7418  0.5608
15048SOL     OW51748   7.770   6.805   7.434 -0.3666  0.4537 -0.0068
15048SOL    HW151749   7.773   6.813   7.530 -1.8168  0.9049  0.0266
15048SOL    HW251750   7.701   6.740   7.418 -0.9278  1.2147 -0.7640
15049SOL     OW51751  10.405   0.229   8.216  0.1561 -0.4646  0.7122
15049SOL    HW151752  10.319   0.187   8.210 -0.1452  0.1470  0.7236
15049SOL    HW251753  10.444   0.216   8.129 -0.8008  1.0611  0.0039
15050SOL     OW51754   2.365   4.022   1.322 -0.2150 -0.1737 -0.0913
15050SOL    HW151755   2.368   3.949   1.384 -1.2621 -0.4863 -0.3803
15050SOL    HW251756   2.444   4.073   1.340  0.8858 -1.7348 -0.3215
15051SOL     OW51757   0.464   0.294   0.213  0.4758  0.0627 -0.0542
15051SOL    HW151758   0.396   0.358   0.194  0.8710  0.3259 -0.6180
15051SOL    HW251759   0.417   0.221   0.254  0.0780  0.8570  0.9427
15052SOL     OW51760   6.000   9.891   5.868 -0.2815  0.3922  0.0486
15052SOL    HW151761   6.017   9.981   5.895  2.7144 -0.0866  0.1642
15052SOL    HW251762   5.950   9.899   5.787 -0.2757  2.1470  0.1812
15053SOL     OW51763  12.275   0.219   4.043  0.0312  0.3014 -0.2205
15053SOL    HW151764  12.215   0.294   4.052  1.0813  1.1894 -0.4410
15053SOL    HW251765  12.334   0.228   4.118  1.0224  0.4855 -1.0203
15054SOL     OW51766   7.269  11.317   3.543  0.1366  0.1310  0.0782
15054SOL    HW151767   7.237  11.322   3.633 -0.9570  0.3778 -0.2995
15054SOL    HW251768   7.241  11.230   3.513 -0.4627  0.4590 -0.3483
15055SOL     OW51769  12.752  10.848   3.873 -0.3554  0.8363  0.2289
15055SOL    HW151770  12.821  10.911   3.853 -0.5759  0.6796 -1.1080
15055SOL    HW251771  12.670  10.893   3.851 -0.5393  0.2487 -0.3338
15056SOL     OW51772   0.806   2.335   1.603  0.4162 -0.3289  0.1648
15056SOL    HW151773   0.888   2.383   1.617  0.4355 -0.4962  0.6778
15056SOL    HW251774   0.742   2.402   1.580  0.9734 -0.3372 -1.5205
15057SOL     OW51775   0.017   3.058  10.410 -0.2576  1.0828 -0.5705
15057SOL    HW151776   0.034   2.995  10.479 -0.5067  0.1451 -1.3432
15057SOL    HW251777   0.004   3.141  10.456  2.5051  1.1128  0.3117
15058SOL     OW51778   0.830   8.172   1.705 -0.2040  0.1157  0.1198
15058SOL    HW151779   0.902   8.207   1.757 -0.6219  2.0993 -0.5664
15058SOL    HW251780   0.867   8.161   1.617 -0.5166  0.3736 -0.0470
15059SOL     OW51781   7.677   3.712   6.942  0.4690 -0.0125  0.4253
15059SOL    HW151782   7.756   3.742   6.897  0.9844 -0.6081  0.9115
15059SOL    HW251783   7.709   3.654   7.011 -0.4575 -1.5916 -0.3857
15060SOL     OW51784   2.753  11.808   5.168 -0.1469 -0.3790 -0.2972
15060SOL    HW151785   2.724  11.803   5.259  0.0487  2.2980 -0.0086
15060SOL    HW251786   2.833  11.755   5.166  0.6337  0.6442  1.4635
15061SOL     OW51787  11.176  12.004   8.314  0.1062 -0.5214  0.0188
15061SOL    HW151788  11.082  12.009   8.295  0.1882 -0.4896 -0.3943
15061SOL    HW251789  11.183  11.933   8.378 -0.3048  0.1319  0.8051
15062SOL     OW51790   1.126   0.097   5.050 -0.0044 -0.4275 -0.2366
15062SOL    HW151791   1.036   0.110   5.017 -0.4152 -0.5298  0.8186
15062SOL    HW251792   1.174   0.173   5.017 -0.8280  0.3806  0.3743
15063SOL     OW51793   3.455   5.472   6.476  0.5797  0.2227 -0.6814
15063SOL    HW151794   3.390   5.406   6.498  0.9267 -0.0757 -0.5324
15063SOL    HW251795   3.429   5.549   6.526  1.1539 -0.3408  0.5306
15064SOL     OW51796   9.105   9.946  12.154 -0.0133 -0.1189 -0.1682
15064SOL    HW151797   9.045   9.876  12.178 -0.5781  0.5780  0.5121
15064SOL    HW251798   9.056  10.026  12.170  1.1716  0.4721  0.6323
15065SOL     OW51799   5.964   7.777   8.715  0.0363 -0.1222 -0.3898
15065SOL    HW151800   6.001   7.863   8.736  0.1189  0.1225 -1.4626
15065SOL    HW251801   5.973   7.770   8.620 -0.2102 -1.2123 -0.3447
15066SOL     OW51802  12.487  10.513   4.581  0.3117  0.3146 -0.4535
15066SOL    HW151803  12.558  10.573   4.605 -1.0014  2.2044 -1.0400
15066SOL    HW251804  12.510  10.430   4.623  1.9430  1.3726  0.8587
15067SOL     OW51805   9.824   9.622  10.315 -0.0328 -0.1947 -0.0125
15067SOL    HW151806   9.892   9.641  10.379  1.6329  1.1207 -2.0164
15067SOL    HW251807   9.746   9.604  10.367  1.4989 -0.4093  2.3609
15068SOL     OW51808  12.465   1.089   3.346  0.1576  0.4911  0.0839
15068SOL    HW151809  12.401   1.094   3.417  1.9576  0.1476  1.8154
15068SOL    HW251810  12.413   1.069   3.268 -1.6640 -1.6018  1.7193
15069SOL     OW51811   0.330   2.551   7.947  0.0145 -0.1164  0.1085
15069SOL    HW151812   0.299   2.537   7.857  1.6539  1.6580 -0.8148
15069SOL    HW251813   0.252   2.578   7.995 -0.5337  0.9691 -1.3147
15070SOL     OW51814   6.865   5.786   2.620 -0.2877 -0.5704  0.0456
15070SOL    HW151815   6.900   5.874   2.609  0.6791 -1.0884 -1.3162
15070SOL    HW251816   6.836   5.782   2.711 -1.1220  1.4067 -0.0911
15071SOL     OW51817   4.530  12.046   5.228 -0.1813  0.5644  0.4399
15071SOL    HW151818   4.519  12.030   5.134 -1.9995  0.9788  0.5507
15071SOL    HW251819   4.536  11.959   5.267  0.0427  0.3801  0.0038
15072SOL     OW51820   2.335   0.772   1.409  0.5959  0.6391  0.3844
15072SOL    HW151821   2.305   0.863   1.412  0.9091  0.7311  0.6995
15072SOL    HW251822   2.270   0.728   1.354  2.1184  1.6757 -2.4456
15073SOL     OW51823  11.933   1.837   8.892 -0.4224  0.4948 -0.1860
15073SOL    HW151824  11.896   1.882   8.968 -1.2745  0.6092 -0.6575
15073SOL    HW251825  11.990   1.901   8.851 -1.7660  1.2456 -0.9551
15074SOL     OW51826   3.562   5.406  10.444  0.1613 -0.2195  0.5511
15074SOL    HW151827   3.531   5.463  10.374 -0.2358 -0.7510  0.2854
15074SOL    HW251828   3.511   5.432  10.521  0.1400 -0.0716  0.4870
15075SOL     OW51829   9.585   3.151   2.473  0.4267  0.2801 -0.1236
15075SOL    HW151830   9.636   3.080   2.432 -1.1270 -2.2803  2.0338
15075SOL    HW251831   9.623   3.160   2.560 -1.8518 -0.7940  1.0648
15076SOL     OW51832   1.243   4.986   7.919 -0.4701  0.1877  0.0240
15076SOL    HW151833   1.242   4.994   7.824 -1.2229 -0.7484 -0.0660
15076SOL    HW251834   1.321   4.934   7.938 -0.6422 -0.1293 -0.1349
15077SOL     OW51835  12.260   0.268   1.374 -0.5831  0.1549  0.1707
15077SOL    HW151836  12.295   0.265   1.462 -1.6651 -0.0134  0.6122
15077SOL    HW251837  12.332   0.240   1.318 -0.5045 -1.7686  1.1814
15078SOL     OW51838   3.193  10.043   2.422 -0.7207  0.4869 -0.3963
15078SOL    HW151839   3.157  10.131   2.435 -1.0826  0.3598 -0.5319
15078SOL    HW251840   3.131  10.000   2.364 -0.1709  0.3757 -0.9074
15079SOL     OW51841  10.061   9.086  11.663 -0.8906 -0.1439  0.0685
15079SOL    HW151842  10.080   9.175  11.691 -0.6785  0.0423 -0.6531
15079SOL    HW251843  10.033   9.041  11.743 -1.9730  0.8301  0.2624
15080SOL     OW51844   9.985  10.203   9.190 -0.0737  0.1939  0.4522
15080SOL    HW151845  10.047  10.216   9.118 -2.6973  0.0885 -1.9848
15080SOL    HW251846  10.006  10.272   9.253  2.5323  0.0907 -0.1728
15081SOL     OW51847   3.293   5.939   2.387  0.0208 -0.0822  0.0462
15081SOL    HW151848   3.368   5.955   2.444 -0.9359  1.5902  0.8987
15081SOL    HW251849   3.218   5.934   2.446 -1.1158  2.5197 -1.0400
15082SOL     OW51850   1.774  12.365   5.243 -0.4159  0.5362 -0.0022
15082SOL    HW151851   1.863  12.354   5.276  0.0741  1.0294 -1.1222
15082SOL    HW251852   1.718  12.355   5.321  0.5112 -1.1522  0.4942
15083SOL     OW51853  11.520   4.059   2.608 -0.5145  0.5864 -0.1001
15083SOL    HW151854  11.615   4.064   2.601 -0.3083 -1.2979  0.7816
15083SOL    HW251855  11.492   4.023   2.523 -0.1787 -1.0348  0.4370
15084SOL     OW51856   6.068   0.612   8.901  0.6615 -0.0429 -0.0603
15084SOL    HW151857   6.118   0.595   8.981  0.0681 -0.1261  0.3015
15084SOL    HW251858   6.038   0.702   8.911  0.7572  0.0145 -0.2880
15085SOL     OW51859   3.977  11.617   9.163  0.7719 -0.4074  0.0331
15085SOL    HW151860   4.013  11.650   9.080  1.3340 -1.8499 -0.3222
15085SOL    HW251861   3.997  11.686   9.226  1.3253  0.2358 -0.8173
15086SOL     OW51862   1.456   0.981  11.065 -0.4625  0.4471 -0.2963
15086SOL    HW151863   1.439   0.891  11.091  3.3269 -0.0917  0.9447
15086SOL    HW251864   1.484   1.024  11.146  2.1975  1.4082 -1.5917
15087SOL     OW51865   8.024   8.449   6.267  0.5012 -0.2272 -0.0271
15087SOL    HW151866   7.966   8.437   6.343 -1.2355  0.5728 -1.1491
15087SOL    HW251867   7.978   8.512   6.212  0.9745 -1.8867 -2.4782
15088SOL     OW51868   0.918   9.897   3.673  0.2816  0.1853  0.5287
15088SOL    HW151869   1.010   9.903   3.699  1.3520  1.7039 -3.0703
15088SOL    HW251870   0.902   9.803   3.664  0.3951 -0.3356  4.0936
15089SOL     OW51871  12.490   7.615   3.555 -0.0766  0.8812  0.1559
15089SOL    HW151872  12.513   7.616   3.462  2.1365  1.0275  0.6352
15089SOL    HW251873  12.575   7.611   3.600 -1.1246 -1.7023  2.1531
15090SOL     OW51874   2.618   1.149   9.634  0.0601  0.6346  0.7605
15090SOL    HW151875   2.616   1.098   9.715 -0.2643  2.2503  1.7994
15090SOL    HW251876   2.711   1.167   9.619  0.2392 -0.7496  0.0351
15091SOL     OW51877  12.502   0.527   4.274 -0.0188  0.5229  0.8586
15091SOL    HW151878  12.529   0.440   4.247  0.7381  0.2812  2.3182
15091SOL    HW251879  12.580   0.581   4.264 -0.7850  1.3471 -1.1804
15092SOL     OW51880   5.690   5.354   0.151  0.1401  0.3763  0.0956
15092SOL    HW151881   5.685   5.431   0.095  1.2200  0.7163  0.4443
15092SOL    HW251882   5.631   5.373   0.223 -0.6858  0.2560 -0.5335
15093SOL     OW51883   7.395   8.332   9.688  0.1949  0.4773  0.2438
15093SOL    HW151884   7.314   8.382   9.695  0.8964  1.4071  2.5963
15093SOL    HW251885   7.461   8.396   9.661  0.2598 -0.1908 -1.2697
15094SOL     OW51886  10.205   9.403  11.353 -0.1989  0.7503 -0.2153
15094SOL    HW151887  10.122   9.413  11.306 -0.1721 -0.5172 -0.5621
15094SOL    HW251888  10.262   9.471  11.317 -0.6147  0.6652 -1.0413
15095SOL     OW51889   2.707  12.457   4.147 -0.1662 -0.2600  0.2394
15095SOL    HW151890   2.697  12.370   4.107  1.2127 -0.3502  0.0428
15095SOL    HW251891   2.754  12.440   4.228 -1.8700  0.0699  1.3481
15096SOL     OW51892   0.244  12.216   6.624 -0.3974 -0.4147 -0.1935
15096SOL    HW151893   0.269  12.224   6.533  0.1946 -1.0500 -0.1003
15096SOL    HW251894   0.193  12.294   6.643 -1.3542 -0.7486 -1.3327
15097SOL     OW51895  11.222   7.244   4.295 -0.0617  0.6905 -0.0281
15097SOL    HW151896  11.231   7.157   4.255  0.2587  0.8002 -0.1944
15097SOL    HW251897  11.142   7.237   4.347 -0.0172  0.2795 -0.0063
15098SOL     OW51898   5.657  11.803   5.637 -0.7544  0.4485  0.2409
15098SOL    HW151899   5.685  11.894   5.649 -1.5447  0.8520 -0.8581
15098SOL    HW251900   5.622  11.800   5.548 -2.5654 -0.4492  0.9393
15099SOL     OW51901   3.199   6.723   1.459  0.6073  0.2488 -0.1917
15099SOL    HW151902   3.122   6.780   1.466  0.1922 -0.3747  0.4304
15099SOL    HW251903   3.177   6.662   1.389  1.2970  1.1974 -1.2752
15100SOL     OW51904  12.593   2.037   4.031 -0.3142 -0.1271  0.0155
15100SOL    HW151905  12.638   2.051   4.114 -0.5150  1.0475 -0.0622
15100SOL    HW251906  12.579   2.125   3.995  1.3611 -0.6579 -2.1309
15101SOL     OW51907   7.885  10.108   4.985 -0.7160 -0.2374  0.0017
15101SOL    HW151908   7.876  10.158   5.065  0.1197 -1.8636  1.1751
15101SOL    HW251909   7.948  10.157   4.932 -0.1720  0.1187  0.9680
15102SOL     OW51910   2.156   8.644   3.347  0.5528  0.4595  0.1083
15102SOL    HW151911   2.250   8.635   3.331  0.1709 -4.0614 -0.8717
15102SOL    HW251912   2.120   8.678   3.265  0.8824 -3.0686 -1.6531
15103SOL     OW51913   9.931   8.261   4.469  0.1490 -0.2367  0.4468
15103SOL    HW151914   9.956   8.184   4.520 -0.9481 -0.9528 -0.0747
15103SOL    HW251915   9.981   8.332   4.509  1.1883 -1.2087  0.9308
15104SOL     OW51916   8.234   4.098  11.822 -0.3727 -0.2018  0.2927
15104SOL    HW151917   8.304   4.162  11.831 -1.4941  0.9150  1.7410
15104SOL    HW251918   8.176   4.116  11.896 -1.2889 -2.2143  0.1287
15105SOL     OW51919   0.677   8.166   7.139  0.2898 -0.7480 -0.4566
15105SOL    HW151920   0.645   8.111   7.067 -0.8189 -1.0435  0.2331
15105SOL    HW251921   0.649   8.254   7.116  2.2168 -0.3866 -1.6490
15106SOL     OW51922   9.639  10.344   9.521  0.5145 -0.2279 -0.3728
15106SOL    HW151923   9.676  10.347   9.609 -0.2051  0.4663 -0.0767
15106SOL    HW251924   9.599  10.257   9.515  0.2954 -0.1644  0.1018
15107SOL     OW51925  11.823   4.606   1.485 -0.4026 -0.1056 -0.0878
15107SOL    HW151926  11.776   4.529   1.515  0.1667 -0.8257 -0.9883
15107SOL    HW251927  11.779   4.632   1.404 -0.0344 -0.0314 -0.2671
15108SOL     OW51928   5.732   7.973   9.517  0.1982 -0.3146  0.8551
15108SOL    HW151929   5.709   7.880   9.519 -0.6831 -0.0949  1.7685
15108SOL    HW251930   5.779   7.988   9.599  0.1495  0.0850  0.8127
15109SOL     OW51931   2.918   6.880   0.688  0.1407  0.1317 -1.2241
15109SOL    HW151932   2.927   6.794   0.731 -0.3781 -1.1104 -3.4149
15109SOL    HW251933   2.884   6.938   0.756 -1.2362 -1.8611 -0.1069
15110SOL     OW51934   1.857   9.699   0.648 -0.3865  0.5937  0.1984
15110SOL    HW151935   1.934   9.702   0.705 -0.0548  0.6558 -0.2444
15110SOL    HW251936   1.876   9.630   0.585 -1.1398 -0.0791  0.6980
15111SOL     OW51937   5.475   0.055  10.617  0.6188  0.5496 -0.5339
15111SOL    HW151938   5.408   0.069  10.550 -0.0998  1.0540  0.2750
15111SOL    HW251939   5.447   0.108  10.691  1.1378 -0.3838  0.3598
15112SOL     OW51940   5.642   3.750   2.073 -0.5971  0.7608 -0.2846
15112SOL    HW151941   5.648   3.659   2.100  0.9462  0.6110 -1.0241
15112SOL    HW251942   5.603   3.747   1.985 -0.4189  0.7983 -0.3660
15113SOL     OW51943   1.003   2.748  12.337 -0.1202 -0.1298  0.4321
15113SOL    HW151944   0.993   2.661  12.374  1.5493 -0.9474 -0.9628
15113SOL    HW251945   1.097   2.762  12.330 -0.3054  2.1222  1.3162
15114SOL     OW51946   5.411   5.727   3.614 -0.2651 -0.0215  0.1671
15114SOL    HW151947   5.441   5.759   3.699 -0.1231 -1.4095  0.6535
15114SOL    HW251948   5.488   5.685   3.576 -0.6136 -0.3542 -0.1781
15115SOL     OW51949   4.777  11.420   3.655 -0.3395  0.1123 -0.3952
15115SOL    HW151950   4.697  11.470   3.672  0.3075  1.3216 -0.8222
15115SOL    HW251951   4.845  11.486   3.644  0.6218 -0.8813 -0.6038
15116SOL     OW51952   8.122   3.096   2.667 -0.2565  0.1932  0.0493
15116SOL    HW151953   8.095   3.076   2.757 -0.6373  1.0509  0.1338
15116SOL    HW251954   8.041   3.097   2.617 -0.0176 -0.5475 -0.3645
15117SOL     OW51955   9.136  12.152   6.646  0.3695  0.0308  0.3986
15117SOL    HW151956   9.105  12.082   6.589  3.0775 -0.8876 -0.1164
15117SOL    HW251957   9.124  12.119   6.735  0.7463 -0.6904  0.1864
15118SOL     OW51958   5.211   5.218  11.912 -0.0137  0.4642 -0.4415
15118SOL    HW151959   5.152   5.214  11.836  0.6237  1.2369 -0.9885
15118SOL    HW251960   5.199   5.134  11.956 -0.2545 -0.0747 -1.5077
15119SOL     OW51961  11.525   0.676  11.662  0.2152 -0.0821 -0.0707
15119SOL    HW151962  11.567   0.596  11.631  0.2101  0.2473 -0.9541
15119SOL    HW251963  11.507   0.726  11.582  0.4364  0.9009  0.4802
15120SOL     OW51964   1.366  11.876   8.046 -0.2943  0.3457 -0.0469
15120SOL    HW151965   1.444  11.890   7.992  0.2884  2.3325  1.1963
15120SOL    HW251966   1.293  11.900   7.988  0.0867 -0.3984 -0.8533
15121SOL     OW51967   4.245   4.606   8.654  0.5482 -0.4025  0.4046
15121SOL    HW151968   4.184   4.535   8.676 -1.9991  0.8302 -2.0043
15121SOL    HW251969   4.199   4.686   8.681  1.5426  0.5362 -0.5925
15122SOL     OW51970   3.739   5.812   8.843  0.3506 -0.1356 -0.4060
15122SOL    HW151971   3.742   5.730   8.793 -1.1239 -0.0007 -0.7422
15122SOL    HW251972   3.816   5.861   8.813  0.5333 -0.8495 -1.1392
15123SOL     OW51973   6.100   1.301  12.288 -0.4162 -0.3756 -0.4330
15123SOL    HW151974   6.020   1.343  12.257 -0.7908 -0.4459  0.4222
15123SOL    HW251975   6.166   1.326  12.224 -0.4962  1.9707  0.3310
15124SOL     OW51976  10.597   6.956   8.545 -0.0209 -0.5088  0.2940
15124SOL    HW151977  10.588   7.035   8.598 -0.8951 -0.7899  0.5649
15124SOL    HW251978  10.689   6.958   8.516 -0.5468  1.7958 -1.5626
15125SOL     OW51979   4.786   4.215   4.504  0.3495  0.3710  0.1410
15125SOL    HW151980   4.761   4.194   4.414  0.2244  1.5434 -0.1182
15125SOL    HW251981   4.841   4.142   4.532 -1.0154 -0.8557 -0.2748
15126SOL     OW51982  10.427   6.369   7.745  0.3657  0.3612  0.2348
15126SOL    HW151983  10.340   6.350   7.708  0.8115 -1.5821  0.0905
15126SOL    HW251984  10.487   6.362   7.670  0.8327  0.1070  0.6315
15127SOL     OW51985   8.169   5.382   3.036  0.1201  0.1094 -0.0665
15127SOL    HW151986   8.106   5.433   3.086 -0.5688 -0.5085 -0.2890
15127SOL    HW251987   8.166   5.295   3.075  0.8415  0.0760 -0.0762
15128SOL     OW51988   9.509   6.009   9.928  0.0234  0.1848  0.0116
15128SOL    HW151989   9.573   6.049   9.987 -0.2638  2.8968 -1.3413
15128SOL    HW251990   9.427   6.011   9.976 -0.2401  2.5099 -0.3975
15129SOL     OW51991   3.239   4.635   9.262  0.2818 -0.1486  0.1490
15129SOL    HW151992   3.297   4.696   9.309 -2.2155  2.4532  0.1489
15129SOL    HW251993   3.210   4.574   9.329  0.2648  0.7457  0.9881
15130SOL     OW51994   6.062  12.732  12.040  0.4025  0.0412  0.0449
15130SOL    HW151995   6.008  12.706  12.114  1.2268 -1.2669  0.2127
15130SOL    HW251996   6.107  12.811  12.070  1.4337 -0.9833  1.3241
15131SOL     OW51997   6.354   6.940   9.177 -0.1862 -0.1138  0.0863
15131SOL    HW151998   6.433   6.940   9.231  0.3401 -0.5852 -0.6623
15131SOL    HW251999   6.353   6.854   9.136  0.3585  0.8001 -1.9734
15132SOL     OW52000   3.344   3.794   6.723  0.3323  0.0459  0.0177
15132SOL    HW152001   3.260   3.809   6.767  0.3862  1.0058 -0.2053
15132SOL    HW252002   3.351   3.698   6.718 -0.0524 -0.0712  1.3669
15133SOL     OW52003   9.781   8.202   5.528 -0.4661  0.4271 -0.3893
15133SOL    HW152004   9.834   8.282   5.531 -0.8542  0.6553  0.6308
15133SOL    HW252005   9.690   8.233   5.536 -0.6614 -0.0784 -0.5838
15134SOL     OW52006  11.063   0.721   8.823 -0.8195  0.0663  0.4890
15134SOL    HW152007  11.064   0.706   8.917  1.0932  0.9233  0.6495
15134SOL    HW252008  11.033   0.638   8.786 -0.6999 -0.5942  1.8143
15135SOL     OW52009   5.554   4.474   5.716  0.2781  0.0752 -0.1394
15135SOL    HW152010   5.485   4.534   5.689  0.7083  0.3519 -0.6598
15135SOL    HW252011   5.635   4.523   5.703  0.5031  0.4831  2.3530
15136SOL     OW52012   0.592   5.872   8.236  0.5031 -0.2895 -0.4758
15136SOL    HW152013   0.528   5.853   8.168 -0.8349  0.0873  0.6314
15136SOL    HW252014   0.674   5.886   8.189 -0.5147  0.6223 -2.0596
15137SOL     OW52015   4.344   0.768   1.943  0.2433  0.3436 -0.3753
15137SOL    HW152016   4.352   0.856   1.906  0.4547  0.4301 -0.1266
15137SOL    HW252017   4.326   0.712   1.867  0.3017  0.5740 -0.5607
15138SOL     OW52018  11.953   9.991   4.984 -0.3257 -0.0527  0.5708
15138SOL    HW152019  11.872   9.940   4.987  0.1491 -0.9981 -1.2044
15138SOL    HW252020  12.022   9.925   4.976  0.5590  0.7708  1.2151
15139SOL     OW52021   5.673   3.769   8.254  0.5154  0.9837 -0.4776
15139SOL    HW152022   5.764   3.764   8.285  0.2377  2.3130  0.6707
15139SOL    HW252023   5.678   3.750   8.161  1.8122 -0.1134 -0.2200
15140SOL     OW52024   5.159  11.160  11.481  0.2631 -0.2224 -0.0523
15140SOL    HW152025   5.196  11.242  11.448 -0.2168 -0.1034 -0.3036
15140SOL    HW252026   5.079  11.186  11.527  0.5110 -0.4731  0.5280
15141SOL     OW52027   4.773   8.662   0.524  0.1635 -0.6639  0.0324
15141SOL    HW152028   4.852   8.666   0.471  0.2474 -1.8576  0.0388
15141SOL    HW252029   4.789   8.591   0.586 -0.5209 -0.2647  0.6992
15142SOL     OW52030  10.270  10.748  10.555  0.0410 -0.3144  0.5381
15142SOL    HW152031  10.208  10.810  10.518 -1.5169 -1.5931  0.8760
15142SOL    HW252032  10.268  10.766  10.649 -0.7235 -1.1017  0.6859
15143SOL     OW52033   4.959   4.030   1.616  0.0633 -0.3334  0.1010
15143SOL    HW152034   4.931   3.946   1.653  1.8017 -0.5870  0.9386
15143SOL    HW252035   4.909   4.038   1.535 -2.0256 -0.9463  1.2604
15144SOL     OW52036  11.104   6.821   4.317 -0.1891 -0.2647  0.0175
15144SOL    HW152037  11.098   6.726   4.311 -2.2108 -0.2557  1.2066
15144SOL    HW252038  11.029   6.847   4.370 -0.4750  2.1265 -1.4027
15145SOL     OW52039   1.497  11.164   5.409  0.4250  0.1536 -0.3080
15145SOL    HW152040   1.494  11.193   5.318  2.2928 -2.0202 -1.1650
15145SOL    HW252041   1.591  11.154   5.428  0.1562  1.5187  2.2383
15146SOL     OW52042  11.528   1.986  12.391 -0.2901  0.1248  0.0802
15146SOL    HW152043  11.445   1.993  12.344 -0.7027 -2.5760  0.2590
15146SOL    HW252044  11.594   1.977  12.322 -0.3988  0.1006 -0.0194
15147SOL     OW52045   3.697   2.893   5.813 -0.1601  0.4306  0.2709
15147SOL    HW152046   3.783   2.875   5.853 -0.4933  0.8524  1.1967
15147SOL    HW252047   3.643   2.925   5.885 -1.3199 -0.5033 -0.1438
15148SOL     OW52048   6.682   0.581   1.272 -0.5932 -0.0555 -0.0104
15148SOL    HW152049   6.671   0.662   1.222 -1.3778 -0.3257 -0.2942
15148SOL    HW252050   6.593   0.547   1.281 -0.7900  0.9836  3.2730
15149SOL     OW52051  12.179  12.294  10.579  0.1746 -0.1144 -0.6111
15149SOL    HW152052  12.098  12.319  10.623  0.3467 -1.3867  0.4916
15149SOL    HW252053  12.194  12.363  10.514 -1.0449  0.8601  0.1103
15150SOL     OW52054   0.168   6.307   9.295 -0.3348  0.2940  0.0258
15150SOL    HW152055   0.252   6.298   9.249 -0.3714  0.2162 -0.0255
15150SOL    HW252056   0.110   6.245   9.252 -0.3663  0.2121  0.1847
15151SOL     OW52057  12.542  12.335   0.156  0.2460  0.0956  0.5710
15151SOL    HW152058  12.634  12.310   0.158  0.2750  0.2753  2.0138
15151SOL    HW252059  12.523  12.346   0.063  1.5610 -0.3572  0.2249
15152SOL     OW52060   0.698   0.167   5.445  0.1269 -0.4795  0.6465
15152SOL    HW152061   0.789   0.192   5.433  0.0179  0.8784  2.2377
15152SOL    HW252062   0.702   0.079   5.483  1.0242  0.9448  4.2207
15153SOL     OW52063   5.973  10.710   9.114  0.6108 -0.2050 -0.4248
15153SOL    HW152064   5.886  10.670   9.112 -0.2269  1.5208 -0.4779
15153SOL    HW252065   6.008  10.694   9.027 -0.0367 -0.1444 -0.7047
15154SOL     OW52066   0.163   0.043   9.429  0.1890  0.6377  0.4252
15154SOL    HW152067   0.183   0.136   9.432 -0.6815  0.8449 -0.1501
15154SOL    HW252068   0.169   0.014   9.521  0.8432  1.1656  0.5543
15155SOL     OW52069  11.621   2.113   3.484  0.0914 -0.4360 -0.9316
15155SOL    HW152070  11.527   2.133   3.484 -0.2692 -1.7534  1.5159
15155SOL    HW252071  11.635   2.067   3.402 -1.3985 -0.1598 -1.3814
15156SOL     OW52072   4.279   2.470   1.335  0.3896  0.7753  0.3386
15156SOL    HW152073   4.271   2.566   1.329  1.0697  0.8183  0.0038
15156SOL    HW252074   4.373   2.455   1.339  0.4401 -0.0053 -2.0481
15157SOL     OW52075   4.177   2.307   8.443  0.2143  0.2106  0.2125
15157SOL    HW152076   4.154   2.224   8.486  0.8482 -0.0396  0.0784
15157SOL    HW252077   4.272   2.315   8.456  0.4602  0.0058 -1.3734
15158SOL     OW52078  12.584   9.063   9.971 -0.7559 -0.0104  0.2122
15158SOL    HW152079  12.592   9.107  10.055 -0.0350  0.4161 -0.0691
15158SOL    HW252080  12.542   8.979   9.991 -2.1053  0.7611  0.7697
15159SOL     OW52081  11.101   7.375   5.744 -0.2294  0.1153 -0.2374
15159SOL    HW152082  11.102   7.280   5.758  1.1231  0.3207  1.5631
15159SOL    HW252083  11.009   7.400   5.751 -0.7754 -1.1822 -2.0519
15160SOL     OW52084  11.912   7.005  10.301  0.4795  1.2794  0.0033
15160SOL    HW152085  11.832   7.051  10.324 -0.2366 -0.2602  0.7040
15160SOL    HW252086  11.982   7.057  10.341 -0.2554  1.9900  0.3935
15161SOL     OW52087   9.275   0.388  10.330  0.3509 -0.2431 -0.4711
15161SOL    HW152088   9.194   0.436  10.347 -0.2927 -1.1616 -0.9090
15161SOL    HW252089   9.255   0.332  10.255  0.8625 -1.7160  0.4504
15162SOL     OW52090   9.486   1.336   6.477  0.4907  0.2268  0.4284
15162SOL    HW152091   9.518   1.284   6.551 -2.0583  0.7730  2.0324
15162SOL    HW252092   9.524   1.423   6.490 -1.0129  0.7038  1.9555
15163SOL     OW52093   6.966  11.022   8.702  0.0831 -0.4431  0.2475
15163SOL    HW152094   6.944  11.068   8.621  0.1962 -0.5570  0.1538
15163SOL    HW252095   7.033  11.076   8.743 -1.4117  0.7279  1.2825
15164SOL     OW52096  12.676  11.723  11.150  0.6485  0.1123  0.3574
15164SOL    HW152097  12.610  11.790  11.133 -0.6628 -1.3346 -0.5765
15164SOL    HW252098  12.757  11.772  11.163  0.2309  1.8252 -2.5614
15165SOL     OW52099   6.665   4.230   1.148  0.2214 -0.4356  0.1102
15165SOL    HW152100   6.710   4.167   1.204 -0.4808  0.6762  2.0098
15165SOL    HW252101   6.723   4.239   1.072  2.1899 -0.6130  1.4928
15166SOL     OW52102   5.599   2.449   6.993  0.0566 -0.1262 -0.2898
15166SOL    HW152103   5.557   2.441   7.079  1.1981 -0.4762  0.2568
15166SOL    HW252104   5.615   2.543   6.983  0.5179 -0.1504  0.1862
15167SOL     OW52105   6.311  11.560  12.477  0.0824 -0.4624  0.3397
15167SOL    HW152106   6.264  11.640  12.454  0.5091  0.1382  1.4710
15167SOL    HW252107   6.244  11.492  12.477 -0.5912  0.1886  0.9006
15168SOL     OW52108  10.543   8.977   1.487 -0.5715  0.3611  0.5775
15168SOL    HW152109  10.602   8.918   1.441 -0.5109  0.2718  0.7715
15168SOL    HW252110  10.483   8.920   1.535 -1.1528  0.4377 -0.0299
15169SOL     OW52111   7.341   4.335  10.957  0.6260 -0.2029 -0.1285
15169SOL    HW152112   7.338   4.404  10.890  0.5928 -0.9546 -0.9291
15169SOL    HW252113   7.432   4.305  10.957  0.5322 -0.4983 -0.1558
15170SOL     OW52114   5.913   8.025  10.482  0.0558 -0.1096  0.3605
15170SOL    HW152115   5.926   8.119  10.492 -1.7603  0.1950  0.1689
15170SOL    HW252116   5.933   7.989  10.568  0.2933  0.5098  0.5720
15171SOL     OW52117  11.990   9.362   8.069 -0.5364 -0.4107  0.6231
15171SOL    HW152118  12.013   9.274   8.040 -2.1470  0.0320 -2.4385
15171SOL    HW252119  11.923   9.349   8.136  1.5901 -1.4582  2.7086
15172SOL     OW52120   0.108   3.656   4.805 -0.2391 -0.1313 -0.0588
15172SOL    HW152121   0.026   3.701   4.781 -1.1932 -1.5344  0.4682
15172SOL    HW252122   0.177   3.720   4.785 -1.4150  0.8787 -1.0436
15173SOL     OW52123   3.700   8.388   7.742 -0.2557  0.1166  0.4157
15173SOL    HW152124   3.686   8.479   7.718  0.7894 -0.1496 -1.3151
15173SOL    HW252125   3.795   8.379   7.750 -0.2685 -1.0686 -0.5095
15174SOL     OW52126   2.715  11.060   4.651 -0.1594  0.0996  0.4411
15174SOL    HW152127   2.685  11.028   4.566 -1.5521  1.4525  0.3817
15174SOL    HW252128   2.793  11.008   4.670 -0.0560 -0.5202 -1.4694
15175SOL     OW52129  10.851   7.529   1.170 -0.1419 -0.2614  0.3278
15175SOL    HW152130  10.852   7.465   1.241 -0.0205 -0.0636  0.5063
15175SOL    HW252131  10.927   7.584   1.186 -1.4888  1.3716  1.5379
15176SOL     OW52132   2.103   0.595   6.493 -0.0565  1.2477 -0.0810
15176SOL    HW152133   2.175   0.649   6.525  0.6566  0.3025 -0.0593
15176SOL    HW252134   2.096   0.523   6.557  0.6386 -0.0353 -1.3832
15177SOL     OW52135   7.079   0.143   8.820  1.3105 -0.2215 -0.0462
15177SOL    HW152136   7.071   0.100   8.905 -0.0719 -0.4711 -0.2759
15177SOL    HW252137   7.051   0.078   8.756 -0.0139  0.6992 -0.4661
15178SOL     OW52138   0.090   9.449  12.320 -0.7014 -0.2689 -0.4090
15178SOL    HW152139   0.175   9.406  12.304  0.8869  2.8138 -0.9153
15178SOL    HW252140   0.045   9.445  12.236 -0.3490 -0.4266 -0.5929
15179SOL     OW52141   7.409   9.246   2.579  0.0408 -0.0702  0.6497
15179SOL    HW152142   7.322   9.265   2.543  0.4853 -1.1871 -1.1424
15179SOL    HW252143   7.428   9.156   2.552  0.8297 -0.6788  2.9912
15180SOL     OW52144  12.551   9.593   8.276  0.1686 -0.4209  0.0870
15180SOL    HW152145  12.612   9.521   8.263  1.7083  0.9598 -0.7701
15180SOL    HW252146  12.475   9.570   8.224  0.2593 -1.8301  0.5511
15181SOL     OW52147   9.235   4.298   0.668 -0.2925 -0.5948 -0.2306
15181SOL    HW152148   9.310   4.339   0.626 -0.8218  0.8034  0.1266
15181SOL    HW252149   9.228   4.211   0.627  1.0937 -0.4878 -0.7307
15182SOL     OW52150   5.249  11.219   6.001  0.0832 -0.0721 -0.3048
15182SOL    HW152151   5.235  11.313   5.990 -0.5842 -0.1358 -0.0763
15182SOL    HW252152   5.262  11.208   6.096  1.4660 -0.0549 -0.4765
15183SOL     OW52153  11.202   0.059  11.273  0.1791  0.5266  0.7522
15183SOL    HW152154  11.122   0.009  11.258 -0.5076  2.4855 -3.9196
15183SOL    HW252155  11.171   0.148  11.292  1.3600  0.5630  2.7787
15184SOL     OW52156  11.814  10.273   6.102 -0.4753  0.2347  0.5389
15184SOL    HW152157  11.870  10.348   6.080 -0.6327  0.4261  0.7796
15184SOL    HW252158  11.765  10.302   6.179  0.1629 -0.4745  1.2371
15185SOL     OW52159  12.090   4.759   0.168  0.0460  0.0487 -0.0134
15185SOL    HW152160  12.121   4.727   0.084  1.0455 -0.3729  0.4967
15185SOL    HW252161  12.109   4.853   0.168 -1.4152  0.3801 -0.8674
15186SOL     OW52162   2.127   8.331   7.490  0.1284  0.3699 -0.3868
15186SOL    HW152163   2.052   8.299   7.440 -1.0637  1.7295  0.4572
15186SOL    HW252164   2.175   8.386   7.428 -2.6636  4.0968  0.3676
15187SOL     OW52165  11.540  10.499  10.154  0.0647  0.2036 -0.2887
15187SOL    HW152166  11.533  10.547  10.072 -0.9818 -0.6103 -0.7081
15187SOL    HW252167  11.457  10.518  10.199 -0.0885 -0.6648 -0.1814
15188SOL     OW52168   8.083   4.317  11.468  0.0986 -0.8013  0.2485
15188SOL    HW152169   8.129   4.235  11.485 -1.9744 -2.0872  0.0641
15188SOL    HW252170   8.014   4.319  11.535  0.1546  0.8345  0.2807
15189SOL     OW52171   0.390   6.785   8.777  0.1961  0.4274  0.3403
15189SOL    HW152172   0.392   6.810   8.869  0.0945  0.6945  0.2738
15189SOL    HW252173   0.481   6.769   8.754  0.3275  1.2130  0.2665
15190SOL     OW52174  10.855   2.013  11.678  0.2912  0.1055 -0.0793
15190SOL    HW152175  10.782   1.987  11.622 -0.0479  1.3556 -0.2315
15190SOL    HW252176  10.854   2.108  11.677  0.0558  0.1858  2.3394
15191SOL     OW52177   6.027  12.740   8.112 -0.1786  0.6719  0.1483
15191SOL    HW152178   5.941  12.781   8.107  0.2239  1.5868  0.5055
15191SOL    HW252179   6.058  12.737   8.022 -0.5119  0.4817  0.0386
15192SOL     OW52180   4.369   8.318   8.908 -0.0339 -0.2816  0.3160
15192SOL    HW152181   4.300   8.379   8.934  0.5757  0.7216 -0.3434
15192SOL    HW252182   4.448   8.351   8.951  0.6629  0.4866 -1.4596
15193SOL     OW52183   0.111   8.937   6.254 -0.1494 -0.1992 -0.1072
15193SOL    HW152184   0.131   9.028   6.232 -1.0722 -0.0577 -0.4038
15193SOL    HW252185   0.015   8.932   6.252 -0.1835 -0.7680  1.5663
15194SOL     OW52186   7.406   3.101   6.413 -0.0229  0.5446  0.2642
15194SOL    HW152187   7.330   3.058   6.453  0.6603 -0.6349  0.3667
15194SOL    HW252188   7.471   3.104   6.484  1.2950 -1.7915 -0.7076
15195SOL     OW52189   5.238   4.061   6.897 -0.2384 -0.0291 -0.3620
15195SOL    HW152190   5.164   4.099   6.945  0.0577  1.4733 -1.0733
15195SOL    HW252191   5.200   3.986   6.851 -1.1293  0.1850 -0.0011
15196SOL     OW52192   9.316   6.344   2.583  0.2886 -0.5092 -0.1809
15196SOL    HW152193   9.338   6.370   2.494  0.6985 -0.4264 -0.0608
15196SOL    HW252194   9.229   6.380   2.598  1.0894  1.4518  0.2176
15197SOL     OW52195   5.861   1.683  12.769 -0.1707 -0.1692  0.2028
15197SOL    HW152196   5.889   1.603  12.723 -2.1419 -0.6111 -0.3223
15197SOL    HW252197   5.816   1.651  12.847 -2.5373  0.2899 -0.8898
15198SOL     OW52198   7.112   6.908  12.617 -0.1052 -0.3377  0.2582
15198SOL    HW152199   7.072   6.858  12.688  0.0193 -1.2396 -0.2845
15198SOL    HW252200   7.059   6.987  12.609 -1.2465 -1.1011  0.1293
15199SOL     OW52201   0.934   2.720  12.734  0.0632  0.0058  0.3619
15199SOL    HW152202   0.900   2.754  12.817 -0.7546 -0.7893  0.3680
15199SOL    HW252203   0.902   2.630  12.731  2.9510 -1.1251  0.7937
15200SOL     OW52204   9.935  11.917   3.464  0.1398 -0.0834  0.0581
15200SOL    HW152205   9.855  11.898   3.416  1.3548  0.1955 -2.1702
15200SOL    HW252206   9.933  11.855   3.538 -1.4785 -0.9820 -0.6880
15201SOL     OW52207   9.992  10.232   6.729 -0.5233  0.0517 -0.2505
15201SOL    HW152208  10.014  10.274   6.812  0.7122  0.8327 -0.9391
15201SOL    HW252209  10.077  10.209   6.691 -1.0054  0.8309 -1.8493
15202SOL     OW52210  12.287   2.545   6.546 -0.2020  0.1889  0.0315
15202SOL    HW152211  12.299   2.588   6.631 -0.2835  1.3325 -0.5240
15202SOL    HW252212  12.238   2.466   6.566  0.4696  0.0286  1.1589
15203SOL     OW52213   6.439  11.194   9.805  0.5163 -0.0614 -0.0700
15203SOL    HW152214   6.532  11.203   9.784  0.9708 -1.5975  1.0908
15203SOL    HW252215   6.401  11.151   9.729  1.0103 -0.5674 -0.0323
15204SOL     OW52216   1.193  10.457   7.823 -0.0898 -0.0748 -0.0845
15204SOL    HW152217   1.231  10.437   7.909 -0.5182 -0.4186  0.0327
15204SOL    HW252218   1.246  10.407   7.761  0.8170  0.9209 -0.1265
15205SOL     OW52219   3.208   0.570   3.846 -0.6312  0.2451 -0.1082
15205SOL    HW152220   3.112   0.565   3.854 -0.8924  2.9369 -0.5614
15205SOL    HW252221   3.222   0.620   3.766  1.1574  0.4207  0.2866
15206SOL     OW52222   7.235   1.116   3.116  0.1001  0.0016 -0.0726
15206SOL    HW152223   7.242   1.028   3.079  0.2937  0.1278 -0.3323
15206SOL    HW252224   7.169   1.107   3.185 -0.4536 -0.1688 -0.6235
15207SOL     OW52225   9.456  10.796  10.828 -0.5367  0.0554  0.8193
15207SOL    HW152226   9.492  10.754  10.906 -0.2428  1.1933  1.3210
15207SOL    HW252227   9.444  10.725  10.766  1.1719 -0.5849  1.1712
15208SOL     OW52228   2.800   5.487   6.450  0.2635 -0.2474  0.0464
15208SOL    HW152229   2.738   5.417   6.470 -0.5453  0.3052 -0.4785
15208SOL    HW252230   2.779   5.557   6.513  0.2846 -0.0254 -0.1913
15209SOL     OW52231  12.594  10.249  10.079 -0.2798  0.5645 -0.0533
15209SOL    HW152232  12.624  10.277   9.992  3.6617 -0.0439  0.8741
15209SOL    HW252233  12.563  10.159  10.065 -0.9962  0.9418 -1.0101
15210SOL     OW52234  12.234   3.420   0.565 -0.0310 -0.3865  0.0468
15210SOL    HW152235  12.260   3.337   0.605 -0.7423  0.3198  2.1227
15210SOL    HW252236  12.217   3.478   0.640 -0.9402  1.1883 -1.3187
15211SOL     OW52237   2.343  12.704   5.335 -0.5804 -1.1285 -0.0990
15211SOL    HW152238   2.365  12.615   5.364 -0.5775 -1.1634 -0.2111
15211SOL    HW252239   2.247  12.708   5.344 -0.3920 -0.3510  2.2171
15212SOL     OW52240  12.580   3.936   3.204  0.0174 -0.1171  0.2150
15212SOL    HW152241  12.604   3.870   3.139 -0.3567  0.7844 -0.8665
15212SOL    HW252242  12.640   3.921   3.277 -0.1086 -1.6979  0.0376
15213SOL     OW52243   1.502   8.181   6.783 -0.4612  0.4841  0.4034
15213SOL    HW152244   1.464   8.102   6.822 -0.8589  0.1867 -0.5477
15213SOL    HW252245   1.483   8.172   6.689 -0.4550  1.6757  0.2789
15214SOL     OW52246   5.339   2.306   4.914  0.4703 -0.4089  0.2168
15214SOL    HW152247   5.352   2.289   5.007  1.4130 -0.3621  0.1118
15214SOL    HW252248   5.366   2.225   4.871  2.5360  0.3861 -0.1364
15215SOL     OW52249   6.513   6.732  10.637 -0.2462  0.1197  0.0784
15215SOL    HW152250   6.452   6.699  10.703 -0.4396  0.8074  0.2509
15215SOL    HW252251   6.483   6.692  10.555  0.9147 -1.9779  0.5895
15216SOL     OW52252   8.313   2.634   4.354  0.0241 -0.2225 -0.1492
15216SOL    HW152253   8.268   2.589   4.283  0.5534 -1.2498  0.1483
15216SOL    HW252254   8.271   2.720   4.358 -0.7063 -0.5203 -1.0231
15217SOL     OW52255   7.872   6.720  11.289 -0.2273  0.1679 -0.2247
15217SOL    HW152256   7.950   6.680  11.250 -0.9797 -0.3078 -1.2794
15217SOL    HW252257   7.899   6.743  11.378  0.6104 -1.5691  0.0174
15218SOL     OW52258   2.504   9.643   6.485  0.1048 -0.7102  0.0909
15218SOL    HW152259   2.559   9.566   6.472  1.1404 -0.4166  2.2438
15218SOL    HW252260   2.498   9.683   6.399  1.4956 -1.9403 -0.6229
15219SOL     OW52261   5.467   9.949   0.241 -0.9492  0.6779 -0.0028
15219SOL    HW152262   5.378   9.929   0.214 -1.1604  0.4610  0.8198
15219SOL    HW252263   5.484  10.037   0.206 -0.9256  0.1175 -1.4632
15220SOL     OW52264   7.874  10.993   6.094  0.4759  0.4678 -0.3117
15220SOL    HW152265   7.910  10.992   6.006  0.2011  0.8921 -0.4344
15220SOL    HW252266   7.779  10.989   6.082  0.4663 -0.3096 -0.0047
15221SOL     OW52267   7.226   0.955  12.485  0.2953  0.4506  0.8969
15221SOL    HW152268   7.212   1.025  12.548 -0.0713  0.1174  1.1900
15221SOL    HW252269   7.274   0.888  12.533 -1.5112 -0.5701  1.3685
15222SOL     OW52270   7.458   8.815  11.604 -0.2300  0.4706 -0.2669
15222SOL    HW152271   7.544   8.844  11.633 -0.0831 -1.4383  1.4215
15222SOL    HW252272   7.411   8.794  11.685 -1.4795 -0.6241 -1.2328
15223SOL     OW52273  11.421   2.356  10.310  0.2163  0.2601 -0.5218
15223SOL    HW152274  11.337   2.331  10.270 -0.9841 -0.1627  2.0328
15223SOL    HW252275  11.487   2.317  10.254 -1.4202 -3.3020 -0.2536
15224SOL     OW52276  12.030   3.582   8.862  0.4851  0.0251 -0.0215
15224SOL    HW152277  12.001   3.600   8.772  2.3870  1.7655 -0.3638
15224SOL    HW252278  11.963   3.525   8.898 -0.8780  0.1360 -2.2119
15225SOL     OW52279  11.525  10.831   9.027  0.3811 -0.2569 -0.2409
15225SOL    HW152280  11.576  10.750   9.036 -0.8178 -1.0373 -0.2949
15225SOL    HW252281  11.490  10.846   9.115 -0.0891 -0.2666 -0.4269
15226SOL     OW52282   6.446   2.698   6.917 -0.2888  0.4831 -0.0295
15226SOL    HW152283   6.486   2.784   6.906  1.2632 -0.1374  0.5098
15226SOL    HW252284   6.419   2.695   7.008 -0.9613  0.6502 -0.2222
15227SOL     OW52285   7.788   7.020   4.426 -0.1941 -0.2545 -0.0177
15227SOL    HW152286   7.818   6.989   4.512 -0.5131 -1.7385 -0.4169
15227SOL    HW252287   7.703   7.061   4.444 -0.7018 -1.3855  0.2638
15228SOL     OW52288  10.441  11.114   5.635 -0.3645 -0.3043 -0.7346
15228SOL    HW152289  10.394  11.031   5.627 -1.1856  0.1487 -0.6082
15228SOL    HW252290  10.466  11.136   5.545  1.2992 -1.4874 -0.6282
15229SOL     OW52291   7.892  11.981   0.538  0.0936 -0.6452 -0.2530
15229SOL    HW152292   7.966  11.971   0.478  0.5912 -0.7708  0.3626
15229SOL    HW252293   7.916  12.056   0.592 -0.3808 -0.4906 -0.2507
15230SOL     OW52294  12.624   1.173   5.968  0.5764  0.1592 -0.5479
15230SOL    HW152295  12.646   1.264   5.988  2.0980 -0.2757 -0.1331
15230SOL    HW252296  12.557   1.151   6.033  0.8592  0.7101 -0.0494
15231SOL     OW52297   0.640   9.083   3.876  0.0157 -0.8486  0.2110
15231SOL    HW152298   0.646   8.999   3.831  1.6487 -0.7383  0.1472
15231SOL    HW252299   0.705   9.077   3.946  0.2750  0.4067  0.1000
15232SOL     OW52300   6.840   1.538   0.976 -0.2476  0.1802 -0.7953
15232SOL    HW152301   6.884   1.618   1.006  1.4559 -0.5725 -1.1597
15232SOL    HW252302   6.774   1.569   0.914 -0.0472  1.3422 -0.4684
15233SOL     OW52303   4.414   4.300   0.299 -0.1806  0.1199  0.4923
15233SOL    HW152304   4.500   4.333   0.324  0.0819  0.4946 -0.8189
15233SOL    HW252305   4.433   4.225   0.242 -0.6713  0.9165 -0.7640
15234SOL     OW52306   8.507   5.617   4.533  0.3886 -0.0799 -0.7430
15234SOL    HW152307   8.428   5.579   4.570  0.4885 -0.6995 -1.1608
15234SOL    HW252308   8.488   5.711   4.528  0.1468 -0.0542  0.2991
15235SOL     OW52309  11.369   7.706  12.653  0.0364 -0.0382 -0.2577
15235SOL    HW152310  11.415   7.787  12.679 -1.1511 -0.2110  2.7939
15235SOL    HW252311  11.327   7.728  12.571  0.5942  2.1205 -0.0314
15236SOL     OW52312   1.543   7.934   9.160 -0.1003 -0.2685  0.5727
15236SOL    HW152313   1.626   7.981   9.165 -0.5545  0.4588  1.5678
15236SOL    HW252314   1.483   7.985   9.214 -2.0523  0.9530 -2.5075
15237SOL     OW52315   6.699  11.957  12.149  0.1706 -0.1172 -0.5580
15237SOL    HW152316   6.672  11.916  12.230  0.4776 -0.3657 -0.5801
15237SOL    HW252317   6.625  11.943  12.089 -1.3788  2.6644  0.5302
15238SOL     OW52318   4.427   3.340   0.158  0.0020 -0.1548  0.5726
15238SOL    HW152319   4.427   3.280   0.084 -0.2005  0.5934 -0.0451
15238SOL    HW252320   4.342   3.326   0.200 -0.3927  0.2742 -0.0602
15239SOL     OW52321   0.781   8.837   9.716 -0.2046  0.1817 -0.5749
15239SOL    HW152322   0.859   8.892   9.731 -1.1017  1.0131  1.4575
15239SOL    HW252323   0.783   8.773   9.787 -0.5945 -0.7754 -1.4042
15240SOL     OW52324   5.102   5.744   3.033 -0.0672 -0.3440  0.0053
15240SOL    HW152325   5.162   5.816   3.014  0.4566 -0.9624 -0.7490
15240SOL    HW252326   5.016   5.779   3.010  0.2456 -0.1443 -0.9430
15241SOL     OW52327  12.698   1.310   3.762 -0.1285 -0.0040  0.7761
15241SOL    HW152328  12.745   1.348   3.837  2.1481  1.1393 -1.0972
15241SOL    HW252329  12.649   1.383   3.725  0.6114  0.0433 -0.1586
15242SOL     OW52330   4.335   4.775   6.450 -0.2886  0.3533  0.0481
15242SOL    HW152331   4.301   4.700   6.402  0.3965  1.3971 -2.1730
15242SOL    HW252332   4.375   4.830   6.384  0.9723  1.7545  1.8820
15243SOL     OW52333   2.649  11.061   5.130 -0.2097  0.3429  0.0603
15243SOL    HW152334   2.618  11.137   5.082 -2.4762  0.9260  2.2018
15243SOL    HW252335   2.579  10.995   5.120  1.1587 -1.0455 -0.7702
15244SOL     OW52336  10.494   9.105   6.850 -0.0827  0.3105 -0.0856
15244SOL    HW152337  10.443   9.139   6.776 -1.5154  0.5690  0.9737
15244SOL    HW252338  10.536   9.183   6.887 -0.7683  0.4617  0.3976
15245SOL     OW52339  11.838   1.733   1.475  0.5941  0.7080 -0.1243
15245SOL    HW152340  11.771   1.666   1.465  1.5071 -0.1512 -0.7129
15245SOL    HW252341  11.792   1.808   1.514 -0.5740 -0.0371 -0.0209
15246SOL     OW52342   0.313   2.402  11.113  0.3677 -0.1859  0.2165
15246SOL    HW152343   0.373   2.469  11.082 -0.2342  0.0619 -0.4440
15246SOL    HW252344   0.316   2.334  11.045 -1.9893  0.9744 -1.1525
15247SOL     OW52345   8.179   1.962   8.822  0.0328  0.4630 -0.1604
15247SOL    HW152346   8.262   1.933   8.859  0.4543  0.5802 -0.9862
15247SOL    HW252347   8.172   2.054   8.847 -0.2383  0.2437  0.5859
15248SOL     OW52348   5.148  10.205   0.443 -0.3757 -0.5496  0.0429
15248SOL    HW152349   5.163  10.153   0.523  1.8602  0.9598  0.7201
15248SOL    HW252350   5.237  10.226   0.412 -1.2075  0.0836 -2.0665
15249SOL     OW52351   3.707   3.559   1.695 -0.0452 -0.3715  0.4032
15249SOL    HW152352   3.790   3.603   1.679  0.3477  0.0605  3.1292
15249SOL    HW252353   3.706   3.544   1.790 -3.3444  0.2448  0.5854
15250SOL     OW52354  11.395  11.828   6.278 -0.2350 -0.1041 -0.1139
15250SOL    HW152355  11.460  11.761   6.299 -0.1631  0.4558  1.5713
15250SOL    HW252356  11.434  11.878   6.206  0.9852 -0.1077  0.5206
15251SOL     OW52357   1.373   5.901   1.459 -0.3805 -0.0834 -0.0461
15251SOL    HW152358   1.452   5.955   1.459  1.1793 -2.1308 -2.3478
15251SOL    HW252359   1.312   5.948   1.403  0.5788 -0.1122 -1.1709
15252SOL     OW52360   3.469   3.308  11.719  0.0974 -0.6211  0.6149
15252SOL    HW152361   3.472   3.388  11.771 -0.7221 -0.3836  0.3257
15252SOL    HW252362   3.534   3.322  11.650 -0.5702  0.1452  0.1089
15253SOL     OW52363   5.027   0.662   4.807 -0.1864  0.1802 -0.0321
15253SOL    HW152364   5.064   0.633   4.890 -2.0696 -0.0214  0.7699
15253SOL    HW252365   4.937   0.687   4.827 -0.3058  1.3377 -1.7738
15254SOL     OW52366   7.519   5.360   0.305 -0.5306 -0.3317 -0.2145
15254SOL    HW152367   7.588   5.373   0.370 -1.7002 -1.0621  1.2191
15254SOL    HW252368   7.561   5.310   0.235  1.0444  1.4306 -0.6213
15255SOL     OW52369   8.740   8.808   8.947 -0.2331 -0.1596 -0.7952
15255SOL    HW152370   8.648   8.808   8.922 -0.1280  0.6911 -1.2349
15255SOL    HW252371   8.756   8.720   8.981 -1.3475 -0.1468 -0.1799
15256SOL     OW52372   1.036  10.387   9.401  0.3525  0.3570 -0.9093
15256SOL    HW152373   1.061  10.334   9.476  0.2354  0.1556 -1.0104
15256SOL    HW252374   1.102  10.455   9.396  1.7031 -0.9608 -1.9945
15257SOL     OW52375   2.543   6.033  11.111  0.1909  0.2258  0.4665
15257SOL    HW152376   2.559   6.124  11.085 -0.1952  0.4130  0.8685
15257SOL    HW252377   2.523   5.988  11.029  0.8198  0.4066  0.2093
15258SOL     OW52378  12.759   6.356   0.068  0.0775  0.5795  0.4882
15258SOL    HW152379  12.774   6.292   0.138 -3.0323 -1.2516 -0.3047
15258SOL    HW252380  12.798   6.316  -0.009 -1.5612 -0.3066  0.0654
15259SOL     OW52381   7.670   0.883   7.031 -0.8496 -0.2978  0.3277
15259SOL    HW152382   7.623   0.801   7.017  0.0255 -0.5242 -1.5961
15259SOL    HW252383   7.701   0.908   6.944  1.7503  0.3555  1.3598
15260SOL     OW52384   8.761   7.055   6.175 -0.2229  0.4121 -0.1589
15260SOL    HW152385   8.692   7.112   6.208 -0.5195 -0.4652  0.7986
15260SOL    HW252386   8.764   7.072   6.081 -1.8017  0.3949 -0.2385
15261SOL     OW52387   8.906   5.530   3.463 -0.3393  0.0077 -0.4944
15261SOL    HW152388   8.823   5.485   3.476 -0.6789  0.6469 -0.4401
15261SOL    HW252389   8.952   5.519   3.547 -0.5914  0.1229 -0.3397
15262SOL     OW52390   3.806  11.436   4.529  0.4018  0.4727  0.3636
15262SOL    HW152391   3.900  11.452   4.524  0.7042 -0.3325  2.3229
15262SOL    HW252392   3.768  11.522   4.549  0.5589  1.0015 -1.4284
15263SOL     OW52393   6.463  11.782  11.929 -0.7090 -0.3001  0.2715
15263SOL    HW152394   6.425  11.863  11.896 -0.1733 -0.2045 -0.1180
15263SOL    HW252395   6.518  11.750  11.858  1.7342  0.7192  1.5785
15264SOL     OW52396   7.745  10.583  11.130 -0.0218 -0.2346 -0.0019
15264SOL    HW152397   7.747  10.524  11.205  0.8097  2.5656  2.3268
15264SOL    HW252398   7.654  10.612  11.125  0.1285  0.3621  0.6118
15265SOL     OW52399   7.716   7.775   0.859  0.3079  0.3078  0.1174
15265SOL    HW152400   7.790   7.769   0.918  0.1233 -1.6199  0.2402
15265SOL    HW252401   7.645   7.730   0.905 -0.2337  0.0002 -0.9678
15266SOL     OW52402   2.887  12.216   8.106 -0.0694 -0.5672 -0.0787
15266SOL    HW152403   2.841  12.199   8.188  0.2475 -1.9036 -0.1490
15266SOL    HW252404   2.975  12.244   8.133  0.4358 -2.1711  0.0853
15267SOL     OW52405   4.372   5.222  10.641 -0.4647 -0.4177 -1.0446
15267SOL    HW152406   4.335   5.258  10.560  0.4726  1.9762 -0.4838
15267SOL    HW252407   4.411   5.138  10.614 -0.1508  0.3260 -3.0800
15268SOL     OW52408  10.049  11.283   8.620  0.5273 -0.3044 -0.3154
15268SOL    HW152409   9.998  11.242   8.549 -0.6575 -0.1868  0.4452
15268SOL    HW252410  10.117  11.219   8.639 -0.4889 -1.3564 -0.0604
15269SOL     OW52411  11.501   4.564  12.638  0.2182  0.4664  0.3108
15269SOL    HW152412  11.515   4.567  12.732  0.3106  0.9687  0.2842
15269SOL    HW252413  11.514   4.472  12.614 -0.1402  0.2801  0.8360
15270SOL     OW52414   1.021   6.095   5.316 -0.6157 -0.7407 -0.4162
15270SOL    HW152415   0.975   6.086   5.233 -1.1390  0.7512 -0.3095
15270SOL    HW252416   0.959   6.062   5.381 -1.2985  0.6394 -0.3446
15271SOL     OW52417  11.837   6.048   8.371  0.3141  0.1762  0.2600
15271SOL    HW152418  11.767   5.987   8.350  0.4043  0.3103 -0.4646
15271SOL    HW252419  11.912   5.991   8.392  0.5422  0.0264 -0.9075
15272SOL     OW52420   9.653   0.330   2.604 -0.1810  0.2654 -0.0391
15272SOL    HW152421   9.562   0.312   2.626  0.3553 -0.1519  2.1066
15272SOL    HW252422   9.662   0.425   2.618 -0.4369  0.4201 -0.9007
15273SOL     OW52423   5.217  10.994   6.181  0.0267  0.3580 -0.1270
15273SOL    HW152424   5.236  10.923   6.119  1.2412  1.6404 -1.2749
15273SOL    HW252425   5.122  10.991   6.192 -0.1501 -0.3036 -1.5820
15274SOL     OW52426   4.756   0.260  12.256  0.5479 -0.1344  0.2421
15274SOL    HW152427   4.799   0.188  12.303  0.5756 -0.8383 -0.8423
15274SOL    HW252428   4.796   0.339  12.292 -0.1496 -0.5764  2.1374
15275SOL     OW52429   3.757   9.930   5.277 -0.4713  0.0562  0.5246
15275SOL    HW152430   3.806   9.979   5.211  1.4203  0.1693  1.9651
15275SOL    HW252431   3.671   9.915   5.236  0.0774  1.5392 -1.2934
15276SOL     OW52432   5.488   2.958   3.195  0.1677 -0.2887 -0.9585
15276SOL    HW152433   5.528   2.872   3.191  0.5205 -0.1128 -1.2547
15276SOL    HW252434   5.449   2.963   3.283  0.9326 -0.3983 -0.6086
15277SOL     OW52435   4.006   2.242   6.983 -0.0497  0.2164  0.4557
15277SOL    HW152436   3.923   2.264   6.940  0.7847  1.1272 -0.7142
15277SOL    HW252437   3.999   2.284   7.069 -1.0421 -0.2197  0.6049
15278SOL     OW52438   7.081   5.100  12.506  0.5165 -0.3474  0.4791
15278SOL    HW152439   7.119   5.106  12.594  0.4352  2.9694  0.4081
15278SOL    HW252440   7.153   5.073  12.450  1.7482  1.6463  0.9976
15279SOL     OW52441   7.689  12.364   2.296 -0.6491 -0.1062  0.1414
15279SOL    HW152442   7.755  12.339   2.231 -0.8758  2.4284 -1.1985
15279SOL    HW252443   7.727  12.440   2.340 -1.5360 -0.3189  1.3069
15280SOL     OW52444   1.552   2.108  12.089  0.4329 -0.1799  0.7798
15280SOL    HW152445   1.456   2.106  12.078  0.5452  0.1903 -0.4626
15280SOL    HW252446   1.570   2.197  12.118  0.5286  0.2714 -0.6022
15281SOL     OW52447   5.998   1.835   9.766  0.5347  0.2293 -0.3926
15281SOL    HW152448   5.984   1.913   9.819  1.4048  0.3993 -0.3980
15281SOL    HW252449   6.034   1.771   9.828  1.1794  0.3029 -0.6793
15282SOL     OW52450   2.172   8.545   5.582  0.4036 -0.1129 -0.7401
15282SOL    HW152451   2.219   8.604   5.523 -0.4098  1.0582 -0.2618
15282SOL    HW252452   2.239   8.487   5.617  1.2692  0.6857 -1.0446
15283SOL     OW52453   8.299  11.002   1.845 -0.3193  0.2037 -0.1060
15283SOL    HW152454   8.353  11.075   1.814 -0.5412  0.2925 -0.2867
15283SOL    HW252455   8.209  11.031   1.830 -0.4262  0.1400  0.3786
15284SOL     OW52456  10.169   0.575   6.080 -0.0215 -0.2712 -0.0128
15284SOL    HW152457  10.249   0.544   6.037 -0.0952 -2.9730  1.5763
15284SOL    HW252458  10.200   0.615   6.161 -0.2006 -0.2650  0.0522
15285SOL     OW52459   9.344   8.026   4.651 -0.1734  0.4526  0.0850
15285SOL    HW152460   9.402   7.982   4.589  1.4704  0.9616  1.2165
15285SOL    HW252461   9.260   7.980   4.642 -0.1877  0.8822 -2.9252
15286SOL     OW52462   6.024   6.567  10.785 -0.2616  0.1756 -0.1014
15286SOL    HW152463   6.021   6.659  10.812  0.4565  0.8210 -2.0536
15286SOL    HW252464   5.932   6.541  10.779 -0.4672  0.4843  1.2720
15287SOL     OW52465   8.296   0.344  10.199 -0.4373  0.0630 -0.3393
15287SOL    HW152466   8.281   0.387  10.114  0.4778  0.3992 -0.3466
15287SOL    HW252467   8.376   0.293  10.185 -0.6906 -0.4543  0.1141
15288SOL     OW52468  11.575   3.579   9.717  0.1801 -0.4817  0.2248
15288SOL    HW152469  11.586   3.630   9.797  1.2603 -0.7144  0.2371
15288SOL    HW252470  11.636   3.505   9.727 -0.6334 -1.2337 -0.2289
15289SOL     OW52471  10.467   6.000   5.280 -0.3511 -0.5490 -0.0869
15289SOL    HW152472  10.503   5.922   5.237  0.0387 -0.4279  0.0165
15289SOL    HW252473  10.403   5.965   5.342  1.6882 -1.0151  1.8847
15290SOL     OW52474   1.138   8.672  12.076  0.3898  0.6598  0.4561
15290SOL    HW152475   1.228   8.695  12.055  0.7830 -0.2414  1.1299
15290SOL    HW252476   1.086   8.718  12.010  1.3050  1.4889  0.2904
15291SOL     OW52477   8.758  11.519   5.978  0.0763  0.3824  0.7987
15291SOL    HW152478   8.676  11.567   5.963  0.3790  0.5403 -0.4981
15291SOL    HW252479   8.821  11.561   5.920  0.7451 -0.5679  0.8240
15292SOL     OW52480  11.233   9.341   3.606 -0.5009  0.0154 -0.0431
15292SOL    HW152481  11.144   9.306   3.608 -0.0090 -1.4803 -1.8763
15292SOL    HW252482  11.287   9.267   3.581  1.0354  1.3246 -0.7648
15293SOL     OW52483  10.741   5.366   1.435  0.1893 -0.1489 -0.4808
15293SOL    HW152484  10.803   5.423   1.482  1.5189 -0.6899 -1.5245
15293SOL    HW252485  10.757   5.279   1.472  0.5148 -0.3998 -1.2099
15294SOL     OW52486   6.518   1.659  10.491 -0.1234  0.1677  0.4812
15294SOL    HW152487   6.522   1.707  10.574 -2.0241  0.6983  0.3087
15294SOL    HW252488   6.521   1.567  10.517  0.4106  0.3389  1.0477
15295SOL     OW52489   1.357  10.889   8.095 -0.6567 -0.1781  0.5457
15295SOL    HW152490   1.358  10.952   8.167 -0.1019 -0.3899  0.7297
15295SOL    HW252491   1.291  10.922   8.035 -0.3464  0.6010  0.6237
15296SOL     OW52492   7.467   4.345   0.688  0.0297 -0.1035  0.0912
15296SOL    HW152493   7.437   4.268   0.737  0.0669  0.1865  0.5756
15296SOL    HW252494   7.388   4.382   0.650 -0.2991  0.7569  1.5003
15297SOL     OW52495   3.588   1.226   2.614 -0.0484 -0.2108 -0.4512
15297SOL    HW152496   3.655   1.163   2.588  0.4325  0.4589 -0.8717
15297SOL    HW252497   3.637   1.297   2.656 -0.5286  0.1103 -0.4245
15298SOL     OW52498   5.067   5.741   9.294  0.2731  0.4657  0.4865
15298SOL    HW152499   4.972   5.735   9.304  0.2060 -0.1422 -0.3967
15298SOL    HW252500   5.080   5.799   9.219  0.4048 -2.7135 -2.2134
15299SOL     OW52501   3.815   7.454   7.670 -0.1222  0.0938 -0.4372
15299SOL    HW152502   3.858   7.510   7.605 -0.8537 -0.3090 -1.2803
15299SOL    HW252503   3.877   7.451   7.743 -0.3683  2.5980 -0.0332
15300SOL     OW52504   3.090   2.386   5.925  0.4872  0.2967  0.2082
15300SOL    HW152505   3.102   2.463   5.981  0.7844  0.0577  0.4704
15300SOL    HW252506   3.047   2.322   5.981  0.1568  0.3021 -0.0382
15301SOL     OW52507   2.003   7.916  11.332 -0.2463 -0.1814  0.6557
15301SOL    HW152508   1.982   8.009  11.331  0.7342  0.0734  1.4659
15301SOL    HW252509   1.920   7.872  11.315 -0.6139  0.8496 -0.3028
15302SOL     OW52510   0.897   4.602  11.230 -0.0053  1.0323 -0.3163
15302SOL    HW152511   0.953   4.662  11.279  0.8619 -0.3485  0.4521
15302SOL    HW252512   0.958   4.549  11.179 -0.7251  0.5555 -0.6908
15303SOL     OW52513   6.638   5.004   9.038  0.0208  0.1643 -0.4812
15303SOL    HW152514   6.581   4.973   9.108  0.2339 -1.0006 -0.7937
15303SOL    HW252515   6.596   5.083   9.006 -0.0132  0.8009  1.0327
15304SOL     OW52516   2.315   5.943   6.191  0.1176 -0.2243  0.2444
15304SOL    HW152517   2.327   6.012   6.256 -1.5317 -0.6248  1.0378
15304SOL    HW252518   2.258   5.981   6.125 -0.4253 -0.6730  0.4471
15305SOL     OW52519   4.846   4.117   7.499  0.2291  0.0453 -0.5025
15305SOL    HW152520   4.941   4.123   7.486  0.1526 -0.5427 -1.4043
15305SOL    HW252521   4.837   4.091   7.591  1.2577 -5.7324 -1.6319
15306SOL     OW52522   6.991   7.744   1.521 -0.1276  0.0675 -0.0185
15306SOL    HW152523   6.961   7.832   1.497 -0.1351  0.0981  0.1033
15306SOL    HW252524   6.916   7.688   1.500 -0.2763  0.1464  0.2950
15307SOL     OW52525   3.010   5.482   8.531  0.2298  0.5192 -0.1690
15307SOL    HW152526   2.915   5.492   8.543  0.3744 -0.5073  2.2684
15307SOL    HW252527   3.024   5.505   8.439 -2.6624 -1.2866 -1.2172
15308SOL     OW52528   9.133   1.445   4.545 -0.2752  0.4028 -0.2439
15308SOL    HW152529   9.182   1.364   4.536  0.4935  0.7635  0.5791
15308SOL    HW252530   9.129   1.481   4.456  2.2588  1.0919 -0.1576
15309SOL     OW52531   3.330   1.292  10.757 -0.1205  0.1685  0.4689
15309SOL    HW152532   3.364   1.225  10.816 -1.2517 -0.4415  0.4414
15309SOL    HW252533   3.313   1.245  10.675  2.2300  1.1471 -0.6960
15310SOL     OW52534   5.201  10.932   1.369 -0.1987 -0.0073  0.5453
15310SOL    HW152535   5.135  10.863   1.365 -0.0159 -0.1440 -0.5504
15310SOL    HW252536   5.185  10.984   1.290  0.9409  0.0056  0.3103
15311SOL     OW52537   3.575   5.683  11.025  0.4109  0.3514 -0.1911
15311SOL    HW152538   3.584   5.757  11.085  1.7446 -0.4461  0.6607
15311SOL    HW252539   3.582   5.606  11.081 -1.7575 -0.4493 -0.9504
15312SOL     OW52540   2.285   9.422  11.355  0.3869  0.3287  0.6985
15312SOL    HW152541   2.264   9.466  11.438  0.7625 -0.7182  1.3709
15312SOL    HW252542   2.213   9.361  11.342  0.3729  0.4321  0.2985
15313SOL     OW52543   0.578   3.763   2.975  0.1573  0.4294  0.0251
15313SOL    HW152544   0.605   3.679   2.939 -1.3660  0.1278 -0.4953
15313SOL    HW252545   0.651   3.791   3.030  0.4784 -1.4980  0.6382
15314SOL     OW52546   0.786   5.783   1.548  0.1211  0.5770 -0.7121
15314SOL    HW152547   0.701   5.804   1.509  0.5423  0.8208 -1.5227
15314SOL    HW252548   0.831   5.868   1.555  0.8572  0.2867 -1.6633
15315SOL     OW52549  11.953  12.251   3.607  0.0157  0.2606  0.3614
15315SOL    HW152550  11.983  12.179   3.663 -0.0528  0.1618  0.2731
15315SOL    HW252551  12.016  12.322   3.623 -1.0882  0.9253  2.0158
15316SOL     OW52552   0.041  11.042   2.875 -0.2273  0.0527  0.3256
15316SOL    HW152553  -0.019  11.101   2.921 -0.8033  0.4487 -0.8943
15316SOL    HW252554   0.014  11.047   2.783  1.7453  0.3476 -0.2951
15317SOL     OW52555  10.451   2.066  10.349 -0.1786 -0.3654 -0.2720
15317SOL    HW152556  10.520   2.109  10.299 -1.0989  0.5493 -0.7706
15317SOL    HW252557  10.419   2.133  10.409 -1.5269 -0.3749 -0.9530
15318SOL     OW52558   5.605  11.845   7.536 -0.0094  0.0625 -0.2952
15318SOL    HW152559   5.593  11.785   7.463 -2.6959  1.1349 -0.8376
15318SOL    HW252560   5.695  11.877   7.527 -0.0641 -0.3249 -2.7616
15319SOL     OW52561   0.899   3.297  11.694  0.5169  0.0784 -0.6212
15319SOL    HW152562   0.841   3.345  11.753 -0.5177 -2.1469  0.2930
15319SOL    HW252563   0.983   3.292  11.740  0.5930  0.8447 -0.6658
15320SOL     OW52564   4.912   6.265  12.545 -0.3838  0.3904 -0.3991
15320SOL    HW152565   4.951   6.276  12.632 -1.7088  0.3553  0.2180
15320SOL    HW252566   4.844   6.332  12.540 -1.1243 -0.3798 -0.9266
15321SOL     OW52567   5.279   9.626   8.126 -0.3548 -0.3346 -0.4755
15321SOL    HW152568   5.185   9.623   8.111 -0.4529 -0.2646  0.1052
15321SOL    HW252569   5.295   9.713   8.164 -0.3943 -1.1404  1.5319
15322SOL     OW52570   0.747   7.123   9.143  0.3106  0.5754  0.6834
15322SOL    HW152571   0.775   7.061   9.210  0.2511 -0.1598  0.0355
15322SOL    HW252572   0.651   7.122   9.148  0.2109 -0.9016 -0.6419
15323SOL     OW52573   1.295   1.336   7.682  0.2951 -0.7920 -0.7878
15323SOL    HW152574   1.207   1.315   7.713  0.7872 -1.7571  0.0224
15323SOL    HW252575   1.303   1.431   7.692  0.7948 -1.1109  3.1581
15324SOL     OW52576   7.764   7.106  11.830 -0.5851 -0.0275  0.1974
15324SOL    HW152577   7.682   7.153  11.844  0.8032  2.6631  0.0119
15324SOL    HW252578   7.801   7.146  11.751 -0.0480 -2.6657 -0.9680
15325SOL     OW52579   6.004   2.767   3.041 -0.0962  0.1996 -0.0802
15325SOL    HW152580   6.055   2.733   3.114 -1.0166 -0.5883  0.2149
15325SOL    HW252581   6.050   2.736   2.963  1.7502  2.2815  0.0671
15326SOL     OW52582  12.442   7.572   5.152 -0.1214  0.0408 -0.2998
15326SOL    HW152583  12.512   7.553   5.214 -1.3014  1.2494  1.5070
15326SOL    HW252584  12.368   7.519   5.181 -1.0269  1.4363  0.0495
15327SOL     OW52585   2.184   4.821   4.045 -0.1140 -0.4441  0.0425
15327SOL    HW152586   2.146   4.887   4.102 -1.1500 -0.4805 -0.5732
15327SOL    HW252587   2.223   4.757   4.104  0.5114  0.4841  0.6531
15328SOL     OW52588   6.401   1.127  11.856  0.2683  0.3776  0.5826
15328SOL    HW152589   6.378   1.117  11.763 -1.5337 -0.5554  1.0836
15328SOL    HW252590   6.419   1.038  11.886  2.9265  0.8679  0.6981
15329SOL     OW52591   5.946   2.928   8.311  0.1238  0.6953 -0.1954
15329SOL    HW152592   5.956   2.833   8.314 -2.0221  0.3958 -0.9349
15329SOL    HW252593   6.013   2.957   8.250  0.1158 -0.4627 -0.7793
15330SOL     OW52594   0.428   7.674   9.757  0.0179  0.7616 -0.5129
15330SOL    HW152595   0.377   7.636   9.685 -1.5312 -1.4409  1.5991
15330SOL    HW252596   0.467   7.599   9.802 -0.3896  1.8886  1.8838
15331SOL     OW52597   7.362   3.472  12.495  0.1896  0.3641  0.2772
15331SOL    HW152598   7.424   3.441  12.430  0.1721 -0.3443  0.5831
15331SOL    HW252599   7.416   3.491  12.572 -0.2010 -3.1705  1.6128
15332SOL     OW52600  12.442   6.362   9.886  0.4048 -0.2214  0.0063
15332SOL    HW152601  12.433   6.349   9.791 -0.9141 -0.4243  0.1458
15332SOL    HW252602  12.501   6.437   9.894  0.1824  0.0829 -0.9826
15333SOL     OW52603   4.491   5.470  10.325 -0.5796  0.2775  0.5124
15333SOL    HW152604   4.556   5.415  10.280  0.1869  0.6980  1.0904
15333SOL    HW252605   4.520   5.560  10.308 -1.0605  0.4724  0.7135
15334SOL     OW52606   5.479   9.202   3.086  0.1872 -0.1406  0.3110
15334SOL    HW152607   5.505   9.170   3.173 -1.2157 -1.5383  0.2396
15334SOL    HW252608   5.557   9.190   3.032  1.5692  2.0506  1.6290
15335SOL     OW52609   5.463  11.571   9.688 -0.4355 -0.1159  0.1117
15335SOL    HW152610   5.377  11.612   9.696 -0.4394  0.2865 -1.7350
15335SOL    HW252611   5.445  11.482   9.659 -0.2332 -0.0514 -0.2130
15336SOL     OW52612   7.673  12.181   1.593  0.2394  0.2528  0.2411
15336SOL    HW152613   7.612  12.207   1.663 -0.5292 -0.8089 -0.0099
15336SOL    HW252614   7.759  12.201   1.628 -0.0488 -1.2777  1.9630
15337SOL     OW52615  10.001   2.124   7.890  0.0421  0.5641  0.0806
15337SOL    HW152616   9.945   2.139   7.966 -0.5302  0.2859 -0.2753
15337SOL    HW252617  10.007   2.209   7.847 -1.2211  0.3461 -0.6077
15338SOL     OW52618  12.157   9.028   0.431  0.1655  0.7016 -0.6030
15338SOL    HW152619  12.108   8.976   0.495  0.9944 -0.4050 -0.8513
15338SOL    HW252620  12.126   8.996   0.346  2.6685 -1.4540 -0.8215
15339SOL     OW52621  12.064   4.155   6.659 -0.1366 -0.0587  0.1596
15339SOL    HW152622  12.082   4.079   6.714 -0.1817 -0.0845  0.1392
15339SOL    HW252623  12.148   4.176   6.618 -0.0550  0.0896  0.3995
15340SOL     OW52624   0.226   1.481   1.605 -0.2647 -0.3596 -0.6218
15340SOL    HW152625   0.219   1.421   1.680 -0.3106 -1.1725 -1.2618
15340SOL    HW252626   0.272   1.557   1.640 -0.4428 -0.6499  0.2806
15341SOL     OW52627   7.332  11.855   0.274  0.4876 -0.4922  0.1866
15341SOL    HW152628   7.343  11.760   0.262 -2.4076 -0.7456 -1.5119
15341SOL    HW252629   7.415  11.893   0.247  1.0083 -2.4569 -1.2000
15342SOL     OW52630   0.530   2.028  10.979  0.0312  0.7062  0.0720
15342SOL    HW152631   0.538   1.950  10.923 -1.0443  0.9809 -0.4839
15342SOL    HW252632   0.442   2.061  10.962 -0.2394  0.9407  1.7614
15343SOL     OW52633   1.000   8.711   9.049 -0.3998 -0.1788 -0.0029
15343SOL    HW152634   0.944   8.687   9.123  0.3455 -0.3006  0.5443
15343SOL    HW252635   1.089   8.709   9.085  0.1370 -1.8576 -1.3165
15344SOL     OW52636  10.354   5.411   2.256 -0.3318  0.1450  0.7770
15344SOL    HW152637  10.382   5.331   2.300  0.6368  0.6347  1.0747
15344SOL    HW252638  10.320   5.381   2.171 -2.0046 -0.7738  1.7275
15345SOL     OW52639   4.063  12.216   7.638 -0.2971  0.1500  0.0668
15345SOL    HW152640   4.070  12.224   7.543 -1.9936 -1.7001 -0.2784
15345SOL    HW252641   4.104  12.132   7.658 -1.0101 -0.0368  0.8034
15346SOL     OW52642  11.533   7.289   5.972 -0.7221 -0.0965 -0.1872
15346SOL    HW152643  11.614   7.313   6.018 -0.1208  0.0795 -1.3090
15346SOL    HW252644  11.473   7.362   5.990 -0.8504 -0.4935  1.1183
15347SOL     OW52645   5.515   5.912   0.034  0.0666  0.5875 -0.1585
15347SOL    HW152646   5.577   5.969   0.079 -0.7396  1.2524  0.1300
15347SOL    HW252647   5.431   5.959   0.037 -0.6575 -0.6554  0.2135
15348SOL     OW52648   1.787   1.565   3.776  0.3393  0.0051 -0.2807
15348SOL    HW152649   1.857   1.560   3.842  2.3841 -1.2049 -2.3770
15348SOL    HW252650   1.737   1.485   3.788 -0.9161  0.9555  1.3439
15349SOL     OW52651   8.350  10.712   6.317 -0.2201  0.0354 -0.6938
15349SOL    HW152652   8.335  10.806   6.327  2.2671  0.5054 -0.7710
15349SOL    HW252653   8.294  10.672   6.384  0.6502  1.7604  1.1692
15350SOL     OW52654   1.168   1.619   6.024  0.3690 -0.3567 -0.9158
15350SOL    HW152655   1.182   1.663   5.940  0.0440  0.8711 -0.3474
15350SOL    HW252656   1.093   1.664   6.062  0.4039 -1.0188 -0.0281
15351SOL     OW52657   5.280   8.335   3.614  1.0875  0.2836 -0.3699
15351SOL    HW152658   5.228   8.400   3.662  0.7616  1.3455 -2.1001
15351SOL    HW252659   5.300   8.268   3.680 -0.1849  1.1778  0.9948
15352SOL     OW52660   6.940   1.189   9.871 -0.5478 -0.2204  0.1678
15352SOL    HW152661   6.903   1.110   9.910  0.6334 -0.6684  0.4272
15352SOL    HW252662   7.035   1.175   9.874 -0.3245  1.1448  0.0835
15353SOL     OW52663   4.272   6.410   2.204 -0.3581  0.1083 -0.3980
15353SOL    HW152664   4.232   6.476   2.260  0.0474 -1.1055  1.3984
15353SOL    HW252665   4.202   6.345   2.190 -0.3134  0.1660 -0.9322
15354SOL     OW52666   8.833   9.239   2.817 -0.1375  0.3469  0.0551
15354SOL    HW152667   8.913   9.250   2.869 -0.3319 -0.5578  0.5739
15354SOL    HW252668   8.840   9.303   2.746  0.9305  0.4359  0.2379
15355SOL     OW52669   1.603   4.325   6.646  0.1370  0.5368 -0.2295
15355SOL    HW152670   1.566   4.250   6.600 -1.8136  0.5499  1.2298
15355SOL    HW252671   1.693   4.331   6.612 -0.5325 -0.6969 -2.4525
15356SOL     OW52672   7.387  11.036   5.225 -0.4571  0.1267  0.7269
15356SOL    HW152673   7.427  11.119   5.252  0.0666  0.3424 -0.6579
15356SOL    HW252674   7.419  10.972   5.289  1.7283  0.3811 -0.0346
15357SOL     OW52675   6.216  10.482   1.074  0.5492 -0.7386 -0.5680
15357SOL    HW152676   6.176  10.531   1.003  1.5173  2.6594  1.0187
15357SOL    HW252677   6.189  10.528   1.154  2.0006 -2.4958  1.0598
15358SOL     OW52678   5.509  12.754   2.599  0.0862 -0.2606 -0.2559
15358SOL    HW152679   5.596  12.793   2.589  0.4312 -0.2295  2.1644
15358SOL    HW252680   5.468  12.764   2.513  2.1957  0.3730 -1.2655
15359SOL     OW52681   9.726  11.061   4.802 -0.2952 -0.1735 -0.0989
15359SOL    HW152682   9.652  11.002   4.789 -0.2169 -0.2963  0.0168
15359SOL    HW252683   9.725  11.118   4.725 -0.6961  0.0228  0.0479
15360SOL     OW52684   9.213   7.465   3.154  0.5463 -0.2407 -0.5909
15360SOL    HW152685   9.247   7.454   3.243  1.8236  0.5791 -0.9643
15360SOL    HW252686   9.210   7.376   3.119  0.7864 -0.4880 -0.0031
15361SOL     OW52687   7.220   2.156   1.366  0.1115 -0.0761 -0.8237
15361SOL    HW152688   7.143   2.117   1.325  0.5507 -0.2539 -1.4783
15361SOL    HW252689   7.234   2.103   1.445 -0.3017 -0.1785 -0.8148
15362SOL     OW52690   2.100   7.745   8.599  0.3996 -0.0475 -0.1359
15362SOL    HW152691   2.112   7.672   8.539 -1.1506 -0.5427  0.1241
15362SOL    HW252692   2.055   7.812   8.547  0.0475 -0.0441  0.1743
15363SOL     OW52693   8.673   4.755  11.555 -0.3502  0.0041 -0.1961
15363SOL    HW152694   8.721   4.837  11.570 -0.9382  0.6323 -1.5793
15363SOL    HW252695   8.702   4.698  11.625  0.7271  1.1168  0.3143
15364SOL     OW52696  11.409   6.915   9.790 -0.5730  0.0637 -0.1264
15364SOL    HW152697  11.466   6.839   9.784 -0.7702  0.0150 -2.1818
15364SOL    HW252698  11.328   6.888   9.745 -1.2933  0.9282  0.5995
15365SOL     OW52699   5.349   7.666   4.957 -0.5697  0.2075 -0.1249
15365SOL    HW152700   5.255   7.680   4.962 -0.3516  1.3507  1.6901
15365SOL    HW252701   5.371   7.620   5.039  0.4956  0.3571 -0.3089
15366SOL     OW52702   3.324   8.111   8.157  0.0898 -0.5091  0.3693
15366SOL    HW152703   3.298   8.023   8.130  0.7704 -0.3990 -0.7287
15366SOL    HW252704   3.419   8.112   8.149  0.2359 -0.1243  1.8506
15367SOL     OW52705   5.390   0.884   7.169  0.0351 -0.0275 -0.4943
15367SOL    HW152706   5.422   0.802   7.207  0.1246  0.2402  0.0156
15367SOL    HW252707   5.345   0.857   7.089  0.5097 -0.5243 -0.6032
15368SOL     OW52708  12.210   2.042  12.336 -0.0571 -0.8219 -0.0791
15368SOL    HW152709  12.245   2.042  12.247 -1.8238 -0.1260 -0.8235
15368SOL    HW252710  12.264   2.104  12.384 -0.0517 -0.0207 -1.0952
15369SOL     OW52711   2.966   7.303   0.775 -0.1744  0.3256  0.4139
15369SOL    HW152712   3.041   7.320   0.718 -0.8255  1.5625 -0.1149
15369SOL    HW252713   2.994   7.230   0.830  0.3364 -1.2446 -1.7740
15370SOL     OW52714   9.869  10.723   9.289 -0.1976 -0.1398  0.0187
15370SOL    HW152715   9.875  10.722   9.384 -0.4363  0.6409  0.0487
15370SOL    HW252716   9.815  10.647   9.267  1.2425 -1.3165  0.3848
15371SOL     OW52717  10.714  11.261   9.878  0.4247  0.2563  0.0814
15371SOL    HW152718  10.670  11.345   9.889 -0.3269 -0.2190  0.7795
15371SOL    HW252719  10.685  11.208   9.953 -0.0155 -1.0156 -0.9481
15372SOL     OW52720   3.634  12.224   9.104  0.2019 -0.4642  0.5813
15372SOL    HW152721   3.574  12.210   9.031 -0.1023  0.0471  0.7264
15372SOL    HW252722   3.703  12.279   9.068  0.0513 -0.2111  0.6801
15373SOL     OW52723   6.237  10.005  10.436  0.0242 -0.0182 -0.0801
15373SOL    HW152724   6.313   9.998  10.494  0.2870 -1.4354 -0.5745
15373SOL    HW252725   6.270  10.051  10.359 -0.2764  1.6879  0.7514
15374SOL     OW52726   6.234   4.967   2.144 -0.4124  0.1021 -0.0502
15374SOL    HW152727   6.190   5.048   2.119  0.3809  0.4509 -0.3416
15374SOL    HW252728   6.239   4.972   2.240 -1.6328 -0.2855  0.0569
15375SOL     OW52729   0.868   4.879   5.201  0.1319  0.0834  0.0695
15375SOL    HW152730   0.959   4.881   5.173  0.1350 -0.0155  0.0729
15375SOL    HW252731   0.872   4.865   5.296  0.1100 -0.0368  0.0527
15376SOL     OW52732  11.311   9.051   4.805  0.0985  0.0235 -0.3570
15376SOL    HW152733  11.337   9.044   4.713  2.1112 -1.4705  0.2460
15376SOL    HW252734  11.234   8.995   4.813 -0.8510  1.1373 -1.3389
15377SOL     OW52735   7.400   5.539   8.149  0.6580 -0.0340  0.0231
15377SOL    HW152736   7.491   5.530   8.176  0.7892  0.2818 -0.3074
15377SOL    HW252737   7.390   5.631   8.126 -0.7875  0.9462  3.7971
15378SOL     OW52738   4.123   6.024   9.729  0.4500  0.1107 -0.3349
15378SOL    HW152739   4.049   6.080   9.749 -2.0834 -3.6765  2.2201
15378SOL    HW252740   4.088   5.958   9.668  1.8216 -1.4195  0.4453
15379SOL     OW52741   2.205   0.875   8.084 -0.3977  0.1723  0.0046
15379SOL    HW152742   2.162   0.944   8.134 -0.6443  0.6979 -0.9251
15379SOL    HW252743   2.139   0.805   8.079 -0.1218 -0.1773  1.0059
15380SOL     OW52744   2.760   6.017  12.528  0.5856  0.7705  0.2479
15380SOL    HW152745   2.721   6.096  12.566  0.9985  1.2873 -0.3817
15380SOL    HW252746   2.854   6.037  12.522  0.8168 -0.0809  0.8265
15381SOL     OW52747   2.242   7.020  12.086 -0.1751  0.1714  0.2835
15381SOL    HW152748   2.295   7.082  12.135 -0.1254  1.5667 -1.4178
15381SOL    HW252749   2.158   7.064  12.075  0.0883  0.2973 -1.5523
15382SOL     OW52750   4.915   6.284   3.909 -0.2073 -0.2245  0.7294
15382SOL    HW152751   4.998   6.317   3.875 -0.8594 -1.1107 -2.0010
15382SOL    HW252752   4.859   6.278   3.832 -2.1780 -1.5207  2.1794
15383SOL     OW52753   2.535   8.953   3.863  0.2174 -0.4344 -0.1908
15383SOL    HW152754   2.586   8.908   3.796  0.8536  0.2000 -0.1394
15383SOL    HW252755   2.445   8.949   3.830  0.1423 -2.3335  0.1517
15384SOL     OW52756   2.169   5.927   6.756  0.2160 -0.2592 -0.6196
15384SOL    HW152757   2.135   5.889   6.837 -2.6334  2.0794 -0.5709
15384SOL    HW252758   2.141   5.866   6.688 -1.7828  0.1901 -0.2662
15385SOL     OW52759  10.779   1.657   4.982 -0.1322 -0.0783 -0.0677
15385SOL    HW152760  10.714   1.715   5.021  1.1219  1.0214  0.4727
15385SOL    HW252761  10.848   1.649   5.048 -0.0775 -1.8718 -0.3054
15386SOL     OW52762   2.599   0.868   5.309 -0.0353 -0.3485 -0.1181
15386SOL    HW152763   2.626   0.783   5.344 -0.6249 -0.8807 -0.9389
15386SOL    HW252764   2.669   0.928   5.336 -0.5178 -0.6951  2.0977
15387SOL     OW52765   2.629   1.820   5.195  0.6586 -0.1373 -0.5018
15387SOL    HW152766   2.551   1.869   5.221  1.4571 -0.1076  2.1799
15387SOL    HW252767   2.678   1.880   5.139 -0.4035  0.4960 -0.7769
15388SOL     OW52768   3.480   3.963   5.969  0.3061  0.4271  0.2875
15388SOL    HW152769   3.486   3.906   5.892  1.8246  1.1315 -0.1644
15388SOL    HW252770   3.497   3.904   6.043  0.0474 -0.0362 -0.0165
15389SOL     OW52771   9.816   9.323   2.741 -0.3106 -0.3493 -0.8989
15389SOL    HW152772   9.756   9.267   2.790 -0.6241  0.0865 -0.7774
15389SOL    HW252773   9.903   9.292   2.765 -0.4695 -0.3302 -0.2891
15390SOL     OW52774   9.639   0.699   5.433 -0.0342 -0.1988  0.1111
15390SOL    HW152775   9.671   0.672   5.347 -0.0596  2.0726 -0.6806
15390SOL    HW252776   9.665   0.791   5.440 -3.0996  0.7245  0.9936
15391SOL     OW52777   6.433  11.348   5.023 -0.0719  0.2005  0.2652
15391SOL    HW152778   6.449  11.404   4.947 -0.5504  0.9570  0.7053
15391SOL    HW252779   6.485  11.389   5.093 -1.4081  0.8408  0.9102
15392SOL     OW52780   6.429   1.246   6.301  0.2612 -0.4780  0.7672
15392SOL    HW152781   6.344   1.208   6.324  0.1398 -1.1829 -0.6925
15392SOL    HW252782   6.410   1.338   6.284  0.0560 -0.3253  1.7685
15393SOL     OW52783  12.560   6.337   3.365 -0.4028  0.1636  0.1381
15393SOL    HW152784  12.487   6.286   3.328  0.3566  0.0628 -1.2898
15393SOL    HW252785  12.605   6.275   3.422 -2.0808  0.5575  2.0250
15394SOL     OW52786  11.190   8.346   4.466  0.7661  0.0975 -0.0586
15394SOL    HW152787  11.160   8.382   4.383 -2.6855 -1.6290  0.2127
15394SOL    HW252788  11.208   8.254   4.447 -2.8099 -1.0999  1.3813
15395SOL     OW52789  12.385   5.464   4.910 -0.1849  0.4892 -0.3692
15395SOL    HW152790  12.464   5.491   4.957  1.6997 -1.4833 -2.1363
15395SOL    HW252791  12.360   5.541   4.858  0.4923  1.1946  0.3313
15396SOL     OW52792   4.111   3.673   6.762 -0.5424  0.6306 -0.1694
15396SOL    HW152793   4.178   3.720   6.811 -0.4790 -0.5942  1.0048
15396SOL    HW252794   4.154   3.592   6.734 -1.3422  0.0970  0.0929
15397SOL     OW52795   1.373  10.922   1.831 -0.2070  0.6878 -0.0065
15397SOL    HW152796   1.314  10.997   1.840 -0.4686  0.6729 -1.4462
15397SOL    HW252797   1.461  10.961   1.833 -0.2892  0.8686  0.5815
15398SOL     OW52798   3.681  11.548   2.007  0.3600  0.3347 -0.0609
15398SOL    HW152799   3.628  11.471   1.985 -0.4426  0.6678  0.6325
15398SOL    HW252800   3.751  11.514   2.063 -0.5251  0.2152  1.0135
15399SOL     OW52801  10.764   9.059  10.287 -0.2849  0.4839 -0.1793
15399SOL    HW152802  10.829   8.998  10.253 -0.8079  0.3618 -1.0228
15399SOL    HW252803  10.680   9.021  10.260 -0.8484 -0.3013  2.3969
15400SOL     OW52804  11.281   9.612   6.550 -0.8035 -0.0633  0.2374
15400SOL    HW152805  11.277   9.639   6.458  0.2765  2.6010  0.8812
15400SOL    HW252806  11.374   9.599   6.568 -0.9420  0.0899  1.1325
15401SOL     OW52807   3.174  12.723   6.981  0.4534 -0.0244 -0.1100
15401SOL    HW152808   3.207  12.786   6.917 -0.6422  0.8085  0.1308
15401SOL    HW252809   3.163  12.642   6.931  0.2763  0.4304 -0.8126
15402SOL     OW52810  12.782  11.304   5.312  0.0707 -0.0388  0.2175
15402SOL    HW152811  12.721  11.345   5.374 -0.3064  0.7693 -0.6760
15402SOL    HW252812  12.776  11.210   5.332 -1.2804  0.0503  0.3306
15403SOL     OW52813   9.645   9.472   1.988  0.2656  0.3784  0.1029
15403SOL    HW152814   9.674   9.527   1.915 -2.1110 -1.2081 -2.2262
15403SOL    HW252815   9.621   9.534   2.057 -1.9576  2.3766 -2.2533
15404SOL     OW52816   3.323   2.313   2.304 -0.0244 -0.3148 -0.3453
15404SOL    HW152817   3.362   2.313   2.217 -0.4700  0.0218 -0.5496
15404SOL    HW252818   3.382   2.368   2.357  0.2617 -0.5446 -0.4224
15405SOL     OW52819   8.607  12.573   4.034  0.0593  0.2785  0.0210
15405SOL    HW152820   8.671  12.629   3.991  0.6127 -0.3046  0.0643
15405SOL    HW252821   8.547  12.633   4.078  0.4152  0.8384 -0.2508
15406SOL     OW52822   1.946   2.814  12.063 -0.1767  0.2084 -0.3661
15406SOL    HW152823   2.021   2.812  12.004 -0.1434 -1.7680 -0.3187
15406SOL    HW252824   1.876   2.771  12.014 -0.2790 -1.0580  0.8307
15407SOL     OW52825   0.689   2.282   3.067 -0.4183 -0.5351 -0.2618
15407SOL    HW152826   0.614   2.280   3.127  0.1557  0.1813  0.5045
15407SOL    HW252827   0.766   2.274   3.124  0.1207 -0.3669 -0.9515
15408SOL     OW52828   4.477  11.883   0.476 -0.1172  0.6316  0.8809
15408SOL    HW152829   4.546  11.878   0.542 -0.0207 -1.9516  0.6646
15408SOL    HW252830   4.520  11.858   0.394 -1.2737 -0.9836  0.7367
15409SOL     OW52831   5.178  10.976   0.791  0.1742  0.2063  0.6094
15409SOL    HW152832   5.098  10.927   0.772  0.3945 -0.1380  0.5544
15409SOL    HW252833   5.239  10.910   0.824  1.0452  0.1147 -1.0733
15410SOL     OW52834   8.189   7.141  10.087  0.1184  0.1908  0.3566
15410SOL    HW152835   8.134   7.211  10.122 -0.8529 -0.3821  0.0073
15410SOL    HW252836   8.127   7.077  10.052  0.9981 -0.6902  0.3705
15411SOL     OW52837  11.273  12.466   3.955 -0.0491  0.5007 -0.0393
15411SOL    HW152838  11.338  12.536   3.950 -1.5982  2.0374  0.4310
15411SOL    HW252839  11.251  12.448   3.863  1.3215 -0.3662 -0.2307
15412SOL     OW52840   0.736   5.726   1.971  0.1531  0.2520  0.0209
15412SOL    HW152841   0.799   5.697   1.905  0.9749 -4.7920  2.5582
15412SOL    HW252842   0.788   5.780   2.031  0.9449 -0.1843 -0.2633
15413SOL     OW52843   3.213   1.780   2.446  0.0799 -0.2375  0.5231
15413SOL    HW152844   3.118   1.792   2.447  0.1093  0.1085 -0.2582
15413SOL    HW252845   3.247   1.864   2.415  0.5995 -0.5705  0.1722
15414SOL     OW52846   1.203   3.416  12.599  0.2501 -0.1200 -0.3065
15414SOL    HW152847   1.126   3.473  12.593  0.1038 -0.0402  1.5823
15414SOL    HW252848   1.250   3.449  12.676  1.4300 -1.0736 -0.5933
15415SOL     OW52849  12.416   6.990   4.322  0.2984 -0.4053 -0.1342
15415SOL    HW152850  12.382   6.935   4.392 -2.0172  1.0844  0.0086
15415SOL    HW252851  12.385   7.078   4.343  1.9451  0.5756 -1.5604
15416SOL     OW52852   4.976   8.277   7.733  0.2499  0.2376  0.5091
15416SOL    HW152853   5.010   8.234   7.655 -2.1741 -1.7623  0.4023
15416SOL    HW252854   4.983   8.211   7.802  0.0461  1.0791  1.3659
15417SOL     OW52855   5.432   2.826   2.802  0.0294  0.0390  0.3109
15417SOL    HW152856   5.378   2.793   2.874 -1.2997  0.4657 -0.4567
15417SOL    HW252857   5.380   2.896   2.764  0.4617 -0.5189 -1.3830
15418SOL     OW52858  11.739   6.306   8.069 -0.2596 -0.3727 -0.1468
15418SOL    HW152859  11.778   6.334   8.151 -0.4034  1.1639 -0.5652
15418SOL    HW252860  11.773   6.367   8.004 -2.4305  0.3149 -0.7214
15419SOL     OW52861   0.335   6.545   1.658 -0.4399 -0.5128  0.2242
15419SOL    HW152862   0.284   6.490   1.718 -0.6149 -1.8287 -1.0834
15419SOL    HW252863   0.281   6.552   1.580  0.3103  0.1719 -0.2452
15420SOL     OW52864   7.785   9.144   9.509 -0.0243 -0.2387  0.1051
15420SOL    HW152865   7.872   9.182   9.507 -0.9773  2.2153  1.2012
15420SOL    HW252866   7.745   9.169   9.426 -0.4222  0.6398  0.5456
15421SOL     OW52867   1.800   0.269   6.004  0.2693 -0.1134  0.3257
15421SOL    HW152868   1.710   0.281   5.973  0.6507 -0.8484 -1.1472
15421SOL    HW252869   1.793   0.267   6.099 -1.3244 -0.5065  0.2206
15422SOL     OW52870   0.440   8.413   5.319 -0.0225  0.0560  0.4922
15422SOL    HW152871   0.456   8.507   5.326 -1.2050  0.2172  1.3246
15422SOL    HW252872   0.368   8.405   5.256 -0.0670 -0.2739  0.5842
15423SOL     OW52873   0.834   9.040   5.687  0.0009 -0.5436  0.2375
15423SOL    HW152874   0.755   8.997   5.653  0.0675 -0.0528 -0.5444
15423SOL    HW252875   0.810   9.133   5.691 -0.2428 -0.6416  2.1771
15424SOL     OW52876   8.105  10.935   6.290 -1.0481  0.5329  0.0448
15424SOL    HW152877   8.036  10.983   6.245 -1.0736 -0.2782 -0.8123
15424SOL    HW252878   8.151  10.888   6.221 -1.3349 -1.0651  0.8892
15425SOL     OW52879   3.701   4.920   3.707 -0.0073  0.5810 -0.1887
15425SOL    HW152880   3.736   4.857   3.644 -0.1604 -0.7108  0.9810
15425SOL    HW252881   3.779   4.962   3.745  0.3954 -1.7553  1.8655
15426SOL     OW52882  10.056   8.864   7.256 -0.0323  0.5302 -0.1165
15426SOL    HW152883   9.974   8.861   7.305 -2.0437 -1.1165 -3.2249
15426SOL    HW252884  10.052   8.945   7.206  0.8988  1.0718  0.6464
15427SOL     OW52885   4.534   1.054   0.448 -0.5133  0.5020 -0.0386
15427SOL    HW152886   4.584   1.061   0.530  0.3166  0.2304 -0.5063
15427SOL    HW252887   4.600   1.031   0.382 -1.3680 -0.4783 -0.5658
15428SOL     OW52888   4.950   9.881  12.167  0.2674  0.2070 -0.0702
15428SOL    HW152889   4.913   9.904  12.252  0.4832  0.8855 -0.1598
15428SOL    HW252890   5.000   9.958  12.140  3.0625 -1.2078  0.7339
15429SOL     OW52891  11.842   7.426   3.218 -0.2487  0.5559 -0.2053
15429SOL    HW152892  11.850   7.521   3.218 -1.5362  0.7096  1.0139
15429SOL    HW252893  11.781   7.407   3.147 -2.1016  0.9458  1.1734
15430SOL     OW52894   2.860   2.578   8.757  0.4723 -0.2766 -0.2385
15430SOL    HW152895   2.928   2.623   8.706 -0.0303  0.0915 -0.5847
15430SOL    HW252896   2.901   2.496   8.783  0.9877 -0.1425 -0.6103
15431SOL     OW52897   7.594  10.367   4.283 -0.0376  0.3029  0.6593
15431SOL    HW152898   7.518  10.403   4.328 -0.9288  0.7484 -1.1249
15431SOL    HW252899   7.607  10.425   4.207  0.3842 -1.3451 -0.5849
15432SOL     OW52900  11.802   0.173   7.109 -0.1324 -0.4837 -0.6071
15432SOL    HW152901  11.718   0.187   7.153  0.0514  1.0277 -0.6886
15432SOL    HW252902  11.795   0.084   7.073 -2.0717 -0.0857 -1.3748
15433SOL     OW52903   2.274   4.620   4.186 -0.2890  1.1445  0.1063
15433SOL    HW152904   2.181   4.627   4.208 -0.4083  2.5866 -0.7267
15433SOL    HW252905   2.320   4.644   4.266 -0.5685 -0.9336  0.9589
15434SOL     OW52906   7.957   6.950   5.130 -0.5676 -0.6178 -0.2770
15434SOL    HW152907   7.921   6.969   5.217  2.6146 -0.3158  1.1402
15434SOL    HW252908   8.006   6.869   5.142 -0.3897 -0.7829 -1.9253
15435SOL     OW52909   6.489   0.721  10.379 -0.5579  0.0886 -0.1827
15435SOL    HW152910   6.531   0.767  10.306  0.6391 -0.1556  0.3397
15435SOL    HW252911   6.414   0.677  10.339  0.3281 -0.4041 -1.3585
15436SOL     OW52912   4.370   6.147   8.547 -0.1292 -0.5170  0.0117
15436SOL    HW152913   4.373   6.163   8.642 -1.5004 -1.2564  0.2088
15436SOL    HW252914   4.289   6.096   8.534  0.4376 -1.0893 -1.4587
15437SOL     OW52915   1.625  12.256   5.709  0.3012 -0.1880  0.2108
15437SOL    HW152916   1.686  12.269   5.782  2.5192 -1.3903 -1.3115
15437SOL    HW252917   1.639  12.332   5.653  0.9586 -0.7807 -0.4625
15438SOL     OW52918   4.923  12.609   7.855 -0.2438  0.1419 -0.3473
15438SOL    HW152919   4.848  12.668   7.861 -1.5801 -0.9344 -3.9958
15438SOL    HW252920   4.987  12.655   7.801  0.6630 -0.0223  0.5349
15439SOL     OW52921  10.423   6.590   5.690 -0.1007 -0.0640  0.0859
15439SOL    HW152922  10.344   6.644   5.693  0.2063  0.4140 -0.4272
15439SOL    HW252923  10.409   6.531   5.616  0.0087 -0.0090  0.0219
15440SOL     OW52924   2.611   8.701  11.027 -0.7267  0.5208 -0.4973
15440SOL    HW152925   2.632   8.643  11.100 -0.4762 -0.8037 -1.5795
15440SOL    HW252926   2.516   8.700  11.022 -0.6895 -0.8192 -1.2749
15441SOL     OW52927   7.558   7.909   6.344 -0.4243  0.2561  0.0214
15441SOL    HW152928   7.555   7.814   6.355 -2.0081  0.3851  1.1476
15441SOL    HW252929   7.595   7.941   6.427 -1.6343  0.6840  0.4213
15442SOL     OW52930   4.353   1.565   0.040 -0.0101 -0.3626 -0.8385
15442SOL    HW152931   4.291   1.604  -0.022  0.9898  1.0171 -1.0204
15442SOL    HW252932   4.438   1.604   0.017  0.8231 -1.7310 -0.1937
15443SOL     OW52933   9.413   1.136   7.197  0.3966 -0.0901  0.5891
15443SOL    HW152934   9.419   1.122   7.102  0.1859 -1.4277  0.7495
15443SOL    HW252935   9.319   1.130   7.216  0.1684  2.4695  0.5986
15444SOL     OW52936   0.414   5.587   6.603 -0.0380 -0.2970  1.3203
15444SOL    HW152937   0.472   5.519   6.637  0.0482 -0.0534  1.6691
15444SOL    HW252938   0.410   5.652   6.674  1.6897  1.1684  0.1700
15445SOL     OW52939   2.609   3.514   5.120  0.1662 -0.4175 -0.2045
15445SOL    HW152940   2.682   3.491   5.063  0.4744 -1.6100  0.6323
15445SOL    HW252941   2.633   3.599   5.156  0.9296 -0.5832 -0.3004
15446SOL     OW52942   4.092   6.058   8.553 -0.4725  0.3527 -0.2348
15446SOL    HW152943   4.036   6.037   8.627  1.2239 -3.5203  0.2308
15446SOL    HW252944   4.045   6.022   8.477 -0.5657  1.0451 -0.5115
15447SOL     OW52945   9.007   7.547   0.989 -0.2702  0.0507 -0.1252
15447SOL    HW152946   8.934   7.538   1.050  0.4013  0.0873  0.7025
15447SOL    HW252947   9.050   7.462   0.990  0.9218  0.6257  1.0174
15448SOL     OW52948  11.860   1.900   2.424 -0.5628 -0.3748  0.3715
15448SOL    HW152949  11.923   1.952   2.375 -1.1723  1.0017  0.9665
15448SOL    HW252950  11.905   1.877   2.505 -0.0166 -1.5072 -0.2262
15449SOL     OW52951   8.629   7.443   3.519  0.2016 -0.0200 -0.1961
15449SOL    HW152952   8.536   7.460   3.505 -1.0043 -3.7442  1.8439
15449SOL    HW252953   8.652   7.495   3.596 -0.9043 -0.7554  0.6684
15450SOL     OW52954   2.492   0.846  10.012 -0.0002  0.0119 -0.0445
15450SOL    HW152955   2.535   0.853  10.098  0.9123 -2.3125 -0.2562
15450SOL    HW252956   2.419   0.786  10.026  0.1853 -0.4290 -0.8977
15451SOL     OW52957   0.053   6.339   6.564 -0.9071  0.5209  0.1413
15451SOL    HW152958   0.094   6.258   6.533 -2.7815 -0.0365 -0.9990
15451SOL    HW252959  -0.020   6.311   6.619 -1.6460  1.4189 -0.3432
15452SOL     OW52960   5.992  11.843   6.517  0.3598  0.2983 -0.5284
15452SOL    HW152961   6.076  11.798   6.521  0.0308 -0.2454  1.2492
15452SOL    HW252962   5.927  11.773   6.519 -0.1469  0.7354 -1.1699
15453SOL     OW52963  12.209   5.346   4.340  0.0517  0.1077 -0.2432
15453SOL    HW152964  12.242   5.430   4.371  0.4023  0.2149 -0.8862
15453SOL    HW252965  12.144   5.369   4.273 -1.5074 -0.0893  1.1230
15454SOL     OW52966   9.947   0.838   1.733  0.2846  0.2435 -0.4036
15454SOL    HW152967  10.019   0.892   1.766 -1.1921  2.0747  0.0252
15454SOL    HW252968   9.979   0.805   1.649  1.9566  0.2136  0.2017
15455SOL     OW52969   4.161   0.497   8.522 -0.0640  0.0733 -0.8085
15455SOL    HW152970   4.222   0.442   8.571  0.5743  1.2889 -0.1944
15455SOL    HW252971   4.177   0.586   8.554 -1.5481  0.5455 -1.2800
15456SOL     OW52972   4.180  12.143   5.730  0.1042  0.1398 -0.2896
15456SOL    HW152973   4.103  12.189   5.763  1.0795  2.6367 -1.1794
15456SOL    HW252974   4.148  12.093   5.655 -1.0361 -0.8598  0.8121
15457SOL     OW52975  12.116   8.203   3.661 -0.1282  0.1000  0.4097
15457SOL    HW152976  12.144   8.114   3.682  1.1469  0.5045  0.4946
15457SOL    HW252977  12.021   8.196   3.651  0.0763 -1.5114 -0.8450
15458SOL     OW52978   9.606  11.044   7.589  0.2890 -0.5591 -0.4089
15458SOL    HW152979   9.679  11.030   7.649  0.3227  0.1036 -0.2866
15458SOL    HW252980   9.610  10.970   7.528  1.2788 -0.3474 -0.6215
15459SOL     OW52981   8.741   8.033  12.541 -0.1880 -0.4818 -0.0801
15459SOL    HW152982   8.711   7.952  12.582 -1.6481  0.5113  0.8927
15459SOL    HW252983   8.824   8.053  12.583 -0.2728 -0.9975  0.3310
15460SOL     OW52984   8.510  11.436  10.945  0.1688 -0.3131  0.0421
15460SOL    HW152985   8.417  11.416  10.945 -0.2360  1.3690 -0.2215
15460SOL    HW252986   8.530  11.462  11.035  0.6105 -1.5043  0.3096
15461SOL     OW52987  11.876   5.016   8.985  0.4065  0.0571 -0.5013
15461SOL    HW152988  11.781   5.027   8.976  0.1884 -1.2563  0.0566
15461SOL    HW252989  11.911   5.104   8.968 -0.9541  0.7541  0.0819
15462SOL     OW52990   0.910  11.635   7.697 -0.1899 -0.1265  0.0304
15462SOL    HW152991   0.845  11.565   7.703  0.3936 -0.9602 -2.3127
15462SOL    HW252992   0.953  11.635   7.782  1.2428 -4.1576 -0.4484
15463SOL     OW52993   6.433  10.783   0.708  0.1051 -0.2445 -0.0209
15463SOL    HW152994   6.490  10.706   0.704  1.3575  0.6755 -0.4332
15463SOL    HW252995   6.381  10.779   0.628  0.6637 -0.3000 -0.3870
15464SOL     OW52996   7.526   7.605  10.049 -0.3748 -0.8171 -0.1622
15464SOL    HW152997   7.523   7.524  10.099  1.9266 -1.7175 -1.3106
15464SOL    HW252998   7.547   7.673  10.113 -1.0654 -1.3319  0.6143
15465SOL     OW52999   0.716   0.895   9.788 -0.0518  0.1222 -0.1554
15465SOL    HW153000   0.690   0.900   9.881 -0.7745 -0.1456 -0.3306
15465SOL    HW253001   0.661   0.960   9.744  0.0036 -0.0285 -0.4497
15466SOL     OW53002  10.730   7.284   7.436  0.1598 -0.3322 -0.0869
15466SOL    HW153003  10.760   7.310   7.523  0.6175  2.4864 -0.9845
15466SOL    HW253004  10.637   7.306   7.435 -0.4524 -2.5640  0.3705
15467SOL     OW53005   7.452   8.002  11.072 -0.0565  0.4392  0.7670
15467SOL    HW153006   7.534   8.019  11.026 -0.0048  0.1189  0.7391
15467SOL    HW253007   7.409   8.087  11.077  0.2037  0.5776  0.6369
15468SOL     OW53008   5.462  11.577   2.714  0.1378 -0.3162 -0.2942
15468SOL    HW153009   5.486  11.544   2.628 -0.5632 -0.4657 -0.4428
15468SOL    HW253010   5.375  11.540   2.731  0.7074 -1.1371  0.9382
15469SOL     OW53011   0.047   6.208   0.308 -0.0953 -0.0504 -0.2871
15469SOL    HW153012  -0.013   6.162   0.367  0.9559 -1.7406 -0.4685
15469SOL    HW253013   0.119   6.236   0.364 -0.2906  0.5784 -0.3441
15470SOL     OW53014  11.378   0.978   5.649  0.2025 -0.1785  0.0298
15470SOL    HW153015  11.296   0.930   5.660  0.3324 -0.0737  1.5736
15470SOL    HW253016  11.441   0.911   5.623  0.4639 -0.9792  2.4890
15471SOL     OW53017  10.047  11.202   9.728 -0.8116 -0.8554  0.0353
15471SOL    HW153018  10.117  11.144   9.697  1.6348  2.1787 -0.5518
15471SOL    HW253019  10.070  11.221   9.819 -0.8386  0.1594 -0.1554
15472SOL     OW53020  12.547   2.646   4.025  0.0896 -0.6528  0.0450
15472SOL    HW153021  12.524   2.570   4.079 -0.0179  0.3736  1.5095
15472SOL    HW253022  12.479   2.648   3.958  0.5775 -2.3228 -0.5579
15473SOL     OW53023   5.226   1.820  10.814 -0.2588 -0.2799 -0.2851
15473SOL    HW153024   5.319   1.818  10.792 -0.2886 -1.8529 -0.4481
15473SOL    HW253025   5.188   1.749  10.762 -1.9023  1.4655 -1.5940
15474SOL     OW53026   7.384   8.295  12.775 -0.0954  0.2568  0.3880
15474SOL    HW153027   7.314   8.360  12.769 -1.8124 -1.3352  1.9039
15474SOL    HW253028   7.411   8.296  12.867  1.7156  0.6284 -0.1105
15475SOL     OW53029   2.804  12.777   4.716 -0.1909  0.3803  0.1274
15475SOL    HW153030   2.839  12.836   4.650  0.2510 -1.1082 -1.0159
15475SOL    HW253031   2.874  12.714   4.732 -1.4874 -1.2863 -0.4964
15476SOL     OW53032   2.587  11.993   8.325 -0.5090  0.5923  0.4431
15476SOL    HW153033   2.564  12.006   8.233 -0.2220 -0.7326  0.1597
15476SOL    HW253034   2.664  12.049   8.338  0.4004 -0.3715 -0.5661
15477SOL     OW53035  11.466   5.593  10.429 -0.9431  1.0817  0.2232
15477SOL    HW153036  11.407   5.540  10.483 -0.4726  1.0809  0.7465
15477SOL    HW253037  11.448   5.565  10.339 -1.7173  1.0606  0.3780
15478SOL     OW53038   8.377   0.491   3.111 -0.0028  0.1458 -0.1623
15478SOL    HW153039   8.362   0.567   3.055  1.7702 -0.2145 -1.1910
15478SOL    HW253040   8.395   0.529   3.198  0.7156  0.9038 -0.6304
15479SOL     OW53041   8.411   2.335  11.354 -0.2070 -0.0503 -0.2469
15479SOL    HW153042   8.401   2.406  11.418  1.2941  0.1203 -0.1592
15479SOL    HW253043   8.474   2.369  11.291 -1.2616 -0.4241 -1.5388
15480SOL     OW53044   1.598   9.078   0.356  0.1838 -0.2669  0.0334
15480SOL    HW153045   1.607   9.098   0.263 -0.5869 -0.6068 -0.1238
15480SOL    HW253046   1.685   9.048   0.383  0.1948 -0.9885 -0.7777
15481SOL     OW53047   8.556   3.114  11.993  0.6694 -0.1914 -0.2809
15481SOL    HW153048   8.468   3.141  12.019  1.1222  1.7087 -0.5949
15481SOL    HW253049   8.590   3.188  11.942  2.1810 -1.1870 -0.7799
15482SOL     OW53050   1.446   8.788  11.629  0.1961 -0.7927 -0.6554
15482SOL    HW153051   1.411   8.872  11.660 -0.3439 -1.1373 -0.3218
15482SOL    HW253052   1.504   8.812  11.556  0.2309 -0.1110 -0.4120
15483SOL     OW53053   8.879  10.762   3.655 -0.3052  0.2899  0.1027
15483SOL    HW153054   8.963  10.718   3.637  0.4169  1.5887  0.2057
15483SOL    HW253055   8.859  10.738   3.745 -0.0581 -0.0448  0.0713
15484SOL     OW53056   3.172   1.940   6.569 -0.0611  0.2233  0.2537
15484SOL    HW153057   3.138   1.850   6.565  0.9075 -0.2600  1.9354
15484SOL    HW253058   3.266   1.929   6.584  0.5497  1.5480 -2.0536
15485SOL     OW53059   6.350   7.639   2.085  0.1222 -0.2751 -0.7349
15485SOL    HW153060   6.366   7.692   2.007  0.7166  0.2094 -0.2961
15485SOL    HW253061   6.256   7.644   2.099  0.3751  2.9117  0.7975
15486SOL     OW53062   2.728   0.624   8.276 -0.0244  0.3792  0.5940
15486SOL    HW153063   2.655   0.676   8.241  1.3139  1.3181 -0.9032
15486SOL    HW253064   2.756   0.569   8.203  1.6909  1.0678  0.7081
15487SOL     OW53065  11.267  12.537   1.177 -0.2603  0.6714  0.3119
15487SOL    HW153066  11.229  12.511   1.261 -0.6173  0.7156  0.1658
15487SOL    HW253067  11.348  12.487   1.171 -0.4959  0.2683  0.4442
15488SOL     OW53068   4.697   9.803   7.090  0.4102  0.6177 -0.7153
15488SOL    HW153069   4.747   9.742   7.144  1.8544  0.4694 -2.1316
15488SOL    HW253070   4.642   9.850   7.152 -0.1174 -1.5048  0.5091
15489SOL     OW53071   4.858   6.687  12.542 -0.4461  0.6499 -0.0843
15489SOL    HW153072   4.837   6.768  12.495  1.0006  1.3299  0.3854
15489SOL    HW253073   4.952   6.693  12.559 -0.5474 -0.5698  1.0487
15490SOL     OW53074   6.059   8.403  12.424 -0.3672  0.8578 -0.2958
15490SOL    HW153075   6.104   8.319  12.417  1.2705  1.7147 -0.5328
15490SOL    HW253076   6.003   8.394  12.501 -1.6589 -1.0679 -1.3755
15491SOL     OW53077   3.266   4.068   9.934 -0.6444  0.0327  0.0477
15491SOL    HW153078   3.174   4.070   9.962 -0.5043 -0.5729  0.5660
15491SOL    HW253079   3.264   4.103   9.845 -1.4409 -0.3869 -0.1162
15492SOL     OW53080   3.759   4.783   2.769  0.1990 -0.6078 -0.0547
15492SOL    HW153081   3.727   4.813   2.855 -1.4902 -1.1153 -0.4645
15492SOL    HW253082   3.775   4.690   2.781  0.4391 -0.5830 -0.1728
15493SOL     OW53083   7.656  12.707   1.993 -0.2571  0.7812  0.2157
15493SOL    HW153084   7.564  12.729   1.979 -0.4256  0.4230  0.7257
15493SOL    HW253085   7.704  12.787   1.972 -0.8292  1.5472  1.7317
15494SOL     OW53086   6.398   2.644  10.709  0.3650 -0.6478  0.0646
15494SOL    HW153087   6.482   2.683  10.733  0.6843 -0.7932 -0.7892
15494SOL    HW253088   6.342   2.719  10.691 -0.0249 -0.5143  1.6470
15495SOL     OW53089   2.002   2.753   7.567  0.8242  0.4592  0.6273
15495SOL    HW153090   1.974   2.778   7.655  1.0066  1.1929  0.4782
15495SOL    HW253091   1.939   2.795   7.508  0.4439 -0.3837  0.4183
15496SOL     OW53092   2.607  10.552   2.342 -0.3840  0.5669  0.0333
15496SOL    HW153093   2.562  10.632   2.366 -0.6254  1.2762 -2.5034
15496SOL    HW253094   2.553  10.514   2.272  0.7682 -0.7423 -0.1911
15497SOL     OW53095  11.277   0.559   0.067  0.0569  0.3152  0.2456
15497SOL    HW153096  11.194   0.568   0.114 -0.5193 -1.0522 -0.4499
15497SOL    HW253097  11.254   0.511  -0.013  1.7065 -1.2398  0.6397
15498SOL     OW53098   6.932  11.964   3.554 -0.3621  0.1317  0.3985
15498SOL    HW153099   7.012  11.984   3.506  0.1129 -0.7233  0.8115
15498SOL    HW253100   6.891  12.049   3.568  0.6616  0.6245  0.4983
15499SOL     OW53101   4.674   9.403   9.846 -0.3946 -0.3487  0.0958
15499SOL    HW153102   4.744   9.406   9.911 -1.1066 -1.2843  0.9435
15499SOL    HW253103   4.715   9.361   9.769  0.1539 -0.2548  0.3284
15500SOL     OW53104   1.586  11.362   1.710  0.5564  0.6310  0.1579
15500SOL    HW153105   1.637  11.283   1.694  0.0730  0.6194 -1.4824
15500SOL    HW253106   1.650  11.433   1.710  0.6409  0.5848 -1.5863
15501SOL     OW53107   1.186   2.756   4.245  0.3979 -0.5190  0.3374
15501SOL    HW153108   1.208   2.778   4.154  1.4196  0.3058  0.7696
15501SOL    HW253109   1.262   2.707   4.276  1.0993  1.1754  1.4329
15502SOL     OW53110   9.578  10.351   2.862  0.0175 -0.0840  0.0132
15502SOL    HW153111   9.661  10.304   2.856 -0.3361 -0.7660  0.4340
15502SOL    HW253112   9.580  10.412   2.788  2.0865  1.8622  1.5349
15503SOL     OW53113   7.483   1.716   7.791  0.0480  0.0033 -0.0869
15503SOL    HW153114   7.442   1.719   7.705 -0.1759 -1.2218 -0.0419
15503SOL    HW253115   7.577   1.719   7.774  0.0186 -0.7417 -0.4176
15504SOL     OW53116   3.055   9.759   4.390  1.0032 -0.2035 -0.1271
15504SOL    HW153117   2.967   9.796   4.378  1.0916  0.2865  0.6701
15504SOL    HW253118   3.083   9.734   4.302  0.2309  0.0152 -0.4433
15505SOL     OW53119   7.211   9.217  12.040  0.5462 -0.4316 -0.0537
15505SOL    HW153120   7.222   9.295  11.987 -1.3654 -1.1898 -1.6885
15505SOL    HW253121   7.140   9.238  12.100  2.6370  0.3920  2.3239
15506SOL     OW53122   9.568  11.697   9.240 -0.1355 -0.2901 -0.2526
15506SOL    HW153123   9.549  11.779   9.285  0.3071 -0.4624  0.2602
15506SOL    HW253124   9.546  11.714   9.149  1.7173  1.0167 -0.5158
15507SOL     OW53125   2.085   9.226   9.707 -0.4250 -0.2270 -0.3546
15507SOL    HW153126   2.004   9.274   9.691 -0.7098 -0.3558  0.6612
15507SOL    HW253127   2.098   9.175   9.627 -0.3565  1.1624 -1.2715
15508SOL     OW53128  11.225   2.086   7.806 -0.2969 -0.0811 -0.0712
15508SOL    HW153129  11.197   2.125   7.889 -1.1167  2.4540 -1.4359
15508SOL    HW253130  11.213   2.155   7.741 -0.4918 -2.2055 -2.4925
15509SOL     OW53131   5.192   6.122   3.798 -0.4030 -0.1124 -0.5426
15509SOL    HW153132   5.129   6.075   3.853 -0.9065 -0.8085 -1.6611
15509SOL    HW253133   5.240   6.053   3.752  1.8162  0.3646  0.8930
15510SOL     OW53134   6.887   3.245   8.932 -0.5426 -0.1002  0.1687
15510SOL    HW153135   6.833   3.273   9.005  0.5930  0.0343  0.9968
15510SOL    HW253136   6.826   3.210   8.868 -1.5230 -0.8349  1.4639
15511SOL     OW53137   0.573   0.698   8.322  0.4890 -0.9181  0.1733
15511SOL    HW153138   0.629   0.624   8.347  1.4823 -0.8746 -1.7331
15511SOL    HW253139   0.603   0.722   8.235 -0.6027  1.0113  0.2821
15512SOL     OW53140   7.757   4.724  11.976 -0.1725 -0.1814 -0.2513
15512SOL    HW153141   7.748   4.692  12.066 -1.4456 -0.6991 -0.5465
15512SOL    HW253142   7.670   4.755  11.952  0.4065  0.9869 -0.9424
15513SOL     OW53143   6.256  11.422   4.297 -0.6663  0.0604 -0.5626
15513SOL    HW153144   6.210  11.468   4.227 -0.7191  0.1947 -0.4410
15513SOL    HW253145   6.326  11.482   4.323  1.0279 -1.0624 -2.2893
15514SOL     OW53146   0.760   7.715   0.079 -0.1572  0.5909 -0.1570
15514SOL    HW153147   0.671   7.749   0.080 -0.2570  0.3240  0.1944
15514SOL    HW253148   0.753   7.628   0.119  0.1031  0.1745 -0.9770
15515SOL     OW53149   0.789  11.991   2.292 -0.3309 -0.0702 -0.2519
15515SOL    HW153150   0.795  11.896   2.302 -1.0995 -0.0617  0.4706
15515SOL    HW253151   0.722  12.017   2.355  1.3893  1.2101  1.1857
15516SOL     OW53152   4.168  12.736   9.485 -0.3095 -0.0619  0.4500
15516SOL    HW153153   4.082  12.709   9.453 -0.0806 -0.3179  0.0410
15516SOL    HW253154   4.155  12.826   9.516 -0.5669  0.1379 -0.2319
15517SOL     OW53155   5.012   1.874   2.409 -0.1956  0.3441 -0.2653
15517SOL    HW153156   4.920   1.869   2.435 -0.0042  2.6359  1.1152
15517SOL    HW253157   5.016   1.945   2.345  0.5669  0.0386 -0.5688
15518SOL     OW53158   1.257   9.548   2.301 -0.5394  0.1331 -0.2895
15518SOL    HW153159   1.198   9.496   2.247 -0.8077  0.0735  0.0621
15518SOL    HW253160   1.282   9.491   2.373  0.5338 -0.0939 -0.8246
15519SOL     OW53161  12.266   2.720   7.865  0.1775 -0.4291  0.0463
15519SOL    HW153162  12.316   2.750   7.790 -0.5030  0.7408  0.0509
15519SOL    HW253163  12.179   2.700   7.830 -0.8150  2.1764  0.8417
15520SOL     OW53164   5.653   9.262   1.500 -0.1871  0.1646 -0.1206
15520SOL    HW153165   5.672   9.231   1.412  1.1590 -1.1504  0.5863
15520SOL    HW253166   5.737   9.294   1.533 -0.1722 -1.3042  1.4066
15521SOL     OW53167  11.869   5.608   1.748 -0.7172 -0.1128 -0.4508
15521SOL    HW153168  11.827   5.688   1.780  0.6071 -0.0577  1.2648
15521SOL    HW253169  11.832   5.538   1.800 -0.0908 -0.2926 -0.2321
15522SOL     OW53170   6.077  12.541  10.967 -0.3726  0.0929  0.0185
15522SOL    HW153171   6.092  12.484  10.892  1.3235 -0.5970  0.8179
15522SOL    HW253172   6.138  12.509  11.034 -2.5654 -0.0234  2.0982
15523SOL     OW53173   9.955   1.398   3.987  0.1199 -0.0412  0.0428
15523SOL    HW153174   9.972   1.488   4.013  1.1234 -0.0119 -0.6502
15523SOL    HW253175   9.982   1.394   3.895  3.3813 -1.8480  0.9178
15524SOL     OW53176  12.166  10.903   6.072  0.5535  0.0859 -0.4725
15524SOL    HW153177  12.086  10.952   6.093  0.0060 -0.1985 -1.7956
15524SOL    HW253178  12.147  10.813   6.100  1.1949  0.4076  1.0688
15525SOL     OW53179  10.082   6.615  12.214  0.6385  0.5446 -0.0671
15525SOL    HW153180  10.134   6.695  12.221 -1.4525  1.8028  2.7205
15525SOL    HW253181  10.112   6.561  12.286  0.6463 -0.3698 -0.7412
15526SOL     OW53182   6.029   7.056   2.934  0.1490 -0.3101 -0.2061
15526SOL    HW153183   6.038   7.040   3.028 -1.6031  2.0236  0.4695
15526SOL    HW253184   6.106   7.109   2.911 -0.9475  1.8237  0.7258
15527SOL     OW53185   8.454   0.047   1.359 -0.5372 -0.5356 -0.5068
15527SOL    HW153186   8.438  -0.043   1.334  0.6209 -0.8786 -0.0631
15527SOL    HW253187   8.535   0.072   1.314  1.3813 -1.0323  2.3481
15528SOL     OW53188  11.554   0.988  12.062  0.6901 -0.3052 -0.3209
15528SOL    HW153189  11.500   0.956  11.990 -0.2860 -0.6079  0.5207
15528SOL    HW253190  11.628   0.927  12.065  0.3610 -0.7285 -0.6137
15529SOL     OW53191   4.264   1.731  11.423 -0.2403 -0.1566  0.1026
15529SOL    HW153192   4.214   1.807  11.452 -2.6982 -2.3436  2.0249
15529SOL    HW253193   4.223   1.705  11.341  0.0402  0.0767 -0.1132
15530SOL     OW53194   7.897  10.291   5.685 -0.0901 -0.1728  0.0005
15530SOL    HW153195   7.905  10.308   5.779  0.8310  1.3336 -0.3299
15530SOL    HW253196   7.893  10.377   5.645 -0.7651 -0.8028 -1.3386
15531SOL     OW53197   0.826   8.909   5.926 -0.1874 -0.1172  0.0313
15531SOL    HW153198   0.832   8.942   5.836 -0.0235 -1.2968 -0.4033
15531SOL    HW253199   0.852   8.983   5.980 -2.3216  1.3078 -0.7591
15532SOL     OW53200   6.418   1.705   0.766  0.0584  0.6067  0.4549
15532SOL    HW153201   6.432   1.628   0.712 -0.6733  1.1167 -0.5109
15532SOL    HW253202   6.391   1.773   0.703  1.9113  2.0044  1.1022
15533SOL     OW53203   9.018  11.883   1.426  0.5785 -0.3128 -0.6645
15533SOL    HW153204   9.050  11.957   1.374 -0.2757 -0.2739 -1.1428
15533SOL    HW253205   9.083  11.874   1.496  1.1096  0.3883 -1.0521
15534SOL     OW53206  10.994   8.977   1.678 -0.4840  0.0583  0.0856
15534SOL    HW153207  11.044   8.996   1.757 -1.4538 -0.0955  0.7479
15534SOL    HW253208  10.934   8.908   1.704 -1.2790  0.4751 -0.6032
15535SOL     OW53209   6.080   1.935  10.381  0.3755 -0.0940  0.3041
15535SOL    HW153210   6.052   1.858  10.332  0.0439 -0.0234  0.3796
15535SOL    HW253211   6.163   1.909  10.422 -0.0892 -0.6451  0.9077
15536SOL     OW53212   4.365   9.055   6.659 -0.3999  0.0595  0.1795
15536SOL    HW153213   4.351   9.031   6.567  2.1409 -3.0676  0.4233
15536SOL    HW253214   4.299   9.006   6.707 -1.2181  1.0773  0.1346
15537SOL     OW53215   6.946   1.367  10.580 -0.5023  0.4329  0.5400
15537SOL    HW153216   6.893   1.356  10.659 -0.9820  0.9253  0.2897
15537SOL    HW253217   6.890   1.337  10.509  0.1183 -0.5159  0.4240
15538SOL     OW53218   9.734   7.196   8.171  0.2408  0.3513  0.2284
15538SOL    HW153219   9.724   7.108   8.135 -1.7907  0.1771  1.0919
15538SOL    HW253220   9.703   7.254   8.101 -1.0256  0.1854  0.6291
15539SOL     OW53221  12.215   3.285  10.747 -0.0139 -0.4658  0.6478
15539SOL    HW153222  12.142   3.313  10.692  0.5606 -0.6327 -0.2117
15539SOL    HW253223  12.272   3.362  10.752 -0.5565 -0.1115  1.8800
15540SOL     OW53224  12.359   8.512  12.228  0.8084 -0.0932 -0.0241
15540SOL    HW153225  12.264   8.504  12.240  0.5829  0.4613 -1.2909
15540SOL    HW253226  12.376   8.606  12.235  1.0970 -0.0767 -0.8974
15541SOL     OW53227   7.532  10.194  11.294  0.7625  0.1349 -0.3827
15541SOL    HW153228   7.445  10.201  11.256  1.3461  1.6268 -1.5194
15541SOL    HW253229   7.553  10.100  11.290 -1.1794 -0.4326  0.9234
15542SOL     OW53230   6.594   6.939   4.560 -0.6843  0.0980  0.2422
15542SOL    HW153231   6.642   7.006   4.607 -0.8297 -0.6719  1.5517
15542SOL    HW253232   6.544   6.893   4.628 -1.1085 -0.8934 -0.6994
15543SOL     OW53233   9.582  10.158   6.469 -0.2795 -0.6335 -0.1481
15543SOL    HW153234   9.627  10.217   6.410  0.0829 -0.4003  0.3497
15543SOL    HW253235   9.605  10.070   6.438 -0.6646 -0.5197 -0.7702
15544SOL     OW53236   6.403   8.070   1.429 -0.4245  0.7708  0.9068
15544SOL    HW153237   6.445   8.113   1.354 -0.6940  2.2120  1.5674
15544SOL    HW253238   6.469   8.073   1.498 -0.8397  1.1053  1.2914
15545SOL     OW53239  10.971   0.331  12.620  0.1325 -0.7599  0.1133
15545SOL    HW153240  10.920   0.330  12.701 -1.1847 -2.7622 -0.6724
15545SOL    HW253241  10.930   0.400  12.568  0.4348 -0.0506  0.7864
15546SOL     OW53242  12.200   8.973   8.451 -0.4815 -0.0949 -0.3400
15546SOL    HW153243  12.252   8.901   8.488  1.5700  1.4602 -0.0609
15546SOL    HW253244  12.263   9.041   8.431 -2.4219  1.8718 -0.1341
15547SOL     OW53245   2.430   0.141   5.669 -0.0263  0.0404  0.3067
15547SOL    HW153246   2.398   0.069   5.723 -1.5303  0.1233 -0.4272
15547SOL    HW253247   2.519   0.157   5.701  0.1920 -1.8465  0.7688
15548SOL     OW53248   7.041   8.014   8.479  0.1953 -0.9663  0.1260
15548SOL    HW153249   7.096   7.978   8.548 -2.1128 -2.5802  1.3010
15548SOL    HW253250   7.078   7.979   8.398  0.4903 -2.6301  0.9329
15549SOL     OW53251   9.177   3.758  11.234  0.3820 -0.3188 -0.2541
15549SOL    HW153252   9.164   3.762  11.329 -0.5594 -0.9210 -0.3403
15549SOL    HW253253   9.131   3.836  11.201  1.9085  0.6717 -0.1241
15550SOL     OW53254  10.899  10.510   2.676  0.3343 -0.1170 -0.6850
15550SOL    HW153255  10.958  10.512   2.601 -0.2306 -1.8992 -1.2275
15550SOL    HW253256  10.811  10.508   2.637  0.0512 -2.4486 -0.0929
15551SOL     OW53257   4.718  11.017   3.361  0.1948 -0.5218 -0.3944
15551SOL    HW153258   4.764  11.055   3.436 -2.1745  0.6842  0.5209
15551SOL    HW253259   4.759  11.057   3.284 -0.2827  1.6724  0.4423
15552SOL     OW53260   1.992   0.707   7.064  0.4656 -0.6531 -0.1222
15552SOL    HW153261   2.043   0.659   7.129  1.7694 -0.3737 -0.9049
15552SOL    HW253262   2.048   0.711   6.987 -0.4154  0.3839 -0.7485
15553SOL     OW53263   0.693   6.014   7.174 -0.5801 -0.2065 -0.3498
15553SOL    HW153264   0.626   6.034   7.109  2.4428  2.7139 -2.9392
15553SOL    HW253265   0.744   5.943   7.135  0.3959  0.5829 -0.5497
15554SOL     OW53266   0.238   6.861   6.179  0.1619  0.7383  0.0923
15554SOL    HW153267   0.322   6.830   6.213 -0.2078  0.1094  0.4575
15554SOL    HW253268   0.234   6.826   6.090  0.2944  0.7812  0.0695
15555SOL     OW53269   2.845   2.315   4.395 -0.5006 -0.0367  0.1352
15555SOL    HW153270   2.865   2.244   4.456 -0.5689  0.5326  0.8356
15555SOL    HW253271   2.756   2.296   4.364 -0.9003  0.2670  1.0767
15556SOL     OW53272  11.635   2.896   3.545 -0.2524  0.1472 -0.1260
15556SOL    HW153273  11.689   2.905   3.623  2.2329 -0.1548 -1.7049
15556SOL    HW253274  11.581   2.819   3.561 -1.7176  1.5668  2.2850
15557SOL     OW53275   4.151   5.686   3.734 -0.3068 -0.3935  0.6988
15557SOL    HW153276   4.185   5.604   3.771 -0.6689 -1.3403 -0.9436
15557SOL    HW253277   4.161   5.750   3.804  2.3917 -1.2284  1.2118
15558SOL     OW53278   4.381   3.107   6.898 -0.1190 -0.1042 -0.6080
15558SOL    HW153279   4.321   3.040   6.932 -1.2123  0.5287 -1.2481
15558SOL    HW253280   4.397   3.164   6.973  0.3702 -0.7430 -0.2118
15559SOL     OW53281   2.508   5.927   1.647  0.0898 -0.5273 -0.3368
15559SOL    HW153282   2.558   5.974   1.714  1.3649 -2.0868 -0.1348
15559SOL    HW253283   2.425   5.974   1.641  0.7178  0.7959  0.9456
15560SOL     OW53284  11.840   3.839   8.680  0.3532 -0.2543 -0.3377
15560SOL    HW153285  11.880   3.926   8.680 -1.2676  0.6239  2.3104
15560SOL    HW253286  11.913   3.779   8.673  1.9053  1.3055  1.2383
15561SOL     OW53287   9.416  12.065  12.585 -0.0024 -0.0276 -0.6307
15561SOL    HW153288   9.373  12.005  12.526 -0.0815  1.2579 -1.9305
15561SOL    HW253289   9.411  12.150  12.542 -1.5856  1.3333  1.9747
15562SOL     OW53290   2.950  12.476   4.589 -0.1516  0.0736 -0.3030
15562SOL    HW153291   2.997  12.559   4.590  1.3759 -0.7536 -0.4878
15562SOL    HW253292   2.933  12.457   4.682  0.3250  0.1357 -0.2045
15563SOL     OW53293   5.988   6.409   9.982 -0.1108 -0.0756 -0.7597
15563SOL    HW153294   6.061   6.455   9.941 -0.3580  0.1212 -0.9878
15563SOL    HW253295   6.028   6.350  10.046  0.1777  0.8603 -0.0665
15564SOL     OW53296   5.650   2.966   6.493 -0.4050  0.3461  0.2694
15564SOL    HW153297   5.564   2.968   6.453 -0.6315  0.9428  0.7697
15564SOL    HW253298   5.705   3.019   6.435 -0.8591  1.6641  1.0082
15565SOL     OW53299   0.347   1.496  12.530 -0.0193  0.6094 -0.4018
15565SOL    HW153300   0.269   1.509  12.583  0.0217  0.2554 -0.2494
15565SOL    HW253301   0.385   1.584  12.520  1.1668  0.4718  1.9974
15566SOL     OW53302   5.293  10.800  10.498  0.2832 -0.4698  0.5384
15566SOL    HW153303   5.364  10.739  10.516 -0.3941 -1.6398 -0.6146
15566SOL    HW253304   5.268  10.782  10.407  0.8509  2.3348 -0.2797
15567SOL     OW53305   8.699   7.373  11.452 -0.3997 -0.1216  0.1163
15567SOL    HW153306   8.755   7.439  11.492 -0.0661 -0.8326  0.8406
15567SOL    HW253307   8.712   7.295  11.504  0.4995 -1.2700 -1.7224
15568SOL     OW53308   7.870   0.052   3.651 -0.1594 -0.3256  0.5877
15568SOL    HW153309   7.921   0.133   3.647  0.0643 -0.4802  0.2696
15568SOL    HW253310   7.780   0.081   3.669 -0.1765  0.0326 -0.0494
15569SOL     OW53311   2.662   1.017   3.555  0.6861  0.4632 -0.3623
15569SOL    HW153312   2.600   0.982   3.490  0.2221 -0.5406  0.5974
15569SOL    HW253313   2.733   0.954   3.557  0.4091  0.1647  0.5286
15570SOL     OW53314   9.503   2.399   8.576  0.0241 -0.2768  0.1641
15570SOL    HW153315   9.501   2.480   8.524  1.8859  0.5721  1.2973
15570SOL    HW253316   9.550   2.423   8.656  0.8271 -2.5443  0.4480
15571SOL     OW53317  11.207   8.029   3.548  0.2446 -0.3516  0.1190
15571SOL    HW153318  11.188   8.053   3.458 -0.8148  1.6973  0.8288
15571SOL    HW253319  11.135   7.970   3.573  0.6858 -1.1419 -0.4159
15572SOL     OW53320   4.856   5.411   5.466 -0.0561 -0.0076 -0.3471
15572SOL    HW153321   4.817   5.359   5.535  3.0097 -1.0970  0.7589
15572SOL    HW253322   4.858   5.501   5.500  0.6807 -0.3959  0.6806
15573SOL     OW53323  11.743   4.737  11.073 -0.0823 -0.1259  0.0760
15573SOL    HW153324  11.710   4.807  11.016 -1.6568 -1.1005 -0.2674
15573SOL    HW253325  11.665   4.699  11.112  0.6044 -2.5408 -0.7408
15574SOL     OW53326   4.523   9.557  12.121  0.4751  1.0064  0.3650
15574SOL    HW153327   4.557   9.637  12.081  0.5021  0.7402 -0.1418
15574SOL    HW253328   4.589   9.533  12.186  1.5635  0.1762 -0.9952
15575SOL     OW53329  11.089  11.200   9.334  0.3842 -0.2148 -0.7668
15575SOL    HW153330  11.062  11.165   9.249  0.7035  1.0168 -1.3900
15575SOL    HW253331  11.145  11.132   9.371 -0.2734 -1.0399 -1.2447
15576SOL     OW53332  11.581  11.984   2.462  0.0246  0.0878  0.6746
15576SOL    HW153333  11.491  11.954   2.470  0.0170 -1.0876 -2.2856
15576SOL    HW253334  11.575  12.070   2.421  0.2390  1.0282  2.5431
15577SOL     OW53335   7.500   9.125  11.800  0.5048  0.4326 -0.0702
15577SOL    HW153336   7.419   9.103  11.753  1.9149 -2.1890 -1.5168
15577SOL    HW253337   7.471   9.162  11.883 -2.1603 -0.0099 -0.7207
15578SOL     OW53338   4.025   1.131   8.705 -0.8517  0.0724 -0.1512
15578SOL    HW153339   3.975   1.160   8.781 -0.8056 -1.8739  0.6978
15578SOL    HW253340   4.109   1.101   8.741 -1.2216 -1.8873 -0.7548
15579SOL     OW53341   7.131  12.514  12.482  0.5476  0.3315 -0.5640
15579SOL    HW153342   7.152  12.421  12.490  1.0915  0.6360  2.8639
15579SOL    HW253343   7.210  12.552  12.443  1.5181 -0.2900  0.7012
15580SOL     OW53344   0.572  11.808   5.378  0.2372  0.1804  0.1663
15580SOL    HW153345   0.494  11.861   5.363  0.5689  0.9655  1.0738
15580SOL    HW253346   0.572  11.743   5.307 -0.9406  0.5019 -0.1456
15581SOL     OW53347   1.390  11.742   8.518 -0.1776 -0.6406  0.1608
15581SOL    HW153348   1.322  11.751   8.584  2.5172 -1.1037  3.2626
15581SOL    HW253349   1.372  11.812   8.455 -2.5836  0.2118  1.6681
15582SOL     OW53350   6.059   4.514   4.707 -0.3957 -0.3079  0.0451
15582SOL    HW153351   6.127   4.459   4.748  0.4800  0.1339 -0.7665
15582SOL    HW253352   6.105   4.595   4.685 -1.3717  0.2685  0.1021
15583SOL     OW53353   0.516   1.873   7.875 -0.0664  0.0911  0.6174
15583SOL    HW153354   0.510   1.821   7.955  0.8534 -2.2298 -0.7484
15583SOL    HW253355   0.457   1.830   7.813  1.2864  0.1815 -0.7981
15584SOL     OW53356   5.614   5.878   9.787 -0.6691 -0.6694 -0.0211
15584SOL    HW153357   5.654   5.792   9.796 -0.6176 -0.7049 -0.5425
15584SOL    HW253358   5.520   5.864   9.801 -0.4736 -0.5145  1.6421
15585SOL     OW53359   9.614   3.521   0.382 -0.2578 -0.0783 -0.2899
15585SOL    HW153360   9.615   3.489   0.291  0.5075  0.5274 -0.5047
15585SOL    HW253361   9.548   3.466   0.425 -2.2909  1.0615 -1.7292
15586SOL     OW53362   3.172   7.416   7.697  0.3621  0.7136 -0.1275
15586SOL    HW153363   3.192   7.328   7.729  0.3824  1.2428  1.4277
15586SOL    HW253364   3.229   7.428   7.621  0.4741 -0.5472 -0.2517
15587SOL     OW53365   4.324   7.033   9.280 -0.8104  0.0006  0.7558
15587SOL    HW153366   4.288   7.056   9.194  0.5481  1.2825  0.4883
15587SOL    HW253367   4.347   7.118   9.319 -1.2400 -0.5749  2.3233
15588SOL     OW53368   2.939   1.843   2.410 -0.3578  0.1292 -0.0843
15588SOL    HW153369   2.865   1.903   2.401 -1.2135 -0.5532  1.9752
15588SOL    HW253370   2.947   1.802   2.323 -1.3946  1.3243 -0.7773
15589SOL     OW53371   5.578  11.513  12.519  0.5474 -0.5411  0.0951
15589SOL    HW153372   5.534  11.428  12.511 -0.1014 -0.1412 -0.7088
15589SOL    HW253373   5.576  11.532  12.613  0.8710 -1.4952  0.3154
15590SOL     OW53374   7.697  11.542   3.979 -0.2767 -0.1113 -0.0276
15590SOL    HW153375   7.626  11.479   3.993 -1.5821  1.5604  1.3703
15590SOL    HW253376   7.652  11.622   3.951  1.1926  0.6548 -0.2781
15591SOL     OW53377   0.410   5.874   2.257  0.0166 -0.0978 -0.3076
15591SOL    HW153378   0.385   5.966   2.262 -0.0701 -0.1162 -0.4145
15591SOL    HW253379   0.440   5.862   2.167  0.9111  0.0527 -0.0394
15592SOL     OW53380   0.671   9.445   9.627  0.3709 -0.2418  0.4425
15592SOL    HW153381   0.664   9.540   9.615  0.7852 -0.2412  0.2025
15592SOL    HW253382   0.583   9.418   9.652  0.6767  0.4760  2.4494
15593SOL     OW53383  10.821   5.573  12.331 -0.0108 -0.0393 -0.3932
15593SOL    HW153384  10.826   5.484  12.297 -0.6209 -1.5542  3.0578
15593SOL    HW253385  10.727   5.589  12.341  0.1243  0.6438 -0.1938
15594SOL     OW53386   4.923   6.776   1.374 -0.5386 -0.0400 -0.2648
15594SOL    HW153387   4.905   6.869   1.359 -2.1980 -0.2539  0.2194
15594SOL    HW253388   4.845   6.744   1.420 -0.0722 -1.7081 -0.5965
15595SOL     OW53389   9.156   9.345   9.479 -0.2230 -0.2019 -0.0504
15595SOL    HW153390   9.213   9.344   9.556 -1.5047 -0.1530  0.9332
15595SOL    HW253391   9.213   9.319   9.406  1.1345  0.2333  0.8185
15596SOL     OW53392   2.255  10.705   8.640 -0.5064 -0.2807  0.0676
15596SOL    HW153393   2.329  10.741   8.688 -0.8722 -0.7493  1.0034
15596SOL    HW253394   2.195  10.779   8.630 -1.5609 -0.7054  2.5719
15597SOL     OW53395  10.344   8.391   3.456 -0.2193 -1.0980  0.1193
15597SOL    HW153396  10.407   8.419   3.523 -1.4950  1.2544  0.4635
15597SOL    HW253397  10.263   8.377   3.505 -1.1245  0.4647 -0.8335
15598SOL     OW53398  11.046   2.880  10.361 -0.4100  0.1869  0.1790
15598SOL    HW153399  10.966   2.870  10.310  0.4348  0.9245 -1.3529
15598SOL    HW253400  11.094   2.950  10.317  1.2613 -0.4964  0.8210
15599SOL     OW53401   9.377  11.256  11.398  0.3557  0.6130 -0.3288
15599SOL    HW153402   9.379  11.223  11.309  1.2508 -1.3213  0.3572
15599SOL    HW253403   9.451  11.316  11.403  0.5763  0.3810 -0.7579
15600SOL     OW53404  12.531   7.454   4.100 -0.2831 -0.1172  0.0114
15600SOL    HW153405  12.566   7.438   4.012 -0.6791  0.3725 -0.2388
15600SOL    HW253406  12.584   7.526   4.133  0.2076 -0.6382  0.3828
15601SOL     OW53407   9.620   9.154   3.211 -0.0362 -0.4603  0.0691
15601SOL    HW153408   9.715   9.152   3.209 -0.0321 -0.0580 -1.5525
15601SOL    HW253409   9.593   9.062   3.212  0.3446 -0.5807  1.4055
15602SOL     OW53410   9.222   9.051   7.938 -0.2867  0.2833 -0.3222
15602SOL    HW153411   9.270   9.044   7.855 -0.1856  1.4846 -0.3766
15602SOL    HW253412   9.290   9.055   8.005 -0.3217  0.9947 -0.3219
15603SOL     OW53413   3.527   2.447   6.461  0.1841  0.2930  0.3798
15603SOL    HW153414   3.512   2.356   6.434  0.2773 -0.5777  2.9167
15603SOL    HW253415   3.620   2.450   6.482  0.4729  1.3933 -0.9640
15604SOL     OW53416   8.448   5.461   5.799 -0.4204  0.4969 -0.1508
15604SOL    HW153417   8.441   5.506   5.715  0.8437 -1.3473 -1.3285
15604SOL    HW253418   8.371   5.405   5.803  0.6867 -1.2051 -1.2893
15605SOL     OW53419   8.453   4.746   8.429  0.5029  0.0880 -0.9257
15605SOL    HW153420   8.399   4.697   8.491 -0.4575 -0.8812 -2.4615
15605SOL    HW253421   8.525   4.687   8.408  0.3015  0.0058 -1.4256
15606SOL     OW53422   6.144   2.693   5.921  0.0579  0.1613 -0.0111
15606SOL    HW153423   6.078   2.655   5.863 -0.7359  3.3509 -1.3816
15606SOL    HW253424   6.142   2.636   5.999 -1.9005 -1.7683 -1.3288
15607SOL     OW53425   8.870   0.172   8.501 -0.0453  0.0702 -0.7565
15607SOL    HW153426   8.798   0.215   8.456  0.8481  1.0251 -1.3124
15607SOL    HW253427   8.858   0.079   8.483 -0.6684  0.2969 -1.5365
15608SOL     OW53428   1.535  11.727   2.471  0.2820 -0.0001 -0.0459
15608SOL    HW153429   1.538  11.784   2.394  0.5633  0.4271  0.2745
15608SOL    HW253430   1.442  11.723   2.493  0.3082  0.7711  0.2398
15609SOL     OW53431   4.843   2.562   9.746 -0.2609  0.5371 -0.0217
15609SOL    HW153432   4.753   2.532   9.734 -0.2669  0.5288  0.0517
15609SOL    HW253433   4.886   2.490   9.792 -0.5880  1.1569  1.2724
15610SOL     OW53434   9.990   5.275   6.869 -0.1210  0.9608 -0.7353
15610SOL    HW153435   9.980   5.270   6.964  0.7329  1.4223 -0.6203
15610SOL    HW253436   9.938   5.201   6.836 -0.5000  0.8568  0.0765
15611SOL     OW53437  10.671   5.183  11.785  0.0411  0.1100  0.5524
15611SOL    HW153438  10.678   5.279  11.785  0.5647  0.0743  0.9815
15611SOL    HW253439  10.755   5.154  11.749 -0.2270 -0.1828  0.1634
15612SOL     OW53440   5.049   3.702  10.781 -0.1298  0.1603 -0.3011
15612SOL    HW153441   5.063   3.720  10.688  3.1961  0.5652  0.1621
15612SOL    HW253442   5.060   3.607  10.788 -0.0350  0.1729 -0.2793
15613SOL     OW53443  11.555   8.267   3.049  0.0598 -0.1132 -0.4166
15613SOL    HW153444  11.569   8.360   3.066 -2.7157  0.3828 -0.3988
15613SOL    HW253445  11.507   8.236   3.125 -0.6428 -1.1145 -1.2474
15614SOL     OW53446   5.718   2.101  12.565  0.3896 -0.2030 -0.2909
15614SOL    HW153447   5.668   2.022  12.584 -0.5629 -0.0293 -1.8574
15614SOL    HW253448   5.664   2.172  12.598 -0.4574 -0.0180 -1.9531
15615SOL     OW53449   2.481   5.708   5.911  0.6176 -0.0198 -0.1362
15615SOL    HW153450   2.436   5.695   5.828 -0.2506  0.6291  0.2184
15615SOL    HW253451   2.480   5.622   5.953 -1.3968  0.2142  0.3891
15616SOL     OW53452   8.636  12.459   0.982 -0.0461 -0.0893  0.0820
15616SOL    HW153453   8.658  12.549   0.955  0.0408 -0.3209 -0.6436
15616SOL    HW253454   8.657  12.457   1.075 -0.3580  0.7414  0.1825
15617SOL     OW53455   6.378   8.623   2.862 -0.0188  0.6607  0.3072
15617SOL    HW153456   6.391   8.694   2.925 -0.6726  0.0980  1.1105
15617SOL    HW253457   6.349   8.549   2.916 -2.1310  0.5988 -0.8058
15618SOL     OW53458   9.666  11.513   1.329  1.0295  0.5371 -0.2325
15618SOL    HW153459   9.750  11.490   1.289  1.3119  0.4502  0.3969
15618SOL    HW253460   9.678  11.602   1.361  0.6048  0.8281 -0.8688
15619SOL     OW53461   5.627   6.933  12.023  0.5036  0.2214  0.8938
15619SOL    HW153462   5.546   6.890  12.050  0.4817 -0.3164 -0.0103
15619SOL    HW253463   5.606   7.027  12.025 -0.6682  0.0342 -0.9403
15620SOL     OW53464  12.054   6.863   4.598  0.0519 -0.1405 -0.0058
15620SOL    HW153465  11.985   6.929   4.588  2.1236  1.9217 -2.3624
15620SOL    HW253466  12.030   6.793   4.538  0.3734  0.9719 -1.4806
15621SOL     OW53467   9.616   4.265   2.960 -0.0169  0.4774  0.0674
15621SOL    HW153468   9.654   4.178   2.974 -0.9859 -0.0693 -0.6340
15621SOL    HW253469   9.526   4.248   2.932 -0.2641  1.7137  0.0749
15622SOL     OW53470   1.308  12.484   9.875  0.3818  0.2123  0.2519
15622SOL    HW153471   1.266  12.398   9.873  1.5796 -0.4061  0.5375
15622SOL    HW253472   1.347  12.490   9.962 -0.4910  1.4614  0.5806
15623SOL     OW53473   9.327   1.329   5.941 -0.4470 -0.0395 -0.4594
15623SOL    HW153474   9.264   1.382   5.892 -0.3860  1.7994  1.3375
15623SOL    HW253475   9.390   1.392   5.975 -1.4311 -0.9045  3.3650
15624SOL     OW53476   7.877   5.846   5.609  0.0428 -0.3540  0.2412
15624SOL    HW153477   7.929   5.925   5.625  0.1132  0.0157 -1.6039
15624SOL    HW253478   7.791   5.866   5.646  0.5788 -0.1235  1.3896
15625SOL     OW53479   1.838   6.234   7.751 -0.1578 -0.0630 -0.2639
15625SOL    HW153480   1.890   6.175   7.804 -0.5179 -0.7350 -0.6490
15625SOL    HW253481   1.796   6.293   7.814  0.7563  0.2368  0.0668
15626SOL     OW53482   5.215  10.386   3.717  0.3999 -0.5924 -0.5432
15626SOL    HW153483   5.147  10.327   3.684 -1.8256  1.2695  0.4075
15626SOL    HW253484   5.197  10.469   3.674 -0.0494  0.8035  2.1366
15627SOL     OW53485   2.912   3.603   8.546 -0.4949  0.0197  0.3889
15627SOL    HW153486   2.959   3.560   8.475 -0.3562  2.3970 -1.0625
15627SOL    HW253487   2.823   3.613   8.514 -0.8312 -0.2916  1.2087
15628SOL     OW53488   3.790  12.539   3.976  0.1991 -0.1195 -0.6819
15628SOL    HW153489   3.796  12.492   3.893  0.7663 -2.5377  0.6492
15628SOL    HW253490   3.879  12.538   4.012  0.1528  1.6805 -0.4058
15629SOL     OW53491   7.115  11.526   0.889 -0.4248  0.0529  0.0157
15629SOL    HW153492   7.194  11.577   0.869 -1.0976  0.5750 -1.4285
15629SOL    HW253493   7.050  11.592   0.912 -1.2365 -0.1310 -1.6402
15630SOL     OW53494   0.715  10.885   8.778 -0.5363 -0.1327 -0.0421
15630SOL    HW153495   0.760  10.870   8.862  1.7593  0.4075 -1.0947
15630SOL    HW253496   0.737  10.809   8.725 -1.0448  0.0480 -0.5230
15631SOL     OW53497   6.016   8.554   3.083  0.6584  0.1765 -0.4913
15631SOL    HW153498   5.926   8.520   3.091  0.3929  1.1597  1.3050
15631SOL    HW253499   6.039   8.540   2.991 -0.7758 -1.4537 -0.6597
15632SOL     OW53500   2.841  12.257  12.262 -0.3265  0.1773  0.4255
15632SOL    HW153501   2.746  12.253  12.275 -0.2696  0.2334  0.8826
15632SOL    HW253502   2.878  12.236  12.348  0.0495  2.4116  0.8786
15633SOL     OW53503   3.204   9.400   4.491 -0.4753 -0.1310  0.1143
15633SOL    HW153504   3.278   9.402   4.430  0.8730 -0.3322  1.6690
15633SOL    HW253505   3.172   9.310   4.487 -1.0710  0.1111 -1.0265
15634SOL     OW53506   3.601   4.166   9.872  0.7245 -0.4299  0.0727
15634SOL    HW153507   3.529   4.227   9.887  0.9135  0.0205 -0.8084
15634SOL    HW253508   3.680   4.219   9.883  0.9260 -0.8261  0.6175
15635SOL     OW53509   5.117   2.569  10.941  0.1566  0.0595 -0.1812
15635SOL    HW153510   5.190   2.549  10.999 -1.5866 -1.1947  1.6965
15635SOL    HW253511   5.127   2.663  10.922  2.1261 -0.0337  0.1367
15636SOL     OW53512   7.006   7.500   8.110  0.8504 -0.0391  0.3530
15636SOL    HW153513   7.063   7.575   8.128  0.2069  0.7379 -0.7329
15636SOL    HW253514   6.965   7.480   8.194  0.9905  0.8607  0.6408
15637SOL     OW53515   5.230   0.239   6.023 -0.0611  0.3939 -0.4902
15637SOL    HW153516   5.206   0.147   6.023 -1.7536  0.7518 -2.2053
15637SOL    HW253517   5.230   0.264   5.930  1.8652  1.7823 -0.1864
15638SOL     OW53518   4.063  12.714   7.429 -0.1868 -0.4226  0.1830
15638SOL    HW153519   4.152  12.703   7.394 -0.0188 -1.4294  0.8747
15638SOL    HW253520   4.070  12.788   7.490 -0.1815  0.4696 -0.8710
15639SOL     OW53521   9.714  12.071   8.912  0.3107  0.0841  0.0233
15639SOL    HW153522   9.783  12.102   8.853 -0.7747  0.9339 -0.8601
15639SOL    HW253523   9.634  12.111   8.877 -0.5506 -0.4546  1.3225
15640SOL     OW53524   8.433   9.918   8.503  0.6711  0.7395  0.1110
15640SOL    HW153525   8.375   9.987   8.534 -0.1738 -0.5726  1.5853
15640SOL    HW253526   8.514   9.929   8.554  0.4751  0.5474  0.4661
15641SOL     OW53527   3.864   2.530  10.004 -0.2777 -0.0816 -0.6391
15641SOL    HW153528   3.814   2.531   9.922  0.6719  1.2116 -1.2389
15641SOL    HW253529   3.954   2.551   9.977  0.4937 -1.7463  0.4858
15642SOL     OW53530   9.330   1.854  11.655  0.1728 -0.3392  0.0392
15642SOL    HW153531   9.401   1.796  11.682  1.2591  0.9737  0.1370
15642SOL    HW253532   9.373   1.924  11.606 -0.9856  0.7192  0.4578
15643SOL     OW53533   6.157   8.287  10.246  0.8341  0.5769 -0.3049
15643SOL    HW153534   6.090   8.318  10.307  1.1010 -0.1746  0.3943
15643SOL    HW253535   6.214   8.231  10.300  0.3855 -1.0830 -1.4671
15644SOL     OW53536   7.090   7.165  10.283 -0.0214 -0.2041  0.2710
15644SOL    HW153537   7.135   7.157  10.367 -0.0298 -1.1225  0.1997
15644SOL    HW253538   7.160   7.172  10.218 -0.0140  0.3258  0.3268
15645SOL     OW53539   5.537   5.532  12.200 -0.1040  0.2601  0.3812
15645SOL    HW153540   5.585   5.517  12.118  0.3893  2.6002  0.1716
15645SOL    HW253541   5.595   5.497  12.268 -0.0839 -0.8277 -0.1673
15646SOL     OW53542   0.912   1.972   8.397  0.2925  0.1836  0.5190
15646SOL    HW153543   0.901   1.932   8.483  0.4889 -1.7422 -0.2987
15646SOL    HW253544   0.823   1.978   8.363  0.4055 -1.6071 -0.1936
15647SOL     OW53545   5.810   9.458   4.884 -0.3769 -0.5030  0.2808
15647SOL    HW153546   5.732   9.468   4.939 -0.2711 -1.1731  0.5633
15647SOL    HW253547   5.882   9.452   4.946 -0.3006 -1.6813  0.0991
15648SOL     OW53548   6.989   3.685  11.489 -0.5209 -0.2766  0.1883
15648SOL    HW153549   6.908   3.687  11.539  0.3059  1.9348  1.6348
15648SOL    HW253550   6.966   3.721  11.403 -1.1871 -0.1708  0.4059
15649SOL     OW53551   0.234   6.761   9.775  0.2620 -0.2298  0.2285
15649SOL    HW153552   0.157   6.706   9.790  0.5456 -0.6645  0.0898
15649SOL    HW253553   0.207   6.848   9.806 -1.1833  0.2661 -2.1901
15650SOL     OW53554  10.729   1.278   7.856 -0.5115  0.4727 -0.1406
15650SOL    HW153555  10.729   1.301   7.763 -0.1871 -2.1482 -0.8627
15650SOL    HW253556  10.818   1.246   7.873 -0.3926  1.4549  1.2579
15651SOL     OW53557   4.497   1.723  10.805 -0.2643  0.0825  0.1118
15651SOL    HW153558   4.550   1.692  10.879 -0.3420 -0.7759 -0.1923
15651SOL    HW253559   4.473   1.644  10.757 -1.5595  0.4827  0.0583
15652SOL     OW53560   0.251   0.083   8.647 -0.1550  0.4820 -0.7107
15652SOL    HW153561   0.316   0.059   8.713  0.6368 -1.6242 -2.1354
15652SOL    HW253562   0.269   0.175   8.627  2.0124  0.1343 -0.6102
15653SOL     OW53563   0.931   8.424   0.788 -0.1212  0.0717  0.0766
15653SOL    HW153564   0.954   8.387   0.874 -0.7990  1.1267  0.7367
15653SOL    HW253565   1.014   8.454   0.752  0.4246 -1.8340 -0.3817
15654SOL     OW53566   6.969   8.177   3.365  0.4182 -0.1976 -0.3935
15654SOL    HW153567   6.917   8.205   3.290  2.1346  0.4153 -1.4385
15654SOL    HW253568   7.002   8.090   3.340 -0.6975 -0.9262  0.5921
15655SOL     OW53569  11.666  11.670  11.320 -0.4112 -0.2465  0.8038
15655SOL    HW153570  11.616  11.752  11.324 -0.8170 -0.5099  1.2993
15655SOL    HW253571  11.674  11.643  11.412  1.7287  0.4244  0.8733
15656SOL     OW53572   8.160   2.178  12.619 -0.8251 -0.0689  0.0444
15656SOL    HW153573   8.180   2.213  12.706 -0.1836 -0.5417  0.0925
15656SOL    HW253574   8.083   2.124  12.632  0.3577 -1.6680  0.7173
15657SOL     OW53575  11.926   7.207  10.992 -0.0042  0.5442 -0.1931
15657SOL    HW153576  11.935   7.162  10.908 -0.5501  1.0445 -0.5313
15657SOL    HW253577  11.879   7.288  10.970  1.7375  1.7340  0.2301
15658SOL     OW53578   8.093   0.408   0.502 -0.7729  0.1253  0.4373
15658SOL    HW153579   8.136   0.363   0.575  1.2088  0.3432 -0.5471
15658SOL    HW253580   8.146   0.486   0.488 -1.8860  0.7421 -0.4330
15659SOL     OW53581   3.467   5.104  12.548 -0.4736 -0.3700 -0.2016
15659SOL    HW153582   3.391   5.091  12.490 -0.6724 -1.9301  0.3758
15659SOL    HW253583   3.445   5.183  12.598 -2.2815 -1.4454  0.7908
15660SOL     OW53584   4.816   4.729   1.324 -0.8252  0.5270  0.3088
15660SOL    HW153585   4.778   4.777   1.398  3.0217  2.4166  1.3244
15660SOL    HW253586   4.794   4.782   1.248 -1.1153  1.0251  0.7276
15661SOL     OW53587  10.233   8.375   1.710 -0.3600 -0.9841  0.2719
15661SOL    HW153588  10.164   8.435   1.684  1.0612 -0.8545 -4.0367
15661SOL    HW253589  10.195   8.288   1.698 -0.5252 -0.9237  0.3597
15662SOL     OW53590   4.097   8.286   9.149 -0.1151  0.0106 -0.0041
15662SOL    HW153591   4.163   8.216   9.153  1.6845  1.5695 -1.0496
15662SOL    HW253592   4.070   8.298   9.240 -0.3287 -1.8743  0.2254
15663SOL     OW53593   4.876  10.044   4.265 -0.4959 -0.2019  0.6166
15663SOL    HW153594   4.970  10.028   4.252 -1.0538 -2.6965 -1.3136
15663SOL    HW253595   4.852  10.103   4.194 -0.8081 -1.6757 -0.5459
15664SOL     OW53596   5.063   1.306   7.318  0.3282 -0.4818  0.2118
15664SOL    HW153597   5.106   1.228   7.355  0.6610 -0.4308 -0.0623
15664SOL    HW253598   4.986   1.319   7.373  1.0627 -0.1323  1.1816
15665SOL     OW53599  11.910   7.348   9.098 -0.1675  0.1791 -0.1482
15665SOL    HW153600  11.908   7.352   9.002 -2.1948  0.0733 -0.1468
15665SOL    HW253601  11.907   7.439   9.126  1.4017  0.2691 -0.1330
15666SOL     OW53602   1.804   5.606  10.225  0.0721  0.2507 -0.6627
15666SOL    HW153603   1.815   5.685  10.277  1.6558 -1.6254  2.0933
15666SOL    HW253604   1.880   5.605  10.166  0.4852  0.3871 -0.1344
15667SOL     OW53605   6.752   7.901   1.081  0.4233  0.1937 -0.0452
15667SOL    HW153606   6.667   7.887   1.122  0.5631  0.8328  0.4730
15667SOL    HW253607   6.735   7.966   1.013  0.1178 -1.1288 -1.2876
15668SOL     OW53608   8.858   5.549   9.443 -0.2675  0.1894  0.3855
15668SOL    HW153609   8.829   5.480   9.503  0.7724 -0.0669  0.5992
15668SOL    HW253610   8.946   5.571   9.472  0.0288  0.4786 -0.6926
15669SOL     OW53611   0.582   4.102   2.735  1.0861  0.2451 -0.0864
15669SOL    HW153612   0.498   4.131   2.700  0.3112 -0.4920  1.0873
15669SOL    HW253613   0.642   4.107   2.661 -0.3229 -0.5958 -1.3417
15670SOL     OW53614  12.274   1.451   9.284  0.3490  0.3792 -0.2039
15670SOL    HW153615  12.225   1.435   9.364  0.6912 -2.4812 -0.4786
15670SOL    HW253616  12.350   1.502   9.312 -1.2118  2.3998  0.6546
15671SOL     OW53617  10.541   8.202   3.766 -0.1771 -0.1382 -0.3973
15671SOL    HW153618  10.464   8.249   3.798  0.7073  1.6161 -0.7658
15671SOL    HW253619  10.570   8.252   3.690  1.1014 -1.0214 -0.5178
15672SOL     OW53620   7.625  10.120  12.384 -0.2574  0.2347  0.4985
15672SOL    HW153621   7.689  10.080  12.324 -0.1421  2.8081 -1.2480
15672SOL    HW253622   7.667  10.200  12.414 -1.3198  0.2123  2.1545
15673SOL     OW53623  12.501   5.436   5.600 -0.2998  0.6661  0.2266
15673SOL    HW153624  12.419   5.483   5.613 -0.3569 -0.0548  3.4552
15673SOL    HW253625  12.480   5.344   5.618  0.8124  0.1433 -0.9777
15674SOL     OW53626  12.167   3.111  11.685 -0.0466  0.1174  0.0823
15674SOL    HW153627  12.222   3.100  11.607 -0.5585  1.6561 -0.5300
15674SOL    HW253628  12.201   3.190  11.728 -1.2389  0.6245  0.1345
15675SOL     OW53629   4.503   7.669   3.872 -0.5245  0.5652 -0.3462
15675SOL    HW153630   4.515   7.574   3.875  0.1458  0.6618  1.7593
15675SOL    HW253631   4.408   7.680   3.873 -0.6085 -0.0682 -0.3435
15676SOL     OW53632  10.842   0.448   2.338 -0.1363  0.4119 -0.2972
15676SOL    HW153633  10.782   0.379   2.312 -0.5601  0.6942 -0.0741
15676SOL    HW253634  10.792   0.502   2.399 -0.6678  2.3440 -2.3093
15677SOL     OW53635  12.015  10.356   5.216  0.0258  0.2936  0.3654
15677SOL    HW153636  11.981  10.446   5.226 -0.6385 -0.1483  2.6437
15677SOL    HW253637  11.939  10.300   5.230  0.2387 -0.6820 -1.9326
15678SOL     OW53638  11.338   6.734   1.514  0.0412 -0.0369 -0.4085
15678SOL    HW153639  11.422   6.775   1.535 -0.6472  0.9851  0.4425
15678SOL    HW253640  11.361   6.645   1.489  1.2476 -0.3692  1.6224
15679SOL     OW53641  10.779   2.628   9.155 -0.0037  0.3264  0.6218
15679SOL    HW153642  10.803   2.592   9.240 -0.1931 -0.0306  0.5243
15679SOL    HW253643  10.817   2.716   9.154  0.8635 -0.0476  0.6695
15680SOL     OW53644   0.270   7.927   2.069  0.5086  0.0324 -0.0187
15680SOL    HW153645   0.255   7.857   2.006 -2.8193  2.8174 -2.7569
15680SOL    HW253646   0.338   7.982   2.029  0.5968  0.2082  0.3657
15681SOL     OW53647   9.697   8.597   5.238 -0.1729 -0.4920 -0.3522
15681SOL    HW153648   9.752   8.519   5.248  0.0284 -0.5746 -1.8596
15681SOL    HW253649   9.743   8.666   5.285  0.4856 -0.9082 -0.3737
15682SOL     OW53650   9.403   9.767   3.106 -0.0866 -0.1790  0.6104
15682SOL    HW153651   9.490   9.755   3.143 -0.3165  0.3009  1.3367
15682SOL    HW253652   9.355   9.817   3.173 -0.9088 -0.4162  0.2178
15683SOL     OW53653   9.004   7.865   0.100 -0.3851 -0.1909  0.5054
15683SOL    HW153654   9.045   7.951   0.105  0.8242 -0.6924 -0.2757
15683SOL    HW253655   8.926   7.878   0.047  1.5041 -0.1166 -2.4854
15684SOL     OW53656  10.881   9.129  10.541  0.1095  0.5309 -0.3353
15684SOL    HW153657  10.844   9.096  10.459  0.7373  2.2520 -1.3511
15684SOL    HW253658  10.840   9.214  10.553  1.7865  1.3510 -0.1387
15685SOL     OW53659  12.743   7.272   5.571 -0.2403 -0.3933 -0.3093
15685SOL    HW153660  12.727   7.229   5.487 -0.3816 -0.0622 -0.4523
15685SOL    HW253661  12.682   7.230   5.631 -3.2154  2.1665 -1.2462
15686SOL     OW53662   2.119   4.639   1.090  0.3209 -0.0488  0.2786
15686SOL    HW153663   2.043   4.672   1.139  1.0467  1.5427  0.4114
15686SOL    HW253664   2.143   4.558   1.135 -1.7020 -0.9830 -0.1987
15687SOL     OW53665   6.810   5.097   5.404 -0.4717 -0.0664 -0.0177
15687SOL    HW153666   6.739   5.095   5.340 -0.5247  2.4300 -0.1405
15687SOL    HW253667   6.874   5.157   5.367 -1.0735  2.5242  2.7497
15688SOL     OW53668   4.001   3.388   1.763 -0.1166  0.1760 -0.0507
15688SOL    HW153669   3.980   3.392   1.669 -2.6327  0.5996  0.4488
15688SOL    HW253670   4.067   3.456   1.775 -1.5141  1.8259 -1.1645
15689SOL     OW53671   5.644   7.361   2.792 -0.3529 -0.7975 -0.7321
15689SOL    HW153672   5.735   7.346   2.769 -0.0274 -1.8656  1.0284
15689SOL    HW253673   5.644   7.366   2.888 -1.9364  0.6881 -0.7491
15690SOL     OW53674   0.024   1.956  10.058 -0.8778  0.2333 -0.1882
15690SOL    HW153675  -0.030   2.023  10.016 -0.2662  0.6803 -0.2737
15690SOL    HW253676   0.014   1.973  10.152  0.6443  1.5767 -0.2287
15691SOL     OW53677   7.836   1.446   6.457  0.1024  0.5579 -0.5183
15691SOL    HW153678   7.741   1.459   6.464 -0.2250 -0.2413 -2.8405
15691SOL    HW253679   7.868   1.523   6.411  0.2915 -0.0120 -1.3640
15692SOL     OW53680   3.963   2.013   9.526  1.0440 -0.0041  0.2355
15692SOL    HW153681   3.938   2.081   9.462  0.6090 -1.3378 -1.0599
15692SOL    HW253682   3.880   1.981   9.560  1.2659  1.9010  2.9083
15693SOL     OW53683  12.571  11.814  10.081  0.8335 -0.4988 -0.1983
15693SOL    HW153684  12.504  11.865  10.036  0.7365 -0.9657 -0.5817
15693SOL    HW253685  12.639  11.878  10.103  0.5952 -0.1613 -0.4479
15694SOL     OW53686   0.527   0.155  10.992 -0.2755 -0.0244 -0.1017
15694SOL    HW153687   0.460   0.103  10.946 -0.9016 -1.0032  1.8210
15694SOL    HW253688   0.489   0.242  10.999 -0.4191 -0.0123 -0.8904
15695SOL     OW53689   5.437   8.797   8.657 -0.0413  0.1868  0.2116
15695SOL    HW153690   5.363   8.823   8.602 -0.7381 -0.2051  0.9418
15695SOL    HW253691   5.501   8.763   8.596 -0.8735 -0.4053 -0.3548
15696SOL     OW53692   8.089   0.090  11.303  0.1394 -0.3791  0.0061
15696SOL    HW153693   8.045   0.146  11.366  0.8543 -0.0836  0.2616
15696SOL    HW253694   8.031   0.015  11.292 -0.7683  0.3503 -0.2415
15697SOL     OW53695   3.811   0.508   8.859  0.2152  0.3315 -0.9557
15697SOL    HW153696   3.871   0.450   8.811  0.0122  0.8093 -1.8064
15697SOL    HW253697   3.733   0.454   8.874 -0.3901  0.6717 -2.6671
15698SOL     OW53698   4.583   7.996   1.592 -0.3266 -0.0424 -0.1064
15698SOL    HW153699   4.668   8.038   1.579 -0.0146 -0.8986 -0.9288
15698SOL    HW253700   4.525   8.067   1.620  0.0809  1.0270 -1.8429
15699SOL     OW53701  11.315   9.237   0.923  0.2424 -0.2890  0.4867
15699SOL    HW153702  11.410   9.230   0.918  0.2209 -1.0662  0.8713
15699SOL    HW253703  11.289   9.282   0.843  0.9629  0.2575  0.5547
15700SOL     OW53704  11.432  11.952   8.194  0.1580  0.0461  0.7503
15700SOL    HW153705  11.459  11.863   8.213 -1.5214 -0.2542  1.8534
15700SOL    HW253706  11.360  11.970   8.254 -1.6930  1.0121 -1.5696
15701SOL     OW53707   1.908   7.501  10.167 -0.2244 -0.3080 -0.0500
15701SOL    HW153708   1.820   7.522  10.199 -1.3830 -2.1141 -1.8258
15701SOL    HW253709   1.910   7.406  10.164  1.8837 -0.3030  0.0628
15702SOL     OW53710   5.913  10.993   8.538 -0.4898  0.0348  0.4676
15702SOL    HW153711   5.974  11.066   8.526 -0.2675 -0.3344 -0.8150
15702SOL    HW253712   5.879  11.005   8.627  0.3235  1.0963  0.6653
15703SOL     OW53713   7.602   4.089   9.296  0.0109 -0.1712 -0.2366
15703SOL    HW153714   7.533   4.041   9.342  1.1632 -1.2775  0.4176
15703SOL    HW253715   7.678   4.031   9.300  0.3223 -0.0720 -3.1178
15704SOL     OW53716   0.596   5.211   0.137  0.1513 -0.1790 -0.0908
15704SOL    HW153717   0.502   5.216   0.122 -0.1888 -0.6020  1.7290
15704SOL    HW253718   0.606   5.206   0.232  2.0476  0.4769 -0.2040
15705SOL     OW53719  11.766   0.840  11.587  0.2434  0.3382  0.2039
15705SOL    HW153720  11.818   0.899  11.642  1.3260  0.6686 -1.1242
15705SOL    HW253721  11.829   0.775  11.554  0.5819  2.3265 -3.6715
15706SOL     OW53722   7.198  10.743   6.129  0.0881  0.5143 -0.6067
15706SOL    HW153723   7.258  10.713   6.061  1.0137  0.3043  0.2905
15706SOL    HW253724   7.215  10.837   6.136 -0.3956  0.6392 -1.0342
15707SOL     OW53725   3.067   1.265   4.153 -0.0392 -0.3178 -0.1638
15707SOL    HW153726   2.980   1.226   4.161 -0.1394 -0.0694 -0.0264
15707SOL    HW253727   3.127   1.190   4.156 -0.3037 -0.6137 -1.6227
15708SOL     OW53728  12.045   1.585   8.037  0.7556 -0.1755 -0.3468
15708SOL    HW153729  12.000   1.649   7.982 -1.2897 -2.6250 -1.7714
15708SOL    HW253730  12.127   1.568   7.990 -0.3752 -1.2649 -2.0435
15709SOL     OW53731   6.257   6.001   9.681 -0.1037  0.2877 -0.8000
15709SOL    HW153732   6.229   5.980   9.591 -0.9738  1.2295 -0.7743
15709SOL    HW253733   6.177   6.033   9.723  0.0943 -0.9613  0.5871
15710SOL     OW53734   9.277   8.681   0.034 -0.3742 -0.1878  0.3895
15710SOL    HW153735   9.343   8.677   0.103 -1.9873 -1.0679  1.9694
15710SOL    HW253736   9.238   8.594   0.033 -1.1808  0.1640 -0.8385
15711SOL     OW53737  12.765   0.042   8.655 -0.2316 -0.4355  0.0019
15711SOL    HW153738  12.749   0.037   8.561 -0.3767 -0.2656  0.0154
15711SOL    HW253739  12.860   0.051   8.663 -0.0950 -1.6479 -0.0774
15712SOL     OW53740   4.696  11.936   4.192 -0.5417 -0.0197 -0.3806
15712SOL    HW153741   4.722  11.980   4.273 -1.2189  0.6130 -0.4915
15712SOL    HW253742   4.601  11.926   4.200 -0.6039 -0.0191 -1.0546
15713SOL     OW53743   0.547   2.407   7.618 -0.1875 -0.0535  0.4107
15713SOL    HW153744   0.462   2.440   7.588 -1.9432 -3.9084  0.5112
15713SOL    HW253745   0.529   2.371   7.706  1.4695 -1.1061  0.3714
15714SOL     OW53746   8.343   5.259  11.786 -0.2952 -0.2671  0.2595
15714SOL    HW153747   8.327   5.309  11.706  0.9891 -0.7298 -0.3064
15714SOL    HW253748   8.422   5.298  11.823 -0.2255 -0.8139  0.6972
15715SOL     OW53749   5.885  11.393   6.635 -0.0868  0.0609  0.2408
15715SOL    HW153750   5.911  11.305   6.610 -1.4032 -0.0497 -0.8742
15715SOL    HW253751   5.965  11.445   6.629  0.4061 -0.7685 -0.5265
15716SOL     OW53752   2.896   8.664  11.002  0.3275  0.1787  0.4391
15716SOL    HW153753   2.804   8.689  11.002  0.2451 -0.1149  0.1358
15716SOL    HW253754   2.900   8.584  11.054  0.0322 -1.1163 -1.4300
15717SOL     OW53755   0.517   6.818   1.154 -0.7518 -0.1264 -0.6105
15717SOL    HW153756   0.557   6.824   1.068 -1.3107 -1.0840 -0.9600
15717SOL    HW253757   0.529   6.905   1.193 -0.3323  0.2587 -1.5723
15718SOL     OW53758   4.849   7.633  12.333  0.3969 -0.8926 -0.4388
15718SOL    HW153759   4.765   7.588  12.331 -0.3011  0.3627 -0.9015
15718SOL    HW253760   4.908   7.574  12.381  0.3069 -3.5068 -3.3109
15719SOL     OW53761   0.475   5.069   1.597 -0.0798 -0.6571  0.6847
15719SOL    HW153762   0.433   4.984   1.589 -0.5258 -0.6464  2.5011
15719SOL    HW253763   0.504   5.090   1.508  0.0223 -2.6750  0.1893
15720SOL     OW53764   6.071   4.425   4.077 -0.1860  0.6354  0.3494
15720SOL    HW153765   6.013   4.464   4.012  0.1892  1.4062  0.4635
15720SOL    HW253766   6.085   4.336   4.047  0.5946  1.2065 -1.0303
15721SOL     OW53767   1.872   3.910   9.466 -0.8065  0.3760 -0.1169
15721SOL    HW153768   1.909   3.958   9.540  1.2370  0.8823 -1.3860
15721SOL    HW253769   1.941   3.849   9.440 -1.5531  0.0583 -1.4754
15722SOL     OW53770  11.839   6.285  11.062  0.3413 -0.3290  0.7428
15722SOL    HW153771  11.905   6.335  11.013 -0.2440  0.2466  0.5382
15722SOL    HW253772  11.823   6.208  11.007  1.6972 -1.0927  1.3515
15723SOL     OW53773   2.227   3.861   7.970 -0.1176 -0.3898 -0.1314
15723SOL    HW153774   2.132   3.869   7.960 -0.1812 -2.2480 -1.9227
15723SOL    HW253775   2.258   3.839   7.882  2.0342  0.4163  0.3564
15724SOL     OW53776   4.133   8.915   6.566  0.4941 -0.1902  0.3627
15724SOL    HW153777   4.081   8.834   6.562  1.3284 -0.7289  0.1531
15724SOL    HW253778   4.184   8.914   6.485  0.6132  0.4850  0.4253
15725SOL     OW53779   8.085   0.737  11.537 -0.5103 -0.2581  0.1264
15725SOL    HW153780   8.053   0.650  11.562  1.5793 -1.3890 -0.8424
15725SOL    HW253781   8.101   0.730  11.443  0.6971  0.8343  0.2241
15726SOL     OW53782   9.326   7.895   0.991 -0.1219  0.1397  0.0897
15726SOL    HW153783   9.292   7.892   1.080  0.2013 -2.9099  0.2056
15726SOL    HW253784   9.250   7.912   0.936 -0.3950  1.5551  0.8470
15727SOL     OW53785   8.768  10.257   6.040  0.4709  0.1966 -0.1861
15727SOL    HW153786   8.811  10.341   6.056 -1.0814  1.4852 -2.1616
15727SOL    HW253787   8.817  10.218   5.968 -1.1074  1.4072 -2.0533
15728SOL     OW53788   3.134  12.209   3.519 -0.3848  0.1745  0.6491
15728SOL    HW153789   3.219  12.185   3.556  0.1911  1.1318 -0.0213
15728SOL    HW253790   3.150  12.291   3.473 -1.5057 -0.0180 -0.1220
15729SOL     OW53791  11.444  10.314   1.228  0.2741  0.4984 -0.2837
15729SOL    HW153792  11.419  10.356   1.145 -0.4152  0.5312 -0.0663
15729SOL    HW253793  11.527  10.270   1.208 -0.8470 -1.1765 -1.5627
15730SOL     OW53794   5.083   8.958   1.477  0.7388 -0.0991  0.1568
15730SOL    HW153795   5.123   8.887   1.426 -0.4302 -0.6826  0.0021
15730SOL    HW253796   5.146   8.977   1.546  1.2936 -0.9523 -0.0973
15731SOL     OW53797   3.515   4.329  10.992  1.3684 -0.1497  0.1935
15731SOL    HW153798   3.482   4.254  10.942 -0.6526 -0.3275  1.6712
15731SOL    HW253799   3.572   4.290  11.059  1.2488 -0.2517  0.2360
15732SOL     OW53800  12.610  12.574   5.373 -0.2960 -0.2402 -0.4499
15732SOL    HW153801  12.523  12.536   5.379  0.1444 -1.1501  0.4808
15732SOL    HW253802  12.638  12.556   5.283  0.1403 -2.7780  0.0972
15733SOL     OW53803   7.653   0.947   8.100 -0.4427  0.1639 -0.6318
15733SOL    HW153804   7.585   0.880   8.092  0.5224 -0.7494 -1.5034
15733SOL    HW253805   7.624   1.018   8.043 -1.7771  0.7913  0.7668
15734SOL     OW53806   3.872   1.320   0.010 -0.0413 -0.6489  0.6437
15734SOL    HW153807   3.967   1.331   0.009 -0.1284  0.7188 -1.6869
15734SOL    HW253808   3.857   1.240  -0.041 -0.1588  0.1476 -0.6204
15735SOL     OW53809   4.205   6.974   4.018  0.6480  0.0004 -0.1377
15735SOL    HW153810   4.174   6.966   4.108  3.1983  1.9027  1.0240
15735SOL    HW253811   4.250   6.891   4.000  0.3548 -0.2798  0.3988
15736SOL     OW53812   4.977  10.990   4.155  0.3853  0.2935 -1.2590
15736SOL    HW153813   5.066  11.026   4.151  0.8348 -0.8240 -2.1674
15736SOL    HW253814   4.926  11.057   4.199  1.4747  1.3991 -1.5963
15737SOL     OW53815   0.252  12.111   0.541  0.1763  0.8030  0.2502
15737SOL    HW153816   0.251  12.146   0.452 -1.7301 -0.4472 -0.2842
15737SOL    HW253817   0.193  12.168   0.590 -1.7063 -0.5760 -0.2533
15738SOL     OW53818   2.993  12.282   2.193  0.0947 -0.0559  0.2295
15738SOL    HW153819   3.058  12.308   2.258 -0.9504  0.6838  1.0053
15738SOL    HW253820   2.990  12.356   2.132  0.0266 -0.1141  0.1625
15739SOL     OW53821   8.508  11.105  10.264 -0.1731  0.3534  0.1553
15739SOL    HW153822   8.430  11.160  10.258 -0.2784  0.4337  1.9215
15739SOL    HW253823   8.497  11.041  10.193 -1.3181  1.0052 -0.2843
15740SOL     OW53824   7.814   4.956  10.764 -0.4518  0.4086  0.1537
15740SOL    HW153825   7.838   5.037  10.809 -0.6823 -0.5284  2.0541
15740SOL    HW253826   7.895   4.929  10.720 -0.1942  1.3161  0.0360
15741SOL     OW53827   8.613  10.804   6.328  0.0221  0.5096  0.1520
15741SOL    HW153828   8.564  10.883   6.350  0.9756  1.2315 -0.2490
15741SOL    HW253829   8.548  10.734   6.329 -0.7097  1.1813  1.1961
15742SOL     OW53830   8.971   8.180   5.905 -0.0262 -0.0477  0.1214
15742SOL    HW153831   8.986   8.181   5.811  0.7194 -3.9757  0.0011
15742SOL    HW253832   8.887   8.135   5.916  1.2209 -2.3184  1.2425
15743SOL     OW53833   4.018   3.015   6.117 -0.2664 -0.4303 -0.2414
15743SOL    HW153834   3.975   3.064   6.046  1.3740  0.9905 -0.3358
15743SOL    HW253835   4.111   3.023   6.097  0.1453 -1.4639  1.1819
15744SOL     OW53836   1.616  10.367   2.740  0.4795 -0.1914 -0.3533
15744SOL    HW153837   1.559  10.439   2.713  1.2078  0.8356  0.7622
15744SOL    HW253838   1.570  10.327   2.814  1.5683  1.2376  1.1765
15745SOL     OW53839   7.849   5.353  10.987 -0.2165  0.2770  0.2418
15745SOL    HW153840   7.868   5.265  10.955  0.7699 -0.3612  2.3995
15745SOL    HW253841   7.934   5.386  11.017 -1.1355  0.4840  2.8221
15746SOL     OW53842   1.522   1.837  10.207 -0.4174 -0.0868  0.0420
15746SOL    HW153843   1.510   1.857  10.299  0.3557 -0.4936  0.2446
15746SOL    HW253844   1.525   1.922  10.163  2.0798  0.2999  0.7742
15747SOL     OW53845  11.387   8.938  11.707 -0.1882  0.2605  0.4329
15747SOL    HW153846  11.308   8.896  11.740 -0.6308 -0.4740 -1.4696
15747SOL    HW253847  11.442   8.867  11.677  0.1388  0.8931 -0.5143
15748SOL     OW53848   5.245   8.804   3.260  0.3539 -0.0449  1.0018
15748SOL    HW153849   5.287   8.823   3.176 -1.0612 -0.9236  0.0644
15748SOL    HW253850   5.279   8.872   3.319  0.2073  1.5375 -0.6499
15749SOL     OW53851   7.868  10.147  10.450  0.1407 -0.4556  0.1583
15749SOL    HW153852   7.947  10.093  10.452  0.0400 -0.5914  1.1246
15749SOL    HW253853   7.864  10.187  10.537 -1.5413 -1.4842  0.6159
15750SOL     OW53854   0.929   1.583  11.724 -0.1759 -0.0929  0.0071
15750SOL    HW153855   0.963   1.498  11.694  1.4840 -0.2620  2.1606
15750SOL    HW253856   0.942   1.582  11.818 -1.0942  2.1675  0.2097
15751SOL     OW53857   3.675   4.017   0.404 -0.0742 -0.2181 -0.4814
15751SOL    HW153858   3.619   3.983   0.473 -1.1353  1.8415 -0.2541
15751SOL    HW253859   3.628   3.997   0.323 -1.4662  1.9041 -0.2692
15752SOL     OW53860   4.171   9.931   9.153  0.6165  0.4903  0.4805
15752SOL    HW153861   4.121   9.881   9.218  0.3397  1.3494  0.9524
15752SOL    HW253862   4.105   9.980   9.104  0.7199 -1.0437 -1.2814
15753SOL     OW53863   6.722  12.167   2.804 -0.1958 -0.4026  0.5824
15753SOL    HW153864   6.738  12.246   2.753  1.5703 -0.9262  0.2497
15753SOL    HW253865   6.640  12.184   2.850 -0.9649  0.7487 -1.1328
15754SOL     OW53866   7.241   1.871   8.127  0.1242  0.5904  0.3408
15754SOL    HW153867   7.251   1.900   8.218  0.9182  0.4051  0.3223
15754SOL    HW253868   7.148   1.883   8.108 -0.5372 -1.4629  1.9035
15755SOL     OW53869  10.001   2.230   0.594 -0.3271 -0.4888  0.0272
15755SOL    HW153870  10.071   2.186   0.642 -0.9270  0.1269  1.5358
15755SOL    HW253871   9.931   2.241   0.658  0.2518  3.8783  0.2417
15756SOL     OW53872   4.783   1.353   6.397 -0.0001  0.2894 -0.2042
15756SOL    HW153873   4.755   1.414   6.465  1.0154  1.1762 -0.5554
15756SOL    HW253874   4.865   1.317   6.429  0.1194  0.1689 -0.6339
15757SOL     OW53875   1.110  11.541   5.990 -0.0021 -0.3396 -0.3438
15757SOL    HW153876   1.130  11.609   6.054  0.4648 -0.5239 -0.2869
15757SOL    HW253877   1.168  11.560   5.916 -0.8221  0.1039 -0.8780
15758SOL     OW53878   3.635   0.744   6.520 -0.4054  0.2219  0.2930
15758SOL    HW153879   3.682   0.781   6.446 -0.5042  0.0525  0.1440
15758SOL    HW253880   3.690   0.672   6.551  0.4813  1.3702  1.4743
15759SOL     OW53881  10.569   2.592   1.961 -0.0739 -0.1792 -0.5627
15759SOL    HW153882  10.596   2.503   1.939  1.1563  0.1879 -0.6187
15759SOL    HW253883  10.638   2.647   1.923 -0.4635  0.7486  0.0583
15760SOL     OW53884   2.503   0.566   3.802 -0.4622 -0.0737 -0.7831
15760SOL    HW153885   2.584   0.610   3.829 -0.3259 -0.5098 -0.4610
15760SOL    HW253886   2.533   0.480   3.769 -0.9246 -0.8836  0.8353
15761SOL     OW53887   4.929   5.447   3.625  0.0166  0.6014 -0.0491
15761SOL    HW153888   4.946   5.536   3.658 -0.4617  0.0625  1.7905
15761SOL    HW253889   5.011   5.401   3.639  0.6622  1.0156 -2.1341
15762SOL     OW53890   9.677  11.241   4.582  0.9083 -0.1140 -0.0373
15762SOL    HW153891   9.756  11.295   4.582  0.6954  0.2006 -0.0031
15762SOL    HW253892   9.605  11.304   4.587  0.6875 -0.4498  1.0979
15763SOL     OW53893  11.709   1.351   0.205 -0.4527 -0.4222 -0.2198
15763SOL    HW153894  11.749   1.285   0.149 -0.0996  0.9120 -1.6097
15763SOL    HW253895  11.617   1.353   0.179 -0.5416 -0.6099  0.0735
15764SOL     OW53896  11.600   2.466   2.232 -0.0568  0.4274  0.3933
15764SOL    HW153897  11.575   2.434   2.146 -0.1499 -1.2165  0.9839
15764SOL    HW253898  11.602   2.561   2.223 -1.1364  0.3511 -1.1247
15765SOL     OW53899   0.592   7.057   1.267  0.2473 -0.2084 -1.2505
15765SOL    HW153900   0.684   7.055   1.291 -0.1380  0.0922  0.3716
15765SOL    HW253901   0.567   7.149   1.274 -0.7589 -0.5733  0.9206
15766SOL     OW53902   8.628   6.348   3.468 -0.0623  0.0062 -0.2251
15766SOL    HW153903   8.534   6.327   3.470 -0.4796  1.5983 -1.2824
15766SOL    HW253904   8.671   6.262   3.469 -1.5316 -0.7752 -0.2847
15767SOL     OW53905   2.888  12.151   6.691 -0.5798  0.0326 -0.1858
15767SOL    HW153906   2.840  12.203   6.627  0.2918  0.8806 -0.1637
15767SOL    HW253907   2.860  12.184   6.776  0.4189  0.9142 -0.1761
15768SOL     OW53908   1.199   6.186   9.003  1.1169  0.2668 -0.3507
15768SOL    HW153909   1.132   6.202   8.936 -0.9152  1.4015  1.8058
15768SOL    HW253910   1.219   6.093   8.994 -2.9800 -0.9191  0.7061
15769SOL     OW53911   1.020   7.801   0.075  0.0705 -0.0993  0.0312
15769SOL    HW153912   0.946   7.749   0.107  1.2156 -0.7918  1.7247
15769SOL    HW253913   1.097   7.759   0.113  1.2563  1.2608 -0.7614
15770SOL     OW53914   5.521  12.213  10.208  0.0002 -0.0014  0.4025
15770SOL    HW153915   5.558  12.126  10.226 -1.1555 -0.5627  0.1726
15770SOL    HW253916   5.443  12.218  10.263  0.0590  0.9079  0.4237
15771SOL     OW53917   2.585   2.181   6.032  0.0019 -0.2109  0.2061
15771SOL    HW153918   2.655   2.118   6.015  0.4295  0.6546 -1.3979
15771SOL    HW253919   2.546   2.197   5.946  0.1623  1.9932  0.4965
15772SOL     OW53920   1.336   1.741  12.569 -0.2500  0.0863  0.5039
15772SOL    HW153921   1.308   1.748  12.660  1.4560 -0.3877  1.1093
15772SOL    HW253922   1.258   1.762  12.518 -1.3019  0.1397  2.0667
15773SOL     OW53923  12.163   7.258   8.835 -0.1658 -0.1543 -0.5708
15773SOL    HW153924  12.108   7.325   8.874  3.0326  1.1764  2.2189
15773SOL    HW253925  12.236   7.307   8.797  1.3413 -1.9082 -0.0862
15774SOL     OW53926  10.340   2.422   9.116 -0.8202 -0.6849 -0.3088
15774SOL    HW153927  10.347   2.499   9.173 -0.0744 -0.5187 -0.6028
15774SOL    HW253928  10.252   2.427   9.080 -0.3803  0.7427 -1.2730
15775SOL     OW53929   1.289   1.188  12.516 -0.2804  0.3911 -0.0852
15775SOL    HW153930   1.230   1.233  12.454 -0.1091  1.4793  0.5160
15775SOL    HW253931   1.313   1.107  12.471 -2.9695 -0.5738  0.0228
15776SOL     OW53932   0.293   1.903   6.286  0.0305  0.1272 -0.1103
15776SOL    HW153933   0.340   1.980   6.320 -0.5948 -0.4190  2.2197
15776SOL    HW253934   0.205   1.936   6.267 -0.4095 -0.0808  1.4395
15777SOL     OW53935   5.770  11.472   5.670 -0.6294 -0.0040 -0.1098
15777SOL    HW153936   5.748  11.391   5.717 -2.0290 -0.2567 -1.1387
15777SOL    HW253937   5.794  11.534   5.738 -0.2235 -1.0712  0.7533
15778SOL     OW53938   4.171   8.908   1.767  0.2564  0.0434  0.1725
15778SOL    HW153939   4.137   8.833   1.718  0.5580  0.4454 -0.6769
15778SOL    HW253940   4.227   8.954   1.704 -0.2073  1.1826  0.5724
15779SOL     OW53941   0.041   9.528   7.827  0.0908  0.6339 -0.0424
15779SOL    HW153942  -0.025   9.595   7.809 -1.2312 -0.3901  0.8165
15779SOL    HW253943   0.107   9.540   7.759 -1.3685  1.1928 -1.4181
15780SOL     OW53944   9.790   2.349   1.912 -0.2501 -0.0367  0.0715
15780SOL    HW153945   9.836   2.335   1.995 -0.3415  0.5037  0.2162
15780SOL    HW253946   9.806   2.441   1.892 -1.9131  0.3739  0.5136
15781SOL     OW53947   7.078   7.166  12.028 -0.1820  0.5896 -0.3418
15781SOL    HW153948   7.082   7.071  12.041  2.2130  0.6019 -0.5830
15781SOL    HW253949   7.090   7.203  12.116  2.7914  0.6139 -0.6602
15782SOL     OW53950  10.613  12.480   4.344 -0.6218 -0.5072 -0.2837
15782SOL    HW153951  10.584  12.441   4.262  1.6220 -0.7493 -1.0245
15782SOL    HW253952  10.658  12.409   4.390 -1.7788 -0.3596  1.1675
15783SOL     OW53953  10.976   7.633   2.229 -0.2097  0.0136  0.0158
15783SOL    HW153954  11.002   7.664   2.315 -1.7042 -0.7727  0.7869
15783SOL    HW253955  10.992   7.538   2.231  0.4987  0.0870 -0.8835
15784SOL     OW53956   1.824   1.268   2.658 -0.3183 -0.3911  0.4177
15784SOL    HW153957   1.914   1.274   2.626  0.0557  2.3366  1.6779
15784SOL    HW253958   1.831   1.223   2.742 -0.4990 -2.1067 -0.4288
15785SOL     OW53959   8.787  12.629   9.772 -0.0299  0.1140  0.3943
15785SOL    HW153960   8.857  12.616   9.836 -1.2482  0.8590  1.9615
15785SOL    HW253961   8.811  12.574   9.698  0.2327 -2.8394  2.4790
15786SOL     OW53962   3.551   9.283   7.451 -0.4074  0.0716  0.9733
15786SOL    HW153963   3.640   9.315   7.471  1.0138 -1.9315 -1.5378
15786SOL    HW253964   3.499   9.362   7.439  1.5041  1.3560  0.7409
15787SOL     OW53965  11.411   9.050  10.136  0.7836 -0.1067  0.2227
15787SOL    HW153966  11.489   9.031  10.188 -0.4864 -0.2453  2.1643
15787SOL    HW253967  11.421   8.996  10.057  2.3802 -0.5211  0.6829
15788SOL     OW53968   2.238   6.879   0.926  0.0777  0.3958  0.4938
15788SOL    HW153969   2.188   6.837   0.857  0.7281 -1.1396  0.9152
15788SOL    HW253970   2.326   6.891   0.888 -0.3146  2.3034  0.0507
15789SOL     OW53971   6.374  11.116   1.744 -0.0053  0.4088 -0.4208
15789SOL    HW153972   6.404  11.206   1.729  2.4388 -0.0873  0.7744
15789SOL    HW253973   6.434  11.062   1.693 -0.5403 -0.5976 -0.0130
15790SOL     OW53974  11.755  12.576   7.852  0.3500  0.0390 -0.2267
15790SOL    HW153975  11.829  12.544   7.903 -1.0273 -0.9569  1.2247
15790SOL    HW253976  11.785  12.571   7.761  1.9356 -0.6798  0.3043
15791SOL     OW53977   9.814   3.535   6.361 -0.1179  0.4208 -0.3291
15791SOL    HW153978   9.726   3.498   6.356 -0.2789  0.8638 -0.9181
15791SOL    HW253979   9.805   3.622   6.320  0.7995  0.0845 -1.2834
15792SOL     OW53980   3.259   6.323   2.237 -0.1407 -1.0660  0.0793
15792SOL    HW153981   3.343   6.280   2.226 -0.6774 -1.6619 -2.0911
15792SOL    HW253982   3.232   6.300   2.326  1.9208 -0.9144  0.7916
15793SOL     OW53983   4.745   8.282   7.900 -0.2335 -0.3956 -0.0764
15793SOL    HW153984   4.741   8.374   7.923 -1.6512 -0.5983  0.5690
15793SOL    HW253985   4.833   8.270   7.865  0.0847  1.1188  0.1463
15794SOL     OW53986   8.824   9.908   4.380 -0.2354  0.0928 -0.1480
15794SOL    HW153987   8.764   9.870   4.444 -0.5522  0.6564 -0.0986
15794SOL    HW253988   8.887   9.957   4.434 -0.2135  0.1645 -0.2388
15795SOL     OW53989   1.805   6.405  11.586 -0.1640 -0.1585  0.1796
15795SOL    HW153990   1.879   6.455  11.550 -0.4406  0.5973  0.6500
15795SOL    HW253991   1.733   6.421  11.524 -0.7697  1.5073  1.2694
15796SOL     OW53992   1.577  11.200   2.092  0.0783  0.1314  0.2334
15796SOL    HW153993   1.538  11.115   2.113 -2.4615  1.1340 -0.0653
15796SOL    HW253994   1.507  11.248   2.049  1.2438  2.6054  0.9300
15797SOL     OW53995   7.701  11.282   3.517 -0.1619 -0.3698 -0.2387
15797SOL    HW153996   7.734  11.359   3.563 -0.1960 -0.1548 -0.5745
15797SOL    HW253997   7.670  11.225   3.587  0.6765 -0.4680  0.0657
15798SOL     OW53998   0.051   8.517   4.589 -0.0578 -0.3692 -0.2233
15798SOL    HW153999   0.073   8.563   4.507  2.6411 -0.8295  0.1449
15798SOL    HW254000   0.103   8.437   4.586  1.1797  0.2176  2.4855
15799SOL     OW54001  10.075   2.418   7.792  0.2871  0.0329 -0.2871
15799SOL    HW154002  10.127   2.452   7.865 -0.6947 -0.2321  0.5655
15799SOL    HW254003  10.126   2.439   7.714  1.8514 -0.5493  0.5363
15800SOL     OW54004  11.775  12.565   9.951  0.6165 -0.3861  0.1310
15800SOL    HW154005  11.718  12.618  10.006 -0.5332 -0.5099 -0.8958
15800SOL    HW254006  11.843  12.533  10.011  0.8044  1.4452  0.9594
15801SOL     OW54007   6.241  10.750  12.722  0.8604 -0.1914 -0.2117
15801SOL    HW154008   6.317  10.808  12.730 -0.3312  1.7945 -2.1725
15801SOL    HW254009   6.264  10.673  12.774  3.5688  0.9687  0.4778
15802SOL     OW54010   2.025   6.048   8.165 -0.1665  0.5507  0.4641
15802SOL    HW154011   2.020   5.952   8.163 -2.2033  0.6196 -0.6141
15802SOL    HW254012   2.001   6.072   8.254  0.0288  0.0698  0.6478
15803SOL     OW54013   2.089   2.254  12.638  0.1218 -0.2371 -0.1263
15803SOL    HW154014   2.113   2.216  12.723 -1.7767 -0.0317  0.5745
15803SOL    HW254015   2.021   2.318  12.660  0.1527  0.3915 -1.7445
15804SOL     OW54016   2.970   9.655   9.933 -0.0098 -0.1651 -0.1386
15804SOL    HW154017   3.046   9.688   9.981 -0.5947  0.1770  0.5671
15804SOL    HW254018   2.981   9.690   9.845  0.4244  0.2503  0.0735
15805SOL     OW54019   4.955   6.923   2.046  0.3523 -0.1197  0.1226
15805SOL    HW154020   5.009   6.938   2.123  0.6844 -0.5678 -0.0153
15805SOL    HW254021   4.866   6.911   2.080  0.4104  0.1840  0.3864
15806SOL     OW54022   2.512   4.498   8.172  0.1323 -0.2608 -0.0086
15806SOL    HW154023   2.425   4.531   8.150  0.4289 -0.2325 -1.2417
15806SOL    HW254024   2.497   4.408   8.202 -0.3448 -0.1858 -0.0192
15807SOL     OW54025  12.324   2.289   0.887  0.2021  0.2610  0.0101
15807SOL    HW154026  12.373   2.265   0.808 -1.4913 -1.2348 -0.6421
15807SOL    HW254027  12.299   2.206   0.927 -0.4019  0.9893  1.2071
15808SOL     OW54028   5.663   9.172   9.906  0.1403  0.4252 -0.1455
15808SOL    HW154029   5.618   9.255   9.894 -2.2140 -0.9193 -1.2589
15808SOL    HW254030   5.623   9.135   9.985  0.5138 -0.0528 -0.1783
15809SOL     OW54031   0.981   2.097   1.433 -0.2670  0.1935  0.4914
15809SOL    HW154032   1.005   2.005   1.435  1.1040  0.5298  1.0996
15809SOL    HW254033   0.893   2.101   1.471 -1.0866 -1.0428 -1.1683
15810SOL     OW54034  11.313   6.129   4.248  0.3464  0.4898  0.4027
15810SOL    HW154035  11.290   6.036   4.249  0.1545  0.5235 -0.6069
15810SOL    HW254036  11.291   6.159   4.160  2.3639  1.0025  0.0141
15811SOL     OW54037   5.006  12.222   0.691 -0.1201 -0.3579 -0.1892
15811SOL    HW154038   5.088  12.181   0.663  0.2542  0.0572  0.2889
15811SOL    HW254039   4.938  12.158   0.669  0.3667 -0.8523 -0.2638
15812SOL     OW54040   8.723  12.033   1.672  0.1622  0.0991  0.3071
15812SOL    HW154041   8.705  11.995   1.758  0.2896  0.8933  0.6983
15812SOL    HW254042   8.819  12.031   1.665  0.1283 -0.4447 -0.0469
15813SOL     OW54043   3.635   8.841   0.905 -0.1951 -0.9811 -0.1627
15813SOL    HW154044   3.724   8.818   0.933 -0.5237 -0.2037  1.6643
15813SOL    HW254045   3.586   8.760   0.912  0.3661 -1.4353 -1.2607
15814SOL     OW54046   8.936   3.359   2.971  0.1979  0.1095  0.3335
15814SOL    HW154047   8.851   3.399   2.988 -0.3358 -0.0848 -1.6284
15814SOL    HW254048   8.921   3.265   2.983  0.0910  0.0604 -0.1895
15815SOL     OW54049   5.597   1.386   7.436 -0.1377  0.2613  0.0984
15815SOL    HW154050   5.540   1.340   7.498 -0.3060  2.5381  1.7602
15815SOL    HW254051   5.667   1.324   7.417 -1.3666 -1.3697  0.6805
15816SOL     OW54052   3.670   1.736  12.240 -0.0967 -0.2955  0.1715
15816SOL    HW154053   3.720   1.706  12.316  1.3577  1.2933 -0.1040
15816SOL    HW254054   3.671   1.661  12.180 -0.5352 -1.2734  1.3561
15817SOL     OW54055   2.008   3.261   9.055 -0.4714  0.4433 -0.1633
15817SOL    HW154056   2.076   3.279   8.990 -1.2998 -1.0120 -1.5088
15817SOL    HW254057   1.996   3.344   9.102 -0.5100  1.8431 -2.5231
15818SOL     OW54058   4.886   1.874   1.037  0.6091  0.4917 -0.2316
15818SOL    HW154059   4.849   1.955   1.071 -1.2273  0.3089 -1.6537
15818SOL    HW254060   4.927   1.832   1.114 -2.2069  0.6949  1.5282
15819SOL     OW54061   8.098   1.658  12.654 -0.5881  0.0621  0.0468
15819SOL    HW154062   8.028   1.701  12.604  0.7139  1.5329 -0.6053
15819SOL    HW254063   8.133   1.728  12.711  1.7183 -0.0025 -1.1780
15820SOL     OW54064   4.083   6.887   5.110 -0.1009 -0.4429  0.3271
15820SOL    HW154065   4.078   6.850   5.198 -1.9835 -1.9782 -0.3414
15820SOL    HW254066   4.060   6.979   5.120  1.2450 -0.2277  1.6160
15821SOL     OW54067   5.588   9.888  12.176 -0.3031  0.3623  0.3816
15821SOL    HW154068   5.612   9.951  12.108 -0.2414 -0.5029 -0.4204
15821SOL    HW254069   5.514   9.929  12.221 -1.8813  0.0173 -1.7017
15822SOL     OW54070   4.602   5.443   4.425  0.0574  0.2169  0.2317
15822SOL    HW154071   4.609   5.526   4.379 -1.6782 -0.3343 -1.1412
15822SOL    HW254072   4.508   5.429   4.437  0.0331 -2.7942 -2.1253
15823SOL     OW54073   7.564   7.530   0.221  0.4105  0.1245  0.2975
15823SOL    HW154074   7.472   7.512   0.237  0.1231  1.5991  0.5031
15823SOL    HW254075   7.577   7.511   0.128 -0.9253  2.8481 -0.5409
15824SOL     OW54076   9.842  10.135   6.212  0.0350 -0.1237 -0.4121
15824SOL    HW154077   9.767  10.174   6.168  0.9396  1.1167 -0.9101
15824SOL    HW254078   9.841  10.173   6.300  0.3769  0.3079 -0.5920
15825SOL     OW54079   4.773   0.461   0.750  0.4276  0.1968 -0.5767
15825SOL    HW154080   4.849   0.455   0.692 -0.3967  0.8357 -1.7880
15825SOL    HW254081   4.725   0.380   0.735 -0.4671  0.9163 -1.8518
15826SOL     OW54082   7.802   1.779   3.829 -0.1123  0.3010 -0.1655
15826SOL    HW154083   7.846   1.845   3.775  0.3598  1.4092  1.5006
15826SOL    HW254084   7.721   1.759   3.781  1.0752 -0.0643 -2.1233
15827SOL     OW54085   6.872  12.291   4.963 -0.0878  0.6169 -0.0568
15827SOL    HW154086   6.780  12.266   4.952 -0.0624 -0.1780  1.2552
15827SOL    HW254087   6.873  12.345   5.042  0.9600 -2.3814  2.2157
15828SOL     OW54088   1.776  11.058   1.184 -0.0376  0.0342 -0.4639
15828SOL    HW154089   1.854  11.010   1.158  0.5899  0.8539 -0.1459
15828SOL    HW254090   1.719  11.056   1.107 -0.6950 -2.4740 -0.0023
15829SOL     OW54091   3.924  12.599  11.516  0.0916 -0.5124  0.3050
15829SOL    HW154092   3.960  12.539  11.451  1.5628  0.0697  0.5277
15829SOL    HW254093   3.830  12.586  11.511  0.3376 -2.7305  0.2456
15830SOL     OW54094   3.667   3.089   2.807 -0.2781 -0.3517 -0.3955
15830SOL    HW154095   3.693   3.101   2.715  2.2927 -1.1638  0.1283
15830SOL    HW254096   3.750   3.081   2.854 -1.1736  4.5036  2.7633
15831SOL     OW54097   2.995   8.199   5.231  0.1253 -0.1611  0.3423
15831SOL    HW154098   3.047   8.213   5.310  0.4545  0.0601  0.0873
15831SOL    HW254099   2.972   8.288   5.202  0.5544 -0.2189 -0.1737
15832SOL     OW54100   8.886   3.366   6.960  0.1842 -0.2240  0.8357
15832SOL    HW154101   8.914   3.429   6.893 -0.4931 -1.1301 -0.3259
15832SOL    HW254102   8.837   3.419   7.023 -0.2619  0.4511 -0.0553
15833SOL     OW54103   9.549   7.655   0.455  0.2385  0.4278  0.1268
15833SOL    HW154104   9.548   7.573   0.504  0.0536 -0.4675 -1.2909
15833SOL    HW254105   9.494   7.637   0.378  0.0919  1.9277 -0.1423
15834SOL     OW54106   9.616   8.206   8.879  0.8872 -0.1307  0.0620
15834SOL    HW154107   9.596   8.144   8.809  1.8388  1.8534 -2.1118
15834SOL    HW254108   9.709   8.193   8.898  1.0823  0.5513 -0.3766
15835SOL     OW54109   3.629   2.507   2.853  0.1240  0.0779 -0.0363
15835SOL    HW154110   3.652   2.552   2.935 -0.0062 -0.2752  0.1961
15835SOL    HW254111   3.618   2.415   2.878  2.3481 -0.4820 -0.8501
15836SOL     OW54112   9.029  12.144  12.038  0.5265  0.1835  0.6349
15836SOL    HW154113   9.032  12.148  11.942 -2.0508  0.6822  0.5049
15836SOL    HW254114   9.043  12.051  12.058  0.1643 -0.0799 -0.2942
15837SOL     OW54115   1.775   9.848   8.301  0.8513 -0.0415  0.4298
15837SOL    HW154116   1.751   9.861   8.392 -0.1330  0.2857  0.1348
15837SOL    HW254117   1.778   9.936   8.264 -0.5333 -0.2716 -0.2811
15838SOL     OW54118   1.250   0.643   1.532 -0.0932  0.1029  0.1175
15838SOL    HW154119   1.176   0.612   1.584 -1.1624  2.8822  0.4345
15838SOL    HW254120   1.296   0.704   1.590  1.4048 -0.1645 -0.7201
15839SOL     OW54121   8.773   1.004   8.319 -0.7148  0.5322  0.2675
15839SOL    HW154122   8.823   0.971   8.393 -1.4843  2.0952  1.5457
15839SOL    HW254123   8.822   1.081   8.290 -1.0324  0.5853 -0.1292
15840SOL     OW54124   3.327   7.871   5.318  0.4744 -0.1495  0.2936
15840SOL    HW154125   3.296   7.845   5.231  0.6203  0.7612 -0.0426
15840SOL    HW254126   3.278   7.951   5.338  0.4261 -0.3624  1.0698
15841SOL     OW54127   2.929  11.602   5.883 -0.5952  0.1430 -0.2507
15841SOL    HW154128   2.845  11.556   5.878 -0.7892  0.3773  0.6282
15841SOL    HW254129   2.992  11.535   5.910 -0.4514 -0.0816 -1.1279
15842SOL     OW54130  10.625   8.693   5.920 -0.0275  0.2813  0.2912
15842SOL    HW154131  10.601   8.601   5.931 -0.2854  0.3351  0.2094
15842SOL    HW254132  10.546   8.741   5.945  0.1364  0.4835  0.4213
15843SOL     OW54133   7.568   7.980   5.857  0.2706  0.0427  0.3010
15843SOL    HW154134   7.571   8.054   5.797  0.1007 -0.8568 -0.8417
15843SOL    HW254135   7.571   8.020   5.944  1.9632  1.3147 -0.2796
15844SOL     OW54136   1.960   7.865  12.721 -0.0630  0.6009 -0.6045
15844SOL    HW154137   1.962   7.960  12.726  0.3712  0.5498  0.5018
15844SOL    HW254138   1.903   7.838  12.793  0.6499 -0.0025 -0.2477
15845SOL     OW54139   5.935   8.272   1.914 -0.3788 -0.2159  0.0454
15845SOL    HW154140   5.999   8.296   1.847 -1.3173  1.5728 -0.2741
15845SOL    HW254141   5.879   8.208   1.871 -0.4696  0.2943 -0.6143
15846SOL     OW54142  10.345  12.301   7.561 -0.1972  0.0092 -0.6237
15846SOL    HW154143  10.422  12.305   7.618 -0.5348 -1.4743 -0.0349
15846SOL    HW254144  10.374  12.249   7.486 -0.5540 -0.3675 -0.5039
15847SOL     OW54145   9.406   1.849   6.578 -0.1364 -0.3211 -0.7358
15847SOL    HW154146   9.356   1.867   6.658  0.3197 -0.2162 -0.4651
15847SOL    HW254147   9.472   1.785   6.605 -0.1255 -0.4591 -1.0841
15848SOL     OW54148   3.346   5.564   2.364 -0.0588  0.1098  0.2355
15848SOL    HW154149   3.268   5.587   2.314 -0.0082 -0.5595 -0.1619
15848SOL    HW254150   3.313   5.519   2.442 -0.0909  0.2322  0.2923
15849SOL     OW54151  10.844   8.057  11.856 -0.3130 -0.1329  0.0341
15849SOL    HW154152  10.856   8.143  11.814 -0.5250  1.0506  2.2634
15849SOL    HW254153  10.778   8.014  11.802 -1.1763  1.6340 -0.3991
15850SOL     OW54154  10.289  12.112  11.541  0.5148 -0.0026  0.1550
15850SOL    HW154155  10.230  12.147  11.607 -0.5302 -0.1616 -0.6599
15850SOL    HW254156  10.319  12.189  11.492 -0.0258 -0.0270 -0.2256
15851SOL     OW54157   6.214   8.310   0.405  0.0778  0.5999 -0.2067
15851SOL    HW154158   6.261   8.330   0.486 -1.3923  3.1033  0.1134
15851SOL    HW254159   6.275   8.333   0.335  1.0030 -0.6657  0.1488
15852SOL     OW54160  10.659   4.710   9.842 -0.0568  0.0025 -0.4764
15852SOL    HW154161  10.681   4.681   9.754 -0.7447  0.3055 -0.7552
15852SOL    HW254162  10.694   4.642   9.899 -0.8731 -0.9450 -1.0641
15853SOL     OW54163   3.129  10.689   0.666 -0.4327 -0.5349 -0.2632
15853SOL    HW154164   3.098  10.634   0.594  0.7911  1.5053 -2.4805
15853SOL    HW254165   3.223  10.672   0.671 -0.1824  0.6973 -0.4269
15854SOL     OW54166   8.840   9.216  11.031 -0.4550 -0.3231 -0.3727
15854SOL    HW154167   8.806   9.305  11.031 -1.0516 -0.4568  2.2185
15854SOL    HW254168   8.935   9.227  11.032 -0.4941  0.4451  2.2630
15855SOL     OW54169   2.888  12.472   8.021  0.0956 -0.2213 -0.1039
15855SOL    HW154170   2.908  12.464   7.928  0.8177 -0.3834  0.0590
15855SOL    HW254171   2.858  12.385   8.047 -0.6585 -0.0293 -0.3035
15856SOL     OW54172   3.740   2.280   0.780 -0.3636 -0.1977 -0.3352
15856SOL    HW154173   3.683   2.293   0.856 -0.0467 -0.4339 -0.0556
15856SOL    HW254174   3.759   2.186   0.780 -3.4978 -1.0105 -2.9644
15857SOL     OW54175   0.150   1.031   6.300 -0.0765 -0.4432  0.2074
15857SOL    HW154176   0.088   0.959   6.287  0.4646 -0.9793  0.5287
15857SOL    HW254177   0.160   1.035   6.396 -0.4369  0.3502  0.2164
15858SOL     OW54178  11.442   7.866   2.440 -0.1780  0.5164  0.7750
15858SOL    HW154179  11.454   7.952   2.480 -0.0147  0.5549  0.6463
15858SOL    HW254180  11.410   7.886   2.352  1.3442  0.5109  0.1834
15859SOL     OW54181   5.266  11.553  10.806  0.2770  0.6306  0.0059
15859SOL    HW154182   5.249  11.510  10.890 -2.2016  0.6404 -0.4093
15859SOL    HW254183   5.186  11.538  10.755  1.6806  0.6890 -2.3439
15860SOL     OW54184   6.126  12.761   7.225  0.2914  0.2347  0.0078
15860SOL    HW154185   6.172  12.745   7.143 -2.1062  2.7877 -2.0060
15860SOL    HW254186   6.169  12.837   7.263  0.2227  0.1805  0.1960
15861SOL     OW54187  12.738   5.969   7.017  0.5462  0.0962 -0.1479
15861SOL    HW154188  12.685   6.040   7.054  1.0050  0.3792 -0.0264
15861SOL    HW254189  12.695   5.889   7.048  0.5756  0.3285  0.5035
15862SOL     OW54190   5.521   1.265  11.665 -0.8927  0.2147 -0.3993
15862SOL    HW154191   5.544   1.187  11.716 -1.5260 -0.2938 -0.8769
15862SOL    HW254192   5.598   1.281  11.610 -0.7379 -0.0425 -0.2592
15863SOL     OW54193   8.321  12.285   5.910 -0.2420 -0.7201 -0.2099
15863SOL    HW154194   8.372  12.222   5.961  1.2977  1.9286  1.7704
15863SOL    HW254195   8.358  12.280   5.822  1.4358 -1.0023  0.4698
15864SOL     OW54196   4.498   5.886   3.677  0.6072 -0.4069  0.0385
15864SOL    HW154197   4.455   5.948   3.735  2.1743 -0.6308  1.5304
15864SOL    HW254198   4.480   5.800   3.716 -0.0937 -0.7705 -1.0323
15865SOL     OW54199   7.826   7.568  11.257  0.0561  0.1659 -0.1970
15865SOL    HW154200   7.774   7.642  11.291 -1.4609 -0.7492 -0.4298
15865SOL    HW254201   7.845   7.593  11.166 -0.5447  0.2498 -0.3111
15866SOL     OW54202   4.978   0.110   5.313 -0.5975  0.0155  0.1289
15866SOL    HW154203   4.937   0.159   5.241 -2.7435 -0.7546  0.7472
15866SOL    HW254204   4.960   0.019   5.292 -0.5514 -0.2605  1.2604
15867SOL     OW54205   8.669  10.317  12.020  0.6868 -0.0157  0.3949
15867SOL    HW154206   8.698  10.251  12.084 -0.5182  0.0194  1.0129
15867SOL    HW254207   8.602  10.366  12.067  0.6975  0.8512 -0.4907
15868SOL     OW54208  12.750  10.392  10.234  0.1907 -0.2442 -0.8500
15868SOL    HW154209  12.694  10.339  10.177 -2.4673 -0.5214  1.7365
15868SOL    HW254210  12.701  10.473  10.248 -0.1069 -0.7974  2.1053
15869SOL     OW54211   3.971   9.041   5.184 -0.1435  0.3649 -0.7729
15869SOL    HW154212   3.885   9.071   5.154  0.2595  1.1788 -1.1380
15869SOL    HW254213   3.962   8.946   5.191 -1.1853  0.4754 -0.4321
15870SOL     OW54214   3.953   9.869  12.765 -0.3476 -0.5310 -0.6213
15870SOL    HW154215   3.997   9.806  12.708 -2.5489 -0.5692 -2.4232
15870SOL    HW254216   3.986   9.955  12.736 -0.6706 -0.6077 -1.2074
15871SOL     OW54217  11.665   1.735   3.354  0.8204  0.2224 -0.5325
15871SOL    HW154218  11.738   1.796   3.363  1.4033 -0.6965  1.5141
15871SOL    HW254219  11.648   1.733   3.260  2.1300  1.9417 -0.8663
15872SOL     OW54220   4.823   5.482   0.611 -0.0444 -0.0712  0.2967
15872SOL    HW154221   4.814   5.496   0.516  2.3220 -0.9230 -0.1223
15872SOL    HW254222   4.897   5.538   0.636 -0.6333  0.1364  1.6716
15873SOL     OW54223   0.704   8.445   6.910  0.3611 -0.0839 -0.3053
15873SOL    HW154224   0.707   8.491   6.993  0.3573  0.5349 -0.6433
15873SOL    HW254225   0.624   8.392   6.915 -0.4565  1.0866 -0.4965
15874SOL     OW54226   4.969   7.322   9.457 -0.4873  0.0340  0.3443
15874SOL    HW154227   4.917   7.402   9.444  0.4559  0.7753  0.9554
15874SOL    HW254228   4.933   7.283   9.536 -1.0213 -0.2071 -0.0139
15875SOL     OW54229   7.048   3.414   3.068  0.3942 -0.4234 -0.5460
15875SOL    HW154230   7.006   3.486   3.115  0.6292  0.5827 -1.8374
15875SOL    HW254231   7.085   3.454   2.990  0.7680 -1.9022 -1.1624
15876SOL     OW54232  11.994   8.516   9.224 -0.0789  0.1576 -0.2534
15876SOL    HW154233  11.927   8.471   9.275 -0.2373 -0.7486 -1.2062
15876SOL    HW254234  12.031   8.447   9.168  0.1660  1.0778 -1.2632
15877SOL     OW54235   7.097   2.293   9.629 -0.3303  0.8218  0.0103
15877SOL    HW154236   7.093   2.200   9.607  1.3960  1.2140 -2.4124
15877SOL    HW254237   7.189   2.316   9.619 -1.0262  3.2403 -1.7490
15878SOL     OW54238   3.104   3.235   1.937  0.8966  0.5839 -0.0641
15878SOL    HW154239   3.152   3.152   1.940  1.3916  0.8105 -1.1337
15878SOL    HW254240   3.167   3.300   1.965  1.1076  0.8300 -1.0699
15879SOL     OW54241   0.124   2.549   2.910 -0.1465 -0.2448  0.2515
15879SOL    HW154242   0.196   2.572   2.969  0.4582  1.1975 -0.9820
15879SOL    HW254243   0.161   2.480   2.854  0.0085 -0.0533  0.1192
15880SOL     OW54244  12.040   0.772   9.562 -0.3614 -0.5514  0.5315
15880SOL    HW154245  12.039   0.854   9.513  1.5959  0.6034  2.2832
15880SOL    HW254246  12.096   0.790   9.638  0.9271 -3.7595  0.5031
15881SOL     OW54247   3.090  11.640  11.787 -0.3440  0.2967 -0.4052
15881SOL    HW154248   3.025  11.626  11.856  2.0888 -1.4998  1.7131
15881SOL    HW254249   3.153  11.700  11.824  0.8667 -0.4640 -1.1554
15882SOL     OW54250  10.186   9.325   6.846 -0.7692  0.5219  0.1282
15882SOL    HW154251  10.217   9.372   6.768 -1.2426  1.9232  0.7579
15882SOL    HW254252  10.253   9.341   6.912 -1.7724  1.8434  0.8758
15883SOL     OW54253   6.666   4.102   1.870  0.1526 -0.2138 -0.2186
15883SOL    HW154254   6.672   4.109   1.965  2.5068  0.7687 -0.3825
15883SOL    HW254255   6.620   4.182   1.843  0.3861  0.0010  0.0214
15884SOL     OW54256   0.807  10.276   9.623 -0.3134 -0.0585 -0.2793
15884SOL    HW154257   0.756  10.353   9.598  2.5262  0.9351 -3.7810
15884SOL    HW254258   0.785  10.210   9.558 -0.3601 -1.1758  0.8236
15885SOL     OW54259   2.961  10.625  12.128 -0.2295  0.0275 -0.2997
15885SOL    HW154260   2.900  10.566  12.173  1.3120 -1.2173  0.2355
15885SOL    HW254261   2.961  10.594  12.037  0.4840 -0.7255 -0.0458
15886SOL     OW54262   6.760  12.436   1.941  0.4667 -0.5377 -0.2015
15886SOL    HW154263   6.830  12.384   1.900  1.3722  0.4010  0.1217
15886SOL    HW254264   6.685  12.423   1.884  1.4236 -0.0658 -1.6090
15887SOL     OW54265   9.240   4.626   3.688  0.0824  0.4489  1.2140
15887SOL    HW154266   9.164   4.643   3.743 -0.0235  0.4337  1.0717
15887SOL    HW254267   9.298   4.573   3.744 -0.0740  0.3384  1.2735
15888SOL     OW54268   5.535   2.141   8.344  0.0217  0.6103 -0.0960
15888SOL    HW154269   5.588   2.111   8.270  0.5936  1.9091 -0.2299
15888SOL    HW254270   5.599   2.167   8.411 -0.4845 -0.4360  0.8391
15889SOL     OW54271   6.744  10.566   4.443 -0.2243  0.1032 -0.2133
15889SOL    HW154272   6.760  10.657   4.469  1.1114 -0.1915  0.0716
15889SOL    HW254273   6.806  10.550   4.372 -0.0098 -0.7584  0.1491
15890SOL     OW54274   7.588   6.515   9.442  0.6150 -0.1038  0.0454
15890SOL    HW154275   7.609   6.591   9.496  0.0801  0.7062 -0.8516
15890SOL    HW254276   7.492   6.512   9.442  0.6311 -1.4198  0.9201
15891SOL     OW54277   6.553  10.768   3.323 -0.1888 -0.3208 -0.0608
15891SOL    HW154278   6.472  10.755   3.372 -0.1256 -0.3852  0.0286
15891SOL    HW254279   6.579  10.858   3.343 -0.5283 -0.1198 -0.5287
15892SOL     OW54280   6.735  10.530   3.390  0.0926 -0.5445  0.3678
15892SOL    HW154281   6.681  10.607   3.369 -0.9578 -1.2593  0.3486
15892SOL    HW254282   6.816  10.545   3.342 -0.5979 -0.0594 -0.7033
15893SOL     OW54283   1.039   9.946   7.488 -0.8436  0.1295 -0.3239
15893SOL    HW154284   1.098   9.911   7.422 -2.8374  0.5471 -2.4484
15893SOL    HW254285   1.057  10.040   7.490  0.6430 -0.1347  1.3258
15894SOL     OW54286   8.906   5.864   9.659  0.0405  0.1400 -0.5301
15894SOL    HW154287   8.972   5.795   9.660 -1.3674 -1.2743  0.3443
15894SOL    HW254288   8.956   5.946   9.656  1.8457 -0.8419  0.8374
15895SOL     OW54289   9.038   3.721   0.480 -0.3536  0.5988 -0.1325
15895SOL    HW154290   8.956   3.768   0.462 -0.5920  0.3260  0.2211
15895SOL    HW254291   9.031   3.640   0.429 -1.5718 -0.7567  1.9977
15896SOL     OW54292   9.868   7.390   4.579 -0.0302 -0.1151  0.3024
15896SOL    HW154293   9.941   7.361   4.524 -0.6724  0.2107 -0.7316
15896SOL    HW254294   9.902   7.467   4.624 -0.0140  0.5557 -0.8390
15897SOL     OW54295   3.191   9.590   9.332 -0.3675 -0.3967 -0.0139
15897SOL    HW154296   3.207   9.525   9.400  0.3160 -0.6299 -0.3866
15897SOL    HW254297   3.202   9.542   9.250  0.0563  0.1620 -0.2931
15898SOL     OW54298   8.378   6.344  11.255  0.0252  0.2481  0.6681
15898SOL    HW154299   8.419   6.297  11.183 -2.1782  1.4327 -1.5255
15898SOL    HW254300   8.287   6.313  11.256 -0.7939  2.4205  0.8776
15899SOL     OW54301   7.893   5.761   4.189 -0.3014  0.0453 -0.2268
15899SOL    HW154302   7.874   5.838   4.242  0.1534 -1.0145  1.5627
15899SOL    HW254303   7.910   5.796   4.101 -1.1028  1.8596  0.2880
15900SOL     OW54304   1.362   5.946   0.759 -0.6215 -0.0735 -0.1408
15900SOL    HW154305   1.386   5.870   0.813 -1.6154 -0.5207 -0.2997
15900SOL    HW254306   1.334   6.012   0.822 -0.1718  0.0126 -0.0259
15901SOL     OW54307  10.333   3.173   9.119  0.1440  0.2945  0.4249
15901SOL    HW154308  10.299   3.244   9.173  0.3524 -0.7548  1.9936
15901SOL    HW254309  10.279   3.097   9.142  0.1794 -0.1819 -0.9349
15902SOL     OW54310   0.082   9.713  11.352 -0.0753  0.2118 -0.3279
15902SOL    HW154311   0.159   9.756  11.390 -0.1587 -0.5190  0.7207
15902SOL    HW254312   0.119   9.650  11.290  0.1633  0.1221 -0.1021
15903SOL     OW54313   5.621   1.777   2.493 -0.1032  0.1156 -0.4727
15903SOL    HW154314   5.645   1.697   2.447  0.6246  0.4260 -0.6561
15903SOL    HW254315   5.683   1.843   2.461  0.2910  0.3863  0.7802
15904SOL     OW54316   4.040   5.684   1.353  0.3258 -0.5100 -0.5242
15904SOL    HW154317   4.115   5.625   1.355 -0.4196 -1.4579  0.1803
15904SOL    HW254318   4.050   5.733   1.272  1.1901 -1.3067 -0.9111
15905SOL     OW54319   8.577   6.746  12.048  0.2607  0.0486  0.0882
15905SOL    HW154320   8.516   6.705  12.109  0.3450  0.9975  0.8177
15905SOL    HW254321   8.535   6.735  11.962  0.5960 -2.1489  0.1387
15906SOL     OW54322   4.981   7.108  11.321 -0.1299  0.5020 -0.0197
15906SOL    HW154323   4.901   7.062  11.294 -0.2836  0.8777 -0.2119
15906SOL    HW254324   4.990   7.180  11.258  0.6075  0.1993 -0.2661
15907SOL     OW54325   2.295   6.033   4.694  0.3734  0.8628 -0.2168
15907SOL    HW154326   2.294   5.939   4.712  1.2984  1.0934  1.2049
15907SOL    HW254327   2.320   6.039   4.602  1.5193 -0.2811 -0.0124
15908SOL     OW54328  10.646  12.222   4.504 -0.2408  0.2625 -1.1040
15908SOL    HW154329  10.697  12.246   4.581  0.5678  1.9631 -2.1109
15908SOL    HW254330  10.656  12.127   4.497  1.5313  0.3587 -0.3884
15909SOL     OW54331   2.621  11.044   8.899  0.2385 -0.0259 -0.4985
15909SOL    HW154332   2.681  11.109   8.935  0.3672  0.8645 -2.1967
15909SOL    HW254333   2.582  11.087   8.822  0.4341 -1.9715 -1.7679
15910SOL     OW54334   4.811   4.740   4.376 -0.2270 -0.1830  0.2522
15910SOL    HW154335   4.744   4.782   4.430 -0.6617  0.1232 -0.5098
15910SOL    HW254336   4.812   4.649   4.406 -1.0703 -0.2195  0.1930
15911SOL     OW54337   5.191   4.256  12.371 -0.4434 -0.7979 -0.3913
15911SOL    HW154338   5.249   4.289  12.439 -0.5922 -0.4943 -0.4116
15911SOL    HW254339   5.175   4.331  12.313 -0.5617 -0.9725 -0.5902
15912SOL     OW54340   2.994   2.926   1.038 -0.1229  0.2400 -0.1883
15912SOL    HW154341   2.935   2.852   1.053  0.5283 -0.1248  0.6883
15912SOL    HW254342   3.046   2.900   0.962  0.8890 -0.7460  0.7953
15913SOL     OW54343   4.976   5.567   5.093  0.3988  0.2617  0.4983
15913SOL    HW154344   4.923   5.494   5.061 -1.5376  2.0187 -0.4678
15913SOL    HW254345   4.935   5.592   5.176 -1.2285  2.4294 -0.8446
15914SOL     OW54346   5.290   8.083   3.106  0.6976 -0.0114  0.0121
15914SOL    HW154347   5.284   8.025   3.031 -0.0603 -0.4508  0.4056
15914SOL    HW254348   5.199   8.099   3.132  0.8247  1.9594 -0.5459
15915SOL     OW54349   4.848  10.084   4.538  0.0956  0.2896 -0.0464
15915SOL    HW154350   4.792  10.007   4.537 -0.4625  0.6942 -0.5352
15915SOL    HW254351   4.856  10.110   4.446  0.4714  0.6795  0.0884
15916SOL     OW54352   9.699  10.133   9.138 -0.8111 -0.1387  0.1032
15916SOL    HW154353   9.787  10.156   9.109 -0.2650 -0.8137  1.1761
15916SOL    HW254354   9.680  10.050   9.094  0.4087 -1.6779  2.3072
15917SOL     OW54355   8.869   1.422   5.397 -0.3124  0.5413 -0.2620
15917SOL    HW154356   8.819   1.344   5.376 -0.4722  0.7396 -0.6258
15917SOL    HW254357   8.950   1.389   5.437 -0.5156  0.2065 -0.1240
15918SOL     OW54358  11.407  10.942  11.944  0.4297 -0.0170 -0.0142
15918SOL    HW154359  11.480  10.950  12.006  0.7216 -1.6583 -0.0916
15918SOL    HW254360  11.443  10.890  11.872 -0.8565 -1.0600  0.0491
15919SOL     OW54361   9.188   2.380  10.281 -0.0798 -0.4026 -0.5262
15919SOL    HW154362   9.117   2.373  10.346 -0.2832 -1.1645 -0.8114
15919SOL    HW254363   9.265   2.345  10.326 -0.8834 -4.0119 -1.6304
15920SOL     OW54364  12.142   1.261   1.878 -0.5515  0.0014  0.1301
15920SOL    HW154365  12.109   1.350   1.864  0.1312  0.3342  0.6046
15920SOL    HW254366  12.211   1.271   1.944 -0.1656 -0.8189 -0.1395
15921SOL     OW54367   5.503   3.325   0.007 -0.0138  0.0929  0.1153
15921SOL    HW154368   5.467   3.296  -0.077 -1.1474 -0.8500  0.8898
15921SOL    HW254369   5.519   3.418  -0.005 -2.2284  0.4577 -0.4903
15922SOL     OW54370   2.132   0.623   5.669 -0.3263  0.2549  0.4397
15922SOL    HW154371   2.075   0.582   5.604 -0.3466 -1.6854  1.6287
15922SOL    HW254372   2.123   0.569   5.747  2.4721  0.3711  0.9441
15923SOL     OW54373   7.454   0.123   7.669  0.1227  0.3902  0.0362
15923SOL    HW154374   7.400   0.184   7.620  0.0952  0.4121  0.0926
15923SOL    HW254375   7.464   0.164   7.755 -1.4261 -0.5347  0.6910
15924SOL     OW54376   5.100   3.161  10.994  0.1263  0.3243 -0.2452
15924SOL    HW154377   5.042   3.192  10.925  0.6218  0.6366 -0.5320
15924SOL    HW254378   5.187   3.194  10.969  0.1990  1.0753  0.9140
15925SOL     OW54379   0.619   0.990   2.427 -0.0839 -0.1516  0.0126
15925SOL    HW154380   0.530   0.979   2.393 -0.3456 -0.3221  0.7410
15925SOL    HW254381   0.668   0.917   2.389 -0.9371 -1.7946  1.8541
15926SOL     OW54382   3.642   3.404   9.183  0.3988  0.3913 -0.0621
15926SOL    HW154383   3.556   3.438   9.208 -0.3990 -0.6360 -1.3017
15926SOL    HW254384   3.626   3.313   9.157  1.9574  0.0079  0.2134
15927SOL     OW54385   2.191   0.551  10.865 -0.4077  0.0401 -0.5690
15927SOL    HW154386   2.134   0.581  10.937 -2.4911  0.3110 -2.2366
15927SOL    HW254387   2.140   0.483  10.822  1.2201 -0.7881 -1.2521
15928SOL     OW54388  11.194   8.812  11.454 -0.5805  0.4368  0.0873
15928SOL    HW154389  11.150   8.847  11.377 -0.9644 -0.5825 -0.1643
15928SOL    HW254390  11.138   8.838  11.527 -1.1948 -0.1832 -0.1562
15929SOL     OW54391  10.735   2.008  10.854 -0.5190 -0.2765  0.3966
15929SOL    HW154392  10.810   2.013  10.795 -0.1742 -0.3339  0.8310
15929SOL    HW254393  10.740   1.920  10.891 -0.9192 -0.3541  0.2763
15930SOL     OW54394   0.154   4.393   0.541 -0.1528  0.5256 -0.0971
15930SOL    HW154395   0.066   4.407   0.508 -0.1339 -0.8072 -0.7775
15930SOL    HW254396   0.171   4.299   0.528  1.5431  0.8388 -0.4639
15931SOL     OW54397   1.231   0.498   1.875 -0.0231  0.1431 -0.0659
15931SOL    HW154398   1.169   0.553   1.924  1.0646 -0.3164  1.9468
15931SOL    HW254399   1.211   0.409   1.903  0.9757 -0.0839 -0.0590
15932SOL     OW54400   5.386   5.481   5.207 -0.0284 -0.5830  0.1367
15932SOL    HW154401   5.371   5.391   5.237 -3.8389 -0.0256  0.4964
15932SOL    HW254402   5.346   5.484   5.120  1.0114  0.5189 -0.3215
15933SOL     OW54403   8.987  11.273   4.478 -0.0458 -0.6588  0.0907
15933SOL    HW154404   8.927  11.221   4.531  2.7677 -3.2169  1.0569
15933SOL    HW254405   8.964  11.252   4.388 -0.1679 -2.2307  0.4544
15934SOL     OW54406   1.892   1.157   0.176 -0.0105 -0.3720 -0.0807
15934SOL    HW154407   1.944   1.101   0.119  0.2743  0.6078 -0.8094
15934SOL    HW254408   1.918   1.132   0.265  1.0239 -0.5304 -0.4162
15935SOL     OW54409  12.143  10.554  12.735 -0.1513 -0.0224 -0.2884
15935SOL    HW154410  12.165  10.504  12.814  1.9324  0.8979 -0.2080
15935SOL    HW254411  12.227  10.563  12.690 -1.1413  0.2963 -2.1377
15936SOL     OW54412   2.762   3.225   6.631 -0.3701  0.3079  0.2671
15936SOL    HW154413   2.813   3.176   6.566 -0.3266  1.6570 -0.7697
15936SOL    HW254414   2.682   3.250   6.585 -2.1187 -1.8589  1.8973
15937SOL     OW54415   1.810  10.133   8.189 -0.1908  0.1191 -0.0016
15937SOL    HW154416   1.847  10.201   8.246 -0.0557  0.4038 -0.4187
15937SOL    HW254417   1.873  10.126   8.117 -0.1797 -0.4914  0.0628
15938SOL     OW54418   5.998   7.733   9.307  0.3308 -0.0667  0.0160
15938SOL    HW154419   5.958   7.674   9.371  1.1033 -0.6396 -0.0222
15938SOL    HW254420   5.942   7.727   9.230 -0.6828  0.7231  0.6638
15939SOL     OW54421   9.798  10.216   2.833 -0.1092 -0.2176  0.0365
15939SOL    HW154422   9.874  10.265   2.865  0.0510 -0.1773 -0.4052
15939SOL    HW254423   9.826  10.125   2.833  0.4015 -0.0785 -1.3993
15940SOL     OW54424   7.798  12.605   6.953 -0.0156  0.0304 -0.7598
15940SOL    HW154425   7.757  12.580   7.035 -0.3432  1.7018 -0.3612
15940SOL    HW254426   7.839  12.525   6.920 -2.2365 -1.3206 -0.3885
15941SOL     OW54427   6.004   0.825   4.302 -0.1271 -0.5295 -0.0604
15941SOL    HW154428   6.046   0.854   4.221 -0.2073  0.3579  0.2039
15941SOL    HW254429   5.962   0.904   4.337 -0.1887 -0.9280  0.7868
15942SOL     OW54430   0.729   5.864  11.464  0.4330 -0.7004 -0.2440
15942SOL    HW154431   0.738   5.783  11.414  1.7418 -0.5161 -0.3430
15942SOL    HW254432   0.747   5.838  11.555  0.5192 -0.5846 -0.2270
15943SOL     OW54433  11.269   6.453  12.488 -0.3955  0.1368 -0.4582
15943SOL    HW154434  11.201   6.400  12.447  0.3386 -0.7836 -0.5131
15943SOL    HW254435  11.349   6.433  12.438  0.1422  0.3476  0.2939
15944SOL     OW54436   5.694  11.255   5.921 -0.1907 -0.8675  0.1724
15944SOL    HW154437   5.654  11.336   5.951  1.5386 -0.0239  0.3142
15944SOL    HW254438   5.783  11.279   5.896 -1.0093 -1.7702 -4.4274
15945SOL     OW54439   4.246   0.715   8.661 -0.7971  0.2793  0.0833
15945SOL    HW154440   4.169   0.765   8.685  0.0838  1.4214  0.6078
15945SOL    HW254441   4.301   0.776   8.613  0.6478  0.0791  1.4025
15946SOL     OW54442   9.307   9.871   1.765  0.0928  0.3675  0.1908
15946SOL    HW154443   9.252   9.825   1.702  0.1630  0.1015  0.3209
15946SOL    HW254444   9.366   9.804   1.799  1.8217  1.0493 -1.3516
15947SOL     OW54445   0.390   4.310   9.517  0.1937  0.1913  0.2400
15947SOL    HW154446   0.393   4.347   9.605  0.9952  1.7298 -0.4035
15947SOL    HW254447   0.369   4.384   9.461  2.0654 -0.2538 -1.1327
15948SOL     OW54448   3.014   5.957   0.726  0.3660 -0.6234 -0.3161
15948SOL    HW154449   2.947   5.891   0.710 -1.1891  0.9565 -0.6005
15948SOL    HW254450   3.014   6.011   0.647 -0.6306  1.5529  1.0940
15949SOL     OW54451   5.944   9.149  11.620  0.3429  0.1636 -0.4318
15949SOL    HW154452   5.979   9.225  11.667 -0.4755  0.6692 -0.6217
15949SOL    HW254453   5.943   9.079  11.685 -1.0415  0.9298  0.4262
15950SOL     OW54454   6.847   5.635  11.107  0.3495  0.4246 -0.2235
15950SOL    HW154455   6.895   5.555  11.089  0.1950  0.4510 -0.7825
15950SOL    HW254456   6.913   5.705  11.102 -0.1425  0.8481 -4.0552
15951SOL     OW54457   7.326   8.574   9.168 -0.0606 -0.1782  0.3025
15951SOL    HW154458   7.256   8.611   9.221 -0.7711 -1.7770  0.5400
15951SOL    HW254459   7.366   8.507   9.224 -0.7143 -1.7858 -1.0585
15952SOL     OW54460   9.260   6.815   2.813 -0.2559 -0.0554 -0.0617
15952SOL    HW154461   9.279   6.726   2.843  0.8186  0.3068  0.3769
15952SOL    HW254462   9.185   6.804   2.753  0.8617 -1.4689 -1.2900
15953SOL     OW54463  12.542  11.536   2.194  0.1775 -0.4192 -0.2341
15953SOL    HW154464  12.572  11.613   2.145 -2.5988 -0.1326 -1.7252
15953SOL    HW254465  12.478  11.571   2.256 -1.5652 -1.5044 -1.3320
15954SOL     OW54466   4.699   6.930   7.742 -0.0146 -0.0052  0.3229
15954SOL    HW154467   4.722   6.997   7.677  1.2410 -0.3634  0.3785
15954SOL    HW254468   4.766   6.938   7.809 -0.0627 -1.0872  0.5128
15955SOL     OW54469   0.129   0.633   0.320  0.6938 -0.0558 -0.4744
15955SOL    HW154470   0.067   0.680   0.265 -0.6209  0.2026  1.1515
15955SOL    HW254471   0.179   0.701   0.365  1.8373 -0.2637 -1.3909
15956SOL     OW54472   2.769  12.294  10.443 -0.7072 -0.7385  0.8696
15956SOL    HW154473   2.785  12.210  10.400 -0.0900 -0.9765  1.5500
15956SOL    HW254474   2.707  12.339  10.386  2.3692  0.2688 -2.0319
15957SOL     OW54475   5.618   0.710   3.608  0.1806  0.0109 -0.4173
15957SOL    HW154476   5.646   0.630   3.563 -0.2736  0.6352 -1.8946
15957SOL    HW254477   5.650   0.781   3.551 -0.3350  0.8474  0.3097
15958SOL     OW54478  10.955   7.693   2.719  0.2755  0.2231 -0.2413
15958SOL    HW154479  10.934   7.772   2.770 -0.5954 -0.5322  0.6066
15958SOL    HW254480  10.875   7.676   2.668  0.6508  0.1774 -0.8230
15959SOL     OW54481   1.915   9.791   2.559 -0.0520 -0.3487 -0.3695
15959SOL    HW154482   1.825   9.817   2.577  0.0734 -1.0281  1.5060
15959SOL    HW254483   1.913   9.754   2.471 -0.8403  2.9288 -1.8709
15960SOL     OW54484   9.568   6.175   7.479 -0.0808  0.0423  0.2928
15960SOL    HW154485   9.546   6.125   7.401 -0.4143  0.6944 -0.0454
15960SOL    HW254486   9.565   6.266   7.450  0.3486  0.2666  0.9295
15961SOL     OW54487   7.067   1.129   8.312  0.8461  0.3785  0.2609
15961SOL    HW154488   7.045   1.052   8.260 -0.3810  0.5899  0.4324
15961SOL    HW254489   6.987   1.182   8.311  1.9332  2.0837 -0.5848
15962SOL     OW54490   2.965   1.329  10.401 -0.0379  0.6269  0.1669
15962SOL    HW154491   2.921   1.294  10.479  0.6615  0.2524  0.4010
15962SOL    HW254492   2.895   1.368  10.349 -0.6258  0.1464  0.5932
15963SOL     OW54493   5.327   1.736   4.022 -0.3363 -0.1024 -0.5689
15963SOL    HW154494   5.350   1.668   3.959 -0.3891  0.7802 -1.5712
15963SOL    HW254495   5.269   1.795   3.973  0.3398  1.0866  0.0194
15964SOL     OW54496   0.473   3.198  12.210 -0.0324  0.0504  0.3370
15964SOL    HW154497   0.483   3.103  12.208  0.8142  0.1356  0.2582
15964SOL    HW254498   0.413   3.217  12.138  2.0608 -0.1841 -1.5903
15965SOL     OW54499   9.595   3.942  11.655  0.2754 -0.2515  0.1479
15965SOL    HW154500   9.561   4.004  11.591 -0.6068 -1.2474 -0.3905
15965SOL    HW254501   9.517   3.895  11.687  0.9777 -1.6385 -0.0796
15966SOL     OW54502   8.051  11.022   5.823 -0.3036 -0.3278  0.4191
15966SOL    HW154503   8.003  11.077   5.761  0.6702  0.4367  0.3047
15966SOL    HW254504   8.125  11.077   5.850 -1.7923  0.2010  3.9119
15967SOL     OW54505   7.538   4.814   8.378 -0.3297 -0.1219  0.2854
15967SOL    HW154506   7.578   4.844   8.296 -0.6174 -0.2000  0.1158
15967SOL    HW254507   7.569   4.724   8.388 -0.5709 -0.2301  0.0807
15968SOL     OW54508   7.751   1.049   3.674  0.3925 -0.1299 -0.2139
15968SOL    HW154509   7.774   0.964   3.711  1.4618 -0.2234 -1.0202
15968SOL    HW254510   7.665   1.069   3.710  1.1975 -0.3761  1.9752
15969SOL     OW54511  10.125   2.712  11.249 -0.1374 -0.1541  0.5453
15969SOL    HW154512  10.144   2.767  11.173 -0.1739  0.0624  0.6912
15969SOL    HW254513  10.080   2.771  11.310  0.2534 -0.2164  0.8973
15970SOL     OW54514  11.450   0.203  11.055  0.6193 -0.1279  0.4750
15970SOL    HW154515  11.468   0.285  11.102  0.4131  0.0930  0.1774
15970SOL    HW254516  11.466   0.225  10.963  0.3470 -0.3615  0.3714
15971SOL     OW54517   9.775  10.453   7.768  0.1383 -0.1140 -0.3015
15971SOL    HW154518   9.810  10.389   7.707  1.0414  0.2728 -0.2066
15971SOL    HW254519   9.680  10.437   7.769  0.4696 -2.3772  0.8122
15972SOL     OW54520   8.558   2.119  12.023  0.8298 -0.4810 -0.0928
15972SOL    HW154521   8.624   2.112  12.091  1.1749  1.7203 -0.1549
15972SOL    HW254522   8.518   2.205  12.035 -0.7901 -1.0169 -1.1745
15973SOL     OW54523  10.031   4.685   3.780 -0.1776 -0.1222  0.0928
15973SOL    HW154524   9.960   4.621   3.789 -0.6241  0.4772  1.0852
15973SOL    HW254525  10.011   4.734   3.700 -1.4897  0.7270  0.9017
15974SOL     OW54526   0.553  11.472   5.410 -0.1705  0.2740 -0.2826
15974SOL    HW154527   0.559  11.444   5.318 -0.4718  2.2529 -0.9597
15974SOL    HW254528   0.533  11.392   5.458 -1.7825 -0.5583 -2.1809
15975SOL     OW54529   3.328   0.333   5.768  0.0054 -0.2163 -0.2964
15975SOL    HW154530   3.260   0.266   5.773  1.9506 -2.2838  0.2758
15975SOL    HW254531   3.360   0.341   5.857 -0.4742  1.8974 -0.2581
15976SOL     OW54532   1.653   4.429   1.245  0.0947  0.4427 -0.7238
15976SOL    HW154533   1.673   4.523   1.246 -0.0112  0.4944  1.4896
15976SOL    HW254534   1.653   4.406   1.153  0.1585  2.6165 -1.3325
15977SOL     OW54535   6.577   5.899   5.803 -0.1116  0.1209 -0.0867
15977SOL    HW154536   6.563   5.894   5.708  0.1056 -2.3305 -0.0413
15977SOL    HW254537   6.489   5.903   5.840 -0.2087  0.6164 -0.3601
15978SOL     OW54538   1.210   6.762  12.581  0.0775 -0.1024  0.2814
15978SOL    HW154539   1.294   6.806  12.592 -0.3118  0.3308  1.7818
15978SOL    HW254540   1.232   6.672  12.558  1.0007 -0.3998  2.2124
15979SOL     OW54541   0.574   1.847   9.906  0.1162  0.3082  0.2823
15979SOL    HW154542   0.566   1.860  10.001 -2.5180 -0.3629  0.2187
15979SOL    HW254543   0.569   1.753   9.894 -0.0680  0.4190 -0.5566
15980SOL     OW54544   4.106  12.476   3.494  0.1002  0.5255 -0.0116
15980SOL    HW154545   4.122  12.563   3.529 -1.3600  1.2366 -1.0237
15980SOL    HW254546   4.125  12.417   3.567 -1.1190  1.8352  1.4458
15981SOL     OW54547   7.639   2.666   4.048  0.0412  0.5068 -0.0045
15981SOL    HW154548   7.591   2.701   4.124  0.8406  1.1920  0.1930
15981SOL    HW254549   7.731   2.674   4.072  0.2835  0.0416 -0.7557
15982SOL     OW54550   7.501   8.313  10.050 -0.2391  0.3478  0.0956
15982SOL    HW154551   7.508   8.407  10.035  0.2476  0.6968  2.2038
15982SOL    HW254552   7.591   8.280  10.044 -0.5798 -0.3437 -2.3602
15983SOL     OW54553   2.743   3.115   3.614 -0.5567 -0.2781  0.8409
15983SOL    HW154554   2.821   3.070   3.582 -0.3673  0.9018 -0.4356
15983SOL    HW254555   2.775   3.200   3.646 -1.3754  0.5439 -0.4194
15984SOL     OW54556   4.722   0.428   5.726  0.4355  0.5701  0.0161
15984SOL    HW154557   4.629   0.440   5.706  0.1708  2.2323  1.9393
15984SOL    HW254558   4.768   0.451   5.645 -0.7564  1.6517 -0.3700
15985SOL     OW54559  12.539  11.402   1.559  0.0182  0.3247 -0.0130
15985SOL    HW154560  12.495  11.441   1.483  0.7662  0.5469 -0.3433
15985SOL    HW254561  12.547  11.473   1.621  3.0286  1.2813 -1.3266
15986SOL     OW54562  11.857   3.647  11.077 -0.0814 -0.1273  0.2807
15986SOL    HW154563  11.884   3.736  11.097  0.4406  0.0370 -1.0391
15986SOL    HW254564  11.798   3.655  11.002 -0.2979 -0.8586  0.3601
15987SOL     OW54565   8.198   2.702  10.013 -0.5219 -0.1986  0.5018
15987SOL    HW154566   8.144   2.729   9.939  2.9573  2.5531 -1.3605
15987SOL    HW254567   8.152   2.627  10.051 -4.3427  0.5295 -2.1776
15988SOL     OW54568   6.097   7.020   7.567 -0.1426 -0.2465 -0.0512
15988SOL    HW154569   6.127   7.050   7.652 -0.3128  0.7619 -0.3279
15988SOL    HW254570   6.155   7.064   7.504  1.1164 -2.3246 -0.4230
15989SOL     OW54571   9.508  10.845   3.615 -0.1550  0.9757 -0.4824
15989SOL    HW154572   9.467  10.841   3.702 -0.8802  1.1071 -0.8038
15989SOL    HW254573   9.543  10.934   3.609 -1.1903  1.3909 -0.7752
15990SOL     OW54574   2.586   4.413   6.074  0.4038  0.8911  0.1828
15990SOL    HW154575   2.561   4.381   5.988 -0.7393  0.6657  0.5836
15990SOL    HW254576   2.506   4.451   6.110  0.6681  0.3271  1.4371
15991SOL     OW54577   8.983   3.654   9.017 -0.5464 -0.6966  0.3368
15991SOL    HW154578   8.970   3.612   9.102  0.4988  1.5963  1.6944
15991SOL    HW254579   8.909   3.715   9.008  0.7419  1.0093  0.8906
15992SOL     OW54580   1.684   9.654   1.481  0.0031 -0.4966 -0.4293
15992SOL    HW154581   1.621   9.582   1.482 -0.3600 -0.1927 -0.7192
15992SOL    HW254582   1.767   9.614   1.454 -0.1117 -0.8684 -0.2335
15993SOL     OW54583  11.538   2.597   5.517 -0.0958 -0.3871 -0.1979
15993SOL    HW154584  11.549   2.654   5.441  1.3775 -0.8773 -0.3858
15993SOL    HW254585  11.514   2.512   5.481  2.6438 -1.1985 -0.3642
15994SOL     OW54586   7.983   0.752   0.655 -0.9396  0.1500 -0.1703
15994SOL    HW154587   7.966   0.660   0.675  0.0939 -0.1552 -0.6035
15994SOL    HW254588   8.051   0.778   0.718  1.2834 -0.4007 -2.1863
15995SOL     OW54589  11.552  11.126   7.053 -0.1269 -0.2560 -0.6059
15995SOL    HW154590  11.619  11.106   7.118 -0.7941 -1.3875 -0.2504
15995SOL    HW254591  11.473  11.083   7.084 -0.8457  0.4391 -1.4020
15996SOL     OW54592   5.664   4.114   1.404 -0.1781 -0.1126  0.3013
15996SOL    HW154593   5.736   4.056   1.379  0.8925  1.5198 -0.6204
15996SOL    HW254594   5.707   4.196   1.427 -1.8170  1.6147 -2.3570
15997SOL     OW54595   8.942  12.689   8.819 -0.4303 -0.1368 -0.5200
15997SOL    HW154596   8.987  12.664   8.900 -0.9268 -1.2923 -0.5865
15997SOL    HW254597   8.997  12.758   8.781  1.8352 -2.1617 -1.1045
15998SOL     OW54598   9.316  11.370  12.633 -0.3639 -0.2222  0.1788
15998SOL    HW154599   9.273  11.357  12.549 -0.5084  0.3667  0.1545
15998SOL    HW254600   9.372  11.447  12.620  2.0452 -1.9436 -0.3064
15999SOL     OW54601   4.653   3.341  11.577  0.0209  0.0169 -0.0173
15999SOL    HW154602   4.738   3.383  11.563  0.0919 -0.0497  0.2087
15999SOL    HW254603   4.597   3.377  11.509  0.0699  0.5139  0.1994
16000SOL     OW54604   4.782   1.657   8.292 -0.2878  0.5066 -0.3012
16000SOL    HW154605   4.750   1.746   8.273 -1.5138 -0.3164 -2.5525
16000SOL    HW254606   4.704   1.610   8.322 -0.6201 -0.7115 -2.7946
16001SOL     OW54607   9.472  12.482   4.131 -0.0740 -0.0922  0.0696
16001SOL    HW154608   9.518  12.455   4.210  1.5768 -0.8623 -1.1132
16001SOL    HW254609   9.474  12.578   4.134 -0.7957 -0.0881  1.3546
16002SOL     OW54610   2.511   8.551   7.841  0.3334 -0.2349 -0.0308
16002SOL    HW154611   2.492   8.620   7.777 -1.5941 -1.1657 -0.5443
16002SOL    HW254612   2.475   8.472   7.801  0.5487 -1.1376  1.5028
16003SOL     OW54613   2.644   5.891   4.067 -0.3004  0.0343  0.4339
16003SOL    HW154614   2.667   5.984   4.061 -2.8395  0.7033  0.3020
16003SOL    HW254615   2.580   5.886   4.137 -3.0292 -0.9501 -1.9367
16004SOL     OW54616   0.525   4.829   4.630 -0.2535  0.4619  0.3797
16004SOL    HW154617   0.435   4.826   4.598  0.5402 -0.9706 -1.9747
16004SOL    HW254618   0.561   4.910   4.593 -0.6666  1.3131  1.7609
16005SOL     OW54619   3.955   8.215   8.876  0.0844 -0.0149 -0.2293
16005SOL    HW154620   3.981   8.210   8.968  1.8071 -1.3669 -0.7346
16005SOL    HW254621   3.876   8.161   8.871 -1.5696  2.1308  0.8651
16006SOL     OW54622   0.275   1.752   8.037 -0.1734  0.1496 -0.1462
16006SOL    HW154623   0.262   1.842   8.005  0.6226  0.4086  0.2265
16006SOL    HW254624   0.360   1.755   8.081  0.3248 -1.0394 -1.0037
16007SOL     OW54625   6.155   2.436   2.541 -0.1934  0.0843  0.4067
16007SOL    HW154626   6.182   2.458   2.630 -0.1862  1.9014 -0.0152
16007SOL    HW254627   6.224   2.470   2.485 -2.5783  3.8173 -0.6122
16008SOL     OW54628   0.072   9.431   9.008  0.1108 -0.0637  0.1847
16008SOL    HW154629   0.105   9.456   9.094  0.1162  2.3244 -0.4375
16008SOL    HW254630   0.006   9.365   9.026  0.3922  0.0903  1.9836
16009SOL     OW54631   2.654   9.770   3.047 -0.4965  0.4019 -0.1490
16009SOL    HW154632   2.559   9.780   3.048 -0.6536 -0.8410  0.9553
16009SOL    HW254633   2.686   9.843   3.100 -0.7781  1.1081 -0.9279
16010SOL     OW54634   2.953   2.741   4.116  0.2066 -0.3959  0.1035
16010SOL    HW154635   3.032   2.736   4.169 -1.9125 -0.5011  3.5330
16010SOL    HW254636   2.915   2.653   4.123 -0.5702 -0.1667 -0.9878
16011SOL     OW54637   5.850  10.794  12.695  0.8779  0.2735  0.4703
16011SOL    HW154638   5.823  10.763  12.781 -0.3276 -0.6083 -0.1894
16011SOL    HW254639   5.933  10.751  12.678  1.5483  1.0976  1.5154
16012SOL     OW54640   3.874  10.544  10.469  0.1319 -0.2903 -0.4306
16012SOL    HW154641   3.830  10.618  10.428  1.9546 -0.5106 -2.9927
16012SOL    HW254642   3.910  10.580  10.550  0.8535  1.6245 -1.5314
16013SOL     OW54643   5.276  11.026   8.614  0.4030 -0.4132  0.2781
16013SOL    HW154644   5.304  11.061   8.699  0.9273  0.4130 -0.2267
16013SOL    HW254645   5.217  10.953   8.637  0.6139 -0.2695  1.3452
16014SOL     OW54646   5.381   9.968  12.318 -0.2031 -0.2231 -0.0769
16014SOL    HW154647   5.418   9.920  12.393 -0.5358 -2.0465 -1.0187
16014SOL    HW254648   5.320   9.906  12.278 -0.7030  1.0387 -1.3414
16015SOL     OW54649   9.866   9.542   6.898 -0.0835  0.4546  0.0043
16015SOL    HW154650   9.895   9.576   6.813  0.2054  0.7467  0.2181
16015SOL    HW254651   9.788   9.490   6.878  0.3011  0.0615 -0.5186
16016SOL     OW54652   6.979   7.584   5.698 -0.0791 -0.4009  0.6568
16016SOL    HW154653   7.044   7.633   5.748  1.3416 -1.2276 -0.3111
16016SOL    HW254654   6.912   7.649   5.675  0.8522  0.6735  0.9121
16017SOL     OW54655  12.082   0.261   5.724  0.2075 -0.0186  0.2722
16017SOL    HW154656  12.160   0.297   5.682 -0.4626  0.5866 -0.4900
16017SOL    HW254657  12.073   0.173   5.687 -0.7876  0.7672 -1.4682
16018SOL     OW54658   1.097   9.145   2.986 -0.4915 -0.2495  0.6386
16018SOL    HW154659   1.154   9.181   2.918 -1.7313 -0.0973 -0.3362
16018SOL    HW254660   1.055   9.070   2.946 -1.3023 -0.1168  1.2151
16019SOL     OW54661   1.136   4.233   5.954 -0.5587  0.1904  0.6486
16019SOL    HW154662   1.175   4.272   5.875  1.2172 -0.6127  1.0711
16019SOL    HW254663   1.051   4.201   5.925  0.7637 -1.7736 -1.5227
16020SOL     OW54664  10.597   9.895   4.308  0.0769 -0.1552 -0.1677
16020SOL    HW154665  10.590   9.980   4.352  2.0718  0.4546 -0.9318
16020SOL    HW254666  10.546   9.906   4.228 -0.2443  0.0828  0.0656
16021SOL     OW54667   2.665  11.713  10.008  0.6216  0.0828  0.9551
16021SOL    HW154668   2.599  11.644  10.018 -0.0669  0.8047  1.5294
16021SOL    HW254669   2.722  11.704  10.084  0.5339  0.1458  1.0281
16022SOL     OW54670   5.480   0.549   5.043 -0.1046  0.9807 -0.4640
16022SOL    HW154671   5.398   0.598   5.045 -0.2781  0.7115 -0.8881
16022SOL    HW254672   5.493   0.528   4.950  1.3462  2.5541 -0.6676
16023SOL     OW54673   5.184   1.001   5.696 -0.2905 -0.2213 -0.3361
16023SOL    HW154674   5.251   1.046   5.748  1.5654 -0.6508 -2.2093
16023SOL    HW254675   5.132   1.072   5.659  0.2251  0.2222 -0.2304
16024SOL     OW54676   7.354   8.450   7.445 -0.6493  0.1108  0.1728
16024SOL    HW154677   7.342   8.521   7.382 -1.3121 -0.7005 -0.6241
16024SOL    HW254678   7.276   8.454   7.501  0.8322  2.0959  2.2790
16025SOL     OW54679  11.871  11.126   0.239 -0.3657 -0.4894  0.6392
16025SOL    HW154680  11.966  11.126   0.247 -0.3335 -0.9499  0.2855
16025SOL    HW254681  11.849  11.039   0.204 -0.6450  0.6536 -2.3763
16026SOL     OW54682   3.651   5.371   7.311  0.0007 -0.1301  0.7308
16026SOL    HW154683   3.662   5.466   7.319 -1.4992  0.2003 -0.4777
16026SOL    HW254684   3.646   5.339   7.401 -0.4802  1.0919  1.1603
16027SOL     OW54685   8.608   3.574   1.152  0.0881 -0.5175 -0.3610
16027SOL    HW154686   8.544   3.645   1.159 -0.6900 -1.2152 -0.2627
16027SOL    HW254687   8.647   3.586   1.065  0.3289  0.3161 -0.1499
16028SOL     OW54688   4.675   4.702  11.124 -0.1147 -0.1681  0.5971
16028SOL    HW154689   4.631   4.777  11.083 -0.9431 -1.2732 -0.6101
16028SOL    HW254690   4.718   4.739  11.201 -1.8719  1.2676  0.9639
16029SOL     OW54691   1.834   9.231  11.684  0.3238 -0.2923 -0.2435
16029SOL    HW154692   1.876   9.217  11.599  0.8448  0.0718 -0.0475
16029SOL    HW254693   1.817   9.142  11.716  1.4506 -0.4737 -0.0825
16030SOL     OW54694  10.781   8.805   1.698 -0.6978  0.4076  0.1507
16030SOL    HW154695  10.815   8.719   1.724 -0.2210 -0.4182 -2.7753
16030SOL    HW254696  10.703   8.785   1.646 -0.0073  1.5959 -1.4513
16031SOL     OW54697   1.724   1.944  10.950 -0.3015 -0.2199  0.0037
16031SOL    HW154698   1.727   1.850  10.970 -0.0728 -0.0593  0.7643
16031SOL    HW254699   1.731   1.987  11.036 -1.1700  0.4901 -0.2705
16032SOL     OW54700   0.839   3.418   5.954  0.4048  0.4121 -0.0717
16032SOL    HW154701   0.792   3.436   5.873 -1.1529 -0.2814  0.6416
16032SOL    HW254702   0.890   3.497   5.970 -1.4595  1.7266 -0.2588
16033SOL     OW54703   1.169   7.265   1.420 -0.2444 -0.2537 -0.0041
16033SOL    HW154704   1.235   7.273   1.351 -1.6066 -1.2216 -1.4770
16033SOL    HW254705   1.143   7.173   1.417 -0.3595 -0.3106  1.8105
16034SOL     OW54706   2.776   5.136   2.393 -0.2119 -0.0319  0.1692
16034SOL    HW154707   2.815   5.120   2.308  0.4208  1.7077  0.1018
16034SOL    HW254708   2.778   5.231   2.404  0.5869 -0.2265  2.4957
16035SOL     OW54709   3.088   1.485   0.370  0.1812 -0.1783 -0.1210
16035SOL    HW154710   3.170   1.442   0.345  0.4129  0.8035 -1.1123
16035SOL    HW254711   3.031   1.473   0.293 -0.4206 -0.3715  0.3498
16036SOL     OW54712  11.207   1.320   4.845  0.1270 -0.0446  0.2615
16036SOL    HW154713  11.183   1.254   4.781  0.0362 -0.9257  1.1737
16036SOL    HW254714  11.124   1.345   4.886  0.3670 -0.8106  1.2591
16037SOL     OW54715   1.156   1.225   0.124  0.0542  0.1790  0.4298
16037SOL    HW154716   1.208   1.146   0.135  1.5357  1.2381  1.5194
16037SOL    HW254717   1.089   1.221   0.192  3.4487  2.2830  4.3257
16038SOL     OW54718   8.695   7.263   1.077  0.2686 -0.2318  0.2213
16038SOL    HW154719   8.675   7.199   1.145 -0.9676  0.2295  0.3178
16038SOL    HW254720   8.790   7.276   1.084  0.1762 -0.1729  1.8815
16039SOL     OW54721   9.479   9.948   2.345 -0.0536 -0.0619  0.2132
16039SOL    HW154722   9.491   9.861   2.385  0.7235  0.2671  0.7113
16039SOL    HW254723   9.539   9.948   2.271 -0.5916 -0.2170 -0.2238
16040SOL     OW54724   8.917   1.596  10.831  0.5333  0.0544 -0.8688
16040SOL    HW154725   8.902   1.502  10.826 -1.1034  0.3064 -1.2923
16040SOL    HW254726   8.978   1.614  10.759  2.2364 -0.8775  0.2628
16041SOL     OW54727  10.066   0.686   2.670  0.1511  0.2032  0.2211
16041SOL    HW154728  10.081   0.738   2.750 -0.1182  0.5884  0.0260
16041SOL    HW254729  10.111   0.604   2.686 -0.2916  0.0907  0.9706
16042SOL     OW54730   3.523   1.738   1.278 -0.1794  0.1331  0.0435
16042SOL    HW154731   3.541   1.646   1.256  0.2918  0.6286 -1.9016
16042SOL    HW254732   3.449   1.762   1.222  0.6181  1.2955 -0.5847
16043SOL     OW54733   9.099   0.977   6.930  0.4211  0.2451 -0.1274
16043SOL    HW154734   9.152   0.909   6.889 -1.0955 -1.2291  0.2470
16043SOL    HW254735   9.063   1.027   6.856 -0.1567 -0.7022 -0.4936
16044SOL     OW54736   1.717   2.990   4.411  0.2559 -0.5739 -0.1522
16044SOL    HW154737   1.703   3.044   4.334  3.0904  0.4200 -0.1085
16044SOL    HW254738   1.758   2.911   4.378  3.2128  0.6146  0.3317
16045SOL     OW54739   0.388   3.598   8.495  0.2554  0.3261  0.5463
16045SOL    HW154740   0.392   3.518   8.548 -0.3637 -0.5083 -0.6097
16045SOL    HW254741   0.377   3.669   8.558 -0.1973 -0.6096  1.5378
16046SOL     OW54742  12.613   6.709   1.766  0.2122  0.3748 -0.0986
16046SOL    HW154743  12.606   6.788   1.713 -0.7994 -0.3075 -1.0504
16046SOL    HW254744  12.656   6.645   1.709  0.7695  0.1538  0.5552
16047SOL     OW54745   5.454   1.462   4.694  0.0758 -0.3680 -0.3451
16047SOL    HW154746   5.392   1.488   4.626  0.3667  0.0478 -0.4555
16047SOL    HW254747   5.462   1.539   4.750  0.1074 -0.5895 -0.0412
16048SOL     OW54748   9.993   2.600   1.853 -0.5783  0.4771  0.1150
16048SOL    HW154749  10.027   2.669   1.910 -1.1264  0.6273  0.2722
16048SOL    HW254750  10.018   2.626   1.765  0.0116  0.4034  0.2571
16049SOL     OW54751   8.139  12.750   6.042  0.2623 -0.0621  0.0121
16049SOL    HW154752   8.114  12.789   6.126  1.3373  0.1908  0.2290
16049SOL    HW254753   8.093  12.666   6.040 -1.0713  0.6452  0.1104
16050SOL     OW54754  10.841   2.514   5.088  0.3204  0.0379 -0.0669
16050SOL    HW154755  10.884   2.517   5.174 -0.0858 -0.3357  0.1523
16050SOL    HW254756  10.812   2.423   5.079  1.5089 -0.2637 -1.1668
16051SOL     OW54757   0.491  11.431  11.579  0.1429 -0.5492  0.4645
16051SOL    HW154758   0.436  11.365  11.620 -1.0263  1.8915  3.0768
16051SOL    HW254759   0.538  11.472  11.651  1.0549  1.2914 -1.0801
16052SOL     OW54760   1.609   1.306   5.153  0.1314  0.4137  0.0031
16052SOL    HW154761   1.531   1.263   5.117  1.2794 -1.3018 -0.6209
16052SOL    HW254762   1.616   1.388   5.105 -1.5726  0.8660  0.4731
16053SOL     OW54763   6.926   3.077  10.776  0.1796 -0.3701  0.0502
16053SOL    HW154764   6.986   3.055  10.847  0.2983 -0.8697 -0.2033
16053SOL    HW254765   6.941   3.010  10.710 -2.0710 -1.7409  0.7921
16054SOL     OW54766   4.086   7.839   1.143  0.2030  0.5255  0.1550
16054SOL    HW154767   4.027   7.870   1.075  0.0977 -1.8353 -0.9367
16054SOL    HW254768   4.028   7.804   1.211  0.3334  0.6498  0.3321
16055SOL     OW54769   9.664   6.446   3.407  0.0430 -0.6875  0.1073
16055SOL    HW154770   9.663   6.378   3.474  0.0772 -1.0021 -0.2059
16055SOL    HW254771   9.714   6.407   3.335  0.0577 -0.3324 -0.0774
16056SOL     OW54772   7.409   1.109   9.854  0.4595 -0.2760  0.2460
16056SOL    HW154773   7.425   1.015   9.863 -0.1959 -0.4496 -0.3475
16056SOL    HW254774   7.491   1.145   9.820  0.4003 -0.7760 -0.4204
16057SOL     OW54775   0.397   3.380   7.084 -0.4501  0.2514  0.2920
16057SOL    HW154776   0.465   3.345   7.027 -1.1707 -1.3609  0.3629
16057SOL    HW254777   0.398   3.475   7.068  0.0404 -0.0451 -1.6416
16058SOL     OW54778   7.713   2.515   6.703 -0.4213  0.3579  0.0553
16058SOL    HW154779   7.788   2.552   6.751  0.5265 -0.6144 -0.6275
16058SOL    HW254780   7.699   2.576   6.631  1.7000 -0.9329 -1.5810
16059SOL     OW54781  12.580   3.443   7.299  0.3070  0.3601 -0.4955
16059SOL    HW154782  12.620   3.508   7.357  1.4196 -0.6684 -0.0847
16059SOL    HW254783  12.590   3.360   7.345  0.7889 -0.4135 -1.9372
16060SOL     OW54784   6.942   3.252   4.491 -0.0970  0.3782  0.0917
16060SOL    HW154785   6.887   3.219   4.562 -0.0430  0.2303  0.0643
16060SOL    HW254786   6.908   3.209   4.412 -0.2066  0.6014  0.0177
16061SOL     OW54787  10.314   1.767   5.403  0.0362  0.8225 -0.0903
16061SOL    HW154788  10.338   1.727   5.487  0.4659  0.5853 -0.3235
16061SOL    HW254789  10.300   1.859   5.424 -0.4392  0.6542  0.3514
16062SOL     OW54790   8.739   1.859   9.629  0.1858 -0.3655  0.1891
16062SOL    HW154791   8.703   1.902   9.707 -0.3456 -1.2163  0.4221
16062SOL    HW254792   8.816   1.912   9.606 -0.1182  0.3665  0.8080
16063SOL     OW54793   3.475  10.425   6.822 -0.1102  0.1205 -0.1134
16063SOL    HW154794   3.467  10.337   6.858 -0.8714  0.4352  0.5324
16063SOL    HW254795   3.448  10.416   6.730  3.1296 -0.9449 -1.0768
16064SOL     OW54796  10.998   2.459   7.310  0.2780  0.3626 -0.3779
16064SOL    HW154797  11.051   2.386   7.342 -0.2590  0.4388  0.7502
16064SOL    HW254798  10.988   2.443   7.217  1.4943 -0.1492 -0.4349
16065SOL     OW54799   4.394   0.421   6.263  0.0711  0.1732  0.1224
16065SOL    HW154800   4.462   0.475   6.223  0.0762 -0.7450 -1.1586
16065SOL    HW254801   4.406   0.334   6.225 -2.8591  0.3324 -1.5066
16066SOL     OW54802   3.541   9.681   5.203 -0.2329 -0.1252  0.0399
16066SOL    HW154803   3.517   9.772   5.188  0.3877 -0.0113 -0.2868
16066SOL    HW254804   3.458   9.636   5.218 -0.8054  0.0104 -2.3411
16067SOL     OW54805   1.559   7.622  11.285  0.1855 -0.3527 -0.0596
16067SOL    HW154806   1.521   7.602  11.199 -0.7862  0.2683  0.2002
16067SOL    HW254807   1.483   7.644  11.340  0.8841  0.3974  0.6348
16068SOL     OW54808   1.786   7.200  10.406  0.0504  0.6885 -0.0398
16068SOL    HW154809   1.732   7.121  10.417 -0.5899  0.9648 -1.1312
16068SOL    HW254810   1.796   7.210  10.312  1.0369  1.3182  0.1150
16069SOL     OW54811   1.974   5.609   3.269 -0.6485  0.7376 -0.2722
16069SOL    HW154812   1.959   5.667   3.344 -0.4034  1.4320 -0.7533
16069SOL    HW254813   2.046   5.552   3.297 -0.6553  0.8967  0.0778
16070SOL     OW54814   6.881   0.608   7.885  0.2043 -0.4534 -0.0695
16070SOL    HW154815   6.891   0.623   7.979 -1.8890  1.8213 -0.1116
16070SOL    HW254816   6.808   0.547   7.878  0.5608 -0.8667 -0.2258
16071SOL     OW54817   6.025   7.858  10.710 -0.0180 -0.0967 -0.0453
16071SOL    HW154818   6.115   7.840  10.685 -0.0262  0.0705 -0.1945
16071SOL    HW254819   5.972   7.806  10.650 -0.0767  1.1880 -1.1816
16072SOL     OW54820  12.219   5.994   0.506 -0.1991 -0.8087  0.0624
16072SOL    HW154821  12.216   6.084   0.538 -0.0853 -0.6102 -0.4774
16072SOL    HW254822  12.148   5.988   0.443  0.1440 -0.9372 -0.3122
16073SOL     OW54823  11.812   1.952   7.291  0.1864  0.7514  0.5248
16073SOL    HW154824  11.900   1.947   7.254  0.2442  2.3653  0.3720
16073SOL    HW254825  11.821   1.912   7.378  1.2999  1.6657  0.8648
16074SOL     OW54826   4.246   8.778  11.915  0.2548  0.5425  0.0090
16074SOL    HW154827   4.299   8.814  11.843  1.7315  1.7089  1.5734
16074SOL    HW254828   4.254   8.843  11.985 -1.2684 -0.4634  1.1857
16075SOL     OW54829   7.062  12.510   8.560 -0.2053 -0.0164  0.4577
16075SOL    HW154830   7.043  12.477   8.648 -2.3328 -0.8458 -0.2393
16075SOL    HW254831   7.050  12.605   8.567 -0.4031 -0.0772  1.0521
16076SOL     OW54832   8.502   3.604   4.123  0.1888 -0.1912 -0.9336
16076SOL    HW154833   8.540   3.543   4.060  2.1419  0.8846 -0.9048
16076SOL    HW254834   8.440   3.656   4.073  1.1697  0.1523 -1.8311
16077SOL     OW54835  11.479   6.390  10.027 -0.0467 -0.7056  0.1434
16077SOL    HW154836  11.520   6.475  10.033  1.5953 -1.4205 -0.5186
16077SOL    HW254837  11.439   6.377  10.114 -1.8589  1.4191 -0.2775
16078SOL     OW54838   8.813   3.046  11.718 -0.4782 -0.1821  0.5418
16078SOL    HW154839   8.850   2.989  11.650 -0.7073 -0.4134  0.6135
16078SOL    HW254840   8.795   2.988  11.791 -0.5556  0.0115  0.6763
16079SOL     OW54841  10.371  11.314   7.737 -0.2296 -0.0016  0.0072
16079SOL    HW154842  10.377  11.228   7.694 -1.0142  0.0149 -0.1403
16079SOL    HW254843  10.444  11.364   7.699 -0.8940  0.0097 -1.3157
16080SOL     OW54844   7.726   7.140   3.775  0.1517 -0.1733 -0.4054
16080SOL    HW154845   7.650   7.119   3.829  1.1470 -0.5253  0.8940
16080SOL    HW254846   7.700   7.219   3.727 -0.5999  0.4385  0.9477
16081SOL     OW54847   9.486   5.253  11.261  0.4432 -0.2127  0.4002
16081SOL    HW154848   9.406   5.279  11.215 -0.1341 -1.9741  0.3240
16081SOL    HW254849   9.493   5.314  11.334  0.2549  1.3481 -0.8268
16082SOL     OW54850   0.896   4.722  11.552  0.4233 -0.0218 -0.3307
16082SOL    HW154851   0.866   4.637  11.582  1.9193 -0.5275 -0.1679
16082SOL    HW254852   0.953   4.754  11.623 -0.4576  1.3262 -0.1855
16083SOL     OW54853  12.440   8.313   1.040  0.0346 -0.0820 -0.4934
16083SOL    HW154854  12.523   8.289   0.999 -0.2014 -1.6421 -0.1483
16083SOL    HW254855  12.444   8.408   1.051  1.1753  0.0354 -1.7465
16084SOL     OW54856  12.266   0.024  12.297  0.2545 -0.1670 -0.4087
16084SOL    HW154857  12.180   0.062  12.316 -0.5954 -0.4585 -3.2024
16084SOL    HW254858  12.263  -0.063  12.336 -1.0805 -0.4941 -1.1737
16085SOL     OW54859   8.606   2.833  11.554 -0.3222 -0.4999  0.0341
16085SOL    HW154860   8.676   2.898  11.566 -1.1715  0.4873 -0.2241
16085SOL    HW254861   8.544   2.853  11.624 -0.8666 -0.6588 -0.4016
16086SOL     OW54862   3.200   9.331   2.828 -0.4072  0.1265  0.2988
16086SOL    HW154863   3.238   9.246   2.849 -1.2801 -0.8802 -1.8363
16086SOL    HW254864   3.106   9.320   2.842 -0.5134  0.7852  0.1560
16087SOL     OW54865   9.643   6.315   9.667 -0.2153 -0.8110  0.1558
16087SOL    HW154866   9.724   6.305   9.718  1.1564 -0.5310 -1.8744
16087SOL    HW254867   9.610   6.225   9.659  0.4062 -1.0555  0.2115
16088SOL     OW54868   2.950   2.157   0.394  0.0671 -0.2141 -0.0689
16088SOL    HW154869   2.908   2.227   0.345  1.7170 -0.0585 -1.3384
16088SOL    HW254870   3.027   2.133   0.342 -0.3344 -2.8687  0.3990
16089SOL     OW54871   5.745   9.410  10.194  0.0772 -0.4273 -0.5793
16089SOL    HW154872   5.819   9.414  10.254  0.7753 -1.4560 -1.3375
16089SOL    HW254873   5.687   9.343  10.232  1.6401 -2.8738 -2.1653
16090SOL     OW54874  11.354   8.160   5.805 -0.1918 -0.1648 -0.1123
16090SOL    HW154875  11.397   8.172   5.889 -0.3009 -1.5031  0.1512
16090SOL    HW254876  11.425   8.164   5.741 -0.0069  0.0739  0.1085
16091SOL     OW54877   6.993  10.657  10.534  0.4486  0.2770  0.0251
16091SOL    HW154878   7.020  10.747  10.553 -0.7692  1.1180 -1.9534
16091SOL    HW254879   6.922  10.641  10.596  1.0145  0.4641  0.7434
16092SOL     OW54880   5.669   9.427   7.484  0.2683 -0.2003 -0.2068
16092SOL    HW154881   5.762   9.429   7.504  0.3978 -0.9853 -0.6781
16092SOL    HW254882   5.665   9.435   7.389 -0.2578  1.8451 -0.0519
16093SOL     OW54883  12.280   2.234   3.903  0.6027 -0.2320  0.3599
16093SOL    HW154884  12.217   2.162   3.908 -0.1053  0.3468  0.0219
16093SOL    HW254885  12.254   2.294   3.973  0.5423  0.1860 -0.0123
16094SOL     OW54886   2.398   4.225   5.019  0.6690 -0.4298 -0.1838
16094SOL    HW154887   2.363   4.146   4.978 -1.1469  0.2657 -0.0749
16094SOL    HW254888   2.396   4.206   5.113 -1.8844  0.4635  0.0205
16095SOL     OW54889   1.732   8.024   0.464 -0.4663 -0.6380  0.1169
16095SOL    HW154890   1.701   8.097   0.517 -1.5352 -0.4366 -0.7499
16095SOL    HW254891   1.757   7.957   0.528 -0.0937  0.2294  0.9017
16096SOL     OW54892   3.314   9.605   0.397  0.0891 -0.0855 -0.3642
16096SOL    HW154893   3.310   9.543   0.470 -1.1925 -1.0251 -1.1947
16096SOL    HW254894   3.380   9.569   0.338  0.2193  0.0068 -0.2775
16097SOL     OW54895   1.718  12.148   2.034 -0.7310  0.8152 -0.4247
16097SOL    HW154896   1.674  12.215   1.982 -0.3609  1.7069  0.3697
16097SOL    HW254897   1.808  12.182   2.045 -0.2066 -0.3594 -0.9612
16098SOL     OW54898   1.074   5.811  11.720  0.8469 -0.3922 -0.5785
16098SOL    HW154899   1.061   5.860  11.639  0.3969  0.2366 -0.1388
16098SOL    HW254900   1.169   5.807  11.731  0.8944  0.0850 -0.8004
16099SOL     OW54901   1.300   4.298   6.931  0.0649 -0.1668  0.2724
16099SOL    HW154902   1.236   4.339   6.874 -0.3309  0.4273  1.1188
16099SOL    HW254903   1.312   4.361   7.002  0.2563 -1.0479  1.0378
16100SOL     OW54904   8.011  10.047   0.433 -0.2335 -0.3731 -0.3596
16100SOL    HW154905   8.034  10.009   0.348 -2.4548  0.6386 -1.4885
16100SOL    HW254906   8.021  10.141   0.421 -1.0517 -0.1842  0.3281
16101SOL     OW54907   5.531  11.322   8.936 -0.4978 -0.0967  0.2075
16101SOL    HW154908   5.565  11.407   8.907 -0.3703 -0.7690 -1.8166
16101SOL    HW254909   5.597  11.290   8.997  0.2538  0.5807 -0.2272
16102SOL     OW54910   5.216   5.398   0.376 -0.0048  0.4347 -0.0945
16102SOL    HW154911   5.285   5.340   0.345 -0.1403  0.8901 -1.3028
16102SOL    HW254912   5.206   5.377   0.469 -1.2321 -2.7040 -0.8038
16103SOL     OW54913  11.983  11.069   6.298 -0.5889  0.3216  0.4063
16103SOL    HW154914  11.942  11.096   6.216  0.5717 -0.2715 -0.4033
16103SOL    HW254915  12.075  11.094   6.288 -0.0694 -1.3153  0.7945
16104SOL     OW54916   5.476   3.082  12.171 -0.0074  0.2478  0.2382
16104SOL    HW154917   5.519   3.004  12.135  0.5022  0.2835  0.7452
16104SOL    HW254918   5.541   3.151  12.162 -1.3081  1.2659 -2.4858
16105SOL     OW54919   1.794   4.183  11.927 -0.0997  0.4190 -0.4701
16105SOL    HW154920   1.802   4.218  11.839 -0.1532 -0.3983 -0.8043
16105SOL    HW254921   1.713   4.133  11.926 -0.4167  0.8887  0.2200
16106SOL     OW54922  11.178   5.168   2.906  0.2586  0.6849 -0.0622
16106SOL    HW154923  11.268   5.161   2.875 -0.2906  0.0201 -1.5684
16106SOL    HW254924  11.183   5.231   2.978  1.9361  0.5787 -0.0413
16107SOL     OW54925  11.968   1.491   3.870 -0.0287 -0.2307  0.3016
16107SOL    HW154926  11.934   1.461   3.786 -0.9297  0.4934  0.3907
16107SOL    HW254927  11.973   1.587   3.861 -0.8411 -0.0805  1.3148
16108SOL     OW54928  11.936   0.603  11.186 -0.1021  0.1854  0.0496
16108SOL    HW154929  11.844   0.617  11.209  0.1081  0.4273  0.7360
16108SOL    HW254930  11.937   0.515  11.147 -0.7276  0.4390 -0.5676
16109SOL     OW54931   3.153   3.277  12.570 -0.3043 -0.2483  0.0855
16109SOL    HW154932   3.191   3.189  12.571  0.0772 -0.0840  0.0483
16109SOL    HW254933   3.140   3.297  12.477  0.0672 -0.0666  0.0743
16110SOL     OW54934   3.103  10.375   8.378 -0.3821  0.0661 -0.5668
16110SOL    HW154935   3.045  10.441   8.418  0.6704  0.3370  0.5731
16110SOL    HW254936   3.145  10.421   8.306  2.7582  1.8380  2.0743
16111SOL     OW54937   2.962  11.560   4.175 -0.1627  0.2640 -0.0227
16111SOL    HW154938   2.872  11.563   4.208 -0.4429 -2.2162 -0.3924
16111SOL    HW254939   2.975  11.469   4.150  1.8702  0.9390 -1.6887
16112SOL     OW54940  10.273  10.951   8.965 -0.1138 -0.1562 -0.3150
16112SOL    HW154941  10.316  10.872   8.995 -1.2111 -0.2183  1.1531
16112SOL    HW254942  10.184  10.946   8.999 -0.6810  0.9784 -1.5006
16113SOL     OW54943   6.825   2.670   8.156 -0.1993  0.5413 -0.4918
16113SOL    HW154944   6.772   2.644   8.081 -1.7983  0.7608  0.5193
16113SOL    HW254945   6.857   2.757   8.133  1.2759 -0.3071 -1.8759
16114SOL     OW54946   4.618   5.383   2.202 -0.3398  0.2821  0.1396
16114SOL    HW154947   4.546   5.374   2.265  0.3848  1.1654  1.1308
16114SOL    HW254948   4.628   5.296   2.164 -0.7889 -0.2744  1.2632
16115SOL     OW54949   6.080   5.531   1.988 -0.0998 -0.5318 -0.1246
16115SOL    HW154950   6.042   5.618   1.980 -1.0924 -1.0399 -1.6121
16115SOL    HW254951   6.170   5.545   2.015  0.0808  1.0264 -1.4265
16116SOL     OW54952  10.203   0.672   9.729  0.1522  0.1909  0.2531
16116SOL    HW154953  10.202   0.611   9.655 -0.5505 -0.3728  0.7233
16116SOL    HW254954  10.269   0.637   9.789 -2.3358 -1.8841  1.9628
16117SOL     OW54955   6.473  10.778   6.969 -0.0677 -0.0892  0.6274
16117SOL    HW154956   6.522  10.766   6.889  0.2403  0.4787  0.7270
16117SOL    HW254957   6.432  10.693   6.985  0.1782 -0.3140  0.0816
16118SOL     OW54958  10.246  12.169   0.312 -0.2530 -0.0771  0.2276
16118SOL    HW154959  10.252  12.148   0.405  0.9520 -1.8821 -0.2077
16118SOL    HW254960  10.312  12.237   0.299 -1.1757  0.9756  0.8550
16119SOL     OW54961  12.313   4.760   5.719 -0.0239 -0.1136 -0.4266
16119SOL    HW154962  12.269   4.809   5.649  0.4555  1.4393  0.3226
16119SOL    HW254963  12.275   4.795   5.800  1.0494 -0.2598  0.1556
16120SOL     OW54964  11.597  12.689  12.374 -0.4084 -0.1606 -0.3948
16120SOL    HW154965  11.555  12.658  12.294  0.8370 -2.5469 -0.2036
16120SOL    HW254966  11.679  12.640  12.379  1.3059  2.5860  0.4933
16121SOL     OW54967  10.170  10.363   8.564 -0.1268 -0.4967  0.0486
16121SOL    HW154968  10.207  10.437   8.515 -2.3797  0.1779 -0.7563
16121SOL    HW254969  10.189  10.384   8.656  0.8838  0.1116 -0.2761
16122SOL     OW54970   2.823   7.766   7.025 -0.8064 -0.0369  0.0145
16122SOL    HW154971   2.755   7.710   6.987  0.4784 -2.2420  0.7919
16122SOL    HW254972   2.789   7.789   7.112 -0.2529 -1.9245  0.7941
16123SOL     OW54973   4.443   1.983   2.271  0.0958  0.5934  0.2025
16123SOL    HW154974   4.376   1.953   2.210  0.3817  0.2382  0.0673
16123SOL    HW254975   4.453   2.077   2.252  0.5790  0.3682 -0.6636
16124SOL     OW54976   8.767   9.528   8.940 -0.0802  0.0287 -0.1793
16124SOL    HW154977   8.832   9.473   8.896  1.3906  0.5112  1.2735
16124SOL    HW254978   8.759   9.489   9.028 -0.8016  0.7506  0.0881
16125SOL     OW54979  11.636   9.014  11.089  0.2022  0.2665  0.4005
16125SOL    HW154980  11.548   9.037  11.120  0.2185 -0.3906  0.9501
16125SOL    HW254981  11.626   8.929  11.048  0.8876 -0.6391  2.0194
16126SOL     OW54982   3.251   2.766  12.262  0.1957 -0.7180  0.0224
16126SOL    HW154983   3.231   2.712  12.186  1.1557 -0.4990 -0.4007
16126SOL    HW254984   3.309   2.835  12.228 -0.5437  0.2505  0.6578
16127SOL     OW54985  10.008  12.012   3.728  0.0606 -0.1094  0.7908
16127SOL    HW154986  10.099  12.008   3.756  0.3803  1.0261 -0.0044
16127SOL    HW254987  10.012  12.030   3.634 -0.9935 -1.7967  0.3837
16128SOL     OW54988   9.587   9.113   2.521 -0.5393  0.3507  0.4653
16128SOL    HW154989   9.539   9.184   2.564 -2.3681 -0.0737 -0.7394
16128SOL    HW254990   9.555   9.033   2.564 -1.5248  0.0123 -0.8115
16129SOL     OW54991  10.312   6.042   9.557 -0.0736  0.2491 -0.4248
16129SOL    HW154992  10.388   5.984   9.552 -0.3064 -0.2154  0.8606
16129SOL    HW254993  10.237   5.983   9.562 -0.2475  0.5474  2.0227
16130SOL     OW54994   4.173   5.910  11.194 -0.2125  0.2867 -0.1297
16130SOL    HW154995   4.221   5.855  11.256 -1.5355 -1.3230 -0.4869
16130SOL    HW254996   4.190   6.000  11.224  1.8811 -0.2852  0.5432
16131SOL     OW54997   8.021   9.751  10.564  0.0688  0.1133  0.1655
16131SOL    HW154998   8.070   9.794  10.635 -0.2699  1.0050 -0.1275
16131SOL    HW254999   7.931   9.745  10.597 -0.5330  2.3140 -0.9001
16132SOL     OW55000   6.903  10.386   3.568  0.4582 -0.1263 -0.7266
16132SOL    HW155001   6.952  10.438   3.632 -0.3218 -0.9191  0.5671
16132SOL    HW255002   6.835  10.445   3.536  0.5888  0.1465 -0.5102
16133SOL     OW55003   9.769   0.894  11.617  1.1631  0.1837 -0.0616
16133SOL    HW155004   9.864   0.888  11.626  1.1836  1.6472  1.0339
16133SOL    HW255005   9.754   0.981  11.580  0.2189  0.2891  0.5374
16134SOL     OW55006   4.021  10.602  11.564  0.6205 -0.8182 -0.5579
16134SOL    HW155007   3.934  10.614  11.526  0.3121 -0.2338  0.3095
16134SOL    HW255008   4.066  10.685  11.545  1.0526 -1.1797 -1.1478
16135SOL     OW55009  11.645   9.269   0.480 -0.1947  0.0016  0.1733
16135SOL    HW155010  11.621   9.346   0.533 -0.8284 -0.2760  0.3037
16135SOL    HW255011  11.728   9.240   0.517  0.4869  1.1330 -0.4301
16136SOL     OW55012   2.459   6.547   9.918  0.5774  0.5140  0.1592
16136SOL    HW155013   2.381   6.511   9.960  0.4505 -1.6834 -1.7219
16136SOL    HW255014   2.426   6.616   9.860 -0.1251 -0.8281 -1.1010
16137SOL     OW55015  10.566   7.589  10.019 -0.5245  0.6216  0.2883
16137SOL    HW155016  10.474   7.584  10.043 -0.7008  1.6854 -0.0897
16137SOL    HW255017  10.569   7.559   9.928  0.0770 -2.9644  1.3510
16138SOL     OW55018   3.985  12.664   0.810  0.0132 -0.0553 -0.9182
16138SOL    HW155019   4.027  12.744   0.841 -1.2461  0.1760  0.2707
16138SOL    HW255020   4.056  12.614   0.769  1.7240 -0.1488  1.9057
16139SOL     OW55021   1.253   5.635   3.156 -0.2911 -0.3189 -0.3026
16139SOL    HW155022   1.264   5.697   3.229  1.1897 -1.3863  0.4329
16139SOL    HW255023   1.227   5.690   3.083 -2.5136  0.7157  1.1501
16140SOL     OW55024  12.103   4.570  10.739  0.0063  0.5331  0.6947
16140SOL    HW155025  12.187   4.616  10.732 -0.2130  1.0032  1.0749
16140SOL    HW255026  12.119   4.499  10.800 -0.1454  1.2895  1.6386
16141SOL     OW55027   8.302   1.891   1.110 -0.5505  0.1769  0.3390
16141SOL    HW155028   8.346   1.807   1.124  0.9659  1.1825  1.8603
16141SOL    HW255029   8.350   1.932   1.038  0.7004  1.0064  1.5939
16142SOL     OW55030   1.562  11.647   1.444  0.2269 -0.4374 -0.2489
16142SOL    HW155031   1.488  11.631   1.385  0.0749  0.6770 -0.3752
16142SOL    HW255032   1.634  11.598   1.404 -0.4557 -1.6572 -0.0446
16143SOL     OW55033   5.073   9.524   1.617  0.2697 -0.3458  0.2696
16143SOL    HW155034   5.039   9.550   1.531  0.3273 -0.1442  0.3076
16143SOL    HW255035   5.060   9.429   1.620  1.6166 -0.5923 -0.5693
16144SOL     OW55036  10.491   0.471  12.460 -0.1160 -0.0591 -0.6504
16144SOL    HW155037  10.445   0.396  12.499  1.5890 -2.1467 -2.4283
16144SOL    HW255038  10.534   0.513  12.534  1.1505 -2.5290  0.1536
16145SOL     OW55039   4.909   8.004   7.903  0.3914  0.2981  0.1402
16145SOL    HW155040   4.864   8.004   7.987 -0.4640  0.7506 -0.3096
16145SOL    HW255041   4.840   7.995   7.838  1.0541 -0.1877 -0.5212
16146SOL     OW55042  10.158   0.377   3.307 -0.3635 -0.0984 -0.3058
16146SOL    HW155043  10.233   0.324   3.334  0.0408  0.2119 -0.8037
16146SOL    HW255044  10.187   0.422   3.228 -1.3498 -0.6154 -0.9870
16147SOL     OW55045   3.867   0.188  10.343  0.1396  0.0837 -0.3088
16147SOL    HW155046   3.935   0.252  10.363 -0.6584  0.5832  0.9686
16147SOL    HW255047   3.785   0.234  10.361 -0.5276 -0.6854 -1.2741
16148SOL     OW55048   8.746   2.929   8.746 -0.0945 -0.2393  0.6234
16148SOL    HW155049   8.682   2.893   8.807  0.8596  1.7432  2.9879
16148SOL    HW255050   8.694   2.972   8.678 -1.3198  0.8052  2.1564
16149SOL     OW55051   1.102   4.134  12.187 -0.5351 -0.3531  0.7814
16149SOL    HW155052   1.155   4.214  12.183 -3.6281  1.8886  1.3914
16149SOL    HW255053   1.131   4.090  12.267  1.0009  0.2734  0.6093
16150SOL     OW55054   5.486   3.523   7.772  0.2956 -0.2484 -0.0703
16150SOL    HW155055   5.414   3.477   7.815  0.4455 -0.7935 -0.3843
16150SOL    HW255056   5.446   3.563   7.695  0.1663  0.1385  0.1988
16151SOL     OW55057   3.262   2.812   4.158  0.2491  0.0333  0.3649
16151SOL    HW155058   3.240   2.890   4.209  1.8028 -0.3819  1.7631
16151SOL    HW255059   3.224   2.828   4.072 -3.3256  0.3299  1.8598
16152SOL     OW55060   2.801   6.089  10.810  0.3683 -0.1118  0.2113
16152SOL    HW155061   2.835   6.161  10.758  0.3034  0.2479  0.6559
16152SOL    HW255062   2.714   6.118  10.839  0.2592 -0.4485  0.2368
16153SOL     OW55063   6.987   1.416   3.602 -0.1194  0.0234  0.3857
16153SOL    HW155064   6.959   1.399   3.512  0.2682  0.4463  0.1803
16153SOL    HW255065   6.916   1.381   3.656 -0.9653  0.9142 -0.1199
16154SOL     OW55066   6.746   3.561  10.137 -0.3555 -0.0510  0.7473
16154SOL    HW155067   6.673   3.619  10.115 -0.9574 -1.4189 -1.1278
16154SOL    HW255068   6.799   3.612  10.198 -1.5000  1.9692  0.1637
16155SOL     OW55069   7.794  12.396   3.662  0.5864 -0.5421 -0.0973
16155SOL    HW155070   7.795  12.315   3.713  2.1429 -0.0096  0.7932
16155SOL    HW255071   7.802  12.465   3.728  1.0236  0.2392 -0.9499
16156SOL     OW55072   9.459   4.812  10.522 -0.9713 -0.1626 -0.7454
16156SOL    HW155073   9.480   4.758  10.599 -0.8477 -0.0474 -0.6983
16156SOL    HW255074   9.517   4.888  10.530 -2.2210  0.7426  0.0161
16157SOL     OW55075  11.322   0.009   0.452  0.4271 -0.5860  0.2095
16157SOL    HW155076  11.368   0.092   0.442 -0.6699  0.0328  0.1445
16157SOL    HW255077  11.380  -0.044   0.507  1.4832 -0.0604 -0.3609
16158SOL     OW55078   1.329   1.671   6.933  0.3335  0.1498  0.0333
16158SOL    HW155079   1.293   1.661   6.845  0.2249 -0.5570  0.1534
16158SOL    HW255080   1.264   1.723   6.980  0.8494  1.3908 -0.5716
16159SOL     OW55081   8.115   5.719   4.865  0.2840 -0.2595 -0.3814
16159SOL    HW155082   8.107   5.765   4.782  0.4892  0.1503 -0.1765
16159SOL    HW255083   8.026   5.719   4.901  0.3359  0.2228 -0.2516
16160SOL     OW55084  10.966   8.251   2.129 -0.3751  0.0924 -0.0797
16160SOL    HW155085  10.994   8.342   2.119 -0.0861  0.3246  2.2998
16160SOL    HW255086  10.875   8.251   2.099  0.0363  0.8175 -1.4366
16161SOL     OW55087   6.408   5.306   0.033  0.1841 -0.4877 -0.2770
16161SOL    HW155088   6.500   5.329   0.044 -0.2645  1.7076 -0.7420
16161SOL    HW255089   6.393   5.308  -0.061 -0.6240  0.5062 -0.1481
16162SOL     OW55090   1.536  10.959   3.462  0.3728  0.1269  0.4055
16162SOL    HW155091   1.623  10.935   3.493  1.0894  0.8481 -0.9922
16162SOL    HW255092   1.509  10.886   3.407 -0.2168 -0.4003  1.3541
16163SOL     OW55093   6.832   7.218   0.084 -0.1782  0.5081 -0.1757
16163SOL    HW155094   6.861   7.300   0.124  0.2644  0.3115 -0.0956
16163SOL    HW255095   6.793   7.168   0.156 -1.9490  1.3169 -0.5225
16164SOL     OW55096   7.762   6.762   0.291 -0.3983 -0.2271  0.1572
16164SOL    HW155097   7.807   6.732   0.369 -0.9635 -2.1470 -0.1910
16164SOL    HW255098   7.812   6.725   0.218 -1.6308 -1.1419 -0.2683
16165SOL     OW55099   4.856   6.741   1.105  0.5147 -0.1815 -0.0460
16165SOL    HW155100   4.895   6.823   1.076  0.0882  0.6082  1.5177
16165SOL    HW255101   4.883   6.732   1.196 -0.4584 -1.1629  0.1696
16166SOL     OW55102   2.003   2.726   0.370 -0.0920 -0.2682 -0.1753
16166SOL    HW155103   1.957   2.692   0.292  2.8990 -1.7674 -1.4540
16166SOL    HW255104   2.044   2.649   0.409 -1.3798  0.4699  2.9565
16167SOL     OW55105   1.306  10.704  12.395  0.6741 -0.2202 -0.0823
16167SOL    HW155106   1.236  10.761  12.426 -0.2497 -0.5749 -1.4363
16167SOL    HW255107   1.328  10.650  12.471 -1.8070 -1.3421 -0.0717
16168SOL     OW55108   7.743   3.934   8.950  0.0373  0.0092 -0.5955
16168SOL    HW155109   7.696   3.867   8.903  2.1979 -0.9293 -1.5456
16168SOL    HW255110   7.814   3.888   8.994  2.3986  1.7289 -2.3324
16169SOL     OW55111  11.340   0.333   6.152  0.0520 -0.1490 -0.2365
16169SOL    HW155112  11.417   0.368   6.108  0.3634  1.1912  1.2723
16169SOL    HW255113  11.357   0.239   6.160  1.3539  0.0694 -0.2575
16170SOL     OW55114   1.051  12.190   1.275  0.7140  0.2436  0.3964
16170SOL    HW155115   1.126  12.245   1.297 -0.3088  2.0170 -0.2943
16170SOL    HW255116   0.977  12.252   1.272 -0.8655 -1.4887  1.4710
16171SOL     OW55117   8.243   5.286  11.110  0.3634 -0.4061 -0.0150
16171SOL    HW155118   8.225   5.304  11.018  0.2841  2.2487  0.4227
16171SOL    HW255119   8.303   5.211  11.109  1.1643  0.1796 -2.2842
16172SOL     OW55120   1.588  10.917   1.329  0.5537 -0.1812 -0.0361
16172SOL    HW155121   1.522  10.901   1.261  0.7458  1.5762 -0.6746
16172SOL    HW255122   1.663  10.954   1.282  1.4261 -0.7184  0.8905
16173SOL     OW55123   7.368  10.508   1.255 -0.1682 -0.6536  0.5228
16173SOL    HW155124   7.336  10.467   1.175 -1.0257  0.8625  0.0461
16173SOL    HW255125   7.356  10.442   1.323 -2.2039 -0.9558 -0.0735
16174SOL     OW55126   9.558  10.096   0.509 -0.3228  0.0220  0.4243
16174SOL    HW155127   9.610  10.149   0.448  2.0501 -0.1837  2.1325
16174SOL    HW255128   9.472  10.138   0.509 -0.1604  0.5885 -2.2897
16175SOL     OW55129   2.181  12.487  11.802 -0.7587 -0.1442  0.1410
16175SOL    HW155130   2.157  12.569  11.759 -1.1841 -0.0037  0.6307
16175SOL    HW255131   2.266  12.504  11.842 -0.8316  0.0582  0.2141
16176SOL     OW55132   8.059   1.607   2.554  0.1412  0.2738 -0.3128
16176SOL    HW155133   8.051   1.541   2.485 -0.4387 -1.9186  1.6720
16176SOL    HW255134   8.129   1.573   2.611  0.7936  2.1334  0.0631
16177SOL     OW55135   5.546   7.258   2.009 -0.9268  0.0074 -0.9522
16177SOL    HW155136   5.459   7.281   1.976 -1.5145  0.5108  0.8330
16177SOL    HW255137   5.589   7.342   2.025 -1.8321  0.0014  2.3829
16178SOL     OW55138   9.876   4.776  10.795  0.4394 -1.1127  0.1434
16178SOL    HW155139   9.814   4.806  10.862 -0.7010 -0.5048 -1.1540
16178SOL    HW255140   9.960   4.816  10.822 -0.5761  1.5454 -0.3159
16179SOL     OW55141  11.390   5.092  10.666  0.3058 -0.4691 -1.0213
16179SOL    HW155142  11.335   5.083  10.588  0.2303  1.3925 -1.2350
16179SOL    HW255143  11.479   5.081  10.634  0.4397  2.2297 -1.8324
16180SOL     OW55144   2.072   5.217   9.447  0.6611 -0.2920  0.3586
16180SOL    HW155145   2.111   5.158   9.382  1.8276 -0.2946  1.0290
16180SOL    HW255146   2.074   5.303   9.406 -1.1245 -0.7019 -0.6601
16181SOL     OW55147   2.122   2.592   8.795  0.0614  0.1545  0.1618
16181SOL    HW155148   2.130   2.565   8.886 -1.8395 -0.9019  0.0620
16181SOL    HW255149   2.070   2.673   8.798  1.3269  1.0010  0.0895
16182SOL     OW55150  12.348   5.703  10.186 -0.0611 -0.3454 -0.0319
16182SOL    HW155151  12.316   5.612  10.179 -3.2440  0.6729 -0.4763
16182SOL    HW255152  12.412   5.711  10.115  0.7253 -2.3744  0.3846
16183SOL     OW55153   4.394   7.718  12.635  1.0658  0.3117 -0.3711
16183SOL    HW155154   4.466   7.771  12.603  1.3590  0.4604  0.5223
16183SOL    HW255155   4.414   7.629  12.606  1.9247  0.2466  0.3901
16184SOL     OW55156   1.851   1.381  10.295  0.7755 -0.5785 -0.6286
16184SOL    HW155157   1.784   1.313  10.292 -1.0481  1.1221 -0.5953
16184SOL    HW255158   1.892   1.370  10.381 -2.5244  0.9633  1.3802
16185SOL     OW55159   6.538   7.021   7.048 -0.7019 -0.2082  0.2705
16185SOL    HW155160   6.618   7.064   7.019 -2.2285  1.2977 -2.1156
16185SOL    HW255161   6.527   7.048   7.139  0.5956  1.0033  0.0945
16186SOL     OW55162  12.410   7.911   1.635  0.7254 -0.2639  0.1902
16186SOL    HW155163  12.332   7.881   1.590  1.4172 -1.9386  0.0628
16186SOL    HW255164  12.380   7.934   1.723 -0.0735  0.0963 -0.1700
16187SOL     OW55165   3.337   3.091   6.313 -0.0315  0.1668 -0.6072
16187SOL    HW155166   3.368   3.140   6.237  1.1370  0.9578  0.3301
16187SOL    HW255167   3.396   3.017   6.319  3.0464  2.5360  2.1428
16188SOL     OW55168   6.515  11.544  12.141 -0.9334 -0.0562  0.1072
16188SOL    HW155169   6.524  11.455  12.107  3.6295  0.1719  0.1272
16188SOL    HW255170   6.532  11.600  12.066 -1.1585  0.7571  0.6559
16189SOL     OW55171  10.026   6.732   9.587 -0.2678 -0.1543  0.0860
16189SOL    HW155172   9.997   6.801   9.648 -3.2011 -0.2004 -1.0666
16189SOL    HW255173  10.013   6.770   9.500 -2.3450 -2.1752 -0.6017
16190SOL     OW55174   2.640  11.227   8.054  0.1529 -0.1075  0.1228
16190SOL    HW155175   2.581  11.289   8.096 -0.5613  0.0011 -0.9891
16190SOL    HW255176   2.593  11.143   8.059  0.0691 -0.0946 -0.4394
16191SOL     OW55177   5.008   4.397   9.339 -0.1993 -0.2215 -0.0393
16191SOL    HW155178   5.057   4.319   9.315  1.2578  0.0575  1.8130
16191SOL    HW255179   5.075   4.465   9.352 -1.3471  1.0950 -0.6400
16192SOL     OW55180   6.855   6.129   8.475 -0.5362  0.3038  0.1114
16192SOL    HW155181   6.836   6.222   8.481 -1.9573 -0.0339  1.4401
16192SOL    HW255182   6.785   6.087   8.526  1.3277 -1.3385  1.4619
16193SOL     OW55183  10.383   2.454   9.641  0.3772  0.2887 -0.3940
16193SOL    HW155184  10.325   2.456   9.717 -0.0668  1.3197 -0.7389
16193SOL    HW255185  10.349   2.522   9.583  1.6650  0.6110 -0.8042
16194SOL     OW55186  11.344  11.036  10.241 -0.3590 -0.6562  0.1710
16194SOL    HW155187  11.397  11.083  10.306 -1.1413  0.4061  0.0718
16194SOL    HW255188  11.275  11.098  10.217 -1.7166 -2.0186  0.3756
16195SOL     OW55189   5.171   3.884   4.902  0.3231  0.5178 -0.3672
16195SOL    HW155190   5.176   3.978   4.918  0.5530  0.2472  1.3671
16195SOL    HW255191   5.257   3.862   4.864  0.6866  0.8417  0.2518
16196SOL     OW55192  11.907   1.240   4.889  0.1564  0.1357 -0.0145
16196SOL    HW155193  11.851   1.259   4.964  0.3179  0.8025 -0.0552
16196SOL    HW255194  11.847   1.233   4.815 -0.0916 -1.3764  0.3117
16197SOL     OW55195  12.250   3.152   7.042 -0.1984  0.3263 -0.0935
16197SOL    HW155196  12.260   3.113   6.955  0.5518 -0.3869  0.3072
16197SOL    HW255197  12.288   3.089   7.102 -0.1165  1.1048  0.6994
16198SOL     OW55198  11.730   1.936   6.647 -0.1651 -0.7859 -0.0889
16198SOL    HW155199  11.694   1.998   6.583  0.1435 -0.1082  0.3749
16198SOL    HW255200  11.655   1.884   6.675 -0.7406  0.3581  0.5857
16199SOL     OW55201   1.206   7.811   0.813 -0.1519  0.2291 -0.4233
16199SOL    HW155202   1.214   7.739   0.876 -0.5458 -0.1202 -0.7693
16199SOL    HW255203   1.291   7.814   0.769 -0.3784 -0.5087 -0.9224
16200SOL     OW55204   2.497   6.474   1.468 -0.4579  0.6025  0.4608
16200SOL    HW155205   2.463   6.494   1.381  0.3810  1.0524  0.2306
16200SOL    HW255206   2.554   6.398   1.454 -0.9804  0.1389  0.7710
16201SOL     OW55207   7.743   2.081   2.949  0.1513  0.2288  0.7194
16201SOL    HW155208   7.802   2.126   2.888 -1.0959 -0.5875 -1.2106
16201SOL    HW255209   7.678   2.040   2.892 -0.8745 -0.9157  2.6272
16202SOL     OW55210   8.292   7.165  10.606  0.2961  0.2048 -0.0847
16202SOL    HW155211   8.299   7.130  10.695  0.0691  0.0836 -0.1124
16202SOL    HW255212   8.199   7.188  10.597  0.5296  1.2538  0.0964
16203SOL     OW55213  10.319   3.976   3.995 -0.3169 -0.2874 -0.2606
16203SOL    HW155214  10.335   4.051   4.052  1.2742 -1.7031  1.2879
16203SOL    HW255215  10.250   3.926   4.040 -1.7596  0.4473 -1.5550
16204SOL     OW55216   8.527   1.082   4.576 -0.2154 -0.5997 -0.4724
16204SOL    HW155217   8.615   1.116   4.565 -0.5407  0.0588 -1.1121
16204SOL    HW255218   8.504   1.101   4.667  0.8086 -2.0244  0.1174
16205SOL     OW55219  12.721   8.313   2.338  0.1091 -0.2665  0.9631
16205SOL    HW155220  12.773   8.235   2.356 -1.3048 -1.0573  1.7765
16205SOL    HW255221  12.744   8.337   2.248 -0.0726 -2.1388  0.3755
16206SOL     OW55222  10.692   9.884  10.942  0.5434 -0.0018 -0.3522
16206SOL    HW155223  10.701   9.855  10.851 -0.0325  0.1007 -0.4479
16206SOL    HW255224  10.623   9.828  10.978  2.3036 -1.6073  0.7024
16207SOL     OW55225   6.856  10.788   8.261  0.3330 -0.4506 -0.0729
16207SOL    HW155226   6.778  10.739   8.287 -0.9483  1.2614 -0.4531
16207SOL    HW255227   6.909  10.791   8.340  0.2235 -2.0023  0.0832
16208SOL     OW55228   9.240  10.579  10.801 -0.5844 -0.4432 -0.1759
16208SOL    HW155229   9.324  10.547  10.834 -0.0384  0.7054 -0.4277
16208SOL    HW255230   9.229  10.536  10.717 -0.2909 -0.6590 -0.1060
16209SOL     OW55231   3.647   9.324   2.850  0.1387 -0.5068 -0.5266
16209SOL    HW155232   3.604   9.262   2.909 -1.7658  1.0625 -0.1632
16209SOL    HW255233   3.617   9.299   2.762 -1.4468  0.4411 -0.2942
16210SOL     OW55234   0.193   2.844   6.031  0.4546 -0.2500  0.3444
16210SOL    HW155235   0.277   2.814   6.064 -0.1336 -0.5598  1.6506
16210SOL    HW255236   0.142   2.864   6.110 -0.6393  0.0637 -0.4125
16211SOL     OW55237  12.292   9.292  10.474  0.4056  0.0040  0.3397
16211SOL    HW155238  12.225   9.346  10.432  0.9991  2.1343  1.9739
16211SOL    HW255239  12.374   9.337  10.456  0.8250  0.1870  2.4694
16212SOL     OW55240  11.843   8.374   8.136  0.0438  0.0282 -0.6915
16212SOL    HW155241  11.817   8.466   8.129 -2.4754 -0.2094  2.9112
16212SOL    HW255242  11.760   8.327   8.147  1.4228 -2.3639  0.0961
16213SOL     OW55243   3.932   2.153   1.381  0.0999 -0.5910  0.7617
16213SOL    HW155244   3.854   2.174   1.433 -0.6007 -1.9715  0.2886
16213SOL    HW255245   4.005   2.165   1.443 -0.5979 -0.7293  1.6341
16214SOL     OW55246  11.351  10.621  11.321 -0.0488  0.1018 -0.1064
16214SOL    HW155247  11.256  10.628  11.316 -0.2287 -0.5192  1.6941
16214SOL    HW255248  11.379  10.701  11.366  0.1091 -0.3833  0.6829
16215SOL     OW55249  10.075   6.929  12.733 -0.4858 -0.2009  0.0669
16215SOL    HW155250  10.089   6.979  12.814  0.5258 -1.5997  0.8106
16215SOL    HW255251  10.147   6.955  12.676 -0.2287 -0.4389  0.2764
16216SOL     OW55252  12.588  10.710  12.444  0.2277  0.0873 -0.0807
16216SOL    HW155253  12.621  10.783  12.496 -0.5657 -1.3632  2.6395
16216SOL    HW255254  12.510  10.745  12.401  1.2019  1.4749 -0.8131
16217SOL     OW55255   4.135   9.457  10.930  0.1437  0.0013  0.0137
16217SOL    HW155256   4.215   9.424  10.971  0.0359  1.2876  1.3509
16217SOL    HW255257   4.079   9.379  10.921  1.9088 -1.1325 -2.0129
16218SOL     OW55258   3.671   0.367   4.494 -0.1244  0.3219 -0.7195
16218SOL    HW155259   3.576   0.356   4.494 -0.0847 -0.0104 -1.1592
16218SOL    HW255260   3.705   0.292   4.446  0.5019 -0.7420  1.2888
16219SOL     OW55261   0.603  12.081   0.176  0.1442 -0.3970 -0.3055
16219SOL    HW155262   0.687  12.122   0.195 -0.1126 -0.2908  0.6473
16219SOL    HW255263   0.604  11.999   0.226 -0.5270 -0.1380  0.1509
16220SOL     OW55264   9.756   7.497   4.153 -0.1011  0.4974  0.2222
16220SOL    HW155265   9.755   7.546   4.070  0.1441 -0.6660 -0.4985
16220SOL    HW255266   9.810   7.420   4.134 -1.2738 -0.5679  0.9981
16221SOL     OW55267   1.920   6.083  11.466 -0.7963 -0.2575  0.3754
16221SOL    HW155268   1.888   6.126  11.387 -0.0129  2.8940  1.6338
16221SOL    HW255269   2.007   6.050  11.442 -0.9509 -0.1857 -0.3118
16222SOL     OW55270  10.533   1.750   7.556 -0.1958  0.1615  0.6575
16222SOL    HW155271  10.523   1.758   7.461 -1.1570  0.5967  0.7811
16222SOL    HW255272  10.627   1.738   7.569 -0.2628 -2.0343 -0.4783
16223SOL     OW55273   2.191   3.481  12.747  0.5934  0.0746 -0.3248
16223SOL    HW155274   2.236   3.398  12.757  1.2786  0.3515 -1.0133
16223SOL    HW255275   2.131   3.486  12.822  1.1976 -0.6153  0.2068
16224SOL     OW55276   4.684   7.091   4.817 -0.3412 -0.3538 -0.5595
16224SOL    HW155277   4.694   7.169   4.872  0.8049  0.4998 -1.8962
16224SOL    HW255278   4.740   7.108   4.741 -0.6282 -2.1794 -1.2363
16225SOL     OW55279   3.256   3.775  12.294 -0.0305 -0.3632 -0.3793
16225SOL    HW155280   3.320   3.823  12.346 -0.3116 -1.3007  0.8663
16225SOL    HW255281   3.189   3.747  12.357 -0.3312 -1.6123 -1.2094
16226SOL     OW55282   3.596   8.607   0.157  0.8709  0.1848  0.6232
16226SOL    HW155283   3.567   8.694   0.130  0.5361 -0.4662 -1.2667
16226SOL    HW255284   3.690   8.606   0.140  0.9763  0.3685  1.1956
16227SOL     OW55285   9.812   7.396  12.193 -0.0794  0.3142 -0.0808
16227SOL    HW155286   9.718   7.386  12.207  0.0350  0.1323  0.6145
16227SOL    HW255287   9.848   7.408  12.281  0.3033  2.5791 -0.4887
16228SOL     OW55288   3.206  11.436   2.448 -0.3450 -0.3254 -0.4060
16228SOL    HW155289   3.262  11.421   2.524 -0.6852 -1.9530 -0.4548
16228SOL    HW255290   3.260  11.490   2.389 -0.0332  0.8430  0.8943
16229SOL     OW55291   0.837   8.550   0.308 -0.5728 -0.9283 -0.4014
16229SOL    HW155292   0.797   8.467   0.335  1.6220 -1.3424  2.0379
16229SOL    HW255293   0.928   8.527   0.286 -0.4921  0.5319 -1.7611
16230SOL     OW55294  11.734   7.259   3.489  0.0389 -0.0615 -0.7038
16230SOL    HW155295  11.655   7.272   3.437 -1.0547 -0.8031  0.6845
16230SOL    HW255296  11.745   7.341   3.537 -0.9858 -0.5599  0.4557
16231SOL     OW55297   9.347  10.057   9.293 -0.3038  0.0910 -0.3687
16231SOL    HW155298   9.320  10.106   9.370 -1.2375 -0.2377 -0.4802
16231SOL    HW255299   9.422  10.004   9.324 -0.6948 -0.0739  0.3255
16232SOL     OW55300  12.042   3.340   2.684  0.5436 -0.4648  0.5957
16232SOL    HW155301  12.021   3.308   2.772 -1.3584  1.0942  0.7696
16232SOL    HW255302  12.045   3.435   2.693 -2.3243 -0.0524 -1.4496
16233SOL     OW55303   3.251   5.608   4.863  0.1309 -0.2286 -0.5886
16233SOL    HW155304   3.180   5.660   4.825  0.1325  0.9975  1.0010
16233SOL    HW255305   3.248   5.525   4.815 -1.1961  0.4717 -1.7891
16234SOL     OW55306  11.562  10.704   3.390  0.2228  0.0849 -0.1149
16234SOL    HW155307  11.636  10.696   3.451  0.2899  0.4211 -0.1497
16234SOL    HW255308  11.563  10.623   3.341  0.1805 -0.1847  0.3205
16235SOL     OW55309   7.054   5.697   5.118 -0.6793 -0.6175 -0.4271
16235SOL    HW155310   7.031   5.715   5.027  0.2641 -0.9739 -0.7425
16235SOL    HW255311   7.058   5.783   5.159  0.9415 -0.2808 -1.2338
16236SOL     OW55312   9.907  12.424   1.899  0.0575  0.1663 -0.2780
16236SOL    HW155313   9.853  12.345   1.900 -0.1739  0.3178 -0.6044
16236SOL    HW255314   9.866  12.482   1.963 -1.3354  1.0368 -1.8623
16237SOL     OW55315   0.829   6.044   0.535  0.6053  0.0176  0.1583
16237SOL    HW155316   0.908   6.003   0.500 -0.2388 -1.1003 -0.5111
16237SOL    HW255317   0.861   6.117   0.588  2.3075 -2.1441  2.3682
16238SOL     OW55318   3.649   9.316   1.725  0.2072 -0.7678 -0.1847
16238SOL    HW155319   3.624   9.289   1.637  2.0313 -1.0136 -0.6724
16238SOL    HW255320   3.692   9.401   1.713  1.1701 -1.1609  0.3469
16239SOL     OW55321   1.353   7.992  10.355  0.2120 -0.1623 -0.2096
16239SOL    HW155322   1.351   7.917  10.296 -0.4887 -0.9905  0.8290
16239SOL    HW255323   1.392   7.958  10.436  0.5939  0.7973  0.0263
16240SOL     OW55324   2.014  12.371  12.234  0.0823  0.4826 -0.4453
16240SOL    HW155325   2.103  12.374  12.199 -0.3080  0.7186 -1.4599
16240SOL    HW255326   1.959  12.354  12.158 -0.5247 -2.5934  0.5520
16241SOL     OW55327  11.731  11.404  12.477 -0.1649 -0.2400 -1.0468
16241SOL    HW155328  11.712  11.342  12.406 -0.7101 -1.8465  0.4427
16241SOL    HW255329  11.657  11.397  12.537  1.9903 -1.8909  1.6611
16242SOL     OW55330   6.201  11.164   2.747  0.7297 -0.1821  0.0552
16242SOL    HW155331   6.270  11.108   2.783  0.7821  0.2967  0.7323
16242SOL    HW255332   6.229  11.253   2.770  1.0978  0.2096 -1.7743
16243SOL     OW55333  11.736   0.383   8.951 -0.1738  0.4566 -0.5473
16243SOL    HW155334  11.745   0.464   8.901 -0.4446 -0.1430 -1.5886
16243SOL    HW255335  11.645   0.385   8.983  0.1581  1.0971  0.4160
16244SOL     OW55336   9.309   1.249   3.095 -0.5729  0.5609  0.0076
16244SOL    HW155337   9.284   1.157   3.104 -2.7610  0.8658 -1.9213
16244SOL    HW255338   9.266   1.293   3.169 -0.5929  0.2166  0.2029
16245SOL     OW55339   7.924   6.861   2.321 -0.0588 -0.7243 -0.3335
16245SOL    HW155340   7.877   6.850   2.403  0.6024  1.8477  0.4996
16245SOL    HW255341   7.856   6.878   2.256 -0.5707 -2.6078 -0.3375
16246SOL     OW55342   6.408   8.019   8.343  0.2237 -0.1596  0.0158
16246SOL    HW155343   6.362   8.002   8.261  2.2743  0.6770 -1.3867
16246SOL    HW255344   6.450   7.935   8.365  0.4493 -0.1366 -0.3231
16247SOL     OW55345   0.576   9.065   7.408  0.0359 -0.5124 -0.0968
16247SOL    HW155346   0.559   9.154   7.439 -0.9222 -0.6210 -0.2939
16247SOL    HW255347   0.639   9.076   7.336  2.4336 -0.2656  1.9055
16248SOL     OW55348   2.587   4.479  11.021 -0.2911 -1.1676  0.4164
16248SOL    HW155349   2.664   4.452  10.971 -0.0134  0.2323  0.0458
16248SOL    HW255350   2.618   4.485  11.111 -0.0153 -0.8244  0.3019
16249SOL     OW55351   0.615  10.285   8.420 -0.3676  0.3781 -0.4558
16249SOL    HW155352   0.558  10.323   8.487  0.6159  0.2334  0.4895
16249SOL    HW255353   0.558  10.275   8.343 -1.3429  1.1941  0.1279
16250SOL     OW55354  11.469   7.069  11.624 -0.3192  0.0570  0.5062
16250SOL    HW155355  11.407   7.005  11.661  0.0890  0.6006  2.1983
16250SOL    HW255356  11.461   7.057  11.529  1.1718 -3.9254  0.6930
16251SOL     OW55357   4.309   7.917  11.773 -0.1015 -0.1313  0.0022
16251SOL    HW155358   4.393   7.962  11.779 -0.6987  1.1501 -0.8444
16251SOL    HW255359   4.261   7.944  11.851  0.4961 -1.4238  0.8583
16252SOL     OW55360   0.705   5.063   1.727  0.5565 -0.3039  0.4035
16252SOL    HW155361   0.627   5.053   1.671  2.1147  0.4022 -2.0693
16252SOL    HW255362   0.677   5.121   1.797 -1.4177 -0.9206  0.1922
16253SOL     OW55363   0.768   2.778   1.241  0.1606 -0.1880 -0.2225
16253SOL    HW155364   0.717   2.807   1.315 -0.9698 -1.5542 -0.4200
16253SOL    HW255365   0.808   2.857   1.206 -0.7267  0.7160  0.7583
16254SOL     OW55366   8.407  10.556   3.138  0.0786 -0.3431 -0.1528
16254SOL    HW155367   8.398  10.595   3.051  1.1192  0.0725 -0.0835
16254SOL    HW255368   8.495  10.518   3.139 -0.4230 -1.5401  0.2510
16255SOL     OW55369   0.243   9.140   1.950  0.4338 -0.2380  0.2772
16255SOL    HW155370   0.252   9.170   2.041  1.0617 -0.4789  0.2995
16255SOL    HW255371   0.326   9.095   1.931  1.1989  1.6073 -1.0878
16256SOL     OW55372   1.266  10.156  11.184  0.6049 -0.2534  0.0637
16256SOL    HW155373   1.312  10.153  11.268 -0.9085 -1.5984  0.8857
16256SOL    HW255374   1.175  10.177  11.207  0.4012  0.5493 -1.3623
16257SOL     OW55375   9.019   5.086   2.355 -0.0981 -0.2248 -0.7003
16257SOL    HW155376   9.094   5.085   2.296 -1.3618 -1.0130 -2.3765
16257SOL    HW255377   8.973   5.003   2.338 -1.3101  0.1961  0.3242
16258SOL     OW55378   6.720   8.680   2.011 -0.0344 -0.2573 -0.2821
16258SOL    HW155379   6.715   8.727   2.094  0.1751 -1.0585  0.1993
16258SOL    HW255380   6.635   8.636   2.004 -0.1284 -0.0252 -0.5901
16259SOL     OW55381   7.764  11.671   1.428  0.1511  0.2828 -0.3539
16259SOL    HW155382   7.812  11.681   1.346  2.0598 -1.1152  0.5369
16259SOL    HW255383   7.797  11.741   1.484 -1.5974  1.6310 -0.8905
16260SOL     OW55384   2.568   6.811   9.539 -0.4034  0.3014  0.1644
16260SOL    HW155385   2.537   6.798   9.628 -1.5811  1.3347 -0.0710
16260SOL    HW255386   2.585   6.722   9.507  0.6748 -0.0416  1.6085
16261SOL     OW55387   6.388   8.266   3.233 -0.5795 -0.1734 -0.1318
16261SOL    HW155388   6.324   8.197   3.219 -1.3978  0.2682  1.2262
16261SOL    HW255389   6.437   8.239   3.310 -0.0961  0.1927 -0.3016
16262SOL     OW55390  12.161   7.585  11.996 -0.5499 -0.2266  0.1200
16262SOL    HW155391  12.091   7.574  12.060  0.0658  0.4301  0.9299
16262SOL    HW255392  12.195   7.497  11.982 -0.2713 -0.3056  1.2001
16263SOL     OW55393  10.271   1.857   8.488 -0.1556 -0.1743 -0.4712
16263SOL    HW155394  10.309   1.862   8.401  1.3537  1.6651  0.2224
16263SOL    HW255395  10.333   1.804   8.538 -0.6839 -0.6851 -0.3461
16264SOL     OW55396   3.381   9.780   8.563 -0.6020  0.4230 -0.6377
16264SOL    HW155397   3.397   9.825   8.646  1.2543  0.8396 -1.1713
16264SOL    HW255398   3.290   9.750   8.568 -0.4812  0.3150  1.5858
16265SOL     OW55399   9.631   5.885   0.619 -0.0163 -0.3484 -0.3447
16265SOL    HW155400   9.625   5.797   0.656  2.3032 -0.4810 -0.0911
16265SOL    HW255401   9.708   5.882   0.563  0.4143  1.6353  0.0400
16266SOL     OW55402   1.969   9.731  10.754 -0.1984  0.2210  0.6206
16266SOL    HW155403   2.036   9.782  10.710  0.8704 -0.6328  1.2004
16266SOL    HW255404   2.016   9.656  10.792 -1.7072 -1.3115 -0.3534
16267SOL     OW55405   6.863  12.478   3.550 -0.2753 -0.2583  0.1621
16267SOL    HW155406   6.936  12.538   3.535  0.3264 -1.4567 -2.1356
16267SOL    HW255407   6.788  12.520   3.510 -0.1306 -0.4737 -0.3374
16268SOL     OW55408   5.093   4.431   4.730 -0.2192  0.2584 -0.3509
16268SOL    HW155409   5.001   4.451   4.750 -0.1905  1.1600 -1.0205
16268SOL    HW255410   5.114   4.489   4.657  0.6131 -0.6178 -0.8305
16269SOL     OW55411   7.093   7.026   4.910  0.2201 -0.2578 -0.2471
16269SOL    HW155412   7.090   6.932   4.922  1.1548 -0.2212  0.3753
16269SOL    HW255413   7.095   7.039   4.815 -1.4163 -0.7917 -0.3734
16270SOL     OW55414   9.199   3.408   6.289 -0.2766  0.8182  0.0994
16270SOL    HW155415   9.133   3.423   6.221 -0.1789 -3.7197 -1.2677
16270SOL    HW255416   9.280   3.391   6.241  0.7708  1.4089  1.5714
16271SOL     OW55417   0.668   3.587   3.348 -0.2374  0.5203  0.3123
16271SOL    HW155418   0.721   3.667   3.356 -0.5187  0.6237  1.3019
16271SOL    HW255419   0.722   3.527   3.297  0.3533  1.0260  0.3338
16272SOL     OW55420   6.433  10.681  11.196 -0.5876  0.4619  0.9070
16272SOL    HW155421   6.512  10.724  11.228 -1.1840 -0.5546  4.1387
16272SOL    HW255422   6.461  10.593  11.172 -0.5546  0.4398  1.0270
16273SOL     OW55423   4.298   7.649  11.447 -0.5074  0.1706 -0.4100
16273SOL    HW155424   4.232   7.586  11.473 -0.4978  0.2400 -0.2159
16273SOL    HW255425   4.374   7.596  11.423 -1.0485  0.0195 -1.8772
16274SOL     OW55426   1.656  10.032  10.094 -0.1410 -0.4352 -0.9338
16274SOL    HW155427   1.570   9.992  10.102 -0.8505  1.1301 -0.4602
16274SOL    HW255428   1.640  10.117  10.053  0.9663  0.5256  0.5334
16275SOL     OW55429  12.177   9.571   7.874 -0.7569 -0.5054  0.0553
16275SOL    HW155430  12.184   9.478   7.897 -1.2202 -0.6203 -0.2540
16275SOL    HW255431  12.182   9.573   7.778 -1.7942 -0.3181 -0.0068
16276SOL     OW55432   9.342   7.354  11.699  0.0073 -0.4814 -0.4188
16276SOL    HW155433   9.281   7.388  11.634 -2.5305 -0.3412  1.8559
16276SOL    HW255434   9.291   7.291  11.750  2.1324 -1.2641  0.8973
16277SOL     OW55435   7.011   4.884   9.379 -0.0879 -0.0246 -0.1271
16277SOL    HW155436   6.973   4.797   9.368 -0.5285 -0.3131  2.7108
16277SOL    HW255437   7.094   4.867   9.425 -0.8916  1.0535  1.8446
16278SOL     OW55438   7.681   8.068  11.872 -0.3060  0.0476 -0.1879
16278SOL    HW155439   7.671   8.079  11.777  1.7761 -2.3124 -0.7745
16278SOL    HW255440   7.765   8.108  11.892  1.1192 -2.7950 -0.1029
16279SOL     OW55441  10.286  12.435  11.070 -0.3064 -0.3685 -0.5824
16279SOL    HW155442  10.340  12.434  10.991 -1.0600 -0.7638 -1.1023
16279SOL    HW255443  10.249  12.523  11.073 -1.3438 -0.7628 -1.4191
16280SOL     OW55444   3.136  12.357   8.238 -0.0597 -0.3861 -0.0558
16280SOL    HW155445   3.112  12.293   8.305  0.5550 -0.4998  0.0612
16280SOL    HW255446   3.231  12.366   8.246  0.7239 -3.3046 -3.3592
16281SOL     OW55447   4.744   2.424   7.486 -0.1676  0.2557 -0.3149
16281SOL    HW155448   4.653   2.451   7.502  0.0182  1.0477 -0.5677
16281SOL    HW255449   4.795   2.503   7.499  0.4677 -0.1378 -0.3962
16282SOL     OW55450   5.103   2.745   3.843  0.0414 -0.4288  0.0198
16282SOL    HW155451   5.152   2.670   3.810  0.2293  0.6899 -2.4348
16282SOL    HW255452   5.012   2.717   3.844  0.2624 -1.1547  0.5709
16283SOL     OW55453   5.689   9.200  11.450  0.1474  0.1920  0.0387
16283SOL    HW155454   5.766   9.202  11.508 -0.7809  0.9945  1.3084
16283SOL    HW255455   5.696   9.280  11.399  0.8896 -0.4432 -0.8878
16284SOL     OW55456  10.285   9.905   1.175  0.3969  0.0364  0.3427
16284SOL    HW155457  10.246   9.838   1.119 -0.5521  1.3341 -0.5868
16284SOL    HW255458  10.378   9.886   1.174  0.7276  1.2233 -3.4081
16285SOL     OW55459  11.258   2.088   3.977  0.7920 -0.2425 -0.4407
16285SOL    HW155460  11.351   2.109   3.977  1.0633 -1.3532 -1.0952
16285SOL    HW255461  11.234   2.081   4.069  1.2167  0.6254 -0.2642
16286SOL     OW55462  10.970   0.779   3.155  0.1301 -0.3347 -0.0345
16286SOL    HW155463  11.049   0.773   3.208  1.3699  2.0854 -1.4377
16286SOL    HW255464  10.970   0.699   3.102  1.5078 -0.4949  0.1788
16287SOL     OW55465   9.511  12.480  11.051 -0.3092 -0.0779 -0.1204
16287SOL    HW155466   9.589  12.511  11.098  0.4540 -1.7387 -0.2203
16287SOL    HW255467   9.440  12.536  11.082  1.2035  2.6825 -1.3621
16288SOL     OW55468   4.300   3.526   6.471 -0.2380  0.1668  0.1544
16288SOL    HW155469   4.390   3.538   6.441 -0.2245 -0.5349 -0.0883
16288SOL    HW255470   4.309   3.474   6.551 -0.4143  0.3281  0.2799
16289SOL     OW55471   2.383   4.424   7.679 -0.6134  0.2273  0.3714
16289SOL    HW155472   2.304   4.373   7.697 -0.6292  0.7919  2.1298
16289SOL    HW255473   2.455   4.369   7.711 -0.4371  0.3865  0.2520
16290SOL     OW55474   5.591   1.887   0.470  0.2625  0.3783  0.1504
16290SOL    HW155475   5.637   1.852   0.546 -2.1631 -0.9913  1.0908
16290SOL    HW255476   5.549   1.967   0.502 -0.1646  0.2003  0.0318
16291SOL     OW55477   2.601   9.680  11.517 -0.4219  0.2957 -0.0412
16291SOL    HW155478   2.608   9.615  11.447 -0.3897  0.7992 -0.5106
16291SOL    HW255479   2.650   9.755  11.484  1.6030 -0.2673  1.4885
16292SOL     OW55480  11.071   4.931   2.752  0.1175 -0.3813 -0.2402
16292SOL    HW155481  11.108   5.007   2.797 -0.7924  0.1964 -0.4313
16292SOL    HW255482  11.077   4.953   2.659  0.4866 -0.8506 -0.3290
16293SOL     OW55483   9.290   8.957  10.565  0.4262  0.0704  0.0991
16293SOL    HW155484   9.215   8.981  10.510  0.3029 -0.7913 -0.1135
16293SOL    HW255485   9.346   8.905  10.507  0.7282 -0.0931  0.5364
16294SOL     OW55486   3.546   0.308   9.337  0.1319 -0.0057  0.4537
16294SOL    HW155487   3.633   0.290   9.372  0.8515 -0.0451 -1.2549
16294SOL    HW255488   3.547   0.400   9.313  0.5747 -0.5287 -1.7635
16295SOL     OW55489   6.308   4.167   2.817 -0.1497 -0.0858  0.2574
16295SOL    HW155490   6.230   4.165   2.762  0.1656 -1.2529 -0.1780
16295SOL    HW255491   6.298   4.092   2.876  1.2594 -1.0585 -0.7030
16296SOL     OW55492   9.570  12.366   9.806  0.5676  0.5218 -0.2011
16296SOL    HW155493   9.519  12.288   9.783  0.9737 -0.0055  0.6178
16296SOL    HW255494   9.659  12.346   9.777  0.6566  0.7028 -0.0570
16297SOL     OW55495   0.725   4.553   6.382 -0.0211 -0.1119 -0.3574
16297SOL    HW155496   0.662   4.500   6.334  1.1167 -0.6040 -1.3435
16297SOL    HW255497   0.698   4.643   6.364 -0.5504 -0.3161 -0.6171
16298SOL     OW55498   2.702   3.867   3.122  0.0126 -0.1984  0.1723
16298SOL    HW155499   2.759   3.832   3.053  0.8400  1.1986  0.1085
16298SOL    HW255500   2.699   3.961   3.105 -2.7761 -0.2650 -0.1410
16299SOL     OW55501   5.245   1.563   9.314 -0.1986 -0.2362  0.9663
16299SOL    HW155502   5.275   1.602   9.396 -0.7733  3.2311 -0.3309
16299SOL    HW255503   5.318   1.575   9.254 -1.1666  0.8272 -0.0304
16300SOL     OW55504   6.013   1.680  10.553 -0.1987  0.1894 -0.5028
16300SOL    HW155505   5.982   1.605  10.604 -0.4612  0.0353 -0.8744
16300SOL    HW255506   6.069   1.641  10.485  2.3448  0.6051  1.2208
16301SOL     OW55507   6.228   0.359   3.310 -0.5021 -0.5324 -0.6294
16301SOL    HW155508   6.282   0.290   3.349  0.4196 -0.1604 -1.2066
16301SOL    HW255509   6.147   0.316   3.285  0.3139 -1.5751 -1.5951
16302SOL     OW55510  10.477  10.269  12.319  0.2295  0.1210 -0.4211
16302SOL    HW155511  10.429  10.352  12.313 -0.3726 -0.0067  1.8383
16302SOL    HW255512  10.410  10.202  12.306 -0.1809 -0.0425  2.0527
16303SOL     OW55513   2.794   8.503   4.428  0.4923 -0.3010  0.3188
16303SOL    HW155514   2.843   8.455   4.494  1.6461  0.0439 -0.2620
16303SOL    HW255515   2.739   8.563   4.478  0.4041 -0.9263  0.9937
16304SOL     OW55516   5.807  11.724   3.326 -0.5168  0.0001 -0.2928
16304SOL    HW155517   5.733  11.682   3.370 -0.7919 -0.2875 -1.0158
16304SOL    HW255518   5.793  11.818   3.339  0.3189 -0.0814  1.6961
16305SOL     OW55519  11.827   5.457   9.842 -0.2253  0.2254 -0.0174
16305SOL    HW155520  11.741   5.495   9.823 -1.1185 -2.0778 -0.8989
16305SOL    HW255521  11.879   5.475   9.764  0.1493  1.6470  0.5266
16306SOL     OW55522   2.931   2.943   1.906 -0.1776 -0.2698 -0.0716
16306SOL    HW155523   2.907   2.999   1.832 -0.2574  0.4636  0.5050
16306SOL    HW255524   2.849   2.901   1.933 -0.6029  1.2037  1.0382
16307SOL     OW55525   8.150   2.154  10.746  0.0220  0.5900 -0.6626
16307SOL    HW155526   8.087   2.121  10.682  1.7924 -2.8986 -0.7982
16307SOL    HW255527   8.217   2.198  10.694 -0.1040  0.4778 -0.9229
16308SOL     OW55528   5.135   9.935   2.864  0.8414 -0.5024 -0.3377
16308SOL    HW155529   5.116  10.026   2.885 -0.6734 -0.6203 -1.0945
16308SOL    HW255530   5.112   9.886   2.942  3.1349 -0.1283  0.6535
16309SOL     OW55531   3.969   6.851  11.827 -0.4789  0.0379 -0.2303
16309SOL    HW155532   4.016   6.847  11.743 -1.4686 -1.5840 -0.7615
16309SOL    HW255533   4.031   6.815  11.891 -0.0550  0.4091 -0.4227
16310SOL     OW55534   6.062   2.137   0.304 -0.2727 -0.1356  0.4790
16310SOL    HW155535   6.133   2.085   0.267 -0.1776 -0.2763  0.8548
16310SOL    HW255536   6.072   2.223   0.264 -0.7078 -0.5155 -0.5051
16311SOL     OW55537   6.576   7.861   7.946 -0.2127 -0.3090 -0.3337
16311SOL    HW155538   6.663   7.891   7.920  0.2466  0.1358  1.5634
16311SOL    HW255539   6.531   7.843   7.864  1.4149  0.1713 -1.3709
16312SOL     OW55540   2.271   9.160   1.824  0.1410  0.0018  0.3457
16312SOL    HW155541   2.360   9.140   1.852 -0.0877 -1.9221 -0.1397
16312SOL    HW255542   2.276   9.159   1.728 -0.6508 -1.6613  0.2773
16313SOL     OW55543   4.121  11.491   3.824 -0.0599  0.2467 -0.3749
16313SOL    HW155544   4.034  11.455   3.840 -0.5058  0.6900 -1.6894
16313SOL    HW255545   4.156  11.510   3.912 -1.1975 -0.1292  0.1720
16314SOL     OW55546   4.578   9.025   2.932 -0.0292 -0.5352 -0.5623
16314SOL    HW155547   4.564   9.034   2.838  0.8590 -0.2099 -0.6756
16314SOL    HW255548   4.525   8.949   2.957 -0.2263 -0.6611 -1.3379
16315SOL     OW55549   1.860   9.046   7.534 -0.0558 -0.0716 -0.9430
16315SOL    HW155550   1.948   9.013   7.550 -0.6115 -0.7863  0.8576
16315SOL    HW255551   1.852   9.050   7.438  2.0387  0.3734 -1.1283
16316SOL     OW55552   9.200   2.289  10.725 -0.5121  0.0346  1.0783
16316SOL    HW155553   9.171   2.380  10.733  0.8705  0.4956  1.0423
16316SOL    HW255554   9.294   2.292  10.740 -0.2201 -1.1974 -0.3009
16317SOL     OW55555   1.564   8.525   4.008 -0.1420  0.2410 -0.1287
16317SOL    HW155556   1.626   8.519   3.935  0.8736  0.5995  0.6781
16317SOL    HW255557   1.614   8.494   4.084 -1.5271 -1.2009  0.2364
16318SOL     OW55558  10.663   8.928   3.158  0.0857  0.3287  0.1423
16318SOL    HW155559  10.751   8.951   3.130 -0.0317  0.2077 -0.3350
16318SOL    HW255560  10.626   9.009   3.193  0.5919  0.2424  0.9141
16319SOL     OW55561   3.996   2.938   4.459 -0.5732  0.4464  0.2339
16319SOL    HW155562   3.997   2.842   4.453  0.1860  0.5037 -0.7377
16319SOL    HW255563   3.905   2.960   4.477 -0.6846 -0.4757  0.8770
16320SOL     OW55564   6.531   6.778  12.557 -0.2115 -0.4655  0.3700
16320SOL    HW155565   6.507   6.846  12.494 -0.8165 -0.8222  0.2117
16320SOL    HW255566   6.514   6.696  12.511  1.3458 -0.7567  0.2329
16321SOL     OW55567  12.366   8.759  12.299 -0.1525 -0.5136  1.3485
16321SOL    HW155568  12.297   8.824  12.312 -0.3791 -0.6635  0.9295
16321SOL    HW255569  12.376   8.717  12.385 -0.8051 -0.7056  1.3369
16322SOL     OW55570   6.535   2.068  12.580  0.1367 -0.1320 -0.2324
16322SOL    HW155571   6.588   2.021  12.645 -1.9171  0.7386  2.2092
16322SOL    HW255572   6.574   2.155  12.576  0.4483 -0.2775 -0.4034
16323SOL     OW55573   3.061   9.093  10.372  0.0669  0.3899 -0.2207
16323SOL    HW155574   3.008   9.083  10.451  0.1608  1.4539 -0.0040
16323SOL    HW255575   3.001   9.128  10.307  0.0792 -0.1410 -0.5258
16324SOL     OW55576   5.807  10.698   4.760  0.0018 -0.5315 -0.3809
16324SOL    HW155577   5.728  10.670   4.807 -0.4214  0.1226 -0.6929
16324SOL    HW255578   5.782  10.693   4.668 -0.2227  1.2468 -0.4413
16325SOL     OW55579   9.668  12.487  12.156  0.5080 -0.3084 -0.0555
16325SOL    HW155580   9.686  12.394  12.170 -0.0184 -0.7216 -1.8987
16325SOL    HW255581   9.754  12.528  12.148  0.7552 -0.5067  1.3276
16326SOL     OW55582   1.476   5.061   0.531  0.5269  0.2379 -0.1746
16326SOL    HW155583   1.395   5.057   0.479  0.8367  3.0670 -1.0376
16326SOL    HW255584   1.515   5.145   0.507  3.3338 -0.6818  0.8557
16327SOL     OW55585  12.420   4.571   2.646  0.1709  0.6555  0.2019
16327SOL    HW155586  12.346   4.553   2.705 -0.9349 -0.2612 -1.3808
16327SOL    HW255587  12.496   4.536   2.692 -1.0281 -2.5384  0.0249
16328SOL     OW55588   7.873   8.770   4.794  0.3269  0.2049 -0.2757
16328SOL    HW155589   7.863   8.675   4.799  1.5537  0.1208  1.6194
16328SOL    HW255590   7.954   8.783   4.745 -1.1180  0.4162 -2.7693
16329SOL     OW55591   5.621   7.542   3.856  0.2211  0.3324  0.0263
16329SOL    HW155592   5.699   7.561   3.803  0.5213 -1.7010 -0.3538
16329SOL    HW255593   5.548   7.566   3.799  0.5597  0.4314 -0.3770
16330SOL     OW55594   7.621   4.594   4.696  0.2795  0.1577  0.2147
16330SOL    HW155595   7.571   4.525   4.739  0.7891 -0.1851  0.2640
16330SOL    HW255596   7.569   4.616   4.619 -1.0284  1.3100  1.3713
16331SOL     OW55597  11.343  12.758   4.069 -0.5791  0.2704 -0.8200
16331SOL    HW155598  11.395  12.814   4.128 -0.6196 -2.0256  1.5832
16331SOL    HW255599  11.408  12.719   4.010 -0.1820  0.7321 -0.6941
16332SOL     OW55600   8.193   5.149   4.792  0.0797  0.5557 -0.0204
16332SOL    HW155601   8.109   5.195   4.789  0.3375  1.0395  0.0368
16332SOL    HW255602   8.188   5.084   4.722 -1.0255 -0.6360  1.0943
16333SOL     OW55603   8.934  10.140   7.583  0.1136  0.7274 -0.7979
16333SOL    HW155604   8.872  10.083   7.628  0.7754 -0.4529 -1.3259
16333SOL    HW255605   9.020  10.115   7.619  0.3649  1.8129 -0.6149
16334SOL     OW55606   6.634   9.544   6.465  0.5489  0.1424  0.2333
16334SOL    HW155607   6.548   9.577   6.441  0.4421 -0.8356 -0.8247
16334SOL    HW255608   6.636   9.549   6.561 -0.2016  1.3041  0.2100
16335SOL     OW55609   5.707   1.328   4.293  0.2372 -0.4824 -0.2067
16335SOL    HW155610   5.732   1.416   4.321 -0.7959 -0.1179 -0.3936
16335SOL    HW255611   5.616   1.336   4.264  0.1154 -1.6145 -0.2108
16336SOL     OW55612  12.578   9.496   4.168  0.1988  0.1820  0.0031
16336SOL    HW155613  12.578   9.555   4.092 -0.5264  0.2814  0.0747
16336SOL    HW255614  12.506   9.436   4.151  0.8839 -0.6552 -0.0317
16337SOL     OW55615   1.662   7.684   7.850 -0.2447  0.0037 -0.5153
16337SOL    HW155616   1.701   7.652   7.769 -1.4591  1.4429 -1.7529
16337SOL    HW255617   1.730   7.673   7.916  0.8282 -1.1043 -1.7505
16338SOL     OW55618   2.589   6.303   3.173  0.2219  0.6438  0.0722
16338SOL    HW155619   2.567   6.213   3.149 -0.3251  1.0207 -0.8974
16338SOL    HW255620   2.654   6.294   3.244 -1.2078 -0.4988  1.3046
16339SOL     OW55621   2.235   3.191   5.069 -0.2711 -0.2104  0.5696
16339SOL    HW155622   2.241   3.137   5.148 -1.7221 -2.5069 -0.7799
16339SOL    HW255623   2.303   3.158   5.011  0.6621  1.3364  0.7214
16340SOL     OW55624   4.284   1.862   1.301  0.1394  0.3210 -0.1040
16340SOL    HW155625   4.324   1.939   1.261 -0.5665  1.1784  0.7847
16340SOL    HW255626   4.196   1.891   1.325  0.1105 -0.5397  0.8843
16341SOL     OW55627  12.456   3.389   2.822 -0.0506  0.3858 -0.5899
16341SOL    HW155628  12.441   3.334   2.898 -1.6094 -0.5575 -1.5189
16341SOL    HW255629  12.390   3.459   2.830  0.6254  1.0174 -0.4311
16342SOL     OW55630   7.338   9.314   0.973  0.6557  0.2761 -0.2580
16342SOL    HW155631   7.419   9.364   0.977  1.4766 -1.0587  0.4790
16342SOL    HW255632   7.271   9.379   0.953  1.6181  1.7521  1.0460
16343SOL     OW55633   3.822  12.232   7.363  0.3276 -0.7141  0.0849
16343SOL    HW155634   3.887  12.295   7.395  0.0382 -0.7877  0.8291
16343SOL    HW255635   3.794  12.268   7.279  0.2495  0.0968  0.4459
16344SOL     OW55636   0.437   1.676   6.121 -0.0653  0.0230 -0.2390
16344SOL    HW155637   0.379   1.735   6.169  0.8381 -0.5155  1.6117
16344SOL    HW255638   0.504   1.652   6.184  1.1910 -0.7576 -1.8016
16345SOL     OW55639   4.130  11.692   6.972  0.0262  0.2319  0.0725
16345SOL    HW155640   4.087  11.635   6.908 -1.6706  1.8675 -0.3154
16345SOL    HW255641   4.112  11.651   7.057 -1.7828  0.5220 -0.1386
16346SOL     OW55642   0.273   9.898   7.786  0.3821  0.6720  0.2887
16346SOL    HW155643   0.205   9.943   7.736 -0.9874 -1.2977  0.2591
16346SOL    HW255644   0.228   9.864   7.863  1.1397 -1.3202 -0.0921
16347SOL     OW55645   6.783  12.071   8.416 -0.3774  0.5440 -0.3948
16347SOL    HW155646   6.768  11.982   8.449  1.9826  0.5170  0.8645
16347SOL    HW255647   6.744  12.128   8.482  0.0636  0.4355 -0.0315
16348SOL     OW55648  10.887  11.051   7.379  0.7414 -0.4188  0.7433
16348SOL    HW155649  10.809  11.036   7.326  1.5207  1.6891 -1.1811
16348SOL    HW255650  10.949  10.984   7.350 -0.1403 -1.8243  1.9709
16349SOL     OW55651  11.257   7.700  10.260  0.3890 -0.0126 -0.2389
16349SOL    HW155652  11.163   7.687  10.269  0.0507 -0.1668 -3.0012
16349SOL    HW255653  11.273   7.788  10.295 -0.8654  0.1752 -0.1005
16350SOL     OW55654  11.247   1.047  11.431  0.2171 -0.5247  0.3567
16350SOL    HW155655  11.295   0.970  11.462 -0.9980 -2.5348 -2.2895
16350SOL    HW255656  11.257   1.044  11.336 -0.8734  1.9488  0.1012
16351SOL     OW55657   3.362   7.715  10.640 -0.1062 -0.0297  0.0547
16351SOL    HW155658   3.326   7.803  10.644 -2.1670 -0.6478 -2.5351
16351SOL    HW255659   3.450   7.727  10.604 -0.6192  0.9478 -0.9265
16352SOL     OW55660   8.978   3.188  11.538 -0.0060  0.5031 -0.0146
16352SOL    HW155661   8.896   3.236  11.541  0.5059  1.3436  1.2915
16352SOL    HW255662   8.964   3.114  11.597 -0.4323 -0.4113 -1.2160
16353SOL     OW55663   4.346   8.287  11.556 -0.4016 -0.2632  0.0767
16353SOL    HW155664   4.282   8.242  11.500 -0.8694  0.4214  0.0472
16353SOL    HW255665   4.427   8.237  11.545 -1.1905 -1.8172  0.9571
16354SOL     OW55666  11.583   3.876   0.007 -0.3053  0.4629 -0.1639
16354SOL    HW155667  11.599   3.793  -0.037  0.4275  0.9045 -0.7500
16354SOL    HW255668  11.597   3.857   0.100  0.9822  0.1847 -0.4033
16355SOL     OW55669  11.764   4.403   0.934  0.1359 -0.2159 -0.1198
16355SOL    HW155670  11.828   4.400   0.862  0.1521 -1.4053 -0.0778
16355SOL    HW255671  11.817   4.393   1.013  0.0774  0.6925  0.0402
16356SOL     OW55672  11.866   2.260   0.044 -0.3087  0.5055  0.7887
16356SOL    HW155673  11.826   2.320   0.107  1.3092 -0.3753  2.7528
16356SOL    HW255674  11.845   2.173   0.077  1.4607  0.0241  0.7108
16357SOL     OW55675   8.646   0.804   8.187  0.6359  0.2744  0.5668
16357SOL    HW155676   8.629   0.761   8.271  1.6779 -1.1713  0.0688
16357SOL    HW255677   8.688   0.887   8.211 -0.5493  0.6363  1.5112
16358SOL     OW55678   6.136  10.215   4.159 -0.3514 -0.0839 -0.1494
16358SOL    HW155679   6.148  10.307   4.182  2.5004 -0.4904  0.3694
16358SOL    HW255680   6.137  10.214   4.064 -3.3149  0.6628 -0.2625
16359SOL     OW55681   3.230   2.789   4.973 -0.0346 -0.1360  0.1053
16359SOL    HW155682   3.189   2.782   5.059 -0.2414 -1.0798 -0.0602
16359SOL    HW255683   3.160   2.820   4.915  0.3714  1.5185  0.4617
16360SOL     OW55684  11.552   0.297   7.794  0.1767  0.9544 -0.5252
16360SOL    HW155685  11.528   0.250   7.713  0.3838 -0.4969  0.2188
16360SOL    HW255686  11.481   0.360   7.806 -1.0116 -0.2903 -0.7011
16361SOL     OW55687   6.769   6.180   9.567 -0.0571 -0.2164 -0.8421
16361SOL    HW155688   6.678   6.152   9.574  0.4293 -1.7480 -0.2138
16361SOL    HW255689   6.813   6.110   9.519  0.9546  0.1117 -0.4411
16362SOL     OW55690  10.169   7.169   7.779 -0.4450 -0.1554  0.2606
16362SOL    HW155691  10.184   7.122   7.861 -2.7694  0.3805  1.0782
16362SOL    HW255692  10.240   7.233   7.774  0.7422 -1.3706  0.9096
16363SOL     OW55693  10.496   6.188   6.807 -0.0193  0.0314  0.2295
16363SOL    HW155694  10.467   6.114   6.860  0.1657  0.4706  0.9718
16363SOL    HW255695  10.525   6.253   6.871 -0.1001  0.7126 -0.4062
16364SOL     OW55696   8.583  10.508   1.435  0.6983 -0.1290 -0.2126
16364SOL    HW155697   8.571  10.603   1.442  1.2295  0.0554 -1.5633
16364SOL    HW255698   8.635  10.496   1.356  0.9485 -1.5357  0.1427
16365SOL     OW55699   8.204   8.349   4.238  0.0210 -0.1703  0.0890
16365SOL    HW155700   8.184   8.387   4.152  0.2368  0.7687  0.4421
16365SOL    HW255701   8.234   8.423   4.290 -0.5011 -0.6566  1.1039
16366SOL     OW55702   9.745  12.344   5.979 -0.0956 -0.0553 -0.3631
16366SOL    HW155703   9.707  12.364   5.893  0.5034 -0.0105 -0.6238
16366SOL    HW255704   9.764  12.430   6.016 -0.0504 -0.0838 -0.3229
16367SOL     OW55705   6.906  11.958   4.767 -0.4210  0.0647  0.9184
16367SOL    HW155706   6.905  12.040   4.718 -2.3675  1.0009  2.3410
16367SOL    HW255707   6.947  11.895   4.709 -1.4243  1.3904 -1.3755
16368SOL     OW55708   7.972   8.254   9.486  0.3348  0.1220 -0.0503
16368SOL    HW155709   8.055   8.269   9.442 -0.1314 -1.0772 -1.4197
16368SOL    HW255710   7.953   8.161   9.472 -0.7630  0.1425  1.0712
16369SOL     OW55711   1.610   5.568   2.913  0.3143 -0.3343 -0.4398
16369SOL    HW155712   1.542   5.629   2.883 -0.2502 -1.1361 -0.8387
16369SOL    HW255713   1.637   5.521   2.834 -1.1314 -2.4063  0.1916
16370SOL     OW55714   8.921  12.108   5.153  0.0798  0.7203 -0.5744
16370SOL    HW155715   8.935  12.202   5.158 -2.3149  1.2171 -1.6973
16370SOL    HW255716   8.976  12.078   5.081 -1.0367  1.7446 -1.8918
16371SOL     OW55717   0.336  10.103   5.678  0.0502 -0.3050  0.2471
16371SOL    HW155718   0.397  10.171   5.707 -0.4268  0.2126  0.0601
16371SOL    HW255719   0.355  10.028   5.733 -1.2597  0.8369  2.3615
16372SOL     OW55720   1.667   0.864   6.107 -0.5966 -0.3726 -0.3771
16372SOL    HW155721   1.660   0.869   6.011 -1.9953 -0.4820 -0.3006
16372SOL    HW255722   1.648   0.954   6.136  0.5322 -0.1724 -0.2231
16373SOL     OW55723   9.590  10.212   7.398  0.3064 -0.0962 -0.9787
16373SOL    HW155724   9.632  10.142   7.447 -0.7097  0.1457  0.2880
16373SOL    HW255725   9.642  10.220   7.318  1.1485 -1.4704 -0.5988
16374SOL     OW55726   4.997   5.435   4.216 -0.6455  0.1631 -0.2492
16374SOL    HW155727   5.080   5.461   4.257 -0.3288 -0.4273 -0.4954
16374SOL    HW255728   4.969   5.513   4.167 -1.0144  0.8608  1.0383
16375SOL     OW55729   9.831   1.425   6.442  0.0922  0.2395 -0.4317
16375SOL    HW155730   9.780   1.353   6.404 -0.0084  0.5297 -0.8513
16375SOL    HW255731   9.922   1.404   6.421  0.0151  0.5355 -1.0650
16376SOL     OW55732   7.190   1.662   2.683  0.3388  0.6156  0.3258
16376SOL    HW155733   7.153   1.709   2.758  0.0547  1.0287 -0.0713
16376SOL    HW255734   7.219   1.731   2.624 -0.9406  0.3070 -0.6991
16377SOL     OW55735   5.626   9.146   8.460  0.5676 -0.3751  0.1712
16377SOL    HW155736   5.583   9.198   8.528 -1.7209 -0.3829 -1.1929
16377SOL    HW255737   5.682   9.208   8.414  2.7649 -0.5103  2.4197
16378SOL     OW55738   5.335   3.385   8.127  0.3416  0.6198 -0.0243
16378SOL    HW155739   5.411   3.341   8.166 -0.0284 -0.0246 -0.0282
16378SOL    HW255740   5.261   3.329   8.148 -0.0075  0.7690 -0.8180
16379SOL     OW55741   3.618   4.557   2.323 -0.4003  0.2898  0.0930
16379SOL    HW155742   3.531   4.591   2.344  0.6857  2.1123  2.0895
16379SOL    HW255743   3.650   4.613   2.253 -0.1320  0.8407  0.6505
16380SOL     OW55744   5.150   6.518  12.442 -0.2046  0.1971 -0.1824
16380SOL    HW155745   5.133   6.432  12.401 -0.2706  0.6525 -1.1430
16380SOL    HW255746   5.246   6.524  12.446 -0.1863  0.3915 -0.8165
16381SOL     OW55747  12.116  10.079   5.964  0.3834  0.4745  0.4179
16381SOL    HW155748  12.193  10.087   6.020  0.3076  2.1346  0.3526
16381SOL    HW255749  12.151  10.071   5.875  0.5011 -2.0241  0.6263
16382SOL     OW55750   1.155  12.428   8.014  0.2776 -0.0518 -0.3638
16382SOL    HW155751   1.083  12.367   7.998  0.7947 -0.4818 -1.0837
16382SOL    HW255752   1.142  12.498   7.949 -0.0248  0.3603  0.1290
16383SOL     OW55753   4.315   0.904   0.406 -0.4029  0.2253  0.5908
16383SOL    HW155754   4.391   0.954   0.432  0.6630 -0.7785 -0.4753
16383SOL    HW255755   4.241   0.962   0.422  0.6632  1.6017  0.6776
16384SOL     OW55756  12.293   1.206   6.805 -0.0349  0.1919 -0.0459
16384SOL    HW155757  12.259   1.151   6.877 -0.8245  0.2360 -0.3726
16384SOL    HW255758  12.359   1.262   6.847  1.3740 -1.5189  0.1593
16385SOL     OW55759   3.106   7.211   5.811 -0.4656  0.7222 -0.9464
16385SOL    HW155760   3.064   7.176   5.890 -0.2647  1.9455 -0.2680
16385SOL    HW255761   3.106   7.138   5.749  0.1308 -0.5429  0.4714
16386SOL     OW55762   5.063   4.665   7.356  0.1580  0.3481  0.6365
16386SOL    HW155763   5.054   4.717   7.276  0.9805  1.4735  1.2466
16386SOL    HW255764   4.973   4.644   7.381 -0.1432  0.6418 -0.1664
16387SOL     OW55765  10.256   6.392  10.825 -0.0205 -0.2547 -0.0374
16387SOL    HW155766  10.306   6.311  10.823 -1.4154 -1.1513 -0.7663
16387SOL    HW255767  10.209   6.390  10.908 -0.1282 -0.2434 -0.0971
16388SOL     OW55768  12.556   9.329   9.070 -0.0522 -0.1543  0.0529
16388SOL    HW155769  12.477   9.280   9.049 -2.3756  3.1557  0.4061
16388SOL    HW255770  12.549   9.347   9.164  2.0467 -1.1728  0.4705
16389SOL     OW55771   5.757   5.698   0.831 -0.1167 -0.2766 -0.2061
16389SOL    HW155772   5.752   5.609   0.798  0.9588 -0.6097  0.4723
16389SOL    HW255773   5.850   5.713   0.846 -0.5538 -0.8278  4.3940
16390SOL     OW55774   1.544  10.048  11.849 -0.5482  0.2551 -0.0708
16390SOL    HW155775   1.536  10.090  11.934 -1.7974  1.4620 -0.7372
16390SOL    HW255776   1.630  10.005  11.851 -0.3935  0.5733  1.6294
16391SOL     OW55777   8.124   0.893   4.086 -0.2487 -0.0379  0.1545
16391SOL    HW155778   8.180   0.935   4.021  0.4153  0.0016  0.7316
16391SOL    HW255779   8.162   0.806   4.098 -1.1326 -0.5161 -0.4367
16392SOL     OW55780   3.531   7.300   0.190  0.1116  0.4227  0.0162
16392SOL    HW155781   3.594   7.230   0.210  0.6439  0.5818 -1.0473
16392SOL    HW255782   3.501   7.331   0.276  1.1406  0.0410  0.5229
16393SOL     OW55783   2.932  11.432   7.145  0.0268  0.2969  0.1843
16393SOL    HW155784   2.970  11.413   7.230 -0.7016  0.6849  0.6128
16393SOL    HW255785   2.943  11.352   7.094 -1.8910 -0.8848  1.5239
16394SOL     OW55786   8.520   5.129   0.884 -0.3552  0.5163  0.3949
16394SOL    HW155787   8.465   5.137   0.806  0.2655 -0.1257 -0.1261
16394SOL    HW255788   8.500   5.042   0.918  0.6048  0.1190 -0.0246
16395SOL     OW55789   2.054   6.398   2.323  0.2726 -0.8655 -0.2237
16395SOL    HW155790   1.993   6.463   2.287  1.5324  0.8355  0.6096
16395SOL    HW255791   1.999   6.320   2.337 -1.5413  0.3488 -0.2045
16396SOL     OW55792   7.407  10.740   0.881 -0.8113 -0.7083  0.0866
16396SOL    HW155793   7.481  10.694   0.841 -1.6990 -1.7618 -0.4277
16396SOL    HW255794   7.405  10.708   0.971 -0.8516 -0.9636 -0.0027
16397SOL     OW55795  12.277   5.811   9.418 -0.2157 -0.1356  0.3762
16397SOL    HW155796  12.213   5.767   9.474 -0.7516  0.1544  0.0052
16397SOL    HW255797  12.359   5.765   9.433  0.0235  0.8964  2.5564
16398SOL     OW55798   1.057   4.202   4.019  0.4813 -0.5955  0.3240
16398SOL    HW155799   1.149   4.183   4.040  1.1796  3.3220  1.6036
16398SOL    HW255800   1.023   4.244   4.098 -1.3700  1.1066 -1.2698
16399SOL     OW55801   9.970   3.651   0.546 -0.5321  0.0552  0.5602
16399SOL    HW155802   9.890   3.664   0.597 -0.4237  1.2605  0.4595
16399SOL    HW255803   9.993   3.739   0.514  0.4284 -0.3830 -0.0167
16400SOL     OW55804   2.911   3.552   3.261 -0.0501  0.0553 -0.0830
16400SOL    HW155805   2.822   3.543   3.295 -0.6725  1.6069 -1.2278
16400SOL    HW255806   2.901   3.589   3.174  1.6473 -1.4970 -1.0149
16401SOL     OW55807   6.116   7.585   7.339  0.3535  0.6355  0.3052
16401SOL    HW155808   6.078   7.531   7.270 -0.0473  1.4445 -0.1147
16401SOL    HW255809   6.044   7.604   7.398  0.5800  0.3947  0.6665
16402SOL     OW55810   4.652  11.540  10.093 -0.0195 -0.2243 -0.0530
16402SOL    HW155811   4.563  11.573  10.103 -0.8768 -2.3214 -0.3595
16402SOL    HW255812   4.686  11.534  10.182 -0.8871 -1.2084  0.2224
16403SOL     OW55813  12.016   1.707   9.813  0.7161  0.3905  0.0234
16403SOL    HW155814  11.950   1.651   9.773  1.1561 -0.1958  0.1017
16403SOL    HW255815  11.972   1.792   9.824 -1.1251 -0.7872  2.9885
16404SOL     OW55816   5.217   3.871   8.384 -0.2475 -0.1012 -0.3986
16404SOL    HW155817   5.280   3.799   8.387  1.2369  1.1819  1.1843
16404SOL    HW255818   5.195   3.880   8.291 -1.0677 -3.0190 -0.5870
16405SOL     OW55819   7.671   4.745   4.348 -0.2428  0.0297 -0.7070
16405SOL    HW155820   7.737   4.705   4.405 -1.2364  1.4033  1.5017
16405SOL    HW255821   7.663   4.835   4.379 -3.0312 -0.0292 -0.9979
16406SOL     OW55822  11.632   0.922  12.706  0.7224 -0.5732  0.4945
16406SOL    HW155823  11.696   0.989  12.729 -0.9504  1.2487  0.1307
16406SOL    HW255824  11.561   0.933  12.769 -0.8602 -0.0402 -1.2570
16407SOL     OW55825  10.388  11.873   3.633  0.1529  0.4554  0.6560
16407SOL    HW155826  10.466  11.909   3.590  0.7154 -1.3133  0.1323
16407SOL    HW255827  10.332  11.844   3.560 -0.4523  0.5896  1.0574
16408SOL     OW55828   9.872  12.249   4.347  0.0642  0.2336  0.1015
16408SOL    HW155829   9.903  12.260   4.437 -1.8803 -1.1357  1.0261
16408SOL    HW255830   9.889  12.157   4.327  1.4938  0.7839 -1.3925
16409SOL     OW55831   8.001   8.330   0.480 -0.2442 -0.4279  0.1776
16409SOL    HW155832   7.907   8.343   0.464 -0.0273  0.9471 -0.1325
16409SOL    HW255833   8.023   8.251   0.431 -0.8594  0.3325 -1.3952
16410SOL     OW55834   5.528   3.986   8.289 -0.1581 -0.4234 -0.3840
16410SOL    HW155835   5.579   3.909   8.316 -1.1408 -0.1499  2.5538
16410SOL    HW255836   5.594   4.047   8.256  0.8622 -1.7698 -0.9538
16411SOL     OW55837   1.985   1.425   4.494  0.3261  0.1714  0.5300
16411SOL    HW155838   1.922   1.357   4.471 -1.6020  1.0775  2.7283
16411SOL    HW255839   2.030   1.391   4.571 -0.4236  1.2006  1.4507
16412SOL     OW55840  10.288   9.750   4.936 -0.1411 -0.0487 -0.0143
16412SOL    HW155841  10.290   9.824   4.995  2.4983 -0.1384  0.1247
16412SOL    HW255842  10.244   9.783   4.857  0.8408  1.6339  0.1004
16413SOL     OW55843   5.053   5.791   6.955  0.2558 -0.4850 -0.0305
16413SOL    HW155844   5.086   5.876   6.985  1.5995 -0.7731 -0.5918
16413SOL    HW255845   5.062   5.795   6.859  2.4408 -2.0104  0.0244
16414SOL     OW55846   0.226   3.347   9.659  0.1219 -0.2312 -0.1902
16414SOL    HW155847   0.149   3.398   9.635 -0.1647 -0.9308 -0.8133
16414SOL    HW255848   0.299   3.409   9.657  0.0500 -0.1144 -2.4556
16415SOL     OW55849   0.930   4.687   3.178  0.3003 -0.0770 -0.7771
16415SOL    HW155850   0.838   4.659   3.176 -0.3806  1.9881 -0.9763
16415SOL    HW255851   0.959   4.667   3.267 -0.3633 -0.6926 -0.6897
16416SOL     OW55852   4.393   0.073   8.819  0.2193 -0.4168  0.3069
16416SOL    HW155853   4.406   0.025   8.737  1.0177  1.1361 -0.5185
16416SOL    HW255854   4.457   0.036   8.879  0.6853 -0.5320 -0.2546
16417SOL     OW55855   7.239  11.306   0.660  0.4921 -0.1839  0.3460
16417SOL    HW155856   7.177  11.280   0.593  1.1061  1.6577 -1.0086
16417SOL    HW255857   7.192  11.293   0.743 -1.5511  0.7188 -0.6015
16418SOL     OW55858   9.616   5.625   0.133  0.2153  0.0909 -0.3830
16418SOL    HW155859   9.588   5.533   0.126  1.7854 -0.5418  0.9276
16418SOL    HW255860   9.539   5.669   0.170 -1.3853 -0.1588 -3.1084
16419SOL     OW55861  12.295   4.458   4.995 -0.1854  0.6581  0.9556
16419SOL    HW155862  12.249   4.517   5.055  0.0947  0.0175  1.8114
16419SOL    HW255863  12.381   4.446   5.035 -0.3798 -0.6612  1.0096
16420SOL     OW55864   0.244  11.772   6.828  0.4348  0.4690 -0.2603
16420SOL    HW155865   0.331  11.812   6.836  0.7746 -0.3929  0.6078
16420SOL    HW255866   0.196  11.802   6.905  0.9523 -1.3316  0.8255
16421SOL     OW55867   0.793   1.519   7.834  0.1227 -0.8728  0.3187
16421SOL    HW155868   0.767   1.456   7.901  0.9693 -0.2040  1.2923
16421SOL    HW255869   0.887   1.531   7.846 -0.1006  0.9944  0.5262
16422SOL     OW55870   5.364   7.839  11.671  0.0898  1.0840 -0.5009
16422SOL    HW155871   5.336   7.845  11.579  0.6698  0.2551 -0.7511
16422SOL    HW255872   5.441   7.782  11.668 -0.2825  0.5067  0.5819
16423SOL     OW55873   6.078   0.568  10.452  0.2177 -0.3004 -0.1423
16423SOL    HW155874   6.074   0.575  10.548 -0.2443 -0.9764 -0.1077
16423SOL    HW255875   5.992   0.534  10.427 -0.0229  0.7988 -0.8916
16424SOL     OW55876   8.418   7.397   7.291  0.0968 -0.3737  0.0106
16424SOL    HW155877   8.431   7.492   7.292 -0.1490 -0.3464  0.8586
16424SOL    HW255878   8.476   7.366   7.220  0.0043  0.4256 -0.4283
16425SOL     OW55879   9.585   3.212  10.156 -0.2408 -1.0049  0.4504
16425SOL    HW155880   9.507   3.237  10.207 -1.3892 -2.3796 -0.5597
16425SOL    HW255881   9.605   3.123  10.185  0.1032 -1.1818 -0.3069
16426SOL     OW55882   1.711  11.722   5.791  0.4500  0.0768 -0.0022
16426SOL    HW155883   1.737  11.690   5.705 -1.5363  0.0983 -0.6666
16426SOL    HW255884   1.682  11.812   5.775 -2.9571 -0.8767 -0.0378
16427SOL     OW55885   4.543   8.621  12.673  0.1946 -0.0533  0.4666
16427SOL    HW155886   4.635   8.646  12.667 -0.2582  1.4107 -1.0859
16427SOL    HW255887   4.510   8.627  12.584 -1.9919  1.9424  1.3064
16428SOL     OW55888   1.396   2.813   1.141  0.1957 -0.4243 -0.3927
16428SOL    HW155889   1.425   2.889   1.192  1.7311 -0.5222 -1.0656
16428SOL    HW255890   1.358   2.851   1.061  1.0080 -0.3374 -0.7519
16429SOL     OW55891   0.346  11.180   6.996  1.0395  0.5123  0.1860
16429SOL    HW155892   0.342  11.261   6.945  0.0340 -0.2267 -0.9994
16429SOL    HW255893   0.314  11.113   6.935  1.9665 -0.7971  1.0948
16430SOL     OW55894   0.088  12.414  11.234 -0.1679 -0.7439 -0.3110
16430SOL    HW155895   0.086  12.442  11.326  0.4614  0.1483 -0.5596
16430SOL    HW255896   0.032  12.477  11.189  0.7627 -0.2287 -0.7777
16431SOL     OW55897   6.200  12.275   2.278  0.0196 -0.2089  0.0935
16431SOL    HW155898   6.211  12.348   2.338 -0.6445 -0.0573  0.0331
16431SOL    HW255899   6.279  12.222   2.290  0.8447  0.8870 -0.3922
16432SOL     OW55900   7.977  10.558   3.482  0.3442 -0.2898 -0.3926
16432SOL    HW155901   7.972  10.612   3.403 -0.4353  0.7918  0.3628
16432SOL    HW255902   8.005  10.472   3.451  1.0023  0.3743 -1.7142
16433SOL     OW55903   4.952  12.420   0.059 -0.8069  0.4321 -0.0562
16433SOL    HW155904   4.999  12.469  -0.008 -1.1675  0.9235  0.0515
16433SOL    HW255905   4.896  12.359   0.010  0.2043 -0.4298 -0.1893
16434SOL     OW55906   7.148   6.535   5.574 -0.1752 -0.6844  0.5700
16434SOL    HW155907   7.054   6.534   5.591 -0.4559 -0.6008 -0.8499
16434SOL    HW255908   7.155   6.535   5.478  1.2643  0.4516  0.6489
16435SOL     OW55909   0.606   1.169   3.530 -0.1698  1.4888 -0.0265
16435SOL    HW155910   0.532   1.228   3.517 -2.2716 -0.5717  1.8287
16435SOL    HW255911   0.569   1.092   3.574  3.0351  0.2509  0.8020
16436SOL     OW55912   1.433   3.123  12.153  0.2674  0.1656  0.0844
16436SOL    HW155913   1.484   3.195  12.116  1.1991  0.0586  1.0775
16436SOL    HW255914   1.497   3.053  12.166 -0.0082  0.1597  1.7239
16437SOL     OW55915   9.345  11.562   0.153 -0.0962  0.4178  0.2696
16437SOL    HW155916   9.296  11.479   0.149 -0.5915  0.7152  0.0826
16437SOL    HW255917   9.277  11.630   0.154  0.3216  0.8761 -1.0282
16438SOL     OW55918   8.037   2.071   3.299  0.1153  0.9572 -0.5007
16438SOL    HW155919   8.115   2.019   3.321 -0.0409  0.7683 -0.3885
16438SOL    HW255920   8.067   2.162   3.302  0.3071  0.8910 -0.3579
16439SOL     OW55921   5.213   1.991   1.106  0.1897 -0.1458 -0.6826
16439SOL    HW155922   5.305   1.994   1.134 -0.0580  0.3154  0.1338
16439SOL    HW255923   5.176   2.074   1.138 -0.7215 -0.7233 -0.2012
16440SOL     OW55924   0.656   6.543   0.916  0.5008 -0.3111 -0.1085
16440SOL    HW155925   0.715   6.488   0.864  1.2026  0.6203 -0.3256
16440SOL    HW255926   0.573   6.496   0.916  1.6043 -2.4022  1.4361
16441SOL     OW55927   9.214   6.330  12.717  0.0652  0.2724  0.2966
16441SOL    HW155928   9.278   6.270  12.754  1.2976  1.6131  0.4512
16441SOL    HW255929   9.232   6.414  12.760 -1.7971  0.7053  0.3222
16442SOL     OW55930   2.520   2.070   7.005 -0.2503  0.0877  0.3138
16442SOL    HW155931   2.504   2.055   7.098 -0.3966 -0.2689  0.2334
16442SOL    HW255932   2.554   1.987   6.973  0.5940  0.4584  0.2182
16443SOL     OW55933  11.217   3.643  12.581  0.2694  0.4301  0.1680
16443SOL    HW155934  11.199   3.554  12.553 -0.4665  0.8508 -0.7364
16443SOL    HW255935  11.171   3.653  12.664  0.5108 -0.0892  0.3631
16444SOL     OW55936   2.580   0.435   9.642 -0.2800 -0.0426 -0.4951
16444SOL    HW155937   2.522   0.407   9.712  1.5227 -0.1468  1.0156
16444SOL    HW255938   2.550   0.523   9.620 -0.0813  0.5032  1.3146
16445SOL     OW55939   6.862   7.059   4.142  0.1516 -0.8075 -0.3261
16445SOL    HW155940   6.768   7.046   4.148  0.2442 -1.2399  0.2361
16445SOL    HW255941   6.875   7.151   4.164 -0.3613 -0.0489 -2.8433
16446SOL     OW55942   8.393  12.238   1.357 -0.1743 -0.1375 -0.0280
16446SOL    HW155943   8.478  12.194   1.348 -0.1558 -0.8414  2.6944
16446SOL    HW255944   8.346  12.215   1.277  1.5208 -1.2805 -0.7706
16447SOL     OW55945   5.441   4.848   5.885  0.5181  0.3189  0.5635
16447SOL    HW155946   5.520   4.837   5.832  1.0470  0.8147  1.2405
16447SOL    HW255947   5.409   4.759   5.900  1.1767  0.0959  0.6326
16448SOL     OW55948  12.155   8.080  10.349 -0.1396 -0.7427 -0.2149
16448SOL    HW155949  12.139   8.166  10.311  0.3724 -0.3577  0.4173
16448SOL    HW255950  12.069   8.051  10.381 -0.2458 -0.2954 -0.0879
16449SOL     OW55951  11.216   1.338   3.966 -0.0093 -0.3338 -0.0463
16449SOL    HW155952  11.297   1.386   3.982 -0.2147 -0.0698  0.2192
16449SOL    HW255953  11.242   1.246   3.966  0.3126 -0.2418 -0.0989
16450SOL     OW55954   8.544   3.761   5.403 -0.5218  0.3201  0.2736
16450SOL    HW155955   8.493   3.743   5.325 -2.0500 -3.0315  1.8487
16450SOL    HW255956   8.480   3.778   5.471  0.5330 -0.7053  1.5967
16451SOL     OW55957   1.009   2.865   6.795  0.3451 -0.4374 -0.0556
16451SOL    HW155958   1.069   2.925   6.840 -1.1847  1.9605 -1.0253
16451SOL    HW255959   1.022   2.882   6.702 -0.0797 -1.7165 -0.3728
16452SOL     OW55960   2.141   2.517   5.552  0.0727 -0.0592 -0.2000
16452SOL    HW155961   2.061   2.564   5.528 -1.1187 -1.8859 -0.0175
16452SOL    HW255962   2.206   2.546   5.489 -1.3778 -0.3036 -1.8913
16453SOL     OW55963  10.481   6.524   0.364  0.4338 -0.5660  0.8733
16453SOL    HW155964  10.534   6.510   0.286  1.8520  1.5314  1.3705
16453SOL    HW255965  10.471   6.619   0.370 -1.5570 -0.7949  2.0282
16454SOL     OW55966   8.852   1.170   7.686 -0.0698  0.2539 -0.0235
16454SOL    HW155967   8.873   1.206   7.599  0.9038  0.0290  0.1022
16454SOL    HW255968   8.906   1.091   7.693 -1.1639 -0.4931  0.2546
16455SOL     OW55969   8.808   1.186   0.687  0.2211 -0.0476  0.1248
16455SOL    HW155970   8.857   1.203   0.767 -0.5516  0.3160  0.5262
16455SOL    HW255971   8.754   1.264   0.675  1.0317  0.3335 -1.2872
16456SOL     OW55972  11.594  11.739   0.450  0.2815 -0.0096  0.2741
16456SOL    HW155973  11.685  11.753   0.473 -0.1444  1.7744  0.9749
16456SOL    HW255974  11.552  11.824   0.459 -1.1375 -0.4175 -1.5935
16457SOL     OW55975   9.855   3.017  12.284  0.4131 -0.1088 -0.2888
16457SOL    HW155976   9.783   2.986  12.228  0.9123 -0.6532 -0.6415
16457SOL    HW255977   9.811   3.062  12.356 -0.2168  1.4538 -1.6006
16458SOL     OW55978   3.251   3.046  12.483 -0.7611 -0.5923 -0.2221
16458SOL    HW155979   3.237   3.044  12.389  1.6822 -0.5927 -0.6333
16458SOL    HW255980   3.212   2.964  12.515 -2.0602 -0.3508 -1.1184
16459SOL     OW55981   1.997   8.911   8.614  0.3342 -0.7862 -0.1073
16459SOL    HW155982   2.065   8.957   8.564 -0.1737 -0.8452 -0.8748
16459SOL    HW255983   2.044   8.866   8.684  1.0687 -0.7426 -0.5682
16460SOL     OW55984   8.477  10.641   0.475  0.5336 -0.1605  0.1956
16460SOL    HW155985   8.481  10.644   0.571 -4.5979  1.8487  0.6309
16460SOL    HW255986   8.524  10.720   0.447 -0.2901  0.7829  1.3415
16461SOL     OW55987   2.830   9.031   7.483  0.0500 -0.6658 -0.1425
16461SOL    HW155988   2.829   9.039   7.579 -0.0678 -0.3313 -0.1721
16461SOL    HW255989   2.905   8.973   7.465  0.6987  0.0899  0.0898
16462SOL     OW55990   3.890   2.333   0.236 -0.2630  0.5956  0.3378
16462SOL    HW155991   3.841   2.301   0.311 -0.9355  2.9733  1.0074
16462SOL    HW255992   3.823   2.370   0.178  0.3592 -0.1261 -0.8817
16463SOL     OW55993   8.720  11.133   4.764  0.3875  0.9805  0.4088
16463SOL    HW155994   8.778  11.157   4.836  1.2078 -0.0258  0.1044
16463SOL    HW255995   8.707  11.039   4.773 -0.8470  1.1067  0.1960
16464SOL     OW55996   4.470   1.114  10.958  0.2868 -0.1900 -0.3584
16464SOL    HW155997   4.549   1.067  10.931  1.1587 -0.1898  2.0108
16464SOL    HW255998   4.492   1.206  10.947  0.9736 -0.1552  1.0718
16465SOL     OW55999   0.579   7.984   7.708 -0.5614  0.0004 -0.7290
16465SOL    HW156000   0.667   8.000   7.745 -1.0294 -0.4470  0.6380
16465SOL    HW256001   0.564   8.059   7.651  0.6067  0.2173 -0.7946
16466SOL     OW56002   2.536   4.852   3.283  0.3476 -0.7652  0.1516
16466SOL    HW156003   2.448   4.857   3.322  0.5650 -0.7507  0.6442
16466SOL    HW256004   2.529   4.781   3.219  0.0538 -0.9709  0.4030
16467SOL     OW56005   1.308   9.996  12.385  0.0216  0.3459  0.2254
16467SOL    HW156006   1.336  10.049  12.459 -3.1792 -0.2161  2.0693
16467SOL    HW256007   1.233   9.946  12.419  0.7739 -2.8513 -2.3363
16468SOL     OW56008   7.446  10.738  12.741 -0.6065 -0.1343  0.2884
16468SOL    HW156009   7.522  10.747  12.683 -0.7140 -0.2888  0.1203
16468SOL    HW256010   7.465  10.660  12.793 -1.3057 -1.0491 -0.7724
16469SOL     OW56011   8.023   5.718   2.836 -0.1405  0.6656  0.3308
16469SOL    HW156012   8.111   5.688   2.816 -0.4930  0.3275 -0.8091
16469SOL    HW256013   8.029   5.754   2.924  0.7873 -0.7818  0.8954
16470SOL     OW56014   0.056   8.874   2.967 -0.5469 -0.1585 -0.0736
16470SOL    HW156015   0.024   8.816   3.036  1.3429 -0.8911  0.2385
16470SOL    HW256016   0.147   8.890   2.989 -0.3611  0.9610 -1.5075
16471SOL     OW56017  11.435   1.659   6.198  0.4684 -0.8933 -0.1580
16471SOL    HW156018  11.459   1.724   6.264  0.3958 -0.5807 -0.4338
16471SOL    HW256019  11.513   1.651   6.143  0.4174 -0.9064 -0.2282
16472SOL     OW56020   7.722  10.805   1.251 -0.2138  0.4510 -0.2199
16472SOL    HW156021   7.773  10.865   1.306  0.1428 -1.7221  2.0322
16472SOL    HW256022   7.661  10.861   1.204  1.4909  2.7545  0.1218
16473SOL     OW56023   6.819   4.405   5.490  0.9418  0.0409  0.1423
16473SOL    HW156024   6.835   4.403   5.395 -2.5995 -1.7972 -0.6028
16473SOL    HW256025   6.795   4.315   5.512 -0.0767  0.7989  2.4263
16474SOL     OW56026  11.216  11.548   8.948 -0.5082  0.1153  0.1071
16474SOL    HW156027  11.310  11.536   8.937 -0.9158 -3.9429 -0.5825
16474SOL    HW256028  11.200  11.639   8.923  3.0839  0.7352 -0.4544
16475SOL     OW56029  11.028   1.928   4.935 -0.8721  0.2535  0.2658
16475SOL    HW156030  11.097   1.873   4.971 -2.5461 -1.3450  1.1611
16475SOL    HW256031  10.976   1.869   4.881 -1.0369  1.6329 -1.1657
16476SOL     OW56032   2.620   3.255  10.834  0.5168  0.1216  0.0206
16476SOL    HW156033   2.682   3.328  10.845  1.7568 -0.9157  0.0657
16476SOL    HW256034   2.599   3.229  10.923 -1.0164  1.2759  0.0439
16477SOL     OW56035   5.368   3.041   1.085  1.0895 -0.1185  0.5329
16477SOL    HW156036   5.376   3.033   0.990 -0.1808 -3.3154  0.5628
16477SOL    HW256037   5.318   3.121   1.098  1.0863  0.2648 -1.5000
16478SOL     OW56038   4.225   1.155   3.748  0.3355 -0.0311  0.2976
16478SOL    HW156039   4.303   1.165   3.693 -1.4360 -1.7056 -2.8307
16478SOL    HW256040   4.255   1.104   3.823  2.8184  2.0236  0.8408
16479SOL     OW56041   8.291   2.087  11.450  0.3749  0.1867 -0.3513
16479SOL    HW156042   8.224   2.133  11.400  2.4147  2.0897 -1.4926
16479SOL    HW256043   8.351   2.156  11.479  1.2729 -1.3119  1.5817
16480SOL     OW56044   6.579   9.435  11.968  0.5019  0.1035 -0.6353
16480SOL    HW156045   6.522   9.360  11.952 -0.3630  0.5690  0.1906
16480SOL    HW256046   6.616   9.419  12.055 -0.4757  1.0985 -0.0047
16481SOL     OW56047   5.933   4.463   7.530 -0.2107  0.2238 -0.5046
16481SOL    HW156048   5.988   4.534   7.498 -0.1332  0.8716  0.9756
16481SOL    HW256049   5.880   4.503   7.599 -0.6687 -1.0060 -0.1133
16482SOL     OW56050  10.047   8.254  11.624 -0.1604  0.6775  0.4992
16482SOL    HW156051  10.054   8.315  11.697  1.2053  0.9892  0.1307
16482SOL    HW256052  10.054   8.309  11.546  1.4960  0.0476  0.1604
16483SOL     OW56053   7.203   3.310   0.237 -0.1316  0.4871  0.0838
16483SOL    HW156054   7.178   3.365   0.163  0.5597  3.2986  1.7596
16483SOL    HW256055   7.120   3.284   0.276 -0.5246 -1.5614 -1.9171
16484SOL     OW56056   7.890   2.690  11.043  0.0350  0.4868  0.3157
16484SOL    HW156057   7.983   2.682  11.022  0.2949  2.4848  0.5607
16484SOL    HW256058   7.860   2.765  10.993 -0.4776  2.3633  3.1951
16485SOL     OW56059   9.734   4.268  10.350 -0.3174  0.0014  0.0108
16485SOL    HW156060   9.756   4.360  10.336  0.0890 -0.0877  0.0391
16485SOL    HW256061   9.758   4.252  10.441 -0.5221 -0.0973  0.0484
16486SOL     OW56062   3.424   4.159  10.811 -0.2944 -0.3962  0.1532
16486SOL    HW156063   3.343   4.167  10.761 -0.3236  0.6955  0.3610
16486SOL    HW256064   3.422   4.070  10.846 -1.3439 -0.4131  0.0654
16487SOL     OW56065   7.903  11.644   1.160  0.3771  0.4702  0.2762
16487SOL    HW156066   7.954  11.581   1.110 -3.0894 -2.1790 -0.3072
16487SOL    HW256067   7.918  11.728   1.116  0.5734 -1.0384 -2.7861
16488SOL     OW56068   5.979   8.037   2.358  0.3160 -0.3159  0.8572
16488SOL    HW156069   5.993   8.036   2.263 -2.2577 -0.6088  0.4028
16488SOL    HW256070   5.967   8.130   2.380  1.2825 -0.2151  0.9723
16489SOL     OW56071   5.214   8.663   2.747  0.3120  0.0940  0.2009
16489SOL    HW156072   5.193   8.579   2.705 -0.2086  0.9405 -1.2910
16489SOL    HW256073   5.144   8.722   2.719 -0.0339  0.7346  2.2520
16490SOL     OW56074   9.345   4.528   7.754 -0.7489 -0.2699  0.1398
16490SOL    HW156075   9.399   4.489   7.685 -0.8293 -2.8290  1.4273
16490SOL    HW256076   9.367   4.621   7.751 -0.6345 -0.2580 -3.1899
16491SOL     OW56077  10.624  11.673   6.063  0.0754  0.1974  0.1992
16491SOL    HW156078  10.656  11.704   5.978 -0.2756  0.4749  0.1677
16491SOL    HW256079  10.637  11.747   6.122  0.0058  0.1195  0.3134
16492SOL     OW56080   8.485   0.956   0.193  0.0768 -0.5486 -0.1730
16492SOL    HW156081   8.517   1.031   0.244 -0.4350  0.6632 -1.5480
16492SOL    HW256082   8.515   0.879   0.241  1.5165  0.5401  0.7480
16493SOL     OW56083   0.113   6.028   1.581 -0.4979  0.0457  0.2864
16493SOL    HW156084   0.104   5.996   1.491 -0.6064 -0.2419  0.3983
16493SOL    HW256085   0.084   5.955   1.635 -1.7388  0.6891  0.5202
16494SOL     OW56086   8.717   3.495   3.447 -0.1366 -0.3092  0.1485
16494SOL    HW156087   8.780   3.482   3.517  0.9510 -2.2975 -1.0990
16494SOL    HW256088   8.743   3.577   3.406  0.4254 -0.1291  0.8498
16495SOL     OW56089  11.961   1.433  11.369  0.1971  0.0649 -0.1784
16495SOL    HW156090  11.865   1.432  11.367  0.1878 -0.3918  0.2201
16495SOL    HW256091  11.984   1.519  11.403 -0.0663  0.2523 -0.4690
16496SOL     OW56092   9.216   5.813   3.266 -0.0434  0.0187  0.1278
16496SOL    HW156093   9.156   5.840   3.196  0.1260 -0.2047 -0.1076
16496SOL    HW256094   9.264   5.893   3.288 -0.9911  0.4052  0.8985
16497SOL     OW56095  12.706   8.248  11.964  0.2284  0.0424  0.0609
16497SOL    HW156096  12.654   8.230  11.885 -0.3366  2.0708 -0.0929
16497SOL    HW256097  12.698   8.168  12.016 -1.8572 -0.2810 -0.6311
16498SOL     OW56098   6.479   4.993  12.624 -0.0374  0.0586 -0.3821
16498SOL    HW156099   6.454   4.951  12.706  0.8709 -1.4716 -0.8478
16498SOL    HW256100   6.397   5.028  12.589 -0.8678 -1.4513 -0.0271
16499SOL     OW56101  10.663   9.899   4.747  0.4700  0.5973  0.1602
16499SOL    HW156102  10.758   9.887   4.737  0.3724  0.2146 -0.3469
16499SOL    HW256103  10.625   9.844   4.679 -0.1013  1.4728 -0.2407
16500SOL     OW56104  11.435   8.566   3.447 -0.3056 -0.3331  0.1811
16500SOL    HW156105  11.520   8.532   3.475  0.2559  0.4721 -0.4976
16500SOL    HW256106  11.440   8.568   3.351 -0.9509  0.0708  0.1434
16501SOL     OW56107   7.988   6.119   0.261  0.0083 -0.6345 -0.1000
16501SOL    HW156108   7.995   6.154   0.350  1.0010  1.8296 -1.0513
16501SOL    HW256109   7.920   6.052   0.266 -0.5955  0.0804  2.3209
16502SOL     OW56110   1.272   8.945   4.673 -0.3345 -0.4668  0.2304
16502SOL    HW156111   1.250   8.861   4.712  0.5225 -1.6406 -1.7015
16502SOL    HW256112   1.355   8.931   4.628 -0.2774  1.3451 -0.3405
16503SOL     OW56113   8.842   3.030   3.518 -0.4346 -0.6977 -0.0062
16503SOL    HW156114   8.751   3.053   3.499 -0.3298 -0.3741 -0.1325
16503SOL    HW256115   8.837   2.948   3.567 -0.7551 -1.0758 -0.6564
16504SOL     OW56116   5.782   7.730   1.206  0.1699  0.0525  0.0393
16504SOL    HW156117   5.720   7.708   1.136 -0.7633  1.0336  0.5364
16504SOL    HW256118   5.833   7.650   1.218 -1.3092 -0.9456 -0.0635
16505SOL     OW56119   8.698   2.490  12.494  0.0102 -0.1100  0.0061
16505SOL    HW156120   8.622   2.490  12.552  1.0610  0.0986  1.4455
16505SOL    HW256121   8.674   2.547  12.422 -1.4522 -0.6055  0.0760
16506SOL     OW56122   8.903  10.349  12.587 -0.4368  0.0894  0.3062
16506SOL    HW156123   8.915  10.420  12.651 -0.3022  0.5122 -0.1853
16506SOL    HW256124   8.863  10.391  12.511  0.7815 -0.1161 -0.4662
16507SOL     OW56125   6.567   4.091   0.772  0.5283 -0.1232 -0.0091
16507SOL    HW156126   6.546   4.003   0.742 -0.4638 -0.1428  0.6953
16507SOL    HW256127   6.487   4.141   0.759  1.3590  0.9462 -1.2824
16508SOL     OW56128   0.330  12.459   9.071 -0.5997 -0.2028  0.3091
16508SOL    HW156129   0.263  12.466   9.003 -0.8111 -1.0801  0.4073
16508SOL    HW256130   0.309  12.528   9.133  0.0771  1.1498 -0.9083
16509SOL     OW56131  10.419  11.413   1.275  0.3062  0.7342 -0.1650
16509SOL    HW156132  10.488  11.457   1.224  1.7365  0.4211  1.3974
16509SOL    HW256133  10.347  11.400   1.213  2.5906 -1.2606 -2.6224
16510SOL     OW56134  11.074   3.518  11.390 -0.0325  0.0819 -0.6071
16510SOL    HW156135  11.133   3.547  11.460 -0.1022  0.7140 -0.8053
16510SOL    HW256136  11.131   3.499  11.316  0.1193 -1.3473 -0.1441
16511SOL     OW56137   7.622   0.370   7.786 -0.0656 -0.5465 -0.4531
16511SOL    HW156138   7.538   0.339   7.822 -2.0019  3.0224 -1.3995
16511SOL    HW256139   7.661   0.421   7.857  1.0266 -1.6357 -0.2467
16512SOL     OW56140   6.002   0.536   0.986  0.4208 -0.5986 -0.2752
16512SOL    HW156141   6.031   0.582   0.907 -1.3608 -0.2548 -0.7705
16512SOL    HW256142   5.908   0.523   0.973  0.0261 -0.2361  1.9451
16513SOL     OW56143  12.755   5.581   2.376 -0.6381 -0.0148 -0.4146
16513SOL    HW156144  12.785   5.525   2.305 -0.4190  0.1312 -0.4381
16513SOL    HW256145  12.816   5.655   2.376 -1.0303  0.3120 -0.5014
16514SOL     OW56146   6.977  11.278   6.953  0.3455  0.2182 -0.0232
16514SOL    HW156147   6.897  11.326   6.974 -0.2586 -1.1858  1.0925
16514SOL    HW256148   7.048  11.341   6.968 -0.4973  1.1731 -0.0008
16515SOL     OW56149   0.420   8.587   1.697  0.4038  0.5939  0.2503
16515SOL    HW156150   0.495   8.537   1.730  1.1192  1.1360 -0.5061
16515SOL    HW256151   0.370   8.608   1.776 -0.9671 -2.8478  0.4707
16516SOL     OW56152   2.999  11.433   6.590 -0.2192  0.4083  0.1427
16516SOL    HW156153   3.087  11.451   6.625  1.2203 -2.1851 -1.7836
16516SOL    HW256154   2.969  11.356   6.640  0.1620 -0.8640 -1.5121
16517SOL     OW56155   2.699   3.708   3.943  0.0630 -0.3001 -0.0732
16517SOL    HW156156   2.671   3.664   3.863 -1.8926  2.0019 -0.7555
16517SOL    HW256157   2.689   3.642   4.012 -2.0656 -1.1726 -1.1458
16518SOL     OW56158  11.176   1.205  10.027  0.1823 -0.0204 -0.1770
16518SOL    HW156159  11.145   1.272   9.966  0.1379  1.0709  0.9909
16518SOL    HW256160  11.112   1.206  10.098  1.8204  0.9485  1.3706
16519SOL     OW56161   4.376   6.062   7.939  0.3261 -0.5836 -0.4202
16519SOL    HW156162   4.416   6.139   7.898  1.2784 -0.3507  0.8647
16519SOL    HW256163   4.412   6.061   8.028 -2.3537 -0.5515  0.7407
16520SOL     OW56164   0.868   8.901   4.958  0.0454 -0.8347  0.1791
16520SOL    HW156165   0.775   8.887   4.978 -0.4755  1.3281 -0.3549
16520SOL    HW256166   0.898   8.959   5.029  0.4952 -0.1400 -0.5632
16521SOL     OW56167   4.867   0.382   2.826  0.7007  0.1129 -0.0063
16521SOL    HW156168   4.951   0.353   2.790  0.1333 -0.1524 -1.1607
16521SOL    HW256169   4.837   0.308   2.878 -0.1832 -1.0139 -1.9896
16522SOL     OW56170   0.764  11.060   7.643 -0.2067  0.5319 -0.7891
16522SOL    HW156171   0.796  11.066   7.553  1.3015  2.9613 -0.1768
16522SOL    HW256172   0.720  11.143   7.659 -1.7265 -0.4485  0.2963
16523SOL     OW56173   2.777   8.117   1.748  0.1963 -0.4920 -0.2514
16523SOL    HW156174   2.736   8.135   1.833 -0.7152 -1.9004 -0.3548
16523SOL    HW256175   2.860   8.074   1.770 -0.3330 -1.4372 -0.0652
16524SOL     OW56176   9.251   4.053   0.569 -0.4296  0.4166 -0.3071
16524SOL    HW156177   9.317   4.073   0.502 -1.1116  1.5434 -0.6743
16524SOL    HW256178   9.275   3.965   0.601 -0.2327 -0.2760 -2.2156
16525SOL     OW56179  12.397   3.954   3.927 -0.1463  0.4109 -0.5825
16525SOL    HW156180  12.312   3.999   3.917  0.3778  1.4457 -0.5752
16525SOL    HW256181  12.449   4.014   3.981  1.2459  0.7358 -2.1883
16526SOL     OW56182  11.345   3.786   1.826 -0.3544 -0.0652  0.1709
16526SOL    HW156183  11.254   3.812   1.841 -0.8258 -0.2277 -2.1243
16526SOL    HW256184  11.370   3.740   1.906 -1.9648  0.8183  1.2381
16527SOL     OW56185   6.855  12.776   8.400 -0.6515  0.1628 -0.5031
16527SOL    HW156186   6.762  12.762   8.387 -0.8873 -1.7052  2.3624
16527SOL    HW256187   6.896  12.694   8.370 -0.3581 -0.4743  1.5007
16528SOL     OW56188   4.224   9.967   4.314 -0.0911 -0.5622  0.3181
16528SOL    HW156189   4.251   9.876   4.328 -1.5998 -0.9356  0.9782
16528SOL    HW256190   4.227   9.978   4.219  1.2695 -0.9119  0.2986
16529SOL     OW56191   4.292   7.434   6.850  0.0566  0.5147 -0.2451
16529SOL    HW156192   4.211   7.479   6.872 -0.0740 -0.1712  0.7217
16529SOL    HW256193   4.284   7.413   6.757 -1.1558 -0.1119 -0.0101
16530SOL     OW56194  11.012  11.541   2.425 -0.3637 -0.0974 -0.6223
16530SOL    HW156195  11.106  11.559   2.416 -0.7198  1.6067 -1.3111
16530SOL    HW256196  10.971  11.627   2.424 -1.7546 -0.5852  2.7056
16531SOL     OW56197   5.165   6.714   7.900  0.4956 -0.3270  0.0152
16531SOL    HW156198   5.110   6.792   7.891 -1.2652 -1.6441 -1.0523
16531SOL    HW256199   5.245   6.736   7.853  0.0591  0.8579 -0.2087
16532SOL     OW56200   5.806   3.814   1.762  0.2489  0.3220  0.1690
16532SOL    HW156201   5.838   3.887   1.709 -0.7495 -0.6860 -1.9597
16532SOL    HW256202   5.714   3.805   1.737  0.7412 -2.7068 -0.9973
16533SOL     OW56203   2.458   8.535   2.772  0.1963  0.0222 -0.0108
16533SOL    HW156204   2.414   8.620   2.770  1.4892  0.7069  0.1896
16533SOL    HW256205   2.523   8.542   2.841  2.0551 -0.2355 -1.6551
16534SOL     OW56206   6.407   3.361  12.296  0.2483  0.4742  0.2029
16534SOL    HW156207   6.423   3.271  12.268  0.5194  0.5335  0.1658
16534SOL    HW256208   6.400   3.411  12.215 -1.9999  0.1539  0.1347
16535SOL     OW56209   7.032  12.700   3.568  0.1996  0.3540 -0.0982
16535SOL    HW156210   7.030  12.771   3.632  1.2091 -0.0038  0.3538
16535SOL    HW256211   7.028  12.743   3.483  0.0064  0.9037  0.1874
16536SOL     OW56212   5.709   7.491   4.237  0.1694 -0.7653 -0.4664
16536SOL    HW156213   5.656   7.565   4.268  1.0897  0.1119 -0.9686
16536SOL    HW256214   5.799   7.517   4.253  0.4964 -2.0166 -0.1565
16537SOL     OW56215   2.593   0.681   0.569  0.2701 -0.1043 -0.0092
16537SOL    HW156216   2.641   0.728   0.638  0.2770 -0.6929  0.4039
16537SOL    HW256217   2.583   0.744   0.498 -0.6595  0.8482  0.9389
16538SOL     OW56218   5.086   4.564   9.798 -0.2637 -0.2341 -0.6934
16538SOL    HW156219   5.106   4.584   9.890 -1.1216 -2.1181 -0.0544
16538SOL    HW256220   5.024   4.632   9.772 -0.8106 -0.2607  0.4602
16539SOL     OW56221  10.675   0.863  12.496  0.1088 -0.2474  0.1986
16539SOL    HW156222  10.770   0.859  12.489 -0.0476 -1.1433 -2.1269
16539SOL    HW256223  10.650   0.942  12.449 -0.3094  0.1002  0.9775
16540SOL     OW56224   9.641   3.415  11.750 -0.0121 -0.1103 -0.0358
16540SOL    HW156225   9.673   3.497  11.787 -2.1228 -0.2991  2.4768
16540SOL    HW256226   9.560   3.439  11.704 -0.3125 -0.6928  0.1811
16541SOL     OW56227  10.926  10.847   8.184 -0.1240 -0.2830 -0.5388
16541SOL    HW156228  10.955  10.816   8.098 -1.7032 -1.1076 -0.8048
16541SOL    HW256229  10.878  10.928   8.165  0.9534  0.4503 -0.2255
16542SOL     OW56230  10.047  11.004   6.901 -0.2912 -0.3783 -0.2980
16542SOL    HW156231  10.000  11.068   6.955  0.8855  0.4204 -0.1539
16542SOL    HW256232  10.133  11.044   6.887  0.4229 -1.8578 -0.3701
16543SOL     OW56233  11.817   2.733   4.650 -0.7244 -0.5611 -0.0569
16543SOL    HW156234  11.754   2.782   4.597 -0.2494  0.7741  0.5550
16543SOL    HW256235  11.890   2.794   4.661  1.2612 -2.4749 -1.7804
16544SOL     OW56236   8.272  11.276   1.070 -0.4902 -0.1232  0.2779
16544SOL    HW156237   8.320  11.223   1.007 -1.1043 -1.0873  0.5979
16544SOL    HW256238   8.313  11.256   1.154 -2.8075 -2.8007  0.9500
16545SOL     OW56239   4.082   2.604   3.103 -0.2296  0.2089  0.4685
16545SOL    HW156240   4.158   2.547   3.092  0.1362  0.7593  0.1213
16545SOL    HW256241   4.084   2.662   3.028 -2.5507 -1.5045 -1.0930
16546SOL     OW56242  12.171   2.555  10.061  0.4753 -0.0648  0.1642
16546SOL    HW156243  12.100   2.592  10.114 -0.4884 -1.4798 -0.0706
16546SOL    HW256244  12.127   2.521   9.983  1.6170  0.2525 -0.6489
16547SOL     OW56245   2.034   9.021   9.511  0.4643  0.6854  0.0041
16547SOL    HW156246   2.121   8.985   9.493 -0.0087 -1.0388  0.9622
16547SOL    HW256247   1.983   9.001   9.432  0.4899  0.1658  0.1160
16548SOL     OW56248   8.937  10.479   6.128 -0.3636  0.3564  0.1467
16548SOL    HW156249   9.019  10.465   6.175 -0.4480 -0.2170  0.1317
16548SOL    HW256250   8.899  10.557   6.169  1.7203  2.7252 -1.9903
16549SOL     OW56251   4.457   7.684   0.376 -0.4031  0.4249  0.1510
16549SOL    HW156252   4.378   7.631   0.388 -0.2363  0.1544  0.0711
16549SOL    HW256253   4.492   7.655   0.291  0.3198 -0.1662  0.6335
16550SOL     OW56254  10.075  10.544  12.740  0.0776 -0.3294  0.2387
16550SOL    HW156255  10.129  10.470  12.768  1.1123  0.6465  0.8672
16550SOL    HW256256  10.071  10.535  12.644  1.5141 -0.3232  0.1527
16551SOL     OW56257   3.036   6.148   4.488  0.2062  0.2968 -0.0390
16551SOL    HW156258   2.981   6.091   4.435  2.9467  0.2037 -3.1105
16551SOL    HW256259   3.096   6.088   4.533  1.1689  0.5312 -0.9507
16552SOL     OW56260  11.968  11.018  10.897 -0.6052 -0.4543  0.5690
16552SOL    HW156261  12.029  11.087  10.923 -0.9823 -0.9898  3.1484
16552SOL    HW256262  11.899  11.065  10.849 -0.4854  0.9186  1.6348
16553SOL     OW56263   6.521   6.454   8.514 -0.6068  0.5127 -0.0356
16553SOL    HW156264   6.543   6.381   8.572  0.3546  1.0669  0.3149
16553SOL    HW256265   6.443   6.424   8.467 -1.7215  0.2147  1.8833
16554SOL     OW56266  12.638  12.415   6.748  0.5148 -0.3145 -0.0660
16554SOL    HW156267  12.562  12.472   6.737 -0.1548 -0.7425  2.0558
16554SOL    HW256268  12.618  12.338   6.694 -0.7138 -0.5599  0.7090
16555SOL     OW56269  10.351   0.091   5.896  0.0324 -0.7224 -0.1250
16555SOL    HW156270  10.273   0.044   5.866 -0.2005 -0.1890 -0.3711
16555SOL    HW256271  10.324   0.131   5.979 -0.1416 -0.0799 -0.4812
16556SOL     OW56272   0.445   3.378  10.593  0.0040  0.2699  0.6586
16556SOL    HW156273   0.486   3.462  10.576 -0.1137 -0.0156 -1.2838
16556SOL    HW256274   0.351   3.394  10.581  0.0765 -0.3884 -1.1232
16557SOL     OW56275   6.094  10.696   8.396 -0.2630  0.2324 -0.1969
16557SOL    HW156276   6.026  10.717   8.460  1.0136 -0.6161  1.5339
16557SOL    HW256277   6.176  10.723   8.438  0.5143  0.9492 -2.0960
16558SOL     OW56278   8.404  12.703   1.912 -0.3302 -0.3099 -0.1736
16558SOL    HW156279   8.329  12.647   1.931 -0.4419 -0.1577 -0.1740
16558SOL    HW256280   8.466  12.644   1.868 -1.0744 -0.0776 -1.5959
16559SOL     OW56281   4.677   7.128  12.526 -0.7003 -0.5012 -0.1221
16559SOL    HW156282   4.638   7.068  12.590  1.5644 -1.5504  0.3613
16559SOL    HW256283   4.688   7.210  12.574  1.6338 -1.4739  1.1799
16560SOL     OW56284   6.612   4.535   8.360  0.4427  0.1599  0.5993
16560SOL    HW156285   6.700   4.516   8.393  0.2045 -3.6336 -0.4833
16560SOL    HW256286   6.556   4.471   8.404 -1.2363  0.4084 -1.0569
16561SOL     OW56287   7.946   0.122   0.294  0.1684 -0.2125 -0.1969
16561SOL    HW156288   7.920   0.035   0.324  0.0784  0.6019  2.3509
16561SOL    HW256289   7.864   0.171   0.289  0.3911  0.2077  0.1709
16562SOL     OW56290  10.184   0.669  11.013  0.5875 -0.3217  0.1409
16562SOL    HW156291  10.094   0.701  11.006  0.4787 -0.3516  1.1428
16562SOL    HW256292  10.239   0.744  10.990  0.3676  1.0364  3.4355
16563SOL     OW56293   4.348   2.118  10.441  0.1473  0.0434 -0.0956
16563SOL    HW156294   4.265   2.159  10.416  0.3200  1.6065  1.6435
16563SOL    HW256295   4.325   2.029  10.467 -0.7991  0.0949 -0.7380
16564SOL     OW56296   4.162   8.770   5.635 -0.0257 -0.1357 -0.3276
16564SOL    HW156297   4.179   8.678   5.659  0.0400 -0.2535 -0.8094
16564SOL    HW256298   4.082   8.767   5.583  0.7698 -0.1334 -1.6235
16565SOL     OW56299   9.847   7.475   1.212 -0.0971  0.0892 -0.0724
16565SOL    HW156300   9.910   7.436   1.272  0.4609 -0.3855 -0.9452
16565SOL    HW256301   9.897   7.541   1.164 -0.3800  0.0339 -0.4487
16566SOL     OW56302   8.632   0.654   8.411  0.1995  0.3209  0.4771
16566SOL    HW156303   8.697   0.615   8.470  0.3102  0.3798  0.3950
16566SOL    HW256304   8.566   0.690   8.470  0.6322  0.9490  0.5971
16567SOL     OW56305   8.949   0.968   0.006 -0.2344 -0.4696 -0.1518
16567SOL    HW156306   8.922   1.060   0.010 -0.6629 -0.5525 -0.9187
16567SOL    HW256307   8.998   0.954   0.087 -1.0716  0.1476  0.4869
16568SOL     OW56308  12.761  10.931  12.524 -0.0927 -0.2498 -0.0974
16568SOL    HW156309  12.840  10.952  12.573 -1.0326  3.4687  0.1640
16568SOL    HW256310  12.782  10.953  12.433 -1.0905  2.2373  0.1699
16569SOL     OW56311   3.737   6.796   0.035 -0.2566 -0.5169 -0.3753
16569SOL    HW156312   3.716   6.826   0.123 -0.6401  0.4718 -0.7839
16569SOL    HW256313   3.812   6.849   0.009 -1.0250  0.2259 -1.1640
16570SOL     OW56314  10.595  12.041   7.302 -0.0880 -0.3453  0.3747
16570SOL    HW156315  10.540  12.025   7.225 -0.0815 -0.5816  0.4201
16570SOL    HW256316  10.679  12.069   7.266 -0.2945  0.1938  0.3081
16571SOL     OW56317   7.440   1.828  10.182  0.8858  0.3260  0.0527
16571SOL    HW156318   7.524   1.859  10.149  1.1367  0.5267  0.8563
16571SOL    HW256319   7.376   1.859  10.118  1.1424  2.3672  0.7373
16572SOL     OW56320  11.804   5.190   0.373 -0.3582 -0.0735 -0.2729
16572SOL    HW156321  11.838   5.181   0.284  1.0427  0.4528  0.1857
16572SOL    HW256322  11.713   5.218   0.362  0.1238  1.0574 -1.5298
16573SOL     OW56323   7.179   6.630   9.617  0.5164  0.0101 -0.1390
16573SOL    HW156324   7.084   6.632   9.615  0.5221  0.3048 -0.2601
16573SOL    HW256325   7.206   6.713   9.576  0.8122  0.4352  0.8727
16574SOL     OW56326   3.270  12.125  11.382 -0.3595 -0.2098 -0.2447
16574SOL    HW156327   3.245  12.108  11.473  1.3564 -0.2127  0.2541
16574SOL    HW256328   3.244  12.046  11.335 -1.2016 -0.2358  0.2468
16575SOL     OW56329  12.462  10.862   7.797  0.0103  0.5806  0.4336
16575SOL    HW156330  12.411  10.927   7.846 -0.1327 -0.0511  1.1511
16575SOL    HW256331  12.472  10.789   7.858 -1.0129 -0.6537 -0.8272
16576SOL     OW56332   9.185  12.436   6.861 -0.6940  0.2380 -0.5539
16576SOL    HW156333   9.186  12.465   6.770 -2.0247  1.0918 -0.3126
16576SOL    HW256334   9.097  12.400   6.874 -0.2409 -0.6658  0.1682
16577SOL     OW56335  10.415   2.682   3.169  0.7492 -0.3360  0.5583
16577SOL    HW156336  10.364   2.711   3.244  0.7261  1.7923 -0.2004
16577SOL    HW256337  10.478   2.753   3.155  2.8550 -2.1283  0.4630
16578SOL     OW56338   6.702   7.365   2.340 -0.2901 -0.8587 -0.2481
16578SOL    HW156339   6.720   7.291   2.399  0.8885  1.1385  2.0776
16578SOL    HW256340   6.756   7.346   2.263  0.0375 -2.3964  0.3035
16579SOL     OW56341   9.102   3.974   9.448  0.0583  0.1628  0.0961
16579SOL    HW156342   9.060   4.049   9.490 -0.8325 -0.6278  0.6433
16579SOL    HW256343   9.040   3.946   9.381  0.0228 -0.5851  0.4391
16580SOL     OW56344   1.232   3.373  11.191 -0.0474  0.0816  0.2652
16580SOL    HW156345   1.183   3.303  11.233  0.7029 -1.4436 -1.2674
16580SOL    HW256346   1.170   3.445  11.184 -1.6115 -1.2583 -0.2471
16581SOL     OW56347   2.706   6.051   7.534  0.6627 -0.6606  0.0485
16581SOL    HW156348   2.640   6.068   7.601  0.8069 -0.2972  0.0981
16581SOL    HW256349   2.697   5.958   7.515  0.8474 -0.8378  0.8078
16582SOL     OW56350   2.171  12.475  12.693  0.1653  0.0436 -0.0669
16582SOL    HW156351   2.086  12.474  12.649 -2.0319  1.5147  3.6697
16582SOL    HW256352   2.150  12.476  12.787  4.3832 -1.1238  1.1395
16583SOL     OW56353   4.293   6.059   7.218 -0.6549  0.4201  0.0061
16583SOL    HW156354   4.262   6.009   7.293  1.3293  0.5465  0.9515
16583SOL    HW256355   4.386   6.073   7.234 -0.5825  2.1281 -1.5371
16584SOL     OW56356   2.821  12.141  11.484  0.4118 -0.2551 -0.2563
16584SOL    HW156357   2.867  12.108  11.561  0.5927  0.5697 -0.0044
16584SOL    HW256358   2.847  12.082  11.414  0.4140 -0.8879  0.2645
16585SOL     OW56359  10.306   8.485   2.414 -0.0799  0.3513  0.0694
16585SOL    HW156360  10.369   8.414   2.426 -1.3743 -0.7777  0.4402
16585SOL    HW256361  10.331   8.526   2.331  0.5937 -0.6420 -0.2294
16586SOL     OW56362   1.205   6.236   5.133 -0.3107  0.4677 -0.1890
16586SOL    HW156363   1.298   6.233   5.158 -0.4576  0.8772  0.4219
16586SOL    HW256364   1.159   6.206   5.211 -0.5722 -2.6510 -1.3886
16587SOL     OW56365   7.935   7.371  11.937  0.0999 -0.1994  0.3666
16587SOL    HW156366   8.026   7.355  11.960 -0.0159 -0.5131  0.6138
16587SOL    HW256367   7.935   7.378  11.842  0.5210  0.7121  0.4286
16588SOL     OW56368  10.062   7.934   1.347  0.5146 -0.1701  0.1178
16588SOL    HW156369  10.041   7.853   1.300 -1.2508  0.7620 -0.7535
16588SOL    HW256370  10.153   7.953   1.322  0.4255 -1.0263 -0.9253
16589SOL     OW56371   3.702   8.055  12.788 -0.3011  0.1714  0.2641
16589SOL    HW156372   3.780   8.003  12.772  0.5120  0.9339  1.5767
16589SOL    HW256373   3.704   8.073  12.882 -0.9100  1.9867 -0.0352
16590SOL     OW56374   6.213   9.269   9.384 -0.1068 -0.6617 -0.4854
16590SOL    HW156375   6.228   9.305   9.296 -1.7378  0.4020 -0.3833
16590SOL    HW256376   6.169   9.340   9.431  0.8994 -1.1503  1.2770
16591SOL     OW56377   8.311   3.165  12.113  0.3429 -0.5657  0.4574
16591SOL    HW156378   8.321   3.255  12.145 -1.2044  0.3878 -1.4889
16591SOL    HW256379   8.300   3.112  12.192 -0.9454  1.2832  1.6085
16592SOL     OW56380   8.466   2.502   9.243  0.3532  0.1939  0.0314
16592SOL    HW156381   8.489   2.433   9.181  0.9334  1.6766 -1.4808
16592SOL    HW256382   8.419   2.456   9.313  0.7099 -1.7151 -0.9001
16593SOL     OW56383   9.303   3.500   9.217  0.2572 -0.0577  0.2752
16593SOL    HW156384   9.373   3.508   9.152  0.5769  1.5248  0.7785
16593SOL    HW256385   9.268   3.588   9.227 -1.3601 -0.6878  0.5659
16594SOL     OW56386   9.747   3.836   6.760 -0.0043 -0.3931  0.4113
16594SOL    HW156387   9.677   3.880   6.713  0.4380 -0.0169  0.0899
16594SOL    HW256388   9.775   3.899   6.826  1.2232  0.1978 -0.6195
16595SOL     OW56389   0.384   8.920   4.836  0.2074  0.3756 -0.1359
16595SOL    HW156390   0.391   8.992   4.772 -0.3239 -0.1486 -0.8008
16595SOL    HW256391   0.320   8.860   4.797 -0.5385  0.3016  1.1392
16596SOL     OW56392   6.233  10.368   8.156  0.2941  0.9233 -0.3118
16596SOL    HW156393   6.138  10.377   8.150  0.0297 -1.4209 -0.8540
16596SOL    HW256394   6.248  10.322   8.239  0.9689  1.2964 -0.2154
16597SOL     OW56395   8.049   2.837   4.677 -0.4142  0.7300  0.3222
16597SOL    HW156396   8.065   2.921   4.635  0.6789  0.7103  0.6478
16597SOL    HW256397   7.973   2.852   4.733  0.7689  1.9995  1.6607
16598SOL     OW56398   2.401   5.796   9.300 -0.2555  0.1861  0.3794
16598SOL    HW156399   2.407   5.730   9.231  0.4106 -0.0291  0.6342
16598SOL    HW256400   2.413   5.746   9.382 -0.8396  0.4663  0.6404
16599SOL     OW56401   6.631  10.681   7.993  0.3679  0.1214  0.0122
16599SOL    HW156402   6.604  10.770   7.974  0.0337  0.1381  0.5237
16599SOL    HW256403   6.557  10.644   8.042  0.6800 -0.2930  0.1819
16600SOL     OW56404   4.876   3.255   4.886 -0.5490 -0.3857  0.2621
16600SOL    HW156405   4.858   3.277   4.978  0.8895 -0.7184  0.6394
16600SOL    HW256406   4.794   3.219   4.854 -1.4479  0.8370  1.0650
16601SOL     OW56407  12.486  10.568   6.082 -0.2817  0.0727 -0.1701
16601SOL    HW156408  12.502  10.653   6.041 -0.3877  0.0570 -0.2444
16601SOL    HW256409  12.391  10.556   6.077 -0.1711 -0.5027 -1.0572
16602SOL     OW56410   2.209   5.420   5.065 -0.0481 -0.3163 -0.0490
16602SOL    HW156411   2.182   5.498   5.016 -1.1295 -2.1285 -2.5676
16602SOL    HW256412   2.295   5.397   5.028  0.5574 -0.0285  1.1174
16603SOL     OW56413   1.756   6.253   4.339 -0.8460  0.0569 -0.8728
16603SOL    HW156414   1.724   6.223   4.424 -1.8024  1.6321 -0.6369
16603SOL    HW256415   1.694   6.218   4.276  0.4131 -1.9584 -1.0935
16604SOL     OW56416   0.325   2.132   8.160  0.2048  0.2102 -0.1678
16604SOL    HW156417   0.385   2.162   8.227  1.1910  0.0464 -0.9550
16604SOL    HW256418   0.287   2.052   8.196  0.4645  0.3128  0.3338
16605SOL     OW56419   6.207  12.112   9.602 -0.6950  0.0522 -0.4371
16605SOL    HW156420   6.115  12.098   9.580 -0.7540  1.3313 -1.0967
16605SOL    HW256421   6.254  12.096   9.520 -0.0410 -2.6492  0.3457
16606SOL     OW56422   1.205  10.276   3.782  0.0223  0.0302  0.4491
16606SOL    HW156423   1.210  10.370   3.762 -0.1834  0.2773  1.5191
16606SOL    HW256424   1.283  10.238   3.740  0.3793  0.7545  0.4426
16607SOL     OW56425   2.810   8.956   3.140  0.4247  0.5247  0.5522
16607SOL    HW156426   2.889   9.010   3.149 -0.6733  2.8127 -2.1180
16607SOL    HW256427   2.742   9.007   3.183 -0.1918  0.1012  0.0806
16608SOL     OW56428  10.311  10.498   4.693  0.8457  0.0731  0.4783
16608SOL    HW156429  10.385  10.446   4.724  0.2556 -0.8858  0.3292
16608SOL    HW256430  10.295  10.561   4.764  0.4377 -1.1314  1.5011
16609SOL     OW56431  11.956   5.371   0.843 -0.7143 -0.3726  0.5992
16609SOL    HW156432  11.957   5.276   0.832 -0.6593 -0.6294  2.4733
16609SOL    HW256433  11.952   5.406   0.754 -0.9295 -2.1274 -0.1115
16610SOL     OW56434   6.427  10.917  10.305 -0.0650  0.2177 -0.2783
16610SOL    HW156435   6.481  10.987  10.341 -0.8129  0.5429  0.2296
16610SOL    HW256436   6.338  10.936  10.335  0.0002 -2.1036  1.7152
16611SOL     OW56437  10.793  10.743   4.366 -0.1310 -0.0298  0.2889
16611SOL    HW156438  10.831  10.819   4.410 -1.7820  1.2964 -0.4812
16611SOL    HW256439  10.700  10.764   4.358 -0.9880 -2.8490  1.4852
16612SOL     OW56440   3.081   8.864   7.476 -0.4062  0.5646  0.2887
16612SOL    HW156441   3.164   8.908   7.496  0.2792 -0.0022 -1.1627
16612SOL    HW256442   3.038   8.854   7.561  0.7939  1.2979  1.0105
16613SOL     OW56443   3.343   0.344   6.352  0.3677  0.3455 -0.2754
16613SOL    HW156444   3.334   0.439   6.358  0.6209  0.3067  1.0088
16613SOL    HW256445   3.424   0.330   6.304 -0.9864  0.7402 -2.8306
16614SOL     OW56446   1.344  12.305   9.018 -0.2410 -0.0138 -0.0679
16614SOL    HW156447   1.315  12.222   9.057  0.0566  0.3977  1.0540
16614SOL    HW256448   1.375  12.357   9.092 -1.3456  1.5004 -0.6231
16615SOL     OW56449   9.643   8.464   4.252  0.3045 -0.4115  0.7521
16615SOL    HW156450   9.703   8.536   4.269 -1.6046  1.1220  1.3482
16615SOL    HW256451   9.632   8.463   4.157  2.1750 -1.5191  0.5149
16616SOL     OW56452  11.828   4.183  10.411  0.2227  0.3430  0.9039
16616SOL    HW156453  11.898   4.199  10.474  0.4560 -2.0925  1.3749
16616SOL    HW256454  11.752   4.229  10.447  0.3482 -0.9685  3.0599
16617SOL     OW56455   2.495  11.294   3.634  0.6343 -0.4883 -0.2925
16617SOL    HW156456   2.431  11.350   3.677  1.8694 -0.5800  1.7805
16617SOL    HW256457   2.540  11.351   3.572  0.9278  0.4663  0.7866
16618SOL     OW56458   8.776   8.309  10.775 -0.0413  0.2800 -0.6927
16618SOL    HW156459   8.813   8.396  10.793  0.2918  0.0749 -0.3626
16618SOL    HW256460   8.797   8.292  10.684 -0.9244  0.9407 -1.0364
16619SOL     OW56461   1.761   6.994   9.633  0.0724  0.4830  0.4036
16619SOL    HW156462   1.685   6.952   9.671  0.0088 -2.4308 -2.5197
16619SOL    HW256463   1.732   7.084   9.614 -1.7933  0.1653  1.5191
16620SOL     OW56464   4.865   0.981   3.029 -0.3472  0.4447 -0.6036
16620SOL    HW156465   4.952   0.954   2.999  0.7007  1.0371  1.6840
16620SOL    HW256466   4.869   1.077   3.029 -0.3714  0.4777  1.0692
16621SOL     OW56467   5.954   3.148   6.893  0.1303 -0.1734 -0.2076
16621SOL    HW156468   5.871   3.162   6.846  0.0268  0.8903  0.2587
16621SOL    HW256469   6.014   3.212   6.855  0.2843  0.1242  0.5289
16622SOL     OW56470   5.839  10.589   5.057 -0.2218  0.2417  0.1884
16622SOL    HW156471   5.785  10.510   5.062  1.1194 -0.6736  1.2626
16622SOL    HW256472   5.870  10.602   5.147  0.8609  1.0509 -0.2761
16623SOL     OW56473   5.533  12.082   4.130 -0.4552  0.1468  0.0033
16623SOL    HW156474   5.499  12.171   4.140  0.5726  0.4727  0.9670
16623SOL    HW256475   5.518  12.041   4.216  0.3275 -0.1254  0.0231
16624SOL     OW56476  10.678   1.137  10.259  0.2091  0.1109  0.2956
16624SOL    HW156477  10.594   1.179  10.274 -0.8330 -1.3049 -1.2708
16624SOL    HW256478  10.657   1.044  10.249  2.0346 -0.3584  0.4615
16625SOL     OW56479   6.861   8.099   2.835  0.0053 -1.0784 -0.1676
16625SOL    HW156480   6.920   8.051   2.777  0.1502 -0.6348 -0.3905
16625SOL    HW256481   6.773   8.080   2.802  0.1397  0.3490 -1.4785
16626SOL     OW56482   9.994   6.640   6.852 -0.2286 -0.2495  0.3866
16626SOL    HW156483  10.052   6.714   6.872 -3.2966  2.5814 -0.3346
16626SOL    HW256484   9.988   6.639   6.757 -1.4594 -0.3806  0.4570
16627SOL     OW56485  10.777   4.711   2.892 -0.1159 -0.2259 -0.2112
16627SOL    HW156486  10.862   4.719   2.934  0.4606  1.1172 -1.5594
16627SOL    HW256487  10.796   4.678   2.804 -0.9515  0.4047 -0.6443
16628SOL     OW56488   6.245   9.290   8.167  0.3462  0.8468  0.1760
16628SOL    HW156489   6.213   9.340   8.242 -0.8119 -0.6797  0.7437
16628SOL    HW256490   6.201   9.206   8.174  1.9155 -0.1171 -0.9877
16629SOL     OW56491  12.225   9.765   6.931  0.4447  0.2207 -0.0814
16629SOL    HW156492  12.212   9.763   6.836  2.5161  0.2250 -0.4031
16629SOL    HW256493  12.310   9.723   6.945 -0.2544 -0.6806  1.8775
16630SOL     OW56494   5.020  11.307   6.271 -0.4504  0.0547  0.5237
16630SOL    HW156495   5.004  11.312   6.177  0.9427 -0.6904  0.2160
16630SOL    HW256496   5.020  11.398   6.300 -1.4733  0.2609 -0.0822
16631SOL     OW56497   2.851  11.747   8.808  0.5283  0.2993  0.2685
16631SOL    HW156498   2.922  11.683   8.817 -0.0634 -0.5251 -0.7363
16631SOL    HW256499   2.866  11.788   8.723  0.2037  0.6292  0.3678
16632SOL     OW56500   5.621   5.946   0.983  0.9718  0.3507  0.3343
16632SOL    HW156501   5.664   5.943   0.897  0.5837  1.0646  0.1047
16632SOL    HW256502   5.555   6.016   0.974  0.5626  0.0611  1.0430
16633SOL     OW56503   3.285   5.080  10.583 -0.9265 -0.0189  0.0316
16633SOL    HW156504   3.357   5.118  10.532 -2.3467  0.1077 -1.9858
16633SOL    HW256505   3.261   5.001  10.535 -2.8551  0.5437  0.0137
16634SOL     OW56506   3.497  11.624   1.253 -0.7414 -0.3753 -0.3181
16634SOL    HW156507   3.573  11.659   1.301 -1.1699 -0.0336  0.1157
16634SOL    HW256508   3.436  11.697   1.248 -0.9901 -0.6113 -0.7923
16635SOL     OW56509   5.627   5.097   4.599 -0.1321  0.8452 -0.0835
16635SOL    HW156510   5.700   5.126   4.654 -0.1702  0.4062  0.2101
16635SOL    HW256511   5.653   5.009   4.570 -0.5119  0.7141 -0.0304
16636SOL     OW56512  12.227  11.219   3.445 -0.2869 -0.5650 -0.3316
16636SOL    HW156513  12.140  11.182   3.458 -0.5261  0.3745  0.9975
16636SOL    HW256514  12.234  11.288   3.511  1.4788 -0.6436 -0.3736
16637SOL     OW56515   2.278   4.674  10.159 -0.6972 -0.2312 -0.8333
16637SOL    HW156516   2.371   4.654  10.145 -0.2503 -0.5641  1.8964
16637SOL    HW256517   2.237   4.588  10.172 -0.6214 -0.0075  1.4550
16638SOL     OW56518   0.828   7.131   3.349 -0.4891 -0.0302 -0.2694
16638SOL    HW156519   0.873   7.124   3.265  2.7798 -0.6867  1.3729
16638SOL    HW256520   0.808   7.224   3.358  1.0718  0.4005 -0.8903
16639SOL     OW56521   4.310  12.240   7.108  0.3389 -0.7889  0.0916
16639SOL    HW156522   4.351  12.260   7.193 -0.0598 -1.2607  0.3991
16639SOL    HW256523   4.223  12.279   7.114  0.3599 -0.7019 -0.1579
16640SOL     OW56524   1.936   1.967   6.322  0.1151 -0.7957  0.5873
16640SOL    HW156525   1.971   2.054   6.336 -0.9487 -0.0255 -1.1316
16640SOL    HW256526   2.011   1.914   6.294  0.3140  0.3085 -1.1098
16641SOL     OW56527   1.653  11.626   6.330 -0.3867 -0.6174 -0.6129
16641SOL    HW156528   1.728  11.577   6.364 -1.8593 -3.0039 -0.5242
16641SOL    HW256529   1.682  11.658   6.245  1.0197 -0.7322 -0.1993
16642SOL     OW56530   5.056   0.857   1.536 -0.3094 -0.0802  0.5569
16642SOL    HW156531   5.083   0.948   1.524  2.0164 -0.7774 -0.2073
16642SOL    HW256532   5.026   0.829   1.449 -1.7466  0.1383  0.9644
16643SOL     OW56533  10.820  11.766   0.452 -0.0362  0.0854  0.5167
16643SOL    HW156534  10.875  11.726   0.520 -1.0007 -1.4445  0.4442
16643SOL    HW256535  10.737  11.719   0.457  0.5990 -1.8890 -3.3275
16644SOL     OW56536   0.627   6.278   9.856 -0.3054  0.0493 -0.6578
16644SOL    HW156537   0.706   6.257   9.905  0.5148  0.6384 -1.6883
16644SOL    HW256538   0.653   6.270   9.764 -0.8864  2.1313 -1.0547
16645SOL     OW56539  11.311   4.821   8.876 -0.2563 -0.4424 -0.5317
16645SOL    HW156540  11.359   4.869   8.943 -1.2330  1.0452 -0.8433
16645SOL    HW256541  11.223   4.810   8.913 -1.1320  1.3315 -1.8991
16646SOL     OW56542   5.896   8.811   3.717  0.1594  0.0620 -0.2771
16646SOL    HW156543   5.976   8.776   3.677  0.6279  1.5624 -0.7329
16646SOL    HW256544   5.870   8.745   3.781  0.8309 -1.2168 -1.2721
16647SOL     OW56545  11.892   2.930   0.338 -0.5628  0.3638 -0.3198
16647SOL    HW156546  11.856   3.018   0.343 -1.4353  0.2190 -2.7349
16647SOL    HW256547  11.981   2.942   0.304 -0.6863  0.3234 -0.6608
16648SOL     OW56548   4.014   5.124   4.578 -0.1928 -0.1549  0.2254
16648SOL    HW156549   3.962   5.049   4.605 -0.6768  0.3110  0.6092
16648SOL    HW256550   3.977   5.198   4.627  1.2637  0.0792  1.0407
16649SOL     OW56551   2.641   0.080   1.785  0.0672 -0.0407  0.3417
16649SOL    HW156552   2.599  -0.006   1.788  0.4463 -0.2834 -0.6391
16649SOL    HW256553   2.602   0.129   1.857 -1.5376 -0.4004 -0.2489
16650SOL     OW56554   8.048   4.084   1.590 -0.0887  0.1874  0.3475
16650SOL    HW156555   8.140   4.079   1.614 -0.0951  0.3729  0.4135
16650SOL    HW256556   8.031   4.002   1.544  0.6097  0.9416 -1.3842
16651SOL     OW56557   0.977   3.811   5.479 -0.2165  0.0674  0.0020
16651SOL    HW156558   0.931   3.757   5.416  0.2902 -0.5535  0.1569
16651SOL    HW256559   1.055   3.841   5.432  0.6973 -1.2342  0.6326
16652SOL     OW56560  10.956   7.174  10.360 -0.3218 -0.5207  0.3940
16652SOL    HW156561  10.925   7.249  10.410 -0.7392 -0.9455  0.7913
16652SOL    HW256562  10.884   7.111  10.364 -0.1567 -0.7634 -0.3170
16653SOL     OW56563   0.664   9.488  10.731 -0.0252  1.1164 -0.5285
16653SOL    HW156564   0.590   9.435  10.759 -0.2088  1.8521  0.4233
16653SOL    HW256565   0.640   9.518  10.643 -1.4188  2.3076  0.2146
16654SOL     OW56566  12.222   0.599  11.775  0.0377  0.1877 -0.5168
16654SOL    HW156567  12.291   0.574  11.836 -0.3440 -0.7327 -0.4442
16654SOL    HW256568  12.223   0.695  11.775  1.1711  0.1916 -0.3633
16655SOL     OW56569   5.136   4.125   7.460 -0.2525  0.6633  0.7364
16655SOL    HW156570   5.197   4.113   7.532  1.4307  1.7881 -0.4402
16655SOL    HW256571   5.130   4.219   7.448 -0.6482  0.5118 -0.4509
16656SOL     OW56572   5.683   7.484   1.745  0.2407 -0.8316 -0.2694
16656SOL    HW156573   5.718   7.547   1.682 -1.0209  0.3296  0.1601
16656SOL    HW256574   5.682   7.532   1.828 -3.5098 -0.2780 -0.4577
16657SOL     OW56575   5.628   1.466  10.897  0.2676  0.2179 -0.3136
16657SOL    HW156576   5.590   1.554  10.901  0.3968  0.2561  0.2102
16657SOL    HW256577   5.647   1.451  10.805  0.8005  0.9783 -0.3310
16658SOL     OW56578   3.619   0.057   3.589  0.2425 -0.1429 -0.0256
16658SOL    HW156579   3.607  -0.023   3.640  1.2409 -0.2797  0.0258
16658SOL    HW256580   3.691   0.037   3.529 -0.9192  0.0091 -1.5232
16659SOL     OW56581   0.297   9.127  10.609 -0.1295  0.2473  0.0766
16659SOL    HW156582   0.211   9.133  10.649 -0.6471  1.2304 -1.1203
16659SOL    HW256583   0.292   9.049  10.553  0.1576 -0.3530  0.8609
16660SOL     OW56584   9.185  11.367   0.269 -0.1792 -0.1022  0.3526
16660SOL    HW156585   9.162  11.425   0.342 -0.1879  2.5090 -1.5705
16660SOL    HW256586   9.120  11.387   0.201  1.0139 -0.9609 -1.1120
16661SOL     OW56587   4.364  10.269  10.577  0.1395 -0.0627 -0.2638
16661SOL    HW156588   4.378  10.254  10.671 -0.5848 -0.0229 -0.1394
16661SOL    HW256589   4.288  10.328  10.574  0.6546  0.5753 -0.8547
16662SOL     OW56590  10.314  10.822   9.463  0.2828 -0.4402  0.6239
16662SOL    HW156591  10.400  10.847   9.430 -0.1866 -0.2215 -0.4847
16662SOL    HW256592  10.323  10.729   9.485  1.1481 -0.1108  1.7673
16663SOL     OW56593   4.782   9.271   9.656  0.2189 -0.9257 -0.4044
16663SOL    HW156594   4.848   9.206   9.632  0.0758 -1.5583  0.8668
16663SOL    HW256595   4.718   9.268   9.585  0.3390 -1.9875 -0.4762
16664SOL     OW56596   6.815   8.929   8.869  0.2857 -0.4082 -0.2931
16664SOL    HW156597   6.894   8.934   8.815  2.0256 -1.8785  1.9589
16664SOL    HW256598   6.771   9.013   8.854  2.3534  0.5520 -1.4827
16665SOL     OW56599   3.856   3.261  10.466  0.0724 -0.3055  0.0522
16665SOL    HW156600   3.930   3.242  10.408 -0.2825 -1.2077 -0.1329
16665SOL    HW256601   3.883   3.226  10.551 -0.1581 -0.6812 -0.0281
16666SOL     OW56602   6.224  12.037   4.359 -0.3432  0.0131  0.6473
16666SOL    HW156603   6.181  12.019   4.443 -1.2352 -2.0573 -0.1787
16666SOL    HW256604   6.317  12.042   4.381 -0.6578  0.6423  1.9163
16667SOL     OW56605  11.467   9.266   5.632  0.3919 -0.1071  0.8865
16667SOL    HW156606  11.436   9.270   5.541  0.2107  1.5504  0.9961
16667SOL    HW256607  11.386   9.266   5.684  0.5122 -0.3860  1.0773
16668SOL     OW56608  11.384   7.143   5.565 -1.1137 -0.1450  0.2355
16668SOL    HW156609  11.414   7.069   5.513 -0.6560 -0.2472  0.6324
16668SOL    HW256610  11.386   7.217   5.505  1.3179  0.1565  0.5578
16669SOL     OW56611   2.246   9.261   5.788 -0.0336 -0.6639  0.2890
16669SOL    HW156612   2.301   9.320   5.840  0.0143 -1.0713  0.7129
16669SOL    HW256613   2.208   9.317   5.720 -1.7474  0.3393  1.9761
16670SOL     OW56614   3.863   8.880   0.660 -0.0437  0.1459  0.3447
16670SOL    HW156615   3.948   8.842   0.682  0.1678  0.5434  0.2166
16670SOL    HW256616   3.875   8.915   0.572 -0.6781 -0.8103 -0.1412
16671SOL     OW56617  12.786   5.928   5.363  0.2495  0.3017  0.3784
16671SOL    HW156618  12.706   5.888   5.397 -0.3216  0.9650 -0.1646
16671SOL    HW256619  12.789   6.014   5.406  0.8112  0.1783  0.5913
16672SOL     OW56620   1.027  10.837   8.800 -0.0580  0.3370  0.5985
16672SOL    HW156621   1.052  10.772   8.734 -1.3377  1.2891 -0.8759
16672SOL    HW256622   0.978  10.787   8.865  0.0035 -0.3848  0.1064
16673SOL     OW56623   8.739   4.776   8.771 -0.4678 -0.0723  0.3232
16673SOL    HW156624   8.681   4.709   8.807  2.1898 -1.7869  1.7219
16673SOL    HW256625   8.772   4.737   8.690 -1.2740  0.9393 -0.5225
16674SOL     OW56626  11.777   1.446   2.930 -0.3116 -0.1717  0.4716
16674SOL    HW156627  11.868   1.449   2.961 -0.7314  0.0030  1.7196
16674SOL    HW256628  11.780   1.387   2.855  0.7710 -0.4613  0.7226
16675SOL     OW56629  10.301  10.424   3.160 -0.6027 -0.3128 -0.0505
16675SOL    HW156630  10.243  10.453   3.230 -0.9131 -0.8399 -0.0876
16675SOL    HW256631  10.257  10.349   3.121 -1.5579  1.2883 -2.2914
16676SOL     OW56632   1.019   8.214   6.967  0.0453 -0.6397 -0.2051
16676SOL    HW156633   1.066   8.226   7.049  0.7461  1.2973 -0.8294
16676SOL    HW256634   1.060   8.138   6.926  0.4872 -0.8935  0.6959
16677SOL     OW56635   6.030  11.586  11.701  0.0195  0.1236 -0.7203
16677SOL    HW156636   6.116  11.557  11.732 -0.4418  0.9584  1.5304
16677SOL    HW256637   5.980  11.505  11.691  0.2573 -0.2177  0.6332
16678SOL     OW56638   0.467   9.743   6.646 -0.0296 -0.5721  0.1275
16678SOL    HW156639   0.422   9.807   6.700 -0.7237 -0.7725 -0.2026
16678SOL    HW256640   0.493   9.791   6.567  1.5666 -0.1117  0.8835
16679SOL     OW56641   4.943   7.711  11.515  0.3251 -0.4573  0.2455
16679SOL    HW156642   4.881   7.782  11.532 -0.6917 -1.5267  1.1699
16679SOL    HW256643   4.995   7.742  11.440 -1.7023  0.2501 -0.9423
16680SOL     OW56644   4.534   6.231  11.189  0.1599  0.9257  0.3813
16680SOL    HW156645   4.469   6.161  11.192  1.2715 -0.1090  1.5456
16680SOL    HW256646   4.522   6.271  11.103 -1.4505  0.2328  0.2526
16681SOL     OW56647   1.093   3.649   7.790  0.2236  0.4465 -0.1904
16681SOL    HW156648   1.046   3.705   7.729  2.1055  1.9190 -0.3735
16681SOL    HW256649   1.122   3.708   7.860 -1.1022 -1.0318  1.7397
16682SOL     OW56650  11.174   8.597   3.612 -0.5193 -0.4929  0.1870
16682SOL    HW156651  11.194   8.542   3.689 -0.3712 -1.5449 -0.5829
16682SOL    HW256652  11.254   8.595   3.560 -0.7957 -0.2055 -0.2555
16683SOL     OW56653   8.945   9.445   5.274  0.3912 -0.1509  0.5343
16683SOL    HW156654   8.974   9.384   5.206  5.0666 -0.4291  2.4226
16683SOL    HW256655   8.908   9.389   5.342  0.9388 -0.4681  0.5774
16684SOL     OW56656   5.788   9.776   5.989 -0.0409  0.5730 -0.3244
16684SOL    HW156657   5.878   9.808   6.000  0.6080 -1.1731 -0.0820
16684SOL    HW256658   5.791   9.727   5.906  0.7238 -3.7751  1.9407
16685SOL     OW56659  11.485   8.645   0.210  0.6097 -0.1599  0.3188
16685SOL    HW156660  11.424   8.610   0.146 -0.5749  0.0259  1.3031
16685SOL    HW256661  11.556   8.683   0.158  0.3847 -1.2422 -0.8231
16686SOL     OW56662  11.795   4.841  12.303  0.3653  0.2626  0.1516
16686SOL    HW156663  11.802   4.928  12.342  3.7518  0.2128 -0.0593
16686SOL    HW256664  11.710   4.808  12.333 -0.2288  2.9121  1.6897
16687SOL     OW56665   0.806   2.401  11.076  0.1151  0.4124  0.2724
16687SOL    HW156666   0.800   2.480  11.022  1.5745  0.1951 -0.2460
16687SOL    HW256667   0.897   2.374  11.070 -0.2225 -0.9918  0.9282
16688SOL     OW56668   2.545  10.470   9.050  0.1922 -0.6345 -0.0782
16688SOL    HW156669   2.549  10.375   9.037 -0.2247 -0.7618  0.6594
16688SOL    HW256670   2.637  10.497   9.055  0.3227 -0.8988 -0.9606
16689SOL     OW56671   2.729   8.616   5.570  0.2149  0.3428 -0.5774
16689SOL    HW156672   2.720   8.697   5.520 -0.6394  0.8656  0.3817
16689SOL    HW256673   2.734   8.644   5.661  1.0720 -0.6263 -0.3030
16690SOL     OW56674   5.104   6.750   2.813 -0.0761 -0.3239  0.3506
16690SOL    HW156675   5.112   6.667   2.765 -0.8393 -0.8466  1.1119
16690SOL    HW256676   5.144   6.815   2.754  0.4865 -1.2128 -0.2756
16691SOL     OW56677  11.474   4.488   6.988  0.3443 -0.0577 -0.0210
16691SOL    HW156678  11.465   4.419   7.053  1.0574  0.6841  0.8926
16691SOL    HW256679  11.430   4.453   6.910 -1.6508 -0.4477  1.2126
16692SOL     OW56680   2.604  10.033  12.488  0.2649  0.1221  0.0498
16692SOL    HW156681   2.561   9.966  12.435  0.3517 -0.7848  1.0754
16692SOL    HW256682   2.695  10.033  12.457 -0.5274  2.5838 -2.6498
16693SOL     OW56683   7.838   5.066  12.019 -0.3009  0.3489  0.1445
16693SOL    HW156684   7.890   5.138  11.983 -1.2708  0.9535 -0.1040
16693SOL    HW256685   7.767   5.055  11.956 -0.9938  0.1836  0.9368
16694SOL     OW56686   2.940   3.347   5.615  0.5370  0.4829  0.1976
16694SOL    HW156687   2.889   3.278   5.573  0.1827 -0.1210  1.5604
16694SOL    HW256688   3.001   3.377   5.547 -1.0631  0.6650 -1.2238
16695SOL     OW56689   5.907   7.112   6.322 -0.2958 -0.2904 -0.0134
16695SOL    HW156690   5.934   7.027   6.286  0.4128  0.2496 -0.7611
16695SOL    HW256691   5.988   7.153   6.351 -0.4526  0.7675 -1.0279
16696SOL     OW56692   2.525  12.113  10.779  0.1185 -0.2312 -0.2610
16696SOL    HW156693   2.527  12.209  10.772  2.1224 -0.1281  0.9125
16696SOL    HW256694   2.452  12.095  10.838  1.2339  0.8061  1.5474
16697SOL     OW56695  10.076  11.542   8.088 -0.1835 -0.7232 -0.6242
16697SOL    HW156696  10.070  11.571   7.996 -0.5319 -0.6405 -0.5772
16697SOL    HW256697  10.007  11.590   8.132  0.0938 -0.6370 -0.2809
16698SOL     OW56698   4.440  11.206   9.354 -0.3436  0.0126  0.2762
16698SOL    HW156699   4.427  11.182   9.446 -0.8690 -1.1384 -0.0881
16698SOL    HW256700   4.394  11.289   9.345  0.5466  0.6515  1.2854
16699SOL     OW56701   2.242   0.070   7.023 -0.1135 -0.1737 -0.5293
16699SOL    HW156702   2.309   0.135   7.002  1.9848 -1.2738  2.1541
16699SOL    HW256703   2.190   0.111   7.092  0.5320 -0.8539  0.3928
16700SOL     OW56704   3.207   1.710   0.466 -0.1549  0.3074  0.4079
16700SOL    HW156705   3.160   1.632   0.439 -1.2890  0.3698  2.0178
16700SOL    HW256706   3.227   1.756   0.385 -1.5801 -0.4682 -0.4272
16701SOL     OW56707   3.260   1.494  11.022 -0.2225 -0.1344  0.2615
16701SOL    HW156708   3.342   1.454  10.992 -1.1826 -0.5193 -2.0311
16701SOL    HW256709   3.285   1.584  11.044  0.6807  0.0512 -1.3191
16702SOL     OW56710   6.513  11.525   9.720  0.2393 -0.3194 -0.0223
16702SOL    HW156711   6.552  11.566   9.643 -0.5177  0.2997 -0.0846
16702SOL    HW256712   6.477  11.442   9.688 -0.8097  0.3213 -0.5158
16703SOL     OW56713   7.125   7.952   8.226 -0.2028 -0.0206 -0.3880
16703SOL    HW156714   7.217   7.929   8.220 -0.4833 -1.1849 -0.4712
16703SOL    HW256715   7.079   7.881   8.181 -1.2889 -0.6942  1.6030
16704SOL     OW56716   8.888   8.053   9.079 -0.2283 -0.5270 -0.0680
16704SOL    HW156717   8.951   8.035   9.149  0.4809  4.1076  0.8452
16704SOL    HW256718   8.804   8.061   9.124 -0.0454  0.8515  0.0863
16705SOL     OW56719   3.946   5.717   6.319  0.2552 -0.0878 -0.3482
16705SOL    HW156720   3.920   5.755   6.235  1.6267 -0.7185 -1.0909
16705SOL    HW256721   3.990   5.788   6.365 -1.3967  0.5568  0.2997
16706SOL     OW56722   9.852   8.875   2.424 -0.0931 -0.4738  0.2498
16706SOL    HW156723   9.840   8.970   2.425  3.5224  0.1253  0.6955
16706SOL    HW256724   9.843   8.849   2.516  0.9704 -0.2006  0.4380
16707SOL     OW56725  11.613   7.763   4.191  0.8130 -0.6828 -0.3182
16707SOL    HW156726  11.612   7.839   4.249  1.0163 -0.7629 -0.2083
16707SOL    HW256727  11.528   7.720   4.208  1.2435 -1.2141  0.6159
16708SOL     OW56728   4.450   7.618   6.497 -0.3955 -0.2561 -0.8369
16708SOL    HW156729   4.532   7.617   6.547  0.4151 -0.3287 -2.1222
16708SOL    HW256730   4.418   7.528   6.502  0.4736 -0.6327 -1.6595
16709SOL     OW56731   9.492   2.203   8.263 -0.1856  0.0267  0.2644
16709SOL    HW156732   9.407   2.227   8.299 -0.0830 -1.0311  1.2870
16709SOL    HW256733   9.555   2.240   8.325  0.1505  1.2919 -0.7836
16710SOL     OW56734   1.899   0.262   4.937  0.6298 -0.2888  0.0346
16710SOL    HW156735   1.821   0.306   4.971 -0.7167 -1.8643 -0.8682
16710SOL    HW256736   1.972   0.301   4.986 -0.6660  1.4533  0.6881
16711SOL     OW56737   1.254   8.062   7.319 -0.1248  0.0647  0.3712
16711SOL    HW156738   1.222   8.035   7.405 -0.6175 -0.3772  0.0554
16711SOL    HW256739   1.340   8.022   7.312 -0.3688 -0.4785  0.3831
16712SOL     OW56740   2.646  12.305  11.356 -0.1981 -0.2551 -0.3050
16712SOL    HW156741   2.704  12.242  11.399 -0.9429 -0.5778  0.2471
16712SOL    HW256742   2.620  12.261  11.275 -0.4494 -0.5269 -0.0807
16713SOL     OW56743   1.524  12.047   8.269  0.4139 -0.4245 -0.1439
16713SOL    HW156744   1.551  12.066   8.179 -1.2400  1.7348 -0.2932
16713SOL    HW256745   1.511  12.134   8.308  0.1501 -1.3236  1.8800
16714SOL     OW56746  10.900   8.777   9.854  0.1963  0.5173  0.3755
16714SOL    HW156747  10.827   8.838   9.869  0.6473  0.8603  1.2389
16714SOL    HW256748  10.950   8.780   9.935 -0.6181 -2.1923  1.0758
16715SOL     OW56749   0.358   8.287   1.708 -0.3097 -1.0557 -0.2626
16715SOL    HW156750   0.358   8.354   1.640  3.5236 -0.6448 -0.0680
16715SOL    HW256751   0.366   8.335   1.790 -2.7323 -1.6501  0.4011
16716SOL     OW56752  11.998   5.574   0.026  0.3989 -0.1015  0.3944
16716SOL    HW156753  12.003   5.643   0.091  0.9363  0.0485  0.1937
16716SOL    HW256754  11.921   5.523   0.051 -0.0998  0.6607  0.4466
16717SOL     OW56755   9.890   3.464   0.094  0.3874  0.1024  0.4588
16717SOL    HW156756   9.931   3.521   0.160 -0.0557  0.6022  0.3127
16717SOL    HW256757   9.813   3.428   0.138 -1.1425  2.1113 -0.4067
16718SOL     OW56758   3.568   0.700   6.944 -0.4536  0.3812  0.6325
16718SOL    HW156759   3.661   0.693   6.922 -0.7421  0.1651 -0.6164
16718SOL    HW256760   3.530   0.616   6.919 -1.2715  1.0385 -0.4931
16719SOL     OW56761   0.422  10.211   4.379 -0.0223  0.5123  0.2827
16719SOL    HW156762   0.483  10.251   4.318 -0.8498 -0.7357 -1.4595
16719SOL    HW256763   0.474  10.147   4.428  0.3338  0.4284 -0.2055
16720SOL     OW56764  10.146   2.821   5.111 -0.2670 -0.3109  0.8570
16720SOL    HW156765  10.177   2.911   5.103 -0.4170 -0.4624 -2.9083
16720SOL    HW256766  10.225   2.767   5.102 -0.5198 -0.5629  0.0413
16721SOL     OW56767   4.900   7.988   6.222  0.3621  0.6276  0.3869
16721SOL    HW156768   4.995   7.994   6.216  0.1853  2.6702 -2.8974
16721SOL    HW256769   4.879   7.903   6.184  0.8090  1.1057 -0.9709
16722SOL     OW56770   4.646  11.427   9.562 -0.5837  0.2555 -0.3015
16722SOL    HW156771   4.671  11.519   9.568 -1.4078  0.5460 -1.1141
16722SOL    HW256772   4.618  11.403   9.651 -2.6032  1.4643 -0.5572
16723SOL     OW56773   5.820   4.217   6.830  0.7916 -0.5594 -0.2334
16723SOL    HW156774   5.914   4.221   6.816  0.8045 -0.9503 -0.2656
16723SOL    HW256775   5.807   4.140   6.885  0.3610 -1.3640 -1.4201
16724SOL     OW56776  12.351  12.747   1.802 -0.2642  0.3985 -0.1120
16724SOL    HW156777  12.443  12.753   1.773  0.0635 -0.8853  0.5989
16724SOL    HW256778  12.345  12.812   1.872  0.4437 -0.3042  0.6312
16725SOL     OW56779   4.423   6.735   2.727  0.3880 -0.3819 -0.5790
16725SOL    HW156780   4.452   6.824   2.749  0.6994 -1.1727  2.8635
16725SOL    HW256781   4.334   6.747   2.694 -0.5812  1.1576  2.2422
16726SOL     OW56782   5.424   2.003   1.689 -0.4312  1.1071 -0.0031
16726SOL    HW156783   5.468   1.920   1.670  0.2450  1.5784 -0.5306
16726SOL    HW256784   5.332   1.987   1.666  0.0285  1.0845 -1.9703
16727SOL     OW56785   4.297   0.048   3.981 -0.0248  0.5384  0.2884
16727SOL    HW156786   4.339  -0.017   4.038 -0.1545  1.0583  0.9921
16727SOL    HW256787   4.268   0.116   4.041 -1.3419  0.4738 -0.2512
16728SOL     OW56788   9.503   8.519   0.983 -0.6884  0.2987  0.0929
16728SOL    HW156789   9.419   8.502   0.940  0.1014 -0.1800 -1.3569
16728SOL    HW256790   9.509   8.452   1.051 -1.2132 -0.0594 -0.2047
16729SOL     OW56791   1.952   1.072  11.866 -0.1064 -0.7021 -0.2113
16729SOL    HW156792   1.975   0.980  11.881 -0.9904 -0.6187  2.0989
16729SOL    HW256793   1.975   1.116  11.948 -0.5378  0.9812 -0.9519
16730SOL     OW56794  10.695   3.799   4.422 -0.0304  0.2731 -0.2942
16730SOL    HW156795  10.713   3.881   4.468  0.4182 -0.3516  0.6580
16730SOL    HW256796  10.720   3.730   4.483 -1.7576 -0.6174 -0.5066
16731SOL     OW56797   1.696  12.693   3.594  0.7191 -0.0933 -0.2104
16731SOL    HW156798   1.718  12.786   3.595  1.0710 -0.1671 -1.0254
16731SOL    HW256799   1.613  12.689   3.547 -0.3378  0.0123  1.5426
16732SOL     OW56800  11.253   0.576   9.092 -0.4306  0.1058  0.5141
16732SOL    HW156801  11.178   0.526   9.124 -1.6996  0.7975 -1.2372
16732SOL    HW256802  11.302   0.514   9.038 -1.3816  0.3868 -0.7224
16733SOL     OW56803   3.873   1.971  11.944  0.1347 -0.3122 -0.1971
16733SOL    HW156804   3.781   1.947  11.958  0.0602  0.3616  0.5800
16733SOL    HW256805   3.869   2.038  11.876 -0.1154  0.7622  0.8359
16734SOL     OW56806   5.870   9.785   5.014  0.0065 -0.2065  0.1849
16734SOL    HW156807   5.953   9.832   5.023  1.7696 -2.7402 -1.5380
16734SOL    HW256808   5.854   9.746   5.100  1.0553 -0.3646  0.3188
16735SOL     OW56809  12.413   8.990   3.166  0.2281 -0.0805  0.1792
16735SOL    HW156810  12.423   8.934   3.243  0.7899 -0.1553  0.0501
16735SOL    HW256811  12.413   8.930   3.092  0.3652  0.0499  0.0727
16736SOL     OW56812   7.848   7.828  10.045 -0.3532 -0.6700  0.1687
16736SOL    HW156813   7.761   7.846  10.011 -0.1027 -1.9152 -1.2733
16736SOL    HW256814   7.845   7.736  10.072  0.5590 -0.8068 -0.1358
16737SOL     OW56815  10.621   9.090   3.856  0.1226 -0.1666 -0.1316
16737SOL    HW156816  10.548   9.072   3.915 -0.4814 -0.9572 -1.1005
16737SOL    HW256817  10.684   9.019   3.872 -0.4083 -0.8486 -1.0029
16738SOL     OW56818   8.730   5.391  12.308  0.7075 -0.1675 -0.2700
16738SOL    HW156819   8.659   5.429  12.359  0.8962  0.3465 -0.3894
16738SOL    HW256820   8.715   5.296  12.314 -0.1957 -0.0505 -0.6118
16739SOL     OW56821   8.499   0.444   4.707  0.1298 -0.3709  0.4895
16739SOL    HW156822   8.403   0.450   4.712 -0.0844 -0.9490 -1.7696
16739SOL    HW256823   8.523   0.508   4.640  1.1478 -1.4394 -0.1805
16740SOL     OW56824   2.488   3.281  11.550 -0.3473 -0.5722 -0.4112
16740SOL    HW156825   2.395   3.265  11.564 -0.6171  0.8416 -0.4467
16740SOL    HW256826   2.504   3.257  11.459 -0.6939 -0.7296 -0.4301
16741SOL     OW56827   7.295   8.788   1.262 -0.1047  0.4166 -0.6601
16741SOL    HW156828   7.290   8.713   1.202 -0.0649 -0.0663 -0.0648
16741SOL    HW256829   7.388   8.809   1.266 -0.2907  1.9339 -2.5563
16742SOL     OW56830   5.176  11.777   9.966  0.2114  0.3275 -0.6423
16742SOL    HW156831   5.138  11.716  10.029 -0.7494  1.6139  0.0831
16742SOL    HW256832   5.238  11.830  10.017  2.2902 -1.0374 -1.5922
16743SOL     OW56833   8.270   1.109   2.766  1.3559  0.0845  0.3688
16743SOL    HW156834   8.354   1.066   2.773  0.6058 -1.3796  0.7615
16743SOL    HW256835   8.207   1.044   2.797 -0.2049  0.1530 -2.3026
16744SOL     OW56836   8.745   1.692   8.618 -0.2163 -0.3855 -0.3615
16744SOL    HW156837   8.812   1.747   8.578 -1.8902  2.9031  1.0001
16744SOL    HW256838   8.727   1.624   8.553  2.7275 -0.0230 -1.7030
16745SOL     OW56839  10.599   2.302   4.195 -0.4025 -0.2592 -0.2381
16745SOL    HW156840  10.578   2.328   4.105 -0.7152 -0.3096 -0.1814
16745SOL    HW256841  10.642   2.217   4.185  0.7493  0.3249 -0.4342
16746SOL     OW56842   8.410  11.837  11.762 -0.2487  0.0893  0.1518
16746SOL    HW156843   8.452  11.870  11.841  1.0996 -2.5570  0.6278
16746SOL    HW256844   8.331  11.891  11.753  0.0413  1.0703  2.7542
16747SOL     OW56845   6.607   3.761  11.245 -0.3057 -0.3348 -0.6050
16747SOL    HW156846   6.649   3.819  11.181 -0.1686 -0.8257 -0.9654
16747SOL    HW256847   6.633   3.796  11.330 -0.6190  0.4185 -0.8136
16748SOL     OW56848   8.207   8.922   8.380  0.0168 -0.4874 -0.2286
16748SOL    HW156849   8.282   8.982   8.377  0.6032 -1.1845  0.0742
16748SOL    HW256850   8.175   8.920   8.290  0.8513 -0.7735 -0.5320
16749SOL     OW56851  10.345   8.135  10.060 -0.2006  0.1893 -0.2374
16749SOL    HW156852  10.356   8.132  10.155  1.3395  1.1551 -0.3456
16749SOL    HW256853  10.346   8.229  10.038  1.4871 -0.0368 -1.3636
16750SOL     OW56854  11.908   4.692   1.019 -0.3145 -0.2886 -0.4078
16750SOL    HW156855  11.927   4.611   1.066 -0.8619 -1.3797 -2.0064
16750SOL    HW256856  11.913   4.669   0.927  1.1462  1.8925 -0.9673
16751SOL     OW56857   6.219  10.714   4.899  0.1015  0.4486 -0.5169
16751SOL    HW156858   6.124  10.712   4.900  0.0452  0.2135 -2.3775
16751SOL    HW256859   6.241  10.765   4.821  1.4894 -0.1537 -0.5567
16752SOL     OW56860  10.359   2.779   3.915  0.0345  0.5179  0.7659
16752SOL    HW156861  10.454   2.784   3.910  0.2337  0.8899  3.5217
16752SOL    HW256862  10.338   2.690   3.884  0.9881  1.1073 -1.8756
16753SOL     OW56863   6.568   4.928   7.849  0.5488  0.1715 -0.1618
16753SOL    HW156864   6.502   4.862   7.825 -0.9703  0.4874  2.6950
16753SOL    HW256865   6.569   4.989   7.775 -0.1306 -1.4560 -1.5942
16754SOL     OW56866   2.969   6.272   1.112  0.5370  0.3381  0.6365
16754SOL    HW156867   3.035   6.224   1.162  1.6400  0.6637 -0.4568
16754SOL    HW256868   2.900   6.207   1.095  0.7555 -0.1171  1.4469
16755SOL     OW56869   4.784  11.525  11.329  0.6222  0.3355 -0.5372
16755SOL    HW156870   4.830  11.483  11.401  0.5006 -0.0402 -0.6768
16755SOL    HW256871   4.823  11.486  11.250 -1.3512 -1.5687 -0.6592
16756SOL     OW56872   1.931   2.956  11.457 -0.0672  0.5557 -0.1126
16756SOL    HW156873   1.985   2.892  11.410  0.9269  1.8012 -0.7327
16756SOL    HW256874   1.931   2.925  11.548 -0.5090 -0.8884 -0.5771
16757SOL     OW56875   4.134   5.197   7.556  0.2105  0.3365 -0.2112
16757SOL    HW156876   4.109   5.227   7.468  2.3043  0.3049 -0.8585
16757SOL    HW256877   4.077   5.247   7.615  0.2311  1.9637 -1.4981
16758SOL     OW56878  10.926   2.406   8.330  0.3297 -0.2852  0.1320
16758SOL    HW156879  10.980   2.426   8.407 -1.3134  0.8926  1.0510
16758SOL    HW256880  10.989   2.396   8.259  1.7392  1.9210  0.9608
16759SOL     OW56881   0.484  12.281   6.121 -0.1410  0.5384 -0.0761
16759SOL    HW156882   0.421  12.331   6.172  1.8020 -0.7053  3.9365
16759SOL    HW256883   0.556  12.342   6.105 -0.3413  0.6582 -0.5478
16760SOL     OW56884   6.980   9.740  12.530  0.3585  0.4049  0.4556
16760SOL    HW156885   6.915   9.687  12.484 -0.3771  1.1442  0.6250
16760SOL    HW256886   7.061   9.725  12.481 -0.2553  0.6107 -0.6558
16761SOL     OW56887   1.713   2.981  12.004 -0.0275  0.4309 -0.2116
16761SOL    HW156888   1.694   2.987  12.097  1.7455  1.3930  0.1459
16761SOL    HW256889   1.719   2.887  11.986  0.4123  0.2475  0.8405
16762SOL     OW56890   5.863   6.796   6.187 -0.3259 -0.1766  0.4380
16762SOL    HW156891   5.877   6.813   6.280 -0.9523  1.9597  0.1841
16762SOL    HW256892   5.797   6.727   6.184  1.2873 -1.8624  1.5465
16763SOL     OW56893  10.659   3.808  11.479 -0.4809  0.2296  0.4701
16763SOL    HW156894  10.730   3.776  11.534  2.1679  0.9090 -2.2429
16763SOL    HW256895  10.660   3.903  11.491 -1.7684  0.1816  1.2239
16764SOL     OW56896   3.194   5.617   5.124 -0.4782  0.4855  0.8603
16764SOL    HW156897   3.109   5.573   5.125  0.5414 -1.5945  2.1718
16764SOL    HW256898   3.228   5.601   5.035 -0.8341  0.0741  0.7951
16765SOL     OW56899   4.547   5.794   7.063 -0.1033 -0.0889  0.1002
16765SOL    HW156900   4.483   5.773   7.130 -0.5216  0.6510 -0.0534
16765SOL    HW256901   4.631   5.767   7.100 -0.3884 -0.1539  0.7076
16766SOL     OW56902   5.779   3.418   9.845 -0.2297 -0.0735 -0.0534
16766SOL    HW156903   5.721   3.493   9.832  1.4332  1.4197  0.8458
16766SOL    HW256904   5.782   3.376   9.759 -1.3468  0.7435 -0.5263
16767SOL     OW56905  12.293   5.113   7.676 -0.8907  0.2072 -0.2139
16767SOL    HW156906  12.263   5.023   7.690  0.0293 -0.0149  0.4466
16767SOL    HW256907  12.315   5.117   7.583  0.0035 -0.5588 -0.0458
16768SOL     OW56908  10.061   8.045   6.703  0.3613 -0.1240  0.9951
16768SOL    HW156909  10.009   8.123   6.724 -0.7285 -0.5148 -0.1891
16768SOL    HW256910   9.998   7.974   6.699  1.0578 -0.7149  0.1419
16769SOL     OW56911  10.169   3.032   6.652  0.1999 -0.4661 -0.1864
16769SOL    HW156912  10.188   2.966   6.718 -1.0020 -1.5507 -0.8951
16769SOL    HW256913  10.223   3.006   6.577  0.8053  0.1968  0.0040
16770SOL     OW56914   3.026   0.237   3.676  0.0932  0.1297 -0.5865
16770SOL    HW156915   2.988   0.210   3.593 -2.2752 -3.6137  1.3892
16770SOL    HW256916   3.101   0.179   3.689  0.8365  1.1137 -0.3648
16771SOL     OW56917   8.641   7.024  11.135 -0.2372 -0.0902  0.0975
16771SOL    HW156918   8.575   7.075  11.181 -0.8084  0.3941 -1.2048
16771SOL    HW256919   8.648   7.065  11.049  0.7414 -1.0021 -0.2874
16772SOL     OW56920  11.417   0.543   1.881  0.5357 -0.2524  0.3741
16772SOL    HW156921  11.408   0.455   1.917  1.8836  0.2288  1.9841
16772SOL    HW256922  11.348   0.594   1.924 -1.7986 -0.9107 -2.2478
16773SOL     OW56923   7.107   7.831   2.405  0.1529 -0.7251  0.1267
16773SOL    HW156924   7.201   7.833   2.387 -0.0027 -0.1508 -0.6561
16773SOL    HW256925   7.075   7.915   2.373 -0.3198 -0.0739  2.2040
16774SOL     OW56926  10.561  12.445   1.876 -0.4176 -0.3590  0.0050
16774SOL    HW156927  10.552  12.361   1.921 -0.8620  0.0248  0.6517
16774SOL    HW256928  10.655  12.462   1.878 -0.2547 -1.1219 -0.6685
16775SOL     OW56929  11.736  11.344   1.372 -0.4822  0.3395 -0.5764
16775SOL    HW156930  11.651  11.335   1.329 -1.1984 -0.2893  0.8731
16775SOL    HW256931  11.715  11.369   1.462  0.7157 -1.8116  0.3929
16776SOL     OW56932   0.302   3.634  10.753  0.2856 -0.1655 -0.1444
16776SOL    HW156933   0.381   3.644  10.805  1.4703  0.5030 -1.9851
16776SOL    HW256934   0.248   3.709  10.776  1.2579  0.6996 -0.6266
16777SOL     OW56935   8.925  11.915   1.103  0.1372 -0.2976  0.2639
16777SOL    HW156936   8.855  11.851   1.092  0.4879 -0.8951  1.3151
16777SOL    HW256937   9.004  11.862   1.111  0.3318  0.1909  2.0485
16778SOL     OW56938   1.737   8.833   5.670  0.6007  0.6722  0.0289
16778SOL    HW156939   1.721   8.741   5.694  1.0963  0.0277 -1.9075
16778SOL    HW256940   1.655   8.877   5.690 -1.2572 -1.0827 -2.8011
16779SOL     OW56941  12.557   8.416   7.606  0.1110 -0.4636 -0.3890
16779SOL    HW156942  12.493   8.365   7.654  0.9129 -0.7396  0.4219
16779SOL    HW256943  12.551   8.384   7.516 -0.5575 -0.8038 -0.2283
16780SOL     OW56944   8.440   6.792   3.992  0.0668 -0.2227 -0.4631
16780SOL    HW156945   8.365   6.732   3.994 -2.0154  2.2513  1.1256
16780SOL    HW256946   8.425   6.847   3.915 -1.8725  2.5976  1.7277
16781SOL     OW56947  11.084   8.385   8.869  0.3629 -0.8957  0.0554
16781SOL    HW156948  11.097   8.323   8.940 -0.7604  0.5703  1.6399
16781SOL    HW256949  11.071   8.469   8.913  1.1886  0.3785 -1.9606
16782SOL     OW56950   0.597   6.122   3.559  0.2697 -0.4062  0.7309
16782SOL    HW156951   0.585   6.217   3.566  1.7453 -0.0072 -1.2651
16782SOL    HW256952   0.671   6.111   3.499  1.2827 -2.8271  2.2657
16783SOL     OW56953  11.830   1.051   0.311 -0.8995  0.4272  0.3184
16783SOL    HW156954  11.867   1.027   0.396 -1.7727 -4.1938 -0.3439
16783SOL    HW256955  11.737   1.034   0.320 -1.3313  1.8176 -1.0728
16784SOL     OW56956   1.334   0.350  11.307  0.0822  0.2344 -0.1352
16784SOL    HW156957   1.366   0.260  11.305 -1.5668 -0.4217  0.9603
16784SOL    HW256958   1.247   0.345  11.266 -0.5062  1.0913  0.9643
16785SOL     OW56959   2.017  11.101   1.852  0.3287 -0.0266  0.3642
16785SOL    HW156960   2.047  11.161   1.921 -0.5215  0.3118  0.4490
16785SOL    HW256961   1.944  11.053   1.891 -1.0622  1.1254 -0.6973
16786SOL     OW56962   8.909   7.213   7.299  0.2924  0.0987 -0.0066
16786SOL    HW156963   9.002   7.217   7.276  0.2808  1.2610  0.0780
16786SOL    HW256964   8.909   7.191   7.393  0.4537 -0.6160 -0.1706
16787SOL     OW56965   4.987  12.068   3.787 -0.1897  0.0240 -0.3669
16787SOL    HW156966   4.901  12.026   3.795 -1.4288  2.0520 -1.9776
16787SOL    HW256967   4.984  12.140   3.850  1.6367 -1.6874  1.8566
16788SOL     OW56968   2.278   9.766   4.863  0.3341  0.0039 -0.3457
16788SOL    HW156969   2.345   9.700   4.880  0.1209  0.1773  1.4486
16788SOL    HW256970   2.234   9.777   4.948 -1.8807 -0.0144 -1.4287
16789SOL     OW56971   3.673   0.349   0.247  0.5144  0.2761  0.0642
16789SOL    HW156972   3.728   0.394   0.183 -2.4418  0.0132 -2.9765
16789SOL    HW256973   3.684   0.256   0.226 -1.5630  0.2491 -1.2262
16790SOL     OW56974   9.880  12.055  11.226 -0.2367 -0.4210 -0.2937
16790SOL    HW156975   9.789  12.027  11.216 -0.1515 -0.8746  0.1785
16790SOL    HW256976   9.920  11.988  11.280  0.1636  0.2095  0.2132
16791SOL     OW56977   2.780   6.333  12.315 -0.0775 -0.3099 -0.5485
16791SOL    HW156978   2.814   6.324  12.404  0.7448  0.6481 -0.7488
16791SOL    HW256979   2.797   6.248  12.274  1.4764 -0.0875 -0.4199
16792SOL     OW56980   3.762  10.368   0.928  0.4644  0.2824  0.2381
16792SOL    HW156981   3.829  10.406   0.984  1.9101  0.1891 -1.3657
16792SOL    HW256982   3.730  10.442   0.875 -1.5696  0.5765  1.7241
16793SOL     OW56983   9.589   7.560   8.610 -0.3281  0.1009  0.0139
16793SOL    HW156984   9.670   7.568   8.660 -0.2554  0.0610 -0.1003
16793SOL    HW256985   9.608   7.497   8.541 -0.0788  1.0303 -0.7835
16794SOL     OW56986   6.285   2.343   0.306  0.5131  0.4034 -0.3255
16794SOL    HW156987   6.257   2.329   0.397  0.4859 -0.2294 -0.4290
16794SOL    HW256988   6.217   2.399   0.268  0.3631  0.4142 -0.0431
16795SOL     OW56989   1.082   5.459   9.385 -0.4756 -0.6827  0.0210
16795SOL    HW156990   1.178   5.459   9.380 -0.2694  1.1345  2.4162
16795SOL    HW256991   1.054   5.490   9.299  1.0416 -1.6669 -0.8724
16796SOL     OW56992   7.288  11.007   4.959  0.5512 -0.0213 -0.2569
16796SOL    HW156993   7.326  11.022   5.045 -2.0396  1.0299  0.8141
16796SOL    HW256994   7.285  11.094   4.919 -0.2065 -0.1570 -0.5139
16797SOL     OW56995  10.375   0.136   8.822  0.7028  0.1940  0.9528
16797SOL    HW156996  10.381   0.128   8.917  1.0629 -1.7338  0.8218
16797SOL    HW256997  10.334   0.054   8.794  3.2671 -0.6569 -0.7552
16798SOL     OW56998  11.696   3.736   6.807  0.1750  0.1770 -0.3817
16798SOL    HW156999  11.747   3.783   6.873 -2.3210  0.1305  1.7362
16798SOL    HW257000  11.632   3.686   6.858 -1.7364 -0.0587 -2.8416
16799SOL     OW57001   7.410   5.589   1.027 -0.0883 -0.3519  0.3497
16799SOL    HW157002   7.426   5.587   0.933  0.3186 -0.7048  0.4239
16799SOL    HW257003   7.329   5.540   1.039 -0.5992  0.4074  0.1002
16800SOL     OW57004  10.277   8.547   7.401 -0.1790 -0.3089 -0.4460
16800SOL    HW157005  10.185   8.524   7.415 -0.7566  0.3925 -2.6554
16800SOL    HW257006  10.306   8.489   7.330  1.3228 -0.9761  0.6454
16801SOL     OW57007  10.444  12.735   6.259 -0.0915 -0.0817 -0.4415
16801SOL    HW157008  10.532  12.724   6.294 -0.1992  1.1692  0.2855
16801SOL    HW257009  10.417  12.646   6.234  1.3552 -0.4889 -0.6790
16802SOL     OW57010   0.213   6.468  12.525  0.2317 -0.5877 -0.3404
16802SOL    HW157011   0.177   6.555  12.508 -0.2283 -0.1388  2.4340
16802SOL    HW257012   0.148   6.407  12.490 -0.9732  0.2187  0.4303
16803SOL     OW57013  11.198   7.718   5.812  0.5231  0.0991  0.4636
16803SOL    HW157014  11.180   7.635   5.767 -1.4512  0.2897  0.8167
16803SOL    HW257015  11.175   7.786   5.749  2.7384  0.4523 -0.0572
16804SOL     OW57016   9.609   6.727   8.343 -0.2450  0.1877  0.2380
16804SOL    HW157017   9.607   6.781   8.422 -1.9923 -0.3391  0.5941
16804SOL    HW257018   9.571   6.783   8.275  2.4722  1.1331 -0.6368
16805SOL     OW57019   2.641  12.513   3.342 -0.0089  0.0204  0.6528
16805SOL    HW157020   2.685  12.458   3.407  1.6598 -0.7582 -1.0345
16805SOL    HW257021   2.704  12.520   3.270 -0.1593  4.0570  0.6593
16806SOL     OW57022   6.499   1.077  10.929 -0.3095  0.0115  0.1177
16806SOL    HW157023   6.466   0.987  10.927 -0.3434  0.0346 -0.8365
16806SOL    HW257024   6.547   1.083  11.012  1.6146 -1.5814 -0.8162
16807SOL     OW57025   6.665   7.740   0.551  0.4128  1.2120  0.2293
16807SOL    HW157026   6.657   7.738   0.646  1.2038  1.4769  0.3074
16807SOL    HW257027   6.750   7.781   0.535  1.1812 -0.6167 -0.5697
16808SOL     OW57028   6.639   1.101   5.718 -0.4779 -0.0760 -0.2026
16808SOL    HW157029   6.659   1.128   5.628 -0.6005 -1.8931 -0.8196
16808SOL    HW257030   6.724   1.083   5.758 -0.4059  1.0238  0.1564
16809SOL     OW57031   3.270  11.788   8.508 -0.0111  0.7558  0.4329
16809SOL    HW157032   3.218  11.832   8.441 -0.4345 -0.1489  0.1526
16809SOL    HW257033   3.305  11.859   8.562 -2.3354  1.3785  1.2367
16810SOL     OW57034   1.942  10.936   4.292  0.0947 -0.3632 -0.2058
16810SOL    HW157035   2.006  10.865   4.302  0.7842  0.4396  1.3828
16810SOL    HW257036   1.983  11.011   4.334 -2.3775 -0.1192  1.9782
16811SOL     OW57037   4.769  10.529   4.225 -0.0918  0.0748 -0.5056
16811SOL    HW157038   4.711  10.593   4.267  0.0747 -0.3705  0.4276
16811SOL    HW257039   4.709  10.471   4.177 -0.1673  1.7218 -2.5723
16812SOL     OW57040  10.809  11.779   2.359  0.6417  0.3143  0.5445
16812SOL    HW157041  10.714  11.770   2.347  0.3794  1.3676  1.6605
16812SOL    HW257042  10.818  11.837   2.435  2.1830 -0.3253  0.8749
16813SOL     OW57043  12.734   1.525   1.614  0.1031  0.2358 -0.1496
16813SOL    HW157044  12.829   1.531   1.601  0.0720  1.6423  0.0323
16813SOL    HW257045  12.721   1.551   1.706 -0.3782 -1.0300  0.1577
16814SOL     OW57046   4.862   8.214   4.244  0.3186 -0.0386 -0.1223
16814SOL    HW157047   4.816   8.264   4.178  1.6852  1.0114 -0.3313
16814SOL    HW257048   4.949   8.255   4.249  0.9476 -1.4026  0.8294
16815SOL     OW57049   3.757   2.906  11.756  0.0246  0.0128 -0.0970
16815SOL    HW157050   3.797   2.990  11.730  0.0305 -0.2702 -1.0525
16815SOL    HW257051   3.725   2.869  11.673  1.3677 -1.6380  0.0816
16816SOL     OW57052   7.766  10.836   4.434 -0.3323 -0.2558  0.0380
16816SOL    HW157053   7.700  10.785   4.480 -1.0719  1.5472  1.1010
16816SOL    HW257054   7.830  10.860   4.501 -0.4390  0.8555 -0.2293
16817SOL     OW57055   4.655   5.807   0.344  0.0980  0.3371 -0.1087
16817SOL    HW157056   4.741   5.795   0.302  0.4765 -1.8419  1.1616
16817SOL    HW257057   4.620   5.718   0.352 -0.6006  0.7872  2.7875
16818SOL     OW57058   7.827   7.378   0.868 -0.2804  0.5728 -0.0627
16818SOL    HW157059   7.825   7.400   0.962  0.4286 -0.0046  0.0929
16818SOL    HW257060   7.758   7.313   0.857  0.8662 -0.7978  0.4549
16819SOL     OW57061   5.582   8.312   1.601 -0.0310  0.2967  0.1293
16819SOL    HW157062   5.546   8.374   1.665  0.7585  1.7965 -0.8040
16819SOL    HW257063   5.674   8.335   1.594  0.1001 -0.4419 -0.8647
16820SOL     OW57064  10.625   8.810   0.451  0.6685  0.1290 -0.0033
16820SOL    HW157065  10.677   8.763   0.385 -0.4226  0.7541 -1.3489
16820SOL    HW257066  10.676   8.800   0.532  1.7038 -1.2481 -0.7646
16821SOL     OW57067   0.677   9.436  11.031 -0.3118 -0.6714 -0.4731
16821SOL    HW157068   0.594   9.478  11.053  0.4870  0.1271  1.2003
16821SOL    HW257069   0.728   9.504  10.987  0.9859  0.2497  2.2431
16822SOL     OW57070   5.991   2.334   7.411 -0.3336  0.2003  0.3853
16822SOL    HW157071   6.024   2.326   7.321 -1.2942 -0.2322  0.0612
16822SOL    HW257072   5.991   2.428   7.428 -1.7790  0.4265 -0.7145
16823SOL     OW57073   5.989  11.228  12.094 -0.3165 -0.0206  0.1700
16823SOL    HW157074   6.000  11.248  12.001 -0.1397  1.2633  0.4492
16823SOL    HW257075   6.004  11.312  12.138 -0.4147 -0.6136  1.3545
16824SOL     OW57076  12.520  10.257   3.766 -0.0967  0.4068  0.8787
16824SOL    HW157077  12.435  10.224   3.738 -0.0788  0.5291  0.6708
16824SOL    HW257078  12.576  10.249   3.688 -0.6048  2.7171  0.1846
16825SOL     OW57079   1.053   0.428  10.851  0.3573 -0.0416 -0.3151
16825SOL    HW157080   1.093   0.515  10.857  0.6492 -0.1408 -0.7341
16825SOL    HW257081   0.967   0.444  10.813  0.6981 -0.0080 -1.0854
16826SOL     OW57082  11.476   2.133  12.630  0.6199  0.0380  0.1580
16826SOL    HW157083  11.510   2.065  12.573  0.2962  0.1407 -0.1611
16826SOL    HW257084  11.389   2.154  12.594  0.2427 -0.1816  0.9280
16827SOL     OW57085  10.667   1.464  12.608  0.5959  0.1036 -0.0972
16827SOL    HW157086  10.578   1.465  12.643  0.0653 -1.2233 -1.2925
16827SOL    HW257087  10.681   1.373  12.582  1.8013  0.5634 -1.1517
16828SOL     OW57088   8.478  11.466   9.261  0.4711  0.1551  0.0152
16828SOL    HW157089   8.485  11.442   9.353 -1.0943 -1.4285 -0.2196
16828SOL    HW257090   8.429  11.394   9.221 -1.5578  2.2123 -1.4598
16829SOL     OW57091   9.671   1.361   9.894  0.0233  0.1117 -0.3693
16829SOL    HW157092   9.612   1.394   9.961 -0.8818 -0.2868 -0.9553
16829SOL    HW257093   9.757   1.362   9.936 -0.2844  1.2913  0.2911
16830SOL     OW57094   3.127   4.842   8.881 -0.1453  0.2919  0.3699
16830SOL    HW157095   3.201   4.822   8.939 -0.2852  0.0274  0.4580
16830SOL    HW257096   3.167   4.857   8.795  0.1307  1.3048  0.6538
16831SOL     OW57097   7.049   8.018   6.589  0.1028 -0.1954 -0.0706
16831SOL    HW157098   7.045   7.935   6.635 -2.6705 -0.3430 -0.4272
16831SOL    HW257099   7.017   7.998   6.501  0.8632  0.9826 -0.6495
16832SOL     OW57100   4.487   1.376   1.531  0.3217 -0.3669 -0.6175
16832SOL    HW157101   4.423   1.322   1.577 -1.3769  2.4762  0.6170
16832SOL    HW257102   4.469   1.361   1.438 -0.6010 -1.2664 -0.3117
16833SOL     OW57103  10.855   3.510   3.128  0.4908  0.7172 -0.0558
16833SOL    HW157104  10.916   3.520   3.055 -1.4422  1.8683 -1.6396
16833SOL    HW257105  10.843   3.600   3.161  0.1675  0.4161  0.6735
16834SOL     OW57106   0.639   0.295   9.919 -1.5186  0.0679  0.1539
16834SOL    HW157107   0.643   0.342  10.003 -1.3632  0.7489 -0.2288
16834SOL    HW257108   0.686   0.213   9.936  1.3214  1.5408 -0.1192
16835SOL     OW57109   3.535   3.674   0.763 -0.2395  0.0434  0.4351
16835SOL    HW157110   3.491   3.632   0.689  0.2622 -0.4582  0.4164
16835SOL    HW257111   3.533   3.608   0.832  1.2044 -0.3123  0.1729
16836SOL     OW57112   3.570   8.448   3.893  0.1582 -0.1173 -0.3248
16836SOL    HW157113   3.494   8.404   3.931  0.7844 -0.2615  0.7937
16836SOL    HW257114   3.637   8.380   3.887  0.2632  0.0486 -1.1465
16837SOL     OW57115   0.437   8.287  10.154 -0.2482 -0.5356  0.0368
16837SOL    HW157116   0.342   8.300  10.158 -0.3502 -1.5151  2.1379
16837SOL    HW257117   0.451   8.200  10.191  1.4529 -0.5651 -0.5894
16838SOL     OW57118   2.509  11.427   7.508  0.0441 -0.1660  0.2666
16838SOL    HW157119   2.493  11.485   7.583 -1.0234 -0.8699  0.6037
16838SOL    HW257120   2.599  11.445   7.483 -0.7268  2.9067 -0.7269
16839SOL     OW57121  10.448   1.406   4.200 -0.0818  0.6894  0.0136
16839SOL    HW157122  10.491   1.321   4.188  0.6054  0.6674  2.1564
16839SOL    HW257123  10.361   1.385   4.234 -0.6748  0.8348 -1.3252
16840SOL     OW57124   2.294   7.316   1.340 -0.9166  0.0796 -0.1260
16840SOL    HW157125   2.359   7.355   1.282 -2.0292 -1.1954 -2.3493
16840SOL    HW257126   2.268   7.387   1.398  1.5047  0.9405  0.0143
16841SOL     OW57127   3.874   8.164   7.565  0.2372  0.5596 -0.4989
16841SOL    HW157128   3.907   8.077   7.546  0.2787  0.7114 -1.1357
16841SOL    HW257129   3.781   8.159   7.547  0.4305  0.9599 -1.7136
16842SOL     OW57130   1.479   5.622   8.880  0.1703 -0.5254 -0.2713
16842SOL    HW157131   1.537   5.650   8.951 -1.2262  3.4887 -0.4581
16842SOL    HW257132   1.423   5.555   8.918 -0.0824  1.0210  2.2656
16843SOL     OW57133   1.200   0.452   8.929 -0.0374 -0.2303 -0.5819
16843SOL    HW157134   1.121   0.437   8.981 -0.9776  0.7593 -1.6843
16843SOL    HW257135   1.242   0.527   8.972  1.1196 -1.6477  0.8807
16844SOL     OW57136   2.657   1.241   0.869 -0.5320  0.3908  0.4991
16844SOL    HW157137   2.633   1.327   0.833  0.2010  1.1926  1.8136
16844SOL    HW257138   2.744   1.223   0.832 -1.9012 -1.2814 -2.1924
16845SOL     OW57139   8.066   9.231   9.789  0.6125 -0.0366  0.1737
16845SOL    HW157140   8.089   9.179   9.866  1.1520 -0.2221 -0.1109
16845SOL    HW257141   8.067   9.169   9.716  1.8947  0.4893 -0.2718
16846SOL     OW57142   9.970  10.858   4.910  0.6238  0.3212 -0.4384
16846SOL    HW157143   9.980  10.777   4.860  2.4921  0.0018  0.3896
16846SOL    HW257144   9.909  10.836   4.980 -0.6953  0.3030 -1.5638
16847SOL     OW57145  10.781   6.320   4.069 -0.0439 -1.0525 -0.6676
16847SOL    HW157146  10.840   6.262   4.022  0.6595 -0.7621 -0.1634
16847SOL    HW257147  10.796   6.406   4.030  0.7208 -0.7641  0.2253
16848SOL     OW57148   2.784   8.221   3.025 -0.9340  0.1282 -0.4364
16848SOL    HW157149   2.791   8.158   2.953 -3.4636  1.2052 -1.7924
16848SOL    HW257150   2.765   8.169   3.102  1.8102 -1.0645 -0.4832
16849SOL     OW57151   4.078   4.424   8.785  0.0717  0.5584  0.0521
16849SOL    HW157152   3.999   4.466   8.750  0.2562 -1.2105 -2.8526
16849SOL    HW257153   4.050   4.388   8.869 -2.3718 -0.2126 -0.9795
16850SOL     OW57154   0.017   0.887   5.463  0.1371  0.0801  0.3650
16850SOL    HW157155   0.097   0.889   5.516  1.3739 -0.6350 -1.4012
16850SOL    HW257156   0.020   0.968   5.412 -0.3025  0.0712  0.3184
16851SOL     OW57157   8.849   3.428   5.757  0.1900  0.2429 -0.0306
16851SOL    HW157158   8.922   3.487   5.738  0.8617 -0.8913 -1.1186
16851SOL    HW257159   8.770   3.480   5.739  0.7366  1.0788 -0.0690
16852SOL     OW57160   7.202  11.767   7.375 -0.0042 -0.4654 -0.7184
16852SOL    HW157161   7.127  11.816   7.342  1.0697  1.5012 -0.3852
16852SOL    HW257162   7.169  11.678   7.387 -2.6474  0.6035  0.6939
16853SOL     OW57163   2.926   6.905   2.346 -0.1035 -0.2010  0.1542
16853SOL    HW157164   2.878   6.983   2.372  0.3570  0.4709 -0.9404
16853SOL    HW257165   2.867   6.858   2.287  0.8330  1.1001 -1.9510
16854SOL     OW57166   7.471  10.307   6.819  0.2230 -0.5333  0.0251
16854SOL    HW157167   7.537  10.371   6.795  0.4498 -0.2762  1.2505
16854SOL    HW257168   7.391  10.359   6.831  0.2361 -0.5765  0.3126
16855SOL     OW57169   6.629  12.665   7.108  0.5539  0.5680 -0.2599
16855SOL    HW157170   6.614  12.746   7.060  2.7459  0.3180 -1.4960
16855SOL    HW257171   6.723  12.661   7.120  0.4613 -1.5917  0.1429
16856SOL     OW57172   7.553   2.313   9.411 -0.1828  0.2942 -0.6433
16856SOL    HW157173   7.644   2.294   9.433 -0.2032  0.1041 -0.7189
16856SOL    HW257174   7.549   2.310   9.316 -0.3238  0.0391 -0.6302
16857SOL     OW57175   7.324  12.643   8.874 -0.1560 -0.0249 -0.1956
16857SOL    HW157176   7.250  12.613   8.927  0.0885 -0.7907 -0.2766
16857SOL    HW257177   7.360  12.563   8.837  1.9016  0.0904  1.3675
16858SOL     OW57178   6.864   7.973   1.927 -0.1187  0.3216  0.1242
16858SOL    HW157179   6.847   7.927   2.009  1.8906  1.5174  1.2905
16858SOL    HW257180   6.852   8.066   1.948  1.4054  0.7210 -0.6257
16859SOL     OW57181   0.403   3.796   0.958  0.3659 -0.2080 -0.3884
16859SOL    HW157182   0.494   3.772   0.975  0.0498  0.0502  1.9199
16859SOL    HW257183   0.356   3.713   0.954  0.5544 -0.3008 -0.7229
16860SOL     OW57184   1.529   7.712   4.303  0.5937 -0.2808  0.7212
16860SOL    HW157185   1.445   7.695   4.346  0.2618 -2.1151 -0.5154
16860SOL    HW257186   1.506   7.748   4.218  1.0287 -0.8547  0.3477
16861SOL     OW57187   1.973   9.576   1.056  0.1653 -0.7628  0.9067
16861SOL    HW157188   1.997   9.605   0.969 -0.1334 -1.3886  0.6084
16861SOL    HW257189   2.055   9.553   1.099  0.4437  0.7818  1.2619
16862SOL     OW57190   6.047   9.367   2.087 -0.1798 -0.5978 -0.1682
16862SOL    HW157191   6.088   9.377   2.001  3.1497  2.1915  1.5113
16862SOL    HW257192   6.098   9.299   2.130 -1.9943 -2.1645 -0.3356
16863SOL     OW57193   9.630   1.662   8.300  0.2737 -0.3825 -1.1169
16863SOL    HW157194   9.582   1.733   8.342 -0.0723 -0.3072 -1.6357
16863SOL    HW257195   9.704   1.645   8.359 -2.0878 -2.7001  1.5006
16864SOL     OW57196   5.813   3.957   2.040  0.0280  0.0550 -0.4658
16864SOL    HW157197   5.751   4.012   1.992 -1.5458  0.2836  1.6853
16864SOL    HW257198   5.766   3.875   2.055  1.1089 -0.6322 -0.7177
16865SOL     OW57199   8.832   4.374   9.337 -0.3237 -0.4018 -0.0773
16865SOL    HW157200   8.825   4.350   9.244 -1.1411 -0.0398 -0.1170
16865SOL    HW257201   8.904   4.437   9.340 -0.9812  0.4077 -0.6501
16866SOL     OW57202  11.542   7.045   0.210 -0.4888 -0.0495 -0.1211
16866SOL    HW157203  11.613   7.102   0.182  1.3039 -1.2161  1.7065
16866SOL    HW257204  11.479   7.048   0.139  1.4110  1.0208 -1.8821
16867SOL     OW57205   2.762   5.792   0.629 -0.5795 -0.2252  0.0241
16867SOL    HW157206   2.797   5.707   0.655 -0.5552 -0.0003  0.7367
16867SOL    HW257207   2.716   5.774   0.547 -1.4104 -1.1307  0.6623
16868SOL     OW57208   3.546  11.162   2.161 -0.5619 -0.8445  0.5825
16868SOL    HW157209   3.570  11.207   2.080 -0.7913 -0.3598  0.7810
16868SOL    HW257210   3.536  11.232   2.225  1.5843 -1.3343  1.5580
16869SOL     OW57211  12.560   1.172   7.443 -0.3916  0.5662 -0.1429
16869SOL    HW157212  12.582   1.093   7.395 -0.6545  0.6383 -0.3859
16869SOL    HW257213  12.642   1.221   7.447 -0.0666 -0.0167  0.5904
16870SOL     OW57214  10.454  10.018   2.501 -0.5561  0.1714  0.0631
16870SOL    HW157215  10.479  10.048   2.413 -0.1434 -0.3748 -0.0063
16870SOL    HW257216  10.530  10.037   2.556 -0.0975 -1.1453 -0.0744
16871SOL     OW57217  11.767   8.076   9.158 -0.0251 -0.1279  0.5714
16871SOL    HW157218  11.777   8.113   9.070 -0.8081 -1.8700 -0.2968
16871SOL    HW257219  11.749   8.152   9.214  1.2843  1.1092 -0.6152
16872SOL     OW57220  12.194  10.990   2.118  0.0760 -0.2222  0.3931
16872SOL    HW157221  12.145  10.920   2.075  1.2101 -0.8698  0.1342
16872SOL    HW257222  12.286  10.964   2.112  0.3741  0.2766  2.1198
16873SOL     OW57223  10.097   4.513  10.806 -0.3014 -0.2054 -0.7016
16873SOL    HW157224  10.053   4.493  10.723 -0.8766 -0.3032 -0.3809
16873SOL    HW257225  10.036   4.571  10.852 -0.4378 -0.9309  0.0601
16874SOL     OW57226   2.557   9.550   5.796 -0.2191 -0.5974 -0.4860
16874SOL    HW157227   2.576   9.628   5.847 -0.4735  0.5881 -2.1401
16874SOL    HW257228   2.511   9.582   5.718 -2.2750 -2.6127 -0.1960
16875SOL     OW57229  12.568  11.083   7.638  0.1625  0.5997 -0.6114
16875SOL    HW157230  12.607  11.015   7.694 -0.9422 -0.5662 -1.1804
16875SOL    HW257231  12.641  11.136   7.608  1.1908 -0.9209 -0.8848
16876SOL     OW57232   8.524   5.946  11.286  0.3350 -0.3096  0.4146
16876SOL    HW157233   8.555   5.881  11.349  1.6872 -0.9080 -0.8364
16876SOL    HW257234   8.528   6.029  11.334  1.9051 -0.6684  0.9433
16877SOL     OW57235   8.628   6.387   4.361 -0.4185  0.3042 -0.0313
16877SOL    HW157236   8.661   6.445   4.429 -2.1396  1.8312 -0.4199
16877SOL    HW257237   8.643   6.435   4.279  0.1361 -0.7888 -0.5984
16878SOL     OW57238   6.352   2.557   2.354 -0.2284 -0.3952 -0.7916
16878SOL    HW157239   6.383   2.569   2.265 -2.5019 -2.4450 -1.9600
16878SOL    HW257240   6.402   2.482   2.387  0.9375  0.6393 -0.1092
16879SOL     OW57241   3.830   0.459   1.458  0.2353 -0.1425  0.6080
16879SOL    HW157242   3.786   0.381   1.423  0.8238  0.0556 -0.6293
16879SOL    HW257243   3.923   0.435   1.459  0.3035  0.1295  1.3693
16880SOL     OW57244   9.190   2.427   0.558  0.2816  0.2592 -0.2142
16880SOL    HW157245   9.121   2.374   0.600  0.3992 -1.3856 -1.9517
16880SOL    HW257246   9.185   2.511   0.602 -0.6217 -0.8549  1.9913
16881SOL     OW57247   7.953  10.015   5.629 -0.2856  0.0941 -0.0464
16881SOL    HW157248   7.955  10.005   5.533  0.1129 -0.5245  0.0244
16881SOL    HW257249   7.916  10.103   5.642 -0.6703  0.0529 -0.7585
16882SOL     OW57250  10.698  12.744   3.473  0.1662 -0.0654 -0.0762
16882SOL    HW157251  10.780  12.770   3.516  0.5202 -1.1028 -0.1021
16882SOL    HW257252  10.640  12.720   3.545 -0.0250  0.3991 -0.0724
16883SOL     OW57253   5.470  10.576  10.472 -0.1315  0.2746 -0.0290
16883SOL    HW157254   5.541  10.552  10.532 -1.5408 -0.5238  1.3874
16883SOL    HW257255   5.515  10.600  10.391  1.8250  1.1613  1.2470
16884SOL     OW57256   8.409   4.247   9.073  0.6878  0.5286  0.3186
16884SOL    HW157257   8.359   4.198   9.138 -1.9568  0.8194 -1.3326
16884SOL    HW257258   8.464   4.306   9.124  0.1985 -0.6444  2.2907
16885SOL     OW57259   8.399   9.704   7.075  0.9539  0.3084 -0.1154
16885SOL    HW157260   8.453   9.780   7.096  1.4663  0.0338 -0.4236
16885SOL    HW257261   8.381   9.663   7.159  0.1207  1.1402  0.1224
16886SOL     OW57262   7.254   0.062   9.879  0.1522  0.2799 -0.2204
16886SOL    HW157263   7.284   0.121   9.810 -0.7120  0.0794 -0.7853
16886SOL    HW257264   7.202  -0.004   9.834  0.3445 -0.3909  0.5149
16887SOL     OW57265   8.786  10.748   4.585 -0.4767  0.1803 -0.0426
16887SOL    HW157266   8.818  10.831   4.549 -0.5909  0.4046  0.3537
16887SOL    HW257267   8.781  10.689   4.511 -2.8433  1.2625 -0.8271
16888SOL     OW57268   9.956   7.977   7.000  0.2137 -0.6490  0.4926
16888SOL    HW157269   9.939   7.942   6.913  0.2708 -1.9386  0.9766
16888SOL    HW257270   9.941   8.071   6.992  0.1485 -0.7645 -0.8809
16889SOL     OW57271   8.581   2.467   4.754  0.1207 -0.0188 -0.0479
16889SOL    HW157272   8.574   2.461   4.659 -0.4552  1.4102 -0.1220
16889SOL    HW257273   8.576   2.561   4.773 -0.7202 -0.3260  1.4613
16890SOL     OW57274   5.283   3.914  11.190 -0.1473 -0.1502 -0.0396
16890SOL    HW157275   5.316   3.835  11.234 -0.9011 -0.4571 -0.0103
16890SOL    HW257276   5.242   3.881  11.110 -2.1233 -0.0337  0.8544
16891SOL     OW57277   6.495   9.263   5.401 -0.4398  0.6972 -0.1826
16891SOL    HW157278   6.492   9.217   5.317  0.1195  0.5431 -0.1220
16891SOL    HW257279   6.577   9.313   5.398  0.5732 -0.8124  1.0285
16892SOL     OW57280   5.952   7.720   4.592  0.1366 -0.2511  0.0730
16892SOL    HW157281   5.944   7.815   4.591 -0.9542 -0.3177 -1.7661
16892SOL    HW257282   5.992   7.700   4.677 -0.2310  1.7792  0.7737
16893SOL     OW57283   4.041   2.267  12.654  0.4039  0.1186 -0.1076
16893SOL    HW157284   4.082   2.210  12.589  2.0957  0.6787  0.4003
16893SOL    HW257285   4.044   2.217  12.735 -2.2919 -0.8374 -0.5225
16894SOL     OW57286   3.489  11.102   3.240  0.2285 -0.0081  0.0825
16894SOL    HW157287   3.570  11.069   3.201 -0.3414  1.0182 -2.1269
16894SOL    HW257288   3.481  11.191   3.206 -0.9836  0.5202  1.6245
16895SOL     OW57289   2.189   1.168   3.848 -0.0399  0.3103 -0.1555
16895SOL    HW157290   2.114   1.226   3.861 -0.3716 -0.4247  1.3871
16895SOL    HW257291   2.157   1.081   3.872  1.7327  0.2322  2.2058
16896SOL     OW57292  10.090   9.946   7.800 -0.0831 -0.0572  0.0540
16896SOL    HW157293  10.183   9.924   7.801  0.1435  0.7628 -0.7423
16896SOL    HW257294  10.056   9.915   7.884  0.5510 -1.8169 -0.3045
16897SOL     OW57295   5.454   9.483  11.620 -0.5822 -0.0890 -0.5483
16897SOL    HW157296   5.519   9.471  11.550 -1.5656 -0.6250 -1.3980
16897SOL    HW257297   5.438   9.578  11.621 -0.6371 -0.0843 -1.1329
16898SOL     OW57298   4.843   9.790   3.882 -0.2812 -0.4094 -0.1725
16898SOL    HW157299   4.863   9.883   3.869 -0.0492 -0.6813 -2.0202
16898SOL    HW257300   4.895   9.766   3.959  0.3002  0.7884 -0.1548
16899SOL     OW57301   9.382   4.125   0.848  0.2419 -0.2145 -0.0777
16899SOL    HW157302   9.447   4.093   0.785  2.0713  3.2631 -0.2117
16899SOL    HW257303   9.333   4.192   0.800 -1.4893 -0.7312  0.9088
16900SOL     OW57304   0.180   3.039   7.813  0.0725  0.5823  0.1216
16900SOL    HW157305   0.162   3.133   7.816  0.0169  0.5608  2.7546
16900SOL    HW257306   0.108   3.003   7.762  0.9970  2.0780 -2.4388
16901SOL     OW57307   7.014  11.874   7.210 -0.3753 -0.2181  0.1472
16901SOL    HW157308   7.070  11.941   7.172  0.7066 -0.3038  1.4919
16901SOL    HW257309   6.927  11.892   7.174  0.0036  1.5255 -0.0087
16902SOL     OW57310  12.388   6.137   3.912 -0.3450 -0.3405  0.3757
16902SOL    HW157311  12.413   6.148   3.820 -2.0891 -0.1173 -0.1163
16902SOL    HW257312  12.298   6.106   3.908 -0.7882  0.6149  2.0409
16903SOL     OW57313   7.805   9.136   8.811  0.2526 -0.0361  0.2395
16903SOL    HW157314   7.717   9.162   8.785 -0.2471 -1.8760 -0.0666
16903SOL    HW257315   7.846   9.217   8.841 -1.0263  1.1351 -1.0082
16904SOL     OW57316   2.425   6.830   7.089  0.5549 -0.6408 -0.1272
16904SOL    HW157317   2.449   6.885   7.015 -0.5701  0.0885  0.0331
16904SOL    HW257318   2.427   6.741   7.054  0.3188 -0.3257 -0.9571
16905SOL     OW57319   2.507   2.684   4.701 -0.3405 -0.4407  0.8570
16905SOL    HW157320   2.457   2.714   4.624  1.4171  0.5492  0.0298
16905SOL    HW257321   2.446   2.693   4.774 -1.2431  1.2085 -0.0301
16906SOL     OW57322   9.350   4.979   4.775 -0.6590  0.2883 -0.3749
16906SOL    HW157323   9.334   4.918   4.847  3.2741 -0.6095 -0.0318
16906SOL    HW257324   9.300   4.945   4.702 -0.0399 -2.3270  0.3317
16907SOL     OW57325   5.780  10.417  12.479  0.1376  0.0335 -0.5301
16907SOL    HW157326   5.789  10.373  12.394  0.5230  0.6646 -0.8179
16907SOL    HW257327   5.701  10.378  12.516 -1.5787  1.5737 -2.3153
16908SOL     OW57328  12.396   4.500  12.382 -0.4061 -0.4314 -0.0213
16908SOL    HW157329  12.475   4.451  12.358 -0.0809 -0.5949  1.2966
16908SOL    HW257330  12.371   4.465  12.468 -0.5231  1.2755  0.6798
16909SOL     OW57331  11.284   3.790   3.685  0.7959  0.3572 -0.7148
16909SOL    HW157332  11.269   3.730   3.613  1.1039  0.8873 -1.2277
16909SOL    HW257333  11.367   3.761   3.723  1.3216  0.8949 -1.4220
16910SOL     OW57334  12.706   3.068   0.280  0.4714 -0.3631 -0.3864
16910SOL    HW157335  12.651   3.016   0.221  0.3375  0.1246 -0.6978
16910SOL    HW257336  12.692   3.158   0.252  1.2945 -0.2161 -0.3461
16911SOL     OW57337   7.753   1.558   7.448 -0.0535 -0.0516 -0.5274
16911SOL    HW157338   7.799   1.599   7.374  0.7747  0.4509  0.2529
16911SOL    HW257339   7.767   1.464   7.436  1.1757  0.0967 -0.3083
16912SOL     OW57340   3.376   8.304   7.801 -0.1220 -0.0877  0.4281
16912SOL    HW157341   3.467   8.321   7.779  0.2354 -1.2369  0.8988
16912SOL    HW257342   3.355   8.367   7.870  1.0572 -1.2499  1.9304
16913SOL     OW57343   5.276   8.751  10.221 -0.4076 -0.5064  0.0329
16913SOL    HW157344   5.352   8.770  10.166  0.3818  2.0567  1.8061
16913SOL    HW257345   5.204   8.801  10.182 -0.1578  0.3144  0.6151
16914SOL     OW57346   2.971   2.261   2.191  0.1346 -0.3738  0.3749
16914SOL    HW157347   2.926   2.209   2.125 -1.0299  2.5644 -1.3127
16914SOL    HW257348   3.039   2.308   2.143  0.3366  0.6181  1.5742
16915SOL     OW57349   7.672   1.513   2.850  0.8146  0.1988  0.8407
16915SOL    HW157350   7.595   1.456   2.845  1.3487 -0.7190  2.3178
16915SOL    HW257351   7.729   1.470   2.913  0.8938  2.8148  2.7018
16916SOL     OW57352   6.399   4.301  12.695 -0.5619 -0.2123  0.3108
16916SOL    HW157353   6.351   4.223  12.720  1.5928 -1.8942 -0.4986
16916SOL    HW257354   6.343   4.374  12.722 -3.6788 -1.9953 -0.9039
16917SOL     OW57355   2.967  10.920   8.560  0.2120  0.0605 -0.6192
16917SOL    HW157356   2.871  10.915   8.563  0.2669 -2.5604  1.8775
16917SOL    HW257357   2.989  10.991   8.620 -0.2336 -1.1899  1.1275
16918SOL     OW57358  10.383   3.361   0.614  0.6780  0.0569  1.0835
16918SOL    HW157359  10.406   3.446   0.654  0.0416 -0.0186  1.6173
16918SOL    HW257360  10.467   3.326   0.583  0.6122  2.6133 -2.7271
16919SOL     OW57361   0.236   0.386   3.362 -0.0881 -0.0049  0.2965
16919SOL    HW157362   0.161   0.375   3.421 -1.0443  1.6648 -0.5367
16919SOL    HW257363   0.225   0.319   3.295 -2.0105  1.4613 -0.9454
16920SOL     OW57364   6.415   3.622   3.756  0.0088 -0.2060 -0.0308
16920SOL    HW157365   6.402   3.717   3.758 -3.1500 -0.5422  0.9844
16920SOL    HW257366   6.330   3.586   3.780  1.0309 -3.3395 -0.6960
16921SOL     OW57367   5.735   8.468   7.295  0.4855  0.2306 -0.3100
16921SOL    HW157368   5.741   8.409   7.370  2.5416 -0.0158 -0.6030
16921SOL    HW257369   5.703   8.550   7.332  1.9765  0.2748  0.9972
16922SOL     OW57370   2.180   5.643   6.392 -0.3734  0.0419  0.0310
16922SOL    HW157371   2.247   5.645   6.325  0.4452  1.9297  0.8456
16922SOL    HW257372   2.116   5.709   6.365 -0.3983  0.3131  0.7188
16923SOL     OW57373   0.435   5.519   0.907  0.1906  0.3274  0.2104
16923SOL    HW157374   0.503   5.586   0.904  0.6144 -0.1371 -1.3318
16923SOL    HW257375   0.354   5.566   0.890  0.4392  0.5156 -0.4828
16924SOL     OW57376   3.364   5.789  10.715  0.1509  0.1968 -0.2126
16924SOL    HW157377   3.364   5.837  10.632 -0.9214 -2.3780 -1.8320
16924SOL    HW257378   3.452   5.801  10.751  1.0011  0.4834 -2.2928
16925SOL     OW57379  10.360   2.030   5.471  0.5686  0.0444 -0.0304
16925SOL    HW157380  10.419   2.101   5.447 -0.1301  0.1557 -1.5741
16925SOL    HW257381  10.381   2.010   5.562  1.6229  1.3885  0.0468
16926SOL     OW57382   9.313   0.885   1.761 -0.0442 -0.2643  0.0418
16926SOL    HW157383   9.377   0.932   1.814 -0.6654 -1.1166  1.6211
16926SOL    HW257384   9.228   0.913   1.795 -0.4610 -0.7131 -0.6080
16927SOL     OW57385   6.597   3.783   4.364 -0.1934  0.3338 -0.1067
16927SOL    HW157386   6.523   3.827   4.324  0.0809 -1.0673 -2.3099
16927SOL    HW257387   6.670   3.844   4.354 -0.2598  0.2344 -1.2510
16928SOL     OW57388   1.929  10.632   5.851  0.1523  0.4072 -0.0879
16928SOL    HW157389   1.847  10.673   5.877  0.4701  0.8043  0.2877
16928SOL    HW257390   1.981  10.704   5.815  0.7788  0.3697  0.7333
16929SOL     OW57391   6.603   3.502   4.036 -0.0060  0.0378 -0.2125
16929SOL    HW157392   6.606   3.409   4.056 -0.5951 -0.2940 -1.5281
16929SOL    HW257393   6.518   3.515   3.993  0.7251  0.8524 -1.4794
16930SOL     OW57394   7.343   7.539   6.004 -0.9442 -0.2750  0.0858
16930SOL    HW157395   7.356   7.632   6.019 -0.9610 -0.5421  1.9738
16930SOL    HW257396   7.250   7.532   5.979 -1.8066 -0.0318  2.8875
16931SOL     OW57397  10.095   4.811   2.350 -0.3887  0.3112 -0.1850
16931SOL    HW157398  10.098   4.904   2.374  2.6385 -0.2308  2.1478
16931SOL    HW257399  10.076   4.765   2.432  1.6228 -1.2476 -0.5087
16932SOL     OW57400   9.088   5.898   2.884 -0.2121  0.5319 -0.0610
16932SOL    HW157401   9.142   5.971   2.856  2.4880 -0.8610  1.0942
16932SOL    HW257402   9.074   5.912   2.977  0.1979 -0.2787  0.1405
16933SOL     OW57403   7.638  10.773   6.518 -0.4182 -0.2388 -0.8203
16933SOL    HW157404   7.644  10.694   6.465  0.8869 -2.6879  2.6464
16933SOL    HW257405   7.544  10.787   6.530 -0.6930 -0.5355 -2.3442
16934SOL     OW57406  12.425   1.157   9.908  0.6046  0.2508  0.0275
16934SOL    HW157407  12.408   1.174  10.001  0.6644  0.5807 -0.0196
16934SOL    HW257408  12.473   1.234   9.878  0.4958  0.1924 -0.3029
16935SOL     OW57409   4.010   7.557   9.422 -0.4720 -0.0787  0.3310
16935SOL    HW157410   4.049   7.589   9.503  0.5214 -2.1780  0.7416
16935SOL    HW257411   3.918   7.582   9.428 -0.1512  0.9481  1.4725
16936SOL     OW57412  12.749   3.670   0.723 -0.5348 -0.2605 -0.1133
16936SOL    HW157413  12.782   3.730   0.656 -2.0769 -0.2077 -0.8922
16936SOL    HW257414  12.805   3.685   0.799 -0.5169  1.7863 -0.4646
16937SOL     OW57415   6.327   9.004  11.788 -0.1547  0.3077 -0.2664
16937SOL    HW157416   6.281   9.067  11.843 -0.3238  0.2707 -0.3645
16937SOL    HW257417   6.296   8.919  11.818  1.6393  0.1386  1.3036
16938SOL     OW57418   1.076  12.384   1.598  0.4994  0.4715 -0.9578
16938SOL    HW157419   1.151  12.387   1.538  0.8652  1.9337 -0.4711
16938SOL    HW257420   1.087  12.302   1.646  1.7208  0.5804 -1.0176
16939SOL     OW57421   8.605   0.024   9.927 -0.2762  0.4508 -0.6354
16939SOL    HW157422   8.618  -0.053   9.872 -1.6504 -0.2898  0.0331
16939SOL    HW257423   8.677   0.082   9.904  1.9758 -1.8166  0.2227
16940SOL     OW57424  10.864   0.081  10.902  0.2669 -0.6581  0.3696
16940SOL    HW157425  10.886   0.150  10.840  1.2740  0.6016  2.0439
16940SOL    HW257426  10.922   0.008  10.880  0.6824 -0.1844 -0.1000
16941SOL     OW57427  10.273  10.855   3.852  0.1706 -0.0809  0.4380
16941SOL    HW157428  10.261  10.848   3.947  0.9735  0.7457  0.6123
16941SOL    HW257429  10.291  10.765   3.824  4.2050  0.1008  1.7214
16942SOL     OW57430   0.408   3.499   3.101  0.4212  0.1059  0.1984
16942SOL    HW157431   0.419   3.571   3.164  1.4584 -1.2649  1.6485
16942SOL    HW257432   0.492   3.453   3.103  0.4602 -0.0344 -2.1820
16943SOL     OW57433   5.175   8.443   2.151  0.7976 -0.1871 -0.0671
16943SOL    HW157434   5.097   8.497   2.163  1.1931 -0.0383  2.1912
16943SOL    HW257435   5.233   8.468   2.223  2.3583 -1.2918 -0.8916
16944SOL     OW57436  11.039   1.280   5.788 -0.0355  0.5652 -0.4151
16944SOL    HW157437  11.049   1.375   5.801  0.9739  0.1497  2.5166
16944SOL    HW257438  11.108   1.257   5.726  0.6072  1.5409 -0.0805
16945SOL     OW57439   6.324   6.321   3.362  0.6525  0.2673 -0.7352
16945SOL    HW157440   6.322   6.415   3.376  3.0903  0.7863 -2.9665
16945SOL    HW257441   6.344   6.311   3.268 -1.3764 -2.5090 -1.0092
16946SOL     OW57442  12.657   9.210   0.504 -0.3045  0.3961  0.2770
16946SOL    HW157443  12.577   9.178   0.464 -0.1023 -0.4701  0.5525
16946SOL    HW257444  12.704   9.254   0.433 -0.1731 -0.6870 -0.3170
16947SOL     OW57445   2.618   9.430   1.298  0.1464  0.4812  0.1088
16947SOL    HW157446   2.665   9.396   1.222 -1.9241  0.1409 -1.0789
16947SOL    HW257447   2.684   9.481   1.346  1.2928  1.5749 -2.4601
16948SOL     OW57448   0.686   1.814  12.544 -0.1061  0.3276  0.2970
16948SOL    HW157449   0.610   1.869  12.526 -0.1050  0.2109 -0.0661
16948SOL    HW257450   0.749   1.873  12.585 -1.4641 -0.1855  3.3786
16949SOL     OW57451   4.289  10.222   6.260  0.3047 -0.0766  0.5522
16949SOL    HW157452   4.250  10.156   6.203 -2.3856 -0.1674  2.3274
16949SOL    HW257453   4.334  10.282   6.201 -2.7731  0.1537 -1.7682
16950SOL     OW57454   7.971  11.196   5.578 -0.1231 -0.6653  0.0719
16950SOL    HW157455   7.880  11.191   5.548 -0.5301 -1.0101  1.3018
16950SOL    HW257456   7.984  11.288   5.599  0.4445 -0.2424 -1.8993
16951SOL     OW57457   0.713   7.275  10.381  0.7126  0.3155  0.3561
16951SOL    HW157458   0.743   7.208  10.443  0.5677  1.1841  1.4019
16951SOL    HW257459   0.658   7.227  10.319  1.4319 -0.7012  0.4711
16952SOL     OW57460   4.084   0.338  12.690  0.0330  0.0998 -0.1909
16952SOL    HW157461   4.005   0.377  12.652  1.7215  4.0186 -0.2619
16952SOL    HW257462   4.083   0.367  12.781  1.2027  0.0045 -0.1298
16953SOL     OW57463   0.883   2.388  12.371  1.0798  0.4292 -1.0382
16953SOL    HW157464   0.791   2.392  12.396  0.8254 -0.1562 -1.8827
16953SOL    HW257465   0.906   2.296  12.377  1.9061  0.6740  0.1517
16954SOL     OW57466   1.645   3.153   2.468  0.1499 -0.1445  0.1582
16954SOL    HW157467   1.731   3.131   2.503 -0.3872 -0.8623  1.0754
16954SOL    HW257468   1.587   3.086   2.504 -0.6061 -0.3229 -1.3242
16955SOL     OW57469   6.805   2.602   3.800  0.3674 -0.1466  0.3192
16955SOL    HW157470   6.871   2.644   3.855  1.0950  0.6343 -1.0942
16955SOL    HW257471   6.744   2.673   3.778 -0.2044 -0.5683  0.5357
16956SOL     OW57472   9.366   0.807   7.106  0.0474 -0.1824  0.3482
16956SOL    HW157473   9.458   0.814   7.082 -0.2875  0.1156 -0.9759
16956SOL    HW257474   9.320   0.815   7.022 -1.1412 -1.0782  0.8958
16957SOL     OW57475   5.453   7.835   8.611 -0.1986  0.0492 -0.1660
16957SOL    HW157476   5.499   7.789   8.681 -2.3285 -1.5165  0.2999
16957SOL    HW257477   5.464   7.928   8.632  3.0347 -0.1836 -0.3527
16958SOL     OW57478   0.101   1.892   4.595 -0.3948  0.0809 -0.4987
16958SOL    HW157479   0.087   1.802   4.566 -2.0347 -0.2994  1.2689
16958SOL    HW257480   0.164   1.885   4.667  0.7968  0.5861 -1.4557
16959SOL     OW57481   2.512   7.708   2.404 -0.2662 -0.0695  0.2813
16959SOL    HW157482   2.439   7.767   2.418 -1.5508 -0.8164 -2.5807
16959SOL    HW257483   2.579   7.761   2.361 -0.2952 -0.0635  0.2438
16960SOL     OW57484   4.834   5.167   0.169 -0.2258  0.4269  0.4281
16960SOL    HW157485   4.847   5.215   0.087  0.4867  0.4380  0.5374
16960SOL    HW257486   4.882   5.085   0.156 -1.6671 -0.4115  0.1355
16961SOL     OW57487   5.592  12.288   1.585  0.2635 -0.1248  0.8856
16961SOL    HW157488   5.645  12.244   1.651 -0.2038 -0.4230  1.0666
16961SOL    HW257489   5.502  12.262   1.605 -0.0261  0.8980  0.9831
16962SOL     OW57490   8.336   2.156   6.243 -0.4468 -0.2399 -0.4182
16962SOL    HW157491   8.273   2.224   6.222  0.2338  0.3540 -0.6052
16962SOL    HW257492   8.336   2.099   6.166 -0.2627  0.1489 -0.7134
16963SOL     OW57493   4.201  10.264   7.960  0.9516 -0.5994  0.4150
16963SOL    HW157494   4.173  10.327   7.893  2.4618  0.1597  0.4560
16963SOL    HW257495   4.206  10.181   7.915 -2.0536 -0.9784  0.5785
16964SOL     OW57496   8.196   0.536  11.775 -0.4666 -0.0228  0.0588
16964SOL    HW157497   8.249   0.549  11.697  0.3545  0.0897  0.6140
16964SOL    HW257498   8.216   0.612  11.830 -0.3609 -0.5274  0.7366
16965SOL     OW57499   9.380   8.119  11.229 -0.4148 -0.0451  0.0022
16965SOL    HW157500   9.383   8.030  11.193 -2.5451 -0.1249 -0.0932
16965SOL    HW257501   9.388   8.176  11.152  0.4524 -0.1305  0.0137
16966SOL     OW57502   9.168  10.630   1.154  0.1276  0.5504  0.7790
16966SOL    HW157503   9.233  10.649   1.221  0.8417  1.0649 -0.0253
16966SOL    HW257504   9.099  10.695   1.169  0.7888  1.3838  0.3791
16967SOL     OW57505   0.526   7.142   4.361 -0.1929  0.5979 -0.1508
16967SOL    HW157506   0.585   7.151   4.436 -0.7252 -0.6016  0.4409
16967SOL    HW257507   0.525   7.048   4.344 -0.9547  0.7510 -0.9531
16968SOL     OW57508  10.020   4.865   7.349 -0.6466  0.2772 -0.2886
16968SOL    HW157509  10.098   4.828   7.308  0.6275  1.8011  0.6453
16968SOL    HW257510   9.970   4.901   7.276 -0.7154 -1.0732 -0.9413
16969SOL     OW57511   0.774   3.258   7.825 -0.0317  0.2623  0.0110
16969SOL    HW157512   0.848   3.240   7.884  0.5502  1.0382 -0.4602
16969SOL    HW257513   0.697   3.240   7.878  0.4843 -1.0783  0.3545
16970SOL     OW57514   6.225   0.162   8.255  0.1814  0.6530 -0.3152
16970SOL    HW157515   6.132   0.186   8.265 -0.7863 -1.9244 -2.0066
16970SOL    HW257516   6.260   0.166   8.344 -0.9856  3.5398  0.1156
16971SOL     OW57517   9.522   7.542   1.993 -0.2943  0.5284  0.4646
16971SOL    HW157518   9.588   7.473   2.003 -0.0240  0.5925 -0.6894
16971SOL    HW257519   9.570   7.623   2.013 -0.3304  0.4838  0.7437
16972SOL     OW57520   4.630   2.162  12.600  0.2299 -0.3624  0.2543
16972SOL    HW157521   4.565   2.143  12.532  1.6084  0.0289 -1.2345
16972SOL    HW257522   4.710   2.183  12.552  1.1125  0.5086  2.0033
16973SOL     OW57523   3.239   6.026   3.490 -0.1686 -0.0649  0.9732
16973SOL    HW157524   3.186   5.953   3.523  0.6758 -1.5809 -0.8275
16973SOL    HW257525   3.329   5.993   3.492  0.4750  1.6192  1.8011
16974SOL     OW57526  12.633   8.462  12.393  0.0997  0.0159 -0.3128
16974SOL    HW157527  12.686   8.495  12.320  0.3396 -0.7298 -0.4856
16974SOL    HW257528  12.561   8.416  12.350  0.2182 -0.3873 -0.0802
16975SOL     OW57529   9.703  10.656   1.228 -0.1527 -0.1300 -0.0797
16975SOL    HW157530   9.688  10.625   1.317 -0.2464 -1.1277 -0.4276
16975SOL    HW257531   9.795  10.681   1.226 -0.6145  1.8264  0.8376
16976SOL     OW57532   4.362   3.111   7.505 -0.7901  0.1512 -0.3350
16976SOL    HW157533   4.271   3.085   7.513 -0.5541 -0.9468 -1.0472
16976SOL    HW257534   4.409   3.030   7.483  0.5947  0.3562  1.5699
16977SOL     OW57535   3.116   5.009   5.023 -0.8984  0.3453 -0.0654
16977SOL    HW157536   3.202   4.998   5.063 -0.8001 -0.1915 -0.4031
16977SOL    HW257537   3.078   4.920   5.022 -0.6126  0.2033 -1.7561
16978SOL     OW57538   3.899   1.830   6.012 -0.3858  0.0169  0.1071
16978SOL    HW157539   3.961   1.774   6.057  0.2677 -0.4546 -1.3383
16978SOL    HW257540   3.865   1.777   5.940  0.1606  1.3887 -1.2301
16979SOL     OW57541  11.460  12.057   3.033  0.1778 -0.4246 -0.5564
16979SOL    HW157542  11.404  12.056   2.955  0.2436  0.3920 -0.6197
16979SOL    HW257543  11.398  12.066   3.106  0.1857 -0.1202 -0.5865
16980SOL     OW57544   2.374  12.410   8.243  0.1223  0.9647 -0.2788
16980SOL    HW157545   2.305  12.432   8.305  0.2862 -2.0872  1.1538
16980SOL    HW257546   2.328  12.371   8.168  0.1559  1.4286 -0.5472
16981SOL     OW57547   8.705   2.028   0.528  0.0563 -0.5263  0.1167
16981SOL    HW157548   8.758   2.107   0.517  0.3547 -0.1822  3.1498
16981SOL    HW257549   8.737   1.989   0.610 -1.3152 -2.8136 -0.3462
16982SOL     OW57550   5.124   2.721   7.183  0.4227  0.3745 -0.0564
16982SOL    HW157551   5.112   2.798   7.239  1.8933 -0.3582  1.3481
16982SOL    HW257552   5.061   2.657   7.218 -0.9750  0.9446 -1.3778
16983SOL     OW57553   5.317   4.864   0.037  0.3484 -0.5806 -0.6564
16983SOL    HW157554   5.358   4.925  -0.025  0.0762  0.6435  0.3231
16983SOL    HW257555   5.387   4.841   0.097  0.4577 -1.2831 -1.0432
16984SOL     OW57556   3.311   0.479  12.551 -0.1725 -0.1398 -0.3405
16984SOL    HW157557   3.315   0.490  12.456  1.1107  0.3081 -0.2484
16984SOL    HW257558   3.247   0.544  12.580 -0.4207 -0.1457 -0.8740
16985SOL     OW57559   6.327   7.136   9.005 -0.0729  0.1608 -0.0931
16985SOL    HW157560   6.320   7.063   9.066  1.3915 -0.4387 -0.5843
16985SOL    HW257561   6.327   7.214   9.060 -1.5570 -0.1928  0.4492
16986SOL     OW57562  10.882  11.932   3.404 -0.0448  0.7118  0.5376
16986SOL    HW157563  10.928  11.974   3.332 -1.4110  0.3372 -0.5883
16986SOL    HW257564  10.942  11.940   3.478  1.9144  0.0289 -0.9021
16987SOL     OW57565   0.784   8.769   0.135  0.4296 -0.0797 -0.9549
16987SOL    HW157566   0.718   8.753   0.068  2.7524 -1.8903 -2.9824
16987SOL    HW257567   0.785   8.689   0.187 -2.1839  1.7227  2.2612
16988SOL     OW57568   7.818  11.964   9.215  0.0759 -0.3133 -0.7142
16988SOL    HW157569   7.775  11.915   9.285 -1.3171  0.1914 -1.1877
16988SOL    HW257570   7.751  11.973   9.147  0.6783  1.1671 -1.1514
16989SOL     OW57571   6.194   3.368   4.807  0.5754  0.0848 -0.2454
16989SOL    HW157572   6.192   3.387   4.901  0.4064  0.0806 -0.2480
16989SOL    HW257573   6.251   3.436   4.770  1.3739 -0.4486 -0.0173
16990SOL     OW57574  11.207   4.318   3.767 -1.0486 -0.0144 -0.3576
16990SOL    HW157575  11.214   4.224   3.785 -1.2267  0.1774  0.8097
16990SOL    HW257576  11.296   4.344   3.742 -1.3521 -0.8019 -2.4463
16991SOL     OW57577   2.311   4.868   9.028 -0.0593 -0.0901  0.1760
16991SOL    HW157578   2.375   4.801   9.051  0.4106  0.2941  0.0261
16991SOL    HW257579   2.358   4.951   9.041 -1.8143  0.5167  4.4912
16992SOL     OW57580   7.653  10.689   9.092  0.1963 -0.2166 -0.3859
16992SOL    HW157581   7.638  10.616   9.153  0.6704 -0.1357 -0.1655
16992SOL    HW257582   7.713  10.747   9.139  1.9026 -0.9507 -1.5344
16993SOL     OW57583   0.662   0.724   3.048 -0.8391  0.5643 -0.3307
16993SOL    HW157584   0.746   0.692   3.014  0.2264  0.1770  2.4039
16993SOL    HW257585   0.617   0.645   3.078 -2.1044  0.8031 -1.4949
16994SOL     OW57586   3.954  11.139   6.023  0.0336 -0.0177 -0.4298
16994SOL    HW157587   3.995  11.120   5.938 -3.4037 -0.2454 -2.2295
16994SOL    HW257588   3.991  11.223   6.050  3.0621 -1.1091 -0.8025
16995SOL     OW57589  10.461   7.958   1.463 -0.2921  0.1994 -0.2153
16995SOL    HW157590  10.408   7.931   1.538 -0.7432  0.2055 -0.5286
16995SOL    HW257591  10.422   7.913   1.388  0.7380 -0.5534 -0.3185
16996SOL     OW57592   1.119   2.623   3.254  0.1997  0.4550 -0.1102
16996SOL    HW157593   1.195   2.681   3.259  1.1422 -0.7625  0.1689
16996SOL    HW257594   1.069   2.654   3.178 -0.0708  2.4781  0.8502
16997SOL     OW57595   0.595  11.728   3.078 -0.2714 -0.8086  0.1944
16997SOL    HW157596   0.539  11.806   3.076 -1.0248 -1.3267  0.6463
16997SOL    HW257597   0.674  11.754   3.030 -0.6726  0.1041  0.0060
16998SOL     OW57598   0.946   1.821   8.950 -0.6684 -0.0954  0.3939
16998SOL    HW157599   1.018   1.759   8.933 -0.4478  0.3820 -0.5202
16998SOL    HW257600   0.989   1.901   8.979 -0.8576  0.0323  0.3291
16999SOL     OW57601   9.942   3.422   5.881 -0.0718  0.0029 -0.5121
16999SOL    HW157602   9.922   3.362   5.953 -0.9545  1.2268  0.2912
16999SOL    HW257603   9.953   3.365   5.805 -1.0960 -1.1729  0.1879
17000SOL     OW57604   1.677  10.104   2.110  0.2274 -0.2483 -0.1128
17000SOL    HW157605   1.696  10.068   2.024 -0.0337 -0.8361  0.0650
17000SOL    HW257606   1.669  10.027   2.167 -0.3381  0.0871  0.2792
17001SOL     OW57607   3.277   1.050   6.284  0.0796  0.2006 -0.1543
17001SOL    HW157608   3.329   1.015   6.212  0.2083  0.1508 -0.0371
17001SOL    HW257609   3.285   0.984   6.353 -1.1426 -0.4208 -0.5700
17002SOL     OW57610   3.773  11.324   5.625  0.4584 -0.2282  0.5691
17002SOL    HW157611   3.683  11.344   5.652  0.8482 -0.1115  1.8742
17002SOL    HW257612   3.827  11.385   5.675  1.3160 -0.9485  0.5520
17003SOL     OW57613   5.530   5.187   7.413  0.4483  0.3180 -0.1579
17003SOL    HW157614   5.454   5.133   7.433  0.6042  0.6525  1.5461
17003SOL    HW257615   5.592   5.169   7.484  2.4241 -0.6911 -2.0066
17004SOL     OW57616   8.768   8.218   0.263 -0.5481 -0.4968 -0.0601
17004SOL    HW157617   8.763   8.212   0.359 -1.3202 -1.0405 -0.1228
17004SOL    HW257618   8.860   8.238   0.245 -0.3921 -0.3911  0.7970
17005SOL     OW57619   8.734   6.488   9.522 -0.2906 -0.2085  0.0862
17005SOL    HW157620   8.699   6.461   9.436  0.0026 -1.1537  0.2554
17005SOL    HW257621   8.660   6.533   9.564 -0.5755 -0.1260 -0.4841
17006SOL     OW57622   8.805   0.481   8.536 -0.6890  0.0813  0.3610
17006SOL    HW157623   8.777   0.419   8.469 -0.1644 -2.7404  2.5831
17006SOL    HW257624   8.899   0.465   8.546  0.0678  3.0741 -0.6679
17007SOL     OW57625   7.093   5.558   3.989  0.6419  0.4990 -0.2957
17007SOL    HW157626   7.156   5.508   4.041 -2.1997 -2.4658  0.6318
17007SOL    HW257627   7.124   5.549   3.899  1.4529 -1.0852  0.0982
17008SOL     OW57628   8.873   9.897   0.780 -0.0335  0.5466  0.4236
17008SOL    HW157629   8.849   9.989   0.776 -1.3306  0.2150  0.1631
17008SOL    HW257630   8.901   9.875   0.691 -0.0285  0.6145  0.4089
17009SOL     OW57631   6.797   0.401   8.464 -0.2727 -0.7265  0.1818
17009SOL    HW157632   6.872   0.426   8.518 -1.7793  1.0081  1.6137
17009SOL    HW257633   6.833   0.341   8.399  2.6544  1.1864 -0.1680
17010SOL     OW57634   8.773  10.648   8.626 -0.1294 -0.3829  0.5476
17010SOL    HW157635   8.820  10.626   8.546  1.5124  1.3337  0.9505
17010SOL    HW257636   8.803  10.583   8.690 -1.5208 -1.8161 -0.2104
17011SOL     OW57637   0.287   8.274   9.015  0.8398  0.6154  0.2647
17011SOL    HW157638   0.193   8.293   9.016  0.8470  0.7128  1.7673
17011SOL    HW257639   0.329   8.360   9.009  0.8753  0.4755 -2.8667
17012SOL     OW57640   2.452   7.708   2.778 -0.3311  0.1052  0.4205
17012SOL    HW157641   2.369   7.695   2.732 -1.6793  0.5791  2.6013
17012SOL    HW257642   2.459   7.803   2.788 -0.8229 -0.0302  2.4088
17013SOL     OW57643   3.087   3.458  12.072  0.3718  0.3187 -0.7417
17013SOL    HW157644   3.089   3.463  11.977 -1.3508  2.0328 -0.7464
17013SOL    HW257645   3.011   3.404  12.092  1.5515 -1.2751 -0.2881
17014SOL     OW57646   2.820  11.651   5.435 -0.0126 -0.1069  0.4234
17014SOL    HW157647   2.855  11.740   5.429  1.0108 -0.5631 -0.9122
17014SOL    HW257648   2.860  11.605   5.362  1.2693 -2.2872  2.3837
17015SOL     OW57649  11.663   4.446   6.197 -0.4734  0.1553  0.2324
17015SOL    HW157650  11.573   4.445   6.231 -0.6228 -0.8144 -0.1666
17015SOL    HW257651  11.693   4.355   6.206  0.4565  0.4598  0.3113
17016SOL     OW57652   3.868   7.103   0.649  0.1459  0.7300  0.2828
17016SOL    HW157653   3.936   7.170   0.648  1.9027 -0.9411  0.1409
17016SOL    HW257654   3.893   7.045   0.722 -1.3007  0.2143  0.4053
17017SOL     OW57655   5.809   2.672   0.774 -0.3778 -0.1848  0.1928
17017SOL    HW157656   5.767   2.588   0.755 -1.4725  0.6285 -1.1564
17017SOL    HW257657   5.794   2.725   0.695  1.9773  0.6427  0.2108
17018SOL     OW57658   9.317   6.810   0.741 -0.2006 -0.5230 -0.3062
17018SOL    HW157659   9.234   6.769   0.716  0.8277 -0.8245 -3.6814
17018SOL    HW257660   9.309   6.900   0.710  0.0678  0.0012  1.0891
17019SOL     OW57661   3.898  11.596  10.596 -0.1508 -0.1408 -0.5782
17019SOL    HW157662   3.865  11.564  10.680  1.0304 -1.1530 -0.4595
17019SOL    HW257663   3.872  11.688  10.593 -2.5172 -0.7237 -0.3088
17020SOL     OW57664  12.137   1.506   9.066  0.7572 -0.0280  0.1469
17020SOL    HW157665  12.183   1.497   9.149  0.1195  1.0197  0.6326
17020SOL    HW257666  12.124   1.416   9.036 -1.6847 -0.6447  2.6821
17021SOL     OW57667   8.029   5.010   9.156 -0.1676 -0.8058  0.0952
17021SOL    HW157668   8.041   4.996   9.250  0.3439 -1.8453 -0.1169
17021SOL    HW257669   7.987   5.096   9.150  0.7513 -0.2470  1.2246
17022SOL     OW57670   7.601   9.422   2.976  0.2540 -0.5759 -0.2856
17022SOL    HW157671   7.594   9.340   2.927  4.1499 -0.2775 -1.7565
17022SOL    HW257672   7.661   9.476   2.923 -1.5006  2.9906  0.9960
17023SOL     OW57673   0.868  10.753   9.009  0.0692  0.4643  0.4053
17023SOL    HW157674   0.882  10.674   9.060  1.5074 -1.2295 -2.3415
17023SOL    HW257675   0.892  10.825   9.068 -2.3381 -0.9519  3.3449
17024SOL     OW57676   6.578   3.035   7.554  0.1450 -0.3373  0.6101
17024SOL    HW157677   6.652   3.090   7.579  0.7395 -1.2469  0.9329
17024SOL    HW257678   6.576   3.039   7.458  0.1799  0.2447  0.6340
17025SOL     OW57679   5.924  11.825   9.139  0.1958  0.0574 -0.3386
17025SOL    HW157680   5.960  11.913   9.130 -0.5743  0.2076 -2.4567
17025SOL    HW257681   5.997  11.767   9.117  0.0439  0.2574 -1.3983
17026SOL     OW57682   8.567   0.380   7.498 -0.0375  0.4766  0.0675
17026SOL    HW157683   8.506   0.351   7.566  0.5643 -1.2107 -0.0635
17026SOL    HW257684   8.637   0.315   7.499  0.7342  1.2350 -1.1757
17027SOL     OW57685   6.936  12.627  12.737 -0.0935 -0.9043 -0.2104
17027SOL    HW157686   6.995  12.696  12.706  0.8687 -0.7644  1.7880
17027SOL    HW257687   6.902  12.588  12.657 -1.2287  2.2887 -1.4711
17028SOL     OW57688   0.971  10.806   1.672  0.5754 -0.3658  0.4698
17028SOL    HW157689   0.979  10.724   1.624  1.2795  0.3853 -0.7211
17028SOL    HW257690   0.883  10.803   1.710  0.1300 -1.1170 -0.5941
17029SOL     OW57691   6.981   8.205   5.149 -0.0852  0.5808  1.1858
17029SOL    HW157692   6.917   8.247   5.091  1.1888  0.6201 -0.2520
17029SOL    HW257693   7.035   8.277   5.181  0.7395  0.3232  0.4407
17030SOL     OW57694   8.866  10.367  10.802 -0.0981 -0.0919  0.2636
17030SOL    HW157695   8.908  10.281  10.806  0.4217  0.1593  0.2498
17030SOL    HW257696   8.777  10.349  10.771  0.4204 -0.4791 -1.0623
17031SOL     OW57697   5.275   8.396  11.834  0.4442 -0.3599 -0.1241
17031SOL    HW157698   5.225   8.315  11.826 -1.4766  0.4518  2.4218
17031SOL    HW257699   5.250   8.447  11.757  0.4200 -1.4858 -0.9015
17032SOL     OW57700   9.609  10.169  10.574 -0.3974  0.6216  0.2273
17032SOL    HW157701   9.600  10.084  10.531  1.3390 -0.6281  2.1114
17032SOL    HW257702   9.551  10.163  10.651  1.4173  0.1673  1.6284
17033SOL     OW57703   8.705   5.096   1.498  0.4244  0.7259 -0.5076
17033SOL    HW157704   8.683   5.004   1.482  0.9212  0.7259 -1.2754
17033SOL    HW257705   8.646   5.123   1.568  0.9898 -0.4764  0.4746
17034SOL     OW57706   4.676   5.690   5.801 -0.3581  1.0508  0.8184
17034SOL    HW157707   4.598   5.742   5.817 -1.3997 -0.1734 -0.0601
17034SOL    HW257708   4.644   5.611   5.757  1.3498  0.4228  0.6105
17035SOL     OW57709   4.342   3.776   1.057  0.7196 -0.0415  0.4967
17035SOL    HW157710   4.324   3.850   0.998 -0.7503 -1.2151 -0.6042
17035SOL    HW257711   4.405   3.811   1.120 -0.1409  2.2332  0.1973
17036SOL     OW57712  11.327  11.172   5.785  0.0625 -0.4641  0.1010
17036SOL    HW157713  11.336  11.263   5.814 -0.3950 -0.5819  0.6413
17036SOL    HW257714  11.257  11.136   5.840 -0.7395 -0.7449 -1.0575
17037SOL     OW57715   7.067   5.087  11.591 -0.6339 -0.5218 -0.4765
17037SOL    HW157716   7.027   5.166  11.554 -0.2599  1.4048  2.8238
17037SOL    HW257717   7.151   5.080  11.546 -0.2433  1.5741 -0.1790
17038SOL     OW57718   6.097   2.594   7.190  0.1674  0.0488 -0.6971
17038SOL    HW157719   6.015   2.634   7.160 -0.6307 -0.1758  1.0590
17038SOL    HW257720   6.083   2.500   7.179  0.0360 -0.0104 -0.0436
17039SOL     OW57721   6.356   5.787   1.685  0.4041  0.1181  0.0915
17039SOL    HW157722   6.337   5.879   1.673 -1.5094 -0.1816  0.5550
17039SOL    HW257723   6.292   5.741   1.631 -0.3218 -0.9654  1.7895
17040SOL     OW57724   7.512  11.176   8.834  0.2644 -0.4323  0.4104
17040SOL    HW157725   7.447  11.132   8.888 -1.0232  0.7989 -0.0563
17040SOL    HW257726   7.566  11.226   8.895 -1.0779  0.8209  0.6372
17041SOL     OW57727   8.226  11.585   5.843 -0.8252  0.3665 -0.2177
17041SOL    HW157728   8.227  11.495   5.877 -1.3515  0.9453  1.4253
17041SOL    HW257729   8.135  11.600   5.818 -0.9863  0.8215  0.6166
17042SOL     OW57730  12.536   8.859   5.342  0.3432 -0.3709 -0.0587
17042SOL    HW157731  12.490   8.803   5.404  1.4112  0.2325  1.3404
17042SOL    HW257732  12.468   8.914   5.303 -0.6149 -2.0756 -0.9036
17043SOL     OW57733   1.778   3.452   4.843  0.6580 -0.1833  0.3490
17043SOL    HW157734   1.866   3.487   4.829  0.2318  1.2108  0.9608
17043SOL    HW257735   1.720   3.517   4.804 -0.0936 -1.7614 -1.3249
17044SOL     OW57736  11.831   0.884   9.296  0.3821 -0.0125  0.0356
17044SOL    HW157737  11.756   0.926   9.339  0.1521  0.6778 -1.0030
17044SOL    HW257738  11.906   0.939   9.318  0.0310  1.1804 -1.5808
17045SOL     OW57739   0.716   8.965   1.227  0.3288  0.0729 -0.0313
17045SOL    HW157740   0.756   9.014   1.156  1.8773  0.2728  0.9361
17045SOL    HW257741   0.626   8.950   1.198  0.9560  0.0133 -2.0718
17046SOL     OW57742  11.547   5.870  10.453 -0.1839 -0.5445  0.6414
17046SOL    HW157743  11.516   5.780  10.450  0.4562 -0.7960  1.2082
17046SOL    HW257744  11.471   5.921  10.480 -0.3083 -1.0474  1.2602
17047SOL     OW57745   5.601   4.669   1.232  0.1718 -0.2203 -0.3164
17047SOL    HW157746   5.553   4.745   1.197  0.6571  0.3314  0.1832
17047SOL    HW257747   5.537   4.625   1.288  0.6207  1.3702  1.5684
17048SOL     OW57748   4.681   7.583   8.265 -0.7729  0.1548  0.3144
17048SOL    HW157749   4.737   7.613   8.337 -1.6515  1.3049  0.5649
17048SOL    HW257750   4.712   7.495   8.245 -0.1324  0.0303  1.7202
17049SOL     OW57751  11.804  11.516   3.853 -0.1297 -0.3587 -0.0624
17049SOL    HW157752  11.794  11.511   3.949  1.5696 -0.8947  0.1236
17049SOL    HW257753  11.835  11.605   3.838 -0.4985 -0.2411 -0.1335
17050SOL     OW57754   3.857  11.779   2.026 -0.4262  0.2706 -0.0434
17050SOL    HW157755   3.792  11.709   2.034 -2.2132  1.8089 -0.5842
17050SOL    HW257756   3.919  11.761   2.097 -2.1967 -0.4823  1.3991
17051SOL     OW57757   1.739   6.942   3.194  0.2957 -0.5150  0.3645
17051SOL    HW157758   1.678   6.907   3.259 -0.1603 -1.2490 -0.4477
17051SOL    HW257759   1.822   6.897   3.211  0.3423 -0.2671  0.8109
17052SOL     OW57760  11.161   3.199   3.928 -0.0846 -0.4455 -0.0938
17052SOL    HW157761  11.175   3.149   4.008 -0.4191  0.1357  0.3343
17052SOL    HW257762  11.102   3.145   3.876  1.0409 -1.3641 -0.4633
17053SOL     OW57763   5.718   0.336   4.311 -0.1725  0.2484 -0.4955
17053SOL    HW157764   5.723   0.362   4.219  1.5569 -0.3950 -0.6189
17053SOL    HW257765   5.776   0.398   4.356 -0.5651  0.1982  0.0910
17054SOL     OW57766   9.616  12.247   0.545  0.5652 -0.1268 -0.2049
17054SOL    HW157767   9.677  12.176   0.563 -1.5412 -1.8083  0.7341
17054SOL    HW257768   9.564  12.256   0.625 -0.4910  1.1657 -0.9807
17055SOL     OW57769   4.301   0.247   4.323  0.2848  0.2125 -0.4307
17055SOL    HW157770   4.229   0.229   4.262  1.0679 -2.0542 -0.7821
17055SOL    HW257771   4.374   0.194   4.290  1.9162  1.8677  0.3311
17056SOL     OW57772   1.305  10.578  10.673 -0.3696  0.1256  0.1219
17056SOL    HW157773   1.324  10.498  10.722  1.5415  0.7410  0.4449
17056SOL    HW257774   1.220  10.606  10.707 -0.4999 -1.0953  0.8905
17057SOL     OW57775   7.146  11.902  10.701 -0.0827 -0.2520  0.2340
17057SOL    HW157776   7.148  11.927  10.609 -0.0133 -0.3095  0.2203
17057SOL    HW257777   7.061  11.933  10.732  0.6832  1.5514  0.6645
17058SOL     OW57778   7.197   8.997   4.295 -0.4372 -1.1552 -0.1897
17058SOL    HW157779   7.233   9.084   4.312 -1.2696 -0.5330 -1.4669
17058SOL    HW257780   7.195   8.955   4.381  0.1313  0.0167  0.4252
17059SOL     OW57781   7.529   8.655   5.098 -0.0231  0.0016  0.4721
17059SOL    HW157782   7.493   8.741   5.078  2.6775  1.4145  1.1795
17059SOL    HW257783   7.553   8.660   5.191 -0.1344 -1.6358  0.6130
17060SOL     OW57784   3.686   3.852   7.571 -0.5120  0.2143 -0.1655
17060SOL    HW157785   3.661   3.761   7.555 -2.1140  0.0840  2.4159
17060SOL    HW257786   3.644   3.901   7.500 -1.3363 -0.8759 -0.4598
17061SOL     OW57787  10.657   2.424   9.673 -0.2025  0.9972  0.7162
17061SOL    HW157788  10.690   2.508   9.708  0.5966  0.6311  0.8678
17061SOL    HW257789  10.562   2.431   9.681 -0.0933  0.7198  3.6048
17062SOL     OW57790   1.011  11.084  11.968  0.1451 -0.4440 -0.6293
17062SOL    HW157791   1.018  11.153  11.903  0.4266 -1.7553 -2.0465
17062SOL    HW257792   1.063  11.012  11.933 -1.9698 -2.2298 -0.3370
17063SOL     OW57793  10.941   9.805   9.233  0.0415 -0.6336 -0.2549
17063SOL    HW157794  11.016   9.772   9.283  0.7289  0.5081 -0.4778
17063SOL    HW257795  10.896   9.864   9.293  0.6002  0.3794 -0.8122
17064SOL     OW57796   9.869   8.290  10.613 -0.4139 -0.4679  0.1169
17064SOL    HW157797   9.777   8.265  10.616 -0.1484 -1.5430 -0.0374
17064SOL    HW257798   9.915   8.216  10.653  0.2321  0.9709  2.2325
17065SOL     OW57799  12.320   6.164   4.699  0.1631  0.0926  0.1652
17065SOL    HW157800  12.415   6.169   4.712  0.3447 -2.7795  0.5717
17065SOL    HW257801  12.285   6.140   4.784 -0.9106  0.6674 -0.0889
17066SOL     OW57802   8.697   5.470   2.487 -0.0611  0.5109  0.1500
17066SOL    HW157803   8.662   5.433   2.568  0.2639  0.8587  0.4567
17066SOL    HW257804   8.746   5.398   2.447 -0.2118  0.3413  0.2680
17067SOL     OW57805   2.901  11.726   0.068  0.2566  0.3200 -0.1388
17067SOL    HW157806   2.808  11.705   0.076  0.6529 -1.7129 -0.1029
17067SOL    HW257807   2.945  11.652   0.111  1.8965  0.5232 -1.3894
17068SOL     OW57808   3.948   8.318   4.318 -0.4911 -0.4566  0.7430
17068SOL    HW157809   3.858   8.311   4.352 -0.0561  0.2834  2.1223
17068SOL    HW257810   3.994   8.245   4.360  0.0842  0.5446  1.9059
17069SOL     OW57811  10.916   5.492   1.589  0.6565 -0.2645 -0.2014
17069SOL    HW157812  10.976   5.417   1.583  1.0986  0.2220 -3.5441
17069SOL    HW257813  10.953   5.558   1.530 -2.2692  0.7056 -1.1295
17070SOL     OW57814   9.902  12.008  10.932  0.0517  0.1225  0.0250
17070SOL    HW157815   9.910  11.932  10.875 -1.0075 -0.5730  0.7676
17070SOL    HW257816   9.900  11.972  11.021  0.1303  1.0599  0.4265
17071SOL     OW57817   4.110   3.149  11.672 -0.6871 -0.2315  0.2886
17071SOL    HW157818   4.116   3.183  11.583 -0.6291 -0.6953  0.1137
17071SOL    HW257819   4.043   3.081  11.667 -0.2095 -0.7169  0.4501
17072SOL     OW57820   8.321   3.120   0.611  0.5532 -0.1977  0.1905
17072SOL    HW157821   8.380   3.075   0.670  1.5221  0.5755 -0.1711
17072SOL    HW257822   8.364   3.202   0.591  0.2348 -0.4132 -1.5541
17073SOL     OW57823   1.975   4.034   3.487  0.2370  0.4061  0.1268
17073SOL    HW157824   1.977   3.947   3.446 -0.4953  0.8354 -0.8506
17073SOL    HW257825   2.067   4.056   3.500  0.4606 -1.5896  2.7983
17074SOL     OW57826   3.466  11.205   1.355  0.7762  0.5408 -0.3910
17074SOL    HW157827   3.441  11.276   1.296  0.0624  0.8512  0.2567
17074SOL    HW257828   3.387  11.152   1.365  0.6126  0.9786  0.9210
17075SOL     OW57829   3.709   0.854   5.143 -0.3094  0.4107  0.0558
17075SOL    HW157830   3.683   0.826   5.231 -0.9482 -0.0264 -0.2557
17075SOL    HW257831   3.713   0.772   5.093  0.3475  0.6251 -0.2495
17076SOL     OW57832   2.148   8.405   8.370  0.4139  0.0037 -0.2411
17076SOL    HW157833   2.210   8.474   8.394 -0.1815  0.4588  0.0273
17076SOL    HW257834   2.197   8.349   8.310  0.8546  0.7723 -0.6249
17077SOL     OW57835   3.075   3.771   3.935 -0.6378 -0.0888  0.2788
17077SOL    HW157836   3.107   3.785   3.846  0.0589  0.1834  0.5653
17077SOL    HW257837   3.153   3.775   3.990 -0.5338 -3.4233  0.6091
17078SOL     OW57838   9.970   6.967   4.666  0.0072  0.6904 -1.0636
17078SOL    HW157839  10.026   6.999   4.736  1.6911  1.2542 -2.5886
17078SOL    HW257840   9.930   6.888   4.702  0.8924  0.9036  0.4886
17079SOL     OW57841   9.688   1.111   6.625  0.1407  0.0669  0.1756
17079SOL    HW157842   9.752   1.040   6.617 -1.0264 -0.8915 -0.9513
17079SOL    HW257843   9.618   1.075   6.678  0.6083  1.2164  1.6567
17080SOL     OW57844  10.112  11.984   0.699 -0.3646 -0.0353 -0.6538
17080SOL    HW157845  10.198  12.017   0.673  0.0629  0.1302  0.8667
17080SOL    HW257846  10.051  12.050   0.668  0.4067  1.8827  1.6345
17081SOL     OW57847   1.289   1.320   2.480 -0.9528 -0.5990  0.3962
17081SOL    HW157848   1.371   1.353   2.517 -1.7204  1.1741  0.6322
17081SOL    HW257849   1.311   1.234   2.445  0.2790 -1.4761  3.1137
17082SOL     OW57850   8.362   2.567   6.233  0.3629 -0.1463  0.8456
17082SOL    HW157851   8.277   2.530   6.255  0.3584 -0.3402  0.5192
17082SOL    HW257852   8.405   2.581   6.317  0.1772 -0.4550  0.9962
17083SOL     OW57853   4.682  11.324   6.323 -0.3271  0.1986  0.0601
17083SOL    HW157854   4.761  11.321   6.269 -0.9498  0.6343 -0.9213
17083SOL    HW257855   4.617  11.366   6.266 -1.7869 -1.8156  0.1432
17084SOL     OW57856   9.232   0.075   9.545  0.2573 -0.1084 -0.0787
17084SOL    HW157857   9.151   0.055   9.592  0.8316  0.8458  1.4196
17084SOL    HW257858   9.290   0.002   9.566  0.2999 -0.0036  0.1724
17085SOL     OW57859   6.493   2.125  12.060 -0.5984 -0.1480 -0.5840
17085SOL    HW157860   6.497   2.047  12.005  4.7685 -0.1613 -0.7170
17085SOL    HW257861   6.510   2.092  12.149 -0.1593  0.6591 -0.3577
17086SOL     OW57862  10.738  12.485   6.847 -0.1573 -0.1166  0.1778
17086SOL    HW157863  10.756  12.444   6.763  1.8285 -0.8157  0.8570
17086SOL    HW257864  10.643  12.487   6.854 -0.3624 -0.1212 -2.0149
17087SOL     OW57865  10.721   5.749  10.421 -0.2159  0.1171 -0.7496
17087SOL    HW157866  10.762   5.803  10.488  1.2448 -1.1616 -0.5664
17087SOL    HW257867  10.628   5.748  10.444 -0.0906  1.5901 -0.1187
17088SOL     OW57868   7.650   6.428   0.981 -0.0949  0.7633 -0.0938
17088SOL    HW157869   7.697   6.475   1.049  1.0707  0.5985 -0.7592
17088SOL    HW257870   7.617   6.349   1.024 -0.2235  1.1375  0.5020
17089SOL     OW57871   0.260   2.929   3.935  0.1157  0.3942  0.7740
17089SOL    HW157872   0.258   3.024   3.937  0.2915  0.4930 -1.1989
17089SOL    HW257873   0.168   2.903   3.925  0.1327  0.3955  0.6114
17090SOL     OW57874   4.250  10.525   8.921  0.0694 -0.9742  0.4162
17090SOL    HW157875   4.278  10.604   8.967 -0.0304  0.2856 -1.5846
17090SOL    HW257876   4.310  10.517   8.848 -0.4484 -2.2927  0.1050
17091SOL     OW57877   6.178   0.569   1.602  0.2906  0.0321  0.0889
17091SOL    HW157878   6.107   0.507   1.583 -1.1265  1.8935 -1.0476
17091SOL    HW257879   6.169   0.637   1.535  2.8164  0.6502  0.2802
17092SOL     OW57880   3.243   6.657  10.731  0.5262  0.0990  0.0483
17092SOL    HW157881   3.237   6.748  10.759  0.8440 -0.3950  1.8215
17092SOL    HW257882   3.268   6.662  10.638  0.3828  1.8016  0.0769
17093SOL     OW57883   6.450  12.054   8.332  0.5187  0.1276 -0.5791
17093SOL    HW157884   6.385  11.987   8.311 -0.1251  0.8076 -0.8225
17093SOL    HW257885   6.534  12.008   8.332 -0.0062 -0.8613  0.1982
17094SOL     OW57886   1.623   9.942  12.745 -0.2967 -0.4435 -0.2680
17094SOL    HW157887   1.536   9.952  12.784  0.9791 -0.5425  2.8857
17094SOL    HW257888   1.643  10.029  12.710 -0.3981  0.5963  2.0294
17095SOL     OW57889   1.166   3.807   4.982  0.2133  0.3326 -0.2959
17095SOL    HW157890   1.240   3.819   5.041 -0.2061 -0.1364  0.3426
17095SOL    HW257891   1.202   3.761   4.906  0.3774 -0.8665  0.4837
17096SOL     OW57892   1.943  12.648   6.411  0.3955  0.8276  0.1340
17096SOL    HW157893   2.013  12.703   6.376 -0.4270  1.3956 -0.6650
17096SOL    HW257894   1.988  12.574   6.451  1.4507  1.1138 -0.4873
17097SOL     OW57895   2.061   0.411   6.695  0.6538  0.0825  0.0249
17097SOL    HW157896   2.067   0.333   6.641  1.1133  0.4614 -0.4743
17097SOL    HW257897   2.092   0.382   6.781 -0.3168 -0.5805  0.1699
17098SOL     OW57898   9.848   1.601   5.377 -0.0391 -0.1968 -0.1238
17098SOL    HW157899   9.920   1.660   5.355 -0.5753  0.7380  0.5750
17098SOL    HW257900   9.770   1.647   5.347 -0.4725 -0.5134  0.5000
17099SOL     OW57901   8.491   3.874   9.626 -0.2768 -0.1327 -0.2695
17099SOL    HW157902   8.469   3.791   9.583  0.4139 -1.0582  1.1195
17099SOL    HW257903   8.463   3.863   9.716  1.8505  0.2872  0.4999
17100SOL     OW57904   7.696   2.167   6.873  0.0973 -0.5607  0.1651
17100SOL    HW157905   7.695   2.244   6.930  1.6816  0.1081 -0.6765
17100SOL    HW257906   7.787   2.138   6.874 -0.0466 -1.1049 -1.2805
17101SOL     OW57907   8.899  12.255   9.412  0.0359  0.1141 -0.0511
17101SOL    HW157908   8.906  12.187   9.346  1.0799  1.0701 -0.9566
17101SOL    HW257909   8.924  12.212   9.494  1.0419 -0.5082 -0.6665
17102SOL     OW57910   5.239  12.091   0.617 -0.2108  0.3522  0.1781
17102SOL    HW157911   5.275  12.020   0.671 -1.5610 -0.8169 -0.3687
17102SOL    HW257912   5.229  12.052   0.530  0.4976  1.7332 -0.5533
17103SOL     OW57913   1.227  12.076  12.303  0.2698  0.2890  0.2782
17103SOL    HW157914   1.266  12.008  12.248  0.8130  0.5951  0.2751
17103SOL    HW257915   1.295  12.142  12.311  0.2280  0.2179  1.3875
17104SOL     OW57916  12.372   1.348   5.073 -0.3183  0.0522 -0.1230
17104SOL    HW157917  12.300   1.323   5.015 -0.8762  2.6289 -0.7021
17104SOL    HW257918  12.332   1.358   5.159  0.3543 -2.9878  0.6604
17105SOL     OW57919  12.325   5.287   2.848  0.1737 -0.3432  0.6176
17105SOL    HW157920  12.308   5.365   2.796 -0.7874 -0.9164  0.0411
17105SOL    HW257921  12.419   5.288   2.863  0.5525 -0.3972 -1.5215
17106SOL     OW57922   7.328   6.192  10.676  0.1928  0.0742 -0.1437
17106SOL    HW157923   7.365   6.179  10.763 -1.6893  1.4712  0.9613
17106SOL    HW257924   7.242   6.149  10.679 -0.3585  1.0564 -0.9165
17107SOL     OW57925   1.435  10.536   9.254  0.0158 -0.2088 -0.0889
17107SOL    HW157926   1.529  10.526   9.267 -0.1481 -0.6405  0.8248
17107SOL    HW257927   1.412  10.467   9.191  0.1617 -0.7103  0.3997
17108SOL     OW57928   2.181   7.004   2.484  0.4312  0.0409 -0.5047
17108SOL    HW157929   2.179   7.099   2.495  1.6100  0.1586 -1.1689
17108SOL    HW257930   2.274   6.981   2.484  0.2369 -0.9130 -1.8885
17109SOL     OW57931   7.818   0.663   7.588 -0.6920  0.2179  0.2007
17109SOL    HW157932   7.864   0.729   7.640  0.4982 -0.1261 -0.3870
17109SOL    HW257933   7.872   0.584   7.595 -2.3141 -0.8742  1.2686
17110SOL     OW57934  12.470  11.872   0.453 -0.2147 -0.3047 -0.0918
17110SOL    HW157935  12.398  11.871   0.390 -2.4733  3.9601  1.9828
17110SOL    HW257936  12.543  11.911   0.406 -0.5492 -0.8426 -1.0930
17111SOL     OW57937   8.695   0.731   3.113 -0.3957  0.5207 -0.2094
17111SOL    HW157938   8.736   0.670   3.052  0.6380  0.3284  0.6534
17111SOL    HW257939   8.601   0.719   3.098 -0.3184 -2.2156  0.7446
17112SOL     OW57940   0.619   5.504   4.758 -0.0434 -0.3685 -0.1372
17112SOL    HW157941   0.702   5.472   4.724 -1.1848 -1.4710 -2.0367
17112SOL    HW257942   0.555   5.437   4.734 -1.8813  1.5332 -0.8388
17113SOL     OW57943   5.928   2.489   8.725 -0.8114  0.1100  0.4067
17113SOL    HW157944   5.900   2.542   8.800 -2.1234 -0.0934  0.0950
17113SOL    HW257945   5.891   2.534   8.649 -0.2475 -0.1704 -0.0400
17114SOL     OW57946  12.179   8.656   0.844 -0.3598 -0.5073  0.0112
17114SOL    HW157947  12.182   8.726   0.908 -2.1835  0.8310 -1.2511
17114SOL    HW257948  12.231   8.688   0.770 -1.1535 -0.4561 -0.5479
17115SOL     OW57949   2.865   1.729   3.266 -0.0466  0.6430  0.0390
17115SOL    HW157950   2.928   1.743   3.336  0.0975  1.1567 -0.1871
17115SOL    HW257951   2.860   1.634   3.257 -0.6803  0.5431  1.2920
17116SOL     OW57952   4.998   6.632   2.521 -0.5475  0.2253  0.5095
17116SOL    HW157953   4.948   6.607   2.599  1.0502  0.6818  1.7356
17116SOL    HW257954   4.982   6.725   2.511 -0.6513  0.1921  0.3665
17117SOL     OW57955   9.525   4.566   2.563  0.4083 -0.1253 -0.1241
17117SOL    HW157956   9.440   4.608   2.556  0.4019 -0.0696  0.2536
17117SOL    HW257957   9.579   4.609   2.496  0.4838  0.6859  0.4376
17118SOL     OW57958   7.577  12.722   1.699 -0.3192  0.3209 -0.2063
17118SOL    HW157959   7.503  12.757   1.651 -0.4810  1.8267  1.0606
17118SOL    HW257960   7.626  12.800   1.727  2.4837 -0.6163 -2.0871
17119SOL     OW57961   4.911   2.750   9.572  0.1103  0.4607 -0.3286
17119SOL    HW157962   4.916   2.695   9.493 -0.9399 -0.2335  0.0649
17119SOL    HW257963   4.929   2.689   9.644  1.0027  1.0790 -0.0113
17120SOL     OW57964   4.179   2.976   8.174  0.0717  0.0078 -0.0519
17120SOL    HW157965   4.120   2.924   8.229  0.5562 -1.2875 -0.7067
17120SOL    HW257966   4.224   3.034   8.235  0.7130 -1.5072  0.9657
17121SOL     OW57967   6.649   6.385   1.220 -0.0959 -0.3361  0.2934
17121SOL    HW157968   6.681   6.321   1.157  2.9496 -0.9116  2.2270
17121SOL    HW257969   6.577   6.340   1.265  0.1689 -1.3345 -0.2455
17122SOL     OW57970   8.162   5.116   8.337 -0.1003  0.0976 -0.1863
17122SOL    HW157971   8.115   5.152   8.412 -0.6294  1.6314 -1.2151
17122SOL    HW257972   8.224   5.185   8.312 -0.3600 -0.1358 -1.5305
17123SOL     OW57973   1.373   2.899   7.686 -0.5811 -0.2061  0.4636
17123SOL    HW157974   1.447   2.933   7.736 -0.7516  1.5906 -0.4327
17123SOL    HW257975   1.297   2.946   7.720 -0.7051  1.0405 -1.3847
17124SOL     OW57976  10.839   4.691   1.216 -0.6965  0.4831 -0.3433
17124SOL    HW157977  10.857   4.631   1.288 -1.5949  2.6347  1.8218
17124SOL    HW257978  10.879   4.650   1.140  0.2028 -1.9783  1.3317
17125SOL     OW57979  10.036   9.215  10.017 -0.6624 -0.5574  0.1444
17125SOL    HW157980  10.039   9.256  10.103  0.1430  0.7902 -0.4926
17125SOL    HW257981  10.123   9.177  10.005  0.0605  1.2854 -0.9692
17126SOL     OW57982   2.309  11.651  11.459  0.7131  0.0649  0.0180
17126SOL    HW157983   2.382  11.651  11.396  1.0972 -1.6349  0.4148
17126SOL    HW257984   2.323  11.731  11.511  1.1243  0.8146 -1.1887
17127SOL     OW57985   7.727   8.674  11.646  0.7899 -0.0054 -0.1114
17127SOL    HW157986   7.733   8.767  11.669 -1.0183  0.3053 -0.7300
17127SOL    HW257987   7.709   8.674  11.552  0.1761 -0.9626 -0.0038
17128SOL     OW57988  11.033   7.555   7.364 -0.2763 -0.1421  0.4420
17128SOL    HW157989  11.027   7.474   7.413 -2.0072  0.0646  0.6412
17128SOL    HW257990  11.020   7.530   7.273  0.6122 -0.2456  0.3372
17129SOL     OW57991   7.196   1.183   5.748  0.3470  0.2551  0.0252
17129SOL    HW157992   7.283   1.212   5.775  0.1804  0.6096  0.1884
17129SOL    HW257993   7.139   1.256   5.770 -0.2234 -0.5271  1.2813
17130SOL     OW57994  12.228   7.660   3.732  0.4596  0.1297  0.4498
17130SOL    HW157995  12.154   7.666   3.672  1.8675 -0.6501 -1.5011
17130SOL    HW257996  12.301   7.630   3.676  1.9603 -0.2209  2.4902
17131SOL     OW57997   0.786   8.102   8.043 -0.1209  0.1606  0.3442
17131SOL    HW157998   0.789   8.006   8.041 -0.8509  0.1350 -2.1994
17131SOL    HW257999   0.874   8.128   8.070  0.2492 -1.2058  0.5401
17132SOL     OW58000   5.335   3.045   0.245  0.0879 -0.5370  0.4719
17132SOL    HW158001   5.265   2.983   0.223  1.4481 -1.7249 -0.7100
17132SOL    HW258002   5.380   3.061   0.163  1.0184  0.4558  1.1477
17133SOL     OW58003   5.246   0.135   5.359  0.3810 -0.5197  0.3876
17133SOL    HW158004   5.285   0.093   5.282  1.9336  0.7915  0.4055
17133SOL    HW258005   5.155   0.104   5.360  0.4529 -0.9375 -1.6953
17134SOL     OW58006   5.614   5.453   1.554 -0.3789 -0.3792  0.3794
17134SOL    HW158007   5.527   5.429   1.522 -0.5153  0.9317 -0.2669
17134SOL    HW258008   5.631   5.391   1.625 -1.2683 -1.5113 -0.3591
17135SOL     OW58009   7.322   5.669   3.316  0.4501 -0.4893  0.0767
17135SOL    HW158010   7.323   5.703   3.227  0.1317 -0.0408  0.2389
17135SOL    HW258011   7.394   5.607   3.319  0.4602 -0.5083 -0.4946
17136SOL     OW58012   7.941   1.310   9.228  0.4084 -0.0423  0.0846
17136SOL    HW158013   7.888   1.285   9.152  1.9843 -3.3415 -0.1178
17136SOL    HW258014   7.881   1.304   9.302  0.1042 -2.6538 -0.2664
17137SOL     OW58015   8.528   1.752   5.452 -0.4563 -0.0491  0.3865
17137SOL    HW158016   8.473   1.685   5.493 -0.6268  0.7048  1.4500
17137SOL    HW258017   8.608   1.752   5.505  1.1982 -2.0434 -1.9199
17138SOL     OW58018   5.847   0.350   6.063  0.0999 -0.1987  0.2155
17138SOL    HW158019   5.785   0.418   6.088  0.2390  0.7568 -1.8420
17138SOL    HW258020   5.792   0.276   6.038 -0.1781  0.1899 -0.3409
17139SOL     OW58021  12.456  11.617   3.119  0.5769 -0.4822  0.1571
17139SOL    HW158022  12.503  11.593   3.039  1.1142  0.8506  0.0575
17139SOL    HW258023  12.371  11.649   3.088  0.7712 -0.0012  0.1096
17140SOL     OW58024   5.363  12.569   0.010 -0.2582 -0.1691 -0.2277
17140SOL    HW158025   5.345  12.515   0.087 -1.1967  1.2334  0.5766
17140SOL    HW258026   5.455  12.594   0.018  0.1783 -1.5719 -0.5956
17141SOL     OW58027   2.099   3.576   1.076  0.1623  0.2910  0.1604
17141SOL    HW158028   2.188   3.546   1.058  0.4301  0.6667  0.7967
17141SOL    HW258029   2.096   3.584   1.171 -0.4050  0.7205  0.1093
17142SOL     OW58030   5.403   3.013   4.681 -0.1227  0.3146 -0.3119
17142SOL    HW158031   5.467   3.065   4.728  0.0939  1.3678 -1.7240
17142SOL    HW258032   5.323   3.066   4.681 -0.3488 -0.0168 -0.4580
17143SOL     OW58033   7.828   8.064   4.746 -0.7248 -0.7092 -0.2079
17143SOL    HW158034   7.869   8.130   4.801 -1.0559 -2.1016  1.8415
17143SOL    HW258035   7.754   8.033   4.798 -1.7715 -1.3058 -1.9639
17144SOL     OW58036   1.558   7.009  11.323 -0.8825 -0.3872  0.3224
17144SOL    HW158037   1.514   7.035  11.404  1.9437 -0.4859  2.0100
17144SOL    HW258038   1.580   7.091  11.279 -1.4789 -0.3070  0.1620
17145SOL     OW58039   5.714   1.575  11.436  0.2834 -0.1664 -0.2081
17145SOL    HW158040   5.780   1.604  11.498  1.4491 -0.2953 -1.3388
17145SOL    HW258041   5.764   1.532  11.366 -1.0845 -1.2865 -0.5404
17146SOL     OW58042   9.905  10.737   0.046  0.0331 -0.0372 -0.3020
17146SOL    HW158043   9.959  10.658   0.036  0.6838  0.3124  0.3076
17146SOL    HW258044   9.968  10.809   0.044 -0.2118  0.3129  1.8263
17147SOL     OW58045  12.454   7.225   1.512  0.3905 -0.1412 -0.5679
17147SOL    HW158046  12.496   7.308   1.537  2.7718 -0.5996 -2.5948
17147SOL    HW258047  12.452   7.174   1.593 -0.0244  1.4529  0.4588
17148SOL     OW58048  10.742   6.971   2.437 -0.1789 -0.0879  0.5198
17148SOL    HW158049  10.728   6.884   2.475  0.1220 -0.5350 -0.3724
17148SOL    HW258050  10.712   7.032   2.505  0.5700 -0.8538  1.5606
17149SOL     OW58051   7.881   6.329   0.114 -0.2523  0.1572 -0.0757
17149SOL    HW158052   7.958   6.283   0.148 -0.7829 -0.5652  0.1612
17149SOL    HW258053   7.816   6.323   0.184 -0.1765  1.7036  0.1608
17150SOL     OW58054   4.910   9.043   3.965  0.3409  0.5649 -0.2774
17150SOL    HW158055   4.887   9.069   4.055 -1.3525  0.4044 -0.6270
17150SOL    HW258056   5.004   9.058   3.959  0.4711  0.6734  1.4962
17151SOL     OW58057   3.367   1.876   7.753  0.0008 -0.7195  0.0818
17151SOL    HW158058   3.289   1.928   7.733 -0.2788 -0.5473  1.4867
17151SOL    HW258059   3.347   1.835   7.837  1.3278 -0.8830  0.3426
17152SOL     OW58060   1.649   9.843   2.242  0.4254 -0.1956  1.0769
17152SOL    HW158061   1.643   9.906   2.314  2.2995 -2.0712  3.0102
17152SOL    HW258062   1.561   9.806   2.236 -1.2464  3.4612 -1.1886
17153SOL     OW58063   2.699   4.524  12.016 -0.3200 -0.0761 -0.4144
17153SOL    HW158064   2.706   4.437  12.055  1.8133  0.0351 -0.4461
17153SOL    HW258065   2.727   4.512  11.925  1.0458  0.7867 -0.1441
17154SOL     OW58066   7.879  10.724   6.723  0.2591  0.6658 -0.2267
17154SOL    HW158067   7.874  10.671   6.803  0.7142 -1.2867 -1.4356
17154SOL    HW258068   7.824  10.801   6.742  0.8169  0.5649  2.1502
17155SOL     OW58069   6.359   3.062   1.841 -0.0970 -0.0785 -0.5684
17155SOL    HW158070   6.399   3.072   1.755  0.5741 -0.9167 -0.3601
17155SOL    HW258071   6.370   2.970   1.863 -0.9070 -0.0266  0.1062
17156SOL     OW58072   3.878   1.008   7.443  0.1613 -0.1038 -0.0792
17156SOL    HW158073   3.898   1.034   7.533  0.7548 -2.2239  0.4757
17156SOL    HW258074   3.783   1.016   7.436 -0.4017 -3.0653  1.9557
17157SOL     OW58075  12.437   9.243   9.703 -0.7017  0.0464 -0.3552
17157SOL    HW158076  12.523   9.268   9.669 -1.2135  0.2697 -1.5176
17157SOL    HW258077  12.457   9.194   9.783  0.7282 -2.7643 -2.2558
17158SOL     OW58078   2.753   9.894  11.452 -0.2711  0.8747 -0.4386
17158SOL    HW158079   2.754   9.972  11.507 -2.0397  0.8468 -0.3191
17158SOL    HW258080   2.810   9.917  11.378 -0.4179  2.1023 -0.1943
17159SOL     OW58081   4.706   0.120   6.810 -0.6028  0.1997  0.0867
17159SOL    HW158082   4.688   0.028   6.789 -1.6618  0.6593 -1.1533
17159SOL    HW258083   4.646   0.140   6.882  0.8339 -0.5133  1.5530
17160SOL     OW58084   4.494   9.119   7.241 -0.7333  0.2079  0.0681
17160SOL    HW158085   4.517   9.157   7.156 -2.9399  0.0560 -0.6713
17160SOL    HW258086   4.544   9.038   7.246 -2.4219 -1.1194 -2.3376
17161SOL     OW58087   0.307  11.402   9.563 -0.2639  0.8500 -0.0062
17161SOL    HW158088   0.376  11.339   9.543 -2.2343 -1.9364  1.2209
17161SOL    HW258089   0.352  11.484   9.579  2.5053 -0.2709 -1.4957
17162SOL     OW58090   8.193  10.234   1.663  0.2556 -0.2955  0.5870
17162SOL    HW158091   8.198  10.139   1.674  0.7455 -0.6480 -1.9528
17162SOL    HW258092   8.285  10.263   1.663  0.0892  0.3049  1.9602
17163SOL     OW58093   8.946  12.528   0.139  0.2415  0.0883  0.2474
17163SOL    HW158094   9.010  12.583   0.184  2.7098  0.0262 -2.8636
17163SOL    HW258095   8.974  12.438   0.156 -0.2629 -0.0263  0.5138
17164SOL     OW58096   9.568   0.511   5.614  1.0004  0.4823 -0.1990
17164SOL    HW158097   9.599   0.584   5.561  0.9735  0.7461  0.1428
17164SOL    HW258098   9.569   0.544   5.704  0.1125  0.3680 -0.1365
17165SOL     OW58099   8.550   2.008   1.586  0.0600 -0.0100  0.6338
17165SOL    HW158100   8.483   2.076   1.575  0.2681  0.2269  0.8184
17165SOL    HW258101   8.632   2.052   1.567  0.1539 -0.3392  0.2706
17166SOL     OW58102   4.536   9.300   8.303  0.0618  0.2067 -0.3213
17166SOL    HW158103   4.537   9.205   8.320  1.8274 -0.0633 -1.6844
17166SOL    HW258104   4.447   9.327   8.327  0.0511 -1.4513  1.8293
17167SOL     OW58105   2.027   1.701   5.595 -0.0693 -0.9741 -0.0657
17167SOL    HW158106   2.033   1.679   5.502 -0.5432  0.9502 -0.5881
17167SOL    HW258107   2.089   1.642   5.638  0.1583 -1.8837 -1.5959
17168SOL     OW58108  11.347   2.831   5.799 -0.3007 -0.0346  0.1553
17168SOL    HW158109  11.292   2.793   5.730  0.2403  0.2870 -0.4627
17168SOL    HW258110  11.292   2.829   5.877 -0.2567 -2.2418  0.2051
17169SOL     OW58111   1.849   7.071   8.411 -0.2763 -0.0878  0.5823
17169SOL    HW158112   1.789   7.004   8.378  0.5562  0.0459 -1.2823
17169SOL    HW258113   1.813   7.094   8.497 -1.1400 -2.1934  0.8506
17170SOL     OW58114   2.099   8.381   0.111 -0.1651 -0.0154  0.1259
17170SOL    HW158115   2.134   8.358   0.025 -1.7986 -1.3637 -0.2310
17170SOL    HW258116   2.005   8.396   0.096 -0.4191  0.0533  1.6121
17171SOL     OW58117   7.414   3.703   1.199  0.0451 -0.2128  0.4826
17171SOL    HW158118   7.409   3.640   1.271 -0.6775 -0.5058  0.1859
17171SOL    HW258119   7.325   3.707   1.164 -0.0461  1.4241  0.8567
17172SOL     OW58120   4.458   9.578   7.699  0.4336  0.3376  0.1723
17172SOL    HW158121   4.414   9.514   7.643  1.1528 -0.4712  0.5138
17172SOL    HW258122   4.388   9.616   7.752 -0.1587  0.6351 -0.7922
17173SOL     OW58123   4.836   4.239   5.617  0.0907  0.0799  0.1035
17173SOL    HW158124   4.907   4.187   5.581 -0.4179 -0.8815  0.4291
17173SOL    HW258125   4.778   4.174   5.659 -0.4372  0.9362  0.7366
17174SOL     OW58126   6.445   9.961   2.971 -0.2081  0.2460 -0.5075
17174SOL    HW158127   6.514   9.904   3.005 -2.0210 -2.0904 -0.5093
17174SOL    HW258128   6.383   9.902   2.929 -2.4753  2.1824 -0.1069
17175SOL     OW58129  12.358   4.761   6.461  0.2404 -0.5958 -0.2065
17175SOL    HW158130  12.322   4.681   6.422  0.8274 -0.4471 -1.0812
17175SOL    HW258131  12.452   4.757   6.441  0.7395 -0.9556  1.9834
17176SOL     OW58132   7.895   0.145   3.984 -0.0414  0.2770 -0.6292
17176SOL    HW158133   7.989   0.141   3.966 -0.1825 -1.8953 -1.0991
17176SOL    HW258134   7.873   0.058   4.015 -2.0104  0.6162 -0.9683
17177SOL     OW58135   1.277   4.942   3.841 -0.3289  0.0079  0.3548
17177SOL    HW158136   1.371   4.958   3.838 -0.3296  0.1475  0.9258
17177SOL    HW258137   1.239   5.028   3.860 -0.4838 -0.2704  1.3346
17178SOL     OW58138   9.889   6.112   2.752 -0.1510  0.1799  0.0040
17178SOL    HW158139   9.799   6.113   2.721  0.2563  1.0719 -1.2048
17178SOL    HW258140   9.942   6.111   2.673  0.9375 -2.5019  0.6707
17179SOL     OW58141   0.686   3.832   9.360  0.7573 -0.6292  0.0878
17179SOL    HW158142   0.681   3.878   9.276  0.0757 -0.1129  0.3975
17179SOL    HW258143   0.775   3.846   9.390  0.6800  0.1430 -0.0296
17180SOL     OW58144   7.321   8.440   7.807 -0.2715 -0.1902  0.0580
17180SOL    HW158145   7.247   8.497   7.788  0.2105  0.8780  1.1955
17180SOL    HW258146   7.389   8.468   7.746 -0.1162  0.3138  0.4512
17181SOL     OW58147   1.101   7.331   1.081 -0.3568 -0.0280 -0.0434
17181SOL    HW158148   1.184   7.297   1.115  1.1434  0.0399 -3.2635
17181SOL    HW258149   1.098   7.421   1.111  0.4180 -0.2093  0.6247
17182SOL     OW58150   4.333  10.763   4.963  0.6018  0.0933 -0.2833
17182SOL    HW158151   4.394  10.823   4.920 -0.2135  0.9332 -0.3080
17182SOL    HW258152   4.301  10.811   5.039  0.1296 -0.4196 -0.1486
17183SOL     OW58153   3.134   2.880   1.260 -0.1855 -0.1892 -0.3439
17183SOL    HW158154   3.130   2.785   1.261  0.5468 -0.2247 -0.4091
17183SOL    HW258155   3.090   2.905   1.179 -0.8413 -0.4449 -0.0706
17184SOL     OW58156   4.493   1.693   8.971 -0.2140  0.7229  0.5124
17184SOL    HW158157   4.423   1.651   8.923 -0.4266  0.2544  1.2165
17184SOL    HW258158   4.450   1.762   9.022  0.1937  2.1612 -0.9992
17185SOL     OW58159   5.592  11.248   6.560 -0.1804  0.0089 -0.3989
17185SOL    HW158160   5.523  11.308   6.587  0.6480  0.4492  0.8413
17185SOL    HW258161   5.642  11.231   6.641 -0.3213 -2.2706 -0.7314
17186SOL     OW58162   1.055   3.064   4.842 -0.2210  0.4572 -0.0883
17186SOL    HW158163   0.997   2.989   4.857 -0.4033  0.8503  1.2796
17186SOL    HW258164   1.003   3.125   4.790 -0.6483  0.3142  0.1701
17187SOL     OW58165   3.856   5.102   0.470  0.1258 -0.7302 -0.2891
17187SOL    HW158166   3.804   5.179   0.493  2.6312  0.8415  0.5426
17187SOL    HW258167   3.798   5.028   0.487 -1.5186  0.8484  1.4985
17188SOL     OW58168   5.012  10.169   3.311 -0.1722  0.2165 -0.3058
17188SOL    HW158169   4.924  10.133   3.324  0.1940 -0.3296  0.7489
17188SOL    HW258170   5.004  10.224   3.233 -1.6749  0.9473  0.3239
17189SOL     OW58171   3.504  12.061   2.213 -0.6349  0.2856  0.1330
17189SOL    HW158172   3.598  12.083   2.217  0.3409 -3.4176  1.2113
17189SOL    HW258173   3.498  12.000   2.140 -2.0470 -0.2449  0.6753
17190SOL     OW58174  11.579   6.775  11.304 -0.0496  0.1115 -0.1677
17190SOL    HW158175  11.573   6.685  11.338  0.2431 -0.1368 -0.7605
17190SOL    HW258176  11.672   6.788  11.289  0.0449  0.9277  0.9788
17191SOL     OW58177   6.530   4.723  11.680  0.0891  0.2863 -0.0628
17191SOL    HW158178   6.550   4.706  11.772  0.3304  2.4575  0.3383
17191SOL    HW258179   6.436   4.708  11.673 -0.1598  1.2988  0.8618
17192SOL     OW58180   4.811  11.163   4.326  0.0511 -0.4080  0.0111
17192SOL    HW158181   4.723  11.130   4.345 -0.6739  0.5429 -1.4958
17192SOL    HW258182   4.797  11.243   4.275  1.7713 -1.1767 -1.8098
17193SOL     OW58183   3.671   6.067   5.913  0.5526  0.0260  0.9290
17193SOL    HW158184   3.640   5.994   5.859  1.3413  0.2999  0.0720
17193SOL    HW258185   3.592   6.114   5.937  0.2601  1.2114 -1.9409
17194SOL     OW58186  10.163   4.525   1.917 -0.3790  0.2071  0.1174
17194SOL    HW158187  10.127   4.547   1.831 -0.6911 -0.3716  0.0966
17194SOL    HW258188  10.218   4.448   1.900  0.2631  0.6253  0.2812
17195SOL     OW58189   6.264   0.758   3.438  0.6785 -0.1181 -0.2426
17195SOL    HW158190   6.178   0.798   3.453 -0.1959 -1.4080 -1.4917
17195SOL    HW258191   6.270   0.688   3.503  0.5781 -0.3179 -0.4466
17196SOL     OW58192   3.465  10.743   8.034  0.1427 -0.2564 -0.6738
17196SOL    HW158193   3.435  10.738   7.943 -0.0829 -1.1607 -0.5605
17196SOL    HW258194   3.406  10.806   8.075 -0.9626 -1.2265 -0.7146
17197SOL     OW58195   0.434  11.481   6.444  0.1071  0.0445 -0.7034
17197SOL    HW158196   0.386  11.486   6.527  1.5870 -0.2243  0.2078
17197SOL    HW258197   0.399  11.553   6.391  1.7706  2.7622  1.6199
17198SOL     OW58198   8.948   1.899  10.043  0.6776  0.5970  0.0535
17198SOL    HW158199   8.862   1.873  10.077  0.5344 -0.5325 -1.1100
17198SOL    HW258200   8.930   1.931   9.955  1.5323 -0.3799 -0.4857
17199SOL     OW58201   1.157   0.462   3.587 -0.1718  0.1820  0.4600
17199SOL    HW158202   1.127   0.553   3.589 -0.6510  0.0252  0.7186
17199SOL    HW258203   1.112   0.421   3.661  0.7054 -0.0649  0.8695
17200SOL     OW58204   8.950   4.421   2.063 -0.5791  0.4417  0.4579
17200SOL    HW158205   9.028   4.466   2.096 -0.3324  0.5455 -0.2530
17200SOL    HW258206   8.983   4.341   2.023 -0.3187  2.1809 -3.2317
17201SOL     OW58207   0.130   7.028   6.739  0.2430  0.0961 -0.2091
17201SOL    HW158208   0.089   7.001   6.821 -0.8378  0.3909 -0.6351
17201SOL    HW258209   0.071   7.094   6.703  1.2115  0.6838 -0.7497
17202SOL     OW58210   2.756   0.536   7.838 -0.3818 -0.0634  0.1502
17202SOL    HW158211   2.671   0.525   7.794  0.7357 -1.6489 -1.8029
17202SOL    HW258212   2.789   0.447   7.849  1.0285  0.5186  0.9375
17203SOL     OW58213   3.051   9.794   8.988 -0.8810  0.1310  0.2973
17203SOL    HW158214   2.956   9.800   8.978 -1.1064 -2.5546  0.1463
17203SOL    HW258215   3.082   9.765   8.902  0.2850  2.2027 -0.0510
17204SOL     OW58216   0.156   5.858   4.546  0.2769 -0.0053  0.1921
17204SOL    HW158217   0.126   5.781   4.497 -0.2774 -1.2973  2.4197
17204SOL    HW258218   0.229   5.892   4.494 -0.9410 -0.6107 -2.0612
17205SOL     OW58219   5.465   9.862   3.324 -0.2992  0.0185 -0.5037
17205SOL    HW158220   5.501   9.861   3.235 -0.7514  1.6039 -0.7385
17205SOL    HW258221   5.503   9.940   3.364 -1.9637  0.6844 -0.1288
17206SOL     OW58222   9.513   6.434   1.264 -0.3158 -0.2035  0.2657
17206SOL    HW158223   9.537   6.399   1.350  1.5445  0.5507  0.1091
17206SOL    HW258224   9.578   6.396   1.204 -0.8714  0.1923 -0.6069
17207SOL     OW58225   2.312   5.251  12.736  0.3817  0.3643 -0.6414
17207SOL    HW158226   2.398   5.212  12.720  0.4734  0.7970 -1.2231
17207SOL    HW258227   2.321   5.296  12.820  0.6047  0.0613 -0.5048
17208SOL     OW58228   5.715  10.061  10.387  0.2856  0.2746 -0.5828
17208SOL    HW158229   5.792  10.070  10.442  1.0099  1.3955 -1.7290
17208SOL    HW258230   5.734   9.986  10.330 -0.2236 -0.5238  0.2616
17209SOL     OW58231   8.087   5.534  12.341 -0.0643 -0.3138 -0.4307
17209SOL    HW158232   8.074   5.618  12.385  1.2111 -0.5284  0.4294
17209SOL    HW258233   7.999   5.498  12.331 -0.4512 -0.5136  2.5725
17210SOL     OW58234   7.542   9.504   4.287  0.2691 -0.0460  0.6274
17210SOL    HW158235   7.580   9.583   4.249  1.6261 -1.8764 -2.1764
17210SOL    HW258236   7.617   9.451   4.312 -0.5526 -1.2902  0.5277
17211SOL     OW58237   3.596   5.610   4.416 -0.0999  0.1421 -0.6099
17211SOL    HW158238   3.610   5.531   4.467  1.3880  0.4659 -0.4830
17211SOL    HW258239   3.671   5.666   4.436 -0.8291  1.3595 -1.1329
17212SOL     OW58240   0.487   8.446  12.314 -0.4727  0.3093  0.1989
17212SOL    HW158241   0.526   8.374  12.264 -0.1523  1.3288 -1.0771
17212SOL    HW258242   0.498   8.420  12.406 -1.6157 -1.8988 -0.2188
17213SOL     OW58243   1.781   9.638   9.390 -0.3943 -0.1725  0.0341
17213SOL    HW158244   1.832   9.674   9.317 -1.1655 -2.2179 -1.6081
17213SOL    HW258245   1.847   9.601   9.450  0.1836 -1.5403 -1.3759
17214SOL     OW58246   6.295  10.859   8.939  0.1864 -0.3150  0.8423
17214SOL    HW158247   6.376  10.887   8.982 -0.3309  1.0582  0.9744
17214SOL    HW258248   6.261  10.939   8.897 -1.5780 -0.6349  1.5767
17215SOL     OW58249   3.679   1.355   9.160  0.9813 -0.1081  0.2104
17215SOL    HW158250   3.647   1.310   9.082 -0.5266 -0.1964  0.8518
17215SOL    HW258251   3.706   1.285   9.219 -0.3256 -0.1440  0.7758
17216SOL     OW58252   0.487   4.083   8.140 -0.5273 -0.1690  0.4135
17216SOL    HW158253   0.579   4.091   8.164  0.0628 -3.9066  0.0699
17216SOL    HW258254   0.447   4.035   8.213 -1.5488 -0.8891 -0.5750
17217SOL     OW58255   9.135   4.626  10.612 -0.0089 -0.1707  0.1549
17217SOL    HW158256   9.205   4.609  10.549  0.2366  0.1740  0.3306
17217SOL    HW258257   9.059   4.579  10.577  0.6043 -1.4910  0.5619
17218SOL     OW58258  12.147   6.469   0.810  0.2426 -0.5781 -0.2979
17218SOL    HW158259  12.080   6.528   0.845  1.2183 -0.5771  1.7490
17218SOL    HW258260  12.230   6.511   0.832  0.9272 -1.6216 -0.8092
17219SOL     OW58261   4.237   5.526   1.429 -0.2281  0.3664 -0.3065
17219SOL    HW158262   4.267   5.436   1.442 -0.4960 -0.0157 -2.0657
17219SOL    HW258263   4.284   5.555   1.351 -0.6816  1.5128 -0.1673
17220SOL     OW58264   0.677   3.791   6.704 -0.2599  0.0057  0.2471
17220SOL    HW158265   0.650   3.725   6.640  1.6915 -1.6093  0.9927
17220SOL    HW258266   0.769   3.806   6.686 -0.2410  1.2584  1.2355
17221SOL     OW58267   5.912   4.565   7.035 -0.3398 -0.3931  0.6272
17221SOL    HW158268   5.884   4.559   6.943 -1.0900  2.2953  0.5781
17221SOL    HW258269   5.834   4.542   7.085 -1.4037  2.4508  0.4860
17222SOL     OW58270  11.892   6.611   4.138  0.2825 -0.3393 -0.4211
17222SOL    HW158271  11.979   6.634   4.173  0.0905 -0.1361 -0.0684
17222SOL    HW258272  11.875   6.523   4.170 -0.4906  0.3574  1.1932
17223SOL     OW58273   9.633   3.181   6.191 -0.7256  0.5177 -0.4376
17223SOL    HW158274   9.717   3.190   6.144 -0.1920  0.3096  0.4510
17223SOL    HW258275   9.568   3.168   6.122  0.2104 -1.0574 -1.0704
17224SOL     OW58276   6.298   8.372  10.882  0.4977 -0.4229  0.4228
17224SOL    HW158277   6.253   8.290  10.861 -1.5721  1.2223 -2.3037
17224SOL    HW258278   6.228   8.432  10.907  1.4384  1.4381 -1.0830
17225SOL     OW58279  10.720   2.015   3.231  0.2749 -0.3162  0.0161
17225SOL    HW158280  10.699   2.047   3.143  0.1771  0.6462  0.3698
17225SOL    HW258281  10.696   2.088   3.288  2.4522 -0.0466  0.6441
17226SOL     OW58282  10.884   6.564   6.474  0.2808  0.1703 -0.3551
17226SOL    HW158283  10.960   6.621   6.462  0.7693 -0.3392  0.2792
17226SOL    HW258284  10.816   6.604   6.420  0.9018  0.8096 -0.6831
17227SOL     OW58285   5.142  12.708   5.768  0.0626  0.3833 -0.0649
17227SOL    HW158286   5.049  12.688   5.751 -0.1399  0.2887  1.0692
17227SOL    HW258287   5.162  12.779   5.707 -0.7405  0.3559 -0.3807
17228SOL     OW58288   1.413  10.537  10.178 -0.5060  0.3515  0.8822
17228SOL    HW158289   1.354  10.539  10.254  0.8512  0.3215  1.9717
17228SOL    HW258290   1.387  10.458  10.130 -1.2329  0.2505  1.4196
17229SOL     OW58291   0.988   1.172   6.762  0.1916  0.0239  0.5670
17229SOL    HW158292   1.068   1.122   6.778 -0.9361 -1.5112  1.6984
17229SOL    HW258293   0.938   1.117   6.702 -1.0293 -0.1584  1.7288
17230SOL     OW58294   8.987  12.114   1.684 -0.0611 -0.8178 -0.0374
17230SOL    HW158295   9.022  12.197   1.653 -2.6881  0.8621  1.1503
17230SOL    HW258296   9.064  12.061   1.704  1.7372  1.8632  0.5813
17231SOL     OW58297   9.632  12.076   9.718 -0.2936 -0.1244  0.5490
17231SOL    HW158298   9.721  12.053   9.690  0.5223  1.2128  1.9061
17231SOL    HW258299   9.583  12.084   9.637  2.2502  4.8704 -0.8752
17232SOL     OW58300   7.179  10.329   6.273  0.2161 -0.3474  0.4823
17232SOL    HW158301   7.130  10.263   6.322  0.4134  0.2872  1.5640
17232SOL    HW258302   7.127  10.408   6.281 -0.5340 -0.5615 -1.6565
17233SOL     OW58303   7.172   8.461  12.245  0.5090  0.2294 -0.2593
17233SOL    HW158304   7.141   8.372  12.227 -1.3208  0.4061  1.6925
17233SOL    HW258305   7.236   8.450  12.315  0.6298  0.4388 -0.3335
17234SOL     OW58306   7.252   9.114   0.536  0.4081 -0.2174 -0.1131
17234SOL    HW158307   7.301   9.032   0.532  1.4737  0.4315 -2.4148
17234SOL    HW258308   7.210   9.114   0.622 -0.6694 -3.7366 -0.4984
17235SOL     OW58309   4.440   6.454   2.002  0.8998 -0.2803  1.1190
17235SOL    HW158310   4.377   6.478   1.933 -0.2299  1.0448  2.5205
17235SOL    HW258311   4.393   6.473   2.083  3.9218  3.2789  2.3177
17236SOL     OW58312   4.034  11.190   4.933  0.2270  0.3366 -0.2047
17236SOL    HW158313   4.020  11.153   5.020 -0.4422  0.4897 -0.2456
17236SOL    HW258314   3.948  11.219   4.904  0.5707  1.0293 -0.5820
17237SOL     OW58315   1.254   6.552   0.461  0.4690  0.2000  0.6790
17237SOL    HW158316   1.206   6.616   0.408  1.7124  1.0548  0.5400
17237SOL    HW258317   1.283   6.601   0.538  2.2982  0.1203  0.0940
17238SOL     OW58318   5.158   9.978   4.924  0.5831  0.0752  0.4934
17238SOL    HW158319   5.128   9.895   4.887  1.4767  0.1337 -0.3962
17238SOL    HW258320   5.201   9.953   5.006  0.9819 -0.3697  0.1556
17239SOL     OW58321   7.941  12.213   4.565  0.1484 -0.0559  0.5429
17239SOL    HW158322   7.941  12.296   4.613 -2.0782 -0.0538  0.6315
17239SOL    HW258323   8.025  12.172   4.587  0.2609  1.0832  2.4179
17240SOL     OW58324   0.775   8.736  11.649 -0.1597 -0.8198  0.2181
17240SOL    HW158325   0.830   8.739  11.570  0.4920  0.5571  0.6891
17240SOL    HW258326   0.718   8.813  11.641 -0.0888 -0.6730  1.0871
17241SOL     OW58327   9.299  10.548   0.706  0.2363 -0.0333  0.1440
17241SOL    HW158328   9.221  10.493   0.698  0.0972  0.1443  0.2755
17241SOL    HW258329   9.370  10.487   0.722  0.1198 -0.1948  0.0446
17242SOL     OW58330   5.674   0.413   7.046 -0.3683 -0.2196  1.2285
17242SOL    HW158331   5.675   0.387   7.138 -0.3710  1.2082  1.6608
17242SOL    HW258332   5.742   0.359   7.005  1.3400  0.7887  2.5816
17243SOL     OW58333   4.851   5.287   7.216 -0.0769 -0.3972 -0.1684
17243SOL    HW158334   4.896   5.233   7.281 -0.9091  2.2099  2.7713
17243SOL    HW258335   4.827   5.367   7.262  0.1308  2.1348 -3.9534
17244SOL     OW58336   0.012  12.286   8.753  0.4814 -0.1875 -0.0181
17244SOL    HW158337   0.036  12.374   8.780  0.5211  0.8216 -2.9078
17244SOL    HW258338  -0.063  12.263   8.807  2.2790  0.3185  2.8717
17245SOL     OW58339   9.786   8.343  10.192 -0.3525 -0.3449 -0.2313
17245SOL    HW158340   9.721   8.335  10.261 -0.6132  0.4086 -0.3780
17245SOL    HW258341   9.868   8.361  10.238 -0.7442  1.3700 -0.1501
17246SOL     OW58342   3.435   2.047   0.898 -0.7269 -0.5119 -0.0548
17246SOL    HW158343   3.516   2.019   0.856 -0.4555  1.2992 -0.8208
17246SOL    HW258344   3.434   2.142   0.888 -2.5463 -0.4108  0.6757
17247SOL     OW58345   9.207   1.242   8.850  0.0374 -0.2845 -0.1106
17247SOL    HW158346   9.138   1.189   8.890 -0.4248  0.7315  0.4762
17247SOL    HW258347   9.253   1.281   8.925  1.9649 -1.7956 -0.4447
17248SOL     OW58348  10.659   5.222   9.258 -0.2045 -0.1905 -0.5220
17248SOL    HW158349  10.575   5.240   9.300  0.5424  0.4557  0.7648
17248SOL    HW258350  10.665   5.288   9.188 -0.7491 -0.2375 -0.6177
17249SOL     OW58351   3.021   5.434  11.936  0.1931  0.1528 -0.1161
17249SOL    HW158352   2.979   5.421  12.021  0.2508 -0.5341 -0.1882
17249SOL    HW258353   3.102   5.481  11.956 -0.1598  0.6667  0.1234
17250SOL     OW58354  11.642   8.964   2.311  0.0756  0.6640 -0.1100
17250SOL    HW158355  11.652   9.053   2.347 -0.1936  1.7185 -2.4526
17250SOL    HW258356  11.720   8.952   2.257 -0.4751 -0.0464 -0.7581
17251SOL     OW58357   7.511   1.052   4.482 -0.1464 -0.1268  0.1421
17251SOL    HW158358   7.524   1.132   4.431 -0.4849  0.0186  0.2809
17251SOL    HW258359   7.599   1.020   4.500 -0.0211 -0.0045 -0.2620
17252SOL     OW58360   9.742  10.149   1.304 -0.4046 -0.1362 -0.4635
17252SOL    HW158361   9.739  10.082   1.372 -0.1608 -0.6531 -0.9527
17252SOL    HW258362   9.651  10.173   1.289 -0.5405 -0.7660 -0.6755
17253SOL     OW58363   0.853   1.324   3.957 -0.0799  0.7431  0.1822
17253SOL    HW158364   0.761   1.347   3.944  0.1554  0.7552 -1.7819
17253SOL    HW258365   0.899   1.407   3.946  0.2363  0.5429 -0.0109
17254SOL     OW58366  12.299   4.535  10.319 -1.1173  0.3038 -0.9458
17254SOL    HW158367  12.355   4.472  10.274 -0.8287  1.2671 -1.9773
17254SOL    HW258368  12.331   4.621  10.291 -0.9079  0.9677  1.1327
17255SOL     OW58369   0.754   8.275   2.269 -0.1816 -0.4058  0.0309
17255SOL    HW158370   0.771   8.369   2.270 -0.0224 -0.4382  0.2251
17255SOL    HW258371   0.715   8.256   2.354 -0.6843 -0.4261 -0.2038
17256SOL     OW58372   2.577   0.600  11.368  0.2711 -0.0666 -0.2321
17256SOL    HW158373   2.514   0.572  11.302 -0.3936 -0.1580  0.4322
17256SOL    HW258374   2.539   0.573  11.451  0.8726  0.4629  0.2287
17257SOL     OW58375   9.887  10.830  12.029  0.3361 -0.3267 -0.0311
17257SOL    HW158376   9.878  10.823  12.124 -1.0162 -1.5605 -0.2163
17257SOL    HW258377   9.842  10.912  12.006  2.3730  1.0362  0.5438
17258SOL     OW58378   5.091   2.703   3.448 -0.7984  0.0354 -0.3289
17258SOL    HW158379   5.031   2.643   3.491  1.6078 -0.7380  2.2275
17258SOL    HW258380   5.108   2.771   3.513  0.2019  0.8730 -1.4168
17259SOL     OW58381   5.768   8.872   0.260  0.9352  0.1401 -0.2651
17259SOL    HW158382   5.701   8.941   0.257  0.5630 -0.1088  1.5034
17259SOL    HW258383   5.723   8.793   0.230  1.0382  0.3845 -1.1136
17260SOL     OW58384   9.509   3.474  11.193  0.6957 -0.3762  0.4272
17260SOL    HW158385   9.477   3.558  11.159  1.0649 -1.3874 -2.8314
17260SOL    HW258386   9.546   3.495  11.279  0.7807  2.7982 -0.2494
17261SOL     OW58387   6.029   5.323   6.793 -0.4528  0.0699 -0.1394
17261SOL    HW158388   6.109   5.279   6.764  2.0787  2.2164  2.9353
17261SOL    HW258389   5.999   5.373   6.717  2.2464  0.6608 -0.9014
17262SOL     OW58390   2.496   1.703   1.170 -0.2009 -0.0324  0.3972
17262SOL    HW158391   2.498   1.610   1.145 -2.3222  0.1082 -0.5102
17262SOL    HW258392   2.520   1.703   1.262  1.7504 -1.2523 -0.0421
17263SOL     OW58393   3.434   3.726   4.291 -0.5814  0.2981 -0.4003
17263SOL    HW158394   3.510   3.667   4.290 -1.2207 -0.5457 -0.8295
17263SOL    HW258395   3.361   3.669   4.316 -1.0083  1.1912  0.4625
17264SOL     OW58396   6.029  11.561   7.232  0.1993 -0.3456 -0.3355
17264SOL    HW158397   6.058  11.494   7.171  2.2811 -0.8857  1.1371
17264SOL    HW258398   5.978  11.514   7.298  0.4130 -0.2460 -0.0975
17265SOL     OW58399   8.338   1.782   6.827 -0.8482  0.3299  0.0317
17265SOL    HW158400   8.372   1.696   6.801 -0.2255  0.5612  0.0568
17265SOL    HW258401   8.401   1.844   6.791 -0.8065  0.7354  0.7918
17266SOL     OW58402   4.791   4.735   8.183 -0.2237 -0.2291  0.1986
17266SOL    HW158403   4.785   4.697   8.095  1.0362 -1.6083  0.6827
17266SOL    HW258404   4.721   4.801   8.185 -0.6742 -0.5984 -1.6140
17267SOL     OW58405   5.085  12.543   8.417  0.1400 -0.2371  0.4209
17267SOL    HW158406   5.030  12.585   8.351 -0.0757 -2.7362 -1.1486
17267SOL    HW258407   5.025  12.520   8.488 -0.4386 -0.9820 -0.2938
17268SOL     OW58408  11.048  12.476   3.505  0.5868 -0.6025  0.0313
17268SOL    HW158409  11.090  12.488   3.420 -0.0010 -1.6256 -0.4270
17268SOL    HW258410  11.079  12.391   3.536 -0.0434 -0.7270  0.3380
17269SOL     OW58411   0.696   4.110   6.623  0.2486  0.3038  0.1994
17269SOL    HW158412   0.681   4.023   6.658 -0.2481 -0.1360 -1.0732
17269SOL    HW258413   0.717   4.096   6.531  1.1608  1.4579  0.2009
17270SOL     OW58414   8.357   9.703   4.329 -0.3245 -0.2747  0.6612
17270SOL    HW158415   8.294   9.672   4.264 -0.5245  2.2182 -0.4534
17270SOL    HW258416   8.325   9.667   4.412 -1.6943 -1.2110 -0.2337
17271SOL     OW58417   2.978  11.542   8.200 -0.1925 -0.5254  0.1183
17271SOL    HW158418   2.960  11.628   8.239  1.0071 -0.2608  0.1268
17271SOL    HW258419   2.956  11.480   8.269  1.3868 -0.0835  1.0775
17272SOL     OW58420  12.435   2.256   5.209 -0.3185 -0.2246  1.1498
17272SOL    HW158421  12.427   2.350   5.225 -0.4930 -0.0058 -0.1663
17272SOL    HW258422  12.523   2.234   5.241  0.6296  0.8372 -0.5940
17273SOL     OW58423  12.063   6.491   3.527 -0.5500 -0.0204  0.2721
17273SOL    HW158424  12.051   6.526   3.616 -0.7565  1.0848 -0.1771
17273SOL    HW258425  12.157   6.498   3.511 -0.0750 -2.6792  1.3602
17274SOL     OW58426   3.031   5.080   4.465  0.3236  0.1849 -0.4762
17274SOL    HW158427   3.100   5.024   4.500 -0.6285 -1.1620 -0.6720
17274SOL    HW258428   2.981   5.108   4.542 -0.1235 -0.5382 -0.4857
17275SOL     OW58429  10.316   1.823  11.488 -0.0010 -0.4041  0.0376
17275SOL    HW158430  10.376   1.896  11.479  0.7356 -1.2057 -2.0049
17275SOL    HW258431  10.267   1.842  11.569  0.5322  2.0274 -0.1463
17276SOL     OW58432   6.067   3.974   5.318  0.0187 -0.4239  0.1672
17276SOL    HW158433   6.015   4.053   5.303  0.9427  0.3023  0.7181
17276SOL    HW258434   6.153   3.994   5.281 -0.3595 -2.0265 -1.7682
17277SOL     OW58435   5.804  10.098  11.274 -0.0220  0.0221 -0.2036
17277SOL    HW158436   5.860  10.135  11.206  0.3480 -0.4309 -0.1488
17277SOL    HW258437   5.737  10.049  11.227  0.2280 -0.2823 -0.2457
17278SOL     OW58438   5.097   5.834   4.413  0.3369 -0.0437  0.2512
17278SOL    HW158439   5.114   5.927   4.401 -1.3422  0.1134 -1.3664
17278SOL    HW258440   5.154   5.790   4.350  2.2429 -0.2871  2.0348
17279SOL     OW58441  10.882   7.438   3.572 -0.5600  0.1660  0.2435
17279SOL    HW158442  10.923   7.472   3.492 -0.5087  0.6879  0.4895
17279SOL    HW258443  10.923   7.353   3.585 -0.1167  0.3462  0.0567
17280SOL     OW58444  10.696   0.746   0.624 -0.3237  0.3744 -0.2556
17280SOL    HW158445  10.693   0.660   0.583  0.2202  0.6310 -0.8532
17280SOL    HW258446  10.657   0.733   0.710  1.7866 -0.9812  0.5596
17281SOL     OW58447   2.436  11.657   3.388 -0.1399 -0.2692  0.1946
17281SOL    HW158448   2.399  11.703   3.463 -0.0356  1.4094 -0.7374
17281SOL    HW258449   2.513  11.611   3.423 -1.0780 -0.9463  1.4289
17282SOL     OW58450  12.297   5.728  12.234 -0.2951  0.2162  0.2576
17282SOL    HW158451  12.274   5.635  12.245  0.2118 -0.1235 -1.3133
17282SOL    HW258452  12.374   5.727  12.177  0.1371  1.5860  0.7859
17283SOL     OW58453  10.996  12.362  11.467 -0.2117  0.1440  0.1590
17283SOL    HW158454  10.908  12.328  11.483 -0.6866  0.1919 -2.0055
17283SOL    HW258455  11.051  12.284  11.463 -0.5033 -0.0449 -0.3152
17284SOL     OW58456  11.256   7.674   1.933  0.0003  0.3846  0.4206
17284SOL    HW158457  11.284   7.759   1.901  1.6526  0.0611  0.8952
17284SOL    HW258458  11.326   7.614   1.905  1.3889  0.0167  4.2095
17285SOL     OW58459   0.275   5.060   9.857 -0.0329  0.0831 -0.3785
17285SOL    HW158460   0.354   5.075   9.805  0.3841  0.8408  0.4509
17285SOL    HW258461   0.204   5.098   9.805  0.1225 -0.6588 -1.1608
17286SOL     OW58462  12.246   0.531   8.746  0.3379 -0.4901 -0.3332
17286SOL    HW158463  12.296   0.480   8.682  0.2662 -0.7563 -0.1828
17286SOL    HW258464  12.180   0.578   8.694 -0.5295 -1.6595 -0.3511
17287SOL     OW58465  11.973   0.915   5.888  0.4075 -0.3887 -0.4710
17287SOL    HW158466  11.884   0.924   5.922  0.6195 -1.3099  0.3691
17287SOL    HW258467  12.022   0.986   5.930  0.0246  0.2841 -1.1401
17288SOL     OW58468   2.467   9.533   0.863  0.1278  0.5976 -0.2936
17288SOL    HW158469   2.406   9.470   0.823  0.1620  0.0643  0.4843
17288SOL    HW258470   2.482   9.500   0.951  0.7580  1.2828 -0.1334
17289SOL     OW58471   8.844   8.448   7.127 -0.9277 -0.6534  0.0481
17289SOL    HW158472   8.874   8.513   7.064 -2.7941 -0.5596 -0.8216
17289SOL    HW258473   8.854   8.490   7.212  1.1216 -0.5735 -0.1877
17290SOL     OW58474   4.857   6.403   0.657 -0.0130 -0.2387 -0.2170
17290SOL    HW158475   4.815   6.317   0.655  1.0441 -0.7771 -1.0566
17290SOL    HW258476   4.795   6.461   0.614 -1.2273 -0.3094  1.3322
17291SOL     OW58477   7.172   1.575   9.665  0.3749 -0.1139  0.0246
17291SOL    HW158478   7.129   1.568   9.580  0.5559 -0.3650 -0.0456
17291SOL    HW258479   7.106   1.547   9.728  0.6954 -1.2809 -0.1474
17292SOL     OW58480  10.255  12.731   3.553 -0.3151  0.3459  0.0199
17292SOL    HW158481  10.279  12.802   3.612 -0.2624 -0.0384  0.4719
17292SOL    HW258482  10.339  12.699   3.518 -0.2099 -0.4527  0.9588
17293SOL     OW58483  11.195   7.753  11.562 -0.6699 -0.6871  0.0440
17293SOL    HW158484  11.170   7.684  11.501 -0.5090  0.5693 -1.5117
17293SOL    HW258485  11.186   7.834  11.511 -1.9395  0.5616  2.1427
17294SOL     OW58486   9.049   6.127   3.327 -0.3620  0.1347 -0.4038
17294SOL    HW158487   8.994   6.114   3.404 -0.9753 -0.2326 -0.8891
17294SOL    HW258488   9.031   6.217   3.300 -1.2976 -0.2029 -0.9753
17295SOL     OW58489   6.485   1.283   3.913 -0.2319 -0.5383 -0.0828
17295SOL    HW158490   6.518   1.320   3.995 -0.4775  0.0098 -0.2249
17295SOL    HW258491   6.391   1.272   3.927 -0.4707  0.5788 -0.6465
17296SOL     OW58492   6.835  10.485  12.038 -0.3662 -0.2838 -0.0345
17296SOL    HW158493   6.850  10.461  11.946 -0.6155  0.0474 -0.1623
17296SOL    HW258494   6.781  10.415  12.073  0.4307 -0.8553  0.0969
17297SOL     OW58495   5.643  11.039   1.506  0.1834  0.4737  0.0554
17297SOL    HW158496   5.688  11.064   1.587  0.2610  0.6912 -0.0528
17297SOL    HW258497   5.555  11.013   1.535  0.6827 -0.9142  0.3791
17298SOL     OW58498  12.652   8.928   7.438  0.2730 -0.0299  0.4443
17298SOL    HW158499  12.725   8.870   7.459 -0.7929 -2.9038 -2.7585
17298SOL    HW258500  12.675   8.967   7.353 -1.7982 -1.1045 -0.7119
17299SOL     OW58501  10.279  10.085   4.116 -0.1163 -0.2890 -0.0789
17299SOL    HW158502  10.191  10.105   4.146 -0.2913  1.1805 -1.4398
17299SOL    HW258503  10.284   9.989   4.118 -1.7941 -0.4051 -0.1058
17300SOL     OW58504  11.826   2.516  11.434  0.2864 -0.6251 -0.7859
17300SOL    HW158505  11.844   2.498  11.342 -1.0806 -4.2941 -0.4993
17300SOL    HW258506  11.747   2.570  11.433  0.5904 -0.1757 -1.7293
17301SOL     OW58507  12.303   8.310   8.783 -0.4382 -0.2159 -0.0073
17301SOL    HW158508  12.345   8.294   8.867  1.5430  1.3239 -0.6329
17301SOL    HW258509  12.289   8.404   8.780 -0.0739 -0.1786 -1.5481
17302SOL     OW58510   6.207   5.917   1.987  0.0050 -0.0587 -0.1591
17302SOL    HW158511   6.209   5.967   2.069 -2.8948 -0.1741  0.1067
17302SOL    HW258512   6.189   5.982   1.920  0.4829 -0.2147 -0.4411
17303SOL     OW58513   1.276   1.827   6.254  0.2157  0.0036  0.3770
17303SOL    HW158514   1.270   1.904   6.311  1.6534 -1.1314  2.1562
17303SOL    HW258515   1.187   1.816   6.220 -0.1134  2.2023  0.3784
17304SOL     OW58516   3.240  11.732   9.886  0.0608 -0.0422 -0.4080
17304SOL    HW158517   3.277  11.659   9.937  0.4199  0.0216 -0.5713
17304SOL    HW258518   3.158  11.753   9.930  0.8814  0.7269  0.7935
17305SOL     OW58519   6.612   2.975  10.022  0.1985 -0.5207  0.2724
17305SOL    HW158520   6.640   2.983  10.113 -1.2459  1.5013  0.6061
17305SOL    HW258521   6.520   2.948  10.028 -0.9787  2.8657 -0.3649
17306SOL     OW58522  12.635   6.343   2.263  0.3514 -0.3810 -0.0540
17306SOL    HW158523  12.629   6.439   2.262  1.0964 -0.3295 -0.6765
17306SOL    HW258524  12.568   6.315   2.325 -0.2482  0.5209 -0.2732
17307SOL     OW58525   4.188   1.454   1.283  0.9203 -0.0795 -0.1331
17307SOL    HW158526   4.169   1.402   1.361  0.4633  1.7063  0.9982
17307SOL    HW258527   4.276   1.488   1.298  0.4670  1.0414  0.0791
17308SOL     OW58528   4.945   4.357   9.669  0.0889 -0.2096 -0.4865
17308SOL    HW158529   4.899   4.403   9.599  0.8560 -0.3373 -1.0829
17308SOL    HW258530   4.974   4.426   9.728 -0.0680 -0.0525 -0.5920
17309SOL     OW58531   7.623   4.831  11.680  0.3604 -0.1107  0.1360
17309SOL    HW158532   7.576   4.749  11.665 -0.4534  0.2741  0.5488
17309SOL    HW258533   7.708   4.818  11.637  0.5955 -1.5117  0.9541
17310SOL     OW58534   5.619   8.213   7.867  0.4839 -0.4040  0.1755
17310SOL    HW158535   5.623   8.308   7.850 -0.1722 -0.4860 -0.5041
17310SOL    HW258536   5.693   8.196   7.925  0.8771  0.4561 -0.0510
17311SOL     OW58537  11.216   8.900   7.365  0.2478 -0.1270  0.3995
17311SOL    HW158538  11.187   8.893   7.273  1.3018 -0.0132  0.0488
17311SOL    HW258539  11.135   8.910   7.414 -0.4024 -1.0296 -0.4347
17312SOL     OW58540   1.392   6.185   5.824  0.5185  0.0321  0.1176
17312SOL    HW158541   1.439   6.187   5.741 -0.5520 -1.9595 -0.5932
17312SOL    HW258542   1.461   6.176   5.890  1.2965  0.3787 -0.6202
17313SOL     OW58543  11.651   2.292   5.202 -0.4586  0.0831  0.2430
17313SOL    HW158544  11.570   2.268   5.156  0.5702 -1.6555 -0.7698
17313SOL    HW258545  11.681   2.372   5.158 -0.3270 -0.6684 -1.0742
17314SOL     OW58546   7.484  11.727   5.062 -0.5382 -0.2707  0.1647
17314SOL    HW158547   7.390  11.746   5.064 -0.2731  1.1860  0.5362
17314SOL    HW258548   7.519  11.777   5.136  0.6894  0.2334 -0.7318
17315SOL     OW58549   3.472   9.620  11.474 -0.2773  0.1877 -0.0196
17315SOL    HW158550   3.424   9.672  11.410  1.2359 -0.6361 -1.9530
17315SOL    HW258551   3.510   9.549  11.423 -0.0966 -1.3153  2.0723
17316SOL     OW58552   4.093   8.423   8.738  0.1729  0.1821 -0.1874
17316SOL    HW158553   4.181   8.388   8.728  0.5989  0.6786  1.5152
17316SOL    HW258554   4.041   8.349   8.769 -0.0824 -0.1654 -1.3937
17317SOL     OW58555   4.493  11.555   8.793 -0.3289 -0.1622 -0.1314
17317SOL    HW158556   4.564  11.492   8.778  0.6799  1.1070 -0.8910
17317SOL    HW258557   4.531  11.640   8.768 -1.3063  0.9147  1.8483
17318SOL     OW58558   0.449  10.955   2.051 -0.3556 -0.0606 -0.4380
17318SOL    HW158559   0.480  11.036   2.011  0.0738 -0.2686 -0.5281
17318SOL    HW258560   0.378  10.926   1.994  1.0589 -1.0135 -1.7936
17319SOL     OW58561  11.754   7.285   3.787 -0.1056 -0.1744 -0.1869
17319SOL    HW158562  11.689   7.216   3.774 -0.1682 -0.2330  0.4108
17319SOL    HW258563  11.829   7.240   3.825 -0.0419  0.0399 -0.0588
17320SOL     OW58564   6.091  10.267   1.975 -0.2363 -0.1203  0.3534
17320SOL    HW158565   6.081  10.362   1.977  0.7509  0.0712 -1.4460
17320SOL    HW258566   6.020  10.237   1.918  0.3172 -0.2842 -0.2680
17321SOL     OW58567   7.265   5.137  12.729 -0.1451 -0.2378 -0.1963
17321SOL    HW158568   7.304   5.059  12.767 -1.1803  0.6631  2.9648
17321SOL    HW258569   7.202   5.168  12.794 -1.7338  1.7552 -2.4814
17322SOL     OW58570   1.857   6.234   5.411 -0.1084  0.0348 -0.1675
17322SOL    HW158571   1.940   6.280   5.406 -0.2958  0.3230 -0.6877
17322SOL    HW258572   1.817   6.264   5.493  0.1426  0.1571 -0.0897
17323SOL     OW58573   4.184  11.514  11.909 -0.1333  0.7414  0.4107
17323SOL    HW158574   4.262  11.516  11.853 -0.5045 -1.8173 -0.3299
17323SOL    HW258575   4.217  11.529  11.997  1.0409  0.8258 -0.0288
17324SOL     OW58576   2.732   6.844   2.690 -0.1109  0.0858  0.2910
17324SOL    HW158577   2.810   6.792   2.673 -0.5999 -0.4161 -0.5180
17324SOL    HW258578   2.734   6.914   2.625 -0.2766  0.1340  0.3365
17325SOL     OW58579   3.031   2.439  11.079  0.1750 -0.5072  0.7569
17325SOL    HW158580   3.019   2.400  10.992 -0.3811 -1.4160  1.2164
17325SOL    HW258581   2.942   2.458  11.109  0.4435  1.3707  0.4650
17326SOL     OW58582   2.967   0.919   9.527 -0.1228  0.4791 -0.3005
17326SOL    HW158583   2.947   0.889   9.616  3.0523  1.7215  1.0054
17326SOL    HW258584   2.925   1.005   9.521  0.6223  0.9225  0.5129
17327SOL     OW58585   2.041  11.565   7.820  0.6210  0.0500  0.4819
17327SOL    HW158586   2.106  11.502   7.852  0.8605  0.4194  0.7181
17327SOL    HW258587   2.088  11.618   7.756  0.6665  0.5972  0.9674
17328SOL     OW58588   5.480   5.445   9.686 -0.4422  0.1948 -0.2568
17328SOL    HW158589   5.509   5.432   9.777  0.0547 -0.4386 -0.5007
17328SOL    HW258590   5.558   5.428   9.634 -0.8906 -0.0602 -0.8490
17329SOL     OW58591   8.909   5.110   9.167  0.4522  0.4881  0.1011
17329SOL    HW158592   8.837   5.173   9.172 -0.7208 -0.7293 -0.6953
17329SOL    HW258593   8.889   5.058   9.088  1.3733 -0.8600  0.7262
17330SOL     OW58594   8.778   5.120   3.631 -0.2898  0.6144  0.1666
17330SOL    HW158595   8.867   5.132   3.597 -0.6787  1.7011 -0.5620
17330SOL    HW258596   8.725   5.101   3.553 -0.7502  0.2836  0.5502
17331SOL     OW58597   9.144   5.861  11.921  0.3706 -0.5438 -0.1732
17331SOL    HW158598   9.143   5.833  12.012 -1.2180  2.9299  1.0286
17331SOL    HW258599   9.099   5.790  11.874 -1.5378 -1.0631  2.2419
17332SOL     OW58600   7.182   9.871   7.514 -0.6629  0.0322 -0.9696
17332SOL    HW158601   7.231   9.951   7.535  0.0943 -0.1022 -2.1205
17332SOL    HW258602   7.090   9.899   7.511 -0.4167  0.8435 -1.2530
17333SOL     OW58603   9.139   8.784   6.621 -0.3412 -0.0535 -0.2916
17333SOL    HW158604   9.113   8.849   6.687 -0.2697  2.0091 -2.1401
17333SOL    HW258605   9.059   8.733   6.605 -0.3707 -0.5466  1.2907
17334SOL     OW58606   7.036   2.871   2.541  0.8897  0.5551  0.3603
17334SOL    HW158607   7.084   2.866   2.624  1.8961 -0.0198 -0.2302
17334SOL    HW258608   7.065   2.954   2.502  1.0327  0.4440  0.2282
17335SOL     OW58609   3.955   9.412   0.355  0.0720  0.2381  0.3387
17335SOL    HW158610   3.936   9.403   0.262 -0.1972 -0.4083  0.4564
17335SOL    HW258611   3.901   9.486   0.383  0.8876  1.0797 -0.2169
17336SOL     OW58612   5.923   0.801   6.619 -0.1555  0.4597  0.6181
17336SOL    HW158613   5.861   0.779   6.550  1.2998  0.5168 -0.7663
17336SOL    HW258614   5.897   0.888   6.648 -2.0484 -0.3913  1.6429
17337SOL     OW58615  12.736   3.927  10.009 -0.0465  0.0585  0.8778
17337SOL    HW158616  12.782   3.844   9.992 -1.2393 -0.3899 -0.3935
17337SOL    HW258617  12.806   3.991  10.021  0.9310 -1.2621  2.7943
17338SOL     OW58618   1.520   5.262   8.369  0.5195 -0.3437 -0.6611
17338SOL    HW158619   1.442   5.300   8.329  0.7735  0.9341  0.0111
17338SOL    HW258620   1.534   5.313   8.449  1.0690 -1.6681  0.1199
17339SOL     OW58621   6.026   9.309   5.811 -0.1161  0.4052 -0.5754
17339SOL    HW158622   6.118   9.284   5.813 -0.3089 -0.2884  1.5539
17339SOL    HW258623   5.978   9.227   5.819 -0.8838  0.8762 -0.1592
17340SOL     OW58624   2.299   8.963   9.151 -0.7884 -0.3566 -0.1963
17340SOL    HW158625   2.291   8.963   9.247  0.7891 -0.9484 -0.0303
17340SOL    HW258626   2.241   8.893   9.122  0.7337 -2.0258  0.5814
17341SOL     OW58627   4.466   7.486   9.262  0.5585 -0.2880 -0.5049
17341SOL    HW158628   4.475   7.546   9.336 -0.0501 -0.6355 -0.1393
17341SOL    HW258629   4.386   7.513   9.219  1.2484  0.3251 -1.4365
17342SOL     OW58630   8.672   2.904  10.441  0.3130 -0.6392  0.1026
17342SOL    HW158631   8.700   2.815  10.465 -1.0311 -1.2139 -0.3350
17342SOL    HW258632   8.612   2.891  10.368  0.2745  0.6636 -0.1168
17343SOL     OW58633   2.728   5.418   4.531 -0.6965 -0.1461  0.4278
17343SOL    HW158634   2.770   5.387   4.451 -0.9236 -1.8018  0.9077
17343SOL    HW258635   2.638   5.439   4.506 -0.6621 -0.3055  0.1769
17344SOL     OW58636   9.760  12.674   0.898 -0.1347 -0.5006 -0.3243
17344SOL    HW158637   9.717  12.700   0.817 -1.7528  2.0432  1.1891
17344SOL    HW258638   9.690  12.674   0.963  1.4755 -0.2028  1.5051
17345SOL     OW58639   0.411   7.886   5.252  0.2917 -0.4705 -0.6601
17345SOL    HW158640   0.383   7.965   5.299 -1.7235 -1.0432 -0.8215
17345SOL    HW258641   0.373   7.896   5.164 -0.3560 -1.8046 -0.5487
17346SOL     OW58642  12.674   5.325   0.126 -0.3183 -0.0723  0.1382
17346SOL    HW158643  12.710   5.336   0.214 -0.0039 -0.8238  0.1116
17346SOL    HW258644  12.750   5.330   0.069 -0.3674 -0.6929  0.0056
17347SOL     OW58645   1.407  11.466  10.398  0.7326 -0.3652 -0.3522
17347SOL    HW158646   1.379  11.498  10.312  0.5423 -1.6590 -0.7809
17347SOL    HW258647   1.327  11.466  10.451  0.7688  0.0147 -0.2890
17348SOL     OW58648   5.247   9.322   3.001 -0.2950  0.1366  0.2775
17348SOL    HW158649   5.316   9.369   2.954  1.6210 -1.7034  1.0648
17348SOL    HW258650   5.292   9.278   3.073 -2.7721  1.0224  2.5205
17349SOL     OW58651   9.318   4.484   0.958  0.2199  0.1270 -0.6153
17349SOL    HW158652   9.399   4.466   0.911 -0.3918 -0.7027 -1.3816
17349SOL    HW258653   9.304   4.408   1.014 -0.3896 -0.0647 -1.0134
17350SOL     OW58654   9.157  11.471   4.809 -0.0131  0.6073 -0.2301
17350SOL    HW158655   9.211  11.515   4.875 -1.4095  2.3614 -0.1949
17350SOL    HW258656   9.161  11.528   4.733 -0.4267 -0.1407 -0.8325
17351SOL     OW58657   8.924   0.926   7.319 -0.1457 -0.0669  0.3154
17351SOL    HW158658   8.901   0.902   7.409 -2.3337 -0.6901 -0.3619
17351SOL    HW258659   8.911   1.021   7.315 -1.7666 -0.2792  0.2067
17352SOL     OW58660  12.034  10.944   7.370  0.0646 -0.0025 -0.3020
17352SOL    HW158661  12.112  10.966   7.319 -0.8107  1.4343 -1.0816
17352SOL    HW258662  11.981  10.890   7.311  1.3343 -2.8043  0.9417
17353SOL     OW58663   2.109   6.865   8.452 -0.4154  0.3614 -0.1823
17353SOL    HW158664   2.045   6.862   8.523  0.2514  0.3608  0.4282
17353SOL    HW258665   2.118   6.958   8.432  1.1535  0.6024  1.3829
17354SOL     OW58666   9.819   7.859  12.053 -0.8941  0.1115  0.3498
17354SOL    HW158667   9.891   7.922  12.048 -0.9282  0.0769 -0.7010
17354SOL    HW258668   9.862   7.775  12.069 -0.7304  0.1544  0.1376
17355SOL     OW58669   5.630   0.623  10.946 -0.7163  0.3475  0.3780
17355SOL    HW158670   5.552   0.569  10.962 -1.0916  0.2687 -1.4542
17355SOL    HW258671   5.669   0.586  10.867 -1.9180  3.6379 -2.0219
17356SOL     OW58672   4.685   6.604   8.565  0.5105 -0.5758  0.0499
17356SOL    HW158673   4.658   6.563   8.647  2.9414 -0.0619  1.2096
17356SOL    HW258674   4.635   6.686   8.562  1.1608 -0.0811  1.6064
17357SOL     OW58675   6.177   7.478   1.456 -0.5241 -0.3377 -0.2536
17357SOL    HW158676   6.206   7.387   1.456 -1.2655 -0.5881  1.0149
17357SOL    HW258677   6.094   7.477   1.407 -0.9971 -0.5049  0.5473
17358SOL     OW58678   1.361   7.196  11.441  0.1483 -0.5206 -0.3239
17358SOL    HW158679   1.329   7.126  11.499  1.5390  0.1961  1.4091
17358SOL    HW258680   1.384   7.267  11.501 -1.4616  1.5693 -2.0499
17359SOL     OW58681  12.196   3.563   9.348 -0.2681 -0.3833 -0.2186
17359SOL    HW158682  12.108   3.530   9.333 -0.6621  0.5867 -0.0725
17359SOL    HW258683  12.243   3.490   9.389 -1.0262 -0.8673 -0.2079
17360SOL     OW58684   9.883  12.065   1.200  0.2328 -0.0419  0.6310
17360SOL    HW158685   9.796  12.099   1.221 -0.4965 -1.7984  0.6137
17360SOL    HW258686   9.900  12.095   1.111 -0.0928  0.8009  0.8428
17361SOL     OW58687   4.750   7.027  11.530 -0.0717  0.1638  0.1911
17361SOL    HW158688   4.690   7.085  11.577 -1.4268 -0.8100 -0.2607
17361SOL    HW258689   4.719   7.030  11.439  0.9424  0.0790 -0.1750
17362SOL     OW58690   8.953  10.060   1.760 -0.2556  0.3047  0.2133
17362SOL    HW158691   8.985   9.990   1.703 -2.0027 -0.9104  0.6201
17362SOL    HW258692   9.029  10.087   1.811  0.9632  0.2499 -1.4806
17363SOL     OW58693   1.574   9.358   7.936 -0.0939  0.2438  0.3626
17363SOL    HW158694   1.556   9.315   7.852 -1.1024  1.1853  0.0733
17363SOL    HW258695   1.490   9.394   7.963  0.5386  1.2610  1.0301
17364SOL     OW58696   4.528   5.531   8.060  0.0567  0.1842  0.1874
17364SOL    HW158697   4.524   5.438   8.082  0.5888  0.2955  0.7631
17364SOL    HW258698   4.583   5.570   8.128 -0.9946  1.0979  0.5496
17365SOL     OW58699   1.748   7.304   7.528 -0.5692  0.3575  0.0866
17365SOL    HW158700   1.786   7.243   7.464 -0.1725  1.3650 -0.6711
17365SOL    HW258701   1.680   7.350   7.479  0.8784  2.3570 -0.1523
17366SOL     OW58702   4.924  11.994  12.193  0.3321 -0.1849 -0.3938
17366SOL    HW158703   5.001  11.950  12.229 -1.4567 -2.8772  0.4747
17366SOL    HW258704   4.903  11.943  12.114 -0.9007  0.0798 -0.2598
17367SOL     OW58705   6.017   8.706  11.586 -0.1165  0.0927  0.2230
17367SOL    HW158706   5.982   8.757  11.659 -0.2694 -1.5839  1.3887
17367SOL    HW258707   6.112   8.705  11.600 -0.0176  0.8467 -0.3516
17368SOL     OW58708   1.468   5.210   1.411 -0.5718 -0.4584 -0.1846
17368SOL    HW158709   1.457   5.199   1.316 -0.9273  0.3909 -0.2472
17368SOL    HW258710   1.550   5.257   1.421  0.7895 -2.7192  0.0751
17369SOL     OW58711  10.780  12.493   8.106 -0.1807  0.0947 -0.3749
17369SOL    HW158712  10.748  12.570   8.059  0.4570  1.5157  1.4017
17369SOL    HW258713  10.712  12.475   8.171 -1.1709 -1.9921 -1.8782
17370SOL     OW58714   0.267   9.453   3.334  0.7534 -0.6976 -0.3043
17370SOL    HW158715   0.266   9.531   3.389  1.8132 -1.8179  1.3758
17370SOL    HW258716   0.290   9.486   3.247  0.4754  0.9313  0.2026
17371SOL     OW58717   3.975   1.751  12.240  0.2572 -0.2297  0.5374
17371SOL    HW158718   3.930   1.835  12.240  1.6728  0.6292  2.5744
17371SOL    HW258719   3.923   1.695  12.298  0.3603 -0.1131  0.7433
17372SOL     OW58720   6.546   4.008   3.742  0.4514  0.5894  0.3243
17372SOL    HW158721   6.573   3.996   3.651  2.8652 -1.2114  1.1948
17372SOL    HW258722   6.463   3.959   3.749 -0.0257  1.1646 -0.9781
17373SOL     OW58723  11.709  11.866  11.895  0.1947 -0.5518  0.2544
17373SOL    HW158724  11.800  11.861  11.923  0.1837  0.3757  0.4877
17373SOL    HW258725  11.712  11.911  11.810 -0.0193 -0.8322  0.0948
17374SOL     OW58726   5.552   6.626   0.651 -0.8966  0.3429 -0.1306
17374SOL    HW158727   5.550   6.599   0.559 -1.1175 -0.9381  0.2289
17374SOL    HW258728   5.621   6.572   0.690 -1.8370 -0.2509  0.7726
17375SOL     OW58729  12.762  10.206  11.350 -0.5017 -0.3683  0.5616
17375SOL    HW158730  12.782  10.296  11.324 -1.1723 -0.2269  0.5105
17375SOL    HW258731  12.845  10.171  11.382  0.7141 -0.9584 -2.8461
17376SOL     OW58732  11.302   8.342   6.706 -0.9113 -0.1018 -0.3897
17376SOL    HW158733  11.238   8.345   6.776  0.4829  1.1349  0.8960
17376SOL    HW258734  11.296   8.427   6.663 -1.1780 -0.5456 -1.2703
17377SOL     OW58735   0.231   3.801   8.988  0.3073  0.0115 -0.7500
17377SOL    HW158736   0.288   3.865   9.030  2.2378 -0.9694 -1.7612
17377SOL    HW258737   0.260   3.716   9.020 -1.6134 -0.4734 -0.1351
17378SOL     OW58738  12.072   6.507   6.455  0.1551  0.2371 -0.3245
17378SOL    HW158739  12.076   6.455   6.536 -0.1700 -0.4818 -0.7589
17378SOL    HW258740  12.038   6.592   6.484  1.2647  0.4274  0.4921
17379SOL     OW58741   8.439  12.580   6.874  0.6653  0.1358 -0.1385
17379SOL    HW158742   8.453  12.665   6.914  0.7479  0.4293 -0.7890
17379SOL    HW258743   8.346  12.561   6.892  0.4427  0.7089 -0.6456
17380SOL     OW58744   7.127   6.450   2.426  0.4453 -0.6689 -0.0415
17380SOL    HW158745   7.087   6.423   2.343  0.0673  0.2601 -0.1665
17380SOL    HW258746   7.220   6.427   2.416 -0.0190 -3.0601  0.3411
17381SOL     OW58747   4.000   1.543   6.074 -0.1191  0.3016  0.4247
17381SOL    HW158748   4.035   1.586   6.152  0.5479  0.9803 -0.2249
17381SOL    HW258749   4.063   1.472   6.056  0.0871  0.5526  0.1417
17382SOL     OW58750   8.245   9.161  12.299  0.3947  0.2031  0.4497
17382SOL    HW158751   8.322   9.113  12.329  1.3398  1.0504 -0.5439
17382SOL    HW258752   8.184   9.157  12.372  0.2484 -2.8375  0.3086
17383SOL     OW58753   7.480   5.741   2.287  0.2956 -0.0568 -0.0849
17383SOL    HW158754   7.510   5.773   2.372 -1.0397 -0.4243  0.5453
17383SOL    HW258755   7.557   5.698   2.249  1.6273  2.2128 -0.1638
17384SOL     OW58756   1.509   3.217   3.485  0.3735 -0.5273  0.4642
17384SOL    HW158757   1.576   3.185   3.424  1.3535 -0.2609  1.3750
17384SOL    HW258758   1.430   3.226   3.431  1.5759  1.1906 -1.1593
17385SOL     OW58759   4.911   4.581   2.318 -0.3438 -0.1900 -0.0473
17385SOL    HW158760   4.996   4.559   2.280  0.7883  1.4934  1.3823
17385SOL    HW258761   4.884   4.502   2.364  1.0251 -0.3739  0.4772
17386SOL     OW58762  12.378   7.933  12.344 -0.2838 -0.3860  0.0193
17386SOL    HW158763  12.326   7.865  12.301  0.8329 -2.0885  1.2458
17386SOL    HW258764  12.335   8.015  12.319 -1.3672 -1.4696 -1.9471
17387SOL     OW58765   0.416   9.140   5.388 -0.4053 -0.6042  0.0040
17387SOL    HW158766   0.498   9.131   5.340 -0.2345  1.4507 -0.1744
17387SOL    HW258767   0.350   9.106   5.328  0.1396 -0.8799 -0.4546
17388SOL     OW58768   7.636  10.579   8.550 -0.5257 -0.2429  0.1550
17388SOL    HW158769   7.676  10.492   8.551 -0.6734 -0.4608 -2.9271
17388SOL    HW258770   7.545  10.564   8.525 -1.2281  0.6686  1.9734
17389SOL     OW58771   1.214  10.466   2.726 -0.4793 -0.2150 -0.1054
17389SOL    HW158772   1.248  10.512   2.803 -0.6835 -1.3528  0.6958
17389SOL    HW258773   1.261  10.505   2.652 -1.4512  2.0574  0.3754
17390SOL     OW58774   2.961   7.815  12.617 -0.7050  0.2141 -0.0655
17390SOL    HW158775   2.968   7.804  12.523  1.7354 -0.3803  0.1304
17390SOL    HW258776   2.945   7.909  12.629  0.2462  0.5229 -1.0545
17391SOL     OW58777   9.780   0.582   4.794  0.1229 -0.2193  0.6782
17391SOL    HW158778   9.779   0.486   4.794  0.0848 -0.2267 -0.2032
17391SOL    HW258779   9.710   0.606   4.734  0.8304  0.3471  0.0752
17392SOL     OW58780   4.829   8.369   8.339 -0.1402  0.2311 -0.2155
17392SOL    HW158781   4.784   8.449   8.310 -0.3304 -0.1751 -1.0771
17392SOL    HW258782   4.920   8.382   8.312  0.0839  0.6441  0.6866
17393SOL     OW58783   4.255   2.766  11.904 -0.0877 -0.7937 -0.4015
17393SOL    HW158784   4.327   2.710  11.872  1.3044  0.8958 -0.3650
17393SOL    HW258785   4.296   2.851  11.919 -1.9799  0.0366  0.3113
17394SOL     OW58786   7.108   5.865   1.595  0.9531  0.4306 -0.3350
17394SOL    HW158787   7.142   5.780   1.568  1.6476  0.1071  1.4541
17394SOL    HW258788   7.107   5.917   1.514 -0.0947 -1.4347 -1.5872
17395SOL     OW58789  11.291   4.918   0.541  0.0158 -0.3169  0.1844
17395SOL    HW158790  11.288   5.010   0.568 -0.7063  0.0100 -0.9357
17395SOL    HW258791  11.269   4.869   0.620  0.8534  0.4427  0.9048
17396SOL     OW58792   0.279   2.223   1.636 -0.0955  0.0139  0.1835
17396SOL    HW158793   0.354   2.230   1.577 -2.0155  1.8480 -2.2638
17396SOL    HW258794   0.234   2.144   1.607  0.3993 -0.5980  1.0605
17397SOL     OW58795   5.902  10.412  11.673 -0.1704 -0.0749 -0.2659
17397SOL    HW158796   5.965  10.484  11.663 -0.4755  0.3061  0.5228
17397SOL    HW258797   5.875  10.392  11.583  1.8660 -0.9625 -0.7315
17398SOL     OW58798  10.030   4.605   0.859  0.8816 -0.3428 -0.2729
17398SOL    HW158799  10.000   4.672   0.798  2.1043  0.7470  0.2693
17398SOL    HW258800   9.965   4.603   0.929 -0.9578 -2.1578 -1.9155
17399SOL     OW58801   5.663   7.649   9.429 -0.3369 -0.2190 -0.1131
17399SOL    HW158802   5.701   7.617   9.511  1.0295 -1.2151 -1.0728
17399SOL    HW258803   5.652   7.570   9.376  0.4177  0.5771 -1.4993
17400SOL     OW58804   4.860   6.171  10.973  0.4789  0.3696 -0.2858
17400SOL    HW158805   4.890   6.082  10.957 -0.6125 -0.1086  0.2574
17400SOL    HW258806   4.804   6.191  10.897  1.7696  1.1041 -1.0860
17401SOL     OW58807  11.606   7.701   2.701  0.1863  0.2595 -0.6553
17401SOL    HW158808  11.537   7.713   2.765 -1.1451 -0.8189 -1.8134
17401SOL    HW258809  11.573   7.633   2.642  2.0815 -0.0406 -1.4674
17402SOL     OW58810   4.764   1.229   8.962  0.7506 -0.0698 -0.3828
17402SOL    HW158811   4.677   1.221   9.002  0.6411 -0.2334 -0.6497
17402SOL    HW258812   4.753   1.296   8.895  0.3737 -1.3224 -1.6208
17403SOL     OW58813   9.922   8.333   0.917  0.1043  0.3698 -0.2711
17403SOL    HW158814   9.961   8.354   0.832 -0.6895  0.0695 -0.7169
17403SOL    HW258815   9.984   8.272   0.957 -0.4071 -0.9789 -1.4433
17404SOL     OW58816  11.910   2.423   2.821  0.3829  0.0967 -0.1448
17404SOL    HW158817  11.988   2.438   2.875  0.1860 -1.2234  0.5316
17404SOL    HW258818  11.843   2.395   2.883 -1.1868  2.8360 -0.4414
17405SOL     OW58819   9.725  11.416   8.561 -0.1029 -0.2711  0.1824
17405SOL    HW158820   9.761  11.424   8.649 -0.7918  3.0527  0.2741
17405SOL    HW258821   9.802  11.406   8.504  0.3671 -1.7972  1.0188
17406SOL     OW58822   5.209  10.594  11.172  0.1920  0.1440 -0.0520
17406SOL    HW158823   5.232  10.603  11.265  0.3474  0.2462 -0.1004
17406SOL    HW258824   5.281  10.544  11.134 -0.0083 -0.1395 -0.0611
17407SOL     OW58825   8.736  11.236   1.194  0.4767  0.2506 -0.2586
17407SOL    HW158826   8.730  11.328   1.220 -0.6700  0.3319 -0.7714
17407SOL    HW258827   8.829  11.223   1.174  0.7614  1.1126  0.4664
17408SOL     OW58828   7.236  12.688   7.328  0.5128 -0.1731 -0.4270
17408SOL    HW158829   7.198  12.601   7.319  2.5867 -1.0238 -1.9125
17408SOL    HW258830   7.272  12.690   7.417 -1.1499 -0.0895  0.2738
17409SOL     OW58831   5.793   4.376  10.908  0.5976  0.5359 -0.1393
17409SOL    HW158832   5.799   4.466  10.938  2.2481  1.2412 -2.2793
17409SOL    HW258833   5.779   4.383  10.814 -3.0272 -1.5195  0.0448
17410SOL     OW58834   9.055   7.072  10.905  0.3928 -0.5525  0.8128
17410SOL    HW158835   9.099   6.993  10.935 -0.2889 -0.9526  0.7760
17410SOL    HW258836   9.098   7.094  10.822 -0.2389 -1.5977  0.1916
17411SOL     OW58837   4.315   6.192   4.720  0.1544  0.1148 -0.0911
17411SOL    HW158838   4.366   6.270   4.742 -1.1505  0.4716  1.9816
17411SOL    HW258839   4.307   6.145   4.803 -3.3414  0.4135 -0.1319
17412SOL     OW58840  12.182   4.421   9.427  0.1928 -0.1357  0.0115
17412SOL    HW158841  12.207   4.436   9.336  1.2578 -1.4320  0.0531
17412SOL    HW258842  12.238   4.480   9.478  0.1212  0.0556 -0.1308
17413SOL     OW58843  12.118   5.852  11.780  1.0325 -0.0747  0.3900
17413SOL    HW158844  12.114   5.758  11.799 -0.0428  0.1308  1.2421
17413SOL    HW258845  12.151   5.891  11.861 -0.1863  0.4533  0.6415
17414SOL     OW58846   2.764  11.289   8.953 -0.3217 -0.1884 -0.7150
17414SOL    HW158847   2.856  11.281   8.977 -1.0709 -2.1917  1.9917
17414SOL    HW258848   2.730  11.356   9.012 -1.0167 -1.0611 -0.0939
17415SOL     OW58849   0.074  12.325   0.899  0.1885 -0.1086  0.4627
17415SOL    HW158850   0.040  12.413   0.910  2.2994  0.7715  0.3385
17415SOL    HW258851   0.094  12.319   0.805 -0.9049 -1.1367  0.2587
17416SOL     OW58852   8.616   9.762   8.053  0.0168 -0.4641  0.3631
17416SOL    HW158853   8.567   9.733   7.976 -0.6546 -1.3285  1.0980
17416SOL    HW258854   8.580   9.711   8.125  0.3247  0.6529  1.3394
17417SOL     OW58855   2.334   3.674   7.488  0.2575  0.4481 -0.0901
17417SOL    HW158856   2.339   3.769   7.482 -0.9473  0.4954 -0.8520
17417SOL    HW258857   2.412   3.648   7.536 -0.1066  1.9325  1.4048
17418SOL     OW58858   6.928   6.741   7.637  0.8957 -0.3161 -0.1232
17418SOL    HW158859   6.893   6.777   7.555  0.7481 -1.7483 -0.7219
17418SOL    HW258860   6.851   6.725   7.691  0.8691 -0.7120 -0.2761
17419SOL     OW58861   8.772   5.463   8.719 -0.5654 -0.2756  0.3282
17419SOL    HW158862   8.863   5.481   8.744 -0.3146 -0.3834 -0.4729
17419SOL    HW258863   8.720   5.509   8.784  0.0652  1.4275 -0.3094
17420SOL     OW58864   7.114   4.503   3.450  0.0883  0.1778 -0.6606
17420SOL    HW158865   7.100   4.455   3.369 -1.9022  0.4198 -0.5132
17420SOL    HW258866   7.096   4.594   3.428 -1.4720  0.1321  0.2064
17421SOL     OW58867   6.501   0.163   1.982  0.0755  0.6460 -0.1796
17421SOL    HW158868   6.568   0.230   1.995  0.8652 -0.1667  0.0129
17421SOL    HW258869   6.526   0.120   1.900 -0.6177  0.7865 -0.4754
17422SOL     OW58870   3.332   8.200   9.128 -0.1533 -0.2414 -0.3642
17422SOL    HW158871   3.390   8.132   9.164 -0.8633 -0.1228  1.0529
17422SOL    HW258872   3.350   8.198   9.034  0.4135 -1.8614 -0.2676
17423SOL     OW58873  10.096  10.438  12.199 -0.5208 -0.1688  0.0074
17423SOL    HW158874  10.044  10.443  12.278 -1.2900  0.5258 -0.5237
17423SOL    HW258875  10.081  10.349  12.165  2.1669 -1.5798  2.1620
17424SOL     OW58876  11.778   7.374   2.223  0.2438 -0.2806  0.4708
17424SOL    HW158877  11.836   7.432   2.271 -1.0184  2.2841 -0.8623
17424SOL    HW258878  11.690   7.406   2.243 -0.6270 -2.5984  0.6629
17425SOL     OW58879  11.653  10.591   9.011 -0.5514  0.7219  0.4796
17425SOL    HW158880  11.662  10.549   9.096  0.8525  0.4303  0.1980
17425SOL    HW258881  11.631  10.520   8.951  0.8786  0.5052  0.1774
17426SOL     OW58882  11.156  12.284  10.925 -0.3569 -0.0466  0.6174
17426SOL    HW158883  11.183  12.361  10.876 -0.4053  0.2120  0.9983
17426SOL    HW258884  11.092  12.241  10.868 -0.2933  0.1634  0.3848
17427SOL     OW58885   2.042   4.755  12.132 -0.2435  0.0662  0.1940
17427SOL    HW158886   2.118   4.804  12.165 -0.8758  0.9025  0.4619
17427SOL    HW258887   1.994   4.819  12.079 -0.1134 -0.8088 -1.0140
17428SOL     OW58888   8.728  11.832   0.280 -1.0461 -0.5151 -0.3474
17428SOL    HW158889   8.783  11.822   0.203 -1.4435 -0.3092 -0.6633
17428SOL    HW258890   8.679  11.750   0.285 -0.8665 -0.6126 -0.1927
17429SOL     OW58891   3.139   2.601  12.426 -0.0865 -0.2702  0.8258
17429SOL    HW158892   3.175   2.663  12.362 -0.7542  0.7845  1.4418
17429SOL    HW258893   3.093   2.536  12.373 -1.1191  0.9022  0.2489
17430SOL     OW58894   7.980  12.604   9.118  0.0411  0.0707 -0.5811
17430SOL    HW158895   7.924  12.532   9.088  2.7380 -1.6434 -1.8634
17430SOL    HW258896   8.065  12.564   9.133  1.3692  2.8029 -0.1926
17431SOL     OW58897   0.367   7.333   9.737 -0.2983  0.1037  0.2662
17431SOL    HW158898   0.276   7.363   9.741 -0.5471 -0.3604 -1.1393
17431SOL    HW258899   0.398   7.336   9.827 -2.3004 -1.5507  1.0828
17432SOL     OW58900  12.372   2.866   8.319 -0.0967  0.0749  0.3682
17432SOL    HW158901  12.325   2.807   8.260 -1.4655  1.3781  0.1028
17432SOL    HW258902  12.316   2.871   8.397  1.5272 -1.3769  1.7068
17433SOL     OW58903  10.624  12.743   5.983  0.3129  0.2899 -0.1759
17433SOL    HW158904  10.571  12.747   6.062 -0.2961  0.6150 -0.5966
17433SOL    HW258905  10.564  12.716   5.914  0.9043 -0.3004 -0.4753
17434SOL     OW58906   7.609   2.761   0.636 -0.2494  0.0736  0.6324
17434SOL    HW158907   7.567   2.837   0.677  0.2279 -0.0458  1.3543
17434SOL    HW258908   7.596   2.775   0.542 -3.5490 -0.8829  0.8048
17435SOL     OW58909   1.452  10.032   5.406 -0.2247 -0.6457 -0.1472
17435SOL    HW158910   1.396  10.104   5.376 -1.1264 -1.6478 -0.9703
17435SOL    HW258911   1.396   9.954   5.401  0.8349 -1.4747  0.3551
17436SOL     OW58912  11.110   1.985   1.421 -0.3900 -0.4493  0.2632
17436SOL    HW158913  11.077   1.980   1.511  0.5771  1.6540  0.7902
17436SOL    HW258914  11.050   1.931   1.370 -2.0857 -0.1475  1.8602
17437SOL     OW58915   9.273   9.030   4.993 -0.0067 -0.0096  0.4244
17437SOL    HW158916   9.265   9.043   4.898  1.5222 -0.2233  0.2320
17437SOL    HW258917   9.234   8.944   5.009 -0.6593  0.2154  0.0569
17438SOL     OW58918   4.535   9.208   5.051  0.0346  0.2320 -0.4655
17438SOL    HW158919   4.516   9.256   4.970  1.2265  0.4684 -0.6319
17438SOL    HW258920   4.493   9.259   5.120 -1.6832 -0.3996 -0.9859
17439SOL     OW58921   4.723   7.957   2.473  0.0738  0.3561 -0.4570
17439SOL    HW158922   4.704   8.049   2.456 -0.1887  0.5574  0.7814
17439SOL    HW258923   4.687   7.941   2.561  0.2346 -0.8898 -0.5930
17440SOL     OW58924   0.933   7.906   0.432 -0.0881  0.1411 -0.1763
17440SOL    HW158925   0.923   7.810   0.432  0.2672  0.1031 -0.9649
17440SOL    HW258926   1.011   7.921   0.485  1.1653 -0.1655 -1.8533
17441SOL     OW58927   7.720   0.272   8.855 -0.1853  0.4081  0.7898
17441SOL    HW158928   7.667   0.242   8.928  0.9086 -1.6031  0.8347
17441SOL    HW258929   7.673   0.242   8.777 -0.0381  0.2145  0.7738
17442SOL     OW58930   8.774   8.041   7.791  0.4339 -0.0214 -0.1929
17442SOL    HW158931   8.855   8.018   7.744  0.9584  0.8477  0.2546
17442SOL    HW258932   8.780   7.992   7.873  0.8897  0.6211  0.1695
17443SOL     OW58933   4.272  11.036   0.526  0.3148  0.6916 -0.7653
17443SOL    HW158934   4.282  11.040   0.431 -3.5179 -0.5915 -1.4063
17443SOL    HW258935   4.227  11.117   0.549  2.6392  1.7563  0.3102
17444SOL     OW58936  10.700  11.881   2.678  0.0660 -0.0364 -0.1094
17444SOL    HW158937  10.613  11.847   2.696  0.8193 -2.1207 -0.1197
17444SOL    HW258938  10.692  11.928   2.596 -0.6185 -2.2342 -1.3851
17445SOL     OW58939   3.348   4.350   8.253  0.5007 -0.3500  0.1287
17445SOL    HW158940   3.372   4.416   8.188  0.6992  0.5578  1.0900
17445SOL    HW258941   3.431   4.329   8.297  0.4318 -1.2265 -0.1552
17446SOL     OW58942   5.217   4.986  11.172 -0.1358  0.3555 -0.0662
17446SOL    HW158943   5.259   4.908  11.137 -1.1233  0.0035 -0.5151
17446SOL    HW258944   5.180   4.958  11.256  1.1214  0.8566  0.6797
17447SOL     OW58945  10.073  10.058  10.111  0.7080 -0.2385 -0.8102
17447SOL    HW158946  10.016  10.001  10.163  1.1715 -1.4428 -1.5743
17447SOL    HW258947  10.150  10.004  10.092  1.5650  0.9508 -0.8256
17448SOL     OW58948   3.882   4.307   1.222 -0.3651  0.2348 -0.0756
17448SOL    HW158949   3.869   4.236   1.159 -0.5648  1.3306 -1.3085
17448SOL    HW258950   3.971   4.338   1.205  0.3941 -0.8561  1.6848
17449SOL     OW58951   6.748  11.337  11.448 -0.1735  0.6828  0.1535
17449SOL    HW158952   6.808  11.379  11.509  0.0184 -0.2610  0.6454
17449SOL    HW258953   6.768  11.243  11.455 -0.6044  0.4971 -0.8701
17450SOL     OW58954   0.361   5.518   1.392  0.8038 -0.0577 -0.5679
17450SOL    HW158955   0.343   5.506   1.486  0.4222 -0.7863 -0.7285
17450SOL    HW258956   0.275   5.511   1.351  0.8270  1.3221 -0.8758
17451SOL     OW58957   0.262   5.132   2.842 -0.0134 -0.9021  0.1498
17451SOL    HW158958   0.167   5.120   2.854 -0.4299  1.7362 -0.0486
17451SOL    HW258959   0.292   5.172   2.923  0.3880  0.8590 -0.8315
17452SOL     OW58960  12.532   6.175   2.886  0.4952  0.0796  0.1727
17452SOL    HW158961  12.592   6.197   2.957  1.4632 -2.9801  0.4639
17452SOL    HW258962  12.586   6.177   2.807  0.1559  0.5468 -0.0513
17453SOL     OW58963   6.945   8.878   1.624 -0.2001  0.2770  0.2051
17453SOL    HW158964   6.879   8.811   1.642 -0.5339  0.4169 -0.4735
17453SOL    HW258965   6.961   8.871   1.530  0.8252  0.1827  0.3837
17454SOL     OW58966   0.017   9.962   0.431  0.6015  0.1800  0.6667
17454SOL    HW158967   0.089  10.013   0.395  1.4392 -0.5918  1.2239
17454SOL    HW258968  -0.055  10.025   0.439  1.7140  1.3669  1.7120
17455SOL     OW58969  11.645   7.340   2.775  0.2453  0.5573  0.1190
17455SOL    HW158970  11.669   7.312   2.863  0.4498 -3.4482 -1.0149
17455SOL    HW258971  11.717   7.396   2.746  0.3253  1.6662  2.2946
17456SOL     OW58972   9.611  11.932   4.412 -0.0414 -0.4151 -0.0178
17456SOL    HW158973   9.528  11.902   4.375  0.3249 -0.8066 -0.5488
17456SOL    HW258974   9.667  11.947   4.336  0.4870 -0.4955  0.3485
17457SOL     OW58975   3.794  12.163   9.357 -0.1299  0.0593 -0.5269
17457SOL    HW158976   3.773  12.101   9.287  1.0540  0.5903 -1.3793
17457SOL    HW258977   3.722  12.226   9.356 -1.1574 -1.0657  0.1046
17458SOL     OW58978   7.855   6.032   0.900 -0.7177  0.7368 -0.1776
17458SOL    HW158979   7.897   6.018   0.985 -1.9146  0.3325  0.3754
17458SOL    HW258980   7.865   6.126   0.884  0.6692  0.5973 -0.2311
17459SOL     OW58981   5.013   5.707   2.101  0.2542  0.2540 -0.0420
17459SOL    HW158982   4.945   5.641   2.097  1.5981 -1.1796 -0.1440
17459SOL    HW258983   5.032   5.728   2.009  1.1411 -0.6629 -0.0883
17460SOL     OW58984   5.869  12.597  12.173  0.0143  0.0409 -0.3029
17460SOL    HW158985   5.832  12.569  12.256  0.3368 -2.7921 -1.0155
17460SOL    HW258986   5.795  12.630  12.123 -0.4746  0.1472  0.4787
17461SOL     OW58987   5.379   0.247  11.644 -0.0274  0.1939  0.0636
17461SOL    HW158988   5.450   0.311  11.634 -1.4917  2.0159  0.7746
17461SOL    HW258989   5.385   0.192  11.565  0.4653  2.0493 -1.2542
17462SOL     OW58990   6.949   5.524   0.542 -0.5178  0.3110 -0.1734
17462SOL    HW158991   6.996   5.601   0.508 -0.4749 -0.0119 -0.8750
17462SOL    HW258992   6.942   5.540   0.636  2.8118 -0.5570  0.3392
17463SOL     OW58993   4.494   9.310   4.800 -0.8369 -0.1928  0.4841
17463SOL    HW158994   4.553   9.380   4.774 -0.8408 -0.7359 -1.1234
17463SOL    HW258995   4.414   9.354   4.827 -0.1297  0.4963  1.5063
17464SOL     OW58996   5.621   6.076   0.210  0.1128  0.0948  0.3032
17464SOL    HW158997   5.709   6.060   0.243  0.3225 -0.5263 -0.5333
17464SOL    HW258998   5.563   6.045   0.280  0.5246  1.5189  1.3348
17465SOL     OW58999  10.670   1.462   1.386 -0.1541  0.0156 -0.4718
17465SOL    HW159000  10.657   1.546   1.342  0.8807  2.2023  2.9947
17465SOL    HW259001  10.582   1.423   1.389 -1.0547  1.9187 -0.5287
17466SOL     OW59002   3.767   1.004   8.638 -0.3056 -0.4653 -0.2388
17466SOL    HW159003   3.730   0.923   8.673 -2.9138 -0.8552 -3.3964
17466SOL    HW259004   3.730   1.073   8.694  0.6275 -1.2875  1.4680
17467SOL     OW59005   4.891   1.215   5.091  0.1739 -0.0503 -0.0777
17467SOL    HW159006   4.831   1.236   5.020  0.8735 -0.5043 -0.8112
17467SOL    HW259007   4.852   1.139   5.134  0.4502 -0.6272 -0.8355
17468SOL     OW59008   7.539   7.150   3.315 -0.2972  0.0783  0.0551
17468SOL    HW159009   7.628   7.117   3.302 -1.1242 -2.6705  0.5662
17468SOL    HW259010   7.548   7.245   3.314  2.6159 -0.0992 -0.0072
17469SOL     OW59011   7.836   6.639   0.538  0.2031  0.8321  0.0734
17469SOL    HW159012   7.803   6.639   0.628  0.2759  1.0616  0.1011
17469SOL    HW259013   7.930   6.625   0.546 -0.3002 -4.7475 -0.2042
17470SOL     OW59014   6.219   9.713   5.958 -0.1729 -0.5686  0.4176
17470SOL    HW159015   6.149   9.778   5.949 -0.2543 -0.8394 -1.4466
17470SOL    HW259016   6.194   9.660   6.033 -1.8215 -0.4531 -0.0203
17471SOL     OW59017   4.536   8.594   7.517  0.0293 -0.6313 -0.0261
17471SOL    HW159018   4.489   8.544   7.585  0.3379  0.8045  1.2853
17471SOL    HW259019   4.469   8.612   7.451  0.0527 -3.3121 -0.9084
17472SOL     OW59020   6.343   4.466   1.864  0.0533  0.3520  0.0729
17472SOL    HW159021   6.345   4.415   1.782 -0.5460 -0.5254  0.5857
17472SOL    HW259022   6.434   4.466   1.894  0.3997  1.2488 -0.9195
17473SOL     OW59023   5.594   7.008   5.069 -0.4503  0.1093 -0.1287
17473SOL    HW159024   5.554   7.093   5.051  0.5203  0.4023 -0.9417
17473SOL    HW259025   5.619   7.013   5.161 -0.5316  0.6371 -0.1325
17474SOL     OW59026   1.992   7.172  10.020 -0.1559  0.6150 -0.2027
17474SOL    HW159027   1.919   7.112  10.006  0.2062 -0.1727  1.1752
17474SOL    HW259028   2.008   7.210   9.934 -0.5272 -1.0998 -1.0660
17475SOL     OW59029   4.183   1.720   2.468 -0.0555 -0.2427 -0.3790
17475SOL    HW159030   4.108   1.676   2.509  1.0735 -1.6654  0.2485
17475SOL    HW259031   4.153   1.740   2.379 -1.1698 -0.8027 -0.1505
17476SOL     OW59032   4.266   2.988   7.138  0.1862  0.2107 -0.4156
17476SOL    HW159033   4.308   2.994   7.224 -1.0250  1.3573  0.1322
17476SOL    HW259034   4.300   2.907   7.100  0.6804 -0.3662  1.1830
17477SOL     OW59035  11.425   1.529  10.378  0.1048 -0.5579  0.0751
17477SOL    HW159036  11.443   1.594  10.445 -0.3760 -0.3678  0.0214
17477SOL    HW259037  11.502   1.471  10.379 -0.4367 -1.3019  1.6332
17478SOL     OW59038   9.444   7.842   2.549 -0.2427  0.4856 -0.0521
17478SOL    HW159039   9.398   7.875   2.472  1.2453  1.9967 -0.3546
17478SOL    HW259040   9.516   7.903   2.562 -0.3281  0.1529  2.4531
17479SOL     OW59041   7.939  11.021   0.999  0.1880 -0.3596 -0.1410
17479SOL    HW159042   8.007  10.960   1.030  0.6028  0.6540  1.0406
17479SOL    HW259043   7.879  11.030   1.073 -0.2028  0.1987 -0.5158
17480SOL     OW59044   2.927   7.376   9.358 -0.4412  0.3057  0.1550
17480SOL    HW159045   2.834   7.391   9.374 -0.6572 -0.0749 -0.6550
17480SOL    HW259046   2.969   7.392   9.442 -1.2371  0.4854  0.5315
17481SOL     OW59047   7.289   2.398   1.500 -0.5854 -0.3049 -0.3160
17481SOL    HW159048   7.264   2.381   1.591 -0.5969  2.0827  0.1868
17481SOL    HW259049   7.243   2.331   1.450 -2.4921 -0.2379  1.2192
17482SOL     OW59050   4.041   0.345   5.585 -0.1203 -0.2675 -1.0335
17482SOL    HW159051   3.959   0.359   5.538 -0.8975  1.5473  0.6958
17482SOL    HW259052   4.045   0.250   5.598 -2.0549 -0.3929 -0.9981
17483SOL     OW59053   3.500   6.152  10.230  0.2451  0.3666  0.3590
17483SOL    HW159054   3.417   6.188  10.261 -0.4335 -0.1570 -0.7968
17483SOL    HW259055   3.477   6.097  10.155  1.5029 -0.7323  0.7264
17484SOL     OW59056  11.176   8.113   1.982 -0.7005  0.1338  0.2497
17484SOL    HW159057  11.117   8.156   2.044  0.2764  2.4620 -0.3311
17484SOL    HW259058  11.222   8.185   1.939  0.2517 -1.4994 -1.6054
17485SOL     OW59059   1.013  11.704   7.942  0.6156 -0.1140 -0.2050
17485SOL    HW159060   1.088  11.759   7.921 -0.2839  0.8967 -0.8943
17485SOL    HW259061   0.977  11.740   8.023  0.6664 -0.3844 -0.0589
17486SOL     OW59062   5.735   0.689   7.223 -0.3936  0.0844  0.2897
17486SOL    HW159063   5.790   0.635   7.166  0.1589  1.3544 -0.4209
17486SOL    HW259064   5.795   0.754   7.261 -1.4339  1.8833 -0.9697
17487SOL     OW59065   1.719   4.761   4.558  0.1563 -0.4738 -0.3517
17487SOL    HW159066   1.708   4.698   4.487  0.9158 -1.9394  0.7588
17487SOL    HW259067   1.804   4.738   4.597 -0.7495 -0.4856  1.7232
17488SOL     OW59068   4.911   5.449  12.426  0.3111 -0.2292  0.0623
17488SOL    HW159069   4.926   5.409  12.340 -0.4924 -2.5164  0.9109
17488SOL    HW259070   4.820   5.480  12.422  0.4550  0.1838 -0.0857
17489SOL     OW59071  11.726   9.853  11.489  0.3240 -0.4707 -0.0007
17489SOL    HW159072  11.640   9.814  11.505  0.1012  0.4792  1.3135
17489SOL    HW259073  11.761   9.870  11.577  1.1171  0.7163 -0.5171
17490SOL     OW59074   6.279   7.267   8.342  0.3899  0.6812  0.2298
17490SOL    HW159075   6.220   7.328   8.386  0.1189  0.4628  0.1691
17490SOL    HW259076   6.322   7.219   8.413 -0.3148  0.0718  0.2617
17491SOL     OW59077   4.484   5.579   6.292  0.5140  0.2886 -0.9622
17491SOL    HW159078   4.459   5.592   6.201  1.3894  1.4402 -1.0565
17491SOL    HW259079   4.401   5.570   6.339  0.0478  0.2029 -1.8026
17492SOL     OW59080   3.615   7.867   8.627  0.5691  0.4740  0.4534
17492SOL    HW159081   3.543   7.926   8.604  0.4878  0.5408  0.8652
17492SOL    HW259082   3.657   7.909   8.703  1.5524  0.8575 -0.2848
17493SOL     OW59083   9.955   8.944   7.712 -0.8718  0.3379 -0.3517
17493SOL    HW159084   9.924   9.015   7.655 -0.3486  0.9767  0.1391
17493SOL    HW259085  10.049   8.960   7.721 -0.6748 -0.6547 -0.5502
17494SOL     OW59086   9.261  10.983   2.818  0.2823 -0.3375 -0.5974
17494SOL    HW159087   9.324  11.054   2.826 -0.0939  0.0166 -0.7900
17494SOL    HW259088   9.314  10.903   2.825  0.8444 -0.0491 -1.4952
17495SOL     OW59089   2.066  11.125   3.609  0.2645 -0.3013  0.2591
17495SOL    HW159090   1.993  11.128   3.672  1.6508  2.6414  1.9427
17495SOL    HW259091   2.144  11.129   3.664  1.5647  1.4984 -1.5703
17496SOL     OW59092   6.271   2.525   6.799  0.6165  0.2159  0.1179
17496SOL    HW159093   6.253   2.585   6.726 -2.2848  1.5323  1.7005
17496SOL    HW259094   6.326   2.576   6.858  1.7251 -0.3085 -0.4371
17497SOL     OW59095   5.473  10.076   0.727  0.0722 -0.8028 -0.0100
17497SOL    HW159096   5.402  10.070   0.792 -1.9744  2.0610 -1.7228
17497SOL    HW259097   5.443  10.022   0.654 -1.0186  1.1992 -1.1533
17498SOL     OW59098   4.764   1.216  10.207  0.6909 -0.1999 -0.2838
17498SOL    HW159099   4.731   1.234  10.119 -1.3379 -1.3205  0.1809
17498SOL    HW259100   4.812   1.134  10.198  3.0334  1.1425 -0.8476
17499SOL     OW59101  12.786   4.629  12.057 -0.0330  0.2464  0.8327
17499SOL    HW159102  12.718   4.561  12.053  0.8300 -0.6144  0.3499
17499SOL    HW259103  12.815   4.639  11.966  2.1441 -1.1477  1.3046
17500SOL     OW59104   5.513   1.226   3.871 -0.8330  0.5272  0.2018
17500SOL    HW159105   5.457   1.149   3.863  0.0598  0.0002 -1.5323
17500SOL    HW259106   5.483   1.283   3.800 -0.3093  0.9984  0.3586
17501SOL     OW59107  10.641   9.096   2.496 -0.1113 -0.0018  0.0562
17501SOL    HW159108  10.616   9.025   2.557 -2.8704  0.3344 -0.5277
17501SOL    HW259109  10.689   9.158   2.551 -1.4400 -0.2969  1.6635
17502SOL     OW59110  11.393  11.741   1.710  0.3072 -0.3377 -0.6477
17502SOL    HW159111  11.456  11.674   1.741  0.2354  0.3474  1.0817
17502SOL    HW259112  11.311  11.717   1.752  0.7465  1.9902  1.8607
17503SOL     OW59113   6.966   1.230   2.662 -0.4917  0.1360  0.2979
17503SOL    HW159114   6.890   1.237   2.719 -0.1140  1.9053  0.6565
17503SOL    HW259115   6.930   1.210   2.575 -1.2644 -0.2338  0.7028
17504SOL     OW59116  10.390   0.614   6.947  0.2391 -0.8524  0.4023
17504SOL    HW159117  10.312   0.559   6.945  1.1139 -2.1353 -1.6437
17504SOL    HW259118  10.362   0.695   6.904 -0.3914 -0.6285  1.2020
17505SOL     OW59119   2.115   7.699  11.494  0.0547  0.3995  0.3537
17505SOL    HW159120   2.110   7.708  11.590  0.0717  0.5536  0.3399
17505SOL    HW259121   2.064   7.772  11.460  0.0590  0.3514  0.2445
17506SOL     OW59122   5.482   0.655   1.168  0.0337 -0.0710  0.0854
17506SOL    HW159123   5.573   0.640   1.195  0.0363 -2.4824 -0.9825
17506SOL    HW259124   5.436   0.575   1.195 -0.8989 -0.6163 -2.7977
17507SOL     OW59125   0.709  10.383   4.676 -0.0339  0.0313 -0.2710
17507SOL    HW159126   0.798  10.379   4.713  2.6380  1.9914 -5.5242
17507SOL    HW259127   0.682  10.474   4.690 -1.6207 -0.6479  1.6545
17508SOL     OW59128  11.001   0.397   5.709 -0.3576  0.3714 -0.1305
17508SOL    HW159129  10.927   0.453   5.731 -0.1878  1.0358 -1.1364
17508SOL    HW259130  10.980   0.362   5.623 -0.2822 -0.8331  0.3237
17509SOL     OW59131  10.024   3.138   1.246 -0.6133  0.5104 -0.3537
17509SOL    HW159132  10.092   3.098   1.192  1.8966 -0.0591  2.9112
17509SOL    HW259133  10.022   3.230   1.219 -0.7657 -0.0704 -2.5171
17510SOL     OW59134   2.767   4.322   2.340  0.0895 -0.5666  0.0617
17510SOL    HW159135   2.842   4.358   2.294 -0.3785 -1.4414 -1.4776
17510SOL    HW259136   2.784   4.340   2.433  0.1964  2.8913 -0.5229
17511SOL     OW59137   2.994   9.325  12.741 -0.1011 -0.3244 -0.5404
17511SOL    HW159138   2.954   9.272  12.673 -2.4981  0.6522  0.0267
17511SOL    HW259139   3.044   9.263  12.794  0.6798 -1.2985 -2.3127
17512SOL     OW59140  11.303   0.394   7.403 -0.0238  0.1326  0.3118
17512SOL    HW159141  11.225   0.339   7.406  1.0026 -1.3317  1.4879
17512SOL    HW259142  11.364   0.352   7.463  2.1574  0.4885 -1.5520
17513SOL     OW59143   7.515   4.428   9.225 -0.1291  0.2277 -0.0052
17513SOL    HW159144   7.470   4.511   9.240 -0.4451  0.1316 -0.4006
17513SOL    HW259145   7.444   4.363   9.221  0.0673  0.0303 -0.3043
17514SOL     OW59146   4.604   4.139  11.997 -0.3129  0.4670 -0.1847
17514SOL    HW159147   4.528   4.197  11.996 -2.0707 -1.5600  2.2406
17514SOL    HW259148   4.577   4.063  11.945  0.4321  0.0908 -0.0393
17515SOL     OW59149   9.002   4.156   8.230 -0.1489 -0.1797  0.1411
17515SOL    HW159150   9.051   4.074   8.238 -1.5502 -0.9747  1.0693
17515SOL    HW259151   9.057   4.222   8.273  1.6680 -0.2690 -1.8607
17516SOL     OW59152   8.659   1.285   8.467  0.2135 -0.2455 -0.6599
17516SOL    HW159153   8.741   1.246   8.500  0.9689  1.5834 -0.2705
17516SOL    HW259154   8.592   1.252   8.527  0.6225 -1.8249 -1.0171
17517SOL     OW59155   6.300  10.156   2.236  0.6556 -0.2231  0.7175
17517SOL    HW159156   6.267  10.215   2.304  2.0328  0.5367  0.7804
17517SOL    HW259157   6.266  10.070   2.260 -2.8977  0.7462 -0.3565
17518SOL     OW59158   6.379  10.582  10.763 -0.8188  0.1283 -0.5145
17518SOL    HW159159   6.306  10.625  10.719 -1.3106 -0.8301 -0.6642
17518SOL    HW259160   6.456  10.632  10.736 -1.3013  0.5258 -1.1845
17519SOL     OW59161   3.693   7.513   3.489 -0.5446 -0.2478  0.0378
17519SOL    HW159162   3.642   7.576   3.541 -0.8301 -1.0169  0.7152
17519SOL    HW259163   3.674   7.536   3.399  0.2400  1.3472  0.2388
17520SOL     OW59164   3.638   4.631  12.348 -0.5228 -0.6941  0.0258
17520SOL    HW159165   3.624   4.638  12.254 -3.2374 -0.5888  0.3749
17520SOL    HW259166   3.616   4.718  12.382 -0.5771 -1.0271  0.8624
17521SOL     OW59167   2.598   7.574   9.053 -0.3120  0.1438  0.2030
17521SOL    HW159168   2.527   7.596   8.993  1.0308  0.3726 -1.3958
17521SOL    HW259169   2.597   7.478   9.057 -0.4075  0.1203 -0.2374
17522SOL     OW59170  10.398   5.150  10.053 -0.5484  0.3235  0.0339
17522SOL    HW159171  10.348   5.106  10.122  2.2200  0.6848  2.4364
17522SOL    HW259172  10.394   5.243  10.076  2.0731  0.2726  1.0082
17523SOL     OW59173   3.850  10.656  10.766  0.2569  0.2464 -0.4201
17523SOL    HW159174   3.873  10.749  10.765  2.0544 -0.1805 -1.2693
17523SOL    HW259175   3.754  10.656  10.758 -0.0906  2.0583  2.3092
17524SOL     OW59176   6.741   1.642  10.262  0.6153 -0.2863 -0.0102
17524SOL    HW159177   6.746   1.733  10.293  0.9534 -0.3461  0.1203
17524SOL    HW259178   6.715   1.592  10.339 -0.1690 -0.2287 -0.2265
17525SOL     OW59179  10.528   1.699   2.714  0.1319 -0.3007 -0.2459
17525SOL    HW159180  10.495   1.611   2.696 -1.1073  0.5940 -2.8506
17525SOL    HW259181  10.451   1.745   2.749  0.3996  0.1066 -0.1973
17526SOL     OW59182   4.414   8.043   6.462 -0.3929 -0.4664 -0.3237
17526SOL    HW159183   4.393   8.131   6.494 -0.3000 -0.5319 -0.0808
17526SOL    HW259184   4.482   8.058   6.396 -1.3835 -0.2255 -1.3238
17527SOL     OW59185   9.648  10.799   7.446 -0.1765  0.0520 -0.4103
17527SOL    HW159186   9.694  10.717   7.466 -1.5731 -0.1720  2.3556
17527SOL    HW259187   9.702  10.840   7.378  0.8534 -2.8795 -1.5491
17528SOL     OW59188   2.323   8.490   0.269 -0.5627 -0.3138  0.4861
17528SOL    HW159189   2.270   8.461   0.344 -0.9690 -0.1827  0.2507
17528SOL    HW259190   2.270   8.557   0.227 -0.3568 -0.4229  0.0504
17529SOL     OW59191   9.004  12.337   2.250  0.2811 -0.3841 -0.0347
17529SOL    HW159192   9.064  12.388   2.195  1.6666 -0.2542  1.5331
17529SOL    HW259193   9.061  12.275   2.296 -0.7080  0.0319  1.8297
17530SOL     OW59194   6.346   5.106  10.342 -0.4411 -0.0419  1.0209
17530SOL    HW159195   6.428   5.153  10.325 -0.1600 -0.6423  0.6928
17530SOL    HW259196   6.347   5.088  10.436  1.1237 -2.4419  0.6091
17531SOL     OW59197   3.334   9.494   1.275  0.6775  0.4249  0.1447
17531SOL    HW159198   3.316   9.581   1.308  1.5395  1.2538 -1.4543
17531SOL    HW259199   3.306   9.496   1.184  0.7552 -0.9560  0.0626
17532SOL     OW59200   1.357   5.274  10.631 -0.2200  0.6649  0.1101
17532SOL    HW159201   1.381   5.212  10.700  1.5767  0.4361 -0.6560
17532SOL    HW259202   1.415   5.253  10.558 -0.8991  2.0040 -0.8741
17533SOL     OW59203  12.358   1.926   8.574 -0.5012  0.6238  0.0628
17533SOL    HW159204  12.392   2.010   8.603  0.3211  0.7130 -1.0785
17533SOL    HW259205  12.416   1.900   8.502  0.5077 -1.8914  1.6493
17534SOL     OW59206  12.597   3.391   8.812  0.5071  0.3343 -0.5014
17534SOL    HW159207  12.606   3.306   8.853 -2.7114  0.3503  0.4932
17534SOL    HW259208  12.660   3.447   8.858 -0.1944 -0.5969  1.7072
17535SOL     OW59209  12.345   7.596   2.633 -0.7383 -0.2523 -0.0720
17535SOL    HW159210  12.299   7.670   2.672  1.3515  0.5922  0.9356
17535SOL    HW259211  12.361   7.536   2.706  1.0137  0.1792 -0.0563
17536SOL     OW59212   9.632   6.074   8.488 -0.1947  0.0339 -0.4255
17536SOL    HW159213   9.547   6.039   8.515  0.7718 -1.2478  1.1571
17536SOL    HW259214   9.614   6.123   8.408 -2.6017  0.7287  0.4668
17537SOL     OW59215  12.475   3.924   6.806 -0.2280 -0.5487  0.2771
17537SOL    HW159216  12.424   3.872   6.868 -1.5495  0.7054  0.2846
17537SOL    HW259217  12.448   3.891   6.720 -0.0878 -0.7451  0.3070
17538SOL     OW59218   7.961  11.440   8.723  0.7270 -0.2422 -0.0623
17538SOL    HW159219   7.968  11.534   8.708 -0.1899  0.0889  1.3977
17538SOL    HW259220   8.044  11.416   8.763  1.1486 -0.1605 -0.8660
17539SOL     OW59221   2.407   5.274   6.718  0.0926 -0.5441 -0.2120
17539SOL    HW159222   2.358   5.215   6.660 -1.7531 -1.4618  2.1200
17539SOL    HW259223   2.457   5.215   6.775  0.6001  0.2754  0.2144
17540SOL     OW59224   4.289   4.488   2.914  0.3145  0.6019  0.4872
17540SOL    HW159225   4.373   4.476   2.869  0.4328  0.4911  0.7381
17540SOL    HW259226   4.295   4.574   2.955  0.7452  0.1355  1.4416
17541SOL     OW59227  12.272   2.937   2.738 -0.1808  0.3453 -0.1893
17541SOL    HW159228  12.255   2.880   2.814  0.7458  1.5564  0.9736
17541SOL    HW259229  12.187   2.977   2.719 -0.0701  1.4809  1.4763
17542SOL     OW59230   0.795   7.035  10.068  0.2918 -0.1325  0.4593
17542SOL    HW159231   0.876   7.074  10.103  0.7408 -1.2377  0.6928
17542SOL    HW259232   0.728   7.058  10.133  1.1824 -2.4651  2.3338
17543SOL     OW59233  11.805   6.268  12.612 -0.0897  0.2985 -0.0849
17543SOL    HW159234  11.890   6.309  12.593 -0.3111  0.5612 -0.5177
17543SOL    HW259235  11.741   6.327  12.573 -0.5505  0.6762  1.1948
17544SOL     OW59236   6.649  10.848   6.720 -0.4829  0.5762  0.1374
17544SOL    HW159237   6.658  10.783   6.651 -1.1507  1.2398 -0.5988
17544SOL    HW259238   6.736  10.888   6.727 -0.8188  1.7471 -1.6177
17545SOL     OW59239   5.470   9.050   9.770  0.5057 -0.1732  0.0919
17545SOL    HW159240   5.543   9.064   9.830  1.2114 -0.0116 -0.7790
17545SOL    HW259241   5.483   8.961   9.737 -0.1041 -0.4079  0.4706
17546SOL     OW59242   0.396   7.003   8.192  0.4406 -0.5330  0.0812
17546SOL    HW159243   0.302   6.987   8.187  0.0031  1.4268  0.8858
17546SOL    HW259244   0.414   7.064   8.120  1.0141 -0.5632  0.1921
17547SOL     OW59245   2.139  10.033   7.910 -0.0442  0.0083 -0.5231
17547SOL    HW159246   2.187  10.009   7.830 -1.0545 -0.1684 -1.0939
17547SOL    HW259247   2.150  10.128   7.917  1.2076 -0.1510 -0.0876
17548SOL     OW59248   8.248   0.575   7.105 -0.2685  0.2519 -0.0925
17548SOL    HW159249   8.270   0.504   7.046 -2.2383  0.7030 -1.4735
17548SOL    HW259250   8.163   0.608   7.074 -0.4472  1.8165  1.7830
17549SOL     OW59251   0.746   1.349   9.302 -0.0026 -0.0482 -0.0861
17549SOL    HW159252   0.679   1.398   9.254  1.1016  1.6237 -0.0298
17549SOL    HW259253   0.826   1.362   9.251  1.0148  1.0471  1.7009
17550SOL     OW59254   9.499   5.201   0.350 -0.4828  0.2080  0.0680
17550SOL    HW159255   9.565   5.146   0.392  0.6298  1.2904 -0.2204
17550SOL    HW259256   9.549   5.260   0.293 -1.7321  0.7367 -0.5110
17551SOL     OW59257   3.570   2.473   6.023  0.2059  0.4837 -0.1466
17551SOL    HW159258   3.643   2.414   6.042 -0.6162 -0.4969  0.0431
17551SOL    HW259259   3.595   2.517   5.941  0.6092 -0.4999 -0.5638
17552SOL     OW59260   6.705  11.069  12.010  0.4985 -0.2054 -0.3377
17552SOL    HW159261   6.696  11.032  12.098  1.9408  0.2940  0.0362
17552SOL    HW259262   6.669  11.002  11.952 -1.2578 -0.1955  0.6758
17553SOL     OW59263   7.375  11.504   3.145 -0.0133 -0.3563  0.7606
17553SOL    HW159264   7.281  11.521   3.153 -0.4814 -1.6918 -1.1895
17553SOL    HW259265   7.395  11.444   3.217 -0.6030  0.0847  1.2972
17554SOL     OW59266   2.475   3.432   4.778 -0.1840 -0.2776  0.1913
17554SOL    HW159267   2.409   3.411   4.844 -1.4825  1.4337 -0.5023
17554SOL    HW259268   2.460   3.524   4.756  2.6865  0.2989  0.2546
17555SOL     OW59269   3.569   6.779   5.024  0.4043 -0.3265 -0.4963
17555SOL    HW159270   3.529   6.836   5.089 -1.0886 -1.2568 -0.5493
17555SOL    HW259271   3.663   6.792   5.035  0.1585  0.2131  1.2333
17556SOL     OW59272  10.197  10.338   6.912  0.5406 -0.6005 -0.0206
17556SOL    HW159273  10.187  10.299   6.999 -1.1043  0.7812  0.4576
17556SOL    HW259274  10.284  10.378   6.913  0.3520 -0.1899  1.1751
17557SOL     OW59275   2.047   4.354   3.091 -0.4615 -0.3358  0.9597
17557SOL    HW159276   2.076   4.427   3.035 -0.3477  1.5672  3.3394
17557SOL    HW259277   2.121   4.294   3.093  0.1628  0.4060  0.4609
17558SOL     OW59278   1.028   7.269   0.228  0.8171 -0.6815 -0.0661
17558SOL    HW159279   1.036   7.174   0.236  1.3641 -0.6559 -0.3249
17558SOL    HW259280   1.093   7.304   0.289 -0.1733 -0.4549  0.9123
17559SOL     OW59281   3.045   1.474   3.599 -0.3724  0.4443  0.1700
17559SOL    HW159282   2.955   1.504   3.586  0.0841  1.8203  0.0909
17559SOL    HW259283   3.039   1.411   3.671 -1.4187  0.3946  0.0523
17560SOL     OW59284   5.124   0.670   1.726  0.2054 -0.4433  0.0168
17560SOL    HW159285   5.126   0.742   1.663 -0.1062  0.4267  0.9745
17560SOL    HW259286   5.087   0.708   1.806  0.1429 -1.6349  0.5908
17561SOL     OW59287   5.274  12.245   2.397 -0.4692 -0.0621 -0.2016
17561SOL    HW159288   5.323  12.185   2.453  0.2539  0.6179 -0.0791
17561SOL    HW259289   5.196  12.267   2.448 -0.5635 -0.6078 -0.0994
17562SOL     OW59290   6.704   7.273   8.156  0.1286 -0.1128 -0.0732
17562SOL    HW159291   6.689   7.273   8.250  1.2398  0.2328  0.1309
17562SOL    HW259292   6.797   7.253   8.147  0.4118  1.3936 -0.9997
17563SOL     OW59293   3.318   4.321  11.266 -0.4083  0.6013 -0.2553
17563SOL    HW159294   3.299   4.265  11.191 -0.6706 -1.1223  1.0161
17563SOL    HW259295   3.246   4.304  11.327  1.0819 -0.0577  1.4219
17564SOL     OW59296  10.104   9.507   7.305  0.1382  0.1986 -0.2583
17564SOL    HW159297  10.093   9.420   7.344 -1.2937  1.1398  1.6353
17564SOL    HW259298  10.016   9.531   7.275  0.2843  1.3793  0.1961
17565SOL     OW59299   8.260  12.551   7.420  0.8036  0.0298  0.0921
17565SOL    HW159300   8.317  12.586   7.351  0.3549 -0.2063 -0.4068
17565SOL    HW259301   8.319  12.511   7.483  1.2590  0.7864  0.1521
17566SOL     OW59302  11.893   8.141   1.484  0.1363 -0.1575  0.4430
17566SOL    HW159303  11.960   8.143   1.416 -1.2716  1.0263 -1.0050
17566SOL    HW259304  11.830   8.076   1.453 -0.4810  0.3363  0.6415
17567SOL     OW59305   4.799   7.556  11.929 -0.1601  0.0016  0.2947
17567SOL    HW159306   4.816   7.636  11.879  0.5776  0.4995  1.2944
17567SOL    HW259307   4.708   7.535  11.911 -0.4564  1.2495  0.2611
17568SOL     OW59308   1.512   5.686  10.321 -0.0421 -0.6370  0.1805
17568SOL    HW159309   1.568   5.621  10.363  0.5969  0.2895  0.7882
17568SOL    HW259310   1.572   5.752  10.287 -0.6469 -0.6330 -0.9442
17569SOL     OW59311   3.833   3.987  12.220 -0.3200 -0.1455 -0.8406
17569SOL    HW159312   3.825   4.056  12.287  2.6496 -0.1385 -0.3645
17569SOL    HW259313   3.809   3.907  12.265 -1.0948  0.2062 -0.6047
17570SOL     OW59314  10.411   8.610   8.807  0.1285 -0.2316  0.1592
17570SOL    HW159315  10.381   8.674   8.742  0.8688 -0.5011 -0.4737
17570SOL    HW259316  10.448   8.538   8.754  0.4081 -0.6267  0.8759
17571SOL     OW59317   7.376   3.756   9.379  0.8896  0.0993  0.6071
17571SOL    HW159318   7.360   3.796   9.465  0.6869  0.4830  0.3917
17571SOL    HW259319   7.379   3.829   9.318  0.4640 -0.2163  0.1977
17572SOL     OW59320   1.942   5.709   1.551 -0.0440 -0.5875  0.3052
17572SOL    HW159321   1.873   5.712   1.617 -1.2098  0.4347 -0.8944
17572SOL    HW259322   1.923   5.630   1.500 -0.7697  0.0369 -0.4310
17573SOL     OW59323   8.814   3.951   1.724 -0.4440  0.0255  0.0385
17573SOL    HW159324   8.816   3.863   1.686 -0.9106  0.0622 -0.0790
17573SOL    HW259325   8.889   3.996   1.685  1.7455 -1.2681  2.4698
17574SOL     OW59326  10.339   7.306   8.430 -0.1174 -0.3153 -0.8503
17574SOL    HW159327  10.252   7.345   8.436 -0.6770 -1.3099 -1.9710
17574SOL    HW259328  10.383   7.354   8.361  1.2808  2.0056  1.5010
17575SOL     OW59329   2.582   2.622   0.418  0.4048 -0.0882 -0.2254
17575SOL    HW159330   2.524   2.602   0.344  0.2366 -0.5974  0.0394
17575SOL    HW259331   2.531   2.682   0.471 -0.0804 -0.8953  0.2461
17576SOL     OW59332   7.276   5.706   2.775  0.3883 -0.4101 -0.0732
17576SOL    HW159333   7.196   5.664   2.806 -0.3977  1.2315  0.1756
17576SOL    HW259334   7.319   5.638   2.723 -1.7548 -0.9575 -1.2529
17577SOL     OW59335   4.330   6.736   4.235 -0.2438  0.2725 -0.0337
17577SOL    HW159336   4.395   6.683   4.281  1.4866  1.7783 -0.6384
17577SOL    HW259337   4.372   6.761   4.153 -0.8069  2.8326  0.3565
17578SOL     OW59338   5.398  10.346   0.946  0.5864 -0.2818  0.0521
17578SOL    HW159339   5.374  10.265   0.902 -0.8603  0.7436 -1.1217
17578SOL    HW259340   5.337  10.354   1.018  0.6938 -0.2032  0.1356
17579SOL     OW59341   8.094   5.637   9.919  0.0980 -0.1726 -0.2434
17579SOL    HW159342   8.096   5.687  10.000  0.3873  0.6847 -0.7666
17579SOL    HW259343   8.079   5.702   9.851 -1.8597 -1.0698 -0.7345
17580SOL     OW59344   8.900   9.476   4.944  0.1747 -0.4380  0.1480
17580SOL    HW159345   8.871   9.470   4.853  1.0897  2.2468 -0.3965
17580SOL    HW259346   8.888   9.387   4.978 -1.6205 -1.1792 -2.1171
17581SOL     OW59347   7.809   7.741   2.361 -0.0984  0.0078 -0.0969
17581SOL    HW159348   7.882   7.783   2.315  0.2198 -0.2499  0.1639
17581SOL    HW259349   7.792   7.800   2.435  1.2145 -0.9474  1.0252
17582SOL     OW59350  10.602   2.241  11.672  0.2353  0.3540  0.4854
17582SOL    HW159351  10.557   2.177  11.617 -0.8175  0.4762  1.1817
17582SOL    HW259352  10.623   2.313  11.613  0.0511  0.0280  0.0209
17583SOL     OW59353   3.408   8.692   0.624  0.2206  0.0503  0.0849
17583SOL    HW159354   3.489   8.710   0.672 -0.0614  0.1862  0.5197
17583SOL    HW259355   3.339   8.705   0.689 -0.1797  0.3883 -0.4054
17584SOL     OW59356   8.819   4.100   9.455 -0.3143 -0.0883  0.2894
17584SOL    HW159357   8.804   4.183   9.410 -0.9052 -0.5548 -0.3854
17584SOL    HW259358   8.847   4.126   9.543 -0.7664  0.8317  0.1788
17585SOL     OW59359   3.713   5.762   2.639 -0.5005 -0.3978 -0.1295
17585SOL    HW159360   3.667   5.695   2.690 -0.3328 -1.5880 -1.4799
17585SOL    HW259361   3.685   5.845   2.678 -0.9414 -1.2301  1.4015
17586SOL     OW59362  11.476   2.948   0.506  0.2232 -0.2064 -0.2283
17586SOL    HW159363  11.404   3.008   0.525 -0.6471 -0.6028 -2.0449
17586SOL    HW259364  11.459   2.872   0.561  0.7849  0.7732  1.3561
17587SOL     OW59365   0.955  12.770  11.131  0.2729 -0.0878 -0.9231
17587SOL    HW159366   0.931  12.862  11.133  0.7167  0.0719 -2.0290
17587SOL    HW259367   0.873  12.724  11.109 -0.0884 -0.0271  0.2668
17588SOL     OW59368   5.987  10.498   0.325 -0.2523 -0.2364 -0.0127
17588SOL    HW159369   6.037  10.576   0.302  0.5594 -0.6247  0.4011
17588SOL    HW259370   5.979  10.450   0.243 -0.0271 -0.1254 -0.1007
17589SOL     OW59371   0.660   4.744  12.287 -0.3760 -0.5970  0.1263
17589SOL    HW159372   0.623   4.723  12.201  1.0174 -0.7208 -0.4655
17589SOL    HW259373   0.624   4.830  12.309  0.5294  0.2040 -1.3550
17590SOL     OW59374   4.941   3.582   7.714  0.1328 -0.4739 -0.0675
17590SOL    HW159375   5.004   3.654   7.709 -0.9203  0.4475 -0.3443
17590SOL    HW259376   4.859   3.623   7.739 -0.8132 -1.3707 -1.5169
17591SOL     OW59377   2.759   2.918  12.780 -0.1709  0.7443 -0.4405
17591SOL    HW159378   2.671   2.919  12.816 -0.0863 -0.3353 -0.1662
17591SOL    HW259379   2.780   2.825  12.771  1.7281  0.9274  1.4585
17592SOL     OW59380   1.192  12.697   2.202  0.1242 -0.2161 -0.1691
17592SOL    HW159381   1.220  12.664   2.287  1.8070  1.9993  0.2421
17592SOL    HW259382   1.097  12.689   2.202  0.1344 -0.6621  1.7252
17593SOL     OW59383   2.178   4.427  11.366 -0.0118 -0.4022 -0.5232
17593SOL    HW159384   2.157   4.357  11.427 -0.1280 -0.3486 -0.5005
17593SOL    HW259385   2.272   4.417  11.349  0.0925 -0.2143 -0.0726
17594SOL     OW59386   0.511  10.977  10.634 -0.8253  0.5556 -0.0751
17594SOL    HW159387   0.587  10.942  10.587 -0.5212  0.5535  0.4146
17594SOL    HW259388   0.508  11.069  10.608 -1.5761  0.2159 -1.2969
17595SOL     OW59389  11.169  10.620   5.099 -0.0312 -0.0935  0.6151
17595SOL    HW159390  11.137  10.530   5.111  1.2713 -0.3904  2.2876
17595SOL    HW259391  11.099  10.664   5.050 -1.7812 -1.3674  1.8292
17596SOL     OW59392   2.451  10.577  11.008 -0.2044  0.6305 -0.4312
17596SOL    HW159393   2.373  10.551  10.959  0.4070 -0.7332 -0.7271
17596SOL    HW259394   2.523  10.569  10.945  0.1729  2.0020 -0.1993
17597SOL     OW59395   8.589   5.866  12.779  0.3084  0.1291  0.3494
17597SOL    HW159396   8.603   5.775  12.804 -0.5691 -0.1804 -0.2299
17597SOL    HW259397   8.603   5.867  12.684  0.1073  0.5514  0.3204
17598SOL     OW59398   4.760   7.694  12.639 -0.0462 -0.0066  0.0480
17598SOL    HW159399   4.822   7.733  12.700  0.9599  0.2230 -1.0769
17598SOL    HW259400   4.727   7.767  12.587  1.0140 -0.4566 -1.3374
17599SOL     OW59401   1.488   2.262   6.304  0.5605 -0.0571  0.0686
17599SOL    HW159402   1.533   2.331   6.354 -0.0800  0.7923 -0.5010
17599SOL    HW259403   1.537   2.182   6.324 -0.2606  0.0347  2.8340
17600SOL     OW59404   4.808   4.132   3.078  0.0063  0.0756  0.0777
17600SOL    HW159405   4.738   4.192   3.050  0.6490  1.1379  0.6994
17600SOL    HW259406   4.878   4.189   3.110  0.7559 -1.0041  0.4285
17601SOL     OW59407   1.982   9.989   2.290 -0.0255  0.1009  0.0387
17601SOL    HW159408   1.964   9.993   2.384 -0.3705  1.0657 -0.0547
17601SOL    HW259409   1.959   9.899   2.265 -0.0522 -0.1281  0.8488
17602SOL     OW59410   6.327   2.296   2.929 -0.3757 -0.3177 -0.4809
17602SOL    HW159411   6.257   2.342   2.883 -0.4479 -1.1438 -1.2182
17602SOL    HW259412   6.371   2.364   2.980 -0.1073  0.6907 -1.9953
17603SOL     OW59413   6.097   0.268  12.633  0.5727 -0.2466  0.1620
17603SOL    HW159414   6.133   0.210  12.565 -0.9276  0.1840 -1.0628
17603SOL    HW259415   6.136   0.353  12.614 -0.5074  0.0704 -0.7499
17604SOL     OW59416   4.036  12.146   9.619 -0.0030  0.4972 -0.6014
17604SOL    HW159417   4.127  12.117   9.618  0.3483  1.1550  2.3244
17604SOL    HW259418   4.041  12.241   9.609 -0.2816  0.6229  0.3614
17605SOL     OW59419   0.553   3.504   9.012 -0.3130 -0.4853 -0.9112
17605SOL    HW159420   0.530   3.412   8.994 -0.2837 -0.5946 -0.3975
17605SOL    HW259421   0.619   3.525   8.946 -0.7600 -0.6444 -1.4195
17606SOL     OW59422   9.398   3.781   9.828 -0.1135  0.4036 -0.0324
17606SOL    HW159423   9.474   3.808   9.775  0.3294  0.2212  0.5061
17606SOL    HW259424   9.324   3.788   9.768  0.2893  0.8469 -0.4879
17607SOL     OW59425  10.890   2.292   9.283  0.2807 -0.1843 -0.2270
17607SOL    HW159426  10.908   2.318   9.373 -0.0082  0.4585 -0.3461
17607SOL    HW259427  10.805   2.331   9.263 -0.8230 -2.3454  0.0013
17608SOL     OW59428  11.293   1.460   5.640 -0.6717 -0.0502 -0.8094
17608SOL    HW159429  11.334   1.449   5.726 -0.3309  0.2605 -0.9288
17608SOL    HW259430  11.235   1.536   5.651 -1.1269 -0.4152 -0.6740
17609SOL     OW59431   9.704   1.110   8.335  0.1567 -0.2815  0.0566
17609SOL    HW159432   9.771   1.076   8.276  0.1440 -0.9868  0.4359
17609SOL    HW259433   9.705   1.205   8.321  0.8701 -0.3390 -0.3146
17610SOL     OW59434   9.885   0.927   0.100 -0.0217 -0.7008 -0.5571
17610SOL    HW159435   9.847   0.969   0.022 -0.2564  1.2534  0.5416
17610SOL    HW259436   9.978   0.950   0.096 -0.0972 -0.3048 -0.1007
17611SOL     OW59437   1.510   1.600   9.196 -0.0118  0.0796 -0.5420
17611SOL    HW159438   1.502   1.505   9.200  0.8503  0.0199  0.3394
17611SOL    HW259439   1.594   1.616   9.154 -0.6958  0.4980 -1.8162
17612SOL     OW59440   4.752   2.257   9.509  0.4392  0.5345 -0.1893
17612SOL    HW159441   4.738   2.291   9.421 -0.4904 -0.7632 -0.5810
17612SOL    HW259442   4.664   2.231   9.539  0.9252 -0.3401  0.5490
17613SOL     OW59443   0.186  11.851   2.337  0.0035  0.2116 -0.0693
17613SOL    HW159444   0.147  11.934   2.364 -0.3543  0.0061  0.0518
17613SOL    HW259445   0.209  11.865   2.245  0.1584  0.5222  0.0166
17614SOL     OW59446   2.521   4.017   2.137  0.1586  0.7856 -0.4234
17614SOL    HW159447   2.491   4.038   2.225 -0.7368 -0.4144 -0.4212
17614SOL    HW259448   2.585   3.947   2.148 -1.1011 -0.4810 -0.7913
17615SOL     OW59449   4.084   7.126   9.596  0.4706 -0.3815  0.3402
17615SOL    HW159450   4.094   7.184   9.520 -0.0169  0.9293  1.2353
17615SOL    HW259451   4.082   7.038   9.560 -0.2437  0.2486 -1.2043
17616SOL     OW59452   1.461  12.476   9.239 -0.2132 -0.0514  0.1956
17616SOL    HW159453   1.501  12.555   9.204  0.3863 -0.4375  0.0020
17616SOL    HW259454   1.473  12.482   9.334 -0.4513  0.2377  0.2088
17617SOL     OW59455   5.773  10.308   4.394 -0.6234 -0.0264 -0.3221
17617SOL    HW159456   5.846  10.291   4.454 -0.3398  1.2296 -0.2841
17617SOL    HW259457   5.695  10.281   4.443 -0.4914  1.8355  1.0109
17618SOL     OW59458  10.147   5.768   2.675  0.2904  0.0410  0.2637
17618SOL    HW159459  10.199   5.753   2.753  2.0843  1.4918 -0.5874
17618SOL    HW259460  10.197   5.728   2.604 -1.1917 -1.0560 -0.2186
17619SOL     OW59461  10.216   8.715   6.783 -0.1444 -0.1848 -0.3472
17619SOL    HW159462  10.294   8.666   6.810  0.7042  1.8447  1.1414
17619SOL    HW259463  10.204   8.780   6.852 -2.6924  0.1039 -0.9765
17620SOL     OW59464   1.069   3.124   7.288 -0.0567 -0.0101 -0.1295
17620SOL    HW159465   1.081   3.043   7.337  0.3300  0.7473  1.0537
17620SOL    HW259466   0.974   3.133   7.281 -0.1519  0.3835  1.3771
17621SOL     OW59467   2.626   9.258   6.927 -0.1155  0.3323 -0.1741
17621SOL    HW159468   2.670   9.173   6.939 -0.7586 -0.0271 -0.2994
17621SOL    HW259469   2.616   9.266   6.832  1.4858  1.3643 -0.2880
17622SOL     OW59470   6.742  12.646  10.029  0.5825 -0.1012  0.1889
17622SOL    HW159471   6.710  12.610  10.112  2.4018 -1.4406  0.3819
17622SOL    HW259472   6.785  12.728  10.054  2.0905 -1.0373  0.7914
17623SOL     OW59473   1.648   2.344  12.238 -0.1020 -0.0537 -0.0734
17623SOL    HW159474   1.712   2.385  12.297 -0.3494  1.0947 -0.5619
17623SOL    HW259475   1.570   2.399  12.246 -0.5523 -0.6178 -0.5402
17624SOL     OW59476  10.530  11.836   8.525  0.2580 -0.1756 -0.4964
17624SOL    HW159477  10.476  11.764   8.557  1.6474 -1.3693 -0.7598
17624SOL    HW259478  10.545  11.890   8.603 -1.3679  0.2578 -0.4374
17625SOL     OW59479   8.983   6.827   0.058  0.3129 -0.0437 -0.1451
17625SOL    HW159480   8.986   6.813  -0.036  0.6030 -1.0561 -0.0019
17625SOL    HW259481   8.893   6.803   0.082  0.4948 -0.6497 -0.0505
17626SOL     OW59482   2.427   9.726   6.190 -0.0103 -0.7355  0.1460
17626SOL    HW159483   2.377   9.645   6.201  1.0338 -1.1655  2.0841
17626SOL    HW259484   2.368   9.795   6.220 -0.3988 -0.9165 -0.1876
17627SOL     OW59485  11.968   4.980   9.284  0.0269 -0.1023 -0.3340
17627SOL    HW159486  11.992   5.015   9.198  0.4675  0.7304  0.1277
17627SOL    HW259487  12.051   4.974   9.331 -0.2048 -0.6496  0.0069
17628SOL     OW59488   0.902   3.573   4.250 -0.3657 -0.1947 -0.1057
17628SOL    HW159489   0.926   3.481   4.263  1.2504  0.4063  1.5747
17628SOL    HW259490   0.968   3.606   4.189 -0.8171 -0.0847 -0.5402
17629SOL     OW59491   9.661  11.959   6.701  0.2203  0.2139  0.5492
17629SOL    HW159492   9.583  12.014   6.705  0.6347  0.7761  1.1985
17629SOL    HW259493   9.664  11.915   6.786 -0.1620 -0.9162  0.0040
17630SOL     OW59494   1.619   8.591   7.768 -0.4599 -0.6872  0.2233
17630SOL    HW159495   1.631   8.653   7.840 -1.5223 -0.1026 -0.0676
17630SOL    HW259496   1.637   8.643   7.689 -0.6721 -0.9353  0.0114
17631SOL     OW59497   1.216   0.959   0.153 -0.2432  0.1690 -0.2572
17631SOL    HW159498   1.296   0.918   0.187 -0.7031 -0.7319 -0.2273
17631SOL    HW259499   1.149   0.936   0.217 -0.3681  1.6207  0.1478
17632SOL     OW59500   4.614   3.619   9.751  0.0231 -0.1231  0.1196
17632SOL    HW159501   4.640   3.711   9.750 -0.2138 -0.0046  1.8430
17632SOL    HW259502   4.647   3.584   9.669  1.6644  1.0783  0.2210
17633SOL     OW59503   1.341   7.101   4.690  0.2606 -0.5640  0.1526
17633SOL    HW159504   1.385   7.097   4.775 -0.2429 -1.0831  0.3970
17633SOL    HW259505   1.407   7.070   4.628  1.2400  1.5067  0.0810
17634SOL     OW59506   3.309   6.654  10.048 -0.1523 -0.2325 -0.1024
17634SOL    HW159507   3.354   6.594   9.989  1.5620  0.3592  0.5266
17634SOL    HW259508   3.309   6.610  10.133  0.8863  0.4921  0.3041
17635SOL     OW59509   4.802  12.107   8.400 -0.6567 -0.0471  0.0184
17635SOL    HW159510   4.721  12.075   8.359  0.2416 -1.1022 -1.0192
17635SOL    HW259511   4.805  12.200   8.377 -0.9259 -0.2871 -1.0807
17636SOL     OW59512   7.420   5.174   5.819  0.2271 -0.0433 -0.2348
17636SOL    HW159513   7.427   5.204   5.729  1.7732  0.5390  0.0429
17636SOL    HW259514   7.509   5.147   5.843  0.0520  0.6693  1.3956
17637SOL     OW59515   4.969   3.866   5.483  0.5349  0.0508 -0.2511
17637SOL    HW159516   4.875   3.869   5.504  0.6021 -0.7840  0.2071
17637SOL    HW259517   4.980   3.785   5.433  0.8940  0.5268 -0.9634
17638SOL     OW59518   9.151   8.781   5.010 -0.0637 -0.3098 -0.2399
17638SOL    HW159519   9.200   8.720   4.955 -0.9900 -0.5196 -0.8454
17638SOL    HW259520   9.117   8.727   5.081  2.2882  0.1955  1.3794
17639SOL     OW59521   9.553   7.762   1.130 -0.2422  0.6789  0.4463
17639SOL    HW159522   9.572   7.761   1.036 -0.7211  0.7024  0.3443
17639SOL    HW259523   9.457   7.762   1.134 -0.2194  0.9486  0.9328
17640SOL     OW59524   3.426  10.558   0.936  0.2760  0.1755  0.0350
17640SOL    HW159525   3.423  10.469   0.901 -0.9013  0.1932  0.0589
17640SOL    HW259526   3.515  10.587   0.918  1.3933 -1.7558  1.9362
17641SOL     OW59527  12.273   7.708   1.900 -0.2190  0.1866 -0.7094
17641SOL    HW159528  12.184   7.699   1.935 -0.4476 -0.7801 -1.4929
17641SOL    HW259529  12.302   7.794   1.930 -0.3270 -0.6145  2.0040
17642SOL     OW59530   0.710   0.363  10.173  0.2733  0.7017  0.1817
17642SOL    HW159531   0.796   0.328  10.152 -0.3005 -0.5068 -0.2445
17642SOL    HW259532   0.728   0.438  10.230  1.5563 -0.3991  1.3048
17643SOL     OW59533  11.789   4.732   6.406 -0.0858 -0.2391 -0.4112
17643SOL    HW159534  11.771   4.759   6.496  0.1258 -0.9991 -0.1384
17643SOL    HW259535  11.851   4.660   6.414  0.6872  0.3146 -1.2112
17644SOL     OW59536   0.655   4.047   5.858 -0.1729 -0.3984 -0.0013
17644SOL    HW159537   0.656   3.951   5.867  0.3840 -0.2640  1.7284
17644SOL    HW259538   0.562   4.069   5.850 -0.2301 -1.1965 -2.5072
17645SOL     OW59539  11.118  11.078   5.932 -0.6718 -0.2569 -0.0713
17645SOL    HW159540  11.083  11.014   5.993  0.7208  0.6600  1.8213
17645SOL    HW259541  11.048  11.142   5.921 -0.9992 -0.5228  0.4544
17646SOL     OW59542   2.168   0.826  10.691 -0.6097 -0.1520 -0.1821
17646SOL    HW159543   2.158   0.738  10.727  0.3862 -0.4115 -0.5285
17646SOL    HW259544   2.234   0.868  10.746 -0.4189  0.0721 -0.5776
17647SOL     OW59545   7.056   4.950   4.120  0.0480  0.4701  0.4376
17647SOL    HW159546   7.013   4.966   4.037  1.1763  0.0527 -0.2472
17647SOL    HW259547   7.054   4.854   4.131  2.5273  0.2116 -0.6228
17648SOL     OW59548   9.643   1.476   5.730  0.0075 -0.7265  0.1072
17648SOL    HW159549   9.695   1.409   5.776 -1.5572 -1.4124  0.9757
17648SOL    HW259550   9.593   1.426   5.666 -0.8240 -0.3255  0.4416
17649SOL     OW59551  11.677   9.768   8.241  0.5142  0.5266 -0.0383
17649SOL    HW159552  11.679   9.827   8.316  0.9234 -1.1591  1.3067
17649SOL    HW259553  11.769   9.748   8.223  0.4557  1.2083 -1.2763
17650SOL     OW59554  11.390   4.439   2.112  0.0580 -0.2174  0.0314
17650SOL    HW159555  11.335   4.512   2.083 -1.0208 -0.7550  0.6766
17650SOL    HW259556  11.386   4.376   2.041  0.6696  0.1600 -0.3533
17651SOL     OW59557   4.447  12.714   4.678  0.0537  0.2449 -0.0191
17651SOL    HW159558   4.462  12.795   4.631 -0.3178 -0.0173 -0.6022
17651SOL    HW259559   4.453  12.738   4.771  0.7095  0.7763 -0.1954
17652SOL     OW59560  11.718  12.110   8.335  0.6765  0.3451 -0.3550
17652SOL    HW159561  11.800  12.159   8.327  1.0681 -0.3350 -0.6229
17652SOL    HW259562  11.667  12.136   8.258  0.6771  0.7168 -0.2278
17653SOL     OW59563   8.834   8.959   6.360  0.3553  0.2231  0.3389
17653SOL    HW159564   8.885   8.936   6.438 -0.5285 -0.7488  0.6544
17653SOL    HW259565   8.796   9.045   6.381  1.9656  1.0393  0.0268
17654SOL     OW59566   8.363   7.873   5.593  0.0016 -0.4421  0.3285
17654SOL    HW159567   8.294   7.871   5.527 -0.3009  0.6064  0.5819
17654SOL    HW259568   8.333   7.940   5.655  0.9739 -0.3797  0.7389
17655SOL     OW59569   2.748   6.156   4.056 -0.5467 -0.2764 -0.4047
17655SOL    HW159570   2.780   6.175   3.968  0.7181  0.5553  0.2072
17655SOL    HW259571   2.718   6.241   4.089 -0.9174 -0.5601  0.0042
17656SOL     OW59572   7.472  10.051   6.320  0.7317 -0.0332  0.6763
17656SOL    HW159573   7.473  10.082   6.411  1.6921 -1.8798  1.3601
17656SOL    HW259574   7.409   9.979   6.320 -1.0139  1.4130 -0.7210
17657SOL     OW59575  10.408  12.453   8.881  0.1835  0.5921  0.6034
17657SOL    HW159576  10.400  12.410   8.966  2.4391  2.3734  1.8320
17657SOL    HW259577  10.502  12.450   8.862  0.0804  2.6078 -0.5028
17658SOL     OW59578   1.183   3.871   8.577 -0.4674 -0.2313 -0.3350
17658SOL    HW159579   1.195   3.926   8.654  0.8063 -0.3916 -0.3936
17658SOL    HW259580   1.089   3.853   8.575 -0.3771 -1.2200  1.8609
17659SOL     OW59581   8.656   8.650   1.288  0.0557 -0.5783  0.1235
17659SOL    HW159582   8.686   8.714   1.352 -1.1460  0.4088 -0.2511
17659SOL    HW259583   8.564   8.636   1.309 -0.8817  1.0983 -2.3497
17660SOL     OW59584  11.898   7.959   7.691 -0.3191  0.2214 -0.0509
17660SOL    HW159585  11.912   8.052   7.670 -0.4965  0.1987 -0.2714
17660SOL    HW259586  11.918   7.952   7.785 -1.7074  0.7684  0.3054
17661SOL     OW59587   4.294   4.259   2.561  0.5546  0.1290  0.7522
17661SOL    HW159588   4.236   4.209   2.619  0.2093  1.3764  1.5158
17661SOL    HW259589   4.250   4.343   2.550  1.3359  0.4328 -0.1742
17662SOL     OW59590   8.579   7.195  10.917 -0.5826 -0.0570  0.2823
17662SOL    HW159591   8.654   7.154  10.873 -0.3952 -0.7711  1.2324
17662SOL    HW259592   8.585   7.287  10.892  0.1940 -0.2300 -0.2386
17663SOL     OW59593  12.341   9.080   1.755  0.6716 -0.2286 -0.3488
17663SOL    HW159594  12.422   9.129   1.767  0.2250  0.4985 -0.2065
17663SOL    HW259595  12.272   9.140   1.784 -0.0147 -0.3851 -1.5845
17664SOL     OW59596   7.082   3.798  10.934 -0.0850 -0.6340  0.6588
17664SOL    HW159597   7.129   3.869  10.978 -1.2354 -0.1363  1.1262
17664SOL    HW259598   7.005   3.840  10.896  2.0501 -0.4510 -4.2389
17665SOL     OW59599   6.736   7.905   4.982  0.0493 -0.1114 -0.2082
17665SOL    HW159600   6.725   7.946   4.896 -1.1796 -0.5187 -0.2778
17665SOL    HW259601   6.651   7.917   5.024  0.1145 -1.3448  0.3075
17666SOL     OW59602   6.685   8.438   3.493 -0.0705  0.0434 -0.3241
17666SOL    HW159603   6.702   8.505   3.559  2.1309 -0.5188 -0.2205
17666SOL    HW259604   6.730   8.360   3.526 -2.7878 -1.6432 -0.3021
17667SOL     OW59605   9.418   0.190   1.890 -0.4445  0.1196  0.6819
17667SOL    HW159606   9.492   0.145   1.930  0.1183 -0.4367 -0.9138
17667SOL    HW259607   9.428   0.281   1.918  1.0979  0.1423  0.1750
17668SOL     OW59608   3.988  11.754  12.322  0.0395  0.4871  0.0211
17668SOL    HW159609   4.078  11.786  12.316 -0.1236  1.0171  0.3551
17668SOL    HW259610   3.993  11.662  12.295  1.0041 -0.0279  1.7482
17669SOL     OW59611  10.048   8.296   8.717  0.0405 -0.1796 -0.2947
17669SOL    HW159612  10.080   8.206   8.722  0.9110  0.0041 -1.8899
17669SOL    HW259613  10.085   8.338   8.795 -0.8700 -1.2995  0.8045
17670SOL     OW59614   9.532   0.473   1.652 -0.7396 -0.4734 -0.9388
17670SOL    HW159615   9.460   0.536   1.659 -0.6847 -0.1059 -3.0417
17670SOL    HW259616   9.579   0.481   1.735 -1.6434  1.1504 -0.5410
17671SOL     OW59617   9.939   6.471   7.691  0.5388 -0.4015  0.4327
17671SOL    HW159618   9.893   6.478   7.775 -1.3620 -1.6657 -0.4271
17671SOL    HW259619   9.990   6.390   7.700  0.2454 -0.6003  0.3637
17672SOL     OW59620  10.725   3.117   2.719 -0.0582 -0.4853  0.5690
17672SOL    HW159621  10.809   3.162   2.721  0.0704 -0.7377  0.8137
17672SOL    HW259622  10.747   3.024   2.714 -0.3037 -0.6469  2.0781
17673SOL     OW59623   7.442  11.292   8.582 -0.0559  0.7365 -0.0279
17673SOL    HW159624   7.401  11.224   8.529  2.6430  0.5370 -2.1051
17673SOL    HW259625   7.495  11.245   8.646 -0.5631  0.9510  0.5607
17674SOL     OW59626   1.225   2.116   6.810  0.1007 -0.5489 -0.1707
17674SOL    HW159627   1.232   2.025   6.783 -0.8073 -0.6608 -0.0581
17674SOL    HW259628   1.238   2.114   6.905 -0.1744 -0.5915 -0.1345
17675SOL     OW59629   9.454   9.205   7.770  0.3865  0.1875  0.8271
17675SOL    HW159630   9.375   9.170   7.729 -0.0706  0.7362  1.2220
17675SOL    HW259631   9.484   9.274   7.711 -1.0710  1.9610  2.0250
17676SOL     OW59632  12.392   9.344   5.436  0.2977 -0.0745 -0.0583
17676SOL    HW159633  12.360   9.260   5.470 -0.2500 -0.3966 -1.3146
17676SOL    HW259634  12.487   9.332   5.432  0.3458 -0.1398  1.0278
17677SOL     OW59635   6.850  12.275   0.032 -0.5086 -0.0964  0.0930
17677SOL    HW159636   6.763  12.238   0.019  0.0737 -1.2591 -0.6150
17677SOL    HW259637   6.845  12.362  -0.009 -1.0258 -0.5784 -0.9101
17678SOL     OW59638   5.685   9.731  11.372  0.1673  0.2792 -0.3463
17678SOL    HW159639   5.653   9.641  11.362 -0.8208  0.3851  1.4394
17678SOL    HW259640   5.606   9.783  11.389  0.8900  1.2044  0.3375
17679SOL     OW59641   1.727   7.154   7.844 -0.6789 -0.0754 -0.1316
17679SOL    HW159642   1.693   7.237   7.878 -2.5186 -0.7605 -0.1690
17679SOL    HW259643   1.690   7.148   7.756 -0.9166 -1.1233  0.0310
17680SOL     OW59644   8.511   3.527  11.733 -0.1862  0.4671  0.1438
17680SOL    HW159645   8.525   3.574  11.816 -0.6072  0.7082  0.0808
17680SOL    HW259646   8.419   3.541  11.713 -0.1462  0.1952 -0.2385
17681SOL     OW59647  11.132   5.271  12.484 -0.3998 -0.3156 -0.0479
17681SOL    HW159648  11.096   5.252  12.397  1.1439 -2.8440 -0.2254
17681SOL    HW259649  11.227   5.266  12.472 -0.1646 -1.1915  1.8556
17682SOL     OW59650   7.289   8.598  11.571 -0.1886 -0.3107  0.3310
17682SOL    HW159651   7.381   8.593  11.545 -0.3279 -1.7461  0.0159
17682SOL    HW259652   7.266   8.690  11.560  1.1418  0.0237  0.1846
17683SOL     OW59653   2.205   5.144   7.087 -0.1532 -0.1544  0.2184
17683SOL    HW159654   2.293   5.107   7.084 -0.8454 -2.2292  2.4909
17683SOL    HW259655   2.149   5.078   7.046 -0.8258  0.6515 -0.2085
17684SOL     OW59656   8.890  12.523   7.553  0.2541  0.7817  0.1823
17684SOL    HW159657   8.968  12.551   7.602  0.2869  3.8131 -1.3587
17684SOL    HW259658   8.925  12.483   7.473  0.1743 -2.8389  1.7780
17685SOL     OW59659   7.379  12.405   8.768 -0.2264  0.4377  0.2778
17685SOL    HW159660   7.458  12.382   8.718  0.5340  0.2804  1.5092
17685SOL    HW259661   7.307  12.391   8.707  0.8028  2.7395 -1.6368
17686SOL     OW59662  10.476   5.008   0.525  0.6044 -0.4469 -0.2657
17686SOL    HW159663  10.515   4.929   0.562  0.1831 -0.0667  1.0437
17686SOL    HW259664  10.421   4.977   0.453 -1.5000 -1.6458  1.7509
17687SOL     OW59665   3.953   7.210   8.593 -0.6393  0.6537  0.2176
17687SOL    HW159666   3.867   7.248   8.610 -0.6207  0.8574 -0.1301
17687SOL    HW259667   4.014   7.268   8.639 -0.6656  0.6749  0.2258
17688SOL     OW59668   2.564   1.772   0.701  0.3434 -0.3314 -0.0755
17688SOL    HW159669   2.497   1.718   0.743  1.6560 -1.7615  0.2727
17688SOL    HW259670   2.517   1.848   0.668 -1.2035 -0.5655  1.4738
17689SOL     OW59671   1.058   6.610   8.938 -0.3739 -0.3229 -0.0052
17689SOL    HW159672   1.009   6.547   8.991  0.2913 -0.1211  0.8754
17689SOL    HW259673   1.009   6.692   8.947 -2.1578 -1.0018 -2.4471
17690SOL     OW59674   5.861   4.505   6.762  0.2492  0.0493  0.1767
17690SOL    HW159675   5.860   4.590   6.718  2.2086 -0.5141 -1.0909
17690SOL    HW259676   5.813   4.447   6.703  1.4346 -0.3376 -0.4374
17691SOL     OW59677   8.852  11.553  10.823 -0.2971 -0.2882 -0.5066
17691SOL    HW159678   8.927  11.515  10.777  0.9736  0.7541  0.6299
17691SOL    HW259679   8.848  11.504  10.906 -1.6597 -1.1647 -1.0588
17692SOL     OW59680  12.104   8.582   8.514 -0.3569  0.1101 -0.8912
17692SOL    HW159681  12.068   8.522   8.448 -0.1874 -1.1406  0.1258
17692SOL    HW259682  12.086   8.540   8.598 -0.7613  1.7755 -0.0848
17693SOL     OW59683   3.863   8.112  11.307 -0.2813  0.1521  0.6246
17693SOL    HW159684   3.834   8.047  11.371  1.0160 -2.0627 -0.8807
17693SOL    HW259685   3.850   8.069  11.222  2.7105  0.8874 -0.3441
17694SOL     OW59686   1.336   1.585  11.400  0.2526 -0.1904  0.8424
17694SOL    HW159687   1.402   1.643  11.362  0.5386 -1.6242 -0.9989
17694SOL    HW259688   1.276   1.567  11.328 -0.7009 -0.9424  1.7944
17695SOL     OW59689  12.648  10.845   3.436  0.5777  0.5761 -0.0128
17695SOL    HW159690  12.577  10.908   3.433 -0.2922 -0.3944 -0.5624
17695SOL    HW259691  12.682  10.843   3.346  0.2888 -0.0603 -0.1158
17696SOL     OW59692   8.056   2.346   2.656 -0.8736  0.7424 -0.0055
17696SOL    HW159693   8.068   2.406   2.583 -0.9625 -1.3694 -1.8277
17696SOL    HW259694   8.141   2.303   2.667 -0.2740  2.3237  2.4475
17697SOL     OW59695   4.842   8.111   3.442  0.2168  0.0724 -0.3222
17697SOL    HW159696   4.778   8.096   3.512  0.4212 -1.2836 -0.3992
17697SOL    HW259697   4.920   8.142   3.487  0.4566 -1.1025  0.1128
17698SOL     OW59698   5.487   1.052   7.553  0.7352  0.3158  0.5478
17698SOL    HW159699   5.507   1.112   7.624 -2.5930  2.0361  0.2332
17698SOL    HW259700   5.412   1.000   7.584  0.0318  0.2067 -1.1634
17699SOL     OW59701   6.072  11.724   2.344 -0.3573  0.7676  0.6595
17699SOL    HW159702   6.087  11.672   2.265 -1.4583 -2.4229  2.3784
17699SOL    HW259703   6.021  11.799   2.314  0.8721  0.6854 -1.8979
17700SOL     OW59704   0.632   2.391   7.339  0.7302  0.4180 -0.2984
17700SOL    HW159705   0.611   2.414   7.429 -2.0878 -1.4105 -0.3547
17700SOL    HW259706   0.592   2.461   7.286 -0.7700 -0.3176 -0.1933
17701SOL     OW59707   8.034   4.499   0.773  0.8139  0.3776 -0.7208
17701SOL    HW159708   8.034   4.479   0.680 -1.3348 -0.1456 -0.6706
17701SOL    HW259709   8.060   4.417   0.815  0.8809  0.3377 -0.8404
17702SOL     OW59710   5.302   3.636  12.187 -0.2713  0.4713 -0.0783
17702SOL    HW159711   5.379   3.644  12.131  0.2278  1.1455  0.6671
17702SOL    HW259712   5.227   3.647  12.128  0.2112  0.0321 -0.7732
17703SOL     OW59713   0.131   0.610   9.323 -0.0510 -0.2888  0.0668
17703SOL    HW159714   0.087   0.695   9.328  1.0590  0.2701  0.5524
17703SOL    HW259715   0.212   0.621   9.373  0.5523 -1.3563 -0.6279
17704SOL     OW59716  10.328  11.449   7.233 -0.4483  0.0784  0.4389
17704SOL    HW159717  10.236  11.469   7.215 -0.0330  1.3569 -0.4224
17704SOL    HW259718  10.373  11.533   7.223  0.9944 -0.7496 -0.3801
17705SOL     OW59719  12.190   7.122   7.449 -0.9219  0.0433  0.3902
17705SOL    HW159720  12.156   7.209   7.432  0.4409  0.6478  0.6227
17705SOL    HW259721  12.176   7.073   7.368  2.2275  1.7965 -1.3935
17706SOL     OW59722   0.855   1.625  10.599  0.0934  0.1056  0.6644
17706SOL    HW159723   0.822   1.550  10.649  0.0861 -0.2743  0.1056
17706SOL    HW259724   0.781   1.653  10.545  0.8926 -1.3916 -1.3554
17707SOL     OW59725   1.813   2.366   6.072  0.0855 -0.0215  0.0369
17707SOL    HW159726   1.806   2.414   6.154  0.6449 -2.5866  1.6980
17707SOL    HW259727   1.730   2.318   6.065  0.5725 -0.8614 -0.1640
17708SOL     OW59728   1.200   9.299  11.815 -0.4069  0.3145 -0.1594
17708SOL    HW159729   1.143   9.232  11.852  0.0973  0.4417  0.8926
17708SOL    HW259730   1.142   9.373  11.798 -0.7436  0.0604 -0.1355
17709SOL     OW59731   0.918  12.296  11.946 -0.3010 -0.7874  0.0487
17709SOL    HW159732   0.868  12.375  11.926 -1.4227 -1.2740  0.7933
17709SOL    HW259733   1.008  12.318  11.924 -0.4393  1.0007  1.0599
17710SOL     OW59734   7.658   9.709   8.945 -0.0973  0.3781  0.0610
17710SOL    HW159735   7.717   9.687   9.017 -2.2691  0.9821  2.1615
17710SOL    HW259736   7.577   9.738   8.988 -1.0784  2.0208 -2.6169
17711SOL     OW59737   0.695   6.426   3.276  0.6859  0.2283  0.4185
17711SOL    HW159738   0.791   6.427   3.281  0.8203 -0.0186 -1.3628
17711SOL    HW259739   0.675   6.347   3.227 -0.3707  0.7900 -0.0744
17712SOL     OW59740   9.695   7.888   1.328 -0.0071  0.2785  0.2173
17712SOL    HW159741   9.637   7.855   1.260 -0.3568  0.1339  0.5771
17712SOL    HW259742   9.717   7.811   1.381  0.1539  0.4113  0.3470
17713SOL     OW59743  11.661   1.320   2.622  0.1593 -0.7514  0.2531
17713SOL    HW159744  11.750   1.296   2.647 -0.0027 -0.5518  1.0659
17713SOL    HW259745  11.630   1.247   2.568  0.6533 -1.0363  0.3501
17714SOL     OW59746  11.719   9.645   0.419  0.3176  0.7216 -0.0738
17714SOL    HW159747  11.629   9.649   0.389  0.6298  0.9039 -1.0044
17714SOL    HW259748  11.772   9.651   0.339  1.1349 -0.5728  0.3327
17715SOL     OW59749   9.352  11.408   3.881  0.3819 -0.2347  0.0661
17715SOL    HW159750   9.271  11.365   3.852  0.6799 -0.7481 -0.0084
17715SOL    HW259751   9.378  11.359   3.959  1.0220 -0.5363 -0.3348
17716SOL     OW59752   3.394   5.376   9.782  0.8549 -0.0256 -0.0904
17716SOL    HW159753   3.302   5.356   9.762  1.3192 -1.6976 -0.7930
17716SOL    HW259754   3.417   5.313   9.850  1.3797  0.6386  0.3452
17717SOL     OW59755  11.571   6.503  12.741 -0.0236  0.3975  0.4329
17717SOL    HW159756  11.630   6.544  12.804 -0.5305  2.1028 -0.1381
17717SOL    HW259757  11.484   6.520  12.776 -0.2422 -0.6305  0.4089
17718SOL     OW59758   7.732   2.750  10.669  0.0946 -1.0372  0.3727
17718SOL    HW159759   7.734   2.772  10.576  0.6409 -1.8542  0.1868
17718SOL    HW259760   7.820   2.718  10.689  0.3366  0.1526  1.4418
17719SOL     OW59761   5.398  11.425   4.331 -0.8286 -0.5484  0.1491
17719SOL    HW159762   5.441  11.413   4.246 -0.5604  1.2009  0.0116
17719SOL    HW259763   5.434  11.355   4.386  0.7722 -0.2695 -0.5039
17720SOL     OW59764   8.211   7.907   3.038  0.7629  0.5262 -0.3418
17720SOL    HW159765   8.247   7.976   2.982  1.3651  0.2595 -0.2886
17720SOL    HW259766   8.187   7.837   2.978 -1.3396  1.3802 -0.5785
17721SOL     OW59767   4.376   8.651   7.802 -0.3206  0.1685  0.1325
17721SOL    HW159768   4.298   8.630   7.852 -0.3053 -1.2698 -0.4032
17721SOL    HW259769   4.345   8.663   7.712  0.0237 -0.0615 -0.0218
17722SOL     OW59770   8.259   7.752   7.336 -1.1303 -0.6683 -0.3455
17722SOL    HW159771   8.354   7.742   7.344 -0.9111 -0.1039 -1.9910
17722SOL    HW259772   8.244   7.770   7.244 -2.8599 -0.8031 -0.1228
17723SOL     OW59773   9.871   8.185   4.220 -0.2558 -0.8658 -0.1869
17723SOL    HW159774   9.897   8.200   4.311  0.0175 -1.7174 -0.1216
17723SOL    HW259775   9.883   8.271   4.178 -0.6614 -0.3909  0.6330
17724SOL     OW59776   3.210   2.018  10.541 -0.0016 -0.4926  0.0516
17724SOL    HW159777   3.180   1.942  10.592 -1.8023  0.0279 -0.1653
17724SOL    HW259778   3.177   2.001  10.452 -0.0408  0.3342 -0.0949
17725SOL     OW59779   2.746  11.875   9.791 -0.2224 -0.0935 -0.1835
17725SOL    HW159780   2.724  11.817   9.863  2.0341 -1.1812 -0.2952
17725SOL    HW259781   2.791  11.949   9.831  0.1991 -0.2349 -0.3949
17726SOL     OW59782   9.858   2.462   2.720 -0.3040 -0.1312 -0.0516
17726SOL    HW159783   9.790   2.397   2.734 -1.3261  0.9704  0.2875
17726SOL    HW259784   9.939   2.412   2.712 -1.1350 -1.4579 -0.3229
17727SOL     OW59785   4.392  12.193   6.444  0.2153  0.1933 -0.6331
17727SOL    HW159786   4.312  12.142   6.456 -0.1148  0.7795 -0.2929
17727SOL    HW259787   4.452  12.160   6.510  0.0908  0.0712 -0.5820
17728SOL     OW59788  12.578   3.620   5.181  0.2418 -0.0853  0.0477
17728SOL    HW159789  12.517   3.613   5.254 -0.8232 -0.6150 -0.8791
17728SOL    HW259790  12.608   3.712   5.184  0.1291 -0.0707  1.0600
17729SOL     OW59791   3.156   1.406  11.270 -0.5007 -0.0278  0.0570
17729SOL    HW159792   3.117   1.487  11.304 -0.3741  0.0556  0.0098
17729SOL    HW259793   3.185   1.430  11.181 -0.9294 -0.2752 -0.1498
17730SOL     OW59794   3.488   2.263  10.868 -0.1450  0.0696 -0.4103
17730SOL    HW159795   3.538   2.326  10.817  0.9330 -0.5085 -0.1029
17730SOL    HW259796   3.502   2.290  10.959 -0.0397 -0.3402 -0.3030
17731SOL     OW59797  11.613   7.912   5.677  0.2138  0.1508 -0.3784
17731SOL    HW159798  11.575   7.857   5.745 -0.3366  0.6707 -0.2604
17731SOL    HW259799  11.655   7.983   5.724  0.7380 -0.0444 -0.5411
17732SOL     OW59800   5.983   1.768  11.348  0.0142  0.2865 -0.1339
17732SOL    HW159801   5.902   1.818  11.343 -0.5971 -0.7064 -0.4851
17732SOL    HW259802   5.961   1.684  11.308  0.7980 -0.5302  1.0886
17733SOL     OW59803   3.448  12.060   4.879  0.5540  0.6648 -0.5804
17733SOL    HW159804   3.480  12.149   4.895 -0.9839  1.0874  0.4114
17733SOL    HW259805   3.353  12.070   4.872  0.1568 -1.1046  1.2767
17734SOL     OW59806   7.315   6.301   1.640  0.5098 -0.0353  0.0397
17734SOL    HW159807   7.288   6.245   1.567  1.1442  0.4910 -0.6149
17734SOL    HW259808   7.244   6.363   1.651  0.7339  0.3463 -0.6243
17735SOL     OW59809   6.161   6.104   7.175  0.1105  0.5203 -0.1805
17735SOL    HW159810   6.178   6.124   7.084 -0.4997  0.9568 -0.2034
17735SOL    HW259811   6.167   6.188   7.221 -1.4841  0.6429 -0.1292
17736SOL     OW59812   2.860   9.766  12.751 -0.0043 -0.0816  0.3197
17736SOL    HW159813   2.876   9.775  12.657 -1.5080 -0.6838 -0.0135
17736SOL    HW259814   2.771   9.799  12.763 -0.9018 -2.5914  1.0702
17737SOL     OW59815   0.837   2.601   5.940 -0.0389 -0.4007 -0.3502
17737SOL    HW159816   0.930   2.616   5.923 -0.3475  0.9028 -0.9652
17737SOL    HW259817   0.792   2.645   5.869 -1.2018  0.7749  1.0515
17738SOL     OW59818   4.229  12.272   6.085  0.7334 -0.6101  0.1833
17738SOL    HW159819   4.198  12.185   6.111  1.2680 -0.6529  0.7007
17738SOL    HW259820   4.190  12.332   6.149  0.6629 -0.5119  0.0481
17739SOL     OW59821   7.732  10.214  10.243 -0.2067 -0.3563  0.2060
17739SOL    HW159822   7.730  10.122  10.218  0.2100 -0.4661  0.5599
17739SOL    HW259823   7.790  10.217  10.319  1.0943  0.4276 -0.7798
17740SOL     OW59824  10.720   3.141   3.323  0.2484  0.6315  0.7515
17740SOL    HW159825  10.631   3.127   3.290  0.8279 -0.0214 -0.6100
17740SOL    HW259826  10.730   3.236   3.327  0.0487  0.7348 -0.7438
17741SOL     OW59827  11.844   8.220   5.486  0.7111 -0.0531  0.7787
17741SOL    HW159828  11.875   8.310   5.481  2.0685 -0.4869  0.8830
17741SOL    HW259829  11.749   8.226   5.474  0.9295  1.2585 -0.6215
17742SOL     OW59830   9.511   6.721   4.799 -0.7888  0.4508 -0.7986
17742SOL    HW159831   9.542   6.709   4.709  1.9128  0.9585 -0.0244
17742SOL    HW259832   9.489   6.814   4.804  1.7573  1.0950 -0.2608
17743SOL     OW59833   2.389   5.606   0.495  0.3740  0.4848 -0.0524
17743SOL    HW159834   2.481   5.588   0.474  0.1479 -0.0075 -0.6787
17743SOL    HW259835   2.371   5.689   0.452 -0.0665 -0.4840 -1.8688
17744SOL     OW59836   3.793   0.490   1.126 -0.0921  0.1633 -0.2041
17744SOL    HW159837   3.729   0.549   1.165 -0.3869 -0.3821  0.1587
17744SOL    HW259838   3.789   0.507   1.032 -1.3877 -0.4703 -0.2744
17745SOL     OW59839   8.023  12.603   5.678  0.4311  0.2748 -0.0885
17745SOL    HW159840   8.104  12.652   5.662  0.2118  0.3321 -1.0662
17745SOL    HW259841   7.955  12.669   5.685  0.3751  0.1946  0.1253
17746SOL     OW59842   7.640   8.105   0.476 -0.2190 -0.0596 -0.2238
17746SOL    HW159843   7.692   8.055   0.539 -0.4385  1.6048  1.3818
17746SOL    HW259844   7.597   8.039   0.422  0.2249 -1.5651  1.1798
17747SOL     OW59845   3.450   9.819   9.873 -0.1319  0.0646  0.4772
17747SOL    HW159846   3.398   9.899   9.875 -0.4680 -0.0738 -1.3478
17747SOL    HW259847   3.413   9.768   9.801  3.0893  0.3753 -1.6288
17748SOL     OW59848   9.816  10.949   7.257  0.1420 -0.7496  0.2531
17748SOL    HW159849   9.885  10.904   7.208  1.6240  1.8155 -0.1929
17748SOL    HW259850   9.863  11.012   7.311 -1.8304  0.6740  0.4062
17749SOL     OW59851   9.223  12.604  12.373  0.4119  0.1627 -0.0703
17749SOL    HW159852   9.300  12.554  12.346  0.0754 -1.2870  1.4839
17749SOL    HW259853   9.149  12.558  12.332  0.0421 -1.0916  1.8890
17750SOL     OW59854   7.355  11.303   4.800 -0.0047 -0.4046 -0.4754
17750SOL    HW159855   7.370  11.396   4.820 -1.7883 -0.6000  2.3021
17750SOL    HW259856   7.297  11.304   4.724  1.0955  0.6631 -1.3562
17751SOL     OW59857   6.096   9.006  12.680  0.1814 -0.1417  0.0074
17751SOL    HW159858   6.136   9.092  12.687  1.0386 -0.3399 -1.8857
17751SOL    HW259859   6.112   8.979  12.589 -0.3582 -2.1508  0.4595
17752SOL     OW59860  10.521   1.383   4.905  0.1880 -0.3418  0.9214
17752SOL    HW159861  10.558   1.465   4.871 -0.3874 -0.8274 -1.0124
17752SOL    HW259862  10.433   1.407   4.935  0.1255 -0.1913  0.6246
17753SOL     OW59863   4.645   5.228   2.533 -0.3837 -0.0174 -0.0926
17753SOL    HW159864   4.642   5.322   2.514 -0.8463 -0.0646 -0.2708
17753SOL    HW259865   4.594   5.218   2.614 -0.1358 -0.0822  0.0542
17754SOL     OW59866   3.514   8.090   3.722 -0.7711  0.6026  0.2650
17754SOL    HW159867   3.580   8.100   3.790 -0.6190 -0.5292  0.3106
17754SOL    HW259868   3.563   8.099   3.640 -1.0615  2.6088  0.2719
17755SOL     OW59869   1.701  10.111   2.679  0.9942  0.1330 -0.0926
17755SOL    HW159870   1.661  10.198   2.686 -0.3784 -0.4091 -0.8663
17755SOL    HW259871   1.697  10.076   2.768  0.3414  0.3473 -0.0300
17756SOL     OW59872   1.071   5.420   8.987 -0.5015 -0.3429 -0.4783
17756SOL    HW159873   1.047   5.336   9.026  1.0053 -1.4378 -1.7796
17756SOL    HW259874   1.166   5.425   8.996 -0.0611 -0.5753 -3.6803
17757SOL     OW59875   9.504   0.083   8.676  0.4226  0.0476 -0.1083
17757SOL    HW159876   9.420   0.040   8.694  0.3826  0.1514 -0.0485
17757SOL    HW259877   9.487   0.136   8.598  0.6383 -0.5256 -0.5624
17758SOL     OW59878   2.294   6.896  10.091 -0.7567  0.2678  0.3013
17758SOL    HW159879   2.244   6.827  10.048  0.0389 -0.6358  0.7828
17758SOL    HW259880   2.316   6.957  10.021  0.1363 -0.9496 -0.5102
17759SOL     OW59881   1.319  12.574   7.343 -0.0852  0.3538 -0.3763
17759SOL    HW159882   1.278  12.507   7.397  2.5857 -0.6591  0.5768
17759SOL    HW259883   1.339  12.645   7.404  1.9734 -0.3461 -0.1458
17760SOL     OW59884   6.203  12.139  10.852 -0.2531  0.1004 -0.3574
17760SOL    HW159885   6.240  12.113  10.936  3.2991 -2.5564 -2.4768
17760SOL    HW259886   6.147  12.065  10.826  1.3739 -0.7121 -1.7214
17761SOL     OW59887   9.474   4.374   1.515  0.1361 -0.0050  0.3808
17761SOL    HW159888   9.490   4.298   1.458  0.6602 -1.4775  2.3683
17761SOL    HW259889   9.558   4.387   1.560 -0.0996  1.4740  0.4165
17762SOL     OW59890   4.485  11.105  10.565 -0.1600  0.4258 -0.6491
17762SOL    HW159891   4.391  11.098  10.583 -0.1634  1.4364 -0.2534
17762SOL    HW259892   4.527  11.063  10.640 -0.2763  0.6737 -0.4445
17763SOL     OW59893   2.749   2.036   2.308 -0.2225 -0.0070  0.7115
17763SOL    HW159894   2.662   2.017   2.274 -0.7013 -0.3040  2.0640
17763SOL    HW259895   2.804   2.044   2.230 -1.5236  0.5676 -0.1710
17764SOL     OW59896   9.961   1.927   4.119  0.3806  0.1171 -0.7834
17764SOL    HW159897   9.904   1.880   4.180  1.1738  0.0640 -0.0491
17764SOL    HW259898   9.912   2.004   4.093  0.7197  1.1402  1.4051
17765SOL     OW59899   4.735   6.589   9.432 -0.2715 -0.2442 -0.3577
17765SOL    HW159900   4.721   6.655   9.364  1.5638  0.5411 -0.0107
17765SOL    HW259901   4.720   6.635   9.515  0.4673 -0.3969 -0.1316
17766SOL     OW59902   0.238   3.377   6.833  0.0344 -0.0558  0.2398
17766SOL    HW159903   0.297   3.311   6.869 -0.5091 -0.8510 -0.2901
17766SOL    HW259904   0.239   3.447   6.898  1.1200 -0.2951  0.5071
17767SOL     OW59905   1.690   8.548   2.704  0.1940 -0.2483 -0.7089
17767SOL    HW159906   1.664   8.474   2.760  0.6526 -1.9302 -2.5866
17767SOL    HW259907   1.659   8.523   2.617 -0.8030  2.4422 -1.1923
17768SOL     OW59908   6.222  10.380   3.736 -0.0970  0.7823 -0.1823
17768SOL    HW159909   6.250  10.351   3.649  1.8026  1.7328  0.0372
17768SOL    HW259910   6.304  10.404   3.780 -0.9217 -0.5514  2.2254
17769SOL     OW59911   6.729  10.046  11.045  0.4281  0.1825 -0.0160
17769SOL    HW159912   6.778   9.964  11.039  1.0461  0.5730 -0.4996
17769SOL    HW259913   6.643  10.025  11.008  0.2365 -0.4999  0.7918
17770SOL     OW59914   7.575  11.925   1.276 -0.5478  0.4368 -0.6627
17770SOL    HW159915   7.580  11.831   1.295 -2.5931  0.5034  0.5013
17770SOL    HW259916   7.647  11.941   1.216  0.1513 -1.7852 -0.5113
17771SOL     OW59917   9.498   1.317  10.113 -0.4110  0.2039  0.4808
17771SOL    HW159918   9.438   1.246  10.091 -0.5605  0.3331  0.4710
17771SOL    HW259919   9.444   1.382  10.158 -0.3492  0.4771  0.1649
17772SOL     OW59920   3.745   4.211   4.008  0.4163 -0.1356 -0.3181
17772SOL    HW159921   3.672   4.194   4.068  1.3195  0.1141  0.8848
17772SOL    HW259922   3.755   4.130   3.959 -0.7349 -0.1354 -0.5850
17773SOL     OW59923   6.613   4.518  11.018  0.3831  0.1240 -0.2087
17773SOL    HW159924   6.607   4.427  10.990  1.4234  0.5540 -1.9967
17773SOL    HW259925   6.528   4.536  11.059 -0.0482 -1.4671 -0.3278
17774SOL     OW59926   6.589   6.953  10.343  0.0756  0.7339  0.4355
17774SOL    HW159927   6.645   6.934  10.419  0.4082  2.2802  0.6208
17774SOL    HW259928   6.573   6.868  10.303  1.4614  0.0986  1.1573
17775SOL     OW59929   3.017   0.061   6.667  0.1950  0.4395 -0.0426
17775SOL    HW159930   3.032  -0.022   6.622  1.0679  0.4665  0.1891
17775SOL    HW259931   3.102   0.085   6.703  0.1720  1.9144 -0.8974
17776SOL     OW59932   1.493   5.102   0.830  0.1141 -0.5657  0.0583
17776SOL    HW159933   1.400   5.104   0.849 -0.2147  0.8883 -1.5727
17776SOL    HW259934   1.500   5.068   0.741  1.1212 -0.4033  0.0562
17777SOL     OW59935  12.022  12.612   8.106 -0.0355  0.0469 -0.3581
17777SOL    HW159936  12.040  12.679   8.039  0.4940 -0.2803 -0.5534
17777SOL    HW259937  11.991  12.536   8.056 -1.2475  0.3482 -0.0816
17778SOL     OW59938   0.486   2.019   4.875  0.0957 -0.2516  0.7742
17778SOL    HW159939   0.558   1.957   4.884  1.3180  0.5383 -2.2063
17778SOL    HW259940   0.513   2.077   4.803 -3.9989 -0.7725 -1.5242
17779SOL     OW59941   7.565   3.872   2.776  0.2243 -0.0965  0.0059
17779SOL    HW159942   7.568   3.779   2.752 -1.3868 -0.4915  1.1358
17779SOL    HW259943   7.640   3.884   2.834 -0.1309 -0.9661  0.6724
17780SOL     OW59944   4.716   2.406  10.020 -0.4510 -0.5220 -0.9192
17780SOL    HW159945   4.794   2.368   9.980  0.0914 -0.8058  0.3610
17780SOL    HW259946   4.669   2.446   9.946  1.0665 -0.0264 -1.6820
17781SOL     OW59947   1.742   0.195  11.448  0.1423  0.2376  0.4291
17781SOL    HW159948   1.683   0.265  11.420 -1.8415 -1.5719 -0.1626
17781SOL    HW259949   1.772   0.223  11.535 -3.5895  0.1854  1.9158
17782SOL     OW59950   5.334   7.315   6.025  0.8012  0.1117  0.1304
17782SOL    HW159951   5.361   7.263   5.949  0.7785  0.2015  0.0598
17782SOL    HW259952   5.287   7.254   6.081  1.1161 -0.0328  0.2318
17783SOL     OW59953   3.953   2.201  11.394  0.0680  0.0521  0.1637
17783SOL    HW159954   3.877   2.144  11.404  0.5106 -0.9111 -1.5410
17783SOL    HW259955   3.972   2.200  11.300  1.9417  0.5840  0.4823
17784SOL     OW59956   3.334   2.143   7.254 -0.3942 -0.2709 -0.8604
17784SOL    HW159957   3.407   2.139   7.316 -2.2645 -0.2153  1.5031
17784SOL    HW259958   3.375   2.166   7.171  2.0707  1.4979  0.6899
17785SOL     OW59959   9.486   7.662  12.065  0.8097  0.3885  0.1831
17785SOL    HW159960   9.459   7.629  11.980 -0.7494  0.9994  0.3908
17785SOL    HW259961   9.536   7.741  12.046  0.7412  0.3414 -0.1873
17786SOL     OW59962  10.245   8.236   9.067  0.0728 -0.4214 -0.0383
17786SOL    HW159963  10.261   8.292   9.142 -1.8428 -0.3737  0.4052
17786SOL    HW259964  10.255   8.293   8.991  2.7299 -0.6339  0.0704
17787SOL     OW59965  11.003   9.002  12.269  0.0638  0.5098 -0.0313
17787SOL    HW159966  11.001   9.093  12.241  1.4221  0.4219 -0.4693
17787SOL    HW259967  10.949   8.956  12.205 -1.2584  1.0892  0.6216
17788SOL     OW59968   7.881   7.976   5.532  0.3461 -0.6357 -0.3422
17788SOL    HW159969   7.845   8.055   5.493 -0.5511 -0.2964  1.0857
17788SOL    HW259970   7.804   7.923   5.554  0.7948 -0.7729  0.9899
17789SOL     OW59971  11.933   2.535   2.106 -0.0790 -1.1327 -0.1240
17789SOL    HW159972  11.892   2.512   2.022 -0.6064  1.0497 -0.5249
17789SOL    HW259973  11.878   2.605   2.141  3.5319  2.4514 -0.9785
17790SOL     OW59974   1.111  12.720   9.718 -0.6344  0.2616 -0.1716
17790SOL    HW159975   1.113  12.749   9.626  0.5837 -1.0923 -0.6101
17790SOL    HW259976   1.189  12.666   9.727 -1.4850 -0.7654  1.2906
17791SOL     OW59977   9.966  11.785   7.178  0.3245 -0.5097 -0.2846
17791SOL    HW159978   9.979  11.862   7.233 -2.2863 -0.1775 -0.0007
17791SOL    HW259979   9.970  11.819   7.088 -0.8306  0.0224 -0.1605
17792SOL     OW59980  11.856   0.513   2.429 -0.2800 -0.0332  0.1122
17792SOL    HW159981  11.886   0.603   2.442 -0.8974  0.2758 -0.5161
17792SOL    HW259982  11.931   0.459   2.451  0.2135  0.6563  0.1389
17793SOL     OW59983  12.351   4.888   1.730  0.1363  0.4237  0.0555
17793SOL    HW159984  12.388   4.952   1.670  1.2265  0.3428  0.6188
17793SOL    HW259985  12.424   4.830   1.751 -0.6955 -0.6888 -0.0193
17794SOL     OW59986  10.073  12.694   4.692 -0.2085  0.6603 -0.1403
17794SOL    HW159987  10.069  12.659   4.603 -0.8713  1.1894 -0.3227
17794SOL    HW259988   9.994  12.662   4.735  0.3062  0.0738  0.3922
17795SOL     OW59989   4.183   9.378  12.163 -0.3932 -0.5744 -0.1951
17795SOL    HW159990   4.254   9.324  12.198 -0.7631 -1.0029 -0.0851
17795SOL    HW259991   4.176   9.353  12.071 -0.9009 -1.0975 -0.0217
17796SOL     OW59992   0.657   6.303   2.949  0.0411 -0.3199  0.0250
17796SOL    HW159993   0.605   6.228   2.922  1.9381 -1.6644 -0.1189
17796SOL    HW259994   0.593   6.368   2.979 -1.6452 -2.0902  0.4139
17797SOL     OW59995  10.894  12.144   9.243 -0.8992 -0.0154 -0.0564
17797SOL    HW159996  10.958  12.168   9.176  0.0648 -3.3479 -0.5012
17797SOL    HW259997  10.810  12.176   9.208 -0.0471  0.8193 -1.4457
17798SOL     OW59998   7.875   3.008   1.157  0.6833  0.1607  0.8818
17798SOL    HW159999   7.826   2.934   1.192 -0.6365 -0.0225 -1.1496
17798SOL    HW260000   7.836   3.085   1.198  0.2445 -0.1228  1.0014
17799SOL     OW60001  10.513   0.965   5.948  0.3677  0.5209 -0.9936
17799SOL    HW160002  10.604   0.971   5.978 -0.7063  2.6373  2.4368
17799SOL    HW260003  10.506   1.032   5.880  1.1806  0.9016 -0.7153
17800SOL     OW60004   7.173   5.236  11.158  0.1467 -0.2863  0.4757
17800SOL    HW160005   7.141   5.147  11.163  0.3042 -0.4813 -1.4184
17800SOL    HW260006   7.210   5.253  11.245 -2.2039 -1.1111  1.7204
17801SOL     OW60007  10.111   6.991   5.773 -0.0406 -0.5656  0.5014
17801SOL    HW160008  10.185   7.031   5.817 -1.4610  1.9105  0.8478
17801SOL    HW260009  10.059   6.951   5.843 -0.5451  0.3607  0.6709
17802SOL     OW60010   5.713   3.707   5.919 -0.1630  0.1697  0.0336
17802SOL    HW160011   5.797   3.744   5.892 -0.1673  0.9698  1.0333
17802SOL    HW260012   5.665   3.782   5.955  0.0853 -0.8657  2.7837
17803SOL     OW60013   5.846   2.313   4.220  0.2855  0.2409 -0.2572
17803SOL    HW160014   5.766   2.339   4.266  0.3146  0.7263 -0.4708
17803SOL    HW260015   5.916   2.362   4.263  0.5153 -0.4331  0.1408
17804SOL     OW60016   0.514   1.641   9.198  0.6888 -0.0442 -0.0953
17804SOL    HW160017   0.490   1.672   9.285  0.8096 -0.1932 -0.0084
17804SOL    HW260018   0.602   1.676   9.183  0.6339  0.0531 -0.1914
17805SOL     OW60019   8.724  12.463   8.024 -0.3430 -0.1303 -0.0581
17805SOL    HW160020   8.667  12.410   8.079 -1.5576  0.6510 -0.5299
17805SOL    HW260021   8.687  12.457   7.936  1.7352 -1.5816 -0.9131
17806SOL     OW60022   5.960   7.743   7.641 -0.2832 -0.0184  0.4439
17806SOL    HW160023   5.889   7.749   7.578  0.4879 -0.0847 -0.4483
17806SOL    HW260024   6.032   7.794   7.602 -0.4935  1.8312  2.2850
17807SOL     OW60025   6.058   2.062   3.888  0.0928  0.5146 -0.5551
17807SOL    HW160026   6.114   2.139   3.880  0.8445 -0.0712 -1.2022
17807SOL    HW260027   5.969   2.095   3.873  0.5282  1.0655 -2.1691
17808SOL     OW60028   0.396   4.065   9.361 -0.3243 -0.5272  0.0465
17808SOL    HW160029   0.393   4.158   9.383  0.1675  0.2451 -2.7937
17808SOL    HW260030   0.452   4.026   9.428  0.5289  1.4463  0.5404
17809SOL     OW60031   1.792  12.665   5.195 -0.5590 -0.3110 -0.2169
17809SOL    HW160032   1.817  12.757   5.196  1.3845 -0.7757 -0.9352
17809SOL    HW260033   1.706  12.663   5.237 -0.6923  1.8225 -0.2709
17810SOL     OW60034   1.889  10.732   7.872 -0.2885  0.6505 -0.4452
17810SOL    HW160035   1.907  10.640   7.888 -1.5796  0.2269 -1.2472
17810SOL    HW260036   1.802  10.746   7.908 -0.9300  1.0373 -2.0539
17811SOL     OW60037   7.912   1.893   8.047  0.3947  0.5182  0.7425
17811SOL    HW160038   7.887   1.906   7.956  1.3946 -1.9324  0.0393
17811SOL    HW260039   7.829   1.891   8.095 -0.2107  0.7499 -0.2609
17812SOL     OW60040   8.177   5.336  10.843  0.7859  0.4843 -0.7408
17812SOL    HW160041   8.109   5.330  10.777 -0.3785  1.1614  0.3511
17812SOL    HW260042   8.207   5.427  10.840 -0.2215  0.8925  0.5179
17813SOL     OW60043   3.963   9.696   7.850  0.4904 -0.0214 -0.2228
17813SOL    HW160044   4.020   9.736   7.784  1.1050  0.6889  0.7183
17813SOL    HW260045   3.977   9.748   7.929 -1.3345  0.0497  0.0931
17814SOL     OW60046  11.518   0.333   9.124  0.5917 -0.1381 -0.5698
17814SOL    HW160047  11.495   0.401   9.187  1.6962  0.5117 -0.8269
17814SOL    HW260048  11.505   0.251   9.171 -1.7539  0.1646 -0.5844
17815SOL     OW60049   1.815   1.706   7.013  0.2813  0.1676 -0.7575
17815SOL    HW160050   1.878   1.711   6.941  1.5708  1.0028  0.3928
17815SOL    HW260051   1.730   1.709   6.970  1.0164  0.8354 -2.2358
17816SOL     OW60052  11.383  12.702  11.705  0.0194  0.0922 -0.0953
17816SOL    HW160053  11.474  12.671  11.711  0.4687  1.2242 -0.9753
17816SOL    HW260054  11.331  12.621  11.708  1.1175 -0.6941 -1.1744
17817SOL     OW60055   0.399   9.883   1.756 -0.9181  0.0323  0.5286
17817SOL    HW160056   0.340   9.941   1.708 -2.5678  0.1932  2.6215
17817SOL    HW260057   0.487   9.916   1.736 -1.7634  3.2696  1.5223
17818SOL     OW60058   6.417  10.135  11.215 -0.7332 -0.4844 -0.0908
17818SOL    HW160059   6.336  10.094  11.244 -1.0518 -0.5994 -1.0950
17818SOL    HW260060   6.485  10.070  11.231 -1.0839 -1.0117 -0.7395
17819SOL     OW60061   5.609   8.048   4.424  0.0734  0.1714  0.5471
17819SOL    HW160062   5.678   7.992   4.388  1.4434  2.0515  0.0775
17819SOL    HW260063   5.605   8.025   4.517  1.6676  0.3396  0.6780
17820SOL     OW60064   2.097   1.437  10.768  0.1823  0.1011 -0.1713
17820SOL    HW160065   2.137   1.390  10.694 -0.9586 -0.6318 -0.3586
17820SOL    HW260066   2.075   1.523  10.732  0.0270 -0.0991 -0.5641
17821SOL     OW60067   9.516   6.672   2.538 -0.4955  0.1332 -1.0024
17821SOL    HW160068   9.485   6.611   2.472 -0.2720 -0.4983 -0.5354
17821SOL    HW260069   9.532   6.618   2.615  1.0426  0.5334 -1.0021
17822SOL     OW60070  10.870   4.493   4.049  0.4095 -0.1514  0.0571
17822SOL    HW160071  10.847   4.489   4.141  1.0820 -0.5785  0.2094
17822SOL    HW260072  10.805   4.438   4.005  0.4164 -0.3795  0.3352
17823SOL     OW60073   5.382  11.520   7.080  0.0395 -0.4344  0.0437
17823SOL    HW160074   5.314  11.583   7.057  0.4859  0.7785  1.8130
17823SOL    HW260075   5.454  11.539   7.021  0.0842  0.6028  0.4120
17824SOL     OW60076   0.539   0.850  11.588 -0.0383  0.5400  0.2395
17824SOL    HW160077   0.506   0.931  11.628 -1.2997  0.6433 -0.9130
17824SOL    HW260078   0.475   0.783  11.611 -0.4761  0.4789 -1.0291
17825SOL     OW60079   9.738   9.002   0.626  0.2103 -0.1290  0.2675
17825SOL    HW160080   9.833   9.014   0.621  0.2469 -0.0999  0.9557
17825SOL    HW260081   9.727   8.915   0.664 -0.0489 -0.3451 -0.2840
17826SOL     OW60082   9.838   5.779   1.096  0.1202 -0.2314 -0.1984
17826SOL    HW160083   9.909   5.839   1.118 -0.9042  0.9689 -0.0427
17826SOL    HW260084   9.881   5.695   1.082  1.4229  0.1558  1.1805
17827SOL     OW60085   8.848  12.765  12.147  0.3416  0.0429  0.2647
17827SOL    HW160086   8.870  12.784  12.238  2.1448 -0.3767 -0.0497
17827SOL    HW260087   8.781  12.829  12.124 -0.7974 -0.4062  2.1367
17828SOL     OW60088  11.230   2.511   8.762  0.2928  0.2584 -0.3039
17828SOL    HW160089  11.173   2.509   8.839  0.6903  0.8123  0.0100
17828SOL    HW260090  11.286   2.587   8.776  2.5086 -1.4013  0.4122
17829SOL     OW60091   2.008  11.661  11.605 -0.6997  0.1056  0.2369
17829SOL    HW160092   2.045  11.578  11.575 -2.6095  0.0372 -2.1712
17829SOL    HW260093   2.064  11.728  11.566 -0.7171 -0.0067  0.0220
17830SOL     OW60094  10.167   1.808   1.319  0.3219 -0.1247  0.3083
17830SOL    HW160095  10.084   1.854   1.306  1.1196  1.6519  1.1069
17830SOL    HW260096  10.142   1.717   1.335 -1.3159 -0.0835 -1.6689
17831SOL     OW60097   3.867  12.070   8.909 -0.4268  0.6698  0.3640
17831SOL    HW160098   3.886  12.095   8.819 -0.7454 -1.3958 -0.3335
17831SOL    HW260099   3.773  12.054   8.911 -0.5084  1.1902  1.2095
17832SOL     OW60100  12.711   3.548  11.445  0.7685 -0.1767 -0.5007
17832SOL    HW160101  12.728   3.524  11.354  0.8647  0.6301 -0.7050
17832SOL    HW260102  12.746   3.637  11.453 -0.3467  0.2307 -0.0132
17833SOL     OW60103   4.689   9.266   2.306 -0.3740 -0.1471 -0.2102
17833SOL    HW160104   4.675   9.185   2.356  0.2680 -1.2159 -1.7098
17833SOL    HW260105   4.774   9.297   2.335 -1.1482  0.7033  1.2755
17834SOL     OW60106   5.487  12.229   5.150  0.1074  0.1315 -0.2642
17834SOL    HW160107   5.478  12.134   5.141  0.1325  0.2293 -1.3984
17834SOL    HW260108   5.512  12.260   5.063 -2.1772  1.4477 -0.5539
17835SOL     OW60109   8.819   6.197   4.866  0.3704 -0.3930  0.0871
17835SOL    HW160110   8.846   6.105   4.857  0.1091 -0.4232 -0.4357
17835SOL    HW260111   8.753   6.209   4.797  2.7421  1.0744 -2.0786
17836SOL     OW60112   8.648   0.782   7.343  0.0195 -0.1717 -0.5553
17836SOL    HW160113   8.680   0.826   7.265 -0.2471 -1.5742 -1.5033
17836SOL    HW260114   8.656   0.847   7.413  1.5294  0.6920 -1.4692
17837SOL     OW60115   6.543   0.488   6.370 -0.4422 -0.1753 -0.1541
17837SOL    HW160116   6.485   0.492   6.294  0.5617  2.2676 -0.8899
17837SOL    HW260117   6.485   0.499   6.445 -1.1183  0.6372 -0.7750
17838SOL     OW60118   6.514   6.970  11.732 -0.1377 -0.1513 -0.6795
17838SOL    HW160119   6.451   6.962  11.661 -1.6549 -0.3891  0.6114
17838SOL    HW260120   6.475   7.035  11.791  1.1324  0.1393 -0.1264
17839SOL     OW60121   2.952  10.995  12.054 -0.3510 -0.3110  0.4854
17839SOL    HW160122   3.018  10.996  11.985  0.0912  2.9839  0.7719
17839SOL    HW260123   2.879  10.945  12.017  1.0480 -1.2930 -1.0923
17840SOL     OW60124  11.768   0.843  11.893  0.2808  0.0217  0.3893
17840SOL    HW160125  11.814   0.897  11.829 -1.2170  1.2125  0.2462
17840SOL    HW260126  11.693   0.808  11.846 -1.9060  2.4138  1.8235
17841SOL     OW60127   6.079   3.593  10.169 -0.1504 -0.5295 -0.1064
17841SOL    HW160128   6.035   3.586  10.253  0.0296 -1.3485 -0.0717
17841SOL    HW260129   6.166   3.627  10.190  0.0419 -1.1315  0.0931
17842SOL     OW60130   4.968   8.856   4.937 -0.0089 -0.1065 -0.2228
17842SOL    HW160131   4.942   8.946   4.914 -1.6566 -0.3971  0.3916
17842SOL    HW260132   4.961   8.852   5.032 -1.4839 -1.3223 -0.3581
17843SOL     OW60133  11.292  12.577   1.650 -0.3650 -0.3209  0.3060
17843SOL    HW160134  11.318  12.491   1.684  1.9617  0.3954  0.5420
17843SOL    HW260135  11.275  12.561   1.557  0.7212 -0.9553  0.1953
17844SOL     OW60136   6.209   1.542   7.045  0.1787  0.2324  0.4586
17844SOL    HW160137   6.115   1.560   7.057 -0.4965  0.9396 -4.1613
17844SOL    HW260138   6.248   1.627   7.029  0.9688 -0.3335 -0.7574
17845SOL     OW60139   7.370   9.387   3.523  0.4681 -0.1997  0.2907
17845SOL    HW160140   7.336   9.302   3.549 -0.0770 -0.3009 -0.6845
17845SOL    HW260141   7.390   9.432   3.605 -0.5663 -0.7312  0.8500
17846SOL     OW60142   8.123  11.450   5.369  0.3164 -0.2419 -0.1621
17846SOL    HW160143   8.072  11.447   5.449  0.1682 -0.8805 -0.2752
17846SOL    HW260144   8.072  11.399   5.306  0.8175 -0.4216 -0.4325
17847SOL     OW60145   3.453   6.411   8.511 -0.9329  0.2103 -0.6772
17847SOL    HW160146   3.519   6.458   8.459  0.3017  1.5153  1.9156
17847SOL    HW260147   3.369   6.441   8.476 -0.1640  1.1100 -1.8252
17848SOL     OW60148   1.682  10.396   1.776  0.5191  0.2973 -0.8689
17848SOL    HW160149   1.596  10.356   1.763 -0.6883  2.9715 -1.9053
17848SOL    HW260150   1.695  10.393   1.871 -0.8371  0.0179 -0.6632
17849SOL     OW60151  10.708   0.401   5.425  0.2682 -0.3823  0.0724
17849SOL    HW160152  10.761   0.331   5.387  0.4585 -0.6130  0.7588
17849SOL    HW260153  10.770   0.456   5.473  0.0420 -0.0440 -0.0163
17850SOL     OW60154   5.741   3.127   6.737 -0.0467 -0.1023 -0.1570
17850SOL    HW160155   5.682   3.071   6.686 -1.4059  1.3575 -0.2509
17850SOL    HW260156   5.683   3.192   6.777  1.4966  1.3622 -0.2199
17851SOL     OW60157  10.020   3.585   3.548 -0.1705 -0.0009  0.4924
17851SOL    HW160158   9.975   3.547   3.473 -1.1823 -1.9083  1.9938
17851SOL    HW260159   9.968   3.559   3.624  0.4727  2.3616  1.8661
17852SOL     OW60160  12.071   9.836   7.674  0.2506 -0.2189 -0.3070
17852SOL    HW160161  12.150   9.854   7.725 -0.1642 -0.1444  0.3130
17852SOL    HW260162  12.095   9.859   7.584  1.4878 -1.7941 -0.4256
17853SOL     OW60163   7.830   5.843  10.868 -0.1105  0.4423 -0.1008
17853SOL    HW160164   7.741   5.809  10.860 -0.3801  1.0997  0.0556
17853SOL    HW260165   7.864   5.804  10.949 -0.6579  1.0910  0.4422
17854SOL     OW60166  10.328   6.299   3.782 -0.0948 -0.0205 -0.0374
17854SOL    HW160167  10.372   6.215   3.782 -0.1220 -0.0436  0.8972
17854SOL    HW260168  10.390   6.360   3.822 -0.9146 -0.0737  1.3772
17855SOL     OW60169   8.905  10.930   1.836 -0.0001  0.4485  0.2514
17855SOL    HW160170   8.820  10.902   1.802 -0.0955 -0.3856  1.1198
17855SOL    HW260171   8.959  10.945   1.759 -0.8312  0.6283 -0.2976
17856SOL     OW60172   4.659   9.564   5.535 -0.4907  0.1083 -0.4314
17856SOL    HW160173   4.694   9.647   5.501  0.1704  0.1625  0.3372
17856SOL    HW260174   4.702   9.554   5.620 -0.7957 -0.8783 -0.3868
17857SOL     OW60175  12.169   9.331   1.964  0.2308  0.4064 -0.2107
17857SOL    HW160176  12.125   9.408   1.998  1.5284  0.7038  0.8775
17857SOL    HW260177  12.123   9.257   2.006 -0.0503  0.6459 -0.0913
17858SOL     OW60178   5.358   7.422  10.885 -0.2828 -0.2268  0.6581
17858SOL    HW160179   5.271   7.462  10.886  0.6307  1.8779  1.3742
17858SOL    HW260180   5.418   7.496  10.878  1.4789 -1.6126  0.5207
17859SOL     OW60181   7.213   9.172   1.186 -0.3943  0.5299 -0.5132
17859SOL    HW160182   7.234   9.221   1.265 -0.8252  0.1701 -0.1645
17859SOL    HW260183   7.235   9.231   1.114  0.0920  0.8234 -0.1279
17860SOL     OW60184   1.373   3.445   2.184 -0.0743 -0.2708 -0.0567
17860SOL    HW160185   1.400   3.355   2.203 -2.9756 -1.3041 -0.2775
17860SOL    HW260186   1.332   3.440   2.098 -0.3117  1.2713 -0.0521
17861SOL     OW60187   1.138   5.604  11.188  0.1342 -0.2810 -0.7174
17861SOL    HW160188   1.196   5.673  11.157 -1.3242  1.8136  0.9682
17861SOL    HW260189   1.162   5.592  11.280 -1.3231 -0.2116 -0.3172
17862SOL     OW60190   2.858  12.298   6.933 -0.3880 -0.2730  0.3406
17862SOL    HW160191   2.913  12.346   6.872 -1.4884 -0.5539 -0.9135
17862SOL    HW260192   2.780  12.352   6.943 -1.3640 -1.4500 -0.5928
17863SOL     OW60193   6.480   7.991   3.837 -0.3311  0.0606 -0.4121
17863SOL    HW160194   6.397   8.008   3.882 -0.3376 -0.3017 -0.2876
17863SOL    HW260195   6.457   7.989   3.744 -0.3636  0.5286 -0.4182
17864SOL     OW60196   1.308  11.441   3.023  0.1398 -0.2072 -0.4901
17864SOL    HW160197   1.401  11.440   3.043  0.5021  2.1701 -1.7007
17864SOL    HW260198   1.284  11.349   3.016  2.0161 -0.9170  1.3475
17865SOL     OW60199  12.231   2.317  11.861  0.0547  0.0956 -0.3088
17865SOL    HW160200  12.167   2.246  11.864 -1.7938  1.6302 -1.3007
17865SOL    HW260201  12.179   2.397  11.865  1.8273  1.4536 -2.1100
17866SOL     OW60202   0.356   5.950   4.411 -0.2791  0.4071  0.5595
17866SOL    HW160203   0.319   6.026   4.456 -0.1866  0.4041  0.6403
17866SOL    HW260204   0.449   5.951   4.434 -0.6824 -1.0499  2.4457
17867SOL     OW60205   6.299   0.366   0.742 -0.0394 -0.2615  0.3698
17867SOL    HW160206   6.259   0.293   0.695  0.2373 -0.1174 -0.0916
17867SOL    HW260207   6.329   0.425   0.673  0.3640 -0.0465  0.7291
17868SOL     OW60208   4.839   0.710   0.056 -0.1411  0.6021 -0.0782
17868SOL    HW160209   4.862   0.618   0.070 -0.7389 -0.0511 -2.8502
17868SOL    HW260210   4.745   0.710   0.043 -0.4823  1.9699  1.9110
17869SOL     OW60211   8.256   3.291   3.029 -0.3854 -0.4985 -0.4279
17869SOL    HW160212   8.345   3.314   3.003  0.2294  0.0887  1.9538
17869SOL    HW260213   8.258   3.196   3.043  0.7404 -0.1698  2.3223
17870SOL     OW60214   0.633   0.187   7.150 -0.0236 -0.0694  0.5791
17870SOL    HW160215   0.676   0.195   7.065  0.3217 -2.8709  0.4214
17870SOL    HW260216   0.554   0.136   7.133 -1.1866  1.2872  1.6148
17871SOL     OW60217   2.789   9.688   9.241  0.3426  0.7197 -0.3400
17871SOL    HW160218   2.708   9.721   9.280  2.2615  2.7752  2.2594
17871SOL    HW260219   2.772   9.689   9.147 -2.7922  0.5226  0.0997
17872SOL     OW60220   2.667   7.922  10.604 -0.0064 -0.1009  0.6876
17872SOL    HW160221   2.573   7.906  10.603  0.0827 -0.6914  1.3473
17872SOL    HW260222   2.706   7.844  10.564  0.3401 -0.9976  2.6537
17873SOL     OW60223   4.508   1.870   8.651  0.6626  0.0012  0.3798
17873SOL    HW160224   4.442   1.802   8.662  0.9788 -0.4494 -0.3836
17873SOL    HW260225   4.568   1.857   8.725  0.1325  0.1497  0.8437
17874SOL     OW60226   2.464   9.789   1.809  0.3136  0.2924 -0.0041
17874SOL    HW160227   2.554   9.785   1.842  0.5735 -0.2878 -0.7455
17874SOL    HW260228   2.447   9.883   1.798  1.1275  0.3823 -0.6251
17875SOL     OW60229  10.560  10.709   0.724 -0.1477  0.0711 -0.4569
17875SOL    HW160230  10.525  10.757   0.649  0.0333 -0.5038 -0.9212
17875SOL    HW260231  10.655  10.714   0.713 -0.1307 -0.4820 -0.5694
17876SOL     OW60232   6.202   8.965   1.193  0.0818  0.2349  0.7111
17876SOL    HW160233   6.153   9.007   1.123  1.1817 -0.8764 -0.7781
17876SOL    HW260234   6.200   8.872   1.172  1.7852  0.0330  1.2427
17877SOL     OW60235  11.528   1.439   5.442  0.0023  0.5896 -0.3317
17877SOL    HW160236  11.460   1.479   5.496 -0.2791  0.7356 -0.7809
17877SOL    HW260237  11.491   1.441   5.353  1.6056  3.0759 -1.0689
17878SOL     OW60238   7.937   5.167   3.000  0.4664  0.2862 -0.3909
17878SOL    HW160239   8.012   5.153   3.058  0.2095  0.3069 -0.0498
17878SOL    HW260240   7.893   5.082   2.997  1.2296 -0.0895 -1.6378
17879SOL     OW60241   0.097  11.461  11.466  0.2017  0.1559 -0.3257
17879SOL    HW160242   0.007  11.473  11.497 -0.2572  1.6030 -2.0891
17879SOL    HW260243   0.138  11.547  11.476  1.2834 -0.3865  0.0783
17880SOL     OW60244   0.434  11.951   8.381  0.4447  0.1209  0.4225
17880SOL    HW160245   0.521  11.935   8.345  0.3364  0.1341  0.1522
17880SOL    HW260246   0.449  12.011   8.455  0.5425  1.0791 -0.3574
17881SOL     OW60247   6.326   5.721   8.048 -0.2389 -0.1820  0.1758
17881SOL    HW160248   6.377   5.642   8.067  2.0945  1.4821  1.1824
17881SOL    HW260249   6.254   5.718   8.112  1.1280 -0.3863  1.7758
17882SOL     OW60250   5.016   4.130   3.298  0.0414 -0.0380  0.2624
17882SOL    HW160251   4.948   4.198   3.300  1.4499  1.4668 -0.5434
17882SOL    HW260252   5.050   4.128   3.387 -0.1065  0.2085  0.3271
17883SOL     OW60253   5.207   7.199   9.668 -0.3051  0.0655 -0.2235
17883SOL    HW160254   5.245   7.160   9.747 -1.2678 -1.0940 -0.3081
17883SOL    HW260255   5.282   7.236   9.621  0.4815 -0.6184  0.4615
17884SOL     OW60256   3.983   1.196   1.068 -0.1877  0.4612  0.4871
17884SOL    HW160257   4.062   1.230   1.111 -0.3729 -0.4604  1.5774
17884SOL    HW260258   3.995   1.101   1.068 -0.4671  0.3913 -1.0071
17885SOL     OW60259  10.538   8.629   8.155 -0.3233  0.5567 -0.3238
17885SOL    HW160260  10.607   8.568   8.181 -1.1431  0.2281  1.2256
17885SOL    HW260261  10.504   8.593   8.072  2.4075  1.6638 -2.0563
17886SOL     OW60262   1.325   0.682  10.468 -0.4484 -0.5098 -0.0615
17886SOL    HW160263   1.282   0.681  10.383 -0.8645 -0.3838  0.1436
17886SOL    HW260264   1.281   0.614  10.519 -0.8064  0.0124  0.3407
17887SOL     OW60265   2.377  10.546   9.500 -0.6444 -0.4591  0.1004
17887SOL    HW160266   2.392  10.585   9.414  0.5803 -2.2644 -0.5628
17887SOL    HW260267   2.366  10.453   9.482 -0.6063 -0.8418  1.8831
17888SOL     OW60268   6.801   4.422   2.089 -0.3536 -0.0364  0.2087
17888SOL    HW160269   6.730   4.458   2.143 -0.0805  0.5041  0.2225
17888SOL    HW260270   6.857   4.498   2.071 -0.2099 -0.2959 -0.4751
17889SOL     OW60271   8.643   9.556   6.284  0.1673  0.1255 -0.3061
17889SOL    HW160272   8.621   9.549   6.377  0.1558  0.5370 -0.2785
17889SOL    HW260273   8.708   9.488   6.270 -0.7401 -0.7754 -0.2778
17890SOL     OW60274   2.821   4.707   3.185 -0.3174  0.5868 -0.0589
17890SOL    HW160275   2.913   4.684   3.197 -0.1266  1.8519  1.1614
17890SOL    HW260276   2.798   4.755   3.265 -1.5711  1.7525 -1.0841
17891SOL     OW60277   3.204   6.670   6.906  0.2771 -0.3012  0.2107
17891SOL    HW160278   3.186   6.693   6.815  0.9359 -0.4941  0.0229
17891SOL    HW260279   3.254   6.744   6.940 -0.9297  0.2869  0.7593
17892SOL     OW60280  12.184   8.477  10.849 -0.6268 -0.1365  0.1445
17892SOL    HW160281  12.233   8.542  10.899 -1.4537 -0.8322  1.9327
17892SOL    HW260282  12.138   8.528  10.782 -0.8292  1.0679  1.1648
17893SOL     OW60283  10.891  10.420   3.114  0.4033 -0.4543 -0.5556
17893SOL    HW160284  10.839  10.342   3.093 -0.6025 -0.5449  1.9142
17893SOL    HW260285  10.863  10.486   3.051  0.0346 -1.5852 -1.6091
17894SOL     OW60286   8.621   8.648  12.641 -0.1308 -0.0296  0.3550
17894SOL    HW160287   8.703   8.658  12.688 -0.2633 -1.1226  0.8474
17894SOL    HW260288   8.554   8.645  12.710 -0.4920 -0.0032  0.0112
17895SOL     OW60289   7.630   3.378  11.898  0.5021 -0.1848  0.8234
17895SOL    HW160290   7.624   3.468  11.865  0.5449 -0.7082 -0.7102
17895SOL    HW260291   7.540   3.348  11.904  0.4584  0.1189  1.8525
17896SOL     OW60292   2.588   0.001   3.387 -0.3164 -0.0507  0.2931
17896SOL    HW160293   2.637   0.045   3.318 -0.9347  0.1460 -0.0203
17896SOL    HW260294   2.550  -0.076   3.345 -0.9045  0.2045  0.3485
17897SOL     OW60295   8.739   2.698   6.309 -0.5006 -0.3419 -0.3411
17897SOL    HW160296   8.757   2.720   6.217  1.3354  0.0757  0.0872
17897SOL    HW260297   8.781   2.767   6.359 -1.7753 -0.3759  0.8486
17898SOL     OW60298  11.845   3.658  11.333 -0.3646 -0.1342  0.0953
17898SOL    HW160299  11.850   3.620  11.245  1.3752  0.1255  0.0507
17898SOL    HW260300  11.827   3.583  11.390 -2.0109 -0.2313 -0.5015
17899SOL     OW60301   6.036   4.288   7.753  0.3120  0.0343  0.5773
17899SOL    HW160302   6.025   4.353   7.684 -0.3816 -2.6582 -2.0646
17899SOL    HW260303   6.131   4.274   7.757  0.2865 -2.1872 -2.5121
17900SOL     OW60304  12.499   8.049   3.604 -0.5151  0.1208 -0.3788
17900SOL    HW160305  12.502   7.969   3.657 -0.1774  0.2995 -0.1211
17900SOL    HW260306  12.585   8.054   3.563 -0.2099  0.8219  0.3181
17901SOL     OW60307   4.110   4.465   7.903 -0.0036  0.0010 -0.0280
17901SOL    HW160308   4.141   4.505   7.984 -0.0639 -0.0850  0.0373
17901SOL    HW260309   4.109   4.537   7.840  0.0437  0.0679  0.0470
17902SOL     OW60310   1.751   3.584   3.346 -0.0034  0.1988 -0.2008
17902SOL    HW160311   1.680   3.587   3.282  1.7267  0.1131 -2.2530
17902SOL    HW260312   1.740   3.500   3.391 -0.0545 -0.7688 -1.9396
17903SOL     OW60313   7.240   3.484   9.661 -0.6153 -0.0162  0.0230
17903SOL    HW160314   7.240   3.456   9.569 -0.4789 -0.0539  0.0353
17903SOL    HW260315   7.225   3.403   9.710  1.0924 -0.3104  0.1335
17904SOL     OW60316   0.331   4.041   1.431  0.4323  0.1346  0.7556
17904SOL    HW160317   0.260   4.018   1.491 -0.9901  1.0465 -0.4982
17904SOL    HW260318   0.351   3.960   1.384  0.8762 -0.3424  1.7309
17905SOL     OW60319   4.172   1.205   4.836 -0.0473  0.0009 -0.8851
17905SOL    HW160320   4.111   1.242   4.773  0.3264  1.8999 -0.1871
17905SOL    HW260321   4.119   1.188   4.914  0.2251  1.4351 -0.3584
17906SOL     OW60322   7.942  11.666   5.814 -0.0440 -0.1803 -0.0426
17906SOL    HW160323   7.915  11.743   5.763  1.4028 -0.0531 -0.6462
17906SOL    HW260324   7.922  11.689   5.904  0.7724  1.0950 -0.1650
17907SOL     OW60325   3.589  12.697   4.584  0.4699 -0.3130  0.6005
17907SOL    HW160326   3.650  12.771   4.574 -0.3331  0.3834  0.7220
17907SOL    HW260327   3.630  12.639   4.647  2.0099 -0.9257 -0.8785
17908SOL     OW60328  12.063   2.529   9.285  0.3056 -0.2936  0.0905
17908SOL    HW160329  12.016   2.512   9.367  0.9582  1.9191  1.0059
17908SOL    HW260330  12.152   2.551   9.314  1.0604 -1.2388 -1.3843
17909SOL     OW60331   3.396   4.398   0.228 -0.2327  0.0124  0.0586
17909SOL    HW160332   3.397   4.452   0.308  2.3229  0.1344  0.0152
17909SOL    HW260333   3.388   4.462   0.157  2.3179  0.3933  0.0330
17910SOL     OW60334   1.406   9.566   6.068 -0.4742  0.3485 -0.3346
17910SOL    HW160335   1.423   9.596   6.158 -0.9499  1.3392 -0.5613
17910SOL    HW260336   1.321   9.522   6.073  0.1296 -0.8346 -0.0431
17911SOL     OW60337  11.412   1.809   2.999  0.3306 -0.2590  0.6354
17911SOL    HW160338  11.366   1.741   3.048  0.5894  0.2076  1.5586
17911SOL    HW260339  11.384   1.891   3.041  0.6211  0.1455  0.0469
17912SOL     OW60340   0.611  10.913  10.935 -0.0646  0.3230 -0.2768
17912SOL    HW160341   0.574  10.942  10.852 -1.7322 -2.2319 -0.5319
17912SOL    HW260342   0.579  10.976  11.000 -2.3560 -0.0491 -0.9755
17913SOL     OW60343   7.675   6.231   0.276  0.6549 -0.0924 -0.9035
17913SOL    HW160344   7.606   6.283   0.235 -1.0567 -0.0877  1.7118
17913SOL    HW260345   7.639   6.142   0.279  0.2042  0.0974  1.4099
17914SOL     OW60346   0.426   1.122   6.650 -0.1591  0.1378  0.1960
17914SOL    HW160347   0.406   1.161   6.565  0.7831 -0.7713 -0.4746
17914SOL    HW260348   0.351   1.066   6.669  0.0245 -0.3560 -0.4868
17915SOL     OW60349   9.749   1.479   5.110 -0.4661  0.1578  0.2726
17915SOL    HW160350   9.827   1.474   5.166 -0.8968  1.3098  1.0139
17915SOL    HW260351   9.739   1.390   5.075  1.7993  0.2154 -0.7062
17916SOL     OW60352   6.793   4.181   0.920  0.4993 -0.4804  0.2417
17916SOL    HW160353   6.724   4.135   0.874 -0.5533  0.3770  0.9212
17916SOL    HW260354   6.870   4.124   0.912 -0.2218 -1.3509 -0.6870
17917SOL     OW60355   4.697   1.851   2.373  0.1251  0.0319 -0.2416
17917SOL    HW160356   4.669   1.838   2.464 -0.4864 -4.8263 -0.8565
17917SOL    HW260357   4.615   1.854   2.324  0.5192  0.0847 -0.8948
17918SOL     OW60358   6.675  10.131   6.619  0.5822  1.4737 -0.1345
17918SOL    HW160359   6.723  10.088   6.690 -0.2004  2.4701  1.0344
17918SOL    HW260360   6.680  10.069   6.546  2.1742  0.8190  0.4841
17919SOL     OW60361   4.441   8.059   0.959 -0.7016  0.2890 -0.5015
17919SOL    HW160362   4.532   8.072   0.932 -0.1283  0.6069  1.4212
17919SOL    HW260363   4.411   7.983   0.910  0.9030 -0.3798 -0.4837
17920SOL     OW60364   9.306  11.652   7.715 -0.4576 -0.2446  0.7938
17920SOL    HW160365   9.268  11.617   7.634  1.3109 -1.1275  0.2830
17920SOL    HW260366   9.278  11.591   7.782 -0.3125 -0.6514  0.4927
17921SOL     OW60367   1.354  12.133   1.172 -0.0887 -0.5240 -0.1579
17921SOL    HW160368   1.324  12.093   1.254 -0.2051 -1.4825 -0.6537
17921SOL    HW260369   1.449  12.120   1.173 -0.1139 -0.7174 -0.2692
17922SOL     OW60370   2.032   8.637  10.219 -0.1648 -0.4486 -0.5662
17922SOL    HW160371   1.978   8.693  10.163  0.0194 -0.4074 -0.7003
17922SOL    HW260372   1.994   8.550  10.208 -1.7610 -0.0469  1.2054
17923SOL     OW60373  10.183  11.282   1.727  0.1805  0.2947 -0.1835
17923SOL    HW160374  10.148  11.344   1.663 -0.6928  1.1290  1.0803
17923SOL    HW260375  10.278  11.295   1.725  0.2140  0.0155 -1.5801
17924SOL     OW60376   0.102   0.983  11.315  0.2958 -0.5708 -0.1584
17924SOL    HW160377   0.139   1.006  11.400 -0.0606 -1.5152  0.2701
17924SOL    HW260378   0.010   0.964  11.333 -0.0542  0.3290 -0.9618
17925SOL     OW60379   7.098   1.800   7.076  0.1538  0.1807  0.0748
17925SOL    HW160380   7.123   1.709   7.094  0.6253 -0.0765 -1.6538
17925SOL    HW260381   7.002   1.798   7.074  0.1270 -0.0474  1.0345
17926SOL     OW60382   1.954   4.680   4.695 -0.1744 -0.4272  0.5312
17926SOL    HW160383   2.030   4.627   4.717 -1.8655 -2.9418  0.7469
17926SOL    HW260384   1.990   4.764   4.665  2.5755 -1.0970  1.7085
17927SOL     OW60385   7.953  11.811  11.078 -0.6749 -0.1046  0.1642
17927SOL    HW160386   7.928  11.902  11.096  0.7904  0.0388  1.7833
17927SOL    HW260387   8.023  11.793  11.141  0.3918 -1.7399 -1.3940
17928SOL     OW60388   8.053   0.270   4.275  0.0204  0.6654 -0.5427
17928SOL    HW160389   8.031   0.180   4.299 -1.6849  1.0775 -0.4044
17928SOL    HW260390   8.069   0.268   4.181 -2.3100  0.5590 -1.0025
17929SOL     OW60391   4.083   1.431  11.470  0.0452  0.2163 -0.4314
17929SOL    HW160392   4.023   1.477  11.529 -0.3719  0.7255 -1.2138
17929SOL    HW260393   4.098   1.346  11.511 -0.8483  0.2586  0.0159
17930SOL     OW60394   8.976   2.368   4.181  0.5361 -0.1129  0.5437
17930SOL    HW160395   9.004   2.286   4.139  0.0677  0.2658 -0.5422
17930SOL    HW260396   8.952   2.425   4.108 -0.5250  0.4916  1.3441
17931SOL     OW60397  11.003  10.075   5.361  0.0402  0.1680 -0.5048
17931SOL    HW160398  11.087  10.030   5.353 -0.1581 -0.3468  0.1677
17931SOL    HW260399  10.963  10.069   5.274  0.6261  0.2710 -0.7837
17932SOL     OW60400   6.774   3.442  11.834 -0.4633 -0.1053 -0.2096
17932SOL    HW160401   6.721   3.380  11.785 -2.0972 -0.2749  1.6493
17932SOL    HW260402   6.856   3.396  11.850  0.6424  0.3931 -3.6777
17933SOL     OW60403   7.105   5.448  11.740 -0.1629 -0.1987 -0.2687
17933SOL    HW160404   7.113   5.534  11.698  0.9204 -0.2140 -0.1060
17933SOL    HW260405   7.154   5.389  11.683  0.9320 -0.3053  0.7650
17934SOL     OW60406   4.717   3.518  11.050  0.3772  0.0980 -0.0259
17934SOL    HW160407   4.674   3.434  11.037  0.4805 -0.1056  0.8543
17934SOL    HW260408   4.798   3.497  11.096  0.0665  0.7317  0.8484
17935SOL     OW60409   6.852   2.778   4.221  0.6378  0.0719  0.0161
17935SOL    HW160410   6.908   2.753   4.147  0.6288  1.8951 -0.6653
17935SOL    HW260411   6.877   2.719   4.292 -0.8642 -3.2560 -1.9844
17936SOL     OW60412  11.110   7.092   5.691 -0.1065 -0.4548 -0.3031
17936SOL    HW160413  11.198   7.079   5.655  0.8495  0.9080  1.3573
17936SOL    HW260414  11.087   7.008   5.729  2.1269  0.0066  2.4681
17937SOL     OW60415   3.076   5.501   1.130  0.5969 -0.3751 -0.0037
17937SOL    HW160416   3.075   5.426   1.070  0.0041 -0.9756  0.7429
17937SOL    HW260417   3.129   5.567   1.085 -0.2129 -0.6387 -1.4010
17938SOL     OW60418   1.929   1.364   7.674  0.0244 -0.1692 -0.3358
17938SOL    HW160419   2.013   1.322   7.689  0.0189 -0.3916 -0.9004
17938SOL    HW260420   1.865   1.307   7.716 -0.0674 -1.1590 -1.7606
17939SOL     OW60421  12.250   5.537   5.623 -0.3641 -0.6440  0.0351
17939SOL    HW160422  12.207   5.458   5.591 -0.4118 -0.6227  0.0459
17939SOL    HW260423  12.221   5.607   5.564  0.2138 -0.7569 -0.3893
17940SOL     OW60424   8.304   0.918   8.471 -0.8415 -0.6467  0.2054
17940SOL    HW160425   8.307   0.959   8.385 -0.8331  0.6863  0.8259
17940SOL    HW260426   8.213   0.929   8.500 -0.5114  0.1834  0.9578
17941SOL     OW60427   2.680   7.107   7.362 -0.2386 -0.5300  0.0368
17941SOL    HW160428   2.620   7.135   7.432  0.3826 -0.9745  0.7627
17941SOL    HW260429   2.626   7.109   7.283 -0.6338  1.1711  0.3065
17942SOL     OW60430  10.786   8.337   6.282 -0.3122 -0.2248  0.4037
17942SOL    HW160431  10.849   8.359   6.351  0.1799 -2.5068  0.7596
17942SOL    HW260432  10.839   8.323   6.204 -0.6872  0.4937  0.0048
17943SOL     OW60433   1.104   9.461   6.942 -0.0723  0.0358  0.3621
17943SOL    HW160434   1.060   9.419   7.016 -1.9521 -1.4970 -1.5245
17943SOL    HW260435   1.188   9.416   6.936 -0.0877 -0.1315  1.2748
17944SOL     OW60436   7.830  12.575   1.680  0.3732  0.0969  0.2280
17944SOL    HW160437   7.810  12.508   1.614  1.4959 -0.6823  0.6471
17944SOL    HW260438   7.749  12.626   1.688 -1.0359 -2.1086  0.9564
17945SOL     OW60439   5.533  11.412   2.907  0.7473 -0.1361 -0.3730
17945SOL    HW160440   5.449  11.403   2.951  1.6020  0.1516  1.4018
17945SOL    HW260441   5.515  11.468   2.831 -0.8212 -0.8742 -0.5754
17946SOL     OW60442  10.945  11.333   1.736 -0.9988  0.0227  0.2489
17946SOL    HW160443  10.955  11.399   1.667 -0.6116  0.7552  0.9839
17946SOL    HW260444  10.855  11.301   1.727 -1.3214  0.9454  0.1276
17947SOL     OW60445   0.225   3.317   0.854  0.6985 -0.1052  0.1704
17947SOL    HW160446   0.207   3.234   0.897 -1.0380 -0.7319 -1.5841
17947SOL    HW260447   0.154   3.327   0.791  3.1904  0.5740 -2.7766
17948SOL     OW60448  11.460   8.702   8.309  0.7230 -0.5813 -0.3974
17948SOL    HW160449  11.423   8.774   8.362  2.4338  1.8559 -2.2605
17948SOL    HW260450  11.385   8.646   8.290 -0.6087  0.3765  1.6396
17949SOL     OW60451  11.492   6.421   4.432 -0.0458 -0.2117  0.5664
17949SOL    HW160452  11.398   6.402   4.432  0.2874 -1.9753  0.5137
17949SOL    HW260453  11.530   6.360   4.369  1.3666 -0.8095  1.9193
17950SOL     OW60454   9.564   0.639   0.169 -0.1494 -0.5320 -0.0346
17950SOL    HW160455   9.566   0.663   0.077  0.8342  0.5556  0.2354
17950SOL    HW260456   9.607   0.713   0.213  0.5852 -1.6330  1.1517
17951SOL     OW60457   0.824  11.507   8.063 -0.2634  0.0788  1.0047
17951SOL    HW160458   0.895  11.570   8.051 -0.8654  1.1032  2.4648
17951SOL    HW260459   0.857  11.446   8.129  0.2100 -1.0049 -0.2025
17952SOL     OW60460   9.446   9.396  11.945  0.1262 -0.6636 -0.3521
17952SOL    HW160461   9.501   9.372  12.019 -2.4574 -2.5438  1.1276
17952SOL    HW260462   9.382   9.458  11.981 -0.2302 -0.3842 -1.4038
17953SOL     OW60463   3.536   0.185   6.932  0.7259 -0.0814 -0.1113
17953SOL    HW160464   3.522   0.279   6.935  0.5841 -0.1109  0.2756
17953SOL    HW260465   3.559   0.166   6.841  0.8579  0.3401 -0.1669
17954SOL     OW60466   0.845   6.453   3.694 -0.7907  0.0285 -0.1767
17954SOL    HW160467   0.935   6.467   3.723 -1.1267 -0.4882  1.1851
17954SOL    HW260468   0.818   6.537   3.658  0.0010  0.3956  0.0631
17955SOL     OW60469  12.231   5.834  11.526 -0.0445  0.0896  0.0110
17955SOL    HW160470  12.229   5.927  11.504  1.7660  0.3900  0.8681
17955SOL    HW260471  12.164   5.823  11.593 -0.4171  0.7384 -0.2546
17956SOL     OW60472   4.660   6.333   0.011 -0.4308  0.1673  0.0181
17956SOL    HW160473   4.576   6.361   0.046 -1.7804 -3.2580 -0.1559
17956SOL    HW260474   4.668   6.381  -0.072 -2.2717  0.4668 -0.0320
17957SOL     OW60475   2.508   3.998   8.569 -0.6288  0.0234 -0.4840
17957SOL    HW160476   2.519   4.080   8.616  0.4797 -0.4120  0.0497
17957SOL    HW260477   2.429   3.959   8.607 -0.2626  0.1067  0.3775
17958SOL     OW60478   7.800   1.883   7.057  0.0643 -0.1691  0.1998
17958SOL    HW160479   7.766   1.822   6.992 -2.5715 -1.1113  2.2681
17958SOL    HW260480   7.815   1.965   7.009 -1.1000 -1.0022 -1.6816
17959SOL     OW60481   6.092   9.414   0.589  0.6090  0.1549  0.0291
17959SOL    HW160482   6.090   9.345   0.656  0.0018 -0.7823 -0.9094
17959SOL    HW260483   6.182   9.446   0.590  1.1339 -1.2231 -0.0597
17960SOL     OW60484   4.594   6.350   4.199  0.1036 -0.3213 -0.4145
17960SOL    HW160485   4.637   6.434   4.183 -0.9936  0.3336 -0.0090
17960SOL    HW260486   4.583   6.346   4.294 -0.2650 -0.7114 -0.4725
17961SOL     OW60487   1.719  10.145   1.633  0.0671 -0.5044  0.1830
17961SOL    HW160488   1.628  10.157   1.659 -0.0429  0.9602 -0.7649
17961SOL    HW260489   1.762  10.228   1.654  0.8597 -0.6816 -0.6527
17962SOL     OW60490  10.714   7.659   8.877 -0.0097 -0.0562  0.1018
17962SOL    HW160491  10.691   7.721   8.808 -1.5767  1.2637  1.6902
17962SOL    HW260492  10.674   7.577   8.850  0.5791  0.0653 -1.2040
17963SOL     OW60493   7.262   0.482   0.786  0.0914  0.5908 -0.0288
17963SOL    HW160494   7.175   0.518   0.801 -0.4078 -0.7817  0.4598
17963SOL    HW260495   7.248   0.403   0.735  0.8926 -0.4803  1.3366
17964SOL     OW60496  12.278   2.302   6.129 -0.2705 -0.0921 -0.1380
17964SOL    HW160497  12.222   2.224   6.129  0.0543 -0.3280 -0.3241
17964SOL    HW260498  12.340   2.287   6.201 -0.3868  0.1277  0.0101
17965SOL     OW60499   9.188  11.761  10.215 -0.3914 -0.1508 -0.2406
17965SOL    HW160500   9.259  11.706  10.249 -0.1916 -0.4957 -1.1786
17965SOL    HW260501   9.111  11.736  10.267 -0.3828 -1.5614 -0.8548
17966SOL     OW60502   3.716  12.254  11.473  0.2910 -0.1782 -0.1257
17966SOL    HW160503   3.714  12.330  11.414  1.1338 -0.6738 -0.8140
17966SOL    HW260504   3.797  12.263  11.522  0.3657 -0.6056 -0.1677
17967SOL     OW60505   4.998   9.884  11.197 -0.4164  0.0732 -0.4141
17967SOL    HW160506   5.013   9.977  11.213 -0.4082  0.0375 -0.2034
17967SOL    HW260507   4.925   9.862  11.255 -0.9683  0.1378 -1.0868
17968SOL     OW60508   1.669   5.248   0.443 -0.1628 -0.1316 -0.3136
17968SOL    HW160509   1.727   5.259   0.367  1.1079 -0.6283  0.5544
17968SOL    HW260510   1.710   5.179   0.495 -0.1824  1.2178  1.5947
17969SOL     OW60511   9.456   4.966   9.872  0.1753  0.5119  0.2755
17969SOL    HW160512   9.439   4.895   9.933 -2.2809  0.2721 -0.5780
17969SOL    HW260513   9.552   4.969   9.864  0.4037 -1.6315  1.5183
17970SOL     OW60514  10.412  12.775   9.810 -0.2863 -0.0783  0.1911
17970SOL    HW160515  10.359  12.836   9.759  0.5474  0.3742 -0.1615
17970SOL    HW260516  10.381  12.785   9.900  0.1626  1.2615  0.2248
17971SOL     OW60517   3.156   7.958  10.839  0.6034 -0.2836 -0.0781
17971SOL    HW160518   3.126   7.923  10.923  0.8836 -2.3337 -0.7785
17971SOL    HW260519   3.076   7.985  10.794  0.4102  0.3210  0.5901
17972SOL     OW60520  11.332   2.414  10.712  0.1995 -0.2104 -0.1289
17972SOL    HW160521  11.318   2.428  10.805  0.1539 -0.9609 -0.0168
17972SOL    HW260522  11.423   2.439  10.697  0.5161 -1.0635  0.3246
17973SOL     OW60523   1.339  12.485  12.226 -0.3253  0.5382  0.4546
17973SOL    HW160524   1.323  12.408  12.280 -0.5612  0.7183  0.6417
17973SOL    HW260525   1.422  12.465  12.181 -0.6957 -0.0865  0.0270
17974SOL     OW60526  11.676   7.260   5.590 -0.3024 -0.8899  0.0458
17974SOL    HW160527  11.694   7.319   5.663 -2.0776 -0.5278  0.2471
17974SOL    HW260528  11.586   7.231   5.604 -0.1929 -1.9553 -1.2217
17975SOL     OW60529  10.339   5.431   0.100  0.6206  0.9674 -0.0817
17975SOL    HW160530  10.411   5.414   0.161  0.1881  0.9438  0.4293
17975SOL    HW260531  10.287   5.500   0.143 -0.4228  0.0299  0.2028
17976SOL     OW60532   9.428  11.176   2.764  0.0107  0.4315  0.1134
17976SOL    HW160533   9.520  11.198   2.779  0.0694 -0.1762  0.7255
17976SOL    HW260534   9.383  11.261   2.761  0.6101  0.7370 -0.3274
17977SOL     OW60535   5.058   6.705   3.541  0.3006  0.5516 -0.0190
17977SOL    HW160536   5.082   6.615   3.563 -3.1743 -0.1948  1.2202
17977SOL    HW260537   5.035   6.701   3.448 -1.2167 -0.2571  0.3514
17978SOL     OW60538  12.057   8.174   3.936 -0.1863 -0.2180 -0.0814
17978SOL    HW160539  12.058   8.196   3.843 -0.1681  0.9441  0.1849
17978SOL    HW260540  12.044   8.258   3.981  2.7457 -0.2756  1.1014
17979SOL     OW60541   2.864   0.473   1.331 -0.0910 -0.5637 -0.4788
17979SOL    HW160542   2.790   0.526   1.303 -1.1464 -2.4075 -1.3378
17979SOL    HW260543   2.871   0.488   1.425 -0.8897  0.4169 -0.5663
17980SOL     OW60544  10.242  12.338   3.689  0.2827  0.1054 -0.2079
17980SOL    HW160545  10.290  12.328   3.607  0.6048 -2.6371  0.2455
17980SOL    HW260546  10.232  12.249   3.722 -1.5792  0.9719  1.7585
17981SOL     OW60547   8.302   1.037   8.222  0.1653 -0.7691 -0.2127
17981SOL    HW160548   8.227   1.074   8.176  0.9571  1.5325  0.2087
17981SOL    HW260549   8.353   0.993   8.154  0.8585  1.7937 -1.4825
17982SOL     OW60550   8.260  12.392   0.396  0.1346  0.8141 -0.0570
17982SOL    HW160551   8.349  12.418   0.371  0.1770  0.3832 -0.3616
17982SOL    HW260552   8.268  12.299   0.419 -0.3591  0.6057 -0.7024
17983SOL     OW60553   8.416   8.612   0.568 -0.0441  0.1374 -0.3729
17983SOL    HW160554   8.505   8.617   0.532 -1.0128 -0.3872 -3.0593
17983SOL    HW260555   8.428   8.579   0.657  2.4005 -0.7979 -0.9651
17984SOL     OW60556  12.404   2.581   1.167 -0.2354  0.0969  0.6093
17984SOL    HW160557  12.466   2.638   1.120  0.2192 -0.0157  1.0611
17984SOL    HW260558  12.375   2.633   1.241 -1.1749  0.3794  0.0610
17985SOL     OW60559   9.890   6.699   1.260  0.4568 -0.3341 -0.6399
17985SOL    HW160560   9.926   6.634   1.320 -0.0378 -0.8242 -0.8714
17985SOL    HW260561   9.796   6.682   1.258  0.2413  0.7391 -0.2817
17986SOL     OW60562   6.371   4.603   6.214  0.2176  0.6084  0.2434
17986SOL    HW160563   6.410   4.604   6.302  1.0093  1.2687 -0.1033
17986SOL    HW260564   6.307   4.673   6.215 -0.4173  0.0403  0.5607
17987SOL     OW60565   9.214   0.637   2.449  0.3395  0.1060 -0.2246
17987SOL    HW160566   9.305   0.662   2.466 -0.2322  1.5636  0.8635
17987SOL    HW260567   9.200   0.559   2.503  1.3567 -1.0733 -1.5810
17988SOL     OW60568  12.644   8.149   2.713 -0.3993 -0.2288 -0.2503
17988SOL    HW160569  12.607   8.067   2.680 -1.3534 -0.5234  1.4405
17988SOL    HW260570  12.568   8.206   2.725  0.2656  0.9909 -1.5239
17989SOL     OW60571   9.048   0.705   7.503 -1.1870 -0.2831 -0.2991
17989SOL    HW160572   9.120   0.742   7.453 -0.3526 -0.8728  0.4301
17989SOL    HW260573   9.036   0.766   7.576  0.3476 -1.4737  1.0376
17990SOL     OW60574   1.065   5.462   5.052 -0.5103 -0.3138  0.3893
17990SOL    HW160575   1.098   5.435   4.967 -0.1629  1.9181 -0.2661
17990SOL    HW260576   1.142   5.465   5.109 -0.1581  1.2339 -0.1165
17991SOL     OW60577  12.442   7.384   9.917 -0.6403 -0.3141 -0.3702
17991SOL    HW160578  12.406   7.407   9.831 -1.0168  0.5097  0.0033
17991SOL    HW260579  12.366   7.369   9.972 -0.3969 -1.2028 -0.2565
17992SOL     OW60580   5.938   6.596   2.200 -0.0329 -0.1430  0.4767
17992SOL    HW160581   5.976   6.577   2.114 -2.1478 -0.4066 -0.4478
17992SOL    HW260582   5.852   6.554   2.199 -0.6040  0.8642  2.2804
17993SOL     OW60583   7.400   3.126   0.188 -0.2244  0.4390 -0.3632
17993SOL    HW160584   7.383   3.098   0.098  0.0279  0.6071 -0.4634
17993SOL    HW260585   7.341   3.200   0.202  0.2098  0.8278 -0.6075
17994SOL     OW60586   5.045   6.611  11.898  0.3996  0.4340 -0.1544
17994SOL    HW160587   5.102   6.543  11.862 -0.0445 -0.3124  0.5178
17994SOL    HW260588   5.088   6.640  11.978  0.0759  0.1797  0.1206
17995SOL     OW60589  12.525   8.982   9.016 -0.8393  0.0483  0.1581
17995SOL    HW160590  12.557   8.928   8.944 -1.8217 -1.0272  0.4972
17995SOL    HW260591  12.434   9.001   8.994 -1.1880 -0.3865  1.1324
17996SOL     OW60592   4.038  12.210  11.150 -0.3108  0.3119  0.5947
17996SOL    HW160593   3.967  12.273  11.160  0.8879  1.6831  0.8772
17996SOL    HW260594   3.998  12.125  11.165 -1.5503  1.1704  2.4377
17997SOL     OW60595   9.746   2.121  10.666 -0.0102  0.3248  0.4639
17997SOL    HW160596   9.804   2.116  10.742 -0.6205  0.3239  0.9375
17997SOL    HW260597   9.680   2.053  10.681 -0.1511  0.3388 -0.0556
17998SOL     OW60598   3.240   9.198  11.928  0.2169  0.5644 -0.0141
17998SOL    HW160599   3.288   9.220  11.848 -0.2337  2.7238  0.2688
17998SOL    HW260600   3.176   9.268  11.939  0.7855  0.7672  2.6587
17999SOL     OW60601   5.901  12.182   1.456 -0.4204 -0.0308  0.0604
17999SOL    HW160602   5.838  12.158   1.524 -1.1923  0.0811 -0.5990
17999SOL    HW260603   5.975  12.123   1.471 -0.4610  0.1608  1.1428
18000SOL     OW60604   2.670  10.103   1.268  0.0707  0.1721  0.2025
18000SOL    HW160605   2.654  10.125   1.360 -0.6982  0.1974  0.0702
18000SOL    HW260606   2.596  10.048   1.243 -0.2593  0.9649 -0.6661
18001SOL     OW60607   1.293  12.492   2.901 -0.2917 -0.0418 -0.1971
18001SOL    HW160608   1.243  12.479   2.821  0.8143 -1.8261 -0.6431
18001SOL    HW260609   1.362  12.553   2.877  0.1651 -0.7338 -0.6874
18002SOL     OW60610   5.669  12.707   4.045  0.3992  1.0000  0.0299
18002SOL    HW160611   5.755  12.673   4.070 -1.1666 -1.4660  2.7008
18002SOL    HW260612   5.671  12.709   3.949  2.3376 -2.2922 -0.1610
18003SOL     OW60613   8.515   1.779   8.023  0.1573 -0.0526 -0.4960
18003SOL    HW160614   8.525   1.688   8.049 -0.1553  0.2545  0.7269
18003SOL    HW260615   8.601   1.802   7.985 -0.0610 -1.1081 -1.7165
18004SOL     OW60616   2.748   6.115   1.025 -0.6613 -0.1009  0.7078
18004SOL    HW160617   2.688   6.190   1.031 -0.5212  0.0070  0.7918
18004SOL    HW260618   2.735   6.080   0.937 -1.0865 -0.2817  0.8435
18005SOL     OW60619   6.408   0.408   9.069 -0.1052  0.2712  0.3005
18005SOL    HW160620   6.423   0.502   9.061 -1.7520  0.6216  0.9309
18005SOL    HW260621   6.477   0.377   9.127 -0.6807  1.4617  1.6724
18006SOL     OW60622   3.570   2.522   8.503 -0.0882 -0.0533  0.2385
18006SOL    HW160623   3.487   2.500   8.546  0.7000  1.7230  2.9130
18006SOL    HW260624   3.631   2.538   8.575  2.8551 -1.9155 -1.5916
18007SOL     OW60625   0.095   6.513   4.632 -0.0447 -0.5418  0.3792
18007SOL    HW160626   0.028   6.496   4.699 -0.8870 -0.1347 -0.3327
18007SOL    HW260627   0.165   6.557   4.679 -0.5552 -0.4069  1.0301
18008SOL     OW60628   3.605   1.456   0.030  0.0318 -0.1425 -0.8755
18008SOL    HW160629   3.545   1.392   0.067  1.0413 -0.3059  0.5607
18008SOL    HW260630   3.687   1.407   0.017  1.0878  1.0018  1.0477
18009SOL     OW60631   1.731   3.715   5.019 -0.2308 -0.0002 -0.3120
18009SOL    HW160632   1.755   3.712   4.927  0.1626  0.3088 -0.2226
18009SOL    HW260633   1.658   3.777   5.023 -1.4279 -1.3420 -0.6590
18010SOL     OW60634   8.012   3.779   0.969  0.1436  0.0840 -0.6155
18010SOL    HW160635   7.966   3.696   0.961 -0.4652  0.2403  0.9003
18010SOL    HW260636   7.943   3.845   0.963  0.1196  0.3267  1.4290
18011SOL     OW60637   3.852   1.335   5.666  0.4488  0.0369  0.8742
18011SOL    HW160638   3.765   1.325   5.704 -0.2462 -0.0574 -0.6669
18011SOL    HW260639   3.844   1.298   5.578  2.0334  0.1016  0.6748
18012SOL     OW60640   7.159   6.163  12.114  0.3431 -0.1971 -0.8070
18012SOL    HW160641   7.183   6.249  12.080  0.9965 -0.5225 -1.1950
18012SOL    HW260642   7.178   6.168  12.208 -0.4508  0.3574 -0.6661
18013SOL     OW60643   3.157   3.926   1.510 -0.2099  0.0850  1.0447
18013SOL    HW160644   3.079   3.876   1.535 -0.0799 -0.5380  0.2620
18013SOL    HW260645   3.220   3.908   1.580 -0.7169  0.4714  1.6026
18014SOL     OW60646   1.841   5.295   4.317 -0.0147  0.1211  0.3740
18014SOL    HW160647   1.867   5.217   4.367 -0.3496  0.5681  1.2747
18014SOL    HW260648   1.770   5.333   4.368  1.7183  2.3723  1.2752
18015SOL     OW60649  10.271   5.826   5.440 -0.4023 -0.8009 -0.2527
18015SOL    HW160650  10.201   5.845   5.378  0.1691  2.1887 -0.1749
18015SOL    HW260651  10.227   5.801   5.521 -1.5368  1.7676  0.0276
18016SOL     OW60652   6.434   3.106  11.254  0.6531  0.0037 -0.4939
18016SOL    HW160653   6.378   3.029  11.253  0.4995  0.0629  1.1395
18016SOL    HW260654   6.519   3.074  11.225  0.0775 -0.3163 -1.9050
18017SOL     OW60655   3.430   2.435  11.832  0.1556  0.0486 -0.3871
18017SOL    HW160656   3.459   2.411  11.920  0.8027  0.7659 -0.3877
18017SOL    HW260657   3.406   2.528  11.839 -1.9782 -0.4486 -0.4463
18018SOL     OW60658   8.887   3.079   2.952  0.1246 -0.7334 -0.2716
18018SOL    HW160659   8.922   3.045   2.869  0.7152 -3.2612  0.9003
18018SOL    HW260660   8.816   3.018   2.974 -0.3074  0.1502  0.8642
18019SOL     OW60661   3.586   1.849   1.738 -0.1211  0.0247 -0.1817
18019SOL    HW160662   3.523   1.825   1.670 -2.1034  0.0943  1.5362
18019SOL    HW260663   3.560   1.936   1.766 -0.0312 -0.4219  1.3835
18020SOL     OW60664   1.825  11.132   9.508  0.1224  0.1875  0.4656
18020SOL    HW160665   1.844  11.203   9.447 -0.4213 -0.3614 -0.3570
18020SOL    HW260666   1.899  11.072   9.500 -0.1269 -0.0714  0.0546
18021SOL     OW60667  10.677   1.472  10.051  0.7098 -0.4253  0.6795
18021SOL    HW160668  10.625   1.422  10.115  1.4431 -0.5885  1.1571
18021SOL    HW260669  10.612   1.520  10.000  0.0603 -0.9806  0.9679
18022SOL     OW60670   6.538   8.758  11.395 -0.6586  0.4483 -0.8140
18022SOL    HW160671   6.488   8.722  11.468  1.0337  0.2319  0.3143
18022SOL    HW260672   6.535   8.853  11.409 -0.4187  0.4133 -0.5071
18023SOL     OW60673  11.381  12.671   0.205  0.3467 -0.1674  0.2560
18023SOL    HW160674  11.373  12.715   0.290  0.2723  2.1379 -0.8760
18023SOL    HW260675  11.291  12.653   0.179  0.3384 -0.2654  0.3520
18024SOL     OW60676   6.566   4.919   0.479  0.0500  0.2992 -0.6340
18024SOL    HW160677   6.574   5.013   0.466 -0.5479  0.5663  0.7815
18024SOL    HW260678   6.638   4.881   0.428  0.9436  1.5786 -0.3551
18025SOL     OW60679   5.513   2.035   1.150 -0.7467 -0.2083  0.5421
18025SOL    HW160680   5.560   2.045   1.233 -1.8223 -0.4335  1.2058
18025SOL    HW260681   5.562   1.967   1.103  0.7392  0.9733  0.3300
18026SOL     OW60682   8.896   5.484   1.114 -0.0603  0.0055  0.7133
18026SOL    HW160683   8.974   5.501   1.060 -0.0800  0.0886  0.7102
18026SOL    HW260684   8.829   5.457   1.051 -0.5335  1.5858  0.5040
18027SOL     OW60685   4.084   8.946  11.028 -0.3114  0.2443  0.2528
18027SOL    HW160686   4.014   8.892  10.992  1.2756 -1.1114 -0.9680
18027SOL    HW260687   4.135   8.887  11.083  0.4826  0.9308  0.2816
18028SOL     OW60688   3.886   0.057  12.306 -0.2072 -0.1505  0.0656
18028SOL    HW160689   3.805   0.039  12.355  1.1870 -2.2036  1.7886
18028SOL    HW260690   3.944   0.097  12.371  0.3806  0.8337 -1.0257
18029SOL     OW60691  10.329  10.413   2.434 -0.3131 -0.1534 -0.1473
18029SOL    HW160692  10.252  10.409   2.377 -0.1724 -3.4018 -0.3220
18029SOL    HW260693  10.403  10.400   2.374  0.0612 -0.6334  0.4114
18030SOL     OW60694   0.378   7.825  12.336 -0.1797 -0.1116 -0.6353
18030SOL    HW160695   0.371   7.864  12.249  1.3016  0.3357 -0.5726
18030SOL    HW260696   0.325   7.883  12.392  0.7463  0.9568 -0.8294
18031SOL     OW60697  11.612  12.251   4.004 -0.4086 -0.5421 -0.5761
18031SOL    HW160698  11.673  12.183   3.976  0.6077  0.7621 -1.7198
18031SOL    HW260699  11.601  12.306   3.926 -2.3304 -0.1932 -0.1116
18032SOL     OW60700   5.788   6.805   5.862 -0.0327 -0.3056 -0.0039
18032SOL    HW160701   5.831   6.841   5.940 -0.0872  0.5557 -0.3642
18032SOL    HW260702   5.716   6.751   5.898  0.1037 -0.1287  0.5453
18033SOL     OW60703   3.678   4.822   3.298 -0.3855  0.0201  0.3383
18033SOL    HW160704   3.591   4.828   3.337 -1.3278 -0.1146 -1.5904
18033SOL    HW260705   3.738   4.821   3.372 -2.0376 -0.1843  1.7382
18034SOL     OW60706   0.897   6.216   4.856 -0.5811 -0.4229  0.8694
18034SOL    HW160707   0.973   6.212   4.799 -0.3144 -0.2859  1.2099
18034SOL    HW260708   0.896   6.131   4.901  0.9507  0.5199  2.8509
18035SOL     OW60709   8.942   7.038   9.118 -0.2319 -0.1363 -0.1788
18035SOL    HW160710   9.027   7.065   9.082 -0.5789  3.0396  1.0927
18035SOL    HW260711   8.954   6.945   9.138  1.9549 -0.5216 -2.6412
18036SOL     OW60712   3.288  12.444   2.051 -0.4828 -0.9741 -0.3358
18036SOL    HW160713   3.302  12.439   1.956  0.1403  0.2573 -0.3370
18036SOL    HW260714   3.197  12.471   2.060 -0.0649  0.6654 -0.6685
18037SOL     OW60715   7.342   9.581   2.972 -0.1925 -0.4713  0.2629
18037SOL    HW160716   7.414   9.547   2.918  0.0224 -0.4994  0.5615
18037SOL    HW260717   7.313   9.506   3.024 -0.7734 -0.5807 -0.2201
18038SOL     OW60718   5.024   0.118   6.580 -0.0474 -0.2607 -0.5107
18038SOL    HW160719   4.995   0.209   6.576 -0.3366 -0.3531 -0.5639
18038SOL    HW260720   4.968   0.073   6.517 -0.0768 -0.5200 -0.2988
18039SOL     OW60721  11.745   2.815   6.390  0.0906  0.5267  0.2174
18039SOL    HW160722  11.680   2.873   6.350 -0.0490  0.7171  0.7080
18039SOL    HW260723  11.809   2.875   6.429 -0.7423  0.4070  1.8651
18040SOL     OW60724   7.066   0.791   6.317 -0.1310  0.1995 -0.3045
18040SOL    HW160725   6.990   0.735   6.299  0.2321 -0.5441  0.4177
18040SOL    HW260726   7.122   0.738   6.374  0.3230  1.2179  0.2239
18041SOL     OW60727   9.711   5.233   1.983 -0.0456 -0.7689  0.3993
18041SOL    HW160728   9.634   5.286   1.962  0.9611  0.1218 -1.3492
18041SOL    HW260729   9.704   5.156   1.927  0.3823 -0.6207  0.1346
18042SOL     OW60730  10.265   9.009   3.185 -0.1977 -0.0812  0.3163
18042SOL    HW160731  10.332   8.977   3.125 -1.1912 -2.4084  0.3301
18042SOL    HW260732  10.272   8.952   3.262 -1.0693  0.7309  1.0226
18043SOL     OW60733   0.243   7.081  10.942 -0.1470  0.4500 -0.3647
18043SOL    HW160734   0.239   6.989  10.969  2.0809  0.8863  1.8651
18043SOL    HW260735   0.287   7.080  10.857  1.4396 -0.5276  0.4077
18044SOL     OW60736  10.880   4.790   3.327  0.4024  0.3060  0.8769
18044SOL    HW160737  10.866   4.874   3.284 -1.7506  0.7139  2.2237
18044SOL    HW260738  10.815   4.731   3.289  0.1860 -0.0294  1.7269
18045SOL     OW60739   9.041   2.376   1.929 -0.0661 -0.2419 -0.0338
18045SOL    HW160740   9.134   2.395   1.915  0.3759 -0.8416  1.8169
18045SOL    HW260741   9.036   2.281   1.934 -0.8702 -0.2391 -0.5129
18046SOL     OW60742   6.348   2.326  10.457  0.0456  0.0559 -0.2592
18046SOL    HW160743   6.384   2.414  10.445 -1.8519  1.1253  1.3290
18046SOL    HW260744   6.421   2.275  10.494  0.7342  1.3865  0.2715
18047SOL     OW60745  10.099   4.340  11.011  0.3569  0.2171 -0.0456
18047SOL    HW160746  10.091   4.400  10.937 -0.1847  0.6580  0.3615
18047SOL    HW260747  10.156   4.385  11.073  2.1074 -0.8191 -0.8400
18048SOL     OW60748   3.034   4.236   4.692  0.0662  0.1929  0.6704
18048SOL    HW160749   2.989   4.168   4.642 -0.3955  1.0375 -0.0755
18048SOL    HW260750   3.053   4.305   4.628  0.7274  0.6742  1.3687
18049SOL     OW60751  10.823   0.291   0.072  0.1885  0.1652 -0.3205
18049SOL    HW160752  10.755   0.224   0.070  0.1947  0.1526 -0.1056
18049SOL    HW260753  10.859   0.286   0.160  0.0279  0.6129 -0.2271
18050SOL     OW60754   4.394  10.820   3.792 -0.2452  0.3501 -0.1031
18050SOL    HW160755   4.463  10.837   3.728 -1.0167 -0.8241 -1.3103
18050SOL    HW260756   4.322  10.877   3.765 -0.7310 -0.4685 -0.5808
18051SOL     OW60757   4.884  11.590   3.315 -0.0097  0.3754 -0.1156
18051SOL    HW160758   4.846  11.671   3.349 -1.4770  1.3698 -3.6974
18051SOL    HW260759   4.957  11.619   3.260  1.4406 -1.0442  0.9510
18052SOL     OW60760   0.275   1.303   3.279  0.0870 -0.3565  0.1977
18052SOL    HW160761   0.341   1.312   3.211 -0.2675 -1.6938 -0.3674
18052SOL    HW260762   0.197   1.348   3.245  0.4429  0.5273  0.5203
18053SOL     OW60763   9.407   0.127   6.490  0.1122  0.3516  0.2708
18053SOL    HW160764   9.449   0.117   6.576 -0.8202 -0.0047  0.7091
18053SOL    HW260765   9.402   0.038   6.456  0.7294  0.5249 -0.2864
18054SOL     OW60766   8.095   9.613   7.072 -0.0751 -0.0423 -0.0240
18054SOL    HW160767   8.160   9.654   7.015  0.0496  0.7899  0.7100
18054SOL    HW260768   8.097   9.520   7.047 -0.1244  0.3273 -1.4587
18055SOL     OW60769   3.412   7.678   2.246 -0.3298  0.1018  0.0796
18055SOL    HW160770   3.389   7.627   2.169 -0.2371 -0.5925  0.5082
18055SOL    HW260771   3.504   7.658   2.262 -0.2449  0.5385  0.1470
18056SOL     OW60772  11.478   7.469   2.599 -0.1665 -0.4045  0.1058
18056SOL    HW160773  11.519   7.413   2.665 -0.0110  0.7439  1.0138
18056SOL    HW260774  11.398   7.500   2.640  0.9662  2.0191  0.6436
18057SOL     OW60775   4.310   3.698   8.361  0.8010  0.0553  0.1016
18057SOL    HW160776   4.241   3.712   8.426  0.7647 -0.8684  0.2769
18057SOL    HW260777   4.265   3.704   8.277  0.3341 -1.3218  0.2301
18058SOL     OW60778  12.482   8.949   7.648 -0.0128  0.3387 -0.1712
18058SOL    HW160779  12.396   8.925   7.613  1.1400 -2.8727 -1.2190
18058SOL    HW260780  12.534   8.972   7.571 -0.0754  3.1884  0.5322
18059SOL     OW60781  10.542   8.069   3.071 -0.0466 -0.1084  0.4083
18059SOL    HW160782  10.512   8.150   3.112  0.8136 -0.2728  1.4202
18059SOL    HW260783  10.494   8.064   2.988  0.0019  1.5107  0.2541
18060SOL     OW60784   4.994  11.054  12.430  0.4504 -0.5090 -0.3112
18060SOL    HW160785   4.942  11.103  12.367  1.3392 -1.5000 -1.8785
18060SOL    HW260786   4.939  11.049  12.508 -0.7057  0.6959 -1.0163
18061SOL     OW60787  10.820   8.936  11.717 -0.8122  0.7344  0.5958
18061SOL    HW160788  10.820   8.910  11.809 -2.1040 -0.5170  0.2809
18061SOL    HW260789  10.781   9.023  11.717  0.2414  1.2184  1.3373
18062SOL     OW60790  11.394   6.223   2.671  0.0670 -0.1264 -0.5719
18062SOL    HW160791  11.458   6.291   2.650  1.3870 -1.4075 -0.8451
18062SOL    HW260792  11.402   6.212   2.766 -1.6885  1.5346 -0.1560
18063SOL     OW60793  10.630   8.368   0.063 -0.1780  0.6435  0.0525
18063SOL    HW160794  10.667   8.331   0.143 -1.1829  0.0474  0.2687
18063SOL    HW260795  10.537   8.342   0.066 -0.8252  2.7485 -0.0361
18064SOL     OW60796   3.405  11.403   6.946 -0.0009 -0.7058  0.6224
18064SOL    HW160797   3.496  11.425   6.965 -0.2119 -0.8023  1.7956
18064SOL    HW260798   3.410  11.350   6.866  0.8637  0.1569  0.0827
18065SOL     OW60799   9.161   0.195   7.688  0.5089  0.3533 -0.0930
18065SOL    HW160800   9.075   0.237   7.678  0.6484  0.3792 -1.4775
18065SOL    HW260801   9.193   0.226   7.772 -0.3204  1.3292 -0.1134
18066SOL     OW60802  10.370   3.282   8.853  0.2191 -0.5178 -0.4801
18066SOL    HW160803  10.398   3.254   8.940 -1.4067  0.3238  0.3575
18066SOL    HW260804  10.293   3.229   8.833  0.1763 -0.2350 -1.1100
18067SOL     OW60805   0.622   0.325   4.096 -0.1018 -0.2581 -0.6873
18067SOL    HW160806   0.659   0.344   4.183 -1.0359  0.5409 -0.4599
18067SOL    HW260807   0.664   0.388   4.038 -1.9134  1.4813 -0.2259
18068SOL     OW60808  10.321   8.125  10.327  0.1826 -0.4691  0.0681
18068SOL    HW160809  10.350   8.197  10.383  0.8231 -0.0344 -0.8056
18068SOL    HW260810  10.225   8.129  10.330  0.1913  1.2962 -1.0458
18069SOL     OW60811   1.219   2.425  12.385  0.3595 -0.7218  0.4685
18069SOL    HW160812   1.178   2.380  12.459  0.9107 -0.3302  1.0275
18069SOL    HW260813   1.297   2.467  12.423  0.3774 -0.1012 -0.2336
18070SOL     OW60814  10.634   1.679   1.210  0.7759  0.1568 -0.3820
18070SOL    HW160815  10.695   1.747   1.181  1.4239 -0.5240 -0.6478
18070SOL    HW260816  10.552   1.726   1.229  0.7233  0.8116 -2.0620
18071SOL     OW60817  10.674   9.877  10.648  0.6881  0.3165  0.3021
18071SOL    HW160818  10.627   9.960  10.646  0.8343  0.3897 -0.4653
18071SOL    HW260819  10.637   9.826  10.576 -1.0340 -1.2147  2.1470
18072SOL     OW60820  10.987   3.411   3.988  0.3695 -0.1847 -0.3109
18072SOL    HW160821  11.051   3.339   3.983  1.3557  0.7359 -1.6065
18072SOL    HW260822  10.902   3.367   3.985  0.8977 -1.4374  1.4076
18073SOL     OW60823   3.900   5.925   8.403  0.2155 -0.2679 -0.9385
18073SOL    HW160824   3.903   5.954   8.312  0.5510 -0.6175 -1.0372
18073SOL    HW260825   3.841   5.988   8.445  0.6401  0.3435 -1.2329
18074SOL     OW60826   2.356   4.914   6.594 -0.1664 -0.4013 -0.6491
18074SOL    HW160827   2.321   4.854   6.529 -1.4084 -0.7149  0.2707
18074SOL    HW260828   2.337   5.001   6.559 -0.2832 -0.5578 -0.9819
18075SOL     OW60829   2.049   5.988   0.221  0.2785  0.4788 -0.5070
18075SOL    HW160830   2.038   6.083   0.228 -0.9451  0.4770 -1.7549
18075SOL    HW260831   1.960   5.955   0.206  0.7649 -0.7992 -0.7152
18076SOL     OW60832  10.931   1.949   8.967 -1.2566 -0.3325  0.0559
18076SOL    HW160833  10.997   1.900   8.918 -0.4459  1.4700 -0.7616
18076SOL    HW260834  10.854   1.947   8.910 -0.9875 -0.0504 -0.3301
18077SOL     OW60835   5.598   0.595   3.843 -0.2542 -0.8750  0.1444
18077SOL    HW160836   5.597   0.632   3.755 -2.7862 -0.9857  0.0454
18077SOL    HW260837   5.637   0.663   3.898  0.5426 -0.4623 -0.9074
18078SOL     OW60838  10.751   4.026   2.654  0.5885 -0.0073 -0.0274
18078SOL    HW160839  10.733   3.933   2.668  1.5370 -0.4372 -1.3804
18078SOL    HW260840  10.665   4.068   2.656  0.2381 -0.7127  1.7158
18079SOL     OW60841   4.282   1.039   3.272 -0.1353 -0.2800 -0.5680
18079SOL    HW160842   4.204   1.017   3.322  0.3747  1.2632  1.0407
18079SOL    HW260843   4.354   0.997   3.320  0.3763  1.3427  0.1626
18080SOL     OW60844   2.086   2.777   5.973 -0.1019 -0.1823  0.4236
18080SOL    HW160845   2.005   2.813   6.010  0.3080 -0.2131  1.3616
18080SOL    HW260846   2.078   2.795   5.879 -1.0135  0.1786  0.5515
18081SOL     OW60847   4.454  10.355  12.351 -0.2959 -0.1111 -0.4229
18081SOL    HW160848   4.497  10.297  12.413  0.1199  1.0384  0.4174
18081SOL    HW260849   4.505  10.436  12.355 -3.1211  1.7488  1.4702
18082SOL     OW60850   4.745  12.262  12.618  0.1358 -0.2271 -1.1122
18082SOL    HW160851   4.754  12.321  12.543 -0.8086  1.1052 -0.2217
18082SOL    HW260852   4.653  12.237  12.618 -0.2345  1.0025  0.4456
18083SOL     OW60853   3.825   9.046   7.969 -0.1223 -0.0169  0.3342
18083SOL    HW160854   3.793   9.093   7.892  0.1540  0.4484  0.4978
18083SOL    HW260855   3.909   9.088   7.988  0.9290 -1.6457 -0.4986
18084SOL     OW60856   2.705   4.523  10.031  0.8812  0.2041 -0.5597
18084SOL    HW160857   2.762   4.467   9.980  0.9775 -0.3488  0.1416
18084SOL    HW260858   2.706   4.485  10.119 -1.4427 -0.5176 -0.7713
18085SOL     OW60859  11.074   1.789  10.615  0.0398  0.6875  0.6434
18085SOL    HW160860  10.983   1.773  10.592 -0.1567  2.4988  0.0463
18085SOL    HW260861  11.112   1.701  10.623 -1.0734 -0.1043 -1.7842
18086SOL     OW60862   7.263  10.240   7.696  0.2661  0.1012 -0.0112
18086SOL    HW160863   7.251  10.170   7.760 -1.1580 -1.3991 -1.8102
18086SOL    HW260864   7.219  10.316   7.735 -2.5646 -1.3799 -0.0988
18087SOL     OW60865   6.795   9.684  10.692 -0.4530  0.0432  0.2297
18087SOL    HW160866   6.876   9.720  10.726 -0.9581  0.4471  1.0245
18087SOL    HW260867   6.785   9.600  10.735 -0.7921  0.2933  0.6494
18088SOL     OW60868   3.338   2.251  11.353 -0.1505 -0.5060 -0.9148
18088SOL    HW160869   3.296   2.208  11.427  0.5059 -2.0113 -1.3854
18088SOL    HW260870   3.296   2.213  11.276 -0.9695  1.1926 -1.3653
18089SOL     OW60871   5.212  10.354   2.788 -0.4466 -0.1312  0.6617
18089SOL    HW160872   5.211  10.356   2.692 -1.9745 -0.1971  0.6480
18089SOL    HW260873   5.283  10.293   2.810  0.9650  1.0655 -0.3586
18090SOL     OW60874   2.508   9.794   0.987 -0.2975  0.0360 -0.3717
18090SOL    HW160875   2.578   9.843   0.943  0.5223 -0.8675 -0.1259
18090SOL    HW260876   2.491   9.720   0.928  0.1325 -0.6544  0.3564
18091SOL     OW60877  11.252   1.412   4.311  0.1877 -0.1671  0.3796
18091SOL    HW160878  11.303   1.425   4.391  1.5182  0.6557 -0.5603
18091SOL    HW260879  11.218   1.499   4.291 -0.2132 -0.3893  0.1001
18092SOL     OW60880   6.121   5.822  10.678 -0.3670 -0.2717  0.0775
18092SOL    HW160881   6.205   5.865  10.693 -0.2421 -0.5395  0.1339
18092SOL    HW260882   6.099   5.782  10.762 -1.8923  2.1432  0.9246
18093SOL     OW60883   5.188   2.235   7.779  0.7680  0.0954  0.0213
18093SOL    HW160884   5.144   2.191   7.852  2.2678 -0.6199  0.5310
18093SOL    HW260885   5.117   2.278   7.731 -0.4540 -0.8751  0.8900
18094SOL     OW60886   2.170   6.695  11.343 -0.6586  0.0705  0.2541
18094SOL    HW160887   2.108   6.766  11.326 -0.1449  1.3276  3.0892
18094SOL    HW260888   2.127   6.641  11.409  1.1116  0.8885  2.1864
18095SOL     OW60889   0.446   4.231   5.854 -0.7472  0.0593  0.2167
18095SOL    HW160890   0.395   4.236   5.774  0.0649  1.6706 -0.2355
18095SOL    HW260891   0.504   4.307   5.851  1.5930 -1.5968  0.7690
18096SOL     OW60892   4.305  12.686   3.625 -0.5482 -0.6886 -0.1904
18096SOL    HW160893   4.338  12.650   3.708  0.3310 -0.0782 -0.2629
18096SOL    HW260894   4.265  12.769   3.650  0.2039 -0.2411 -0.4381
18097SOL     OW60895   3.715   6.125   2.066  0.1742 -0.2537  1.0924
18097SOL    HW160896   3.763   6.047   2.037  0.7822 -0.2410  2.0147
18097SOL    HW260897   3.625   6.093   2.081 -0.4300 -0.0578 -1.6299
18098SOL     OW60898   5.771  10.685   6.612  0.3151 -0.4489 -0.0230
18098SOL    HW160899   5.710  10.730   6.554 -0.3427 -2.2458 -0.8126
18098SOL    HW260900   5.855  10.728   6.597 -0.1327  0.0260 -1.2751
18099SOL     OW60901   8.700   0.464   6.925 -0.4983  0.6976 -0.2545
18099SOL    HW160902   8.662   0.547   6.895 -0.0268  0.6570 -0.9839
18099SOL    HW260903   8.794   0.480   6.928 -0.4224  0.2499 -0.1790
18100SOL     OW60904   7.673   1.373   6.001  0.2060 -0.0830  0.2519
18100SOL    HW160905   7.618   1.382   6.079 -0.7150  1.4586 -0.5235
18100SOL    HW260906   7.763   1.378   6.034 -0.1246 -0.8390  1.3383
18101SOL     OW60907   8.039   8.193  11.895 -0.5280  0.3486  0.3358
18101SOL    HW160908   7.988   8.236  11.826  0.0354 -1.1170 -1.0600
18101SOL    HW260909   8.107   8.257  11.917 -2.5633  2.1442  1.9076
18102SOL     OW60910   1.950   7.230   4.657 -0.1973 -0.1901  0.2260
18102SOL    HW160911   1.923   7.156   4.711  1.1820 -2.8014 -2.4033
18102SOL    HW260912   1.870   7.256   4.610 -0.3332 -1.2025 -0.1152
18103SOL     OW60913  11.462   9.207   8.309 -0.2638 -0.5377 -0.1369
18103SOL    HW160914  11.523   9.163   8.369  0.5336  0.9687  0.1840
18103SOL    HW260915  11.388   9.232   8.365  0.0092 -0.0562  0.0120
18104SOL     OW60916   2.525  10.695   7.027 -0.0204 -1.2056 -0.8066
18104SOL    HW160917   2.546  10.783   7.058 -2.6208 -0.7928  0.0315
18104SOL    HW260918   2.498  10.707   6.936  0.0787 -1.1932 -0.8340
18105SOL     OW60919  11.659   9.880   6.701 -0.6636 -0.5025  0.2653
18105SOL    HW160920  11.659   9.916   6.613  2.3368 -1.5337 -0.2710
18105SOL    HW260921  11.595   9.933   6.749  0.6466  2.8925 -1.4416
18106SOL     OW60922   2.240   6.515   3.336  0.2812  0.1931 -0.2986
18106SOL    HW160923   2.281   6.442   3.384  0.1708  0.5862  0.4094
18106SOL    HW260924   2.181   6.473   3.274 -0.0561 -0.3180  0.3561
18107SOL     OW60925   1.628   1.135   3.980 -0.2743 -0.0346  0.5308
18107SOL    HW160926   1.646   1.048   3.945 -0.0459  0.0617  0.4018
18107SOL    HW260927   1.632   1.125   4.075 -0.7028 -0.2593  0.5243
18108SOL     OW60928   5.469   7.184  12.043  0.7434 -0.0806  0.2855
18108SOL    HW160929   5.378   7.171  12.015  1.4676 -1.0099 -1.8224
18108SOL    HW260930   5.488   7.275  12.018  0.3289  0.2184  1.0149
18109SOL     OW60931   4.802   2.089   4.207  0.2080 -0.3178  0.4085
18109SOL    HW160932   4.791   2.038   4.288 -0.3283 -0.7234  0.0899
18109SOL    HW260933   4.777   2.178   4.231  2.9171  0.2569  1.4623
18110SOL     OW60934   8.485  10.807   6.765  0.4254  0.3121 -0.3311
18110SOL    HW160935   8.444  10.887   6.798  0.6267 -0.1800  1.1590
18110SOL    HW260936   8.426  10.778   6.695 -0.7155  0.7069  0.4290
18111SOL     OW60937   2.531   2.908  10.708 -0.5461 -0.2906 -0.1291
18111SOL    HW160938   2.467   2.942  10.771 -2.1178  0.8993 -2.2107
18111SOL    HW260939   2.519   2.813  10.710 -3.6908 -0.0462 -1.5952
18112SOL     OW60940   6.971  12.306   0.308 -0.4799 -0.1070 -0.1924
18112SOL    HW160941   6.961  12.260   0.224  0.1741 -0.7490  0.0635
18112SOL    HW260942   6.937  12.394   0.292 -0.6397 -0.3146 -1.0479
18113SOL     OW60943  10.536   8.749  12.767  0.2761 -0.9024 -0.0979
18113SOL    HW160944  10.604   8.774  12.830 -0.0853  0.4585 -0.2149
18113SOL    HW260945  10.585   8.721  12.690  0.7244  0.0378 -0.1688
18114SOL     OW60946  10.792   8.523   4.596  0.0076  0.1056 -0.1215
18114SOL    HW160947  10.711   8.472   4.602 -0.9379  1.3272 -1.7378
18114SOL    HW260948  10.849   8.484   4.662 -0.7927 -2.7561 -0.9513
18115SOL     OW60949   0.978   6.548   1.153 -0.0206  0.1510 -0.1278
18115SOL    HW160950   0.909   6.564   1.087 -0.3484 -4.2159 -1.1431
18115SOL    HW260951   1.057   6.532   1.101  0.8150  0.9309  0.8569
18116SOL     OW60952  10.903   2.438   5.344  0.3355 -0.1886  0.2470
18116SOL    HW160953  10.984   2.395   5.370 -0.5240 -1.3964  1.0353
18116SOL    HW260954  10.847   2.432   5.421  0.5464  3.4318  0.8532
18117SOL     OW60955   8.390   6.023   9.718  0.6801  0.0521  0.3551
18117SOL    HW160956   8.339   6.068   9.650  0.5214 -0.1399  0.3482
18117SOL    HW260957   8.325   5.983   9.775  0.8278 -0.3531  0.2377
18118SOL     OW60958   6.823   3.708   4.787 -0.1915 -0.1967 -0.5259
18118SOL    HW160959   6.895   3.691   4.727  0.4521 -1.3430  0.5390
18118SOL    HW260960   6.782   3.789   4.753  2.5589  1.4353 -0.2086
18119SOL     OW60961  10.562   0.662   0.317 -0.5681  0.0264 -0.0032
18119SOL    HW160962  10.533   0.747   0.349 -0.9653  0.0216 -0.3394
18119SOL    HW260963  10.481   0.611   0.307 -0.3876 -0.1950 -0.3570
18120SOL     OW60964   5.298   2.402  10.215  0.1473  0.4300  0.4900
18120SOL    HW160965   5.270   2.461  10.284  0.7634  0.0895  1.0488
18120SOL    HW260966   5.373   2.355  10.252  0.7358  0.5104 -0.5352
18121SOL     OW60967   6.866   1.996   0.663  0.3752 -0.0165  0.3427
18121SOL    HW160968   6.817   2.004   0.745  0.0496  1.3305  0.0310
18121SOL    HW260969   6.858   2.081   0.621  0.0670 -0.8407 -1.3733
18122SOL     OW60970   6.105  11.894  11.336  0.1674 -0.1365  0.1822
18122SOL    HW160971   6.081  11.904  11.428  0.0953  3.0063 -0.0833
18122SOL    HW260972   6.199  11.874  11.338  0.7157  2.1992  0.9702
18123SOL     OW60973   9.268   1.187  11.868 -0.3142 -0.1097  0.1933
18123SOL    HW160974   9.271   1.172  11.773  0.5962  0.3882  0.1315
18123SOL    HW260975   9.326   1.120  11.905 -0.1400  0.1168  0.3345
18124SOL     OW60976   6.139   8.709   3.617  0.0250  0.1351 -0.1751
18124SOL    HW160977   6.200   8.661   3.674  0.2561  0.0713 -0.4765
18124SOL    HW260978   6.149   8.800   3.642 -0.3912  0.0392  0.3789
18125SOL     OW60979   0.589   6.724   5.578 -0.2219  0.5700 -0.2144
18125SOL    HW160980   0.648   6.778   5.525  0.8341  0.7167  1.0442
18125SOL    HW260981   0.648   6.668   5.629 -1.2369 -0.2531  0.1026
18126SOL     OW60982   9.551   8.148   3.476  0.7263 -0.3036  0.8927
18126SOL    HW160983   9.494   8.182   3.545  2.2872 -0.3604  2.2638
18126SOL    HW260984   9.494   8.092   3.424 -0.7252  0.4993  1.5518
18127SOL     OW60985   2.054   2.256   2.528 -0.8385 -0.2595  0.2061
18127SOL    HW160986   2.128   2.291   2.578  0.5080  0.7969 -2.3509
18127SOL    HW260987   2.042   2.168   2.563  2.0080 -0.6842  0.4193
18128SOL     OW60988   2.919   6.794  10.678 -0.2823  0.0441  0.0481
18128SOL    HW160989   2.970   6.862  10.720 -0.5562  0.3049 -0.0370
18128SOL    HW260990   2.841   6.839  10.645 -0.0615 -0.1556 -0.7519
18129SOL     OW60991   0.156   4.690   0.223  0.3384 -0.0920 -0.3222
18129SOL    HW160992   0.066   4.674   0.194 -0.2057 -0.8169  1.6165
18129SOL    HW260993   0.200   4.606   0.212 -0.0148 -0.5278  1.3093
18130SOL     OW60994   6.076   7.138   2.565  1.0890  0.3754  0.0798
18130SOL    HW160995   6.130   7.174   2.635  0.3864  0.7399  0.4439
18130SOL    HW260996   6.092   7.044   2.568  1.7262  0.4825  0.1581
18131SOL     OW60997   7.700  11.068  10.437  0.4530 -0.7780  0.2617
18131SOL    HW160998   7.788  11.088  10.470  0.5709 -1.9884  0.7338
18131SOL    HW260999   7.715  11.018  10.357  0.1639  0.7890 -0.8231
18132SOL     OW61000  11.093  11.378   2.877 -0.2296 -0.0202 -0.2510
18132SOL    HW161001  11.111  11.290   2.844  0.0339  0.0826 -0.3857
18132SOL    HW261002  11.135  11.381   2.963 -0.9168 -0.2882  0.1009
18133SOL     OW61003   6.153   5.179  11.725 -0.0467 -0.2764  0.2831
18133SOL    HW161004   6.243   5.187  11.694  0.0345 -1.6823  0.0631
18133SOL    HW261005   6.147   5.238  11.799  0.5498  1.1402 -0.7417
18134SOL     OW61006   1.199   2.126  10.670  0.4646  0.0645  0.0997
18134SOL    HW161007   1.215   2.128  10.576  1.8495  2.6621  0.3005
18134SOL    HW261008   1.282   2.096  10.708 -0.1351 -1.1248  0.5095
18135SOL     OW61009   6.157   5.718   2.740  0.2606  0.1973 -1.1906
18135SOL    HW161010   6.247   5.707   2.710  0.7746 -0.2413  0.4247
18135SOL    HW261011   6.114   5.635   2.720  0.0473  0.5792 -2.4146
18136SOL     OW61012   7.468   6.780   6.734  0.6248 -0.0482 -0.7850
18136SOL    HW161013   7.531   6.724   6.780 -0.0586  0.2071  0.5240
18136SOL    HW261014   7.448   6.732   6.654  1.3646 -0.8365 -0.5253
18137SOL     OW61015   6.585  11.093   6.600  0.4260  0.2007  0.1467
18137SOL    HW161016   6.626  11.072   6.516  0.5722  1.1316 -0.0235
18137SOL    HW261017   6.582  11.009   6.647  0.9022 -0.2088 -0.5412
18138SOL     OW61018   2.026  10.295  12.502  0.1479  0.6330  0.1620
18138SOL    HW161019   2.009  10.334  12.416 -0.2996 -1.0882 -0.5703
18138SOL    HW261020   1.943  10.307  12.549 -0.1761  0.0983 -0.2555
18139SOL     OW61021   2.436   3.728   7.119 -0.1616 -0.2152  0.0426
18139SOL    HW161022   2.520   3.759   7.154 -0.4261 -0.3029  0.7862
18139SOL    HW261023   2.431   3.636   7.146 -0.6540 -0.1125  0.3148
18140SOL     OW61024   1.078   7.662   4.643 -0.3885 -0.4569  0.1875
18140SOL    HW161025   1.074   7.631   4.734  0.8129 -1.1958  0.0183
18140SOL    HW261026   1.025   7.741   4.642 -0.4184 -0.4380  1.5432
18141SOL     OW61027   8.880   2.385   5.338 -0.2919 -0.1109  0.1040
18141SOL    HW161028   8.832   2.304   5.320  0.7301 -0.7031 -0.0122
18141SOL    HW261029   8.813   2.445   5.371 -1.1835 -0.7834 -0.4344
18142SOL     OW61030   0.674   3.708   0.935  0.1901  0.3397 -0.1232
18142SOL    HW161031   0.634   3.628   0.970 -0.4349 -0.4802 -2.5636
18142SOL    HW261032   0.766   3.701   0.961 -0.3260  0.1400  1.8750
18143SOL     OW61033   0.687   5.246   8.634  0.4443 -0.1982  0.1260
18143SOL    HW161034   0.668   5.333   8.598 -0.7357 -0.8904 -1.0423
18143SOL    HW261035   0.603   5.200   8.630  1.1541 -1.5479  0.2639
18144SOL     OW61036   1.048   4.156   1.301  0.1892 -0.1720  0.0660
18144SOL    HW161037   1.035   4.244   1.336  1.1257 -0.4023  1.0456
18144SOL    HW261038   0.961   4.129   1.271  0.0536  1.4616 -1.1964
18145SOL     OW61039   0.890  10.080   8.012  0.1649  0.0058  0.0472
18145SOL    HW161040   0.822  10.123   8.065  1.3426  1.5788  0.3631
18145SOL    HW261041   0.971  10.123   8.038  1.1220 -0.9431 -1.2409
18146SOL     OW61042   9.611   6.735   1.200 -0.1365  0.0706 -0.3396
18146SOL    HW161043   9.577   6.645   1.205  0.3122 -0.0906 -0.1113
18146SOL    HW261044   9.582   6.767   1.115  0.0420 -0.4350 -0.5941
18147SOL     OW61045   8.802   5.860   1.512  0.5524  0.1910  0.0094
18147SOL    HW161046   8.807   5.773   1.550  0.0101 -0.2250 -0.8314
18147SOL    HW261047   8.869   5.911   1.558  0.1532 -0.3674  1.2596
18148SOL     OW61048   7.892   3.782  10.104 -0.0434 -0.0507 -0.6278
18148SOL    HW161049   7.853   3.865  10.076 -0.0560 -0.7304 -2.7844
18148SOL    HW261050   7.986   3.799  10.105 -0.0677  0.0951 -0.7155
18149SOL     OW61051   8.024  11.788   7.286 -1.0492  0.2154  0.6596
18149SOL    HW161052   7.939  11.808   7.248 -0.6544 -0.9946 -0.9942
18149SOL    HW261053   8.085  11.845   7.239 -0.4467 -1.8474 -1.2588
18150SOL     OW61054   5.742  11.024   2.026 -0.1075 -0.0699 -0.0141
18150SOL    HW161055   5.647  11.021   2.019 -0.2062  2.4891 -0.6170
18150SOL    HW261056   5.759  11.025   2.120 -0.6430 -0.9062  0.0980
18151SOL     OW61057   0.957   4.622  10.844  0.0108  0.7488  0.1509
18151SOL    HW161058   1.012   4.691  10.881  1.9509 -0.6416  0.0335
18151SOL    HW261059   0.936   4.652  10.756  2.3987  0.4366 -0.5886
18152SOL     OW61060   1.894   9.745   6.629  0.2120  0.1246  0.1219
18152SOL    HW161061   1.967   9.684   6.633  0.7803  0.8296  0.8607
18152SOL    HW261062   1.870   9.749   6.537  0.6872 -0.5978 -0.0373
18153SOL     OW61063   0.799  10.997   0.527 -0.1656  0.2866  0.5802
18153SOL    HW161064   0.722  11.046   0.496 -0.0022 -0.2729 -0.8004
18153SOL    HW261065   0.800  11.011   0.622 -2.9489 -1.0279  0.9196
18154SOL     OW61066  11.450   1.059   0.629  0.4135 -0.4251  0.4867
18154SOL    HW161067  11.384   1.041   0.562 -0.5319  0.2088  1.2176
18154SOL    HW261068  11.486   0.972   0.651 -0.1577 -0.7755  0.0539
18155SOL     OW61069  10.297   6.702   4.759 -0.1035  0.3345 -0.3424
18155SOL    HW161070  10.340   6.686   4.843 -0.6404  0.6677 -0.0010
18155SOL    HW261071  10.316   6.794   4.740 -3.0697  1.3905  1.2478
18156SOL     OW61072   0.591   3.200  11.910 -0.2851 -0.3364  0.4431
18156SOL    HW161073   0.497   3.211  11.925 -0.3440  3.1229 -1.3049
18156SOL    HW261074   0.598   3.176  11.818  0.5397 -0.7368  0.6051
18157SOL     OW61075   4.669   0.775   7.591 -0.0559  0.0114  0.0169
18157SOL    HW161076   4.630   0.691   7.615 -1.0570 -0.1073 -1.8072
18157SOL    HW261077   4.760   0.769   7.621 -0.6781 -0.8450  1.8458
18158SOL     OW61078   1.262   8.019   3.693 -0.1520  0.4297 -0.0636
18158SOL    HW161079   1.171   7.991   3.686 -0.1545  0.8223 -2.9953
18158SOL    HW261080   1.257   8.110   3.722 -0.5990  0.0639  1.0499
18159SOL     OW61081   9.501   4.668   1.666 -0.1583  0.2940  0.2900
18159SOL    HW161082   9.476   4.623   1.747 -0.0086  2.0655  1.3607
18159SOL    HW261083   9.423   4.717   1.641 -0.1509 -0.1226 -0.5815
18160SOL     OW61084   7.602   4.025   1.907 -0.0292  0.1251  0.1884
18160SOL    HW161085   7.687   4.067   1.922 -0.9501  2.1114  0.0223
18160SOL    HW261086   7.574   4.056   1.821  0.6334 -3.3616 -1.4987
18161SOL     OW61087   3.677   6.905   6.860 -0.1189  0.0046 -0.3852
18161SOL    HW161088   3.731   6.840   6.906  2.4417  0.6397 -2.2919
18161SOL    HW261089   3.719   6.916   6.775 -2.8785  1.1667 -1.7268
18162SOL     OW61090   6.656   3.837   6.879  0.0253  0.0371 -0.1532
18162SOL    HW161091   6.719   3.768   6.900 -0.2367 -0.7717 -1.8456
18162SOL    HW261092   6.633   3.821   6.787 -0.5120  2.0139 -0.4127
18163SOL     OW61093  10.726  11.481   0.823  0.2099  0.0178 -0.0688
18163SOL    HW161094  10.709  11.461   0.731 -2.7862 -0.0268  0.4005
18163SOL    HW261095  10.670  11.556   0.842  1.1171  0.3084  1.6301
18164SOL     OW61096   7.670  12.399   8.258 -0.4058  0.1784  0.6471
18164SOL    HW161097   7.682  12.304   8.266 -2.1085 -0.1553 -0.2395
18164SOL    HW261098   7.744  12.437   8.306  0.1947 -1.5859  1.1948
18165SOL     OW61099   8.777   2.271   4.802 -0.2599  0.5639 -0.2301
18165SOL    HW161100   8.843   2.285   4.735 -0.1293  0.1325 -0.1971
18165SOL    HW261101   8.712   2.339   4.787  0.5717  1.4765  0.2197
18166SOL     OW61102   3.041   2.677  10.570 -0.1066  0.2720  0.1282
18166SOL    HW161103   3.133   2.652  10.565 -0.3973 -0.6009 -3.9401
18166SOL    HW261104   3.036   2.760  10.523 -1.4491  0.0219 -0.2142
18167SOL     OW61105   9.432   4.435   8.000 -0.5966  0.3193  0.0915
18167SOL    HW161106   9.392   4.475   7.923 -0.4911  2.6971  1.1542
18167SOL    HW261107   9.422   4.341   7.987 -1.5637  0.6769 -2.2659
18168SOL     OW61108   2.722   0.952   1.300  0.4417  0.1446  0.8800
18168SOL    HW161109   2.681   0.869   1.323  2.1898 -1.3431 -0.9254
18168SOL    HW261110   2.769   0.933   1.218  0.0180  3.2145 -0.2159
18169SOL     OW61111  10.894   6.035   6.738  0.4075  0.1935 -0.0995
18169SOL    HW161112  10.987   6.026   6.718  0.2783 -0.8900 -0.2501
18169SOL    HW261113  10.893   6.082   6.822  1.0143  1.9737 -1.0238
18170SOL     OW61114   8.838   8.054   6.705 -0.5322 -0.2561 -0.6102
18170SOL    HW161115   8.922   8.076   6.665 -1.1350  2.4096 -0.5833
18170SOL    HW261116   8.846   7.961   6.726  2.4406 -0.0942 -0.5257
18171SOL     OW61117  11.176   3.938   8.716  0.5822 -0.3734 -0.0444
18171SOL    HW161118  11.208   3.876   8.782 -1.0166  0.1816  1.3022
18171SOL    HW261119  11.200   4.024   8.750 -0.7162 -0.0519  0.1033
18172SOL     OW61120   7.488   6.257   4.267 -0.2888 -0.1013  0.7351
18172SOL    HW161121   7.402   6.283   4.235 -0.4935  0.7113  1.8728
18172SOL    HW261122   7.494   6.296   4.355  0.7940 -1.0689  1.1194
18173SOL     OW61123  11.249   1.549   0.287 -0.0588  0.3017 -0.4678
18173SOL    HW161124  11.291   1.495   0.220 -0.2605 -0.0053 -0.3479
18173SOL    HW261125  11.294   1.525   0.368  1.2484  1.7793 -0.7085
18174SOL     OW61126   8.691   1.589  12.207 -0.2705 -0.3628 -0.6907
18174SOL    HW161127   8.642   1.537  12.271 -0.2807 -0.2589 -0.6128
18174SOL    HW261128   8.758   1.633  12.259 -0.5040  0.0021 -0.6938
18175SOL     OW61129   7.965   6.451  12.167  0.0471  0.0343  0.0211
18175SOL    HW161130   7.992   6.527  12.115  0.3086  0.7031  1.1147
18175SOL    HW261131   7.882   6.424  12.128 -0.1420  0.9979 -0.2733
18176SOL     OW61132   4.087   0.038   5.602  0.1951 -0.1737 -0.6814
18176SOL    HW161133   4.170   0.054   5.647  0.7107  1.9241 -2.2258
18176SOL    HW261134   4.045  -0.031   5.654  1.2539  1.2182  2.2637
18177SOL     OW61135   2.797   9.199  10.940  0.3780 -0.3026  0.0077
18177SOL    HW161136   2.743   9.260  10.990  0.5670 -0.5628  0.5436
18177SOL    HW261137   2.755   9.114  10.953 -0.0505 -0.2497 -0.9744
18178SOL     OW61138  10.304  11.555  10.954  0.8702  0.2816  0.5006
18178SOL    HW161139  10.305  11.491  10.883  1.4291 -0.9655  1.5859
18178SOL    HW261140  10.212  11.564  10.977  0.8531 -0.8915  0.9616
18179SOL     OW61141   0.499   7.751  11.023 -0.4076 -0.0361  0.1144
18179SOL    HW161142   0.549   7.729  11.101  0.3655 -0.0743 -0.3814
18179SOL    HW261143   0.482   7.666  10.981  0.5088  0.0964 -0.5496
18180SOL     OW61144   0.782   1.914   9.300  0.2644  0.3282 -0.0484
18180SOL    HW161145   0.839   1.838   9.306 -0.3942 -0.1861 -0.2147
18180SOL    HW261146   0.842   1.988   9.284  0.8028 -0.3467 -1.2934
18181SOL     OW61147   2.670   9.556   2.552  0.4449  0.0044  0.2434
18181SOL    HW161148   2.602   9.549   2.620  0.7540 -2.9274  0.3861
18181SOL    HW261149   2.721   9.633   2.578 -3.2094  2.9740 -0.3806
18182SOL     OW61150   5.086   3.453  10.207 -0.0091  0.4501 -0.2449
18182SOL    HW161151   5.168   3.468  10.254 -1.0085  1.9671  1.1138
18182SOL    HW261152   5.050   3.541  10.192 -1.1985 -0.1573 -1.1908
18183SOL     OW61153   4.946   5.821  12.777  0.3232  0.0205  0.6058
18183SOL    HW161154   4.899   5.806  12.695  0.3561 -0.1396  0.6163
18183SOL    HW261155   4.970   5.914  12.775 -0.3043  0.1904  0.7622
18184SOL     OW61156  12.740   5.073  11.596 -0.0039 -0.0730 -0.1581
18184SOL    HW161157  12.762   4.996  11.647  0.2974  0.6800  0.8741
18184SOL    HW261158  12.669   5.115  11.645 -1.2506 -0.5000 -1.5145
18185SOL     OW61159   5.833   8.367   1.577 -0.1210 -0.3345 -0.6754
18185SOL    HW161160   5.882   8.298   1.531  0.9949 -0.2235  0.3135
18185SOL    HW261161   5.862   8.448   1.535  1.2094 -0.1965  0.4261
18186SOL     OW61162   7.336  12.299  10.146 -0.0209 -0.0586 -0.4618
18186SOL    HW161163   7.418  12.259  10.175 -0.4573 -1.0607 -0.5721
18186SOL    HW261164   7.310  12.247  10.070 -1.4360 -0.6099  0.3660
18187SOL     OW61165   9.294   6.152  12.493  0.3449  0.0422  0.2023
18187SOL    HW161166   9.280   6.083  12.427 -0.3770 -0.8799  1.2884
18187SOL    HW261167   9.331   6.107  12.568  0.5750  0.9828  0.6702
18188SOL     OW61168   0.587   1.555  11.140  0.7765  0.1470  0.8571
18188SOL    HW161169   0.569   1.603  11.059 -2.5745 -2.3068 -0.1034
18188SOL    HW261170   0.556   1.613  11.210  3.7857  2.3318  0.5660
18189SOL     OW61171  10.142   1.387   5.378 -0.4661 -0.0954 -0.1633
18189SOL    HW161172  10.217   1.402   5.436 -0.6370  0.3337 -0.0479
18189SOL    HW261173  10.070   1.368   5.438 -0.0774 -2.3044 -0.3261
18190SOL     OW61174   5.107   1.411   3.782  0.1688 -0.5312 -0.3343
18190SOL    HW161175   5.073   1.377   3.864  1.1433  2.1808  1.3585
18190SOL    HW261176   5.044   1.478   3.756  0.9722  0.1605 -0.5638
18191SOL     OW61177   1.136   4.514   0.410 -0.7374 -0.3644  0.0463
18191SOL    HW161178   1.198   4.493   0.340  0.4420 -1.9607  1.5085
18191SOL    HW261179   1.061   4.457   0.394 -2.2687  1.9927 -2.0835
18192SOL     OW61180   3.796   1.593   9.545  0.4579  0.1694 -0.3061
18192SOL    HW161181   3.707   1.627   9.544  0.2486 -0.3748 -0.9461
18192SOL    HW261182   3.809   1.563   9.635 -0.0157  0.2308 -0.2152
18193SOL     OW61183  11.932   2.527   4.515 -0.1520  0.0448  0.1065
18193SOL    HW161184  11.897   2.543   4.428  0.3766  0.1098 -0.0950
18193SOL    HW261185  11.905   2.603   4.567  1.8987  1.3900 -0.7018
18194SOL     OW61186   4.949   2.517   5.298  0.5730  0.0611  0.0043
18194SOL    HW161187   4.919   2.519   5.207  1.4362 -0.2528 -0.2980
18194SOL    HW261188   4.962   2.609   5.321 -0.1018  0.1698 -0.0251
18195SOL     OW61189  10.346  10.575  11.724 -0.2397  0.5114  0.5545
18195SOL    HW161190  10.272  10.636  11.724 -2.5599 -2.0207 -2.0176
18195SOL    HW261191  10.398  10.601  11.648 -0.0649  0.5123  0.6727
18196SOL     OW61192  12.075   3.811   9.015 -0.8035 -0.5044  0.3215
18196SOL    HW161193  12.087   3.891   8.964  0.7221 -1.2228 -0.5151
18196SOL    HW261194  12.080   3.741   8.951 -0.8157 -1.3486  1.2158
18197SOL     OW61195   2.522   8.002  10.913 -0.4269 -0.1703  0.4359
18197SOL    HW161196   2.455   7.934  10.902  0.4244 -0.9479 -0.0795
18197SOL    HW261197   2.506   8.063  10.840 -0.4906 -0.4265  0.2350
18198SOL     OW61198   6.655   5.757   7.877 -0.3958 -0.6206 -0.0806
18198SOL    HW161199   6.646   5.664   7.900 -0.0616 -0.5837  0.2126
18198SOL    HW261200   6.566   5.786   7.857 -0.9404 -0.3188  2.4988
18199SOL     OW61201   7.951   8.245   0.922  0.1651 -0.1186  0.2337
18199SOL    HW161202   7.894   8.319   0.902  0.4695  0.2738  0.8061
18199SOL    HW261203   7.905   8.197   0.991  0.9548  0.7337  1.3872
18200SOL     OW61204   1.440   1.098   2.394 -0.0581 -0.7105 -0.3595
18200SOL    HW161205   1.490   1.068   2.470 -0.1398 -0.0325 -0.0222
18200SOL    HW261206   1.506   1.124   2.330  0.1286  1.6750  0.6694
18201SOL     OW61207   6.103  10.078   0.107  0.0219 -0.2673  0.5379
18201SOL    HW161208   6.157  10.020   0.161  1.0165  0.3871  0.2799
18201SOL    HW261209   6.135  10.064   0.018  0.1338  0.5122  0.4491
18202SOL     OW61210  10.026  12.318   9.663  0.3614  0.5825 -0.6482
18202SOL    HW161211   9.964  12.388   9.683 -1.1053 -1.3377  2.3561
18202SOL    HW261212   9.972  12.247   9.628  1.3831 -0.0602 -0.9866
18203SOL     OW61213   3.347   4.803  12.634  0.3731  0.4378  0.3646
18203SOL    HW161214   3.329   4.792  12.540  1.6708  2.6683 -0.2204
18203SOL    HW261215   3.440   4.783  12.642 -0.0117 -1.0821  1.4844
18204SOL     OW61216   6.309   2.880   4.807  0.0514 -0.1972  0.3674
18204SOL    HW161217   6.391   2.830   4.801  0.5412  0.5683  0.5531
18204SOL    HW261218   6.329   2.964   4.767 -1.3400 -0.8001 -1.7653
18205SOL     OW61219   6.679   2.249   9.590 -0.5125 -0.4468  0.2075
18205SOL    HW161220   6.675   2.328   9.644 -0.4770  0.1845 -0.6943
18205SOL    HW261221   6.731   2.187   9.641  0.2177  0.4228  0.5350
18206SOL     OW61222   8.799   6.022  10.968 -0.0978  0.6727  0.5219
18206SOL    HW161223   8.818   6.082  11.040  0.5442  0.4642  0.5310
18206SOL    HW261224   8.876   5.966  10.963 -1.2267 -1.0242  1.3788
18207SOL     OW61225  10.009   6.750   3.237  0.0649  0.1365  0.2046
18207SOL    HW161226  10.101   6.725   3.243  0.1628  0.1773 -0.9121
18207SOL    HW261227   9.963   6.667   3.220 -0.0247  0.2059  0.1081
18208SOL     OW61228   7.805   0.301   3.545  0.0092  0.4843  0.1583
18208SOL    HW161229   7.726   0.254   3.519 -0.3850  0.6202  1.0761
18208SOL    HW261230   7.845   0.329   3.462 -0.4640 -0.2884 -0.3395
18209SOL     OW61231   3.911   6.276   9.937 -0.7731  0.2981 -0.2489
18209SOL    HW161232   3.911   6.192   9.983  1.6597  0.2203 -0.2595
18209SOL    HW261233   3.818   6.301   9.932 -1.3505 -1.0847  2.1157
18210SOL     OW61234  10.869  11.574   1.217  0.3322 -0.1298  0.1130
18210SOL    HW161235  10.946  11.542   1.170 -1.1007 -0.1959 -2.3729
18210SOL    HW261236  10.894  11.661   1.247  0.7805  0.6803 -2.3897
18211SOL     OW61237   4.240   4.896   1.167 -0.0029  0.0596 -0.1036
18211SOL    HW161238   4.250   4.902   1.262 -1.3732  0.1039  0.0534
18211SOL    HW261239   4.295   4.966   1.132  0.4463  0.0928  0.6498
18212SOL     OW61240   7.358   9.278   9.174 -0.0957 -0.3708 -0.6688
18212SOL    HW161241   7.375   9.372   9.173  0.6251 -0.5067 -1.9395
18212SOL    HW261242   7.283   9.269   9.234 -0.1444  0.9935 -0.4861
18213SOL     OW61243  11.876  11.570   2.685 -0.1075  0.2482 -0.1822
18213SOL    HW161244  11.892  11.490   2.635 -0.0361  0.3540 -0.3273
18213SOL    HW261245  11.810  11.617   2.635  0.0975  0.4404 -0.2716
18214SOL     OW61246   8.194   8.071   0.146 -0.1486  0.2786  0.5708
18214SOL    HW161247   8.106   8.106   0.159  0.2238  1.1926  0.6754
18214SOL    HW261248   8.246   8.112   0.214  0.5825  0.5474 -0.1422
18215SOL     OW61249   3.229   2.641   6.335 -0.2977 -0.5463  0.5793
18215SOL    HW161250   3.238   2.576   6.404 -1.1046 -0.2539  0.9747
18215SOL    HW261251   3.317   2.648   6.297  0.0526 -1.0432  1.2679
18216SOL     OW61252   8.666   2.473   7.477  0.3878 -0.0982 -0.0030
18216SOL    HW161253   8.723   2.440   7.407 -0.2755  0.4629 -0.8268
18216SOL    HW261254   8.725   2.520   7.536  0.8932 -0.2219 -0.4012
18217SOL     OW61255   0.036  11.531   0.680  0.2916  0.3181 -0.4507
18217SOL    HW161256  -0.038  11.585   0.654 -2.4177 -2.6812  0.4436
18217SOL    HW261257   0.058  11.562   0.768 -0.6272  0.5224 -0.2904
18218SOL     OW61258  10.704   6.817   1.134 -0.4925  0.1989  0.1854
18218SOL    HW161259  10.675   6.759   1.064 -1.4851 -0.3516  1.0195
18218SOL    HW261260  10.639   6.805   1.203  0.9756 -0.0310  1.6014
18219SOL     OW61261   5.974   5.629  11.452 -0.4156  0.2184 -0.0318
18219SOL    HW161262   5.910   5.563  11.428  0.6611 -0.2857 -1.6856
18219SOL    HW261263   6.018   5.593  11.529 -0.1425 -0.7964 -0.6460
18220SOL     OW61264   1.558  10.526   3.535  0.7470  0.2596  0.1408
18220SOL    HW161265   1.579  10.436   3.510  0.3725 -0.0844  1.0009
18220SOL    HW261266   1.639  10.574   3.519  1.5511 -0.6061  1.3319
18221SOL     OW61267   7.321   0.426  10.334  0.3525 -0.2579  0.5285
18221SOL    HW161268   7.255   0.478  10.381 -0.0644 -0.5995  0.3205
18221SOL    HW261269   7.381   0.396  10.403  0.0763 -0.2684  0.7634
18222SOL     OW61270   0.849  11.538  11.710 -0.3069  0.6048  0.6055
18222SOL    HW161271   0.910  11.604  11.741  1.9339 -1.3879  0.6780
18222SOL    HW261272   0.765  11.561  11.750  0.3290  3.4675  0.4496
18223SOL     OW61273   4.265   9.664   3.886  0.5354  0.0836  0.2035
18223SOL    HW161274   4.221   9.610   3.820 -0.9445 -0.1828  1.3559
18223SOL    HW261275   4.210   9.742   3.895  1.7951  1.0750 -0.2844
18224SOL     OW61276   5.598   0.913  10.017 -0.0314  0.3480 -0.4084
18224SOL    HW161277   5.537   0.883  10.084 -2.2648  2.3769 -1.3879
18224SOL    HW261278   5.684   0.894  10.053 -1.1839 -1.4229  1.6414
18225SOL     OW61279   5.488   5.300   5.560 -0.0215  0.2975  0.3400
18225SOL    HW161280   5.491   5.306   5.464 -0.7727  1.1224  0.3617
18225SOL    HW261281   5.442   5.379   5.588 -1.1829 -0.6646  1.2823
18226SOL     OW61282  11.921   4.548   7.180  0.3410  0.0728 -0.1933
18226SOL    HW161283  11.862   4.529   7.108 -0.7386 -0.1152  0.7177
18226SOL    HW261284  11.903   4.480   7.245  0.8333  0.6038  0.5237
18227SOL     OW61285   4.858  10.967   4.538  0.3492  0.6168  0.1392
18227SOL    HW161286   4.887  11.005   4.456  1.2858 -0.3968 -0.0192
18227SOL    HW261287   4.776  10.921   4.516  0.4284  0.6194 -0.1604
18228SOL     OW61288   8.054  11.616   1.454 -0.8478 -0.4174 -0.2585
18228SOL    HW161289   8.032  11.641   1.364  0.8468 -0.1025 -0.6287
18228SOL    HW261290   8.044  11.521   1.456 -2.3053 -0.2863 -0.3383
18229SOL     OW61291   4.729  10.733   1.488 -0.2501 -0.4765  0.1468
18229SOL    HW161292   4.721  10.691   1.574 -2.4698  0.4781  0.4605
18229SOL    HW261293   4.695  10.670   1.426  1.8154 -1.3702 -0.1764
18230SOL     OW61294   0.639  12.195   2.782 -0.2402 -0.2059 -0.2510
18230SOL    HW161295   0.695  12.176   2.857 -0.3484  0.0663 -0.1017
18230SOL    HW261296   0.699  12.222   2.713 -0.0630 -1.2651 -0.5262
18231SOL     OW61297   6.492   7.512  10.100  0.1843  0.0770  0.6032
18231SOL    HW161298   6.490   7.521  10.195 -0.4819 -0.0263  0.6063
18231SOL    HW261299   6.571   7.462  10.083 -0.0341 -0.4847  1.1645
18232SOL     OW61300   5.190   3.192   3.659 -0.8534  0.1014 -0.1644
18232SOL    HW161301   5.275   3.185   3.704 -0.5721  2.2535 -0.2725
18232SOL    HW261302   5.203   3.261   3.594 -2.8860  0.9748  0.2878
18233SOL     OW61303  11.828   0.584   5.778 -0.5640 -0.2474 -0.4964
18233SOL    HW161304  11.838   0.500   5.822  0.1935 -0.5260 -1.1899
18233SOL    HW261305  11.813   0.646   5.850  0.1499 -0.7733  0.1265
18234SOL     OW61306   9.703   9.972   1.486  0.1678 -0.6579  0.1570
18234SOL    HW161307   9.618   9.962   1.529 -0.1007 -1.8431 -0.6145
18234SOL    HW261308   9.753   9.896   1.515  0.6506 -0.4496 -0.1187
18235SOL     OW61309   4.647   4.795   0.229 -0.3594  0.1953 -0.5300
18235SOL    HW161310   4.622   4.768   0.318  1.1604  1.0784  0.1905
18235SOL    HW261311   4.600   4.877   0.216 -0.3425  0.2209 -0.4336
18236SOL     OW61312   3.840   8.716   3.847 -0.3292  0.5083 -0.6024
18236SOL    HW161313   3.795   8.679   3.771 -1.5594  1.6081 -0.4478
18236SOL    HW261314   3.932   8.690   3.835 -0.3280  1.3134 -2.8768
18237SOL     OW61315  10.476   3.902   3.505  0.5559 -0.2076 -0.4745
18237SOL    HW161316  10.416   3.935   3.572  3.3215  0.4659  1.8724
18237SOL    HW261317  10.420   3.885   3.429 -2.8282 -1.1188  1.9699
18238SOL     OW61318   8.468  11.355  11.926  0.2922 -0.0901 -0.5558
18238SOL    HW161319   8.386  11.370  11.879  1.1743  1.0120 -1.8130
18238SOL    HW261320   8.532  11.409  11.880  1.1913  1.2310  2.0581
18239SOL     OW61321   0.481   2.587   6.553  0.2234  0.1719  0.0096
18239SOL    HW161322   0.432   2.647   6.497 -0.3900  0.1833  0.5509
18239SOL    HW261323   0.571   2.590   6.519 -0.5980 -1.8854 -2.7794
18240SOL     OW61324   3.664   3.730   1.177  0.0643 -0.0095  0.3182
18240SOL    HW161325   3.618   3.716   1.259 -1.5100 -0.5687 -0.6226
18240SOL    HW261326   3.718   3.808   1.192  0.7225 -0.7935  2.2306
18241SOL     OW61327  10.838   2.050   5.473  0.4615 -0.0336  0.2584
18241SOL    HW161328  10.785   2.092   5.405 -1.1665  0.4554  1.7582
18241SOL    HW261329  10.860   1.965   5.436 -0.3760  0.2127 -0.8903
18242SOL     OW61330  11.361   2.451   6.972  0.1652  0.3076 -0.7943
18242SOL    HW161331  11.411   2.503   7.035  0.2673 -0.1421 -0.4994
18242SOL    HW261332  11.409   2.369   6.964 -0.9543 -0.4802  0.1488
18243SOL     OW61333   0.235   6.455   0.796  0.2759  0.0338 -0.0649
18243SOL    HW161334   0.192   6.371   0.808 -0.0129  0.0793 -0.7292
18243SOL    HW261335   0.174   6.507   0.744  1.5031 -0.2582 -1.9351
18244SOL     OW61336  11.239   6.072  11.284 -0.2731 -0.0159 -0.0389
18244SOL    HW161337  11.301   6.083  11.212  0.0869  0.4361  0.3304
18244SOL    HW261338  11.185   6.151  11.281  0.3749  0.4725  0.7803
18245SOL     OW61339   6.515   7.514  12.722 -0.2399 -0.5832 -0.2062
18245SOL    HW161340   6.514   7.593  12.669 -0.4453 -0.2338  0.3147
18245SOL    HW261341   6.428   7.509  12.760  0.1050 -0.4764  0.6158
18246SOL     OW61342   6.505   6.328  12.351  0.2397  0.6659 -0.8384
18246SOL    HW161343   6.562   6.304  12.278  0.5369 -3.0453  0.3793
18246SOL    HW261344   6.424   6.279  12.335 -0.1219  0.6993  0.7074
18247SOL     OW61345   9.023   7.279  10.223 -0.2098  0.5199 -0.6110
18247SOL    HW161346   8.996   7.280  10.315 -1.1846 -3.2389 -0.7227
18247SOL    HW261347   9.119   7.283  10.227 -0.2175 -0.0522  0.5942
18248SOL     OW61348   8.524   5.096  10.744  0.5067  0.0011 -0.2196
18248SOL    HW161349   8.571   5.064  10.668  1.0683  0.6348 -0.1506
18248SOL    HW261350   8.493   5.183  10.718 -2.0687 -1.0027 -0.8623
18249SOL     OW61351   7.419   3.787   0.153  0.1432  0.1128 -0.1194
18249SOL    HW161352   7.500   3.822   0.191  0.0581  0.2536 -0.0659
18249SOL    HW261353   7.434   3.693   0.148 -0.1752 -0.0165  1.0722
18250SOL     OW61354   0.350  10.781  10.523  0.1669 -0.4340  0.2726
18250SOL    HW161355   0.301  10.862  10.539 -1.3263 -1.4790  1.2557
18250SOL    HW261356   0.439  10.800  10.554  0.2677  1.2973 -0.9639
18251SOL     OW61357   4.678   1.191   5.398 -0.0265 -0.1059 -0.1849
18251SOL    HW161358   4.687   1.260   5.464 -2.0304 -0.0273  0.0583
18251SOL    HW261359   4.612   1.224   5.338  1.2562 -0.4876 -1.8816
18252SOL     OW61360  10.969   1.594  12.421 -0.1332  0.1734 -0.0996
18252SOL    HW161361  10.897   1.654  12.440 -0.0184  0.1539  0.4160
18252SOL    HW261362  11.006   1.627  12.339 -0.8109  0.0983 -0.4462
18253SOL     OW61363   2.027   4.168   7.926 -0.3242  0.1261  0.1051
18253SOL    HW161364   1.996   4.078   7.937  0.4999 -0.0595  0.9782
18253SOL    HW261365   2.067   4.190   8.010  2.4332  0.1380 -1.1064
18254SOL     OW61366   0.786  11.116   5.074  0.1428 -0.0355  0.8430
18254SOL    HW161367   0.820  11.185   5.130  0.2649  0.4470  0.1779
18254SOL    HW261368   0.816  11.138   4.986 -1.6925  0.2990  0.2562
18255SOL     OW61369  10.801   9.254   1.679 -0.1609 -0.2426 -0.0671
18255SOL    HW161370  10.882   9.297   1.650 -0.7056  0.0083 -1.3220
18255SOL    HW261371  10.786   9.287   1.767  0.0938  1.2143 -0.5423
18256SOL     OW61372  10.774  12.039   2.913 -0.0965 -0.4638  0.4572
18256SOL    HW161373  10.737  12.119   2.877 -1.2223  0.5291  3.5004
18256SOL    HW261374  10.735  11.969   2.861 -0.4734  0.8725 -1.1413
18257SOL     OW61375   6.058   6.007   8.898 -0.2015 -0.4207  0.0338
18257SOL    HW161376   5.977   6.048   8.930 -0.8639 -1.2670 -0.5135
18257SOL    HW261377   6.098   6.072   8.841  0.6349  0.8477  1.9708
18258SOL     OW61378   2.791   4.653   7.176 -0.4617 -0.3868 -0.5293
18258SOL    HW161379   2.720   4.683   7.232 -0.3435 -2.8136  1.0662
18258SOL    HW261380   2.756   4.574   7.134  1.0688 -1.2702 -0.1979
18259SOL     OW61381   1.075   8.743   8.782 -0.5485  0.2740 -0.1557
18259SOL    HW161382   1.056   8.740   8.876  1.0527  1.8835  0.2627
18259SOL    HW261383   1.161   8.703   8.773 -0.5427  0.4439 -0.9185
18260SOL     OW61384   9.566   4.603   8.562 -0.6836  0.2112  0.0992
18260SOL    HW161385   9.484   4.580   8.518  0.0654 -0.4256 -1.0438
18260SOL    HW261386   9.611   4.661   8.500  0.2916 -0.5124  0.0902
18261SOL     OW61387   9.566   5.892   1.431  0.0486  0.0168 -0.4715
18261SOL    HW161388   9.608   5.812   1.397 -1.2371 -0.2260 -1.5734
18261SOL    HW261389   9.518   5.863   1.508  0.6296 -0.0057 -0.1100
18262SOL     OW61390   4.090   3.754   1.369  0.2651  0.5013  0.1708
18262SOL    HW161391   4.173   3.800   1.379  0.1807  0.6578  0.1596
18262SOL    HW261392   4.102   3.700   1.291  1.1314 -1.1986  1.4296
18263SOL     OW61393  10.297   0.508   9.511  0.0113  0.4122  0.0397
18263SOL    HW161394  10.371   0.564   9.488  0.6837  0.5845  2.3348
18263SOL    HW261395  10.257   0.485   9.427  2.9742 -0.1495 -1.3275
18264SOL     OW61396   8.760   3.296   3.823 -0.0759  0.5194 -0.1726
18264SOL    HW161397   8.841   3.305   3.773 -0.5496  3.2057 -0.6334
18264SOL    HW261398   8.767   3.210   3.865  3.0968  0.7164 -0.0124
18265SOL     OW61399   5.668   1.852   8.018  0.0814 -0.1618 -0.1749
18265SOL    HW161400   5.715   1.796   7.956  0.0115 -0.7272  0.2650
18265SOL    HW261401   5.621   1.915   7.964  0.4485 -0.3096 -0.6652
18266SOL     OW61402   4.510   8.776  10.398  0.2984  0.9411  0.4027
18266SOL    HW161403   4.562   8.723  10.337 -0.9421 -0.4427  0.4743
18266SOL    HW261404   4.554   8.764  10.483 -0.3978 -0.6854  0.5766
18267SOL     OW61405   1.932   0.644   3.236 -0.2497 -0.0048  0.2738
18267SOL    HW161406   1.891   0.689   3.310  0.0355  0.9342 -0.1195
18267SOL    HW261407   1.888   0.559   3.232  0.2689 -0.3930  1.9963
18268SOL     OW61408  10.915   1.061   0.798  0.2103  0.2494  0.7673
18268SOL    HW161409  11.009   1.081   0.805 -0.2893  2.5680  1.5434
18268SOL    HW261410  10.877   1.137   0.754 -1.4781 -0.1834  1.4079
18269SOL     OW61411   5.565   6.197   8.387  0.0559 -0.0932 -0.1823
18269SOL    HW161412   5.573   6.208   8.292  0.9974 -0.6431 -0.1821
18269SOL    HW261413   5.535   6.107   8.399  0.1804 -0.1074  0.0434
18270SOL     OW61414   5.695   3.875   8.810  0.2686  0.7586 -0.2290
18270SOL    HW161415   5.654   3.856   8.726  0.8121  0.0803 -0.3523
18270SOL    HW261416   5.786   3.846   8.799  0.2206  0.2225  0.7538
18271SOL     OW61417   6.276   8.139   9.410  0.3223  0.2620  0.1059
18271SOL    HW161418   6.366   8.172   9.421  0.5465  0.0336 -0.9244
18271SOL    HW261419   6.221   8.211   9.442  0.8560  0.7621 -0.0632
18272SOL     OW61420   2.620   7.847  12.330  0.3296  0.5556  0.1094
18272SOL    HW161421   2.689   7.911  12.320 -0.3025  1.1812 -0.3534
18272SOL    HW261422   2.570   7.852  12.248  0.6492 -0.9803 -0.2033
18273SOL     OW61423   9.398  12.145   9.074 -0.0999 -0.2465 -0.6377
18273SOL    HW161424   9.438  12.122   9.158 -1.5359  2.7683  1.0419
18273SOL    HW261425   9.460  12.206   9.034 -0.0930 -0.5350 -1.0684
18274SOL     OW61426   6.273   8.671   5.340  0.3876 -0.2890 -0.1256
18274SOL    HW161427   6.222   8.590   5.335  0.7538 -0.6013  1.0051
18274SOL    HW261428   6.317   8.667   5.425  2.6705 -0.2809 -1.2031
18275SOL     OW61429   3.859  11.835   8.529  0.1924 -0.5821 -0.0487
18275SOL    HW161430   3.849  11.844   8.434  0.6715 -2.6424 -0.3350
18275SOL    HW261431   3.770  11.827   8.562 -0.0248  0.9004 -0.2020
18276SOL     OW61432   0.671   5.236   4.276 -0.2707  0.2849  0.1098
18276SOL    HW161433   0.742   5.199   4.224  0.2909  0.0635  1.0196
18276SOL    HW261434   0.678   5.330   4.264 -0.4947  0.2089 -0.6540
18277SOL     OW61435   2.831   7.504   6.202  0.1678  0.1604 -0.4775
18277SOL    HW161436   2.847   7.597   6.186  2.0073 -0.0292  0.0774
18277SOL    HW261437   2.842   7.463   6.117 -0.7821  0.4381 -0.7514
18278SOL     OW61438   2.842   0.268   7.852 -0.5210 -0.5937 -0.8599
18278SOL    HW161439   2.819   0.176   7.863  0.3155 -0.9072 -1.6340
18278SOL    HW261440   2.906   0.269   7.781  0.7120  0.4012  0.2039
18279SOL     OW61441   5.153   5.344  12.588 -0.0555  0.0529  0.3635
18279SOL    HW161442   5.086   5.363  12.522 -0.0770 -0.0105  0.3666
18279SOL    HW261443   5.144   5.414  12.653  0.5889  0.6464 -0.1776
18280SOL     OW61444  10.609  11.997   3.571 -0.1271  0.2596 -0.3229
18280SOL    HW161445  10.630  12.083   3.610  0.5753 -0.4663  0.9877
18280SOL    HW261446  10.667  11.936   3.616 -2.2953 -1.2905  0.5549
18281SOL     OW61447  11.385   7.018   2.389 -0.1146  0.3123 -0.4126
18281SOL    HW161448  11.417   6.999   2.477 -0.0206  1.2359 -0.2371
18281SOL    HW261449  11.308   6.962   2.379  0.3910 -0.4527 -0.0865
18282SOL     OW61450   4.714   3.934   6.361  0.0120  0.7206  0.2209
18282SOL    HW161451   4.642   3.922   6.424 -1.4347  1.1038 -1.2940
18282SOL    HW261452   4.704   3.861   6.300  2.7470 -0.9521  1.5514
18283SOL     OW61453   6.890   8.592  12.572  0.1246  0.3149 -0.0454
18283SOL    HW161454   6.806   8.637  12.568 -1.3970 -2.4297 -1.4552
18283SOL    HW261455   6.910   8.570  12.481  0.3435 -2.5194  0.6052
18284SOL     OW61456   1.026   0.757   2.319 -0.0694  0.4134 -0.1688
18284SOL    HW161457   1.053   0.731   2.231 -1.6075  2.3957 -1.3151
18284SOL    HW261458   1.039   0.852   2.321 -3.6557  1.0352  0.2716
18285SOL     OW61459   1.505   5.484   8.060  0.1367 -0.2985 -0.2865
18285SOL    HW161460   1.576   5.442   8.011  0.8375 -0.4690  0.8226
18285SOL    HW261461   1.430   5.426   8.051  0.6627 -1.0294 -0.0280
18286SOL     OW61462  11.823   7.226   0.412  0.9739  0.0087 -0.2793
18286SOL    HW161463  11.918   7.214   0.424  1.0812  1.9216  1.4764
18286SOL    HW261464  11.804   7.308   0.457 -1.9537 -1.5547  1.6781
18287SOL     OW61465  11.693   2.420   3.964  0.0283 -0.2864  0.0884
18287SOL    HW161466  11.757   2.359   4.001  1.9680  1.1977 -0.6355
18287SOL    HW261467  11.627   2.364   3.924  0.1330 -1.8968  1.9832
18288SOL     OW61468   2.229  10.673   3.385  0.2527  0.0853  0.4271
18288SOL    HW161469   2.298  10.737   3.365  0.3222 -0.3332 -0.7977
18288SOL    HW261470   2.249  10.599   3.327 -0.7051 -0.4104  0.7184
18289SOL     OW61471   4.985   1.565   9.405  0.4349 -0.4997 -0.3639
18289SOL    HW161472   4.931   1.531   9.334  1.0403  0.4788 -1.3306
18289SOL    HW261473   5.075   1.555   9.374  0.6651  1.1542 -0.3458
18290SOL     OW61474  12.205   7.186  10.685 -0.5845  0.0888  0.3398
18290SOL    HW161475  12.111   7.199  10.698 -0.1732  1.1574  3.0096
18290SOL    HW261476  12.234   7.144  10.766  1.8662  3.8118  1.6316
18291SOL     OW61477  10.402   7.462   1.152  0.3537  0.0359 -0.2038
18291SOL    HW161478  10.448   7.391   1.107 -0.3210  0.8509 -2.2644
18291SOL    HW261479  10.333   7.489   1.092 -0.5609  1.2589  1.3021
18292SOL     OW61480  11.959   2.164   4.594 -0.3553 -0.2690  1.0631
18292SOL    HW161481  12.010   2.220   4.536 -1.5515 -0.5949 -0.3732
18292SOL    HW261482  12.024   2.122   4.650  0.5971  2.3993  2.1219
18293SOL     OW61483   7.811   1.978   5.095 -0.1327  0.9060 -0.1934
18293SOL    HW161484   7.739   2.015   5.145  1.2181  0.8612  1.8995
18293SOL    HW261485   7.869   2.052   5.078  0.8381  0.4268  0.9050
18294SOL     OW61486  10.317   5.268  11.901  0.1925  0.2465  0.2553
18294SOL    HW161487  10.293   5.216  11.824  0.1062 -1.1112  1.1708
18294SOL    HW261488  10.337   5.203  11.969 -0.0130  1.4135  1.4692
18295SOL     OW61489   0.370  12.451   1.898 -0.0950  0.2647 -0.1211
18295SOL    HW161490   0.415  12.494   1.970  1.4011 -0.0660 -0.8301
18295SOL    HW261491   0.292  12.412   1.939  0.3392  0.6952  1.1654
18296SOL     OW61492  12.717   6.675   7.246  0.0412 -0.0017  0.7316
18296SOL    HW161493  12.669   6.751   7.214 -0.0622  0.0678  1.0432
18296SOL    HW261494  12.781   6.657   7.178 -0.2086  0.1091  0.4640
18297SOL     OW61495   7.849   9.082   6.011 -0.0105  0.4817 -0.3857
18297SOL    HW161496   7.782   9.086   6.079 -1.1982 -1.3128 -1.3752
18297SOL    HW261497   7.828   9.156   5.953 -0.3716  0.6598 -0.0364
18298SOL     OW61498   0.764  11.833   9.234  0.3613  0.7355  0.6047
18298SOL    HW161499   0.801  11.749   9.262  0.4843  0.2051 -1.0316
18298SOL    HW261500   0.678  11.836   9.275  0.2857 -0.2761  0.5518
18299SOL     OW61501  10.589  10.121   0.594  0.7120  0.3669  0.2112
18299SOL    HW161502  10.674  10.078   0.587 -0.8462 -2.7195 -1.9097
18299SOL    HW261503  10.577  10.164   0.509 -0.6859 -1.0575 -0.3550
18300SOL     OW61504  11.358   7.246   2.162  0.5399 -0.1374  0.3936
18300SOL    HW161505  11.340   7.177   2.226 -0.0237  0.9509  1.4381
18300SOL    HW261506  11.274   7.262   2.119  0.7861 -0.4502 -0.2248
18301SOL     OW61507   9.340   8.313  11.769  0.5239 -0.2188 -0.3304
18301SOL    HW161508   9.294   8.394  11.747 -0.8161 -0.8736 -0.0514
18301SOL    HW261509   9.281   8.243  11.740  0.6949 -1.1057  1.3191
18302SOL     OW61510   3.812  11.594  12.066  0.0586 -0.1427 -0.5048
18302SOL    HW161511   3.897  11.616  12.029  0.3719  0.0519  0.3171
18302SOL    HW261512   3.749  11.624  12.001  0.5651  1.0103 -0.4869
18303SOL     OW61513   3.846   7.075   7.206  0.6526 -0.0954 -0.4391
18303SOL    HW161514   3.888   7.002   7.160 -1.0911 -0.9109 -0.7931
18303SOL    HW261515   3.773   7.099   7.150  0.2216  0.8451  0.5041
18304SOL     OW61516   5.297   5.661   9.699 -0.2724  0.6085 -0.0023
18304SOL    HW161517   5.372   5.627   9.649 -0.1524 -0.3212  0.7987
18304SOL    HW261518   5.254   5.722   9.638 -0.0136 -0.3401 -1.1763
18305SOL     OW61519   2.144   3.474   4.257 -0.1311 -0.2706 -0.2313
18305SOL    HW161520   2.109   3.556   4.294  0.9795 -0.1858  0.6947
18305SOL    HW261521   2.239   3.484   4.263  0.1032 -0.4604 -2.7523
18306SOL     OW61522   4.438   4.905   6.233 -0.1066 -0.5181  0.4320
18306SOL    HW161523   4.485   4.832   6.193  1.6550 -0.6421  2.5206
18306SOL    HW261524   4.397   4.951   6.160 -0.6783 -3.1457 -1.0319
18307SOL     OW61525   9.542   3.767   0.819  0.1746  0.2634  0.1830
18307SOL    HW161526   9.552   3.773   0.914  0.3275 -1.6536  0.3313
18307SOL    HW261527   9.524   3.856   0.791 -2.5974  0.5229  2.3203
18308SOL     OW61528   4.875   2.480   1.901  0.4806  0.2296 -0.9058
18308SOL    HW161529   4.816   2.537   1.852 -1.4928 -0.2136  0.8084
18308SOL    HW261530   4.940   2.539   1.938 -1.6616  1.5433  1.0520
18309SOL     OW61531   6.452   4.944   3.368 -0.0067  0.3332 -0.7344
18309SOL    HW161532   6.415   4.856   3.359  2.3329 -0.9539  1.1895
18309SOL    HW261533   6.384   5.002   3.334 -1.7517 -2.1710 -1.8103
18310SOL     OW61534   9.741   8.859   1.311  0.3877  0.4845  0.1276
18310SOL    HW161535   9.784   8.899   1.236  4.2070  1.1582  2.4237
18310SOL    HW261536   9.770   8.768   1.310  0.6207  0.5400  0.8286
18311SOL     OW61537   3.834   4.894   1.387  0.0910 -0.2542  0.3523
18311SOL    HW161538   3.752   4.848   1.409  0.7098 -1.5793 -0.0126
18311SOL    HW261539   3.872   4.842   1.317  1.0052  0.6501  0.1655
18312SOL     OW61540   6.660   2.144  10.804  0.3045 -0.4224 -0.5980
18312SOL    HW161541   6.578   2.189  10.821 -0.3180 -1.5795 -0.4145
18312SOL    HW261542   6.679   2.162  10.712  0.7937  1.3105 -0.1938
18313SOL     OW61543  10.146   9.616   8.887  0.1095  0.4329  0.5449
18313SOL    HW161544  10.076   9.666   8.929  0.4014  0.2806  1.2125
18313SOL    HW261545  10.117   9.607   8.796 -0.4931  0.8164  0.6935
18314SOL     OW61546   0.544  10.064   6.372 -0.0780  0.2631  0.1270
18314SOL    HW161547   0.553   9.970   6.390  0.6530  0.0532 -1.2260
18314SOL    HW261548   0.631  10.100   6.388  0.2266  0.3083 -1.4841
18315SOL     OW61549  11.592  10.817  10.698 -0.1907 -0.0316 -0.0637
18315SOL    HW161550  11.624  10.781  10.781 -2.3525 -1.1984  0.3469
18315SOL    HW261551  11.643  10.897  10.685  2.2352 -1.3111  0.8777
18316SOL     OW61552   4.792   5.133  11.493 -0.4735  0.1304 -0.0170
18316SOL    HW161553   4.713   5.160  11.447 -1.7180 -0.3250  1.7472
18316SOL    HW261554   4.773   5.044  11.524  1.2188 -0.4742 -0.6023
18317SOL     OW61555  12.212   1.351   5.292  0.2655  0.6187 -0.1749
18317SOL    HW161556  12.240   1.358   5.383 -3.1911  0.8511  1.0169
18317SOL    HW261557  12.116   1.353   5.296 -0.1901 -2.9475 -3.5204
18318SOL     OW61558   8.292  10.953   6.969 -0.0589 -0.0132  0.1141
18318SOL    HW161559   8.314  10.885   7.033 -1.0271 -0.2538  0.2018
18318SOL    HW261560   8.269  11.029   7.022  1.1736  0.4568  0.0149
18319SOL     OW61561   3.347   7.737   2.836  0.5308 -0.3692 -0.4773
18319SOL    HW161562   3.390   7.701   2.758  0.4944  0.4081 -0.8729
18319SOL    HW261563   3.392   7.820   2.852 -0.7922  0.4693 -0.9037
18320SOL     OW61564   7.878   3.157  10.132  0.5386 -0.0621  0.1204
18320SOL    HW161565   7.872   3.197  10.046 -0.6401  2.2333  1.1830
18320SOL    HW261566   7.792   3.116  10.145 -1.4171  4.1199  2.1410
18321SOL     OW61567   0.184   1.156   9.536  0.0498  0.8384 -0.0047
18321SOL    HW161568   0.231   1.123   9.613 -2.0059  0.7986  1.3043
18321SOL    HW261569   0.130   1.083   9.507 -0.8034  1.5015 -0.1411
18322SOL     OW61570  10.996  10.472   9.222  0.1985 -0.0574  0.0081
18322SOL    HW161571  11.052  10.400   9.195  0.4718  0.4771 -0.8757
18322SOL    HW261572  10.927  10.475   9.157 -1.0495 -0.8821  1.2329
18323SOL     OW61573  10.901   7.118  10.081  0.1864  0.4617 -0.0765
18323SOL    HW161574  10.963   7.079  10.020  0.9591 -0.1844  1.0855
18323SOL    HW261575  10.928   7.086  10.167 -2.0962 -0.3338  0.4405
18324SOL     OW61576   3.831   7.603   9.129  0.2069  0.4396 -0.0729
18324SOL    HW161577   3.832   7.507   9.120 -0.6136  0.5389 -1.6121
18324SOL    HW261578   3.915   7.631   9.093 -0.6803  0.4405 -2.2651
18325SOL     OW61579   4.814   5.416   9.456  0.0133  0.5831  0.0148
18325SOL    HW161580   4.801   5.498   9.408  1.9785  1.7698  1.3582
18325SOL    HW261581   4.776   5.433   9.542  2.0928  0.8502  0.9414
18326SOL     OW61582   1.644   6.275   1.723 -0.2005 -0.6966 -0.6747
18326SOL    HW161583   1.639   6.358   1.675  0.5636  1.1367  2.1661
18326SOL    HW261584   1.611   6.296   1.810 -2.2480 -4.0421 -0.4642
18327SOL     OW61585   5.157  11.913   5.350 -0.1540  0.1863  0.2707
18327SOL    HW161586   5.146  12.006   5.373 -1.6834 -0.3157  1.7927
18327SOL    HW261587   5.110  11.904   5.268  0.4898  0.8647 -0.1882
18328SOL     OW61588   4.088  11.101   7.970  0.0626  0.3841  0.3601
18328SOL    HW161589   4.095  11.133   8.060  1.2428  1.7025 -0.1693
18328SOL    HW261590   4.002  11.130   7.941 -0.0352  0.5690  0.8203
18329SOL     OW61591   6.039   5.943  11.998  0.4742 -0.2969 -0.0409
18329SOL    HW161592   6.044   6.023  11.946  1.4407  1.7256  2.8751
18329SOL    HW261593   5.955   5.950  12.044  0.4204 -1.1108 -0.0070
18330SOL     OW61594   4.892   1.689  11.037  0.4937 -0.8180 -0.4113
18330SOL    HW161595   4.916   1.629  10.966  2.6052  0.2457 -0.6781
18330SOL    HW261596   4.974   1.705  11.084 -0.6642 -0.7067  1.6908
18331SOL     OW61597  10.186   9.182   0.559  0.1873  0.0324  0.3192
18331SOL    HW161598  10.119   9.215   0.498  0.5663  0.8011  0.3076
18331SOL    HW261599  10.266   9.179   0.507  0.2641 -0.4389  0.4619
18332SOL     OW61600   7.838  11.233  10.674 -0.2121 -0.0639  0.9930
18332SOL    HW161601   7.861  11.275  10.757 -3.3279  0.0967  1.9158
18332SOL    HW261602   7.803  11.305  10.620 -1.0013 -0.6424  0.7162
18333SOL     OW61603  10.050   7.510   2.900  0.2646  0.2320 -0.2491
18333SOL    HW161604  10.133   7.516   2.853  2.1691 -2.1104  2.4581
18333SOL    HW261605  10.009   7.430   2.866  0.4981 -0.1568  0.3699
18334SOL     OW61606   7.057   6.210   0.845  0.1740 -0.1575  0.0924
18334SOL    HW161607   7.051   6.185   0.753 -0.6928 -0.9559  0.3498
18334SOL    HW261608   6.981   6.168   0.886  1.1094 -0.6670  1.3610
18335SOL     OW61609   6.620  11.929   5.165  0.1330 -0.6776  0.1191
18335SOL    HW161610   6.649  11.910   5.076 -0.3616 -0.4591 -0.0904
18335SOL    HW261611   6.541  11.877   5.176  0.1506 -0.6456  0.4061
18336SOL     OW61612   8.293   9.464   6.252  0.3317 -0.0880  0.2147
18336SOL    HW161613   8.364   9.472   6.188 -0.0431  1.7482 -0.0294
18336SOL    HW261614   8.328   9.507   6.330 -0.0234 -0.3845  0.5368
18337SOL     OW61615   0.517   8.628   6.223 -0.2410  0.4525 -0.1863
18337SOL    HW161616   0.571   8.644   6.145  0.5808  2.2755  0.6939
18337SOL    HW261617   0.475   8.712   6.241  0.3655  0.3545  1.8989
18338SOL     OW61618   6.566  11.665   5.412  0.0527 -0.0376 -0.1562
18338SOL    HW161619   6.504  11.700   5.349 -0.4249 -2.6475 -1.2901
18338SOL    HW261620   6.528  11.686   5.497 -1.8155 -0.5635 -0.8128
18339SOL     OW61621   4.044   2.472   8.594 -0.2091  0.1820 -0.4494
18339SOL    HW161622   3.961   2.423   8.604  0.1768 -0.6902 -1.2664
18339SOL    HW261623   4.096   2.417   8.535  1.4465  0.1029  0.9983
18340SOL     OW61624  12.494  10.243   9.314 -0.4269  0.2756 -0.4327
18340SOL    HW161625  12.529  10.166   9.269 -2.7003 -1.7979  1.1316
18340SOL    HW261626  12.413  10.263   9.266 -1.5677 -0.4301  1.1121
18341SOL     OW61627  10.162   1.666   2.841  0.3180  0.7176  0.2111
18341SOL    HW161628  10.066   1.662   2.838  0.3382 -1.1647  1.0246
18341SOL    HW261629  10.188   1.678   2.749 -0.6727 -0.0918 -0.2009
18342SOL     OW61630   5.573   1.620   1.097 -0.0190  0.0565 -0.0576
18342SOL    HW161631   5.550   1.584   1.011  0.2135 -0.9660  0.2945
18342SOL    HW261632   5.489   1.643   1.136 -0.0975  1.0607 -0.7623
18343SOL     OW61633   0.774  12.159   1.165  0.5073 -0.3888 -0.7112
18343SOL    HW161634   0.797  12.082   1.113  0.6464 -1.0276  0.2676
18343SOL    HW261635   0.842  12.223   1.143  1.3894 -1.1412 -0.2711
18344SOL     OW61636   2.743  11.554   7.934  0.7300  0.2643 -0.2513
18344SOL    HW161637   2.671  11.614   7.952 -0.7339 -1.5336  0.2748
18344SOL    HW261638   2.804  11.567   8.007 -1.6086 -1.7540  2.3083
18345SOL     OW61639   5.079   7.766  10.334 -1.1185  0.0042 -0.1248
18345SOL    HW161640   4.995   7.772  10.379 -1.1493  0.2751 -0.2181
18345SOL    HW261641   5.139   7.818  10.388 -1.0152 -0.1639 -0.0743
18346SOL     OW61642   8.793  10.456   9.522 -0.6821 -0.2399 -0.5538
18346SOL    HW161643   8.705  10.454   9.558 -0.6260 -2.7804 -0.4040
18346SOL    HW261644   8.791  10.397   9.447  0.5745  0.7625 -1.4395
18347SOL     OW61645   3.682   9.588  11.670  0.0641  0.2273 -0.3532
18347SOL    HW161646   3.614   9.526  11.695  0.8781 -1.7623 -2.6536
18347SOL    HW261647   3.647   9.632  11.592  0.7984  0.2599 -0.6753
18348SOL     OW61648   1.275   5.117   4.172 -0.5594  0.9377  0.7177
18348SOL    HW161649   1.336   5.140   4.103 -0.8584 -0.7506 -0.1659
18348SOL    HW261650   1.321   5.052   4.225 -0.9537  0.9290  1.0603
18349SOL     OW61651   8.224   0.256   8.435 -0.0179 -0.2076  0.5227
18349SOL    HW161652   8.276   0.176   8.431 -0.3944 -0.5070  1.2540
18349SOL    HW261653   8.284   0.326   8.412  0.6759 -0.5607  1.2267
18350SOL     OW61654   2.790   7.425  10.665  0.1599  0.1864  0.4056
18350SOL    HW161655   2.765   7.344  10.620 -1.2189  2.0634 -2.5437
18350SOL    HW261656   2.709   7.476  10.669  1.3290  2.1208  0.5587
18351SOL     OW61657  11.187   8.014   4.788 -0.2553  0.8947  0.5258
18351SOL    HW161658  11.141   8.018   4.871 -1.0996 -0.2964  0.1413
18351SOL    HW261659  11.280   8.010   4.812 -0.5111  0.1207  1.4301
18352SOL     OW61660  11.462   1.221   6.991 -0.2142  0.0596 -0.4624
18352SOL    HW161661  11.437   1.280   6.920  0.6144  0.2623 -0.5993
18352SOL    HW261662  11.556   1.206   6.977 -0.3734 -1.1508 -0.3247
18353SOL     OW61663   4.434   6.782   3.995 -0.2861 -0.9866 -0.3772
18353SOL    HW161664   4.515   6.734   3.976  0.4272 -0.1761  0.4742
18353SOL    HW261665   4.459   6.874   3.987 -0.5886 -0.6633  1.8045
18354SOL     OW61666  10.280  11.190   5.840 -0.0597  0.2333 -0.2756
18354SOL    HW161667  10.338  11.176   5.765 -1.0684 -0.6411 -0.9369
18354SOL    HW261668  10.248  11.103   5.862  0.1369  0.4985  1.1220
18355SOL     OW61669   4.224   1.124   2.839 -0.2437  0.0049 -0.2385
18355SOL    HW161670   4.142   1.132   2.790  0.0272  0.2761 -0.6505
18355SOL    HW261671   4.212   1.182   2.914 -0.3830  0.1370 -0.3603
18356SOL     OW61672  11.891   8.867   9.062  0.2483 -0.3217  0.2292
18356SOL    HW161673  11.974   8.819   9.061  0.2353 -0.3532  0.5421
18356SOL    HW261674  11.900   8.928   9.135 -0.1170 -0.5245  0.4430
18357SOL     OW61675   7.995  10.313   8.746 -0.5709  0.2315 -0.3504
18357SOL    HW161676   8.077  10.359   8.765 -1.5830  2.2187 -0.4727
18357SOL    HW261677   7.954  10.300   8.832 -0.6203  0.2275 -0.3745
18358SOL     OW61678   4.002   1.725  11.956  0.3414 -0.1595  0.0571
18358SOL    HW161679   4.004   1.710  12.051  0.5284 -2.0584 -0.2061
18358SOL    HW261680   3.969   1.814  11.946 -0.1961 -0.1248  1.8862
18359SOL     OW61681   9.665   9.832   7.337 -0.1379  0.3896 -0.3512
18359SOL    HW161682   9.661   9.820   7.243 -1.0545 -0.4290 -0.2332
18359SOL    HW261683   9.580   9.800   7.369  0.1943  0.5444  0.7515
18360SOL     OW61684  12.039   3.210   0.809  0.4718 -0.2856 -0.6883
18360SOL    HW161685  12.031   3.251   0.895 -0.2676 -0.5110 -0.6398
18360SOL    HW261686  11.985   3.131   0.815 -0.3442  0.1757 -1.6449
18361SOL     OW61687  10.956   9.422   0.509  0.0263  0.1536  0.2019
18361SOL    HW161688  10.882   9.441   0.451 -0.6460  0.2655  1.0766
18361SOL    HW261689  11.011   9.499   0.504 -0.2458  0.3389  0.0330
18362SOL     OW61690  11.857   8.880   2.145 -0.1874  0.3626 -0.3372
18362SOL    HW161691  11.902   8.799   2.168  0.1989  0.7326  0.2811
18362SOL    HW261692  11.927   8.936   2.110 -0.1685  0.9117  0.5427
18363SOL     OW61693  11.841   5.310   9.043  0.4069 -0.5592  0.1490
18363SOL    HW161694  11.885   5.395   9.042  3.0684 -1.7826 -2.9600
18363SOL    HW261695  11.822   5.294   9.135  1.6362  2.4969  1.0535
18364SOL     OW61696   5.785   4.902   6.534 -0.1330 -0.4216 -0.6373
18364SOL    HW161697   5.698   4.891   6.497 -0.8201  1.5770  0.2580
18364SOL    HW261698   5.798   4.996   6.540  1.7943 -0.6656 -0.0375
18365SOL     OW61699   4.280   0.933   8.459  0.6854 -0.0045  0.1520
18365SOL    HW161700   4.218   0.999   8.489 -0.2137 -0.7299 -0.0758
18365SOL    HW261701   4.356   0.984   8.428  0.0371  0.9171  0.0342
18366SOL     OW61702  12.315   0.778   4.070 -0.1804  0.6001 -0.2139
18366SOL    HW161703  12.351   0.708   4.016 -0.9285 -0.8801  1.0914
18366SOL    HW261704  12.387   0.803   4.128  0.1731  1.1480 -0.8702
18367SOL     OW61705   3.030  10.525   7.891 -0.1827 -0.1820 -0.4103
18367SOL    HW161706   3.062  10.599   7.839  0.9845  0.2210  0.8231
18367SOL    HW261707   3.035  10.555   7.982  0.3783 -1.7791  0.1243
18368SOL     OW61708   0.596   7.707   4.804  0.0534 -0.4717 -0.1397
18368SOL    HW161709   0.632   7.639   4.861 -1.3371  0.2240  1.6639
18368SOL    HW261710   0.613   7.789   4.850 -1.9514  0.0358 -0.1808
18369SOL     OW61711   1.423   5.857   8.570 -0.4452  0.6912  0.3156
18369SOL    HW161712   1.419   5.898   8.656  1.1335 -0.0476  0.7760
18369SOL    HW261713   1.504   5.807   8.571 -1.1457 -0.5576 -1.0603
18370SOL     OW61714   6.312  10.970  10.739  0.4565  0.1908  0.4461
18370SOL    HW161715   6.313  11.065  10.745 -0.7720  0.1410  2.2370
18370SOL    HW261716   6.261  10.951  10.660  1.0436  1.0053 -0.1382
18371SOL     OW61717  10.118   9.185   0.036  0.5788  0.0408  0.4682
18371SOL    HW161718  10.187   9.195   0.101  1.8085 -0.4885 -0.6956
18371SOL    HW261719  10.117   9.091   0.017 -0.2422  0.0929  0.2464
18372SOL     OW61720   3.667   5.026   9.977 -0.4504  0.1420 -0.5893
18372SOL    HW161721   3.712   5.010  10.060  0.3081 -1.5261 -1.2670
18372SOL    HW261722   3.581   5.058  10.002 -0.6348 -1.3513  0.8950
18373SOL     OW61723   8.255   1.192   9.744 -0.4772  0.3154 -0.0960
18373SOL    HW161724   8.294   1.181   9.830 -1.4961  0.5027  0.4018
18373SOL    HW261725   8.231   1.104   9.717  0.4193  0.1773 -0.4798
18374SOL     OW61726   5.341   1.653   7.517 -0.2657 -0.0712  0.0991
18374SOL    HW161727   5.253   1.687   7.533  0.1718  1.6298 -0.8399
18374SOL    HW261728   5.332   1.592   7.445 -0.7352 -0.2309  0.2938
18375SOL     OW61729   5.832   0.120   5.736 -0.5460 -0.3159  0.0164
18375SOL    HW161730   5.802   0.166   5.814 -0.1554 -0.1303  0.0583
18375SOL    HW261731   5.765   0.053   5.720 -1.4482  0.6512 -0.4022
18376SOL     OW61732   3.814  12.180  10.745 -0.5253  0.1708 -0.4574
18376SOL    HW161733   3.779  12.168  10.656 -0.2970 -0.7917 -0.4292
18376SOL    HW261734   3.908  12.165  10.735 -0.5248 -0.1111 -0.0219
18377SOL     OW61735  12.295   6.680   3.664 -0.0361 -0.1542 -0.2438
18377SOL    HW161736  12.206   6.660   3.692  0.3007 -2.0572 -0.3913
18377SOL    HW261737  12.293   6.773   3.640 -2.2395 -0.4137 -1.2596
18378SOL     OW61738   2.745   1.591   0.397 -0.1375  0.1160 -0.1658
18378SOL    HW161739   2.787   1.676   0.385 -0.5167  0.8370  2.8094
18378SOL    HW261740   2.817   1.528   0.400  0.4379  0.7861  0.7329
18379SOL     OW61741   3.551   8.546   5.479 -0.1149 -0.2309  0.0527
18379SOL    HW161742   3.568   8.639   5.460 -0.7398 -0.2674 -0.7616
18379SOL    HW261743   3.571   8.502   5.397 -1.4467 -0.6027 -0.0937
18380SOL     OW61744   8.172   9.809   0.864 -0.0840 -0.3043  0.1842
18380SOL    HW161745   8.103   9.796   0.928 -0.5778 -3.0365 -0.7545
18380SOL    HW261746   8.165   9.733   0.805  0.5683  1.8004 -2.8832
18381SOL     OW61747   5.042   7.968   3.266 -0.0374 -0.2541  0.5947
18381SOL    HW161748   4.969   8.004   3.316 -0.0370  0.7237 -0.0840
18381SOL    HW261749   5.001   7.915   3.197 -0.2150  1.7100 -0.8813
18382SOL     OW61750   3.122   2.068  11.870 -0.0312 -0.2305  0.5992
18382SOL    HW161751   3.182   2.084  11.943 -1.2552 -1.7045  1.9908
18382SOL    HW261752   3.113   1.973  11.867  0.1798 -0.2304 -1.6870
18383SOL     OW61753   7.116  12.173  10.318  0.1581  0.4826 -0.3420
18383SOL    HW161754   7.182  12.236  10.289  0.3370  0.5560  0.2076
18383SOL    HW261755   7.034  12.206  10.282  0.2623  0.9932 -0.1218
18384SOL     OW61756   2.822   4.351  11.351  0.0499  0.5279  0.0742
18384SOL    HW161757   2.767   4.313  11.420  1.2515  0.1083  0.8346
18384SOL    HW261758   2.779   4.326  11.269  0.3180 -1.7798  0.5616
18385SOL     OW61759  11.691   5.799  10.173 -0.2175 -0.7378  0.4193
18385SOL    HW161760  11.752   5.769  10.240  0.0840 -0.6324  0.1898
18385SOL    HW261761  11.620   5.840  10.223 -0.7284 -1.9657  0.7471
18386SOL     OW61762   6.045   7.756   0.294 -0.0184 -0.1529  0.4723
18386SOL    HW161763   6.066   7.819   0.364 -1.8170 -0.0689  1.0022
18386SOL    HW261764   6.026   7.675   0.340 -0.0172 -0.4359 -0.0222
18387SOL     OW61765   6.377   7.104  10.937  0.7128  0.5257 -0.1612
18387SOL    HW161766   6.371   7.147  11.023  0.2335  1.6841 -0.7547
18387SOL    HW261767   6.321   7.157  10.880 -0.8333 -1.5538 -0.6755
18388SOL     OW61768   1.272   8.136   9.464  0.1701 -0.5491 -0.1191
18388SOL    HW161769   1.312   8.223   9.468 -0.1608 -0.4174  0.3739
18388SOL    HW261770   1.313   8.094   9.388  1.9954 -0.7983  0.9590
18389SOL     OW61771   3.952   8.696   5.470 -0.9772 -0.0834 -0.3110
18389SOL    HW161772   3.951   8.617   5.415 -1.8850 -0.0825 -0.3238
18389SOL    HW261773   3.960   8.768   5.407 -1.1902 -0.1223 -0.3857
18390SOL     OW61774   0.491  10.911   2.820 -0.0486  0.5944 -0.3061
18390SOL    HW161775   0.411  10.884   2.866  1.4172 -2.0318  0.8898
18390SOL    HW261776   0.470  10.904   2.727 -0.8908 -1.1792 -0.0072
18391SOL     OW61777  11.200   0.068   9.049  0.3281  0.5091  0.0909
18391SOL    HW161778  11.173  -0.021   9.025  0.8135  0.3958 -0.0533
18391SOL    HW261779  11.206   0.114   8.965  0.2127  0.6358  0.1543
18392SOL     OW61780   2.008  11.688   0.349 -0.0554  0.1759 -0.5956
18392SOL    HW161781   2.097  11.698   0.382 -0.4174 -0.3763  0.6037
18392SOL    HW261782   1.955  11.668   0.426 -1.5848  2.4549 -0.9542
18393SOL     OW61783   5.491  12.166   3.152 -0.5782 -0.0755  0.9814
18393SOL    HW161784   5.451  12.084   3.180 -1.0271 -0.5297 -0.9204
18393SOL    HW261785   5.418  12.216   3.114  0.4039 -0.5816 -1.7814
18394SOL     OW61786  10.272   0.482  10.778  0.1691  0.6610  0.8732
18394SOL    HW161787  10.255   0.554  10.839 -1.5281  1.5628 -0.5791
18394SOL    HW261788  10.208   0.415  10.801  0.3243  0.4972  0.8351
18395SOL     OW61789  11.572   7.099   8.110 -0.0663  0.7692 -0.3578
18395SOL    HW161790  11.611   7.051   8.183  0.3028  0.5706 -0.6768
18395SOL    HW261791  11.631   7.173   8.096  0.6559  0.0551 -1.3307
18396SOL     OW61792   5.116   4.718   8.848 -0.0610  0.1978  0.2218
18396SOL    HW161793   5.091   4.805   8.816 -1.2057  0.7083  2.3681
18396SOL    HW261794   5.039   4.663   8.833  0.1685 -0.1093  0.1517
18397SOL     OW61795   3.566   8.631   6.874 -0.5212 -1.3778  0.1340
18397SOL    HW161796   3.550   8.702   6.812  0.9664 -0.7087  0.4704
18397SOL    HW261797   3.538   8.552   6.828 -2.4314 -0.5899 -0.1711
18398SOL     OW61798   2.326   8.067   6.754 -0.4463  0.0379 -0.2480
18398SOL    HW161799   2.281   8.092   6.674 -1.5137 -0.4380  0.1805
18398SOL    HW261800   2.396   8.131   6.764 -0.5465  0.3274 -1.3482
18399SOL     OW61801   9.513  11.376   5.800  0.3257  0.1346 -0.0520
18399SOL    HW161802   9.579  11.387   5.731 -0.5377 -0.6279 -1.0406
18399SOL    HW261803   9.537  11.294   5.843 -0.7206 -0.9081 -1.3395
18400SOL     OW61804   3.215   8.277   4.440  0.3300 -0.5103  0.0675
18400SOL    HW161805   3.171   8.268   4.355  0.6094  1.4947 -0.3579
18400SOL    HW261806   3.146   8.305   4.500  0.6982  1.2681 -0.2830
18401SOL     OW61807   6.708   3.469   2.007 -0.1348 -0.5900  0.2829
18401SOL    HW161808   6.761   3.545   1.981 -0.9777 -0.0887  0.0112
18401SOL    HW261809   6.773   3.402   2.030  0.6216  0.1296  0.2993
18402SOL     OW61810   9.892  11.189  11.191  0.4419  0.2599  0.3858
18402SOL    HW161811   9.855  11.180  11.279  0.7285 -1.5512  0.3621
18402SOL    HW261812   9.976  11.232  11.205  1.0487 -1.1288  1.1713
18403SOL     OW61813   9.969   3.716  10.640  0.0524 -0.0198  0.1729
18403SOL    HW161814  10.024   3.673  10.706 -0.6121  0.0249  0.7705
18403SOL    HW261815   9.906   3.650  10.615 -1.0307  0.6039  1.1602
18404SOL     OW61816   7.888  11.623   6.084 -0.6312  0.2358  0.9571
18404SOL    HW161817   7.814  11.658   6.134 -1.9690  1.1162 -1.5060
18404SOL    HW261818   7.866  11.532   6.068 -1.2833  0.5389  0.0916
18405SOL     OW61819  11.159   6.651   8.514 -0.6485 -0.5992  0.0924
18405SOL    HW161820  11.142   6.587   8.582  2.3376 -2.0864 -0.4372
18405SOL    HW261821  11.134   6.606   8.433  0.3656 -0.6864 -0.1807
18406SOL     OW61822  12.051   3.681   3.110 -0.4647 -0.0481  0.5929
18406SOL    HW161823  12.049   3.759   3.055  2.0587 -1.3187 -1.5951
18406SOL    HW261824  12.139   3.681   3.149 -0.3367 -1.7803  0.4216
18407SOL     OW61825   4.191  11.448   8.268 -0.3545  0.8332 -0.1769
18407SOL    HW161826   4.272  11.400   8.290 -0.4807  0.5706 -0.2795
18407SOL    HW261827   4.125  11.380   8.261 -0.3990  0.9557 -1.0029
18408SOL     OW61828  10.634   8.715   5.480  0.1937 -0.1063  0.1901
18408SOL    HW161829  10.680   8.634   5.500 -1.4352 -0.7517  1.6533
18408SOL    HW261830  10.646   8.769   5.558  1.7388  1.3582 -0.9864
18409SOL     OW61831   7.507   1.598   1.859 -0.0906  0.1543 -0.6927
18409SOL    HW161832   7.554   1.644   1.790  1.3843 -1.3431 -0.7403
18409SOL    HW261833   7.540   1.637   1.940 -1.4281  1.5365 -0.7548
18410SOL     OW61834   2.494   4.958   3.645 -0.3856 -0.0046  0.0211
18410SOL    HW161835   2.488   4.863   3.659 -1.3281  0.2929  1.9263
18410SOL    HW261836   2.431   4.975   3.574 -1.2064 -0.6391  0.5741
18411SOL     OW61837   9.612   3.598   6.823  0.3323 -0.2237  0.0081
18411SOL    HW161838   9.640   3.541   6.896 -0.0755 -0.2413  0.1549
18411SOL    HW261839   9.673   3.671   6.825 -0.1025  0.1278  0.8170
18412SOL     OW61840   7.351   4.655   9.246 -0.1408  0.2450  0.0484
18412SOL    HW161841   7.376   4.718   9.314 -0.0356 -0.4462  0.6539
18412SOL    HW261842   7.312   4.709   9.178  2.6891  1.3776 -0.8373
18413SOL     OW61843   9.538   6.070   9.660 -0.2884 -0.2367 -0.2219
18413SOL    HW161844   9.565   5.986   9.622  0.0718 -0.1038 -0.2637
18413SOL    HW261845   9.526   6.051   9.753  2.9578  0.3393  0.4472
18414SOL     OW61846   9.882   0.676   3.981  0.4334 -0.3136 -0.3889
18414SOL    HW161847   9.885   0.627   4.063 -0.6455 -0.2027 -0.2791
18414SOL    HW261848   9.805   0.732   3.988  2.2452  2.2868 -0.0485
18415SOL     OW61849  10.737   7.252   8.444  0.4602 -0.3398  0.9085
18415SOL    HW161850  10.650   7.266   8.481 -0.0702 -0.0602 -0.3675
18415SOL    HW261851  10.722   7.251   8.349  1.6610 -1.6071  0.7108
18416SOL     OW61852   8.829   7.457   3.292 -0.1780 -0.0979  0.7932
18416SOL    HW161853   8.766   7.454   3.364 -0.4763  0.1904  0.5470
18416SOL    HW261854   8.882   7.378   3.303  0.1028  0.2038  1.6215
18417SOL     OW61855   7.952   0.563   7.269  0.3349  0.2416  0.0844
18417SOL    HW161856   7.979   0.490   7.326  0.5735 -0.4473 -0.8755
18417SOL    HW261857   7.872   0.531   7.227  0.5044  0.4896 -0.4269
18418SOL     OW61858   8.114  10.321   5.066  0.3360 -0.2044 -0.2724
18418SOL    HW161859   8.094  10.302   4.975 -1.1061 -0.2724  0.0369
18418SOL    HW261860   8.070  10.405   5.083  0.3714 -0.3199  0.4184
18419SOL     OW61861  11.070   5.169   9.966 -0.1442  0.1133  0.1285
18419SOL    HW161862  11.152   5.218   9.973  0.6552 -0.8638 -1.7345
18419SOL    HW261863  11.024   5.209   9.893 -1.0392  0.2033  0.7224
18420SOL     OW61864   1.082   0.121  12.371  0.3862  0.2183 -0.0465
18420SOL    HW161865   1.067   0.049  12.310  0.6218  0.9242 -0.9432
18420SOL    HW261866   1.013   0.110  12.438 -0.2523 -0.2056 -0.7586
18421SOL     OW61867   4.711  11.112   6.852  0.3142 -0.3517  0.1167
18421SOL    HW161868   4.750  11.032   6.886  0.0815 -0.0981  1.0176
18421SOL    HW261869   4.666  11.150   6.927 -2.6238 -1.1922 -1.0860
18422SOL     OW61870   5.156   5.889   6.685 -0.0306  0.0210 -0.1097
18422SOL    HW161871   5.116   5.841   6.613  2.3967 -0.6637 -1.1034
18422SOL    HW261872   5.119   5.977   6.679 -0.1564 -0.1286 -2.0048
18423SOL     OW61873   3.970   7.862  10.706  0.4527 -0.0764  0.2037
18423SOL    HW161874   4.057   7.859  10.665  0.3979 -0.6125  0.1203
18423SOL    HW261875   3.916   7.805  10.651 -0.8612  2.8576 -1.7928
18424SOL     OW61876  11.690   2.927   8.937 -0.4556  0.1174  0.4212
18424SOL    HW161877  11.652   2.986   8.873  0.6439  1.2274  0.7627
18424SOL    HW261878  11.767   2.890   8.894 -0.8862 -0.7592  0.3672
18425SOL     OW61879   0.335  12.747   4.278  0.0051  0.3732 -0.8203
18425SOL    HW161880   0.421  12.786   4.265  1.0904 -1.5220  0.2572
18425SOL    HW261881   0.289  12.808   4.336  0.7910  1.1400 -0.9824
18426SOL     OW61882   5.682  11.504   1.518 -0.1632 -0.2334 -0.2774
18426SOL    HW161883   5.693  11.595   1.492  0.1343 -0.1566  0.1103
18426SOL    HW261884   5.711  11.501   1.609  0.0262 -0.7566 -0.3494
18427SOL     OW61885   1.867   3.191   1.109 -0.2657 -0.6922 -0.3029
18427SOL    HW161886   1.800   3.125   1.128  0.1632 -0.5900  1.8655
18427SOL    HW261887   1.823   3.274   1.123 -0.1347 -0.5788 -0.5608
18428SOL     OW61888   3.046   2.546   8.193 -0.6857  0.2774  0.2633
18428SOL    HW161889   2.966   2.495   8.179  0.5679 -1.0970 -2.6818
18428SOL    HW261890   3.103   2.488   8.244 -1.4511  1.2228  2.2851
18429SOL     OW61891   9.508   8.332   6.483 -0.1456  0.1971 -0.2043
18429SOL    HW161892   9.499   8.336   6.578  2.1129 -0.9870  0.1387
18429SOL    HW261893   9.505   8.238   6.463  1.2577  0.3031 -1.0408
18430SOL     OW61894  12.281  12.540   3.844  0.4875 -0.0750 -0.4965
18430SOL    HW161895  12.265  12.608   3.910 -1.2411 -0.8062 -0.1086
18430SOL    HW261896  12.344  12.481   3.885 -1.0459 -0.8729  0.8023
18431SOL     OW61897   9.534   4.412   5.964 -0.2860 -0.1105  0.0638
18431SOL    HW161898   9.629   4.414   5.970 -0.2372  0.7204 -0.8054
18431SOL    HW261899   9.509   4.501   5.939 -1.3066 -0.2635  0.4765
18432SOL     OW61900   1.994   4.646  10.570  0.3450 -0.2482  0.0535
18432SOL    HW161901   2.049   4.690  10.505  0.3334  0.9979  0.8670
18432SOL    HW261902   2.000   4.553  10.547  0.2208  0.1720 -1.8103
18433SOL     OW61903  11.412  12.164   5.692  0.3570 -0.3740  0.6388
18433SOL    HW161904  11.355  12.242   5.687  0.8394 -0.0741 -0.8961
18433SOL    HW261905  11.500  12.198   5.674  0.5425 -1.2816 -0.2445
18434SOL     OW61906   0.269   2.265  12.665 -0.0490 -0.2280 -0.4781
18434SOL    HW161907   0.361   2.258  12.693 -0.1194 -1.8729 -0.5365
18434SOL    HW261908   0.219   2.225  12.736 -0.8106  1.2349 -0.1533
18435SOL     OW61909   4.906   4.077   5.873 -0.3277  0.7570 -0.8140
18435SOL    HW161910   4.935   3.986   5.866  0.8331  1.0473 -0.1321
18435SOL    HW261911   4.903   4.094   5.967 -0.4224  1.4542 -0.9365
18436SOL     OW61912   6.287  10.115   9.851  0.2137 -0.3109  0.0290
18436SOL    HW161913   6.379  10.103   9.828 -0.1788 -1.7891 -0.9073
18436SOL    HW261914   6.272  10.209   9.843  1.0815 -0.2972 -2.0472
18437SOL     OW61915  11.847   5.220  10.802  0.5113 -0.4296  0.1631
18437SOL    HW161916  11.928   5.171  10.822  0.4956 -1.5045 -2.0942
18437SOL    HW261917  11.784   5.153  10.777 -0.9520  0.4466  1.3701
18438SOL     OW61918   4.008   7.390   7.107  0.6402  0.0127 -0.3042
18438SOL    HW161919   4.008   7.324   7.037 -0.2588 -0.7201  0.3627
18438SOL    HW261920   3.917   7.419   7.112 -0.2787 -2.7630  3.0881
18439SOL     OW61921   2.659   5.499  10.143  0.5618 -0.0886 -0.3144
18439SOL    HW161922   2.690   5.420  10.189  0.4756 -0.3383 -0.6805
18439SOL    HW261923   2.589   5.467  10.087 -0.0682  0.3982  0.1802
18440SOL     OW61924   8.015  10.079   2.988  0.5433 -0.4828  0.6429
18440SOL    HW161925   7.966  10.125   3.055  0.5127 -1.9376  1.6687
18440SOL    HW261926   8.030   9.992   3.024  1.3573 -1.0114 -0.8500
18441SOL     OW61927   2.393   3.100  10.961  0.0303  0.6315  0.3820
18441SOL    HW161928   2.340   3.179  10.953 -0.1889  0.4907  0.4278
18441SOL    HW261929   2.335   3.029  10.932  0.8713  0.7132 -1.6707
18442SOL     OW61930  12.202  11.261   2.086 -0.3869  0.6044 -0.1603
18442SOL    HW161931  12.169  11.278   1.997 -0.3465 -1.8156 -0.7125
18442SOL    HW261932  12.202  11.166   2.093  1.3503  0.6903  1.8120
18443SOL     OW61933  10.896   2.386  11.916 -0.0656  0.4404  0.0620
18443SOL    HW161934  10.893   2.385  11.820 -1.2839 -0.7432  0.0768
18443SOL    HW261935  10.963   2.321  11.939 -1.1264 -0.7028  0.0063
18444SOL     OW61936  12.230   2.162   5.094 -0.2661  0.0835  0.7242
18444SOL    HW161937  12.219   2.194   5.005  2.5993 -0.7850 -0.0576
18444SOL    HW261938  12.301   2.215   5.130 -0.5216 -0.4276  2.0442
18445SOL     OW61939   6.500   2.392   7.835  0.0536 -0.1796 -0.4054
18445SOL    HW161940   6.418   2.402   7.883  0.2737  0.8224 -0.2273
18445SOL    HW261941   6.483   2.319   7.775 -1.1749  0.4061 -0.8050
18446SOL     OW61942   4.562   2.069   9.657  0.2903  0.0376  0.1763
18446SOL    HW161943   4.600   2.127   9.723  0.2891  1.5194 -1.0780
18446SOL    HW261944   4.491   2.024   9.703 -1.1803  2.6732  0.6818
18447SOL     OW61945   8.390   5.732   1.898  0.3702 -0.1166  0.3793
18447SOL    HW161946   8.374   5.639   1.910 -0.6676  0.2522  2.1521
18447SOL    HW261947   8.464   5.736   1.837  0.9180 -2.0956  0.8556
18448SOL     OW61948   5.469  10.429   7.564  0.1458  0.7576  0.1104
18448SOL    HW161949   5.399  10.459   7.505 -0.3961  0.6832  0.7142
18448SOL    HW261950   5.512  10.358   7.516 -0.1642  0.8297 -0.2790
18449SOL     OW61951   5.253   5.883   7.403  0.0540  0.6434 -0.2056
18449SOL    HW161952   5.271   5.972   7.372 -0.2190  0.6781 -0.2664
18449SOL    HW261953   5.158   5.879   7.411  0.1130  0.5776  0.4654
18450SOL     OW61954  11.478   7.568   5.487 -0.0680  0.2358  0.3175
18450SOL    HW161955  11.557   7.616   5.462 -0.5035  0.5275 -0.5276
18450SOL    HW261956  11.478   7.571   5.582  1.5994 -0.8285  0.4019
18451SOL     OW61957   2.477   6.797   7.353  0.0455  0.6213 -0.0190
18451SOL    HW161958   2.453   6.838   7.270  0.2894  0.1005 -0.3523
18451SOL    HW261959   2.421   6.720   7.358  0.4450  0.3324  0.0178
18452SOL     OW61960   3.469  11.729   3.492  0.4642  0.3707 -0.0066
18452SOL    HW161961   3.440  11.647   3.453 -3.9901  0.8112  1.8183
18452SOL    HW261962   3.508  11.704   3.576  2.9619 -0.0206 -1.1946
18453SOL     OW61963   5.931   2.240   0.678  0.0751  0.1671 -0.2692
18453SOL    HW161964   5.857   2.301   0.673  1.2563  1.8584  1.1444
18453SOL    HW261965   5.993   2.284   0.737  0.5749 -2.8883  1.7397
18454SOL     OW61966   0.311   0.082   7.861  0.0755 -0.0969  0.4237
18454SOL    HW161967   0.354   0.077   7.947  2.2580 -1.8143 -0.6759
18454SOL    HW261968   0.250   0.008   7.860  3.0445 -2.7289 -0.9043
18455SOL     OW61969   2.502   9.582   6.761  0.1511  0.0730  0.0193
18455SOL    HW161970   2.475   9.661   6.808 -0.5836 -0.6690  0.8927
18455SOL    HW261971   2.504   9.608   6.669  0.8191  1.3431  0.3718
18456SOL     OW61972   9.765   8.477   6.580  0.2126  0.9904  0.1889
18456SOL    HW161973   9.725   8.480   6.493  0.1211  0.8703  0.2270
18456SOL    HW261974   9.784   8.568   6.601 -0.5418  1.1086  0.4026
18457SOL     OW61975   7.833  11.223   4.933 -0.2411  0.1081 -0.3989
18457SOL    HW161976   7.869  11.157   4.993 -1.2390  1.7972  2.2627
18457SOL    HW261977   7.744  11.193   4.916  0.1098 -0.4804 -1.2583
18458SOL     OW61978  10.676  11.818   5.808  0.3225  0.0036  0.1438
18458SOL    HW161979  10.584  11.822   5.781 -0.6042 -0.1916  2.9279
18458SOL    HW261980  10.723  11.795   5.728 -1.7302  2.3140 -1.9036
18459SOL     OW61981   4.156   0.740   2.146 -0.4184  0.0890  0.1571
18459SOL    HW161982   4.235   0.761   2.096 -1.2823  2.4869 -0.3867
18459SOL    HW261983   4.098   0.700   2.082 -0.6061  0.8551 -0.1722
18460SOL     OW61984   8.549   9.645   4.013 -0.5914 -0.0265  0.0810
18460SOL    HW161985   8.558   9.549   4.015  1.4074  0.1313  0.2426
18460SOL    HW261986   8.519   9.664   3.924  0.2639 -0.7321 -0.3784
18461SOL     OW61987  11.105   2.626  10.446  0.0340 -0.0514 -0.0433
18461SOL    HW161988  11.076   2.717  10.443 -0.1418 -0.1257 -1.0478
18461SOL    HW261989  11.198   2.631  10.466  0.1656  0.3924 -0.7337
18462SOL     OW61990  12.157   4.919   1.942 -0.0543 -0.4280  0.8324
18462SOL    HW161991  12.195   4.958   1.863  0.8233 -1.0361  0.9369
18462SOL    HW261992  12.186   4.828   1.940 -0.4772 -0.5887  1.5828
18463SOL     OW61993   3.862  10.823   3.440 -0.3189  0.0247  0.1614
18463SOL    HW161994   3.885  10.776   3.360 -2.5532  0.0739 -0.5803
18463SOL    HW261995   3.855  10.915   3.412  1.1407  0.3987  0.9494
18464SOL     OW61996   7.831  10.388   7.137 -0.1703 -0.6409  0.6215
18464SOL    HW161997   7.828  10.322   7.207 -0.7159 -0.4093  0.8242
18464SOL    HW261998   7.864  10.467   7.179  0.2157 -0.7069  0.4430
18465SOL     OW61999   8.818   0.044   3.327  0.2175  0.0617 -0.3125
18465SOL    HW162000   8.796   0.041   3.420  1.3973 -0.2049 -0.0296
18465SOL    HW262001   8.892   0.104   3.322  0.7359 -0.6177 -0.9500
18466SOL     OW62002  12.462   1.422   5.805 -0.8829  0.5309  0.0899
18466SOL    HW162003  12.547   1.463   5.793 -1.2947  2.0083  1.7924
18466SOL    HW262004  12.418   1.476   5.871 -2.8980 -0.5545 -0.2705
18467SOL     OW62005   9.039   1.782   7.029 -0.0646  0.0219 -0.2143
18467SOL    HW162006   9.030   1.693   6.996  0.5500  0.1083 -0.6228
18467SOL    HW262007   9.126   1.785   7.067 -0.5009  0.1287  0.8038
18468SOL     OW62008  10.090   4.106  10.881 -0.3359 -0.1112 -0.3510
18468SOL    HW162009  10.107   4.173  10.947 -1.6044  1.7364 -1.8034
18468SOL    HW262010   9.995   4.096  10.881 -0.4609  0.7063 -2.5699
18469SOL     OW62011   4.653   1.409   8.764  0.5497  0.6463 -0.9425
18469SOL    HW162012   4.594   1.422   8.839  1.6710  0.1877  0.0448
18469SOL    HW262013   4.700   1.492   8.756  0.6914  0.5681 -0.9115
18470SOL     OW62014   8.509   6.433   9.890  0.0415  1.0092  0.5141
18470SOL    HW162015   8.539   6.343   9.874 -1.0218  0.9227 -1.2735
18470SOL    HW262016   8.585   6.477   9.928  0.4509 -0.7360  1.8343
18471SOL     OW62017   6.572   1.331   8.230  0.3584  0.2495  0.2730
18471SOL    HW162018   6.602   1.408   8.277  0.6270 -0.0715  0.6371
18471SOL    HW262019   6.484   1.314   8.264  0.9404 -0.5832  1.4308
18472SOL     OW62020   4.991   2.909   6.866 -0.4247 -0.3854 -0.3795
18472SOL    HW162021   4.994   2.825   6.913  0.6018 -1.7708 -2.6775
18472SOL    HW262022   5.078   2.947   6.880 -0.7941  0.1841  0.4278
18473SOL     OW62023   4.176   4.536  12.502  0.2173 -0.2430 -0.6291
18473SOL    HW162024   4.150   4.452  12.539 -1.8993  1.5077  2.2627
18473SOL    HW262025   4.098   4.591  12.509  1.5065  2.0141 -2.4121
18474SOL     OW62026  11.858  10.013   8.660  0.2307 -0.1108  0.1389
18474SOL    HW162027  11.788   9.995   8.597  0.8534  0.4837 -0.7577
18474SOL    HW262028  11.833   9.965   8.739 -1.5909  0.7471  0.1292
18475SOL     OW62029   4.056   3.942   9.983  0.2625 -0.5489  0.2172
18475SOL    HW162030   4.049   3.871  10.047  0.2168 -0.6636  0.0827
18475SOL    HW262031   3.970   3.982   9.982  0.2773 -0.5151  0.2651
18476SOL     OW62032   3.278   7.519   2.964  0.1845 -0.0594 -0.0343
18476SOL    HW162033   3.192   7.490   2.935  0.2980 -0.2448 -0.1912
18476SOL    HW262034   3.300   7.591   2.905  1.6891 -2.2880 -2.4417
18477SOL     OW62035   7.521   5.376   9.153 -0.3485 -0.3637  0.1716
18477SOL    HW162036   7.588   5.422   9.102 -1.5791  0.2569 -0.9684
18477SOL    HW262037   7.564   5.296   9.184  1.1149  0.3717  0.1128
18478SOL     OW62038   3.574   7.239   1.409  0.2698  0.1640  0.3505
18478SOL    HW162039   3.526   7.204   1.483  0.1179 -0.4942 -0.0507
18478SOL    HW262040   3.561   7.334   1.414 -0.5759  0.0411  0.5800
18479SOL     OW62041  11.721   2.494  10.143  0.0094  0.1824 -0.5968
18479SOL    HW162042  11.712   2.522  10.234 -0.0895 -1.7370  0.0213
18479SOL    HW262043  11.767   2.410  10.148  2.0753  1.1130 -2.4941
18480SOL     OW62044   8.334  11.337  10.251 -0.1145 -0.2552 -0.0147
18480SOL    HW162045   8.339  11.428  10.223  0.3299 -0.3024 -0.0873
18480SOL    HW262046   8.240  11.321  10.262 -0.1211  0.9615  2.4724
18481SOL     OW62047   0.093   4.808   2.138 -0.3037 -0.3383  0.0354
18481SOL    HW162048   0.068   4.836   2.226  0.6264  0.2817  0.1171
18481SOL    HW262049   0.011   4.801   2.090 -0.8722 -1.1166  1.0710
18482SOL     OW62050  12.685  10.726  11.146  0.5427  0.6680  0.3093
18482SOL    HW162051  12.665  10.820  11.142 -0.9818  0.3288 -1.8304
18482SOL    HW262052  12.625  10.692  11.213  0.6450  1.1206  0.6373
18483SOL     OW62053   9.684  12.450  11.295  0.3113  0.4674 -0.0695
18483SOL    HW162054   9.756  12.466  11.234  0.0941 -0.2593 -0.5283
18483SOL    HW262055   9.708  12.369  11.340 -0.6230 -0.2701 -0.8565
18484SOL     OW62056  12.465   2.106   1.602 -0.4190 -0.5356 -0.2434
18484SOL    HW162057  12.501   2.026   1.640  1.1812  0.1021 -0.3198
18484SOL    HW262058  12.386   2.078   1.556 -0.0085 -2.0262 -0.1004
18485SOL     OW62059   7.955   8.150   9.195  0.4928 -0.4016 -0.3243
18485SOL    HW162060   7.962   8.092   9.270  0.6461 -1.4543 -1.1338
18485SOL    HW262061   7.917   8.096   9.125  1.3547  0.2315 -1.3253
18486SOL     OW62062   2.612   3.439   6.026 -0.2617  0.1979 -0.0918
18486SOL    HW162063   2.588   3.497   5.954  0.4408 -0.1071 -0.5903
18486SOL    HW262064   2.661   3.368   5.984 -0.0643 -0.1201  0.6555
18487SOL     OW62065   2.540   5.086  12.654  0.5546 -0.1585  0.2723
18487SOL    HW162066   2.559   5.016  12.717  1.2821  0.3718  0.6648
18487SOL    HW262067   2.573   5.052  12.570 -0.5742 -0.9388  0.1255
18488SOL     OW62068   6.384   1.976   6.720  0.7633 -0.5105  0.0145
18488SOL    HW162069   6.368   2.004   6.810  0.1547  1.0489 -0.5432
18488SOL    HW262070   6.350   1.886   6.717  2.3432 -1.2385  1.7464
18489SOL     OW62071   4.612   2.776   6.082 -0.3291  0.2910 -0.0248
18489SOL    HW162072   4.563   2.853   6.052 -1.4736 -0.0719  0.8354
18489SOL    HW262073   4.605   2.714   6.009 -0.8381  0.3924 -0.0724
18490SOL     OW62074   0.908   9.392   5.576  0.3952  0.0165 -0.2831
18490SOL    HW162075   0.974   9.403   5.644 -0.6911  2.2104  0.5417
18490SOL    HW262076   0.827   9.426   5.615 -0.3812  0.9320 -2.4752
18491SOL     OW62077   5.120   2.075   4.793 -0.4355  0.0751  0.2667
18491SOL    HW162078   5.093   2.147   4.849  1.9440  0.9499  0.4241
18491SOL    HW262079   5.183   2.026   4.846 -0.3749 -0.8411 -0.6182
18492SOL     OW62080   7.110   1.793   1.157 -0.0573 -0.3492 -0.3592
18492SOL    HW162081   7.081   1.828   1.241  2.9369 -0.2165  0.7383
18492SOL    HW262082   7.037   1.812   1.097 -2.6374 -1.1235  2.2747
18493SOL     OW62083   5.995   8.900   9.625  0.2669 -0.1835  0.2061
18493SOL    HW162084   6.013   8.832   9.561  0.6674  0.0059  0.1177
18493SOL    HW262085   6.080   8.919   9.665 -0.1018 -0.8909  1.3834
18494SOL     OW62086   2.042   6.103   0.897  0.9426 -0.5564  0.2881
18494SOL    HW162087   1.996   6.020   0.893  1.5735 -0.8761 -0.7671
18494SOL    HW262088   2.095   6.097   0.977  1.2922 -1.3409  0.0045
18495SOL     OW62089   4.522   9.971   0.172 -0.1353  0.0229  0.6295
18495SOL    HW162090   4.512   9.996   0.080 -1.7746  0.3210  0.8515
18495SOL    HW262091   4.460   9.899   0.184  1.2348 -1.1167  1.1234
18496SOL     OW62092  10.728  10.558   9.365 -0.5111  0.1953 -0.1413
18496SOL    HW162093  10.821  10.571   9.384 -0.4386  0.6143 -0.7598
18496SOL    HW262094  10.692  10.521   9.446 -0.1345  1.5828  0.6986
18497SOL     OW62095  12.090   6.371   3.120 -0.0832 -0.1741 -0.1272
18497SOL    HW162096  12.115   6.318   3.195  1.2347 -0.6321 -0.8522
18497SOL    HW262097  12.173   6.400   3.082 -0.7179  0.1818 -1.3117
18498SOL     OW62098   2.326   0.158   4.846  0.4859 -0.1690 -0.3795
18498SOL    HW162099   2.359   0.069   4.861  0.2609 -0.7160 -2.7700
18498SOL    HW262100   2.262   0.148   4.776 -1.7007  1.5078  1.2442
18499SOL     OW62101   6.894   3.711   6.763 -0.0134 -0.0356 -0.1246
18499SOL    HW162102   6.894   3.615   6.761  1.4158 -0.0565 -1.7909
18499SOL    HW262103   6.983   3.735   6.737 -1.1941  1.7387 -3.0548
18500SOL     OW62104   9.898  11.047   6.103 -0.0899 -0.6022  0.0911
18500SOL    HW162105   9.974  10.995   6.077 -0.7547 -0.8413 -1.4284
18500SOL    HW262106   9.920  11.136   6.076 -1.0897 -0.9699 -2.0999
18501SOL     OW62107   7.060   9.906   1.962 -0.4042 -0.0789 -0.2106
18501SOL    HW162108   6.981   9.950   1.994 -0.1728 -1.1447  2.0044
18501SOL    HW262109   7.109   9.885   2.041  1.3165 -0.9129 -1.4508
18502SOL     OW62110   4.027   9.977   2.177  0.0814 -0.6988 -0.2637
18502SOL    HW162111   3.988  10.060   2.149  0.9906 -0.9659 -2.5216
18502SOL    HW262112   3.953   9.916   2.181 -0.2121 -0.4174 -1.2442
18503SOL     OW62113   3.610   1.245   8.390 -0.2443 -0.3538 -0.0086
18503SOL    HW162114   3.695   1.242   8.346 -0.3051  0.3528 -0.1895
18503SOL    HW262115   3.547   1.256   8.319 -0.3815  0.3331  0.2161
18504SOL     OW62116   3.014   1.331   2.687 -0.0631  0.5918  0.1992
18504SOL    HW162117   3.002   1.267   2.757 -0.0469  0.3060 -0.0526
18504SOL    HW262118   2.970   1.410   2.718 -1.7900 -0.1154 -0.2683
18505SOL     OW62119  12.410   2.317   1.241  0.0400 -0.5780  0.2627
18505SOL    HW162120  12.425   2.405   1.209  2.8159 -1.3284 -0.8512
18505SOL    HW262121  12.353   2.328   1.317  1.7566  2.3936  1.2939
18506SOL     OW62122  12.516  12.590   2.041  0.0668 -0.5828  0.0827
18506SOL    HW162123  12.461  12.528   2.088  1.2044 -0.7488  1.2798
18506SOL    HW262124  12.571  12.629   2.110  0.9579  0.0557 -0.9595
18507SOL     OW62125   9.761  12.199   7.548  0.3093 -0.1827  0.5917
18507SOL    HW162126   9.735  12.271   7.490 -1.1872 -0.6750  0.5932
18507SOL    HW262127   9.805  12.241   7.621 -1.1328  0.8280  0.9247
18508SOL     OW62128   9.347  10.954   0.984 -0.2007  0.1269  0.4685
18508SOL    HW162129   9.409  11.002   1.038  0.1975  0.0702  0.0689
18508SOL    HW262130   9.388  10.869   0.969  1.6399  1.4308 -3.1890
18509SOL     OW62131   3.447   2.232  10.493  0.1254 -1.0232 -0.5997
18509SOL    HW162132   3.438   2.140  10.468  3.0361 -1.1928 -1.3327
18509SOL    HW262133   3.529   2.235  10.541  0.1510  1.2467 -0.7055
18510SOL     OW62134  12.296  11.547  11.172 -0.3649  0.5226 -0.3067
18510SOL    HW162135  12.215  11.511  11.209  0.3821  1.1403  2.0874
18510SOL    HW262136  12.316  11.489  11.098 -1.2336 -1.6998  1.0944
18511SOL     OW62137   1.886   7.229   2.109  0.7599  0.5528 -0.0310
18511SOL    HW162138   1.956   7.183   2.156 -1.3018 -0.7175  2.0223
18511SOL    HW262139   1.853   7.164   2.047  0.8800  0.8863 -0.4487
18512SOL     OW62140  11.354   8.509  12.773  0.1016 -0.4787  0.1450
18512SOL    HW162141  11.271   8.552  12.756  0.4381  1.3457  2.5711
18512SOL    HW262142  11.334   8.415  12.767 -1.6411 -0.0770 -1.1441
18513SOL     OW62143   2.508   1.157  11.258 -0.3023  0.0275  0.9777
18513SOL    HW162144   2.598   1.124  11.257  0.0386  0.9243 -0.1254
18513SOL    HW262145   2.455   1.084  11.225  0.0796 -0.3095  1.1033
18514SOL     OW62146   0.782   4.367  10.952  0.4582 -0.0939  0.0830
18514SOL    HW162147   0.746   4.442  10.905  1.1816  0.4605  0.3890
18514SOL    HW262148   0.868   4.396  10.982  0.0510 -0.4363  1.7023
18515SOL     OW62149   7.762   4.547  11.562 -0.3638 -0.3177  0.0711
18515SOL    HW162150   7.669   4.535  11.581 -0.0753 -0.6557  1.3878
18515SOL    HW262151   7.799   4.458  11.565  0.1458 -0.1000  0.4507
18516SOL     OW62152   3.360   3.579  12.544 -0.2965  0.0771  0.1064
18516SOL    HW162153   3.286   3.530  12.507  0.1996 -1.2534  0.8048
18516SOL    HW262154   3.335   3.671  12.536 -1.3374 -0.2881 -1.0951
18517SOL     OW62155  12.620   7.482   6.350 -0.4201  0.0765  0.2403
18517SOL    HW162156  12.701   7.466   6.302 -0.9345  1.4033 -1.1550
18517SOL    HW262157  12.551   7.460   6.287 -1.1326  0.3342  0.9170
18518SOL     OW62158   8.723   0.906  11.572 -0.1439  0.0237  0.1029
18518SOL    HW162159   8.669   0.827  11.578 -0.2647  0.0214 -0.8637
18518SOL    HW262160   8.731   0.922  11.478 -2.8757  3.0150  0.2294
18519SOL     OW62161  12.516   6.472   7.392 -0.6834  0.4897  0.0545
18519SOL    HW162162  12.443   6.530   7.412  0.5376  1.2672  2.7224
18519SOL    HW262163  12.586   6.529   7.362 -0.0841  0.2044  0.8622
18520SOL     OW62164   9.410  10.447   5.233 -0.3693 -0.3259  0.6247
18520SOL    HW162165   9.431  10.533   5.196 -0.7210 -0.1214  0.8956
18520SOL    HW262166   9.436  10.384   5.165 -1.2230  0.0534 -0.0701
18521SOL     OW62167   3.332   2.091   4.650  0.2080  0.0687 -0.1643
18521SOL    HW162168   3.415   2.067   4.691  0.2192 -0.3072 -0.3957
18521SOL    HW262169   3.349   2.174   4.607  0.3498  0.1922  0.1257
18522SOL     OW62170   8.066   1.476   8.830 -0.3597 -0.1160 -0.7824
18522SOL    HW162171   8.085   1.560   8.871  1.0604 -0.4131 -0.7922
18522SOL    HW262172   8.033   1.499   8.743 -2.3107  0.4737  0.0500
18523SOL     OW62173   4.970   3.210   3.847 -0.2748 -0.2642  0.1348
18523SOL    HW162174   4.908   3.245   3.783 -0.2411  0.2237  0.3565
18523SOL    HW262175   5.044   3.178   3.796 -0.3077 -0.0013 -0.0769
18524SOL     OW62176   4.508   0.163   4.588  0.1262 -0.0514 -0.1547
18524SOL    HW162177   4.530   0.226   4.519  0.1321  0.7796  0.5849
18524SOL    HW262178   4.562   0.190   4.663 -0.5137 -0.4051  0.4444
18525SOL     OW62179   1.811   7.367   0.104 -0.8619  0.0423  0.4052
18525SOL    HW162180   1.854   7.446   0.135  0.7383 -0.4092 -0.5586
18525SOL    HW262181   1.796   7.315   0.184  3.6438 -1.3371  0.6547
18526SOL     OW62182  12.735   0.719  11.569 -0.0436 -0.4475  0.1223
18526SOL    HW162183  12.682   0.689  11.495 -2.2810 -2.7559  2.4255
18526SOL    HW262184  12.726   0.814  11.569 -2.2508 -0.6013 -0.9885
18527SOL     OW62185  10.588   0.647   9.055 -0.5070 -0.3507 -0.0152
18527SOL    HW162186  10.641   0.612   8.983 -1.4186 -0.4180 -0.6703
18527SOL    HW262187  10.618   0.737   9.065 -0.1118 -0.4568 -0.2245
18528SOL     OW62188   9.064   8.004   1.293  0.5042 -0.0589  0.0719
18528SOL    HW162189   9.101   8.080   1.248  1.3250 -0.5277 -0.0583
18528SOL    HW262190   9.076   7.932   1.232  0.8729 -0.5372  0.6993
18529SOL     OW62191   6.922   0.904   4.358 -0.3776 -0.4598  0.1956
18529SOL    HW162192   6.963   0.841   4.299 -0.4384 -1.3231  1.0431
18529SOL    HW262193   6.852   0.854   4.401  0.1192 -0.0734  1.5088
18530SOL     OW62194   1.140   0.205  10.741 -0.2157 -0.3058  0.6136
18530SOL    HW162195   1.059   0.156  10.727 -0.7260  0.6589  0.1395
18530SOL    HW262196   1.115   0.277  10.798  0.0471  0.6604 -0.4522
18531SOL     OW62197   4.351  11.085   7.034  0.1578 -0.2992  0.1180
18531SOL    HW162198   4.329  11.097   6.941 -1.9785 -2.4697  0.2261
18531SOL    HW262199   4.312  11.160   7.078  0.3347  0.2442 -0.6259
18532SOL     OW62200   6.472   6.467   9.822 -0.0253 -0.8911  0.5964
18532SOL    HW162201   6.478   6.488   9.915 -1.1406 -2.5266  1.0960
18532SOL    HW262202   6.451   6.374   9.821  0.4707 -1.0094 -1.3232
18533SOL     OW62203   5.277   0.327   6.482 -0.7871  0.1432 -0.0828
18533SOL    HW162204   5.238   0.339   6.395 -1.8175 -2.0205  0.0030
18533SOL    HW262205   5.226   0.384   6.540 -0.8494  0.7264 -0.7026
18534SOL     OW62206  11.185   8.700  10.077  0.2546  0.8498 -0.1510
18534SOL    HW162207  11.231   8.658  10.005 -1.7692 -0.5111 -0.7226
18534SOL    HW262208  11.244   8.689  10.152  1.1837 -0.1703 -0.9914
18535SOL     OW62209   5.195  12.613   9.454 -0.0737 -0.3093  0.2927
18535SOL    HW162210   5.180  12.615   9.360 -1.1318  0.1652  0.4614
18535SOL    HW262211   5.108  12.602   9.493 -0.0249  2.1157  1.3085
18536SOL     OW62212   6.576   6.932   9.361 -0.4940 -0.0076  0.2496
18536SOL    HW162213   6.522   6.995   9.410 -0.0627  0.9390 -0.4571
18536SOL    HW262214   6.658   6.926   9.411  0.6786  2.3455 -1.2009
18537SOL     OW62215   9.364   8.517  12.447 -0.4116 -0.1131  0.1786
18537SOL    HW162216   9.424   8.579  12.488  1.1984 -1.3299 -0.2407
18537SOL    HW262217   9.385   8.433  12.487 -2.7280 -0.4032  0.9313
18538SOL     OW62218   2.129   5.624   2.575  0.0583  0.1870  0.5175
18538SOL    HW162219   2.185   5.700   2.562 -1.1925  1.2907  1.2707
18538SOL    HW262220   2.070   5.625   2.500  0.1974 -0.1822  0.4039
18539SOL     OW62221   0.067   2.045   3.247 -0.5898 -0.6736 -0.5579
18539SOL    HW162222   0.126   2.016   3.316 -1.8460 -1.7494  0.0983
18539SOL    HW262223   0.021   1.966   3.219  0.3378 -0.4051 -3.1229
18540SOL     OW62224   3.230   4.879   0.762  0.0735  0.3652 -0.2795
18540SOL    HW162225   3.178   4.855   0.686  0.2243  1.2312 -0.6748
18540SOL    HW262226   3.179   4.850   0.838 -0.5270  0.3431 -0.6913
18541SOL     OW62227   8.309   9.320   6.717  0.0481 -0.4197 -0.0974
18541SOL    HW162228   8.258   9.259   6.770 -1.3270  0.6205 -0.1530
18541SOL    HW262229   8.274   9.407   6.740  0.1858  0.1462 -1.8511
18542SOL     OW62230  11.183  11.257  10.173  0.4359  0.1464 -0.7862
18542SOL    HW162231  11.194  11.302  10.256 -1.0222 -1.2562  0.2313
18542SOL    HW262232  11.108  11.301  10.132 -0.9411 -1.2312  0.1741
18543SOL     OW62233   3.346   1.720   7.404  0.4414 -0.0148  0.4010
18543SOL    HW162234   3.382   1.722   7.316  0.6995  0.4234  0.5159
18543SOL    HW262235   3.302   1.804   7.415 -0.4275 -0.4469  0.3475
18544SOL     OW62236   9.720   5.008   9.561 -0.6566 -0.1423 -0.3119
18544SOL    HW162237   9.739   4.998   9.654 -1.7604  0.0876 -0.0486
18544SOL    HW262238   9.685   4.924   9.534 -1.3828  0.1391 -0.2545
18545SOL     OW62239   2.467   3.217   7.330  0.1633 -0.4359 -0.3611
18545SOL    HW162240   2.421   3.207   7.247 -1.8657 -0.4425  0.6799
18545SOL    HW262241   2.462   3.131   7.372 -0.4498 -0.0080  0.5001
18546SOL     OW62242   5.229   3.976  12.129 -0.6038  0.0928  0.1345
18546SOL    HW162243   5.253   4.046  12.190 -1.5587  0.0259  0.6059
18546SOL    HW262244   5.233   3.896  12.181 -0.5295 -0.0807 -0.1327
18547SOL     OW62245   5.802   3.113   9.647 -0.0437  0.5506  0.0355
18547SOL    HW162246   5.787   3.192   9.594  0.8298  0.6766 -0.0308
18547SOL    HW262247   5.744   3.125   9.723 -1.5642  0.2065 -1.0190
18548SOL     OW62248   6.164   7.802   3.240 -0.2565  0.2505  0.7939
18548SOL    HW162249   6.162   7.730   3.177 -0.5019  0.0977  0.9754
18548SOL    HW262250   6.236   7.780   3.299 -0.3057  0.1761  0.8259
18549SOL     OW62251   5.685   0.222  11.290  0.0888  0.2644  0.0091
18549SOL    HW162252   5.677   0.208  11.196 -1.3008  0.8974  0.0185
18549SOL    HW262253   5.687   0.317  11.300  0.6866  0.2000  0.5995
18550SOL     OW62254   2.093   0.924   3.911 -0.1455 -0.0502  0.8045
18550SOL    HW162255   1.999   0.905   3.908 -0.0413 -0.6153  0.9526
18550SOL    HW262256   2.129   0.876   3.837 -0.2054  1.6169 -0.3540
18551SOL     OW62257  11.533   8.244   6.829 -0.7442  0.3282 -0.0358
18551SOL    HW162258  11.574   8.213   6.749  1.4252  1.4364  0.5634
18551SOL    HW262259  11.449   8.280   6.801 -1.3049 -1.8272 -1.3589
18552SOL     OW62260   1.225  11.930   3.314  0.5395  0.3303 -0.1415
18552SOL    HW162261   1.321  11.928   3.317  0.5354  0.1503 -0.1264
18552SOL    HW262262   1.200  11.982   3.390  0.5798 -0.6870  0.5825
18553SOL     OW62263   4.361  12.450   4.575 -0.1101 -0.1689  0.1986
18553SOL    HW162264   4.435  12.391   4.588 -0.3161 -0.5598 -0.3816
18553SOL    HW262265   4.388  12.531   4.617  0.1746 -0.6733  1.0012
18554SOL     OW62266   2.341   4.405  11.729  0.0186 -0.3497  0.1092
18554SOL    HW162267   2.293   4.370  11.654  0.6518 -0.6186 -0.1848
18554SOL    HW262268   2.336   4.500  11.719 -0.0914 -0.3827 -0.1535
18555SOL     OW62269  11.319   9.501   8.966 -0.0682  0.1504 -0.8214
18555SOL    HW162270  11.264   9.453   8.905 -1.0720  0.8856 -0.5120
18555SOL    HW262271  11.392   9.533   8.912 -0.9865  0.8686 -1.6572
18556SOL     OW62272   2.826   2.272   9.990 -0.7282  0.2077  0.1617
18556SOL    HW162273   2.762   2.284  10.060 -0.4849 -1.6846  0.7704
18556SOL    HW262274   2.817   2.181   9.964  0.5960  0.3349 -0.8876
18557SOL     OW62275   4.198  10.051   8.477  0.0464  0.2427 -1.0019
18557SOL    HW162276   4.190  10.123   8.414  1.6367  2.4250  1.1002
18557SOL    HW262277   4.114  10.050   8.523 -0.3950 -0.0269 -1.7998
18558SOL     OW62278   4.810   2.034   1.561  0.1656 -0.5599 -0.4399
18558SOL    HW162279   4.714   2.034   1.558  0.1569 -0.7143 -0.1974
18558SOL    HW262280   4.836   1.955   1.513  0.0639 -2.3721  2.2755
18559SOL     OW62281   1.335   8.596  11.474 -0.0806 -0.0201 -0.2602
18559SOL    HW162282   1.386   8.654  11.529 -1.1908  0.6190  0.1322
18559SOL    HW262283   1.279   8.548  11.535  0.0493 -0.7115 -0.6751
18560SOL     OW62284   9.361   9.193   0.646 -0.5863  0.0647  0.3088
18560SOL    HW162285   9.265   9.183   0.645 -0.6712  0.7876 -0.8801
18560SOL    HW262286   9.380   9.231   0.732 -1.2840 -0.7879  0.8544
18561SOL     OW62287   8.773   2.321  12.146  0.1470 -0.8417  0.1570
18561SOL    HW162288   8.727   2.291  12.225 -0.3925  0.4989  0.3673
18561SOL    HW262289   8.860   2.282  12.153 -0.0214 -1.0532  1.2254
18562SOL     OW62290  11.788   2.219   8.670 -0.4748  0.8914 -0.5500
18562SOL    HW162291  11.845   2.215   8.593  0.6079  0.3127  0.2583
18562SOL    HW262292  11.847   2.240   8.743 -1.2893  0.2791  0.3137
18563SOL     OW62293   1.262  12.465   1.166 -0.2471  0.2708  0.3950
18563SOL    HW162294   1.250  12.386   1.113  0.0450 -0.8629  1.9254
18563SOL    HW262295   1.183  12.516   1.151 -1.9434 -1.7833  1.6866
18564SOL     OW62296  10.130   7.253   8.644 -0.1117  0.3675 -0.0042
18564SOL    HW162297  10.108   7.311   8.571  2.1447  0.2646 -0.8657
18564SOL    HW262298  10.115   7.305   8.722 -1.3758  0.9164 -0.5933
18565SOL     OW62299   0.005   6.252   3.050 -0.1332  0.4612  0.0520
18565SOL    HW162300   0.047   6.178   3.094 -0.0386  0.1777 -0.4920
18565SOL    HW262301   0.071   6.282   2.987 -0.0887  1.1528  0.4169
18566SOL     OW62302  11.950   3.237   2.228  0.0510  0.5843  0.1743
18566SOL    HW162303  12.016   3.170   2.247  0.4198  0.8377 -0.1996
18566SOL    HW262304  11.977   3.313   2.280  1.5256  1.5618 -1.8653
18567SOL     OW62305  10.506   3.174   0.376  0.0406 -0.1110  0.0051
18567SOL    HW162306  10.481   3.084   0.398 -0.0376 -0.5558 -1.7731
18567SOL    HW262307  10.577   3.194   0.437  0.0405 -1.3731  0.4529
18568SOL     OW62308   2.504  12.524   0.427 -0.7931 -0.3321  0.6646
18568SOL    HW162309   2.573  12.591   0.424  1.0653 -2.1753 -0.2047
18568SOL    HW262310   2.448  12.552   0.500 -0.8500  2.7935 -0.4111
18569SOL     OW62311   6.883   4.326   1.835 -0.5853  0.0177  0.6710
18569SOL    HW162312   6.972   4.335   1.800 -0.5589 -1.5064  0.2739
18569SOL    HW262313   6.895   4.319   1.930 -0.0746 -1.9020  0.5177
18570SOL     OW62314   1.589   3.934   3.502 -0.1975 -0.9104 -0.3301
18570SOL    HW162315   1.656   3.913   3.437 -0.3803 -2.1236 -0.1583
18570SOL    HW262316   1.506   3.913   3.458 -0.3675 -0.9877  0.0228
18571SOL     OW62317   4.366   0.829  11.114  0.1003  0.2921 -0.5157
18571SOL    HW162318   4.334   0.834  11.024  0.6517 -0.5524 -0.7674
18571SOL    HW262319   4.444   0.773  11.109  1.3437  1.8990  0.1742
18572SOL     OW62320   3.028   4.190   5.130  0.0267 -0.0709 -0.6235
18572SOL    HW162321   3.079   4.246   5.071  0.5382  0.0304 -0.0933
18572SOL    HW262322   2.941   4.228   5.130  0.6719  1.5240  0.7305
18573SOL     OW62323   0.481   9.132   1.787 -0.1343  0.5341  0.5990
18573SOL    HW162324   0.500   9.052   1.738 -0.5776 -0.1437  1.4806
18573SOL    HW262325   0.516   9.203   1.733  0.4510 -0.2679 -0.1116
18574SOL     OW62326   0.114  12.457  12.702 -0.5097 -0.0590 -0.1456
18574SOL    HW162327   0.032  12.415  12.676 -0.6272  0.0190  0.0976
18574SOL    HW262328   0.177  12.432  12.634 -0.8417  0.2233 -0.5554
18575SOL     OW62329   9.746   8.661   0.398  0.6054 -0.3783 -0.6631
18575SOL    HW162330   9.751   8.675   0.493  2.2822  1.1031 -0.9352
18575SOL    HW262331   9.801   8.585   0.382 -1.0541 -1.7198 -0.2928
18576SOL     OW62332   2.734   6.286   3.424  0.3890  0.4158 -0.0788
18576SOL    HW162333   2.668   6.246   3.480  1.7711 -2.0429 -0.0380
18576SOL    HW262334   2.817   6.272   3.471  1.2042  1.3474 -1.1651
18577SOL     OW62335   0.224   6.058   7.352  0.0332  0.0206 -0.3468
18577SOL    HW162336   0.319   6.047   7.356 -0.0594 -0.8191 -0.3323
18577SOL    HW262337   0.195   6.051   7.443 -0.2436 -1.7878 -0.5346
18578SOL     OW62338   3.614  12.647  11.875 -0.4903 -0.4797 -0.1269
18578SOL    HW162339   3.567  12.617  11.797 -2.6628  0.4340  0.7437
18578SOL    HW262340   3.680  12.579  11.891 -1.3868 -1.7455 -1.5327
18579SOL     OW62341  10.338   0.255  12.507 -0.7243 -0.4520 -0.3204
18579SOL    HW162342  10.329   0.181  12.568 -0.1077 -0.3273 -0.0709
18579SOL    HW262343  10.266   0.244  12.445 -1.0436 -0.8834  0.1165
18580SOL     OW62344   8.242   7.545  12.476 -0.0960  0.1137 -0.0165
18580SOL    HW162345   8.169   7.574  12.420 -1.2315 -2.4016  0.0572
18580SOL    HW262346   8.211   7.561  12.565 -2.2488 -4.1023  0.2330
18581SOL     OW62347   0.829   4.782  11.959  0.1126 -0.9817 -0.2638
18581SOL    HW162348   0.822   4.871  11.924 -1.1866 -1.3701 -1.0735
18581SOL    HW262349   0.747   4.769  12.006  0.5810 -1.5281  0.4069
18582SOL     OW62350   4.186   0.676   0.122 -0.2106  0.6478  0.6418
18582SOL    HW162351   4.247   0.604   0.107  0.4514  1.3671 -0.1752
18582SOL    HW262352   4.154   0.662   0.211 -2.1925 -2.2190 -0.3782
18583SOL     OW62353   3.775   7.602   6.551  0.2818  0.3480  0.6767
18583SOL    HW162354   3.867   7.590   6.527  0.0494  2.8405 -2.1309
18583SOL    HW262355   3.775   7.680   6.606 -0.1196  0.2732  0.7793
18584SOL     OW62356   1.942  12.591   3.471  0.3502  0.3509 -0.1691
18584SOL    HW162357   1.867  12.614   3.526  0.6820  0.2442  0.3372
18584SOL    HW262358   1.934  12.647   3.395  0.9994  2.0002  0.9150
18585SOL     OW62359   0.136   2.652   1.845 -0.0192 -0.4344  0.1831
18585SOL    HW162360   0.072   2.681   1.912 -2.7270 -2.3627 -1.3624
18585SOL    HW262361   0.167   2.568   1.878 -0.5303 -0.8693 -0.4269
18586SOL     OW62362   3.045   7.156   6.107 -0.1096 -0.6402  0.1529
18586SOL    HW162363   3.136   7.184   6.114 -0.2088 -0.1628 -0.4534
18586SOL    HW262364   3.038   7.084   6.170  0.8491 -1.1062 -0.2539
18587SOL     OW62365   7.703   2.058   1.721  0.1492  0.1472  0.5821
18587SOL    HW162366   7.638   2.125   1.742 -0.9452 -0.7212  0.0820
18587SOL    HW262367   7.714   2.065   1.626  1.4057  0.8219  0.7664
18588SOL     OW62368   0.896   9.288   2.493  0.4044  0.4348  0.3854
18588SOL    HW162369   0.925   9.204   2.456 -1.3935 -0.2629  0.4515
18588SOL    HW262370   0.806   9.271   2.522 -0.9778  3.0499 -1.9015
18589SOL     OW62371   4.229  10.126  12.087  0.1639  0.5246  0.3494
18589SOL    HW162372   4.282  10.051  12.061 -0.4742  0.2931 -0.3125
18589SOL    HW262373   4.202  10.107  12.176  2.8426  1.5818  1.4854
18590SOL     OW62374  11.647   4.813   3.722 -0.0821 -0.3531  0.1440
18590SOL    HW162375  11.569   4.801   3.668 -1.0261  0.2162  1.3424
18590SOL    HW262376  11.661   4.728   3.764 -0.1238 -0.4256  0.0116
18591SOL     OW62377   9.941   2.255   1.295 -0.0483  0.2076  0.2477
18591SOL    HW162378   9.854   2.244   1.332 -0.9007  0.2329 -1.6336
18591SOL    HW262379   9.985   2.171   1.311 -0.2388  0.3367  1.5683
18592SOL     OW62380   7.128   3.614   3.372 -0.1913  0.8834  0.2165
18592SOL    HW162381   7.074   3.684   3.408 -2.7026 -1.0066  0.4065
18592SOL    HW262382   7.112   3.616   3.278  0.4155  1.0817  0.1113
18593SOL     OW62383   9.870   8.397   4.026  0.2232  1.0350 -0.1561
18593SOL    HW162384   9.780   8.421   4.004 -0.2695 -0.4295  0.1536
18593SOL    HW262385   9.889   8.322   3.970  1.2773  1.3681 -0.2592
18594SOL     OW62386  10.817  11.453   7.128  0.0079  0.0425  0.2806
18594SOL    HW162387  10.878  11.460   7.201  1.2573 -1.7416 -0.5177
18594SOL    HW262388  10.835  11.367   7.089  1.1209  1.8007 -3.5841
18595SOL     OW62389   2.608   7.063   9.870  0.4759 -0.6126 -0.3697
18595SOL    HW162390   2.649   7.117   9.938 -1.0088 -1.1269  1.0114
18595SOL    HW262391   2.656   7.084   9.790  1.7442  0.6517  0.6666
18596SOL     OW62392   0.506   0.682   9.288  0.2997 -0.3436  0.1576
18596SOL    HW162393   0.502   0.671   9.193  1.9898 -1.1171  0.1369
18596SOL    HW262394   0.598   0.703   9.306 -0.1436  0.5802  1.5643
18597SOL     OW62395   2.522  10.661   1.553 -0.2408 -0.4346 -0.1806
18597SOL    HW162396   2.586  10.650   1.483 -0.7133  1.5867 -1.0113
18597SOL    HW262397   2.440  10.631   1.515 -0.0036 -2.0013  0.5086
18598SOL     OW62398   2.808   4.299   5.681  0.1389 -0.4110  0.1072
18598SOL    HW162399   2.904   4.291   5.684  0.3362  0.5390 -1.9187
18598SOL    HW262400   2.779   4.272   5.768  2.4044  1.2854  1.4957
18599SOL     OW62401  12.621   3.643   6.783 -0.1643  0.1347 -0.1284
18599SOL    HW162402  12.659   3.584   6.848 -1.3216 -0.6145 -0.1017
18599SOL    HW262403  12.549   3.686   6.829 -0.7090 -0.0711 -0.7691
18600SOL     OW62404   3.437   9.937   8.787  0.1137 -0.0995 -0.2478
18600SOL    HW162405   3.482   9.892   8.859 -2.2876 -1.4348  0.5563
18600SOL    HW262406   3.368   9.987   8.831 -1.3937 -0.9261 -1.5957
18601SOL     OW62407   4.696   9.126   0.125 -0.3060 -0.7003 -0.4110
18601SOL    HW162408   4.750   9.084   0.058 -0.6660  1.0982 -1.9422
18601SOL    HW262409   4.609   9.090   0.112 -0.4165 -0.2166 -1.0898
18602SOL     OW62410  12.546   7.303   3.834 -0.2209 -0.2087 -0.3479
18602SOL    HW162411  12.572   7.214   3.858  1.8497  0.1514 -1.0592
18602SOL    HW262412  12.607   7.328   3.764  1.2739  2.8183  1.8072
18603SOL     OW62413   1.032   7.709   3.598 -0.2537 -0.1962  0.0308
18603SOL    HW162414   0.986   7.756   3.667 -1.1742 -0.7299 -0.2110
18603SOL    HW262415   1.117   7.687   3.636 -0.1814  0.8034  0.4772
18604SOL     OW62416  10.448   7.147   6.867 -0.0827  0.3032  0.1622
18604SOL    HW162417  10.450   7.186   6.954 -0.5739 -0.8491  0.7077
18604SOL    HW262418  10.360   7.108   6.860 -1.3679  3.1840 -2.1309
18605SOL     OW62419   8.123   7.747  11.847 -0.1502 -0.0063 -0.6065
18605SOL    HW162420   8.068   7.696  11.906 -0.0983 -0.0630 -0.6066
18605SOL    HW262421   8.188   7.788  11.904  1.3466 -1.9080 -0.8594
18606SOL     OW62422   1.113   5.299   2.265  0.2290  0.1660  0.1278
18606SOL    HW162423   1.193   5.278   2.217  0.2880 -0.4708  0.4968
18606SOL    HW262424   1.042   5.265   2.209  0.3429 -1.4219  0.9079
18607SOL     OW62425  12.526   3.104   7.721  0.1977 -0.1970  0.0574
18607SOL    HW162426  12.530   3.181   7.664  1.2580 -0.6725 -0.5490
18607SOL    HW262427  12.572   3.132   7.801  0.9851 -0.3247 -0.3368
18608SOL     OW62428   5.886  11.346   2.089 -0.2727 -0.0201  0.6771
18608SOL    HW162429   5.922  11.267   2.047 -1.7486 -1.3792  1.8765
18608SOL    HW262430   5.890  11.327   2.182 -0.9752  1.1913  0.9620
18609SOL     OW62431   7.771   7.678  10.981 -0.3914 -0.0534  0.1140
18609SOL    HW162432   7.686   7.638  11.000 -1.6346  1.8517 -1.1237
18609SOL    HW262433   7.800   7.634  10.902 -1.0609  0.4177 -0.4128
18610SOL     OW62434   3.540  10.813   3.453 -0.5153  0.0287 -0.2413
18610SOL    HW162435   3.629  10.799   3.484 -0.3740 -0.6373 -0.9203
18610SOL    HW262436   3.521  10.904   3.475  0.6895  0.4786 -0.9384
18611SOL     OW62437   5.683   1.416   1.212  0.0831 -0.1704 -0.1742
18611SOL    HW162438   5.631   1.486   1.172 -0.9882 -1.1644 -0.5788
18611SOL    HW262439   5.774   1.444   1.201 -0.3303  1.7264  0.7412
18612SOL     OW62440   6.953   9.064  11.047  0.0703 -0.2067 -0.0532
18612SOL    HW162441   6.892   9.087  11.117 -0.4653 -1.5218 -0.0697
18612SOL    HW262442   7.017   9.136  11.047 -1.0396  0.8203  0.4504
18613SOL     OW62443  10.812   0.156   8.918 -0.3800 -0.1925  0.1753
18613SOL    HW162444  10.754   0.199   8.855  1.2426 -1.7741 -2.6057
18613SOL    HW262445  10.900   0.176   8.886  0.5057 -1.6776  1.5533
18614SOL     OW62446  10.415   4.805  10.720 -0.0218  0.6766 -0.1233
18614SOL    HW162447  10.502   4.838  10.740  0.4222  0.1998 -1.2050
18614SOL    HW262448  10.356   4.864  10.766  0.8968 -0.7832  3.2692
18615SOL     OW62449   6.225   5.432   7.512  0.5179  0.1897 -0.5384
18615SOL    HW162450   6.158   5.390   7.567  2.2294 -2.6321 -0.4062
18615SOL    HW262451   6.175   5.484   7.449 -1.8265 -1.9025 -0.5595
18616SOL     OW62452   1.602   4.442   3.604 -0.0687 -0.3224  0.0608
18616SOL    HW162453   1.575   4.362   3.559 -1.2562  1.2939 -2.2972
18616SOL    HW262454   1.666   4.482   3.546 -1.3167  1.6309 -0.0425
18617SOL     OW62455   2.950   1.236   1.582 -0.0115 -0.2208  0.1723
18617SOL    HW162456   2.913   1.209   1.666 -0.3089 -1.1495 -0.2447
18617SOL    HW262457   2.932   1.163   1.523  0.2427  0.3931 -0.6892
18618SOL     OW62458   8.037   6.455   8.848 -0.3975  0.5013 -0.7886
18618SOL    HW162459   8.120   6.432   8.889 -1.3626 -1.6399  0.1552
18618SOL    HW262460   7.971   6.430   8.912 -1.9113 -1.2803 -2.8796
18619SOL     OW62461   7.917   4.777   7.660  0.2123 -0.0948  0.0219
18619SOL    HW162462   7.878   4.754   7.744  0.1049 -3.1596 -0.7442
18619SOL    HW262463   7.934   4.693   7.617  1.8771  1.2953 -2.3135
18620SOL     OW62464   0.543   7.538   4.584 -0.6080 -0.2722  0.0101
18620SOL    HW162465   0.611   7.470   4.585 -0.4278 -0.0903  0.1654
18620SOL    HW262466   0.572   7.602   4.649 -0.5721  0.1487 -0.4117
18621SOL     OW62467  12.112   6.755   4.219 -0.0879  0.0362 -0.3866
18621SOL    HW162468  12.142   6.757   4.310 -3.2670 -1.0790  0.8158
18621SOL    HW262469  12.167   6.689   4.177  0.6440 -0.2858  1.0266
18622SOL     OW62470   7.984   0.267  11.050 -0.4502 -0.2443 -0.1648
18622SOL    HW162471   7.986   0.192  10.991 -0.9243 -0.2274 -0.2038
18622SOL    HW262472   8.002   0.229  11.137 -0.9204 -0.4420 -0.1493
18623SOL     OW62473   9.852   7.538   3.131 -0.0117  0.0631 -0.1610
18623SOL    HW162474   9.824   7.450   3.109  1.3071 -0.3186 -0.4186
18623SOL    HW262475   9.878   7.577   3.048  1.4982 -0.0977  0.2051
18624SOL     OW62476   9.488   0.296   5.461  0.1170  0.7822 -0.3948
18624SOL    HW162477   9.483   0.367   5.525 -0.3140  1.2022 -0.8840
18624SOL    HW262478   9.582   0.282   5.448  0.2525 -0.3650  1.4649
18625SOL     OW62479   2.398   9.629   8.072  0.5331  0.6301 -0.4127
18625SOL    HW162480   2.312   9.648   8.036 -0.2754 -0.9238  0.5880
18625SOL    HW262481   2.397   9.535   8.091  2.6883  0.4238 -0.9714
18626SOL     OW62482   2.219  11.023   6.765  0.0119  0.5003 -0.3790
18626SOL    HW162483   2.263  10.951   6.720 -2.1317 -0.6656 -0.7530
18626SOL    HW262484   2.287  11.065   6.816  1.5094 -1.2549 -0.8391
18627SOL     OW62485  12.226   5.660   1.452 -0.6316 -0.2199 -0.2299
18627SOL    HW162486  12.188   5.699   1.531  1.0344  0.2900  0.3603
18627SOL    HW262487  12.189   5.572   1.449 -2.6556  0.5690 -0.2917
18628SOL     OW62488   3.985   6.907   3.646 -0.0190  0.4063  0.3792
18628SOL    HW162489   4.012   6.819   3.620 -1.1236  0.0229  0.4884
18628SOL    HW262490   4.068   6.954   3.660  0.6086 -0.0728 -1.4113
18629SOL     OW62491   1.555   7.752   6.730  0.3124  0.3997 -0.3754
18629SOL    HW162492   1.559   7.707   6.814 -2.7475  0.1663 -0.2553
18629SOL    HW262493   1.625   7.712   6.678  1.5439 -0.2120  1.6574
18630SOL     OW62494   1.702   6.984   4.331  0.1194  0.2575 -0.4697
18630SOL    HW162495   1.753   6.904   4.320  0.8076  0.8051 -1.3120
18630SOL    HW262496   1.678   7.010   4.242  0.5793  1.4271 -0.2607
18631SOL     OW62497   9.829   8.280   7.368 -0.4159 -0.4438  0.0808
18631SOL    HW162498   9.757   8.229   7.405  0.1909 -0.2577  1.5639
18631SOL    HW262499   9.908   8.230   7.388 -0.0936 -0.7023 -1.6349
18632SOL     OW62500  10.814   3.873   6.989  0.1656 -0.5188  0.0211
18632SOL    HW162501  10.724   3.841   6.993  0.0609 -0.1255  2.2822
18632SOL    HW262502  10.806   3.961   6.952 -0.5091 -0.2197  0.8215
18633SOL     OW62503  11.011   1.932   1.671 -0.0383 -0.2582  0.6104
18633SOL    HW162504  10.949   1.943   1.743  1.5740 -0.6620  2.1189
18633SOL    HW262505  11.091   1.974   1.701  0.4103  0.4113 -1.3637
18634SOL     OW62506   6.061   5.468   9.180  0.6062 -0.5512 -0.1033
18634SOL    HW162507   6.048   5.546   9.233  0.9667 -0.4573 -0.1501
18634SOL    HW262508   6.020   5.397   9.231  1.1824 -0.5072  0.4285
18635SOL     OW62509   1.921   5.544  11.179  0.1979  0.0560 -0.1715
18635SOL    HW162510   1.938   5.463  11.226 -0.9077 -1.1581 -1.7381
18635SOL    HW262511   2.005   5.590  11.178  0.8345 -1.0563  0.7715
18636SOL     OW62512   6.178  11.136   4.302  0.4183 -0.5923 -0.0035
18636SOL    HW162513   6.210  11.224   4.281  1.0499 -0.3063  1.9493
18636SOL    HW262514   6.254  11.092   4.340  0.1010 -2.0060 -0.9180
18637SOL     OW62515   3.973   3.944   6.793 -0.0896 -0.0970 -0.7967
18637SOL    HW162516   3.903   4.000   6.825  0.5216 -0.3349  1.0446
18637SOL    HW262517   3.958   3.859   6.836  1.4425 -0.0816 -0.1471
18638SOL     OW62518   7.795   4.212   2.107  0.1155 -0.3421  0.2070
18638SOL    HW162519   7.812   4.297   2.068 -0.5016  0.5724  1.8695
18638SOL    HW262520   7.842   4.150   2.050  0.3437  1.0446 -1.1851
18639SOL     OW62521  10.106   1.093   3.654 -0.1328  0.1361  0.0533
18639SOL    HW162522  10.106   1.011   3.703 -1.6724 -0.7674 -1.3430
18639SOL    HW262523  10.153   1.155   3.710  1.9699 -1.9110  0.7261
18640SOL     OW62524  12.287   8.864   3.987  0.1753  0.0630  0.1406
18640SOL    HW162525  12.207   8.813   3.980 -0.1973  0.6566  0.0104
18640SOL    HW262526  12.273   8.922   4.062  0.9221 -0.5869  0.8006
18641SOL     OW62527   0.923   9.246   4.965  0.5970  0.1248  0.1174
18641SOL    HW162528   0.854   9.285   4.911  2.7110  1.4558 -1.8173
18641SOL    HW262529   0.959   9.176   4.911  0.9851 -0.3275  0.9517
18642SOL     OW62530   5.856   8.240   5.161  0.1417  0.2093  0.2224
18642SOL    HW162531   5.801   8.308   5.123 -3.6606 -2.3170  0.7038
18642SOL    HW262532   5.845   8.249   5.256  1.4128  0.2490  0.3894
18643SOL     OW62533   0.856   5.803   9.274 -0.4319  0.1019  0.8143
18643SOL    HW162534   0.858   5.891   9.312 -0.5124 -0.2682  1.6970
18643SOL    HW262535   0.767   5.794   9.240 -0.0466  0.8407 -0.4860
18644SOL     OW62536   1.450   0.105   1.374  0.2710  0.0791  0.4883
18644SOL    HW162537   1.521   0.125   1.436 -0.2167  0.3701  0.9585
18644SOL    HW262538   1.468   0.015   1.345  1.6930  0.6533 -0.5626
18645SOL     OW62539   2.395  10.549   7.967 -0.0389 -0.5513 -0.5964
18645SOL    HW162540   2.344  10.629   7.975 -0.4885 -0.8151 -0.7886
18645SOL    HW262541   2.463  10.556   8.034 -0.3838 -0.2416 -0.2826
18646SOL     OW62542   1.595   4.064   3.776  0.0646  0.8376 -0.4294
18646SOL    HW162543   1.557   4.128   3.716 -2.9375  0.7329  1.1392
18646SOL    HW262544   1.564   3.979   3.744  1.1425  0.4739 -0.5417
18647SOL     OW62545   4.493   2.158  11.712  0.3150  0.1186 -0.1814
18647SOL    HW162546   4.500   2.201  11.797 -1.0376 -0.9812  0.5213
18647SOL    HW262547   4.566   2.194  11.661  0.4904  1.6189  1.0625
18648SOL     OW62548   9.529   0.632  12.159 -0.1357 -0.0292 -0.3149
18648SOL    HW162549   9.621   0.624  12.182  0.1872 -0.3519 -1.6511
18648SOL    HW262550   9.514   0.563  12.094 -1.4318 -0.2741  0.2233
18649SOL     OW62551  12.445   1.019   8.261 -0.0781  0.0907  0.2251
18649SOL    HW162552  12.493   1.034   8.180 -0.8417  3.1227  0.2181
18649SOL    HW262553  12.354   1.005   8.233 -0.1215 -0.2026  0.5000
18650SOL     OW62554   9.923  12.255   2.677  0.6176  0.6570 -0.4004
18650SOL    HW162555   9.940  12.174   2.629  0.8791  0.8496 -0.6328
18650SOL    HW262556   9.992  12.315   2.649  2.9030 -0.2694  2.7750
18651SOL     OW62557   1.983  10.724   6.831  0.5780 -0.0933 -0.5639
18651SOL    HW162558   1.949  10.653   6.776 -1.5929 -0.1761  0.7439
18651SOL    HW262559   2.065  10.690   6.867  1.2191 -0.6481 -2.4276
18652SOL     OW62560   6.946   1.218   7.570 -0.3663  0.0561 -0.4321
18652SOL    HW162561   6.907   1.159   7.634 -1.5514  0.1489 -1.0362
18652SOL    HW262562   6.904   1.195   7.487 -0.0417  1.0090 -0.8817
18653SOL     OW62563  10.003   7.964   7.618  0.5072  0.1224  0.0125
18653SOL    HW162564   9.986   7.983   7.711 -0.5458 -0.3764 -0.0594
18653SOL    HW262565  10.017   8.049   7.578 -0.4951  0.4588  0.3631
18654SOL     OW62566   8.480   8.473  10.314 -0.1329  0.4396  0.1365
18654SOL    HW162567   8.412   8.477  10.382  0.0566 -0.8040  0.4372
18654SOL    HW262568   8.433   8.489  10.232 -0.6512  0.4215  0.4232
18655SOL     OW62569   2.924   5.754   2.160 -0.8287 -0.5153  0.4738
18655SOL    HW162570   2.860   5.770   2.230  1.2598 -0.2126  2.4057
18655SOL    HW262571   2.915   5.830   2.103 -1.3117  0.1721  1.4253
18656SOL     OW62572   6.226   7.214   4.281  0.2458 -0.4656 -0.4348
18656SOL    HW162573   6.133   7.236   4.287  0.4385  0.3898 -0.5702
18656SOL    HW262574   6.245   7.168   4.363 -0.9638 -3.2832 -1.5772
18657SOL     OW62575   5.377   0.962   9.548  0.2279 -0.0279  0.3687
18657SOL    HW162576   5.411   0.931   9.632 -0.1578  1.7326  1.2191
18657SOL    HW262577   5.335   0.885   9.509  2.0836 -1.3687  0.8736
18658SOL     OW62578   4.005   7.867   0.868 -0.5361 -0.3754  0.2917
18658SOL    HW162579   3.981   7.911   0.787 -0.2631  0.3352  0.5843
18658SOL    HW262580   3.943   7.794   0.876 -0.3020 -0.7081 -0.7607
18659SOL     OW62581   2.744   0.266   8.447 -0.3393  0.2797  0.0406
18659SOL    HW162582   2.707   0.314   8.520 -0.4634  0.4712 -0.1487
18659SOL    HW262583   2.669   0.221   8.407 -0.3437  0.5230 -0.2310
18660SOL     OW62584   0.951   6.121  12.717  0.4183  0.7540 -0.4215
18660SOL    HW162585   0.976   6.213  12.713 -2.2246  1.5194 -2.9428
18660SOL    HW262586   0.872   6.120  12.771  0.8348 -0.1849  0.1905
18661SOL     OW62587   7.872  10.017   3.956 -0.1896 -0.0650 -0.2695
18661SOL    HW162588   7.832  10.066   3.884 -0.5847  1.3012  0.8354
18661SOL    HW262589   7.927   9.951   3.912 -0.8123  0.3903 -1.8075
18662SOL     OW62590   8.718   0.980   7.585 -0.0628  0.2404 -0.6980
18662SOL    HW162591   8.744   1.063   7.624  0.5209  0.0420 -0.6565
18662SOL    HW262592   8.625   0.991   7.564  0.3663  1.4466 -2.1153
18663SOL     OW62593   0.165   5.749   9.728 -0.5816 -0.5482  0.1098
18663SOL    HW162594   0.188   5.699   9.650  0.8034 -1.5849  1.1155
18663SOL    HW262595   0.230   5.819   9.732 -1.9620  0.8348 -0.7991
18664SOL     OW62596   0.178  11.178  11.176  0.7278 -0.1600 -0.1202
18664SOL    HW162597   0.260  11.164  11.223  0.2529  1.1234  1.1568
18664SOL    HW262598   0.188  11.264  11.134 -0.0234  0.1307  0.2541
18665SOL     OW62599  12.062   5.045   1.637 -0.0348 -0.4052 -0.3362
18665SOL    HW162600  12.095   4.957   1.618 -0.4391 -0.7543  0.5364
18665SOL    HW262601  11.981   5.031   1.685 -0.4266  0.4492 -0.7159
18666SOL     OW62602   4.141   1.972   8.861  0.0010 -0.0130  0.0060
18666SOL    HW162603   4.078   1.904   8.838  1.0384 -0.8620 -0.3961
18666SOL    HW262604   4.196   1.932   8.929  1.5899 -0.1572 -1.3006
18667SOL     OW62605   6.440   9.104  10.569 -0.1180 -0.2481  0.4018
18667SOL    HW162606   6.529   9.123  10.599 -0.5067  0.1530  1.3314
18667SOL    HW262607   6.427   9.011  10.590  0.2038 -0.3960 -0.0533
18668SOL     OW62608   6.182   8.212   4.840 -0.3439  0.3586 -0.1855
18668SOL    HW162609   6.103   8.245   4.882  0.2728  1.8952 -0.1577
18668SOL    HW262610   6.180   8.250   4.752 -0.8367 -1.5669 -1.0501
18669SOL     OW62611   9.567   1.284  12.044 -0.0077  0.2738 -0.7468
18669SOL    HW162612   9.620   1.236  11.980 -1.9478  0.6346 -2.7626
18669SOL    HW262613   9.476   1.262  12.021 -0.8189  0.9230  1.5380
18670SOL     OW62614   8.681   2.565   5.473  0.0046  0.5241  0.3700
18670SOL    HW162615   8.610   2.505   5.493  1.5147 -1.4091  0.2636
18670SOL    HW262616   8.640   2.635   5.423 -1.4893 -1.7636 -1.8663
18671SOL     OW62617  10.397  12.567   2.475 -0.4867 -0.1988  0.0062
18671SOL    HW162618  10.339  12.633   2.436 -1.2495 -0.5034  0.6127
18671SOL    HW262619  10.462  12.551   2.407  0.0196  1.5434  0.0239
18672SOL     OW62620  12.286   4.724   9.285  0.1331 -0.2562 -0.4082
18672SOL    HW162621  12.260   4.813   9.307  0.2725 -0.3625  0.1858
18672SOL    HW262622  12.323   4.689   9.365  2.2799 -0.0619 -1.2291
18673SOL     OW62623   8.325   5.263   4.268  0.5657 -0.0212  0.1101
18673SOL    HW162624   8.396   5.249   4.331  1.5949  3.1781 -0.1584
18673SOL    HW262625   8.369   5.296   4.190 -1.1561  1.7884 -0.1705
18674SOL     OW62626   3.224   4.627   4.836  0.1308  0.5889  0.1777
18674SOL    HW162627   3.319   4.618   4.829  0.1671  1.2556 -0.2769
18674SOL    HW262628   3.209   4.656   4.927  0.1264 -2.1229  1.1479
18675SOL     OW62629   1.699   8.142  10.267  0.2466 -0.1720  0.3156
18675SOL    HW162630   1.790   8.126  10.292  0.2556  0.2633  0.5660
18675SOL    HW262631   1.667   8.057  10.238  1.1555 -0.0685 -1.1231
18676SOL     OW62632  12.364   1.933   8.879  0.0176 -0.1491  0.1206
18676SOL    HW162633  12.322   1.868   8.935  0.0848 -0.3097 -0.0134
18676SOL    HW262634  12.365   1.892   8.792 -1.4176  0.6701 -0.3252
18677SOL     OW62635  11.589   0.616   2.518 -0.1676  0.0910  0.3724
18677SOL    HW162636  11.583   0.622   2.423 -3.8288 -4.7971 -0.1039
18677SOL    HW262637  11.671   0.567   2.534 -0.8746 -1.5147 -0.6380
18678SOL     OW62638   1.745   5.929   5.946 -0.4540  0.0433 -0.0389
18678SOL    HW162639   1.809   5.886   6.004  1.1876  1.3971 -0.7482
18678SOL    HW262640   1.679   5.862   5.929 -0.2830 -0.7971  2.3112
18679SOL     OW62641   8.664   6.456   1.440 -0.3170 -0.4780  0.5566
18679SOL    HW162642   8.705   6.507   1.509 -0.9957 -1.6155  1.8396
18679SOL    HW262643   8.722   6.380   1.428  0.9824  0.7567 -1.7188
18680SOL     OW62644   4.883   6.408   1.700  0.4620  0.3367  0.5483
18680SOL    HW162645   4.821   6.337   1.715  1.1984 -0.0785  1.7102
18680SOL    HW262646   4.969   6.366   1.704  0.8580  0.8087 -1.5345
18681SOL     OW62647   4.409   8.891  11.714  0.1587 -0.5554  0.4450
18681SOL    HW162648   4.438   8.934  11.634 -1.8266 -0.1301 -0.0971
18681SOL    HW262649   4.485   8.842  11.744  0.7118 -1.4695 -2.2070
18682SOL     OW62650   0.214   3.830   3.520 -0.9243  0.5898 -0.1031
18682SOL    HW162651   0.278   3.813   3.450 -0.9662  0.6713 -0.1614
18682SOL    HW262652   0.180   3.743   3.542  1.8742  0.0031  2.5246
18683SOL     OW62653   6.212   6.551   1.286  0.2270 -0.4080  0.3317
18683SOL    HW162654   6.123   6.575   1.312  0.0911 -0.2951 -0.2226
18683SOL    HW262655   6.247   6.629   1.245  0.4750 -0.5470  0.2767
18684SOL     OW62656  11.729   1.764   5.253 -0.2000 -0.4161 -0.1472
18684SOL    HW162657  11.750   1.714   5.332  0.3960 -0.8017 -0.5416
18684SOL    HW262658  11.805   1.820   5.239 -1.3356  1.4971  0.9503
18685SOL     OW62659   1.044   5.107  12.101 -0.0848  0.1869  0.0683
18685SOL    HW162660   1.000   5.098  12.185  0.4437 -1.1173  0.2361
18685SOL    HW262661   1.064   5.200  12.094 -2.0360  0.6804  0.3921
18686SOL     OW62662   4.994  11.954   7.931  0.2056  0.1505  0.1118
18686SOL    HW162663   5.037  11.874   7.962 -1.3797 -1.3078 -1.2565
18686SOL    HW262664   5.036  11.973   7.847  0.1889  0.4248  0.1649
18687SOL     OW62665   7.372  10.108  12.252  0.3186  0.5227  0.1912
18687SOL    HW162666   7.466  10.115  12.268  0.4302 -1.8113  0.9472
18687SOL    HW262667   7.332  10.150  12.328  0.8153 -0.7017  1.1779
18688SOL     OW62668  10.833  10.466  11.679  0.3902 -0.1022  0.3234
18688SOL    HW162669  10.773  10.392  11.685 -0.2654  0.3434 -0.5337
18688SOL    HW262670  10.778  10.539  11.651  0.7831  1.0246  2.3411
18689SOL     OW62671   4.097   6.084  10.417 -0.4710  0.3581 -0.6499
18689SOL    HW162672   4.110   6.000  10.461  0.6583  1.2083  0.7406
18689SOL    HW262673   4.018   6.120  10.457  0.5545  1.1307  0.7932
18690SOL     OW62674   1.247   9.008   1.049 -0.0928  0.5730  0.3351
18690SOL    HW162675   1.279   9.092   1.082  0.7951 -0.6824  2.9129
18690SOL    HW262676   1.316   8.978   0.990 -0.0384  1.2409  0.0436
18691SOL     OW62677   1.109   9.974  10.052  0.0825 -0.2423 -0.4505
18691SOL    HW162678   1.049   9.980   9.978  1.3022  1.2113 -1.3767
18691SOL    HW262679   1.063  10.017  10.124 -0.1333  0.5506 -1.0537
18692SOL     OW62680   4.618   9.836  12.330 -0.2191  0.0999 -0.6064
18692SOL    HW162681   4.653   9.748  12.337 -2.0169 -0.6176 -0.0090
18692SOL    HW262682   4.692   9.893  12.350  0.6983 -1.3074  0.1680
18693SOL     OW62683   6.119   5.303  11.255 -0.2513  0.0288 -0.0207
18693SOL    HW162684   6.047   5.345  11.303 -1.0930 -0.5582 -0.7377
18693SOL    HW262685   6.094   5.211  11.249  0.9647 -0.3478  0.4194
18694SOL     OW62686   0.824   3.858   3.049 -0.7011  0.6316 -0.1463
18694SOL    HW162687   0.846   3.855   2.956 -2.3957  1.4977 -0.6069
18694SOL    HW262688   0.843   3.947   3.076  1.3385 -0.0320  0.7922
18695SOL     OW62689   8.091   5.354   4.490 -0.0023 -0.0860  0.1178
18695SOL    HW162690   8.066   5.430   4.437  0.8969  1.4211  1.7383
18695SOL    HW262691   8.153   5.306   4.436  1.0308  1.5052 -0.2019
18696SOL     OW62692   1.054   3.549   5.515  0.0246  0.2180 -0.3884
18696SOL    HW162693   1.118   3.523   5.449  2.7615  0.2032  2.0291
18696SOL    HW262694   1.062   3.644   5.520 -1.2501  0.3795 -1.0289
18697SOL     OW62695   5.660   0.231   6.542  0.5035 -0.3201  0.2836
18697SOL    HW162696   5.726   0.301   6.551 -0.0948  0.0202  2.5763
18697SOL    HW262697   5.668   0.203   6.451  0.8447  2.6660 -0.7162
18698SOL     OW62698   1.627   0.549   8.599  0.2465 -0.1533  0.2695
18698SOL    HW162699   1.575   0.535   8.679 -1.0805 -1.6477 -0.8053
18698SOL    HW262700   1.660   0.462   8.577  1.2894  0.3963 -0.3704
18699SOL     OW62701   7.111   8.553   2.616  0.3462  0.2127  0.6194
18699SOL    HW162702   7.191   8.518   2.654  0.8750  0.8845  0.1584
18699SOL    HW262703   7.139   8.634   2.573 -0.1490 -0.6244 -1.3898
18700SOL     OW62704   4.249   0.594  10.639  0.1647  0.1910 -0.4453
18700SOL    HW162705   4.233   0.623  10.729 -1.4350 -1.4295 -0.1397
18700SOL    HW262706   4.190   0.647  10.586  0.3502  0.4255 -0.4186
18701SOL     OW62707   1.675   9.091   4.281 -0.0650 -0.1602 -0.3703
18701SOL    HW162708   1.734   9.051   4.345 -0.5022  1.3840  1.0795
18701SOL    HW262709   1.684   9.185   4.296 -2.5791  0.1462 -0.3740
18702SOL     OW62710   7.613   5.013   4.281 -0.1376 -0.0128  0.6045
18702SOL    HW162711   7.633   5.091   4.230  2.2173  0.9995  2.8370
18702SOL    HW262712   7.554   5.043   4.350 -1.2881 -0.8298  0.0247
18703SOL     OW62713   5.283   0.983  11.846 -0.2554  0.0296  0.0958
18703SOL    HW162714   5.273   0.968  11.752  0.6680  0.0659 -0.0242
18703SOL    HW262715   5.360   1.039  11.852 -0.0030 -0.3949  0.9006
18704SOL     OW62716   0.038   0.379   5.509 -0.4372  0.3198  0.0245
18704SOL    HW162717   0.023   0.434   5.432  0.3568 -1.1520 -1.2576
18704SOL    HW262718  -0.010   0.298   5.490  1.6103 -0.9588 -0.0336
18705SOL     OW62719   7.567   9.439   5.753  0.6346  0.5815 -0.2554
18705SOL    HW162720   7.498   9.475   5.808 -0.2412 -1.1924 -0.1295
18705SOL    HW262721   7.579   9.505   5.684 -2.8860 -0.0471 -1.6808
18706SOL     OW62722   7.625   7.942   9.920  0.0296 -0.0745  0.0976
18706SOL    HW162723   7.656   8.029   9.896  0.8035 -0.9007 -2.0568
18706SOL    HW262724   7.543   7.931   9.873 -0.2859 -0.3636  0.6965
18707SOL     OW62725   9.607   4.268  12.227 -0.1898  0.2160 -0.5127
18707SOL    HW162726   9.515   4.248  12.208 -0.7856  0.8959  1.4211
18707SOL    HW262727   9.647   4.183  12.244 -0.5124 -0.0618 -1.1054
18708SOL     OW62728  11.269   0.599   1.424  0.3568  0.2129 -0.3636
18708SOL    HW162729  11.253   0.521   1.476 -1.4265  0.0735 -1.0613
18708SOL    HW262730  11.350   0.635   1.459 -0.7063  0.0721  2.4534
18709SOL     OW62731   1.780   3.565   9.440 -0.4012 -0.7602  0.0365
18709SOL    HW162732   1.858   3.581   9.492 -0.7624 -0.8084  0.6044
18709SOL    HW262733   1.812   3.528   9.359  0.1823 -0.5556  0.1699
18710SOL     OW62734   7.203   4.324   4.794 -0.6189  0.0566 -0.2230
18710SOL    HW162735   7.288   4.360   4.817 -0.8024  0.9729 -0.9392
18710SOL    HW262736   7.210   4.301   4.701 -1.2558  0.4783 -0.3846
18711SOL     OW62737   4.264   0.928   4.207 -0.2706  0.4007 -0.1462
18711SOL    HW162738   4.207   0.857   4.175 -0.8970  0.1932  1.3245
18711SOL    HW262739   4.316   0.887   4.277  1.6673  0.6104 -1.3877
18712SOL     OW62740   4.657   2.832   4.736 -0.9593 -0.3279 -0.3996
18712SOL    HW162741   4.574   2.785   4.733 -0.7282 -0.7549 -0.3436
18712SOL    HW262742   4.720   2.766   4.766 -0.8697  0.3747  1.0431
18713SOL     OW62743  11.059  11.033   7.824 -0.1079  0.1607 -0.0429
18713SOL    HW162744  11.003  10.956   7.816 -0.5769  0.5482 -0.5391
18713SOL    HW262745  11.036  11.088   7.748 -1.2303  1.7406  1.3710
18714SOL     OW62746  11.813   0.518   6.111 -0.2666 -0.1936  0.3256
18714SOL    HW162747  11.819   0.445   6.172 -0.8584 -0.2480  0.3323
18714SOL    HW262748  11.896   0.564   6.119  0.1350 -0.8958  0.2877
18715SOL     OW62749   8.304   7.079   1.300  0.4811 -0.2555  0.1224
18715SOL    HW162750   8.338   7.003   1.252 -1.6449 -0.3618 -1.3535
18715SOL    HW262751   8.271   7.042   1.382 -0.1236 -0.8883 -0.3881
18716SOL     OW62752   5.933   8.879  11.769 -0.7601 -0.1506  0.4595
18716SOL    HW162753   5.840   8.860  11.781 -0.4987 -2.1082 -0.3803
18716SOL    HW262754   5.969   8.879  11.858 -1.5055  0.4530  0.7747
18717SOL     OW62755   3.392   5.729   1.237  0.4122  0.2878 -0.7243
18717SOL    HW162756   3.420   5.722   1.146  2.7958 -1.0477  0.0061
18717SOL    HW262757   3.384   5.638   1.266  1.5658  0.6518  0.8701
18718SOL     OW62758   4.365  10.602   6.398  0.3338  0.4037 -0.1090
18718SOL    HW162759   4.359  10.671   6.332 -1.3231 -0.0003 -0.4358
18718SOL    HW262760   4.453  10.566   6.388  1.1344  2.2607 -0.1197
18719SOL     OW62761   0.754   0.685  12.516 -0.6977 -0.1884  0.4937
18719SOL    HW162762   0.793   0.748  12.456 -1.1611 -1.9655 -1.8273
18719SOL    HW262763   0.821   0.668  12.582 -0.1474  1.7910  0.4938
18720SOL     OW62764   8.337   6.905   3.262 -0.4143 -0.0954 -0.3745
18720SOL    HW162765   8.252   6.878   3.297 -0.3523  0.8897  0.6028
18720SOL    HW262766   8.378   6.952   3.334  1.1908 -0.9888 -0.6557
18721SOL     OW62767   4.463   5.520   1.954  0.0795  0.1183  0.1258
18721SOL    HW162768   4.381   5.569   1.954  0.1529  0.2374  0.5088
18721SOL    HW262769   4.487   5.513   2.046  1.5435  1.8414 -0.0685
18722SOL     OW62770  12.696   9.255   7.696 -0.4441 -0.0735  0.1667
18722SOL    HW162771  12.715   9.162   7.700 -0.5548 -0.1339 -0.5610
18722SOL    HW262772  12.736   9.292   7.774  1.4212 -0.4025 -0.5814
18723SOL     OW62773  12.074   9.340   3.266  0.3184 -0.4253  0.5980
18723SOL    HW162774  12.070   9.400   3.341  1.0787 -0.5870  0.7731
18723SOL    HW262775  11.982   9.328   3.241  0.1667  1.1066  0.3187
18724SOL     OW62776   6.163   5.726   8.279  0.1753  0.3279 -0.7198
18724SOL    HW162777   6.112   5.711   8.358  0.9144  1.2979 -0.0349
18724SOL    HW262778   6.118   5.799   8.235 -0.0106  0.0482 -0.9956
18725SOL     OW62779   8.534  10.231  10.389  0.7860  0.0944 -0.9335
18725SOL    HW162780   8.590  10.254  10.315  2.1622  1.8134  0.5402
18725SOL    HW262781   8.459  10.290  10.382  1.3311  0.8629 -0.5450
18726SOL     OW62782  10.492   7.961   8.190  0.0088  0.4497  0.2180
18726SOL    HW162783  10.534   7.979   8.105  4.5023 -1.9355  1.6333
18726SOL    HW262784  10.506   8.040   8.241  0.6447  0.5595 -0.1188
18727SOL     OW62785  11.001   5.726   7.514 -0.1887  0.7546  0.7097
18727SOL    HW162786  10.999   5.704   7.608 -1.3360 -0.7790  0.3590
18727SOL    HW262787  11.006   5.822   7.513  2.7010  0.7519  2.3187
18728SOL     OW62788   8.740   4.170   0.534 -0.4222 -0.0522  0.3718
18728SOL    HW162789   8.650   4.155   0.505  0.2630 -0.0125 -1.9929
18728SOL    HW262790   8.767   4.250   0.489  0.5679  0.3985  1.6945
18729SOL     OW62791   3.861   6.319   3.475 -0.2719  0.0936 -0.0330
18729SOL    HW162792   3.889   6.344   3.563 -0.3146  1.4688 -0.3987
18729SOL    HW262793   3.939   6.330   3.421 -0.7762  1.2346 -0.5382
18730SOL     OW62794   5.768  11.625  12.126 -0.0641  0.0968  0.1318
18730SOL    HW162795   5.864  11.619  12.127 -0.0600  0.2002  0.2724
18730SOL    HW262796   5.742  11.613  12.217 -0.0585  2.2030  0.4650
18731SOL     OW62797   7.344   5.400   8.941  0.5280 -0.3252 -0.0441
18731SOL    HW162798   7.399   5.401   9.020  0.2302 -0.5589  0.1680
18731SOL    HW262799   7.404   5.422   8.870  0.7375  0.2200  0.2885
18732SOL     OW62800  11.474  11.234   4.450  0.1542  0.7489  0.2775
18732SOL    HW162801  11.440  11.251   4.538  1.6180  0.8196  0.8678
18732SOL    HW262802  11.440  11.306   4.397 -0.0156  1.2220  1.0017
18733SOL     OW62803  11.495  11.569   4.648 -0.4130  0.1062 -0.6026
18733SOL    HW162804  11.452  11.602   4.569 -1.3136  0.9783  0.2265
18733SOL    HW262805  11.475  11.634   4.715 -0.4050 -1.0530  0.5606
18734SOL     OW62806   6.655  10.748   9.551  0.2269 -0.6099 -0.0285
18734SOL    HW162807   6.744  10.781   9.565 -0.8095  1.1477  3.3638
18734SOL    HW262808   6.653  10.665   9.599 -0.8834  1.2487  3.5163
18735SOL     OW62809   2.391  10.867   4.605  0.0879  0.1969  0.1123
18735SOL    HW162810   2.417  10.783   4.566 -0.2257  0.7162 -1.2659
18735SOL    HW262811   2.300  10.854   4.631  0.2906 -0.1460  0.6677
18736SOL     OW62812   4.390   2.296   7.691  0.3778  0.0280 -0.5931
18736SOL    HW162813   4.335   2.249   7.629 -0.4569 -1.3163  1.0764
18736SOL    HW262814   4.331   2.361   7.730  0.4725 -0.1654 -0.1261
18737SOL     OW62815   4.672  11.541   2.962  0.5459 -0.1690 -0.0109
18737SOL    HW162816   4.748  11.599   2.959  1.8615 -1.7657  0.7699
18737SOL    HW262817   4.612  11.584   3.022  1.6449  0.2426  0.8351
18738SOL     OW62818   4.012   0.822   8.010 -0.5136 -0.4571 -0.3414
18738SOL    HW162819   3.986   0.841   7.920 -0.3026  1.2968 -0.0601
18738SOL    HW262820   4.055   0.737   8.005 -0.0382 -0.1534 -1.9934
18739SOL     OW62821   4.482   4.817  10.063 -0.2413  0.0849  0.1375
18739SOL    HW162822   4.517   4.741  10.111 -0.8405  0.5779  1.3915
18739SOL    HW262823   4.525   4.812   9.977  1.5659 -0.3351  1.0014
18740SOL     OW62824  10.318   0.958   7.182  0.1782  0.3100  0.7749
18740SOL    HW162825  10.364   0.887   7.226  3.7333  0.8519 -1.5794
18740SOL    HW262826  10.371   1.035   7.199 -1.4757  1.6437  0.1616
18741SOL     OW62827  10.142   2.523   8.842 -0.0266 -0.2336  0.2111
18741SOL    HW162828  10.123   2.606   8.799 -0.5579 -1.0730 -1.2273
18741SOL    HW262829  10.201   2.478   8.782  0.2342 -0.9159  0.9647
18742SOL     OW62830   1.277   1.693   9.889 -0.3013  0.2120 -0.3446
18742SOL    HW162831   1.233   1.660   9.811 -1.1622 -0.3343  0.3613
18742SOL    HW262832   1.369   1.671   9.875 -0.4910 -0.1558 -1.0706
18743SOL     OW62833   5.296   8.157  12.537  1.2724 -0.0346  0.5936
18743SOL    HW162834   5.218   8.163  12.482  3.2396  0.0963 -2.3755
18743SOL    HW262835   5.304   8.243  12.577 -0.1099 -0.0870  1.0441
18744SOL     OW62836   4.918  11.182   7.870  0.3485 -0.5242  0.2075
18744SOL    HW162837   4.824  11.190   7.857  0.2510 -1.4962  0.2049
18744SOL    HW262838   4.956  11.203   7.785  0.3161  2.0958  0.7417
18745SOL     OW62839   4.972  10.843   2.765 -0.0959 -0.4775  0.0515
18745SOL    HW162840   4.949  10.898   2.690  3.1420 -0.5053 -1.1148
18745SOL    HW262841   4.900  10.780   2.772 -0.2435 -0.8537 -3.4083
18746SOL     OW62842   0.424  11.174  11.337 -0.4914  0.0591  0.1203
18746SOL    HW162843   0.454  11.264  11.324  1.1549 -0.3236  0.9795
18746SOL    HW262844   0.406  11.167  11.431  0.9951 -0.9174  0.3760
18747SOL     OW62845   7.400   4.290  12.355  0.5619  0.3841 -0.0272
18747SOL    HW162846   7.413   4.202  12.319  2.4083  0.7133 -0.2991
18747SOL    HW262847   7.356   4.338  12.286  0.6839  0.0055 -0.3735
18748SOL     OW62848   1.567   8.483   9.351  0.1438  0.0528 -0.6055
18748SOL    HW162849   1.510   8.429   9.406  0.0364  0.5786 -0.1914
18748SOL    HW262850   1.612   8.540   9.413  0.7995 -0.0528 -0.9699
18749SOL     OW62851   3.419  11.512   9.096 -0.9577  0.7629 -0.0342
18749SOL    HW162852   3.438  11.419   9.079  4.7398  2.0317 -3.1312
18749SOL    HW262853   3.476  11.536   9.168  0.9515  2.5238 -1.9736
18750SOL     OW62854   5.252   9.295   6.304  0.3419  0.4828  0.6731
18750SOL    HW162855   5.297   9.283   6.220 -0.8335 -2.4478  0.3463
18750SOL    HW262856   5.203   9.377   6.293  2.0175  1.4025 -0.5703
18751SOL     OW62857  10.453   2.931   4.823  0.4847 -0.6241 -0.0621
18751SOL    HW162858  10.401   2.852   4.813  1.2266 -0.9977 -1.1007
18751SOL    HW262859  10.543   2.903   4.804  1.2405 -0.1875  2.4541
18752SOL     OW62860  11.437   8.541   3.162  0.0794 -0.2933  0.5157
18752SOL    HW162861  11.526   8.558   3.133 -0.0012  0.9450  0.9239
18752SOL    HW262862  11.382   8.574   3.091 -0.0823  1.3620  1.3498
18753SOL     OW62863   6.571   9.689  11.853 -0.2276 -0.0324 -0.2952
18753SOL    HW162864   6.579   9.602  11.893  2.2153 -0.6488 -1.9114
18753SOL    HW262865   6.647   9.737  11.884  0.1676  0.4380 -1.9026
18754SOL     OW62866  12.258   6.228   4.407  0.0239 -0.9307 -0.1483
18754SOL    HW162867  12.287   6.204   4.495 -1.0306  0.8754  0.7590
18754SOL    HW262868  12.333   6.209   4.351  0.6108 -2.4315  1.0644
18755SOL     OW62869  10.833   1.926   2.111  0.3819  0.0575  0.2895
18755SOL    HW162870  10.924   1.897   2.100  0.3286  0.5912 -2.0952
18755SOL    HW262871  10.797   1.867   2.178  1.5040 -2.5045 -1.2252
18756SOL     OW62872   2.085   8.232   1.523  0.2116 -0.4231 -0.3141
18756SOL    HW162873   2.035   8.266   1.597 -0.2475 -0.8142 -0.4410
18756SOL    HW262874   2.045   8.147   1.503  0.9030 -0.7331 -0.4368
18757SOL     OW62875   9.676  11.285  11.620 -0.7766 -0.1377  0.1666
18757SOL    HW162876   9.677  11.284  11.715 -0.4763  1.7384  0.2315
18757SOL    HW262877   9.637  11.370  11.598 -1.4934 -0.8338 -1.3874
18758SOL     OW62878   6.265   2.231   0.615 -0.4125 -0.0927  0.3176
18758SOL    HW162879   6.175   2.214   0.640 -0.3890 -1.4055 -0.3742
18758SOL    HW262880   6.290   2.309   0.665 -2.1002  0.6491  0.0506
18759SOL     OW62881   0.497  12.618   3.495 -0.6940 -0.4784 -0.4755
18759SOL    HW162882   0.411  12.622   3.455 -0.8867 -0.3080 -0.0527
18759SOL    HW262883   0.483  12.574   3.579 -0.5312  0.3557 -0.0027
18760SOL     OW62884   0.847  11.069   0.789 -0.8441  0.0601  0.0439
18760SOL    HW162885   0.901  11.145   0.766 -0.7440 -0.1922 -0.5722
18760SOL    HW262886   0.910  10.999   0.808 -0.9285  0.2057  0.9157
18761SOL     OW62887   9.784   1.232   1.765  0.0366 -0.4570  0.4109
18761SOL    HW162888   9.852   1.208   1.702  0.0780  0.3400  0.1413
18761SOL    HW262889   9.747   1.148   1.794  0.9565 -0.8870  0.3730
18762SOL     OW62890  10.186   7.062  11.083 -0.4786  0.4483 -0.0758
18762SOL    HW162891  10.112   7.111  11.118 -0.5335  0.8284 -0.7199
18762SOL    HW262892  10.174   7.062  10.988  0.4023  0.6079 -0.2008
18763SOL     OW62893   6.623   8.502   7.477  0.4656  0.2976  0.4026
18763SOL    HW162894   6.547   8.552   7.505 -0.2319 -1.1504  1.2342
18763SOL    HW262895   6.588   8.435   7.418  1.4567  1.1326 -1.1860
18764SOL     OW62896   3.379   1.403   3.707 -0.1999  0.0847  0.0788
18764SOL    HW162897   3.341   1.470   3.651 -1.9521 -1.2169 -0.3963
18764SOL    HW262898   3.396   1.329   3.649  0.7341 -0.2619  0.7572
18765SOL     OW62899   7.132   5.398  12.568 -0.2833  0.3622 -0.1048
18765SOL    HW162900   7.226   5.410  12.551 -0.3805  0.5422 -0.5343
18765SOL    HW262901   7.095   5.377  12.482 -0.5773 -0.0888  0.1294
18766SOL     OW62902  11.361  10.064  10.038 -0.4170  0.0763 -0.4336
18766SOL    HW162903  11.402   9.978  10.048 -1.2344 -0.2362  0.4199
18766SOL    HW262904  11.418  10.124  10.085 -0.1717 -0.1003 -0.5032
18767SOL     OW62905   3.335   5.351  12.638 -0.0178  0.3183 -0.3769
18767SOL    HW162906   3.247   5.389  12.638 -0.4835 -0.5030 -3.0267
18767SOL    HW262907   3.381   5.396  12.567  1.6372  0.5031  0.7532
18768SOL     OW62908  10.030  12.218   3.965  0.0294 -0.3726 -0.8465
18768SOL    HW162909  10.110  12.222   3.913  0.6180  0.0964  0.0647
18768SOL    HW262910  10.058  12.183   4.050 -0.7555 -0.3479 -0.5674
18769SOL     OW62911   4.555   7.370   5.476  0.3095  0.4607  0.2799
18769SOL    HW162912   4.558   7.283   5.436 -0.8806  0.3453  0.3907
18769SOL    HW262913   4.466   7.401   5.458  0.6589  1.5847  0.4029
18770SOL     OW62914   8.769   0.650  12.468 -0.2572 -0.0806 -0.0379
18770SOL    HW162915   8.736   0.621  12.382 -0.2274 -0.2091 -0.0064
18770SOL    HW262916   8.856   0.611  12.474  0.3250  1.1067 -0.5638
18771SOL     OW62917   9.413   8.444   3.885 -0.4607 -0.0797 -0.1984
18771SOL    HW162918   9.457   8.361   3.903  0.8850  0.7930  0.7075
18771SOL    HW262919   9.361   8.428   3.806 -0.2622 -1.7795 -0.0083
18772SOL     OW62920   7.025  12.395   2.487 -0.0308  0.3806 -0.4836
18772SOL    HW162921   6.998  12.472   2.436  0.7360 -0.1316 -1.6975
18772SOL    HW262922   7.012  12.421   2.578 -0.4432  1.6961 -0.8975
18773SOL     OW62923  10.835   7.793   4.392 -0.5052 -0.0773  0.8308
18773SOL    HW162924  10.824   7.883   4.360 -0.6414 -0.2995  0.2294
18773SOL    HW262925  10.930   7.783   4.399 -0.2636 -0.8716 -2.1519
18774SOL     OW62926   4.096   0.376   1.222  0.4106  0.2997  0.3362
18774SOL    HW162927   4.172   0.429   1.199  0.8852 -0.7521 -0.6061
18774SOL    HW262928   4.085   0.388   1.316  1.0675  1.3079  0.3014
18775SOL     OW62929   7.214   3.124  10.447  0.2716 -0.3993  0.5182
18775SOL    HW162930   7.268   3.082  10.514  1.1227 -1.0120 -0.5059
18775SOL    HW262931   7.149   3.058  10.423 -1.2685  0.4791  2.0385
18776SOL     OW62932   3.323   7.948   2.218 -0.1715  0.0401 -0.1380
18776SOL    HW162933   3.332   7.856   2.241  0.3035  0.5295  1.7642
18776SOL    HW262934   3.268   7.985   2.287 -0.0263  1.2722 -0.6510
18777SOL     OW62935   2.348   8.813  11.175 -0.6183 -0.4010  0.1164
18777SOL    HW162936   2.288   8.741  11.156 -1.2819 -0.6639  2.8066
18777SOL    HW262937   2.305   8.863  11.244  0.9357  1.1668  0.0139
18778SOL     OW62938  11.509   9.323   3.636 -0.6920  0.0224  0.8450
18778SOL    HW162939  11.504   9.228   3.637 -1.2260  0.0307 -0.1549
18778SOL    HW262940  11.419   9.352   3.647 -1.2613  0.3276 -3.1617
18779SOL     OW62941   5.710  10.694   4.511  0.0936 -0.3086 -0.0813
18779SOL    HW162942   5.745  10.664   4.427 -1.6499  0.6456 -1.2020
18779SOL    HW262943   5.647  10.761   4.488 -0.4910 -0.0744  2.0164
18780SOL     OW62944   9.586   7.759   7.159  0.2552  1.0001 -0.0121
18780SOL    HW162945   9.545   7.699   7.220  0.0451  0.5438 -0.5874
18780SOL    HW262946   9.655   7.802   7.209  0.1491  0.5625  0.5117
18781SOL     OW62947   1.253   2.843   2.778  0.2994  0.1641  0.0306
18781SOL    HW162948   1.180   2.813   2.724 -0.1083  1.0440  0.0799
18781SOL    HW262949   1.279   2.766   2.829  0.6397 -0.6730 -1.3418
18782SOL     OW62950  10.476   8.979   6.495  0.5551 -0.3923 -0.1789
18782SOL    HW162951  10.533   8.999   6.422 -0.7633 -1.3691 -1.5376
18782SOL    HW262952  10.535   8.969   6.570  1.9352  0.5696 -1.0915
18783SOL     OW62953   2.983   3.186   9.209 -0.2932  0.0106 -0.0703
18783SOL    HW162954   2.995   3.175   9.115  0.0149 -0.6258  0.0356
18783SOL    HW262955   3.047   3.127   9.249 -0.6889 -0.0307  0.5314
18784SOL     OW62956   6.898   7.587   2.684 -0.2088  0.1294 -0.6708
18784SOL    HW162957   6.863   7.611   2.598  1.8530 -2.7258 -2.4881
18784SOL    HW262958   6.821   7.581   2.740 -2.0301 -0.7983 -3.0848
18785SOL     OW62959   1.369   5.229  12.040 -0.1478 -0.1353 -0.2112
18785SOL    HW162960   1.411   5.257  11.959  0.2291  0.0245  0.0366
18785SOL    HW262961   1.439   5.189  12.092 -0.6096 -1.2418 -0.4098
18786SOL     OW62962  12.011   9.982   1.270 -0.1681 -0.1330  0.5028
18786SOL    HW162963  11.917   9.966   1.280 -0.7252  1.7039 -1.2087
18786SOL    HW262964  12.029   9.961   1.179  0.3121  2.7601 -0.1497
18787SOL     OW62965   0.459   9.539   7.637  0.3066 -0.1106  0.5924
18787SOL    HW162966   0.365   9.538   7.655  0.2124 -1.2088  0.1728
18787SOL    HW262967   0.468   9.593   7.559  0.0660  0.3018  0.8507
18788SOL     OW62968   8.955   2.814   8.606 -0.4051 -0.0518 -0.2694
18788SOL    HW162969   8.990   2.885   8.553  2.4723 -0.5870  0.6808
18788SOL    HW262970   8.891   2.856   8.663  1.0680  1.7928  0.1406
18789SOL     OW62971   8.338   5.851   0.157 -0.6270 -0.0811 -0.0653
18789SOL    HW162972   8.335   5.765   0.198 -0.0988 -0.0457  0.0599
18789SOL    HW262973   8.429   5.859   0.126 -0.9851 -0.0622 -1.1376
18790SOL     OW62974   9.035  11.304   3.269 -0.3445 -0.1073  0.1336
18790SOL    HW162975   9.102  11.245   3.304 -0.6888 -0.8321 -0.4196
18790SOL    HW262976   8.954  11.255   3.276 -0.8057  0.6924  0.6083
18791SOL     OW62977   0.631   7.645   6.997 -0.1155  0.1411 -0.2692
18791SOL    HW162978   0.692   7.718   6.984  0.0569 -0.3647 -2.7577
18791SOL    HW262979   0.641   7.591   6.919 -2.0865 -1.2092  0.3418
18792SOL     OW62980   4.855   6.502   9.887  0.1797  0.0387 -0.6031
18792SOL    HW162981   4.886   6.593   9.881 -0.5757  0.2920 -0.7455
18792SOL    HW262982   4.820   6.483   9.799  0.3513 -0.3996 -0.5784
18793SOL     OW62983   0.705   3.892  12.236  0.4714  0.3772  0.0641
18793SOL    HW162984   0.722   3.798  12.242 -2.5420 -0.4135 -1.5209
18793SOL    HW262985   0.739   3.918  12.150 -0.3987  0.2383 -0.3398
18794SOL     OW62986   0.815   5.603   4.997  0.4809  0.1658 -0.6048
18794SOL    HW162987   0.850   5.649   4.921  0.0834 -0.1652 -0.9955
18794SOL    HW262988   0.856   5.516   4.993  0.6401  0.2292 -0.3111
18795SOL     OW62989   3.700   6.005  12.536  0.2872  0.5369 -0.3866
18795SOL    HW162990   3.738   6.093  12.541  2.0413 -0.2527  1.1674
18795SOL    HW262991   3.744   5.965  12.461  0.9346  0.3546  0.0836
18796SOL     OW62992   7.427   7.287  12.147 -0.8299  0.2879 -0.2433
18796SOL    HW162993   7.416   7.304  12.240 -1.5292  0.7120 -0.4015
18796SOL    HW262994   7.408   7.194  12.137 -4.0584  0.8538 -0.4379
18797SOL     OW62995   7.501   3.076   2.861 -0.4237 -0.1740 -0.2982
18797SOL    HW162996   7.528   2.994   2.902  0.4792 -0.8719 -2.1748
18797SOL    HW262997   7.583   3.114   2.827 -1.0578  0.5982 -1.0134
18798SOL     OW62998   2.454  10.394   6.107 -0.0681  0.8004  0.0017
18798SOL    HW162999   2.519  10.334   6.070 -1.4657  0.3903 -1.9508
18798SOL    HW263000   2.404  10.340   6.167 -1.6083 -0.2319 -2.0781
18799SOL     OW63001   6.008   8.331   2.424  0.5767  0.3878  0.7462
18799SOL    HW163002   5.986   8.400   2.362 -0.9064 -0.0040  0.7976
18799SOL    HW263003   5.933   8.327   2.483  0.6402 -1.2277  0.7648
18800SOL     OW63004   8.038   8.426   4.521 -0.4239  0.3700  0.2326
18800SOL    HW163005   8.126   8.464   4.516  0.1648 -0.9579  0.0053
18800SOL    HW263006   8.013   8.411   4.430  0.2649 -1.7358  0.3463
18801SOL     OW63007  11.754   0.002   8.585  0.5767 -0.0689  0.9001
18801SOL    HW163008  11.763   0.094   8.562 -0.0619  0.1249  1.3998
18801SOL    HW263009  11.753   0.001   8.681  0.3296 -0.5649  0.8974
18802SOL     OW63010   1.584   1.139  12.045 -0.4445 -0.1233  0.3620
18802SOL    HW163011   1.644   1.191  11.992 -0.8490  1.3326  1.2962
18802SOL    HW263012   1.501   1.141  11.997  0.1220 -2.0140 -0.8535
18803SOL     OW63013   7.608   4.936   9.015 -0.2511  0.1300  0.2808
18803SOL    HW163014   7.681   4.983   8.976  1.4727 -1.6465  1.1604
18803SOL    HW263015   7.623   4.844   8.991 -1.6513 -0.4029  1.3010
18804SOL     OW63016   4.154  10.751   9.084  0.7636 -0.0266  0.3312
18804SOL    HW163017   4.133  10.841   9.109  0.1047 -0.3640  1.0293
18804SOL    HW263018   4.088  10.728   9.019  1.2239  0.1532 -0.2021
18805SOL     OW63019   3.552   1.296   9.666 -0.0488 -0.5781 -0.0656
18805SOL    HW163020   3.643   1.267   9.669 -0.6118 -2.4514 -0.0269
18805SOL    HW263021   3.503   1.220   9.635 -1.5622  0.5235 -0.4959
18806SOL     OW63022   8.636  11.925   1.901 -0.2961  0.0681  0.0695
18806SOL    HW163023   8.649  11.992   1.968  0.3683 -0.1796  0.2024
18806SOL    HW263024   8.544  11.900   1.909 -0.6198  1.1557 -0.1775
18807SOL     OW63025   8.849   9.766  11.553  0.2942  0.0800 -0.1510
18807SOL    HW163026   8.865   9.727  11.467 -0.8409  1.8586 -1.2286
18807SOL    HW263027   8.769   9.724  11.584  0.3231 -0.0760 -0.2885
18808SOL     OW63028  11.720   4.204   2.205 -0.0806  0.3820  0.7436
18808SOL    HW163029  11.721   4.248   2.120 -0.1161 -0.2952  0.3939
18808SOL    HW263030  11.784   4.253   2.258 -0.2386  0.9584  0.4149
18809SOL     OW63031   6.697  11.674   9.856 -0.0980  0.2497 -0.2312
18809SOL    HW163032   6.631  11.608   9.832  0.5986 -1.3466  1.8346
18809SOL    HW263033   6.652  11.731   9.918  0.1570 -0.2750  0.4566
18810SOL     OW63034  11.508  11.956  12.679  0.5009 -0.3454 -0.2173
18810SOL    HW163035  11.493  11.995  12.765 -0.7915 -0.6798 -0.2555
18810SOL    HW263036  11.602  11.942  12.674  0.5836 -0.4142  1.1892
18811SOL     OW63037   7.376   7.909   9.226 -0.2002 -0.4462  0.5341
18811SOL    HW163038   7.298   7.926   9.174  0.3118  1.2887  0.2586
18811SOL    HW263039   7.436   7.865   9.165 -0.9768 -1.9218  0.7925
18812SOL     OW63040   7.149   9.832   6.640  0.1374  0.3551  0.3506
18812SOL    HW163041   7.195   9.838   6.556 -1.4825  1.5609 -0.5270
18812SOL    HW263042   7.162   9.918   6.681  1.1792 -0.3345  1.5005
18813SOL     OW63043   8.507   4.957   9.846 -0.0716 -0.1606 -0.2511
18813SOL    HW163044   8.493   4.931   9.755 -0.1740 -0.4623 -0.1522
18813SOL    HW263045   8.585   5.012   9.844 -0.9151  1.0730 -0.7386
18814SOL     OW63046   1.997   5.616   4.245 -0.3297  0.1261  0.5372
18814SOL    HW163047   1.912   5.653   4.223  0.1225  0.4084 -0.8194
18814SOL    HW263048   2.056   5.650   4.177  1.2734  1.4809  2.4806
18815SOL     OW63049   1.616   3.208   6.453 -1.5123  0.3228 -0.2247
18815SOL    HW163050   1.658   3.207   6.367 -0.1915 -0.1952  0.4143
18815SOL    HW263051   1.619   3.300   6.479  0.9820  0.0774  0.6140
18816SOL     OW63052   9.943   8.656   6.744 -0.2872 -0.1518  0.3381
18816SOL    HW163053  10.038   8.659   6.756 -0.3144  1.1306  0.3510
18816SOL    HW263054   9.910   8.730   6.795 -1.2719 -0.4380  0.1328
18817SOL     OW63055   3.700  10.610   7.956  0.3231  0.4479 -0.1620
18817SOL    HW163056   3.768  10.588   8.019  0.5012 -0.6276 -0.7182
18817SOL    HW263057   3.645  10.674   8.002  2.1406  1.9903  0.0257
18818SOL     OW63058   4.308  10.950   7.717  0.0909  0.0520 -0.2821
18818SOL    HW163059   4.367  10.880   7.742  0.1176  0.1227 -0.1428
18818SOL    HW263060   4.221  10.920   7.745  0.2269  0.4855  0.6587
18819SOL     OW63061   5.244   5.151   9.464 -0.1095  0.2001  0.4671
18819SOL    HW163062   5.173   5.215   9.470 -1.2134 -1.1038  1.9952
18819SOL    HW263063   5.267   5.132   9.555  1.2200 -0.4819  0.0101
18820SOL     OW63064  12.344   2.156   6.854  0.1886  0.0211  0.7130
18820SOL    HW163065  12.437   2.138   6.869  0.4525  1.1897  0.5682
18820SOL    HW263066  12.312   2.078   6.809  1.1095 -0.3697  0.7005
18821SOL     OW63067   6.849  10.839  12.517  0.2887  0.3023  0.2477
18821SOL    HW163068   6.917  10.785  12.476 -1.3147 -0.4520 -1.5894
18821SOL    HW263069   6.786  10.776  12.552 -1.3780  0.8913 -1.5110
18822SOL     OW63070   5.325  10.269   9.383  0.1904  0.5774  0.0603
18822SOL    HW163071   5.232  10.257   9.362  0.4042  0.1125 -0.6682
18822SOL    HW263072   5.325  10.317   9.465 -0.6998  0.6127  0.0518
18823SOL     OW63073  12.636   6.806  11.149 -0.3141 -0.0506  0.6498
18823SOL    HW163074  12.543   6.784  11.147 -0.3549  0.0964  0.9213
18823SOL    HW263075  12.667   6.786  11.061 -1.0485  1.8297 -0.0896
18824SOL     OW63076  11.659   4.055   3.811 -0.4584  0.2635  0.6877
18824SOL    HW163077  11.579   4.037   3.762  0.3934 -0.5255 -0.4467
18824SOL    HW263078  11.664   3.985   3.876  0.7969 -1.4624 -1.1608
18825SOL     OW63079   3.534   5.438   8.877  0.5206  0.8081 -0.6395
18825SOL    HW163080   3.522   5.347   8.852  2.5998 -0.2553  1.7340
18825SOL    HW263081   3.606   5.469   8.820  0.0884  0.8650 -1.1639
18826SOL     OW63082   4.218   2.023   4.999  0.2469 -0.1733 -0.2470
18826SOL    HW163083   4.203   1.995   4.909 -0.4326  0.6519 -0.3947
18826SOL    HW263084   4.130   2.036   5.035  0.5272  1.5724 -0.1301
18827SOL     OW63085   6.001   4.606   9.812 -0.0638  0.1239  0.2568
18827SOL    HW163086   5.930   4.661   9.847  0.0698  0.1383  0.5112
18827SOL    HW263087   6.080   4.642   9.852  0.1313  0.3542 -0.3304
18828SOL     OW63088   9.703  11.102   5.319 -0.1744  0.1815 -0.7977
18828SOL    HW163089   9.772  11.124   5.382 -0.9314  0.1344  0.0597
18828SOL    HW263090   9.751  11.077   5.240  0.8391 -1.0379  0.1583
18829SOL     OW63091   9.642   8.132  10.893  0.0623  0.3089 -0.6156
18829SOL    HW163092   9.601   8.192  10.956  0.9921  0.1499  0.1571
18829SOL    HW263093   9.600   8.048  10.910  3.1619 -0.8173  2.8338
18830SOL     OW63094   9.165  11.776   4.134 -0.0834  0.0779 -0.8638
18830SOL    HW163095   9.187  11.816   4.049  0.8143 -0.0983 -0.7267
18830SOL    HW263096   9.082  11.817   4.159 -0.0185  0.6272 -1.5111
18831SOL     OW63097   1.568   5.931   4.710 -0.2594 -0.4588 -0.5622
18831SOL    HW163098   1.551   5.908   4.619 -1.2425  0.2281 -0.5640
18831SOL    HW263099   1.503   5.881   4.760  0.0408 -0.5528 -0.2584
18832SOL     OW63100   9.391   5.724   2.748 -0.3437  0.5199 -0.1062
18832SOL    HW163101   9.486   5.725   2.755 -0.4251  0.0322  1.3214
18832SOL    HW263102   9.372   5.777   2.671  1.3071 -3.3084 -3.5483
18833SOL     OW63103   7.176   3.062   2.113 -0.2654 -0.2642  0.1977
18833SOL    HW163104   7.244   3.057   2.045 -0.3013  0.0391  0.1406
18833SOL    HW263105   7.098   3.027   2.071  0.0744 -1.5143  0.5527
18834SOL     OW63106  10.686   4.541   3.074 -0.4695 -0.1395  0.0896
18834SOL    HW163107  10.708   4.459   3.029  0.1565  1.3642 -2.5937
18834SOL    HW263108  10.707   4.609   3.010  0.5544  2.2495  2.7466
18835SOL     OW63109   2.452   0.161   0.911 -0.8057  0.4066 -0.6180
18835SOL    HW163110   2.381   0.104   0.882  0.1528 -0.5377 -1.1681
18835SOL    HW263111   2.413   0.248   0.916 -1.9252 -0.0508 -1.1736
18836SOL     OW63112   5.411   9.710   6.756  0.6124  0.3557 -0.4989
18836SOL    HW163113   5.460   9.791   6.745  0.1811  0.6069 -0.5844
18836SOL    HW263114   5.320   9.738   6.766  0.7350  0.0562  2.0726
18837SOL     OW63115  11.522  10.614   4.946  0.0200 -0.2461  0.1192
18837SOL    HW163116  11.549  10.567   4.867 -0.3638 -0.8906  0.3596
18837SOL    HW263117  11.445  10.664   4.920  0.9884  1.0339 -0.3855
18838SOL     OW63118   3.416   7.193   4.351 -0.3662  0.3896  0.4664
18838SOL    HW163119   3.327   7.222   4.374 -0.2633  0.0393  1.3642
18838SOL    HW263120   3.406   7.101   4.328 -0.1442  0.1557  1.2608
18839SOL     OW63121  11.064  10.455  10.069  0.4375 -0.2246  0.3020
18839SOL    HW163122  11.074  10.371  10.114  0.6944 -0.4291 -0.1348
18839SOL    HW263123  11.049  10.432   9.978 -0.1577  0.1904  0.2900
18840SOL     OW63124   9.652   1.297   1.536  0.5113  0.0617  0.0357
18840SOL    HW163125   9.676   1.299   1.629  1.4556  0.9401 -0.2013
18840SOL    HW263126   9.649   1.204   1.513 -2.3788 -0.3348  1.5608
18841SOL     OW63127   9.528   9.051   5.899  0.4950  0.1472 -0.4358
18841SOL    HW163128   9.517   9.028   5.991  1.5459 -1.1116 -0.5913
18841SOL    HW263129   9.605   9.108   5.897  0.7725 -0.2336 -0.5934
18842SOL     OW63130   4.995  11.944   6.550 -0.0691  0.7042  0.4800
18842SOL    HW163131   4.919  11.888   6.536 -1.0564  1.8986  1.0062
18842SOL    HW263132   4.960  12.026   6.584  1.4210  1.3963  0.4352
18843SOL     OW63133   4.985   8.434  10.676 -0.2882 -0.7302 -0.4890
18843SOL    HW163134   4.945   8.351  10.652 -3.0081  0.1481  0.6905
18843SOL    HW263135   5.018   8.420  10.765 -1.2685 -0.4087 -0.0647
18844SOL     OW63136   3.308   4.885   5.429  0.0791  0.1775  0.3898
18844SOL    HW163137   3.322   4.831   5.507 -1.6565 -0.5553  0.2477
18844SOL    HW263138   3.334   4.828   5.356  0.1552  0.2645  0.3493
18845SOL     OW63139  11.619  11.934   6.127 -0.3401 -0.2102  0.2333
18845SOL    HW163140  11.558  12.003   6.100 -0.4085 -0.0492  0.7754
18845SOL    HW263141  11.666  11.973   6.201  1.5570  0.2722 -1.1610
18846SOL     OW63142   6.646   0.200   0.131  0.0972 -0.1704  0.0050
18846SOL    HW163143   6.658   0.275   0.073 -0.2834  0.7711  1.1205
18846SOL    HW263144   6.678   0.125   0.080  0.1310  0.6818 -1.2662
18847SOL     OW63145   7.913   7.335   9.442  0.2099 -0.3623 -0.1891
18847SOL    HW163146   7.875   7.422   9.455 -0.0851 -0.8466  2.9015
18847SOL    HW263147   7.882   7.284   9.516  3.3275 -2.0783  0.1076
18848SOL     OW63148   1.148   0.643   5.524  0.1909  0.4549  0.1890
18848SOL    HW163149   1.114   0.730   5.503  1.9875  1.1776  0.0577
18848SOL    HW263150   1.111   0.586   5.457 -1.3940  1.0030  0.5554
18849SOL     OW63151  12.473   8.443   9.734  0.4303 -0.1515  0.0332
18849SOL    HW163152  12.542   8.385   9.701 -1.1311 -1.7221 -0.6503
18849SOL    HW263153  12.433   8.480   9.655 -0.4228 -0.3921  0.3397
18850SOL     OW63154  11.690   4.469   1.890  0.6353  0.1320 -0.1888
18850SOL    HW163155  11.598   4.468   1.861  0.0152 -2.2213  1.5300
18850SOL    HW263156  11.724   4.383   1.864  2.2551  0.7961 -0.3802
18851SOL     OW63157   6.041   5.540   7.326  0.0173 -0.1983  0.9767
18851SOL    HW163158   6.037   5.501   7.239  3.5804  1.5428 -0.1481
18851SOL    HW263159   5.956   5.583   7.337 -0.4819 -0.3314 -1.7249
18852SOL     OW63160   5.994   9.442   2.943 -0.0417 -0.3527  0.0144
18852SOL    HW163161   6.079   9.481   2.921  0.0903 -0.2599  0.6923
18852SOL    HW263162   6.015   9.369   3.000 -0.2687 -1.5719 -1.3951
18853SOL     OW63163   4.246  10.116   5.945  0.5878 -0.3798 -0.2286
18853SOL    HW163164   4.176  10.174   5.974  0.7007 -1.6640  3.0457
18853SOL    HW263165   4.317  10.176   5.920  0.0973  0.9332  1.3407
18854SOL     OW63166   4.300   5.347   3.323  0.5144  0.0652  0.0227
18854SOL    HW163167   4.388   5.383   3.325 -0.1758  1.9049 -0.3912
18854SOL    HW263168   4.246   5.414   3.365 -0.9449 -0.1531 -1.3848
18855SOL     OW63169   5.299   4.592   9.376 -0.2818  0.4125 -0.4035
18855SOL    HW163170   5.297   4.671   9.429  0.8902 -0.2080  0.5979
18855SOL    HW263171   5.354   4.615   9.301 -0.8174  0.8647 -0.6648
18856SOL     OW63172  11.132   2.766   5.963 -0.1716  0.1911  0.0272
18856SOL    HW163173  11.155   2.714   6.040  0.0370 -1.8364 -1.3021
18856SOL    HW263174  11.059   2.719   5.923  0.6878  0.2993 -1.8030
18857SOL     OW63175   3.625  11.682   4.699 -0.6189 -0.3435  0.0129
18857SOL    HW163176   3.655  11.704   4.787  1.9949  1.8836 -1.2567
18857SOL    HW263177   3.577  11.759   4.670  0.3880 -0.1428 -1.2069
18858SOL     OW63178  12.433   6.708   3.381 -0.0771 -0.4357 -0.3494
18858SOL    HW163179  12.524   6.732   3.395 -0.2929  0.0350  0.3041
18858SOL    HW263180  12.404   6.673   3.466 -0.3600 -1.0514 -0.6948
18859SOL     OW63181   3.909  12.412  10.920 -0.2988 -0.1944 -0.2162
18859SOL    HW163182   4.004  12.423  10.922 -0.1300 -1.5687  0.0302
18859SOL    HW263183   3.893  12.355  10.845 -1.0977  1.3475 -1.2674
18860SOL     OW63184   8.060   3.817   8.705  0.3355 -0.1978 -0.4991
18860SOL    HW163185   8.113   3.763   8.647  1.0669 -0.1898  0.1446
18860SOL    HW263186   7.996   3.859   8.648  0.4061 -0.9579 -1.1486
18861SOL     OW63187   6.816   4.243   2.844 -0.3804 -0.3901  0.1878
18861SOL    HW163188   6.734   4.222   2.799 -0.0057  0.2526 -0.8488
18861SOL    HW263189   6.819   4.339   2.844  0.0699 -0.4042  0.7766
18862SOL     OW63190   5.684   7.936  11.673  0.1009 -0.5866 -0.0868
18862SOL    HW163191   5.664   7.844  11.658 -0.2431 -0.9433  2.2253
18862SOL    HW263192   5.660   7.980  11.591 -1.5119 -2.2864 -0.5830
18863SOL     OW63193   2.465   2.891   2.848  0.1705 -0.2137  0.2860
18863SOL    HW163194   2.545   2.865   2.802  0.7945 -0.0551  1.2546
18863SOL    HW263195   2.463   2.987   2.840 -1.0772 -0.3313 -1.5637
18864SOL     OW63196  12.190   2.277   6.647  0.2561 -0.4748 -0.3347
18864SOL    HW163197  12.261   2.245   6.703  0.3356  0.3359  0.0497
18864SOL    HW263198  12.118   2.297   6.707  0.1635 -0.0787 -0.5685
18865SOL     OW63199   8.216   2.583   5.829 -0.1390  0.0564  0.4045
18865SOL    HW163200   8.282   2.621   5.887 -0.0357 -0.3391  0.5500
18865SOL    HW263201   8.210   2.491   5.856  2.0592 -0.9678 -2.0447
18866SOL     OW63202   9.078   0.880   9.145 -0.1818  0.2326 -0.5473
18866SOL    HW163203   9.104   0.898   9.236 -0.6535 -0.4934 -0.2636
18866SOL    HW263204   9.151   0.831   9.109 -0.0855  0.3372 -0.4980
18867SOL     OW63205   3.435   6.901   2.255  0.6529  0.4746 -0.3438
18867SOL    HW163206   3.353   6.936   2.288  0.2030 -0.7175 -0.1196
18867SOL    HW263207   3.488   6.886   2.334  0.3531 -0.4868 -0.3073
18868SOL     OW63208   7.221  10.397   4.191  0.1023 -0.8418  0.3609
18868SOL    HW163209   7.227  10.324   4.130  0.0231 -0.2922 -0.3190
18868SOL    HW263210   7.146  10.376   4.247 -1.4993 -0.1464 -1.4006
18869SOL     OW63211  10.939   3.641  10.545 -0.2762  0.0496 -0.6429
18869SOL    HW163212  10.973   3.558  10.513 -2.2700 -1.2051  0.3179
18869SOL    HW263213  10.998   3.664  10.618 -0.8533 -1.5965  0.3999
18870SOL     OW63214   7.485   5.068   0.703 -0.2319  0.3756  0.6750
18870SOL    HW163215   7.495   5.097   0.794 -1.7024  0.3028  0.8875
18870SOL    HW263216   7.409   5.009   0.705  0.8378 -1.1070 -0.2882
18871SOL     OW63217   7.019   5.686   2.407 -0.1492 -0.4433  0.0812
18871SOL    HW163218   6.965   5.716   2.480 -1.3989 -0.7184 -0.7026
18871SOL    HW263219   6.959   5.682   2.332  1.2700  0.5425 -1.1533
18872SOL     OW63220   8.569   9.068   0.437 -0.6825  0.1459  0.0377
18872SOL    HW163221   8.566   9.110   0.351  2.5849  3.0696  1.0984
18872SOL    HW263222   8.629   8.994   0.425 -0.0875  0.6576 -0.1904
18873SOL     OW63223   1.243  11.130  10.289 -0.2051 -0.0901  0.5907
18873SOL    HW163224   1.262  11.177  10.209  1.0628  0.3876  1.1534
18873SOL    HW263225   1.326  11.129  10.337 -1.1125  0.3188  2.2471
18874SOL     OW63226   2.326   1.832   1.008  0.6633  0.4831  0.7716
18874SOL    HW163227   2.377   1.771   1.062 -0.2563  0.9572  2.2138
18874SOL    HW263228   2.269   1.775   0.956  0.7410  0.0669  1.1355
18875SOL     OW63229   1.368   6.614   2.511 -0.0952  0.5369 -0.2724
18875SOL    HW163230   1.326   6.692   2.547  0.2142  0.6758 -0.2106
18875SOL    HW263231   1.457   6.642   2.491  0.1354  0.0941  0.1150
18876SOL     OW63232  11.922   1.715   1.849 -0.1602  0.1094 -0.6426
18876SOL    HW163233  11.838   1.677   1.824 -0.1790  0.7786 -1.6379
18876SOL    HW263234  11.903   1.768   1.926 -0.7714  0.7303 -1.2145
18877SOL     OW63235   2.924   7.501   2.338  0.0542  0.0202  0.2159
18877SOL    HW163236   2.848   7.472   2.388  0.3435  0.0152  0.6653
18877SOL    HW263237   2.957   7.422   2.296  0.0131 -0.0432  0.3026
18878SOL     OW63238   5.962   0.089   6.391 -0.6489 -0.0562 -0.2295
18878SOL    HW163239   5.866   0.082   6.386 -0.6793 -0.5689  0.9017
18878SOL    HW263240   5.991   0.076   6.300 -1.6079 -0.6259 -0.4716
18879SOL     OW63241  11.153   2.574   5.164  0.3675 -0.2252  0.3857
18879SOL    HW163242  11.160   2.496   5.108  2.6508  0.5159 -0.4679
18879SOL    HW263243  11.094   2.632   5.117  1.2430 -0.1439 -0.6704
18880SOL     OW63244   7.789   8.869   8.681 -0.2674 -0.4056  0.1135
18880SOL    HW163245   7.809   8.958   8.711  2.6303 -1.2296  0.9268
18880SOL    HW263246   7.791   8.875   8.586 -2.1907  0.7485  0.0854
18881SOL     OW63247   7.882  10.336   2.035  0.5181 -0.7555  0.4365
18881SOL    HW163248   7.920  10.397   1.972  0.7976 -1.8861 -0.5174
18881SOL    HW263249   7.866  10.256   1.985 -1.7284 -0.8423  1.1729
18882SOL     OW63250   4.073   0.824   7.412 -0.6910 -0.3917  0.4572
18882SOL    HW163251   4.001   0.882   7.389 -0.3309  0.0275  0.3765
18882SOL    HW263252   4.045   0.738   7.382 -1.8315 -0.5283  1.8041
18883SOL     OW63253   5.437   6.227   6.892  0.1328  0.5867  0.2841
18883SOL    HW163254   5.381   6.246   6.967  0.2004  0.3442  0.3968
18883SOL    HW263255   5.520   6.198   6.930  0.0248  0.0495  0.1195
18884SOL     OW63256  10.678   4.367   4.813 -0.3071  0.0128 -0.0589
18884SOL    HW163257  10.596   4.319   4.804 -0.1401 -0.0904 -1.0824
18884SOL    HW263258  10.658   4.439   4.872 -1.5015  0.8130 -1.3917
18885SOL     OW63259   8.552   5.410  10.075  0.2040 -0.6371 -0.4961
18885SOL    HW163260   8.523   5.501  10.081  1.6697 -0.0743 -1.2901
18885SOL    HW263261   8.546   5.377  10.165 -0.1035  0.3237 -0.1480
18886SOL     OW63262   7.720  10.592   9.865  0.1410 -0.4308  0.5689
18886SOL    HW163263   7.680  10.595   9.952  2.9729  0.1546  1.9863
18886SOL    HW263264   7.752  10.682   9.851  1.3117 -0.9512 -0.2415
18887SOL     OW63265   1.182  11.711   9.823 -0.0999 -0.1010  0.0876
18887SOL    HW163266   1.257  11.705   9.764 -0.1504 -1.1067  0.1012
18887SOL    HW263267   1.181  11.626   9.868 -2.0292 -0.6273 -0.8709
18888SOL     OW63268   5.443   0.498   0.006  0.4252 -0.0174 -0.1449
18888SOL    HW163269   5.390   0.577   0.003 -1.9062 -1.4528  0.3992
18888SOL    HW263270   5.401   0.438  -0.056 -0.1585 -2.0719  2.0822
18889SOL     OW63271   9.410   1.210   4.845 -0.0631  0.0664  0.4497
18889SOL    HW163272   9.460   1.249   4.773  0.0631  1.2831  1.1560
18889SOL    HW263273   9.427   1.116   4.838  2.7349  0.4518  0.9328
18890SOL     OW63274  12.645   2.467  10.084  0.1340 -0.1648  0.6250
18890SOL    HW163275  12.714   2.442  10.146 -1.3655 -1.0250  2.0270
18890SOL    HW263276  12.652   2.402  10.014  0.3739 -0.6353  1.0716
18891SOL     OW63277  10.146   7.408   7.165  0.1820  0.3198 -0.2155
18891SOL    HW163278  10.102   7.340   7.113  1.2069  1.1486 -2.2648
18891SOL    HW263279  10.097   7.488   7.147  0.0149  0.4813  0.8519
18892SOL     OW63280   0.608   1.430   8.920  0.3621  0.0818  0.2484
18892SOL    HW163281   0.642   1.509   8.963  0.7299 -1.0194  2.0879
18892SOL    HW263282   0.516   1.451   8.903  0.4441  0.9078  0.7303
18893SOL     OW63283   4.392   9.789   0.627  0.1781 -0.3249 -0.1873
18893SOL    HW163284   4.366   9.831   0.709  0.0344  0.6992 -0.7395
18893SOL    HW263285   4.320   9.729   0.607 -0.5418  0.5750 -0.3673
18894SOL     OW63286   1.003   5.203   5.161 -0.0841  0.0128 -0.3381
18894SOL    HW163287   1.073   5.184   5.099  1.4932  2.0049  0.7160
18894SOL    HW263288   0.956   5.277   5.123 -1.2226 -0.8504 -0.6845
18895SOL     OW63289   2.271   1.922   6.750  1.1799 -0.8460 -0.6928
18895SOL    HW163290   2.301   1.865   6.679  0.8789 -0.5815 -1.0328
18895SOL    HW263291   2.210   1.983   6.709  0.8606 -0.8056 -0.1742
18896SOL     OW63292  10.877   9.513  12.465  0.0124  0.3499 -0.3069
18896SOL    HW163293  10.945   9.492  12.401 -0.1171  0.9652 -0.6508
18896SOL    HW263294  10.839   9.595  12.434  0.9064  1.4323  1.3023
18897SOL     OW63295  11.922  11.896   1.270  0.2586  0.6053 -0.4858
18897SOL    HW163296  11.983  11.860   1.335 -1.8592 -0.5315  0.9684
18897SOL    HW263297  11.921  11.831   1.199 -0.2184 -0.0334  0.0944
18898SOL     OW63298   1.394   1.997   9.800  0.2966 -0.6615  0.1013
18898SOL    HW163299   1.359   1.911   9.777 -0.6555 -0.3686  0.4287
18898SOL    HW263300   1.480   2.000   9.758 -0.5712 -0.9095 -1.8000
18899SOL     OW63301   3.207   7.760   6.828 -0.1187 -0.6036  0.0923
18899SOL    HW163302   3.163   7.807   6.757  2.0374 -1.9669 -2.3296
18899SOL    HW263303   3.156   7.679   6.838  0.2143 -0.9441 -0.8029
18900SOL     OW63304   0.718   2.176   7.612  0.6802  0.0463  0.0493
18900SOL    HW163305   0.663   2.252   7.593  1.8803  1.5072  2.0226
18900SOL    HW263306   0.698   2.114   7.542 -2.3283  1.0762 -0.1631
18901SOL     OW63307   4.373   5.670   1.668 -0.2249 -0.0974 -0.0761
18901SOL    HW163308   4.446   5.610   1.679 -0.6104 -0.7395 -0.9218
18901SOL    HW263309   4.327   5.639   1.591 -2.2583 -0.6244  1.2520
18902SOL     OW63310   2.219   7.635   9.773  0.3198  0.0591  0.1612
18902SOL    HW163311   2.138   7.684   9.788 -0.3231 -0.8641 -0.1571
18902SOL    HW263312   2.223   7.622   9.678  1.2753  0.7840  0.0847
18903SOL     OW63313   9.714  10.277   8.629 -0.0406  0.0657 -0.3045
18903SOL    HW163314   9.758  10.194   8.610 -1.8630 -0.9209 -0.4173
18903SOL    HW263315   9.774  10.344   8.596  1.6416 -1.1621  0.1219
18904SOL     OW63316   7.024   9.237   8.897 -0.2995 -0.2443 -0.3885
18904SOL    HW163317   7.009   9.322   8.939  1.9250  1.1203 -2.1234
18904SOL    HW263318   6.940   9.214   8.859 -0.9011  1.2940 -0.0557
18905SOL     OW63319   6.077  12.041   2.615 -0.4160 -0.0080 -0.0535
18905SOL    HW163320   6.025  12.057   2.693  0.6331 -2.1288  1.1794
18905SOL    HW263321   6.123  12.123   2.599 -0.8296  0.5402  1.4114
18906SOL     OW63322   4.515   5.004  10.515  0.2588  0.1710  0.4286
18906SOL    HW163323   4.499   5.005  10.421  0.4250 -0.8458  0.3834
18906SOL    HW263324   4.610   5.012  10.523  0.1367  2.0356  0.5835
18907SOL     OW63325  10.644   9.571  12.248 -0.0031 -0.2771 -0.5728
18907SOL    HW163326  10.725   9.548  12.204  0.3991 -0.0025  0.0092
18907SOL    HW263327  10.669   9.639  12.310 -0.4652 -0.9730  0.4024
18908SOL     OW63328  10.348   7.703  11.650 -0.1562  0.1784  0.1547
18908SOL    HW163329  10.393   7.767  11.705 -1.5325 -0.0942  1.6809
18908SOL    HW263330  10.410   7.683  11.581  0.9593  1.8893  0.5949
18909SOL     OW63331   8.680   7.919   8.808 -0.2980 -0.0664  0.1594
18909SOL    HW163332   8.775   7.919   8.811 -0.3071  0.9148  1.0689
18909SOL    HW263333   8.653   7.894   8.897 -0.9008 -0.7039 -0.1868
18910SOL     OW63334  12.397   7.286   2.071 -0.2981  0.1578 -0.6766
18910SOL    HW163335  12.423   7.205   2.026 -0.8158 -1.5350  1.8511
18910SOL    HW263336  12.333   7.257   2.136  0.6570  2.3773  1.3924
18911SOL     OW63337   6.244   7.251   0.375  0.2384  0.3245 -0.0340
18911SOL    HW163338   6.184   7.213   0.439  1.5602  1.2312  1.8564
18911SOL    HW263339   6.264   7.180   0.315 -1.2091 -0.5233  0.4479
18912SOL     OW63340   0.231   5.220  12.138 -0.3724  0.5622  0.6332
18912SOL    HW163341   0.182   5.298  12.162 -0.2294  0.3575  1.6163
18912SOL    HW263342   0.192   5.192  12.054  0.0510  2.0717 -0.0995
18913SOL     OW63343  10.249  11.925   8.395  0.5196  0.0236  0.0576
18913SOL    HW163344  10.182  11.939   8.328 -0.8373 -1.4259  1.0350
18913SOL    HW263345  10.209  11.957   8.476  0.8147 -1.1959  0.7236
18914SOL     OW63346   8.635   0.349   3.595 -0.1726 -0.4377  0.2989
18914SOL    HW163347   8.700   0.415   3.620  0.4916 -1.2084  0.6525
18914SOL    HW263348   8.566   0.357   3.660  0.5871 -1.0472  1.2131
18915SOL     OW63349   6.401   8.889   3.999 -0.2005 -0.0287  0.2392
18915SOL    HW163350   6.390   8.880   4.094 -1.6368  1.7843  0.3054
18915SOL    HW263351   6.345   8.821   3.962 -0.4039 -0.1208  0.7021
18916SOL     OW63352   2.801   8.206   3.908  0.3023  0.0510 -1.0373
18916SOL    HW163353   2.767   8.117   3.895 -1.2223  0.4137  0.2137
18916SOL    HW263354   2.889   8.193   3.943 -1.1099 -1.1017  2.4870
18917SOL     OW63355   6.247   9.390   4.822  0.1906 -0.4613 -0.2050
18917SOL    HW163356   6.288   9.382   4.735  0.8223 -0.2133  0.0582
18917SOL    HW263357   6.244   9.484   4.838 -0.5708 -0.4736 -0.2513
18918SOL     OW63358   7.114   4.778   3.335 -0.3738  0.2756 -0.5080
18918SOL    HW163359   7.078   4.867   3.339  1.6191  1.2595 -2.3828
18918SOL    HW263360   7.208   4.789   3.343 -0.1702 -1.9240  1.1512
18919SOL     OW63361   2.121   0.091   7.383 -0.0480 -0.1228  0.7290
18919SOL    HW163362   2.143   0.184   7.386  1.4292 -0.3733 -0.6306
18919SOL    HW263363   2.026   0.088   7.371  0.0060  1.2445 -0.2142
18920SOL     OW63364   7.055  10.189  11.997  0.0866  0.3159 -0.3637
18920SOL    HW163365   7.032  10.246  12.070 -0.8150  3.3646 -2.7815
18920SOL    HW263366   7.149  10.201  11.986  0.6735 -1.8910  1.5079
18921SOL     OW63367   3.224  12.520   7.816 -0.1010 -0.2728  0.1759
18921SOL    HW163368   3.210  12.561   7.901  1.1332 -0.4259  0.4578
18921SOL    HW263369   3.229  12.593   7.754  0.5468 -0.0777  0.4581
18922SOL     OW63370  11.583  11.034   5.779  1.0419  0.3925  0.4602
18922SOL    HW163371  11.493  11.066   5.776  1.0890  0.4935  0.1254
18922SOL    HW263372  11.593  10.981   5.699  1.0514 -0.2225  0.8630
18923SOL     OW63373   6.932  11.616   7.543  0.0055 -0.0082  0.5370
18923SOL    HW163374   6.850  11.567   7.538  0.0128 -0.0383  0.7284
18923SOL    HW263375   6.970  11.608   7.455 -0.7426  0.9388  0.1101
18924SOL     OW63376   7.923  10.273   1.113 -0.0131 -0.3626 -0.1881
18924SOL    HW163377   7.839  10.256   1.156 -0.3480 -0.3867 -0.8314
18924SOL    HW263378   7.989  10.245   1.176 -0.5228 -2.1880 -0.4189
18925SOL     OW63379   9.747   7.649   8.257  0.2241  0.3501  0.1521
18925SOL    HW163380   9.747   7.578   8.322  0.7537  0.9915  0.8785
18925SOL    HW263381   9.718   7.726   8.307  2.5020  1.2902  0.1445
18926SOL     OW63382   3.202   5.190  12.404  0.1829 -0.0331 -0.0602
18926SOL    HW163383   3.241   5.170  12.319  1.4133 -0.1589  0.5149
18926SOL    HW263384   3.214   5.284  12.415 -0.2378  0.0318 -0.1515
18927SOL     OW63385  10.125  12.114   3.424  0.3523  0.8655  0.2286
18927SOL    HW163386  10.087  12.176   3.361  0.6665  0.0857 -0.7536
18927SOL    HW263387  10.069  12.036   3.418  3.4040 -1.3989 -3.2599
18928SOL     OW63388   3.684   6.118   3.514 -0.5851  0.1322  0.3007
18928SOL    HW163389   3.754   6.181   3.498  0.0855 -1.1000 -1.9975
18928SOL    HW263390   3.714   6.067   3.590  0.7932 -0.0334 -0.3297
18929SOL     OW63391   1.623   5.245   7.230 -0.0098 -0.2015  0.7481
18929SOL    HW163392   1.587   5.322   7.185  0.6041  0.1169  0.7864
18929SOL    HW263393   1.548   5.186   7.241 -0.6304  0.6659  1.3034
18930SOL     OW63394   4.355   3.769  10.233 -0.1502 -0.0360 -0.0346
18930SOL    HW163395   4.403   3.849  10.210 -1.5111  1.4885  2.0092
18930SOL    HW263396   4.408   3.730  10.303  0.3392 -0.7762 -0.8024
18931SOL     OW63397   6.892   2.048   4.077 -0.8254  0.0430  0.0843
18931SOL    HW163398   6.954   2.120   4.089 -0.4408 -0.5856  2.1556
18931SOL    HW263399   6.849   2.067   3.993  0.8270  1.4796 -0.4830
18932SOL     OW63400   5.397   2.963  11.552  0.4513 -0.1781 -0.2295
18932SOL    HW163401   5.391   2.962  11.648  2.8385  2.7588  0.0956
18932SOL    HW263402   5.491   2.954  11.534  0.1665  0.4649 -2.2416
18933SOL     OW63403   7.210   2.860   2.746 -0.2168  0.2774  0.1756
18933SOL    HW163404   7.300   2.868   2.715 -0.2403 -0.4220 -0.0977
18933SOL    HW263405   7.206   2.917   2.823  0.2062  0.9983 -0.3327
18934SOL     OW63406   8.008   8.925   8.012 -0.0643 -0.6038 -0.7233
18934SOL    HW163407   8.001   8.849   7.954  0.6037  0.2391 -1.9416
18934SOL    HW263408   8.057   8.990   7.961 -0.2774  0.5051  0.4415
18935SOL     OW63409   7.027  10.943   6.410  0.5555  0.5932  0.0054
18935SOL    HW163410   7.078  10.882   6.463  0.4532  0.8769  0.4279
18935SOL    HW263411   7.081  10.956   6.332  0.5269 -0.1247 -0.1493
18936SOL     OW63412   4.907  10.439   8.829 -0.0621 -0.2544 -0.2600
18936SOL    HW163413   4.847  10.406   8.896 -1.3366 -2.1779 -2.1788
18936SOL    HW263414   4.993  10.437   8.870 -0.6212 -2.5549  0.9659
18937SOL     OW63415   2.853   3.999   0.817  1.0444 -0.3287  0.5073
18937SOL    HW163416   2.862   3.921   0.761  0.4966 -0.6447  0.8487
18937SOL    HW263417   2.927   3.992   0.878  1.1096 -0.4808  0.4135
18938SOL     OW63418   5.395   9.813  11.454 -0.1580  0.4227 -0.8973
18938SOL    HW163419   5.344   9.806  11.374 -2.9429  0.2534  0.7504
18938SOL    HW263420   5.412   9.907  11.463 -0.1998  0.4879 -1.4510
18939SOL     OW63421  12.414   5.440   7.814 -0.4698  0.0121  0.1787
18939SOL    HW163422  12.423   5.475   7.726  1.2217  3.0850  1.4428
18939SOL    HW263423  12.471   5.363   7.816  0.9003  0.9710 -0.9115
18940SOL     OW63424   2.141   8.968   2.544 -0.2133 -0.1872 -0.2524
18940SOL    HW163425   2.108   8.988   2.632 -2.2859 -1.8499 -0.5728
18940SOL    HW263426   2.109   9.039   2.489  2.3836  1.7024  0.4982
18941SOL     OW63427  10.832   1.193   6.800 -0.6136 -0.5168  0.5189
18941SOL    HW163428  10.842   1.116   6.856  0.0070 -1.0629 -0.3105
18941SOL    HW263429  10.744   1.183   6.761 -0.4695 -0.9114  0.2813
18942SOL     OW63430   2.452   1.838  11.416  0.0038  0.6926  0.1806
18942SOL    HW163431   2.357   1.839  11.415 -0.0068  0.4136  0.5306
18942SOL    HW263432   2.477   1.807  11.329 -0.2776 -1.1234  0.6919
18943SOL     OW63433   8.062  10.571  11.378 -0.5294 -0.3269  0.0519
18943SOL    HW163434   8.098  10.539  11.461 -1.4430  0.7089  0.8763
18943SOL    HW263435   7.979  10.612  11.402  0.1469  1.8458 -1.0592
18944SOL     OW63436   8.494   9.112  12.383  0.7120 -0.6507  0.5487
18944SOL    HW163437   8.506   9.147  12.472 -0.9395 -0.9618  0.9411
18944SOL    HW263438   8.506   9.018  12.393 -0.5578 -0.8185  0.7013
18945SOL     OW63439   1.977   8.667  11.326  0.3189  0.6231 -0.2265
18945SOL    HW163440   1.896   8.679  11.277  0.8142 -0.3226 -1.3154
18945SOL    HW263441   1.947   8.639  11.413 -0.5367 -1.2798 -1.0619
18946SOL     OW63442  10.927   0.682   5.852 -1.0185 -0.4353 -0.4995
18946SOL    HW163443  10.861   0.628   5.808 -1.7654 -3.1896  3.4526
18946SOL    HW263444  10.880   0.761   5.879 -1.5489 -0.4829 -1.2468
18947SOL     OW63445   9.175   7.452   8.251  0.3946  0.8177 -0.0313
18947SOL    HW163446   9.222   7.370   8.264 -0.8615 -0.5389 -3.0540
18947SOL    HW263447   9.138   7.473   8.336  1.3947 -1.3449  0.9948
18948SOL     OW63448   7.037   2.753  11.417  0.1940 -0.3128  0.0295
18948SOL    HW163449   7.068   2.699  11.344 -1.4714  0.5776 -1.4118
18948SOL    HW263450   7.001   2.831  11.375 -0.7310  0.2669  1.8284
18949SOL     OW63451   5.715  11.340  12.058 -0.0626 -0.1896 -0.0262
18949SOL    HW163452   5.715  11.427  12.097  0.2163 -0.3503  0.3445
18949SOL    HW263453   5.803  11.306  12.076 -0.0761 -0.4346 -0.4161
18950SOL     OW63454   4.075   6.583  12.002  0.6829 -0.5973 -0.0879
18950SOL    HW163455   4.103   6.539  12.082 -2.0454  0.0332  1.3356
18950SOL    HW263456   4.112   6.671  12.008  1.7684 -1.0248 -0.3236
18951SOL     OW63457   8.833   1.974   0.752 -0.4646 -0.5497  0.2086
18951SOL    HW163458   8.763   1.950   0.813 -0.1175 -0.8630  0.4813
18951SOL    HW263459   8.898   1.904   0.760 -0.2292 -0.3852 -0.2242
18952SOL     OW63460   3.676   7.305  11.657 -0.0191 -0.7684 -0.0591
18952SOL    HW163461   3.706   7.383  11.702 -0.7138 -0.9060  0.6684
18952SOL    HW263462   3.581   7.304  11.670 -0.0623 -1.5417 -0.3453
18953SOL     OW63463   7.958   5.153  10.863 -0.4099  0.1002 -0.1584
18953SOL    HW163464   8.021   5.115  10.925 -0.3175  2.1181  1.0846
18953SOL    HW263465   8.002   5.149  10.779  1.6636  1.8206  0.7378
18954SOL     OW63466   9.575   8.252   3.156 -0.2261  0.7910 -0.3157
18954SOL    HW163467   9.598   8.229   3.246  0.6455  0.2705 -0.6672
18954SOL    HW263468   9.652   8.230   3.104 -1.5221 -1.1947 -1.5468
18955SOL     OW63469   4.448   8.252   0.203 -0.4136 -0.2820 -0.0898
18955SOL    HW163470   4.429   8.321   0.138 -4.1380 -1.2531 -0.2672
18955SOL    HW263471   4.423   8.171   0.159  1.2608 -1.4938  1.0883
18956SOL     OW63472   9.411  12.707  11.393  0.0073  0.0961 -0.2771
18956SOL    HW163473   9.471  12.651  11.443  0.1423  0.0931 -0.4427
18956SOL    HW263474   9.325  12.666  11.406  0.3844 -1.4095 -2.1086
18957SOL     OW63475   1.232   2.145   8.304  0.3610 -0.6504  0.3930
18957SOL    HW163476   1.157   2.194   8.339  0.0500 -0.3900 -0.5972
18957SOL    HW263477   1.214   2.054   8.327 -0.5316 -0.6585 -0.2742
18958SOL     OW63478   0.955  10.555   1.208 -0.1715 -0.3707 -0.1581
18958SOL    HW163479   0.959  10.648   1.189  1.6139 -0.4802 -0.4819
18958SOL    HW263480   1.035  10.537   1.257 -1.1905 -1.4741  1.1892
18959SOL     OW63481   4.747   8.770   5.732  0.2568 -0.0455  0.2470
18959SOL    HW163482   4.686   8.832   5.771 -0.4785 -0.8004  0.3229
18959SOL    HW263483   4.696   8.728   5.661  0.1881 -1.7152  1.2291
18960SOL     OW63484   4.318   2.338  11.947  0.8108  0.0295  0.2270
18960SOL    HW163485   4.276   2.401  12.005  0.8025 -0.3710  0.6557
18960SOL    HW263486   4.311   2.379  11.860 -0.4629 -0.0174  0.2813
18961SOL     OW63487   0.091   1.059   3.031  0.2548  0.0976  0.1854
18961SOL    HW163488   0.088   1.046   2.936  0.7657  0.4620  0.1192
18961SOL    HW263489  -0.001   1.064   3.056  0.1003 -0.5052 -0.2146
18962SOL     OW63490  10.161   4.090   8.146 -0.1535 -0.6133 -0.1156
18962SOL    HW163491  10.104   4.167   8.147  0.9027  0.1995  0.8359
18962SOL    HW263492  10.191   4.084   8.055  1.8298  1.7710  0.2556
18963SOL     OW63493   1.790   4.753  11.681 -0.2363  0.0254 -0.1091
18963SOL    HW163494   1.699   4.732  11.661  0.0797 -0.6548 -0.8872
18963SOL    HW263495   1.823   4.678  11.730  0.9492 -1.5566 -3.0701
18964SOL     OW63496  12.513   1.608   3.139 -0.1907 -0.3702 -0.0031
18964SOL    HW163497  12.436   1.660   3.114 -0.1981 -0.5172 -0.2947
18964SOL    HW263498  12.497   1.583   3.229 -0.1093  0.2802  0.1994
18965SOL     OW63499  10.557  11.478   8.495 -0.4162 -0.7105 -0.1688
18965SOL    HW163500  10.487  11.520   8.544 -0.3510 -2.2289  1.3524
18965SOL    HW263501  10.624  11.545   8.486 -1.0253  0.0220  0.6082
18966SOL     OW63502  10.987   8.218   1.742 -0.4761 -0.1516  0.2595
18966SOL    HW163503  10.925   8.209   1.669  0.8081  0.2925 -0.9488
18966SOL    HW263504  10.955   8.158   1.809 -1.0374 -1.5064 -1.1522
18967SOL     OW63505   3.291   5.893   2.974  0.0001  0.6371 -0.5761
18967SOL    HW163506   3.219   5.879   3.036 -2.2033  0.8297 -2.9382
18967SOL    HW263507   3.347   5.817   2.986 -0.7967  0.2583  1.0575
18968SOL     OW63508   7.544   5.696   1.628  0.0970 -1.0242 -0.1572
18968SOL    HW163509   7.515   5.672   1.540 -0.4818 -2.0080  0.2771
18968SOL    HW263510   7.490   5.641   1.686  0.9288 -0.8690  0.7819
18969SOL     OW63511  11.096  10.043   0.731  0.4190 -0.8155 -0.4612
18969SOL    HW163512  11.132   9.967   0.684  2.1509 -1.0192  1.0550
18969SOL    HW263513  11.137  10.119   0.689 -1.5191 -0.6409 -2.1533
18970SOL     OW63514   6.648   8.134  11.236  0.4709  0.3047 -0.0991
18970SOL    HW163515   6.563   8.142  11.193  0.6394  0.5920 -0.3814
18970SOL    HW263516   6.630   8.150  11.328  0.0951 -0.3853 -0.0447
18971SOL     OW63517   0.840  11.665   9.992 -0.3040  0.0647 -0.7368
18971SOL    HW163518   0.863  11.664   9.899  0.0541 -0.3918 -0.6475
18971SOL    HW263519   0.756  11.620   9.996 -0.5676  0.5447 -0.9042
18972SOL     OW63520   2.959   8.322  10.296 -0.3229 -0.1419 -0.0274
18972SOL    HW163521   3.024   8.316  10.225  1.5260 -2.2610  1.6880
18972SOL    HW263522   3.011   8.343  10.374 -1.7486 -1.4987  1.3583
18973SOL     OW63523   2.754   8.090   9.204  0.2039  0.3065 -0.1193
18973SOL    HW163524   2.679   8.052   9.159  0.0149  1.8793 -1.2173
18973SOL    HW263525   2.719   8.120   9.288 -0.4926  1.2684 -0.7298
18974SOL     OW63526  10.474   7.401  11.209 -0.5430 -0.1287  0.0659
18974SOL    HW163527  10.494   7.317  11.168  0.4070  0.5510 -0.8931
18974SOL    HW263528  10.555   7.426  11.253 -0.7313  0.4231  0.1002
18975SOL     OW63529   0.987   2.519   6.541  0.4071 -0.4160 -0.1114
18975SOL    HW163530   1.003   2.445   6.598 -1.0472 -1.6255 -1.1693
18975SOL    HW263531   1.067   2.571   6.545  0.3607 -0.4268  2.9592
18976SOL     OW63532   7.806   4.116   0.379  0.4307 -0.2753 -0.7459
18976SOL    HW163533   7.758   4.167   0.313  2.2102  1.0233 -1.1054
18976SOL    HW263534   7.887   4.091   0.336  0.1444 -2.4213 -0.1495
18977SOL     OW63535  11.667   8.529   3.020  0.5824 -0.4949  0.1575
18977SOL    HW163536  11.679   8.611   2.971  0.7977 -1.9068 -2.3650
18977SOL    HW263537  11.749   8.517   3.068  0.6182  0.6696  0.3974
18978SOL     OW63538   7.700   0.708   4.735  0.0356  0.5756 -0.4568
18978SOL    HW163539   7.644   0.631   4.723  0.3107  0.6312 -2.3317
18978SOL    HW263540   7.778   0.675   4.781 -0.2776 -0.0499 -0.3722
18979SOL     OW63541  11.997   6.991  12.634  0.1733  0.1935  0.0330
18979SOL    HW163542  11.925   7.031  12.586  0.7380 -0.5634 -1.5240
18979SOL    HW263543  12.075   7.038  12.605  0.3354  1.0089  1.7080
18980SOL     OW63544   6.383   5.508   2.299 -0.6147 -0.2147  0.1906
18980SOL    HW163545   6.465   5.537   2.339 -0.6481  0.2192 -0.0486
18980SOL    HW263546   6.366   5.573   2.231 -1.6195  0.2043  0.8215
18981SOL     OW63547   7.482   7.122   4.483  0.5641 -0.1701 -0.0708
18981SOL    HW163548   7.388   7.130   4.496  0.5568  0.9556 -0.7247
18981SOL    HW263549   7.507   7.047   4.536 -0.4895  0.3274  1.1855
18982SOL     OW63550  10.369   5.330   2.799  0.0877 -0.3048 -0.0562
18982SOL    HW163551  10.288   5.292   2.764 -0.5813  0.9982  0.0459
18982SOL    HW263552  10.397   5.269   2.867 -0.9240 -0.6608  0.0539
18983SOL     OW63553   6.573   9.617   4.785  0.0074  0.3622  0.4929
18983SOL    HW163554   6.524   9.567   4.850  0.0769 -1.3566 -0.7096
18983SOL    HW263555   6.522   9.609   4.705  1.6289 -0.5076 -0.5087
18984SOL     OW63556   4.727   2.715   1.799 -0.9665 -0.3380 -0.4539
18984SOL    HW163557   4.636   2.745   1.797 -0.9071 -0.1976 -1.2741
18984SOL    HW263558   4.751   2.702   1.708 -0.1857 -0.4579 -0.2456
18985SOL     OW63559   8.071   9.956  11.657 -0.7653 -0.0143  0.0506
18985SOL    HW163560   8.020   9.992  11.584  0.5169 -1.3551 -1.5760
18985SOL    HW263561   8.151  10.008  11.659 -0.0848 -0.9894 -0.5930
18986SOL     OW63562  11.281   4.168   2.693 -0.0022 -0.4682  0.7597
18986SOL    HW163563  11.331   4.098   2.651 -0.0633  0.6889 -1.3898
18986SOL    HW263564  11.347   4.231   2.722 -0.0512 -0.3406  0.5993
18987SOL     OW63565   8.306   9.760  12.094  0.0487  0.2710 -0.6433
18987SOL    HW163566   8.263   9.772  12.179  2.3418  3.8732  0.2029
18987SOL    HW263567   8.266   9.825  12.037 -0.1961 -0.9008 -1.8719
18988SOL     OW63568   7.183   5.631   6.524 -0.1774 -0.1969  0.1414
18988SOL    HW163569   7.096   5.635   6.564 -1.2161 -0.1707 -1.9838
18988SOL    HW263570   7.167   5.603   6.434  1.8087  1.8119 -0.9403
18989SOL     OW63571   2.707   4.368   0.517  0.1941  0.0144 -0.3490
18989SOL    HW163572   2.668   4.428   0.580 -0.0932 -0.9317  0.3898
18989SOL    HW263573   2.634   4.339   0.462 -0.0259 -1.1255  0.5160
18990SOL     OW63574   9.295   2.566   3.260 -0.0096 -0.0135 -0.1082
18990SOL    HW163575   9.212   2.537   3.222 -0.5875 -0.9274  1.7246
18990SOL    HW263576   9.302   2.517   3.342  2.4907 -0.1627 -0.3320
18991SOL     OW63577   3.102  10.064   4.522  0.0190 -0.5044  0.3242
18991SOL    HW163578   3.036  10.090   4.457 -0.2795  1.0495  1.1886
18991SOL    HW263579   3.051  10.037   4.598  0.2624  2.5384  1.7028
18992SOL     OW63580   1.637   3.177  11.014 -0.3512 -0.2629  0.4513
18992SOL    HW163581   1.556   3.126  11.007  0.3667 -1.6831  2.0086
18992SOL    HW263582   1.692   3.145  10.943 -0.8031  0.0761 -0.0611
18993SOL     OW63583   2.872  10.486   3.849  0.1689 -0.1882  0.5953
18993SOL    HW163584   2.936  10.547   3.811  0.3508 -0.6474  0.1402
18993SOL    HW263585   2.846  10.526   3.931 -0.0193  0.6989  0.1157
18994SOL     OW63586   0.922   6.347   9.690  0.3618 -0.1336 -0.2927
18994SOL    HW163587   0.881   6.417   9.741  1.3198  0.1949  0.0572
18994SOL    HW263588   0.857   6.324   9.624 -0.0581  0.9591 -0.2910
18995SOL     OW63589   7.346  10.242   5.325  0.4210 -0.2237 -0.8855
18995SOL    HW163590   7.260  10.261   5.361  1.0693 -2.5978  2.3761
18995SOL    HW263591   7.399  10.319   5.345 -0.7142  1.0588 -2.5141
18996SOL     OW63592  11.541  10.072  12.138  0.0236 -0.5204  0.2778
18996SOL    HW163593  11.519  10.149  12.191 -1.7401  0.3688 -1.6042
18996SOL    HW263594  11.592  10.107  12.064 -1.0572 -1.0566 -0.7548
18997SOL     OW63595   8.483   2.691   1.333  0.1397 -0.5854  0.3583
18997SOL    HW163596   8.447   2.686   1.422  1.9225 -1.0996  1.1049
18997SOL    HW263597   8.483   2.600   1.302  0.4269 -0.5438  0.2314
18998SOL     OW63598   4.427  12.134   4.097  0.3525  0.2370 -0.3416
18998SOL    HW163599   4.472  12.155   4.179  0.2804  2.6568 -0.8267
18998SOL    HW263600   4.344  12.095   4.125  1.0308 -0.5225  0.6789
18999SOL     OW63601   2.287   0.020   3.777  0.0177  0.0442  0.9031
18999SOL    HW163602   2.373  -0.015   3.798  1.2862  1.2269 -1.7926
18999SOL    HW263603   2.255  -0.037   3.707 -0.2970  1.0151  0.2364
19000SOL     OW63604   2.627   8.455   4.893 -0.1852 -0.7176 -0.5790
19000SOL    HW163605   2.681   8.521   4.936 -1.8454  0.6125 -0.4776
19000SOL    HW263606   2.687   8.415   4.829  1.1856  0.0276  0.1737
19001SOL     OW63607  10.380   9.088   4.461 -0.4049 -0.3528 -0.4995
19001SOL    HW163608  10.458   9.032   4.466  1.4624  1.9672 -1.6999
19001SOL    HW263609  10.391   9.150   4.533 -1.3164 -0.1353 -0.5342
19002SOL     OW63610   3.994   8.209  12.135 -0.3025  0.4410 -0.1292
19002SOL    HW163611   3.908   8.174  12.111  0.2672 -0.9850 -0.2414
19002SOL    HW263612   3.976   8.281  12.195 -1.6440  1.7024 -1.9719
19003SOL     OW63613  12.131   1.904   5.035 -0.6255 -0.2546  0.0005
19003SOL    HW163614  12.106   1.871   5.121  1.7596  0.0208  0.8488
19003SOL    HW263615  12.147   1.998   5.048 -0.5432 -0.1404 -0.8274
19004SOL     OW63616  11.647   7.325   9.211  0.6037 -0.0896  0.0011
19004SOL    HW163617  11.642   7.408   9.259  1.1456 -0.6969  1.1476
19004SOL    HW263618  11.729   7.330   9.163  1.0730 -0.2918  0.7539
19005SOL     OW63619   5.228   4.768  11.760  0.6691 -0.7080 -0.7064
19005SOL    HW163620   5.315   4.729  11.775 -0.3150 -2.1613  2.0016
19005SOL    HW263621   5.216   4.828  11.834 -2.2617 -3.8582  1.6747
19006SOL     OW63622   8.626   7.872   6.329  0.2919 -0.2654 -0.9535
19006SOL    HW163623   8.538   7.868   6.367  0.6315  0.9196  0.0468
19006SOL    HW263624   8.675   7.802   6.372  1.0256  1.8123  1.9285
19007SOL     OW63625   7.030   9.199   4.096  0.1376  0.4811 -0.1005
19007SOL    HW163626   7.063   9.172   4.182 -1.0225  2.1477  0.9361
19007SOL    HW263627   7.017   9.117   4.049  0.7509 -0.4892  1.3242
19008SOL     OW63628   0.133   7.903  12.084  0.0055  0.1271  0.2415
19008SOL    HW163629   0.095   7.976  12.132 -2.8572  0.2068 -1.8683
19008SOL    HW263630   0.084   7.826  12.113 -0.2009 -0.1763 -0.8597
19009SOL     OW63631   1.702   8.707   1.714  0.2418  0.8142 -0.5726
19009SOL    HW163632   1.680   8.789   1.671 -1.6013  1.3733  1.2583
19009SOL    HW263633   1.669   8.639   1.655  0.8457  1.3846 -1.6015
19010SOL     OW63634   0.309  12.536   1.650  0.1370  0.0326 -0.4489
19010SOL    HW163635   0.350  12.623   1.656  0.9031 -0.3265 -0.3867
19010SOL    HW263636   0.313  12.502   1.739 -2.3969  0.9100  0.0693
19011SOL     OW63637   0.675   0.763   4.328 -0.4695  0.1198  0.2338
19011SOL    HW163638   0.697   0.852   4.303 -1.6871  0.1956 -0.6490
19011SOL    HW263639   0.704   0.709   4.254 -0.7770 -0.0809  0.2548
19012SOL     OW63640  11.557  11.241   6.120 -0.2652 -0.3958 -0.0216
19012SOL    HW163641  11.620  11.312   6.106  0.6341 -0.6984  2.0746
19012SOL    HW263642  11.606  11.161   6.101 -0.5718 -0.5609 -0.1217
19013SOL     OW63643   6.104   9.943   8.715 -1.0327 -0.2556  0.4722
19013SOL    HW163644   6.071   9.980   8.798 -0.5894  1.8254 -0.2056
19013SOL    HW263645   6.031   9.951   8.655 -1.0560 -0.8947  0.4130
19014SOL     OW63646   5.807  12.750   6.885 -0.3234  0.1204  0.1415
19014SOL    HW163647   5.797  12.787   6.973  0.9497  0.9329 -0.0303
19014SOL    HW263648   5.744  12.798   6.831 -1.0562 -0.3303  0.5753
19015SOL     OW63649  12.236   8.706   1.740  0.4614  0.5528  0.3764
19015SOL    HW163650  12.260   8.762   1.814  1.0509  1.2596 -0.3313
19015SOL    HW263651  12.311   8.648   1.730  0.4870  0.6190  0.1855
19016SOL     OW63652   4.018   6.848   9.500  0.0826  0.5298  0.2526
19016SOL    HW163653   3.988   6.838   9.409  1.9141  1.1912 -0.4828
19016SOL    HW263654   4.079   6.776   9.513  1.0244  1.3423  0.4067
19017SOL     OW63655   1.596   5.509   3.433  0.2947 -0.5293  0.0826
19017SOL    HW163656   1.550   5.448   3.491  1.9285 -1.9485 -0.0414
19017SOL    HW263657   1.609   5.460   3.352 -1.3364  1.1921 -1.2961
19018SOL     OW63658  10.704   6.090   1.121  0.1688  0.0787  0.1271
19018SOL    HW163659  10.786   6.134   1.097  1.4887 -1.8673  0.7501
19018SOL    HW263660  10.662   6.070   1.038  1.2147 -0.4201 -0.3059
19019SOL     OW63661   6.139   5.834  11.785  0.2332 -0.0673 -0.1098
19019SOL    HW163662   6.086   5.862  11.860 -0.2431  2.8649 -1.3805
19019SOL    HW263663   6.229   5.834  11.817 -0.1499 -1.3799  1.0717
19020SOL     OW63664   5.047   2.732  10.352  0.2157 -0.2867 -0.7180
19020SOL    HW163665   4.990   2.735  10.428  1.1306 -0.8816  0.0109
19020SOL    HW263666   4.989   2.711  10.279 -0.4190 -1.4165  0.0870
19021SOL     OW63667  12.642  12.643   5.661  0.3483 -0.0292  0.1835
19021SOL    HW163668  12.678  12.625   5.574 -0.2842 -1.6581  0.2247
19021SOL    HW263669  12.555  12.604   5.659 -0.2959  1.3273  1.0395
19022SOL     OW63670   7.421  11.275   6.552 -0.9464  0.1196 -0.4188
19022SOL    HW163671   7.467  11.349   6.591 -1.1758  0.7659 -1.3384
19022SOL    HW263672   7.486  11.231   6.498 -0.7224 -0.5606  0.3910
19023SOL     OW63673   3.756   7.923   7.091  0.6834 -0.3335 -0.1446
19023SOL    HW163674   3.733   7.955   7.178 -0.2775 -0.5994 -0.2822
19023SOL    HW263675   3.773   8.002   7.040 -1.5874  0.0351 -0.4622
19024SOL     OW63676   3.676   2.208   5.798  0.4206  0.2112  0.2054
19024SOL    HW163677   3.734   2.284   5.792 -0.8410  1.4433  2.3551
19024SOL    HW263678   3.680   2.182   5.890  0.1015 -1.7728 -0.3058
19025SOL     OW63679   6.864   0.352   6.176 -0.4060 -0.6138  0.2218
19025SOL    HW163680   6.840   0.305   6.256 -1.0565 -1.9495 -0.7237
19025SOL    HW263681   6.835   0.295   6.105  0.4136  0.4110 -0.9798
19026SOL     OW63682  12.557   7.294  11.368  0.1017 -0.4498 -0.0850
19026SOL    HW163683  12.590   7.210  11.336  1.3634  0.1410 -0.3828
19026SOL    HW263684  12.470   7.302  11.329  0.4678 -1.0530 -1.0609
19027SOL     OW63685   4.879   5.933   0.233  0.5306 -0.2265 -0.1716
19027SOL    HW163686   4.874   6.025   0.210  0.4986 -0.4594 -1.1339
19027SOL    HW263687   4.885   5.887   0.149  1.1019 -1.0668  0.3130
19028SOL     OW63688   1.713   2.293   0.588 -0.3274 -0.0357 -0.1598
19028SOL    HW163689   1.732   2.240   0.665  0.2395 -0.0511 -0.3060
19028SOL    HW263690   1.758   2.376   0.604  1.4785 -0.7379 -1.3488
19029SOL     OW63691   7.389   1.213   3.518 -0.2221 -0.4362  0.8125
19029SOL    HW163692   7.401   1.178   3.430  3.4246  0.7879  0.6358
19029SOL    HW263693   7.388   1.136   3.575 -0.2818 -1.1426 -0.1314
19030SOL     OW63694   9.309   1.211   8.459 -0.4778  0.0023 -0.3115
19030SOL    HW163695   9.346   1.299   8.469  0.4538 -0.3434 -0.5312
19030SOL    HW263696   9.323   1.170   8.544 -0.6925 -0.0063 -0.2821
19031SOL     OW63697   1.249   7.061   6.465 -0.0047 -0.7570 -0.6400
19031SOL    HW163698   1.171   7.108   6.437  0.7265  1.2150  0.4222
19031SOL    HW263699   1.310   7.068   6.392 -0.4745 -1.4885 -1.1093
19032SOL     OW63700   3.091   7.243   4.201 -0.5546 -0.6303  0.2419
19032SOL    HW163701   3.143   7.321   4.181  0.9057 -1.9746 -1.6541
19032SOL    HW263702   3.122   7.215   4.287 -0.4327  0.3569  0.5369
19033SOL     OW63703   8.347  10.234   7.082  0.1062 -0.0677 -0.0851
19033SOL    HW163704   8.414  10.300   7.103 -0.6796  0.4590  0.8582
19033SOL    HW263705   8.359  10.166   7.148  2.5932 -2.2409 -2.5360
19034SOL     OW63706  12.446   1.113  11.281  0.2546  0.0844 -0.1997
19034SOL    HW163707  12.423   1.024  11.308 -0.2820  0.3130  0.1074
19034SOL    HW263708  12.370   1.142  11.230  1.0937 -0.2051 -1.6699
19035SOL     OW63709  11.777   4.130   2.581 -0.2735 -0.5213  0.0665
19035SOL    HW163710  11.827   4.130   2.663  1.3945 -3.2256 -0.8297
19035SOL    HW263711  11.822   4.194   2.526  0.5094 -0.9323  0.2196
19036SOL     OW63712  10.825  12.542   5.950  0.0339 -0.0131 -0.0718
19036SOL    HW163713  10.868  12.543   6.036 -0.5139 -0.4880  0.2098
19036SOL    HW263714  10.759  12.611   5.955 -2.7324 -2.5635  1.3242
19037SOL     OW63715  12.219   4.907  11.863 -0.2335  0.3929 -0.1949
19037SOL    HW163716  12.134   4.942  11.837 -1.9242 -2.5765  0.8470
19037SOL    HW263717  12.271   4.908  11.782 -1.8626  0.6206 -1.2921
19038SOL     OW63718  12.513   4.484   0.711  0.1403 -0.2281 -0.0226
19038SOL    HW163719  12.504   4.418   0.780 -0.6472 -2.7277 -2.3507
19038SOL    HW263720  12.428   4.529   0.711 -0.0412 -0.5580  0.3177
19039SOL     OW63721   1.167   2.276   0.445 -0.2665  0.1047  0.0132
19039SOL    HW163722   1.100   2.300   0.510 -1.5290 -0.2044 -1.1279
19039SOL    HW263723   1.245   2.256   0.497 -0.8579  1.0986  1.3488
19040SOL     OW63724   7.553  12.384   6.440  0.1260  0.2618  0.1273
19040SOL    HW163725   7.547  12.368   6.534 -0.3469  2.5577  0.5383
19040SOL    HW263726   7.466  12.361   6.407 -0.5710  1.9129  0.7114
19041SOL     OW63727   3.254   1.572   2.269 -0.0643 -0.1038  0.1086
19041SOL    HW163728   3.256   1.642   2.334  1.9070 -0.1717  0.1869
19041SOL    HW263729   3.305   1.501   2.309  0.7616 -0.3353 -1.2987
19042SOL     OW63730   8.321   1.922   0.426 -0.0258  0.4789  0.5838
19042SOL    HW163731   8.306   1.830   0.406  0.2972  0.0937  1.9903
19042SOL    HW263732   8.245   1.948   0.478  0.9799  0.3133  2.2233
19043SOL     OW63733   7.205   1.748   6.747 -0.0255  0.4415  0.8324
19043SOL    HW163734   7.144   1.692   6.795 -0.7739  0.4066 -0.1245
19043SOL    HW263735   7.151   1.819   6.713  0.9183  1.8367  2.0998
19044SOL     OW63736   7.089   1.585   2.024 -0.4821 -0.8564  0.1249
19044SOL    HW163737   7.004   1.541   2.018 -0.8190 -0.4322  1.4083
19044SOL    HW263738   7.076   1.652   2.091  0.8299 -0.6853  0.2290
19045SOL     OW63739   8.551   4.081   2.410 -0.4192 -0.8068 -0.2156
19045SOL    HW163740   8.536   3.989   2.432  1.2764 -1.4451 -1.6098
19045SOL    HW263741   8.634   4.082   2.363  0.3898  1.6521  1.1069
19046SOL     OW63742   8.242  12.262   0.788 -0.0303  0.1155  0.2112
19046SOL    HW163743   8.323  12.304   0.819  0.0781 -0.2260  0.3875
19046SOL    HW263744   8.191  12.334   0.752 -0.0752  0.4933  1.0057
19047SOL     OW63745   6.210  10.305   9.285  0.7417  0.6130  0.5560
19047SOL    HW163746   6.152  10.346   9.349 -1.5431  0.1657 -1.0950
19047SOL    HW263747   6.172  10.328   9.200  1.7666 -1.5144 -0.5481
19048SOL     OW63748   6.655   7.826   7.030  0.1408  0.6027 -0.2633
19048SOL    HW163749   6.650   7.793   6.940 -1.5670 -0.3061  0.1227
19048SOL    HW263750   6.748   7.827   7.050  0.4194 -1.7033 -1.1634
19049SOL     OW63751   1.409   5.209   4.598  0.4752 -0.1194 -0.5981
19049SOL    HW163752   1.457   5.141   4.551  0.8132  0.3464 -0.9351
19049SOL    HW263753   1.339   5.162   4.643  0.6061 -0.6682 -0.9599
19050SOL     OW63754   4.820   3.349   6.463 -0.3890  0.1925 -0.5630
19050SOL    HW163755   4.757   3.285   6.428  0.4712 -0.6170 -0.6529
19050SOL    HW263756   4.906   3.315   6.438  0.1673  0.4576  0.9060
19051SOL     OW63757  12.290   7.871   8.033 -0.1589  0.2552 -0.0087
19051SOL    HW163758  12.339   7.789   8.031 -0.8931 -0.1828 -0.4517
19051SOL    HW263759  12.309   7.908   8.120  1.8100  0.6465 -0.5467
19052SOL     OW63760   1.264   8.765   0.255  0.2363 -0.5158 -0.0766
19052SOL    HW163761   1.269   8.851   0.297  2.0842 -0.6076 -0.0135
19052SOL    HW263762   1.344   8.721   0.282 -0.1681 -1.8670 -0.9784
19053SOL     OW63763   8.320   3.476   5.558 -0.1783 -0.4823  0.1629
19053SOL    HW163764   8.270   3.542   5.510  1.9581  0.4009 -1.0031
19053SOL    HW263765   8.301   3.393   5.513 -0.1716 -0.0728 -0.6057
19054SOL     OW63766   6.773   5.176   4.920 -0.6425  0.3746  0.5862
19054SOL    HW163767   6.720   5.246   4.958 -1.0272  0.2589  0.2684
19054SOL    HW263768   6.740   5.166   4.831  0.3611  0.7527  0.1555
19055SOL     OW63769   2.998  11.328  11.819 -0.1685  0.4458  0.3356
19055SOL    HW163770   3.053  11.306  11.743 -2.3742 -3.0602 -0.4869
19055SOL    HW263771   3.013  11.256  11.880 -1.7627  0.8459  1.2479
19056SOL     OW63772   2.936  11.264   3.006 -0.3057 -0.1952 -0.7442
19056SOL    HW163773   2.959  11.324   3.077  1.7993 -1.1556 -0.5443
19056SOL    HW263774   3.020  11.229   2.976 -1.4200 -2.6752 -1.1706
19057SOL     OW63775   4.242   2.432   5.832  0.0085 -0.8194 -0.2870
19057SOL    HW163776   4.162   2.458   5.878  0.4783  1.4724 -0.6851
19057SOL    HW263777   4.248   2.492   5.758  2.1469 -0.9044 -0.2359
19058SOL     OW63778  10.250  11.738   1.506 -0.3419 -0.9607  0.2648
19058SOL    HW163779  10.158  11.715   1.493 -0.2814 -1.6093  0.8959
19058SOL    HW263780  10.269  11.713   1.597  0.4424 -0.7820  0.1646
19059SOL     OW63781   1.860   5.709   8.311 -0.1195  0.5880  0.4164
19059SOL    HW163782   1.798   5.782   8.305 -0.7774  0.0929  1.0413
19059SOL    HW263783   1.806   5.632   8.328  0.7056  0.2716  1.8086
19060SOL     OW63784   5.292   1.211   3.161  0.2551 -0.1575 -0.3277
19060SOL    HW163785   5.250   1.125   3.170 -0.0613 -0.0124 -0.3911
19060SOL    HW263786   5.236   1.259   3.100 -1.4675  1.2332  2.1518
19061SOL     OW63787   6.626  11.276   4.717 -0.3006 -0.0897 -0.5567
19061SOL    HW163788   6.705  11.320   4.685 -0.3720 -0.8656 -1.8988
19061SOL    HW263789   6.563  11.346   4.733  0.6954  0.5613  0.7361
19062SOL     OW63790  12.004   0.978   6.531  0.9144  0.0683  0.3427
19062SOL    HW163791  12.070   0.956   6.466  1.5901  0.5288  0.8561
19062SOL    HW263792  12.050   1.034   6.594  0.2936 -0.3910  1.2344
19063SOL     OW63793   0.505  10.509   0.813  0.4047  0.4141  0.1587
19063SOL    HW163794   0.503  10.420   0.849  1.0178  0.7494  1.0501
19063SOL    HW263795   0.473  10.499   0.723  1.3286 -0.8474 -0.0605
19064SOL     OW63796   2.757   2.409   4.749 -0.1592 -0.2498  0.0218
19064SOL    HW163797   2.836   2.441   4.706 -0.5150  0.5858 -0.0245
19064SOL    HW263798   2.691   2.410   4.680 -0.1909 -1.0384  0.0363
19065SOL     OW63799   0.591   7.873   2.201  0.2049  0.2638 -0.3467
19065SOL    HW163800   0.592   7.911   2.289 -1.1233  1.1312 -0.6838
19065SOL    HW263801   0.663   7.917   2.156  1.9169 -1.2945  0.7009
19066SOL     OW63802  11.671  10.265  11.962 -0.7362  0.0824  0.0810
19066SOL    HW163803  11.693  10.356  11.943  2.8942 -0.6901 -0.3037
19066SOL    HW263804  11.751  10.216  11.939 -1.4797 -2.8484  2.9643
19067SOL     OW63805  10.347   4.653   1.260 -0.0603 -0.2235 -0.2737
19067SOL    HW163806  10.343   4.732   1.207 -0.8752  1.3145  1.9620
19067SOL    HW263807  10.411   4.672   1.329 -1.2585 -0.9368  1.0999
19068SOL     OW63808   7.647   0.024  10.847 -0.2576 -0.0868  0.7249
19068SOL    HW163809   7.648   0.119  10.858  0.3990 -0.0587  0.4876
19068SOL    HW263810   7.615  -0.010  10.931 -0.1275  0.3241  0.9437
19069SOL     OW63811  10.221   1.355   2.249  0.1721 -0.3690 -0.0527
19069SOL    HW163812  10.313   1.334   2.232 -0.2686 -0.6510 -2.4435
19069SOL    HW263813  10.187   1.382   2.164 -1.4504  1.8301  1.2096
19070SOL     OW63814   9.029   5.159  10.490  0.8550  0.4489 -0.4459
19070SOL    HW163815   9.048   5.071  10.524 -0.1819  0.2694 -0.2970
19070SOL    HW263816   9.048   5.218  10.563 -1.7590  0.0322  0.6616
19071SOL     OW63817   6.499   4.008   1.125 -0.1015 -0.7424  0.2960
19071SOL    HW163818   6.558   4.083   1.119  0.2277 -0.9572  0.7048
19071SOL    HW263819   6.550   3.935   1.090 -0.6375 -0.6645 -0.6645
19072SOL     OW63820  12.636   4.043   0.788  0.1493  0.1809  0.4599
19072SOL    HW163821  12.675   4.043   0.876  0.7698 -0.0868  0.1846
19072SOL    HW263822  12.710   4.033   0.729 -0.0826  1.9253 -0.1763
19073SOL     OW63823  12.363   2.986   3.183  0.2107  0.2765 -0.0287
19073SOL    HW163824  12.297   3.007   3.250 -0.7007  2.7725 -1.6006
19073SOL    HW263825  12.318   2.925   3.125 -0.7807  1.9047 -1.0474
19074SOL     OW63826   6.445  10.847  11.491 -0.3366 -0.0253 -0.2825
19074SOL    HW163827   6.365  10.803  11.521 -2.0733  1.5228 -2.3322
19074SOL    HW263828   6.426  10.940  11.505  1.5493  0.3321  0.0764
19075SOL     OW63829   9.658   1.345   8.196 -0.7735 -0.1951 -0.3458
19075SOL    HW163830   9.660   1.365   8.103 -1.9619  1.1310 -0.1093
19075SOL    HW263831   9.572   1.375   8.226 -0.3999 -0.5547  1.1831
19076SOL     OW63832   3.291  10.277   8.181 -0.1510  0.4186 -0.4830
19076SOL    HW163833   3.344  10.356   8.181  0.4172  0.0472 -0.0295
19076SOL    HW263834   3.275  10.258   8.273  1.0121 -0.8199 -0.4958
19077SOL     OW63835   1.753  11.388   9.873  0.0743  0.1032 -0.5565
19077SOL    HW163836   1.706  11.472   9.873  1.5769  1.0431  1.2760
19077SOL    HW263837   1.824  11.401   9.810 -0.4062 -0.2597 -1.1808
19078SOL     OW63838   2.138   2.914   4.907 -0.6326 -0.1213 -0.3290
19078SOL    HW163839   2.072   2.984   4.913 -0.1631  0.5130 -2.0312
19078SOL    HW263840   2.109   2.860   4.834  0.6634  0.1318 -1.0636
19079SOL     OW63841   4.224   9.165  10.853 -0.0627 -0.3806  0.5047
19079SOL    HW163842   4.145   9.150  10.904 -0.8366  0.0609 -0.5370
19079SOL    HW263843   4.193   9.195  10.768  1.2460  1.6544  0.6648
19080SOL     OW63844   5.652   4.975  11.748  0.0624  0.2258 -0.2134
19080SOL    HW163845   5.598   4.947  11.674 -1.0897 -1.4549  1.1805
19080SOL    HW263846   5.595   5.034  11.798 -0.1185 -0.6769  0.6755
19081SOL     OW63847   7.608   7.742  10.288 -0.0672  0.0992  1.0850
19081SOL    HW163848   7.567   7.720  10.372  0.5239 -0.5382  1.2161
19081SOL    HW263849   7.697   7.708  10.295 -0.1883 -0.4957 -0.0220
19082SOL     OW63850   4.142   4.708   2.748  0.4916  0.2335 -0.0573
19082SOL    HW163851   4.215   4.684   2.805  0.1593  0.0128  0.2800
19082SOL    HW263852   4.097   4.778   2.795  0.5651  0.4640 -0.3292
19083SOL     OW63853   5.880   2.760   9.822  0.3541 -0.2043 -0.0653
19083SOL    HW163854   5.945   2.693   9.801  1.6494  1.4890 -1.8875
19083SOL    HW263855   5.932   2.836   9.850 -0.9065  0.8582 -0.4850
19084SOL     OW63856   4.367   1.919   6.739 -0.9357 -0.0313  0.1735
19084SOL    HW163857   4.399   1.864   6.668  1.0338 -0.1932  1.1082
19084SOL    HW263858   4.272   1.911   6.735 -0.8163 -0.9983 -1.6569
19085SOL     OW63859  12.037   9.452   4.110  0.1170  0.0034  0.0708
19085SOL    HW163860  12.046   9.369   4.063 -1.5882 -0.5330  0.6260
19085SOL    HW263861  11.974   9.502   4.059  0.9685  0.9058 -0.1350
19086SOL     OW63862   3.740   6.678  11.959  0.6093  0.1598  0.4569
19086SOL    HW163863   3.689   6.702  11.882  1.3371 -0.4439 -0.2286
19086SOL    HW263864   3.829   6.705  11.938  1.0402 -1.1156  0.5624
19087SOL     OW63865   6.525  11.108   2.490 -0.2813  0.1725  0.4743
19087SOL    HW163866   6.477  11.026   2.475  1.4711 -0.6862 -0.8428
19087SOL    HW263867   6.553  11.103   2.581  1.2347 -1.5675 -0.0175
19088SOL     OW63868  11.743   7.410  11.046  0.3925 -0.0784  0.6834
19088SOL    HW163869  11.702   7.356  11.113  1.1038 -1.3961  0.0983
19088SOL    HW263870  11.679   7.413  10.975  0.3593 -0.1751  0.7089
19089SOL     OW63871   3.833   6.752   8.300  0.0847  0.1875 -0.1504
19089SOL    HW163872   3.872   6.800   8.373  0.6642 -1.2374  0.5274
19089SOL    HW263873   3.907   6.707   8.259 -0.4945 -0.5382 -0.4291
19090SOL     OW63874   7.915   2.171   7.154 -0.1220  0.0138 -0.0520
19090SOL    HW163875   7.949   2.256   7.126  0.8656 -0.7814 -1.3498
19090SOL    HW263876   7.973   2.107   7.115 -1.4966 -1.3253 -0.0161
19091SOL     OW63877   2.455   0.935   1.647  0.1884  0.3632 -0.0780
19091SOL    HW163878   2.486   0.995   1.715  2.4003  0.1236 -0.7921
19091SOL    HW263879   2.389   0.984   1.599 -0.3100  1.0759  1.2806
19092SOL     OW63880   2.090   4.657   7.411  0.9954 -0.8357 -0.3094
19092SOL    HW163881   2.053   4.569   7.416  1.4230 -0.9781  0.4433
19092SOL    HW263882   2.073   4.696   7.497  0.3233  0.0251 -0.8076
19093SOL     OW63883  11.255   4.427   3.050  0.3671 -0.0844  0.1344
19093SOL    HW163884  11.318   4.497   3.068  0.6252 -0.2206 -0.2171
19093SOL    HW263885  11.308   4.348   3.046  0.0111 -0.3732  1.0102
19094SOL     OW63886   9.831   7.890   2.567  0.2696  0.4042 -0.5512
19094SOL    HW163887   9.922   7.889   2.596 -0.6362  0.1532  2.6015
19094SOL    HW263888   9.817   7.802   2.531  0.7819 -0.2257  0.7302
19095SOL     OW63889  10.653   8.857   2.884 -0.3353  0.2280  0.1627
19095SOL    HW163890  10.574   8.866   2.937 -1.0883 -2.5106 -0.3505
19095SOL    HW263891  10.703   8.787   2.927 -0.3139 -1.1012 -1.8958
19096SOL     OW63892  10.810   6.494   4.818  0.2470 -0.5393 -0.0120
19096SOL    HW163893  10.815   6.491   4.722 -0.8021 -2.3514 -0.0666
19096SOL    HW263894  10.747   6.425   4.840 -0.9552  1.0778  1.9029
19097SOL     OW63895   2.502  10.764   6.385 -0.0318  0.5027 -0.1460
19097SOL    HW163896   2.515  10.681   6.431 -1.5399  0.3291  0.0216
19097SOL    HW263897   2.447  10.816   6.445 -1.2860  0.6039 -1.3363
19098SOL     OW63898   5.316   4.684  10.997 -0.1292  0.7179  0.3863
19098SOL    HW163899   5.263   4.672  11.076 -1.9987 -1.1753 -1.0342
19098SOL    HW263900   5.352   4.598  10.978  1.2373  1.3975 -0.2240
19099SOL     OW63901   2.394  12.418   5.596  0.1581  0.2743 -0.1256
19099SOL    HW163902   2.378  12.377   5.512  0.8213  0.4765 -0.3609
19099SOL    HW263903   2.401  12.345   5.658 -0.1280  0.1146 -0.2820
19100SOL     OW63904   6.953   7.865   0.318  0.5655 -0.1642  0.6721
19100SOL    HW163905   6.934   7.883   0.411 -1.5024  1.0860  0.0741
19100SOL    HW263906   7.017   7.932   0.293  0.7377 -0.1833  1.0507
19101SOL     OW63907   5.462   2.679   9.587  0.5928  0.0396  0.2651
19101SOL    HW163908   5.516   2.739   9.638  0.7256  1.5944 -1.5707
19101SOL    HW263909   5.522   2.643   9.521  0.4924 -2.1035  1.2766
19102SOL     OW63910   4.428   8.495   2.392  0.2345  0.1142  0.0051
19102SOL    HW163911   4.370   8.555   2.441  2.3214  1.0215  1.4984
19102SOL    HW263912   4.409   8.409   2.428 -0.9206  0.2296 -0.2833
19103SOL     OW63913  10.179  12.560   9.906 -0.1273  0.5822 -0.7071
19103SOL    HW163914  10.142  12.632   9.855 -0.7484  1.5582  1.0446
19103SOL    HW263915  10.124  12.555   9.984 -0.0768 -1.8017 -0.7610
19104SOL     OW63916  11.951  11.905   1.895 -0.5682  0.1998  0.0336
19104SOL    HW163917  11.863  11.906   1.857 -1.0348 -1.5761  0.9343
19104SOL    HW263918  11.940  11.859   1.979  1.0274  0.9429  0.6836
19105SOL     OW63919  10.958   0.948   5.072  0.0684  0.4692  0.1038
19105SOL    HW163920  10.982   0.901   5.152  0.2486 -0.6779 -0.6124
19105SOL    HW263921  11.003   1.032   5.080  1.2894 -0.1982  0.5356
19106SOL     OW63922   0.110   2.686   9.128  0.6275 -0.3420  0.3487
19106SOL    HW163923   0.089   2.754   9.064 -0.9537 -1.4317 -0.3689
19106SOL    HW263924   0.060   2.712   9.206 -0.7201 -1.1134 -0.2238
19107SOL     OW63925   4.694   8.372  12.678 -0.1056 -0.2364 -0.1636
19107SOL    HW163926   4.661   8.420  12.754  2.4500 -0.3510  1.1221
19107SOL    HW263927   4.763   8.428  12.643 -1.4702  0.0003 -2.7391
19108SOL     OW63928   3.601   2.199  11.545 -0.1415  0.1493  0.4542
19108SOL    HW163929   3.650   2.123  11.512  1.0383  1.5170 -1.1131
19108SOL    HW263930   3.509   2.172  11.541  0.2998 -1.5130  0.8595
19109SOL     OW63931   8.127   7.376  11.238 -0.2109  0.0713  0.4657
19109SOL    HW163932   8.173   7.343  11.316 -0.3222  0.7466  0.8171
19109SOL    HW263933   8.196   7.386  11.173  0.4102  2.3432  1.3862
19110SOL     OW63934   7.798   6.111   8.749 -0.6644 -0.1948  0.0505
19110SOL    HW163935   7.713   6.140   8.715 -0.2111 -0.3674 -1.3290
19110SOL    HW263936   7.804   6.020   8.720  1.5116  0.8096 -3.1842
19111SOL     OW63937   5.638  11.238  10.545 -0.2245  0.6041 -0.5418
19111SOL    HW163938   5.676  11.248  10.631 -0.8302  1.0011 -0.3164
19111SOL    HW263939   5.577  11.165  10.554  1.1238 -0.6546 -1.1336
19112SOL     OW63940   0.473  11.380   1.731  0.2202  0.1643 -0.1462
19112SOL    HW163941   0.507  11.316   1.793 -0.8451  0.7865  1.1471
19112SOL    HW263942   0.417  11.330   1.672  0.6559 -0.3260 -0.1519
19113SOL     OW63943   8.600   4.445  12.735  0.1923  0.3410 -0.2964
19113SOL    HW163944   8.598   4.511  12.665  0.9364 -1.0874 -1.7257
19113SOL    HW263945   8.508   4.432  12.758 -0.0090  1.3746 -0.4727
19114SOL     OW63946  12.552   9.023   5.050 -0.2391 -0.0082 -0.2438
19114SOL    HW163947  12.628   9.081   5.045  0.4308 -0.4139  2.9760
19114SOL    HW263948  12.479   9.077   5.018  0.8283  1.5859 -0.1297
19115SOL     OW63949   2.477   6.233   4.766  0.4220 -0.5763 -0.6535
19115SOL    HW163950   2.460   6.287   4.844  0.7095 -1.3133 -0.0648
19115SOL    HW263951   2.401   6.175   4.760  1.0247 -1.4510 -0.1055
19116SOL     OW63952   5.689  10.159   5.414  0.0083  0.1401 -0.4473
19116SOL    HW163953   5.618  10.105   5.449  0.6745 -1.1692 -1.0592
19116SOL    HW263954   5.700  10.229   5.479  1.7791 -2.6409  2.5235
19117SOL     OW63955   5.910   7.057   8.310 -0.1094  0.2412  0.3831
19117SOL    HW163956   5.838   7.014   8.264 -0.0298 -1.4486  1.7640
19117SOL    HW263957   5.906   7.148   8.280 -2.2612 -0.0005 -0.2294
19118SOL     OW63958   0.696   1.409   8.590 -0.0607  0.2667  0.4208
19118SOL    HW163959   0.709   1.486   8.645  2.4494  0.7094 -0.6858
19118SOL    HW263960   0.781   1.365   8.589 -0.0039  0.1994 -2.9186
19119SOL     OW63961   4.190   5.225   9.379 -0.4033 -0.7168  0.0402
19119SOL    HW163962   4.162   5.148   9.329  0.0648 -2.3281  2.1023
19119SOL    HW263963   4.256   5.191   9.440  0.6019  1.5526  0.3201
19120SOL     OW63964  10.883   0.422  11.052  0.4417 -0.1935  0.1040
19120SOL    HW163965  10.977   0.410  11.061  0.2753 -1.9480 -0.1805
19120SOL    HW263966  10.853   0.344  11.005 -1.4017 -0.6725  1.9038
19121SOL     OW63967   9.773  11.014   3.227  0.1585  0.6254 -0.7079
19121SOL    HW163968   9.708  11.078   3.256 -1.1650 -0.1023 -1.9556
19121SOL    HW263969   9.759  10.938   3.282 -0.3657  0.3052 -1.2764
19122SOL     OW63970  11.338   8.615   5.573 -0.6428  0.6876  0.1830
19122SOL    HW163971  11.359   8.581   5.486  1.5009  1.1158  0.4727
19122SOL    HW263972  11.356   8.709   5.567 -0.4459  0.7196  1.0908
19123SOL     OW63973  12.300   9.078   2.845 -0.3882  0.4330  0.8354
19123SOL    HW163974  12.293   9.124   2.928  1.8648 -0.1111  1.3931
19123SOL    HW263975  12.390   9.092   2.817 -0.6274 -0.7752 -0.6998
19124SOL     OW63976  11.861   4.414  12.735  0.3888  0.1392 -0.0480
19124SOL    HW163977  11.899   4.431  12.821 -1.1072 -0.0883  0.6810
19124SOL    HW263978  11.922   4.455  12.674  1.2467  0.6977  1.1458
19125SOL     OW63979   0.300  12.683   0.602  0.2062 -0.3131 -0.4401
19125SOL    HW163980   0.206  12.673   0.613  0.1108 -1.1185 -1.6841
19125SOL    HW263981   0.336  12.596   0.620  0.5053 -0.4473 -1.5760
19126SOL     OW63982   6.255   2.824   9.122  0.4530  0.0313  0.1977
19126SOL    HW163983   6.304   2.894   9.077  1.1161 -0.6510 -0.1624
19126SOL    HW263984   6.264   2.748   9.065  0.0065 -0.4427  0.7472
19127SOL     OW63985   3.033  10.944   7.107  0.0731  0.0158  0.8670
19127SOL    HW163986   2.975  10.982   7.174  0.5065  0.7833  0.8052
19127SOL    HW263987   3.009  10.851   7.106 -0.8703  0.2462  1.1390
19128SOL     OW63988   0.028  11.523  12.551  0.6462  0.2128 -0.8965
19128SOL    HW163989  -0.026  11.514  12.629  2.0895 -1.1870  0.0106
19128SOL    HW263990   0.037  11.618  12.539  0.4636  0.4561  0.6994
19129SOL     OW63991   9.296  11.130   5.662  0.6077  0.3612 -0.3894
19129SOL    HW163992   9.389  11.153   5.652  0.0285  2.7282 -1.0006
19129SOL    HW263993   9.292  11.038   5.638  2.7721  0.2372 -0.5384
19130SOL     OW63994   2.726   0.999   2.440  0.0823 -0.5965 -0.2628
19130SOL    HW163995   2.728   0.968   2.349 -1.0253 -0.6416 -0.2874
19130SOL    HW263996   2.818   1.007   2.464  0.5353  2.4968 -2.4322
19131SOL     OW63997   5.255   0.528  10.249  0.3705 -0.0509  0.2929
19131SOL    HW163998   5.159   0.532  10.246  0.3445 -0.6631  0.2067
19131SOL    HW263999   5.274   0.467  10.321  0.6321 -1.7927 -1.1703
19132SOL     OW64000   5.661   1.612   0.170 -0.1897  0.3360 -0.2967
19132SOL    HW164001   5.584   1.642   0.121 -0.2987 -0.9248 -0.9414
19132SOL    HW264002   5.651   1.517   0.173  1.4105  0.1427 -0.4817
19133SOL     OW64003   2.740   9.147   0.153 -0.3906  0.0114  0.1590
19133SOL    HW164004   2.682   9.173   0.082  0.8855 -0.2367 -1.0082
19133SOL    HW264005   2.800   9.084   0.114  1.5402  1.2656  0.9536
19134SOL     OW64006  12.766   1.152  12.761  0.0297  0.1927 -0.4154
19134SOL    HW164007  12.762   1.202  12.679  0.3571  1.0395  0.0783
19134SOL    HW264008  12.784   1.217  12.828 -1.2183 -0.3500  0.4843
19135SOL     OW64009   9.816   2.044  10.081 -0.7353 -0.4153 -0.1057
19135SOL    HW164010   9.907   2.040  10.108 -1.5073 -0.1830  2.8602
19135SOL    HW264011   9.796   1.956  10.048  0.4896 -0.4831 -0.7299
19136SOL     OW64012   8.880   2.712   4.752 -0.2539  0.0366  0.0664
19136SOL    HW164013   8.961   2.672   4.724  0.1925  0.5116  0.6413
19136SOL    HW264014   8.818   2.695   4.681  0.8909  1.4271 -1.3370
19137SOL     OW64015   8.655   2.181   5.047 -0.0929  0.0727 -0.2065
19137SOL    HW164016   8.707   2.229   4.983  0.8703 -1.0510 -0.2854
19137SOL    HW264017   8.598   2.125   4.994  0.2959 -0.4315 -0.0994
19138SOL     OW64018   3.501   8.854   5.016 -0.2621 -0.1676  0.3832
19138SOL    HW164019   3.537   8.920   4.958 -3.6016  0.8572 -0.7632
19138SOL    HW264020   3.471   8.903   5.093 -0.1658 -0.7798  0.8170
19139SOL     OW64021   3.613   4.857   3.033 -0.1407 -0.1099 -0.3146
19139SOL    HW164022   3.540   4.796   3.030 -0.5330  0.3204  0.1521
19139SOL    HW264023   3.654   4.841   3.118  0.1787 -0.2115 -0.4910
19140SOL     OW64024   5.050   9.001   9.219  0.5967  0.7030 -0.1939
19140SOL    HW164025   5.040   9.056   9.142 -0.6843  1.4103  0.4528
19140SOL    HW264026   5.083   9.059   9.287  0.8629  0.2895  0.0365
19141SOL     OW64027   2.734  10.597   1.392 -0.0313  0.2208 -0.5021
19141SOL    HW164028   2.785  10.521   1.419  1.2891  1.6556  1.2403
19141SOL    HW264029   2.675  10.563   1.324  2.4868 -1.7377 -1.9025
19142SOL     OW64030   2.659   6.858   7.622 -0.6298 -0.0536 -0.0436
19142SOL    HW164031   2.700   6.879   7.537  1.3669  0.6127  1.0265
19142SOL    HW264032   2.642   6.944   7.661  0.2636 -0.3388  1.0214
19143SOL     OW64033  10.887  11.821   1.645  0.1859 -0.2654 -0.3759
19143SOL    HW164034  10.895  11.910   1.610 -0.0620 -0.2516 -0.3994
19143SOL    HW264035  10.793  11.804   1.646  0.2505 -0.6779 -0.7517
19144SOL     OW64036  10.138  10.980  11.438 -0.0967 -0.4371 -0.9439
19144SOL    HW164037  10.110  11.070  11.452 -0.3487 -0.5435 -0.7439
19144SOL    HW264038  10.230  10.979  11.465 -0.0592 -0.2137 -1.0610
19145SOL     OW64039   4.227   3.638  11.412 -0.2630 -0.4455  0.0768
19145SOL    HW164040   4.292   3.589  11.362  1.0496  0.7450  0.5568
19145SOL    HW264041   4.187   3.697  11.349  0.6399  0.3045  0.1848
19146SOL     OW64042   5.458   9.746   4.682 -0.2257 -0.1039  0.2940
19146SOL    HW164043   5.472   9.724   4.774  1.1341 -2.0588 -0.3180
19146SOL    HW264044   5.536   9.796   4.657 -0.5906  0.4210  0.1908
19147SOL     OW64045   7.194   0.810  10.357  0.3911  0.4582  0.4189
19147SOL    HW164046   7.147   0.801  10.274 -1.2570 -2.1253  1.4835
19147SOL    HW264047   7.248   0.888  10.346 -1.6643  1.6793 -2.1275
19148SOL     OW64048  11.819  11.843   8.643 -0.2015 -0.0956 -0.2537
19148SOL    HW164049  11.911  11.861   8.621 -0.2530 -1.2996 -1.6086
19148SOL    HW264050  11.770  11.873   8.566 -0.7501 -1.1889 -0.3438
19149SOL     OW64051   5.739   3.984   6.986  0.1397  0.4870 -0.1249
19149SOL    HW164052   5.689   3.904   6.974  1.2285 -0.5091  1.6195
19149SOL    HW264053   5.753   3.991   7.081  2.0205  1.5025 -0.4132
19150SOL     OW64054   9.206   5.395   6.960  0.0752 -0.6000  0.5683
19150SOL    HW164055   9.232   5.357   7.044  0.1590  1.5153  1.5466
19150SOL    HW264056   9.286   5.436   6.926  0.0046 -1.2919 -0.4941
19151SOL     OW64057   0.746   5.792   5.953 -0.0861  0.3772  0.1288
19151SOL    HW164058   0.830   5.814   5.913 -0.4878  1.6065 -0.1026
19151SOL    HW264059   0.764   5.790   6.047  0.2172  0.6094  0.0774
19152SOL     OW64060   2.176  10.414   7.332 -1.1016  0.0787 -0.0117
19152SOL    HW164061   2.168  10.504   7.363  1.0847  0.5288 -0.6234
19152SOL    HW264062   2.120  10.364   7.392 -1.7755  1.7187  0.8008
19153SOL     OW64063   4.316   6.445   0.222 -1.0727 -0.0304  0.7972
19153SOL    HW164064   4.334   6.448   0.316 -3.3249  0.5620  1.2636
19153SOL    HW264065   4.382   6.502   0.183 -1.0032  0.8747  2.1851
19154SOL     OW64066   0.325   8.786   2.070 -0.2967  0.4052 -0.2447
19154SOL    HW164067   0.269   8.716   2.037 -1.5133  0.9862  0.5101
19154SOL    HW264068   0.400   8.740   2.110 -1.4047 -0.5245  0.8445
19155SOL     OW64069   0.334   1.852   8.509  0.5802 -0.7449  0.2714
19155SOL    HW164070   0.305   1.929   8.559  0.2136 -1.1590  0.7051
19155SOL    HW264071   0.428   1.848   8.525  0.8315  0.3735 -0.8200
19156SOL     OW64072  12.329   1.339   8.850 -0.8164  0.4269  0.7350
19156SOL    HW164073  12.293   1.252   8.833 -1.4676  0.5432  1.4266
19156SOL    HW264074  12.369   1.332   8.936  1.0198  0.2618 -0.1007
19157SOL     OW64075   0.775   3.265   1.414 -0.1861  0.4887  0.0507
19157SOL    HW164076   0.776   3.347   1.463  0.4156 -0.9134  2.5514
19157SOL    HW264077   0.682   3.242   1.407 -0.2709  0.5141  0.9420
19158SOL     OW64078   0.503   2.325   4.891  0.4661 -0.2854  0.3345
19158SOL    HW164079   0.532   2.249   4.941  0.5359 -0.2760  0.3072
19158SOL    HW264080   0.542   2.314   4.805 -1.3664 -1.4389 -0.4306
19159SOL     OW64081   3.705   5.491  12.449 -0.0158  0.0573  0.1974
19159SOL    HW164082   3.776   5.499  12.385 -0.5375  0.3704 -0.3479
19159SOL    HW264083   3.742   5.527  12.530  0.4691  0.1592 -0.0659
19160SOL     OW64084   8.059  10.309   0.354 -0.4949  0.3081  0.4800
19160SOL    HW164085   8.144  10.348   0.374  0.1012 -0.5841 -0.2032
19160SOL    HW264086   8.003  10.383   0.330  0.5480  0.7704 -0.6090
19161SOL     OW64087  12.513  11.352  12.183  0.3731  0.0210 -0.0674
19161SOL    HW164088  12.579  11.309  12.237  0.8391 -0.1039 -0.7130
19161SOL    HW264089  12.563  11.416  12.131 -0.1504  0.5659  0.0971
19162SOL     OW64090   9.317   5.242   7.163 -0.4229  0.4184 -0.6280
19162SOL    HW164091   9.364   5.175   7.213 -1.6621 -1.3809 -1.7420
19162SOL    HW264092   9.286   5.304   7.229  0.2610 -0.4321  0.5307
19163SOL     OW64093   2.418   6.862  11.967  0.6416  0.1179  0.1172
19163SOL    HW164094   2.341   6.911  11.996  0.9021  0.6853 -0.1304
19163SOL    HW264095   2.431   6.889  11.876  2.6134  2.0143  0.8602
19164SOL     OW64096   4.129   9.588   3.652 -0.3203  0.1393  0.2417
19164SOL    HW164097   4.046   9.625   3.620  0.5836  0.0114 -2.5265
19164SOL    HW264098   4.145   9.512   3.596  1.4254 -0.1499  1.0549
19165SOL     OW64099   0.869   7.832  10.561  0.3725 -0.5334  0.1720
19165SOL    HW164100   0.793   7.782  10.533  1.0596 -1.7317  0.4013
19165SOL    HW264101   0.838   7.884  10.636  0.0386 -1.7880  0.9274
19166SOL     OW64102   0.202   2.851   8.001 -0.3359  0.1013 -0.0925
19166SOL    HW164103   0.226   2.927   7.948  1.3350  0.6070  1.2717
19166SOL    HW264104   0.178   2.784   7.937  2.0414  0.5198 -1.5635
19167SOL     OW64105   8.686  10.084  10.676 -0.0276  0.1978  0.0258
19167SOL    HW164106   8.598  10.061  10.645 -0.8107  1.9523  0.7609
19167SOL    HW264107   8.745  10.032  10.622 -1.5147 -1.4254 -0.1466
19168SOL     OW64108   9.679   2.329   0.616 -0.2039 -0.2131  0.1627
19168SOL    HW164109   9.709   2.238   0.622 -1.8302 -1.2234 -3.7448
19168SOL    HW264110   9.591   2.322   0.577 -1.5157  2.9825  2.1876
19169SOL     OW64111   9.116   5.252  12.561 -0.3587 -0.1467 -0.2309
19169SOL    HW164112   9.060   5.181  12.532 -2.5923  1.4131 -0.0139
19169SOL    HW264113   9.063   5.331  12.550  1.0956  1.2365  1.7998
19170SOL     OW64114   4.445   4.959   2.755 -0.0538 -0.0307  0.8921
19170SOL    HW164115   4.419   5.050   2.746 -0.7143 -0.0477  2.3818
19170SOL    HW264116   4.371   4.917   2.797 -0.2147 -1.5194 -0.7420
19171SOL     OW64117   6.479   9.866   9.542 -0.1197 -0.2988  0.2745
19171SOL    HW164118   6.538   9.937   9.515 -0.8732  0.3535  0.3091
19171SOL    HW264119   6.536   9.789   9.549  0.8907  0.4977  1.1781
19172SOL     OW64120  11.586  11.868   6.561  0.5081 -0.1916 -0.3659
19172SOL    HW164121  11.510  11.842   6.612  0.3562  0.3703 -0.3022
19172SOL    HW264122  11.649  11.796   6.574 -0.3264 -1.0872 -1.1284
19173SOL     OW64123   8.188   9.610   3.515 -0.2722 -0.3860 -0.6132
19173SOL    HW164124   8.132   9.545   3.558 -1.3218  0.6810 -0.2942
19173SOL    HW264125   8.146   9.624   3.430 -0.0835 -0.0768 -0.6542
19174SOL     OW64126   1.384   3.538   8.096 -0.1222  0.2510 -0.8230
19174SOL    HW164127   1.369   3.632   8.090  1.0760  0.4581 -0.8100
19174SOL    HW264128   1.450   3.520   8.029 -1.6320 -0.9005 -2.0750
19175SOL     OW64129  10.848   4.953   0.458  0.0985  0.0328 -0.0922
19175SOL    HW164130  10.785   4.990   0.397  0.4920  0.2395 -0.3749
19175SOL    HW264131  10.923   4.928   0.403 -0.0969 -1.0564  0.0999
19176SOL     OW64132  10.753   1.170  12.543  0.0712  0.4945  0.4594
19176SOL    HW164133  10.711   1.175  12.457  0.6993  1.2913  0.1880
19176SOL    HW264134  10.682   1.152  12.604 -0.2824 -0.9291 -0.3151
19177SOL     OW64135   4.052   5.242  10.810  0.0059  0.1505  0.3709
19177SOL    HW164136   4.016   5.238  10.898  0.7643  1.3140  0.7617
19177SOL    HW264137   4.128   5.300  10.818  0.6362 -0.4760 -0.8629
19178SOL     OW64138   9.531   8.117   8.624  0.1590  0.9644  0.0238
19178SOL    HW164139   9.529   8.212   8.615 -1.6561  1.1455  1.7628
19178SOL    HW264140   9.452   8.086   8.580 -0.6831  0.5532  1.7214
19179SOL     OW64141   3.126   9.680   6.328 -0.0304  0.2043  0.2509
19179SOL    HW164142   3.123   9.773   6.306  0.6589  0.5886  1.6669
19179SOL    HW264143   3.187   9.675   6.402 -1.1602 -1.1763  1.1297
19180SOL     OW64144   7.652  10.877  11.418 -0.0507 -0.6059 -0.5225
19180SOL    HW164145   7.598  10.924  11.354 -0.3573  1.5848  1.2094
19180SOL    HW264146   7.590  10.822  11.466 -0.1816 -0.6045 -0.6899
19181SOL     OW64147  11.737   8.649  10.616 -0.3533 -0.0348  0.5535
19181SOL    HW164148  11.781   8.729  10.646 -0.5506  0.4008 -0.3077
19181SOL    HW264149  11.809   8.591  10.590 -0.2491  0.2548  0.1934
19182SOL     OW64150   9.751   6.248  11.623 -0.3774  0.9168  0.5788
19182SOL    HW164151   9.719   6.158  11.637 -2.6271  1.2816 -1.4766
19182SOL    HW264152   9.823   6.238  11.561  0.0673  0.4742  1.1532
19183SOL     OW64153   3.264   7.808  11.217  0.3600  0.3162  0.1715
19183SOL    HW164154   3.235   7.774  11.302  0.2679  0.8841  0.3684
19183SOL    HW264155   3.289   7.899  11.235  0.2886  0.4522 -0.4188
19184SOL     OW64156   3.462   8.902   5.934 -0.1227  0.9175  0.1446
19184SOL    HW164157   3.432   8.813   5.917  2.6123 -0.0958  0.1489
19184SOL    HW264158   3.382   8.953   5.944 -1.7790 -1.6525  0.8000
19185SOL     OW64159   7.435   1.515   3.153  0.3879  0.9631 -0.1383
19185SOL    HW164160   7.441   1.572   3.076  2.7233 -0.1475 -0.8736
19185SOL    HW264161   7.352   1.469   3.143 -1.4161  3.8653  0.2920
19186SOL     OW64162   9.290   9.010   0.341 -0.2348 -0.2994  0.2655
19186SOL    HW164163   9.378   9.003   0.378 -0.0487  1.0437  0.1350
19186SOL    HW264164   9.260   8.919   0.333  1.6784 -0.8982 -0.9626
19187SOL     OW64165   5.868   5.107   0.760  0.2965 -0.1894  0.2924
19187SOL    HW164166   5.911   5.141   0.839  0.7007 -0.5197  0.2161
19187SOL    HW264167   5.907   5.157   0.688  1.4201 -1.2924  0.1080
19188SOL     OW64168   8.470   4.365  10.190 -0.3826  0.4603 -0.5036
19188SOL    HW164169   8.383   4.333  10.168 -0.0946 -0.2425 -0.6338
19188SOL    HW264170   8.501   4.407  10.109 -1.1693  2.0271 -0.0285
19189SOL     OW64171   5.834   9.463   0.809 -0.5170 -0.3170 -0.4939
19189SOL    HW164172   5.841   9.470   0.714  1.5395 -2.1433 -0.5319
19189SOL    HW264173   5.809   9.372   0.825  0.4888 -0.4020  0.7334
19190SOL     OW64174  12.442   8.800   8.237 -0.1376  0.1307  0.1241
19190SOL    HW164175  12.478   8.764   8.319 -1.2967  1.4163  1.2475
19190SOL    HW264176  12.347   8.791   8.247 -0.3207  0.9459 -0.7761
19191SOL     OW64177   5.047   3.415   3.170  0.1928  1.1124  0.0043
19191SOL    HW164178   4.991   3.464   3.230 -0.9263  0.2679 -0.3229
19191SOL    HW264179   5.133   3.415   3.212 -0.4210  1.0637  1.3081
19192SOL     OW64180  10.649   1.954   8.981  0.4743  0.8767  0.5090
19192SOL    HW164181  10.673   1.943   9.073  1.1154  0.7653  0.3381
19192SOL    HW264182  10.556   1.975   8.982  0.0745 -0.8391  1.0639
19193SOL     OW64183   6.637   0.058  11.746 -0.2703 -0.2554  0.0702
19193SOL    HW164184   6.630  -0.006  11.674 -0.3162 -0.3568  0.1640
19193SOL    HW264185   6.664   0.005  11.821 -3.4201 -0.7783  0.9846
19194SOL     OW64186   3.479   1.500   2.049 -0.0557  0.5691 -0.0644
19194SOL    HW164187   3.427   1.428   2.013 -1.9238  2.3970 -1.3047
19194SOL    HW264188   3.475   1.488   2.144 -0.6242 -0.7484 -0.2316
19195SOL     OW64189   3.724   4.958   7.796  0.1534  0.1429 -0.1346
19195SOL    HW164190   3.805   4.939   7.843  0.7244 -0.2190 -1.2470
19195SOL    HW264191   3.724   5.054   7.787  0.5265  0.1310 -0.2711
19196SOL     OW64192   4.264   2.671   6.768 -0.3301 -0.3989  0.1460
19196SOL    HW164193   4.318   2.674   6.690  0.3793 -1.3942  0.5857
19196SOL    HW264194   4.212   2.592   6.759  0.8841 -1.3939  1.3765
19197SOL     OW64195   6.926   0.022   3.838  0.3232 -0.5008  0.0439
19197SOL    HW164196   6.868   0.088   3.801 -1.4951 -0.8012  2.0822
19197SOL    HW264197   6.973   0.067   3.908  0.3597 -0.9523  0.3184
19198SOL     OW64198   7.449   4.043   2.590 -0.7646 -0.0712  0.5778
19198SOL    HW164199   7.516   4.106   2.615  0.8663 -0.8957 -1.4337
19198SOL    HW264200   7.433   3.992   2.670  1.6351 -0.3958  0.9125
19199SOL     OW64201   8.140   8.240   6.903 -0.0607 -0.6833  0.2908
19199SOL    HW164202   8.140   8.325   6.858  2.2880 -0.5014  0.5061
19199SOL    HW264203   8.182   8.181   6.841 -1.5195 -1.6651  0.2185
19200SOL     OW64204  11.572  12.145   6.939  0.7869 -0.2968 -0.1476
19200SOL    HW164205  11.568  12.161   6.845  1.5375  0.7550 -0.0243
19200SOL    HW264206  11.502  12.199   6.976  1.4513  0.4872  0.0108
19201SOL     OW64207   7.780   3.687  12.525 -0.0077 -0.0952 -0.3929
19201SOL    HW164208   7.775   3.781  12.511  0.1269 -0.3956 -2.9308
19201SOL    HW264209   7.854   3.675  12.584 -0.1718  1.3750  0.1614
19202SOL     OW64210  11.457   2.344   5.403  0.5154  0.8651  0.0977
19202SOL    HW164211  11.540   2.314   5.366 -0.4851  0.5193 -2.0156
19202SOL    HW264212  11.426   2.270   5.455 -0.0819 -0.4383 -1.9686
19203SOL     OW64213  12.676   4.785   8.013 -0.2126 -0.2912  0.3306
19203SOL    HW164214  12.757   4.832   8.034 -1.7652  2.2356  1.0615
19203SOL    HW264215  12.607   4.852   8.018 -2.4983 -2.5288  0.7156
19204SOL     OW64216   2.759   8.935  10.413 -0.0162  0.4548 -0.1376
19204SOL    HW164217   2.745   9.030  10.419  0.8711  0.5611  0.6426
19204SOL    HW264218   2.672   8.899  10.397 -0.3832  1.3979 -0.3640
19205SOL     OW64219  10.665   9.457  10.019 -0.0723  0.2577  0.3173
19205SOL    HW164220  10.741   9.474  10.075  0.4096  1.0551 -0.5598
19205SOL    HW264221  10.656   9.536   9.966 -1.2481 -0.0065  0.0851
19206SOL     OW64222   8.385  11.762  12.218  0.3444  0.2758  0.6895
19206SOL    HW164223   8.426  11.838  12.176 -1.5285  1.2956  0.6084
19206SOL    HW264224   8.359  11.706  12.145  3.1857 -1.3330  0.7862
19207SOL     OW64225   3.524   8.043   3.261 -0.0769 -0.2010 -0.2396
19207SOL    HW164226   3.471   7.966   3.239  1.0785 -0.5663 -1.9872
19207SOL    HW264227   3.567   8.066   3.179  1.8322  0.5615  0.9080
19208SOL     OW64228  11.082  10.914   5.731 -0.3973  0.8042 -0.5921
19208SOL    HW164229  10.993  10.907   5.763  0.0771 -2.6835  0.3626
19208SOL    HW264230  11.127  10.969   5.795 -0.8892 -1.0528  1.4244
19209SOL     OW64231   8.725   2.940   9.966  0.1444 -0.0448  0.5848
19209SOL    HW164232   8.730   3.024  10.011 -0.3539 -0.3146  1.1523
19209SOL    HW264233   8.737   2.875  10.035  1.0521 -0.4376  0.0706
19210SOL     OW64234   6.158  10.339   0.174 -0.5006  0.1399  0.2555
19210SOL    HW164235   6.136  10.256   0.132 -0.9180 -0.5768  1.8031
19210SOL    HW264236   6.183  10.314   0.263 -1.0139  1.7178  0.8597
19211SOL     OW64237   6.677   1.013  10.509 -0.3168  0.4231  0.5720
19211SOL    HW164238   6.676   0.921  10.534 -2.0433 -0.0514 -1.0108
19211SOL    HW264239   6.753   1.023  10.452  0.0321  0.0718  0.9678
19212SOL     OW64240   7.012   6.182   0.220 -0.7240  0.7215  0.6800
19212SOL    HW164241   6.979   6.100   0.257 -0.6748  0.9576  1.2452
19212SOL    HW264242   6.948   6.205   0.153  1.5155 -2.1995 -2.8684
19213SOL     OW64243   8.924   8.660   4.515 -0.3942 -0.3111  0.7618
19213SOL    HW164244   8.968   8.610   4.446  0.0561  1.5983 -0.4144
19213SOL    HW264245   8.984   8.657   4.589  0.5781  0.1490  0.0218
19214SOL     OW64246   4.636   4.444   6.842  0.4116  0.3687 -0.2038
19214SOL    HW164247   4.708   4.381   6.843  0.7386  0.6663  2.0711
19214SOL    HW264248   4.635   4.480   6.931 -2.3208  0.6448 -0.2587
19215SOL     OW64249   3.674  12.129   8.009 -0.1352  0.2350  0.0139
19215SOL    HW164250   3.641  12.084   7.931  0.6014  0.3649 -0.3850
19215SOL    HW264251   3.755  12.083   8.030 -0.0744  0.5189  0.4063
19216SOL     OW64252   7.390   9.795  10.486  0.0052  0.0020  0.0853
19216SOL    HW164253   7.374   9.740  10.563  2.8032  0.0475  0.8073
19216SOL    HW264254   7.430   9.736  10.422 -0.8759  0.3118 -0.7771
19217SOL     OW64255   2.782   7.869  11.936  0.8962 -0.6606  0.5440
19217SOL    HW164256   2.776   7.774  11.939  1.3532 -0.6666  1.3550
19217SOL    HW264257   2.844   7.887  11.865  1.5319 -0.9983  1.0124
19218SOL     OW64258   1.077   1.266   3.804  0.6065  0.4999  0.0404
19218SOL    HW164259   1.110   1.239   3.890  0.0209 -1.5871 -0.3362
19218SOL    HW264260   0.983   1.277   3.816  0.3026 -1.1178 -0.5809
19219SOL     OW64261   4.034   9.531  12.340 -0.5720 -0.0798 -0.5678
19219SOL    HW164262   4.110   9.548  12.396 -0.8008 -1.8504  0.3595
19219SOL    HW264263   4.072   9.495  12.259 -0.4005 -0.7270 -0.2052
19220SOL     OW64264   9.380   3.166   0.983  0.3863 -0.0560 -0.1047
19220SOL    HW164265   9.437   3.186   0.909  0.6372  0.0282  0.1104
19220SOL    HW264266   9.440   3.154   1.057  0.0186  2.2100  0.6417
19221SOL     OW64267   0.332   1.746   5.469 -0.1601  0.3503  0.1562
19221SOL    HW164268   0.301   1.703   5.549  1.5735 -1.0326  0.1535
19221SOL    HW264269   0.408   1.798   5.498 -0.2944  0.8525 -0.3809
19222SOL     OW64270   8.914   1.805   4.590  0.2660  0.1292  0.1583
19222SOL    HW164271   8.860   1.784   4.513  2.0373 -0.2863 -1.0295
19222SOL    HW264272   8.859   1.863   4.643 -1.6763 -0.9883 -0.5244
19223SOL     OW64273  12.583   2.953   0.742  0.2045  0.4892 -0.0568
19223SOL    HW164274  12.621   3.039   0.723 -1.5370  0.9805 -1.6098
19223SOL    HW264275  12.562   2.917   0.656 -0.3823 -0.8888  0.6414
19224SOL     OW64276   5.065  10.561  12.407 -0.2044  0.0353 -0.0914
19224SOL    HW164277   5.027  10.648  12.419  0.5078  0.1814  1.4880
19224SOL    HW264278   5.143  10.576  12.353 -1.2004  0.0381 -1.5766
19225SOL     OW64279   1.425   1.791   4.497  0.3995  0.0140  0.4060
19225SOL    HW164280   1.420   1.786   4.402  2.5336 -1.3225  0.3080
19225SOL    HW264281   1.466   1.875   4.515  4.0060 -1.4700 -0.1595
19226SOL     OW64282   6.242   2.859   2.099 -0.3478 -0.4894  0.1298
19226SOL    HW164283   6.254   2.811   2.017 -0.8404  2.3204 -1.7033
19226SOL    HW264284   6.173   2.811   2.145 -0.2508 -1.9677 -1.1774
19227SOL     OW64285   3.179   6.396   4.828 -1.0476 -0.2155 -0.0837
19227SOL    HW164286   3.190   6.483   4.790 -1.3354 -0.6748 -1.2375
19227SOL    HW264287   3.104   6.359   4.783 -0.6302 -1.2578  0.0525
19228SOL     OW64288   6.855   2.521   5.354 -0.5885 -0.2027 -0.0820
19228SOL    HW164289   6.922   2.474   5.404  1.0723  2.1501  0.1014
19228SOL    HW264290   6.821   2.457   5.292  1.9937 -1.4926 -0.2833
19229SOL     OW64291   3.615  12.046   4.075 -0.5084 -0.4072  0.2601
19229SOL    HW164292   3.696  12.086   4.107 -0.9109  0.0054  0.7723
19229SOL    HW264293   3.626  11.953   4.093  0.4109 -0.5511 -0.8927
19230SOL     OW64294   5.513   4.980   0.426  0.3638  0.3330 -0.2380
19230SOL    HW164295   5.553   4.967   0.513  1.6195  1.3349 -0.6288
19230SOL    HW264296   5.452   4.907   0.417  1.7656 -1.0254  0.6124
19231SOL     OW64297   3.047  11.308   8.987  0.3265  0.0329  0.1192
19231SOL    HW164298   3.088  11.253   9.053 -0.0511  0.4589  0.7174
19231SOL    HW264299   3.107  11.304   8.912  1.0706  0.0325  0.7036
19232SOL     OW64300  10.107  12.487   5.697  0.0100  0.2153 -0.4397
19232SOL    HW164301  10.138  12.491   5.606 -1.2494 -1.0556 -0.9445
19232SOL    HW264302  10.065  12.402   5.705 -0.6757  0.6652  1.1001
19233SOL     OW64303   6.576   0.867   3.003 -0.0420  0.0643  0.2289
19233SOL    HW164304   6.560   0.778   2.973 -2.7229  0.4364  0.3044
19233SOL    HW264305   6.501   0.888   3.059  0.9217  2.0973  0.8770
19234SOL     OW64306   6.613  10.193   4.722 -0.4122  0.7539 -0.0612
19234SOL    HW164307   6.629  10.170   4.631  0.3460  1.3055 -0.0807
19234SOL    HW264308   6.528  10.237   4.722 -0.4526  0.6746 -0.4813
19235SOL     OW64309   7.820  11.524   3.580 -0.2692  0.0513  0.6611
19235SOL    HW164310   7.836  11.517   3.674  1.3184 -0.8889  0.3498
19235SOL    HW264311   7.884  11.588   3.549 -0.7355  0.2995  0.2005
19236SOL     OW64312   8.328  12.784   5.242  0.0630 -0.5803 -0.2554
19236SOL    HW164313   8.391  12.834   5.293  0.3128 -1.3017  0.1582
19236SOL    HW264314   8.323  12.831   5.158  0.2284  0.1688  0.1418
19237SOL     OW64315  11.522  12.384   1.208 -0.2395 -0.0647  0.4327
19237SOL    HW164316  11.544  12.385   1.115 -0.7910 -1.1382  0.2784
19237SOL    HW264317  11.570  12.459   1.244 -0.2125  0.5145 -0.7469
19238SOL     OW64318   7.906   2.894   1.589 -0.3501 -0.2086 -0.0547
19238SOL    HW164319   8.001   2.905   1.580 -0.2936 -0.4144  0.2592
19238SOL    HW264320   7.892   2.800   1.575 -0.2751 -0.5231  1.7025
19239SOL     OW64321  12.427   0.245   5.834  0.4903  0.8161 -0.8510
19239SOL    HW164322  12.396   0.293   5.758  1.7263  1.6472 -0.8712
19239SOL    HW264323  12.507   0.202   5.804 -0.6458 -1.4109 -0.8596
19240SOL     OW64324   6.888   8.315  10.258  0.2738 -0.2125 -0.7513
19240SOL    HW164325   6.957   8.274  10.206  1.3370  2.6344 -1.7904
19240SOL    HW264326   6.846   8.377  10.198 -1.8351 -0.3883  0.4531
19241SOL     OW64327   3.994   4.154   2.388  0.0094  0.1179  0.3244
19241SOL    HW164328   3.989   4.140   2.482 -0.6345  1.3524  0.4960
19241SOL    HW264329   3.957   4.241   2.375  0.2738  0.0451 -1.0514
19242SOL     OW64330   8.871   5.884  11.324 -0.0888 -0.0450 -0.2149
19242SOL    HW164331   8.821   5.806  11.348 -0.0305 -0.6792 -1.9746
19242SOL    HW264332   8.896   5.923  11.408 -4.6089  1.1208  0.8444
19243SOL     OW64333   4.388   8.360   8.305 -0.0668  0.1207  0.0524
19243SOL    HW164334   4.354   8.270   8.300 -0.0619  0.0886  0.5857
19243SOL    HW264335   4.472   8.351   8.350 -0.2284  0.4391  0.4165
19244SOL     OW64336   9.060  11.853  12.088  0.3040 -0.1856  0.5792
19244SOL    HW164337   9.080  11.810  12.171 -0.4756 -0.1486  0.7974
19244SOL    HW264338   9.131  11.827  12.030 -0.4322 -2.2972  0.5209
19245SOL     OW64339   3.490   9.335   2.138  0.0921 -0.2483 -0.2408
19245SOL    HW164340   3.451   9.394   2.074  0.0725 -0.1968 -0.1824
19245SOL    HW264341   3.430   9.261   2.142  0.5412 -0.6634 -0.9219
19246SOL     OW64342  12.737  11.909   3.464 -0.6669 -0.3000  0.5171
19246SOL    HW164343  12.775  11.844   3.522 -1.0131 -0.4942  0.5258
19246SOL    HW264344  12.644  11.889   3.462 -0.4206 -1.5918 -1.6977
19247SOL     OW64345  10.680  11.629  12.289 -0.1347  0.0897 -0.2753
19247SOL    HW164346  10.617  11.613  12.219 -0.4876  0.5031 -0.0534
19247SOL    HW264347  10.636  11.689  12.348 -0.8817 -2.2644  1.7082
19248SOL     OW64348   4.718  11.696   6.285 -0.2201 -0.2224 -0.0885
19248SOL    HW164349   4.677  11.736   6.362 -0.5933  1.4682 -1.1163
19248SOL    HW264350   4.799  11.745   6.273 -0.5893  0.1274 -1.2662
19249SOL     OW64351   8.222   5.112   3.720 -0.2431 -0.3577 -0.9685
19249SOL    HW164352   8.166   5.058   3.664 -0.4075  1.0761 -2.2608
19249SOL    HW264353   8.192   5.094   3.809 -0.9622 -1.6091 -1.4437
19250SOL     OW64354   3.382   3.444   5.629  0.5141 -0.3039 -0.7373
19250SOL    HW164355   3.322   3.460   5.556 -0.4350 -0.1892  0.0399
19250SOL    HW264356   3.462   3.413   5.588  0.0203 -0.1866 -1.8313
19251SOL     OW64357   2.002   8.100  10.133  0.2102 -1.0691 -0.3727
19251SOL    HW164358   2.001   8.008  10.161  2.4088 -0.8195  0.8026
19251SOL    HW264359   2.082   8.135  10.173 -0.7978  1.4682 -0.4615
19252SOL     OW64360  12.416   7.243   2.666 -0.2810 -0.0231  0.4081
19252SOL    HW164361  12.364   7.176   2.709  1.0956 -0.6153  1.2316
19252SOL    HW264362  12.496   7.198   2.638  0.3026  1.0697  0.2234
19253SOL     OW64363   2.737  10.011   6.468 -0.1840  0.3964  0.8919
19253SOL    HW164364   2.649   9.998   6.503 -1.4504  0.5766 -1.8907
19253SOL    HW264365   2.742  10.104   6.450  0.1066  0.2135 -0.0243
19254SOL     OW64366   0.871  11.823   5.965  0.5813 -0.3225 -0.0113
19254SOL    HW164367   0.823  11.906   5.967  0.3491 -0.4692  0.6769
19254SOL    HW264368   0.816  11.764   5.914  0.3177 -0.3118  0.2605
19255SOL     OW64369   1.204   1.517  11.182  0.2462  0.2692 -0.0115
19255SOL    HW164370   1.244   1.509  11.096  0.5814  3.1489 -0.2152
19255SOL    HW264371   1.110   1.526  11.164  0.0971 -0.9891  0.0812
19256SOL     OW64372   0.784   3.710   5.300 -0.2471  0.0297 -0.2155
19256SOL    HW164373   0.742   3.794   5.315  0.3837  0.4816 -0.8845
19256SOL    HW264374   0.725   3.645   5.339  0.2727  0.9167  2.2555
19257SOL     OW64375   6.332   3.120  12.052  0.2693  0.2816 -0.3001
19257SOL    HW164376   6.368   3.208  12.040 -1.4075  1.0613  0.0742
19257SOL    HW264377   6.309   3.091  11.963 -0.0740  0.6416 -0.3339
19258SOL     OW64378  12.522  11.042  10.453 -0.0038 -0.3348  0.0112
19258SOL    HW164379  12.573  11.074  10.379 -0.3956 -0.2437 -0.2175
19258SOL    HW264380  12.572  10.967  10.486  0.3365 -0.1782 -0.1427
19259SOL     OW64381   4.087   5.029   0.583 -0.2151  0.8604  0.4623
19259SOL    HW164382   4.010   5.080   0.558 -0.9925  1.3271  3.4314
19259SOL    HW264383   4.051   4.948   0.621  0.8410  0.3339  0.3873
19260SOL     OW64384  11.672   8.568  10.879 -0.1862  0.0339  0.6314
19260SOL    HW164385  11.754   8.552  10.926  0.2882 -0.8559 -0.4573
19260SOL    HW264386  11.695   8.556  10.787 -1.7935 -1.4860  0.3834
19261SOL     OW64387   1.649   6.066   9.107  0.6231  0.3895  1.0315
19261SOL    HW164388   1.590   6.133   9.071  0.1816  0.0817  1.1748
19261SOL    HW264389   1.733   6.110   9.114  0.6416  0.5613 -0.0586
19262SOL     OW64390  11.472   8.972   9.459  0.8899 -0.1887  0.1415
19262SOL    HW164391  11.419   8.899   9.491  1.2170  0.1929  1.6629
19262SOL    HW264392  11.474   8.962   9.364  0.2783 -1.7000  0.2720
19263SOL     OW64393   0.374  11.769   5.009 -0.5929 -0.2744 -0.4273
19263SOL    HW164394   0.417  11.822   4.942 -2.1268  0.8832 -0.5550
19263SOL    HW264395   0.324  11.705   4.959 -0.1200 -0.7271 -0.3214
19264SOL     OW64396  12.778   3.145   4.832  0.1129  0.1094  0.0794
19264SOL    HW164397  12.786   3.240   4.829 -0.0915  0.2773  2.8838
19264SOL    HW264398  12.688   3.128   4.802  0.3350  0.7142 -0.9891
19265SOL     OW64399   5.149  11.297   6.836  0.4800  0.3842  0.3134
19265SOL    HW164400   5.198  11.355   6.893 -0.5782  0.6615  0.9794
19265SOL    HW264401   5.064  11.340   6.824  0.2163 -0.2900 -0.4199
19266SOL     OW64402  10.333   7.134   3.574 -0.0649  0.4882  0.3073
19266SOL    HW164403  10.317   7.065   3.639  0.4743 -1.3860 -1.4377
19266SOL    HW264404  10.319   7.091   3.490 -0.6497  2.8140 -0.8577
19267SOL     OW64405   4.363  10.703  12.389  0.0681  0.4286  0.0739
19267SOL    HW164406   4.347  10.621  12.435 -0.5080  0.4570 -0.0609
19267SOL    HW264407   4.435  10.744  12.437  0.9266 -0.5330 -0.3630
19268SOL     OW64408   2.610  10.007   7.437 -0.1159  0.0816 -0.1033
19268SOL    HW164409   2.559   9.960   7.502  0.1777  0.6744  0.5609
19268SOL    HW264410   2.699   9.973   7.445 -0.4439 -1.2777 -1.5674
19269SOL     OW64411  12.766   2.292  11.056  0.7554 -0.0274  0.4140
19269SOL    HW164412  12.799   2.381  11.047 -0.0478  0.4128  1.5542
19269SOL    HW264413  12.745   2.265  10.967  0.6606  1.0594  0.0876
19270SOL     OW64414   2.807  10.585   9.536  0.5073 -0.1952  0.3479
19270SOL    HW164415   2.820  10.599   9.630 -2.7261 -0.6422  0.9816
19270SOL    HW264416   2.800  10.490   9.526 -1.7931 -0.0599  0.1718
19271SOL     OW64417   3.521   6.694   4.766 -0.0859  0.1699 -0.1989
19271SOL    HW164418   3.430   6.667   4.756  0.3445 -2.6320  1.9585
19271SOL    HW264419   3.521   6.750   4.843  0.0067  0.1782 -0.2049
19272SOL     OW64420  10.575   3.082  11.568 -0.0633  0.2007  0.0328
19272SOL    HW164421  10.527   3.080  11.651 -1.4437 -0.3484 -0.7463
19272SOL    HW264422  10.544   3.005  11.521  1.2466  0.1001 -0.7120
19273SOL     OW64423   4.351  10.564   5.186 -0.3998  0.1503  0.6943
19273SOL    HW164424   4.354  10.623   5.111  0.0604 -1.2968 -0.4438
19273SOL    HW264425   4.438  10.570   5.225 -0.5875  0.7685  1.0486
19274SOL     OW64426   9.856  11.738   1.739 -0.1138  0.3677  0.5266
19274SOL    HW164427   9.837  11.806   1.674 -1.1380  0.1465  0.5829
19274SOL    HW264428   9.793  11.753   1.808 -0.2262 -0.5292  0.6291
19275SOL     OW64429  10.262   0.687  10.057 -0.0278 -0.5667  0.0437
19275SOL    HW164430  10.329   0.702  10.124 -0.5027 -1.5274  0.7466
19275SOL    HW264431  10.287   0.604  10.017  0.0928 -0.1373 -0.7969
19276SOL     OW64432   3.450   5.990   2.166  0.0670  0.0611 -0.4686
19276SOL    HW164433   3.378   5.972   2.226  0.3835 -0.8458 -0.3409
19276SOL    HW264434   3.409   6.001   2.080 -0.3898  1.3891 -0.1002
19277SOL     OW64435  11.343   3.251  10.439  0.6200 -0.0106 -0.2745
19277SOL    HW164436  11.378   3.333  10.473  1.2482  0.5431 -2.1280
19277SOL    HW264437  11.283   3.221  10.507  1.6270  1.1094  1.1919
19278SOL     OW64438   1.647   6.172   4.068 -0.2239 -0.1627  0.1462
19278SOL    HW164439   1.589   6.098   4.048 -0.7975  0.0906  0.8096
19278SOL    HW264440   1.595   6.249   4.046 -0.7016  0.1148  2.0585
19279SOL     OW64441   1.207   7.394   8.629  0.2617  0.5182 -0.1762
19279SOL    HW164442   1.180   7.443   8.551  0.5897 -0.3957 -0.8739
19279SOL    HW264443   1.277   7.336   8.598 -1.1409 -1.4999  0.2833
19280SOL     OW64444   4.986   5.495  10.083  0.5121  0.0531 -0.3196
19280SOL    HW164445   4.961   5.511   9.992  0.3649 -1.8438 -0.6483
19280SOL    HW264446   4.948   5.568  10.131  0.1678  0.8276 -1.7030
19281SOL     OW64447   7.908   6.952   3.687  0.4360  0.4495 -0.0653
19281SOL    HW164448   7.921   6.975   3.595  1.0002  0.7588  0.0832
19281SOL    HW264449   7.832   7.003   3.714 -0.0770 -0.0729 -0.5056
19282SOL     OW64450   2.045   0.370   7.384 -0.4783  0.3109 -0.7235
19282SOL    HW164451   2.039   0.355   7.479 -1.0532 -0.6735 -0.8934
19282SOL    HW264452   1.954   0.375   7.355 -0.3159  2.1340 -1.0265
19283SOL     OW64453   7.294   1.107   9.259 -0.5168  0.6133 -0.0122
19283SOL    HW164454   7.367   1.148   9.212 -1.0693  2.0773  0.3493
19283SOL    HW264455   7.238   1.072   9.191 -0.2997  0.9498 -0.3691
19284SOL     OW64456   0.344  10.673  12.632 -0.1481  0.1841 -0.5066
19284SOL    HW164457   0.307  10.758  12.658 -0.6421  0.0930 -0.8989
19284SOL    HW264458   0.434  10.693  12.606  1.2341 -0.0388  3.4317
19285SOL     OW64459   1.075   7.578   1.156 -0.3374  0.1901 -0.1542
19285SOL    HW164460   1.159   7.614   1.127 -1.6227  2.9191 -0.8174
19285SOL    HW264461   1.053   7.629   1.234 -0.3861 -2.0701  1.4281
19286SOL     OW64462   7.538   4.089   0.121  0.0379 -0.0118 -0.1557
19286SOL    HW164463   7.496   4.150   0.182  0.9425  0.1003  0.3721
19286SOL    HW264464   7.544   4.007   0.169  0.1627 -0.1094 -0.3357
19287SOL     OW64465   1.405   8.367   3.784  0.2672 -0.6947 -0.2302
19287SOL    HW164466   1.488   8.410   3.802  1.2528 -2.4515 -0.2800
19287SOL    HW264467   1.387   8.385   3.692 -0.6273  1.5844  0.3281
19288SOL     OW64468   9.852   0.409   5.754  0.0300 -0.1655 -0.0211
19288SOL    HW164469   9.894   0.489   5.787  1.4265 -1.0784  0.5136
19288SOL    HW264470   9.770   0.402   5.803  0.0989  0.7079  0.2322
19289SOL     OW64471  12.466  12.757   4.555  0.0295 -0.1006  1.0379
19289SOL    HW164472  12.391  12.815   4.542  1.5926  1.8730  0.3452
19289SOL    HW264473  12.427  12.671   4.571 -2.3609  0.6236 -0.3610
19290SOL     OW64474   2.662  11.744  12.494 -0.1604  0.7180  0.4027
19290SOL    HW164475   2.742  11.788  12.523 -0.3012  0.7511  0.7402
19290SOL    HW264476   2.591  11.794  12.533 -0.3525  0.7454  0.0252
19291SOL     OW64477  10.468  11.038   7.318 -0.3861  0.8326  0.0594
19291SOL    HW164478  10.436  11.104   7.380 -1.2593 -0.2107  0.7653
19291SOL    HW264479  10.542  11.080   7.275  1.2465  1.0975  2.8662
19292SOL     OW64480  10.813   5.263   2.079  0.2052 -0.1152 -0.2277
19292SOL    HW164481  10.772   5.196   2.025  0.1172  1.3375 -2.0782
19292SOL    HW264482  10.818   5.224   2.166 -1.9004 -1.6629 -0.7098
19293SOL     OW64483   9.616   9.339  11.713 -0.0603 -0.3743 -0.4079
19293SOL    HW164484   9.560   9.371  11.784 -0.6487  0.4066 -1.2021
19293SOL    HW264485   9.561   9.344  11.635  0.3602 -1.8463 -0.8213
19294SOL     OW64486  10.416   2.163   2.494  0.3580  0.0206 -0.2793
19294SOL    HW164487  10.424   2.255   2.518  0.7030 -0.1006  0.0904
19294SOL    HW264488  10.336   2.158   2.441 -0.6701  0.2447  1.1882
19295SOL     OW64489   3.595   9.831   4.842  0.2698 -0.1548  0.5430
19295SOL    HW164490   3.688   9.853   4.836 -0.0962  1.0330 -1.7739
19295SOL    HW264491   3.580   9.769   4.770 -0.8024 -0.0671  0.6708
19296SOL     OW64492   6.451   7.546   9.221 -0.2783  0.1268  0.3980
19296SOL    HW164493   6.445   7.611   9.151  0.2691 -0.8301 -0.5918
19296SOL    HW264494   6.402   7.583   9.294 -1.5076  0.8461 -0.7515
19297SOL     OW64495  10.984   5.384   6.646  0.3867 -0.3291  0.3562
19297SOL    HW164496  10.960   5.469   6.682  2.8904 -0.1243  1.7633
19297SOL    HW264497  10.990   5.326   6.722 -0.2986 -1.5458 -0.4736
19298SOL     OW64498   1.859   0.838   9.611  0.2130 -0.1089 -0.1760
19298SOL    HW164499   1.836   0.865   9.523 -3.2933 -1.5884  0.1374
19298SOL    HW264500   1.925   0.770   9.599  0.9146  0.7684 -1.5100
19299SOL     OW64501   6.043   5.640   0.516  0.1064  0.4655  0.9268
19299SOL    HW164502   5.964   5.684   0.548  0.3765 -0.1496  2.5339
19299SOL    HW264503   6.113   5.704   0.527  0.2588  0.1376  1.9374
19300SOL     OW64504  11.216  10.622   1.016 -0.4459 -0.3254 -0.4099
19300SOL    HW164505  11.276  10.575   1.073  0.8305  0.6388 -0.9246
19300SOL    HW264506  11.245  10.601   0.927 -1.6623 -0.8465 -0.7070
19301SOL     OW64507   8.365   5.709   8.764 -0.5111  0.0742  0.1616
19301SOL    HW164508   8.439   5.769   8.773  0.9582 -1.5202 -0.5120
19301SOL    HW264509   8.303   5.755   8.708 -0.4066  1.7612  1.3604
19302SOL     OW64510   2.395   8.060   6.382  0.0749 -0.7976  0.3648
19302SOL    HW164511   2.420   8.149   6.406  1.0928 -1.0347  0.2026
19302SOL    HW264512   2.458   8.004   6.427 -0.3678 -1.4309  0.2170
19303SOL     OW64513   9.873  12.553  10.761  1.0466 -0.3180  0.0007
19303SOL    HW164514   9.790  12.525  10.800  1.2632 -2.4399 -0.9034
19303SOL    HW264515   9.932  12.479  10.776  1.9533 -0.0168 -1.8037
19304SOL     OW64516  10.549  11.560   3.216  0.4936  0.2810  0.3389
19304SOL    HW164517  10.575  11.605   3.136  0.1395  0.2385  0.1963
19304SOL    HW264518  10.610  11.487   3.223  1.5541  1.1927  0.9690
19305SOL     OW64519  10.291  11.827  12.051  0.1362 -0.7415 -0.2757
19305SOL    HW164520  10.364  11.886  12.070  0.4330 -0.7215 -1.4329
19305SOL    HW264521  10.325  11.740  12.069  0.5997 -0.7685 -1.2411
19306SOL     OW64522   0.228   1.074   0.226  0.2634 -1.0936 -0.3028
19306SOL    HW164523   0.299   1.117   0.179  0.0325 -1.3165 -0.8722
19306SOL    HW264524   0.148   1.108   0.186  0.0508 -1.0002  0.1901
19307SOL     OW64525  10.312   6.378   3.532  0.1022  0.2067 -0.0990
19307SOL    HW164526  10.385   6.440   3.538 -0.2614  0.6632 -0.3783
19307SOL    HW264527  10.297   6.349   3.622  0.9744 -0.2986 -0.1020
19308SOL     OW64528   4.444   2.367   9.478  0.7293  0.1041 -0.0897
19308SOL    HW164529   4.417   2.383   9.569 -1.0069  0.0018 -0.5587
19308SOL    HW264530   4.508   2.436   9.460  0.9715  0.2319  1.1503
19309SOL     OW64531   5.542   3.483   5.907 -0.8821 -0.2818  0.0548
19309SOL    HW164532   5.606   3.554   5.911 -1.1661 -0.0426  0.5025
19309SOL    HW264533   5.495   3.489   5.990 -2.0514  0.0905 -0.6052
19310SOL     OW64534   1.739   3.296   1.402 -0.0060 -0.0097  0.4540
19310SOL    HW164535   1.712   3.378   1.442  1.0657  1.0061 -0.8092
19310SOL    HW264536   1.709   3.304   1.311  1.9749 -0.0701 -0.2338
19311SOL     OW64537   9.779  11.703   2.306 -0.3984 -0.2426  0.5033
19311SOL    HW164538   9.826  11.786   2.305 -1.4776  0.4965 -2.9933
19311SOL    HW264539   9.847  11.636   2.310  1.0042  0.8270 -2.3245
19312SOL     OW64540   0.009   0.838  10.652 -0.0027 -0.1493  0.1104
19312SOL    HW164541   0.065   0.897  10.702 -0.6513  1.7188 -1.2300
19312SOL    HW264542   0.027   0.861  10.560 -1.6998 -0.7059 -0.3942
19313SOL     OW64543   6.717   2.875   0.932  0.5840  0.3601  0.0296
19313SOL    HW164544   6.765   2.910   0.857 -0.0358 -0.9053 -0.9954
19313SOL    HW264545   6.727   2.942   1.000 -0.4870  2.5163 -1.7940
19314SOL     OW64546   1.032   7.625   1.917 -0.1340 -0.3020  0.1959
19314SOL    HW164547   0.968   7.554   1.915  1.5284 -2.0565  2.9205
19314SOL    HW264548   1.024   7.663   2.004  0.7232  1.2275 -0.3486
19315SOL     OW64549   2.411   1.736   7.979  0.3845  0.8288  0.2129
19315SOL    HW164550   2.458   1.775   7.905  0.6362 -2.4412 -1.5873
19315SOL    HW264551   2.472   1.741   8.052  1.6515  0.9455 -0.8121
19316SOL     OW64552   9.329  11.359   1.517  0.0091  0.2370  0.1123
19316SOL    HW164553   9.289  11.272   1.516  0.4413  0.0406 -0.2786
19316SOL    HW264554   9.381  11.360   1.598  0.1993  0.0412 -0.0060
19317SOL     OW64555   9.405   7.928   5.500 -0.0316  0.0972 -0.0252
19317SOL    HW164556   9.380   7.874   5.575  2.2998 -0.1471  0.6779
19317SOL    HW264557   9.348   8.005   5.505 -2.5514 -1.6496 -0.3071
19318SOL     OW64558   0.866   7.752   7.642 -0.0126  0.3997  0.4116
19318SOL    HW164559   0.812   7.804   7.583  1.5876  0.8402 -0.7495
19318SOL    HW264560   0.888   7.811   7.714  0.4861  0.8377 -0.0924
19319SOL     OW64561   9.646   9.192   8.022  0.3138  0.1055  0.3114
19319SOL    HW164562   9.570   9.144   7.989  0.9519 -0.1417 -0.8535
19319SOL    HW264563   9.627   9.284   7.999  0.5137  0.0001 -0.3045
19320SOL     OW64564  12.069   6.514   9.400 -0.5132 -0.3343  0.4320
19320SOL    HW164565  12.030   6.601   9.400 -1.2198 -0.4794 -3.0540
19320SOL    HW264566  12.001   6.458   9.363  0.1740 -2.2760  1.9562
19321SOL     OW64567  12.423   3.149   1.835  0.5733 -0.1060  0.6174
19321SOL    HW164568  12.469   3.175   1.755  1.2018  1.5436  1.4818
19321SOL    HW264569  12.343   3.106   1.803 -0.1438  2.1977 -0.9602
19322SOL     OW64570   7.635   9.320   0.401 -0.1435 -0.0773  0.3535
19322SOL    HW164571   7.540   9.323   0.414 -0.0667 -3.0342  2.8808
19322SOL    HW264572   7.669   9.396   0.449 -1.1540 -0.3195  1.5038
19323SOL     OW64573   5.886   1.406   2.337 -0.6349  0.0450  0.1568
19323SOL    HW164574   5.944   1.363   2.400 -0.5841 -1.5011 -0.9063
19323SOL    HW264575   5.881   1.497   2.367 -0.5310 -0.6120  2.3199
19324SOL     OW64576  10.464   1.674   5.641  1.1145 -0.1596  0.0039
19324SOL    HW164577  10.543   1.678   5.588  0.9002 -1.2369 -0.4084
19324SOL    HW264578  10.487   1.718   5.723  1.3010  1.9951 -1.1386
19325SOL     OW64579   9.087  12.713   0.633 -0.3757 -0.3215 -0.0035
19325SOL    HW164580   9.118  12.799   0.662  0.3512 -0.3573 -0.6480
19325SOL    HW264581   9.007  12.731   0.583  0.9403  0.2263 -2.0030
19326SOL     OW64582   6.624   6.635  12.059  0.2512 -0.4631 -0.1870
19326SOL    HW164583   6.562   6.695  12.100 -1.8775 -2.2135 -0.7058
19326SOL    HW264584   6.666   6.686  11.990 -1.0809  0.5749 -0.2468
19327SOL     OW64585   8.869   9.960   4.812 -0.1170  0.8541 -0.1093
19327SOL    HW164586   8.804   9.890   4.818 -1.4851  2.1407  0.7110
19327SOL    HW264587   8.932   9.940   4.881 -0.2791  0.2271 -0.1348
19328SOL     OW64588  11.107   3.403   1.083  0.3567  0.3134  0.4715
19328SOL    HW164589  11.191   3.375   1.046 -0.0075 -1.2070  0.7354
19328SOL    HW264590  11.057   3.435   1.008  0.3114 -1.0120 -0.0836
19329SOL     OW64591   4.475   3.904   7.207  0.2566  0.2188 -0.1174
19329SOL    HW164592   4.535   3.935   7.139 -0.4488 -0.5005 -1.0928
19329SOL    HW264593   4.481   3.808   7.202 -1.4541  0.1154 -0.6904
19330SOL     OW64594  11.269   2.302   9.389 -0.3760  0.5546  0.1135
19330SOL    HW164595  11.336   2.328   9.326 -0.5305 -1.7911 -1.1246
19330SOL    HW264596  11.316   2.253   9.456 -0.9488 -3.3585 -2.0692
19331SOL     OW64597  11.053  11.694   6.294 -0.2613 -0.0969  0.0454
19331SOL    HW164598  11.103  11.650   6.363  0.4688 -0.9880 -1.0258
19331SOL    HW264599  10.965  11.656   6.300 -0.8433  1.3724  1.8443
19332SOL     OW64600   5.537   1.645   8.955 -0.6207 -0.2451 -0.1043
19332SOL    HW164601   5.569   1.565   8.912  0.5168  0.8855 -1.4618
19332SOL    HW264602   5.559   1.715   8.894  0.0341  1.3281  1.8377
19333SOL     OW64603   6.799   7.485   0.221 -0.4000 -0.0753  0.8760
19333SOL    HW164604   6.767   7.558   0.169 -0.7237 -1.7290 -1.4348
19333SOL    HW264605   6.755   7.493   0.305 -2.5430  0.8417 -0.2695
19334SOL     OW64606   5.214   7.635   8.800 -0.0120 -0.6005 -0.3309
19334SOL    HW164607   5.142   7.684   8.840  0.3350 -0.1858 -0.2061
19334SOL    HW264608   5.194   7.543   8.818 -0.0618 -0.4400  0.4620
19335SOL     OW64609  10.726   8.908   0.104  0.2013  0.1387 -0.0775
19335SOL    HW164610  10.817   8.909   0.074  0.1606  1.0076 -0.2029
19335SOL    HW264611  10.682   8.973   0.049 -0.1849  0.7224  0.8860
19336SOL     OW64612   5.178  11.466   4.981 -0.7614 -0.0566  0.3994
19336SOL    HW164613   5.088  11.452   5.013 -1.2473 -0.3112 -1.0183
19336SOL    HW264614   5.172  11.545   4.927 -0.7747 -1.5524 -1.9504
19337SOL     OW64615   0.435   9.299   6.844  0.2727 -0.0031 -0.4546
19337SOL    HW164616   0.434   9.370   6.780 -1.4293 -0.0055 -0.4625
19337SOL    HW264617   0.370   9.237   6.813 -0.6085 -0.0011  1.2606
19338SOL     OW64618   4.870   0.846   9.144 -0.0330  0.3804  0.5925
19338SOL    HW164619   4.805   0.845   9.214  0.6239 -0.2665  1.2086
19338SOL    HW264620   4.905   0.757   9.143 -0.2138  0.3045 -0.7383
19339SOL     OW64621   0.464   2.565  12.094 -0.3217  0.5705 -0.3878
19339SOL    HW164622   0.476   2.474  12.121  1.7028  0.3130 -1.8814
19339SOL    HW264623   0.379   2.567  12.050 -0.3557 -0.6330 -0.4056
19340SOL     OW64624   8.073   1.080   7.679 -0.3579  0.3419  0.1266
19340SOL    HW164625   8.162   1.111   7.699 -0.6072  1.5599 -0.5392
19340SOL    HW264626   8.019   1.160   7.680 -1.2255 -0.2162 -0.6265
19341SOL     OW64627   5.352   0.836   6.588 -1.2368 -1.0664  0.2613
19341SOL    HW164628   5.387   0.750   6.564 -1.0334 -1.2411  1.1524
19341SOL    HW264629   5.404   0.898   6.537 -1.0009 -1.4380  0.0408
19342SOL     OW64630   1.154   4.408   6.743  0.5519  0.2439 -0.5077
19342SOL    HW164631   1.225   4.394   6.680  0.6328 -3.9850  0.1977
19342SOL    HW264632   1.074   4.388   6.695 -0.0420  2.6212 -0.6449
19343SOL     OW64633   3.803   6.181   0.478  0.2892 -0.0001  0.6198
19343SOL    HW164634   3.882   6.134   0.451 -0.7961 -0.5710 -1.8865
19343SOL    HW264635   3.735   6.114   0.477 -0.4943  0.7763  1.3141
19344SOL     OW64636   7.736   4.651   1.963 -0.3909  0.7674  0.7218
19344SOL    HW164637   7.642   4.632   1.962 -0.1803 -0.4168 -1.2989
19344SOL    HW264638   7.753   4.694   1.879  0.9245  0.7367  0.9560
19345SOL     OW64639  11.087  10.385   6.186 -0.4794 -0.2003  0.5654
19345SOL    HW164640  11.155  10.374   6.252 -2.6106  0.4367  3.0658
19345SOL    HW264641  11.124  10.446   6.122  1.3562 -0.0825  1.6808
19346SOL     OW64642   4.691   1.239   1.727 -0.0308 -0.1521 -0.0325
19346SOL    HW164643   4.624   1.225   1.660 -0.1749 -0.0737  0.0934
19346SOL    HW264644   4.689   1.160   1.779  0.2943 -0.3398 -0.3053
19347SOL     OW64645   2.620   3.617   8.575 -0.4749 -0.2187 -0.2208
19347SOL    HW164646   2.538   3.646   8.615 -0.4142 -0.7499  0.3132
19347SOL    HW264647   2.681   3.689   8.590 -0.9382  0.3280 -0.9378
19348SOL     OW64648   5.300   3.647   9.956 -0.0856 -0.7768 -0.1771
19348SOL    HW164649   5.229   3.662  10.019 -0.8960 -3.2279 -0.3678
19348SOL    HW264650   5.314   3.552   9.960  3.7008 -0.3493  0.3659
19349SOL     OW64651   8.254   4.937  10.717 -0.1867 -0.0827 -0.0684
19349SOL    HW164652   8.170   4.907  10.683 -0.0184  0.4503 -0.9698
19349SOL    HW264653   8.235   5.023  10.755 -0.2747 -0.4626  0.7671
19350SOL     OW64654   8.317   9.700   5.072  0.1104 -0.3329 -0.4725
19350SOL    HW164655   8.301   9.676   4.981 -0.1709 -1.9515 -0.0384
19350SOL    HW264656   8.231   9.720   5.108  0.1472 -0.2743 -0.4165
19351SOL     OW64657   5.165  12.294   8.632  0.2514  0.1125  0.0641
19351SOL    HW164658   5.228  12.304   8.703 -0.9839  0.9437  1.0710
19351SOL    HW264659   5.205  12.228   8.574  2.0468  0.6230  0.6364
19352SOL     OW64660   0.265   6.896   6.547  0.7055 -0.1170  0.2654
19352SOL    HW164661   0.208   6.841   6.493  0.7625 -0.3067  0.3978
19352SOL    HW264662   0.208   6.929   6.616  0.9791 -1.1301  0.9942
19353SOL     OW64663   3.356   4.478   4.565 -0.0440  0.3087  0.0708
19353SOL    HW164664   3.355   4.536   4.489  0.1477  0.8518  0.4737
19353SOL    HW264665   3.282   4.419   4.552  0.4088 -0.0787 -0.8977
19354SOL     OW64666  11.507   4.240   8.993 -0.0259 -0.1177  0.6423
19354SOL    HW164667  11.523   4.324   8.950 -0.5532 -0.8186 -1.0123
19354SOL    HW264668  11.423   4.211   8.960  0.3720 -1.5333  0.7876
19355SOL     OW64669   2.711   9.146   8.254 -0.1906 -0.1398 -0.0139
19355SOL    HW164670   2.790   9.102   8.284  1.3274  1.6649 -1.1097
19355SOL    HW264671   2.674   9.087   8.188  0.1070 -1.1041  0.6724
19356SOL     OW64672   0.697   6.285   9.029 -0.1440 -0.3987 -0.3414
19356SOL    HW164673   0.664   6.322   8.948 -2.1721  1.0640  1.0592
19356SOL    HW264674   0.775   6.338   9.050 -0.6998  0.4586 -0.4016
19357SOL     OW64675   2.317   2.903  11.399  0.2501 -0.5105  0.4467
19357SOL    HW164676   2.412   2.906  11.387  0.3292  1.6424  1.1725
19357SOL    HW264677   2.286   2.984  11.358 -1.5968 -2.2612 -1.8591
19358SOL     OW64678   1.144   6.888   4.957  0.2384 -0.4795  0.9939
19358SOL    HW164679   1.087   6.961   4.979  1.1407  1.1638 -1.6539
19358SOL    HW264680   1.086   6.825   4.912 -0.0632 -0.2262  1.0262
19359SOL     OW64681   7.046  11.925   5.531 -0.2434  0.3993  0.3866
19359SOL    HW164682   7.007  11.838   5.535 -1.1606  0.7961  0.4344
19359SOL    HW264683   7.002  11.968   5.458 -0.3065  1.0539  0.7958
19360SOL     OW64684   5.982   8.806   9.143  0.0253 -0.1893  0.4916
19360SOL    HW164685   6.054   8.795   9.205  1.0373  1.8453 -0.2347
19360SOL    HW264686   5.912   8.846   9.194  0.9562  1.7513  0.3412
19361SOL     OW64687   8.904   7.379   3.939  0.2155 -0.6504 -0.0025
19361SOL    HW164688   8.889   7.314   4.008  1.6155  0.4891  1.4649
19361SOL    HW264689   8.816   7.400   3.906 -0.5398 -0.9463  1.7157
19362SOL     OW64690   7.945   8.177   3.579  0.5297 -0.4087 -0.2165
19362SOL    HW164691   8.025   8.143   3.618  0.7755 -1.3883 -1.5081
19362SOL    HW264692   7.905   8.102   3.535 -1.5719 -0.1368  1.1222
19363SOL     OW64693   0.883  10.356   0.981  0.4459  0.2262  0.7857
19363SOL    HW164694   0.842  10.408   1.050 -0.3781  1.1880 -0.3793
19363SOL    HW264695   0.951  10.413   0.945 -1.6266  1.3550 -1.7010
19364SOL     OW64696   8.874  10.642  11.669  0.3343  0.2876 -0.0394
19364SOL    HW164697   8.900  10.576  11.605 -1.6074 -2.3785  1.6858
19364SOL    HW264698   8.940  10.711  11.662  1.2181 -0.7126 -3.5367
19365SOL     OW64699   6.877   1.233   4.976  0.3948  0.0142 -0.1343
19365SOL    HW164700   6.897   1.139   4.976  1.2275  0.1780 -0.8007
19365SOL    HW264701   6.782   1.237   4.974  0.3139 -0.8097  0.9511
19366SOL     OW64702   1.058  10.453  11.069 -0.4697  0.7192  0.0532
19366SOL    HW164703   0.967  10.428  11.054  0.1179 -1.1573 -0.7789
19366SOL    HW264704   1.092  10.383  11.125  0.9326  0.3415 -1.2029
19367SOL     OW64705   5.430   0.081   5.134 -0.2650  0.0788  0.6278
19367SOL    HW164706   5.491   0.153   5.147 -1.1073  1.5318 -2.5371
19367SOL    HW264707   5.370   0.112   5.066 -0.0334 -3.9587 -1.7419
19368SOL     OW64708   7.663   1.905   0.974 -0.2917 -0.2978 -0.1923
19368SOL    HW164709   7.568   1.908   0.958 -0.5048 -1.4811  0.7083
19368SOL    HW264710   7.678   1.819   1.014  0.8641  0.6831  1.5949
19369SOL     OW64711   0.250  11.914  12.773 -0.3530 -0.5737  0.0789
19369SOL    HW164712   0.292  11.924  12.858 -1.4155 -0.1684  0.5676
19369SOL    HW264713   0.249  11.819  12.758  2.7609 -0.5528 -1.0190
19370SOL     OW64714   1.737  11.433  11.075 -0.6164 -0.2405  0.1159
19370SOL    HW164715   1.670  11.407  11.011 -0.5780 -1.5361  0.5769
19370SOL    HW264716   1.819  11.400  11.038 -0.2874  0.8366 -0.1619
19371SOL     OW64717  11.084   1.038   2.922  0.1400  0.5777 -0.2474
19371SOL    HW164718  11.156   1.037   2.858  0.0825 -1.4940 -0.3335
19371SOL    HW264719  11.126   1.064   3.004  0.9015 -0.0541 -0.4203
19372SOL     OW64720  10.006   2.207   4.325  0.2776  0.0543  0.3949
19372SOL    HW164721   9.965   2.189   4.410 -0.4272 -1.0145 -0.1446
19372SOL    HW264722   9.935   2.195   4.262  0.9048  0.3758 -0.3773
19373SOL     OW64723  12.153   9.785   4.938 -0.2068 -0.0773  0.0449
19373SOL    HW164724  12.113   9.703   4.910 -0.1158 -0.1384  0.0962
19373SOL    HW264725  12.225   9.759   4.994 -0.6102  0.0546  0.6378
19374SOL     OW64726  11.897   5.105   2.772  0.5435  0.3187 -0.5480
19374SOL    HW164727  11.985   5.115   2.807 -0.6424  1.9413  2.3492
19374SOL    HW264728  11.860   5.194   2.776 -1.8166 -0.6205  0.1840
19375SOL     OW64729   8.484  12.139   5.102 -0.9059 -0.2141 -0.1234
19375SOL    HW164730   8.549  12.075   5.130  0.0720  0.0040 -1.7730
19375SOL    HW264731   8.451  12.178   5.183 -0.0800 -1.3797  0.8050
19376SOL     OW64732   4.076   6.231   1.629  0.2257 -0.3107  0.0676
19376SOL    HW164733   4.114   6.164   1.573  0.2461 -0.8448  0.7059
19376SOL    HW264734   4.056   6.185   1.711  0.8060  0.5919  0.7345
19377SOL     OW64735   1.392   5.961  11.976 -0.8672 -0.0868  0.6098
19377SOL    HW164736   1.347   6.039  12.007  0.0312  0.6106  0.2024
19377SOL    HW264737   1.465   5.949  12.037 -0.4343 -0.0380  0.1080
19378SOL     OW64738   5.938   6.734   7.782  0.1171 -0.2389  0.1734
19378SOL    HW164739   5.961   6.765   7.695 -1.2172  0.7916  0.1640
19378SOL    HW264740   5.980   6.796   7.842  1.5868 -1.3184  0.3293
19379SOL     OW64741   1.292   3.677   9.359  0.1697  0.5123  0.1676
19379SOL    HW164742   1.254   3.613   9.419 -1.4927  1.6341  0.3773
19379SOL    HW264743   1.381   3.689   9.390 -0.6254  1.0395  2.4422
19380SOL     OW64744   7.011  11.733   3.922  0.0620  0.0424 -0.3906
19380SOL    HW164745   6.997  11.724   3.828  1.0203  0.3119 -0.5695
19380SOL    HW264746   6.933  11.695   3.962 -0.0955 -0.5948 -1.2806
19381SOL     OW64747   3.672  10.282   9.396  0.3683 -0.4293 -0.0800
19381SOL    HW164748   3.753  10.238   9.369 -1.0320 -3.3305  0.0230
19381SOL    HW264749   3.699  10.342   9.466  2.6439  0.0384 -1.2784
19382SOL     OW64750   1.795   1.489   0.525 -1.0713 -0.6433 -0.2313
19382SOL    HW164751   1.718   1.497   0.581 -1.3413 -0.5316 -0.6177
19382SOL    HW264752   1.774   1.417   0.465 -0.1803 -1.8006  0.7699
19383SOL     OW64753   5.760   3.689   1.494 -0.5026  0.5613 -0.4892
19383SOL    HW164754   5.707   3.705   1.416 -0.6579  2.0132 -0.1187
19383SOL    HW264755   5.821   3.762   1.496  0.0521  0.0871  0.3015
19384SOL     OW64756   6.838   6.777  10.039 -0.4069  0.7408 -0.3906
19384SOL    HW164757   6.766   6.754  10.098  1.4511 -1.6953  1.0971
19384SOL    HW264758   6.907   6.810  10.097  1.5141 -1.8171 -1.0476
19385SOL     OW64759   0.918   9.570  11.891 -0.6832  0.3310 -0.2484
19385SOL    HW164760   0.852   9.503  11.907  0.5709 -0.6838  0.9016
19385SOL    HW264761   0.953   9.549  11.804 -2.3448  1.3410 -1.2101
19386SOL     OW64762   1.812  11.077  10.272  0.0678  0.3003  0.1282
19386SOL    HW164763   1.857  11.129  10.339  0.4784  0.1463 -0.0279
19386SOL    HW264764   1.723  11.066  10.307  0.2660  0.2527  0.6301
19387SOL     OW64765   3.031   4.262   6.838  0.1016 -0.2440  0.6975
19387SOL    HW164766   3.095   4.247   6.769 -0.4823  1.9039 -0.4109
19387SOL    HW264767   3.009   4.175   6.870 -0.2197 -1.4385 -2.3935
19388SOL     OW64768  11.689   5.299  11.977 -0.0328  0.3127  0.4951
19388SOL    HW164769  11.750   5.230  12.004  0.2068  0.3877  0.1646
19388SOL    HW264770  11.742   5.379  11.977 -0.1352  0.3817  0.2266
19389SOL     OW64771   2.989   0.076   6.263 -0.6885  0.1943  0.1415
19389SOL    HW164772   2.922   0.103   6.326 -0.6179  1.8388 -0.4583
19389SOL    HW264773   3.071   0.074   6.314 -0.8815 -0.0321  0.4477
19390SOL     OW64774   4.332  11.211   7.891 -0.1253  0.0970 -0.1593
19390SOL    HW164775   4.249  11.163   7.885  0.6574 -1.2600 -0.7110
19390SOL    HW264776   4.395  11.145   7.921  0.4911  1.4564  1.6948
19391SOL     OW64777   7.454   1.934   7.938 -1.2309  0.7637  0.1309
19391SOL    HW164778   7.496   1.855   7.903 -0.0315  1.6290 -0.4451
19391SOL    HW264779   7.389   1.901   8.000 -0.5652 -0.6687  0.1072
19392SOL     OW64780   5.202   8.347   6.049  0.4902  0.5729  0.0176
19392SOL    HW164781   5.125   8.291   6.062 -0.0044  1.3757  0.5723
19392SOL    HW264782   5.273   8.285   6.029 -0.3296 -0.1625 -0.7105
19393SOL     OW64783  10.005   2.521   4.288  0.1871 -0.1572 -0.0111
19393SOL    HW164784   9.937   2.539   4.353 -0.2371 -0.2515 -0.4159
19393SOL    HW264785  10.086   2.512   4.338  0.1325  1.2572  0.3581
19394SOL     OW64786  11.141   6.663  11.117  0.1243 -0.3790 -0.3561
19394SOL    HW164787  11.196   6.609  11.060  1.6287 -2.0792  2.4567
19394SOL    HW264788  11.193   6.741  11.136 -0.7131  0.5841 -1.8620
19395SOL     OW64789   1.060   4.273   3.725  0.3690  0.3062  0.3544
19395SOL    HW164790   1.054   4.217   3.803 -0.5938  0.1514  0.1746
19395SOL    HW264791   1.076   4.212   3.653 -4.1602 -0.2851 -0.4279
19396SOL     OW64792   9.834  11.248   1.645  0.4615 -0.4318 -0.3717
19396SOL    HW164793   9.803  11.175   1.699 -3.3469  1.5410  0.4842
19396SOL    HW264794   9.866  11.208   1.565 -1.5754 -3.0743  0.0152
19397SOL     OW64795  11.868   4.764   5.574  0.0301  0.3115  1.0696
19397SOL    HW164796  11.884   4.744   5.666  1.3913 -2.1690  0.4017
19397SOL    HW264797  11.787   4.718   5.553 -0.1296  0.6397  0.9604
19398SOL     OW64798  11.867   5.079   0.117  0.1990 -0.1552  0.5060
19398SOL    HW164799  11.895   5.028   0.041  0.3408 -0.9470  1.0667
19398SOL    HW264800  11.778   5.106   0.097  0.7602  0.9729 -0.5912
19399SOL     OW64801   5.713  11.656   7.357 -0.2670 -0.7612 -0.1380
19399SOL    HW164802   5.751  11.702   7.281 -2.1076 -1.2513 -1.4222
19399SOL    HW264803   5.779  11.591   7.380  0.9948  0.4001 -0.3254
19400SOL     OW64804   3.105   5.081  11.713  0.4184  0.2363  0.3005
19400SOL    HW164805   3.168   5.050  11.647  0.6694 -1.7634  1.3864
19400SOL    HW264806   3.070   5.162  11.677 -0.3476 -1.3580 -2.8645
19401SOL     OW64807   1.228   3.599   8.520 -0.0716  0.4477  0.1171
19401SOL    HW164808   1.277   3.681   8.527 -0.7337  0.7251  1.6730
19401SOL    HW264809   1.168   3.599   8.594  0.3126 -1.7131  0.4976
19402SOL     OW64810   7.361   3.412   0.998 -0.1393  0.2267 -0.2140
19402SOL    HW164811   7.282   3.436   0.950 -0.3904  0.2020  0.1776
19402SOL    HW264812   7.432   3.424   0.935 -0.3229  1.3479 -0.2331
19403SOL     OW64813   9.750   8.835   2.691  0.0200 -0.1273  0.3292
19403SOL    HW164814   9.782   8.791   2.771  1.7682  0.3620 -0.0533
19403SOL    HW264815   9.750   8.928   2.714  0.9999  0.0593 -0.3722
19404SOL     OW64816   5.477   6.504   1.826 -0.4485 -0.3715 -0.0437
19404SOL    HW164817   5.464   6.425   1.878 -0.7426  0.5106  1.2595
19404SOL    HW264818   5.572   6.514   1.822 -0.4262  0.1098  1.2314
19405SOL     OW64819  10.878   6.545   7.011  0.2750 -0.0612  0.7416
19405SOL    HW164820  10.869   6.618   6.950 -1.6130 -0.1684  0.8355
19405SOL    HW264821  10.971   6.542   7.030  0.5530  1.6254 -0.1111
19406SOL     OW64822   9.679   5.378  12.465  0.3488 -0.0750 -0.2483
19406SOL    HW164823   9.607   5.414  12.516  1.2082  0.3214  0.7346
19406SOL    HW264824   9.701   5.295  12.508  1.7159  0.7237  0.6818
19407SOL     OW64825  11.100   7.277  11.423  0.1142  0.2744 -0.1190
19407SOL    HW164826  11.107   7.318  11.509 -1.6112  0.6254 -0.1036
19407SOL    HW264827  11.121   7.348  11.361 -1.4899  0.8592 -0.0450
19408SOL     OW64828  10.551   2.836   9.144  0.1922  0.0093  0.1828
19408SOL    HW164829  10.469   2.787   9.157  0.0787  0.7407  2.6758
19408SOL    HW264830  10.617   2.768   9.131 -0.5071 -0.6590 -0.0143
19409SOL     OW64831   2.126   0.201   6.533 -0.3063 -0.0337 -0.2312
19409SOL    HW164832   2.121   0.195   6.437 -1.0929 -1.4261 -0.1372
19409SOL    HW264833   2.178   0.124   6.559 -0.7350 -0.0915  0.4906
19410SOL     OW64834   0.453   5.558   8.624 -0.1635 -0.1172 -0.0568
19410SOL    HW164835   0.498   5.515   8.552  0.4611  2.5005 -1.3544
19410SOL    HW264836   0.437   5.647   8.593  0.2493  1.1937  3.0693
19411SOL     OW64837  12.265   3.015   6.555  0.4450  0.2925  0.2371
19411SOL    HW164838  12.339   2.960   6.529 -1.0120 -0.5283 -2.5372
19411SOL    HW264839  12.199   2.953   6.586  0.1147  0.8265  0.6142
19412SOL     OW64840   3.089   2.429   5.504 -0.4432  0.0046  0.1335
19412SOL    HW164841   3.136   2.384   5.434 -1.4229 -1.9798  0.6862
19412SOL    HW264842   2.997   2.426   5.477 -0.6607  0.6733  0.7549
19413SOL     OW64843   0.839   1.690   7.008 -0.3663 -0.2693 -0.2735
19413SOL    HW164844   0.808   1.599   6.999  0.5651 -0.8575  1.7498
19413SOL    HW264845   0.934   1.682   7.007 -0.1513  0.1291  3.3492
19414SOL     OW64846   8.205  10.890   3.206 -0.2690  0.4456  0.2014
19414SOL    HW164847   8.225  10.980   3.183  0.8247  0.0894 -0.3225
19414SOL    HW264848   8.283  10.859   3.252 -0.5139 -0.3101  0.1195
19415SOL     OW64849   6.695   6.917  11.032  0.5281 -0.2648  0.1442
19415SOL    HW164850   6.733   6.846  10.981 -0.0771 -0.9680  0.6525
19415SOL    HW264851   6.713   6.996  10.981  0.8093 -0.8371 -0.6552
19416SOL     OW64852   2.072   9.596   9.004  0.0763  0.0079  0.0924
19416SOL    HW164853   2.158   9.604   9.045  1.3330 -1.8050 -1.9424
19416SOL    HW264854   2.066   9.673   8.946 -0.2632  0.7940  1.1394
19417SOL     OW64855   8.229   4.827   2.597  0.1413  0.0296 -0.5134
19417SOL    HW164856   8.268   4.902   2.552  0.7724  0.0068 -0.0086
19417SOL    HW264857   8.260   4.751   2.548  0.3477  0.0399 -0.3997
19418SOL     OW64858   3.642   5.533  11.357 -0.1638  0.0604  0.3503
19418SOL    HW164859   3.707   5.581  11.409 -0.7421  0.2091  0.9607
19418SOL    HW264860   3.575   5.599  11.337 -0.0911 -0.0721 -0.3324
19419SOL     OW64861   8.644  10.115   8.342  0.0245 -0.2026 -0.1341
19419SOL    HW164862   8.568  10.058   8.331  1.0396 -1.4313 -1.1103
19419SOL    HW264863   8.609  10.195   8.380 -2.0689 -0.0016 -2.2868
19420SOL     OW64864   1.777   1.253   9.005 -0.1328 -0.6891  0.0577
19420SOL    HW164865   1.723   1.314   8.954  0.0883 -0.4727  0.0804
19420SOL    HW264866   1.763   1.279   9.096  0.5415 -0.1847  0.0273
19421SOL     OW64867  11.711   0.133   7.946  0.7742 -0.0273  0.0263
19421SOL    HW164868  11.733   0.105   7.857  1.2560  0.5595 -0.0429
19421SOL    HW264869  11.640   0.196   7.935  0.4877 -0.3338  0.0986
19422SOL     OW64870   0.861   9.472  10.379  0.3603  0.3179  0.2714
19422SOL    HW164871   0.779   9.504  10.417  0.9443  1.0547  0.9616
19422SOL    HW264872   0.837   9.390  10.337 -0.9287  0.9979 -0.3882
19423SOL     OW64873   0.250  12.031  11.002 -0.5508  0.0424  0.3515
19423SOL    HW164874   0.273  12.088  10.929  0.0227  3.6288  3.0365
19423SOL    HW264875   0.334  11.994  11.031 -0.5630 -0.1535  0.1394
19424SOL     OW64876  11.248  10.279   0.016  0.4308 -0.8659 -0.1894
19424SOL    HW164877  11.227  10.227   0.093 -1.9847  0.7698  0.3576
19424SOL    HW264878  11.343  10.288   0.019  0.4469 -0.9219  2.6034
19425SOL     OW64879   5.274   3.862   0.396 -0.4629  0.8057 -0.2709
19425SOL    HW164880   5.189   3.819   0.396  0.1130 -0.3772 -0.2772
19425SOL    HW264881   5.333   3.798   0.436  0.4788  1.4916 -0.5238
19426SOL     OW64882   2.703  11.330   2.543  0.7608  0.6645  0.0857
19426SOL    HW164883   2.725  11.264   2.477  1.5302  0.2383  0.7547
19426SOL    HW264884   2.700  11.413   2.494  1.7363  0.4203 -0.4086
19427SOL     OW64885  11.756   9.160   9.448  0.3354 -0.0283 -0.1604
19427SOL    HW164886  11.782   9.078   9.491 -1.5773 -1.5691 -1.7271
19427SOL    HW264887  11.662   9.165   9.460  0.4973  2.4546  0.6199
19428SOL     OW64888   8.831   0.104  10.496 -0.0918  0.9608  0.1875
19428SOL    HW164889   8.804   0.076  10.409 -0.2679  0.1575  0.4921
19428SOL    HW264890   8.895   0.173  10.480  0.5629  0.1938 -0.5954
19429SOL     OW64891   0.889  10.766   2.803  0.1055 -0.2325 -0.4437
19429SOL    HW164892   0.844  10.845   2.774 -0.0955 -0.6549 -1.3230
19429SOL    HW264893   0.827  10.695   2.784  0.3796 -0.6277  0.1032
19430SOL     OW64894  10.005   8.379   3.340  0.0711  0.5742  0.5231
19430SOL    HW164895  10.064   8.450   3.315 -0.3272  0.8268  0.2931
19430SOL    HW264896  10.028   8.359   3.431  1.6974 -0.5086 -0.0770
19431SOL     OW64897   3.043  11.675   7.745  0.5017  0.0389 -0.0110
19431SOL    HW164898   3.002  11.703   7.828  1.8290  0.9099  0.3828
19431SOL    HW264899   3.025  11.747   7.684  1.7635  0.6403  0.2893
19432SOL     OW64900   4.075  10.547   2.244 -0.2404 -0.4055  0.2559
19432SOL    HW164901   4.127  10.529   2.166  0.2201 -0.3011  0.5369
19432SOL    HW264902   4.008  10.610   2.214  0.9225  0.8971  0.3008
19433SOL     OW64903   1.909  12.337  10.587 -0.1170  0.0919  0.3544
19433SOL    HW164904   1.841  12.349  10.654 -0.6589 -1.4134  0.1160
19433SOL    HW264905   1.978  12.289  10.632  0.2524  0.5381  0.2664
19434SOL     OW64906   0.273  11.234   3.680 -0.5949 -0.4647  0.3116
19434SOL    HW164907   0.318  11.219   3.597 -0.0692 -0.7784  0.6478
19434SOL    HW264908   0.314  11.312   3.716 -0.6266 -0.4955  0.4146
19435SOL     OW64909   7.478   6.794  11.671  0.1033  0.0587  0.5063
19435SOL    HW164910   7.425   6.749  11.607  0.9335  1.4967 -1.2825
19435SOL    HW264911   7.559   6.742  11.676 -0.1584 -0.3270  0.7762
19436SOL     OW64912  12.456   0.702   3.644  0.5113 -0.0789  0.4671
19436SOL    HW164913  12.382   0.647   3.671 -0.0883 -0.0124 -0.9979
19436SOL    HW264914  12.433   0.790   3.676  0.1102 -0.1173  0.2870
19437SOL     OW64915   9.246   1.074   4.189  0.7465 -0.4785  0.0043
19437SOL    HW164916   9.162   1.072   4.234  0.4569 -2.1714 -0.5559
19437SOL    HW264917   9.235   1.141   4.121 -0.5967 -1.5177 -0.8464
19438SOL     OW64918   7.425   5.729   6.437 -0.0878 -0.2000 -0.2506
19438SOL    HW164919   7.347   5.683   6.468  0.0712  0.4734  1.2268
19438SOL    HW264920   7.488   5.721   6.509 -0.3164  2.9374  0.4191
19439SOL     OW64921   2.835   5.962   8.341 -0.1437  0.3271 -0.0384
19439SOL    HW164922   2.752   5.984   8.299 -0.1748  0.8926  0.3170
19439SOL    HW264923   2.871   6.046   8.370  0.8494  0.1652 -0.7369
19440SOL     OW64924   3.973   5.422   3.162  0.7675 -0.4986  0.2577
19440SOL    HW164925   3.957   5.377   3.246 -1.0539 -0.6148 -0.1031
19440SOL    HW264926   3.889   5.416   3.116  1.2819  0.9417 -0.9280
19441SOL     OW64927   9.794   4.606  12.461 -0.1701  0.0051  0.2530
19441SOL    HW164928   9.803   4.572  12.550 -1.8749 -1.5910 -0.1189
19441SOL    HW264929   9.866   4.565  12.412 -1.2059 -1.9087  0.1971
19442SOL     OW64930   4.302  11.572   3.130  0.0700  0.2550 -0.2594
19442SOL    HW164931   4.328  11.615   3.211  0.4834  0.6031 -0.5729
19442SOL    HW264932   4.286  11.643   3.069 -1.3945  0.0478 -0.1545
19443SOL     OW64933   4.473  12.684   1.352 -0.3140  0.3390 -0.3294
19443SOL    HW164934   4.506  12.595   1.364 -1.0267  0.1851  0.5671
19443SOL    HW264935   4.549  12.740   1.372 -0.2168 -0.0401  0.3863
19444SOL     OW64936   4.225   4.749   0.425  0.6990  0.8520  0.3450
19444SOL    HW164937   4.316   4.724   0.408  0.6508  0.1273  1.0798
19444SOL    HW264938   4.231   4.835   0.466  1.2271 -0.0272  2.2579
19445SOL     OW64939   4.179  10.732   0.318  0.1198 -0.4430 -0.5879
19445SOL    HW164940   4.132  10.733   0.235  0.2802 -0.4460 -0.6794
19445SOL    HW264941   4.248  10.798   0.308 -0.6965  0.5555  0.0366
19446SOL     OW64942   7.445  10.122   8.019  0.4874 -0.1734  0.3159
19446SOL    HW164943   7.523  10.100   8.069  1.5965 -0.3218 -1.3922
19446SOL    HW264944   7.464  10.208   7.982 -0.4543  0.0943  0.4331
19447SOL     OW64945   8.412  12.583   5.928 -1.0094 -0.2092 -0.4143
19447SOL    HW164946   8.361  12.503   5.925 -0.3619 -0.6337 -0.3076
19447SOL    HW264947   8.351  12.650   5.960 -1.6499 -0.5732 -0.8623
19448SOL     OW64948  11.929   5.126  12.041 -0.1023 -0.2708  0.0778
19448SOL    HW164949  11.926   5.064  12.114  0.2420  1.2876  1.4736
19448SOL    HW264950  12.000   5.187  12.063 -0.4556  0.6577 -1.2092
19449SOL     OW64951   4.123   9.118   4.992  0.3799  0.9972  0.2716
19449SOL    HW164952   4.091   9.126   5.082 -2.6025  1.1641 -0.6808
19449SOL    HW264953   4.123   9.207   4.958 -2.8910  0.6377 -1.1072
19450SOL     OW64954   5.885   3.498   4.797  0.4407  0.1715 -0.1644
19450SOL    HW164955   5.903   3.420   4.848 -3.2387  0.4967  1.9751
19450SOL    HW264956   5.954   3.559   4.821  2.0833 -1.6122 -0.1575
19451SOL     OW64957   9.451   2.949   1.824  0.1177 -0.2112 -0.2729
19451SOL    HW164958   9.455   2.923   1.732  0.2016  1.2430 -0.7136
19451SOL    HW264959   9.466   3.044   1.822 -2.7869  0.3941  0.9205
19452SOL     OW64960   0.238  10.180   6.003 -1.0152 -0.2538  0.1812
19452SOL    HW164961   0.311  10.189   6.065  0.7602  1.0673 -1.9750
19452SOL    HW264962   0.242  10.088   5.976 -1.1564 -0.5805  1.2185
19453SOL     OW64963  11.088  12.599   6.375  0.0177 -0.0087 -0.3633
19453SOL    HW164964  11.028  12.642   6.436  0.4944  0.3524 -0.1393
19453SOL    HW264965  11.141  12.541   6.430 -0.5285 -0.7936 -0.6453
19454SOL     OW64966  10.705  11.020   9.730 -0.1821 -0.1594 -0.4371
19454SOL    HW164967  10.756  11.069   9.666 -0.3759 -1.0242 -1.2713
19454SOL    HW264968  10.752  11.034   9.813  2.0014 -1.6786 -1.3262
19455SOL     OW64969   0.031   4.212   6.123  0.1124 -0.2763 -0.5019
19455SOL    HW164970   0.064   4.242   6.039 -1.3894 -1.3903 -1.5316
19455SOL    HW264971  -0.056   4.178   6.104  0.4546 -2.2854  1.1631
19456SOL     OW64972  10.900   6.157   2.344 -0.3665  0.5558  0.8399
19456SOL    HW164973  10.886   6.129   2.435 -0.9156 -0.2143  0.5239
19456SOL    HW264974  10.968   6.099   2.311 -0.9866  0.0598  0.4111
19457SOL     OW64975   7.231  10.579   7.204 -0.3818 -0.3321 -0.0473
19457SOL    HW164976   7.278  10.502   7.236 -0.7881 -0.6455 -0.1989
19457SOL    HW264977   7.245  10.578   7.109 -1.4254 -0.9252 -0.2046
19458SOL     OW64978   2.303  12.708   4.603 -0.3372  0.6130 -0.8926
19458SOL    HW164979   2.386  12.679   4.641 -0.3219  0.8961 -0.7067
19458SOL    HW264980   2.328  12.768   4.533 -0.3612 -0.0446 -1.4754
19459SOL     OW64981   4.160   7.284  10.765  0.0197 -0.0004 -0.2191
19459SOL    HW164982   4.224   7.255  10.830 -1.5015  0.4411  1.5846
19459SOL    HW264983   4.190   7.371  10.740  0.7055 -0.2274 -0.2131
19460SOL     OW64984   2.941   3.869   0.366  0.4300 -0.1561 -0.3743
19460SOL    HW164985   2.958   3.947   0.419  0.2258  0.2631 -0.9120
19460SOL    HW264986   2.847   3.872   0.348  0.5231 -0.2072 -0.8828
19461SOL     OW64987   1.678   5.574  11.016 -0.3191 -0.2244  0.5528
19461SOL    HW164988   1.763   5.565  11.058 -1.3873 -0.1559  2.9088
19461SOL    HW264989   1.673   5.501  10.955  0.9694 -0.8817  1.2038
19462SOL     OW64990   2.879   4.874   7.031 -0.4868  0.1415 -0.0314
19462SOL    HW164991   2.963   4.832   7.013  0.3698  1.4815  0.6514
19462SOL    HW264992   2.826   4.805   7.073  0.4213 -0.6031 -0.0710
19463SOL     OW64993   9.265   5.106  11.939 -0.5436 -0.2419 -0.2568
19463SOL    HW164994   9.341   5.142  11.894 -1.1669 -0.0872 -1.2085
19463SOL    HW264995   9.297   5.025  11.978  0.6039  0.7833  1.0250
19464SOL     OW64996  11.165   5.979  11.687  0.0554  0.3772 -0.2277
19464SOL    HW164997  11.155   5.916  11.758  1.4288  0.1247 -0.2285
19464SOL    HW264998  11.083   5.972  11.637  0.0138 -1.1231 -0.0012
19465SOL     OW64999   6.305   1.320  12.056  0.4917  0.0548 -0.0629
19465SOL    HW165000   6.282   1.401  12.011 -0.4642  0.1846  0.6303
19465SOL    HW265001   6.309   1.254  11.987 -1.6878  0.0854 -0.2812
19466SOL     OW65002   9.768   8.672  11.464 -0.3693 -0.5534 -0.1801
19466SOL    HW165003   9.810   8.744  11.417 -0.5528 -0.8655 -0.8389
19466SOL    HW265004   9.740   8.710  11.547  0.7865 -0.2186  0.0714
19467SOL     OW65005   1.739   6.073  10.440  0.0260  0.1060 -0.1040
19467SOL    HW165006   1.655   6.115  10.419 -0.0844  0.8499  1.6192
19467SOL    HW265007   1.795   6.146  10.467  1.6738 -0.2117 -2.3681
19468SOL     OW65008   6.161   0.281   1.156  0.0695  0.2030  0.0068
19468SOL    HW165009   6.248   0.275   1.118  0.1131  0.1522  0.1135
19468SOL    HW265010   6.173   0.333   1.235 -0.0716  0.5524 -0.2019
19469SOL     OW65011  12.392   0.735   4.407  0.5922 -0.9469  0.0578
19469SOL    HW165012  12.421   0.669   4.344 -2.4335 -3.1040  0.6716
19469SOL    HW265013  12.418   0.700   4.493  0.9603 -0.1808  0.2640
19470SOL     OW65014   0.369   7.111  12.382 -0.2344  0.2883  0.0894
19470SOL    HW165015   0.355   7.044  12.315 -0.1806  2.5679 -2.3760
19470SOL    HW265016   0.426   7.175  12.340  0.0304  1.7401  2.4617
19471SOL     OW65017   2.527   4.237  10.540 -0.1433 -0.4452 -0.4664
19471SOL    HW165018   2.528   4.176  10.614 -0.2779  0.4615  0.3031
19471SOL    HW265019   2.618   4.264  10.530  0.0609 -1.4306 -1.3797
19472SOL     OW65020   7.217   2.494  10.303  0.2889  0.3675 -0.2643
19472SOL    HW165021   7.221   2.589  10.292 -0.7023  0.3120 -1.3157
19472SOL    HW265022   7.239   2.479  10.395  1.5895  1.5085 -0.3538
19473SOL     OW65023   6.552   6.344   1.681  0.8603 -0.4748 -0.5248
19473SOL    HW165024   6.457   6.354   1.677  0.6535 -1.6958  0.7574
19473SOL    HW265025   6.578   6.396   1.757  1.3063  0.2551 -1.1554
19474SOL     OW65026   0.486   4.693  10.391 -0.5374  0.0322  0.4921
19474SOL    HW165027   0.464   4.783  10.414  1.2423  0.4424  0.6751
19474SOL    HW265028   0.403   4.655  10.361 -1.0162  2.1766 -1.0900
19475SOL     OW65029   4.721   2.778   2.733  0.2350 -0.2811 -0.0709
19475SOL    HW165030   4.781   2.708   2.709 -1.0136 -2.2199  2.0065
19475SOL    HW265031   4.651   2.773   2.667 -0.4577 -1.9117  0.7090
19476SOL     OW65032   8.902  11.498   1.669  0.1700  0.4861 -0.0093
19476SOL    HW165033   8.842  11.547   1.726 -0.0606  1.1355 -0.7856
19476SOL    HW265034   8.977  11.557   1.657 -0.6022  1.1824 -1.8603
19477SOL     OW65035   5.061   1.773   9.974 -0.6740  0.6857 -0.6096
19477SOL    HW165036   5.117   1.749  10.047 -3.6125  1.8326  2.2474
19477SOL    HW265037   5.112   1.837   9.924  1.8950 -1.0455 -0.4111
19478SOL     OW65038   2.775   6.638   1.693  0.4580 -0.1362  0.3787
19478SOL    HW165039   2.688   6.637   1.732  0.4996 -2.3691  0.5145
19478SOL    HW265040   2.760   6.620   1.600  0.7302  0.1330  0.2810
19479SOL     OW65041   6.106   1.273   2.565  0.4045 -0.1136 -0.3589
19479SOL    HW165042   6.156   1.355   2.563 -0.2976  0.3318 -0.2377
19479SOL    HW265043   6.142   1.225   2.639  0.0018  0.6397  0.3480
19480SOL     OW65044  11.378   3.055   8.875  0.4563  0.5242  0.1414
19480SOL    HW165045  11.360   2.971   8.916 -0.6383  1.2530  1.2313
19480SOL    HW265046  11.376   3.118   8.947  1.4205  1.4723 -0.6225
19481SOL     OW65047   1.045   8.846   3.041 -0.0890 -0.2243 -0.0127
19481SOL    HW165048   1.028   8.916   3.104  0.5184 -0.3680  0.3177
19481SOL    HW265049   0.966   8.793   3.042  0.3857 -0.9579  1.5893
19482SOL     OW65050  11.434   5.732   2.717  0.3312 -0.3993 -0.0742
19482SOL    HW165051  11.374   5.783   2.771 -0.6297 -1.9257  0.3570
19482SOL    HW265052  11.397   5.736   2.629  1.8736  2.0521 -0.7130
19483SOL     OW65053  12.726  12.414   7.038 -1.3644 -0.3377  0.3983
19483SOL    HW165054  12.821  12.419   7.027 -1.4016  0.0907  0.2715
19483SOL    HW265055  12.691  12.415   6.949 -1.4866 -0.6022  0.4404
19484SOL     OW65056   0.908   8.463   5.463 -0.2780 -0.1231  0.2090
19484SOL    HW165057   1.003   8.472   5.456  0.0428 -3.0098 -0.2707
19484SOL    HW265058   0.873   8.537   5.413  1.6784  1.3042  0.8588
19485SOL     OW65059   6.733   0.822  11.140 -0.2268  0.3480 -0.0207
19485SOL    HW165060   6.812   0.781  11.106 -0.1358  1.6386 -1.4835
19485SOL    HW265061   6.735   0.805  11.234  0.1427 -2.3424 -0.4470
19486SOL     OW65062   2.000   0.377   2.228 -0.0863  0.4839  0.3844
19486SOL    HW165063   1.938   0.344   2.294 -1.1769  0.4144 -0.6371
19486SOL    HW265064   2.048   0.299   2.200  0.9380  0.6389  1.6333
19487SOL     OW65065   1.319  11.568   7.682  0.5540  0.1211 -0.7583
19487SOL    HW165066   1.259  11.639   7.658  0.2746  0.5216  0.9623
19487SOL    HW265067   1.386  11.611   7.736  0.7374 -0.8114 -0.2299
19488SOL     OW65068   0.583  10.976   1.590 -0.0618 -0.3231 -0.0882
19488SOL    HW165069   0.632  10.933   1.660 -0.1507  2.1858  1.6501
19488SOL    HW265070   0.506  10.920   1.577  0.5377 -1.4541  0.9801
19489SOL     OW65071   4.594  10.695  11.720 -0.0134 -0.3175 -0.5673
19489SOL    HW165072   4.594  10.637  11.643  0.7770 -2.3705  0.8653
19489SOL    HW265073   4.501  10.708  11.739 -0.2240 -1.3117 -0.8151
19490SOL     OW65074   2.647   3.056   5.200  0.1219 -0.6034  0.2700
19490SOL    HW165075   2.719   2.993   5.192  0.1595 -0.5420  0.1228
19490SOL    HW265076   2.578   3.008   5.245  0.9304 -0.0964  2.1187
19491SOL     OW65077   4.462  10.073   9.444  0.1730 -0.4102  0.0877
19491SOL    HW165078   4.486  10.117   9.526  2.5248  0.6822 -1.0861
19491SOL    HW265079   4.413  10.139   9.395 -1.5858 -1.1919  0.6778
19492SOL     OW65080   7.096   3.075   4.094  0.0958  0.1208 -0.1663
19492SOL    HW165081   7.022   3.117   4.051  0.6326  1.1872 -0.0843
19492SOL    HW265082   7.171   3.092   4.037  0.3515 -0.6550 -0.0813
19493SOL     OW65083   1.506   9.043   2.571 -0.0522 -0.0870  0.0114
19493SOL    HW165084   1.599   9.035   2.550 -0.3172 -0.0229 -1.3148
19493SOL    HW265085   1.498   9.126   2.617  0.7201 -0.7152  1.3557
19494SOL     OW65086   9.191   0.331   6.920 -0.5548 -0.0468 -0.2920
19494SOL    HW165087   9.211   0.407   6.974 -0.6669 -1.4252  1.7936
19494SOL    HW265088   9.270   0.315   6.869  0.0834  0.4498  0.5240
19495SOL     OW65089  12.377   3.173   8.540  0.4497 -0.6046  0.0695
19495SOL    HW165090  12.352   3.215   8.623  0.1967 -0.3804 -0.1194
19495SOL    HW265091  12.304   3.191   8.481  0.4998 -1.0154 -0.1191
19496SOL     OW65092   2.507   8.300   9.869  0.4581  0.3459 -0.2363
19496SOL    HW165093   2.552   8.239   9.811  0.3906 -0.4742  0.5493
19496SOL    HW265094   2.547   8.285   9.955 -1.1957 -0.2761  0.4468
19497SOL     OW65095   2.373  11.697  10.969  0.1228 -0.6513  0.4131
19497SOL    HW165096   2.297  11.753  10.957 -0.7092 -1.5841  1.1733
19497SOL    HW265097   2.441  11.756  11.003 -1.5310 -0.5025  3.8675
19498SOL     OW65098   1.733   9.627   5.159 -0.8857  0.4278 -0.3493
19498SOL    HW165099   1.643   9.659   5.164 -0.6977  0.7311  2.1758
19498SOL    HW265100   1.765   9.631   5.249  2.0266  1.4009 -1.3112
19499SOL     OW65101   9.080  11.480   3.083  0.6099  0.6398 -0.3831
19499SOL    HW165102   9.049  11.408   3.139 -3.7152 -0.5030 -3.7048
19499SOL    HW265103   9.167  11.451   3.053  0.4232 -1.5832  0.9967
19500SOL     OW65104   0.390   6.171   2.005 -0.1421  0.1842 -0.5855
19500SOL    HW165105   0.318   6.110   2.024  0.0950  0.7981  2.9112
19500SOL    HW265106   0.450   6.120   1.950 -1.6101 -1.4931 -0.7215
19501SOL     OW65107  10.082   8.002   2.634  0.0371 -0.1796  0.1719
19501SOL    HW165108  10.141   8.066   2.593 -0.1396 -1.2494 -1.8448
19501SOL    HW265109  10.048   8.048   2.711 -0.6832  2.4920 -1.5857
19502SOL     OW65110   4.405   4.854  10.728  0.3471  0.0908  0.2936
19502SOL    HW165111   4.441   4.911  10.659  0.7746  1.0567  1.2788
19502SOL    HW265112   4.333   4.905  10.765  0.0352 -0.4805  0.4773
19503SOL     OW65113   2.405   9.947  12.276  0.5013  0.1136 -0.2299
19503SOL    HW165114   2.374   9.916  12.191 -0.8360  2.1712 -0.5532
19503SOL    HW265115   2.337   9.920  12.337 -0.2955  1.6594 -0.3985
19504SOL     OW65116   0.104   7.699   3.425 -0.3309 -0.2468 -0.4834
19504SOL    HW165117   0.097   7.706   3.520  0.8719 -0.2113 -0.3777
19504SOL    HW265118   0.193   7.667   3.409 -0.0664  0.9378 -1.6317
19505SOL     OW65119   4.773   1.273  10.738  0.5507  0.0065 -0.7781
19505SOL    HW165120   4.686   1.292  10.774 -0.0244 -1.1123 -1.5195
19505SOL    HW265121   4.757   1.207  10.670  2.1852 -1.8433  0.5174
19506SOL     OW65122   4.858   8.503   2.458 -0.3939 -0.4856  0.2856
19506SOL    HW165123   4.904   8.585   2.438  2.4974 -2.1764 -0.5200
19506SOL    HW265124   4.902   8.469   2.535  0.7836 -2.8462 -1.3145
19507SOL     OW65125   2.532  11.074   0.885 -0.0870  0.0033  0.2901
19507SOL    HW165126   2.502  11.136   0.819  0.2598  0.2317  0.3457
19507SOL    HW265127   2.575  11.005   0.835 -0.7886 -0.3809  0.2025
19508SOL     OW65128   4.252  11.388   6.924  0.1030  0.8517 -0.1398
19508SOL    HW165129   4.250  11.372   7.019 -1.6286 -2.1475 -0.5352
19508SOL    HW265130   4.178  11.447   6.909 -2.0998 -1.6392  0.1158
19509SOL     OW65131   2.925   1.271   8.427 -0.1329 -0.0433 -0.3577
19509SOL    HW165132   2.903   1.269   8.520  0.2375  2.3852 -0.1408
19509SOL    HW265133   2.846   1.305   8.384  0.0967 -0.0187 -0.7687
19510SOL     OW65134  10.901   0.775   0.807  0.2523 -0.2955  0.3805
19510SOL    HW165135  10.904   0.870   0.798 -0.9190 -0.0129  2.4131
19510SOL    HW265136  10.862   0.744   0.725 -1.0362  1.1545  0.4071
19511SOL     OW65137   1.568   5.593   0.505  0.1545  0.1376  0.1327
19511SOL    HW165138   1.481   5.558   0.486  0.6734 -0.5253 -1.1813
19511SOL    HW265139   1.628   5.528   0.468  1.1920  1.2486 -0.1874
19512SOL     OW65140  12.423  12.156   9.499  0.1272 -0.3218  0.1248
19512SOL    HW165141  12.408  12.142   9.406  0.0761  0.1257  0.0644
19512SOL    HW265142  12.505  12.205   9.503 -0.2594  0.3176  0.2770
19513SOL     OW65143   8.880  11.024   3.823  0.1041  0.2387 -0.1496
19513SOL    HW165144   8.863  10.950   3.764  0.4547  1.7547 -2.2795
19513SOL    HW265145   8.971  11.014   3.849  0.1724 -0.0613 -0.4994
19514SOL     OW65146   4.922   1.513   6.174 -0.2491  0.4440  0.0693
19514SOL    HW165147   4.826   1.513   6.164 -0.2591  0.3349  0.1724
19514SOL    HW265148   4.938   1.473   6.259 -0.0433 -1.0874 -0.6418
19515SOL     OW65149   5.361  10.319   6.110  0.5384  0.1784 -0.0975
19515SOL    HW165150   5.316  10.373   6.045  0.5733 -0.6051 -0.7803
19515SOL    HW265151   5.387  10.382   6.178  0.0364  0.9261 -0.5717
19516SOL     OW65152  10.284   5.509   9.798 -0.7639  0.2248  0.1624
19516SOL    HW165153  10.247   5.517   9.886  1.5944 -2.5688  1.5974
19516SOL    HW265154  10.343   5.585   9.790  1.8150 -1.2970  2.6928
19517SOL     OW65155   1.606   1.690   4.207 -0.1026  0.0775 -0.1299
19517SOL    HW165156   1.515   1.676   4.178 -0.3563 -0.4000  0.8595
19517SOL    HW265157   1.609   1.782   4.233  0.2314  0.6324 -1.9590
19518SOL     OW65158   6.511   4.842   2.068  0.2603  0.3176 -0.2280
19518SOL    HW165159   6.443   4.910   2.069 -0.8069 -0.6422 -2.0364
19518SOL    HW265160   6.578   4.876   2.008 -0.6706 -0.5062 -1.8109
19519SOL     OW65161   3.684   0.810   0.484  0.5559  0.0866 -0.4204
19519SOL    HW165162   3.732   0.727   0.484  0.9088  0.2882  0.0154
19519SOL    HW265163   3.684   0.837   0.392  0.5579 -0.3281 -0.5467
19520SOL     OW65164   3.360   1.173   8.186  0.2078  0.3921 -0.2146
19520SOL    HW165165   3.276   1.183   8.231  0.7270  2.5564  0.4019
19520SOL    HW265166   3.386   1.083   8.203 -1.5622 -0.0699  0.3046
19521SOL     OW65167   5.376   4.135   0.491  0.2528  0.3712  0.3117
19521SOL    HW165168   5.336   4.064   0.440 -2.6938  1.2776  1.1079
19521SOL    HW265169   5.440   4.092   0.547  0.7620 -1.1831 -1.3736
19522SOL     OW65170   0.837  10.304   7.012 -0.3778  0.3236  0.1845
19522SOL    HW165171   0.910  10.340   7.061  0.4364 -0.7223 -0.2273
19522SOL    HW265172   0.877  10.262   6.935 -1.3649 -0.5422  0.1147
19523SOL     OW65173   9.910   2.037   0.387  0.8012 -0.3377  0.2098
19523SOL    HW165174   9.899   2.113   0.444 -1.4396  0.2860 -0.9413
19523SOL    HW265175   9.862   1.966   0.431 -2.0483  0.4708 -1.3436
19524SOL     OW65176   8.541   6.130   5.282 -0.3316 -0.1572 -0.3404
19524SOL    HW165177   8.509   6.041   5.296  0.3393 -0.3714 -0.1016
19524SOL    HW265178   8.475   6.171   5.226 -0.5308 -0.8776 -0.6426
19525SOL     OW65179   3.350   0.023  10.927  0.1662 -0.1024  0.2129
19525SOL    HW165180   3.257   0.005  10.914 -0.0337  1.1350 -0.1388
19525SOL    HW265181   3.374   0.083  10.856  0.7298  1.2244  1.4642
19526SOL     OW65182   8.399   5.881   5.270 -0.0492  0.2982  0.6561
19526SOL    HW165183   8.369   5.793   5.296 -1.1909  1.1596  2.4357
19526SOL    HW265184   8.386   5.884   5.175  0.6734 -1.6675  0.4375
19527SOL     OW65185   7.665   5.971   1.920 -0.0671 -0.1503 -0.7085
19527SOL    HW165186   7.744   6.023   1.904 -0.5013  0.3030 -1.4721
19527SOL    HW265187   7.697   5.884   1.944  0.6741  0.4914  0.7314
19528SOL     OW65188   8.922   6.861   5.647  0.6888 -0.6631 -0.8860
19528SOL    HW165189   8.892   6.799   5.714 -0.1877 -1.5336 -2.0515
19528SOL    HW265190   8.861   6.935   5.653  1.4501 -0.0855  0.1822
19529SOL     OW65191   4.369   4.056   7.804  0.4086 -0.1049 -0.0575
19529SOL    HW165192   4.358   4.128   7.742  0.4267  1.5145  1.7273
19529SOL    HW265193   4.306   4.073   7.873  0.3345 -1.8917  0.3726
19530SOL     OW65194   1.114   2.456   4.617 -0.3040 -0.1104 -0.1078
19530SOL    HW165195   1.167   2.455   4.697  0.5780  1.0050 -0.6457
19530SOL    HW265196   1.029   2.490   4.645 -0.2867 -0.5433  0.5032
19531SOL     OW65197  11.540   6.671   2.751  0.5778  0.0155 -0.2361
19531SOL    HW165198  11.611   6.689   2.814  2.1460 -0.8419 -1.6675
19531SOL    HW265199  11.564   6.587   2.712 -1.3932 -0.4087 -0.6194
19532SOL     OW65200   8.659   2.477   0.042 -0.0810  0.3880  0.2653
19532SOL    HW165201   8.697   2.389   0.049 -0.5421  0.2331  1.0174
19532SOL    HW265202   8.733   2.534   0.024  0.2128 -0.1672 -0.3195
19533SOL     OW65203  12.129   6.901  10.156  0.3144  0.4466  0.1506
19533SOL    HW165204  12.132   6.820  10.207 -0.3550  0.1224 -0.3078
19533SOL    HW265205  12.064   6.956  10.199  1.5155  1.1977  1.0849
19534SOL     OW65206   0.866   4.806   0.847 -0.1227  0.1577  0.5251
19534SOL    HW165207   0.937   4.791   0.783 -0.7955  0.3493 -0.2845
19534SOL    HW265208   0.797   4.746   0.820 -0.4777  0.3649  0.9717
19535SOL     OW65209  12.200   5.620  11.213 -0.3341  0.0600 -0.2831
19535SOL    HW165210  12.228   5.529  11.223  0.2146  0.2852  0.2824
19535SOL    HW265211  12.275   5.672  11.242 -1.0663  0.6801  0.5530
19536SOL     OW65212   3.619  12.106   7.739 -0.1958 -0.4418  0.6701
19536SOL    HW165213   3.689  12.166   7.714 -1.4625  0.3990 -1.0522
19536SOL    HW265214   3.621  12.037   7.673 -1.4791  0.0377  0.0882
19537SOL     OW65215  10.481  12.187  10.864 -0.1482 -0.2647 -0.4436
19537SOL    HW165216  10.458  12.277  10.842  3.5819  1.3814  1.5135
19537SOL    HW265217  10.397  12.146  10.887 -1.7926  3.3587  0.7490
19538SOL     OW65218   7.784   3.179   1.765 -0.1082 -0.0745 -0.1417
19538SOL    HW165219   7.703   3.229   1.759 -1.7794 -2.7493 -2.9818
19538SOL    HW265220   7.765   3.111   1.829  0.0131 -0.4259 -0.4709
19539SOL     OW65221   0.883   0.153   1.878 -0.4596 -0.1339  0.0156
19539SOL    HW165222   0.893   0.066   1.840 -0.3994  0.8963 -2.5908
19539SOL    HW265223   0.970   0.175   1.912 -0.9476 -1.7953  2.5116
19540SOL     OW65224   2.831   6.561  11.964  0.0162 -0.2342  0.1476
19540SOL    HW165225   2.868   6.532  11.880 -1.2104  0.1229 -0.5398
19540SOL    HW265226   2.751   6.608  11.940  1.6424  3.4564  1.1893
19541SOL     OW65227   2.425   0.389   6.555  0.0467 -0.3204 -0.0178
19541SOL    HW165228   2.436   0.478   6.520  1.0043  0.5049  2.1948
19541SOL    HW265229   2.342   0.392   6.601  1.5331  0.5218  2.8363
19542SOL     OW65230   1.762  10.085   5.122 -0.3535  0.0558 -0.5929
19542SOL    HW165231   1.691  10.042   5.074 -1.6650 -0.1390  1.4191
19542SOL    HW265232   1.770  10.035   5.203 -0.9767  2.6859  1.2159
19543SOL     OW65233   8.133   8.218   9.904 -0.6910 -0.3701  0.1070
19543SOL    HW165234   8.196   8.275   9.860 -0.5293 -0.7560 -0.1674
19543SOL    HW265235   8.158   8.221   9.996  2.1366 -3.4419 -0.3833
19544SOL     OW65236   8.432   1.833  12.724 -0.2470  0.0756 -0.0966
19544SOL    HW165237   8.395   1.764  12.669 -2.1136 -1.0252  2.3443
19544SOL    HW265238   8.503   1.791  12.771 -0.7765  0.0413  0.7002
19545SOL     OW65239   1.727   4.897   7.367 -0.6183 -0.0520  0.0478
19545SOL    HW165240   1.655   4.889   7.430 -0.0951  0.8632  0.7800
19545SOL    HW265241   1.775   4.814   7.375 -0.9101 -0.1889  0.4165
19546SOL     OW65242   4.700   6.736   7.248 -0.2522  0.6747 -0.0173
19546SOL    HW165243   4.607   6.747   7.227 -0.5180 -2.3999 -0.9227
19546SOL    HW265244   4.706   6.751   7.342 -1.6011  1.2069 -0.0030
19547SOL     OW65245   1.385   9.233   1.090 -0.3748 -0.1390 -0.0562
19547SOL    HW165246   1.476   9.215   1.116 -0.9149 -0.9991  1.3448
19547SOL    HW265247   1.388   9.242   0.995  1.8521  3.7423  0.1457
19548SOL     OW65248   6.387  12.313   7.869  0.1225 -0.0558  0.0336
19548SOL    HW165249   6.421  12.279   7.952  1.6403  0.2621 -0.4182
19548SOL    HW265250   6.463  12.353   7.827 -1.0294  1.5661 -0.6195
19549SOL     OW65251   3.773  10.743   4.509 -0.0234  0.0640 -0.4455
19549SOL    HW165252   3.851  10.774   4.556 -0.6676  0.5576  0.3161
19549SOL    HW265253   3.807  10.677   4.448  1.2038  1.3847 -1.2335
19550SOL     OW65254   4.960   6.784   7.579 -0.1488  0.4193 -0.7084
19550SOL    HW165255   4.970   6.813   7.670  0.1841  0.1598 -0.6642
19550SOL    HW265256   5.029   6.829   7.531  1.9158 -2.0778 -0.2409
19551SOL     OW65257   3.384  10.099   8.463 -0.0440  0.4376 -0.4259
19551SOL    HW165258   3.460  10.096   8.521  0.0646  0.4629 -0.5686
19551SOL    HW265259   3.414  10.061   8.380 -0.8992 -2.1541  0.3240
19552SOL     OW65260   2.757  11.183   5.996  0.0112 -0.5537  0.0844
19552SOL    HW165261   2.727  11.149   6.081  0.9229 -1.0324  0.2317
19552SOL    HW265262   2.779  11.105   5.946 -0.2787 -0.2592 -0.5091
19553SOL     OW65263   3.702   3.693  11.842  0.0457 -0.0233 -0.2973
19553SOL    HW165264   3.622   3.706  11.893 -0.1114 -1.8732  0.0055
19553SOL    HW265265   3.773   3.706  11.906 -0.0533  0.2789 -0.2472
19554SOL     OW65266  12.092   5.564  11.823  0.1009  0.2006  0.0106
19554SOL    HW165267  12.108   5.481  11.868 -0.6922 -0.4351 -0.8310
19554SOL    HW265268  12.111   5.546  11.731  1.6905  1.4751  0.0445
19555SOL     OW65269   6.292   6.987   1.716  0.4457 -0.0555  0.1596
19555SOL    HW165270   6.351   6.932   1.768  0.3728 -0.8525 -0.5836
19555SOL    HW265271   6.302   6.956   1.626 -1.2151 -0.3173  0.0288
19556SOL     OW65272   7.293   8.940   0.953 -0.3606  0.3024  0.4934
19556SOL    HW165273   7.282   9.011   1.015  0.4624  1.4576 -0.6259
19556SOL    HW265274   7.381   8.906   0.970 -0.5343 -0.0856  0.6435
19557SOL     OW65275  11.134   5.724   2.230  0.2709 -0.0626 -0.1852
19557SOL    HW165276  11.092   5.751   2.149 -0.2716  0.6927  0.3283
19557SOL    HW265277  11.137   5.628   2.225  0.5771 -0.0094 -1.2470
19558SOL     OW65278   7.081   9.371   6.958 -0.0542 -0.6056 -0.3873
19558SOL    HW165279   7.085   9.357   6.864 -3.3566  0.1904 -0.7874
19558SOL    HW265280   7.083   9.467   6.968  1.1220 -0.6978  0.4522
19559SOL     OW65281   8.395   1.320   2.420 -0.0800 -0.1227  0.5923
19559SOL    HW165282   8.488   1.302   2.404 -0.2109  0.6117 -1.1920
19559SOL    HW265283   8.349   1.255   2.368 -0.5859 -0.7787  1.8411
19560SOL     OW65284  11.659   6.545  10.816 -0.4940 -0.3032 -0.1129
19560SOL    HW165285  11.595   6.479  10.788 -0.8802 -0.6863  1.5326
19560SOL    HW265286  11.673   6.526  10.909  1.9346 -0.1340 -0.3868
19561SOL     OW65287   7.510   1.918   5.329  0.0487  0.2844  0.7255
19561SOL    HW165288   7.500   1.823   5.328  0.1940  0.2170 -1.9193
19561SOL    HW265289   7.581   1.934   5.391  1.4869 -1.5535 -0.3565
19562SOL     OW65290   1.842   7.806   3.108 -0.4471 -0.6688  0.0652
19562SOL    HW165291   1.829   7.720   3.070 -0.5448 -0.8459  0.4962
19562SOL    HW265292   1.760   7.826   3.152 -0.6538 -0.0777 -0.5677
19563SOL     OW65293   2.185   0.623   3.354  0.3028  0.3050 -0.7155
19563SOL    HW165294   2.124   0.570   3.405  1.2277 -1.0396 -0.9420
19563SOL    HW265295   2.206   0.697   3.411 -0.0377 -0.2445  0.1476
19564SOL     OW65296  10.105  10.173   0.032 -0.2389 -0.3816 -0.4158
19564SOL    HW165297  10.063  10.175  -0.054  1.2212 -0.4219 -1.1713
19564SOL    HW265298  10.193  10.206   0.016 -0.0468 -0.0615  1.1439
19565SOL     OW65299   8.050  10.388   8.288 -0.1019  0.5111 -0.1731
19565SOL    HW165300   7.980  10.350   8.341 -0.5675  2.2342  0.4991
19565SOL    HW265301   8.086  10.313   8.240 -0.1864 -0.9888  1.9502
19566SOL     OW65302   4.515   9.564   1.768 -0.2221  0.2434  0.1061
19566SOL    HW165303   4.469   9.559   1.684  0.4799 -2.2689 -0.2141
19566SOL    HW265304   4.455   9.523   1.830 -0.4100  1.3922  0.7105
19567SOL     OW65305  12.784  12.279  11.573  0.6715 -0.7291  0.3609
19567SOL    HW165306  12.849  12.269  11.503  2.5614  0.4205  1.8444
19567SOL    HW265307  12.805  12.211  11.636  0.5520 -0.2475  0.9315
19568SOL     OW65308  11.073   2.115   2.146  0.4182 -0.2146  0.0301
19568SOL    HW165309  10.991   2.132   2.191  0.2259 -0.2931 -0.2862
19568SOL    HW265310  11.104   2.033   2.183  2.4294  1.7193  3.1392
19569SOL     OW65311   3.590   0.857  12.590 -0.2515 -0.7115 -0.4007
19569SOL    HW165312   3.632   0.804  12.657  0.5367  0.2013 -0.1554
19569SOL    HW265313   3.496   0.845  12.604 -0.1039 -0.2738  1.0815
19570SOL     OW65314   9.647   3.584  10.914 -0.3886 -0.2450 -0.1734
19570SOL    HW165315   9.713   3.516  10.924 -0.2604 -0.0692  0.2082
19570SOL    HW265316   9.564   3.540  10.930 -0.5954 -0.9539 -2.7374
19571SOL     OW65317   0.281   3.139   1.765  0.4423 -0.1647 -0.0818
19571SOL    HW165318   0.197   3.130   1.810  1.3498 -0.2530  1.6740
19571SOL    HW265319   0.302   3.051   1.734  0.3673 -0.3508  0.3904
19572SOL     OW65320   4.625   8.864   1.671 -0.4403  0.1126  0.4002
19572SOL    HW165321   4.571   8.826   1.740 -1.0036  2.7977  1.5617
19572SOL    HW265322   4.646   8.952   1.702  3.5211 -0.2573 -0.5903
19573SOL     OW65323   9.835   6.328  10.845 -0.1578  0.1173 -0.4001
19573SOL    HW165324   9.756   6.325  10.791  1.0966 -0.4405 -2.2824
19573SOL    HW265325   9.907   6.306  10.786  1.7687  3.0066  0.5944
19574SOL     OW65326  11.701   2.019   3.224  0.1044  0.0503  0.2824
19574SOL    HW165327  11.703   2.034   3.130 -0.4016  0.8035  0.3771
19574SOL    HW265328  11.744   1.935   3.237 -1.5030 -0.9879 -0.8030
19575SOL     OW65329   8.371  10.122   4.224 -0.0833  0.2246 -0.6619
19575SOL    HW165330   8.392  10.175   4.148  1.2432  0.0747 -0.4297
19575SOL    HW265331   8.439  10.054   4.226 -0.1569  0.1520  0.5697
19576SOL     OW65332   8.005   0.123  10.263  0.3720 -0.2048 -0.1067
19576SOL    HW165333   7.996   0.216  10.243  0.8211  0.0301  0.7433
19576SOL    HW265334   7.919   0.098  10.298 -0.0581 -0.3531 -1.2294
19577SOL     OW65335   1.316   1.625   3.380 -0.2075  0.0420  1.1144
19577SOL    HW165336   1.282   1.548   3.425 -0.6251  0.1027  0.9034
19577SOL    HW265337   1.241   1.685   3.374  0.4938  1.1473  2.7319
19578SOL     OW65338   9.562  12.706   1.085 -0.1297  0.3107  0.6249
19578SOL    HW165339   9.472  12.690   1.112 -0.1619  0.3280  0.5267
19578SOL    HW265340   9.585  12.789   1.127 -0.1243  0.2537  0.7354
19579SOL     OW65341   6.548   8.626   5.254 -0.2498  0.0599 -0.2534
19579SOL    HW165342   6.569   8.611   5.346 -2.2146 -0.7968  0.1028
19579SOL    HW265343   6.453   8.622   5.251 -0.2433  0.6928 -2.2393
19580SOL     OW65344   1.348   1.741   4.147  0.1004 -0.0337 -0.1895
19580SOL    HW165345   1.334   1.740   4.052 -2.0531 -1.0843  0.0754
19580SOL    HW265346   1.288   1.808   4.179  1.9767  1.5004  0.3740
19581SOL     OW65347   0.011   9.990   7.136  0.2073 -0.3359 -0.3220
19581SOL    HW165348  -0.079  10.011   7.162  0.2380 -1.7818  1.1290
19581SOL    HW265349   0.043   9.934   7.207  2.2912  0.2233 -0.7674
19582SOL     OW65350  10.518   8.005   6.078  0.1266 -0.0845  0.2867
19582SOL    HW165351  10.496   7.968   5.992  0.0481  1.2620 -0.3001
19582SOL    HW265352  10.546   8.095   6.059  2.2209 -0.4215  1.4311
19583SOL     OW65353   2.351   9.017   6.182 -0.1337  0.3080 -0.6101
19583SOL    HW165354   2.350   9.099   6.231  1.6132 -0.4651  0.8043
19583SOL    HW265355   2.436   9.015   6.139  0.7555 -1.6485  1.0547
19584SOL     OW65356   6.740   2.005  12.143  0.0567  0.1167  0.3296
19584SOL    HW165357   6.678   1.980  12.211 -1.4892 -0.2883 -1.1687
19584SOL    HW265358   6.696   1.985  12.061  1.0722  2.3386 -0.8654
19585SOL     OW65359   0.281   1.188   8.139  0.3859 -0.0658 -0.0026
19585SOL    HW165360   0.261   1.263   8.196  0.7640 -0.0584  0.1249
19585SOL    HW265361   0.324   1.125   8.197 -1.3690 -1.0806  0.2766
19586SOL     OW65362   1.278   4.758   8.783 -0.0985 -0.4350 -0.4964
19586SOL    HW165363   1.281   4.846   8.821  0.8313 -1.3926  1.8101
19586SOL    HW265364   1.358   4.753   8.730  0.7522 -0.4666  0.7693
19587SOL     OW65365   5.608   1.358   6.768  0.1596 -0.0035 -0.2347
19587SOL    HW165366   5.691   1.369   6.815  0.2452 -1.7248  0.0616
19587SOL    HW265367   5.542   1.383   6.832  0.3352 -1.2592  0.4669
19588SOL     OW65368  10.840   3.244  12.071 -0.2749 -0.1962 -0.4925
19588SOL    HW165369  10.757   3.199  12.057 -0.7222  1.2528 -3.2384
19588SOL    HW265370  10.815   3.336  12.082  0.9025  0.1218 -0.3366
19589SOL     OW65371   5.596   2.929  11.803 -0.3483 -0.0425 -0.0344
19589SOL    HW165372   5.669   2.889  11.755  0.1213  0.3646  0.3316
19589SOL    HW265373   5.628   3.016  11.828 -1.7221  1.0333 -1.7481
19590SOL     OW65374   0.300   1.151  12.360 -0.4180  0.2983 -0.6116
19590SOL    HW165375   0.233   1.195  12.308 -1.4197 -0.6882 -0.1870
19590SOL    HW265376   0.261   1.142  12.447  0.6181  0.4950 -0.1123
19591SOL     OW65377   2.159   8.846   4.660  0.1139  0.6670  0.1933
19591SOL    HW165378   2.190   8.918   4.604  1.5274  0.9015  1.1887
19591SOL    HW265379   2.221   8.846   4.734 -1.8488  0.6124  1.9418
19592SOL     OW65380   0.758   1.629   6.643 -0.2575 -0.0279  0.8290
19592SOL    HW165381   0.728   1.664   6.727  0.9126  0.5449  1.0361
19592SOL    HW265382   0.794   1.543   6.663 -0.0578  0.0729  0.9076
19593SOL     OW65383  10.080  10.987   5.799 -0.3511  0.0083  0.0067
19593SOL    HW165384  10.135  10.943   5.734  3.8174  2.1799  1.7087
19593SOL    HW265385  10.053  11.068   5.757  1.8125  1.1156  0.6231
19594SOL     OW65386   8.027   1.200   4.796 -0.4272 -0.0187 -0.5929
19594SOL    HW165387   7.998   1.114   4.826  0.9259 -0.3238 -0.0686
19594SOL    HW265388   7.995   1.206   4.706 -0.9818 -0.8454 -0.4679
19595SOL     OW65389  10.393   2.398   8.784 -0.3394  0.4316  0.2008
19595SOL    HW165390  10.416   2.451   8.860  0.1044  0.2769  0.1799
19595SOL    HW265391  10.474   2.351   8.762 -0.5108  0.3401 -0.2550
19596SOL     OW65392   5.015   8.818   1.066 -0.1257 -0.8597  0.2402
19596SOL    HW165393   5.107   8.804   1.044 -0.1560 -0.4418 -0.1906
19596SOL    HW265394   5.016   8.886   1.133 -0.1102 -0.9490  0.3296
19597SOL     OW65395   0.014  11.828   8.672 -0.2417 -0.3943  0.2091
19597SOL    HW165396  -0.015  11.764   8.607 -1.1717  0.0717  0.1488
19597SOL    HW265397   0.032  11.776   8.750  1.1519 -0.9976 -0.4648
19598SOL     OW65398  11.533   1.927   9.685 -0.1448  0.3728  0.2193
19598SOL    HW165399  11.438   1.934   9.687 -0.1067  0.7200  1.0676
19598SOL    HW265400  11.564   2.004   9.732  0.4646 -1.0987  2.3808
19599SOL     OW65401   6.026   9.337   2.590 -0.7613  0.3173  0.0972
19599SOL    HW165402   5.999   9.426   2.614  1.5256  1.3425 -0.8509
19599SOL    HW265403   5.943   9.291   2.575 -2.0658  1.7956  2.1395
19600SOL     OW65404   7.729   1.360  11.363 -0.2237 -0.0427 -0.0324
19600SOL    HW165405   7.716   1.388  11.272 -0.2876 -0.6252 -0.2067
19600SOL    HW265406   7.731   1.264  11.358 -2.5773 -0.2122  0.8540
19601SOL     OW65407   8.502  12.085   6.040  0.2570  0.5920  0.3510
19601SOL    HW165408   8.442  12.045   6.102  0.6052 -0.2585  0.1502
19601SOL    HW265409   8.587  12.044   6.058  1.1769  2.9230  1.7153
19602SOL     OW65410  10.081   1.351   2.759  0.0719  0.1225 -0.1532
19602SOL    HW165411  10.121   1.365   2.673 -0.3575  1.0509 -0.2174
19602SOL    HW265412  10.000   1.403   2.757  0.0651  0.1771  0.8113
19603SOL     OW65413   2.437   5.948   9.567 -0.7155 -0.5064 -0.4542
19603SOL    HW165414   2.441   5.965   9.473  1.4369  0.6422 -0.2150
19603SOL    HW265415   2.488   5.869   9.579 -0.6110 -0.3985 -0.1917
19604SOL     OW65416   1.785   2.185  12.738 -0.2492 -0.3869  0.3799
19604SOL    HW165417   1.819   2.123  12.673 -0.5323  0.6974 -0.8367
19604SOL    HW265418   1.702   2.147  12.766  0.0977 -1.1016  0.4855
19605SOL     OW65419   5.916  11.362   7.410  0.7171 -0.2237 -0.1990
19605SOL    HW165420   5.862  11.285   7.425 -0.0501  0.1633 -0.8672
19605SOL    HW265421   6.004  11.335   7.436  0.6026 -1.5521 -1.0844
19606SOL     OW65422   4.809   3.546   9.960  0.2866  0.1631  0.5064
19606SOL    HW165423   4.763   3.618   9.917  2.2886  0.0666 -1.9620
19606SOL    HW265424   4.886   3.587   9.999 -0.0722 -0.2195  1.6522
19607SOL     OW65425   1.913   6.462   2.020 -0.1133 -0.1313  0.0508
19607SOL    HW165426   1.939   6.390   1.963 -2.7997 -2.3122  1.3087
19607SOL    HW265427   1.821   6.444   2.041 -0.0688  2.0832  2.7992
19608SOL     OW65428  11.335   2.977   3.214  0.3277  0.4113  0.3878
19608SOL    HW165429  11.383   3.048   3.173 -2.1018  2.1443  0.3332
19608SOL    HW265430  11.275   2.946   3.147 -1.4265  1.0796  1.5664
19609SOL     OW65431   8.871   0.176   7.829 -0.4263  0.7340 -0.0396
19609SOL    HW165432   8.898   0.165   7.921  0.4543  1.4070 -0.2051
19609SOL    HW265433   8.808   0.106   7.814  0.2361 -0.0565  0.7663
19610SOL     OW65434   0.450   0.110   3.977  0.4725  0.8490 -0.1840
19610SOL    HW165435   0.448   0.117   3.882  1.1673  0.9409 -0.1989
19610SOL    HW265436   0.533   0.152   4.002 -0.5478  2.5045  0.6045
19611SOL     OW65437  10.634   1.409   1.779 -0.0786 -0.0343  0.4285
19611SOL    HW165438  10.555   1.442   1.737 -0.0994 -3.1443 -2.4840
19611SOL    HW265439  10.612   1.403   1.872 -2.1069  2.0069  0.1592
19612SOL     OW65440   4.564   2.415   3.799 -0.0729 -0.7819  0.2575
19612SOL    HW165441   4.544   2.381   3.712  1.0038 -1.8598  0.3974
19612SOL    HW265442   4.654   2.447   3.793 -0.3506  0.1064  0.7056
19613SOL     OW65443   7.885   4.613   4.478 -0.0776 -0.4377  0.3445
19613SOL    HW165444   7.894   4.688   4.537 -0.1681 -0.9755  1.0503
19613SOL    HW265445   7.969   4.569   4.482  0.2467  0.0559 -0.6849
19614SOL     OW65446   3.182   1.804   6.955  0.0389  0.0723 -0.1118
19614SOL    HW165447   3.087   1.794   6.947 -0.3720  0.4247  3.0501
19614SOL    HW265448   3.197   1.897   6.937 -0.1651 -0.0309 -0.8445
19615SOL     OW65449  11.911   0.852   2.749 -0.0285 -0.0553  0.1551
19615SOL    HW165450  11.995   0.898   2.742 -0.5765  0.7238 -2.4197
19615SOL    HW265451  11.848   0.921   2.772 -0.1797 -0.4204  0.8806
19616SOL     OW65452   4.513   3.727   2.479  0.3741 -0.4607  0.5420
19616SOL    HW165453   4.536   3.643   2.518 -0.6965 -1.4529 -0.8527
19616SOL    HW265454   4.420   3.738   2.498  0.6307  0.7405  1.2395
19617SOL     OW65455   1.657   2.794   3.400 -0.1806 -0.1472  0.1153
19617SOL    HW165456   1.633   2.848   3.475 -0.2964 -1.1195  0.7927
19617SOL    HW265457   1.699   2.855   3.339 -1.0655  0.8647  0.4927
19618SOL     OW65458   5.254   8.227   0.057  0.1744 -1.0712  0.2877
19618SOL    HW165459   5.301   8.266   0.130 -2.0307 -0.5128  1.5215
19618SOL    HW265460   5.240   8.299  -0.005 -1.5820 -0.4589  1.3268
19619SOL     OW65461   8.860  10.998   1.368 -0.0040 -0.8221 -0.5177
19619SOL    HW165462   8.767  11.007   1.390  0.2890 -0.1657  0.4971
19619SOL    HW265463   8.876  11.067   1.304  0.0208 -0.2522  0.0955
19620SOL     OW65464   6.426  10.839   1.077  0.0091 -0.4354  0.3869
19620SOL    HW165465   6.361  10.903   1.106 -0.0962 -0.2829 -0.1705
19620SOL    HW265466   6.386  10.754   1.096  0.3298 -0.3541  1.5286
19621SOL     OW65467  10.797   1.051   4.331 -0.3908  0.0649  0.2695
19621SOL    HW165468  10.877   1.094   4.299 -0.0503 -1.0075 -0.3863
19621SOL    HW265469  10.777   0.986   4.263 -2.3467  0.9145 -0.0326
19622SOL     OW65470   5.886   2.947   4.431  0.0081  0.2657 -0.0639
19622SOL    HW165471   5.860   2.997   4.509 -0.2172 -0.3771  0.2815
19622SOL    HW265472   5.807   2.899   4.406  0.7194 -1.4470  0.7968
19623SOL     OW65473   7.350  10.535   3.061 -0.1950 -0.0534  0.6235
19623SOL    HW165474   7.407  10.573   3.128  0.5000  0.0154  0.0067
19623SOL    HW265475   7.402  10.465   3.022 -0.7341 -0.3392  0.4097
19624SOL     OW65476  11.725   0.942   2.347 -0.5528  0.2096 -0.2752
19624SOL    HW165477  11.657   0.876   2.357 -0.6668  0.5041  1.0038
19624SOL    HW265478  11.776   0.912   2.272 -0.9516 -1.0149 -0.0753
19625SOL     OW65479   4.067   3.223   8.738  0.3968 -0.5743 -0.4690
19625SOL    HW165480   4.089   3.158   8.671  0.9579  0.2433 -1.1065
19625SOL    HW265481   4.129   3.295   8.722 -1.9349  1.3118 -1.5616
19626SOL     OW65482   3.574   6.167   1.768  0.7719 -0.3585  0.0372
19626SOL    HW165483   3.553   6.086   1.814 -0.7867 -1.4110 -2.3289
19626SOL    HW265484   3.656   6.149   1.723  0.4876 -0.5998 -0.3911
19627SOL     OW65485   0.972   5.775   4.808  0.0539 -0.3768  0.3883
19627SOL    HW165486   1.034   5.844   4.784  0.2591 -0.1909  1.4218
19627SOL    HW265487   1.027   5.696   4.816 -0.1721 -0.6667 -0.7405
19628SOL     OW65488   5.827   0.137   0.574  0.3279  0.5030 -0.1841
19628SOL    HW165489   5.884   0.213   0.569  1.8215 -0.4988  0.7911
19628SOL    HW265490   5.853   0.081   0.502 -1.2433  1.1702 -1.3292
19629SOL     OW65491   1.515  10.731   3.300  0.5260  0.3243  0.6956
19629SOL    HW165492   1.457  10.707   3.229 -0.2071  0.1036  1.3543
19629SOL    HW265493   1.583  10.664   3.299  1.5641  1.3215 -0.9225
19630SOL     OW65494   3.113  12.479   4.008  0.2230 -0.3356  0.1209
19630SOL    HW165495   3.180  12.410   4.003  1.9070  1.1751  0.6170
19630SOL    HW265496   3.162  12.560   3.995 -1.9702  0.7203 -2.3795
19631SOL     OW65497   3.839   0.116   2.103 -0.1295 -0.1707 -0.3522
19631SOL    HW165498   3.836   0.041   2.044 -1.8330 -1.2268  0.9859
19631SOL    HW265499   3.749   0.147   2.108  0.0186  0.1067  1.3666
19632SOL     OW65500   5.537  10.710   6.810  0.0037 -0.1270 -0.1325
19632SOL    HW165501   5.593  10.697   6.886 -0.7187 -1.6804  0.1876
19632SOL    HW265502   5.596  10.698   6.735  0.4949  0.2814  0.1813
19633SOL     OW65503   3.031   2.292   1.334  0.2298  0.3311  0.2223
19633SOL    HW165504   2.975   2.362   1.301  1.2234  0.7991 -0.5216
19633SOL    HW265505   2.974   2.215   1.338 -0.4218  0.7479 -0.6656
19634SOL     OW65506   1.981  11.662   4.670 -0.4013  0.3477  0.0898
19634SOL    HW165507   1.953  11.649   4.580 -2.2555 -0.1456  0.6986
19634SOL    HW265508   1.927  11.602   4.721  1.9902 -0.8714  1.3739
19635SOL     OW65509   9.233  11.162  12.207 -0.2147 -0.5062 -0.5467
19635SOL    HW165510   9.262  11.105  12.136  0.4247  0.3680 -1.0089
19635SOL    HW265511   9.263  11.249  12.182 -2.3376  0.2999 -0.5321
19636SOL     OW65512   8.193   5.635   1.308  0.0273  0.0418 -0.7465
19636SOL    HW165513   8.168   5.685   1.231 -0.1541 -0.2002 -0.8451
19636SOL    HW265514   8.144   5.674   1.380  0.8348  0.8166 -0.5984
19637SOL     OW65515   2.696   0.053   4.938 -0.1931 -0.5381  0.4115
19637SOL    HW165516   2.738   0.035   4.853 -1.6339  1.6872 -0.8687
19637SOL    HW265517   2.671  -0.034   4.970  1.8235 -1.5865 -0.6265
19638SOL     OW65518   1.382   0.806  10.210 -0.0443 -0.4432  0.2717
19638SOL    HW165519   1.337   0.832  10.129  0.1700 -0.7767  0.0425
19638SOL    HW265520   1.431   0.883  10.236 -0.2100 -0.2954  0.1504
19639SOL     OW65521   9.819   3.212   0.411  0.0801 -0.0657 -0.4925
19639SOL    HW165522   9.774   3.281   0.461 -0.5938 -2.0689  1.8379
19639SOL    HW265523   9.758   3.190   0.341 -0.1020  0.9958 -0.6975
19640SOL     OW65524   1.792   6.350   3.828  0.0253  0.1079  0.3869
19640SOL    HW165525   1.714   6.389   3.867 -0.3952  1.7004 -1.8477
19640SOL    HW265526   1.860   6.417   3.836  0.8816 -0.8218  1.2785
19641SOL     OW65527   6.810   2.351   3.000  0.0602 -0.3374 -0.3538
19641SOL    HW165528   6.827   2.287   2.931  2.3883  0.8526 -0.9913
19641SOL    HW265529   6.775   2.300   3.073  3.9655 -2.8270  0.0457
19642SOL     OW65530  10.035   9.135   6.753 -0.4698 -0.3540 -0.2340
19642SOL    HW165531  10.095   9.206   6.774  1.2967 -1.4986 -1.2514
19642SOL    HW265532  10.079   9.084   6.685 -1.8364 -2.2106  0.1748
19643SOL     OW65533   7.040   8.632   4.741  0.0859  0.5414 -0.1818
19643SOL    HW165534   7.022   8.725   4.754  1.4849  0.5277  2.4050
19643SOL    HW265535   7.129   8.630   4.706 -0.0412  0.1529 -0.4987
19644SOL     OW65536   5.960   4.321  11.351  0.2449  0.2350  0.7668
19644SOL    HW165537   5.878   4.347  11.310  0.5940  0.8702  0.4688
19644SOL    HW265538   6.019   4.395  11.337  1.6470 -1.1466 -1.1667
19645SOL     OW65539  10.665   3.478  12.721 -0.6742 -0.5962 -0.2391
19645SOL    HW165540  10.619   3.415  12.664 -1.6846 -0.3300  0.2514
19645SOL    HW265541  10.750   3.439  12.737 -0.5928 -0.9544 -1.4611
19646SOL     OW65542   0.834   3.897   4.166 -0.6351  0.5589 -0.8444
19646SOL    HW165543   0.812   3.804   4.158 -0.7062  0.3851  0.9558
19646SOL    HW265544   0.769   3.932   4.226 -0.2583  1.6501 -1.0543
19647SOL     OW65545  12.772   2.368   7.950 -0.1916 -0.1534  0.0928
19647SOL    HW165546  12.719   2.426   8.004 -0.4540  0.9221 -1.2791
19647SOL    HW265547  12.858   2.410   7.947  0.6828 -1.6821  1.9796
19648SOL     OW65548   5.270   1.643  10.114 -0.2111  0.4132 -0.4404
19648SOL    HW165549   5.310   1.579  10.055 -1.5799  0.0817 -1.0609
19648SOL    HW265550   5.224   1.591  10.180 -0.4055  0.7625 -0.2937
19649SOL     OW65551   1.670   8.625   7.358  0.1344 -0.3956 -0.1445
19649SOL    HW165552   1.592   8.571   7.371 -1.0606  0.8788 -1.6225
19649SOL    HW265553   1.694   8.654   7.446 -1.3405 -0.4423  0.2987
19650SOL     OW65554   9.466   6.723   0.373  0.1993 -0.0754 -0.5983
19650SOL    HW165555   9.515   6.783   0.429 -0.1184 -1.3574  1.1751
19650SOL    HW265556   9.532   6.682   0.318  0.6830  0.4646 -0.4335
19651SOL     OW65557   5.986   0.687   5.186  0.2616 -0.6918  0.1198
19651SOL    HW165558   5.990   0.770   5.235 -0.2345 -0.8907  0.5078
19651SOL    HW265559   5.892   0.672   5.172  0.4153 -0.3312 -1.4438
19652SOL     OW65560   5.550   3.733   6.976 -0.1822  0.0015  0.4060
19652SOL    HW165561   5.480   3.741   6.912 -1.4502  1.5707  1.8863
19652SOL    HW265562   5.529   3.655   7.027 -0.6464  0.2340  0.5752
19653SOL     OW65563   3.901   3.457   9.631 -0.0414  0.2367 -0.1186
19653SOL    HW165564   3.904   3.436   9.538  1.6705  1.4761 -0.3882
19653SOL    HW265565   3.989   3.486   9.652 -0.4449  0.1781  1.8665
19654SOL     OW65566  12.108   2.220  11.168 -0.3318  0.1579 -0.0115
19654SOL    HW165567  12.181   2.274  11.198 -0.3406  0.5274 -0.6205
19654SOL    HW265568  12.032   2.278  11.173 -0.1941  0.5208 -1.5219
19655SOL     OW65569   5.674   8.614   1.079  0.4241  0.2523  0.3880
19655SOL    HW165570   5.602   8.562   1.115 -0.0321  0.3196 -0.3929
19655SOL    HW265571   5.641   8.645   0.994  1.5800 -0.2152 -0.2594
19656SOL     OW65572   1.370   2.201   5.056 -0.0104 -0.3566  0.2508
19656SOL    HW165573   1.448   2.215   5.109  0.3176 -0.4657 -0.1975
19656SOL    HW265574   1.303   2.257   5.096  0.5773  0.5403  0.0185
19657SOL     OW65575   9.941  12.535  12.689 -0.9454 -0.6216  0.1256
19657SOL    HW165576   9.928  12.604  12.754 -0.9955 -0.4130 -0.1071
19657SOL    HW265577   9.933  12.453  12.739 -0.8841 -0.4599  0.3998
19658SOL     OW65578   3.170   3.795   3.410 -0.5048 -0.0468 -0.0905
19658SOL    HW165579   3.213   3.866   3.362  0.9321  0.4149  1.7419
19658SOL    HW265580   3.091   3.835   3.446  0.4676  0.8132  1.2178
19659SOL     OW65581   4.405   0.588  12.129  1.0788  0.7751 -0.2223
19659SOL    HW165582   4.406   0.660  12.191 -0.9985  1.5583 -1.0328
19659SOL    HW265583   4.379   0.512  12.180  0.2535  1.2384  0.0560
19660SOL     OW65584   5.438   9.639   9.754 -0.1363 -0.1420 -0.4270
19660SOL    HW165585   5.474   9.721   9.788 -0.2141  0.0185 -0.7297
19660SOL    HW265586   5.344   9.646   9.766  0.0180 -1.3424  2.1013
19661SOL     OW65587   2.426   7.616   0.525 -0.7879  0.0256 -0.4300
19661SOL    HW165588   2.477   7.660   0.456  0.4875  1.1806  1.1823
19661SOL    HW265589   2.454   7.524   0.520  0.4943  0.3881 -0.4546
19662SOL     OW65590  12.152  11.677   8.032 -0.3846 -0.0872 -0.1569
19662SOL    HW165591  12.071  11.627   8.044  0.4934 -1.6390 -0.4621
19662SOL    HW265592  12.126  11.768   8.045 -1.8049 -0.6853  1.6887
19663SOL     OW65593  11.646   0.447   5.635 -0.2148  0.7501  0.3020
19663SOL    HW165594  11.718   0.483   5.688  1.4816 -2.1597  0.2104
19663SOL    HW265595  11.690   0.399   5.566 -2.2870 -0.6743 -0.1052
19664SOL     OW65596   0.885  10.342  12.330  0.5950 -0.1526  0.7121
19664SOL    HW165597   0.938  10.291  12.390 -1.3553 -1.3944  1.4715
19664SOL    HW265598   0.798  10.344  12.370 -0.2786  0.6835 -1.1007
19665SOL     OW65599   6.625  10.317  10.043  0.3914 -0.6539  0.5861
19665SOL    HW165600   6.608  10.223  10.051 -0.7675 -0.6165 -0.9668
19665SOL    HW265601   6.595  10.353  10.127 -1.7932 -1.3721  0.1838
19666SOL     OW65602  12.396   9.501   3.667 -0.3174  0.7853  0.3560
19666SOL    HW165603  12.390   9.459   3.581 -0.8803  0.4392  0.5555
19666SOL    HW265604  12.476   9.466   3.706 -0.2632  0.6487  0.1210
19667SOL     OW65605   3.299   1.422   5.237  0.3685 -0.4398  0.4489
19667SOL    HW165606   3.257   1.396   5.155  3.6251 -1.0091 -1.1929
19667SOL    HW265607   3.230   1.411   5.303 -2.5314  0.4472 -2.1769
19668SOL     OW65608   2.715   3.088   4.776 -0.2662 -0.1808  0.3230
19668SOL    HW165609   2.700   3.005   4.821 -2.7374  0.5476  0.9698
19668SOL    HW265610   2.688   3.072   4.686 -0.2474 -0.2068  0.3219
19669SOL     OW65611   4.392  11.496  11.749 -0.3840  0.2824  0.2360
19669SOL    HW165612   4.402  11.590  11.759 -0.4016  0.4139 -0.8533
19669SOL    HW265613   4.459  11.471  11.685 -0.5881 -0.3937  0.2725
19670SOL     OW65614  10.327  11.066   0.736 -0.7630  0.3472 -0.0618
19670SOL    HW165615  10.376  11.074   0.654 -0.0642  2.3551  0.5077
19670SOL    HW265616  10.254  11.127   0.726 -0.2035  1.2318  1.1290
19671SOL     OW65617   6.773   4.159   5.555  0.6946  0.3467  0.7700
19671SOL    HW165618   6.703   4.140   5.617 -1.4504 -2.6773 -2.2096
19671SOL    HW265619   6.823   4.077   5.549 -0.8539 -0.5125 -3.2517
19672SOL     OW65620   5.597  11.527   0.373 -0.2272 -0.1062 -0.3795
19672SOL    HW165621   5.651  11.465   0.421 -0.2099  1.6958  2.1575
19672SOL    HW265622   5.642  11.538   0.289  0.8735 -1.9311 -0.0863
19673SOL     OW65623   9.157   0.164   2.800 -0.5351  0.2560  0.4856
19673SOL    HW165624   9.073   0.154   2.845 -0.6631  0.3182  0.2609
19673SOL    HW265625   9.196   0.241   2.840 -1.1035  0.9205 -0.2140
19674SOL     OW65626  12.675   5.334   1.812  0.0923  0.5438  0.1571
19674SOL    HW165627  12.724   5.300   1.887  0.0694 -1.6377 -0.7517
19674SOL    HW265628  12.696   5.274   1.741 -0.5711  2.0617 -1.3803
19675SOL     OW65629   0.738   4.262   8.209 -0.1600 -0.1309  0.2429
19675SOL    HW165630   0.753   4.171   8.187  2.3361  0.6975 -1.9541
19675SOL    HW265631   0.799   4.280   8.280  1.1935  0.3955 -1.0105
19676SOL     OW65632   4.270  10.981  12.529  0.0755 -0.1234 -0.4363
19676SOL    HW165633   4.288  10.900  12.480 -1.1718  1.2019 -3.2919
19676SOL    HW265634   4.190  10.961  12.578  1.2617 -1.4374  1.0539
19677SOL     OW65635   5.791   3.411   6.165  0.6466 -0.4027 -0.2792
19677SOL    HW165636   5.848   3.487   6.172 -1.3316  1.1359 -0.0788
19677SOL    HW265637   5.818   3.368   6.084  1.2196  1.0328 -0.8845
19678SOL     OW65638   0.676  11.929   8.737 -0.0091 -0.1103  0.3288
19678SOL    HW165639   0.691  11.870   8.811 -1.0537 -0.3529  0.3605
19678SOL    HW265640   0.673  12.016   8.776  1.4382 -0.0080  0.2933
19679SOL     OW65641   8.936   3.935   0.131 -0.1384 -0.0643 -0.1217
19679SOL    HW165642   8.924   4.030   0.130  0.8395  0.0676 -0.3907
19679SOL    HW265643   8.914   3.909   0.221 -0.4917  0.4072 -0.0695
19680SOL     OW65644   9.874   3.414  10.889  0.2710  0.2464  0.3619
19680SOL    HW165645   9.891   3.351  10.819  2.0888  0.1410  0.8618
19680SOL    HW265646   9.947   3.475  10.885  0.8552 -0.2094  2.6482
19681SOL     OW65647   7.190   3.459   6.731  0.4889  0.5682  0.0638
19681SOL    HW165648   7.133   3.493   6.662 -0.0930 -0.6914 -0.0912
19681SOL    HW265649   7.134   3.402   6.784  0.3846  2.9694  2.8160
19682SOL     OW65650   6.394  11.553  10.051 -0.3677 -0.2873  0.2994
19682SOL    HW165651   6.417  11.532  10.141 -1.3581  0.8336  0.8240
19682SOL    HW265652   6.458  11.620  10.025  1.3854 -2.1985 -0.6464
19683SOL     OW65653   1.257  11.939   9.959 -0.1638 -0.2011 -0.5791
19683SOL    HW165654   1.179  11.968  10.006  0.2542 -0.2496  0.1746
19683SOL    HW265655   1.228  11.862   9.910 -0.4731 -0.5367  0.1068
19684SOL     OW65656   1.592   6.696   3.103  0.2236  0.8439  0.1173
19684SOL    HW165657   1.525   6.694   3.172 -0.3070 -1.7016 -0.3559
19684SOL    HW265658   1.576   6.777   3.056 -2.2799  0.5364  0.3100
19685SOL     OW65659  10.995  12.379   8.219  0.4957  0.0485  0.4860
19685SOL    HW165660  10.986  12.288   8.192  1.3898  0.2232 -0.4439
19685SOL    HW265661  10.927  12.426   8.170 -0.5262 -0.2082  1.5908
19686SOL     OW65662  11.932   1.335   7.507 -0.2156 -0.2294  0.3188
19686SOL    HW165663  12.016   1.307   7.471 -0.0023  0.4284  0.2870
19686SOL    HW265664  11.867   1.296   7.449  0.0608 -0.8652  0.4303
19687SOL     OW65665   9.212   1.664   1.235 -0.2846 -0.6360  0.7493
19687SOL    HW165666   9.301   1.674   1.270 -0.5996  1.3128  1.0783
19687SOL    HW265667   9.157   1.656   1.312 -0.6198  0.4335  0.6395
19688SOL     OW65668   7.763   1.061   2.695  0.0727 -0.5918 -0.0771
19688SOL    HW165669   7.760   1.113   2.776 -1.2520  0.7644 -0.9396
19688SOL    HW265670   7.856   1.045   2.680  0.5432  1.4838  0.2901
19689SOL     OW65671   4.323  11.820   2.320  0.5136 -0.3194  0.2429
19689SOL    HW165672   4.342  11.728   2.341 -1.7200 -1.0251 -0.6294
19689SOL    HW265673   4.267  11.850   2.391 -0.6038 -0.3293 -0.6169
19690SOL     OW65674   8.208   7.524   2.853  0.2634 -0.0283  0.9188
19690SOL    HW165675   8.266   7.479   2.916  0.8566  0.8552  1.0158
19690SOL    HW265676   8.267   7.578   2.801 -0.5231  1.3146  1.3797
19691SOL     OW65677  12.206  11.129   4.229 -0.5006  0.5741 -0.1773
19691SOL    HW165678  12.120  11.103   4.195  0.3224  0.0002 -1.9066
19691SOL    HW265679  12.189  11.152   4.321 -2.4004 -0.0300 -0.3315
19692SOL     OW65680   1.156   7.595  10.356 -0.1387 -0.4596  0.2268
19692SOL    HW165681   1.180   7.604  10.264 -1.0762  0.8327  0.0787
19692SOL    HW265682   1.066   7.562  10.354  0.3333 -1.8595  0.7200
19693SOL     OW65683  10.717   6.631   1.417 -0.7049 -0.4293 -0.2298
19693SOL    HW165684  10.706   6.543   1.382 -1.3761 -1.3780  2.1640
19693SOL    HW265685  10.703   6.621   1.512  2.1018  1.7451  0.5262
19694SOL     OW65686   9.042  11.373   1.870 -0.4566  0.5502 -0.9346
19694SOL    HW165687   9.082  11.429   1.803 -0.5537  0.0571 -1.4211
19694SOL    HW265688   9.113  11.355   1.932 -0.2818  0.7753 -1.0684
19695SOL     OW65689   0.898   8.167  12.749 -0.3678 -0.1693  0.3009
19695SOL    HW165690   0.931   8.139  12.835 -1.7604 -0.3798  0.7944
19695SOL    HW265691   0.893   8.262  12.755  1.8784  0.0640 -0.4580
19696SOL     OW65692   5.178   5.746   4.667  0.2673  0.7738 -0.2030
19696SOL    HW165693   5.132   5.772   4.587  0.7298  0.1832 -0.6736
19696SOL    HW265694   5.268   5.727   4.638 -0.2385 -2.3214 -0.1247
19697SOL     OW65695   1.384   6.280   4.334 -0.0931 -0.2560  0.4163
19697SOL    HW165696   1.384   6.210   4.399 -0.8711 -1.1755 -0.5327
19697SOL    HW265697   1.453   6.339   4.363  1.9022 -2.3546  0.2769
19698SOL     OW65698   1.746   3.564   2.161 -0.4740  0.4495  0.2212
19698SOL    HW165699   1.740   3.503   2.087 -0.4159  1.8292 -0.9698
19698SOL    HW265700   1.763   3.508   2.237  1.0465 -0.8982 -1.0339
19699SOL     OW65701   6.297   8.499   4.274 -0.6899  0.0274 -0.1147
19699SOL    HW165702   6.323   8.409   4.293 -0.0082 -0.0377 -1.2381
19699SOL    HW265703   6.379   8.548   4.269 -1.0846  0.8505  1.0345
19700SOL     OW65704  10.700   9.722   9.853  0.1307  0.2471  0.4675
19700SOL    HW165705  10.695   9.817   9.860  1.1570  0.2796  0.9917
19700SOL    HW265706  10.625   9.697   9.798 -0.0864  1.3570  0.2469
19701SOL     OW65707  10.793   4.753  10.532 -0.5442 -0.5938  0.6622
19701SOL    HW165708  10.810   4.796  10.616 -0.4562 -0.3569  0.5253
19701SOL    HW265709  10.838   4.669  10.538  1.5698  0.4277 -0.0777
19702SOL     OW65710   1.202   1.726   0.020  0.0816  0.7936 -0.6411
19702SOL    HW165711   1.167   1.800   0.070 -0.3716  1.8615 -2.4675
19702SOL    HW265712   1.221   1.660   0.086 -0.7263  2.0473  0.9154
19703SOL     OW65713   9.066   6.474   4.465 -0.0892 -0.2677 -0.3448
19703SOL    HW165714   9.008   6.409   4.505 -0.7495  1.8012  2.3743
19703SOL    HW265715   9.143   6.477   4.522  0.8094  0.0132 -1.5261
19704SOL     OW65716   2.246   4.346   1.524  0.4674 -0.4169 -0.1049
19704SOL    HW165717   2.164   4.304   1.549 -0.2698  0.3334 -1.1779
19704SOL    HW265718   2.229   4.383   1.438  1.8062  0.1286 -0.1635
19705SOL     OW65719   4.193   4.984   0.164 -0.1229  0.2982 -0.1821
19705SOL    HW165720   4.098   4.979   0.165 -0.1534  0.7489  0.5210
19705SOL    HW265721   4.219   4.956   0.076 -0.9692  1.2208 -0.7508
19706SOL     OW65722  11.551   4.575   2.498  0.3262  0.4221 -0.7257
19706SOL    HW165723  11.509   4.550   2.580  2.1293 -1.2736 -0.2127
19706SOL    HW265724  11.532   4.502   2.438  2.1960 -0.2818 -0.5445
19707SOL     OW65725   4.150   2.189   6.426  0.1551  0.4065 -0.3196
19707SOL    HW165726   4.139   2.243   6.348 -1.4068  0.7666  0.1197
19707SOL    HW265727   4.081   2.219   6.486  0.7416 -0.4861  0.8480
19708SOL     OW65728  10.811   1.847  10.566  0.4660 -0.2486  0.3991
19708SOL    HW165729  10.814   1.943  10.557 -1.9602  0.3004  3.6574
19708SOL    HW265730  10.720   1.824  10.548  0.5860 -1.6625  1.4430
19709SOL     OW65731  10.181  10.671   8.223 -0.5185 -0.6308 -0.3339
19709SOL    HW165732  10.168  10.662   8.129 -0.2230 -1.0043 -0.3440
19709SOL    HW265733  10.151  10.759   8.244 -0.0830 -0.3485 -0.8682
19710SOL     OW65734   8.911  12.023   3.554 -0.0803  0.3214  0.6352
19710SOL    HW165735   8.868  12.095   3.507  0.4272 -0.7172 -1.5552
19710SOL    HW265736   8.839  11.970   3.586 -0.4502  0.9828  0.9200
19711SOL     OW65737   8.653   7.633   6.853 -0.6364 -0.3211  0.0523
19711SOL    HW165738   8.709   7.635   6.931  1.3910 -0.2596 -1.3218
19711SOL    HW265739   8.571   7.593   6.883  0.8578 -2.3457  1.7180
19712SOL     OW65740   0.892   5.899   0.223  0.0237  0.1303  0.1668
19712SOL    HW165741   0.831   5.969   0.200 -0.1576 -0.2100 -0.3997
19712SOL    HW265742   0.970   5.917   0.170 -0.5037 -0.8234 -0.9553
19713SOL     OW65743   1.329   3.253  10.319  0.0396  0.0469  1.0130
19713SOL    HW165744   1.338   3.273  10.413 -3.1941 -0.5144  1.5717
19713SOL    HW265745   1.275   3.174  10.317  0.0864  0.0218 -1.3334
19714SOL     OW65746   0.560   8.468   7.150  0.0358  0.1418  0.0984
19714SOL    HW165747   0.530   8.553   7.119 -1.9261 -0.7576 -0.6258
19714SOL    HW265748   0.480   8.418   7.164  1.1550 -1.9296 -0.4999
19715SOL     OW65749  11.997   6.626   3.139 -0.3624 -0.0421 -0.4827
19715SOL    HW165750  12.010   6.540   3.179  0.5134 -0.1160 -0.9051
19715SOL    HW265751  12.063   6.682   3.179 -0.9476  0.4478 -0.1858
19716SOL     OW65752  12.403   7.013   0.829 -0.7241  0.3411  0.1290
19716SOL    HW165753  12.479   7.071   0.837  1.5133 -2.2377 -0.7513
19716SOL    HW265754  12.350   7.031   0.906  0.3361  2.7911  0.3842
19717SOL     OW65755   4.697  10.299   0.301  0.1644  0.1122  0.1561
19717SOL    HW165756   4.729  10.230   0.360  1.2171  0.5500  0.1020
19717SOL    HW265757   4.773  10.323   0.248 -0.5933  0.2280 -0.9078
19718SOL     OW65758  10.935   0.507   8.669  0.0595  0.1060  0.3336
19718SOL    HW165759  10.955   0.483   8.579  0.1426  1.4896 -0.0516
19718SOL    HW265760  10.990   0.450   8.723  2.7360  1.6010 -0.6039
19719SOL     OW65761   4.276   5.417   0.550 -0.2671  0.2177  0.4270
19719SOL    HW165762   4.232   5.361   0.614  0.0447 -0.7113 -0.1434
19719SOL    HW265763   4.207   5.438   0.486 -0.3590  0.3908  0.5836
19720SOL     OW65764  12.707   0.584   3.602 -0.4132 -0.0902 -0.6086
19720SOL    HW165765  12.741   0.571   3.690 -1.3701 -0.2659 -0.2454
19720SOL    HW265766  12.618   0.618   3.616  0.5810  3.2343 -1.5043
19721SOL     OW65767   5.169  10.689   3.227 -0.4536 -0.0877  0.2140
19721SOL    HW165768   5.133  10.752   3.164  0.6826 -0.2379 -0.6424
19721SOL    HW265769   5.213  10.623   3.172  0.0315 -0.5758  1.1545
19722SOL     OW65770   8.677   1.576   7.043  0.1564 -0.5321 -0.5636
19722SOL    HW165771   8.582   1.583   7.059 -0.0689 -1.1657 -1.5343
19722SOL    HW265772   8.694   1.482   7.044  0.7208 -0.4349 -0.7162
19723SOL     OW65773   4.626   8.634   5.038 -0.2925 -0.8161 -0.1300
19723SOL    HW165774   4.555   8.698   5.034  1.8979  1.7737  0.1746
19723SOL    HW265775   4.675   8.646   4.957 -0.6438 -3.2569 -0.8006
19724SOL     OW65776  10.517  12.772   0.900 -0.7746  0.3473  0.1399
19724SOL    HW165777  10.601  12.783   0.945 -0.4418 -3.4819  0.7271
19724SOL    HW265778  10.452  12.773   0.970 -1.3286  3.0138 -0.2900
19725SOL     OW65779   3.829   2.961   7.033  1.0591  0.9363 -0.1913
19725SOL    HW165780   3.822   3.048   6.994  0.5254  0.3561 -1.4817
19725SOL    HW265781   3.900   2.919   6.984  2.7762  1.3041  1.8299
19726SOL     OW65782   1.135   3.700  12.296  0.6370  0.2898  0.3169
19726SOL    HW165783   1.209   3.639  12.305  0.8889  0.7233  1.2772
19726SOL    HW265784   1.121   3.706  12.202  3.0339  1.6166 -0.0487
19727SOL     OW65785   7.391   6.435  12.745  0.7259  0.1713  0.5729
19727SOL    HW165786   7.304   6.466  12.718  0.2932 -1.8880 -0.5978
19727SOL    HW265787   7.452   6.489  12.694  0.1863  1.6239  1.3901
19728SOL     OW65788   7.083   7.036   0.193 -0.0380 -0.4337 -0.1457
19728SOL    HW165789   7.048   6.956   0.153 -0.6101  1.1349 -3.0478
19728SOL    HW265790   7.171   7.012   0.223 -1.0904 -2.7456  1.4053
19729SOL     OW65791  12.572  10.014  10.263  0.7349  0.2117  0.2659
19729SOL    HW165792  12.512  10.063  10.319 -0.1614  0.4375 -0.8565
19729SOL    HW265793  12.521   9.996  10.183  1.5621 -1.1809  0.0233
19730SOL     OW65794  11.909   4.732  10.475 -0.2462 -0.1719  0.0991
19730SOL    HW165795  11.820   4.721  10.509 -0.6374 -1.4642 -1.2352
19730SOL    HW265796  11.953   4.650  10.496  0.1781 -0.0984 -0.4908
19731SOL     OW65797   4.917   3.904   6.567  0.4463  0.1038  0.0600
19731SOL    HW165798   4.956   3.908   6.480  1.0684  1.2120  0.3719
19731SOL    HW265799   4.829   3.940   6.557  1.0391  1.6252  0.1540
19732SOL     OW65800  12.098  12.297   8.835  0.2318 -0.1056 -0.0237
19732SOL    HW165801  12.041  12.260   8.768  0.8672 -0.7239 -0.2350
19732SOL    HW265802  12.120  12.384   8.803 -0.7901  0.2403  0.1841
19733SOL     OW65803   2.066   4.836   1.442 -0.3947  0.4208 -0.0002
19733SOL    HW165804   1.976   4.805   1.441 -0.0559 -0.6545 -1.9429
19733SOL    HW265805   2.091   4.836   1.535 -2.1544  0.0875  0.4989
19734SOL     OW65806   6.874  11.298   6.510 -0.4544  0.1881  0.1718
19734SOL    HW165807   6.874  11.291   6.415 -0.2846  2.7219 -0.0824
19734SOL    HW265808   6.895  11.209   6.540  1.6876 -0.2526 -2.1990
19735SOL     OW65809   7.736   3.006   4.699  0.4996 -0.5851 -0.0772
19735SOL    HW165810   7.775   2.963   4.775  0.4942  0.9338  0.8209
19735SOL    HW265811   7.798   3.075   4.676  0.6810 -1.2499 -1.7121
19736SOL     OW65812   3.985   1.607   0.825  0.1438  0.3187 -0.0698
19736SOL    HW165813   4.002   1.513   0.819  1.3940  0.4168  1.2622
19736SOL    HW265814   3.976   1.623   0.919  1.5409  1.7692 -0.1397
19737SOL     OW65815  12.292   6.558   7.725  0.4195  0.2084  0.8272
19737SOL    HW165816  12.350   6.605   7.666 -1.6688  1.8741 -0.0083
19737SOL    HW265817  12.228   6.516   7.668  0.7569 -1.6177  1.7178
19738SOL     OW65818   8.058  10.332   3.322 -0.0355 -0.7687 -0.2837
19738SOL    HW165819   7.975  10.326   3.275 -0.1189  1.6139 -0.5475
19738SOL    HW265820   8.080  10.241   3.344 -1.4297 -1.6759 -2.3917
19739SOL     OW65821  12.517   5.358  10.054 -0.0176 -0.0290  0.6045
19739SOL    HW165822  12.441   5.385  10.105  0.9780 -0.2010  2.2837
19739SOL    HW265823  12.587   5.417  10.083  0.6593 -0.3374 -0.3578
19740SOL     OW65824  10.695   6.141  10.162  0.0201 -0.4728  0.0365
19740SOL    HW165825  10.606   6.174  10.175  0.7486  0.7967  2.2776
19740SOL    HW265826  10.688   6.046  10.174 -0.7329 -0.1856  2.2379
19741SOL     OW65827   5.094   8.350   6.698 -0.2896  0.0243  0.4136
19741SOL    HW165828   5.128   8.260   6.698 -1.4451 -0.4255  0.0756
19741SOL    HW265829   5.066   8.365   6.788  1.1275  0.5511  0.8019
19742SOL     OW65830  12.134  11.936   0.968  0.1562 -1.1137  0.5344
19742SOL    HW165831  12.215  11.908   0.924 -0.5815  0.6237 -2.1260
19742SOL    HW265832  12.164  11.978   1.048  2.1399  0.9888 -1.1654
19743SOL     OW65833   5.362  12.560   5.674 -0.7962 -0.0500  0.7303
19743SOL    HW165834   5.333  12.548   5.584 -1.5221 -1.4340  1.1173
19743SOL    HW265835   5.296  12.616   5.714  0.3860  1.9437  0.0076
19744SOL     OW65836  11.262   5.563   3.404 -0.0054 -0.8294  0.3032
19744SOL    HW165837  11.337   5.568   3.345 -0.1910  1.5623  0.1825
19744SOL    HW265838  11.299   5.579   3.491 -0.4845  1.9102  0.0798
19745SOL     OW65839   2.993  12.730  10.200 -0.0848 -0.2858  0.6448
19745SOL    HW165840   3.022  12.640  10.189  0.3545 -0.0565 -0.1637
19745SOL    HW265841   2.958  12.755  10.115 -2.2546 -0.3857  1.4353
19746SOL     OW65842   3.502   2.112   4.366 -0.0589 -0.6267  0.5085
19746SOL    HW165843   3.554   2.127   4.287 -1.2977  0.6470 -0.1013
19746SOL    HW265844   3.500   2.197   4.410 -1.6002 -0.6271  0.5029
19747SOL     OW65845   0.363   1.959   5.127 -0.1318 -0.0437  0.3168
19747SOL    HW165846   0.404   2.004   5.053  1.1768 -0.5973  0.6813
19747SOL    HW265847   0.272   1.990   5.127  0.5846  2.2152  0.2475
19748SOL     OW65848  11.900  10.247   2.440  0.0619 -0.1333 -0.0889
19748SOL    HW165849  11.915  10.331   2.484  0.3746 -0.4135  0.3545
19748SOL    HW265850  11.872  10.188   2.510 -2.5516  0.1851 -0.7805
19749SOL     OW65851   0.865   3.395   7.022  0.1483 -0.0973 -0.5592
19749SOL    HW165852   0.801   3.426   6.957  1.0815  0.9682 -1.0054
19749SOL    HW265853   0.827   3.421   7.106 -0.3775 -0.1664 -0.7706
19750SOL     OW65854   3.901   1.995   6.714 -0.1152 -0.3607  0.9793
19750SOL    HW165855   3.813   1.979   6.681 -1.0784  3.6179  1.0913
19750SOL    HW265856   3.890   2.005   6.809 -0.0902  2.3678  0.7731
19751SOL     OW65857   6.303  10.114  10.784  0.3703 -0.1280  0.0164
19751SOL    HW165858   6.324  10.198  10.744 -0.3910 -0.4404 -1.0795
19751SOL    HW265859   6.230  10.080  10.732 -0.8723 -0.4179  1.8511
19752SOL     OW65860   8.901   7.637  12.188 -0.0197 -0.1648 -0.4747
19752SOL    HW165861   8.837   7.571  12.216  0.1379 -0.0627  0.1569
19752SOL    HW265862   8.856   7.720  12.198  0.2172 -0.0899  0.0115
19753SOL     OW65863   3.098   1.524  11.658 -0.1536 -0.2081 -0.2772
19753SOL    HW165864   3.144   1.446  11.628 -0.1155  0.0052 -0.7850
19753SOL    HW265865   3.088   1.578  11.579  0.9480  0.8733  0.2980
19754SOL     OW65866   7.039   2.942  10.163 -0.4870 -0.0892 -0.2941
19754SOL    HW165867   6.972   2.882  10.130 -1.0413  0.4656 -0.1924
19754SOL    HW265868   6.993   3.025  10.176  0.1722  0.2418 -0.0185
19755SOL     OW65869  12.391   3.070   4.236 -0.8925 -0.0011 -0.5866
19755SOL    HW165870  12.469   3.081   4.292 -0.3736  0.8423 -1.4633
19755SOL    HW265871  12.392   2.977   4.213 -0.6975 -0.2036  0.1876
19756SOL     OW65872   3.173  12.110   8.733  0.5371  0.7008  0.0291
19756SOL    HW165873   3.184  12.203   8.716 -1.9450  1.0177 -0.1513
19756SOL    HW265874   3.092  12.103   8.783 -1.1006 -1.5200 -2.5755
19757SOL     OW65875  11.284   2.322   7.643 -0.2733 -0.4367 -0.1931
19757SOL    HW165876  11.345   2.366   7.702  0.3921 -0.6585 -0.7051
19757SOL    HW265877  11.238   2.394   7.599  1.5501 -0.1907 -1.8018
19758SOL     OW65878   8.046   9.720   5.169  0.1963  0.0850  0.0960
19758SOL    HW165879   8.018   9.633   5.141 -0.0724  0.1738  0.0798
19758SOL    HW265880   8.034   9.774   5.091 -1.1129  0.4577  0.5209
19759SOL     OW65881  12.204   1.379  10.777 -0.6730  0.5056  0.1147
19759SOL    HW165882  12.276   1.367  10.838  0.1854  1.0232 -0.7584
19759SOL    HW265883  12.246   1.384  10.691 -1.7021  1.2798 -0.3709
19760SOL     OW65884  10.916   8.141   7.846  0.0159 -1.1149 -0.5322
19760SOL    HW165885  10.963   8.084   7.785  2.1855  0.9066 -0.8530
19760SOL    HW265886  10.857   8.192   7.790  2.0735  0.8093 -1.0956
19761SOL     OW65887   7.549   3.200  12.475 -0.0447 -0.2545  0.1661
19761SOL    HW165888   7.557   3.273  12.413 -1.7115  0.9422  1.2754
19761SOL    HW265889   7.598   3.229  12.552 -1.9067  0.3812  1.1565
19762SOL     OW65890   2.725  11.515   9.165 -0.5158  0.1304  0.0845
19762SOL    HW165891   2.734  11.536   9.258  2.3207 -0.5120  0.0358
19762SOL    HW265892   2.794  11.565   9.122  0.4703 -2.1421 -1.1868
19763SOL     OW65893   2.515   2.505   0.145 -0.0346 -0.5425 -0.4830
19763SOL    HW165894   2.536   2.598   0.139 -2.0164  0.0374  0.8702
19763SOL    HW265895   2.560   2.466   0.070  0.3003  1.5852 -1.4615
19764SOL     OW65896   3.472   7.903   0.132  0.4301  0.4212  0.3151
19764SOL    HW165897   3.553   7.949   0.112 -0.0411  1.7878  1.3461
19764SOL    HW265898   3.455   7.922   0.224 -0.6947 -0.4234  0.3148
19765SOL     OW65899   9.822   3.906   2.352  0.2349  0.2450 -0.4249
19765SOL    HW165900   9.768   3.979   2.384 -0.3210 -0.7395  0.9638
19765SOL    HW265901   9.759   3.838   2.329  0.8246 -0.6487  0.5221
19766SOL     OW65902   7.659   1.094   1.860  0.4828  0.5194 -0.0779
19766SOL    HW165903   7.615   1.085   1.945 -2.5312  1.5580 -1.3697
19766SOL    HW265904   7.680   1.187   1.854  0.3852  0.5063 -0.6068
19767SOL     OW65905   9.338   6.311   1.004 -0.2849  0.0006 -0.4982
19767SOL    HW165906   9.274   6.381   0.992  1.4719  1.7872 -0.0203
19767SOL    HW265907   9.420   6.348   0.972  0.8640 -1.5975  0.4641
19768SOL     OW65908   5.086   3.563  12.433 -0.3316  0.0709 -0.3912
19768SOL    HW165909   4.997   3.551  12.399  0.7940 -1.7510 -3.1657
19768SOL    HW265910   5.125   3.629  12.375  0.5210 -0.2289 -0.1751
19769SOL     OW65911   0.808   8.681   0.952  0.1728 -0.6713 -0.0673
19769SOL    HW165912   0.897   8.698   0.981  0.0551 -0.4987  0.1969
19769SOL    HW265913   0.807   8.708   0.860  0.6618 -1.6275 -0.3665
19770SOL     OW65914   6.639   5.501   9.050  0.4045 -0.5143 -0.6847
19770SOL    HW165915   6.653   5.595   9.061 -0.4352 -0.4356 -0.1846
19770SOL    HW265916   6.686   5.461   9.123 -1.8951 -0.2423  1.0794
19771SOL     OW65917  12.052   3.723   6.610  0.4582  0.6237  0.4091
19771SOL    HW165918  12.140   3.686   6.605  0.9532  1.9117 -2.6101
19771SOL    HW265919  11.995   3.656   6.572  0.0432 -0.2747  2.5073
19772SOL     OW65920   3.737   1.963   6.199 -0.4567 -0.1969 -0.5652
19772SOL    HW165921   3.655   1.916   6.217  0.0919 -1.1283 -0.4404
19772SOL    HW265922   3.780   1.911   6.131  0.2397  0.0372 -0.3124
19773SOL     OW65923   5.088   0.170  10.250 -0.5003  0.5632 -0.4870
19773SOL    HW165924   5.090   0.150  10.156  0.6807 -0.3620 -0.2855
19773SOL    HW265925   5.005   0.135  10.281 -0.0146 -0.9614 -0.8227
19774SOL     OW65926  10.507  11.200   1.732 -0.0501  0.4111  0.2842
19774SOL    HW165927  10.553  11.240   1.806  1.4502 -0.6445 -0.0280
19774SOL    HW265928  10.513  11.265   1.662  0.4642  0.5236  0.4295
19775SOL     OW65929   0.672   6.798   9.120  0.2152  0.1329  0.5290
19775SOL    HW165930   0.654   6.728   9.057  0.2922 -1.1349  1.8646
19775SOL    HW265931   0.595   6.855   9.114  0.2361  0.0764 -0.7055
19776SOL     OW65932   4.097   3.342   6.341 -0.4471 -0.7400 -0.2472
19776SOL    HW165933   4.149   3.352   6.261  1.5952 -1.9438  0.8273
19776SOL    HW265934   4.139   3.400   6.404 -0.8072 -1.2645  0.4916
19777SOL     OW65935  11.172   3.097  11.524 -0.2825  0.0695 -0.9651
19777SOL    HW165936  11.083   3.098  11.558 -0.3762 -0.2109 -1.2016
19777SOL    HW265937  11.162   3.099  11.429 -0.0580 -0.8198 -1.0181
19778SOL     OW65938  12.330  11.489  12.764  0.2942 -0.4891  0.5341
19778SOL    HW165939  12.395  11.420  12.746 -0.1564 -0.7178 -0.2860
19778SOL    HW265940  12.328  11.541  12.684 -0.1442 -0.1537  0.7610
19779SOL     OW65941   2.606  12.781   9.830  0.0159 -0.0467  0.0618
19779SOL    HW165942   2.644  12.741   9.752 -0.1183 -0.1237  0.0362
19779SOL    HW265943   2.521  12.816   9.802  0.1568  0.3069  0.0717
19780SOL     OW65944   4.850   5.477   8.982  0.3379 -0.1246 -0.3900
19780SOL    HW165945   4.930   5.428   8.999  0.9867  0.0673 -2.5611
19780SOL    HW265946   4.852   5.550   9.045  0.8545 -1.1918  0.8671
19781SOL     OW65947   7.134   3.628   5.178 -0.0878  0.5643  0.2168
19781SOL    HW165948   7.143   3.533   5.172 -0.2519  0.5170  0.6971
19781SOL    HW265949   7.122   3.657   5.087 -2.4165 -0.0963  0.2551
19782SOL     OW65950   7.359   2.345   2.202 -0.4233 -0.1201  0.0561
19782SOL    HW165951   7.437   2.401   2.206 -0.0134 -0.7572  1.3769
19782SOL    HW265952   7.392   2.258   2.183 -0.6491 -0.6478  1.8843
19783SOL     OW65953   5.410   0.226  10.834 -1.3277  0.1223  0.0824
19783SOL    HW165954   5.395   0.190  10.921 -2.3834  0.9660  0.2779
19783SOL    HW265955   5.407   0.321  10.846  0.5218  0.2914 -0.5600
19784SOL     OW65956   8.024   3.773   1.841 -0.2122  0.4042 -0.6154
19784SOL    HW165957   7.994   3.684   1.856  1.1340  0.0297  0.0788
19784SOL    HW265958   7.994   3.795   1.753  0.2446 -1.0862 -1.1703
19785SOL     OW65959   8.744   6.207   9.104  0.1976 -0.5019  0.3851
19785SOL    HW165960   8.688   6.260   9.049  1.6197  1.0473  0.3447
19785SOL    HW265961   8.696   6.196   9.186  0.1478  1.4941  0.6579
19786SOL     OW65962   3.809  11.823   3.201  0.1133  0.0330  0.8686
19786SOL    HW165963   3.738  11.795   3.143 -0.1159 -0.7886  1.5230
19786SOL    HW265964   3.764  11.858   3.278  0.4239  0.0078  1.0622
19787SOL     OW65965   7.026   1.765  11.771 -0.6787 -0.1286 -0.2912
19787SOL    HW165966   6.988   1.738  11.688 -0.0750  1.5315 -1.1617
19787SOL    HW265967   7.116   1.790  11.748 -0.2344 -0.4538  1.0286
19788SOL     OW65968  11.075  12.371  10.517  0.0834  0.1193 -0.2763
19788SOL    HW165969  11.167  12.354  10.535  0.0221  0.0504 -0.0283
19788SOL    HW265970  11.040  12.286  10.489  0.2450  0.2870 -1.0168
19789SOL     OW65971   5.307   4.532   8.969  0.0008  0.1272 -0.0212
19789SOL    HW165972   5.243   4.464   8.989 -1.0054  1.5847  2.2115
19789SOL    HW265973   5.254   4.607   8.940  0.9434  0.5133 -0.8117
19790SOL     OW65974   9.135   1.825   1.760 -0.1841  0.2021  0.4252
19790SOL    HW165975   9.120   1.841   1.666  0.1012  0.8369  0.4776
19790SOL    HW265976   9.091   1.742   1.778  1.4204 -0.9531 -0.7119
19791SOL     OW65977   5.133   6.816   4.253 -0.3051  0.0026 -0.1953
19791SOL    HW165978   5.224   6.845   4.256 -0.1840 -0.4528  1.6327
19791SOL    HW265979   5.134   6.738   4.199  0.6532 -0.7484  0.8556
19792SOL     OW65980   7.198  10.698   7.745  0.4090  0.0806  0.6873
19792SOL    HW165981   7.139  10.734   7.679  1.3182 -1.3408 -0.9795
19792SOL    HW265982   7.230  10.775   7.793  0.2176  1.2268 -0.9572
19793SOL     OW65983   7.860   3.837   2.705 -0.5102 -0.3108  0.5539
19793SOL    HW165984   7.900   3.923   2.711  0.0143 -0.5894  1.1770
19793SOL    HW265985   7.806   3.841   2.627 -0.0398  0.3977  0.2570
19794SOL     OW65986   7.215   5.629   4.457  0.0705 -0.3709  0.1853
19794SOL    HW165987   7.268   5.632   4.378  0.5533  0.4705  0.5269
19794SOL    HW265988   7.278   5.618   4.528 -0.0382  1.9503  0.7176
19795SOL     OW65989  10.462  10.220   7.749 -0.4937 -0.1103 -0.2356
19795SOL    HW165990  10.502  10.269   7.677  0.1021  0.1021  0.2290
19795SOL    HW265991  10.513  10.139   7.755  1.0931  0.9185  1.4971
19796SOL     OW65992  12.152   0.036   9.118  0.1306 -0.0732  0.0992
19796SOL    HW165993  12.137  -0.055   9.144 -0.4208 -0.0224 -0.0354
19796SOL    HW265994  12.229   0.033   9.062 -0.7853 -0.6776 -1.1788
19797SOL     OW65995  12.126   3.696   4.577 -0.1360 -0.1402 -0.4005
19797SOL    HW165996  12.100   3.698   4.485  0.3375 -1.7574 -0.6041
19797SOL    HW265997  12.047   3.722   4.625 -1.1437 -1.6086 -1.1691
19798SOL     OW65998   7.429   0.087   1.918 -0.1307  0.4296  0.5542
19798SOL    HW165999   7.352   0.114   1.968 -1.3401 -0.5912 -0.7064
19798SOL    HW266000   7.429   0.143   1.841  0.1320  0.1243  0.3282
19799SOL     OW66001   3.885  11.417   3.979 -0.0099  0.3988  0.7166
19799SOL    HW166002   3.880  11.430   4.074  2.8799 -1.9691  1.3715
19799SOL    HW266003   3.814  11.357   3.959  0.1906 -0.1746  1.6592
19800SOL     OW66004   2.014   7.810   1.838 -0.0515  0.0251  0.3423
19800SOL    HW166005   1.938   7.796   1.781  0.3066 -1.3331  0.1604
19800SOL    HW266006   2.073   7.866   1.787 -0.3873  0.0515 -0.0200
19801SOL     OW66007   0.367   3.581   6.080 -0.1093  0.1632  0.3234
19801SOL    HW166008   0.294   3.623   6.125 -2.8361 -1.1465 -2.5354
19801SOL    HW266009   0.355   3.487   6.097  0.3948 -0.1305 -0.8497
19802SOL     OW66010   3.476  11.401   7.867 -0.4797  0.7160 -0.5232
19802SOL    HW166011   3.383  11.398   7.845 -0.8025  0.3612  0.7655
19802SOL    HW266012   3.490  11.489   7.901 -0.3090  0.8145 -0.8467
19803SOL     OW66013   2.101  11.465  11.452  0.6051  0.0174  0.2131
19803SOL    HW166014   2.184  11.509  11.435 -0.1287  0.7815 -1.6063
19803SOL    HW266015   2.109  11.381  11.406  1.4531 -1.2711  2.5077
19804SOL     OW66016  11.114   7.861   4.544 -0.2451 -0.1677 -1.0000
19804SOL    HW166017  11.167   7.931   4.506  0.1660 -1.1851 -2.3630
19804SOL    HW266018  11.107   7.885   4.637  1.0213  0.9693 -1.1590
19805SOL     OW66019   4.351   3.899   9.890 -0.2713  0.1712  0.0039
19805SOL    HW166020   4.383   3.922   9.802 -0.3825 -1.0341 -0.3721
19805SOL    HW266021   4.258   3.920   9.887 -0.1004  0.9795  0.1421
19806SOL     OW66022   3.651   5.718   7.213 -0.4686  0.8952 -0.0278
19806SOL    HW166023   3.566   5.691   7.177  0.8172 -2.8422 -0.7247
19806SOL    HW266024   3.633   5.733   7.306 -2.1135  1.5520 -0.4162
19807SOL     OW66025   0.620   4.669   0.175  0.2644  0.7757  0.3865
19807SOL    HW166026   0.704   4.633   0.147 -0.2788 -2.7762  2.6566
19807SOL    HW266027   0.639   4.710   0.260 -0.1359  0.7774  0.4777
19808SOL     OW66028   9.920   9.352   6.543 -0.3442  0.6483  0.0442
19808SOL    HW166029  10.007   9.374   6.577  0.6751 -0.1578 -1.8459
19808SOL    HW266030   9.929   9.260   6.515 -1.5209  0.8206 -0.9676
19809SOL     OW66031   8.583   1.708   9.156 -0.5274  0.6342 -0.6019
19809SOL    HW166032   8.603   1.723   9.248  0.1214 -0.7123 -0.4970
19809SOL    HW266033   8.667   1.717   9.111 -0.5195 -0.3671 -0.8150
19810SOL     OW66034   3.029   0.261   7.631 -0.0221  0.5372 -1.1184
19810SOL    HW166035   3.035   0.177   7.585  0.9955 -0.3129  0.4848
19810SOL    HW266036   3.112   0.304   7.613 -0.4010  1.0727 -1.6397
19811SOL     OW66037   6.140   6.170  10.143  0.4696 -0.5875 -0.4156
19811SOL    HW166038   6.087   6.094  10.119 -0.1368 -0.4987  0.6034
19811SOL    HW266039   6.216   6.134  10.189  0.4062 -0.6051 -0.3253
19812SOL     OW66040   9.386   2.856  10.033 -0.2930 -1.2395 -0.1356
19812SOL    HW166041   9.325   2.915  10.077  0.0588 -0.9849  0.0188
19812SOL    HW266042   9.378   2.773  10.080  0.6945 -0.7414  0.9832
19813SOL     OW66043   5.903   1.475   3.265 -0.2729  0.0528  0.1646
19813SOL    HW166044   5.832   1.459   3.328  0.0679  1.1162  0.8555
19813SOL    HW266045   5.866   1.537   3.202  0.3131  1.4302  1.1141
19814SOL     OW66046   7.778   1.844   9.596  0.2114 -0.4764 -0.3989
19814SOL    HW166047   7.717   1.823   9.526  0.8263 -0.7309 -0.8621
19814SOL    HW266048   7.786   1.763   9.647 -0.6117 -0.1545  0.2692
19815SOL     OW66049  11.062   6.276  11.153  0.3486 -0.4053 -0.3978
19815SOL    HW166050  10.979   6.247  11.115  0.0754 -0.6206  0.3380
19815SOL    HW266051  11.038   6.311  11.239  1.2557 -2.5070  0.7936
19816SOL     OW66052   2.002   8.618   1.332  0.3766  0.4137 -0.4301
19816SOL    HW166053   2.020   8.679   1.404 -2.9986  1.0054  0.0745
19816SOL    HW266054   2.052   8.539   1.355  1.8218  1.6487  0.9063
19817SOL     OW66055  11.649   2.563   6.273 -0.2957 -0.1764 -0.1431
19817SOL    HW166056  11.689   2.649   6.256 -1.2815  0.3023 -0.0953
19817SOL    HW266057  11.561   2.583   6.304 -0.3893 -1.2051  0.2884
19818SOL     OW66058  11.467   0.243   0.429 -0.2293 -0.4187  0.1006
19818SOL    HW166059  11.483   0.337   0.422 -0.6468 -0.1557  2.0041
19818SOL    HW266060  11.532   0.203   0.370  1.0058  0.9922  0.4328
19819SOL     OW66061   6.626   7.159   8.888 -0.1168  0.1242 -0.2015
19819SOL    HW166062   6.655   7.095   8.953 -1.4008  0.4170  0.6937
19819SOL    HW266063   6.530   7.155   8.890 -0.2012  0.5866 -1.6451
19820SOL     OW66064  10.453   0.144   2.858  0.2095 -0.7823 -0.0501
19820SOL    HW166065  10.406   0.062   2.841 -1.1898  0.5636 -3.3832
19820SOL    HW266066  10.388   0.202   2.897  0.8768 -0.7987  1.1580
19821SOL     OW66067   9.819   8.230   3.031 -0.1526  0.0562  0.3136
19821SOL    HW166068   9.907   8.221   3.069 -0.7684 -1.2341  1.4920
19821SOL    HW266069   9.824   8.183   2.948  1.0905  2.5723 -1.1682
19822SOL     OW66070   7.865   6.511  11.602  0.7413  0.3197  0.3674
19822SOL    HW166071   7.856   6.534  11.509  0.4898 -2.0661 -0.2757
19822SOL    HW266072   7.902   6.422  11.601 -1.1046 -0.5658  2.4820
19823SOL     OW66073   6.990   3.283  11.860 -0.0226  0.3820 -0.3884
19823SOL    HW166074   6.987   3.198  11.904  0.6682 -0.0261 -1.0858
19823SOL    HW266075   7.053   3.270  11.789 -0.6507  1.1932 -1.1113
19824SOL     OW66076   3.915   6.027  10.058  0.8318  0.0068  0.1240
19824SOL    HW166077   3.938   5.963   9.991 -0.0544 -0.6246  0.3994
19824SOL    HW266078   3.820   6.016  10.071  1.0182 -0.0637  1.6415
19825SOL     OW66079  11.854   2.936  10.645 -0.3654 -0.3750 -0.2242
19825SOL    HW166080  11.928   2.886  10.679 -1.2727 -1.2482  0.5321
19825SOL    HW266081  11.821   2.883  10.572  0.2287  0.4162 -1.1007
19826SOL     OW66082  11.452  12.153   0.818  0.2407  0.1362  0.0978
19826SOL    HW166083  11.475  12.166   0.725 -0.6158 -0.4883 -0.2161
19826SOL    HW266084  11.535  12.164   0.864  0.7270  0.2421 -0.7660
19827SOL     OW66085   3.972  11.130   4.063 -0.4468 -0.2353 -0.7746
19827SOL    HW166086   3.937  11.194   4.001 -2.2701 -0.0958  0.3277
19827SOL    HW266087   3.916  11.054   4.052  0.9640 -1.2405 -1.2253
19828SOL     OW66088  11.586   1.862   8.467 -0.4018 -0.8814 -0.0730
19828SOL    HW166089  11.679   1.864   8.490 -0.3173 -2.3931 -0.1993
19828SOL    HW266090  11.552   1.945   8.500  0.6780 -0.9567  1.3406
19829SOL     OW66091   8.365   3.947   4.207 -0.0968 -0.4194 -0.2688
19829SOL    HW166092   8.395   3.902   4.286 -0.1028 -0.9649 -0.5726
19829SOL    HW266093   8.297   3.890   4.172  0.7365 -0.7951 -1.3201
19830SOL     OW66094   8.382   9.885  12.442 -0.0362  0.0744  0.0071
19830SOL    HW166095   8.358   9.977  12.452  2.2065  0.8143 -0.7349
19830SOL    HW266096   8.467   9.879  12.485  0.5145 -1.3028 -1.2195
19831SOL     OW66097   0.912   5.807   0.824 -0.2023 -0.5187 -0.1226
19831SOL    HW166098   0.948   5.787   0.738  0.6353 -1.0549  0.3375
19831SOL    HW266099   0.957   5.887   0.851  2.9804 -2.7144  1.6958
19832SOL     OW66100   1.016  12.729   9.050  0.1844 -0.0359 -0.1471
19832SOL    HW166101   1.043  12.679   8.973 -2.2823  0.4338 -1.4248
19832SOL    HW266102   1.056  12.684   9.123 -0.3931 -2.8080 -1.3938
19833SOL     OW66103   3.576   0.467   0.909  0.5012 -0.6928  0.0152
19833SOL    HW166104   3.539   0.413   0.979 -0.7399 -1.3824 -1.1100
19833SOL    HW266105   3.625   0.405   0.855 -0.2187 -0.5585 -0.8146
19834SOL     OW66106  12.611   9.663   1.257 -0.1170 -0.0232  0.5026
19834SOL    HW166107  12.663   9.584   1.240  0.1178  0.5096 -1.4590
19834SOL    HW266108  12.676   9.731   1.276  0.1776  1.0038 -3.3835
19835SOL     OW66109   9.441   0.413   1.107  0.6271  0.5504 -0.2524
19835SOL    HW166110   9.483   0.397   1.192  2.0731  0.9807 -0.8564
19835SOL    HW266111   9.375   0.344   1.099  0.4352  0.5348  1.2317
19836SOL     OW66112  12.326   2.130  10.929  0.2638  0.3468 -0.6756
19836SOL    HW166113  12.399   2.152  10.987  1.8277  0.1728 -2.4603
19836SOL    HW266114  12.336   2.189  10.854  0.9149 -2.1656 -2.7416
19837SOL     OW66115   9.256   9.085   5.920  0.1605 -0.5082 -0.2330
19837SOL    HW166116   9.252   9.135   5.838 -0.1574  1.4133  0.8947
19837SOL    HW266117   9.349   9.065   5.931  0.4506  0.7496 -0.2247
19838SOL     OW66118   3.198   5.962   5.098  0.0147  0.1268  0.1896
19838SOL    HW166119   3.280   5.948   5.146 -0.0780  0.1663  0.3599
19838SOL    HW266120   3.201   6.053   5.071 -0.3463  0.3583  0.9057
19839SOL     OW66121   0.189   9.629   7.608 -0.0512 -0.1897  0.4413
19839SOL    HW166122   0.106   9.672   7.587 -0.3771 -2.0361 -2.5667
19839SOL    HW266123   0.254   9.675   7.556  0.2117 -0.9363  0.0989
19840SOL     OW66124   5.244   5.631   2.242 -0.5809 -0.1815 -0.6149
19840SOL    HW166125   5.157   5.645   2.207 -0.1690  1.7122 -0.9797
19840SOL    HW266126   5.302   5.634   2.166  0.3161  3.8683 -0.0056
19841SOL     OW66127   7.660   5.314   4.463 -0.0497 -0.1736  0.8433
19841SOL    HW166128   7.685   5.224   4.485 -1.4346 -0.7055  0.3741
19841SOL    HW266129   7.573   5.306   4.424 -0.0180  1.3343  0.3808
19842SOL     OW66130  12.029   7.571   7.590 -0.1015  0.9837  0.1142
19842SOL    HW166131  12.005   7.659   7.561 -0.4040  1.3588  1.4149
19842SOL    HW266132  11.965   7.551   7.659 -2.2602 -1.6453 -2.3625
19843SOL     OW66133  11.745   0.485   8.611 -0.0094  0.0076 -0.4049
19843SOL    HW166134  11.689   0.528   8.675 -1.6332 -1.4247 -0.7924
19843SOL    HW266135  11.777   0.556   8.556  0.1980  1.0799  1.0414
19844SOL     OW66136  11.151   4.830  10.585  0.0737  0.1222  0.5169
19844SOL    HW166137  11.230   4.782  10.563 -0.0444 -0.5634  1.5548
19844SOL    HW266138  11.127   4.875  10.504  2.0855  1.1773  0.4370
19845SOL     OW66139  10.674  10.267   9.145 -0.2202 -0.2673 -0.4179
19845SOL    HW166140  10.680  10.358   9.114 -0.7057 -0.4094 -0.9289
19845SOL    HW266141  10.668  10.275   9.240  1.8369  0.1554 -0.2598
19846SOL     OW66142  12.542   2.578   8.749  0.5803  0.2679  0.5483
19846SOL    HW166143  12.565   2.629   8.827  3.2706 -2.1387  1.4987
19846SOL    HW266144  12.579   2.491   8.765  1.0018 -0.4382 -3.2870
19847SOL     OW66145   8.264   3.132  12.682 -0.4321  0.1521  0.1558
19847SOL    HW166146   8.310   3.058  12.641 -0.6391 -1.7213  3.0401
19847SOL    HW266147   8.334   3.189  12.713  0.0034 -1.3623  2.1843
19848SOL     OW66148   6.074   3.007   5.433 -0.2260 -0.1649  0.1884
19848SOL    HW166149   6.119   2.967   5.507 -0.7001 -1.0559  0.0140
19848SOL    HW266150   6.058   3.097   5.460  0.1368 -0.3159  0.9267
19849SOL     OW66151   5.075   3.708  11.252 -0.3292 -1.1154  0.2706
19849SOL    HW166152   5.162   3.700  11.290 -0.6486 -0.9963  1.0540
19849SOL    HW266153   5.090   3.743  11.165  0.4174 -1.2401  0.3422
19850SOL     OW66154   1.200   0.158   4.033  0.2256  0.8441  0.1514
19850SOL    HW166155   1.147   0.079   4.035 -0.4450  1.2832  0.0866
19850SOL    HW266156   1.151   0.221   4.086  0.9219  1.1144  0.4859
19851SOL     OW66157  11.254  11.538   0.190 -0.4754 -0.3707  0.2353
19851SOL    HW166158  11.283  11.626   0.165  0.4386 -1.1964 -1.9037
19851SOL    HW266159  11.312  11.513   0.262 -0.1438  0.4402  0.2618
19852SOL     OW66160   1.802  10.649   3.695  0.3151 -0.4816  0.2416
19852SOL    HW166161   1.841  10.675   3.612  3.1192 -1.1204  1.2778
19852SOL    HW266162   1.797  10.731   3.746  2.7353 -0.7269  0.9878
19853SOL     OW66163  10.334   9.613  10.425  0.2014 -0.1640 -0.4740
19853SOL    HW166164  10.395   9.540  10.432  1.2559  0.5185 -2.1585
19853SOL    HW266165  10.388   9.689  10.404 -0.9419  1.0168  0.6294
19854SOL     OW66166  12.364   0.157   0.934 -0.1159  0.5719 -0.3439
19854SOL    HW166167  12.344   0.119   0.849 -2.1240 -1.1480  0.8062
19854SOL    HW266168  12.300   0.227   0.946 -0.8820 -0.2234  0.3648
19855SOL     OW66169  11.834   8.051   3.271  0.0891  0.7336 -0.1374
19855SOL    HW166170  11.926   8.026   3.258  0.0380  1.1944 -1.4700
19855SOL    HW266171  11.789   8.020   3.193 -0.7331  1.2988  0.1037
19856SOL     OW66172   5.345   1.352  10.706 -0.5685  0.1872  0.2296
19856SOL    HW166173   5.391   1.277  10.669  1.4367  0.9210  1.1069
19856SOL    HW266174   5.300   1.317  10.783 -0.4402 -0.3069  0.0833
19857SOL     OW66175   4.604   0.922   6.094  0.0049  0.0069 -0.3257
19857SOL    HW166176   4.532   0.984   6.101  0.7939  0.9138 -0.1256
19857SOL    HW266177   4.677   0.974   6.062 -0.0301 -1.3596 -2.9058
19858SOL     OW66178   7.272   7.549   7.253  0.2504  0.4445 -0.5215
19858SOL    HW166179   7.239   7.629   7.213  1.4068  1.4530  0.4231
19858SOL    HW266180   7.367   7.564   7.260  0.1733  0.1339  2.0510
19859SOL     OW66181   7.367   7.230   6.081  0.2079 -0.0711 -0.1012
19859SOL    HW166182   7.290   7.185   6.116  0.2935 -0.0244  0.1505
19859SOL    HW266183   7.335   7.319   6.061 -0.2743 -0.5760 -1.7447
19860SOL     OW66184   3.945   8.825   4.603 -0.1927  0.2579 -0.2588
19860SOL    HW166185   3.934   8.893   4.670 -0.0911  1.4865 -1.4294
19860SOL    HW266186   3.861   8.825   4.556 -0.0822 -0.2167 -0.4573
19861SOL     OW66187  11.211  10.382  12.364  0.0599 -0.1702 -0.3914
19861SOL    HW166188  11.189  10.297  12.403  1.0048  0.2215  1.0637
19861SOL    HW266189  11.153  10.444  12.408  0.8210  0.2134  0.0904
19862SOL     OW66190  10.576   5.784   5.132  0.1122  0.0649  0.2860
19862SOL    HW166191  10.592   5.705   5.185 -0.5231  0.3343  0.8894
19862SOL    HW266192  10.481   5.785   5.119  0.1198  0.7291  0.2734
19863SOL     OW66193  11.912   3.899   5.095  0.3217  0.2775 -0.1094
19863SOL    HW166194  11.990   3.937   5.054  0.7455  0.6705  1.0089
19863SOL    HW266195  11.940   3.878   5.184 -0.2683 -1.5211 -0.3031
19864SOL     OW66196   9.621   4.048   2.760  0.3140 -0.4709 -0.0302
19864SOL    HW166197   9.639   3.958   2.789 -0.2338 -0.0066  1.8786
19864SOL    HW266198   9.531   4.064   2.786  0.5593  0.7877  0.1097
19865SOL     OW66199   6.403   6.715   6.048 -0.2552 -0.4982  0.1101
19865SOL    HW166200   6.423   6.719   6.142 -0.4761  1.8979  0.1219
19865SOL    HW266201   6.338   6.645   6.040 -2.1945  0.9136  2.1786
19866SOL     OW66202   6.591   1.352   8.894 -0.5169  0.0018  0.3560
19866SOL    HW166203   6.594   1.288   8.823 -0.8995  0.2019  0.1557
19866SOL    HW266204   6.644   1.313   8.964  1.6005  0.7091 -0.7741
19867SOL     OW66205   5.463   2.788   7.489  0.0578 -0.4590  0.1489
19867SOL    HW166206   5.471   2.882   7.473 -3.7564 -0.0915 -0.5214
19867SOL    HW266207   5.427   2.752   7.408  1.2121 -2.5249  0.4725
19868SOL     OW66208   5.369   2.403   7.181 -0.0273 -0.4779  0.0871
19868SOL    HW166209   5.435   2.334   7.182  0.2587 -0.2023  0.1201
19868SOL    HW266210   5.364   2.433   7.272  1.7706  1.3706 -0.3414
19869SOL     OW66211   2.299  11.987   6.146 -0.0198  0.5341  0.7218
19869SOL    HW166212   2.311  11.910   6.202  0.7022  0.2621  0.2086
19869SOL    HW266213   2.258  12.052   6.203 -0.7828 -0.2747  1.1188
19870SOL     OW66214   3.445   4.351  11.704 -0.4014 -0.0680  0.5845
19870SOL    HW166215   3.427   4.262  11.733 -1.7573 -0.7391 -2.0156
19870SOL    HW266216   3.368   4.401  11.731 -1.6182 -0.6723 -1.5204
19871SOL     OW66217  11.751   0.370  12.774  0.8948 -0.4748  0.3552
19871SOL    HW166218  11.787   0.326  12.851 -0.2008 -1.6013  0.2404
19871SOL    HW266219  11.672   0.414  12.806  1.8943  1.3815  0.4441
19872SOL     OW66220   9.923   5.653  12.613 -0.6590 -0.1209  0.5197
19872SOL    HW166221   9.934   5.711  12.688 -1.5088  1.3487 -0.4257
19872SOL    HW266222   9.899   5.712  12.541  1.0685 -1.3611 -1.1523
19873SOL     OW66223   6.071   3.851   3.905  0.3689 -0.3971  0.3162
19873SOL    HW166224   6.097   3.779   3.849  0.1025 -0.1925 -0.0748
19873SOL    HW266225   6.049   3.810   3.989  2.5827 -0.5168  0.8953
19874SOL     OW66226   6.655   4.743   5.645 -0.1052  0.0466  0.5578
19874SOL    HW166227   6.711   4.742   5.567 -1.0535  0.9889 -0.1686
19874SOL    HW266228   6.681   4.665   5.694  0.9110 -0.2598 -0.4178
19875SOL     OW66229   3.327  11.275  11.523  0.0715  0.2040  0.0139
19875SOL    HW166230   3.381  11.318  11.590 -0.2339  2.1415 -0.9119
19875SOL    HW266231   3.246  11.326  11.522 -1.2861 -1.8169  0.4209
19876SOL     OW66232  11.696   3.626  10.826  0.2639  0.4925 -0.2933
19876SOL    HW166233  11.715   3.605  10.735  0.2745 -1.9234  0.2166
19876SOL    HW266234  11.609   3.591  10.842  0.4098  0.5677  0.7321
19877SOL     OW66235  11.516  12.028  11.179  0.4692 -0.1121  0.5372
19877SOL    HW166236  11.592  12.037  11.122  0.6362  0.2794  0.8227
19877SOL    HW266237  11.476  12.115  11.181 -0.6511 -0.5634 -0.5277
19878SOL     OW66238   7.473   3.353   7.107 -0.0215  0.0348  0.6313
19878SOL    HW166239   7.551   3.298   7.112 -0.2251 -0.3713 -0.2891
19878SOL    HW266240   7.494   3.430   7.160  0.8999 -0.1927  0.6218
19879SOL     OW66241   3.394   8.551   6.393  0.7550 -0.9649 -0.4271
19879SOL    HW166242   3.347   8.479   6.436  1.6328 -0.0685  2.2432
19879SOL    HW266243   3.482   8.517   6.379  1.3055 -0.3179  1.2709
19880SOL     OW66244  11.058   5.323  10.430  0.3109  0.0900 -0.1252
19880SOL    HW166245  11.125   5.256  10.439  0.9548  0.6794 -0.4283
19880SOL    HW266246  10.994   5.285  10.369 -1.0327 -1.5415  2.1685
19881SOL     OW66247   7.305   0.768   5.368 -0.7981  0.0020 -0.2030
19881SOL    HW166248   7.342   0.682   5.386 -1.4869 -0.2795 -0.0812
19881SOL    HW266249   7.282   0.802   5.455 -1.7702 -0.2760 -0.3310
19882SOL     OW66250   7.295   5.713  11.364 -0.0711 -0.1628 -0.5743
19882SOL    HW166251   7.337   5.646  11.309  2.3103 -0.8590  1.8527
19882SOL    HW266252   7.365   5.775  11.382 -1.5592  1.5889 -0.5844
19883SOL     OW66253   7.672  11.034   8.669 -0.0180 -0.3181 -0.0117
19883SOL    HW166254   7.755  11.081   8.675  0.5817 -1.4105  0.7207
19883SOL    HW266255   7.610  11.088   8.719  0.5158 -0.0143  0.3324
19884SOL     OW66256  12.057   0.708   1.903 -0.0084 -0.2363 -0.2211
19884SOL    HW166257  11.964   0.696   1.925 -0.3629  0.3379 -1.2945
19884SOL    HW266258  12.056   0.735   1.811  1.2432 -0.4059 -0.3024
19885SOL     OW66259   4.186   2.229   1.234 -0.2136  0.3791 -0.3454
19885SOL    HW166260   4.091   2.221   1.247 -0.0088  0.6714  1.6744
19885SOL    HW266261   4.208   2.312   1.275  0.8574  0.5697 -1.2817
19886SOL     OW66262   4.630  11.076   7.913 -0.2245  0.1339 -0.0773
19886SOL    HW166263   4.571  11.035   7.976 -0.0821 -0.5062 -0.3444
19886SOL    HW266264   4.698  11.010   7.897 -0.8049 -0.1410 -1.6504
19887SOL     OW66265   3.900   2.798   5.954  0.3723 -0.3850  0.2156
19887SOL    HW166266   3.945   2.862   6.009  1.1489 -1.0680  0.3895
19887SOL    HW266267   3.881   2.725   6.013 -2.3972  0.4779  0.5736
19888SOL     OW66268   9.066   5.146   1.105 -0.7492 -0.7377  0.6331
19888SOL    HW166269   9.042   5.219   1.049 -2.3526 -0.6302  1.4088
19888SOL    HW266270   8.984   5.100   1.122  0.1700 -2.5733  0.3873
19889SOL     OW66271   2.364   0.897  11.574  0.1477  0.5405 -0.6862
19889SOL    HW166272   2.308   0.826  11.541  0.3483 -0.2503  0.6284
19889SOL    HW266273   2.331   0.975  11.529  0.4753 -0.4707 -2.8559
19890SOL     OW66274   8.925   3.115   8.127  0.0563  0.2476  0.0625
19890SOL    HW166275   8.863   3.059   8.081  0.1639 -0.1136  0.3540
19890SOL    HW266276   8.949   3.182   8.063 -0.6320  0.3914 -0.0550
19891SOL     OW66277  11.486   3.470   1.851  0.4860  0.4395  0.0116
19891SOL    HW166278  11.499   3.517   1.933 -1.5082  0.6515  0.2339
19891SOL    HW266279  11.392   3.467   1.838  0.7085 -0.3377 -1.8582
19892SOL     OW66280  11.210   8.840   7.848 -0.0609  0.1407  0.1531
19892SOL    HW166281  11.272   8.771   7.826  2.7989  2.0967  1.4984
19892SOL    HW266282  11.202   8.893   7.768 -1.0922 -0.8322 -0.4163
19893SOL     OW66283  12.057   2.213   7.931  0.4442  0.2809  0.6842
19893SOL    HW166284  12.092   2.238   8.017  1.1138 -0.0716  0.5243
19893SOL    HW266285  11.980   2.269   7.919 -0.4471 -0.5867  2.0990
19894SOL     OW66286   3.984   8.154   0.992  0.0643 -0.3530 -0.3118
19894SOL    HW166287   3.942   8.081   0.947 -1.2466  0.0974  0.1422
19894SOL    HW266288   4.056   8.180   0.934 -0.2739 -1.1535 -1.1078
19895SOL     OW66289   4.826  12.521  12.387  0.1938 -0.4532  0.1070
19895SOL    HW166290   4.895  12.477  12.337  0.3490 -0.5584  0.4159
19895SOL    HW266291   4.752  12.524  12.326  0.7026  0.3350 -0.4910
19896SOL     OW66292   4.701  12.103   7.490  0.0256 -0.5593  0.6411
19896SOL    HW166293   4.661  12.072   7.408 -0.1220  2.0471 -0.3738
19896SOL    HW266294   4.677  12.196   7.494  2.0858 -0.0415  2.4009
19897SOL     OW66295   3.649   6.984   2.668  0.5615  0.6090 -0.0761
19897SOL    HW166296   3.615   7.036   2.595 -0.2573 -0.2375 -0.3239
19897SOL    HW266297   3.744   6.984   2.656  0.4507  0.6477 -1.0316
19898SOL     OW66298  12.684  12.786   3.304 -0.5250 -0.0561 -0.1256
19898SOL    HW166299  12.646  12.698   3.298 -1.5252  0.2557  1.0940
19898SOL    HW266300  12.611  12.845   3.288 -0.2474  0.5528  0.7398
19899SOL     OW66301   6.910   3.968  12.269 -0.4676 -0.5363  0.0105
19899SOL    HW166302   6.937   4.060  12.262 -0.9054 -0.4093 -0.0518
19899SOL    HW266303   6.816   3.970  12.250 -0.4920 -0.9872  0.0911
19900SOL     OW66304  10.013   9.992   8.909  0.3567  0.0733 -0.6415
19900SOL    HW166305  10.056   9.953   8.985  0.4028 -0.2177 -0.8157
19900SOL    HW266306   9.945   9.930   8.886  0.0165  0.4041 -0.5346
19901SOL     OW66307   7.049   0.450   4.044  0.5069  0.1242 -0.1348
19901SOL    HW166308   6.993   0.514   4.087 -0.2680 -0.0508 -0.8617
19901SOL    HW266309   7.037   0.467   3.950 -0.6283 -1.8220 -0.3994
19902SOL     OW66310   0.124   5.653   4.953  0.1344  0.4373 -0.1516
19902SOL    HW166311   0.183   5.696   5.015  0.7582 -0.1053 -0.3627
19902SOL    HW266312   0.092   5.724   4.897 -0.2977  0.9042  0.6691
19903SOL     OW66313   9.890  12.674   7.964  0.3171  0.0094  0.3209
19903SOL    HW166314   9.801  12.707   7.953 -0.0735 -0.8061  0.9733
19903SOL    HW266315   9.915  12.703   8.052  0.7926  0.4411  0.0490
19904SOL     OW66316   0.927  10.043   7.208 -0.2889  0.8332 -0.0888
19904SOL    HW166317   0.836  10.042   7.236 -0.3541  1.0002 -0.2882
19904SOL    HW266318   0.966   9.965   7.248 -0.8340  0.0580 -1.0169
19905SOL     OW66319   2.832   0.445   2.981  0.0145 -0.6458 -0.3279
19905SOL    HW166320   2.829   0.369   3.040  1.7623  0.7533  1.7114
19905SOL    HW266321   2.924   0.452   2.956 -0.2405  0.4175 -1.0351
19906SOL     OW66322   1.256   9.705  11.359  0.3551  0.5924  0.4086
19906SOL    HW166323   1.345   9.706  11.393  0.7024  1.2017 -0.4716
19906SOL    HW266324   1.265   9.674  11.269 -0.5602 -1.1589  0.8936
19907SOL     OW66325   0.510  12.642  11.584 -0.4934  0.1444  0.4420
19907SOL    HW166326   0.519  12.674  11.673 -2.0613  2.2867 -0.0677
19907SOL    HW266327   0.550  12.711  11.530 -0.5114 -0.6088 -0.5677
19908SOL     OW66328   0.060   3.309   6.379 -0.2852 -0.4917  0.0433
19908SOL    HW166329   0.032   3.304   6.470 -0.1785 -0.2525  0.0877
19908SOL    HW266330   0.041   3.399   6.352 -0.4214 -0.5924 -0.2046
19909SOL     OW66331  10.789  12.257   0.178  0.5700 -0.0981 -0.8353
19909SOL    HW166332  10.777  12.177   0.229  0.5227  0.6453  0.3591
19909SOL    HW266333  10.702  12.279   0.146 -0.0436  1.1272  1.4387
19910SOL     OW66334   6.765  11.315  11.160 -0.3775  0.3107 -0.1297
19910SOL    HW166335   6.759  11.408  11.138 -2.7773 -0.1193 -1.7328
19910SOL    HW266336   6.809  11.313  11.245  0.6942  2.8080 -0.5265
19911SOL     OW66337   6.591   5.924  11.684  0.3843  0.1585 -0.3895
19911SOL    HW166338   6.528   5.871  11.733  1.0252  0.5948  0.9398
19911SOL    HW266339   6.537   5.981  11.630 -0.3292 -1.5869 -1.6372
19912SOL     OW66340  12.417   4.558   7.982  0.0467  0.0492 -0.3934
19912SOL    HW166341  12.403   4.551   8.076 -1.1473  1.0933 -0.4617
19912SOL    HW266342  12.396   4.649   7.962 -0.0955 -0.2613 -1.7395
19913SOL     OW66343  11.416   1.182   3.845  0.2111 -0.3208  0.3393
19913SOL    HW166344  11.508   1.160   3.857  0.0101 -1.0046  0.6676
19913SOL    HW266345  11.369   1.100   3.861 -0.3342 -0.4150 -1.5832
19914SOL     OW66346   7.495   6.467  10.433 -0.6866 -0.1909 -0.2530
19914SOL    HW166347   7.463   6.379  10.414  0.1321 -0.2555 -1.5009
19914SOL    HW266348   7.525   6.463  10.524 -2.0340 -0.7642  0.1802
19915SOL     OW66349   0.157  10.103   6.903  0.1012  0.1700 -0.2533
19915SOL    HW166350   0.078  10.066   6.942 -0.1580  0.2737 -0.6761
19915SOL    HW266351   0.152  10.197   6.921  0.7028  0.0249  0.7188
19916SOL     OW66352  11.809   9.247   6.390 -0.0513 -0.5661 -0.1854
19916SOL    HW166353  11.749   9.211   6.455  1.1254 -0.5759  0.9318
19916SOL    HW266354  11.897   9.230   6.426  0.6590 -0.9738 -1.9812
19917SOL     OW66355   6.586   1.155   6.617 -0.8571 -0.3769  0.3288
19917SOL    HW166356   6.527   1.130   6.546 -0.9712 -1.0149  0.6465
19917SOL    HW266357   6.665   1.103   6.602 -0.3912  0.4239 -0.0558
19918SOL     OW66358   7.404   3.549   3.795 -0.2962  0.0508 -0.0225
19918SOL    HW166359   7.323   3.570   3.841 -0.8437 -3.5250  1.0059
19918SOL    HW266360   7.376   3.517   3.709  0.0814 -0.2015 -0.0566
19919SOL     OW66361   7.334   0.201   9.227  0.2436 -0.5559 -0.4066
19919SOL    HW166362   7.354   0.198   9.134 -2.0742 -1.7557 -0.9539
19919SOL    HW266363   7.284   0.282   9.238  2.5630  0.8625  0.3454
19920SOL     OW66364  11.506  10.156   2.526  0.5923 -0.1568  0.4863
19920SOL    HW166365  11.577  10.093   2.522 -0.7295 -1.6941  0.0753
19920SOL    HW266366  11.519  10.213   2.451  0.6010 -1.3409 -0.4425
19921SOL     OW66367   0.587  10.520   3.795  0.0365 -0.3784  0.1655
19921SOL    HW166368   0.592  10.550   3.704  0.4800 -0.1420  0.2665
19921SOL    HW266369   0.530  10.584   3.839  3.1235  2.0024  1.0280
19922SOL     OW66370   1.565   8.464   0.524 -0.1437 -0.4503 -0.2891
19922SOL    HW166371   1.632   8.403   0.553  0.4456 -0.4507 -1.5825
19922SOL    HW266372   1.614   8.539   0.491 -0.7131 -0.8100 -2.0643
19923SOL     OW66373   0.345   5.602   2.659  0.3100 -0.3594 -0.2357
19923SOL    HW166374   0.327   5.508   2.662 -0.8602 -0.1586 -0.2920
19923SOL    HW266375   0.279   5.641   2.717  1.7502  0.3144  1.0178
19924SOL     OW66376  12.693   6.750   2.654 -0.2226  0.3330  0.0109
19924SOL    HW166377  12.659   6.664   2.629  0.4141  0.3129 -0.8045
19924SOL    HW266378  12.785   6.749   2.628 -0.3656  1.4856 -0.5822
19925SOL     OW66379   2.846   6.854   4.446  0.5509  0.1225  0.3726
19925SOL    HW166380   2.798   6.854   4.363  2.1283  0.5666 -0.5679
19925SOL    HW266381   2.779   6.832   4.511 -1.1881  1.7169 -0.7437
19926SOL     OW66382  11.693   2.756  11.626 -0.1019 -0.2363 -0.1605
19926SOL    HW166383  11.603   2.725  11.633  0.1158 -0.8387  0.0623
19926SOL    HW266384  11.686   2.842  11.587 -0.9003  0.3633  1.2189
19927SOL     OW66385   7.046   0.988   6.530  0.1945 -0.0345  0.2624
19927SOL    HW166386   7.044   1.074   6.488 -0.5316  0.5117  1.3674
19927SOL    HW266387   7.073   0.928   6.461  1.5251  1.1881 -0.3201
19928SOL     OW66388   8.479  10.126  11.441 -0.2138  0.0678 -0.5990
19928SOL    HW166389   8.568  10.107  11.471 -0.1695  2.1916  0.9015
19928SOL    HW266390   8.489  10.202  11.383 -0.8553 -1.0075 -2.1712
19929SOL     OW66391   5.822  12.263   4.919  0.1109  0.4682 -0.3349
19929SOL    HW166392   5.749  12.317   4.951 -0.2058  1.3048 -2.3451
19929SOL    HW266393   5.789  12.173   4.925 -0.5400  0.7223  0.0958
19930SOL     OW66394   9.388   6.925   0.155  0.3921  0.2357 -0.4449
19930SOL    HW166395   9.448   6.981   0.204 -0.3854  1.0299 -0.3866
19930SOL    HW266396   9.351   6.866   0.221 -0.2213  0.9236 -0.1659
19931SOL     OW66397   0.188  10.299   2.602 -0.3145 -0.1736 -0.5729
19931SOL    HW166398   0.127  10.291   2.675  0.3169  0.0180 -0.0107
19931SOL    HW266399   0.137  10.340   2.532 -0.8756 -0.1946 -0.1849
19932SOL     OW66400  11.667   3.553  11.975 -0.1574  0.0214 -0.0167
19932SOL    HW166401  11.573   3.540  11.967 -0.2911  1.8992 -3.6346
19932SOL    HW266402  11.705   3.480  11.925  0.2226  0.1433  0.0924
19933SOL     OW66403  11.213  12.369   3.270 -0.2446  0.0300 -0.1230
19933SOL    HW166404  11.125  12.338   3.249 -0.9599  1.3144  0.8066
19933SOL    HW266405  11.269  12.291   3.264 -1.4565 -0.8136 -0.6651
19934SOL     OW66406   0.141   8.227   6.460 -0.3229  0.3842 -0.2097
19934SOL    HW166407   0.160   8.202   6.550 -1.0737  1.3275  0.2318
19934SOL    HW266408   0.222   8.210   6.412 -1.1264 -4.3607 -0.3485
19935SOL     OW66409   9.638   8.313   2.211  0.4671  0.0841  0.3701
19935SOL    HW166410   9.684   8.392   2.238  0.9648 -0.6130  1.6040
19935SOL    HW266411   9.545   8.333   2.228  0.6247  0.2617  1.0412
19936SOL     OW66412   5.280   1.811   6.668 -0.1227 -0.2675 -0.3973
19936SOL    HW166413   5.360   1.808   6.722  0.4855 -1.1661 -1.2949
19936SOL    HW266414   5.259   1.904   6.661  0.2433 -0.0834  0.7209
19937SOL     OW66415   2.613   7.979   3.025  0.2258  0.3110  0.4316
19937SOL    HW166416   2.690   7.985   2.969 -0.9085  1.0884 -1.1220
19937SOL    HW266417   2.544   7.947   2.966 -0.8515  0.5308  1.5476
19938SOL     OW66418  11.621   6.509   7.235 -0.6538 -0.7682  0.2525
19938SOL    HW166419  11.688   6.567   7.272 -1.2775  0.0562  0.1298
19938SOL    HW266420  11.546   6.519   7.293 -1.4291  0.0673 -0.8392
19939SOL     OW66421   1.856   0.591   3.797 -0.0768 -0.3614 -0.6153
19939SOL    HW166422   1.803   0.527   3.845 -0.6559 -0.8120 -1.8328
19939SOL    HW266423   1.916   0.626   3.863 -2.1159  0.4405  0.9023
19940SOL     OW66424   5.339   2.917   8.517  0.3160  0.1914  0.0497
19940SOL    HW166425   5.314   2.903   8.425  0.4684  1.0244 -0.1235
19940SOL    HW266426   5.411   2.856   8.531 -1.5594 -2.0854  0.4872
19941SOL     OW66427  10.047   6.009   7.666  0.7541 -0.3286  0.4671
19941SOL    HW166428  10.101   6.026   7.589 -0.6014 -0.7494 -0.6039
19941SOL    HW266429   9.986   5.940   7.639 -2.3031  2.0883  0.6260
19942SOL     OW66430   2.381  12.599   7.150  0.3321 -0.3074 -0.4008
19942SOL    HW166431   2.386  12.599   7.054 -0.5476 -0.7736 -0.4584
19942SOL    HW266432   2.308  12.540   7.170 -0.3606  0.8195  0.5053
19943SOL     OW66433   9.496  11.093   6.217  0.2142  0.3797 -0.2214
19943SOL    HW166434   9.503  11.008   6.262  1.0517 -0.0243 -1.0732
19943SOL    HW266435   9.468  11.071   6.129 -2.2830  1.2371  0.2778
19944SOL     OW66436   8.181   3.179   3.657 -0.9286  0.0926  0.1121
19944SOL    HW166437   8.218   3.117   3.721 -2.7895 -0.0448  1.1365
19944SOL    HW266438   8.209   3.265   3.689  1.6686 -0.1227 -1.3161
19945SOL     OW66439   9.177   6.775   7.798  0.5288 -0.3070 -0.2357
19945SOL    HW166440   9.199   6.754   7.889  0.9654  1.0252 -0.0107
19945SOL    HW266441   9.098   6.829   7.804  1.0843  0.5664 -0.5670
19946SOL     OW66442   7.325   5.300  10.930  0.4175  0.0312 -0.0845
19946SOL    HW166443   7.289   5.261  11.009  0.4218  0.0964 -0.0509
19946SOL    HW266444   7.356   5.226  10.878 -1.5303 -0.1985 -0.9979
19947SOL     OW66445   6.868   6.912   9.804 -1.0321 -0.6347 -0.1273
19947SOL    HW166446   6.904   6.840   9.751  0.3959  1.9677 -3.0274
19947SOL    HW266447   6.843   6.870   9.887  2.0855 -4.0145 -0.6026
19948SOL     OW66448   1.236   9.003   2.532  0.0164 -0.5345 -0.0987
19948SOL    HW166449   1.269   8.996   2.443  0.8016  2.3917 -0.1270
19948SOL    HW266450   1.315   9.000   2.587 -0.1489  0.7257  0.2404
19949SOL     OW66451  12.742   5.149   7.130  0.2171  0.2119  0.2334
19949SOL    HW166452  12.785   5.228   7.098  0.1610 -0.1075 -0.6789
19949SOL    HW266453  12.809   5.103   7.180  0.0149  1.2176  1.4586
19950SOL     OW66454   8.265   2.413   1.830 -0.0806  0.0714  0.0006
19950SOL    HW166455   8.293   2.504   1.841  0.0086  0.0082  0.2984
19950SOL    HW266456   8.195   2.418   1.766  0.1687  0.3083 -0.2595
19951SOL     OW66457  11.031   1.429  11.574 -0.2249  0.6208  0.0910
19951SOL    HW166458  11.077   1.400  11.653  0.5827  1.0650 -0.2104
19951SOL    HW266459  11.088   1.403  11.502 -2.1445 -2.1914 -0.5812
19952SOL     OW66460   6.590   2.626   5.686 -0.0162 -0.2630  0.0175
19952SOL    HW166461   6.501   2.660   5.689  0.4255  0.8313  1.2699
19952SOL    HW266462   6.599   2.593   5.596 -0.9228  1.7096 -0.8570
19953SOL     OW66463   7.804   5.728  11.166 -0.0203  0.6532 -0.6077
19953SOL    HW166464   7.732   5.691  11.217 -0.8562 -0.3857 -2.4436
19953SOL    HW266465   7.883   5.700  11.211 -0.7383  0.8675  0.8170
19954SOL     OW66466  11.669   6.733   4.135 -0.0453 -0.4493 -0.0442
19954SOL    HW166467  11.671   6.771   4.222 -0.3702  1.5314 -0.8388
19954SOL    HW266468  11.756   6.693   4.124  0.0495 -0.5910  1.1081
19955SOL     OW66469   2.721   0.603   7.427 -1.1789 -0.1334 -0.5034
19955SOL    HW166470   2.724   0.522   7.478  1.5850  1.4666  2.2170
19955SOL    HW266471   2.797   0.598   7.369  0.0850  1.1666  0.9619
19956SOL     OW66472  10.012   9.630  11.854  0.2055  0.2949 -0.1551
19956SOL    HW166473  10.005   9.535  11.846 -0.8388  0.2886  0.6111
19956SOL    HW266474   9.938   9.665  11.806  1.8404  0.8783 -2.4303
19957SOL     OW66475   4.456   3.390   8.636 -0.1385 -0.3746  0.2636
19957SOL    HW166476   4.506   3.311   8.614  3.6275  1.2185  2.1062
19957SOL    HW266477   4.475   3.451   8.565 -0.7564 -0.2446  0.2076
19958SOL     OW66478   1.426  11.538   5.805 -0.3535  0.5044 -0.4642
19958SOL    HW166479   1.354  11.596   5.781 -0.1251  0.2827 -1.7565
19958SOL    HW266480   1.451  11.496   5.723  0.9056  0.1852  0.0602
19959SOL     OW66481   3.276   4.026   7.541  0.1746  0.0236  0.0644
19959SOL    HW166482   3.261   4.020   7.447 -2.6271 -1.0786  0.4853
19959SOL    HW266483   3.364   4.064   7.549  1.1652 -1.3025 -2.9759
19960SOL     OW66484   4.801   5.913  10.707  0.8747  0.7643 -0.0121
19960SOL    HW166485   4.723   5.964  10.726  2.4644  3.7309 -0.7974
19960SOL    HW266486   4.803   5.905  10.612 -0.1648 -2.3386  0.1331
19961SOL     OW66487   2.040   8.168   0.538  0.2123  0.1995 -0.8164
19961SOL    HW166488   2.027   8.105   0.467 -0.6811 -1.2226  0.5203
19961SOL    HW266489   2.049   8.114   0.616 -0.7991  1.7353  0.4330
19962SOL     OW66490   3.182   4.587  10.319  0.8767  0.0170  0.5380
19962SOL    HW166491   3.182   4.664  10.262  0.9901 -1.9810 -2.3970
19962SOL    HW266492   3.275   4.572  10.340  0.9362  0.2195  0.4188
19963SOL     OW66493   7.453   0.491   5.400  0.0298  0.6132 -0.3946
19963SOL    HW166494   7.499   0.508   5.482  0.2812  1.7861 -0.7696
19963SOL    HW266495   7.492   0.410   5.368  1.2114  1.1085 -0.2525
19964SOL     OW66496   2.657  11.457   2.251 -0.0239  0.3987  0.0295
19964SOL    HW166497   2.684  11.544   2.279  0.8092  0.5693 -1.2466
19964SOL    HW266498   2.618  11.470   2.164  0.1639 -0.4988 -0.1992
19965SOL     OW66499   6.271   7.239  11.896 -0.4567  0.6128  0.0158
19965SOL    HW166500   6.289   7.277  11.810 -0.0256 -0.5871 -0.4515
19965SOL    HW266501   6.176   7.226  11.897 -0.2787 -0.9976 -1.0168
19966SOL     OW66502   3.198   2.718   2.168 -0.3445  0.7597 -0.1537
19966SOL    HW166503   3.268   2.659   2.193 -1.5759 -1.2598 -1.1918
19966SOL    HW266504   3.234   2.806   2.182  1.8430 -0.2046  0.6785
19967SOL     OW66505   2.015   9.026   7.162  0.1627 -0.7874 -0.0272
19967SOL    HW166506   2.041   9.029   7.070  1.3043 -0.9693  0.2636
19967SOL    HW266507   2.009   9.118   7.187  0.6425 -0.7356 -0.0861
19968SOL     OW66508  10.086   1.685   7.434 -0.8576  0.0671  0.1169
19968SOL    HW166509  10.137   1.740   7.494 -0.2535  0.7477 -0.9702
19968SOL    HW266510  10.004   1.732   7.422 -0.7568  0.2134 -0.0048
19969SOL     OW66511   2.918   2.687   9.024  0.2074 -0.1208  0.3477
19969SOL    HW166512   2.880   2.640   8.950 -0.0224 -0.7541  0.8620
19969SOL    HW266513   2.990   2.631   9.054  0.1656  0.0272  0.7332
19970SOL     OW66514   0.250   9.271  10.987 -0.1338  0.0461  0.2479
19970SOL    HW166515   0.202   9.281  11.070  1.4301  1.9199  1.0205
19970SOL    HW266516   0.246   9.177  10.969 -1.4051 -0.2815  1.8994
19971SOL     OW66517   1.298   7.514  11.402  0.4480  0.3512 -0.4969
19971SOL    HW166518   1.375   7.502  11.459  0.0801 -1.3540 -0.3020
19971SOL    HW266519   1.308   7.447  11.334 -0.6629  0.3596 -0.6865
19972SOL     OW66520   1.589   8.663  12.099  0.4065  0.4166 -0.0931
19972SOL    HW166521   1.607   8.666  12.192  0.3806  0.1797 -0.0801
19972SOL    HW266522   1.542   8.744  12.081 -0.4482  0.0163  0.2862
19973SOL     OW66523   2.510   4.382   7.293 -0.5343  0.4449  0.2864
19973SOL    HW166524   2.580   4.395   7.229 -2.2419  0.5009 -1.6404
19973SOL    HW266525   2.435   4.430   7.258 -1.4488  0.8012  2.5395
19974SOL     OW66526   6.255   2.110   2.325  0.0586  0.0975 -0.2128
19974SOL    HW166527   6.200   2.056   2.269  1.5928 -1.0146 -0.7323
19974SOL    HW266528   6.321   2.146   2.266  0.4980  0.5550  0.5455
19975SOL     OW66529   0.526   6.440  10.086 -0.3743 -0.1534  0.2839
19975SOL    HW166530   0.573   6.370  10.040  0.8442  0.0968  1.1036
19975SOL    HW266531   0.487   6.493  10.017  0.3138 -0.5406 -0.4090
19976SOL     OW66532   0.808  10.110   6.482  0.0987 -0.3389  0.3775
19976SOL    HW166533   0.865  10.075   6.551 -1.3628 -0.6100  1.5028
19976SOL    HW266534   0.780  10.195   6.516 -1.0612 -0.7125  0.3967
19977SOL     OW66535   5.748  12.405   1.399  0.4401 -0.2138  0.2815
19977SOL    HW166536   5.826  12.352   1.415  0.7540 -0.3987 -1.5938
19977SOL    HW266537   5.683  12.372   1.461  1.7346 -0.2624  1.6602
19978SOL     OW66538   0.943  12.698   1.743 -0.6649 -0.1205 -0.3189
19978SOL    HW166539   0.997  12.628   1.780  2.0739  1.0907 -1.7631
19978SOL    HW266540   0.893  12.656   1.673 -0.9205 -1.0825  0.4198
19979SOL     OW66541   4.195   7.383  11.440 -0.1305 -0.2573  0.6016
19979SOL    HW166542   4.132   7.311  11.449 -0.1646 -0.4122 -0.7124
19979SOL    HW266543   4.275   7.351  11.481 -0.2104 -0.9711  0.2193
19980SOL     OW66544   9.247   9.962   3.868 -0.2436 -0.1233 -0.0318
19980SOL    HW166545   9.331  10.004   3.850 -0.1334 -0.7943 -1.1378
19980SOL    HW266546   9.214   9.935   3.782 -1.0877 -0.8325  0.4974
19981SOL     OW66547   2.931   5.282  10.354  0.3555 -0.0420  0.8348
19981SOL    HW166548   2.957   5.191  10.368 -0.4137 -0.5736 -0.9658
19981SOL    HW266549   2.837   5.278  10.336  0.7703  0.7335 -1.9376
19982SOL     OW66550   9.558   3.847   9.607  0.0381 -0.2002  0.0818
19982SOL    HW166551   9.518   3.875   9.525 -2.4392 -1.7439  0.6663
19982SOL    HW266552   9.637   3.800   9.581 -1.1648 -1.4355 -1.4883
19983SOL     OW66553   4.176  12.528   5.526 -0.7951  0.2190  0.3805
19983SOL    HW166554   4.197  12.450   5.577  0.4759 -0.5883 -1.3000
19983SOL    HW266555   4.218  12.600   5.575  1.2286 -0.6557  0.0471
19984SOL     OW66556   1.108   5.344   1.340  0.0709  0.5923  0.5199
19984SOL    HW166557   1.018   5.363   1.367 -0.2633 -0.9905  0.6201
19984SOL    HW266558   1.111   5.368   1.247 -0.4156  0.8004  0.5582
19985SOL     OW66559   1.418   2.248   5.673  0.1788 -0.2130 -0.4659
19985SOL    HW166560   1.384   2.186   5.737  0.8521 -0.3443 -0.2275
19985SOL    HW266561   1.507   2.268   5.703 -0.2453  1.4087 -0.1500
19986SOL     OW66562   8.950  10.421   0.593 -0.0244  0.3033 -0.1897
19986SOL    HW166563   8.911  10.477   0.660  0.4631  0.2798  0.1155
19986SOL    HW266564   8.888  10.424   0.520 -0.8518 -0.1298  0.4765
19987SOL     OW66565  10.594   6.592   8.274  0.3352 -0.2859  0.9378
19987SOL    HW166566  10.546   6.672   8.298 -0.0244 -0.1437 -0.1801
19987SOL    HW266567  10.540   6.521   8.306 -0.3217 -0.1079  0.2646
19988SOL     OW66568   9.159   8.649   6.900 -0.4734  0.1970 -0.0753
19988SOL    HW166569   9.085   8.657   6.960 -1.2782  1.9193 -1.2125
19988SOL    HW266570   9.184   8.739   6.881  0.7005 -0.3343 -1.1936
19989SOL     OW66571   5.440   7.742   7.097 -0.0344 -0.1238  0.7704
19989SOL    HW166572   5.502   7.759   7.026 -1.5404  1.1044 -0.3364
19989SOL    HW266573   5.486   7.683   7.157  1.9183  0.2179 -0.3337
19990SOL     OW66574   1.010   9.326   4.631 -0.2665  0.3077  0.0900
19990SOL    HW166575   1.095   9.356   4.661 -0.5795  1.2231  0.1048
19990SOL    HW266576   1.027   9.243   4.586  0.8751  1.3657 -1.4917
19991SOL     OW66577   7.207   1.828   4.067  0.0227  0.1175 -0.0542
19991SOL    HW166578   7.232   1.906   4.117  0.2118  0.1025 -0.1271
19991SOL    HW266579   7.113   1.840   4.050  0.0811  0.3985 -0.1882
19992SOL     OW66580   0.336   4.177   5.583  0.0489  0.0775 -0.5918
19992SOL    HW166581   0.262   4.123   5.555 -1.0158  0.2061  1.7254
19992SOL    HW266582   0.408   4.115   5.595 -0.5357 -0.5092 -0.0527
19993SOL     OW66583   0.838   3.531   0.200 -0.0685 -0.0872 -0.0020
19993SOL    HW166584   0.919   3.483   0.216 -0.5417 -0.9735 -0.2437
19993SOL    HW266585   0.788   3.521   0.281  0.8067  2.0361  0.8933
19994SOL     OW66586   6.924   7.582   4.151  0.0656  0.4750  0.1266
19994SOL    HW166587   7.012   7.619   4.151  0.7736 -1.1501 -0.4238
19994SOL    HW266588   6.874   7.640   4.209  2.0340  0.1410  2.2623
19995SOL     OW66589   8.554   8.047  10.043  0.0321  0.4120  0.0363
19995SOL    HW166590   8.589   8.089   9.964 -1.2249  1.3646 -0.0515
19995SOL    HW266591   8.578   7.955  10.034  0.1663  0.5566 -1.3073
19996SOL     OW66592   7.963   4.107   2.666 -0.5625 -0.4211  0.2792
19996SOL    HW166593   7.968   4.101   2.570 -0.3461  0.4802  0.2222
19996SOL    HW266594   8.046   4.147   2.692 -0.5189 -0.8915  0.8670
19997SOL     OW66595   5.180   4.136   0.669  0.7692  0.5797 -0.3540
19997SOL    HW166596   5.230   4.149   0.588  0.4673  0.0663 -0.6266
19997SOL    HW266597   5.209   4.051   0.702  0.6671  0.6495 -0.0810
19998SOL     OW66598   4.144   3.527   9.708  0.3200 -0.0919  0.5168
19998SOL    HW166599   4.207   3.588   9.745  2.0426 -1.9460  0.8435
19998SOL    HW266600   4.196   3.470   9.651 -1.5398 -0.0557 -1.3327
19999SOL     OW66601   6.881   6.496   5.565 -0.0695 -0.1632 -0.0704
19999SOL    HW166602   6.826   6.560   5.610  0.8504  0.4397  0.2066
19999SOL    HW266603   6.821   6.452   5.504 -1.2034 -0.6063  1.3263
20000SOL     OW66604   2.002  12.494   0.451 -0.0445 -0.0153  0.0490
20000SOL    HW166605   1.919  12.457   0.479  0.3073 -1.9397 -1.2773
20000SOL    HW266606   2.066  12.458   0.512  0.0559 -0.0070 -0.0506
20001SOL     OW66607   8.068   7.897   1.248  0.2247  0.2715 -0.3588
20001SOL    HW166608   8.022   7.969   1.204  0.2335  1.1199  0.9897
20001SOL    HW266609   8.161   7.915   1.233  0.2137 -0.0356 -0.8663
20002SOL     OW66610   8.961  11.008   5.984 -0.0458 -0.1152  0.1967
20002SOL    HW166611   8.980  11.095   6.019 -1.9090 -0.2082  1.5716
20002SOL    HW266612   8.878  11.019   5.937 -3.2000 -2.0087  4.6488
20003SOL     OW66613   5.847   0.855   5.726  0.2786 -0.4045 -0.4542
20003SOL    HW166614   5.773   0.853   5.665 -0.4313 -0.6817  0.4067
20003SOL    HW266615   5.896   0.934   5.701 -0.0307 -0.4781 -1.3329
20004SOL     OW66616   1.847  12.588   6.941 -0.4908 -0.0402  0.0913
20004SOL    HW166617   1.912  12.632   6.886  0.0716 -1.5437 -0.5172
20004SOL    HW266618   1.883  12.592   7.029  0.2977 -0.6030 -0.1990
20005SOL     OW66619   5.507   7.555  10.142 -0.0098  0.0494 -0.2087
20005SOL    HW166620   5.492   7.617  10.214 -0.6802 -0.4623  0.0962
20005SOL    HW266621   5.593   7.580  10.107  0.4579  0.1351  0.9455
20006SOL     OW66622   0.607   2.298   4.472  0.0065 -0.5497 -0.7194
20006SOL    HW166623   0.665   2.247   4.528 -1.4866 -0.3937  1.0527
20006SOL    HW266624   0.597   2.381   4.517 -0.6892 -0.1447 -1.5840
20007SOL     OW66625  10.796  10.964   9.244  0.5137  0.3503  0.0826
20007SOL    HW166626  10.815  11.043   9.194 -1.6994  0.1964 -1.1421
20007SOL    HW266627  10.851  10.897   9.204  0.2717  0.6671 -0.8101
20008SOL     OW66628   5.376   1.567   0.004 -0.3710 -0.5199 -0.2466
20008SOL    HW166629   5.398   1.537  -0.084 -0.0971  0.4371 -0.5059
20008SOL    HW266630   5.293   1.523   0.024 -1.0643  0.1977 -1.4672
20009SOL     OW66631   6.336   5.886   7.158 -0.0005 -0.2608 -0.0272
20009SOL    HW166632   6.326   5.851   7.070 -0.8350  0.8600 -0.3987
20009SOL    HW266633   6.264   5.949   7.168 -0.2309 -0.7157  1.6274
20010SOL     OW66634   2.675   0.262   0.606 -0.0719 -0.8456 -0.2107
20010SOL    HW166635   2.669   0.167   0.596  2.7290 -1.3568  1.7889
20010SOL    HW266636   2.760   0.285   0.568 -0.7058  0.8982 -0.6763
20011SOL     OW66637   9.188   3.952   8.648 -0.0686  0.0677  0.5803
20011SOL    HW166638   9.180   3.885   8.580 -1.3167 -0.2718  1.0311
20011SOL    HW266639   9.265   3.926   8.699  0.0066 -0.4929  0.1876
20012SOL     OW66640   3.081   8.580   5.779 -0.1704  0.3769 -0.0484
20012SOL    HW166641   3.053   8.503   5.829  1.3870  0.4438  0.9715
20012SOL    HW266642   3.049   8.655   5.829  0.7447  0.4305  0.4699
20013SOL     OW66643   6.638   5.780   1.660 -0.5870  0.2511  0.0124
20013SOL    HW166644   6.543   5.778   1.649 -0.5164 -0.2274 -0.5802
20013SOL    HW266645   6.673   5.738   1.581  0.1160  0.3963  0.2328
20014SOL     OW66646   1.591   2.190   9.624 -0.2812 -0.5895  0.7586
20014SOL    HW166647   1.564   2.279   9.603  0.3218 -0.5426  0.1171
20014SOL    HW266648   1.668   2.175   9.569 -0.4480 -1.5469  0.7660
20015SOL     OW66649   6.714   5.798   0.403 -0.4457 -0.3571 -0.3874
20015SOL    HW166650   6.800   5.762   0.382  0.1419  1.5445 -1.5399
20015SOL    HW266651   6.698   5.772   0.494  1.9133  0.2584  0.2681
20016SOL     OW66652   0.950   6.758   8.514  0.2149 -0.8296  0.3649
20016SOL    HW166653   0.950   6.842   8.468 -0.3106 -1.1476 -0.2207
20016SOL    HW266654   0.858   6.731   8.516  0.3031 -1.0914  1.1073
20017SOL     OW66655  12.121   4.751   7.055  0.4639  0.2698 -0.0447
20017SOL    HW166656  12.045   4.803   7.029 -0.4807 -0.7077  0.7076
20017SOL    HW266657  12.091   4.697   7.128  1.4811 -1.1409 -0.6045
20018SOL     OW66658   0.519  11.024  12.018 -0.1665 -0.0253  0.4545
20018SOL    HW166659   0.613  11.010  12.018 -0.2718 -1.5957 -2.4014
20018SOL    HW266660   0.488  10.984  12.099  1.5024 -0.3137  0.9803
20019SOL     OW66661   5.220   3.094   4.074  0.6631  0.0095  0.0967
20019SOL    HW166662   5.157   3.028   4.103  0.1135  0.4056 -0.1828
20019SOL    HW266663   5.174   3.177   4.086  1.3519  0.3490  0.4550
20020SOL     OW66664   3.953   5.039   1.097  0.1588  0.1132  0.0061
20020SOL    HW166665   3.912   5.056   1.013  1.6532 -0.8301 -0.9666
20020SOL    HW266666   3.982   4.947   1.092 -1.0339 -0.4533  2.1424
20021SOL     OW66667   0.326   9.654   9.248  0.3113  0.0199  0.0425
20021SOL    HW166668   0.335   9.728   9.188 -0.0535 -0.6681 -0.8827
20021SOL    HW266669   0.415   9.626   9.266  0.4080 -0.2878 -0.8571
20022SOL     OW66670   8.643   6.539   1.034 -0.1152 -0.0800  0.3050
20022SOL    HW166671   8.603   6.585   0.960 -0.2403 -0.2298  0.2802
20022SOL    HW266672   8.678   6.459   0.996 -0.9374 -0.5681  0.5638
20023SOL     OW66673   5.320  10.072   0.936  0.1145  0.2420  0.1614
20023SOL    HW166674   5.230  10.040   0.943 -0.8497  2.5792 -0.4499
20023SOL    HW266675   5.366  10.030   1.009 -0.8921 -2.5765 -0.6846
20024SOL     OW66676  12.298   7.903   0.658  0.1174  0.2668 -0.2087
20024SOL    HW166677  12.299   7.980   0.602  2.6887  0.4395 -0.0453
20024SOL    HW266678  12.266   7.935   0.743  1.4767  1.2814 -0.0434
20025SOL     OW66679   6.344  11.780   9.649  0.6294 -0.0952 -0.2250
20025SOL    HW166680   6.387  11.834   9.583  0.9385 -1.2909 -1.0422
20025SOL    HW266681   6.415  11.745   9.701  0.5018 -0.4240 -0.2685
20026SOL     OW66682   9.063   4.608  12.785  0.2624 -0.7504 -0.0456
20026SOL    HW166683   9.157   4.622  12.775  0.0084  0.7406 -0.6155
20026SOL    HW266684   9.032   4.587  12.696 -0.2687  1.1303 -0.3528
20027SOL     OW66685   4.955   3.837   2.223 -0.4617 -0.2030 -0.1277
20027SOL    HW166686   4.981   3.867   2.310  0.1085 -2.0246  0.3748
20027SOL    HW266687   5.038   3.821   2.178 -0.7429 -0.4892 -0.5510
20028SOL     OW66688  11.785   7.721   6.802 -0.4417  0.3668 -0.6020
20028SOL    HW166689  11.718   7.673   6.754 -0.4113  3.1196 -3.7443
20028SOL    HW266690  11.868   7.691   6.765  0.0611 -1.4634  1.7751
20029SOL     OW66691   2.420   0.826   9.285  0.0571 -0.1844  0.0330
20029SOL    HW166692   2.509   0.804   9.312  0.5469  0.7689 -0.7345
20029SOL    HW266693   2.418   0.809   9.191 -0.5105 -0.0258  0.0087
20030SOL     OW66694  10.047  11.531  10.794 -0.1328 -0.3294 -0.3668
20030SOL    HW166695  10.116  11.466  10.798  1.3731  1.2439  0.8574
20030SOL    HW266696   9.966  11.481  10.801  0.9952 -1.9859  2.2221
20031SOL     OW66697  11.132   2.275   6.100  0.3488  0.3743  0.2507
20031SOL    HW166698  11.203   2.236   6.151  1.9935  1.5040 -1.0550
20031SOL    HW266699  11.146   2.243   6.011 -1.4524 -0.1993  0.1187
20032SOL     OW66700   9.655   8.773  11.755  0.0704  0.8248 -0.2379
20032SOL    HW166701   9.589   8.737  11.814  0.9672 -0.0938  0.2433
20032SOL    HW266702   9.618   8.856  11.725 -1.2716  0.3477  0.0473
20033SOL     OW66703   7.753   5.100  10.197  0.3737 -0.0677  0.0107
20033SOL    HW166704   7.741   5.124  10.289 -0.7001  0.5750 -0.2783
20033SOL    HW266705   7.826   5.039  10.197  0.8668  0.5024  1.2071
20034SOL     OW66706   4.254   4.248   4.522 -0.1343 -0.4302  0.1935
20034SOL    HW166707   4.190   4.320   4.518  0.4831  0.1109 -0.1766
20034SOL    HW266708   4.313   4.265   4.449  1.9559  0.5470  1.9694
20035SOL     OW66709   8.106   6.807   1.538 -0.4202  1.0872 -0.1425
20035SOL    HW166710   8.026   6.757   1.519 -1.3864  2.7857 -0.7930
20035SOL    HW266711   8.174   6.764   1.486 -0.5420 -1.2024  1.4309
20036SOL     OW66712   6.155   6.336   2.540 -0.3763  0.2627 -0.4654
20036SOL    HW166713   6.128   6.427   2.535 -1.3807 -0.0349 -0.7214
20036SOL    HW266714   6.240   6.333   2.497  0.7540  1.4736  1.5330
20037SOL     OW66715   7.017   5.316  11.453  0.3272  0.2070 -0.1627
20037SOL    HW166716   7.000   5.407  11.429  0.9584  0.0559 -1.2346
20037SOL    HW266717   6.948   5.266  11.409  1.3173 -0.0429 -1.4928
20038SOL     OW66718   8.256   4.389   0.550 -0.2076 -0.3016 -0.1025
20038SOL    HW166719   8.252   4.315   0.611 -3.0790  0.1123  0.3541
20038SOL    HW266720   8.229   4.352   0.466  0.8955 -0.2619 -0.4910
20039SOL     OW66721   1.093   8.384   9.009 -0.2022  1.0165 -0.4341
20039SOL    HW166722   1.020   8.354   9.064  1.0683  0.1675  0.8522
20039SOL    HW266723   1.148   8.434   9.069  1.9505 -1.0881 -0.5275
20040SOL     OW66724  11.396   0.276   5.743  0.0965 -0.0666  0.5141
20040SOL    HW166725  11.343   0.353   5.723 -0.0731 -0.2026  0.4393
20040SOL    HW266726  11.485   0.301   5.720 -0.1017 -0.2448 -0.4754
20041SOL     OW66727   8.217   8.836  12.146 -0.0466  0.1903 -0.4754
20041SOL    HW166728   8.121   8.835  12.144 -0.0340 -1.0250 -1.8179
20041SOL    HW266729   8.239   8.822  12.238 -1.1671 -1.9434 -0.4786
20042SOL     OW66730   8.500   3.679   0.318 -0.6807 -0.0185 -0.2363
20042SOL    HW166731   8.565   3.740   0.285  0.3826 -0.3883  1.0784
20042SOL    HW266732   8.416   3.717   0.293  0.0111  0.0363 -2.7337
20043SOL     OW66733   7.487   9.428   7.839 -0.6713  0.4028  0.0435
20043SOL    HW166734   7.451   9.498   7.785 -1.2196 -0.1638 -0.3430
20043SOL    HW266735   7.579   9.424   7.815 -0.7138  0.7645 -0.1866
20044SOL     OW66736   8.265  12.142  11.265 -0.3321 -0.7789 -0.1012
20044SOL    HW166737   8.175  12.174  11.258  0.2083  0.5606 -1.5901
20044SOL    HW266738   8.307  12.203  11.326 -0.4118 -1.3650  0.5439
20045SOL     OW66739   5.843  11.078   5.620  0.1905 -0.1630  0.0967
20045SOL    HW166740   5.924  11.125   5.602  0.1721  0.1256  0.7439
20045SOL    HW266741   5.830  11.086   5.714 -1.2232  0.8254 -0.1447
20046SOL     OW66742   5.943   3.806   3.228  0.1270 -0.1665 -0.2321
20046SOL    HW166743   5.927   3.812   3.134 -0.5807  1.0644 -0.0603
20046SOL    HW266744   5.881   3.868   3.267 -0.2164 -1.3029  1.1234
20047SOL     OW66745   4.295   2.893  10.115  0.3708 -0.6506 -0.0969
20047SOL    HW166746   4.382   2.858  10.133  0.1825 -1.0235  0.1135
20047SOL    HW266747   4.266   2.931  10.198  0.7363  0.3801 -0.4277
20048SOL     OW66748   2.066   2.680   3.867  0.5029  0.1451 -0.4441
20048SOL    HW166749   2.074   2.634   3.950  1.9909  0.2610 -0.5031
20048SOL    HW266750   1.972   2.677   3.847  0.2246 -0.5207  0.8613
20049SOL     OW66751   1.338   1.925   3.214 -0.1541 -0.3091  0.1647
20049SOL    HW166752   1.251   1.891   3.234 -0.5499  1.1793  1.1537
20049SOL    HW266753   1.335   2.017   3.241  2.7172 -0.9501  3.3843
20050SOL     OW66754   3.895  11.870   4.813  0.7226  0.0554  0.1558
20050SOL    HW166755   3.861  11.821   4.739 -0.1997  0.9399 -0.0352
20050SOL    HW266756   3.827  11.863   4.880  0.4730  1.2210  0.0437
20051SOL     OW66757   1.181   5.539   4.784 -0.1591 -0.0083 -0.1317
20051SOL    HW166758   1.240   5.596   4.834 -1.4279  2.3350 -1.1438
20051SOL    HW266759   1.229   5.519   4.704 -0.1831  0.6947 -0.3242
20052SOL     OW66760   6.652   5.752   4.208  0.4262  1.0226  0.1533
20052SOL    HW166761   6.730   5.701   4.187  1.2114  0.7686  3.1448
20052SOL    HW266762   6.673   5.792   4.292 -2.2427  1.9071  0.4723
20053SOL     OW66763   3.978   0.716   3.317  0.4560 -0.5114  0.1625
20053SOL    HW166764   4.038   0.702   3.390  0.4672 -1.2510  0.0099
20053SOL    HW266765   3.945   0.805   3.331  0.5563 -0.5952  0.9946
20054SOL     OW66766   3.979   2.376   5.911 -0.0377  0.2863 -0.4569
20054SOL    HW166767   3.986   2.286   5.880  0.6074  0.0964  0.2149
20054SOL    HW266768   3.912   2.373   5.980  0.0228  0.3161 -0.3971
20055SOL     OW66769  10.451   7.860  10.312 -0.1962 -0.1856 -0.5968
20055SOL    HW166770  10.524   7.922  10.302  0.2016 -0.2398  1.4988
20055SOL    HW266771  10.373   7.913  10.299  0.1155  1.0181  1.8781
20056SOL     OW66772   6.971  11.645   4.851  0.0987 -0.6940 -0.1804
20056SOL    HW166773   6.902  11.668   4.790  0.1897  0.8065  0.2355
20056SOL    HW266774   6.931  11.581   4.910 -1.7080  1.6519  1.3649
20057SOL     OW66775   3.833   9.319   9.454  0.0027 -0.2362  0.3505
20057SOL    HW166776   3.925   9.340   9.464 -0.3902  1.1581  1.3205
20057SOL    HW266777   3.808   9.279   9.537 -0.6069  0.7890  0.6733
20058SOL     OW66778   3.448  12.162   9.711 -0.3439 -0.0901 -0.2444
20058SOL    HW166779   3.406  12.117   9.638 -0.5464 -1.9968  0.9661
20058SOL    HW266780   3.382  12.223   9.744  0.0440  1.4203 -2.1148
20059SOL     OW66781   6.311   2.194   3.922  0.0884 -0.4743 -0.4802
20059SOL    HW166782   6.301   2.172   3.829 -2.1371 -1.4309 -0.0742
20059SOL    HW266783   6.299   2.289   3.925 -3.6816 -0.8149 -0.8391
20060SOL     OW66784   6.483   0.064   3.855  0.2452  0.0602  0.3041
20060SOL    HW166785   6.540   0.135   3.825  0.3854  0.3212  1.1725
20060SOL    HW266786   6.539  -0.013   3.857 -0.2504 -0.4560 -2.0820
20061SOL     OW66787   1.573   9.373   6.739 -0.1983 -0.6413  0.5984
20061SOL    HW166788   1.486   9.350   6.705  0.3791 -1.7386 -0.1834
20061SOL    HW266789   1.629   9.373   6.661  0.4466  0.3840  1.0504
20062SOL     OW66790   5.626  12.370  11.895 -0.3727 -0.0437  0.3027
20062SOL    HW166791   5.570  12.446  11.909 -2.3362 -0.8527 -2.3619
20062SOL    HW266792   5.577  12.315  11.834  2.9542 -1.2462 -1.5350
20063SOL     OW66793   7.615  11.026   2.331  0.0458  0.4196  0.1139
20063SOL    HW166794   7.689  10.965   2.337  0.1150  0.5842  1.0799
20063SOL    HW266795   7.563  10.993   2.258 -0.6341 -1.6314  1.4143
20064SOL     OW66796   4.210   2.505   2.401 -0.8519  0.4962  0.0170
20064SOL    HW166797   4.144   2.437   2.409 -1.2660  1.0290  1.7251
20064SOL    HW266798   4.289   2.467   2.440 -0.0020 -0.2482 -2.2914
20065SOL     OW66799  11.706   1.910   5.715  0.2385 -0.1731 -0.6120
20065SOL    HW166800  11.757   1.830   5.730 -1.7167 -1.1738  1.3369
20065SOL    HW266801  11.670   1.932   5.801 -2.2322  0.6768 -1.7653
20066SOL     OW66802   2.266  11.109   4.236  0.1541 -0.3024  0.0367
20066SOL    HW166803   2.189  11.152   4.272 -0.9898 -1.8712 -0.4182
20066SOL    HW266804   2.312  11.074   4.312  0.5471  0.8145  0.3269
20067SOL     OW66805   2.675   1.058  11.834 -0.0118 -0.0597  0.2798
20067SOL    HW166806   2.584   1.028  11.847 -0.0132 -1.0627 -1.6831
20067SOL    HW266807   2.727   0.999  11.888 -0.4238 -0.4216  0.2900
20068SOL     OW66808   7.562  10.626   7.823  0.0486 -0.4153 -0.4079
20068SOL    HW166809   7.541  10.710   7.864  1.0714  0.9841 -2.5692
20068SOL    HW266810   7.654  10.611   7.844 -0.7582 -2.4679  2.2473
20069SOL     OW66811   3.385   6.621   5.811 -0.3988 -0.1042 -0.7420
20069SOL    HW166812   3.428   6.696   5.770  0.2725 -0.8671 -1.4897
20069SOL    HW266813   3.373   6.646   5.902  0.9657  0.4284 -0.6935
20070SOL     OW66814   8.247   2.714  12.063  0.1907  0.4781 -0.6171
20070SOL    HW166815   8.268   2.643  12.002  0.5142  1.0741 -1.2051
20070SOL    HW266816   8.224   2.788  12.007  0.7637  1.1219 -0.0166
20071SOL     OW66817   0.429   0.129   1.038 -0.3703 -0.8729 -0.8197
20071SOL    HW166818   0.465   0.186   1.106 -1.3565 -0.7360 -0.3959
20071SOL    HW266819   0.462   0.042   1.060 -2.2137 -1.2098  1.0440
20072SOL     OW66820   6.303   5.342   4.474 -0.0879  0.3699 -0.4133
20072SOL    HW166821   6.331   5.276   4.538  1.0049  0.5990 -0.6299
20072SOL    HW266822   6.288   5.293   4.394  0.6411  0.3627 -0.5512
20073SOL     OW66823   1.706  10.636   8.107  0.3165 -0.2215 -0.1882
20073SOL    HW166824   1.697  10.670   8.196  3.3463  0.9028 -0.1925
20073SOL    HW266825   1.797  10.606   8.102  0.2887 -0.1265 -2.9389
20074SOL     OW66826  12.636   3.625   0.409 -0.0155  0.5999 -0.2927
20074SOL    HW166827  12.549   3.662   0.422 -0.7659 -1.7669  2.6744
20074SOL    HW266828  12.697   3.693   0.438 -1.1508  0.8928  1.5746
20075SOL     OW66829   0.976   2.893   5.071  0.1254  0.1947 -0.1717
20075SOL    HW166830   0.924   2.972   5.085 -0.8311 -0.2318 -1.1582
20075SOL    HW266831   0.917   2.821   5.095  0.5207 -0.2724 -0.5607
20076SOL     OW66832   7.473   2.550   4.467  0.0719 -0.7077 -0.0216
20076SOL    HW166833   7.441   2.587   4.549 -0.0823  0.4101 -0.5586
20076SOL    HW266834   7.471   2.624   4.406  1.0467 -1.2974 -0.7890
20077SOL     OW66835  11.370   9.221  11.090  0.9299  0.5295  0.2363
20077SOL    HW166836  11.365   9.241  11.183 -0.6714 -1.2448  0.6175
20077SOL    HW266837  11.346   9.302  11.046 -3.2618  0.2845  1.5834
20078SOL     OW66838   4.473   9.989   2.772  0.5557 -0.0092 -0.1718
20078SOL    HW166839   4.413  10.053   2.734 -1.1441 -0.9574  0.8217
20078SOL    HW266840   4.496   9.932   2.698 -1.0790 -0.6008 -0.2670
20079SOL     OW66841  12.396   7.429  12.773  0.3843 -0.0861  0.2869
20079SOL    HW166842  12.392   7.436  12.868 -1.0758  1.8856  0.1603
20079SOL    HW266843  12.305   7.413  12.747  0.3211  1.8480 -0.8602
20080SOL     OW66844  12.454  12.661   0.400 -0.1493  0.4685  0.3590
20080SOL    HW166845  12.406  12.744   0.397 -1.3490 -0.1724 -3.2780
20080SOL    HW266846  12.541  12.682   0.369 -0.4685  0.3859 -0.6119
20081SOL     OW66847   8.885  10.619   5.251  0.4177  0.2224  0.4392
20081SOL    HW166848   8.843  10.619   5.165  1.4727 -0.9739 -0.1077
20081SOL    HW266849   8.846  10.545   5.297  1.0918 -0.2073  0.3351
20082SOL     OW66850   1.588  10.925   4.848 -0.5688  0.2681 -0.5174
20082SOL    HW166851   1.565  10.854   4.908 -2.2537 -0.3145 -1.7812
20082SOL    HW266852   1.568  11.005   4.897  2.2562  0.0203  1.2845
20083SOL     OW66853   5.127   9.130  11.733  0.4406  0.2997  0.6539
20083SOL    HW166854   5.213   9.122  11.691 -0.1108  0.6298 -0.5805
20083SOL    HW266855   5.065   9.101  11.667 -0.5360  1.7856  0.8693
20084SOL     OW66856  11.761   1.078   7.438  0.1737 -0.4143 -0.3262
20084SOL    HW166857  11.757   0.990   7.398  0.8607 -0.8128  0.4648
20084SOL    HW266858  11.811   1.066   7.518  0.7498  0.8125 -0.4776
20085SOL     OW66859  12.374  11.948   3.408 -0.2852 -0.4426 -0.0231
20085SOL    HW166860  12.377  11.861   3.448  1.2910 -1.1875 -1.6075
20085SOL    HW266861  12.286  11.956   3.373 -1.3292 -0.2419  2.4542
20086SOL     OW66862   1.123  10.218   7.497  0.6234 -0.3474  0.0366
20086SOL    HW166863   1.136  10.313   7.487 -0.4059 -0.0508  1.2413
20086SOL    HW266864   1.204  10.187   7.536  1.2196 -0.0836 -0.9559
20087SOL     OW66865   1.123  11.378   4.497 -0.6058 -0.1946 -0.2714
20087SOL    HW166866   1.061  11.450   4.510 -0.8958 -0.2641 -1.1706
20087SOL    HW266867   1.193  11.416   4.443  1.1030  0.3942  2.1972
20088SOL     OW66868   5.785   9.627   5.249  0.3889 -0.3576  0.2725
20088SOL    HW166869   5.718   9.590   5.193 -1.0749 -0.8461  2.2437
20088SOL    HW266870   5.816   9.554   5.302 -0.1671  0.5347  1.9057
20089SOL     OW66871  11.098   7.070  12.443 -0.1502 -0.1171  0.2930
20089SOL    HW166872  11.005   7.068  12.422  0.0645 -0.7205 -0.6449
20089SOL    HW266873  11.107   7.144  12.503 -1.2601 -0.1832  0.5606
20090SOL     OW66874   2.948  10.742  10.796  0.0952 -0.1478  0.4624
20090SOL    HW166875   2.997  10.807  10.746 -0.4346  1.1912  1.6181
20090SOL    HW266876   2.913  10.682  10.730 -4.3846  3.9936 -1.5678
20091SOL     OW66877   0.756   2.121  10.271 -0.0664  0.2046 -0.1174
20091SOL    HW166878   0.740   2.033  10.237 -0.1122  0.5722 -1.0837
20091SOL    HW266879   0.842   2.116  10.312 -0.0092 -0.2555 -0.2873
20092SOL     OW66880  11.575   1.487   0.698  0.0882 -0.4337 -0.1523
20092SOL    HW166881  11.565   1.416   0.634 -1.2358 -0.3543 -0.0611
20092SOL    HW266882  11.523   1.459   0.773 -0.4992  0.6343 -0.1324
20093SOL     OW66883   8.033   6.961   3.203 -0.1076  0.5514  0.1813
20093SOL    HW166884   8.046   6.963   3.109 -1.0327  1.1693  0.0559
20093SOL    HW266885   8.008   6.870   3.222  0.4137  0.3449 -0.1134
20094SOL     OW66886   4.712   4.130   9.578 -0.2722  0.1375  0.6742
20094SOL    HW166887   4.787   4.131   9.639  0.2120 -0.9111  0.1246
20094SOL    HW266888   4.694   4.222   9.561  0.5671  0.4201  1.2208
20095SOL     OW66889   4.931   8.352   0.393 -0.1475  0.1633 -0.0841
20095SOL    HW166890   4.966   8.306   0.470 -2.2528  2.9538  2.8316
20095SOL    HW266891   4.838   8.332   0.393 -0.4802  1.5321 -0.8682
20096SOL     OW66892   0.322  11.475   7.146 -0.3713  0.2102  0.1981
20096SOL    HW166893   0.278  11.398   7.181 -0.2043  0.8976  2.0571
20096SOL    HW266894   0.414  11.465   7.174 -0.1832  0.6929 -0.2293
20097SOL     OW66895  10.617   9.867   6.346 -0.3026  0.5244 -0.3470
20097SOL    HW166896  10.539   9.812   6.354 -0.1413  0.4169  0.5983
20097SOL    HW266897  10.682   9.825   6.403  0.3389  0.8096 -0.8536
20098SOL     OW66898   2.616  10.004  10.832 -0.1198 -0.2728 -0.4908
20098SOL    HW166899   2.662   9.924  10.807 -1.0040 -0.7261 -0.6843
20098SOL    HW266900   2.564   9.979  10.908  0.0786  0.2839 -0.1658
20099SOL     OW66901  10.117   3.763  11.060 -0.1031 -0.5968 -0.2517
20099SOL    HW166902  10.212   3.761  11.076  0.3448 -1.2943 -2.5830
20099SOL    HW266903  10.088   3.846  11.098  1.9019  0.7828 -1.5379
20100SOL     OW66904  10.940   9.766   8.520 -0.0317 -0.7272  0.3139
20100SOL    HW166905  10.909   9.676   8.524  1.6100 -1.3164  0.7439
20100SOL    HW266906  11.029   9.762   8.557  0.5793  0.8292 -0.8720
20101SOL     OW66907   1.291   9.682   9.333  0.3940  0.2273  0.1221
20101SOL    HW166908   1.300   9.598   9.378  1.3473 -0.2331 -0.8970
20101SOL    HW266909   1.362   9.684   9.269 -0.3828  1.2513 -0.7604
20102SOL     OW66910   8.154   9.952   4.123 -0.5542  1.1511  0.2246
20102SOL    HW166911   8.238   9.974   4.163 -0.8551 -1.0179  2.3569
20102SOL    HW266912   8.090   9.961   4.194 -1.4270 -1.1085 -0.1587
20103SOL     OW66913   6.974   1.890   6.656 -0.3885  0.1808  0.4009
20103SOL    HW166914   7.007   1.872   6.568 -0.8852  2.1685 -0.2561
20103SOL    HW266915   6.985   1.985   6.666 -0.6379  0.0456  2.3722
20104SOL     OW66916   7.912   5.315   9.233  0.1669 -0.2325  0.1462
20104SOL    HW166917   7.890   5.360   9.152  0.5011 -0.9504 -0.3580
20104SOL    HW266918   7.830   5.273   9.260  0.2235 -0.5932 -0.2235
20105SOL     OW66919   6.472   3.215   4.076  0.2125 -0.0833  0.1011
20105SOL    HW166920   6.555   3.175   4.104 -0.8595 -1.4268  1.5579
20105SOL    HW266921   6.415   3.207   4.152 -0.9965  1.6639 -0.5632
20106SOL     OW66922   6.738   2.488   1.828  0.2855  0.0731 -0.4759
20106SOL    HW166923   6.792   2.566   1.839 -0.8701  0.5660  3.8434
20106SOL    HW266924   6.650   2.521   1.810 -0.7780  0.2337  3.8969
20107SOL     OW66925   3.021   6.245   7.850 -0.0579  0.2616  0.2029
20107SOL    HW166926   2.927   6.243   7.833 -0.0350  0.6111  0.0129
20107SOL    HW266927   3.041   6.159   7.887 -0.4325  0.1476  0.1464
20108SOL     OW66928   3.789   9.491   4.783  0.1743  0.1637  0.0751
20108SOL    HW166929   3.782   9.499   4.878  0.0467  2.5785 -0.0711
20108SOL    HW266930   3.719   9.547   4.749 -0.4117 -1.4281 -1.4667
20109SOL     OW66931   2.623   5.862   5.666  0.1161 -0.2038 -0.1882
20109SOL    HW166932   2.630   5.791   5.602 -0.1402  0.2013 -0.6693
20109SOL    HW266933   2.628   5.818   5.751 -0.3644 -0.8336 -0.4786
20110SOL     OW66934   9.342   9.083   5.269 -0.3739 -0.2436 -0.3799
20110SOL    HW166935   9.410   9.135   5.312 -1.8661  0.8936  0.7065
20110SOL    HW266936   9.343   9.114   5.178  0.5816 -0.2818 -0.3972
20111SOL     OW66937   0.045   8.541   0.372  0.6268 -0.4046 -0.5720
20111SOL    HW166938   0.036   8.449   0.348 -0.4751 -0.8957  1.4566
20111SOL    HW266939   0.131   8.547   0.413  1.0917 -0.2984 -1.5372
20112SOL     OW66940   0.380   9.026   2.305 -0.5127  0.6297  0.2895
20112SOL    HW166941   0.331   8.944   2.307 -0.1956  0.3370 -1.7838
20112SOL    HW266942   0.379   9.056   2.396 -2.3103 -0.6582  0.7664
20113SOL     OW66943   0.671   9.254   0.534 -0.1295  0.1397  0.6506
20113SOL    HW166944   0.743   9.215   0.484  0.6862  1.8638  0.4069
20113SOL    HW266945   0.600   9.265   0.471  0.2447  0.5954  0.2982
20114SOL     OW66946   2.144   2.931   2.615  0.1091  0.0784 -0.1306
20114SOL    HW166947   2.111   2.886   2.693  0.1419 -0.0467 -0.1893
20114SOL    HW266948   2.120   2.874   2.542 -0.5981  0.5715 -0.2855
20115SOL     OW66949   3.994   5.435   6.332  0.7934 -0.3323 -0.4747
20115SOL    HW166950   3.949   5.436   6.416 -1.4836 -1.1650 -1.5822
20115SOL    HW266951   3.995   5.526   6.303 -1.3339 -0.3854 -0.9096
20116SOL     OW66952   6.863   3.971   3.297  0.1056  0.2519  0.0409
20116SOL    HW166953   6.946   4.019   3.286  0.3407 -0.1239  0.1380
20116SOL    HW266954   6.835   3.951   3.208 -0.5592  1.5064 -0.0494
20117SOL     OW66955   8.809   4.365   9.042 -0.0541  0.1613  0.0231
20117SOL    HW166956   8.734   4.424   9.030  0.5499  1.1117  0.8017
20117SOL    HW266957   8.837   4.344   8.953  0.7411  2.3989 -0.3078
20118SOL     OW66958   8.815   8.096   8.147 -0.0849  0.6436  0.1709
20118SOL    HW166959   8.746   8.143   8.100 -0.3560  2.3709  2.1435
20118SOL    HW266960   8.769   8.046   8.214  0.4850  1.0835  0.9114
20119SOL     OW66961   2.775   7.559   9.981 -0.4266  0.2262  0.0811
20119SOL    HW166962   2.809   7.540   9.893  0.0146  1.2136  0.0276
20119SOL    HW266963   2.853   7.560  10.037 -0.6558  0.0628  0.4058
20120SOL     OW66964  11.075  10.953  10.524  0.0475  0.6393  0.1192
20120SOL    HW166965  11.060  11.046  10.512  1.0039  0.6962 -0.7322
20120SOL    HW266966  11.140  10.948  10.594 -2.1101  0.4715  2.2374
20121SOL     OW66967   3.697   0.890   9.457 -0.1752 -0.0167 -0.3482
20121SOL    HW166968   3.671   0.820   9.517  0.6989 -0.6495 -0.6785
20121SOL    HW266969   3.717   0.964   9.513 -0.2617 -0.3101  0.0734
20122SOL     OW66970  12.749   1.438   4.908 -0.4516  0.3654 -0.4027
20122SOL    HW166971  12.823   1.470   4.960 -1.2836  1.8448 -0.0719
20122SOL    HW266972  12.718   1.360   4.955 -0.1059  0.6825  0.3531
20123SOL     OW66973   5.412   6.942   9.714 -0.0545  0.5806  0.2109
20123SOL    HW166974   5.369   6.892   9.783  1.8838  0.9992  1.8173
20123SOL    HW266975   5.378   6.905   9.633 -0.6250 -1.5871  1.3599
20124SOL     OW66976   0.368   5.313  10.837 -0.0171 -0.3311 -0.6888
20124SOL    HW166977   0.400   5.223  10.826 -1.2390 -1.1493  1.7135
20124SOL    HW266978   0.273   5.303  10.842 -0.0762  0.9005  1.1117
20125SOL     OW66979  10.080  11.811   4.471 -0.1212 -0.0414  0.6930
20125SOL    HW166980  10.002  11.758   4.451 -1.2914  1.3604  1.3677
20125SOL    HW266981  10.077  11.823   4.566 -0.2853  1.7818  0.4850
20126SOL     OW66982  12.271  10.917  11.950  0.0861  0.2106 -0.6220
20126SOL    HW166983  12.325  10.846  11.984 -1.9824 -1.9475 -1.5893
20126SOL    HW266984  12.317  10.997  11.976  2.8964 -1.4546 -0.1014
20127SOL     OW66985  12.291   4.042   3.132  0.3927 -0.4149  0.3602
20127SOL    HW166986  12.363   3.979   3.121  0.3947 -0.4771  0.7257
20127SOL    HW266987  12.320   4.099   3.202 -0.0024 -0.5610  0.6451
20128SOL     OW66988  10.017   7.934   8.250  0.4406  0.3275 -0.4264
20128SOL    HW166989   9.981   7.896   8.331  0.5680  0.4017 -0.3340
20128SOL    HW266990  10.056   7.859   8.204  1.1452  0.4241 -0.0019
20129SOL     OW66991   1.442  12.242  12.374  0.8012  0.4054  0.0948
20129SOL    HW166992   1.515  12.284  12.329 -0.7316  2.4877 -0.6242
20129SOL    HW266993   1.481  12.169  12.422  3.2948  1.3677 -0.3481
20130SOL     OW66994   1.619   8.549   5.679 -0.6634 -0.4077 -0.7009
20130SOL    HW166995   1.704   8.507   5.670  0.4215  1.6053 -0.4505
20130SOL    HW266996   1.575   8.499   5.748  1.3070 -0.0751  0.8996
20131SOL     OW66997   0.271   2.452   4.331  0.2751 -0.6202 -0.2932
20131SOL    HW166998   0.284   2.537   4.289  0.2899 -0.7438 -0.5459
20131SOL    HW266999   0.307   2.389   4.268  0.9246 -0.7591  0.2020
20132SOL     OW67000  11.810   8.366   1.913 -0.2477  0.0007 -0.4301
20132SOL    HW167001  11.867   8.307   1.864  1.3604  0.5861  0.6199
20132SOL    HW267002  11.749   8.309   1.958  1.0246 -0.8636  0.2576
20133SOL     OW67003  11.708   1.036   2.745  0.0083 -0.4961  0.2429
20133SOL    HW167004  11.650   0.997   2.810  1.3720 -1.6674  0.7993
20133SOL    HW267005  11.649   1.064   2.674 -1.2061 -1.8513  0.6711
20134SOL     OW67006   6.785   1.118   1.283 -0.1669  0.4438 -0.1590
20134SOL    HW167007   6.781   1.180   1.356  1.5210  1.1835 -0.6342
20134SOL    HW267008   6.856   1.058   1.307 -0.1107  0.2259 -0.8496
20135SOL     OW67009  12.743   0.123   5.478 -0.2710  0.2214 -0.0379
20135SOL    HW167010  12.649   0.136   5.483 -0.6502 -1.9489 -0.5478
20135SOL    HW267011  12.758   0.091   5.388  0.9867  0.7684 -0.0476
20136SOL     OW67012   3.191   7.895   2.533  0.0316 -0.9742 -0.0017
20136SOL    HW167013   3.220   7.984   2.552 -2.4562  0.2100 -1.3193
20136SOL    HW267014   3.144   7.868   2.612  0.2467 -0.8856  0.1592
20137SOL     OW67015   2.031   6.644   6.726  0.2008 -0.0870  0.0941
20137SOL    HW167016   2.051   6.618   6.636  0.1458 -1.3889  0.4421
20137SOL    HW267017   2.000   6.734   6.718  3.0418  0.9294 -0.8464
20138SOL     OW67018  11.659   7.272  12.369 -0.5415  0.5966 -0.1177
20138SOL    HW167019  11.636   7.189  12.326  0.3382  0.8240 -1.0595
20138SOL    HW267020  11.676   7.332  12.297 -0.4094  1.3894  0.5637
20139SOL     OW67021   4.076   9.054   8.837 -0.5143 -0.1278  0.1706
20139SOL    HW167022   4.146   8.993   8.858  0.4036  0.8956  0.1708
20139SOL    HW267023   4.007   9.034   8.900  0.4955  0.0326  1.3710
20140SOL     OW67024   0.464   4.129   4.660  0.5956  0.0102 -0.4806
20140SOL    HW167025   0.451   4.195   4.592  1.0768  1.4823  0.8044
20140SOL    HW267026   0.414   4.161   4.735 -0.2054 -1.7544 -0.2167
20141SOL     OW67027   8.014  12.701   7.086  0.2997 -0.0199 -0.4852
20141SOL    HW167028   8.020  12.650   7.166 -1.1926  1.2494  0.4897
20141SOL    HW267029   7.921  12.700   7.063  0.5035  0.7430 -1.4475
20142SOL     OW67030   0.253   4.677   1.329  0.1562 -0.0952 -0.2401
20142SOL    HW167031   0.207   4.597   1.303 -2.3801  1.3063 -0.3884
20142SOL    HW267032   0.249   4.677   1.425  0.1189 -0.1303 -0.2415
20143SOL     OW67033   4.102   0.275   2.479  0.2095 -0.3695  0.0055
20143SOL    HW167034   4.070   0.357   2.441  0.4623 -0.3285 -0.1231
20143SOL    HW267035   4.186   0.261   2.437 -0.7424 -1.7844 -1.5389
20144SOL     OW67036   1.526   0.246   2.365  0.4136  0.3927 -0.0661
20144SOL    HW167037   1.531   0.203   2.450  1.8516  0.3692 -0.1465
20144SOL    HW267038   1.593   0.314   2.367  0.7096  0.1670 -1.2962
20145SOL     OW67039   9.151   4.893   9.996 -0.0587 -0.5330  0.6654
20145SOL    HW167040   9.112   4.809  10.020 -0.0828 -0.4259  1.0088
20145SOL    HW267041   9.240   4.872   9.969  0.1345 -0.6027  1.3349
20146SOL     OW67042   3.601   4.065   1.696 -0.4429 -0.9734  0.4837
20146SOL    HW167043   3.556   4.068   1.780 -1.2092 -1.6297  0.1108
20146SOL    HW267044   3.601   3.973   1.671  2.6317 -1.2636  1.2385
20147SOL     OW67045   9.142   1.173   6.091 -0.2244  0.3138 -0.0110
20147SOL    HW167046   9.150   1.233   6.165  1.1873  1.2985 -0.9047
20147SOL    HW267047   9.184   1.219   6.018 -1.4111 -0.6819 -1.3995
20148SOL     OW67048   9.211   7.304   0.100  1.0040 -0.0975  0.7825
20148SOL    HW167049   9.148   7.233   0.114  1.1114 -0.6436 -1.1600
20148SOL    HW267050   9.288   7.278   0.151  0.4050 -0.4923  1.4869
20149SOL     OW67051   2.399   4.590   9.637 -0.5289  0.1689  0.2802
20149SOL    HW167052   2.308   4.590   9.607 -1.1639  0.6658  2.1012
20149SOL    HW267053   2.437   4.512   9.595 -1.7477 -0.0026 -0.5825
20150SOL     OW67054   0.348   8.002   1.675  0.3530  0.1572  0.2109
20150SOL    HW167055   0.315   7.963   1.594 -0.2060  1.0497 -0.0041
20150SOL    HW267056   0.401   8.076   1.646  0.1452  0.4834  0.6610
20151SOL     OW67057   6.449   2.456   3.649  0.0843  0.0905  0.1072
20151SOL    HW167058   6.368   2.456   3.701  0.2481 -0.8960  0.3746
20151SOL    HW267059   6.489   2.541   3.669 -0.4379  0.2110  0.6913
20152SOL     OW67060   0.667   6.956   3.575 -0.0777  0.9301 -0.2309
20152SOL    HW167061   0.707   7.037   3.544  1.1589  0.5972  0.4194
20152SOL    HW267062   0.573   6.973   3.572  0.1371  2.1276 -0.7784
20153SOL     OW67063   4.928   3.934   4.564 -0.0906 -0.0997  0.1108
20153SOL    HW167064   4.859   3.879   4.525  0.5018 -0.5066 -0.3839
20153SOL    HW267065   5.008   3.909   4.517  0.1390  1.4369 -0.3614
20154SOL     OW67066   0.185   5.178   8.062 -0.0976  0.1081  0.2379
20154SOL    HW167067   0.219   5.222   8.140 -0.4157 -1.1330  1.0948
20154SOL    HW267068   0.181   5.248   7.996 -1.3629  1.5972  1.7769
20155SOL     OW67069   8.773   2.735  10.148  0.5767  0.2054 -0.1920
20155SOL    HW167070   8.796   2.718  10.240 -1.8990 -1.6498  0.1862
20155SOL    HW267071   8.734   2.653  10.118 -1.2673  1.6690 -2.0359
20156SOL     OW67072   5.854   6.384   4.436  0.0427 -0.1162  0.0819
20156SOL    HW167073   5.800   6.434   4.374 -0.0096 -1.0527 -0.6442
20156SOL    HW267074   5.905   6.325   4.382  1.9558  0.8398  0.7448
20157SOL     OW67075   4.154   5.379   5.946  0.3200  0.2738  0.2251
20157SOL    HW167076   4.132   5.468   5.973  1.0112  0.8192 -0.9441
20157SOL    HW267077   4.245   5.367   5.974  0.3494  0.0737  0.0472
20158SOL     OW67078  12.292  12.414   2.130 -0.0228  0.0939 -0.1848
20158SOL    HW167079  12.285  12.362   2.050 -2.5029 -0.0247  0.0191
20158SOL    HW267080  12.258  12.356   2.199  3.2787 -0.3039  1.2965
20159SOL     OW67081   2.862   5.697   6.625 -0.4194  0.9768  0.1729
20159SOL    HW167082   2.781   5.741   6.652  0.5903  2.9610  0.1564
20159SOL    HW267083   2.917   5.767   6.592  0.6157 -0.6079 -1.6246
20160SOL     OW67084   0.953   7.935   7.306  0.3994  0.1531  0.2419
20160SOL    HW167085   0.925   8.027   7.305 -0.7734 -0.1914 -0.1618
20160SOL    HW267086   1.046   7.939   7.327  0.4400  1.4595 -0.0730
20161SOL     OW67087   6.057   2.827   3.403 -0.5012  0.3903  0.3660
20161SOL    HW167088   6.101   2.879   3.471 -1.5504 -0.8213  2.0671
20161SOL    HW267089   5.983   2.880   3.376 -0.5539  0.5428  0.8011
20162SOL     OW67090   8.644   8.370   2.161 -0.8265  0.1116  0.0311
20162SOL    HW167091   8.638   8.410   2.248  0.6869  0.1867  0.1433
20162SOL    HW267092   8.554   8.358   2.133 -1.3916  2.7206  0.4117
20163SOL     OW67093   5.652  10.320   1.106  0.1817  0.2412 -0.8766
20163SOL    HW167094   5.580  10.259   1.125  0.4331 -0.1393 -1.1180
20163SOL    HW267095   5.652  10.381   1.179 -1.4204  1.2409 -1.6737
20164SOL     OW67096   9.205   8.699   3.869 -0.1379 -0.3159  0.0737
20164SOL    HW167097   9.222   8.698   3.775  0.9329  1.0542  0.2100
20164SOL    HW267098   9.280   8.653   3.907 -0.6807 -1.0607  0.2401
20165SOL     OW67099   1.693   0.695  11.652  0.0635  0.7165 -0.0015
20165SOL    HW167100   1.785   0.680  11.632  0.0754 -1.4662  1.3872
20165SOL    HW267101   1.645   0.652  11.580  0.1504 -1.4483  1.1724
20166SOL     OW67102   4.498   5.322   7.236 -0.7487  0.2634  0.0006
20166SOL    HW167103   4.563   5.371   7.287  0.1529 -1.0153  0.1284
20166SOL    HW267104   4.433   5.388   7.210  0.9627  1.7405 -0.7561
20167SOL     OW67105   0.057   5.269   6.642  0.9017 -0.2099  0.1098
20167SOL    HW167106   0.065   5.176   6.619  0.0336 -0.5155  0.9635
20167SOL    HW267107  -0.008   5.270   6.713  1.9240  0.9020  1.0759
20168SOL     OW67108   5.510   9.583   0.151 -0.2786  0.0497  0.2409
20168SOL    HW167109   5.566   9.655   0.181 -1.0436 -0.1940  2.3761
20168SOL    HW267110   5.572   9.514   0.126  0.4522 -0.2998  2.7716
20169SOL     OW67111  11.750  11.841   1.651  0.1219 -0.5537 -0.1130
20169SOL    HW167112  11.692  11.909   1.686 -0.3388 -2.1888  2.6048
20169SOL    HW267113  11.691  11.778   1.609  0.1245 -1.1054  0.6868
20170SOL     OW67114   6.257   9.677   1.157 -0.3527  0.0055  0.4241
20170SOL    HW167115   6.333   9.642   1.203 -0.1298  1.0355  0.8698
20170SOL    HW267116   6.282   9.767   1.135 -0.9268 -0.0783 -0.6358
20171SOL     OW67117   6.455   7.999   4.470 -0.1066  0.0464  0.5469
20171SOL    HW167118   6.391   7.928   4.465 -0.1727  0.1913 -2.6200
20171SOL    HW267119   6.459   8.021   4.563 -3.7496 -0.7886  1.0626
20172SOL     OW67120   9.606   0.977   9.173 -0.3495 -0.3797  0.9124
20172SOL    HW167121   9.693   0.959   9.137 -0.6611  1.1535 -0.7309
20172SOL    HW267122   9.621   1.035   9.247  0.0682 -0.7784  1.1440
20173SOL     OW67123   3.500  12.408   4.011 -0.1912 -0.3108  0.1890
20173SOL    HW167124   3.451  12.486   4.035  1.1189  0.0196  1.9856
20173SOL    HW267125   3.588  12.440   3.992  0.0036 -1.1872 -0.4602
20174SOL     OW67126  11.525  10.581   7.670  0.2589 -0.1051  0.3468
20174SOL    HW167127  11.542  10.493   7.634  2.3471  1.1113 -1.9692
20174SOL    HW267128  11.604  10.602   7.719 -0.5181  0.2558  1.4785
20175SOL     OW67129   2.590   8.961   9.117 -0.3819 -0.0919 -0.5180
20175SOL    HW167130   2.614   8.942   9.208 -0.5306  0.1002 -0.4376
20175SOL    HW267131   2.497   8.939   9.112 -0.1411 -1.0487 -0.8870
20176SOL     OW67132   3.939   2.577   0.544 -0.3008 -0.2485 -0.2014
20176SOL    HW167133   3.952   2.484   0.527  0.0877 -0.0096 -1.3268
20176SOL    HW267134   3.946   2.618   0.458  0.2956  0.9057  0.3693
20177SOL     OW67135   4.297   0.511   9.629 -0.0245 -0.0705 -0.1234
20177SOL    HW167136   4.349   0.497   9.708  0.1002 -0.1208 -0.2130
20177SOL    HW267137   4.206   0.502   9.658 -0.0014  0.4400  0.1170
20178SOL     OW67138   6.717   1.203   2.257 -0.3912  1.0785  0.1876
20178SOL    HW167139   6.799   1.203   2.306 -0.4516  0.4694  0.2944
20178SOL    HW267140   6.656   1.253   2.311 -0.4981  0.3010  0.8090
20179SOL     OW67141  12.074   6.373   4.826 -0.5674 -0.3379  0.9979
20179SOL    HW167142  12.019   6.452   4.829 -0.4116 -0.0408 -1.4532
20179SOL    HW267143  12.011   6.301   4.822 -0.7141 -0.3149  2.4273
20180SOL     OW67144   3.854   2.145   8.458  0.1177  0.5152  0.1494
20180SOL    HW167145   3.829   2.208   8.525 -0.5782  0.5484 -0.1384
20180SOL    HW267146   3.778   2.089   8.447 -0.1781  1.1791 -1.3775
20181SOL     OW67147   7.489   6.800   1.377 -0.2202 -0.2835 -0.0537
20181SOL    HW167148   7.414   6.859   1.376 -1.6224 -1.9606  0.2933
20181SOL    HW267149   7.502   6.776   1.285  2.4859  2.9547 -0.7218
20182SOL     OW67150  10.277  10.459  11.063 -0.4567 -0.0741  0.3714
20182SOL    HW167151  10.191  10.451  11.105 -0.7466 -0.0548 -0.2058
20182SOL    HW267152  10.314  10.370  11.066 -1.3859 -0.5670 -1.2157
20183SOL     OW67153   7.506   7.992   1.975 -0.9748  0.3465  0.4416
20183SOL    HW167154   7.538   7.906   2.004  0.2397  0.4970 -0.3984
20183SOL    HW267155   7.497   7.983   1.881 -1.5065  0.9417  0.4320
20184SOL     OW67156  10.956  12.041   4.033 -0.2373 -0.0949 -0.3489
20184SOL    HW167157  11.047  12.045   4.064  0.0501  0.5852 -1.2267
20184SOL    HW267158  10.908  12.098   4.092  0.5807  2.4541 -1.9663
20185SOL     OW67159   0.651   2.652   1.608 -0.5851 -0.4641  0.2457
20185SOL    HW167160   0.585   2.585   1.624  0.0201 -0.9322  0.8375
20185SOL    HW267161   0.701   2.619   1.533 -0.1278 -0.8076  0.6950
20186SOL     OW67162   1.678   3.049   9.168 -0.2870 -0.0245  0.1202
20186SOL    HW167163   1.706   3.053   9.259  1.2435  0.6869 -0.3581
20186SOL    HW267164   1.618   2.974   9.165  1.7728 -1.8187  1.1624
20187SOL     OW67165  12.088   8.390   0.315 -0.1076 -0.0212  0.0402
20187SOL    HW167166  12.149   8.423   0.381  1.8267 -0.0039 -1.6558
20187SOL    HW267167  12.065   8.303   0.346  1.2136 -0.2415  0.5025
20188SOL     OW67168  12.768   8.452  12.614 -0.4327  0.0457  0.2227
20188SOL    HW167169  12.744   8.460  12.521 -4.7336 -0.4974  1.0867
20188SOL    HW267170  12.799   8.361  12.622 -0.7331 -0.1389 -0.5430
20189SOL     OW67171   8.552   7.026   5.160 -0.2815 -0.1228  0.5868
20189SOL    HW167172   8.551   7.122   5.150  0.1297 -0.0816  0.9225
20189SOL    HW267173   8.620   6.996   5.099 -0.2987 -0.1884  0.6002
20190SOL     OW67174   4.670  10.958   5.038  0.4273  0.1587 -0.0963
20190SOL    HW167175   4.763  10.978   5.047  0.8160 -1.4861 -0.2441
20190SOL    HW267176   4.667  10.884   4.978 -1.0807  0.9693 -1.0745
20191SOL     OW67177   7.273   2.037   3.365  0.1755  0.6907 -0.4999
20191SOL    HW167178   7.261   2.132   3.365 -1.3972  0.5094  0.0808
20191SOL    HW267179   7.324   2.019   3.444  0.5315  1.0526 -0.6445
20192SOL     OW67180   3.112   4.879   7.583  0.2159 -0.3593  0.2907
20192SOL    HW167181   3.133   4.786   7.589  0.5192 -0.3570 -0.5270
20192SOL    HW267182   3.194   4.921   7.555 -0.1945 -0.0074 -0.4382
20193SOL     OW67183   6.472  12.007   4.463 -0.1289  0.4234  0.1178
20193SOL    HW167184   6.512  11.933   4.416 -1.1847  0.0011 -0.1539
20193SOL    HW267185   6.529  12.081   4.445  0.7732 -0.2571  0.1208
20194SOL     OW67186  11.312   1.501  11.793 -0.0925  0.1590  0.1421
20194SOL    HW167187  11.368   1.573  11.764  0.8755 -0.3943  0.5932
20194SOL    HW267188  11.304   1.445  11.716  0.2196  0.0960  0.1524
20195SOL     OW67189   2.082   3.020   4.236  0.1991  0.2354 -0.1167
20195SOL    HW167190   2.176   3.035   4.227  0.2303 -0.1005 -0.3956
20195SOL    HW267191   2.058   3.060   4.320  0.8017 -0.6963  0.5027
20196SOL     OW67192   7.929   1.225   4.548 -0.1907  0.0389  0.3276
20196SOL    HW167193   7.878   1.306   4.548 -0.3713 -0.0721  0.7005
20196SOL    HW267194   7.870   1.160   4.510  0.0521  0.1438 -0.2212
20197SOL     OW67195   9.011   8.614  10.213 -0.1435 -0.2009  0.3059
20197SOL    HW167196   9.073   8.679  10.245 -0.1676 -0.2415  0.4368
20197SOL    HW267197   9.012   8.624  10.118 -0.5914  0.3876  0.3633
20198SOL     OW67198   0.977   4.302   1.625  0.0065 -0.0844  0.8401
20198SOL    HW167199   1.060   4.255   1.628 -0.4817 -0.9443  1.1653
20198SOL    HW267200   0.981   4.361   1.701  0.4270  0.0608  0.7055
20199SOL     OW67201   8.749   2.208   2.000 -0.1707 -0.1298 -0.1833
20199SOL    HW167202   8.839   2.239   1.990  0.4461 -1.7153  0.0823
20199SOL    HW267203   8.709   2.218   1.914  0.8689 -1.1638 -0.8067
20200SOL     OW67204   6.248   1.528  10.106  0.0089 -0.2836 -0.0536
20200SOL    HW167205   6.331   1.572  10.123  0.9229 -0.7430 -2.8702
20200SOL    HW267206   6.267   1.435  10.118 -0.6218 -0.2936  1.0408
20201SOL     OW67207  11.368  10.140  10.856 -0.6418  0.0930  0.4004
20201SOL    HW167208  11.332  10.071  10.800 -0.7723  1.6466 -1.5161
20201SOL    HW267209  11.308  10.213  10.846  0.6047  1.1994  0.7617
20202SOL     OW67210  11.353   9.572   5.872  0.0196 -0.9640 -0.6306
20202SOL    HW167211  11.365   9.643   5.935 -1.1543  0.8368 -2.3252
20202SOL    HW267212  11.442   9.544   5.851  0.4849 -0.4071  0.4876
20203SOL     OW67213   0.646   8.534   6.616 -0.5321  0.8067  0.0675
20203SOL    HW167214   0.616   8.468   6.679  0.9456  0.3289  0.3102
20203SOL    HW267215   0.650   8.615   6.666 -0.0142  0.5687  0.4189
20204SOL     OW67216   6.351  12.439   9.081 -0.6064 -0.0296  0.1114
20204SOL    HW167217   6.432  12.391   9.099  0.7379  1.2728 -1.9258
20204SOL    HW267218   6.289  12.408   9.146  1.3761 -1.4837  1.4198
20205SOL     OW67219  10.292   5.528   6.984 -0.9470 -0.2312  0.2152
20205SOL    HW167220  10.241   5.457   7.022 -1.0893 -1.6984 -2.4628
20205SOL    HW267221  10.229   5.577   6.931 -0.6940  1.5342  1.4493
20206SOL     OW67222   1.361  11.195   8.419 -0.3518 -0.8782 -0.3009
20206SOL    HW167223   1.428  11.225   8.480 -0.7953 -1.5701  0.5433
20206SOL    HW267224   1.299  11.145   8.473 -1.6556 -0.1003 -1.0219
20207SOL     OW67225   0.250   5.708   9.334 -0.1246  0.2850  0.1828
20207SOL    HW167226   0.291   5.671   9.255 -0.9060  1.1703 -0.6606
20207SOL    HW267227   0.268   5.643   9.402 -1.2536 -1.5828 -1.1876
20208SOL     OW67228  10.472   6.165   0.889  0.2053 -0.3911  0.7602
20208SOL    HW167229  10.420   6.239   0.860  2.2417  0.3427 -1.2785
20208SOL    HW267230  10.428   6.088   0.851 -0.3488  0.0259  0.5445
20209SOL     OW67231  11.587  11.084  11.595  0.0613  0.0381  1.0088
20209SOL    HW167232  11.523  11.020  11.627 -0.0082 -0.1633  0.4726
20209SOL    HW267233  11.621  11.125  11.674 -0.4038 -0.1733  1.3214
20210SOL     OW67234   5.772  12.186   6.260 -1.1656  0.1692 -0.0993
20210SOL    HW167235   5.768  12.137   6.342 -1.5787  0.4706  0.0666
20210SOL    HW267236   5.773  12.119   6.192  1.0231 -0.1346  0.1865
20211SOL     OW67237  12.131   9.409   9.317 -0.4853 -0.1651  0.0788
20211SOL    HW167238  12.163   9.335   9.369  0.2059 -0.3912 -0.6441
20211SOL    HW267239  12.145   9.382   9.226 -1.4159  0.3365 -0.2293
20212SOL     OW67240   9.614  10.290  11.826 -1.0312 -0.4848  0.0923
20212SOL    HW167241   9.636  10.235  11.901  0.4371 -0.6943 -0.4690
20212SOL    HW267242   9.697  10.304  11.781 -1.7114  0.5386 -0.8988
20213SOL     OW67243   4.122  10.035   0.498  0.4571  0.1160 -0.2744
20213SOL    HW167244   4.149   9.945   0.517 -0.3555 -0.1049 -0.1275
20213SOL    HW267245   4.076  10.063   0.577 -0.4364  0.1965 -0.8151
20214SOL     OW67246   9.655  11.840   6.939  0.2589  0.4961  0.6099
20214SOL    HW167247   9.748  11.844   6.914 -0.1351  0.0095 -1.1334
20214SOL    HW267248   9.654  11.864   7.031  2.0467  1.1419  0.5127
20215SOL     OW67249   3.423   7.986   2.981 -0.5794 -0.7761  0.4806
20215SOL    HW167250   3.350   8.041   3.010  0.1096 -0.0779  0.9517
20215SOL    HW267251   3.464   8.035   2.910 -1.2583 -1.7112 -0.5708
20216SOL     OW67252  12.554   6.415   0.246 -0.3755  0.0862  0.2409
20216SOL    HW167253  12.604   6.366   0.182 -0.7569 -0.4299  0.3282
20216SOL    HW267254  12.483   6.455   0.196  0.0009  0.6508  0.1507
20217SOL     OW67255   8.527   7.206   3.617 -0.1873  0.3422 -0.4161
20217SOL    HW167256   8.600   7.251   3.575  0.2053 -0.5835 -0.7442
20217SOL    HW267257   8.450   7.256   3.590  0.3289  1.5388  0.2029
20218SOL     OW67258  10.226   0.359   4.106 -0.5737  0.6848  0.4950
20218SOL    HW167259  10.277   0.314   4.040 -0.7203  2.8047 -1.1735
20218SOL    HW267260  10.290   0.414   4.153 -0.5282 -0.5335  1.9331
20219SOL     OW67261   7.511   4.752  10.102  0.1398 -0.1409 -0.2376
20219SOL    HW167262   7.498   4.776  10.194  0.4441 -0.5028 -0.0995
20219SOL    HW267263   7.525   4.658  10.104 -0.5853 -0.2608 -0.7329
20220SOL     OW67264   1.632   9.534   4.159 -1.2567 -0.4659  0.2904
20220SOL    HW167265   1.631   9.609   4.218 -0.4411 -0.2576  0.0455
20220SOL    HW267266   1.543   9.529   4.125 -1.5651 -0.1987  1.0426
20221SOL     OW67267  10.203  12.343   2.859 -0.5280  0.4587 -0.6888
20221SOL    HW167268  10.155  12.391   2.792 -0.7543  0.5724 -0.4475
20221SOL    HW267269  10.284  12.316   2.816 -0.6814  0.5099 -1.0145
20222SOL     OW67270   5.862   8.652   7.838 -0.5169 -0.7449 -0.0574
20222SOL    HW167271   5.884   8.745   7.829 -1.0767 -0.6195 -0.1482
20222SOL    HW267272   5.919   8.621   7.909  0.3057 -0.5478 -0.6183
20223SOL     OW67273   2.581   2.444   8.606 -0.7328  0.4963  0.6039
20223SOL    HW167274   2.564   2.360   8.647  1.3369 -0.6595 -0.7261
20223SOL    HW267275   2.575   2.508   8.677 -2.4078 -0.7183  1.6224
20224SOL     OW67276   4.911   0.474   8.332  0.6677  0.1246  0.1353
20224SOL    HW167277   4.985   0.453   8.275  1.5248  2.1204  0.4106
20224SOL    HW267278   4.910   0.405   8.397  0.8678 -1.1527 -1.1720
20225SOL     OW67279   2.378  11.723  10.465 -0.0153  0.1860  0.2307
20225SOL    HW167280   2.413  11.635  10.458  0.3112  0.3946 -0.8804
20225SOL    HW267281   2.366  11.752  10.375 -1.4886  0.7445  0.5662
20226SOL     OW67282   7.752   7.583   6.281  0.1033  0.2025 -0.0422
20226SOL    HW167283   7.685   7.533   6.327  0.1215 -0.6496 -0.9168
20226SOL    HW267284   7.816   7.517   6.254  1.2902  0.9925  0.7427
20227SOL     OW67285   0.224   5.302   1.594 -0.5174  0.1645 -0.8927
20227SOL    HW167286   0.296   5.238   1.601 -1.1958 -0.5611 -0.2144
20227SOL    HW267287   0.228   5.350   1.677 -1.1733 -0.2935 -0.5850
20228SOL     OW67288   1.501   3.896   7.390 -0.4547 -0.0135 -0.3220
20228SOL    HW167289   1.578   3.912   7.335 -0.8612 -0.3039 -0.9797
20228SOL    HW267290   1.537   3.859   7.471  0.0115 -1.3944 -1.1379
20229SOL     OW67291  11.369  12.704   4.876 -0.1359 -0.1234 -0.2297
20229SOL    HW167292  11.382  12.789   4.833 -2.2618  0.1717 -0.3871
20229SOL    HW267293  11.382  12.640   4.807  0.6120  0.1193 -0.3186
20230SOL     OW67294   1.581   7.593   5.775  0.2412 -0.2534 -0.3968
20230SOL    HW167295   1.546   7.567   5.690  1.7673  0.9922 -1.4642
20230SOL    HW267296   1.644   7.525   5.797 -1.0647 -1.2503  0.3924
20231SOL     OW67297   9.783   6.664   7.011  0.1169 -0.1256  0.1036
20231SOL    HW167298   9.798   6.612   7.090 -0.4627 -0.4462  0.0130
20231SOL    HW267299   9.855   6.641   6.952  0.0127 -0.6314  0.1671
20232SOL     OW67300   3.060   9.544   8.073 -0.4416  0.5472 -0.1713
20232SOL    HW167301   3.142   9.586   8.050  0.0354  0.3705  1.0773
20232SOL    HW267302   3.035   9.494   7.996  0.9224  0.1670 -0.3895
20233SOL     OW67303   7.013   0.288   5.031  0.0255  0.0689 -0.5314
20233SOL    HW167304   6.968   0.368   5.004  0.9086  0.4961 -0.7793
20233SOL    HW267305   7.064   0.262   4.955  0.8033  0.0381 -0.0136
20234SOL     OW67306   6.319   5.247  12.562 -0.2688 -0.2651  0.5221
20234SOL    HW167307   6.250   5.184  12.545 -2.1029  2.1075 -1.8368
20234SOL    HW267308   6.353   5.269  12.475  2.4006 -0.1397  1.4899
20235SOL     OW67309   0.151  10.673   1.861 -0.2613 -0.1469 -0.2096
20235SOL    HW167310   0.094  10.635   1.928  3.3438 -2.2167  1.9643
20235SOL    HW267311   0.143  10.613   1.786 -1.0750 -0.2371 -0.0681
20236SOL     OW67312   1.078   0.033   6.271 -0.2361  0.5024 -0.4880
20236SOL    HW167313   0.987   0.027   6.243  0.2987 -1.0949 -2.0875
20236SOL    HW267314   1.115   0.105   6.219 -0.8001  1.9369  0.9970
20237SOL     OW67315   7.803   8.581   8.862  0.0858 -0.3688  0.0853
20237SOL    HW167316   7.745   8.649   8.898 -1.3168 -1.2953 -0.3609
20237SOL    HW267317   7.753   8.543   8.791  1.1342 -1.4314 -0.0970
20238SOL     OW67318  10.519   3.627   0.661 -0.4131  0.0864 -0.1080
20238SOL    HW167319  10.496   3.657   0.749 -0.5322  0.8939 -0.4145
20238SOL    HW267320  10.614   3.628   0.659 -0.4087  1.8679 -0.5846
20239SOL     OW67321   4.663   9.900   8.064 -0.7023  0.3406 -0.2025
20239SOL    HW167322   4.667   9.941   8.151 -0.2417  0.4196 -0.2582
20239SOL    HW267323   4.670   9.806   8.081 -0.9906  0.3314 -0.1293
20240SOL     OW67324   1.260   0.465   9.581 -0.0382 -0.1416  0.2733
20240SOL    HW167325   1.297   0.552   9.565  2.1052 -0.9308  0.6044
20240SOL    HW267326   1.237   0.466   9.674 -0.4217  0.1869  0.1817
20241SOL     OW67327   0.831   1.572   9.843 -0.0336 -0.2244 -0.4513
20241SOL    HW167328   0.830   1.639   9.775 -2.2734  0.2913  0.0131
20241SOL    HW267329   0.837   1.489   9.794  2.3145  0.2050 -1.0407
20242SOL     OW67330  11.547   4.007   2.284  0.1141 -0.1022 -0.1384
20242SOL    HW167331  11.593   4.085   2.255  0.0274  0.3833  0.9754
20242SOL    HW267332  11.457   4.036   2.299  0.1241 -0.3699  0.4621
20243SOL     OW67333   2.822   6.624   4.127 -0.1475  0.0362 -0.5934
20243SOL    HW167334   2.823   6.711   4.087 -1.1590  0.4198  0.1640
20243SOL    HW267335   2.820   6.563   4.053  0.6030  0.6431 -1.1339
20244SOL     OW67336  11.735   5.839  12.059  0.3410  0.6333 -0.6886
20244SOL    HW167337  11.734   5.780  12.134  1.8996  1.4059 -0.0208
20244SOL    HW267338  11.722   5.926  12.097  0.1806  0.9411 -1.4271
20245SOL     OW67339   4.747   4.854   1.078  0.0104  0.1620  0.1305
20245SOL    HW167340   4.811   4.895   1.019  0.3175 -1.1077 -0.4489
20245SOL    HW267341   4.662   4.876   1.040  0.2115 -0.7933 -0.8972
20246SOL     OW67342  12.187   0.868   0.428 -0.2622  0.0643 -0.1090
20246SOL    HW167343  12.200   0.779   0.461  0.4030 -0.4872 -1.7204
20246SOL    HW267344  12.096   0.870   0.398 -0.3055 -0.0531  0.0164
20247SOL     OW67345   4.165   0.078   6.335 -0.3925 -0.0507  0.5249
20247SOL    HW167346   4.163   0.025   6.415  1.7023 -1.1244 -0.0492
20247SOL    HW267347   4.257   0.100   6.324 -0.6341  0.0784 -1.5776
20248SOL     OW67348   3.945   4.021   5.505 -0.3982 -0.1071  0.2401
20248SOL    HW167349   3.868   4.006   5.560 -0.4474  1.9796  0.8469
20248SOL    HW267350   3.981   4.104   5.537  0.6228  0.2634 -1.7161
20249SOL     OW67351   6.443   7.844   6.595  0.0230  0.1777  0.8295
20249SOL    HW167352   6.467   7.924   6.548 -0.0109 -0.3960 -0.1893
20249SOL    HW267353   6.359   7.818   6.557  0.0912 -0.4034  1.0690
20250SOL     OW67354   8.406   6.564  11.105 -0.7819 -0.4985 -0.2478
20250SOL    HW167355   8.414   6.483  11.157 -1.1747 -0.2055  0.2687
20250SOL    HW267356   8.465   6.625  11.148 -1.4065 -0.1310  0.0952
20251SOL     OW67357   2.647   3.312   7.074 -0.0454 -0.1198  0.0797
20251SOL    HW167358   2.629   3.225   7.039  0.2388 -0.2421  0.2291
20251SOL    HW267359   2.720   3.299   7.135 -1.4978 -0.1715  1.8767
20252SOL     OW67360   3.592   9.699   6.736 -0.0081  0.0426 -0.2795
20252SOL    HW167361   3.675   9.710   6.689 -0.0721  0.9943 -0.1831
20252SOL    HW267362   3.552   9.785   6.734 -0.4639 -0.1370  0.6795
20253SOL     OW67363   0.021   9.640  10.314 -0.1311  0.1434  0.6060
20253SOL    HW167364  -0.056   9.630  10.370  0.4463  0.6970  1.5157
20253SOL    HW267365   0.023   9.733  10.291 -0.1005  0.0074  0.0274
20254SOL     OW67366   4.546  12.044   7.208 -0.5819 -0.2081  1.0831
20254SOL    HW167367   4.626  12.004   7.174 -0.5292 -0.7890  1.8404
20254SOL    HW267368   4.528  12.117   7.149 -0.3283 -0.9728  0.0294
20255SOL     OW67369   1.776  12.663   1.460  0.0522 -0.2678 -0.2854
20255SOL    HW167370   1.847  12.614   1.418  0.6500  0.8128 -0.5863
20255SOL    HW267371   1.697  12.611   1.443  0.4634 -0.4742 -1.6978
20256SOL     OW67372  11.197   4.427   1.637 -0.2842 -0.0335 -0.8047
20256SOL    HW167373  11.148   4.356   1.678  0.3459  0.0815  0.1692
20256SOL    HW267374  11.129   4.483   1.597 -1.1131  0.8296  1.6224
20257SOL     OW67375   0.978   3.464   4.652 -0.9409 -0.0687  0.0598
20257SOL    HW167376   1.041   3.536   4.655 -1.4888  0.4059  0.4134
20257SOL    HW267377   0.989   3.419   4.735  1.3431 -2.1152 -1.2386
20258SOL     OW67378   6.470   3.857  11.763 -0.4149 -0.0166 -0.2867
20258SOL    HW167379   6.413   3.920  11.720 -1.9332  0.0658  1.6796
20258SOL    HW267380   6.525   3.910  11.821 -2.1401 -0.4337  1.8597
20259SOL     OW67381   6.905   6.215   4.402  0.4661  0.3670  0.4857
20259SOL    HW167382   6.876   6.199   4.312  0.9185 -0.2155  0.4416
20259SOL    HW267383   6.848   6.286   4.432 -0.2097  0.0420  0.0071
20260SOL     OW67384   4.554   4.218   6.191 -0.4195 -0.0359  0.4069
20260SOL    HW167385   4.638   4.174   6.181  0.7086  2.0836 -0.2517
20260SOL    HW267386   4.508   4.169   6.259  1.6137 -0.8696  1.2502
20261SOL     OW67387   3.845   1.478  10.235  0.8975 -0.2451  0.1920
20261SOL    HW167388   3.930   1.514  10.261  0.2549  2.1935 -0.7896
20261SOL    HW267389   3.785   1.509  10.303  0.5013 -0.3903 -0.0914
20262SOL     OW67390   2.676  10.372   7.386  0.1267  0.6707  0.1043
20262SOL    HW167391   2.639  10.374   7.474  0.6277  1.4810  0.3198
20262SOL    HW267392   2.648  10.455   7.347  0.6315  0.7161 -0.1762
20263SOL     OW67393   4.361   4.753   2.565  0.2409  0.2480  0.5541
20263SOL    HW167394   4.269   4.765   2.585  0.3376  0.3480  0.9467
20263SOL    HW267395   4.401   4.839   2.582  0.2239  0.5155 -0.6673
20264SOL     OW67396   4.353   7.825   1.280  0.1978 -0.0470 -0.3793
20264SOL    HW167397   4.336   7.917   1.298 -0.0660  0.2917 -2.1506
20264SOL    HW267398   4.281   7.799   1.222 -0.3563 -1.6899  0.9684
20265SOL     OW67399   9.008   5.940   3.135  0.2076 -0.4600 -0.1214
20265SOL    HW167400   9.051   5.993   3.202 -0.9437  0.2810  0.0628
20265SOL    HW267401   8.929   5.908   3.178  1.9156 -4.2995  0.5563
20266SOL     OW67402   3.059   4.198   7.694 -0.2808  0.0921 -0.0876
20266SOL    HW167403   2.976   4.209   7.648  0.6250  3.1144 -1.1910
20266SOL    HW267404   3.121   4.171   7.626 -0.0807 -0.9840  0.5009
20267SOL     OW67405  12.268   4.256   3.847 -0.2843 -0.5544  0.0032
20267SOL    HW167406  12.347   4.271   3.899 -0.3309 -2.3058  0.6508
20267SOL    HW267407  12.300   4.228   3.761 -0.1951 -0.5365  0.0308
20268SOL     OW67408   4.637   6.483   2.442  0.5924  0.3188  0.3315
20268SOL    HW167409   4.577   6.449   2.508  0.1824 -1.3599 -0.8354
20268SOL    HW267410   4.675   6.405   2.402  2.1663  1.3278 -0.2196
20269SOL     OW67411   5.116   2.589   3.212  0.1875 -0.1103  0.5597
20269SOL    HW167412   5.115   2.625   3.301 -0.7014 -0.9894  0.9156
20269SOL    HW267413   5.050   2.520   3.213  2.0049 -1.9417 -0.0387
20270SOL     OW67414  12.180   0.075   8.488 -0.0582  0.4146 -0.6260
20270SOL    HW167415  12.097   0.059   8.443 -0.1530  1.8146 -0.9837
20270SOL    HW267416  12.166   0.042   8.577 -1.1334  1.0039 -0.5632
20271SOL     OW67417   8.236  11.880   0.012 -0.2388  0.2563  0.4054
20271SOL    HW167418   8.316  11.872  -0.041 -1.7005 -0.8195 -1.7832
20271SOL    HW267419   8.178  11.935  -0.041 -0.8013  1.5013  2.2172
20272SOL     OW67420   1.299   7.760   7.243 -0.1564  0.0591  0.0416
20272SOL    HW167421   1.241   7.725   7.176 -1.1549 -0.0645  0.9621
20272SOL    HW267422   1.263   7.729   7.326  0.5135  0.9928  0.7071
20273SOL     OW67423  11.005   2.747   3.075 -0.0193 -0.1129  0.1059
20273SOL    HW167424  10.950   2.825   3.071  0.4587  0.3800  2.3386
20273SOL    HW267425  10.946   2.675   3.052 -1.1618  0.5894  0.7860
20274SOL     OW67426   1.856   7.062   5.479  0.6812  0.7354  0.1557
20274SOL    HW167427   1.787   7.111   5.435  0.0670  0.5632  0.9104
20274SOL    HW267428   1.832   6.970   5.466  0.9773  0.6642  0.0972
20275SOL     OW67429  11.400  12.082   3.937 -0.2018 -0.3927  0.1807
20275SOL    HW167430  11.440  12.154   3.986 -0.4800 -1.1947  1.6211
20275SOL    HW267431  11.473  12.026   3.911 -0.1063 -0.2439  0.1276
20276SOL     OW67432   3.747   3.521   7.940  0.3051  0.1883 -0.0292
20276SOL    HW167433   3.782   3.436   7.912  0.9436  0.4796 -0.1445
20276SOL    HW267434   3.780   3.582   7.874  0.7618  0.6897  0.6658
20277SOL     OW67435  11.278   0.362   1.547 -1.0150  0.0963  0.7806
20277SOL    HW167436  11.362   0.326   1.572  0.4030 -0.2824 -3.6188
20277SOL    HW267437  11.216   0.290   1.559  0.1825 -1.1027  0.0477
20278SOL     OW67438   9.111   4.173  10.686  0.0419 -0.2444 -0.4667
20278SOL    HW167439   9.128   4.158  10.593  0.4417  1.8796 -0.8007
20278SOL    HW267440   9.021   4.206  10.690  0.8978  2.3518 -0.5262
20279SOL     OW67441   1.789  10.187  11.472  0.3839  0.4408 -0.1081
20279SOL    HW167442   1.853  10.247  11.433  1.2443 -0.7488 -0.5644
20279SOL    HW267443   1.752  10.236  11.545  0.5992  1.7696 -0.8536
20280SOL     OW67444  11.266   9.431   2.672 -0.0904 -0.6042  0.0266
20280SOL    HW167445  11.293   9.517   2.705 -0.5356 -0.4915  0.1089
20280SOL    HW267446  11.195   9.405   2.730 -1.0497 -0.2978 -0.9611
20281SOL     OW67447   3.719   4.201   5.378 -0.7897  0.3131 -0.0363
20281SOL    HW167448   3.642   4.184   5.324 -0.0229  0.6372 -1.2756
20281SOL    HW267449   3.695   4.169   5.465 -2.2243  0.1892 -0.4534
20282SOL     OW67450   0.994   7.149   5.745  0.4566 -0.6263  0.2259
20282SOL    HW167451   0.931   7.221   5.749 -0.2594 -1.0859 -1.8226
20282SOL    HW267452   0.974   7.104   5.663  1.5005 -2.6056  1.0007
20283SOL     OW67453   4.494   8.114   9.461 -0.2808  0.3196 -0.1364
20283SOL    HW167454   4.513   8.173   9.388 -0.4096 -0.3926 -0.7459
20283SOL    HW267455   4.579   8.103   9.505 -0.2992  1.1461  0.1407
20284SOL     OW67456   9.991   9.892   6.867  0.3117  0.0403  0.0707
20284SOL    HW167457   9.909   9.874   6.821  0.3456 -0.8582  0.3446
20284SOL    HW267458  10.021   9.806   6.896  0.8325  0.4811  0.8633
20285SOL     OW67459  11.362  10.739   7.195  0.1842  0.1757 -0.4451
20285SOL    HW167460  11.362  10.643   7.196 -1.4804  0.1063  2.2245
20285SOL    HW267461  11.377  10.764   7.286 -0.5453  2.4273 -0.8848
20286SOL     OW67462  11.791   8.302   0.500  0.0445 -0.6956  0.2651
20286SOL    HW167463  11.786   8.282   0.593  0.6781 -0.6543  0.3083
20286SOL    HW267464  11.812   8.396   0.497  0.4088 -0.7840  0.0818
20287SOL     OW67465   2.925   9.835   7.950  0.1088  0.4566 -0.0496
20287SOL    HW167466   3.019   9.846   7.965  0.1001 -0.3773  0.6804
20287SOL    HW267467   2.885   9.853   8.035 -0.1489 -1.9229  0.4071
20288SOL     OW67468   7.610  10.109   4.888  0.2685 -0.0682  0.0091
20288SOL    HW167469   7.703  10.101   4.908  0.7386  1.8816 -1.1844
20288SOL    HW267470   7.583  10.190   4.930 -1.3419 -1.3770  1.6838
20289SOL     OW67471   6.992   2.321   4.973  0.0865 -0.8775  0.3460
20289SOL    HW167472   7.083   2.329   4.947  0.0929 -1.6847  0.1115
20289SOL    HW267473   6.956   2.252   4.917 -0.6794 -0.5362  0.3990
20290SOL     OW67474   5.165  11.922   2.466 -0.0841 -0.2985 -0.0392
20290SOL    HW167475   5.196  11.836   2.496 -0.4278 -0.4066  0.0096
20290SOL    HW267476   5.210  11.935   2.382  0.1983 -0.3925  0.0957
20291SOL     OW67477  11.839   8.075   4.849 -0.0345 -0.0201 -0.5546
20291SOL    HW167478  11.785   8.107   4.922  2.1161 -0.6341  1.4487
20291SOL    HW267479  11.802   7.990   4.827 -0.0609 -0.3468  0.6519
20292SOL     OW67480   7.967   2.080   6.881  0.7454  0.3729 -0.0371
20292SOL    HW167481   8.034   2.139   6.845  1.4863 -0.6975 -0.4676
20292SOL    HW267482   7.986   1.995   6.841 -0.9151  0.0497 -0.1969
20293SOL     OW67483   0.302   2.781   2.679  0.3389 -0.2049 -0.0219
20293SOL    HW167484   0.378   2.762   2.734 -0.4455  0.2744  1.2773
20293SOL    HW267485   0.247   2.838   2.733 -1.1288 -0.8588 -0.7651
20294SOL     OW67486   2.672   6.216  10.040 -0.0997  0.0902  0.0320
20294SOL    HW167487   2.657   6.249   9.952 -0.5923  0.7551  0.3543
20294SOL    HW267488   2.714   6.288  10.086  0.6646 -0.4505  0.1884
20295SOL     OW67489   9.211   2.534   0.942 -0.6327  0.0395  0.1740
20295SOL    HW167490   9.135   2.547   0.885 -0.6401  0.0543  0.1872
20295SOL    HW267491   9.285   2.528   0.881 -0.8558 -1.7499  0.0296
20296SOL     OW67492   1.450   5.106   9.411  0.1455 -0.4179  0.5976
20296SOL    HW167493   1.478   5.021   9.444 -0.7157 -0.3435  1.6075
20296SOL    HW267494   1.384   5.135   9.475 -0.4015  0.4856 -0.3471
20297SOL     OW67495  11.911  12.711   6.296  0.0907 -0.3076 -0.0686
20297SOL    HW167496  11.847  12.714   6.366 -0.4151  0.7770 -0.5588
20297SOL    HW267497  11.980  12.771   6.324  0.8230 -1.3241  0.3677
20298SOL     OW67498   6.304   5.694  12.493 -0.5994 -0.4481  0.6459
20298SOL    HW167499   6.334   5.644  12.568  1.5035  1.4872  1.2031
20298SOL    HW267500   6.255   5.767  12.531 -0.2198  0.0976  0.1087
20299SOL     OW67501   1.058   7.313   2.492 -0.1882  0.2170 -0.9085
20299SOL    HW167502   0.987   7.281   2.436  1.7095 -2.4097 -2.0627
20299SOL    HW267503   1.064   7.248   2.562  0.2890  1.0730 -0.1435
20300SOL     OW67504   2.716   5.124   5.501 -0.2760  0.6576  0.3146
20300SOL    HW167505   2.781   5.062   5.535  1.3588  0.6571 -2.4275
20300SOL    HW267506   2.760   5.209   5.503 -1.5741  1.3406  1.6974
20301SOL     OW67507   4.126  11.967  10.213  0.3843  0.1159 -0.2231
20301SOL    HW167508   4.209  12.014  10.213 -0.0759  0.9481  0.4727
20301SOL    HW267509   4.132  11.909  10.289 -0.5415  1.8132  1.2237
20302SOL     OW67510   4.616  12.399   0.868  0.2546 -1.1065 -0.4814
20302SOL    HW167511   4.528  12.433   0.884  1.5327  1.7731  1.2142
20302SOL    HW267512   4.648  12.447   0.792  1.0368 -0.6745  0.1028
20303SOL     OW67513   2.069   6.124   6.400  0.1344  0.1496 -0.0387
20303SOL    HW167514   2.163   6.113   6.385  0.4316  1.1886  0.9000
20303SOL    HW267515   2.035   6.035   6.409  0.9242 -0.2527 -0.9614
20304SOL     OW67516   8.058   4.069   2.942 -0.4952  0.1859  0.1903
20304SOL    HW167517   8.039   3.975   2.935 -1.0739  0.3500 -0.5889
20304SOL    HW267518   8.147   4.078   2.909  0.0609 -0.2591  1.5131
20305SOL     OW67519  12.476  10.053  11.725 -0.4761  0.0317  0.0761
20305SOL    HW167520  12.446  10.140  11.697 -0.8436 -0.0521  0.2002
20305SOL    HW267521  12.547  10.071  11.786  0.8536  0.2006 -1.4681
20306SOL     OW67522   4.299   2.899   4.482 -0.2890  0.7245  0.4535
20306SOL    HW167523   4.287   2.888   4.576  1.0767 -1.9416  0.4195
20306SOL    HW267524   4.212   2.882   4.445 -0.7812  1.5544  1.1877
20307SOL     OW67525   6.084   2.151   7.901 -0.0421 -0.0587 -0.5983
20307SOL    HW167526   6.094   2.062   7.936 -0.6643 -0.5495 -1.6177
20307SOL    HW267527   6.028   2.140   7.824  0.5025  1.1110 -1.1902
20308SOL     OW67528   0.292   7.569  12.319 -0.6481 -0.0664 -0.4692
20308SOL    HW167529   0.237   7.570  12.241 -1.6116  1.5379  0.1622
20308SOL    HW267530   0.307   7.662  12.338 -0.0179 -0.4362  0.9576
20309SOL     OW67531   1.548   0.193   2.828 -0.1124  0.9094 -0.5611
20309SOL    HW167532   1.457   0.221   2.831  0.5232  3.1534 -0.2784
20309SOL    HW267533   1.558   0.156   2.740 -1.4986 -0.2790 -0.2571
20310SOL     OW67534   8.661   1.699   3.246 -0.3003  0.0280  0.5142
20310SOL    HW167535   8.707   1.783   3.239 -1.2891  0.5427  0.0248
20310SOL    HW267536   8.684   1.666   3.333  1.4356 -0.0152  0.0772
20311SOL     OW67537   4.816  10.153   1.341 -0.0574  0.2683  0.5236
20311SOL    HW167538   4.729  10.155   1.381  0.3644 -1.4344  1.6312
20311SOL    HW267539   4.805  10.098   1.263 -0.9648  3.8664 -2.2121
20312SOL     OW67540   3.482   7.563  11.902 -0.3836 -0.2720  0.1984
20312SOL    HW167541   3.459   7.481  11.859  1.3541 -0.2859 -0.8031
20312SOL    HW267542   3.552   7.540  11.964 -2.1101 -0.0655  2.3704
20313SOL     OW67543   6.185   6.030   3.251  0.2879 -0.1212 -0.0620
20313SOL    HW167544   6.206   6.111   3.298  1.3318 -0.7259  0.5551
20313SOL    HW267545   6.219   6.044   3.163 -0.3262  0.4403 -0.2202
20314SOL     OW67546   2.737   5.483   4.957 -0.2105 -0.1557  0.2807
20314SOL    HW167547   2.687   5.485   5.038  0.5370  1.3151  0.7459
20314SOL    HW267548   2.792   5.562   4.961 -1.2464  0.7915 -2.3346
20315SOL     OW67549   6.398  12.476   5.099  0.7519 -0.7353 -0.3103
20315SOL    HW167550   6.335  12.463   5.028  0.6435  1.7384 -0.7345
20315SOL    HW267551   6.445  12.393   5.104  0.6807 -1.0541 -3.1796
20316SOL     OW67552  12.020   4.228   8.426 -0.7300  0.5106  0.5547
20316SOL    HW167553  11.980   4.163   8.369  0.3479  0.3016  0.0112
20316SOL    HW267554  12.020   4.309   8.374 -0.9896  0.6579  0.7805
20317SOL     OW67555   4.304  12.371   8.454 -0.0186  0.1254  0.0428
20317SOL    HW167556   4.303  12.463   8.426 -0.7476  0.0803 -0.1012
20317SOL    HW267557   4.381  12.334   8.411 -0.0508  0.5270 -0.3711
20318SOL     OW67558  10.099   8.145   1.634 -0.0203  0.0328  0.0114
20318SOL    HW167559  10.111   8.159   1.540  1.5898  0.5343  0.2539
20318SOL    HW267560  10.031   8.078   1.640 -2.4975  2.1974 -1.4068
20319SOL     OW67561   3.566   5.935   3.982  0.0177 -0.0839  0.5638
20319SOL    HW167562   3.636   5.962   4.042  1.5829 -1.8232 -0.3798
20319SOL    HW267563   3.515   5.872   4.033  0.8793 -0.9652  0.3757
20320SOL     OW67564   5.153   8.882   6.719 -0.1501 -0.1086 -0.0348
20320SOL    HW167565   5.175   8.965   6.675 -0.5461  0.8170  1.4530
20320SOL    HW267566   5.196   8.888   6.804 -1.5077 -0.7269  0.7107
20321SOL     OW67567   3.283   8.587   8.007 -0.4541 -0.0776  0.5291
20321SOL    HW167568   3.284   8.589   8.103  0.2632 -1.5663  0.5820
20321SOL    HW267569   3.204   8.538   7.985  0.7095 -2.0130  0.4693
20322SOL     OW67570   7.119   8.954   1.370 -0.2686 -0.3299 -0.1044
20322SOL    HW167571   7.149   9.039   1.336  1.0826 -0.7045  0.0988
20322SOL    HW267572   7.171   8.889   1.323  0.7150 -0.9144  1.6930
20323SOL     OW67573   0.838  11.135   8.661  0.4711  0.4097  0.0540
20323SOL    HW167574   0.831  11.063   8.725  1.4843  0.4341  0.2111
20323SOL    HW267575   0.842  11.214   8.715  1.6936  0.4072  0.0065
20324SOL     OW67576   0.549   2.301   5.987  0.0597  0.3378  0.1299
20324SOL    HW167577   0.462   2.271   6.016 -1.0131 -0.1688 -3.2058
20324SOL    HW267578   0.603   2.221   5.986 -0.0846  0.2396  0.1393
20325SOL     OW67579  11.456  10.718  12.746 -0.0801  0.2100 -0.0640
20325SOL    HW167580  11.406  10.639  12.726  1.0290 -0.2877 -0.9915
20325SOL    HW267581  11.477  10.710  12.839  0.6946 -1.0020 -0.3251
20326SOL     OW67582   5.590   2.617   7.244  0.2369 -0.0874  0.0393
20326SOL    HW167583   5.666   2.616   7.302  1.3284 -0.1101 -1.3205
20326SOL    HW267584   5.516   2.594   7.300  1.1650  0.3144  1.4856
20327SOL     OW67585   7.634  11.361  12.408 -0.2748  0.4681  0.0363
20327SOL    HW167586   7.650  11.296  12.339 -0.6064  0.7103 -0.2753
20327SOL    HW267587   7.572  11.423  12.369  0.6278  1.4043  0.0624
20328SOL     OW67588   0.253  12.174   7.276 -0.3768  0.0261  0.0457
20328SOL    HW167589   0.273  12.161   7.184 -2.9519  2.0591 -0.9328
20328SOL    HW267590   0.159  12.157   7.283 -0.5368  1.3708  1.9603
20329SOL     OW67591   9.620   0.781  10.890 -0.4025  0.3449 -0.1069
20329SOL    HW167592   9.629   0.850  10.825 -1.4102  0.5746 -0.0230
20329SOL    HW267593   9.566   0.714  10.846 -2.3980  1.1653  0.9428
20330SOL     OW67594   4.243   7.764   4.383  0.2291 -0.1637 -0.0852
20330SOL    HW167595   4.210   7.816   4.310 -0.4146  1.1950  1.1196
20330SOL    HW267596   4.171   7.705   4.405  0.1697 -0.0973 -0.1031
20331SOL     OW67597   5.621   8.659   0.113 -0.1781 -0.1477 -0.5846
20331SOL    HW167598   5.685   8.606   0.065  0.8701  0.9500 -0.4676
20331SOL    HW267599   5.579   8.712   0.046 -1.3583 -1.2107 -0.7259
20332SOL     OW67600   3.133   3.169   4.831 -0.4263 -0.8455  0.7326
20332SOL    HW167601   3.163   3.251   4.872 -1.0502  0.8621 -1.9227
20332SOL    HW267602   3.089   3.121   4.901  1.5932  0.1873  2.8437
20333SOL     OW67603   6.422   6.658  10.400 -0.2149  0.7478  0.1558
20333SOL    HW167604   6.338   6.628  10.434 -0.5706  1.8173  0.2553
20333SOL    HW267605   6.408   6.670  10.306  0.0266  0.2825  0.0559
20334SOL     OW67606   7.429   6.888   1.955  0.0519  0.4532  0.1940
20334SOL    HW167607   7.365   6.831   1.997 -0.2979 -0.0226 -0.9369
20334SOL    HW267608   7.504   6.830   1.938 -0.4048  0.2335 -1.1936
20335SOL     OW67609   6.655  10.303   6.297  0.1183  0.4259  0.4814
20335SOL    HW167610   6.589  10.372   6.303  0.4408  0.6970  0.8903
20335SOL    HW267611   6.697  10.317   6.212  0.8123  1.2986  0.9584
20336SOL     OW67612   3.235   1.490   9.500 -0.4277 -0.5972  0.3002
20336SOL    HW167613   3.235   1.540   9.418  0.8760  1.7261  1.5995
20336SOL    HW267614   3.143   1.483   9.524 -0.6924  1.7006  0.2630
20337SOL     OW67615   5.259   2.477   6.119 -0.8244 -0.4623  0.3781
20337SOL    HW167616   5.248   2.463   6.025 -0.8665  1.4463  0.0570
20337SOL    HW267617   5.232   2.568   6.133  0.1027 -0.4022  2.0694
20338SOL     OW67618   8.664   7.278  12.620  0.0298  0.2158 -0.2128
20338SOL    HW167619   8.704   7.354  12.578 -1.6982 -0.5332 -3.5810
20338SOL    HW267620   8.571   7.300  12.626 -0.2231 -0.9492  0.4549
20339SOL     OW67621  10.215   3.150  11.418  0.5410 -0.8298  0.3251
20339SOL    HW167622  10.236   3.143  11.511  1.4757 -3.0832  0.0254
20339SOL    HW267623  10.133   3.198  11.414 -0.6655 -2.5401  2.4949
20340SOL     OW67624   3.327   7.092  12.074 -0.1592  0.0685  0.1511
20340SOL    HW167625   3.327   7.182  12.108  0.9243 -0.0409  0.4703
20340SOL    HW267626   3.418   7.075  12.052 -0.5152 -0.6265 -0.8123
20341SOL     OW67627   0.625   2.309   9.413  0.3932  0.4759  0.1464
20341SOL    HW167628   0.542   2.263   9.424 -0.2658  1.2243 -1.3552
20341SOL    HW267629   0.630   2.369   9.487 -0.1252  0.0118  0.5606
20342SOL     OW67630   8.118   5.552   4.300 -0.1936  0.5956 -0.3057
20342SOL    HW167631   8.201   5.596   4.284 -1.0624  2.0756 -0.9319
20342SOL    HW267632   8.053   5.605   4.255 -1.4456 -0.7681 -0.2059
20343SOL     OW67633  10.873  12.535   4.975  0.5181  0.3456  0.6649
20343SOL    HW167634  10.916  12.450   4.968  1.2833  0.6867  1.0512
20343SOL    HW267635  10.903  12.571   5.059 -2.8270 -0.6150  2.4215
20344SOL     OW67636   6.569   6.554   0.429 -0.3804  0.4289 -0.1097
20344SOL    HW167637   6.477   6.543   0.453 -0.0803 -0.3223  0.7445
20344SOL    HW267638   6.568   6.626   0.366 -1.7102 -0.4368 -1.1515
20345SOL     OW67639   1.910  11.450   8.800  0.4903 -0.6005 -0.1494
20345SOL    HW167640   1.928  11.450   8.705 -0.7774 -1.6699 -0.4274
20345SOL    HW267641   1.847  11.520   8.813 -1.0164 -1.8331 -0.5012
20346SOL     OW67642  11.671   4.703  10.285  0.2708 -0.2761 -0.3787
20346SOL    HW167643  11.762   4.674  10.284  0.2291 -0.3974 -0.6837
20346SOL    HW267644  11.634   4.663  10.364  0.9628  1.2800  0.7710
20347SOL     OW67645   3.571   2.246  12.757 -0.5875 -0.1321  0.6766
20347SOL    HW167646   3.485   2.224  12.721  0.1992 -2.0186 -0.1725
20347SOL    HW267647   3.609   2.162  12.782  2.1293  0.2510 -1.6193
20348SOL     OW67648   1.071   5.389   7.083 -0.4719 -0.1272  0.3765
20348SOL    HW167649   1.116   5.305   7.077  1.3374  0.8890 -1.0910
20348SOL    HW267650   1.140   5.454   7.082 -1.7542  1.4241  2.5858
20349SOL     OW67651   2.351   6.121  10.484  0.5298  0.1001  0.2501
20349SOL    HW167652   2.378   6.179  10.414  0.7453  1.1501  1.1797
20349SOL    HW267653   2.307   6.178  10.547 -3.1841 -1.3430 -0.7763
20350SOL     OW67654   2.646   1.204   5.568  0.0811 -0.2386 -0.4385
20350SOL    HW167655   2.562   1.250   5.572 -0.0885 -0.5951  2.1041
20350SOL    HW267656   2.711   1.274   5.557 -0.3198  0.4535  1.2976
20351SOL     OW67657   8.531  10.563   4.818 -0.5035 -0.1824  0.3491
20351SOL    HW167658   8.622  10.594   4.818 -0.1130 -1.1709 -1.6585
20351SOL    HW267659   8.513  10.543   4.910  1.5093 -0.5099  0.7250
20352SOL     OW67660   8.144  11.043   1.294  0.1693  0.6280 -0.2426
20352SOL    HW167661   8.063  11.088   1.268 -0.2824 -0.8695 -1.5631
20352SOL    HW267662   8.168  10.991   1.218  0.8793 -1.0708  1.0710
20353SOL     OW67663   4.460   5.439  11.567 -0.1583 -0.5650  0.3066
20353SOL    HW167664   4.461   5.482  11.652  1.5515  0.8455 -0.3818
20353SOL    HW267665   4.505   5.355  11.582  0.6987 -0.0504  0.6757
20354SOL     OW67666   4.967   2.738   0.326 -0.6820 -0.2651 -0.0274
20354SOL    HW167667   4.982   2.828   0.353 -1.4526 -0.2325  0.3166
20354SOL    HW267668   4.888   2.711   0.374  1.1107 -2.0816  2.1273
20355SOL     OW67669   8.773   4.808  10.934  0.1596  0.2675 -0.9041
20355SOL    HW167670   8.791   4.824  10.842  1.1244  0.8353 -0.6265
20355SOL    HW267671   8.849   4.842  10.980  0.7904 -2.0908 -0.0270
20356SOL     OW67672   4.019   0.571   1.871  0.0448  0.3646 -0.1284
20356SOL    HW167673   4.098   0.597   1.823 -0.0161  1.2343  0.2215
20356SOL    HW267674   3.951   0.568   1.804  0.0706  1.0590 -0.1937
20357SOL     OW67675  12.344   7.109   0.565 -0.8834 -0.5483  0.0552
20357SOL    HW167676  12.314   7.110   0.656  0.0186  0.2752  0.3635
20357SOL    HW267677  12.402   7.034   0.559  0.4869  0.4135  0.6764
20358SOL     OW67678   3.479  11.878   5.102 -0.2323 -0.0505  0.2856
20358SOL    HW167679   3.480  11.925   5.019  1.1992 -0.1895  0.1980
20358SOL    HW267680   3.417  11.807   5.089 -1.8521  1.3248  0.1657
20359SOL     OW67681   0.182   8.700   6.158 -0.2974  0.2032  0.2030
20359SOL    HW167682   0.156   8.783   6.197 -0.3933  0.7905 -1.0703
20359SOL    HW267683   0.128   8.692   6.079  1.0576 -0.1177 -0.7279
20360SOL     OW67684   2.958   6.262   0.019  0.4133  0.4399 -0.7389
20360SOL    HW167685   2.940   6.292   0.108  0.5641 -0.9033 -0.2246
20360SOL    HW267686   3.043   6.218   0.026  1.1642  1.6565 -1.8906
20361SOL     OW67687   7.558   2.923  12.482  0.6334 -0.0069 -0.2087
20361SOL    HW167688   7.554   3.013  12.513 -0.4494  0.1179 -0.6443
20361SOL    HW267689   7.517   2.926  12.395 -1.8271 -1.3106  0.7803
20362SOL     OW67690   6.766   5.852   8.564  0.0997 -0.0736  0.0544
20362SOL    HW167691   6.742   5.762   8.583 -0.0656  0.1477  0.9284
20362SOL    HW267692   6.738   5.866   8.474 -2.0633 -0.1675  0.6639
20363SOL     OW67693  11.438   7.733   2.919  0.3979  0.0338 -0.2149
20363SOL    HW167694  11.365   7.780   2.879 -2.1645 -1.9455  1.7482
20363SOL    HW267695  11.450   7.774   3.004 -0.1359 -1.1618  0.4638
20364SOL     OW67696   3.364   4.742   8.255 -0.3359 -0.5064  0.0040
20364SOL    HW167697   3.357   4.752   8.160 -1.1369 -0.5232  0.0496
20364SOL    HW267698   3.457   4.734   8.272 -0.0196  1.3244 -0.5937
20365SOL     OW67699  11.781   3.920   6.601 -0.4950  0.2267  0.1910
20365SOL    HW167700  11.789   3.997   6.658 -1.4891  0.2993  0.2486
20365SOL    HW267701  11.744   3.852   6.657 -0.8660  0.1020 -0.2009
20366SOL     OW67702   1.294  12.712   8.723  0.3065 -0.0593 -0.0172
20366SOL    HW167703   1.363  12.646   8.727  0.6769  0.2062 -1.3733
20366SOL    HW267704   1.335  12.791   8.758  0.5713 -0.0158 -0.4077
20367SOL     OW67705   4.976  11.269   5.729 -0.2041  0.4635 -0.3264
20367SOL    HW167706   5.044  11.304   5.671  0.3353 -0.9120 -0.5587
20367SOL    HW267707   4.902  11.252   5.671  0.2280 -0.6212 -0.5815
20368SOL     OW67708   2.663   9.477  12.227  0.7116  0.5539  0.0384
20368SOL    HW167709   2.711   9.496  12.147 -0.6430 -1.6192 -1.3855
20368SOL    HW267710   2.728   9.436  12.285  1.0112 -0.6892 -1.1474
20369SOL     OW67711   1.652   3.139   2.905  0.0829 -0.3514 -0.0539
20369SOL    HW167712   1.698   3.213   2.867  0.0566  0.6021  1.6599
20369SOL    HW267713   1.645   3.075   2.834  0.6181  1.0444 -1.4047
20370SOL     OW67714   1.859   5.797  10.694 -0.4961  0.7115 -0.7443
20370SOL    HW167715   1.785   5.736  10.690 -0.2753  0.4902 -1.9587
20370SOL    HW267716   1.819   5.883  10.710 -1.0731  0.6742 -1.8961
20371SOL     OW67717   7.106   7.124   9.549 -0.5797  0.0400  0.2015
20371SOL    HW167718   7.071   7.212   9.564  0.1993  0.3821  0.0644
20371SOL    HW267719   7.138   7.096   9.634  0.4640  0.4740 -0.0372
20372SOL     OW67720   5.013   1.776   9.596  0.1683  0.1048 -0.0014
20372SOL    HW167721   4.976   1.860   9.569  1.6713  1.0183  0.6795
20372SOL    HW267722   5.037   1.732   9.514  1.3962  1.3063 -0.3120
20373SOL     OW67723  11.797   5.403   1.953 -0.5063  0.4565  0.9921
20373SOL    HW167724  11.717   5.352   1.963  0.0021 -0.8393 -1.0487
20373SOL    HW267725  11.865   5.338   1.934  0.9054  1.5976  1.8633
20374SOL     OW67726   9.549   8.084  10.447 -0.1255  0.0149 -0.1927
20374SOL    HW167727   9.568   8.177  10.456 -1.2984  0.1719  1.1080
20374SOL    HW267728   9.610   8.041  10.507 -0.3812  0.0605  0.1030
20375SOL     OW67729   6.069   2.587   9.787 -0.3876 -0.1810  0.4327
20375SOL    HW167730   6.121   2.607   9.865  0.1235  0.3696 -0.0376
20375SOL    HW267731   6.033   2.500   9.803  0.7040 -0.5848  0.7680
20376SOL     OW67732  10.741   2.286   6.836  0.4907  0.4192 -0.0136
20376SOL    HW167733  10.732   2.212   6.896  0.1329 -0.9687 -1.7092
20376SOL    HW267734  10.836   2.298   6.827  0.5752 -0.4554 -0.4225
20377SOL     OW67735   2.057   7.828  11.726  0.1121  0.1303  0.2302
20377SOL    HW167736   2.067   7.820  11.821  1.4591  0.1092  0.1145
20377SOL    HW267737   2.134   7.878  11.699 -0.6389  0.7585 -0.7690
20378SOL     OW67738   5.649   1.482   3.873  0.1788  0.8875 -0.5733
20378SOL    HW167739   5.607   1.418   3.930  1.4818  0.6850  0.1885
20378SOL    HW267740   5.734   1.499   3.913  0.2738  2.3443 -1.3137
20379SOL     OW67741   1.454  12.635   1.537  0.4930  0.5729  0.1489
20379SOL    HW167742   1.362  12.642   1.509  0.7352  0.5769 -0.6800
20379SOL    HW267743   1.452  12.657   1.630 -0.3329  0.6938  0.1150
20380SOL     OW67744   8.321   1.696   5.182 -0.1629 -0.3706  0.2365
20380SOL    HW167745   8.386   1.758   5.216 -0.1069  0.3285 -1.0618
20380SOL    HW267746   8.247   1.703   5.242  0.4830 -0.2572  1.0300
20381SOL     OW67747   7.238   0.107   8.428  0.0389 -0.4326  0.3871
20381SOL    HW167748   7.246   0.033   8.369 -1.2141 -0.6191  0.4164
20381SOL    HW267749   7.297   0.087   8.501  3.1375  0.7024 -1.5978
20382SOL     OW67750   9.723  11.763   7.618 -0.2153 -0.1245 -0.1929
20382SOL    HW167751   9.752  11.725   7.700  0.5510  1.0599  0.1107
20382SOL    HW267752   9.776  11.720   7.551 -1.2177 -1.4818 -0.1531
20383SOL     OW67753   9.677  12.592   5.210  0.2600 -0.1344  0.1227
20383SOL    HW167754   9.689  12.685   5.189  0.7611 -0.0546  0.7614
20383SOL    HW267755   9.655  12.591   5.303 -1.8949 -0.4978 -0.3323
20384SOL     OW67756   7.475  11.138  10.587 -0.0816  1.0916 -0.0951
20384SOL    HW167757   7.565  11.133  10.556  0.6225  0.5151  1.8663
20384SOL    HW267758   7.442  11.049  10.581  1.2148  0.1459  3.6950
20385SOL     OW67759   0.399   9.465  11.398 -0.0927  0.2535  0.4347
20385SOL    HW167760   0.491   9.466  11.425  0.2967  1.0942 -0.8673
20385SOL    HW267761   0.390   9.539  11.338 -0.9435 -1.4503 -1.6681
20386SOL     OW67762   8.067   8.850  12.757  0.1186 -0.3132  1.0274
20386SOL    HW167763   8.152   8.825  12.721  0.0764 -0.8666  1.3013
20386SOL    HW267764   8.029   8.768  12.789 -0.6946 -0.1409  0.5466
20387SOL     OW67765   1.105  12.054   5.345  0.2867 -0.0272 -0.2516
20387SOL    HW167766   1.010  12.065   5.335  0.2684  0.9171  0.7774
20387SOL    HW267767   1.114  11.970   5.389 -0.2069  0.7958  1.4894
20388SOL     OW67768   2.927   9.384  12.383  0.2887  0.6852 -0.0672
20388SOL    HW167769   2.909   9.298  12.421 -3.2989  0.0959 -2.5249
20388SOL    HW267770   2.965   9.365  12.297 -0.1759  1.5340 -0.4740
20389SOL     OW67771   7.557   8.814   1.334  0.3015  0.1318 -0.5020
20389SOL    HW167772   7.572   8.909   1.331 -0.3986  0.2713  0.0189
20389SOL    HW267773   7.598   8.781   1.255  0.6321  0.8642 -0.6486
20390SOL     OW67774   3.142   2.140   8.571  0.1888  0.4810 -0.2549
20390SOL    HW167775   3.226   2.161   8.530 -0.0652  1.5303 -0.2805
20390SOL    HW267776   3.129   2.211   8.635 -0.6247  0.2672 -0.1729
20391SOL     OW67777  10.989   6.062   2.989 -0.4498 -0.4902 -0.3131
20391SOL    HW167778  10.943   6.105   2.916 -1.5498 -0.7362  0.2165
20391SOL    HW267779  10.984   5.968   2.968 -1.0893 -0.5863  0.2535
20392SOL     OW67780   2.343   0.320  11.832 -0.2165  0.1921 -0.0872
20392SOL    HW167781   2.365   0.380  11.903  0.2533  1.4580 -1.2727
20392SOL    HW267782   2.415   0.256  11.831  1.0059  1.5140 -0.8614
20393SOL     OW67783   9.736   6.172  12.614  0.4093 -0.0995 -0.3435
20393SOL    HW167784   9.765   6.166  12.522 -0.1453 -0.1728 -0.5156
20393SOL    HW267785   9.815   6.196  12.662  0.8227 -0.5560 -0.7736
20394SOL     OW67786   6.648   5.381  12.542  0.5979  0.2083 -0.3565
20394SOL    HW167787   6.629   5.439  12.616 -0.4242  0.6632 -0.9571
20394SOL    HW267788   6.676   5.299  12.583  0.5256  0.6097  0.5304
20395SOL     OW67789   4.716   7.773   2.237  0.4268  0.1528 -0.7292
20395SOL    HW167790   4.678   7.835   2.174 -1.3250  0.3083  0.4124
20395SOL    HW267791   4.738   7.827   2.313  3.3762  0.1284 -1.4629
20396SOL     OW67792   8.530   7.949   4.438 -0.3968 -0.0467  0.5459
20396SOL    HW167793   8.588   7.880   4.469 -0.5305 -0.2086  0.4423
20396SOL    HW267794   8.445   7.906   4.428  0.1175 -0.6377 -2.2981
20397SOL     OW67795   2.038   7.457   8.186  0.1607  0.3920  0.6825
20397SOL    HW167796   2.114   7.493   8.141  1.5248 -1.5024  1.3605
20397SOL    HW267797   2.006   7.387   8.129 -0.5700  0.6192  0.8020
20398SOL     OW67798   4.883  10.590  11.639  0.3685  0.2137  0.5698
20398SOL    HW167799   4.828  10.608  11.716  2.3232  3.1617  1.4756
20398SOL    HW267800   4.876  10.669  11.586  0.2250 -1.1877 -1.5996
20399SOL     OW67801  11.538   8.796   8.788 -0.1259 -0.0752 -0.0686
20399SOL    HW167802  11.575   8.872   8.743  0.5000 -0.4203 -0.1411
20399SOL    HW267803  11.612   8.738   8.803 -0.5024 -0.4194  0.5048
20400SOL     OW67804   9.806  12.472  10.364  0.5420 -0.1064 -0.0048
20400SOL    HW167805   9.764  12.540  10.312 -1.9773 -0.9625  0.7835
20400SOL    HW267806   9.763  12.391  10.337  1.7705 -1.0725  0.8019
20401SOL     OW67807   9.909  12.435   9.305 -0.7697 -0.0796  0.2453
20401SOL    HW167808   9.981  12.392   9.258 -0.2426 -1.5797  2.2812
20401SOL    HW267809   9.951  12.485   9.374 -1.5203  2.3720 -0.9392
20402SOL     OW67810   7.789   1.441   8.258  0.3767 -0.4031  0.0050
20402SOL    HW167811   7.753   1.453   8.170  0.3042 -1.0043 -0.0517
20402SOL    HW267812   7.842   1.520   8.273  0.0569 -0.1012 -0.4093
20403SOL     OW67813  10.290  10.525   0.968  0.0290  0.1816  0.6797
20403SOL    HW167814  10.354  10.594   0.982  0.6938 -0.1992 -0.3740
20403SOL    HW267815  10.325  10.473   0.896 -1.1123 -0.4668  0.5541
20404SOL     OW67816  10.242   5.371  12.640  0.4240 -0.6089  0.2411
20404SOL    HW167817  10.149   5.355  12.658  0.1247 -0.4012 -1.0408
20404SOL    HW267818  10.279   5.392  12.726 -0.4353 -1.9787  0.9963
20405SOL     OW67819   1.497  11.169   7.376 -0.0295 -0.1896  0.1663
20405SOL    HW167820   1.447  11.147   7.297 -0.0981 -0.6555  0.3314
20405SOL    HW267821   1.532  11.085   7.406  1.2850  0.2028 -0.2261
20406SOL     OW67822   1.194   0.702   5.791  0.2595 -0.1104 -0.1742
20406SOL    HW167823   1.202   0.672   5.700 -1.3890  0.1510 -0.4359
20406SOL    HW267824   1.277   0.747   5.808  0.5364 -0.0147 -1.5966
20407SOL     OW67825   0.832   3.802   0.200  0.0679 -0.4013  0.4080
20407SOL    HW167826   0.849   3.708   0.200 -1.2464 -0.6699 -0.5459
20407SOL    HW267827   0.737   3.809   0.208 -0.0759  0.7539 -1.5648
20408SOL     OW67828   1.525   9.681  12.007 -0.1460 -0.5147  0.2586
20408SOL    HW167829   1.488   9.743  12.069  0.5582 -0.2259  0.3986
20408SOL    HW267830   1.454   9.662  11.946 -0.5009  0.0821  0.4845
20409SOL     OW67831   8.192  12.076   6.600 -0.1529  0.3514  0.3657
20409SOL    HW167832   8.218  11.987   6.579 -0.5130  0.0245  1.2328
20409SOL    HW267833   8.177  12.118   6.515  0.5839 -0.2330 -0.0616
20410SOL     OW67834   4.655   8.281   1.321  0.0327 -0.1004 -0.1317
20410SOL    HW167835   4.588   8.234   1.271 -0.8046 -1.3709  2.0793
20410SOL    HW267836   4.708   8.213   1.361  0.7990  0.8862  0.5894
20411SOL     OW67837   5.025   4.508   4.467  0.0035  0.4863  0.1879
20411SOL    HW167838   5.081   4.432   4.455  1.8382  1.5876  1.3289
20411SOL    HW267839   5.047   4.566   4.395  1.4787  1.5491  1.4437
20412SOL     OW67840  11.548   7.816   9.118 -0.7527 -0.4318 -0.3472
20412SOL    HW167841  11.507   7.871   9.186 -2.1293  1.0566 -2.2639
20412SOL    HW267842  11.529   7.862   9.036  1.3863 -1.8328 -1.7174
20413SOL     OW67843  12.733   6.043   4.547  0.3987 -0.1256  0.3833
20413SOL    HW167844  12.775   5.973   4.597  0.4337 -0.0757  0.4233
20413SOL    HW267845  12.692   6.099   4.613  1.0571  0.3429  0.4006
20414SOL     OW67846   8.438  10.525   5.121  0.3584  0.1915  0.1586
20414SOL    HW167847   8.389  10.607   5.127 -2.9999 -1.3131 -2.7864
20414SOL    HW267848   8.418  10.479   5.203 -1.2486  0.6303  0.0358
20415SOL     OW67849   0.531   4.605   7.232 -0.1724 -0.2552 -0.0321
20415SOL    HW167850   0.503   4.684   7.186  1.0713 -0.1344 -0.6185
20415SOL    HW267851   0.592   4.637   7.299 -1.9615 -0.4253  1.7753
20416SOL     OW67852   9.118   7.688   8.626  0.7179  0.4578 -0.5047
20416SOL    HW167853   9.104   7.647   8.711 -0.0899  0.5494 -0.5909
20416SOL    HW267854   9.213   7.702   8.622  0.7530  0.5442  0.4155
20417SOL     OW67855   3.530  10.917   9.074 -0.4480  0.3679 -0.3829
20417SOL    HW167856   3.598  10.947   9.134 -0.1594  0.8338 -0.9365
20417SOL    HW267857   3.550  10.825   9.059 -0.9459  0.0378  0.7970
20418SOL     OW67858   3.517   4.974   3.980  0.0633 -0.6302  0.3906
20418SOL    HW167859   3.471   4.982   4.063  0.8311 -0.5839  0.8268
20418SOL    HW267860   3.600   5.019   3.995  0.2645 -0.7390 -0.3609
20419SOL     OW67861  12.064   7.901   6.126  0.1356 -0.7259 -0.1107
20419SOL    HW167862  12.146   7.872   6.164  0.6090 -0.9325 -1.2458
20419SOL    HW267863  12.039   7.977   6.179  0.9203 -0.8192  0.4132
20420SOL     OW67864   9.120   0.285   9.404 -0.1376  0.6779 -0.2910
20420SOL    HW167865   9.137   0.360   9.462 -0.5203 -0.0639  0.8210
20420SOL    HW267866   9.169   0.213   9.444 -0.7225  0.0583 -0.6695
20421SOL     OW67867   7.495   9.717   4.959  0.6330 -0.1155 -0.1195
20421SOL    HW167868   7.420   9.687   5.010 -0.7737  1.4814 -1.1718
20421SOL    HW267869   7.571   9.694   5.013 -0.7522  1.2592  2.5907
20422SOL     OW67870   7.696   5.995   2.985  0.0662 -0.1129 -0.7950
20422SOL    HW167871   7.683   6.074   2.932  2.8963  0.0807 -1.3597
20422SOL    HW267872   7.749   6.024   3.059  1.5497 -1.5052 -1.2472
20423SOL     OW67873   9.322   9.792   0.325 -0.0866 -0.2159 -0.2749
20423SOL    HW167874   9.307   9.763   0.415  1.9777  4.1811  1.7995
20423SOL    HW267875   9.415   9.774   0.309 -0.3053 -0.4464 -1.3300
20424SOL     OW67876   3.277   3.407  10.561  0.6432 -0.6468  0.2011
20424SOL    HW167877   3.197   3.424  10.511 -0.2949 -1.3332  1.3988
20424SOL    HW267878   3.347   3.407  10.496 -0.2011  0.8063 -0.7815
20425SOL     OW67879   7.518   9.046   7.648 -0.5955  0.0617  0.9531
20425SOL    HW167880   7.509   9.083   7.736  0.7315 -0.9966  1.5717
20425SOL    HW267881   7.570   9.110   7.600 -0.2438  0.0693  1.3352
20426SOL     OW67882  11.138   5.123   0.730  0.2276 -0.0481  0.5367
20426SOL    HW167883  11.046   5.112   0.709  0.2650 -1.4961  1.0103
20426SOL    HW267884  11.143   5.209   0.773 -1.0512 -0.3446  1.3196
20427SOL     OW67885   6.600   4.884   1.581  0.6947 -0.6881  0.1918
20427SOL    HW167886   6.613   4.903   1.674  2.0948 -0.8778  0.0480
20427SOL    HW267887   6.642   4.799   1.568 -1.1416 -1.5773 -0.2368
20428SOL     OW67888   5.073  10.182  10.591  0.3672 -0.7344  0.2782
20428SOL    HW167889   5.031  10.140  10.666  1.7172 -0.9115  0.9788
20428SOL    HW267890   5.158  10.138  10.583  0.7834  0.1635 -0.5348
20429SOL     OW67891   5.497  10.738   6.270 -0.0827  0.1241  0.6035
20429SOL    HW167892   5.525  10.743   6.178  0.5231  0.3216  0.7876
20429SOL    HW267893   5.507  10.646   6.293  0.9362  0.2733  0.8104
20430SOL     OW67894  10.443   8.441  12.196  0.2091  0.2216  0.0199
20430SOL    HW167895  10.392   8.501  12.142 -1.0591 -1.0488 -0.2443
20430SOL    HW267896  10.470   8.371  12.137 -1.0728 -1.1102  0.9391
20431SOL     OW67897   4.625   6.794  11.970 -0.4761  0.0368 -0.4335
20431SOL    HW167898   4.649   6.750  11.888  1.7010 -1.4338  0.8756
20431SOL    HW267899   4.635   6.887  11.951  1.6185 -0.3296 -1.4298
20432SOL     OW67900   3.334   0.661   7.904  0.4169  0.0952 -0.0752
20432SOL    HW167901   3.293   0.594   7.960 -0.1471  0.0282 -0.5665
20432SOL    HW267902   3.410   0.691   7.955 -0.3914  0.4247  0.9718
20433SOL     OW67903   0.446   3.290   7.620 -0.1848 -0.7027 -0.3464
20433SOL    HW167904   0.484   3.206   7.645  1.2338 -0.0323 -0.1677
20433SOL    HW267905   0.415   3.277   7.530  0.1908 -1.3564 -0.3839
20434SOL     OW67906   2.533   2.698   7.169  0.9210  0.2874  0.0574
20434SOL    HW167907   2.575   2.626   7.215 -0.6623 -0.2435  0.7249
20434SOL    HW267908   2.586   2.775   7.192  2.0336 -0.4741  0.1418
20435SOL     OW67909   8.841   5.848  11.703  0.1796 -0.6436 -0.0743
20435SOL    HW167910   8.863   5.755  11.693  2.6725 -0.1450  0.0744
20435SOL    HW267911   8.823   5.859  11.796 -0.4460 -1.0421 -0.1482
20436SOL     OW67912   8.354  11.862   8.292  0.1284  0.0375 -0.1577
20436SOL    HW167913   8.437  11.860   8.340 -0.6616  1.3545  1.3779
20436SOL    HW267914   8.355  11.781   8.240  1.4344 -1.0745  1.4545
20437SOL     OW67915   6.143  10.187   3.893 -0.2051  0.2859  0.0702
20437SOL    HW167916   6.176  10.252   3.831  1.4804  0.0878  0.7028
20437SOL    HW267917   6.159  10.103   3.849 -0.3927  0.2106  0.1473
20438SOL     OW67918  11.341   9.891   5.008  0.0997 -0.5460  0.4748
20438SOL    HW167919  11.261   9.884   4.956 -1.5310  0.1169  2.7311
20438SOL    HW267920  11.359   9.985   5.013  0.7314 -0.6589  0.4174
20439SOL     OW67921   6.646   8.075   6.731 -0.5659  0.3931 -0.3562
20439SOL    HW167922   6.564   8.060   6.778 -0.7136  0.3379 -0.6265
20439SOL    HW267923   6.620   8.080   6.639 -0.5530  2.4924 -0.2792
20440SOL     OW67924  11.153   1.826   2.845 -0.1393 -0.3274 -0.2974
20440SOL    HW167925  11.137   1.914   2.877 -0.6319 -0.7618  0.7103
20440SOL    HW267926  11.249   1.819   2.841 -0.0935  0.1572 -0.0901
20441SOL     OW67927   2.588  12.111   0.701  0.5731  0.4490  0.1317
20441SOL    HW167928   2.505  12.154   0.682  1.3632  1.7719 -0.5742
20441SOL    HW267929   2.651  12.155   0.643  1.6689 -0.8718  0.2568
20442SOL     OW67930   8.170   1.961   3.828 -0.7651 -0.0915 -0.4448
20442SOL    HW167931   8.144   1.942   3.738  0.1013  0.8351 -0.8982
20442SOL    HW267932   8.104   1.916   3.881 -2.1138  0.5083 -1.5395
20443SOL     OW67933   6.752   6.718   3.587 -0.2535  0.0806  0.2697
20443SOL    HW167934   6.723   6.808   3.573  1.0318  0.4073 -0.4617
20443SOL    HW267935   6.684   6.679   3.642 -0.7524  1.5398  0.7348
20444SOL     OW67936   5.102   8.922  12.160  0.2683 -0.2379 -0.5440
20444SOL    HW167937   5.133   8.881  12.080  0.6630  1.8536 -1.5113
20444SOL    HW267938   5.181   8.936  12.212  0.0174 -1.5598  0.2604
20445SOL     OW67939   8.032   4.197   8.487  0.2843  0.4106  0.2402
20445SOL    HW167940   8.125   4.190   8.512  0.1728 -0.2092  0.4994
20445SOL    HW267941   7.986   4.210   8.569 -0.1205 -1.9847  0.4830
20446SOL     OW67942   5.351   0.063   8.489  0.1331  0.0937  0.5358
20446SOL    HW167943   5.394  -0.023   8.488 -0.3904 -0.1667  0.0854
20446SOL    HW267944   5.339   0.083   8.582  2.1514  0.6482  0.7439
20447SOL     OW67945   6.989  10.500   3.284  0.3062 -0.2019  0.0077
20447SOL    HW167946   6.953  10.411   3.281 -1.3703  0.4423  0.1232
20447SOL    HW267947   6.969  10.536   3.197 -1.7517  1.0306  0.9111
20448SOL     OW67948   8.346   0.349   7.683 -0.0044  0.1307  0.4359
20448SOL    HW167949   8.297   0.266   7.691  0.9158 -0.2748  2.4891
20448SOL    HW267950   8.280   0.417   7.697 -0.4650 -0.2967  0.3892
20449SOL     OW67951   4.158   9.037   9.701 -0.0955  0.1744  0.6891
20449SOL    HW167952   4.158   9.020   9.795  0.3018 -2.1245  0.3476
20449SOL    HW267953   4.236   9.091   9.687 -0.0186  0.3367  1.6385
20450SOL     OW67954   1.325   5.938   2.655  0.4372  0.8425  0.7871
20450SOL    HW167955   1.257   5.923   2.589  0.9735 -1.9056  0.7308
20450SOL    HW267956   1.379   6.008   2.619  0.5262 -0.3588 -1.5851
20451SOL     OW67957   9.074   9.142   5.213  0.2891 -0.0736  0.2261
20451SOL    HW167958   9.032   9.060   5.237  1.0813  0.0818  2.4039
20451SOL    HW267959   9.166   9.131   5.238  0.8988  0.7089 -1.5044
20452SOL     OW67960   7.978  12.390  10.768  0.6942  0.1405  0.5268
20452SOL    HW167961   7.941  12.476  10.749  0.8830  0.3633  1.1254
20452SOL    HW267962   8.071  12.399  10.750  0.4361 -0.5287 -1.3492
20453SOL     OW67963  10.615   5.202   3.109  0.6986  0.4208 -0.3200
20453SOL    HW167964  10.549   5.177   3.044 -0.7414  1.2107  0.7878
20453SOL    HW267965  10.680   5.251   3.058 -0.2569  0.7883 -1.2309
20454SOL     OW67966  11.327   2.924   0.112 -0.0008 -0.1871  0.2252
20454SOL    HW167967  11.237   2.906   0.136 -0.9418  0.6142 -2.3807
20454SOL    HW267968  11.351   3.000   0.165 -1.8604  1.3352 -0.9870
20455SOL     OW67969  11.274  11.973   6.491 -0.6843  0.4087  0.5006
20455SOL    HW167970  11.282  11.918   6.569 -2.7617 -0.5780  0.0941
20455SOL    HW267971  11.333  11.932   6.428 -1.0628 -0.4760  0.6975
20456SOL     OW67972   8.920   0.723   5.914 -0.0456 -0.1751  0.2884
20456SOL    HW167973   8.831   0.728   5.880  0.0688  1.4848  0.1300
20456SOL    HW267974   8.951   0.814   5.913  1.6269 -0.7096  0.4041
20457SOL     OW67975  11.428   2.172  11.325  0.6806 -0.3466 -0.2852
20457SOL    HW167976  11.427   2.077  11.330  1.2324 -0.3082  0.8685
20457SOL    HW267977  11.521   2.194  11.316  0.4977  0.0617 -1.3803
20458SOL     OW67978  10.876   0.989   9.614 -0.7688  0.1586 -0.0469
20458SOL    HW167979  10.785   1.016   9.604 -0.5220  0.5237 -1.5393
20458SOL    HW267980  10.872   0.908   9.665 -1.8291  0.7394  0.8261
20459SOL     OW67981   2.027   7.462  11.194  0.3278  0.1355 -0.0324
20459SOL    HW167982   2.107   7.499  11.231  0.1477 -1.0471  1.6671
20459SOL    HW267983   2.055   7.381  11.152  0.0161 -0.5210  0.9648
20460SOL     OW67984   4.654   9.372  10.499 -0.0366  0.2750  0.7076
20460SOL    HW167985   4.598   9.363  10.576 -1.3235 -1.8640 -0.3970
20460SOL    HW267986   4.622   9.452  10.456  0.0309  0.9245  1.8259
20461SOL     OW67987   0.461   0.142   9.598  0.7105 -0.5080 -0.6139
20461SOL    HW167988   0.548   0.140   9.559  0.5760 -1.5959 -0.9098
20461SOL    HW267989   0.410   0.199   9.541  1.1924  0.0214 -0.5193
20462SOL     OW67990   6.158   3.203   8.564 -0.4217 -0.0274 -0.1853
20462SOL    HW167991   6.216   3.254   8.508 -0.7383 -0.5756 -1.0288
20462SOL    HW267992   6.089   3.265   8.590 -0.4380  0.1528 -0.6505
20463SOL     OW67993   4.883   7.684   5.175  0.3448 -0.0437  0.4611
20463SOL    HW167994   4.816   7.628   5.214 -0.2300  0.4296  0.1557
20463SOL    HW267995   4.958   7.677   5.235 -0.0229 -0.4669  0.8733
20464SOL     OW67996   3.654   3.413   4.983  0.1357 -0.2583 -0.4474
20464SOL    HW167997   3.565   3.384   5.007  0.5742 -1.6428 -0.3820
20464SOL    HW267998   3.650   3.423   4.888 -0.5454  1.4064 -0.2735
20465SOL     OW67999   7.743   5.153   9.531  0.2802 -0.2865 -0.3120
20465SOL    HW168000   7.804   5.222   9.560  0.9112 -1.0527  0.2328
20465SOL    HW268001   7.716   5.110   9.612  0.5332 -1.1998 -0.6982
20466SOL     OW68002   1.518  10.119   1.083 -0.5329  0.2791  0.2326
20466SOL    HW168003   1.581  10.056   1.048 -2.6793 -2.5010  1.1242
20466SOL    HW268004   1.477  10.157   1.005  0.9263  0.8417 -0.3136
20467SOL     OW68005   7.725   0.119   7.655 -0.0934 -0.1024 -0.0031
20467SOL    HW168006   7.757   0.208   7.668 -0.7119  0.0981  0.1876
20467SOL    HW268007   7.630   0.125   7.667 -0.2276 -0.6582 -0.6636
20468SOL     OW68008   6.735   0.825   5.613 -0.1970  0.0652  0.1467
20468SOL    HW168009   6.688   0.786   5.687  1.3747 -1.9566  0.1984
20468SOL    HW268010   6.803   0.879   5.653 -0.6247  0.6314  0.1207
20469SOL     OW68011   6.335   3.880   7.634  0.1861 -0.2614 -0.1658
20469SOL    HW168012   6.409   3.881   7.573 -0.0582 -1.4317 -0.5132
20469SOL    HW268013   6.305   3.970   7.639  1.7100  0.2617  0.0625
20470SOL     OW68014   1.810  10.426   3.341 -0.0650  0.3521  0.1978
20470SOL    HW168015   1.737  10.381   3.298 -0.2595  1.9745 -1.3154
20470SOL    HW268016   1.884  10.412   3.282  0.4764  0.0082  0.9474
20471SOL     OW68017  12.123   6.858   0.294 -0.3251 -0.3857 -0.0829
20471SOL    HW168018  12.209   6.816   0.301  0.9056  2.1169  0.8812
20471SOL    HW268019  12.076   6.826   0.371  0.3309 -0.5232  0.2719
20472SOL     OW68020   5.499  10.630   3.432  0.1409  0.4791  0.5456
20472SOL    HW168021   5.523  10.566   3.365 -1.2066 -0.2848  0.7728
20472SOL    HW268022   5.570  10.695   3.429  1.3444 -0.8138  0.0575
20473SOL     OW68023   0.876   1.336   0.846 -0.3960  0.7127 -0.3013
20473SOL    HW168024   0.928   1.411   0.816  1.3764  0.7514  2.5414
20473SOL    HW268025   0.791   1.374   0.870 -0.4217  1.3265 -1.2888
20474SOL     OW68026  12.507  12.187   5.081 -0.4480  0.0170 -0.0328
20474SOL    HW168027  12.524  12.105   5.034  0.4183 -0.1734  0.5810
20474SOL    HW268028  12.439  12.230   5.030 -0.2986 -0.6850 -0.8551
20475SOL     OW68029   6.264   0.208  11.056 -0.6287  0.5477 -0.5777
20475SOL    HW168030   6.243   0.167  10.972 -3.1788  2.7022 -1.1500
20475SOL    HW268031   6.230   0.148  11.122 -1.7125  0.3771 -1.2703
20476SOL     OW68032   6.288   0.467   6.489 -0.2356 -0.1423 -0.1734
20476SOL    HW168033   6.273   0.452   6.395 -0.8118  1.5543 -0.3847
20476SOL    HW268034   6.254   0.388   6.531  0.0767 -0.9579 -1.3786
20477SOL     OW68035   4.322   3.641  12.179 -0.1614 -0.0829 -0.1283
20477SOL    HW168036   4.385   3.664  12.247 -0.2814  1.0134 -0.3749
20477SOL    HW268037   4.346   3.552  12.153  0.5469 -0.1119  0.5999
20478SOL     OW68038   6.299   5.749   7.449  0.1934 -0.0712 -0.5192
20478SOL    HW168039   6.295   5.736   7.544  2.7838  1.2054 -0.1352
20478SOL    HW268040   6.212   5.724   7.417 -0.4172 -1.5299  2.0419
20479SOL     OW68041   9.559   1.953  10.729 -0.5532 -0.5227  0.1971
20479SOL    HW168042   9.527   1.885  10.670  0.1376  0.0287 -0.8417
20479SOL    HW268043   9.600   1.904  10.801 -0.2762 -1.2084 -0.4110
20480SOL     OW68044   9.346   5.122  10.495  0.0177  0.5059  0.9745
20480SOL    HW168045   9.279   5.062  10.463 -1.5122  1.2616  2.5618
20480SOL    HW268046   9.423   5.067  10.509  0.0675 -0.2407 -1.6952
20481SOL     OW68047   0.658   1.858   7.078  0.2310  0.0747  0.3733
20481SOL    HW168048   0.574   1.813   7.065 -0.5753  0.9454  2.1943
20481SOL    HW268049   0.723   1.796   7.047 -0.9935 -1.3282  0.4781
20482SOL     OW68050   2.478  10.608   2.899  0.1580  0.1075  0.1946
20482SOL    HW168051   2.547  10.670   2.878 -1.4353  1.4235 -1.4562
20482SOL    HW268052   2.409  10.660   2.940 -0.2285 -1.0242  1.0560
20483SOL     OW68053   4.865  10.891   6.898  0.0565  0.2537  0.7386
20483SOL    HW168054   4.889  10.822   6.960 -0.9936 -0.0097  0.8623
20483SOL    HW268055   4.946  10.941   6.886  1.2426 -1.7399 -0.3492
20484SOL     OW68056   3.625   6.817   1.787  0.1727  0.4781  0.8132
20484SOL    HW168057   3.638   6.740   1.841 -0.4822  1.3524  2.2644
20484SOL    HW268058   3.578   6.785   1.710  0.6385 -0.6926  1.0034
20485SOL     OW68059  12.131   4.517   3.086  0.2503  0.3430 -0.6234
20485SOL    HW168060  12.125   4.434   3.039  0.2305  0.8818 -1.5952
20485SOL    HW268061  12.041   4.549   3.093  0.2696  0.3448 -0.3561
20486SOL     OW68062   8.083   4.150  10.548 -0.2059  0.7573  0.3077
20486SOL    HW168063   8.027   4.089  10.597 -1.4020  1.3542 -0.2748
20486SOL    HW268064   8.066   4.235  10.588 -0.9270  1.1956 -0.8757
20487SOL     OW68065   9.003   8.926   7.792  0.1531 -0.3296 -0.8443
20487SOL    HW168066   9.071   8.988   7.819  0.3143  0.2244 -2.3996
20487SOL    HW268067   8.970   8.889   7.874  2.7329 -1.0847 -0.0529
20488SOL     OW68068   0.556   2.982   4.571  0.3660 -0.3895  0.1267
20488SOL    HW168069   0.560   2.960   4.478 -0.4456 -0.8000  0.1828
20488SOL    HW268070   0.491   3.052   4.576 -0.1515 -0.8853  0.4701
20489SOL     OW68071   1.772   7.667   1.255 -0.5850 -0.0654 -0.6644
20489SOL    HW168072   1.708   7.597   1.241 -0.3007 -0.8298  1.4118
20489SOL    HW268073   1.828   7.634   1.325  0.7420  1.4927 -0.9292
20490SOL     OW68074  10.059   9.658   5.237 -0.0881 -0.3287 -0.2025
20490SOL    HW168075  10.141   9.695   5.270 -0.3776 -0.5131  0.7354
20490SOL    HW268076  10.041   9.584   5.294 -1.5426  0.4372  0.3864
20491SOL     OW68077  10.090   5.912   5.238  0.4209  0.2085  0.0056
20491SOL    HW168078  10.139   5.963   5.174  0.9626 -0.4275 -0.0980
20491SOL    HW268079  10.072   5.829   5.193 -0.6812  0.3988  0.0703
20492SOL     OW68080   2.744   5.294   9.835  0.3353 -0.2265 -0.0421
20492SOL    HW168081   2.753   5.351   9.759 -0.3046  1.1687  0.8831
20492SOL    HW268082   2.774   5.348   9.909  1.1824 -1.6222  0.6853
20493SOL     OW68083  10.962   6.755  11.434  0.4191  0.1953  0.5210
20493SOL    HW168084  10.931   6.796  11.514  1.2555 -0.4991  1.2214
20493SOL    HW268085  10.999   6.826  11.383 -0.2268  0.6607  0.6883
20494SOL     OW68086  10.099   9.678   1.304 -0.1133  0.0481  1.1120
20494SOL    HW168087  10.123   9.726   1.383 -2.2120  0.1273  1.7810
20494SOL    HW268088  10.007   9.703   1.288  0.1512 -0.2049 -1.1816
20495SOL     OW68089   2.791   0.731   4.763 -0.0376 -0.5379  0.8159
20495SOL    HW168090   2.865   0.765   4.814  1.8688  1.1852 -2.6682
20495SOL    HW268091   2.721   0.794   4.778  1.1143  1.0260 -0.0111
20496SOL     OW68092   3.276   7.959   9.378  0.0632  0.0988 -0.0053
20496SOL    HW168093   3.190   7.944   9.338 -0.8162  1.2849  1.3164
20496SOL    HW268094   3.339   7.934   9.311 -1.3299  0.8132 -1.6563
20497SOL     OW68095   3.411   2.885   5.363  0.2351  0.1650  0.0199
20497SOL    HW168096   3.450   2.899   5.449  1.5514  1.5398 -0.7454
20497SOL    HW268097   3.375   2.970   5.339  1.8164  0.4305 -1.6634
20498SOL     OW68098   9.314  11.206   3.323  0.4592 -0.1151 -0.2347
20498SOL    HW168099   9.322  11.111   3.317  1.4119 -0.0709  0.1983
20498SOL    HW268100   9.288  11.223   3.413 -0.6826 -0.0049 -0.5646
20499SOL     OW68101   5.286   0.720   9.445 -0.3181 -0.5664  0.3832
20499SOL    HW168102   5.354   0.707   9.378 -0.8107  0.1901 -0.2830
20499SOL    HW268103   5.257   0.631   9.467 -2.1225 -0.8163 -2.4893
20500SOL     OW68104  12.266  11.594   7.532  0.6242 -0.0168  0.4383
20500SOL    HW168105  12.193  11.608   7.593  1.1186  0.1731  1.0014
20500SOL    HW268106  12.304  11.681   7.519  1.1462 -0.2062  0.6640
20501SOL     OW68107   3.894  10.739   8.962  0.1862  0.0264  0.1036
20501SOL    HW168108   3.929  10.827   8.977 -0.4580  0.3792 -0.3855
20501SOL    HW268109   3.830  10.751   8.892  0.7522 -0.9926 -0.6117
20502SOL     OW68110  11.549   6.657  12.293 -0.1134  0.2449  0.5167
20502SOL    HW168111  11.495   6.735  12.304  1.7557  1.5888  0.6529
20502SOL    HW268112  11.552   6.642  12.199 -1.2612 -0.2655  0.5494
20503SOL     OW68113   5.933  11.610   6.221  0.0893  0.5515  0.3371
20503SOL    HW168114   5.976  11.540   6.171  2.0996  1.3619  0.8447
20503SOL    HW268115   6.005  11.667   6.249 -1.5094  3.1121 -0.4552
20504SOL     OW68116  11.462   2.191   7.022  0.2552 -0.3603 -0.2615
20504SOL    HW168117  11.381   2.151   6.991 -0.1924  0.0821  0.2966
20504SOL    HW268118  11.518   2.117   7.046  0.0914 -0.6728 -0.8424
20505SOL     OW68119   6.197   0.601   1.176  0.3250  0.0551  0.0972
20505SOL    HW168120   6.124   0.557   1.132 -1.1875  3.0317 -0.5974
20505SOL    HW268121   6.241   0.650   1.107 -0.4114  2.6293  1.3243
20506SOL     OW68122  11.588   3.267   1.073  0.3353  0.1103 -0.4586
20506SOL    HW168123  11.506   3.220   1.087  0.3716  0.1180 -0.2185
20506SOL    HW268124  11.649   3.229   1.136  0.0757  1.1906  0.5007
20507SOL     OW68125   8.589   9.854   4.514  0.1368 -0.4054 -0.2940
20507SOL    HW168126   8.553   9.881   4.599  1.1859 -0.8562  0.3193
20507SOL    HW268127   8.534   9.898   4.450  1.3830  2.7975  0.6013
20508SOL     OW68128   2.347   1.713   5.491  0.4394  0.3526 -0.3583
20508SOL    HW168129   2.297   1.780   5.538  0.2725 -0.2985  0.4280
20508SOL    HW268130   2.295   1.694   5.413  1.2009  2.1596 -1.3767
20509SOL     OW68131   9.523   8.264  10.065 -0.4649  0.0452 -0.5093
20509SOL    HW168132   9.471   8.186  10.049 -1.0032  0.4333 -0.6649
20509SOL    HW268133   9.462   8.327  10.102  0.2391 -0.0171  0.8015
20510SOL     OW68134   5.536  12.218   8.544 -0.0268  0.0929 -0.2296
20510SOL    HW168135   5.455  12.255   8.507 -1.1741 -1.6025  0.4550
20510SOL    HW268136   5.564  12.153   8.479  0.7138  0.5706 -0.3912
20511SOL     OW68137   3.956   3.845   1.893  0.0676 -0.1114  0.1568
20511SOL    HW168138   3.879   3.899   1.908  0.2560  0.8854 -1.9802
20511SOL    HW268139   3.939   3.764   1.941 -1.2723  0.9483  1.5520
20512SOL     OW68140  11.448   0.721   8.104 -0.1436 -0.2093  0.0614
20512SOL    HW168141  11.372   0.678   8.142  0.7681 -0.7076  1.3866
20512SOL    HW268142  11.412   0.798   8.059 -1.2746  0.4613  2.0123
20513SOL     OW68143   4.932   4.248   8.987  0.1512  0.7437 -0.0699
20513SOL    HW168144   4.859   4.256   8.926 -0.9317  2.1120  1.2959
20513SOL    HW268145   4.951   4.155   8.990 -1.1841  0.4139 -0.8860
20514SOL     OW68146   7.801   8.268   5.829  0.3880 -0.0428  0.0608
20514SOL    HW168147   7.711   8.267   5.798  0.7090 -0.1421 -0.9084
20514SOL    HW268148   7.849   8.215   5.765  1.6910  2.5228 -1.2929
20515SOL     OW68149   1.322  10.691   7.024 -0.1680 -0.2506 -0.2425
20515SOL    HW168150   1.321  10.704   7.119 -2.6108  0.4181 -0.3129
20515SOL    HW268151   1.407  10.651   7.007  0.1433 -0.8196  2.2729
20516SOL     OW68152  12.711   2.641   7.573  0.3953 -0.4069 -0.3415
20516SOL    HW168153  12.747   2.583   7.506 -1.0867 -2.4046  0.4899
20516SOL    HW268154  12.621   2.612   7.585  0.3201  0.4700  1.8559
20517SOL     OW68155   6.677   6.537   7.799 -0.1590  0.0259  0.0279
20517SOL    HW168156   6.627   6.475   7.852 -0.1567  0.0060  0.0063
20517SOL    HW268157   6.689   6.613   7.856 -2.5196  1.1433 -0.8514
20518SOL     OW68158   5.410   6.120  12.298  0.0326 -0.1005 -0.0683
20518SOL    HW168159   5.354   6.088  12.368 -1.3206 -0.8093 -1.4075
20518SOL    HW268160   5.499   6.110  12.332 -0.5509 -1.1192  1.2533
20519SOL     OW68161   2.000   8.064   4.038 -0.1911  0.2483 -0.5503
20519SOL    HW168162   1.905   8.051   4.041 -0.1146 -0.3089 -0.5849
20519SOL    HW268163   2.029   8.011   3.964  0.3121 -0.5478  0.2156
20520SOL     OW68164   5.534   2.708   8.593  0.5096 -0.4756 -0.1940
20520SOL    HW168165   5.608   2.748   8.637  0.3259 -0.6687  0.3088
20520SOL    HW268166   5.564   2.690   8.504  0.8828 -0.0583 -0.1505
20521SOL     OW68167   8.998   6.187   0.636  0.6943 -0.1178 -0.5728
20521SOL    HW168168   9.060   6.258   0.656  0.5718  0.5770 -2.4449
20521SOL    HW268169   8.933   6.228   0.579 -1.6320 -0.7990  1.4495
20522SOL     OW68170   2.591   9.551   2.273 -0.1443 -0.3033 -0.2615
20522SOL    HW168171   2.605   9.642   2.244  4.1004 -1.0187 -1.2041
20522SOL    HW268172   2.622   9.550   2.364 -1.1744 -0.6501  0.1020
20523SOL     OW68173   2.628   8.909   5.109 -0.3886  0.3986  0.3460
20523SOL    HW168174   2.608   8.921   5.016  1.1981 -0.2267 -0.1319
20523SOL    HW268175   2.697   8.842   5.109 -1.1132 -0.3949  2.0543
20524SOL     OW68176   3.481   2.412   3.763  0.3379 -0.1150 -0.1711
20524SOL    HW168177   3.561   2.361   3.751 -0.1045 -0.9693  0.3640
20524SOL    HW268178   3.465   2.411   3.857  0.1654  0.7952 -0.1766
20525SOL     OW68179   4.425   1.636   1.356 -0.2175  0.2471  0.4106
20525SOL    HW168180   4.501   1.686   1.386  0.2665  0.5549 -1.2488
20525SOL    HW268181   4.364   1.702   1.324 -0.3372 -0.1241 -0.1314
20526SOL     OW68182  11.443   0.083   9.213  0.3489  0.0942 -0.9483
20526SOL    HW168183  11.412   0.046   9.296  1.6130 -1.5908 -1.1916
20526SOL    HW268184  11.365   0.086   9.158 -0.0384 -1.0176 -0.4826
20527SOL     OW68185   8.840   9.118   3.955 -0.0911 -0.2732 -0.4322
20527SOL    HW168186   8.788   9.087   3.881 -1.4942 -2.2881  1.2475
20527SOL    HW268187   8.804   9.204   3.976 -0.1478  0.0092 -1.6326
20528SOL     OW68188   5.231   7.777   2.589 -0.1520 -0.0618  0.2011
20528SOL    HW168189   5.296   7.798   2.521 -2.8217 -0.5081 -2.6972
20528SOL    HW268190   5.147   7.796   2.548 -1.9896 -1.4350  3.0671
20529SOL     OW68191   0.182   4.382   6.332  0.4416 -0.0241  0.1080
20529SOL    HW168192   0.183   4.474   6.357 -0.1274  0.1630 -0.5377
20529SOL    HW268193   0.250   4.375   6.264  1.4899 -0.3872  1.1608
20530SOL     OW68194   9.025   8.575   5.192  0.3202  0.2361 -0.3782
20530SOL    HW168195   9.027   8.505   5.127  0.5695  0.6651 -0.8277
20530SOL    HW268196   8.935   8.608   5.188  0.5421  0.7631 -1.0317
20531SOL     OW68197   0.091   6.649   3.209 -0.0223  0.0620  0.4814
20531SOL    HW168198   0.066   6.705   3.136 -1.1879  1.0274  1.5594
20531SOL    HW268199   0.033   6.573   3.203 -0.4424  0.3642  0.6536
20532SOL     OW68200   4.988   4.262   5.152  0.2760  0.0745 -0.4038
20532SOL    HW168201   4.957   4.203   5.084  0.0106 -0.2424 -0.0082
20532SOL    HW268202   4.908   4.293   5.196  0.4934 -0.4715  0.3877
20533SOL     OW68203   7.133  11.088   3.460  0.4125  0.0049 -0.3565
20533SOL    HW168204   7.150  10.994   3.450  3.0301  0.4495 -0.8912
20533SOL    HW268205   7.101  11.116   3.375 -0.1569 -0.3548 -0.2646
20534SOL     OW68206   8.222  10.740   7.464  0.0126 -0.2683  1.4352
20534SOL    HW168207   8.288  10.798   7.425  0.2359  0.5412  2.9615
20534SOL    HW268208   8.138  10.776   7.434  0.1964 -1.2925 -0.5017
20535SOL     OW68209   7.930   1.167  12.022  0.5192 -0.1064 -0.1381
20535SOL    HW168210   7.857   1.208  11.976  0.6183  2.0664  1.4578
20535SOL    HW268211   8.008   1.193  11.974  0.3897 -1.0135 -0.8664
20536SOL     OW68212   7.578   4.946   9.931 -0.8994 -0.2794 -0.5633
20536SOL    HW168213   7.561   4.871   9.989  1.9454  0.7848  1.9423
20536SOL    HW268214   7.506   5.007   9.948 -0.3475 -0.1516  1.7362
20537SOL     OW68215   9.200   6.971  11.937 -0.3381 -0.0028 -0.4263
20537SOL    HW168216   9.163   6.900  11.884 -1.2090  0.9759 -1.1678
20537SOL    HW268217   9.290   6.979  11.907  0.0967 -1.4359  0.3664
20538SOL     OW68218  11.638  11.558  11.870 -0.0846  0.2532  0.4657
20538SOL    HW168219  11.651  11.653  11.865 -2.5102  0.5800 -1.0707
20538SOL    HW268220  11.702  11.529  11.936 -0.8424  3.2476  2.7713
20539SOL     OW68221   6.918   4.620   9.301  0.4373 -0.2138 -0.0987
20539SOL    HW168222   6.916   4.651   9.210 -1.0673 -1.0971 -0.3941
20539SOL    HW268223   6.828   4.627   9.331  1.1127  1.2045  1.7636
20540SOL     OW68224   3.293   1.508   6.003 -0.1422 -0.6198  0.3412
20540SOL    HW168225   3.206   1.470   5.993 -0.2886 -0.2390  0.1369
20540SOL    HW268226   3.294   1.582   5.942 -0.0250 -0.0270  1.0493
20541SOL     OW68227   7.521   8.566   3.400  0.5896  0.2859 -0.0972
20541SOL    HW168228   7.472   8.525   3.471  0.0249 -1.7748 -1.5902
20541SOL    HW268229   7.481   8.653   3.391 -1.0756 -0.3909  0.4049
20542SOL     OW68230   5.077   0.478   9.407 -0.7518  0.4732 -0.0847
20542SOL    HW168231   5.057   0.418   9.479  0.8928  0.0439  0.0490
20542SOL    HW268232   5.017   0.551   9.420 -1.9547 -0.5595  0.4674
20543SOL     OW68233   0.979   8.041   0.197  0.0747  0.3898 -0.0124
20543SOL    HW168234   0.953   8.004   0.281  0.3795  2.2603  0.9520
20543SOL    HW268235   1.017   7.967   0.149 -1.2429 -0.9836  0.9779
20544SOL     OW68236   9.264  11.069  11.893 -0.2908  0.0270 -0.4528
20544SOL    HW168237   9.313  11.140  11.851  1.2358  0.9332  2.5530
20544SOL    HW268238   9.331  11.019  11.940 -1.7252 -1.6233 -0.0725
20545SOL     OW68239   2.947   6.853   3.926 -0.2991 -0.7425  0.3808
20545SOL    HW168240   3.025   6.800   3.946  0.8095 -0.4567 -2.7413
20545SOL    HW268241   2.928   6.835   3.834 -1.6865  2.0516  0.0176
20546SOL     OW68242   3.617   1.757   3.237 -0.0117  0.3147  0.2687
20546SOL    HW168243   3.713   1.748   3.240 -0.2104 -2.1438  1.6984
20546SOL    HW268244   3.596   1.807   3.316  0.0237 -0.2490  0.6418
20547SOL     OW68245   2.159   1.727   3.584  0.4088  0.1038  0.8535
20547SOL    HW168246   2.218   1.798   3.558 -1.4486  0.8589 -1.6857
20547SOL    HW268247   2.137   1.747   3.676  0.3431  2.5507  0.3804
20548SOL     OW68248  10.415  10.056   1.988 -0.2821 -0.1337  0.4441
20548SOL    HW168249  10.346  10.109   1.949 -0.5511 -1.3293 -0.8030
20548SOL    HW268250  10.494  10.110   1.982 -0.8816  0.8159  0.8897
20549SOL     OW68251   6.564   2.936   5.638  0.2428  0.0808  0.7211
20549SOL    HW168252   6.643   2.928   5.691  0.0521  0.7896  1.1274
20549SOL    HW268253   6.495   2.956   5.700 -0.3178 -0.7852  0.3953
20550SOL     OW68254   1.299  10.395   8.072 -0.1771  0.6056 -0.7107
20550SOL    HW168255   1.339  10.482   8.067  0.0983  0.5066 -0.2271
20550SOL    HW268256   1.330  10.359   8.155  2.7636 -1.4380 -2.5027
20551SOL     OW68257   5.309   2.569   8.348  0.2067 -0.3094 -0.0122
20551SOL    HW168258   5.363   2.546   8.423  0.2407 -0.9636 -0.2277
20551SOL    HW268259   5.358   2.536   8.272  0.1105  0.2200 -0.3152
20552SOL     OW68260   3.199   6.215   9.650  0.4685 -0.2512  0.5098
20552SOL    HW168261   3.242   6.288   9.695 -1.6151  1.1500  0.2965
20552SOL    HW268262   3.216   6.230   9.557 -0.6415  0.4550  0.4048
20553SOL     OW68263   8.098   9.411   7.412 -0.0466  0.6887  0.2966
20553SOL    HW168264   8.143   9.365   7.341 -1.6684 -0.1974 -0.2278
20553SOL    HW268265   8.078   9.497   7.376 -0.4218  0.4187 -0.1495
20554SOL     OW68266   2.051   8.998  11.149 -0.4008  0.0890  0.1555
20554SOL    HW168267   1.968   9.039  11.126 -0.6203 -0.1920  0.4361
20554SOL    HW268268   2.080   8.956  11.067 -1.3937 -1.2687  0.4661
20555SOL     OW68269   4.347  11.976   4.413  0.5057 -0.6942 -0.8654
20555SOL    HW168270   4.435  11.968   4.451 -0.1124 -1.4901  0.4743
20555SOL    HW268271   4.306  12.046   4.464 -0.2890 -1.6822 -0.0969
20556SOL     OW68272   5.712  11.393   9.894  0.1823  0.4611  0.3511
20556SOL    HW168273   5.656  11.457   9.939 -1.4452 -0.4122 -0.3472
20556SOL    HW268274   5.800  11.429   9.902 -0.6739  2.8456 -0.0869
20557SOL     OW68275  11.933   2.378   7.650 -0.2386 -0.2734  0.3828
20557SOL    HW168276  11.924   2.285   7.629 -2.7508  0.2447 -1.1441
20557SOL    HW268277  11.869   2.422   7.595  1.6234  2.5351  0.2414
20558SOL     OW68278   9.867   9.956   2.840 -0.0073 -0.3819 -0.2322
20558SOL    HW168279   9.878   9.877   2.892 -0.5056 -0.3422 -0.0584
20558SOL    HW268280   9.908   9.936   2.756 -1.1502 -1.2607 -0.6100
20559SOL     OW68281   5.102   6.263   1.777 -0.4879  0.4065 -0.0850
20559SOL    HW168282   5.090   6.174   1.742 -3.6860  0.8702 -0.4161
20559SOL    HW268283   5.098   6.253   1.872  3.1919 -0.1911  0.1670
20560SOL     OW68284  12.352   0.920   3.189 -0.0593 -0.6159  0.7482
20560SOL    HW168285  12.272   0.885   3.152  0.6069 -1.8686  0.4284
20560SOL    HW268286  12.420   0.857   3.165  1.1862  0.8236  0.2817
20561SOL     OW68287  12.213   3.180  12.675 -0.1162  0.4644  0.4459
20561SOL    HW168288  12.140   3.216  12.625 -1.2591  1.0878  2.4571
20561SOL    HW268289  12.224   3.091  12.641 -0.5599  0.9889 -1.1518
20562SOL     OW68290   5.377   1.823   0.303  0.1109  0.0502  0.0031
20562SOL    HW168291   5.463   1.847   0.337  0.6851 -1.6908 -0.1190
20562SOL    HW268292   5.325   1.801   0.380 -0.9193  3.0027  0.2491
20563SOL     OW68293   8.115   5.094   8.869  0.3004 -0.6434  0.6528
20563SOL    HW168294   8.167   5.058   8.941 -0.6306  1.5433  2.5604
20563SOL    HW268295   8.025   5.075   8.894 -0.2281  2.7147  1.7320
20564SOL     OW68296   7.084  10.736   9.405  0.7108 -0.0608  0.0228
20564SOL    HW168297   7.171  10.710   9.434  0.7854 -0.4794 -0.5482
20564SOL    HW268298   7.032  10.743   9.485  0.1822 -3.7867  0.2020
20565SOL     OW68299   2.578   6.538   0.654 -0.2316 -0.1079  0.3261
20565SOL    HW168300   2.513   6.595   0.611 -1.6579 -1.2299  0.8974
20565SOL    HW268301   2.551   6.537   0.746  1.7209  0.8408  0.9505
20566SOL     OW68302   6.425   7.423   6.095 -0.1587  0.2124 -0.2182
20566SOL    HW168303   6.351   7.476   6.125  0.6452  0.9938  0.4403
20566SOL    HW268304   6.421   7.344   6.148 -1.3968 -0.4527 -1.2389
20567SOL     OW68305   1.467  12.485  10.099 -0.8062  0.0220 -0.7444
20567SOL    HW168306   1.440  12.524  10.182 -0.0927  0.4430 -0.7022
20567SOL    HW268307   1.494  12.396  10.122  1.7201  0.8810 -0.0665
20568SOL     OW68308   5.964   0.723   2.879 -0.5700  0.3867  0.1634
20568SOL    HW168309   5.895   0.698   2.816 -1.0456 -0.3330  0.9483
20568SOL    HW268310   6.045   0.694   2.838 -0.7645  0.8969 -0.6044
20569SOL     OW68311   1.480   2.679   2.188  0.2142  0.0609 -0.3192
20569SOL    HW168312   1.394   2.698   2.151  0.6804  0.9045 -1.0128
20569SOL    HW268313   1.516   2.610   2.133 -0.8406 -1.8671  1.2538
20570SOL     OW68314   5.335   9.909   5.118  0.1825 -0.3130 -0.0804
20570SOL    HW168315   5.385   9.834   5.083  0.7720  0.5845 -1.2334
20570SOL    HW268316   5.402   9.975   5.136 -0.5879  1.1098 -2.1372
20571SOL     OW68317   0.693   7.127   4.602  0.0604 -0.4248 -0.5162
20571SOL    HW168318   0.763   7.078   4.644 -1.3736 -1.2586  1.0486
20571SOL    HW268319   0.617   7.115   4.660 -1.3653  0.4706 -2.0924
20572SOL     OW68320   8.195   3.616   9.717 -0.1780  0.3735  0.0831
20572SOL    HW168321   8.113   3.623   9.765 -1.0117 -1.1953 -1.0109
20572SOL    HW268322   8.250   3.685   9.753 -1.3615  0.3665  2.0442
20573SOL     OW68323   1.949  11.340  12.654  0.1704  0.1399  0.6589
20573SOL    HW168324   1.937  11.245  12.654 -1.3564  0.2956  0.3934
20573SOL    HW268325   1.911  11.369  12.571 -0.8403  1.1013  1.4251
20574SOL     OW68326   1.325   7.045   0.593 -0.7589  0.2661  0.7989
20574SOL    HW168327   1.334   7.076   0.683 -0.3979  1.8784  0.2412
20574SOL    HW268328   1.304   6.952   0.601  1.1684 -0.0891  2.5038
20575SOL     OW68329   5.429   2.452  11.431 -0.6585 -0.0071 -0.3759
20575SOL    HW168330   5.402   2.362  11.447  0.5575 -0.1787  0.9870
20575SOL    HW268331   5.494   2.446  11.361 -1.3675 -0.0341 -1.0478
20576SOL     OW68332   3.117   7.539   6.084  0.0024 -0.2478 -0.5251
20576SOL    HW168333   3.180   7.528   6.156  0.9639  1.5808 -1.0026
20576SOL    HW268334   3.167   7.518   6.005 -0.7715 -1.3103 -0.7555
20577SOL     OW68335   6.574   1.363   6.822 -0.1226  0.0134 -0.6274
20577SOL    HW168336   6.584   1.296   6.755  1.0944  0.8797 -1.3717
20577SOL    HW268337   6.621   1.439   6.786 -1.0673  1.1110  0.3784
20578SOL     OW68338  12.732   9.194   5.853  0.0299 -0.2045  0.4193
20578SOL    HW168339  12.756   9.101   5.844  0.0726 -0.1029 -0.5887
20578SOL    HW268340  12.807   9.242   5.820  0.3448  0.2328  1.6975
20579SOL     OW68341   8.762   4.129   8.438  0.0791  0.2042 -0.0751
20579SOL    HW168342   8.833   4.122   8.375  0.8150 -0.6013  0.8257
20579SOL    HW268343   8.780   4.211   8.485 -0.5635  0.8919 -1.0029
20580SOL     OW68344   6.195   4.302   0.450 -0.3374 -0.6704 -0.8804
20580SOL    HW168345   6.289   4.301   0.469 -0.2060 -1.0309 -1.5043
20580SOL    HW268346   6.155   4.341   0.527  0.2968 -0.8192 -0.4670
20581SOL     OW68347   0.203   1.553  11.417  0.2910 -0.0845 -0.1231
20581SOL    HW168348   0.218   1.480  11.477 -0.4721 -0.1391  0.0183
20581SOL    HW268349   0.111   1.576  11.431  0.1501  0.0136 -1.1486
20582SOL     OW68350   7.406   0.361   0.522  0.1103  0.4575 -0.0397
20582SOL    HW168351   7.334   0.396   0.470  0.3871 -0.1690 -0.8853
20582SOL    HW268352   7.458   0.437   0.545 -0.9179  0.9367  0.7440
20583SOL     OW68353   4.634   5.892   7.833  0.8253  0.0402  0.2388
20583SOL    HW168354   4.548   5.930   7.848  1.2852  0.5288  1.7888
20583SOL    HW268355   4.617   5.811   7.784 -0.3290  1.1043 -1.2026
20584SOL     OW68356   4.996   9.503   9.491 -0.2586  0.1658  0.3373
20584SOL    HW168357   5.034   9.548   9.416  0.4235 -2.9716 -1.3915
20584SOL    HW268358   4.901   9.515   9.480 -0.0999  1.2326  0.0241
20585SOL     OW68359   8.426   4.003   5.734 -0.7356 -0.3118  0.0274
20585SOL    HW168360   8.391   3.924   5.694  2.7747 -2.4167  0.6594
20585SOL    HW268361   8.457   4.056   5.661 -2.4724  0.2323 -0.3596
20586SOL     OW68362   1.547   2.859   0.087 -0.1671 -0.2579 -0.8697
20586SOL    HW168363   1.488   2.934   0.081  0.6186  0.9117  2.9605
20586SOL    HW268364   1.635   2.895   0.080  0.2017 -0.9303  0.0128
20587SOL     OW68365  12.314   9.669  11.792 -0.2365  0.0555  0.1063
20587SOL    HW168366  12.330   9.586  11.838  0.4913  0.2263  0.1757
20587SOL    HW268367  12.278   9.727  11.859 -4.2564 -1.2182 -0.6873
20588SOL     OW68368   0.689   5.095   7.527  0.8919 -0.0269 -0.7048
20588SOL    HW168369   0.680   5.085   7.622 -0.2890  0.1459 -0.7898
20588SOL    HW268370   0.732   5.180   7.517  0.8572  0.0381 -0.3313
20589SOL     OW68371   0.052   1.360   9.097  0.4705  0.6703 -0.2344
20589SOL    HW168372   0.133   1.374   9.145  0.9332  2.3667 -1.4008
20589SOL    HW268373   0.066   1.405   9.013 -1.5101  0.6467 -0.6277
20590SOL     OW68374   0.290   4.388   9.759  0.2224  0.3806 -0.6888
20590SOL    HW168375   0.196   4.376   9.778  0.4061 -0.5259 -0.2704
20590SOL    HW268376   0.317   4.460   9.815 -0.0603  0.1174 -0.1999
20591SOL     OW68377   5.142   4.156   6.640  0.6468  0.0453  0.0592
20591SOL    HW168378   5.139   4.236   6.692 -0.6240 -0.2489  0.4775
20591SOL    HW268379   5.138   4.085   6.704 -1.2525 -0.3245 -0.3979
20592SOL     OW68380  12.341  10.904   0.037  0.2321 -1.0548  0.7509
20592SOL    HW168381  12.353  10.860   0.121  0.7641 -1.4998  0.4454
20592SOL    HW268382  12.273  10.853  -0.008  1.2989 -1.9748  0.1334
20593SOL     OW68383   2.699   8.754   7.535  0.2921  0.1162  0.2030
20593SOL    HW168384   2.636   8.685   7.556  0.1342 -0.3453 -1.5885
20593SOL    HW268385   2.720   8.740   7.443  1.0130  1.8797  0.0529
20594SOL     OW68386  10.448   6.266   1.497  0.2978  0.0868 -0.0206
20594SOL    HW168387  10.495   6.246   1.577 -1.3740  0.0873  1.0164
20594SOL    HW268388  10.473   6.196   1.436  1.3071 -0.1250  0.6227
20595SOL     OW68389   3.397   1.766   7.128 -0.1932 -0.4876  0.1297
20595SOL    HW168390   3.402   1.671   7.121 -1.3019 -0.6411  1.1248
20595SOL    HW268391   3.312   1.788   7.090  0.0432  0.1024 -0.0577
20596SOL     OW68392   7.534   6.049   0.683 -0.6978  0.7417  0.3209
20596SOL    HW168393   7.551   6.135   0.723 -0.3322  0.3847  0.9471
20596SOL    HW268394   7.558   5.986   0.751  1.2603  0.0757 -0.9062
20597SOL     OW68395   4.927   0.429   2.326  0.2103  0.0390 -0.5752
20597SOL    HW168396   4.982   0.361   2.364 -0.7386  0.4810  1.7159
20597SOL    HW268397   4.839   0.393   2.329 -0.0749  0.6667 -1.0825
20598SOL     OW68398   0.344   4.378   0.971 -0.7142  0.3869  0.2346
20598SOL    HW168399   0.388   4.371   1.056 -0.4260 -0.5708  0.0112
20598SOL    HW268400   0.360   4.468   0.943 -0.7361  0.6831  1.1524
20599SOL     OW68401   4.998   9.563   6.865  0.0302 -0.6704 -0.1531
20599SOL    HW168402   4.977   9.531   6.778  0.1518 -1.1594 -0.0084
20599SOL    HW268403   4.939   9.515   6.923 -1.2318  0.8628 -0.1001
20600SOL     OW68404  10.012   4.004   3.794 -0.6139 -0.2866 -0.0232
20600SOL    HW168405  10.043   4.009   3.703  1.6918 -0.4909  0.6926
20600SOL    HW268406  10.000   4.095   3.821 -0.3453 -0.1927 -0.2196
20601SOL     OW68407   8.890   1.727   1.102 -0.3487  0.4067 -0.0220
20601SOL    HW168408   8.942   1.801   1.070  0.0199  0.1189 -0.0956
20601SOL    HW268409   8.880   1.743   1.196 -1.2915  1.1716 -0.2354
20602SOL     OW68410   5.159   6.594  11.358 -0.4594  0.1183  0.0925
20602SOL    HW168411   5.096   6.664  11.377 -1.2333 -0.2937 -0.8647
20602SOL    HW268412   5.197   6.572  11.444 -2.4992 -0.4434  0.9173
20603SOL     OW68413   4.788   1.721   3.457  0.0987 -0.0525 -0.1182
20603SOL    HW168414   4.828   1.651   3.405 -0.3544  0.2876 -0.9435
20603SOL    HW268415   4.844   1.729   3.535  1.4491  0.2096 -1.0854
20604SOL     OW68416   6.670   1.500   2.491  0.1024 -0.2275 -0.0099
20604SOL    HW168417   6.624   1.583   2.484 -0.3619 -0.4961 -0.1630
20604SOL    HW268418   6.723   1.496   2.412 -2.3066 -1.5351 -1.6703
20605SOL     OW68419   9.788   8.989   8.627  0.1105  0.0845 -0.7901
20605SOL    HW168420   9.768   8.909   8.676 -1.8842 -0.0338 -1.6922
20605SOL    HW268421   9.872   8.971   8.585  1.1487 -0.3609  1.3519
20606SOL     OW68422  10.103   9.407   2.789 -0.2219  0.0023 -0.0159
20606SOL    HW168423  10.051   9.486   2.771  1.1249  1.1679  0.9614
20606SOL    HW268424  10.136   9.381   2.704  0.7071  1.5421 -0.1714
20607SOL     OW68425  10.891   9.565   4.901  0.0279 -0.2342 -0.1082
20607SOL    HW168426  10.817   9.533   4.952 -2.6774  1.9153 -2.3584
20607SOL    HW268427  10.883   9.521   4.816  1.4445 -0.0505 -0.3653
20608SOL     OW68428   6.911   7.124  11.149  0.7000 -0.3175 -0.0341
20608SOL    HW168429   6.849   7.051  11.153  1.7946 -1.3914 -1.5449
20608SOL    HW268430   6.941   7.135  11.240 -0.7564 -0.5862  0.5030
20609SOL     OW68431   2.385   1.608   3.095  0.3639  0.9847  0.0503
20609SOL    HW168432   2.419   1.698   3.091  0.2906  0.9931 -0.5289
20609SOL    HW268433   2.431   1.562   3.025 -1.1983  1.1395 -1.1352
20610SOL     OW68434  11.511   0.115   4.229  0.4366  0.3330 -0.4321
20610SOL    HW168435  11.503   0.067   4.312  1.9940  0.4220 -0.1963
20610SOL    HW268436  11.604   0.108   4.207 -0.2207 -1.3527 -3.1983
20611SOL     OW68437  10.232  11.086   2.694  0.0301  0.0026 -0.0246
20611SOL    HW168438  10.229  11.026   2.768  2.2649 -2.8080 -1.9914
20611SOL    HW268439  10.325  11.100   2.679 -0.4119  2.1218 -1.1287
20612SOL     OW68440   2.958  11.509   2.545  0.2080 -0.8967 -0.2747
20612SOL    HW168441   2.961  11.458   2.626  0.9167  0.6431  0.7068
20612SOL    HW268442   3.028  11.471   2.490  1.4030 -0.3780  0.8379
20613SOL     OW68443   8.143   3.128   1.225  0.1039 -0.1592  0.1260
20613SOL    HW168444   8.200   3.055   1.247  0.6154  0.0820 -0.3837
20613SOL    HW268445   8.057   3.087   1.210  0.1774 -0.5425  0.7015
20614SOL     OW68446   2.287   0.882   0.048  0.4335  0.0244 -0.0334
20614SOL    HW168447   2.362   0.875  -0.011  0.8324  0.3255  0.4246
20614SOL    HW268448   2.292   0.803   0.102 -0.6903 -0.9037 -1.2538
20615SOL     OW68449   3.687   0.187   2.942 -0.3102  0.2135  0.9103
20615SOL    HW168450   3.668   0.098   2.912 -0.4606  0.3980  0.4316
20615SOL    HW268451   3.745   0.223   2.874 -0.7795  0.6940  0.7556
20616SOL     OW68452   4.971   7.745   6.480  0.6765 -0.3985 -0.1620
20616SOL    HW168453   5.058   7.727   6.446  0.4464 -0.5760 -0.6722
20616SOL    HW268454   4.985   7.810   6.549  1.0704  0.6582 -1.2001
20617SOL     OW68455   5.753   3.750   7.417  0.3112  0.0704  0.0317
20617SOL    HW168456   5.713   3.815   7.476  0.6153  1.7076 -1.4659
20617SOL    HW268457   5.830   3.795   7.383 -0.6199 -0.2492 -2.6811
20618SOL     OW68458   4.517   1.035   2.328  0.9984 -0.5678  0.0970
20618SOL    HW168459   4.488   0.953   2.367  0.4653  0.3021  1.6488
20618SOL    HW268460   4.436   1.078   2.300  1.3582 -1.1102 -1.9581
20619SOL     OW68461   5.838   9.517  11.884  0.1954  0.7248  0.1530
20619SOL    HW168462   5.922   9.472  11.896 -0.9390 -1.4592  0.4110
20619SOL    HW268463   5.819   9.555  11.970  1.3539  2.1114 -0.1703
20620SOL     OW68464   5.401   6.231  10.211 -0.2944 -0.3008  0.1669
20620SOL    HW168465   5.382   6.180  10.289 -0.9594 -0.1339  0.1230
20620SOL    HW268466   5.347   6.190  10.142  0.0232 -0.2377 -0.1219
20621SOL     OW68467  12.671  12.635  10.749  0.1798  0.3718 -0.0040
20621SOL    HW168468  12.733  12.666  10.815 -0.3375  0.1186  0.6030
20621SOL    HW268469  12.600  12.700  10.750  0.6418  0.9297 -1.0389
20622SOL     OW68470   5.260  12.184   5.717 -0.1272  0.7157 -0.5394
20622SOL    HW168471   5.196  12.239   5.670  0.5110  1.5532 -0.4420
20622SOL    HW268472   5.286  12.236   5.792  1.0731  0.6139 -0.8655
20623SOL     OW68473  10.184  10.093   8.629  0.4933  0.0435  0.0532
20623SOL    HW168474  10.189  10.188   8.633 -4.8400  0.6544 -0.8853
20623SOL    HW268475  10.150  10.066   8.714  0.6087 -0.8711 -0.1713
20624SOL     OW68476  11.805   5.239   1.173 -0.5258 -0.5172 -0.2734
20624SOL    HW168477  11.835   5.329   1.161  0.0642 -0.5344  0.8588
20624SOL    HW268478  11.722   5.234   1.126 -0.2493  0.4310 -0.8903
20625SOL     OW68479   4.586  10.201  12.581  0.3796 -0.5234 -0.4629
20625SOL    HW168480   4.508  10.145  12.574 -0.7442  0.9060  0.1378
20625SOL    HW268481   4.598  10.213  12.675 -0.8123  2.0517 -0.5437
20626SOL     OW68482   5.404   6.353   3.158  0.6328  0.7233  0.4115
20626SOL    HW168483   5.466   6.349   3.230 -0.0476 -0.9679  0.9419
20626SOL    HW268484   5.403   6.264   3.122 -0.3009  1.1209 -0.6054
20627SOL     OW68485   2.852   5.726   9.493  0.4260  0.5766  0.3472
20627SOL    HW168486   2.915   5.670   9.446  0.9611  2.5335 -1.4020
20627SOL    HW268487   2.904   5.767   9.562  1.0699  1.8862 -0.8500
20628SOL     OW68488   0.912   1.052   7.519  0.2982 -0.0788 -0.1664
20628SOL    HW168489   0.939   1.039   7.429 -0.1459  0.8166 -0.4300
20628SOL    HW268490   0.957   0.982   7.568  0.9753 -0.2176 -0.9832
20629SOL     OW68491   2.810   4.510   9.566 -0.2403 -0.3007  0.2912
20629SOL    HW168492   2.742   4.457   9.607 -0.2293  0.1620  0.9300
20629SOL    HW268493   2.774   4.535   9.481 -0.7500 -0.2892  0.5098
20630SOL     OW68494   6.428   9.176   1.266  0.2929 -0.0417  0.9491
20630SOL    HW168495   6.352   9.125   1.239  1.6532 -1.4304 -0.4223
20630SOL    HW268496   6.483   9.115   1.315  1.1069  0.5731  0.8371
20631SOL     OW68497   2.175   4.010  12.466 -0.1146 -0.0827  0.3777
20631SOL    HW168498   2.190   3.918  12.483  1.6384  0.1768  0.3575
20631SOL    HW268499   2.102   4.012  12.404  2.0089 -1.6307 -2.3648
20632SOL     OW68500   9.142   5.048  10.267  0.5844  0.5639  0.6320
20632SOL    HW168501   9.100   5.014  10.188 -1.7218 -0.1306  2.0482
20632SOL    HW268502   9.077   5.108  10.305  1.1982  0.1404  2.4699
20633SOL     OW68503  10.232  11.623   6.495 -0.4578  0.0379  0.0896
20633SOL    HW168504  10.263  11.705   6.456  0.0886  0.0076  0.4390
20633SOL    HW268505  10.137  11.627   6.487 -0.6276  1.6832  1.9991
20634SOL     OW68506   3.108   4.426   7.828  0.3473 -0.3510 -0.2985
20634SOL    HW168507   3.099   4.332   7.808 -0.0991  0.0420 -2.0846
20634SOL    HW268508   3.020   4.461   7.817  0.7639  0.5068 -0.9234
20635SOL     OW68509   0.356  11.867   0.583  0.7230  0.5236  0.0419
20635SOL    HW168510   0.298  11.799   0.549  0.9364  0.6513 -0.5873
20635SOL    HW268511   0.310  11.949   0.564  0.1182  0.5455  1.4542
20636SOL     OW68512   8.886  12.775   4.496 -0.1466 -0.1391 -0.4738
20636SOL    HW168513   8.831  12.805   4.423  0.8084  0.6284 -0.9129
20636SOL    HW268514   8.975  12.771   4.459  0.6128  1.6456  0.9633
20637SOL     OW68515   9.084  11.377   9.847  0.1427 -0.2361  0.2464
20637SOL    HW168516   9.129  11.440   9.791 -0.4832  0.4984  0.5437
20637SOL    HW268517   8.999  11.365   9.806 -0.1184 -0.1059  0.7352
20638SOL     OW68518   3.059   3.850   7.053 -0.2847 -0.3256 -0.4575
20638SOL    HW168519   3.027   3.908   6.984  1.5902 -0.2780 -1.3556
20638SOL    HW268520   3.069   3.765   7.011  2.8785  0.1560 -0.9690
20639SOL     OW68521   2.433   4.248  11.094 -0.3921  0.3141  0.2560
20639SOL    HW168522   2.399   4.317  11.038  1.1872 -0.1902 -1.4273
20639SOL    HW268523   2.528   4.256  11.087 -0.0864  0.5876  3.3896
20640SOL     OW68524  11.696   7.654   6.454 -0.0926  0.0487 -0.0030
20640SOL    HW168525  11.627   7.670   6.518 -1.3045  0.3641 -1.3271
20640SOL    HW268526  11.711   7.559   6.459  0.0972  0.1207  0.9946
20641SOL     OW68527   6.496  11.922   3.439 -0.3947  0.1376 -0.0988
20641SOL    HW168528   6.461  11.833   3.434  1.8650 -0.9262  1.1840
20641SOL    HW268529   6.440  11.967   3.501 -1.3696 -0.4838 -0.5034
20642SOL     OW68530   6.796   6.388   3.847 -0.5258  0.1532  0.2308
20642SOL    HW168531   6.813   6.336   3.926  0.6803  0.5748  0.2678
20642SOL    HW268532   6.831   6.335   3.776 -0.1152  0.5006  0.1703
20643SOL     OW68533   5.313   8.419  12.318  0.7568  0.3457 -0.3651
20643SOL    HW168534   5.232   8.367  12.324  1.9807 -1.5525  1.2520
20643SOL    HW268535   5.295   8.497  12.371  0.1867 -0.3772  0.5497
20644SOL     OW68536   3.249   8.800   3.192 -0.6750  0.0645 -0.3010
20644SOL    HW168537   3.202   8.841   3.265  0.2305 -0.9319  0.9089
20644SOL    HW268538   3.189   8.733   3.159 -0.6798 -0.2294  0.2869
20645SOL     OW68539   1.242   5.786  10.954 -0.0165  0.2864  0.4568
20645SOL    HW168540   1.253   5.712  10.893 -1.1699  1.3154 -1.0899
20645SOL    HW268541   1.322   5.786  11.006  0.9230 -0.8011 -0.9071
20646SOL     OW68542   6.279   6.761  12.314  0.1537  1.0807 -0.0066
20646SOL    HW168543   6.360   6.712  12.331 -0.3712  0.4961  0.9051
20646SOL    HW268544   6.298   6.849  12.344  0.0420  0.6329  1.4666
20647SOL     OW68545   3.520   9.847   6.331 -0.2407  0.0849 -0.6443
20647SOL    HW168546   3.480   9.866   6.247 -1.1855 -1.0899 -0.4892
20647SOL    HW268547   3.500   9.754   6.347  1.0114 -0.0578  0.2854
20648SOL     OW68548   5.272  12.168   7.489  0.1528 -0.0353 -0.3315
20648SOL    HW168549   5.212  12.241   7.475 -0.3756 -0.3848  0.0407
20648SOL    HW268550   5.242  12.100   7.428 -0.7598 -0.7419  0.8590
20649SOL     OW68551  11.034   3.266   2.714 -0.4474 -0.5360 -0.3027
20649SOL    HW168552  11.004   3.230   2.631 -3.5985  0.2067  0.3609
20649SOL    HW268553  11.093   3.337   2.690  0.0708 -1.4384 -1.8186
20650SOL     OW68554   6.963  12.524   8.279  0.1279 -0.3083  0.0719
20650SOL    HW168555   6.913  12.443   8.273  0.2311 -0.3526 -0.1809
20650SOL    HW268556   7.023  12.509   8.352 -1.8520  0.6313  2.0326
20651SOL     OW68557   2.019   8.329   2.358 -0.2106 -0.2041  0.1408
20651SOL    HW168558   2.009   8.289   2.445 -0.7835 -1.7134 -0.5733
20651SOL    HW268559   2.100   8.291   2.324 -1.5930 -2.2033 -1.2082
20652SOL     OW68560   3.407   8.094  11.628 -0.7059  0.4707  0.4055
20652SOL    HW168561   3.432   8.024  11.568 -1.9181 -0.0874  0.5252
20652SOL    HW268562   3.323   8.066  11.665 -0.3916  1.1911  1.7444
20653SOL     OW68563   2.309   9.649   1.989 -0.0274  0.0234  0.9921
20653SOL    HW168564   2.368   9.702   1.935 -0.3826 -1.8993 -1.5126
20653SOL    HW268565   2.319   9.684   2.077  0.9806  3.0983 -0.1906
20654SOL     OW68566   9.976  10.662   4.572 -0.1422  0.3799  0.0077
20654SOL    HW168567  10.062  10.684   4.607  0.7137 -0.4091 -1.4762
20654SOL    HW268568   9.992  10.587   4.514 -2.1804 -1.1705  1.3118
20655SOL     OW68569   8.990  12.574   7.084  0.1290  0.0219 -0.2205
20655SOL    HW168570   8.961  12.629   7.011 -1.4616  0.6645  0.8578
20655SOL    HW268571   9.054  12.628   7.131 -0.7220  0.6046  0.2869
20656SOL     OW68572   6.108   1.799   9.439  0.0348 -0.0619  0.2281
20656SOL    HW168573   6.093   1.835   9.527 -1.7455  1.4694 -0.6247
20656SOL    HW268574   6.139   1.874   9.389  0.1109 -0.6898 -0.6769
20657SOL     OW68575   4.498  10.913   6.751  0.2913  0.0720  0.1663
20657SOL    HW168576   4.564  10.845   6.766  0.6632  0.3159 -0.3554
20657SOL    HW268577   4.417  10.865   6.738  0.3636 -0.2341  0.7723
20658SOL     OW68578   5.626   4.231  11.071 -0.3398 -0.0366 -0.4302
20658SOL    HW168579   5.599   4.153  11.022  0.4376 -0.0076 -0.9402
20658SOL    HW268580   5.666   4.287  11.005  0.6811  0.0330  0.2230
20659SOL     OW68581   8.921  12.366  10.988  0.3211  0.4109  0.4963
20659SOL    HW168582   8.891  12.298  10.927  1.2371 -0.0860  0.5785
20659SOL    HW268583   8.982  12.321  11.046  1.3138  1.4025  0.2531
20660SOL     OW68584   6.249   6.047   2.995  0.2077  0.1606 -0.0312
20660SOL    HW168585   6.298   6.002   2.926  0.4753  1.1008 -0.4707
20660SOL    HW268586   6.239   6.136   2.963  0.0341  0.5236  1.0000
20661SOL     OW68587   0.186   3.510  10.538  0.0331  0.3821 -0.2386
20661SOL    HW168588   0.236   3.552  10.608  0.2251 -0.9066  0.4273
20661SOL    HW268589   0.094   3.524  10.562  0.0984  0.0874  0.1874
20662SOL     OW68590   5.950  10.508   2.024  0.5780 -0.0488  0.2056
20662SOL    HW168591   5.929  10.511   2.118  0.4098 -0.2904  0.1780
20662SOL    HW268592   5.889  10.570   1.984  0.1080 -0.5276  0.1627
20663SOL     OW68593   6.063   7.381   2.430 -0.3911  0.0691  0.0018
20663SOL    HW168594   6.121   7.442   2.476 -0.7030 -0.3758  1.0148
20663SOL    HW268595   6.066   7.301   2.483 -0.0322 -0.7907 -1.2695
20664SOL     OW68596  10.306   1.251   2.896 -0.6694 -0.1216  0.5030
20664SOL    HW168597  10.220   1.283   2.868 -1.4061 -1.5541  1.0237
20664SOL    HW268598  10.336   1.316   2.959  0.0498  2.0203 -1.8591
20665SOL     OW68599   6.201   3.620   3.038  0.1485 -0.0022 -0.5095
20665SOL    HW168600   6.168   3.612   3.127  0.8886  1.8955 -0.0143
20665SOL    HW268601   6.201   3.531   3.004 -0.8429 -0.6616  1.1295
20666SOL     OW68602   3.817   8.445   6.680 -0.4758 -0.4837 -0.4933
20666SOL    HW168603   3.836   8.481   6.766  0.0339  0.0306 -0.8179
20666SOL    HW268604   3.819   8.520   6.621  0.2493 -0.9743 -1.1185
20667SOL     OW68605   8.251   0.137  12.528  0.4146  0.0017  0.1931
20667SOL    HW168606   8.181   0.165  12.587  1.1463  0.2994  0.9481
20667SOL    HW268607   8.207   0.081  12.464 -0.5141  0.1912  0.6349
20668SOL     OW68608   9.687   9.494   8.210  0.2492  0.9940  1.0783
20668SOL    HW168609   9.687   9.404   8.242 -0.4145  1.6581  3.1035
20668SOL    HW268610   9.726   9.488   8.123  0.7504 -1.1591  1.3800
20669SOL     OW68611   8.683   5.349   9.071 -0.1124 -0.0144  0.1075
20669SOL    HW168612   8.655   5.288   9.003  0.6824  0.3242 -0.5375
20669SOL    HW268613   8.673   5.435   9.031  0.2075  0.1964  0.4805
20670SOL     OW68614   8.423  11.737  11.019 -0.2764  0.6940 -0.8966
20670SOL    HW168615   8.498  11.712  10.965  0.2984  0.4758 -0.0211
20670SOL    HW268616   8.443  11.826  11.048  0.9834 -0.2443  1.4740
20671SOL     OW68617  10.034   0.011   7.329 -0.6958  0.9109  0.0275
20671SOL    HW168618  10.040  -0.083   7.319 -0.8919  0.7851  0.9360
20671SOL    HW268619  10.032   0.046   7.240  1.5966  0.2200 -0.3572
20672SOL     OW68620   6.807   9.720   0.110 -0.4249 -0.6224 -0.1630
20672SOL    HW168621   6.786   9.761   0.194  1.4530  0.4275 -0.1437
20672SOL    HW268622   6.883   9.665   0.128  0.9208  0.7240 -1.3978
20673SOL     OW68623   7.405   5.439  10.148  0.1606 -0.0164  0.0775
20673SOL    HW168624   7.490   5.480  10.160  0.0449  0.2189  0.0924
20673SOL    HW268625   7.392   5.386  10.227 -0.1644  0.7547  0.5538
20674SOL     OW68626   7.009   7.597   7.089  0.7931 -0.0248 -0.0691
20674SOL    HW168627   7.070   7.648   7.036 -0.1522  1.0529 -0.1481
20674SOL    HW268628   7.031   7.506   7.070  1.2320  0.3502 -1.4174
20675SOL     OW68629   4.516   8.241   1.896  0.1845 -0.4574 -0.0088
20675SOL    HW168630   4.525   8.311   1.961 -0.6153  0.5306 -0.9048
20675SOL    HW268631   4.439   8.192   1.923 -1.0017  0.8093 -0.9086
20676SOL     OW68632   3.553   1.703   9.516 -0.2609 -0.4003 -0.0802
20676SOL    HW168633   3.525   1.640   9.450  1.3466 -0.2079 -1.0062
20676SOL    HW268634   3.486   1.699   9.583 -1.5316 -1.2134 -1.3382
20677SOL     OW68635  11.635   2.227   1.074 -0.2596  0.6375 -0.0921
20677SOL    HW168636  11.711   2.231   1.016  0.1101 -0.6307  0.2755
20677SOL    HW268637  11.671   2.241   1.162 -0.3573 -0.4687  0.1374
20678SOL     OW68638   0.365  10.472   3.607 -0.6675  0.3446 -0.2825
20678SOL    HW168639   0.438  10.488   3.547 -0.9268 -0.6481 -0.9014
20678SOL    HW268640   0.291  10.519   3.567 -1.1387 -1.2929 -1.4482
20679SOL     OW68641   0.034   1.040   9.171 -0.4268 -0.0279  0.2844
20679SOL    HW168642   0.029   1.133   9.150 -0.3916 -0.4507 -1.7741
20679SOL    HW268643  -0.015   0.997   9.101 -0.8624 -1.5379  1.4738
20680SOL     OW68644   8.733  11.409   2.241  0.3716  0.1938  0.1307
20680SOL    HW168645   8.769  11.423   2.153 -2.2849 -1.0737 -1.2674
20680SOL    HW268646   8.778  11.329   2.272  0.5554  0.0342 -0.5280
20681SOL     OW68647   0.716   4.550   1.940 -0.2450 -0.1189  0.8049
20681SOL    HW168648   0.717   4.575   2.032 -0.5036 -0.1776  0.8239
20681SOL    HW268649   0.778   4.478   1.934  3.0690  2.5257  0.1735
20682SOL     OW68650   2.348  11.769   0.231  0.4721  0.7569  0.2368
20682SOL    HW168651   2.316  11.731   0.313  1.2913  0.6534  0.5229
20682SOL    HW268652   2.285  11.742   0.165  0.1116  0.3565  0.7379
20683SOL     OW68653   1.055   5.008   8.907 -0.3198  0.5552  0.4675
20683SOL    HW168654   1.138   5.053   8.889  1.5821 -3.3028 -1.4608
20683SOL    HW268655   1.079   4.934   8.963 -2.4879 -0.5705  0.0299
20684SOL     OW68656   2.358   8.876   0.910  0.0207 -0.1103 -0.1140
20684SOL    HW168657   2.326   8.954   0.955 -0.7915  0.2484 -1.2611
20684SOL    HW268658   2.308   8.804   0.949 -0.2634  0.1198 -0.0486
20685SOL     OW68659   6.124   9.116   9.848 -0.5191 -0.4032 -0.1651
20685SOL    HW168660   6.072   9.185   9.889  1.6455  0.7198  0.8226
20685SOL    HW268661   6.210   9.155   9.835  0.4086 -2.5192 -0.7919
20686SOL     OW68662   9.485   2.102   5.637 -0.4210  0.4332 -0.4781
20686SOL    HW168663   9.416   2.063   5.583  0.0181  2.3730 -2.6538
20686SOL    HW268664   9.458   2.193   5.648  0.5288  0.5838  0.9017
20687SOL     OW68665   0.349   6.409  10.265  0.0832  0.3432  0.5922
20687SOL    HW168666   0.414   6.410  10.194 -2.0005 -0.9147 -1.4878
20687SOL    HW268667   0.388   6.462  10.334  2.7117  0.7601 -1.0638
20688SOL     OW68668  10.484   9.205   5.475 -0.3723  0.1775 -0.4287
20688SOL    HW168669  10.498   9.122   5.431  1.4268 -0.5442  1.3587
20688SOL    HW268670  10.527   9.270   5.420  1.0396 -0.5714 -0.2460
20689SOL     OW68671   7.747   0.910   6.732 -0.2111 -0.1996 -0.0730
20689SOL    HW168672   7.824   0.966   6.719  0.7964 -1.1132  1.6001
20689SOL    HW268673   7.714   0.893   6.644 -0.0763  2.3267 -0.6944
20690SOL     OW68674  11.773  10.864  11.820 -0.4256 -0.8127  0.4514
20690SOL    HW168675  11.732  10.887  11.904 -0.2758 -0.4780  0.4346
20690SOL    HW268676  11.699  10.850  11.761 -0.6220  3.3484 -0.5755
20691SOL     OW68677  10.687  10.840   2.272 -0.1987 -0.3503  0.1922
20691SOL    HW168678  10.720  10.846   2.362 -0.3930 -0.9193  0.3050
20691SOL    HW268679  10.606  10.790   2.279 -0.0491 -0.6820 -0.3334
20692SOL     OW68680   1.976   9.779   8.799  0.3541 -0.3989 -0.7644
20692SOL    HW168681   2.028   9.851   8.762 -0.5780  0.3960 -0.5584
20692SOL    HW268682   1.972   9.714   8.729  0.7284 -0.0115 -1.1541
20693SOL     OW68683   9.992   8.922   3.107  0.0380  0.0742  0.0299
20693SOL    HW168684  10.069   8.975   3.126 -1.3355  2.1971  0.0366
20693SOL    HW268685   9.951   8.909   3.192  0.5146 -1.3140  0.0689
20694SOL     OW68686   5.964   3.229   3.206 -0.1146  0.0362  0.4000
20694SOL    HW168687   5.882   3.181   3.193 -0.5596  0.8038  0.3251
20694SOL    HW268688   6.025   3.163   3.239 -0.5823 -0.6827 -0.1470
20695SOL     OW68689   2.708   3.765   5.485  0.2418 -0.6801 -0.0353
20695SOL    HW168690   2.664   3.850   5.473  1.2277  0.2029  2.0790
20695SOL    HW268691   2.698   3.746   5.578  0.5341 -2.6407 -0.3727
20696SOL     OW68692   2.079   3.830   1.499  0.3924 -0.0453 -0.6826
20696SOL    HW168693   2.071   3.742   1.463  0.4970  0.1843 -1.2762
20696SOL    HW268694   2.107   3.884   1.425 -0.6649  0.6767 -0.5754
20697SOL     OW68695   3.907   8.392   3.756  0.8022 -0.3254 -0.5980
20697SOL    HW168696   3.926   8.328   3.688  0.8896 -0.2071 -0.6839
20697SOL    HW268697   3.876   8.469   3.710 -2.9224 -1.4834 -0.3740
20698SOL     OW68698   4.529   3.612   0.232 -0.6291 -0.4903 -0.2223
20698SOL    HW168699   4.562   3.648   0.150 -0.4584  0.7326  0.3547
20698SOL    HW268700   4.470   3.541   0.206  1.1647 -1.6592 -1.3381
20699SOL     OW68701   4.367  11.258   0.786  0.3490  0.4606 -0.5935
20699SOL    HW168702   4.425  11.228   0.856  0.4599  1.6975 -0.1453
20699SOL    HW268703   4.324  11.335   0.821  0.0615  0.8377 -1.7265
20700SOL     OW68704   2.718   5.168   8.736 -0.1210 -0.2308 -0.4456
20700SOL    HW168705   2.804   5.130   8.721  0.9093  2.2791 -1.4530
20700SOL    HW268706   2.659   5.093   8.742  1.9548 -1.9854 -0.7418
20701SOL     OW68707   9.869   0.147   1.827  0.2611  0.2927 -0.5429
20701SOL    HW168708   9.950   0.101   1.847 -0.1114 -0.6888 -1.2146
20701SOL    HW268709   9.897   0.235   1.801  1.0176  0.3131  0.2966
20702SOL     OW68710   5.650   2.557   9.322 -0.1025  0.6180  0.3224
20702SOL    HW168711   5.574   2.541   9.266  2.1177 -0.3751 -2.6759
20702SOL    HW268712   5.658   2.652   9.325 -0.2506  0.7081 -1.1925
20703SOL     OW68713   0.706   1.819  12.085 -0.3849  0.0388  0.2213
20703SOL    HW168714   0.626   1.832  12.136 -1.4732  1.2317 -1.6502
20703SOL    HW268715   0.711   1.724  12.074 -1.5395 -0.0619  0.4114
20704SOL     OW68716   6.938   2.808  12.590 -0.0083  0.4349 -0.1959
20704SOL    HW168717   6.857   2.774  12.553  0.0954  1.9443 -1.9481
20704SOL    HW268718   7.007   2.753  12.554 -0.1585 -0.3528  0.6727
20705SOL     OW68719   7.622   2.093   8.195  0.3828 -0.0284  0.1576
20705SOL    HW168720   7.658   2.117   8.110  3.4314  1.4425  1.6852
20705SOL    HW268721   7.614   2.176   8.242  1.9846 -1.0420  2.3877
20706SOL     OW68722   1.005  12.478   5.585  0.0403  0.2447 -0.0796
20706SOL    HW168723   0.982  12.561   5.542  0.6953 -0.6939 -2.4424
20706SOL    HW268724   0.941  12.416   5.550  0.4819 -0.5410  0.4914
20707SOL     OW68725   5.468   3.676   0.847  0.3571 -0.0820 -0.2701
20707SOL    HW168726   5.554   3.720   0.849 -0.3124  1.2784  0.3655
20707SOL    HW268727   5.487   3.587   0.818  2.1977 -0.2609  1.2392
20708SOL     OW68728   4.156   0.362   2.736 -0.2434 -0.8287  0.4261
20708SOL    HW168729   4.147   0.337   2.643  2.5297  1.1722 -0.4864
20708SOL    HW268730   4.223   0.303   2.770 -0.4183 -0.7701  0.8799
20709SOL     OW68731   3.540   0.755   8.060  0.1893 -0.0027  0.2964
20709SOL    HW168732   3.605   0.825   8.056 -0.3428  0.4166 -2.0153
20709SOL    HW268733   3.591   0.677   8.082  1.2232  0.6016  0.1161
20710SOL     OW68734   3.651   2.107   3.493 -0.4124 -0.4325 -0.5196
20710SOL    HW168735   3.739   2.070   3.483 -0.3833 -0.1422 -1.4553
20710SOL    HW268736   3.658   2.195   3.456 -0.7926  0.0644  0.5531
20711SOL     OW68737   7.196   5.652   2.208  0.1837  0.5132 -0.3157
20711SOL    HW168738   7.127   5.657   2.274 -1.1247  0.5581 -1.6362
20711SOL    HW268739   7.274   5.682   2.253  0.1288 -2.5883  2.1849
20712SOL     OW68740   1.612   1.902   8.741 -0.0765  0.0041  0.2047
20712SOL    HW168741   1.584   1.988   8.711 -1.7965 -0.2364  1.0064
20712SOL    HW268742   1.703   1.914   8.769 -0.2465  1.5126  0.1760
20713SOL     OW68743  12.521   2.305   9.456  1.0886  0.2576 -0.5299
20713SOL    HW168744  12.541   2.213   9.437  1.3332  0.1372  0.2777
20713SOL    HW268745  12.503   2.344   9.370 -0.3534 -0.8492 -0.7801
20714SOL     OW68746   8.014   6.903   1.205 -0.4028  0.2043  0.2530
20714SOL    HW168747   7.993   6.929   1.295 -0.5920 -0.4090  0.3881
20714SOL    HW268748   8.109   6.904   1.201 -0.3451 -1.0491  0.8504
20715SOL     OW68749  10.310   4.740  11.048 -0.2306  0.2224 -0.4472
20715SOL    HW168750  10.351   4.730  11.134 -0.0170 -1.1294 -0.6894
20715SOL    HW268751  10.333   4.661  11.000 -0.3759  0.9290 -1.7557
20716SOL     OW68752   5.356   0.753   3.190  0.2426 -0.6982 -0.0149
20716SOL    HW168753   5.293   0.824   3.198 -0.2823 -1.1258 -0.2601
20716SOL    HW268754   5.306   0.675   3.216  0.6304 -1.0586 -0.3548
20717SOL     OW68755   3.761   2.460  10.782 -0.0499  0.3882 -0.0596
20717SOL    HW168756   3.800   2.486  10.698  1.4879  0.5551  0.6788
20717SOL    HW268757   3.831   2.414  10.828 -0.7700  0.5804  1.2761
20718SOL     OW68758  10.765   7.564   0.146  0.4056  0.1859 -0.0158
20718SOL    HW168759  10.819   7.621   0.092  0.1826 -0.6464 -1.1453
20718SOL    HW268760  10.676   7.593   0.133  0.2882 -0.4197 -0.6130
20719SOL     OW68761   5.434   5.451  10.230 -0.0811  0.0633 -0.3125
20719SOL    HW168762   5.424   5.372  10.282 -1.6864  0.3301 -0.1629
20719SOL    HW268763   5.370   5.442  10.160 -1.3533  1.8291  0.5286
20720SOL     OW68764   8.776   4.078  11.623  0.1160  0.0791 -0.0160
20720SOL    HW168765   8.809   4.065  11.712 -0.8461  1.4797  0.5812
20720SOL    HW268766   8.699   4.022  11.617  0.1770 -0.0101  0.0328
20721SOL     OW68767   6.256   0.760  10.652 -0.1868  0.4317 -0.0424
20721SOL    HW168768   6.329   0.711  10.615 -0.7131  0.1067 -0.6620
20721SOL    HW268769   6.197   0.693  10.687 -1.8689  0.4511 -2.6478
20722SOL     OW68770   0.561  10.018   4.044 -0.0839  0.0319  0.4762
20722SOL    HW168771   0.509  10.098   4.054  1.5634  1.0984  0.7752
20722SOL    HW268772   0.610  10.032   3.962 -2.4766 -2.2896 -1.5457
20723SOL     OW68773   8.526   8.827  12.318 -0.1126 -0.0063 -0.0752
20723SOL    HW168774   8.612   8.787  12.301 -0.1155 -0.0191 -0.0626
20723SOL    HW268775   8.493   8.849  12.231 -0.0833  0.0262 -0.0781
20724SOL     OW68776  12.235   1.069   1.631  0.0467 -0.1304 -0.3794
20724SOL    HW168777  12.246   1.131   1.558 -1.4045  0.5963 -0.0288
20724SOL    HW268778  12.224   1.124   1.708  0.1037 -0.8605  0.1589
20725SOL     OW68779   4.117   3.143   3.068  0.3597  0.0078  0.4601
20725SOL    HW168780   4.067   3.062   3.073  1.4616 -0.9296 -2.1383
20725SOL    HW268781   4.199   3.124   3.113  0.0722  0.1716  1.0671
20726SOL     OW68782   3.040   0.987   2.075 -0.1174 -0.1051  0.2981
20726SOL    HW168783   2.967   1.037   2.112 -0.5913 -0.6442  0.1046
20726SOL    HW268784   3.111   0.999   2.137 -1.1201 -1.5994  1.8114
20727SOL     OW68785   6.637  12.120  12.779 -0.7562  0.2794 -0.2716
20727SOL    HW168786   6.545  12.146  12.779 -0.8753 -0.1338 -0.5815
20727SOL    HW268787   6.635  12.026  12.796 -0.2288  0.7667  3.1764
20728SOL     OW68788   1.496   4.085   9.222 -0.6365  0.7942  0.0343
20728SOL    HW168789   1.542   4.069   9.139  2.1746 -1.4771  1.8773
20728SOL    HW268790   1.455   4.002   9.243 -1.8993  1.5486  0.6762
20729SOL     OW68791   3.764  12.430  11.944  0.3414  0.5240 -0.0203
20729SOL    HW168792   3.846  12.470  11.974  0.0589  2.0266 -1.1242
20729SOL    HW268793   3.792  12.359  11.886  0.8508 -0.7867  1.7394
20730SOL     OW68794   0.142   0.128   3.237 -0.3126 -0.2753  0.4449
20730SOL    HW168795   0.192   0.065   3.289 -0.1119 -1.4763 -1.1222
20730SOL    HW268796   0.051   0.098   3.242 -0.1053 -1.2895 -1.0104
20731SOL     OW68797   2.488   3.622   6.280  0.2095 -0.2843  0.3140
20731SOL    HW168798   2.449   3.601   6.365 -0.5683  0.4857  0.1655
20731SOL    HW268799   2.435   3.695   6.247  0.8309 -0.2299 -0.5965
20732SOL     OW68800   8.822  10.731   7.396 -0.1292  0.5521  0.2896
20732SOL    HW168801   8.808  10.642   7.362  0.9583  0.7884 -0.8529
20732SOL    HW268802   8.749  10.782   7.359  0.0031  0.4036 -0.1922
20733SOL     OW68803  11.978   9.036   6.213 -0.8147  0.1336  0.4190
20733SOL    HW168804  11.997   8.956   6.164  0.4970  0.6763  0.0043
20733SOL    HW268805  11.958   9.101   6.146  0.8334  0.8408  0.5725
20734SOL     OW68806  10.816   7.225   1.708 -0.1903  0.0847 -0.3835
20734SOL    HW168807  10.869   7.302   1.732  0.8501 -0.4471 -0.9394
20734SOL    HW268808  10.752   7.219   1.779  1.1937  0.0908  0.9397
20735SOL     OW68809  10.657  12.463   2.658 -0.0906  0.5235 -0.0036
20735SOL    HW168810  10.729  12.523   2.679 -0.8923  1.0540  1.3621
20735SOL    HW268811  10.612  12.505   2.585  1.3034 -0.1201 -1.2927
20736SOL     OW68812   5.993  10.139   5.665  0.1794  0.1968  0.8453
20736SOL    HW168813   5.951  10.161   5.748 -0.0151  0.5008  0.6661
20736SOL    HW268814   5.941  10.067   5.630 -1.1010  1.5247 -0.0791
20737SOL     OW68815   9.311   4.710  12.313  0.9326 -0.2571 -0.8121
20737SOL    HW168816   9.302   4.615  12.319  1.6353 -0.2425  1.1814
20737SOL    HW268817   9.405   4.724  12.303  0.8475  0.2457 -0.9107
20738SOL     OW68818   1.864  10.545   7.310 -0.5142 -0.0744 -0.3462
20738SOL    HW168819   1.916  10.568   7.387  0.1079 -0.9972 -0.4669
20738SOL    HW268820   1.885  10.613   7.246 -0.6805  0.4433  0.1380
20739SOL     OW68821  11.396   8.310   1.287 -0.1064 -0.4308 -0.0624
20739SOL    HW168822  11.449   8.335   1.363 -0.6906  0.5466  0.0279
20739SOL    HW268823  11.308   8.341   1.307 -0.3756 -0.5984 -0.9319
20740SOL     OW68824  12.688   6.333   9.160  0.5464  0.1011  0.1397
20740SOL    HW168825  12.642   6.277   9.097  0.8002  1.0275 -0.9109
20740SOL    HW268826  12.713   6.410   9.109  0.6426  0.9510  1.4213
20741SOL     OW68827   4.671   5.978  11.913  0.3326  0.0923 -0.0017
20741SOL    HW168828   4.592   6.031  11.910  1.2555  1.5043 -1.3259
20741SOL    HW268829   4.719   6.003  11.834  2.3224 -0.3394  1.0016
20742SOL     OW68830   2.520   8.916  11.970 -0.6704  0.3789 -0.3547
20742SOL    HW168831   2.605   8.956  11.950 -0.0203 -0.9650 -0.3659
20742SOL    HW268832   2.489   8.963  12.047 -0.3667  1.5128 -0.9041
20743SOL     OW68833   1.912   5.912   3.309 -0.2308  0.2747 -0.3421
20743SOL    HW168834   1.928   5.854   3.383  0.1035  0.9183  0.0981
20743SOL    HW268835   1.819   5.901   3.289 -0.2184 -0.2418 -0.1192
20744SOL     OW68836  10.956   9.535   2.588 -0.1236 -0.6483  0.2997
20744SOL    HW168837  10.906   9.562   2.665  0.8135 -0.4346  0.8513
20744SOL    HW268838  10.984   9.446   2.607 -1.0914 -1.1304 -0.4328
20745SOL     OW68839  11.344   9.621   6.270 -0.0866  0.4151 -0.0082
20745SOL    HW168840  11.308   9.682   6.205  0.3093  0.3192 -0.3196
20745SOL    HW268841  11.369   9.544   6.219 -1.2371 -0.3122  0.4695
20746SOL     OW68842   1.773  12.363  11.509  0.0926  0.1542  0.8431
20746SOL    HW168843   1.693  12.326  11.545 -0.1100  0.5037  0.7616
20746SOL    HW268844   1.768  12.345  11.415 -0.0992  0.5523  0.7757
20747SOL     OW68845   5.968  12.745   8.820  0.3224  0.1712  0.2553
20747SOL    HW168846   5.930  12.780   8.740  0.8271 -0.1482 -0.1365
20747SOL    HW268847   5.928  12.795   8.891 -0.7274 -0.0763 -0.1424
20748SOL     OW68848   5.579   3.558   4.270  0.0112 -0.0920 -0.4728
20748SOL    HW168849   5.592   3.635   4.325 -0.3598  0.4316 -1.1118
20748SOL    HW268850   5.652   3.500   4.293 -1.2477 -0.8254  2.1229
20749SOL     OW68851   1.425  12.034   8.757 -0.5170  0.7516  0.0231
20749SOL    HW168852   1.343  12.046   8.709  0.3131  0.5824 -1.4644
20749SOL    HW268853   1.461  12.123   8.765 -0.4729  0.7354  0.0069
20750SOL     OW68854   8.383  11.332   1.315 -0.3008  0.3340  0.2747
20750SOL    HW168855   8.333  11.368   1.388 -0.7731 -2.4287  1.4247
20750SOL    HW268856   8.474  11.354   1.335 -0.6377  1.6445  0.4351
20751SOL     OW68857   0.752   8.468  10.424  0.2317  0.1589  0.0218
20751SOL    HW168858   0.825   8.419  10.387  1.6845  1.5117  0.9331
20751SOL    HW268859   0.680   8.454  10.363  1.1067 -1.5805 -0.6818
20752SOL     OW68860   9.460   0.186  11.683 -0.3730  0.0957  0.2017
20752SOL    HW168861   9.444   0.215  11.593 -2.0698 -2.0069 -0.2332
20752SOL    HW268862   9.462   0.267  11.733  0.7112  1.3415 -1.7008
20753SOL     OW68863   5.638   2.896  12.061 -0.6320 -0.1258  0.0909
20753SOL    HW168864   5.726   2.913  12.095 -0.4882 -0.6090 -0.0367
20753SOL    HW268865   5.642   2.923  11.969 -0.2796 -1.2207 -0.2286
20754SOL     OW68866   6.785   0.061   7.579  0.3327 -0.5273  0.1779
20754SOL    HW168867   6.726   0.009   7.525 -0.0901 -0.4972  0.6009
20754SOL    HW268868   6.870   0.017   7.571 -0.2267 -1.8786  1.2928
20755SOL     OW68869   8.968   7.941   7.390 -0.4866  0.2827 -0.2932
20755SOL    HW168870   8.919   7.909   7.465 -0.2837  0.7816  0.0558
20755SOL    HW268871   9.048   7.977   7.427  0.7658 -1.6484 -0.9589
20756SOL     OW68872   8.781   0.912  12.513 -0.1418  0.2166 -0.2889
20756SOL    HW168873   8.874   0.919  12.534 -0.1515  0.6624 -0.3940
20756SOL    HW268874   8.762   0.819  12.521  0.5675 -0.0419 -1.3421
20757SOL     OW68875   4.617   6.767   3.622  0.0684  0.4228  0.3390
20757SOL    HW168876   4.699   6.750   3.669  1.3107  0.2865 -1.7109
20757SOL    HW268877   4.640   6.839   3.562 -0.5983 -1.1529 -1.9082
20758SOL     OW68878   4.076   3.703   6.136  0.7568  0.3585 -0.5562
20758SOL    HW168879   3.996   3.671   6.177  0.8584 -0.1697 -0.7631
20758SOL    HW268880   4.105   3.630   6.081  0.2151  1.2942 -2.1660
20759SOL     OW68881  12.754   0.121   2.007 -0.5036 -0.1622  0.3262
20759SOL    HW168882  12.773   0.104   1.915 -0.4091  0.0930  0.2971
20759SOL    HW268883  12.789   0.208   2.023  0.5288 -0.6548  0.8977
20760SOL     OW68884   1.456   0.252   1.751  0.0879 -0.2481  0.2423
20760SOL    HW168885   1.462   0.325   1.689  0.6523 -0.9643 -0.5694
20760SOL    HW268886   1.412   0.183   1.701 -1.7578 -0.0228  1.4469
20761SOL     OW68887   1.756  11.200   4.550  0.2184 -0.0652 -0.1737
20761SOL    HW168888   1.741  11.106   4.560  0.3309 -0.1391 -0.6407
20761SOL    HW268889   1.782  11.210   4.458  0.5241  0.3780 -0.0443
20762SOL     OW68890   7.570   2.209   4.760 -0.4549  0.3396 -0.4024
20762SOL    HW168891   7.658   2.175   4.750 -0.9180 -0.9023 -0.3813
20762SOL    HW268892   7.522   2.175   4.684 -1.4327 -0.7180  0.6503
20763SOL     OW68893   8.278   0.069   2.806  0.4405 -0.0132  0.2347
20763SOL    HW168894   8.305   0.154   2.841 -0.4385 -0.0710  1.1211
20763SOL    HW268895   8.350   0.010   2.828 -0.6031 -0.3361  3.2423
20764SOL     OW68896   2.816   5.285   5.224 -0.1931 -0.4139 -0.0629
20764SOL    HW168897   2.907   5.282   5.256 -0.3262  0.6292  0.4586
20764SOL    HW268898   2.810   5.212   5.162  0.7405 -1.0553  0.5726
20765SOL     OW68899   8.814  10.481   4.786  0.1964 -0.1375 -0.0384
20765SOL    HW168900   8.830  10.511   4.876 -1.9399  0.4930  0.1939
20765SOL    HW268901   8.790  10.389   4.795 -1.3702  0.2638  0.2545
20766SOL     OW68902  12.598   0.283  12.526  0.4121 -0.3208 -0.4135
20766SOL    HW168903  12.685   0.251  12.503  0.5536 -0.9642  0.9558
20766SOL    HW268904  12.542   0.206  12.522  0.0750 -0.0762 -0.4273
20767SOL     OW68905   5.551   8.112   3.828  0.2179 -0.1966 -0.2094
20767SOL    HW168906   5.456   8.122   3.822  0.3037  2.8765  1.5114
20767SOL    HW268907   5.586   8.185   3.778  1.7383 -1.5040 -1.1437
20768SOL     OW68908   9.128   6.855   1.254 -0.0794  0.0108 -0.2860
20768SOL    HW168909   9.095   6.902   1.330 -0.6396 -1.1846  0.2378
20768SOL    HW268910   9.050   6.831   1.204 -0.1535 -2.9376  1.0253
20769SOL     OW68911  10.046  10.850   7.147 -0.1620 -0.0455 -0.1531
20769SOL    HW168912  10.092  10.895   7.075  0.4302  1.3635  1.0426
20769SOL    HW268913  10.110  10.788   7.180 -0.1655 -0.1541 -0.3466
20770SOL     OW68914  11.990   9.930   2.500 -0.1550  0.2082 -0.2204
20770SOL    HW168915  11.997  10.022   2.476  0.5400 -0.0658 -1.1726
20770SOL    HW268916  12.021   9.926   2.591 -1.3090  1.0581  0.2301
20771SOL     OW68917   3.868   3.900   4.918 -0.3996 -0.6296  0.2348
20771SOL    HW168918   3.951   3.868   4.883 -0.6232 -0.3497 -0.5834
20771SOL    HW268919   3.886   3.921   5.009  0.8941  1.1402 -0.3869
20772SOL     OW68920   0.123   8.161  10.746 -0.1636  0.1288 -0.1088
20772SOL    HW168921   0.043   8.132  10.789  0.0231 -1.3586 -0.7055
20772SOL    HW268922   0.093   8.190  10.659 -0.5106  2.9203  0.8597
20773SOL     OW68923   3.095   5.701   0.503 -0.2904 -0.1474  0.2682
20773SOL    HW168924   3.024   5.765   0.498 -1.9601 -1.9478 -0.5509
20773SOL    HW268925   3.172   5.748   0.473 -1.5983  1.3276 -0.9626
20774SOL     OW68926   3.169   3.422  11.223  0.4624  0.7249  0.2390
20774SOL    HW168927   3.079   3.436  11.192  0.4764  0.3580  0.0333
20774SOL    HW268928   3.221   3.489  11.179 -0.2032  3.1628  2.8151
20775SOL     OW68929  11.960   0.023   8.346  0.4728  0.3750  0.2484
20775SOL    HW168930  11.880   0.070   8.325  0.7531  0.5595 -0.4347
20775SOL    HW268931  11.943  -0.067   8.318  0.9164  0.6607 -1.0078
20776SOL     OW68932   7.280   7.955   6.333  0.1775 -0.2318  0.1323
20776SOL    HW168933   7.274   8.028   6.271 -0.2559 -1.1437 -0.9301
20776SOL    HW268934   7.369   7.961   6.367 -0.4586  1.9915  1.6226
20777SOL     OW68935   6.849   5.658  11.894  0.0323 -0.2188 -0.9022
20777SOL    HW168936   6.812   5.616  11.972 -2.4591  1.0423 -1.3213
20777SOL    HW268937   6.864   5.586  11.833 -1.1741 -0.8696 -0.4609
20778SOL     OW68938   0.495   9.748   4.263 -0.0364 -0.3681  0.1678
20778SOL    HW168939   0.577   9.796   4.250  0.0119 -0.0889  1.3906
20778SOL    HW268940   0.450   9.797   4.332  0.3045 -2.4331  1.9355
20779SOL     OW68941   2.333  10.643   6.157 -0.0409  0.5522 -0.2259
20779SOL    HW168942   2.386  10.564   6.146 -0.4410  0.3725 -0.9084
20779SOL    HW268943   2.272  10.642   6.084 -0.7736  0.9284  0.3614
20780SOL     OW68944   2.226   6.867  11.123 -0.0638  0.1477  0.0151
20780SOL    HW168945   2.158   6.931  11.145  2.0454  2.3159  0.7191
20780SOL    HW268946   2.253   6.830  11.207  1.3352  1.2500  0.1033
20781SOL     OW68947   8.172   7.813   0.735  0.5147  0.1230 -0.1978
20781SOL    HW168948   8.191   7.795   0.643  0.4437 -2.1248  0.1767
20781SOL    HW268949   8.126   7.897   0.734 -1.4464 -0.8688 -2.4417
20782SOL     OW68950   1.900   0.325   9.164 -0.9467  0.1901 -0.4358
20782SOL    HW168951   1.921   0.405   9.212 -1.2380  0.1088 -0.1720
20782SOL    HW268952   1.852   0.355   9.087  1.0785  0.4877 -1.6566
20783SOL     OW68953  11.803   8.473   6.325 -0.2580 -0.0559  0.5085
20783SOL    HW168954  11.875   8.534   6.307 -0.1406 -0.4539 -0.3660
20783SOL    HW268955  11.802   8.466   6.421 -1.1411  2.3701  0.7628
20784SOL     OW68956   1.127   9.520   6.128  0.0975 -0.2763 -0.0489
20784SOL    HW168957   1.049   9.504   6.074 -0.4714  0.6599  0.4679
20784SOL    HW268958   1.107   9.600   6.175  1.7433  0.4620 -0.5450
20785SOL     OW68959  12.391  11.640   0.195 -0.8229  0.0047 -0.3197
20785SOL    HW168960  12.424  11.576   0.258 -1.5148 -1.1721 -1.1366
20785SOL    HW268961  12.344  11.589   0.130 -3.7874  1.5118  0.4639
20786SOL     OW68962  10.901   4.007   3.562 -0.2468  0.5903  0.4238
20786SOL    HW168963  10.823   4.045   3.602  0.5479  1.0903  1.5797
20786SOL    HW268964  10.934   3.945   3.628 -0.9843 -1.4597 -1.0319
20787SOL     OW68965  10.556   4.738   2.621  0.1519 -0.4180  0.1407
20787SOL    HW168966  10.643   4.733   2.582  0.8210  0.6759  1.4173
20787SOL    HW268967  10.562   4.684   2.700 -1.1212 -2.4274 -1.0238
20788SOL     OW68968   4.563   5.499   1.705  0.6742 -0.1948  0.1371
20788SOL    HW168969   4.534   5.488   1.796  0.1343  0.1402  0.0145
20788SOL    HW268970   4.648   5.457   1.702  0.8512  0.0824  0.8888
20789SOL     OW68971   1.168   6.042   9.941 -0.0856  0.7502  0.5613
20789SOL    HW168972   1.175   6.132   9.910 -2.6472  1.3974  1.6195
20789SOL    HW268973   1.159   6.050  10.036  0.4675 -0.6990  0.7588
20790SOL     OW68974  10.444   2.724   9.907  0.0443  0.4097 -0.0467
20790SOL    HW168975  10.529   2.706   9.867  0.8039  1.2229  1.1407
20790SOL    HW268976  10.457   2.806   9.955 -1.3916  0.5022  0.2113
20791SOL     OW68977   4.748   2.770   2.198 -0.2821 -0.1956  0.0431
20791SOL    HW168978   4.800   2.804   2.126  0.2302  0.7830  0.8419
20791SOL    HW268979   4.747   2.841   2.262 -1.2509 -0.8054  0.7311
20792SOL     OW68980   4.208   4.242   7.306  0.0110  0.1980 -0.3370
20792SOL    HW168981   4.271   4.229   7.236  0.2078 -1.8957  0.1528
20792SOL    HW268982   4.251   4.302   7.367  2.1723 -2.1459  0.6255
20793SOL     OW68983   9.461   4.118   8.235 -0.5953  0.3926 -0.3697
20793SOL    HW168984   9.507   4.181   8.291  0.8760  0.5985 -1.7138
20793SOL    HW268985   9.506   4.124   8.151 -0.4174 -2.4095 -0.5784
20794SOL     OW68986   5.199  11.843   5.933  0.1937  0.1161  0.2343
20794SOL    HW168987   5.230  11.901   6.003 -0.7376 -0.4969  1.1800
20794SOL    HW268988   5.184  11.902   5.858  0.9741  0.8120  0.6109
20795SOL     OW68989  11.352   6.130   2.262 -0.0436 -0.3237  0.1062
20795SOL    HW168990  11.412   6.203   2.278 -2.8257  1.9435  1.0885
20795SOL    HW268991  11.326   6.140   2.170  0.5274 -0.9086 -0.1299
20796SOL     OW68992   4.180   0.062  12.233  0.1528 -0.5800 -0.0326
20796SOL    HW168993   4.122   0.122  12.185 -0.3634 -1.2903 -0.3133
20796SOL    HW268994   4.267   0.102  12.226 -0.6309  1.8835  2.5741
20797SOL     OW68995   0.652  12.250  11.598  0.0720  0.2834  0.0666
20797SOL    HW168996   0.675  12.214  11.684  0.8621 -1.0615 -0.6816
20797SOL    HW268997   0.727  12.230  11.542 -0.3605  1.2838 -0.9165
20798SOL     OW68998   2.472  10.679   5.871  0.2159  0.2326  0.5396
20798SOL    HW168999   2.491  10.731   5.950  0.0217  0.0178  0.7287
20798SOL    HW269000   2.557  10.644   5.845  0.1874 -0.2268  1.0348
20799SOL     OW69001   8.826   1.615   5.218  0.3508 -0.1560  0.2867
20799SOL    HW169002   8.857   1.543   5.273  3.6576 -0.1829 -1.3664
20799SOL    HW269003   8.849   1.694   5.268 -1.8697 -0.1180  1.3897
20800SOL     OW69004  12.471  11.211   4.730 -0.1979  0.0221 -0.1266
20800SOL    HW169005  12.545  11.151   4.738 -0.0065  0.2324 -0.2893
20800SOL    HW269006  12.430  11.211   4.817  0.8709  1.0299  0.4086
20801SOL     OW69007   8.852   3.729   1.399  0.2895  0.0650 -0.1150
20801SOL    HW169008   8.878   3.821   1.403 -0.4703  0.2515  0.9833
20801SOL    HW269009   8.772   3.724   1.452  0.1059 -1.1573 -0.4728
20802SOL     OW69010   6.605   9.731   2.498  0.1351 -0.2238  0.3182
20802SOL    HW169011   6.683   9.783   2.483 -0.0847  0.7185  2.1329
20802SOL    HW269012   6.609   9.710   2.592 -1.4309 -0.7448  0.2893
20803SOL     OW69013   0.020   5.871   2.245 -0.2123 -0.1497 -0.0462
20803SOL    HW169014  -0.028   5.805   2.194  1.1754 -1.5770  0.4368
20803SOL    HW269015   0.082   5.909   2.183  2.3198 -2.7320  0.7198
20804SOL     OW69016   9.904  10.584   4.029  0.8272 -0.3632 -0.3175
20804SOL    HW169017   9.842  10.542   4.089 -2.5478 -0.3018 -3.4083
20804SOL    HW269018   9.986  10.536   4.041 -0.2135 -1.6609  2.7434
20805SOL     OW69019  12.214  12.540   9.721 -0.5814  0.3775  0.2592
20805SOL    HW169020  12.267  12.569   9.646 -0.0085  2.0317  1.2547
20805SOL    HW269021  12.246  12.451   9.739  0.7379  0.7329 -0.1785
20806SOL     OW69022   4.369   5.914   1.244  0.3432  0.4616  0.1766
20806SOL    HW169023   4.322   5.832   1.231 -1.5209  1.6034 -0.6157
20806SOL    HW269024   4.343   5.969   1.170 -0.5932  2.6858  2.0259
20807SOL     OW69025   4.927   6.109   7.306  0.5362 -0.1670  0.6557
20807SOL    HW169026   4.876   6.099   7.226  1.8350  0.9059 -0.3438
20807SOL    HW269027   4.900   6.035   7.361 -0.1541 -1.0939 -0.8775
20808SOL     OW69028   8.351  10.704   3.404 -0.0765 -0.2122  0.0801
20808SOL    HW169029   8.401  10.680   3.482  1.4394 -0.3499 -0.9043
20808SOL    HW269030   8.408  10.683   3.331 -1.6507 -0.5437 -1.1174
20809SOL     OW69031  10.531   4.538  12.651  0.0486  0.0910  0.0360
20809SOL    HW169032  10.586   4.481  12.597  1.0320  2.0361 -1.0905
20809SOL    HW269033  10.578   4.545  12.735 -0.1706 -0.8515  0.2513
20810SOL     OW69034  11.242  11.714   3.153  0.3188  0.0433 -0.2600
20810SOL    HW169035  11.260  11.756   3.237  0.9280  0.3264 -0.5202
20810SOL    HW269036  11.166  11.761   3.119 -0.8391 -1.0371  0.7717
20811SOL     OW69037   8.884   1.868  12.549 -0.3066  0.2328 -0.2856
20811SOL    HW169038   8.975   1.882  12.523 -0.2442  0.3083 -0.0251
20811SOL    HW269039   8.887   1.860  12.644 -0.4044 -0.9905 -0.3652
20812SOL     OW69040   2.471   9.589   4.942  0.1358  0.8832 -0.1440
20812SOL    HW169041   2.487   9.649   5.015  0.2306 -1.6087  2.0468
20812SOL    HW269042   2.409   9.524   4.978 -0.3629 -0.0659 -2.5215
20813SOL     OW69043   6.494   7.321   7.667  0.0231  0.2210 -0.6793
20813SOL    HW169044   6.474   7.414   7.670 -1.9747 -0.1365 -0.9363
20813SOL    HW269045   6.554   7.306   7.740 -2.7839  1.1005  2.0550
20814SOL     OW69046   6.005   2.481   6.878 -0.7539 -0.0786 -0.3185
20814SOL    HW169047   6.098   2.504   6.878 -0.9837  0.8790  0.1357
20814SOL    HW269048   5.979   2.488   6.786 -0.4553 -0.0234 -0.4016
20815SOL     OW69049   1.696  12.783   0.148  0.1537 -0.5060 -0.4365
20815SOL    HW169050   1.682  12.873   0.120 -1.7830 -0.3461  0.9086
20815SOL    HW269051   1.645  12.730   0.087 -0.6614 -0.4865  0.2166
20816SOL     OW69052   9.228   3.405  11.188 -0.6683  0.1121 -0.2137
20816SOL    HW169053   9.320   3.422  11.170 -0.7046  1.0585  0.4054
20816SOL    HW269054   9.181   3.451  11.119 -0.6983  0.3047 -0.0651
20817SOL     OW69055   1.999   4.184   1.539 -0.0233 -0.1445  0.4554
20817SOL    HW169056   1.909   4.203   1.515 -0.4002 -2.2120  0.0799
20817SOL    HW269057   1.993   4.127   1.616  0.9319 -0.5190  0.2735
20818SOL     OW69058   9.728   0.260  11.375  0.1682  0.5147  0.1194
20818SOL    HW169059   9.760   0.173  11.399  0.4311  1.0015  1.6100
20818SOL    HW269060   9.637   0.246  11.349 -0.4170  0.0171  2.2149
20819SOL     OW69061   7.324   8.778   2.264 -0.6191  0.3608 -0.0545
20819SOL    HW169062   7.373   8.818   2.192  1.2846  0.5083  1.2669
20819SOL    HW269063   7.234   8.773   2.231 -0.6191  3.9709 -1.0531
20820SOL     OW69064   9.368  12.206  12.338  0.0305  0.1402 -0.6593
20820SOL    HW169065   9.386  12.132  12.279 -1.6516 -1.9757  1.3093
20820SOL    HW269066   9.274  12.221  12.330 -0.4712 -0.9167  2.1070
20821SOL     OW69067   1.606  10.411   7.505 -0.0173 -0.5521 -0.3621
20821SOL    HW169068   1.584  10.393   7.414  0.2418 -0.4420 -0.4487
20821SOL    HW269069   1.621  10.506   7.507  0.7280 -0.6631 -0.3714
20822SOL     OW69070   5.353  12.522   7.310 -0.0311  0.3045 -0.8523
20822SOL    HW169071   5.418  12.452   7.318 -0.2625  0.0462 -1.2435
20822SOL    HW269072   5.358  12.549   7.219  0.3956  1.1273 -0.5927
20823SOL     OW69073   2.467   9.917   0.274  0.0503 -0.3840  0.3302
20823SOL    HW169074   2.372   9.934   0.277  0.0068 -0.6547  0.4567
20823SOL    HW269075   2.503   9.974   0.341 -0.1974 -1.4733  1.4081
20824SOL     OW69076  10.786   5.326   2.605  0.7208 -0.2796  0.4770
20824SOL    HW169077  10.844   5.377   2.662 -0.1783 -0.4332  1.5619
20824SOL    HW269078  10.734   5.392   2.559  0.5260 -0.1724  0.8421
20825SOL     OW69079   5.246   6.519   0.599  0.0051 -0.7588 -0.5783
20825SOL    HW169080   5.209   6.484   0.518  1.7564 -1.4582 -1.1067
20825SOL    HW269081   5.340   6.507   0.590  0.3679  0.6080  0.8913
20826SOL     OW69082   4.043   0.021   9.199 -0.0504 -0.7013  0.0154
20826SOL    HW169083   3.967  -0.036   9.213  0.1509 -0.5885  1.7653
20826SOL    HW269084   4.103  -0.033   9.147 -0.4144 -1.6142  0.5058
20827SOL     OW69085   6.820  11.800   0.771  0.0983 -0.2335  0.0120
20827SOL    HW169086   6.765  11.854   0.828 -0.2526  1.4868 -1.8217
20827SOL    HW269087   6.790  11.822   0.682  2.0073 -1.2027 -0.9235
20828SOL     OW69088   2.557   4.706   1.539 -0.4173  0.5736 -0.3971
20828SOL    HW169089   2.474   4.658   1.528  0.8087 -1.2488 -2.8054
20828SOL    HW269090   2.567   4.754   1.458  1.9548 -1.1737 -1.2508
20829SOL     OW69091   0.447   4.670  11.459 -0.5412 -0.3175 -0.3493
20829SOL    HW169092   0.513   4.726  11.500 -1.2406  1.1215 -1.1108
20829SOL    HW269093   0.497   4.612  11.401  0.0365  1.2365 -1.4795
20830SOL     OW69094   1.463   1.585   1.869 -0.0217  0.3094  0.2124
20830SOL    HW169095   1.490   1.676   1.885 -0.4305  0.1318  2.1320
20830SOL    HW269096   1.378   1.592   1.826  1.0732  0.8215 -2.0173
20831SOL     OW69097   1.449   8.962   3.879  0.1723 -0.1810  0.1772
20831SOL    HW169098   1.539   8.960   3.911 -1.2784  0.7595  5.2414
20831SOL    HW269099   1.412   8.878   3.907 -1.5111  1.1906  2.4814
20832SOL     OW69100  12.409  12.379   0.393 -0.4232 -0.0964 -0.3080
20832SOL    HW169101  12.401  12.468   0.358  1.8734  1.3937  2.5549
20832SOL    HW269102  12.473  12.337   0.336 -1.5320  0.0014 -1.6953
20833SOL     OW69103  12.591   7.346   7.368  0.5419  0.4891 -0.0074
20833SOL    HW169104  12.651   7.389   7.429  0.2923 -0.4364  0.9088
20833SOL    HW269105  12.577   7.259   7.404  0.6441 -0.2054 -1.5752
20834SOL     OW69106   4.838   4.171   8.649  0.6747 -0.1654  0.2493
20834SOL    HW169107   4.786   4.239   8.690 -1.3042  0.3661 -2.8044
20834SOL    HW269108   4.916   4.216   8.618  0.3205  0.2951  0.0104
20835SOL     OW69109  11.116   4.572   0.435 -0.0472 -0.1468 -0.2819
20835SOL    HW169110  11.052   4.642   0.424  1.2396  0.9706 -0.9582
20835SOL    HW269111  11.191   4.614   0.478  0.9017 -0.9879 -1.0534
20836SOL     OW69112  10.224   8.383   0.501  0.4521 -0.0640  0.1088
20836SOL    HW169113  10.314   8.396   0.471  0.5349 -0.0511  0.3648
20836SOL    HW269114  10.226   8.301   0.550  0.0381 -0.7953 -1.0541
20837SOL     OW69115   2.080   3.716   7.110 -0.3728  0.6330 -0.1606
20837SOL    HW169116   2.149   3.669   7.063 -0.7769 -0.5440  0.3729
20837SOL    HW269117   2.037   3.769   7.043 -1.2213 -1.3274 -1.2783
20838SOL     OW69118  10.713   3.377  10.748  0.1204  0.0189 -0.0083
20838SOL    HW169119  10.769   3.362  10.824  0.9647 -0.8514 -0.7736
20838SOL    HW269120  10.654   3.447  10.775  0.4611 -0.2088  1.4095
20839SOL     OW69121   6.297  10.257   3.500  0.7847 -0.2546  0.6668
20839SOL    HW169122   6.365  10.194   3.475 -0.3763 -1.1647 -0.4162
20839SOL    HW269123   6.281  10.307   3.420  0.0771 -0.1860  0.8435
20840SOL     OW69124   8.758   8.587  11.670 -0.6991 -0.2248 -0.5029
20840SOL    HW169125   8.717   8.668  11.699 -1.1062 -0.3286 -0.7776
20840SOL    HW269126   8.806   8.555  11.746  0.1287  0.6916 -0.6237
20841SOL     OW69127  12.631  11.443   9.352  0.2639  0.7827  0.3585
20841SOL    HW169128  12.670  11.520   9.393  0.2181  1.1954 -0.3449
20841SOL    HW269129  12.539  11.467   9.338 -0.1701 -0.0414  1.6644
20842SOL     OW69130  11.736   9.619   9.781  0.6612  0.0013  0.4120
20842SOL    HW169131  11.670   9.689   9.778  0.3341 -0.2640  1.1935
20842SOL    HW269132  11.819   9.665   9.784  0.5173  0.3435 -0.5508
20843SOL     OW69133   6.062   3.573  12.253 -0.0380  0.0632  0.0669
20843SOL    HW169134   6.151   3.601  12.230 -0.1775  1.7511  1.3269
20843SOL    HW269135   6.006   3.615  12.188  0.0647 -0.9161 -0.6650
20844SOL     OW69136   6.766   2.746  11.541  0.1642 -0.1675  0.2710
20844SOL    HW169137   6.675   2.727  11.518  0.5807 -0.3707 -1.3270
20844SOL    HW269138   6.776   2.840  11.526  0.3130 -0.2058  0.1347
20845SOL     OW69139   7.117   0.334   8.306  0.5776 -1.4438 -0.1264
20845SOL    HW169140   7.026   0.306   8.294  0.6567 -1.6463 -0.2579
20845SOL    HW269141   7.149   0.283   8.380  0.1771 -0.3990  0.7867
20846SOL     OW69142   1.876  11.386   3.903  0.6482 -0.1544  0.2179
20846SOL    HW169143   1.798  11.402   3.956  0.1251 -1.2727 -0.1789
20846SOL    HW269144   1.856  11.306   3.854  3.0030 -1.9737  1.9876
20847SOL     OW69145   2.457   8.925   6.722  0.0176 -0.4662 -0.0019
20847SOL    HW169146   2.538   8.886   6.691  0.0767 -0.6364  0.3671
20847SOL    HW269147   2.396   8.914   6.649  0.1104 -1.0060 -0.0011
20848SOL     OW69148   7.622   2.302   6.197 -0.3913  0.7558 -0.2483
20848SOL    HW169149   7.567   2.285   6.274 -1.8711  2.9083 -0.7439
20848SOL    HW269150   7.577   2.372   6.151  2.0928  1.6572 -1.4488
20849SOL     OW69151  11.998  10.695   8.759  0.0907 -0.0704 -0.7167
20849SOL    HW169152  11.938  10.651   8.698  0.3755  0.0183 -1.0661
20849SOL    HW269153  12.076  10.712   8.707 -0.1101  1.0862 -0.6661
20850SOL     OW69154   6.074   6.481   8.872 -0.2877 -0.0748  0.1920
20850SOL    HW169155   6.054   6.560   8.822  0.5483  0.4254  0.6122
20850SOL    HW269156   5.998   6.469   8.929  0.3183  1.5197  1.4442
20851SOL     OW69157   2.561  11.190   7.311  0.4574  0.1264 -0.3927
20851SOL    HW169158   2.583  11.281   7.294 -0.2773  0.1237 -1.4453
20851SOL    HW269159   2.522  11.190   7.398  1.7227  0.5848  0.2044
20852SOL     OW69160   9.586   1.911   3.938 -0.1380 -0.3049  0.0615
20852SOL    HW169161   9.567   1.876   4.025 -2.0963 -1.5713 -0.7997
20852SOL    HW269162   9.670   1.872   3.914  1.5686  1.8071  2.2068
20853SOL     OW69163   9.561  12.370   0.296 -0.7844  0.2033  0.1423
20853SOL    HW169164   9.567  12.331   0.383  0.7184  1.2718  0.5552
20853SOL    HW269165   9.631  12.327   0.246 -0.2229  1.1306  0.1107
20854SOL     OW69166   8.510  10.647   0.207 -0.4084  0.2336 -0.0394
20854SOL    HW169167   8.496  10.605   0.292 -1.5536 -0.1527 -0.3928
20854SOL    HW269168   8.433  10.622   0.156  0.2975  0.3919 -1.2201
20855SOL     OW69169   8.516   0.928  11.152 -0.4878  0.1040 -0.5184
20855SOL    HW169170   8.517   0.952  11.060 -1.1715 -0.4645 -0.6836
20855SOL    HW269171   8.582   0.984  11.192 -1.0240  1.2087 -1.1313
20856SOL     OW69172   5.085   4.927   3.995 -0.3000  0.3112  0.1949
20856SOL    HW169173   5.106   4.960   4.083 -0.9143  2.3084 -0.3671
20856SOL    HW269174   5.045   4.842   4.011  0.4994  0.1898  1.7866
20857SOL     OW69175   5.198   5.165   4.254  0.0671 -0.0934 -0.2906
20857SOL    HW169176   5.287   5.169   4.218  0.8151  0.9446  1.5260
20857SOL    HW269177   5.152   5.238   4.213  0.1509 -0.4189 -0.9705
20858SOL     OW69178   3.293   2.726   9.083 -0.4227 -0.0109 -0.1819
20858SOL    HW169179   3.270   2.798   9.024 -0.9203 -0.4825 -0.5718
20858SOL    HW269180   3.302   2.767   9.169  2.1461  1.0359 -0.8373
20859SOL     OW69181   5.649   6.502   4.732  0.9122 -0.4990 -0.4763
20859SOL    HW169182   5.620   6.498   4.823  0.3350  1.2655 -0.5461
20859SOL    HW269183   5.720   6.438   4.727  1.2542 -0.3249  1.3319
20860SOL     OW69184   3.629   7.683  11.220  0.4066 -0.2277 -0.2705
20860SOL    HW169185   3.706   7.663  11.167 -0.3911 -0.1091 -1.5158
20860SOL    HW269186   3.661   7.681  11.310  1.8790 -0.0966 -0.7573
20861SOL     OW69187   7.063   8.972   3.952  0.2944 -0.2501  0.4147
20861SOL    HW169188   6.977   8.931   3.962 -0.6333  1.6202  0.4485
20861SOL    HW269189   7.125   8.900   3.964 -1.2198 -1.4160  1.7403
20862SOL     OW69190   1.585   2.592   0.153  0.7845 -0.1364  0.3013
20862SOL    HW169191   1.580   2.570   0.246 -3.7761 -0.4179  0.2203
20862SOL    HW269192   1.571   2.686   0.150  0.1711 -0.2302 -0.0612
20863SOL     OW69193   9.283   9.603  11.366  0.2270  0.4867  0.5853
20863SOL    HW169194   9.330   9.531  11.407  0.6670  1.2746  1.5018
20863SOL    HW269195   9.346   9.675  11.364  0.6690  0.1671 -2.6256
20864SOL     OW69196   1.007   6.623   2.565  1.0028 -0.2201 -0.2505
20864SOL    HW169197   1.012   6.719   2.569  0.6594 -0.1352 -1.5281
20864SOL    HW269198   1.062   6.599   2.491  1.1335 -1.0299  0.0950
20865SOL     OW69199   5.235   7.479   0.874  0.3492  0.4030  0.2299
20865SOL    HW169200   5.296   7.407   0.858 -0.2422  0.1865 -1.2171
20865SOL    HW269201   5.276   7.530   0.944  0.5501 -1.5948  1.6352
20866SOL     OW69202   4.744   6.865   2.733  0.4094 -0.0585 -0.6678
20866SOL    HW169203   4.729   6.772   2.750 -0.5937  0.1829 -0.1609
20866SOL    HW269204   4.816   6.889   2.792 -0.5362 -0.1117  0.5543
20867SOL     OW69205  11.461   3.866  10.256 -0.0662  0.3225  0.4305
20867SOL    HW169206  11.423   3.865  10.343 -1.2847 -0.4637 -0.0842
20867SOL    HW269207  11.443   3.954  10.222 -2.0434 -0.1994 -0.0263
20868SOL     OW69208  11.989   0.887  10.934 -0.3649 -0.8363 -0.4045
20868SOL    HW169209  11.953   0.872  10.847 -1.1870  0.0674 -0.2416
20868SOL    HW269210  11.921   0.858  10.994 -1.0679  1.2579 -0.0915
20869SOL     OW69211   3.458   0.280   0.657  0.3152 -0.3338 -0.2888
20869SOL    HW169212   3.451   0.195   0.615 -1.8953  0.4032 -1.5609
20869SOL    HW269213   3.372   0.295   0.696  1.0208  0.8398  0.9252
20870SOL     OW69214   5.394   5.524   3.355 -0.2408 -0.7596 -0.4835
20870SOL    HW169215   5.388   5.456   3.422  0.6554  1.8833  2.4627
20870SOL    HW269216   5.316   5.577   3.367 -0.4304 -0.6083 -2.0880
20871SOL     OW69217   9.415  12.638   2.149  0.2228 -0.5860  0.5827
20871SOL    HW169218   9.402  12.668   2.059 -0.1584 -0.0838  0.7994
20871SOL    HW269219   9.485  12.573   2.142 -0.0339 -0.8036 -0.1214
20872SOL     OW69220   5.743   9.610   9.987  0.1720  0.5240  0.1129
20872SOL    HW169221   5.795   9.679  10.026  0.8092 -0.6540  1.3965
20872SOL    HW269222   5.756   9.534  10.043 -0.8190 -0.5501 -1.0356
20873SOL     OW69223  12.379   3.420   4.852  0.2056 -0.1754  0.2612
20873SOL    HW169224  12.335   3.378   4.778  1.0166  0.0511 -0.3656
20873SOL    HW269225  12.408   3.348   4.907  1.3926 -0.4449 -0.6947
20874SOL     OW69226  10.922   6.843   8.633 -0.4620 -0.3431 -0.8124
20874SOL    HW169227  11.016   6.834   8.646 -0.3108  1.2074 -0.5971
20874SOL    HW269228  10.907   6.938   8.632 -1.6651 -0.4728 -3.3684
20875SOL     OW69229  11.182   0.179   2.124  0.1553  0.3810  0.0378
20875SOL    HW169230  11.207   0.137   2.207 -0.9704 -1.2240 -0.3889
20875SOL    HW269231  11.262   0.223   2.095  0.8247  0.2244  1.5218
20876SOL     OW69232   3.624   1.206   4.428  0.1501  0.4296 -0.5604
20876SOL    HW169233   3.708   1.161   4.430 -0.1451 -0.1600 -1.1309
20876SOL    HW269234   3.559   1.136   4.422 -0.3176  0.9260 -1.5839
20877SOL     OW69235   1.201   5.831   6.204 -0.2893  0.2749  0.3941
20877SOL    HW169236   1.212   5.859   6.295 -0.0917  1.0786  0.1246
20877SOL    HW269237   1.288   5.841   6.165 -1.0945  3.4612 -0.8588
20878SOL     OW69238   0.716   6.333   6.770 -0.2140 -0.5179 -0.2963
20878SOL    HW169239   0.686   6.243   6.754  0.2607 -0.3333 -2.4812
20878SOL    HW269240   0.661   6.387   6.714 -1.7512  0.8377  2.3403
20879SOL     OW69241   9.734  10.445   5.714 -0.1187  0.1527  0.0577
20879SOL    HW169242   9.788  10.523   5.729  0.6844 -0.3462 -0.2039
20879SOL    HW269243   9.769  10.407   5.633 -1.9483  0.7395 -1.0812
20880SOL     OW69244   4.398   7.244   2.275 -0.1580 -0.0605 -0.3759
20880SOL    HW169245   4.357   7.318   2.229  0.9925  1.2811  0.6639
20880SOL    HW269246   4.326   7.203   2.323 -0.7048  0.8129 -0.4270
20881SOL     OW69247  10.412   2.094   2.896 -0.3522 -0.2450  0.0279
20881SOL    HW169248  10.361   2.022   2.933 -1.5509 -0.2304 -1.5125
20881SOL    HW269249  10.348   2.159   2.870  0.6752  1.1230  0.7623
20882SOL     OW69250   3.626   5.268   0.477  0.6027 -0.6335 -0.1013
20882SOL    HW169251   3.641   5.293   0.386  1.4153 -0.4301  0.0793
20882SOL    HW269252   3.531   5.266   0.486  0.5015 -1.0198 -1.0518
20883SOL     OW69253   9.614  12.674   1.416 -0.5492  0.2972  0.2206
20883SOL    HW169254   9.677  12.727   1.464  0.7691 -0.1221 -0.9749
20883SOL    HW269255   9.584  12.731   1.345 -0.5848  0.0975  0.0722
20884SOL     OW69256   8.788   2.523   7.887  0.1698  0.4064 -0.8208
20884SOL    HW169257   8.796   2.498   7.979  0.5549  0.2872 -0.8857
20884SOL    HW269258   8.835   2.606   7.880 -0.1933  0.6106 -0.8291
20885SOL     OW69259   2.367  10.022   3.768  0.1208  0.8346  0.2881
20885SOL    HW169260   2.383   9.940   3.721 -1.4971 -0.1336  1.2870
20885SOL    HW269261   2.334  10.082   3.701  1.1245  0.6266 -0.4194
20886SOL     OW69262  11.940   0.104   4.167 -0.6199  0.2164 -0.7821
20886SOL    HW169263  11.882   0.091   4.092  0.3849  0.3845 -1.6124
20886SOL    HW269264  11.992   0.024   4.171 -0.5914  0.2580 -0.3405
20887SOL     OW69265   3.239   3.593   1.736  0.4158 -0.3380 -0.6741
20887SOL    HW169266   3.278   3.569   1.652  0.5991 -0.1435 -0.6456
20887SOL    HW269267   3.257   3.687   1.745  2.5999 -0.8339  0.7423
20888SOL     OW69268   3.419   1.921  12.726 -0.5552 -0.0115  0.4704
20888SOL    HW169269   3.480   1.872  12.781 -1.0860 -1.2691 -0.0186
20888SOL    HW269270   3.467   1.937  12.645 -1.4462 -2.7985 -0.7365
20889SOL     OW69271   0.247   3.691   9.608  1.0359  0.2207 -0.5806
20889SOL    HW169272   0.174   3.628   9.612  1.6406 -0.4297  1.2605
20889SOL    HW269273   0.244   3.725   9.519 -0.4650 -1.0560 -1.0703
20890SOL     OW69274   3.510   2.539  12.248 -0.1722  0.2128 -0.2969
20890SOL    HW169275   3.485   2.555  12.339  0.4008  0.5422 -0.1911
20890SOL    HW269276   3.487   2.621  12.203  2.9934  1.5759  0.2913
20891SOL     OW69277   1.206   6.961   1.616 -0.4975  0.0209 -0.5602
20891SOL    HW169278   1.163   6.961   1.531 -1.2210 -0.5191 -0.2034
20891SOL    HW269279   1.278   7.023   1.606 -0.2665 -0.4073 -1.7122
20892SOL     OW69280   0.532   3.221   7.935 -0.2019  0.0624 -0.1859
20892SOL    HW169281   0.512   3.151   7.872 -0.1357 -0.1236 -0.0033
20892SOL    HW269282   0.447   3.243   7.974 -0.0556 -0.8450  0.7104
20893SOL     OW69283   0.831   9.039   0.179  0.1647 -0.2367 -0.3374
20893SOL    HW169284   0.776   8.961   0.167 -0.6985  0.4596 -1.0017
20893SOL    HW269285   0.884   9.044   0.100 -0.8705  0.6862 -1.0007
20894SOL     OW69286   6.253   2.889   8.276 -0.3038  0.0252 -0.1765
20894SOL    HW169287   6.322   2.822   8.273 -1.3006 -1.0155 -0.9205
20894SOL    HW269288   6.297   2.968   8.308  0.7108 -1.2146  1.6589
20895SOL     OW69289   8.957   9.837   2.861  0.4047 -0.0917  0.3530
20895SOL    HW169290   8.948   9.898   2.934 -0.5930 -0.8861  0.9155
20895SOL    HW269291   8.895   9.869   2.795 -0.8474 -1.0276  1.0415
20896SOL     OW69292   0.371   5.507  11.554  0.0646  0.4457  0.6044
20896SOL    HW169293   0.406   5.549  11.476  0.5585  1.8405  1.5522
20896SOL    HW269294   0.404   5.417  11.549  1.7630  1.0551  0.2183
20897SOL     OW69295   9.932   1.386   9.275  0.2132  0.0711 -0.0531
20897SOL    HW169296   9.997   1.427   9.332  0.2666  0.1596 -0.1775
20897SOL    HW269297   9.878   1.334   9.334  0.4410 -0.0582  0.0396
20898SOL     OW69298   4.919   1.908   4.656  0.2734  0.0665  0.5062
20898SOL    HW169299   5.005   1.943   4.678 -0.2550  2.0878 -0.3558
20898SOL    HW269300   4.863   1.935   4.728  0.1602 -0.3633  0.5795
20899SOL     OW69301   9.704   7.049  12.215  0.3704 -0.0743 -0.1413
20899SOL    HW169302   9.717   6.962  12.253 -0.7187 -0.0886  0.2107
20899SOL    HW269303   9.776   7.057  12.152 -1.2184 -2.4988 -2.4889
20900SOL     OW69304   6.071   4.943   3.518  0.0159 -0.2909 -0.0685
20900SOL    HW169305   6.125   4.976   3.446  0.7223 -0.7241  0.2536
20900SOL    HW269306   5.988   4.918   3.477  0.9068 -1.8723 -0.9879
20901SOL     OW69307  10.360   9.981   5.332  0.7928  0.8161  0.7749
20901SOL    HW169308  10.344  10.028   5.414  1.4698 -0.2122  1.5219
20901SOL    HW269309  10.330   9.892   5.349 -3.3284  1.4762 -1.5786
20902SOL     OW69310   5.860  12.416   6.391  0.0688  0.7705  0.3101
20902SOL    HW169311   5.788  12.454   6.441  0.4304  0.9087  0.7230
20902SOL    HW269312   5.824  12.334   6.357  0.4193 -0.3115  2.4035
20903SOL     OW69313   2.956  12.274   5.209  0.2721 -0.4082 -0.2202
20903SOL    HW169314   2.887  12.252   5.147 -2.3550  0.4453  2.1941
20903SOL    HW269315   2.937  12.364   5.236  1.6222 -0.5388  1.3928
20904SOL     OW69316   3.214  12.427   5.449  0.0683 -0.5674 -0.3542
20904SOL    HW169317   3.159  12.505   5.440  1.5816  0.4553 -1.0492
20904SOL    HW269318   3.152  12.354   5.444 -1.1613  0.5146 -1.7590
20905SOL     OW69319  11.489   9.100  11.897 -0.1339 -0.4494 -0.1564
20905SOL    HW169320  11.448   9.042  11.833  2.6157 -0.6199 -1.9190
20905SOL    HW269321  11.518   9.040  11.967 -0.1785 -0.7547 -0.3956
20906SOL     OW69322   8.149   8.494   9.497  0.7231  0.0841 -0.1002
20906SOL    HW169323   8.111   8.548   9.565  1.4959  1.1069 -0.4597
20906SOL    HW269324   8.103   8.520   9.417  1.4832  0.6311 -0.3690
20907SOL     OW69325   3.875  10.423  12.461  0.0141 -0.0420 -0.2281
20907SOL    HW169326   3.850  10.468  12.541 -0.7580  1.3580 -1.2258
20907SOL    HW269327   3.811  10.451  12.396  0.3877 -1.4505 -1.2607
20908SOL     OW69328   4.789   0.925   4.202  0.6757  0.6474 -0.3474
20908SOL    HW169329   4.723   0.869   4.162  1.0695  0.2997 -0.5178
20908SOL    HW269330   4.746   0.963   4.278 -0.0939  1.3223 -1.0944
20909SOL     OW69331   3.515   9.424   4.042 -0.3556 -0.4061 -0.0527
20909SOL    HW169332   3.510   9.517   4.062 -0.0117 -0.4308  0.1636
20909SOL    HW269333   3.501   9.419   3.947 -0.4175 -0.1383 -0.0589
20910SOL     OW69334   1.024   4.403  10.069  0.4280  0.4103 -0.4607
20910SOL    HW169335   1.116   4.427  10.055  1.4074 -2.0239  1.0550
20910SOL    HW269336   1.020   4.310  10.046 -0.6940 -0.5559  3.0346
20911SOL     OW69337  11.469   4.073   1.135 -0.0884  0.5720 -0.0439
20911SOL    HW169338  11.512   4.154   1.162 -2.6312  1.9324  0.3185
20911SOL    HW269339  11.485   4.012   1.207  1.4013  0.8910 -0.0695
20912SOL     OW69340   1.187  11.794  11.431 -0.6506 -0.3040 -0.1518
20912SOL    HW169341   1.187  11.828  11.342  0.3487 -1.4054 -0.6094
20912SOL    HW269342   1.258  11.729  11.431 -2.3312 -2.2260  0.7119
20913SOL     OW69343  12.593  12.438   4.731  0.0132 -0.3012  0.1822
20913SOL    HW169344  12.656  12.435   4.659  0.3531 -0.9873  0.4966
20913SOL    HW269345  12.551  12.352   4.730 -0.6815  0.0362  0.1888
20914SOL     OW69346   2.790   8.115  12.070 -0.1409 -0.0229 -0.6035
20914SOL    HW169347   2.811   8.098  12.162 -1.3588  0.6899 -0.1838
20914SOL    HW269348   2.774   8.028  12.032 -0.7790 -0.2274  0.1362
20915SOL     OW69349   2.171   6.108   3.704  0.2268  0.2321  0.4645
20915SOL    HW169350   2.172   6.176   3.771  2.0234 -1.0076  1.8106
20915SOL    HW269351   2.079   6.097   3.682 -0.3120  1.4742  1.9022
20916SOL     OW69352   3.488   7.468   9.531 -0.3699  0.2543 -0.8628
20916SOL    HW169353   3.437   7.531   9.480 -0.2579  0.9165 -0.1690
20916SOL    HW269354   3.537   7.419   9.465 -0.8215  0.5658 -1.4473
20917SOL     OW69355   7.951   6.828   7.135 -0.0254  0.6745 -0.3411
20917SOL    HW169356   8.045   6.813   7.124  0.2030  0.5152  1.5002
20917SOL    HW269357   7.923   6.759   7.196 -1.1847  1.1525 -0.3122
20918SOL     OW69358   4.958   7.011   2.836 -0.1267  0.0167  0.1818
20918SOL    HW169359   5.000   7.067   2.771  0.1245  0.1235  0.4320
20918SOL    HW269360   5.024   7.002   2.906 -0.4862  0.1088  0.5352
20919SOL     OW69361  10.356   7.399   5.455 -0.0418  0.0073  0.4493
20919SOL    HW169362  10.352   7.376   5.547  1.7789  1.5508  0.9860
20919SOL    HW269363  10.449   7.406   5.436 -0.3688  2.6073 -0.6740
20920SOL     OW69364   8.100  10.274   7.442 -0.1720  0.6414  0.0116
20920SOL    HW169365   8.144  10.207   7.494  0.4207  1.7915  1.0622
20920SOL    HW269366   8.014  10.285   7.485 -0.3532  0.4090 -0.2886
20921SOL     OW69367   8.286   1.268   0.566  0.0052 -0.5374  0.6447
20921SOL    HW169368   8.232   1.223   0.500 -0.7772 -0.1903  1.0305
20921SOL    HW269369   8.371   1.224   0.561 -0.5357 -1.6198  0.5523
20922SOL     OW69370   7.265   6.158   3.312  0.1212  0.1641 -0.0259
20922SOL    HW169371   7.346   6.126   3.271  0.4293  1.0668 -0.1452
20922SOL    HW269372   7.276   6.139   3.405  0.0283 -0.6243 -0.1691
20923SOL     OW69373   9.693  12.585   4.578  0.9004  0.1111 -0.0551
20923SOL    HW169374   9.711  12.553   4.489 -0.8092  0.2249 -0.4688
20923SOL    HW269375   9.605  12.622   4.573 -0.5102 -2.5037  2.3565
20924SOL     OW69376   8.355   3.225  10.463  0.2159 -0.2093  0.2102
20924SOL    HW169377   8.353   3.209  10.368  0.6657 -1.6139  0.4100
20924SOL    HW269378   8.276   3.277  10.480  0.5445  0.7429 -1.0278
20925SOL     OW69379   0.679   0.263   3.166  0.3812 -0.0813  0.0142
20925SOL    HW169380   0.653   0.198   3.232  0.1482 -0.4662 -0.4512
20925SOL    HW269381   0.699   0.341   3.217  1.9189 -0.8763  0.7243
20926SOL     OW69382   8.001   9.878  11.096  0.2328  0.2377 -0.2150
20926SOL    HW169383   7.919   9.885  11.145 -0.3037  2.6504 -1.3117
20926SOL    HW269384   8.055   9.949  11.131  0.8376  0.3254 -1.2996
20927SOL     OW69385   3.323   6.675   6.651 -0.1495 -0.4143  0.4005
20927SOL    HW169386   3.388   6.657   6.583  0.4470 -2.0675  1.3643
20927SOL    HW269387   3.239   6.653   6.611  0.0866 -0.3502 -0.1404
20928SOL     OW69388   2.072   5.307  10.061  0.0870 -0.2886 -0.5901
20928SOL    HW169389   1.981   5.289  10.037  0.2557 -0.7817 -0.8600
20928SOL    HW269390   2.089   5.249  10.136  0.1786 -0.1950 -0.5377
20929SOL     OW69391   8.943   6.881  12.322  0.1894  0.6074 -1.0210
20929SOL    HW169392   8.917   6.811  12.262  2.0123  0.5501 -1.8105
20929SOL    HW269393   8.999   6.937  12.270  1.8118  0.5762  0.6011
20930SOL     OW69394   0.620  12.220   8.451  0.1147  0.0615 -0.4024
20930SOL    HW169395   0.625  12.163   8.375 -0.1403  2.2561 -2.1500
20930SOL    HW269396   0.708  12.254   8.462 -0.3795  1.8071 -1.4494
20931SOL     OW69397   9.665  12.527   6.703  0.6481  0.4081 -0.4679
20931SOL    HW169398   9.633  12.551   6.790  0.6951 -1.9635  0.2614
20931SOL    HW269399   9.759  12.547   6.706  0.9221 -0.8980  0.5357
20932SOL     OW69400  10.243   7.560  11.271 -0.1497  0.4418  0.1941
20932SOL    HW169401  10.256   7.555  11.176 -0.5805  0.7265  0.1208
20932SOL    HW269402  10.297   7.488  11.306 -0.0570  0.2814 -0.2684
20933SOL     OW69403   0.438   7.704   0.406  0.3872 -0.3268  0.3606
20933SOL    HW169404   0.365   7.686   0.346 -0.0209 -1.1985  1.0844
20933SOL    HW269405   0.409   7.778   0.458  0.0580 -0.5905  0.5599
20934SOL     OW69406   7.323   7.483   0.346 -0.1317  0.2647  0.2385
20934SOL    HW169407   7.322   7.501   0.440  2.3142  1.1969  0.1462
20934SOL    HW269408   7.231   7.487   0.320 -0.9290 -0.5320  2.6511
20935SOL     OW69409   4.776   2.709   7.499 -0.0128  0.0664 -0.5555
20935SOL    HW169410   4.744   2.791   7.462 -1.1990  0.0163  0.2850
20935SOL    HW269411   4.817   2.735   7.582 -0.2455 -0.1664 -0.3661
20936SOL     OW69412  10.451   9.740   9.709  0.0281 -0.0739 -0.6416
20936SOL    HW169413  10.456   9.807   9.641 -1.9876 -1.1063 -1.9214
20936SOL    HW269414  10.415   9.785   9.785 -0.3680  0.5256 -1.1731
20937SOL     OW69415   7.102   1.774   9.484  0.0964  0.3080 -0.0676
20937SOL    HW169416   7.070   1.849   9.534 -0.6191 -0.6645  0.9794
20937SOL    HW269417   7.113   1.808   9.395 -0.3170  1.6189  0.3511
20938SOL     OW69418   6.235   3.070   0.736  0.4513 -0.0140  0.5775
20938SOL    HW169419   6.230   3.009   0.662  0.4164 -1.4564  1.7140
20938SOL    HW269420   6.246   3.156   0.696 -0.5799 -0.6259 -1.1287
20939SOL     OW69421   9.457  11.660   3.343  0.2681  0.2322 -0.1396
20939SOL    HW169422   9.485  11.724   3.277 -0.3756 -1.4367 -2.1571
20939SOL    HW269423   9.368  11.686   3.366  0.2493  0.4596 -0.4657
20940SOL     OW69424  11.978   5.319   1.688 -0.0850 -0.1785  0.0295
20940SOL    HW169425  12.051   5.257   1.681  1.1278  1.2167 -0.3000
20940SOL    HW269426  12.021   5.404   1.702 -1.7040  0.3223  2.7673
20941SOL     OW69427   4.003   2.999   0.744 -0.6916 -0.2141  0.5267
20941SOL    HW169428   4.062   3.017   0.671 -0.7829 -0.8666  0.2864
20941SOL    HW269429   4.027   2.911   0.774  1.1281  1.0036  3.0023
20942SOL     OW69430   6.896   8.839  10.849  0.5390  0.0603 -0.4826
20942SOL    HW169431   6.822   8.853  10.790  1.2143  0.2177 -1.3041
20942SOL    HW269432   6.923   8.927  10.874  0.1802 -0.0070  0.1803
20943SOL     OW69433   3.678   2.951   7.434 -0.3766 -0.5041  0.1124
20943SOL    HW169434   3.707   2.900   7.510 -1.8483 -0.9798  0.3800
20943SOL    HW269435   3.582   2.948   7.438 -0.4823  0.5602 -1.0370
20944SOL     OW69436   9.393   1.036   3.314  0.2598  0.3387 -0.2936
20944SOL    HW169437   9.300   1.048   3.334  0.6633  0.8676  1.4345
20944SOL    HW269438   9.435   1.032   3.400  1.7705 -0.5125 -1.0416
20945SOL     OW69439   5.006  11.479   8.944  0.2257  0.1028 -0.1967
20945SOL    HW169440   5.066  11.438   8.882  1.9897 -0.4439  1.7451
20945SOL    HW269441   5.047  11.464   9.029 -0.7782  2.9626  0.9002
20946SOL     OW69442  10.119   0.599   4.435  0.1368  0.0148  0.0550
20946SOL    HW169443  10.194   0.652   4.409 -2.0074  2.4773 -1.6500
20946SOL    HW269444  10.124   0.594   4.531  1.4629  1.6866  0.1107
20947SOL     OW69445   8.213  10.905   9.095 -0.0300  0.5283  0.3103
20947SOL    HW169446   8.258  10.928   9.176  0.0454 -0.3880  0.5344
20947SOL    HW269447   8.212  10.810   9.094  0.3717  0.5200 -0.9910
20948SOL     OW69448   7.284   7.030   3.283 -0.3269  0.1437  0.3046
20948SOL    HW169449   7.361   7.080   3.257 -0.1133 -0.4420 -0.1961
20948SOL    HW269450   7.211   7.092   3.274  0.2093  1.0842  1.9725
20949SOL     OW69451   6.140   2.628   3.233 -0.3963  0.0849 -0.2055
20949SOL    HW169452   6.121   2.690   3.303  0.5627  1.0123 -0.7354
20949SOL    HW269453   6.197   2.562   3.274  0.5040  0.8521 -0.1914
20950SOL     OW69454   4.923   3.108   0.851 -0.4185 -0.0051 -0.0162
20950SOL    HW169455   4.980   3.083   0.778 -1.1417  0.2308 -0.6698
20950SOL    HW269456   4.857   3.039   0.856 -0.8169  0.3661 -0.0712
20951SOL     OW69457   3.783   3.529  10.483 -0.4192  0.4166 -0.6865
20951SOL    HW169458   3.818   3.443  10.462 -0.1846  0.4403 -0.4038
20951SOL    HW269459   3.808   3.584  10.408  0.1584  0.4331 -0.4903
20952SOL     OW69460  10.246   9.441  12.758  0.6856  0.2624  0.3201
20952SOL    HW169461  10.300   9.428  12.680 -0.2428  0.9113 -0.4647
20952SOL    HW269462  10.205   9.355  12.773  1.3827 -0.0403  0.4953
20953SOL     OW69463   4.508   4.129   2.475 -0.2196  0.3207 -0.2356
20953SOL    HW169464   4.434   4.162   2.526  0.1594  0.3002  0.3351
20953SOL    HW269465   4.477   4.132   2.384 -0.9562  0.2103  0.0037
20954SOL     OW69466   3.729  11.854   6.621 -0.0330  0.2032 -0.3220
20954SOL    HW169467   3.735  11.850   6.716 -0.4330 -0.6428 -0.3239
20954SOL    HW269468   3.635  11.852   6.602  0.0512 -2.3909 -0.8043
20955SOL     OW69469   5.727   2.504   7.634 -0.2651 -0.1779  0.1074
20955SOL    HW169470   5.641   2.531   7.666 -0.7123  0.8724 -1.7789
20955SOL    HW269471   5.788   2.528   7.704 -1.0293  3.1275 -0.1743
20956SOL     OW69472   5.054   2.201   3.170  0.0335 -0.1563  0.1013
20956SOL    HW169473   4.993   2.274   3.156 -0.1765 -0.4090 -0.3198
20956SOL    HW269474   5.090   2.183   3.083  0.0786 -0.5618  0.2028
20957SOL     OW69475   4.376   8.295   5.349 -0.2150 -0.2683  0.5852
20957SOL    HW169476   4.362   8.309   5.255 -1.5504 -1.5832  0.5634
20957SOL    HW269477   4.365   8.383   5.387 -1.0478  0.0587 -0.3445
20958SOL     OW69478   8.790  10.594   2.023 -0.5352 -0.0281  0.6115
20958SOL    HW169479   8.787  10.569   1.931  1.0242  1.1488  0.1887
20958SOL    HW269480   8.745  10.523   2.069  0.2110 -1.5294 -0.8684
20959SOL     OW69481   8.085   1.000   6.558  0.1087  0.0285  0.3447
20959SOL    HW169482   8.143   1.075   6.545  1.2452 -0.4297  2.4458
20959SOL    HW269483   8.015   1.033   6.613 -0.5641  0.0551 -0.5028
20960SOL     OW69484   8.839   5.458   0.385 -0.4182 -0.4143 -0.1777
20960SOL    HW169485   8.885   5.401   0.323 -0.5383  0.9001 -1.5464
20960SOL    HW269486   8.891   5.455   0.465 -0.3585 -2.3162 -0.2483
20961SOL     OW69487   2.808  11.003  10.289  0.3554  0.7552 -0.3055
20961SOL    HW169488   2.900  11.010  10.314  0.2274 -1.3724  1.0382
20961SOL    HW269489   2.810  10.966  10.201  0.7557  2.7622 -1.1949
20962SOL     OW69490   9.567   8.518  11.366 -0.3429  0.6996  0.3074
20962SOL    HW169491   9.573   8.569  11.285  0.9220  0.1060  0.0003
20962SOL    HW269492   9.644   8.544  11.416  0.9305 -1.5903 -0.2969
20963SOL     OW69493   9.410   5.887  11.238 -0.2988 -0.5819 -0.7366
20963SOL    HW169494   9.454   5.809  11.272  1.0820 -0.1242 -1.3926
20963SOL    HW269495   9.475   5.957  11.245 -1.9170  0.8725  1.0702
20964SOL     OW69496   1.951   7.063  12.042 -0.1204 -0.9232 -0.1631
20964SOL    HW169497   1.860   7.062  12.071 -0.2322  2.1473 -0.0307
20964SOL    HW269498   1.946   7.083  11.948  0.3617  0.9699  0.1681
20965SOL     OW69499   0.757  10.125   2.163 -0.0728  0.5184 -0.4960
20965SOL    HW169500   0.762  10.029   2.163  0.4953  0.5398  0.0015
20965SOL    HW269501   0.666  10.144   2.187  0.5574  0.0808  2.7158
20966SOL     OW69502   2.250  10.755   5.432  0.0975  0.1588 -0.3699
20966SOL    HW169503   2.201  10.681   5.467  0.9123 -0.3476 -0.2585
20966SOL    HW269504   2.215  10.769   5.345 -1.2549  0.7754  0.2506
20967SOL     OW69505  11.878   9.463   1.703  0.1816 -0.0604  0.5799
20967SOL    HW169506  11.947   9.526   1.686 -1.6403  1.2395 -2.8138
20967SOL    HW269507  11.813   9.512   1.755  1.4804 -1.1961  3.5174
20968SOL     OW69508  10.912   0.828  11.751  0.0880  0.1475 -0.4029
20968SOL    HW169509  10.846   0.895  11.769  0.4547  0.2385  0.6297
20968SOL    HW269510  10.928   0.836  11.657  0.5231  1.8995 -0.2168
20969SOL     OW69511   0.245   6.816  10.478  0.5292  0.1891  0.6360
20969SOL    HW169512   0.180   6.862  10.531 -0.0711  1.5686 -1.1998
20969SOL    HW269513   0.199   6.740  10.443 -0.2470  1.3515 -0.9419
20970SOL     OW69514   8.929  12.760  11.751 -0.1330 -0.1914  0.7492
20970SOL    HW169515   8.957  12.811  11.827  1.2230  0.5333 -0.1900
20970SOL    HW269516   8.847  12.801  11.724  0.3537  0.7906  0.7021
20971SOL     OW69517  12.415   6.927   4.033  0.1911  0.9901  0.6384
20971SOL    HW169518  12.483   6.861   4.020 -1.8249 -1.4727  1.7511
20971SOL    HW269519  12.406   6.933   4.128 -1.5381  0.7556  0.5173
20972SOL     OW69520   7.784   6.734   9.284  0.9450  0.0377 -0.2593
20972SOL    HW169521   7.858   6.756   9.228  0.9403  2.6704  0.6329
20972SOL    HW269522   7.823   6.708   9.368  0.9151  0.6241 -0.0539
20973SOL     OW69523  10.902  11.888   5.933 -0.1850 -0.1502  0.0058
20973SOL    HW169524  10.824  11.863   5.884 -1.3173  1.0185  1.1524
20973SOL    HW269525  10.947  11.951   5.877 -0.5710 -0.1053 -0.2522
20974SOL     OW69526  10.942   6.209   4.355  0.3125 -0.3352  0.8296
20974SOL    HW169527  11.027   6.252   4.347 -0.7109  1.5928 -0.4565
20974SOL    HW269528  10.913   6.231   4.443  0.5868  0.1371  0.8100
20975SOL     OW69529   7.297  12.451  11.260 -0.3071  0.2085 -1.2603
20975SOL    HW169530   7.212  12.447  11.305  0.8162  1.0152  1.0658
20975SOL    HW269531   7.294  12.378  11.198 -2.1813 -0.6092 -0.3030
20976SOL     OW69532  11.060   7.950   2.210  0.5574 -0.0042  0.6076
20976SOL    HW169533  10.996   7.949   2.138  1.8560 -0.2484 -0.6004
20976SOL    HW269534  11.052   7.864   2.250  0.5127 -0.2327  0.1154
20977SOL     OW69535   2.964   0.270  10.771  0.3808  0.3719 -0.0376
20977SOL    HW169536   2.869   0.262  10.772  0.2854  1.3169  1.2021
20977SOL    HW269537   2.980   0.364  10.769  1.2525  0.2839  1.2286
20978SOL     OW69538  11.468   3.191   6.073 -0.1998  0.4858  0.1674
20978SOL    HW169539  11.532   3.236   6.128  1.0653  0.4304 -1.2142
20978SOL    HW269540  11.517   3.163   5.996 -1.3418 -1.7282  0.1669
20979SOL     OW69541  11.020   6.801   6.440 -0.1493 -0.1013 -0.5304
20979SOL    HW169542  11.014   6.803   6.345 -1.1004 -2.0307 -0.5768
20979SOL    HW269543  11.113   6.792   6.459  0.0503  0.3757 -1.2635
20980SOL     OW69544   6.573  11.657   6.005  0.0316  0.1983  0.3926
20980SOL    HW169545   6.488  11.688   6.036 -0.2143  0.7259 -0.7552
20980SOL    HW269546   6.619  11.736   5.977  0.3849 -0.2134 -0.2149
20981SOL     OW69547   0.007  11.964  11.383  0.1800 -0.1914  0.4887
20981SOL    HW169548   0.067  12.036  11.404  1.1745 -0.8736  0.0811
20981SOL    HW269549   0.028  11.941  11.293 -0.6845 -0.4777  0.3527
20982SOL     OW69550   2.980  10.285  10.843 -0.1161  0.0323  0.3303
20982SOL    HW169551   2.891  10.302  10.874 -0.6341  0.5497 -1.3230
20982SOL    HW269552   3.009  10.369  10.808  0.6838 -0.3657  0.0224
20983SOL     OW69553  10.989   4.278   9.550 -0.3695  0.3750  0.7090
20983SOL    HW169554  11.053   4.339   9.587  0.2078  0.1410  0.1099
20983SOL    HW269555  11.031   4.192   9.557 -1.6404 -0.1452  2.6135
20984SOL     OW69556  12.776   5.933   0.088 -0.1453  0.3717 -0.0340
20984SOL    HW169557  12.841   5.937   0.018  1.0035 -1.9195  0.8230
20984SOL    HW269558  12.801   6.003   0.148  0.5691  0.5270 -0.5012
20985SOL     OW69559   1.056  12.779   0.696  0.5187  0.6135 -0.4881
20985SOL    HW169560   1.137  12.829   0.691  1.6220 -0.6024  2.6945
20985SOL    HW269561   1.076  12.695   0.653  0.5560  0.7269 -0.6936
20986SOL     OW69562   9.929   0.576  10.398  0.0450  0.4018  0.3890
20986SOL    HW169563   9.879   0.497  10.420  1.2966 -0.5536 -0.0762
20986SOL    HW269564   9.929   0.626  10.479  0.6720 -0.8919  1.2270
20987SOL     OW69565   0.065  10.767   9.431  0.5716 -0.8103  0.3920
20987SOL    HW169566   0.054  10.726   9.516  0.2042  1.3648  1.4739
20987SOL    HW269567  -0.023  10.801   9.409  0.7048 -1.1720 -0.7556
20988SOL     OW69568  10.738  12.316   2.100  0.1232  0.4273  0.2569
20988SOL    HW169569  10.771  12.279   2.019  1.6865  0.4528  0.8570
20988SOL    HW269570  10.802  12.292   2.166 -0.9935  0.6086  1.4615
20989SOL     OW69571  10.533   7.752  12.354 -0.3052 -0.1420 -0.3245
20989SOL    HW169572  10.574   7.703  12.282 -0.6270 -1.2250  0.2113
20989SOL    HW269573  10.450   7.708  12.368 -0.0528 -0.2093  1.0129
20990SOL     OW69574  10.757   7.123   5.262 -0.1044  0.1874  0.4600
20990SOL    HW169575  10.775   7.202   5.211 -2.7299  1.7838  1.7605
20990SOL    HW269576  10.783   7.146   5.352 -0.9958 -0.3357  0.8715
20991SOL     OW69577   8.161  10.742  12.356  0.0574  0.3633 -0.3489
20991SOL    HW169578   8.234  10.804  12.361  2.2686 -2.1290  1.1912
20991SOL    HW269579   8.159  10.714  12.265  0.8293  0.6976 -0.4764
20992SOL     OW69580   7.634   9.038   3.375  0.3347  0.0474  0.1412
20992SOL    HW169581   7.566   8.998   3.428 -0.7203  0.0337 -1.1606
20992SOL    HW269582   7.685   8.965   3.342 -1.5289 -0.3394 -2.1543
20993SOL     OW69583   7.133   4.361   2.291 -0.5974  0.6155 -0.1190
20993SOL    HW169584   7.163   4.277   2.324 -2.0775  0.6789  1.5597
20993SOL    HW269585   7.160   4.363   2.199 -0.1440 -1.4823 -0.0620
20994SOL     OW69586   7.483  10.001   7.397  0.4812  0.5073  0.0858
20994SOL    HW169587   7.485  10.079   7.453  0.4369  1.3706 -1.0687
20994SOL    HW269588   7.472  10.036   7.308  0.3963 -0.8271 -0.4497
20995SOL     OW69589   9.342   7.704   4.234 -0.3033 -0.4265  0.1894
20995SOL    HW169590   9.408   7.757   4.188 -0.9176 -0.6938 -1.0447
20995SOL    HW269591   9.367   7.711   4.327  0.5530  0.7298 -0.0900
20996SOL     OW69592   8.634   7.866   8.164  0.2026 -0.2629  0.0012
20996SOL    HW169593   8.646   7.841   8.072  0.0355 -0.7657  0.1127
20996SOL    HW269594   8.541   7.853   8.180  0.2261 -0.1514  0.2349
20997SOL     OW69595   5.942   4.990  12.244  0.9785 -0.5901  0.0789
20997SOL    HW169596   5.977   5.003  12.156 -0.3754 -3.2106 -0.9488
20997SOL    HW269597   6.018   4.964  12.296  1.8367  1.1964 -0.1890
20998SOL     OW69598   6.139   9.178   4.579  0.4558  0.5177  0.1184
20998SOL    HW169599   6.071   9.192   4.644  1.3351  2.2258  0.7140
20998SOL    HW269600   6.154   9.083   4.580 -0.5677  0.3491  1.3193
20999SOL     OW69601   3.476   8.492  11.790  0.5568  0.9473 -0.0277
20999SOL    HW169602   3.568   8.513  11.808  1.0566 -1.3450  0.4290
20999SOL    HW269603   3.447   8.443  11.867 -1.4984  2.7377  0.4239
21000SOL     OW69604   4.925   2.814   4.995  0.2769 -0.3407 -0.0470
21000SOL    HW169605   4.929   2.748   4.926 -1.7653  0.5046 -1.0412
21000SOL    HW269606   4.832   2.824   5.014  0.7348  0.0928  2.2355
21001SOL     OW69607  12.605   9.898   5.888  0.0856  0.1651  0.5022
21001SOL    HW169608  12.588   9.857   5.973 -0.8329  0.1878  0.3394
21001SOL    HW269609  12.619   9.991   5.909 -0.1259  0.1689  0.6267
21002SOL     OW69610   4.781   4.971   2.642 -0.1883  0.1825 -0.1341
21002SOL    HW169611   4.871   4.964   2.610  0.7417  3.3903  1.4399
21002SOL    HW269612   4.747   5.051   2.603 -1.9514 -0.3081  0.2879
21003SOL     OW69613   2.883   7.448   5.234  0.2134  0.2871  0.2087
21003SOL    HW169614   2.938   7.410   5.303 -0.3142 -1.6080 -0.3344
21003SOL    HW269615   2.796   7.454   5.273  0.2615  0.8009  0.2378
21004SOL     OW69616   8.146  12.494   6.677 -0.2732 -0.0775  0.0201
21004SOL    HW169617   8.194  12.545   6.611  0.8802  1.1627  1.7293
21004SOL    HW269618   8.059  12.484   6.640  0.6412 -0.4811 -2.2137
21005SOL     OW69619   7.949   7.169  11.199  0.5826  0.2138  0.7347
21005SOL    HW169620   7.977   7.104  11.264 -2.1326 -0.3262  1.4980
21005SOL    HW269621   7.982   7.252  11.232  0.3405 -0.2247  2.1430
21006SOL     OW69622   7.971   9.804   1.053  0.6551  1.0836  0.0272
21006SOL    HW169623   7.952   9.713   1.033  0.1704  1.7305 -2.9752
21006SOL    HW269624   7.901   9.853   1.010  2.1849  2.9557 -0.4667
21007SOL     OW69625   6.352   4.151   0.267 -0.1510  0.3515  0.2035
21007SOL    HW169626   6.305   4.094   0.206  1.7960 -0.0700 -0.9925
21007SOL    HW269627   6.304   4.143   0.349 -1.3229 -1.1362 -0.5720
21008SOL     OW69628   3.972   5.753   5.501 -0.6473  0.0596  0.0681
21008SOL    HW169629   3.877   5.766   5.510 -0.7029 -0.7001  0.6286
21008SOL    HW269630   3.982   5.716   5.413 -0.6375  2.2250 -0.8992
21009SOL     OW69631  10.848   8.642   2.945 -0.3690  0.1590 -0.9546
21009SOL    HW169632  10.917   8.696   2.907  1.1338 -0.4284  0.7900
21009SOL    HW269633  10.824   8.581   2.875  1.4264 -0.1106 -1.3913
21010SOL     OW69634   3.282   0.843  10.815  0.1283  0.3940 -0.9681
21010SOL    HW169635   3.208   0.782  10.807  0.7073 -0.1520 -2.7306
21010SOL    HW269636   3.247   0.927  10.784 -0.2498  0.6166  0.0186
21011SOL     OW69637   3.259   2.778   9.967 -0.4324 -0.2793 -0.4063
21011SOL    HW169638   3.318   2.716   9.925 -1.8166 -0.7426 -1.7511
21011SOL    HW269639   3.245   2.743  10.054 -1.6069 -2.1967 -1.3149
21012SOL     OW69640  10.632   7.461   4.693  0.9726 -0.1652  0.0346
21012SOL    HW169641  10.643   7.415   4.610 -1.9075  0.0043 -0.5673
21012SOL    HW269642  10.579   7.402   4.747 -1.6009  1.7210 -0.2445
21013SOL     OW69643   2.233  11.479  10.873 -0.1845  0.7972 -0.0581
21013SOL    HW169644   2.288  11.546  10.912  0.9465  0.3535 -0.8287
21013SOL    HW269645   2.264  11.397  10.912 -0.0835  0.5148 -0.7080
21014SOL     OW69646   5.185   5.765   5.211  0.3044 -0.8053 -0.3504
21014SOL    HW169647   5.101   5.721   5.192  0.5106 -1.3592 -0.0263
21014SOL    HW269648   5.160   5.853   5.237 -0.0041 -0.0977 -2.8392
21015SOL     OW69649   3.099   0.024   7.494  0.2117  0.0898  0.0560
21015SOL    HW169650   3.178   0.047   7.444  0.8442 -1.4165  0.3020
21015SOL    HW269651   3.055  -0.042   7.441 -1.0656  1.1119 -0.2049
21016SOL     OW69652  10.626   2.713   5.036 -0.3242  0.0589  0.0154
21016SOL    HW169653  10.689   2.642   5.040 -0.0186  0.2662 -0.8599
21016SOL    HW269654  10.660   2.772   4.969 -1.4665  0.1534 -0.5091
21017SOL     OW69655   2.220   1.790   9.017  0.3976  0.0096 -0.0262
21017SOL    HW169656   2.293   1.749   9.065  0.3361 -2.7475 -2.0541
21017SOL    HW269657   2.255   1.805   8.929 -1.3035 -0.9212 -0.8980
21018SOL     OW69658  10.390  12.454  11.478 -0.1758 -0.3634 -0.1632
21018SOL    HW169659  10.423  12.416  11.560 -1.9193  0.3494  0.9211
21018SOL    HW269660  10.342  12.532  11.506 -1.5845 -0.6052 -1.7998
21019SOL     OW69661   4.011  12.520   5.063 -0.2269 -0.0832  0.0376
21019SOL    HW169662   3.953  12.459   5.016 -0.9246  1.0165 -0.5696
21019SOL    HW269663   3.991  12.605   5.025  2.7482  0.1833 -1.1574
21020SOL     OW69664   1.644   3.266   0.675  0.4909 -0.0767 -0.2298
21020SOL    HW169665   1.736   3.272   0.697  0.3049  0.7759  0.3598
21020SOL    HW269666   1.601   3.239   0.757  0.4197 -2.4075 -0.9659
21021SOL     OW69667   9.598   9.348  12.162 -0.0709 -0.8564  0.5412
21021SOL    HW169668   9.576   9.271  12.214  1.2053 -0.6510  1.4348
21021SOL    HW269669   9.547   9.419  12.200  0.8623 -0.7077  1.5549
21022SOL     OW69670   2.512  10.760   4.953  0.3560  0.0732 -0.1680
21022SOL    HW169671   2.601  10.740   4.985  0.3143  0.1328 -0.0136
21022SOL    HW269672   2.496  10.694   4.886  0.4301 -0.0809 -0.0381
21023SOL     OW69673   5.240   1.886  11.668 -0.0577  0.0992 -0.0655
21023SOL    HW169674   5.293   1.945  11.722 -1.3338  1.9825 -0.7789
21023SOL    HW269675   5.151   1.921  11.673 -0.8916 -1.7997 -0.5294
21024SOL     OW69676   0.961  12.411   6.976  0.3557  0.3408 -0.3679
21024SOL    HW169677   0.952  12.372   6.889 -2.6611 -1.1097  0.4688
21024SOL    HW269678   0.894  12.368   7.029  1.9142  1.3380  2.6587
21025SOL     OW69679   0.145   3.991   0.789  0.1111  0.0938 -0.1284
21025SOL    HW169680   0.111   4.007   0.701  1.5639  0.9468 -0.5656
21025SOL    HW269681   0.238   3.975   0.776  0.1850 -0.7019  1.1795
21026SOL     OW69682   6.177   1.365   4.746 -1.1304  1.0153 -0.2475
21026SOL    HW169683   6.243   1.362   4.677  0.3712 -1.2024  1.1473
21026SOL    HW269684   6.093   1.359   4.700 -0.1761 -0.3648 -1.9254
21027SOL     OW69685   8.716   0.168   5.959 -0.3757  0.0128  0.2752
21027SOL    HW169686   8.737   0.112   6.034  2.0351  0.3621 -0.0642
21027SOL    HW269687   8.684   0.250   5.999  2.5752  0.8886  1.1138
21028SOL     OW69688   7.840   7.341   5.248 -0.1348 -0.3885 -0.9063
21028SOL    HW169689   7.880   7.427   5.261 -1.5488  0.1726 -0.1181
21028SOL    HW269690   7.832   7.305   5.337  0.5586 -1.4147 -1.2336
21029SOL     OW69691   4.281  11.555   2.790 -0.2862  0.2433  0.3761
21029SOL    HW169692   4.226  11.482   2.764 -0.8732  1.0898 -0.8126
21029SOL    HW269693   4.365  11.537   2.747  0.4167 -1.0114  2.1353
21030SOL     OW69694   1.987   8.726   5.745 -0.3790  0.2371 -0.1030
21030SOL    HW169695   2.048   8.674   5.693 -0.7221 -1.2976  0.9598
21030SOL    HW269696   1.913   8.742   5.687 -1.3684 -2.6090  0.2126
21031SOL     OW69697   4.473  12.251   5.976 -0.7101  0.3957  0.0955
21031SOL    HW169698   4.386  12.257   6.015 -0.1262 -0.4685  1.5849
21031SOL    HW269699   4.480  12.161   5.945  0.5442 -0.3030  2.2385
21032SOL     OW69700   1.358   1.335  12.750 -0.1526  0.1648  0.4345
21032SOL    HW169701   1.315   1.274  12.811  0.7436 -1.0909 -0.1456
21032SOL    HW269702   1.319   1.315  12.665  1.9968 -1.5697 -0.2638
21033SOL     OW69703   2.066  10.155   0.526 -0.2679  0.3055 -0.1963
21033SOL    HW169704   2.030  10.070   0.551  0.7247 -0.3809 -1.0456
21033SOL    HW269705   2.140  10.168   0.586  1.3775 -0.7932 -1.9093
21034SOL     OW69706   0.785   2.532   8.755  0.2047  0.6736 -0.6801
21034SOL    HW169707   0.706   2.543   8.702  0.0874  2.3037 -0.2150
21034SOL    HW269708   0.857   2.543   8.692  0.0645  0.8010 -0.8220
21035SOL     OW69709   2.104   4.213   6.545  0.1772  0.3979 -0.4022
21035SOL    HW169710   2.022   4.244   6.584  0.5531  1.2455 -0.2633
21035SOL    HW269711   2.081   4.193   6.454 -0.3326 -0.0173 -0.1865
21036SOL     OW69712   8.100   6.079   3.142 -0.1620 -0.0050 -0.3546
21036SOL    HW169713   8.155   6.073   3.220  0.4593 -2.0312 -0.8741
21036SOL    HW269714   8.133   6.154   3.094 -1.1181  1.8319  1.6997
21037SOL     OW69715   9.475   8.797   1.048  0.4285 -0.4386  0.3050
21037SOL    HW169716   9.491   8.702   1.050 -0.3918 -0.5823  2.9073
21037SOL    HW269717   9.560   8.836   1.067  0.5230 -0.6864  0.3887
21038SOL     OW69718   5.881   2.049   4.263 -0.2663  0.5294 -0.1486
21038SOL    HW169719   5.972   2.042   4.235 -0.9583 -3.1440 -1.9597
21038SOL    HW269720   5.852   2.133   4.228  1.5547  0.3449 -2.3141
21039SOL     OW69721  11.402   9.370   1.372  0.0510 -0.3753  0.5724
21039SOL    HW169722  11.327   9.312   1.356 -0.1203 -0.6258  2.1164
21039SOL    HW269723  11.373   9.456   1.343 -1.8929  0.0977  3.5289
21040SOL     OW69724   8.272   5.465   3.794 -0.6916  0.6207  0.1401
21040SOL    HW169725   8.327   5.435   3.722 -0.8862  1.7943 -0.5360
21040SOL    HW269726   8.214   5.530   3.754  0.2574  2.5039  1.6150
21041SOL     OW69727   3.794   7.928   3.126 -0.0541 -0.1395 -0.0112
21041SOL    HW169728   3.714   7.875   3.125  1.0162 -1.8154  0.2686
21041SOL    HW269729   3.863   7.868   3.100  1.2285  1.1225  0.3669
21042SOL     OW69730  11.181   4.938   9.752  0.6846 -0.0650 -0.2611
21042SOL    HW169731  11.156   4.932   9.845  0.9619  1.8815 -0.0343
21042SOL    HW269732  11.237   4.861   9.738 -0.7864 -1.3949  0.6851
21043SOL     OW69733   3.244  12.720   3.066 -0.0803  0.4042  0.6276
21043SOL    HW169734   3.284  12.673   3.139  1.7994  2.0567  0.7613
21043SOL    HW269735   3.297  12.696   2.990 -0.5652  0.4768  0.2664
21044SOL     OW69736   0.371  11.891   9.655 -0.2796 -0.7067 -0.0925
21044SOL    HW169737   0.425  11.950   9.708 -0.6991 -0.6897  0.3249
21044SOL    HW269738   0.315  11.949   9.604  1.4996 -0.6362 -2.1240
21045SOL     OW69739   2.783   2.238   2.505 -0.2993  0.0859 -0.1065
21045SOL    HW169740   2.797   2.164   2.446 -0.2299 -0.2060  0.2744
21045SOL    HW269741   2.799   2.315   2.450  1.2317 -0.1934 -0.1094
21046SOL     OW69742   0.607   5.363   1.070  0.0361 -0.4145 -0.5249
21046SOL    HW169743   0.703   5.362   1.072  0.0657  0.8170  1.4465
21046SOL    HW269744   0.584   5.410   0.990  1.0855  0.0138 -0.5824
21047SOL     OW69745   7.151   5.938   3.100 -0.5066  0.1929 -0.2165
21047SOL    HW169746   7.123   5.999   3.031  2.2790  1.2850 -0.5070
21047SOL    HW269747   7.180   5.995   3.172 -0.0666 -0.8512  0.4608
21048SOL     OW69748   8.623   6.560  10.658  0.0560  0.0874 -0.1386
21048SOL    HW169749   8.549   6.580  10.716 -0.3354  3.1815 -1.5076
21048SOL    HW269750   8.599   6.477  10.617 -1.7808  0.1047  0.7832
21049SOL     OW69751   3.436   0.439   6.901  0.3549 -0.3188  0.0593
21049SOL    HW169752   3.351   0.480   6.918  0.3142 -0.4719  0.2309
21049SOL    HW269753   3.452   0.453   6.808  0.7250  0.8249  0.2744
21050SOL     OW69754   7.799   5.909  11.476 -0.2533  0.2667 -1.1788
21050SOL    HW169755   7.866   5.938  11.414 -0.4106 -0.4372 -1.6854
21050SOL    HW269756   7.836   5.831  11.517  0.0566  1.0023 -0.0079
21051SOL     OW69757  10.394   0.991   8.113 -0.5452  0.1032 -0.0857
21051SOL    HW169758  10.444   1.042   8.050 -2.0502  1.5674 -0.1801
21051SOL    HW269759  10.402   1.040   8.195 -0.7031 -0.3935  0.2333
21052SOL     OW69760   6.443   3.852   9.791  0.0224  0.0432  0.3187
21052SOL    HW169761   6.377   3.847   9.722  0.1852  1.1074  0.0606
21052SOL    HW269762   6.409   3.918   9.852  0.9307  0.7639  0.0735
21053SOL     OW69763   2.292  12.010   3.123  0.3046  0.2652 -0.1050
21053SOL    HW169764   2.231  11.999   3.195  0.7851  0.0598  0.2731
21053SOL    HW269765   2.279  11.933   3.068 -2.7049  2.1082 -2.2688
21054SOL     OW69766   4.283  12.227  10.153  0.1472  0.2306 -0.3817
21054SOL    HW169767   4.363  12.277  10.136  0.9783 -1.1396 -0.6660
21054SOL    HW269768   4.235  12.230  10.070 -0.4429  1.5912 -0.0247
21055SOL     OW69769   7.702   3.989   3.330 -0.8634 -0.1598  0.8202
21055SOL    HW169770   7.796   3.978   3.316 -1.0748 -1.6358  0.3280
21055SOL    HW269771   7.665   3.988   3.241 -1.1240  3.4450  0.7621
21056SOL     OW69772  10.781  10.910   5.093 -0.4650 -0.1876  0.2370
21056SOL    HW169773  10.686  10.900   5.094 -0.4874 -0.0724 -0.4117
21056SOL    HW269774  10.800  10.968   5.168 -0.5308 -3.1268  2.7251
21057SOL     OW69775   3.528  10.161   6.880 -0.0929 -0.2238 -0.3126
21057SOL    HW169776   3.583  10.122   6.947  0.5234  0.3984 -0.4449
21057SOL    HW269777   3.455  10.099   6.869  0.3391 -0.8274  0.1855
21058SOL     OW69778   0.456   0.828  10.508  0.1316  0.2113 -0.3382
21058SOL    HW169779   0.537   0.878  10.518 -0.3055  0.5825  2.0123
21058SOL    HW269780   0.483   0.749  10.461  1.2607  1.6003 -2.1340
21059SOL     OW69781   1.814   4.432   8.636  0.0920  0.4693 -0.0999
21059SOL    HW169782   1.855   4.452   8.552  0.6769  1.4118  0.3919
21059SOL    HW269783   1.870   4.364   8.675 -0.6902 -0.6418 -0.8394
21060SOL     OW69784   5.359   8.287   5.463 -0.0153 -0.0510 -0.4766
21060SOL    HW169785   5.339   8.317   5.552  0.0266  0.5474 -0.6656
21060SOL    HW269786   5.454   8.292   5.457 -0.0728  0.8900 -0.8807
21061SOL     OW69787   5.421   4.020   2.848  0.3734  0.3429  0.1393
21061SOL    HW169788   5.334   4.038   2.883  0.2854 -2.1042  1.4238
21061SOL    HW269789   5.404   3.976   2.764  0.4071  0.6827 -0.0470
21062SOL     OW69790   9.224   8.829   2.719  0.2394 -0.1026 -0.4342
21062SOL    HW169791   9.144   8.855   2.671  1.0741  0.3043 -1.6733
21062SOL    HW269792   9.192   8.791   2.801 -1.2173  0.2862 -0.7902
21063SOL     OW69793  10.007   6.009   2.059  0.2113  0.4012  0.0332
21063SOL    HW169794   9.928   6.060   2.040 -2.2770 -2.7465  1.1021
21063SOL    HW269795   9.999   5.931   2.005  2.5531 -0.1306  0.3262
21064SOL     OW69796   8.033  10.994   4.211  0.2785  0.1845 -0.0710
21064SOL    HW169797   7.940  10.978   4.225  0.7485 -2.7901  0.4843
21064SOL    HW269798   8.048  11.082   4.245 -1.9923  0.0395  1.5377
21065SOL     OW69799   2.695   4.459  10.287  0.5314  0.0156  0.4259
21065SOL    HW169800   2.746   4.518  10.342 -0.5946  1.5554 -0.1161
21065SOL    HW269801   2.604   4.485  10.302 -0.0320 -1.8288  0.4199
21066SOL     OW69802   3.902  11.052   2.188 -0.5047 -0.5516  0.0805
21066SOL    HW169803   3.943  10.966   2.200 -1.6949 -1.1372  0.1197
21066SOL    HW269804   3.937  11.083   2.104 -0.5589 -1.3707 -0.2612
21067SOL     OW69805   1.631   6.113   2.163 -0.1823  0.0938 -0.3146
21067SOL    HW169806   1.567   6.061   2.113  0.4596  0.2780 -1.3545
21067SOL    HW269807   1.714   6.067   2.150  0.9195  2.5664 -3.2852
21068SOL     OW69808   8.108  10.924  11.520 -0.4361  0.2006 -0.3234
21068SOL    HW169809   8.149  10.953  11.438  0.5239 -3.1425 -1.1597
21068SOL    HW269810   8.164  10.961  11.588  2.6550 -2.0802 -1.3856
21069SOL     OW69811   6.906   3.035   7.863 -0.0414 -0.0720 -0.0235
21069SOL    HW169812   6.910   2.970   7.933  0.0971  1.6221  1.6031
21069SOL    HW269813   6.978   3.012   7.805  1.0368 -0.3958  1.4028
21070SOL     OW69814   9.694  10.408   5.293  0.0625 -0.4946  0.1369
21070SOL    HW169815   9.753  10.334   5.310  0.0164 -0.1393  2.0063
21070SOL    HW269816   9.609  10.377   5.323  0.1512  0.4868  1.4945
21071SOL     OW69817   3.660   2.577  12.532 -0.0279 -0.1697 -0.1843
21071SOL    HW169818   3.566   2.560  12.537 -0.1543  0.0540 -1.3867
21071SOL    HW269819   3.700   2.491  12.539 -0.4321 -0.5009 -1.5352
21072SOL     OW69820   9.535   8.766  10.576 -0.2225 -0.2761 -0.3390
21072SOL    HW169821   9.553   8.851  10.616  0.4501  0.1477 -1.4984
21072SOL    HW269822   9.621   8.729  10.559 -0.5069 -1.2951  0.3291
21073SOL     OW69823   9.055   7.844  11.368  0.1096 -0.1878  0.3915
21073SOL    HW169824   9.118   7.785  11.328 -0.0554  0.1883 -0.4343
21073SOL    HW269825   9.060   7.924  11.316 -0.0404  0.3481  1.1829
21074SOL     OW69826   1.150   1.778  10.925 -0.4312  0.1159 -0.3175
21074SOL    HW169827   1.232   1.808  10.963 -0.3025 -2.2882  1.5353
21074SOL    HW269828   1.173   1.701  10.874 -1.5799 -0.9915  0.7770
21075SOL     OW69829   4.162   0.456   4.675  0.0609  0.3421  0.4704
21075SOL    HW169830   4.113   0.503   4.608  0.7951  1.0296  0.4022
21075SOL    HW269831   4.211   0.524   4.721  1.5615 -0.3988  0.0260
21076SOL     OW69832   8.207   9.620   4.556 -0.0048 -0.0904 -0.5331
21076SOL    HW169833   8.194   9.707   4.591 -0.0362  0.2617 -1.3848
21076SOL    HW269834   8.143   9.613   4.485 -0.4549 -1.0548 -0.0488
21077SOL     OW69835   0.663   8.978   9.019  0.1150  0.0979  0.2034
21077SOL    HW169836   0.648   8.935   8.935  1.0273 -2.1276  1.0929
21077SOL    HW269837   0.578   8.976   9.063  0.0055 -0.2150 -0.0197
21078SOL     OW69838  12.691  11.669   6.556  0.1868  0.2961 -0.1790
21078SOL    HW169839  12.643  11.730   6.612 -0.2052  0.8490 -1.0961
21078SOL    HW269840  12.716  11.722   6.480  2.7422  0.2037  0.4962
21079SOL     OW69841   8.818   5.108   0.895 -0.3837  0.5216  0.4067
21079SOL    HW169842   8.732   5.135   0.862 -0.1757 -0.8096 -1.3400
21079SOL    HW269843   8.800   5.078   0.985 -2.5866 -3.3728 -1.0988
21080SOL     OW69844  11.139  10.427  11.073 -0.2820  0.3751  0.2836
21080SOL    HW169845  11.173  10.339  11.087  1.3584  1.1768  1.6566
21080SOL    HW269846  11.111  10.456  11.160 -0.0484  1.4919  0.0036
21081SOL     OW69847   2.296  12.355   5.342 -0.4639  0.2028  0.1852
21081SOL    HW169848   2.294  12.386   5.252  1.1287  0.9880  0.4017
21081SOL    HW269849   2.203  12.349   5.367 -0.8841  1.8767 -0.8445
21082SOL     OW69850   0.456   3.190   8.388  0.4266  0.0650 -0.5044
21082SOL    HW169851   0.497   3.186   8.475 -1.0519 -0.5109  0.1993
21082SOL    HW269852   0.523   3.156   8.329  1.0831 -0.5797  0.5618
21083SOL     OW69853   0.217   5.928   0.868  0.4109 -0.8106 -0.2507
21083SOL    HW169854   0.244   5.869   0.938  1.8675 -1.6071 -1.4185
21083SOL    HW269855   0.240   5.881   0.787  0.0482  0.6497 -1.2396
21084SOL     OW69856   9.510  10.135   3.785 -0.6084 -0.6002  0.4890
21084SOL    HW169857   9.580  10.152   3.848 -2.0869 -0.5240  2.1903
21084SOL    HW269858   9.547  10.070   3.725  1.1314 -0.0515  0.8994
21085SOL     OW69859   6.186  12.728   1.178  0.0562 -0.4043 -0.3342
21085SOL    HW169860   6.153  12.646   1.214  0.2812 -0.1776  0.3961
21085SOL    HW269861   6.205  12.783   1.254  1.2572 -0.1941 -0.7517
21086SOL     OW69862   1.183  10.154  11.929  0.0017  0.1848 -0.0897
21086SOL    HW169863   1.247  10.084  11.918 -1.2723 -0.9728 -0.2495
21086SOL    HW269864   1.144  10.165  11.843 -0.1571  0.7731  0.0491
21087SOL     OW69865  10.207   6.547   4.145 -0.3289 -0.1863 -0.1912
21087SOL    HW169866  10.189   6.627   4.195  0.1938  0.8363 -1.5800
21087SOL    HW269867  10.233   6.483   4.211 -2.1365  0.3378  1.1132
21088SOL     OW69868   1.993  11.932   6.336 -0.1859 -0.1952 -0.2449
21088SOL    HW169869   2.004  11.991   6.412  0.6233 -1.0296  0.2991
21088SOL    HW269870   2.008  11.845   6.371 -0.4861 -0.6603 -1.2453
21089SOL     OW69871   4.703   9.725   3.302  0.6134  0.5400  0.2633
21089SOL    HW169872   4.677   9.706   3.212  0.0215  1.1549  0.2956
21089SOL    HW269873   4.623   9.755   3.344  0.8937  0.2760  0.9904
21090SOL     OW69874   0.010   7.065   2.956 -0.4777  0.3624  0.1547
21090SOL    HW169875  -0.040   7.091   2.878 -3.3331  0.5600  1.8824
21090SOL    HW269876   0.049   7.146   2.987 -3.3531  1.3907  1.4854
21091SOL     OW69877   0.762  10.397  10.380 -0.2345 -0.1007 -0.5554
21091SOL    HW169878   0.790  10.332  10.315  0.4490 -0.4015  0.0258
21091SOL    HW269879   0.825  10.468  10.370  0.6429 -0.6894  0.6212
21092SOL     OW69880   4.866   8.319   9.321  0.6438 -0.4129 -0.8335
21092SOL    HW169881   4.909   8.385   9.266 -1.0653  0.2414 -1.4407
21092SOL    HW269882   4.850   8.246   9.261  0.0859 -0.2744 -0.8623
21093SOL     OW69883   5.447  10.760  12.679 -0.2767  0.0573 -0.1531
21093SOL    HW169884   5.352  10.768  12.689 -0.0754 -0.2162  3.0105
21093SOL    HW269885   5.463  10.666  12.671 -0.2531  0.0614 -0.1568
21094SOL     OW69886   7.602  11.747   8.787 -0.5962  0.3568 -0.3191
21094SOL    HW169887   7.612  11.655   8.765 -0.4897  0.5531 -1.1372
21094SOL    HW269888   7.692  11.781   8.792 -0.6481  0.6994 -1.3509
21095SOL     OW69889   8.886   7.130   3.693  0.0225  0.0707 -0.4454
21095SOL    HW169890   8.873   7.080   3.612  0.5992 -0.1502 -0.4118
21095SOL    HW269891   8.919   7.215   3.663 -2.3411  1.0222 -0.5989
21096SOL     OW69892  12.671  10.164   3.074 -0.0581  0.2383  0.1254
21096SOL    HW169893  12.730  10.154   3.149  0.4987  1.1267 -0.1897
21096SOL    HW269894  12.583  10.165   3.113  0.2099  0.3782  0.7341
21097SOL     OW69895   2.647   9.869   9.761 -0.2045 -0.2120  0.1161
21097SOL    HW169896   2.598   9.949   9.778 -0.0126 -0.0440 -0.1149
21097SOL    HW269897   2.659   9.829   9.847 -2.1504 -1.0938  0.0293
21098SOL     OW69898   2.478  11.385  10.082 -0.5089 -0.2506  0.3003
21098SOL    HW169899   2.423  11.452  10.041  0.9300  0.8456  0.0911
21098SOL    HW269900   2.444  11.302  10.048 -0.6085  0.5104 -1.5973
21099SOL     OW69901   4.600  12.110   0.810  0.3219  0.1288  0.0636
21099SOL    HW169902   4.504  12.103   0.816  0.3544  0.6979  2.2856
21099SOL    HW269903   4.616  12.204   0.806  0.8077  0.0738  0.6524
21100SOL     OW69904   7.516   8.955   6.226  0.3397  0.5322  0.0787
21100SOL    HW169905   7.448   8.909   6.175  0.2775 -0.1951  0.7965
21100SOL    HW269906   7.469   8.991   6.301  0.6900  0.3156  0.4039
21101SOL     OW69907   1.787   3.167  10.772  1.0212 -0.2339 -0.2414
21101SOL    HW169908   1.830   3.082  10.781  1.8146 -0.3895 -3.9259
21101SOL    HW269909   1.760   3.171  10.681  0.3338  3.1903 -0.0378
21102SOL     OW69910   2.424   5.888  10.854  0.8859  0.1518 -0.8496
21102SOL    HW169911   2.331   5.869  10.845  0.6901 -0.1256  1.2522
21102SOL    HW269912   2.467   5.802  10.850  0.8651  0.0998 -0.1029
21103SOL     OW69913   8.559  11.810   0.546  0.2178  0.5317  0.6217
21103SOL    HW169914   8.530  11.873   0.479 -0.4307 -1.5166 -1.1662
21103SOL    HW269915   8.598  11.738   0.495 -0.8909 -1.4316  2.3698
21104SOL     OW69916   2.663   5.133   9.237  0.2411  0.4788  0.0621
21104SOL    HW169917   2.621   5.081   9.306 -2.2817  0.3593 -1.4586
21104SOL    HW269918   2.749   5.092   9.226 -0.5818 -1.6027  0.8655
21105SOL     OW69919  11.393   9.018  12.294  0.3019 -0.9202 -0.0996
21105SOL    HW169920  11.359   9.001  12.206 -0.4274 -1.4704  0.2796
21105SOL    HW269921  11.488   9.007  12.286  0.2569 -0.7994 -0.8515
21106SOL     OW69922   0.381   1.331   6.441  0.2679  0.0047 -0.1426
21106SOL    HW169923   0.376   1.323   6.346 -1.0907 -0.1135 -0.0675
21106SOL    HW269924   0.456   1.389   6.456 -0.3232  1.1049 -1.3366
21107SOL     OW69925   5.417   4.274   5.846  0.1896 -0.4750 -0.0309
21107SOL    HW169926   5.451   4.330   5.775 -1.5550  0.1823 -0.4044
21107SOL    HW269927   5.416   4.186   5.809  1.5171 -0.5253  0.0207
21108SOL     OW69928   9.522   0.618   4.677  0.3921 -0.0658  0.1025
21108SOL    HW169929   9.458   0.618   4.748  0.1534 -1.9657 -0.0824
21108SOL    HW269930   9.506   0.701   4.632 -1.7285 -0.3296  0.2542
21109SOL     OW69931   5.185   6.275   5.306  0.5739 -0.8458 -0.3087
21109SOL    HW169932   5.138   6.316   5.233  0.9907  0.7807  0.2908
21109SOL    HW269933   5.259   6.333   5.323  0.4248 -1.1233  1.4683
21110SOL     OW69934   6.206   8.612  12.447 -0.4979  0.3099 -0.6362
21110SOL    HW169935   6.150   8.536  12.431 -0.7994  0.7932 -2.0080
21110SOL    HW269936   6.290   8.574  12.474 -0.6206 -0.5263 -1.3775
21111SOL     OW69937  11.078   9.243  12.770  0.3851  0.1398 -0.1887
21111SOL    HW169938  11.112   9.263  12.857  0.6801  0.8987 -0.4667
21111SOL    HW269939  11.148   9.195  12.727 -0.0885 -1.0008  0.2723
21112SOL     OW69940   8.321  11.624   2.380 -0.0958  0.0190 -0.3940
21112SOL    HW169941   8.353  11.607   2.291 -0.4546  1.2632 -0.7859
21112SOL    HW269942   8.254  11.691   2.369 -0.8982 -0.5578  0.7164
21113SOL     OW69943   8.073   7.652   6.144  0.0494 -0.5890 -0.2682
21113SOL    HW169944   8.075   7.732   6.091  1.1523  0.1709  0.8532
21113SOL    HW269945   8.014   7.673   6.216  1.9918  0.0689  1.2181
21114SOL     OW69946  12.184   5.317   0.241 -0.3319  0.8234  0.6280
21114SOL    HW169947  12.170   5.304   0.147  4.9559  1.3578 -0.5215
21114SOL    HW269948  12.204   5.410   0.249  1.5058  0.3757  1.7988
21115SOL     OW69949   4.247   1.076   9.339  0.2227  0.3666  0.4387
21115SOL    HW169950   4.212   1.014   9.404 -2.4489  1.4965  0.1928
21115SOL    HW269951   4.252   1.025   9.258 -1.4128  0.2601  0.3725
21116SOL     OW69952   9.813   5.474   8.487  0.4848  0.3037 -0.6069
21116SOL    HW169953   9.908   5.479   8.489  0.5923 -1.3690  1.2342
21116SOL    HW269954   9.794   5.381   8.480 -1.0011  0.5089  0.1852
21117SOL     OW69955   7.681   3.108  11.792  0.0119  0.1580 -0.0414
21117SOL    HW169956   7.607   3.063  11.832 -0.3198  0.1417 -0.6657
21117SOL    HW269957   7.672   3.199  11.820 -2.1898  0.9300 -2.7428
21118SOL     OW69958   5.037   7.233   8.200  0.0402  0.0932 -0.0974
21118SOL    HW169959   5.012   7.148   8.164 -2.7524  1.6382 -2.1311
21118SOL    HW269960   5.086   7.276   8.129 -0.0759  0.8448  0.2691
21119SOL     OW69961   9.840   3.572  11.170 -0.5476 -0.1107  0.1512
21119SOL    HW169962   9.842   3.667  11.184 -0.6270 -0.0754 -0.0754
21119SOL    HW269963   9.806   3.537  11.253 -1.5220  0.1375 -0.1331
21120SOL     OW69964   3.161   6.020   9.010  0.2995  0.0088 -0.1444
21120SOL    HW169965   3.138   6.017   9.103 -0.3347  0.0660 -0.2949
21120SOL    HW269966   3.102   6.086   8.973 -1.4223 -1.9652 -1.1051
21121SOL     OW69967   4.615   6.828  11.057  0.5954  0.1127  0.4384
21121SOL    HW169968   4.664   6.757  11.099  0.9708  0.8656  1.3023
21121SOL    HW269969   4.540   6.784  11.016  1.3170 -0.8974  0.1564
21122SOL     OW69970   0.178   7.021   8.854 -0.0619  0.5887  0.0511
21122SOL    HW169971   0.200   7.085   8.785 -0.6688  2.1710  1.2664
21122SOL    HW269972   0.110   6.966   8.815  0.9033  0.2457 -1.2362
21123SOL     OW69973  10.327   6.929   1.583 -0.3033  0.1918 -0.0278
21123SOL    HW169974  10.392   6.984   1.539  0.0231 -0.6634 -0.6431
21123SOL    HW269975  10.324   6.849   1.531 -1.5357  0.0395  0.2482
21124SOL     OW69976   3.031  12.565   1.255 -0.2970  0.3595  0.0053
21124SOL    HW169977   2.948  12.599   1.223  0.2029  0.6234 -1.0349
21124SOL    HW269978   3.061  12.505   1.187 -0.1917 -0.6416  0.9026
21125SOL     OW69979   7.680   9.225   2.160  0.3441 -0.0287  0.1037
21125SOL    HW169980   7.599   9.193   2.121 -0.3343  2.1613 -0.3807
21125SOL    HW269981   7.743   9.154   2.145 -1.6520 -2.2262  1.3495
21126SOL     OW69982   5.831   4.962   1.073 -0.4234 -0.1825 -0.7869
21126SOL    HW169983   5.891   4.898   1.111  0.1745  1.1395  0.6052
21126SOL    HW269984   5.886   5.039   1.054 -1.4739  0.7036 -0.3886
21127SOL     OW69985   7.889   9.953   6.159 -0.7016 -0.0533 -0.3263
21127SOL    HW169986   7.937   9.892   6.104 -1.0839 -1.0369  0.4031
21127SOL    HW269987   7.890   9.913   6.246 -1.9746  0.3931 -0.0810
21128SOL     OW69988   5.749   1.695  11.882 -0.2643  0.2693  0.8376
21128SOL    HW169989   5.717   1.607  11.903 -0.1345 -0.0430 -0.1870
21128SOL    HW269990   5.672   1.751  11.887 -0.5745 -0.1100  0.4098
21129SOL     OW69991   7.896   8.795  11.275 -0.3281 -0.1055 -0.2119
21129SOL    HW169992   7.913   8.737  11.349 -0.4502 -0.2917 -0.3298
21129SOL    HW269993   7.964   8.774  11.212  0.6139  0.9954  0.3891
21130SOL     OW69994   5.299   0.536   5.877 -0.4847  0.0656 -0.2900
21130SOL    HW169995   5.214   0.564   5.842 -0.5027 -0.9633 -1.1285
21130SOL    HW269996   5.338   0.486   5.805 -0.2646 -1.6483  0.9662
21131SOL     OW69997   1.121   8.867   0.814 -0.3793 -0.7915 -0.3551
21131SOL    HW169998   1.127   8.859   0.909 -1.3253  0.0890 -0.2102
21131SOL    HW269999   1.059   8.798   0.788 -1.7535  0.2851 -0.0739
21132SOL     OW70000  12.775   7.367   1.394 -0.5958  0.5565 -0.0136
21132SOL    HW170001  12.830   7.289   1.392 -1.0035  0.1601  1.8870
21132SOL    HW270002  12.808   7.422   1.323  1.0203 -0.4618 -0.0977
21133SOL     OW70003   3.563   7.848  11.882  0.3125 -0.0759 -0.0313
21133SOL    HW170004   3.637   7.800  11.919  0.6251 -0.5107 -1.1981
21133SOL    HW270005   3.573   7.840  11.787 -0.7537  0.5889 -0.2216
21134SOL     OW70006  10.485   0.255   0.862 -0.3534  0.3158 -0.6722
21134SOL    HW170007  10.397   0.237   0.831  0.2263  0.0571 -2.2647
21134SOL    HW270008  10.527   0.169   0.867 -0.0117  0.4868 -0.5070
21135SOL     OW70009   6.472   0.951   7.292 -0.5438 -0.1166 -0.2635
21135SOL    HW170010   6.564   0.944   7.317 -1.4210 -0.8297  3.3916
21135SOL    HW270011   6.456   0.873   7.239  0.7553 -0.4649 -0.1784
21136SOL     OW70012   9.963   9.584   2.036  0.0717 -0.3684  0.0321
21136SOL    HW170013   9.896   9.642   1.998 -0.8588 -0.3429  1.6549
21136SOL    HW270014  10.046   9.624   2.009 -0.5595  0.6246 -0.5153
21137SOL     OW70015   4.630   6.114   8.984 -0.1911 -0.8027 -0.9052
21137SOL    HW170016   4.679   6.065   9.050 -1.5189 -0.7460  0.1782
21137SOL    HW270017   4.629   6.056   8.907 -2.3267 -2.9326  0.5607
21138SOL     OW70018   4.198   3.443   9.258 -0.3336 -0.4183 -0.0513
21138SOL    HW170019   4.148   3.362   9.269 -0.3353 -0.4101  0.0045
21138SOL    HW270020   4.158   3.486   9.182  0.0789 -0.7749 -0.4744
21139SOL     OW70021  10.127  11.690   0.534  0.0551  0.3051 -0.2132
21139SOL    HW170022  10.122  11.779   0.569 -0.1444 -0.3199  1.4257
21139SOL    HW270023  10.044  11.649   0.560  0.0381 -0.3000 -1.1643
21140SOL     OW70024   7.847   1.704   4.488 -0.2361 -0.6806  0.4097
21140SOL    HW170025   7.787   1.690   4.561 -0.1976 -0.0502  0.5691
21140SOL    HW270026   7.791   1.732   4.416 -0.3471 -1.8539  0.0105
21141SOL     OW70027   6.395   4.582  10.118  0.2119  0.0826  0.2264
21141SOL    HW170028   6.321   4.587  10.058  0.8985 -0.7082 -0.7337
21141SOL    HW270029   6.405   4.670  10.152 -0.4666  0.4489 -0.4934
21142SOL     OW70030  11.044   0.006   7.607 -0.4402 -0.4024  0.5005
21142SOL    HW170031  11.007  -0.005   7.694 -1.1918 -2.6075 -0.0308
21142SOL    HW270032  11.125  -0.044   7.609 -1.2461 -1.8068 -0.4895
21143SOL     OW70033   2.494   3.240  11.251 -0.2657 -0.3933 -0.2506
21143SOL    HW170034   2.481   3.156  11.206  1.5631  0.8085 -3.3246
21143SOL    HW270035   2.489   3.305  11.182  1.9848  1.7148  1.3963
21144SOL     OW70036   4.979   7.437  12.509 -0.1677  0.3980  0.0957
21144SOL    HW170037   5.024   7.461  12.589  1.5711 -1.1367 -0.3595
21144SOL    HW270038   5.048   7.408  12.450 -1.4298  1.1876 -1.8748
21145SOL     OW70039   9.427   7.571   4.789  0.0271 -0.3959  0.3782
21145SOL    HW170040   9.332   7.579   4.786 -0.1336 -2.0101  0.7380
21145SOL    HW270041   9.448   7.503   4.725  0.6538 -2.0658  2.2478
21146SOL     OW70042   6.948   6.531   8.899 -0.1309 -0.1487  0.0966
21146SOL    HW170043   7.008   6.502   8.831  0.0223  1.8153 -0.6739
21146SOL    HW270044   6.981   6.491   8.980  1.1530 -0.5236 -0.5904
21147SOL     OW70045   5.777  12.489   6.903 -0.4652  0.2272  0.4018
21147SOL    HW170046   5.786  12.583   6.915 -0.4979  0.1089  1.4275
21147SOL    HW270047   5.684  12.471   6.919 -0.3027 -0.0827  1.0539
21148SOL     OW70048   2.186   5.294   5.989  0.1746  0.1798  0.4146
21148SOL    HW170049   2.227   5.257   6.067  1.1149 -1.0121 -0.6137
21148SOL    HW270050   2.093   5.296   6.010  0.4777  0.5529  1.8240
21149SOL     OW70051   4.496   3.504   9.322  0.2345 -0.2329 -0.0881
21149SOL    HW170052   4.505   3.419   9.278  1.1702 -2.8468  4.5205
21149SOL    HW270053   4.573   3.509   9.379 -0.4077  3.2582  0.6874
21150SOL     OW70054   6.636   2.882   6.167  0.2078  0.5047 -0.4809
21150SOL    HW170055   6.605   2.881   6.258  0.8925 -0.3326 -0.2373
21150SOL    HW270056   6.565   2.842   6.117  0.6173 -0.8954 -0.0025
21151SOL     OW70057   8.324   8.576   0.872  0.4023  0.0549  0.2874
21151SOL    HW170058   8.332   8.525   0.953  2.1782 -2.8462 -1.5662
21151SOL    HW270059   8.252   8.536   0.825 -0.1649  1.2755  0.0732
21152SOL     OW70060   6.354   2.250   4.247 -0.1507  0.1088  0.1448
21152SOL    HW170061   6.387   2.331   4.287 -0.3201  0.2147  0.0717
21152SOL    HW270062   6.271   2.276   4.206 -0.4537 -0.2064  0.5402
21153SOL     OW70063   1.776  10.357   5.168 -0.0399  0.0820 -0.3653
21153SOL    HW170064   1.692  10.349   5.124 -0.8471 -0.9610  1.2773
21153SOL    HW270065   1.803  10.267   5.184  0.9339  0.4262 -0.0089
21154SOL     OW70066   0.984   8.079   5.668  0.0487 -0.1813  0.8564
21154SOL    HW170067   1.045   8.152   5.672  0.6120 -0.6694  1.3234
21154SOL    HW270068   0.982   8.044   5.758 -1.2789  0.1261  0.9615
21155SOL     OW70069   9.017  10.959  11.850 -0.3997  0.0990 -0.1524
21155SOL    HW170070   9.036  10.892  11.786 -1.5286 -1.5062  1.1070
21155SOL    HW270071   9.096  11.013  11.854 -0.6404  0.9107 -3.5457
21156SOL     OW70072   9.509  10.268   9.976  0.1436 -0.7339  0.6406
21156SOL    HW170073   9.556  10.329   9.919 -1.0662 -2.1868 -2.1547
21156SOL    HW270074   9.577  10.219  10.022  1.1543  1.0858  1.1704
21157SOL     OW70075  11.587   7.029  12.311  0.5584 -0.0968 -0.3405
21157SOL    HW170076  11.548   6.993  12.390  0.2628 -1.1937 -0.9684
21157SOL    HW270077  11.545   6.982  12.239  0.5539  1.1395 -1.1750
21158SOL     OW70078  11.303   4.138   2.320 -0.3934 -0.0488  0.0716
21158SOL    HW170079  11.272   4.148   2.230  0.3584 -1.3335 -0.3624
21158SOL    HW270080  11.269   4.214   2.366  0.2868  1.3290 -1.5920
21159SOL     OW70081  10.136   0.382   5.780 -0.0484  0.1740 -0.2794
21159SOL    HW170082  10.107   0.352   5.866 -2.1978  1.5072 -0.4797
21159SOL    HW270083  10.089   0.326   5.718 -1.0486  1.3110 -0.5903
21160SOL     OW70084   6.249   9.611   2.295 -0.3925 -0.1843  0.2884
21160SOL    HW170085   6.162   9.633   2.330 -1.6053 -0.3222 -2.4192
21160SOL    HW270086   6.305   9.684   2.322 -0.8326 -0.8760  3.5140
21161SOL     OW70087   3.725  12.775   7.392 -0.0829  0.0764 -0.3813
21161SOL    HW170088   3.729  12.852   7.336 -0.6028  1.1191  0.9597
21161SOL    HW270089   3.759  12.704   7.337  2.3986  1.6208 -1.0330
21162SOL     OW70090   4.310   5.123   2.537 -0.0222  0.2974 -0.2563
21162SOL    HW170091   4.243   5.097   2.473 -0.9733 -0.6050  1.0432
21162SOL    HW270092   4.263   5.126   2.621  1.8107 -1.8433  0.9720
21163SOL     OW70093   7.413   5.273  11.288 -0.4720 -0.9142  0.2241
21163SOL    HW170094   7.427   5.178  11.292 -0.5944 -1.0875 -2.1185
21163SOL    HW270095   7.494   5.307  11.251 -0.0249  0.0556  2.0218
21164SOL     OW70096   0.209   2.384   2.720 -0.1234  0.2592  0.4217
21164SOL    HW170097   0.192   2.310   2.779 -0.8027 -0.4741 -0.6548
21164SOL    HW270098   0.205   2.346   2.632  0.0380  1.4879 -0.1398
21165SOL     OW70099  11.989   3.925   0.313  0.3158 -0.4680  0.3882
21165SOL    HW170100  11.988   3.900   0.220 -0.3260 -1.0024  0.5333
21165SOL    HW270101  12.074   3.895   0.345  1.7199  2.0713 -0.6342
21166SOL     OW70102   4.064   2.902  10.711  0.3348 -0.0043  0.1388
21166SOL    HW170103   4.098   2.835  10.770 -0.5849 -0.7432 -0.1396
21166SOL    HW270104   3.986   2.862  10.672  0.4755  0.7672 -0.9746
21167SOL     OW70105  11.930   9.561   7.159  0.0163 -0.0221 -0.1880
21167SOL    HW170106  11.852   9.570   7.214 -0.2362  1.0299 -0.6976
21167SOL    HW270107  11.987   9.502   7.208 -0.9947 -0.6229  0.3060
21168SOL     OW70108   1.170   0.977   9.227  0.1081  0.9065  0.2103
21168SOL    HW170109   1.151   1.018   9.142  1.6816  1.2950  0.0102
21168SOL    HW270110   1.099   1.005   9.284 -0.6232  1.1738 -0.8161
21169SOL     OW70111   3.408   5.554   6.212 -0.0211  0.3304 -0.3451
21169SOL    HW170112   3.503   5.559   6.208 -0.0684  1.6568 -0.2994
21169SOL    HW270113   3.389   5.538   6.305  0.1354  0.8863 -0.2150
21170SOL     OW70114   0.406   0.721   5.713 -0.6719 -0.0205  0.1343
21170SOL    HW170115   0.404   0.685   5.625 -0.6125 -2.0424  0.9042
21170SOL    HW270116   0.473   0.790   5.710  0.6028 -1.2460 -0.9796
21171SOL     OW70117  10.483   7.279  11.595  0.2372 -0.2587 -0.4157
21171SOL    HW170118  10.546   7.300  11.526 -0.9032  0.4078 -1.2869
21171SOL    HW270119  10.504   7.341  11.665  0.4014  0.1324 -0.8026
21172SOL     OW70120  11.050   8.774   2.828  0.2594 -0.0887  0.4117
21172SOL    HW170121  11.141   8.799   2.846 -0.2754  1.0410  1.7633
21172SOL    HW270122  11.049   8.752   2.735  1.8875 -0.0151  0.3425
21173SOL     OW70123   3.310   1.803  12.227 -0.1874 -0.4873 -0.6062
21173SOL    HW170124   3.379   1.737  12.236 -0.4358 -0.6022  0.6253
21173SOL    HW270125   3.237   1.769  12.279 -0.1881  0.9206  0.3911
21174SOL     OW70126  11.392  10.444   4.095 -0.4293  0.1480 -0.0376
21174SOL    HW170127  11.361  10.534   4.089 -0.5187  0.2165  1.2127
21174SOL    HW270128  11.312  10.391   4.101 -0.3647  0.0179 -0.2798
21175SOL     OW70129   2.925   1.370  12.496  0.2613  0.5219 -0.1078
21175SOL    HW170130   2.837   1.347  12.524  0.3524  1.3489  0.9417
21175SOL    HW270131   2.950   1.301  12.435 -1.2095  0.4159 -0.6421
21176SOL     OW70132   3.622   5.056   6.812  0.0289 -0.0145  0.4091
21176SOL    HW170133   3.711   5.024   6.830  0.6425  1.3597 -0.0443
21176SOL    HW270134   3.584   5.071   6.898  1.1279  1.6818  0.6522
21177SOL     OW70135   1.021   9.685   9.426  0.0916  0.0798  0.2762
21177SOL    HW170136   1.035   9.624   9.499  0.1438  0.5739  0.6887
21177SOL    HW270137   1.108   9.699   9.389  0.7851  2.7488  2.5138
21178SOL     OW70138   1.287   1.119   6.372  0.1348  0.0355  0.0295
21178SOL    HW170139   1.270   1.209   6.346 -0.5418  0.5616  2.0919
21178SOL    HW270140   1.381   1.118   6.393 -0.1187  0.6510  1.2922
21179SOL     OW70141   9.194   4.717   9.524 -0.2469  0.4285  0.1732
21179SOL    HW170142   9.118   4.724   9.582 -0.6130 -0.0424 -0.2406
21179SOL    HW270143   9.232   4.632   9.544 -1.2580 -0.4094 -1.3130
21180SOL     OW70144   5.120  12.209  10.962 -0.1042 -0.1649  0.0593
21180SOL    HW170145   5.118  12.286  10.906  1.0208 -0.1435  0.0179
21180SOL    HW270146   5.053  12.151  10.927 -0.7300  0.6566 -0.1100
21181SOL     OW70147   7.239  12.643   7.627 -0.0062 -0.2275  0.3427
21181SOL    HW170148   7.253  12.549   7.622  0.2339 -0.1617 -0.4146
21181SOL    HW270149   7.326  12.680   7.646 -0.0998 -0.1613  0.6427
21182SOL     OW70150   6.840   7.028   7.372 -0.1785 -0.2537 -0.4375
21182SOL    HW170151   6.768   6.988   7.324 -1.5133 -1.8082  2.5689
21182SOL    HW270152   6.909   6.962   7.372  0.3563  0.2807 -1.2678
21183SOL     OW70153   8.896   7.367   8.146  0.1898 -0.1760  0.1114
21183SOL    HW170154   8.887   7.305   8.219  1.5512  0.5146  0.9172
21183SOL    HW270155   8.978   7.414   8.165  0.1552  0.5781 -1.4584
21184SOL     OW70156   9.113   5.301   9.948  0.0620 -0.2843  0.3281
21184SOL    HW170157   9.078   5.227   9.899  0.3979 -1.2184  1.4464
21184SOL    HW270158   9.090   5.378   9.896 -0.4191 -1.1611 -0.7847
21185SOL     OW70159  12.402   5.087   4.215 -0.4887  0.4984  0.2733
21185SOL    HW170160  12.400   4.994   4.197  0.2189  0.6635 -0.7517
21185SOL    HW270161  12.311   5.115   4.214 -0.6426 -0.0227 -0.3067
21186SOL     OW70162   7.218   9.117  10.936 -0.1509  0.4580 -0.1735
21186SOL    HW170163   7.180   9.144  10.852 -1.1133  1.4531  0.5486
21186SOL    HW270164   7.284   9.184  10.955  0.9826 -0.4675 -0.7214
21187SOL     OW70165  12.532   3.255   2.546  0.4501 -0.0545  0.0500
21187SOL    HW170166  12.567   3.320   2.607 -0.1275  2.7417 -2.4146
21187SOL    HW270167  12.438   3.269   2.546  0.3993 -0.2530 -1.1830
21188SOL     OW70168   7.153  10.134   1.230 -0.4280  0.3077  0.0070
21188SOL    HW170169   7.111  10.209   1.187 -0.5646  0.0505 -0.3062
21188SOL    HW270170   7.087  10.066   1.229 -0.6132  0.4630  1.0929
21189SOL     OW70171   1.987   3.700   2.183  0.3345  0.2301  0.1747
21189SOL    HW170172   2.046   3.652   2.241 -0.6430 -1.5017 -0.1775
21189SOL    HW270173   1.921   3.635   2.158 -1.9618  2.1765  0.8745
21190SOL     OW70174   6.067   4.059  11.745  0.2359 -0.1526 -0.3966
21190SOL    HW170175   6.123   4.044  11.668 -1.0115 -0.1946 -1.3148
21190SOL    HW270176   6.022   3.976  11.759 -1.0770  0.4607 -0.8872
21191SOL     OW70177   3.674   4.162  10.518  0.0842 -0.4067 -0.1300
21191SOL    HW170178   3.698   4.094  10.581  0.5112  0.4403  0.6400
21191SOL    HW270179   3.703   4.127  10.434 -0.5054 -1.5621  0.1276
21192SOL     OW70180   1.335   0.852   6.675 -0.5217  0.4909  0.6282
21192SOL    HW170181   1.304   0.777   6.625  0.1965  0.3680  0.3680
21192SOL    HW270182   1.401   0.893   6.619 -1.0339  1.4290  0.6820
21193SOL     OW70183   6.773   4.093   6.842  0.0812 -0.5995 -0.3223
21193SOL    HW170184   6.714   4.104   6.768 -0.8835  0.3774  0.5493
21193SOL    HW270185   6.752   4.006   6.876  1.4200 -1.6027 -1.8950
21194SOL     OW70186   3.000  11.031  11.567 -0.1891  0.7683  0.4534
21194SOL    HW170187   2.947  11.109  11.553 -0.7645 -0.0784 -3.5390
21194SOL    HW270188   2.936  10.959  11.567  0.5502  0.0956  1.0998
21195SOL     OW70189   8.930  11.689  10.292 -0.3256 -0.2333 -0.2796
21195SOL    HW170190   8.860  11.661  10.352 -0.5408 -0.3730 -0.5887
21195SOL    HW270191   8.951  11.610  10.242  2.4014 -1.1470  2.0593
21196SOL     OW70192  10.384   0.846  10.909  0.1347  0.4382 -0.1155
21196SOL    HW170193  10.411   0.934  10.935 -0.6630  0.4835  0.5809
21196SOL    HW270194  10.465   0.804  10.878  0.4820  1.4835 -0.6772
21197SOL     OW70195   8.493  10.907   4.451 -0.0869  0.1314 -0.3479
21197SOL    HW170196   8.560  10.919   4.384 -0.8389  1.1604 -0.9510
21197SOL    HW270197   8.444  10.829   4.424 -0.7299  0.8488 -1.3284
21198SOL     OW70198   7.737   0.688  12.390  0.1225 -0.1237  0.2506
21198SOL    HW170199   7.706   0.599  12.372 -2.1087  0.1532  2.1330
21198SOL    HW270200   7.827   0.676  12.421  0.6030 -1.4610 -1.4582
21199SOL     OW70201   7.728   8.794   3.310  0.2247 -0.0160  0.2799
21199SOL    HW170202   7.679   8.713   3.293  1.2882 -0.8965  1.2823
21199SOL    HW270203   7.788   8.802   3.236 -0.1759  0.0974 -0.0362
21200SOL     OW70204   6.506  10.378   0.939  0.5730 -0.4162 -0.0357
21200SOL    HW170205   6.411  10.369   0.935  0.4888  0.6906 -1.0591
21200SOL    HW270206   6.530  10.415   0.854  1.9164 -0.6121  0.2348
21201SOL     OW70207   7.874   2.725   4.130 -0.1952  0.5259  0.5085
21201SOL    HW170208   7.915   2.703   4.213 -1.4911  0.3700  1.1351
21201SOL    HW270209   7.923   2.800   4.097  0.1375  0.7728  1.5634
21202SOL     OW70210   7.979  10.662   6.213 -0.0736 -0.5747 -0.0513
21202SOL    HW170211   8.063  10.706   6.222 -0.2540 -0.2816  0.2270
21202SOL    HW270212   7.955  10.638   6.303 -1.2240  1.1213  0.1482
21203SOL     OW70213   1.513  10.673   6.092 -0.4176  0.1102  0.2881
21203SOL    HW170214   1.500  10.751   6.146 -0.6210  0.8468 -0.7848
21203SOL    HW270215   1.426  10.634   6.085 -0.2433 -0.4856  1.1810
21204SOL     OW70216   3.962  12.006   8.251  0.4318  0.4662 -0.3395
21204SOL    HW170217   4.043  12.056   8.262  0.0369  0.5952  3.0196
21204SOL    HW270218   3.991  11.920   8.219  1.5495  1.3526 -1.8672
21205SOL     OW70219  11.826  12.275  10.570 -0.0423 -0.0549 -0.0871
21205SOL    HW170220  11.789  12.359  10.595  0.2036  0.3749 -1.1091
21205SOL    HW270221  11.792  12.259  10.482 -1.1411 -1.6540  0.5826
21206SOL     OW70222   4.823   4.492  12.425 -0.1933 -0.2964 -0.1592
21206SOL    HW170223   4.891   4.549  12.462  0.9311 -0.6099 -1.6515
21206SOL    HW270224   4.867   4.408  12.411 -0.9303 -0.5611 -0.9807
21207SOL     OW70225   4.456   8.928   7.816 -0.0377  0.5779 -0.7560
21207SOL    HW170226   4.363   8.917   7.833  0.0945 -0.1772 -0.4735
21207SOL    HW270227   4.494   8.842   7.834  0.9925  1.3579  1.0572
21208SOL     OW70228   9.411   5.147   1.057  0.3781  0.7646  0.1422
21208SOL    HW170229   9.443   5.062   1.084  2.0912  0.7695 -1.6047
21208SOL    HW270230   9.322   5.131   1.027  0.7129 -0.4570 -0.2622
21209SOL     OW70231   7.399  12.581  10.007  0.8098 -0.3004  0.4495
21209SOL    HW170232   7.366  12.671  10.008  2.0982  0.2159 -0.4865
21209SOL    HW270233   7.461  12.579   9.934  1.0454 -1.8665  0.6561
21210SOL     OW70234   8.602   2.497   1.589 -0.5768 -0.5086  0.2478
21210SOL    HW170235   8.653   2.456   1.519  0.3394 -2.2027  1.8401
21210SOL    HW270236   8.649   2.578   1.608  0.3621 -1.0363  0.2645
21211SOL     OW70237   7.368   8.521   3.612 -0.0138 -0.4466 -0.7372
21211SOL    HW170238   7.298   8.456   3.601 -0.2439  0.0967 -2.8605
21211SOL    HW270239   7.322   8.600   3.641 -0.0975 -0.4954 -0.7367
21212SOL     OW70240  10.578  11.472   5.410  0.0347 -0.1594  0.0277
21212SOL    HW170241  10.652  11.458   5.468  0.3769  0.5841 -0.2287
21212SOL    HW270242  10.603  11.546   5.355  0.0689 -1.3562 -1.6350
21213SOL     OW70243  10.464   8.845  11.303  0.8292 -0.4820  0.1817
21213SOL    HW170244  10.530   8.807  11.245 -1.1084 -2.1807 -1.0733
21213SOL    HW270245  10.389   8.863  11.246 -0.2119  0.3003  1.7271
21214SOL     OW70246   6.268  12.242   2.564 -0.4599 -0.0175  0.6118
21214SOL    HW170247   6.254  12.334   2.543 -2.1343 -0.2689  0.4986
21214SOL    HW270248   6.345  12.217   2.513 -1.0211  0.8776 -0.7177
21215SOL     OW70249   2.048  10.080  12.214 -0.0618  0.2465  0.0685
21215SOL    HW170250   1.994  10.046  12.286 -1.5110 -1.6902 -1.7776
21215SOL    HW270251   2.088  10.001  12.177 -0.4799  0.9794 -2.0606
21216SOL     OW70252  12.464   0.777   1.944  0.3543  0.3920  0.2307
21216SOL    HW170253  12.435   0.832   1.871 -0.6035 -0.0573  0.2585
21216SOL    HW270254  12.556   0.798   1.954  0.0780  1.8017  0.0615
21217SOL     OW70255  10.984   7.920  10.906 -0.3991  0.7704 -0.1156
21217SOL    HW170256  11.079   7.926  10.900 -0.3472  1.5435  1.1318
21217SOL    HW270257  10.955   8.011  10.918 -1.3418  0.6041 -1.0501
21218SOL     OW70258   7.752   9.076   1.300  0.2772 -0.0919  0.4804
21218SOL    HW170259   7.680   9.126   1.339 -0.6594 -1.0579  0.0391
21218SOL    HW270260   7.759   9.110   1.211  0.2334 -0.1308  0.4620
21219SOL     OW70261  11.642   7.325   3.068 -0.2497 -0.0065 -0.0818
21219SOL    HW170262  11.560   7.373   3.077  0.5009  1.3405 -0.1961
21219SOL    HW270263  11.624   7.239   3.107 -1.5827  0.4073  0.2602
21220SOL     OW70264   3.893   3.509   3.628 -0.1558 -0.3663 -0.2122
21220SOL    HW170265   3.860   3.556   3.551 -2.3037  0.9479  1.3800
21220SOL    HW270266   3.986   3.498   3.612  0.1648  3.0040 -1.4822
21221SOL     OW70267   9.602   9.527   4.181 -0.5234  0.6216  0.6339
21221SOL    HW170268   9.525   9.547   4.235 -1.1187 -0.6414  0.2888
21221SOL    HW270269   9.566   9.493   4.099  0.4024  0.1724  0.4014
21222SOL     OW70270   3.075   5.862  12.499 -0.5304 -0.0412  0.0538
21222SOL    HW170271   3.137   5.870  12.427 -0.9646  3.6289 -0.0732
21222SOL    HW270272   3.017   5.791  12.471 -0.1000  0.5651 -2.7675
21223SOL     OW70273   4.770   2.526   5.090 -0.3024 -0.9394  0.2191
21223SOL    HW170274   4.772   2.588   5.017  1.6319 -1.1445  0.0691
21223SOL    HW270275   4.724   2.573   5.159 -1.3243 -0.3910 -0.7928
21224SOL     OW70276   2.554  10.562  11.845 -0.5720  0.4602  0.2432
21224SOL    HW170277   2.552  10.478  11.891  1.9209 -0.1723 -0.6257
21224SOL    HW270278   2.634  10.558  11.792 -0.9086  2.9991 -0.5812
21225SOL     OW70279   1.404   1.174   7.913 -0.5314  0.0839 -0.3480
21225SOL    HW170280   1.374   1.220   7.834  1.8118  0.1107 -1.3217
21225SOL    HW270281   1.479   1.226   7.943 -0.7753 -0.4982  1.3411
21226SOL     OW70282   0.764  11.456   2.368  0.0021 -0.3575  0.0444
21226SOL    HW170283   0.799  11.369   2.353  0.8746  0.3302 -2.4494
21226SOL    HW270284   0.673  11.442   2.393  0.1381 -1.9914 -0.2924
21227SOL     OW70285   9.700   2.260   9.815  0.1384 -0.0958  0.2278
21227SOL    HW170286   9.649   2.341   9.826  0.2178  0.0036 -0.1065
21227SOL    HW270287   9.638   2.199   9.774  0.4011  0.1602 -0.5784
21228SOL     OW70288  10.973   8.666   3.169  0.6137  0.5193 -0.2131
21228SOL    HW170289  11.037   8.736   3.160  0.7336  0.2975 -1.2130
21228SOL    HW270290  10.915   8.676   3.094  1.7352 -1.5220 -1.4655
21229SOL     OW70291   4.795   3.960   0.138 -0.0345 -0.0253  0.1195
21229SOL    HW170292   4.863   3.942   0.073  0.0659 -0.2757  0.2897
21229SOL    HW270293   4.836   3.937   0.221 -0.5026 -0.6800  0.1733
21230SOL     OW70294  10.135   0.833   2.867  0.1235  0.4596  0.1071
21230SOL    HW170295  10.066   0.887   2.905  0.2046  0.9885 -0.4895
21230SOL    HW270296  10.193   0.813   2.941  0.5170  1.8444  0.1963
21231SOL     OW70297   0.280   1.237   6.169 -0.6639 -0.1519  0.4307
21231SOL    HW170298   0.242   1.154   6.199  0.2107 -1.3804 -1.6155
21231SOL    HW270299   0.241   1.251   6.082  0.1535  0.9084  0.2188
21232SOL     OW70300  10.012   3.284   5.048 -0.1108 -0.7011 -0.0942
21232SOL    HW170301  10.066   3.363   5.038 -3.0654  1.1829 -3.4793
21232SOL    HW270302   9.983   3.287   5.140  1.7267  0.7854  0.5090
21233SOL     OW70303   7.646  11.221   1.816 -0.1993  0.1251  0.4143
21233SOL    HW170304   7.626  11.274   1.894 -0.3270  2.8754 -1.3283
21233SOL    HW270305   7.580  11.249   1.751  1.5547 -0.0061 -1.5219
21234SOL     OW70306   7.184   4.119   3.779 -0.4681 -0.9575 -0.2603
21234SOL    HW170307   7.208   4.067   3.856  1.2263 -1.3826 -1.0277
21234SOL    HW270308   7.093   4.095   3.761 -0.1137 -2.7556  0.1533
21235SOL     OW70309  10.542   5.205   4.245  0.2252 -0.1428  0.2214
21235SOL    HW170310  10.523   5.202   4.151 -1.4833  0.0456  0.5191
21235SOL    HW270311  10.577   5.119   4.266 -0.8137 -0.7190 -0.3327
21236SOL     OW70312  12.594   9.331  10.754 -0.3512  0.2609 -0.6551
21236SOL    HW170313  12.553   9.416  10.765 -1.6538 -0.4550  0.3101
21236SOL    HW270314  12.683   9.343  10.787 -0.6709  1.1209 -0.0734
21237SOL     OW70315   2.014   7.381   3.500 -0.1260 -0.2461  0.0691
21237SOL    HW170316   2.072   7.307   3.485  1.7909  1.3730 -0.8448
21237SOL    HW270317   1.951   7.377   3.428 -0.8069 -1.6388  0.7017
21238SOL     OW70318   9.433   4.769   8.206 -0.2577  0.2237 -0.3783
21238SOL    HW170319   9.493   4.843   8.201 -0.8959  0.6931 -1.1528
21238SOL    HW270320   9.491   4.692   8.211  0.3982  0.7310  0.0166
21239SOL     OW70321   8.966   4.882  12.506 -0.2835  0.2248  0.6955
21239SOL    HW170322   8.937   4.932  12.430 -1.2623 -0.3343  0.6948
21239SOL    HW270323   8.931   4.794  12.493 -0.8495  0.2345  2.0010
21240SOL     OW70324   4.527  11.103   0.970  0.5424 -0.0893 -0.2957
21240SOL    HW170325   4.556  11.111   1.061 -0.6958 -0.4726  0.1529
21240SOL    HW270326   4.593  11.048   0.929 -0.6091 -2.8794  1.2700
21241SOL     OW70327  10.150   3.604   2.397 -0.4140 -0.3009  0.6500
21241SOL    HW170328  10.120   3.604   2.307 -1.6360 -1.8317  1.0134
21241SOL    HW270329  10.082   3.556   2.445  0.5059 -0.0543  2.2741
21242SOL     OW70330  12.282  10.949   0.809 -0.1870  0.1303 -0.3268
21242SOL    HW170331  12.368  10.931   0.847 -0.3306  0.7259  0.2992
21242SOL    HW270332  12.273  10.884   0.739 -0.1840 -1.4313  1.0524
21243SOL     OW70333   0.523   4.637   9.799  0.2240 -0.0902  0.4797
21243SOL    HW170334   0.554   4.552   9.830 -0.3111 -0.3537  0.3071
21243SOL    HW270335   0.602   4.685   9.777  0.5603 -0.3025  1.2065
21244SOL     OW70336   4.348   6.030   1.869 -0.5009  0.3255  0.5416
21244SOL    HW170337   4.408   6.103   1.883 -0.3049  0.2648  0.0416
21244SOL    HW270338   4.372   5.995   1.783 -1.0275  0.0862  0.4859
21245SOL     OW70339  11.168   5.020   2.081 -0.0280 -0.8305  0.5051
21245SOL    HW170340  11.085   5.011   2.033  0.2971  0.2367 -0.2818
21245SOL    HW270341  11.234   4.984   2.022 -0.0323 -2.8314  1.6185
21246SOL     OW70342   3.279   9.177   5.499  0.4847  0.1599  0.1959
21246SOL    HW170343   3.336   9.247   5.471  0.8773  0.0558  0.7120
21246SOL    HW270344   3.337   9.102   5.514  0.8785  1.0461  4.3663
21247SOL     OW70345   5.104   1.740   6.870 -0.1082 -0.7565 -0.9472
21247SOL    HW170346   5.173   1.687   6.909 -0.3397 -0.9530 -0.8030
21247SOL    HW270347   5.150   1.799   6.809  1.1196  3.6124  3.5534
21248SOL     OW70348   5.842   5.625   4.114  0.5949  0.4747  0.2304
21248SOL    HW170349   5.925   5.673   4.110  1.4020 -0.6478  2.1296
21248SOL    HW270350   5.862   5.547   4.166 -1.7026  0.2170  0.8342
21249SOL     OW70351   8.589   9.467   9.253 -0.0459 -0.1694 -0.5648
21249SOL    HW170352   8.611   9.406   9.183  1.8396  0.5656 -0.6478
21249SOL    HW270353   8.622   9.552   9.223 -2.3260  0.8834 -0.3121
21250SOL     OW70354  11.477   5.280  12.207 -0.0196  0.6752 -0.1490
21250SOL    HW170355  11.540   5.290  12.136  2.0743 -0.4411  1.4184
21250SOL    HW270356  11.431   5.364  12.212  0.8573  1.2837 -1.7946
21251SOL     OW70357   8.735  10.811   0.209  0.0123 -0.1301  0.2651
21251SOL    HW170358   8.653  10.763   0.216  0.0652 -0.4516 -1.0291
21251SOL    HW270359   8.739  10.840   0.117  1.5370 -0.4964  0.1770
21252SOL     OW70360   3.275   9.855   2.114 -0.0984  0.4051 -0.0671
21252SOL    HW170361   3.277   9.784   2.179  1.6754 -0.1389 -0.6662
21252SOL    HW270362   3.257   9.811   2.031 -0.2226  0.8252 -0.2649
21253SOL     OW70363   1.034   0.906   7.743  0.6816  0.0115 -0.2805
21253SOL    HW170364   1.123   0.904   7.777  0.4429  0.2255  0.3627
21253SOL    HW270365   0.981   0.940   7.815 -0.0156 -0.6935 -0.4428
21254SOL     OW70366   9.543  10.097   8.268 -0.1649 -0.2668 -0.2225
21254SOL    HW170367   9.481  10.069   8.335  0.1079 -1.7383 -0.5528
21254SOL    HW270368   9.493  10.155   8.210 -0.7476 -0.0521  0.4974
21255SOL     OW70369   5.497   4.009   5.457  0.0529  0.3891 -0.0498
21255SOL    HW170370   5.585   4.024   5.423 -0.0514  0.5051 -0.2800
21255SOL    HW270371   5.446   3.983   5.380  0.3484 -1.7874  0.4291
21256SOL     OW70372  10.562   1.092   6.457  0.0815 -0.6048  0.5733
21256SOL    HW170373  10.650   1.055   6.456  0.8489  1.0880  1.2692
21256SOL    HW270374  10.511   1.033   6.512  1.1469 -0.8609  1.3171
21257SOL     OW70375   6.677  12.612   4.145 -0.0492 -0.0063 -0.0004
21257SOL    HW170376   6.704  12.691   4.192 -1.4577  0.6168 -0.2021
21257SOL    HW270377   6.617  12.568   4.205  1.0554 -1.1901  0.2913
21258SOL     OW70378   5.912  10.435   4.790  0.0533  0.1813 -0.1057
21258SOL    HW170379   5.988  10.420   4.846  1.1436  1.8089 -1.0444
21258SOL    HW270380   5.896  10.529   4.797 -0.7085  0.1678 -1.3563
21259SOL     OW70381  11.755   4.811   9.561  0.2306  0.1942  0.2475
21259SOL    HW170382  11.783   4.895   9.598 -0.4782  0.9262 -0.8029
21259SOL    HW270383  11.724   4.833   9.473 -1.4271 -0.9342  0.5094
21260SOL     OW70384   1.645  10.888   9.564  0.3597 -0.4142  0.7998
21260SOL    HW170385   1.676  10.919   9.478  1.7389 -0.7959  1.1231
21260SOL    HW270386   1.685  10.948   9.627 -0.1778 -0.4815  1.2090
21261SOL     OW70387   1.148   4.583   4.599 -0.5126 -0.3177  0.1250
21261SOL    HW170388   1.146   4.633   4.518 -2.2207 -2.2950 -1.1440
21261SOL    HW270389   1.239   4.555   4.607 -0.0414  1.0013 -0.3679
21262SOL     OW70390   3.810   3.902   3.065  0.0419  0.3973  0.2717
21262SOL    HW170391   3.749   3.972   3.042  0.6280  0.9584  0.4156
21262SOL    HW270392   3.782   3.873   3.151  0.7282  1.5041  0.8844
21263SOL     OW70393  12.546   5.283   8.124 -0.0160 -0.1188  0.5481
21263SOL    HW170394  12.580   5.369   8.101 -0.9494  0.6197  1.8264
21263SOL    HW270395  12.595   5.258   8.203  0.5988 -1.0047 -0.0880
21264SOL     OW70396   2.388   8.557  10.963 -0.6255 -0.1287 -0.7688
21264SOL    HW170397   2.375   8.609  10.884  0.8021 -0.3955 -1.2050
21264SOL    HW270398   2.301   8.554  11.004 -1.1128  1.0770 -1.6531
21265SOL     OW70399  12.001   4.392   0.796 -0.6091 -0.1226 -0.2937
21265SOL    HW170400  12.052   4.428   0.723  0.5674  1.8527  1.3900
21265SOL    HW270401  12.055   4.409   0.873 -1.6703 -2.4100  1.0472
21266SOL     OW70402   4.586   2.112   6.564 -0.4517  0.0920  0.5231
21266SOL    HW170403   4.575   2.064   6.647 -0.9315  0.8322  0.9076
21266SOL    HW270404   4.515   2.176   6.565 -1.1158 -0.5672 -0.9618
21267SOL     OW70405   2.929   5.604  12.540 -0.0529  0.3917  0.2344
21267SOL    HW170406   2.843   5.563  12.549  0.5939 -1.5772 -1.6551
21267SOL    HW270407   2.979   5.543  12.485  1.6351  2.8464 -1.1462
21268SOL     OW70408  11.975   8.866  11.728  0.6003 -0.2032 -0.5536
21268SOL    HW170409  11.891   8.905  11.704 -0.7762 -1.4368  1.8856
21268SOL    HW270410  12.006   8.825  11.648 -0.7411  0.9120 -1.6981
21269SOL     OW70411   5.852   8.964   9.949  0.6030 -0.0171  0.2516
21269SOL    HW170412   5.930   8.944   9.897  0.0675 -0.3555 -0.4403
21269SOL    HW270413   5.817   9.044   9.910  0.6398  0.1654  0.5945
21270SOL     OW70414   0.332   6.374   0.218  0.5802  0.2066 -0.0432
21270SOL    HW170415   0.295   6.431   0.151  2.2017  0.5403 -0.6945
21270SOL    HW270416   0.415   6.415   0.242  1.8359 -1.8354 -0.5586
21271SOL     OW70417  11.316   0.554   5.059  0.0804  0.5087  0.3259
21271SOL    HW170418  11.239   0.605   5.083 -0.6846  0.1146 -1.1799
21271SOL    HW270419  11.389   0.615   5.068 -0.2830  0.7000  2.4198
21272SOL     OW70420   8.627  11.431   5.633  0.2764  0.8454  0.3556
21272SOL    HW170421   8.659  11.471   5.552  0.7009  1.7918  0.9711
21272SOL    HW270422   8.533  11.418   5.618  0.3990  0.7263 -0.3846
21273SOL     OW70423   1.284   7.627   5.279 -0.1895  0.5699  0.4309
21273SOL    HW170424   1.232   7.631   5.199  0.3770 -0.9143 -0.0453
21273SOL    HW270425   1.241   7.689   5.339 -0.7872  1.4881 -0.8990
21274SOL     OW70426  10.599  10.129   5.172  0.5426  0.5511  0.1079
21274SOL    HW170427  10.512  10.158   5.143 -0.5316  0.1158  2.6640
21274SOL    HW270428  10.582  10.048   5.220  2.4338  0.3022  0.4376
21275SOL     OW70429   0.709   5.517   2.331  0.1790  0.0731  0.2972
21275SOL    HW170430   0.674   5.493   2.417 -0.2011 -1.5675 -0.2858
21275SOL    HW270431   0.637   5.563   2.288  0.0036 -0.0431  0.4629
21276SOL     OW70432  10.124  12.130   1.845  0.7240 -0.6422  0.5175
21276SOL    HW170433  10.113  12.036   1.856  1.7855 -0.8396  0.1058
21276SOL    HW270434  10.191  12.138   1.777  0.1389  0.4217  0.0416
21277SOL     OW70435   7.345   4.478   2.632  0.4692 -0.1790  0.2499
21277SOL    HW170436   7.381   4.511   2.714  0.3325  0.8981 -0.1042
21277SOL    HW270437   7.282   4.545   2.605  1.3172  0.0564 -1.3022
21278SOL     OW70438   4.301   9.453   0.107 -0.3433  0.5111 -0.2185
21278SOL    HW170439   4.333   9.364   0.120  1.7913  0.8619 -2.3485
21278SOL    HW270440   4.206   9.444   0.102 -0.4353 -1.1441  2.5984
21279SOL     OW70441  11.454   9.896   7.656 -0.7134  0.2891  0.2305
21279SOL    HW170442  11.492   9.981   7.634 -1.3333 -0.0054 -2.2984
21279SOL    HW270443  11.527   9.834   7.651  0.1491  0.7960  3.9038
21280SOL     OW70444   6.581   6.899   8.187 -0.3537 -0.2857 -0.4118
21280SOL    HW170445   6.521   6.972   8.169 -0.5924  0.2551  2.2392
21280SOL    HW270446   6.591   6.899   8.282  2.9887 -1.0754 -0.6481
21281SOL     OW70447   5.370   5.657  11.881 -0.1529 -0.0105  0.4616
21281SOL    HW170448   5.458   5.648  11.844  0.1337  0.3342  1.0484
21281SOL    HW270449   5.323   5.711  11.817 -0.4723 -1.6254 -0.7220
21282SOL     OW70450  10.219   7.708   5.674 -0.4412  0.1558  0.3377
21282SOL    HW170451  10.283   7.713   5.603 -0.9835 -1.4770 -0.3401
21282SOL    HW270452  10.253   7.640   5.732 -0.8998  0.2109  0.6765
21283SOL     OW70453   7.400   5.230  10.362  0.2208 -0.0626 -0.1560
21283SOL    HW170454   7.383   5.146  10.405  0.5531 -0.3787 -0.6306
21283SOL    HW270455   7.443   5.283  10.429 -1.9059  0.5066  0.8590
21284SOL     OW70456  10.581   7.637  11.494  0.1251  0.3562 -0.1003
21284SOL    HW170457  10.589   7.703  11.426  0.7813  0.9606  0.5493
21284SOL    HW270458  10.671   7.610  11.512 -0.0748 -0.1025  0.2358
21285SOL     OW70459   0.152   5.707   8.220  0.2847  0.0632 -0.5083
21285SOL    HW170460   0.218   5.768   8.256  0.5275 -0.8203  0.6139
21285SOL    HW270461   0.154   5.723   8.126  0.3992  1.7315 -0.2576
21286SOL     OW70462  11.209   4.480   1.037  1.0615  0.1820  0.2330
21286SOL    HW170463  11.193   4.564   1.081 -0.8650 -0.0723  0.0933
21286SOL    HW270464  11.182   4.414   1.101 -1.4979 -0.2008 -1.1180
21287SOL     OW70465   4.075   6.125  12.144  0.0224 -0.1150  0.3534
21287SOL    HW170466   3.997   6.176  12.164 -1.2303 -1.7270 -0.1500
21287SOL    HW270467   4.067   6.102  12.051  0.4686 -1.2898  0.5763
21288SOL     OW70468   9.062  12.621   9.104 -0.0019  0.6805 -0.2948
21288SOL    HW170469   8.976  12.646   9.138 -0.0047  0.9205 -0.4807
21288SOL    HW270470   9.124  12.664   9.163 -0.0091  0.6237 -0.2453
21289SOL     OW70471   1.246  10.252   0.700  0.3355  0.2355  0.2341
21289SOL    HW170472   1.281  10.311   0.633  1.6595 -1.0177 -0.2168
21289SOL    HW270473   1.161  10.290   0.723 -0.1432  0.7258 -2.1224
21290SOL     OW70474   6.837  10.264   0.967 -0.7279 -0.1550  0.0266
21290SOL    HW170475   6.791  10.184   0.940  1.3852 -0.3732 -3.4939
21290SOL    HW270476   6.781  10.335   0.937 -1.3077 -0.3040  0.7158
21291SOL     OW70477   8.709   2.141   7.381  0.9222  0.1521 -0.1833
21291SOL    HW170478   8.728   2.154   7.474  0.0878 -1.5838  0.2638
21291SOL    HW270479   8.619   2.108   7.380  1.8523 -2.6215 -1.3649
21292SOL     OW70480   3.307  10.277   0.857 -0.0314 -0.0199  0.4800
21292SOL    HW170481   3.314  10.198   0.910 -1.0903 -0.8107 -0.5200
21292SOL    HW270482   3.218  10.309   0.875  0.3626  0.9266  0.8287
21293SOL     OW70483  11.862   2.650   2.666  0.0586  0.4887  0.3816
21293SOL    HW170484  11.900   2.613   2.587 -0.1220  0.3275  0.3698
21293SOL    HW270485  11.831   2.574   2.716 -2.3543  0.6876 -0.6542
21294SOL     OW70486   7.898  11.112   1.258 -0.0463 -0.4925 -0.6719
21294SOL    HW170487   7.870  11.050   1.325  0.2700  0.0401 -0.0382
21294SOL    HW270488   7.842  11.188   1.271 -1.5609 -1.2039 -2.4900
21295SOL     OW70489   8.913   3.408  10.705  0.1637  0.3962 -0.1066
21295SOL    HW170490   8.907   3.343  10.776  0.1367  1.3309  0.7661
21295SOL    HW270491   8.841   3.468  10.721 -1.4550 -0.7944 -2.4436
21296SOL     OW70492   9.227   7.842   5.245  0.5676 -0.1479 -0.2665
21296SOL    HW170493   9.322   7.853   5.252  0.4380  0.5788  0.5379
21296SOL    HW270494   9.203   7.795   5.324  0.1252  0.6730  0.1002
21297SOL     OW70495   0.761   0.186  11.172  0.6152 -1.1939 -0.0861
21297SOL    HW170496   0.693   0.130  11.133 -0.4811 -1.1234  1.6369
21297SOL    HW270497   0.745   0.273  11.135  0.4119 -1.3878 -0.4616
21298SOL     OW70498   4.431   2.729   1.583  1.1636  0.0589 -0.3479
21298SOL    HW170499   4.494   2.796   1.610  0.9983 -0.3930  1.2598
21298SOL    HW270500   4.346   2.770   1.593  1.0588 -0.4018  0.7094
21299SOL     OW70501   2.014   3.771   4.710  0.4647 -0.0305  0.7984
21299SOL    HW170502   1.935   3.823   4.718 -1.3320 -2.4402 -0.0048
21299SOL    HW270503   2.013   3.715   4.788 -0.3608 -2.1824 -0.6720
21300SOL     OW70504   0.988  12.191   4.086  0.0468 -0.3560 -0.0461
21300SOL    HW170505   1.009  12.271   4.039  0.3074 -0.8089 -0.7277
21300SOL    HW270506   1.064  12.175   4.142 -1.1019  1.2803  2.1391
21301SOL     OW70507  11.924   3.771  11.844 -0.4388  0.1252 -0.5382
21301SOL    HW170508  12.019   3.778  11.831 -0.5118 -1.1185 -2.0180
21301SOL    HW270509  11.914   3.770  11.939  1.1416 -0.7213 -0.3335
21302SOL     OW70510   1.161   0.124   8.438 -0.0939 -0.0064 -0.0620
21302SOL    HW170511   1.219   0.114   8.362  0.0104 -1.7680  0.1894
21302SOL    HW270512   1.211   0.086   8.510  0.0743  2.2468  1.0649
21303SOL     OW70513   8.187  11.670   2.769 -0.3995  0.3431  0.1953
21303SOL    HW170514   8.114  11.688   2.828 -1.2615  1.6632 -1.2172
21303SOL    HW270515   8.149  11.673   2.681  0.4447 -3.4050 -0.4837
21304SOL     OW70516   7.813   8.016  12.460  0.0884  0.2223 -0.2868
21304SOL    HW170517   7.817   7.923  12.439  0.0168  0.1089  0.1831
21304SOL    HW270518   7.719   8.035  12.469  0.1146  0.2805 -0.1321
21305SOL     OW70519   5.571   4.174   0.088 -0.2635 -0.0155 -0.3311
21305SOL    HW170520   5.664   4.193   0.100 -0.1720 -1.1139  0.9352
21305SOL    HW270521   5.527   4.257   0.108  0.3181 -0.1024  1.4696
21306SOL     OW70522   1.719   7.738   7.153  0.1413  0.0712  0.1425
21306SOL    HW170523   1.794   7.789   7.121  0.2184 -0.2216 -0.1478
21306SOL    HW270524   1.758   7.666   7.202  0.1331 -1.1354 -1.5417
21307SOL     OW70525   1.682   4.236   1.695  0.3728 -0.4507  0.4700
21307SOL    HW170526   1.724   4.235   1.609  0.1307 -1.4227  0.3527
21307SOL    HW270527   1.630   4.316   1.695  0.2699 -0.5070 -0.3435
21308SOL     OW70528   5.105   0.675   5.746 -0.1680 -0.4884 -0.2891
21308SOL    HW170529   5.070   0.764   5.742 -0.0137 -0.2012  2.7283
21308SOL    HW270530   5.028   0.619   5.749 -0.4700 -0.0704  2.7528
21309SOL     OW70531  10.624  12.220   9.125  0.1557  1.1374  0.0632
21309SOL    HW170532  10.594  12.193   9.211 -0.1725  1.0463 -0.0796
21309SOL    HW270533  10.583  12.305   9.110 -0.8800  0.5566 -0.5606
21310SOL     OW70534  10.964   4.988   3.561 -0.0421 -0.1502 -0.0372
21310SOL    HW170535  10.878   4.993   3.521 -0.0977  0.5327  0.1473
21310SOL    HW270536  10.981   5.077   3.592  0.0551 -0.6221  1.3365
21311SOL     OW70537   7.656   5.305   1.518 -0.3652  0.0366 -0.3004
21311SOL    HW170538   7.629   5.224   1.563  1.3698  0.1315  1.0090
21311SOL    HW270539   7.651   5.283   1.425 -2.9134 -0.5507 -0.1084
21312SOL     OW70540   3.544   3.518   8.939 -0.0009 -0.5506 -0.5039
21312SOL    HW170541   3.617   3.499   8.998 -0.8364  1.2729  1.2624
21312SOL    HW270542   3.582   3.572   8.870  1.1047 -3.1640 -2.0972
21313SOL     OW70543  12.275   9.843   3.425  0.4649 -0.3669  0.4144
21313SOL    HW170544  12.265   9.796   3.508  1.0875 -2.4306 -0.5957
21313SOL    HW270545  12.194   9.823   3.377  0.8000 -0.5094 -0.0899
21314SOL     OW70546   6.844  12.556  11.330  0.2427  0.2687 -0.3678
21314SOL    HW170547   6.831  12.526  11.420 -1.5893  0.5890 -0.4829
21314SOL    HW270548   6.789  12.497  11.277  1.8174 -0.3487 -1.3809
21315SOL     OW70549   6.861  11.135   5.772  0.1294 -0.4610 -0.2841
21315SOL    HW170550   6.893  11.045   5.769 -2.4996 -1.5263  0.0549
21315SOL    HW270551   6.822  11.149   5.685 -1.3814 -0.4955  0.3542
21316SOL     OW70552   1.258   9.462   3.853 -0.5277  0.2157  0.0142
21316SOL    HW170553   1.170   9.460   3.815 -0.2388  1.6608 -0.8495
21316SOL    HW270554   1.302   9.385   3.818 -0.9651  0.3434 -0.8325
21317SOL     OW70555   1.603   3.544  10.240 -0.2695 -0.0201 -0.0757
21317SOL    HW170556   1.508   3.536  10.240 -0.3326  0.3859  1.5250
21317SOL    HW270557   1.623   3.597  10.163 -1.4353  0.7951  0.1681
21318SOL     OW70558   8.338   8.565   5.486 -0.1033  0.0602  0.1005
21318SOL    HW170559   8.362   8.629   5.553  0.5128 -1.5254  1.4676
21318SOL    HW270560   8.383   8.595   5.407 -0.2697  1.5859  0.5546
21319SOL     OW70561   7.644  10.336   5.930 -0.0784  0.3158  0.0226
21319SOL    HW170562   7.740  10.339   5.939  0.0326 -1.8469  0.0140
21319SOL    HW270563   7.611  10.338   6.020 -0.0172  0.6028  0.0410
21320SOL     OW70564   9.324   8.002   7.150  0.1389  0.5636 -0.0033
21320SOL    HW170565   9.363   8.067   7.207  0.0303 -1.6816  2.8778
21320SOL    HW270566   9.396   7.942   7.128  0.0200  0.9871 -1.7409
21321SOL     OW70567  11.018   2.203   9.750  0.4537 -0.0801 -0.0976
21321SOL    HW170568  10.973   2.120   9.765 -1.2183  0.8293  0.2093
21321SOL    HW270569  10.958   2.254   9.696  0.6906  1.5239  1.0383
21322SOL     OW70570   6.297   3.814   1.728 -0.4048  0.0689 -0.2825
21322SOL    HW170571   6.299   3.776   1.815 -2.9012  2.7461  1.0937
21322SOL    HW270572   6.376   3.868   1.723 -0.7074  0.6210  0.7233
21323SOL     OW70573  11.280   5.825   3.665 -0.5213  0.8799  0.4427
21323SOL    HW170574  11.308   5.902   3.617  1.2800  0.9470  1.5010
21323SOL    HW270575  11.349   5.811   3.730 -0.1173 -2.3240 -0.4897
21324SOL     OW70576  11.680  10.473   5.175 -0.4418  0.0564 -0.0491
21324SOL    HW170577  11.591  10.488   5.144 -0.8575 -1.1421  0.5212
21324SOL    HW270578  11.735  10.524   5.115 -1.4064 -0.1945 -1.1761
21325SOL     OW70579  11.566   9.570  11.349  0.0925 -0.5391 -0.0416
21325SOL    HW170580  11.492   9.607  11.301 -0.2667  1.8261  2.0930
21325SOL    HW270581  11.530   9.548  11.435  1.9192  1.6527  1.4350
21326SOL     OW70582   9.641   3.361   9.088 -0.3231  0.1136 -0.0488
21326SOL    HW170583   9.653   3.271   9.057  2.7592  0.7354 -1.0776
21326SOL    HW270584   9.577   3.399   9.029  0.7081 -0.5694 -1.6744
21327SOL     OW70585   3.301   5.461   0.426  0.6466 -0.0339 -0.0163
21327SOL    HW170586   3.229   5.482   0.485 -0.2466 -0.9926 -0.7308
21327SOL    HW270587   3.268   5.388   0.373  2.1965 -0.5886 -0.2572
21328SOL     OW70588   4.723  11.114   0.336 -0.0227  0.0627 -0.2448
21328SOL    HW170589   4.677  11.128   0.419  1.0995  0.6045  0.3082
21328SOL    HW270590   4.659  11.134   0.269 -0.8858 -0.1660  0.4937
21329SOL     OW70591   0.619   2.900   3.120  0.5585  0.2511 -0.1747
21329SOL    HW170592   0.544   2.957   3.102 -1.2238 -1.5872  0.9852
21329SOL    HW270593   0.659   2.886   3.034 -1.4646 -0.0453 -1.1273
21330SOL     OW70594  10.697   7.628   9.750 -0.1796 -0.4626  0.4776
21330SOL    HW170595  10.746   7.622   9.668 -0.3489  1.1364  0.2155
21330SOL    HW270596  10.736   7.561   9.806  0.3890 -1.1309 -0.6753
21331SOL     OW70597   7.801  11.118  12.009 -0.6389  0.5072  0.1827
21331SOL    HW170598   7.883  11.166  11.998 -0.3644 -0.3211 -2.0456
21331SOL    HW270599   7.777  11.132  12.100  3.0933 -0.9912  1.5864
21332SOL     OW70600   6.971  11.675  10.615  0.6437  0.4012 -0.0726
21332SOL    HW170601   6.998  11.766  10.609  0.5437  0.6085  1.9323
21332SOL    HW270602   7.050  11.628  10.640  0.0663  0.4437  2.0064
21333SOL     OW70603   3.183   1.916   3.042 -0.5146  0.1979  0.6619
21333SOL    HW170604   3.233   1.950   3.117 -0.5145 -0.6853  1.0798
21333SOL    HW270605   3.248   1.907   2.972 -0.0117 -1.1736  1.2748
21334SOL     OW70606  10.030   1.443   1.083  0.4930 -0.0231 -0.2798
21334SOL    HW170607   9.965   1.383   1.120 -0.6116 -0.5361 -2.7605
21334SOL    HW270608  10.007   1.528   1.119  0.9028 -0.7502  1.8435
21335SOL     OW70609  12.526   4.752   2.488  0.0144  0.1856 -0.7664
21335SOL    HW170610  12.526   4.714   2.400 -3.0558  1.8586 -1.6275
21335SOL    HW270611  12.503   4.678   2.545  1.0869 -0.7121 -1.4446
21336SOL     OW70612   6.763   6.031   6.942  0.3728  0.3712 -0.0250
21336SOL    HW170613   6.732   5.941   6.937 -2.5708  1.2871 -0.6537
21336SOL    HW270614   6.781   6.046   7.034  1.1461 -0.9003  0.0489
21337SOL     OW70615   8.013   2.946   4.032 -0.1379 -0.0300  0.1384
21337SOL    HW170616   7.944   2.999   3.992  0.2403  0.4808  0.1428
21337SOL    HW270617   8.065   2.915   3.957 -0.6717 -0.8570  0.0961
21338SOL     OW70618   2.272   3.619   0.699 -0.0955  0.0483  0.2319
21338SOL    HW170619   2.230   3.682   0.758 -0.0473  1.7397 -1.4351
21338SOL    HW270620   2.360   3.608   0.735 -0.9137 -1.1852  2.0298
21339SOL     OW70621   1.875   0.136   5.300  0.5093 -0.4004 -0.4311
21339SOL    HW170622   1.865   0.231   5.294  1.5552  0.0090  2.5404
21339SOL    HW270623   1.966   0.120   5.278  0.1895 -0.8333 -1.5108
21340SOL     OW70624  10.880   0.264   1.725  0.2090 -0.1945 -0.4205
21340SOL    HW170625  10.971   0.234   1.736  0.4603 -0.3674 -2.6404
21340SOL    HW270626  10.879   0.350   1.767  1.6134  0.1548 -1.0305
21341SOL     OW70627   5.954  12.337   7.909 -0.3172  0.1222  0.3321
21341SOL    HW170628   5.912  12.423   7.910 -0.8270 -0.1219  0.6294
21341SOL    HW270629   5.907  12.287   7.842 -0.5630 -0.1758  0.7158
21342SOL     OW70630  10.313  11.438   3.232  0.0787 -0.1068 -0.0523
21342SOL    HW170631  10.329  11.367   3.170 -0.0780  0.4737 -0.7582
21342SOL    HW270632  10.399  11.478   3.245 -0.2126  1.0612 -1.4818
21343SOL     OW70633   6.464  12.733  12.073  0.0213 -0.5914 -0.1639
21343SOL    HW170634   6.442  12.671  12.003 -1.2594 -0.1228 -0.1976
21343SOL    HW270635   6.407  12.709  12.146  0.0718  0.0590  0.0986
21344SOL     OW70636   7.177   8.444   3.938 -0.4130  0.7408 -0.5386
21344SOL    HW170637   7.172   8.412   4.028  0.3354  1.1472 -0.3477
21344SOL    HW270638   7.086   8.467   3.917 -0.5927  0.6676  0.1177
21345SOL     OW70639   4.444  11.984   7.995 -0.2253  0.4676  0.0442
21345SOL    HW170640   4.519  11.996   7.937  0.4171  0.7713  0.9142
21345SOL    HW270641   4.456  11.897   8.032 -0.6504  0.2619 -0.2857
21346SOL     OW70642   2.454   1.618   2.015 -0.6188 -0.2728  0.0555
21346SOL    HW170643   2.532   1.593   2.063  0.1798  0.2830 -0.9200
21346SOL    HW270644   2.442   1.548   1.951 -1.0204 -0.4383  0.3074
21347SOL     OW70645   6.909  12.327  11.066 -0.0651 -0.4624 -0.4604
21347SOL    HW170646   6.832  12.339  11.010  0.1359 -0.7385 -0.8035
21347SOL    HW270647   6.961  12.406  11.053  0.1578 -0.6814 -0.9567
21348SOL     OW70648  11.389   9.091   3.597 -0.4093  0.1861  0.5607
21348SOL    HW170649  11.397   9.050   3.511  0.9828 -0.8985  1.1692
21348SOL    HW270650  11.393   9.019   3.659 -1.4886  0.9457  1.5497
21349SOL     OW70651  12.328   9.640  10.215  0.3759  0.5412  0.0984
21349SOL    HW170652  12.261   9.706  10.232 -0.0928  0.5348 -1.5638
21349SOL    HW270653  12.298   9.563  10.263 -0.5699  0.6740 -0.2679
21350SOL     OW70654   1.354   7.906  12.740 -0.3438  0.2184 -0.1321
21350SOL    HW170655   1.305   7.860  12.808 -1.2323  0.3546 -0.6727
21350SOL    HW270656   1.410   7.838  12.701 -0.3570 -0.0129  0.2438
21351SOL     OW70657   9.052   9.686   5.700 -0.0805 -0.6424  0.2058
21351SOL    HW170658   8.964   9.704   5.732 -0.4675  2.1085 -2.0229
21351SOL    HW270659   9.039   9.638   5.619  0.6323 -2.1488  0.9349
21352SOL     OW70660   3.522  10.187   2.742 -0.1351  0.0524 -0.2073
21352SOL    HW170661   3.476  10.160   2.662 -1.7090  0.3145  0.5696
21352SOL    HW270662   3.611  10.153   2.731 -0.3744 -0.1158 -1.9578
21353SOL     OW70663   8.644   1.940   3.554  1.0235  0.0151  0.6761
21353SOL    HW170664   8.557   1.980   3.548  1.9560  1.9787 -0.5633
21353SOL    HW270665   8.653   1.918   3.647 -0.0936  1.4840  1.1755
21354SOL     OW70666   3.146   6.036   4.199  0.0408 -0.1796 -0.7816
21354SOL    HW170667   3.090   5.977   4.250 -1.2324  0.3397 -1.5108
21354SOL    HW270668   3.104   6.122   4.209  2.6683  0.9658  1.4814
21355SOL     OW70669   6.688   6.799  11.847 -0.2577  0.1494  0.2619
21355SOL    HW170670   6.773   6.836  11.822 -0.7324  1.3709  0.3673
21355SOL    HW270671   6.624   6.863  11.816 -1.0425  0.0975  1.6594
21356SOL     OW70672  10.527   6.910   4.848  0.3256  0.6774 -0.1037
21356SOL    HW170673  10.588   6.837   4.854 -1.6195 -1.1237 -0.9839
21356SOL    HW270674  10.506   6.916   4.755 -2.1859 -0.0138  0.3309
21357SOL     OW70675   7.789  12.618   3.471 -0.5293  0.3693  0.4095
21357SOL    HW170676   7.768  12.544   3.528  1.2237 -0.7110 -0.2734
21357SOL    HW270677   7.792  12.693   3.530 -0.4280 -0.4311  1.4570
21358SOL     OW70678   6.821  12.551   7.851  0.1722  0.2579 -0.4234
21358SOL    HW170679   6.783  12.558   7.763 -0.1088  0.5866 -0.2770
21358SOL    HW270680   6.784  12.469   7.886  0.8724 -0.2697 -0.8900
21359SOL     OW70681   6.040  11.589   4.212 -0.3531 -0.3534  0.4093
21359SOL    HW170682   6.007  11.637   4.289 -0.5099  0.7850 -0.3423
21359SOL    HW270683   5.976  11.608   4.143 -0.0365 -1.0926 -0.0958
21360SOL     OW70684   3.855  12.269   5.033  0.7789  0.4335  0.4812
21360SOL    HW170685   3.895  12.227   4.957 -1.7473 -0.4574 -0.4722
21360SOL    HW270686   3.923  12.266   5.100  3.9597  3.2725 -2.2383
21361SOL     OW70687   2.598   6.681   6.385 -0.1116  0.0040 -0.7530
21361SOL    HW170688   2.587   6.639   6.471  1.2130  2.2937  0.6483
21361SOL    HW270689   2.521   6.736   6.376 -0.8356 -1.1027 -1.6456
21362SOL     OW70690  11.581   8.935   7.238 -0.4290 -0.0900  0.2935
21362SOL    HW170691  11.558   9.028   7.234 -0.0858  0.0565  1.4015
21362SOL    HW270692  11.546   8.898   7.157  0.7681  1.2970 -0.9348
21363SOL     OW70693   1.530   1.910   0.337 -0.0904 -0.0196  0.0702
21363SOL    HW170694   1.600   1.974   0.326 -0.5720  0.4625 -0.2130
21363SOL    HW270695   1.565   1.847   0.399  0.6356  0.1611 -0.1475
21364SOL     OW70696   1.669   9.666  11.266 -0.1957 -0.1073  0.3270
21364SOL    HW170697   1.705   9.753  11.280 -0.8182  0.1684  0.2719
21364SOL    HW270698   1.619   9.648  11.345 -0.1929 -0.3486  0.2743
21365SOL     OW70699   8.980   5.673   9.973 -0.0985  0.4260  0.2708
21365SOL    HW170700   9.017   5.615   9.907 -0.4632  1.3504 -0.7688
21365SOL    HW270701   8.886   5.669   9.960 -0.1847  0.5187  0.8230
21366SOL     OW70702  10.002   7.654   7.120 -0.2050 -0.3814 -0.5157
21366SOL    HW170703   9.937   7.587   7.101 -0.7121  0.0015 -0.1434
21366SOL    HW270704   9.952   7.727   7.156 -0.0102  1.1728 -3.0912
21367SOL     OW70705  11.841   0.112   1.680 -0.1803 -0.1960 -0.5221
21367SOL    HW170706  11.925   0.154   1.661 -1.1807  1.4856 -1.4361
21367SOL    HW270707  11.825   0.130   1.772 -0.3813  1.1332 -0.7915
21368SOL     OW70708   2.776  11.052   2.916 -0.7485 -0.4860  0.1190
21368SOL    HW170709   2.796  11.030   2.825  0.6878 -0.6549  0.4473
21368SOL    HW270710   2.804  11.143   2.925 -2.7802  0.2023 -0.1210
21369SOL     OW70711  11.046  10.641   4.400 -0.1710 -0.7779 -0.8154
21369SOL    HW170712  11.048  10.546   4.386 -1.7593 -0.5164 -3.5126
21369SOL    HW270713  10.957  10.667   4.375  0.5768  1.5486 -1.2951
21370SOL     OW70714   4.553   4.831   5.313 -0.0646 -0.5619  0.0360
21370SOL    HW170715   4.637   4.814   5.271  0.7202  1.9019  0.4954
21370SOL    HW270716   4.498   4.867   5.244  0.3515  0.9133  0.4405
21371SOL     OW70717   8.715   9.287   7.965 -0.2894 -0.1858 -0.6193
21371SOL    HW170718   8.718   9.199   8.003 -0.5620 -0.8932 -2.1809
21371SOL    HW270719   8.735   9.345   8.039  2.3300 -1.6622 -0.0430
21372SOL     OW70720   1.889   5.348   5.291  0.5508  0.0385  0.2465
21372SOL    HW170721   1.855   5.344   5.380  2.1565  0.4597  0.9257
21372SOL    HW270722   1.928   5.435   5.284 -0.4016  0.3845 -1.2189
21373SOL     OW70723   4.702   9.273   6.341 -0.4922  0.2107  0.0782
21373SOL    HW170724   4.673   9.250   6.429  1.6867  1.2473  1.1735
21373SOL    HW270725   4.655   9.353   6.320 -4.0934 -2.0969 -1.5307
21374SOL     OW70726   0.202   8.746   1.532 -0.1537 -0.4908 -0.1106
21374SOL    HW170727   0.211   8.809   1.460  0.6962 -2.2963 -1.6693
21374SOL    HW270728   0.290   8.741   1.570 -0.6705  0.7097  1.3649
21375SOL     OW70729  11.161  10.299   6.643  0.0824  0.0030 -0.1728
21375SOL    HW170730  11.169  10.391   6.666  3.5496 -0.0553 -0.6486
21375SOL    HW270731  11.199  10.252   6.717  0.4191 -0.9096 -0.9010
21376SOL     OW70732   3.846   1.767  11.461 -0.0575  0.7633 -0.4335
21376SOL    HW170733   3.766   1.721  11.438  0.5825  0.6523 -2.6904
21376SOL    HW270734   3.883   1.716  11.534 -2.1276  1.0045  0.8527
21377SOL     OW70735  12.596   6.673   4.913 -0.1293 -0.2107  0.2444
21377SOL    HW170736  12.669   6.733   4.902  0.9886 -1.3826  0.9445
21377SOL    HW270737  12.578   6.674   5.007 -0.6904 -0.2941  0.1405
21378SOL     OW70738   8.141   9.611   3.934  0.2045 -0.1890  0.1740
21378SOL    HW170739   8.126   9.648   4.020  0.0995  0.8242 -0.2686
21378SOL    HW270740   8.107   9.521   3.940  1.1129 -0.4758  1.4693
21379SOL     OW70741   0.504   2.480   2.362 -0.0073  0.2892  0.9086
21379SOL    HW170742   0.473   2.408   2.417 -2.5734  0.2004 -0.4940
21379SOL    HW270743   0.461   2.558   2.398 -0.1463  0.5260  0.2593
21380SOL     OW70744  10.728   0.528  11.794  0.3483  0.9192  0.2283
21380SOL    HW170745  10.810   0.480  11.805  1.0496  1.7655 -1.0242
21380SOL    HW270746  10.666   0.483  11.851  1.2255 -0.8403 -0.1373
21381SOL     OW70747   0.567   8.155   6.250  0.9161  0.5611  0.0102
21381SOL    HW170748   0.495   8.142   6.311  0.4484 -0.8811 -0.8170
21381SOL    HW270749   0.609   8.236   6.280  0.8758 -0.2128  2.3910
21382SOL     OW70750   9.847   6.462   2.068 -0.2985  0.3967  0.0867
21382SOL    HW170751   9.925   6.410   2.089  0.1521  1.5399  1.3659
21382SOL    HW270752   9.774   6.405   2.090  0.1373 -0.6515 -1.0211
21383SOL     OW70753   7.158  11.938  10.434 -0.7856 -0.0152 -0.2026
21383SOL    HW170754   7.203  11.886  10.368  3.0619  0.8399  1.4362
21383SOL    HW270755   7.149  12.025  10.393  0.7652  0.2711 -0.0125
21384SOL     OW70756   0.472   5.085   8.568  0.3100  0.3502 -0.2584
21384SOL    HW170757   0.385   5.064   8.600  0.2222  3.6707  2.2333
21384SOL    HW270758   0.457   5.127   8.483 -0.2941 -0.8229 -0.7458
21385SOL     OW70759   9.320   1.510   3.020 -0.0522 -0.6187 -0.1616
21385SOL    HW170760   9.337   1.416   3.013  0.0798 -0.5761 -0.4086
21385SOL    HW270761   9.224   1.517   3.022 -0.0757 -0.7118 -0.8339
21386SOL     OW70762   0.519   9.720   5.952  0.0874 -0.4006  0.0061
21386SOL    HW170763   0.510   9.659   5.879 -0.8302 -0.6647  0.3339
21386SOL    HW270764   0.456   9.789   5.934  1.2050  0.5435 -0.4235
21387SOL     OW70765   4.050   0.555  12.228  0.3079  0.3639  0.3899
21387SOL    HW170766   4.066   0.464  12.253 -0.7334  0.5984  2.0959
21387SOL    HW270767   4.082   0.606  12.302 -0.7494  1.2689  0.2487
21388SOL     OW70768   0.160   6.851   5.745 -0.2609  0.3969  0.2188
21388SOL    HW170769   0.149   6.945   5.758 -0.2146  0.2972  1.0803
21388SOL    HW270770   0.242   6.830   5.791 -0.8641 -0.2502  1.0257
21389SOL     OW70771   6.068   3.978   1.698 -0.0909  0.1682 -0.3199
21389SOL    HW170772   6.121   3.905   1.665  0.0153  0.5172 -0.9241
21389SOL    HW270773   6.077   3.971   1.793 -2.9961 -2.8129 -0.0804
21390SOL     OW70774   0.411   8.910   6.248  0.3427  0.1111  0.6962
21390SOL    HW170775   0.328   8.863   6.243  1.3042 -1.5331 -0.4031
21390SOL    HW270776   0.406   8.956   6.332 -0.8822 -1.4686  1.5451
21391SOL     OW70777   6.282   0.196   2.625  0.1636  0.5168  0.1209
21391SOL    HW170778   6.301   0.193   2.532 -0.0999 -3.3638 -0.0028
21391SOL    HW270779   6.197   0.153   2.634  1.6806 -2.4569  2.2682
21392SOL     OW70780   4.476  12.426   2.950 -0.3956  0.6792 -0.1348
21392SOL    HW170781   4.391  12.467   2.964  0.2230  1.3461  2.1502
21392SOL    HW270782   4.472  12.346   3.002 -0.3836 -0.4784 -1.8375
21393SOL     OW70783   4.622  11.577   6.900 -0.0474 -0.3425 -0.3070
21393SOL    HW170784   4.581  11.661   6.921 -0.3077 -0.3933 -0.6050
21393SOL    HW270785   4.710  11.583   6.937  0.0924  0.2370 -0.7251
21394SOL     OW70786   5.544   3.608  12.784  0.1640 -0.4565  0.2658
21394SOL    HW170787   5.461   3.581  12.744 -0.3214 -0.8260  1.4898
21394SOL    HW270788   5.566   3.691  12.740 -0.2119 -0.9717 -0.9285
21395SOL     OW70789   1.036   1.418   5.208 -0.2734 -0.0237 -0.2302
21395SOL    HW170790   1.043   1.471   5.287 -1.0841  1.3365 -1.0406
21395SOL    HW270791   0.985   1.342   5.235 -0.8095  0.5761  0.4972
21396SOL     OW70792   6.959  11.235   7.883  0.0186 -0.6578 -0.0883
21396SOL    HW170793   7.027  11.278   7.935 -0.2031 -0.7862  0.3135
21396SOL    HW270794   6.971  11.269   7.795  1.6444 -1.8863 -0.3979
21397SOL     OW70795   6.698   7.077   4.788 -0.5651 -0.8554  0.3309
21397SOL    HW170796   6.645   7.045   4.861 -0.4585  0.2737  0.9244
21397SOL    HW270797   6.740   7.156   4.821 -0.2809 -0.4802 -0.8551
21398SOL     OW70798   8.325   9.605   0.111  1.1445  0.0081 -0.3750
21398SOL    HW170799   8.365   9.626   0.026 -0.7404  0.0004 -1.3177
21398SOL    HW270800   8.331   9.510   0.117 -0.4149 -0.1958 -1.4443
21399SOL     OW70801   4.269   6.184   0.084 -0.4615  0.5885 -0.0618
21399SOL    HW170802   4.319   6.251   0.130  0.7548 -0.9429  0.9846
21399SOL    HW270803   4.310   6.101   0.111  1.3144 -0.4635 -5.0472
21400SOL     OW70804   3.048  12.228   6.425 -0.3482 -0.1612 -0.0811
21400SOL    HW170805   2.977  12.276   6.468 -0.8063 -0.6711 -0.2587
21400SOL    HW270806   3.032  12.136   6.448  0.7089 -0.2014  0.5349
21401SOL     OW70807  12.201   2.370   1.690 -0.1141 -0.2572  0.6062
21401SOL    HW170808  12.116   2.409   1.706 -0.3502 -0.7629  0.5965
21401SOL    HW270809  12.263   2.428   1.735 -0.2412  1.1963 -0.9951
21402SOL     OW70810   2.288   3.464   4.976  0.3243 -0.4164  0.5085
21402SOL    HW170811   2.269   3.387   5.030  0.0116  0.1385  1.2121
21402SOL    HW270812   2.208   3.477   4.924  0.2170 -0.3293  0.6919
21403SOL     OW70813   3.078  10.337   2.537 -0.2123 -0.0413  0.2900
21403SOL    HW170814   3.029  10.297   2.608 -1.4057 -0.1861 -0.5753
21403SOL    HW270815   3.011  10.362   2.473  0.7962  0.3659 -0.6436
21404SOL     OW70816   4.394   8.565  11.565  0.5284  0.1722 -0.2468
21404SOL    HW170817   4.378   8.471  11.560  2.2810 -0.2106  0.6046
21404SOL    HW270818   4.398   8.584  11.659  1.8592  0.7376 -0.3837
21405SOL     OW70819   5.005  11.024  10.806 -0.2449 -0.4869  0.3303
21405SOL    HW170820   5.086  11.065  10.836 -0.8625  0.7464  0.3481
21405SOL    HW270821   5.032  10.936  10.779  1.5157  0.6044 -1.7566
21406SOL     OW70822  10.036   7.365   2.182  0.3980  0.2340 -0.4306
21406SOL    HW170823  10.012   7.354   2.090  1.7579  1.7736 -1.0169
21406SOL    HW270824  10.081   7.283   2.204 -4.4275 -2.5679  0.5932
21407SOL     OW70825   9.814   4.765   0.728 -0.0925 -0.5197 -1.1856
21407SOL    HW170826   9.757   4.739   0.800 -1.7437 -0.8816 -2.5742
21407SOL    HW270827   9.762   4.826   0.677  1.1202 -0.1289 -1.9927
21408SOL     OW70828   4.204   3.877   7.208  0.1780 -0.4398  0.2507
21408SOL    HW170829   4.288   3.910   7.240 -0.8700  1.3453  1.2899
21408SOL    HW270830   4.202   3.786   7.236  1.1410 -0.0945  1.5244
21409SOL     OW70831  10.516   8.236  12.019  0.5352 -0.2994  0.2881
21409SOL    HW170832  10.429   8.200  11.999  0.2228  0.4474  0.2640
21409SOL    HW270833  10.566   8.221  11.939 -1.2420  4.3474 -2.0621
21410SOL     OW70834   3.352   9.993   0.646  0.2027  0.1253 -1.0690
21410SOL    HW170835   3.284  10.018   0.709  1.8364  1.2833  0.3234
21410SOL    HW270836   3.387   9.910   0.679  1.2947  0.9032 -0.1761
21411SOL     OW70837   1.035  11.484   6.382 -0.2996  0.3052  0.1075
21411SOL    HW170838   1.000  11.404   6.344 -0.8545  0.3997  0.4071
21411SOL    HW270839   0.989  11.554   6.338 -1.8733  0.3978  1.7680
21412SOL     OW70840   5.447   9.356   1.937  0.2071  0.4190 -0.2727
21412SOL    HW170841   5.469   9.361   1.844  0.4269 -0.1129 -0.2538
21412SOL    HW270842   5.472   9.441   1.973 -0.7852  1.0038 -0.8880
21413SOL     OW70843   4.581  10.051   7.399  0.2325  0.0072  0.5525
21413SOL    HW170844   4.549   9.985   7.461 -0.7042  0.9155  1.0655
21413SOL    HW270845   4.539  10.028   7.316  2.2314 -1.7851 -0.0571
21414SOL     OW70846   5.862   8.013   5.007 -0.4049 -0.2230  0.2798
21414SOL    HW170847   5.864   8.033   4.913 -0.4626 -0.6650  0.1860
21414SOL    HW270848   5.863   8.099   5.049 -0.8304 -0.0090 -0.1320
21415SOL     OW70849   1.432  12.729   3.515  0.1920  0.1605  0.6916
21415SOL    HW170850   1.363  12.689   3.462 -1.1175  0.3380  2.1845
21415SOL    HW270851   1.397  12.815   3.539  1.6725  0.9713  0.0845
21416SOL     OW70852   3.263   6.489   3.427 -0.2509 -0.1221  0.6189
21416SOL    HW170853   3.323   6.438   3.373  1.0056  1.2870  0.6161
21416SOL    HW270854   3.196   6.521   3.366 -0.4711 -0.8867  0.4458
21417SOL     OW70855   4.522   4.317   3.922 -0.2499  0.0488 -0.3565
21417SOL    HW170856   4.589   4.249   3.932  0.1673  0.5964  0.7915
21417SOL    HW270857   4.441   4.276   3.952 -0.2967 -0.3954 -1.0732
21418SOL     OW70858   6.579   2.345   1.545  0.2169  0.3506  0.0392
21418SOL    HW170859   6.564   2.425   1.495  0.3914  0.5606  0.3192
21418SOL    HW270860   6.536   2.277   1.494 -0.4953  0.7256  0.1298
21419SOL     OW70861   1.391   5.981  11.524 -0.0281 -0.3511 -0.3721
21419SOL    HW170862   1.374   5.943  11.610  0.8114 -1.9010 -0.8516
21419SOL    HW270863   1.398   5.906  11.466 -2.7858  0.6980 -2.2807
21420SOL     OW70864   3.371   2.183   6.085 -0.1696  0.2490 -0.1206
21420SOL    HW170865   3.406   2.271   6.070 -1.8583  0.9605 -0.1521
21420SOL    HW270866   3.389   2.136   6.004  0.5166  0.6377 -0.2040
21421SOL     OW70867   9.316  11.844   5.014  0.5710 -0.1272  0.1967
21421SOL    HW170868   9.362  11.847   4.930 -0.0948 -0.0796 -0.1700
21421SOL    HW270869   9.289  11.753   5.024 -0.7701  0.1773 -0.4290
21422SOL     OW70870   1.902  10.620   8.328  0.2890  0.6087  0.0351
21422SOL    HW170871   1.995  10.599   8.326  0.0819 -0.3195 -0.3907
21422SOL    HW270872   1.899  10.714   8.341  1.3060  0.8183 -1.0930
21423SOL     OW70873  12.762  10.380   7.786  0.4345 -0.8840 -0.0973
21423SOL    HW170874  12.852  10.375   7.820 -0.2199  1.5303  2.3422
21423SOL    HW270875  12.765  10.447   7.718 -0.0196  1.8905  2.4251
21424SOL     OW70876   0.121   6.827   0.146  0.3357 -0.4512 -0.0112
21424SOL    HW170877   0.159   6.911   0.121  1.4171 -0.8405  0.2854
21424SOL    HW270878   0.060   6.848   0.217 -0.0520  0.1861 -0.5247
21425SOL     OW70879  11.966   2.355   9.102 -0.4574  0.7553 -0.2753
21425SOL    HW170880  11.994   2.427   9.159 -0.6811 -0.7408  1.8423
21425SOL    HW270881  11.872   2.368   9.092 -0.5453  0.6252  0.3293
21426SOL     OW70882   2.016  11.687   4.976  0.7875 -0.2650  0.4051
21426SOL    HW170883   2.088  11.743   5.005  1.2089 -0.7914  0.3719
21426SOL    HW270884   2.028  11.679   4.882  0.5044 -0.1006  0.3536
21427SOL     OW70885   5.543   2.121   7.565  0.0486 -0.1152  0.3523
21427SOL    HW170886   5.498   2.180   7.625  1.4933  1.0063  0.4152
21427SOL    HW270887   5.607   2.177   7.521  0.1049 -1.2391 -1.0852
21428SOL     OW70888   3.549   7.078   1.716  0.3825  0.1318 -0.2815
21428SOL    HW170889   3.575   6.987   1.733  0.1726  0.0762 -0.2595
21428SOL    HW270890   3.456   7.074   1.697 -0.2736  0.6354  2.3491
21429SOL     OW70891   4.661   2.849   0.647 -0.4213 -0.1114 -0.5686
21429SOL    HW170892   4.701   2.928   0.610 -1.5192  0.3007 -0.9218
21429SOL    HW270893   4.682   2.780   0.585  0.5740 -0.1195 -0.2421
21430SOL     OW70894  12.725  10.534  12.672 -0.0075  0.2476 -0.5409
21430SOL    HW170895  12.737  10.594  12.597 -0.1737 -1.3240 -1.8854
21430SOL    HW270896  12.792  10.467  12.659 -1.7849 -1.5632 -0.8780
21431SOL     OW70897  12.446   2.687   2.364  0.2267 -0.2966  0.2913
21431SOL    HW170898  12.454   2.731   2.448 -1.8462 -0.3031  0.5258
21431SOL    HW270899  12.536   2.659   2.343  1.1538  1.6339  1.4110
21432SOL     OW70900   7.886   0.219   7.221  0.5386  0.2892  0.0287
21432SOL    HW170901   7.944   0.235   7.296 -0.5382 -0.3117  1.0167
21432SOL    HW270902   7.894   0.125   7.205  0.9103  0.4463 -0.7562
21433SOL     OW70903   1.140   1.340   7.199 -0.0416  0.6588 -0.0348
21433SOL    HW170904   1.216   1.376   7.152  0.8169  0.2302  0.9792
21433SOL    HW270905   1.101   1.416   7.242 -1.6667  1.3105 -2.4611
21434SOL     OW70906   6.614   3.219   7.349 -0.4092  0.2153 -0.1432
21434SOL    HW170907   6.699   3.242   7.313 -0.3428  0.4989  0.1839
21434SOL    HW270908   6.571   3.304   7.365 -0.1078  0.1402  1.2051
21435SOL     OW70909  12.584   0.522   7.322 -0.6411 -0.5085 -0.1724
21435SOL    HW170910  12.580   0.560   7.234  0.2604 -0.2302 -0.1004
21435SOL    HW270911  12.518   0.453   7.321 -1.0306 -0.1436 -0.8879
21436SOL     OW70912   5.165   4.905   3.431 -0.5167  0.3247 -0.7532
21436SOL    HW170913   5.097   4.855   3.385  0.3326 -2.2684  0.6424
21436SOL    HW270914   5.228   4.840   3.460  1.7197  2.4524 -0.4508
21437SOL     OW70915   7.552   4.966   3.298  0.5522 -0.5625  0.0745
21437SOL    HW170916   7.501   4.891   3.267 -0.2351  0.1787 -0.5035
21437SOL    HW270917   7.632   4.928   3.333  0.3209 -1.6493 -0.5125
21438SOL     OW70918  12.746   4.062  12.121 -0.5773  0.4874 -0.3151
21438SOL    HW170919  12.692   4.128  12.163 -2.6843 -0.5935 -1.1630
21438SOL    HW270920  12.772   4.101  12.038 -0.3115  0.8920 -0.0454
21439SOL     OW70921   4.091   4.271   6.050  0.0433 -0.1517 -0.2415
21439SOL    HW170922   4.134   4.236   5.972 -0.1734 -1.3280  0.1437
21439SOL    HW270923   4.150   4.339   6.081  0.3214  0.0697 -1.2096
21440SOL     OW70924   5.201   9.808   3.368  0.0049 -0.5561  0.2472
21440SOL    HW170925   5.293   9.835   3.357 -0.3554  0.1367 -1.3463
21440SOL    HW270926   5.181   9.827   3.460  0.8241  1.3602  0.0770
21441SOL     OW70927   4.493   2.199   0.241 -0.5497  0.4590  0.0448
21441SOL    HW170928   4.535   2.117   0.216 -1.0215  0.0848  0.4491
21441SOL    HW270929   4.529   2.264   0.181  1.1021  0.2918  0.7964
21442SOL     OW70930   4.228   7.599  10.738  0.4964  0.3255 -0.3855
21442SOL    HW170931   4.302   7.635  10.688 -0.3212  0.9072 -1.2137
21442SOL    HW270932   4.199   7.671  10.793 -0.7314  0.7588 -1.5645
21443SOL     OW70933   3.902   9.017   0.415  0.7172 -0.5589 -0.6146
21443SOL    HW170934   3.870   8.990   0.329  0.2229  0.9412 -0.9288
21443SOL    HW270935   3.990   8.979   0.422  0.1647 -1.9778 -1.1168
21444SOL     OW70936  10.072   8.212  10.394  0.6089  0.5111 -0.1766
21444SOL    HW170937  10.037   8.253  10.473  2.2561  0.4226  0.6446
21444SOL    HW270938  10.082   8.284  10.332  1.2637  0.9634  0.4359
21445SOL     OW70939   0.133  10.707   0.304 -0.1321 -0.1342  0.0320
21445SOL    HW170940   0.057  10.700   0.361 -0.2945  0.3479 -0.1210
21445SOL    HW270941   0.097  10.715   0.216 -0.0951  3.8441  0.2266
21446SOL     OW70942   3.079   8.406   3.692 -0.0092 -0.0126  0.3252
21446SOL    HW170943   3.134   8.467   3.740  0.3034  1.9460 -2.3091
21446SOL    HW270944   3.140   8.355   3.638 -0.5237 -0.0981 -0.1942
21447SOL     OW70945   0.533   9.521   8.120  0.1365 -0.2147  0.1068
21447SOL    HW170946   0.545   9.611   8.150 -0.0902 -0.5634  1.3000
21447SOL    HW270947   0.510   9.472   8.200  0.5285 -1.3774 -0.4746
21448SOL     OW70948   1.323  12.090   4.617  0.6477 -0.0390  0.3795
21448SOL    HW170949   1.385  12.115   4.548 -0.4327 -0.9012 -0.9631
21448SOL    HW270950   1.334  11.995   4.626  1.1704  0.1428  1.8178
21449SOL     OW70951   9.458  12.420   8.703 -0.3792  0.5810 -0.4556
21449SOL    HW170952   9.385  12.449   8.759 -0.0863  0.4044  0.0264
21449SOL    HW270953   9.526  12.486   8.717  0.1278 -0.0816  0.3048
21450SOL     OW70954   2.728   7.306   1.197 -0.0020 -0.1259  0.6385
21450SOL    HW170955   2.778   7.377   1.156  1.1884 -0.7985  0.8766
21450SOL    HW270956   2.690   7.346   1.275  0.5281  0.3038  0.6867
21451SOL     OW70957  10.320  11.204   4.533 -0.2720 -0.3084 -0.5061
21451SOL    HW170958  10.280  11.117   4.540 -1.0782  0.1774  1.9097
21451SOL    HW270959  10.387  11.205   4.601 -0.4984  1.0446 -0.2781
21452SOL     OW70960  10.330   7.983  12.162 -0.5596  0.0858  0.0903
21452SOL    HW170961  10.299   8.072  12.177 -0.9032  0.0634 -0.4371
21452SOL    HW270962  10.282   7.954  12.085  0.0726 -0.3026 -0.1686
21453SOL     OW70963   6.152   9.645   3.354  0.0353 -0.1277 -0.7693
21453SOL    HW170964   6.187   9.712   3.413  1.3203 -0.3902 -1.2162
21453SOL    HW270965   6.081   9.605   3.404  1.5555 -0.8424  0.9302
21454SOL     OW70966   9.967  12.283  12.780  0.0513  0.1954 -0.6893
21454SOL    HW170967   9.946  12.261  12.690 -0.2470 -1.2219 -0.2972
21454SOL    HW270968  10.010  12.205  12.815  2.3607  1.5372 -0.2788
21455SOL     OW70969   0.473   2.969   6.215  0.4253 -0.3097 -0.5669
21455SOL    HW170970   0.419   3.042   6.245  1.0939  0.3126 -0.8506
21455SOL    HW270971   0.447   2.895   6.270  0.0038  0.2307 -0.0309
21456SOL     OW70972   6.222   2.829   6.580  0.0996 -0.2747  0.0827
21456SOL    HW170973   6.164   2.760   6.546  0.0179 -0.8089  1.2441
21456SOL    HW270974   6.290   2.838   6.514 -0.1911 -1.1004 -0.3448
21457SOL     OW70975   3.605   9.265   5.327 -0.3797 -0.2177  0.1678
21457SOL    HW170976   3.585   9.329   5.395 -0.1953 -0.1966  0.2039
21457SOL    HW270977   3.529   9.266   5.269 -0.6775 -0.4633  0.5472
21458SOL     OW70978   1.131   4.714   4.348 -0.2084 -0.8884 -0.4259
21458SOL    HW170979   1.051   4.757   4.318 -0.3732 -2.1311 -1.8790
21458SOL    HW270980   1.185   4.707   4.269  1.3492 -0.0732  0.5342
21459SOL     OW70981   5.197   7.219   9.363 -0.0845  0.3258  0.9248
21459SOL    HW170982   5.114   7.265   9.376  0.0654  0.9749 -0.3106
21459SOL    HW270983   5.217   7.182   9.449 -1.6462  0.1459  1.2477
21460SOL     OW70984   2.400   2.747   9.897 -0.3771 -0.2687 -0.2320
21460SOL    HW170985   2.371   2.781   9.982  1.5106  2.7671 -0.6432
21460SOL    HW270986   2.477   2.694   9.916  1.0964  1.7931 -0.0353
21461SOL     OW70987  12.449   1.386   4.476  0.0803  0.4298 -0.4283
21461SOL    HW170988  12.508   1.351   4.543 -2.0596 -2.0428  0.3217
21461SOL    HW270989  12.487   1.359   4.393 -0.5028 -2.2514  0.0829
21462SOL     OW70990   6.223  10.693   7.858  0.1566  0.2491 -0.0508
21462SOL    HW170991   6.131  10.716   7.863  0.0320 -0.5437  3.0839
21462SOL    HW270992   6.257  10.709   7.946  2.7443 -0.5787 -0.8081
21463SOL     OW70993   9.190   7.146   1.239  0.3096  0.1579  0.1390
21463SOL    HW170994   9.229   7.060   1.251 -2.3309 -1.8533 -3.5797
21463SOL    HW270995   9.243   7.187   1.171 -0.8102 -0.3839 -1.1111
21464SOL     OW70996   3.648   3.882   6.455 -0.0718 -0.3002  0.1827
21464SOL    HW170997   3.658   3.807   6.396  1.3183  0.5608 -0.7146
21464SOL    HW270998   3.737   3.901   6.485 -0.6547 -0.2082  1.9445
21465SOL     OW70999   0.376  11.052   7.696  0.7841  0.0243  0.8829
21465SOL    HW171000   0.399  10.961   7.712 -0.4372 -0.3179  0.8230
21465SOL    HW271001   0.298  11.067   7.751 -0.3444  0.3677 -0.7546
21466SOL     OW71002   2.015   3.943   2.353  0.3302  0.6516  0.6387
21466SOL    HW171003   1.939   3.998   2.369  1.0320  2.2971 -1.2858
21466SOL    HW271004   1.987   3.883   2.284  0.8442  1.5508 -0.3904
21467SOL     OW71005   7.433   1.284  10.228  0.7852 -0.1600 -0.6433
21467SOL    HW171006   7.407   1.377  10.228  2.0395  0.2107 -0.1597
21467SOL    HW271007   7.529   1.286  10.223  0.7871 -1.4608 -1.8053
21468SOL     OW71008   7.545   5.451   8.769 -0.3407  0.0597  0.8667
21468SOL    HW171009   7.583   5.377   8.721  0.6379  1.2912 -0.3533
21468SOL    HW271010   7.614   5.477   8.830 -0.4410  0.3436  0.8570
21469SOL     OW71011  12.585   6.584  11.608 -0.4368  0.3888 -0.5288
21469SOL    HW171012  12.628   6.615  11.529  0.2541  0.3540 -0.1771
21469SOL    HW271013  12.555   6.663  11.653  1.5228  0.6223  0.4816
21470SOL     OW71014   8.942   4.091   6.755  0.1354  0.1128  0.2738
21470SOL    HW171015   8.928   4.029   6.683 -0.3876  0.5627 -0.0235
21470SOL    HW271016   9.024   4.136   6.733  0.9842 -1.0473  0.9276
21471SOL     OW71017   5.171   9.813  12.609 -0.7129  0.6931  0.3257
21471SOL    HW171018   5.226   9.738  12.630 -0.0538  1.5340  1.7094
21471SOL    HW271019   5.163   9.812  12.513  1.2163  0.2055  0.1472
21472SOL     OW71020   6.832   9.917   2.770 -0.1216 -0.0552  0.5589
21472SOL    HW171021   6.873  10.003   2.777  0.9489 -0.5231  0.2480
21472SOL    HW271022   6.885   9.860   2.826 -0.2843 -0.6965  0.0744
21473SOL     OW71023   9.324   9.305   9.269  0.1792 -0.0477  0.3069
21473SOL    HW171024   9.319   9.273   9.179 -1.3890  0.1102  0.3027
21473SOL    HW271025   9.392   9.372   9.267  0.6664 -0.5522 -0.5911
21474SOL     OW71026  12.506   6.097   0.659  0.1383 -0.3126  0.0472
21474SOL    HW171027  12.551   6.151   0.724 -1.1384  1.9191 -0.8013
21474SOL    HW271028  12.574   6.069   0.599  0.9394 -0.2954  0.9250
21475SOL     OW71029   9.581   6.206   8.252 -0.3791 -0.1515 -0.1423
21475SOL    HW171030   9.500   6.164   8.223 -0.4370  1.0666 -1.9567
21475SOL    HW271031   9.578   6.293   8.211  1.3339  0.3170  0.6445
21476SOL     OW71032  11.067   2.192  12.013  0.6526  0.0877  0.2984
21476SOL    HW171033  11.128   2.162  11.946 -0.0527 -2.1341  0.5673
21476SOL    HW271034  11.123   2.227  12.082  1.5376 -0.3930 -0.1517
21477SOL     OW71035  12.763   0.566   0.554 -0.1225 -0.2178 -0.3142
21477SOL    HW171036  12.815   0.566   0.473 -0.4216 -1.6224 -0.5246
21477SOL    HW271037  12.704   0.640   0.543  0.5660  0.2670 -0.9032
21478SOL     OW71038   9.291   6.608  12.014 -0.0602  0.1726  0.0381
21478SOL    HW171039   9.290   6.580  12.106 -0.2322 -1.0060 -0.3082
21478SOL    HW271040   9.363   6.672  12.010  1.3869 -1.3300  0.5675
21479SOL     OW71041   6.233   8.013   0.105  0.0784  0.0543  0.1931
21479SOL    HW171042   6.306   7.952   0.096 -1.0918 -1.0968 -3.3958
21479SOL    HW271043   6.185   7.983   0.182  1.7155 -1.0645  0.8147
21480SOL     OW71044  11.167   6.190   4.693  0.3318 -0.1086  0.3351
21480SOL    HW171045  11.133   6.114   4.645  1.3835 -0.4929  0.1801
21480SOL    HW271046  11.212   6.152   4.768 -1.5261  0.5004  1.8227
21481SOL     OW71047   5.028   0.824   3.861  0.5834 -0.1107 -0.3190
21481SOL    HW171048   5.088   0.797   3.791  0.4929 -0.1341 -0.3888
21481SOL    HW271049   4.948   0.773   3.844  0.1778  0.6775 -0.8385
21482SOL     OW71050   2.790   2.045   9.800  0.0343  0.3835  0.0200
21482SOL    HW171051   2.716   2.020   9.744  0.1485  0.6309 -0.2470
21482SOL    HW271052   2.812   1.965   9.848 -0.5877  0.3869  0.3151
21483SOL     OW71053   0.954   3.095   7.975  0.1653 -0.2083 -0.2782
21483SOL    HW171054   0.995   3.101   8.061 -2.0276 -0.9962  0.9231
21483SOL    HW271055   0.911   3.009   7.975 -1.4955  0.5665 -1.3785
21484SOL     OW71056  11.736   3.371   9.747 -0.1838 -0.3058  0.4587
21484SOL    HW171057  11.682   3.293   9.757  0.3462 -0.7727 -0.2205
21484SOL    HW271058  11.798   3.348   9.678  0.8264  0.2419  1.1535
21485SOL     OW71059   0.526   8.715   4.016  0.0091  0.4126 -0.0756
21485SOL    HW171060   0.612   8.683   4.042  0.4322  1.3460 -0.2821
21485SOL    HW271061   0.533   8.730   3.922 -0.6426 -0.2852 -0.2461
21486SOL     OW71062  11.911  10.952   8.803 -0.0145 -0.0365 -0.1034
21486SOL    HW171063  11.944  10.863   8.814  1.6549  0.1451 -2.5869
21486SOL    HW271064  11.875  10.976   8.888  1.9403 -2.1164  1.4302
21487SOL     OW71065  11.649   0.241   8.738 -0.4516  0.5798  0.1033
21487SOL    HW171066  11.679   0.217   8.826  1.2515 -0.3548 -0.6742
21487SOL    HW271067  11.683   0.329   8.725 -1.9870  1.3281  0.9015
21488SOL     OW71068   5.550   0.371   3.980 -0.2997 -0.8747 -0.2962
21488SOL    HW171069   5.627   0.339   4.026  1.2227 -0.8079 -2.6558
21488SOL    HW271070   5.583   0.442   3.925 -1.8272 -1.5185 -2.1344
21489SOL     OW71071   0.787   0.681   5.588  0.4395 -0.2923  0.0057
21489SOL    HW171072   0.747   0.594   5.592 -3.1545  1.2403  3.3168
21489SOL    HW271073   0.835   0.689   5.670 -0.2677  1.2496  0.2978
21490SOL     OW71074   2.128  10.941   8.579  0.3227 -0.3945  0.1203
21490SOL    HW171075   2.077  11.010   8.536 -0.8493 -1.2029  0.1776
21490SOL    HW271076   2.207  10.986   8.610  0.5801  0.4931 -1.6646
21491SOL     OW71077   3.093   8.679   9.617 -0.1018  0.2408 -0.6437
21491SOL    HW171078   3.177   8.724   9.610  0.3830 -0.4685  0.3385
21491SOL    HW271079   3.028   8.749   9.625  0.6879  0.7808  1.4402
21492SOL     OW71080   7.186   6.141   3.592  0.4621 -0.2000  0.2664
21492SOL    HW171081   7.213   6.049   3.588  0.9891 -0.0358 -0.0957
21492SOL    HW271082   7.160   6.154   3.683 -1.7899 -1.2903 -0.1584
21493SOL     OW71083   3.880   3.830   5.268  0.3133 -0.0434  0.2172
21493SOL    HW171084   3.824   3.766   5.225  1.9319 -1.1684 -0.2895
21493SOL    HW271085   3.841   3.841   5.355 -0.3974 -1.1931  0.0658
21494SOL     OW71086   1.064   6.751   9.205  0.2991  0.4527 -0.1276
21494SOL    HW171087   1.054   6.754   9.110 -1.0820  0.8335  0.0104
21494SOL    HW271088   1.091   6.661   9.223  1.7079  0.6882 -0.9624
21495SOL     OW71089   0.107   3.449   9.265 -0.0217  0.3930  0.0017
21495SOL    HW171090   0.168   3.521   9.250 -0.1341  0.0663 -2.4068
21495SOL    HW271091   0.020   3.490   9.261 -0.0628  0.6621  2.2668
21496SOL     OW71092   5.340  11.613   6.687 -0.1249  0.5286 -0.2643
21496SOL    HW171093   5.262  11.667   6.704 -0.2438  0.6243 -1.0410
21496SOL    HW271094   5.359  11.629   6.594  1.8283  1.8468  0.2856
21497SOL     OW71095   4.751   1.263   9.919  0.4222  0.0332 -1.0783
21497SOL    HW171096   4.846   1.268   9.905  0.4904 -0.3307 -0.7580
21497SOL    HW271097   4.724   1.187   9.867  0.5666 -0.8901  0.1622
21498SOL     OW71098   9.452   4.116   9.720 -0.4738  0.5646 -0.0568
21498SOL    HW171099   9.468   4.023   9.706 -1.0438  0.0365  2.3590
21498SOL    HW271100   9.360   4.121   9.748 -0.8045  2.0202 -1.2452
21499SOL     OW71101   5.111   2.224  10.754 -0.0218 -0.5179  0.5932
21499SOL    HW171102   5.070   2.205  10.838  1.5263  0.2619  1.5717
21499SOL    HW271103   5.173   2.295  10.773  0.1765 -0.1333 -1.2652
21500SOL     OW71104  10.103  11.637   5.948  0.3822  0.0147  0.4958
21500SOL    HW171105  10.022  11.627   5.998 -1.3793 -2.7875 -2.5492
21500SOL    HW271106  10.151  11.555   5.964  1.5246  0.6497  0.4176
21501SOL     OW71107   9.536   9.456   8.543 -0.2449  0.1655 -0.0016
21501SOL    HW171108   9.460   9.430   8.491 -0.9724 -2.5777  2.2373
21501SOL    HW271109   9.603   9.390   8.522  0.4095  0.6692  0.4587
21502SOL     OW71110   0.126   6.384   9.849  0.0167  0.0669 -0.0185
21502SOL    HW171111   0.159   6.474   9.856  1.4877 -0.3266 -1.4835
21502SOL    HW271112   0.204   6.329   9.853 -0.6913 -1.0562 -0.9347
21503SOL     OW71113   1.442   6.208   0.662 -0.2449  0.7849  0.3016
21503SOL    HW171114   1.537   6.215   0.671  0.1088  1.4970 -2.8719
21503SOL    HW271115   1.427   6.115   0.645 -0.0738  0.7285  0.4562
21504SOL     OW71116   2.111   3.693  11.644  0.1741 -0.0960 -0.2881
21504SOL    HW171117   2.026   3.654  11.624 -0.4981  0.8476  0.6582
21504SOL    HW271118   2.174   3.639  11.595 -1.1188  0.4064 -2.6406
21505SOL     OW71119   9.031  10.874   2.290 -0.9153  0.2267 -0.9378
21505SOL    HW171120   9.079  10.944   2.334 -0.0831  0.3396 -1.9786
21505SOL    HW271121   9.058  10.881   2.198  1.0390 -2.8896 -0.7511
21506SOL     OW71122   4.403   9.155   9.631 -0.2213  0.4125  0.5600
21506SOL    HW171123   4.442   9.174   9.545 -0.0819  2.6005  1.0414
21506SOL    HW271124   4.449   9.077   9.661 -0.7275 -0.8227 -1.6063
21507SOL     OW71125  10.556   1.046   0.714 -0.3118 -0.1218  0.2956
21507SOL    HW171126  10.474   0.998   0.707 -0.5779 -0.0828  2.4538
21507SOL    HW271127  10.621   0.989   0.672 -1.4810  0.1728 -2.1068
21508SOL     OW71128   3.419   1.979  10.349 -0.1629  0.4990  0.4713
21508SOL    HW171129   3.381   1.891  10.352 -0.9913  0.8641  0.7225
21508SOL    HW271130   3.511   1.966  10.372  0.3253 -0.6374 -1.7893
21509SOL     OW71131   4.926   1.364  10.410 -0.2772 -0.0909  0.1502
21509SOL    HW171132   4.885   1.316  10.339 -1.1833  0.5286  0.2397
21509SOL    HW271133   5.008   1.317  10.427 -0.3025 -0.5473 -0.9417
21510SOL     OW71134   1.953   2.546   9.062 -0.0194  0.1598  0.3742
21510SOL    HW171135   1.879   2.550   9.122 -0.4627 -0.5095 -0.1158
21510SOL    HW271136   1.949   2.627   9.012 -0.4379  0.1183  0.3398
21511SOL     OW71137   7.431   8.894   5.794  0.0392 -0.0170  0.0142
21511SOL    HW171138   7.411   8.987   5.809 -0.5337 -0.3967  1.8818
21511SOL    HW271139   7.524   8.886   5.815  0.3139  0.2800 -1.0278
21512SOL     OW71140   9.805   3.906   1.469 -0.1257  0.1537  0.4456
21512SOL    HW171141   9.723   3.870   1.504 -1.1256  1.5649 -0.3677
21512SOL    HW271142   9.816   3.989   1.514  0.5615  0.2411  0.1255
21513SOL     OW71143  10.251   0.054   1.326  0.3371 -0.2299 -0.3127
21513SOL    HW171144  10.236  -0.038   1.349  0.2044  0.1895  1.4012
21513SOL    HW271145  10.346   0.061   1.320  0.3819 -0.3428  0.1976
21514SOL     OW71146   7.105   3.634   2.126 -0.1076 -0.3158  0.0750
21514SOL    HW171147   7.160   3.708   2.102  0.4628 -0.4165  1.0442
21514SOL    HW271148   7.039   3.630   2.056  0.2391  0.6960 -0.3281
21515SOL     OW71149   0.663  10.974  12.357 -0.0808  0.0712  0.2824
21515SOL    HW171150   0.710  11.009  12.433  1.6291 -2.2917  0.4509
21515SOL    HW271151   0.712  11.005  12.281  0.7170 -0.9006  0.3782
21516SOL     OW71152  11.596  11.617   9.351  0.1076 -0.1329 -0.6869
21516SOL    HW171153  11.579  11.685   9.285  0.4543  1.1803  0.5132
21516SOL    HW271154  11.684  11.586   9.331  1.2330  2.0134  0.5523
21517SOL     OW71155   2.943   0.302  10.408 -0.5840 -0.0745  0.8891
21517SOL    HW171156   2.943   0.398  10.404  0.6757 -0.0658  0.8756
21517SOL    HW271157   2.957   0.274  10.318 -2.7698 -0.3408  0.5573
21518SOL     OW71158   2.015  10.989   7.010 -0.1522  0.1314  0.0784
21518SOL    HW171159   1.936  11.044   7.003  0.1787  0.4684 -1.4563
21518SOL    HW271160   2.060  11.002   6.926  1.6467  0.0974  0.9969
21519SOL     OW71161   2.610  12.339   4.645 -0.2301 -0.0544  0.1295
21519SOL    HW171162   2.603  12.376   4.557  0.0349 -0.3110  0.0004
21519SOL    HW271163   2.527  12.293   4.658  0.1279 -0.8604 -0.3762
21520SOL     OW71164  11.345  12.159  12.058 -0.3676 -0.2504  0.0881
21520SOL    HW171165  11.286  12.215  12.109 -1.7667 -1.8355  0.3196
21520SOL    HW271166  11.373  12.091  12.119 -0.1557 -0.8165 -0.6198
21521SOL     OW71167   8.448   1.713   8.705 -0.2059  0.4743  0.2047
21521SOL    HW171168   8.543   1.722   8.709 -0.0932 -0.6356  0.2709
21521SOL    HW271169   8.433   1.643   8.642 -0.9890  0.7599  0.0653
21522SOL     OW71170   1.455  12.290   2.891 -0.0229 -0.0089  0.1000
21522SOL    HW171171   1.390  12.360   2.891  0.5982  0.5853  0.7911
21522SOL    HW271172   1.405  12.211   2.868 -0.7991  0.5856 -0.3245
21523SOL     OW71173   9.775   0.574  12.258  1.1557  0.5413 -0.0831
21523SOL    HW171174   9.860   0.589  12.298  1.9693 -1.9162 -0.7062
21523SOL    HW271175   9.739   0.499  12.306 -0.0386  0.6661 -0.7393
21524SOL     OW71176  11.101   1.608   3.774  0.2876  0.2680  0.1021
21524SOL    HW171177  11.028   1.553   3.802  0.1746  0.1764 -0.3669
21524SOL    HW271178  11.066   1.662   3.703  0.8185 -0.2044 -0.5414
21525SOL     OW71179   3.762   5.545   9.861  0.2237 -0.8799 -0.0244
21525SOL    HW171180   3.841   5.561   9.912  0.6527 -0.7151 -0.7236
21525SOL    HW271181   3.704   5.618   9.883  0.6235 -0.5043 -0.1973
21526SOL     OW71182   0.585  11.594  11.773 -0.2323 -0.4413 -0.3750
21526SOL    HW171183   0.590  11.686  11.747  0.3940 -0.2999  0.2388
21526SOL    HW271184   0.575  11.596  11.868 -2.2760 -0.9568 -0.5264
21527SOL     OW71185   8.723  11.633  11.386 -0.3838 -0.0288  0.0537
21527SOL    HW171186   8.666  11.593  11.320  0.9337 -2.1342  0.0833
21527SOL    HW271187   8.769  11.559  11.425 -0.5060  1.2317  2.8023
21528SOL     OW71188   0.037   6.471   5.289  0.0530  0.0907 -0.2748
21528SOL    HW171189  -0.035   6.418   5.324  1.1129 -0.3650  1.3245
21528SOL    HW271190   0.095   6.407   5.246 -0.5485  0.4733 -1.6895
21529SOL     OW71191   7.478   8.555  10.443  0.2985  0.1914 -0.7036
21529SOL    HW171192   7.514   8.476  10.484 -1.3512 -0.0307  0.4174
21529SOL    HW271193   7.388   8.530  10.419 -0.8744  2.1706  1.2485
21530SOL     OW71194   1.459   8.277  11.156  0.3931  0.2440  0.4545
21530SOL    HW171195   1.505   8.339  11.213  2.5759  0.2589 -1.1888
21530SOL    HW271196   1.396   8.330  11.109  0.3173  0.6870  1.0349
21531SOL     OW71197   5.512   0.138   8.110  0.3113 -0.1164  0.0559
21531SOL    HW171198   5.515   0.139   8.014  0.2903 -0.2967  0.0519
21531SOL    HW271199   5.420   0.125   8.131  0.3849 -0.5853  0.0947
21532SOL     OW71200   4.682  10.801   0.692 -0.1654  0.7259 -0.4137
21532SOL    HW171201   4.590  10.826   0.688 -0.1777  0.8963  0.6496
21532SOL    HW271202   4.691  10.732   0.627 -1.2539  0.0786  0.0883
21533SOL     OW71203   0.661   1.105   9.305  0.1921  0.3346  0.2619
21533SOL    HW171204   0.694   1.194   9.300  1.0443 -0.0134 -0.7943
21533SOL    HW271205   0.702   1.060   9.231  0.1733 -1.0538  1.0582
21534SOL     OW71206   6.672   2.842   1.637 -0.0613  0.0402  0.5084
21534SOL    HW171207   6.704   2.908   1.698 -0.2236  1.9203 -1.3359
21534SOL    HW271208   6.723   2.857   1.557 -2.5859  0.3586 -1.1300
21535SOL     OW71209   6.642   0.409   2.356 -0.3036  0.2472 -0.1310
21535SOL    HW171210   6.662   0.485   2.301 -1.5988  1.5599  1.1615
21535SOL    HW271211   6.608   0.446   2.437 -1.3361 -1.7230  0.3856
21536SOL     OW71212  11.461   0.847   7.789 -0.4736  0.3348  0.3585
21536SOL    HW171213  11.383   0.798   7.816  1.0230 -1.6786  1.3113
21536SOL    HW271214  11.477   0.907   7.862 -1.2731  0.9957  0.0130
21537SOL     OW71215   0.806  11.887   5.477 -0.4133  0.2982  0.1177
21537SOL    HW171216   0.825  11.943   5.402 -0.7170  1.3398  0.8043
21537SOL    HW271217   0.724  11.843   5.455  0.7683 -1.3846 -1.2489
21538SOL     OW71218   9.394   8.474   1.608 -0.6302 -0.6031  0.1933
21538SOL    HW171219   9.348   8.445   1.687  1.0373 -1.1272  1.0352
21538SOL    HW271220   9.418   8.565   1.626 -0.6919 -0.5668  0.0895
21539SOL     OW71221   3.868   5.841   7.554  0.0656  0.4707  0.1457
21539SOL    HW171222   3.897   5.810   7.640  2.3385  0.9480 -0.3995
21539SOL    HW271223   3.874   5.936   7.560  1.6258  0.4704 -0.9577
21540SOL     OW71224   8.856   2.205   7.582 -0.1337  0.5159 -0.3757
21540SOL    HW171225   8.873   2.296   7.559 -0.7309  0.5499 -0.6975
21540SOL    HW271226   8.933   2.157   7.552  0.1700  0.9066 -0.2258
21541SOL     OW71227   1.455   5.026   9.821 -0.0026  0.1248 -0.1295
21541SOL    HW171228   1.539   5.024   9.775 -0.9280 -0.4536 -1.8778
21541SOL    HW271229   1.463   4.961   9.889  0.4001 -1.1865 -1.3826
21542SOL     OW71230   7.311   0.227   5.608 -0.1433  0.2564 -0.0623
21542SOL    HW171231   7.375   0.156   5.609  0.2506  0.5906 -0.7186
21542SOL    HW271232   7.255   0.211   5.684 -0.3209 -0.9996 -0.4321
21543SOL     OW71233   0.145   2.969  12.535  0.2107 -0.4874 -0.4485
21543SOL    HW171234   0.216   3.032  12.525 -0.1204 -0.1218 -0.5287
21543SOL    HW271235   0.182   2.886  12.505  0.8755 -0.4864  0.3385
21544SOL     OW71236   2.738   4.509   4.978  0.5746  0.4385  0.2124
21544SOL    HW171237   2.735   4.437   5.041 -0.8053  1.0014  0.8490
21544SOL    HW271238   2.825   4.504   4.939  0.6281 -1.3590  0.4765
21545SOL     OW71239   5.794   4.150   8.668  0.3054 -0.2257 -0.5402
21545SOL    HW171240   5.831   4.214   8.728 -1.7750 -0.8646  1.5614
21545SOL    HW271241   5.852   4.074   8.676  0.9692  0.2537 -0.6413
21546SOL     OW71242   1.685   4.443   9.782 -0.2373 -0.8913  0.7000
21546SOL    HW171243   1.746   4.389   9.732  0.3430  0.4011 -0.0416
21546SOL    HW271244   1.634   4.490   9.716 -0.4667 -0.2499  1.3167
21547SOL     OW71245   1.107   7.788  12.620 -0.3028  0.2140  0.2665
21547SOL    HW171246   1.184   7.828  12.661  0.5066 -0.2326 -0.7776
21547SOL    HW271247   1.039   7.796  12.686  0.3354  1.6162  0.8078
21548SOL     OW71248   5.612   0.126   6.805 -0.0191  0.0543  0.8811
21548SOL    HW171249   5.519   0.144   6.819 -0.4111 -0.8194 -0.4402
21548SOL    HW271250   5.633   0.168   6.721  0.3049 -1.2535  0.2790
21549SOL     OW71251   4.714   0.948   2.677  0.1646 -0.3877 -0.6988
21549SOL    HW171252   4.691   0.862   2.712 -0.3316  0.4078  1.0576
21549SOL    HW271253   4.652   1.008   2.719  0.9653  0.9152 -1.3170
21550SOL     OW71254  10.504  11.692   4.164  0.2888  0.0757  0.2241
21550SOL    HW171255  10.511  11.603   4.200 -0.9008  0.5540  1.7627
21550SOL    HW271256  10.415  11.696   4.129  0.2301  0.7341  0.4407
21551SOL     OW71257   2.232   8.354   2.041  0.2904  0.0870 -0.4886
21551SOL    HW171258   2.245   8.413   2.115  1.9555 -0.3220 -0.4126
21551SOL    HW271259   2.285   8.393   1.971 -1.5170  0.6541 -1.6029
21552SOL     OW71260   1.132   1.847   4.599 -0.2200  0.2295  0.1896
21552SOL    HW171261   1.147   1.926   4.546 -1.4327  0.0328 -0.4885
21552SOL    HW271262   1.218   1.805   4.603 -0.1658 -0.0535 -2.1782
21553SOL     OW71263   8.846   9.070   8.267  0.1459 -0.8288  0.0329
21553SOL    HW171264   8.767   9.083   8.319  0.3266  2.8689 -0.3816
21553SOL    HW271265   8.815   9.029   8.186 -1.2629 -0.0517  0.1529
21554SOL     OW71266   6.529   8.154   9.019 -0.0823  0.2831 -0.3722
21554SOL    HW171267   6.524   8.235   9.069 -0.3962  0.1315 -0.1539
21554SOL    HW271268   6.608   8.111   9.051  0.0254  0.4516 -0.4110
21555SOL     OW71269   4.500  10.078   2.488 -0.1676  0.1032 -0.2168
21555SOL    HW171270   4.572  10.113   2.435  0.6009 -0.9279  0.0963
21555SOL    HW271271   4.509  10.122   2.573  0.5612 -0.5396  0.0556
21556SOL     OW71272   2.707   4.545  11.747  0.5391  0.2448  0.0287
21556SOL    HW171273   2.689   4.633  11.715 -0.9702 -0.2914 -0.6759
21556SOL    HW271274   2.708   4.491  11.669 -0.8658 -0.7187  0.6357
21557SOL     OW71275   5.604   3.518   7.344 -0.8692  0.5677 -0.3389
21557SOL    HW171276   5.630   3.483   7.259  1.0769  0.6047  0.1895
21557SOL    HW271277   5.660   3.595   7.356 -0.6207  0.1654  1.2510
21558SOL     OW71278   0.907   7.184  11.927 -0.0960 -0.4629 -0.3194
21558SOL    HW171279   0.943   7.152  11.845 -1.0988 -1.2884 -0.4529
21558SOL    HW271280   0.964   7.257  11.952  0.3336 -0.3382 -1.6334
21559SOL     OW71281  12.437   8.296   9.024  0.0715 -0.2463  0.0256
21559SOL    HW171282  12.522   8.254   9.040 -0.7019 -0.9487  2.9393
21559SOL    HW271283  12.456   8.390   9.033  0.8266 -0.2628 -1.1536
21560SOL     OW71284  11.350   1.864   5.868  0.1624 -0.2007  0.2781
21560SOL    HW171285  11.388   1.949   5.848  1.3557 -1.0666 -1.3178
21560SOL    HW271286  11.380   1.844   5.957  1.5472  0.1569 -0.1005
21561SOL     OW71287   7.548   1.363   9.685  0.3369 -0.2545 -0.2832
21561SOL    HW171288   7.489   1.330   9.617  0.6078  1.1428 -1.2465
21561SOL    HW271289   7.606   1.289   9.704 -0.4446 -1.0124 -0.7755
21562SOL     OW71290   1.899   7.652   0.810 -1.0901 -0.3203 -0.2629
21562SOL    HW171291   1.973   7.600   0.776 -1.3545  0.3068 -1.8550
21562SOL    HW271292   1.882   7.614   0.896 -0.7236 -2.3347 -1.0177
21563SOL     OW71293   7.643  11.911   9.036 -0.6750 -0.8539  0.1005
21563SOL    HW171294   7.703  11.843   9.006  0.2639  0.9591 -2.5415
21563SOL    HW271295   7.577  11.864   9.087  1.7187 -3.2193  1.2635
21564SOL     OW71296   9.104   9.704   2.388  0.6930  0.6184  0.1553
21564SOL    HW171297   9.018   9.745   2.398  0.5420  0.5918 -0.8565
21564SOL    HW271298   9.088   9.630   2.329  1.5126  1.0141 -0.5982
21565SOL     OW71299   4.682  10.855  12.235  0.0441  0.0363 -0.4633
21565SOL    HW171300   4.639  10.801  12.169  0.5479  0.4564 -1.1434
21565SOL    HW271301   4.648  10.943  12.221 -2.1541 -0.3479  1.8009
21566SOL     OW71302   7.667   4.522   3.504  0.1799  0.1601 -0.3262
21566SOL    HW171303   7.689   4.441   3.551  1.0419  0.0166 -0.9547
21566SOL    HW271304   7.638   4.492   3.418 -0.6157  0.4673 -0.1704
21567SOL     OW71305   7.055   7.964   4.097  0.1606 -0.2687 -0.0969
21567SOL    HW171306   7.148   7.975   4.075  0.2885 -0.6214  0.2341
21567SOL    HW271307   7.022   7.901   4.033  0.2088 -0.3139 -0.0780
21568SOL     OW71308   4.118   5.762   7.080  0.4848 -0.2944  0.1072
21568SOL    HW171309   4.163   5.844   7.098 -0.4301  0.0870  0.7319
21568SOL    HW271310   4.045   5.760   7.142 -0.6541 -0.6491 -1.1865
21569SOL     OW71311   9.155   4.753   2.316  0.3449  0.2634  0.5603
21569SOL    HW171312   9.070   4.796   2.311 -0.1386 -0.6838  0.4303
21569SOL    HW271313   9.158   4.697   2.238  1.9280  1.7674 -0.5371
21570SOL     OW71314   6.415   8.150   7.113 -0.4970  0.2724  0.1061
21570SOL    HW171315   6.433   8.224   7.055  0.4997 -1.7879 -2.4055
21570SOL    HW271316   6.333   8.173   7.157 -0.5455  2.5550 -1.0299
21571SOL     OW71317  11.703   0.172   2.226 -0.2040 -0.1613  0.1140
21571SOL    HW171318  11.752   0.090   2.235  2.3462  1.2237 -0.1344
21571SOL    HW271319  11.701   0.208   2.315  0.9388  0.6519 -0.1622
21572SOL     OW71320   4.747   0.780   5.459  0.0453 -0.0603 -0.0263
21572SOL    HW171321   4.805   0.848   5.492  1.2115 -1.9784  2.2180
21572SOL    HW271322   4.759   0.781   5.364 -0.8801  3.5288 -0.2402
21573SOL     OW71323   4.012  10.411  12.177  0.7680  0.0452  0.1422
21573SOL    HW171324   4.031  10.505  12.185  0.3559  0.1111  0.3468
21573SOL    HW271325   3.992  10.384  12.266 -0.0015 -0.0501 -0.0590
21574SOL     OW71326   2.398   9.400   5.992 -0.2790 -0.5887  0.3449
21574SOL    HW171327   2.470   9.454   5.958 -0.0545 -0.8295  0.4307
21574SOL    HW271328   2.365   9.449   6.067 -0.2261 -0.4596  0.2835
21575SOL     OW71329   6.213  10.736   7.167 -0.1266  0.0130  0.3560
21575SOL    HW171330   6.244  10.649   7.193  0.8012  0.5556  1.1289
21575SOL    HW271331   6.225  10.791   7.245  2.9828  1.7564 -1.1683
21576SOL     OW71332   2.976   6.240   8.999  0.0609  0.0820  0.2495
21576SOL    HW171333   2.923   6.241   8.919  1.9506 -2.3298 -1.1721
21576SOL    HW271334   2.912   6.224   9.069 -1.3484 -0.8829 -1.1529
21577SOL     OW71335   6.379   2.744   0.268 -0.4599  0.5821  0.0466
21577SOL    HW171336   6.393   2.658   0.230  0.7722  0.6233  0.3683
21577SOL    HW271337   6.447   2.799   0.229 -0.2727  1.0334  0.9749
21578SOL     OW71338   0.486   9.694   1.950 -0.0469 -0.6695 -0.1013
21578SOL    HW171339   0.462   9.613   1.904 -2.6411  0.4204 -0.8437
21578SOL    HW271340   0.462   9.764   1.890 -0.3238  0.7236  1.5510
21579SOL     OW71341   4.851   6.343   0.970 -0.2633 -0.0347 -0.6516
21579SOL    HW171342   4.783   6.385   0.918 -0.7963  2.0210  1.5424
21579SOL    HW271343   4.931   6.390   0.947  0.1127 -1.1418 -1.7574
21580SOL     OW71344   7.496  12.310   5.757  0.6815  0.9555 -0.2258
21580SOL    HW171345   7.564  12.290   5.693  1.3298 -0.4894  0.8564
21580SOL    HW271346   7.423  12.253   5.734  1.4119 -0.5719  1.0664
21581SOL     OW71347   1.881   9.959   7.919  1.0201  0.6958  0.4455
21581SOL    HW171348   1.824  10.034   7.902  0.6960  0.0233 -1.7172
21581SOL    HW271349   1.969   9.996   7.928  0.6668  1.4479  0.8382
21582SOL     OW71350  12.484   5.439  11.810  0.2480 -0.5631  0.1278
21582SOL    HW171351  12.469   5.477  11.897 -1.2070 -1.1395  0.1593
21582SOL    HW271352  12.574   5.463  11.789  1.2068 -1.7231  2.4939
21583SOL     OW71353   7.419  10.464  11.361 -0.8204 -0.2604  0.7238
21583SOL    HW171354   7.473  10.535  11.328  1.2403 -1.3040  1.6153
21583SOL    HW271355   7.459  10.385  11.325 -1.4592 -1.1051  1.7931
21584SOL     OW71356   5.608  12.538   2.444 -0.4295 -0.2755  0.3203
21584SOL    HW171357   5.580  12.571   2.359  0.6430 -1.1913 -0.4183
21584SOL    HW271358   5.568  12.597   2.508  0.1782  1.4852 -0.8708
21585SOL     OW71359   3.243   0.598   5.658 -0.4405  0.4511  0.5539
21585SOL    HW171360   3.272   0.514   5.694 -0.6847  0.3253  0.4525
21585SOL    HW271361   3.168   0.623   5.712 -0.8965  0.1923  0.0407
21586SOL     OW71362   0.498   9.337   3.157  0.2585  0.6541  0.1310
21586SOL    HW171363   0.478   9.360   3.248  1.6971 -1.4371  1.0636
21586SOL    HW271364   0.577   9.386   3.136 -0.1696  1.2691 -0.0833
21587SOL     OW71365   3.139   9.991   9.183 -0.2251  0.0688 -0.3889
21587SOL    HW171366   3.064  10.026   9.231 -1.3008 -2.1105 -0.3798
21587SOL    HW271367   3.104   9.919   9.131  1.6059 -0.0484 -1.5697
21588SOL     OW71368   0.258   6.605   8.131  0.0790  0.6766 -0.2479
21588SOL    HW171369   0.227   6.569   8.214  1.5497  0.7904  0.3801
21588SOL    HW271370   0.290   6.529   8.083 -1.0058  0.5765 -0.8382
21589SOL     OW71371   3.558   8.047  10.211 -0.0804  0.2287 -0.3950
21589SOL    HW171372   3.565   8.056  10.306  1.7238 -1.2054 -0.3552
21589SOL    HW271373   3.508   8.125  10.184  0.8111  1.5526  1.5330
21590SOL     OW71374   5.530   8.790   9.715 -0.2394 -0.4129 -0.8556
21590SOL    HW171375   5.590   8.719   9.737 -1.3885 -0.5101  2.6371
21590SOL    HW271376   5.473   8.755   9.647  0.3650 -2.1652 -0.4939
21591SOL     OW71377   4.835   4.363   3.288  0.3975 -0.0112  0.4571
21591SOL    HW171378   4.742   4.340   3.290  0.2544  0.2267 -1.5498
21591SOL    HW271379   4.848   4.400   3.201  2.4004 -0.1410  0.6707
21592SOL     OW71380  10.364   1.010   2.865 -0.1634  0.2199 -0.0989
21592SOL    HW171381  10.285   0.976   2.824 -0.5016  0.9538 -0.0664
21592SOL    HW271382  10.346   1.103   2.880  0.0622  0.0286  1.4596
21593SOL     OW71383   9.082   1.888   2.746  0.1417  0.0313  0.4231
21593SOL    HW171384   9.033   1.897   2.664  1.7387  2.6387 -0.3390
21593SOL    HW271385   9.047   1.957   2.803  0.4258 -0.4567  1.2088
21594SOL     OW71386   7.654   9.121  11.447 -0.0489 -0.2190  0.0818
21594SOL    HW171387   7.679   9.118  11.540  0.1847  0.2660  0.0394
21594SOL    HW271388   7.562   9.146  11.448 -0.1494 -0.5932  0.1957
21595SOL     OW71389   2.696   7.817   7.261  0.0530  0.1242 -0.2340
21595SOL    HW171390   2.616   7.776   7.295  0.0571  0.4664  0.1930
21595SOL    HW271391   2.765   7.782   7.316  0.2343 -0.3626 -0.7622
21596SOL     OW71392  10.133   3.881   1.655 -0.2246  0.9198 -0.7037
21596SOL    HW171393  10.103   3.894   1.565 -1.0437  0.0835 -0.5698
21596SOL    HW271394  10.071   3.818   1.692  2.5400 -2.0863 -0.8328
21597SOL     OW71395   1.569  10.043   2.409 -0.3396  0.0160  0.0664
21597SOL    HW171396   1.603  10.085   2.488  1.5518 -1.5164  0.1487
21597SOL    HW271397   1.508  10.107   2.372  1.4147  2.2945  0.8525
21598SOL     OW71398   2.739   7.402   2.929 -0.5138  0.7069  0.5466
21598SOL    HW171399   2.800   7.370   2.997  0.7823 -0.6322 -1.1620
21598SOL    HW271400   2.670   7.336   2.926 -0.5734  0.7689  0.5597
21599SOL     OW71401   5.160   2.618   9.190 -0.1911  0.0440  0.0421
21599SOL    HW171402   5.131   2.603   9.100 -1.6819 -0.7982  0.6394
21599SOL    HW271403   5.082   2.649   9.236  0.8703  1.7833  0.7602
21600SOL     OW71404   4.127   0.294   8.098  0.4972  0.0962 -0.7688
21600SOL    HW171405   4.131   0.390   8.095  0.7605  0.2394  1.8067
21600SOL    HW271406   4.114   0.274   8.191 -0.8158 -2.3474 -1.4065
21601SOL     OW71407  11.573   3.950   1.354  0.3641  0.7248 -0.9232
21601SOL    HW171408  11.657   3.924   1.391 -0.1800  1.1462  0.6788
21601SOL    HW271409  11.516   3.963   1.430 -1.5006 -0.7008 -2.0056
21602SOL     OW71410   3.457   1.890   6.257  0.3198 -0.4228  0.0273
21602SOL    HW171411   3.456   1.893   6.161  0.7162  0.7785  0.0530
21602SOL    HW271412   3.409   1.810   6.278  0.5555 -0.9030 -1.1809
21603SOL     OW71413   9.049   3.497   0.280  0.4944  0.2159 -0.1579
21603SOL    HW171414   8.986   3.426   0.269 -1.1719  1.2979  1.6760
21603SOL    HW271415   9.119   3.459   0.333  1.4222 -0.9889 -2.1813
21604SOL     OW71416   2.323  12.025   7.530  0.8638  0.3855 -0.1454
21604SOL    HW171417   2.360  11.943   7.498  0.1176 -0.1559  0.3125
21604SOL    HW271418   2.305  12.076   7.451 -0.6062 -0.7669 -0.6139
21605SOL     OW71419   8.057   0.165   6.776 -0.0626 -0.0808 -0.0595
21605SOL    HW171420   8.007   0.247   6.778 -0.6969 -0.3774 -1.9557
21605SOL    HW271421   8.142   0.191   6.739  0.2034 -0.0857  0.5255
21606SOL     OW71422   6.320   0.976  12.285 -0.4678 -0.1195 -0.6205
21606SOL    HW171423   6.406   1.018  12.276 -0.4673  0.0736  0.2184
21606SOL    HW271424   6.266   1.041  12.329 -1.2414 -0.0003 -1.7179
21607SOL     OW71425   6.971   3.853   5.351  0.2782 -0.4235  0.3964
21607SOL    HW171426   6.902   3.816   5.405  0.3780  0.3384  1.0514
21607SOL    HW271427   6.951   3.946   5.345  0.3863 -0.4537 -0.7135
21608SOL     OW71428   1.666   2.177   3.340  0.3892  0.4595 -0.2369
21608SOL    HW171429   1.715   2.229   3.277  0.9467 -0.5425 -0.6622
21608SOL    HW271430   1.644   2.097   3.292 -0.7613  0.4414  0.2792
21609SOL     OW71431   4.590   5.280   0.322  0.1189  0.3025 -0.0284
21609SOL    HW171432   4.667   5.288   0.265  0.2599  0.3175  0.1657
21609SOL    HW271433   4.542   5.204   0.287  0.3576  0.1329  0.0141
21610SOL     OW71434   9.474   5.647  11.368 -0.6359  0.2289  0.2391
21610SOL    HW171435   9.531   5.593  11.313 -1.8630  0.9657 -1.9049
21610SOL    HW271436   9.512   5.641  11.456 -0.6559 -4.0437  0.1773
21611SOL     OW71437   2.528   5.220  11.024  0.0660  0.6685 -0.1158
21611SOL    HW171438   2.457   5.197  11.083 -1.2006  3.2880 -0.4630
21611SOL    HW271439   2.486   5.229  10.938  1.1266  0.7087 -0.6523
21612SOL     OW71440   8.093  12.660   0.019 -0.1010 -0.8167 -0.1986
21612SOL    HW171441   8.171  12.624  -0.024 -0.8565 -2.6532 -0.1400
21612SOL    HW271442   8.092  12.617   0.105  0.0336  0.9226  0.7065
21613SOL     OW71443  11.560  10.076   4.551  0.2486  0.0536  0.0723
21613SOL    HW171444  11.470  10.044   4.546  0.3875 -0.8233  2.2998
21613SOL    HW271445  11.550  10.172   4.554 -0.5374  0.0042 -0.4692
21614SOL     OW71446   2.136   9.398   7.462  0.2753  0.9621 -0.2590
21614SOL    HW171447   2.217   9.381   7.509  0.2609  0.6924 -0.3330
21614SOL    HW271448   2.163   9.447   7.384  0.4541  0.1922 -0.6847
21615SOL     OW71449   1.562   1.024   9.264 -0.4456  0.3780  0.4821
21615SOL    HW171450   1.542   0.933   9.287  2.6278 -0.6909 -0.5878
21615SOL    HW271451   1.596   1.062   9.346 -0.0920  0.0068  0.5139
21616SOL     OW71452   7.878   5.128   4.101 -0.3065 -0.6565  0.1216
21616SOL    HW171453   7.931   5.166   4.030 -0.4961  1.0276  0.8255
21616SOL    HW271454   7.943   5.098   4.165 -0.1648 -0.4435  0.0804
21617SOL     OW71455   2.169   3.193   0.045 -0.3823  0.8830 -0.0916
21617SOL    HW171456   2.088   3.212   0.093  1.0008  1.3224  2.2724
21617SOL    HW271457   2.238   3.207   0.110  1.6044  0.5440 -2.0224
21618SOL     OW71458   2.882   9.409   0.809 -0.1151 -0.5896  0.2051
21618SOL    HW171459   2.813   9.346   0.829  0.7504 -1.5506  0.2468
21618SOL    HW271460   2.961   9.370   0.845  0.9311 -0.8493 -2.1982
21619SOL     OW71461   3.852  11.938   3.573 -0.0340  0.3364 -0.1107
21619SOL    HW171462   3.782  11.892   3.526  0.5363 -1.5148  0.7867
21619SOL    HW271463   3.917  11.958   3.505 -0.2235 -0.3207 -0.4963
21620SOL     OW71464   7.430   7.379  11.693  0.0186  0.1942 -0.0703
21620SOL    HW171465   7.472   7.465  11.684 -1.3000  0.9528  0.7504
21620SOL    HW271466   7.389   7.364  11.608 -0.0874  0.5675 -0.0876
21621SOL     OW71467   4.633   5.495   6.753 -0.0186 -0.2004  0.0336
21621SOL    HW171468   4.560   5.442   6.786  0.1603  0.6942  2.0294
21621SOL    HW271469   4.708   5.466   6.806  0.3972  0.9820  0.1137
21622SOL     OW71470   3.894   7.569   1.810 -0.0335 -0.6430  0.0083
21622SOL    HW171471   3.899   7.485   1.857 -0.7009 -0.2796  0.7565
21622SOL    HW271472   3.879   7.544   1.719  1.0645 -1.3623  0.0008
21623SOL     OW71473   4.092   5.857   0.375  0.0079 -0.3512  0.1654
21623SOL    HW171474   4.033   5.806   0.320 -0.2268 -0.3335  0.3966
21623SOL    HW271475   4.160   5.795   0.401  0.3885 -0.2398 -0.5302
21624SOL     OW71476   8.540   3.354   5.986 -0.0080  0.3156  0.3038
21624SOL    HW171477   8.560   3.438   6.027 -0.2127  0.9301 -0.8249
21624SOL    HW271478   8.625   3.319   5.959  0.1489 -0.1849  1.3804
21625SOL     OW71479   9.733   9.844   5.989  0.0044 -0.0472  0.1508
21625SOL    HW171480   9.706   9.830   6.080 -0.3947  0.9190  0.2021
21625SOL    HW271481   9.678   9.917   5.959  1.0140  0.4882 -0.4680
21626SOL     OW71482   3.198   1.380   8.447 -0.1492 -0.1299 -0.1748
21626SOL    HW171483   3.149   1.326   8.385  0.9578 -1.4284  0.0354
21626SOL    HW271484   3.154   1.367   8.530  1.9814 -3.5133  0.6287
21627SOL     OW71485   1.596   5.481   7.087 -0.0618 -0.8353  0.1958
21627SOL    HW171486   1.652   5.526   7.151 -1.3790  1.0259  0.1287
21627SOL    HW271487   1.643   5.488   7.004  0.3843 -0.7718  0.4515
21628SOL     OW71488   1.156   3.096   0.598  0.2235  0.3483  0.2109
21628SOL    HW171489   1.209   3.055   0.667  0.2529  0.2279  0.1168
21628SOL    HW271490   1.121   3.023   0.547  0.1486  0.4347  0.1363
21629SOL     OW71491   6.542   9.578   7.718 -0.1850  0.8184  0.1410
21629SOL    HW171492   6.511   9.652   7.770 -2.7196  1.4424 -2.0420
21629SOL    HW271493   6.467   9.518   7.713  0.5223 -0.0087 -1.3590
21630SOL     OW71494   6.777   9.197  12.394 -0.1261  0.3275 -0.4820
21630SOL    HW171495   6.765   9.215  12.487  0.6474  1.0750 -0.5186
21630SOL    HW271496   6.786   9.102  12.388 -2.5085  0.0174 -0.0724
21631SOL     OW71497   3.006   9.892   5.056  0.3020  0.0177 -0.3655
21631SOL    HW171498   3.018   9.921   4.966 -0.3010 -0.0200 -0.4624
21631SOL    HW271499   2.929   9.938   5.087  0.5302  0.0659  0.1520
21632SOL     OW71500   8.132   0.272   4.828 -0.1791 -0.1249  0.3150
21632SOL    HW171501   8.056   0.242   4.779  0.2144  0.6837 -0.8482
21632SOL    HW271502   8.206   0.227   4.787  0.0445 -0.4347  1.0368
21633SOL     OW71503   2.257   1.638  11.235  0.4815 -0.8978  0.4746
21633SOL    HW171504   2.350   1.658  11.229  0.0651  1.1906  0.2834
21633SOL    HW271505   2.229   1.628  11.144  0.1618  0.4274  0.4085
21634SOL     OW71506   4.085   6.076  11.866  0.2628  0.3473  0.0690
21634SOL    HW171507   4.046   6.106  11.784 -0.8118 -2.1582 -0.4423
21634SOL    HW271508   4.169   6.037  11.839  0.7723  1.1409  0.4594
21635SOL     OW71509  11.686   7.426  11.903  0.3652 -0.4002 -0.2181
21635SOL    HW171510  11.632   7.384  11.836 -0.1359 -0.4471  0.2110
21635SOL    HW271511  11.644   7.403  11.986  1.0700 -0.4727  0.1238
21636SOL     OW71512   6.364  11.165  11.314 -0.2333  0.5315  0.5228
21636SOL    HW171513   6.405  11.178  11.400  1.3494 -0.5564 -0.0070
21636SOL    HW271514   6.270  11.174  11.330  0.0849  1.3190  2.1669
21637SOL     OW71515   6.333   9.245  10.124  0.2152 -0.0925  0.0052
21637SOL    HW171516   6.373   9.310  10.182  1.0285 -1.1877  0.7008
21637SOL    HW271517   6.278   9.297  10.065 -0.4393  1.0812  1.5739
21638SOL     OW71518   3.315   6.119  11.561 -0.2958 -1.1709  0.3394
21638SOL    HW171519   3.272   6.181  11.502  0.6984 -1.7543 -1.0564
21638SOL    HW271520   3.253   6.045  11.567 -0.2112 -1.3130 -0.3793
21639SOL     OW71521   7.091   6.352  11.707  0.0979 -0.3328 -0.2677
21639SOL    HW171522   7.088   6.263  11.740 -1.6821  0.1093  0.9082
21639SOL    HW271523   7.003   6.368  11.671 -0.4069  1.6393  1.6329
21640SOL     OW71524   4.360   4.665  10.928 -0.0544  0.3305 -0.5872
21640SOL    HW171525   4.420   4.592  10.912  0.0611  0.3636 -0.3164
21640SOL    HW271526   4.383   4.731  10.863 -2.3074 -1.1382 -3.0830
21641SOL     OW71527   3.516   3.406   9.707 -0.6515  0.2646  0.5508
21641SOL    HW171528   3.516   3.317   9.742 -3.4097  1.0030  2.8243
21641SOL    HW271529   3.575   3.454   9.766 -1.2636  0.4710  0.9987
21642SOL     OW71530   8.362  11.837   1.880 -0.0479  0.2073 -0.2667
21642SOL    HW171531   8.373  11.897   1.806 -2.2526  0.6487 -0.2993
21642SOL    HW271532   8.321  11.890   1.948  0.8226 -0.5083  0.8431
21643SOL     OW71533   8.944   3.540   1.623 -0.6216 -0.5148  0.3759
21643SOL    HW171534   8.895   3.528   1.704 -0.4206  2.6162  1.1005
21643SOL    HW271535   8.882   3.586   1.565  0.2621  0.2274 -0.0067
21644SOL     OW71536   2.181   9.258   3.820 -0.1057  0.0836  0.4865
21644SOL    HW171537   2.168   9.336   3.874  2.0310  1.2047 -0.4513
21644SOL    HW271538   2.275   9.240   3.826 -0.4928 -2.2727  0.4202
21645SOL     OW71539  10.056  11.913   8.195  0.0264  0.2566  0.2029
21645SOL    HW171540  10.042  12.007   8.183 -1.2597  0.0846  0.1302
21645SOL    HW271541  10.116  11.889   8.125 -0.3660  0.8766 -0.3676
21646SOL     OW71542   1.047   0.824   3.927 -0.0096  0.0866  0.6467
21646SOL    HW171543   1.112   0.892   3.944  0.1781 -0.3019  1.5314
21646SOL    HW271544   0.972   0.871   3.893  0.9279  0.4830 -0.9631
21647SOL     OW71545  12.441   2.266   8.086 -0.3936 -0.5403  0.1311
21647SOL    HW171546  12.427   2.352   8.124  0.2203  0.1155 -1.0796
21647SOL    HW271547  12.416   2.276   7.994  0.7923 -1.3257 -0.3012
21648SOL     OW71548   6.944  11.213   5.336  0.4725  0.1281  0.0323
21648SOL    HW171549   6.927  11.306   5.345  0.6982  0.2381 -0.6085
21648SOL    HW271550   6.935  11.196   5.242 -1.0236 -0.7891  0.3113
21649SOL     OW71551  12.214  11.136  12.305 -0.1381  0.1265  0.0264
21649SOL    HW171552  12.305  11.151  12.332 -0.2286 -1.8123  1.5618
21649SOL    HW271553  12.221  11.086  12.224  0.2568 -2.6015  1.6516
21650SOL     OW71554  11.382   2.639   6.315  0.8043 -0.6341  0.5268
21650SOL    HW171555  11.289   2.621   6.299  0.3540  1.3430  0.6232
21650SOL    HW271556  11.382   2.687   6.398  1.9251 -0.7744  0.6089
21651SOL     OW71557   7.044   1.171  12.310  0.1797  0.5346  0.3634
21651SOL    HW171558   7.107   1.139  12.375  2.1482 -0.8518 -2.0829
21651SOL    HW271559   6.983   1.098  12.298  1.7588 -0.5502 -1.6189
21652SOL     OW71560   8.653   1.171   6.672  0.0292 -0.2652 -0.6550
21652SOL    HW171561   8.711   1.246   6.684 -0.8612  0.2730  0.4523
21652SOL    HW271562   8.583   1.184   6.736 -0.1291 -2.0674 -0.4012
21653SOL     OW71563   1.553   6.701  10.336  0.0014  1.1742  0.0934
21653SOL    HW171564   1.499   6.700  10.415  2.0593 -2.7845  1.7558
21653SOL    HW271565   1.624   6.761  10.356  1.8190 -1.5080  2.5150
21654SOL     OW71566   9.121   9.378   5.839  0.9614  0.5815 -0.5987
21654SOL    HW171567   9.124   9.340   5.927  0.3155  2.8224  0.4814
21654SOL    HW271568   9.212   9.399   5.819  1.1267 -0.0509 -0.5298
21655SOL     OW71569   5.544  12.738  12.333 -0.0614  0.0962  0.4294
21655SOL    HW171570   5.559  12.678  12.406 -1.7047  1.2479  1.8243
21655SOL    HW271571   5.604  12.710  12.265  1.4037 -1.1712  2.1615
21656SOL     OW71572  11.846   1.956   7.562 -0.7635 -0.2085  0.1123
21656SOL    HW171573  11.776   1.970   7.625  0.4390  1.7019  1.1534
21656SOL    HW271574  11.880   1.869   7.582 -1.7213 -0.4552  0.7240
21657SOL     OW71575   8.071  12.582   3.106  0.3611 -0.3411  0.0164
21657SOL    HW171576   8.062  12.668   3.148  0.4440 -0.4283  0.2131
21657SOL    HW271577   8.080  12.602   3.013 -1.2997 -0.2093 -0.1541
21658SOL     OW71578   1.396   7.182   7.694  0.4715 -0.1163  0.5545
21658SOL    HW171579   1.311   7.156   7.657  0.9904 -0.3339 -0.5387
21658SOL    HW271580   1.397   7.278   7.687  0.1797 -0.0855  0.8962
21659SOL     OW71581   5.908   1.045   2.938  0.0017 -0.2271 -0.3961
21659SOL    HW171582   5.846   1.118   2.943 -0.2184 -0.4254 -0.2018
21659SOL    HW271583   5.949   1.054   2.852 -0.2983 -0.0931 -0.5264
21660SOL     OW71584   1.243   1.319   4.796 -0.4430  0.1645 -0.1727
21660SOL    HW171585   1.175   1.386   4.795  0.5941  1.2493 -0.7074
21660SOL    HW271586   1.313   1.356   4.851 -0.6582 -1.3498  1.2177
21661SOL     OW71587   8.569   3.485   1.570  0.0773 -0.2223 -0.0173
21661SOL    HW171588   8.477   3.460   1.583  0.3404 -0.7193  1.0278
21661SOL    HW271589   8.586   3.466   1.478 -0.6066 -1.0417  0.0056
21662SOL     OW71590   2.057   8.673   7.614 -0.0411  0.1130  0.5866
21662SOL    HW171591   2.152   8.683   7.623 -0.1142 -0.5952  2.7667
21662SOL    HW271592   2.044   8.579   7.602 -0.4955 -0.0015  1.7546
21663SOL     OW71593   9.980   4.476   8.896 -0.2679 -0.2162  0.7039
21663SOL    HW171594   9.969   4.556   8.948 -0.3407  0.8815 -0.9322
21663SOL    HW271595   9.993   4.407   8.961  3.3210  1.5777  2.1999
21664SOL     OW71596   6.648   9.095   3.950 -0.0924 -0.2790 -0.6860
21664SOL    HW171597   6.583   9.034   3.985  1.1860 -2.1073 -1.4090
21664SOL    HW271598   6.732   9.064   3.985  0.4970  1.9034  0.0500
21665SOL     OW71599   5.931   0.079   2.881  0.2898  0.0377 -0.2814
21665SOL    HW171600   5.963   0.077   2.791 -0.8443 -2.9843 -0.7351
21665SOL    HW271601   5.986   0.016   2.928  1.4359  2.1982  1.4349
21666SOL     OW71602   8.614   5.713   0.922 -0.2754 -0.0189  0.6527
21666SOL    HW171603   8.643   5.798   0.890 -0.0652 -0.8279 -1.4872
21666SOL    HW271604   8.603   5.724   1.016  1.3376  1.9039  0.6571
21667SOL     OW71605   2.912   0.177   5.087 -0.1318  0.1313 -0.6189
21667SOL    HW171606   2.922   0.227   5.168 -0.4764 -0.2343 -0.3503
21667SOL    HW271607   2.819   0.156   5.083  0.1345 -1.1361 -0.3433
21668SOL     OW71608   0.058   2.405   3.702 -0.2039 -0.3721  0.4453
21668SOL    HW171609   0.031   2.474   3.641 -2.0734 -1.3860  0.0279
21668SOL    HW271610   0.121   2.447   3.760 -0.3151  1.3246 -0.5926
21669SOL     OW71611   3.030  12.295   1.132 -0.6155 -0.1443 -0.0208
21669SOL    HW171612   2.952  12.241   1.118  0.2222 -2.4587  3.1533
21669SOL    HW271613   3.103  12.234   1.121  0.4539  0.6388  2.1488
21670SOL     OW71614  10.642   1.844   4.287 -0.6385  0.4192  0.3406
21670SOL    HW171615  10.625   1.933   4.256  1.1180  1.2240  1.4820
21670SOL    HW271616  10.667   1.796   4.208 -1.0100  1.1125 -0.2107
21671SOL     OW71617  11.214   6.754   7.225  0.0486  0.2424 -0.3192
21671SOL    HW171618  11.147   6.812   7.260 -1.1461 -0.6771 -1.0187
21671SOL    HW271619  11.261   6.808   7.161  1.0499  1.3643  1.2643
21672SOL     OW71620   7.733  11.005   7.318  0.3455 -0.2789 -0.1723
21672SOL    HW171621   7.685  10.926   7.292  1.2625 -0.8293 -0.2141
21672SOL    HW271622   7.804  11.012   7.254  1.8072 -0.8754  1.3198
21673SOL     OW71623   0.559   6.742   2.310  0.1540  0.3789  0.2097
21673SOL    HW171624   0.611   6.675   2.265 -1.6465 -0.5078 -0.6696
21673SOL    HW271625   0.527   6.698   2.389 -1.1901  0.0730 -0.4643
21674SOL     OW71626   1.335   4.252   8.169  0.1603 -0.2896 -0.1239
21674SOL    HW171627   1.311   4.204   8.090  0.7412 -0.5548 -0.1402
21674SOL    HW271628   1.253   4.259   8.219 -0.1848 -0.2056 -0.7030
21675SOL     OW71629   5.650   1.371   2.681  0.3260  0.2889  0.3292
21675SOL    HW171630   5.576   1.360   2.622 -0.3331  0.4123  1.1115
21675SOL    HW271631   5.646   1.462   2.709 -0.4097 -0.1887  1.8848
21676SOL     OW71632  10.219  10.709   7.292  0.9022  0.1196 -0.4534
21676SOL    HW171633  10.295  10.686   7.238  1.0149  0.0338 -0.2572
21676SOL    HW271634  10.164  10.630   7.291  0.2900  0.5362 -1.4879
21677SOL     OW71635  10.260   4.432  12.579  0.5186 -0.8215 -0.0412
21677SOL    HW171636  10.255   4.340  12.606  0.8561 -1.4723 -2.0327
21677SOL    HW271637  10.352   4.455  12.589  0.1973 -0.1487  1.9521
21678SOL     OW71638   5.788  11.279  10.846 -0.2515  0.1463 -0.0542
21678SOL    HW171639   5.781  11.186  10.868 -0.0977  0.7600  3.0088
21678SOL    HW271640   5.870  11.307  10.886 -1.3891  2.0258  1.1421
21679SOL     OW71641  10.855  11.181   9.128 -0.6187 -0.1070  0.2354
21679SOL    HW171642  10.920  11.216   9.067 -0.4676 -0.2415  0.3182
21679SOL    HW271643  10.772  11.216   9.097 -0.6440 -0.7749 -0.5053
21680SOL     OW71644  11.531   2.129   6.467 -0.0270 -0.3977 -0.1342
21680SOL    HW171645  11.602   2.193   6.466 -0.6672  0.3400 -1.5386
21680SOL    HW271646  11.478   2.154   6.543 -0.1739  0.6751 -0.5626
21681SOL     OW71647   9.453   0.947   4.277 -0.3775 -0.0992 -0.0150
21681SOL    HW171648   9.382   0.903   4.324 -1.8524 -0.4861 -2.4691
21681SOL    HW271649   9.410   1.016   4.227  1.3607  1.3750  0.4086
21682SOL     OW71650  11.029   5.482   2.308 -0.5574 -0.3174  0.0813
21682SOL    HW171651  10.973   5.532   2.366 -1.7010 -2.2011  0.6748
21682SOL    HW271652  11.007   5.390   2.325  0.1256 -1.0011 -2.2507
21683SOL     OW71653   1.441   7.983   1.762 -0.3651 -0.4761 -0.5729
21683SOL    HW171654   1.443   8.025   1.848  1.7950  1.4362 -1.4590
21683SOL    HW271655   1.439   7.889   1.781  3.1511 -0.2606  1.7331
21684SOL     OW71656   3.981   8.439  12.295  0.1947  0.0538  0.1000
21684SOL    HW171657   3.973   8.416  12.387 -0.3930 -2.1290 -0.4408
21684SOL    HW271658   4.024   8.525  12.295  2.9739 -1.1945  2.2898
21685SOL     OW71659  12.570   8.502   3.511 -0.5638 -0.6266  0.2573
21685SOL    HW171660  12.651   8.457   3.533 -0.3698 -0.9809 -1.1180
21685SOL    HW271661  12.591   8.552   3.432 -0.7701  1.8979  1.6975
21686SOL     OW71662   6.153   8.334   1.740  0.2297 -0.0537  0.2495
21686SOL    HW171663   6.203   8.286   1.806 -0.5484 -0.7748  0.3232
21686SOL    HW271664   6.157   8.278   1.662  1.7671  1.1134 -0.5944
21687SOL     OW71665   3.202  11.916  11.236 -0.1379 -0.1213  0.4779
21687SOL    HW171666   3.107  11.918  11.226 -0.1456  0.3942  0.6590
21687SOL    HW271667   3.222  11.824  11.254 -0.4609 -0.5001 -0.9291
21688SOL     OW71668   2.642   7.852   3.540  0.6848  0.3896  0.2498
21688SOL    HW171669   2.675   7.852   3.449  2.0591 -0.1537  0.7145
21688SOL    HW271670   2.635   7.759   3.562  0.3180  0.5213  0.6921
21689SOL     OW71671   5.854  11.071   7.935 -0.2669  0.0104 -0.4636
21689SOL    HW171672   5.884  10.994   7.984  0.5510 -0.7832 -2.1185
21689SOL    HW271673   5.758  11.068   7.941 -0.2116 -0.6619  0.1830
21690SOL     OW71674   5.485   5.219   4.212 -0.1155  0.2400 -0.1038
21690SOL    HW171675   5.538   5.239   4.135  1.0301 -1.9490  0.0472
21690SOL    HW271676   5.543   5.233   4.286 -0.5354  0.2135  0.2378
21691SOL     OW71677   1.547   7.388   0.398 -0.5952  0.2230  0.1044
21691SOL    HW171678   1.516   7.461   0.343  0.3569  0.0406 -0.7072
21691SOL    HW271679   1.497   7.396   0.479  0.7419  2.8985  0.7860
21692SOL     OW71680   3.874   3.857   4.540 -0.8591  0.5170 -0.2905
21692SOL    HW171681   3.878   3.768   4.503 -1.1347 -0.2253  1.3758
21692SOL    HW271682   3.844   3.911   4.467  0.5833 -0.5135 -1.7261
21693SOL     OW71683   2.975  11.926  11.632 -0.1987 -0.4206  0.2977
21693SOL    HW171684   2.923  11.935  11.712 -1.8731 -0.7803 -0.7122
21693SOL    HW271685   3.021  11.842  11.643 -0.5433 -0.5513  0.8104
21694SOL     OW71686   5.764   0.469   4.943 -0.2239 -0.0828  0.2509
21694SOL    HW171687   5.738   0.535   5.007 -2.2879 -2.1321  1.7225
21694SOL    HW271688   5.771   0.516   4.860 -0.9547  2.0619  1.3368
21695SOL     OW71689   1.175   8.900   5.191  0.0876 -0.7153  0.0578
21695SOL    HW171690   1.221   8.983   5.201 -1.9894  0.3255  1.5936
21695SOL    HW271691   1.231   8.849   5.132  1.4650  1.7147 -0.8845
21696SOL     OW71692  10.380   3.361  10.517  0.2355 -0.3460 -0.1435
21696SOL    HW171693  10.460   3.364  10.466  0.9524 -0.9335  0.9159
21696SOL    HW271694  10.346   3.451  10.514  0.9712 -0.0777 -0.5418
21697SOL     OW71695   3.584   9.924  11.539 -0.0251 -0.8788  0.1460
21697SOL    HW171696   3.528   9.938  11.615 -1.4580 -0.6537 -0.8978
21697SOL    HW271697   3.540   9.972  11.468  1.2233 -1.1397 -0.8384
21698SOL     OW71698  12.746  10.160  12.277 -0.4118 -0.2714 -0.0666
21698SOL    HW171699  12.795  10.105  12.215 -0.9570 -1.4473  0.5200
21698SOL    HW271700  12.814  10.203  12.330  0.0117 -1.2656  0.2163
21699SOL     OW71701  12.441   8.003   6.996 -0.2573  0.5011  0.0047
21699SOL    HW171702  12.457   7.942   6.925  0.2699  0.7432 -0.0939
21699SOL    HW271703  12.353   8.037   6.981 -1.2352 -1.4662  0.9869
21700SOL     OW71704   4.005   7.437   5.787  0.1859  0.3024  0.0535
21700SOL    HW171705   4.038   7.526   5.788 -1.4593  0.9426  1.0058
21700SOL    HW271706   3.999   7.414   5.694  0.7621  1.1116 -0.1913
21701SOL     OW71707   3.529   5.149   2.403  0.3584  0.6044 -0.2180
21701SOL    HW171708   3.455   5.187   2.450  0.7674  2.0973 -0.7098
21701SOL    HW271709   3.518   5.055   2.412 -1.6770  0.7801 -0.4036
21702SOL     OW71710   4.898  12.453   3.680 -0.3422  0.4671  0.1281
21702SOL    HW171711   4.867  12.380   3.734 -0.7663  0.8908  0.4756
21702SOL    HW271712   4.819  12.486   3.636 -0.4170  1.5537  1.0174
21703SOL     OW71713  11.412   2.421  11.719  0.2364 -0.6168  0.2623
21703SOL    HW171714  11.493   2.376  11.740  0.2258 -1.3499 -1.1665
21703SOL    HW271715  11.440   2.508  11.689  0.4687 -0.7945 -0.0314
21704SOL     OW71716   2.648   1.774   3.929 -0.5512  0.7502  0.1139
21704SOL    HW171717   2.614   1.861   3.952  0.2027  0.8050  1.1155
21704SOL    HW271718   2.741   1.789   3.913 -0.6021  0.2817 -0.6377
21705SOL     OW71719  10.676   8.663  12.515  0.3383 -0.0081 -0.2775
21705SOL    HW171720  10.656   8.714  12.437  0.3396  0.9008  0.2977
21705SOL    HW271721  10.767   8.638  12.506 -0.0135 -1.0197 -1.1739
21706SOL     OW71722  10.996   5.719   1.988 -0.4805  0.0469 -0.0743
21706SOL    HW171723  10.943   5.643   2.012  0.0723 -0.3833 -0.1966
21706SOL    HW271724  10.933   5.786   1.964 -0.9665 -0.5166 -0.3792
21707SOL     OW71725   9.654   8.131  12.620 -0.1988 -0.2667  0.2369
21707SOL    HW171726   9.738   8.134  12.665  0.8778  0.6849 -1.7110
21707SOL    HW271727   9.661   8.056  12.561 -1.3809 -1.1726  1.1754
21708SOL     OW71728   8.442   0.012   4.079  0.5593  0.0218 -0.3510
21708SOL    HW171729   8.455   0.060   4.162 -1.9731 -1.8410  1.2474
21708SOL    HW271730   8.494   0.061   4.015  1.1229  2.6483  1.9340
21709SOL     OW71731   9.948   7.557   8.632 -0.0766 -0.2129  0.0234
21709SOL    HW171732   9.879   7.505   8.674 -2.2047  1.6514 -0.9572
21709SOL    HW271733   9.997   7.596   8.705  0.0796 -1.6984  0.7390
21710SOL     OW71734   8.015  11.344   9.978 -0.0610 -0.4312 -0.2886
21710SOL    HW171735   8.005  11.407  10.050  0.4100 -1.4422  0.6900
21710SOL    HW271736   7.935  11.353   9.927 -1.1663 -0.8419  1.2937
21711SOL     OW71737   5.171  12.232   6.750  0.2566 -0.1681 -0.5085
21711SOL    HW171738   5.208  12.155   6.706 -0.4707 -0.1710 -1.1488
21711SOL    HW271739   5.183  12.215   6.843  1.7453 -0.2136 -0.6815
21712SOL     OW71740   2.112   6.358   5.560  0.1955  0.9830  0.3897
21712SOL    HW171741   2.085   6.427   5.499  0.4090 -0.3375 -1.2853
21712SOL    HW271742   2.158   6.295   5.505  2.0408  0.5980  2.2751
21713SOL     OW71743   1.714   5.008   5.311  0.1112  0.0688  0.4978
21713SOL    HW171744   1.805   5.035   5.326 -0.2593  1.6989  0.0274
21713SOL    HW271745   1.685   4.974   5.395  1.1802 -0.6122  0.6222
21714SOL     OW71746   4.252   2.797   8.419 -0.1632  0.0336 -0.2059
21714SOL    HW171747   4.312   2.791   8.345 -0.1203  3.2291 -0.5899
21714SOL    HW271748   4.307   2.788   8.496 -0.2026 -3.2825 -0.4347
21715SOL     OW71749   7.405  10.962   7.371 -0.7462 -0.2300  0.3074
21715SOL    HW171750   7.328  10.908   7.348 -0.7568  0.3553 -1.1250
21715SOL    HW271751   7.474  10.898   7.389 -0.8872 -0.7551 -0.9099
21716SOL     OW71752   6.907   0.392   0.581 -0.3211  0.0110  0.1953
21716SOL    HW171753   6.926   0.346   0.663  1.7977  0.6253  0.1161
21716SOL    HW271754   6.857   0.329   0.530  2.1399 -2.1887  0.2545
21717SOL     OW71755   9.446   4.505  10.826  0.0961  0.0297  0.1068
21717SOL    HW171756   9.477   4.415  10.817  0.4950 -0.0415  1.9100
21717SOL    HW271757   9.514   4.558  10.784  0.7861 -0.3953  0.6651
21718SOL     OW71758  11.040   4.753   2.953  0.0968 -0.1902 -0.2253
21718SOL    HW171759  11.097   4.787   3.022 -1.3274  3.2040 -0.5177
21718SOL    HW271760  11.045   4.819   2.884 -1.7662 -1.3595 -1.5681
21719SOL     OW71761  11.978   4.957   7.757 -0.4482 -0.3537 -0.6466
21719SOL    HW171762  11.977   5.010   7.837  3.0572 -1.7566  0.5492
21719SOL    HW271763  11.997   5.018   7.687 -1.3350  0.5879 -0.0905
21720SOL     OW71764   4.494   4.107   9.174 -0.4244  0.1142  0.2011
21720SOL    HW171765   4.517   4.065   9.091  1.4986 -0.6537  1.0542
21720SOL    HW271766   4.543   4.190   9.174  0.7563 -0.5446  1.1317
21721SOL     OW71767   6.209   3.458   5.067  0.0344 -0.0315 -0.1851
21721SOL    HW171768   6.258   3.537   5.049  3.4582 -1.8827  0.2245
21721SOL    HW271769   6.151   3.482   5.140  0.1318  2.3299 -0.8132
21722SOL     OW71770   3.769   0.280   3.867 -0.4062  0.4245  0.3314
21722SOL    HW171771   3.751   0.188   3.850 -1.0418  0.6182 -0.0612
21722SOL    HW271772   3.839   0.303   3.806 -0.3547  0.2468  0.3231
21723SOL     OW71773   5.207   7.279   6.970  0.4666 -0.6832 -0.1582
21723SOL    HW171774   5.244   7.351   6.919 -0.0646 -0.5466 -0.3616
21723SOL    HW271775   5.116   7.305   6.986 -0.1552 -1.9234 -1.4372
21724SOL     OW71776  12.291   1.537   7.947  0.3528  0.2645 -0.6997
21724SOL    HW171777  12.312   1.546   7.854  1.4717 -0.8776 -0.5765
21724SOL    HW271778  12.339   1.459   7.975 -2.7435 -1.5301  0.0330
21725SOL     OW71779  12.677   3.041   7.123  0.5237 -0.2306 -0.0639
21725SOL    HW171780  12.768   3.057   7.099  0.9100 -0.9978  0.8348
21725SOL    HW271781  12.681   3.005   7.212 -0.5629 -1.3695 -0.4335
21726SOL     OW71782   9.959   7.527  12.744 -0.5716  0.0898 -0.3745
21726SOL    HW171783  10.046   7.505  12.776 -1.4246 -0.7465  1.5463
21726SOL    HW271784   9.955   7.490  12.656 -0.2354 -3.3263  0.9176
21727SOL     OW71785  12.740   0.073   4.476  0.2546  0.3236  0.4692
21727SOL    HW171786  12.672   0.051   4.539 -0.0327 -0.7030 -0.1712
21727SOL    HW271787  12.701   0.141   4.421  0.4572  1.1213  1.2889
21728SOL     OW71788  12.553   3.436  12.248 -0.0620  0.1811 -0.0057
21728SOL    HW171789  12.642   3.448  12.282  0.7771  0.3553 -2.1276
21728SOL    HW271790  12.530   3.520  12.209 -1.4833  0.3654  1.1288
21729SOL     OW71791   4.126   1.007  12.519 -0.5259  0.1104 -0.0553
21729SOL    HW171792   4.031   1.010  12.508 -0.9375  0.4072  2.6950
21729SOL    HW271793   4.154   1.099  12.515 -0.0296 -0.0767 -2.5127
21730SOL     OW71794   3.862   2.635  10.279 -0.2911 -0.2796 -0.2688
21730SOL    HW171795   3.916   2.586  10.341 -0.1436  0.3197  0.0835
21730SOL    HW271796   3.869   2.585  10.197  0.0910 -0.6848  0.0021
21731SOL     OW71797   1.801  11.967   8.261 -0.2483  0.6313  0.0621
21731SOL    HW171798   1.755  11.939   8.340  1.2044 -1.9927  0.0687
21731SOL    HW271799   1.800  11.891   8.204  1.8025  1.3197 -0.9913
21732SOL     OW71800  10.098   7.088   1.379  0.2949 -0.2683  0.5532
21732SOL    HW171801  10.178   7.133   1.408 -0.0761 -0.3375  1.7180
21732SOL    HW271802  10.125   6.997   1.367  0.4021 -0.2853  0.9133
21733SOL     OW71803  11.366  10.481   7.254  0.1681  0.4035 -0.1434
21733SOL    HW171804  11.451  10.443   7.235  0.3680  1.5317 -1.6821
21733SOL    HW271805  11.308  10.406   7.266  1.3587 -0.3834  1.0057
21734SOL     OW71806   8.576   1.681   2.786  0.6861  0.0656 -0.1960
21734SOL    HW171807   8.598   1.599   2.829  2.8501  0.4063 -0.5673
21734SOL    HW271808   8.624   1.678   2.703 -1.7810  0.3111 -1.7304
21735SOL     OW71809   0.560   1.289   1.281 -0.2727 -0.2932 -0.4764
21735SOL    HW171810   0.573   1.195   1.287 -0.9854 -0.4053 -0.6031
21735SOL    HW271811   0.467   1.302   1.299 -0.2729  0.3436 -0.8813
21736SOL     OW71812   5.468   6.791   8.383 -0.1931  0.5172  0.3558
21736SOL    HW171813   5.441   6.876   8.349  0.9544  0.0367 -1.8899
21736SOL    HW271814   5.441   6.728   8.316  0.8394 -0.6658  1.0069
21737SOL     OW71815   5.407   2.512   3.239  0.4278 -0.0610 -0.5034
21737SOL    HW171816   5.312   2.507   3.228  0.4127  1.0994 -1.0082
21737SOL    HW271817   5.420   2.518   3.334  0.0469 -0.8400 -0.3932
21738SOL     OW71818  10.117   7.700  10.208 -0.2490  0.5991  0.0372
21738SOL    HW171819  10.071   7.731  10.286 -1.6576  0.5427 -0.7211
21738SOL    HW271820  10.133   7.607  10.224 -2.3709  0.0864 -0.5295
21739SOL     OW71821   1.197  11.730   4.439  0.2711  0.1267 -0.5183
21739SOL    HW171822   1.218  11.679   4.360  0.3984 -0.0216 -0.3879
21739SOL    HW271823   1.123  11.786   4.412 -1.3079 -1.6334 -0.0709
21740SOL     OW71824   8.487   7.302   9.213 -0.0191  0.5170  0.0504
21740SOL    HW171825   8.499   7.345   9.297  0.1419  0.4508  0.0612
21740SOL    HW271826   8.568   7.252   9.200  0.1153  0.8225 -0.3169
21741SOL     OW71827   6.184   7.219   1.793  0.4435  0.0302 -0.2608
21741SOL    HW171828   6.203   7.132   1.758 -3.0359 -1.2420  0.5270
21741SOL    HW271829   6.216   7.216   1.884 -1.4250 -1.2974  0.4282
21742SOL     OW71830   0.929   7.607   4.422  0.2178 -0.1789  0.0810
21742SOL    HW171831   0.974   7.623   4.505  0.6492 -1.7962  0.1762
21742SOL    HW271832   0.909   7.695   4.389  0.9263  0.5087  1.4051
21743SOL     OW71833   0.506   6.901   8.427  0.3208 -0.3728 -0.0356
21743SOL    HW171834   0.587   6.853   8.412  1.0748  1.0480 -0.7443
21743SOL    HW271835   0.497   6.957   8.351  0.5390  2.0160  1.5839
21744SOL     OW71836   8.813   9.459   4.691 -0.4926 -0.2052 -0.2515
21744SOL    HW171837   8.778   9.497   4.611 -0.5642  0.8617  0.2635
21744SOL    HW271838   8.882   9.399   4.662 -1.5730 -1.0433 -1.1786
21745SOL     OW71839   3.682   2.304  12.295 -0.2865 -0.2657 -0.1895
21745SOL    HW171840   3.629   2.383  12.286 -3.1975 -1.9521  0.8237
21745SOL    HW271841   3.705   2.301  12.388 -0.5031 -0.7784 -0.1488
21746SOL     OW71842   8.574   8.461   7.086  0.6251 -0.4413  0.3753
21746SOL    HW171843   8.510   8.483   7.154 -0.3107 -0.7354 -0.3882
21746SOL    HW271844   8.659   8.466   7.131  0.0069 -1.0736  1.6916
21747SOL     OW71845  10.705   2.528   8.621 -0.1589  0.0561  0.3570
21747SOL    HW171846  10.691   2.564   8.709  1.3012  0.2686  0.5268
21747SOL    HW271847  10.693   2.434   8.632  1.6778 -0.1264  1.1968
21748SOL     OW71848  11.370   4.927   1.291  0.6860  0.1221 -0.0979
21748SOL    HW171849  11.363   5.017   1.260  0.3033 -0.3185 -1.3837
21748SOL    HW271850  11.424   4.883   1.225 -0.6370 -0.9996 -0.4764
21749SOL     OW71851   4.490   2.527  11.627 -0.2175 -0.3231 -0.7938
21749SOL    HW171852   4.458   2.465  11.561  0.2801 -1.4179 -0.0510
21749SOL    HW271853   4.579   2.547  11.600  0.5850 -2.0497  0.3457
21750SOL     OW71854  12.083   3.912   1.101  0.0219 -0.2808 -0.0971
21750SOL    HW171855  12.143   3.945   1.034  0.2349 -0.1074  0.1752
21750SOL    HW271856  12.021   3.984   1.115  1.5183  0.7415  1.7504
21751SOL     OW71857   3.551   1.899   0.428  0.2704 -0.3794 -0.1692
21751SOL    HW171858   3.459   1.925   0.432  0.8340  1.6557  1.8048
21751SOL    HW271859   3.554   1.815   0.473 -0.5492 -0.1508  0.3344
21752SOL     OW71860  10.501   9.559   8.177  0.0416  0.5244  0.0650
21752SOL    HW171861  10.575   9.504   8.153  0.4447  0.9261  0.3651
21752SOL    HW271862  10.432   9.536   8.114 -0.8989 -2.5438  1.9906
21753SOL     OW71863   5.684   6.938  10.402  0.8572  0.0309 -0.1116
21753SOL    HW171864   5.648   7.025  10.383  1.1200  0.4410  1.1417
21753SOL    HW271865   5.629   6.878  10.352 -1.7209  0.6120  1.7643
21754SOL     OW71866   1.462   3.765   0.098  0.2983  0.3598 -0.5303
21754SOL    HW171867   1.465   3.777   0.003  0.2456  3.3098 -0.2495
21754SOL    HW271868   1.551   3.741   0.122  0.7740  1.4067 -1.1646
21755SOL     OW71869   5.724   2.771   6.659 -0.2109  0.3760  0.3092
21755SOL    HW171870   5.639   2.759   6.701  0.5977  1.3298  2.3017
21755SOL    HW271871   5.717   2.854   6.612 -0.2979  0.5506  0.6362
21756SOL     OW71872   7.615   9.553   3.208 -0.1279 -0.1267 -0.3908
21756SOL    HW171873   7.709   9.570   3.200 -0.1953 -0.0670 -1.1610
21756SOL    HW271874   7.592   9.507   3.127 -0.7710 -0.1162 -0.2214
21757SOL     OW71875   1.514  11.323   1.098  0.1267 -0.0725  0.2581
21757SOL    HW171876   1.558  11.309   1.181 -1.5150  0.1191  1.2064
21757SOL    HW271877   1.508  11.419   1.090  1.9306 -0.0125 -1.0358
21758SOL     OW71878   0.089   5.600   7.848 -0.4667 -0.5661 -0.7479
21758SOL    HW171879   0.072   5.586   7.755 -2.1047  0.3861 -0.6329
21758SOL    HW271880   0.067   5.692   7.863  2.2698  0.0656  0.0897
21759SOL     OW71881  11.506   4.842   4.487 -0.5432  0.5507 -0.7422
21759SOL    HW171882  11.588   4.871   4.448  0.6454 -2.0504 -0.4416
21759SOL    HW271883  11.443   4.842   4.415  0.0094  1.4932 -1.2438
21760SOL     OW71884  10.388   9.726   6.330 -0.2723  0.3922  0.2054
21760SOL    HW171885  10.389   9.636   6.364 -0.1571 -0.2246 -1.3539
21760SOL    HW271886  10.310   9.730   6.275  1.1409  0.3571 -1.9374
21761SOL     OW71887   3.346   2.386   8.580  0.5545  0.1700 -0.3452
21761SOL    HW171888   3.277   2.365   8.517 -0.1279  2.6325 -0.5454
21761SOL    HW271889   3.300   2.393   8.664  1.3329 -2.3503  0.3589
21762SOL     OW71890   6.084  11.530   0.466 -0.2866 -0.2829 -0.4808
21762SOL    HW171891   6.131  11.448   0.481 -1.4866 -0.9447 -0.2425
21762SOL    HW271892   6.129  11.569   0.391  1.2341 -0.4182  0.3298
21763SOL     OW71893   8.629   5.918   9.011  0.3675  0.6076 -0.2282
21763SOL    HW171894   8.616   5.878   8.925  0.4501  0.2963 -0.1001
21763SOL    HW271895   8.570   5.992   9.012  0.4621  0.6936 -0.6053
21764SOL     OW71896   8.413  12.388   4.590 -0.1088  0.8663 -0.0900
21764SOL    HW171897   8.494  12.422   4.627  0.4658 -0.1659 -0.3369
21764SOL    HW271898   8.345  12.448   4.620  0.4461  0.5939  1.8705
21765SOL     OW71899  11.656  10.009   5.131  0.1268 -0.3590  0.2700
21765SOL    HW171900  11.593  10.055   5.076 -0.6037 -0.6009  0.8951
21765SOL    HW271901  11.655   9.919   5.098 -1.2042 -0.8013  1.4066
21766SOL     OW71902   1.080   9.291   1.768 -0.3174 -0.1078 -0.1727
21766SOL    HW171903   1.083   9.214   1.827 -0.5535 -0.0278 -0.0549
21766SOL    HW271904   0.988   9.300   1.746 -0.3551  0.4356  0.1996
21767SOL     OW71905   9.446   1.236  10.550 -0.0899 -0.0663 -0.2141
21767SOL    HW171906   9.522   1.290  10.529 -0.2665  1.6212  2.8294
21767SOL    HW271907   9.466   1.197  10.635 -2.2835 -0.1687  0.3330
21768SOL     OW71908   0.020   9.898  10.221  0.0952 -0.3426 -0.0104
21768SOL    HW171909   0.090   9.963  10.232  0.8248 -1.4112  2.3635
21768SOL    HW271910  -0.061   9.948  10.233  0.6235  0.2642  1.2272
21769SOL     OW71911  12.274   4.190   3.446  0.3794 -0.2359  0.0072
21769SOL    HW171912  12.208   4.121   3.448  1.3671 -1.1920  0.1445
21769SOL    HW271913  12.232   4.261   3.396 -0.4855 -1.0948 -0.5308
21770SOL     OW71914   5.782   6.862   9.991  0.0091 -0.1688  0.2395
21770SOL    HW171915   5.856   6.832   9.937  0.1049 -1.2683  0.9434
21770SOL    HW271916   5.803   6.832  10.079  0.1589  2.1638  1.0507
21771SOL     OW71917   0.492   6.899  10.422 -0.1609 -0.2048  0.1422
21771SOL    HW171918   0.404   6.864  10.406  0.6317 -2.0080 -0.4785
21771SOL    HW271919   0.530   6.841  10.488  0.6012  0.5177  0.3595
21772SOL     OW71920  10.717   9.974   3.153  0.0787 -0.5960  0.2076
21772SOL    HW171921  10.689   9.926   3.231 -0.3154 -0.2746  0.2687
21772SOL    HW271922  10.769   9.910   3.103 -2.0031 -1.7306 -0.6428
21773SOL     OW71923   0.110   6.860   0.534 -0.6741  0.3255  0.7264
21773SOL    HW171924   0.066   6.862   0.448 -0.8257 -1.3082  0.7361
21773SOL    HW271925   0.046   6.898   0.594 -0.0591  2.7433 -0.0549
21774SOL     OW71926   2.530   4.908   0.651 -0.0401  0.6425  0.4751
21774SOL    HW171927   2.525   5.002   0.638  2.3435  1.0111  1.6052
21774SOL    HW271928   2.509   4.896   0.744 -1.1984 -0.0597  0.1348
21775SOL     OW71929  12.508   8.839  11.198  0.4938  0.0028  0.2226
21775SOL    HW171930  12.584   8.874  11.151  0.0961  0.7563  0.1144
21775SOL    HW271931  12.536   8.754  11.230  1.4883  0.4019  0.4404
21776SOL     OW71932   9.741   9.563   3.156  0.0890  0.6488  0.3311
21776SOL    HW171933   9.723   9.497   3.089 -1.8721  0.7183  0.7252
21776SOL    HW271934   9.774   9.513   3.230  0.1781  0.2988  0.0602
21777SOL     OW71935   6.220   2.484   5.348 -0.1780  0.3142  0.1485
21777SOL    HW171936   6.232   2.502   5.255 -1.7461  1.1413  0.0612
21777SOL    HW271937   6.186   2.394   5.351  0.0480  0.2205 -0.0530
21778SOL     OW71938   4.684  12.399   7.791  0.2400  0.2602 -0.3086
21778SOL    HW171939   4.773  12.422   7.816 -0.3174  2.8045 -0.4105
21778SOL    HW271940   4.653  12.343   7.862  1.2030  1.1044  0.8171
21779SOL     OW71941   3.921   5.805   7.255  0.2014  0.1959 -0.1107
21779SOL    HW171942   3.899   5.834   7.343  0.0263 -2.6247  0.8555
21779SOL    HW271943   3.841   5.764   7.222 -0.2587  2.5535 -2.3021
21780SOL     OW71944  10.288   1.489   3.021  0.5749  0.7325  0.1713
21780SOL    HW171945  10.245   1.522   3.100 -0.4851 -0.4226  0.1092
21780SOL    HW271946  10.233   1.521   2.949 -0.5306 -1.1788  0.1181
21781SOL     OW71947   8.188  10.927   1.038 -0.1506 -0.4940 -0.2022
21781SOL    HW171948   8.232  10.863   0.983 -1.2723  0.8457 -2.8818
21781SOL    HW271949   8.214  11.012   1.002 -2.5953  0.4138 -0.0816
21782SOL     OW71950  10.156   3.661   3.789  0.3024 -0.3323 -0.2040
21782SOL    HW171951  10.134   3.645   3.697 -0.6422 -1.7282  0.2247
21782SOL    HW271952  10.186   3.576   3.821 -0.8850 -0.2766  1.1627
21783SOL     OW71953   8.990   5.042   9.799 -0.0263 -0.1922 -0.1797
21783SOL    HW171954   9.007   5.038   9.705 -0.6434 -0.5901 -0.2772
21783SOL    HW271955   9.067   5.003   9.839  0.4686  0.4412 -0.4899
21784SOL     OW71956   6.677   9.202  10.308 -0.1161  0.3771 -0.0373
21784SOL    HW171957   6.673   9.107  10.295  0.5172  0.4039 -0.4290
21784SOL    HW271958   6.593   9.223  10.350 -0.3386 -0.3264 -0.1078
21785SOL     OW71959   9.072   8.205   7.647 -0.4175 -0.7534 -0.3900
21785SOL    HW171960   9.083   8.300   7.650 -0.7903 -0.7196 -0.0943
21785SOL    HW271961   9.036   8.182   7.733  1.5241 -1.4107  0.2917
21786SOL     OW71962   1.110   7.058   5.980 -0.0905  0.2949  0.0834
21786SOL    HW171963   1.059   6.983   6.010  0.9916  0.3756  2.3206
21786SOL    HW271964   1.073   7.079   5.894 -2.7892 -0.5910  0.9105
21787SOL     OW71965   2.537   6.029   6.524  0.3769 -0.4181  0.0014
21787SOL    HW171966   2.622   6.072   6.515  0.9760 -1.2269  1.4454
21787SOL    HW271967   2.554   5.937   6.504 -0.0722 -0.6589  0.6857
21788SOL     OW71968   6.291   8.688  12.127 -0.4233  0.7848 -0.9349
21788SOL    HW171969   6.282   8.627  12.054  0.2181  0.3283 -0.6331
21788SOL    HW271970   6.228   8.657  12.192  0.2537  0.1267 -0.5731
21789SOL     OW71971   3.044  12.506  11.192  0.1816  0.2361  0.2691
21789SOL    HW171972   3.062  12.599  11.203 -1.1044  0.5195  0.1850
21789SOL    HW271973   2.956  12.503  11.154  1.3459 -0.9345 -2.6601
21790SOL     OW71974   3.771  11.166   5.127 -0.1545 -0.2501 -0.3816
21790SOL    HW171975   3.757  11.243   5.072 -1.3689 -0.8661 -0.9976
21790SOL    HW271976   3.756  11.092   5.068 -1.4720 -0.9286  0.7381
21791SOL     OW71977   0.660  10.683   8.008 -0.5487  0.5105  0.6829
21791SOL    HW171978   0.754  10.688   7.989 -0.4380 -1.6568  0.3220
21791SOL    HW271979   0.642  10.759   8.062  1.0821  1.8269 -0.5238
21792SOL     OW71980   1.261  10.108   1.273  0.3163 -0.1578  0.8088
21792SOL    HW171981   1.196  10.128   1.340 -0.2503  0.9742 -0.0538
21792SOL    HW271982   1.217  10.127   1.190  2.2022  2.1305  0.2343
21793SOL     OW71983  11.198   5.891   1.498 -0.0775 -1.2341  0.2011
21793SOL    HW171984  11.140   5.890   1.574 -1.2258 -0.9475 -0.6335
21793SOL    HW271985  11.250   5.811   1.506 -1.3493 -2.0581  0.4139
21794SOL     OW71986   1.200   6.180   3.585  0.0874 -0.0780  0.0882
21794SOL    HW171987   1.172   6.089   3.582 -3.3480  0.7860  1.1554
21794SOL    HW271988   1.189   6.206   3.677  1.1811  1.3890 -0.1471
21795SOL     OW71989   7.217  12.144   9.929 -0.0730 -0.0354 -0.3880
21795SOL    HW171990   7.241  12.058   9.965 -0.0869  0.1335  0.0283
21795SOL    HW271991   7.122  12.149   9.940 -0.0234  0.1965 -0.0460
21796SOL     OW71992   0.232   5.079   6.936 -0.2474  0.1628 -0.1767
21796SOL    HW171993   0.215   5.061   7.028 -1.2432 -0.2828 -0.4318
21796SOL    HW271994   0.300   5.016   6.911 -0.5840 -0.2979  0.0483
21797SOL     OW71995  10.086   5.494   0.780  0.6527 -0.1396  0.3497
21797SOL    HW171996  10.008   5.534   0.742  0.2820 -2.2381 -1.2173
21797SOL    HW271997  10.131   5.567   0.824 -1.3381  1.4202 -0.0738
21798SOL     OW71998  12.753   0.431  10.318  0.2073 -0.3632  0.3190
21798SOL    HW171999  12.724   0.351  10.364  0.5005 -2.1752 -2.4008
21798SOL    HW272000  12.672   0.471  10.288 -0.0474  1.2922  2.9211
21799SOL     OW72001  11.985   7.478   3.685 -0.2052  0.6400 -0.7686
21799SOL    HW172002  11.921   7.412   3.712 -0.7367  1.6116  0.4312
21799SOL    HW272003  12.063   7.458   3.736 -0.4470  1.0880 -0.2240
21800SOL     OW72004   9.529   8.165   5.166 -0.3504  0.6112 -0.3828
21800SOL    HW172005   9.611   8.124   5.192 -2.0647 -2.7156  0.3585
21800SOL    HW272006   9.513   8.134   5.077 -0.8600  1.1219 -0.4784
21801SOL     OW72007   3.589   5.406   7.040  0.5010  0.3768 -0.3168
21801SOL    HW172008   3.528   5.333   7.036  2.3233 -1.1896 -1.4494
21801SOL    HW272009   3.613   5.412   7.133 -3.0209  2.6310  0.6515
21802SOL     OW72010   4.348  11.519   4.447 -0.2812  0.2512 -0.4145
21802SOL    HW172011   4.437  11.549   4.430 -0.6828  0.8820 -1.4650
21802SOL    HW272012   4.355  11.424   4.446  1.1192  0.0890  3.5087
21803SOL     OW72013   3.754   7.674   6.123  0.7309 -0.1062  0.2639
21803SOL    HW172014   3.660   7.675   6.109  0.7404  2.8144 -0.0253
21803SOL    HW272015   3.771   7.587   6.161 -2.2297 -0.1985  1.6509
21804SOL     OW72016   5.227   7.686   0.293  0.2957 -0.2006 -0.2927
21804SOL    HW172017   5.269   7.752   0.236 -2.3432  0.7962 -1.2337
21804SOL    HW272018   5.207   7.614   0.234 -0.1188 -0.2748 -0.0587
21805SOL     OW72019   9.937   5.532   1.059 -0.2101  0.1589 -0.3816
21805SOL    HW172020  10.008   5.514   0.997 -0.0015  0.1161 -0.1328
21805SOL    HW272021   9.884   5.452   1.058  1.5361 -1.1869  1.8264
21806SOL     OW72022   5.035  12.276   2.506 -0.2252  0.3127 -0.0526
21806SOL    HW172023   4.994  12.212   2.448 -2.3347  0.7904  0.7978
21806SOL    HW272024   4.969  12.345   2.516  0.5499  0.8444  1.9039
21807SOL     OW72025  11.327   6.330  11.907  0.6924 -0.1090 -0.1130
21807SOL    HW172026  11.366   6.413  11.880 -0.9924  0.5463 -0.6604
21807SOL    HW272027  11.293   6.292  11.826  2.0971 -1.7530 -0.0015
21808SOL     OW72028  10.551   0.642   1.468 -0.2769 -0.0421  0.5352
21808SOL    HW172029  10.464   0.677   1.445 -0.7113 -1.1529  0.4321
21808SOL    HW272030  10.609   0.718   1.466 -0.8502  0.3996 -1.4630
21809SOL     OW72031   3.225   5.604   6.602 -0.6019  0.1348 -0.1275
21809SOL    HW172032   3.151   5.545   6.588 -0.9727  0.3444  0.9017
21809SOL    HW272033   3.187   5.691   6.598 -0.0526  0.3407 -1.6551
21810SOL     OW72034   4.103  12.569   2.367 -0.2007 -0.2009  0.2493
21810SOL    HW172035   4.124  12.518   2.445 -0.9043 -1.8890 -0.6004
21810SOL    HW272036   4.008  12.563   2.359 -0.4698  2.2944  0.7478
21811SOL     OW72037   9.474   8.640   4.387 -0.1975  0.0071 -0.1520
21811SOL    HW172038   9.515   8.568   4.339  0.2408  0.9455 -1.2296
21811SOL    HW272039   9.455   8.705   4.320 -1.9821  0.2825  0.5760
21812SOL     OW72040   7.991   1.019   3.085 -0.5757 -0.2150  0.3759
21812SOL    HW172041   7.996   1.007   3.180  0.1372 -1.2575  0.2369
21812SOL    HW272042   7.900   1.002   3.063 -0.6516 -0.4049  0.8301
21813SOL     OW72043   1.693  11.456   0.809  0.8326  0.0035  0.0167
21813SOL    HW172044   1.639  11.528   0.842  0.5991  0.0303 -0.4223
21813SOL    HW272045   1.716  11.482   0.720  1.2851 -0.1701  0.0822
21814SOL     OW72046   4.439   7.598   7.966  0.1973  0.7100 -0.6886
21814SOL    HW172047   4.442   7.684   7.925  0.0256  0.0198 -2.2069
21814SOL    HW272048   4.445   7.616   8.060 -0.1720  2.3893 -0.9584
21815SOL     OW72049  10.215   6.417   8.514 -0.1213 -0.7665  0.2164
21815SOL    HW172050  10.136   6.425   8.460 -0.1769 -0.3794  0.3596
21815SOL    HW272051  10.185   6.378   8.596 -0.3861  0.5689  0.7764
21816SOL     OW72052   3.334   7.804   4.002 -0.5627 -0.0291  0.3758
21816SOL    HW172053   3.360   7.725   3.955  1.2530  0.8092 -0.1122
21816SOL    HW272054   3.414   7.835   4.043 -0.9574  2.2445 -0.4637
21817SOL     OW72055   2.911   7.322   8.503 -0.4737  0.2111 -0.4145
21817SOL    HW172056   2.933   7.351   8.414  1.9329 -0.3327 -0.0817
21817SOL    HW272057   2.901   7.227   8.496 -0.6166  0.2098 -0.1834
21818SOL     OW72058   2.847  10.112  10.420  0.2472 -0.7357 -0.4863
21818SOL    HW172059   2.924  10.081  10.468 -0.6573 -0.9603  0.8585
21818SOL    HW272060   2.833  10.047  10.352  2.0449  0.0150 -1.6310
21819SOL     OW72061   7.246  12.374   6.957 -0.7464 -0.1662  0.0284
21819SOL    HW172062   7.154  12.370   6.929 -0.5929 -2.7971 -0.3847
21819SOL    HW272063   7.295  12.340   6.882  0.6493  1.6005  0.0853
21820SOL     OW72064   8.208   1.116  10.688  0.0706 -0.3602  0.0719
21820SOL    HW172065   8.167   1.029  10.684 -0.2973 -0.1512 -2.9055
21820SOL    HW272066   8.135   1.177  10.693  0.2851 -0.1600  0.9177
21821SOL     OW72067   4.630   1.959   0.040  0.2400  0.2956  0.2004
21821SOL    HW172068   4.611   2.005  -0.042  0.0776  1.1439  0.6987
21821SOL    HW272069   4.548   1.963   0.089 -0.5155 -2.5358 -0.6390
21822SOL     OW72070   0.395  12.044   7.721  0.0102  0.0682  0.2008
21822SOL    HW172071   0.401  12.106   7.649 -1.5897  0.5338  0.4322
21822SOL    HW272072   0.350  12.092   7.791 -0.3190 -1.0139  0.7647
21823SOL     OW72073   1.935   2.254   1.393  0.1521  0.2699 -0.4603
21823SOL    HW172074   1.939   2.342   1.430  1.8641  0.2556 -0.5194
21823SOL    HW272075   1.887   2.203   1.458  1.2901  0.7196  0.7830
21824SOL     OW72076  12.767  12.040  10.067  0.7366  0.6880 -0.3479
21824SOL    HW172077  12.837  12.102  10.087  0.6815  0.7845 -0.4475
21824SOL    HW272078  12.708  12.089  10.009 -0.0826  1.0322  0.7426
21825SOL     OW72079   3.793   4.191   0.718  0.2087 -0.3449  0.1179
21825SOL    HW172080   3.720   4.161   0.663  0.6282 -0.5092 -0.3549
21825SOL    HW272081   3.854   4.232   0.657  0.5761 -0.3256  0.4951
21826SOL     OW72082  12.748  11.367   8.696  0.4349  0.1731  0.7667
21826SOL    HW172083  12.821  11.418   8.660 -0.1160  0.9222  0.6866
21826SOL    HW272084  12.779  11.276   8.696  1.0411  0.3757 -0.0657
21827SOL     OW72085   9.209   8.076   2.254  1.0441 -0.0764 -0.6796
21827SOL    HW172086   9.189   8.031   2.172 -0.8679  1.5143 -1.1564
21827SOL    HW272087   9.199   8.009   2.321  1.0972 -1.0283 -1.5992
21828SOL     OW72088   4.245   7.997   0.391 -0.8029  0.1886 -0.3569
21828SOL    HW172089   4.240   8.007   0.296 -2.1170  2.0778 -0.1396
21828SOL    HW272090   4.331   8.032   0.414 -0.0125 -1.3069 -0.9298
21829SOL     OW72091   8.548   2.944  12.356 -0.3644  0.2215 -0.1167
21829SOL    HW172092   8.524   2.852  12.368  1.1283 -0.2101 -0.2537
21829SOL    HW272093   8.567   2.952  12.262  0.1868  0.4797  0.0092
21830SOL     OW72094   3.395   5.006   5.051  0.3302  0.0651  0.3249
21830SOL    HW172095   3.491   5.003   5.042  0.2980 -1.2519  0.2706
21830SOL    HW272096   3.381   5.022   5.144  0.6236 -1.8271  0.7352
21831SOL     OW72097   1.420   6.764   1.561 -0.1708  0.3372  0.0743
21831SOL    HW172098   1.334   6.804   1.571  0.0729  0.8537  0.1001
21831SOL    HW272099   1.416   6.717   1.477 -0.8201 -0.5137  0.5635
21832SOL     OW72100   0.778   5.629  12.026 -0.1760  0.0442  0.5381
21832SOL    HW172101   0.699   5.674  12.058 -0.0236  0.9239 -0.3141
21832SOL    HW272102   0.847   5.694  12.031  0.4090 -0.5834  0.8180
21833SOL     OW72103   3.115   0.859   5.331  0.7443  0.6104  0.1345
21833SOL    HW172104   3.147   0.769   5.341 -1.0311 -0.2585 -1.3606
21833SOL    HW272105   3.147   0.886   5.245 -0.2627  0.6889 -0.2305
21834SOL     OW72106  11.281   9.190   5.997  0.1908 -0.2388  0.1208
21834SOL    HW172107  11.260   9.218   5.908 -2.9473 -1.0350  0.4885
21834SOL    HW272108  11.364   9.143   5.988  0.1625  0.0280 -2.3077
21835SOL     OW72109   0.948   2.345   2.579 -0.6920  0.3959  0.6250
21835SOL    HW172110   0.883   2.331   2.647 -2.0694  3.6251  0.1633
21835SOL    HW272111   0.900   2.335   2.497  0.2835 -0.6600  0.1490
21836SOL     OW72112  11.373   4.328   9.449 -0.4609  0.1537  0.5316
21836SOL    HW172113  11.399   4.401   9.393 -0.5829 -0.0980  0.1345
21836SOL    HW272114  11.444   4.319   9.512 -0.2705  0.3819  0.3519
21837SOL     OW72115  11.256   1.742   3.929 -0.1649 -0.1045 -0.5250
21837SOL    HW172116  11.203   1.821   3.940 -1.3440 -0.2809 -3.8218
21837SOL    HW272117  11.204   1.686   3.871  2.1884 -1.7388 -1.1945
21838SOL     OW72118   4.035   2.203  11.104 -0.4895  0.4933  0.0085
21838SOL    HW172119   3.993   2.119  11.085  0.4905 -0.1264  0.4919
21838SOL    HW272120   4.128   2.185  11.096 -0.2727  1.6028 -0.1022
21839SOL     OW72121   7.510   9.009   6.895 -0.2858  0.0684  0.0183
21839SOL    HW172122   7.445   9.049   6.837  0.5342  2.4021  0.6224
21839SOL    HW272123   7.524   8.921   6.858 -1.9347  0.4107 -1.5580
21840SOL     OW72124   8.850   9.419  10.061 -0.0517  0.8625 -0.3028
21840SOL    HW172125   8.944   9.422  10.040 -0.3597  1.3547 -1.7358
21840SOL    HW272126   8.806   9.425   9.976 -1.3876 -0.1767  0.2849
21841SOL     OW72127   2.938   8.716  10.450 -0.0570 -0.0250 -0.0235
21841SOL    HW172128   2.948   8.705  10.545  0.6989 -0.2055 -0.1117
21841SOL    HW272129   2.911   8.807  10.440  1.5092  0.5189  0.3000
21842SOL     OW72130   2.120  11.655   9.635 -0.1384  0.4294 -0.3959
21842SOL    HW172131   2.135  11.663   9.541  1.0829  0.3526 -0.2246
21842SOL    HW272132   2.125  11.745   9.668 -1.5911  0.5865 -0.5154
21843SOL     OW72133   4.075   9.820  11.982  0.3395  0.2756 -0.1169
21843SOL    HW172134   4.102   9.844  12.070  0.6472  1.0289 -0.4144
21843SOL    HW272135   3.993   9.867  11.968  0.7174  0.8165 -0.5391
21844SOL     OW72136  12.251   9.235  12.213 -0.3217 -0.8588  0.0707
21844SOL    HW172137  12.222   9.200  12.298 -0.0341 -1.0594  0.0897
21844SOL    HW272138  12.204   9.184  12.148 -0.6668 -0.5947  0.1106
21845SOL     OW72139   1.812  10.075   3.655 -0.2959  0.0514 -0.7974
21845SOL    HW172140   1.768  10.065   3.740  0.2593 -0.6871 -0.5911
21845SOL    HW272141   1.830  10.169   3.649 -1.0812  0.2343 -0.4767
21846SOL     OW72142   5.280  11.148   2.068  0.7021 -0.3668  0.0415
21846SOL    HW172143   5.189  11.171   2.088  0.3734 -0.6627 -1.0604
21846SOL    HW272144   5.283  11.053   2.078  0.1971 -0.7046 -2.4142
21847SOL     OW72145   9.186  11.441   2.734 -0.5149 -0.0397 -0.5365
21847SOL    HW172146   9.148  11.361   2.699 -1.1507 -0.5438  1.2138
21847SOL    HW272147   9.111  11.499   2.751 -0.1662  0.4694 -0.7041
21848SOL     OW72148   1.029   5.843   5.894  0.1578 -0.1513 -0.3906
21848SOL    HW172149   1.089   5.889   5.835  0.3944  0.6351  0.4426
21848SOL    HW272150   1.081   5.825   5.972 -0.5971  0.2606  0.2213
21849SOL     OW72151   0.196   8.318   8.137 -0.3975 -0.6280  0.3759
21849SOL    HW172152   0.263   8.376   8.102 -3.0163  3.6477  1.6992
21849SOL    HW272153   0.217   8.311   8.230 -1.9768  1.3180  0.9449
21850SOL     OW72154  11.656   6.777   9.056  0.1900 -0.2860 -0.3316
21850SOL    HW172155  11.738   6.728   9.052 -0.2329 -0.9859 -0.5453
21850SOL    HW272156  11.594   6.725   9.006  0.0481  1.1231 -1.6984
21851SOL     OW72157   8.728  11.794   8.219  0.2596  0.0049  0.3334
21851SOL    HW172158   8.681  11.712   8.201  1.0429 -0.5938  0.8905
21851SOL    HW272159   8.785  11.806   8.143 -1.5767  1.3694 -0.9116
21852SOL     OW72160   8.323   7.728  10.984 -0.5049  0.7950  0.0521
21852SOL    HW172161   8.235   7.766  10.973 -1.0869 -0.9696 -2.1570
21852SOL    HW272162   8.383   7.801  10.965 -1.4672  1.7779  0.6389
21853SOL     OW72163   6.887   8.627   4.155 -0.4445 -0.4030  0.3443
21853SOL    HW172164   6.906   8.701   4.213  0.1148  0.3542 -0.7706
21853SOL    HW272165   6.881   8.551   4.214  3.5114 -0.3208  1.1216
21854SOL     OW72166   5.443  12.664   7.798 -0.1324 -0.4230  0.3613
21854SOL    HW172167   5.407  12.677   7.710  0.2808 -0.8071  0.1350
21854SOL    HW272168   5.367  12.674   7.856 -0.3620  0.0938 -0.0156
21855SOL     OW72169   1.975   7.851   1.139  0.2267  0.3120 -0.1530
21855SOL    HW172170   1.916   7.790   1.184  0.8786 -0.1497  0.1031
21855SOL    HW272171   1.947   7.938   1.169 -0.9537  0.1862 -0.8087
21856SOL     OW72172   0.597   9.346   1.605  0.2497 -0.1144  0.1557
21856SOL    HW172173   0.612   9.279   1.538  0.2940  0.9310 -0.8945
21856SOL    HW272174   0.561   9.420   1.558  0.3867  0.6957  1.2823
21857SOL     OW72175  11.173   8.617   8.293 -0.3241 -0.0841 -0.2973
21857SOL    HW172176  11.131   8.649   8.214 -0.2150 -0.1572 -0.3852
21857SOL    HW272177  11.126   8.659   8.365 -0.4761 -0.0834 -0.3983
21858SOL     OW72178  10.816   7.265   9.636 -0.0137  0.7330  0.1152
21858SOL    HW172179  10.836   7.315   9.715  0.9532  2.3079 -1.0679
21858SOL    HW272180  10.872   7.303   9.568 -0.9959 -0.3902 -1.4047
21859SOL     OW72181   9.488   6.856   3.543 -0.1896 -0.5247 -0.1765
21859SOL    HW172182   9.536   6.936   3.562 -0.2658 -0.7638  1.1980
21859SOL    HW272183   9.451   6.830   3.628  2.0573 -3.4592  0.0880
21860SOL     OW72184   7.015   2.074  10.304 -0.0516 -0.6746  0.2775
21860SOL    HW172185   7.055   2.078  10.391 -0.8063 -3.4841  0.8406
21860SOL    HW272186   6.944   2.011  10.313 -1.2937  0.2892 -1.9911
21861SOL     OW72187   1.063   0.059   5.698  0.6402 -0.0376 -0.2109
21861SOL    HW172188   1.136   0.110   5.663  0.7820 -0.3558 -0.3783
21861SOL    HW272189   1.004   0.046   5.624  0.4562  0.1391 -0.0979
21862SOL     OW72190   4.417   7.429   8.317  0.2405  0.4348 -0.2229
21862SOL    HW172191   4.469   7.501   8.280  0.2485 -0.3067 -1.7705
21862SOL    HW272192   4.328   7.448   8.288 -0.2439  1.2378  1.6841
21863SOL     OW72193   5.355   2.763   5.818 -0.2915  0.3370 -0.4955
21863SOL    HW172194   5.443   2.793   5.840 -0.6055  2.5026 -1.8701
21863SOL    HW272195   5.368   2.675   5.781  1.1530  0.2352  0.1943
21864SOL     OW72196   8.521  10.538  11.555  0.9092  0.4102 -0.4586
21864SOL    HW172197   8.548  10.618  11.600 -0.1807  0.5259  0.0168
21864SOL    HW272198   8.508  10.474  11.625 -1.3129  0.7372 -0.4778
21865SOL     OW72199   8.796   0.715   0.765 -1.0058  0.3049 -0.4754
21865SOL    HW172200   8.881   0.754   0.782 -0.2489 -1.1871 -0.6912
21865SOL    HW272201   8.771   0.674   0.848 -1.7264  1.0942 -0.2881
21866SOL     OW72202   0.061  10.046   1.332  0.1908 -0.4967  0.3292
21866SOL    HW172203   0.090  10.011   1.248 -0.6470 -0.4150 -0.0049
21866SOL    HW272204  -0.027  10.079   1.315 -0.4339 -1.4896  1.5084
21867SOL     OW72205   0.699  12.684   9.633 -0.2218 -0.3003 -0.2455
21867SOL    HW172206   0.756  12.685   9.557  2.1972  0.2540  1.4514
21867SOL    HW272207   0.682  12.592   9.650  0.2580 -0.4773 -0.7304
21868SOL     OW72208   5.974  10.230   6.205 -0.5946  0.3817  0.4014
21868SOL    HW172209   6.053  10.209   6.156 -1.0589 -1.6683  0.4657
21868SOL    HW272210   6.004  10.283   6.279  0.3697  1.7273 -0.8886
21869SOL     OW72211   4.746   2.164   7.665 -0.2104  0.7674 -0.0256
21869SOL    HW172212   4.777   2.244   7.707  2.2532  0.0748 -0.3072
21869SOL    HW272213   4.798   2.158   7.584 -2.4823  0.3903 -1.5406
21870SOL     OW72214   1.794   0.976   8.242 -0.3412  0.1900 -0.3313
21870SOL    HW172215   1.720   0.983   8.181 -0.3865  0.8677 -0.2159
21870SOL    HW272216   1.851   1.049   8.218 -1.3724  1.7973  1.7392
21871SOL     OW72217   5.204   8.472   9.591  0.3071 -0.0065 -0.5711
21871SOL    HW172218   5.142   8.407   9.557  0.7936 -0.4285 -0.6609
21871SOL    HW272219   5.250   8.428   9.662  1.0126  0.0576 -0.9805
21872SOL     OW72220   2.596  11.169  10.279 -0.3552 -0.3127  0.0037
21872SOL    HW172221   2.539  11.144  10.206 -0.3415 -0.1979 -0.0463
21872SOL    HW272222   2.670  11.109  10.272 -0.0945  0.0500 -0.4031
21873SOL     OW72223   3.093   1.569   5.666  0.3293 -0.6563 -0.1651
21873SOL    HW172224   3.118   1.643   5.722 -1.3595 -1.2189  1.4399
21873SOL    HW272225   3.172   1.548   5.618  0.9815  1.9043 -0.3487
21874SOL     OW72226   5.414   7.974   6.405  0.1828  0.2237 -0.5637
21874SOL    HW172227   5.464   7.990   6.485 -0.1551  1.2356 -0.5461
21874SOL    HW272228   5.480   7.968   6.336  0.6404 -2.3110 -0.0307
21875SOL     OW72229   3.162  10.837   3.991 -0.1107  0.0427 -0.1799
21875SOL    HW172230   3.236  10.796   4.037 -0.9398  0.3975  1.5324
21875SOL    HW272231   3.133  10.770   3.929  0.5345 -0.7684  0.3743
21876SOL     OW72232   3.490   0.523   3.184  0.2773  0.2059 -0.2930
21876SOL    HW172233   3.565   0.556   3.233  0.8298 -0.2989 -0.7858
21876SOL    HW272234   3.522   0.512   3.094  0.2352 -1.9857 -0.0897
21877SOL     OW72235  10.532  10.168   1.365 -0.3711 -0.0124  0.3457
21877SOL    HW172236  10.545  10.181   1.459 -0.4841 -0.1467  0.3802
21877SOL    HW272237  10.513  10.075   1.356  2.5299 -0.6627 -0.1382
21878SOL     OW72238   5.205   8.689   6.499  0.0174 -0.0762  0.1816
21878SOL    HW172239   5.191   8.758   6.564  1.7195 -0.4992  1.0626
21878SOL    HW272240   5.252   8.732   6.429 -0.7099  0.0946 -0.2109
21879SOL     OW72241   8.149   5.844  12.346  0.2131  0.7107 -0.5944
21879SOL    HW172242   8.081   5.854  12.280  0.3377  0.6015 -0.7374
21879SOL    HW272243   8.102   5.814  12.424  0.3635 -1.3589 -1.2584
21880SOL     OW72244   6.094   8.808   7.482 -0.0968  0.1280 -0.0590
21880SOL    HW172245   6.086   8.786   7.389 -1.6716  1.0128 -0.1646
21880SOL    HW272246   6.188   8.819   7.496  0.1808 -0.2017 -1.5010
21881SOL     OW72247   3.103   7.453  11.808 -0.0847  0.0934 -0.5153
21881SOL    HW172248   3.029   7.393  11.818  1.3831 -1.7907 -0.5830
21881SOL    HW272249   3.102   7.505  11.888  0.2288 -1.9275  0.8674
21882SOL     OW72250   6.995   4.139   3.534  0.4298 -0.0570 -0.0775
21882SOL    HW172251   7.036   4.144   3.448  0.7393  0.5361  0.1016
21882SOL    HW272252   6.945   4.221   3.542  1.8261  0.7300  1.0123
21883SOL     OW72253   6.605   6.674  11.613 -0.0969 -0.4079  0.6655
21883SOL    HW172254   6.568   6.751  11.571  0.8855 -0.4126 -0.2665
21883SOL    HW272255   6.630   6.703  11.700 -2.0038 -0.3431  1.2197
21884SOL     OW72256   7.751   8.290   0.327  0.0638 -0.4508 -0.0912
21884SOL    HW172257   7.703   8.226   0.379 -0.2317  0.7607  1.1818
21884SOL    HW272258   7.710   8.374   0.348  2.3188  0.5611  0.5783
21885SOL     OW72259   0.265   7.576   9.535 -0.1921 -0.2285 -0.3210
21885SOL    HW172260   0.301   7.640   9.474  0.1839 -0.6851 -0.5767
21885SOL    HW272261   0.221   7.512   9.480 -1.1318  0.1475 -0.0323
21886SOL     OW72262   2.570   6.207  10.881  0.4151 -0.2080 -0.3691
21886SOL    HW172263   2.554   6.232  10.790  0.1233 -0.2622 -0.3358
21886SOL    HW272264   2.626   6.276  10.916 -1.4066  1.0922  0.0906
21887SOL     OW72265   2.876   5.042   6.051  0.2284  0.1263  0.1051
21887SOL    HW172266   2.954   5.026   6.105  0.6820 -0.2434 -0.6326
21887SOL    HW272267   2.911   5.074   5.968 -0.5244  2.1900  0.5263
21888SOL     OW72268   0.631   9.031  12.303 -0.4922 -0.2775  0.2238
21888SOL    HW172269   0.553   9.058  12.253 -0.4049  0.8689  0.6787
21888SOL    HW272270   0.612   8.941  12.330 -1.6272 -0.0439  0.2518
21889SOL     OW72271   5.235   0.997   1.750  0.5485 -0.6143  0.5407
21889SOL    HW172272   5.325   1.029   1.745  0.1696  0.6038  1.0290
21889SOL    HW272273   5.200   1.012   1.662  0.5367 -0.1707  0.6182
21890SOL     OW72274  12.207   7.419   2.453 -0.0901  0.3145  0.0268
21890SOL    HW172275  12.279   7.481   2.452  2.1265 -2.0402  1.1343
21890SOL    HW272276  12.176   7.417   2.543 -2.3119  1.9686 -0.5944
21891SOL     OW72277   0.395  11.606   4.607 -0.5399  1.0298 -0.2312
21891SOL    HW172278   0.307  11.641   4.595 -1.0943  0.2189  1.2240
21891SOL    HW272279   0.393  11.566   4.694  1.3596  1.2645 -0.0455
21892SOL     OW72280   4.885   2.431  10.228  0.1599  0.0704  0.3813
21892SOL    HW172281   4.828   2.409  10.154  0.9220  0.7435 -0.4141
21892SOL    HW272282   4.906   2.523  10.217 -0.1058  0.3086  1.7170
21893SOL     OW72283  12.450   9.924  12.021 -0.3786 -0.3434 -1.0669
21893SOL    HW172284  12.497   9.998  11.983 -0.0660 -0.3084 -0.6141
21893SOL    HW272285  12.474   9.849  11.967  2.1999 -0.8462  0.5939
21894SOL     OW72286   8.422  10.758  11.224  0.5889  0.4118 -0.3702
21894SOL    HW172287   8.339  10.802  11.204 -0.3688 -0.8176  0.7649
21894SOL    HW272288   8.475  10.771  11.145 -1.0385  0.3889 -1.5312
21895SOL     OW72289   8.587   6.385   5.050 -0.5399  0.3531  0.0403
21895SOL    HW172290   8.667   6.341   5.079 -1.3946 -1.4499 -0.1898
21895SOL    HW272291   8.536   6.397   5.130 -1.9623 -2.6676 -0.2921
21896SOL     OW72292   6.086   0.535   5.389 -0.0304  0.4051 -0.0410
21896SOL    HW172293   6.177   0.515   5.408 -0.8016 -2.1788  1.3541
21896SOL    HW272294   6.089   0.588   5.309  2.6520  0.2519 -0.1158
21897SOL     OW72295   2.271   1.879   7.131 -0.4199 -0.7579 -0.7455
21897SOL    HW172296   2.249   1.787   7.115  0.4425 -1.1044  0.0070
21897SOL    HW272297   2.356   1.877   7.174 -0.2185  0.4187 -1.0481
21898SOL     OW72298   1.148   9.226   2.324  0.1183  0.5550 -0.0562
21898SOL    HW172299   1.111   9.139   2.309 -1.2846  1.2253 -0.6490
21898SOL    HW272300   1.109   9.281   2.257  1.1641  1.6151  0.1659
21899SOL     OW72301  12.223   2.005   9.604  0.0280 -0.1947  0.3675
21899SOL    HW172302  12.140   1.989   9.558 -0.2440 -0.0139  0.7867
21899SOL    HW272303  12.197   2.048   9.686  0.6160  0.7861  0.0520
21900SOL     OW72304   3.238   0.783   0.629 -0.3221  0.0804  0.2305
21900SOL    HW172305   3.188   0.715   0.676  0.4028  0.5589  1.7648
21900SOL    HW272306   3.330   0.761   0.647 -0.0657  1.0106  0.0728
21901SOL     OW72307  10.694   9.830   5.259 -0.1773  0.9204  0.0263
21901SOL    HW172308  10.781   9.861   5.235 -0.3537  1.8735  0.5665
21901SOL    HW272309  10.649   9.816   5.176  0.4002  0.6822 -0.2480
21902SOL     OW72310   4.441  11.856   1.647  0.5952  0.8133  0.8706
21902SOL    HW172311   4.485  11.929   1.605 -0.1793  0.6824 -0.2225
21902SOL    HW272312   4.386  11.818   1.578 -1.2565  0.9975  2.1723
21903SOL     OW72313   8.775   5.874   3.230 -0.2252 -0.6643  0.4806
21903SOL    HW172314   8.742   5.833   3.310 -1.5850  0.9729  0.8224
21903SOL    HW272315   8.737   5.824   3.159  0.6874 -1.9005  0.8246
21904SOL     OW72316   7.859  11.861   0.922 -0.1270 -0.4964  0.6758
21904SOL    HW172317   7.949  11.844   0.894 -0.0380  0.1445  0.5637
21904SOL    HW272318   7.867  11.914   1.001 -0.3745 -2.6479  2.2286
21905SOL     OW72319  10.151   2.497   5.547 -0.7595 -0.0102  0.3835
21905SOL    HW172320  10.187   2.502   5.459 -2.5600  1.4787 -0.3125
21905SOL    HW272321  10.131   2.404   5.559 -0.3593 -0.2540 -0.6993
21906SOL     OW72322   4.569   1.963   4.023 -0.3177  0.2201 -0.1063
21906SOL    HW172323   4.643   1.993   4.076  0.0470  0.0313 -0.5011
21906SOL    HW272324   4.494   1.969   4.081  0.4223 -2.1370  1.2056
21907SOL     OW72325  10.215   1.174  10.788 -0.1730 -0.3679  0.2533
21907SOL    HW172326  10.204   1.181  10.883 -2.5132  0.0340  0.0240
21907SOL    HW272327  10.305   1.203  10.772  0.1539 -0.0750  2.2961
21908SOL     OW72328   2.679   7.312  10.064  0.1454  0.0519 -0.2083
21908SOL    HW172329   2.681   7.306  10.160  0.5800  0.4783 -0.1886
21908SOL    HW272330   2.722   7.395  10.045  3.5158 -1.7225 -0.9834
21909SOL     OW72331   2.319   0.499   5.918  0.5821  0.5520 -0.3046
21909SOL    HW172332   2.307   0.585   5.959 -0.7267  0.3492 -0.2214
21909SOL    HW272333   2.231   0.471   5.895  1.1252 -0.0795 -1.7646
21910SOL     OW72334   0.891   4.556   4.024  0.2720 -0.2799  0.5323
21910SOL    HW172335   0.806   4.516   4.004  0.0082  0.5854 -0.1087
21910SOL    HW272336   0.898   4.550   4.119  0.4975 -2.3385  0.4439
21911SOL     OW72337   9.604   1.887   3.262  0.2826 -0.6810  0.4407
21911SOL    HW172338   9.588   1.933   3.344 -1.7644  0.9886 -0.7976
21911SOL    HW272339   9.556   1.804   3.270 -0.2949 -0.3183  0.7701
21912SOL     OW72340   9.492   8.962   9.851  1.3106 -0.4755  0.0401
21912SOL    HW172341   9.510   9.056   9.853  2.0037 -0.6158  1.2157
21912SOL    HW272342   9.498   8.934   9.942 -1.1430 -1.2816  0.0377
21913SOL     OW72343   0.742   0.660   0.174  0.0859 -0.1403  0.3781
21913SOL    HW172344   0.740   0.565   0.162  1.7193 -0.3981  1.7394
21913SOL    HW272345   0.663   0.680   0.224 -1.0641 -0.5241 -1.2029
21914SOL     OW72346   6.463   9.610   5.948  0.0423  0.5834 -0.3824
21914SOL    HW172347   6.391   9.669   5.928 -0.9918 -0.0410  1.2622
21914SOL    HW272348   6.441   9.529   5.901 -0.0232  0.5809 -0.3469
21915SOL     OW72349  12.583   8.674   9.547  0.2189 -0.0396  0.0751
21915SOL    HW172350  12.630   8.635   9.473 -0.0295 -0.6183  0.2180
21915SOL    HW272351  12.651   8.692   9.612  1.0743  3.8098 -1.5942
21916SOL     OW72352  12.227   0.624   6.976 -0.1294 -0.1970 -0.0408
21916SOL    HW172353  12.298   0.567   7.005  0.2033 -0.7331 -1.7565
21916SOL    HW272354  12.148   0.586   7.015  0.5931  1.4159  3.3402
21917SOL     OW72355   3.429   0.237   5.383  0.0673  0.1924  0.5125
21917SOL    HW172356   3.486   0.292   5.437 -0.1251  0.2627  0.6490
21917SOL    HW272357   3.422   0.154   5.431 -2.3675  1.1872  2.1075
21918SOL     OW72358  12.005   4.723  11.137 -0.1713 -0.2624  0.0657
21918SOL    HW172359  12.032   4.765  11.056  0.9672  0.1296  0.6309
21918SOL    HW272360  11.911   4.709  11.126 -0.7296  2.8454  0.0285
21919SOL     OW72361   4.860   1.162  11.901 -0.3908 -0.0138 -0.1497
21919SOL    HW172362   4.824   1.242  11.862  1.0604 -0.2517 -2.1174
21919SOL    HW272363   4.930   1.193  11.959 -1.6721  0.2492  1.3528
21920SOL     OW72364  10.520   0.365  12.740 -0.6432 -0.7655  0.0183
21920SOL    HW172365  10.429   0.337  12.732 -0.4180 -1.5584  0.0875
21920SOL    HW272366  10.569   0.283  12.752 -0.0156 -0.2864  0.7998
21921SOL     OW72367   5.406   4.277   6.860  0.1487 -0.1973 -0.5484
21921SOL    HW172368   5.351   4.330   6.918  1.5199 -0.2125  0.8316
21921SOL    HW272369   5.371   4.188   6.869 -0.8896  0.1057 -1.3191
21922SOL     OW72370   8.321   4.482   0.906 -0.0898 -0.9792  0.0007
21922SOL    HW172371   8.266   4.505   0.982 -0.3553 -2.2027  0.1966
21922SOL    HW272372   8.368   4.563   0.886  0.2265 -0.6987  1.6660
21923SOL     OW72373   8.105  10.834   1.443  0.5055 -0.3243 -0.4781
21923SOL    HW172374   8.074  10.776   1.374 -2.1260  2.0322 -1.4935
21923SOL    HW272375   8.132  10.913   1.398  0.0467  0.7642  1.0684
21924SOL     OW72376   5.527   9.972   6.740  0.2084 -0.1297  0.6140
21924SOL    HW172377   5.555  10.063   6.755  0.7147 -0.3775  1.1873
21924SOL    HW272378   5.443   9.981   6.695  0.7965  0.6268 -0.3970
21925SOL     OW72379   8.543   3.167  10.666  0.0657 -0.3687  0.1976
21925SOL    HW172380   8.534   3.220  10.744 -0.9242 -1.6977  1.0322
21925SOL    HW272381   8.468   3.190  10.611  1.5501  1.6510 -1.1011
21926SOL     OW72382   3.988   4.258   3.634  0.3787 -0.4036 -0.9184
21926SOL    HW172383   4.028   4.219   3.712 -0.1288  1.2709  0.2253
21926SOL    HW272384   4.053   4.246   3.565  2.7114  1.7771  0.7472
21927SOL     OW72385  12.719   2.596   8.435 -0.5208  0.2797 -0.2295
21927SOL    HW172386  12.702   2.508   8.470  1.6215 -0.3065 -0.5023
21927SOL    HW272387  12.810   2.615   8.461 -1.1413  2.7222  0.4005
21928SOL     OW72388   3.954  12.252   2.128  0.8093 -0.3657  0.2535
21928SOL    HW172389   3.895  12.318   2.164 -1.5628 -1.0440 -2.0323
21928SOL    HW272390   3.931  12.171   2.175  0.0992 -0.5708 -0.4360
21929SOL     OW72391   0.146   5.953  10.125  0.2853  0.1787  0.2417
21929SOL    HW172392   0.100   6.030  10.091  0.9049  0.2135 -0.5283
21929SOL    HW272393   0.230   5.987  10.156 -0.1123  0.0835  1.4813
21930SOL     OW72394  10.632   5.584  11.217  0.0281 -0.1743  0.1504
21930SOL    HW172395  10.601   5.670  11.191 -1.2495 -0.1673  1.5443
21930SOL    HW272396  10.552   5.532  11.229  0.7242 -1.2273  0.4298
21931SOL     OW72397   1.837   7.834   7.446  0.3700  0.3880  0.1268
21931SOL    HW172398   1.862   7.804   7.359 -0.2961 -0.9663  0.3613
21931SOL    HW272399   1.846   7.755   7.501  0.3513  1.1035  1.1854
21932SOL     OW72400   9.415   6.944   1.267  0.2140 -0.0107  0.5483
21932SOL    HW172401   9.482   6.904   1.212  1.1423  1.5744  0.4429
21932SOL    HW272402   9.349   6.876   1.278  0.8011 -0.9274 -1.1393
21933SOL     OW72403  10.037   8.915   5.536 -0.3139  0.3145  0.0491
21933SOL    HW172404  10.116   8.913   5.482  0.1912  0.2087  0.7733
21933SOL    HW272405  10.040   9.001   5.579  0.9827 -0.7467  2.3069
21934SOL     OW72406  10.340   8.586   0.956 -0.0309 -0.3649  0.8473
21934SOL    HW172407  10.318   8.616   0.868  1.1896 -0.4924  0.4941
21934SOL    HW272408  10.431   8.610   0.969  0.3183 -1.8504  1.4324
21935SOL     OW72409   6.313  12.190   5.431  0.1623  0.1683 -0.2006
21935SOL    HW172410   6.407  12.206   5.424  0.5343 -0.0994  2.7334
21935SOL    HW272411   6.272  12.267   5.392  1.5573  0.1444 -1.8056
21936SOL     OW72412   8.517  11.652   5.938  0.4356  0.2518 -0.2415
21936SOL    HW172413   8.461  11.673   5.863  0.2201 -0.0325 -0.1625
21936SOL    HW272414   8.492  11.563   5.962  1.0794  0.0387 -0.3452
21937SOL     OW72415   4.215   6.447   3.118 -0.4026 -0.4034 -0.0696
21937SOL    HW172416   4.144   6.387   3.092  2.2221 -3.7649 -0.2872
21937SOL    HW272417   4.258   6.469   3.035 -1.8779  2.8348 -0.1166
21938SOL     OW72418   6.136   9.848   5.074 -0.6858  0.4552  0.0844
21938SOL    HW172419   6.190   9.915   5.032 -0.3777  0.1371 -0.0328
21938SOL    HW272420   6.177   9.835   5.159 -0.2636 -0.1637 -0.2107
21939SOL     OW72421   4.979   7.795   2.471  0.0880 -0.2297 -0.2235
21939SOL    HW172422   5.029   7.844   2.405 -0.2130 -1.6061 -1.5225
21939SOL    HW272423   4.907   7.854   2.494  0.5610  0.5326 -0.6564
21940SOL     OW72424   5.416   7.535   5.194  0.4620  0.4235 -0.1458
21940SOL    HW172425   5.482   7.560   5.259 -1.9896  1.2507  2.1852
21940SOL    HW272426   5.401   7.442   5.209  0.8686  0.2916 -0.5147
21941SOL     OW72427   7.060   9.328   5.236  0.1055 -0.0390  0.3466
21941SOL    HW172428   7.115   9.296   5.165  0.8208  1.2864  0.2682
21941SOL    HW272429   7.076   9.267   5.308  0.9686 -0.2101  0.0272
21942SOL     OW72430  10.945   0.745   0.319 -0.4791  0.2638 -0.1639
21942SOL    HW172431  10.961   0.694   0.399 -0.8637 -0.1984 -0.3749
21942SOL    HW272432  10.949   0.680   0.248  0.2150  0.7228 -0.5636
21943SOL     OW72433   0.988   7.100   9.013  0.3413  0.1374  0.4704
21943SOL    HW172434   0.904   7.114   9.055  0.1869 -1.7824  0.9155
21943SOL    HW272435   1.046   7.167   9.050 -0.6414  0.5972  1.1991
21944SOL     OW72436   5.520   8.068  12.076  0.0789 -0.4959 -0.2520
21944SOL    HW172437   5.489   8.056  12.165 -0.6460 -0.4882 -0.5018
21944SOL    HW272438   5.582   8.141  12.082 -0.5136 -0.0167  0.1150
21945SOL     OW72439  12.320   8.616  10.573  0.2038 -0.6720 -0.4628
21945SOL    HW172440  12.227   8.597  10.579  0.0971  0.1375  2.2920
21945SOL    HW272441  12.331   8.696  10.625  2.3115 -0.2380 -1.4647
21946SOL     OW72442   1.970   0.508   8.327  0.1773  0.2550  0.3055
21946SOL    HW172443   1.980   0.470   8.414 -1.4359  1.0237  0.8581
21946SOL    HW272444   1.981   0.602   8.340  0.2028  0.3501 -0.3777
21947SOL     OW72445   7.790  10.261   5.212  0.0828 -0.5009  0.1655
21947SOL    HW172446   7.706  10.301   5.189  0.3076 -0.2578 -0.2583
21947SOL    HW272447   7.844  10.334   5.242  0.2572 -0.5995  0.0916
21948SOL     OW72448   7.348   3.210   1.359 -0.0975  0.3059  0.3077
21948SOL    HW172449   7.390   3.148   1.300  1.3094 -0.1052  1.6871
21948SOL    HW272450   7.257   3.179   1.365  0.3800 -1.1482  0.3496
21949SOL     OW72451   1.298  10.336   6.468 -0.4294  0.7223 -0.0676
21949SOL    HW172452   1.346  10.282   6.405  0.3854  1.6489 -0.2728
21949SOL    HW272453   1.292  10.422   6.426 -0.1228  1.2809  0.9890
21950SOL     OW72454   7.211   0.307   0.010 -0.8714 -0.3355 -0.4231
21950SOL    HW172455   7.122   0.284  -0.014 -0.3812 -1.6818 -1.0320
21950SOL    HW272456   7.254   0.327  -0.073 -0.4466 -0.2975 -0.1959
21951SOL     OW72457   9.011   9.068   9.986 -0.8887  0.1538  0.3174
21951SOL    HW172458   8.987   9.067   9.893  1.4248  0.8097 -0.3487
21951SOL    HW272459   9.065   8.990   9.998 -1.4734 -0.1215  1.2226
21952SOL     OW72460   1.132   8.850   9.709  0.2253 -0.0163  0.2040
21952SOL    HW172461   1.157   8.934   9.748 -0.4682  0.2317  0.1245
21952SOL    HW272462   1.132   8.789   9.783  0.3392  0.1363  0.3326
21953SOL     OW72463   8.615   9.403   3.780 -0.5783 -0.3733  0.4821
21953SOL    HW172464   8.571   9.488   3.788 -1.4250 -0.8468  1.0034
21953SOL    HW272465   8.579   9.365   3.700  0.5278  0.1607 -0.2877
21954SOL     OW72466  12.460   2.720   5.105 -0.0879 -0.4021 -0.2537
21954SOL    HW172467  12.512   2.717   5.025 -1.8630 -1.8575 -1.4431
21954SOL    HW272468  12.428   2.811   5.110  0.9278 -0.0170 -0.5624
21955SOL     OW72469   8.725   1.283   2.399  0.3354 -0.5509 -0.0793
21955SOL    HW172470   8.727   1.311   2.307 -1.5224  0.0104  0.0054
21955SOL    HW272471   8.767   1.353   2.447  0.3218 -0.3236 -0.3938
21956SOL     OW72472  10.701  10.083   8.866 -0.2945  0.0882 -0.0456
21956SOL    HW172473  10.780  10.112   8.821 -0.1489 -1.0571 -0.5710
21956SOL    HW272474  10.633  10.144   8.839 -0.3836 -0.9448 -2.4170
21957SOL     OW72475   8.367   5.970   1.097 -0.9001  0.0385 -0.2661
21957SOL    HW172476   8.393   6.032   1.165  0.5890  0.2856 -1.0428
21957SOL    HW272477   8.407   5.887   1.124  0.0114  0.2249 -1.0306
21958SOL     OW72478  11.058   4.093   2.047 -0.5482  0.0188 -0.1078
21958SOL    HW172479  11.147   4.065   2.069  0.7123  1.0184 -3.3357
21958SOL    HW272480  11.040   4.165   2.107  1.7464  1.1760 -0.6727
21959SOL     OW72481   6.398   2.860   5.146  0.3141  0.5511 -0.3272
21959SOL    HW172482   6.468   2.881   5.207 -1.1496 -0.8812  2.0165
21959SOL    HW272483   6.338   2.935   5.152  0.2099  0.4464 -0.0797
21960SOL     OW72484  11.996   8.704  12.643  0.1072  0.4493 -0.3738
21960SOL    HW172485  11.994   8.629  12.583  0.8600  0.7842 -0.8375
21960SOL    HW272486  11.917   8.753  12.623  0.4470  0.6576 -1.2443
21961SOL     OW72487   0.643   9.069   8.253 -0.6275 -0.0989 -0.1999
21961SOL    HW172488   0.630   9.090   8.160 -1.3461 -0.7116 -0.2492
21961SOL    HW272489   0.576   9.003   8.272  0.1228 -0.6667  0.5194
21962SOL     OW72490  11.283  12.420  11.757 -0.0212 -0.1659  0.2586
21962SOL    HW172491  11.376  12.403  11.739  0.1494  1.5583 -0.6760
21962SOL    HW272492  11.254  12.343  11.805  1.6757 -1.1388 -0.1827
21963SOL     OW72493   9.144   2.859   6.784  0.2031 -0.4597 -0.2470
21963SOL    HW172494   9.116   2.771   6.759  0.3988  0.0995 -2.6446
21963SOL    HW272495   9.238   2.860   6.767  0.6859 -0.4710  2.0763
21964SOL     OW72496   5.721  11.534   8.864 -0.9235  0.3513  0.0849
21964SOL    HW172497   5.766  11.541   8.779 -1.5940 -0.3349 -0.3424
21964SOL    HW272498   5.740  11.617   8.907 -2.4564  1.7082 -1.6831
21965SOL     OW72499   5.005   9.418   9.855  0.6623 -0.1748 -0.4988
21965SOL    HW172500   5.097   9.406   9.876  1.1139  0.0807 -2.1702
21965SOL    HW272501   4.958   9.378   9.928  2.0879 -0.5201  0.2616
21966SOL     OW72502   4.097   1.801  10.824 -0.4562  0.7008  0.0447
21966SOL    HW172503   4.117   1.717  10.865  1.6668  1.0094 -0.2421
21966SOL    HW272504   4.158   1.862  10.864 -0.2983  1.5972 -1.4731
21967SOL     OW72505   4.879   1.381   0.154 -0.7339 -0.1846 -0.1738
21967SOL    HW172506   4.840   1.348   0.235  0.1339  0.2547  0.4428
21967SOL    HW272507   4.856   1.316   0.088 -1.2025 -0.7091  0.4926
21968SOL     OW72508   1.062   4.681   9.046 -0.2414  0.7582  0.2635
21968SOL    HW172509   0.988   4.627   9.018  0.3397 -0.2899  0.6620
21968SOL    HW272510   1.139   4.627   9.027  0.3124  1.1010  1.4478
21969SOL     OW72511  12.032  11.735   7.375 -0.5713 -0.1420  0.6359
21969SOL    HW172512  12.108  11.683   7.399  0.2087  0.3524 -0.6706
21969SOL    HW272513  12.067  11.807   7.322 -2.0474 -0.7313 -1.2795
21970SOL     OW72514  12.664   6.483   3.145  0.0572  0.4104 -0.5898
21970SOL    HW172515  12.616   6.456   3.223  0.3616 -0.9954 -0.8497
21970SOL    HW272516  12.701   6.401   3.111 -0.1408  0.9729 -2.2499
21971SOL     OW72517  11.861   0.236   1.944 -0.6677 -0.1522  0.1469
21971SOL    HW172518  11.914   0.255   2.022 -1.2156  0.0450  0.4793
21971SOL    HW272519  11.891   0.300   1.879 -0.3344 -0.1999  0.2514
21972SOL     OW72520   0.367   3.852   6.453  0.1300 -0.1487  0.2951
21972SOL    HW172521   0.322   3.882   6.374 -0.7801 -0.7669  0.5595
21972SOL    HW272522   0.378   3.931   6.506  1.5458  0.4350 -0.8025
21973SOL     OW72523  10.930   9.211   2.949  0.3194  0.1219 -0.3432
21973SOL    HW172524  11.017   9.241   2.920  0.6009  0.4253  0.7485
21973SOL    HW272525  10.899   9.281   3.007  0.6096 -1.2612  1.5729
21974SOL     OW72526   1.859   0.870  11.160  0.4030  0.2438  0.0800
21974SOL    HW172527   1.830   0.929  11.090  1.9207  0.0271 -0.7822
21974SOL    HW272528   1.778   0.836  11.198 -0.4763  0.3405 -1.5973
21975SOL     OW72529   9.501   4.271  10.053 -0.3847  0.1845  0.2209
21975SOL    HW172530   9.512   4.308   9.966 -0.4259  1.8245  0.8769
21975SOL    HW272531   9.561   4.320  10.108 -0.6278 -0.5728  1.1980
21976SOL     OW72532   0.059   3.887   0.278  0.1562 -0.6218  0.0228
21976SOL    HW172533   0.150   3.896   0.251  0.7731  1.5404  2.4221
21976SOL    HW272534   0.013   3.954   0.228  0.9073  1.8816  2.4815
21977SOL     OW72535   6.304   7.022   6.814 -0.3197 -0.3516  0.4075
21977SOL    HW172536   6.241   7.094   6.818  1.2079  0.9760  2.3416
21977SOL    HW272537   6.301   6.982   6.901  1.1976 -0.5033  0.4197
21978SOL     OW72538   9.161   7.084   7.287  0.0326 -0.7433 -0.0214
21978SOL    HW172539   9.160   7.019   7.357 -3.1878  0.4476  1.2127
21978SOL    HW272540   9.149   7.033   7.206  1.3153 -1.9208  0.4898
21979SOL     OW72541  12.223   5.109   4.498  0.7948  0.0214  0.8875
21979SOL    HW172542  12.229   5.193   4.452  2.0343  0.7118  2.2579
21979SOL    HW272543  12.180   5.051   4.435  0.3172  1.5501 -0.2574
21980SOL     OW72544   7.674   3.479   1.680  0.0143 -0.5928  0.3845
21980SOL    HW172545   7.603   3.415   1.666  0.7774 -1.2024 -0.9449
21980SOL    HW272546   7.636   3.562   1.650 -0.4910 -0.6998  0.7050
21981SOL     OW72547   8.841   0.555  10.885 -0.1213 -0.3218  0.0345
21981SOL    HW172548   8.834   0.493  10.957  1.9810 -0.1082  0.4938
21981SOL    HW272549   8.788   0.630  10.912  1.6910  0.3425  2.0820
21982SOL     OW72550   9.640   8.143   1.418  0.6000  0.1354 -0.2078
21982SOL    HW172551   9.644   8.049   1.396  0.8842  0.6392 -2.6511
21982SOL    HW272552   9.729   8.175   1.400  0.5578  0.8611  0.7914
21983SOL     OW72553   0.972   8.816  11.852 -0.1920 -0.0257 -0.1946
21983SOL    HW172554   0.915   8.789  11.779 -0.8659  0.8284 -0.0003
21983SOL    HW272555   0.914   8.867  11.910  0.5637  0.1078  0.4580
21984SOL     OW72556   8.618   5.956  12.512 -0.3641 -0.2214  0.7752
21984SOL    HW172557   8.534   6.001  12.508  0.1360  0.7332  0.6404
21984SOL    HW272558   8.679   6.014  12.466  0.0563 -1.6656 -0.5882
21985SOL     OW72559   5.998  12.160  10.171 -0.7645 -0.1840 -0.3968
21985SOL    HW172560   5.999  12.167  10.267  0.3758 -3.1136 -0.0807
21985SOL    HW272561   6.080  12.201  10.144  0.7395 -2.5096  0.3215
21986SOL     OW72562   8.124   3.136   0.407 -1.0750  0.3313  0.5262
21986SOL    HW172563   8.169   3.095   0.481 -0.7219 -2.1906 -0.9538
21986SOL    HW272564   8.194   3.174   0.354 -0.5209 -3.0306 -1.4413
21987SOL     OW72565   6.812   3.242   2.169  0.0887  0.0128  0.3576
21987SOL    HW172566   6.880   3.245   2.101 -1.1670  1.9749 -0.9181
21987SOL    HW272567   6.770   3.157   2.157 -0.7321  0.6643 -2.0799
21988SOL     OW72568  10.172   5.699  12.323 -0.5992  0.3859  0.0306
21988SOL    HW172569  10.238   5.636  12.351  0.9420  1.9523  0.1120
21988SOL    HW272570  10.193   5.718  12.232 -1.3768  0.3893 -0.1591
21989SOL     OW72571   2.358  10.331   6.382  0.1336  0.0315 -0.3110
21989SOL    HW172572   2.266  10.314   6.402  0.2164  1.2059  1.3069
21989SOL    HW272573   2.400  10.340   6.468  1.8322 -0.7257 -1.0028
21990SOL     OW72574   2.741  11.566   2.948 -0.4573 -0.1428  0.1469
21990SOL    HW172575   2.710  11.498   2.889  0.2009  0.0509 -0.4405
21990SOL    HW272576   2.691  11.644   2.923  0.2117  0.0756 -0.5417
21991SOL     OW72577   0.987   3.648   9.305  0.3069 -0.1029  0.1557
21991SOL    HW172578   0.983   3.737   9.271 -2.4836  0.2189  1.0748
21991SOL    HW272579   1.015   3.658   9.396  0.4389 -0.2200  0.1288
21992SOL     OW72580   2.442   1.052   5.791 -0.1155  0.1559 -0.6195
21992SOL    HW172581   2.354   1.021   5.810 -0.4308  1.0321 -0.6453
21992SOL    HW272582   2.449   1.046   5.696  1.3260 -3.8504 -0.4521
21993SOL     OW72583   4.930  11.055   8.763  0.4948 -0.0884  0.4037
21993SOL    HW172584   4.872  11.058   8.840  1.5309  1.4398  1.1874
21993SOL    HW272585   4.973  11.141   8.763  0.9336 -0.2700 -1.5862
21994SOL     OW72586   1.168   4.601   2.208 -0.2442  0.4116 -0.1788
21994SOL    HW172587   1.172   4.652   2.127 -0.4560  0.5373 -0.1110
21994SOL    HW272588   1.161   4.666   2.277  0.9369  0.3495  0.0275
21995SOL     OW72589   4.349   2.347   9.742  0.2639  0.4300  0.8044
21995SOL    HW172590   4.316   2.267   9.701 -0.6107  2.1540 -2.2178
21995SOL    HW272591   4.276   2.381   9.793 -0.1434  0.4084  0.2445
21996SOL     OW72592   1.617   4.232   4.738  0.0433 -0.6098  0.1550
21996SOL    HW172593   1.683   4.264   4.800 -0.7915 -0.5355  1.0280
21996SOL    HW272594   1.568   4.166   4.788 -0.8641 -0.2999 -0.3158
21997SOL     OW72595   8.418  10.238   5.019 -0.0782  0.2153  0.4137
21997SOL    HW172596   8.367  10.309   5.056 -0.5461  0.0868  0.0303
21997SOL    HW272597   8.508  10.255   5.046 -0.2468  0.7466  0.6323
21998SOL     OW72598   6.745   1.036   8.103  0.1631 -0.5001  0.1218
21998SOL    HW172599   6.708   0.972   8.043 -1.5394 -0.9386  1.5489
21998SOL    HW272600   6.724   1.121   8.064 -1.1665 -0.7724  0.2208
21999SOL     OW72601   7.457   1.598   7.453  0.5733  0.3962 -0.0548
21999SOL    HW172602   7.459   1.548   7.371  0.7133  3.1275 -1.8674
21999SOL    HW272603   7.547   1.598   7.484  0.6214 -0.2046 -0.1884
22000SOL     OW72604   0.449  12.296  11.431  0.2093 -0.2451  0.1104
22000SOL    HW172605   0.497  12.293  11.514 -1.8262  0.0141  1.3676
22000SOL    HW272606   0.447  12.389  11.408  0.4731 -0.2778 -0.0447
22001SOL     OW72607   2.002   6.578   2.721  0.3498  0.5323  0.2301
22001SOL    HW172608   2.044   6.493   2.736 -0.2625  0.2308  0.2629
22001SOL    HW272609   1.951   6.594   2.801  0.3501  0.8637  0.1658
22002SOL     OW72610   9.110   8.454   0.483  0.1692  0.2227 -0.0432
22002SOL    HW172611   9.193   8.490   0.453  0.3358  0.2981  0.4918
22002SOL    HW272612   9.129   8.362   0.501  1.2364  1.0489  3.9121
22003SOL     OW72613   3.020   3.787   8.713  0.1185  0.3032  0.4047
22003SOL    HW172614   3.112   3.767   8.695 -0.3869  1.1900 -4.2990
22003SOL    HW272615   2.971   3.730   8.654 -2.2564  1.7052  0.8986
22004SOL     OW72616   9.303   1.888  10.963 -0.0669 -0.2547 -0.3754
22004SOL    HW172617   9.270   1.848  10.883  0.8201 -0.0472 -0.8657
22004SOL    HW272618   9.398   1.882  10.954  0.0447 -0.9350  1.0293
22005SOL     OW72619  10.006   0.693   7.191  0.3384  0.2023  0.1412
22005SOL    HW172620  10.016   0.786   7.211 -1.2301  0.0100  2.1487
22005SOL    HW272621   9.913   0.682   7.173  0.6498 -0.8550 -0.9579
22006SOL     OW72622   3.046  10.772   9.716 -0.0721 -0.0265 -0.0565
22006SOL    HW172623   2.973  10.819   9.678  1.7627  1.9940 -1.3228
22006SOL    HW272624   3.088  10.728   9.642  0.8133  0.0323  0.3962
22007SOL     OW72625   7.123   5.091   1.187 -0.4349 -0.8449  0.1300
22007SOL    HW172626   7.211   5.100   1.152  0.4632 -0.4896  2.3206
22007SOL    HW272627   7.086   5.016   1.140  1.0256 -0.9957 -0.8242
22008SOL     OW72628   1.524   8.328   2.799  0.5437 -0.2385  0.0033
22008SOL    HW172629   1.431   8.340   2.816  0.5481  2.4687 -1.3197
22008SOL    HW272630   1.529   8.297   2.709  0.9090 -2.9446  0.8767
22009SOL     OW72631   6.442   3.954   6.973 -0.2556  0.2348 -0.2567
22009SOL    HW172632   6.425   3.960   6.879 -0.7859 -0.0892 -0.1865
22009SOL    HW272633   6.525   3.907   6.979  0.3246  1.1895 -0.5862
22010SOL     OW72634  10.856  12.210   4.223  0.0315 -0.5719 -0.4471
22010SOL    HW172635  10.880  12.302   4.207  1.5763 -0.9811 -0.6469
22010SOL    HW272636  10.852  12.203   4.318 -1.4648  0.0118 -0.4418
22011SOL     OW72637  11.764   0.708  12.675 -0.2320 -0.1828  0.2530
22011SOL    HW172638  11.786   0.704  12.582  1.1114 -1.3101  0.5984
22011SOL    HW272639  11.709   0.786  12.683  0.1956  0.3182 -1.3684
22012SOL     OW72640  10.884  11.490   5.370  0.2933 -0.1882 -0.4172
22012SOL    HW172641  10.887  11.474   5.275 -0.4374 -0.3404 -0.4205
22012SOL    HW272642  10.972  11.523   5.391  1.3133 -2.5128 -0.7211
22013SOL     OW72643   3.987  11.450  12.245  0.1332 -0.1616  0.4409
22013SOL    HW172644   3.898  11.473  12.217  0.7108  0.8305 -0.6526
22013SOL    HW272645   3.974  11.385  12.315 -1.4541  0.3523  0.6655
22014SOL     OW72646   0.630   9.220   3.637  0.1977  0.1675 -0.5000
22014SOL    HW172647   0.669   9.190   3.720  0.8136  0.2039 -0.7754
22014SOL    HW272648   0.550   9.266   3.664  1.2391  1.6516  0.2088
22015SOL     OW72649   7.677   5.476   4.684 -0.1701  0.0968  0.5374
22015SOL    HW172650   7.620   5.440   4.752 -2.3509  2.2619  0.0279
22015SOL    HW272651   7.668   5.417   4.610 -2.6370  0.8427  0.1489
22016SOL     OW72652  11.554   0.508   4.755  0.5676  0.6041 -0.6540
22016SOL    HW172653  11.517   0.576   4.812  0.2694  1.0392 -1.3568
22016SOL    HW272654  11.638   0.545   4.726 -0.0339  1.1119 -1.8146
22017SOL     OW72655   9.531   7.982  11.408  0.2236  0.3893 -0.3783
22017SOL    HW172656   9.455   8.026  11.369 -0.3564 -0.5007 -0.3132
22017SOL    HW272657   9.607   8.031  11.376 -0.4349  2.4659  1.0528
22018SOL     OW72658   0.922   8.444   9.536  0.3018  0.3142 -0.1933
22018SOL    HW172659   1.010   8.465   9.568  0.7516  0.2187 -1.3109
22018SOL    HW272660   0.938   8.387   9.461 -0.7973 -3.0368  1.8960
22019SOL     OW72661   7.762   4.580   9.833  0.7509  0.2236 -0.4393
22019SOL    HW172662   7.809   4.543   9.758 -0.8441 -0.6341 -1.0575
22019SOL    HW272663   7.680   4.614   9.796 -0.4458 -0.9513  1.0163
22020SOL     OW72664   9.460   6.755   7.352 -0.2335  0.0233  0.0329
22020SOL    HW172665   9.393   6.715   7.298 -0.5311  1.7227 -0.9379
22020SOL    HW272666   9.511   6.810   7.292  1.0842 -0.0509  1.0131
22021SOL     OW72667   4.797   7.099   2.353 -0.2545 -0.3936 -0.2759
22021SOL    HW172668   4.732   7.073   2.288  0.0739 -2.5065  0.1727
22021SOL    HW272669   4.841   7.175   2.313 -0.3827 -1.3159 -2.3376
22022SOL     OW72670   9.261  10.522   3.300 -0.2500  0.8032 -0.0711
22022SOL    HW172671   9.236  10.556   3.386  0.0810 -1.7368  1.1265
22022SOL    HW272672   9.330  10.582   3.269 -0.2136  1.6424  1.5381
22023SOL     OW72673   9.349   1.722   4.528  0.4755  0.3155 -0.1615
22023SOL    HW172674   9.342   1.747   4.620  0.1412  0.9908 -0.3614
22023SOL    HW272675   9.334   1.804   4.480 -0.7315 -0.2656 -0.8385
22024SOL     OW72676  11.201   0.845   9.696 -0.7987 -0.3698 -0.2612
22024SOL    HW172677  11.282   0.796   9.682 -0.3675  0.0719  0.6399
22024SOL    HW272678  11.136   0.798   9.644  0.6428  1.1235 -3.7279
22025SOL     OW72679   8.820   1.312   7.035  0.2832  0.8415 -0.0950
22025SOL    HW172680   8.870   1.303   7.116 -1.6027 -1.1357  0.9587
22025SOL    HW272681   8.775   1.228   7.025  0.0649  1.1990 -2.9563
22026SOL     OW72682   2.048   7.060   8.225 -0.1330 -0.2833 -0.1220
22026SOL    HW172683   2.038   6.981   8.171  3.0814 -1.1114  0.2811
22026SOL    HW272684   1.996   7.043   8.303 -0.8009 -1.2588 -0.7525
22027SOL     OW72685   6.770   8.033   5.744  0.0330 -0.0452 -0.3237
22027SOL    HW172686   6.675   8.043   5.746  0.0715  0.5533 -1.1012
22027SOL    HW272687   6.801   8.106   5.690  1.2215  1.7190  2.5289
22028SOL     OW72688   6.340  10.917   0.188 -0.5262 -0.1232 -0.0781
22028SOL    HW172689   6.415  10.937   0.244 -0.5821 -1.0122  0.3354
22028SOL    HW272690   6.355  10.968   0.109  1.2667 -1.3305 -0.5809
22029SOL     OW72691   4.594   0.699   8.602 -0.2323  0.1020  0.5992
22029SOL    HW172692   4.681   0.685   8.565 -0.9144  1.0587 -1.4937
22029SOL    HW272693   4.601   0.783   8.647  0.1521 -0.2751  1.2659
22030SOL     OW72694   0.850   9.152   2.030 -0.0381 -0.3302  0.1498
22030SOL    HW172695   0.902   9.227   2.058  0.0164 -0.4363  0.3385
22030SOL    HW272696   0.789   9.137   2.103 -0.4756 -0.0766 -0.1555
22031SOL     OW72697  10.982   4.581   1.548  0.7383  0.3835 -0.3070
22031SOL    HW172698  10.937   4.587   1.633  1.2011 -0.1522 -0.0159
22031SOL    HW272699  11.012   4.670   1.531 -0.6632  0.8157 -0.6423
22032SOL     OW72700   5.217   4.026   1.802  0.0542  0.2350  0.8053
22032SOL    HW172701   5.312   4.026   1.819 -0.0025 -0.2802  1.1259
22032SOL    HW272702   5.208   4.077   1.721  0.7491 -0.8615  0.0076
22033SOL     OW72703   3.647  11.355   4.223 -0.2070  0.0554  0.1429
22033SOL    HW172704   3.722  11.390   4.271  0.4321 -1.4088  0.2841
22033SOL    HW272705   3.665  11.261   4.216 -1.7539 -0.2403 -0.3324
22034SOL     OW72706   9.671   1.359   2.954 -0.1637  0.1881  0.1141
22034SOL    HW172707   9.614   1.310   3.013 -0.8596  0.7290 -0.0917
22034SOL    HW272708   9.747   1.383   3.008 -0.5178  0.1788  0.6191
22035SOL     OW72709  12.179   3.985   4.178  0.3200 -0.3282 -0.1416
22035SOL    HW172710  12.221   4.065   4.210 -0.5675 -0.1486  0.6299
22035SOL    HW272711  12.101   4.016   4.132 -2.2297 -0.7557  3.4047
22036SOL     OW72712   1.295   9.755   1.361  0.4712 -0.0751 -0.3333
22036SOL    HW172713   1.343   9.820   1.412 -1.2185  0.4585  0.6614
22036SOL    HW272714   1.328   9.766   1.272  1.7541  0.6586  0.2007
22037SOL     OW72715   1.251   2.718  10.195 -0.3920  0.2717  0.2341
22037SOL    HW172716   1.169   2.748  10.235 -1.2321 -0.5094 -0.8280
22037SOL    HW272717   1.226   2.638  10.148  0.7227  0.6804 -1.1124
22038SOL     OW72718   2.634   5.266  12.312  0.1104  0.1487  0.1502
22038SOL    HW172719   2.721   5.289  12.281  0.1431 -0.5938 -0.3416
22038SOL    HW272720   2.574   5.313  12.254  0.1427  2.1390  1.6151
22039SOL     OW72721  11.767  12.221   2.739  0.4240 -0.1307  0.4501
22039SOL    HW172722  11.714  12.173   2.675 -0.8404  0.5976  0.9132
22039SOL    HW272723  11.823  12.278   2.686  0.9030 -1.0448 -0.0552
22040SOL     OW72724   0.094   1.068  11.560  0.2596 -0.5730 -0.6033
22040SOL    HW172725   0.127   1.152  11.590 -0.0159 -0.0030 -1.8159
22040SOL    HW272726   0.018   1.051  11.615  1.4389 -1.0032  0.9600
22041SOL     OW72727   6.912   6.354   3.132 -0.4321  0.3692 -0.0938
22041SOL    HW172728   6.974   6.420   3.163  0.4055 -0.5337  0.2192
22041SOL    HW272729   6.827   6.383   3.164 -0.0782  1.2872  0.0425
22042SOL     OW72730   7.447   9.027   0.157 -0.7204 -0.0576 -0.1972
22042SOL    HW172731   7.422   8.937   0.133  0.7044 -0.5167 -0.0261
22042SOL    HW272732   7.363   9.073   0.164 -1.5133 -1.4505  0.0267
22043SOL     OW72733   4.313   1.193  11.273  0.2364 -0.2057 -0.6062
22043SOL    HW172734   4.293   1.146  11.354 -0.3050 -1.6032 -1.5234
22043SOL    HW272735   4.347   1.277  11.303 -1.1973 -0.1525  1.0757
22044SOL     OW72736   5.169   4.073   2.909  0.2057  0.4697 -0.5331
22044SOL    HW172737   5.093   4.074   2.851  0.5494  0.6751 -0.9875
22044SOL    HW272738   5.157   3.995   2.963  0.0334  0.1036 -1.0901
22045SOL     OW72739   4.908  11.390   0.352 -0.4570  0.4088  0.1160
22045SOL    HW172740   4.951  11.411   0.269  1.9666 -1.7648  0.6822
22045SOL    HW272741   4.861  11.309   0.336 -0.3809  0.2397  0.7114
22046SOL     OW72742   4.768   9.354   4.709  0.2015 -0.3965  0.0872
22046SOL    HW172743   4.752   9.273   4.660 -0.3101  0.3142 -0.9635
22046SOL    HW272744   4.785   9.325   4.798 -0.4411 -1.6320 -0.1710
22047SOL     OW72745   3.280   4.553   5.539 -0.3385 -0.5677 -0.6627
22047SOL    HW172746   3.339   4.481   5.563 -1.0777 -0.8945  0.2553
22047SOL    HW272747   3.323   4.632   5.572 -0.7513 -0.8861  0.6994
22048SOL     OW72748   0.285   3.569   0.512  0.0500  0.3538 -0.1530
22048SOL    HW172749   0.352   3.590   0.446  1.1212 -0.8538  0.5190
22048SOL    HW272750   0.333   3.530   0.584 -1.1876  1.1003  1.1186
22049SOL     OW72751   8.873  10.792   6.169  0.4516 -0.4986  0.0208
22049SOL    HW172752   8.809  10.795   6.097 -0.2162 -2.1120  0.4914
22049SOL    HW272753   8.936  10.861   6.148 -1.7153  1.5549 -0.1642
22050SOL     OW72754   1.181   2.893   3.450  0.7389 -0.3229 -0.3066
22050SOL    HW172755   1.217   2.842   3.377  1.3047  0.0336 -0.2790
22050SOL    HW272756   1.248   2.888   3.518  0.4882 -0.1256 -0.0446
22051SOL     OW72757   5.324   2.696   3.015 -0.6234  0.0980  0.6277
22051SOL    HW172758   5.327   2.604   2.987 -1.3646  1.0355 -3.0481
22051SOL    HW272759   5.409   2.712   3.055 -0.2498 -2.0077  0.7699
22052SOL     OW72760   1.112   3.272   2.663 -0.1799 -0.3442  0.4354
22052SOL    HW172761   1.106   3.188   2.617  0.9215  0.4127 -1.1405
22052SOL    HW272762   1.089   3.337   2.598  0.5451  0.7126  1.2034
22053SOL     OW72763   0.567  11.904   4.823 -0.0952 -0.1089  0.0062
22053SOL    HW172764   0.602  11.993   4.818  0.4887 -0.2556  1.2473
22053SOL    HW272765   0.644  11.848   4.819 -0.3664 -0.5132  0.3864
22054SOL     OW72766   4.197  10.261  11.664 -0.3046 -0.1138 -0.1072
22054SOL    HW172767   4.213  10.283  11.756 -1.0227 -0.4552  0.1099
22054SOL    HW272768   4.178  10.167  11.665 -0.2963 -0.1209 -0.6039
22055SOL     OW72769   9.674   0.826   3.674 -0.1814 -0.8539 -0.9213
22055SOL    HW172770   9.660   0.916   3.643 -0.0462  0.5920  2.6517
22055SOL    HW272771   9.602   0.811   3.736  0.7539 -2.5472 -0.1730
22056SOL     OW72772   1.514  11.540   8.671 -0.1403  0.2412 -0.3921
22056SOL    HW172773   1.458  11.589   8.611 -0.1422  0.3697 -0.2847
22056SOL    HW272774   1.550  11.606   8.731 -0.1036  0.1205 -0.2801
22057SOL     OW72775   5.154   7.129  10.221  0.1486  0.3955  0.6029
22057SOL    HW172776   5.220   7.100  10.158  1.2916  0.5795  1.6619
22057SOL    HW272777   5.177   7.083  10.302 -1.1893  0.2697  0.9315
22058SOL     OW72778   3.812   2.822   1.835  0.1949  0.5387  0.1940
22058SOL    HW172779   3.860   2.890   1.789  0.4577  1.0445  1.1814
22058SOL    HW272780   3.852   2.740   1.806  0.0930  0.8201 -0.7573
22059SOL     OW72781   6.942   4.262   4.712 -0.6161  0.0082  0.2257
22059SOL    HW172782   7.010   4.327   4.731  2.3316 -3.2311  1.9664
22059SOL    HW272783   6.946   4.250   4.617  0.2045  0.8948  0.1300
22060SOL     OW72784  11.596  10.401   4.274 -0.1707  0.2315 -0.3247
22060SOL    HW172785  11.546  10.359   4.345  0.2476 -0.8405 -0.6538
22060SOL    HW272786  11.531  10.416   4.206 -0.4205  0.5546 -0.0191
22061SOL     OW72787  10.914   8.419   4.027 -0.1831 -0.4806  0.3967
22061SOL    HW172788  11.005   8.397   4.008  0.0878  0.6437  0.2949
22061SOL    HW272789  10.864   8.344   3.996  0.7359 -1.3465  0.9233
22062SOL     OW72790   0.587   0.725   1.858 -0.3734 -0.3348  0.7142
22062SOL    HW172791   0.602   0.728   1.953 -0.6238 -0.3012  0.7537
22062SOL    HW272792   0.611   0.635   1.833  2.9540  0.5371  0.2347
22063SOL     OW72793  10.770  10.427   9.611  0.5398  0.2251 -0.3888
22063SOL    HW172794  10.858  10.465   9.610  0.4734  0.3838 -1.5176
22063SOL    HW272795  10.748  10.420   9.704  1.3514  1.1003 -0.1111
22064SOL     OW72796   2.102   9.921   5.732 -0.3059 -0.4631  0.2962
22064SOL    HW172797   2.156   9.999   5.720 -1.8518  0.3337 -2.1876
22064SOL    HW272798   2.071   9.927   5.823  3.2824 -0.7564  1.7133
22065SOL     OW72799   3.078   5.310   1.303  0.4645 -0.2602  0.3158
22065SOL    HW172800   3.006   5.254   1.272  1.7453 -1.1840 -1.1115
22065SOL    HW272801   3.065   5.392   1.256  1.2741 -1.0061 -1.3197
22066SOL     OW72802   4.093   6.975   3.130  0.3687 -0.0735  0.0745
22066SOL    HW172803   4.035   6.899   3.130  0.1592  0.0223  2.4398
22066SOL    HW272804   4.040   7.046   3.095  0.5084 -0.9040 -1.9874
22067SOL     OW72805   6.996  11.008   7.243  0.5111  0.2746  0.0535
22067SOL    HW172806   6.922  11.001   7.182 -0.6319 -0.8794  1.4757
22067SOL    HW272807   7.025  11.099   7.235 -1.9973  1.2098  0.4449
22068SOL     OW72808  11.080  11.464   4.330  0.1196 -0.7560 -0.3144
22068SOL    HW172809  11.032  11.532   4.379 -0.7356 -1.0548 -0.7086
22068SOL    HW272810  11.017  11.434   4.264  1.7630  0.8054 -2.7290
22069SOL     OW72811  11.725   1.697  11.834 -0.2106 -0.3512 -0.1708
22069SOL    HW172812  11.791   1.673  11.898 -0.4239  1.4786  0.8016
22069SOL    HW272813  11.770   1.690  11.749  1.1205  0.4727  0.4367
22070SOL     OW72814   5.016   7.562   8.381 -0.4805  0.2228  0.1881
22070SOL    HW172815   5.111   7.561   8.371 -0.4821  1.1733  0.0211
22070SOL    HW272816   4.995   7.648   8.416 -1.4072  0.5884 -1.1679
22071SOL     OW72817   0.209  11.107   5.119  0.3449 -0.6532  0.1308
22071SOL    HW172818   0.236  11.141   5.204  1.1875  0.1409 -0.4397
22071SOL    HW272819   0.270  11.035   5.101  0.7099 -0.2738 -0.1728
22072SOL     OW72820  11.824   6.681  12.424 -0.1574  0.3556  0.1004
22072SOL    HW172821  11.729   6.669  12.422  0.0624 -1.6197 -0.8116
22072SOL    HW272822  11.859   6.603  12.380  1.8277  2.0371 -1.4697
22073SOL     OW72823   8.308  12.463   7.832  0.0722  0.2200  0.3802
22073SOL    HW172824   8.329  12.411   7.909  0.6239 -0.5618 -0.2813
22073SOL    HW272825   8.307  12.400   7.760  1.8839  1.2567 -0.6341
22074SOL     OW72826   0.885   6.135   5.654 -0.1940  0.3096 -0.6691
22074SOL    HW172827   0.949   6.101   5.717 -1.0645 -0.2137 -0.0422
22074SOL    HW272828   0.869   6.061   5.595 -1.0098  0.0853 -0.1771
22075SOL     OW72829   9.110   0.733   2.034  0.1740 -0.0031 -0.4731
22075SOL    HW172830   9.097   0.790   1.958 -0.8376 -1.0653 -1.1481
22075SOL    HW272831   9.169   0.781   2.092 -0.6168  1.6756 -1.0277
22076SOL     OW72832  10.429  10.038   6.520  0.3441 -0.8962  0.0663
22076SOL    HW172833  10.420   9.950   6.483  0.3950 -0.3935 -1.2014
22076SOL    HW272834  10.512  10.035   6.568 -0.7589 -2.1842  2.0093
22077SOL     OW72835  11.664  11.083   8.755 -0.4461 -0.3605 -0.2713
22077SOL    HW172836  11.720  11.160   8.750 -0.4493 -0.3481 -0.1407
22077SOL    HW272837  11.662  11.061   8.849 -0.8626 -0.2075 -0.2442
22078SOL     OW72838   4.577   6.504   5.596  0.3213  0.6804  0.3598
22078SOL    HW172839   4.521   6.485   5.521  0.6346 -0.8102  0.4587
22078SOL    HW272840   4.534   6.576   5.642 -2.4658 -1.4434  1.3718
22079SOL     OW72841   1.388  10.057   0.414  0.3480 -0.5904  0.4962
22079SOL    HW172842   1.301  10.028   0.442 -0.0177  0.4294  0.4655
22079SOL    HW272843   1.395  10.147   0.446  0.3025  0.2908 -1.8017
22080SOL     OW72844  10.787   5.478  10.931 -0.1053  0.1462  0.4128
22080SOL    HW172845  10.803   5.433  10.848 -1.2699 -0.7837  0.6583
22080SOL    HW272846  10.838   5.429  10.995  1.2315  1.1981  0.1823
22081SOL     OW72847  10.491   7.640   3.096  0.0512 -0.0288  0.0998
22081SOL    HW172848  10.458   7.708   3.037  0.6712 -1.6326 -2.2261
22081SOL    HW272849  10.421   7.575   3.100  1.2047 -1.4384 -1.4884
22082SOL     OW72850   6.236   9.413   9.132  0.3503  0.0201  0.5270
22082SOL    HW172851   6.302   9.416   9.063 -1.1516  1.7082 -0.9405
22082SOL    HW272852   6.244   9.497   9.177 -1.7491  0.9758 -0.7120
22083SOL     OW72853   8.385   9.846   1.947  0.5504 -0.3552  0.7978
22083SOL    HW172854   8.439   9.921   1.922 -0.5261 -0.3344 -1.7526
22083SOL    HW272855   8.413   9.825   2.036  2.0813  1.9797  0.9515
22084SOL     OW72856   8.820   0.754  10.567  0.3911  0.0883  0.6893
22084SOL    HW172857   8.812   0.660  10.584  0.7000 -0.0604  0.0531
22084SOL    HW272858   8.730   0.785  10.556  0.3343 -0.8009 -2.5153
22085SOL     OW72859   4.458   2.200  12.300  0.1961  0.5191 -0.0103
22085SOL    HW172860   4.387   2.250  12.338 -0.4286  0.7171 -1.3637
22085SOL    HW272861   4.508   2.263  12.249  0.4416  0.1049 -0.2956
22086SOL     OW72862   7.876   5.475  12.782  0.1731  0.1889 -0.7675
22086SOL    HW172863   7.838   5.555  12.748 -2.2226  0.5330  2.3053
22086SOL    HW272864   7.888   5.491  12.876  1.6950 -2.2976 -0.4292
22087SOL     OW72865   4.995   2.635  11.304  0.6520  0.2661 -0.3175
22087SOL    HW172866   4.975   2.581  11.228 -0.8220  0.1839  0.1080
22087SOL    HW272867   5.044   2.577  11.363 -1.1191 -0.7184  0.2396
22088SOL     OW72868   3.767   7.327  11.337  0.2138  0.2079 -0.3486
22088SOL    HW172869   3.771   7.406  11.391  1.0419  0.5104 -0.8371
22088SOL    HW272870   3.689   7.281  11.369  0.1787  0.8147  0.4903
22089SOL     OW72871   7.189   1.327  10.836 -0.0325  0.4131  0.6944
22089SOL    HW172872   7.096   1.302  10.841 -0.7969  2.6932 -0.5086
22089SOL    HW272873   7.201   1.358  10.746  1.7331  0.7830  1.0185
22090SOL     OW72874   0.175   5.956   6.860 -0.6396  0.7698  0.2361
22090SOL    HW172875   0.143   5.871   6.830  0.4913  1.0408 -1.9363
22090SOL    HW272876   0.102   5.992   6.911 -0.8374 -1.7931  1.9360
22091SOL     OW72877   3.770   9.476   7.709  0.2317 -0.3439  0.3797
22091SOL    HW172878   3.732   9.526   7.637  1.5612 -0.3760 -0.3737
22091SOL    HW272879   3.843   9.530   7.739  1.5802 -1.7239 -0.3188
22092SOL     OW72880  12.778   3.972   6.819 -0.2200  0.0768  0.4684
22092SOL    HW172881  12.803   3.929   6.738  2.2102 -0.8582  1.6239
22092SOL    HW272882  12.685   3.951   6.830 -0.1749 -1.1476 -1.2247
22093SOL     OW72883   8.086   7.550   2.071 -0.4298  0.2693  0.3377
22093SOL    HW172884   8.168   7.503   2.059 -1.1454 -0.6221 -1.3193
22093SOL    HW272885   8.034   7.493   2.128 -1.0486 -0.6917 -1.1403
22094SOL     OW72886   8.934   8.877   7.542 -0.4420  0.0017  0.0194
22094SOL    HW172887   8.960   8.785   7.540  3.1592  0.8540  0.3650
22094SOL    HW272888   8.919   8.895   7.635 -0.2694 -0.0504  0.0591
22095SOL     OW72889   1.901   8.377   9.698  0.1587 -0.5031  0.9204
22095SOL    HW172890   1.992   8.356   9.674  0.9675  2.1032  1.3674
22095SOL    HW272891   1.887   8.333   9.782  2.0180  1.1860  2.2169
22096SOL     OW72892   3.412   1.743  11.950  0.8658  0.6716  0.4385
22096SOL    HW172893   3.317   1.731  11.950  1.0365 -1.0542 -0.8788
22096SOL    HW272894   3.441   1.698  12.030  0.6479  0.3348  0.3326
22097SOL     OW72895   5.289  10.377  10.759 -0.1847 -0.3411  0.3696
22097SOL    HW172896   5.382  10.356  10.760  0.3913  1.9095  0.6026
22097SOL    HW272897   5.266  10.383  10.667  0.4737  1.1131  0.2650
22098SOL     OW72898   9.966  11.351  10.112 -0.3569  1.1797 -0.0720
22098SOL    HW172899   9.886  11.398  10.088 -0.4011  0.3431 -1.7143
22098SOL    HW272900   9.936  11.278  10.167 -0.6437  1.2877 -0.0851
22099SOL     OW72901   4.633  11.166   1.877  0.3798 -0.1195 -0.0321
22099SOL    HW172902   4.700  11.210   1.929  1.1012 -0.5285 -0.5885
22099SOL    HW272903   4.678  11.144   1.795 -0.2848 -0.8956 -0.1956
22100SOL     OW72904   2.269  11.629   0.449 -0.3048 -0.3878 -0.1517
22100SOL    HW172905   2.269  11.624   0.545 -0.4986 -1.3418 -0.1927
22100SOL    HW272906   2.310  11.548   0.421 -0.6785 -0.3254 -0.8909
22101SOL     OW72907   3.329  11.953  11.020  0.0910  0.2050  0.1927
22101SOL    HW172908   3.346  12.047  11.033 -0.6586  0.3451  0.1950
22101SOL    HW272909   3.274  11.928  11.094 -1.9155  0.3784 -1.1592
22102SOL     OW72910   8.567   3.122   8.219  0.0928  0.1196 -0.5988
22102SOL    HW172911   8.618   3.198   8.246 -0.0542 -0.1925  0.6276
22102SOL    HW272912   8.614   3.047   8.256 -1.1755 -0.1756  0.5163
22103SOL     OW72913   5.359   9.646  12.691 -0.2886  0.4630  0.0553
22103SOL    HW172914   5.402   9.624  12.773 -1.2555 -1.0202  0.2000
22103SOL    HW272915   5.330   9.562  12.655  0.0404  1.0906 -1.7756
22104SOL     OW72916  10.949   8.609   9.231  0.2135  0.4326  0.1030
22104SOL    HW172917  11.019   8.565   9.182 -0.8207 -1.5192  0.2933
22104SOL    HW272918  10.925   8.547   9.300 -0.8311  1.6215  0.8592
22105SOL     OW72919   6.723  10.625   9.196 -0.0877  0.1041 -0.3520
22105SOL    HW172920   6.782  10.693   9.162 -0.3766  0.7148  0.3431
22105SOL    HW272921   6.778  10.574   9.256  0.1110 -0.2355 -0.8186
22106SOL     OW72922   4.590   3.433   6.037 -0.1392  0.1483  0.3707
22106SOL    HW172923   4.580   3.463   5.947 -0.7552 -0.1864  0.3217
22106SOL    HW272924   4.684   3.439   6.055  0.0850 -0.5214 -0.5526
22107SOL     OW72925   2.824   0.586  10.854 -0.5114 -0.6983  0.4549
22107SOL    HW172926   2.761   0.538  10.909 -0.2153 -0.9617  0.5641
22107SOL    HW272927   2.804   0.557  10.765  0.1032 -1.5459  0.5763
22108SOL     OW72928   6.701   4.571   1.284  0.2325  0.0991 -0.3292
22108SOL    HW172929   6.687   4.492   1.335  0.8208  0.1973 -0.0036
22108SOL    HW272930   6.613   4.604   1.265 -0.0126 -0.6134 -0.4435
22109SOL     OW72931  10.530   1.832  10.519  0.0103 -0.0243 -0.9034
22109SOL    HW172932  10.482   1.756  10.487 -1.0186  0.0627  0.3692
22109SOL    HW272933  10.493   1.906  10.469 -1.1559  0.0286 -0.0133
22110SOL     OW72934   4.513   1.115   9.614 -0.2728 -0.2053 -0.4413
22110SOL    HW172935   4.541   1.203   9.639  0.9179 -0.7397  0.2237
22110SOL    HW272936   4.422   1.109   9.644 -0.2092  0.6240 -0.0366
22111SOL     OW72937   2.437   2.058  11.167  0.3913 -0.0857  0.5728
22111SOL    HW172938   2.456   2.067  11.260  1.0641  0.9467  0.3636
22111SOL    HW272939   2.519   2.027  11.128 -0.6317 -3.1635  0.6422
22112SOL     OW72940   9.709  11.903   8.333 -0.0325 -0.0368 -0.5078
22112SOL    HW172941   9.722  11.948   8.416 -0.6658  0.2473 -0.5582
22112SOL    HW272942   9.745  11.962   8.267  1.3271 -0.6723 -0.3648
22113SOL     OW72943   1.793   7.240   0.488  0.2170  0.0810 -0.7182
22113SOL    HW172944   1.742   7.163   0.514  0.7807  0.5013  1.9325
22113SOL    HW272945   1.729   7.311   0.483  0.1248  0.0307 -0.2533
22114SOL     OW72946   7.044   2.720   6.661  0.5094 -0.0005  0.1618
22114SOL    HW172947   7.061   2.662   6.734  0.5328 -0.9338 -0.5630
22114SOL    HW272948   6.951   2.708   6.642  0.2073  1.1509  0.7869
22115SOL     OW72949   6.812   8.429   1.635 -0.5832  0.1028 -0.4242
22115SOL    HW172950   6.827   8.504   1.577 -0.4218 -0.6179 -1.3365
22115SOL    HW272951   6.721   8.406   1.621 -0.6623  0.2011 -0.0597
22116SOL     OW72952   4.719  11.783   7.384  0.0326 -0.0537 -0.5016
22116SOL    HW172953   4.800  11.742   7.412  0.1848  1.2286  1.0687
22116SOL    HW272954   4.658  11.710   7.372  1.4991 -1.0826 -2.2086
22117SOL     OW72955   5.087   3.477   5.170  0.6296 -0.1676  0.2328
22117SOL    HW172956   5.073   3.549   5.109 -0.8491 -1.0367 -0.5088
22117SOL    HW272957   5.181   3.462   5.168  0.6492 -0.0395 -1.7009
22118SOL     OW72958  10.339   4.849   0.840  0.6169  0.3902 -0.3581
22118SOL    HW172959  10.418   4.803   0.812  1.0952  1.1651 -0.3281
22118SOL    HW272960  10.365   4.941   0.843 -0.2274  0.6322 -0.1248
22119SOL     OW72961   1.083  11.788   2.319 -0.3582  0.5796  0.0463
22119SOL    HW172962   1.141  11.769   2.245  0.9896 -2.1469  1.6533
22119SOL    HW272963   1.126  11.860   2.365  0.7606 -0.1121  0.1258
22120SOL     OW72964   4.337   2.754   7.020  0.3453  0.2222  0.2378
22120SOL    HW172965   4.319   2.738   6.928 -2.7767  3.1690  0.1227
22120SOL    HW272966   4.316   2.671   7.063 -2.3514 -0.0501 -1.3543
22121SOL     OW72967   6.300   8.070  12.063 -0.0618  0.4536  0.4986
22121SOL    HW172968   6.277   7.984  12.098  1.1947 -0.0472  0.1403
22121SOL    HW272969   6.280   8.131  12.135  2.4148 -0.5468  2.1856
22122SOL     OW72970   1.270   2.550  11.636  0.0177 -0.2167  0.0344
22122SOL    HW172971   1.348   2.580  11.684  0.7155 -1.8070 -0.0427
22122SOL    HW272972   1.203   2.541  11.704  0.4255 -0.5616  0.3991
22123SOL     OW72973   5.309   2.468  12.027 -0.0450 -0.0275 -0.2785
22123SOL    HW172974   5.227   2.443  12.071  0.2241 -1.4958 -0.5688
22123SOL    HW272975   5.307   2.563  12.027 -0.4709  0.0459  2.1415
22124SOL     OW72976   1.394   7.511   4.843 -0.4431  0.0941  0.0493
22124SOL    HW172977   1.365   7.448   4.777 -0.0421  0.4598 -0.4868
22124SOL    HW272978   1.483   7.484   4.864 -1.3201 -1.3835  2.1305
22125SOL     OW72979   1.551   8.736   0.344 -0.0642  0.8384 -0.2185
22125SOL    HW172980   1.618   8.668   0.341 -0.2631  0.6296 -0.0358
22125SOL    HW272981   1.578   8.793   0.416  0.0264  0.8728 -0.2791
22126SOL     OW72982   0.084   5.987   9.186 -0.2402  0.1534  0.3222
22126SOL    HW172983   0.109   5.910   9.135 -0.3170  1.8528 -2.5231
22126SOL    HW272984   0.166   6.034   9.201 -0.4568  0.6776 -0.0828
22127SOL     OW72985   6.379   4.805  11.010 -0.1343 -0.0268 -0.0758
22127SOL    HW172986   6.352   4.715  11.029 -0.5887  0.1037 -0.0855
22127SOL    HW272987   6.299   4.857  11.023  0.3467  0.5006  0.8352
22128SOL     OW72988   9.260   2.748  12.213 -0.2205  0.0282  0.2062
22128SOL    HW172989   9.300   2.687  12.152 -0.7650  0.8047 -0.9657
22128SOL    HW272990   9.302   2.832  12.195 -1.0386  0.4609  0.2564
22129SOL     OW72991  12.760   5.304   3.208 -0.5836 -0.3476  0.1052
22129SOL    HW172992  12.742   5.376   3.147 -0.4391  0.0865  0.5725
22129SOL    HW272993  12.677   5.257   3.213  0.2926 -2.6443 -3.2828
22130SOL     OW72994  11.136   7.888   5.532 -0.4885  0.4983  0.0063
22130SOL    HW172995  11.226   7.916   5.512  0.6973 -1.2838  2.3510
22130SOL    HW272996  11.106   7.952   5.597 -0.4390  0.4047  0.1225
22131SOL     OW72997   2.221   2.055   3.316 -0.4660 -0.0615 -0.3828
22131SOL    HW172998   2.166   2.009   3.252  0.8309  0.7857 -2.1918
22131SOL    HW272999   2.183   2.143   3.320  0.3378  0.3276 -1.1354
22132SOL     OW73000   6.108   7.607   3.056 -0.1302 -0.3838 -0.7555
22132SOL    HW173001   6.017   7.602   3.030 -0.3917  1.8877 -0.4753
22132SOL    HW273002   6.115   7.550   3.133 -2.0764  1.6263  1.0477
22133SOL     OW73003   3.808   5.768   7.871  0.5042 -0.5209  0.3026
22133SOL    HW173004   3.846   5.685   7.842  2.1742 -0.4658  2.1296
22133SOL    HW273005   3.872   5.834   7.844  0.2558 -0.0718  0.8035
22134SOL     OW73006   9.760  10.027  11.300 -0.0310  0.1632  0.5210
22134SOL    HW173007   9.799   9.942  11.277 -1.1873 -0.3707  0.4721
22134SOL    HW273008   9.734  10.016  11.391  1.4590  1.1146  1.1049
22135SOL     OW73009   3.362   9.049  12.167  0.4323  0.0525  0.0185
22135SOL    HW173010   3.329   8.967  12.203 -1.1957  0.6517 -0.0094
22135SOL    HW273011   3.296   9.077  12.104  1.3939  0.9462 -0.6487
22136SOL     OW73012   3.460   6.282  11.716 -0.2099  0.0581  0.0451
22136SOL    HW173013   3.505   6.218  11.771 -1.1991  0.0961  0.9258
22136SOL    HW273014   3.418   6.230  11.647  1.1794  0.0286 -0.8171
22137SOL     OW73015   3.103   7.917   2.814  0.3905  0.0076  0.6201
22137SOL    HW173016   3.155   7.839   2.832  1.3065  0.7115  1.0989
22137SOL    HW273017   3.135   7.983   2.876 -0.7220  0.6186  0.5910
22138SOL     OW73018   0.822   8.510   4.630 -0.3005 -0.0099 -0.1011
22138SOL    HW173019   0.774   8.572   4.575 -0.4826 -1.6185 -1.8436
22138SOL    HW273020   0.761   8.437   4.642  0.4751 -0.5598  0.6022
22139SOL     OW73021  12.499   6.873  10.371 -1.3056  0.5174 -0.0614
22139SOL    HW173022  12.503   6.835  10.284  0.1682  0.3018  0.0657
22139SOL    HW273023  12.417   6.842  10.408 -0.4191 -2.1607 -0.1481
22140SOL     OW73024   5.331   3.543   2.627 -0.2341  0.0689  0.3671
22140SOL    HW173025   5.413   3.554   2.580  0.8370  0.3536  2.1914
22140SOL    HW273026   5.285   3.626   2.616  0.4586  0.4969  0.6398
22141SOL     OW73027  11.625   0.417  11.662 -0.0464  0.7348  0.0072
22141SOL    HW173028  11.717   0.425  11.689  0.1048 -0.5668 -0.0286
22141SOL    HW273029  11.594   0.340  11.710 -1.4105  1.7114  0.7629
22142SOL     OW73030   6.791  12.749  10.318  0.4111 -0.2366  0.0941
22142SOL    HW173031   6.766  12.657  10.327  1.1517 -0.3563  1.0257
22142SOL    HW273032   6.885  12.750  10.332  0.6734  0.4637 -1.5048
22143SOL     OW73033   2.408   8.559   9.892 -0.1727  0.3469  0.6610
22143SOL    HW173034   2.367   8.544   9.977 -0.1969 -1.3373  0.3900
22143SOL    HW273035   2.467   8.485   9.880 -0.7443  0.1254 -1.1220
22144SOL     OW73036   6.432   6.442   6.509  0.3694 -0.4826 -0.3430
22144SOL    HW173037   6.405   6.367   6.562  0.0287  0.0510  0.2525
22144SOL    HW273038   6.492   6.490   6.565 -1.0718  0.8487  0.1401
22145SOL     OW73039   6.804   3.965   0.443  0.0136  0.1989 -0.0791
22145SOL    HW173040   6.755   4.023   0.384 -0.7218  0.8799  1.1590
22145SOL    HW273041   6.863   4.024   0.490  2.0536 -0.6011 -1.5086
22146SOL     OW73042   8.706   8.265   0.531 -0.5188 -0.2315 -0.0369
22146SOL    HW173043   8.655   8.346   0.541  1.3398  1.1571 -1.1235
22146SOL    HW273044   8.768   8.268   0.604  1.0510  0.5335 -1.3628
22147SOL     OW73045   0.515   9.344  12.600  0.1551 -0.2310 -0.3296
22147SOL    HW173046   0.490   9.270  12.656  1.6285 -0.2374  0.3931
22147SOL    HW273047   0.523   9.306  12.513  1.3685 -1.0949  0.1151
22148SOL     OW73048  12.568   1.207  10.545  0.0780 -0.0640  0.4800
22148SOL    HW173049  12.529   1.196  10.632  0.1895 -1.6010  0.3677
22148SOL    HW273050  12.656   1.240  10.562  0.2704 -0.8258  0.9873
22149SOL     OW73051  12.736   3.583   8.953  0.6013  0.3453 -0.2842
22149SOL    HW173052  12.822   3.551   8.926  0.5056  0.9177 -1.2968
22149SOL    HW273053  12.748   3.677   8.964  0.5658  0.1810  1.4568
22150SOL     OW73054   3.498   3.443  10.373 -0.3356 -0.2691 -0.4237
22150SOL    HW173055   3.494   3.389  10.295 -1.1646  1.6252 -1.7741
22150SOL    HW273056   3.591   3.464  10.382 -0.2723 -0.2168 -1.1242
22151SOL     OW73057   7.148   9.286   7.378 -0.2996  0.4096  0.2761
22151SOL    HW173058   7.093   9.299   7.455  2.3481 -0.1319  2.4004
22151SOL    HW273059   7.169   9.374   7.348 -0.6676  0.6441  0.6942
22152SOL     OW73060   2.968   0.724  10.595 -0.0737 -0.5100  0.1939
22152SOL    HW173061   3.031   0.705  10.664 -0.6749 -0.6272  0.7140
22152SOL    HW273062   2.953   0.640  10.552 -0.7206 -0.7105  0.7939
22153SOL     OW73063   3.777  11.142   7.000  0.2904 -0.1615 -0.1456
22153SOL    HW173064   3.682  11.133   6.998  0.3935 -1.2828 -1.4852
22153SOL    HW273065   3.796  11.215   6.941  0.2951 -0.1728 -0.1577
22154SOL     OW73066  10.900   3.596   1.153  0.1060  0.6610  0.2548
22154SOL    HW173067  10.947   3.513   1.159 -1.0718 -0.0007  0.5011
22154SOL    HW273068  10.839   3.595   1.226 -0.2344  1.5484 -0.0051
22155SOL     OW73069  10.628  11.730   2.994  0.2615  0.1543 -0.7652
22155SOL    HW173070  10.573  11.787   2.940 -0.5039  0.6408  0.4683
22155SOL    HW273071  10.681  11.680   2.932 -0.3268  0.9492 -1.9287
22156SOL     OW73072   9.743   2.680   4.178  0.4812  0.1629  0.1374
22156SOL    HW173073   9.779   2.652   4.262 -0.3797  0.7181  0.7081
22156SOL    HW273074   9.651   2.696   4.195  0.3326  0.4894 -0.8702
22157SOL     OW73075   9.866   5.085  11.976 -0.0622  0.2583  0.2076
22157SOL    HW173076   9.945   5.059  12.023 -0.5410 -0.0148  0.8798
22157SOL    HW273077   9.849   5.012  11.916 -1.3725 -1.0548  2.0554
22158SOL     OW73078   1.751   2.388   6.370 -0.3435  0.7632 -0.5759
22158SOL    HW173079   1.769   2.294   6.371 -1.6001  0.5057 -1.0902
22158SOL    HW273080   1.838   2.429   6.370  0.2147 -0.3915 -0.6199
22159SOL     OW73081   7.006   6.943   0.933 -0.3861  0.4493 -0.1434
22159SOL    HW173082   6.956   6.886   0.874 -2.0234  1.1825  0.4753
22159SOL    HW273083   7.092   6.902   0.938 -0.5070 -0.1724 -2.2430
22160SOL     OW73084   1.927   4.931  11.416 -0.3102 -0.0997  0.3031
22160SOL    HW173085   1.985   5.007  11.419 -1.6388  0.9434  0.1056
22160SOL    HW273086   1.962   4.872  11.483  1.2332  0.2940 -0.1081
22161SOL     OW73087   5.000   5.609   3.975  0.0667  0.3008  0.2471
22161SOL    HW173088   5.081   5.659   3.978 -0.1743  0.7884 -0.7874
22161SOL    HW273089   5.025   5.523   3.942  0.3675 -0.0252  1.2968
22162SOL     OW73090   7.678  11.340  11.778  0.3520 -0.1604  0.2252
22162SOL    HW173091   7.653  11.247  11.776  2.9710 -0.9529 -2.1439
22162SOL    HW273092   7.705  11.355  11.869  0.1574 -1.8198  0.5948
22163SOL     OW73093   5.562   3.422   0.844 -0.6610 -0.8559 -0.5567
22163SOL    HW173094   5.625   3.356   0.815 -0.7308 -2.0157  1.7006
22163SOL    HW273095   5.614   3.482   0.898 -1.0630 -0.4972 -0.5647
22164SOL     OW73096   4.256  11.509   8.901  0.7863 -0.0170 -0.3919
22164SOL    HW173097   4.339  11.537   8.863  0.5997  0.8897 -0.1606
22164SOL    HW273098   4.200  11.587   8.898  0.4841 -0.1530  0.9162
22165SOL     OW73099  10.442   7.538   8.230  0.0353  0.5930  0.2231
22165SOL    HW173100  10.404   7.622   8.205 -0.7452  0.5708  1.2814
22165SOL    HW273101  10.382   7.473   8.193 -0.8068  0.5537  1.5951
22166SOL     OW73102   2.808   2.714   6.251 -0.0264  0.1322 -0.7552
22166SOL    HW173103   2.737   2.716   6.187  0.4369  1.3552 -1.2611
22166SOL    HW273104   2.868   2.782   6.222  1.9841 -1.6308 -1.0288
22167SOL     OW73105   8.648   6.012   1.305 -0.0320  0.3986 -0.3505
22167SOL    HW173106   8.632   6.082   1.369 -1.5865 -0.6131  0.4077
22167SOL    HW273107   8.714   5.957   1.347 -1.6848 -0.7518  0.8244
22168SOL     OW73108   0.141  11.647   2.786 -0.5810  0.4692  0.0557
22168SOL    HW173109   0.166  11.692   2.705 -0.7576 -0.6147 -0.6131
22168SOL    HW273110   0.174  11.704   2.855  1.3714  0.4186 -0.7730
22169SOL     OW73111   0.719   6.685   3.581 -0.7367 -0.3708 -0.5457
22169SOL    HW173112   0.708   6.779   3.595 -1.4896 -0.6322  0.8128
22169SOL    HW273113   0.636   6.656   3.542 -0.4632 -0.4643 -1.0712
22170SOL     OW73114   3.115   1.089   3.488  0.2062 -0.0674  0.2546
22170SOL    HW173115   3.084   1.117   3.574 -0.9878  0.4044 -0.3234
22170SOL    HW273116   3.036   1.068   3.439  0.9108 -1.2026 -0.4508
22171SOL     OW73117   9.054   0.774  11.024  0.2889 -0.0327  0.0928
22171SOL    HW173118   9.057   0.678  11.025 -0.8949 -0.0709  0.5715
22171SOL    HW273119   8.961   0.796  11.022  0.5328  1.1131  0.4689
22172SOL     OW73120  11.424  11.612   1.373 -0.5804 -0.2146  0.1645
22172SOL    HW173121  11.344  11.577   1.333 -1.4885 -0.8699  2.3977
22172SOL    HW273122  11.486  11.617   1.300 -2.8031  0.9804 -1.8104
22173SOL     OW73123   7.007   5.129   2.008 -0.3157  0.1575  0.2299
22173SOL    HW173124   6.953   5.093   1.938  0.5996  3.0322 -2.1991
22173SOL    HW273125   6.958   5.205   2.040 -1.2246 -1.6870  3.6456
22174SOL     OW73126   7.288  12.380   8.497  0.3208 -0.2153 -0.0513
22174SOL    HW173127   7.212  12.434   8.515  1.0767  0.9189 -0.1275
22174SOL    HW273128   7.314  12.405   8.408  1.1051 -0.1623  0.1843
22175SOL     OW73129   8.223   7.090   6.961  0.5252 -0.0390 -0.0936
22175SOL    HW173130   8.221   7.005   6.917  0.4459 -0.8132  1.3171
22175SOL    HW273131   8.132   7.112   6.977  0.5734 -0.1148  0.3023
22176SOL     OW73132   3.346   4.014  11.813  0.2443 -0.4854 -0.3550
22176SOL    HW173133   3.366   4.057  11.896 -0.6154  0.9125 -0.8350
22176SOL    HW273134   3.281   3.947  11.835 -0.3655  0.2213  0.0482
22177SOL     OW73135   7.434   6.572   4.064 -0.1343 -0.2044  0.3060
22177SOL    HW173136   7.375   6.625   4.009  0.1531 -0.9654 -0.7564
22177SOL    HW273137   7.430   6.484   4.026  1.1261 -0.4365  0.6808
22178SOL     OW73138   6.505   0.466   5.956 -0.5159  0.0965 -0.4646
22178SOL    HW173139   6.529   0.398   6.018  1.3289  0.7718 -0.3554
22178SOL    HW273140   6.476   0.539   6.010 -0.6432  0.0588 -0.4827
22179SOL     OW73141   8.025  12.538   3.373 -0.5470  0.1629  1.0610
22179SOL    HW173142   7.945  12.585   3.397  0.3527  3.1325 -1.0722
22179SOL    HW273143   8.027  12.542   3.277  2.3767  0.6685  1.0588
22180SOL     OW73144   5.934   8.344  10.394 -0.3278  0.1772 -0.3277
22180SOL    HW173145   5.856   8.399  10.384  0.2205  0.8911 -0.7754
22180SOL    HW273146   5.957   8.352  10.486 -2.4514 -2.3792  0.5686
22181SOL     OW73147   1.590   8.701   9.960 -0.2432  0.7586  0.1341
22181SOL    HW173148   1.569   8.623   9.908  0.0848  1.1780 -0.6471
22181SOL    HW273149   1.532   8.696  10.036 -1.3050  0.5449 -0.6714
22182SOL     OW73150   0.853  10.047   0.428 -0.4294 -0.3263  0.0995
22182SOL    HW173151   0.761  10.037   0.451  0.2216 -2.8571  2.0262
22182SOL    HW273152   0.877   9.967   0.383  0.7733  0.4516 -0.7265
22183SOL     OW73153   3.375   7.571   3.247  0.0791  0.2649  0.4652
22183SOL    HW173154   3.328   7.552   3.166  0.4856  0.1118  0.2626
22183SOL    HW273155   3.464   7.592   3.219 -0.0839  1.4215  0.7681
22184SOL     OW73156  11.197   6.447   2.945  0.4762  0.2212  0.4309
22184SOL    HW173157  11.118   6.407   2.911  0.7130  0.4909 -0.4578
22184SOL    HW273158  11.216   6.519   2.885  1.5662 -0.0274  0.4418
22185SOL     OW73159   3.528   8.617   4.533  1.1098  0.3991 -0.0987
22185SOL    HW173160   3.443   8.650   4.560 -0.2260 -0.5911 -2.7053
22185SOL    HW273161   3.583   8.695   4.523  0.3531  1.0953  1.0447
22186SOL     OW73162   9.878   1.238   1.205 -0.0141 -0.4232 -0.2577
22186SOL    HW173163   9.789   1.203   1.213  0.0137 -0.3491  0.4999
22186SOL    HW273164   9.906   1.214   1.117 -1.1468  0.4158 -0.8745
22187SOL     OW73165   7.724   1.269   2.323  0.4017 -0.5683 -0.5867
22187SOL    HW173166   7.631   1.253   2.312  0.2691 -0.6927  0.5466
22187SOL    HW273167   7.754   1.195   2.377  0.9932 -0.1182 -0.2958
22188SOL     OW73168   0.679   7.902   9.192 -0.0949  0.2585  0.1168
22188SOL    HW173169   0.641   7.821   9.159 -0.6602 -0.0598  1.4693
22188SOL    HW273170   0.762   7.877   9.232  0.2648  0.5316 -0.4444
22189SOL     OW73171  12.240  11.217   6.283 -0.5596 -0.1342  0.2667
22189SOL    HW173172  12.300  11.180   6.218 -0.4496  0.0409  0.2670
22189SOL    HW273173  12.224  11.307   6.253 -0.7135 -0.1367  0.3396
22190SOL     OW73174   0.114  12.038   4.314 -0.2290 -0.3953  0.1536
22190SOL    HW173175   0.054  11.964   4.304  0.2963 -0.6005 -2.2361
22190SOL    HW273176   0.132  12.065   4.224  1.1349  1.3995  0.9166
22191SOL     OW73177   3.425   3.209   2.698 -0.3959  0.3016  0.1402
22191SOL    HW173178   3.419   3.152   2.621 -0.7510  2.3722 -1.4477
22191SOL    HW273179   3.503   3.180   2.744 -0.8995 -1.8378 -0.2529
22192SOL     OW73180   9.769   8.742   8.763 -0.2423 -0.1271  0.1094
22192SOL    HW173181   9.678   8.729   8.789 -0.1733 -0.2090  0.3109
22192SOL    HW273182   9.820   8.683   8.819 -0.0724 -0.1396 -0.0559
22193SOL     OW73183  12.269  10.423   4.829 -0.0095 -0.2181 -0.5039
22193SOL    HW173184  12.223  10.352   4.785 -1.3885 -0.1698  0.7718
22193SOL    HW273185  12.218  10.501   4.809  0.5651  0.1491 -0.5664
22194SOL     OW73186   8.631   3.269  11.241  0.5140  0.0495  0.3108
22194SOL    HW173187   8.655   3.312  11.323 -1.6826  2.8560 -0.3560
22194SOL    HW273188   8.696   3.301  11.178  0.2684  0.5486  0.3055
22195SOL     OW73189   7.031   3.989   0.856 -0.3621 -0.0104  0.2361
22195SOL    HW173190   7.110   3.975   0.909 -0.9012  0.3339  1.1555
22195SOL    HW273191   6.987   3.904   0.856 -0.2659 -0.0601  0.1873
22196SOL     OW73192   9.926   1.656  10.101  0.0804 -0.3464 -0.7426
22196SOL    HW173193   9.978   1.705  10.038  1.4161 -2.1078 -1.0688
22196SOL    HW273194   9.902   1.575  10.056 -0.3651 -0.9028  0.4424
22197SOL     OW73195   3.178  10.703  10.320 -0.0976  0.3085 -0.0630
22197SOL    HW173196   3.105  10.709  10.259 -0.9091 -1.0719  0.7037
22197SOL    HW273197   3.178  10.611  10.348  0.9344  0.6551  1.1790
22198SOL     OW73198   2.677  10.901  12.011  0.0274 -0.3282 -0.1563
22198SOL    HW173199   2.640  10.824  12.053 -1.6351  0.0693 -0.8103
22198SOL    HW273200   2.726  10.866  11.936  2.3941 -0.9755  1.5723
22199SOL     OW73201   9.312  12.175   7.540  0.4190  0.6253  0.4733
22199SOL    HW173202   9.380  12.242   7.556  1.5955 -0.2032 -0.7899
22199SOL    HW273203   9.287  12.189   7.448 -0.8938  0.6834  0.8260
22200SOL     OW73204   8.464   0.975   7.504 -0.2874 -0.3383  0.0150
22200SOL    HW173205   8.426   1.051   7.459  1.9684  0.0346 -1.3820
22200SOL    HW273206   8.438   0.900   7.450 -2.1640 -0.5942  1.1705
22201SOL     OW73207   3.226  11.456  10.725  0.0547  0.9955  0.1148
22201SOL    HW173208   3.227  11.430  10.817 -2.8384  1.4346  0.3612
22201SOL    HW273209   3.235  11.552  10.728 -1.0102  1.1024  0.0211
22202SOL     OW73210   4.378   2.153   7.321  0.5479 -0.0872  0.3952
22202SOL    HW173211   4.315   2.173   7.390  0.0202 -0.3775 -0.0017
22202SOL    HW273212   4.325   2.125   7.247  1.1451 -0.3829  0.0729
22203SOL     OW73213   8.699  12.262   5.772 -0.5442 -0.3516 -0.6930
22203SOL    HW173214   8.683  12.213   5.853  2.2439 -3.4722 -1.7709
22203SOL    HW273215   8.792  12.284   5.775 -0.6867  0.6811 -2.4365
22204SOL     OW73216  11.379   7.155   9.299  0.1035  0.0277 -0.0140
22204SOL    HW173217  11.410   7.207   9.225  1.4493 -0.5190  0.1387
22204SOL    HW273218  11.428   7.073   9.293 -1.6947 -1.1030 -0.0308
22205SOL     OW73219   6.349   4.863   8.883 -0.5642 -0.2684  0.6811
22205SOL    HW173220   6.320   4.858   8.974 -1.2667 -0.3809  0.4535
22205SOL    HW273221   6.351   4.956   8.863 -3.0412 -0.2924 -0.0006
22206SOL     OW73222   3.895   0.806  12.234 -0.1911 -0.1418 -0.2354
22206SOL    HW173223   3.945   0.788  12.313 -0.0303 -1.3665 -0.5946
22206SOL    HW273224   3.870   0.719  12.201 -0.6612  0.3634 -1.2580
22207SOL     OW73225   5.646   7.155   1.388  0.1655  0.2788  0.1833
22207SOL    HW173226   5.598   7.183   1.310  0.4983 -1.3967 -0.6701
22207SOL    HW273227   5.719   7.217   1.395 -0.6249  1.2568 -0.0283
22208SOL     OW73228  10.785   9.777   6.541 -0.4516 -0.2256  0.1419
22208SOL    HW173229  10.743   9.701   6.582  0.6930 -1.3461 -0.7094
22208SOL    HW273230  10.879   9.759   6.548 -0.0942  1.7330  1.0651
22209SOL     OW73231   5.356   3.202   0.464 -0.1556  0.1038 -0.0048
22209SOL    HW173232   5.336   3.148   0.387 -1.4820 -0.9713  1.0553
22209SOL    HW273233   5.274   3.246   0.484  0.3150  0.7562  0.5221
22210SOL     OW73234   1.520   1.720   9.735 -0.2040 -0.0009 -0.0201
22210SOL    HW173235   1.511   1.733   9.640 -1.0450  0.0644  0.0652
22210SOL    HW273236   1.608   1.752   9.754 -0.3563  0.8407 -0.6412
22211SOL     OW73237   8.640   0.218   4.751  0.1612 -0.0938 -0.3085
22211SOL    HW173238   8.615   0.207   4.843  0.6230 -0.5849 -0.2360
22211SOL    HW273239   8.583   0.288   4.719 -1.0210 -0.9065 -0.0460
22212SOL     OW73240   3.285  11.981   6.901  0.3146  0.3719  0.5059
22212SOL    HW173241   3.281  11.889   6.929  0.0200  0.4285  0.6477
22212SOL    HW273242   3.236  12.028   6.968  0.0688  0.5780  0.1774
22213SOL     OW73243  11.866   2.637   3.951 -0.3228 -0.5069 -0.0897
22213SOL    HW173244  11.935   2.599   3.897 -1.6138  0.2945 -2.4882
22213SOL    HW273245  11.802   2.566   3.962 -1.4089  0.0314 -2.1994
22214SOL     OW73246   1.682  10.054   5.849  0.4770 -0.3387 -0.3009
22214SOL    HW173247   1.693   9.992   5.921  0.8397  0.2533  0.1603
22214SOL    HW273248   1.733  10.015   5.777  1.1528 -0.3160  0.1536
22215SOL     OW73249   9.243   2.933   4.288  0.1516 -0.6208  0.2397
22215SOL    HW173250   9.319   2.881   4.311  0.1728  0.0569  1.7989
22215SOL    HW273251   9.176   2.869   4.263  0.4921 -1.3389  1.1367
22216SOL     OW73252   5.323   7.824   2.328 -0.2156  0.2558  0.1739
22216SOL    HW173253   5.246   7.881   2.326  1.1088  2.1222 -0.1764
22216SOL    HW273254   5.301   7.752   2.268 -1.5853  0.8739 -0.1092
22217SOL     OW73255   8.931   1.278   0.972 -0.0255 -0.2209 -0.0764
22217SOL    HW173256   8.869   1.350   0.964 -0.8303 -0.9223 -0.2760
22217SOL    HW273257   9.009   1.308   0.926 -1.3444 -0.5740 -2.7919
22218SOL     OW73258  10.032   5.289  10.154  0.6952 -0.5604 -0.3793
22218SOL    HW173259   9.996   5.285  10.243 -1.2187  1.2211 -0.9880
22218SOL    HW273260   9.967   5.245  10.100  1.1905 -0.4358 -1.0867
22219SOL     OW73261   6.147   8.350   9.493  0.5304  0.8581  0.0039
22219SOL    HW173262   6.076   8.412   9.479 -0.0211  0.6891  1.8270
22219SOL    HW273263   6.174   8.363   9.584  0.0117 -1.9090  0.6500
22220SOL     OW73264   0.011  10.625  10.895 -0.0461 -0.1671  0.5858
22220SOL    HW173265  -0.017  10.671  10.974 -1.1024  0.8723 -0.3624
22220SOL    HW273266   0.007  10.532  10.919  2.8294  0.1418  2.7781
22221SOL     OW73267   8.111   9.458   5.666 -0.1244  0.0190 -0.2089
22221SOL    HW173268   8.143   9.449   5.756 -0.8118  0.2398  0.0639
22221SOL    HW273269   8.185   9.495   5.618  0.0099  0.5835  0.4204
22222SOL     OW73270   3.492   8.896   2.599 -0.0724  0.0633  0.3745
22222SOL    HW173271   3.544   8.875   2.521  0.4127 -1.0512  0.9735
22222SOL    HW273272   3.551   8.882   2.672 -0.8538 -0.0311  1.0023
22223SOL     OW73273  12.762  10.884   5.770  0.3654  0.0566 -0.2850
22223SOL    HW173274  12.855  10.906   5.757  0.3601  0.7149  0.6624
22223SOL    HW273275  12.716  10.932   5.701  0.7077 -0.0527 -0.5893
22224SOL     OW73276   6.926   6.856   6.804  0.4395 -0.0633  0.0653
22224SOL    HW173277   6.893   6.812   6.883  0.8523  1.8472  1.3812
22224SOL    HW273278   6.994   6.798   6.771 -1.3161 -2.0417 -0.2848
22225SOL     OW73279  11.846  11.610   5.729 -0.0199  0.0261  0.2511
22225SOL    HW173280  11.905  11.565   5.668 -1.3840 -0.7795 -0.5199
22225SOL    HW273281  11.860  11.567   5.813  0.1873 -0.4571 -0.0255
22226SOL     OW73282   9.638   6.614   7.501  0.6354 -0.0923 -0.4119
22226SOL    HW173283   9.578   6.679   7.464  0.1940 -0.7359 -0.8511
22226SOL    HW273284   9.618   6.613   7.594  1.4328  1.2120 -0.2040
22227SOL     OW73285   4.191   6.707   1.926 -0.0488 -0.0425  0.5724
22227SOL    HW173286   4.099   6.731   1.914 -0.3757 -2.0330 -1.5020
22227SOL    HW273287   4.200   6.622   1.883  3.0272  0.5784 -0.2770
22228SOL     OW73288   4.611  11.769   8.191 -0.1833 -0.6581 -0.3747
22228SOL    HW173289   4.597  11.698   8.128 -1.8643 -1.1576  0.5094
22228SOL    HW273290   4.703  11.761   8.215 -0.0974 -1.9432 -1.0020
22229SOL     OW73291   4.643   6.705   5.359 -0.1973  0.4890 -0.4963
22229SOL    HW173292   4.676   6.640   5.421  1.2284  1.5070 -0.1477
22229SOL    HW273293   4.600   6.771   5.413 -2.5404 -0.5724 -0.9115
22230SOL     OW73294  10.327   7.991  12.499 -0.1898  0.4495  0.4106
22230SOL    HW173295  10.290   8.071  12.536 -0.6685  0.6811 -0.5418
22230SOL    HW273296  10.320   8.003  12.405 -2.5485 -1.7519  0.2004
22231SOL     OW73297   4.827   2.664  11.031  0.3634  0.1237 -0.7567
22231SOL    HW173298   4.889   2.621  10.972  0.8981 -0.5772  0.2774
22231SOL    HW273299   4.880   2.725  11.082  0.1458 -0.1781 -0.1511
22232SOL     OW73300   3.945   0.181   6.220 -0.4771 -0.2923  0.0054
22232SOL    HW173301   3.942   0.185   6.125  0.7791  0.7491 -0.0159
22232SOL    HW273302   4.032   0.145   6.240 -1.2351 -1.8205  0.7579
22233SOL     OW73303   6.463   5.277   0.636 -0.1571 -0.4005  0.3141
22233SOL    HW173304   6.501   5.207   0.585 -0.4604  0.3267 -0.9666
22233SOL    HW273305   6.414   5.233   0.705 -0.1199 -1.4375 -0.3008
22234SOL     OW73306   9.342   4.185  12.169 -0.1842  0.0777  0.4052
22234SOL    HW173307   9.357   4.147  12.082  3.3675  0.1380  0.8618
22234SOL    HW273308   9.318   4.110  12.224  0.5009 -0.4576 -0.0105
22235SOL     OW73309   0.082  12.070   0.815 -0.0167 -0.2814  0.1171
22235SOL    HW173310   0.176  12.058   0.825  0.3316  1.7550 -0.3447
22235SOL    HW273311   0.062  12.150   0.863 -1.5301 -0.6601  0.1891
22236SOL     OW73312   3.096   6.053   6.289 -0.0138 -0.2689 -0.4069
22236SOL    HW173313   3.170   5.994   6.295  0.7763  0.8139  1.0590
22236SOL    HW273314   3.133   6.137   6.259 -0.5722  0.3721  0.6367
22237SOL     OW73315   9.122   9.750   6.173 -0.4847  0.3550 -0.5497
22237SOL    HW173316   9.075   9.797   6.104 -1.0113 -0.8087 -1.0048
22237SOL    HW273317   9.204   9.721   6.131 -1.8080 -2.3704 -1.4716
22238SOL     OW73318   4.649   3.387   3.527  0.4859 -0.1669 -0.2447
22238SOL    HW173319   4.617   3.407   3.439 -0.6344 -1.3116 -0.1398
22238SOL    HW273320   4.631   3.466   3.578  1.6794  0.7187 -1.1549
22239SOL     OW73321   3.739   8.465   2.678 -0.0809 -0.2745 -0.7470
22239SOL    HW173322   3.717   8.379   2.641 -0.0187 -0.2145 -0.9192
22239SOL    HW273323   3.656   8.499   2.711  0.1786 -1.2420  1.0875
22240SOL     OW73324   2.913   2.969   6.117  0.8170  0.0262 -0.2040
22240SOL    HW173325   2.935   2.939   6.029 -0.8274  0.1556 -0.6989
22240SOL    HW273326   2.977   2.925   6.174  1.7311 -0.2723 -1.4179
22241SOL     OW73327   2.525   5.204   2.644 -0.2238  0.1678  0.4265
22241SOL    HW173328   2.440   5.226   2.681 -0.3642  0.7774 -0.2320
22241SOL    HW273329   2.507   5.132   2.584 -0.5679  1.2841 -0.8732
22242SOL     OW73330   9.436   8.743  11.561  0.0206 -0.1557 -0.3167
22242SOL    HW173331   9.469   8.787  11.483 -1.9121  0.1518 -1.0074
22242SOL    HW273332   9.424   8.652  11.534  0.5407 -0.3279  0.0176
22243SOL     OW73333  11.563  10.573   9.897  0.1838 -0.1029  0.1398
22243SOL    HW173334  11.544  10.524   9.817 -0.7553 -1.0440  0.9145
22243SOL    HW273335  11.648  10.541   9.925 -0.6680 -1.7542  0.9451
22244SOL     OW73336   1.461   0.800  11.450 -0.0789  0.0891  0.6705
22244SOL    HW173337   1.397   0.738  11.485 -2.2556  1.7209 -0.1815
22244SOL    HW273338   1.423   0.886  11.466  0.3481  1.0501 -2.6376
22245SOL     OW73339   9.840   9.711   1.510 -0.1389  0.0985 -0.4890
22245SOL    HW173340   9.935   9.724   1.521 -0.0908  1.1965 -1.9050
22245SOL    HW273341   9.832   9.634   1.455 -0.1013 -0.2430 -0.0273
22246SOL     OW73342   4.307   5.299   0.854 -0.0854  0.2548  0.0039
22246SOL    HW173343   4.274   5.325   0.940  0.1006  1.4243 -0.2514
22246SOL    HW273344   4.402   5.304   0.862 -0.0812  1.8706 -0.6712
22247SOL     OW73345  10.474   3.716  10.558 -0.0141  0.2593  0.7647
22247SOL    HW173346  10.394   3.681  10.519  0.1478  1.8494 -1.1364
22247SOL    HW273347  10.545   3.669  10.515  0.1269 -0.0437  1.3139
22248SOL     OW73348   1.772  11.915   3.499 -0.8312  0.4565 -0.5991
22248SOL    HW173349   1.768  11.985   3.433 -0.0283  1.1655  0.0782
22248SOL    HW273350   1.680  11.901   3.524 -0.8902  3.1549  1.1295
22249SOL     OW73351   4.609   8.801  11.498  0.0043  0.1727 -0.2649
22249SOL    HW173352   4.560   8.721  11.479  0.8573 -0.5962  0.6069
22249SOL    HW273353   4.551   8.872  11.473 -0.6072 -0.7185 -1.4903
22250SOL     OW73354   5.736   2.820   7.762  0.1296  0.4985 -0.1652
22250SOL    HW173355   5.673   2.891   7.773 -0.1496  0.3107 -0.5195
22250SOL    HW273356   5.814   2.862   7.728 -0.0026  0.6475 -0.2842
22251SOL     OW73357   3.771   2.894  11.229 -0.5407  0.5191  0.2255
22251SOL    HW173358   3.740   2.984  11.232  0.2662  0.8411 -0.8096
22251SOL    HW273359   3.766   2.869  11.137 -2.3817 -1.0958  0.6885
22252SOL     OW73360   3.075   4.287   3.218  0.0430  0.0688 -0.0880
22252SOL    HW173361   3.023   4.354   3.173 -1.2830 -0.6263  0.3322
22252SOL    HW273362   3.162   4.295   3.180 -0.3020  1.4312 -0.6815
22253SOL     OW73363   2.274   7.566   6.779  0.2964 -0.0950 -0.0738
22253SOL    HW173364   2.354   7.564   6.726 -0.3230 -0.7242 -1.0299
22253SOL    HW273365   2.300   7.609   6.861  1.8559 -1.1646  0.0400
22254SOL     OW73366   6.236  12.546   3.295  0.3619  0.5768  0.3855
22254SOL    HW173367   6.280  12.609   3.238 -1.3046  0.8195 -0.6952
22254SOL    HW273368   6.258  12.574   3.383  3.8735 -0.4022 -0.0223
22255SOL     OW73369   0.309   9.813   0.774 -0.2215 -0.4295 -1.1209
22255SOL    HW173370   0.375   9.746   0.754  2.5452  1.0737  2.0290
22255SOL    HW273371   0.258   9.775   0.845 -0.9976 -0.5020 -1.7014
22256SOL     OW73372   2.297   0.627   9.037 -0.6519 -0.0244 -0.2929
22256SOL    HW173373   2.250   0.567   8.979  1.0485 -0.7243 -1.0196
22256SOL    HW273374   2.228   0.674   9.084 -2.0921 -2.9773  0.7981
22257SOL     OW73375   9.947   2.286  10.392 -0.5633  0.1112  0.3152
22257SOL    HW173376  10.007   2.357  10.368  0.1137 -0.4232  0.3711
22257SOL    HW273377   9.866   2.330  10.418  0.6623  1.0489  2.9035
22258SOL     OW73378   5.505   8.531   1.739 -0.2176  0.2549 -0.4157
22258SOL    HW173379   5.486   8.516   1.832  0.2258 -0.7863 -0.4859
22258SOL    HW273380   5.450   8.606   1.715 -0.4351  0.4463  0.6506
22259SOL     OW73381  10.778  10.272   1.304  0.1972 -0.1828 -0.3477
22259SOL    HW173382  10.704  10.243   1.358  0.3318 -0.4000 -0.2793
22259SOL    HW273383  10.810  10.352   1.348 -0.4751  0.3514 -0.8044
22260SOL     OW73384   1.983  12.001   0.936  0.1112 -0.1260 -0.7104
22260SOL    HW173385   2.036  12.041   0.866 -1.9424  1.0909 -1.6646
22260SOL    HW273386   2.041  12.001   1.012  1.5960  0.8580 -1.7763
22261SOL     OW73387   1.057   8.411   1.668 -0.2913  0.0196 -0.3707
22261SOL    HW173388   1.012   8.402   1.585 -2.2337 -1.5312  0.7489
22261SOL    HW273389   1.126   8.345   1.664  0.4661  0.8353 -1.2111
22262SOL     OW73390   5.847   6.860   2.867  0.3175 -0.5141  0.0687
22262SOL    HW173391   5.924   6.913   2.888 -0.3305 -0.0963  1.4978
22262SOL    HW273392   5.794   6.863   2.946 -0.3307 -2.2974 -0.2678
22263SOL     OW73393   8.275   0.021  11.074  0.9369 -0.3830 -0.3854
22263SOL    HW173394   8.216   0.043  11.146 -0.0303 -2.8143 -0.3402
22263SOL    HW273395   8.340  -0.037  11.112  1.3088 -0.5040 -1.1781
22264SOL     OW73396   1.278   2.868   2.373 -0.3901 -0.3637  0.1344
22264SOL    HW173397   1.336   2.851   2.447 -1.0226  1.4464  1.1243
22264SOL    HW273398   1.235   2.785   2.356  0.1060 -0.9305  1.5109
22265SOL     OW73399   2.551   1.629   1.467  0.3249 -0.3267 -0.4463
22265SOL    HW173400   2.562   1.720   1.495  0.6597 -0.3000 -0.6453
22265SOL    HW273401   2.638   1.591   1.477  0.1980 -0.6104 -0.4183
22266SOL     OW73402   2.072   5.697   5.843 -0.2727  0.0329 -0.2128
22266SOL    HW173403   2.113   5.743   5.769 -1.1744  1.1086 -0.0709
22266SOL    HW273404   2.078   5.604   5.819  2.8668  0.0185  0.1197
22267SOL     OW73405   5.194   8.017   7.794 -0.0416  0.3964  0.4190
22267SOL    HW173406   5.238   8.084   7.847 -1.3375  1.1547  0.5919
22267SOL    HW273407   5.105   8.012   7.831  0.1387 -1.7658  0.6989
22268SOL     OW73408  12.767   9.244   9.856 -0.1325  0.1570  0.6966
22268SOL    HW173409  12.786   9.150   9.851  2.5346  0.6489  0.1194
22268SOL    HW273410  12.690   9.250   9.914 -1.8675 -2.4880 -1.0930
22269SOL     OW73411   3.346   6.640  11.594 -0.3417  0.0164  0.7314
22269SOL    HW173412   3.271   6.685  11.633  0.6999  0.4202  2.3774
22269SOL    HW273413   3.423   6.683  11.632  0.7127 -2.5226  1.6999
22270SOL     OW73414  10.785   9.988   8.478 -0.2053  0.1409 -0.3712
22270SOL    HW173415  10.833   9.917   8.521 -0.3125 -0.5895 -1.4011
22270SOL    HW273416  10.799  10.064   8.533  1.8865 -0.1148 -0.4675
22271SOL     OW73417   5.443   3.085   8.806 -0.2401  0.6690  0.1638
22271SOL    HW173418   5.520   3.074   8.751 -0.4699 -0.2409  0.0041
22271SOL    HW273419   5.469   3.151   8.870  1.5685 -1.3249  1.6453
22272SOL     OW73420   5.937   8.667   6.987 -0.4218 -0.1526  0.6360
22272SOL    HW173421   6.010   8.630   6.937  0.4228  0.3140  1.5108
22272SOL    HW273422   5.873   8.595   6.992  0.7131 -1.1558  1.3635
22273SOL     OW73423   2.277   4.769   6.002 -0.2829 -0.0357  0.3457
22273SOL    HW173424   2.285   4.711   5.926  0.2945 -0.3015  0.6015
22273SOL    HW273425   2.267   4.710   6.077 -0.0285  0.2014  0.5678
22274SOL     OW73426   0.149  12.075   5.885  0.2870 -0.6888 -0.1260
22274SOL    HW173427   0.128  12.015   5.814 -2.3968  0.7025 -0.6484
22274SOL    HW273428   0.064  12.112   5.911  1.1779 -0.7882  3.5143
22275SOL     OW73429  12.028   6.033  10.137  0.2838 -0.3300 -0.6336
22275SOL    HW173430  11.934   6.040  10.122 -0.0635 -1.9581  0.4581
22275SOL    HW273431  12.052   5.947  10.101  1.0770 -0.5107  0.2821
22276SOL     OW73432  11.087   9.365   1.813  0.0459  0.1446 -0.2993
22276SOL    HW173433  11.153   9.303   1.842  0.7192  0.5697 -0.8778
22276SOL    HW273434  11.130   9.416   1.744 -1.3647 -0.6025 -1.8086
22277SOL     OW73435  10.406   3.336   3.613  0.3356  0.2022 -0.1119
22277SOL    HW173436  10.334   3.282   3.582  1.8462 -1.5949 -0.6902
22277SOL    HW273437  10.388   3.423   3.578 -1.8401 -0.0274  0.3045
22278SOL     OW73438   9.117   3.671   0.094  0.7815 -0.4252 -0.5571
22278SOL    HW173439   9.095   3.599   0.152  1.3685 -1.7426 -1.9085
22278SOL    HW273440   9.034   3.715   0.077  0.5139 -0.3650  0.7663
22279SOL     OW73441   0.359   2.374   5.787  0.2159 -0.1353 -0.1098
22279SOL    HW173442   0.302   2.416   5.851  0.3462  1.3094 -0.8969
22279SOL    HW273443   0.428   2.333   5.838  2.1136  3.5861  0.6959
22280SOL     OW73444   9.388  12.442  10.254 -0.5806 -0.7250 -0.6701
22280SOL    HW173445   9.426  12.526  10.281 -0.1654 -1.0892 -0.1082
22280SOL    HW273446   9.320  12.424  10.319 -0.3719 -1.0352 -0.5378
22281SOL     OW73447   8.931   3.371   6.462 -0.7350  0.0603  0.1869
22281SOL    HW173448   8.891   3.448   6.504 -1.5498 -0.6940  0.8335
22281SOL    HW273449   8.904   3.377   6.371 -0.3282  0.8329  0.1034
22282SOL     OW73450   1.386   9.979  10.113  0.1708 -0.4658 -0.3360
22282SOL    HW173451   1.377  10.024  10.198  1.5958  0.1946 -0.4948
22282SOL    HW273452   1.297   9.972  10.080 -0.3061  0.2678  0.7289
22283SOL     OW73453   4.622   4.818  12.451  0.1473  0.2252  0.1033
22283SOL    HW173454   4.580   4.795  12.534  0.9225 -4.8292 -0.5836
22283SOL    HW273455   4.714   4.795  12.464  0.3991 -0.0483 -1.9495
22284SOL     OW73456   1.450   7.366  10.216  0.5530  0.1748  0.0900
22284SOL    HW173457   1.404   7.282  10.206  0.7446  0.1387 -0.4923
22284SOL    HW273458   1.407   7.407  10.292 -1.6025  0.8695 -1.3984
22285SOL     OW73459   1.510   6.482   7.082  0.7865  0.0869 -0.5121
22285SOL    HW173460   1.426   6.470   7.038  0.6843 -0.0577 -0.2818
22285SOL    HW273461   1.565   6.528   7.018  0.0382  1.6237 -0.1088
22286SOL     OW73462   8.788   1.719  10.325  0.1065  0.3765  0.1017
22286SOL    HW173463   8.807   1.640  10.274  0.8970  0.5123  0.1818
22286SOL    HW273464   8.853   1.719  10.395  0.5195  1.4151 -0.2592
22287SOL     OW73465   0.365  10.263   4.905  0.4434  0.2091  0.1422
22287SOL    HW173466   0.294  10.255   4.968 -0.7839 -1.9133 -1.3599
22287SOL    HW273467   0.361  10.354   4.875  0.0137  0.7998  1.8882
22288SOL     OW73468   6.023   4.583   3.157  0.1484  0.2385  0.5977
22288SOL    HW173469   6.073   4.502   3.162 -1.0628 -0.4864  1.7075
22288SOL    HW273470   6.069   4.643   3.215  1.2380  0.4802 -0.4787
22289SOL     OW73471   9.253   5.407   3.638 -0.1552 -0.1744 -0.1611
22289SOL    HW173472   9.281   5.374   3.553 -0.8506  1.3348 -1.0251
22289SOL    HW273473   9.222   5.330   3.685 -0.5738 -0.9190 -1.5997
22290SOL     OW73474   6.424   7.351  11.605  0.2681  0.4483  0.5072
22290SOL    HW173475   6.437   7.286  11.536  0.4970 -0.8956  1.7482
22290SOL    HW273476   6.333   7.378  11.595  0.8380  1.8733 -1.5762
22291SOL     OW73477   1.621   8.110   4.286  1.1083  0.0357  0.8667
22291SOL    HW173478   1.707   8.152   4.299  1.4626 -1.1609  2.8036
22291SOL    HW273479   1.603   8.122   4.193  1.5849  3.6492  1.0945
22292SOL     OW73480   0.801   6.583  12.680 -0.1739  0.3523  0.5734
22292SOL    HW173481   0.746   6.627  12.615  1.0240  1.1316  0.0492
22292SOL    HW273482   0.752   6.588  12.762 -0.7318  1.3165  0.1877
22293SOL     OW73483   7.708   2.383   4.473  0.4919 -0.1630  0.1643
22293SOL    HW173484   7.759   2.421   4.545  0.5608  1.3414 -0.6521
22293SOL    HW273485   7.626   2.433   4.473 -0.2384 -1.3257  0.2810
22294SOL     OW73486  11.265   4.861   3.063 -0.3112 -0.6601  0.4199
22294SOL    HW173487  11.283   4.912   2.984  0.6354 -0.8736  0.4760
22294SOL    HW273488  11.310   4.909   3.133 -0.1292 -1.1135  0.6184
22295SOL     OW73489   0.807   3.964  12.001 -0.0508 -0.0452  0.7681
22295SOL    HW173490   0.852   4.045  11.975  0.3313 -0.3932  0.3457
22295SOL    HW273491   0.868   3.894  11.979  0.4490 -0.3437  2.9364
22296SOL     OW73492   5.232   4.854   3.744  0.5832 -0.1174  0.0530
22296SOL    HW173493   5.167   4.834   3.811 -1.0650 -0.4080 -1.5554
22296SOL    HW273494   5.222   4.783   3.680 -0.0678  1.7434 -2.0185
22297SOL     OW73495   9.763   9.277   1.075 -0.7558  0.1785  0.1151
22297SOL    HW173496   9.746   9.282   0.981 -1.4759 -1.0412  0.1584
22297SOL    HW273497   9.849   9.235   1.081 -0.5075  0.6612  0.0037
22298SOL     OW73498   3.616   9.853  10.832  0.2851 -0.5945 -0.2641
22298SOL    HW173499   3.609   9.925  10.769 -1.2384  0.1727  0.7310
22298SOL    HW273500   3.656   9.893  10.909 -0.6031 -0.7789  0.3075
22299SOL     OW73501   2.432   6.468  12.042  0.2960  0.0987  0.3425
22299SOL    HW173502   2.469   6.417  12.114  1.4125 -0.9974 -0.9319
22299SOL    HW273503   2.394   6.402  11.984 -3.5132  1.1537  1.3979
22300SOL     OW73504   3.898   3.750  11.359 -0.6091 -0.2254  0.1076
22300SOL    HW173505   3.885   3.840  11.390  0.6650  0.0172  0.0033
22300SOL    HW273506   3.930   3.703  11.435 -0.1021 -0.2859 -0.1378
22301SOL     OW73507   3.469   1.642   8.399  0.4697  0.3336  0.0038
22301SOL    HW173508   3.452   1.596   8.481  0.1027 -1.3994 -1.0004
22301SOL    HW273509   3.390   1.629   8.347  0.9125  0.9450 -0.8410
22302SOL     OW73510   5.486   1.003  11.345  0.0271  0.6993 -0.0316
22302SOL    HW173511   5.459   1.092  11.368  1.0457  0.6143  1.6787
22302SOL    HW273512   5.577   1.012  11.318 -0.3468  0.3750 -1.5006
22303SOL     OW73513   0.786  12.657   9.145  0.5286  0.2304 -0.2047
22303SOL    HW173514   0.859  12.704   9.105  2.0206 -0.2983  1.7410
22303SOL    HW273515   0.779  12.694   9.233  0.8952 -2.1991  0.9327
22304SOL     OW73516   8.879   8.883   3.450 -0.0532 -0.1945  0.5611
22304SOL    HW173517   8.967   8.911   3.476 -0.3348  0.2043  1.0936
22304SOL    HW273518   8.842   8.844   3.528 -0.5643  0.1678  0.5031
22305SOL     OW73519   7.763   4.004   3.001 -0.2790 -0.0746 -0.3170
22305SOL    HW173520   7.849   4.003   3.043  0.4848 -0.7299 -1.8008
22305SOL    HW273521   7.771   4.070   2.932 -1.0547  0.0269 -0.3180
22306SOL     OW73522   1.191   7.222   5.412 -0.2727 -0.4591  0.1620
22306SOL    HW173523   1.202   7.178   5.328 -1.7479  0.1306 -0.3757
22306SOL    HW273524   1.239   7.304   5.403  1.1825 -1.2282  0.6123
22307SOL     OW73525   4.938  10.241   2.657  0.5842  0.0155 -0.5129
22307SOL    HW173526   4.991  10.185   2.714 -0.5622 -0.8327 -0.2219
22307SOL    HW273527   4.875  10.282   2.716  0.2427  0.1803 -0.9831
22308SOL     OW73528   2.115   0.162   9.521  0.0945 -0.7141  0.1214
22308SOL    HW173529   2.113   0.162   9.425  0.6592  3.4123 -0.0443
22308SOL    HW273530   2.208   0.168   9.544 -0.1371  0.9772  0.7652
22309SOL     OW73531  10.010   6.723   7.625 -0.2964 -0.2130  0.4694
22309SOL    HW173532   9.990   6.630   7.632 -1.2381  0.0961  2.4457
22309SOL    HW273533   9.926   6.765   7.606  0.1489  0.2552 -0.5831
22310SOL     OW73534   3.255  10.063   3.677 -0.1734  0.1945 -0.4004
22310SOL    HW173535   3.176  10.116   3.685  0.2762  0.7356  0.6981
22310SOL    HW273536   3.316  10.101   3.740  1.1961  0.1700 -1.6615
22311SOL     OW73537   9.644  11.070  10.475 -0.4164  0.6431  0.0531
22311SOL    HW173538   9.641  11.006  10.546  0.7180  0.0258 -0.4298
22311SOL    HW273539   9.634  11.155  10.519  0.8460  0.3130  1.0386
22312SOL     OW73540  10.763   3.544  12.121  0.4183 -0.5454  0.4675
22312SOL    HW173541  10.738   3.585  12.038  1.2659 -1.1836 -0.1222
22312SOL    HW273542  10.848   3.584  12.141  0.3636 -0.6319  0.8636
22313SOL     OW73543   2.230  10.890   6.264  0.2172 -0.4941 -0.0811
22313SOL    HW173544   2.283  10.824   6.220 -0.4545 -1.8622  1.0592
22313SOL    HW273545   2.143  10.882   6.224 -0.6241 -2.3064  1.8464
22314SOL     OW73546   4.647   2.558   0.208  0.0656 -0.5645 -0.2727
22314SOL    HW173547   4.554   2.573   0.227  0.1371  1.0880 -1.0933
22314SOL    HW273548   4.646   2.504   0.129 -0.1744 -1.0540  0.0513
22315SOL     OW73549  11.558   9.296   8.954  0.1073 -0.2695 -0.0487
22315SOL    HW173550  11.600   9.210   8.951 -0.1677 -0.3842 -0.8432
22315SOL    HW273551  11.560   9.320   9.047  2.4548  0.0068 -0.1110
22316SOL     OW73552  12.733   8.643   1.638  0.2572  0.2692 -0.0118
22316SOL    HW173553  12.654   8.608   1.595 -0.4585  1.4070  0.3268
22316SOL    HW273554  12.791   8.568   1.645 -1.5036 -1.0710  1.3515
22317SOL     OW73555  11.260   0.566   3.843  0.0985 -0.4205 -0.0163
22317SOL    HW173556  11.174   0.578   3.884 -0.4778 -2.3877 -0.5742
22317SOL    HW273557  11.241   0.546   3.752  1.0215 -2.5731  0.2047
22318SOL     OW73558  11.372   0.376   3.189 -0.7790  0.0960  0.2454
22318SOL    HW173559  11.398   0.332   3.108 -0.6692 -0.5698  0.6321
22318SOL    HW273560  11.295   0.327   3.219  0.7445 -1.3780  1.9347
22319SOL     OW73561   3.713  10.942   4.993 -0.0679  0.0551 -0.0906
22319SOL    HW173562   3.630  10.979   4.962 -0.1481  1.0544  1.2523
22319SOL    HW273563   3.702  10.847   4.981 -1.1390  0.2220 -0.5628
22320SOL     OW73564  12.630   0.122   0.099 -0.5485  0.1286  0.5817
22320SOL    HW173565  12.558   0.180   0.074 -1.9445 -0.5749  2.7042
22320SOL    HW273566  12.700   0.181   0.126 -1.2615  0.8326  0.9288
22321SOL     OW73567   8.615   1.530   3.500 -0.1436 -0.8027 -0.3031
22321SOL    HW173568   8.677   1.464   3.531  0.1664 -0.1055  0.6176
22321SOL    HW273569   8.550   1.537   3.570 -0.0410  0.0274 -0.2776
22322SOL     OW73570   3.689   6.380   6.823 -0.2447  0.0829 -0.3481
22322SOL    HW173571   3.615   6.436   6.847 -0.7929  0.4572 -2.6863
22322SOL    HW273572   3.658   6.291   6.841 -1.0442  0.2773 -0.6734
22323SOL     OW73573  10.615  12.006   0.523 -0.0381 -0.2808  0.1218
22323SOL    HW173574  10.690  12.056   0.553 -1.0072  1.2061  0.1639
22323SOL    HW273575  10.633  11.987   0.431  0.5718 -0.3306  0.2479
22324SOL     OW73576   8.790   0.526   0.980 -0.0600 -0.0724  0.0821
22324SOL    HW173577   8.709   0.493   1.019 -1.2650  2.0362 -0.4150
22324SOL    HW273578   8.826   0.585   1.045 -1.8070  3.0571 -1.5194
22325SOL     OW73579   1.033  12.764   4.690  0.1747  0.8031  0.5720
22325SOL    HW173580   1.039  12.712   4.610 -0.9870 -0.9972  1.6027
22325SOL    HW273581   1.118  12.806   4.697  0.7963 -0.1337 -0.8411
22326SOL     OW73582   3.457   0.208  10.174 -0.1614  0.4822 -0.3320
22326SOL    HW173583   3.520   0.167  10.114  1.1891  2.0105 -0.0496
22326SOL    HW273584   3.508   0.275  10.220 -1.8093  1.1843  0.5766
22327SOL     OW73585  11.478  12.205   2.263 -0.3902 -0.2206 -0.3104
22327SOL    HW173586  11.551  12.256   2.228  0.3874 -0.6039  0.7219
22327SOL    HW273587  11.429  12.268   2.317 -0.2414 -0.2125 -0.1848
22328SOL     OW73588  12.372   4.678  11.685  0.2390  0.4466 -0.0785
22328SOL    HW173589  12.345   4.673  11.777  0.5631  1.0649  0.0539
22328SOL    HW273590  12.343   4.765  11.656 -1.1931 -0.2904 -0.9990
22329SOL     OW73591   3.475   4.999   8.565 -0.1031  0.1837 -0.1113
22329SOL    HW173592   3.502   5.065   8.500  0.9478  0.5231  0.6400
22329SOL    HW273593   3.517   4.918   8.536 -1.3324 -0.1659 -0.9929
22330SOL     OW73594  12.421  10.641  10.228  0.4298 -0.1947  0.3954
22330SOL    HW173595  12.355  10.689  10.277 -2.4894 -1.6188 -1.8552
22330SOL    HW273596  12.446  10.569  10.285  0.1489  0.4367  1.3358
22331SOL     OW73597   8.710   9.183   3.115  0.0042 -0.2203 -0.5280
22331SOL    HW173598   8.736   9.195   3.023 -1.3728  0.4984 -0.8528
22331SOL    HW273599   8.617   9.163   3.110 -0.4150  1.2556  0.7912
22332SOL     OW73600   6.443   6.840  11.009 -0.3451  0.1105  0.0879
22332SOL    HW173601   6.409   6.923  10.976  2.0902  0.4844 -1.7748
22332SOL    HW273602   6.532   6.860  11.038  0.5902 -1.9461 -1.1283
22333SOL     OW73603   3.427   3.782   1.023 -0.1707  0.0982 -0.0135
22333SOL    HW173604   3.374   3.798   1.101 -0.1929 -1.6442  0.3698
22333SOL    HW273605   3.512   3.753   1.057 -0.4537 -1.5173 -0.6067
22334SOL     OW73606   5.890   3.856  11.811  0.3630  0.2102  0.1011
22334SOL    HW173607   5.826   3.923  11.836  0.0670  0.9101 -2.2522
22334SOL    HW273608   5.864   3.778  11.859  1.3362  1.9231  3.7932
22335SOL     OW73609   7.077   2.145  10.547  0.2431  0.6387  0.6151
22335SOL    HW173610   7.165   2.132  10.581 -0.2090  1.1141  2.0447
22335SOL    HW273611   7.058   2.237  10.564  0.7048  1.5056 -2.7709
22336SOL     OW73612  10.109   0.884   5.063  0.7936  0.5093 -0.6812
22336SOL    HW173613  10.094   0.978   5.061 -0.5714  0.3740  0.7378
22336SOL    HW273614  10.028   0.846   5.030  1.3406 -0.1813 -1.2595
22337SOL     OW73615   7.554   2.501   0.683  0.0027 -0.4676  0.1432
22337SOL    HW173616   7.568   2.586   0.640 -1.5842  0.3423  1.1388
22337SOL    HW273617   7.607   2.440   0.632  1.8491  1.2361 -0.1321
22338SOL     OW73618   6.321  11.806   8.357  0.2035 -0.0406  0.1948
22338SOL    HW173619   6.343  11.730   8.303  1.1326  1.2803 -1.3542
22338SOL    HW273620   6.234  11.832   8.327 -0.3640 -0.7723  1.1175
22339SOL     OW73621   5.115   9.157   7.980 -0.1879 -0.4033 -0.1685
22339SOL    HW173622   5.065   9.224   7.934  0.6772 -0.4914 -1.2725
22339SOL    HW273623   5.197   9.201   8.005 -0.2489 -0.6290  0.4400
22340SOL     OW73624  11.425   2.927   2.533 -0.4625  0.7009 -0.7480
22340SOL    HW173625  11.434   2.912   2.438  1.0945 -1.9156 -0.2998
22340SOL    HW273626  11.516   2.931   2.564 -0.9556  2.0236  0.6106
22341SOL     OW73627   3.326   4.858   9.397 -0.5039  0.1492 -0.0056
22341SOL    HW173628   3.264   4.904   9.455  0.0464 -0.9567  1.5448
22341SOL    HW273629   3.408   4.857   9.446 -0.0883 -1.0832 -0.6731
22342SOL     OW73630   9.998   0.840   5.619  0.3906  0.3474  0.2770
22342SOL    HW173631  10.067   0.787   5.578  0.6521  0.5104  0.5062
22342SOL    HW273632   9.954   0.780   5.679 -0.5241 -0.1306 -0.8039
22343SOL     OW73633  11.214   0.063  10.959 -0.4192  0.7321  0.0754
22343SOL    HW173634  11.188  -0.029  10.970  0.6737  0.3593 -0.2191
22343SOL    HW273635  11.264   0.083  11.038  1.5235  0.2377 -0.9577
22344SOL     OW73636   1.273  10.625   3.976  0.2027  0.3752  0.2279
22344SOL    HW173637   1.305  10.592   3.892 -3.2810  0.4864 -1.3364
22344SOL    HW273638   1.295  10.556   4.038  1.4426 -0.4732 -1.0778
22345SOL     OW73639   9.267   6.050  12.211 -0.2187  0.3824  0.2814
22345SOL    HW173640   9.281   5.962  12.175 -0.6364  0.5172 -0.2133
22345SOL    HW273641   9.182   6.077  12.177 -0.3828  0.7242  0.9524
22346SOL     OW73642   1.552   0.787   5.180 -0.3785  0.2801 -0.3561
22346SOL    HW173643   1.484   0.723   5.157 -0.0606 -0.5322  0.8545
22346SOL    HW273644   1.541   0.800   5.274  0.5410  0.8680 -0.3204
22347SOL     OW73645  12.253   9.628   1.989  0.2225 -0.6649 -0.2613
22347SOL    HW173646  12.248   9.719   1.960 -1.7751 -0.3413  0.9588
22347SOL    HW273647  12.343   9.602   1.970 -0.0930  0.4000 -3.9458
22348SOL     OW73648   7.471   2.759   4.266 -0.4028 -0.1795  0.2394
22348SOL    HW173649   7.398   2.768   4.205  0.4550  1.5849 -0.6260
22348SOL    HW273650   7.468   2.840   4.318  1.1607  0.1583 -0.1411
22349SOL     OW73651   5.357   6.655   6.049 -0.2375  0.4903 -0.5527
22349SOL    HW173652   5.333   6.623   6.136  2.2919  0.2278  0.1029
22349SOL    HW273653   5.276   6.649   5.998 -1.4333 -0.6518  1.3838
22350SOL     OW73654   2.987  10.641   7.193  0.1190 -0.5897 -0.2682
22350SOL    HW173655   2.958  10.615   7.280  0.4885 -1.1550 -0.3101
22350SOL    HW273656   2.919  10.609   7.134 -1.2832  1.7260 -0.0277
22351SOL     OW73657  11.397   5.976   2.476  0.1557 -0.4281 -0.0380
22351SOL    HW173658  11.392   6.043   2.408  1.9891 -0.2029  0.0082
22351SOL    HW273659  11.419   6.024   2.556  1.5182 -1.0544 -0.0088
22352SOL     OW73660   6.370  11.847   9.096 -0.3061  0.7698  0.2533
22352SOL    HW173661   6.283  11.852   9.057  0.5803  0.0693 -1.9260
22352SOL    HW273662   6.423  11.909   9.046  0.7828  0.1661  0.6161
22353SOL     OW73663   8.868   4.877   8.354  0.2291  0.2628  0.4957
22353SOL    HW173664   8.774   4.888   8.342  0.1868  0.1027  0.6800
22353SOL    HW273665   8.893   4.948   8.413  0.0258 -0.3737  1.3664
22354SOL     OW73666   0.265   7.500   0.763 -0.0348  0.4902  0.1319
22354SOL    HW173667   0.230   7.584   0.733  1.4639  1.3174  0.5897
22354SOL    HW273668   0.348   7.491   0.716 -0.1755 -0.7432  0.0968
22355SOL     OW73669   9.051   7.991   0.973 -0.1916  0.3057  0.5110
22355SOL    HW173670   9.074   7.931   1.043  0.6253 -1.5359 -1.2358
22355SOL    HW273671   8.957   7.977   0.959 -0.1132 -0.1839  0.4667
22356SOL     OW73672  10.406   4.927   2.543  0.1922  0.1726  0.4802
22356SOL    HW173673  10.459   4.847   2.542 -1.7127 -1.1551 -0.4497
22356SOL    HW273674  10.368   4.930   2.631 -0.3595 -0.3998  0.2660
22357SOL     OW73675   0.488   2.219   3.656  0.0319 -0.6715 -0.1287
22357SOL    HW173676   0.523   2.130   3.650  1.2210 -0.1122 -4.1386
22357SOL    HW273677   0.408   2.216   3.603  1.2412  1.0297 -2.1978
22358SOL     OW73678   6.611  11.616   9.497 -0.2900 -0.0450  0.1556
22358SOL    HW173679   6.607  11.697   9.444 -1.2117 -0.9393 -1.2120
22358SOL    HW273680   6.688  11.570   9.463  0.0249  0.0854  0.6876
22359SOL     OW73681   6.579   6.283   5.523  0.1201 -0.1825 -0.2711
22359SOL    HW173682   6.552   6.361   5.570 -3.6238 -2.6766  2.3689
22359SOL    HW273683   6.517   6.277   5.450  1.8560  0.3786 -1.8671
22360SOL     OW73684   4.006   3.407   4.629  0.2143 -0.5085 -0.3938
22360SOL    HW173685   4.086   3.421   4.678 -0.0672 -0.0117 -0.0635
22360SOL    HW273686   4.030   3.347   4.559  0.8951 -0.2840 -0.3549
22361SOL     OW73687   7.610   5.308   0.668 -0.1450  0.1191  0.8919
22361SOL    HW173688   7.575   5.219   0.675 -0.7531  0.3361  0.6840
22361SOL    HW273689   7.533   5.363   0.656  0.3240  0.5023 -0.6041
22362SOL     OW73690  12.423   6.764   1.465 -0.0509  0.4094  0.1795
22362SOL    HW173691  12.359   6.823   1.424  0.4576 -0.3455 -1.7835
22362SOL    HW273692  12.387   6.677   1.452 -0.0881  0.1430  1.8052
22363SOL     OW73693   9.201   1.081   7.933  0.2885  0.2826  0.0786
22363SOL    HW173694   9.272   1.096   7.871 -0.1414 -0.4224 -0.6149
22363SOL    HW273695   9.226   1.129   8.012  0.5837  1.6669 -0.8262
22364SOL     OW73696   9.972   8.741  12.548  0.0046 -0.3308  0.2089
22364SOL    HW173697  10.032   8.698  12.487  1.0318  1.9423 -0.4683
22364SOL    HW273698  10.022   8.747  12.630 -0.1151 -0.3922  0.2858
22365SOL     OW73699   9.425  11.937   7.827 -0.1843 -0.0716  0.3985
22365SOL    HW173700   9.512  11.953   7.790 -0.0075 -3.1939 -0.8408
22365SOL    HW273701   9.442  11.897   7.912 -0.4323  0.0101  0.4881
22366SOL     OW73702  10.185   8.926   6.604 -0.4335 -0.4000 -0.2756
22366SOL    HW173703  10.184   8.836   6.636  1.0640 -0.9035 -1.5598
22366SOL    HW273704  10.269   8.961   6.634  1.4300 -1.1457 -4.0863
22367SOL     OW73705  11.675   0.399   8.065  0.2214 -0.0505  0.0789
22367SOL    HW173706  11.633   0.383   8.150  0.3254  1.8428  0.5253
22367SOL    HW273707  11.613   0.365   8.001  0.0808 -1.4096  0.8864
22368SOL     OW73708   6.556   7.122   6.535  0.0370 -0.5120  0.2746
22368SOL    HW173709   6.521   7.037   6.510 -0.0023 -0.6528  0.7866
22368SOL    HW273710   6.648   7.105   6.558 -0.1931 -0.5808  1.1869
22369SOL     OW73711  12.681   5.164   9.246 -0.1684  0.0944 -0.3011
22369SOL    HW173712  12.679   5.069   9.231 -0.0868  0.0682 -0.1454
22369SOL    HW273713  12.684   5.202   9.158  0.9695 -0.0773 -0.3501
22370SOL     OW73714  11.442   1.442   8.634  0.5532  0.0052  0.3773
22370SOL    HW173715  11.378   1.371   8.629  0.7559 -0.0776 -1.4607
22370SOL    HW273716  11.411   1.509   8.574  2.9196 -0.7024 -1.8298
22371SOL     OW73717  11.084   8.253   5.659  0.0769 -0.0150  0.0273
22371SOL    HW173718  11.129   8.201   5.725 -1.3639  0.3840  1.3896
22371SOL    HW273719  11.106   8.343   5.681 -0.5866  0.1316  0.1134
22372SOL     OW73720   7.945  10.138   7.949  0.7320 -0.0526 -0.3254
22372SOL    HW173721   7.860  10.172   7.921 -0.4194 -0.0761  2.7353
22372SOL    HW273722   7.952  10.053   7.905 -0.3262  0.4002 -1.4401
22373SOL     OW73723  10.171  11.678   9.454 -0.6200 -0.9312  0.3757
22373SOL    HW173724  10.262  11.649   9.450 -0.0316  0.8897 -1.0042
22373SOL    HW273725  10.142  11.678   9.363 -1.0607  1.1760  0.4720
22374SOL     OW73726   3.398   6.342   7.890 -0.3181  0.0909  0.1861
22374SOL    HW173727   3.416   6.431   7.918 -0.0170  0.4246 -1.0037
22374SOL    HW273728   3.399   6.290   7.970 -1.4815  1.3083  1.0220
22375SOL     OW73729  10.666   2.241  10.213 -0.0713 -0.0603  0.5531
22375SOL    HW173730  10.728   2.195  10.156  0.2815  1.3510 -0.2501
22375SOL    HW273731  10.617   2.298  10.155 -1.5416 -0.4902  1.3198
22376SOL     OW73732   6.228   7.055   7.814  0.0523  0.1375 -0.5043
22376SOL    HW173733   6.194   6.995   7.880  0.4120  0.5178  0.0306
22376SOL    HW273734   6.244   7.137   7.860  0.8875  0.2244 -0.9147
22377SOL     OW73735   2.647   6.769   3.733  0.2871  0.0632 -0.3351
22377SOL    HW173736   2.637   6.696   3.795 -2.6794 -0.0496 -0.8383
22377SOL    HW273737   2.643   6.848   3.788 -0.3857 -0.0758 -0.1831
22378SOL     OW73738   8.461   2.219  11.063  0.1733 -0.0703  0.0527
22378SOL    HW173739   8.432   2.241  11.152  1.1928  2.7845 -0.2057
22378SOL    HW273740   8.399   2.264  11.006  1.9399  1.7482 -0.5495
22379SOL     OW73741   6.574   0.537   9.736  0.2321 -0.2525 -0.4021
22379SOL    HW173742   6.565   0.535   9.832  2.0541  0.2298 -0.1808
22379SOL    HW273743   6.668   0.537   9.721 -0.0148  0.5418 -2.2002
22380SOL     OW73744   6.148   1.987   4.179 -0.0438 -0.3212 -0.6073
22380SOL    HW173745   6.127   2.020   4.092 -0.3319 -1.5678 -1.0242
22380SOL    HW273746   6.242   2.004   4.189  0.0230 -0.3134 -1.2256
22381SOL     OW73747   2.703   8.394  10.265 -0.0864  0.2352 -0.0305
22381SOL    HW173748   2.677   8.440  10.345 -0.4890  0.5292 -0.3251
22381SOL    HW273749   2.795   8.370  10.279 -0.2085  0.1211  0.5920
22382SOL     OW73750   8.286  11.844   8.023 -0.3102 -0.5755 -0.2129
22382SOL    HW173751   8.203  11.816   8.061 -0.5427  0.4248  0.0435
22382SOL    HW273752   8.323  11.904   8.087  0.3301 -0.5539 -0.5947
22383SOL     OW73753   6.861   8.302  12.309 -0.2778  0.0185 -0.6244
22383SOL    HW173754   6.856   8.236  12.239  0.2005 -0.8310  0.1094
22383SOL    HW273755   6.790   8.363  12.290 -0.8282 -0.7922 -1.2516
22384SOL     OW73756   9.565  10.312   8.059 -0.1051  0.6965  0.4748
22384SOL    HW173757   9.638  10.334   8.117 -0.8293  0.7656  1.3767
22384SOL    HW273758   9.604  10.257   7.992  0.6755  0.2737  1.2539
22385SOL     OW73759  10.117   1.543   9.410  0.1908  0.1597  0.4066
22385SOL    HW173760  10.067   1.620   9.438  0.4343 -0.0287  1.3749
22385SOL    HW273761  10.208   1.569   9.418  0.2697 -0.0329  0.1607
22386SOL     OW73762   0.169   3.871   7.999  0.5222 -0.2674 -0.3831
22386SOL    HW173763   0.150   3.964   7.998 -0.1332 -0.3964 -1.2826
22386SOL    HW273764   0.222   3.858   8.078 -0.8577  0.5758  0.7249
22387SOL     OW73765  10.670   1.485   6.080 -0.3614  0.0408  0.0463
22387SOL    HW173766  10.615   1.415   6.115  1.3286 -1.2799  0.2212
22387SOL    HW273767  10.704   1.450   5.997  1.3198  0.1649  0.6260
22388SOL     OW73768   6.420   5.294   3.302  0.2104  0.0532 -0.3179
22388SOL    HW173769   6.418   5.390   3.308  0.1778  0.0061  0.4093
22388SOL    HW273770   6.510   5.271   3.325 -0.0294 -0.1556  0.4035
22389SOL     OW73771   9.369   1.830   0.090  0.0643 -0.7181 -0.1242
22389SOL    HW173772   9.438   1.775   0.128 -0.5777 -2.2027 -1.0296
22389SOL    HW273773   9.290   1.805   0.137 -0.4048 -1.2731 -1.1761
22390SOL     OW73774   8.605   5.614   0.582  0.1506  0.2105 -0.2906
22390SOL    HW173775   8.637   5.524   0.572  0.7289  0.3981 -0.2175
22390SOL    HW273776   8.515   5.605   0.612 -0.1983 -0.3453 -1.4526
22391SOL     OW73777  12.612   0.108   4.897  0.2106  0.5827 -0.2984
22391SOL    HW173778  12.700   0.096   4.860  0.1557 -0.2519 -0.1670
22391SOL    HW273779  12.573   0.021   4.897 -0.1362  0.7122  0.8404
22392SOL     OW73780   3.057   5.187   5.730  0.1585 -0.3412  0.4772
22392SOL    HW173781   3.010   5.189   5.647  1.2328 -0.0215 -0.1520
22392SOL    HW273782   3.114   5.110   5.723 -0.6141 -1.0215  1.4335
22393SOL     OW73783   4.906   9.452   6.159  0.0425 -0.3150  0.8407
22393SOL    HW173784   4.980   9.473   6.216  0.4363 -1.4331  0.7718
22393SOL    HW273785   4.942   9.453   6.070 -0.3834  0.6289  0.6705
22394SOL     OW73786   7.178  11.042  10.305 -0.4096  0.1615  0.2675
22394SOL    HW173787   7.140  11.080  10.225 -1.5018  1.8426  1.5254
22394SOL    HW273788   7.162  11.107  10.373  2.7311 -0.0821  1.4092
22395SOL     OW73789   6.901   3.346  10.062 -0.0897 -0.1967  0.1763
22395SOL    HW173790   6.855   3.427  10.083 -1.0226 -0.5734 -0.3795
22395SOL    HW273791   6.833   3.287  10.030  1.0096 -0.1159 -2.5736
22396SOL     OW73792   4.631   7.974   0.309  0.6693  0.3248  0.0715
22396SOL    HW173793   4.617   7.894   0.260  1.9749 -0.1753  0.4864
22396SOL    HW273794   4.695   8.023   0.258  1.2367  0.2763  0.7208
22397SOL     OW73795  12.699   4.421   7.020 -0.5009  0.4372 -0.0220
22397SOL    HW173796  12.641   4.425   7.096  1.5941  0.6537  1.6376
22397SOL    HW273797  12.705   4.512   6.990 -1.5673  0.3087 -0.6671
22398SOL     OW73798   5.463   4.266   7.803  0.0504 -0.0744  0.5825
22398SOL    HW173799   5.556   4.253   7.784 -0.0649 -0.0908 -0.0087
22398SOL    HW273800   5.461   4.303   7.891  0.5245 -1.6445  1.2972
22399SOL     OW73801   8.039   9.676   7.333 -0.2279  0.1889  0.0504
22399SOL    HW173802   8.044   9.642   7.243  0.4531 -1.2658  0.5970
22399SOL    HW273803   7.953   9.717   7.338 -0.3200  0.1998 -1.2312
22400SOL     OW73804   9.082  10.034   6.599  0.1606 -0.1425  0.4073
22400SOL    HW173805   9.105  10.125   6.578  0.8676 -0.6666 -1.2930
22400SOL    HW273806   8.990  10.037   6.623  0.5349  1.2170  1.8176
22401SOL     OW73807   7.918  10.385  10.108 -0.1987  0.3658 -0.1631
22401SOL    HW173808   7.849  10.325  10.136  0.9316 -1.2394 -0.6522
22401SOL    HW273809   7.927  10.369  10.015  0.3223  1.1122 -0.2488
22402SOL     OW73810   1.377   0.666   4.503 -0.4295  0.0685 -0.6621
22402SOL    HW173811   1.444   0.735   4.503 -2.3328  2.0184 -0.5231
22402SOL    HW273812   1.316   0.693   4.435 -2.0443 -0.6137  0.4620
22403SOL     OW73813   2.938  11.224   4.356  0.2822 -0.3308 -0.1209
22403SOL    HW173814   2.904  11.204   4.269 -1.9769  2.3420  0.0089
22403SOL    HW273815   3.033  11.233   4.342 -0.1049  0.9823 -2.5767
22404SOL     OW73816   0.220   4.084   6.915 -0.2681  1.0460  0.2765
22404SOL    HW173817   0.141   4.066   6.865 -1.0014  2.5605  0.8176
22404SOL    HW273818   0.290   4.044   6.864 -1.5048 -1.8923  0.6394
22405SOL     OW73819   0.516   6.869   2.053  0.1759  0.2450  0.3164
22405SOL    HW173820   0.559   6.857   2.138  0.2072  1.2194  0.4500
22405SOL    HW273821   0.458   6.944   2.067  2.5810  2.6180 -1.4073
22406SOL     OW73822   7.848   9.778   6.688 -0.4611  0.7715  0.4178
22406SOL    HW173823   7.810   9.814   6.768  1.2552 -0.3477  1.8237
22406SOL    HW273824   7.802   9.695   6.674 -0.0715  0.4739  0.8585
22407SOL     OW73825   2.646  11.828   1.491 -0.0802 -0.4847  0.2920
22407SOL    HW173826   2.697  11.900   1.454 -0.0271 -0.4532  0.4249
22407SOL    HW273827   2.654  11.757   1.427 -0.6483 -0.1656 -0.1402
22408SOL     OW73828   6.242   4.718   9.899 -0.0360  0.1420 -0.3860
22408SOL    HW173829   6.244   4.745   9.807  0.2705  0.2426 -0.3498
22408SOL    HW273830   6.298   4.781   9.944  1.2275 -0.9202 -0.4016
22409SOL     OW73831  12.180   6.887   5.054 -0.0803 -0.5972 -0.4243
22409SOL    HW173832  12.174   6.975   5.016 -0.6487 -0.6397 -0.4445
22409SOL    HW273833  12.109   6.839   5.012  0.6837 -1.2758 -0.9597
22410SOL     OW73834  10.658   4.687  12.086  0.3798 -0.1838  0.2366
22410SOL    HW173835  10.710   4.661  12.009  0.9536  2.0319 -0.2216
22410SOL    HW273836  10.585   4.736  12.049 -0.8326 -1.3481  1.0129
22411SOL     OW73837   6.751   4.675   6.374  0.0474  0.0636 -0.0487
22411SOL    HW173838   6.759   4.623   6.294 -1.2363 -0.0106 -0.1406
22411SOL    HW273839   6.676   4.637   6.420 -0.1552  1.0587  0.4729
22412SOL     OW73840   0.753   2.908   2.876  1.1899 -0.2456 -0.4272
22412SOL    HW173841   0.756   2.901   2.780  1.6753  0.1351 -0.4466
22412SOL    HW273842   0.845   2.905   2.902  1.0276 -0.9596  0.0798
22413SOL     OW73843  11.509   4.502  11.002 -0.3059  0.0702  0.7154
22413SOL    HW173844  11.550   4.536  11.081 -0.5677  1.3131  0.3427
22413SOL    HW273845  11.430   4.556  10.992 -0.7616 -0.6969  0.1195
22414SOL     OW73846   5.661  10.683  11.645 -0.0345  0.3909 -0.7053
22414SOL    HW173847   5.644  10.734  11.566 -0.7705  1.2347 -0.0225
22414SOL    HW273848   5.595  10.614  11.645  0.4326 -0.0739 -1.1907
22415SOL     OW73849   3.638   6.478  11.625 -0.2461 -0.4048 -0.5518
22415SOL    HW173850   3.578   6.553  11.614 -0.2521 -0.5233 -1.4122
22415SOL    HW273851   3.580   6.404  11.640 -0.3596 -0.5900 -1.7856
22416SOL     OW73852   4.592   0.009   2.904  0.2918  0.4375 -0.0681
22416SOL    HW173853   4.569   0.040   2.816  1.1112  4.5916  0.9615
22416SOL    HW273854   4.526   0.049   2.961 -1.6282 -3.9724  1.2574
22417SOL     OW73855  12.159   4.428   2.148 -0.0857  0.3113 -0.4149
22417SOL    HW173856  12.109   4.502   2.183 -0.6537 -1.0079  1.7000
22417SOL    HW273857  12.147   4.434   2.053 -3.4830  0.6161 -0.0762
22418SOL     OW73858  11.959   1.802   3.758 -0.1048  0.1702  0.1453
22418SOL    HW173859  11.866   1.784   3.753  0.2075 -1.2238 -1.9346
22418SOL    HW273860  11.968   1.892   3.726 -0.6745  0.0421 -0.3969
22419SOL     OW73861   4.417   1.905  11.635  0.4583  0.2826  0.0703
22419SOL    HW173862   4.342   1.877  11.687  1.5069 -1.5323  0.7108
22419SOL    HW273863   4.438   1.993  11.667 -1.1525  0.6780  0.1128
22420SOL     OW73864   0.933   0.638  12.743  0.1643  0.6386 -0.6647
22420SOL    HW173865   1.018   0.680  12.728  0.5283  0.0050 -0.3980
22420SOL    HW273866   0.898   0.683  12.819  0.5307  0.5075 -0.4128
22421SOL     OW73867   1.433   5.322   3.556 -0.3646  0.3956  0.1617
22421SOL    HW173868   1.407   5.358   3.641  0.4624  2.4796 -0.4000
22421SOL    HW273869   1.385   5.240   3.549 -1.8377  1.0503  1.8579
22422SOL     OW73870   9.372   4.867   3.684 -0.6410 -0.2118  0.5502
22422SOL    HW173871   9.448   4.842   3.737 -0.2960 -2.3474 -0.8176
22422SOL    HW273872   9.306   4.801   3.704 -1.1081 -0.0414 -0.3638
22423SOL     OW73873   4.678  12.617  12.098  0.2935 -0.4884 -0.2793
22423SOL    HW173874   4.663  12.691  12.040  0.7113 -0.4841 -0.3895
22423SOL    HW273875   4.593  12.574  12.106 -0.0477  0.2368  0.1139
22424SOL     OW73876   6.600   6.262   8.695 -0.2101  0.0320  0.1079
22424SOL    HW173877   6.532   6.224   8.750  0.4343  1.5447  2.0842
22424SOL    HW273878   6.679   6.213   8.719 -0.4441 -1.3950 -1.8248
22425SOL     OW73879   1.362   8.021  12.476  0.2904 -0.1083 -0.3566
22425SOL    HW173880   1.278   8.067  12.471 -0.9808 -2.3461 -1.4789
22425SOL    HW273881   1.373   7.999  12.568  0.1330  1.0192 -0.0588
22426SOL     OW73882   8.298   9.720   9.753  0.2596  0.4966  1.0469
22426SOL    HW173883   8.284   9.646   9.812  1.9984 -1.3129 -0.6308
22426SOL    HW273884   8.211   9.750   9.730 -0.5059 -1.0648  1.7656
22427SOL     OW73885   9.092  10.901   4.449  0.4997  0.4909  0.3472
22427SOL    HW173886   9.011  10.952   4.454 -0.3180 -0.7679  0.3643
22427SOL    HW273887   9.133  10.931   4.368 -0.6590  0.2107 -0.3723
22428SOL     OW73888   0.137   9.020   1.007 -0.2608 -0.1919 -0.1446
22428SOL    HW173889   0.150   9.094   0.947  0.2007 -0.6726 -0.6482
22428SOL    HW273890   0.209   8.960   0.988  1.2922  0.6632  2.4932
22429SOL     OW73891  12.060   6.216   2.635  0.0226 -0.0193 -0.1419
22429SOL    HW173892  12.103   6.152   2.693 -1.0627 -2.9132 -2.2839
22429SOL    HW273893  12.013   6.274   2.695 -0.9163 -2.7187  1.9799
22430SOL     OW73894   1.206   3.073   7.845 -0.4464 -0.0697  0.5169
22430SOL    HW173895   1.110   3.076   7.847 -0.5152 -0.7134 -0.5672
22430SOL    HW273896   1.234   3.125   7.920 -1.6492 -0.1229  1.0193
22431SOL     OW73897   2.037  10.633   2.683  0.3623  0.5036 -0.0190
22431SOL    HW173898   2.088  10.643   2.602 -1.5441 -1.5518 -1.6052
22431SOL    HW273899   2.003  10.720   2.701  2.0221  1.3093 -0.5549
22432SOL     OW73900   6.859   2.713   2.914  0.1662 -0.2995  0.2696
22432SOL    HW173901   6.919   2.676   2.849 -0.4645  0.2121 -0.6415
22432SOL    HW273902   6.883   2.805   2.919  0.8599 -0.5309  1.5321
22433SOL     OW73903  11.546   1.365  10.120  0.1985  0.4460 -0.1075
22433SOL    HW173904  11.501   1.293  10.075  1.7295  0.1405 -1.2188
22433SOL    HW273905  11.494   1.442  10.100  0.3507  0.1628 -1.6967
22434SOL     OW73906   5.382   3.458   5.684  0.4044 -0.0550 -0.3944
22434SOL    HW173907   5.437   3.470   5.762 -0.5978  0.9694  0.1801
22434SOL    HW273908   5.415   3.377   5.644  1.5699 -0.0785  0.5536
22435SOL     OW73909  11.305   2.193   8.082  0.3703  0.0162  0.0201
22435SOL    HW173910  11.305   2.145   8.165 -0.3216  0.8132  0.4932
22435SOL    HW273911  11.389   2.238   8.081  0.6246 -0.4496  0.0114
22436SOL     OW73912   2.601   4.832   4.963  0.3451 -0.1952 -0.7301
22436SOL    HW173913   2.598   4.847   5.057  0.2232  2.0057 -1.0334
22436SOL    HW273914   2.617   4.738   4.954  3.0866 -0.0841  1.5238
22437SOL     OW73915   5.564   8.044   7.627 -0.1971 -0.2711 -0.0444
22437SOL    HW173916   5.635   8.026   7.565 -0.3558 -1.4513  0.0913
22437SOL    HW273917   5.608   8.079   7.705  0.6674 -3.6035  1.1562
22438SOL     OW73918   8.583   1.798   7.444 -0.0922  0.1964  0.0959
22438SOL    HW173919   8.629   1.806   7.361  0.1319 -0.2025  0.1782
22438SOL    HW273920   8.624   1.722   7.487  0.7802  1.2404  1.1900
22439SOL     OW73921   0.446   6.382   0.965 -0.0948  0.4111 -0.4637
22439SOL    HW173922   0.477   6.297   0.933  0.1872  1.2674 -2.6271
22439SOL    HW273923   0.376   6.406   0.904 -0.9080  1.2600  0.7660
22440SOL     OW73924   3.179   6.336  10.009 -0.1610  0.5238 -0.4339
22440SOL    HW173925   3.144   6.413  10.053 -1.8896  0.7300 -2.0540
22440SOL    HW273926   3.227   6.371   9.934  0.8336  0.0812 -0.0307
22441SOL     OW73927   4.621   1.617  11.010  0.9680  0.1385 -0.1212
22441SOL    HW173928   4.548   1.648  11.064 -0.0625 -0.8963 -0.8805
22441SOL    HW273929   4.697   1.625  11.068 -0.1252 -1.1879  1.6243
22442SOL     OW73930   7.767  12.687  12.549  0.2869  0.0159 -0.2413
22442SOL    HW173931   7.765  12.650  12.638 -0.0491 -0.0372 -0.2705
22442SOL    HW273932   7.731  12.775  12.559  1.1728  0.3736 -0.1584
22443SOL     OW73933   9.827   5.343   3.728 -0.0943  0.2271  0.9635
22443SOL    HW173934   9.770   5.419   3.712 -1.3353 -0.3960  2.2029
22443SOL    HW273935   9.777   5.289   3.789 -0.5994 -3.0525 -2.0676
22444SOL     OW73936   3.916   7.798   3.930  0.3200  0.1579  0.7263
22444SOL    HW173937   3.971   7.725   3.955 -0.3643 -0.4462  0.4998
22444SOL    HW273938   3.943   7.820   3.841  2.0448  1.6429  1.5357
22445SOL     OW73939   2.196  11.790  11.265  0.0087  0.6604  0.0977
22445SOL    HW173940   2.210  11.735  11.342  0.5765  0.1496 -0.3505
22445SOL    HW273941   2.160  11.730  11.199  2.4696  0.3162 -1.0378
22446SOL     OW73942   7.494   7.159   4.817 -0.0503  0.0436  0.3496
22446SOL    HW173943   7.465   7.218   4.748  1.3569 -0.8152 -1.0469
22446SOL    HW273944   7.427   7.166   4.885 -0.6771  2.0943 -0.4108
22447SOL     OW73945   2.685  12.684   4.349  0.0317 -0.2829 -0.0374
22447SOL    HW173946   2.695  12.621   4.278 -0.3140 -1.2104  0.7191
22447SOL    HW273947   2.775  12.709   4.372  0.2006 -1.0409  0.1285
22448SOL     OW73948  12.073   7.757   8.807 -0.3300 -0.0840 -0.0215
22448SOL    HW173949  12.141   7.773   8.873 -0.7018 -2.4618  1.0395
22448SOL    HW273950  12.074   7.836   8.753  2.3589  0.5264  0.7390
22449SOL     OW73951   6.989  10.974   2.792 -0.1872 -0.1150 -0.4105
22449SOL    HW173952   7.032  11.030   2.728 -2.5038  3.0008  0.5036
22449SOL    HW273953   7.049  10.973   2.867 -0.2303  1.5823 -0.3089
22450SOL     OW73954   6.294   0.895   0.600 -0.1800  0.2926  0.3933
22450SOL    HW173955   6.270   0.974   0.648 -0.5254  1.2098 -1.2183
22450SOL    HW273956   6.279   0.917   0.508  0.5059 -1.3748 -0.1605
22451SOL     OW73957   6.181   5.469   6.189 -0.2881 -0.0260  0.3381
22451SOL    HW173958   6.112   5.415   6.152 -0.6168 -0.6387  1.7659
22451SOL    HW273959   6.236   5.493   6.115 -1.4838 -0.3354 -0.6716
22452SOL     OW73960   0.377  11.675  10.415  0.2373  0.0257 -0.0519
22452SOL    HW173961   0.317  11.749  10.402 -0.3730 -0.3944  0.3012
22452SOL    HW273962   0.336  11.624  10.485  1.0290 -0.2592  0.2085
22453SOL     OW73963   2.968   6.094  11.178  0.0367 -0.0019 -0.1529
22453SOL    HW173964   2.894   6.036  11.195 -0.0691 -0.0890 -0.8741
22453SOL    HW273965   3.045   6.043  11.203 -0.1481  0.1228  0.6864
22454SOL     OW73966  10.639   5.672   9.351  0.1223  0.0846 -0.4719
22454SOL    HW173967  10.647   5.746   9.290  2.5214  0.3419  0.0636
22454SOL    HW273968  10.674   5.705   9.434  1.4868 -1.6834 -0.2781
22455SOL     OW73969   3.235  11.309   8.785 -0.3557  0.0624 -0.5003
22455SOL    HW173970   3.320  11.288   8.747 -0.1208  1.8222 -1.0207
22455SOL    HW273971   3.195  11.371   8.724 -1.3077  0.5357  0.5517
22456SOL     OW73972   8.773   8.819  11.241 -0.7049  0.5211 -0.1890
22456SOL    HW173973   8.721   8.880  11.293 -1.1266 -1.8091  2.3740
22456SOL    HW273974   8.864   8.842  11.259 -0.8376 -0.4573  1.9964
22457SOL     OW73975   4.881  10.054   3.868 -0.1282  0.0630  0.0593
22457SOL    HW173976   4.832  10.086   3.944 -1.9854  1.0791 -1.4842
22457SOL    HW273977   4.964  10.100   3.873 -0.3321  0.3511  1.2977
22458SOL     OW73978   7.286  11.637   2.850  0.3336  0.1956  0.1811
22458SOL    HW173979   7.204  11.675   2.879  0.2652  0.0733  0.1505
22458SOL    HW273980   7.327  11.604   2.930 -0.4486 -1.3014 -0.0008
22459SOL     OW73981   6.714   8.542   0.915 -0.6482 -0.3248 -0.3087
22459SOL    HW173982   6.645   8.609   0.909 -0.7143 -0.3198  0.3683
22459SOL    HW273983   6.772   8.574   0.984  0.5654  0.1345 -1.4966
22460SOL     OW73984   3.993  12.550  10.241 -0.4870 -0.5826 -0.6553
22460SOL    HW173985   4.036  12.465  10.255  1.9132  0.5677 -0.5258
22460SOL    HW273986   3.918  12.548  10.300 -0.3231 -2.4866 -0.4247
22461SOL     OW73987   1.634   3.543   7.892  0.1624  0.1346 -0.3848
22461SOL    HW173988   1.565   3.498   7.843  0.4404 -0.0388 -0.6191
22461SOL    HW273989   1.638   3.631   7.853  1.9125 -0.6858 -2.2331
22462SOL     OW73990   1.516   5.866   1.028 -0.4551 -0.6799 -0.0399
22462SOL    HW173991   1.467   5.816   1.094  0.0057 -1.9191 -0.5977
22462SOL    HW273992   1.516   5.808   0.951 -0.0957  0.2994 -0.7853
22463SOL     OW73993   5.353   0.642   8.930  0.1229  0.2384  0.0780
22463SOL    HW173994   5.276   0.610   8.884 -0.8495  2.3392  0.0999
22463SOL    HW273995   5.393   0.565   8.970  0.5316 -1.6026 -3.5014
22464SOL     OW73996   9.264   7.988   9.029  0.6729 -0.0736  0.2598
22464SOL    HW173997   9.202   7.933   9.078  1.6238 -0.3944  1.1474
22464SOL    HW273998   9.302   7.929   8.965 -2.1350  0.8313 -2.4785
22465SOL     OW73999   4.449  10.275  10.825  0.4963  0.0174  0.0344
22465SOL    HW174000   4.408  10.226  10.896  1.9064 -0.8005  0.3326
22465SOL    HW274001   4.542  10.275  10.847  0.7160  1.5435 -0.7630
22466SOL     OW74002   2.728  10.291   5.272  0.0993  0.4029 -0.5318
22466SOL    HW174003   2.691  10.309   5.186 -2.7685  0.0286  0.5309
22466SOL    HW274004   2.688  10.355   5.330  0.3493 -0.6828  0.8946
22467SOL     OW74005   8.112  11.272  11.894 -0.0151  0.1691 -0.5589
22467SOL    HW174006   8.065  11.270  11.810  0.8513 -0.8851 -1.0365
22467SOL    HW274007   8.055  11.323  11.951 -0.9479  0.3387 -1.5942
22468SOL     OW74008  12.609   8.400   5.657 -0.8091 -0.3837 -0.2094
22468SOL    HW174009  12.530   8.441   5.690 -1.1615  0.0602 -1.5417
22468SOL    HW274010  12.600   8.403   5.561  1.5717  1.2515 -0.4643
22469SOL     OW74011   9.162   2.000   8.244  0.5143  0.4827 -0.0908
22469SOL    HW174012   9.194   1.909   8.242 -1.5678 -0.3337  0.4412
22469SOL    HW274013   9.199   2.040   8.166  1.6814 -0.7484 -0.2150
22470SOL     OW74014   8.337   7.406   3.541  0.2288 -0.3500  0.1974
22470SOL    HW174015   8.312   7.464   3.614  1.6464  3.2034 -1.8969
22470SOL    HW274016   8.258   7.401   3.487  0.1548 -0.2319  0.2913
22471SOL     OW74017   8.716   0.204   7.111 -0.2605 -0.5858 -0.1435
22471SOL    HW174018   8.791   0.256   7.143 -0.0585 -0.9052 -0.0922
22471SOL    HW274019   8.726   0.206   7.015 -0.8570  0.3611 -0.2041
22472SOL     OW74020   8.343   4.445   8.823  0.3181 -0.0110 -0.2297
22472SOL    HW174021   8.373   4.380   8.886  1.1082  0.4974 -0.0541
22472SOL    HW274022   8.249   4.451   8.836  0.1627 -1.4357 -0.5684
22473SOL     OW74023   8.849   8.577  11.945  0.6873  0.5123  0.1937
22473SOL    HW174024   8.944   8.579  11.955  0.9914  1.4271 -2.2845
22473SOL    HW274025   8.817   8.645  12.005  1.3954 -0.8513  2.2118
22474SOL     OW74026  11.237  11.337   8.629 -0.2428 -0.4483 -0.2312
22474SOL    HW174027  11.167  11.402   8.628 -0.3478 -0.5690 -0.9538
22474SOL    HW274028  11.196  11.256   8.601  0.6200 -0.0337 -3.0495
22475SOL     OW74029  12.538   3.766  11.006  0.2070 -0.1270  0.2587
22475SOL    HW174030  12.534   3.675  11.034 -0.7045  0.3494  1.8158
22475SOL    HW274031  12.530   3.816  11.087  2.8218  1.3789 -0.2997
22476SOL     OW74032   5.310   0.441   1.194 -0.0922  0.0855  0.1198
22476SOL    HW174033   5.340   0.356   1.162  1.5878  1.2057 -1.5126
22476SOL    HW274034   5.308   0.432   1.289  0.4842 -1.6345  0.0077
22477SOL     OW74035   3.383   0.460   0.438  0.1085  0.2814  0.1168
22477SOL    HW174036   3.414   0.494   0.522  1.4735 -0.2770 -0.1323
22477SOL    HW274037   3.391   0.365   0.446 -0.9500  0.1519 -0.2117
22478SOL     OW74038  11.588  10.572   8.311 -0.1481  0.0898  0.1129
22478SOL    HW174039  11.663  10.629   8.293  1.5772 -1.2708  2.2682
22478SOL    HW274040  11.563  10.594   8.401  0.8238 -2.6143  1.1740
22479SOL     OW74041   8.183  10.750   4.251  0.2874  0.1250 -0.1430
22479SOL    HW174042   8.165  10.674   4.196  1.7751  1.0691 -2.0206
22479SOL    HW274043   8.131  10.821   4.212  1.3550  0.8020 -0.3736
22480SOL     OW74044   0.175   0.988   6.592  0.1734  0.6476  0.0097
22480SOL    HW174045   0.144   0.903   6.623 -0.3853  1.4408  1.7590
22480SOL    HW274046   0.168   1.045   6.668  1.6424  1.9921 -0.7988
22481SOL     OW74047   6.055   6.405   9.300 -0.2139 -0.2734  0.7348
22481SOL    HW174048   6.047   6.489   9.255 -0.0766 -0.0688  1.0854
22481SOL    HW274049   6.030   6.424   9.391 -1.0029 -0.7920  0.6315
22482SOL     OW74050   2.029   3.325   1.447 -0.4039 -0.1529  0.4279
22482SOL    HW174051   2.066   3.238   1.463  0.3830  0.2801  1.0292
22482SOL    HW274052   1.943   3.308   1.409 -0.0748 -1.1905  0.1138
22483SOL     OW74053   1.355   6.582  10.212  0.8263 -0.3762  0.1801
22483SOL    HW174054   1.437   6.628  10.232  0.9544 -0.5226  0.0002
22483SOL    HW274055   1.311   6.573  10.297  0.7477  0.1703  0.2016
22484SOL     OW74056   0.561   1.720   1.992 -0.1127  0.1561 -0.6398
22484SOL    HW174057   0.643   1.770   1.999  0.8479 -1.3118 -0.9872
22484SOL    HW274058   0.550   1.679   2.078 -1.8411  2.2725  0.2469
22485SOL     OW74059   4.846   0.300   8.530 -0.1061  0.0818  0.0364
22485SOL    HW174060   4.762   0.256   8.542  0.1325  0.2800  3.5617
22485SOL    HW274061   4.907   0.249   8.584  1.3267  1.7822  0.1070
22486SOL     OW74062   7.067   9.944   9.010 -0.0910 -0.5886 -0.3663
22486SOL    HW174063   7.037   9.923   8.922 -0.4079  1.3244 -0.7632
22486SOL    HW274064   7.043  10.036   9.023  1.1820 -0.4107  1.1942
22487SOL     OW74065   6.216   2.579  11.128  0.7840  0.1029  0.2693
22487SOL    HW174066   6.304   2.615  11.117  1.1627 -0.4202  1.4421
22487SOL    HW274067   6.203   2.523  11.051  1.1790  0.7594 -0.2802
22488SOL     OW74068   8.972   2.896   0.923 -0.0558 -0.1728 -0.1494
22488SOL    HW174069   8.965   2.986   0.954  1.4284 -0.4600  1.1039
22488SOL    HW274070   9.058   2.891   0.882  0.0092 -1.1174  0.0834
22489SOL     OW74071   3.298   4.274   9.015 -0.3665 -0.6808  0.4273
22489SOL    HW174072   3.241   4.197   9.019  1.3139 -1.9440  2.1341
22489SOL    HW274073   3.308   4.301   9.106  0.2282  0.6691 -0.0233
22490SOL     OW74074   5.701   6.333   2.640 -0.0785  0.5432  0.0679
22490SOL    HW174075   5.675   6.241   2.641 -0.5032  0.6547  1.5158
22490SOL    HW274076   5.742   6.345   2.555  1.1133 -1.3075  0.3205
22491SOL     OW74077  11.959   3.478   1.612 -0.6353 -0.3302 -0.1405
22491SOL    HW174078  11.874   3.502   1.648 -0.9390  1.9360 -2.1277
22491SOL    HW274079  12.022   3.530   1.663 -0.7410  0.3323 -0.6842
22492SOL     OW74080   3.096   3.440   1.449  0.4097 -0.2379  0.2058
22492SOL    HW174081   3.072   3.400   1.533 -0.0867  2.6607  1.5562
22492SOL    HW274082   3.166   3.501   1.471 -1.2922  2.2976 -0.9882
22493SOL     OW74083   6.377   0.015   2.831  0.6503  0.6050  0.6168
22493SOL    HW174084   6.364  -0.041   2.755  3.0993 -0.2168  0.7220
22493SOL    HW274085   6.354   0.103   2.800 -0.2291  0.0123 -0.4763
22494SOL     OW74086   5.976   4.823   5.343  0.5783  0.0449  0.0051
22494SOL    HW174087   6.071   4.813   5.343  0.7205  0.9153 -1.8989
22494SOL    HW274088   5.953   4.836   5.435  2.0516 -2.0774  0.7620
22495SOL     OW74089   3.637   6.401  10.173 -0.2557  0.6594  0.6484
22495SOL    HW174090   3.728   6.407  10.200  0.2743  0.5543 -0.9691
22495SOL    HW274091   3.608   6.314  10.202  0.5914  0.1408 -0.0247
22496SOL     OW74092   3.175   0.558   2.412  0.1507  0.9426 -0.7931
22496SOL    HW174093   3.249   0.532   2.467 -1.9637 -1.2870  1.2035
22496SOL    HW274094   3.190   0.512   2.330  0.9452  0.4944 -0.4164
22497SOL     OW74095   5.772   5.922   2.055 -0.1087  0.0207  0.2653
22497SOL    HW174096   5.747   5.949   1.966 -0.3197 -0.3799  0.2025
22497SOL    HW274097   5.717   5.974   2.112 -0.5915 -0.3499  0.1402
22498SOL     OW74098   3.138   3.186   3.644  0.5084  0.6167  0.3611
22498SOL    HW174099   3.155   3.216   3.733  0.4705 -0.2217  0.6616
22498SOL    HW274100   3.091   3.258   3.602 -1.0671  0.3386  1.5695
22499SOL     OW74101  10.691   2.526   7.782  0.1191 -0.4164  0.1384
22499SOL    HW174102  10.716   2.504   7.871  0.2281  0.4163  0.3208
22499SOL    HW274103  10.746   2.600   7.758  0.1412 -0.6690 -0.6497
22500SOL     OW74104   0.490   0.761   7.726  0.1968 -0.2610  0.2770
22500SOL    HW174105   0.442   0.808   7.795 -0.5055  0.9199 -0.9742
22500SOL    HW274106   0.421   0.721   7.672  0.6959 -0.0985 -0.4815
22501SOL     OW74107   8.583   5.948  10.575 -0.2254  0.0468 -0.7004
22501SOL    HW174108   8.615   6.017  10.634 -2.3068  1.9792 -1.6969
22501SOL    HW274109   8.542   5.884  10.634 -0.7169  1.0445  0.0708
22502SOL     OW74110  12.011   5.304  10.283 -0.1280 -0.3111 -0.5989
22502SOL    HW174111  11.930   5.272  10.321 -0.1915 -0.7096 -1.0510
22502SOL    HW274112  11.997   5.299  10.188  1.2686 -2.7187 -0.7626
22503SOL     OW74113   6.588   3.361   3.747  0.4033 -0.2871  0.4801
22503SOL    HW174114   6.543   3.443   3.767 -0.1402 -0.5315  0.2581
22503SOL    HW274115   6.679   3.378   3.772  1.1535  1.6708 -2.9194
22504SOL     OW74116   3.677  11.387   1.051  0.1417 -0.7475 -0.2664
22504SOL    HW174117   3.698  11.475   1.020 -2.3249 -0.8949 -2.6529
22504SOL    HW274118   3.609  11.401   1.117  0.7374 -0.8341  0.3844
22505SOL     OW74119  10.021   3.232   0.862  0.6738  0.6164 -0.0922
22505SOL    HW174120  10.068   3.293   0.805  0.4963  1.6513  0.8364
22505SOL    HW274121   9.994   3.285   0.937  1.1081 -0.7553  1.0779
22506SOL     OW74122  10.733   0.594  10.261  0.2078  0.3911 -0.1581
22506SOL    HW174123  10.752   0.656  10.190  2.2363 -1.0594 -0.9834
22506SOL    HW274124  10.802   0.611  10.326 -0.8846  0.8429  0.9226
22507SOL     OW74125   0.653   1.222   7.645  0.3042  0.3038  0.4282
22507SOL    HW174126   0.724   1.269   7.688 -0.1575  0.4658  1.0432
22507SOL    HW274127   0.685   1.132   7.638  0.6232  0.4034  0.5823
22508SOL     OW74128  10.638   9.689   2.766  0.0987  0.7239  0.4534
22508SOL    HW174129  10.610   9.696   2.675 -0.0205 -1.0122  0.3195
22508SOL    HW274130  10.558   9.702   2.817 -0.2261 -0.2405  0.2150
22509SOL     OW74131  11.119  10.053  10.402  0.3564 -0.7930 -0.1257
22509SOL    HW174132  11.193  10.095  10.445 -0.1858 -0.0269  0.0729
22509SOL    HW274133  11.109   9.969  10.448  0.8330 -0.7179  0.1186
22510SOL     OW74134   2.243   7.198   4.658 -0.0520  0.1490  0.1626
22510SOL    HW174135   2.169   7.240   4.702 -0.8302 -0.1847 -0.7863
22510SOL    HW274136   2.231   7.105   4.675  2.1724  0.2507  3.0455
22511SOL     OW74137   4.300   7.649  11.754 -1.2137  0.0939 -0.0645
22511SOL    HW174138   4.373   7.631  11.694  0.2066 -1.0251  1.9104
22511SOL    HW274139   4.280   7.741  11.739  1.4498  0.8110  0.1401
22512SOL     OW74140   8.699   7.019   7.673  0.5542  0.6309  0.4139
22512SOL    HW174141   8.665   6.973   7.750  0.5930  0.8079  0.5388
22512SOL    HW274142   8.676   6.963   7.599 -1.2761  1.3995  0.3419
22513SOL     OW74143   0.093   8.409   1.671  0.0020 -0.0090 -0.4855
22513SOL    HW174144   0.105   8.317   1.695 -1.0809  0.0176  0.2314
22513SOL    HW274145   0.082   8.408   1.576 -0.2985 -0.6570 -0.4470
22514SOL     OW74146   2.026   4.231   6.263 -0.1009 -0.3410 -0.3023
22514SOL    HW174147   2.046   4.301   6.200  1.8827 -0.9654 -0.4507
22514SOL    HW274148   2.010   4.154   6.210 -0.5777 -0.3843 -0.0968
22515SOL     OW74149   7.353   9.567   3.326  0.5263 -0.0816  0.3287
22515SOL    HW174150   7.420   9.532   3.267  1.0509 -0.7821  1.3049
22515SOL    HW274151   7.351   9.505   3.399  0.0500  0.8650  1.1432
22516SOL     OW74152   4.959   5.724   3.569  0.7060  0.5332  0.0174
22516SOL    HW174153   5.036   5.776   3.544  0.1369  0.2467 -2.5299
22516SOL    HW274154   4.889   5.756   3.513  0.2277 -2.6565 -1.3588
22517SOL     OW74155  10.771   8.263  10.079 -0.0693 -0.2033  0.0792
22517SOL    HW174156  10.815   8.347  10.067 -0.6068 -0.2323 -2.9271
22517SOL    HW274157  10.831   8.198  10.042  0.1356 -1.1637  1.9305
22518SOL     OW74158   2.155  11.277  11.237  0.5736 -0.2146 -0.1100
22518SOL    HW174159   2.065  11.245  11.228 -0.1075  1.7116 -0.7568
22518SOL    HW274160   2.194  11.264  11.150 -0.1309  1.7639 -0.7827
22519SOL     OW74161  10.264   4.727   3.898 -0.2968  0.0286  0.2680
22519SOL    HW174162  10.204   4.756   3.829  0.7805  1.4468 -0.1192
22519SOL    HW274163  10.239   4.778   3.975  1.0956  1.4978 -0.2017
22520SOL     OW74164   4.036  12.560   7.763  0.0041  0.0223 -0.2995
22520SOL    HW174165   3.981  12.512   7.826 -2.4102  2.5237 -0.3126
22520SOL    HW274166   4.017  12.519   7.679 -0.6464 -0.1535 -0.0768
22521SOL     OW74167   4.713   4.326   8.835 -0.2503 -0.4824  0.4332
22521SOL    HW174168   4.685   4.341   8.926  0.2079  0.0302  0.4994
22521SOL    HW274169   4.635   4.342   8.783  0.0712  1.8409  0.5402
22522SOL     OW74170   5.269   1.829   0.547 -0.0268 -0.3496 -0.2785
22522SOL    HW174171   5.310   1.915   0.548 -1.6296  0.5146 -2.1816
22522SOL    HW274172   5.182   1.843   0.584 -0.0483 -1.3298  0.0807
22523SOL     OW74173   3.591   3.990  12.486  0.2173 -0.5159  0.2375
22523SOL    HW174174   3.631   3.926  12.427  1.6401  1.5663 -1.2001
22523SOL    HW274175   3.561   4.061  12.428 -0.4350  0.5750  1.8319
22524SOL     OW74176   5.048   4.110   2.373 -1.0252 -0.1227  0.1163
22524SOL    HW174177   4.992   4.168   2.321  0.1462 -0.1383 -1.2227
22524SOL    HW274178   4.991   4.038   2.399 -1.7511  0.1101 -0.7850
22525SOL     OW74179   4.735   2.928   7.309  0.3496 -0.5770 -0.4641
22525SOL    HW174180   4.763   2.887   7.228  0.2779 -0.4546 -0.5512
22525SOL    HW274181   4.725   3.021   7.287  0.1965 -0.5657 -0.3514
22526SOL     OW74182   4.638   4.746   2.744  0.1109  0.2602 -0.6881
22526SOL    HW174183   4.691   4.814   2.703  0.3922  0.4373 -0.0518
22526SOL    HW274184   4.556   4.791   2.768  0.0772  0.2393 -0.7641
22527SOL     OW74185   1.253   8.249   4.515  0.3599 -0.1376  0.5890
22527SOL    HW174186   1.273   8.307   4.441 -1.5492  0.9039  0.8185
22527SOL    HW274187   1.192   8.300   4.569 -0.9523 -2.1370  1.1079
22528SOL     OW74188   3.113   3.662   6.838  0.1472  0.4154  0.5381
22528SOL    HW174189   3.099   3.616   6.920 -1.6440  2.0977  1.2500
22528SOL    HW274190   3.034   3.644   6.786  0.1158  1.3969  0.2216
22529SOL     OW74191   4.674   0.563  12.110  0.2347 -0.1226  0.1823
22529SOL    HW174192   4.764   0.531  12.116  0.5191  0.8477  1.7816
22529SOL    HW274193   4.665   0.622  12.185 -1.3686  0.7303 -0.6275
22530SOL     OW74194  10.844  11.916  11.258  0.0901 -0.1528  0.0137
22530SOL    HW174195  10.767  11.968  11.282 -0.9572  0.4088 -3.8461
22530SOL    HW274196  10.906  11.981  11.223 -0.0277 -1.0743 -2.0691
22531SOL     OW74197  10.618   7.350   6.047  0.0445 -0.1361 -0.3896
22531SOL    HW174198  10.655   7.357   6.136  0.8133  0.9558 -0.7712
22531SOL    HW274199  10.542   7.408   6.049 -0.9330 -1.3853  0.0143
22532SOL     OW74200   6.895   1.820   0.899  0.4689  0.2614 -0.5631
22532SOL    HW174201   6.898   1.870   0.818  0.1061  0.4235 -0.4779
22532SOL    HW274202   6.812   1.773   0.895  1.1026 -0.8576 -0.9465
22533SOL     OW74203  11.480   4.493   0.183 -0.1343  0.0864  0.2637
22533SOL    HW174204  11.543   4.423   0.169  0.6894  0.7845  0.4005
22533SOL    HW274205  11.411   4.453   0.235 -0.3946 -0.9978 -0.8640
22534SOL     OW74206  12.172  11.938  12.660 -0.0473 -0.3692 -0.2489
22534SOL    HW174207  12.267  11.929  12.656  0.1502  0.9522  0.8857
22534SOL    HW274208  12.139  11.863  12.610  1.5927 -0.2363 -1.6375
22535SOL     OW74209   2.899   4.262   9.521 -0.8397  0.6159  0.0949
22535SOL    HW174210   2.868   4.224   9.604 -1.0193  1.7409  0.5519
22535SOL    HW274211   2.903   4.356   9.537 -1.9340  0.9760 -1.5162
22536SOL     OW74212   2.479   4.623   6.449  0.1136  0.2183  0.5447
22536SOL    HW174213   2.398   4.572   6.448 -1.1713  2.1374  1.6636
22536SOL    HW274214   2.521   4.600   6.531 -0.0380  0.3066  0.6479
22537SOL     OW74215   9.610   9.227   1.290  1.0094 -0.3362 -0.4074
22537SOL    HW174216   9.520   9.208   1.262  0.7258 -1.0023  0.8641
22537SOL    HW274217   9.651   9.268   1.214 -0.6576  0.8995 -0.7023
22538SOL     OW74218   7.361   8.672   6.384  0.2368 -0.9264 -0.4950
22538SOL    HW174219   7.270   8.672   6.414 -0.6501 -0.8361 -2.9711
22538SOL    HW274220   7.412   8.694   6.462 -1.8745 -0.6794  0.8911
22539SOL     OW74221   6.803  11.851   9.693 -0.4359  0.2738 -0.5343
22539SOL    HW174222   6.890  11.854   9.732 -0.2646 -0.6416 -0.8286
22539SOL    HW274223   6.762  11.772   9.729 -0.6240 -0.0675 -1.4683
22540SOL     OW74224   5.491   4.311   9.489 -0.2519  0.1667  0.1085
22540SOL    HW174225   5.442   4.280   9.413  1.5903 -0.6531 -0.8041
22540SOL    HW274226   5.424   4.348   9.547 -1.7250  0.8548 -1.8997
22541SOL     OW74227  11.156   0.372  10.984 -0.1546  0.2487 -0.0829
22541SOL    HW174228  11.165   0.279  10.962 -1.1426  0.0315  0.3949
22541SOL    HW274229  11.132   0.414  10.901 -1.6851 -0.2338  0.0944
22542SOL     OW74230   9.039  12.553   1.194  0.2267  0.6754  0.3345
22542SOL    HW174231   9.075  12.550   1.283  3.3049 -1.0254 -0.8075
22542SOL    HW274232   8.998  12.468   1.182  0.1452  0.7601  0.0023
22543SOL     OW74233   9.201   0.442   7.462 -0.4226  0.3627 -0.1062
22543SOL    HW174234   9.169   0.529   7.437 -1.2136  0.7117  1.9590
22543SOL    HW274235   9.279   0.459   7.515 -0.5232 -0.1956  0.2225
22544SOL     OW74236   7.550   2.983   1.276  0.5274  0.0872 -0.1785
22544SOL    HW174237   7.612   2.909   1.275  0.0897 -0.3172  1.1196
22544SOL    HW274238   7.605   3.059   1.295  0.7041 -0.2120  0.5568
22545SOL     OW74239   7.453   7.920  11.754  0.3061  0.7833  0.3553
22545SOL    HW174240   7.440   8.002  11.707 -0.2567  0.1840 -0.5749
22545SOL    HW274241   7.514   7.941  11.824 -0.6485  2.2434  0.7977
22546SOL     OW74242   5.224   1.062   8.116  0.4112  0.2568 -0.0845
22546SOL    HW174243   5.280   1.081   8.040 -0.2227  0.6767 -0.4553
22546SOL    HW274244   5.192   0.973   8.100  3.2878 -1.2442  1.5960
22547SOL     OW74245   4.365   1.078   4.526 -0.1728  0.1357 -0.0338
22547SOL    HW174246   4.349   1.084   4.621 -0.6285  1.3540 -0.1725
22547SOL    HW274247   4.280   1.095   4.486  0.1882  0.4560 -0.6804
22548SOL     OW74248   3.475   5.350   1.678 -0.1352  0.2588 -0.5343
22548SOL    HW174249   3.551   5.317   1.630 -0.0085  0.3686 -0.4106
22548SOL    HW274250   3.456   5.435   1.639 -1.2656 -0.5043 -1.7331
22549SOL     OW74251   3.858   3.336   5.541 -0.4369 -0.1726 -0.5453
22549SOL    HW174252   3.800   3.344   5.617  1.1474  1.9949  0.5384
22549SOL    HW274253   3.879   3.242   5.537 -0.9378 -0.4113  1.3917
22550SOL     OW74254  12.690   6.106   9.340  0.2572  1.0242 -0.4169
22550SOL    HW174255  12.695   6.194   9.304 -0.0630  0.8752 -0.8276
22550SOL    HW274256  12.757   6.056   9.293 -0.6093  0.6629 -1.2917
22551SOL     OW74257   1.322   7.054   7.246  0.3699 -0.0728  0.4024
22551SOL    HW174258   1.398   7.038   7.302 -0.5891  0.5808  1.9808
22551SOL    HW274259   1.358   7.080   7.162  1.9130 -3.6333 -0.1908
22552SOL     OW74260   6.094   1.623  11.988  0.5069 -0.3533  0.4564
22552SOL    HW174261   6.171   1.675  12.013  0.0638  0.1712  0.7355
22552SOL    HW274262   6.096   1.623  11.892 -0.0524  1.0567  0.4220
22553SOL     OW74263   9.199   7.197   8.341  0.4797  0.3160  0.3167
22553SOL    HW174264   9.202   7.228   8.431 -0.5104  0.5573  0.2781
22553SOL    HW274265   9.106   7.197   8.319  0.7120  0.2405 -0.6976
22554SOL     OW74266   2.795  12.168   3.312 -0.2127  0.2221 -0.6051
22554SOL    HW174267   2.890  12.158   3.315  0.2470  3.4228 -1.0938
22554SOL    HW274268   2.764  12.088   3.269  1.7866 -2.6586  2.7804
22555SOL     OW74269   2.750   7.783   0.930  0.2534 -0.7396  0.1045
22555SOL    HW174270   2.768   7.761   0.839  3.7504 -0.8437  0.6678
22555SOL    HW274271   2.745   7.879   0.931 -1.0064 -0.7860 -0.3299
22556SOL     OW74272   5.732  10.479   3.238  0.0642  0.0527 -0.0200
22556SOL    HW174273   5.652  10.430   3.259  0.9896 -1.8274 -0.6826
22556SOL    HW274274   5.753  10.525   3.319 -1.9692  1.0542  0.0085
22557SOL     OW74275   4.341   3.825   1.454  0.0562  0.4718 -0.4169
22557SOL    HW174276   4.326   3.841   1.547  0.0931  1.2106 -0.5294
22557SOL    HW274277   4.430   3.791   1.449 -1.1039 -2.9925  0.1617
22558SOL     OW74278  12.518   0.035  10.161  0.0790  0.1878  0.1622
22558SOL    HW174279  12.475   0.117  10.185 -0.0066  0.1718  0.0626
22558SOL    HW274280  12.504  -0.022  10.236  1.4237  0.7515  0.8832
22559SOL     OW74281   1.853  11.537  10.451  0.1826  0.0125  0.3958
22559SOL    HW174282   1.852  11.509  10.360 -0.1759 -0.9656  0.6896
22559SOL    HW274283   1.893  11.624  10.449  1.6002 -0.6351 -0.5000
22560SOL     OW74284   9.148   2.942   3.080 -0.2523 -0.0989 -0.1670
22560SOL    HW174285   9.156   2.984   2.994 -2.8893  1.6137  0.2965
22560SOL    HW274286   9.067   2.892   3.073  0.7251 -1.8567  0.6360
22561SOL     OW74287   0.696   7.950   0.622 -0.4561 -0.3685 -0.3682
22561SOL    HW174288   0.750   7.934   0.699 -0.5643 -0.0878 -0.2298
22561SOL    HW274289   0.754   7.935   0.548 -0.6576 -1.7611 -0.2669
22562SOL     OW74290   3.795   9.797   1.027 -0.6176  0.0465  0.2278
22562SOL    HW174291   3.806   9.704   1.046  1.1075  0.3636  0.9882
22562SOL    HW274292   3.705   9.816   1.053 -0.4101 -1.0228  1.9143
22563SOL     OW74293   5.714   7.928  12.457  0.2853  0.2308 -0.4598
22563SOL    HW174294   5.778   7.982  12.410  1.7363  0.3668  1.5579
22563SOL    HW274295   5.720   7.843  12.414 -0.3122  0.9817 -2.1450
22564SOL     OW74296   3.504   9.873   3.077 -0.4906 -0.3670  0.0056
22564SOL    HW174297   3.420   9.878   3.032  0.1393  0.9357 -1.0885
22564SOL    HW274298   3.549   9.954   3.055  0.2119 -0.0306  2.3428
22565SOL     OW74299   2.144   5.281   3.663  0.1458  0.7919 -0.0644
22565SOL    HW174300   2.228   5.307   3.627  1.0115 -0.1429  1.1800
22565SOL    HW274301   2.084   5.285   3.589  1.4224  0.8442 -1.1351
22566SOL     OW74302  12.134   5.388   9.151  0.2403  0.8753  0.3625
22566SOL    HW174303  12.114   5.324   9.082  0.6161 -0.7143  1.6733
22566SOL    HW274304  12.048   5.419   9.179 -0.0113  0.1239  0.4521
22567SOL     OW74305   7.680   2.126   0.733  0.0327 -0.2344  0.8333
22567SOL    HW174306   7.704   2.186   0.804 -1.3053  1.0212  0.2829
22567SOL    HW274307   7.663   2.043   0.777 -0.9916  0.5737  2.0409
22568SOL     OW74308   2.926   7.932   5.287  0.0819 -0.3644  0.4272
22568SOL    HW174309   2.899   8.023   5.277 -0.6141 -0.4420  1.4052
22568SOL    HW274310   2.894   7.887   5.209  1.3691  0.4210 -0.5817
22569SOL     OW74311   8.535   4.891   3.682 -0.1579  0.5175 -0.1417
22569SOL    HW174312   8.526   4.812   3.628  0.1867  0.2441  0.1904
22569SOL    HW274313   8.536   4.963   3.619 -2.1020  0.4050 -0.3512
22570SOL     OW74314   3.136   6.661   8.307 -0.0358 -0.0717 -0.1212
22570SOL    HW174315   3.128   6.602   8.382 -2.4167 -1.5746 -1.4531
22570SOL    HW274316   3.230   6.680   8.302  0.1763  0.5668  3.5286
22571SOL     OW74317   9.204   3.559   1.796  0.4127 -0.5962  0.4512
22571SOL    HW174318   9.166   3.541   1.710  3.0210 -1.6453 -0.5919
22571SOL    HW274319   9.226   3.652   1.793  0.2110 -0.5577  0.0941
22572SOL     OW74320   9.588  11.492   4.804  0.0354  0.0245 -0.6772
22572SOL    HW174321   9.541  11.514   4.724  0.9207 -2.3441 -1.9534
22572SOL    HW274322   9.677  11.470   4.775  1.0872  1.3548  1.2734
22573SOL     OW74323   1.509   9.199   1.567  0.3320  0.1026 -0.1841
22573SOL    HW174324   1.426   9.184   1.521  0.1439 -0.6775  0.3854
22573SOL    HW274325   1.485   9.247   1.646  0.7058  1.8223 -1.0644
22574SOL     OW74326   5.409   1.177   9.839 -0.3466  0.3470  0.0309
22574SOL    HW174327   5.438   1.151   9.927 -0.4940  1.2153  0.3458
22574SOL    HW274328   5.339   1.117   9.818 -1.7986  1.4633  1.4324
22575SOL     OW74329   7.105  12.577   7.925 -0.1530  0.1946  0.4007
22575SOL    HW174330   7.027  12.568   7.870  0.3873 -0.1861 -0.3164
22575SOL    HW274331   7.165  12.509   7.893 -0.7030 -1.6320  2.9842
22576SOL     OW74332   3.186   7.926  12.196  0.0775  0.1010 -0.3998
22576SOL    HW174333   3.250   7.953  12.131 -1.2407  1.0413 -1.3567
22576SOL    HW274334   3.202   7.984  12.271  1.2232 -0.6022 -0.0812
22577SOL     OW74335   6.002   8.738   6.285 -0.4250 -0.2588  0.7660
22577SOL    HW174336   5.910   8.723   6.262 -0.0470  0.7235 -1.7106
22577SOL    HW274337   6.011   8.703   6.374 -3.4086  0.4474  1.4575
22578SOL     OW74338   0.530   5.312   9.571  0.5551 -1.0525  0.1032
22578SOL    HW174339   0.620   5.318   9.605  0.5076  2.8739  0.0353
22578SOL    HW274340   0.540   5.308   9.476  0.7210  0.2607  0.0456
22579SOL     OW74341  11.319   8.670   1.115 -0.3266  0.0308 -0.1294
22579SOL    HW174342  11.312   8.763   1.091 -0.6374  0.0050 -0.1467
22579SOL    HW274343  11.284   8.666   1.204 -2.8865 -0.4822 -1.0752
22580SOL     OW74344   5.178   6.861   9.226 -0.0072 -0.2575 -0.3804
22580SOL    HW174345   5.094   6.893   9.261 -0.9099 -0.3747 -2.3098
22580SOL    HW274346   5.199   6.785   9.280 -0.5601  0.4232  0.8466
22581SOL     OW74347   4.613  10.151   5.255  0.1857  0.3991  0.2725
22581SOL    HW174348   4.636  10.177   5.166  0.1935 -0.7047 -0.0735
22581SOL    HW274349   4.588  10.059   5.247 -1.1985  0.6747  1.1926
22582SOL     OW74350   9.236  12.511   1.698 -0.0904 -0.0292 -0.2305
22582SOL    HW174351   9.263  12.541   1.785  0.8768  0.6236 -0.7491
22582SOL    HW274352   9.287  12.563   1.637  1.2187 -2.2984 -1.1966
22583SOL     OW74353   7.420  11.350   1.759 -0.2592 -0.6627  0.2234
22583SOL    HW174354   7.407  11.426   1.817  2.0046  0.5731 -0.7435
22583SOL    HW274355   7.384  11.379   1.675  1.0465 -0.4132 -0.2766
22584SOL     OW74356  10.395   1.335   3.273 -0.0355  0.6732 -0.4674
22584SOL    HW174357  10.332   1.276   3.231  1.4502  0.4472 -2.4874
22584SOL    HW274358  10.417   1.399   3.206 -0.0635  2.3722  1.0517
22585SOL     OW74359  12.084  12.686   1.847  0.2333 -0.9647 -0.1212
22585SOL    HW174360  12.179  12.689   1.835  0.1500  0.9234 -0.5912
22585SOL    HW274361  12.069  12.725   1.933 -0.1541 -0.8980 -0.2179
22586SOL     OW74362   7.391   9.598  10.276  1.1229  0.2241 -0.6591
22586SOL    HW174363   7.458   9.553  10.224  1.9324  0.7579 -0.0850
22586SOL    HW274364   7.399   9.560  10.364  1.6693  1.3199 -0.2224
22587SOL     OW74365   5.931   1.835   1.418 -0.0880 -1.0856 -0.5900
22587SOL    HW174366   5.877   1.799   1.347 -0.7881  0.0155 -0.6368
22587SOL    HW274367   5.876   1.826   1.496 -1.4535  2.2758 -1.0136
22588SOL     OW74368   5.821   7.860   9.899  0.1005 -0.2239 -0.5255
22588SOL    HW174369   5.868   7.910   9.833  0.7535  0.7563  0.6314
22588SOL    HW274370   5.853   7.895   9.982  0.9942 -2.9550  0.3756
22589SOL     OW74371   3.932  10.872   8.419 -0.0548  0.3242 -0.1415
22589SOL    HW174372   3.897  10.958   8.443  2.0671  1.8392 -2.0129
22589SOL    HW274373   3.869  10.837   8.356 -0.5938  0.8007  0.1218
22590SOL     OW74374   5.620  11.012   8.777 -0.0991  1.1351  0.0240
22590SOL    HW174375   5.713  11.000   8.796 -0.3101 -0.9548  0.0656
22590SOL    HW274376   5.607  11.106   8.772  1.8352  1.4826  0.9280
22591SOL     OW74377   4.804  11.562   0.747 -0.3832  0.0796  0.0730
22591SOL    HW174378   4.818  11.651   0.780 -0.6892 -0.3616  1.4642
22591SOL    HW274379   4.887  11.539   0.705 -0.7246  1.4638 -1.4665
22592SOL     OW74380   4.372  11.540   1.225  0.2089 -0.1559  0.1779
22592SOL    HW174381   4.326  11.606   1.173 -0.7134 -0.6155  0.3974
22592SOL    HW274382   4.465  11.553   1.203 -0.1510 -0.4777 -1.7460
22593SOL     OW74383  11.028   6.512  11.653 -0.2089  0.0704  0.7363
22593SOL    HW174384  10.947   6.558  11.632  0.2028  0.8965  0.9082
22593SOL    HW274385  11.029   6.437  11.593 -0.8684  0.3045  0.4156
22594SOL     OW74386   1.449   6.738   8.132 -0.0992  0.1661 -0.3029
22594SOL    HW174387   1.482   6.803   8.070 -0.0718  2.3808  1.8611
22594SOL    HW274388   1.520   6.675   8.141 -0.1041 -0.2208 -2.4362
22595SOL     OW74389   0.076   4.742  10.641  0.1118 -0.1578 -0.5262
22595SOL    HW174390   0.068   4.649  10.659  1.3590  0.1451  1.8932
22595SOL    HW274391   0.097   4.746  10.547  0.4032 -2.2999 -0.6038
22596SOL     OW74392   5.406   2.237   3.045  0.4743 -0.1165 -0.3423
22596SOL    HW174393   5.375   2.204   2.961 -0.8850  0.0262  0.0831
22596SOL    HW274394   5.394   2.164   3.106  0.0669  0.2463  0.0248
22597SOL     OW74395   3.660   4.723  11.176  0.2600 -0.4313 -0.3255
22597SOL    HW174396   3.644   4.780  11.252  1.7625 -0.5611  0.1307
22597SOL    HW274397   3.701   4.644  11.214  0.6515 -0.6717 -1.2215
22598SOL     OW74398   3.915  11.443   1.733  0.1242 -0.8893 -0.3308
22598SOL    HW174399   3.997  11.409   1.698  2.8381  2.4169  2.0852
22598SOL    HW274400   3.917  11.420   1.826 -0.6647  0.8792  0.1816
22599SOL     OW74401   2.318   6.762   4.536  0.0191  0.1226  0.0320
22599SOL    HW174402   2.404   6.752   4.576  0.1201 -1.5068 -0.5195
22599SOL    HW274403   2.331   6.828   4.467  1.1412 -0.9995 -0.8675
22600SOL     OW74404  11.254  11.395   9.470 -0.1596 -0.5463 -0.1297
22600SOL    HW174405  11.287  11.347   9.546  1.4281 -2.2082 -1.7833
22600SOL    HW274406  11.194  11.333   9.428 -2.1528  0.8795  0.4713
22601SOL     OW74407   1.614   6.998   6.187 -0.2839 -0.1323 -0.2491
22601SOL    HW174408   1.640   6.906   6.181 -0.6390 -0.2887  0.6104
22601SOL    HW274409   1.519   6.996   6.195 -0.2110  0.2549  0.8761
22602SOL     OW74410   1.241   3.337   7.534  0.1189 -0.5494 -0.5060
22602SOL    HW174411   1.174   3.318   7.600  1.4885 -2.4252  0.4109
22602SOL    HW274412   1.231   3.431   7.517 -1.1526 -0.2903  1.3863
22603SOL     OW74413   0.785   1.970   7.287 -0.0142 -0.2098  0.2197
22603SOL    HW174414   0.805   2.063   7.277  0.8938 -0.4622 -0.4192
22603SOL    HW274415   0.721   1.951   7.218  0.1948 -0.1780  0.0182
22604SOL     OW74416   9.456  12.639   6.120 -0.0147  0.3657 -0.0338
22604SOL    HW174417   9.418  12.551   6.131  0.5387  0.0965 -0.2575
22604SOL    HW274418   9.547  12.629   6.147 -0.1110  1.0261  0.5538
22605SOL     OW74419   2.889   0.256   2.638 -0.5231  0.2155 -0.5139
22605SOL    HW174420   2.914   0.326   2.578  0.1740  1.4911  1.1996
22605SOL    HW274421   2.806   0.223   2.603 -0.6066  1.5410 -1.6379
22606SOL     OW74422  10.096   0.223   8.247  0.2647  0.0592 -0.2606
22606SOL    HW174423  10.088   0.278   8.169 -0.0992 -1.5453 -1.3866
22606SOL    HW274424  10.015   0.172   8.249 -0.1925  0.7761  1.7501
22607SOL     OW74425   6.063   7.429   7.628  0.2443  0.6712  0.1675
22607SOL    HW174426   6.103   7.502   7.674  0.7777 -0.3535  1.3967
22607SOL    HW274427   5.983   7.410   7.677  1.4867 -1.2888  1.6046
22608SOL     OW74428   5.436   5.184  11.507  0.0867 -0.3846  0.3387
22608SOL    HW174429   5.448   5.268  11.551 -1.1040  1.0883 -1.9119
22608SOL    HW274430   5.362   5.143  11.552  0.6739 -0.2261  1.4603
22609SOL     OW74431   6.119   6.076   6.874  0.6599  0.3228 -0.1795
22609SOL    HW174432   6.186   6.093   6.807  0.5299 -0.2129 -0.4511
22609SOL    HW274433   6.122   5.982   6.887  0.3483  0.3675  0.2221
22610SOL     OW74434   6.551   4.646   7.297  0.1961  0.1201 -0.5359
22610SOL    HW174435   6.613   4.638   7.369 -1.3714  0.0240  0.8656
22610SOL    HW274436   6.603   4.630   7.218  1.9913  0.3778  0.5482
22611SOL     OW74437  11.689  12.633   2.265 -0.2927  0.8700  0.1570
22611SOL    HW174438  11.658  12.566   2.205 -1.6148  0.3491  1.3790
22611SOL    HW274439  11.776  12.603   2.293 -1.1611 -0.7547  1.2446
22612SOL     OW74440   7.061   8.840   7.595 -0.2270 -0.1316  0.0380
22612SOL    HW174441   6.982   8.785   7.598 -0.5490  0.3268  2.3825
22612SOL    HW274442   7.069   8.874   7.684  1.7721  1.0806 -0.5453
22613SOL     OW74443   2.739   2.189   0.602  0.7536 -0.0441  0.1405
22613SOL    HW174444   2.663   2.242   0.577  0.5523  1.2435  3.0305
22613SOL    HW274445   2.703   2.105   0.627  0.3914  0.1973  0.4419
22614SOL     OW74446  11.370   7.282  11.279 -0.2625 -0.2873  0.3135
22614SOL    HW174447  11.337   7.244  11.197  0.1088 -2.6909  1.1877
22614SOL    HW274448  11.360   7.212  11.343 -0.0890  1.3770  2.2393
22615SOL     OW74449   3.974   9.222   1.540 -0.6737 -0.3130  0.0974
22615SOL    HW174450   3.976   9.215   1.444 -0.5019 -0.0133  0.0807
22615SOL    HW274451   3.951   9.313   1.557 -2.7804 -0.8516  0.3391
22616SOL     OW74452   5.728   8.156   0.721  0.3714 -0.0865  0.8660
22616SOL    HW174453   5.780   8.159   0.640 -1.7385  0.6501 -0.5533
22616SOL    HW274454   5.757   8.076   0.765  2.8319  0.4174  0.2981
22617SOL     OW74455   1.700   0.193   3.603 -0.5313 -0.1370  0.1255
22617SOL    HW174456   1.636   0.261   3.582 -1.2346 -0.0553  2.2668
22617SOL    HW274457   1.772   0.208   3.542 -0.9605  2.1131  0.0791
22618SOL     OW74458   9.505   5.101  10.886  0.5604  0.3128 -0.2836
22618SOL    HW174459   9.465   5.122  10.802 -1.8955 -0.2503  0.6366
22618SOL    HW274460   9.494   5.181  10.938 -1.7325 -0.5665  0.7412
22619SOL     OW74461   6.416   8.786   7.269  1.0557  0.1409 -0.6355
22619SOL    HW174462   6.441   8.701   7.305 -1.4536 -0.4814 -0.1745
22619SOL    HW274463   6.412   8.844   7.345  2.1900  0.5335 -0.8679
22620SOL     OW74464   5.196   8.743   8.481  0.1268 -0.4436 -0.3903
22620SOL    HW174465   5.214   8.710   8.393  1.7348  0.9218 -0.6173
22620SOL    HW274466   5.190   8.838   8.470 -2.3127 -0.4105  0.5724
22621SOL     OW74467   4.448   0.498   7.272  0.7356 -0.0386  0.4361
22621SOL    HW174468   4.465   0.587   7.301 -1.7234  0.7697 -0.3914
22621SOL    HW274469   4.437   0.505   7.177  0.8809 -1.3140  0.3058
22622SOL     OW74470   1.492   4.571   0.012 -0.0963  0.4015  0.1006
22622SOL    HW174471   1.427   4.589  -0.057 -0.0573  1.1024  0.2438
22622SOL    HW274472   1.439   4.553   0.090 -0.1300  0.0501  0.0021
22623SOL     OW74473   9.830   4.682  11.485 -0.0643 -0.1805 -0.0623
22623SOL    HW174474   9.807   4.774  11.475 -1.7746 -0.3526  1.6393
22623SOL    HW274475   9.925   4.682  11.500 -0.2094  1.4380  1.0878
22624SOL     OW74476   0.206   6.560   8.398  0.1237 -0.1726 -0.0883
22624SOL    HW174477   0.289   6.517   8.417  1.3723  2.4006  0.7520
22624SOL    HW274478   0.175   6.591   8.483 -1.0547  0.0039 -0.5659
22625SOL     OW74479   1.525   7.546   6.958  0.2693  0.0304  0.3433
22625SOL    HW174480   1.514   7.588   7.043 -0.5882 -0.5406  0.5189
22625SOL    HW274481   1.556   7.458   6.978  1.2526  0.2817  0.0059
22626SOL     OW74482   8.002   8.711  11.752  0.1476 -0.1198 -0.2424
22626SOL    HW174483   8.012   8.806  11.749  0.5341 -0.1579 -0.2437
22626SOL    HW274484   7.988   8.686  11.660 -1.1573  0.0530 -0.1104
22627SOL     OW74485   0.426  10.655   8.832  0.3303 -0.5084  0.2985
22627SOL    HW174486   0.388  10.569   8.850  0.7139 -0.5062  1.2079
22627SOL    HW274487   0.361  10.717   8.865  0.6679 -0.4887  0.9597
22628SOL     OW74488   5.864   3.335  12.287 -0.0676  0.3356 -0.7799
22628SOL    HW174489   5.894   3.426  12.275 -0.7779  0.3375 -3.0208
22628SOL    HW274490   5.942   3.282  12.274  0.0891  0.5705 -0.8053
22629SOL     OW74491  12.545   7.506   4.693  0.2393  0.2017 -0.1434
22629SOL    HW174492  12.562   7.461   4.610 -0.9288  1.8932 -1.3537
22629SOL    HW274493  12.632   7.529   4.726  0.7582 -1.1985 -0.4502
22630SOL     OW74494   1.560   9.778   8.734  0.0953  0.8230 -0.2617
22630SOL    HW174495   1.598   9.837   8.669 -1.8335  0.6509 -1.6044
22630SOL    HW274496   1.635   9.749   8.786  1.2591  3.5012 -0.3059
22631SOL     OW74497   1.144   1.319  12.334  0.1001  0.0975 -0.6965
22631SOL    HW174498   1.160   1.396  12.279  2.4032  0.6330  0.6018
22631SOL    HW274499   1.060   1.337  12.376 -0.1225  1.1815 -1.5544
22632SOL     OW74500   0.433   1.254   5.002 -0.1186  0.1329  0.2466
22632SOL    HW174501   0.434   1.343   5.039 -1.1287 -0.3433  1.5112
22632SOL    HW274502   0.427   1.267   4.908 -0.5025  1.4236  0.4297
22633SOL     OW74503   9.031   7.752   1.548  0.4413  0.2130  0.1894
22633SOL    HW174504   9.033   7.822   1.613  1.5972 -1.6165  2.2224
22633SOL    HW274505   9.103   7.773   1.488  1.2471  0.3733  1.2044
22634SOL     OW74506   1.550   0.960   1.597  0.1581 -0.2052  0.0344
22634SOL    HW174507   1.559   1.029   1.531 -1.0921  0.8694  0.9379
22634SOL    HW274508   1.639   0.926   1.608  0.6322  0.5789 -1.1373
22635SOL     OW74509  12.669  10.284  11.589 -0.0945 -0.7911 -0.1205
22635SOL    HW174510  12.708  10.253  11.507  0.5585 -0.4043  0.0420
22635SOL    HW274511  12.742  10.316  11.641 -0.7387  1.1832 -0.3441
22636SOL     OW74512   7.956  12.301   9.517  0.4736 -0.0551  0.0130
22636SOL    HW174513   7.969  12.311   9.611 -1.3178 -2.4683  0.6423
22636SOL    HW274514   7.957  12.206   9.503 -3.8317 -0.1129 -1.5399
22637SOL     OW74515   6.050   5.831   5.129 -0.4705 -0.0562 -0.4527
22637SOL    HW174516   6.041   5.747   5.084 -0.7344  0.4160 -1.2944
22637SOL    HW274517   6.145   5.847   5.130 -0.4018 -0.4659 -0.0883
22638SOL     OW74518   3.875   6.343   2.035 -0.4991  0.7947  0.2420
22638SOL    HW174519   3.883   6.350   1.939 -1.0631 -0.1256  0.1133
22638SOL    HW274520   3.814   6.271   2.048 -1.5513  1.8392  1.2882
22639SOL     OW74521  12.208   5.877   2.142  0.3652 -0.5279  0.2152
22639SOL    HW174522  12.183   5.956   2.190  1.0175 -0.5569  0.6173
22639SOL    HW274523  12.303   5.882   2.136  0.3178 -0.7225 -0.7548
22640SOL     OW74524  11.930  12.664   0.642 -0.1946 -0.0821  0.3329
22640SOL    HW174525  11.992  12.605   0.600  1.0368  1.5088 -0.1900
22640SOL    HW274526  11.864  12.682   0.576 -1.1911 -1.6596  0.8412
22641SOL     OW74527   6.834  12.284   8.232 -0.0735 -0.3540 -0.6846
22641SOL    HW174528   6.901  12.241   8.179 -0.4544 -2.2974  0.3067
22641SOL    HW274529   6.815  12.221   8.302 -2.9700  0.0518 -0.9770
22642SOL     OW74530   4.766   4.656   7.904  0.1783  0.1764 -0.0331
22642SOL    HW174531   4.744   4.587   7.841 -1.2950  0.8814 -0.3397
22642SOL    HW274532   4.797   4.729   7.851 -1.4557  0.9218 -0.0394
22643SOL     OW74533   1.999   3.665   0.137  0.0606 -0.1022 -0.1290
22643SOL    HW174534   2.050   3.746   0.137 -1.5867  1.0253 -1.6553
22643SOL    HW274535   1.949   3.668   0.219 -0.5480  0.8363 -0.5188
22644SOL     OW74536   8.084  10.046   0.125  0.9025  0.0224 -0.4062
22644SOL    HW174537   8.137  10.120   0.096 -1.4069  1.2262 -1.8640
22644SOL    HW274538   8.045  10.011   0.045 -2.8011  1.1099  0.7089
22645SOL     OW74539   5.121   6.961   6.722  0.8503 -0.2190 -0.0257
22645SOL    HW174540   5.092   6.885   6.771  2.8507 -1.8332 -1.1503
22645SOL    HW274541   5.216   6.951   6.717  1.3461  2.9724  0.7012
22646SOL     OW74542  10.753   2.863   2.770 -0.0204 -0.3417  0.3763
22646SOL    HW174543  10.714   2.809   2.839  1.0320  2.2338  3.2101
22646SOL    HW274544  10.831   2.814   2.743  0.9185 -0.3926  2.8564
22647SOL     OW74545  10.283   5.885   4.274 -0.3199  0.2429 -0.6749
22647SOL    HW174546  10.368   5.896   4.316 -0.3505 -1.5078 -0.0870
22647SOL    HW274547  10.226   5.948   4.320 -0.1544 -1.0545  1.4100
22648SOL     OW74548   5.083   7.314   2.077 -0.4077  0.3442  0.2650
22648SOL    HW174549   4.995   7.284   2.057  0.4190 -2.2417  0.1539
22648SOL    HW274550   5.091   7.305   2.172 -0.0258 -0.1641  0.1867
22649SOL     OW74551  11.001   2.727   4.987  0.2086  0.1646 -0.0408
22649SOL    HW174552  10.923   2.673   4.997 -0.6553  0.8835 -2.2487
22649SOL    HW274553  10.971   2.817   4.998  1.1933  0.3495  1.3483
22650SOL     OW74554  11.439   8.946   9.889  0.0309 -0.4936  0.2140
22650SOL    HW174555  11.529   8.917   9.872 -0.1996 -0.4232 -1.2822
22650SOL    HW274556  11.387   8.901   9.822 -0.6347  1.6755 -0.8305
22651SOL     OW74557   0.324   0.328   9.458  0.7925  0.1258  0.2495
22651SOL    HW174558   0.364   0.342   9.372 -0.2352  2.9697  0.1266
22651SOL    HW274559   0.346   0.407   9.507 -1.8973  0.3532  1.2414
22652SOL     OW74560   8.650   0.107   1.165  0.2265 -0.2635 -0.8168
22652SOL    HW174561   8.588   0.077   1.099 -0.8480 -0.2285  0.1284
22652SOL    HW274562   8.730   0.058   1.148  0.0342 -0.1255 -2.2272
22653SOL     OW74563  11.382   8.190   2.205  0.1647  0.1984 -0.1408
22653SOL    HW174564  11.407   8.269   2.253  0.2989  0.2597 -0.3120
22653SOL    HW274565  11.347   8.222   2.122  0.1405  0.0825 -0.1758
22654SOL     OW74566   4.521   0.745   0.314 -0.0905  0.1529  0.9633
22654SOL    HW174567   4.553   0.671   0.366 -1.0666 -2.0491 -1.3714
22654SOL    HW274568   4.428   0.753   0.338 -0.1613  0.1536  0.6915
22655SOL     OW74569   7.530   7.092   8.877 -0.2455 -0.1750 -0.3465
22655SOL    HW174570   7.498   7.051   8.957 -0.5829 -0.3952 -0.5897
22655SOL    HW274571   7.564   7.019   8.825 -0.8960 -0.1574 -0.8044
22656SOL     OW74572   5.347   2.006   9.559 -0.0695  0.6956 -0.4923
22656SOL    HW174573   5.318   2.073   9.622 -1.3834  0.7583 -1.1240
22656SOL    HW274574   5.279   2.006   9.491 -0.3100 -1.5266 -0.3385
22657SOL     OW74575  11.614   5.227   4.970 -0.1140  0.2224 -0.1431
22657SOL    HW174576  11.707   5.250   4.962  0.0392  0.9198  2.6161
22657SOL    HW274577  11.612   5.132   4.962  1.2153 -0.0423  1.8677
22658SOL     OW74578  10.904   4.357   3.583 -0.2522  0.1463  0.0080
22658SOL    HW174579  10.848   4.291   3.623 -1.5886  1.8684  1.1817
22658SOL    HW274580  10.849   4.397   3.515  0.4833  0.1426 -0.6047
22659SOL     OW74581  11.952   1.236   6.939 -0.0295 -0.2497 -0.5612
22659SOL    HW174582  11.954   1.315   6.886  0.3346  1.3084  1.6373
22659SOL    HW274583  11.865   1.200   6.925 -1.2931  2.1427  0.5325
22660SOL     OW74584  12.660   0.546   8.261  0.0519 -0.2786  0.5297
22660SOL    HW174585  12.627   0.609   8.197  0.2729 -0.6085  0.0819
22660SOL    HW274586  12.596   0.547   8.332 -0.5072 -0.3432  0.0308
22661SOL     OW74587   4.732   4.781   5.054  0.1822 -0.5270 -0.4453
22661SOL    HW174588   4.681   4.839   4.998  0.8835  0.5178 -0.0437
22661SOL    HW274589   4.778   4.840   5.113  0.8793 -1.5095  0.0183
22662SOL     OW74590   4.157   3.691   8.119 -0.1457  0.1967 -0.3948
22662SOL    HW174591   4.065   3.676   8.138 -0.0378  0.5444  0.4228
22662SOL    HW274592   4.162   3.785   8.101  0.3961  0.6002  1.6781
22663SOL     OW74593   3.557  11.158   6.483  0.2296  0.0340  0.1109
22663SOL    HW174594   3.527  11.134   6.395  2.6442  0.6582 -0.9793
22663SOL    HW274595   3.587  11.076   6.522  1.2896  0.0624 -0.5939
22664SOL     OW74596  10.761   8.159   1.318 -0.2228 -0.2725 -0.1116
22664SOL    HW174597  10.671   8.183   1.295  0.0228  0.6707 -0.1276
22664SOL    HW274598  10.757   8.137   1.411 -0.3763  0.2755  0.0160
22665SOL     OW74599   2.598   6.568   3.515  0.4173  0.3352 -0.2143
22665SOL    HW174600   2.571   6.633   3.580  1.2493  1.9172 -1.4033
22665SOL    HW274601   2.602   6.486   3.565 -1.5337  0.9659  1.1311
22666SOL     OW74602   2.568  10.903  10.039  0.0691 -0.0668 -0.3220
22666SOL    HW174603   2.528  10.950   9.966  1.2210  1.4350 -0.0455
22666SOL    HW274604   2.514  10.925  10.115  0.6261  0.9036 -0.1859
22667SOL     OW74605   0.746   3.839   0.487  0.2828 -0.8124  0.1119
22667SOL    HW174606   0.713   3.902   0.550  0.2231 -0.5942 -0.1354
22667SOL    HW274607   0.827   3.806   0.525 -1.0413 -2.6313  1.5846
22668SOL     OW74608   8.515  12.550   2.276 -0.1780  0.6370 -0.3601
22668SOL    HW174609   8.609  12.570   2.281  0.5109 -1.8808 -1.7740
22668SOL    HW274610   8.509  12.476   2.217 -3.0658  0.4464  0.0254
22669SOL     OW74611  12.773   4.124   6.508 -0.7912  0.0868 -0.0056
22669SOL    HW174612  12.860   4.094   6.482 -0.3428 -0.0019  1.5139
22669SOL    HW274613  12.789   4.204   6.558 -1.5994  0.1264  0.2069
22670SOL     OW74614   0.953  10.413   4.793 -0.3467 -0.2732 -0.1299
22670SOL    HW174615   1.034  10.363   4.806  0.0052  0.1608 -0.6527
22670SOL    HW274616   0.978  10.504   4.808 -1.1850 -0.2951  1.7500
22671SOL     OW74617   9.669  11.423   9.125  0.1269  0.0775  0.1521
22671SOL    HW174618   9.612  11.480   9.177 -0.3603 -1.5729  1.5486
22671SOL    HW274619   9.723  11.378   9.189  1.8156  0.3172 -1.0419
22672SOL     OW74620   6.162  10.640   2.834  0.3216  0.5788  0.2262
22672SOL    HW174621   6.139  10.712   2.894 -2.8783  0.1695 -0.3419
22672SOL    HW274622   6.135  10.671   2.748 -0.9322 -1.2041 -0.0586
22673SOL     OW74623  12.023   1.481   4.495  0.7469 -0.3408 -0.0689
22673SOL    HW174624  12.033   1.391   4.465 -0.9936 -0.4442 -0.4502
22673SOL    HW274625  12.081   1.488   4.571  1.9302 -1.3662 -0.8434
22674SOL     OW74626   7.947   6.623   9.625 -0.9478  0.0207 -0.1421
22674SOL    HW174627   7.938   6.566   9.548 -2.0130  0.7729 -0.6003
22674SOL    HW274628   7.859   6.657   9.639 -0.5030  0.8528  0.6730
22675SOL     OW74629  12.310   2.513  10.984  0.0804  0.0992  0.8806
22675SOL    HW174630  12.279   2.488  10.897 -0.0130 -1.5013  1.3417
22675SOL    HW274631  12.405   2.508  10.978  0.0701 -0.1433  0.8965
22676SOL     OW74632  11.527   2.296   3.791 -0.4828  0.0375  0.1407
22676SOL    HW174633  11.453   2.334   3.745 -1.2311  1.3510  2.2624
22676SOL    HW274634  11.505   2.203   3.800 -1.2494  0.1662 -0.3669
22677SOL     OW74635   3.906  12.055   2.325 -0.3114 -0.3602 -0.0229
22677SOL    HW174636   3.869  11.969   2.305 -0.1450 -0.7510  1.2638
22677SOL    HW274637   3.979  12.036   2.384  0.0224  0.6373 -0.1056
22678SOL     OW74638   2.065  12.010   1.360 -0.2212  0.1787 -0.2378
22678SOL    HW174639   2.113  11.974   1.285  1.4873  1.2371  0.3043
22678SOL    HW274640   2.084  11.950   1.432  0.2469  0.5580 -0.0409
22679SOL     OW74641   6.557   6.194   0.471 -0.6190 -0.3981 -0.2640
22679SOL    HW174642   6.581   6.276   0.427  0.2255 -0.0031  0.9007
22679SOL    HW274643   6.531   6.135   0.400  3.5915 -0.8228 -1.6972
22680SOL     OW74644   2.789   7.401   4.968 -0.1553 -0.0927 -0.1331
22680SOL    HW174645   2.826   7.438   5.048 -2.0145 -0.5860  1.0230
22680SOL    HW274646   2.781   7.476   4.909 -1.5276  0.9269  1.2538
22681SOL     OW74647   3.188   7.979   4.550  0.3530 -0.5011  0.1448
22681SOL    HW174648   3.259   8.041   4.531  0.6264 -0.2247  1.9004
22681SOL    HW274649   3.115   8.010   4.497  1.3070 -0.3571 -1.1513
22682SOL     OW74650   7.377   0.025   1.038 -0.2879 -0.0129  0.3683
22682SOL    HW174651   7.310   0.086   1.008  0.6054  1.1670  0.7166
22682SOL    HW274652   7.343  -0.011   1.120 -0.6492  0.3100  0.3592
22683SOL     OW74653  12.755   0.791  12.334  0.1003  0.0782 -0.3223
22683SOL    HW174654  12.676   0.751  12.370 -1.0365  1.1780 -1.4513
22683SOL    HW274655  12.809   0.811  12.411 -1.4839  0.8446  0.6519
22684SOL     OW74656   3.876   8.398  11.373  0.4111 -0.2314 -0.2804
22684SOL    HW174657   3.870   8.303  11.366 -0.1941 -0.2648  0.5645
22684SOL    HW274658   3.966   8.414  11.404  0.2209 -0.5889  0.4683
22685SOL     OW74659   1.205   8.043   6.573 -0.6184  0.0234  0.5279
22685SOL    HW174660   1.198   8.134   6.600  0.6684  0.4100 -0.3590
22685SOL    HW274661   1.298   8.030   6.556 -0.9568 -1.0898 -0.6136
22686SOL     OW74662   8.457   5.579   9.689 -0.1735  0.2027  0.6112
22686SOL    HW174663   8.455   5.512   9.757  0.4778 -1.2523 -0.7392
22686SOL    HW274664   8.380   5.561   9.635  0.7501 -0.3646 -0.5549
22687SOL     OW74665   3.472   7.330   3.551 -0.5717  0.2305  0.5321
22687SOL    HW174666   3.538   7.391   3.519  0.0417 -0.5226  0.3389
22687SOL    HW274667   3.486   7.250   3.500 -2.1658  0.3146 -0.0988
22688SOL     OW74668  11.886   9.328   3.683 -0.5059  0.1196  0.2041
22688SOL    HW174669  11.844   9.309   3.599 -0.6749  0.4822  0.2052
22688SOL    HW274670  11.939   9.251   3.701  0.2215  0.4071 -0.6554
22689SOL     OW74671   9.186   3.067   0.471 -0.2817 -0.1165  0.2045
22689SOL    HW174672   9.182   2.979   0.433 -0.4847 -0.5648  1.2315
22689SOL    HW274673   9.272   3.071   0.513  0.0832  0.5013 -0.5878
22690SOL     OW74674   6.905   9.050   3.081  0.0055  0.7799  0.6370
22690SOL    HW174675   6.878   9.137   3.112 -3.4531 -0.0518  0.2609
22690SOL    HW274676   6.851   9.033   3.005  1.6294 -1.1877 -0.1703
22691SOL     OW74677   6.876  10.539   3.041 -0.1553  0.6443  0.3593
22691SOL    HW174678   6.949  10.483   3.013  0.6538  2.0766 -0.5083
22691SOL    HW274679   6.851  10.587   2.962 -0.8682  1.4533  1.0583
22692SOL     OW74680   2.940   4.586   2.699  0.4449  0.4081 -0.2553
22692SOL    HW174681   2.883   4.642   2.645 -0.1915 -0.8299 -0.9039
22692SOL    HW274682   3.026   4.593   2.658  0.2258  0.3967 -0.7257
22693SOL     OW74683  10.758   4.582   9.605 -0.7523  0.5101  0.1781
22693SOL    HW174684  10.739   4.497   9.565 -3.4698  0.2966  1.7101
22693SOL    HW274685  10.776   4.639   9.530  0.2813 -1.1589 -0.9346
22694SOL     OW74686  12.449  11.068   3.439  0.5499  0.7544 -0.1063
22694SOL    HW174687  12.493  11.120   3.373  0.1146  1.6031  0.2641
22694SOL    HW274688  12.366  11.113   3.454  1.2602  1.4321  2.0940
22695SOL     OW74689  10.788   4.523   4.301  0.6124 -0.1002  0.1318
22695SOL    HW174690  10.749   4.496   4.384 -0.9997  0.5744 -0.3672
22695SOL    HW274691  10.737   4.600   4.274  0.4442 -0.8840 -1.9613
22696SOL     OW74692   1.327  11.754  10.600  0.3477 -0.2592 -0.4964
22696SOL    HW174693   1.314  11.831  10.545 -1.0066  0.5326  0.8503
22696SOL    HW274694   1.244  11.708  10.598  0.3818 -0.3987  0.5817
22697SOL     OW74695   9.345   2.020   2.461 -0.2554 -0.5278 -0.1698
22697SOL    HW174696   9.271   2.078   2.443 -0.8601 -1.5306 -1.0472
22697SOL    HW274697   9.331   1.990   2.551  0.0915  0.7027  0.3075
22698SOL     OW74698   0.742   9.548   1.961 -0.0793 -0.3661  0.2134
22698SOL    HW174699   0.670   9.608   1.943  0.8561  0.5666 -0.6046
22698SOL    HW274700   0.704   9.480   2.016 -1.4576  0.3497  0.1908
22699SOL     OW74701  11.844   0.645  10.411  0.2916  0.1068  0.1208
22699SOL    HW174702  11.833   0.577  10.345 -2.9042 -0.0063  0.6262
22699SOL    HW274703  11.902   0.606  10.476  1.3319 -0.7711 -1.2921
22700SOL     OW74704  10.482   7.155   9.143 -0.1264 -0.5730 -0.2217
22700SOL    HW174705  10.563   7.206   9.143 -1.1329  1.2483  2.4282
22700SOL    HW274706  10.414   7.216   9.118 -1.0238 -1.3435  0.2485
22701SOL     OW74707   8.834  12.219  10.763 -0.2527  0.2712 -0.4331
22701SOL    HW174708   8.926  12.204  10.742  0.5168  0.7188  2.1795
22701SOL    HW274709   8.805  12.137  10.804 -0.7384  0.4331 -0.4473
22702SOL     OW74710   0.891   2.833   6.467  0.7688  0.1985  0.6645
22702SOL    HW174711   0.899   2.893   6.393  1.2088 -1.0170 -0.3050
22702SOL    HW274712   0.981   2.810   6.490  0.6038 -0.2306  0.9074
22703SOL     OW74713   9.702  11.336   2.716 -0.1920  0.0381  0.0310
22703SOL    HW174714   9.759  11.374   2.782  1.1984  1.1060 -1.6873
22703SOL    HW274715   9.649  11.410   2.685  0.3074 -0.0788 -1.1420
22704SOL     OW74716   5.074   0.446   2.603 -0.3742 -0.2718  0.3571
22704SOL    HW174717   5.166   0.428   2.625 -0.4597 -0.2632  0.7274
22704SOL    HW274718   5.044   0.367   2.559 -0.1406 -0.2115  0.0872
22705SOL     OW74719   3.122   6.842  11.131 -0.3385  0.6364 -0.6567
22705SOL    HW174720   3.036   6.854  11.091 -0.7797  1.1944  0.4059
22705SOL    HW274721   3.125   6.909  11.200  1.0244  0.7446 -0.8050
22706SOL     OW74722  10.487   0.129  12.167  0.3677  0.3386  0.1102
22706SOL    HW174723  10.465   0.221  12.176 -0.3152  0.2580 -0.6071
22706SOL    HW274724  10.407   0.083  12.193  0.8689 -0.0684  0.9594
22707SOL     OW74725  10.680   3.900   8.545  0.2497  0.4629 -0.7051
22707SOL    HW174726  10.625   3.951   8.604  0.2997  0.1102 -0.3538
22707SOL    HW274727  10.656   3.809   8.561  1.4719  0.2441  0.0119
22708SOL     OW74728   3.473  10.204  10.601 -0.5118  0.1919 -0.5325
22708SOL    HW174729   3.541  10.146  10.565 -1.4087  0.0158 -2.0445
22708SOL    HW274730   3.477  10.190  10.695  0.2696 -1.2441 -0.7460
22709SOL     OW74731  10.852   1.354   1.197 -0.4778 -0.3494 -0.1666
22709SOL    HW174732  10.900   1.435   1.176 -0.5789 -0.3394 -0.3644
22709SOL    HW274733  10.799   1.377   1.273 -1.5509  0.1925 -1.0444
22710SOL     OW74734   0.998   5.201   3.242  0.0732  0.2653  0.0712
22710SOL    HW174735   0.946   5.174   3.167 -0.4623  2.8695 -0.5880
22710SOL    HW274736   1.075   5.145   3.240 -1.2865 -1.6687 -0.6693
22711SOL     OW74737   6.544   5.879   4.578 -0.0594  0.0354  0.1363
22711SOL    HW174738   6.627   5.835   4.563  0.1763  0.2102  0.8773
22711SOL    HW274739   6.563   5.972   4.565 -0.3678 -0.0031 -0.6350
22712SOL     OW74740   6.562   8.573   5.811  0.1696  0.5445  0.3128
22712SOL    HW174741   6.492   8.518   5.846  1.7215 -2.1247 -0.4871
22712SOL    HW274742   6.528   8.606   5.728  0.3073 -1.9436 -0.8089
22713SOL     OW74743   0.798   5.066   9.084  0.2375  0.1927 -0.1799
22713SOL    HW174744   0.883   5.091   9.047  1.9200 -2.3566  1.6432
22713SOL    HW274745   0.773   5.140   9.140  1.4759  0.7972 -0.3966
22714SOL     OW74746   2.723  11.717  11.725  0.6683 -0.6101 -0.2785
22714SOL    HW174747   2.678  11.769  11.791 -0.0908  0.0653 -1.2909
22714SOL    HW274748   2.807  11.696  11.764 -0.1040 -1.0112  1.2530
22715SOL     OW74749  10.285  10.651   9.840 -0.3715  0.3594  0.3839
22715SOL    HW174750  10.374  10.669   9.810 -0.2018 -0.4952  0.3623
22715SOL    HW274751  10.260  10.729   9.889 -0.0920  1.1544 -0.6879
22716SOL     OW74752   8.929   3.779   7.878 -0.2946 -0.4902 -0.5154
22716SOL    HW174753   8.912   3.859   7.929  1.4475 -0.7128  0.4978
22716SOL    HW274754   8.874   3.789   7.800 -1.0026  1.1462  0.1269
22717SOL     OW74755   4.777   0.089   5.087 -0.1446  0.3063  0.0615
22717SOL    HW174756   4.707   0.028   5.113  0.2969  0.6243  2.2465
22717SOL    HW274757   4.741   0.176   5.105  0.3225  0.5354 -0.1022
22718SOL     OW74758   4.857   9.784   5.153 -0.1713 -0.0085  0.8924
22718SOL    HW174759   4.827   9.867   5.116 -0.1218 -0.0206  0.8244
22718SOL    HW274760   4.824   9.718   5.093  2.8165  0.1370 -1.1209
22719SOL     OW74761   1.397   3.906  11.312  0.1781  0.0684 -0.5829
22719SOL    HW174762   1.314   3.882  11.271  0.0773  0.9027 -0.8985
22719SOL    HW274763   1.411   3.839  11.379 -0.4095 -0.4616 -0.9781
22720SOL     OW74764  12.020   9.693  11.627 -0.1304  0.2113 -0.6739
22720SOL    HW174765  11.947   9.754  11.619 -1.3885 -1.3217 -1.5584
22720SOL    HW274766  12.060   9.713  11.712 -0.9322  1.7525 -0.6392
22721SOL     OW74767   8.748   2.219  11.051 -0.2805 -0.2833  0.7047
22721SOL    HW174768   8.784   2.255  11.132 -2.0351 -1.1419  1.9420
22721SOL    HW274769   8.655   2.208  11.069 -0.5042 -1.6888 -0.9974
22722SOL     OW74770  11.594   6.327   9.384  0.5690  0.2934 -0.3912
22722SOL    HW174771  11.507   6.352   9.414  1.2401  1.7632  0.4549
22722SOL    HW274772  11.600   6.364   9.296  0.0393 -0.5922 -0.8178
22723SOL     OW74773   0.019   4.967   3.357  0.2220 -0.1956  0.3195
22723SOL    HW174774   0.035   4.976   3.451  2.0979 -0.3331  0.0341
22723SOL    HW274775  -0.043   5.037   3.337 -0.1545 -0.1254  1.6332
22724SOL     OW74776   5.503  11.071   1.933 -0.0800  0.3115 -0.0727
22724SOL    HW174777   5.441  11.021   1.881 -0.3712 -1.7501  2.1029
22724SOL    HW274778   5.450  11.115   1.999  0.6096 -0.6740  1.1871
22725SOL     OW74779   0.165   9.775   6.696 -0.7576  0.1782 -0.2289
22725SOL    HW174780   0.098   9.749   6.632 -0.5809 -0.0205 -0.3336
22725SOL    HW274781   0.188   9.865   6.672 -0.6918  0.1040 -0.4438
22726SOL     OW74782  11.360   5.067   0.897 -0.5854 -0.2229  0.8392
22726SOL    HW174783  11.360   4.973   0.911  0.1385 -0.1534  1.3757
22726SOL    HW274784  11.286   5.083   0.839 -0.8144 -1.0985  0.8800
22727SOL     OW74785   2.709   3.211   5.865 -0.2998 -0.1453  0.1141
22727SOL    HW174786   2.693   3.116   5.863  1.5242 -0.4873 -1.5702
22727SOL    HW274787   2.790   3.222   5.814 -0.6789  2.3643 -0.0396
22728SOL     OW74788   7.330   4.479   9.547  0.2056  0.3265 -0.2428
22728SOL    HW174789   7.415   4.503   9.511  1.2195 -0.6830  1.4133
22728SOL    HW274790   7.275   4.556   9.530  1.1223  0.6053 -2.2413
22729SOL     OW74791   5.910  10.622   6.853 -0.1887  0.3312 -0.1850
22729SOL    HW174792   5.866  10.640   6.770 -1.3864  0.7932  0.5202
22729SOL    HW274793   5.997  10.660   6.843  0.7915 -2.1909 -2.2896
22730SOL     OW74794   5.271   6.045  12.516  0.6196 -0.4606 -0.0560
22730SOL    HW174795   5.194   6.003  12.554 -1.1170  0.2388 -2.5167
22730SOL    HW274796   5.276   6.131  12.557  0.8329 -0.9634  0.9854
22731SOL     OW74797  10.797   4.587   2.633 -0.4089 -0.3801  0.0602
22731SOL    HW174798  10.812   4.654   2.566 -1.4062 -0.0410  0.1598
22731SOL    HW274799  10.829   4.506   2.593 -0.2972 -0.0495 -0.5299
22732SOL     OW74800   6.873   3.359   1.353  0.0945  0.1355  0.3910
22732SOL    HW174801   6.883   3.275   1.309  0.2627  0.7590 -0.7870
22732SOL    HW274802   6.797   3.346   1.411 -0.6637 -0.4551 -0.6894
22733SOL     OW74803   7.956   3.095  10.681 -0.0283 -0.0131 -0.5018
22733SOL    HW174804   7.880   3.154  10.680  0.8876  1.2016 -1.5410
22733SOL    HW274805   8.029   3.149  10.650  1.4512 -0.9305  1.1911
22734SOL     OW74806   2.714   6.383   8.034  0.1733 -0.0294  0.4896
22734SOL    HW174807   2.761   6.436   7.970 -0.2901 -0.8312 -0.5433
22734SOL    HW274808   2.781   6.359   8.099  1.2808 -1.3223 -1.0601
22735SOL     OW74809   0.155   4.249   8.788  0.1533 -0.1988 -0.4197
22735SOL    HW174810   0.147   4.218   8.878  0.5864  1.9101  0.4075
22735SOL    HW274811   0.109   4.333   8.788  0.3368 -0.0688 -2.1207
22736SOL     OW74812   2.181   7.968   0.953 -0.3014  0.5395  0.0023
22736SOL    HW174813   2.142   7.943   0.869  0.7962  1.5604 -0.8680
22736SOL    HW274814   2.132   7.919   1.019 -1.0803 -0.4307 -1.2502
22737SOL     OW74815   2.989   5.146  12.191 -0.2246  0.2071  0.3277
22737SOL    HW174816   2.993   5.101  12.275 -0.2005 -0.5620 -0.0713
22737SOL    HW274817   3.052   5.100  12.136 -2.9052 -1.8788 -1.2865
22738SOL     OW74818   3.781   4.030   3.807  0.0814 -0.5011  0.1923
22738SOL    HW174819   3.773   4.091   3.733 -1.9870 -0.6305  0.2668
22738SOL    HW274820   3.862   3.983   3.790  0.5760  0.7159 -1.0420
22739SOL     OW74821   3.815   8.548   6.931  0.0747  0.2099  0.1989
22739SOL    HW174822   3.777   8.495   7.001  1.3181  0.1746  0.8660
22739SOL    HW274823   3.742   8.600   6.899 -0.4714  0.4308  1.7166
22740SOL     OW74824   6.323   8.984   9.082  0.0191 -0.2274 -0.3650
22740SOL    HW174825   6.254   8.990   9.016  0.0038  0.7943 -0.2661
22740SOL    HW274826   6.341   8.890   9.089 -1.3208 -0.5044 -0.4209
22741SOL     OW74827   9.484  11.688   4.590  0.2718  0.4817  0.0514
22741SOL    HW174828   9.401  11.727   4.565 -0.1026 -0.4746 -0.2707
22741SOL    HW274829   9.538  11.693   4.511  0.9961  2.2290  0.6085
22742SOL     OW74830  10.118   1.445  12.765  0.0307  0.0091 -0.1987
22742SOL    HW174831  10.153   1.488  12.843 -1.1747  0.2882  0.2093
22742SOL    HW274832  10.026   1.474  12.761 -0.2418 -0.9296 -1.0585
22743SOL     OW74833   0.088   6.497  10.991 -0.1878 -0.7067 -0.0746
22743SOL    HW174834   0.008   6.535  10.956  0.8402  1.7537  0.0170
22743SOL    HW274835   0.066   6.406  11.010 -3.4789  0.2982  1.6311
22744SOL     OW74836  10.954   6.254   0.976  0.0922  0.0345  0.3709
22744SOL    HW174837  10.926   6.173   0.934 -1.3218  0.1563  1.0431
22744SOL    HW274838  11.013   6.225   1.047 -0.0446 -0.3719  0.3205
22745SOL     OW74839   4.459   5.560   9.369  0.5633 -0.1197 -0.2224
22745SOL    HW174840   4.541   5.605   9.348  0.8376  0.0430  1.1000
22745SOL    HW274841   4.409   5.624   9.421  0.3622 -0.8412  0.4933
22746SOL     OW74842  12.361   7.161   6.411  0.2681 -0.3301 -0.2313
22746SOL    HW174843  12.455   7.152   6.395  0.1345 -0.6740 -0.8176
22746SOL    HW274844  12.331   7.222   6.344  0.0655 -0.2405 -0.0612
22747SOL     OW74845   3.029   5.735   3.972  0.1262 -0.0021  0.6408
22747SOL    HW174846   2.996   5.759   4.058  0.2221 -1.4103  1.1024
22747SOL    HW274847   3.081   5.656   3.987  3.5221  1.8824 -0.0912
22748SOL     OW74848   8.562   0.042   4.556  0.2384  0.1265 -0.3890
22748SOL    HW174849   8.570   0.105   4.628  0.2617  0.4522 -0.6772
22748SOL    HW274850   8.626   0.071   4.491  3.0013 -2.2848  1.0024
22749SOL     OW74851   5.620   0.354  11.594  0.1037 -0.3058 -0.3660
22749SOL    HW174852   5.636   0.383  11.504  0.0914 -0.7058 -0.4990
22749SOL    HW274853   5.704   0.367  11.638 -0.1563  0.8142 -0.1739
22750SOL     OW74854   5.640  10.316   5.930 -0.1782  0.2030 -0.7994
22750SOL    HW174855   5.598  10.231   5.912  2.3813 -0.9426 -1.8385
22750SOL    HW274856   5.631  10.327   6.024  0.0470 -1.6034 -0.5255
22751SOL     OW74857   4.389  12.334   7.354  0.0556  0.2905 -0.6703
22751SOL    HW174858   4.445  12.342   7.431 -0.9701 -0.0844  0.1386
22751SOL    HW274859   4.407  12.413   7.303 -0.6700  1.5606  0.9289
22752SOL     OW74860  12.501   6.219  10.133  0.3215  0.2086  0.2213
22752SOL    HW174861  12.477   6.267  10.054 -1.4792  0.4037  0.8440
22752SOL    HW274862  12.457   6.265  10.204  3.3808  1.1810  1.6951
22753SOL     OW74863   5.586   3.250   5.765  0.2064 -0.7101  0.0631
22753SOL    HW174864   5.681   3.244   5.754  0.3059  2.3857 -2.0970
22753SOL    HW274865   5.573   3.334   5.809 -1.5377 -1.3841  0.8975
22754SOL     OW74866   9.878   2.949   6.727 -0.0075 -0.1627 -0.0154
22754SOL    HW174867   9.832   2.977   6.805 -0.0972 -1.3730  0.3983
22754SOL    HW274868   9.943   3.017   6.711 -0.7807  0.6964  0.4010
22755SOL     OW74869   8.347   7.099  10.882  0.2901 -0.2249  0.3409
22755SOL    HW174870   8.432   7.141  10.898  0.4502 -0.6119  0.5361
22755SOL    HW274871   8.332   7.047  10.961 -1.0346  1.3258  1.1630
22756SOL     OW74872   2.894   2.138   5.732  0.0488  0.0653 -0.0865
22756SOL    HW174873   2.952   2.134   5.656  0.6832 -2.0706  0.4576
22756SOL    HW274874   2.937   2.084   5.798 -0.6110  1.6488  1.7451
22757SOL     OW74875   0.362  10.865   8.062  0.8644  0.1330  0.6768
22757SOL    HW174876   0.446  10.868   8.108  0.8666 -1.0383  0.7777
22757SOL    HW274877   0.385  10.851   7.970  0.8906  3.0626  0.1172
22758SOL     OW74878   0.157   6.636   4.292  0.1815  0.3278  0.8363
22758SOL    HW174879   0.187   6.550   4.321 -0.0531  0.1151  0.4612
22758SOL    HW274880   0.220   6.698   4.329  1.3525 -0.1414 -0.3167
22759SOL     OW74881   9.172   6.746   0.256  0.1018 -0.1882  0.1475
22759SOL    HW174882   9.111   6.767   0.185 -0.9263 -1.2803  0.6873
22759SOL    HW274883   9.129   6.778   0.335  0.3229 -0.7870  0.5138
22760SOL     OW74884   1.317  11.403   8.062  0.3757 -0.2459  0.3056
22760SOL    HW174885   1.287  11.442   8.144  0.8491  2.1506 -0.5771
22760SOL    HW274886   1.403  11.442   8.047  0.2510 -0.5478 -1.3747
22761SOL     OW74887   8.968   7.595   4.449  0.7231  0.2809  0.3802
22761SOL    HW174888   8.917   7.627   4.375  1.4045 -0.0216 -0.2375
22761SOL    HW274889   8.904   7.576   4.517 -0.0322 -0.5086 -0.5262
22762SOL     OW74890   9.135   0.512   2.175 -0.1919 -0.3691  0.1931
22762SOL    HW174891   9.210   0.522   2.234 -0.3979  1.7792  0.1633
22762SOL    HW274892   9.155   0.569   2.101 -1.2610 -0.8001 -0.4458
22763SOL     OW74893   9.892  11.459   0.966 -0.3674 -0.3102  0.4660
22763SOL    HW174894   9.877  11.394   0.897  2.9659 -0.4955 -0.2802
22763SOL    HW274895   9.870  11.543   0.926 -1.1466 -0.6387  0.1808
22764SOL     OW74896   9.823  11.661  12.397 -0.7390  0.3118 -0.0352
22764SOL    HW174897   9.901  11.626  12.440 -1.6422 -0.2188  1.2043
22764SOL    HW274898   9.750  11.635  12.452 -2.1646 -1.7585 -2.6494
22765SOL     OW74899   6.776  12.204   1.615 -0.1855 -0.5335 -0.2983
22765SOL    HW174900   6.787  12.187   1.709  3.2790 -0.1118 -0.4925
22765SOL    HW274901   6.795  12.120   1.573 -1.4700 -0.6556 -0.6576
22766SOL     OW74902  11.757   9.133  12.714 -0.5731 -0.5811 -0.2292
22766SOL    HW174903  11.805   9.216  12.721  0.4232 -0.9144 -2.3283
22766SOL    HW274904  11.770   9.091  12.799  4.1219 -1.2309 -0.9881
22767SOL     OW74905  11.561   3.628  12.321 -0.8096 -0.6200  0.4616
22767SOL    HW174906  11.550   3.632  12.416 -2.8359  2.9874  0.2729
22767SOL    HW274907  11.483   3.582  12.290 -1.8787  1.0629  0.4918
22768SOL     OW74908  10.828   1.194   0.386 -0.1718 -0.4804 -0.2866
22768SOL    HW174909  10.764   1.224   0.321  1.4952 -0.4896 -2.0350
22768SOL    HW274910  10.885   1.269   0.400  0.7469 -1.1336 -0.4612
22769SOL     OW74911   7.059   7.202   1.486  0.6822 -0.8388  0.4127
22769SOL    HW174912   7.021   7.196   1.573  0.8528 -1.2104  0.4643
22769SOL    HW274913   6.988   7.174   1.427  0.4571 -0.2525  0.4033
22770SOL     OW74914   5.446   1.901   2.880 -0.5498 -0.4546  0.8189
22770SOL    HW174915   5.531   1.887   2.923  0.1885  0.1339 -0.3824
22770SOL    HW274916   5.462   1.974   2.820 -2.4023  0.8762  1.8705
22771SOL     OW74917   9.232   8.955   1.582  0.0256 -0.4933 -0.1515
22771SOL    HW174918   9.264   9.001   1.505  1.6775 -3.8892 -1.6808
22771SOL    HW274919   9.292   8.980   1.652  0.4370  0.2060 -0.7466
22772SOL     OW74920  12.587   7.195   0.779  0.3570 -0.3267  0.0623
22772SOL    HW174921  12.642   7.242   0.717  0.0061  0.2344  0.1717
22772SOL    HW274922  12.548   7.263   0.833  1.3871 -0.8518  1.5246
22773SOL     OW74923   0.133  11.815   1.356 -0.3555  0.1519 -0.5013
22773SOL    HW174924   0.108  11.866   1.279 -2.7033 -0.8567 -0.5061
22773SOL    HW274925   0.168  11.734   1.321 -1.6291 -0.3987 -0.5634
22774SOL     OW74926   6.174  12.557   9.988 -0.5370  0.6575  0.0985
22774SOL    HW174927   6.097  12.601  10.023 -1.3639 -0.6781  0.0337
22774SOL    HW274928   6.198  12.492  10.054  0.6513  1.1617  0.1947
22775SOL     OW74929  11.733  11.938   6.851  0.1767  0.6656 -0.1512
22775SOL    HW174930  11.658  11.973   6.899 -0.4202  0.6367 -1.0378
22775SOL    HW274931  11.696  11.908   6.768  0.9733 -0.4600 -0.1184
22776SOL     OW74932   9.957  12.415   8.920 -0.5510  0.0661 -0.7926
22776SOL    HW174933   9.950  12.349   8.850 -3.2193  0.7379 -1.2996
22776SOL    HW274934   9.954  12.364   9.001  2.2062 -0.6991 -1.0589
22777SOL     OW74935   1.883   3.756   5.262  0.5074  0.0100  0.9301
22777SOL    HW174936   1.940   3.833   5.263  1.6096 -0.6925 -1.1604
22777SOL    HW274937   1.851   3.751   5.172  0.7840 -2.1633  0.9025
22778SOL     OW74938   4.636   5.957   1.291 -0.1017  0.3441 -0.2070
22778SOL    HW174939   4.555   5.912   1.265  0.4317  0.0298 -1.4196
22778SOL    HW274940   4.658   6.011   1.215  0.4306  0.9909  0.4046
22779SOL     OW74941  10.243   2.540   4.422 -0.3016  0.4851  0.1655
22779SOL    HW174942  10.271   2.624   4.459 -0.3135  0.1427  0.9601
22779SOL    HW274943  10.290   2.474   4.472 -1.4950 -0.0475  0.6179
22780SOL     OW74944   9.952   7.655   2.155 -0.4265 -0.1043  0.0334
22780SOL    HW174945   9.968   7.562   2.166  3.6736  0.5629  1.2430
22780SOL    HW274946   9.922   7.685   2.241 -1.0304 -0.1530 -0.1538
22781SOL     OW74947  10.711   8.383   6.643 -0.0233 -0.1384  0.0274
22781SOL    HW174948  10.732   8.472   6.616 -0.3547 -0.2735 -0.7057
22781SOL    HW274949  10.655   8.393   6.719  3.0004  0.2381  2.4079
22782SOL     OW74950   5.584   3.262   4.488 -0.1087 -0.3191  0.4319
22782SOL    HW174951   5.524   3.316   4.540 -0.2122 -0.5987  0.6059
22782SOL    HW274952   5.637   3.325   4.439 -0.6906 -0.0711  0.1077
22783SOL     OW74953  10.203   3.997   9.211 -0.0528  0.1641  0.5091
22783SOL    HW174954  10.143   3.923   9.202 -1.3675  1.0246  1.8490
22783SOL    HW274955  10.289   3.956   9.220 -0.4643 -1.1092 -0.8537
22784SOL     OW74956  12.683  12.621   0.296  0.2554  0.2123  0.0016
22784SOL    HW174957  12.770  12.614   0.258 -0.4148  0.0570 -1.6063
22784SOL    HW274958  12.624  12.595   0.225 -1.0955  0.1606  1.0917
22785SOL     OW74959   4.435   8.455   5.732 -0.6518 -0.0403  0.2696
22785SOL    HW174960   4.346   8.469   5.700  0.5024 -0.1266 -3.4731
22785SOL    HW274961   4.490   8.505   5.672  1.8484  0.8761  3.0823
22786SOL     OW74962   6.096   8.663   4.438  0.2253 -0.5469 -0.1616
22786SOL    HW174963   6.072   8.577   4.471  0.1979 -0.3099  0.4364
22786SOL    HW274964   6.182   8.650   4.397  0.7269 -0.6329  0.8918
22787SOL     OW74965   3.696   7.814   6.716 -0.1069  0.2107  0.4379
22787SOL    HW174966   3.627   7.840   6.777 -0.4812  1.2090 -0.3808
22787SOL    HW274967   3.776   7.849   6.754 -0.4546  1.6275 -0.0563
22788SOL     OW74968   6.035  11.764  10.145  0.0461  0.1332  0.4289
22788SOL    HW174969   6.053  11.702  10.074 -0.4894  0.0297  0.3839
22788SOL    HW274970   5.982  11.714  10.207 -0.2144  0.4848  0.4931
22789SOL     OW74971  12.286   7.150   7.012  0.4191  0.0200 -0.3580
22789SOL    HW174972  12.236   7.117   7.087  0.8252  1.1953  0.4557
22789SOL    HW274973  12.331   7.072   6.978  1.2194 -0.3486  1.3992
22790SOL     OW74974   8.283   8.609   8.221 -0.2158 -0.0315 -0.0125
22790SOL    HW174975   8.316   8.695   8.197  1.4973 -0.7931 -0.5807
22790SOL    HW274976   8.330   8.587   8.302  0.2314 -0.8724 -0.4805
22791SOL     OW74977   9.600   7.447   2.706 -0.6120  0.7984 -0.2899
22791SOL    HW174978   9.559   7.461   2.792 -0.1059  0.4927  0.0070
22791SOL    HW274979   9.537   7.484   2.644 -0.9958  1.0081  0.2081
22792SOL     OW74980   3.192   8.695   0.787 -0.1388  0.1751 -0.2819
22792SOL    HW174981   3.155   8.613   0.753 -2.6922  1.2548 -0.2909
22792SOL    HW274982   3.216   8.674   0.878 -2.8284 -0.1171  0.4665
22793SOL     OW74983   8.647   1.077   6.995 -0.3155  0.1021 -0.1610
22793SOL    HW174984   8.709   1.004   6.986 -0.6222 -0.1189 -0.5312
22793SOL    HW274985   8.561   1.037   6.979 -0.5859  0.3463  0.6196
22794SOL     OW74986   5.043   4.516   3.330 -0.3841 -0.0699 -0.5033
22794SOL    HW174987   4.958   4.472   3.340  0.0610 -0.7149  0.6271
22794SOL    HW274988   5.021   4.603   3.296 -1.6382  0.3463  1.2381
22795SOL     OW74989   4.494   3.006  11.176  0.1488  0.0825 -0.8481
22795SOL    HW174990   4.574   3.025  11.224 -1.1847  0.3794  1.4140
22795SOL    HW274991   4.502   2.914  11.151  0.4584 -0.4312  0.9777
22796SOL     OW74992  12.718   1.642   0.418  0.3325 -0.4604 -0.3575
22796SOL    HW174993  12.706   1.644   0.513  1.5888 -3.2870 -0.0467
22796SOL    HW274994  12.748   1.730   0.396 -0.4458  0.3997  1.7825
22797SOL     OW74995   5.265  12.222   7.013 -0.0977 -0.2607 -0.0040
22797SOL    HW174996   5.349  12.264   6.994 -0.0542 -0.3065  0.0823
22797SOL    HW274997   5.289  12.141   7.058 -0.1314 -0.8625 -1.0363
22798SOL     OW74998   2.558   6.652   8.193 -0.6269  0.1993 -0.0679
22798SOL    HW174999   2.504   6.575   8.209 -0.6944  0.4226  0.8127
22798SOL    HW275000   2.594   6.638   8.105 -1.8612 -0.1008 -0.5419
22799SOL     OW75001   4.949   4.193   0.543  0.1302  0.0938  0.3170
22799SOL    HW175002   4.987   4.260   0.487  1.0297 -1.0140 -0.4666
22799SOL    HW275003   5.025   4.143   0.574 -0.6170 -2.0050 -1.0440
22800SOL     OW75004   9.035   1.917   5.180  0.5790  0.1216  0.3608
22800SOL    HW175005   8.980   1.920   5.259 -0.6983  0.2649 -0.5055
22800SOL    HW275006   9.070   1.828   5.179 -1.5845 -0.8100 -0.2977
22801SOL     OW75007  12.333   1.943   6.674  0.9500  0.4711  0.6376
22801SOL    HW175008  12.362   1.868   6.726  0.1345 -1.2672 -1.2669
22801SOL    HW275009  12.390   1.942   6.597 -1.3959 -0.5032 -1.1863
22802SOL     OW75010   3.962   2.114   5.868 -0.1673  0.1910  0.1016
22802SOL    HW175011   3.872   2.084   5.856 -0.3973 -0.0655  2.0122
22802SOL    HW275012   4.001   2.109   5.781 -2.0678  0.5970 -0.8432
22803SOL     OW75013   3.791   4.705   4.941  0.2816  0.2564 -0.6608
22803SOL    HW175014   3.803   4.786   4.991 -0.6953  0.8617 -1.3632
22803SOL    HW275015   3.797   4.635   5.006  3.4017  0.6815 -0.3282
22804SOL     OW75016   0.667  11.551   1.462 -0.4147  0.6384 -0.2531
22804SOL    HW175017   0.645  11.460   1.483 -0.8789  0.6215 -0.7746
22804SOL    HW275018   0.621  11.568   1.380  0.3604  1.0797 -0.6058
22805SOL     OW75019   0.454   3.801   1.329 -0.4622  0.1085 -1.0046
22805SOL    HW175020   0.452   3.709   1.304 -0.2983 -0.2831  0.3223
22805SOL    HW275021   0.547   3.821   1.339 -0.5196  0.2360 -0.6991
22806SOL     OW75022   9.131  12.470   3.845 -0.6284 -0.1132  0.2066
22806SOL    HW175023   9.155  12.504   3.759  0.3546 -0.6650  0.2370
22806SOL    HW275024   9.167  12.381   3.846  0.3447  0.2577  1.5704
22807SOL     OW75025   1.488   3.991   0.620 -0.0127 -0.3287 -0.5277
22807SOL    HW175026   1.497   4.081   0.651 -0.2945 -1.4611  3.3340
22807SOL    HW275027   1.399   3.987   0.584  0.1161  0.9635 -1.0412
22808SOL     OW75028  11.323   0.624   6.862  0.4498 -0.4944 -0.2876
22808SOL    HW175029  11.418   0.624   6.862  0.4539  0.2657 -0.6747
22808SOL    HW275030  11.298   0.533   6.849  1.1223 -0.5095 -1.5203
22809SOL     OW75031   3.522   1.521   6.648 -0.7030  0.3847  0.1667
22809SOL    HW175032   3.522   1.616   6.642  1.5091  0.3758 -1.4928
22809SOL    HW275033   3.445   1.494   6.598 -1.9213  1.2789  1.4945
22810SOL     OW75034  10.242   9.630   3.993  0.1102  0.7922  0.7060
22810SOL    HW175035  10.183   9.555   4.002  1.5331 -0.4175  0.3485
22810SOL    HW275036  10.287   9.636   4.077  1.1024  0.2364  0.2460
22811SOL     OW75037   7.177   2.162   0.841  0.5048  0.0045 -0.3881
22811SOL    HW175038   7.244   2.118   0.894 -0.3822 -0.6403  0.2320
22811SOL    HW275039   7.225   2.230   0.794  1.1352  1.6527  2.3912
22812SOL     OW75040   9.296   5.524   0.079 -0.1259 -0.4524 -0.6755
22812SOL    HW175041   9.363   5.508   0.013  0.5985 -2.5159  0.4553
22812SOL    HW275042   9.247   5.442   0.083  0.2496 -0.6375  1.7205
22813SOL     OW75043   5.575   9.525   7.216  0.0502  0.0250  0.0466
22813SOL    HW175044   5.619   9.583   7.155 -0.4216 -0.6404 -0.9584
22813SOL    HW275045   5.492   9.569   7.235 -0.4869 -0.4750 -1.0317
22814SOL     OW75046  11.699   2.337   3.310  0.5830 -0.1225  0.0056
22814SOL    HW175047  11.762   2.289   3.364  1.7099  0.9552 -0.3116
22814SOL    HW275048  11.699   2.290   3.227  3.7672  1.8370 -1.2959
22815SOL     OW75049  10.611   7.649   4.426 -0.1981  0.5108  0.5383
22815SOL    HW175050  10.537   7.710   4.424 -1.1588 -0.6491 -0.2869
22815SOL    HW275051  10.687   7.704   4.405 -0.8168  1.6914  1.2621
22816SOL     OW75052   5.386   8.313   2.712  0.0279  0.5170  0.2396
22816SOL    HW175053   5.411   8.222   2.701 -1.1839  0.3193 -1.1582
22816SOL    HW275054   5.311   8.325   2.653 -1.0235  1.9212  1.7635
22817SOL     OW75055  12.505  12.575   2.487  0.3427  0.1598  0.1543
22817SOL    HW175056  12.557  12.656   2.479  0.2455  0.4135  1.7174
22817SOL    HW275057  12.525  12.526   2.407  2.6420  0.4601  0.4543
22818SOL     OW75058   1.558  10.560   5.597 -0.5014  0.0745  0.5000
22818SOL    HW175059   1.594  10.476   5.624 -0.3592  0.8469  2.9619
22818SOL    HW275060   1.549  10.553   5.502  1.9002 -1.7682  0.3121
22819SOL     OW75061   7.155   4.446   1.788 -0.0575 -0.5812 -0.4749
22819SOL    HW175062   7.232   4.504   1.789 -0.0356 -0.5467  1.9640
22819SOL    HW275063   7.121   4.453   1.699  2.0166  0.3959 -1.2586
22820SOL     OW75064  11.813   6.074  10.899  0.1115 -0.1082 -0.2167
22820SOL    HW175065  11.880   6.006  10.893 -0.8063 -1.0892  0.3203
22820SOL    HW275066  11.752   6.055  10.828 -0.0386  0.2891 -0.1987
22821SOL     OW75067   7.763   2.734   2.194  0.2814  0.5481 -0.1923
22821SOL    HW175068   7.723   2.791   2.128 -0.3667 -0.2533 -0.4939
22821SOL    HW275069   7.853   2.722   2.164 -0.5557 -1.5006 -2.0924
22822SOL     OW75070   2.347   0.622   7.515  0.2537 -0.0330 -0.1081
22822SOL    HW175071   2.368   0.624   7.421 -0.5890 -0.0365 -0.2985
22822SOL    HW275072   2.326   0.530   7.532 -0.8232  0.1900 -0.1930
22823SOL     OW75073  10.119   9.884  12.230  0.2363  0.2624 -0.4628
22823SOL    HW175074  10.106   9.916  12.141  0.9324  2.5823  0.2066
22823SOL    HW275075  10.149   9.793  12.218  3.7060  1.5054 -2.8080
22824SOL     OW75076  11.425   2.379   5.748  0.2728 -0.6243 -0.0338
22824SOL    HW175077  11.398   2.470   5.755 -1.3935 -1.0866 -0.0505
22824SOL    HW275078  11.521   2.383   5.742  0.2494  1.0919  0.1872
22825SOL     OW75079   1.409  11.715   6.324 -0.2568  0.0457  0.3425
22825SOL    HW175080   1.496  11.677   6.341  0.2354  0.5236 -1.0106
22825SOL    HW275081   1.359  11.696   6.404  0.5536 -1.7458  0.4730
22826SOL     OW75082   0.680  12.024   3.270  0.1673 -0.7842 -0.2173
22826SOL    HW175083   0.775  12.013   3.273  0.1059 -1.4453 -0.5023
22826SOL    HW275084   0.650  12.011   3.360  0.4038  0.0330 -0.0141
22827SOL     OW75085   2.204  10.336   5.959 -0.2065 -0.6469 -0.4724
22827SOL    HW175086   2.285  10.382   5.980 -0.6594  0.1386 -0.4008
22827SOL    HW275087   2.230  10.244   5.950  0.1815 -0.9932  2.7804
22828SOL     OW75088  11.407   2.286   9.873 -0.5299 -0.1428  0.0403
22828SOL    HW175089  11.384   2.222   9.941 -0.1251 -0.3650 -0.0297
22828SOL    HW275090  11.428   2.366   9.921  0.8705 -0.6181  0.2633
22829SOL     OW75091  12.013   4.884   3.342  0.0273 -0.0276  0.4349
22829SOL    HW175092  12.013   4.795   3.377  1.2310  1.0508  3.5427
22829SOL    HW275093  11.967   4.936   3.408 -1.1604  1.6200 -1.5551
22830SOL     OW75094   3.676   5.953  10.162 -0.3271  0.5496  0.0544
22830SOL    HW175095   3.643   6.040  10.187  0.4846  0.5474  1.1809
22830SOL    HW275096   3.661   5.899  10.239  0.9793  0.1894  0.0711
22831SOL     OW75097  12.222   3.481   6.703 -0.0980  0.1172 -0.1473
22831SOL    HW175098  12.184   3.403   6.662 -0.6974 -0.2355  1.0433
22831SOL    HW275099  12.309   3.453   6.731 -0.1819 -0.0207 -0.0245
22832SOL     OW75100  12.778   5.145   5.722 -0.5867 -0.1550 -0.1467
22832SOL    HW175101  12.783   5.184   5.810  0.5679  1.2034 -0.7803
22832SOL    HW275102  12.689   5.167   5.692  0.1204  2.4073 -0.6118
22833SOL     OW75103   6.280  11.978   5.951  0.0240  0.3808  0.0480
22833SOL    HW175104   6.203  11.945   5.905  0.9917 -1.2271 -0.5064
22833SOL    HW275105   6.308  11.905   6.007  0.9999  1.0080  0.4136
22834SOL     OW75106   0.852   3.445   6.492  0.3090  0.0631  0.7900
22834SOL    HW175107   0.799   3.433   6.570  0.1911 -2.4756  0.4072
22834SOL    HW275108   0.833   3.534   6.463  0.7318  1.2464  3.8650
22835SOL     OW75109   7.604   9.337   1.817 -0.0798  0.3074 -0.2243
22835SOL    HW175110   7.688   9.375   1.791  0.0064  0.3039  0.0429
22835SOL    HW275111   7.539   9.401   1.791  0.0294  0.4339 -0.1864
22836SOL     OW75112   3.806  10.510   6.274  0.0300 -0.5416 -0.2619
22836SOL    HW175113   3.875  10.448   6.250  0.2887 -0.2794 -0.1959
22836SOL    HW275114   3.831  10.592   6.230 -0.3614 -0.5091 -0.4295
22837SOL     OW75115  11.795   4.655   5.854  0.5036 -0.1621 -0.5323
22837SOL    HW175116  11.775   4.561   5.852  0.3585 -0.1192 -2.3940
22837SOL    HW275117  11.714   4.696   5.882 -0.2007 -0.4490 -2.0494
22838SOL     OW75118   8.493  10.900  11.444  0.2922  0.2078  0.4478
22838SOL    HW175119   8.504  10.837  11.374 -0.3852 -1.7893  2.0372
22838SOL    HW275120   8.421  10.956  11.416 -0.2118 -0.7872 -0.3121
22839SOL     OW75121   4.952   8.477   8.708 -0.2898 -0.0298  0.1613
22839SOL    HW175122   4.999   8.472   8.791 -1.8106 -3.3074  0.9607
22839SOL    HW275123   4.982   8.401   8.659 -1.7625  0.1048 -0.9902
22840SOL     OW75124   1.945   8.708   1.828 -0.0397  0.3643  0.1543
22840SOL    HW175125   1.945   8.722   1.922 -0.1558  0.8194  0.0866
22840SOL    HW275126   1.853   8.690   1.807  0.1351 -0.7590  0.2740
22841SOL     OW75127   2.616   5.386   0.652 -0.0777  0.0339  0.1367
22841SOL    HW175128   2.555   5.314   0.668 -0.2967  0.4477  1.2362
22841SOL    HW275129   2.637   5.419   0.739  0.2828  1.0870 -0.3408
22842SOL     OW75130   5.808   0.629   1.275  0.1249  0.2776  0.1071
22842SOL    HW175131   5.806   0.669   1.188 -0.1786  1.2081  0.5281
22842SOL    HW275132   5.792   0.536   1.260  1.6144  0.1711 -0.9759
22843SOL     OW75133   0.651  11.281   4.696  0.1703  0.0506  0.5991
22843SOL    HW175134   0.620  11.200   4.654 -0.4175 -0.9095  2.7687
22843SOL    HW275135   0.619  11.351   4.639 -0.4664 -1.1749 -0.6163
22844SOL     OW75136   5.214   3.000   8.954  0.3297 -0.2444 -0.0835
22844SOL    HW175137   5.281   3.002   8.885 -0.3953 -0.7978 -0.8237
22844SOL    HW275138   5.248   3.058   9.022  2.1605 -1.4805  0.1247
22845SOL     OW75139   4.449   9.372  10.663  0.1249  0.1854  0.0322
22845SOL    HW175140   4.361   9.348  10.638 -0.3250  0.1763  1.5146
22845SOL    HW275141   4.446   9.380  10.759  1.3520  1.6442 -0.0008
22846SOL     OW75142   7.392  10.143   5.921 -0.5906  0.3724  0.1204
22846SOL    HW175143   7.335  10.092   5.978 -0.5425  0.7176  0.4818
22846SOL    HW275144   7.480  10.133   5.959 -0.3774 -0.3170 -0.5446
22847SOL     OW75145   5.777  10.068  10.828  0.0513  0.0912 -0.0746
22847SOL    HW175146   5.792  10.005  10.757 -0.6955  1.2779 -1.3256
22847SOL    HW275147   5.683  10.062  10.846  0.1502  0.1592  0.4822
22848SOL     OW75148   2.091   7.917   3.783 -0.7641 -0.1740  0.1162
22848SOL    HW175149   2.008   7.937   3.738 -1.1336  1.7869  1.5577
22848SOL    HW275150   2.068   7.848   3.845 -0.9173 -0.7946 -0.6077
22849SOL     OW75151   9.589  12.370   2.976  0.5085  0.5163  0.0225
22849SOL    HW175152   9.559  12.451   2.935 -0.3106  0.7016  0.9531
22849SOL    HW275153   9.527  12.354   3.047  0.5216 -1.0592 -0.2857
22850SOL     OW75154  10.658   3.618   9.923 -0.2043 -0.4729  0.4285
22850SOL    HW175155  10.686   3.604   9.833  0.6290 -1.4577  0.8182
22850SOL    HW275156  10.603   3.542   9.943 -1.8279  0.5956  0.2238
22851SOL     OW75157   9.245   0.542   7.085 -0.1588  0.1060  0.1696
22851SOL    HW175158   9.247   0.585   7.171 -1.2524 -0.8017  0.6769
22851SOL    HW275159   9.253   0.614   7.022  1.8436  0.7005  1.0066
22852SOL     OW75160  11.000   9.284  11.264 -0.0131 -0.9745 -0.2080
22852SOL    HW175161  10.975   9.291  11.356  2.8933 -0.1611  0.6385
22852SOL    HW275162  11.005   9.189  11.248 -0.9627 -1.1205  0.3364
22853SOL     OW75163   4.353   8.905   9.917  0.0120  0.2160 -0.3067
22853SOL    HW175164   4.321   8.823   9.878  0.5302  0.6386 -1.6731
22853SOL    HW275165   4.277   8.942   9.961 -0.1906 -1.0803  0.5136
22854SOL     OW75166  11.144   9.586   2.330  0.8853 -0.0140  0.0676
22854SOL    HW175167  11.135   9.579   2.425  2.9701  1.7431  0.4725
22854SOL    HW275168  11.195   9.666   2.316 -1.3872  1.1443 -2.6793
22855SOL     OW75169   3.861   7.131   7.869 -0.2752 -0.4677 -0.2653
22855SOL    HW175170   3.799   7.182   7.922  0.0357 -1.4174  1.0745
22855SOL    HW275171   3.922   7.196   7.835 -1.4009  0.3621 -0.7601
22856SOL     OW75172   3.047   9.622   1.503  0.3206 -0.3896  0.1773
22856SOL    HW175173   3.111   9.693   1.502 -0.9337  0.7900  0.5973
22856SOL    HW275174   2.992   9.641   1.579 -2.8569  0.8071 -2.2058
22857SOL     OW75175   9.236  11.645  12.081 -0.1485 -0.6456  0.2061
22857SOL    HW175176   9.288  11.637  12.002  1.0214  0.4337  0.8402
22857SOL    HW275177   9.288  11.603  12.149 -0.4247 -0.1921  0.7070
22858SOL     OW75178   1.895   0.302   4.649  0.9251  0.3533 -0.1181
22858SOL    HW175179   1.810   0.345   4.656 -0.3915 -2.1728  0.4507
22858SOL    HW275180   1.918   0.278   4.739  1.1624 -0.8631 -0.4764
22859SOL     OW75181   2.213   3.989   8.699 -0.0028 -0.1128  0.0588
22859SOL    HW175182   2.235   3.957   8.786  2.0753 -1.5512 -0.9072
22859SOL    HW275183   2.121   4.013   8.705  0.2628  0.5874  2.8323
22860SOL     OW75184   6.788   3.224   3.007  0.6926 -0.0866 -0.1883
22860SOL    HW175185   6.849   3.252   2.940  1.0939  0.2963  0.3267
22860SOL    HW275186   6.827   3.254   3.089 -0.7518  1.2376  0.0768
22861SOL     OW75187  11.253   2.279  12.580 -0.5496  0.6226 -0.3747
22861SOL    HW175188  11.290   2.366  12.564 -0.1497  0.3662 -0.8560
22861SOL    HW275189  11.160   2.296  12.599 -0.3148  1.2145  0.2965
22862SOL     OW75190   4.164   0.892  12.003 -0.6174 -0.1584 -0.0806
22862SOL    HW175191   4.182   0.984  11.984 -1.3723 -0.4289 -2.3686
22862SOL    HW275192   4.205   0.844  11.930 -0.8609 -1.5856  0.6848
22863SOL     OW75193   7.990   0.624  12.452  0.1413 -0.0161 -0.1922
22863SOL    HW175194   8.051   0.551  12.438 -0.4776 -0.8827  1.3719
22863SOL    HW275195   8.035   0.681  12.515  0.9941  1.4696 -2.0501
22864SOL     OW75196   4.149  10.965   3.743  0.0240 -0.1533  0.0530
22864SOL    HW175197   4.066  11.012   3.756 -0.7976 -0.7121 -2.5832
22864SOL    HW275198   4.215  11.034   3.740 -0.0173  0.2391  3.4479
22865SOL     OW75199   0.442   1.875  11.563 -0.4092 -0.2736  0.8145
22865SOL    HW175200   0.516   1.873  11.623 -1.1374 -1.0793  1.7321
22865SOL    HW275201   0.407   1.964  11.570  0.8335  0.3190 -0.1253
22866SOL     OW75202   2.053   3.733   9.398  0.6252 -0.2093 -0.4249
22866SOL    HW175203   2.127   3.690   9.441  1.1572  0.6781 -0.4271
22866SOL    HW275204   2.012   3.664   9.345  2.2730 -0.4026 -1.5025
22867SOL     OW75205   3.808   2.935   6.282 -0.1597  0.0964 -0.3661
22867SOL    HW175206   3.811   3.000   6.352 -0.7737 -0.8242  0.5413
22867SOL    HW275207   3.887   2.950   6.231  1.2872 -0.4362  1.6397
22868SOL     OW75208   3.922  10.303   4.404 -0.7808  0.3007  0.5318
22868SOL    HW175209   3.975  10.241   4.455 -0.3941  0.4956  0.3698
22868SOL    HW275210   3.874  10.248   4.342 -0.1774  0.1837  0.1543
22869SOL     OW75211   9.944   8.887   3.407  0.0523  0.0688 -0.5478
22869SOL    HW175212  10.031   8.874   3.444 -1.1754  1.0100  3.0976
22869SOL    HW275213   9.911   8.799   3.389  0.9082 -0.4396  0.3115
22870SOL     OW75214   3.304   2.812  10.687  0.3313  0.2010 -0.2909
22870SOL    HW175215   3.348   2.886  10.646 -0.7872  0.6315 -0.7785
22870SOL    HW275216   3.374   2.751  10.710  1.2358  1.2461 -0.2126
22871SOL     OW75217   3.629   6.210   6.561  0.0656 -0.7026  0.0050
22871SOL    HW175218   3.674   6.289   6.592  1.0213 -0.8447 -0.9467
22871SOL    HW275219   3.594   6.169   6.640  0.4316  0.1465  0.6217
22872SOL     OW75220   9.799   2.638   5.549 -0.9807 -0.0853 -0.3250
22872SOL    HW175221   9.723   2.625   5.492 -1.5982  0.1020  0.4419
22872SOL    HW275222   9.764   2.632   5.638 -0.1153  0.1141  0.0392
22873SOL     OW75223   5.801   6.714   5.112 -0.2616 -0.8016  0.1556
22873SOL    HW175224   5.836   6.702   5.200  3.1798 -1.0530 -1.1201
22873SOL    HW275225   5.832   6.801   5.086 -1.8120 -0.4435 -0.6366
22874SOL     OW75226   5.999   0.856   3.116 -0.2699 -0.0014 -0.2929
22874SOL    HW175227   5.973   0.934   3.066 -0.6442 -0.4033 -0.7306
22874SOL    HW275228   5.966   0.782   3.064 -0.2420 -0.4382  0.3067
22875SOL     OW75229   1.717   1.136   3.186 -0.3278 -0.0914 -0.0835
22875SOL    HW175230   1.776   1.086   3.242 -0.6035  0.9326  1.1501
22875SOL    HW275231   1.659   1.182   3.246 -0.0935  1.7144 -1.1660
22876SOL     OW75232   8.087  12.538   2.594  0.2877 -0.0557 -0.2893
22876SOL    HW175233   8.130  12.619   2.565  0.2151 -0.5054 -1.7651
22876SOL    HW275234   8.149  12.469   2.572 -0.3341 -0.5340 -0.5812
22877SOL     OW75235   6.073  12.168   3.513 -0.4271 -0.0814  0.3489
22877SOL    HW175236   6.087  12.196   3.423 -0.4812 -0.5379  0.1969
22877SOL    HW275237   6.102  12.243   3.566  1.5749 -0.5865  0.0208
22878SOL     OW75238   4.599   8.762   7.041 -0.2443  0.2829 -0.3713
22878SOL    HW175239   4.591   8.706   6.964  0.7621 -0.6072  0.1440
22878SOL    HW275240   4.586   8.851   7.007  0.0894 -0.0920 -1.5510
22879SOL     OW75241   5.973  12.588   0.061 -0.3881  0.5033  0.3967
22879SOL    HW175242   6.038  12.519   0.054 -1.1166 -0.0662 -1.1982
22879SOL    HW275243   6.022  12.669   0.043  0.4298  0.4325  2.1069
22880SOL     OW75244   9.617   4.352   1.049  0.1581 -0.3769  0.3785
22880SOL    HW175245   9.606   4.390   1.136 -2.8157 -1.8007  0.7342
22880SOL    HW275246   9.572   4.414   0.990  0.8651 -0.1715  0.0438
22881SOL     OW75247  10.375   1.780   3.262  0.3083  0.1829  0.0625
22881SOL    HW175248  10.404   1.755   3.350  1.0133 -1.4391 -0.5921
22881SOL    HW275249  10.293   1.732   3.249 -1.0958  2.2496  0.6686
22882SOL     OW75250   9.168   8.495   3.242  0.0298  0.5816 -0.3097
22882SOL    HW175251   9.097   8.530   3.189  1.5491  1.4291 -1.8722
22882SOL    HW275252   9.225   8.570   3.259  0.6932 -0.1272  0.6900
22883SOL     OW75253   9.690   9.776   3.309  0.0820  0.3032  0.2602
22883SOL    HW175254   9.701   9.695   3.258 -1.2181 -1.0758  2.0726
22883SOL    HW275255   9.725   9.754   3.395 -1.1191  1.3908  1.0388
22884SOL     OW75256  11.530   8.618   1.287 -0.1437  0.2279 -0.1414
22884SOL    HW175257  11.483   8.612   1.371  0.9486  1.8418  0.6271
22884SOL    HW275258  11.472   8.575   1.224 -1.8763  0.6868  1.0795
22885SOL     OW75259   1.609   6.630   5.449  0.0852 -0.1603  0.0635
22885SOL    HW175260   1.636   6.569   5.381 -0.5396 -1.0172  0.5704
22885SOL    HW275261   1.678   6.697   5.450 -0.5685  0.6724 -2.3566
22886SOL     OW75262   9.460   9.271  11.056  0.2158  0.0641 -0.5438
22886SOL    HW175263   9.418   9.334  11.114 -1.1260 -0.6893 -0.6539
22886SOL    HW275264   9.392   9.205  11.038  2.3370 -3.1738  2.0389
22887SOL     OW75265   7.868   7.250   1.889  0.0281 -0.1339  0.3701
22887SOL    HW175266   7.890   7.167   1.931  0.2356  0.5984  1.7723
22887SOL    HW275267   7.952   7.282   1.854 -0.0855 -0.5939 -0.3308
22888SOL     OW75268   6.693   8.767   8.469 -0.6418 -0.1327 -0.2153
22888SOL    HW175269   6.712   8.823   8.393  1.7986 -1.2597 -0.5541
22888SOL    HW275270   6.627   8.706   8.438 -2.8740  2.0349 -0.0371
22889SOL     OW75271   2.186  10.586   6.927 -0.0705 -0.4771  0.4774
22889SOL    HW175272   2.227  10.529   6.992  0.1357 -1.6946 -0.6721
22889SOL    HW275273   2.258  10.617   6.873 -0.3171 -0.0338  0.3957
22890SOL     OW75274   1.726   1.587  11.961  0.5382  0.1742 -0.0091
22890SOL    HW175275   1.685   1.673  11.951 -0.0895 -0.0989  0.2023
22890SOL    HW275276   1.779   1.576  11.882 -0.9838 -0.1267 -1.0280
22891SOL     OW75277   3.425   1.090   2.452  0.5646  0.4928  0.0128
22891SOL    HW175278   3.466   1.134   2.526  1.8081  0.4113 -0.5975
22891SOL    HW275279   3.391   1.008   2.488 -2.0264  1.9695  1.2240
22892SOL     OW75280  10.095   0.194   6.300  0.4715 -0.3621 -0.0827
22892SOL    HW175281  10.184   0.205   6.265  0.3523 -2.4172 -1.2274
22892SOL    HW275282  10.043   0.167   6.224 -1.2218  1.0117  0.5198
22893SOL     OW75283   8.351   0.241   3.333  0.5995  0.1588  0.0826
22893SOL    HW175284   8.315   0.308   3.274  1.0486  0.6907  0.3971
22893SOL    HW275285   8.441   0.269   3.348  1.1533 -1.1698 -0.6988
22894SOL     OW75286   8.173   3.692   4.392 -0.5576  0.3793 -0.1606
22894SOL    HW175287   8.223   3.716   4.314 -1.4555  1.6390 -0.3657
22894SOL    HW275288   8.207   3.605   4.416 -0.7367 -0.3459 -2.3438
22895SOL     OW75289   0.661   3.290   6.171 -0.3043  0.1216 -0.2691
22895SOL    HW175290   0.661   3.284   6.266 -0.3408 -0.5273 -0.3039
22895SOL    HW275291   0.736   3.345   6.150  1.2988 -1.8803  0.0219
22896SOL     OW75292   7.212   9.448   2.672 -0.4798  0.4718  0.5460
22896SOL    HW175293   7.282   9.476   2.613  1.7921  2.6503  3.9029
22896SOL    HW275294   7.140   9.507   2.653  0.0948  0.9588 -0.1838
22897SOL     OW75295   5.435   1.537  12.490  0.1853 -0.6669 -0.2713
22897SOL    HW175296   5.395   1.544  12.404 -0.2969  1.4974  0.0621
22897SOL    HW275297   5.507   1.600  12.489 -0.3709  0.0562  1.1509
22898SOL     OW75298   4.396   6.109   8.816  0.3098 -0.3495 -0.2528
22898SOL    HW175299   4.452   6.036   8.790 -0.4810 -0.8104 -0.6791
22898SOL    HW275300   4.450   6.158   8.878  1.8368  0.1584 -1.8773
22899SOL     OW75301   2.581   2.980   6.975 -0.6043  0.1628 -0.0057
22899SOL    HW175302   2.650   3.045   6.963 -0.2751 -0.0699  0.5714
22899SOL    HW275303   2.608   2.907   6.920  0.2488 -0.4043  1.1208
22900SOL     OW75304   1.174   7.851   3.055  0.4069  0.0516 -0.3277
22900SOL    HW175305   1.124   7.776   3.023  0.7829 -0.2696 -0.1775
22900SOL    HW275306   1.182   7.836   3.149  2.9404 -1.2715 -0.6368
22901SOL     OW75307  11.329   5.524   0.701  0.5626  0.1659  0.3716
22901SOL    HW175308  11.304   5.512   0.609  2.5013  0.3782 -0.2314
22901SOL    HW275309  11.252   5.563   0.742 -0.5522 -0.4783 -1.0211
22902SOL     OW75310   5.202   2.510   7.920  0.1961 -0.0726 -0.6289
22902SOL    HW175311   5.162   2.457   7.850  0.2008  0.0369 -0.7141
22902SOL    HW275312   5.195   2.455   7.998 -2.9438  1.1400  0.0691
22903SOL     OW75313   1.414   0.665   8.792  0.5043  0.1866  0.0892
22903SOL    HW175314   1.440   0.574   8.808 -0.8896 -0.4422 -0.9480
22903SOL    HW275315   1.349   0.683   8.861  1.3537  0.6875  0.7772
22904SOL     OW75316   2.452   7.324  10.219  0.1621 -0.2917 -0.4065
22904SOL    HW175317   2.376   7.311  10.276  0.0716  0.9976 -0.1984
22904SOL    HW275318   2.479   7.235  10.195 -0.3386 -0.8371  0.9283
22905SOL     OW75319   2.696  10.585   1.063 -0.3816  0.0316  0.5658
22905SOL    HW175320   2.602  10.570   1.079 -0.5765  0.3123 -0.2724
22905SOL    HW275321   2.737  10.501   1.082 -1.0198 -0.5905 -0.7012
22906SOL     OW75322   7.650   9.974   1.423 -0.4780 -0.1334 -0.4833
22906SOL    HW175323   7.663  10.034   1.349  0.6026 -1.5917 -1.5272
22906SOL    HW275324   7.581   9.914   1.394 -0.3812 -0.4287 -0.1126
22907SOL     OW75325  12.213   2.847   8.552 -0.2536  0.1566 -0.2736
22907SOL    HW175326  12.240   2.812   8.637 -0.7305  0.6443  0.0819
22907SOL    HW275327  12.199   2.940   8.567  1.8284  0.7053 -1.4134
22908SOL     OW75328   8.439   9.146  11.145  0.6888  0.3508 -0.2117
22908SOL    HW175329   8.423   9.182  11.232 -2.4946  1.8051 -1.2385
22908SOL    HW275330   8.520   9.188  11.116  0.1209  2.3275  0.8822
22909SOL     OW75331   1.566   4.318   9.352  0.3381  0.1747  0.3754
22909SOL    HW175332   1.659   4.319   9.377 -0.0688  1.6332  2.0431
22909SOL    HW275333   1.559   4.245   9.291  2.9924  1.2888 -1.4584
22910SOL     OW75334   3.761   2.945   9.623 -0.2966 -0.2413  0.1469
22910SOL    HW175335   3.763   3.038   9.644  0.2468 -0.6629  2.1869
22910SOL    HW275336   3.851   2.925   9.594 -0.1690 -0.3050  0.5818
22911SOL     OW75337  10.071   7.446   8.423  0.4319 -0.0128  0.3902
22911SOL    HW175338  10.054   7.493   8.341 -1.5556 -2.0295 -0.4735
22911SOL    HW275339  10.013   7.488   8.487  1.9918  1.5699  0.8400
22912SOL     OW75340   1.587   5.467   8.605  0.3001 -0.6437  0.3400
22912SOL    HW175341   1.683   5.466   8.601  0.3203  1.6783 -2.1189
22912SOL    HW275342   1.567   5.505   8.690  1.5295 -1.1358  0.8777
22913SOL     OW75343   4.499   0.458   3.814  0.2592 -0.2088  0.1657
22913SOL    HW175344   4.405   0.478   3.815  0.1101 -0.9478  1.0508
22913SOL    HW275345   4.541   0.543   3.827 -0.2548  0.2204 -0.8085
22914SOL     OW75346   9.122   8.559   5.454 -0.6174  0.5743 -0.4375
22914SOL    HW175347   9.090   8.532   5.368  0.6194 -0.3073 -0.6617
22914SOL    HW275348   9.168   8.641   5.438  0.3352 -0.0086 -0.8071
22915SOL     OW75349   3.672   2.810  11.509  0.0032  0.1176  0.0344
22915SOL    HW175350   3.609   2.860  11.458 -2.7932 -2.1826  0.9910
22915SOL    HW275351   3.744   2.794  11.448 -1.9522 -0.2129 -2.3397
22916SOL     OW75352   4.063  12.620  11.771  0.4932  0.1467  0.1744
22916SOL    HW175353   4.084  12.531  11.800 -0.7409  0.1367  1.0720
22916SOL    HW275354   4.026  12.609  11.683 -3.1670 -0.7001  1.6407
22917SOL     OW75355  11.486   7.708  10.082  0.1468 -0.1916 -0.2500
22917SOL    HW175356  11.411   7.717  10.140  0.8691 -0.6459  0.7764
22917SOL    HW275357  11.475   7.779  10.018 -1.0895 -0.1931 -0.0689
22918SOL     OW75358   6.360  10.345  10.625 -0.0218  0.4035  0.4272
22918SOL    HW175359   6.383  10.428  10.667 -0.1882  1.7506 -1.9366
22918SOL    HW275360   6.288  10.368  10.566 -0.3551 -1.5336  0.0274
22919SOL     OW75361   3.105   3.672   7.523 -0.2543 -0.2750  0.4582
22919SOL    HW175362   3.086   3.726   7.446  0.5729  0.2428  0.6009
22919SOL    HW275363   3.090   3.730   7.598 -0.4414 -0.5860  0.6646
22920SOL     OW75364   7.675   5.854   3.618  0.3053  0.0055  0.1491
22920SOL    HW175365   7.686   5.874   3.525 -0.9371 -0.8379 -0.2037
22920SOL    HW275366   7.617   5.923   3.650 -0.3310 -0.4544 -0.0110
22921SOL     OW75367   5.272  10.350   5.069  0.2550  0.2227  0.3221
22921SOL    HW175368   5.358  10.378   5.100 -0.1964  0.6808  1.2003
22921SOL    HW275369   5.238  10.294   5.139 -0.6077  0.9279  0.4819
22922SOL     OW75370   4.331  12.633  12.144 -0.2580 -0.1409 -0.1341
22922SOL    HW175371   4.281  12.701  12.189 -0.7678 -0.0740 -0.7909
22922SOL    HW275372   4.389  12.681  12.085 -1.9376 -0.2847 -1.9914
22923SOL     OW75373   2.425   3.922   7.552  0.4775  0.2202  0.3223
22923SOL    HW175374   2.442   4.016   7.550 -0.8801  0.4771 -0.3021
22923SOL    HW275375   2.338   3.914   7.592  1.0380 -0.8553  1.3770
22924SOL     OW75376  10.090   3.332   7.117  0.5286  0.2008 -0.2413
22924SOL    HW175377  10.118   3.268   7.052 -1.3721 -1.5650  0.5594
22924SOL    HW275378  10.158   3.330   7.184  0.3259 -1.3301 -0.0449
22925SOL     OW75379  10.643   8.973   8.605 -0.0540 -0.1582  0.2700
22925SOL    HW175380  10.648   8.924   8.687  2.4201 -0.1753  0.1753
22925SOL    HW275381  10.680   8.914   8.539 -0.4591  0.4865 -0.5535
22926SOL     OW75382   3.794   8.310   5.654 -0.4061 -0.0540 -0.3794
22926SOL    HW175383   3.858   8.270   5.594  0.2323 -0.5922  0.6372
22926SOL    HW275384   3.823   8.401   5.663  1.1005 -0.6501  1.1950
22927SOL     OW75385  12.409  11.801  11.158  0.5606 -0.2000 -0.0520
22927SOL    HW175386  12.386  11.714  11.191 -0.1802 -0.1749 -0.4830
22927SOL    HW275387  12.325  11.847  11.149  0.7781 -0.0253 -1.4268
22928SOL     OW75388   1.502   4.435   1.662  0.0332 -0.4967 -0.4062
22928SOL    HW175389   1.451   4.445   1.582  1.0926 -0.2430 -1.0634
22928SOL    HW275390   1.518   4.525   1.691  0.0996 -0.5757 -0.1986
22929SOL     OW75391   3.764   9.359   7.053  0.2743  0.0282  0.0357
22929SOL    HW175392   3.730   9.409   6.978  0.0094 -0.5036 -0.2009
22929SOL    HW275393   3.826   9.297   7.014  2.3873  1.6915  0.5518
22930SOL     OW75394   8.737   2.158  10.762 -0.5419 -0.2046  0.2899
22930SOL    HW175395   8.664   2.105  10.794  0.4334 -1.6114  0.2307
22930SOL    HW275396   8.723   2.164  10.668 -0.6012 -0.4389  0.2829
22931SOL     OW75397   6.521   8.834   3.465 -0.1105 -0.2284  0.5331
22931SOL    HW175398   6.526   8.862   3.557 -0.1730 -0.4616  0.6097
22931SOL    HW275399   6.501   8.741   3.470  2.1081 -0.7794  0.3202
22932SOL     OW75400   4.254   7.116   1.413  0.0458  0.2373  0.4590
22932SOL    HW175401   4.316   7.174   1.458 -0.5472  0.6034  0.8223
22932SOL    HW275402   4.297   7.030   1.412  0.4020  0.4079  1.0165
22933SOL     OW75403  11.507  12.718   3.098 -0.4395  0.2067  0.6762
22933SOL    HW175404  11.550  12.802   3.116  1.2994 -0.3171 -0.6973
22933SOL    HW275405  11.569  12.672   3.041 -2.5239 -0.9381 -0.7818
22934SOL     OW75406  10.466   5.203   3.947 -0.5593 -0.3513  0.3703
22934SOL    HW175407  10.381   5.244   3.932 -0.0565  0.5178 -0.2098
22934SOL    HW275408  10.528   5.260   3.902  0.2292 -1.5006 -0.0644
22935SOL     OW75409  10.839   3.916   1.711  0.0759  0.3704  0.1316
22935SOL    HW175410  10.779   3.902   1.637 -0.1565 -1.2895  0.5726
22935SOL    HW275411  10.785   3.958   1.777  0.4233  2.3759 -0.7851
22936SOL     OW75412   0.775   0.030   4.072 -0.5174  0.3327 -0.2809
22936SOL    HW175413   0.756   0.112   4.118 -3.3328  0.2779 -1.1713
22936SOL    HW275414   0.820   0.057   3.992 -0.4762  0.8805 -0.0806
22937SOL     OW75415   1.856  12.209   0.507  0.1278  0.1997 -0.0186
22937SOL    HW175416   1.913  12.208   0.584  0.8968 -1.8518 -0.5404
22937SOL    HW275417   1.805  12.289   0.516  0.1305 -0.0037  2.6546
22938SOL     OW75418   9.925   7.328  11.787  0.3739  0.3342 -0.8208
22938SOL    HW175419   9.948   7.337  11.694 -2.3788  2.4621 -1.4279
22938SOL    HW275420   9.876   7.408  11.807 -1.6849 -1.4195  1.6604
22939SOL     OW75421   8.770  12.272   8.445 -0.3085  0.2896  0.3127
22939SOL    HW175422   8.738  12.352   8.487 -1.7807 -0.1191  0.0136
22939SOL    HW275423   8.838  12.303   8.385 -0.9377  1.3435  0.1121
22940SOL     OW75424   9.622   7.558  12.427  0.1905 -0.2379 -0.3074
22940SOL    HW175425   9.597   7.499  12.499  0.5677  0.3528  0.3190
22940SOL    HW275426   9.581   7.519  12.350  1.7148 -2.2221 -0.1994
22941SOL     OW75427   4.004  11.604   7.462 -0.5665  0.0323  0.3321
22941SOL    HW175428   3.994  11.623   7.556  1.2587 -1.4553  0.9027
22941SOL    HW275429   4.078  11.542   7.459  0.6093  1.4471 -2.2565
22942SOL     OW75430   4.243   8.635   7.572 -0.6027 -0.5022 -0.1379
22942SOL    HW175431   4.156   8.660   7.540 -1.0862  0.0306  1.4529
22942SOL    HW275432   4.248   8.540   7.558 -1.1135 -0.4057 -0.9926
22943SOL     OW75433   4.263   2.790   2.442 -0.0321  0.5227 -0.0671
22943SOL    HW175434   4.238   2.699   2.423 -0.7564  0.7201 -0.0552
22943SOL    HW275435   4.313   2.817   2.364 -3.9430  1.7030 -2.4306
22944SOL     OW75436  10.991   9.162   0.593 -0.5082  0.5919  0.6674
22944SOL    HW175437  10.994   9.258   0.589  0.9498  0.5893  1.1106
22944SOL    HW275438  11.001   9.134   0.502 -1.1590  0.8429  0.5077
22945SOL     OW75439   8.699   6.110   0.306 -0.4159  0.2126 -0.0260
22945SOL    HW175440   8.741   6.071   0.229  1.4719 -0.8039  1.4336
22945SOL    HW275441   8.656   6.036   0.350  0.7691  0.2427  1.2531
22946SOL     OW75442   1.409   3.065   3.858 -0.2238 -0.0306 -0.3503
22946SOL    HW175443   1.316   3.058   3.840 -0.0841 -1.1142 -0.7031
22946SOL    HW275444   1.452   3.033   3.779  0.4629  0.6677 -0.2818
22947SOL     OW75445   1.270   0.843   0.598 -0.1702  0.0601 -0.7511
22947SOL    HW175446   1.276   0.775   0.531 -1.5658 -1.0967  0.2115
22947SOL    HW275447   1.176   0.864   0.602  0.1279  1.4470 -0.4292
22948SOL     OW75448   6.432   9.562   7.049 -0.3837 -0.5811 -0.4406
22948SOL    HW175449   6.507   9.618   7.072  0.0498 -1.3208 -0.0166
22948SOL    HW275450   6.459   9.520   6.967 -0.7809 -0.0469 -0.8505
22949SOL     OW75451   0.948  10.249   3.829 -0.2620 -0.6533  0.3432
22949SOL    HW175452   1.039  10.276   3.813 -0.2253 -0.8535  0.2047
22949SOL    HW275453   0.954  10.182   3.897 -0.4846  0.7134  1.7541
22950SOL     OW75454   7.290   6.336  10.204  0.4251 -0.7545  0.1069
22950SOL    HW175455   7.263   6.289  10.126 -1.7512 -0.0711  0.4051
22950SOL    HW275456   7.317   6.267  10.265 -1.0284 -1.5197 -0.0920
22951SOL     OW75457  11.798   7.910  12.561  0.1910 -0.1725  0.2298
22951SOL    HW175458  11.785   7.969  12.635 -0.1868 -0.1885  0.1791
22951SOL    HW275459  11.813   7.824  12.600  0.3811 -0.1113  0.2938
22952SOL     OW75460   5.291   0.682   9.880  0.0893  0.3799 -0.0132
22952SOL    HW175461   5.234   0.731   9.939 -0.1271  1.7066 -1.2664
22952SOL    HW275462   5.354   0.746   9.847 -0.4337 -0.0324 -1.9760
22953SOL     OW75463  12.080  11.667   0.751 -0.5604  0.2046  0.4330
22953SOL    HW175464  12.122  11.668   0.665 -0.2324 -1.0538  0.5555
22953SOL    HW275465  12.070  11.759   0.774  0.0097  0.5504 -0.6315
22954SOL     OW75466   0.676   3.423  11.170  0.1088  0.0938 -0.1589
22954SOL    HW175467   0.625   3.373  11.234 -0.0016 -1.2313 -1.2543
22954SOL    HW275468   0.664   3.377  11.087 -1.1797  2.7541 -1.5773
22955SOL     OW75469   7.431   0.512   2.344 -0.3254 -0.5657  0.1033
22955SOL    HW175470   7.508   0.569   2.334  0.1019 -1.0640  0.4714
22955SOL    HW275471   7.410   0.483   2.255 -0.8130  0.5010 -0.1421
22956SOL     OW75472   1.393   1.370   9.976 -0.1938  0.1124 -0.2615
22956SOL    HW175473   1.410   1.450  10.025 -1.9395  0.8935 -0.8428
22956SOL    HW275474   1.442   1.380   9.895  1.3748 -0.4472  0.5696
22957SOL     OW75475   4.256   3.268   3.380 -0.4252  0.0471  0.4145
22957SOL    HW175476   4.223   3.180   3.395  0.6089 -0.2963  0.7499
22957SOL    HW275477   4.266   3.305   3.469 -3.4967  1.5537  0.2771
22958SOL     OW75478   0.290  11.267  12.583 -0.3680 -0.0865 -0.0428
22958SOL    HW175479   0.267  11.310  12.501 -0.7518  0.4579  0.3428
22958SOL    HW275480   0.245  11.318  12.650  0.5075 -0.1107  0.5714
22959SOL     OW75481   1.907  10.377   4.459 -0.1348  0.0771  0.2841
22959SOL    HW175482   1.951  10.446   4.409 -1.6280  1.2550  0.5048
22959SOL    HW275483   1.932  10.296   4.416  0.4233  0.8884 -0.9748
22960SOL     OW75484   2.428  10.954   5.816 -0.4806  0.1602 -0.1978
22960SOL    HW175485   2.406  10.967   5.724 -0.2673  1.1813 -0.1180
22960SOL    HW275486   2.395  10.866   5.836  1.4719 -1.0488 -1.8486
22961SOL     OW75487   8.206   9.656  10.392 -0.2310 -0.1122  0.6606
22961SOL    HW175488   8.258   9.736  10.386 -4.4910  2.8893 -0.6518
22961SOL    HW275489   8.139   9.675  10.457 -1.7441 -2.4364 -0.0826
22962SOL     OW75490   3.708   8.470  11.586  0.5802  0.2293 -0.0771
22962SOL    HW175491   3.645   8.400  11.603  0.4912  0.3192 -0.0342
22962SOL    HW275492   3.790   8.425  11.569  0.2551  0.0514 -1.2883
22963SOL     OW75493   3.818   5.558   4.769 -0.0471  0.2809 -0.0301
22963SOL    HW175494   3.878   5.616   4.816 -0.5126  0.3910  0.4436
22963SOL    HW275495   3.781   5.613   4.700 -0.2342  0.4607  0.2093
22964SOL     OW75496   1.573   2.067  12.579  0.1712 -0.8475  0.3201
22964SOL    HW175497   1.524   2.067  12.662  0.6074  1.3664  0.6561
22964SOL    HW275498   1.525   2.129  12.524  0.0787 -2.0503 -0.9836
22965SOL     OW75499   9.965   9.946   5.489 -0.1711  0.4291  0.3126
22965SOL    HW175500   9.930   9.967   5.576  1.0935 -0.2405  1.0078
22965SOL    HW275501   9.913   9.872   5.459 -1.2902  1.2966  0.0281
22966SOL     OW75502   7.138   1.562   9.144 -0.6212 -0.2360 -0.3788
22966SOL    HW175503   7.140   1.539   9.237  1.3102 -1.4416 -0.6600
22966SOL    HW275504   7.046   1.552   9.119 -1.4862  1.5636  1.6933
22967SOL     OW75505   9.381  12.256  11.158 -0.1828  0.2784 -0.5902
22967SOL    HW175506   9.441  12.316  11.116  1.1719 -0.8132 -0.2851
22967SOL    HW275507   9.360  12.296  11.242  2.4622 -0.6221  0.5942
22968SOL     OW75508   1.918   3.471   6.903  0.5109  0.5752 -0.0903
22968SOL    HW175509   1.903   3.414   6.979  0.3048  0.0563 -0.5223
22968SOL    HW275510   2.012   3.491   6.908  0.1431  2.1604  1.4255
22969SOL     OW75511   2.868   7.130   3.670  0.0713  0.0174  0.0244
22969SOL    HW175512   2.915   7.140   3.753  0.3089 -1.3869  0.0846
22969SOL    HW275513   2.918   7.182   3.607  0.2361  0.6023  0.6263
22970SOL     OW75514   2.179   4.232   0.778 -0.1272 -0.1213 -0.2883
22970SOL    HW175515   2.123   4.297   0.735  1.2918  1.7291  0.4763
22970SOL    HW275516   2.169   4.249   0.872  1.5823  0.2251 -0.1256
22971SOL     OW75517   1.702   3.677   2.607 -0.0256  0.3003  1.0566
22971SOL    HW175518   1.794   3.658   2.589  0.2321  2.1948  0.1809
22971SOL    HW275519   1.702   3.763   2.648 -1.4220  0.3608  0.9890
22972SOL     OW75520   9.023   3.394  12.359  0.1831  0.0378  0.1362
22972SOL    HW175521   8.939   3.364  12.325  0.0080  2.1674 -1.4837
22972SOL    HW275522   9.003   3.425  12.447 -0.4957 -0.4290  0.1573
22973SOL     OW75523   3.929   0.047   5.880  0.2051 -0.5123 -0.2506
22973SOL    HW175524   3.835   0.064   5.868  0.3158  0.7407  0.4852
22973SOL    HW275525   3.942  -0.040   5.842 -0.7058  0.4261 -2.9639
22974SOL     OW75526   5.742   0.932  11.295  0.3354  0.2409 -0.1212
22974SOL    HW175527   5.790   0.993  11.351 -1.9517 -0.8174  3.2926
22974SOL    HW275528   5.798   0.854  11.291  1.0162  0.7307 -0.2490
22975SOL     OW75529  12.618   1.816   4.765  0.4066 -0.0566  0.4535
22975SOL    HW175530  12.710   1.841   4.758  0.1726  1.1241  1.2734
22975SOL    HW275531  12.596   1.778   4.680  1.4238  0.4503 -0.0479
22976SOL     OW75532   3.620   8.110   0.265  0.3688 -0.9623  0.4055
22976SOL    HW175533   3.686   8.109   0.335  0.3646 -0.3788  0.4208
22976SOL    HW275534   3.567   8.187   0.284  0.9311 -0.2584 -0.7753
22977SOL     OW75535  11.356  10.223   8.216 -0.0512 -0.4274 -0.4047
22977SOL    HW175536  11.428  10.160   8.217  0.2204 -0.1123  0.3510
22977SOL    HW275537  11.306  10.200   8.137 -0.6299 -2.3252  0.4610
22978SOL     OW75538   3.133   8.858  11.045 -0.0551  0.1492  0.3359
22978SOL    HW175539   3.173   8.940  11.076 -0.5290  0.3175  0.5108
22978SOL    HW275540   3.058   8.846  11.102  0.7157 -1.0756  1.1316
22979SOL     OW75541   9.462   7.574  11.812 -0.3089 -0.6094  0.2717
22979SOL    HW175542   9.446   7.644  11.748 -0.3904  0.7146  1.6764
22979SOL    HW275543   9.422   7.496  11.772 -4.4623  1.0920  0.5939
22980SOL     OW75544   8.497   2.330   9.629 -0.0635 -0.1614 -0.0582
22980SOL    HW175545   8.473   2.421   9.649 -0.0877  0.1790 -1.4632
22980SOL    HW275546   8.466   2.279   9.704  2.3526  1.2632  2.0702
22981SOL     OW75547   2.936   4.877   6.549 -0.1617  1.1641  0.0233
22981SOL    HW175548   2.852   4.835   6.530  0.7758 -0.0067 -1.8119
22981SOL    HW275549   2.923   4.968   6.524 -1.0143  1.1145  0.2385
22982SOL     OW75550  11.914   9.055   6.889  0.2331 -0.8670 -0.3912
22982SOL    HW175551  11.974   8.985   6.861  2.8382  0.6952  0.8732
22982SOL    HW275552  11.920   9.054   6.984  0.7192  1.3413 -0.3501
22983SOL     OW75553   1.521  11.086  10.296 -0.1986  0.2918  0.3049
22983SOL    HW175554   1.544  11.166  10.344  0.6042  0.5938 -0.5625
22983SOL    HW275555   1.534  11.108  10.204 -0.5148 -0.6664  0.0158
22984SOL     OW75556   4.981   0.009   9.156  0.2889  0.7217 -0.5978
22984SOL    HW175557   5.049  -0.056   9.137 -0.9691 -0.6604 -0.5817
22984SOL    HW275558   5.026   0.093   9.153  2.2492 -0.2267  0.6091
22985SOL     OW75559   2.359   8.968  11.577  0.2597  0.1791  0.1007
22985SOL    HW175560   2.293   8.948  11.510 -0.1626 -1.2030  0.8801
22985SOL    HW275561   2.387   8.882  11.609  1.9786  0.7665  0.2430
22986SOL     OW75562  12.303   8.379   9.402  0.2291  0.1829  0.4284
22986SOL    HW175563  12.391   8.343   9.394 -0.2422 -1.3471  1.6570
22986SOL    HW275564  12.246   8.311   9.365 -0.5322  0.5583  0.8885
22987SOL     OW75565   2.770   1.725  11.466 -0.2405  0.2211  0.1612
22987SOL    HW175566   2.699   1.664  11.486  0.0404 -0.3028 -0.4056
22987SOL    HW275567   2.761   1.795  11.531 -0.3909 -0.5714  1.0080
22988SOL     OW75568   3.980   1.538   0.217 -0.1641 -0.0054  0.5415
22988SOL    HW175569   4.009   1.458   0.261  0.4378 -0.4405 -0.6232
22988SOL    HW275570   4.046   1.604   0.241  0.6292 -0.4517 -0.3575
22989SOL     OW75571   0.396  11.789   5.986  0.1695 -0.5218 -0.1490
22989SOL    HW175572   0.318  11.735   5.971  0.4886 -1.2284  0.6403
22989SOL    HW275573   0.459  11.758   5.921 -0.2927  0.2673 -1.0006
22990SOL     OW75574   1.734   0.163   1.431  0.1279 -0.0563  0.0444
22990SOL    HW175575   1.763   0.074   1.448  0.0337  0.2768  2.3532
22990SOL    HW275576   1.792   0.218   1.484 -0.5643  1.1633 -0.4043
22991SOL     OW75577   2.565  11.742   1.976 -0.1128  0.4482 -0.3668
22991SOL    HW175578   2.624  11.753   2.051 -1.4141 -0.7167  0.8918
22991SOL    HW275579   2.616  11.693   1.912  1.0841  1.6178 -0.3415
22992SOL     OW75580   0.825  10.265   0.114 -0.2026 -0.8368  0.7867
22992SOL    HW175581   0.749  10.291   0.166 -0.8965 -2.3853  0.6230
22992SOL    HW275582   0.788  10.212   0.043  0.8384  0.2848 -0.6475
22993SOL     OW75583   1.142   8.972  11.683  0.3471  0.0853 -0.1667
22993SOL    HW175584   1.222   9.007  11.722  1.1545 -0.1349 -1.5735
22993SOL    HW275585   1.105   8.916  11.752  2.3442 -1.2034 -0.0683
22994SOL     OW75586   5.945   9.559   2.714 -0.8577  0.4340 -0.4546
22994SOL    HW175587   5.956   9.529   2.804 -0.1115  1.2924 -0.2483
22994SOL    HW275588   5.867   9.614   2.716  0.4569  2.3542  0.1885
22995SOL     OW75589   4.586  10.619   3.850 -0.5844  0.3674 -0.6945
22995SOL    HW175590   4.499  10.658   3.861 -0.5996 -0.1792  1.5707
22995SOL    HW275591   4.639  10.690   3.814 -1.8889  0.7650 -1.9447
22996SOL     OW75592   0.299   7.580   7.684 -0.6174  0.1023  0.0326
22996SOL    HW175593   0.369   7.642   7.660  0.7509 -1.3050  0.2549
22996SOL    HW275594   0.222   7.636   7.697  0.2845  1.6444 -0.8344
22997SOL     OW75595   6.844   3.002   1.808  0.3566 -0.3486 -0.0697
22997SOL    HW175596   6.883   3.081   1.770 -1.4715  0.1234 -1.0701
22997SOL    HW275597   6.916   2.961   1.857  1.3412  1.9693  0.5685
22998SOL     OW75598   6.104   7.795  10.089 -0.1205 -0.3532  0.6624
22998SOL    HW175599   6.104   7.883  10.049 -0.7013 -1.4830 -2.0437
22998SOL    HW275600   6.158   7.805  10.167  5.2814  1.1399 -2.6985
22999SOL     OW75601  12.381   1.294   8.029 -0.0532  0.2652 -0.2373
22999SOL    HW175602  12.345   1.311   8.116 -1.3926  1.3752 -0.9771
22999SOL    HW275603  12.426   1.210   8.038 -1.8873 -0.6389  1.0195
23000SOL     OW75604   4.541   0.991   3.564  0.3601 -0.0174  0.2463
23000SOL    HW175605   4.628   0.997   3.523  0.5802  0.8478  0.8293
23000SOL    HW275606   4.504   1.079   3.556 -0.2835 -0.2688  0.4069
23001SOL     OW75607   1.356   7.805   2.409  0.2956 -0.3371 -0.0377
23001SOL    HW175608   1.358   7.757   2.492 -0.2200 -1.3251 -0.5720
23001SOL    HW275609   1.442   7.791   2.371  0.4823 -0.0076  0.2612
23002SOL     OW75610  11.640  10.085   5.705  0.1477 -0.2258 -0.1849
23002SOL    HW175611  11.686  10.159   5.665  1.0444  0.9497  2.7830
23002SOL    HW275612  11.705  10.043   5.761 -0.5914 -2.8146 -1.1209
23003SOL     OW75613   6.994   8.602   1.975  0.0506 -0.1791  0.5598
23003SOL    HW175614   6.965   8.543   2.045 -0.9766 -0.3737 -0.0090
23003SOL    HW275615   6.919   8.660   1.960  1.2971  1.7835  1.6128
23004SOL     OW75616   7.469  12.526  11.501  0.0891 -0.3408 -0.4329
23004SOL    HW175617   7.376  12.542  11.480 -0.1165 -1.3587 -0.3391
23004SOL    HW275618   7.493  12.453  11.444  1.0770  0.4482 -1.0561
23005SOL     OW75619  12.384   6.887   6.295 -0.3029 -0.1273 -0.1316
23005SOL    HW175620  12.332   6.958   6.333  0.8229  0.8757 -0.4054
23005SOL    HW275621  12.468   6.891   6.342 -0.6776 -2.1907  0.8311
23006SOL     OW75622   4.334   0.626   7.827  0.4344  1.2085 -0.0740
23006SOL    HW175623   4.291   0.593   7.748 -1.7564 -2.0265  2.2333
23006SOL    HW275624   4.425   0.599   7.818  0.6040  2.2324 -2.0596
23007SOL     OW75625   6.442   4.834   4.796  0.5642 -0.4471 -0.4934
23007SOL    HW175626   6.431   4.764   4.860  2.1782 -0.1923  0.0920
23007SOL    HW275627   6.438   4.790   4.711 -0.3945 -0.9499 -0.2012
23008SOL     OW75628   7.395  10.033   4.693  0.0915 -0.5780 -0.3575
23008SOL    HW175629   7.335   9.981   4.746  1.6582 -1.4180  0.6873
23008SOL    HW275630   7.462  10.063   4.754  0.6895  0.4073 -1.4494
23009SOL     OW75631   8.900  12.067  12.530 -0.1850  0.0751  0.1308
23009SOL    HW175632   8.820  12.079  12.480  0.4947 -0.8471 -1.2457
23009SOL    HW275633   8.891  12.127  12.605 -1.8594  0.4336 -0.3159
23010SOL     OW75634   1.804   0.570  10.811  0.2956 -0.1571  0.1021
23010SOL    HW175635   1.860   0.617  10.873  1.5347  0.5524 -1.4969
23010SOL    HW275636   1.840   0.591  10.725 -2.1058 -0.1347 -0.9751
23011SOL     OW75637  11.633   7.434   0.783  0.2549 -0.5156  0.5499
23011SOL    HW175638  11.702   7.411   0.845 -1.0376 -3.1376  1.1418
23011SOL    HW275639  11.558   7.459   0.838 -0.0052  0.0619 -0.0419
23012SOL     OW75640   9.215  11.507   7.478 -1.0896 -0.1003  0.2681
23012SOL    HW175641   9.216  11.415   7.504  1.1321  0.2206  1.5872
23012SOL    HW275642   9.257  11.507   7.392 -4.0278 -0.6001 -1.3024
23013SOL     OW75643   2.148  10.438   0.940  0.6222  0.0956  0.3909
23013SOL    HW175644   2.146  10.364   0.879 -2.4576  2.8547 -3.3749
23013SOL    HW275645   2.056  10.451   0.964  0.8510  3.2025  0.0108
23014SOL     OW75646   4.186   6.090   8.994 -0.2277  0.1305  0.0527
23014SOL    HW175647   4.241   6.106   8.918 -0.4497  0.1661 -0.1022
23014SOL    HW275648   4.227   6.017   9.039  1.5815  1.9391  1.5166
23015SOL     OW75649   5.112   7.198   0.142  0.3678 -0.0572  0.2274
23015SOL    HW175650   5.084   7.127   0.199  1.8691  1.3047  2.8415
23015SOL    HW275651   5.207   7.196   0.146  0.4668  2.5640  1.1167
23016SOL     OW75652  12.013   4.300  12.483 -0.3775 -0.3217  0.3067
23016SOL    HW175653  12.043   4.388  12.506 -0.3048 -0.8654  2.4820
23016SOL    HW275654  11.977   4.309  12.395  1.7045  1.3877 -0.4450
23017SOL     OW75655  12.379   6.727   0.272  0.1762  0.1142  0.1667
23017SOL    HW175656  12.355   6.656   0.213  0.9045  0.1631 -0.2067
23017SOL    HW275657  12.424   6.790   0.216  2.1368 -0.4670  0.9610
23018SOL     OW75658   8.993  11.338   3.571 -0.2611  0.2770 -0.1870
23018SOL    HW175659   8.943  11.265   3.536  0.5008  0.0609 -0.8639
23018SOL    HW275660   8.935  11.414   3.562  0.5204  0.6177 -3.7404
23019SOL     OW75661   7.971   0.009   7.602 -0.0051 -0.2320  0.4136
23019SOL    HW175662   7.882   0.042   7.620  0.3152 -0.0570  1.7545
23019SOL    HW275663   7.964  -0.032   7.516 -1.3216  0.0338  0.3725
23020SOL     OW75664   2.152  11.440  10.369  0.2885 -0.1847  0.9236
23020SOL    HW175665   2.109  11.497  10.305 -0.9128 -1.3455  0.6614
23020SOL    HW275666   2.144  11.488  10.452  0.0200  0.3888  0.5767
23021SOL     OW75667  10.933  12.378   8.944  0.2105  0.4115 -0.1847
23021SOL    HW175668  10.990  12.323   8.998  0.4433  2.4738  1.7956
23021SOL    HW275669  10.963  12.362   8.854  3.4566  0.8241  0.6901
23022SOL     OW75670   0.348   4.869   0.767 -0.0060 -0.7267  0.0739
23022SOL    HW175671   0.319   4.868   0.676  0.1393  1.5886 -0.0547
23022SOL    HW275672   0.284   4.923   0.812  0.8689 -0.4207  0.9809
23023SOL     OW75673   9.944  11.518   8.751 -0.2559 -0.2254  0.1118
23023SOL    HW175674  10.027  11.551   8.784 -0.0278  0.4840 -1.1318
23023SOL    HW275675   9.966  11.438   8.703 -0.0491  0.7505 -1.4916
23024SOL     OW75676  12.705   7.115   4.330 -0.5349 -1.0011  0.5929
23024SOL    HW175677  12.763   7.043   4.304  0.9835  0.6692 -1.0188
23024SOL    HW275678  12.617   7.080   4.318  0.1193 -1.9795 -2.2798
23025SOL     OW75679   7.728   7.228   8.119  0.5980 -0.2248  0.0593
23025SOL    HW175680   7.788   7.218   8.193 -0.2210  0.9246  0.9179
23025SOL    HW275681   7.737   7.319   8.093  1.8089 -0.8987 -2.1403
23026SOL     OW75682  12.186  11.036   9.091  0.0288 -0.3875 -0.1267
23026SOL    HW175683  12.188  11.013   9.185 -0.5274  1.3095  0.3274
23026SOL    HW275684  12.132  10.968   9.052 -0.9417 -0.3373  1.0442
23027SOL     OW75685  12.055   3.173  12.042 -0.1823 -0.0277  0.5540
23027SOL    HW175686  11.995   3.247  12.055  0.9947  1.2352 -0.8851
23027SOL    HW275687  12.132   3.211  12.002  1.0545 -1.8468  1.0731
23028SOL     OW75688   6.341   3.144   4.721  0.3714 -0.4579  0.3517
23028SOL    HW175689   6.417   3.200   4.740  0.3918 -1.5627  4.5090
23028SOL    HW275690   6.266   3.201   4.737  0.3675 -0.4250  0.2137
23029SOL     OW75691   4.960   6.596   2.130  0.1182 -0.4206 -0.3122
23029SOL    HW175692   4.906   6.636   2.199  2.0174  0.9384  0.4895
23029SOL    HW275693   4.897   6.559   2.069 -1.6740 -1.2960  1.9119
23030SOL     OW75694   2.998   0.323   3.227  0.3373  0.0733  0.1222
23030SOL    HW175695   3.051   0.321   3.307 -0.5242  0.1777  0.7141
23030SOL    HW275696   3.047   0.269   3.165 -0.3153 -2.3878  1.5991
23031SOL     OW75697   4.015  12.126   3.417 -0.8143 -0.0945 -0.0036
23031SOL    HW175698   4.067  12.167   3.486  0.4358 -0.2011 -0.8529
23031SOL    HW275699   3.957  12.195   3.386  2.2662  1.6532 -2.4393
23032SOL     OW75700   7.987   4.420   2.184 -0.0511  0.4622  0.1066
23032SOL    HW175701   8.076   4.403   2.153 -0.6098 -1.2369 -0.7010
23032SOL    HW275702   7.966   4.507   2.150  0.8778  0.3804 -0.7176
23033SOL     OW75703   9.608   2.397   5.209  0.1906 -0.8573  0.2870
23033SOL    HW175704   9.633   2.397   5.302  0.0190  0.6504  0.3590
23033SOL    HW275705   9.661   2.327   5.170  1.8737 -0.1176  1.1265
23034SOL     OW75706   1.705   0.159   9.930  0.3034 -0.3921  0.6797
23034SOL    HW175707   1.615   0.187   9.917  0.2131 -1.2896 -0.8291
23034SOL    HW275708   1.716   0.083   9.873  1.9861 -0.3733  0.9045
23035SOL     OW75709   2.653   2.587   8.392  0.5721 -0.3929  0.2860
23035SOL    HW175710   2.660   2.680   8.418 -0.7082 -0.7628  2.2361
23035SOL    HW275711   2.621   2.543   8.471 -0.1332 -2.2929 -0.9841
23036SOL     OW75712   0.876   0.568  10.301 -0.2482  0.0885 -0.3666
23036SOL    HW175713   0.823   0.638  10.262  1.0969  0.8051 -0.9590
23036SOL    HW275714   0.955   0.612  10.332 -0.1007 -0.9183  0.7656
23037SOL     OW75715   9.293   6.040   0.877  0.5056 -0.1833  0.2346
23037SOL    HW175716   9.252   6.114   0.920  0.9621  0.6606 -0.7397
23037SOL    HW275717   9.221   5.979   0.860  0.1039  0.0898  0.9125
23038SOL     OW75718   3.306   6.222   0.212 -0.1119  0.7989 -0.3939
23038SOL    HW175719   3.251   6.227   0.290  1.5320 -0.6066  0.9572
23038SOL    HW275720   3.377   6.284   0.229  0.3012  0.4213 -0.7202
23039SOL     OW75721   0.601   4.570   1.206 -0.0448 -0.2488  0.0291
23039SOL    HW175722   0.556   4.495   1.245 -0.6889 -0.6797 -1.4564
23039SOL    HW275723   0.531   4.620   1.163  0.7091 -0.2248 -1.2174
23040SOL     OW75724   6.449   6.408   4.687 -0.2686 -0.1189  0.2381
23040SOL    HW175725   6.438   6.433   4.780 -1.5298 -0.9955  0.3521
23040SOL    HW275726   6.444   6.491   4.640 -0.5972  0.2485  0.8984
23041SOL     OW75727  12.445   4.887   9.105 -0.0727 -0.1216  0.0317
23041SOL    HW175728  12.537   4.872   9.125  0.0182 -0.4781 -0.6205
23041SOL    HW275729  12.398   4.825   9.160  0.2163 -1.7087 -1.4380
23042SOL     OW75730  11.642   4.895  11.939  0.0726 -0.5803  0.1769
23042SOL    HW175731  11.686   4.814  11.964  0.1242  0.1729  2.8932
23042SOL    HW275732  11.624   4.938  12.022 -1.7379  1.2790 -1.0880
23043SOL     OW75733   4.251   7.102   9.017  0.1995  0.0960  0.6143
23043SOL    HW175734   4.223   7.193   9.006 -0.7108 -0.1873  0.4338
23043SOL    HW275735   4.208   7.056   8.944  1.3808 -0.3305  0.1703
23044SOL     OW75736   9.594   8.164   5.850  0.4897  0.3530  0.6497
23044SOL    HW175737   9.505   8.199   5.841  0.5320  0.8582  2.0554
23044SOL    HW275738   9.651   8.240   5.839  0.8979 -0.2363 -2.0890
23045SOL     OW75739   6.139   9.757   0.341 -0.4149 -0.6477 -0.1485
23045SOL    HW175740   6.073   9.795   0.398 -0.4041 -0.9437  0.0659
23045SOL    HW275741   6.215   9.814   0.351 -0.0416 -1.3117  0.9949
23046SOL     OW75742   5.375   8.687   9.526 -0.5620 -0.1524  0.2929
23046SOL    HW175743   5.298   8.734   9.496 -0.4331 -0.8028 -1.1834
23046SOL    HW275744   5.341   8.603   9.557 -0.6012  0.1765  1.1552
23047SOL     OW75745   8.437   7.555   0.602 -0.0084 -0.0551 -0.0234
23047SOL    HW175746   8.445   7.547   0.507  1.8214 -4.1363  0.2881
23047SOL    HW275747   8.347   7.527   0.621 -0.1265  0.0008 -0.4892
23048SOL     OW75748   5.410   7.124   6.927 -0.1685 -0.0099  0.4729
23048SOL    HW175749   5.427   7.114   6.833 -1.9369  0.1263  0.1154
23048SOL    HW275750   5.327   7.170   6.932  0.8049  1.7015  2.1351
23049SOL     OW75751  11.333   8.306   7.467  0.1888 -0.7232  0.0053
23049SOL    HW175752  11.310   8.219   7.499 -2.3333  0.1917  0.9166
23049SOL    HW275753  11.280   8.366   7.520  1.3861  1.3444 -1.0144
23050SOL     OW75754   9.320   6.922   2.541 -0.3062  0.1042 -0.0147
23050SOL    HW175755   9.394   6.861   2.533  1.2256  1.6830  1.2756
23050SOL    HW275756   9.301   6.923   2.635 -1.0768  0.7362 -0.1761
23051SOL     OW75757   2.120   4.746   1.962 -0.1588  0.8564 -0.0193
23051SOL    HW175758   2.174   4.769   2.037  0.2324 -0.0472 -0.0016
23051SOL    HW275759   2.091   4.656   1.981  0.4907  0.3616 -1.2339
23052SOL     OW75760   3.256   4.704   8.018  0.2269  0.0741 -0.3785
23052SOL    HW175761   3.247   4.767   7.947  0.8878 -0.6828 -1.1578
23052SOL    HW275762   3.167   4.670   8.031 -0.2211  1.4629  0.3642
23053SOL     OW75763   1.996  11.708   8.589  0.3963  0.0406  0.2001
23053SOL    HW175764   2.057  11.717   8.662  0.2476  0.8474  0.2355
23053SOL    HW275765   1.965  11.797   8.573 -1.3630 -0.4445  0.6919
23054SOL     OW75766   3.646   1.428   4.241  0.5027 -0.5463  0.9329
23054SOL    HW175767   3.605   1.366   4.302 -2.1656  1.3819  1.2723
23054SOL    HW275768   3.619   1.514   4.273 -2.3542  0.5993 -3.6693
23055SOL     OW75769  12.777  10.695   6.301 -0.5679 -0.8624 -0.1281
23055SOL    HW175770  12.859  10.647   6.300 -0.7348 -1.2170  1.3018
23055SOL    HW275771  12.776  10.739   6.386 -1.9783 -1.0973 -0.0039
23056SOL     OW75772   3.828  11.031   1.792 -0.0898 -0.2226  0.4551
23056SOL    HW175773   3.771  10.993   1.859 -0.8046  0.9958  0.5593
23056SOL    HW275774   3.900  11.071   1.841 -1.4612  2.1487  0.7036
23057SOL     OW75775   1.330  10.300  10.098  0.2559  0.2206  0.2430
23057SOL    HW175776   1.334  10.226  10.159  0.3594 -1.5637 -1.7901
23057SOL    HW275777   1.333  10.259  10.011 -0.8622  2.5626 -0.9894
23058SOL     OW75778   0.501   0.031   9.968  0.1018 -0.0635 -0.1846
23058SOL    HW175779   0.437  -0.020   9.917  1.3024 -0.2955 -1.5252
23058SOL    HW275780   0.486   0.005  10.059 -0.3535 -1.6398 -0.6838
23059SOL     OW75781   1.111   1.780   3.302  0.0617 -0.2836 -0.3270
23059SOL    HW175782   1.033   1.781   3.247 -0.3985  0.7039  0.3155
23059SOL    HW275783   1.091   1.840   3.374  2.2254  1.6995 -1.2789
23060SOL     OW75784   0.087  11.252   9.562 -0.2612  0.2056 -0.0074
23060SOL    HW175785   0.162  11.311   9.564 -1.4096  1.8075 -1.1432
23060SOL    HW275786   0.067  11.235   9.654  2.8374 -2.2007  0.3834
23061SOL     OW75787   6.370   0.980   4.918 -0.1509 -0.2328 -0.1245
23061SOL    HW175788   6.327   1.024   4.845 -0.3548  0.6836  0.5254
23061SOL    HW275789   6.371   0.888   4.894 -2.6052 -0.3255 -0.1005
23062SOL     OW75790   3.238  12.069   6.236 -0.4584 -0.4145  0.4577
23062SOL    HW175791   3.321  12.040   6.274  0.5917  1.1570 -0.5146
23062SOL    HW275792   3.194  12.115   6.307 -0.9263 -1.9704  1.2251
23063SOL     OW75793  12.038   7.191   3.768  0.3936 -0.0935 -0.5890
23063SOL    HW175794  12.101   7.129   3.806 -0.4474 -1.2388 -1.0089
23063SOL    HW275795  12.080   7.223   3.689  1.3985  0.9272  0.3125
23064SOL     OW75796  10.469   8.096   5.626 -0.0596  0.3385  0.3884
23064SOL    HW175797  10.524   8.038   5.573 -2.3249 -0.7084 -0.9575
23064SOL    HW275798  10.424   8.037   5.687 -0.7997  0.9602  0.4547
23065SOL     OW75799   0.165  11.661   3.867  0.3700  0.1916  0.1148
23065SOL    HW175800   0.152  11.566   3.865  0.6176  0.1329  1.0180
23065SOL    HW275801   0.213  11.680   3.787 -0.5180 -0.3100 -0.5679
23066SOL     OW75802  12.436   0.632   1.193 -0.3357  0.1914  0.0071
23066SOL    HW175803  12.418   0.719   1.158  2.4610  1.6080  1.7052
23066SOL    HW275804  12.409   0.637   1.285 -0.9470 -1.0483 -0.0805
23067SOL     OW75805   6.218   7.377   7.003  0.2217  0.1563  0.2825
23067SOL    HW175806   6.268   7.451   7.038 -0.5839  1.3688 -1.0475
23067SOL    HW275807   6.128   7.393   7.031 -0.8603  2.2205 -3.6764
23068SOL     OW75808   9.220   2.829  11.211 -0.2198  0.3896 -0.3665
23068SOL    HW175809   9.136   2.875  11.214  0.1156  1.1973 -2.0267
23068SOL    HW275810   9.277   2.881  11.267 -0.8534 -0.2885  0.9491
23069SOL     OW75811   7.124  12.391   9.568 -0.1326  0.1829 -0.1746
23069SOL    HW175812   7.183  12.378   9.642 -0.0387 -3.0120 -0.6995
23069SOL    HW275813   7.181  12.392   9.491 -0.3851  1.9886 -0.4025
23070SOL     OW75814  11.140   1.469  12.011 -0.0663  0.3858 -0.7236
23070SOL    HW175815  11.106   1.543  12.062  2.6411 -0.0135  1.9658
23070SOL    HW275816  11.196   1.510  11.945  0.2626  0.7750 -0.2072
23071SOL     OW75817   0.831   6.326  12.479 -0.5962 -0.0188 -0.2144
23071SOL    HW175818   0.789   6.374  12.551  2.2975  2.8561 -0.1751
23071SOL    HW275819   0.827   6.386  12.405 -0.4061 -1.4592 -1.4374
23072SOL     OW75820  12.542   4.087  11.558 -0.4875  0.0105  0.1431
23072SOL    HW175821  12.597   4.078  11.480 -2.6879 -2.7342 -1.2933
23072SOL    HW275822  12.492   4.167  11.542 -3.4922 -2.1804 -3.3679
23073SOL     OW75823  10.869   0.065   2.138  0.0169  0.0894  0.1562
23073SOL    HW175824  10.861   0.036   2.229 -0.5625  1.5596  0.5909
23073SOL    HW275825  10.790   0.031   2.095  0.2959 -0.6148  0.1818
23074SOL     OW75826   1.493   4.114   6.862  0.1867  0.7449 -0.2938
23074SOL    HW175827   1.440   4.193   6.876 -0.8934 -0.0949  0.5480
23074SOL    HW275828   1.446   4.065   6.795 -0.4338 -0.2729  0.8595
23075SOL     OW75829   9.808   1.417   6.094 -0.3406  0.4123 -0.1875
23075SOL    HW175830   9.787   1.326   6.073 -0.1984 -0.0063  1.3328
23075SOL    HW275831   9.884   1.438   6.040 -1.4173  0.2041 -1.8229
23076SOL     OW75832   1.436   1.805   8.450  0.2751 -0.5447  0.4634
23076SOL    HW175833   1.402   1.858   8.523  0.6935  1.6646 -0.8619
23076SOL    HW275834   1.359   1.759   8.417 -0.6066  0.9770  0.2770
23077SOL     OW75835   8.976  10.135   5.671 -0.1795  0.4185 -0.3452
23077SOL    HW175836   8.978  10.182   5.588 -0.2773  1.3829  0.1769
23077SOL    HW275837   9.066  10.138   5.702 -0.1939  0.2933 -0.2897
23078SOL     OW75838   4.709   6.849   6.893 -0.0128  0.1345  0.4480
23078SOL    HW175839   4.719   6.830   6.800 -0.0257 -0.1860  0.5097
23078SOL    HW275840   4.677   6.767   6.931 -1.7105  0.7771  0.4652
23079SOL     OW75841   0.885   0.183  11.434 -0.2176 -0.6338  0.3646
23079SOL    HW175842   0.864   0.193  11.341 -0.8462 -1.8685  0.3576
23079SOL    HW275843   0.801   0.174  11.477  0.0351  0.6338  1.1681
23080SOL     OW75844  10.612   6.715   9.116 -0.2621 -0.4301 -0.1435
23080SOL    HW175845  10.586   6.623   9.110 -2.3173  0.1276 -0.9440
23080SOL    HW275846  10.661   6.731   9.036 -0.4075 -0.7038 -0.2913
23081SOL     OW75847   4.209   1.977   9.308 -0.3752  0.4349 -0.3695
23081SOL    HW175848   4.179   1.999   9.396  1.8610  2.5336 -0.0142
23081SOL    HW275849   4.145   2.017   9.250 -1.1305  0.2029  0.2894
23082SOL     OW75850  10.204   7.747   2.635  0.0997  0.0051  0.5409
23082SOL    HW175851  10.242   7.756   2.547  1.2668  2.0690  1.1905
23082SOL    HW275852  10.148   7.824   2.645 -2.7316 -1.8604  0.4524
23083SOL     OW75853   9.626   7.938   5.704 -0.3043 -0.2307 -0.2228
23083SOL    HW175854   9.577   7.981   5.634 -1.9898  0.1800  1.1333
23083SOL    HW275855   9.632   8.005   5.773 -1.9114 -1.6978  1.4585
23084SOL     OW75856  10.880   5.858  11.301 -0.4302  0.2079  0.1983
23084SOL    HW175857  10.809   5.890  11.246 -0.0249 -1.9153 -1.7086
23084SOL    HW275858  10.956   5.854  11.243  1.0381  1.4542  1.9314
23085SOL     OW75859   1.981  12.478   3.832 -0.2663 -0.2943  0.0919
23085SOL    HW175860   1.997  12.417   3.904 -0.3173 -1.4523 -0.8502
23085SOL    HW275861   2.027  12.440   3.757  0.1495  1.1111 -0.4006
23086SOL     OW75862   2.009   7.284   3.764 -0.7896  0.3943  0.3515
23086SOL    HW175863   1.985   7.312   3.676  0.5959 -1.6654 -0.7726
23086SOL    HW275864   2.050   7.198   3.751  1.7492  1.1168  2.7018
23087SOL     OW75865   5.096   5.318   1.470  0.2560 -0.0296 -0.7077
23087SOL    HW175866   5.067   5.247   1.414 -2.1618  1.1861 -1.1455
23087SOL    HW275867   5.036   5.390   1.451  1.3721  1.5038  1.1150
23088SOL     OW75868   1.724   4.841   2.843  0.3717  0.7215  0.4041
23088SOL    HW175869   1.676   4.924   2.835 -0.8003  0.0292  0.0655
23088SOL    HW275870   1.779   4.837   2.765  0.8562  1.4300  0.6982
23089SOL     OW75871   7.777   7.123   2.448 -0.2102  0.2577  0.0784
23089SOL    HW175872   7.787   7.202   2.500 -0.4821  0.5708 -0.3351
23089SOL    HW275873   7.830   7.057   2.493 -2.0641 -0.0670  1.9355
23090SOL     OW75874  12.110  11.456  10.941 -0.0580 -0.2331 -0.0422
23090SOL    HW175875  12.086  11.497  11.024 -0.7812 -0.7748  0.0302
23090SOL    HW275876  12.067  11.511  10.875  0.8331  0.4217 -0.0959
23091SOL     OW75877   8.331   2.390   0.735 -0.2076 -0.2765 -0.0093
23091SOL    HW175878   8.366   2.380   0.824 -1.6425 -2.6560  0.3715
23091SOL    HW275879   8.351   2.307   0.693 -0.9710  0.2279 -1.4112
23092SOL     OW75880   1.539   4.330   6.215 -0.1270 -0.0821  0.3081
23092SOL    HW175881   1.542   4.238   6.238 -0.6679 -0.1080  0.2883
23092SOL    HW275882   1.447   4.346   6.192 -0.2855  0.7223  1.4116
23093SOL     OW75883  10.544   0.463   5.208  0.3748 -0.2319 -0.0245
23093SOL    HW175884  10.617   0.458   5.269 -0.1992 -0.4912  0.6511
23093SOL    HW275885  10.494   0.383   5.223 -0.6535  0.4415  0.3058
23094SOL     OW75886   4.742   9.879   6.535  0.1235  0.2567 -0.8095
23094SOL    HW175887   4.650   9.856   6.523  0.1356  0.1982 -0.7923
23094SOL    HW275888   4.744   9.932   6.614  0.2098 -0.4410 -0.3276
23095SOL     OW75889  12.363   7.991   1.895 -0.3096 -0.3061 -0.8056
23095SOL    HW175890  12.421   8.032   1.959 -2.2345 -1.2962  1.7433
23095SOL    HW275891  12.335   8.063   1.839  2.1431  0.4431 -1.2137
23096SOL     OW75892   8.424   0.044   2.300  0.2778  0.1581  0.0547
23096SOL    HW175893   8.495   0.083   2.248 -0.2779 -0.0649 -0.8846
23096SOL    HW275894   8.428  -0.049   2.282  0.0920  0.0699  0.4431
23097SOL     OW75895   4.340   8.372  10.130  0.1687  0.0300 -0.1135
23097SOL    HW175896   4.414   8.318  10.157  0.9782  1.7964  1.4368
23097SOL    HW275897   4.361   8.399  10.041 -0.7172 -2.8496 -1.3348
23098SOL     OW75898  12.639   4.280   3.405  0.4146  0.5138 -0.0453
23098SOL    HW175899  12.608   4.370   3.393 -0.5323  0.2071  0.0001
23098SOL    HW275900  12.588   4.246   3.478 -1.0003 -0.8297 -1.5764
23099SOL     OW75901  12.437   4.838   4.182  0.0227  0.4867 -0.0369
23099SOL    HW175902  12.414   4.796   4.099 -0.4705 -0.1433  0.4010
23099SOL    HW275903  12.445   4.765   4.244 -2.3257  1.0948  1.0916
23100SOL     OW75904   8.152  11.766  10.481  0.5048  0.0281  0.4718
23100SOL    HW175905   8.171  11.717  10.562  0.3879  0.6664  0.8927
23100SOL    HW275906   8.197  11.849  10.493 -1.2018  0.9394  0.7825
23101SOL     OW75907   2.851   5.324   6.220 -1.2219  0.3730  0.3252
23101SOL    HW175908   2.804   5.363   6.146  0.4863  1.9538  0.0018
23101SOL    HW275909   2.921   5.386   6.240 -0.2832 -1.0755  1.8633
23102SOL     OW75910  12.606   3.297   7.058  0.0434  0.5499 -0.2039
23102SOL    HW175911  12.622   3.208   7.090  0.4551  0.6756 -0.0588
23102SOL    HW275912  12.589   3.349   7.136 -1.0124  0.4407 -0.3450
23103SOL     OW75913  11.918   7.959   7.347 -0.2359  0.1828  0.4283
23103SOL    HW175914  11.831   7.995   7.365 -0.6179 -0.2090 -0.5501
23103SOL    HW275915  11.972   7.989   7.419 -0.8483  1.6194  0.3125
23104SOL     OW75916  11.964   3.615   8.584 -0.4111 -0.1740 -0.4361
23104SOL    HW175917  11.981   3.521   8.590 -1.6124 -0.3205  2.2149
23104SOL    HW275918  11.963   3.634   8.490  1.2986 -2.4932 -1.0006
23105SOL     OW75919   8.224   4.567  10.471 -0.2407  0.1260 -0.0957
23105SOL    HW175920   8.307   4.523  10.455 -0.5905 -0.2400 -0.9640
23105SOL    HW275921   8.164   4.530  10.406 -0.7790  1.2340 -0.2551
23106SOL     OW75922   8.211  11.935   2.102  0.1644  0.2641 -0.4367
23106SOL    HW175923   8.221  11.843   2.079 -0.4397  0.4901 -1.6681
23106SOL    HW275924   8.125  11.940   2.145  0.3090  0.2106 -0.1425
23107SOL     OW75925  12.521   6.268   1.916 -0.4556  0.2024  0.1478
23107SOL    HW175926  12.500   6.360   1.933 -3.6310 -0.1161 -1.3986
23107SOL    HW275927  12.580   6.270   1.841 -0.4602  0.9812  0.1565
23108SOL     OW75928  11.260   5.193   3.746 -0.1719  0.2112 -0.5277
23108SOL    HW175929  11.189   5.216   3.686  0.6517  0.9769 -1.2394
23108SOL    HW275930  11.233   5.109   3.784 -1.1811  0.2090 -1.2052
23109SOL     OW75931   6.907   9.103   0.149 -0.0488 -0.2319  0.3005
23109SOL    HW175932   6.828   9.049   0.144  0.4811 -1.0378  0.3646
23109SOL    HW275933   6.916   9.123   0.242 -0.1968 -0.1167  0.2896
23110SOL     OW75934  12.550   9.622  12.561 -0.0153  0.7980  0.0823
23110SOL    HW175935  12.496   9.553  12.522  1.2883 -0.8954  1.1226
23110SOL    HW275936  12.637   9.584  12.567  0.4126  1.9339  2.2167
23111SOL     OW75937   5.408   6.688   6.409  0.0062 -0.4582 -0.2304
23111SOL    HW175938   5.386   6.596   6.393 -1.3205 -0.2854  0.4872
23111SOL    HW275939   5.324   6.733   6.407  0.5594  0.6167  0.2508
23112SOL     OW75940   5.846   5.363  11.427 -0.4956 -0.0998  0.4130
23112SOL    HW175941   5.834   5.325  11.513 -1.1595  0.0254  0.3816
23112SOL    HW275942   5.761   5.400  11.405 -0.5678 -0.8459 -0.6460
23113SOL     OW75943   2.532   6.278   4.344 -0.6736  0.2912 -0.1155
23113SOL    HW175944   2.455   6.223   4.357 -0.5519  0.5164  2.0287
23113SOL    HW275945   2.511   6.359   4.391  0.1198  1.1264 -1.1489
23114SOL     OW75946  11.434   8.461  11.903  0.1269 -0.0714  0.4038
23114SOL    HW175947  11.488   8.504  11.836 -1.0879  1.1150  0.1492
23114SOL    HW275948  11.384   8.532  11.942 -0.3227 -0.9741  1.5236
23115SOL     OW75949  12.399   4.751   7.709 -0.5608 -0.0339 -0.5552
23115SOL    HW175950  12.481   4.702   7.709 -1.3624 -1.4516 -0.9867
23115SOL    HW275951  12.397   4.794   7.795  1.2346  1.1265 -1.0546
23116SOL     OW75952  12.172   9.928   2.711 -0.0628  0.1019 -0.2353
23116SOL    HW175953  12.237   9.997   2.723 -0.1453  0.3821 -1.3608
23116SOL    HW275954  12.221   9.847   2.724  0.1573  0.3367  0.5029
23117SOL     OW75955   9.895   8.321   7.746  0.1237 -0.1256 -0.6910
23117SOL    HW175956   9.921   8.242   7.794 -0.7315  0.0514  0.0862
23117SOL    HW275957   9.799   8.319   7.746  0.0980  0.6740 -1.0809
23118SOL     OW75958  10.287   7.935   1.174 -0.4476 -0.1768 -0.3143
23118SOL    HW175959  10.332   7.866   1.222 -0.1773  0.5286  0.4558
23118SOL    HW275960  10.356   7.981   1.127 -0.7398 -1.0580 -1.6836
23119SOL     OW75961   3.377   3.316   4.067  0.1651  0.6222  0.1430
23119SOL    HW175962   3.320   3.351   3.998 -1.0215  0.0123  0.7991
23119SOL    HW275963   3.465   3.322   4.029 -0.3222  1.4844 -0.9311
23120SOL     OW75964  12.464   5.014   0.465  0.4141  0.3716 -0.1927
23120SOL    HW175965  12.405   4.938   0.466 -0.6345  1.1392  1.7611
23120SOL    HW275966  12.406   5.088   0.483  1.9618  1.1587  1.8465
23121SOL     OW75967   3.249  12.514   5.136 -0.8423 -0.5734  0.0199
23121SOL    HW175968   3.159  12.506   5.103 -0.6939 -0.7403 -0.3549
23121SOL    HW275969   3.282  12.425   5.137 -0.7821 -0.5450  0.4545
23122SOL     OW75970   1.202   3.922   9.453 -0.4420  0.3978  0.4653
23122SOL    HW175971   1.248   3.843   9.426  0.3092  1.3101 -1.1253
23122SOL    HW275972   1.116   3.891   9.483 -1.5116 -0.8805 -3.2520
23123SOL     OW75973   4.075   9.997   9.771 -0.6187  0.0614  0.6202
23123SOL    HW175974   4.063  10.016   9.864  0.2928 -0.7219  0.9117
23123SOL    HW275975   4.111   9.909   9.769  1.7525  0.9928 -0.3358
23124SOL     OW75976   2.427   1.488   7.686  0.2623 -0.5318  0.1451
23124SOL    HW175977   2.494   1.529   7.631  0.9241 -1.2058  0.4263
23124SOL    HW275978   2.429   1.395   7.662  0.1637 -0.7373  0.8934
23125SOL     OW75979   1.794   6.630   2.934 -0.6307 -0.3001  0.0234
23125SOL    HW175980   1.866   6.621   2.996 -0.6245 -1.3828 -0.1293
23125SOL    HW275981   1.725   6.674   2.984  0.2935  1.2185  0.0265
23126SOL     OW75982   8.764  11.483   4.938  0.4254 -0.1398 -0.1933
23126SOL    HW175983   8.828  11.426   4.895 -0.9065 -1.5976 -0.3473
23126SOL    HW275984   8.792  11.572   4.916  1.1509 -0.7739 -2.0587
23127SOL     OW75985   2.016   3.625   5.639 -0.1343  0.3701 -0.0711
23127SOL    HW175986   2.049   3.543   5.602 -1.4054 -0.5973  0.8644
23127SOL    HW275987   1.928   3.634   5.603 -1.2098 -0.3310  2.2357
23128SOL     OW75988  11.399  11.355   5.012  0.0023 -0.7904  0.7482
23128SOL    HW175989  11.393  11.406   5.093 -1.4002  1.2675 -0.5590
23128SOL    HW275990  11.329  11.290   5.020 -0.9642  0.2228  0.6666
23129SOL     OW75991   7.810   0.850  11.518 -0.1564  0.6581  0.0428
23129SOL    HW175992   7.788   0.942  11.532  1.0718  1.5270 -2.9702
23129SOL    HW275993   7.905   0.847  11.523 -0.1962 -0.4724  0.2483
23130SOL     OW75994   9.145   1.493  12.404 -0.0932  0.2252 -0.2263
23130SOL    HW175995   9.180   1.556  12.340  0.8010  0.2819  0.3069
23130SOL    HW275996   9.095   1.431  12.351  2.0234 -0.7104 -1.2400
23131SOL     OW75997   7.710   7.495   7.711  0.2140 -0.1002  0.6434
23131SOL    HW175998   7.699   7.421   7.650  2.2192 -0.6145  0.8401
23131SOL    HW275999   7.630   7.494   7.764 -0.2994 -1.4206 -0.0951
23132SOL     OW76000   7.768   0.248  12.719 -0.0758  0.2059  0.1838
23132SOL    HW176001   7.848   0.301  12.723  0.2486 -0.2892  0.4191
23132SOL    HW276002   7.704   0.304  12.676  1.0552 -0.2087 -2.1877
23133SOL     OW76003   7.148   1.858   8.834  0.1964  0.1741 -0.4844
23133SOL    HW176004   7.176   1.947   8.855  0.4331 -0.2300  1.0245
23133SOL    HW276005   7.201   1.802   8.891 -1.5971 -0.7886  0.3230
23134SOL     OW76006   5.190   0.179   4.256  0.4539 -0.1429  0.1257
23134SOL    HW176007   5.191   0.182   4.160 -0.1561 -0.8593  0.0875
23134SOL    HW276008   5.244   0.254   4.283 -0.1492  0.6248 -0.7589
23135SOL     OW76009  12.264   8.979   5.337 -0.0464 -0.6627  0.6603
23135SOL    HW176010  12.304   9.032   5.405  1.2701  1.2692 -1.5050
23135SOL    HW276011  12.241   9.041   5.268 -1.1239 -2.5567 -0.7867
23136SOL     OW76012   3.826   7.501   4.861  0.3678  0.0420  0.2141
23136SOL    HW176013   3.748   7.460   4.899 -0.0352  0.0732 -0.5672
23136SOL    HW276014   3.887   7.510   4.935 -0.9435  1.4413  1.1726
23137SOL     OW76015   0.088  11.896   5.704 -0.2795  0.3113  0.0887
23137SOL    HW176016   0.096  11.814   5.655  0.8138  1.0134 -0.9440
23137SOL    HW276017   0.002  11.930   5.679 -1.2104 -1.0089  1.3487
23138SOL     OW76018   8.956   9.543   9.222 -0.0620 -0.0143 -0.0157
23138SOL    HW176019   8.991   9.455   9.207  1.5436  0.5180  0.3070
23138SOL    HW276020   9.034   9.598   9.227 -1.0860  1.6654 -1.5725
23139SOL     OW76021   8.884   6.706   5.066 -0.6666 -0.2283  0.7673
23139SOL    HW176022   8.807   6.648   5.070 -1.7306  1.1854  1.9919
23139SOL    HW276023   8.849   6.788   5.031  0.6281 -0.0287 -0.0897
23140SOL     OW76024   3.314   4.479   4.014  0.8912 -0.6885 -0.0500
23140SOL    HW176025   3.242   4.418   4.028  1.9683 -1.8620  0.4994
23140SOL    HW276026   3.272   4.566   4.019 -0.2159 -1.2732  1.9431
23141SOL     OW76027  10.035   6.060  12.094  0.2271 -0.0722 -0.1781
23141SOL    HW176028  10.108   6.122  12.093  0.9076 -0.6253  2.9936
23141SOL    HW276029  10.050   6.004  12.018  1.1408  1.8786 -1.5342
23142SOL     OW76030   1.872   8.557  12.285  0.2339  0.1494 -0.2519
23142SOL    HW176031   1.903   8.554  12.195 -0.4092  0.9386 -0.5238
23142SOL    HW276032   1.784   8.595  12.278 -0.9084 -2.1624  0.4418
23143SOL     OW76033   2.054   2.647   4.147  0.2054  0.6954 -0.2310
23143SOL    HW176034   2.042   2.553   4.162  2.4230  0.2350 -0.9609
23143SOL    HW276035   2.148   2.662   4.161  0.2083  2.4852 -1.7107
23144SOL     OW76036  11.333   6.068   1.784 -0.4135 -0.1355  0.2048
23144SOL    HW176037  11.293   5.991   1.823  0.0122  0.5109  1.9795
23144SOL    HW276038  11.399   6.032   1.724 -0.4682 -1.1583  0.7289
23145SOL     OW76039   9.784   8.349   9.879  0.1036 -0.2237 -0.1617
23145SOL    HW176040   9.873   8.385   9.881  0.0219 -0.0156  1.9604
23145SOL    HW276041   9.761   8.347   9.787  1.4378  1.8803 -0.6073
23146SOL     OW76042   0.604   7.194   9.945  0.6623 -0.0095 -0.0897
23146SOL    HW176043   0.669   7.123   9.951  1.5764  0.7161 -1.1100
23146SOL    HW276044   0.556   7.188  10.027  0.8044 -1.7295 -0.0859
23147SOL     OW76045   3.546  11.680   3.062 -0.0821 -0.3090 -0.1746
23147SOL    HW176046   3.497  11.725   2.993 -0.3803  0.4137  0.5048
23147SOL    HW276047   3.503  11.705   3.143  2.4096  1.7097  0.6423
23148SOL     OW76048   1.391   9.820  12.201 -0.1516 -0.3559 -0.2979
23148SOL    HW176049   1.345   9.863  12.129  0.1574  0.9426  0.2622
23148SOL    HW276050   1.384   9.881  12.275  0.8934 -0.9527  0.3271
23149SOL     OW76051   4.965   9.499   2.650  0.0744  0.0729 -0.4179
23149SOL    HW176052   4.994   9.448   2.725 -1.2061  0.1239  0.1367
23149SOL    HW276053   4.909   9.568   2.687  0.5559  0.9721 -1.2889
23150SOL     OW76054   7.504   5.320  12.077 -0.5489  0.1520  0.0951
23150SOL    HW176055   7.488   5.413  12.088 -2.0482 -0.1046  0.4085
23150SOL    HW276056   7.583   5.302  12.127 -0.1354  1.2821 -0.1379
23151SOL     OW76057   5.170   3.188   4.612 -0.1064 -0.5160  0.4427
23151SOL    HW176058   5.107   3.129   4.654  0.0490 -0.1839  1.1484
23151SOL    HW276059   5.120   3.233   4.545 -0.6631 -0.1420  1.1038
23152SOL     OW76060  12.382   7.425   4.342  1.0695  0.7147  0.0059
23152SOL    HW176061  12.287   7.429   4.340  0.9737 -1.0543 -1.4292
23152SOL    HW276062  12.408   7.401   4.253  2.6977 -0.7226  0.7807
23153SOL     OW76063  10.674  10.672  10.249  0.6794  0.1912  0.3298
23153SOL    HW176064  10.755  10.635  10.285  2.2486  2.9112 -0.1077
23153SOL    HW276065  10.641  10.728  10.318  1.2403  1.9327 -0.7425
23154SOL     OW76066   3.000   0.695   2.068 -0.2578  0.5191  0.3007
23154SOL    HW176067   3.017   0.747   2.146  0.6396 -0.2304  0.6069
23154SOL    HW276068   2.940   0.750   2.016 -0.1312  1.4153  1.0774
23155SOL     OW76069   5.179   5.411   9.675 -0.0588  0.1169 -0.5135
23155SOL    HW176070   5.228   5.492   9.686  1.6592 -0.7991 -1.0070
23155SOL    HW276071   5.241   5.342   9.702 -1.1924 -1.0713 -0.8563
23156SOL     OW76072   9.840   2.321  11.949  0.0545 -0.1936  0.3197
23156SOL    HW176073   9.768   2.286  12.001 -0.2715  1.0521  0.7566
23156SOL    HW276074   9.906   2.347  12.014  0.0495  0.4812  0.0668
23157SOL     OW76075   6.570   5.496  11.857 -0.7659 -0.3677  0.4948
23157SOL    HW176076   6.645   5.513  11.801 -0.6394 -2.6258 -0.0974
23157SOL    HW276077   6.494   5.510  11.800 -0.6809 -1.2866  0.1483
23158SOL     OW76078   8.398  12.307  11.468  0.8352  0.3562 -0.4947
23158SOL    HW176079   8.481  12.269  11.439  1.7348  2.8702 -1.5541
23158SOL    HW276080   8.415  12.401  11.470 -1.8735  0.9126 -0.2444
23159SOL     OW76081   3.424  11.627   5.880 -0.2106  0.3877 -0.5049
23159SOL    HW176082   3.363  11.676   5.824 -2.9120 -1.5974  0.5002
23159SOL    HW276083   3.396  11.649   5.970 -0.2254 -1.4427 -0.0319
23160SOL     OW76084   3.918   6.901   2.871  0.4582 -0.1342  0.1894
23160SOL    HW176085   3.882   6.989   2.885 -0.7050 -0.4355 -0.7289
23160SOL    HW276086   4.004   6.917   2.833 -0.3178  0.6651 -1.3577
23161SOL     OW76087   0.639   3.302  10.758 -0.7284  0.4368  0.0847
23161SOL    HW176088   0.566   3.307  10.697 -0.8131 -1.0649  0.0361
23161SOL    HW276089   0.702   3.367  10.726 -1.8256  1.4243 -0.1311
23162SOL     OW76090   9.022   6.526   0.421  0.2939  0.0456  0.6725
23162SOL    HW176091   8.970   6.528   0.341  0.3393 -0.9851  0.5952
23162SOL    HW276092   8.979   6.589   0.479  0.8132  1.4788 -0.4658
23163SOL     OW76093   3.098   8.743   3.661  0.5940  0.1313  0.1000
23163SOL    HW176094   3.144   8.771   3.582  0.7166  0.5110  0.3026
23163SOL    HW276095   3.005   8.744   3.637  0.4943  1.8019  0.4146
23164SOL     OW76096   0.485  12.681   1.350 -0.3404 -0.2379  0.2137
23164SOL    HW176097   0.501  12.774   1.367  1.7559 -0.1887 -1.6707
23164SOL    HW276098   0.414  12.681   1.285  1.5020  0.2678 -1.9274
23165SOL     OW76099   3.569   2.108   6.847 -0.4940 -0.1766 -0.3186
23165SOL    HW176100   3.535   2.019   6.838 -1.8475  0.2913 -0.1566
23165SOL    HW276101   3.569   2.124   6.941  1.2847 -0.5503 -0.2336
23166SOL     OW76102   8.500   0.940   2.788  0.0655  0.6721  0.4636
23166SOL    HW176103   8.573   0.971   2.842  0.5907 -0.6599  0.5690
23166SOL    HW276104   8.541   0.909   2.708 -0.3550 -0.1952  0.5702
23167SOL     OW76105   1.763   8.550   3.002  0.7719 -0.1185 -0.6383
23167SOL    HW176106   1.820   8.623   2.977  0.0661  0.8305  0.3984
23167SOL    HW276107   1.676   8.589   3.010  0.0958 -1.3872 -1.4507
23168SOL     OW76108   8.284   5.444   1.664 -0.2286  0.4657 -0.4056
23168SOL    HW176109   8.243   5.471   1.581  1.0267  0.0099 -1.2133
23168SOL    HW276110   8.219   5.465   1.731 -0.9474  1.6192 -1.4194
23169SOL     OW76111   2.686   1.068   1.571 -0.0504 -0.2720 -0.3223
23169SOL    HW176112   2.730   1.065   1.486  1.5100  2.6477  0.2271
23169SOL    HW276113   2.596   1.093   1.551  0.3768  0.6794 -1.1167
23170SOL     OW76114   8.789   9.744   9.732  0.5735  0.0691  0.0022
23170SOL    HW176115   8.708   9.790   9.753  0.9846  0.4805  0.7346
23170SOL    HW276116   8.786   9.731   9.637 -1.3920 -1.9135  0.2386
23171SOL     OW76117   4.853   3.172  11.846  0.6246  0.2809  0.0203
23171SOL    HW176118   4.876   3.085  11.880  2.3064  0.9081  0.5966
23171SOL    HW276119   4.769   3.191  11.888  0.3623 -0.9399  0.1103
23172SOL     OW76120  12.491   6.258   8.734  0.2391 -0.0576  0.1745
23172SOL    HW176121  12.411   6.309   8.737 -2.1699 -3.2685 -2.1886
23172SOL    HW276122  12.507   6.232   8.825 -1.2737  0.7940  0.7141
23173SOL     OW76123   5.011   3.744  10.485  0.6565  0.1090 -0.4321
23173SOL    HW176124   4.949   3.698  10.429 -0.3871  1.2351 -0.2462
23173SOL    HW276125   4.970   3.829  10.501  0.9977 -0.0989  1.8912
23174SOL     OW76126   5.065   6.432   0.800 -0.0385 -0.2557  0.4273
23174SOL    HW176127   4.999   6.432   0.731  0.8559 -0.4087 -0.4734
23174SOL    HW276128   5.148   6.427   0.752  0.7193  1.6926  1.4304
23175SOL     OW76129  11.822  10.169   8.169  0.1702 -0.2388 -0.2444
23175SOL    HW176130  11.797  10.129   8.086 -2.2674  0.8151 -0.1087
23175SOL    HW276131  11.917  10.166   8.170  0.2848 -0.0853 -3.1811
23176SOL     OW76132   4.694   6.189   1.678  0.0610  0.0346  0.2799
23176SOL    HW176133   4.634   6.176   1.604 -0.2791 -2.9840  0.9653
23176SOL    HW276134   4.636   6.200   1.754  0.3949  0.3508  0.4888
23177SOL     OW76135   1.032   5.366   4.125 -0.3962 -0.5671  0.3841
23177SOL    HW176136   1.034   5.423   4.049 -0.1680 -1.3564 -0.2160
23177SOL    HW276137   0.962   5.402   4.180 -0.3300  0.2149 -0.0278
23178SOL     OW76138   7.628   1.779   1.700 -0.9295 -0.1215  0.5544
23178SOL    HW176139   7.641   1.864   1.743  3.5339 -0.0120 -0.5438
23178SOL    HW276140   7.586   1.801   1.616  2.2072  1.4921 -0.7539
23179SOL     OW76141   9.331  10.636   1.366  0.2035  0.0055  0.0321
23179SOL    HW176142   9.278  10.583   1.426  0.0332  0.1731  0.0324
23179SOL    HW276143   9.417  10.594   1.366  0.0982 -0.2094  0.1103
23180SOL     OW76144  10.732   2.303  10.891  0.5934  0.6760 -0.1450
23180SOL    HW176145  10.642   2.289  10.860  0.9921  1.1353 -1.5994
23180SOL    HW276146  10.765   2.216  10.909 -1.1160  0.5990  3.5118
23181SOL     OW76147   3.875  11.279  10.766 -0.0896 -0.3344  0.7554
23181SOL    HW176148   3.939  11.275  10.695  0.3045  2.0976  0.8968
23181SOL    HW276149   3.890  11.199  10.816  0.7793 -1.2691 -0.8959
23182SOL     OW76150   4.589   4.484   4.766  0.2316 -0.3208 -0.2909
23182SOL    HW176151   4.563   4.575   4.753  1.0707 -0.0975 -0.4961
23182SOL    HW276152   4.663   4.472   4.707  0.7786 -0.8286  0.4782
23183SOL     OW76153   3.235   7.458   9.766 -0.0576 -0.4143 -0.2302
23183SOL    HW176154   3.282   7.461   9.682 -0.1342  2.4024 -0.2509
23183SOL    HW276155   3.292   7.505   9.827 -0.9469 -0.6396  0.8089
23184SOL     OW76156   7.531   9.785  10.114  0.2644  0.1576 -0.3629
23184SOL    HW176157   7.577   9.707  10.084 -0.4140 -0.6128  0.5252
23184SOL    HW276158   7.444   9.753  10.140  0.5652  0.8689  1.6901
23185SOL     OW76159   7.809   8.291   7.954 -0.2267  0.0358 -0.5280
23185SOL    HW176160   7.868   8.355   7.915  0.1224 -0.4119 -0.7417
23185SOL    HW276161   7.724   8.336   7.959 -0.4258 -0.0731 -2.3081
23186SOL     OW76162   1.811  10.649  10.627 -0.0432 -0.2901 -0.3539
23186SOL    HW176163   1.746  10.591  10.668  0.1670 -1.9402 -2.2269
23186SOL    HW276164   1.895  10.607  10.646  0.2853  0.4404 -0.1576
23187SOL     OW76165   6.282   1.391   2.989 -0.0554  0.2665 -0.2281
23187SOL    HW176166   6.189   1.402   2.967 -0.1785  0.8331  0.5433
23187SOL    HW276167   6.291   1.297   3.006 -0.9105  0.4488  1.4653
23188SOL     OW76168  11.003   7.236   7.381  0.3684  0.4032 -0.0975
23188SOL    HW176169  10.910   7.259   7.378  0.4812  0.7621 -1.4411
23188SOL    HW276170  11.016   7.180   7.305  1.4001  0.9200 -0.3115
23189SOL     OW76171  10.377   4.266   0.293  0.5348 -0.3195 -0.4637
23189SOL    HW176172  10.341   4.332   0.234  1.1041  0.9549  0.5798
23189SOL    HW276173  10.300   4.222   0.330  0.1582 -0.3562 -1.2662
23190SOL     OW76174   6.132   1.708   6.419 -0.0419 -0.0303  0.1446
23190SOL    HW176175   6.076   1.782   6.396 -0.3785 -0.2638  0.2166
23190SOL    HW276176   6.218   1.747   6.436 -0.5345  0.5028  1.4890
23191SOL     OW76177   4.960   5.980   3.882  0.3095 -0.5927 -0.0087
23191SOL    HW176178   4.916   6.065   3.887  0.4814 -0.5313  0.5511
23191SOL    HW276179   4.900   5.924   3.833  1.0970  0.4231 -2.2491
23192SOL     OW76180   0.369  11.698  12.249  0.4191  0.0580 -0.0752
23192SOL    HW176181   0.447  11.712  12.303 -0.7513 -0.9032  1.9439
23192SOL    HW276182   0.317  11.778  12.261  0.8864  0.5495 -1.1465
23193SOL     OW76183   7.193   8.507  11.804 -0.1728 -0.1598 -0.2912
23193SOL    HW176184   7.230   8.534  11.720 -0.8616  1.5124 -0.1106
23193SOL    HW276185   7.266   8.510  11.866  0.5919 -2.4869 -0.9856
23194SOL     OW76186   3.181   7.199   9.411 -0.2856  0.6700 -0.5036
23194SOL    HW176187   3.276   7.203   9.425 -0.3424  1.2124 -0.2407
23194SOL    HW276188   3.147   7.275   9.457 -1.0753 -0.6204  1.1315
23195SOL     OW76189   6.466   8.778   8.051 -0.0425  0.3759  0.3436
23195SOL    HW176190   6.417   8.800   8.130  0.7690 -0.5215  1.1291
23195SOL    HW276191   6.468   8.859   8.000  1.2324  1.6032  2.2389
23196SOL     OW76192   2.917  10.077   0.304  0.2449 -0.4484 -0.2705
23196SOL    HW176193   2.913   9.990   0.264  0.0112 -1.0281  0.9758
23196SOL    HW276194   2.929  10.137   0.230 -2.3503 -1.2644 -1.4837
23197SOL     OW76195   9.749   5.735  10.885  0.4465  0.1434  0.5698
23197SOL    HW176196   9.725   5.673  10.955 -1.2501  0.3623  0.2301
23197SOL    HW276197   9.732   5.821  10.923 -0.0745  0.2763  0.0491
23198SOL     OW76198   1.516   0.657   6.163  1.0483  0.3119  0.5662
23198SOL    HW176199   1.567   0.733   6.136  0.2141  1.0802  1.0946
23198SOL    HW276200   1.425   0.684   6.153  0.7067  0.1717  2.7642
23199SOL     OW76201  11.748   2.880  11.205  0.0986  0.0687 -0.1694
23199SOL    HW176202  11.822   2.843  11.254 -0.8532  0.9031  2.0392
23199SOL    HW276203  11.672   2.832  11.236 -0.6690  1.2971 -0.0729
23200SOL     OW76204   0.094   8.250   2.677  0.1169  0.2925  0.9217
23200SOL    HW176205   0.121   8.234   2.586 -2.4463  3.0663 -0.5535
23200SOL    HW276206   0.001   8.227   2.678 -0.3120  1.8783  2.3264
23201SOL     OW76207   0.066   3.411   1.133 -0.5139  0.2800  0.4188
23201SOL    HW176208   0.093   3.453   1.215 -2.4348  0.4342  1.0194
23201SOL    HW276209  -0.029   3.422   1.131 -0.4869  0.4824 -1.9661
23202SOL     OW76210   9.544  10.440   7.545 -0.0070  0.2899 -0.0701
23202SOL    HW176211   9.551  10.353   7.507  0.9669  0.0067  0.6987
23202SOL    HW276212   9.516  10.496   7.473  1.1627 -0.3377 -1.0455
23203SOL     OW76213   8.496   6.474   1.927  0.0540  0.4002 -0.4723
23203SOL    HW176214   8.567   6.519   1.972  0.8485 -2.1645  1.0436
23203SOL    HW276215   8.475   6.399   1.983 -1.6311 -0.7536 -2.4781
23204SOL     OW76216   0.707   2.958  10.978 -0.1093 -0.6556 -0.5381
23204SOL    HW176217   0.741   3.003  11.056  0.7908 -2.5946  0.2458
23204SOL    HW276218   0.612   2.960  10.988 -0.0285 -0.2840  0.2451
23205SOL     OW76219   1.632   3.979   9.720 -0.2971 -0.3279  0.1409
23205SOL    HW176220   1.635   4.061   9.670  0.4060  0.5933  1.6499
23205SOL    HW276221   1.541   3.950   9.711 -0.5936  0.6735 -0.3158
23206SOL     OW76222   7.732   8.711   1.110  0.4578  0.0208  0.1158
23206SOL    HW176223   7.707   8.622   1.084  2.2640 -0.4369 -0.2102
23206SOL    HW276224   7.825   8.717   1.087 -0.1241  2.7643 -1.9056
23207SOL     OW76225   2.641   7.563  10.915 -0.4129 -0.2467 -0.0887
23207SOL    HW176226   2.701   7.637  10.916 -3.2411  2.2198 -0.6225
23207SOL    HW276227   2.624   7.547  10.823  0.0663 -1.5581  0.0242
23208SOL     OW76228  11.084   4.749   2.394 -0.2357  0.3446  0.3685
23208SOL    HW176229  11.120   4.830   2.431 -1.6677  0.6994  1.0891
23208SOL    HW276230  11.104   4.682   2.459  1.3896 -0.0108 -0.4603
23209SOL     OW76231   7.874   3.194  12.172  0.2834  0.0818  0.5986
23209SOL    HW176232   7.865   3.289  12.182 -2.1930 -0.0522  0.2223
23209SOL    HW276233   7.784   3.163  12.161  0.7789 -2.5974  3.0945
23210SOL     OW76234   3.727   7.184  12.600  0.2387 -0.2557  0.3320
23210SOL    HW176235   3.732   7.279  12.593 -2.1087 -0.1461 -0.7920
23210SOL    HW276236   3.722   7.153  12.509 -1.1247 -1.2630  0.7158
23211SOL     OW76237   3.747  12.725   6.752 -0.1359  0.2760 -0.1298
23211SOL    HW176238   3.784  12.670   6.683 -1.2534  1.1949 -1.5085
23211SOL    HW276239   3.772  12.814   6.727  0.2452  0.5599  1.1822
23212SOL     OW76240   9.653   7.030  11.649  0.3939 -0.5191 -0.5456
23212SOL    HW176241   9.583   7.030  11.584  0.9594 -2.2538 -1.1960
23212SOL    HW276242   9.732   7.053  11.600  0.5510 -0.1465 -0.1269
23213SOL     OW76243   6.419  10.172   0.658  0.5686 -0.0691  0.5970
23213SOL    HW176244   6.373  10.224   0.593  0.9494  0.2217  0.5591
23213SOL    HW276245   6.386  10.204   0.742 -0.3504 -0.8336  0.5516
23214SOL     OW76246  11.098   2.142   5.839 -0.3316  0.3437 -0.1166
23214SOL    HW176247  11.075   2.070   5.781 -0.1534 -0.5106  0.8400
23214SOL    HW276248  11.191   2.157   5.824 -0.5411  0.9352 -0.8983
23215SOL     OW76249   2.730   5.907   6.923  0.2359  0.1860 -0.1629
23215SOL    HW176250   2.774   5.979   6.880 -0.0110  0.3479 -0.1485
23215SOL    HW276251   2.637   5.918   6.901  0.3218 -0.7433 -1.0522
23216SOL     OW76252   8.847   7.335   2.850  0.3975 -0.2224 -0.8800
23216SOL    HW176253   8.825   7.297   2.935  0.0891 -0.6637 -1.1534
23216SOL    HW276254   8.862   7.428   2.868 -1.1202 -0.0169 -0.5794
23217SOL     OW76255   1.562   1.643   8.804  0.2310 -0.2164 -0.3120
23217SOL    HW176256   1.613   1.643   8.885 -2.0662  0.2224  1.2638
23217SOL    HW276257   1.551   1.736   8.783  0.8218 -0.3293 -1.1544
23218SOL     OW76258  12.279   3.293   4.521 -0.8193  0.8821  0.2756
23218SOL    HW176259  12.284   3.307   4.426  0.9219  0.8317  0.3231
23218SOL    HW276260  12.359   3.246   4.543 -0.9968  1.2330  1.8319
23219SOL     OW76261   4.286   9.786  11.822 -0.3647 -0.1833 -0.2981
23219SOL    HW176262   4.341   9.845  11.874 -0.9397 -1.7812  2.2811
23219SOL    HW276263   4.204   9.782  11.870 -1.8926  0.1655 -2.7159
23220SOL     OW76264   7.761   0.378   3.258  0.4001  0.0945 -0.1049
23220SOL    HW176265   7.670   0.360   3.280  0.1102  1.2937 -0.2655
23220SOL    HW276266   7.774   0.337   3.172 -0.4756  1.3004 -0.8367
23221SOL     OW76267   9.285   4.805   7.971 -0.3621 -0.3357 -0.3769
23221SOL    HW176268   9.195   4.830   7.993  0.6409  2.6940  0.7888
23221SOL    HW276269   9.333   4.811   8.054  1.5209  1.4087 -1.4980
23222SOL     OW76270   8.536   8.442   9.013  0.2034  0.1490 -0.2961
23222SOL    HW176271   8.463   8.501   8.996  0.5852  0.6131 -0.3526
23222SOL    HW276272   8.583   8.481   9.086 -1.4594 -1.8632  2.0084
23223SOL     OW76273   8.271   7.135   1.571  0.2505 -0.1941  0.1403
23223SOL    HW176274   8.179   7.126   1.545  0.4352  0.9664 -0.9765
23223SOL    HW276275   8.276   7.091   1.656 -1.0407 -1.4163 -0.3795
23224SOL     OW76276   5.661   7.134   6.165  0.0986 -0.4433 -0.9625
23224SOL    HW176277   5.584   7.087   6.196  0.9432 -1.1683  0.0936
23224SOL    HW276278   5.730   7.111   6.227  0.8835  1.1185 -1.2049
23225SOL     OW76279   7.243   4.654   4.587  0.2134 -0.5587  0.1982
23225SOL    HW176280   7.327   4.633   4.546  0.3830  0.8752 -0.2422
23225SOL    HW276281   7.187   4.580   4.566  1.5457 -1.8905  1.0908
23226SOL     OW76282  12.049   8.805   7.221  0.1316 -0.4308 -0.0988
23226SOL    HW176283  12.006   8.811   7.307  1.6891 -0.8817  0.7552
23226SOL    HW276284  11.987   8.755   7.167  0.7972 -3.9158  2.0089
23227SOL     OW76285  10.922   1.436   5.426  0.3445  0.0056  0.1976
23227SOL    HW176286  10.868   1.386   5.365  0.8141  0.1383 -0.3363
23227SOL    HW276287  10.999   1.381   5.441 -0.0144 -0.2672  1.1011
23228SOL     OW76288   7.896   1.749   0.143 -0.1734 -0.0094 -0.3195
23228SOL    HW176289   7.985   1.726   0.114 -0.8145 -1.0092 -1.5886
23228SOL    HW276290   7.907   1.778   0.233  1.9282  3.1734 -1.4117
23229SOL     OW76291   5.661   9.643   5.722  0.0819 -0.0717 -0.4147
23229SOL    HW176292   5.610   9.585   5.779  2.1386 -0.4504  1.1757
23229SOL    HW276293   5.748   9.604   5.721  0.5079  0.8343 -2.5965
23230SOL     OW76294  11.081  12.141  10.085 -0.3591 -0.0718  0.1351
23230SOL    HW176295  11.106  12.166   9.997 -0.0299 -0.9466 -0.0332
23230SOL    HW276296  11.085  12.045  10.085 -0.5965 -0.0943  1.0255
23231SOL     OW76297   1.780   8.208   5.100  1.3810  0.1764 -0.4030
23231SOL    HW176298   1.686   8.192   5.091  0.8730  0.9181  2.5300
23231SOL    HW276299   1.791   8.299   5.072  1.0013  0.4259  0.2154
23232SOL     OW76300   7.105   2.462   0.828  0.2131 -0.0127  0.3405
23232SOL    HW176301   7.049   2.390   0.857 -0.2197 -0.1704 -0.7996
23232SOL    HW276302   7.188   2.421   0.804 -0.1540 -0.2089 -0.6526
23233SOL     OW76303   5.755   3.133  11.861 -0.0058  1.0117 -0.1451
23233SOL    HW176304   5.834   3.081  11.878 -0.8454  0.0366  0.9252
23233SOL    HW276305   5.785   3.223  11.859  1.4592  0.5476 -1.7941
23234SOL     OW76306  10.722   3.689   2.140 -0.3785 -0.1837  0.1671
23234SOL    HW176307  10.759   3.768   2.179 -0.1718 -0.4277  0.4717
23234SOL    HW276308  10.794   3.627   2.140 -0.9521 -0.8844  1.3843
23235SOL     OW76309   0.672   8.808   8.356  0.2974 -0.1654 -0.1305
23235SOL    HW176310   0.641   8.749   8.287  1.2981  0.4817 -1.1801
23235SOL    HW276311   0.716   8.750   8.418  0.9871 -0.5953 -0.9885
23236SOL     OW76312   2.314   1.808   8.740 -0.6486  0.4850 -0.6267
23236SOL    HW176313   2.387   1.823   8.680 -2.5647 -1.8191 -3.8481
23236SOL    HW276314   2.244   1.866   8.709 -1.3866 -0.0256  0.0311
23237SOL     OW76315   1.544   7.254   9.022  0.4621 -0.3468  0.0587
23237SOL    HW176316   1.513   7.338   9.055 -1.4540 -1.2898  0.8091
23237SOL    HW276317   1.580   7.274   8.936  0.9045  1.3702  0.6042
23238SOL     OW76318   2.144   6.002  11.322  0.1918 -0.1723 -0.4012
23238SOL    HW176319   2.098   6.031  11.243  1.8326 -0.7674 -1.6403
23238SOL    HW276320   2.129   5.908  11.325  1.4762 -0.4194 -0.9732
23239SOL     OW76321  10.438   4.100  12.154  0.4045  0.1166  0.3853
23239SOL    HW176322  10.500   4.088  12.226 -0.9453  3.3597  2.2946
23239SOL    HW276323  10.405   4.012  12.137  2.2645 -1.0710  2.2949
23240SOL     OW76324   4.183   9.077   4.049 -0.0441  0.2178  0.3402
23240SOL    HW176325   4.226   9.131   4.116 -1.2122  0.2025  1.1338
23240SOL    HW276326   4.177   9.133   3.972  0.2337  0.6424  0.6232
23241SOL     OW76327   9.042   0.145   2.405  0.1572  0.7481  0.2781
23241SOL    HW176328   9.109   0.096   2.452 -0.3829  1.0057  1.3539
23241SOL    HW276329   9.019   0.089   2.331  0.0058 -0.3451  1.1185
23242SOL     OW76330   7.562   3.451   2.943 -0.1202 -0.0539 -0.1101
23242SOL    HW176331   7.535   3.509   2.872  1.0748  1.1612  0.3882
23242SOL    HW276332   7.658   3.446   2.934 -0.1431 -1.4623  0.2356
23243SOL     OW76333   5.175   1.394   7.732  0.6187 -0.3394 -0.5192
23243SOL    HW176334   5.222   1.363   7.809  0.5421  1.3851  0.2700
23243SOL    HW276335   5.212   1.481   7.715 -2.1779  1.0924  0.1078
23244SOL     OW76336  11.811  11.052  11.448  0.8639  0.0026 -0.4250
23244SOL    HW176337  11.726  11.066  11.490  0.4496 -1.0857 -0.8742
23244SOL    HW276338  11.840  11.140  11.424  0.6226  0.5665  1.1621
23245SOL     OW76339  12.316  11.706   0.946 -0.2840  0.4911  0.1641
23245SOL    HW176340  12.275  11.667   0.869  1.5728 -0.6003 -0.3503
23245SOL    HW276341  12.393  11.751   0.912 -1.0501  2.6243  1.0626
23246SOL     OW76342  11.763   4.727   4.651 -0.2625 -0.2324  0.0443
23246SOL    HW176343  11.798   4.674   4.722 -1.6999  1.3107  2.0331
23246SOL    HW276344  11.730   4.663   4.587  0.2428 -1.6901  1.1897
23247SOL     OW76345   2.290   6.186   4.364 -0.0641  0.2219  0.0135
23247SOL    HW176346   2.233   6.112   4.341  0.1886  0.2179 -0.6370
23247SOL    HW276347   2.235   6.245   4.414 -0.7309  0.3607 -0.8608
23248SOL     OW76348   9.106   0.539   6.065 -0.0855  0.0295 -0.0378
23248SOL    HW176349   9.032   0.569   6.011  0.9977  2.0121 -0.5325
23248SOL    HW276350   9.174   0.604   6.049  0.5965  0.2464  3.1000
23249SOL     OW76351   8.061  10.571   2.628  0.3478  0.2974 -0.0807
23249SOL    HW176352   8.138  10.533   2.586  0.9934  1.4419  0.0255
23249SOL    HW276353   7.992  10.506   2.615  0.5772  0.4666 -2.6393
23250SOL     OW76354   6.842  10.776  11.681  0.0369 -0.2639 -0.0241
23250SOL    HW176355   6.805  10.690  11.661 -0.3898 -0.1510  0.2681
23250SOL    HW276356   6.934  10.758  11.699 -0.0682 -0.6782  0.1250
23251SOL     OW76357   8.669  10.805  12.703 -0.4361 -0.8096  0.9881
23251SOL    HW176358   8.701  10.802  12.613  0.7000 -0.3991  1.3554
23251SOL    HW276359   8.639  10.895  12.716  0.7586 -0.4506  1.4374
23252SOL     OW76360   0.698  11.153   3.855 -0.1201  0.5650  0.2019
23252SOL    HW176361   0.672  11.125   3.767  2.7503 -1.8150 -0.0472
23252SOL    HW276362   0.641  11.104   3.914 -1.0931  1.0708 -0.2998
23253SOL     OW76363   5.432   4.587   3.961 -0.1321  0.1264  0.1160
23253SOL    HW176364   5.501   4.533   3.999  2.2397 -0.2735 -4.1144
23253SOL    HW276365   5.441   4.672   4.005 -0.7744 -1.4046  3.5059
23254SOL     OW76366   5.212   0.632   5.122  0.1704  0.7240 -0.3080
23254SOL    HW176367   5.155   0.707   5.139 -0.8559 -0.4733  2.0217
23254SOL    HW276368   5.273   0.631   5.195  0.2899 -0.5808 -0.3916
23255SOL     OW76369   9.507  10.800   6.291 -0.1378  0.3076 -0.5902
23255SOL    HW176370   9.593  10.826   6.323  0.2772 -1.9706  0.3364
23255SOL    HW276371   9.526  10.732   6.226 -1.2204 -0.0841 -0.5116
23256SOL     OW76372  12.248   5.458  10.784  0.6513 -0.0665  0.2561
23256SOL    HW176373  12.194   5.420  10.714 -1.5316  1.4932  0.9699
23256SOL    HW276374  12.314   5.509  10.738 -0.7966  1.0130 -0.7438
23257SOL     OW76375   6.389   1.519   9.766 -0.8432 -0.3622 -0.3724
23257SOL    HW176376   6.373   1.544   9.675 -1.3814  1.8160  0.2495
23257SOL    HW276377   6.475   1.555   9.786 -1.2956  0.3530  0.3386
23258SOL     OW76378  11.035   1.338   7.238  0.3803 -0.0398  0.5043
23258SOL    HW176379  11.108   1.280   7.259  0.4001 -0.8534 -1.5940
23258SOL    HW276380  10.959   1.296   7.278  0.5939 -0.8555  0.0790
23259SOL     OW76381  10.050  12.266   6.100  0.4657 -0.2241  0.0947
23259SOL    HW176382   9.998  12.264   6.180  0.4525 -0.6164  0.0756
23259SOL    HW276383  10.005  12.208   6.039  2.2890 -2.6826  0.9343
23260SOL     OW76384  12.027  11.856   5.160 -0.4663  0.4568  0.2350
23260SOL    HW176385  11.943  11.897   5.141 -0.3747  0.5073 -0.0671
23260SOL    HW276386  12.090  11.905   5.106 -0.4515 -0.5067 -0.6606
23261SOL     OW76387   4.354   3.514   1.207 -0.3250  0.7468  0.2370
23261SOL    HW176388   4.346   3.568   1.129  0.6515  1.8665  0.8778
23261SOL    HW276389   4.367   3.576   1.279 -0.5771 -0.2781  1.2102
23262SOL     OW76390   2.861   1.879  12.135 -0.1202  0.1521  0.5039
23262SOL    HW176391   2.928   1.860  12.201 -1.0272  2.3069  2.1716
23262SOL    HW276392   2.827   1.794  12.109  1.1489 -0.8181  1.8786
23263SOL     OW76393   1.027   9.864   4.491 -0.3945 -0.6984 -0.0628
23263SOL    HW176394   1.107   9.889   4.445 -0.0091 -0.0110  0.9667
23263SOL    HW276395   1.020   9.769   4.478  0.4296 -0.7170 -0.3926
23264SOL     OW76396   0.766   5.590   3.821 -0.2410  0.0745 -0.0172
23264SOL    HW176397   0.743   5.615   3.731  0.2807  0.7037  0.0150
23264SOL    HW276398   0.762   5.494   3.821  0.0380  0.0534 -0.7894
23265SOL     OW76399  10.967  11.395  11.116 -0.1211  0.0492  0.3011
23265SOL    HW176400  10.927  11.479  11.138  0.0248  0.7135 -1.7202
23265SOL    HW276401  11.039  11.418  11.057  0.7461 -1.4147  0.7379
23266SOL     OW76402  10.744   7.828   0.347 -0.1950 -0.1801 -0.7214
23266SOL    HW176403  10.794   7.909   0.336  1.7315 -1.4154 -1.4566
23266SOL    HW276404  10.659   7.847   0.307 -0.4047  1.9996  0.6088
23267SOL     OW76405   4.352   0.935  11.612  0.7303  0.2192 -0.2218
23267SOL    HW176406   4.430   0.960  11.561  0.4599  0.2723 -0.6173
23267SOL    HW276407   4.316   0.861  11.563 -1.1599  2.0508 -1.7714
23268SOL     OW76408   7.236   8.166   1.607 -0.7371  0.3560  0.1607
23268SOL    HW176409   7.208   8.243   1.656 -1.5226  0.7426 -0.8681
23268SOL    HW276410   7.230   8.094   1.670 -1.8859  0.8155  0.5924
23269SOL     OW76411   2.658   4.959  11.073  0.0347 -0.1509 -0.0874
23269SOL    HW176412   2.630   4.989  10.987  0.0526 -1.0639 -0.4154
23269SOL    HW276413   2.589   4.899  11.102  0.2919 -0.2704  0.2961
23270SOL     OW76414   8.011  12.402   4.385 -0.1741 -0.4666 -0.4212
23270SOL    HW176415   8.100  12.411   4.421 -0.4878 -0.9007  0.4757
23270SOL    HW276416   7.979  12.319   4.419 -1.9808  0.9566  1.6389
23271SOL     OW76417   2.908  11.950  12.671 -0.1571  0.1006 -0.2385
23271SOL    HW176418   2.998  11.948  12.637 -0.0574  1.3629 -0.1043
23271SOL    HW276419   2.899  11.868  12.719  0.8954 -0.0799 -0.3151
23272SOL     OW76420   6.311   6.887   7.246  0.8612 -0.7487  0.0486
23272SOL    HW176421   6.374   6.882   7.174  0.0005  0.3148 -0.8001
23272SOL    HW276422   6.359   6.930   7.317  0.9328  0.6180 -0.7969
23273SOL     OW76423  11.363   6.898   3.723  0.2991  0.6831 -0.5016
23273SOL    HW176424  11.311   6.892   3.643  2.7085  2.9659 -2.4453
23273SOL    HW276425  11.419   6.821   3.721 -2.0919 -1.2547  1.0899
23274SOL     OW76426   6.525   7.874   7.664  0.3520 -0.4193  0.1420
23274SOL    HW176427   6.529   7.806   7.597  1.4230  0.0709 -0.3192
23274SOL    HW276428   6.467   7.941   7.628  0.3107 -0.5132  0.0342
23275SOL     OW76429   5.627   7.356   8.611 -0.0218 -0.4705 -0.0237
23275SOL    HW176430   5.656   7.439   8.572  0.6024 -0.8749 -0.4170
23275SOL    HW276431   5.702   7.298   8.604 -0.5462 -1.1603  0.0144
23276SOL     OW76432   3.169  12.070  10.629  0.4439 -0.5237 -0.2166
23276SOL    HW176433   3.102  12.006  10.653 -2.4783  0.1492 -5.0886
23276SOL    HW276434   3.131  12.154  10.655 -0.2859 -0.2202 -2.0806
23277SOL     OW76435   7.292  11.510   0.451  0.0629  0.4401  0.1474
23277SOL    HW176436   7.342  11.586   0.482  3.5064 -0.8598 -1.6912
23277SOL    HW276437   7.296  11.448   0.524  1.5156  0.2498 -0.0560
23278SOL     OW76438   0.900   4.601   0.164  0.1158  0.1932  0.8987
23278SOL    HW176439   0.912   4.511   0.194  1.9603 -0.1752 -0.7766
23278SOL    HW276440   0.967   4.651   0.210  0.2991  0.3663  0.4470
23279SOL     OW76441   1.356   8.994   2.285 -0.4925  0.1321  0.2159
23279SOL    HW176442   1.412   9.070   2.270 -1.3466  0.8937  0.7612
23279SOL    HW276443   1.416   8.923   2.307  0.4136  0.3462 -1.3703
23280SOL     OW76444  10.118   5.792  10.167  0.3214  0.3846  0.2633
23280SOL    HW176445  10.206   5.755  10.171 -0.5938 -1.9649  0.5176
23280SOL    HW276446  10.062   5.725  10.206 -1.5482  1.9676  0.4550
23281SOL     OW76447   8.470   4.295   1.118 -0.5452 -0.0090 -0.7584
23281SOL    HW176448   8.514   4.279   1.034 -0.0125 -0.9436 -0.3244
23281SOL    HW276449   8.377   4.297   1.096 -0.3447  1.4478 -1.6108
23282SOL     OW76450   0.682   4.748  11.098  0.6165 -0.0467  0.1296
23282SOL    HW176451   0.669   4.807  11.172 -2.4016 -0.6901  0.2481
23282SOL    HW276452   0.742   4.681  11.131  0.9074  0.7847  1.3256
23283SOL     OW76453  11.761   4.757   2.552  0.0530 -0.5644 -0.0719
23283SOL    HW176454  11.699   4.684   2.550  2.0822 -2.4190  0.0468
23283SOL    HW276455  11.780   4.769   2.645  0.6939 -0.8135 -0.1612
23284SOL     OW76456   2.813   8.730   5.065 -0.3451 -0.7050  0.5364
23284SOL    HW176457   2.858   8.689   5.139  1.3079  1.6882  0.9833
23284SOL    HW276458   2.883   8.746   5.000 -1.0022  0.7172  0.1271
23285SOL     OW76459   8.541   3.267   2.936  0.5010 -0.1702  0.4491
23285SOL    HW176460   8.599   3.278   3.011  0.3008 -1.6867  0.8609
23285SOL    HW276461   8.600   3.253   2.862  0.7045 -2.1865  0.9458
23286SOL     OW76462   3.978  10.432   8.358 -0.0465  0.0166  0.2106
23286SOL    HW176463   4.068  10.416   8.384  0.3416 -2.0230 -1.9909
23286SOL    HW276464   3.928  10.360   8.398 -0.2960 -0.1083 -0.3067
23287SOL     OW76465   5.117   6.245   7.554  0.1356  0.0361 -0.2172
23287SOL    HW176466   5.142   6.330   7.519 -1.3390  1.1761  1.3346
23287SOL    HW276467   5.051   6.212   7.493  0.2816  0.2661 -0.5003
23288SOL     OW76468   4.326   0.278   0.712  0.2452 -0.1114 -0.2292
23288SOL    HW176469   4.385   0.203   0.711 -0.4475 -0.6902  0.7671
23288SOL    HW276470   4.238   0.240   0.720 -0.3505  0.6951 -2.2882
23289SOL     OW76471  12.548  12.019   7.486  0.4504 -0.3145  0.0127
23289SOL    HW176472  12.523  12.111   7.486 -0.5682 -0.5113  1.9945
23289SOL    HW276473  12.643  12.019   7.495  0.5127  0.5254 -0.5905
23290SOL     OW76474   5.347   3.516   6.386  0.6698 -0.5117 -0.7359
23290SOL    HW176475   5.333   3.454   6.314 -1.7126 -0.4159 -0.4355
23290SOL    HW276476   5.265   3.515   6.434  0.4499  2.9920 -0.7928
23291SOL     OW76477   4.340   8.757   8.471 -0.1042  0.2728 -0.0123
23291SOL    HW176478   4.321   8.829   8.411  0.2211 -0.3686 -0.9105
23291SOL    HW276479   4.292   8.683   8.435  1.3109 -0.5015 -0.3597
23292SOL     OW76480   2.643   7.143   4.182 -0.2287  0.6334  0.1330
23292SOL    HW176481   2.660   7.220   4.237  1.2122 -0.6097  1.4955
23292SOL    HW276482   2.640   7.178   4.093  0.3642  2.2743  0.7136
23293SOL     OW76483  11.569   1.768  11.099  0.4705 -0.3893 -0.3191
23293SOL    HW176484  11.502   1.794  11.035  0.7388  0.0929 -0.4095
23293SOL    HW276485  11.570   1.672  11.094 -1.0582 -0.4797  0.5558
23294SOL     OW76486   7.690   7.176  11.094  0.3129 -0.2545  0.5549
23294SOL    HW176487   7.763   7.197  11.152  2.1065 -2.5590 -0.7228
23294SOL    HW276488   7.724   7.188  11.006 -0.3610 -2.6663 -0.1028
23295SOL     OW76489   9.623   7.812  10.828  0.1879  0.3131 -0.7888
23295SOL    HW176490   9.613   7.721  10.799 -1.5720  0.3342 -0.3369
23295SOL    HW276491   9.622   7.808  10.923  2.2149  0.6346 -0.7054
23296SOL     OW76492   9.722   0.649   9.077  0.2069 -0.0759 -0.2447
23296SOL    HW176493   9.709   0.741   9.098  2.7904  0.0737  1.1126
23296SOL    HW276494   9.797   0.649   9.017  0.8216 -1.3327  0.4904
23297SOL     OW76495   4.315   5.507   5.229  0.2008  0.1496  0.1908
23297SOL    HW176496   4.373   5.582   5.226  0.1236  0.1817 -2.3006
23297SOL    HW276497   4.370   5.434   5.258  1.1530  0.4491 -0.8433
23298SOL     OW76498   7.553   0.536   8.419  0.0309  0.0121  0.6945
23298SOL    HW176499   7.487   0.588   8.373 -0.1746 -1.1101 -0.3483
23298SOL    HW276500   7.509   0.506   8.498 -0.1629  0.6288  0.8232
23299SOL     OW76501   8.855   1.105   2.682  0.0213  0.0895  0.7269
23299SOL    HW176502   8.820   1.049   2.613 -0.2476  1.0415  0.0646
23299SOL    HW276503   8.791   1.098   2.753  0.5382 -1.2622  1.0921
23300SOL     OW76504   2.910   2.454   4.148  0.0909 -0.0197 -0.1766
23300SOL    HW176505   2.890   2.399   4.224  2.7877  0.1471  0.7550
23300SOL    HW276506   2.936   2.392   4.080  2.0858 -0.0334  0.5365
23301SOL     OW76507  11.288   3.578   3.518  0.1576 -0.7592 -0.1945
23301SOL    HW176508  11.258   3.488   3.503  0.6367 -0.9572 -0.0007
23301SOL    HW276509  11.232   3.632   3.463 -3.1945 -0.6781  2.9496
23302SOL     OW76510   2.672   9.999   0.876 -0.2729 -0.1834  0.4038
23302SOL    HW176511   2.720   9.951   0.808 -1.4309  0.0619 -0.6060
23302SOL    HW276512   2.740  10.027   0.937  0.7536 -0.7002 -0.4624
23303SOL     OW76513   3.312   0.115   1.615  0.3560  0.0955  0.1792
23303SOL    HW176514   3.285   0.043   1.558 -0.9210  1.9663 -1.7481
23303SOL    HW276515   3.402   0.133   1.590  0.5138 -0.4787  0.3105
23304SOL     OW76516   2.132   9.278   8.699  0.6379 -0.0011 -0.1061
23304SOL    HW176517   2.183   9.207   8.738 -0.3878 -1.1327 -0.7581
23304SOL    HW276518   2.067   9.301   8.765  0.2756 -0.4311 -0.3095
23305SOL     OW76519   0.450   2.260   8.873  0.0276  0.3640 -0.1036
23305SOL    HW176520   0.440   2.223   8.961  0.9421  2.2416  0.8622
23305SOL    HW276521   0.403   2.343   8.877  2.6147  1.9436 -0.3628
23306SOL     OW76522   3.280   6.919   5.941 -0.1892 -0.3068  0.0996
23306SOL    HW176523   3.293   6.874   6.025 -0.3044  0.0062  0.2857
23306SOL    HW276524   3.362   6.905   5.893  0.0623 -0.0705  0.4580
23307SOL     OW76525   0.887   8.909   8.240  0.3110  0.3468 -0.0626
23307SOL    HW176526   0.832   8.841   8.281  2.1064 -1.2968 -0.2363
23307SOL    HW276527   0.824   8.969   8.199 -1.3686 -1.5194 -0.3895
23308SOL     OW76528   9.730  11.939   5.910  0.2066  0.5171 -0.6867
23308SOL    HW176529   9.709  11.850   5.940  1.2329  0.5212  0.0900
23308SOL    HW276530   9.660  11.993   5.946 -0.1677  0.0856 -0.7581
23309SOL     OW76531   3.107   1.016  10.697  0.1972 -0.4488 -0.2832
23309SOL    HW176532   3.050   0.940  10.681 -1.1289  0.3225  0.5481
23309SOL    HW276533   3.107   1.063  10.613  0.1278 -0.7974 -0.4815
23310SOL     OW76534  11.543   1.891   6.307 -0.1374 -0.2392 -0.0904
23310SOL    HW176535  11.510   1.961   6.363 -0.9471 -1.1983  0.6731
23310SOL    HW276536  11.638   1.902   6.307 -0.2032  0.3673  0.6741
23311SOL     OW76537   8.885   4.120   0.736 -0.2076  0.3753 -0.4784
23311SOL    HW176538   8.836   4.144   0.657  0.2941 -0.7969 -1.1692
23311SOL    HW276539   8.920   4.033   0.717  0.7023  0.4684  0.6791
23312SOL     OW76540   8.318   0.046   9.899  0.1192 -0.1072 -0.6661
23312SOL    HW176541   8.324  -0.040   9.857  1.9561 -0.2244 -0.2415
23312SOL    HW276542   8.408   0.067   9.922 -0.3952  1.6529 -0.1712
23313SOL     OW76543   3.535   9.263  11.959 -0.0857  0.1861 -0.7141
23313SOL    HW176544   3.614   9.221  11.926  0.0134  0.4333 -0.7878
23313SOL    HW276545   3.475   9.190  11.977  0.4194 -0.0545  0.0277
23314SOL     OW76546   7.868   4.816   1.358  0.7936 -0.1752 -1.2021
23314SOL    HW176547   7.875   4.735   1.408  1.4938  0.6845  0.1727
23314SOL    HW276548   7.895   4.793   1.269 -0.6490 -1.7926 -1.2562
23315SOL     OW76549   3.288   1.293   0.239  0.0041 -0.1302 -0.1624
23315SOL    HW176550   3.359   1.303   0.302 -0.6139  1.2995  0.3663
23315SOL    HW276551   3.331   1.266   0.158  0.9047 -1.2164  0.6437
23316SOL     OW76552  12.663   1.387   6.408  0.0674  0.0130  0.1884
23316SOL    HW176553  12.738   1.418   6.358  0.5277  1.7673  1.8550
23316SOL    HW276554  12.689   1.399   6.499 -1.3229 -1.6557  0.8439
23317SOL     OW76555   4.906   8.418   3.409  0.0930  0.4578 -0.0935
23317SOL    HW176556   4.905   8.341   3.466 -1.8420  0.1654 -0.4295
23317SOL    HW276557   4.991   8.415   3.365  0.5336 -0.8072  0.7884
23318SOL     OW76558   0.910   3.828   8.587 -0.1473  0.0132  0.1977
23318SOL    HW176559   0.849   3.791   8.524 -0.2171 -1.4779  1.0824
23318SOL    HW276560   0.854   3.866   8.655 -0.0840  0.3005  0.0881
23319SOL     OW76561   1.646  12.044   0.561 -0.1931 -0.2125  0.4957
23319SOL    HW176562   1.729  12.090   0.575 -0.8499  0.9311  0.7884
23319SOL    HW276563   1.670  11.952   0.557  0.9466 -0.0175  1.8807
23320SOL     OW76564  12.741   2.912   9.570  0.5039 -0.3289  0.5994
23320SOL    HW176565  12.726   2.938   9.661  0.7719  0.4799  0.4238
23320SOL    HW276566  12.681   2.967   9.519  3.1682  2.2078 -0.0326
23321SOL     OW76567  12.401   1.326   7.283  0.3142 -0.3208  0.0752
23321SOL    HW176568  12.473   1.324   7.219  0.0043 -3.0219 -0.2856
23321SOL    HW276569  12.434   1.275   7.357 -0.7131 -0.4063  0.4825
23322SOL     OW76570   0.062   7.252   0.968 -0.2088 -0.2450 -0.2996
23322SOL    HW176571  -0.031   7.270   0.953 -0.8535 -1.5702  1.7123
23322SOL    HW276572   0.095   7.329   1.015 -0.5978 -0.3132  0.0822
23323SOL     OW76573   2.295   3.847   1.102  0.1318  0.0337 -0.3435
23323SOL    HW176574   2.312   3.770   1.156 -0.6253  0.0505 -0.0591
23323SOL    HW276575   2.323   3.921   1.155 -0.9050  0.0711  0.1719
23324SOL     OW76576  11.722  11.823   9.530  0.3938  0.6602 -0.4218
23324SOL    HW176577  11.812  11.791   9.538  0.5954  1.1953 -0.5194
23324SOL    HW276578  11.680  11.761   9.470  0.8605  0.7360 -0.8313
23325SOL     OW76579   7.457   9.963  11.867  0.1814 -0.1746 -0.1108
23325SOL    HW176580   7.431   9.885  11.817  0.6784  0.5508 -1.5530
23325SOL    HW276581   7.543   9.940  11.903  0.4477 -0.2145 -0.7509
23326SOL     OW76582   8.102   0.417   6.123 -0.3982 -0.1214  0.0116
23326SOL    HW176583   8.149   0.335   6.109  1.0274  0.5844  0.3882
23326SOL    HW276584   8.100   0.427   6.218  2.9785  2.1056  0.0274
23327SOL     OW76585   8.990   0.084   6.270  0.2935 -0.6370  0.3673
23327SOL    HW176586   9.083   0.076   6.249  0.4609 -0.8422  1.1687
23327SOL    HW276587   8.950   0.005   6.233  0.1764  0.1675 -1.3062
23328SOL     OW76588   0.320   9.281   9.555 -0.4411 -0.0344  0.3291
23328SOL    HW176589   0.349   9.312   9.641  0.8554  2.5928 -0.9384
23328SOL    HW276590   0.270   9.355   9.519 -1.5721 -1.3538 -0.9140
23329SOL     OW76591  10.666   9.548   1.616  0.3877 -0.5702 -0.1166
23329SOL    HW176592  10.707   9.628   1.585  2.4593 -1.1117  1.0177
23329SOL    HW276593  10.638   9.568   1.705  1.2569 -1.1971  0.3063
23330SOL     OW76594   8.723   1.429   3.253  0.5727  0.1518 -0.2580
23330SOL    HW176595   8.651   1.367   3.239 -0.1701  0.3877  2.1757
23330SOL    HW276596   8.685   1.515   3.235  0.7777  0.1533 -0.7144
23331SOL     OW76597  11.187   0.710  11.576 -0.2250 -0.3203 -0.4953
23331SOL    HW176598  11.128   0.643  11.541 -0.1240 -0.1882 -0.9190
23331SOL    HW276599  11.255   0.720  11.509  1.5064 -2.0116  0.8745
23332SOL     OW76600   4.899  12.089  10.819 -0.5497 -0.2401 -0.2592
23332SOL    HW176601   4.866  12.045  10.897 -0.3629 -0.7828 -0.4777
23332SOL    HW276602   4.944  12.020  10.770 -0.8727  0.0347 -0.9633
23333SOL     OW76603   2.830   3.248   8.916 -0.2918 -0.5083  0.5363
23333SOL    HW176604   2.786   3.169   8.948  0.1799 -0.9754  0.0592
23333SOL    HW276605   2.788   3.266   8.831 -1.3924  0.5985  1.2829
23334SOL     OW76606   9.272   9.733   6.496  0.2420 -0.4290 -0.0762
23334SOL    HW176607   9.298   9.643   6.477 -2.4974 -1.5871  1.2041
23334SOL    HW276608   9.180   9.738   6.471  0.0773  1.7882  0.7097
23335SOL     OW76609  11.112   5.909  10.813 -0.3101 -0.0437 -0.2045
23335SOL    HW176610  11.170   5.855  10.867  1.3503  1.6691 -0.1901
23335SOL    HW276611  11.137   5.887  10.723  0.4349  0.7333 -0.1976
23336SOL     OW76612   8.090   3.611  10.656 -0.3745  0.1141 -0.1197
23336SOL    HW176613   8.047   3.566  10.583  1.4640 -2.3001  0.1528
23336SOL    HW276614   8.020   3.656  10.702 -1.9083 -0.1504 -2.0690
23337SOL     OW76615  10.098   0.572   1.266  0.4144  0.8857  0.1119
23337SOL    HW176616  10.144   0.529   1.338  1.1258  0.7070 -0.4382
23337SOL    HW276617  10.071   0.500   1.208 -1.8083  0.8310  1.0826
23338SOL     OW76618   9.596   2.442   2.128 -0.4645 -0.6746  0.5184
23338SOL    HW176619   9.585   2.347   2.121 -2.3411 -0.4637  0.1977
23338SOL    HW276620   9.627   2.469   2.042  2.8670 -1.2569  1.3796
23339SOL     OW76621   8.721   1.513   8.334 -0.0810 -0.0136  0.3663
23339SOL    HW176622   8.701   1.423   8.360  0.2908 -1.2460 -3.0526
23339SOL    HW276623   8.817   1.516   8.334 -0.0270  1.4123  3.2157
23340SOL     OW76624  12.371   7.630  10.814  0.2623 -0.0679  0.3732
23340SOL    HW176625  12.339   7.589  10.733  0.1948  1.4515 -0.4230
23340SOL    HW276626  12.451   7.583  10.835  1.2055  0.5745 -1.5551
23341SOL     OW76627   8.348   5.647   4.248 -0.3425  0.8731  0.2140
23341SOL    HW176628   8.386   5.727   4.212  1.2202 -0.2307 -0.6903
23341SOL    HW276629   8.414   5.615   4.310 -0.1498 -0.5997 -0.7090
23342SOL     OW76630   6.906   5.676   8.855 -0.2281 -0.4359  0.2780
23342SOL    HW176631   6.983   5.654   8.908  0.0988 -0.2197 -0.0997
23342SOL    HW276632   6.918   5.768   8.832 -1.1617 -0.0904  1.1334
23343SOL     OW76633   6.147   0.901  11.862  0.1879 -0.8307 -0.3075
23343SOL    HW176634   6.162   0.861  11.948  1.5917  1.6519  0.7096
23343SOL    HW276635   6.083   0.970  11.878  1.0595  0.1886 -1.0506
23344SOL     OW76636   1.927  11.716   5.290 -0.3745  0.3183 -0.3727
23344SOL    HW176637   1.888  11.769   5.220  1.0390 -0.2962 -1.6807
23344SOL    HW276638   1.959  11.638   5.245  2.2751  0.7480  0.6238
23345SOL     OW76639   5.047   7.967   2.003  0.1025 -0.0809 -0.0174
23345SOL    HW176640   5.022   7.993   1.914  0.4792  0.5442  0.0517
23345SOL    HW276641   5.143   7.968   2.002  0.1164 -0.7755  0.1955
23346SOL     OW76642   5.954   6.222   2.184  0.7049 -0.1790  0.3528
23346SOL    HW176643   6.030   6.165   2.175 -0.6246 -2.0006  0.1190
23346SOL    HW276644   5.914   6.221   2.097 -0.4319 -0.5238  0.8690
23347SOL     OW76645   2.977   2.732   7.191  0.0920 -0.0892 -0.0275
23347SOL    HW176646   3.014   2.658   7.144  1.7217  0.0771  0.9058
23347SOL    HW276647   2.924   2.693   7.260 -0.1494 -0.3583 -0.3634
23348SOL     OW76648  12.575  11.376   4.311  0.1328  0.1861  0.3530
23348SOL    HW176649  12.514  11.445   4.286 -0.0722 -0.3812 -0.7893
23348SOL    HW276650  12.556  11.360   4.404 -0.6699  0.7924  0.3064
23349SOL     OW76651   4.465   1.396  12.261 -0.4278 -0.4040 -1.1020
23349SOL    HW176652   4.380   1.419  12.299  0.8090  0.5220  1.2646
23349SOL    HW276653   4.505   1.480  12.240  0.4422 -0.7724 -0.9408
23350SOL     OW76654  10.016   3.750  12.267 -0.2325  0.6822 -0.8744
23350SOL    HW176655   9.989   3.818  12.329 -0.4065  0.7906 -1.0691
23350SOL    HW276656   9.939   3.694  12.258  0.2056 -0.0826  0.0066
23351SOL     OW76657   7.366   2.863   8.532 -0.3604  0.2454 -0.2349
23351SOL    HW176658   7.315   2.786   8.554  1.7298 -1.3122 -0.5515
23351SOL    HW276659   7.420   2.879   8.610  1.0972 -0.2462 -1.1142
23352SOL     OW76660   2.052   0.105  12.115 -0.1738 -0.3659 -0.5381
23352SOL    HW176661   1.958   0.118  12.108 -0.3435 -1.2761 -0.0853
23352SOL    HW276662   2.084   0.184  12.160 -1.1869 -1.4636  2.3365
23353SOL     OW76663   2.509   3.052   9.664  0.5012  0.1992  0.3405
23353SOL    HW176664   2.527   2.990   9.735  1.5943 -0.4167 -0.4430
23353SOL    HW276665   2.530   3.004   9.584 -0.0866  1.0945 -0.3740
23354SOL     OW76666   2.904  10.388  11.378 -0.0318 -0.5883  0.0461
23354SOL    HW176667   2.894  10.336  11.457 -1.5428  0.5746  0.6688
23354SOL    HW276668   2.847  10.345  11.313 -1.5251  0.3747  0.6499
23355SOL     OW76669   1.174   6.394  10.733  0.4074 -1.0849 -0.2807
23355SOL    HW176670   1.116   6.323  10.760 -0.3178 -0.0574  0.9917
23355SOL    HW276671   1.256   6.351  10.711 -0.3950 -2.4334 -0.7734
23356SOL     OW76672  10.086  11.925   4.748  0.3585 -0.3023  0.2370
23356SOL    HW176673  10.065  11.845   4.797  0.4914 -0.0285  0.7496
23356SOL    HW276674  10.137  11.977   4.809  0.5577  0.0325 -0.2136
23357SOL     OW76675   0.483   0.551   3.769 -0.3097 -0.3483 -0.2038
23357SOL    HW176676   0.459   0.576   3.680 -1.6827  0.0725  0.2532
23357SOL    HW276677   0.563   0.501   3.760  1.0855  1.9413 -1.4462
23358SOL     OW76678   1.896   6.465   4.649  0.0027  0.1973  0.0784
23358SOL    HW176679   1.927   6.534   4.591 -1.1704  0.7830  0.1072
23358SOL    HW276680   1.938   6.484   4.733  0.3314  0.3830 -0.1236
23359SOL     OW76681   7.363   2.975   5.624 -0.0727 -0.2677 -0.7494
23359SOL    HW176682   7.343   2.966   5.531  1.0751 -1.6968 -0.8999
23359SOL    HW276683   7.455   3.001   5.627 -0.3016  0.5033 -0.0122
23360SOL     OW76684   3.402   8.679  12.678  0.2103 -0.5724  0.4876
23360SOL    HW176685   3.372   8.627  12.752  1.6474 -1.3399  0.5671
23360SOL    HW276686   3.476   8.729  12.712  0.2640 -0.1921 -0.1761
23361SOL     OW76687   1.103   9.382   3.439  0.1782 -0.8341  0.0777
23361SOL    HW176688   1.106   9.384   3.343  0.5900  0.6843  0.0913
23361SOL    HW276689   1.016   9.416   3.461  0.9274  1.1731  0.2205
23362SOL     OW76690  10.954   7.983   1.258  0.2919  0.0731  0.5663
23362SOL    HW176691  11.008   8.051   1.219 -1.0905 -0.3567 -2.3266
23362SOL    HW276692  10.873   8.028   1.282  0.1636 -0.1644  0.5812
23363SOL     OW76693  10.395  12.172   8.407 -0.0047  0.0545  0.4566
23363SOL    HW176694  10.488  12.159   8.425  0.8153 -0.1031 -3.1917
23363SOL    HW276695  10.360  12.083   8.401 -0.5914  0.1145  2.3795
23364SOL     OW76696   9.053   3.929   9.855 -0.1051  0.4598 -0.1684
23364SOL    HW176697   9.028   3.863   9.919 -2.4987 -0.8574 -2.2503
23364SOL    HW276698   9.105   3.881   9.790  0.1788  1.1599 -0.4695
23365SOL     OW76699  10.446   6.682  11.474  0.4364  0.6180 -0.0132
23365SOL    HW176700  10.505   6.756  11.485 -0.6695  1.6090 -0.6030
23365SOL    HW276701  10.358   6.719  11.481 -0.1438 -0.5788 -0.5991
23366SOL     OW76702   8.421   8.561   1.465  0.0961 -0.2378  0.0118
23366SOL    HW176703   8.461   8.615   1.533 -0.3866 -0.6679  0.6431
23366SOL    HW276704   8.400   8.479   1.508  0.8699 -0.9784 -0.9546
23367SOL     OW76705  10.457   5.741   0.648  0.0490  0.2443  0.3434
23367SOL    HW176706  10.397   5.667   0.640 -1.7080  1.3514  2.3312
23367SOL    HW276707  10.542   5.701   0.668 -0.2238 -1.3072 -1.3635
23368SOL     OW76708   7.702   4.259   0.590 -0.2369 -0.0020  1.2937
23368SOL    HW176709   7.630   4.318   0.566  0.4731  0.6052  0.5892
23368SOL    HW276710   7.746   4.241   0.507  1.2789  0.7871  1.8904
23369SOL     OW76711  10.289  12.771   6.738  0.0614  0.2135  0.6345
23369SOL    HW176712  10.268  12.858   6.771 -0.7485 -0.3537  1.6773
23369SOL    HW276713  10.282  12.778   6.643 -0.6774  1.1139  0.7459
23370SOL     OW76714   3.332   0.611   9.454  0.4603  0.5375 -0.1101
23370SOL    HW176715   3.253   0.613   9.400  0.2592  2.1238  0.2000
23370SOL    HW276716   3.301   0.589   9.542  0.6724 -1.0893 -0.4094
23371SOL     OW76717   1.720   4.032   8.212 -0.3274  0.0689  0.4263
23371SOL    HW176718   1.802   3.986   8.192  1.5070  2.6582  1.5106
23371SOL    HW276719   1.671   4.031   8.130  1.6413  0.0793 -0.8042
23372SOL     OW76720  12.543   7.943   6.093 -0.0966  0.0749 -0.1222
23372SOL    HW176721  12.608   7.876   6.116  0.0527  0.7017  1.3380
23372SOL    HW276722  12.577   8.024   6.132 -1.1695  0.6484 -0.3507
23373SOL     OW76723   2.328   5.938   7.730  0.4115 -0.1135  0.1479
23373SOL    HW176724   2.341   5.872   7.663  0.6722  0.0957 -0.0090
23373SOL    HW276725   2.237   5.927   7.757  0.3109 -0.2094 -0.2236
23374SOL     OW76726   2.839   6.742   8.638 -0.6390  0.2855  0.5797
23374SOL    HW176727   2.906   6.780   8.582  0.4718 -2.5217 -0.1678
23374SOL    HW276728   2.880   6.665   8.676 -3.2350 -1.2338  0.5728
23375SOL     OW76729   2.242   1.148   6.564 -0.5369  0.5146 -0.1681
23375SOL    HW176730   2.323   1.191   6.537 -0.7115  1.6863  1.0906
23375SOL    HW276731   2.185   1.154   6.487  0.0350  1.0305 -0.5584
23376SOL     OW76732   2.430   1.423  11.397 -0.1825  0.4967  0.4359
23376SOL    HW176733   2.473   1.348  11.356  0.5580  1.5330 -0.8007
23376SOL    HW276734   2.347   1.433  11.350 -0.0108  0.7865  0.1849
23377SOL     OW76735   8.682   7.726  10.846  0.3246 -0.0932  0.5208
23377SOL    HW176736   8.617   7.796  10.857 -0.3763 -0.1639 -2.4274
23377SOL    HW276737   8.764   7.773  10.830  0.4003  0.0050  1.1542
23378SOL     OW76738   3.908   2.041   3.426 -0.3300  0.7789 -0.0542
23378SOL    HW176739   3.964   1.981   3.377  0.3071  0.9043  0.5031
23378SOL    HW276740   3.959   2.122   3.433 -1.5298  1.7269 -1.5660
23379SOL     OW76741  10.673   0.565   0.032 -0.4868  0.6746  0.0955
23379SOL    HW176742  10.644   0.593   0.119 -0.6300 -0.5008  0.4457
23379SOL    HW276743  10.618   0.490   0.011 -0.9414  1.3793 -1.3376
23380SOL     OW76744   6.328   0.907   4.574 -0.1308  0.3027  0.4510
23380SOL    HW176745   6.332   0.851   4.496  1.2170 -0.7020  1.2101
23380SOL    HW276746   6.236   0.902   4.602 -0.4584  0.0573 -0.6150
23381SOL     OW76747   6.648   4.122   9.953  0.1366  0.0498 -0.0335
23381SOL    HW176748   6.688   4.209   9.961  0.3933 -0.1427  0.9100
23381SOL    HW276749   6.683   4.072  10.027  1.0478 -1.2839 -1.3017
23382SOL     OW76750   5.636   9.886   1.011  0.2013  0.1833 -0.4204
23382SOL    HW176751   5.568   9.924   0.956  0.6296  1.4443 -0.1276
23382SOL    HW276752   5.597   9.879   1.098  0.0929 -0.1351 -0.4946
23383SOL     OW76753   2.571   9.172   6.056 -0.0465  0.5446 -0.0174
23383SOL    HW176754   2.603   9.168   5.966  0.7339  2.5637  0.1248
23383SOL    HW276755   2.522   9.254   6.061  2.0197  1.7817  1.9986
23384SOL     OW76756   4.241   2.514  12.142 -0.2494  0.4247 -0.4504
23384SOL    HW176757   4.162   2.472  12.176 -0.5594 -0.6033 -2.3145
23384SOL    HW276758   4.217   2.605  12.129 -0.7189  0.3978  0.2142
23385SOL     OW76759  12.690   8.523   3.258 -0.0980  0.7244 -0.5767
23385SOL    HW176760  12.729   8.606   3.286 -0.7420  0.4383  1.2799
23385SOL    HW276761  12.765   8.465   3.244  0.2834  0.9299  0.4842
23386SOL     OW76762   1.023   9.495   4.117  0.1421 -0.1290 -0.2612
23386SOL    HW176763   1.036   9.584   4.085  0.9584 -0.1606 -0.0533
23386SOL    HW276764   1.111   9.464   4.137 -0.2999  0.0836  2.4818
23387SOL     OW76765   1.900  11.458   8.535  0.0450 -0.0235 -0.2022
23387SOL    HW176766   1.935  11.544   8.515 -3.3890  1.3008 -1.0993
23387SOL    HW276767   1.852  11.432   8.457 -0.8903 -1.7301  0.8639
23388SOL     OW76768   4.263   2.495   8.142 -0.1437 -0.4265  0.7203
23388SOL    HW176769   4.187   2.498   8.200  0.0730 -1.1575  1.0480
23388SOL    HW276770   4.297   2.406   8.151 -0.6597 -0.8504 -1.2534
23389SOL     OW76771   0.985   3.744  11.999  0.1684 -0.6337  0.5029
23389SOL    HW176772   1.019   3.719  11.913  0.5672 -0.7520  0.6928
23389SOL    HW276773   1.000   3.667  12.054  1.6689  0.0770  1.1696
23390SOL     OW76774  11.615   6.319  11.566  0.4480 -0.6932  0.2824
23390SOL    HW176775  11.630   6.228  11.592 -1.3028 -1.5146 -1.2841
23390SOL    HW276776  11.550   6.313  11.495  0.3260  1.7794  0.0924
23391SOL     OW76777  11.991   3.361   5.986 -0.0410  0.3636  0.1211
23391SOL    HW176778  12.032   3.394   5.905 -2.2539  0.1740 -1.1364
23391SOL    HW276779  11.954   3.276   5.962 -0.5368  0.1875  1.4140
23392SOL     OW76780   8.468   4.625   3.627  0.1881 -0.1414 -0.1959
23392SOL    HW176781   8.506   4.580   3.551  1.2898  0.2500  0.1109
23392SOL    HW276782   8.378   4.593   3.630  0.5521 -1.3026 -0.7820
23393SOL     OW76783  10.559   6.682   7.500 -0.1719 -0.0132 -0.3927
23393SOL    HW176784  10.464   6.695   7.507 -0.0627  0.3360  0.7262
23393SOL    HW276785  10.593   6.766   7.472 -0.0623  0.3519  0.7607
23394SOL     OW76786   8.268  10.437   2.147  0.4578  0.0904 -0.3720
23394SOL    HW176787   8.237  10.518   2.106  0.8383  0.6793  0.4717
23394SOL    HW276788   8.337  10.406   2.089  0.3853  0.4372 -0.6463
23395SOL     OW76789   5.619   7.784   5.953 -0.2941  0.5871  0.3129
23395SOL    HW176790   5.615   7.690   5.966 -0.1079  0.8221  2.5115
23395SOL    HW276791   5.686   7.797   5.887 -0.5183 -0.8213 -0.2227
23396SOL     OW76792   3.353  11.926   4.167 -0.2995  0.0592 -0.6949
23396SOL    HW176793   3.286  11.859   4.178 -0.0956 -0.3332 -1.7227
23396SOL    HW276794   3.435  11.877   4.154  0.0263  0.5188 -0.4081
23397SOL     OW76795   3.354  11.011   2.874 -0.1913  0.0829 -0.4357
23397SOL    HW176796   3.329  10.923   2.902 -1.1502  0.6353  0.5552
23397SOL    HW276797   3.450  11.013   2.882 -0.1027 -1.0565 -1.0879
23398SOL     OW76798   9.955   7.695   4.441  0.0964  0.4571 -0.5237
23398SOL    HW176799  10.020   7.652   4.385  0.3024 -0.5047  0.4155
23398SOL    HW276800   9.970   7.658   4.528 -1.1928  0.8154 -0.1230
23399SOL     OW76801  12.510  10.448  10.392  0.7479 -0.3683  1.3740
23399SOL    HW176802  12.537  10.367  10.348  0.7713 -1.0201  2.5657
23399SOL    HW276803  12.440  10.421  10.451 -1.0564  0.9333 -0.0722
23400SOL     OW76804   4.532   3.582   8.436 -0.5615  0.2200 -0.1537
23400SOL    HW176805   4.581   3.664   8.443  0.6732 -0.3091 -2.0422
23400SOL    HW276806   4.445   3.608   8.406 -0.1833  0.8369 -0.7174
23401SOL     OW76807   6.575  11.731  11.388 -0.1434 -0.0018  0.0858
23401SOL    HW176808   6.670  11.731  11.393 -0.0369  0.9535 -1.2263
23401SOL    HW276809   6.552  11.641  11.364  0.5030 -0.0304 -0.4632
23402SOL     OW76810   2.321   3.263   9.716 -0.1786 -0.7576  0.2342
23402SOL    HW176811   2.286   3.214   9.642  0.5278 -2.1449  0.7736
23402SOL    HW276812   2.389   3.206   9.752 -0.1311  0.1235  1.6158
23403SOL     OW76813   7.595   3.760   0.820 -0.3439 -0.2227 -0.0622
23403SOL    HW176814   7.604   3.844   0.866 -0.6689 -0.5949  0.6992
23403SOL    HW276815   7.502   3.753   0.801 -0.1778  0.0541 -1.0510
23404SOL     OW76816   3.034   8.245   5.736 -0.3557 -0.2605 -0.5365
23404SOL    HW176817   3.032   8.284   5.823  1.0333 -0.5293 -0.3667
23404SOL    HW276818   2.965   8.290   5.688 -0.3720  0.7008  0.3557
23405SOL     OW76819  11.754   4.387   5.445  0.4568 -0.0174 -0.4460
23405SOL    HW176820  11.725   4.478   5.442 -0.7032 -0.4089 -1.5017
23405SOL    HW276821  11.848   4.393   5.463  0.3228  1.3653 -0.0952
23406SOL     OW76822   7.879   6.928   9.043 -0.2155  0.3730 -0.7112
23406SOL    HW176823   7.832   7.002   9.084 -0.8992 -0.8844  0.8911
23406SOL    HW276824   7.971   6.944   9.064 -0.5431 -0.1979  1.3615
23407SOL     OW76825   3.090   4.149  12.756  0.9847  0.0334 -0.4322
23407SOL    HW176826   3.140   4.068  12.768  1.3941  0.1842 -1.0610
23407SOL    HW276827   3.110   4.201  12.834 -1.1860 -1.4152  1.2114
23408SOL     OW76828   6.495   4.025   2.376  0.1627 -0.0116 -0.5378
23408SOL    HW176829   6.400   4.015   2.369  0.0525  0.2071  0.4874
23408SOL    HW276830   6.508   4.114   2.409  0.5065 -1.1276  2.7144
23409SOL     OW76831   5.086   8.985   3.004 -0.7786 -0.2417  0.7189
23409SOL    HW176832   5.156   8.944   2.954  1.1918  1.1796  2.1639
23409SOL    HW276833   5.038   8.912   3.043 -0.7492 -1.2648 -1.0724
23410SOL     OW76834  12.327   0.126   9.936  0.2027  0.3467  0.2387
23410SOL    HW176835  12.396   0.191   9.919  0.6602 -0.4272 -1.0702
23410SOL    HW276836  12.330   0.112  10.030  0.4527  1.8198  0.4822
23411SOL     OW76837  10.896   6.095   2.741  0.2642 -0.3341 -0.4384
23411SOL    HW176838  10.962   6.039   2.700  0.8650  0.6768 -0.8996
23411SOL    HW276839  10.839   6.122   2.670  0.2814  0.0318 -0.3213
23412SOL     OW76840   2.069   1.547  11.429  0.2876 -0.2608 -0.0923
23412SOL    HW176841   2.136   1.548  11.497  0.3254  0.3861 -0.1377
23412SOL    HW276842   2.115   1.573  11.349  0.3992 -1.6735 -0.5227
23413SOL     OW76843  12.488   3.010   9.795  0.2768 -0.2043 -0.1679
23413SOL    HW176844  12.424   3.001   9.866  0.4538 -0.3952 -0.0325
23413SOL    HW276845  12.573   2.997   9.836  0.3478 -0.8634 -0.5105
23414SOL     OW76846  11.043   5.878   4.042  0.3376  0.1997 -0.4410
23414SOL    HW176847  10.994   5.942   4.095 -1.3735  1.2232 -3.0735
23414SOL    HW276848  10.999   5.795   4.058  0.4613  0.2943  0.4458
23415SOL     OW76849   4.650   9.107   5.579 -0.0535  0.3901 -0.5231
23415SOL    HW176850   4.670   9.046   5.508  3.3200  0.8213 -0.1171
23415SOL    HW276851   4.628   9.050   5.653 -0.5297 -0.1806 -1.0885
23416SOL     OW76852   0.916   6.927   6.908 -0.2898  0.0932  0.0421
23416SOL    HW176853   0.879   6.936   6.820 -0.2447 -0.8449 -0.0749
23416SOL    HW276854   0.928   7.018   6.938  1.2001  0.4732 -1.5333
23417SOL     OW76855   4.159   3.955  10.937  0.2961  0.4656 -0.0417
23417SOL    HW176856   4.216   4.030  10.920  0.3181  0.2569 -0.9624
23417SOL    HW276857   4.104   3.949  10.859 -0.4077  0.1471  0.4729
23418SOL     OW76858   6.812   4.817   5.424 -0.3911  0.2630  0.2451
23418SOL    HW176859   6.829   4.908   5.448 -2.6350  0.7860  0.0877
23418SOL    HW276860   6.794   4.820   5.330 -0.2072 -0.3971  0.1841
23419SOL     OW76861  10.904   9.699   0.981  0.0141  0.0795  0.6375
23419SOL    HW176862  10.861   9.784   0.972 -0.7411 -0.2994  0.6721
23419SOL    HW276863  10.842   9.636   0.945  1.1857 -0.3161 -0.7722
23420SOL     OW76864  11.729   8.209   0.266  0.1690 -0.1669 -0.2611
23420SOL    HW176865  11.753   8.245   0.352 -3.0836 -0.3885  0.9102
23420SOL    HW276866  11.796   8.143   0.248  1.0477 -0.0258  2.0681
23421SOL     OW76867  10.049   6.064  11.212 -0.4318 -0.1785  0.2291
23421SOL    HW176868  10.041   5.972  11.188  0.6358 -0.6531  1.5417
23421SOL    HW276869   9.975   6.107  11.169 -1.3705 -1.7591  0.1931
23422SOL     OW76870  12.284   3.456   8.745  0.0875  0.3960  0.2789
23422SOL    HW176871  12.373   3.423   8.757  0.3658 -0.1537 -2.5349
23422SOL    HW276872  12.296   3.550   8.727 -0.0223  0.5399  0.9284
23423SOL     OW76873   5.383   5.144   4.942  0.2158 -0.4026  0.8741
23423SOL    HW176874   5.403   5.157   4.849  1.3115  0.0731  1.1582
23423SOL    HW276875   5.288   5.159   4.949  0.3709  1.0706  0.0800
23424SOL     OW76876   1.913   1.265   7.081  0.5386  0.4429 -0.4303
23424SOL    HW176877   1.865   1.201   7.133  1.7712 -0.4577 -0.3537
23424SOL    HW276878   1.889   1.245   6.990  1.0515 -0.2692 -0.4206
23425SOL     OW76879   9.836   2.980   0.577  0.4424  0.1231 -0.0679
23425SOL    HW176880   9.926   2.989   0.607  0.4727  1.1386 -0.4329
23425SOL    HW276881   9.823   3.051   0.515 -0.6528  0.0812  0.0796
23426SOL     OW76882   2.584   6.363   8.495  0.0600 -0.1477 -0.2818
23426SOL    HW176883   2.524   6.340   8.424  0.7582 -0.8116 -0.6757
23426SOL    HW276884   2.529   6.367   8.573 -0.4213 -1.1935 -0.5589
23427SOL     OW76885   4.763   6.131   7.667  0.5213  0.1345 -0.0255
23427SOL    HW176886   4.771   6.049   7.618  1.2945  0.3703 -0.3029
23427SOL    HW276887   4.668   6.146   7.671  0.3584 -0.8826  0.2331
23428SOL     OW76888   6.275   9.446   3.201  0.3669  0.4467 -0.6606
23428SOL    HW176889   6.242   9.525   3.245  1.1576 -0.3930  1.5715
23428SOL    HW276890   6.209   9.379   3.219  0.1069  0.3536 -1.8475
23429SOL     OW76891   3.231   5.488  12.389 -0.1070 -0.1156  0.1068
23429SOL    HW176892   3.165   5.531  12.335  1.9534  0.9115 -1.7321
23429SOL    HW276893   3.315   5.524  12.360  1.3052 -1.1085  2.5523
23430SOL     OW76894   7.234   7.722   7.005 -0.4850  0.1807  0.0078
23430SOL    HW176895   7.295   7.790   7.036 -1.1076  0.8325 -0.1819
23430SOL    HW276896   7.290   7.660   6.958 -0.2794  2.2136 -2.6409
23431SOL     OW76897   1.296   8.644  10.393 -0.5344  0.1056  0.1991
23431SOL    HW176898   1.283   8.737  10.374  0.3666  0.2730  0.3366
23431SOL    HW276899   1.266   8.634  10.483 -0.5938  0.2760  0.1987
23432SOL     OW76900   4.665   5.464   6.488 -0.1173 -0.6331 -0.0113
23432SOL    HW176901   4.625   5.470   6.575  0.7057 -0.4404  0.3677
23432SOL    HW276902   4.616   5.525   6.434  1.6449  2.0686  1.2301
23433SOL     OW76903  11.278   2.787  10.949 -0.0518 -0.0350 -0.8572
23433SOL    HW176904  11.258   2.698  10.979 -1.4007  0.9100  1.2979
23433SOL    HW276905  11.311   2.775  10.860  0.2749 -2.7148 -0.4768
23434SOL     OW76906   5.840   0.587   9.469  0.5787 -0.4486 -0.2199
23434SOL    HW176907   5.755   0.570   9.511  1.8820  1.0066  3.3161
23434SOL    HW276908   5.840   0.681   9.453  1.2305 -0.5801 -1.0445
23435SOL     OW76909  12.098   1.808   1.520 -0.1380 -0.4863 -0.2884
23435SOL    HW176910  12.004   1.804   1.502 -0.2393  1.3363 -0.3741
23435SOL    HW276911  12.134   1.856   1.445  0.7341 -0.4141  0.1733
23436SOL     OW76912   3.037  12.599   6.077 -0.1063  0.0928 -0.0582
23436SOL    HW176913   2.995  12.671   6.125 -0.0110  0.2973 -0.2807
23436SOL    HW276914   3.005  12.520   6.120 -1.2823  0.2134 -0.6643
23437SOL     OW76915   7.355   2.871   2.245 -0.4890  0.2568  0.0952
23437SOL    HW176916   7.339   2.782   2.277 -0.1028  0.2251  0.2006
23437SOL    HW276917   7.271   2.898   2.208 -0.9900  0.3650  1.2724
23438SOL     OW76918   8.350   2.976   5.000 -0.0005 -0.5836  0.3682
23438SOL    HW176919   8.298   3.054   4.979  1.6709  0.0048 -1.9164
23438SOL    HW276920   8.287   2.904   4.992 -0.9684  0.2862 -0.1887
23439SOL     OW76921   9.709   1.411   0.194  0.4867 -0.4625  0.1275
23439SOL    HW176922   9.782   1.351   0.208  0.5848 -0.2945  0.3320
23439SOL    HW276923   9.645   1.387   0.261  0.2583 -0.7563 -0.1912
23440SOL     OW76924   6.968   7.271   3.055  0.3295  0.3181  0.0235
23440SOL    HW176925   6.985   7.180   3.031  0.2966  0.3965 -0.2995
23440SOL    HW276926   6.984   7.320   2.975 -0.0367  0.5526  0.0931
23441SOL     OW76927   4.910   7.549   8.662 -0.0513 -0.0777  0.0539
23441SOL    HW176928   4.876   7.588   8.743  1.9800 -0.4950  1.1839
23441SOL    HW276929   4.963   7.619   8.623  0.7810 -0.5841  0.2639
23442SOL     OW76930   6.559   8.823   3.765  0.0839  0.0605  0.6778
23442SOL    HW176931   6.501   8.892   3.796  0.1178  0.5087 -0.2228
23442SOL    HW276932   6.516   8.742   3.791 -0.6275  0.3971  0.5788
23443SOL     OW76933   5.209   6.977   2.952 -0.3367 -0.1117  0.1532
23443SOL    HW176934   5.232   6.888   2.926  0.1057  0.0708 -0.1138
23443SOL    HW276935   5.251   6.989   3.037  0.0678  0.0191 -0.0598
23444SOL     OW76936   6.115   3.635   2.716  0.4946 -0.4297  0.0166
23444SOL    HW176937   6.206   3.604   2.711  0.5525 -0.1245 -0.8805
23444SOL    HW276938   6.119   3.725   2.683 -0.1082 -0.3451  0.1715
23445SOL     OW76939   5.534  11.988   8.096  0.1667 -0.0049 -0.3643
23445SOL    HW176940   5.537  11.904   8.052  3.0800 -0.9888  1.4263
23445SOL    HW276941   5.616  12.032   8.071 -0.6785  1.7700 -0.2299
23446SOL     OW76942   1.147   0.833   5.258 -0.0958  0.1857  0.0745
23446SOL    HW176943   1.060   0.813   5.293 -1.7253 -0.5876 -3.9244
23446SOL    HW276944   1.139   0.922   5.223  0.8214  0.1928 -0.1338
23447SOL     OW76945   1.592   0.694  10.461  0.0073 -0.6237 -0.0700
23447SOL    HW176946   1.498   0.702  10.442  0.3262 -0.2644 -1.5790
23447SOL    HW276947   1.604   0.601  10.483 -0.6742 -0.7042 -0.0229
23448SOL     OW76948   1.051  11.104   4.468 -0.0450  0.5367  1.1230
23448SOL    HW176949   1.078  11.191   4.500 -1.0617  0.9283  0.9647
23448SOL    HW276950   0.980  11.123   4.407 -0.5890 -0.4365  1.4397
23449SOL     OW76951  11.191   3.628   2.449  0.4735  0.0173  0.5013
23449SOL    HW176952  11.271   3.676   2.430 -1.0273  1.9850 -1.4615
23449SOL    HW276953  11.121   3.693   2.439 -1.5373 -2.1063 -0.2610
23450SOL     OW76954   5.969   9.679   0.137  0.0518  0.1597  0.3523
23450SOL    HW176955   5.941   9.590   0.158  1.7258 -0.9076 -1.4582
23450SOL    HW276956   6.039   9.698   0.200 -0.3412  0.2187  0.7726
23451SOL     OW76957  11.248   6.120  12.333 -0.5424  0.6562  0.1492
23451SOL    HW176958  11.202   6.053  12.282 -0.4174  0.9414 -0.3405
23451SOL    HW276959  11.186   6.144  12.402 -0.6874  0.2222  0.1764
23452SOL     OW76960  10.225   3.040   0.171 -0.1841 -0.6687  1.1316
23452SOL    HW176961  10.182   3.067   0.252 -2.2211  0.1385 -0.1281
23452SOL    HW276962  10.279   3.115   0.146 -0.9696 -0.1915  0.8378
23453SOL     OW76963   8.168  12.012   6.938 -0.3453  0.2966 -0.2477
23453SOL    HW176964   8.155  12.092   6.886  1.5791  0.2595 -0.8465
23453SOL    HW276965   8.261  11.993   6.931 -0.9142 -2.6320 -0.9991
23454SOL     OW76966   1.794   5.889  11.874 -0.0938  0.0333  0.5024
23454SOL    HW176967   1.758   5.851  11.793  0.5716  0.2018  0.1165
23454SOL    HW276968   1.846   5.964  11.844 -2.0189  1.7832  1.3114
23455SOL     OW76969   0.956   8.400   3.709  0.1497 -0.5274  0.1713
23455SOL    HW176970   1.031   8.358   3.749 -0.5934 -0.9637  1.1343
23455SOL    HW276971   0.969   8.494   3.726 -0.0492 -0.6893  1.2629
23456SOL     OW76972   3.866   9.425   5.496  0.1997  0.0066 -0.1042
23456SOL    HW176973   3.918   9.446   5.574  1.1174 -1.2141 -0.3524
23456SOL    HW276974   3.877   9.331   5.485 -2.7863 -0.4560  0.2971
23457SOL     OW76975   1.777   6.545   8.696 -0.3571 -0.0003 -0.4889
23457SOL    HW176976   1.776   6.493   8.615  1.1161  0.2337 -0.6913
23457SOL    HW276977   1.736   6.488   8.761  1.3686 -1.5549 -0.6627
23458SOL     OW76978   0.279  10.953   1.207 -0.2515 -0.6420 -0.1497
23458SOL    HW176979   0.220  11.029   1.210 -0.2148 -0.6175 -0.0261
23458SOL    HW276980   0.331  10.961   1.287 -0.0099 -0.6098 -0.3129
23459SOL     OW76981   2.632   5.323  12.570 -0.2930 -0.1155 -0.4232
23459SOL    HW176982   2.588   5.247  12.607  1.5447 -2.1610 -2.1451
23459SOL    HW276983   2.624   5.312  12.475  0.0431  1.8602 -0.7360
23460SOL     OW76984   7.626  10.542   6.398 -0.6300  0.0178  0.1345
23460SOL    HW176985   7.722  10.533   6.396 -0.5736  0.3406  0.9180
23460SOL    HW276986   7.596  10.492   6.323  0.2283  0.8918 -0.8305
23461SOL     OW76987   7.797   4.722   3.663 -0.3925 -0.0706  0.1805
23461SOL    HW176988   7.795   4.631   3.634 -0.2266 -0.1689  0.4747
23461SOL    HW276989   7.707   4.742   3.687 -0.6370  0.1733 -0.8853
23462SOL     OW76990   7.538  10.015   9.929  0.2568  0.0442 -0.2722
23462SOL    HW176991   7.526   9.954  10.002 -0.1335  0.5833  0.1188
23462SOL    HW276992   7.621   9.989   9.890  0.3766 -0.3707  0.2469
23463SOL     OW76993   8.038  11.931   5.269  0.3957  0.3734  0.5218
23463SOL    HW176994   8.032  11.899   5.178 -0.7053  0.8332  0.4219
23463SOL    HW276995   7.952  11.915   5.306  1.2106 -1.0952  1.9577
23464SOL     OW76996   7.105   4.726   8.221  0.4217  0.2792  0.4991
23464SOL    HW176997   7.164   4.801   8.224  0.4770  0.2516  0.1768
23464SOL    HW276998   7.035   4.754   8.162  0.2832  0.1929  0.6236
23465SOL     OW76999   7.858   2.104   5.441  0.2710  0.2047  0.1503
23465SOL    HW177000   7.953   2.094   5.432  0.3374  1.5303 -1.0042
23465SOL    HW277001   7.825   2.014   5.447  1.6058 -0.2745  0.7707
23466SOL     OW77002   6.014   3.670   6.675 -0.3787 -0.6001  0.2506
23466SOL    HW177003   6.040   3.617   6.599 -0.4454 -1.5857  0.9003
23466SOL    HW277004   5.921   3.652   6.685 -0.3273 -0.6218  0.6864
23467SOL     OW77005   9.975   1.090   0.973 -0.1908 -0.0624  0.4480
23467SOL    HW177006  10.007   1.012   1.018 -0.5127 -1.8999 -2.2830
23467SOL    HW277007  10.054   1.133   0.941 -0.0898 -1.0128 -0.6649
23468SOL     OW77008   8.842  12.283   5.439  0.4380  0.0716  0.2572
23468SOL    HW177009   8.899  12.274   5.515  0.3463  2.7081  0.7569
23468SOL    HW277010   8.772  12.219   5.454  1.5826 -1.0068  1.2299
23469SOL     OW77011   4.692   9.740   2.660 -0.6021 -0.8694  0.3581
23469SOL    HW177012   4.620   9.713   2.718  0.6749 -1.1073  1.9049
23469SOL    HW277013   4.669   9.702   2.575 -2.9796  0.2413  0.4254
23470SOL     OW77014   4.147   0.071  10.685  0.1295  0.3025  0.2733
23470SOL    HW177015   4.201   0.142  10.651  1.5574 -1.1992 -0.7675
23470SOL    HW277016   4.060   0.109  10.695 -0.0080  1.3469 -3.4430
23471SOL     OW77017   8.041   7.632   9.052  0.3673 -0.1417 -0.5014
23471SOL    HW177018   8.090   7.581   9.116  2.3161 -1.7596 -3.0757
23471SOL    HW277019   8.108   7.667   8.992 -1.3991 -0.0047 -2.5205
23472SOL     OW77020   8.997  12.524   6.474 -0.3701 -0.5339  0.1591
23472SOL    HW177021   8.999  12.617   6.453  4.0684  0.0911  2.1153
23472SOL    HW277022   8.993  12.521   6.570  2.1573 -2.0829  0.3170
23473SOL     OW77023  11.608   7.201   6.319  0.5784 -1.0213  0.0171
23473SOL    HW177024  11.686   7.228   6.270  0.6030 -2.1216 -0.5719
23473SOL    HW277025  11.537   7.249   6.277  0.7572 -1.0740 -0.3553
23474SOL     OW77026  10.249  11.607   1.731 -0.0634 -0.7429 -0.0941
23474SOL    HW177027  10.322  11.582   1.789 -1.0786 -0.4685  1.3619
23474SOL    HW277028  10.174  11.559   1.766 -1.1334  0.9994  0.0714
23475SOL     OW77029  12.734   8.076  11.386 -0.6283 -0.1688 -0.2680
23475SOL    HW177030  12.754   8.007  11.322  1.5337  1.6700 -1.7520
23475SOL    HW277031  12.790   8.057  11.460 -0.5128 -0.3540 -0.4018
23476SOL     OW77032  11.446  12.637  10.424  0.4165  0.6209  0.3992
23476SOL    HW177033  11.401  12.707  10.470 -1.2086 -0.4838  0.5811
23476SOL    HW277034  11.409  12.639  10.335 -1.4284 -1.4137  1.0284
23477SOL     OW77035  10.262   8.359  11.105 -0.5385 -0.2220  0.3268
23477SOL    HW177036  10.267   8.435  11.046  0.3363 -0.5603 -0.0551
23477SOL    HW277037  10.208   8.296  11.057  1.7511 -1.2713 -1.0740
23478SOL     OW77038   6.692   3.667   2.605 -0.2889 -0.2012 -0.2495
23478SOL    HW177039   6.786   3.663   2.623 -0.1772 -1.2463 -0.9367
23478SOL    HW277040   6.661   3.577   2.621 -1.1112  0.0618 -0.3187
23479SOL     OW77041  12.515   9.052  12.225 -0.3172 -0.3688  0.1829
23479SOL    HW177042  12.552   9.026  12.141 -0.1865  0.8454 -0.1655
23479SOL    HW277043  12.458   9.126  12.203  0.5283  0.6510  1.2807
23480SOL     OW77044   2.188   0.634  12.447 -0.1188  0.7381  0.4830
23480SOL    HW177045   2.131   0.627  12.370  0.1120 -1.0485  0.4261
23480SOL    HW277046   2.153   0.708  12.497 -1.0500  1.1307 -0.6996
23481SOL     OW77047   5.116  11.944   3.116 -0.5103  0.2614  0.0978
23481SOL    HW177048   5.134  11.855   3.145  0.3507  0.9827  1.9434
23481SOL    HW277049   5.202  11.981   3.095 -0.9632  0.3088 -1.8887
23482SOL     OW77050   0.444   5.293   4.479 -0.6692 -0.3508 -0.2645
23482SOL    HW177051   0.528   5.247   4.481 -0.9750 -0.8896  1.4253
23482SOL    HW277052   0.468   5.386   4.485 -0.1723 -0.5538  3.7287
23483SOL     OW77053   6.270  10.011   8.171  0.2921 -0.4953  0.1953
23483SOL    HW177054   6.227  10.073   8.113  0.5350  1.4319  1.9740
23483SOL    HW277055   6.213   9.933   8.169 -0.2069 -0.1398 -1.8049
23484SOL     OW77056   1.926   6.531   1.244  0.3264 -0.2892  0.0367
23484SOL    HW177057   1.943   6.439   1.221  0.6632 -0.3235  0.4096
23484SOL    HW277058   1.844   6.529   1.292 -0.8965 -0.1023 -1.9328
23485SOL     OW77059  10.703   9.382   8.111 -0.3083 -0.5234  0.3991
23485SOL    HW177060  10.690   9.289   8.095  0.6881 -0.4762 -0.8896
23485SOL    HW277061  10.789   9.401   8.073 -0.6498  0.9982  0.3098
23486SOL     OW77062   3.502  12.699   3.824 -0.2106 -0.4072 -0.9915
23486SOL    HW177063   3.459  12.781   3.800  1.9440  1.3642  0.7422
23486SOL    HW277064   3.472  12.681   3.913  0.5733 -0.5888 -0.7556
23487SOL     OW77065  11.213   1.351  10.354 -0.5700  0.1273 -0.9883
23487SOL    HW177066  11.286   1.412  10.355  0.3291 -0.9067 -0.8698
23487SOL    HW277067  11.250   1.270  10.319 -1.3597 -0.7693  0.1378
23488SOL     OW77068   6.664  10.142   0.563  0.1394  0.1371  0.1733
23488SOL    HW177069   6.580  10.146   0.607 -0.4153 -3.5752 -0.2933
23488SOL    HW277070   6.647  10.174   0.474 -0.7598 -0.5181  0.1081
23489SOL     OW77071   6.517  11.291   0.288  0.1940 -0.3181  0.0543
23489SOL    HW177072   6.536  11.201   0.317  3.3809 -0.2058 -1.2184
23489SOL    HW277073   6.580  11.345   0.337  0.8662  0.7003 -1.8237
23490SOL     OW77074   3.009   7.363   9.922 -0.1222  0.0519 -0.0269
23490SOL    HW177075   2.948   7.395   9.856 -0.7041  0.3918  0.6643
23490SOL    HW277076   3.094   7.399   9.895 -0.0595 -1.0602 -1.4189
23491SOL     OW77077   1.242   0.650   6.106  0.3734  0.1573  0.4233
23491SOL    HW177078   1.155   0.636   6.144 -0.4483  1.1409 -1.0041
23491SOL    HW277079   1.234   0.732   6.057  1.3752 -0.9872 -1.7938
23492SOL     OW77080   8.754  10.408   0.392 -0.6601  0.0641  0.1805
23492SOL    HW177081   8.752  10.327   0.341  0.7868  0.5883 -0.7557
23492SOL    HW277082   8.672  10.407   0.441 -1.6229 -0.9663 -1.3600
23493SOL     OW77083   9.321   5.245   3.406  0.2413  0.4099 -0.0658
23493SOL    HW177084   9.329   5.155   3.438  2.3575  0.5158 -0.0978
23493SOL    HW277085   9.255   5.241   3.337 -2.2011 -0.4102  2.1500
23494SOL     OW77086  10.567   7.472   4.180  0.3033  0.5046 -0.1992
23494SOL    HW177087  10.573   7.516   4.265  0.6996  0.7812 -0.3673
23494SOL    HW277088  10.498   7.519   4.133  0.5184  0.7531 -0.2656
23495SOL     OW77089   1.096   7.126   4.573 -0.2379  0.0913  0.5952
23495SOL    HW177090   1.181   7.122   4.619 -0.2590 -2.6627  0.5756
23495SOL    HW277091   1.031   7.114   4.642 -0.3842 -1.6260  0.2030
23496SOL     OW77092   0.369   2.836   7.428 -0.4814  0.2719  0.0487
23496SOL    HW177093   0.418   2.759   7.400  0.7916  0.9805  0.2676
23496SOL    HW277094   0.379   2.838   7.523 -2.9706 -0.8993  0.4189
23497SOL     OW77095   4.217   0.531  11.145 -0.1917 -0.7960 -0.4735
23497SOL    HW177096   4.284   0.471  11.176 -1.0735 -1.1942  0.7142
23497SOL    HW277097   4.182   0.572  11.224 -0.5324  0.2961 -1.1638
23498SOL     OW77098   8.226   1.254   9.173 -0.0108  0.8333  0.7788
23498SOL    HW177099   8.130   1.251   9.172 -0.0119  0.2756 -0.4257
23498SOL    HW277100   8.248   1.313   9.244 -1.1872 -0.9772  2.7628
23499SOL     OW77101  10.224   2.971   4.429  0.1765  0.3154 -0.0191
23499SOL    HW177102  10.169   2.941   4.357  1.4871 -2.0332 -0.1706
23499SOL    HW277103  10.267   3.050   4.396  0.3829 -0.4413 -1.6706
23500SOL     OW77104   9.380  12.599   1.493  0.1871  0.0483 -0.1126
23500SOL    HW177105   9.373  12.679   1.545 -0.1083 -0.7167  1.0583
23500SOL    HW277106   9.474  12.592   1.474  0.1052  1.1703 -1.0745
23501SOL     OW77107   0.592   5.245  11.701  0.5328  0.2838  0.2107
23501SOL    HW177108   0.598   5.287  11.787 -0.6737  0.2730  0.3139
23501SOL    HW277109   0.596   5.151  11.720 -1.4678  0.2057  0.4611
23502SOL     OW77110   2.436   6.454   8.716  0.4898  0.4525  0.0941
23502SOL    HW177111   2.371   6.521   8.733  1.5044  1.5006 -0.0265
23502SOL    HW277112   2.512   6.502   8.683  1.2196 -0.7603 -0.0521
23503SOL     OW77113   9.117  12.544  11.680 -0.7971  0.6276 -0.2328
23503SOL    HW177114   9.161  12.535  11.764 -0.7926 -0.5629 -0.3370
23503SOL    HW277115   9.044  12.603  11.697 -0.8166  0.3694  0.6240
23504SOL     OW77116   3.255   8.303   0.348 -0.3539 -0.3738  0.0605
23504SOL    HW177117   3.325   8.341   0.401 -0.1617 -0.6037 -0.0283
23504SOL    HW277118   3.175   8.326   0.395 -0.2424  0.1581 -0.0033
23505SOL     OW77119  12.062   1.814  12.030  0.1223  0.0034  0.6232
23505SOL    HW177120  12.029   1.806  12.119 -0.6347  0.8622  0.4338
23505SOL    HW277121  12.155   1.791  12.036  0.5117  1.7497  1.9641
23506SOL     OW77122   5.557   8.776   5.183 -0.1426  0.6133 -0.6233
23506SOL    HW177123   5.487   8.749   5.124 -0.6314  0.7949 -0.1344
23506SOL    HW277124   5.563   8.871   5.171  0.8374  0.4579 -1.5388
23507SOL     OW77125  12.174  11.623   5.903  0.1600 -0.4589 -0.0142
23507SOL    HW177126  12.222  11.629   5.820 -1.2157  1.3979 -0.7474
23507SOL    HW277127  12.092  11.579   5.881 -0.3847  0.4015  0.2442
23508SOL     OW77128  10.478   6.398  11.576 -0.2547  0.0959 -0.0791
23508SOL    HW177129  10.420   6.335  11.535 -1.3895 -0.6949  2.4905
23508SOL    HW277130  10.435   6.483  11.563 -0.9339 -0.2287  0.0234
23509SOL     OW77131  10.144   5.794   4.072  0.4270  0.2446  0.3482
23509SOL    HW177132  10.179   5.823   4.156 -0.6654  2.3880  0.1309
23509SOL    HW277133  10.175   5.860   4.009 -1.4614  0.5353 -0.3380
23510SOL     OW77134   9.454   0.353   0.214  0.4748  0.4850  0.3558
23510SOL    HW177135   9.411   0.436   0.236 -0.2004  0.6057 -1.2898
23510SOL    HW277136   9.432   0.295   0.286 -0.4316  1.2529  0.7196
23511SOL     OW77137  12.074   3.883   0.660  0.0280 -0.6368  0.2227
23511SOL    HW177138  12.113   3.858   0.577  0.5047 -0.2379  0.3190
23511SOL    HW277139  12.099   3.814   0.722 -0.5077 -1.0451 -0.0043
23512SOL     OW77140   7.267   4.567   0.289  0.2968  0.4027 -0.3784
23512SOL    HW177141   7.332   4.551   0.220  0.7373  1.6621 -0.2804
23512SOL    HW277142   7.183   4.559   0.244  0.5684  0.6669 -0.9565
23513SOL     OW77143   8.793  12.299   0.771  0.1596  0.5729  0.0781
23513SOL    HW177144   8.761  12.286   0.861  2.5110 -2.6019  0.6505
23513SOL    HW277145   8.727  12.257   0.716  0.8982 -1.6867  0.8105
23514SOL     OW77146   4.869   2.341   6.289 -0.3246 -0.0212  0.0024
23514SOL    HW177147   4.883   2.336   6.383 -2.8500  1.9883  0.5650
23514SOL    HW277148   4.812   2.267   6.269  0.2197 -0.4536 -0.0012
23515SOL     OW77149   8.636   4.682  10.505 -0.3137 -0.0898 -0.1775
23515SOL    HW177150   8.576   4.607  10.498 -0.6003 -0.0778  1.6220
23515SOL    HW277151   8.581   4.754  10.534  0.3399  0.2641  0.2071
23516SOL     OW77152   1.692   3.459   4.388 -0.2449  0.2067  0.3042
23516SOL    HW177153   1.642   3.458   4.306  0.6512  0.3945 -0.2518
23516SOL    HW277154   1.738   3.543   4.386 -0.4542  0.3484  1.1573
23517SOL     OW77155   3.839   5.770   6.068  0.3333  0.2767  0.2771
23517SOL    HW177156   3.884   5.762   5.984  1.1478 -1.7459  0.8548
23517SOL    HW277157   3.841   5.864   6.088 -0.9870  1.0058 -2.5097
23518SOL     OW77158   9.192   6.048   4.478  0.2556 -0.8281  0.4713
23518SOL    HW177159   9.201   6.130   4.430 -0.1272 -1.1977 -0.2704
23518SOL    HW277160   9.247   6.057   4.555 -1.7304  1.1368  1.7818
23519SOL     OW77161   3.172  12.724  11.365  0.6747  0.3861 -0.1914
23519SOL    HW177162   3.143  12.768  11.285 -0.3475  0.5491  0.2478
23519SOL    HW277163   3.138  12.778  11.436  1.3592  0.1073  0.3585
23520SOL     OW77164   4.552   9.342   2.771  0.5777 -0.3319 -0.1375
23520SOL    HW177165   4.572   9.256   2.733  0.6521 -0.6983  0.7148
23520SOL    HW277166   4.547   9.326   2.865 -0.7162  0.3452 -0.0724
23521SOL     OW77167   0.192   8.938   5.504 -0.3449  0.1169 -0.5788
23521SOL    HW177168   0.169   8.941   5.597 -0.2702  2.6312 -0.5624
23521SOL    HW277169   0.288   8.936   5.503 -0.1753  3.2341 -0.4764
23522SOL     OW77170   9.832   5.507  10.048  0.4475 -0.0190 -0.2656
23522SOL    HW177171   9.779   5.525  10.126  1.2334 -0.0956  0.2994
23522SOL    HW277172   9.921   5.495  10.082  0.9258  0.6583 -1.2569
23523SOL     OW77173   2.328   2.572  12.063  0.3526 -0.4208 -0.1321
23523SOL    HW177174   2.295   2.485  12.083 -0.3684 -0.5481 -1.7441
23523SOL    HW277175   2.423   2.561  12.059  0.4185 -0.6869  1.5977
23524SOL     OW77176   7.374   1.657   3.399 -0.2505  0.1605 -0.7389
23524SOL    HW177177   7.382   1.632   3.307 -0.1991  0.4252 -0.8070
23524SOL    HW277178   7.322   1.587   3.438 -2.8990  1.4611 -1.6077
23525SOL     OW77179   2.671   4.209   9.947  0.3229  0.2622 -0.0051
23525SOL    HW177180   2.656   4.209  10.041  0.4463 -2.7416  0.1164
23525SOL    HW277181   2.592   4.169   9.910  1.9589 -2.6826 -0.6657
23526SOL     OW77182  11.813   7.572   7.120 -0.4303 -0.1377 -0.5393
23526SOL    HW177183  11.836   7.641   7.058  2.1403 -0.1606  0.2623
23526SOL    HW277184  11.866   7.497   7.093 -1.6139 -1.1699 -0.1305
23527SOL     OW77185   3.844  11.894   1.779  0.2307 -0.4452  0.2538
23527SOL    HW177186   3.848  11.988   1.793 -1.5683 -0.1156 -0.9816
23527SOL    HW277187   3.869  11.855   1.863  0.2259  1.1491  1.0236
23528SOL     OW77188   4.378   6.434   8.077 -0.3997  0.0945 -0.8108
23528SOL    HW177189   4.409   6.408   8.164 -0.4896  1.6866 -0.2647
23528SOL    HW277190   4.284   6.421   8.080 -0.5786  1.3026 -0.1912
23529SOL     OW77191   1.535   1.159   4.814 -0.2499  0.0150 -0.2235
23529SOL    HW177192   1.510   1.139   4.904  0.6331 -0.4450 -0.0688
23529SOL    HW277193   1.625   1.128   4.807  0.1527  1.2615 -0.8736
23530SOL     OW77194   9.768   5.145  12.580  0.0885 -0.1490  0.3210
23530SOL    HW177195   9.713   5.113  12.650  0.7587 -0.8977  0.5207
23530SOL    HW277196   9.791   5.067  12.529  0.9142  0.1440  0.2157
23531SOL     OW77197   6.261  11.714   8.811 -0.4597 -0.2272  0.6056
23531SOL    HW177198   6.324  11.742   8.745 -0.8217 -1.0408 -0.1073
23531SOL    HW277199   6.239  11.794   8.859  1.3234  0.0099  1.0644
23532SOL     OW77200   3.949   3.794   9.670 -0.1407 -0.6218  0.4373
23532SOL    HW177201   3.956   3.713   9.721  0.6148 -1.3880 -0.8230
23532SOL    HW277202   3.872   3.781   9.615  0.3577 -0.7831 -0.2390
23533SOL     OW77203   9.523  11.520   8.018 -0.0834  0.5346 -0.0371
23533SOL    HW177204   9.455  11.499   7.953  0.1579  2.3349 -0.9244
23533SOL    HW277205   9.601  11.475   7.985  0.7525  3.4703 -2.6140
23534SOL     OW77206   1.187   4.314   2.736  0.4250  0.2812  0.0636
23534SOL    HW177207   1.156   4.234   2.779  0.2289  1.1928  1.6919
23534SOL    HW277208   1.107   4.357   2.706  0.4568  0.3227  0.0379
23535SOL     OW77209  10.948   5.965   4.748  0.0136  0.2102 -0.1250
23535SOL    HW177210  11.033   5.924   4.764 -0.0697  0.6206  1.5330
23535SOL    HW277211  10.893   5.934   4.820 -1.1133  0.3367 -0.9143
23536SOL     OW77212   1.483   0.300   0.106  0.4286  0.2644  0.1210
23536SOL    HW177213   1.575   0.278   0.091  0.5614  0.5178  0.5554
23536SOL    HW277214   1.471   0.384   0.062  0.4541  0.3288  0.2392
23537SOL     OW77215   3.688   1.771   7.828  0.1274  0.1825  0.7365
23537SOL    HW177216   3.658   1.692   7.873 -0.3910  0.3200  0.6476
23537SOL    HW277217   3.637   1.773   7.747  1.2619 -0.2143 -0.0095
23538SOL     OW77218   2.768   9.926  11.804 -0.0826 -0.1627  0.4038
23538SOL    HW177219   2.757   9.965  11.890  0.7984 -0.0677  0.4752
23538SOL    HW277220   2.786  10.000  11.746  0.4460 -0.3426  0.3381
23539SOL     OW77221  11.203   0.433  12.181  0.6169 -0.0398 -0.3286
23539SOL    HW177222  11.282   0.390  12.214  1.0574  1.9690  1.4884
23539SOL    HW277223  11.194   0.511  12.236 -0.8154  1.5107 -2.5998
23540SOL     OW77224   8.415  11.029   2.118  0.1349 -0.0890 -0.0422
23540SOL    HW177225   8.354  11.030   2.044  0.0598  2.5715 -0.0209
23540SOL    HW277226   8.486  10.972   2.090 -1.8948 -2.6231 -0.3960
23541SOL     OW77227   6.629   4.653  10.449 -0.1834  0.1916 -0.4669
23541SOL    HW177228   6.649   4.574  10.499 -1.8882  0.4354  0.7021
23541SOL    HW277229   6.713   4.681  10.413  0.9990 -0.4537  1.6278
23542SOL     OW77230   3.384   5.464   5.596  0.5539  0.3643  0.1598
23542SOL    HW177231   3.450   5.468   5.665  0.7112  0.0339  0.0305
23542SOL    HW277232   3.368   5.371   5.584  1.8880  0.3047 -1.5254
23543SOL     OW77233   1.099   8.552   2.556  0.2016  0.8445  0.0091
23543SOL    HW177234   1.161   8.591   2.494  0.9920 -0.3272  0.0306
23543SOL    HW277235   1.135   8.574   2.642  0.4556  0.3884  0.0233
23544SOL     OW77236   5.168   2.960  10.443 -0.3969  0.1396 -0.2763
23544SOL    HW177237   5.150   2.870  10.418  1.4471  0.1205 -1.6880
23544SOL    HW277238   5.246   2.955  10.498 -0.1441  0.8804 -0.5496
23545SOL     OW77239   6.165   3.928   7.059 -0.6730  0.2046  0.0746
23545SOL    HW177240   6.141   3.854   7.003 -0.6914 -0.1517  0.5540
23545SOL    HW277241   6.242   3.966   7.016 -0.6901 -0.0641 -0.1974
23546SOL     OW77242   9.667   3.795  10.151 -0.1966 -0.4086 -0.0032
23546SOL    HW177243   9.665   3.891  10.155  3.8430 -0.1544  0.1798
23546SOL    HW277244   9.662   3.767  10.243 -1.4357 -0.4587 -0.0595
23547SOL     OW77245   9.442   3.639   8.704  0.1299  0.3425  0.9274
23547SOL    HW177246   9.363   3.610   8.658  0.2894  1.0921  0.1548
23547SOL    HW277247   9.514   3.609   8.649  0.3077  1.8264  0.2979
23548SOL     OW77248   1.109   8.568   3.469 -0.5455  0.1071  0.0329
23548SOL    HW177249   1.130   8.661   3.467  0.3932 -0.1065 -1.1933
23548SOL    HW277250   1.111   8.544   3.561  4.2702  0.2452  0.2033
23549SOL     OW77251  11.059   2.525  10.758  0.0699 -0.2288  0.1369
23549SOL    HW177252  11.151   2.502  10.750  0.3226  0.3605  1.1894
23549SOL    HW277253  11.028   2.473  10.833  0.1770  1.3913  1.3436
23550SOL     OW77254   0.957   5.078   5.376  0.2950 -0.1979 -0.5609
23550SOL    HW177255   0.963   5.094   5.282 -0.5614  0.5945 -0.4950
23550SOL    HW277256   0.967   5.164   5.415 -1.2384 -0.2286 -0.0316
23551SOL     OW77257   3.335   5.770   0.048 -0.1216  0.3191 -0.8843
23551SOL    HW177258   3.394   5.822  -0.005 -0.8855  1.6921 -0.4448
23551SOL    HW277259   3.308   5.829   0.119  0.5447 -1.3090  0.7999
23552SOL     OW77260  11.003   1.006   6.618  0.0131  0.1560  0.0136
23552SOL    HW177261  11.029   1.095   6.645  0.7779  0.3850 -1.3622
23552SOL    HW277262  11.085   0.965   6.590 -0.3662 -0.9261  0.4674
23553SOL     OW77263   5.523  11.222  12.464 -0.1108 -0.1987  0.0893
23553SOL    HW177264   5.573  11.185  12.391  0.2510  1.8113 -0.7671
23553SOL    HW277265   5.551  11.172  12.540 -0.2763 -2.1686 -1.0702
23554SOL     OW77266   2.468  11.297  12.066 -0.0385 -0.0674 -0.3538
23554SOL    HW177267   2.500  11.238  11.997  0.3526 -1.1411  0.7179
23554SOL    HW277268   2.375  11.305  12.048  0.3040  0.8754 -1.8826
23555SOL     OW77269   6.340   5.388   2.642 -0.0875 -0.8238  0.2418
23555SOL    HW177270   6.352   5.469   2.593 -0.0344  0.2580  1.9779
23555SOL    HW277271   6.428   5.364   2.671 -0.2082 -1.0377  0.4341
23556SOL     OW77272   1.449   7.832   2.720  0.0407  0.8872 -0.5692
23556SOL    HW177273   1.425   7.817   2.811 -1.5961 -1.1951 -1.2624
23556SOL    HW277274   1.372   7.875   2.682 -0.0550  0.0082 -1.3894
23557SOL     OW77275  12.563  10.145   2.173 -0.7019 -1.0045 -0.7714
23557SOL    HW177276  12.500  10.076   2.151 -1.9641 -0.1770  0.1191
23557SOL    HW277277  12.512  10.209   2.223  1.0243 -0.6819  0.6604
23558SOL     OW77278   4.360   3.190   4.646 -0.1470 -0.2887 -0.1701
23558SOL    HW177279   4.355   3.094   4.638 -1.4822 -0.1609 -1.5717
23558SOL    HW277280   4.271   3.216   4.670  0.8485  0.4560  3.1257
23559SOL     OW77281   0.249  10.400   8.833  0.3864 -0.6292  0.1360
23559SOL    HW177282   0.216  10.370   8.749  0.9927  1.2591 -0.8240
23559SOL    HW277283   0.171  10.405   8.889 -0.5838  1.0921 -1.2671
23560SOL     OW77284   9.083  10.389  11.596  0.2933  0.1415 -0.5301
23560SOL    HW177285   9.054  10.344  11.517  1.8004 -0.2428 -0.8954
23560SOL    HW277286   9.074  10.323  11.666 -0.6170  0.3434 -0.4417
23561SOL     OW77287   5.434   9.331   2.645 -0.5147  0.5119  0.1164
23561SOL    HW177288   5.387   9.345   2.563  0.1423  2.1776 -0.0196
23561SOL    HW277289   5.472   9.417   2.666  0.8867 -0.3232  1.1878
23562SOL     OW77290   8.882   3.869   2.463 -0.2612 -0.0509 -0.9718
23562SOL    HW177291   8.842   3.900   2.382  2.0261  0.8098 -1.8726
23562SOL    HW277292   8.931   3.944   2.496 -0.3165 -0.6960  0.6690
23563SOL     OW77293   3.127   5.852  11.007 -0.2657 -0.5740  0.2757
23563SOL    HW177294   3.035   5.867  10.983 -0.3017 -1.0994  0.0800
23563SOL    HW277295   3.136   5.895  11.092 -0.6045 -0.2356  0.1485
23564SOL     OW77296  12.129   9.118   2.330 -0.2455  0.1215  0.0613
23564SOL    HW177297  12.086   9.122   2.416 -0.5032  1.1986 -0.0973
23564SOL    HW277298  12.101   9.198   2.286 -0.5592 -0.6935 -1.2526
23565SOL     OW77299   4.371   6.862   1.751  0.4251  0.3158 -0.1505
23565SOL    HW177300   4.408   6.811   1.679 -0.3680 -1.0183  0.3515
23565SOL    HW277301   4.380   6.805   1.827 -1.7046  0.3543  0.1748
23566SOL     OW77302   5.893  10.088  10.064  0.2547 -0.1449 -0.2062
23566SOL    HW177303   5.928  10.173  10.091  0.6622 -1.0182  2.2844
23566SOL    HW277304   5.804  10.087  10.101  0.0671 -0.6183 -0.6646
23567SOL     OW77305   8.366   1.772   3.913  0.3717 -0.7877  0.4258
23567SOL    HW177306   8.308   1.842   3.884  2.2091  0.8816  0.5728
23567SOL    HW277307   8.404   1.805   3.994  1.2110 -2.0216  0.5615
23568SOL     OW77308   7.889   5.046  11.508 -0.5409 -0.1228 -1.1897
23568SOL    HW177309   7.916   4.955  11.501  3.2647  0.7585 -0.1449
23568SOL    HW277310   7.838   5.050  11.589  0.8913 -1.0525 -0.2005
23569SOL     OW77311   9.249   7.354   2.746 -0.0753 -0.4009 -0.3802
23569SOL    HW177312   9.172   7.411   2.742  0.0766 -0.1586  0.0979
23569SOL    HW277313   9.253   7.314   2.659  0.6456  1.3971 -1.2284
23570SOL     OW77314  11.796   8.741   4.376 -0.2173  0.1065  0.0267
23570SOL    HW177315  11.802   8.810   4.442 -0.8921 -1.1454  1.4600
23570SOL    HW277316  11.880   8.696   4.382 -0.7329 -0.7783  0.9641
23571SOL     OW77317   5.187   0.419   1.978  0.0973 -0.0330  0.5938
23571SOL    HW177318   5.211   0.412   1.885 -0.2090 -0.1281  0.5184
23571SOL    HW277319   5.102   0.375   1.983  0.9640 -1.6959  1.2826
23572SOL     OW77320  11.118  10.353   4.128 -0.0988  0.1879  0.6669
23572SOL    HW177321  11.060  10.419   4.091 -2.0644 -2.3248 -1.0625
23572SOL    HW277322  11.087  10.341   4.218 -0.5280  0.7127  0.5959
23573SOL     OW77323  10.786   3.957  10.530  0.3039 -0.0076 -0.5901
23573SOL    HW177324  10.739   3.958  10.613 -0.5583  0.3463 -1.0685
23573SOL    HW277325  10.717   3.947  10.464  0.8162  1.2066 -1.3425
23574SOL     OW77326   1.314   2.393   1.366  0.3184  0.1333  0.0233
23574SOL    HW177327   1.342   2.365   1.279  0.6041 -0.1709  0.2089
23574SOL    HW277328   1.228   2.432   1.352 -0.4532 -1.5386 -0.1476
23575SOL     OW77329   9.030   2.948   5.631 -0.0512  0.7469  0.2384
23575SOL    HW177330   8.978   3.026   5.611  0.9065  0.9587 -1.7351
23575SOL    HW277331   9.073   2.926   5.548  0.6374 -1.1909  1.0396
23576SOL     OW77332   2.870   8.986   0.871 -0.2895  0.0352  0.3596
23576SOL    HW177333   2.894   8.967   0.780 -0.3470  0.2370  0.2989
23576SOL    HW277334   2.949   9.023   0.910 -0.5284  0.8190  0.1236
23577SOL     OW77335   9.272   6.814  11.132 -0.0425  0.0066 -0.5148
23577SOL    HW177336   9.225   6.731  11.130 -1.2830  0.6034  1.4947
23577SOL    HW277337   9.228   6.866  11.199  1.9737  1.5349 -0.2587
23578SOL     OW77338  10.318   4.893   8.770  0.3363 -0.2240  0.4097
23578SOL    HW177339  10.388   4.832   8.795  0.0825 -0.7775 -0.1876
23578SOL    HW277340  10.253   4.838   8.726  1.1888  0.7835 -2.3251
23579SOL     OW77341   2.624   5.445   0.946  0.7280  0.2393  0.0949
23579SOL    HW177342   2.702   5.500   0.935  1.3604 -0.6124  0.1629
23579SOL    HW277343   2.560   5.501   0.989  1.7874  0.5647  1.3084
23580SOL     OW77344  12.319   3.683  11.370  0.0137 -0.0114 -0.0698
23580SOL    HW177345  12.269   3.641  11.300 -2.6995  0.2118  1.6131
23580SOL    HW277346  12.302   3.629  11.447  0.9043  1.1386  0.9529
23581SOL     OW77347   3.833   9.779  12.355  0.6709 -0.2367  0.5883
23581SOL    HW177348   3.901   9.847  12.350 -0.3489  0.9604  2.0953
23581SOL    HW277349   3.875   9.701  12.319  1.7234  1.2780 -1.7180
23582SOL     OW77350   0.693   8.059   5.614 -0.2623 -0.3383  0.7737
23582SOL    HW177351   0.692   8.112   5.535 -0.6428  0.1482  1.1021
23582SOL    HW277352   0.785   8.052   5.638 -0.2083  0.1743  0.7235
23583SOL     OW77353   0.417  12.541  11.359 -0.9580 -0.0204 -0.1048
23583SOL    HW177354   0.393  12.622  11.315  0.4411  0.6701  0.3572
23583SOL    HW277355   0.433  12.566  11.450  0.5100 -0.5861 -0.1757
23584SOL     OW77356   3.198   7.454   4.458  0.1132 -0.2573 -0.5431
23584SOL    HW177357   3.207   7.548   4.476 -0.4595 -0.2034 -0.5142
23584SOL    HW277358   3.212   7.412   4.543  2.6553 -0.3809 -0.9343
23585SOL     OW77359   5.167  11.976   1.949 -0.1639 -0.1603 -0.6649
23585SOL    HW177360   5.196  11.935   2.031  1.4303  0.6525 -0.7823
23585SOL    HW277361   5.210  11.925   1.881 -1.0606 -0.5012 -0.9912
23586SOL     OW77362  10.459  10.159   9.906  0.1261 -0.3268  0.1156
23586SOL    HW177363  10.419  10.223   9.848  0.3097  1.1202  1.5009
23586SOL    HW277364  10.485  10.210   9.983 -1.5550 -2.3808  2.1855
23587SOL     OW77365   8.122   7.887  10.777  0.0953 -0.1470  0.1615
23587SOL    HW177366   8.191   7.949  10.754  0.5257 -0.0239  1.6226
23587SOL    HW277367   8.130   7.817  10.714  1.0860  0.2246 -0.1452
23588SOL     OW77368   9.614   9.341   6.284  0.1826  0.2120 -0.2534
23588SOL    HW177369   9.523   9.353   6.255 -0.1754 -0.7309  0.4293
23588SOL    HW277370   9.614   9.371   6.375  1.0226  2.0238 -0.8143
23589SOL     OW77371   9.551  11.712   4.024 -0.0202 -0.0840  0.5372
23589SOL    HW177372   9.591  11.792   4.057 -1.9150  1.0101  0.3221
23589SOL    HW277373   9.473  11.700   4.077  0.1119 -1.7028  0.4270
23590SOL     OW77374   8.371  12.600  10.631 -0.1165 -0.1212  0.2372
23590SOL    HW177375   8.450  12.652  10.620 -0.8759  1.1967  0.8489
23590SOL    HW277376   8.340  12.621  10.719 -1.4033 -0.2632 -0.1662
23591SOL     OW77377   8.986   3.820  10.621 -0.4290 -0.1640  0.2725
23591SOL    HW177378   8.955   3.744  10.572  0.9828 -0.8465  0.4058
23591SOL    HW277379   9.011   3.883  10.554 -2.1172  0.4496  0.1572
23592SOL     OW77380   8.312   4.996   0.710  0.2207 -0.0582  0.0796
23592SOL    HW177381   8.280   4.934   0.776 -1.2466  0.0186 -0.5153
23592SOL    HW277382   8.246   5.065   0.709 -0.2312 -0.4738 -2.0484
23593SOL     OW77383   5.545   4.468   8.413  0.2610 -0.2241  0.3970
23593SOL    HW177384   5.545   4.393   8.473 -0.0447 -1.7424 -1.4120
23593SOL    HW277385   5.638   4.484   8.396  0.4494  1.3296  2.5156
23594SOL     OW77386   5.501   3.247   8.286  0.3018  0.7308  0.0125
23594SOL    HW177387   5.456   3.245   8.370  0.8044 -0.8232  0.2782
23594SOL    HW277388   5.548   3.164   8.282  2.1491  1.7414 -0.7888
23595SOL     OW77389  10.909   9.559  12.749  0.4189 -0.5279 -0.8215
23595SOL    HW177390  10.877   9.488  12.804  0.3226 -1.0579 -1.5530
23595SOL    HW277391  10.893   9.530  12.660  0.0195  0.5689 -1.1369
23596SOL     OW77392   4.070   6.467   6.959  0.0730  0.3270  0.0233
23596SOL    HW177393   4.034   6.382   6.933  0.3377 -0.1338  1.1116
23596SOL    HW277394   4.025   6.488   7.041  1.3302  0.3500  0.7298
23597SOL     OW77395   1.320   7.474  12.727  0.1398  0.3174  0.0722
23597SOL    HW177396   1.329   7.518  12.643 -0.2174 -1.3928 -0.9046
23597SOL    HW277397   1.228   7.487  12.751  0.2711  0.9112  0.2916
23598SOL     OW77398   6.060   9.579   5.360  0.6115 -0.5260  0.3549
23598SOL    HW177399   6.041   9.525   5.283 -0.6649 -0.5968  0.7023
23598SOL    HW277400   6.092   9.517   5.426  1.3003 -0.5226  0.0381
23599SOL     OW77401   5.758   5.838   5.046  0.3393  0.3624  0.1753
23599SOL    HW177402   5.747   5.745   5.029 -0.3454  0.6570 -1.1761
23599SOL    HW277403   5.852   5.854   5.040  0.4546 -0.2516  0.4125
23600SOL     OW77404   6.217  12.133   7.455  0.4689  0.3621  0.1866
23600SOL    HW177405   6.256  12.217   7.429 -1.3276  0.4847 -2.5674
23600SOL    HW277406   6.189  12.146   7.546  0.4684  2.6668 -0.0862
23601SOL     OW77407   2.857  12.527   6.579  0.0085 -0.2416 -0.4011
23601SOL    HW177408   2.946  12.557   6.560 -0.4887 -0.0708 -2.6779
23601SOL    HW277409   2.822  12.499   6.495 -2.0601 -0.4871  0.4713
23602SOL     OW77410   8.829  11.216  11.925 -0.3200  0.0994  0.0535
23602SOL    HW177411   8.852  11.256  12.009 -0.6958  0.7862 -0.1657
23602SOL    HW277412   8.848  11.123  11.937  0.7933  0.3667  0.4888
23603SOL     OW77413   6.510   4.654   6.472  0.5975 -0.0453  0.3014
23603SOL    HW177414   6.498   4.748   6.476  0.4409 -0.0188 -0.6772
23603SOL    HW277415   6.441   4.619   6.529  0.4025  0.4063  0.3476
23604SOL     OW77416   4.597   3.755  10.650 -0.1249  0.0809 -0.3649
23604SOL    HW177417   4.520   3.773  10.705  0.3218 -0.3783  0.4128
23604SOL    HW277418   4.667   3.736  10.712  0.5992  0.3962 -1.0772
23605SOL     OW77419   5.611  10.772   2.979  0.3264  0.3337 -0.5645
23605SOL    HW177420   5.658  10.854   2.991 -0.0556  0.4522  0.1626
23605SOL    HW277421   5.518  10.796   2.987  0.2029 -0.1207 -0.6061
23606SOL     OW77422   5.173  10.027   7.865 -0.0039 -0.2890 -0.3464
23606SOL    HW177423   5.236   9.960   7.893 -0.8137 -1.0337 -0.2748
23606SOL    HW277424   5.180  10.027   7.769 -0.2957 -0.7714 -0.3704
23607SOL     OW77425   4.399   3.081  12.077 -0.0493  0.2942  0.4383
23607SOL    HW177426   4.425   3.053  11.989  0.0047  1.9843 -0.1146
23607SOL    HW277427   4.304   3.068  12.079  0.2547 -2.4830  1.2028
23608SOL     OW77428   2.010   7.245  11.608  0.0425  0.2789 -0.3287
23608SOL    HW177429   1.967   7.275  11.528  0.3486  1.2881 -0.1245
23608SOL    HW277430   2.096   7.286  11.605 -0.4268  1.4654  1.1845
23609SOL     OW77431   1.459   1.797   7.202  0.1105  0.2661 -0.0046
23609SOL    HW177432   1.420   1.786   7.115 -0.9809  0.0804  0.4987
23609SOL    HW277433   1.544   1.838   7.184  0.1360 -0.2477 -1.1986
23610SOL     OW77434   7.227  12.312   4.185 -0.0613 -0.3429  0.5487
23610SOL    HW177435   7.231  12.347   4.096 -0.6216  1.2084  1.1140
23610SOL    HW277436   7.296  12.245   4.187  0.6828  0.3521 -0.7222
23611SOL     OW77437   2.711   4.257   1.606 -0.0717  0.3587 -0.1152
23611SOL    HW177438   2.743   4.340   1.641  0.0365  0.2224  0.1105
23611SOL    HW277439   2.772   4.191   1.639 -0.8529  0.0316  0.7320
23612SOL     OW77440   8.754   0.941   6.161 -0.2854 -0.3506  0.2321
23612SOL    HW177441   8.725   1.031   6.153  1.1922  0.0272 -1.2862
23612SOL    HW277442   8.675   0.889   6.146 -1.0015  0.6559  0.4001
23613SOL     OW77443  11.141   8.878   7.113 -0.4352  0.1513  0.2083
23613SOL    HW177444  11.075   8.812   7.098 -0.7977  0.6398 -0.3877
23613SOL    HW277445  11.179   8.895   7.027  0.1849  0.1699  0.4777
23614SOL     OW77446   6.276   5.282   2.175 -0.1486  0.3453  0.1436
23614SOL    HW177447   6.356   5.230   2.171  0.5405  1.3810  0.1769
23614SOL    HW277448   6.298   5.357   2.230 -1.2402  0.4871  0.4124
23615SOL     OW77449  10.906   7.165   5.523 -0.0070  0.2325  0.3041
23615SOL    HW177450  10.951   7.124   5.598  0.1420  2.6415  1.6570
23615SOL    HW277451  10.973   7.222   5.484 -0.2845 -0.5024 -1.3058
23616SOL     OW77452   8.360   5.495  12.759  0.8586 -0.1079 -0.5741
23616SOL    HW177453   8.448   5.527  12.740  0.3131  0.9920 -1.3931
23616SOL    HW277454   8.338   5.439  12.685  1.1219 -0.9299 -0.0352
23617SOL     OW77455   1.277  11.190   3.759 -0.3045  0.1241  0.3961
23617SOL    HW177456   1.370  11.175   3.774  0.2092  1.7996 -0.8003
23617SOL    HW277457   1.242  11.104   3.738  1.7468 -0.0950 -2.8585
23618SOL     OW77458  10.698   3.810   4.758  0.1887 -0.7192  0.2356
23618SOL    HW177459  10.627   3.870   4.781 -0.6013 -1.0941 -1.1365
23618SOL    HW277460  10.770   3.868   4.732 -0.5333 -0.3173 -0.9758
23619SOL     OW77461  10.191  12.535   7.536 -0.2439  0.1052 -0.4520
23619SOL    HW177462  10.227  12.447   7.548 -0.8220  0.0646  1.1036
23619SOL    HW277463  10.209  12.555   7.444 -0.4479 -1.7865 -0.9498
23620SOL     OW77464   4.357   1.423  11.398  0.6351  0.2156 -0.2522
23620SOL    HW177465   4.381   1.485  11.467  0.2356 -0.2191  0.2880
23620SOL    HW277466   4.265   1.442  11.379  0.4495 -0.3386  0.0643
23621SOL     OW77467   7.529   2.531   2.710 -0.0577  0.0074 -0.6082
23621SOL    HW177468   7.538   2.561   2.801  0.1818  0.3379 -0.7391
23621SOL    HW277469   7.596   2.579   2.662  2.1441 -2.6017 -0.3863
23622SOL     OW77470   5.503   3.279   3.375 -0.3977  0.4522  0.3953
23622SOL    HW177471   5.448   3.306   3.448 -0.2723  0.3039  0.5426
23622SOL    HW277472   5.551   3.203   3.407  0.8239  1.3179  0.6958
23623SOL     OW77473   6.462   4.638   7.883 -0.1115 -0.8532  0.4887
23623SOL    HW177474   6.418   4.580   7.946  0.0771 -0.5020  0.9466
23623SOL    HW277475   6.390   4.686   7.841 -0.2679 -1.3879  0.1239
23624SOL     OW77476   7.936  11.422  10.227  0.4191  0.0069 -0.1733
23624SOL    HW177477   7.937  11.496  10.288  1.1380 -0.2763  0.1741
23624SOL    HW277478   7.904  11.348  10.278 -2.4835  0.5213 -1.1078
23625SOL     OW77479  10.503   0.508   1.708 -0.0913  0.1961  0.0132
23625SOL    HW177480  10.456   0.548   1.781 -0.5508 -0.7254  0.2360
23625SOL    HW277481  10.507   0.577   1.642 -1.1219  0.5337  0.2751
23626SOL     OW77482  11.500  11.758   5.656 -0.0499  0.6325 -0.3149
23626SOL    HW177483  11.413  11.791   5.632 -0.7816 -0.4020  0.7778
23626SOL    HW277484  11.508  11.778   5.749  0.4319 -0.2282 -0.1597
23627SOL     OW77485   2.859   5.682   1.248 -0.1295  0.2257  0.0470
23627SOL    HW177486   2.812   5.657   1.169 -1.2174  3.6119 -0.5528
23627SOL    HW277487   2.951   5.679   1.224 -0.4707  2.8669 -2.0817
23628SOL     OW77488   8.208   3.361   2.642  0.2041 -0.2678  0.1066
23628SOL    HW177489   8.138   3.378   2.579  0.8475 -0.7841 -0.7740
23628SOL    HW277490   8.211   3.266   2.649  0.3075 -0.2228  0.7359
23629SOL     OW77491  10.797   4.218  11.101 -0.0589 -0.1682  0.3677
23629SOL    HW177492  10.881   4.234  11.145  0.7789 -0.6101 -1.0147
23629SOL    HW277493  10.817   4.226  11.008 -1.6052 -0.1130  0.0211
23630SOL     OW77494   2.543   0.745   4.110 -0.5100  0.7688  0.3041
23630SOL    HW177495   2.507   0.829   4.081 -2.4108  0.1965  0.8728
23630SOL    HW277496   2.467   0.689   4.122  0.6559 -0.7894  0.7804
23631SOL     OW77497   4.282   1.502  10.222 -0.0057 -0.2669 -0.1327
23631SOL    HW177498   4.231   1.431  10.262 -0.7493 -0.8539 -1.9947
23631SOL    HW277499   4.372   1.486  10.251 -0.3921 -1.1183  0.6509
23632SOL     OW77500   0.859  11.201   1.785 -0.1809  0.3299  0.3621
23632SOL    HW177501   0.935  11.166   1.740  0.0838  0.5884  0.6043
23632SOL    HW277502   0.809  11.248   1.717 -0.4135 -0.3078  0.0895
23633SOL     OW77503   9.886   3.289   3.886 -0.5114 -1.0404  0.0431
23633SOL    HW177504   9.912   3.380   3.870  1.0366 -1.3638  0.4918
23633SOL    HW277505   9.911   3.242   3.806 -2.1570 -0.9395 -0.5601
23634SOL     OW77506   1.917   9.584   1.952 -0.4439  0.0744  0.4785
23634SOL    HW177507   2.000   9.535   1.956 -0.1524  0.5087 -0.2166
23634SOL    HW277508   1.943   9.676   1.956 -0.8481  0.2355 -0.4777
23635SOL     OW77509   9.524   2.274   0.965 -0.6513  0.5058 -0.6708
23635SOL    HW177510   9.573   2.192   0.977  0.4050  0.9830 -1.5206
23635SOL    HW277511   9.538   2.322   1.046  1.8185  1.3713 -1.5007
23636SOL     OW77512  11.584   6.779   9.328  0.0186  0.3514 -0.1665
23636SOL    HW177513  11.579   6.773   9.232  1.4370  2.4006 -0.4412
23636SOL    HW277514  11.677   6.767   9.348 -0.2479  0.0837  0.9472
23637SOL     OW77515   7.349   5.805  10.592  0.3066  0.0854  0.7129
23637SOL    HW177516   7.322   5.807  10.500  3.2485  1.1158 -0.2493
23637SOL    HW277517   7.267   5.803  10.641 -1.5052  2.8655 -1.8618
23638SOL     OW77518   9.244   7.876  10.910  0.2395  0.1960 -0.3448
23638SOL    HW177519   9.294   7.848  10.986 -0.4944 -0.2679 -0.0189
23638SOL    HW277520   9.235   7.971  10.921  0.1590  0.1350  0.1339
23639SOL     OW77521   3.800  11.972   4.461 -0.3413 -0.4737  0.0140
23639SOL    HW177522   3.734  11.987   4.529  0.6735 -1.7717  1.3506
23639SOL    HW277523   3.840  12.058   4.447 -0.4292 -0.2144  1.2319
23640SOL     OW77524   1.551   0.204   0.945 -0.0116 -0.3206  0.4195
23640SOL    HW177525   1.575   0.114   0.964 -0.0742 -0.3253  0.4754
23640SOL    HW277526   1.523   0.203   0.853  1.7902 -0.0039 -0.1737
23641SOL     OW77527   9.688   2.370   9.179  0.4601  0.2114  0.3422
23641SOL    HW177528   9.711   2.380   9.086 -0.0437 -0.9627  0.0722
23641SOL    HW277529   9.738   2.438   9.223  1.3440  0.2650 -0.6957
23642SOL     OW77530   2.177   9.911   0.879  0.2759  0.3744  0.3937
23642SOL    HW177531   2.120   9.988   0.888 -1.5180 -0.7762 -0.5745
23642SOL    HW277532   2.136   9.845   0.936  1.5700 -0.0128  0.9096
23643SOL     OW77533   1.165  11.983  11.207  0.3025 -0.2038  0.4533
23643SOL    HW177534   1.160  12.016  11.117  1.3707 -2.2521 -0.4287
23643SOL    HW277535   1.165  12.062  11.262 -0.4577  1.0937 -1.3067
23644SOL     OW77536   1.084   4.088  12.598 -0.0144  0.1152 -0.2897
23644SOL    HW177537   1.070   4.010  12.651  0.2844 -0.6747 -1.3210
23644SOL    HW277538   1.085   4.055  12.508  1.6190  1.0825 -0.6661
23645SOL     OW77539   4.792   2.124   1.097 -0.4502 -0.2902  0.6831
23645SOL    HW177540   4.812   2.205   1.144  0.9830 -0.4236  0.3485
23645SOL    HW277541   4.704   2.138   1.062  0.4183  1.8787 -0.8686
23646SOL     OW77542   2.667  11.434   5.905 -0.5073  0.7527 -0.8810
23646SOL    HW177543   2.663  11.338   5.905  1.2866  0.6393 -0.5069
23646SOL    HW277544   2.637  11.459   5.818 -1.0654 -0.1500 -0.9613
23647SOL     OW77545   3.122   4.240   8.400 -0.5662  0.8421 -0.5661
23647SOL    HW177546   3.175   4.314   8.369 -1.8333  2.5656  1.1682
23647SOL    HW277547   3.176   4.199   8.467  0.5309 -0.4816 -2.1607
23648SOL     OW77548  12.174   0.114  11.415 -0.0328  0.8548  0.8621
23648SOL    HW177549  12.264   0.092  11.438  0.5176  0.3978 -1.4840
23648SOL    HW277550  12.178   0.206  11.387  0.0516  0.3936 -0.7272
23649SOL     OW77551   5.374  10.438   8.043  0.0787  0.0394 -0.5055
23649SOL    HW177552   5.404  10.415   7.954  0.1079  1.3078 -0.8373
23649SOL    HW277553   5.409  10.368   8.098 -1.1285 -1.5485 -1.6740
23650SOL     OW77554   5.274   2.388   0.140  0.4514 -0.0874 -0.6913
23650SOL    HW177555   5.235   2.302   0.125 -0.3594  0.0310  0.6532
23650SOL    HW277556   5.199   2.448   0.147  0.9931  0.6776 -1.2127
23651SOL     OW77557   0.596   1.766   5.172  0.0836  0.4417 -0.0075
23651SOL    HW177558   0.644   1.807   5.100 -1.1919  0.4025 -0.9157
23651SOL    HW277559   0.519   1.822   5.186 -0.1208 -0.0108  0.7593
23652SOL     OW77560   2.720  11.796   6.642  0.7084 -0.7994  0.4089
23652SOL    HW177561   2.811  11.790   6.670  0.5361 -1.0674  0.9153
23652SOL    HW277562   2.722  11.775   6.548  1.7305  3.1334 -0.6505
23653SOL     OW77563   8.802   1.855   1.875  0.0060  0.2798  0.1552
23653SOL    HW177564   8.720   1.883   1.916 -0.5159 -0.8303 -0.0918
23653SOL    HW277565   8.837   1.934   1.835 -1.3143  0.6212 -0.3685
23654SOL     OW77566   4.081   5.829  10.583  0.0369  0.2057 -0.3921
23654SOL    HW177567   4.161   5.779  10.595 -1.5676 -2.2458  0.9143
23654SOL    HW277568   4.057   5.858  10.671 -1.3797 -0.6032 -0.4882
23655SOL     OW77569   3.979   7.484   3.355  0.6084 -0.9634 -0.0300
23655SOL    HW177570   4.003   7.409   3.408 -1.3354 -0.6459  1.3880
23655SOL    HW277571   3.885   7.495   3.369  0.9855  2.4023  0.7655
23656SOL     OW77572   0.836   9.657   5.300  0.0562 -0.2880  0.0246
23656SOL    HW177573   0.789   9.740   5.289 -0.2814 -0.2273  1.7156
23656SOL    HW277574   0.874   9.640   5.214  0.3542  1.7675 -0.3124
23657SOL     OW77575   4.049  11.734   6.207 -0.4494  0.2347  0.2170
23657SOL    HW177576   4.004  11.787   6.274 -0.9986 -0.7396  0.6295
23657SOL    HW277577   3.994  11.743   6.129 -0.1816  0.8000  0.0819
23658SOL     OW77578   4.269   7.800   6.604 -0.5101 -0.6199  0.0154
23658SOL    HW177579   4.289   7.875   6.659 -0.4340  1.2772 -2.4213
23658SOL    HW277580   4.341   7.739   6.618  0.7562  0.8748  0.2301
23659SOL     OW77581   4.773  11.613   2.365 -0.3506 -0.2669 -0.6525
23659SOL    HW177582   4.807  11.698   2.392  0.0509 -0.6036 -0.0963
23659SOL    HW277583   4.836  11.580   2.302 -1.4172  0.6311 -2.2710
23660SOL     OW77584   3.140  10.397   6.288 -0.2070 -0.5822 -0.3265
23660SOL    HW177585   3.158  10.430   6.200  0.3348  0.3132  0.1062
23660SOL    HW277586   3.058  10.349   6.279  0.6473 -1.9274 -1.6739
23661SOL     OW77587   3.518  12.087   6.955  0.3509  0.1731  0.6842
23661SOL    HW177588   3.446  12.042   6.911  1.0301 -0.0662 -0.2224
23661SOL    HW277589   3.484  12.174   6.975  0.2738  0.5697 -1.0706
23662SOL     OW77590  12.213   1.651  10.745  0.3611 -0.5038 -0.4099
23662SOL    HW177591  12.215   1.667  10.840 -3.4396  1.3585 -0.4873
23662SOL    HW277592  12.216   1.555  10.737 -0.3966 -0.7617  1.6917
23663SOL     OW77593   7.033   6.042   9.842 -0.5651 -0.3111 -0.2493
23663SOL    HW177594   6.991   6.115   9.796  0.0460  1.2762  1.5964
23663SOL    HW277595   7.072   5.990   9.772 -0.6250  1.3806 -1.6164
23664SOL     OW77596  12.317   0.794   7.867 -0.3868  0.5961 -0.4289
23664SOL    HW177597  12.310   0.875   7.817 -1.1210 -0.4220 -2.0921
23664SOL    HW277598  12.273   0.812   7.950 -0.2867  1.9680 -0.6568
23665SOL     OW77599   7.811   5.401   1.744  0.3959  0.0610 -0.0867
23665SOL    HW177600   7.749   5.474   1.751 -0.1499 -0.4339  0.3223
23665SOL    HW277601   7.756   5.323   1.742  1.0099 -0.3908  0.3413
23666SOL     OW77602  11.528   7.801   0.336  0.5891 -0.4301 -0.4112
23666SOL    HW177603  11.550   7.758   0.419  1.4421 -0.9447 -0.9028
23666SOL    HW277604  11.522   7.894   0.359  1.1154 -0.5305  0.1679
23667SOL     OW77605  11.346   6.601   9.166  0.3399  0.0206 -0.0780
23667SOL    HW177606  11.356   6.684   9.119 -1.0976  0.2506 -0.0254
23667SOL    HW277607  11.435   6.580   9.196  0.6378  1.8828  0.4802
23668SOL     OW77608   2.279   6.340  10.712  0.2682 -0.7987 -0.3360
23668SOL    HW177609   2.277   6.326  10.807 -0.9250  1.2482 -0.0012
23668SOL    HW277610   2.373   6.344  10.691  0.5528 -0.6702  0.8626
23669SOL     OW77611  10.631   8.444  10.596  0.0375 -0.1234 -0.1531
23669SOL    HW177612  10.639   8.475  10.505  1.0059  0.5014  0.1229
23669SOL    HW277613  10.718   8.408  10.616 -0.2618 -0.5316  0.4291
23670SOL     OW77614   6.435   2.924   4.217  0.0883 -0.4018 -0.1553
23670SOL    HW177615   6.455   2.937   4.310  0.2893 -0.2975 -0.2126
23670SOL    HW277616   6.514   2.954   4.171 -0.5240  0.8504 -0.4347
23671SOL     OW77617   4.012   1.888   1.359 -0.2076 -0.4383  0.2742
23671SOL    HW177618   3.991   1.817   1.299  0.5172 -0.6699  0.2855
23671SOL    HW277619   3.974   1.966   1.319 -0.5457 -0.7453 -0.0056
23672SOL     OW77620   4.927  11.886   1.323 -0.4299 -0.1083  0.1888
23672SOL    HW177621   5.008  11.936   1.321 -1.1247  1.0287 -1.4448
23672SOL    HW277622   4.950  11.802   1.283  0.0506  0.0241  0.1804
23673SOL     OW77623   0.606   3.546   7.705  0.4868 -0.3500 -0.0873
23673SOL    HW177624   0.550   3.469   7.700 -0.4633  0.1427  1.9367
23673SOL    HW277625   0.695   3.512   7.691 -0.1369 -1.3414 -1.9557
23674SOL     OW77626   4.655   4.795   1.554 -0.2272  0.4340 -0.0406
23674SOL    HW177627   4.592   4.726   1.533 -0.8063  1.3660 -1.5347
23674SOL    HW277628   4.611   4.850   1.618 -0.7887  0.8322 -0.7530
23675SOL     OW77629   9.577  10.274  12.238  0.5747  0.0637 -0.5921
23675SOL    HW177630   9.587  10.326  12.318  1.8610 -0.1519 -0.5975
23675SOL    HW277631   9.483  10.272  12.222  0.3241  0.3208  0.7770
23676SOL     OW77632   7.509   8.841   8.767  0.0752 -0.3200 -0.5022
23676SOL    HW177633   7.523   8.827   8.861  0.2411 -1.5061 -0.6839
23676SOL    HW277634   7.596   8.835   8.729 -0.0526 -0.3757 -0.7884
23677SOL     OW77635  10.475   9.901  12.705  0.2963  0.3448  0.7402
23677SOL    HW177636  10.497   9.993  12.686  1.4795  0.7906  3.6484
23677SOL    HW277637  10.558   9.854  12.695 -0.0643 -0.2158  0.3507
23678SOL     OW77638   3.325   9.487   3.175 -0.0367 -0.3743 -0.3019
23678SOL    HW177639   3.350   9.539   3.252  0.3380 -1.4250  0.3103
23678SOL    HW277640   3.400   9.496   3.115 -0.1316  0.0790 -0.3566
23679SOL     OW77641   7.904   6.865  11.790  0.2308 -0.5752  0.3827
23679SOL    HW177642   7.961   6.888  11.864  0.4992 -1.4809  0.4721
23679SOL    HW277643   7.830   6.925  11.797 -0.9000 -2.0717  2.7490
23680SOL     OW77644   2.616   8.054   0.598 -0.0983  0.2945  0.6875
23680SOL    HW177645   2.523   8.034   0.602  0.1702 -1.2665 -0.1390
23680SOL    HW277646   2.645   8.019   0.514  1.0921  1.4450  0.5836
23681SOL     OW77647   6.430   9.771   9.939 -0.8970 -0.1173 -0.3181
23681SOL    HW177648   6.344   9.796   9.906 -0.1040  2.1917 -0.8395
23681SOL    HW277649   6.467   9.715   9.870 -1.7657 -0.7156 -0.3100
23682SOL     OW77650   0.438   5.271  11.938 -0.0810  0.4826  0.1642
23682SOL    HW177651   0.387   5.300  12.014 -0.0717  0.2972  0.2387
23682SOL    HW277652   0.387   5.200  11.901  0.2035  0.1918  0.3305
23683SOL     OW77653   2.664   7.734   1.941 -0.1490  0.5610  0.0030
23683SOL    HW177654   2.617   7.795   1.997 -0.2198  0.1917  0.3524
23683SOL    HW277655   2.726   7.788   1.892 -0.0974  0.8887  0.4279
23684SOL     OW77656   5.727   8.650   1.454  0.0495 -0.1930 -0.5096
23684SOL    HW177657   5.772   8.673   1.536  1.4321 -0.5882 -1.1281
23684SOL    HW277658   5.648   8.605   1.483 -0.1912  0.8922  0.6209
23685SOL     OW77659   0.841   9.583   1.479 -0.1620  0.3148  0.3618
23685SOL    HW177660   0.913   9.644   1.496 -0.5282  1.4465 -1.7443
23685SOL    HW277661   0.866   9.503   1.525  1.1465  1.5032  1.8466
23686SOL     OW77662   6.435   3.600   6.760  0.8216 -0.3552  0.3499
23686SOL    HW177663   6.423   3.548   6.680  0.6138  0.0327  0.1218
23686SOL    HW277664   6.454   3.536   6.828  1.2896 -0.6703 -0.0719
23687SOL     OW77665   2.551   8.047  10.298  0.1659  0.0647  0.9430
23687SOL    HW177666   2.532   8.109  10.228  0.2491  0.0007  0.8626
23687SOL    HW277667   2.639   8.070  10.328  0.2115 -0.0355  0.8878
23688SOL     OW77668   0.513   9.909   7.234  0.1435  0.6051 -0.0784
23688SOL    HW177669   0.428   9.951   7.243  1.0104  2.6207 -0.7392
23688SOL    HW277670   0.548   9.942   7.151  1.5269 -0.2801  0.1144
23689SOL     OW77671   3.001   4.062   9.988 -0.3898 -0.5658 -0.2762
23689SOL    HW177672   2.956   4.126  10.043 -0.2307 -0.9268  0.2828
23689SOL    HW277673   2.978   3.977  10.027 -1.3204 -0.9148 -1.5198
23690SOL     OW77674  12.163   7.529   3.978  0.5104  0.6533  0.3815
23690SOL    HW177675  12.210   7.447   3.964 -0.2418  0.3026 -0.2292
23690SOL    HW277676  12.204   7.591   3.918  0.1121  0.3102 -0.2601
23691SOL     OW77677   6.651   1.265   1.096 -0.1513 -1.0471  0.3401
23691SOL    HW177678   6.591   1.317   1.149 -0.3783 -0.9380 -0.0254
23691SOL    HW277679   6.700   1.212   1.160 -0.6224 -1.1254  0.6357
23692SOL     OW77680  10.155   7.358  10.041 -0.4354  0.4573 -0.3404
23692SOL    HW177681  10.245   7.379  10.064 -0.1012 -1.5744  0.4494
23692SOL    HW277682  10.107   7.366  10.123 -0.6697  0.1126 -0.4417
23693SOL     OW77683  10.714   9.587   3.232 -0.2313 -0.2290 -0.3006
23693SOL    HW177684  10.660   9.656   3.270  0.6824  0.1997  0.2610
23693SOL    HW277685  10.663   9.554   3.158 -1.3165  0.0557  0.3021
23694SOL     OW77686  10.749  10.653   6.062  0.3348  0.0237 -0.7398
23694SOL    HW177687  10.659  10.646   6.093  0.1901 -1.6630 -1.4856
23694SOL    HW277688  10.801  10.616   6.133  0.1300 -2.2933 -1.7275
23695SOL     OW77689   7.601  11.134   3.714 -0.4575  0.2419  0.0582
23695SOL    HW177690   7.511  11.139   3.746 -0.2248  0.5348  0.6890
23695SOL    HW277691   7.653  11.113   3.791 -0.1508 -1.5003 -0.5906
23696SOL     OW77692   6.059   4.558  11.289  0.7409  0.7460  0.0514
23696SOL    HW177693   5.971   4.595  11.301  0.3860  0.0263 -0.3098
23696SOL    HW277694   6.118   4.627  11.320  0.0295  0.9652  0.9775
23697SOL     OW77695   2.135   4.659  11.187 -0.7162  0.3455  0.3476
23697SOL    HW177696   2.104   4.579  11.229 -1.6684 -0.0231 -0.9969
23697SOL    HW277697   2.057   4.713  11.177 -0.3074  0.9050  0.0804
23698SOL     OW77698   7.261   3.389  10.280  0.2879 -0.1140  0.6426
23698SOL    HW177699   7.260   3.305  10.327  0.3755  0.2373  1.2926
23698SOL    HW277700   7.329   3.440  10.324 -0.4635  0.6686  0.9468
23699SOL     OW77701  10.748  11.177   2.344  0.5085  0.1357 -0.4173
23699SOL    HW177702  10.717  11.267   2.356 -0.2601 -0.0826 -0.7306
23699SOL    HW277703  10.781  11.151   2.430  0.1756  0.5104 -0.1724
23700SOL     OW77704   3.496   3.961   6.840 -0.2608 -0.1296 -0.3679
23700SOL    HW177705   3.467   4.050   6.822  0.0638 -0.2634 -1.6226
23700SOL    HW277706   3.427   3.905   6.805 -0.3473 -0.3793  0.1945
23701SOL     OW77707   6.822   3.598   2.877  0.6172 -0.2302  0.1108
23701SOL    HW177708   6.842   3.690   2.897  1.7983 -0.5229  0.3409
23701SOL    HW277709   6.894   3.570   2.820 -0.3896 -0.6678 -0.9926
23702SOL     OW77710  12.669   2.954   8.699 -0.5305  0.0610  0.5056
23702SOL    HW177711  12.622   2.883   8.656  0.5503 -0.2697 -0.1576
23702SOL    HW277712  12.670   3.025   8.635 -0.1734  0.0788  0.5283
23703SOL     OW77713   5.628  10.593   9.367 -0.4925 -0.1191  0.3628
23703SOL    HW177714   5.582  10.580   9.284 -0.8972  1.1873  0.3612
23703SOL    HW277715   5.645  10.504   9.399 -0.7039 -0.6409 -0.9011
23704SOL     OW77716  12.017   8.112   1.224 -0.2617 -0.0350  0.0576
23704SOL    HW177717  11.922   8.117   1.227 -0.2963 -0.0811 -0.6781
23704SOL    HW277718  12.036   8.022   1.198 -0.0444  0.1762 -0.5398
23705SOL     OW77719   4.205   7.571   0.343  0.3056  0.6941 -0.7134
23705SOL    HW177720   4.159   7.593   0.262  1.2534 -1.4377 -1.9434
23705SOL    HW277721   4.146   7.510   0.388  0.9451 -0.3717 -1.2578
23706SOL     OW77722   7.281   8.407   8.167 -0.1108 -0.4023  0.1263
23706SOL    HW177723   7.282   8.398   8.262  0.2533 -0.4617  0.1186
23706SOL    HW277724   7.305   8.321   8.134 -0.3350 -0.4088 -0.0244
23707SOL     OW77725  12.036   0.101   3.769 -0.0923  0.1023  0.6265
23707SOL    HW177726  12.062   0.013   3.797 -0.4403 -0.4031 -0.5949
23707SOL    HW277727  12.109   0.133   3.716 -0.1683  0.3664  0.6772
23708SOL     OW77728   9.542  11.049   7.241  0.4456  0.0510 -0.1037
23708SOL    HW177729   9.549  11.093   7.156  1.2091  0.0816 -0.0272
23708SOL    HW277730   9.624  11.001   7.251 -0.6472 -2.0246 -0.5242
23709SOL     OW77731   8.146   4.759   4.164 -0.2939 -0.2977 -0.0487
23709SOL    HW177732   8.090   4.830   4.133 -0.7394 -0.9705 -0.8149
23709SOL    HW277733   8.159   4.778   4.257 -0.9391  0.4307 -0.0970
23710SOL     OW77734   8.435   1.338  11.741 -0.0949  0.0338 -0.3536
23710SOL    HW177735   8.504   1.276  11.717  1.0275  0.3021  1.9642
23710SOL    HW277736   8.481   1.417  11.768 -1.1353 -0.2142  2.5308
23711SOL     OW77737   1.763  10.653  12.465  0.0172  0.1736 -0.1275
23711SOL    HW177738   1.770  10.571  12.416  1.0236 -1.0397  1.9131
23711SOL    HW277739   1.837  10.706  12.435 -0.0243 -0.0887 -0.6973
23712SOL     OW77740   0.597   4.722   1.556 -0.1016 -0.1628  0.2105
23712SOL    HW177741   0.637   4.770   1.483  0.7255 -0.3005  0.5672
23712SOL    HW277742   0.638   4.636   1.553 -1.1029 -0.6443 -0.0222
23713SOL     OW77743  10.920   0.045   0.322 -0.5863  0.1187 -0.2789
23713SOL    HW177744  10.866   0.060   0.399  0.9310 -0.5958  0.9916
23713SOL    HW277745  10.878  -0.029   0.277 -1.2819  0.3054  0.0521
23714SOL     OW77746   0.507   0.240   4.997 -0.0992 -0.2934  0.1434
23714SOL    HW177747   0.511   0.296   4.919 -0.3391 -1.3277 -0.6251
23714SOL    HW277748   0.450   0.287   5.058 -1.6657 -0.4762 -1.1387
23715SOL     OW77749   3.628   1.173   5.470 -0.2889 -0.3725  0.3814
23715SOL    HW177750   3.619   1.209   5.381  0.2893  0.1966  0.5514
23715SOL    HW277751   3.653   1.082   5.456 -0.5731 -0.3888 -0.0436
23716SOL     OW77752   4.729   6.108   7.108 -0.0640  0.0469 -0.8620
23716SOL    HW177753   4.710   6.186   7.057  1.3576  0.8720 -0.1820
23716SOL    HW277754   4.654   6.099   7.167  0.5260  1.9247  0.2534
23717SOL     OW77755  11.574   2.425   1.641  0.0476 -0.1848 -0.1625
23717SOL    HW177756  11.546   2.440   1.551  0.0346 -0.7543 -0.2590
23717SOL    HW277757  11.574   2.330   1.650  0.7578 -0.1523  0.2149
23718SOL     OW77758   2.092   5.536   4.506 -0.1170 -0.2921 -0.0323
23718SOL    HW177759   2.167   5.477   4.516  0.2381  0.3310  1.3237
23718SOL    HW277760   2.082   5.548   4.412  1.8094 -0.0230 -0.2408
23719SOL     OW77761   4.327   4.098   5.379  0.0049  0.8033 -0.0372
23719SOL    HW177762   4.303   4.014   5.417  2.1861  0.5676  0.9900
23719SOL    HW277763   4.252   4.123   5.326 -1.6124 -0.7113  1.4115
23720SOL     OW77764   8.957   3.224   3.659 -0.1616 -0.2000  0.0823
23720SOL    HW177765   8.923   3.147   3.614  0.2070 -0.3866  0.1122
23720SOL    HW277766   8.952   3.295   3.595  1.0737 -0.6348 -0.5344
23721SOL     OW77767  10.414   2.727  12.312  0.2774 -0.5346  0.5513
23721SOL    HW177768  10.486   2.752  12.254  0.7476 -0.5178  1.1302
23721SOL    HW277769  10.336   2.738  12.259  0.5219  1.4054  0.5092
23722SOL     OW77770   2.511   8.226   8.398  0.7237  0.4256  0.7867
23722SOL    HW177771   2.502   8.292   8.466 -0.1706  1.1137  0.0219
23722SOL    HW277772   2.428   8.227   8.351  0.8334 -0.9710  0.5050
23723SOL     OW77773   8.357   7.381  11.732  0.0824 -0.2171 -0.2241
23723SOL    HW177774   8.333   7.442  11.663 -1.8017  1.7214  1.9566
23723SOL    HW277775   8.423   7.428  11.783  0.6559 -1.1640 -0.0765
23724SOL     OW77776   5.120   1.101   6.091 -0.1898 -0.2554 -0.2342
23724SOL    HW177777   5.107   1.072   6.181  0.4815 -0.5333 -0.2248
23724SOL    HW277778   5.062   1.044   6.040  1.3758 -1.9150 -0.2547
23725SOL     OW77779   3.299  11.363  12.476 -0.0430 -0.2653  0.5137
23725SOL    HW177780   3.223  11.331  12.428 -0.6633  0.0727  1.2582
23725SOL    HW277781   3.264  11.396  12.558  0.6204  2.0267 -0.0736
23726SOL     OW77782   3.264  10.533   8.661  0.3339  0.0670 -0.4198
23726SOL    HW177783   3.243  10.447   8.698  1.0050  0.0700 -0.0161
23726SOL    HW277784   3.263  10.519   8.566 -0.4311 -0.1718 -0.3854
23727SOL     OW77785   5.901   7.830   3.334 -0.3512  0.4376 -0.3058
23727SOL    HW177786   5.993   7.822   3.309 -0.8264 -0.5174 -1.9091
23727SOL    HW277787   5.863   7.887   3.267 -1.1167  0.0329 -0.2278
23728SOL     OW77788   2.167  10.590   0.679  0.2982  0.1617  0.0864
23728SOL    HW177789   2.164  10.568   0.772 -0.2346  2.4195  0.6585
23728SOL    HW277790   2.255  10.563   0.651  0.1727 -1.3037  0.9969
23729SOL     OW77791  11.482  10.635  12.151  0.7349 -0.1474  0.6608
23729SOL    HW177792  11.569  10.619  12.113  0.5783 -1.3020  0.7531
23729SOL    HW277793  11.476  10.730  12.157  0.3984  0.2415 -3.1568
23730SOL     OW77794   3.325   2.763   5.946 -0.3392  0.6713  0.1513
23730SOL    HW177795   3.335   2.750   5.851 -1.4584 -0.1374  0.1268
23730SOL    HW277796   3.372   2.844   5.964  0.8336  0.2514 -0.9084
23731SOL     OW77797   1.787  12.134   3.317 -0.3516 -0.0046 -0.0997
23731SOL    HW177798   1.858  12.189   3.350  0.2003 -1.2440  0.8425
23731SOL    HW277799   1.815  12.108   3.229 -0.6487  1.2357 -0.5817
23732SOL     OW77800   9.917   9.594  12.331  0.1775  0.4048 -0.0141
23732SOL    HW177801   9.975   9.561  12.263  0.0056 -0.5693  0.2932
23732SOL    HW277802   9.888   9.516  12.378  0.3906  1.0628  1.2599
23733SOL     OW77803   9.410   1.684   1.420 -0.1593 -0.1220  0.1352
23733SOL    HW177804   9.433   1.609   1.475 -0.4658 -1.0515 -0.9484
23733SOL    HW277805   9.488   1.698   1.365  0.4282  1.2717  1.2740
23734SOL     OW77806   3.364   3.827   2.395 -0.2063 -0.4749 -0.0190
23734SOL    HW177807   3.404   3.761   2.338 -1.5235 -1.7267  0.4520
23734SOL    HW277808   3.404   3.812   2.481  0.1374 -0.0536 -0.0980
23735SOL     OW77809   8.376   9.485  12.058  0.0225 -0.1548 -0.0779
23735SOL    HW177810   8.358   9.577  12.077 -2.9982 -0.3824 -1.2794
23735SOL    HW277811   8.396   9.446  12.144 -3.4768  0.7364  1.3012
23736SOL     OW77812   6.150   7.196  10.135  0.9638 -0.7116  0.3478
23736SOL    HW177813   6.133   7.235  10.220 -1.7010  0.1356 -0.4695
23736SOL    HW277814   6.191   7.265  10.084  1.3970 -0.8078  0.5656
23737SOL     OW77815   0.322   1.598   3.653 -0.0110  0.0730 -0.1217
23737SOL    HW177816   0.244   1.649   3.675 -0.4003  0.1889 -1.6422
23737SOL    HW277817   0.384   1.617   3.723 -1.8885 -1.3596  2.1086
23738SOL     OW77818   0.975   7.700  11.040 -0.0951 -0.7866  0.1873
23738SOL    HW177819   1.049   7.723  10.983  0.7150 -1.4553  0.9388
23738SOL    HW277820   0.922   7.779  11.044  1.0434 -0.0174  0.3217
23739SOL     OW77821   1.639   9.308   5.631  0.2286 -0.4529  0.2784
23739SOL    HW177822   1.620   9.351   5.714  0.5583 -0.8454  0.5631
23739SOL    HW277823   1.715   9.253   5.650  0.5600 -0.2324 -0.3907
23740SOL     OW77824  12.396   1.558   4.915 -0.4734  0.2064  0.3343
23740SOL    HW177825  12.463   1.536   4.850 -0.7829 -0.3298  0.1859
23740SOL    HW277826  12.391   1.481   4.972  1.3012  1.4857  2.3421
23741SOL     OW77827  11.863   0.723   0.407 -0.4839 -0.1597 -0.1756
23741SOL    HW177828  11.810   0.754   0.335 -0.8298  0.5867  0.3958
23741SOL    HW277829  11.929   0.666   0.366  0.4661  1.6824 -1.2980
23742SOL     OW77830   8.946   8.049   8.555  0.7536 -0.4058 -0.0566
23742SOL    HW177831   8.932   8.143   8.554 -2.4613 -0.7818 -1.0454
23742SOL    HW277832   8.941   8.024   8.647  0.9858  0.2946  0.1480
23743SOL     OW77833   3.492   3.534  12.770 -0.3291  0.2890  0.1186
23743SOL    HW177834   3.550   3.457  12.777 -0.5606  0.1415  0.4685
23743SOL    HW277835   3.472   3.541  12.677  1.3800  1.1762 -0.2368
23744SOL     OW77836   4.939   8.445   2.720  0.0388  0.0532 -0.5065
23744SOL    HW177837   4.987   8.370   2.684  3.6733  2.1154 -0.4344
23744SOL    HW277838   4.979   8.460   2.806 -0.1783  2.3376 -0.7395
23745SOL     OW77839   6.274   1.513   5.055  0.1199 -0.0432  0.2710
23745SOL    HW177840   6.280   1.477   4.967  0.4997  0.2141  0.1911
23745SOL    HW277841   6.311   1.601   5.048 -1.8803  0.8529  0.2032
23746SOL     OW77842  12.376   7.561   2.153 -0.5272 -0.6341 -0.9372
23746SOL    HW177843  12.392   7.471   2.123  0.0713  0.1644 -3.2455
23746SOL    HW277844  12.389   7.614   2.075  1.5527  1.7217  0.8609
23747SOL     OW77845   4.815   0.553   0.993  0.2768 -0.2519  0.2465
23747SOL    HW177846   4.740   0.609   1.012  1.4863  1.2233  0.8449
23747SOL    HW277847   4.793   0.510   0.911 -0.5718  1.3387 -0.4011
23748SOL     OW77848   4.617  12.509   9.505  0.5565 -0.3673  0.6536
23748SOL    HW177849   4.653  12.584   9.457  1.9336 -1.6073 -0.3725
23748SOL    HW277850   4.523  12.517   9.494  0.5287  2.0580  1.9342
23749SOL     OW77851  11.645  11.879   7.849 -0.0956  0.0480  0.2515
23749SOL    HW177852  11.735  11.913   7.851  0.1868 -0.6412 -0.1264
23749SOL    HW277853  11.656  11.784   7.850 -0.7652 -0.0692 -1.4187
23750SOL     OW77854   3.172   5.499  10.019  0.2331 -0.0308  0.1770
23750SOL    HW177855   3.237   5.443  10.064 -0.5671 -0.9890  0.1753
23750SOL    HW277856   3.178   5.472   9.928 -0.8238 -0.8076  0.3236
23751SOL     OW77857  12.373  11.224   4.050 -0.6807  0.2197  0.3635
23751SOL    HW177858  12.328  11.197   4.131  0.5628 -0.3266  0.9107
23751SOL    HW277859  12.325  11.300   4.020 -1.1880  0.4272  1.6203
23752SOL     OW77860   9.912   4.599  11.081 -0.2607  0.2266 -0.0461
23752SOL    HW177861   9.838   4.560  11.036  1.2768 -1.0217 -1.6011
23752SOL    HW277862   9.909   4.692  11.056  0.1035 -0.2811 -2.1940
23753SOL     OW77863   4.238   5.830   9.937  0.2851  0.3027 -0.3256
23753SOL    HW177864   4.157   5.865   9.899  0.4193  0.0397 -0.8549
23753SOL    HW277865   4.219   5.824  10.031 -0.1742  0.6090 -0.3960
23754SOL     OW77866   0.180   7.232   8.631  0.7083 -0.3017 -0.1997
23754SOL    HW177867   0.089   7.205   8.620  0.7044 -0.4706  0.2362
23754SOL    HW277868   0.227   7.185   8.562  0.3701  0.3103 -0.8641
23755SOL     OW77869   9.178   5.862   6.569  0.2773  0.2856  0.4438
23755SOL    HW177870   9.203   5.789   6.625  0.0130 -0.9343 -0.9759
23755SOL    HW277871   9.227   5.847   6.488 -0.2883  1.3344 -0.1017
23756SOL     OW77872   4.439   8.038   6.882 -0.3905  0.1844 -0.3115
23756SOL    HW177873   4.486   8.099   6.939 -1.7516  0.3393  0.6863
23756SOL    HW277874   4.504   8.012   6.816  0.6396  1.5674  0.1050
23757SOL     OW77875   6.138   0.187   2.103  0.1218  0.2011  0.3166
23757SOL    HW177876   6.219   0.145   2.074 -0.1453  0.6876 -1.2058
23757SOL    HW277877   6.131   0.266   2.049 -1.5399  0.0097  0.2052
23758SOL     OW77878   4.705   7.400   2.666  0.0924 -0.0425  0.4602
23758SOL    HW177879   4.773   7.420   2.602  0.5266  1.0194  1.2166
23758SOL    HW277880   4.738   7.438   2.748 -0.5251 -1.2190  1.2784
23759SOL     OW77881   3.102   4.994   1.126  0.0277  0.0562 -0.1730
23759SOL    HW177882   3.182   4.995   1.178 -0.7539  1.2872  1.0570
23759SOL    HW277883   3.031   5.009   1.189 -1.1432 -0.4609 -1.3082
23760SOL     OW77884  10.844   9.947  11.879 -0.5036  0.3594 -0.0668
23760SOL    HW177885  10.799  10.031  11.877 -1.3446 -0.0925 -0.6261
23760SOL    HW277886  10.902   9.953  11.955 -2.2372  0.5932  1.2933
23761SOL     OW77887  10.134   9.686   0.052 -0.1390  0.0880 -0.1676
23761SOL    HW177888  10.167   9.606   0.010 -0.1984  0.2616 -0.5476
23761SOL    HW277889  10.211   9.726   0.091  0.1783  0.6482 -1.3090
23762SOL     OW77890   8.562   8.957   6.114  0.2314 -0.3191  0.6321
23762SOL    HW177891   8.560   8.901   6.192 -1.7079 -1.5293 -0.2103
23762SOL    HW277892   8.560   8.897   6.040 -1.0481  0.8248 -0.3233
23763SOL     OW77893   9.612   4.285   8.422  0.0089  0.7862 -0.0426
23763SOL    HW177894   9.568   4.369   8.439  1.5611  1.1785  2.7650
23763SOL    HW277895   9.706   4.305   8.432  0.4657 -1.0979 -0.1643
23764SOL     OW77896   6.551   7.066  12.544 -0.0492  0.2325  0.4782
23764SOL    HW177897   6.502   7.004  12.598 -0.1868  1.8162  2.2633
23764SOL    HW277898   6.575   7.137  12.604  0.7442  1.5642 -1.3122
23765SOL     OW77899   5.747   4.420   0.479 -0.0752  0.1190  0.0850
23765SOL    HW177900   5.732   4.349   0.542 -0.4262  0.6348  0.5941
23765SOL    HW277901   5.819   4.389   0.425  0.5761 -0.1297  1.0596
23766SOL     OW77902   6.521  10.070   6.201  0.2305  0.3668  0.2235
23766SOL    HW177903   6.569  10.071   6.118  1.6672 -4.0438  0.7336
23766SOL    HW277904   6.552  10.147   6.248  2.3613  0.8412 -1.7914
23767SOL     OW77905   9.755   9.101   6.076 -0.2325  0.3768  0.1205
23767SOL    HW177906   9.811   9.169   6.115  0.3918  0.4757 -0.9293
23767SOL    HW277907   9.682   9.093   6.138 -0.8021  2.6498 -0.1348
23768SOL     OW77908  10.793   7.699   1.753 -0.2815  0.5574  0.3697
23768SOL    HW177909  10.855   7.692   1.825 -1.0775 -1.5262  0.9155
23768SOL    HW277910  10.842   7.742   1.683  1.5093 -0.2136  1.0948
23769SOL     OW77911  12.028   3.362   4.445  0.3034 -0.4249 -0.1940
23769SOL    HW177912  12.107   3.346   4.497 -0.7332 -0.0535  1.5767
23769SOL    HW277913  12.031   3.456   4.426  0.5416 -0.5086 -0.5825
23770SOL     OW77914   8.422   2.157   9.819  0.0881  0.2383  0.2162
23770SOL    HW177915   8.490   2.162   9.886 -0.6476 -0.3710  1.0462
23770SOL    HW277916   8.399   2.064   9.816 -1.5191  0.5783  0.8172
23771SOL     OW77917   2.555   1.218   7.553 -0.0167  0.4792  0.4427
23771SOL    HW177918   2.470   1.180   7.531  0.1285  0.0067  0.6652
23771SOL    HW277919   2.569   1.285   7.487  0.0727 -0.4037 -0.4661
23772SOL     OW77920  11.447   6.056   9.535 -0.4499  0.0829  0.4255
23772SOL    HW177921  11.500   6.136   9.529 -2.0877  1.2936  1.2303
23772SOL    HW277922  11.400   6.052   9.452  1.8228 -1.7674 -0.8891
23773SOL     OW77923  10.828   2.130  10.504 -0.4719 -0.0344 -0.0102
23773SOL    HW177924  10.776   2.201  10.469 -1.0969 -0.8175 -0.7195
23773SOL    HW277925  10.918   2.153  10.484 -0.7407  0.0743 -1.1586
23774SOL     OW77926   2.626   2.685   9.591 -0.5833  0.2908 -0.1134
23774SOL    HW177927   2.602   2.686   9.683  0.5160 -0.7363  0.2173
23774SOL    HW277928   2.582   2.761   9.553 -2.1628 -0.0530  0.9540
23775SOL     OW77929   4.599  11.003   4.389  0.4120 -0.6775  0.1992
23775SOL    HW177930   4.523  11.053   4.356 -0.1475  0.0569  2.4379
23775SOL    HW277931   4.592  10.918   4.346 -0.8309 -0.1217 -0.7688
23776SOL     OW77932   1.474   1.882  10.472 -0.2329 -0.8406  0.8114
23776SOL    HW177933   1.442   1.820  10.538  1.7104 -0.5152  2.1449
23776SOL    HW277934   1.520   1.949  10.523 -0.7830  0.7918 -0.7299
23777SOL     OW77935  11.877  12.679   8.881 -0.0853  0.1781 -0.2597
23777SOL    HW177936  11.839  12.746   8.938  5.0419  2.1056  1.4322
23777SOL    HW277937  11.906  12.611   8.941  1.4310  0.0862 -1.0627
23778SOL     OW77938   2.049   0.346   3.959  0.4745  0.5246  0.3293
23778SOL    HW177939   2.091   0.264   3.986  0.2586  0.7829  1.5259
23778SOL    HW277940   1.982   0.361   4.026  0.7946  1.8854  0.3606
23779SOL     OW77941   5.362   1.420   5.420  0.2442  0.9081  0.1221
23779SOL    HW177942   5.438   1.419   5.362  0.2766  1.9149  0.1243
23779SOL    HW277943   5.357   1.331   5.455  0.8803  0.5876 -0.5685
23780SOL     OW77944   2.917   7.118   1.251  0.7330  0.3154 -0.3455
23780SOL    HW177945   2.844   7.167   1.214  1.6767  1.1567 -1.1714
23780SOL    HW277946   2.935   7.162   1.334  1.4638  1.3136 -1.0023
23781SOL     OW77947   3.553  11.947   5.935 -0.1862  0.3618  0.0918
23781SOL    HW177948   3.470  11.986   5.960 -0.8586  0.0320 -1.5170
23781SOL    HW277949   3.532  11.888   5.863  1.7210  1.8187 -1.7811
23782SOL     OW77950   2.378  10.812  11.112  0.1181  0.0563 -0.4972
23782SOL    HW177951   2.403  10.860  11.033 -1.0644  1.4586 -0.0604
23782SOL    HW277952   2.386  10.720  11.087 -0.9396  0.4494 -2.5203
23783SOL     OW77953   8.596   4.931   0.651 -0.5017  0.3194 -0.2000
23783SOL    HW177954   8.502   4.947   0.660 -0.6588 -0.1477 -0.9102
23783SOL    HW277955   8.635   5.018   0.647 -0.7285  0.5553  1.5509
23784SOL     OW77956   8.595   5.827  11.544  0.5460  0.0703  0.1575
23784SOL    HW177957   8.652   5.890  11.588 -0.0831 -0.6948  2.1508
23784SOL    HW277958   8.654   5.757  11.516  0.7746 -0.1115  1.0657
23785SOL     OW77959   0.719   3.504   0.449  0.2113  0.4678  0.0203
23785SOL    HW177960   0.627   3.526   0.433  0.5632  1.4287 -0.8452
23785SOL    HW277961   0.755   3.582   0.491  0.9196  0.6104 -0.8271
23786SOL     OW77962   3.413   2.096   5.810  0.0230  0.2462 -0.3073
23786SOL    HW177963   3.501   2.134   5.801 -0.5077  1.6732  0.1333
23786SOL    HW277964   3.356   2.156   5.762 -0.5249 -1.5961 -2.0554
23787SOL     OW77965   0.295   1.830  12.553 -0.3976  0.1515  0.0476
23787SOL    HW177966   0.211   1.842  12.509 -0.4340  1.4779  0.4282
23787SOL    HW277967   0.272   1.822  12.646 -0.0580  1.6108  0.2801
23788SOL     OW77968   0.449   6.036   6.525 -1.1050 -0.3412  0.3904
23788SOL    HW177969   0.400   6.077   6.597 -3.2208 -0.7969 -0.6995
23788SOL    HW277970   0.484   6.109   6.475 -2.4189  0.1107  0.0795
23789SOL     OW77971  11.854  12.454   9.045  0.7987  0.5570 -0.9544
23789SOL    HW177972  11.888  12.365   9.048 -2.2131 -0.7049  0.0417
23789SOL    HW277973  11.890  12.496   9.123  1.0803 -0.2902 -0.6168
23790SOL     OW77974   6.292   3.174  10.147 -0.1533 -0.0572  0.0121
23790SOL    HW177975   6.352   3.220  10.089 -0.1564 -1.1357 -0.8513
23790SOL    HW277976   6.309   3.081  10.132 -0.1577 -0.3703  1.7329
23791SOL     OW77977   2.475   9.793   7.242 -0.0485  0.2449  0.3560
23791SOL    HW177978   2.527   9.831   7.171  0.4763  2.0733  1.6420
23791SOL    HW277979   2.506   9.703   7.249  0.9733  0.4880 -0.7342
23792SOL     OW77980   1.360   2.950  10.004 -0.0505 -0.2998 -0.1420
23792SOL    HW177981   1.366   2.855   9.999 -0.0122 -0.3698  1.0131
23792SOL    HW277982   1.266   2.968  10.004 -0.0571 -0.3356 -0.4001
23793SOL     OW77983  12.323   4.759   3.700  0.0163  0.2044  0.9161
23793SOL    HW177984  12.323   4.854   3.693  1.1818  0.4080  2.7498
23793SOL    HW277985  12.411   4.733   3.674 -0.8856 -0.6474 -1.5946
23794SOL     OW77986   1.138  12.093   0.690  0.4458  0.0108  0.5176
23794SOL    HW177987   1.110  12.155   0.623 -0.1355 -0.5002  0.2742
23794SOL    HW277988   1.231  12.078   0.672 -0.1534 -1.7744 -1.5769
23795SOL     OW77989   7.437   1.229   5.215  0.2771  0.2902 -0.0444
23795SOL    HW177990   7.454   1.185   5.131 -2.0625  1.5007 -1.2330
23795SOL    HW277991   7.432   1.157   5.278  0.9694 -0.7545 -1.1256
23796SOL     OW77992   9.309  10.031   8.380  0.2613 -0.5368 -0.5987
23796SOL    HW177993   9.229  10.004   8.423  0.3600 -2.0587 -1.3133
23796SOL    HW277994   9.282  10.052   8.290  0.8000 -2.0327 -1.1281
23797SOL     OW77995  11.165  11.451  10.929 -0.1510 -0.0852  0.3036
23797SOL    HW177996  11.258  11.429  10.934  0.1058  1.1397  1.4036
23797SOL    HW277997  11.163  11.533  10.879 -0.5637  0.2864  0.9230
23798SOL     OW77998   1.897   2.427   7.837  0.2360  0.0447  0.3499
23798SOL    HW177999   1.843   2.502   7.814  0.0402 -0.5253 -1.1811
23798SOL    HW278000   1.978   2.465   7.871  0.1075  0.9478 -0.3153
23799SOL     OW78001   0.790   5.313   8.906  0.0855 -0.4827  0.1802
23799SOL    HW178002   0.733   5.279   8.836 -0.8490  0.1536  0.6047
23799SOL    HW278003   0.729   5.337   8.976  0.7220  1.6212  0.0753
23800SOL     OW78004   7.119   7.908   0.768 -0.1880  0.5788 -0.7502
23800SOL    HW178005   7.214   7.901   0.759  0.1288  1.3751  1.2642
23800SOL    HW278006   7.097   7.843   0.835 -1.0170  0.6378 -0.9575
23801SOL     OW78007   4.434   7.653   7.005  0.6630 -0.0268 -0.2296
23801SOL    HW178008   4.510   7.637   6.950  1.1624 -3.7011  1.2867
23801SOL    HW278009   4.380   7.575   6.995 -0.8030  0.6098  2.0174
23802SOL     OW78010   0.051   9.873   3.911 -0.3378  0.3469 -0.0132
23802SOL    HW178011  -0.007   9.894   3.838  0.2369  0.7279 -0.3642
23802SOL    HW278012   0.079   9.783   3.895  1.3303  1.0511 -1.3387
23803SOL     OW78013   9.489   9.828  11.381  0.3789 -0.9446  0.2838
23803SOL    HW178014   9.525   9.853  11.296 -0.8101  0.4577  0.1557
23803SOL    HW278015   9.484   9.911  11.430 -1.5782 -1.2543  0.6790
23804SOL     OW78016   7.777  10.896  10.853  0.6318 -0.0981  0.2608
23804SOL    HW178017   7.697  10.946  10.870  1.0226  0.3691  0.7864
23804SOL    HW278018   7.841  10.962  10.824  0.6956 -0.5337 -0.6118
23805SOL     OW78019   5.637   9.924  11.135  0.0449 -0.5356 -0.2098
23805SOL    HW178020   5.618   9.837  11.170 -0.3830 -0.4044 -0.1087
23805SOL    HW278021   5.689   9.907  11.056 -0.2090 -0.8876 -0.3023
23806SOL     OW78022   4.463   8.438   3.258  0.3040 -0.3680 -0.2551
23806SOL    HW178023   4.490   8.398   3.341 -0.4480  0.7240  0.5593
23806SOL    HW278024   4.542   8.479   3.224  1.4452 -3.5709 -1.8124
23807SOL     OW78025  10.933   3.027  12.772 -0.5757  0.7099  0.5141
23807SOL    HW178026  10.930   3.026  12.868 -1.6926  0.1736  0.4763
23807SOL    HW278027  10.983   2.949  12.748  0.1971  1.1426  0.6564
23808SOL     OW78028  11.654   7.167  10.302 -0.0817 -0.1367  0.5428
23808SOL    HW178029  11.595   7.132  10.235  0.3431  0.0813  0.0430
23808SOL    HW278030  11.620   7.255  10.320  0.2266  0.0805  0.0786
23809SOL     OW78031  11.750  10.329   9.391 -0.0736  0.1479 -0.1653
23809SOL    HW178032  11.804  10.377   9.328  0.5701  0.0527  0.3073
23809SOL    HW278033  11.781  10.357   9.477  0.0026 -0.7673  0.1201
23810SOL     OW78034   3.491   0.006   8.940 -0.1668  0.7880 -0.1463
23810SOL    HW178035   3.569   0.055   8.914 -0.0884  1.0679  0.6093
23810SOL    HW278036   3.514  -0.031   9.025  0.0048 -1.0523 -0.9368
23811SOL     OW78037   0.909  11.003   6.663  0.1350  0.4467 -0.0696
23811SOL    HW178038   0.917  11.088   6.620 -1.6254  0.6017 -0.1504
23811SOL    HW278039   0.873  10.946   6.596 -1.1321  0.2913  0.7198
23812SOL     OW78040   7.413   7.189   5.349 -0.5775  0.2415  0.0204
23812SOL    HW178041   7.329   7.152   5.324  0.2668 -1.2888 -0.7012
23812SOL    HW278042   7.464   7.114   5.379  1.1117  0.8329 -1.1936
23813SOL     OW78043   1.293   4.441   7.177  0.2281 -0.4201  0.4076
23813SOL    HW178044   1.243   4.399   7.247  1.2519 -0.8226  0.9170
23813SOL    HW278045   1.293   4.534   7.200  0.7806 -0.5810  1.1061
23814SOL     OW78046   8.623   6.801   7.907 -0.3947  0.1052 -0.4041
23814SOL    HW178047   8.655   6.732   7.848  0.1377 -0.2840  0.3284
23814SOL    HW278048   8.682   6.798   7.982 -2.0605 -0.5162  0.9291
23815SOL     OW78049   9.322   1.643  12.217 -0.4488  0.6867 -0.2100
23815SOL    HW178050   9.302   1.654  12.124 -0.1411  1.5259 -0.1923
23815SOL    HW278051   9.354   1.729  12.245  1.2268 -0.0298  0.2343
23816SOL     OW78052   6.355   8.430   0.188  0.2707 -0.3801 -0.5296
23816SOL    HW178053   6.303   8.507   0.163  1.9212  0.6359 -0.9309
23816SOL    HW278054   6.354   8.374   0.111  0.7941  0.2115 -0.9721
23817SOL     OW78055   7.033   2.551   5.101  0.1194  0.0490  0.1547
23817SOL    HW178056   7.045   2.474   5.046  1.0924  0.5976 -0.4378
23817SOL    HW278057   7.024   2.516   5.189  0.8701 -0.7357 -0.0653
23818SOL     OW78058  10.693   7.437   2.303 -0.1931 -0.2568  0.6916
23818SOL    HW178059  10.686   7.374   2.231 -0.2580  0.9973 -0.4362
23818SOL    HW278060  10.787   7.437   2.325  0.3600  1.3342 -1.3035
23819SOL     OW78061   2.739   8.893   8.687 -0.0334  0.6070  0.1029
23819SOL    HW178062   2.683   8.844   8.628  0.2481  0.6608 -0.2091
23819SOL    HW278063   2.688   8.899   8.768 -0.5879  0.8840 -0.2587
23820SOL     OW78064   4.274  11.570   2.440 -0.1293  0.4531  0.0773
23820SOL    HW178065   4.344  11.540   2.499  1.6185  0.6663 -1.7656
23820SOL    HW278066   4.206  11.502   2.447 -0.2985  0.7970  2.7472
23821SOL     OW78067   3.283   7.553  10.155 -0.4278 -0.5310 -0.4294
23821SOL    HW178068   3.191   7.578  10.157 -0.6619 -1.3793  0.4103
23821SOL    HW278069   3.330   7.632  10.130 -1.3332  0.0882 -0.1907
23822SOL     OW78070   5.658  12.358   1.925 -0.6335  0.3901 -0.5013
23822SOL    HW178071   5.562  12.363   1.926 -0.6046  0.9472  0.4091
23822SOL    HW278072   5.684  12.412   1.852 -0.9508  1.8305  0.4158
23823SOL     OW78073   2.943   9.964   8.574 -0.3409  0.2380 -0.2956
23823SOL    HW178074   3.025   9.919   8.554 -1.1915 -1.3308 -0.4162
23823SOL    HW278075   2.876   9.896   8.566 -1.3872  0.8631  2.1916
23824SOL     OW78076   6.248   1.818  12.342  0.0326 -0.1160  0.0811
23824SOL    HW178077   6.154   1.837  12.342 -0.6146 -2.8637 -0.3243
23824SOL    HW278078   6.253   1.723  12.349  2.8167 -0.0316  0.2704
23825SOL     OW78079  10.779   1.812   4.753 -0.5347 -0.2928 -0.1651
23825SOL    HW178080  10.686   1.831   4.769 -1.6393 -2.2703 -3.1476
23825SOL    HW278081  10.793   1.727   4.795  0.3844  0.6496  1.4883
23826SOL     OW78082   3.111   5.175   6.302  0.2775  0.0980 -0.8437
23826SOL    HW178083   3.031   5.176   6.353  0.6216 -0.8494 -0.2565
23826SOL    HW278084   3.102   5.101   6.243  1.6106 -1.4281  0.7569
23827SOL     OW78085   1.614   4.378   4.191  0.0132 -0.0516  0.3629
23827SOL    HW178086   1.594   4.393   4.098 -1.1781  1.6479  0.8599
23827SOL    HW278087   1.583   4.289   4.208 -0.5946 -0.0442 -0.6338
23828SOL     OW78088   9.769   0.715   3.419  0.3468 -0.6233  0.5668
23828SOL    HW178089   9.846   0.772   3.426 -0.0228  0.2102 -1.5290
23828SOL    HW278090   9.735   0.710   3.508  0.6855  2.0396  0.9075
23829SOL     OW78091   4.987   0.251  11.821 -0.5549 -0.0527 -0.2642
23829SOL    HW178092   5.041   0.329  11.809  0.1249 -0.6309 -1.0989
23829SOL    HW278093   5.016   0.215  11.904  0.3156 -0.3157 -0.6693
23830SOL     OW78094   4.022  10.020   5.175  0.6027 -0.4490  0.3536
23830SOL    HW178095   4.000  10.113   5.184  0.5939 -0.5593  1.8742
23830SOL    HW278096   4.095  10.018   5.113 -0.7690  0.3427 -1.3425
23831SOL     OW78097   5.228   4.627   0.065 -0.1416 -0.5663  0.1208
23831SOL    HW178098   5.269   4.711   0.045  1.6679 -1.3832  0.2558
23831SOL    HW278099   5.179   4.643   0.146 -0.1400  0.4514 -0.0666
23832SOL     OW78100   7.263   9.524   4.273 -0.1741 -0.5752  0.1148
23832SOL    HW178101   7.358   9.524   4.282 -0.1095 -0.2720 -0.5095
23832SOL    HW278102   7.235   9.604   4.316  0.1995  1.2667 -2.7894
23833SOL     OW78103   7.474   0.299   7.269  0.7488 -0.0988  0.5003
23833SOL    HW178104   7.513   0.289   7.182  0.5565  0.3351  0.3562
23833SOL    HW278105   7.537   0.260   7.329  1.5348  0.8168  0.3034
23834SOL     OW78106   5.726   2.085   0.767 -0.6864 -0.0076 -0.4077
23834SOL    HW178107   5.748   2.013   0.825 -1.4567  0.2792  0.2607
23834SOL    HW278108   5.810   2.123   0.742 -0.3561  0.7909  1.7306
23835SOL     OW78109   6.814  12.283   5.960 -0.6278  0.9552 -0.0245
23835SOL    HW178110   6.904  12.254   5.944 -1.3704 -0.6361 -1.6710
23835SOL    HW278111   6.822  12.377   5.976  1.1491  1.3132 -2.3802
23836SOL     OW78112  10.236   7.870  11.943 -0.4107 -0.5356  0.4516
23836SOL    HW178113  10.168   7.885  11.876  0.5368  0.8423 -0.2549
23836SOL    HW278114  10.315   7.851  11.893  0.3396  0.6151  1.1535
23837SOL     OW78115   0.633   8.841   3.753  0.4486  0.3477  0.3464
23837SOL    HW178116   0.636   8.746   3.746 -3.4474  0.0104  1.2328
23837SOL    HW278117   0.632   8.872   3.663  0.2246 -0.5626  0.0235
23838SOL     OW78118  12.416   8.589   1.073 -0.0983 -0.2442  0.4256
23838SOL    HW178119  12.382   8.677   1.061  2.5309  0.9714  1.2239
23838SOL    HW278120  12.377   8.559   1.155 -3.1930 -1.0783 -1.1547
23839SOL     OW78121   6.451   0.772  12.509 -0.0937  0.5773 -0.0138
23839SOL    HW178122   6.476   0.854  12.552  0.3462  1.0726 -1.1773
23839SOL    HW278123   6.409   0.800  12.428  1.4294 -0.3430 -1.1689
23840SOL     OW78124   5.716   1.755   0.702  0.2821 -0.1124  0.1870
23840SOL    HW178125   5.769   1.826   0.740  0.5432  0.9866 -2.0738
23840SOL    HW278126   5.778   1.705   0.648  0.1291 -2.2230  1.8226
23841SOL     OW78127   3.193   1.217   9.448  0.0486 -0.1126 -0.4435
23841SOL    HW178128   3.202   1.312   9.447 -1.2527  0.0317 -0.1048
23841SOL    HW278129   3.212   1.192   9.539 -0.9490 -0.0092 -0.1913
23842SOL     OW78130   1.363   3.984  10.083  0.2190  0.3879 -0.0806
23842SOL    HW178131   1.385   3.894  10.058 -0.1273  0.4537 -0.6514
23842SOL    HW278132   1.279   3.977  10.128  0.5538  0.3391  0.5349
23843SOL     OW78133   6.103   5.590   6.417 -0.0974  0.2939  0.3200
23843SOL    HW178134   6.172   5.637   6.464 -0.4006 -0.8063  1.9665
23843SOL    HW278135   6.148   5.549   6.343  0.3845  2.1132 -0.4348
23844SOL     OW78136   9.798   5.459   7.113  0.0355  0.5502 -0.0245
23844SOL    HW178137   9.729   5.458   7.046 -1.2400  0.2539  1.2324
23844SOL    HW278138   9.853   5.533   7.089 -1.8481  2.0360 -0.0086
23845SOL     OW78139   3.251   7.237   0.128  0.3401  0.3445 -0.4054
23845SOL    HW178140   3.244   7.198   0.216  0.1166  1.6139  0.1607
23845SOL    HW278141   3.345   7.245   0.113  0.4086  2.2420  0.7266
23846SOL     OW78142  12.046   2.123   2.446  0.0034  0.1139  0.1898
23846SOL    HW178143  12.037   2.187   2.375  0.5756  0.4980  0.4598
23846SOL    HW278144  11.990   2.158   2.516  2.7893  2.1348  1.6043
23847SOL     OW78145   4.766  10.853   4.023  0.0730  0.2288 -0.5954
23847SOL    HW178146   4.754  10.787   4.092  2.3200 -1.3783 -1.6211
23847SOL    HW278147   4.845  10.900   4.047  0.0574  0.6398 -1.3059
23848SOL     OW78148   5.342   8.844   9.075  0.4358 -0.6845  0.4139
23848SOL    HW178149   5.258   8.862   9.034  1.2018 -0.0805 -0.9606
23848SOL    HW278150   5.346   8.904   9.149 -0.3283 -0.7103  0.4846
23849SOL     OW78151  10.555  11.755   0.601  0.7096 -0.6670 -0.1880
23849SOL    HW178152  10.543  11.848   0.583  0.2494 -0.0179  2.8194
23849SOL    HW278153  10.485  11.711   0.552 -0.5793  0.8492  0.2054
23850SOL     OW78154  11.320   5.641   1.454 -0.3441 -0.3264 -0.8942
23850SOL    HW178155  11.360   5.600   1.378  1.1758  0.1906 -0.3985
23850SOL    HW278156  11.378   5.620   1.527 -1.9744 -1.1409  0.2296
23851SOL     OW78157  10.945  10.183   6.538 -0.5415  0.1925  0.1712
23851SOL    HW178158  10.926  10.108   6.595 -0.3440  0.1856  0.2268
23851SOL    HW278159  11.013  10.231   6.584 -0.8741  0.5674  0.2789
23852SOL     OW78160   0.520   8.658   9.918  0.0052  0.3026 -0.4967
23852SOL    HW178161   0.592   8.720   9.926 -0.8111  1.3766 -1.3103
23852SOL    HW278162   0.512   8.642   9.824 -0.2083 -0.5566 -0.3398
23853SOL     OW78163   8.924  12.202  10.264 -0.0040  0.8571 -0.2179
23853SOL    HW178164   8.858  12.219  10.331 -1.7582  0.8277 -1.8350
23853SOL    HW278165   8.919  12.107  10.250 -0.0572  0.9382 -0.7695
23854SOL     OW78166   4.325   1.423   0.898  0.3462 -0.0559 -0.1725
23854SOL    HW178167   4.341   1.490   0.965  0.4481 -0.9408  0.7242
23854SOL    HW278168   4.396   1.360   0.910 -0.4930 -1.0130 -0.0849
23855SOL     OW78169   4.332   9.514   7.155 -0.0223  0.1381  0.2336
23855SOL    HW178170   4.244   9.504   7.120  0.1463 -1.7539  0.2412
23855SOL    HW278171   4.346   9.608   7.160 -0.9699  0.5106 -2.4881
23856SOL     OW78172   7.422   2.398   5.987  0.1179  0.2580 -0.3665
23856SOL    HW178173   7.389   2.437   5.905 -0.7410 -1.0967 -0.6912
23856SOL    HW278174   7.396   2.306   5.982  0.6105  0.0129  1.1550
23857SOL     OW78175   5.086  11.962   2.730 -0.4813  0.4243  0.0155
23857SOL    HW178176   5.116  11.954   2.639  0.2729  1.2559  0.1752
23857SOL    HW278177   4.993  11.940   2.726 -0.1176 -1.1162 -0.6833
23858SOL     OW78178   0.064   7.768   6.367  0.2364  0.3427 -0.3879
23858SOL    HW178179   0.122   7.725   6.428  1.5105  0.9035 -1.1658
23858SOL    HW278180  -0.012   7.793   6.420 -0.4095 -2.4362  0.1652
23859SOL     OW78181   2.419   0.541  11.171  0.2722 -0.0739 -0.2865
23859SOL    HW178182   2.438   0.609  11.107 -0.4899 -0.2634 -0.7324
23859SOL    HW278183   2.324   0.545  11.184  0.3751 -0.2447  0.6032
23860SOL     OW78184   2.846   9.760  10.831  0.0825 -0.1807 -0.1078
23860SOL    HW178185   2.831   9.676  10.788 -0.6164 -0.0284 -0.1750
23860SOL    HW278186   2.940   9.762  10.849 -0.0938 -1.5506  1.1153
23861SOL     OW78187   1.113  11.158  11.368  0.8122  0.3657  0.6114
23861SOL    HW178188   1.132  11.157  11.274  1.4538  0.0899  0.7360
23861SOL    HW278189   1.019  11.171  11.373  0.8880  1.2746 -0.0530
23862SOL     OW78190   8.074  10.074   9.751 -0.0740 -0.3163  0.5140
23862SOL    HW178191   8.107  10.008   9.811  2.0467 -0.3328 -0.5943
23862SOL    HW278192   8.140  10.143   9.752 -0.5237  0.1870 -0.9646
23863SOL     OW78193   6.755   4.024   9.627 -0.5806 -0.0046 -0.1111
23863SOL    HW178194   6.789   3.982   9.547 -1.4702 -0.3228 -0.3295
23863SOL    HW278195   6.814   4.098   9.642  0.3913 -0.7073 -0.3190
23864SOL     OW78196  12.382  10.248   5.897  0.1276  0.6388  0.2290
23864SOL    HW178197  12.463  10.202   5.919  0.8565  1.5423 -0.4378
23864SOL    HW278198  12.348  10.202   5.820 -0.3601 -0.1511  0.9051
23865SOL     OW78199   1.277   9.342   6.250 -0.1723 -0.0222  0.2623
23865SOL    HW178200   1.210   9.397   6.208 -1.6172 -0.3554  2.0141
23865SOL    HW278201   1.308   9.394   6.324  1.2984 -0.0196 -0.3297
23866SOL     OW78202   4.727  11.642   0.346  0.1649 -0.0035 -0.0819
23866SOL    HW178203   4.799  11.579   0.355 -0.6091 -0.6932  1.8225
23866SOL    HW278204   4.648  11.588   0.352 -0.5255  0.9176 -0.6510
23867SOL     OW78205  12.325   1.329  10.561  0.7950 -0.3361  0.1396
23867SOL    HW178206  12.262   1.339  10.490  1.9948  0.8042 -0.8133
23867SOL    HW278207  12.391   1.270  10.526  1.2662  0.0323  0.3930
23868SOL     OW78208   3.375   6.277   0.939 -0.1218 -0.2016 -0.4746
23868SOL    HW178209   3.344   6.188   0.952  2.7192 -0.9855  1.9270
23868SOL    HW278210   3.467   6.268   0.916 -0.0258  2.1238 -1.3297
23869SOL     OW78211  10.230  11.852   6.046 -0.6440  0.2292  0.0223
23869SOL    HW178212  10.202  11.788   5.980 -2.3986  1.6716 -0.7079
23869SOL    HW278213  10.313  11.886   6.013 -0.8270 -0.0429 -0.7412
23870SOL     OW78214   6.799   1.512   7.295  0.1119 -0.7755 -0.5157
23870SOL    HW178215   6.864   1.459   7.249  0.8304  0.4739 -1.0194
23870SOL    HW278216   6.730   1.526   7.231  0.8658  0.5262 -1.0855
23871SOL     OW78217   1.998  10.226   6.085 -0.2323 -0.0219  0.3718
23871SOL    HW178218   2.053  10.273   6.023  0.5783  0.3665  1.3562
23871SOL    HW278219   2.006  10.134   6.059 -0.9766  0.2501 -0.9042
23872SOL     OW78220   7.273   1.508   3.910 -0.1826 -0.3056  0.1642
23872SOL    HW178221   7.245   1.567   3.839  0.2716 -0.0184  0.2165
23872SOL    HW278222   7.256   1.557   3.990 -0.0418 -0.3479  0.2200
23873SOL     OW78223   7.968   9.193   3.449  0.9145 -0.6720 -0.0043
23873SOL    HW178224   7.986   9.269   3.503  0.1071  0.2094 -0.9439
23873SOL    HW278225   7.881   9.209   3.412  0.8440 -1.9164 -0.4405
23874SOL     OW78226   7.709   8.891   5.831 -0.1850  0.4604 -0.2484
23874SOL    HW178227   7.744   8.920   5.915 -1.3842 -1.2518  0.9219
23874SOL    HW278228   7.761   8.814   5.808 -1.1544 -0.2835 -0.0285
23875SOL     OW78229  10.568  11.400   6.047 -0.4223 -0.8110  0.2534
23875SOL    HW178230  10.657  11.368   6.064 -0.0050  1.3935  3.0888
23875SOL    HW278231  10.579  11.494   6.035 -2.4880 -0.1184  2.8196
23876SOL     OW78232   0.933  10.639  10.397  0.0517 -0.0707  0.0364
23876SOL    HW178233   0.988  10.657  10.320  0.5874 -3.8514 -0.6715
23876SOL    HW278234   0.929  10.723  10.444  0.8487  2.0698 -3.3429
23877SOL     OW78235   4.997   1.492   1.092 -0.2812 -0.1282  0.2320
23877SOL    HW178236   4.928   1.460   1.151  0.3933  0.0733  1.1580
23877SOL    HW278237   5.042   1.560   1.142 -0.4166  0.8788 -0.9666
23878SOL     OW78238   2.954   0.763   8.629  0.5309  0.4281 -0.1650
23878SOL    HW178239   3.017   0.813   8.681  1.2492 -2.1307  1.5950
23878SOL    HW278240   2.959   0.674   8.664 -0.4964 -0.9880 -3.2576
23879SOL     OW78241   2.862   0.791   1.677  0.1144  0.1309  0.3278
23879SOL    HW178242   2.910   0.869   1.706  0.5034 -0.4989  1.4358
23879SOL    HW278243   2.770   0.817   1.682  0.2419  0.5425  0.6366
23880SOL     OW78244   5.879   4.468   4.278 -0.1504  0.7458 -0.5937
23880SOL    HW178245   5.819   4.439   4.208 -0.1783 -0.5347 -0.0699
23880SOL    HW278246   5.965   4.467   4.237 -0.2340  0.5202 -0.7703
23881SOL     OW78247   5.082   5.535   7.025  0.1340 -0.1672  0.1450
23881SOL    HW178248   5.112   5.552   7.115  0.1672  0.8520 -0.0525
23881SOL    HW278249   5.056   5.620   6.992  0.1430 -0.5358 -0.8328
23882SOL     OW78250   0.709   8.291   5.425  0.2165  0.7533 -0.2366
23882SOL    HW178251   0.633   8.349   5.416 -0.5029 -0.4150 -2.3664
23882SOL    HW278252   0.780   8.349   5.452 -1.4952  1.8010  2.3628
23883SOL     OW78253   0.397   7.944   4.328  0.7723 -0.4666 -0.0219
23883SOL    HW178254   0.360   8.005   4.264  1.0915  0.1754  0.3965
23883SOL    HW278255   0.373   7.858   4.295 -0.6211 -0.0952 -0.0673
23884SOL     OW78256  12.443   6.192  11.346 -0.4230 -0.1560  0.3371
23884SOL    HW178257  12.430   6.097  11.344 -1.2038 -0.1281  2.1380
23884SOL    HW278258  12.538   6.203  11.352 -0.1068 -0.6968 -2.3784
23885SOL     OW78259  12.214   3.753   6.103 -0.2625  0.0815 -0.1446
23885SOL    HW178260  12.186   3.689   6.168 -0.1487  0.6917  0.5197
23885SOL    HW278261  12.156   3.739   6.029  0.4100 -1.4553 -0.4065
23886SOL     OW78262   8.401  11.327   8.992  0.2200 -0.0957  0.0141
23886SOL    HW178263   8.481  11.341   8.942  0.4230  2.1774  0.8928
23886SOL    HW278264   8.411  11.239   9.028  1.8480 -0.2470 -0.7162
23887SOL     OW78265   0.655   4.216   9.499 -0.1758  0.4542 -0.6916
23887SOL    HW178266   0.686   4.268   9.573  0.3450  1.2089 -1.4288
23887SOL    HW278267   0.563   4.239   9.491 -0.4201 -0.1605  0.1430
23888SOL     OW78268  11.284   5.432   0.239 -0.8568  0.1809  0.4428
23888SOL    HW178269  11.288   5.486   0.318 -0.6908 -1.1385  1.3696
23888SOL    HW278270  11.251   5.348   0.269 -0.3259 -0.5125 -0.8194
23889SOL     OW78271   7.931   0.905   8.034  0.0873 -0.0914  0.1425
23889SOL    HW178272   7.843   0.939   8.052 -0.1562  0.1377 -1.3510
23889SOL    HW278273   7.917   0.813   8.014  0.1960 -0.0820  0.0237
23890SOL     OW78274  11.090   6.421   0.156  0.6582 -0.2660 -0.7783
23890SOL    HW178275  11.021   6.383   0.210  0.2483  1.6440  0.1594
23890SOL    HW278276  11.046   6.444   0.074  0.4254 -0.0215 -0.5876
23891SOL     OW78277   5.229   9.094   6.552  0.6661  0.5103 -0.3365
23891SOL    HW178278   5.154   9.060   6.503  0.3127  0.8970 -0.0711
23891SOL    HW278279   5.243   9.182   6.516 -0.0268  1.0631  0.7164
23892SOL     OW78280  12.589   9.709   8.560 -0.1286 -0.5133  0.2577
23892SOL    HW178281  12.665   9.701   8.617 -0.3157  2.3354  1.0690
23892SOL    HW278282  12.617   9.672   8.476  2.0734  0.1843  0.6260
23893SOL     OW78283   4.377   0.172   5.353  0.7152  0.2587 -0.5618
23893SOL    HW178284   4.417   0.253   5.323  1.0661 -0.1658 -1.2714
23893SOL    HW278285   4.291   0.169   5.311  1.3280 -0.4853 -1.8374
23894SOL     OW78286   7.897  12.331   8.557  0.9816  0.6539  0.3247
23894SOL    HW178287   7.857  12.325   8.644  3.4674 -0.7390  1.4665
23894SOL    HW278288   7.892  12.243   8.522  0.8283  1.0187 -0.5973
23895SOL     OW78289   9.024  12.306   1.037  0.0771  0.1241  0.1927
23895SOL    HW178290   8.938  12.317   0.995  1.0548  1.2739 -1.6423
23895SOL    HW278291   9.082  12.365   0.988  2.1972 -1.5246  0.5909
23896SOL     OW78292   5.397   2.513   9.209 -0.6415  0.1854  0.2205
23896SOL    HW178293   5.311   2.552   9.195 -1.0931 -0.5961  0.7563
23896SOL    HW278294   5.385   2.453   9.283  0.0767 -0.8162 -0.4495
23897SOL     OW78295   2.829   6.509   1.175  0.5509 -0.2606  0.4403
23897SOL    HW178296   2.871   6.424   1.186  0.2542 -0.4341  0.2508
23897SOL    HW278297   2.819   6.520   1.081  1.6019  0.4918  0.4041
23898SOL     OW78298  10.189   6.778  11.539 -0.2228 -0.5168 -0.4018
23898SOL    HW178299  10.164   6.799  11.449  0.4208  0.1142 -0.4461
23898SOL    HW278300  10.106   6.776  11.587 -0.3862  2.3711 -0.3620
23899SOL     OW78301   4.528   7.225   7.623  0.2722  0.2231 -0.5634
23899SOL    HW178302   4.601   7.173   7.590  0.5269  0.4385 -0.3480
23899SOL    HW278303   4.455   7.205   7.564  0.3000 -0.5463 -0.3481
23900SOL     OW78304   9.537   0.344   7.884  0.2963  0.6259 -0.0569
23900SOL    HW178305   9.537   0.257   7.923 -0.1247  0.4159 -0.5069
23900SOL    HW278306   9.614   0.387   7.920  0.0600  0.3506  0.7885
23901SOL     OW78307  12.533   2.160  10.177  0.0379  0.3039  0.7113
23901SOL    HW178308  12.565   2.151  10.088  0.7345  0.0698  0.9773
23901SOL    HW278309  12.438   2.167  10.168  0.1559  1.1791 -0.1144
23902SOL     OW78310  12.300   3.789   8.759 -0.4826  0.4388  0.2388
23902SOL    HW178311  12.291   3.823   8.670  0.2117 -0.6055 -0.2438
23902SOL    HW278312  12.356   3.853   8.804 -2.7008  2.2244  0.6571
23903SOL     OW78313   4.926   8.157   2.993 -0.1398 -0.1826  0.0237
23903SOL    HW178314   5.009   8.204   2.997 -0.4165  0.7220 -2.6565
23903SOL    HW278315   4.874   8.192   3.065 -0.0256  3.0863 -1.3437
23904SOL     OW78316   2.279   8.247   1.131 -0.4161 -0.2822  0.1283
23904SOL    HW178317   2.232   8.188   1.072  0.2311  0.3972 -1.0956
23904SOL    HW278318   2.363   8.263   1.088 -0.5912  1.5774  0.3781
23905SOL     OW78319   5.752   1.267   2.935 -0.0805  0.0102 -0.0389
23905SOL    HW178320   5.701   1.274   2.855 -1.1257 -2.9057  0.2789
23905SOL    HW278321   5.688   1.245   3.003  1.0178  0.7221  1.2766
23906SOL     OW78322   0.633   8.751  10.281 -0.3823  0.0352  0.9156
23906SOL    HW178323   0.558   8.777  10.227 -0.1863 -0.3208  0.4650
23906SOL    HW278324   0.627   8.656  10.286  0.2568 -0.0283  0.5592
23907SOL     OW78325  10.609   1.941   0.590 -1.0480  0.3181  0.0883
23907SOL    HW178326  10.689   1.896   0.616 -0.7040  0.9227  0.1038
23907SOL    HW278327  10.581   1.897   0.509 -0.6186  0.2020  0.0033
23908SOL     OW78328  12.096  11.211   0.375  0.0239 -0.0442  0.2330
23908SOL    HW178329  12.021  11.267   0.358  0.2691  0.6103  1.2621
23908SOL    HW278330  12.111  11.218   0.469  2.0399  0.7001 -0.1068
23909SOL     OW78331   4.991   4.745   8.377 -0.0329  0.5084 -0.4699
23909SOL    HW178332   5.072   4.762   8.331  0.4852 -2.3370 -0.7781
23909SOL    HW278333   4.925   4.738   8.309 -0.1809  0.8419 -0.3677
23910SOL     OW78334   3.931   4.355   0.521  0.1775  0.2330  0.5584
23910SOL    HW178335   3.963   4.427   0.467  1.4201 -1.5294 -1.1986
23910SOL    HW278336   3.844   4.335   0.486  0.6902 -0.4449 -0.3615
23911SOL     OW78337  11.957   2.907   8.020 -0.3603  0.2236  0.1947
23911SOL    HW178338  12.020   2.944   8.082  0.1087 -0.3860  0.0891
23911SOL    HW278339  11.874   2.907   8.067  0.2069 -1.2831  1.2520
23912SOL     OW78340   5.895   4.691   7.294  0.3650  0.4011 -0.1364
23912SOL    HW178341   5.827   4.625   7.309 -1.2760  1.6275 -1.6665
23912SOL    HW278342   5.923   4.676   7.204  0.4525  1.3669 -0.2780
23913SOL     OW78343   7.379   8.836   2.687  0.1884 -0.0209 -0.1305
23913SOL    HW178344   7.291   8.851   2.651  0.6135 -0.7077 -1.5350
23913SOL    HW278345   7.437   8.888   2.631  0.6500  0.8702  1.1239
23914SOL     OW78346   0.202   6.273  10.763 -0.0857 -0.1066 -0.1645
23914SOL    HW178347   0.225   6.349  10.710  1.3018 -0.7537 -0.5672
23914SOL    HW278348   0.276   6.263  10.823 -0.6015 -0.6959  0.3916
23915SOL     OW78349  10.608   8.574   5.208 -0.2201  0.1410 -0.2574
23915SOL    HW178350  10.629   8.622   5.288 -1.2604  0.8127 -0.3569
23915SOL    HW278351  10.677   8.598   5.146 -0.5393  1.2894 -0.1994
23916SOL     OW78352   2.445  10.547   1.140  0.2796 -0.3134 -0.5851
23916SOL    HW178353   2.420  10.521   1.229  1.0394 -2.1577 -0.8557
23916SOL    HW278354   2.398  10.628   1.125 -1.8420 -1.2254  0.6065
23917SOL     OW78355   7.630   9.195  11.178  0.9347  0.8348  0.0508
23917SOL    HW178356   7.660   9.115  11.134 -1.9919 -0.3365 -0.0378
23917SOL    HW278357   7.677   9.195  11.261  2.4172  0.1008 -0.7338
23918SOL     OW78358   1.497   5.612   2.495  0.2417  0.5582  0.3412
23918SOL    HW178359   1.565   5.556   2.456 -1.6213 -1.3673 -0.3971
23918SOL    HW278360   1.540   5.695   2.511  2.5683 -0.3411 -0.7646
23919SOL     OW78361   4.895   8.182  10.600  0.3325 -0.4545 -0.0334
23919SOL    HW178362   4.929   8.098  10.631  0.9872 -0.0134  0.5063
23919SOL    HW278363   4.800   8.171  10.599  0.4596 -1.7883 -1.7618
23920SOL     OW78364   1.167   6.524   4.310 -0.0909  0.4972 -0.1538
23920SOL    HW178365   1.165   6.431   4.334  0.2206  0.2592 -0.9972
23920SOL    HW278366   1.125   6.569   4.383  0.1481 -0.2645  0.4672
23921SOL     OW78367   7.989   6.954   0.090 -0.8513  0.4916 -0.5384
23921SOL    HW178368   7.966   6.861   0.090  1.1226 -0.0413  0.3790
23921SOL    HW278369   8.085   6.955   0.092 -0.8387  2.5497 -0.1750
23922SOL     OW78370   7.781   2.627   2.619  0.4466  0.1318 -0.4602
23922SOL    HW178371   7.875   2.630   2.607  0.4100 -1.1949 -1.2032
23922SOL    HW278372   7.746   2.690   2.557  0.8017  0.1083 -0.6811
23923SOL     OW78373   4.623   9.076   6.167 -0.4062  0.2867  0.3325
23923SOL    HW178374   4.663   8.989   6.170  1.1738  0.9113 -0.9678
23923SOL    HW278375   4.648   9.116   6.250 -0.5643 -0.2522  0.6477
23924SOL     OW78376   3.606   0.278   2.106  0.1681  0.5671 -0.0045
23924SOL    HW178377   3.599   0.321   2.191 -1.3648 -1.8587  1.2008
23924SOL    HW278378   3.516   0.275   2.073  0.3153 -1.0553 -0.3334
23925SOL     OW78379   0.438   9.511   7.074  0.3105 -0.1587  0.2239
23925SOL    HW178380   0.356   9.559   7.080  0.3675 -0.1660  1.3097
23925SOL    HW278381   0.418   9.435   7.020 -0.1002  0.4266 -0.4578
23926SOL     OW78382  12.130   3.631   0.811  1.0615 -0.7597 -0.2410
23926SOL    HW178383  12.062   3.582   0.765  0.7982  0.2811 -1.0081
23926SOL    HW278384  12.127   3.599   0.901 -0.2009 -0.9830 -0.3507
23927SOL     OW78385  10.887   1.784  11.847 -0.3070  0.4297 -0.8122
23927SOL    HW178386  10.972   1.778  11.891 -0.6482  1.2513 -0.0362
23927SOL    HW278387  10.894   1.863  11.793  0.2662 -0.7779 -2.6470
23928SOL     OW78388   9.487   5.624   3.510  0.6397  0.2135 -0.7121
23928SOL    HW178389   9.467   5.693   3.447  1.8752  0.1864 -1.1546
23928SOL    HW278390   9.513   5.549   3.457  2.8462  0.5538 -0.1888
23929SOL     OW78391  12.116   6.768   1.900 -0.7505 -0.2048 -0.4810
23929SOL    HW178392  12.035   6.786   1.854 -0.2947  3.0992 -0.1794
23929SOL    HW278393  12.140   6.850   1.942  3.2763 -0.6759 -1.3910
23930SOL     OW78394   1.970  11.105   5.822 -0.1557  0.2766  0.1008
23930SOL    HW178395   2.050  11.114   5.770 -0.0989  0.2223  0.1785
23930SOL    HW278396   1.899  11.109   5.758 -0.2193  2.6183  0.2137
23931SOL     OW78397   3.500   2.152   6.417  0.7370 -0.5268 -0.0350
23931SOL    HW178398   3.435   2.136   6.486  1.5630  0.2264  0.9270
23931SOL    HW278399   3.475   2.090   6.348 -2.4404  1.2683 -0.7118
23932SOL     OW78400  12.199  12.547  12.382 -0.1647 -0.0899  0.4385
23932SOL    HW178401  12.131  12.561  12.448 -0.5511 -0.2534  0.0743
23932SOL    HW278402  12.164  12.480  12.324 -0.5850  1.2958 -0.9817
23933SOL     OW78403   5.905   3.011   1.054 -0.6247  0.0889  0.0586
23933SOL    HW178404   5.864   3.046   1.134 -1.8755 -0.8307 -0.1540
23933SOL    HW278405   5.905   3.085   0.993 -1.1050  0.3757  0.3943
23934SOL     OW78406  10.529   1.697  11.313  0.0354  0.7759  0.2673
23934SOL    HW178407  10.571   1.705  11.398  1.3295 -0.5878 -0.1885
23934SOL    HW278408  10.445   1.655  11.331  0.3868  0.3094  0.8565
23935SOL     OW78409   7.809   6.083  11.955  0.1321  0.3755 -0.0028
23935SOL    HW178410   7.874   6.153  11.955  1.2080 -0.5918  0.4544
23935SOL    HW278411   7.793   6.066  11.863  0.9967  0.2041 -0.1269
23936SOL     OW78412   0.093   0.981   0.620 -0.6258  0.6453  0.2611
23936SOL    HW178413   0.064   1.036   0.547  0.9096  0.0921 -0.8120
23936SOL    HW278414   0.148   1.039   0.673 -0.5100  0.6313  0.1546
23937SOL     OW78415  10.049   9.859  12.512 -0.3445  0.0396 -0.9898
23937SOL    HW178416  10.059   9.866  12.417  2.1777  0.8988 -0.7447
23937SOL    HW278417  10.137   9.838  12.544 -1.2256 -0.7483  1.1367
23938SOL     OW78418   6.283  10.497   0.499 -0.2024  0.0345  0.1975
23938SOL    HW178419   6.254  10.408   0.481  0.6958 -0.0966 -0.6608
23938SOL    HW278420   6.202  10.545   0.519 -0.7074 -0.9192  0.5041
23939SOL     OW78421   2.743  10.890   7.433 -0.2973  0.1988  0.0970
23939SOL    HW178422   2.814  10.951   7.414  0.6971 -1.0380 -0.2926
23939SOL    HW278423   2.671  10.919   7.377 -0.3436  1.8331  0.9217
23940SOL     OW78424  11.435   6.156  11.109 -0.1798  0.4335 -0.3483
23940SOL    HW178425  11.485   6.084  11.070  0.1815  0.8181 -0.6006
23940SOL    HW278426  11.377   6.185  11.040 -0.7448  0.0062 -0.0640
23941SOL     OW78427   1.614   1.165   2.212  0.2701  0.2867 -0.6178
23941SOL    HW178428   1.641   1.108   2.140  1.0885 -0.0753 -0.0428
23941SOL    HW278429   1.656   1.249   2.194  2.1915 -0.3725  0.4604
23942SOL     OW78430  11.815   0.737   5.423 -0.3379 -0.0369  0.3652
23942SOL    HW178431  11.735   0.781   5.393  1.9613  2.7030 -2.5124
23942SOL    HW278432  11.829   0.667   5.359 -0.7459 -0.9329  1.2449
23943SOL     OW78433   2.345   2.869   7.055  0.2018 -0.5451 -0.3282
23943SOL    HW178434   2.400   2.791   7.060  0.4752 -0.5659 -2.4256
23943SOL    HW278435   2.406   2.942   7.060 -0.2253 -0.2791  3.7596
23944SOL     OW78436  11.745   9.935   3.947  0.0727 -0.0410 -0.2315
23944SOL    HW178437  11.683   9.918   3.875 -0.0585  1.9863 -0.6481
23944SOL    HW278438  11.722  10.022   3.978 -0.2709 -1.0790  2.7265
23945SOL     OW78439   3.021   9.453   7.637 -0.5957  0.1044 -0.2720
23945SOL    HW178440   3.016   9.548   7.652 -1.6719  0.0716 -0.3827
23945SOL    HW278441   3.109   9.429   7.668 -0.8134  0.9140  1.0770
23946SOL     OW78442  10.216   2.307   2.329  0.4206 -0.1525 -0.0585
23946SOL    HW178443  10.292   2.315   2.272  1.9272 -2.0779  1.5202
23946SOL    HW278444  10.186   2.396   2.343  1.7975  0.5711 -1.4939
23947SOL     OW78445   9.103   3.804   2.279  0.2048  0.7945 -0.2628
23947SOL    HW178446   9.054   3.775   2.356 -0.9062  1.2116 -0.7857
23947SOL    HW278447   9.118   3.897   2.293 -2.0684  1.4373 -1.5541
23948SOL     OW78448   1.092   4.353   3.143 -0.3108  0.5213  0.1854
23948SOL    HW178449   1.067   4.403   3.066  2.3686  0.0836 -1.1066
23948SOL    HW278450   1.154   4.409   3.189  0.8783 -0.6012  0.0124
23949SOL     OW78451   0.962   9.864  10.338 -0.7454  0.1418  0.4806
23949SOL    HW178452   0.987   9.848  10.429 -1.7699 -0.2617  0.7070
23949SOL    HW278453   0.892   9.801  10.320  0.3081 -0.6678 -1.0091
23950SOL     OW78454   4.995   2.480   4.604  0.5345 -0.2976 -0.1801
23950SOL    HW178455   5.074   2.478   4.658  1.3239 -2.1240 -1.3247
23950SOL    HW278456   4.994   2.568   4.565  0.6737  0.5667  1.6874
23951SOL     OW78457   7.109   9.388   5.720 -0.2807  0.0310 -0.4918
23951SOL    HW178458   7.119   9.316   5.783  1.5729  0.0027 -0.7601
23951SOL    HW278459   7.172   9.367   5.650 -1.2774  0.8027 -1.6556
23952SOL     OW78460   5.372   1.607   3.582 -0.5760 -0.1264  0.1240
23952SOL    HW178461   5.294   1.663   3.586 -0.0661  0.6316 -0.3602
23952SOL    HW278462   5.364   1.561   3.499 -2.6886 -3.3486  1.9044
23953SOL     OW78463   0.813   6.495   4.442  0.1594 -0.2944  0.4535
23953SOL    HW178464   0.902   6.510   4.474  0.3668 -0.6503  0.0485
23953SOL    HW278465   0.809   6.544   4.360 -0.1789  0.1253  0.7175
23954SOL     OW78466   4.893   6.607   4.234 -0.4968  0.1232 -0.5092
23954SOL    HW178467   4.866   6.657   4.157 -1.2470  0.8423  0.2150
23954SOL    HW278468   4.900   6.671   4.304 -2.4505 -0.8952  0.6941
23955SOL     OW78469   6.243  12.127   8.746 -0.3128  0.4687 -0.0500
23955SOL    HW178470   6.187  12.072   8.690 -0.2626  1.6062 -1.2820
23955SOL    HW278471   6.303  12.170   8.684  1.1093  0.2352  1.1177
23956SOL     OW78472   1.629   1.214   5.414 -0.3088  0.0868  0.2448
23956SOL    HW178473   1.625   1.298   5.460  1.1497  0.4660 -0.2821
23956SOL    HW278474   1.622   1.238   5.321 -2.0214 -0.5761  0.1655
23957SOL     OW78475   8.266  10.978  11.032  0.2995 -0.1840 -0.1872
23957SOL    HW178476   8.218  10.900  11.002 -0.2530  0.0873 -0.0346
23957SOL    HW278477   8.343  10.982  10.975  0.2542 -0.7552 -0.2997
23958SOL     OW78478   5.702  12.186   8.001 -0.4521  0.5275  0.0915
23958SOL    HW178479   5.783  12.235   7.984 -1.4881  2.6334  0.8336
23958SOL    HW278480   5.649  12.199   7.923 -0.4420 -0.0920 -0.0228
23959SOL     OW78481   8.320   3.992  10.572  0.6116 -0.1172 -0.0380
23959SOL    HW178482   8.246   4.049  10.550  0.5415  0.5376  1.7253
23959SOL    HW278483   8.295   3.906  10.537 -0.3075  0.4225 -0.7608
23960SOL     OW78484   2.790   8.823   5.384 -0.2566 -0.4547 -0.6041
23960SOL    HW178485   2.848   8.747   5.383 -0.0300 -0.3095  0.3541
23960SOL    HW278486   2.847   8.896   5.409 -0.9577 -0.4282  1.0399
23961SOL     OW78487   9.169   9.518  10.706 -0.1334 -0.0168 -0.1881
23961SOL    HW178488   9.074   9.513  10.711 -0.0912 -0.3864  0.3201
23961SOL    HW278489   9.187   9.537  10.614 -0.8150  2.7105  0.1526
23962SOL     OW78490   5.647   3.836   4.432 -0.0946 -0.1645 -0.8559
23962SOL    HW178491   5.702   3.781   4.488  0.9904  1.9334  0.2587
23962SOL    HW278492   5.703   3.856   4.357  0.8035  2.0357  0.3159
23963SOL     OW78493   4.818   2.077   2.657  0.3567 -0.4437 -0.0477
23963SOL    HW178494   4.769   2.007   2.701  1.8641 -0.4357  1.7709
23963SOL    HW278495   4.905   2.073   2.697  0.5296  2.3677  0.0071
23964SOL     OW78496   4.113   0.624   0.386 -0.5452  0.2251  0.0029
23964SOL    HW178497   4.123   0.537   0.424  1.7854  0.1527 -0.6342
23964SOL    HW278498   4.110   0.683   0.461  1.4840 -0.1339  0.4233
23965SOL     OW78499   9.609   1.572   4.078  0.2902  0.4467 -0.0897
23965SOL    HW178500   9.522   1.602   4.104 -0.1207 -0.6548 -0.1296
23965SOL    HW278501   9.602   1.477   4.077  2.0760  0.1993  1.9700
23966SOL     OW78502  12.337   3.582  11.966  0.2751 -0.0549  0.5711
23966SOL    HW178503  12.264   3.626  11.921 -0.9225 -0.1917  2.2677
23966SOL    HW278504  12.404   3.650  11.975 -0.9281  1.0289  1.7672
23967SOL     OW78505   2.686   5.761   7.523  0.6089  0.5656  0.0667
23967SOL    HW178506   2.642   5.743   7.606 -1.3638  3.8916 -0.0856
23967SOL    HW278507   2.637   5.710   7.458 -0.0391  0.6254  0.5040
23968SOL     OW78508   2.615   9.871   7.001  0.2327 -0.0447  0.0467
23968SOL    HW178509   2.650   9.782   7.000  0.7036  0.1350 -1.8913
23968SOL    HW278510   2.693   9.928   7.003 -0.0490  0.3402  0.3081
23969SOL     OW78511   2.132   3.673  10.950  0.6477  0.1220  0.0005
23969SOL    HW178512   2.184   3.620  10.890  0.5300 -2.2948  1.8376
23969SOL    HW278513   2.053   3.695  10.900  0.7289 -1.4553 -0.9002
23970SOL     OW78514   1.874   9.121   4.689  0.7245  0.3312 -0.4584
23970SOL    HW178515   1.909   9.127   4.600 -1.8824 -2.7265 -1.8689
23970SOL    HW278516   1.824   9.202   4.700  2.5622  1.6161 -0.9564
23971SOL     OW78517   6.877   2.418   2.273  0.0855  0.6180 -0.1180
23971SOL    HW178518   6.968   2.408   2.300  0.1812 -0.3343 -0.7464
23971SOL    HW278519   6.828   2.426   2.355  0.5376 -0.7322  0.3089
23972SOL     OW78520  11.544  12.766   4.469 -0.7000  0.2185 -0.0471
23972SOL    HW178521  11.513  12.709   4.539  2.0848 -0.6467  0.6338
23972SOL    HW278522  11.593  12.834   4.514  0.8340 -0.1363 -1.0901
23973SOL     OW78523   4.038   4.374   2.906 -0.2708 -0.3598 -0.1378
23973SOL    HW178524   4.116   4.426   2.886 -0.7032  0.2651 -0.2382
23973SOL    HW278525   4.072   4.298   2.953  0.4532 -0.3726 -0.6550
23974SOL     OW78526   6.896  11.700   3.674 -0.2860 -0.1655  0.2174
23974SOL    HW178527   6.803  11.715   3.694  0.1533 -0.5686  2.8426
23974SOL    HW278528   6.915  11.763   3.605 -2.0109  1.3626  1.0436
23975SOL     OW78529  10.600   9.320   2.800 -0.0117  0.2333  0.4694
23975SOL    HW178530  10.676   9.262   2.801  1.0433  1.4801 -1.3758
23975SOL    HW278531  10.593   9.349   2.709 -1.7699  1.3704  0.9137
23976SOL     OW78532   8.626   6.065   3.778  0.0964  0.4674 -0.0919
23976SOL    HW178533   8.684   5.989   3.774  0.1007  0.4370  0.5459
23976SOL    HW278534   8.547   6.036   3.732  0.0142  0.0007  0.3363
23977SOL     OW78535   9.062   1.833   0.543 -0.1813  0.5783  0.2797
23977SOL    HW178536   9.045   1.803   0.454 -1.0816  1.3099  0.1902
23977SOL    HW278537   9.102   1.920   0.531 -1.3372  1.1765  0.5819
23978SOL     OW78538   0.443   3.465   0.731  0.0648  0.0238  0.4033
23978SOL    HW178539   0.401   3.394   0.779 -0.8309  0.6729  0.6211
23978SOL    HW278540   0.536   3.458   0.754  0.2817 -2.0587 -0.8823
23979SOL     OW78541   4.754  10.186   4.042 -1.0079 -0.1769 -0.1590
23979SOL    HW178542   4.748  10.254   3.974  0.9095  1.2949  1.0369
23979SOL    HW278543   4.665  10.181   4.078 -1.0179  2.4992  0.3988
23980SOL     OW78544   8.821   0.581   0.475  0.5915  0.0530 -0.3230
23980SOL    HW178545   8.842   0.603   0.566  0.6436 -0.2078 -0.2720
23980SOL    HW278546   8.809   0.486   0.475  0.1110  0.1104 -0.4918
23981SOL     OW78547  11.925   9.385  12.683 -0.1468  0.0293  0.1293
23981SOL    HW178548  11.900   9.476  12.669 -1.0605 -0.2721 -0.3114
23981SOL    HW278549  12.011   9.389  12.723 -0.0168  1.0814 -0.2363
23982SOL     OW78550   8.976   0.952   7.888 -0.1124  0.0314 -0.4058
23982SOL    HW178551   9.061   0.987   7.913 -0.1392  0.2513 -0.6214
23982SOL    HW278552   8.976   0.862   7.922  0.0879  0.1268 -0.1515
23983SOL     OW78553   1.174  12.165  11.399 -0.7728  0.6891 -0.4381
23983SOL    HW178554   1.192  12.089  11.454  0.2145  1.7488  0.7850
23983SOL    HW278555   1.127  12.225  11.457 -1.5939  0.9991 -1.3982
23984SOL     OW78556   4.603   0.168  10.196  0.3980 -0.2569 -0.2597
23984SOL    HW178557   4.516   0.198  10.221  0.5927  2.1102 -2.0381
23984SOL    HW278558   4.660   0.199  10.267  0.2068  1.2684 -0.7315
23985SOL     OW78559   9.304   1.030  11.519 -0.6276 -0.1077  0.1740
23985SOL    HW178560   9.229   0.973  11.538  0.3885 -1.0357  1.5645
23985SOL    HW278561   9.376   0.993  11.570  1.6370 -1.0749 -3.3408
23986SOL     OW78562   5.587  12.274   5.520 -0.7778 -0.5475 -0.2560
23986SOL    HW178563   5.582  12.319   5.605 -0.7717 -0.5200 -0.2704
23986SOL    HW278564   5.641  12.332   5.466 -2.5389  0.5272 -0.9579
23987SOL     OW78565   1.237   2.832   8.825  0.0980 -0.0288 -0.0289
23987SOL    HW178566   1.304   2.874   8.879 -0.3325  0.6060  0.0205
23987SOL    HW278567   1.237   2.881   8.743 -2.7237  2.3810  1.2152
23988SOL     OW78568   1.355   5.103   1.720  0.2760 -0.6592  0.6287
23988SOL    HW178569   1.335   5.066   1.806 -1.3237  2.2582  1.6421
23988SOL    HW278570   1.428   5.162   1.735  0.8097 -1.0514 -0.3214
23989SOL     OW78571   0.266  10.918   1.836  0.1172 -0.1756 -0.5247
23989SOL    HW178572   0.288  10.941   1.746 -0.6192  0.9730 -0.4376
23989SOL    HW278573   0.238  10.827   1.832 -1.3429  0.2727 -1.7413
23990SOL     OW78574   7.146   6.648   4.673 -0.0281  0.3715  0.1922
23990SOL    HW178575   7.077   6.659   4.608 -2.2100  0.5475  2.3722
23990SOL    HW278576   7.225   6.632   4.622 -1.8104 -0.7814 -2.4447
23991SOL     OW78577   7.086  10.242   4.367  0.7051 -0.4805  0.3437
23991SOL    HW178578   7.169  10.194   4.375  0.4750 -0.9717 -0.1948
23991SOL    HW278579   7.026  10.180   4.325  0.0949 -0.0850  0.6217
23992SOL     OW78580   4.325   2.455  10.129  0.5848 -0.2184 -0.0028
23992SOL    HW178581   4.399   2.450  10.190 -0.0951 -0.5357  0.8118
23992SOL    HW278582   4.348   2.527  10.070  1.8724 -0.7639 -0.2142
23993SOL     OW78583   9.105   5.960  12.755  0.2822 -0.1014 -0.3631
23993SOL    HW178584   9.192   5.989  12.780  0.1861 -0.0338 -0.1005
23993SOL    HW278585   9.054   6.041  12.745  0.1499 -0.1548 -0.1378
23994SOL     OW78586   5.149   9.673   3.683 -0.2138  0.7409 -0.6783
23994SOL    HW178587   5.244   9.665   3.688 -0.0571  0.2095 -3.1892
23994SOL    HW278588   5.116   9.586   3.706 -0.0407  0.6327 -0.8392
23995SOL     OW78589   0.773   0.340  12.646 -0.7651 -0.9646  0.1809
23995SOL    HW178590   0.852   0.290  12.628 -0.7788 -0.3697 -1.7430
23995SOL    HW278591   0.800   0.403  12.713  0.5480 -0.4574 -0.7823
23996SOL     OW78592  12.569  10.511   7.336 -0.8772  0.1952  0.4609
23996SOL    HW178593  12.505  10.446   7.367 -1.3954  0.3726 -0.1979
23996SOL    HW278594  12.576  10.494   7.242  1.1220 -0.7435  0.7219
23997SOL     OW78595   9.039   8.220  12.020 -0.4244  0.1575 -0.1454
23997SOL    HW178596   9.029   8.129  12.047 -1.8529  0.0980 -0.7778
23997SOL    HW278597   9.080   8.264  12.095  2.2348 -1.3895 -0.5842
23998SOL     OW78598   1.852   3.931  11.651 -0.2951 -0.7773  0.3117
23998SOL    HW178599   1.929   3.955  11.703 -0.2350 -1.7572  0.7021
23998SOL    HW278600   1.865   3.838  11.630 -1.1058 -0.8140 -0.0681
23999SOL     OW78601   6.487  12.635  11.562 -0.4716 -0.1101 -0.2699
23999SOL    HW178602   6.421  12.629  11.493 -1.3179 -1.8043  0.6305
23999SOL    HW278603   6.441  12.610  11.642  0.0063  3.4647  1.3325
24000SOL     OW78604   4.488   0.358   4.090  0.2338 -0.0944  0.1420
24000SOL    HW178605   4.572   0.328   4.122  0.3071 -0.1649 -0.1083
24000SOL    HW278606   4.501   0.368   3.995 -0.3341 -1.1487 -0.0701
24001SOL     OW78607   1.490   3.784   6.055 -0.5708  0.0322 -0.0479
24001SOL    HW178608   1.517   3.734   5.978  2.0976  1.0055  0.1404
24001SOL    HW278609   1.497   3.722   6.128 -2.6914 -0.7691 -0.4400
24002SOL     OW78610   8.439  11.972   6.864 -0.3041 -0.0282  0.0111
24002SOL    HW178611   8.439  12.017   6.948 -2.1353 -0.6466  0.4047
24002SOL    HW278612   8.422  11.880   6.887 -0.1987 -0.3095 -0.9967
24003SOL     OW78613  11.430   9.066   7.023 -0.5678  0.8908 -0.2496
24003SOL    HW178614  11.464   9.139   7.074 -1.7619 -0.0051  1.9601
24003SOL    HW278615  11.338   9.087   7.009 -0.2024  1.2721 -2.4383
24004SOL     OW78616   4.517   7.914   7.992 -0.1897  0.7444  0.7113
24004SOL    HW178617   4.509   7.903   8.087 -1.3183  0.0933  0.5619
24004SOL    HW278618   4.479   8.000   7.975  0.1830  0.9408  0.8763
24005SOL     OW78619  10.827   5.392   6.985 -0.4408 -0.2265  0.0509
24005SOL    HW178620  10.734   5.379   6.969 -0.5026  1.3876 -1.1576
24005SOL    HW278621  10.831   5.467   7.044  0.0926  0.4655 -0.8286
24006SOL     OW78622  12.462   3.240   0.454 -0.9030  0.0083  0.1134
24006SOL    HW178623  12.399   3.207   0.517 -1.2387 -1.2018 -0.8267
24006SOL    HW278624  12.542   3.253   0.505 -1.3245 -0.4025  0.8954
24007SOL     OW78625   1.106   0.884   1.732  0.2982  0.0091  0.3397
24007SOL    HW178626   1.200   0.864   1.731  0.2953 -0.2945  2.0447
24007SOL    HW278627   1.075   0.843   1.813 -1.4883 -0.6677 -0.6534
24008SOL     OW78628   9.312   4.873   8.476  0.5883  0.3655 -0.8244
24008SOL    HW178629   9.226   4.842   8.503  0.3824  1.3979 -0.2250
24008SOL    HW278630   9.326   4.834   8.390  0.5042 -1.6144  0.0035
24009SOL     OW78631   5.665  12.048   0.417  0.4586  0.1581  0.6047
24009SOL    HW178632   5.721  12.119   0.449 -0.2932  0.9897  0.1181
24009SOL    HW278633   5.703  11.969   0.455  0.7587  0.9064  1.9419
24010SOL     OW78634   5.425  11.519   0.634  0.1201 -0.3057 -0.1140
24010SOL    HW178635   5.378  11.570   0.568  0.5133  1.1810  0.7021
24010SOL    HW278636   5.510  11.502   0.594  0.1008 -0.0455 -0.2686
24011SOL     OW78637   2.695   0.953   5.686  0.4807 -0.1985 -0.0577
24011SOL    HW178638   2.634   0.962   5.760  0.5858  0.3135 -0.0308
24011SOL    HW278639   2.697   1.040   5.646  0.2843 -0.5140 -0.7766
24012SOL     OW78640   6.685   3.328   0.462 -0.3282  0.2085 -0.1297
24012SOL    HW178641   6.599   3.290   0.444 -1.0935  0.9776  1.6338
24012SOL    HW278642   6.677   3.419   0.432 -0.6871  0.7161  1.4260
24013SOL     OW78643  12.292   8.216   7.288  0.3768  1.0740  0.3319
24013SOL    HW178644  12.284   8.167   7.206  0.9504  3.4223 -1.2448
24013SOL    HW278645  12.201   8.238   7.311  0.2849  1.5089 -0.4150
24014SOL     OW78646  10.007   2.722   6.693  0.4146 -0.1742 -0.6227
24014SOL    HW178647   9.964   2.807   6.698 -0.4502 -0.6511  0.4666
24014SOL    HW278648  10.009   2.701   6.600 -1.2046  0.1057 -0.7379
24015SOL     OW78649   8.228  10.444   9.567  0.1277 -0.5645 -0.8042
24015SOL    HW178650   8.160  10.407   9.511 -2.3833  0.7950  1.1102
24015SOL    HW278651   8.238  10.535   9.537  1.9254 -1.0088 -1.7009
24016SOL     OW78652   7.416  10.726   5.395 -0.2542  0.4597  0.2165
24016SOL    HW178653   7.326  10.713   5.364  0.4038 -0.0914 -1.6087
24016SOL    HW278654   7.422  10.820   5.413 -0.7610  0.7759 -1.1622
24017SOL     OW78655  10.359   1.361  10.447  0.4551 -0.4425  0.2147
24017SOL    HW178656  10.338   1.398  10.533  2.4422  0.5931  0.3212
24017SOL    HW278657  10.454   1.350  10.448  0.4622 -0.9469 -1.6486
24018SOL     OW78658   4.866   8.399   6.115  0.3906  0.4757  0.0833
24018SOL    HW178659   4.796   8.396   6.181 -0.3664  2.0024 -0.6066
24018SOL    HW278660   4.832   8.456   6.047  1.9879  0.5492 -0.6879
24019SOL     OW78661   4.849  11.637  10.776 -0.1366 -0.0027 -0.0534
24019SOL    HW178662   4.784  11.672  10.837 -1.1527 -0.3735 -0.9059
24019SOL    HW278663   4.912  11.709  10.765 -1.6317  1.2253 -0.9888
24020SOL     OW78664   1.694   7.323   3.503 -0.0408  0.1615  0.2445
24020SOL    HW178665   1.634   7.252   3.479  0.2357 -0.3453  1.0095
24020SOL    HW278666   1.721   7.360   3.419 -0.6382 -0.2614 -0.1479
24021SOL     OW78667  12.047   2.128   9.856  0.3503  0.2125 -0.1134
24021SOL    HW178668  11.985   2.057   9.869  2.2025 -1.9415 -2.0098
24021SOL    HW278669  12.009   2.180   9.786 -1.2311  1.4778  1.5794
24022SOL     OW78670   1.123   8.258   0.300  0.3323 -0.1060 -0.2038
24022SOL    HW178671   1.203   8.296   0.262  0.6827 -1.2109 -0.6102
24022SOL    HW278672   1.112   8.175   0.254 -0.1291 -0.7441  1.0099
24023SOL     OW78673   0.403   8.713   7.542 -0.4522 -0.4064 -0.5255
24023SOL    HW178674   0.384   8.770   7.617  0.3437  0.8212 -1.2125
24023SOL    HW278675   0.425   8.774   7.471 -0.8107 -1.5507 -1.6574
24024SOL     OW78676   3.054   2.247   3.217 -0.0731 -0.0414  0.0197
24024SOL    HW178677   3.144   2.250   3.184 -0.1862  0.9881 -0.2596
24024SOL    HW278678   3.007   2.194   3.153  0.1553  0.1864 -0.3482
24025SOL     OW78679   8.198   0.896  11.163 -0.5209 -0.1829  0.7168
24025SOL    HW178680   8.121   0.934  11.204 -0.7077  0.0231  0.1765
24025SOL    HW278681   8.268   0.960  11.177 -1.1835  1.1101 -1.5136
24026SOL     OW78682   6.018   2.234   6.176 -0.0715  0.1693  0.3891
24026SOL    HW178683   6.045   2.323   6.196 -0.7161  0.1791  1.3048
24026SOL    HW278684   6.058   2.214   6.092  0.2734  1.2352  0.2937
24027SOL     OW78685   6.007   0.030  11.309 -0.5636  0.1221  0.1879
24027SOL    HW178686   5.942  -0.040  11.310  1.2180 -1.5965 -0.0043
24027SOL    HW278687   5.986   0.081  11.230 -2.3314  0.3059  0.7314
24028SOL     OW78688   9.870   3.019   7.053 -0.6974  0.9667 -0.3906
24028SOL    HW178689   9.813   2.998   7.127  0.1188  2.0365  0.5759
24028SOL    HW278690   9.856   3.113   7.038  1.3722  1.4713  0.4368
24029SOL     OW78691   3.341   1.732   9.180 -0.5144 -0.2080  0.7435
24029SOL    HW178692   3.396   1.655   9.178 -0.4080 -0.2007 -2.5599
24029SOL    HW278693   3.253   1.699   9.200 -0.7299 -1.5104 -1.9113
24030SOL     OW78694   7.216   0.433  12.136 -0.1330 -0.3566  0.1878
24030SOL    HW178695   7.206   0.474  12.222  2.2353 -1.8722  1.2893
24030SOL    HW278696   7.258   0.499  12.082 -0.6478  0.2310  0.4954
24031SOL     OW78697   1.135   0.351  11.089  0.2459  0.1150  0.1336
24031SOL    HW178698   1.087   0.384  11.013 -1.0266  0.2098  0.9509
24031SOL    HW278699   1.090   0.388  11.165  1.5750  0.1434  0.9579
24032SOL     OW78700   0.399  11.732   4.284  0.6297  0.1964 -0.5697
24032SOL    HW178701   0.461  11.753   4.354  0.8825  0.9773 -1.0187
24032SOL    HW278702   0.360  11.816   4.261 -1.8857 -0.4589  0.8722
24033SOL     OW78703  12.617   9.843   4.821 -0.2031  0.4741 -0.2015
24033SOL    HW178704  12.531   9.872   4.852  0.1071  1.5875 -0.3560
24033SOL    HW278705  12.616   9.748   4.834 -1.8630  0.3214 -1.2257
24034SOL     OW78706   4.565   5.533  10.672  0.3081  0.1219  0.0913
24034SOL    HW178707   4.605   5.612  10.635 -0.1460 -0.2011 -1.1151
24034SOL    HW278708   4.561   5.471  10.600  1.9481 -1.5556  1.3535
24035SOL     OW78709   8.563   3.817   3.109 -0.2521 -0.1169  0.0082
24035SOL    HW178710   8.598   3.901   3.137 -3.8415  1.7274 -0.4630
24035SOL    HW278711   8.569   3.761   3.187  1.6930  0.6938  0.4932
24036SOL     OW78712   0.989  11.966  10.541  0.1391  0.4626 -0.0827
24036SOL    HW178713   0.965  11.879  10.510  3.0070 -0.3746 -0.2855
24036SOL    HW278714   1.003  11.955  10.635  3.8274 -0.3466 -0.5441
24037SOL     OW78715   6.623  11.474   5.174 -0.0246  0.4449  0.2197
24037SOL    HW178716   6.646  11.525   5.252  0.3967  0.5893  0.0005
24037SOL    HW278717   6.687  11.500   5.108  0.8776 -1.1358  0.4208
24038SOL     OW78718   7.057   3.925  10.316  0.6092 -0.1044  0.5109
24038SOL    HW178719   7.006   3.977  10.254 -0.1974 -0.7745  0.6011
24038SOL    HW278720   7.137   3.902  10.269 -0.1250 -0.8575 -0.3949
24039SOL     OW78721  12.325   0.568   5.030  0.2596 -0.2208  0.0931
24039SOL    HW178722  12.265   0.502   5.065  0.2692 -0.9112 -1.1114
24039SOL    HW278723  12.389   0.582   5.099  0.4732 -1.7553  0.2473
24040SOL     OW78724  11.735   9.267   5.216 -0.1199  0.0608  0.3121
24040SOL    HW178725  11.762   9.175   5.208  0.9817  0.3652  0.3952
24040SOL    HW278726  11.817   9.315   5.226 -0.6897  1.0631  0.2477
24041SOL     OW78727   6.931  11.106   9.869 -0.1076  0.2914 -0.3240
24041SOL    HW178728   6.924  11.141   9.780  0.3686 -1.7878 -1.2212
24041SOL    HW278729   6.840  11.096   9.898 -0.2697  0.4702 -0.7595
24042SOL     OW78730   7.603  12.696   2.686  0.6421  0.7180 -0.2502
24042SOL    HW178731   7.635  12.608   2.703  0.2292  1.0447  2.7135
24042SOL    HW278732   7.528  12.684   2.627  1.4788 -0.7319 -1.0625
24043SOL     OW78733   8.463  11.734   3.091  0.4119  0.1931  0.9843
24043SOL    HW178734   8.396  11.676   3.126 -2.1295  2.3745  0.1083
24043SOL    HW278735   8.461  11.811   3.148  0.7345  1.1156 -0.1916
24044SOL     OW78736  10.524   6.116   4.710  0.1452 -0.2356  0.1071
24044SOL    HW178737  10.611   6.154   4.717  0.2941 -0.6803  0.7649
24044SOL    HW278738  10.522   6.075   4.623  0.9800 -1.1646  0.5084
24045SOL     OW78739  12.714   8.594   3.952 -0.7117 -0.0487 -0.3020
24045SOL    HW178740  12.697   8.688   3.957 -2.3340 -0.3651  0.8497
24045SOL    HW278741  12.641   8.554   3.998  0.0912 -1.8782 -0.5367
24046SOL     OW78742  10.120   1.995   9.353 -0.7465  0.1089 -0.1741
24046SOL    HW178743  10.180   2.038   9.293  0.7988 -0.7391  0.7043
24046SOL    HW278744  10.114   2.053   9.429 -1.1298  0.2331 -0.2938
24047SOL     OW78745   4.620  12.196  10.709 -0.9662 -0.3987  0.3507
24047SOL    HW178746   4.642  12.161  10.622 -0.3978  2.2130 -0.6517
24047SOL    HW278747   4.690  12.164  10.766  0.6642  0.6579 -0.9567
24048SOL     OW78748   6.842  11.965  10.668 -0.5773  0.6416 -0.0732
24048SOL    HW178749   6.841  11.994  10.759  0.2813 -1.0025  0.5053
24048SOL    HW278750   6.761  11.916  10.657 -0.1726 -0.0954  0.1559
24049SOL     OW78751   1.833  12.665   5.643 -0.4102 -0.0679  0.5155
24049SOL    HW178752   1.831  12.687   5.736 -0.3466  0.9940  0.2779
24049SOL    HW278753   1.921  12.630   5.629 -0.2632  0.1980  0.7619
24050SOL     OW78754   8.382   6.604  12.162  0.3242  0.3636 -0.2217
24050SOL    HW178755   8.367   6.609  12.256  0.0107 -1.5995 -0.1330
24050SOL    HW278756   8.294   6.615  12.123  0.4985  1.5304 -0.3338
24051SOL     OW78757  12.661   0.220  10.468 -0.6211 -0.2156  0.7706
24051SOL    HW178758  12.632   0.220  10.559 -1.2482  0.9234  0.5945
24051SOL    HW278759  12.694   0.132  10.453 -3.9438 -1.6557  1.0122
24052SOL     OW78760   7.225   9.249   2.849  0.0506  0.6050 -0.7267
24052SOL    HW178761   7.225   9.321   2.785 -2.4072  0.6091 -0.8147
24052SOL    HW278762   7.182   9.286   2.926  0.4443 -0.2437 -0.0846
24053SOL     OW78763  12.684  12.118   2.112  0.1645 -0.5125 -0.7164
24053SOL    HW178764  12.722  12.143   2.196  2.1151  0.2484 -1.7490
24053SOL    HW278765  12.606  12.068   2.135 -0.2711  1.0145  1.5134
24054SOL     OW78766   9.504   0.344   6.272  0.6724  0.0765 -0.0708
24054SOL    HW178767   9.483   0.282   6.342 -0.2155 -0.3476 -0.7069
24054SOL    HW278768   9.599   0.338   6.262  0.8143  0.1492  1.0994
24055SOL     OW78769   5.380   1.447   9.951  0.3481  0.2596 -0.2074
24055SOL    HW178770   5.341   1.363   9.927 -0.3039  0.7138 -0.7573
24055SOL    HW278771   5.355   1.506   9.880  1.9942  0.5822 -0.5463
24056SOL     OW78772   0.733   1.514   7.366  0.0490 -0.0722  0.1755
24056SOL    HW178773   0.720   1.601   7.405 -0.2187 -0.0691  0.0821
24056SOL    HW278774   0.769   1.461   7.437 -0.1623  0.0108  0.3452
24057SOL     OW78775   5.881   9.137  12.366 -0.6909  0.4236 -0.1651
24057SOL    HW178776   5.812   9.166  12.426 -1.4964 -1.1160 -0.3143
24057SOL    HW278777   5.907   9.052  12.399  0.3945  0.5137 -0.7581
24058SOL     OW78778   4.047   5.592  12.432  0.4382 -0.9104  0.1545
24058SOL    HW178779   4.056   5.579  12.526 -0.2397 -1.5645  0.1375
24058SOL    HW278780   3.967   5.644  12.423  1.0101 -0.0339 -0.0155
24059SOL     OW78781   6.091  11.925   7.100 -0.1497  0.3148 -0.1216
24059SOL    HW178782   6.129  11.969   7.024 -0.6500 -0.6834 -0.9731
24059SOL    HW278783   6.166  11.886   7.144  0.0959  0.4837 -0.3840
24060SOL     OW78784   3.129   6.470   8.967  0.2939 -0.5364 -0.4900
24060SOL    HW178785   3.125   6.525   9.045 -2.0469  1.2829 -1.7593
24060SOL    HW278786   3.072   6.396   8.986  0.6514 -0.7155 -0.0847
24061SOL     OW78787   2.119   3.860   4.026  0.3872 -0.2867 -0.5075
24061SOL    HW178788   2.108   3.955   4.019  1.2424 -0.2183 -1.0959
24061SOL    HW278789   2.044   3.824   3.978  1.2406  0.1315 -2.2361
24062SOL     OW78790   3.866   4.841  11.485  0.1415 -0.4781  0.5184
24062SOL    HW178791   3.960   4.836  11.468 -0.1102 -1.9636 -0.7017
24062SOL    HW278792   3.830   4.885  11.407 -0.2304 -0.3412  0.7629
24063SOL     OW78793   0.246   8.844  12.631 -0.1128  0.5208  0.1077
24063SOL    HW178794   0.254   8.929  12.587  0.2554  0.8278  0.7432
24063SOL    HW278795   0.189   8.862  12.706  0.5260  0.3676  0.6367
24064SOL     OW78796   9.386   0.960   2.805  0.3412  0.0699  0.6649
24064SOL    HW178797   9.388   0.950   2.900 -1.5076 -0.4579  0.6917
24064SOL    HW278798   9.302   0.922   2.779  0.6680  0.4982 -1.1503
24065SOL     OW78799   0.648   0.517  11.387 -0.5498  0.1861 -0.2265
24065SOL    HW178800   0.580   0.451  11.401  0.3289 -0.8826 -0.8114
24065SOL    HW278801   0.713   0.500  11.454 -1.4844  2.1717  1.3121
24066SOL     OW78802   0.845   3.133   9.529  0.3036 -0.1979 -0.3032
24066SOL    HW178803   0.838   3.227   9.511 -3.7017  0.3317  2.5855
24066SOL    HW278804   0.814   3.091   9.449 -1.1381  1.1658 -0.5043
24067SOL     OW78805   6.548   2.813   3.434 -0.0119 -0.4865  0.0734
24067SOL    HW178806   6.586   2.772   3.356 -0.5990  1.2023 -1.1703
24067SOL    HW278807   6.522   2.900   3.405 -1.1424 -0.1408  1.9258
24068SOL     OW78808   1.972  10.816  12.410 -0.3285 -0.0022 -0.1757
24068SOL    HW178809   2.003  10.849  12.494 -2.7045  2.4287 -0.1466
24068SOL    HW278810   2.015  10.871  12.345 -0.1914 -0.4236 -0.4493
24069SOL     OW78811   2.800   8.489   9.857 -0.4899  0.2628 -0.5638
24069SOL    HW178812   2.737   8.550   9.820 -2.0006 -0.6004  0.5054
24069SOL    HW278813   2.802   8.416   9.795 -1.0976 -0.0351 -0.2369
24070SOL     OW78814   7.731   0.682   1.568 -0.1982  0.4743 -0.2845
24070SOL    HW178815   7.803   0.660   1.508  1.2261 -1.3375  1.9189
24070SOL    HW278816   7.752   0.770   1.599  1.5064 -0.2607  0.7966
24071SOL     OW78817   4.409   9.746   5.775 -0.1678 -0.1235  0.2297
24071SOL    HW178818   4.396   9.655   5.748 -1.2577 -0.1907  0.9020
24071SOL    HW278819   4.488   9.774   5.729 -0.9019 -0.7971 -1.5456
24072SOL     OW78820   2.781   6.548   3.316 -0.5856 -0.2370  0.4202
24072SOL    HW178821   2.712   6.567   3.380 -1.9542 -3.6228  0.1732
24072SOL    HW278822   2.804   6.457   3.333  0.5722 -0.5908 -2.5105
24073SOL     OW78823   6.388   4.834   8.192 -0.4693 -0.1353  0.2741
24073SOL    HW178824   6.354   4.922   8.206 -1.2482  0.0985 -2.4666
24073SOL    HW278825   6.483   4.845   8.195 -0.5523  0.8722 -0.2459
24074SOL     OW78826   7.572   1.437   7.894  0.1528  0.4672  0.1089
24074SOL    HW178827   7.571   1.496   7.819  1.4570  0.7832  0.3090
24074SOL    HW278828   7.632   1.478   7.956  0.7514 -0.8442  0.4379
24075SOL     OW78829   4.792  12.082   2.568 -0.2872  0.1528  0.1120
24075SOL    HW178830   4.742  12.160   2.590 -0.7726  0.0681 -0.6330
24075SOL    HW278831   4.813  12.092   2.475  1.6217  0.4631  0.5552
24076SOL     OW78832   5.779   3.153   6.314  0.1287  0.0760 -0.0634
24076SOL    HW178833   5.778   3.236   6.266  1.5808 -0.4967 -1.1724
24076SOL    HW278834   5.866   3.149   6.353 -0.3215 -0.4313  0.9211
24077SOL     OW78835  10.885  10.466   1.480 -0.2247  0.3483  0.1104
24077SOL    HW178836  10.949  10.536   1.492 -0.0624 -0.1466  2.6095
24077SOL    HW278837  10.805  10.500   1.519 -0.4907 -0.3835  0.2119
24078SOL     OW78838   0.625   6.201   5.700  0.0304 -0.1311 -0.4042
24078SOL    HW178839   0.719   6.192   5.715 -0.0563  0.3820  0.4886
24078SOL    HW278840   0.614   6.179   5.607  0.9488 -0.7413 -0.3821
24079SOL     OW78841   0.160   7.444   0.290  0.1493 -0.3432  0.1190
24079SOL    HW178842   0.199   7.359   0.311  1.4081  0.3381  0.6184
24079SOL    HW278843   0.144   7.440   0.195  2.4366 -0.2759 -0.3138
24080SOL     OW78844   9.167   9.435   6.842  0.7169 -0.1030  0.8582
24080SOL    HW178845   9.155   9.395   6.929 -0.1489 -0.4648  0.5856
24080SOL    HW278846   9.089   9.490   6.830 -0.2458 -1.7042 -0.5654
24081SOL     OW78847   9.065   2.171  10.525  0.9250 -0.0702  0.3786
24081SOL    HW178848   9.126   2.209  10.588 -0.2341 -0.1425  1.5958
24081SOL    HW278849   9.009   2.243  10.498  1.2105 -0.1089 -0.3388
24082SOL     OW78850   5.378   2.340   2.206 -0.2687  0.0538  0.1077
24082SOL    HW178851   5.454   2.383   2.168 -0.0306  0.5557  1.1015
24082SOL    HW278852   5.311   2.345   2.138  0.7572 -0.9447 -1.0076
24083SOL     OW78853   2.132   3.201  10.986  0.0525 -0.0669 -0.8608
24083SOL    HW178854   2.080   3.162  10.916 -0.2876 -0.2365 -0.5214
24083SOL    HW278855   2.092   3.286  11.002 -0.8265 -0.6362  0.1392
24084SOL     OW78856   0.066   4.357   9.966  0.3968  0.3564  0.0066
24084SOL    HW178857   0.117   4.279   9.986  0.7610  0.5188 -0.2771
24084SOL    HW278858  -0.009   4.352  10.025  0.9690  0.3459  0.7559
24085SOL     OW78859  11.686   6.958  12.740  0.4603  0.2048 -0.3481
24085SOL    HW178860  11.697   6.906  12.819 -0.4069  0.9202  0.2615
24085SOL    HW278861  11.748   7.030  12.749 -0.7264  1.1668  0.4612
24086SOL     OW78862  11.962   9.014   0.901  0.3324  0.5207  0.8071
24086SOL    HW178863  11.874   8.993   0.933  0.2490  0.0097  0.2615
24086SOL    HW278864  11.980   9.101   0.936  0.0624  0.1716  1.8404
24087SOL     OW78865   7.203   7.465  10.953 -0.6556  0.2619 -0.4080
24087SOL    HW178866   7.196   7.561  10.948  0.2408  0.2720 -2.9263
24087SOL    HW278867   7.123   7.437  10.998 -1.8544  2.0830 -1.2756
24088SOL     OW78868   9.708   6.317   1.076  0.2583 -0.0550 -0.0781
24088SOL    HW178869   9.721   6.226   1.105  1.5752  0.5737  1.4457
24088SOL    HW278870   9.750   6.321   0.990  0.9112 -0.7060  0.1957
24089SOL     OW78871   4.584   4.977   5.792  0.3727 -0.5825  0.0829
24089SOL    HW178872   4.666   4.935   5.767  0.9638  0.1076  0.8366
24089SOL    HW278873   4.526   4.905   5.817 -0.2606 -1.3575 -3.1182
24090SOL     OW78874  12.228   4.271  10.797  0.1201  0.2978  0.4549
24090SOL    HW178875  12.231   4.228  10.882 -2.1787 -1.5512 -0.3128
24090SOL    HW278876  12.268   4.208  10.736 -1.5074  0.0085 -0.3680
24091SOL     OW78877  11.908   5.050   3.575  0.4019  0.1087 -0.2711
24091SOL    HW178878  11.840   4.986   3.552 -1.3159  1.9013 -0.4361
24091SOL    HW278879  11.926   5.035   3.667 -2.4086  1.4248  0.5943
24092SOL     OW78880   0.720   7.425   6.393  0.1775  0.2909  0.2064
24092SOL    HW178881   0.682   7.340   6.372  0.2971  0.0799  0.8165
24092SOL    HW278882   0.799   7.404   6.443 -1.5582  0.7545  3.4335
24093SOL     OW78883   8.832   0.453   4.764 -0.0397  0.9341  0.1495
24093SOL    HW178884   8.740   0.429   4.773 -1.1035  3.0781 -3.1957
24093SOL    HW278885   8.871   0.381   4.713  0.4011 -0.2771  2.0876
24094SOL     OW78886   3.994  10.185   0.273  0.1618  0.4379 -0.3706
24094SOL    HW178887   4.005  10.277   0.294  1.9128  0.2871 -0.4325
24094SOL    HW278888   4.037  10.139   0.345 -0.3271 -0.3190 -0.5486
24095SOL     OW78889   0.155  10.209   5.063 -0.0534 -0.2878 -0.4647
24095SOL    HW178890   0.068  10.246   5.049 -0.1266 -0.5223 -0.6213
24095SOL    HW278891   0.142  10.114   5.061 -0.0459 -0.3463  1.0162
24096SOL     OW78892   0.866   4.892   7.074  0.1756 -0.7098  0.0612
24096SOL    HW178893   0.839   4.903   7.166  1.0581 -4.1907  0.8850
24096SOL    HW278894   0.823   4.964   7.028 -0.2692  1.2275  3.1641
24097SOL     OW78895   9.641   2.250   2.728  0.2566  0.6546 -0.1004
24097SOL    HW178896   9.625   2.201   2.648 -0.4849 -1.0770  1.0537
24097SOL    HW278897   9.660   2.184   2.794 -0.9048  1.8839  1.5625
24098SOL     OW78898   8.019   1.392  12.628 -0.0616 -0.4572  0.2981
24098SOL    HW178899   7.939   1.422  12.670  1.2222  1.8386  1.2644
24098SOL    HW278900   8.080   1.465  12.636  1.8990 -1.8220 -1.1021
24099SOL     OW78901   8.755   2.925   3.229 -0.0036  0.3229 -0.3168
24099SOL    HW178902   8.680   2.939   3.171  2.0971  0.3665 -3.2306
24099SOL    HW278903   8.796   3.012   3.236  0.4148  0.0806  0.3418
24100SOL     OW78904   7.057  10.557   3.775  0.0663 -0.7872 -0.6084
24100SOL    HW178905   7.076  10.649   3.758  1.0579 -0.6028  1.2178
24100SOL    HW278906   7.141  10.520   3.802 -0.3387 -2.2315 -1.2232
24101SOL     OW78907   0.544  11.223   0.628  0.6255 -0.0004  0.1107
24101SOL    HW178908   0.546  11.144   0.682 -0.1775  0.4218  0.7960
24101SOL    HW278909   0.592  11.288   0.679  0.6288  0.1576 -0.0961
24102SOL     OW78910  12.597   2.719   6.876  0.1902  0.2058 -0.6872
24102SOL    HW178911  12.509   2.688   6.853  0.2914  0.0274 -0.8412
24102SOL    HW278912  12.619   2.671   6.956  0.2652  0.0318 -0.8125
24103SOL     OW78913  12.001   2.475  11.934 -0.3240 -0.2948 -0.4646
24103SOL    HW178914  11.920   2.424  11.941 -0.4346 -0.2230 -1.2273
24103SOL    HW278915  12.017   2.505  12.024 -0.6262 -1.0957 -0.1291
24104SOL     OW78916   3.494  11.070   9.470 -0.4896 -0.2929 -0.6421
24104SOL    HW178917   3.585  11.094   9.452 -1.4993  2.1295 -3.4244
24104SOL    HW278918   3.458  11.147   9.516 -1.3604 -0.8467 -0.3721
24105SOL     OW78919   0.723  12.199   4.208  0.0544  0.5801  0.4441
24105SOL    HW178920   0.815  12.197   4.182 -0.5541  0.8492 -1.9965
24105SOL    HW278921   0.679  12.140   4.146 -1.3927  0.2580  1.7217
24106SOL     OW78922   2.017   2.249   9.303  0.2751 -0.4057  0.3306
24106SOL    HW178923   2.023   2.155   9.285  0.9523 -0.6571  1.7400
24106SOL    HW278924   2.083   2.288   9.246 -1.2516 -0.5305 -1.6451
24107SOL     OW78925  10.998  10.896   2.292 -0.3725  0.1877  0.2170
24107SOL    HW178926  10.933  10.883   2.361  0.6024  1.0297  1.3224
24107SOL    HW278927  11.058  10.961   2.327  0.8933 -0.3201 -0.9182
24108SOL     OW78928   3.524   2.869   3.232  0.1966 -0.7664  0.3496
24108SOL    HW178929   3.484   2.883   3.318 -1.3551 -0.6484 -0.3653
24108SOL    HW278930   3.507   2.776   3.213 -1.0042 -0.3866 -0.5566
24109SOL     OW78931  11.430   4.633   3.087  0.7610 -0.0844  0.3895
24109SOL    HW178932  11.387   4.717   3.076  1.7413  0.5284  1.0038
24109SOL    HW278933  11.494   4.629   3.016  0.2295 -0.6384 -0.0636
24110SOL     OW78934   2.343   3.104   4.247  0.1056  0.5737 -0.3250
24110SOL    HW178935   2.416   3.133   4.192  1.7467 -0.5702  1.1405
24110SOL    HW278936   2.340   3.168   4.318 -1.0839  1.2338 -0.9315
24111SOL     OW78937   2.183  12.596   6.075 -0.2906 -0.1150 -1.0913
24111SOL    HW178938   2.177  12.673   6.019 -0.4902 -0.0072 -0.9227
24111SOL    HW278939   2.269  12.603   6.117  0.2410 -0.6645 -2.0591
24112SOL     OW78940  12.641   8.285   7.891 -0.3365  0.4684 -0.1636
24112SOL    HW178941  12.661   8.193   7.873  0.8895  0.5428  0.6759
24112SOL    HW278942  12.618   8.322   7.806 -0.0910 -0.4434 -0.6368
24113SOL     OW78943  11.726   1.054   3.207  0.5121 -0.0948 -0.1611
24113SOL    HW178944  11.770   1.098   3.279  0.0413 -0.2213  0.2086
24113SOL    HW278945  11.796   1.013   3.157  0.7877 -0.5927  0.6207
24114SOL     OW78946   9.197   5.127   2.096  0.2482 -0.1268 -0.2419
24114SOL    HW178947   9.118   5.074   2.084 -0.5271  1.1744 -1.1748
24114SOL    HW278948   9.170   5.215   2.071  1.8998  0.4257 -0.1679
24115SOL     OW78949   5.183   6.612   9.300  0.0562  0.2321 -0.2065
24115SOL    HW178950   5.178   6.518   9.282 -1.4164 -0.2047  1.9642
24115SOL    HW278951   5.256   6.621   9.361 -0.1280  0.4113 -0.0114
24116SOL     OW78952   1.452   4.050   4.871 -0.2095  0.4409  0.0992
24116SOL    HW178953   1.482   4.008   4.951  2.5075  2.0280  0.0160
24116SOL    HW278954   1.439   3.978   4.809  1.1053 -0.5456  0.9200
24117SOL     OW78955   3.382   4.152   4.412 -0.1559 -0.1182 -0.1759
24117SOL    HW178956   3.391   4.172   4.505  0.5120 -2.3814  0.2968
24117SOL    HW278957   3.288   4.153   4.396 -0.2748  0.2490  0.5202
24118SOL     OW78958   3.509   3.402   4.316 -0.1556  0.0280 -0.1271
24118SOL    HW178959   3.459   3.337   4.266  2.3102  0.0618 -2.8938
24118SOL    HW278960   3.542   3.463   4.251  2.4277  0.7192  1.6636
24119SOL     OW78961   5.527   5.465   7.425 -0.3455 -0.5072  0.4799
24119SOL    HW178962   5.450   5.491   7.476 -1.3021  0.3329 -1.2974
24119SOL    HW278963   5.520   5.370   7.416 -0.3185 -0.6248  1.6300
24120SOL     OW78964   6.532   5.813   9.399  0.6125 -0.7645  0.2891
24120SOL    HW178965   6.485   5.732   9.418  0.7851 -1.3979 -1.7092
24120SOL    HW278966   6.547   5.810   9.305  0.9845  1.4220  0.2271
24121SOL     OW78967   7.812   5.911   9.475 -0.4507 -0.1569  0.5283
24121SOL    HW178968   7.906   5.905   9.489 -0.2991 -1.5808 -0.7708
24121SOL    HW278969   7.803   5.960   9.393 -0.8344  0.0362  0.6833
24122SOL     OW78970  10.330  11.178  11.843 -0.4899 -0.8692 -0.0762
24122SOL    HW178971  10.409  11.207  11.798 -0.1698 -1.0489  0.3674
24122SOL    HW278972  10.339  11.084  11.851 -0.7015 -0.8776  0.0774
24123SOL     OW78973   0.447   6.698  10.654  0.1823 -0.0186  0.4784
24123SOL    HW178974   0.419   6.663  10.739 -1.1079 -1.4699 -0.5017
24123SOL    HW278975   0.367   6.730  10.613  0.3299 -1.5432 -1.1551
24124SOL     OW78976   3.223  10.484   3.249  0.7730 -0.5706 -0.0372
24124SOL    HW178977   3.151  10.545   3.230  0.3766 -1.0014  0.0642
24124SOL    HW278978   3.293  10.540   3.283  0.9867  0.0374 -1.3986
24125SOL     OW78979   3.035  11.347   5.585  0.4257 -0.9052 -0.0679
24125SOL    HW178980   3.013  11.296   5.507  0.7867  1.8433 -2.1459
24125SOL    HW278981   3.129  11.334   5.597  0.1219 -2.4465  0.8350
24126SOL     OW78982   4.313   2.712  12.422 -0.3350 -0.2533  0.2884
24126SOL    HW178983   4.261   2.721  12.343 -0.2922 -0.7492  0.2018
24126SOL    HW278984   4.256   2.666  12.484 -0.3463  0.0736  0.5246
24127SOL     OW78985   4.066   3.154   7.124 -0.2810  0.0324  0.4268
24127SOL    HW178986   4.144   3.099   7.135  0.5556  0.8464 -1.0535
24127SOL    HW278987   4.020   3.146   7.207  2.0387  0.5214  1.8681
24128SOL     OW78988   4.344   5.040   0.478 -0.0228 -0.6661 -0.0989
24128SOL    HW178989   4.380   5.128   0.489  1.8007 -1.2170 -1.1825
24128SOL    HW278990   4.250   5.049   0.495 -0.0113  1.6479 -0.9731
24129SOL     OW78991  10.608   3.568   4.159  0.4176  0.4891 -0.2352
24129SOL    HW178992  10.641   3.483   4.129  0.3814  0.8733 -1.4420
24129SOL    HW278993  10.686   3.621   4.172  0.3897  0.8711 -1.4438
24130SOL     OW78994   9.551  10.568   5.858 -0.3160  0.2146 -0.3503
24130SOL    HW178995   9.473  10.518   5.835  1.0189 -2.9538  1.3544
24130SOL    HW278996   9.615  10.544   5.791 -0.1984  1.3230 -0.6637
24131SOL     OW78997   0.588   3.884   6.976  0.0608  0.0920  0.4928
24131SOL    HW178998   0.659   3.934   7.016  1.5513 -1.7253  0.2756
24131SOL    HW278999   0.632   3.827   6.913 -1.8824  0.6363 -1.4627
24132SOL     OW79000   9.944  12.662   6.268  0.4507 -0.4932 -0.1300
24132SOL    HW179001  10.011  12.639   6.203  0.1802 -1.3901 -0.1158
24132SOL    HW279002   9.960  12.601   6.340 -0.2129 -0.5380 -0.0150
24133SOL     OW79003   1.534   8.024   7.396  0.7182  0.1576 -0.0675
24133SOL    HW179004   1.543   7.963   7.323  0.0511 -1.9028  1.4713
24133SOL    HW279005   1.612   8.010   7.450  1.8867  2.6158 -0.9564
24134SOL     OW79006   0.987   9.318  11.530  0.7706  0.3046  0.3376
24134SOL    HW179007   0.954   9.230  11.542  2.0364 -0.2233  0.1043
24134SOL    HW279008   0.971   9.338  11.437 -0.0039  0.5387  0.5173
24135SOL     OW79009   3.881  10.634   3.656  0.2356 -0.0501 -0.2661
24135SOL    HW179010   3.848  10.675   3.737 -0.8684  0.2979 -0.8749
24135SOL    HW279011   3.896  10.707   3.596  3.4215 -0.0310  0.3617
24136SOL     OW79012   7.053  11.850   0.041  0.3801  0.3085 -0.3485
24136SOL    HW179013   7.135  11.879   0.001  1.5078 -1.0585  0.8867
24136SOL    HW279014   7.072  11.762   0.074 -0.7292  0.9924  2.3560
24137SOL     OW79015   6.551   0.691   1.511 -0.5172 -0.2472 -0.5816
24137SOL    HW179016   6.508   0.712   1.428  0.4079  3.0247 -0.3522
24137SOL    HW279017   6.625   0.751   1.516 -0.1914 -0.7362  2.3708
24138SOL     OW79018   0.677   4.238  11.412 -0.6365  0.6532  0.1803
24138SOL    HW179019   0.742   4.236  11.482 -1.2930  0.2175  0.7961
24138SOL    HW279020   0.666   4.331  11.392  1.7833  0.6702 -1.4980
24139SOL     OW79021   5.283   8.078   5.283  0.1524 -0.3262 -0.4321
24139SOL    HW179022   5.315   8.147   5.341  0.7244  0.5546 -1.7573
24139SOL    HW279023   5.279   8.000   5.339  0.9241  0.4306  0.7217
24140SOL     OW79024  11.313   6.439   1.505 -0.6734  0.0494  0.2664
24140SOL    HW179025  11.403   6.449   1.537 -0.4899  0.2905 -0.3111
24140SOL    HW279026  11.312   6.354   1.461 -0.4917  0.4114 -0.4618
24141SOL     OW79027  10.341   5.697   2.486 -0.5200 -0.2317 -0.1969
24141SOL    HW179028  10.413   5.749   2.450 -0.6871  0.6363  0.6763
24141SOL    HW279029  10.385   5.629   2.538 -0.2961 -1.1239 -1.5016
24142SOL     OW79030  11.281  11.506   0.684  0.5040 -0.5709  0.4857
24142SOL    HW179031  11.358  11.549   0.647 -0.5371  1.3734  0.4279
24142SOL    HW279032  11.309  11.479   0.771  1.5408 -0.8113  0.0946
24143SOL     OW79033   0.106  10.364   5.326  0.1213  0.2822  0.3366
24143SOL    HW179034   0.078  10.323   5.243 -1.8205  0.1375  1.0209
24143SOL    HW279035   0.178  10.308   5.356  0.0892 -0.3452 -0.6793
24144SOL     OW79036   8.240   0.510  10.004  0.1299  0.2506  0.0796
24144SOL    HW179037   8.299   0.563   9.950  1.1068 -0.0023  0.8705
24144SOL    HW279038   8.160   0.503   9.952  0.5721  1.1151 -0.7513
24145SOL     OW79039   5.253   9.911   5.386  1.0162 -0.4274 -0.1948
24145SOL    HW179040   5.201   9.831   5.380  0.4980 -0.0771 -0.4445
24145SOL    HW279041   5.291   9.920   5.298  1.1474 -0.4449 -0.1402
24146SOL     OW79042   3.599   2.120   2.337  0.1968  0.3819 -0.1949
24146SOL    HW179043   3.504   2.123   2.338  0.2132  2.4977  0.1925
24146SOL    HW279044   3.624   2.105   2.428  0.2419 -0.3863 -0.3299
24147SOL     OW79045   0.874   3.561   2.024 -0.4142  0.3644 -0.2258
24147SOL    HW179046   0.946   3.506   2.055 -0.2136  0.5794 -0.3018
24147SOL    HW279047   0.834   3.511   1.953 -0.7269 -0.0251  0.2211
24148SOL     OW79048   8.778  12.745  11.401 -0.2074  0.0687 -0.2201
24148SOL    HW179049   8.697  12.764  11.352 -0.5830  0.7270  0.6410
24148SOL    HW279050   8.748  12.713  11.486  0.4471 -0.3462 -0.1386
24149SOL     OW79051  11.531   9.641   3.492  0.2319  0.8032 -0.0959
24149SOL    HW179052  11.585   9.692   3.432 -0.2130  1.5784  0.1505
24149SOL    HW279053  11.579   9.642   3.575  0.7039 -0.0247 -0.3423
24150SOL     OW79054   0.810   7.346   4.774 -0.7092  0.3176  0.3491
24150SOL    HW179055   0.720   7.313   4.773 -0.2187 -1.1460  1.4264
24150SOL    HW279056   0.823   7.382   4.686 -2.4279  0.8404  0.2751
24151SOL     OW79057   4.517   2.088   6.100  0.3885 -0.2070 -0.2211
24151SOL    HW179058   4.516   2.003   6.056 -0.7140  0.3615 -1.3532
24151SOL    HW279059   4.449   2.138   6.056 -0.6484  0.4747  2.0488
24152SOL     OW79060   0.265   1.282   5.674 -0.1327 -0.4239  0.1367
24152SOL    HW179061   0.188   1.289   5.618 -0.7600 -1.0971  0.9028
24152SOL    HW279062   0.251   1.348   5.742 -0.2503 -0.8537  0.5307
24153SOL     OW79063   2.774   7.802  11.236 -0.1847 -0.1880 -0.1343
24153SOL    HW179064   2.836   7.732  11.216  1.7717  1.0967  1.1888
24153SOL    HW279065   2.775   7.859  11.159 -0.1652 -0.4618 -0.3383
24154SOL     OW79066   0.485  10.066   9.306  0.5343 -0.2065 -0.3342
24154SOL    HW179067   0.448  10.066   9.394 -0.0631  1.7770 -0.5339
24154SOL    HW279068   0.442   9.994   9.261  0.8930 -1.2854  0.9880
24155SOL     OW79069  12.402  10.059  10.704  0.1943 -0.0389 -0.1053
24155SOL    HW179070  12.330   9.997  10.721  0.0976  0.2806  0.7337
24155SOL    HW279071  12.445  10.026  10.626  0.2372 -1.2658  0.4131
24156SOL     OW79072   0.786   1.043  12.191  0.0713  0.2256 -0.0465
24156SOL    HW179073   0.773   1.015  12.282 -0.3308  0.6274  0.0232
24156SOL    HW279074   0.771   1.138  12.193  0.4376  0.2919 -0.4617
24157SOL     OW79075   4.021   2.765   5.165  0.3036 -0.1088 -0.4266
24157SOL    HW179076   4.020   2.707   5.088  1.2076 -0.2518 -0.3433
24157SOL    HW279077   3.967   2.840   5.139 -1.0360 -1.0606 -0.4717
24158SOL     OW79078  12.388   8.963   4.783 -0.3538 -0.2315  0.5104
24158SOL    HW179079  12.337   8.924   4.855  1.0765  0.6064  2.0594
24158SOL    HW279080  12.457   8.900   4.766  0.4445  0.4116  1.2457
24159SOL     OW79081   4.681   7.905  12.250 -0.3566 -0.1192 -0.3270
24159SOL    HW179082   4.644   7.900  12.162 -1.2828  0.2484  0.0187
24159SOL    HW279083   4.712   7.817  12.269 -0.1924 -0.2096 -1.0026
24160SOL     OW79084   4.015   4.836  10.126 -0.2978 -0.1018 -0.2381
24160SOL    HW179085   4.022   4.922  10.168  1.1633 -1.3133  2.2481
24160SOL    HW279086   3.974   4.853  10.041  0.4830  3.0897 -0.0721
24161SOL     OW79087   5.184  10.754  12.751 -0.1128  0.1334 -0.7504
24161SOL    HW179088   5.098  10.711  12.752  0.0647 -0.2285 -0.9881
24161SOL    HW279089   5.164  10.847  12.761 -0.4384 -0.0878  0.9870
24162SOL     OW79090   2.771   3.803   3.398  0.2650 -0.0833 -0.5106
24162SOL    HW179091   2.840   3.868   3.409 -1.7319  1.8562  1.5377
24162SOL    HW279092   2.728   3.828   3.316  0.5023  0.1869 -0.5543
24163SOL     OW79093   4.120   4.265   1.442 -0.6112 -0.3574 -0.3004
24163SOL    HW179094   4.041   4.239   1.395 -0.4224 -1.0679 -0.2370
24163SOL    HW279095   4.125   4.205   1.516  1.2635 -1.9568 -1.6093
24164SOL     OW79096   8.808  11.782   7.517 -0.1140 -0.0118  0.4081
24164SOL    HW179097   8.742  11.838   7.476 -0.5102 -0.9774 -0.3138
24164SOL    HW279098   8.878  11.777   7.453  0.8416  1.2945  1.3178
24165SOL     OW79099   9.370   6.532   2.345 -0.5136 -0.3845  0.8730
24165SOL    HW179100   9.336   6.590   2.277  0.2084 -0.4767  0.4297
24165SOL    HW279101   9.385   6.449   2.301  0.2515 -0.3589  1.0689
24166SOL     OW79102   0.764   9.809   6.926  0.1963  0.5172  0.5822
24166SOL    HW179103   0.718   9.882   6.967 -0.5737  1.1510 -1.2861
24166SOL    HW279104   0.694   9.756   6.887  0.7507 -1.1843  1.7743
24167SOL     OW79105   5.948  12.339   7.064 -0.6009 -0.1409  0.1500
24167SOL    HW179106   5.890  12.398   7.015  0.2702  2.3408  1.9077
24167SOL    HW279107   5.903  12.325   7.148 -0.2255 -1.0430  0.2101
24168SOL     OW79108  12.287  11.961   6.307  0.2069 -0.1938 -0.0146
24168SOL    HW179109  12.222  11.981   6.374 -1.3913 -0.7790 -1.3332
24168SOL    HW279110  12.342  11.893   6.347 -0.0223  0.2402  1.0817
24169SOL     OW79111   7.084   2.296   8.618 -0.6901  0.5974 -0.0942
24169SOL    HW179112   7.045   2.233   8.556  0.0563  0.0855 -0.0566
24169SOL    HW279113   7.175   2.304   8.589 -0.0985 -0.2832  1.4298
24170SOL     OW79114   6.635  12.326   9.042 -0.1235 -0.0225 -0.4026
24170SOL    HW179115   6.714  12.273   9.025 -0.2641  0.1785 -1.7905
24170SOL    HW279116   6.668  12.415   9.054  0.0944 -0.3219  1.7499
24171SOL     OW79117   6.811  10.051   7.809 -0.0822  0.3697  0.1770
24171SOL    HW179118   6.716  10.061   7.816 -0.3153  0.5439 -2.4585
24171SOL    HW279119   6.846  10.120   7.866 -1.5646  1.8125 -0.5832
24172SOL     OW79120  12.208   5.804  12.771 -0.3589 -0.2990  0.0550
24172SOL    HW179121  12.208   5.799  12.676 -2.2197 -0.2535  0.0247
24172SOL    HW279122  12.161   5.885  12.792  1.8699  0.8539  1.0250
24173SOL     OW79123   5.246   3.017   5.793  0.2612 -0.0341  0.6006
24173SOL    HW179124   5.289   3.059   5.718 -0.3605  0.5471  0.5551
24173SOL    HW279125   5.289   2.932   5.801  1.4830  0.5742  0.6332
24174SOL     OW79126   7.171   6.325   4.585  0.1854 -0.8542  0.1813
24174SOL    HW179127   7.109   6.283   4.525  1.7663 -2.7459 -0.2391
24174SOL    HW279128   7.116   6.367   4.651 -1.5467 -1.2724 -0.9238
24175SOL     OW79129   4.080   0.620  10.936  1.0368  0.1862  0.0264
24175SOL    HW179130   4.143   0.598  11.005  2.5880 -0.2705 -1.4689
24175SOL    HW279131   3.998   0.639  10.983  1.4280 -2.1996  1.8647
24176SOL     OW79132   4.738   0.302  10.666  0.0628 -0.2986 -0.0567
24176SOL    HW179133   4.798   0.369  10.702  0.4041 -0.2685 -0.6592
24176SOL    HW279134   4.709   0.339  10.583  1.1592 -1.3897 -0.9571
24177SOL     OW79135   6.301   8.403   3.681 -0.0994  0.3019 -0.1656
24177SOL    HW179136   6.377   8.347   3.692  0.6003  0.9814 -1.2857
24177SOL    HW279137   6.262   8.375   3.598 -0.0892  1.0466 -0.4341
24178SOL     OW79138   0.458   3.827   7.271  1.0733 -0.1944  0.0941
24178SOL    HW179139   0.441   3.745   7.223  0.0610 -0.3623  0.7077
24178SOL    HW279140   0.394   3.889   7.236  1.0963  0.0143  0.4217
24179SOL     OW79141   7.338   2.281   8.529 -0.4762 -0.0602 -0.0345
24179SOL    HW179142   7.362   2.192   8.503 -0.4487  0.0780 -0.4972
24179SOL    HW279143   7.371   2.336   8.458  1.3907  0.5497  1.2080
24180SOL     OW79144   3.960   1.157   3.716 -0.0443 -0.0286  0.4277
24180SOL    HW179145   3.926   1.068   3.723 -0.1697 -0.1773 -1.4874
24180SOL    HW279146   4.056   1.147   3.719 -0.0095 -0.4112 -0.9290
24181SOL     OW79147   0.213   7.119   2.273 -0.0154  0.5256  0.7046
24181SOL    HW179148   0.191   7.035   2.314  0.0054  0.5670  0.8020
24181SOL    HW279149   0.136   7.173   2.286 -0.3683  0.2429 -0.1271
24182SOL     OW79150   5.277   0.424   0.209  0.4332  0.1300 -0.3399
24182SOL    HW179151   5.366   0.450   0.187  0.7407  1.0544  1.7728
24182SOL    HW279152   5.239   0.501   0.250 -0.4605 -1.0465  1.1631
24183SOL     OW79153   6.110   1.117   5.310  0.4563  0.4874 -0.2802
24183SOL    HW179154   6.185   1.081   5.356  0.0458 -0.5018 -0.3551
24183SOL    HW279155   6.039   1.055   5.328 -0.0854  0.8832 -1.0100
24184SOL     OW79156   3.036  10.713   3.788 -0.2134 -0.0730 -0.2258
24184SOL    HW179157   2.967  10.756   3.840  0.6887  1.6584 -0.3913
24184SOL    HW279158   3.044  10.768   3.710  1.3420 -0.2427 -0.2074
24185SOL     OW79159   9.836   5.014   7.159  0.3895 -0.0220 -0.1541
24185SOL    HW179160   9.873   5.103   7.164  0.5733  0.0936 -2.4156
24185SOL    HW279161   9.744   5.028   7.136  0.0888 -0.4031  0.7962
24186SOL     OW79162   3.551   7.127  10.354 -0.0599  0.1897  0.4514
24186SOL    HW179163   3.460   7.101  10.370  0.2227 -1.0151  0.1789
24186SOL    HW279164   3.548   7.173  10.270 -0.2420 -0.8824 -0.1404
24187SOL     OW79165   4.379   2.593   0.275  0.2009 -0.1324  0.6451
24187SOL    HW179166   4.380   2.596   0.371  0.5381  1.2370  0.6129
24187SOL    HW279167   4.292   2.561   0.253  0.7041 -2.2043  1.4162
24188SOL     OW79168   6.880   9.017   1.187  0.1187  0.0887 -0.0015
24188SOL    HW179169   6.889   8.949   1.254  0.5345  0.0226 -0.1245
24188SOL    HW279170   6.969   9.046   1.170 -0.0612  0.7309  0.1142
24189SOL     OW79171   7.081   4.190   4.075 -0.0100 -0.2633  0.0815
24189SOL    HW179172   7.128   4.107   4.077 -1.3018 -1.0030  0.5604
24189SOL    HW279173   7.080   4.219   4.166  0.0371  0.0609 -0.0195
24190SOL     OW79174   6.102  11.237   0.701 -0.3102 -0.0280 -0.2508
24190SOL    HW179175   6.071  11.150   0.679  0.2246 -0.7942  1.8047
24190SOL    HW279176   6.156  11.263   0.626  0.1493 -1.7806 -0.5667
24191SOL     OW79177   9.262   0.802   7.360 -0.0099 -0.0114 -0.2794
24191SOL    HW179178   9.339   0.811   7.416  0.3963  0.8421 -0.9468
24191SOL    HW279179   9.293   0.825   7.272 -1.1972  1.1710 -0.4245
24192SOL     OW79180   0.632   7.411   7.689 -0.1891  0.4375 -0.2330
24192SOL    HW179181   0.663   7.495   7.723  0.1196  1.0266 -1.8774
24192SOL    HW279182   0.546   7.399   7.729 -0.4440  1.7768 -0.3407
24193SOL     OW79183   0.230   0.488   1.572 -0.2907  0.2612  0.3475
24193SOL    HW179184   0.159   0.532   1.524 -0.4503 -1.3533 -1.0205
24193SOL    HW279185   0.296   0.555   1.584 -0.4268  0.8686 -1.8498
24194SOL     OW79186   5.414  12.157  11.606  0.2527  0.0017  0.5829
24194SOL    HW179187   5.444  12.248  11.609 -0.6020  0.2663  1.5681
24194SOL    HW279188   5.477  12.109  11.658 -0.5409  0.4202  1.9695
24195SOL     OW79189   3.688  10.288  11.146  0.2923 -0.0220 -0.2087
24195SOL    HW179190   3.622  10.316  11.083  0.7721  0.6589 -0.4205
24195SOL    HW279191   3.646  10.299  11.231 -0.1782 -0.4564 -0.3846
24196SOL     OW79192   5.824   5.238  12.394  0.0199 -0.0114 -0.5824
24196SOL    HW179193   5.829   5.156  12.344  1.9830  0.8242 -1.9025
24196SOL    HW279194   5.843   5.212  12.484 -0.2796 -1.1247 -0.8215
24197SOL     OW79195   0.725  10.894   1.819 -0.3339 -0.0059  0.0208
24197SOL    HW179196   0.763  10.935   1.897 -0.5879  0.4656 -0.1005
24197SOL    HW279197   0.656  10.838   1.853  0.6981 -1.1668  0.2802
24198SOL     OW79198  10.413   5.745   2.865  0.7588  0.0084 -0.0864
24198SOL    HW179199  10.443   5.834   2.849 -0.2844  0.4480  0.2696
24198SOL    HW279200  10.386   5.745   2.957 -2.0451  0.2369 -0.8008
24199SOL     OW79201   8.890   7.192   4.145 -0.0861  0.2326  0.4528
24199SOL    HW179202   8.808   7.198   4.195  0.8412 -0.1614  2.1063
24199SOL    HW279203   8.958   7.197   4.212  1.2203 -0.6595 -0.7646
24200SOL     OW79204  10.850   5.801   9.931 -0.5778 -0.7561  0.2885
24200SOL    HW179205  10.773   5.834   9.978 -0.7283 -0.5822 -0.0766
24200SOL    HW279206  10.917   5.792   9.999 -0.5774  0.1578  0.4216
24201SOL     OW79207  12.782   3.635  10.939  0.2508 -0.1726  0.3131
24201SOL    HW179208  12.746   3.697  10.875  0.5593 -0.5902 -0.2747
24201SOL    HW279209  12.737   3.656  11.021 -1.5930 -0.8900 -0.4614
24202SOL     OW79210  10.940   0.347   8.166  0.0816 -0.1495 -0.6280
24202SOL    HW179211  10.911   0.256   8.176  0.1075  0.0444  1.9472
24202SOL    HW279212  10.869   0.389   8.117 -0.4674 -1.3166 -0.8668
24203SOL     OW79213   6.215   8.053   6.671  0.1749  0.0753 -0.2807
24203SOL    HW179214   6.156   7.982   6.698  1.6470 -1.4765 -0.9663
24203SOL    HW279215   6.296   8.036   6.719  0.3540  1.7081  0.0387
24204SOL     OW79216   8.063  11.991  12.614 -0.2213  0.0526  0.3621
24204SOL    HW179217   7.973  11.958  12.618  0.6712 -2.9338 -1.1722
24204SOL    HW279218   8.057  12.073  12.565 -2.1008  0.0517  0.5132
24205SOL     OW79219   5.150  11.917   6.818  0.7561 -0.1806  0.2114
24205SOL    HW179220   5.095  11.926   6.896  1.0801  0.7875  0.3325
24205SOL    HW279221   5.098  11.861   6.759  0.0087  0.0259  0.6578
24206SOL     OW79222   2.906   3.631   2.590 -0.3005  0.3715  0.0174
24206SOL    HW179223   2.935   3.662   2.504  1.3714  1.1118  0.8043
24206SOL    HW279224   2.825   3.678   2.606 -0.3164  0.6778 -0.8966
24207SOL     OW79225   9.187   6.260   3.817 -0.0138  0.1660 -0.7819
24207SOL    HW179226   9.203   6.170   3.847  0.6741  0.7834  0.7920
24207SOL    HW279227   9.274   6.299   3.810 -0.3773  1.5947  1.5386
24208SOL     OW79228   8.551  11.040  12.729  0.1287 -0.2626  0.1181
24208SOL    HW179229   8.496  11.086  12.666 -1.9498  0.2740  2.1681
24208SOL    HW279230   8.544  11.093  12.809  2.6981 -0.8671  0.8407
24209SOL     OW79231   2.013  10.096   6.679 -0.6242 -0.3792 -0.1993
24209SOL    HW179232   2.073  10.065   6.747  0.2532 -2.3814 -1.7579
24209SOL    HW279233   2.030  10.189   6.672 -0.0252 -0.3173  1.5986
24210SOL     OW79234   2.969   1.020   0.386  0.1451  0.4393  0.1577
24210SOL    HW179235   2.953   0.972   0.467  0.8563 -1.4798 -0.7698
24210SOL    HW279236   3.065   1.018   0.377  0.0925  0.9515 -0.5450
24211SOL     OW79237   8.292   3.754   3.016  0.0878 -0.1099 -0.2231
24211SOL    HW179238   8.305   3.738   2.922 -0.0528 -0.6694 -0.1546
24211SOL    HW279239   8.380   3.754   3.053  0.1823  0.6726 -0.4354
24212SOL     OW79240   9.503   6.367  11.482  0.3291  0.1802 -0.1455
24212SOL    HW179241   9.420   6.319  11.478  0.7582 -0.5145 -0.8226
24212SOL    HW279242   9.544   6.338  11.562  0.0328  0.3461  0.0691
24213SOL     OW79243   0.416   6.098   0.099 -0.2769  0.8545  0.5968
24213SOL    HW179244   0.452   6.132   0.017 -0.9643  2.0673  0.7691
24213SOL    HW279245   0.389   6.176   0.147 -1.2941  0.0806  1.3167
24214SOL     OW79246   1.713  12.600   3.844  0.5406  0.0808 -0.3855
24214SOL    HW179247   1.714  12.643   3.758  0.3512 -0.8888 -0.8819
24214SOL    HW279248   1.806  12.588   3.865  0.5992 -0.8994 -1.0977
24215SOL     OW79249  11.550   3.175   5.388  0.2857  0.1698 -0.1621
24215SOL    HW179250  11.556   3.125   5.470 -1.2549 -0.2410 -0.2690
24215SOL    HW279251  11.463   3.214   5.390  0.4639  0.6794 -1.3282
24216SOL     OW79252   0.622   1.812   0.201  0.0316  0.5820  0.2010
24216SOL    HW179253   0.676   1.833   0.277  0.1035 -1.6146  0.8448
24216SOL    HW279254   0.675   1.752   0.149 -0.9621  0.0878 -0.2853
24217SOL     OW79255   3.698   0.500  10.832 -0.2895  0.2030 -0.2945
24217SOL    HW179256   3.711   0.460  10.918  1.4775 -0.1758 -0.7029
24217SOL    HW279257   3.772   0.469  10.779 -1.7904 -0.2831 -2.2390
24218SOL     OW79258   0.857   0.833   4.726  0.4518 -0.8301 -0.8771
24218SOL    HW179259   0.859   0.927   4.708  2.2742 -0.5702  0.3981
24218SOL    HW279260   0.888   0.792   4.646  1.6518 -0.1729 -0.7801
24219SOL     OW79261  12.280   6.100   8.947 -0.3544 -0.2107  0.2774
24219SOL    HW179262  12.264   6.078   8.855  1.2570  1.6661 -0.5153
24219SOL    HW279263  12.197   6.137   8.977 -1.2558 -1.8753 -0.0392
24220SOL     OW79264   6.054   6.341   0.599 -0.4682  0.0747 -0.6027
24220SOL    HW179265   6.030   6.266   0.652  2.7638 -1.2886 -0.8528
24220SOL    HW279266   6.087   6.406   0.662  2.4718 -1.1786 -0.7038
24221SOL     OW79267   2.953  11.879  10.691  0.3765 -0.1938  0.0586
24221SOL    HW179268   2.922  11.828  10.766  0.8070  1.1456  1.1931
24221SOL    HW279269   2.887  11.947  10.679  1.7288  1.4302  1.1980
24222SOL     OW79270   5.891   6.210   6.208  0.4168  0.7432 -0.4690
24222SOL    HW179271   5.832   6.281   6.185  0.5738  1.0235 -0.0076
24222SOL    HW279272   5.893   6.210   6.303  0.9071  0.5289 -0.4778
24223SOL     OW79273   9.513   2.876  12.694 -0.3548 -0.2908 -0.2225
24223SOL    HW179274   9.532   2.893  12.601  0.8814 -0.7569 -0.0851
24223SOL    HW279275   9.599   2.880  12.736 -1.0962  1.6681  1.2341
24224SOL     OW79276   6.361   9.880  11.565  0.9400 -0.0039  0.3566
24224SOL    HW179277   6.279   9.919  11.533  1.1060  0.7515  0.8209
24224SOL    HW279278   6.338   9.790  11.588 -0.0495  0.5309  1.5718
24225SOL     OW79279   6.091   2.499   1.434  0.1469 -1.2430 -0.4260
24225SOL    HW179280   6.186   2.502   1.437  0.1452  0.8560  2.4960
24225SOL    HW279281   6.070   2.468   1.346  3.4884 -1.4489 -1.2771
24226SOL     OW79282   0.651  11.191   3.245 -0.0165 -0.1595 -0.0149
24226SOL    HW179283   0.606  11.177   3.161  0.4237  0.5061 -0.3725
24226SOL    HW279284   0.672  11.103   3.276  2.6372 -0.4204 -2.1625
24227SOL     OW79285   6.953   9.798   1.750 -0.5680  0.0631 -0.1406
24227SOL    HW179286   6.866   9.836   1.752 -0.4270  0.3678  0.7886
24227SOL    HW279287   6.998   9.835   1.826 -0.0142 -0.9856  0.0719
24228SOL     OW79288  10.116   5.014   1.720  0.1180 -0.1180  0.2814
24228SOL    HW179289  10.162   5.009   1.636  0.1203  1.8809  0.1246
24228SOL    HW279290  10.179   5.052   1.780 -0.0792 -0.9997  1.0720
24229SOL     OW79291   8.241   7.262   7.432  0.4501  0.0533  0.0888
24229SOL    HW179292   8.299   7.319   7.381  1.5385 -1.5889 -0.6294
24229SOL    HW279293   8.154   7.299   7.421  0.9806  1.0036 -1.1527
24230SOL     OW79294   2.584   6.554   3.901 -0.1475  0.1396 -0.5172
24230SOL    HW179295   2.553   6.485   3.960  0.7754  0.8134  0.7858
24230SOL    HW279296   2.671   6.525   3.873  0.8377  1.3703  1.1245
24231SOL     OW79297   5.749  10.219   4.736  0.0497  0.1406  0.2950
24231SOL    HW179298   5.796  10.157   4.791  1.1097  1.1875  0.6122
24231SOL    HW279299   5.799  10.300   4.742 -1.0790  0.9317 -0.4128
24232SOL     OW79300   6.200   1.609   1.411  0.2291 -0.1663 -0.1960
24232SOL    HW179301   6.290   1.635   1.434  0.5650 -1.4337 -0.0026
24232SOL    HW279302   6.160   1.689   1.377  1.4142  0.4423 -0.2151
24233SOL     OW79303   4.901   7.281   0.962 -0.1235  0.0747  0.3236
24233SOL    HW179304   4.832   7.338   0.927  1.0837  1.5941  0.3447
24233SOL    HW279305   4.942   7.244   0.884 -1.4619 -1.5466  0.3148
24234SOL     OW79306   5.977   6.393   0.150  0.0629  0.4861 -0.5888
24234SOL    HW179307   5.953   6.318   0.095  2.5849 -0.9490  0.0911
24234SOL    HW279308   5.987   6.356   0.238 -0.0340  1.9418  0.0611
24235SOL     OW79309   6.982   3.188   1.675 -0.1454  0.5369 -0.0944
24235SOL    HW179310   7.020   3.140   1.602  1.6533  0.8820  0.5710
24235SOL    HW279311   7.027   3.273   1.674 -0.6963  0.8631  0.9123
24236SOL     OW79312   1.237   6.838   9.866  0.1352  0.0292 -0.1237
24236SOL    HW179313   1.261   6.748   9.842  0.9107  0.6063 -1.6397
24236SOL    HW279314   1.236   6.885   9.783 -1.5429  1.1580  0.4885
24237SOL     OW79315   4.974   2.451  12.637 -0.0006 -0.5622  0.0544
24237SOL    HW179316   5.068   2.456  12.650  0.1349 -1.6423 -0.4618
24237SOL    HW279317   4.947   2.543  12.625  1.1178 -0.3232 -0.7422
24238SOL     OW79318  11.297  11.190   9.910 -0.2788  0.6340  0.3025
24238SOL    HW179319  11.233  11.132   9.870 -0.5507  0.9129  0.3254
24238SOL    HW279320  11.261  11.210   9.997  0.5735 -0.3984  0.9102
24239SOL     OW79321   1.374   1.981  11.738 -0.1154  0.3874  0.3895
24239SOL    HW179322   1.334   1.910  11.687 -0.2439  1.3177 -0.8519
24239SOL    HW279323   1.342   2.061  11.697 -0.1371  1.1837  1.8995
24240SOL     OW79324   1.398   6.771   0.022 -0.2363 -0.7716  0.0422
24240SOL    HW179325   1.359   6.822   0.093 -0.0247 -0.4722 -0.0568
24240SOL    HW279326   1.436   6.695   0.066 -0.1199 -0.5958  0.2474
24241SOL     OW79327   5.309   4.631   3.516  0.0213  0.0326 -0.1257
24241SOL    HW179328   5.264   4.549   3.539  0.8145 -0.9635 -1.8661
24241SOL    HW279329   5.361   4.652   3.593 -2.3465  0.5294  1.4595
24242SOL     OW79330   6.564   8.734   6.178 -0.0061 -0.5831  0.0321
24242SOL    HW179331   6.522   8.816   6.207 -1.4531 -1.1808 -0.2723
24242SOL    HW279332   6.594   8.753   6.089 -1.2904 -0.6827 -0.4419
24243SOL     OW79333   9.149   4.177   2.072 -0.3335 -0.2707 -0.1926
24243SOL    HW179334   9.124   4.154   2.162 -2.2580 -0.4799 -0.7306
24243SOL    HW279335   9.130   4.099   2.021 -0.2854  0.2027 -0.9470
24244SOL     OW79336   1.897   5.001  12.135  0.4867  0.3110  0.5073
24244SOL    HW179337   1.930   5.066  12.198 -2.5798  1.4166  1.1243
24244SOL    HW279338   1.853   5.053  12.068 -0.2819 -1.0504 -0.0870
24245SOL     OW79339  12.059   4.426   4.532  0.1746 -0.2783  0.0466
24245SOL    HW179340  12.010   4.463   4.605  2.1850 -0.6045  1.6363
24245SOL    HW279341  12.132   4.380   4.573  0.0533 -2.5342 -2.0502
24246SOL     OW79342   8.552   1.425   8.962 -0.1961 -0.3750  0.0104
24246SOL    HW179343   8.582   1.369   9.034 -1.1212  0.5385  1.1339
24246SOL    HW279344   8.464   1.394   8.943 -0.5200  0.3619  0.2927
24247SOL     OW79345   6.040   3.953   9.785  0.0338 -0.2581 -0.3787
24247SOL    HW179346   5.969   3.888   9.776 -1.8928  1.6798  0.0306
24247SOL    HW279347   6.058   3.981   9.696 -1.5233  1.0142 -0.3369
24248SOL     OW79348   9.399   0.335   2.673  0.3302  0.4632 -0.2648
24248SOL    HW179349   9.386   0.394   2.747 -1.2387 -2.2914  1.8622
24248SOL    HW279350   9.326   0.355   2.613 -0.8790 -0.0095  0.9943
24249SOL     OW79351  12.501  10.864   4.587  0.4236  0.1980 -0.2160
24249SOL    HW179352  12.559  10.835   4.516 -0.5112 -0.5802 -0.6830
24249SOL    HW279353  12.500  10.959   4.579  0.4518  0.1290 -1.1547
24250SOL     OW79354   0.703   6.597   7.785 -0.4783 -0.0893 -0.1588
24250SOL    HW179355   0.660   6.642   7.857 -1.3840 -0.3157 -0.5466
24250SOL    HW279356   0.640   6.602   7.713  0.2139 -0.2867 -0.7909
24251SOL     OW79357   8.581   7.356   1.753  0.1544 -0.2181 -0.3380
24251SOL    HW179358   8.626   7.288   1.702  1.3547 -0.5681  1.1095
24251SOL    HW279359   8.649   7.420   1.772 -0.7311  0.8777 -0.7853
24252SOL     OW79360  11.290   6.872   6.437 -0.3473 -0.0962 -0.2086
24252SOL    HW179361  11.288   6.933   6.363 -0.4902 -1.4006 -1.3317
24252SOL    HW279362  11.306   6.927   6.514 -2.9955  1.6812 -0.8039
24253SOL     OW79363   3.950  10.761   0.889 -0.0036  0.3050 -0.0132
24253SOL    HW179364   4.017  10.715   0.939  0.6266  0.3666 -0.7984
24253SOL    HW279365   3.998  10.824   0.835 -0.6118 -0.1920 -1.1700
24254SOL     OW79366   9.415   7.773   8.921  0.6925  0.0668  0.2010
24254SOL    HW179367   9.426   7.790   8.827  0.2858 -0.6370  0.0143
24254SOL    HW279368   9.500   7.794   8.959  0.8041  0.5415 -0.2996
24255SOL     OW79369   1.497   1.694   8.233  0.1681  0.7580 -0.2541
24255SOL    HW179370   1.500   1.736   8.319  3.0805 -0.9139  0.6396
24255SOL    HW279371   1.566   1.738   8.183  1.6431 -1.2325 -0.0889
24256SOL     OW79372  11.153  11.084   9.024 -0.2220  0.1444  0.4567
24256SOL    HW179373  11.247  11.098   9.034 -0.1302 -0.3710  0.3411
24256SOL    HW279374  11.117  11.172   9.009  0.0939  0.4922  1.6276
24257SOL     OW79375   8.453   7.470   2.540 -0.7281 -0.2485  0.4947
24257SOL    HW179376   8.401   7.404   2.586 -1.1875  1.4712  2.6090
24257SOL    HW279377   8.544   7.445   2.557 -0.8889 -0.9178  0.3903
24258SOL     OW79378   9.877  12.474   3.948  0.1115  0.2195 -0.2911
24258SOL    HW179379   9.782  12.486   3.957  0.1117  0.3767 -0.5011
24258SOL    HW279380   9.886  12.396   3.893  0.1033  0.2416 -0.3236
24259SOL     OW79381   8.310   2.432   1.543 -0.1504 -0.5759 -0.7420
24259SOL    HW179382   8.316   2.489   1.467 -1.2360  1.9820  0.9416
24259SOL    HW279383   8.393   2.446   1.590 -0.6774  0.1865 -0.0019
24260SOL     OW79384  12.282   0.391   4.397 -0.4753  0.6359 -0.3907
24260SOL    HW179385  12.350   0.436   4.346  1.3710 -0.8159  0.6930
24260SOL    HW279386  12.325   0.367   4.479 -1.4000 -2.8989 -0.8143
24261SOL     OW79387   7.325   7.926   7.203  0.2619  0.0250 -0.0510
24261SOL    HW179388   7.233   7.946   7.184  0.6043  0.4387 -1.3453
24261SOL    HW279389   7.329   7.920   7.299 -1.4822 -1.9151 -0.0340
24262SOL     OW79390   5.992   8.009   1.671  0.1341 -0.1908 -0.0497
24262SOL    HW179391   6.088   8.018   1.672  0.1473  0.0697 -1.1992
24262SOL    HW279392   5.972   7.986   1.580 -1.0717  2.1336 -0.4533
24263SOL     OW79393   7.452   9.216   5.526  0.1366 -0.6449 -0.0936
24263SOL    HW179394   7.475   9.309   5.521 -0.6837 -0.3722  0.8799
24263SOL    HW279395   7.524   9.176   5.573  0.7281 -0.6014 -0.9394
24264SOL     OW79396   8.769   7.776   3.104  0.3149 -0.1114 -0.3045
24264SOL    HW179397   8.818   7.826   3.169  0.5490  0.0576 -0.6073
24264SOL    HW279398   8.831   7.709   3.074  0.4663  0.2937 -0.9105
24265SOL     OW79399   5.095   5.335   7.863  0.3276  0.3297 -0.2693
24265SOL    HW179400   5.048   5.392   7.802 -0.0844 -0.8454 -1.0928
24265SOL    HW279401   5.082   5.246   7.828  2.0890 -0.1517  0.2067
24266SOL     OW79402   7.427  11.104   6.771 -0.2380  0.4371 -0.2485
24266SOL    HW179403   7.391  11.145   6.849 -1.2016  1.1741 -1.0595
24266SOL    HW279404   7.435  11.175   6.708  0.9979 -0.0528 -0.6809
24267SOL     OW79405  12.338   3.840   2.254  0.6120  0.4871  0.3850
24267SOL    HW179406  12.323   3.825   2.347  1.8328 -0.2309  0.4841
24267SOL    HW279407  12.423   3.800   2.236 -0.0967 -0.4020 -1.2682
24268SOL     OW79408   8.386   8.034   2.172  0.4471  0.4523 -0.2371
24268SOL    HW179409   8.317   8.057   2.110 -0.6153  1.1393  1.1433
24268SOL    HW279410   8.347   7.965   2.226  1.2825 -0.0017 -0.2005
24269SOL     OW79411   3.240  11.766   8.128 -0.2165  0.4800 -0.4638
24269SOL    HW179412   3.214  11.714   8.052  0.8041  1.6531 -1.6506
24269SOL    HW279413   3.265  11.701   8.194  1.3938 -0.5909 -2.0285
24270SOL     OW79414   3.779   6.388   3.762  0.3301  0.1534 -0.0858
24270SOL    HW179415   3.860   6.348   3.793 -0.0377  0.8116  1.8262
24270SOL    HW279416   3.711   6.348   3.814 -0.7064 -0.7876 -2.0441
24271SOL     OW79417   5.728   2.234   6.863 -0.1733 -0.1242 -0.3408
24271SOL    HW179418   5.791   2.298   6.830 -0.0283 -0.7389 -1.2838
24271SOL    HW279419   5.662   2.286   6.909 -0.4235  0.7594 -1.6647
24272SOL     OW79420   1.595   3.593  12.003 -0.3334 -0.3674 -0.7875
24272SOL    HW179421   1.606   3.589  12.098  1.1895  0.1261 -0.9213
24272SOL    HW279422   1.640   3.516  11.970  0.5886  0.3238 -1.1968
24273SOL     OW79423   2.849   4.290   3.401 -0.0806  0.7457  0.7332
24273SOL    HW179424   2.796   4.320   3.327  0.4572  1.2520  0.5385
24273SOL    HW279425   2.939   4.313   3.376  0.0997  0.9734  1.5718
24274SOL     OW79426  10.092   3.821   4.018  0.4105  0.1526  0.5960
24274SOL    HW179427  10.048   3.895   3.976  0.6856  0.6529  1.1843
24274SOL    HW279428  10.114   3.763   3.945 -0.4126  0.3185  0.1971
24275SOL     OW79429   4.131   4.933  12.462 -0.4263 -0.0661 -0.1346
24275SOL    HW179430   4.184   5.001  12.421  0.0905  0.5605  1.4968
24275SOL    HW279431   4.192   4.885  12.517 -1.2835 -0.2167  0.7046
24276SOL     OW79432   4.110   9.656   3.354  0.0302  0.0850  0.2051
24276SOL    HW179433   4.156   9.573   3.345  0.6848  0.4113  0.4952
24276SOL    HW279434   4.157   9.717   3.297 -0.4955  0.2443 -0.0724
24277SOL     OW79435   4.327  10.777   8.746  0.0671 -0.2168 -0.6979
24277SOL    HW179436   4.237  10.803   8.729 -0.1376  0.0095  0.6033
24277SOL    HW279437   4.364  10.849   8.798  0.3687 -1.1766  0.4834
24278SOL     OW79438   4.910  12.278   0.344  0.5630 -0.2339 -0.5832
24278SOL    HW179439   4.933  12.227   0.267 -0.7910  0.0358 -1.1983
24278SOL    HW279440   4.862  12.216   0.399  0.4468 -0.0897 -0.5231
24279SOL     OW79441   4.545   1.378  10.477  0.2195  0.0603  0.1804
24279SOL    HW179442   4.616   1.434  10.446 -0.1455  1.1535  1.2461
24279SOL    HW279443   4.477   1.439  10.505  0.0385 -0.8859  1.9114
24280SOL     OW79444   5.751   8.530  10.382  0.5084 -0.3077 -0.8898
24280SOL    HW179445   5.675   8.501  10.331  0.7044 -5.4144  1.1178
24280SOL    HW279446   5.713   8.582  10.452 -0.8793 -0.6941 -1.3079
24281SOL     OW79447   3.092   1.908  11.330 -0.0138  0.5705  0.1639
24281SOL    HW179448   3.179   1.914  11.292  0.1313 -0.4533  0.3162
24281SOL    HW279449   3.092   1.973  11.400  0.6399  0.5555  0.1836
24282SOL     OW79450  10.492   6.069  12.037 -0.0650  0.4904 -0.5313
24282SOL    HW179451  10.579   6.108  12.048  0.8277 -1.5361  0.0689
24282SOL    HW279452  10.483   6.010  12.112 -1.8185  0.3609 -0.7966
24283SOL     OW79453  12.065   6.548   5.363 -0.0438 -0.2604  0.3583
24283SOL    HW179454  12.019   6.608   5.304  0.8081  0.6724  0.6277
24283SOL    HW279455  12.156   6.576   5.360  0.5721 -2.1672 -0.2756
24284SOL     OW79456   6.401   9.630  11.667 -0.7675 -0.1990 -0.1601
24284SOL    HW179457   6.470   9.671  11.719 -0.0663 -0.4997 -0.8391
24284SOL    HW279458   6.409   9.536  11.687 -0.8076 -0.2626 -0.4460
24285SOL     OW79459   9.551  12.217   7.228  0.8433  0.1835 -0.0950
24285SOL    HW179460   9.475  12.270   7.251  0.2464 -0.2159 -1.0828
24285SOL    HW279461   9.557  12.152   7.298  2.1877  2.0709  1.6975
24286SOL     OW79462   5.743   1.790   8.476  0.2193  0.3330  0.7373
24286SOL    HW179463   5.722   1.870   8.427 -1.2594 -1.0547 -1.0018
24286SOL    HW279464   5.698   1.802   8.560 -3.6035 -0.2990 -0.9944
24287SOL     OW79465  10.197   9.266   2.993 -0.0137  0.4489  0.5226
24287SOL    HW179466  10.183   9.319   2.914  0.8787  0.7357  0.5441
24287SOL    HW279467  10.264   9.202   2.967  0.5123  0.7415  1.1330
24288SOL     OW79468  11.348   1.837   1.823 -0.1608 -0.8976  0.3841
24288SOL    HW179469  11.425   1.893   1.832 -0.2925 -0.4800 -0.9315
24288SOL    HW279470  11.375   1.768   1.762 -0.4175 -1.5148  0.9562
24289SOL     OW79471   8.732   0.791   7.810 -0.4315  0.3387  0.5802
24289SOL    HW179472   8.798   0.859   7.821  0.5808 -0.2985 -1.1489
24289SOL    HW279473   8.689   0.812   7.728 -1.3190 -0.1378  0.9056
24290SOL     OW79474   0.687  10.411   6.007 -0.0338  0.1207  0.1483
24290SOL    HW179475   0.742  10.333   6.019 -1.7515 -1.2832 -0.6654
24290SOL    HW279476   0.740  10.483   6.042  1.9159 -1.2828  0.2493
24291SOL     OW79477   9.777   6.427   0.071  0.0335  0.3449  0.2756
24291SOL    HW179478   9.829   6.451  -0.006 -0.8231  0.3610 -0.3190
24291SOL    HW279479   9.827   6.359   0.115 -0.3960 -1.1492 -1.4356
24292SOL     OW79480   2.381   6.816   3.657  0.4663  0.5532  0.4081
24292SOL    HW179481   2.332   6.765   3.721  0.0200  0.5571  0.0745
24292SOL    HW279482   2.473   6.799   3.678  0.3242 -0.5979  0.1346
24293SOL     OW79483  11.954   5.301  10.028  0.0323 -0.2110  0.4753
24293SOL    HW179484  11.904   5.225  10.000 -1.0005 -0.1705  2.0653
24293SOL    HW279485  11.915   5.374   9.980  1.3219 -0.7042 -1.3920
24294SOL     OW79486  10.484   3.957  10.697  0.0699  0.0041  0.6734
24294SOL    HW179487  10.401   4.002  10.680  0.5399  0.8395  0.5446
24294SOL    HW279488  10.477   3.875  10.649 -0.6617  0.0973  0.6131
24295SOL     OW79489  10.889   9.017   9.700  0.1481  0.3240 -0.8947
24295SOL    HW179490  10.974   9.033   9.741  0.3169 -2.9326  0.3607
24295SOL    HW279491  10.829   9.002   9.773 -1.0730  0.7020 -1.7865
24296SOL     OW79492   3.143   2.700   3.890 -0.0250 -0.0622  0.0068
24296SOL    HW179493   3.082   2.733   3.824 -0.6437  1.4646  1.2569
24296SOL    HW279494   3.087   2.678   3.965  0.6976 -1.3818  0.1821
24297SOL     OW79495   8.575   7.024   2.717 -0.2591  0.0447  0.1829
24297SOL    HW179496   8.560   7.106   2.764 -0.2516  0.7280 -0.9699
24297SOL    HW279497   8.589   7.051   2.626 -1.5975 -1.3265 -0.4674
24298SOL     OW79498   5.890   0.277   7.969 -0.5555  0.1319  0.1429
24298SOL    HW179499   5.861   0.218   8.038 -0.5218  0.3422  0.3364
24298SOL    HW279500   5.977   0.306   7.997 -0.4935  0.1253 -0.0439
24299SOL     OW79501  12.523  12.433   9.817 -0.0570  0.3330  0.2743
24299SOL    HW179502  12.606  12.445   9.771 -0.3072  1.5385  0.1134
24299SOL    HW279503  12.504  12.519   9.854 -1.3132  0.0994  0.1863
24300SOL     OW79504   6.257  12.388   8.825 -0.7388  0.3913  0.5163
24300SOL    HW179505   6.313  12.413   8.898  0.3159 -0.2259 -0.0567
24300SOL    HW279506   6.270  12.294   8.815 -0.3108  0.5660 -0.8932
24301SOL     OW79507   1.001   0.633  10.560  0.5504 -0.3942 -0.0688
24301SOL    HW179508   1.049   0.708  10.526  3.9466 -0.9274  2.8873
24301SOL    HW279509   0.944   0.670  10.629  0.3455 -0.2901 -0.2919
24302SOL     OW79510   0.634   1.534  12.611 -0.1042 -0.2078 -0.6184
24302SOL    HW179511   0.669   1.594  12.545  0.3428 -0.0486 -0.2405
24302SOL    HW279512   0.555   1.498  12.571 -0.3591  0.5996 -0.8736
24303SOL     OW79513   0.396  11.029   5.903  0.4826  0.4555 -0.0074
24303SOL    HW179514   0.479  11.070   5.929 -0.2268  1.1941  1.2244
24303SOL    HW279515   0.337  11.046   5.977 -0.3341 -1.3842 -0.1926
24304SOL     OW79516   2.717   8.458   2.830  0.1880 -0.5001 -0.2646
24304SOL    HW179517   2.728   8.416   2.915 -0.2021  1.3978  0.7720
24304SOL    HW279518   2.753   8.546   2.841 -2.6245  0.8691 -1.0862
24305SOL     OW79519   4.931   8.930   4.596  0.3201 -0.3455 -0.4408
24305SOL    HW179520   4.952   8.849   4.641  1.5551 -0.3344 -0.9717
24305SOL    HW279521   4.996   8.938   4.527 -0.0966  0.8361 -0.7359
24306SOL     OW79522  10.535   2.357   7.125 -0.2595 -0.5264 -0.1454
24306SOL    HW179523  10.575   2.357   7.038  0.2400 -1.9712  0.0532
24306SOL    HW279524  10.448   2.393   7.112  0.1480  0.1334 -1.0797
24307SOL     OW79525   8.217   5.447   3.385  0.1202 -0.1042  0.0467
24307SOL    HW179526   8.136   5.495   3.402  0.7328  0.3818  1.7204
24307SOL    HW279527   8.188   5.357   3.372 -0.6448 -0.0792  1.3884
24308SOL     OW79528   5.367   8.146   7.955  0.0305  0.1721  0.6235
24308SOL    HW179529   5.417   8.118   8.033 -1.2221 -0.5421  1.2128
24308SOL    HW279530   5.434   8.175   7.893  1.2886 -1.8598  0.9239
24309SOL     OW79531   9.570   5.222   7.557 -0.3213  0.1357  0.6219
24309SOL    HW179532   9.566   5.307   7.602  0.2862 -0.6605  2.2505
24309SOL    HW279533   9.515   5.164   7.610 -0.5268 -0.5612 -0.3276
24310SOL     OW79534  11.911   0.181   3.348  0.2905 -0.5170  0.7862
24310SOL    HW179535  11.890   0.220   3.432 -0.4292  1.0941 -0.1118
24310SOL    HW279536  11.838   0.204   3.291  2.0764  0.9701 -1.0609
24311SOL     OW79537   3.198   2.259   5.700 -0.1059  0.0177  0.2780
24311SOL    HW179538   3.171   2.316   5.628  1.2727  0.1349 -0.1841
24311SOL    HW279539   3.162   2.300   5.779  0.9441  1.6159 -0.0345
24312SOL     OW79540   2.187   6.667   2.512  0.4723 -0.0968  0.1318
24312SOL    HW179541   2.275   6.662   2.551  0.1805 -1.1579  0.7035
24312SOL    HW279542   2.137   6.599   2.558 -0.3818 -0.1588 -0.8621
24313SOL     OW79543   7.510  10.730   4.498  0.2370  0.2913  0.3379
24313SOL    HW179544   7.444  10.799   4.485  0.1908  0.6491  2.2020
24313SOL    HW279545   7.464  10.649   4.475 -1.0663  0.4833  2.1049
24314SOL     OW79546   0.553   0.285   2.244  0.3624  0.0097  0.4550
24314SOL    HW179547   0.597   0.312   2.324 -1.1203  0.0622  1.2827
24314SOL    HW279548   0.501   0.361   2.218  1.1267  0.1269 -0.7839
24315SOL     OW79549   6.517   0.652   9.057  0.1953 -0.2839  0.3342
24315SOL    HW179550   6.474   0.715   8.999 -1.2683 -0.7481  0.8470
24315SOL    HW279551   6.604   0.640   9.020 -0.0488  0.8503 -0.6684
24316SOL     OW79552   5.422   1.846   0.051  0.2279  0.3176  0.0906
24316SOL    HW179553   5.379   1.764   0.027  0.8725  0.3421 -1.2634
24316SOL    HW279554   5.405   1.856   0.144 -1.1584 -0.5734 -0.0418
24317SOL     OW79555   9.143  10.123   0.834 -0.5091 -0.9502  0.4598
24317SOL    HW179556   9.183  10.036   0.828 -1.7368 -1.5045  0.0054
24317SOL    HW279557   9.141  10.155   0.744  1.0810  0.1224  0.7581
24318SOL     OW79558   8.139  11.481   7.794  0.2154  0.0255  0.3447
24318SOL    HW179559   8.094  11.397   7.795  0.2030  0.0417  1.5563
24318SOL    HW279560   8.069  11.546   7.794  0.2045  0.0788 -1.2759
24319SOL     OW79561   5.083   9.534   4.272 -0.0841  0.0921 -0.5411
24319SOL    HW179562   5.137   9.613   4.271 -1.5210  1.1129 -0.9834
24319SOL    HW279563   5.036   9.538   4.355  0.1329 -0.5370 -0.3768
24320SOL     OW79564   3.768  10.239   8.389  0.0217  0.2996  0.2386
24320SOL    HW179565   3.763  10.145   8.406 -0.0974  0.2598 -0.0115
24320SOL    HW279566   3.695  10.257   8.329  0.5404  0.3986 -0.3805
24321SOL     OW79567   6.679   0.981   8.392  0.1535 -0.1591  0.2229
24321SOL    HW179568   6.658   0.984   8.298  0.4704 -0.6129  0.1368
24321SOL    HW279569   6.768   0.947   8.395  1.0316  1.9865  0.5700
24322SOL     OW79570   5.815   1.167   1.448 -0.2891  0.3482 -0.0596
24322SOL    HW179571   5.777   1.083   1.423  0.1768  0.5138 -1.4014
24322SOL    HW279572   5.882   1.184   1.383 -0.8791  2.1111 -0.2729
24323SOL     OW79573   1.061   6.574   4.555  0.7440 -0.2520  0.1064
24323SOL    HW179574   1.118   6.501   4.582  1.1629 -0.2672 -0.7995
24323SOL    HW279575   1.095   6.650   4.602  2.0956 -0.0793 -1.0848
24324SOL     OW79576   5.433   2.114   6.667 -0.1765 -0.7186  0.1882
24324SOL    HW179577   5.524   2.142   6.658  0.0664 -1.7634 -0.8269
24324SOL    HW279578   5.420   2.106   6.762  0.2410  1.0777  0.4413
24325SOL     OW79579   6.742  11.149   5.524 -0.0117  0.1335  0.6875
24325SOL    HW179580   6.695  11.072   5.492  1.7111 -0.3620 -0.8111
24325SOL    HW279581   6.815  11.160   5.463  1.2445  1.4563  2.3063
24326SOL     OW79582   1.901   6.818   6.350  0.5663 -0.1915  0.0154
24326SOL    HW179583   1.973   6.794   6.292 -0.5340 -1.3333 -0.9265
24326SOL    HW279584   1.882   6.738   6.399  0.8182  0.4858  1.2512
24327SOL     OW79585   7.566   6.200   1.067  0.0269  0.0443  0.2429
24327SOL    HW179586   7.472   6.189   1.055 -0.2064  0.4788  1.4532
24327SOL    HW279587   7.589   6.132   1.131  0.3491  0.5199  0.6392
24328SOL     OW79588   8.149   6.557   0.018  0.0071 -0.2458 -0.5273
24328SOL    HW179589   8.207   6.611   0.071  0.8117  0.3739 -1.9714
24328SOL    HW279590   8.154   6.470   0.057  1.3736 -0.0391 -0.1836
24329SOL     OW79591   0.604   9.036   6.550 -0.3331 -0.0495 -0.2751
24329SOL    HW179592   0.510   9.025   6.535 -0.3393  1.1838 -1.3503
24329SOL    HW279593   0.633   8.951   6.584 -1.7847 -0.5196 -0.1353
24330SOL     OW79594   4.917   3.998  10.529  0.0737  0.3085 -0.2981
24330SOL    HW179595   4.839   3.985  10.476 -0.1057  1.6875 -0.4018
24330SOL    HW279596   4.887   3.985  10.619 -0.2295  0.5852 -0.3557
24331SOL     OW79597  11.288  12.623   6.783 -0.2598 -0.2375 -0.2583
24331SOL    HW179598  11.352  12.568   6.738  0.9156 -0.4765  1.6033
24331SOL    HW279599  11.237  12.562   6.837 -2.7485 -0.1857 -2.3129
24332SOL     OW79600   5.832   0.600   4.314  0.7672 -0.9995  0.0861
24332SOL    HW179601   5.896   0.670   4.326 -0.6887  0.5208 -0.6081
24332SOL    HW279602   5.830   0.586   4.220 -0.5260 -0.3812 -0.0041
24333SOL     OW79603  12.768   2.873  12.311 -0.5082 -0.0718 -0.2338
24333SOL    HW179604  12.845   2.823  12.284  0.0078 -0.2163  1.4085
24333SOL    HW279605  12.798   2.927  12.384 -1.8355  0.2930  0.0792
24334SOL     OW79606  10.905   1.735   9.136  0.4218 -0.8832 -0.1997
24334SOL    HW179607  10.942   1.821   9.157 -1.0542 -0.6341  1.5566
24334SOL    HW279608  10.914   1.728   9.041  2.1715  0.4318 -0.1907
24335SOL     OW79609  11.777   3.543   0.516  0.0176  0.0593 -0.3600
24335SOL    HW179610  11.842   3.518   0.582 -1.0427  0.3577  0.8368
24335SOL    HW279611  11.791   3.636   0.502  0.3873 -0.0503 -0.7183
24336SOL     OW79612   6.277   9.746   3.609 -0.0937  0.0339 -0.2085
24336SOL    HW179613   6.247   9.655   3.615 -0.4046  0.1936  0.6777
24336SOL    HW279614   6.364   9.746   3.650  0.9598 -0.3205 -2.2939
24337SOL     OW79615  10.522   5.906  11.552  0.2918 -0.2195 -0.1340
24337SOL    HW179616  10.576   5.827  11.547 -0.6336 -0.8207 -0.8829
24337SOL    HW279617  10.504   5.928  11.461  1.1520  1.3102  0.0263
24338SOL     OW79618   4.260  11.654   3.642  0.2699 -0.1600 -0.0871
24338SOL    HW179619   4.208  11.603   3.704 -0.1077 -0.3180 -0.5210
24338SOL    HW279620   4.248  11.745   3.669  1.2133 -0.3096  0.8942
24339SOL     OW79621   1.722  12.345   1.669 -0.3247  0.7847 -0.5952
24339SOL    HW179622   1.698  12.381   1.754  1.9327 -0.0812  0.4888
24339SOL    HW279623   1.817  12.337   1.672 -0.3666 -1.4560 -2.3035
24340SOL     OW79624   5.873   7.133   6.822  0.2896  0.5841 -0.0827
24340SOL    HW179625   5.952   7.160   6.775  0.6721  0.5608  0.5333
24340SOL    HW279626   5.801   7.148   6.761  0.7934  0.4389 -0.7138
24341SOL     OW79627   8.278   6.653   4.769  0.2224  0.0341  0.4123
24341SOL    HW179628   8.208   6.617   4.715  0.6580  1.3228 -1.0838
24341SOL    HW279629   8.354   6.598   4.749  0.8252  1.5342 -1.6789
24342SOL     OW79630  11.502   4.527   5.700 -0.1763  0.1452  0.0567
24342SOL    HW179631  11.560   4.479   5.759 -0.2262  0.2254  0.1709
24342SOL    HW279632  11.480   4.607   5.748  3.1524  2.3159 -1.6169
24343SOL     OW79633   9.892   3.814  11.346  0.2382 -0.1381 -1.0237
24343SOL    HW179634   9.962   3.751  11.362  0.6327  0.7700  1.1170
24343SOL    HW279635   9.937   3.893  11.316  0.0396  0.1509 -0.5636
24344SOL     OW79636   6.095   0.345   8.611 -0.5054 -0.4357  0.0377
24344SOL    HW179637   6.157   0.342   8.684  2.0058  0.2675 -1.9253
24344SOL    HW279638   6.012   0.371   8.651  0.7355 -0.1462  2.6329
24345SOL     OW79639   6.001   3.394   8.937 -0.3142  0.0368  0.5836
24345SOL    HW179640   5.966   3.450   9.006  0.0353 -0.3441  1.0754
24345SOL    HW279641   5.928   3.338   8.911 -1.7653  2.9419 -2.3357
24346SOL     OW79642   5.503  10.292  12.556  0.1792  0.2504 -0.1411
24346SOL    HW179643   5.498  10.275  12.462  1.2993  0.1331 -0.1823
24346SOL    HW279644   5.438  10.233  12.594 -1.2975  1.2719 -0.9400
24347SOL     OW79645   2.353   4.840   5.635 -0.2980 -0.5462  0.3707
24347SOL    HW179646   2.406   4.894   5.694 -0.7889 -0.4766  0.7551
24347SOL    HW279647   2.319   4.769   5.690 -1.2732 -0.1324  0.3277
24348SOL     OW79648   6.391   0.512   3.876 -0.0603  0.2220 -0.1196
24348SOL    HW179649   6.348   0.586   3.833  3.0563  2.1929 -0.1625
24348SOL    HW279650   6.467   0.493   3.821  1.1676 -0.6074  1.7595
24349SOL     OW79651   0.260  10.123   5.423  0.2264 -0.1173  0.3590
24349SOL    HW179652   0.336  10.165   5.381 -0.4628  0.8483  0.0225
24349SOL    HW279653   0.286  10.111   5.514  1.9221 -2.6394 -0.3414
24350SOL     OW79654   9.154   4.140  12.545 -0.4065 -0.0903 -0.9005
24350SOL    HW179655   9.061   4.126  12.525 -0.0751 -2.4276 -1.0111
24350SOL    HW279656   9.153   4.174  12.635 -1.3390 -2.3152  0.0132
24351SOL     OW79657  11.707   3.385   4.689 -0.1945 -0.6248  0.0327
24351SOL    HW179658  11.635   3.445   4.669  1.2085  0.4522 -2.1396
24351SOL    HW279659  11.743   3.417   4.772 -0.3299  0.7019 -0.4025
24352SOL     OW79660  12.410   6.795   2.467  0.0499  0.5603 -0.0618
24352SOL    HW179661  12.403   6.784   2.561  0.5713 -0.4227 -0.1247
24352SOL    HW279662  12.473   6.728   2.439 -1.3063 -0.2753 -1.3065
24353SOL     OW79663   8.870   0.062  10.756  0.1167 -0.6111  0.1413
24353SOL    HW179664   8.857   0.078  10.663  1.0563 -1.6622 -0.2002
24353SOL    HW279665   8.948   0.113  10.778 -0.7055  0.4839  0.6296
24354SOL     OW79666   3.874   0.916   3.710 -0.7386 -0.8139 -0.2813
24354SOL    HW179667   3.816   0.878   3.776 -0.7313 -2.7658 -1.3201
24354SOL    HW279668   3.819   0.924   3.632 -0.7186  1.3435 -0.1310
24355SOL     OW79669  10.400   6.766   2.403 -0.1646 -0.1907  0.1321
24355SOL    HW179670  10.471   6.752   2.340  1.3772 -0.0610  1.7375
24355SOL    HW279671  10.429   6.719   2.482 -0.9722  1.4248  1.4449
24356SOL     OW79672  12.440   1.576  12.111  0.6801 -0.4276  0.0950
24356SOL    HW179673  12.522   1.617  12.140  1.4670 -1.4258 -0.6255
24356SOL    HW279674  12.451   1.484  12.136 -0.3066 -0.5335  0.1449
24357SOL     OW79675   3.076  10.190   1.237 -0.5896  0.0968 -0.3778
24357SOL    HW179676   3.112  10.274   1.211  1.9714 -0.4237  1.2445
24357SOL    HW279677   3.138  10.154   1.300 -2.0651 -2.6051 -0.2871
24358SOL     OW79678   3.366   5.347  10.151 -0.1508 -0.1825  0.1735
24358SOL    HW179679   3.390   5.424  10.202  0.6312 -0.1142 -0.2887
24358SOL    HW279680   3.443   5.328  10.098 -0.3942 -1.1775  0.1551
24359SOL     OW79681   1.658  12.718  10.104  0.0619  0.5771  0.0593
24359SOL    HW179682   1.706  12.771  10.041  0.1044  1.1387  0.5569
24359SOL    HW279683   1.635  12.638  10.056  0.7296  0.6801 -0.4459
24360SOL     OW79684   3.408   3.111  10.667  0.4591 -0.4265  0.2110
24360SOL    HW179685   3.402   3.117  10.571 -1.1834 -2.8064  0.0709
24360SOL    HW279686   3.317   3.119  10.697  0.8466 -0.6729  1.4941
24361SOL     OW79687   0.830  11.322  10.982  0.1863  0.0144  0.1714
24361SOL    HW179688   0.891  11.332  11.056  0.0042 -0.5746  0.3998
24361SOL    HW279689   0.805  11.230  10.983 -1.4149  0.4273  0.6337
24362SOL     OW79690   2.551   8.805  10.331  0.2269 -0.4054 -0.2170
24362SOL    HW179691   2.465   8.798  10.290 -0.9922  0.8971  1.9192
24362SOL    HW279692   2.557   8.728  10.387  0.0824 -0.1030  0.2243
24363SOL     OW79693   7.990  10.075   8.590 -0.7848 -0.1654 -0.0237
24363SOL    HW179694   7.965  10.013   8.659  2.3191  1.5862  3.0037
24363SOL    HW279695   7.977  10.161   8.630  2.1532  0.9182 -1.1521
24364SOL     OW79696   8.701  10.766   1.709  0.1199  0.1451 -0.2628
24364SOL    HW179697   8.664  10.785   1.623 -0.8623  0.5417  0.2302
24364SOL    HW279698   8.668  10.679   1.731 -2.3872  1.3366  1.0959
24365SOL     OW79699   2.625   7.815   3.238  0.4403 -0.2336 -0.2920
24365SOL    HW179700   2.611   7.889   3.179  0.9691 -0.5247 -0.7853
24365SOL    HW279701   2.702   7.770   3.203 -0.0797 -1.2229 -0.2002
24366SOL     OW79702  10.340   1.303   9.756 -0.1359 -0.0227  0.1563
24366SOL    HW179703  10.434   1.286   9.754 -0.2984 -0.9509 -0.3282
24366SOL    HW279704  10.332   1.397   9.743  0.6892 -0.1054 -1.0963
24367SOL     OW79705  12.046   1.765   0.317 -0.3015 -0.0595 -0.5099
24367SOL    HW179706  11.980   1.792   0.381 -0.2473 -0.2884 -0.3528
24367SOL    HW279707  12.003   1.698   0.265 -0.7432  0.9777 -1.5092
24368SOL     OW79708   2.572   9.075   2.959  0.1083 -0.0384  0.6111
24368SOL    HW179709   2.581   9.098   3.052 -0.9119  2.2928  0.2058
24368SOL    HW279710   2.633   9.133   2.914 -0.3512 -0.2301 -0.2750
24369SOL     OW79711  12.598  11.536   8.865 -0.1766 -0.2138  0.7938
24369SOL    HW179712  12.632  11.490   8.789 -0.0242  1.4221 -0.1879
24369SOL    HW279713  12.675  11.579   8.903 -0.7381  1.8352 -0.2390
24370SOL     OW79714  10.990   9.418  10.616 -0.2451 -0.0337  0.3581
24370SOL    HW179715  11.031   9.501  10.639 -0.2755 -0.0928  0.6356
24370SOL    HW279716  11.034   9.354  10.672 -1.1412 -0.0047  1.1304
24371SOL     OW79717   8.972   5.704  10.778  0.7564 -0.1314 -0.3420
24371SOL    HW179718   8.889   5.688  10.823  2.1825 -0.1635  2.4482
24371SOL    HW279719   8.975   5.637  10.710 -0.4140 -1.7122  1.0691
24372SOL     OW79720   7.421   0.515   1.089 -0.1728  0.4314  0.2809
24372SOL    HW179721   7.399   0.506   1.182 -1.5671  0.3934 -0.0337
24372SOL    HW279722   7.362   0.583   1.057 -0.4940 -0.3533 -0.8265
24373SOL     OW79723   1.284   2.993   1.712  0.3553 -0.0423 -0.1159
24373SOL    HW179724   1.224   2.974   1.784 -1.0746  1.4022 -0.8477
24373SOL    HW279725   1.364   3.023   1.755  0.5980 -2.0027  0.8904
24374SOL     OW79726   2.586   4.499   4.023  0.2510 -0.2171  0.1418
24374SOL    HW179727   2.658   4.552   3.989 -0.3722  1.4128  1.2630
24374SOL    HW279728   2.624   4.412   4.035  1.0144 -0.3971 -2.7938
24375SOL     OW79729   8.351   1.847  11.613  0.0279  0.0698 -0.2600
24375SOL    HW179730   8.320   1.807  11.694 -0.8397  0.2715 -0.4857
24375SOL    HW279731   8.426   1.899  11.640  0.3974 -0.6909  0.2412
24376SOL     OW79732   7.285   1.513   5.951  0.0572 -0.2086  0.4764
24376SOL    HW179733   7.331   1.434   5.922  0.9728 -0.0832  1.5104
24376SOL    HW279734   7.322   1.532   6.037  0.1024  1.5432  0.1128
24377SOL     OW79735  11.630  11.618  10.434 -0.1059  0.2667 -0.0496
24377SOL    HW179736  11.574  11.645  10.361 -0.8309  0.3919  0.5389
24377SOL    HW279737  11.684  11.694  10.452 -1.0100  0.7977  0.5394
24378SOL     OW79738   2.100   6.171  12.035  0.4100  0.2595  0.1640
24378SOL    HW179739   2.042   6.116  11.983  0.9300 -0.4534  0.3361
24378SOL    HW279740   2.128   6.116  12.108 -0.3206  1.2370  1.2413
24379SOL     OW79741   9.397   5.843   9.227  0.4347 -0.0398  0.1449
24379SOL    HW179742   9.412   5.749   9.211 -0.7843 -0.2479  0.1684
24379SOL    HW279743   9.485   5.882   9.223  0.9960 -1.2256  0.4338
24380SOL     OW79744   7.871   9.917   9.631 -0.3894  0.2508  0.0603
24380SOL    HW179745   7.893   9.859   9.558  0.2200 -0.0657  0.4862
24380SOL    HW279746   7.938   9.986   9.627 -0.6528  0.5072  0.0246
24381SOL     OW79747   2.008   5.189  11.407 -0.2883 -0.2096  0.7712
24381SOL    HW179748   1.933   5.226  11.452  0.8078  0.4128  2.1667
24381SOL    HW279749   2.058   5.265  11.377  0.0228 -0.6092  0.2470
24382SOL     OW79750  11.682   5.873   2.543 -0.6008  0.1914 -0.4356
24382SOL    HW179751  11.602   5.894   2.496 -2.3258 -0.3623  2.0151
24382SOL    HW279752  11.699   5.949   2.598  0.8376  0.4659 -1.2092
24383SOL     OW79753  10.141   0.209  10.200 -0.1659 -0.5800  0.0314
24383SOL    HW179754  10.099   0.295  10.197  0.6783 -0.1662 -0.3939
24383SOL    HW279755  10.124   0.178  10.288  0.6669  0.6358  0.6572
24384SOL     OW79756   7.576   8.702   2.829 -0.2495 -0.2644  0.4628
24384SOL    HW179757   7.518   8.739   2.762  0.5431 -2.4061 -1.5676
24384SOL    HW279758   7.663   8.708   2.790  0.5150  0.2244  2.1922
24385SOL     OW79759   2.852   4.640   6.053  0.9804  0.4359  0.5689
24385SOL    HW179760   2.819   4.714   6.105 -1.3737 -0.9611  1.2283
24385SOL    HW279761   2.865   4.571   6.118 -0.1067 -0.7345 -0.4229
24386SOL     OW79762   4.391   0.843   2.793 -0.6641  0.1568  0.6266
24386SOL    HW179763   4.454   0.825   2.863 -1.6129  0.4197  1.5934
24386SOL    HW279764   4.318   0.783   2.810 -1.8467  1.6679  1.1784
24387SOL     OW79765   4.444   8.143   9.834 -0.2495  0.5781  0.1316
24387SOL    HW179766   4.535   8.143   9.865 -1.2558  0.9720  3.5011
24387SOL    HW279767   4.398   8.088   9.898 -2.3636  0.1828 -1.6426
24388SOL     OW79768  12.065   3.579   0.156 -0.1180 -0.5053 -0.6186
24388SOL    HW179769  12.073   3.509   0.221  0.3917 -0.8363 -1.0312
24388SOL    HW279770  12.045   3.534   0.075  1.1979 -0.2577 -1.0940
24389SOL     OW79771   3.587   5.787   5.816 -0.2727 -0.1078  0.2938
24389SOL    HW179772   3.629   5.710   5.855  0.5075  0.2374  0.1611
24389SOL    HW279773   3.530   5.752   5.747 -2.4271 -0.8177  2.3067
24390SOL     OW79774   6.532   0.691   7.411  0.6404 -0.4486  0.8674
24390SOL    HW179775   6.438   0.699   7.430  0.3127  0.8562 -1.0612
24390SOL    HW279776   6.558   0.609   7.454 -1.5101 -1.1833  0.8930
24391SOL     OW79777   2.970   5.350  11.646 -0.3211  0.0452 -0.0515
24391SOL    HW179778   2.883   5.312  11.631  0.3227 -1.9699  1.0396
24391SOL    HW279779   2.961   5.395  11.730 -0.4367  0.2678 -0.1822
24392SOL     OW79780   0.093   6.106   3.768  0.0752 -0.7028 -0.1276
24392SOL    HW179781   0.119   6.014   3.761  1.9824 -0.1755 -0.3308
24392SOL    HW279782   0.081   6.121   3.862 -0.5666 -1.2242 -0.1188
24393SOL     OW79783   7.068   3.293   6.913 -0.3825  0.2477 -0.1536
24393SOL    HW179784   6.994   3.252   6.958 -0.1130  0.4489  0.4803
24393SOL    HW279785   7.131   3.312   6.982  0.2339  0.1480 -0.6823
24394SOL     OW79786  11.355   1.143   1.747  0.2935 -0.0960 -0.3796
24394SOL    HW179787  11.350   1.048   1.755  0.4911 -0.0931 -0.2026
24394SOL    HW279788  11.387   1.173   1.832  1.4722  0.0180 -0.8340
24395SOL     OW79789   1.682   3.292  12.242  0.6771 -0.1512 -0.5026
24395SOL    HW179790   1.707   3.314  12.153  1.6448  1.8571  0.2064
24395SOL    HW279791   1.763   3.265  12.284  0.6671  1.0056  0.3178
24396SOL     OW79792   6.906   6.227   2.895  0.4500 -0.4754 -0.1933
24396SOL    HW179793   6.894   6.272   2.979 -1.0677  1.2978 -1.2769
24396SOL    HW279794   6.995   6.191   2.900  0.4672 -0.2482  2.0763
24397SOL     OW79795   0.322   3.280  11.977 -0.2979  0.2511  0.1105
24397SOL    HW179796   0.328   3.358  11.923  0.1078 -0.0079 -0.2215
24397SOL    HW279797   0.228   3.261  11.982 -0.3593  0.4678 -0.2250
24398SOL     OW79798   7.038   4.209   3.018 -0.0931  0.6846  0.1027
24398SOL    HW179799   6.957   4.195   2.969 -0.0356  1.8924 -0.3660
24398SOL    HW279800   7.097   4.251   2.955  1.0838 -0.5840  0.2881
24399SOL     OW79801   7.243   0.633  12.358 -0.6343  0.0410  0.7360
24399SOL    HW179802   7.280   0.654  12.444  0.4299  1.3232 -0.0093
24399SOL    HW279803   7.245   0.716  12.310 -1.9178 -0.4900 -0.2905
24400SOL     OW79804  11.422   8.373  10.104  0.2893  0.2805  0.9952
24400SOL    HW179805  11.500   8.360  10.050 -0.1168 -0.1076  0.4944
24400SOL    HW279806  11.370   8.438  10.056 -0.1775 -0.2308  0.7909
24401SOL     OW79807  10.698   6.885   3.546 -0.0499 -0.2626 -0.1206
24401SOL    HW179808  10.663   6.827   3.478 -1.3399 -0.1351  0.4026
24401SOL    HW279809  10.692   6.973   3.508 -1.2494 -0.1350  0.3154
24402SOL     OW79810   0.590   1.083   3.264 -0.2872 -0.4228  0.0513
24402SOL    HW179811   0.668   1.099   3.317 -0.2868  1.5768 -0.4896
24402SOL    HW279812   0.528   1.042   3.325  1.0564 -1.8189  0.5533
24403SOL     OW79813   3.206   7.268   1.916  0.0882 -0.0559 -0.0547
24403SOL    HW179814   3.128   7.262   1.971  1.6385  0.0001  2.3196
24403SOL    HW279815   3.259   7.192   1.942 -0.2808 -1.7590 -3.6426
24404SOL     OW79816   4.766   5.990   5.588 -0.5507 -0.5102  0.2277
24404SOL    HW179817   4.761   6.042   5.508  0.2545 -0.5587  0.1362
24404SOL    HW279818   4.834   5.924   5.570  1.0299  0.6673  1.6006
24405SOL     OW79819   5.295  12.309   4.804  0.0668 -0.0113 -0.3393
24405SOL    HW179820   5.232  12.238   4.792  0.0999 -0.1599  0.3442
24405SOL    HW279821   5.297  12.353   4.719 -1.5169  0.4601 -0.1593
24406SOL     OW79822  11.657   1.272  10.696 -0.1667 -0.1763  0.4281
24406SOL    HW179823  11.674   1.325  10.618 -0.9184  1.3039  1.2178
24406SOL    HW279824  11.671   1.332  10.769  1.5546 -1.7977  1.5322
24407SOL     OW79825  11.865   0.666   8.439 -0.3504  0.0454  0.3808
24407SOL    HW179826  11.822   0.723   8.375 -0.3580 -0.2005  0.1690
24407SOL    HW279827  11.915   0.604   8.387 -0.2529 -0.0747  0.6159
24408SOL     OW79828   7.394   7.875   6.792 -0.0634  0.2343  0.0120
24408SOL    HW179829   7.458   7.873   6.863  0.6151 -0.3779 -0.5947
24408SOL    HW279830   7.360   7.964   6.793 -0.1088  0.2193  1.1386
24409SOL     OW79831   1.625   7.211  11.866 -0.5591 -0.3157  0.1215
24409SOL    HW179832   1.677   7.290  11.881 -0.8887  0.0251 -0.4944
24409SOL    HW279833   1.688   7.147  11.833 -0.5554  0.1742 -0.8623
24410SOL     OW79834   7.482   4.396   5.445  0.5353  0.1895 -0.2298
24410SOL    HW179835   7.492   4.304   5.421 -0.0214 -0.3609  1.4797
24410SOL    HW279836   7.388   4.407   5.460  0.3739  1.4449 -1.7998
24411SOL     OW79837   3.384   3.131   3.480 -0.5871  0.6188 -0.0107
24411SOL    HW179838   3.456   3.176   3.526 -0.0326  0.4174 -0.6656
24411SOL    HW279839   3.306   3.157   3.528  0.0316 -0.0914  1.4459
24412SOL     OW79840  12.363   8.388   0.383  0.0468  0.0217 -0.3667
24412SOL    HW179841  12.387   8.405   0.292 -0.4051 -2.8071 -1.1344
24412SOL    HW279842  12.414   8.450   0.434  0.5679  1.4730 -2.5247
24413SOL     OW79843   9.899   0.307   2.470 -0.1749  0.3232  0.0290
24413SOL    HW179844   9.969   0.252   2.506 -1.3924 -0.1707  1.7584
24413SOL    HW279845   9.822   0.285   2.522 -2.1067 -0.4197 -2.8825
24414SOL     OW79846   3.445  11.424  12.258 -0.2895 -0.5824 -0.8303
24414SOL    HW179847   3.393  11.395  12.334  0.0466  1.0804  0.0828
24414SOL    HW279848   3.489  11.345  12.228  0.1109 -1.1752  1.1688
24415SOL     OW79849   7.259  11.431   1.516  0.2634 -0.1663  0.3291
24415SOL    HW179850   7.330  11.485   1.479  0.6601 -0.8642  0.0500
24415SOL    HW279851   7.198  11.419   1.443 -0.6677  1.2488  0.8234
24416SOL     OW79852   9.652  10.765   1.731  0.1044 -0.0818 -0.4523
24416SOL    HW179853   9.592  10.840   1.728  1.1130  0.7197 -1.4371
24416SOL    HW279854   9.714  10.782   1.660  1.3922 -0.9816  0.4281
24417SOL     OW79855  10.255   5.034   1.429  0.3439 -0.2297 -0.0302
24417SOL    HW179856  10.273   5.039   1.335 -0.4788  1.0692 -0.1315
24417SOL    HW279857  10.189   5.101   1.445 -0.6905 -1.4789  1.2060
24418SOL     OW79858   9.386   0.289   7.189 -0.3527  0.0422  1.0107
24418SOL    HW179859   9.387   0.344   7.110 -0.6014 -0.4130  0.6819
24418SOL    HW279860   9.338   0.340   7.254 -1.2478 -0.1022  0.4753
24419SOL     OW79861   2.506   6.104   2.367  0.1398  0.3881 -0.6268
24419SOL    HW179862   2.546   6.166   2.427  0.6609  1.0474 -1.6313
24419SOL    HW279863   2.414   6.100   2.394  0.4229  0.4654  0.3685
24420SOL     OW79864  11.964   0.548   7.621  0.3396 -0.1007  0.6708
24420SOL    HW179865  11.870   0.532   7.623  0.3080  0.0407  0.3953
24420SOL    HW279866  12.001   0.466   7.586  0.1949  0.3227 -0.5370
24421SOL     OW79867   9.678   2.986  10.894  0.5269 -0.1240  0.6923
24421SOL    HW179868   9.721   3.040  10.961  0.3535  0.4273  0.3644
24421SOL    HW279869   9.749   2.932  10.859  0.7082 -0.0984  1.0117
24422SOL     OW79870   3.389   5.739   6.008  0.4351  0.2658 -0.3306
24422SOL    HW179871   3.361   5.663   6.060 -0.1475 -1.1067 -2.5433
24422SOL    HW279872   3.476   5.716   5.976 -0.5879 -0.4805 -2.7575
24423SOL     OW79873  11.299  11.953   5.557  0.0460 -0.0114 -0.4235
24423SOL    HW179874  11.298  11.954   5.461  2.1107 -0.8506 -0.4998
24423SOL    HW279875  11.326  12.041   5.581 -0.9205  0.3387 -0.5750
24424SOL     OW79876   3.023  10.522   1.071  0.1699  0.2254 -0.3301
24424SOL    HW179877   3.109  10.543   1.109 -0.3750 -0.5035  1.4083
24424SOL    HW279878   2.963  10.583   1.114 -0.5084 -0.8244  0.2520
24425SOL     OW79879   2.457   0.237   4.046  0.2282 -0.3010 -0.0722
24425SOL    HW179880   2.373   0.205   4.081  0.6279 -1.4286 -0.0981
24425SOL    HW279881   2.523   0.179   4.084  0.8713 -0.2708 -1.0792
24426SOL     OW79882   3.306   6.588   0.755 -0.0471 -0.2946  0.3621
24426SOL    HW179883   3.239   6.627   0.811  0.8225  1.9193 -0.0590
24426SOL    HW279884   3.387   6.597   0.806  1.1695  3.7047 -1.8861
24427SOL     OW79885   2.598   8.793   0.617  0.0866 -0.0260 -0.7738
24427SOL    HW179886   2.690   8.813   0.599  0.1671  2.7108  1.8972
24427SOL    HW279887   2.600   8.747   0.701 -0.9419 -1.4407 -1.4792
24428SOL     OW79888  10.885  10.552   6.268  0.2817 -0.8670  0.3069
24428SOL    HW179889  10.934  10.484   6.222  1.1196 -0.4158  0.5070
24428SOL    HW279890  10.953  10.610   6.303 -0.3598 -0.7519  1.4100
24429SOL     OW79891   2.651   4.317   3.653  0.6035 -0.7888  0.3749
24429SOL    HW179892   2.722   4.336   3.592  1.3589 -3.4223  0.3058
24429SOL    HW279893   2.689   4.334   3.739  0.2032  0.9596  0.2323
24430SOL     OW79894   3.093   3.403   8.073  0.4008 -0.2858  1.0292
24430SOL    HW179895   3.036   3.421   8.147 -2.5537  1.9833 -1.4985
24430SOL    HW279896   3.093   3.485   8.023  0.4848 -2.2310 -2.4797
24431SOL     OW79897   8.311   5.804   9.433 -0.0194  0.0275 -0.1346
24431SOL    HW179898   8.374   5.837   9.498  0.4331 -0.6325 -0.2283
24431SOL    HW279899   8.328   5.856   9.355 -0.4752  0.7354  0.2215
24432SOL     OW79900   9.952   7.115   2.584 -0.4463 -0.0106  0.2097
24432SOL    HW179901   9.890   7.178   2.548  0.3097  1.4526  1.3202
24432SOL    HW279902   9.944   7.038   2.528  0.5915  2.0232 -3.0135
24433SOL     OW79903   6.544   2.285   8.476 -0.3168  0.3406 -0.2730
24433SOL    HW179904   6.638   2.294   8.463 -0.1081  0.7276  1.2344
24433SOL    HW279905   6.522   2.201   8.435  0.4009  0.8855 -1.8472
24434SOL     OW79906  11.231   0.949   0.822  0.2913 -0.5424 -0.1074
24434SOL    HW179907  11.195   0.878   0.768 -0.5164  0.0900 -0.4137
24434SOL    HW279908  11.290   0.996   0.763 -1.9007  1.2127 -1.0443
24435SOL     OW79909   2.738   6.265   4.690  0.6685  0.1772 -0.3305
24435SOL    HW179910   2.742   6.359   4.671  0.7262 -0.2019 -2.4279
24435SOL    HW279911   2.648   6.250   4.719 -0.3218  0.4388 -2.9961
24436SOL     OW79912   0.337   6.957   1.712  0.2799  0.1190 -0.3332
24436SOL    HW179913   0.360   6.972   1.620 -0.6899  1.0794 -0.4384
24436SOL    HW279914   0.289   6.874   1.712  1.0797 -0.3532 -0.5461
24437SOL     OW79915   2.731   4.147   4.516 -0.5550 -0.2197 -0.0452
24437SOL    HW179916   2.789   4.072   4.531 -0.1466  0.2082  0.5053
24437SOL    HW279917   2.729   4.193   4.599 -2.2512 -0.6112  0.1661
24438SOL     OW79918   3.797  10.245   3.478  0.4345 -0.1533  0.0363
24438SOL    HW179919   3.863  10.195   3.527 -0.3427 -1.1147  0.1460
24438SOL    HW279920   3.730  10.266   3.542  1.3086  2.1928  0.2873
24439SOL     OW79921   2.522   2.767   2.425  0.2470  0.1519  0.1309
24439SOL    HW179922   2.503   2.855   2.460  1.1150 -0.0725  1.2308
24439SOL    HW279923   2.544   2.715   2.503 -0.0190 -0.9874 -0.5346
24440SOL     OW79924   8.611  11.678   4.262  0.0126 -0.1636 -0.1169
24440SOL    HW179925   8.631  11.769   4.242  0.4905 -0.5290 -1.4245
24440SOL    HW279926   8.537  11.682   4.322 -0.7293  1.0733 -1.0641
24441SOL     OW79927   1.010   9.513  10.613 -0.0029  0.1323 -0.1732
24441SOL    HW179928   1.071   9.439  10.624 -1.6099 -1.2108  0.2556
24441SOL    HW279929   0.958   9.490  10.536 -1.8339 -0.2154  1.0937
24442SOL     OW79930   3.937   6.871   5.593  0.2743 -0.3580  0.3372
24442SOL    HW179931   3.877   6.938   5.561  1.3313  0.8873  0.8523
24442SOL    HW279932   3.947   6.810   5.520 -2.4382 -1.2418  0.6210
24443SOL     OW79933   1.894   5.720   6.618  0.1961 -0.1069  0.4068
24443SOL    HW179934   1.943   5.740   6.539 -0.1232  0.3800  0.3286
24443SOL    HW279935   1.939   5.644   6.656  0.3722 -0.3172 -0.2173
24444SOL     OW79936   8.173  12.205   8.948  0.8661 -0.1127  0.7069
24444SOL    HW179937   8.109  12.136   8.931 -1.1837  1.2060  2.6272
24444SOL    HW279938   8.257  12.159   8.949 -0.4971 -2.9482  3.4041
24445SOL     OW79939   7.924   1.951  10.525  0.2698  0.4573  0.1062
24445SOL    HW179940   7.889   2.029  10.570 -0.7901  0.5723 -0.8764
24445SOL    HW279941   7.952   1.894  10.597 -0.4515  1.0619  0.9060
24446SOL     OW79942   6.143   6.373   8.094  0.2030 -0.0576 -0.3201
24446SOL    HW179943   6.055   6.390   8.063  0.1805  2.6926  0.9299
24446SOL    HW279944   6.200   6.426   8.038  0.7918  0.0229  0.3263
24447SOL     OW79945   6.952   2.462   5.624  0.3171 -0.8804  0.3076
24447SOL    HW179946   7.016   2.423   5.564 -1.0272  1.0118 -2.5561
24447SOL    HW279947   6.884   2.395   5.634  0.3166 -1.0381 -0.7184
24448SOL     OW79948   3.705   5.157   1.005  0.1534  0.0598 -0.2403
24448SOL    HW179949   3.621   5.118   0.978 -0.4391 -0.0088  1.5513
24448SOL    HW279950   3.712   5.137   1.098  2.8787 -1.1545 -0.6176
24449SOL     OW79951   7.532   6.248   9.118 -0.5840  0.2327  0.2772
24449SOL    HW179952   7.444   6.284   9.131 -1.0428 -0.9682  0.7003
24449SOL    HW279953   7.567   6.237   9.207 -0.2809  0.0759  0.1399
24450SOL     OW79954  11.079   8.383  10.997 -0.1803  0.2091  0.4831
24450SOL    HW179955  11.137   8.438  10.945  0.7665 -2.5995 -1.6831
24450SOL    HW279956  11.138   8.329  11.050 -0.8570 -1.4177 -0.3740
24451SOL     OW79957  10.870   6.924   9.790  0.0499 -0.0265  0.0984
24451SOL    HW179958  10.908   6.856   9.735  2.4226 -0.1274  1.7322
24451SOL    HW279959  10.886   6.895   9.879  1.0483  2.5641  0.8637
24452SOL     OW79960  10.088   8.736   9.972  0.0565  0.4003  0.1202
24452SOL    HW179961  10.109   8.748  10.065  0.2788  2.2345 -0.1272
24452SOL    HW279962  10.007   8.785   9.959 -1.0109 -1.4066 -0.2787
24453SOL     OW79963   0.720   7.605   7.915 -0.6740 -0.0893 -0.0683
24453SOL    HW179964   0.808   7.574   7.893 -0.1993  0.0870  1.5006
24453SOL    HW279965   0.703   7.570   8.002 -1.4497  1.3037  0.3757
24454SOL     OW79966  10.793  12.565   0.862  0.1001 -0.1675 -0.3177
24454SOL    HW179967  10.883  12.573   0.892  0.1190 -1.9196  0.1541
24454SOL    HW279968  10.746  12.526   0.935 -0.6463 -0.9591 -1.1879
24455SOL     OW79969  12.017   0.132  12.354  0.1642  0.4930  0.0590
24455SOL    HW179970  11.939   0.172  12.392 -1.0863 -0.8214 -1.0065
24455SOL    HW279971  12.010   0.149  12.261  1.3538  0.6649 -0.0118
24456SOL     OW79972   3.133   8.410   1.348  0.4858  0.3687  0.4345
24456SOL    HW179973   3.091   8.496   1.355  0.0429  0.1021  1.2539
24456SOL    HW279974   3.218   8.427   1.308  0.6386  1.2663  1.1200
24457SOL     OW79975   2.060   6.493  11.525 -0.1368  0.4995 -0.3878
24457SOL    HW179976   2.090   6.545  11.599 -1.8779 -0.4714  1.0755
24457SOL    HW279977   2.098   6.406  11.539 -0.6258  0.2578 -0.5281
24458SOL     OW79978   4.193   8.066  12.004  0.1076 -0.2496  0.3482
24458SOL    HW179979   4.264   8.078  12.068 -0.2097  0.2516  0.6141
24458SOL    HW279980   4.120   8.116  12.040 -0.0965 -0.0055 -0.3839
24459SOL     OW79981  11.466   2.691   0.660  0.3110  0.0857 -0.4780
24459SOL    HW179982  11.504   2.604   0.645  1.0143  0.1294  0.9056
24459SOL    HW279983  11.499   2.717   0.746  0.7433  2.0596 -1.1894
24460SOL     OW79984   4.067  11.168   7.588 -0.5712 -0.3419 -0.3325
24460SOL    HW179985   4.144  11.130   7.630  0.3508 -0.0496 -1.6924
24460SOL    HW279986   4.035  11.099   7.531 -0.0992  0.1994 -1.2793
24461SOL     OW79987   2.464   4.113   6.887  0.0560 -0.0184  0.0029
24461SOL    HW179988   2.399   4.068   6.940 -1.2810  0.7679 -0.9073
24461SOL    HW279989   2.469   4.201   6.924 -1.2142  0.6797 -1.3603
24462SOL     OW79990  12.143   8.850   1.274 -0.0603  0.0077 -0.0575
24462SOL    HW179991  12.102   8.931   1.306 -0.5333 -0.8503  1.6402
24462SOL    HW279992  12.074   8.784   1.281  1.0438 -1.0760  1.0414
24463SOL     OW79993  12.570  12.228   8.882  0.3678  0.6489  0.1193
24463SOL    HW179994  12.478  12.205   8.894  0.4247 -0.0056 -0.6458
24463SOL    HW279995  12.600  12.172   8.811  1.2419  1.1806  0.0554
24464SOL     OW79996   0.799   8.587   8.477  0.4284 -0.3640 -0.6879
24464SOL    HW179997   0.837   8.658   8.528 -1.1436  0.3875 -0.5013
24464SOL    HW279998   0.823   8.507   8.524 -0.7037  0.2864  1.0801
24465SOL     OW79999  10.781   6.030  10.893 -0.3085  0.1368 -0.5589
24465SOL    HW180000  10.737   6.007  10.812 -0.3124 -2.6519  0.1012
24465SOL    HW280001  10.856   5.970  10.897  0.5720  1.2570  0.7765
24466SOL     OW80002   2.690   0.340   6.736  0.1376 -0.3958  0.4725
24466SOL    HW180003   2.666   0.398   6.808  2.6487  1.1750  0.1372
24466SOL    HW280004   2.622   0.354   6.670 -1.9152 -1.4723  2.2006
24467SOL     OW80005   0.217   1.399   8.316 -0.2579  0.0241 -0.7014
24467SOL    HW180006   0.196   1.474   8.261  1.6727  1.0168 -0.1780
24467SOL    HW280007   0.172   1.416   8.398  0.6056  0.9489 -0.3901
24468SOL     OW80008  12.336   4.861   7.347 -0.0745 -0.5903 -0.4996
24468SOL    HW180009  12.277   4.809   7.402 -2.1200  0.9473 -1.1276
24468SOL    HW280010  12.408   4.886   7.406 -1.4691 -0.1962  1.1046
24469SOL     OW80011   6.480   6.142   9.569  0.4139  0.6276 -0.3592
24469SOL    HW180012   6.429   6.066   9.598  1.0862  0.9418  1.8716
24469SOL    HW280013   6.421   6.216   9.579  0.9232  0.8595  1.2616
24470SOL     OW80014  11.050   6.646   6.704 -0.1120 -0.4956  0.1601
24470SOL    HW180015  10.995   6.591   6.647  0.8733  2.1225 -3.7336
24470SOL    HW280016  11.139   6.611   6.691  0.0575 -0.2409  0.6264
24471SOL     OW80017   6.610   0.627  10.061  0.0893 -0.1391 -0.1734
24471SOL    HW180018   6.694   0.623  10.017 -0.3529  0.0027 -1.0541
24471SOL    HW280019   6.593   0.721  10.071 -0.2313 -0.1570 -0.5293
24472SOL     OW80020   2.020   7.219   7.209 -0.2093 -0.3728 -0.2751
24472SOL    HW180021   1.937   7.173   7.198 -0.5536  0.4244 -1.0959
24472SOL    HW280022   2.085   7.161   7.169 -0.7564  0.2069 -2.0940
24473SOL     OW80023   8.759   9.612   4.189 -0.2722  0.0494  0.2520
24473SOL    HW180024   8.838   9.665   4.184 -0.3924  0.3621  1.3833
24473SOL    HW280025   8.706   9.642   4.115 -0.0011  0.9732  0.4137
24474SOL     OW80026   5.658   8.922   2.154  0.1251 -0.8413  0.3495
24474SOL    HW180027   5.578   8.907   2.105  0.0493 -0.6825  0.4217
24474SOL    HW280028   5.630   8.919   2.246  0.1467 -0.4827  0.3682
24475SOL     OW80029   1.760  11.593   7.564 -0.1548  0.4557 -0.1287
24475SOL    HW180030   1.728  11.506   7.541  1.0918 -0.3582  1.1313
24475SOL    HW280031   1.685  11.650   7.548 -0.9033 -0.7720 -1.2726
24476SOL     OW80032   6.921   0.508   2.037 -0.3604  0.2338  0.4808
24476SOL    HW180033   6.845   0.557   2.069 -1.1037 -0.6307  0.0749
24476SOL    HW280034   6.988   0.523   2.103 -0.4153  2.1664  0.1597
24477SOL     OW80035   5.479   0.981   2.423  0.0121 -0.1007  0.2546
24477SOL    HW180036   5.389   0.952   2.413 -0.0894 -0.3537  1.6662
24477SOL    HW280037   5.517   0.975   2.335 -1.0831 -0.8403 -0.1818
24478SOL     OW80038  11.378  10.521   3.636  0.5042  0.2958 -0.6615
24478SOL    HW180039  11.323  10.457   3.682  1.0253  0.0488 -0.3749
24478SOL    HW280040  11.465  10.509   3.674  0.2954  2.3099  0.5787
24479SOL     OW80041   5.818   2.311   0.194 -0.2343  0.3712  0.1380
24479SOL    HW180042   5.802   2.355   0.277  2.6247 -0.9057  1.5133
24479SOL    HW280043   5.780   2.224   0.206 -0.6317  0.4870 -0.2659
24480SOL     OW80044  10.588  11.648  10.096 -0.8542  0.5668  0.0273
24480SOL    HW180045  10.634  11.565  10.087  0.1783  1.0418  0.7521
24480SOL    HW280046  10.498  11.628  10.072 -1.3697 -1.5030  3.2257
24481SOL     OW80047   0.636   5.434   3.417 -0.0148 -0.0052  0.0777
24481SOL    HW180048   0.600   5.423   3.505  0.4637 -1.9109  0.0616
24481SOL    HW280049   0.680   5.352   3.398 -0.4204  0.2204 -2.1016
24482SOL     OW80050   9.719   6.807  12.335  0.4634  0.3555 -0.2591
24482SOL    HW180051   9.732   6.723  12.291  1.1190  0.7421 -0.8121
24482SOL    HW280052   9.732   6.788  12.428  1.0434 -0.0641 -0.4231
24483SOL     OW80053  10.598   8.775   4.063 -0.2250 -0.2799 -0.0586
24483SOL    HW180054  10.659   8.809   4.129  0.1541 -0.0258 -0.5327
24483SOL    HW280055  10.654   8.732   3.998 -0.7184 -2.3328  0.7900
24484SOL     OW80056   9.946   5.657   9.392 -0.3602  0.4275  0.4779
24484SOL    HW180057   9.901   5.643   9.309  0.7324  1.0477 -0.2330
24484SOL    HW280058   9.915   5.586   9.448 -1.5651  0.3487 -0.2562
24485SOL     OW80059   2.226   6.851   5.962  0.0970 -0.2818  0.3310
24485SOL    HW180060   2.205   6.760   5.982 -0.2650 -0.9102 -2.4750
24485SOL    HW280061   2.307   6.846   5.911 -0.0298  0.9628 -0.0216
24486SOL     OW80062   2.069   9.346   2.805  0.3628  0.1755  0.0988
24486SOL    HW180063   2.012   9.335   2.880 -1.6004 -0.9071 -1.4490
24486SOL    HW280064   2.077   9.257   2.768  0.2395  0.8408 -1.6426
24487SOL     OW80065  10.008   4.250   1.789  0.4788  0.2409  0.1115
24487SOL    HW180066  10.070   4.272   1.720  0.4977  1.0432  0.3720
24487SOL    HW280067   9.923   4.245   1.743  0.6686 -0.4872 -0.1777
24488SOL     OW80068   0.382  10.877   2.551 -0.7109  0.4823 -0.3427
24488SOL    HW180069   0.414  10.846   2.467  0.1259  0.1662  0.0731
24488SOL    HW280070   0.300  10.922   2.532 -1.6016 -1.3872 -1.0527
24489SOL     OW80071   6.050  11.293  11.842  0.0556 -1.0705  1.0059
24489SOL    HW180072   5.980  11.288  11.777 -0.0781  1.8543  0.8164
24489SOL    HW280073   6.130  11.295  11.790  0.0219 -0.1295  0.9753
24490SOL     OW80074   9.451   6.814  10.426  0.3087  0.1022  0.1626
24490SOL    HW180075   9.438   6.763  10.506 -0.1365 -0.3231 -0.1762
24490SOL    HW280076   9.376   6.792  10.371  1.0765 -0.3144 -0.7431
24491SOL     OW80077   9.393   4.416  11.640 -0.1437 -0.1712  0.3993
24491SOL    HW180078   9.304   4.450  11.635  0.2199  0.7145 -0.3778
24491SOL    HW280079   9.445   4.479  11.591  1.2499  0.4431  2.5156
24492SOL     OW80080   0.103   3.176  10.793 -0.3883 -0.5508  0.1916
24492SOL    HW180081   0.173   3.158  10.730  0.8280  0.1508  1.2871
24492SOL    HW280082   0.023   3.153  10.746  0.4196  0.3923 -1.7947
24493SOL     OW80083   3.083   9.676   8.473 -0.1954  0.1799 -0.0742
24493SOL    HW180084   3.099   9.761   8.432  1.4111 -0.4946 -0.9195
24493SOL    HW280085   3.043   9.623   8.403 -1.4198  0.2807  0.5203
24494SOL     OW80086  12.316   3.186   0.695  0.4370  0.0102  0.2514
24494SOL    HW180087  12.238   3.207   0.745 -0.7009  0.6703 -1.6904
24494SOL    HW280088  12.342   3.099   0.727  0.3924  0.7974  2.6296
24495SOL     OW80089   3.527  10.579  12.292  0.4320  0.3703  0.0287
24495SOL    HW180090   3.610  10.627  12.289 -0.1781  2.1360  4.2481
24495SOL    HW280091   3.461  10.648  12.288 -0.5861 -0.4087  2.0969
24496SOL     OW80092   2.760   9.257   3.500  0.7552 -0.8336 -0.3600
24496SOL    HW180093   2.814   9.316   3.550  0.2161  0.1705 -0.9268
24496SOL    HW280094   2.792   9.265   3.410  0.5094 -1.2181 -0.4875
24497SOL     OW80095  12.384  12.408   1.820 -0.2176  0.1301  0.0379
24497SOL    HW180096  12.424  12.481   1.867 -1.8142  0.6468  0.6721
24497SOL    HW280097  12.358  12.445   1.736 -2.5036  0.8039  0.9753
24498SOL     OW80098   7.305   2.526   2.961  0.5591  0.0014 -0.5723
24498SOL    HW180099   7.283   2.613   2.994 -0.1267 -1.2797  2.7317
24498SOL    HW280100   7.400   2.520   2.973  0.7764  0.5909 -1.7899
24499SOL     OW80101   7.520   1.685   5.119 -0.1816 -0.9874 -0.3012
24499SOL    HW180102   7.529   1.597   5.084 -0.6665 -1.2252  0.1753
24499SOL    HW280103   7.531   1.675   5.213  2.3659 -0.1866 -0.4250
24500SOL     OW80104   0.433   9.327   1.009  0.1189 -0.2293 -0.5783
24500SOL    HW180105   0.391   9.403   1.049  0.2834 -0.6529  0.4389
24500SOL    HW280106   0.527   9.343   1.021  0.1439 -0.7591 -0.0310
24501SOL     OW80107  11.892  10.833   0.752  0.2028  0.2153  0.0946
24501SOL    HW180108  11.867  10.926   0.751 -1.0428 -0.1060 -1.1397
24501SOL    HW280109  11.927  10.817   0.664  1.4514 -0.2434  0.6481
24502SOL     OW80110   4.888   8.649   2.077  0.0732 -0.6321  0.1914
24502SOL    HW180111   4.934   8.693   2.006 -0.5942 -1.5698 -0.8642
24502SOL    HW280112   4.799   8.683   2.072  0.3149  0.2491  1.4264
24503SOL     OW80113   0.751   8.665   5.331 -0.4016 -0.6649  0.0213
24503SOL    HW180114   0.699   8.595   5.290 -0.4995  0.3206 -1.5891
24503SOL    HW280115   0.708   8.746   5.304  0.6620  0.0908  0.5353
24504SOL     OW80116   7.549   8.252   3.323 -0.1059 -0.0819  0.2827
24504SOL    HW180117   7.479   8.259   3.258 -1.3276  1.9163  1.6849
24504SOL    HW280118   7.581   8.162   3.315 -0.0575  0.1122 -3.1472
24505SOL     OW80119   3.053  11.580  11.042 -0.2678 -0.3631 -0.5464
24505SOL    HW180120   3.024  11.489  11.043  0.0040 -0.4495 -0.2710
24505SOL    HW280121   3.111  11.588  11.118  1.3311 -0.4996 -1.6980
24506SOL     OW80122   5.089   9.661   7.139 -0.1180 -0.3754  0.2406
24506SOL    HW180123   5.065   9.750   7.111 -0.0307 -0.3849  0.1368
24506SOL    HW280124   5.085   9.609   7.059 -1.5727 -0.7656  0.5294
24507SOL     OW80125   4.143   6.288   9.421 -0.0168  0.1186  0.0903
24507SOL    HW180126   4.197   6.268   9.344  0.6529  1.0590  0.3009
24507SOL    HW280127   4.139   6.383   9.423 -0.5031  0.0898  0.9096
24508SOL     OW80128  12.156   6.263  10.700  0.1711  0.0852  0.2735
24508SOL    HW180129  12.162   6.181  10.652 -0.5314  0.0567  0.2229
24508SOL    HW280130  12.142   6.329  10.632  0.3073  0.1935  0.3501
24509SOL     OW80131   6.020   3.957  12.243 -0.1730 -0.1355  0.0352
24509SOL    HW180132   6.009   4.046  12.277 -2.2795 -1.8422  4.6964
24509SOL    HW280133   5.936   3.915  12.259  0.9978 -3.2123 -1.2033
24510SOL     OW80134   9.820   8.369  12.523 -0.3173 -0.5096 -0.1251
24510SOL    HW180135   9.915   8.362  12.529 -0.3959 -1.3030  0.3536
24510SOL    HW280136   9.799   8.345  12.433 -0.0486 -0.0553 -0.3125
24511SOL     OW80137   0.924   1.571  11.184  0.0242 -0.2204  0.2412
24511SOL    HW180138   0.851   1.571  11.245  1.0502 -0.9435  1.5102
24511SOL    HW280139   0.917   1.655  11.138 -0.5885  0.4906  1.5730
24512SOL     OW80140   3.768   9.496   1.292  0.2203  0.2452 -0.5708
24512SOL    HW180141   3.685   9.450   1.303  0.1958  0.1685 -1.0626
24512SOL    HW280142   3.743   9.588   1.284 -0.0651  0.0171 -3.2407
24513SOL     OW80143  10.163   2.576   9.518 -0.0632  0.6144 -0.8518
24513SOL    HW180144  10.134   2.565   9.608  1.2962 -0.8262 -0.5358
24513SOL    HW280145  10.163   2.671   9.503 -1.0537  0.8255  0.3868
24514SOL     OW80146  11.312   7.940   0.705  0.4446 -0.4663 -0.0993
24514SOL    HW180147  11.327   7.849   0.682  0.2922 -0.4410 -0.3017
24514SOL    HW280148  11.242   7.969   0.647 -1.2349 -0.9003  1.6139
24515SOL     OW80149   9.067   0.753   0.273  0.0250 -0.4336  0.0228
24515SOL    HW180150   9.034   0.834   0.312  0.6925 -2.0238  4.4187
24515SOL    HW280151   8.991   0.715   0.229 -1.4402  0.6216  1.5269
24516SOL     OW80152   5.198   5.863   3.519  0.0387 -0.2259  0.3240
24516SOL    HW180153   5.216   5.957   3.523  1.6372 -0.3938 -1.2647
24516SOL    HW280154   5.272   5.822   3.565 -0.9314 -0.7101  1.4914
24517SOL     OW80155   7.428  10.066  10.963  0.2470  0.4973 -0.1015
24517SOL    HW180156   7.358  10.022  11.012 -1.0698  1.3563 -1.1155
24517SOL    HW280157   7.509  10.031  10.999 -0.7057 -2.2256 -0.3857
24518SOL     OW80158   8.146   0.830   0.459 -0.0061 -0.1550 -0.0298
24518SOL    HW180159   8.072   0.793   0.508 -0.0276 -0.9339 -0.6396
24518SOL    HW280160   8.198   0.754   0.434  0.7338  0.3561 -0.0409
24519SOL     OW80161  12.345   0.591   9.565 -0.1977 -0.4072 -0.2981
24519SOL    HW180162  12.324   0.592   9.659  0.4478 -1.0533 -0.1396
24519SOL    HW280163  12.266   0.623   9.523  0.1138  1.6491  0.5739
24520SOL     OW80164   8.040   7.058  11.439 -0.4836 -0.5842  0.1923
24520SOL    HW180165   8.078   7.005  11.509 -1.4245 -0.0716  1.1253
24520SOL    HW280166   7.945   7.054  11.455 -0.6171  0.7618 -0.1673
24521SOL     OW80167   9.850   4.764   0.407 -0.6561  0.1284  0.3552
24521SOL    HW180168   9.905   4.690   0.432 -0.3979 -0.0541 -0.7082
24521SOL    HW280169   9.911   4.831   0.376 -0.9894  0.1017 -0.3902
24522SOL     OW80170   0.806   5.377  11.896  0.4703  1.0007  0.3740
24522SOL    HW180171   0.897   5.382  11.868  0.2340  2.4727 -0.1972
24522SOL    HW280172   0.794   5.453  11.953 -0.4684  0.9410  0.2695
24523SOL     OW80173   8.634  10.517   1.767  0.4505 -0.0224 -0.4214
24523SOL    HW180174   8.575  10.513   1.692 -1.8800  0.6289  1.2818
24523SOL    HW280175   8.686  10.436   1.760 -1.1775 -1.0261 -1.5725
24524SOL     OW80176   0.395   7.019  10.675 -0.0716 -0.4939  0.0782
24524SOL    HW180177   0.442   7.004  10.593  1.2659  0.0247  0.7191
24524SOL    HW280178   0.464   7.033  10.740 -1.0993 -0.9762  1.3139
24525SOL     OW80179   9.055   9.197   3.748  0.1218 -0.5717 -0.7374
24525SOL    HW180180   8.961   9.209   3.762  0.2103 -0.8014  0.1566
24525SOL    HW280181   9.082   9.137   3.817  0.6651 -1.6724 -1.8717
24526SOL     OW80182   8.563   3.465   3.892 -0.2118 -0.7721  0.0907
24526SOL    HW180183   8.580   3.547   3.846  0.7020  0.7093  2.8105
24526SOL    HW280184   8.642   3.413   3.878 -1.0166 -1.5011 -2.1028
24527SOL     OW80185   9.694  11.269   3.446 -0.2416 -0.2428  0.7524
24527SOL    HW180186   9.626  11.322   3.405 -1.1725 -0.1399  2.3416
24527SOL    HW280187   9.777  11.309   3.417 -0.8858  0.8883  0.4089
24528SOL     OW80188   1.566   7.533  11.041  0.1706  0.8227  0.4688
24528SOL    HW180189   1.659   7.508  11.047  0.3951  1.8417  1.4297
24528SOL    HW280190   1.565   7.605  10.978 -0.2777 -0.4922 -1.1145
24529SOL     OW80191   2.913   6.573  12.758 -0.0658 -0.6888 -0.1228
24529SOL    HW180192   2.969   6.512  12.710 -0.0064 -0.6408 -0.1142
24529SOL    HW280193   2.963   6.596  12.836 -0.9911 -2.3661  1.0370
24530SOL     OW80194   4.979   7.367   9.845 -0.1594  0.2700  0.2404
24530SOL    HW180195   5.050   7.418   9.806  0.4660 -0.7236  0.0494
24530SOL    HW280196   4.931   7.332   9.770 -0.7529  0.8016  0.3699
24531SOL     OW80197   9.103   1.204   1.734  0.0790 -0.1543  0.1179
24531SOL    HW180198   9.052   1.233   1.659  0.0846 -0.0091  0.1713
24531SOL    HW280199   9.068   1.253   1.809 -0.1268 -0.5175  0.2608
24532SOL     OW80200  10.734   8.044  11.179 -0.2130 -0.5770  0.4405
24532SOL    HW180201  10.761   8.042  11.087 -0.3418  0.5234  0.3667
24532SOL    HW280202  10.753   8.133  11.208 -0.8582 -0.6952  1.2760
24533SOL     OW80203   3.239   5.962   9.731 -0.2535  0.2485  0.0501
24533SOL    HW180204   3.233   6.047   9.687 -0.6217 -0.3994 -1.2019
24533SOL    HW280205   3.314   5.919   9.691 -3.0440 -2.0739 -3.2245
24534SOL     OW80206   5.588   6.582   6.593  0.0768  0.1317 -0.5832
24534SOL    HW180207   5.521   6.522   6.623 -0.1674  0.4141 -0.5585
24534SOL    HW280208   5.542   6.642   6.533  0.2777  0.3995 -0.4731
24535SOL     OW80209   2.202   5.830   9.010 -0.0651  0.0181  0.2776
24535SOL    HW180210   2.249   5.777   9.074 -1.9902 -1.8079  0.2989
24535SOL    HW280211   2.238   5.804   8.926 -0.5347 -0.8743  0.3379
24536SOL     OW80212   0.408   1.182   0.033  0.4409  0.1108 -0.4620
24536SOL    HW180213   0.494   1.159  -0.003  0.4572 -0.6517  0.0381
24536SOL    HW280214   0.423   1.264   0.079  1.1519 -0.5106  0.4578
24537SOL     OW80215   6.642   2.752  10.734 -0.2137 -0.2487  0.3671
24537SOL    HW180216   6.642   2.842  10.700 -0.9354 -0.4213 -0.1270
24537SOL    HW280217   6.713   2.709  10.687 -1.3204 -0.5355 -1.1407
24538SOL     OW80218   8.269   7.858   0.455 -0.2814  0.3674  0.0334
24538SOL    HW180219   8.353   7.815   0.435 -0.2536 -0.5367  1.8502
24538SOL    HW280220   8.293   7.947   0.478 -0.1038  0.8044 -1.6705
24539SOL     OW80221   2.867   4.645  10.404 -0.3408  0.0499  0.3308
24539SOL    HW180222   2.955   4.608  10.405 -0.9364 -1.4630 -0.7707
24539SOL    HW280223   2.879   4.734  10.371  0.9097  0.3147  1.4026
24540SOL     OW80224  10.530   3.011   4.499 -0.1103 -0.5247 -0.6895
24540SOL    HW180225  10.598   3.044   4.558  0.1270 -1.5792 -0.3440
24540SOL    HW280226  10.449   3.048   4.533  0.1020 -0.5948 -0.0823
24541SOL     OW80227   8.262   0.273   6.616 -0.0678 -0.2196 -0.0549
24541SOL    HW180228   8.350   0.245   6.641  0.2821  0.8011 -0.0851
24541SOL    HW280229   8.258   0.365   6.643 -1.7581 -0.7139  1.5705
24542SOL     OW80230  12.240   9.772  12.634  0.1534 -0.2832  0.2375
24542SOL    HW180231  12.235   9.687  12.591  0.1052 -0.2442  0.1674
24542SOL    HW280232  12.333   9.794  12.633  0.4258 -1.1785  1.8767
24543SOL     OW80233   5.715   0.683   5.163 -0.2952 -0.6233 -0.9965
24543SOL    HW180234   5.644   0.727   5.116 -1.1561 -0.3607  0.4820
24543SOL    HW280235   5.671   0.634   5.232  1.0090  0.0435  0.3456
24544SOL     OW80236  11.760   7.709  10.160 -0.1878  0.1879  0.6177
24544SOL    HW180237  11.682   7.682  10.112 -0.1039 -0.5865  0.9043
24544SOL    HW280238  11.830   7.709  10.095 -0.4745  1.1980  0.2883
24545SOL     OW80239  10.429  11.491   3.830 -0.0535 -0.0644 -0.3676
24545SOL    HW180240  10.474  11.576   3.826  0.0150 -0.1154 -0.7494
24545SOL    HW280241  10.337  11.513   3.817 -0.1723  0.0606  0.5912
24546SOL     OW80242   4.508   4.606  10.588 -0.3344 -0.4462 -0.5730
24546SOL    HW180243   4.472   4.647  10.509  0.6412 -0.5100 -1.0584
24546SOL    HW280244   4.576   4.667  10.618 -1.1454 -0.0903  0.6120
24547SOL     OW80245   7.152   6.402   4.094 -0.2573  0.4673 -0.2899
24547SOL    HW180246   7.065   6.420   4.129  0.3334  0.5808  1.1851
24547SOL    HW280247   7.212   6.419   4.167  0.8349 -1.7243 -0.5862
24548SOL     OW80248   5.623   4.999   1.974  0.0743 -0.1329 -0.3634
24548SOL    HW180249   5.690   5.051   2.018 -1.9892  1.0699  1.5635
24548SOL    HW280250   5.585   4.946   2.044 -1.0203 -0.7570 -1.3906
24549SOL     OW80251  12.113  10.111  10.452 -0.4836 -0.6005 -0.2257
24549SOL    HW180252  12.072  10.155  10.526  0.4074 -0.4325  0.1785
24549SOL    HW280253  12.061  10.138  10.376 -2.7135 -2.3976  0.5343
24550SOL     OW80254   8.870   4.447   5.816 -0.2809 -0.1761 -0.2852
24550SOL    HW180255   8.886   4.457   5.910 -0.3140  0.1782 -0.3132
24550SOL    HW280256   8.954   4.468   5.775 -0.5031  0.5645 -0.3754
24551SOL     OW80257   9.556   9.897   2.047 -0.6526 -0.1284  0.2110
24551SOL    HW180258   9.583   9.829   1.985  1.3115 -1.1394  2.0075
24551SOL    HW280259   9.532   9.971   1.992 -0.1438 -1.3394 -1.7714
24552SOL     OW80260   5.661  11.675   9.893 -0.0463 -0.3476 -0.0349
24552SOL    HW180261   5.643  11.704   9.982  0.7504  0.4984 -0.1346
24552SOL    HW280262   5.574  11.663   9.853 -0.4250  1.9046  0.0184
24553SOL     OW80263   0.316   2.656   3.094  0.0609  0.3055  0.4727
24553SOL    HW180264   0.324   2.684   3.185  0.2152  0.5125  0.3975
24553SOL    HW280265   0.400   2.615   3.074 -0.4651 -0.9904  0.8357
24554SOL     OW80266  12.132   8.558   7.366 -0.1714 -0.4422  0.0083
24554SOL    HW180267  12.224   8.574   7.345 -0.0910  1.2768  1.4338
24554SOL    HW280268  12.093   8.531   7.284  1.3861 -0.1355 -0.8732
24555SOL     OW80269   9.665   0.608   9.950  0.6100 -0.2436  0.5794
24555SOL    HW180270   9.572   0.595   9.969  0.2052  0.3517 -0.8617
24555SOL    HW280271   9.686   0.694   9.986  0.1162  0.4196 -0.6592
24556SOL     OW80272   5.235   3.269  10.422 -0.3487 -0.7158  0.6329
24556SOL    HW180273   5.203   3.180  10.436  0.3413 -0.8268  1.5512
24556SOL    HW280274   5.264   3.270  10.331 -2.2751 -0.8117 -0.0399
24557SOL     OW80275   5.753  12.408  10.897  0.7027 -0.1090  0.3048
24557SOL    HW180276   5.689  12.478  10.887  0.6802 -0.1427  0.2048
24557SOL    HW280277   5.826  12.434  10.841 -0.4406 -1.4941 -1.9708
24558SOL     OW80278   0.706   7.769  11.808 -0.4804  0.1453  0.1573
24558SOL    HW180279   0.649   7.785  11.883 -0.5613  1.6600 -0.1875
24558SOL    HW280280   0.662   7.814  11.735  0.2037 -0.2755 -0.5325
24559SOL     OW80281   3.897   4.852  10.738  0.6424 -0.1809  0.8316
24559SOL    HW180282   3.922   4.762  10.718 -0.2868 -0.0276 -1.2590
24559SOL    HW280283   3.823   4.844  10.799  1.2578 -0.7835  1.5119
24560SOL     OW80284   6.593   4.772  10.853  0.1086  0.0295 -0.1309
24560SOL    HW180285   6.641   4.702  10.898  0.6598  0.0541 -0.6771
24560SOL    HW280286   6.521   4.793  10.913 -0.6063 -1.6341 -0.3504
24561SOL     OW80287   1.385  12.231   9.675  0.1952 -0.4672  0.0986
24561SOL    HW180288   1.357  12.266   9.760 -0.1681  0.8044 -0.5212
24561SOL    HW280289   1.434  12.151   9.697 -0.3637 -0.4632  1.4591
24562SOL     OW80290  10.242   0.451   2.779  0.1931 -0.2739  0.3889
24562SOL    HW180291  10.334   0.458   2.756 -0.0617  0.0547 -0.5942
24562SOL    HW280292  10.222   0.357   2.773  0.9564 -0.6323  2.7008
24563SOL     OW80293   7.074   2.866   1.956  0.1908  0.3205  0.3270
24563SOL    HW180294   7.119   2.807   2.017  0.7336  1.3553  0.9580
24563SOL    HW280295   7.090   2.828   1.869  1.6887  0.2579  0.6036
24564SOL     OW80296   4.453   8.246   9.193 -0.2713 -0.1534 -0.2805
24564SOL    HW180297   4.521   8.246   9.126  0.9126  0.3935  0.8716
24564SOL    HW280298   4.395   8.174   9.168 -0.5151  0.7295 -2.4789
24565SOL     OW80299   3.272   3.897  10.227  0.8073 -0.9197  0.2427
24565SOL    HW180300   3.320   3.818  10.252 -0.9837 -1.6987  1.4015
24565SOL    HW280301   3.202   3.866  10.170 -0.0540 -0.2306  0.8913
24566SOL     OW80302   3.728   0.083   0.706  0.5152 -0.2707 -0.1046
24566SOL    HW180303   3.687   0.017   0.650  2.2117  0.1760 -2.0361
24566SOL    HW280304   3.657   0.117   0.760 -1.0460 -1.4145 -1.3307
24567SOL     OW80305   6.713   0.923   4.950  0.2860  0.1664 -0.1383
24567SOL    HW180306   6.723   0.971   4.868  0.0594  0.8960  0.2527
24567SOL    HW280307   6.743   0.834   4.930 -1.2964 -0.1261 -1.4676
24568SOL     OW80308   7.540   7.208   0.853  0.1089  0.0466  0.7015
24568SOL    HW180309   7.543   7.172   0.764 -1.0716  0.0510  0.6467
24568SOL    HW280310   7.535   7.131   0.910  0.1938  0.0634  0.7326
24569SOL     OW80311   9.628   2.194   8.822 -0.2838  0.2455  0.1046
24569SOL    HW180312   9.693   2.130   8.793 -1.5357 -1.7307  1.4036
24569SOL    HW280313   9.678   2.262   8.866  1.0385 -0.2497 -0.5885
24570SOL     OW80314   2.031   2.269   5.304 -0.5251  0.3560 -0.1864
24570SOL    HW180315   1.988   2.275   5.219  1.2870  2.0347 -1.0795
24570SOL    HW280316   2.125   2.274   5.284 -0.0101  0.0043  1.8664
24571SOL     OW80317   5.968   7.650  10.960  0.4313 -0.2871  0.6758
24571SOL    HW180318   5.932   7.722  11.012 -0.3034 -1.1473  1.4019
24571SOL    HW280319   5.958   7.677  10.869 -0.9192  0.0313  0.9063
24572SOL     OW80320   6.449   2.379   3.166 -0.1761 -0.4968 -0.3625
24572SOL    HW180321   6.518   2.445   3.172  0.0894 -0.7420 -0.6456
24572SOL    HW280322   6.380   2.410   3.224  0.1869 -0.2599 -0.0585
24573SOL     OW80323  10.278   9.554  11.921 -0.2290 -0.4425  0.0249
24573SOL    HW180324  10.281   9.482  11.858 -0.2405 -1.2014  0.8652
24573SOL    HW280325  10.201   9.605  11.894 -0.3764 -0.8887 -0.4283
24574SOL     OW80326   0.956   9.285   9.231  0.8004 -0.1286 -0.1842
24574SOL    HW180327   1.044   9.307   9.199  0.9678 -1.0058 -0.3605
24574SOL    HW280328   0.902   9.282   9.152  0.6390  0.2497 -0.0932
24575SOL     OW80329  10.574   8.880   8.195 -0.4913 -0.4807 -0.2920
24575SOL    HW180330  10.505   8.911   8.253 -0.6260 -0.1769 -0.6103
24575SOL    HW280331  10.561   8.785   8.191  0.7636 -0.8004  1.7720
24576SOL     OW80332  11.745  11.083   7.265 -0.2218 -0.2489  0.7238
24576SOL    HW180333  11.778  10.993   7.273  0.5234  0.0226  0.7911
24576SOL    HW280334  11.725  11.109   7.356  2.4083  0.6781  1.1215
24577SOL     OW80335   5.143   6.125   7.803 -0.1367 -0.0769  0.4014
24577SOL    HW180336   5.096   6.206   7.824 -1.7476 -0.9548  0.4173
24577SOL    HW280337   5.145   6.122   7.708  2.3495  1.2581  0.3380
24578SOL     OW80338   6.304   6.326   7.580 -0.0682  0.0733 -0.7483
24578SOL    HW180339   6.343   6.386   7.644 -0.7936  0.2594 -0.4725
24578SOL    HW280340   6.210   6.344   7.585 -0.3008 -1.1286 -0.6338
24579SOL     OW80341   3.692  10.378   2.875  0.0396  0.2617  0.3593
24579SOL    HW180342   3.643  10.327   2.811  1.2878  1.0665 -1.3316
24579SOL    HW280343   3.764  10.321   2.903  1.0581  0.8027 -1.0423
24580SOL     OW80344   0.837   5.994  12.302 -0.3541  0.1355  0.1300
24580SOL    HW180345   0.859   5.903  12.323 -1.8267 -0.2635  0.0383
24580SOL    HW280346   0.842   6.040  12.385  1.6587  0.2847 -0.0148
24581SOL     OW80347   4.595   9.936   1.157  0.3522 -0.6498  0.0154
24581SOL    HW180348   4.548  10.014   1.127  0.5911 -0.4821  0.0712
24581SOL    HW280349   4.676   9.935   1.105  0.8695 -0.2390  0.7959
24582SOL     OW80350   0.254  11.975   9.182  0.2837  0.3498  0.1876
24582SOL    HW180351   0.263  12.052   9.125  0.4134  0.3833  0.2523
24582SOL    HW280352   0.296  11.904   9.133 -0.4422  0.1642 -0.1793
24583SOL     OW80353   5.748   7.901   3.131  0.0597 -0.4073  0.1235
24583SOL    HW180354   5.668   7.951   3.148 -0.1035 -0.7911  0.4855
24583SOL    HW280355   5.719   7.830   3.073  0.5072  0.5799 -1.3789
24584SOL     OW80356   4.466   8.104  11.284  0.1374 -0.1405  0.0074
24584SOL    HW180357   4.507   8.023  11.313  0.8983  0.7113  1.4064
24584SOL    HW280358   4.534   8.149  11.233  0.7733  0.9498  1.7367
24585SOL     OW80359  11.776   0.997   4.260  0.1525  0.8676  0.3488
24585SOL    HW180360  11.756   0.910   4.223 -0.3560  1.3024 -0.4390
24585SOL    HW280361  11.834   1.037   4.196  0.8151  0.9130  0.9745
24586SOL     OW80362   9.667  12.018   7.743  0.1008 -0.3692  0.8909
24586SOL    HW180363   9.684  12.085   7.677 -0.1582 -0.0628  1.1267
24586SOL    HW280364   9.707  11.938   7.709 -0.9764 -0.4862 -0.1587
24587SOL     OW80365   9.090   0.467   4.498 -0.4615 -0.2232  0.1959
24587SOL    HW180366   9.051   0.406   4.561  1.2201 -0.0182  1.5084
24587SOL    HW280367   9.126   0.411   4.429 -2.7539 -0.4267 -0.9438
24588SOL     OW80368   4.815  10.582   5.136  0.3591  0.2682 -0.1981
24588SOL    HW180369   4.880  10.522   5.175  0.1957 -0.7043 -1.3615
24588SOL    HW280370   4.867  10.651   5.096  0.6961 -0.3745 -0.9053
24589SOL     OW80371   1.100  10.921   0.877  0.2772 -0.3141 -0.0256
24589SOL    HW180372   1.176  10.937   0.932  0.0756  1.1656 -0.1360
24589SOL    HW280373   1.132  10.934   0.788  0.7530 -3.2893 -0.3692
24590SOL     OW80374   2.695   6.563   5.417  0.4983 -0.2945  0.2901
24590SOL    HW180375   2.681   6.524   5.330  2.1942  0.9023 -0.5940
24590SOL    HW280376   2.766   6.511   5.455  0.0744 -0.5206  0.7869
24591SOL     OW80377   6.263   4.131   0.777 -0.3928  0.3697 -0.3837
24591SOL    HW180378   6.254   4.052   0.830 -0.6422  1.3420  1.0882
24591SOL    HW280379   6.185   4.183   0.799 -0.8918  0.4973 -2.2874
24592SOL     OW80380   6.051   7.806   2.516  0.7806 -0.2782 -0.3038
24592SOL    HW180381   5.969   7.831   2.559  0.3978 -1.6479 -0.2073
24592SOL    HW280382   6.052   7.857   2.435 -1.5223 -2.1686 -1.6482
24593SOL     OW80383   0.264  11.195   1.412 -0.1967  0.0640 -0.2728
24593SOL    HW180384   0.227  11.119   1.455 -1.4152  0.7951  0.0219
24593SOL    HW280385   0.199  11.265   1.426  1.0106  1.2357 -0.2569
24594SOL     OW80386   9.110  11.034   7.248  0.2012  0.3555  0.0427
24594SOL    HW180387   9.087  11.110   7.194  0.6957  0.1546 -0.4644
24594SOL    HW280388   9.040  11.028   7.312 -0.3605  0.6493 -0.5356
24595SOL     OW80389   3.371   7.269   2.994  0.0205 -0.5847  0.1658
24595SOL    HW180390   3.358   7.363   2.983  0.0103 -0.5818  0.2051
24595SOL    HW280391   3.288   7.236   3.027  0.4308 -0.4111  1.4234
24596SOL     OW80392   1.519  10.378  10.417  0.0023  0.9957  0.3149
24596SOL    HW180393   1.488  10.435  10.346 -1.7296  0.5124  0.6385
24596SOL    HW280394   1.586  10.324  10.376  0.6570  2.2607 -0.3589
24597SOL     OW80395   1.669   2.011   0.715 -0.7067  0.3057 -0.3279
24597SOL    HW180396   1.664   1.918   0.696 -0.1647 -0.5869  3.1968
24597SOL    HW280397   1.582   2.035   0.746  0.1115 -0.1297  2.5936
24598SOL     OW80398   4.615   6.381   7.020 -0.3295  0.0541 -0.3013
24598SOL    HW180399   4.549   6.371   6.952  2.0515 -1.4950 -2.5684
24598SOL    HW280400   4.684   6.434   6.980  0.4811  0.4729  1.5066
24599SOL     OW80401  10.472   7.583   9.561  0.0208  0.4180  0.3315
24599SOL    HW180402  10.504   7.526   9.632  0.9847 -0.4252 -0.7453
24599SOL    HW280403  10.539   7.651   9.554  0.7893 -0.4153 -0.8185
24600SOL     OW80404   1.812  10.983   1.958 -0.5596  0.0894 -0.2818
24600SOL    HW180405   1.791  10.892   1.977  3.4362 -0.5781  2.1219
24600SOL    HW280406   1.759  11.034   2.020 -0.6910 -0.8264  0.3713
24601SOL     OW80407   2.011   4.507   7.139  0.1318 -0.0361  0.4688
24601SOL    HW180408   1.930   4.544   7.174  0.5967  0.5435  0.9583
24601SOL    HW280409   2.006   4.525   7.045 -0.0578  0.4971  0.5726
24602SOL     OW80410   4.420   9.184  12.174  0.6711  0.4035  0.3290
24602SOL    HW180411   4.461   9.139  12.101 -1.1920  2.5980 -2.2618
24602SOL    HW280412   4.339   9.135  12.190  0.6625  0.4313  0.3747
24603SOL     OW80413   3.794   2.043   2.684 -0.0281  0.6202  0.2236
24603SOL    HW180414   3.771   1.996   2.764  0.6408  0.4243  0.3082
24603SOL    HW280415   3.833   1.976   2.628  1.7410  1.2175  0.6772
24604SOL     OW80416   1.778   3.414  11.941 -0.3130  0.4059 -0.0324
24604SOL    HW180417   1.831   3.466  12.001 -0.5522 -0.5612  1.0366
24604SOL    HW280418   1.808   3.324  11.954 -1.4666 -0.0152 -0.1976
24605SOL     OW80419   5.612   2.656   9.942  0.0750 -0.1730 -0.2138
24605SOL    HW180420   5.694   2.673   9.895 -0.3052 -0.9788 -1.2139
24605SOL    HW280421   5.547   2.711   9.897 -0.1272 -0.3090 -0.0875
24606SOL     OW80422   8.773  11.924   7.781 -0.0974  0.3095  0.3009
24606SOL    HW180423   8.839  11.855   7.777 -1.2893 -0.8323 -0.5077
24606SOL    HW280424   8.712  11.903   7.710 -0.1433  2.5990 -0.4460
24607SOL     OW80425   8.252   8.068  11.499  0.0762 -0.5814 -0.1521
24607SOL    HW180426   8.326   8.032  11.547 -0.3345  1.8392  2.5273
24607SOL    HW280427   8.175   8.032  11.543 -0.3157  0.1945 -0.1799
24608SOL     OW80428   7.144   3.751   6.680  0.1059 -0.6972 -0.1418
24608SOL    HW180429   7.203   3.809   6.728 -0.8875 -0.0842  0.3700
24608SOL    HW280430   7.190   3.667   6.678  1.6542  0.1430 -1.0779
24609SOL     OW80431   2.639   1.947   1.129 -0.2810 -0.4312  0.3548
24609SOL    HW180432   2.575   1.899   1.181  0.8872 -1.2063  1.1443
24609SOL    HW280433   2.587   2.003   1.073 -1.6608 -1.4181  0.5819
24610SOL     OW80434   1.530  10.461   4.723 -0.3302 -0.0828  0.2506
24610SOL    HW180435   1.552  10.450   4.815 -2.0209 -2.1588  0.4589
24610SOL    HW280436   1.615  10.476   4.680  0.4973  0.7081  2.0793
24611SOL     OW80437   1.204   2.169   2.641 -0.3312  0.1704  0.5079
24611SOL    HW180438   1.134   2.220   2.600  0.0781  0.6840  0.4546
24611SOL    HW280439   1.179   2.164   2.733 -1.6657 -1.6445  0.1103
24612SOL     OW80440   9.467   7.432   3.752  0.2253  0.1284 -0.4041
24612SOL    HW180441   9.378   7.405   3.772  0.3099  0.1113 -0.0482
24612SOL    HW280442   9.497   7.480   3.829  1.0090 -1.0775  0.0742
24613SOL     OW80443   1.239   0.677  11.757 -0.4445 -0.2811  0.1644
24613SOL    HW180444   1.168   0.617  11.780 -0.3153 -0.0726  1.1340
24613SOL    HW280445   1.289   0.630  11.690 -0.9808 -0.7936  0.1133
24614SOL     OW80446   0.874   5.164  11.105  0.4824  0.4735 -0.9011
24614SOL    HW180447   0.779   5.167  11.115  0.2330 -0.8163 -2.4171
24614SOL    HW280448   0.902   5.255  11.113 -0.7385  0.7516  0.6725
24615SOL     OW80449   0.371   9.896   9.133 -0.9100 -0.6604  0.7083
24615SOL    HW180450   0.441   9.905   9.068 -1.6584 -0.6381 -0.1011
24615SOL    HW280451   0.293   9.930   9.090 -1.1123  0.8462  2.1795
24616SOL     OW80452   1.749  10.278  12.033  0.2359 -0.5722 -0.5032
24616SOL    HW180453   1.800  10.302  12.110  0.6915  0.4125 -1.0865
24616SOL    HW280454   1.661  10.262  12.067  0.8466 -2.0297  0.4740
24617SOL     OW80455   6.769   2.430   4.228  0.3501 -0.1304 -0.5829
24617SOL    HW180456   6.819   2.405   4.151  0.3181  0.6972 -0.8767
24617SOL    HW280457   6.705   2.360   4.239  0.6324 -0.4663 -1.0496
24618SOL     OW80458   6.106  10.960   4.041  0.1447  0.2146  0.5520
24618SOL    HW180459   6.101  10.922   4.128  1.9540  1.3275  1.2268
24618SOL    HW280460   6.187  11.012   4.043 -1.0555  2.3066 -0.9618
24619SOL     OW80461  11.875   4.856   0.328  0.3453 -0.5606  0.4283
24619SOL    HW180462  11.860   4.909   0.250  1.2997 -0.7690  0.0922
24619SOL    HW280463  11.907   4.772   0.295  0.1496 -0.8780  1.0174
24620SOL     OW80464  10.977   0.578  12.361 -0.8559 -0.0839  0.3350
24620SOL    HW180465  10.927   0.581  12.442 -2.1019  0.9404 -0.4429
24620SOL    HW280466  10.931   0.637  12.302  0.0451 -0.7822 -1.1178
24621SOL     OW80467   4.922  10.537  10.206  0.4165  0.3051 -0.5025
24621SOL    HW180468   4.979  10.614  10.199  1.6373 -0.3175  1.5062
24621SOL    HW280469   4.967  10.480  10.269 -0.8627 -1.6925 -1.2938
24622SOL     OW80470   4.158   0.254   3.025 -0.1565 -0.1916 -0.0057
24622SOL    HW180471   4.248   0.273   3.053 -0.1583  0.0428 -0.1595
24622SOL    HW280472   4.137   0.323   2.962  0.1457 -1.1878 -1.2261
24623SOL     OW80473  10.980   5.252   3.224 -0.4019 -0.8520  0.1757
24623SOL    HW180474  10.923   5.270   3.149 -0.6212 -0.4631  0.4303
24623SOL    HW280475  10.970   5.158   3.238  0.2324 -1.0695 -0.7493
24624SOL     OW80476  10.770   5.160   6.753 -0.6359  0.3742 -0.4894
24624SOL    HW180477  10.756   5.198   6.666  0.3685 -2.1205 -1.8765
24624SOL    HW280478  10.865   5.150   6.759 -0.7299  0.0611  0.6925
24625SOL     OW80479   1.650   4.653   5.707  0.0583 -0.3627  0.0767
24625SOL    HW180480   1.683   4.612   5.627 -1.2945 -1.1157 -0.1408
24625SOL    HW280481   1.719   4.641   5.771  0.6880 -0.8111 -0.6643
24626SOL     OW80482   4.202   7.335   7.319 -0.0208 -0.1328 -0.6849
24626SOL    HW180483   4.153   7.403   7.365 -0.5102 -1.4081  0.8063
24626SOL    HW280484   4.137   7.293   7.262 -0.6266 -1.4509  0.8694
24627SOL     OW80485   3.304   2.678   6.883  0.1988 -0.1311 -0.2497
24627SOL    HW180486   3.392   2.705   6.910 -0.1786  1.0054 -0.0785
24627SOL    HW280487   3.269   2.754   6.836 -1.3299  0.1119  1.1858
24628SOL     OW80488  10.583   7.672  12.068  0.8843 -0.1651 -0.4296
24628SOL    HW180489  10.501   7.637  12.031  0.8936 -0.8328  0.1681
24628SOL    HW280490  10.651   7.639  12.009  0.9832 -1.9256  0.5893
24629SOL     OW80491   6.844   5.762  10.681 -0.8421  0.2655 -0.3423
24629SOL    HW180492   6.810   5.763  10.771  0.4142  1.2757  0.1433
24629SOL    HW280493   6.765   5.768  10.626 -1.5208  2.0688  0.7293
24630SOL     OW80494   8.330   3.836   5.541  0.4626  1.1472  0.3948
24630SOL    HW180495   8.244   3.795   5.540  0.9000  0.1993 -0.4793
24630SOL    HW280496   8.333   3.885   5.459  0.7617  1.1582  0.4128
24631SOL     OW80497   4.864  12.633   3.929 -0.1691 -0.3984  0.3771
24631SOL    HW180498   4.880  12.631   3.835 -0.9763  0.2028  0.2134
24631SOL    HW280499   4.805  12.560   3.945  1.3501 -1.6148  0.7258
24632SOL     OW80500  10.385   4.748  11.300  0.2040  0.4118  0.0363
24632SOL    HW180501  10.371   4.709  11.386  0.9785 -0.9495 -0.4229
24632SOL    HW280502  10.469   4.793  11.307  0.1346  0.5346  0.0749
24633SOL     OW80503  11.333   0.409   1.216 -0.9817  0.1929 -0.0564
24633SOL    HW180504  11.309   0.490   1.262  0.0157  0.3395  0.2283
24633SOL    HW280505  11.424   0.422   1.192 -0.5362 -1.2219  0.7956
24634SOL     OW80506   2.984   0.529   4.595 -0.3059 -0.3926  0.9279
24634SOL    HW180507   2.914   0.472   4.562 -0.7672  0.4605  0.3933
24634SOL    HW280508   2.960   0.546   4.686 -0.0943 -1.1459  1.1334
24635SOL     OW80509   1.258   2.333   7.617 -0.6145  0.1013  0.1429
24635SOL    HW180510   1.302   2.406   7.575  1.2784  0.2262  2.1502
24635SOL    HW280511   1.256   2.263   7.551  1.1012  0.6746 -0.5427
24636SOL     OW80512   1.277   8.487  12.234 -0.1006  0.0007 -0.4073
24636SOL    HW180513   1.325   8.453  12.159 -0.2978  1.0133 -1.0038
24636SOL    HW280514   1.232   8.565  12.202 -1.5129 -0.4593  0.3382
24637SOL     OW80515   3.378   5.398  11.668  0.2978 -0.3536 -0.0864
24637SOL    HW180516   3.449   5.349  11.626  1.1649  0.6131  0.2207
24637SOL    HW280517   3.319   5.421  11.596  0.9399 -0.1035 -0.5414
24638SOL     OW80518   8.855   3.735  12.746  0.0793  0.1619  0.0329
24638SOL    HW180519   8.766   3.753  12.715  0.7290 -0.0972 -2.2173
24638SOL    HW280520   8.882   3.815  12.790 -0.7398  0.8301 -0.6302
24639SOL     OW80521  11.631   7.708   0.559 -0.3414  0.2520  0.2650
24639SOL    HW180522  11.725   7.692   0.546 -0.5430 -2.4200  1.3477
24639SOL    HW280523  11.628   7.786   0.615  1.4268 -0.8820  2.1147
24640SOL     OW80524   5.350  11.609   8.118  0.5513 -0.3142  0.1337
24640SOL    HW180525   5.409  11.586   8.190  1.0921  0.8046  0.0746
24640SOL    HW280526   5.393  11.683   8.075 -0.1294 -0.5004 -0.8950
24641SOL     OW80527  11.855   2.273  11.021  0.3120  0.9812 -0.1551
24641SOL    HW180528  11.903   2.223  10.954  0.0415 -0.2501  0.5525
24641SOL    HW280529  11.786   2.214  11.050  0.5361  1.4345  1.3482
24642SOL     OW80530  11.616   1.531   6.021 -0.4560  0.0475 -0.0182
24642SOL    HW180531  11.530   1.500   5.993  0.1571 -0.6906 -1.1432
24642SOL    HW280532  11.678   1.481   5.969  0.7198 -0.4170  1.7633
24643SOL     OW80533   9.354   1.873   2.697 -0.2593  0.1398  0.4242
24643SOL    HW180534   9.262   1.856   2.718 -0.2788 -1.7870 -0.9157
24643SOL    HW280535   9.378   1.801   2.639  2.1525  0.5200  0.8728
24644SOL     OW80536   8.584   9.516   8.502 -0.2149 -0.9521 -0.2803
24644SOL    HW180537   8.678   9.498   8.508  0.4489  1.6962 -1.1927
24644SOL    HW280538   8.563   9.560   8.585 -0.6049 -1.2905 -0.1943
24645SOL     OW80539   6.997   8.384  12.730  0.3341 -0.6786  0.3733
24645SOL    HW180540   6.962   8.451  12.672  0.5415 -2.3902 -1.8226
24645SOL    HW280541   6.929   8.371  12.796 -0.3958  0.5047 -0.1255
24646SOL     OW80542  10.164   9.312  12.379 -0.1255  0.3402  0.2364
24646SOL    HW180543  10.215   9.380  12.424 -0.6102 -0.7200  2.4692
24646SOL    HW280544  10.133   9.356  12.299  1.9823  1.8371  0.1355
24647SOL     OW80545   1.496   0.115   5.730  0.6464  0.5199  0.0513
24647SOL    HW180546   1.530   0.150   5.813  0.2949  0.7719  0.0908
24647SOL    HW280547   1.574   0.100   5.677  0.9068  0.0105  0.5603
24648SOL     OW80548  10.013  10.293   2.086 -0.0947 -0.3137  0.1512
24648SOL    HW180549   9.934  10.279   2.033 -1.0251 -0.0512  1.4202
24648SOL    HW280550  10.038  10.206   2.116 -0.4638 -0.2899  0.5283
24649SOL     OW80551  12.150   7.830   5.840 -0.1172 -0.6871 -0.4787
24649SOL    HW180552  12.245   7.831   5.848 -0.0847 -0.1300 -0.9535
24649SOL    HW280553  12.120   7.788   5.921  0.5065 -0.4174 -0.1056
24650SOL     OW80554   3.540   9.709   4.056  0.6904 -0.0367 -0.3070
24650SOL    HW180555   3.499   9.792   4.081 -0.2644 -0.3929 -0.6728
24650SOL    HW280556   3.530   9.705   3.961  1.2309 -0.3232 -0.3592
24651SOL     OW80557   8.085   5.298   7.666  0.1872  0.3524  0.0743
24651SOL    HW180558   8.087   5.325   7.758 -1.7934  0.9990 -0.0460
24651SOL    HW280559   8.051   5.209   7.668  0.9721  0.0396  0.0052
24652SOL     OW80560   4.650   8.986   5.063 -0.0956  0.3434 -0.0670
24652SOL    HW180561   4.636   8.976   5.157 -0.9164  1.5699 -0.0411
24652SOL    HW280562   4.605   9.067   5.041 -0.3495 -0.2051 -1.6259
24653SOL     OW80563   1.454   0.733   2.797  0.1169  0.1715  0.1507
24653SOL    HW180564   1.413   0.819   2.807  1.9650  1.0370  0.5771
24653SOL    HW280565   1.394   0.685   2.739 -0.4921  2.0478 -0.8655
24654SOL     OW80566   6.320   3.234   9.823  0.7224 -0.3691  0.1881
24654SOL    HW180567   6.282   3.294   9.887  1.8352 -0.7296  1.2328
24654SOL    HW280568   6.248   3.177   9.797  0.1886 -0.0619  0.9560
24655SOL     OW80569   4.922  10.408   0.196 -0.5969 -0.0588 -0.2634
24655SOL    HW180570   4.967  10.391   0.113 -1.6714  2.1627 -1.3878
24655SOL    HW280571   4.973  10.478   0.237 -0.7616 -0.3101  0.3824
24656SOL     OW80572   6.256  10.425  10.131  0.6046 -0.6120 -0.0623
24656SOL    HW180573   6.282  10.482  10.059  0.3498 -1.7636 -1.1186
24656SOL    HW280574   6.339  10.396  10.170  0.7533 -0.1765 -0.0530
24657SOL     OW80575   2.086   7.443   8.829 -0.1936  0.0360 -0.4401
24657SOL    HW180576   2.004   7.461   8.875 -1.0361 -0.4900 -1.6704
24657SOL    HW280577   2.096   7.518   8.769  0.3464  0.2039 -0.1470
24658SOL     OW80578   8.432  12.645  11.205 -0.2975 -0.6141  0.3015
24658SOL    HW180579   8.476  12.562  11.225  0.9397  0.4432  2.2154
24658SOL    HW280580   8.501  12.700  11.168 -0.7218  0.0871  0.5429
24659SOL     OW80581   7.299  12.285   6.333 -0.1293 -0.1323 -0.4476
24659SOL    HW180582   7.351  12.209   6.359  1.3432  0.4809 -1.4383
24659SOL    HW280583   7.231  12.249   6.276  0.8383 -0.6854 -1.3019
24660SOL     OW80584   8.687   2.839   1.164  0.4128 -0.2211 -0.0894
24660SOL    HW180585   8.717   2.760   1.209  0.4376 -0.1168  0.0776
24660SOL    HW280586   8.713   2.911   1.221  1.5715  0.0090 -0.8691
24661SOL     OW80587  12.718  10.817   7.704  0.1791 -0.5202 -0.0904
24661SOL    HW180588  12.779  10.883   7.738  0.8696 -0.7177 -0.9143
24661SOL    HW280589  12.641  10.825   7.760  0.6092  0.3590  0.4019
24662SOL     OW80590   3.445   8.296  11.993 -0.4138  0.3047  0.0507
24662SOL    HW180591   3.425   8.336  12.078 -0.0053 -0.3823  0.4814
24662SOL    HW280592   3.385   8.221  11.987  0.4975 -0.4773  0.3765
24663SOL     OW80593   7.653   4.234   3.620 -0.3351  0.1119 -0.1561
24663SOL    HW180594   7.566   4.233   3.662 -0.6932  0.5184 -0.8672
24663SOL    HW280595   7.648   4.167   3.553 -0.1348  0.2178 -0.2770
24664SOL     OW80596   8.100   9.110  12.039 -0.0110 -0.3968  0.7018
24664SOL    HW180597   8.141   9.182  11.991  0.1235 -0.1540  1.1782
24664SOL    HW280598   8.137   9.114  12.127 -0.6933 -0.4689  1.0022
24665SOL     OW80599   4.442   5.290   8.147 -0.0290 -0.0877  0.4108
24665SOL    HW180600   4.521   5.243   8.124  1.3817  2.1145  0.3976
24665SOL    HW280601   4.456   5.317   8.238 -1.1762 -0.4130  0.7012
24666SOL     OW80602   4.279   5.751   0.995 -0.2955  0.3197 -0.0789
24666SOL    HW180603   4.310   5.720   0.910  0.7866  1.1061  0.0116
24666SOL    HW280604   4.252   5.842   0.979 -0.8105  0.2335  0.2600
24667SOL     OW80605   1.567   7.684   9.011  0.0786  0.2823 -0.4226
24667SOL    HW180606   1.591   7.758   9.067 -0.2732  0.6442 -0.7352
24667SOL    HW280607   1.477   7.703   8.985  0.2054  0.0745 -1.0275
24668SOL     OW80608   2.487   5.833   4.554 -0.3941  0.1948  0.3265
24668SOL    HW180609   2.500   5.750   4.599  0.3315  0.2329  0.2048
24668SOL    HW280610   2.562   5.886   4.580  0.6275 -0.1393 -1.7310
24669SOL     OW80611   1.939   8.388  10.157 -0.4447 -0.0414 -0.0673
24669SOL    HW180612   1.929   8.299  10.191  0.7740 -0.4328 -0.7029
24669SOL    HW280613   1.995   8.379  10.080  0.7109  1.4133  0.5501
24670SOL     OW80614   5.549  11.588  11.226  0.3124  0.3702  0.3600
24670SOL    HW180615   5.531  11.524  11.157 -1.1643  3.3031 -2.1667
24670SOL    HW280616   5.627  11.635  11.196 -0.5319  1.9011  0.4918
24671SOL     OW80617   4.094   3.371  11.435 -0.0706  0.7192  0.4326
24671SOL    HW180618   4.068   3.294  11.384  1.5409 -0.1774  0.9338
24671SOL    HW280619   4.047   3.443  11.393 -2.2105 -0.5893  0.4079
24672SOL     OW80620   7.280   3.153  12.507 -0.2116  0.2852  0.1176
24672SOL    HW180621   7.232   3.222  12.462 -1.4363 -0.2631  0.5507
24672SOL    HW280622   7.371   3.166  12.481 -0.7814  0.4229 -1.9413
24673SOL     OW80623   9.387   5.476   9.792  0.0570 -0.0014  0.2008
24673SOL    HW180624   9.424   5.415   9.856 -0.8206 -0.1544  0.5896
24673SOL    HW280625   9.456   5.539   9.774  0.3916 -0.0993  1.1270
24674SOL     OW80626   8.559   0.341   2.028 -0.4610  0.1628  0.5492
24674SOL    HW180627   8.543   0.296   1.944  1.4056  0.1923  0.1295
24674SOL    HW280628   8.598   0.274   2.083 -0.1878  0.5662  0.8469
24675SOL     OW80629  12.214   0.037   0.232  0.5249  0.4584  0.0529
24675SOL    HW180630  12.262   0.103   0.281 -1.6622  1.5474  0.8670
24675SOL    HW280631  12.182   0.083   0.155  0.8218 -0.2616 -0.5165
24676SOL     OW80632   5.577   5.296  12.507  0.8761 -0.0774  0.1703
24676SOL    HW180633   5.638   5.235  12.464 -0.1284 -0.9527 -0.0311
24676SOL    HW280634   5.634   5.365  12.542  2.0410 -1.1689  0.4931
24677SOL     OW80635   4.979   2.888  11.155 -0.0074  0.6930 -0.3256
24677SOL    HW180636   4.985   2.909  11.248 -1.1461 -1.6925  0.3919
24677SOL    HW280637   5.067   2.862  11.130  0.0477  0.0236  0.4989
24678SOL     OW80638  10.609   1.713   8.821 -0.0024  0.7045 -0.0835
24678SOL    HW180639  10.641   1.747   8.737  1.2465  2.5421  1.0629
24678SOL    HW280640  10.644   1.774   8.886 -1.2566 -0.4544  1.7559
24679SOL     OW80641   1.484   2.417  11.836 -0.1915 -0.1034 -0.3081
24679SOL    HW180642   1.395   2.429  11.871  0.0943 -1.1023  0.8361
24679SOL    HW280643   1.536   2.484  11.879 -0.6365  1.4435 -2.0828
24680SOL     OW80644   6.341   3.867   8.540 -0.2283 -0.2148 -0.7551
24680SOL    HW180645   6.350   3.773   8.552 -0.4215 -0.1907 -0.4010
24680SOL    HW280646   6.393   3.905   8.611  0.1133 -0.0533 -1.0903
24681SOL     OW80647   9.596   5.523   4.235 -0.1108 -0.3841 -0.6160
24681SOL    HW180648   9.590   5.618   4.235  0.5493 -0.3441 -0.6777
24681SOL    HW280649   9.515   5.494   4.193  0.3172  0.1854 -1.8570
24682SOL     OW80650   8.444  11.657   9.055  0.7698  0.0976 -0.0234
24682SOL    HW180651   8.481  11.739   9.088  0.4641 -0.0062  0.5957
24682SOL    HW280652   8.458  11.594   9.126  0.4361 -0.2235 -0.2394
24683SOL     OW80653   4.005   2.299   9.698 -0.2922  0.1938 -0.5352
24683SOL    HW180654   3.913   2.278   9.687 -0.4351  0.1487  0.6569
24683SOL    HW280655   4.015   2.317   9.792  1.4363 -2.3991 -0.1136
24684SOL     OW80656   3.997   0.889   5.231 -0.3502  0.2473 -0.2271
24684SOL    HW180657   3.991   0.799   5.262  0.9402  0.9696  2.3883
24684SOL    HW280658   3.919   0.932   5.266  0.8379  0.9343  1.7440
24685SOL     OW80659   0.831   9.406   0.709 -0.4291 -0.4902 -0.2349
24685SOL    HW180660   0.759   9.355   0.672 -1.1018  0.8834 -0.8719
24685SOL    HW280661   0.907   9.384   0.655 -1.0653  0.3469 -1.5072
24686SOL     OW80662  12.570   0.437   1.077  0.4131 -0.2302  0.2142
24686SOL    HW180663  12.523   0.510   1.118  1.4738 -0.6082  2.2406
24686SOL    HW280664  12.523   0.359   1.106  1.1674 -0.5052  0.7257
24687SOL     OW80665   7.698   1.664   3.414  0.5294  0.6806 -0.3422
24687SOL    HW180666   7.768   1.603   3.436 -0.3990  0.3452  2.0319
24687SOL    HW280667   7.618   1.619   3.441 -0.3632  2.0629 -0.5960
24688SOL     OW80668   2.107   3.793  10.194 -0.3785  0.6290  0.4355
24688SOL    HW180669   2.109   3.861  10.128  1.5852  0.5718  0.4028
24688SOL    HW280670   2.018   3.797  10.230 -0.7320  2.2182 -0.5556
24689SOL     OW80671  11.561   6.924   7.489  0.1535  0.3467  0.2212
24689SOL    HW180672  11.613   7.002   7.468  0.6808  0.5469  2.1527
24689SOL    HW280673  11.606   6.884   7.563 -0.4878 -1.4527 -0.3175
24690SOL     OW80674   6.708   8.762   5.940  0.7896 -0.1621  0.0243
24690SOL    HW180675   6.649   8.700   5.898 -0.5265  0.3178  1.1020
24690SOL    HW280676   6.788   8.712   5.956  0.7643 -0.7960 -1.5672
24691SOL     OW80677   8.803   0.407  11.702 -0.6436  0.6434 -0.6201
24691SOL    HW180678   8.839   0.342  11.641 -1.7206 -0.2782 -0.3020
24691SOL    HW280679   8.777   0.356  11.779 -0.7435  1.5779 -0.0116
24692SOL     OW80680   7.548   3.801   3.104 -0.3075 -0.1091  0.3127
24692SOL    HW180681   7.527   3.881   3.055  0.0530 -0.3311 -0.2188
24692SOL    HW280682   7.468   3.749   3.103 -0.3487 -0.0394  0.0975
24693SOL     OW80683   5.909  12.777  10.795 -0.3372 -0.0769  0.2807
24693SOL    HW180684   5.920  12.690  10.757  0.0522  0.0864  0.0100
24693SOL    HW280685   5.836  12.768  10.856 -0.1909 -0.6368  0.3822
24694SOL     OW80686   6.597  10.936   7.640 -0.3050  0.0853  0.2859
24694SOL    HW180687   6.516  10.907   7.682 -0.8809 -0.5346 -1.1828
24694SOL    HW280688   6.665  10.882   7.680 -0.9231 -0.9306  0.0142
24695SOL     OW80689   1.578   6.727   7.351  0.0534 -0.2052  0.5716
24695SOL    HW180690   1.659   6.720   7.402  0.0788 -0.6231  0.4789
24695SOL    HW280691   1.608   6.736   7.261  0.0078 -2.0797  0.3221
24696SOL     OW80692   5.617   6.944  11.313 -0.6144  0.1099 -0.3724
24696SOL    HW180693   5.568   6.910  11.388 -0.0368 -0.1526 -0.0967
24696SOL    HW280694   5.551   6.964  11.247 -1.2627  1.5970  0.6847
24697SOL     OW80695   5.537  12.411   9.664  0.2390  0.2100  0.3643
24697SOL    HW180696   5.598  12.370   9.602 -1.3358 -0.8857 -0.5281
24697SOL    HW280697   5.506  12.489   9.619  0.3477  0.3233  0.4836
24698SOL     OW80698   4.468   9.710  11.461 -0.0102 -0.2375 -0.2300
24698SOL    HW180699   4.381   9.675  11.481 -0.7987  0.9660 -1.3493
24698SOL    HW280700   4.478   9.784  11.520 -0.3399  0.4427 -1.0055
24699SOL     OW80701  12.214   2.682  11.486  0.3600  0.2688 -0.0506
24699SOL    HW180702  12.131   2.688  11.532  0.3459  1.8562 -0.2233
24699SOL    HW280703  12.210   2.751  11.419  0.1713 -2.2578 -2.8529
24700SOL     OW80704  11.077   9.265   7.069  0.7763  0.2446 -0.2546
24700SOL    HW180705  11.103   9.188   7.019  1.1768 -0.6990  1.3586
24700SOL    HW280706  11.158   9.298   7.107  0.5205  1.1016 -0.4257
24701SOL     OW80707   6.195   6.460   4.873 -0.0220 -0.1640 -0.0520
24701SOL    HW180708   6.133   6.522   4.913  1.0437 -0.2138  1.8088
24701SOL    HW280709   6.150   6.427   4.795 -1.4111  1.4632  0.0110
24702SOL     OW80710  11.261   2.372   0.900 -0.0467 -0.2588  0.0931
24702SOL    HW180711  11.257   2.278   0.915 -1.2896  0.0673  2.2773
24702SOL    HW280712  11.173   2.396   0.871 -0.1032  0.3869  0.7611
24703SOL     OW80713   7.782  11.617   6.891 -0.6490 -0.2544 -0.1284
24703SOL    HW180714   7.726  11.668   6.833  0.3813  0.8513 -0.2072
24703SOL    HW280715   7.725  11.594   6.965 -1.3688  0.3053 -0.4911
24704SOL     OW80716   2.902   9.022   2.168 -0.0511  0.0641 -0.3762
24704SOL    HW180717   2.963   8.951   2.187  0.1834  0.6638  1.2503
24704SOL    HW280718   2.858   9.039   2.251 -0.8986  1.0706 -1.0132
24705SOL     OW80719  12.332   5.718   3.559 -0.0142  0.0640 -0.1054
24705SOL    HW180720  12.258   5.660   3.578 -0.7679  0.5767 -1.3556
24705SOL    HW280721  12.403   5.659   3.535 -0.7612 -0.3911 -1.3262
24706SOL     OW80722  10.351   7.498  11.992  0.5689 -0.2234  0.2899
24706SOL    HW180723  10.292   7.529  12.061 -1.1629 -2.4184 -0.1093
24706SOL    HW280724  10.312   7.417  11.961  2.9962 -0.9567 -1.1275
24707SOL     OW80725   3.689   7.430   4.598  0.4343  0.3044  0.0511
24707SOL    HW180726   3.695   7.446   4.692  0.7098  1.0884 -0.0942
24707SOL    HW280727   3.677   7.517   4.560 -1.6450 -0.1643 -0.4930
24708SOL     OW80728   1.942  10.376  11.310 -0.6425 -0.5310  0.4639
24708SOL    HW180729   1.976  10.403  11.395 -0.2392  1.2956 -0.2251
24708SOL    HW280730   2.015  10.331  11.267 -0.7528 -1.1836  0.9494
24709SOL     OW80731   5.158   4.189   3.549  0.2436  0.3190 -0.0195
24709SOL    HW180732   5.207   4.260   3.508  1.4030 -0.1387  0.5311
24709SOL    HW280733   5.223   4.141   3.600 -0.3661 -1.4966 -0.8360
24710SOL     OW80734   9.638   1.118   8.659  0.3247  0.4096 -0.7182
24710SOL    HW180735   9.646   1.184   8.591 -1.9893 -1.4240 -2.9887
24710SOL    HW280736   9.544   1.111   8.674  0.6146 -1.2365  0.6052
24711SOL     OW80737   1.527  10.278   7.190 -0.0106  0.7547 -0.0112
24711SOL    HW180738   1.466  10.223   7.140  0.0956  0.9455 -0.3586
24711SOL    HW280739   1.577  10.217   7.244 -0.5012  0.5962  0.2676
24712SOL     OW80740   6.868   6.544   9.923 -0.3792  0.1137  0.4973
24712SOL    HW180741   6.901   6.483   9.989 -1.6693 -1.0350  0.1217
24712SOL    HW280742   6.859   6.627   9.969  0.9725 -0.0668  1.1426
24713SOL     OW80743   7.474   0.169   4.376 -0.1375 -0.1227  0.8541
24713SOL    HW180744   7.491   0.263   4.375 -0.7787  0.0257 -1.7671
24713SOL    HW280745   7.536   0.132   4.314 -0.3136 -1.3556  1.3874
24714SOL     OW80746  12.245   8.673   5.448  0.0139  0.1932 -0.4354
24714SOL    HW180747  12.239   8.708   5.359  2.0821 -2.9572 -2.0201
24714SOL    HW280748  12.179   8.604   5.451 -1.3290  1.4620  1.2315
24715SOL     OW80749   5.845   9.801   7.500 -0.4361  0.1967 -0.1620
24715SOL    HW180750   5.848   9.893   7.476 -0.9163  0.3315  0.2782
24715SOL    HW280751   5.753   9.776   7.493  0.1195 -1.5260 -4.8210
24716SOL     OW80752   5.794   2.924   1.620 -0.4405 -0.7073 -0.3477
24716SOL    HW180753   5.797   2.980   1.698 -1.7512 -0.9702 -0.0727
24716SOL    HW280754   5.741   2.974   1.557 -1.7492 -1.6624 -0.0472
24717SOL     OW80755   5.329  11.303   1.010  0.2714  0.6060  0.1052
24717SOL    HW180756   5.240  11.325   0.981 -0.5890 -0.4820  1.8203
24717SOL    HW280757   5.376  11.285   0.928 -1.5291 -0.4397 -0.7659
24718SOL     OW80758   6.432   2.452   4.848  1.0780 -0.5598  0.0321
24718SOL    HW180759   6.366   2.403   4.799 -0.6300 -0.4792  2.0815
24718SOL    HW280760   6.473   2.509   4.783 -2.4168  1.0154 -1.0571
24719SOL     OW80761   5.843   6.601   7.979  0.1057 -0.1239  0.5497
24719SOL    HW180762   5.878   6.649   7.904  0.2664 -0.5541  0.3476
24719SOL    HW280763   5.870   6.511   7.965 -2.2438 -0.7546 -0.3171
24720SOL     OW80764   8.464  11.198   6.597  0.3985  0.3592 -0.1867
24720SOL    HW180765   8.545  11.245   6.618  0.2171  0.1319  1.1002
24720SOL    HW280766   8.413  11.201   6.678 -0.9336  0.5921 -1.0168
24721SOL     OW80767   1.836   7.513  11.007  0.2352  0.0255  0.0670
24721SOL    HW180768   1.896   7.573  10.962  1.5682 -1.8283 -0.7613
24721SOL    HW280769   1.882   7.489  11.088 -0.6528  0.7181  0.7974
24722SOL     OW80770   1.753   4.187   0.678  0.4955  0.1611  0.1762
24722SOL    HW180771   1.772   4.213   0.588  2.8789 -1.8322 -0.0080
24722SOL    HW280772   1.813   4.115   0.695 -0.0444  0.3132  3.3072
24723SOL     OW80773   8.507   6.009  10.174 -0.2830  0.5670 -0.2717
24723SOL    HW180774   8.550   5.926  10.194 -0.5514  0.2314 -1.0280
24723SOL    HW280775   8.523   6.064  10.250  1.3477  0.3982 -0.4611
24724SOL     OW80776   6.713   7.743   4.241 -0.5679  0.2208  0.7774
24724SOL    HW180777   6.722   7.822   4.295  2.0303 -1.5444  3.2428
24724SOL    HW280778   6.632   7.702   4.272 -0.3398  0.4375  1.7014
24725SOL     OW80779   7.595   0.182   8.642  0.2134 -0.0849 -0.4221
24725SOL    HW180780   7.544   0.102   8.627  1.1270 -0.3399 -2.4210
24725SOL    HW280781   7.540   0.252   8.606 -0.3964  0.1798  0.9470
24726SOL     OW80782   7.757  10.017   0.502  0.4181  0.2767 -0.0354
24726SOL    HW180783   7.771   9.922   0.505  1.1086  0.3747  0.1066
24726SOL    HW280784   7.845  10.054   0.502  0.2303  0.8571 -2.3717
24727SOL     OW80785   3.996   5.271   1.321  0.3265 -0.1279  0.0313
24727SOL    HW180786   3.997   5.212   1.246 -1.9737 -0.1500 -0.0509
24727SOL    HW280787   4.085   5.267   1.356  1.0749 -1.1741 -1.8551
24728SOL     OW80788   4.464   6.334   4.429  0.4236 -0.1169 -0.6048
24728SOL    HW180789   4.457   6.292   4.515  2.6189  0.1397 -0.2407
24728SOL    HW280790   4.373   6.352   4.403 -0.2512  1.5606  2.5105
24729SOL     OW80791   0.001   9.928   6.239  0.4762  0.1105 -0.3190
24729SOL    HW180792   0.063   9.878   6.186 -0.1286  1.5112 -2.4765
24729SOL    HW280793  -0.085   9.900   6.208  0.0278 -0.3074  1.2068
24730SOL     OW80794   5.461   0.183  12.440  0.0310  0.5535  0.1503
24730SOL    HW180795   5.546   0.220  12.464 -0.0785  0.1990  1.1375
24730SOL    HW280796   5.480   0.094  12.411  0.0693  0.6986 -0.2714
24731SOL     OW80797   9.106   1.703  11.552 -0.1435 -0.3741  0.5072
24731SOL    HW180798   9.123   1.669  11.464  0.3737  0.0188  0.4536
24731SOL    HW280799   9.190   1.738  11.581 -0.6927  0.9909  0.5097
24732SOL     OW80800   5.646   5.582   1.062  0.7901 -0.0623  0.1208
24732SOL    HW180801   5.707   5.604   0.992  0.5747 -1.1131 -0.4176
24732SOL    HW280802   5.594   5.510   1.027 -0.5420  0.5760  0.7001
24733SOL     OW80803   6.343  12.364   0.475 -0.1679 -0.1020 -0.3666
24733SOL    HW180804   6.390  12.381   0.556 -2.8621 -1.0028  1.5411
24733SOL    HW280805   6.396  12.300   0.428  0.7388 -0.7318  1.4369
24734SOL     OW80806   3.384   6.512  12.422  0.1067 -0.3400  0.4970
24734SOL    HW180807   3.467   6.485  12.383  0.1033 -0.9855  0.9201
24734SOL    HW280808   3.317   6.470  12.369  0.1274 -2.2825  1.9206
24735SOL     OW80809   0.676   9.661   7.499  0.8970 -0.3623  0.4048
24735SOL    HW180810   0.695   9.590   7.560  2.8559  0.0704  0.3456
24735SOL    HW280811   0.747   9.724   7.512 -1.2301  2.0861  1.1321
24736SOL     OW80812  10.066   6.907  11.306  0.2116 -0.3290 -0.1940
24736SOL    HW180813  10.056   7.000  11.330 -0.1470 -0.3298 -0.3292
24736SOL    HW280814  10.098   6.909  11.216  1.8833 -0.3227  0.3683
24737SOL     OW80815  10.119   7.262   4.279  0.8027 -0.1676 -0.1066
24737SOL    HW180816  10.194   7.202   4.274 -0.0585 -1.3568  0.7962
24737SOL    HW280817  10.059   7.220   4.340  0.1206  1.5927  0.4830
24738SOL     OW80818  11.816   0.162   4.829 -0.8464 -0.6265  0.7047
24738SOL    HW180819  11.755   0.184   4.899  0.0762 -1.4207  1.8010
24738SOL    HW280820  11.902   0.159   4.872 -0.0690  0.1229 -0.7222
24739SOL     OW80821   6.710  10.847   1.175  0.4710 -0.0161 -0.3537
24739SOL    HW180822   6.781  10.852   1.110  0.9731  2.7773  0.2814
24739SOL    HW280823   6.672  10.760   1.162  1.9612 -0.3983 -2.8780
24740SOL     OW80824   6.950   9.029   8.449 -0.3722  0.2198 -0.0401
24740SOL    HW180825   7.031   9.025   8.397 -0.8818 -0.6888 -0.7976
24740SOL    HW280826   6.885   8.982   8.396 -1.0003 -0.4525  1.2784
24741SOL     OW80827   6.872   1.451  12.594  0.4414  0.1943 -0.0444
24741SOL    HW180828   6.918   1.517  12.541 -0.9413  1.1729 -0.0800
24741SOL    HW280829   6.804   1.501  12.640 -0.4637 -1.1729  0.1496
24742SOL     OW80830   5.063   2.985   0.416 -0.2726 -0.2634  0.0125
24742SOL    HW180831   5.126   3.000   0.487  0.1405 -0.2512 -0.3499
24742SOL    HW280832   5.055   3.070   0.374 -1.8757  0.1716  1.1254
24743SOL     OW80833   4.829  11.922   2.117 -0.2284 -0.4770 -0.0709
24743SOL    HW180834   4.912  11.903   2.160 -1.0890 -1.0723  1.3693
24743SOL    HW280835   4.783  11.980   2.178 -1.2807 -0.9507 -0.3980
24744SOL     OW80836   6.053   0.702   4.580 -0.2506  0.5374 -0.1952
24744SOL    HW180837   6.032   0.718   4.488 -1.9029  1.1714  0.2647
24744SOL    HW280838   6.002   0.767   4.628  1.0585  0.6053  1.1537
24745SOL     OW80839   1.751  11.618   5.009  0.5324 -0.2461  0.0995
24745SOL    HW180840   1.830  11.671   4.998  1.0551 -1.1849 -0.8890
24745SOL    HW280841   1.736  11.578   4.924  0.3481 -1.9265  0.8728
24746SOL     OW80842   8.622  12.071   2.496 -0.5241  0.4079 -0.2693
24746SOL    HW180843   8.608  12.072   2.591 -0.3617 -0.4536 -0.2319
24746SOL    HW280844   8.694  12.132   2.482 -0.5683  0.5643  0.1579
24747SOL     OW80845   3.546   3.235   5.497 -0.0336 -0.1956  0.2368
24747SOL    HW180846   3.573   3.307   5.440 -0.2139 -0.1569  0.2006
24747SOL    HW280847   3.596   3.248   5.578  2.1706 -1.6584 -0.7787
24748SOL     OW80848   7.651   7.353  11.341 -0.2185  0.4401  0.0608
24748SOL    HW180849   7.569   7.390  11.309 -0.0574  0.3646 -0.4464
24748SOL    HW280850   7.719   7.402  11.294 -0.0132 -1.7687 -2.1070
24749SOL     OW80851   5.517   4.187   2.095  1.0934 -0.7052  0.1503
24749SOL    HW180852   5.578   4.239   2.147  0.5207 -1.4513  1.6181
24749SOL    HW280853   5.444   4.170   2.154 -0.3854 -0.1515 -1.4423
24750SOL     OW80854  10.709   1.618   9.426 -0.1498  0.4242 -0.1598
24750SOL    HW180855  10.787   1.571   9.397 -0.2478  0.8089 -1.0984
24750SOL    HW280856  10.669   1.649   9.345 -1.5320 -0.1678  0.2628
24751SOL     OW80857   9.867  11.184   0.046  1.1092 -0.1092 -0.1912
24751SOL    HW180858   9.841  11.096   0.019 -0.3988 -0.1648  1.2321
24751SOL    HW280859   9.832  11.241  -0.021 -1.3231 -0.3406  0.7832
24752SOL     OW80860  11.054   3.277   8.133 -0.7086 -0.1702 -0.6521
24752SOL    HW180861  11.015   3.209   8.187 -0.4323 -1.6706 -2.2455
24752SOL    HW280862  11.088   3.231   8.057  2.9228  1.1869 -0.0783
24753SOL     OW80863   1.490   6.337   9.990  0.4327  0.2915 -0.2531
24753SOL    HW180864   1.576   6.295   9.997  0.1407 -0.3403 -0.3781
24753SOL    HW280865   1.502   6.424  10.029  0.5289 -0.6320  1.9258
24754SOL     OW80866   3.134   1.443  12.691  0.2689  0.2594  0.6355
24754SOL    HW180867   3.075   1.439  12.767  0.3421  2.2553  0.8534
24754SOL    HW280868   3.076   1.441  12.615  0.2379 -2.7246  0.6239
24755SOL     OW80869   1.804   9.737  12.479 -0.0778  0.3509 -0.4122
24755SOL    HW180870   1.708   9.729  12.476  0.0342 -1.2001 -1.9795
24755SOL    HW280871   1.835   9.670  12.417  1.9576  2.3969 -1.7609
24756SOL     OW80872   3.379   4.199  12.766  0.4846  0.1683  0.1885
24756SOL    HW180873   3.388   4.287  12.802  3.7903 -0.2865  0.7845
24756SOL    HW280874   3.469   4.172  12.746 -0.4134 -3.0594 -0.0300
24757SOL     OW80875   2.271   7.957   1.291  0.6435  0.0826  0.0849
24757SOL    HW180876   2.293   8.011   1.214 -0.0375 -0.7866 -0.7415
24757SOL    HW280877   2.346   7.898   1.301 -0.3604 -1.5330 -1.5080
24758SOL     OW80878   2.302   2.953   0.956  0.2374 -0.4504 -0.4482
24758SOL    HW180879   2.212   2.959   0.985  0.0906  0.2240 -1.0059
24758SOL    HW280880   2.350   3.014   1.012  0.2399 -0.3800 -0.5249
24759SOL     OW80881  11.688   3.874   4.078  0.3364 -0.4314  0.0529
24759SOL    HW180882  11.695   3.819   4.156 -1.9768 -0.0132  0.6250
24759SOL    HW280883  11.600   3.855   4.044  0.4684  1.0257 -1.1894
24760SOL     OW80884   1.139   3.319   6.722 -0.5143  0.0559  0.3181
24760SOL    HW180885   1.180   3.234   6.705 -0.4993 -0.2845  1.9528
24760SOL    HW280886   1.169   3.344   6.809 -0.2700  1.9115 -0.2587
24761SOL     OW80887   9.551  10.318   0.049 -0.4471 -0.0076  0.3901
24761SOL    HW180888   9.484  10.385   0.040 -1.8869 -1.3012  0.9417
24761SOL    HW280889   9.530  10.253  -0.018  1.5543  0.5432 -0.8497
24762SOL     OW80890   7.310   6.608   1.876 -0.2454  0.1201 -0.3363
24762SOL    HW180891   7.367   6.541   1.914 -0.3830 -0.4410 -1.0980
24762SOL    HW280892   7.236   6.559   1.840  0.3398  0.5012 -2.1709
24763SOL     OW80893   0.341   6.840   4.656  0.0310 -0.3126 -0.5563
24763SOL    HW180894   0.333   6.761   4.710  0.2965  0.9986  1.4671
24763SOL    HW280895   0.285   6.904   4.699  1.9008  1.4239 -0.6028
24764SOL     OW80896   0.593  10.183   1.394 -0.4112  0.3387 -0.1290
24764SOL    HW180897   0.645  10.244   1.341  2.0013 -1.0999  0.4337
24764SOL    HW280898   0.636  10.099   1.382 -0.8421 -0.3763  2.6964
24765SOL     OW80899   5.514   5.281  11.258 -0.4421 -0.1478  0.0959
24765SOL    HW180900   5.487   5.251  11.345 -0.4531 -0.6883 -0.0907
24765SOL    HW280901   5.451   5.349  11.235  0.4653  1.0914  1.1551
24766SOL     OW80902  11.895   2.399   8.842 -0.3394  0.0197  1.0967
24766SOL    HW180903  11.828   2.432   8.903 -0.3366  0.1461  1.0329
24766SOL    HW280904  11.949   2.340   8.894  0.0310  0.5933  1.3754
24767SOL     OW80905   2.020   3.124   1.745  0.4376  0.3951 -0.4234
24767SOL    HW180906   2.103   3.131   1.697  0.4967  2.0383 -0.1492
24767SOL    HW280907   2.045   3.127   1.837  0.1487 -0.3589 -0.3133
24768SOL     OW80908  11.961   6.078  12.468  0.0738 -0.1640 -0.3276
24768SOL    HW180909  11.925   5.989  12.468 -0.6810  0.1027 -1.6921
24768SOL    HW280910  11.889   6.133  12.498  0.3250  0.0619 -0.1369
24769SOL     OW80911  11.704   8.966   1.116  0.3269  0.3002 -0.0349
24769SOL    HW180912  11.790   8.992   1.148 -0.1197  0.5844  0.9593
24769SOL    HW280913  11.653   8.949   1.195 -0.6986  0.6764 -0.6037
24770SOL     OW80914   7.205  11.212  11.260 -0.6306  0.0399 -0.6011
24770SOL    HW180915   7.110  11.196  11.255 -0.6707  0.2228 -0.4307
24770SOL    HW280916   7.212  11.304  11.285 -0.4040  0.6886 -2.7999
24771SOL     OW80917   4.670  11.064   2.656 -0.6425 -0.0836  0.0564
24771SOL    HW180918   4.614  11.141   2.644  0.5355  0.6597 -1.0353
24771SOL    HW280919   4.667  11.046   2.750 -2.1310  0.3600  0.1146
24772SOL     OW80920   5.439   7.427   1.635 -0.1911  0.2757  0.5082
24772SOL    HW180921   5.510   7.461   1.689  0.9164 -0.2742 -0.5869
24772SOL    HW280922   5.461   7.452   1.546 -1.8513  0.9079  0.2291
24773SOL     OW80923   4.047   6.760   6.582 -0.2620  0.0112  0.4337
24773SOL    HW180924   4.044   6.763   6.487  1.8026 -1.7122  0.2623
24773SOL    HW280925   3.994   6.684   6.606 -0.4245  0.1901  0.6571
24774SOL     OW80926   6.663   5.515   0.005  0.2156  0.4860 -0.4561
24774SOL    HW180927   6.748   5.475   0.025 -0.6647 -0.4857  1.7170
24774SOL    HW280928   6.677   5.608   0.018  0.7664  0.2462  0.8849
24775SOL     OW80929   8.974  11.028   0.104  0.1687 -0.0338  0.1585
24775SOL    HW180930   9.055  11.057   0.145  0.5857 -1.8237  0.6674
24775SOL    HW280931   8.994  10.941   0.070 -1.4398 -0.3558 -0.0297
24776SOL     OW80932   0.626   3.948   4.833  0.0719 -0.3250  0.0775
24776SOL    HW180933   0.571   3.984   4.764  0.9276 -0.0928 -0.5017
24776SOL    HW280934   0.681   4.021   4.861  1.9088 -1.1407 -1.1933
24777SOL     OW80935   1.030   2.513   8.179 -0.2774 -0.6372 -0.1936
24777SOL    HW180936   0.969   2.566   8.127  0.1265 -0.1616 -0.1938
24777SOL    HW280937   0.980   2.435   8.202 -1.4420  0.4654  1.2121
24778SOL     OW80938   4.428   1.200   4.785 -0.6217 -0.6006 -0.0943
24778SOL    HW180939   4.432   1.274   4.724  0.5744 -0.4905  0.0827
24778SOL    HW280940   4.339   1.201   4.819 -0.7936  0.3964 -0.5486
24779SOL     OW80941   6.714   8.750  11.070  0.2306 -0.0627 -0.4768
24779SOL    HW180942   6.805   8.767  11.047  0.4195 -0.2659  0.1047
24779SOL    HW280943   6.665   8.818  11.024  0.6670  0.0091 -0.8444
24780SOL     OW80944   0.170   7.758  10.384  0.1841  0.4359  0.1409
24780SOL    HW180945   0.253   7.787  10.421  0.0690  0.1213  0.6598
24780SOL    HW280946   0.166   7.664  10.404 -1.3405  0.8588  2.2163
24781SOL     OW80947  10.702   2.485   8.931 -0.3219 -0.7022  0.4317
24781SOL    HW180948  10.684   2.407   8.983 -1.8620  0.3723  1.6047
24781SOL    HW280949  10.731   2.550   8.995 -1.8360  0.5226 -0.0651
24782SOL     OW80950   5.488   2.779   2.525  0.5856 -0.5456  0.1004
24782SOL    HW180951   5.423   2.712   2.506 -1.4027  1.1693  0.4043
24782SOL    HW280952   5.480   2.793   2.620  0.3300  0.6610 -0.0762
24783SOL     OW80953  11.216   0.634   4.319  0.1356  0.9028  0.3812
24783SOL    HW180954  11.260   0.584   4.389 -1.3557  0.9792  1.4153
24783SOL    HW280955  11.133   0.661   4.358 -1.1262  0.2301 -1.7075
24784SOL     OW80956  10.491   3.706  11.690  0.0421  0.5317  0.0889
24784SOL    HW180957  10.501   3.728  11.598  0.8491  0.8687  0.2532
24784SOL    HW280958  10.445   3.622  11.690 -3.4901  2.2618 -0.5837
24785SOL     OW80959   7.544   2.025   3.989 -0.0131 -0.4385  0.0491
24785SOL    HW180960   7.478   2.052   4.052  0.1767  0.1612 -0.0037
24785SOL    HW280961   7.495   2.006   3.909 -0.2908 -1.4948  0.4472
24786SOL     OW80962   3.552  12.202   8.520 -0.0049  0.1048  0.1788
24786SOL    HW180963   3.625  12.202   8.457  0.5214 -0.4576  0.7754
24786SOL    HW280964   3.562  12.284   8.568 -1.2982  1.2792 -1.4482
24787SOL     OW80965   8.915   9.852   9.252  0.0309  0.0602 -0.0343
24787SOL    HW180966   8.889   9.831   9.342  0.3674  0.3153  0.1255
24787SOL    HW280967   9.000   9.810   9.242 -0.4249 -0.7646 -0.5506
24788SOL     OW80968   3.557  11.694   5.583  0.1752  0.6670  0.2634
24788SOL    HW180969   3.467  11.725   5.574  0.2936  0.4076 -2.5735
24788SOL    HW280970   3.610  11.755   5.531  1.2869 -0.5371 -0.0825
24789SOL     OW80971   1.064   5.424  12.498  0.0534  0.6247 -0.1133
24789SOL    HW180972   1.120   5.445  12.573  0.8546  0.0093 -0.5322
24789SOL    HW280973   1.076   5.498  12.438  1.3521 -0.0544 -0.7226
24790SOL     OW80974  12.009   5.739   3.584 -0.1661  0.3709  0.3902
24790SOL    HW180975  11.932   5.715   3.532 -0.8146  0.4757  1.2754
24790SOL    HW280976  12.063   5.791   3.525 -2.2112  2.9197  0.6049
24791SOL     OW80977   0.833   8.364   4.212  0.5308  0.5965 -0.5810
24791SOL    HW180978   0.901   8.415   4.255  1.2243  1.3289 -2.4284
24791SOL    HW280979   0.880   8.292   4.169 -0.1844 -0.3491  0.1622
24792SOL     OW80980   0.801   8.074   0.873 -0.3165  0.3705  0.2610
24792SOL    HW180981   0.722   8.064   0.926 -1.3229  3.7750 -0.3482
24792SOL    HW280982   0.779   8.143   0.810  2.9134  0.9230 -0.4338
24793SOL     OW80983   2.818   3.311   7.568  0.2839  0.0879  0.1293
24793SOL    HW180984   2.800   3.253   7.642 -2.6392  2.1088  1.1984
24793SOL    HW280985   2.793   3.261   7.491 -1.5662 -0.3410  0.9610
24794SOL     OW80986   8.643  12.624   5.738  0.0852 -0.5127  0.2564
24794SOL    HW180987   8.571  12.602   5.798  2.6074 -2.4447  2.8677
24794SOL    HW280988   8.615  12.590   5.653 -1.8230 -1.7606  1.3091
24795SOL     OW80989   1.605   3.034  10.496  0.2025  0.6684  0.1106
24795SOL    HW180990   1.613   3.015  10.403 -0.7364 -0.4370  0.2433
24795SOL    HW280991   1.590   3.129  10.500 -0.8421  0.5637 -0.9263
24796SOL     OW80992   0.037   8.341   8.992  0.9345  0.0735 -0.0793
24796SOL    HW180993  -0.011   8.413   9.034  0.5293  0.2593 -0.8400
24796SOL    HW280994  -0.019   8.314   8.920  0.6983 -1.5680  0.6878
24797SOL     OW80995   6.465   4.074   5.533  0.3327 -0.6384  0.2785
24797SOL    HW180996   6.462   4.034   5.446 -0.0055  0.0158 -0.0194
24797SOL    HW280997   6.482   4.166   5.516  0.6518 -0.5728  0.9311
24798SOL     OW80998   2.851   5.985   1.228 -0.1394 -0.0232 -0.0917
24798SOL    HW180999   2.928   5.943   1.190 -0.8629 -0.8758 -0.6548
24798SOL    HW281000   2.805   6.022   1.153 -0.0224  0.9484  0.2970
24799SOL     OW81001   5.347   0.448   8.210 -0.3622 -1.0380  0.2183
24799SOL    HW181002   5.412   0.474   8.275 -1.0636 -0.1102  0.5730
24799SOL    HW281003   5.382   0.477   8.126  0.5319 -2.2056  0.1613
24800SOL     OW81004   8.907   1.127   8.107 -0.1080 -0.3592  0.5483
24800SOL    HW181005   8.935   1.096   8.021 -0.4482  0.7792  0.0045
24800SOL    HW281006   8.986   1.122   8.161  0.9436  1.6973 -0.6472
24801SOL     OW81007   9.945   3.545   6.872 -0.3503  0.2910 -0.9011
24801SOL    HW181008   9.903   3.551   6.786  1.7459 -0.4086 -2.0680
24801SOL    HW281009   9.957   3.636   6.899 -1.2966  0.5167 -1.1972
24802SOL     OW81010   2.636   8.636   4.665 -0.6041 -0.3210 -0.6088
24802SOL    HW181011   2.714   8.682   4.698 -2.1240  0.8175  1.6899
24802SOL    HW281012   2.631   8.557   4.718 -0.4988 -0.8732 -1.4186
24803SOL     OW81013   8.386   7.910  11.273 -0.2017 -0.7064 -0.7055
24803SOL    HW181014   8.368   7.985  11.329 -0.1429 -2.2283  1.4705
24803SOL    HW281015   8.338   7.929  11.192  2.2625  3.0288 -1.5073
24804SOL     OW81016   7.127   9.204  10.315  0.2031 -0.0202  0.5462
24804SOL    HW181017   7.067   9.236  10.382 -2.4688 -2.3010 -0.5427
24804SOL    HW281018   7.077   9.210  10.233  1.8956 -0.9252 -0.6109
24805SOL     OW81019   5.835   5.914   3.143 -0.3373  0.5709  0.2446
24805SOL    HW181020   5.911   5.900   3.086 -1.5122 -0.2971 -1.1661
24805SOL    HW281021   5.865   5.980   3.206  1.5689  0.2727 -0.2726
24806SOL     OW81022   1.155  10.810   4.411 -0.3090 -0.0833 -0.0520
24806SOL    HW181023   1.222  10.741   4.404  0.3397  0.6319 -1.3182
24806SOL    HW281024   1.119  10.800   4.499  0.6333 -1.2535  0.2243
24807SOL     OW81025  11.578  11.717   8.245  0.2795 -0.1562 -0.0436
24807SOL    HW181026  11.661  11.764   8.250  0.7554 -1.0806  1.2459
24807SOL    HW281027  11.559  11.692   8.335 -1.5096  0.1933 -0.2802
24808SOL     OW81028  12.388   4.523  11.461  0.0435  1.1654 -0.1257
24808SOL    HW181029  12.319   4.554  11.402  0.5899  0.9755 -0.8742
24808SOL    HW281030  12.384   4.584  11.535 -0.6119  1.4441 -0.3780
24809SOL     OW81031   6.258   1.737   0.451 -0.0582 -0.3110  0.0395
24809SOL    HW181032   6.168   1.764   0.466 -0.7846 -1.4129 -1.9488
24809SOL    HW281033   6.311   1.807   0.489 -1.7056  0.1324  1.6786
24810SOL     OW81034   1.697   9.994   0.241  0.6236  0.8439 -0.3183
24810SOL    HW181035   1.672   9.987   0.149  3.2763  1.1537 -1.1521
24810SOL    HW281036   1.709  10.088   0.255 -3.0209  1.2194  1.4206
24811SOL     OW81037   3.602   7.551   2.942 -1.0494 -0.2367 -0.6340
24811SOL    HW181038   3.597   7.456   2.930 -2.0437 -0.4759  1.3553
24811SOL    HW281039   3.648   7.582   2.864 -0.4062 -2.3771 -1.1768
24812SOL     OW81040   8.209   7.924   8.530  0.3202  0.5410  0.0263
24812SOL    HW181041   8.134   7.890   8.579  0.1150  1.9923  0.7674
24812SOL    HW281042   8.170   7.978   8.461  0.6674  0.3510 -0.3228
24813SOL     OW81043   1.345   6.544   4.079  0.0516 -0.0128 -0.2430
24813SOL    HW181044   1.396   6.621   4.104 -2.1539  1.7559 -0.9326
24813SOL    HW281045   1.298   6.519   4.159  0.1031 -0.1198 -0.2455
24814SOL     OW81046   3.026   4.420   9.205  0.2380  0.0843 -0.9060
24814SOL    HW181047   3.107   4.436   9.157  0.1920 -1.3030 -1.4940
24814SOL    HW281048   3.038   4.467   9.288  0.7165  1.7108 -1.8533
24815SOL     OW81049  12.605   1.382   7.854 -0.0301  0.4375 -0.4889
24815SOL    HW181050  12.525   1.364   7.904  0.2172  2.2903  0.6528
24815SOL    HW281051  12.660   1.305   7.869  0.0040  0.8788  2.1144
24816SOL     OW81052   4.582   0.631   5.041 -0.0315 -0.2893  0.1792
24816SOL    HW181053   4.508   0.683   5.072  1.3032  1.8571 -0.0121
24816SOL    HW281054   4.543   0.550   5.009 -1.8983 -0.9344  3.5741
24817SOL     OW81055   0.575  10.943   7.470 -0.2948 -0.1750  0.5751
24817SOL    HW181056   0.592  11.019   7.414  0.7666 -1.2303 -0.5768
24817SOL    HW281057   0.622  10.962   7.551  1.8893 -0.5696 -0.5312
24818SOL     OW81058   8.543   6.871  11.490 -0.4882  0.0251  0.4459
24818SOL    HW181059   8.592   6.855  11.570 -0.4983  0.2077  0.4886
24818SOL    HW281060   8.456   6.833  11.507 -0.3221 -0.4144  0.3206
24819SOL     OW81061  10.543   3.553   4.867 -0.3193 -0.0313  0.3171
24819SOL    HW181062  10.637   3.569   4.860 -0.2749  0.0467  1.0086
24819SOL    HW281063  10.517   3.522   4.780  0.4217 -0.4437  0.2315
24820SOL     OW81064   8.196   2.634   4.711 -0.4669 -0.6302 -0.4698
24820SOL    HW181065   8.252   2.629   4.634  1.5737  0.0721  0.8712
24820SOL    HW281066   8.159   2.722   4.709 -0.9489 -0.8397 -0.9732
24821SOL     OW81067   0.517   0.972   3.741  0.3467  0.0386  0.0944
24821SOL    HW181068   0.480   0.890   3.773 -1.2631  0.3042 -0.9329
24821SOL    HW281069   0.450   1.038   3.761  0.1431  0.5213 -1.9393
24822SOL     OW81070   0.138  11.500   0.221  0.2757 -0.4365 -0.0129
24822SOL    HW181071   0.100  11.443   0.288  0.2729  0.0009  0.3660
24822SOL    HW281072   0.232  11.494   0.235  0.2365  0.8574  1.0736
24823SOL     OW81073   7.964   0.409  10.300 -0.0068  0.0217  0.0779
24823SOL    HW181074   8.033   0.456  10.347 -0.3059  0.5641 -0.0159
24823SOL    HW281075   7.891   0.471  10.295  0.4311  0.4575 -2.1710
24824SOL     OW81076   8.012   0.344  11.605 -0.3496  0.0720  0.2336
24824SOL    HW181077   8.054   0.289  11.670  0.3971 -0.2453 -0.4914
24824SOL    HW281078   7.980   0.420  11.654 -0.8942 -0.7292  1.1523
24825SOL     OW81079   2.309  12.070   1.836  0.1737  0.9213 -0.9098
24825SOL    HW181080   2.228  12.024   1.859  0.0115  1.9072  0.6389
24825SOL    HW281081   2.362  12.004   1.790 -0.3610 -0.5736  0.5254
24826SOL     OW81082   6.314  11.096   5.038 -0.2337 -0.5613  0.4163
24826SOL    HW181083   6.352  11.044   4.967 -0.5804 -0.1289 -0.1021
24826SOL    HW281084   6.351  11.183   5.026  0.1744 -0.6354  1.1441
24827SOL     OW81085   5.646  12.149   0.162 -0.0270  0.2219  0.8057
24827SOL    HW181086   5.613  12.223   0.212  2.8171  0.7236  2.1427
24827SOL    HW281087   5.666  12.082   0.227 -0.7673 -1.0478 -0.2027
24828SOL     OW81088  10.796  11.054   4.877  0.3242  0.4906 -0.2171
24828SOL    HW181089  10.889  11.079   4.877  1.2342 -2.4440  0.0806
24828SOL    HW281090  10.785  11.005   4.958 -1.1671 -0.2920 -0.8636
24829SOL     OW81091   6.775   7.407  11.310  0.3814 -0.0804  0.9504
24829SOL    HW181092   6.697   7.441  11.266  0.8729 -0.4412 -0.2504
24829SOL    HW281093   6.747   7.392  11.400 -0.3523  1.7309  1.0676
24830SOL     OW81094   7.007  12.489  10.610  0.4299 -0.2760  0.0607
24830SOL    HW181095   7.076  12.425  10.624  2.8032  2.0663 -0.2509
24830SOL    HW281096   6.930  12.451  10.654  1.1535 -4.0481 -1.5284
24831SOL     OW81097   0.447   6.651   0.154 -0.1883 -0.3543  0.1296
24831SOL    HW181098   0.498   6.710   0.099  0.3797 -1.7271 -0.8542
24831SOL    HW281099   0.359   6.652   0.115 -0.3743  0.3648  0.5459
24832SOL     OW81100   7.361  11.308   2.823  0.5220  0.9552  0.3569
24832SOL    HW181101   7.295  11.317   2.891 -0.2014  1.8287 -0.4457
24832SOL    HW281102   7.317  11.259   2.753  1.7243 -1.3271  1.0983
24833SOL     OW81103  11.088   9.040  11.913 -0.2147  0.0386  0.2880
24833SOL    HW181104  11.079   9.134  11.897 -0.1846 -0.0908 -0.5166
24833SOL    HW281105  11.003   9.013  11.946 -0.1019  0.4200  0.8986
24834SOL     OW81106   4.052   1.080   9.913 -0.0428 -0.0194  0.0590
24834SOL    HW181107   3.976   1.125   9.948 -0.3226 -0.3077 -0.1669
24834SOL    HW281108   4.103   1.056   9.990 -0.4905 -0.3668  0.2545
24835SOL     OW81109   6.587   0.888  10.176  0.5046  0.2928 -0.1551
24835SOL    HW181110   6.677   0.917  10.165  0.1639  1.4255 -0.0940
24835SOL    HW281111   6.534   0.965  10.157 -0.5603 -0.8220 -2.0852
24836SOL     OW81112   2.231   0.991  10.280 -0.0681  0.2675  0.6375
24836SOL    HW181113   2.136   0.988  10.290 -0.3072 -0.9201 -1.4583
24836SOL    HW281114   2.257   0.899  10.271  1.2593  0.6033  0.8145
24837SOL     OW81115   7.860   4.286   9.888 -0.3104 -0.1029  0.2843
24837SOL    HW181116   7.769   4.275   9.861 -0.4431  1.8780 -0.2247
24837SOL    HW281117   7.863   4.373   9.929  1.0956 -0.6578  1.4594
24838SOL     OW81118   2.775   7.103   5.847 -0.4468  0.2103 -0.0403
24838SOL    HW181119   2.740   7.093   5.759  1.7956 -0.6878 -0.9082
24838SOL    HW281120   2.829   7.025   5.861  0.8079  1.2625  1.3295
24839SOL     OW81121   2.968  11.059   0.601  0.2527 -0.1605 -0.4445
24839SOL    HW181122   2.893  11.117   0.613  0.0588 -0.3107 -0.9042
24839SOL    HW281123   3.016  11.064   0.684 -1.8996 -2.4462  1.0797
24840SOL     OW81124   4.727   6.748   5.108 -0.4325  0.2632 -0.0646
24840SOL    HW181125   4.710   6.715   5.196 -0.3599  1.0630  0.2554
24840SOL    HW281126   4.807   6.800   5.116 -0.6396  0.6625 -0.5191
24841SOL     OW81127   9.318   3.386   1.149  0.4164  0.3517  0.2918
24841SOL    HW181128   9.278   3.361   1.232 -1.6792  0.9986 -0.4478
24841SOL    HW281129   9.326   3.304   1.100 -1.3715  0.3387 -0.0580
24842SOL     OW81130   9.957  12.754   1.100 -0.3192  0.3734  0.0802
24842SOL    HW181131   9.889  12.731   1.036 -0.9087 -1.2580  1.2258
24842SOL    HW281132  10.002  12.671   1.118  0.2595  0.9238  1.2874
24843SOL     OW81133   6.478   0.371  10.088  0.3136  0.5359  0.1889
24843SOL    HW181134   6.393   0.400  10.055  0.8281 -0.8615 -2.7212
24843SOL    HW281135   6.525   0.452  10.108 -0.4941  1.5062 -1.5871
24844SOL     OW81136   4.555   6.228   1.917 -0.7146  0.5119  0.2876
24844SOL    HW181137   4.560   6.173   1.996  1.9970  0.2779  0.0623
24844SOL    HW281138   4.518   6.310   1.949 -1.3864 -0.1793  1.4032
24845SOL     OW81139   9.880   6.532   7.963 -0.2180 -0.4460 -0.2249
24845SOL    HW181140   9.904   6.622   7.940  1.7035 -1.4029 -2.3362
24845SOL    HW281141   9.929   6.513   8.043  0.6404 -0.1002 -0.6582
24846SOL     OW81142   9.396   9.689  10.000 -0.3408  0.0156  0.5245
24846SOL    HW181143   9.491   9.705   9.998 -0.7968  3.1991  0.2203
24846SOL    HW281144   9.364   9.720   9.916 -1.8838  0.7304  1.3430
24847SOL     OW81145  10.336   0.530  11.228 -0.5298  0.3642  0.7799
24847SOL    HW181146  10.278   0.568  11.163 -0.3909  0.1594  0.5350
24847SOL    HW281147  10.404   0.597  11.241 -0.8344  0.6164  1.0900
24848SOL     OW81148  11.151   6.953  10.871 -0.1976  0.4476  0.1619
24848SOL    HW181149  11.084   6.973  10.936 -1.0469  0.1296 -0.5930
24848SOL    HW281150  11.158   7.033  10.819  0.4014  0.6634  0.5617
24849SOL     OW81151   2.758   2.545  12.014  0.0094  0.6192 -0.1787
24849SOL    HW181152   2.798   2.495  11.943  0.8698  0.9622  0.0396
24849SOL    HW281153   2.690   2.597  11.972  1.1337  1.5306 -0.9462
24850SOL     OW81154   0.586   2.046   0.770 -0.4327 -0.7164 -0.0917
24850SOL    HW181155   0.589   2.142   0.775  0.7973 -0.7944  1.0775
24850SOL    HW281156   0.520   2.021   0.835  0.9556 -0.7495  1.3507
24851SOL     OW81157   0.867   2.844   9.841 -0.1297 -0.3861  0.7180
24851SOL    HW181158   0.894   2.810   9.756  1.1566  0.9715  0.5319
24851SOL    HW281159   0.776   2.817   9.850  0.2140 -2.0581 -0.2899
24852SOL     OW81160   8.198   6.475   3.424  0.3061  0.3126  0.2052
24852SOL    HW181161   8.193   6.511   3.336  2.4417 -0.8250 -0.4569
24852SOL    HW281162   8.232   6.386   3.412 -3.5133 -1.5900  1.8521
24853SOL     OW81163   3.419  10.219   3.481 -0.1477  0.0986 -0.3035
24853SOL    HW181164   3.380  10.154   3.541  2.4650 -1.2330  0.1203
24853SOL    HW281165   3.431  10.171   3.399 -0.4597  0.8241 -0.7756
24854SOL     OW81166   2.900   1.101   1.029  0.0264  0.3418 -0.2384
24854SOL    HW181167   2.972   1.161   1.011 -0.3039  0.2742 -2.0078
24854SOL    HW281168   2.829   1.157   1.061 -0.3105  0.9654 -1.9662
24855SOL     OW81169   6.854   2.131   4.841 -0.3637  0.4461 -0.1121
24855SOL    HW181170   6.878   2.113   4.750 -0.4289 -0.7542  0.0964
24855SOL    HW281171   6.790   2.201   4.835 -1.7290 -0.8319 -1.1380
24856SOL     OW81172  12.160   9.363   9.989 -0.1287  0.6589 -0.0460
24856SOL    HW181173  12.096   9.369  10.059  0.8817  0.5172  0.9281
24856SOL    HW281174  12.112   9.386   9.910 -1.3664  0.5457  0.6470
24857SOL     OW81175   4.650   9.828   0.712 -0.2349 -0.0707  0.4140
24857SOL    HW181176   4.593   9.820   0.635 -0.5049  2.8961  0.2037
24857SOL    HW281177   4.606   9.776   0.779 -1.8787  0.0976 -0.4794
24858SOL     OW81178   3.675   3.185   1.754  0.5994 -0.1270 -0.4133
24858SOL    HW181179   3.690   3.274   1.721  3.2100 -0.5208 -0.4336
24858SOL    HW281180   3.655   3.134   1.675  0.3976  0.1624 -0.5549
24859SOL     OW81181   2.432   5.792   3.774  0.2259 -0.2430 -0.0855
24859SOL    HW181182   2.418   5.871   3.826  0.4104 -0.1904 -0.1151
24859SOL    HW281183   2.506   5.749   3.816  0.4125 -0.1702 -0.3412
24860SOL     OW81184   3.336   0.889   2.948 -0.0471  0.7869  0.0903
24860SOL    HW181185   3.352   0.913   3.039 -1.3238  0.1420  0.5189
24860SOL    HW281186   3.343   0.793   2.947 -0.2928  0.7701 -0.4247
24861SOL     OW81187   8.438   0.906   6.976  0.5647  0.1486  0.1263
24861SOL    HW181188   8.393   0.876   7.055  1.0151 -0.2805  0.2291
24861SOL    HW281189   8.369   0.946   6.923  0.6345  2.6411  1.7473
24862SOL     OW81190  12.566   6.661   5.210 -0.2450 -0.7095  0.4589
24862SOL    HW181191  12.558   6.752   5.180  1.2574 -0.8615 -0.4974
24862SOL    HW281192  12.645   6.660   5.263  1.1863 -1.9130 -1.5668
24863SOL     OW81193   1.322   2.305   4.735 -0.4926 -0.1001  0.5029
24863SOL    HW181194   1.284   2.239   4.793 -0.1224 -1.2029 -0.4767
24863SOL    HW281195   1.298   2.277   4.647  2.1857 -0.6635 -0.1610
24864SOL     OW81196  10.929   6.259   0.288  0.3493  0.0440  0.2776
24864SOL    HW181197  10.910   6.217   0.372 -1.6359  1.2215  0.5003
24864SOL    HW281198  10.870   6.216   0.226 -0.5432  1.3212  0.1913
24865SOL     OW81199  11.852   6.988   8.874 -0.5267 -0.2068  0.1346
24865SOL    HW181200  11.832   6.978   8.966  1.1877  2.6532  0.9441
24865SOL    HW281201  11.943   6.957   8.865 -0.3577  0.3894 -0.3589
24866SOL     OW81202   9.264   7.817   6.647 -0.3310 -0.1605  0.4951
24866SOL    HW181203   9.325   7.885   6.618  0.1346 -0.9652 -0.5262
24866SOL    HW281204   9.320   7.752   6.690 -0.6482 -0.2744  0.7389
24867SOL     OW81205   7.657   9.587   8.670  0.1503 -0.0422  0.2326
24867SOL    HW181206   7.575   9.556   8.631  0.3076  1.0314 -1.0618
24867SOL    HW281207   7.631   9.624   8.754 -0.7658  0.5277 -0.2764
24868SOL     OW81208   2.347   5.805   7.287  0.3507  0.5680 -0.1229
24868SOL    HW181209   2.297   5.882   7.316 -0.0992  1.0578 -2.0704
24868SOL    HW281210   2.361   5.820   7.193 -0.2422 -1.9998 -0.6878
24869SOL     OW81211   0.342   9.924   9.960 -0.0333 -0.0874 -0.5335
24869SOL    HW181212   0.311   9.848  10.010  0.1838 -1.4224 -2.3112
24869SOL    HW281213   0.274   9.991   9.972  0.1764 -0.2318  1.7477
24870SOL     OW81214   3.515   1.626   5.809  0.4660  0.5097  0.2265
24870SOL    HW181215   3.570   1.663   5.740 -1.8969  1.4811 -1.2716
24870SOL    HW281216   3.540   1.534   5.813  1.1110  0.5726 -1.5030
24871SOL     OW81217   4.274   2.103   3.412  0.5176  0.3713  0.1210
24871SOL    HW181218   4.279   2.167   3.483  0.6401 -0.0917  0.5428
24871SOL    HW281219   4.268   2.155   3.332 -0.8830  0.9100  0.5536
24872SOL     OW81220   9.923   1.655   1.254  0.2488  0.4422  0.2574
24872SOL    HW181221   9.991   1.612   1.306  0.2813  1.1798  0.8434
24872SOL    HW281222   9.841   1.614   1.283  0.2911  0.6845  0.7194
24873SOL     OW81223   3.522   0.902   5.427  0.1587 -0.2955 -0.6943
24873SOL    HW181224   3.477   0.950   5.358  0.6380  2.2353  0.6319
24873SOL    HW281225   3.451   0.861   5.478 -0.3957  0.4059 -0.8928
24874SOL     OW81226   3.312  12.633   1.460  0.2171 -0.9216 -0.2269
24874SOL    HW181227   3.394  12.664   1.498 -0.7660  2.1455 -0.3856
24874SOL    HW281228   3.328  12.630   1.366  1.0830 -3.6550 -0.1006
24875SOL     OW81229   7.050   3.957   1.668  0.2525  0.8236 -0.4850
24875SOL    HW181230   7.017   3.974   1.756  0.4720 -0.6055 -0.1000
24875SOL    HW281231   6.976   3.918   1.622  0.3807  0.8164 -0.6853
24876SOL     OW81232   6.865   3.280   4.066  0.6507 -0.0570  0.6568
24876SOL    HW181233   6.950   3.310   4.099  0.6168  0.2099  0.5024
24876SOL    HW281234   6.840   3.346   4.001  0.8424 -0.7237 -0.1112
24877SOL     OW81235   1.530   2.643  10.413  0.2831 -0.3414  0.2431
24877SOL    HW181236   1.442   2.605  10.415  0.5316 -0.9126  1.3587
24877SOL    HW281237   1.532   2.696  10.334 -0.6818 -1.2476 -0.4203
24878SOL     OW81238   7.098  10.132   0.002  0.8266 -0.0225  0.4474
24878SOL    HW181239   7.039  10.057   0.009  0.1120  0.5038  0.1067
24878SOL    HW281240   7.170  10.111   0.061 -0.7526  0.3177  2.5810
24879SOL     OW81241   4.042   4.888   3.637 -0.6965  0.5070 -0.0053
24879SOL    HW181242   4.087   4.960   3.594 -1.0514 -0.9530 -3.0516
24879SOL    HW281243   4.108   4.849   3.694 -0.0148  2.1526  0.3745
24880SOL     OW81244  11.380  11.413   4.005 -0.0838  0.3886 -0.1073
24880SOL    HW181245  11.387  11.427   3.910 -1.3301 -0.6705 -0.3923
24880SOL    HW281246  11.330  11.488   4.037 -0.5137  0.2542 -0.4537
24881SOL     OW81247   6.512  10.460   0.685  0.3402  0.1120 -0.5544
24881SOL    HW181248   6.434  10.494   0.641  0.0157  0.2434  0.1170
24881SOL    HW281249   6.582  10.471   0.620 -0.3898 -1.0217 -1.5661
24882SOL     OW81250  10.279  10.720   6.918  0.1426  0.6184 -0.6958
24882SOL    HW181251  10.310  10.804   6.953  0.0023 -0.1898  1.5897
24882SOL    HW281252  10.348  10.691   6.859  0.2769  2.2304 -1.3841
24883SOL     OW81253   4.859   8.892   6.119  0.1700  0.8743 -0.2508
24883SOL    HW181254   4.877   8.972   6.168  1.7381  1.2187 -1.3315
24883SOL    HW281255   4.864   8.918   6.027  0.5704 -0.4222 -0.6260
24884SOL     OW81256   7.202   9.899   8.312 -0.4004 -0.3754 -0.1494
24884SOL    HW181257   7.250   9.821   8.341 -0.6151  0.2518  2.0395
24884SOL    HW281258   7.244   9.971   8.359 -0.4097  0.8235 -1.9103
24885SOL     OW81259   0.713   0.347   7.364 -0.4618 -0.2223  0.0272
24885SOL    HW181260   0.638   0.350   7.424 -0.9692 -2.3209 -0.4198
24885SOL    HW281261   0.681   0.297   7.288  0.0906  2.5218 -2.1574
24886SOL     OW81262   6.998   6.429   4.798  0.1338 -0.1919  0.0585
24886SOL    HW181263   6.938   6.448   4.870  0.4533 -0.6893  0.4655
24886SOL    HW281264   7.008   6.512   4.752  1.0654  0.5250  1.4502
24887SOL     OW81265   4.826  10.354   4.796 -0.4035 -0.3524 -0.2191
24887SOL    HW181266   4.914  10.324   4.777  0.2363  1.2518  0.0664
24887SOL    HW281267   4.825  10.445   4.766 -1.0710  0.5491  2.3532
24888SOL     OW81268  12.766   4.819   0.710  0.3591  0.0618 -0.4387
24888SOL    HW181269  12.834   4.868   0.757  0.0499 -0.0313  0.1113
24888SOL    HW281270  12.754   4.739   0.761  1.4225 -0.9856 -1.7549
24889SOL     OW81271   7.759   1.722   9.057 -0.1906  0.9963 -0.2667
24889SOL    HW181272   7.823   1.693   9.122  1.4379  3.6121 -0.5677
24889SOL    HW281273   7.690   1.655   9.059  2.4114 -1.8887  0.2074
24890SOL     OW81274   9.919   1.638   3.386  0.2940 -0.3864 -0.0515
24890SOL    HW181275   9.922   1.733   3.383  0.0417 -0.3620  0.3391
24890SOL    HW281276   9.836   1.618   3.429  0.4120 -0.7786 -0.0001
24891SOL     OW81277   9.133   4.376   1.273  0.2564  0.1691 -0.0853
24891SOL    HW181278   9.192   4.451   1.277  0.2656  0.1547  0.0420
24891SOL    HW281279   9.173   4.319   1.206  0.7224 -0.1224  0.4329
24892SOL     OW81280   0.378   6.474   0.558 -0.6910 -0.2974 -0.3203
24892SOL    HW181281   0.311   6.433   0.504 -0.1205 -0.8833 -0.5936
24892SOL    HW281282   0.332   6.499   0.638 -0.8567 -2.3846  0.2805
24893SOL     OW81283  12.231  11.870   8.426 -0.4015 -0.4497  0.3730
24893SOL    HW181284  12.222  11.785   8.384  0.5034  0.2024 -1.2264
24893SOL    HW281285  12.294  11.917   8.372 -1.9033  1.7442  0.4168
24894SOL     OW81286   5.498   5.678   0.243 -0.1496  0.2176  0.3291
24894SOL    HW181287   5.580   5.696   0.290 -0.0615 -0.9415  0.6576
24894SOL    HW281288   5.524   5.672   0.151  0.2915 -0.8458  0.4994
24895SOL     OW81289   4.356   7.273   9.377  0.5319  0.5923 -0.3327
24895SOL    HW181290   4.386   7.281   9.468  0.9236 -0.0192 -0.4039
24895SOL    HW281291   4.405   7.341   9.330  0.1939  1.0327 -0.0608
24896SOL     OW81292   4.215   8.829   5.311  0.0654  0.3163 -0.3643
24896SOL    HW181293   4.225   8.912   5.358  0.9047 -1.0499  2.0425
24896SOL    HW281294   4.235   8.850   5.220 -0.0202  2.7845  0.1205
24897SOL     OW81295   2.706   2.827   2.727 -0.1334 -0.0855  0.0798
24897SOL    HW181296   2.764   2.754   2.747 -0.8307 -0.0410  2.6156
24897SOL    HW281297   2.762   2.891   2.683  0.8016 -1.5514 -0.9465
24898SOL     OW81298   5.186   9.022   8.449 -0.0565  0.3039 -0.2406
24898SOL    HW181299   5.212   9.044   8.538  1.2003  1.9162 -0.9434
24898SOL    HW281300   5.239   9.080   8.394 -1.3521 -0.1152 -2.0111
24899SOL     OW81301   6.322   8.888   4.247 -0.0920  0.2848  0.9476
24899SOL    HW181302   6.355   8.834   4.318  1.3819 -0.5522 -0.3173
24899SOL    HW281303   6.361   8.974   4.261  2.3064 -0.5393 -0.2018
24900SOL     OW81304   2.367   0.193   0.246 -0.0586 -0.0791 -0.2264
24900SOL    HW181305   2.383   0.160   0.157  1.4799  0.2706 -0.0987
24900SOL    HW281306   2.295   0.138   0.278 -0.6041 -0.2539 -1.6539
24901SOL     OW81307   0.572   9.095   9.970  0.0819  0.5314  0.4643
24901SOL    HW181308   0.563   9.104   9.876  1.9394 -1.1617  0.0561
24901SOL    HW281309   0.494   9.138  10.006  0.2518  2.8771 -1.7127
24902SOL     OW81310  11.481   7.974  10.681 -0.5070  0.1960 -0.7694
24902SOL    HW181311  11.479   7.881  10.704 -1.9521  0.6040  1.0638
24902SOL    HW281312  11.432   7.980  10.599  2.4222 -0.9863 -2.7768
24903SOL     OW81313   7.855  10.680   8.901  0.1614  0.0532  0.6054
24903SOL    HW181314   7.872  10.770   8.928 -1.3292  0.4603  0.2790
24903SOL    HW281315   7.781  10.653   8.954  0.6436 -1.0262  0.7513
24904SOL     OW81316   1.886   9.901   1.195  0.0650  0.0492  0.1692
24904SOL    HW181317   1.954   9.968   1.208 -1.8330  2.3507 -0.9289
24904SOL    HW281318   1.840   9.897   1.278 -0.1755  0.5571  0.0638
24905SOL     OW81319   6.979   7.374  11.070  0.3166  0.1188  0.4423
24905SOL    HW181320   6.923   7.412  11.138 -0.9566 -0.2779 -0.3423
24905SOL    HW281321   6.968   7.280  11.079 -2.4585  0.0154 -2.2393
24906SOL     OW81322  10.147  10.767  11.787  0.3917 -0.1844 -0.8256
24906SOL    HW181323  10.103  10.718  11.856  1.3560 -2.1123 -1.5184
24906SOL    HW281324  10.076  10.798  11.731 -0.2309 -1.1843 -0.6172
24907SOL     OW81325   6.244   5.315   7.845  0.1068  0.0448 -0.2024
24907SOL    HW181326   6.150   5.333   7.849 -0.1929 -1.0950 -1.3972
24907SOL    HW281327   6.278   5.347   7.929 -1.5054 -0.4373  0.6784
24908SOL     OW81328   2.923   9.498  11.093  0.1002 -0.2193  0.2965
24908SOL    HW181329   2.937   9.553  11.016 -0.9964 -2.8955 -2.0043
24908SOL    HW281330   2.991   9.431  11.087 -1.0240 -1.4286  0.6700
24909SOL     OW81331   7.140   2.411  11.759  0.1247 -0.1262  0.3546
24909SOL    HW181332   7.147   2.424  11.665 -0.1709  0.5924  0.4222
24909SOL    HW281333   7.228   2.387  11.787  0.5308  0.9766  0.0793
24910SOL     OW81334   2.723   6.043   0.769 -0.2573  0.3816  0.2396
24910SOL    HW181335   2.751   5.955   0.744  0.9489  0.6831  0.4992
24910SOL    HW281336   2.638   6.054   0.726  0.4235 -0.2137 -1.3310
24911SOL     OW81337   8.298   0.754   8.996 -0.5629 -0.7776 -0.5277
24911SOL    HW181338   8.271   0.697   9.069  1.4026  1.2857  2.0261
24911SOL    HW281339   8.336   0.831   9.039  1.5153  0.2015 -3.7698
24912SOL     OW81340   8.900  10.159   8.770  0.3531 -0.0156 -0.3594
24912SOL    HW181341   8.979  10.129   8.815 -0.9679 -2.1144  0.7386
24912SOL    HW281342   8.860  10.079   8.736 -2.2977  0.6985  0.8390
24913SOL     OW81343   9.767  11.084   4.108  0.2977 -0.4178  0.4293
24913SOL    HW181344   9.695  11.023   4.089  0.7149 -1.7568  2.7155
24913SOL    HW281345   9.806  11.103   4.022 -2.0595 -0.5318 -0.7314
24914SOL     OW81346   4.876   0.014   3.643 -0.3003  0.1281 -0.3520
24914SOL    HW181347   4.873   0.088   3.704  1.8516  0.5605 -0.6859
24914SOL    HW281348   4.883   0.055   3.556 -0.1285 -0.4532 -0.6180
24915SOL     OW81349   1.919  10.990  12.138  0.2833  0.1715  0.1389
24915SOL    HW181350   1.948  10.948  12.057  1.7605  0.0812  0.6907
24915SOL    HW281351   1.979  11.063  12.150 -1.7142  1.9729 -0.3465
24916SOL     OW81352   1.252   8.281   6.665  0.2708  0.1899 -0.1756
24916SOL    HW181353   1.265   8.336   6.742 -0.1207  0.3572 -0.2264
24916SOL    HW281354   1.291   8.331   6.593  0.1694  0.2731 -0.1728
24917SOL     OW81355   1.529   0.429  11.753  0.2445  0.2067  0.2830
24917SOL    HW181356   1.515   0.494  11.684 -0.1699 -0.1283  0.0443
24917SOL    HW281357   1.449   0.376  11.753  0.8319 -0.7135  0.0240
24918SOL     OW81358  12.372   2.403  10.252  0.0654 -0.1954 -0.6585
24918SOL    HW181359  12.461   2.388  10.222 -0.0126 -1.2800 -0.4061
24918SOL    HW281360  12.319   2.402  10.172 -0.0267 -2.1707 -0.6379
24919SOL     OW81361   8.634   6.182   4.684  0.2739  0.3938  0.1220
24919SOL    HW181362   8.562   6.197   4.744 -0.7877 -1.5497 -0.5755
24919SOL    HW281363   8.595   6.185   4.597  1.0373 -0.5206 -0.2806
24920SOL     OW81364  12.644   0.988   9.389  0.6533  0.0857  1.0750
24920SOL    HW181365  12.703   0.988   9.314 -0.0429  0.8317  0.5122
24920SOL    HW281366  12.578   0.922   9.368  1.4267 -0.9665  1.8397
24921SOL     OW81367  10.947   9.021   4.310 -0.4057 -0.4311  0.0188
24921SOL    HW181368  10.934   9.089   4.375  0.9498  1.7055 -1.8218
24921SOL    HW281369  10.907   8.943   4.349  0.3000  0.7119  3.3364
24922SOL     OW81370   5.731   0.659   4.752 -0.1216  0.5780 -0.1676
24922SOL    HW181371   5.728   0.673   4.658  1.5761  0.2092 -0.3090
24922SOL    HW281372   5.647   0.618   4.773 -1.0304  1.7745 -1.2936
24923SOL     OW81373   0.471   2.778  12.665 -0.2493 -0.3690  0.3838
24923SOL    HW181374   0.494   2.849  12.605  1.3399  0.7089  2.1428
24923SOL    HW281375   0.383   2.799  12.695  0.4232  1.2854  1.3507
24924SOL     OW81376  11.095  11.975  10.604 -0.4207 -0.2246 -0.0124
24924SOL    HW181377  11.119  12.038  10.536 -1.3782  1.2191  0.9412
24924SOL    HW281378  11.003  11.954  10.585 -0.7581  0.3557  0.9585
24925SOL     OW81379   4.945   4.385   1.629  0.0886  0.3913 -0.1567
24925SOL    HW181380   4.910   4.301   1.599 -0.5843  0.5463  0.1623
24925SOL    HW281381   4.965   4.433   1.549  0.6896 -0.1520 -0.3412
24926SOL     OW81382   6.665   7.711  11.036  0.4676 -0.2188 -0.7945
24926SOL    HW181383   6.711   7.642  10.987  1.2657 -0.9047  0.8176
24926SOL    HW281384   6.732   7.746  11.096 -0.8190 -0.5357  0.9115
24927SOL     OW81385   4.522  12.295   8.306  0.1809 -0.7551 -1.1809
24927SOL    HW181386   4.584  12.335   8.367 -0.5286 -1.0291 -0.2508
24927SOL    HW281387   4.542  12.202   8.310 -1.1163 -1.0135  0.1387
24928SOL     OW81388   7.333  12.414   9.347 -0.5156  0.2171 -0.2096
24928SOL    HW181389   7.423  12.387   9.364 -0.3896  1.0073  0.4548
24928SOL    HW281390   7.338  12.509   9.338 -1.3727  0.3516  0.5409
24929SOL     OW81391   8.531   3.484   5.043 -0.4635  0.3662 -0.3415
24929SOL    HW181392   8.464   3.471   5.109 -0.6532  1.2101 -0.3590
24929SOL    HW281393   8.507   3.425   4.971  1.0766 -2.4328  1.2630
24930SOL     OW81394   2.277  10.226  11.012  0.5253 -0.4483 -0.5026
24930SOL    HW181395   2.360  10.248  10.968  1.0996  0.3638  0.9342
24930SOL    HW281396   2.292  10.138  11.047  0.3770 -0.7431 -1.1598
24931SOL     OW81397   0.092  10.975   7.856  0.2813 -0.0795 -0.4819
24931SOL    HW181398   0.015  11.009   7.901  0.6378 -0.2285  0.2472
24931SOL    HW281399   0.164  10.989   7.917  0.9115  0.4596 -1.3283
24932SOL     OW81400   8.456   9.729  10.057  0.0997 -0.0634 -0.3294
24932SOL    HW181401   8.362   9.723  10.073  0.3908 -0.7000  1.5257
24932SOL    HW281402   8.468   9.809  10.007 -1.4743 -0.2553 -1.0621
24933SOL     OW81403   3.179   0.223   0.754 -0.1112  0.3985 -0.1375
24933SOL    HW181404   3.109   0.268   0.802 -0.6432 -1.4636  0.9125
24933SOL    HW281405   3.137   0.189   0.676 -0.1553  0.0821  0.0247
24934SOL     OW81406   5.459   5.737   9.462 -0.0384 -0.2156 -0.0470
24934SOL    HW181407   5.466   5.833   9.468  0.1302 -0.2146 -0.2612
24934SOL    HW281408   5.434   5.720   9.372 -0.0623 -0.3747 -0.0107
24935SOL     OW81409  10.118   2.717   2.053 -0.2811 -0.1831  0.1891
24935SOL    HW181410  10.170   2.796   2.039  1.3588 -1.2661 -0.1906
24935SOL    HW281411  10.182   2.651   2.080 -1.6528 -1.2935  0.8661
24936SOL     OW81412  12.024  11.781   8.858  0.4606  0.0532  0.2058
24936SOL    HW181413  11.961  11.729   8.808  0.3296  1.5599 -1.2717
24936SOL    HW281414  12.044  11.856   8.802  2.0104  0.6861  1.5083
24937SOL     OW81415  11.456   1.181   7.752 -0.2194 -0.0743 -0.2409
24937SOL    HW181416  11.502   1.159   7.671  0.9345  0.6811  0.1826
24937SOL    HW281417  11.364   1.162   7.733  0.0378  0.0047 -1.7027
24938SOL     OW81418   9.385  10.960   8.846  0.5686 -0.3455 -0.1046
24938SOL    HW181419   9.343  11.038   8.881  2.4782 -0.5331  2.8723
24938SOL    HW281420   9.461  10.992   8.798  1.1561 -0.3417  0.8201
24939SOL     OW81421   1.165   9.846   7.252 -0.0241  0.1334 -0.0984
24939SOL    HW181422   1.146   9.800   7.170 -0.9878 -0.1246  0.2583
24939SOL    HW281423   1.246   9.807   7.284 -0.9661 -1.5596  0.3518
24940SOL     OW81424  10.090   6.935   0.371  0.0065 -0.0265 -0.4498
24940SOL    HW181425  10.028   6.982   0.426  0.3374  0.9212 -0.8565
24940SOL    HW281426  10.120   7.001   0.308  1.8860 -0.2849  0.1257
24941SOL     OW81427   3.494   5.727   3.009 -0.2588  0.0648 -0.4887
24941SOL    HW181428   3.589   5.721   3.017 -0.2129 -1.0930 -1.5239
24941SOL    HW281429   3.463   5.745   3.097  0.6930 -3.3756  0.7358
24942SOL     OW81430   2.443   4.241   5.574 -0.7056 -0.0994 -0.6113
24942SOL    HW181431   2.469   4.225   5.483 -0.1822 -0.5881 -0.3802
24942SOL    HW281432   2.391   4.321   5.570  0.0521  0.3754 -1.2108
24943SOL     OW81433   9.070   7.897   9.782 -0.0152  0.5051 -0.0666
24943SOL    HW181434   9.102   7.928   9.867  0.9513  0.5332 -0.4309
24943SOL    HW281435   8.975   7.909   9.786 -0.2998 -1.6858  1.9061
24944SOL     OW81436  10.094   1.734   3.803  0.0047  0.0301  0.3614
24944SOL    HW181437  10.121   1.756   3.713  0.2406  0.4391  0.5299
24944SOL    HW281438  10.173   1.749   3.856 -0.7775  2.2937  1.0361
24945SOL     OW81439   5.259   8.364   0.471 -0.1620 -0.0855 -0.1539
24945SOL    HW181440   5.176   8.315   0.475  0.1313 -0.5697  0.1142
24945SOL    HW281441   5.258   8.419   0.549 -0.7963  0.8496 -0.7971
24946SOL     OW81442  11.995   3.282  12.483 -0.3191 -0.1208  0.0225
24946SOL    HW181443  11.912   3.316  12.515  0.4520  0.6204  1.3425
24946SOL    HW281444  12.045   3.361  12.459  0.0178 -0.5500 -0.7051
24947SOL     OW81445   2.399  10.772   2.402 -0.1452  0.1643  0.3276
24947SOL    HW181446   2.324  10.792   2.346 -0.4534  2.5674  1.4618
24947SOL    HW281447   2.361  10.764   2.490  0.7388 -0.0787  0.7017
24948SOL     OW81448   1.786   1.793   8.149  0.3836 -0.1024 -0.1283
24948SOL    HW181449   1.872   1.823   8.178  0.6930  0.2473 -1.3377
24948SOL    HW281450   1.730   1.871   8.155  0.7183  0.2739 -1.4401
24949SOL     OW81451  10.956   1.487   6.779  0.5402 -0.8458 -0.1278
24949SOL    HW181452  10.882   1.428   6.761 -0.7624  1.0504 -1.3080
24949SOL    HW281453  10.926   1.573   6.752  1.7671  0.7501  3.0946
24950SOL     OW81454   3.720  10.031   9.935  0.2871 -0.1300 -0.4942
24950SOL    HW181455   3.802  10.067   9.966 -0.9203  1.0550  1.5449
24950SOL    HW281456   3.711  10.063   9.845  0.2493  3.0645  0.5529
24951SOL     OW81457  12.371   0.230   4.939 -0.3251  0.8753 -0.2593
24951SOL    HW181458  12.385   0.324   4.932  1.3304  0.6692 -0.1370
24951SOL    HW281459  12.444   0.191   4.890 -1.0343 -0.3502 -0.3905
24952SOL     OW81460   0.113   5.012   6.701 -0.2534 -0.1617 -0.3446
24952SOL    HW181461   0.155   5.048   6.780 -0.2230 -0.0708 -0.4027
24952SOL    HW281462   0.035   4.968   6.734 -0.5073  0.3000 -0.3140
24953SOL     OW81463   4.947   1.315   1.529  0.1316 -0.0952 -0.4801
24953SOL    HW181464   4.872   1.336   1.584  0.5217  1.3913 -0.4685
24953SOL    HW281465   4.919   1.338   1.440  0.8069  1.1897 -0.3798
24954SOL     OW81466   3.016   1.343   5.327 -0.1193 -0.3222  0.5624
24954SOL    HW181467   3.017   1.340   5.232  0.7508 -1.1786  0.5922
24954SOL    HW281468   2.943   1.401   5.348  0.2717  0.6468 -0.6377
24955SOL     OW81469   8.375  11.245   4.944 -0.1869  0.1427 -0.7032
24955SOL    HW181470   8.313  11.184   4.905 -0.3611  0.4270 -0.8759
24955SOL    HW281471   8.388  11.312   4.877  0.9346 -0.3352 -0.9897
24956SOL     OW81472  11.426   8.920   2.627  0.1863  0.4789 -0.6089
24956SOL    HW181473  11.414   9.007   2.666  1.7476  1.5919 -2.4495
24956SOL    HW281474  11.520   8.914   2.611  0.0624 -1.4802 -0.7572
24957SOL     OW81475   3.596   6.165   7.399 -0.3343 -0.6797 -0.1769
24957SOL    HW181476   3.527   6.231   7.400  1.0456  0.9716 -2.7088
24957SOL    HW281477   3.578   6.110   7.475 -4.2024 -0.1603 -0.5033
24958SOL     OW81478   1.161  12.609   6.990  0.0556 -0.4395  0.2947
24958SOL    HW181479   1.124  12.666   6.924 -0.0870  0.2772  0.9796
24958SOL    HW281480   1.088  12.553   7.017 -0.3625  0.4686  1.1098
24959SOL     OW81481   1.215  12.284   9.465  0.7740  0.2371  0.1219
24959SOL    HW181482   1.260  12.254   9.544 -1.0058  0.3479  1.2290
24959SOL    HW281483   1.123  12.293   9.491 -0.0850 -0.7536 -2.2277
24960SOL     OW81484   2.611   4.295   8.612 -0.0684 -0.1443 -0.7695
24960SOL    HW181485   2.690   4.348   8.605 -0.2605  0.3407  0.4155
24960SOL    HW281486   2.540   4.359   8.613 -0.5677 -0.6110 -2.6340
24961SOL     OW81487  10.607   8.813   8.865 -0.2604  0.1898 -0.2144
24961SOL    HW181488  10.553   8.885   8.898 -0.1891  0.8038 -1.3666
24961SOL    HW281489  10.550   8.736   8.869 -1.1268  0.7572 -1.0633
24962SOL     OW81490  12.743   0.776   3.907 -0.0530  0.4818 -0.3794
24962SOL    HW181491  12.751   0.684   3.931 -0.6451  0.1470 -1.4019
24962SOL    HW281492  12.654   0.800   3.933  0.0166  0.7000 -0.3363
24963SOL     OW81493   9.607   0.387  11.022  0.6137 -0.0880  0.1423
24963SOL    HW181494   9.667   0.331  11.073 -0.1305  0.2699  1.4651
24963SOL    HW281495   9.579   0.454  11.084  1.0705  1.4605 -1.2702
24964SOL     OW81496  11.119   1.845   2.218 -0.4853 -0.2522 -0.3595
24964SOL    HW181497  11.112   1.763   2.266 -1.6026 -0.3682 -0.6819
24964SOL    HW281498  11.164   1.820   2.136 -1.4894 -0.7130 -0.7914
24965SOL     OW81499  11.031   6.971   8.260 -0.1552 -0.0756 -0.0980
24965SOL    HW181500  11.086   6.981   8.338  1.5200  1.9573 -1.4208
24965SOL    HW281501  11.074   6.904   8.208 -0.8407 -0.8786  0.3513
24966SOL     OW81502   6.734   0.374  10.661  0.0842 -0.1385  0.3410
24966SOL    HW181503   6.789   0.324  10.721 -0.6178  1.9904  2.9687
24966SOL    HW281504   6.791   0.442  10.626  0.0175 -0.2016  0.1055
24967SOL     OW81505   8.267   7.990   7.662  0.3146 -0.0153  0.5175
24967SOL    HW181506   8.232   8.036   7.738 -0.7991 -0.7502  0.4655
24967SOL    HW281507   8.214   7.910   7.655  0.7981 -0.2555 -0.6696
24968SOL     OW81508   0.934  10.374  10.048 -0.1612 -0.2225 -0.0437
24968SOL    HW181509   0.964  10.345   9.961  0.5369 -1.1758  0.4974
24968SOL    HW281510   0.929  10.293  10.099  1.3366  0.5253  1.3659
24969SOL     OW81511   1.000   9.879   4.885  0.7450  0.4114 -0.7424
24969SOL    HW181512   0.979   9.818   4.814  1.2363 -0.2411 -0.3469
24969SOL    HW281513   1.023   9.960   4.841  1.4191 -0.0976 -1.3674
24970SOL     OW81514   3.019   3.693  12.398  0.5953  0.4725 -1.0390
24970SOL    HW181515   3.034   3.664  12.488 -2.4632  0.4714 -0.4409
24970SOL    HW281516   2.972   3.775  12.407 -1.8902 -0.6889 -2.5541
24971SOL     OW81517   3.123   2.832   0.829 -0.0680  0.6388  0.3107
24971SOL    HW181518   3.164   2.747   0.846 -1.1821 -0.0664 -0.3342
24971SOL    HW281519   3.189   2.897   0.853  0.9622 -0.4221  0.4183
24972SOL     OW81520   4.325  11.705   8.456  0.1433 -0.6946 -0.7658
24972SOL    HW181521   4.385  11.716   8.530 -0.2844  0.7980 -0.5989
24972SOL    HW281522   4.238  11.720   8.493 -0.1191 -0.4613 -1.4550
24973SOL     OW81523   2.835   4.074   9.751  0.0005 -0.1596 -0.0561
24973SOL    HW181524   2.788   4.126   9.816 -2.7808 -0.2743 -1.8074
24973SOL    HW281525   2.895   4.020   9.802 -1.3201  0.4742  2.2992
24974SOL     OW81526  11.050   6.487   4.962 -0.2662 -0.1891 -0.2668
24974SOL    HW181527  11.109   6.468   4.888  0.2448  0.7117 -0.1071
24974SOL    HW281528  10.962   6.483   4.924 -0.3441 -3.8204 -0.0478
24975SOL     OW81529  12.457   7.516   7.213  0.6390  0.5596 -0.7463
24975SOL    HW181530  12.513   7.445   7.243  1.4552  0.8505 -1.5233
24975SOL    HW281531  12.434   7.563   7.293 -0.9385 -1.2597 -0.0690
24976SOL     OW81532   8.090   7.837   5.025 -0.1466 -0.0365  0.6362
24976SOL    HW181533   8.024   7.882   5.077 -0.8139  0.1717 -0.3534
24976SOL    HW281534   8.040   7.791   4.957  0.7529  1.1061 -0.8717
24977SOL     OW81535   4.032   8.149   5.241  0.4126 -0.1388 -0.5631
24977SOL    HW181536   4.110   8.094   5.229  0.3033 -0.0040 -2.0693
24977SOL    HW281537   4.011   8.180   5.153 -3.4997 -3.0461 -0.9068
24978SOL     OW81538   2.416  12.467  10.049 -0.3321 -0.0633 -0.2980
24978SOL    HW181539   2.372  12.551  10.033 -0.2610  0.0760  0.2185
24978SOL    HW281540   2.348  12.401  10.033 -0.4543  0.1049 -0.4720
24979SOL     OW81541   3.941   0.027  11.921 -0.0479 -0.0218  0.0542
24979SOL    HW181542   3.897   0.006  12.004  1.5242 -0.0764  0.9183
24979SOL    HW281543   3.970  -0.058  11.888  1.5177  0.1975  0.7628
24980SOL     OW81544  12.228   1.107   3.636 -0.0614  0.3864  0.2643
24980SOL    HW181545  12.313   1.149   3.645  0.4578 -0.3775 -0.9618
24980SOL    HW281546  12.247   1.016   3.614 -1.1923 -0.0262  0.8648
24981SOL     OW81547   4.427   1.299   9.279 -0.0099 -0.0110 -0.6226
24981SOL    HW181548   4.436   1.392   9.258  1.1173  0.0401  0.0088
24981SOL    HW281549   4.429   1.296   9.375  2.0403 -0.8482 -0.6523
24982SOL     OW81550   5.689   1.878   4.761 -0.5210  0.6085 -0.1073
24982SOL    HW181551   5.670   1.866   4.854 -0.8369 -2.0726 -0.4243
24982SOL    HW281552   5.606   1.862   4.717  0.1208 -0.5638 -0.9512
24983SOL     OW81553   7.893   6.961   4.876 -0.3351  0.1852  0.1909
24983SOL    HW181554   7.828   7.031   4.882 -0.7572 -0.2815  1.8433
24983SOL    HW281555   7.924   6.950   4.967 -0.5060 -1.9478  0.0321
24984SOL     OW81556   1.006  11.415   1.491  0.6452 -0.0125 -0.4658
24984SOL    HW181557   1.003  11.504   1.526  1.0357 -0.1904  0.0407
24984SOL    HW281558   0.927  11.373   1.526  0.3162  0.2129 -0.9313
24985SOL     OW81559  11.549   2.680   9.470  0.0007 -0.2755  0.0792
24985SOL    HW181560  11.611   2.696   9.399  1.0864  0.7722  1.2150
24985SOL    HW281561  11.592   2.616   9.527 -0.1966  0.0455  0.5969
24986SOL     OW81562   4.209   4.288   9.432  0.0175 -0.5152  0.2700
24986SOL    HW181563   4.195   4.249   9.346  0.1195 -1.0169  0.4728
24986SOL    HW281564   4.138   4.253   9.486  0.2329 -0.5884  0.5094
24987SOL     OW81565   9.920   1.383  11.356 -0.1172  0.4324  0.4557
24987SOL    HW181566   9.829   1.355  11.346 -0.2614  0.9155  0.3724
24987SOL    HW281567   9.970   1.302  11.363 -0.8198  0.1529  3.1096
24988SOL     OW81568   4.273   9.222   2.614 -0.5780  0.4264  0.2384
24988SOL    HW181569   4.179   9.213   2.629 -0.8728  2.0799 -0.3172
24988SOL    HW281570   4.279   9.278   2.536  0.8816 -0.7201 -0.5276
24989SOL     OW81571   1.802  10.191   9.560  0.6792  0.4257 -0.1508
24989SOL    HW181572   1.851  10.213   9.639  0.1146 -0.9728  0.6363
24989SOL    HW281573   1.868  10.157   9.499  1.0274  0.9355 -0.0638
24990SOL     OW81574   5.592   7.852   9.254 -0.1149  0.1066  0.3041
24990SOL    HW181575   5.621   7.783   9.314  1.4468  0.1410 -0.3487
24990SOL    HW281576   5.665   7.914   9.253  0.2064 -0.2320 -2.1150
24991SOL     OW81577   7.919   3.978   0.105 -0.4698  0.0275  0.2937
24991SOL    HW181578   7.847   3.958   0.045  0.2715 -0.5337 -0.4357
24991SOL    HW281579   7.984   4.022   0.050 -0.6111  1.3367  1.1341
24992SOL     OW81580   2.728   1.685   9.374  0.1752 -0.5075  0.1882
24992SOL    HW181581   2.721   1.734   9.456 -1.5541 -0.9085  0.3209
24992SOL    HW281582   2.717   1.751   9.306  0.2741 -0.3654  0.3099
24993SOL     OW81583   7.216  11.129   4.285 -0.0009  0.2137  0.4558
24993SOL    HW181584   7.273  11.086   4.222 -1.2586 -2.5208  1.0643
24993SOL    HW281585   7.128  11.097   4.265 -0.5940  0.1802  2.7956
24994SOL     OW81586   4.581   1.573  11.760 -0.1114  0.4446 -0.3591
24994SOL    HW181587   4.610   1.537  11.677 -1.0929 -1.6316  0.1386
24994SOL    HW281588   4.485   1.573  11.753 -0.2033  0.1446  0.7934
24995SOL     OW81589   7.407  12.543  12.569 -0.5585  0.0401 -0.6315
24995SOL    HW181590   7.461  12.593  12.629  0.9094 -0.9813 -1.0543
24995SOL    HW281591   7.461  12.533  12.491 -1.9196  0.2151 -1.6443
24996SOL     OW81592   9.802   6.740   2.467 -0.2211 -0.3458  0.0587
24996SOL    HW181593   9.848   6.760   2.548  0.8046  0.9037 -0.7706
24996SOL    HW281594   9.715   6.711   2.494  1.1294 -3.2403  1.7195
24997SOL     OW81595   8.765   7.028   0.769 -0.0186  0.0558 -0.3491
24997SOL    HW181596   8.758   7.108   0.716  0.5222  0.2999 -0.0664
24997SOL    HW281597   8.832   7.049   0.834 -1.4640  0.1474  1.1480
24998SOL     OW81598  12.697   3.869  12.487  0.0879 -0.4273  0.1926
24998SOL    HW181599  12.676   3.942  12.428  1.3076 -1.7972 -2.0691
24998SOL    HW281600  12.612   3.836  12.516 -0.5007  1.6599  1.0592
24999SOL     OW81601   1.479   4.922   2.930  0.0303  0.0842 -0.1446
24999SOL    HW181602   1.417   4.855   2.901 -0.1371 -0.6274  1.7197
24999SOL    HW281603   1.433   4.967   3.001  1.0011  0.6812  0.1175
25000SOL     OW81604   2.621   4.905   1.326  0.3834 -0.0928  0.0582
25000SOL    HW181605   2.643   4.986   1.370  1.7751 -0.4021 -0.0164
25000SOL    HW281606   2.560   4.930   1.257 -0.7686  0.5798  1.2939
25001SOL     OW81607   0.005   7.836   9.832  0.4890  0.5306 -0.9302
25001SOL    HW181608   0.092   7.855   9.869 -0.7177  1.4941  1.6669
25001SOL    HW281609   0.023   7.787   9.753  3.4418  1.5177 -0.9938
25002SOL     OW81610   9.669   1.092   0.473 -0.0723  0.5230 -0.0776
25002SOL    HW181611   9.692   1.160   0.536 -0.5200 -0.4950  1.2289
25002SOL    HW281612   9.618   1.138   0.407  1.8005  1.9432 -0.6401
25003SOL     OW81613   1.573  11.157  12.366 -0.0556  0.4293  0.0294
25003SOL    HW181614   1.549  11.115  12.284  0.4509 -0.2614  0.2254
25003SOL    HW281615   1.668  11.167  12.361 -0.1995  1.9304 -0.1875
25004SOL     OW81616   9.207   8.798   1.982  0.2121  0.0127 -0.2064
25004SOL    HW181617   9.179   8.775   2.071 -0.5203 -3.1430 -1.1298
25004SOL    HW281618   9.300   8.774   1.979  0.3069  0.3733 -0.2386
25005SOL     OW81619  10.455   2.581   5.561  0.2602  0.0769  0.0316
25005SOL    HW181620  10.383   2.563   5.501 -0.3747 -0.0523  0.8271
25005SOL    HW281621  10.534   2.562   5.509 -0.2914 -1.0080 -0.4475
25006SOL     OW81622   1.384  12.207   5.189 -0.3014 -0.2368 -0.2691
25006SOL    HW181623   1.338  12.197   5.272 -1.9260 -2.7038 -1.3506
25006SOL    HW281624   1.472  12.236   5.213 -1.3461  1.2615  2.1028
25007SOL     OW81625  11.346   6.491  10.986  0.0712  0.3810  0.4151
25007SOL    HW181626  11.437   6.484  11.018  0.2173 -0.8122 -0.2306
25007SOL    HW281627  11.350   6.464  10.895 -0.6222  2.2523 -0.2208
25008SOL     OW81628   5.080   2.892   8.584  0.1128  0.1585 -0.7216
25008SOL    HW181629   5.082   2.829   8.513  1.0435  0.0800 -0.6359
25008SOL    HW281630   5.171   2.898   8.614 -0.3889 -0.4456  1.0198
25009SOL     OW81631  11.164   3.096   2.228  0.6576  0.0979  0.4488
25009SOL    HW181632  11.248   3.142   2.230  1.0881 -0.6449  0.2898
25009SOL    HW281633  11.098   3.164   2.218  1.0406  0.9474  3.0413
25010SOL     OW81634   3.066   0.339   4.917 -0.0345 -0.0814  0.2471
25010SOL    HW181635   3.013   0.286   4.977  0.4752  0.7909  1.4971
25010SOL    HW281636   3.115   0.398   4.973  0.0140  1.1974 -1.0688
25011SOL     OW81637   6.843  11.262  12.166  0.0293  0.1416 -0.0097
25011SOL    HW181638   6.816  11.203  12.095  0.0721 -0.9080  0.8155
25011SOL    HW281639   6.776  11.249  12.234 -0.7733  2.1266 -0.3450
25012SOL     OW81640   1.019  11.119  12.761  0.1495 -0.4407 -0.5367
25012SOL    HW181641   0.974  11.035  12.756  0.3510 -0.5699 -0.2454
25012SOL    HW281642   0.963  11.173  12.816  0.3160 -0.5787 -0.2308
25013SOL     OW81643   6.747   3.728   4.058  0.2827 -0.2789  0.0389
25013SOL    HW181644   6.707   3.641   4.061 -0.5458  0.1129  1.0788
25013SOL    HW281645   6.783   3.741   4.146 -0.9660  1.0179  0.3976
25014SOL     OW81646   5.619   6.466   6.902 -0.2102 -0.3544 -0.0657
25014SOL    HW181647   5.690   6.485   6.841 -0.2471  0.5376  0.1595
25014SOL    HW281648   5.545   6.441   6.847  0.8210 -3.4171 -0.2729
25015SOL     OW81649   4.285   4.007  12.781 -0.4734 -0.2296  0.1733
25015SOL    HW181650   4.328   3.923  12.796  1.1243  0.9027  2.3930
25015SOL    HW281651   4.353   4.072  12.794 -1.9214  1.5015 -0.4366
25016SOL     OW81652   0.642   1.441   6.440  0.0371 -0.4067 -0.7755
25016SOL    HW181653   0.661   1.491   6.360  1.3659  1.1416  0.4177
25016SOL    HW281654   0.657   1.504   6.511 -1.7668 -1.5274  0.6895
25017SOL     OW81655   3.523   0.302   3.673 -0.1318 -0.1245 -0.0045
25017SOL    HW181656   3.576   0.343   3.741  0.8645  0.8691 -1.3247
25017SOL    HW281657   3.564   0.217   3.657  0.4773  0.2288 -0.3324
25018SOL     OW81658   9.397  11.877   3.718  0.2824  0.1791  0.0274
25018SOL    HW181659   9.473  11.899   3.664 -0.0007  0.2485 -0.3521
25018SOL    HW281660   9.330  11.941   3.693 -0.3555 -0.7319 -0.6562
25019SOL     OW81661   9.566   6.693  11.626 -0.2379  0.0090  0.2531
25019SOL    HW181662   9.630   6.624  11.611 -2.5890 -2.5119  1.1181
25019SOL    HW281663   9.595   6.736  11.706  0.2411 -1.2294  0.7567
25020SOL     OW81664  10.973   6.307  11.461 -0.3546 -0.3192  0.5922
25020SOL    HW181665  10.918   6.245  11.509 -0.6530  0.0180  0.6836
25020SOL    HW281666  10.912   6.368  11.421  0.0069  0.8953  1.8260
25021SOL     OW81667   0.473  11.181   9.316  0.3738  0.2147 -0.2783
25021SOL    HW181668   0.395  11.127   9.310 -0.1127  0.8598  0.2028
25021SOL    HW281669   0.492  11.186   9.409  0.1765  1.2043 -0.2829
25022SOL     OW81670  10.515   4.080   2.246  0.2158  0.3777 -0.2393
25022SOL    HW181671  10.478   4.034   2.170  0.7500 -0.0008 -0.2781
25022SOL    HW281672  10.522   4.012   2.314 -0.9781  0.8798  0.4119
25023SOL     OW81673   0.285   6.510   9.075 -0.1297  0.3741 -0.1623
25023SOL    HW181674   0.256   6.502   8.984  1.2176  0.3515 -0.6026
25023SOL    HW281675   0.250   6.595   9.103 -0.2285  0.5607 -0.8259
25024SOL     OW81676   5.164   8.387  11.473 -0.4989 -0.0698  0.1914
25024SOL    HW181677   5.122   8.441  11.539 -0.9163 -0.1920  0.0267
25024SOL    HW281678   5.119   8.408  11.391  0.0259  0.0934 -0.0645
25025SOL     OW81679  12.433   2.909   7.123  0.0464  0.0061 -0.2346
25025SOL    HW181680  12.420   2.891   7.030  0.5048  0.3387 -0.3669
25025SOL    HW281681  12.512   2.964   7.126  0.9896 -1.3205  0.4668
25026SOL     OW81682   0.426   3.609   1.881  0.0207 -0.3183  0.4602
25026SOL    HW181683   0.373   3.539   1.845  1.5804 -1.5258  0.3834
25026SOL    HW281684   0.409   3.607   1.975 -2.2760  1.2972  0.1595
25027SOL     OW81685   9.635   9.907  10.494 -0.5661  0.2527 -0.2077
25027SOL    HW181686   9.594   9.825  10.466  0.1232 -0.4525  0.7907
25027SOL    HW281687   9.721   9.881  10.527  0.5044  1.6278 -1.7505
25028SOL     OW81688   5.174   6.360   8.732 -0.0256 -0.3081  0.3141
25028SOL    HW181689   5.237   6.330   8.666 -1.4686 -0.2469 -1.1739
25028SOL    HW281690   5.226   6.372   8.811  1.7583 -0.5751 -0.7538
25029SOL     OW81691   8.333   2.033   0.180  0.2219  0.1643  0.0959
25029SOL    HW181692   8.313   1.985   0.261  1.6878 -1.7834 -0.6280
25029SOL    HW281693   8.415   2.077   0.199  1.3284 -1.4492 -0.7282
25030SOL     OW81694   6.647   7.166   0.347  0.3792 -0.2074 -0.2600
25030SOL    HW181695   6.598   7.235   0.303 -1.3050 -0.2633  1.4513
25030SOL    HW281696   6.695   7.211   0.416  0.1346 -0.6116  0.1725
25031SOL     OW81697   8.263   0.303  10.764 -0.1757 -0.2064 -0.0244
25031SOL    HW181698   8.357   0.320  10.760  0.0384 -1.4870 -1.5840
25031SOL    HW281699   8.245   0.252  10.685 -2.1331 -0.2621  0.4121
25032SOL     OW81700  11.566   2.747   0.908 -0.1333 -0.0127  0.2751
25032SOL    HW181701  11.645   2.692   0.903 -0.2302 -0.2009  0.7681
25032SOL    HW281702  11.593   2.831   0.872  0.3598 -0.0032  0.6586
25033SOL     OW81703  12.708   7.954  11.825  0.5293  0.2607  0.1813
25033SOL    HW181704  12.762   7.875  11.829 -0.0002 -0.0805  0.6853
25033SOL    HW281705  12.688   7.975  11.916 -0.0001  0.5147  0.0106
25034SOL     OW81706   0.640   9.023   2.193  0.4406  0.1612 -0.0291
25034SOL    HW181707   0.551   9.009   2.225  0.1664  0.7895 -0.4950
25034SOL    HW281708   0.675   8.935   2.178  0.0196 -0.0967  0.4735
25035SOL     OW81709   2.537   6.316   3.645  0.8060 -0.1738  0.4449
25035SOL    HW181710   2.521   6.264   3.724  0.3338 -1.6771 -0.5975
25035SOL    HW281711   2.465   6.294   3.586  0.3455  2.0272  0.0862
25036SOL     OW81712  12.560  12.428  11.475 -0.5899  0.1967 -0.1672
25036SOL    HW181713  12.497  12.357  11.489 -0.0522 -0.1191  0.7747
25036SOL    HW281714  12.646  12.386  11.487 -0.0780  0.2880 -2.7933
25037SOL     OW81715   8.994  11.570   3.934  0.2245  0.2884  0.4170
25037SOL    HW181716   8.999  11.601   4.024  4.1354 -0.6983  0.6950
25037SOL    HW281717   9.070  11.609   3.891 -1.0550  0.0362 -2.2654
25038SOL     OW81718   7.989   9.224  10.667  0.2669 -0.3777  0.8225
25038SOL    HW181719   8.026   9.180  10.743 -0.5999 -1.1831  0.8030
25038SOL    HW281720   7.949   9.304  10.702 -0.1209 -0.7419  1.2204
25039SOL     OW81721   8.450   4.650  12.401  0.0765 -0.1065  0.4950
25039SOL    HW181722   8.365   4.621  12.367  1.2771 -2.5258 -0.7244
25039SOL    HW281723   8.481   4.713  12.336  0.1009 -0.7894 -0.1672
25040SOL     OW81724   1.650   6.005  11.205 -0.2252 -0.0972  0.5595
25040SOL    HW181725   1.722   5.949  11.232  1.0097  1.4726  0.6606
25040SOL    HW281726   1.685   6.094  11.211 -2.0892  0.6990  0.3629
25041SOL     OW81727   7.405  11.016   2.712  0.2963  0.6716  0.1605
25041SOL    HW181728   7.373  10.938   2.756  0.9454 -1.0657 -2.2376
25041SOL    HW281729   7.328  11.055   2.672  0.0091  1.1355  1.1471
25042SOL     OW81730   4.526   8.754   3.376 -0.3583  0.9553 -0.3396
25042SOL    HW181731   4.619   8.742   3.354 -0.5632 -0.8603 -0.3223
25042SOL    HW281732   4.514   8.849   3.377  1.7515  1.2583  0.7415
25043SOL     OW81733   9.434   9.724   8.155 -0.0932 -0.4643  0.0331
25043SOL    HW181734   9.349   9.767   8.147  0.4032  0.2974 -1.3859
25043SOL    HW281735   9.441   9.669   8.077  0.5213 -0.8928  0.3812
25044SOL     OW81736   0.121   1.746   9.940 -0.2441 -0.0280 -0.4475
25044SOL    HW181737   0.209   1.729   9.975  0.7060  2.6199 -1.2685
25044SOL    HW281738   0.092   1.825   9.985 -2.4016 -1.0584  0.0551
25045SOL     OW81739   2.362   9.859   1.396 -0.6784  0.7209  0.8853
25045SOL    HW181740   2.448   9.848   1.437 -0.6882  2.1580  1.3179
25045SOL    HW281741   2.381   9.898   1.311 -0.8737  0.5326  0.7538
25046SOL     OW81742  12.238   0.695   7.292 -0.5970  0.2829  0.2584
25046SOL    HW181743  12.219   0.622   7.233 -0.3967  1.0655 -0.8071
25046SOL    HW281744  12.299   0.658   7.356 -1.2854 -0.7411  0.3526
25047SOL     OW81745   9.919   1.402   8.229 -0.0236  0.2673 -0.7373
25047SOL    HW181746   9.954   1.491   8.235  0.6404 -0.0257 -0.2297
25047SOL    HW281747   9.824   1.414   8.222 -0.0780  0.9692  0.8944
25048SOL     OW81748   7.073   7.230   2.259  0.4474 -0.1647  0.0938
25048SOL    HW181749   7.153   7.236   2.208  0.2423 -0.1410 -0.2286
25048SOL    HW281750   7.013   7.292   2.217  0.6977  0.8190  1.1320
25049SOL     OW81751   3.077   8.303   0.983 -0.0961  0.0662 -0.0194
25049SOL    HW181752   3.054   8.222   1.028 -1.0123  0.0349 -0.5211
25049SOL    HW281753   3.011   8.366   1.011 -1.6984 -0.3669 -2.4807
25050SOL     OW81754   1.370  12.483   5.921  0.3642 -0.1372  0.5882
25050SOL    HW181755   1.316  12.524   5.989  0.4649 -1.0187  1.2114
25050SOL    HW281756   1.415  12.411   5.966  0.6409 -0.5690 -0.3558
25051SOL     OW81757  12.339   0.425   3.766  0.1985 -0.0441  0.3032
25051SOL    HW181758  12.364   0.341   3.728  1.6137  0.5494 -0.1141
25051SOL    HW281759  12.245   0.416   3.784 -0.0108 -1.1349 -1.2084
25052SOL     OW81760   1.480   3.580   2.515  0.3826  0.4016 -0.3168
25052SOL    HW181761   1.565   3.605   2.552  0.0157  0.8957  0.2231
25052SOL    HW281762   1.490   3.593   2.421  0.7744  0.8805 -0.2169
25053SOL     OW81763   2.587  12.620   5.119 -0.3937 -0.6576  0.3425
25053SOL    HW181764   2.589  12.650   5.209 -0.6011 -1.4168  0.6110
25053SOL    HW281765   2.583  12.524   5.126  1.6862 -0.8675 -0.4670
25054SOL     OW81766  11.313   6.349   9.441  0.0052  0.0776  0.5723
25054SOL    HW181767  11.249   6.336   9.511  0.3168 -1.1489  0.6434
25054SOL    HW281768  11.298   6.277   9.380  0.1418  0.7865 -0.3386
25055SOL     OW81769  11.475   8.996  10.542  0.4882 -0.3079  0.0784
25055SOL    HW181770  11.426   8.951  10.611 -0.3052 -0.7054 -0.7253
25055SOL    HW281771  11.469   8.938  10.466  0.5418  0.5588 -0.6066
25056SOL     OW81772   0.605   2.706  11.888 -0.2476 -0.2399 -0.1308
25056SOL    HW181773   0.534   2.687  11.950  0.0011 -0.7720  0.0036
25056SOL    HW281774   0.565   2.694  11.802 -0.3234 -0.5645 -0.0558
25057SOL     OW81775   7.683   2.659  12.584  0.1163  0.4168  0.1575
25057SOL    HW181776   7.661   2.746  12.551 -2.0706  0.7028  2.1051
25057SOL    HW281777   7.605   2.607  12.569  0.6492 -0.6445  0.9028
25058SOL     OW81778   4.326  11.466   5.804 -0.3443  0.8523  0.9215
25058SOL    HW181779   4.329  11.471   5.708  0.8522 -2.8431  0.6058
25058SOL    HW281780   4.409  11.505   5.832  1.0257 -1.2495  0.0815
25059SOL     OW81781   0.282   1.221   8.708  0.3996 -0.6040 -0.1030
25059SOL    HW181782   0.264   1.139   8.755 -1.1211  0.8182  1.9727
25059SOL    HW281783   0.288   1.195   8.616 -2.3572 -2.8035  0.1926
25060SOL     OW81784   1.803   0.414  12.132 -0.2178  0.8620  0.3937
25060SOL    HW181785   1.789   0.330  12.088  0.1570 -0.0150  1.8532
25060SOL    HW281786   1.865   0.460  12.076  0.9447 -0.5752  0.4165
25061SOL     OW81787   5.769   5.547   7.234 -0.4885  0.5484 -0.1376
25061SOL    HW181788   5.723   5.587   7.160  0.2612  0.7304 -0.5171
25061SOL    HW281789   5.811   5.470   7.196 -0.2162  0.5646  0.1325
25062SOL     OW81790   8.340  12.286   7.628  1.3202  0.2353  0.0324
25062SOL    HW181791   8.427  12.273   7.590  1.0627 -0.2639 -0.4103
25062SOL    HW281792   8.320  12.202   7.671  0.7783  0.1081 -0.4573
25063SOL     OW81793   5.411   1.698   2.057  0.4082 -0.2817 -0.0593
25063SOL    HW181794   5.498   1.731   2.080  0.8358  0.8296 -2.8239
25063SOL    HW281795   5.428   1.627   1.994 -0.6866 -2.0049  1.4641
25064SOL     OW81796  11.545   5.143   4.680  0.1789 -0.1858 -0.3778
25064SOL    HW181797  11.622   5.172   4.632  0.9859 -0.1715  0.8669
25064SOL    HW281798  11.579   5.082   4.746 -0.9315 -0.5279 -0.0868
25065SOL     OW81799   8.919   4.302   6.073 -0.2640  0.2551 -0.5531
25065SOL    HW181800   9.006   4.278   6.040  0.4054  0.8833  0.6417
25065SOL    HW281801   8.926   4.396   6.091 -0.5662 -0.0207  1.2563
25066SOL     OW81802  12.115   7.866   4.415 -0.3666 -0.3707 -0.3784
25066SOL    HW181803  12.103   7.876   4.510  0.9774 -0.2231 -0.2044
25066SOL    HW281804  12.051   7.927   4.377 -0.1389  0.4350  0.4636
25067SOL     OW81805  12.120   5.822   9.180 -0.1071 -0.6479 -0.7036
25067SOL    HW181806  12.105   5.829   9.086  0.7869 -1.2309 -0.9002
25067SOL    HW281807  12.040   5.784   9.214 -0.4936 -0.3032 -1.2076
25068SOL     OW81808   2.896   4.111  11.811 -0.6084  0.0667  0.3621
25068SOL    HW181809   2.971   4.071  11.855  0.5505  2.7124  0.9713
25068SOL    HW281810   2.902   4.204  11.832 -2.1353  0.9035 -2.3663
25069SOL     OW81811  10.699   7.345  11.405 -0.0721 -0.0770  0.3707
25069SOL    HW181812  10.778   7.382  11.368 -0.0661 -0.6387 -0.2013
25069SOL    HW281813  10.685   7.263  11.356 -0.9233 -0.0548  0.5497
25070SOL     OW81814   4.295   2.012   4.506  0.2531 -0.0195 -0.4545
25070SOL    HW181815   4.260   2.093   4.543 -2.0513  0.5452 -3.4224
25070SOL    HW281816   4.352   2.041   4.435  2.1295 -1.0450  0.5825
25071SOL     OW81817   3.251   9.950   5.180  0.1184 -0.3419  0.4272
25071SOL    HW181818   3.198   9.893   5.236 -1.1429  0.6368  0.2887
25071SOL    HW281819   3.194   9.969   5.105  0.6477  0.7654  0.2873
25072SOL     OW81820   1.141   7.239   3.693 -0.3119 -0.6690 -0.4186
25072SOL    HW181821   1.150   7.165   3.632  0.2851 -0.8276 -0.1453
25072SOL    HW281822   1.047   7.255   3.697 -0.3794 -0.8404 -1.1662
25073SOL     OW81823   2.248   3.714   8.356  0.3244 -0.2387 -0.1305
25073SOL    HW181824   2.237   3.627   8.317 -0.6218  0.7091 -2.0800
25073SOL    HW281825   2.163   3.733   8.395 -0.2332  0.7202 -1.7260
25074SOL     OW81826  11.348   7.985   9.852  0.2950 -0.3811 -0.1750
25074SOL    HW181827  11.414   7.918   9.870  0.3251 -0.5855 -1.0181
25074SOL    HW281828  11.356   8.046   9.925  0.8382 -0.8567  0.1700
25075SOL     OW81829   0.801   9.907   1.260  0.7558 -0.1780  0.2068
25075SOL    HW181830   0.889   9.869   1.262  0.9565  0.1935 -1.0554
25075SOL    HW281831   0.805   9.975   1.193  0.0029  1.1197  1.4153
25076SOL     OW81832   0.153   9.256   1.475  0.0178 -0.5504  0.2432
25076SOL    HW181833   0.209   9.321   1.433 -0.0164 -1.1643 -0.7952
25076SOL    HW281834   0.064   9.291   1.464  0.0030 -0.7409 -0.2676
25077SOL     OW81835   7.581   4.710   9.677  0.2875  0.1973 -0.3060
25077SOL    HW181836   7.632   4.787   9.702 -0.4121  0.1994  1.2045
25077SOL    HW281837   7.522   4.741   9.608  1.4966  0.4571 -1.2812
25078SOL     OW81838   6.911   1.947   3.173 -0.1175 -0.5443 -0.5669
25078SOL    HW181839   6.958   1.875   3.214 -0.5012 -0.8854 -0.7163
25078SOL    HW281840   6.818   1.925   3.184 -0.2467  0.1145 -0.2750
25079SOL     OW81841   4.238   4.496  10.625  0.1176  0.5190 -0.4236
25079SOL    HW181842   4.219   4.498  10.532  0.8348 -1.1948 -0.6357
25079SOL    HW281843   4.321   4.543  10.634  0.3419  0.1737 -0.7180
25080SOL     OW81844   7.688  11.947  11.687 -0.1799  0.1131 -0.0963
25080SOL    HW181845   7.768  11.913  11.727  0.2579  0.8313 -0.3381
25080SOL    HW281846   7.706  11.944  11.593 -0.4599  0.2307 -0.1524
25081SOL     OW81847  10.471   1.232  12.060  0.6595 -0.1955 -0.4695
25081SOL    HW181848  10.436   1.150  12.027  1.8558 -1.0575  0.3475
25081SOL    HW281849  10.401   1.269  12.113 -0.1663 -0.2825 -1.4635
25082SOL     OW81850   4.705   9.576   7.837 -0.2873 -0.0417  0.2733
25082SOL    HW181851   4.625   9.582   7.785  0.0677 -1.0739 -0.4376
25082SOL    HW281852   4.676   9.591   7.927 -1.1367  0.4325 -0.0690
25083SOL     OW81853   8.950  11.234   2.171  0.0589  0.4205  0.6288
25083SOL    HW181854   8.959  11.150   2.216 -0.0816 -0.3574 -0.7160
25083SOL    HW281855   9.029  11.240   2.116  1.0776  2.1379  2.1641
25084SOL     OW81856   2.399   3.355   3.935 -0.0016  0.0081  0.1461
25084SOL    HW181857   2.418   3.269   3.897  0.1511  0.5366 -1.0273
25084SOL    HW281858   2.307   3.351   3.961 -0.1840 -0.2917 -0.5307
25085SOL     OW81859   5.269   2.198   8.384 -0.0993 -0.0464  0.1579
25085SOL    HW181860   5.361   2.173   8.395 -0.2102  0.2069  1.9790
25085SOL    HW281861   5.220   2.117   8.399 -0.1942 -0.1573 -0.7019
25086SOL     OW81862   6.183   5.276   9.434  0.0798 -0.0453 -0.5767
25086SOL    HW181863   6.183   5.210   9.365  0.6867 -1.3745  0.6375
25086SOL    HW281864   6.261   5.329   9.418 -0.7815  0.8708 -1.9637
25087SOL     OW81865   5.772   4.620  11.014  0.0895  0.3402  0.3846
25087SOL    HW181866   5.754   4.669  10.934 -2.8593  2.1210  1.9642
25087SOL    HW281867   5.802   4.686  11.076 -0.5298 -0.4606  1.5705
25088SOL     OW81868  12.539   8.591   1.477 -0.2506  0.0678  0.4713
25088SOL    HW181869  12.566   8.600   1.385 -0.0179 -1.3407  0.3830
25088SOL    HW281870  12.459   8.643   1.484 -0.3747  0.0329 -0.5801
25089SOL     OW81871   5.187   0.231   5.763 -0.0761  0.6721  0.3754
25089SOL    HW181872   5.116   0.224   5.699  0.3243  0.4260 -0.0571
25089SOL    HW281873   5.248   0.293   5.723  0.1882  0.5020  0.5151
25090SOL     OW81874  10.550   3.281  12.593 -0.1926 -0.2801  0.4284
25090SOL    HW181875  10.461   3.266  12.560  0.6228 -0.2220 -2.0197
25090SOL    HW281876  10.562   3.214  12.660 -2.2483  0.0572  1.1988
25091SOL     OW81877   6.811  10.930  10.759  0.9880  0.0658  0.9924
25091SOL    HW181878   6.729  10.958  10.800 -0.5475  0.0055 -1.7601
25091SOL    HW281879   6.813  10.835  10.773 -0.1674 -0.1419 -0.0629
25092SOL     OW81880   0.445   1.388   6.795 -0.4938  0.0929 -0.0054
25092SOL    HW181881   0.436   1.481   6.775  0.1547 -0.1777 -1.6777
25092SOL    HW281882   0.415   1.343   6.717 -0.1007 -1.1025  0.5034
25093SOL     OW81883   8.917   0.995  12.266 -0.1268  0.0066  0.2122
25093SOL    HW181884   8.868   0.984  12.348 -0.2506  0.4994  0.2115
25093SOL    HW281885   8.879   0.931  12.206 -0.5491  0.1544  0.3157
25094SOL     OW81886   3.114   5.419   6.187 -0.1799  0.4566  0.4664
25094SOL    HW181887   3.137   5.402   6.096 -0.8734  0.4562  0.2797
25094SOL    HW281888   3.137   5.339   6.233  1.2796  0.8809  0.5202
25095SOL     OW81889  10.656   1.352  10.480  0.4018  0.2891 -0.1652
25095SOL    HW181890  10.725   1.302  10.523  0.7933 -0.6228 -1.7694
25095SOL    HW281891  10.698   1.435  10.456  0.6709  0.1231 -0.2721
25096SOL     OW81892   0.207   9.492   9.456 -0.0886 -0.2331  0.3613
25096SOL    HW181893   0.230   9.553   9.385 -0.6601  0.0866  0.4454
25096SOL    HW281894   0.145   9.540   9.510  0.3731 -0.4663  1.1081
25097SOL     OW81895  10.113   5.139  12.149 -0.4864  0.3245  0.4860
25097SOL    HW181896  10.110   5.204  12.219  1.0806  0.1576  0.7473
25097SOL    HW281897  10.090   5.187  12.069  2.3783  1.6783  0.3850
25098SOL     OW81898  10.500   8.411   9.964  0.1658 -0.5260  0.5402
25098SOL    HW181899  10.532   8.367  10.043  0.5569 -0.6955  0.2905
25098SOL    HW281900  10.409   8.435   9.985  0.4676  0.0083  1.2715
25099SOL     OW81901  10.822   3.772   3.170 -0.0792 -0.1316 -0.3815
25099SOL    HW181902  10.807   3.859   3.134  2.7613 -0.0352 -1.5809
25099SOL    HW281903  10.797   3.779   3.262 -0.8299  1.6532 -0.6828
25100SOL     OW81904   6.076   9.512   9.433  0.2531  0.0687 -0.3188
25100SOL    HW181905   6.006   9.492   9.495 -0.8767  0.4024 -1.4162
25100SOL    HW281906   6.044   9.590   9.386  0.5085 -0.8338 -2.0858
25101SOL     OW81907   9.916   4.607   2.991 -0.5219 -0.5866  0.1609
25101SOL    HW181908   9.826   4.609   3.023 -0.3693 -1.3909  0.6862
25101SOL    HW281909   9.929   4.516   2.963  0.6051 -0.9088  1.5784
25102SOL     OW81910   4.837   2.608   4.808 -0.4624 -0.4590 -0.2770
25102SOL    HW181911   4.787   2.526   4.808 -0.0863 -0.7686 -2.5156
25102SOL    HW281912   4.907   2.593   4.745  1.2194  0.7159  1.2143
25103SOL     OW81913   0.746   8.841  11.002 -0.5431  0.9953 -0.3255
25103SOL    HW181914   0.801   8.763  11.008  0.1435  1.5279  0.4443
25103SOL    HW281915   0.769   8.880  10.918 -0.3844  0.7403 -0.4018
25104SOL     OW81916   8.542   7.423   9.452  0.1682 -0.2483 -0.3522
25104SOL    HW181917   8.577   7.490   9.511 -0.2096  0.3764 -0.8274
25104SOL    HW281918   8.578   7.341   9.485  0.3381  0.1438  0.4698
25105SOL     OW81919   6.698  11.096   3.579 -0.0197 -0.2875  0.1488
25105SOL    HW181920   6.614  11.079   3.621 -1.0701  0.5564 -1.4834
25105SOL    HW281921   6.683  11.175   3.527  1.8138 -0.0901 -0.1343
25106SOL     OW81922  12.476   3.947   8.927  0.0555 -0.5469  1.1846
25106SOL    HW181923  12.460   4.040   8.945 -0.8816 -0.2397 -0.9256
25106SOL    HW281924  12.556   3.926   8.976  0.8279  1.6342  0.9726
25107SOL     OW81925   6.133   5.319   1.615  0.3622  0.3852 -0.2537
25107SOL    HW181926   6.099   5.291   1.530  0.5605 -0.9776  0.0974
25107SOL    HW281927   6.074   5.390   1.643 -2.4030 -1.9864  0.4350
25108SOL     OW81928   4.426   8.368   2.155  0.0172 -0.2127  0.0673
25108SOL    HW181929   4.426   8.421   2.235 -1.6066  0.8759 -0.5827
25108SOL    HW281930   4.367   8.295   2.175 -1.2299  0.6221 -0.4277
25109SOL     OW81931   7.039  11.465   6.648  0.1305  0.3928  0.0295
25109SOL    HW181932   7.089  11.517   6.585 -0.3874 -0.4469 -1.1101
25109SOL    HW281933   6.984  11.409   6.594 -0.2927 -0.3919  1.2411
25110SOL     OW81934   2.492   3.830   3.418 -0.3486  0.3041  0.5079
25110SOL    HW181935   2.490   3.924   3.432  2.0778  0.4585  0.3061
25110SOL    HW281936   2.478   3.819   3.324 -1.6958  0.3597  0.6875
25111SOL     OW81937   0.385   6.526   3.821 -0.0258 -0.1242 -0.1925
25111SOL    HW181938   0.290   6.530   3.816 -0.0031 -0.3330 -1.0301
25111SOL    HW281939   0.405   6.522   3.914 -0.8691 -0.6897 -0.0265
25112SOL     OW81940   4.891   0.629   0.385 -0.5548 -0.0900  0.0227
25112SOL    HW181941   4.798   0.612   0.399 -0.9985  0.6436 -1.7809
25112SOL    HW281942   4.936   0.570   0.446 -2.1962  0.4203  1.8165
25113SOL     OW81943   8.617   1.074   3.860 -0.0767  0.2645  0.0354
25113SOL    HW181944   8.632   1.035   3.946 -0.2987 -2.0984 -0.9392
25113SOL    HW281945   8.613   1.169   3.877 -0.1676 -0.1379  2.6036
25114SOL     OW81946   0.343   8.375   2.283 -0.2195 -0.7041 -0.5423
25114SOL    HW181947   0.306   8.401   2.199 -0.4724  0.9121  0.0347
25114SOL    HW281948   0.438   8.369   2.267 -0.1168  0.8692 -0.6563
25115SOL     OW81949   0.475   7.857   3.567 -0.3199 -0.3692  0.2205
25115SOL    HW181950   0.554   7.810   3.594  1.7605  3.0830  0.7752
25115SOL    HW281951   0.423   7.865   3.646  1.0057  1.1594  0.9921
25116SOL     OW81952   1.244  11.688   4.149  0.0324 -0.0916  0.3442
25116SOL    HW181953   1.277  11.727   4.068  0.3981 -0.0484  0.5093
25116SOL    HW281954   1.149  11.700   4.145 -0.0766 -1.1924 -0.6434
25117SOL     OW81955  12.504  12.173   3.323  0.1697 -0.5074  0.1143
25117SOL    HW181956  12.477  12.089   3.360 -0.9376  0.0371  0.6025
25117SOL    HW281957  12.422  12.212   3.292  0.7542  0.1253 -0.6717
25118SOL     OW81958   3.019   3.730  10.322 -0.0960 -0.0014 -0.0070
25118SOL    HW181959   3.086   3.696  10.262 -0.4207 -3.3563  1.2873
25118SOL    HW281960   2.936   3.712  10.278 -0.2733 -1.0460  0.7014
25119SOL     OW81961  11.497   9.323  10.097 -0.4652 -0.7908  0.6044
25119SOL    HW181962  11.531   9.330  10.187 -1.0564  0.5470  0.7418
25119SOL    HW281963  11.451   9.239  10.096  0.6887 -1.4676  1.1372
25120SOL     OW81964   4.495   9.341   3.411 -0.7255 -0.1210  0.2921
25120SOL    HW181965   4.541   9.412   3.458 -0.4043  0.9168 -1.4937
25120SOL    HW281966   4.565   9.291   3.370 -1.0888  1.4163 -2.3809
25121SOL     OW81967  10.861   2.228   8.995  0.3138 -0.0628 -0.0912
25121SOL    HW181968  10.869   2.133   9.002 -1.3648 -0.2490 -0.0741
25121SOL    HW281969  10.818   2.254   9.077 -0.8700  0.4518 -0.8500
25122SOL     OW81970   9.411   5.303   6.353  0.0083  0.4135  0.2638
25122SOL    HW181971   9.395   5.217   6.315  0.9893  0.8832 -1.3332
25122SOL    HW281972   9.506   5.313   6.351 -0.1357  1.9157 -0.5097
25123SOL     OW81973   9.488   6.911   2.293 -0.0941  0.3529 -0.0169
25123SOL    HW181974   9.431   6.835   2.283 -1.6029  1.6351 -2.1747
25123SOL    HW281975   9.575   6.880   2.268 -0.4947 -0.8623  0.0304
25124SOL     OW81976   9.161   4.390   6.268 -0.3592 -0.3615  0.4320
25124SOL    HW181977   9.161   4.444   6.189 -1.0083 -0.9914 -0.0164
25124SOL    HW281978   9.107   4.314   6.245 -1.2591 -0.1529  1.7522
25125SOL     OW81979  12.587   7.323   0.418 -0.0937  0.2550 -0.3956
25125SOL    HW181980  12.535   7.359   0.491 -0.7303  1.3261 -1.3517
25125SOL    HW281981  12.676   7.317   0.453 -0.7163 -1.1105  1.1063
25126SOL     OW81982   9.992   6.286   1.790 -0.4299 -0.3204 -0.0395
25126SOL    HW181983  10.048   6.351   1.831  1.1135 -2.4751  1.5153
25126SOL    HW281984   9.911   6.332   1.771  0.8739  2.2243  0.1612
25127SOL     OW81985   2.566  12.461   3.684  0.4163 -0.1143 -0.6788
25127SOL    HW181986   2.631  12.395   3.706  1.5463  1.3093  0.5075
25127SOL    HW281987   2.617  12.539   3.662 -0.8091  1.4519  1.5743
25128SOL     OW81988   3.743  10.845   5.777  0.3592  0.2012  0.1923
25128SOL    HW181989   3.760  10.853   5.871  1.6930  3.1560 -0.1840
25128SOL    HW281990   3.775  10.927   5.740 -1.6284 -0.1661 -2.6661
25129SOL     OW81991   0.993   0.121   7.024  0.8761  0.0203 -0.1022
25129SOL    HW181992   1.026   0.210   7.033  1.1670 -0.1369  0.3789
25129SOL    HW281993   1.054   0.067   7.074 -0.4591 -0.1979  1.3775
25130SOL     OW81994   5.331   3.673   8.808 -0.3357  0.5676  0.0236
25130SOL    HW181995   5.393   3.743   8.829  0.7938  0.3779 -2.3674
25130SOL    HW281996   5.245   3.712   8.819  0.2705  2.1911 -0.7817
25131SOL     OW81997   8.757   9.590   4.463  0.2314  0.5871 -1.0855
25131SOL    HW181998   8.760   9.584   4.368 -0.6961  0.5132 -1.1204
25131SOL    HW281999   8.684   9.650   4.481  0.3704  0.5696 -0.4246
25132SOL     OW82000   1.031   1.858   6.104 -0.3657  0.1179 -0.2647
25132SOL    HW182001   1.001   1.905   6.181 -1.9596 -0.3831 -0.5527
25132SOL    HW282002   1.016   1.919   6.031  1.5224  0.7560 -0.1792
25133SOL     OW82003   7.926   9.474   6.128  0.6814 -0.9791 -0.0718
25133SOL    HW182004   7.932   9.495   6.221  1.8847 -0.8227 -0.1669
25133SOL    HW282005   7.984   9.398   6.118  0.8565 -0.7621 -0.7499
25134SOL     OW82006  10.861   5.873   1.255 -0.4918  0.3588 -0.3288
25134SOL    HW182007  10.772   5.838   1.246 -0.7886  0.7803  0.8056
25134SOL    HW282008  10.855   5.933   1.329  1.4999 -2.2074  2.1105
25135SOL     OW82009   1.137   7.368   7.738  0.3480 -0.2026  0.1987
25135SOL    HW182010   1.058   7.322   7.766 -0.7207  0.9227 -0.8918
25135SOL    HW282011   1.139   7.357   7.643  1.7798 -0.6002  0.2459
25136SOL     OW82012   2.448   3.760  11.977  0.0270 -0.1367 -0.2041
25136SOL    HW182013   2.422   3.801  12.059  2.0678 -1.3520  1.1449
25136SOL    HW282014   2.391   3.684  11.968 -2.6116  1.8610 -1.8415
25137SOL     OW82015   8.148   9.476   3.224 -0.0173 -0.0732  0.3239
25137SOL    HW182016   8.153   9.380   3.226 -1.9714 -0.2578  3.3934
25137SOL    HW282017   8.235   9.505   3.252  0.1062 -1.0045  0.9454
25138SOL     OW82018   9.004   9.595   0.453  0.7022  0.5974 -0.2414
25138SOL    HW182019   9.021   9.543   0.375  0.4730 -0.8094  0.6149
25138SOL    HW282020   9.090   9.608   0.493  0.7851  1.0819 -0.5657
25139SOL     OW82021   4.594   3.993  11.758  0.3269  0.4817 -0.0752
25139SOL    HW182022   4.585   3.993  11.663  0.2144  0.6871 -0.0629
25139SOL    HW282023   4.667   3.933  11.775  0.2233  0.2963 -0.2781
25140SOL     OW82024   5.293   3.384  12.299  0.0976  0.5877 -0.1264
25140SOL    HW182025   5.329   3.471  12.279  0.9554 -0.1517 -2.0172
25140SOL    HW282026   5.313   3.331  12.222 -1.5766 -0.9600  0.4327
25141SOL     OW82027  10.716  10.521  11.224  0.2894  0.3308  0.5642
25141SOL    HW182028  10.795  10.506  11.275  0.9044 -0.2941 -0.5264
25141SOL    HW282029  10.666  10.440  11.232  0.8187 -0.1298 -0.5208
25142SOL     OW82030   0.733   0.282  12.067 -0.1064 -0.7402 -0.1747
25142SOL    HW182031   0.779   0.250  12.144  0.2437  0.3167  0.0729
25142SOL    HW282032   0.666   0.342  12.101  0.6315  0.4304 -0.7117
25143SOL     OW82033   4.346  11.188   1.191  0.4161  0.2570 -0.3242
25143SOL    HW182034   4.359  11.277   1.160 -0.3563  1.0804  1.5582
25143SOL    HW282035   4.251  11.179   1.202  0.6067  0.0624  1.6956
25144SOL     OW82036  12.302   7.782   6.840 -0.4714  0.0988  0.1002
25144SOL    HW182037  12.231   7.722   6.818 -0.4856  0.4106 -0.7591
25144SOL    HW282038  12.274   7.866   6.804  0.7601  0.0147 -1.1766
25145SOL     OW82039   5.799   5.640  10.703  0.0408 -0.2391 -0.2359
25145SOL    HW182040   5.715   5.656  10.659  0.8687  1.6063 -1.2660
25145SOL    HW282041   5.792   5.689  10.785  0.1947  0.1631 -0.4573
25146SOL     OW82042   4.669   6.579   0.413 -0.1717  0.0693 -0.4471
25146SOL    HW182043   4.585   6.547   0.447  0.9562  0.2118  2.7623
25146SOL    HW282044   4.673   6.670   0.441  0.2167  0.7059 -2.4003
25147SOL     OW82045  10.844  11.213   2.085  0.3888 -0.5215  0.2563
25147SOL    HW182046  10.826  11.194   2.176 -0.4504 -0.2976  0.1457
25147SOL    HW282047  10.880  11.132   2.049  2.2253 -0.1636  1.1431
25148SOL     OW82048   7.892  11.416  11.998  0.0788 -0.2184  0.5322
25148SOL    HW182049   7.905  11.510  11.991  0.7093 -0.1061  2.4839
25148SOL    HW282050   7.801  11.406  12.026 -0.4291 -0.3086 -1.0419
25149SOL     OW82051   2.847  10.322   9.512  0.3033 -0.0928  0.6946
25149SOL    HW182052   2.825  10.266   9.586  0.8945  0.5654  1.3934
25149SOL    HW282053   2.939  10.303   9.494  0.4039  0.3730  0.6981
25150SOL     OW82054  10.935  12.016   2.127  0.4047  0.1323  0.6195
25150SOL    HW182055  10.887  12.060   2.198 -0.9665  0.8642 -0.7172
25150SOL    HW282056  10.919  11.923   2.142  2.0822  0.0792  2.5898
25151SOL     OW82057   3.186   4.118   2.123 -0.1528 -0.1018 -0.3526
25151SOL    HW182058   3.190   4.192   2.063  0.8381  0.1620  0.0140
25151SOL    HW282059   3.274   4.080   2.120 -0.3845 -0.6940  0.1692
25152SOL     OW82060   6.826  11.035   7.016  0.3815  0.3468  0.3621
25152SOL    HW182061   6.770  11.003   6.945 -0.9943  2.0206  0.6286
25152SOL    HW282062   6.888  11.094   6.972 -0.2864  1.1597  0.4964
25153SOL     OW82063  11.158   0.401  11.915 -0.1095 -0.2121 -0.2343
25153SOL    HW182064  11.175   0.416  12.008 -0.7453  0.0548 -0.1562
25153SOL    HW282065  11.188   0.481  11.872  3.8129 -1.7556 -0.7504
25154SOL     OW82066   8.822   8.786  10.929  0.2750 -0.0806  0.0561
25154SOL    HW182067   8.812   8.857  10.865  0.5703  0.3861  0.5142
25154SOL    HW282068   8.791   8.824  11.011  1.3959 -0.1383  0.5241
25155SOL     OW82069   4.716   6.357   5.772  0.3475 -0.4605  0.4393
25155SOL    HW182070   4.663   6.399   5.704 -0.2854 -0.2508  1.0433
25155SOL    HW282071   4.688   6.400   5.853  2.8180  1.0361  0.5890
25156SOL     OW82072   5.000   0.218   5.561 -0.1964 -0.3696  0.0564
25156SOL    HW182073   4.949   0.299   5.564 -1.3019 -1.0602  0.7143
25156SOL    HW282074   4.976   0.178   5.477 -0.5589 -0.5721  0.2535
25157SOL     OW82075   1.678  10.447   9.452  0.2087 -0.1451 -0.3010
25157SOL    HW182076   1.737  10.377   9.479  0.1046 -0.4282 -0.7970
25157SOL    HW282077   1.703  10.465   9.361 -0.2286 -0.0197 -0.3969
25158SOL     OW82078   0.356   1.636  10.077  0.0172 -0.4850 -0.0044
25158SOL    HW182079   0.414   1.561  10.093 -0.2378 -0.7161 -0.1393
25158SOL    HW282080   0.324   1.660  10.164  0.2498 -0.4123  0.0604
25159SOL     OW82081   3.180   5.944   0.215 -0.9777 -0.2116  0.0119
25159SOL    HW182082   3.189   6.038   0.200 -1.0442 -0.4388 -1.6480
25159SOL    HW282083   3.120   5.914   0.146 -1.7639 -1.3113  1.1296
25160SOL     OW82084   7.263   3.163   6.022 -0.2208 -0.0441 -0.1673
25160SOL    HW182085   7.274   3.176   5.927 -0.5618 -0.1995 -0.2296
25160SOL    HW282086   7.286   3.071   6.036  0.6009  0.1841  0.0243
25161SOL     OW82087  11.850   7.199  12.554  0.0763 -0.6090  0.2624
25161SOL    HW182088  11.773   7.234  12.510 -1.2917 -3.0677  0.4923
25161SOL    HW282089  11.916   7.193  12.485 -0.2278  0.6043 -0.1686
25162SOL     OW82090  11.247   6.618   9.416 -0.3194 -0.2830 -0.4338
25162SOL    HW182091  11.257   6.527   9.441 -2.7171 -0.5321 -0.1275
25162SOL    HW282092  11.256   6.619   9.321  2.9517 -0.2540 -0.2256
25163SOL     OW82093   8.995   1.070   4.320 -0.2760 -0.0583  0.1182
25163SOL    HW182094   8.968   1.162   4.319  1.7314  0.6252  1.3798
25163SOL    HW282095   9.007   1.050   4.413  1.1242 -0.9882 -0.2294
25164SOL     OW82096   8.041   3.008   0.943 -0.5174 -0.1565 -0.4426
25164SOL    HW182097   8.111   2.953   0.977 -1.0281 -0.3039  0.4138
25164SOL    HW282098   7.976   3.009   1.013 -0.3254  1.9237 -0.2442
25165SOL     OW82099   3.014   5.435   0.128  0.1696  0.1968  0.2145
25165SOL    HW182100   3.083   5.485   0.085 -0.4061  0.2963 -0.6089
25165SOL    HW282101   2.937   5.448   0.073 -0.7733  0.8779  1.6368
25166SOL     OW82102   1.727  11.377  11.343  0.0960  0.4603  0.1331
25166SOL    HW182103   1.722  11.456  11.397 -1.1322  1.5118 -1.4588
25166SOL    HW282104   1.725  11.409  11.253  1.0924 -1.3142 -0.5621
25167SOL     OW82105  11.908  12.785  12.704 -0.0920 -0.4110  0.1219
25167SOL    HW182106  11.850  12.847  12.660  1.1183  1.7645  1.4406
25167SOL    HW282107  11.874  12.778  12.793  0.0141 -1.3734  0.1002
25168SOL     OW82108   9.860   6.104   4.523  0.3071 -0.2356  0.3159
25168SOL    HW182109   9.780   6.075   4.566  1.1517 -1.7780  0.9021
25168SOL    HW282110   9.844   6.087   4.430 -0.7417  1.2419  0.1833
25169SOL     OW82111   2.088   3.142   8.298  0.5602  1.0113 -0.2487
25169SOL    HW182112   2.005   3.095   8.295  0.7445  0.7273 -1.0690
25169SOL    HW282113   2.072   3.222   8.247  1.1490  0.3538 -1.5020
25170SOL     OW82114   7.068   3.002   1.514  0.0373 -0.4160 -0.1474
25170SOL    HW182115   7.016   3.011   1.434 -0.5975 -0.5378  0.2412
25170SOL    HW282116   7.096   2.911   1.514  1.1861 -0.0788 -0.9119
25171SOL     OW82117   2.518   4.355   9.349  0.5836 -0.6471  0.5308
25171SOL    HW182118   2.575   4.281   9.366  2.1157 -0.0126 -1.4390
25171SOL    HW282119   2.577   4.426   9.326 -0.9324  0.5971  0.2732
25172SOL     OW82120  10.444   9.813   4.077  0.2234 -0.3721  0.5035
25172SOL    HW182121  10.434   9.822   3.982  1.4012  0.4589  0.4340
25172SOL    HW282122  10.358   9.784   4.108 -0.2884 -0.2624 -0.7731
25173SOL     OW82123   8.485  11.558   1.077 -0.0456 -0.3705 -0.0663
25173SOL    HW182124   8.519  11.546   1.166  1.6352  0.2390 -0.5904
25173SOL    HW282125   8.402  11.510   1.077 -0.3135 -0.0213  1.9524
25174SOL     OW82126   8.599   7.652  10.285  0.6303  0.6013  0.4075
25174SOL    HW182127   8.580   7.687  10.372  1.0747 -0.0662  0.7808
25174SOL    HW282128   8.682   7.605  10.296  0.9400  0.9121 -0.4852
25175SOL     OW82129   8.094  12.442   8.871 -0.4782  0.1611  0.7172
25175SOL    HW182130   8.110  12.418   8.780  0.0528  1.1407  0.5443
25175SOL    HW282131   8.128  12.368   8.922  0.5314  0.2359  0.1729
25176SOL     OW82132  10.269   1.080   6.532  0.4844 -0.2782 -0.3775
25176SOL    HW182133  10.181   1.117   6.542  1.2515  1.4970  0.4156
25176SOL    HW282134  10.303   1.122   6.453  0.5970 -1.0182 -0.7243
25177SOL     OW82135   0.024   1.395   9.476  0.7279 -0.6106  0.6228
25177SOL    HW182136   0.089   1.463   9.457  1.3414 -1.6771 -1.3646
25177SOL    HW282137   0.075   1.324   9.517  0.4343 -0.6563  0.9185
25178SOL     OW82138  12.041  12.723   3.385 -0.6437  0.3462 -0.2937
25178SOL    HW182139  12.010  12.794   3.328 -0.1061 -0.4414 -1.6122
25178SOL    HW282140  11.963  12.693   3.432 -1.1015  0.9948 -0.6277
25179SOL     OW82141   9.382   2.753   3.077  0.2134 -0.7134  0.4196
25179SOL    HW182142   9.302   2.781   3.033  1.7953  1.3676 -1.3422
25179SOL    HW282143   9.352   2.703   3.152 -2.7696  1.0822  0.5676
25180SOL     OW82144   7.701   8.932  11.164 -0.0108 -0.1641  0.3545
25180SOL    HW182145   7.781   8.923  11.216  0.1269 -0.8109  0.0435
25180SOL    HW282146   7.638   8.874  11.207 -0.4672  0.6783  0.8639
25181SOL     OW82147   5.270   6.055   0.156 -0.1673  0.2416 -0.6739
25181SOL    HW182148   5.287   6.144   0.188 -0.8834  0.6782 -1.4524
25181SOL    HW282149   5.266   6.002   0.235  0.0357  0.9454 -0.1758
25182SOL     OW82150   2.653  12.044   2.060  0.3827 -0.8425  0.0804
25182SOL    HW182151   2.679  12.014   1.973 -1.1726 -1.0660 -0.3454
25182SOL    HW282152   2.563  12.014   2.069 -0.6722  2.0835  0.3756
25183SOL     OW82153   3.253  10.642   7.124  0.0822 -0.2923  0.8908
25183SOL    HW182154   3.316  10.625   7.194 -0.5829 -1.1604  1.2869
25183SOL    HW282155   3.167  10.640   7.167 -0.2378  0.8739  0.3577
25184SOL     OW82156   6.984   0.422  11.770 -0.0643 -0.4830 -0.7698
25184SOL    HW182157   6.904   0.465  11.800  0.4347  0.3814 -0.6387
25184SOL    HW282158   7.023   0.483  11.708  2.2240  0.7471  1.6773
25185SOL     OW82159  10.137   1.585  11.952 -0.4078  0.5068 -0.5069
25185SOL    HW182160  10.059   1.639  11.938 -0.3947  0.4476 -0.8328
25185SOL    HW282161  10.181   1.625  12.027  0.3757  1.8527 -1.6343
25186SOL     OW82162   0.356   8.017   9.025 -0.2159  0.0438 -0.5009
25186SOL    HW182163   0.442   8.024   8.984 -0.4532 -0.0775 -1.0263
25186SOL    HW282164   0.326   8.107   9.034 -0.0108  0.0908 -0.2585
25187SOL     OW82165  10.909  10.629   8.778 -0.2678  0.5617  0.0806
25187SOL    HW182166  10.839  10.644   8.714  0.6662 -1.7595 -1.6187
25187SOL    HW282167  10.988  10.665   8.737 -0.0887  1.5178  1.1916
25188SOL     OW82168   5.692  10.121  11.728 -0.5498  0.5979 -0.2457
25188SOL    HW182169   5.640  10.064  11.670  0.3095  1.0918 -1.5529
25188SOL    HW282170   5.772  10.137  11.679  0.0038  1.4408  0.9050
25189SOL     OW82171   3.573   9.037   6.914 -0.0918  0.0068  0.2651
25189SOL    HW182172   3.644   9.012   6.973 -1.3301 -0.2561  1.6884
25189SOL    HW282173   3.519   9.097   6.964 -1.5202 -0.6951 -0.3649
25190SOL     OW82174  10.058   1.688   5.715  0.3834 -0.6459  0.6113
25190SOL    HW182175  10.131   1.705   5.774  1.1489 -1.5709 -0.0315
25190SOL    HW282176  10.036   1.596   5.729  0.3121 -0.7714 -0.2438
25191SOL     OW82177   9.905   0.600   9.765  0.3613  0.1378 -0.7169
25191SOL    HW182178   9.970   0.668   9.785  1.4858 -0.6131 -1.6911
25191SOL    HW282179   9.837   0.611   9.832  1.1562  1.3823 -0.0822
25192SOL     OW82180   4.327   4.455   1.642 -0.0526 -0.1038 -0.7667
25192SOL    HW182181   4.358   4.439   1.553 -0.2559  0.5411 -0.9585
25192SOL    HW282182   4.391   4.517   1.678 -0.3427  0.1586 -0.6967
25193SOL     OW82183   2.553   9.391   8.908 -0.5956  0.1760  0.2162
25193SOL    HW182184   2.495   9.456   8.868 -1.3870  0.0801  1.1722
25193SOL    HW282185   2.608   9.360   8.836  0.1383  2.2479 -0.1636
25194SOL     OW82186   9.970   8.872   4.640  0.0316  0.5347  0.4647
25194SOL    HW182187   9.956   8.835   4.727  0.4081  0.7407  0.6172
25194SOL    HW282188   9.889   8.920   4.621 -0.6765 -0.7993  0.0351
25195SOL     OW82189   3.581  11.941  12.767 -0.1530  0.1767  0.3636
25195SOL    HW182190   3.613  12.031  12.766  1.6868 -0.4472 -0.1211
25195SOL    HW282191   3.648  11.892  12.815 -1.5102 -0.8227  1.3245
25196SOL     OW82192   5.467   4.257  10.399 -0.5403  0.2745 -0.2961
25196SOL    HW182193   5.405   4.229  10.466  1.1778 -1.4464  0.6976
25196SOL    HW282194   5.553   4.251  10.442  0.5315  0.1926 -2.3151
25197SOL     OW82195  12.356   3.451   6.346 -0.0317 -0.0888 -0.0158
25197SOL    HW182196  12.437   3.493   6.375  0.0260 -0.1456 -0.0952
25197SOL    HW282197  12.368   3.358   6.366  0.3213 -0.2464 -0.9142
25198SOL     OW82198   7.645  12.399   6.182 -0.0343  0.1501  0.0311
25198SOL    HW182199   7.655  12.493   6.166  2.6926 -0.1633 -0.6581
25198SOL    HW282200   7.631  12.392   6.277  0.0730  1.2363  0.1416
25199SOL     OW82201   5.448   4.018   6.446  0.0202 -0.7700 -0.0196
25199SOL    HW182202   5.373   4.077   6.436  0.1937 -0.3304  1.0775
25199SOL    HW282203   5.493   4.051   6.524  1.7790 -0.5802 -1.0869
25200SOL     OW82204   0.931   3.458  12.054  0.0483 -0.2884 -0.3275
25200SOL    HW182205   1.016   3.429  12.022  0.3169  0.8959 -0.7232
25200SOL    HW282206   0.868   3.423  11.991  0.1327 -1.7602  0.3389
25201SOL     OW82207   6.460   7.876   4.978  0.2164 -0.5352 -0.2707
25201SOL    HW182208   6.433   7.785   4.964  0.3149 -0.8869  1.5782
25201SOL    HW282209   6.377   7.924   4.987  0.1222 -0.1643 -2.4328
25202SOL     OW82210   1.856   7.047   4.863 -0.1277 -0.3180  0.9840
25202SOL    HW182211   1.765   7.022   4.877 -0.9853  0.1075 -2.7053
25202SOL    HW282212   1.876   7.106   4.936 -3.4407  1.0078  1.0269
25203SOL     OW82213   5.657   6.990   2.019  0.2249  0.1925  0.2124
25203SOL    HW182214   5.585   6.928   2.029  0.7894 -0.5858 -0.4055
25203SOL    HW282215   5.616   7.072   1.992 -0.2860 -0.7501 -2.0830
25204SOL     OW82216   8.805   3.628   9.587  0.2408 -0.1363 -0.0040
25204SOL    HW182217   8.900   3.616   9.583  0.1085 -1.0272 -0.5842
25204SOL    HW282218   8.792   3.718   9.557  0.7903 -0.4788 -1.3291
25205SOL     OW82219  10.576   0.398  11.077 -0.9410  0.0287 -0.9745
25205SOL    HW182220  10.578   0.342  11.154 -1.0993  0.4270 -0.6778
25205SOL    HW282221  10.612   0.344  11.007 -4.0801 -1.5860 -1.4835
25206SOL     OW82222   0.921   4.914   6.509 -0.0399  0.3628  0.7786
25206SOL    HW182223   0.923   4.891   6.416  0.6173 -0.7222  1.0418
25206SOL    HW282224   0.885   4.836   6.552 -0.0781  0.7535  1.4633
25207SOL     OW82225  12.645   2.016   6.107  0.4111 -0.1873 -0.3809
25207SOL    HW182226  12.593   1.963   6.047 -0.4069  0.0216  0.1347
25207SOL    HW282227  12.598   2.012   6.190  2.2427 -1.6164  0.6673
25208SOL     OW82228  12.355   3.859   3.415 -0.0126 -0.5981  0.3085
25208SOL    HW182229  12.274   3.910   3.406 -0.4021 -1.0700  1.0896
25208SOL    HW282230  12.363   3.842   3.509  1.6015  0.4143  0.4085
25209SOL     OW82231   0.736  12.491   0.593  0.2257 -0.3672 -0.0588
25209SOL    HW182232   0.745  12.407   0.638  0.4814 -0.0583  0.4640
25209SOL    HW282233   0.660  12.479   0.536 -0.6678 -0.4719  1.1189
25210SOL     OW82234   8.601   9.969   5.334 -0.0800 -0.2247 -0.4662
25210SOL    HW182235   8.626   9.958   5.243  0.5830  1.5826 -0.5420
25210SOL    HW282236   8.516  10.012   5.331  0.5116  1.0113 -0.2795
25211SOL     OW82237   5.768   1.646   0.433 -0.6915 -0.4567  0.3954
25211SOL    HW182238   5.731   1.670   0.348 -1.6655  0.8505  1.1540
25211SOL    HW282239   5.702   1.590   0.473  0.4763 -2.4599 -0.3201
25212SOL     OW82240   8.247  11.629  10.690 -0.2455 -0.2943  0.0730
25212SOL    HW182241   8.179  11.665  10.746 -0.0181  0.1974  0.0342
25212SOL    HW282242   8.326  11.632  10.744  0.0238  0.4118 -0.3564
25213SOL     OW82243  11.268   7.528  10.473 -0.2434 -0.4089 -0.3951
25213SOL    HW182244  11.181   7.546  10.510 -1.0761 -2.3603 -1.2667
25213SOL    HW282245  11.270   7.579  10.392  0.9706  2.6101  1.3431
25214SOL     OW82246   7.778   0.626   9.427  0.1316 -0.0960 -0.3720
25214SOL    HW182247   7.747   0.548   9.472  0.2892  0.3712  0.5669
25214SOL    HW282248   7.830   0.593   9.354 -2.0593 -0.8978 -1.6678
25215SOL     OW82249   9.109   2.677   4.198 -0.4692  0.4488  0.8145
25215SOL    HW182250   9.132   2.586   4.218 -1.7188  0.1692  1.0956
25215SOL    HW282251   9.088   2.676   4.105 -0.7949  0.3767  0.8879
25216SOL     OW82252   4.806   8.283   6.829 -0.2342  0.3040  0.0303
25216SOL    HW182253   4.778   8.263   6.740  2.1113  0.2498 -0.7615
25216SOL    HW282254   4.818   8.198   6.871  0.6124  0.2523 -0.2890
25217SOL     OW82255   6.874  11.594   1.770 -0.0875  0.4112  0.0074
25217SOL    HW182256   6.923  11.629   1.844 -1.3796 -1.4575  1.8467
25217SOL    HW282257   6.939  11.550   1.716  0.6957  0.6780  0.7196
25218SOL     OW82258  11.953   5.405   2.851  0.4445  0.1993  0.1304
25218SOL    HW182259  11.989   5.477   2.902  0.6236  0.4234 -0.3025
25218SOL    HW282260  11.932   5.444   2.766 -0.4468 -0.0204  0.2407
25219SOL     OW82261  11.138   2.611   1.805 -0.7801 -0.2245  0.5837
25219SOL    HW182262  11.137   2.561   1.724 -0.5686 -2.5384  1.9074
25219SOL    HW282263  11.230   2.614   1.831 -0.7156  1.3552  0.3041
25220SOL     OW82264   9.050   8.333   2.975 -0.2598  0.5286  0.6410
25220SOL    HW182265   9.139   8.299   2.968 -0.9750 -1.3984  0.2927
25220SOL    HW282266   8.997   8.257   2.999 -2.4100  0.6472 -2.9723
25221SOL     OW82267   9.984   8.709   2.251  0.1373 -0.1739  0.1893
25221SOL    HW182268   9.949   8.771   2.316 -0.9908  1.2672 -1.6967
25221SOL    HW282269  10.016   8.765   2.180 -2.7878 -1.6989 -2.5536
25222SOL     OW82270   6.676   6.918   5.554 -0.4474  0.2504 -0.3010
25222SOL    HW182271   6.592   6.881   5.580 -0.6482 -1.2360 -2.7582
25222SOL    HW282272   6.655   6.993   5.500 -0.2618 -0.5165 -1.4766
25223SOL     OW82273  12.387   2.571  12.069 -0.1401 -0.0433  0.2009
25223SOL    HW182274  12.352   2.482  12.068 -0.0241 -0.0931  0.4298
25223SOL    HW282275  12.417   2.587  11.979  0.0840 -0.3325  0.2237
25224SOL     OW82276   6.878   4.462   0.917 -0.1486  0.2908  0.1503
25224SOL    HW182277   6.910   4.457   1.007 -0.2480  0.0588  0.1747
25224SOL    HW282278   6.826   4.382   0.906  0.6347 -0.1610 -0.4083
25225SOL     OW82279  11.952   1.304   6.433  0.6961 -0.2249  0.3370
25225SOL    HW182280  11.901   1.223   6.438  0.5977 -0.1261  1.2968
25225SOL    HW282281  12.039   1.279   6.464  0.7763 -0.0478  0.2556
25226SOL     OW82282   3.655   5.743   0.721 -0.3929  0.3101  1.1359
25226SOL    HW182283   3.623   5.672   0.665  0.9710  1.6810 -1.6217
25226SOL    HW282284   3.591   5.813   0.711  0.5035  1.0291  0.1577
25227SOL     OW82285   5.242  12.587   9.908  0.0895  0.2182  0.1714
25227SOL    HW182286   5.232  12.680   9.929 -2.1277  0.7929 -2.8390
25227SOL    HW282287   5.297  12.585   9.830 -1.2461 -0.8201 -0.7896
25228SOL     OW82288   3.465   3.841   9.388  0.3786  0.6698  0.0724
25228SOL    HW182289   3.374   3.863   9.371  0.3465 -0.1601 -0.9617
25228SOL    HW282290   3.461   3.760   9.440  0.5256  1.1555  0.8557
25229SOL     OW82291   3.584   3.449  10.663  0.2439 -0.2347 -0.0836
25229SOL    HW182292   3.520   3.431  10.594 -0.9640 -0.5000  1.0638
25229SOL    HW282293   3.667   3.463  10.616 -0.6855  0.3518 -1.6359
25230SOL     OW82294   4.563  11.465   0.018  0.0695 -0.5440  0.4496
25230SOL    HW182295   4.480  11.510   0.035  0.2171  0.2660 -0.8400
25230SOL    HW282296   4.626  11.535   0.001  1.0101 -1.1552  1.2878
25231SOL     OW82297  11.571  11.039   6.542 -0.0683 -0.4911  0.0227
25231SOL    HW182298  11.533  10.975   6.481  0.4695 -0.7472 -0.0514
25231SOL    HW282299  11.516  11.033   6.620 -1.4361  0.6112 -0.7984
25232SOL     OW82300   1.970   2.104   8.334  0.2239 -0.3667  0.1843
25232SOL    HW182301   2.035   2.140   8.394 -0.2422  1.2598 -0.2453
25232SOL    HW282302   1.967   2.011   8.355  1.5353 -0.1866  1.2836
25233SOL     OW82303   8.128   3.385   1.824 -0.4907 -0.6664  0.0567
25233SOL    HW182304   8.073   3.463   1.826  0.8995  0.3748 -0.6057
25233SOL    HW282305   8.101   3.334   1.900 -1.6208  0.3162  0.3439
25234SOL     OW82306   3.353   0.812   2.451 -0.2640 -0.3203  0.1794
25234SOL    HW182307   3.271   0.763   2.462 -0.9903  0.8969  0.3961
25234SOL    HW282308   3.346   0.852   2.364 -0.1519  0.2241  0.4142
25235SOL     OW82309   7.360   0.563   7.277 -0.4772 -0.2433 -0.5903
25235SOL    HW182310   7.266   0.564   7.292 -0.6318 -1.4721 -1.3015
25235SOL    HW282311   7.388   0.477   7.309  0.8424  1.0245  1.9614
25236SOL     OW82312  11.714   7.332   8.088 -0.3669 -0.1257 -0.0767
25236SOL    HW182313  11.720   7.403   8.152 -0.5858 -0.8344  0.7402
25236SOL    HW282314  11.772   7.360   8.016 -0.1033  0.6650  0.4291
25237SOL     OW82315  10.805   1.243   5.287 -0.2933 -0.4333 -0.0105
25237SOL    HW182316  10.843   1.156   5.285  0.9584  0.0982 -0.2855
25237SOL    HW282317  10.759   1.252   5.203 -0.1383 -0.7092 -0.1243
25238SOL     OW82318   2.701   2.416   3.779 -0.0098  0.1433  0.3884
25238SOL    HW182319   2.789   2.386   3.753 -0.5439  0.1036 -1.4928
25238SOL    HW282320   2.645   2.393   3.705 -1.4465  1.0412  1.1594
25239SOL     OW82321   6.653  11.970   0.929 -0.0707  0.4438 -0.1189
25239SOL    HW182322   6.561  11.952   0.907 -0.5391  0.6483  1.5260
25239SOL    HW282323   6.658  12.066   0.933 -0.5793  0.4445  2.6208
25240SOL     OW82324  12.748   7.348   3.672  0.6208 -0.1406 -0.1052
25240SOL    HW182325  12.806   7.400   3.728 -1.0337  1.9373 -0.2098
25240SOL    HW282326  12.804   7.321   3.599  1.5941  1.4797 -0.0138
25241SOL     OW82327   9.673   0.123   6.025  0.3570 -0.3343 -0.0428
25241SOL    HW182328   9.603   0.060   6.010 -1.5607  1.5370  0.5390
25241SOL    HW282329   9.648   0.200   5.973  2.1636  0.3022 -0.0650
25242SOL     OW82330   1.309  10.282   9.820  0.4252 -0.0069  0.4222
25242SOL    HW182331   1.266  10.365   9.798  1.8689  0.1723 -2.1653
25242SOL    HW282332   1.288  10.224   9.746  1.0414 -1.3018  1.2342
25243SOL     OW82333   5.654   2.582   3.428 -0.2199  0.1083  0.1902
25243SOL    HW182334   5.670   2.526   3.353  0.1300  1.8139 -1.0735
25243SOL    HW282335   5.604   2.528   3.489 -1.4836 -0.9863 -1.7340
25244SOL     OW82336   3.834   1.178   2.930  0.0381  0.2541 -0.1180
25244SOL    HW182337   3.749   1.219   2.948 -0.7348 -1.6192  0.8401
25244SOL    HW282338   3.820   1.129   2.848  0.8360  1.5587 -1.0572
25245SOL     OW82339   4.380   6.019  11.030 -0.1944  0.1293 -0.2233
25245SOL    HW182340   4.399   6.074  10.954 -0.3911  2.1359  1.0985
25245SOL    HW282341   4.295   5.979  11.010 -1.2116  2.1937 -0.2784
25246SOL     OW82342  12.059   8.063   9.095 -0.4068  0.0688  0.4467
25246SOL    HW182343  11.973   8.034   9.125  0.0852 -0.1095  1.7289
25246SOL    HW282344  12.100   7.984   9.060 -0.7364  0.1460 -0.1316
25247SOL     OW82345   8.803   6.279   0.485  0.7535  0.3018 -0.2174
25247SOL    HW182346   8.712   6.302   0.501  0.6597  0.5427 -1.0657
25247SOL    HW282347   8.804   6.238   0.399  1.3805 -0.1315 -0.0166
25248SOL     OW82348   2.184   5.698   2.964 -0.5270 -0.2741  0.2283
25248SOL    HW182349   2.271   5.709   3.001 -1.0502  0.3363  1.3353
25248SOL    HW282350   2.128   5.756   3.016 -1.2226  1.0786 -1.8969
25249SOL     OW82351   0.428   8.028  10.269 -0.2228  0.0446 -0.3267
25249SOL    HW182352   0.398   7.968  10.201 -0.4074  0.1034 -0.2971
25249SOL    HW282353   0.462   7.971  10.338  2.5248  0.0009 -1.5984
25250SOL     OW82354   5.227   9.797   2.472 -0.0061 -0.3039 -0.5379
25250SOL    HW182355   5.263   9.801   2.384  1.6655  2.2450  0.1411
25250SOL    HW282356   5.159   9.864   2.473 -0.1053 -0.4042  0.0650
25251SOL     OW82357   3.519  11.118   7.967  0.0827 -0.8213  0.8298
25251SOL    HW182358   3.516  11.213   7.970  0.0176 -0.8285  1.0830
25251SOL    HW282359   3.589  11.094   8.028  0.5502 -0.9099  0.2576
25252SOL     OW82360   6.509   1.185   7.163  0.2641  0.1348 -0.4075
25252SOL    HW182361   6.544   1.137   7.088  2.1795  0.8117 -0.0048
25252SOL    HW282362   6.471   1.118   7.219  2.7473 -0.9576  0.0775
25253SOL     OW82363   4.988   6.968   0.540 -0.1572  0.2557 -0.1700
25253SOL    HW182364   4.924   6.897   0.542  0.2203 -0.0884 -0.2146
25253SOL    HW282365   5.069   6.929   0.575  0.0439  0.6677 -0.1656
25254SOL     OW82366  12.468   1.114  12.520  0.5445 -0.0697 -0.0492
25254SOL    HW182367  12.474   1.046  12.452  1.3384  0.6645 -0.7406
25254SOL    HW282368  12.400   1.173  12.489  0.4745 -0.0715  0.1025
25255SOL     OW82369   6.513   8.500   7.995  0.3931  0.3259  0.0085
25255SOL    HW182370   6.448   8.465   8.056  1.1518 -0.0884  0.5992
25255SOL    HW282371   6.495   8.594   7.991  0.1471  0.3080  0.6426
25256SOL     OW82372  12.693   5.449   0.668  0.0874  0.4802  0.0265
25256SOL    HW182373  12.752   5.383   0.706 -1.8130 -0.7802  0.9739
25256SOL    HW282374  12.605   5.411   0.677 -0.8682  2.0933 -1.6973
25257SOL     OW82375   0.945  12.186   8.461  0.1461  0.1901 -0.0769
25257SOL    HW182376   1.005  12.207   8.389  1.4133 -0.3273  0.8029
25257SOL    HW282377   0.918  12.271   8.495  0.9909  0.4397  0.0027
25258SOL     OW82378   9.297  11.946   3.948 -0.6402 -0.2264 -0.2141
25258SOL    HW182379   9.373  11.991   3.984 -1.0978  0.5192 -0.1647
25258SOL    HW282380   9.332  11.892   3.877 -0.2566  1.1683 -1.1129
25259SOL     OW82381  10.987   4.882   9.958 -0.3479 -0.3712 -0.7366
25259SOL    HW182382  10.974   4.826  10.035 -0.0810  2.3538  1.4390
25259SOL    HW282383  10.968   4.970   9.988 -0.1950  0.8673 -3.8443
25260SOL     OW82384   2.722   3.592  10.688 -0.2695  0.7120 -0.5680
25260SOL    HW182385   2.732   3.660  10.622 -2.2013  0.5125 -1.1390
25260SOL    HW282386   2.629   3.595  10.712 -0.1759 -0.9925  0.1830
25261SOL     OW82387   4.188   5.239   8.075 -0.5309 -0.4716 -0.1508
25261SOL    HW182388   4.210   5.186   7.998 -1.3131  2.4170 -2.5378
25261SOL    HW282389   4.271   5.248   8.121  0.0990 -1.8203 -0.9558
25262SOL     OW82390   9.988   5.211   0.467  0.1407  0.7002  0.1484
25262SOL    HW182391  10.084   5.206   0.472  0.4415  3.9718 -0.1269
25262SOL    HW282392   9.961   5.240   0.554 -0.0866  3.6458 -0.7761
25263SOL     OW82393   3.829   2.504   5.686 -0.4949  0.2357  0.0136
25263SOL    HW182394   3.808   2.579   5.741 -0.9319  0.5162 -0.5267
25263SOL    HW282395   3.911   2.470   5.722 -0.8787  0.2832  0.9716
25264SOL     OW82396   8.511   1.034   5.790  0.0441  0.5481 -0.5362
25264SOL    HW182397   8.475   0.959   5.837  0.7225 -0.3680 -1.4358
25264SOL    HW282398   8.499   1.107   5.849 -2.1282  0.0542 -0.2864
25265SOL     OW82399   9.554   1.852   5.765 -0.9188 -0.1917  0.5254
25265SOL    HW182400   9.540   1.933   5.716  1.1388  0.6180  1.1360
25265SOL    HW282401   9.632   1.814   5.726 -1.7543 -1.8123  0.3791
25266SOL     OW82402   3.865   8.754   9.971  0.0481 -0.4807 -0.2608
25266SOL    HW182403   3.812   8.827   9.939 -1.6173 -1.2072  0.7363
25266SOL    HW282404   3.927   8.794  10.031  1.3367  0.5103 -2.1386
25267SOL     OW82405   9.101   0.474  10.031  0.1682 -0.3077 -0.1757
25267SOL    HW182406   9.106   0.455   9.937  1.6696  1.9280 -0.6236
25267SOL    HW282407   9.009   0.493  10.047 -0.2874 -1.7063 -0.9308
25268SOL     OW82408   8.277   5.153  10.155  0.0774  0.2878  0.0003
25268SOL    HW182409   8.368   5.131  10.176 -0.1300 -3.2942 -2.1412
25268SOL    HW282410   8.285   5.223  10.090  1.5800 -1.7366 -2.1751
25269SOL     OW82411   8.622   4.751   2.240 -0.1931 -0.7798  0.3128
25269SOL    HW182412   8.637   4.703   2.158  0.6005  1.3321 -0.8413
25269SOL    HW282413   8.527   4.746   2.253 -0.2264 -1.9550 -0.1878
25270SOL     OW82414   2.540   2.109   5.554 -0.1590 -0.1723  0.2092
25270SOL    HW182415   2.618   2.102   5.609 -0.0352  2.1027  0.4117
25270SOL    HW282416   2.482   2.039   5.586  0.7464 -0.2437  1.8203
25271SOL     OW82417  12.705   8.348  11.325  0.0009  0.3107 -0.1448
25271SOL    HW182418  12.790   8.382  11.299 -0.2405  1.7800  0.8960
25271SOL    HW282419  12.722   8.256  11.348  1.2912  0.5650 -0.0064
25272SOL     OW82420   9.617   2.333  12.263 -0.4311  0.9297  0.0243
25272SOL    HW182421   9.640   2.241  12.251 -0.1806  0.9345  0.4442
25272SOL    HW282422   9.551   2.331  12.333 -1.0342  0.9983 -0.5340
25273SOL     OW82423   7.245   2.420   4.648 -0.0455  0.1440 -0.1194
25273SOL    HW182424   7.301   2.483   4.694 -0.6344  0.1478  0.5912
25273SOL    HW282425   7.273   2.427   4.556 -0.1689  1.5177 -0.0717
25274SOL     OW82426   3.290   1.306   2.688  0.2569 -0.4181 -0.1795
25274SOL    HW182427   3.199   1.296   2.716  0.2241 -0.8721 -0.4363
25274SOL    HW282428   3.341   1.267   2.758  0.2738  0.1155  0.1108
25275SOL     OW82429   7.998   0.811   7.324  0.0332  0.4523 -0.2523
25275SOL    HW182430   7.913   0.845   7.351 -0.0396 -0.9297  1.4435
25275SOL    HW282431   7.978   0.724   7.289  0.5598  0.8658 -1.6544
25276SOL     OW82432   6.238  12.269  10.102 -0.2423  0.1854 -0.2988
25276SOL    HW182433   6.256  12.248  10.010  1.1624 -1.2043  0.2515
25276SOL    HW282434   6.324  12.296  10.137 -0.2919 -1.3502  1.1088
25277SOL     OW82435  11.758   1.467  10.484 -0.0308 -0.0671  0.3582
25277SOL    HW182436  11.757   1.519  10.564 -1.4710 -0.0336  0.3376
25277SOL    HW282437  11.823   1.510  10.428  0.7514  0.0992  1.3760
25278SOL     OW82438   9.955   3.939  11.930  0.2489 -0.2534  0.4592
25278SOL    HW182439   9.860   3.927  11.929  0.0925  0.8486  0.6491
25278SOL    HW282440   9.975   3.974  11.843  0.3866  0.1457  0.6503
25279SOL     OW82441  12.441   9.088   2.127  0.3720  0.1087 -0.2392
25279SOL    HW182442  12.476   9.001   2.143  0.4263  0.3827  1.2939
25279SOL    HW282443  12.518   9.145   2.122  0.2895  0.5506  2.1169
25280SOL     OW82444  11.197   7.305   1.341 -0.4348  0.3296  0.3115
25280SOL    HW182445  11.250   7.376   1.305  0.7154 -0.2567  0.7859
25280SOL    HW282446  11.124   7.349   1.385 -0.0939  1.1783  0.0362
25281SOL     OW82447   8.007   9.068   2.459  0.0983 -0.4115  0.0560
25281SOL    HW182448   8.072   9.070   2.388  0.7900 -0.0188  0.6820
25281SOL    HW282449   7.962   8.985   2.448 -1.6643  0.7514 -2.4730
25282SOL     OW82450   8.710   1.694   6.808 -0.2223  0.2631 -0.0918
25282SOL    HW182451   8.627   1.661   6.774 -0.6676 -0.4400  1.5562
25282SOL    HW282452   8.708   1.671   6.901  1.6760  0.5477  0.0554
25283SOL     OW82453   4.120   2.185   1.678  0.2741  0.2024 -0.1598
25283SOL    HW182454   4.133   2.094   1.652 -2.2660 -0.1691 -0.4279
25283SOL    HW282455   4.167   2.193   1.761  0.4488 -1.3804 -0.0730
25284SOL     OW82456  11.711   7.661   1.867  0.0133  0.2333 -0.5086
25284SOL    HW182457  11.759   7.726   1.817  0.4148 -0.3134 -0.8384
25284SOL    HW282458  11.686   7.707   1.948  0.0925  0.8582 -0.8345
25285SOL     OW82459   7.347  10.140   9.765  0.1854 -0.2199 -0.5122
25285SOL    HW182460   7.398  10.105   9.837 -0.2163 -0.2991 -0.2611
25285SOL    HW282461   7.379  10.095   9.687 -2.6707 -3.9020  0.1664
25286SOL     OW82462   7.824   6.947   3.979 -0.4696  0.0728 -0.1625
25286SOL    HW182463   7.787   6.947   4.067  1.7726 -0.8178  0.8645
25286SOL    HW282464   7.784   6.871   3.937  1.1928 -1.8197  1.4521
25287SOL     OW82465  11.972   1.032   5.189 -0.3462 -0.5958 -0.1745
25287SOL    HW182466  11.883   1.019   5.155 -1.0083  1.2365  0.7367
25287SOL    HW282467  12.029   0.993   5.123 -1.6752  0.8121 -2.2593
25288SOL     OW82468  12.451   0.177   0.405  0.1591  0.1641  0.0971
25288SOL    HW182469  12.538   0.180   0.365 -0.1661 -0.4031 -0.6901
25288SOL    HW282470  12.433   0.267   0.432  0.3694  0.5849 -1.1012
25289SOL     OW82471   0.865   9.089   4.073  0.7053 -0.4526 -0.2267
25289SOL    HW182472   0.932   9.027   4.046 -0.3249 -1.4073 -0.6431
25289SOL    HW282473   0.899   9.127   4.154  0.8787 -2.3634  0.6546
25290SOL     OW82474   7.699  10.614  12.089 -0.4860 -0.2616 -0.1993
25290SOL    HW182475   7.614  10.635  12.126 -0.3253 -0.9145  0.5659
25290SOL    HW282476   7.759  10.677  12.129 -0.1058 -1.7019  1.6400
25291SOL     OW82477   2.478   6.021   9.921 -0.0870 -0.4077 -0.3299
25291SOL    HW182478   2.480   6.079   9.845 -2.1087  1.8306  1.1826
25291SOL    HW282479   2.513   6.074   9.993  0.8277 -2.1200  0.5469
25292SOL     OW82480   2.319   0.012   6.620  0.4619  0.0163 -0.6690
25292SOL    HW182481   2.335   0.018   6.714 -0.5760 -0.5444 -0.4453
25292SOL    HW282482   2.340  -0.079   6.598  0.4436  0.0729 -0.9243
25293SOL     OW82483   3.554   5.790   6.894 -0.3492  0.1735  0.3914
25293SOL    HW182484   3.570   5.851   6.966  1.6133  1.8371 -1.3085
25293SOL    HW282485   3.497   5.838   6.834 -0.3114 -0.4023 -0.1131
25294SOL     OW82486   6.625   2.222   4.228  0.0483 -0.1787 -0.2236
25294SOL    HW182487   6.641   2.130   4.250 -1.6587 -0.3736  0.3491
25294SOL    HW282488   6.530   2.228   4.217 -0.0595  1.8058  1.2169
25295SOL     OW82489  12.022   1.756   5.279  0.2180 -0.7012 -0.3306
25295SOL    HW182490  12.080   1.682   5.260 -0.3592 -1.2753  0.1080
25295SOL    HW282491  11.999   1.745   5.372 -0.6288 -0.5016 -0.5087
25296SOL     OW82492   8.024   5.070   2.193  0.4580  0.4360 -0.0244
25296SOL    HW182493   8.052   4.996   2.139 -0.9033  0.4678 -0.8284
25296SOL    HW282494   8.095   5.082   2.256  1.8043 -0.0437 -1.3755
25297SOL     OW82495   9.853  11.161  10.259 -0.0777 -0.7684 -0.5022
25297SOL    HW182496   9.768  11.198  10.283  0.7978 -0.2052  1.9384
25297SOL    HW282497   9.832  11.071  10.233 -1.4280 -0.6239 -0.0156
25298SOL     OW82498   0.439   0.542   0.585 -0.8521 -0.2736  0.4087
25298SOL    HW182499   0.397   0.622   0.618  0.6371  0.6328  0.2326
25298SOL    HW282500   0.431   0.479   0.657 -1.3082  0.3103  0.8810
25299SOL     OW82501   9.162  12.377  10.391 -0.7331 -0.5805  0.5494
25299SOL    HW182502   9.142  12.284  10.382 -0.8084 -0.4174 -1.2375
25299SOL    HW282503   9.102  12.408  10.459 -1.5652 -1.5782  0.2979
25300SOL     OW82504   3.508   7.111   6.483 -0.2077  0.5337  1.3663
25300SOL    HW182505   3.536   7.202   6.494  0.6873  0.2065  1.9076
25300SOL    HW282506   3.430   7.103   6.537 -1.9577  1.6890 -0.8171
25301SOL     OW82507   8.456   1.152   9.406  0.3155  0.2260  0.0057
25301SOL    HW182508   8.410   1.119   9.484 -0.3240  2.5874  0.7341
25301SOL    HW282509   8.526   1.090   9.391  0.1630 -0.5784  2.2014
25302SOL     OW82510   4.016  10.096  10.018  0.1357 -0.1437 -0.3706
25302SOL    HW182511   3.999  10.190  10.026  0.7600  0.1334 -1.8752
25302SOL    HW282512   4.062  10.073  10.099  1.5266  1.2325 -0.7272
25303SOL     OW82513   6.601   8.298  10.487  0.2328  0.1554 -0.2867
25303SOL    HW182514   6.574   8.312  10.578 -0.6857 -0.1589 -0.4949
25303SOL    HW282515   6.652   8.376  10.465 -1.1513  1.1592 -0.0842
25304SOL     OW82516  11.558   7.837  11.539 -0.1235 -0.0740  0.3514
25304SOL    HW182517  11.572   7.747  11.568  1.0664 -0.1639 -0.4322
25304SOL    HW282518  11.644   7.866  11.508 -0.9987  0.5179 -1.6467
25305SOL     OW82519   5.300   3.579  12.683  0.0089  0.0893  0.6704
25305SOL    HW182520   5.281   3.503  12.628  1.4309  0.3792 -0.2635
25305SOL    HW282521   5.228   3.640  12.666 -1.0042 -0.9151  1.2299
25306SOL     OW82522   7.204   7.024  11.578 -0.1140  0.0462 -0.2862
25306SOL    HW182523   7.279   7.065  11.535 -0.6310  0.9399 -0.3493
25306SOL    HW282524   7.218   7.042  11.671 -0.3611  0.4108 -0.3175
25307SOL     OW82525   4.399   5.657   2.871 -0.2472 -0.3099  0.4088
25307SOL    HW182526   4.371   5.603   2.945  0.6361 -1.6648 -0.2004
25307SOL    HW282527   4.402   5.596   2.797 -0.2283  0.8184 -0.5445
25308SOL     OW82528   1.027   4.425  12.366  0.3046 -0.1436  0.4027
25308SOL    HW182529   1.071   4.467  12.293 -0.5198 -1.4092 -0.8717
25308SOL    HW282530   0.938   4.462  12.364 -0.9793 -2.9800 -1.7985
25309SOL     OW82531   3.375  12.425   5.771  0.5142  0.6689 -0.0314
25309SOL    HW182532   3.327  12.432   5.688  0.1990  0.2903  0.1181
25309SOL    HW282533   3.314  12.381   5.830  1.1188 -0.0011  0.1038
25310SOL     OW82534   6.707   2.058   0.901  0.8033 -0.3776  0.1971
25310SOL    HW182535   6.739   2.044   0.990  1.8817  0.9632  0.0499
25310SOL    HW282536   6.630   2.114   0.912  2.0488  1.4042  0.2091
25311SOL     OW82537   4.468   6.525   3.671  0.1825  0.3724  0.0660
25311SOL    HW182538   4.526   6.598   3.650  0.9665 -0.1347  0.4364
25311SOL    HW282539   4.492   6.499   3.759  1.5525 -1.8197 -0.8713
25312SOL     OW82540   1.521  11.582   1.118 -0.4817 -0.1411 -0.7056
25312SOL    HW182541   1.472  11.657   1.152 -1.7973 -0.8141 -1.0551
25312SOL    HW282542   1.570  11.618   1.044 -1.4395  0.3047 -1.1445
25313SOL     OW82543   5.925   3.218  12.742  0.2796 -0.3303 -0.1238
25313SOL    HW182544   5.863   3.222  12.815  2.6729  1.7370  1.9939
25313SOL    HW282545   5.905   3.295  12.689  1.0388  0.3883  0.6110
25314SOL     OW82546   8.335   8.144   3.505 -0.4646 -0.2522 -0.3508
25314SOL    HW182547   8.339   8.050   3.519 -1.0678  0.0336  2.2647
25314SOL    HW282548   8.419   8.167   3.466  0.1076 -1.7166 -0.0279
25315SOL     OW82549   2.399   9.371   2.736 -0.1225 -0.0482  0.5574
25315SOL    HW182550   2.378   9.416   2.654  2.0045  0.7133  0.3828
25315SOL    HW282551   2.415   9.442   2.799  1.3439 -0.5531  0.7967
25316SOL     OW82552   0.432   8.093   8.408  0.6420  0.0777 -0.2196
25316SOL    HW182553   0.450   8.123   8.497 -1.7980  0.4663  0.2172
25316SOL    HW282554   0.365   8.025   8.419 -1.2807  1.5839 -1.8247
25317SOL     OW82555   3.986   3.461  10.117 -0.1502 -0.5527  0.4225
25317SOL    HW182556   3.922   3.475  10.187 -0.1480  2.0559 -0.0047
25317SOL    HW282557   4.063   3.510  10.145 -0.2074  0.6861 -1.4556
25318SOL     OW82558   0.614  10.195   8.820  0.4077  0.4775 -0.4061
25318SOL    HW182559   0.705  10.177   8.846 -0.2118 -1.4523  0.6348
25318SOL    HW282560   0.565  10.188   8.901 -0.8163  0.4812 -1.1323
25319SOL     OW82561   1.309   4.920  12.028 -0.2791  0.1553  0.2549
25319SOL    HW182562   1.263   5.004  12.029 -0.4860  0.1829 -2.8178
25319SOL    HW282563   1.240   4.854  12.036 -0.2128  0.2098  1.5697
25320SOL     OW82564   6.779   8.540   6.261  0.3533  0.0233  0.2940
25320SOL    HW182565   6.690   8.573   6.252 -0.4684 -1.7499  1.4338
25320SOL    HW282566   6.821   8.561   6.177 -1.6341 -0.5485 -0.9124
25321SOL     OW82567   4.222   3.618   2.555 -0.3867  0.3217 -0.4231
25321SOL    HW182568   4.307   3.617   2.598 -0.2176  1.8396 -0.6523
25321SOL    HW282569   4.171   3.551   2.600  0.7624 -0.2722  0.0397
25322SOL     OW82570   8.769   4.707   5.709  0.0341 -0.6743 -0.2033
25322SOL    HW182571   8.807   4.716   5.622 -0.0127  1.5553 -0.0475
25322SOL    HW282572   8.785   4.615   5.733  1.8316 -0.8198 -1.7248
25323SOL     OW82573   4.376  11.563  12.089 -0.1825 -0.1920 -0.2938
25323SOL    HW182574   4.460  11.524  12.065 -0.3557 -0.4346 -0.5059
25323SOL    HW282575   4.327  11.492  12.129  0.7432  0.5827  2.4476
25324SOL     OW82576   3.708   9.464   6.789 -0.1029 -0.1415 -0.0095
25324SOL    HW182577   3.654   9.542   6.773  0.6819  0.4573  0.1723
25324SOL    HW282578   3.777   9.469   6.723 -0.4584 -1.0839 -0.4579
25325SOL     OW82579   6.215   4.021   2.373 -0.5351 -0.6902 -0.1071
25325SOL    HW182580   6.145   4.056   2.427  0.0752  1.0515 -0.3634
25325SOL    HW282581   6.175   3.950   2.323 -1.5030 -1.2690  1.4393
25326SOL     OW82582   1.575   0.009   7.983 -0.1476 -0.1235  0.0179
25326SOL    HW182583   1.567   0.020   8.078 -1.0751 -0.2216 -0.0411
25326SOL    HW282584   1.508   0.066   7.946  0.6791  0.4634 -0.6187
25327SOL     OW82585   7.432   1.811   5.899  0.0807 -0.6494  0.0814
25327SOL    HW182586   7.459   1.814   5.808  0.8957 -0.4435  0.3230
25327SOL    HW282587   7.369   1.739   5.904 -0.1299 -0.5195 -0.6821
25328SOL     OW82588   4.263  10.289  11.396 -0.2193  0.5433 -0.0119
25328SOL    HW182589   4.260  10.290  11.492  1.9134  0.0302  0.1152
25328SOL    HW282590   4.224  10.373  11.370 -0.4934  0.8447  1.3074
25329SOL     OW82591  10.489   8.457   4.923 -0.4723 -0.8711 -0.0709
25329SOL    HW182592  10.582   8.459   4.904 -0.3035 -4.2965 -0.0899
25329SOL    HW282593  10.483   8.476   5.017 -0.1211  2.1956 -0.5608
25330SOL     OW82594   5.249   5.863   8.805  0.3545  0.0700  0.0133
25330SOL    HW182595   5.332   5.828   8.839  0.4932  0.8666  0.5196
25330SOL    HW282596   5.275   5.941   8.755 -0.1743  0.9647  1.0949
25331SOL     OW82597   2.177   0.715  10.307  0.0149 -0.0877  0.0282
25331SOL    HW182598   2.191   0.727  10.213 -0.7144  1.3672  0.0709
25331SOL    HW282599   2.122   0.637  10.313  0.0187 -0.1619 -0.7509
25332SOL     OW82600  12.769   3.117   3.412 -0.3789 -0.2472 -0.1891
25332SOL    HW182601  12.698   3.062   3.379  0.1357 -0.6886 -0.5844
25332SOL    HW282602  12.756   3.202   3.370 -0.1803 -0.5802 -0.9474
25333SOL     OW82603  10.935  10.231   9.835 -0.2463  0.1365 -0.5178
25333SOL    HW182604  10.938  10.194   9.923  1.4124  0.2884 -0.4774
25333SOL    HW282605  10.862  10.293   9.837  0.1473  0.5929  0.9595
25334SOL     OW82606   0.124  11.061   3.857  0.2564  0.2456 -0.7403
25334SOL    HW182607   0.197  11.097   3.807  0.4201  0.8976 -0.0556
25334SOL    HW282608   0.120  11.115   3.936 -1.0171  0.2709 -0.7929
25335SOL     OW82609  10.377   1.935   5.119  0.2736  0.1858 -0.1923
25335SOL    HW182610  10.389   2.005   5.054 -1.9528 -1.6652 -2.8635
25335SOL    HW282611  10.351   1.981   5.199 -0.7166  2.4497 -1.6910
25336SOL     OW82612  12.778  12.119   2.351  0.2883  0.2728  0.2980
25336SOL    HW182613  12.736  12.081   2.428 -2.1397  2.0241 -0.0404
25336SOL    HW282614  12.807  12.205   2.380 -0.1117  0.7122 -0.5654
25337SOL     OW82615   7.055   1.972   2.447 -0.6324 -0.1783  0.2690
25337SOL    HW182616   7.007   2.044   2.488  0.8257  1.6190 -1.0165
25337SOL    HW282617   7.013   1.961   2.362 -0.6555 -0.6621  0.3407
25338SOL     OW82618   6.300   2.413   5.815  0.6871 -0.0132  0.3248
25338SOL    HW182619   6.273   2.405   5.723  0.8545  0.6589  0.2130
25338SOL    HW282620   6.340   2.500   5.821 -0.1838  0.3346  1.2600
25339SOL     OW82621   9.761   8.585   9.322 -0.0710 -0.2250  0.4508
25339SOL    HW182622   9.855   8.579   9.340 -0.0694  0.9824  0.9566
25339SOL    HW282623   9.728   8.648   9.387 -0.9077  0.7329 -0.8456
25340SOL     OW82624  10.650  10.455   1.749 -0.2335 -0.5334 -0.3836
25340SOL    HW182625  10.720  10.520   1.758 -0.8149  0.0174  0.3363
25340SOL    HW282626  10.571  10.507   1.734 -0.8232 -1.0177  0.9252
25341SOL     OW82627   1.281   4.091   0.847 -0.3369  0.1582  0.5338
25341SOL    HW182628   1.308   4.177   0.815  1.1714 -0.1149  0.9935
25341SOL    HW282629   1.293   4.032   0.772  4.1377 -0.6689  1.6459
25342SOL     OW82630  12.682   5.769   3.008  0.3350  0.3394  0.0121
25342SOL    HW182631  12.588   5.766   2.990  0.3880  1.6130 -0.6317
25342SOL    HW282632  12.689   5.753   3.102 -0.4279 -0.8449 -0.1160
25343SOL     OW82633   6.057   8.214   0.114  0.6023 -0.4226  0.1825
25343SOL    HW182634   5.976   8.168   0.091  0.9362  0.0202 -2.1482
25343SOL    HW282635   6.126   8.149   0.100  0.8831  0.0907 -0.9282
25344SOL     OW82636   3.903   8.694   2.384 -0.3383 -0.0021 -0.5056
25344SOL    HW182637   3.939   8.676   2.471  0.7761 -2.1909 -1.3449
25344SOL    HW282638   3.809   8.709   2.399  0.0272  0.8860  1.1637
25345SOL     OW82639   7.590   1.446   6.927  0.5904  0.1985  0.4371
25345SOL    HW182640   7.621   1.533   6.901 -1.5518  0.8438 -0.1881
25345SOL    HW282641   7.584   1.397   6.845  1.1662 -0.3413  0.7069
25346SOL     OW82642   4.737  11.949   3.790 -0.0457  0.1194  0.0895
25346SOL    HW182643   4.726  11.868   3.839  0.3988  0.0952  0.1531
25346SOL    HW282644   4.714  11.926   3.700 -0.4369  0.0557  0.2045
25347SOL     OW82645   8.825   1.331   4.810 -0.4158 -0.0085 -0.0546
25347SOL    HW182646   8.842   1.326   4.716  1.2356 -1.6183  0.2623
25347SOL    HW282647   8.837   1.423   4.832 -0.9389  0.4092 -1.4347
25348SOL     OW82648   9.267   1.195   9.774  0.2616  0.3299 -0.1967
25348SOL    HW182649   9.202   1.165   9.837 -0.9233 -0.1407 -1.5688
25348SOL    HW282650   9.243   1.150   9.692  3.0794 -0.8365 -0.4747
25349SOL     OW82651   5.860  10.661   0.554  0.0016  0.3771 -0.3226
25349SOL    HW182652   5.858  10.750   0.519  1.0563  0.8181  0.6543
25349SOL    HW282653   5.913  10.612   0.492 -2.4569 -0.1891 -2.1045
25350SOL     OW82654   5.709   9.082   7.369 -0.7041  0.5780  0.1260
25350SOL    HW182655   5.635   9.116   7.421 -0.4087  2.1446 -0.4284
25350SOL    HW282656   5.786   9.109   7.418 -0.4573  0.6500 -0.3009
25351SOL     OW82657   7.233  11.395   6.384 -0.0816 -0.1222 -0.1922
25351SOL    HW182658   7.267  11.377   6.297 -1.0756  0.2232 -0.6754
25351SOL    HW282659   7.291  11.347   6.443  0.5987 -0.3726 -1.0403
25352SOL     OW82660   4.506   2.046   1.551 -0.1789  0.0465  0.1747
25352SOL    HW182661   4.413   2.036   1.570 -0.5709  3.2957  0.4419
25352SOL    HW282662   4.511   2.125   1.498  2.3802 -0.5214 -0.5459
25353SOL     OW82663  11.835   2.650   7.263 -0.3766 -0.0984 -0.1428
25353SOL    HW182664  11.919   2.613   7.290 -0.2615  0.3930  0.1875
25353SOL    HW282665  11.781   2.649   7.342 -1.3322 -2.1014 -0.7467
25354SOL     OW82666   8.799   9.497   0.646 -0.0367 -0.4957  0.6448
25354SOL    HW182667   8.747   9.576   0.661 -0.9141 -0.7611 -0.8505
25354SOL    HW282668   8.862   9.522   0.579  0.1827 -0.8576  0.7118
25355SOL     OW82669  10.057  11.360   6.303 -0.9206 -0.5780 -0.1423
25355SOL    HW182670  10.020  11.351   6.215  0.9519  1.0510 -1.1672
25355SOL    HW282671  10.150  11.339   6.293  0.1284  3.0292  0.6048
25356SOL     OW82672  10.588   6.812   0.811  0.0960 -0.2856 -0.0342
25356SOL    HW182673  10.583   6.904   0.837 -0.1917 -0.4017  0.3247
25356SOL    HW282674  10.610   6.814   0.718  0.7680  0.1390  0.1309
25357SOL     OW82675   5.815   2.632   6.074 -0.0755 -0.0139 -0.3318
25357SOL    HW182676   5.822   2.688   6.152  2.5722  0.3180 -0.7427
25357SOL    HW282677   5.898   2.586   6.070 -1.3263 -2.3286 -1.3158
25358SOL     OW82678  12.314   4.697   1.090 -0.5725 -0.2903  0.2468
25358SOL    HW182679  12.256   4.773   1.101 -1.2002 -0.8072  0.6151
25358SOL    HW282680  12.402   4.734   1.080 -0.9705  0.5079 -0.3402
25359SOL     OW82681   9.954   3.050  10.218 -0.5938  0.3022  0.1830
25359SOL    HW182682   9.947   3.048  10.313  1.2668 -1.0755  0.3414
25359SOL    HW282683   9.946   2.959  10.191 -0.6629  0.6226 -0.9419
25360SOL     OW82684   6.198   5.503   1.291 -0.0074 -0.2614  0.8032
25360SOL    HW182685   6.276   5.456   1.321 -1.4285 -1.7745  2.3788
25360SOL    HW282686   6.226   5.550   1.212  3.2271  1.6019  2.8563
25361SOL     OW82687   3.533   9.633  10.080  0.2865 -0.4175 -0.5452
25361SOL    HW182688   3.626   9.637  10.103  0.3196  0.2508 -0.7683
25361SOL    HW282689   3.518   9.713  10.029 -0.9110  0.6444  1.3698
25362SOL     OW82690   5.739   8.452   5.019  0.3168  0.3820 -0.2119
25362SOL    HW182691   5.776   8.481   5.102  0.2763 -1.3023  0.4252
25362SOL    HW282692   5.713   8.533   4.975 -0.2082  1.2927  1.6605
25363SOL     OW82693   6.164   8.361   7.882 -0.3378  0.1148 -0.0544
25363SOL    HW182694   6.244   8.323   7.917 -1.4248  0.6048  3.3160
25363SOL    HW282695   6.168   8.453   7.908 -1.2885  0.5024 -1.2098
25364SOL     OW82696   7.559   4.043   0.706  0.5261 -0.4722 -0.4585
25364SOL    HW182697   7.631   4.091   0.665  0.1302  0.5444 -0.0171
25364SOL    HW282698   7.534   3.977   0.642 -0.9883  1.9130 -2.4887
25365SOL     OW82699   4.996   2.061   3.636  0.6348  0.4962 -0.4455
25365SOL    HW182700   5.032   2.095   3.554 -1.3536  1.2581 -1.0738
25365SOL    HW282701   5.032   2.117   3.704  2.2057 -0.0627 -0.7709
25366SOL     OW82702   6.198   7.974   5.702  0.1275 -0.1225  0.2788
25366SOL    HW182703   6.195   8.036   5.775  0.2005 -0.0288  0.2029
25366SOL    HW282704   6.133   7.907   5.725  0.5084 -0.3597  0.6651
25367SOL     OW82705  12.784   7.838   0.207 -0.1332 -0.1829 -0.0192
25367SOL    HW182706  12.719   7.769   0.191  0.6876 -0.8896 -0.3384
25367SOL    HW282707  12.746   7.889   0.279 -1.1194 -0.4819 -0.3026
25368SOL     OW82708   1.664   8.519   8.660  0.2938 -0.3213  0.4394
25368SOL    HW182709   1.622   8.483   8.737 -0.2009  2.6039  1.6890
25368SOL    HW282710   1.698   8.604   8.689  3.2251 -0.5992 -1.6694
25369SOL     OW82711   9.709   3.435   2.541 -0.4828  0.2509  0.3266
25369SOL    HW182712   9.798   3.453   2.570 -0.5521  1.6374 -0.2378
25369SOL    HW282713   9.717   3.360   2.482  0.6660  1.6468 -1.4082
25370SOL     OW82714   4.177   0.283   6.558 -0.2173 -0.2885  0.2885
25370SOL    HW182715   4.143   0.209   6.508 -1.1543 -0.1891  0.7636
25370SOL    HW282716   4.268   0.260   6.576 -0.5525 -1.4336  0.6052
25371SOL     OW82717   5.834   1.508   1.474  0.6902 -0.0397  0.3433
25371SOL    HW182718   5.865   1.525   1.385 -0.7411  1.2007  0.0387
25371SOL    HW282719   5.760   1.448   1.464 -1.3649  2.3253  0.3227
25372SOL     OW82720  11.854   4.571   4.143  0.0810  0.6083 -0.1579
25372SOL    HW182721  11.813   4.655   4.121  0.5491  0.5280 -1.4437
25372SOL    HW282722  11.907   4.550   4.066 -1.1909 -1.5928 -0.5430
25373SOL     OW82723   1.515   6.631   1.084 -0.3301 -0.5588  0.1452
25373SOL    HW182724   1.531   6.544   1.048 -0.1496 -0.3465 -0.2956
25373SOL    HW282725   1.493   6.685   1.008 -2.8754 -0.7410  0.6485
25374SOL     OW82726   8.748  11.136   8.587 -0.9137 -0.2339  0.8180
25374SOL    HW182727   8.763  11.204   8.653 -1.5831  0.6676  0.0767
25374SOL    HW282728   8.836  11.107   8.563 -0.5720  0.8387  0.6934
25375SOL     OW82729   4.123   8.337   6.640 -1.0113  0.4324 -0.0968
25375SOL    HW182730   4.126   8.398   6.566  0.2901  1.5930  0.8478
25375SOL    HW282731   4.115   8.393   6.717  0.2453 -0.5814  0.8145
25376SOL     OW82732   0.344   7.952   3.797  0.3718  0.0278  0.6120
25376SOL    HW182733   0.249   7.958   3.794  0.3637  0.3733  1.2119
25376SOL    HW282734   0.374   8.043   3.788  0.6780 -0.1519 -0.2916
25377SOL     OW82735   3.291   7.324   0.874  0.3305  0.6750 -0.4767
25377SOL    HW182736   3.238   7.393   0.915  2.1108  1.1817  1.0876
25377SOL    HW282737   3.276   7.247   0.928 -0.5163  0.1726 -1.3773
25378SOL     OW82738   6.397  10.373   4.789 -0.1512 -0.4205  0.4893
25378SOL    HW182739   6.350  10.411   4.863 -0.9971  0.2735 -0.3811
25378SOL    HW282740   6.401  10.443   4.724  2.6430 -0.2543  0.7352
25379SOL     OW82741  12.614   5.413   6.206  0.3189 -0.4119  0.2042
25379SOL    HW182742  12.621   5.476   6.278 -1.5373 -0.2124  0.2617
25379SOL    HW282743  12.616   5.467   6.126 -0.6256 -0.3038  0.2349
25380SOL     OW82744   4.702   1.893   2.916 -0.0005 -0.1704  0.0220
25380SOL    HW182745   4.682   1.856   3.001  1.1106 -0.1176  0.3211
25380SOL    HW282746   4.675   1.985   2.923  1.1990  0.1446  0.7426
25381SOL     OW82747   1.032  10.098   2.163  0.2389  0.3476  0.0767
25381SOL    HW182748   0.937  10.109   2.170  0.5857  2.9552  2.8100
25381SOL    HW282749   1.064  10.181   2.130  1.6359 -0.2800 -0.2040
25382SOL     OW82750   6.324   9.047   3.092 -0.0082  0.1969 -0.5499
25382SOL    HW182751   6.293   9.108   3.025  1.5526  0.6889 -0.8794
25382SOL    HW282752   6.278   8.965   3.073 -0.6928  0.7448 -1.3104
25383SOL     OW82753  10.639  10.460   2.595 -0.1738  0.3801  0.1411
25383SOL    HW182754  10.598  10.545   2.611  2.1123  1.6812 -0.5419
25383SOL    HW282755  10.592  10.400   2.653  0.2826  2.7378  3.1998
25384SOL     OW82756   2.896   4.768   8.990  0.6030  0.7140 -0.0502
25384SOL    HW182757   2.971   4.798   8.939  2.4311 -1.7416  1.0249
25384SOL    HW282758   2.838   4.727   8.926  1.1861  0.7663 -0.6265
25385SOL     OW82759   4.206   7.861   7.383  0.5543  0.9032  0.1201
25385SOL    HW182760   4.239   7.797   7.446 -2.4726 -1.1729 -0.1997
25385SOL    HW282761   4.174   7.808   7.309 -0.9315  2.8513 -0.7310
25386SOL     OW82762   8.516   8.060   2.823 -0.6683  0.0209  0.1259
25386SOL    HW182763   8.525   7.989   2.886  0.3742  1.6198  1.8718
25386SOL    HW282764   8.430   8.098   2.843 -0.4313  0.3907  0.4607
25387SOL     OW82765   2.344   0.747   5.589 -0.4544 -0.2163  0.3087
25387SOL    HW182766   2.261   0.702   5.607 -0.3218  0.1837  2.0970
25387SOL    HW282767   2.408   0.676   5.578 -0.8245 -0.4992 -0.0794
25388SOL     OW82768   5.839   2.242  11.182 -0.4236 -0.3704 -0.8636
25388SOL    HW182769   5.877   2.316  11.134 -0.9798  0.1863 -0.4666
25388SOL    HW282770   5.876   2.165  11.141  1.5091  0.1517 -0.1867
25389SOL     OW82771   3.726  12.367   6.693 -0.1512 -0.2230  0.3915
25389SOL    HW182772   3.792  12.368   6.762  0.4218  1.2118 -0.1412
25389SOL    HW282773   3.755  12.433   6.630 -0.8054 -1.2895 -1.1023
25390SOL     OW82774  10.616   7.310   4.453  0.5031  1.0522 -0.2412
25390SOL    HW182775  10.535   7.329   4.406  0.2223  1.3454  0.3489
25390SOL    HW282776  10.660   7.244   4.399 -0.6270  0.0794 -0.0354
25391SOL     OW82777  10.411   3.974   2.032  0.0867 -0.3756  0.0327
25391SOL    HW182778  10.325   3.996   1.995 -0.3423 -2.0349 -0.0097
25391SOL    HW282779  10.472   3.982   1.959 -0.1692 -0.0562 -0.1465
25392SOL     OW82780   0.376   4.954   7.559 -0.3771 -0.0088 -0.4180
25392SOL    HW182781   0.466   4.985   7.547 -0.0827  0.6495  2.7339
25392SOL    HW282782   0.343   4.943   7.470  2.5413  0.4834 -1.6843
25393SOL     OW82783   5.340   0.785   6.883  0.2748 -0.0245 -0.7540
25393SOL    HW182784   5.299   0.818   6.803  0.0556  0.4244 -0.4559
25393SOL    HW282785   5.300   0.698   6.895  0.5241 -0.2197 -1.2880
25394SOL     OW82786  11.896   2.011  10.572 -0.2026 -0.9136  0.5854
25394SOL    HW182787  11.975   1.969  10.604 -0.6902 -3.0833 -0.7961
25394SOL    HW282788  11.875   1.963  10.491 -1.4564  1.3312 -0.5177
25395SOL     OW82789   4.708   9.578   4.209 -0.4458  0.4019  0.3096
25395SOL    HW182790   4.753   9.523   4.273  0.3537 -0.3141 -0.8250
25395SOL    HW282791   4.730   9.668   4.235 -1.4872  0.2058  1.9743
25396SOL     OW82792   8.759   9.557   5.630 -0.1877  0.2002 -0.9928
25396SOL    HW182793   8.699   9.501   5.679  0.7864  0.1856  0.2294
25396SOL    HW282794   8.812   9.495   5.579  0.7545 -0.0123  0.2058
25397SOL     OW82795   1.842  10.687   3.425  0.2922 -0.0702 -0.2780
25397SOL    HW182796   1.840  10.592   3.412 -1.5975 -0.4435  1.9500
25397SOL    HW282797   1.867  10.723   3.340  1.6441 -2.5627 -1.0244
25398SOL     OW82798   3.467   6.378   8.797 -0.0279  0.1495  0.7349
25398SOL    HW182799   3.391   6.433   8.817  0.0636  1.4879 -2.0083
25398SOL    HW282800   3.492   6.405   8.708  2.7055 -1.3617  0.9532
25399SOL     OW82801   7.037  10.129   0.836  0.7778 -0.0184  0.4272
25399SOL    HW182802   6.977  10.157   0.906  0.6438 -0.2489  0.4030
25399SOL    HW282803   7.093  10.206   0.821  1.0579 -0.0973  1.0533
25400SOL     OW82804   6.013  12.451   4.895 -0.1270  0.2793  0.1678
25400SOL    HW182805   5.950  12.379   4.890  0.1983  0.0523 -0.9733
25400SOL    HW282806   6.098  12.408   4.892  0.0729  0.7093 -0.9830
25401SOL     OW82807   9.389   0.218   3.595 -0.2515 -0.6754  0.1099
25401SOL    HW182808   9.453   0.157   3.632 -0.8001 -1.1985  0.2147
25401SOL    HW282809   9.435   0.302   3.591 -0.2707 -0.5178  2.2797
25402SOL     OW82810   1.452   0.664   1.985 -0.3610  0.4622 -0.4851
25402SOL    HW182811   1.408   0.593   2.032 -0.0174  0.7621  0.3042
25402SOL    HW282812   1.526   0.687   2.041 -0.7070  1.7341 -0.5263
25403SOL     OW82813   7.432   0.518   5.097  0.2201  0.4618 -0.3833
25403SOL    HW182814   7.416   0.532   5.190 -0.0074  0.5639 -0.4357
25403SOL    HW282815   7.376   0.583   5.053 -0.0254  0.1035 -0.6017
25404SOL     OW82816   2.683  10.457   5.539  0.9167 -0.6135 -0.2094
25404SOL    HW182817   2.592  10.483   5.526  0.8282 -1.2809 -0.9664
25404SOL    HW282818   2.734  10.535   5.514  0.5742 -0.3660 -0.1470
25405SOL     OW82819  11.509  10.074   3.042 -0.0321  0.9424 -0.4675
25405SOL    HW182820  11.587  10.101   3.091 -0.1581  1.3886 -0.5128
25405SOL    HW282821  11.533   9.990   3.004  0.3151  0.9254 -0.2162
25406SOL     OW82822  11.348   3.362   5.207 -0.4406 -0.2878 -0.9351
25406SOL    HW182823  11.285   3.412   5.155 -0.5497  0.1354 -0.4086
25406SOL    HW282824  11.381   3.425   5.272  0.1379 -0.6457 -0.8755
25407SOL     OW82825   7.179  10.852   0.944  0.4312 -0.2517 -0.1126
25407SOL    HW182826   7.185  10.932   0.996 -0.0600 -0.4522  0.2619
25407SOL    HW282827   7.269  10.821   0.937  0.5551  0.0198  0.2469
25408SOL     OW82828   6.138  10.425   5.998 -0.0821  0.2886 -0.5285
25408SOL    HW182829   6.116  10.336   5.973 -1.2001  0.2145  0.6695
25408SOL    HW282830   6.229  10.420   6.029 -0.6842 -0.7853  1.1649
25409SOL     OW82831   5.457   4.506   1.420 -0.3829 -0.5391  0.2932
25409SOL    HW182832   5.454   4.584   1.476  1.2728 -1.6887  2.1709
25409SOL    HW282833   5.385   4.451   1.451  0.4353 -1.1050  1.2792
25410SOL     OW82834  10.311  10.308  11.620  0.1214  0.9147  0.1804
25410SOL    HW182835  10.265  10.286  11.701  0.0722  0.4154  0.0210
25410SOL    HW282836  10.340  10.398  11.632  1.5194  0.3332  1.4256
25411SOL     OW82837   0.537   6.289  10.598  0.0992  0.1324  0.1064
25411SOL    HW182838   0.562   6.234  10.673 -0.3545 -0.8567 -0.4446
25411SOL    HW282839   0.606   6.275  10.534  0.7295  1.3398  0.4910
25412SOL     OW82840   2.058  10.684  11.719 -0.3461 -0.3659  1.2897
25412SOL    HW182841   2.028  10.740  11.790 -1.8665 -0.5944  0.8779
25412SOL    HW282842   2.152  10.699  11.714 -0.5968  1.6149  1.6413
25413SOL     OW82843  10.519   5.426   0.348 -0.0861 -0.3742 -0.2193
25413SOL    HW182844  10.440   5.461   0.390 -0.1698 -0.3409 -0.4080
25413SOL    HW282845  10.584   5.495   0.361 -0.5104  0.2863 -1.4400
25414SOL     OW82846   7.868   0.465   0.338 -0.2180  0.3432 -0.1064
25414SOL    HW182847   7.944   0.437   0.390 -0.0361  0.0617 -0.5148
25414SOL    HW282848   7.822   0.384   0.317 -0.5920  0.5077  0.0771
25415SOL     OW82849  12.520  12.644   5.972  0.4809 -0.7289 -0.2011
25415SOL    HW182850  12.520  12.732   5.935 -0.3484 -0.5206  0.2626
25415SOL    HW282851  12.458  12.595   5.918  1.3388 -1.1926 -0.7963
25416SOL     OW82852  12.601   5.646   3.534  0.6044 -0.0683  0.2089
25416SOL    HW182853  12.609   5.712   3.602 -2.0493  0.2511  0.3157
25416SOL    HW282854  12.604   5.563   3.580  1.6363  0.0306  0.3450
25417SOL     OW82855  10.526   8.412   7.483 -0.0189 -0.5541  0.1604
25417SOL    HW182856  10.518   8.316   7.483 -0.5751 -0.5142 -0.8322
25417SOL    HW282857  10.437   8.444   7.469  0.2109  0.1039  0.1729
25418SOL     OW82858   8.075   8.808   2.356 -0.3483 -0.4282 -0.4213
25418SOL    HW182859   8.062   8.723   2.397 -0.1622 -0.8111 -1.1403
25418SOL    HW282860   8.165   8.833   2.379 -0.0094 -0.9589 -1.1685
25419SOL     OW82861   5.511   4.918   5.495 -0.3672  0.1141  0.5583
25419SOL    HW182862   5.570   4.913   5.419  0.0586  2.3847  0.6677
25419SOL    HW282863   5.426   4.941   5.457 -0.5061 -0.2192  0.6619
25420SOL     OW82864  11.532  12.598   6.114 -0.1946 -0.5712  0.2672
25420SOL    HW182865  11.482  12.523   6.084 -0.8982  0.3561 -0.9978
25420SOL    HW282866  11.603  12.607   6.049  0.6578 -0.8975  1.1309
25421SOL     OW82867  10.771   7.719  12.698 -0.5294  0.4267  0.1105
25421SOL    HW182868  10.771   7.813  12.681 -1.9085  0.7456  1.6423
25421SOL    HW282869  10.688   7.703  12.742 -0.1977 -1.4825  0.1170
25422SOL     OW82870   1.957  11.399   5.617 -0.2763 -0.4198 -0.5633
25422SOL    HW182871   1.899  11.469   5.588  0.4525 -0.0332 -1.1190
25422SOL    HW282872   1.954  11.404   5.713  2.6497  2.8784 -0.4697
25423SOL     OW82873   5.248   9.599   8.779  0.5490  0.0215  0.2695
25423SOL    HW182874   5.276   9.516   8.741  1.9486  0.1463  0.9499
25423SOL    HW282875   5.165   9.579   8.823  1.2289 -1.2085  1.0349
25424SOL     OW82876   9.195   0.037   8.484 -0.0039  0.2640 -0.2804
25424SOL    HW182877   9.244  -0.021   8.425 -0.6892  1.0611 -1.7086
25424SOL    HW282878   9.161   0.105   8.426 -0.3102  1.3654  1.1470
25425SOL     OW82879   7.389  11.478   7.361 -0.3460 -0.1859 -0.1511
25425SOL    HW182880   7.299  11.464   7.391  0.0183 -0.2792  0.9487
25425SOL    HW282881   7.437  11.402   7.393  0.0580 -0.3215 -1.0565
25426SOL     OW82882  11.923   8.007   0.611 -0.0837  0.1743 -0.6947
25426SOL    HW182883  11.969   8.028   0.692 -0.6073 -1.2168 -0.0005
25426SOL    HW282884  11.835   8.044   0.623 -0.7296 -1.5638  0.1593
25427SOL     OW82885  10.302   0.022  10.055  0.4585 -0.1061  0.5447
25427SOL    HW182886  10.277  -0.067  10.082 -0.6240 -0.0872 -0.3133
25427SOL    HW282887  10.232   0.078  10.089  0.4544  0.2431 -0.0223
25428SOL     OW82888  11.760   3.494   1.276 -0.0632 -0.7969  0.0201
25428SOL    HW182889  11.750   3.578   1.231  0.8882 -0.5935  0.1704
25428SOL    HW282890  11.821   3.512   1.348 -0.9952 -1.2817  0.9542
25429SOL     OW82891   8.940   6.122   3.564  0.1778  0.2637  0.3073
25429SOL    HW182892   8.850   6.089   3.569 -0.6529  2.2841 -0.5454
25429SOL    HW282893   8.989   6.066   3.625 -1.7383 -0.5382  1.1874
25430SOL     OW82894   7.296   4.622   4.112 -0.2343  0.0323 -0.2231
25430SOL    HW182895   7.224   4.684   4.101 -0.8586 -0.4901  0.7527
25430SOL    HW282896   7.372   4.677   4.133 -0.6840  0.5056  0.1996
25431SOL     OW82897   4.871   9.694   0.550 -0.3605  0.2940 -0.6088
25431SOL    HW182898   4.833   9.748   0.619  1.1421  0.9083 -0.2124
25431SOL    HW282899   4.797   9.667   0.497 -1.4368  0.6366  0.6727
25432SOL     OW82900   0.450   3.522   1.242 -0.3334  0.4204  0.1106
25432SOL    HW182901   0.410   3.533   1.156 -1.6159  0.3758  0.6900
25432SOL    HW282902   0.483   3.432   1.241 -1.3290  0.0429  0.0551
25433SOL     OW82903   6.263   5.046   5.622  0.4278 -0.1624  0.7258
25433SOL    HW182904   6.325   5.117   5.607  0.1593  0.4454  2.2861
25433SOL    HW282905   6.310   4.983   5.676  0.0493 -0.2425  0.9687
25434SOL     OW82906   9.606   5.414   2.761  0.4060  0.2061 -0.2369
25434SOL    HW182907   9.614   5.501   2.800  0.1814  0.6809 -1.2115
25434SOL    HW282908   9.553   5.364   2.824 -1.4968  1.4868 -0.7491
25435SOL     OW82909   2.047   7.892   9.771  0.1418  0.5269  0.2074
25435SOL    HW182910   2.092   7.907   9.688 -2.2096 -0.0377 -1.2800
25435SOL    HW282911   2.053   7.975   9.818 -1.2407  1.9465 -1.9938
25436SOL     OW82912   1.234  11.420   5.284  0.0760  0.2033  0.5694
25436SOL    HW182913   1.292  11.361   5.237 -1.0499  0.4321 -1.2064
25436SOL    HW282914   1.252  11.506   5.245 -1.5393  0.2455 -0.1742
25437SOL     OW82915   8.522   4.984   2.415 -0.4361 -0.1619 -0.3398
25437SOL    HW182916   8.565   4.941   2.342 -1.4629  1.5314 -2.0434
25437SOL    HW282917   8.582   4.972   2.489  0.8655 -1.5125 -1.5467
25438SOL     OW82918   3.323   2.123   3.446  0.3834  0.0892 -0.3463
25438SOL    HW182919   3.332   2.049   3.385 -0.5957 -1.0360  0.8163
25438SOL    HW282920   3.259   2.093   3.510 -0.4562  2.1807 -0.1300
25439SOL     OW82921  10.080   1.638   4.146  0.4019 -0.3108 -0.4808
25439SOL    HW182922  10.012   1.683   4.197  0.1026 -1.2714 -0.0123
25439SOL    HW282923  10.155   1.698   4.147  0.1640 -0.0199  0.5310
25440SOL     OW82924   4.462   4.921   9.023  0.0836  0.0053 -0.0311
25440SOL    HW182925   4.452   5.015   9.013  0.9430  0.0837 -0.2873
25440SOL    HW282926   4.486   4.891   8.935  0.9772 -0.2789  0.2963
25441SOL     OW82927   1.014   2.377   0.182 -0.3332  0.1731  0.0698
25441SOL    HW182928   1.103   2.397   0.154 -1.3731  2.7329 -1.8853
25441SOL    HW282929   1.023   2.348   0.273  2.4790  0.0464 -0.1675
25442SOL     OW82930  10.953   4.770  10.768  0.0412 -0.1541 -0.2839
25442SOL    HW182931  11.018   4.811  10.825  1.5457  0.6598 -2.4118
25442SOL    HW282932  11.002   4.752  10.687 -2.2143 -0.1839 -1.7247
25443SOL     OW82933  10.371   6.702   0.908 -0.0882 -0.3506  0.2567
25443SOL    HW182934  10.441   6.751   0.867 -0.1723  0.8683  1.5110
25443SOL    HW282935  10.399   6.690   0.999 -0.8567 -1.1069  0.4143
25444SOL     OW82936  10.979   6.661   2.080  0.1116  0.0929 -0.1669
25444SOL    HW182937  10.941   6.577   2.105  2.6308 -0.9196  0.5882
25444SOL    HW282938  10.962   6.668   1.986 -1.9910 -0.1790  0.1519
25445SOL     OW82939   5.150   1.502  11.097  0.2481  0.0751 -0.6051
25445SOL    HW182940   5.109   1.417  11.081 -1.1739  0.6512 -0.1245
25445SOL    HW282941   5.179   1.497  11.188  0.4847 -0.0208 -0.6852
25446SOL     OW82942   9.285   1.181   4.517  0.2203 -0.1862 -0.7863
25446SOL    HW182943   9.301   1.180   4.422 -0.7231  1.0140 -0.9842
25446SOL    HW282944   9.372   1.194   4.555  0.6189 -0.7421 -1.4713
25447SOL     OW82945   6.459   5.663   9.684  0.2475 -0.2011 -0.8083
25447SOL    HW182946   6.551   5.664   9.711 -0.0069 -0.5299  0.1331
25447SOL    HW282947   6.460   5.627   9.596  0.8856 -1.8786 -0.1608
25448SOL     OW82948  12.711   6.773   3.721  0.1670 -0.1431  0.4561
25448SOL    HW182949  12.688   6.778   3.629 -0.4866  0.7128  0.6553
25448SOL    HW282950  12.639   6.724   3.762 -0.9299  1.7990  0.9379
25449SOL     OW82951   4.128   0.869   9.496  0.2435  0.7008  0.2239
25449SOL    HW182952   4.158   0.901   9.581 -0.3430  0.7985  0.4019
25449SOL    HW282953   4.110   0.776   9.511  0.3166  0.6755  0.1560
25450SOL     OW82954   8.831   0.041   1.493  0.9716  0.2769  0.5666
25450SOL    HW182955   8.756   0.097   1.477 -0.1196 -0.6386  2.2496
25450SOL    HW282956   8.883   0.047   1.412 -1.9860 -0.7769 -1.5785
25451SOL     OW82957   9.980  10.874   1.996  0.1744 -0.0137  0.2852
25451SOL    HW182958  10.008  10.792   1.957  0.2651  0.3422 -0.4019
25451SOL    HW282959  10.020  10.942   1.942 -1.5211  0.5114 -0.3710
25452SOL     OW82960  10.560  11.218   4.734 -0.3835  0.0252  0.4246
25452SOL    HW182961  10.618  11.283   4.694  0.6996 -2.1787 -1.9208
25452SOL    HW282962  10.619  11.161   4.784 -1.0706 -0.0832  1.1272
25453SOL     OW82963   4.925   8.146  11.653  0.0149 -0.4325  0.8552
25453SOL    HW182964   4.886   8.201  11.720 -0.3273 -0.0404  0.3391
25453SOL    HW282965   5.019   8.165  11.658 -0.2757  1.7029 -0.6254
25454SOL     OW82966   3.943   5.903   0.906 -0.0546  0.0103  0.5109
25454SOL    HW182967   3.988   5.942   0.831  0.2040  0.0886  0.7067
25454SOL    HW282968   3.884   5.838   0.867  0.9572 -0.8099  0.3303
25455SOL     OW82969   2.761   1.378   1.140 -0.3214 -0.1098  0.3627
25455SOL    HW182970   2.685   1.354   1.194 -1.6141  1.6227 -0.5751
25455SOL    HW282971   2.728   1.375   1.050  0.1940  2.2281  0.0292
25456SOL     OW82972   5.135   4.756   3.106 -0.2847  0.0930 -0.6312
25456SOL    HW182973   5.107   4.690   3.041 -0.9191  0.8320 -1.1259
25456SOL    HW282974   5.064   4.758   3.170  0.9029 -1.5353  0.8188
25457SOL     OW82975   6.703   9.621   6.098 -0.5140  0.4989 -0.1684
25457SOL    HW182976   6.685   9.691   6.160 -3.0731 -1.3449  1.3524
25457SOL    HW282977   6.617   9.586   6.075  0.6006 -1.3833 -1.7798
25458SOL     OW82978  11.511   7.443   7.954 -0.0593  0.2612  0.1791
25458SOL    HW182979  11.437   7.382   7.953 -0.1255  0.3412 -0.1409
25458SOL    HW282980  11.584   7.391   7.986 -0.2330  0.1533  0.4023
25459SOL     OW82981  12.564   4.777   1.564 -0.4309  0.2344  0.2315
25459SOL    HW182982  12.588   4.864   1.529  0.0296 -0.5578 -1.5603
25459SOL    HW282983  12.516   4.736   1.492  0.9422 -1.6814  0.3642
25460SOL     OW82984   1.835   6.087   3.762 -0.7037 -0.1417  0.0685
25460SOL    HW182985   1.825   6.133   3.679  1.9758 -1.2208 -0.9787
25460SOL    HW282986   1.841   6.157   3.827  1.6109  1.0552 -1.2768
25461SOL     OW82987  11.333   7.374  10.686  0.1938  0.1051  0.1250
25461SOL    HW182988  11.287   7.291  10.689  1.1405 -0.4355  0.0501
25461SOL    HW282989  11.315   7.409  10.599  0.4821 -0.4284 -0.1517
25462SOL     OW82990   3.696   1.080  12.772 -0.3880  0.0926 -0.1449
25462SOL    HW182991   3.647   1.012  12.726 -0.4094  0.1299 -0.1779
25462SOL    HW282992   3.729   1.038  12.851  1.6439 -0.6800 -1.3072
25463SOL     OW82993   0.761   1.363   6.078  0.6474 -0.3330  0.8046
25463SOL    HW182994   0.673   1.384   6.048  0.4359 -1.4677  0.5931
25463SOL    HW282995   0.819   1.410   6.017  0.2358 -2.6572 -1.5555
25464SOL     OW82996   2.597   4.621   5.689  0.3568 -0.3090  0.2826
25464SOL    HW182997   2.547   4.691   5.648  0.2034 -0.8151 -0.4279
25464SOL    HW282998   2.686   4.656   5.698  0.0068  0.4150  1.0931
25465SOL     OW82999   0.586   6.491  11.487 -0.3093  0.2939  0.3680
25465SOL    HW183000   0.554   6.508  11.399  1.2299  0.1809 -0.2435
25465SOL    HW283001   0.594   6.396  11.492  0.0246  0.3239  0.4584
25466SOL     OW83002   8.712   1.503   1.991 -0.5715  0.5428  0.2641
25466SOL    HW183003   8.704   1.415   2.027 -0.2673  0.6083  0.4988
25466SOL    HW283004   8.784   1.495   1.927 -0.1348  0.7580  0.7249
25467SOL     OW83005  10.957   1.851   3.944 -0.1722  0.8841  0.8403
25467SOL    HW183006  10.929   1.848   4.035 -2.7237 -0.4678  0.1068
25467SOL    HW283007  10.908   1.924   3.907  0.4819  1.1197  0.4233
25468SOL     OW83008  10.589   8.307   4.182  0.2246  0.9537 -0.2577
25468SOL    HW183009  10.621   8.292   4.093 -0.8048  0.2034 -0.5252
25468SOL    HW283010  10.575   8.219   4.218 -2.0199  1.2054 -0.3674
25469SOL     OW83011  12.455  11.088   9.176  0.5515 -0.8228 -0.0968
25469SOL    HW183012  12.491  11.164   9.131 -1.2432  0.8032  1.0498
25469SOL    HW283013  12.376  11.066   9.127 -0.0058 -0.6748  0.7172
25470SOL     OW83014   4.317   0.141   8.446 -0.1045  0.5022 -0.1485
25470SOL    HW183015   4.315   0.195   8.525  0.5704  1.3029 -0.6600
25470SOL    HW283016   4.236   0.089   8.450  0.4104 -0.2446  1.5752
25471SOL     OW83017   6.129   0.828  12.150 -0.0147  0.1883 -0.0861
25471SOL    HW183018   6.167   0.741  12.139 -0.8293 -0.1763 -0.0231
25471SOL    HW283019   6.205   0.885  12.168  0.5176 -0.4998 -0.1271
25472SOL     OW83020   0.242   1.970   7.626 -0.1539 -0.2324 -0.2679
25472SOL    HW183021   0.330   1.934   7.612 -0.7369 -2.0287  0.4474
25472SOL    HW283022   0.230   1.969   7.721 -1.1963 -0.7024 -0.3862
25473SOL     OW83023   8.162   6.839   6.841 -0.7867  0.0465 -0.1853
25473SOL    HW183024   8.068   6.819   6.842 -1.0175  0.9844  1.6202
25473SOL    HW283025   8.193   6.805   6.757 -2.1867 -2.7331  0.2931
25474SOL     OW83026   8.084   3.325   3.926  0.6681 -0.4196  0.6170
25474SOL    HW183027   8.145   3.346   3.856  1.1438 -2.1940  0.4364
25474SOL    HW283028   7.999   3.319   3.882  0.3323  1.8797  0.8389
25475SOL     OW83029   1.692   9.575   4.504 -0.3961 -0.2022 -0.0674
25475SOL    HW183030   1.776   9.608   4.537  0.2182  0.1205 -1.8678
25475SOL    HW283031   1.659   9.644   4.447 -2.1172 -0.1665  0.8932
25476SOL     OW83032   8.448   9.100   3.088  0.0239 -0.1845 -0.6327
25476SOL    HW183033   8.410   9.126   3.004 -0.5710 -1.6422 -0.8444
25476SOL    HW283034   8.404   9.018   3.110  0.0062  0.2618  1.2215
25477SOL     OW83035   8.966   3.524   6.751  0.5017 -0.1675 -0.6871
25477SOL    HW183036   9.022   3.458   6.709  0.1275 -0.4382 -0.7600
25477SOL    HW283037   9.022   3.601   6.757  1.1005 -0.6266 -0.1742
25478SOL     OW83038   2.832   6.454   9.808  0.4105  0.4984 -0.0004
25478SOL    HW183039   2.743   6.420   9.799  0.3540  0.5966  0.1865
25478SOL    HW283040   2.886   6.392   9.759  0.3003  0.1643  0.2954
25479SOL     OW83041   3.846   3.840   8.947  0.3343  0.1632 -0.1207
25479SOL    HW183042   3.834   3.909   9.012  0.4716 -0.2990  0.3924
25479SOL    HW283043   3.756   3.818   8.920  0.1966 -0.6731  0.9877
25480SOL     OW83044   3.237  11.226   8.155  0.3699 -0.3238 -0.0665
25480SOL    HW183045   3.166  11.229   8.091 -1.1279  0.2474  1.5390
25480SOL    HW283046   3.301  11.290   8.124 -0.6864  0.5039 -0.5792
25481SOL     OW83047   3.965   7.639  12.617 -0.1858 -0.0144  0.3461
25481SOL    HW183048   3.997   7.551  12.599  1.7638  0.4335  1.3936
25481SOL    HW283049   3.942   7.673  12.530  3.3936  0.0198 -0.7583
25482SOL     OW83050  10.769   3.688  10.159 -0.2076  0.5381 -0.1908
25482SOL    HW183051  10.746   3.678  10.067  0.7154  3.3841 -0.8338
25482SOL    HW283052  10.847   3.634  10.171  0.1388  0.7611 -1.3162
25483SOL     OW83053   8.596   7.719   1.201 -0.1711  0.5640 -0.0169
25483SOL    HW183054   8.529   7.785   1.219  0.0613  0.8286 -0.1178
25483SOL    HW283055   8.664   7.736   1.265  0.7798  1.6707 -1.2692
25484SOL     OW83056   9.560  11.220   9.418 -0.8093  0.5407 -0.0248
25484SOL    HW183057   9.632  11.230   9.480  0.8221  2.2507 -2.0447
25484SOL    HW283058   9.597  11.168   9.346 -1.9959  0.4012 -0.5597
25485SOL     OW83059  10.861  10.305  12.692 -0.1097  0.2756  0.4731
25485SOL    HW183060  10.772  10.312  12.658  0.0998  0.5282 -0.0298
25485SOL    HW283061  10.911  10.369  12.642  0.8965 -1.6180 -1.0670
25486SOL     OW83062   4.153   4.854   5.991 -0.3201 -0.2873  0.2375
25486SOL    HW183063   4.209   4.930   6.006 -2.0236  0.8248  1.2714
25486SOL    HW283064   4.179   4.823   5.904  0.1775  1.6978 -0.3809
25487SOL     OW83065   5.072   1.671  10.629 -0.8784 -0.2110 -0.0460
25487SOL    HW183066   5.092   1.618  10.552 -1.4445 -1.2652  0.5076
25487SOL    HW283067   5.013   1.617  10.681  0.7783 -0.2405  1.9460
25488SOL     OW83068  12.162   5.922  12.076  0.0534  0.4899 -0.1833
25488SOL    HW183069  12.246   5.876  12.086 -0.9205 -1.3034  0.2032
25488SOL    HW283070  12.101   5.872  12.129 -1.1296  2.2223  0.1564
25489SOL     OW83071   1.952   3.837   3.041  0.3700  0.4183 -0.0085
25489SOL    HW183072   1.988   3.921   3.014  0.5035  0.1674 -0.6372
25489SOL    HW283073   2.028   3.778   3.041  0.4975  0.5316  1.5125
25490SOL     OW83074   9.071  10.446   3.097  0.2802 -0.9186 -0.0992
25490SOL    HW183075   9.087  10.384   3.026  0.4308 -1.8681  0.7241
25490SOL    HW283076   9.158  10.475   3.124  0.1587  1.9375 -2.3408
25491SOL     OW83077   3.599   8.160   7.562 -0.4245 -0.3558 -0.0500
25491SOL    HW183078   3.541   8.104   7.614  1.6387 -0.8349  1.8703
25491SOL    HW283079   3.625   8.230   7.621 -0.4305  0.8646 -1.4427
25492SOL     OW83080   7.469   5.404   4.834  0.4499 -0.0060 -0.2539
25492SOL    HW183081   7.449   5.463   4.907 -0.3361  1.6997 -1.7488
25492SOL    HW283082   7.395   5.344   4.830  0.1871  0.2984 -0.0136
25493SOL     OW83083   8.554  12.190   4.270  0.8614  0.0124  0.0011
25493SOL    HW183084   8.577  12.283   4.270  1.1625 -0.0563 -0.6853
25493SOL    HW283085   8.562  12.163   4.362 -0.5560  0.9715  0.4336
25494SOL     OW83086  11.436   5.763   1.694 -0.2664  0.1690  0.3410
25494SOL    HW183087  11.347   5.778   1.724 -0.7903 -2.3276  0.2189
25494SOL    HW283088  11.465   5.685   1.742  1.2843  0.0170 -0.7555
25495SOL     OW83089  12.631  12.529   0.923 -0.5482  0.1395  0.0706
25495SOL    HW183090  12.640  12.586   0.999  0.2736 -0.1119  0.1759
25495SOL    HW283091  12.553  12.561   0.878 -1.3603 -0.0621  1.3082
25496SOL     OW83092   4.450   5.773   0.069 -0.0867 -0.2591  0.1421
25496SOL    HW183093   4.503   5.820   0.005  1.9728 -0.5251  1.5688
25496SOL    HW283094   4.421   5.841   0.130 -0.2860 -0.3059  0.0996
25497SOL     OW83095   0.062   1.884   0.310  0.1447 -0.8966  0.5267
25497SOL    HW183096   0.153   1.868   0.333  0.7868  1.6435  0.1494
25497SOL    HW283097   0.040   1.966   0.356 -2.1288 -1.7029  1.0128
25498SOL     OW83098   2.329   6.195  11.359 -0.0581 -0.0641  0.0318
25498SOL    HW183099   2.299   6.239  11.279 -0.5659 -1.0480 -0.3300
25498SOL    HW283100   2.296   6.106  11.351  0.3030 -0.3042  1.1217
25499SOL     OW83101   4.683  12.362   2.208 -0.1839 -0.2534  0.1462
25499SOL    HW183102   4.605  12.330   2.163  0.3045  0.2309 -1.0730
25499SOL    HW283103   4.654  12.444   2.250 -0.5087 -0.4498  0.3143
25500SOL     OW83104   8.820   4.944   0.311 -0.1928  0.6118 -0.4036
25500SOL    HW183105   8.816   4.912   0.221  1.1750 -0.3679 -0.1468
25500SOL    HW283106   8.755   4.892   0.358  0.3073 -0.0838 -0.4819
25501SOL     OW83107   1.552   5.405   9.762 -0.2318  0.0462 -0.4998
25501SOL    HW183108   1.510   5.321   9.781 -1.1789  0.5265 -0.4004
25501SOL    HW283109   1.571   5.443   9.848  0.2836 -0.0994 -0.5445
25502SOL     OW83110   1.017   4.831   3.702 -0.2200  0.3626 -0.1547
25502SOL    HW183111   0.948   4.890   3.671 -0.5248 -0.0940 -0.3490
25502SOL    HW283112   1.082   4.889   3.742  0.2164  0.9807 -1.7100
25503SOL     OW83113   1.686   0.265   8.239  0.0835 -0.4645 -0.2713
25503SOL    HW183114   1.753   0.329   8.215 -1.2307  0.7790 -0.7341
25503SOL    HW283115   1.609   0.290   8.188 -0.8395 -1.6726  0.4758
25504SOL     OW83116   4.302   9.483   0.433  0.3009  0.0661  0.0549
25504SOL    HW183117   4.265   9.505   0.519  0.0319 -2.2590  0.5973
25504SOL    HW283118   4.332   9.392   0.442 -1.0397 -0.7587 -2.7205
25505SOL     OW83119   1.789   8.075   8.935 -0.0260 -0.0836 -0.1854
25505SOL    HW183120   1.829   8.039   9.014  1.0682 -0.6292 -0.9671
25505SOL    HW283121   1.861   8.115   8.887 -0.9694  1.9103 -0.0502
25506SOL     OW83122   9.612   7.270   9.483 -0.6330 -0.3015  0.6077
25506SOL    HW183123   9.648   7.338   9.540 -0.0660  0.3680 -0.5127
25506SOL    HW283124   9.525   7.302   9.459 -0.6838 -0.3552  0.7205
25507SOL     OW83125   3.580   2.626   0.470 -0.1054 -0.6329  0.1761
25507SOL    HW183126   3.603   2.700   0.525  1.2966 -0.4694 -0.5582
25507SOL    HW283127   3.530   2.665   0.397  0.6059 -0.3862 -0.1955
25508SOL     OW83128   8.350  11.574  11.382  0.3562  0.4921 -0.1395
25508SOL    HW183129   8.256  11.558  11.373  0.2430  1.5890 -1.1135
25508SOL    HW283130   8.357  11.644  11.447  0.8284 -2.8071  3.7936
25509SOL     OW83131   8.499   6.801   4.607  0.4372 -0.8009 -0.5636
25509SOL    HW183132   8.428   6.806   4.543 -1.7816  0.4107  1.8048
25509SOL    HW283133   8.488   6.878   4.662  2.6249 -1.4271  0.8892
25510SOL     OW83134   9.041  10.799   0.594 -0.1626 -0.1323 -0.0845
25510SOL    HW183135   9.017  10.878   0.546  0.8197 -0.3576 -0.9733
25510SOL    HW283136   8.974  10.735   0.569  0.3103 -0.2288 -1.1207
25511SOL     OW83137   0.857   1.401   6.737  0.2947 -0.2470 -0.7583
25511SOL    HW183138   0.897   1.315   6.726  0.3180 -0.1918 -1.1325
25511SOL    HW283139   0.843   1.410   6.831  1.7128 -0.0193 -0.5542
25512SOL     OW83140  10.008   0.344   7.968  0.3132 -0.0383  0.3832
25512SOL    HW183141  10.010   0.408   7.896  0.5589 -2.1522 -1.6008
25512SOL    HW283142   9.937   0.375   8.025 -1.3331  0.6369 -1.8710
25513SOL     OW83143   4.715   5.511   2.531  0.1497 -0.0068 -0.0729
25513SOL    HW183144   4.782   5.483   2.468  1.6720  1.4279  0.8410
25513SOL    HW283145   4.708   5.605   2.517 -0.6767  0.0656  0.8010
25514SOL     OW83146   5.117   5.509   6.044  0.2978 -0.1408  0.2757
25514SOL    HW183147   5.060   5.586   6.046  0.3210 -0.1059 -0.2988
25514SOL    HW283148   5.057   5.434   6.042  0.1777 -0.0775 -2.7869
25515SOL     OW83149   6.649   2.915   6.455  0.0268 -0.2418 -0.6428
25515SOL    HW183150   6.652   2.880   6.543 -2.3749  0.5743 -0.1352
25515SOL    HW283151   6.737   2.946   6.437  0.0019  2.1904  2.6298
25516SOL     OW83152   5.971   1.627   5.997 -0.3590 -0.1303  0.2832
25516SOL    HW183153   5.996   1.719   6.007 -0.8408 -0.1599  1.9204
25516SOL    HW283154   6.016   1.581   6.068  0.3525 -1.2811 -0.8619
25517SOL     OW83155   0.881   1.103   4.656  0.2661 -0.1773 -0.2717
25517SOL    HW183156   0.850   1.184   4.696 -2.3678 -0.3135 -1.8478
25517SOL    HW283157   0.974   1.119   4.640  0.4163  1.5111  1.7796
25518SOL     OW83158  11.763   3.080   4.424 -0.2199 -0.1582  0.2260
25518SOL    HW183159  11.816   3.127   4.360 -0.9745  1.1821  0.5557
25518SOL    HW283160  11.799   3.106   4.509 -1.9042  1.5101  0.5050
25519SOL     OW83161   9.980   7.781   9.519 -0.2193 -0.0070  0.0932
25519SOL    HW183162  10.054   7.720   9.520  1.0408  1.3359  3.1595
25519SOL    HW283163  10.004   7.848   9.456  0.0226 -0.8057 -0.6894
25520SOL     OW83164   0.198  12.246  10.383 -0.4599 -0.6563  0.1847
25520SOL    HW183165   0.171  12.156  10.401 -1.9474 -0.1626  0.5644
25520SOL    HW283166   0.286  12.252  10.419 -0.8144 -1.6024  1.2799
25521SOL     OW83167   4.799   0.461   7.570 -0.1868 -0.6102  0.7757
25521SOL    HW183168   4.800   0.402   7.495  0.6093 -2.7941  2.4198
25521SOL    HW283169   4.876   0.516   7.559  0.2082 -1.2574  0.2408
25522SOL     OW83170  10.919   0.129  10.015  0.5930  0.5368  0.0501
25522SOL    HW183171  10.879   0.172   9.939 -1.7772 -0.3680  0.6989
25522SOL    HW283172  10.845   0.097  10.066  2.1773 -1.6933  1.1174
25523SOL     OW83173   4.355  10.382  12.112 -0.1568 -0.0821  0.1017
25523SOL    HW183174   4.390  10.369  12.201 -0.2864 -1.0631  0.0176
25523SOL    HW283175   4.310  10.300  12.092 -1.3377  0.6543 -0.3346
25524SOL     OW83176  10.204   7.376  10.711  0.2843  0.2127  0.1997
25524SOL    HW183177  10.166   7.293  10.683 -0.7792  0.2015  1.5853
25524SOL    HW283178  10.289   7.380  10.666 -0.3122 -0.8802 -1.0893
25525SOL     OW83179   0.929   9.769   3.069  0.3208 -0.0263 -0.5443
25525SOL    HW183180   0.909   9.854   3.030 -0.1181 -0.8593 -2.2287
25525SOL    HW283181   0.910   9.706   3.000  2.6540 -1.3640 -0.0725
25526SOL     OW83182   9.652   9.917   6.409  0.0874  0.2714  0.3721
25526SOL    HW183183   9.746   9.907   6.424  0.0668  0.4940  0.6540
25526SOL    HW283184   9.623   9.831   6.379  0.7934  0.7631 -1.9259
25527SOL     OW83185  10.081   2.426   1.473 -0.7001  0.7475  0.6516
25527SOL    HW183186  10.171   2.405   1.445 -0.4004 -0.2509  2.2397
25527SOL    HW283187  10.025   2.373   1.416 -0.1524 -0.4665  1.2029
25528SOL     OW83188   1.691   1.305   7.553  0.9092 -0.0157 -0.0009
25528SOL    HW183189   1.738   1.272   7.477  0.5182 -1.8801  0.5213
25528SOL    HW283190   1.717   1.247   7.625 -1.0081 -0.1768  0.6186
25529SOL     OW83191   4.396  11.293   1.945 -0.1741 -0.7433  0.1002
25529SOL    HW183192   4.467  11.238   1.913  0.6446  0.0167  0.5674
25529SOL    HW283193   4.436  11.347   2.013 -1.6602 -1.7812  1.9002
25530SOL     OW83194   2.927   7.199  11.930 -0.1448  0.0889  0.5214
25530SOL    HW183195   3.000   7.192  11.992  0.4681 -2.4195 -0.3531
25530SOL    HW283196   2.874   7.121  11.946 -2.9927  2.0589  1.4267
25531SOL     OW83197   6.465   8.887   2.054  0.4757 -0.1569 -0.1328
25531SOL    HW183198   6.445   8.821   1.987  1.1952 -0.5773  0.0552
25531SOL    HW283199   6.410   8.863   2.128 -0.0304  0.0769 -0.4238
25532SOL     OW83200   0.980   3.344   0.964  0.2609 -0.0832  0.5236
25532SOL    HW183201   1.063   3.377   0.928  0.4165 -1.2044 -0.1930
25532SOL    HW283202   0.926   3.423   0.975  1.1909  0.5878  0.3896
25533SOL     OW83203  10.227   3.382   0.400 -0.0197 -0.6708 -0.4162
25533SOL    HW183204  10.300   3.351   0.453  0.3454  1.0859  0.1721
25533SOL    HW283205  10.176   3.303   0.381  0.5422 -1.5334  1.4319
25534SOL     OW83206   2.138  10.537   3.749 -0.4841 -0.0776  0.2222
25534SOL    HW183207   2.101  10.503   3.667 -0.4997  0.2914  0.0761
25534SOL    HW283208   2.159  10.628   3.730 -1.9090  0.4614  1.0957
25535SOL     OW83209   9.806   6.999   0.159 -0.0041 -0.7026 -0.1061
25535SOL    HW183210   9.761   7.079   0.131  0.6011 -0.4425 -0.3682
25535SOL    HW283211   9.899   7.018   0.142  0.1634 -1.3672  0.0668
25536SOL     OW83212   5.746   3.765   0.914 -0.0588  0.4571  0.1437
25536SOL    HW183213   5.732   3.845   0.964  0.9904  0.7738 -0.0417
25536SOL    HW283214   5.836   3.739   0.935 -0.2752 -0.4950 -0.0545
25537SOL     OW83215   3.809   1.709   3.971  0.1969  0.1878 -0.0542
25537SOL    HW183216   3.744   1.639   3.967 -0.4993  0.8974 -2.7185
25537SOL    HW283217   3.882   1.671   4.021 -1.6831 -1.0637  1.9036
25538SOL     OW83218  10.501   5.840  12.188  0.4708 -0.0791 -0.2074
25538SOL    HW183219  10.575   5.816  12.132 -0.1042 -1.5305 -0.3875
25538SOL    HW283220  10.520   5.797  12.271  2.3612  3.7163  1.5405
25539SOL     OW83221   9.218   5.059   1.627  0.5138 -0.0516 -0.1597
25539SOL    HW183222   9.130   5.078   1.595  0.5297 -0.0703 -0.2129
25539SOL    HW283223   9.232   5.121   1.699 -0.9027 -2.2833  2.2266
25540SOL     OW83224   4.679   3.220  12.333 -0.6862 -0.3643  0.1313
25540SOL    HW183225   4.724   3.138  12.316  0.2209  0.0090  0.6736
25540SOL    HW283226   4.689   3.271  12.252 -0.1398 -0.2869  0.2468
25541SOL     OW83227  10.043  12.656   8.994  0.3255 -0.1072 -0.2570
25541SOL    HW183228   9.988  12.672   9.071 -0.2851 -1.2303 -0.4417
25541SOL    HW283229  10.016  12.570   8.962  0.6143  0.3126 -1.7013
25542SOL     OW83230   4.888   5.084   5.022  0.0869 -0.6179 -0.2206
25542SOL    HW183231   4.928   5.008   4.979 -1.8046 -2.1517  0.6097
25542SOL    HW283232   4.877   5.058   5.113 -2.2594 -0.0978 -0.2876
25543SOL     OW83233  12.192  10.561  12.127  0.5957  0.2379  0.3150
25543SOL    HW183234  12.168  10.472  12.101 -0.0808  0.2380  0.9106
25543SOL    HW283235  12.126  10.616  12.085 -1.5771  0.1179  3.2603
25544SOL     OW83236   9.663   8.038  12.166  0.4504 -0.5807 -0.2280
25544SOL    HW183237   9.733   7.984  12.129  0.5797  0.6692 -1.9498
25544SOL    HW283238   9.598   8.043  12.096 -0.5810 -0.3187  0.7259
25545SOL     OW83239   4.013  11.955   9.114  0.4181  0.4447  0.4319
25545SOL    HW183240   3.993  12.023   9.050  0.2059 -1.4801 -1.7076
25545SOL    HW283241   3.928  11.917   9.136  0.7149 -1.2784 -1.0664
25546SOL     OW83242   1.430   0.061   0.735  0.6632 -0.2931 -0.1779
25546SOL    HW183243   1.427   0.120   0.660  1.3963  0.5947  0.4733
25546SOL    HW283244   1.500  -0.001   0.715 -0.0645 -0.9346 -0.8320
25547SOL     OW83245   0.244   5.550   7.100  0.0664 -0.2198  0.1581
25547SOL    HW183246   0.313   5.617   7.101 -1.1543  1.0760  0.0063
25547SOL    HW283247   0.252   5.510   7.013 -1.1319  1.8854 -1.0249
25548SOL     OW83248   7.999   5.282  12.023 -0.1610  0.1920  0.4354
25548SOL    HW183249   8.049   5.242  12.093 -1.1040 -0.3862  0.8042
25548SOL    HW283250   8.040   5.367  12.009  0.6669 -0.1076  0.9765
25549SOL     OW83251   6.379   3.186   1.118  0.3182  0.3146  0.0767
25549SOL    HW183252   6.309   3.122   1.132 -0.3484  0.7646 -1.0674
25549SOL    HW283253   6.338   3.271   1.135  0.5628  0.5856 -0.6648
25550SOL     OW83254   4.736   5.757   6.712  0.2071 -0.6632 -0.1498
25550SOL    HW183255   4.671   5.687   6.704  1.1184 -1.3151 -2.9749
25550SOL    HW283256   4.816   5.713   6.739  0.6934 -0.7425 -1.5991
25551SOL     OW83257   3.774   5.302   8.006 -0.0614  0.2054  0.9586
25551SOL    HW183258   3.711   5.233   8.028 -0.8559  1.2691  2.2131
25551SOL    HW283259   3.775   5.359   8.083  3.1815 -0.2676  1.4250
25552SOL     OW83260   0.210   8.298   4.587 -0.1486 -0.4506  0.1242
25552SOL    HW183261   0.188   8.250   4.508  0.5575  0.0799 -0.4116
25552SOL    HW283262   0.296   8.264   4.613  0.7500  1.0730 -0.7387
25553SOL     OW83263   2.248  10.089   5.212  0.2182  0.0318  0.5500
25553SOL    HW183264   2.323  10.112   5.158 -0.1305  0.2808  0.1697
25553SOL    HW283265   2.197  10.028   5.158  1.0645 -1.5743  1.4840
25554SOL     OW83266   5.164  10.466   8.921 -0.3932 -0.6475 -0.0583
25554SOL    HW183267   5.244  10.498   8.878 -0.6771 -1.8097 -1.5590
25554SOL    HW283268   5.180  10.479   9.015  1.4024 -0.4862 -0.3486
25555SOL     OW83269   8.203   1.252   3.319  0.5997 -0.5312  0.0056
25555SOL    HW183270   8.116   1.221   3.343 -0.2667  1.0212 -0.9511
25555SOL    HW283271   8.227   1.200   3.242 -0.1998  0.1100 -0.6989
25556SOL     OW83272   7.799   9.438   6.891  0.0285 -0.5427  0.7922
25556SOL    HW183273   7.841   9.523   6.906 -1.4644  0.3350  0.2290
25556SOL    HW283274   7.727   9.435   6.953 -0.6799 -0.8570 -0.0230
25557SOL     OW83275   9.118  12.286   1.492 -0.6540 -0.2203  0.2387
25557SOL    HW183276   9.207  12.256   1.513 -0.3464 -0.8991 -1.7964
25557SOL    HW283277   9.114  12.375   1.527  1.0942  0.0850 -0.2389
25558SOL     OW83278   9.808   2.535  11.674 -0.1728 -0.0257  0.2380
25558SOL    HW183279   9.805   2.627  11.700  2.5065  0.2318 -0.0821
25558SOL    HW283280   9.887   2.500  11.716  0.0948 -1.5685 -1.3894
25559SOL     OW83281  12.740  12.212   4.464  0.1054 -0.4716 -0.0235
25559SOL    HW183282  12.673  12.144   4.468 -1.3282  0.9158  0.0776
25559SOL    HW283283  12.822  12.163   4.454 -0.8094 -2.2356  0.6264
25560SOL     OW83284   8.112   5.397   2.155 -0.3234 -0.2982  0.5539
25560SOL    HW183285   8.107   5.304   2.132 -1.3885 -0.8744  2.8758
25560SOL    HW283286   8.192   5.404   2.208  0.3991  0.3776 -0.5913
25561SOL     OW83287   6.929   4.216  10.163  0.9535  0.0897  0.4484
25561SOL    HW183288   6.935   4.136  10.112  1.5443  0.5554 -0.2339
25561SOL    HW283289   6.965   4.284  10.106  2.2074  0.5261  1.7029
25562SOL     OW83290   4.505   3.574   7.813  0.1497  0.0594  0.1096
25562SOL    HW183291   4.470   3.587   7.901 -3.5754 -3.0051 -0.6485
25562SOL    HW283292   4.458   3.637   7.758  0.4895  0.1779 -0.0464
25563SOL     OW83293   2.483   2.334   3.015 -0.0608 -0.6578 -1.3849
25563SOL    HW183294   2.564   2.286   3.027 -0.4621 -1.1987 -0.7987
25563SOL    HW283295   2.425   2.274   2.968 -0.6032 -0.8060 -0.5474
25564SOL     OW83296   2.095  12.653   2.327  0.4498  0.3209  0.0728
25564SOL    HW183297   2.132  12.736   2.357  0.6968  0.3717 -0.3708
25564SOL    HW283298   2.155  12.586   2.361  0.7195  0.3771 -0.2932
25565SOL     OW83299   2.367  10.091   2.954 -0.0505 -0.1615  0.0108
25565SOL    HW183300   2.272  10.097   2.948 -0.2531 -1.7392  0.9578
25565SOL    HW283301   2.400  10.144   2.882 -1.6539  0.1067 -0.5514
25566SOL     OW83302   5.968   9.058   7.219 -0.2202  0.8840 -0.0311
25566SOL    HW183303   6.038   9.083   7.279  1.5119  0.2607 -1.6975
25566SOL    HW283304   5.956   8.964   7.233 -2.7149  1.4060  2.1516
25567SOL     OW83305  11.686   9.480   0.950 -0.2160 -0.2412 -0.0184
25567SOL    HW183306  11.670   9.536   1.027 -0.0953 -1.9612  1.3183
25567SOL    HW283307  11.712   9.396   0.987  0.3836 -0.9635 -1.9883
25568SOL     OW83308   9.482   2.550  11.358  0.0449 -0.0733  0.0676
25568SOL    HW183309   9.407   2.584  11.408  0.7477  1.0081  0.4261
25568SOL    HW283310   9.448   2.471  11.315 -1.3865  0.5472 -0.0195
25569SOL     OW83311   7.056   8.608  10.796  0.1565 -0.0395 -0.6048
25569SOL    HW183312   7.122   8.594  10.865 -1.3665 -0.7074  0.7864
25569SOL    HW283313   7.007   8.685  10.825  0.8985  1.0635 -2.1389
25570SOL     OW83314  12.128   2.396   3.518  0.2060 -0.1812  0.8958
25570SOL    HW183315  12.082   2.376   3.437 -3.4424  0.9704  2.4867
25570SOL    HW283316  12.221   2.399   3.493 -0.5927 -1.4048 -2.8256
25571SOL     OW83317   5.342   3.470   4.168 -0.1029 -0.7229 -0.2322
25571SOL    HW183318   5.365   3.380   4.147 -0.0122 -0.3845 -1.7358
25571SOL    HW283319   5.426   3.512   4.190 -0.0803 -0.8888 -0.0038
25572SOL     OW83320   5.336   1.680   1.235  0.0757 -0.0390 -0.7891
25572SOL    HW183321   5.302   1.749   1.291  0.2033  0.1785 -0.9806
25572SOL    HW283322   5.271   1.670   1.165  0.7119  0.8388 -1.5321
25573SOL     OW83323   4.186   5.889   6.723 -0.1058  0.5714  0.5045
25573SOL    HW183324   4.152   5.802   6.748  2.0465 -1.0522 -1.7329
25573SOL    HW283325   4.244   5.914   6.795 -0.0767 -0.2532  0.7798
25574SOL     OW83326   0.062   3.846   5.997 -0.0516  0.2442 -0.4160
25574SOL    HW183327   0.111   3.852   6.080 -0.3089  0.1796 -0.2584
25574SOL    HW283328   0.112   3.900   5.936 -0.1181  0.6815 -0.0932
25575SOL     OW83329   4.727   3.241   2.751 -0.2321 -0.6012  0.0347
25575SOL    HW183330   4.798   3.257   2.688 -0.9985  0.1184 -0.6732
25575SOL    HW283331   4.686   3.160   2.720  1.6554 -2.3077  1.7633
25576SOL     OW83332   3.464  11.407   2.279 -0.3878  0.3303  0.2434
25576SOL    HW183333   3.513  11.488   2.273 -0.2620  0.2841  0.6018
25576SOL    HW283334   3.404  11.408   2.204  1.8123 -0.7321 -1.6365
25577SOL     OW83335   8.656  10.104   5.620 -0.1575  0.0519  0.4575
25577SOL    HW183336   8.663  10.049   5.542 -2.5784  0.7380 -0.3354
25577SOL    HW283337   8.728  10.076   5.676  0.2522 -2.0821 -1.0319
25578SOL     OW83338   2.725   2.441   6.022 -0.3273 -0.2595 -0.2651
25578SOL    HW183339   2.679   2.357   6.016  0.0597 -0.4894 -0.0580
25578SOL    HW283340   2.710   2.483   5.937  1.5461 -1.6190 -1.3475
25579SOL     OW83341   5.310   7.516   3.814  0.2667 -0.4553 -0.0653
25579SOL    HW183342   5.351   7.430   3.827  0.2408 -0.5633 -0.6704
25579SOL    HW283343   5.231   7.513   3.867  0.6844 -0.5055  0.5564
25580SOL     OW83344   2.521   4.114   3.294 -0.0538  0.2796  0.2273
25580SOL    HW183345   2.433   4.102   3.256 -0.2963  0.8384  0.6010
25580SOL    HW283346   2.578   4.126   3.218 -0.6709  2.2517  0.0311
25581SOL     OW83347   6.504   2.210   5.320  0.0600 -0.4191 -0.0611
25581SOL    HW183348   6.442   2.240   5.254 -0.0757 -1.4104 -0.4022
25581SOL    HW283349   6.582   2.184   5.271  0.4901  0.1598  0.3035
25582SOL     OW83350   1.165  10.783  11.071 -0.0673 -1.2956  0.3498
25582SOL    HW183351   1.188  10.810  11.160 -0.0065 -1.5671  0.4189
25582SOL    HW283352   1.103  10.711  11.083 -0.2472 -1.1723  0.1712
25583SOL     OW83353  11.238  11.450   1.837 -0.0937  0.5719  0.2365
25583SOL    HW183354  11.245  11.414   1.748  1.8563  1.5388 -0.0615
25583SOL    HW283355  11.149  11.484   1.843 -0.5763 -0.4305 -0.9850
25584SOL     OW83356   1.599   2.568   8.783 -0.4645 -0.4884  0.7796
25584SOL    HW183357   1.519   2.516   8.783  1.1441 -3.1686  1.1991
25584SOL    HW283358   1.648   2.537   8.859  1.3047  0.5506  0.1314
25585SOL     OW83359  10.272   1.752   4.782  0.3744 -0.0164  0.0039
25585SOL    HW183360  10.270   1.675   4.725  2.1840  0.2163 -0.4421
25585SOL    HW283361  10.362   1.784   4.775 -0.7296  3.2573 -1.3572
25586SOL     OW83362   1.361   8.672  11.857  0.2940  0.5197 -0.2427
25586SOL    HW183363   1.409   8.695  11.778  0.1889  1.6514  0.0027
25586SOL    HW283364   1.373   8.747  11.916 -1.4229  0.6794 -0.0313
25587SOL     OW83365   0.035   6.185  12.638  0.2061  0.3767 -0.0720
25587SOL    HW183366  -0.052   6.158  12.667 -1.0019  2.8814 -0.9802
25587SOL    HW283367   0.020   6.224  12.551  1.9716  2.0142  0.2758
25588SOL     OW83368   8.946   2.740   3.346  0.0604 -0.2184 -0.2868
25588SOL    HW183369   8.875   2.804   3.338 -0.1926 -0.4809 -0.1420
25588SOL    HW283370   8.978   2.729   3.256  0.2653  0.2933 -0.2777
25589SOL     OW83371   2.848   1.824   3.646 -0.2194  0.1610 -0.3948
25589SOL    HW183372   2.924   1.822   3.588 -0.1085  0.2304 -0.2545
25589SOL    HW283373   2.868   1.759   3.714  1.0101  2.1178  1.2289
25590SOL     OW83374   7.024  12.676  11.562 -0.4685 -0.2554  0.0135
25590SOL    HW183375   7.013  12.628  11.644 -1.2846  0.4010  0.3064
25590SOL    HW283376   6.977  12.758  11.576 -1.3369 -0.4745 -1.3922
25591SOL     OW83377  11.146   0.040   6.650 -0.1351 -0.8352 -0.0020
25591SOL    HW183378  11.127   0.089   6.730  0.0545  0.3546 -0.6696
25591SOL    HW283379  11.199  -0.035   6.680  2.2274  1.0020  0.7297
25592SOL     OW83380   5.580   8.781  10.880  0.1093  0.3863  0.4644
25592SOL    HW183381   5.542   8.786  10.967 -0.8431  1.0891  0.0257
25592SOL    HW283382   5.513   8.739  10.826 -0.4380  2.3991 -0.5038
25593SOL     OW83383   5.419   4.829   1.103  0.0325  0.4392 -0.0016
25593SOL    HW183384   5.367   4.768   1.051  1.8759 -0.5638 -0.7772
25593SOL    HW283385   5.411   4.913   1.057 -0.8294  0.2921 -0.1328
25594SOL     OW83386   0.447  10.604   8.368  0.5070 -0.8714 -0.3265
25594SOL    HW183387   0.426  10.535   8.431 -0.3195 -0.1971  0.1521
25594SOL    HW283388   0.454  10.684   8.421  1.3543 -0.5543 -0.8884
25595SOL     OW83389   3.799   1.939   7.994 -0.6421  0.2147  0.4278
25595SOL    HW183390   3.766   1.872   7.934 -0.3270  1.0348 -0.7078
25595SOL    HW283391   3.785   1.903   8.081 -2.7452 -0.2823 -0.0598
25596SOL     OW83392   1.594   3.275   3.965  0.4679  0.6283 -0.3147
25596SOL    HW183393   1.545   3.201   3.930  0.0018 -0.0219  1.5542
25596SOL    HW283394   1.593   3.341   3.896 -0.4406 -0.5245 -1.4351
25597SOL     OW83395   3.576   1.878   5.009 -0.0540 -0.1475 -0.4222
25597SOL    HW183396   3.521   1.924   5.072  0.9254  1.5694 -0.7572
25597SOL    HW283397   3.597   1.944   4.943  1.4582 -1.0617 -0.9002
25598SOL     OW83398   0.845  11.482   0.149 -0.5730  0.2173  0.2361
25598SOL    HW183399   0.832  11.547   0.219 -0.5692  0.2036  0.2496
25598SOL    HW283400   0.758  11.470   0.111 -0.4882  0.5831 -0.0794
25599SOL     OW83401  11.284   9.077   9.009  0.9810  0.4542 -0.1731
25599SOL    HW183402  11.326   9.136   8.946  0.5888  0.5314 -0.3700
25599SOL    HW283403  11.219   9.132   9.053  1.3858  0.4432  0.4323
25600SOL     OW83404   6.283   4.273   1.257 -0.3026  0.1558 -0.2398
25600SOL    HW183405   6.195   4.234   1.265 -0.7732  1.3028  0.4423
25600SOL    HW283406   6.334   4.207   1.210 -1.1605 -1.1371  0.5592
25601SOL     OW83407   2.068   8.278   2.949  0.2763  0.0057  0.2985
25601SOL    HW183408   2.069   8.283   2.853  0.8964 -1.5373  0.1891
25601SOL    HW283409   1.975   8.272   2.972  0.1726 -1.3421 -0.3551
25602SOL     OW83410  11.813   6.951   7.254  0.6311  0.0130 -0.9399
25602SOL    HW183411  11.753   6.932   7.182  1.4223  1.7020 -2.1048
25602SOL    HW283412  11.775   7.027   7.298  1.0066 -0.0051 -0.5775
25603SOL     OW83413   2.359   4.704  11.381  0.4770 -0.0842 -0.6575
25603SOL    HW183414   2.322   4.639  11.320 -0.2763 -1.3621  1.0817
25603SOL    HW283415   2.312   4.689  11.463  1.6289  1.4305  0.3241
25604SOL     OW83416   5.301   4.130  12.721 -0.3169  0.2235  0.1915
25604SOL    HW183417   5.212   4.102  12.744 -0.4250 -0.0469 -0.5396
25604SOL    HW283418   5.289   4.219  12.687 -0.0897  0.8314  1.6605
25605SOL     OW83419   6.779   4.333   2.476  0.2361 -0.4641 -0.0130
25605SOL    HW183420   6.828   4.268   2.426 -2.5530 -0.2651 -3.4139
25605SOL    HW283421   6.841   4.404   2.490  2.0584 -1.9272 -0.3412
25606SOL     OW83422   9.569   6.593  11.164 -0.0818 -0.4503  0.1199
25606SOL    HW183423   9.624   6.519  11.190 -0.1839 -1.3433 -1.9966
25606SOL    HW283424   9.479   6.560  11.171 -0.1422 -0.4360 -0.5142
25607SOL     OW83425   4.279   2.070  11.923  0.0485 -0.1724 -0.3890
25607SOL    HW183426   4.283   2.165  11.914  0.0005 -0.0483  0.7952
25607SOL    HW283427   4.366   2.045  11.955 -1.1561  0.0106  3.5256
25608SOL     OW83428  12.459   2.222   2.932 -0.3943  0.0321  0.2488
25608SOL    HW183429  12.547   2.223   2.893 -0.2311 -1.9674  0.4893
25608SOL    HW283430  12.402   2.251   2.861  0.2770 -0.2356 -0.4171
25609SOL     OW83431   3.762   5.503   8.738 -0.1500 -0.1016  0.1190
25609SOL    HW183432   3.848   5.520   8.777 -0.3932  2.8000 -0.4002
25609SOL    HW283433   3.782   5.469   8.651  0.5402  1.3798 -0.3334
25610SOL     OW83434   5.285   2.061   4.410  0.0146  0.8764 -0.3097
25610SOL    HW183435   5.236   2.028   4.334  0.0618  0.1630 -0.0390
25610SOL    HW283436   5.218   2.094   4.468 -0.3431 -1.4368  0.7190
25611SOL     OW83437   9.364  11.883   4.753  0.0603 -0.2118  0.1665
25611SOL    HW183438   9.349  11.922   4.667  1.2691  0.5953  0.2942
25611SOL    HW283439   9.438  11.824   4.739 -0.6432 -1.1663  0.3643
25612SOL     OW83440   7.753  11.917   7.816 -0.1743 -0.2467  0.3179
25612SOL    HW183441   7.722  11.916   7.725 -1.6379  0.8210  0.7524
25612SOL    HW283442   7.751  12.010   7.840  0.1949 -0.5195  1.4373
25613SOL     OW83443   1.804   1.481   8.209 -0.1813  0.2939 -0.0329
25613SOL    HW183444   1.847   1.479   8.123 -2.2531 -1.0701 -1.1245
25613SOL    HW283445   1.744   1.555   8.203 -1.0937 -0.4361 -0.2080
25614SOL     OW83446   3.312   9.972  10.325 -0.4974 -0.0396 -0.2814
25614SOL    HW183447   3.332  10.029  10.251 -0.3053 -0.6143 -0.6756
25614SOL    HW283448   3.341   9.885  10.298  1.0881  0.0096  1.0776
25615SOL     OW83449  12.629   5.876  11.551  0.4520  0.2614  0.6577
25615SOL    HW183450  12.581   5.838  11.478  0.8251  1.4893 -0.2614
25615SOL    HW283451  12.588   5.839  11.629 -1.5856  0.7858 -0.1036
25616SOL     OW83452   2.336   3.168   7.063  0.0261  0.5885 -0.0895
25616SOL    HW183453   2.252   3.124   7.075  0.8428 -0.7770  0.8274
25616SOL    HW283454   2.355   3.158   6.970 -0.5856  0.4593 -0.2042
25617SOL     OW83455   7.790   9.956   2.329  0.1357  0.1343 -0.0907
25617SOL    HW183456   7.882   9.933   2.318  0.6513 -0.1372  3.4802
25617SOL    HW283457   7.791  10.048   2.356 -0.4677 -0.2317  1.2715
25618SOL     OW83458  10.499   3.915   9.279  0.2848  0.4004 -0.0944
25618SOL    HW183459  10.509   3.943   9.188 -2.1283  1.3971 -0.1475
25618SOL    HW283460  10.500   3.997   9.330  1.2771 -0.1158  0.7540
25619SOL     OW83461  12.604   5.444   3.706  0.4741 -0.7229  0.3996
25619SOL    HW183462  12.635   5.421   3.793 -0.9835 -3.5934  0.2969
25619SOL    HW283463  12.508   5.443   3.714  0.2716  1.9315 -0.6111
25620SOL     OW83464   7.763   4.455   2.365  0.0039  0.2965 -0.6773
25620SOL    HW183465   7.820   4.435   2.291  0.4902  1.7035 -0.7154
25620SOL    HW283466   7.680   4.413   2.344  0.4137 -0.0700 -1.5933
25621SOL     OW83467  11.005   3.649  10.974  0.2908 -0.0883  0.5149
25621SOL    HW183468  11.069   3.721  10.970  0.3691 -0.1402  0.8658
25621SOL    HW283469  10.982   3.642  11.066  2.4329 -2.3821  0.9639
25622SOL     OW83470   6.306   9.129   1.983  0.7899 -0.5945  0.2854
25622SOL    HW183471   6.383   9.080   2.013  2.0903  0.8551 -0.5751
25622SOL    HW283472   6.339   9.216   1.961 -0.8453 -0.3315 -1.3841
25623SOL     OW83473   4.045   6.977   6.752 -0.1130  0.6343  0.5102
25623SOL    HW183474   4.060   6.904   6.692 -1.4297  0.5956  0.2109
25623SOL    HW283475   3.962   7.015   6.723  0.3272  1.9684  0.9495
25624SOL     OW83476   8.219   9.917   6.790 -0.6690 -0.3664  0.0615
25624SOL    HW183477   8.184   9.949   6.707 -0.9406 -0.0093  0.3105
25624SOL    HW283478   8.215   9.993   6.849  1.3410 -0.0537 -0.1450
25625SOL     OW83479  10.272  12.292   6.438 -0.1560 -0.1263  0.8539
25625SOL    HW183480  10.333  12.361   6.465  0.4949 -0.2527 -0.1884
25625SOL    HW283481  10.188  12.337   6.427  0.5579  0.8516 -1.1691
25626SOL     OW83482   5.911  11.328   8.336 -0.2866 -0.1612  0.3147
25626SOL    HW183483   5.918  11.291   8.248 -0.6353 -0.3695  0.3726
25626SOL    HW283484   5.883  11.419   8.322  2.0467  0.5884  0.0932
25627SOL     OW83485   6.619  10.431   7.059  0.1308  0.4560  0.1774
25627SOL    HW183486   6.629  10.445   6.965  0.2479  1.5098  0.3381
25627SOL    HW283487   6.556  10.359   7.066  2.0108 -1.3774 -0.7283
25628SOL     OW83488  11.284   5.706   5.022  0.7240  0.1991  0.3577
25628SOL    HW183489  11.210   5.733   4.968  0.2478  1.0807  1.4129
25628SOL    HW283490  11.346   5.780   5.015  2.1919 -1.1020 -1.6412
25629SOL     OW83491   4.945  10.031   8.163  0.2866  0.2285 -0.3014
25629SOL    HW183492   4.856  10.020   8.197  0.7131  0.0007  0.7913
25629SOL    HW283493   4.986  10.094   8.222  1.0616 -0.1983 -0.3630
25630SOL     OW83494   0.100  11.934   7.072 -0.4131 -0.2277  0.1001
25630SOL    HW183495   0.065  11.898   7.154 -0.6459  1.0972  0.6123
25630SOL    HW283496   0.023  11.943   7.016 -0.1587 -1.7688 -0.5459
25631SOL     OW83497  12.310   8.304   8.214  0.6757  0.1533  0.2630
25631SOL    HW183498  12.368   8.344   8.279  0.4835 -1.6074  1.6019
25631SOL    HW283499  12.230   8.282   8.262  0.7983 -1.8534 -0.3197
25632SOL     OW83500   3.562  10.033   8.225 -0.8607 -0.2850 -0.4000
25632SOL    HW183501   3.516   9.955   8.258 -0.0584 -1.0630 -1.1012
25632SOL    HW283502   3.650  10.003   8.205 -0.6511  0.7223 -1.0571
25633SOL     OW83503   2.113  12.467   6.519  0.2493 -0.2578  0.4990
25633SOL    HW183504   2.192  12.507   6.556 -0.3058  1.9796 -0.5645
25633SOL    HW283505   2.144  12.415   6.445  0.6812  1.8477 -0.8925
25634SOL     OW83506   3.492   4.238  12.373  0.3567 -0.7067 -0.0011
25634SOL    HW183507   3.507   4.322  12.417 -0.8322  0.3681 -1.5433
25634SOL    HW283508   3.397   4.231  12.366  0.4662 -1.7502 -0.7020
25635SOL     OW83509   5.406   6.448   1.212  0.1155  0.2523  0.3130
25635SOL    HW183510   5.406   6.366   1.262 -1.8985 -0.2831 -0.4441
25635SOL    HW283511   5.359   6.510   1.267 -2.3883 -0.4245 -0.8863
25636SOL     OW83512  11.729   4.196   0.324  0.1896 -0.3662  0.3369
25636SOL    HW183513  11.760   4.105   0.316  1.0726 -0.0259 -0.2183
25636SOL    HW283514  11.697   4.218   0.237 -0.0092 -0.1386  0.4675
25637SOL     OW83515  11.475   8.464   5.729  0.2553 -0.3832 -0.4025
25637SOL    HW183516  11.425   8.522   5.671 -1.2351 -0.5641  0.6276
25637SOL    HW283517  11.522   8.523   5.788  0.3681 -0.2160 -0.6591
25638SOL     OW83518  11.459   6.146   7.402  0.7729 -0.8191 -0.6358
25638SOL    HW183519  11.450   6.153   7.307  2.5976 -1.9102 -0.9499
25638SOL    HW283520  11.454   6.052   7.420  1.7850 -0.7528  0.1477
25639SOL     OW83521   7.789  10.608  12.344 -0.5227  0.7540  0.0415
25639SOL    HW183522   7.844  10.537  12.309 -0.1821 -0.6977  3.2346
25639SOL    HW283523   7.705  10.596  12.299  0.2220 -0.1736 -1.1949
25640SOL     OW83524   2.610   7.319   6.796 -0.2259  0.2718  0.3895
25640SOL    HW183525   2.683   7.318   6.858  0.6529 -0.3275 -0.6222
25640SOL    HW283526   2.636   7.383   6.730 -1.5130  1.4953  1.0260
25641SOL     OW83527  12.088   4.362   5.954  0.5903 -0.4888  0.3377
25641SOL    HW183528  12.052   4.415   6.025 -0.1279 -0.2288 -0.1972
25641SOL    HW283529  12.085   4.420   5.878  2.4894 -0.3534  0.3302
25642SOL     OW83530   9.877   3.608   6.624 -1.2316  0.6244  0.4716
25642SOL    HW183531   9.823   3.687   6.628 -0.7687  1.2744 -3.1719
25642SOL    HW283532   9.856   3.568   6.540  1.1478 -1.2225  0.6341
25643SOL     OW83533   2.575  11.888   0.855  0.3568  0.1379  0.3356
25643SOL    HW183534   2.549  11.837   0.778 -2.5211 -0.0596  1.2943
25643SOL    HW283535   2.575  11.979   0.826 -1.2563  0.1153  0.1658
25644SOL     OW83536   4.856   4.688   1.727 -0.3978  0.4053  0.2423
25644SOL    HW183537   4.807   4.717   1.650 -0.9172  0.0576  0.4351
25644SOL    HW283538   4.790   4.681   1.796  0.2431  1.9001  1.0657
25645SOL     OW83539   3.194   1.721   3.910 -0.2919  0.0466 -0.1878
25645SOL    HW183540   3.237   1.781   3.971 -0.2865  0.9770 -1.0745
25645SOL    HW283541   3.232   1.635   3.929  0.5828  0.5277  0.3010
25646SOL     OW83542  11.276   9.123  12.637 -0.4414 -0.4290  0.7234
25646SOL    HW183543  11.275   9.051  12.573 -0.2485  0.7316 -0.6240
25646SOL    HW283544  11.363   9.161  12.629 -1.3515  1.5358 -0.4316
25647SOL     OW83545   4.920  10.353   3.104  0.2591  0.4495 -0.1444
25647SOL    HW183546   4.829  10.378   3.121  0.6423  1.4816  0.4507
25647SOL    HW283547   4.956  10.425   3.053  1.4600  1.3270  1.8386
25648SOL     OW83548   2.707  10.863   0.784  0.5042  0.5146 -0.0268
25648SOL    HW183549   2.795  10.854   0.822  1.4501  0.8839 -1.9789
25648SOL    HW283550   2.721  10.849   0.690 -1.7868 -0.8319 -0.2285
25649SOL     OW83551  12.376   1.872   2.712 -0.3522 -0.8578 -0.4238
25649SOL    HW183552  12.467   1.861   2.685  0.3605  0.3127  1.2945
25649SOL    HW283553  12.327   1.880   2.631  0.8077 -3.2338 -1.4404
25650SOL     OW83554  11.095  12.610   9.019  0.0015  0.0664  0.1903
25650SOL    HW183555  11.023  12.568   8.972 -0.2270  0.2768  0.3508
25650SOL    HW283556  11.174  12.575   8.978 -0.1888 -0.4030  0.2210
25651SOL     OW83557   9.737   7.183   0.590 -0.1470  0.2894  0.1763
25651SOL    HW183558   9.693   7.099   0.577 -0.2225  0.1017  1.4360
25651SOL    HW283559   9.803   7.165   0.658  0.0657  1.1671  0.2147
25652SOL     OW83560  10.185   5.684   1.749 -0.2941  0.3350  0.0932
25652SOL    HW183561  10.262   5.713   1.797  0.1052  0.1211 -0.4082
25652SOL    HW283562  10.203   5.592   1.728 -0.0297  0.6690 -1.2760
25653SOL     OW83563   7.201   0.558   2.690 -0.3339  0.2750  0.1281
25653SOL    HW183564   7.221   0.475   2.648 -2.2013 -1.5922  2.6629
25653SOL    HW283565   7.247   0.555   2.774  0.4808  2.3585 -0.1732
25654SOL     OW83566  11.307  10.699   7.845  0.2588 -0.0384  0.5660
25654SOL    HW183567  11.374  10.654   7.793 -0.4935 -0.6054  0.0724
25654SOL    HW283568  11.226  10.685   7.797 -0.3026  0.1924  1.4285
25655SOL     OW83569   6.292   9.722  12.526  0.0662 -0.3795  0.6171
25655SOL    HW183570   6.262   9.807  12.558  0.3091  0.3073 -0.9175
25655SOL    HW283571   6.284   9.728  12.431  0.4922 -1.9296  0.4598
25656SOL     OW83572   2.202   8.231  10.278  0.4737  0.4765 -0.8136
25656SOL    HW183573   2.207   8.325  10.261 -0.2459  0.8856  0.9339
25656SOL    HW283574   2.273   8.215  10.340  1.0367 -0.2955 -1.6388
25657SOL     OW83575   8.873   6.731   0.544 -0.4172  0.1416  0.6770
25657SOL    HW183576   8.789   6.725   0.590 -0.0958  1.7977  1.5594
25657SOL    HW283577   8.868   6.814   0.495  0.2263 -0.3687 -0.2960
25658SOL     OW83578   6.240   3.274  11.185  0.1964 -0.2051 -0.5179
25658SOL    HW183579   6.213   3.301  11.273 -1.8598 -3.8541  0.1540
25658SOL    HW283580   6.308   3.209  11.199 -0.6128 -1.3207 -1.5373
25659SOL     OW83581   5.958  12.680  10.135 -0.3310 -0.0910  0.4853
25659SOL    HW183582   5.883  12.716  10.183  0.8917 -0.5913  2.8686
25659SOL    HW283583   5.937  12.588  10.123 -0.7933  0.1050 -0.3284
25660SOL     OW83584   7.735   2.043   3.288  0.5049  0.0251 -0.3035
25660SOL    HW183585   7.701   2.005   3.369  0.6501  0.2552 -0.1342
25660SOL    HW283586   7.701   2.132   3.287 -0.6211 -0.3964 -1.1702
25661SOL     OW83587   9.714   2.573  12.489 -0.4907  0.1295  0.0980
25661SOL    HW183588   9.789   2.528  12.450 -0.2525  0.6954 -0.1168
25661SOL    HW283589   9.639   2.547  12.436 -0.3267  0.1095 -0.1243
25662SOL     OW83590  11.421   9.878   9.083  0.6244  0.7832  0.1202
25662SOL    HW183591  11.346   9.934   9.103  0.3144 -0.1067  1.6160
25662SOL    HW283592  11.443   9.898   8.992  0.1811  2.9056  0.4276
25663SOL     OW83593   3.076   8.612   3.084 -0.1664  0.2989  0.3698
25663SOL    HW183594   3.047   8.607   2.993  1.7483 -1.5754 -0.2091
25663SOL    HW283595   3.016   8.554   3.131  0.0388 -0.2848 -0.0714
25664SOL     OW83596   5.813  11.600   6.458  0.0840  0.2221  0.0133
25664SOL    HW183597   5.843  11.567   6.373 -0.3504  0.5069 -0.2533
25664SOL    HW283598   5.839  11.533   6.520  1.7347  0.6738 -0.1356
25665SOL     OW83599  11.081   8.877   3.661  0.1276  0.3746  0.2961
25665SOL    HW183600  11.121   8.794   3.633 -0.4729  0.2745 -0.2949
25665SOL    HW283601  11.134   8.905   3.735  1.8680  0.6978 -1.0126
25666SOL     OW83602   0.424   4.020   1.136 -0.4181  0.5626 -0.0600
25666SOL    HW183603   0.449   3.988   1.223 -1.6334  1.1422  0.5298
25666SOL    HW283604   0.466   3.959   1.075 -1.9082 -1.6564  1.0035
25667SOL     OW83605  10.138   9.338   1.534 -0.3103 -0.2070  0.7128
25667SOL    HW183606  10.062   9.344   1.476  0.0202  1.7659  0.3932
25667SOL    HW283607  10.104   9.296   1.613 -1.6642  0.3308  0.4518
25668SOL     OW83608  11.633   4.641   5.482 -0.1135  0.0092  0.0231
25668SOL    HW183609  11.588   4.582   5.543  0.6128 -0.1854  0.3840
25668SOL    HW283610  11.563   4.695   5.445 -0.8258 -1.2433 -0.5125
25669SOL     OW83611  10.864   6.133   8.212  0.3036  0.0598 -0.3181
25669SOL    HW183612  10.833   6.122   8.302  0.1564  2.8712  0.0796
25669SOL    HW283613  10.803   6.197   8.174  1.7096  0.6628 -1.6601
25670SOL     OW83614   6.494   5.009   0.958 -0.2024 -0.3954  0.0861
25670SOL    HW183615   6.430   5.066   0.914 -0.8522 -0.2557  1.1799
25670SOL    HW283616   6.523   4.949   0.889  0.3285  1.0862 -1.0502
25671SOL     OW83617  12.332   2.093  10.606  0.1600  0.2237  0.3650
25671SOL    HW183618  12.315   2.183  10.580 -0.0777  0.0439 -0.1233
25671SOL    HW283619  12.356   2.049  10.524 -2.0291 -0.6907  0.1628
25672SOL     OW83620   2.799   7.646   4.820  0.5714  0.0631  0.6389
25672SOL    HW183621   2.776   7.584   4.750 -1.7047  0.2331  1.1515
25672SOL    HW283622   2.844   7.717   4.774 -0.5427 -0.0006 -0.6461
25673SOL     OW83623  11.075  10.309  11.875 -0.6020 -0.2662  0.1933
25673SOL    HW183624  11.020  10.378  11.913 -0.4310  1.1211 -1.8763
25673SOL    HW283625  11.152  10.355  11.843 -0.6145 -1.3490 -1.5217
25674SOL     OW83626   6.604  10.289  10.499  0.0672  0.2428 -0.7527
25674SOL    HW183627   6.629  10.227  10.567 -0.3773 -0.3438 -1.1149
25674SOL    HW283628   6.522  10.328  10.531  0.4308  0.7739 -0.4500
25675SOL     OW83629   9.351   8.301   5.801  0.2894  0.1732  0.5795
25675SOL    HW183630   9.397   8.368   5.751 -0.6981 -0.5419 -1.3610
25675SOL    HW283631   9.329   8.344   5.884  2.7522  1.0963  0.8207
25676SOL     OW83632   0.838   6.755   7.156  0.1125 -0.0509 -0.6365
25676SOL    HW183633   0.869   6.807   7.081  0.0868 -0.6166 -1.0476
25676SOL    HW283634   0.916   6.707   7.185  0.1753  0.3339 -0.1511
25677SOL     OW83635   3.253   5.610  11.238 -0.4350 -0.2823 -0.2191
25677SOL    HW183636   3.244   5.596  11.144 -0.7778  2.0950 -0.6005
25677SOL    HW283637   3.226   5.527  11.277 -0.8918 -1.1146 -2.1808
25678SOL     OW83638   9.348   6.587   9.755 -0.3861 -0.2791 -0.1589
25678SOL    HW183639   9.368   6.494   9.765  0.6239 -0.1964 -1.2540
25678SOL    HW283640   9.279   6.590   9.689 -1.2007 -0.2983  0.6657
25679SOL     OW83641  10.032  11.459   4.055 -0.2796  0.1026  0.0701
25679SOL    HW183642  10.081  11.499   4.126  0.1722 -0.1012 -0.1205
25679SOL    HW283643   9.950  11.507   4.051 -0.6468 -0.3977  1.2507
25680SOL     OW83644  12.454   9.258   3.470 -0.2590 -0.1981 -0.0883
25680SOL    HW183645  12.398   9.211   3.409  0.9569 -0.0363 -1.3795
25680SOL    HW283646  12.533   9.277   3.420  2.2627 -2.9753  2.4575
25681SOL     OW83647   8.261  10.534   8.294  0.4828  0.1692 -0.5064
25681SOL    HW183648   8.177  10.491   8.309  1.4343 -1.2116  1.4189
25681SOL    HW283649   8.284  10.570   8.380  1.3141  1.5804 -1.2912
25682SOL     OW83650   4.559   2.370   1.817 -0.3301 -0.2521  0.3917
25682SOL    HW183651   4.638   2.323   1.789 -0.4082 -0.1842  0.0471
25682SOL    HW283652   4.587   2.421   1.893 -0.5786 -1.9050  1.6391
25683SOL     OW83653   0.017  11.171   7.541 -0.1530 -0.1840  0.2637
25683SOL    HW183654   0.096  11.129   7.507 -0.7694 -0.6698 -0.6333
25683SOL    HW283655  -0.041  11.177   7.465  0.1269  2.9359  0.1749
25684SOL     OW83656   2.167   1.613   7.185  0.0028 -0.1523 -0.2118
25684SOL    HW183657   2.155   1.540   7.123  0.4241  0.1248 -0.6270
25684SOL    HW283658   2.080   1.651   7.194 -0.2562 -0.8117  0.1409
25685SOL     OW83659  11.392   1.889   3.723 -0.5293 -0.0509 -0.1517
25685SOL    HW183660  11.334   1.964   3.714 -0.3355  0.3604  1.5958
25685SOL    HW283661  11.364   1.846   3.804  0.9260 -0.4153  0.2051
25686SOL     OW83662   0.928   4.411   3.383  0.6468 -0.5431  0.2670
25686SOL    HW183663   0.962   4.394   3.295  0.7084 -0.6582  0.3128
25686SOL    HW283664   0.982   4.483   3.416  1.2747 -1.1489  0.5840
25687SOL     OW83665   5.965  11.289   2.965 -0.5230 -0.0734 -0.1516
25687SOL    HW183666   5.897  11.232   2.931 -0.7333  0.0522  0.0521
25687SOL    HW283667   6.031  11.230   3.000 -0.0926 -0.2176 -1.1701
25688SOL     OW83668   6.910  10.881   9.654  0.0725 -0.7040 -0.0927
25688SOL    HW183669   6.994  10.922   9.674 -0.4762  1.2110 -1.3754
25688SOL    HW283670   6.890  10.827   9.730  1.7166  0.0522  0.9115
25689SOL     OW83671  10.789  11.088  10.711 -0.0186  0.0997 -0.3884
25689SOL    HW183672  10.882  11.082  10.733  0.1362 -0.8154 -1.2553
25689SOL    HW283673  10.743  11.056  10.789  0.4075  0.0328 -0.1639
25690SOL     OW83674   2.174   5.520   7.456 -0.1037  0.4916  0.3975
25690SOL    HW183675   2.086   5.536   7.424  0.6200  1.9447 -0.9773
25690SOL    HW283676   2.231   5.533   7.380  1.3604  0.1552  1.3751
25691SOL     OW83677   5.785   7.578   8.792  0.2082  0.0953  0.0674
25691SOL    HW183678   5.701   7.625   8.791 -0.7187 -1.5022  0.4730
25691SOL    HW283679   5.848   7.642   8.757 -0.7942  2.0078  1.5702
25692SOL     OW83680   9.176   9.657  10.998  0.3831 -0.8423 -0.2309
25692SOL    HW183681   9.167   9.746  11.032 -0.0448 -0.2539 -1.8080
25692SOL    HW283682   9.165   9.666  10.904  1.6896 -2.3969 -0.5659
25693SOL     OW83683   4.754   4.503  11.785 -0.0800 -0.2864  0.1713
25693SOL    HW183684   4.758   4.413  11.819 -1.2242 -0.0810  0.8895
25693SOL    HW283685   4.662   4.517  11.765  0.2178  0.4430 -0.7680
25694SOL     OW83686   5.384   9.616   5.652 -0.1482  0.0180  0.4744
25694SOL    HW183687   5.477   9.606   5.632 -0.6828  0.0565 -2.3832
25694SOL    HW283688   5.376   9.705   5.685  0.5692  0.8616 -1.4706
25695SOL     OW83689   1.011   5.245   0.530  0.2514  0.3648 -0.3612
25695SOL    HW183690   0.943   5.203   0.583  0.8625 -0.1642  0.0354
25695SOL    HW283691   1.091   5.195   0.551  0.7980  1.0943 -0.6576
25696SOL     OW83692   3.056   7.986   7.955  0.4842  0.4495  0.3308
25696SOL    HW183693   3.119   7.918   7.980  0.4484  0.1588 -0.3412
25696SOL    HW283694   3.060   7.988   7.859  1.0198  1.8922  0.3566
25697SOL     OW83695   9.077   0.479  11.054  0.2826 -0.1732  0.4239
25697SOL    HW183696   9.131   0.401  11.069 -0.4764 -0.9118 -0.5685
25697SOL    HW283697   9.013   0.477  11.125 -0.4506 -1.1214 -0.2264
25698SOL     OW83698   4.931  10.399   1.277 -0.0662  0.2025  0.7651
25698SOL    HW183699   4.898  10.311   1.298  0.9297 -0.4250 -0.1662
25698SOL    HW283700   4.856  10.456   1.289 -0.6915 -0.7540  1.5706
25699SOL     OW83701   0.319   7.181   0.904 -0.0394 -0.2167 -0.0231
25699SOL    HW183702   0.362   7.220   0.980 -0.9477 -1.1238  0.9900
25699SOL    HW283703   0.225   7.192   0.920 -0.3040 -1.9977 -0.1206
25700SOL     OW83704   7.702   1.840   8.221  0.4069  0.1877  0.1219
25700SOL    HW183705   7.625   1.794   8.255 -1.6503 -0.2451 -4.3751
25700SOL    HW283706   7.681   1.933   8.229  1.1049  0.2298  2.0717
25701SOL     OW83707   3.580   9.148  12.715  0.6182  0.4972  0.1992
25701SOL    HW183708   3.526   9.184  12.645  1.1074  3.5068  1.2324
25701SOL    HW283709   3.664   9.194  12.708  2.0480 -1.8674  0.4974
25702SOL     OW83710   5.679   0.919  12.051  0.0546 -0.5444 -0.5052
25702SOL    HW183711   5.759   0.960  12.084 -0.3351 -0.0783 -0.1240
25702SOL    HW283712   5.648   0.866  12.124 -0.0798 -0.5904 -0.5971
25703SOL     OW83713   7.195  10.877   6.906  0.5631 -0.5229 -0.3049
25703SOL    HW183714   7.228  10.954   6.860 -0.1579 -0.6465 -1.0659
25703SOL    HW283715   7.272  10.839   6.948  0.9194  0.6589  0.1713
25704SOL     OW83716   1.693  10.131   6.158 -0.0431  0.3858  0.3397
25704SOL    HW183717   1.735  10.186   6.092 -2.8532  1.9648 -0.2648
25704SOL    HW283718   1.695  10.183   6.238  1.2359 -0.5562  0.9620
25705SOL     OW83719   8.401   8.436  11.409 -0.3594  0.0256  0.4346
25705SOL    HW183720   8.320   8.485  11.414  0.2164  0.9320  1.2037
25705SOL    HW283721   8.406   8.407  11.318 -0.3901  1.9821 -0.2394
25706SOL     OW83722   4.090   3.802  10.220 -0.4032 -0.1761 -0.1464
25706SOL    HW183723   4.070   3.883  10.267  0.6853 -0.5354  1.0005
25706SOL    HW283724   4.178   3.778  10.250 -1.8172 -3.3959  1.9557
25707SOL     OW83725   2.845   8.897   7.944 -0.5358 -0.0260 -0.2388
25707SOL    HW183726   2.910   8.896   7.873  0.6055 -3.3156  0.6971
25707SOL    HW283727   2.803   8.811   7.939 -1.5440  0.2757  2.1049
25708SOL     OW83728   9.428   2.120  11.550  0.0614  0.2709 -0.3262
25708SOL    HW183729   9.411   2.092  11.460 -0.8130  0.9522 -0.3774
25708SOL    HW283730   9.508   2.172  11.543  0.5742 -0.5208 -0.5373
25709SOL     OW83731   1.709   1.947   7.260  0.3343 -0.5147 -0.0908
25709SOL    HW183732   1.709   1.944   7.356 -1.6394  0.9640  0.0370
25709SOL    HW283733   1.779   2.008   7.238  1.0190 -1.1160  0.3817
25710SOL     OW83734   4.510   1.423   9.554 -0.0377  0.2394 -0.1931
25710SOL    HW183735   4.484   1.513   9.535  1.4178  0.4481 -1.3677
25710SOL    HW283736   4.605   1.427   9.562 -0.0167 -1.0771  0.4960
25711SOL     OW83737   5.321   0.857  11.176 -0.2588 -0.0546 -0.2230
25711SOL    HW183738   5.367   0.917  11.235  0.1664  0.1966 -0.8002
25711SOL    HW283739   5.369   0.863  11.093 -2.1147  1.2803 -1.2761
25712SOL     OW83740   3.313   5.866   6.267 -0.4774  0.0958 -0.0833
25712SOL    HW183741   3.357   5.951   6.271 -0.3912  0.1822 -2.1660
25712SOL    HW283742   3.330   5.833   6.179 -1.3383 -1.6464  0.3484
25713SOL     OW83743   8.654   7.843   4.947 -0.5711 -0.4982 -0.0752
25713SOL    HW183744   8.572   7.864   4.902 -1.5213 -0.7295  1.4735
25713SOL    HW283745   8.722   7.886   4.895 -1.7999  0.7207 -0.7262
25714SOL     OW83746   6.571  12.267   0.304  0.4446  0.4655 -0.1642
25714SOL    HW183747   6.654  12.219   0.305  1.2406  1.7795 -0.7523
25714SOL    HW283748   6.595  12.356   0.329 -0.9817  0.6060  0.7812
25715SOL     OW83749  11.507  11.382  10.051 -0.7641 -0.4216  0.4547
25715SOL    HW183750  11.550  11.297  10.051 -0.4762 -0.2832  1.0864
25715SOL    HW283751  11.427  11.369  10.000  0.0482 -0.6663 -0.7832
25716SOL     OW83752   4.537   5.209   1.332  0.4772 -0.3404  0.2109
25716SOL    HW183753   4.589   5.192   1.410  0.1849  0.2128  0.5364
25716SOL    HW283754   4.590   5.271   1.281  0.3728 -0.1736  0.3009
25717SOL     OW83755   9.582  12.068   4.976  0.1251 -0.5812  0.2563
25717SOL    HW183756   9.510  12.125   5.001  0.8440  0.7443 -0.5787
25717SOL    HW283757   9.588  12.077   4.881  1.1185 -0.9920  0.2638
25718SOL     OW83758  12.738   9.807   1.640 -0.2965 -0.2826 -0.2285
25718SOL    HW183759  12.643   9.796   1.633 -0.3201 -0.0346 -0.3130
25718SOL    HW283760  12.774   9.742   1.580 -0.3411 -1.8043  1.3320
25719SOL     OW83761   4.344   6.501  11.124  0.7166  0.4574 -0.0242
25719SOL    HW183762   4.349   6.555  11.045  0.3671 -1.6469 -1.5939
25719SOL    HW283763   4.359   6.412  11.093 -0.5932 -0.6006  2.1136
25720SOL     OW83764   5.386   2.760   1.530  0.5425  0.2211 -0.0252
25720SOL    HW183765   5.369   2.718   1.614 -2.4103 -0.2021 -0.7070
25720SOL    HW283766   5.333   2.711   1.468 -0.4250  2.8771 -1.4474
25721SOL     OW83767   5.886   8.821   5.337 -0.1897  0.5665 -0.6494
25721SOL    HW183768   5.813   8.804   5.396 -0.7633  3.4149 -0.4248
25721SOL    HW283769   5.889   8.744   5.279 -2.2961 -0.3424  0.3744
25722SOL     OW83770  11.293  10.405   8.442 -0.1107 -0.1563  0.4227
25722SOL    HW183771  11.312  10.474   8.379  1.3845  0.4502  1.4766
25722SOL    HW283772  11.306  10.323   8.394  0.0717  0.2899 -0.2960
25723SOL     OW83773   3.955   8.964   3.793  0.2748  0.3047  0.2242
25723SOL    HW183774   3.928   9.035   3.851 -0.9899  0.1681 -0.1663
25723SOL    HW283775   3.917   8.885   3.832  0.3114  0.0676 -0.2142
25724SOL     OW83776   1.978  10.917   1.054  0.6977  0.1979 -0.4374
25724SOL    HW183777   2.051  10.971   1.024 -0.7855  0.9804 -2.9926
25724SOL    HW283778   1.967  10.851   0.985  0.8712 -1.8757  1.4022
25725SOL     OW83779  11.705   2.628   9.212  0.0238  0.1159 -0.1647
25725SOL    HW183780  11.723   2.565   9.142 -1.4224 -1.3078  0.6839
25725SOL    HW283781  11.734   2.583   9.292  0.4951  1.2152  0.2983
25726SOL     OW83782   2.782   2.406   1.514 -0.0012  0.8049 -0.0438
25726SOL    HW183783   2.832   2.416   1.433  0.0683  1.0918  0.0343
25726SOL    HW283784   2.761   2.495   1.541  3.1022  1.0303  2.2021
25727SOL     OW83785   5.074   9.956   7.241 -0.1569 -0.1777 -0.5702
25727SOL    HW183786   5.024  10.030   7.206 -1.4429 -1.1353 -0.8173
25727SOL    HW283787   5.026   9.929   7.319 -0.0734 -1.1779 -0.8566
25728SOL     OW83788   7.701   0.599   6.750  0.2341 -0.3783  0.3455
25728SOL    HW183789   7.630   0.603   6.686  0.5409 -2.5527 -0.2128
25728SOL    HW283790   7.710   0.689   6.782 -0.5221  0.6091 -2.0057
25729SOL     OW83791   7.990   7.746   1.501 -0.2289 -0.7251  0.8155
25729SOL    HW183792   8.020   7.814   1.561 -0.9011  0.7127 -0.4163
25729SOL    HW283793   8.039   7.761   1.420 -2.2003 -0.0404 -0.3233
25730SOL     OW83794   9.121   5.127   3.239 -0.6566 -0.4241  0.1595
25730SOL    HW183795   9.054   5.182   3.199  0.4177  0.1796 -0.8533
25730SOL    HW283796   9.145   5.064   3.172  0.4882 -0.0065  0.1572
25731SOL     OW83797   9.307   6.486   0.399  0.5114  0.3799 -0.5140
25731SOL    HW183798   9.337   6.577   0.405  1.1074  0.1546  0.0195
25731SOL    HW283799   9.213   6.493   0.382  0.2593  1.1083  1.0394
25732SOL     OW83800   3.936   9.173   7.368 -0.0890 -0.3488  0.1426
25732SOL    HW183801   3.941   9.155   7.461  1.1071 -0.2285  0.1112
25732SOL    HW283802   4.018   9.141   7.332 -0.5981 -0.5408 -0.9042
25733SOL     OW83803   7.856   2.501   1.999  0.2720 -0.1832  0.0611
25733SOL    HW183804   7.919   2.525   2.067  0.9871  1.2081 -1.0461
25733SOL    HW283805   7.886   2.416   1.968  1.7558  0.5308 -0.5648
25734SOL     OW83806   7.027   1.792  10.029 -0.2379 -0.2531 -0.0300
25734SOL    HW183807   7.075   1.835   9.958  2.4065  0.3783  2.0106
25734SOL    HW283808   7.074   1.711  10.044 -1.1490 -0.6720  0.6288
25735SOL     OW83809  12.720   9.808   0.657 -0.1002  0.2655  0.4307
25735SOL    HW183810  12.772   9.867   0.601 -1.4525 -0.0848 -1.2765
25735SOL    HW283811  12.739   9.721   0.623 -0.9954  0.0498  0.4584
25736SOL     OW83812   9.419   9.392   4.914  0.2118  0.0042 -0.1557
25736SOL    HW183813   9.463   9.370   4.996  2.4211 -1.5560 -1.6257
25736SOL    HW283814   9.327   9.373   4.930  0.9107 -2.7945  1.2430
25737SOL     OW83815  11.418   0.443   2.681  0.7339  0.5880 -0.0843
25737SOL    HW183816  11.464   0.514   2.635  2.1159 -0.1564  0.0922
25737SOL    HW283817  11.326   0.470   2.681  1.1287  2.0370 -0.6403
25738SOL     OW83818  12.493   9.411   4.952  0.0450 -0.2830 -0.0954
25738SOL    HW183819  12.435   9.401   5.028  1.9028  0.2031  1.4927
25738SOL    HW283820  12.447   9.366   4.881 -3.2158  1.8231  0.4626
25739SOL     OW83821   5.016   3.956   9.043 -0.1254 -0.1285 -0.1147
25739SOL    HW183822   4.940   3.914   9.084  0.1914 -0.4759  0.1212
25739SOL    HW283823   5.032   3.906   8.964  0.0848 -0.2891  0.0274
25740SOL     OW83824   6.458   3.719   9.340  0.1069  0.5962  0.2271
25740SOL    HW183825   6.430   3.635   9.375 -2.5809  0.5165 -1.8112
25740SOL    HW283826   6.541   3.701   9.296 -0.5284 -1.0676 -0.3448
25741SOL     OW83827   1.315   0.521  10.959 -0.0582  0.1699  0.2778
25741SOL    HW183828   1.296   0.491  10.870 -1.0731 -0.3554  0.6523
25741SOL    HW283829   1.264   0.462  11.016 -0.6062  1.4011  1.1239
25742SOL     OW83830   4.141  10.763   5.988  0.2141  0.0983  0.8816
25742SOL    HW183831   4.168  10.691   5.932  0.5603  0.1645  0.9639
25742SOL    HW283832   4.206  10.831   5.974 -0.3073  0.5365  0.5354
25743SOL     OW83833   2.438   9.798   8.923  0.1609  0.0520 -0.1253
25743SOL    HW183834   2.454   9.859   8.851  1.8824 -0.3794 -0.1403
25743SOL    HW283835   2.421   9.714   8.879 -1.5011  0.3251 -0.0800
25744SOL     OW83836   8.042  12.773   2.254  0.3628 -0.3635 -0.0214
25744SOL    HW183837   8.078  12.858   2.226  3.8899 -1.8388 -0.5656
25744SOL    HW283838   8.026  12.785   2.348 -1.2163  1.4341 -0.4440
25745SOL     OW83839  12.520   2.104   9.705 -0.2790  0.0026 -0.0938
25745SOL    HW183840  12.578   2.166   9.662 -0.9872 -0.8608 -2.4744
25745SOL    HW283841  12.441   2.155   9.724  0.8633  0.9836  2.4664
25746SOL     OW83842   5.483  12.525   4.060 -0.4626 -0.2927 -0.1377
25746SOL    HW183843   5.453  12.562   3.977  0.3652  1.7938  0.4334
25746SOL    HW283844   5.550  12.586   4.091 -0.4053 -1.2721  1.8419
25747SOL     OW83845  10.139   3.304   2.738  0.2705 -0.0406  0.0914
25747SOL    HW183846  10.219   3.312   2.686  0.5685  3.6288  0.8603
25747SOL    HW283847  10.167   3.325   2.827 -1.4942  1.3590  0.3633
25748SOL     OW83848   8.975  11.621   0.895 -0.3810  0.0815 -0.3239
25748SOL    HW183849   8.888  11.661   0.902 -0.6466 -0.0327 -2.3400
25748SOL    HW283850   8.983  11.598   0.802  0.0364 -3.8447  0.4981
25749SOL     OW83851   6.791   1.186  11.898  0.5820 -0.4273  0.0791
25749SOL    HW183852   6.808   1.255  11.962  2.3575 -0.3108 -0.4719
25749SOL    HW283853   6.740   1.229  11.829 -1.1852 -0.5114  1.2708
25750SOL     OW83854   8.086  11.150   2.221 -0.1653 -0.5427 -0.4085
25750SOL    HW183855   8.141  11.079   2.255  0.5373  0.1510 -0.0704
25750SOL    HW283856   8.032  11.175   2.296 -0.5110 -0.8004 -0.5665
25751SOL     OW83857   3.900   8.473   6.403  0.4404 -0.5146  0.1073
25751SOL    HW183858   3.896   8.384   6.440  1.1412 -1.0726 -1.0840
25751SOL    HW283859   3.908   8.459   6.309  1.0286  0.8096 -0.0626
25752SOL     OW83860   2.843   5.895   3.856  0.5512  0.6449  0.2181
25752SOL    HW183861   2.921   5.843   3.879 -0.2307  0.4469  2.7503
25752SOL    HW283862   2.773   5.830   3.848 -0.0109  1.0872  1.3359
25753SOL     OW83863   4.871  11.374   6.771 -0.7841  0.3487 -0.3451
25753SOL    HW183864   4.905  11.383   6.682  0.6005 -1.0639 -0.0115
25753SOL    HW283865   4.821  11.293   6.770  0.2149 -0.3017  0.4159
25754SOL     OW83866  10.734   0.420   0.819 -0.2687 -0.0913  0.5414
25754SOL    HW183867  10.689   0.497   0.786 -0.2944 -0.8027 -1.1954
25754SOL    HW283868  10.665   0.355   0.833 -0.0546 -0.4012  0.1889
25755SOL     OW83869   0.011   1.101   0.396  0.0617 -0.0101 -0.2446
25755SOL    HW183870   0.101   1.118   0.367 -0.4016 -0.8644 -2.3470
25755SOL    HW283871  -0.036   1.181   0.375  0.1986  0.2468  0.3893
25756SOL     OW83872   9.596   0.960   5.084 -0.3715 -0.0667  0.0104
25756SOL    HW183873   9.571   0.944   4.993  0.8815 -1.0397 -0.1943
25756SOL    HW283874   9.596   0.873   5.125  1.0494  0.0919  0.3951
25757SOL     OW83875   6.549   4.795   6.886  0.0568 -0.5408 -0.2486
25757SOL    HW183876   6.557   4.864   6.820 -0.6899 -1.1679 -1.0120
25757SOL    HW283877   6.605   4.825   6.957  0.9716  0.1099 -1.1966
25758SOL     OW83878   0.153   1.887   7.064  0.0666 -0.2960 -0.6538
25758SOL    HW183879   0.101   1.914   7.140  0.6981 -1.1323  0.1059
25758SOL    HW283880   0.155   1.964   7.007  0.9997  0.9561  0.9764
25759SOL     OW83881   9.422   8.493   2.525  0.6127 -0.5717 -0.6636
25759SOL    HW183882   9.470   8.571   2.495 -1.3279  1.3872  0.9124
25759SOL    HW283883   9.459   8.475   2.611  0.2344 -0.6050 -0.5067
25760SOL     OW83884   0.086  11.398  12.271  0.5517 -0.2200 -0.1828
25760SOL    HW183885   0.060  11.465  12.334  0.1801 -0.9032  0.4153
25760SOL    HW283886   0.181  11.402  12.268  0.4994  0.8852 -0.7860
25761SOL     OW83887   0.985  11.994   4.424  0.0236 -0.8458  0.6207
25761SOL    HW183888   0.929  11.933   4.472  0.7611 -2.3277 -0.3440
25761SOL    HW283889   0.986  11.961   4.334 -0.1331  1.0128 -0.1196
25762SOL     OW83890   8.340  11.258   1.824  0.2913 -0.2907 -0.2864
25762SOL    HW183891   8.412  11.297   1.873  0.7672  1.7656 -2.3949
25762SOL    HW283892   8.268  11.320   1.834 -0.4632 -1.1739 -0.0775
25763SOL     OW83893   6.357   6.093   7.879 -0.8547  0.7290  0.3742
25763SOL    HW183894   6.348   6.069   7.972  0.3277 -0.4156  0.2170
25763SOL    HW283895   6.361   6.009   7.833 -0.5057  1.2846 -0.6255
25764SOL     OW83896   7.075   7.421   2.825 -0.6429 -0.3918 -0.0508
25764SOL    HW183897   7.047   7.372   2.748 -1.4550  0.4937 -0.3380
25764SOL    HW283898   7.039   7.509   2.812  0.7350  0.2775  0.4703
25765SOL     OW83899   5.313   2.268   5.616 -0.0407 -0.4096  0.5507
25765SOL    HW183900   5.273   2.318   5.544  2.0992 -0.7090 -0.9466
25765SOL    HW283901   5.320   2.179   5.582  0.6629 -0.6447  1.2848
25766SOL     OW83902   7.596   4.534   1.498  0.1108 -0.3621 -0.1500
25766SOL    HW183903   7.565   4.600   1.436 -0.8119 -0.6719 -0.0312
25766SOL    HW283904   7.516   4.500   1.539  0.6157 -1.1169  0.2308
25767SOL     OW83905   7.881   3.760  11.813  0.0269 -0.7368  0.8242
25767SOL    HW183906   7.827   3.694  11.856 -1.7967  1.7447  2.6035
25767SOL    HW283907   7.819   3.813  11.763  1.2267  0.4354  0.5151
25768SOL     OW83908   0.325   8.486   0.460  0.1949  0.0466  0.4961
25768SOL    HW183909   0.317   8.393   0.480  0.1903 -0.0681 -0.0327
25768SOL    HW283910   0.384   8.490   0.385 -1.6588  0.3029 -1.0169
25769SOL     OW83911   2.243   7.554   5.174  0.1473  0.1774  0.2367
25769SOL    HW183912   2.152   7.535   5.148  0.2011  0.2720 -0.0260
25769SOL    HW283913   2.240   7.644   5.204 -0.1101 -0.2280  1.4960
25770SOL     OW83914   5.934   1.125   6.475 -0.0904 -0.0063  0.1992
25770SOL    HW183915   5.888   1.046   6.449  1.3282 -0.2772 -1.6985
25770SOL    HW283916   5.887   1.196   6.431  0.2857 -0.1167 -0.4012
25771SOL     OW83917   7.405   9.351   0.012 -0.0672 -0.7323 -0.0208
25771SOL    HW183918   7.487   9.379   0.052 -1.1272  0.6770  1.2943
25771SOL    HW283919   7.360   9.302   0.081 -0.5152 -1.1446 -0.5908
25772SOL     OW83920  11.030   3.740  12.354  0.1938  0.0792  0.0466
25772SOL    HW183921  11.065   3.782  12.275  0.5388  1.2716  0.8059
25772SOL    HW283922  11.105   3.732  12.412  0.1029 -1.4980 -0.0115
25773SOL     OW83923   1.973   1.900   2.362 -0.0737  0.3076  0.0583
25773SOL    HW183924   1.980   1.930   2.453  0.0098 -1.6136  0.7361
25773SOL    HW283925   1.891   1.937   2.331  0.5907  2.2138  0.3863
25774SOL     OW83926   0.335   9.315   0.272  0.3631 -0.2316 -0.2243
25774SOL    HW183927   0.286   9.344   0.350  0.1303 -0.1808 -0.3884
25774SOL    HW283928   0.285   9.350   0.198  0.9636  0.3228 -0.3817
25775SOL     OW83929   2.334   7.882   5.990 -0.3342 -0.3130 -0.2180
25775SOL    HW183930   2.300   7.855   5.904 -1.2222 -0.7691  0.2662
25775SOL    HW283931   2.427   7.898   5.974 -0.8512  1.6415 -1.7345
25776SOL     OW83932   4.528   6.125   7.299 -0.4685  0.0781 -0.1758
25776SOL    HW183933   4.509   6.101   7.389 -4.4804  0.1421 -0.8146
25776SOL    HW283934   4.505   6.217   7.292  1.1758  0.4829 -1.0162
25777SOL     OW83935  11.691  10.741   6.472  0.0980 -0.1522  0.8088
25777SOL    HW183936  11.618  10.783   6.428  0.4216 -0.5052 -0.0779
25777SOL    HW283937  11.664  10.738   6.564 -0.7866  0.1700  0.5747
25778SOL     OW83938  12.449  12.474  12.481  0.3362  0.0402  0.6522
25778SOL    HW183939  12.362  12.511  12.468 -0.0920 -1.2767 -0.4162
25778SOL    HW283940  12.497  12.496  12.401 -0.2287 -2.4122 -0.4606
25779SOL     OW83941   7.278   8.523   1.998  0.5050  0.0382  0.0629
25779SOL    HW183942   7.190   8.500   1.969  1.1000 -0.0873 -1.8182
25779SOL    HW283943   7.273   8.524   2.093 -1.3911 -0.4838  0.0077
25780SOL     OW83944   0.729   9.685   8.448  0.0783  0.0985  0.2346
25780SOL    HW183945   0.728   9.594   8.478 -2.7138  0.3585  1.2223
25780SOL    HW283946   0.720   9.736   8.528 -1.7754  1.0533 -0.5229
25781SOL     OW83947   9.985   1.935   8.167 -0.0505 -0.4934 -0.0877
25781SOL    HW183948   9.988   2.030   8.153  1.2785 -0.3821  0.6968
25781SOL    HW283949   9.929   1.924   8.244  2.1721 -0.0086  1.7277
25782SOL     OW83950   0.163   6.679  10.121 -0.4392 -0.1913  0.6034
25782SOL    HW183951   0.103   6.750  10.097  0.0901 -0.1721 -0.7386
25782SOL    HW283952   0.161   6.678  10.217 -0.5879  1.5225  0.6591
25783SOL     OW83953   4.643  10.107   4.788 -0.4010 -0.1195 -0.0698
25783SOL    HW183954   4.690  10.176   4.740  1.9495 -0.3565  1.7407
25783SOL    HW283955   4.635  10.036   4.724  1.3616  0.0986 -0.5900
25784SOL     OW83956   9.479   3.244  12.669  0.1213  0.4591 -0.7917
25784SOL    HW183957   9.426   3.271  12.594 -0.5240 -0.5552 -0.7257
25784SOL    HW283958   9.420   3.251  12.744  0.3948  0.3377 -0.5626
25785SOL     OW83959  10.628   3.119  10.896 -0.3782  0.1564  0.3214
25785SOL    HW183960  10.655   3.210  10.907  0.8017 -0.0928 -0.2644
25785SOL    HW283961  10.678   3.089  10.820 -1.9287 -0.5267 -0.4748
25786SOL     OW83962   6.952  11.105   1.385 -0.1787  0.2711  0.5867
25786SOL    HW183963   7.044  11.124   1.404  0.0569 -0.8259  0.6155
25786SOL    HW283964   6.929  11.166   1.315  0.3335  1.0905  1.1124
25787SOL     OW83965   3.399   4.523   7.762 -0.2453  0.4177  0.7216
25787SOL    HW183966   3.306   4.504   7.751  0.3180 -1.8867 -1.0517
25787SOL    HW283967   3.431   4.452   7.818  0.8053 -0.1522 -0.5496
25788SOL     OW83968   5.859  10.493   8.400  0.4583  0.4224 -0.4352
25788SOL    HW183969   5.870  10.573   8.350  0.5321  0.0157 -1.0866
25788SOL    HW283970   5.868  10.520   8.491  0.2105  1.1948 -0.6316
25789SOL     OW83971  10.931  10.397   5.799 -0.1391  0.2541  0.3001
25789SOL    HW183972  10.896  10.485   5.812  0.6336  0.6663 -0.2613
25789SOL    HW283973  10.867  10.339   5.839  0.2385  1.1707  2.3976
25790SOL     OW83974  10.977   2.977   5.037 -0.3954  0.0272 -0.2234
25790SOL    HW183975  11.028   3.055   5.011 -1.9172  0.7505 -1.1484
25790SOL    HW283976  10.942   3.000   5.123  0.0928 -0.1073  0.0147
25791SOL     OW83977   7.180   0.194   0.935  0.1633  0.2467 -0.3971
25791SOL    HW183978   7.197   0.225   0.846 -1.0957  1.5804 -0.2073
25791SOL    HW283979   7.114   0.254   0.969 -0.6720 -1.2969  0.8372
25792SOL     OW83980   8.474   2.616  11.870 -0.1202  0.1681  0.3142
25792SOL    HW183981   8.465   2.549  11.938 -0.6998  0.2373  0.3109
25792SOL    HW283982   8.449   2.573  11.789  1.1578 -0.0839  0.0357
25793SOL     OW83983   0.310   5.161   5.444  0.0752  0.1679 -0.1549
25793SOL    HW183984   0.293   5.233   5.505  0.8241  0.7272 -0.5926
25793SOL    HW283985   0.303   5.201   5.357  3.4747  0.4668 -0.4075
25794SOL     OW83986   4.571   7.564  11.611 -0.2793  0.1826  0.4168
25794SOL    HW183987   4.587   7.519  11.528 -0.3675  0.2239  0.3772
25794SOL    HW283988   4.601   7.503  11.678  3.1010  1.4871  0.2654
25795SOL     OW83989   0.109   5.779   7.512 -0.3078 -0.3677 -0.1262
25795SOL    HW183990   0.114   5.795   7.418 -1.0175 -0.0321 -0.1139
25795SOL    HW283991   0.190   5.733   7.533 -0.1013 -0.3620 -0.8843
25796SOL     OW83992   9.583   1.629   3.562  0.3232 -0.6322 -0.8122
25796SOL    HW183993   9.516   1.668   3.618  1.2479  1.4753 -1.0747
25796SOL    HW283994   9.638   1.579   3.622  0.4926  0.4572 -0.0199
25797SOL     OW83995   2.747   8.478   5.276 -0.4741 -0.1218 -0.2016
25797SOL    HW183996   2.825   8.529   5.298 -0.4366  0.1821 -0.9974
25797SOL    HW283997   2.767   8.440   5.190 -1.3929  0.3755 -0.6457
25798SOL     OW83998   0.845   2.158   4.098 -0.1485 -0.9977 -0.0131
25798SOL    HW183999   0.851   2.250   4.122  0.2957 -1.1996  0.6741
25798SOL    HW284000   0.917   2.145   4.037  0.8790 -1.2862  1.2299
25799SOL     OW84001   3.361  11.521  10.317 -0.1625 -0.0144 -0.5090
25799SOL    HW184002   3.381  11.598  10.369 -1.3473 -0.0557  0.0205
25799SOL    HW284003   3.268  11.527  10.298 -1.0454 -2.8372  2.1693
25800SOL     OW84004  12.386   9.633   6.270 -0.1381  0.2477 -0.5640
25800SOL    HW184005  12.404   9.648   6.363 -0.0720 -1.5104 -0.2505
25800SOL    HW284006  12.432   9.551   6.251 -0.7776  0.1999 -1.9666
25801SOL     OW84007   4.169  10.123   9.379 -0.2539  0.1767 -0.0725
25801SOL    HW184008   4.222  10.128   9.300 -2.0240 -0.0564 -1.3496
25801SOL    HW284009   4.170  10.030   9.403 -0.4835  0.0857 -0.4022
25802SOL     OW84010   6.453   4.486   7.641 -0.4980  0.2182 -0.4133
25802SOL    HW184011   6.549   4.493   7.650 -0.4959 -1.1854  1.3366
25802SOL    HW284012   6.420   4.565   7.685 -0.1413 -0.3877  1.0271
25803SOL     OW84013   2.233   6.912   0.213  0.6544 -0.6138 -0.2450
25803SOL    HW184014   2.175   6.923   0.138  0.1694 -1.5490 -0.0208
25803SOL    HW284015   2.177   6.926   0.289  1.2982  1.0861 -0.0297
25804SOL     OW84016   4.484   5.632  11.246 -0.0755  0.5917  0.5303
25804SOL    HW184017   4.552   5.620  11.180 -1.0331 -0.7124 -0.2654
25804SOL    HW284018   4.526   5.611  11.329  0.4847 -0.2509  0.0448
25805SOL     OW84019   9.769   0.058   8.739  0.8165 -0.3942 -0.0711
25805SOL    HW184020   9.800   0.008   8.663 -0.1333 -1.8853  0.4675
25805SOL    HW284021   9.675   0.069   8.724  0.7149 -0.2534  0.6410
25806SOL     OW84022   4.338   8.055  10.356 -0.8444 -0.2284 -0.5267
25806SOL    HW184023   4.406   7.989  10.366 -0.3405  0.0262 -2.0271
25806SOL    HW284024   4.264   8.021  10.405  0.7806  0.1759  2.4282
25807SOL     OW84025  10.437   0.961  10.239  0.6566  0.4166 -0.0212
25807SOL    HW184026  10.371   0.990  10.302 -1.7526 -1.3641 -1.5661
25807SOL    HW284027  10.434   0.865  10.244  1.5828  0.2706 -1.6731
25808SOL     OW84028   6.291   4.522   7.268 -0.0066 -0.6145 -0.2711
25808SOL    HW184029   6.248   4.595   7.225  1.1413 -0.9671 -2.1000
25808SOL    HW284030   6.384   4.543   7.266  0.1063 -0.1341  3.0992
25809SOL     OW84031   2.698   6.960  10.597 -0.0265 -0.1345  0.6290
25809SOL    HW184032   2.640   7.025  10.638  0.3524 -0.8855  2.4390
25809SOL    HW284033   2.724   7.000  10.514 -0.3303  1.7396  1.3930
25810SOL     OW84034  11.613   4.508   8.901  0.6373  0.4678  0.6153
25810SOL    HW184035  11.653   4.575   8.846 -2.7697  1.2810 -1.2136
25810SOL    HW284036  11.667   4.506   8.980  2.4907  3.3745 -0.3913
25811SOL     OW84037   8.656   3.316  11.863 -0.1564  0.9655  0.0544
25811SOL    HW184038   8.615   3.397  11.832  0.9002  0.8805 -1.7135
25811SOL    HW284039   8.750   3.330  11.851  0.0185 -0.7577 -1.0497
25812SOL     OW84040   3.719  10.320   1.566 -0.1749  0.1615  0.7219
25812SOL    HW184041   3.783  10.367   1.513  0.0884 -0.2534  0.6657
25812SOL    HW284042   3.651  10.294   1.504  0.6442 -1.2391  0.3618
25813SOL     OW84043   2.370   6.739  10.948  0.1664  0.1957 -0.2112
25813SOL    HW184044   2.384   6.666  11.009  2.0172  1.6953  1.2880
25813SOL    HW284045   2.308   6.796  10.994  0.2721  0.5167 -0.4672
25814SOL     OW84046   9.751   3.659  11.781 -0.2204 -0.1640  0.8860
25814SOL    HW184047   9.736   3.740  11.732 -2.9902 -2.1315 -1.9012
25814SOL    HW284048   9.706   3.673  11.864 -1.8984  0.7090 -0.1173
25815SOL     OW84049   5.695   3.535   8.891  0.2633 -0.0595 -0.4567
25815SOL    HW184050   5.647   3.600   8.942 -0.3616 -0.8723  0.0132
25815SOL    HW284051   5.679   3.559   8.800  0.1221  0.4961 -0.2869
25816SOL     OW84052   8.550   9.770   9.449  0.2456  0.0866  0.5592
25816SOL    HW184053   8.473   9.809   9.408 -0.0366 -0.3599  0.6567
25816SOL    HW284054   8.517   9.689   9.488  0.9352 -0.5166 -0.0984
25817SOL     OW84055   6.661   0.032   3.373  0.2241 -0.6602 -0.4685
25817SOL    HW184056   6.668  -0.063   3.376  1.1174 -0.6533 -1.6684
25817SOL    HW284057   6.567   0.050   3.372  0.0467 -1.5778 -1.1497
25818SOL     OW84058   5.742   9.699   7.093 -0.1845  0.3750 -0.0596
25818SOL    HW184059   5.729   9.785   7.053  1.1514  0.4309 -0.4440
25818SOL    HW284060   5.796   9.652   7.030 -2.6785 -1.5761 -0.9028
25819SOL     OW84061   4.076  10.335   2.452  0.0039 -0.2099  0.0043
25819SOL    HW184062   4.121  10.257   2.419 -1.3034 -0.8480 -0.3371
25819SOL    HW284063   4.089  10.401   2.384  0.1262 -0.4962 -0.2503
25820SOL     OW84064   6.269  11.323  12.236 -0.0961  0.2672 -0.0200
25820SOL    HW184065   6.320  11.399  12.266  0.5102  0.6067 -1.7989
25820SOL    HW284066   6.331  11.272  12.185 -1.2161  0.0322 -1.1847
25821SOL     OW84067   1.734   1.904   3.081  0.7813  0.0367 -0.1538
25821SOL    HW184068   1.718   1.832   3.020 -1.6316  1.8058 -1.8194
25821SOL    HW284069   1.679   1.884   3.157  0.5909 -0.1706 -0.3445
25822SOL     OW84070   7.058   3.596  10.397  0.2457  0.5378  0.1001
25822SOL    HW184071   7.118   3.532  10.360  1.5113  1.3146  0.7479
25822SOL    HW284072   7.101   3.680  10.384 -1.0119  1.1996 -0.0107
25823SOL     OW84073   8.090   9.026   2.916  0.4482  0.2003 -0.2892
25823SOL    HW184074   8.126   9.077   2.989  0.2978  0.2931 -0.2802
25823SOL    HW284075   8.088   9.088   2.843 -1.0439  0.6094  0.0827
25824SOL     OW84076   5.942  12.630   4.072 -0.8491 -0.1897 -0.0755
25824SOL    HW184077   5.980  12.644   4.159 -1.0397 -1.1984  0.1809
25824SOL    HW284078   6.000  12.566   4.031  0.2453  1.5655 -1.3727
25825SOL     OW84079   3.022   4.925   5.339  0.6049 -0.4651 -0.3405
25825SOL    HW184080   2.997   4.984   5.410  1.5997  0.5601 -0.8008
25825SOL    HW284081   3.106   4.888   5.368  0.8293 -0.3298 -0.8057
25826SOL     OW84082   7.509   7.766   0.619  0.4098  0.3212  0.9113
25826SOL    HW184083   7.447   7.822   0.571 -0.7143  0.7003  2.6965
25826SOL    HW284084   7.595   7.803   0.599  0.2850 -0.7941 -2.4108
25827SOL     OW84085   0.309   5.996  11.063  0.7121 -0.2005 -0.1645
25827SOL    HW184086   0.402   6.014  11.070  0.8063 -0.8616  0.4401
25827SOL    HW284087   0.280   5.987  11.154  0.1734 -0.5506 -0.3674
25828SOL     OW84088   8.392   8.949   2.185  0.0396 -0.2251  0.0671
25828SOL    HW184089   8.323   8.984   2.241  0.3565 -0.4536  0.6087
25828SOL    HW284090   8.402   9.014   2.116  0.6827  0.8073  1.1008
25829SOL     OW84091   1.094   4.031   3.542  0.0975 -0.8291  0.7202
25829SOL    HW184092   1.101   4.061   3.451  0.3117  1.7203  1.4884
25829SOL    HW284093   1.089   3.936   3.535 -0.4229 -0.7051 -1.9789
25830SOL     OW84094   7.948   0.806  10.054 -0.4368 -0.2450 -0.2566
25830SOL    HW184095   7.856   0.798  10.080 -0.4856 -2.6796 -0.9578
25830SOL    HW284096   7.997   0.779  10.131 -0.2455  1.3011  0.2033
25831SOL     OW84097   4.381   0.967   5.783 -0.1595 -0.5733  0.2247
25831SOL    HW184098   4.437   0.889   5.794  0.6227 -0.1842 -0.8336
25831SOL    HW284099   4.417   1.011   5.706 -1.2314  0.3047  0.2097
25832SOL     OW84100   1.907   9.117  12.562  0.0706  0.3127  0.1001
25832SOL    HW184101   1.951   9.195  12.529  2.3239 -1.1725 -0.6382
25832SOL    HW284102   1.871   9.143  12.647  1.3749  1.9510  0.1910
25833SOL     OW84103   8.593   0.638   9.563  0.3556 -1.0063 -0.2920
25833SOL    HW184104   8.665   0.577   9.548  0.8579 -0.6395  0.5135
25833SOL    HW284105   8.619   0.718   9.518 -0.1522 -1.2686 -1.0762
25834SOL     OW84106  10.256   4.900  12.105 -0.0739 -0.3253 -0.1021
25834SOL    HW184107  10.190   4.967  12.122 -1.2264 -1.1591 -1.0492
25834SOL    HW284108  10.223   4.822  12.150 -0.1079 -0.9202 -1.1008
25835SOL     OW84109   6.053   9.565   0.922  0.2963 -0.3431  0.0630
25835SOL    HW184110   5.996   9.642   0.917 -1.1347 -1.2948  0.9288
25835SOL    HW284111   6.015   9.503   0.858 -0.6081 -1.5536  1.7003
25836SOL     OW84112   9.019   6.371   6.981  0.0570 -0.1417 -0.1029
25836SOL    HW184113   9.028   6.352   7.075  0.8073 -0.5130 -0.2377
25836SOL    HW284114   9.038   6.287   6.939  0.5735  0.2294 -0.6177
25837SOL     OW84115   2.260  12.328   1.709  0.1563 -0.2625  0.2617
25837SOL    HW184116   2.228  12.261   1.649 -1.5910 -1.2915  2.2171
25837SOL    HW284117   2.316  12.281   1.771  2.7711  0.9444 -1.0230
25838SOL     OW84118  10.322   2.798   1.569  0.4313  0.1473  0.3808
25838SOL    HW184119  10.402   2.746   1.560  0.9202  0.8011  0.8434
25838SOL    HW284120  10.329   2.864   1.499 -1.0085 -1.4080 -1.3253
25839SOL     OW84121   3.026  11.296   5.876 -0.1755 -0.0417 -0.4341
25839SOL    HW184122   2.936  11.284   5.907 -0.2902 -1.7466 -1.2748
25839SOL    HW284123   3.022  11.278   5.782  1.0296 -0.0472 -0.5028
25840SOL     OW84124   5.663   7.624   9.731  0.4602 -0.2784  0.4171
25840SOL    HW184125   5.715   7.682   9.787  1.2928 -1.5789  1.0634
25840SOL    HW284126   5.685   7.536   9.763 -2.1796 -0.8965  0.7155
25841SOL     OW84127   6.814   7.797  10.757 -0.2467  0.0361  0.9520
25841SOL    HW184128   6.877   7.735  10.793  1.9008  2.1179  0.9525
25841SOL    HW284129   6.729   7.755  10.771  1.0979 -3.0306  0.6391
25842SOL     OW84130   3.495   4.676   4.124  0.1605  0.1131 -0.8739
25842SOL    HW184131   3.460   4.593   4.092 -1.7289  0.7530 -0.6157
25842SOL    HW284132   3.421   4.737   4.117  2.1127  2.4557 -3.3989
25843SOL     OW84133  10.512   3.699   0.926  0.1656 -0.1639 -0.0277
25843SOL    HW184134  10.429   3.712   0.971 -2.2374  0.1651 -4.0454
25843SOL    HW284135  10.538   3.610   0.949 -1.6137 -0.4690  0.9550
25844SOL     OW84136   1.002   8.436   6.813 -0.0234 -0.4628  0.5323
25844SOL    HW184137   1.018   8.346   6.841  0.2559 -0.0366  1.8336
25844SOL    HW284138   0.917   8.459   6.851 -0.8018 -0.6350 -1.0296
25845SOL     OW84139   8.339   7.661   1.424 -0.5593 -0.5419  0.7097
25845SOL    HW184140   8.420   7.636   1.469  0.0501  0.4072  0.1738
25845SOL    HW284141   8.367   7.722   1.356 -1.6139 -1.0203 -0.1789
25846SOL     OW84142   4.179   1.289  10.355 -0.3704 -1.1504 -0.3593
25846SOL    HW184143   4.162   1.296  10.449  0.7903  0.9398 -0.2275
25846SOL    HW284144   4.095   1.266  10.316 -1.2497 -0.4723  1.0711
25847SOL     OW84145   8.821  10.647   2.701 -0.5931  0.1871  0.2969
25847SOL    HW184146   8.915  10.637   2.687 -0.5638  1.3407 -0.4808
25847SOL    HW284147   8.781  10.582   2.642 -0.3354  1.9683 -2.0030
25848SOL     OW84148  11.992   7.202   5.263 -0.8350  0.4170 -0.4635
25848SOL    HW184149  12.049   7.275   5.242  0.1203  0.0554  0.8017
25848SOL    HW284150  11.907   7.242   5.283 -0.2214  1.2314  0.6050
25849SOL     OW84151   5.841  10.770   9.435 -0.1507  0.5987 -0.4826
25849SOL    HW184152   5.762  10.728   9.399 -0.9436 -0.2205  2.0392
25849SOL    HW284153   5.808  10.837   9.494  1.0875  1.5458 -0.8341
25850SOL     OW84154   2.392   1.420   5.537  0.5453  0.1281  0.3290
25850SOL    HW184155   2.328   1.355   5.508 -0.2035  1.3487 -0.8744
25850SOL    HW284156   2.340   1.497   5.560  1.5410  1.1743 -0.7580
25851SOL     OW84157   5.321   0.438   9.995 -0.2092 -0.7324 -0.1143
25851SOL    HW184158   5.289   0.457  10.083  0.4214 -2.4229  0.5217
25851SOL    HW284159   5.310   0.520   9.948 -0.8764  0.1239  1.4387
25852SOL     OW84160  11.080   8.017   0.182 -0.5552 -0.1146 -0.2450
25852SOL    HW184161  11.174   8.002   0.189 -0.6345 -0.8527 -0.7100
25852SOL    HW284162  11.050   7.953   0.118 -1.1280  1.1156 -1.2706
25853SOL     OW84163   9.407  10.761  10.080  0.6361 -0.3040 -0.0419
25853SOL    HW184164   9.404  10.771  10.175 -0.1733  0.1026 -0.1010
25853SOL    HW284165   9.425  10.849  10.047 -0.7727 -0.0854 -0.3172
25854SOL     OW84166   7.493   4.997   8.044  0.4754  0.0444 -0.5627
25854SOL    HW184167   7.508   5.064   7.977  0.7121  0.0546 -0.5007
25854SOL    HW284168   7.405   4.966   8.026  0.5513  0.0156 -0.9102
25855SOL     OW84169  12.372  12.566  10.208 -0.4618  0.3799  0.2418
25855SOL    HW184170  12.420  12.490  10.177 -2.5652 -1.3815  1.0869
25855SOL    HW284171  12.319  12.594  10.132  1.5689  2.2066 -0.6306
25856SOL     OW84172  11.177   2.238   0.294 -0.1901 -0.3724 -0.5079
25856SOL    HW184173  11.235   2.308   0.323  0.7868 -0.9126 -1.1074
25856SOL    HW284174  11.228   2.190   0.229 -0.6065 -2.0144  0.3191
25857SOL     OW84175   9.898  11.833  12.156  0.0500  0.1583  0.3749
25857SOL    HW184176   9.934  11.767  12.215 -0.2694 -0.3560  0.0062
25857SOL    HW284177   9.943  11.818  12.073  0.2994  0.6998  0.4093
25858SOL     OW84178   9.169   8.983   7.220 -0.3893 -0.2533 -0.3403
25858SOL    HW184179   9.208   8.946   7.141  0.5427 -0.2251  0.0956
25858SOL    HW284180   9.075   8.983   7.203 -0.1475  0.6231 -1.8220
25859SOL     OW84181   3.854  10.329   0.072 -0.2172  0.3002 -0.0285
25859SOL    HW184182   3.767  10.301   0.099  0.4471 -0.8881  1.0222
25859SOL    HW284183   3.913  10.274   0.123  1.1527  1.1707 -0.6207
25860SOL     OW84184   0.025  12.687   6.312  0.0386 -0.1298 -0.2580
25860SOL    HW184185   0.093  12.645   6.365 -0.7197  0.7357  1.5253
25860SOL    HW284186   0.056  12.777   6.301  0.5393 -0.4806 -2.0022
25861SOL     OW84187   5.254   8.598   0.175 -0.3140 -0.6858  0.3830
25861SOL    HW184188   5.327   8.658   0.187 -1.1286  0.0522  1.9544
25861SOL    HW284189   5.292   8.511   0.185  0.4571 -0.3408  0.4938
25862SOL     OW84190   1.310   6.474   1.569  0.6315  0.1846  0.3809
25862SOL    HW184191   1.336   6.534   1.639  1.2924  0.2277  0.1072
25862SOL    HW284192   1.260   6.529   1.508  0.8142  0.3456  0.3748
25863SOL     OW84193  12.672   0.059   3.715  0.3571 -0.5363  0.5655
25863SOL    HW184194  12.583   0.078   3.743  0.2263  2.0296 -1.2361
25863SOL    HW284195  12.665   0.046   3.620  2.0108  0.8715  0.2081
25864SOL     OW84196   0.563   4.596   3.495  0.5131 -0.0773 -0.2579
25864SOL    HW184197   0.603   4.572   3.579 -1.2867 -1.9695  0.1253
25864SOL    HW284198   0.473   4.618   3.517  0.7223  2.1964 -1.3792
25865SOL     OW84199   8.348   8.679   2.198 -0.0248 -0.2873  0.1698
25865SOL    HW184200   8.376   8.636   2.279 -1.0790 -0.4030  0.4815
25865SOL    HW284201   8.374   8.770   2.209 -0.1494 -0.3053  0.6363
25866SOL     OW84202   2.164   1.165  10.913  0.4193 -0.3705 -0.2878
25866SOL    HW184203   2.148   1.249  10.869  0.7548  0.0433  0.3659
25866SOL    HW284204   2.078   1.136  10.942  0.2471 -0.4583 -0.8675
25867SOL     OW84205  10.544   7.461   6.887 -0.1189 -0.2018 -0.1827
25867SOL    HW184206  10.519   7.399   6.956 -1.1673 -0.4690 -0.7830
25867SOL    HW284207  10.469   7.463   6.829  0.6425  0.2359 -1.1725
25868SOL     OW84208  12.076  12.034   6.473 -0.4019  0.3993  0.1814
25868SOL    HW184209  12.016  11.961   6.454  0.2713 -0.4746  1.2642
25868SOL    HW284210  12.022  12.100   6.514 -0.6588 -0.3415  1.0563
25869SOL     OW84211   2.865  11.012   7.819 -0.1368 -0.2564  0.2802
25869SOL    HW184212   2.793  10.962   7.779  1.0532 -1.1604 -0.8382
25869SOL    HW284213   2.890  11.075   7.752 -0.3222  0.5201  0.9294
25870SOL     OW84214   4.067   7.878   4.644  0.3418 -0.0338  0.1433
25870SOL    HW184215   4.025   7.800   4.680 -0.4285  1.3325  2.4997
25870SOL    HW284216   4.159   7.856   4.639  0.1522 -1.0644  0.8819
25871SOL     OW84217   0.874   5.852   2.211 -0.1075 -0.0837  0.0897
25871SOL    HW184218   0.903   5.774   2.257  1.9276  1.9940  2.6899
25871SOL    HW284219   0.827   5.903   2.277 -0.2029  1.4830 -1.1129
25872SOL     OW84220   2.946   1.029   6.299  0.6609  0.1210 -0.5341
25872SOL    HW184221   2.946   1.100   6.362  0.3425 -0.9642  0.7428
25872SOL    HW284222   2.853   1.016   6.278  0.6929 -0.1052 -0.5395
25873SOL     OW84223  11.363   2.158   5.065 -0.6694 -0.3021 -0.8714
25873SOL    HW184224  11.365   2.119   4.977 -1.5950  1.0734 -1.5437
25873SOL    HW284225  11.360   2.253   5.049  0.3487  0.0248  0.6770
25874SOL     OW84226   4.605   4.000   1.858 -0.1791 -0.1399  0.2479
25874SOL    HW184227   4.638   4.013   1.946  0.6346 -2.2240  0.3141
25874SOL    HW284228   4.535   3.935   1.868 -0.7403  0.3373 -0.5138
25875SOL     OW84229   5.810   1.680   3.093  0.2594  0.5049 -0.0532
25875SOL    HW184230   5.773   1.754   3.045 -0.6724 -0.4987 -0.9312
25875SOL    HW284231   5.896   1.667   3.053  0.4934  1.1966  0.2104
25876SOL     OW84232   8.004   8.738   1.140 -0.7724  0.1425  0.1003
25876SOL    HW184233   8.058   8.812   1.110 -0.8408  0.2483  0.2409
25876SOL    HW284234   8.061   8.690   1.200  0.4079 -1.6463 -2.2452
25877SOL     OW84235   5.607  10.259   7.391  0.0489  0.7395 -0.1611
25877SOL    HW184236   5.639  10.311   7.317 -0.9537  1.1546 -0.3160
25877SOL    HW284237   5.635  10.170   7.370  0.1736  0.9224 -0.8201
25878SOL     OW84238   8.894   4.533  10.546  0.4829  0.1053 -0.1723
25878SOL    HW184239   8.850   4.496  10.622 -0.1082  0.1867 -0.4712
25878SOL    HW284240   8.830   4.527  10.475  0.1330  2.2319 -0.1088
25879SOL     OW84241   4.600   6.661   4.276 -0.7615  0.0004  0.0386
25879SOL    HW184242   4.645   6.604   4.338 -1.1504 -0.1813  0.1584
25879SOL    HW284243   4.613   6.749   4.310 -0.7230 -0.0750  0.2178
25880SOL     OW84244   3.560   4.802  10.273  0.1578 -0.1329 -0.0990
25880SOL    HW184245   3.547   4.891  10.240 -1.1810  0.9600  2.9610
25880SOL    HW284246   3.650   4.801  10.305  0.5520 -0.3018 -1.1658
25881SOL     OW84247   7.343  11.111   3.154  0.0029 -0.7288 -0.4052
25881SOL    HW184248   7.348  11.207   3.149 -2.1419 -0.5603 -0.4602
25881SOL    HW284249   7.394  11.089   3.232  0.2266  0.5093 -0.1669
25882SOL     OW84250  10.381   5.052  10.901  0.0637 -0.1132  0.1947
25882SOL    HW184251  10.458   5.028  10.952  0.1293  2.2045  1.3036
25882SOL    HW284252  10.307   5.042  10.962 -0.0281  1.2690  0.3443
25883SOL     OW84253  12.546  10.205   7.773 -0.0283 -0.1896  0.2707
25883SOL    HW184254  12.478  10.272   7.773  1.1519  1.0577 -0.6247
25883SOL    HW284255  12.628  10.254   7.778  0.9905 -1.3685 -2.8738
25884SOL     OW84256  11.696   5.756   2.886 -0.2868 -0.2163  0.9545
25884SOL    HW184257  11.623   5.720   2.836 -1.4935  0.4344  2.1858
25884SOL    HW284258  11.762   5.778   2.819 -0.7004 -1.9058 -0.0652
25885SOL     OW84259   0.912   4.890  10.715  0.0461 -0.0181  0.1863
25885SOL    HW184260   0.891   4.978  10.745  0.4082  0.0483  0.2541
25885SOL    HW284261   0.828   4.852  10.689 -0.1799  0.1681  0.6343
25886SOL     OW84262  11.240   4.028   9.831 -0.5031 -0.0009  0.2399
25886SOL    HW184263  11.311   4.024   9.767 -1.7051  0.0621 -1.1495
25886SOL    HW284264  11.228   3.938   9.860  1.2314  0.2147  1.7767
25887SOL     OW84265  11.963  11.585  11.475 -0.5761  0.2917  0.3162
25887SOL    HW184266  11.875  11.550  11.485 -0.4597  0.0096  0.3727
25887SOL    HW284267  12.020  11.508  11.481 -0.2810  0.5507  0.9279
25888SOL     OW84268   5.542   0.721  11.405 -0.2037  0.3160 -0.2918
25888SOL    HW184269   5.633   0.697  11.424 -0.5844 -2.1065 -1.1222
25888SOL    HW284270   5.546   0.813  11.377  1.7155  0.7917  1.3412
25889SOL     OW84271  12.579   2.841  11.532 -0.2452 -0.4046 -0.0540
25889SOL    HW184272  12.576   2.840  11.628 -0.3870  0.0140 -0.0524
25889SOL    HW284273  12.617   2.927  11.511 -1.1286 -0.0891 -0.3929
25890SOL     OW84274  11.433   9.788   8.804 -0.6457  0.8251 -0.1636
25890SOL    HW184275  11.466   9.701   8.784  1.7069  1.1621  1.6855
25890SOL    HW284276  11.347   9.773   8.844  0.0155 -0.7489  0.7705
25891SOL     OW84277   7.968   7.184   0.250 -0.0865 -0.0256 -0.8220
25891SOL    HW184278   7.940   7.099   0.215 -1.2084 -0.8390  1.7826
25891SOL    HW284279   8.015   7.226   0.178  1.0616 -3.1076 -2.0158
25892SOL     OW84280   8.315   6.333   2.585 -0.3577 -0.6112 -0.1063
25892SOL    HW184281   8.269   6.256   2.551  0.2083 -0.1282 -2.1189
25892SOL    HW284282   8.407   6.317   2.563  0.0935 -0.3986  1.5616
25893SOL     OW84283  12.719   9.585   6.906 -0.0314 -0.5536 -0.4403
25893SOL    HW184284  12.712   9.679   6.887  1.5470 -0.8215 -2.7120
25893SOL    HW284285  12.774   9.580   6.984 -0.1933  0.3932 -0.2536
25894SOL     OW84286  11.210   1.666   7.836  0.7510 -0.3145 -0.1419
25894SOL    HW184287  11.178   1.627   7.918  1.0552 -1.0152 -0.3428
25894SOL    HW284288  11.272   1.601   7.803 -0.2537 -0.6045 -1.5414
25895SOL     OW84289   2.912   7.329   4.467  0.4340 -0.1370  0.1730
25895SOL    HW184290   3.005   7.346   4.451  0.4211  1.8278  1.8148
25895SOL    HW284291   2.912   7.270   4.543  0.3604  0.5188  0.6936
25896SOL     OW84292  12.654   8.806   3.155 -0.4193 -0.0409  0.3127
25896SOL    HW184293  12.693   8.893   3.152  1.4553 -0.7856  1.5493
25896SOL    HW284294  12.604   8.804   3.237 -0.5545 -0.0988  0.2297
25897SOL     OW84295   9.648   7.824   6.895 -0.2330  0.1878  0.0997
25897SOL    HW184296   9.604   7.777   6.965 -0.4832 -0.2634 -0.3534
25897SOL    HW284297   9.661   7.912   6.929 -0.1202 -0.0957  0.8069
25898SOL     OW84298   1.472   4.933   7.722 -0.1199  0.1379 -0.5710
25898SOL    HW184299   1.428   4.907   7.642 -0.5255 -3.1828  0.5740
25898SOL    HW284300   1.563   4.904   7.711 -0.4763 -1.5687  0.5916
25899SOL     OW84301  10.681   5.554   0.700  0.0543 -0.2522  0.0615
25899SOL    HW184302  10.668   5.521   0.789  0.0690  1.5595  0.7938
25899SOL    HW284303  10.660   5.480   0.643  1.8187 -2.0384  1.5788
25900SOL     OW84304   6.512   3.607   5.910  0.0143 -1.0177 -0.1481
25900SOL    HW184305   6.594   3.557   5.899  0.8654  0.1032  0.9529
25900SOL    HW284306   6.540   3.698   5.917 -1.3710 -0.5803 -0.0725
25901SOL     OW84307   8.589   7.383  10.477  0.8158 -0.5267 -0.0843
25901SOL    HW184308   8.494   7.393  10.470  1.0580  2.2971 -0.7407
25901SOL    HW284309   8.609   7.413  10.566  1.1356 -0.4082 -0.1965
25902SOL     OW84310  11.962   9.779   9.743 -0.1092 -0.0465  0.1808
25902SOL    HW184311  11.922   9.847   9.689 -1.5218 -0.9751 -0.0067
25902SOL    HW284312  11.997   9.716   9.681 -0.2773 -0.3076  0.3508
25903SOL     OW84313   8.484   0.218   4.279  0.1908 -0.4122 -0.8135
25903SOL    HW184314   8.497   0.286   4.213  1.6523  1.5435  1.3948
25903SOL    HW284315   8.422   0.256   4.341  1.2963 -0.9387  0.6488
25904SOL     OW84316   7.886   1.910  11.257 -0.0614  0.1730 -0.1297
25904SOL    HW184317   7.852   1.831  11.214  2.0408 -0.9257  0.0962
25904SOL    HW284318   7.926   1.877  11.338 -0.6314  1.7298  0.8269
25905SOL     OW84319   2.047   6.467   8.346  0.9093 -1.0204  0.4542
25905SOL    HW184320   2.012   6.450   8.258  1.3587 -1.6486  0.3941
25905SOL    HW284321   2.107   6.540   8.333  0.0823 -0.3145  0.4584
25906SOL     OW84322   0.608  11.852   7.775 -0.1629 -0.4743 -0.3734
25906SOL    HW184323   0.551  11.929   7.767  0.1499 -0.1755  0.2447
25906SOL    HW284324   0.647  11.843   7.688 -2.0041 -1.3731 -1.1554
25907SOL     OW84325   3.117   4.921   6.118 -0.4072  0.2095  0.1834
25907SOL    HW184326   3.185   4.924   6.051 -1.2759 -0.8553 -0.7689
25907SOL    HW284327   3.108   4.829   6.141 -1.9631  0.2337 -0.1818
25908SOL     OW84328   3.750  11.878   9.171  0.2757  0.2699  0.3676
25908SOL    HW184329   3.730  11.820   9.245  0.6800 -0.1579  0.1430
25908SOL    HW284330   3.664  11.904   9.137  0.0873 -0.8159 -0.0115
25909SOL     OW84331  12.384   4.560  12.709  0.2453  0.3182 -0.1785
25909SOL    HW184332  12.397   4.654  12.716 -1.6292  0.7236 -1.5399
25909SOL    HW284333  12.313   4.541  12.771  0.0054 -0.0356 -0.5573
25910SOL     OW84334   4.666   7.194   9.451 -0.1367 -0.0733 -0.2402
25910SOL    HW184335   4.650   7.240   9.533  0.0529 -1.5546  0.6630
25910SOL    HW284336   4.694   7.263   9.390  0.2075  0.9817  1.0593
25911SOL     OW84337  12.490   0.701  12.412 -0.0060 -0.3096 -0.4820
25911SOL    HW184338  12.422   0.766  12.393  1.0566  1.1762  0.5413
25911SOL    HW284339  12.457   0.652  12.487 -0.3561 -0.2327 -0.5843
25912SOL     OW84340   4.863   0.667   8.560  0.2333 -0.5323  0.2935
25912SOL    HW184341   4.878   0.600   8.493  0.6848  1.7240 -2.0135
25912SOL    HW284342   4.937   0.727   8.550 -1.2697  1.4933  0.6991
25913SOL     OW84343   4.595   4.491   5.322  0.6849 -0.0100 -0.1789
25913SOL    HW184344   4.684   4.489   5.358  0.6851  0.4484 -0.1413
25913SOL    HW284345   4.538   4.472   5.397  0.7417 -0.1045 -0.1604
25914SOL     OW84346  12.180   4.799  12.700 -0.0379  0.4504 -0.3126
25914SOL    HW184347  12.152   4.875  12.650 -1.0177  0.1644 -0.2173
25914SOL    HW284348  12.276   4.802  12.697 -0.0694  0.7392 -1.7323
25915SOL     OW84349   7.223  11.019   6.196 -0.1994  0.0415 -0.5768
25915SOL    HW184350   7.291  11.023   6.263  0.5853 -1.3088 -1.2637
25915SOL    HW284351   7.249  11.087   6.133 -0.0332  0.1898 -0.3539
25916SOL     OW84352   3.112   6.019   9.283  0.2047 -0.1433  0.5759
25916SOL    HW184353   3.022   5.993   9.305  0.2588 -0.7263  0.1197
25916SOL    HW284354   3.122   6.106   9.323  0.3317 -1.1689  2.9439
25917SOL     OW84355   2.260  11.268   7.150 -0.0363 -0.0741  0.5622
25917SOL    HW184356   2.215  11.323   7.214  0.5769  1.2988 -0.1470
25917SOL    HW284357   2.226  11.180   7.166 -1.3085  0.5532  1.5008
25918SOL     OW84358   5.431   0.838   1.595  0.3643  0.2530 -0.2357
25918SOL    HW184359   5.376   0.852   1.518  0.2842 -0.3139 -0.2917
25918SOL    HW284360   5.515   0.878   1.573  0.7156 -0.8873 -1.0878
25919SOL     OW84361  11.434   2.447   3.261 -0.1102 -0.0467  0.0616
25919SOL    HW184362  11.441   2.539   3.286  0.9366 -0.0589 -0.1643
25919SOL    HW284363  11.522   2.412   3.270 -0.4671 -0.9991  0.0054
25920SOL     OW84364   8.038   9.242   9.511  0.4495 -0.2870  0.0344
25920SOL    HW184365   8.093   9.304   9.559  0.3476  0.1544 -0.4108
25920SOL    HW284366   8.086   9.226   9.430  0.0700 -0.1236 -0.2283
25921SOL     OW84367   7.536  10.989   3.326 -0.0547  0.5263  0.2281
25921SOL    HW184368   7.614  10.990   3.271 -0.3637 -0.6799 -0.2706
25921SOL    HW284369   7.570  10.987   3.416  0.4606  1.5973  0.0670
25922SOL     OW84370   9.475   9.544  12.307 -0.1141  0.0022 -0.2857
25922SOL    HW184371   9.380   9.545  12.300 -0.0221 -1.4089 -2.6430
25922SOL    HW284372   9.502   9.634  12.286 -0.8788  0.0873 -0.9423
25923SOL     OW84373   8.835   6.258  11.991  0.0413  0.8618  0.1896
25923SOL    HW184374   8.797   6.217  12.069 -0.3271  0.2813 -0.2882
25923SOL    HW284375   8.766   6.254  11.925  0.9807 -0.4450 -0.7710
25924SOL     OW84376  10.324   5.883   0.384  0.5402 -0.1353  0.6242
25924SOL    HW184377  10.235   5.917   0.393  0.8905  0.9857  0.0424
25924SOL    HW284378  10.347   5.854   0.473 -0.1447  0.2484  0.9365
25925SOL     OW84379   8.852   2.128  12.505  0.3810  0.0322 -0.3876
25925SOL    HW184380   8.914   2.172  12.446  1.2455 -1.6995 -0.8389
25925SOL    HW284381   8.877   2.036  12.501 -2.7771 -0.9004 -1.2869
25926SOL     OW84382   6.983   7.729   9.103 -0.2881  0.2565  0.1875
25926SOL    HW184383   6.967   7.764   9.190 -0.5662  1.1192 -0.1990
25926SOL    HW284384   6.910   7.670   9.086 -1.2359  1.4967 -0.1749
25927SOL     OW84385   1.671   2.683  12.253 -0.0588  0.1753  0.1758
25927SOL    HW184386   1.682   2.684  12.158  0.6243  0.0972  0.2500
25927SOL    HW284387   1.747   2.634  12.286 -1.9731 -2.7531  0.5786
25928SOL     OW84388   2.469  10.979   1.615 -0.2632 -0.4927  0.2853
25928SOL    HW184389   2.484  10.953   1.524 -1.7507  0.4894 -0.2842
25928SOL    HW284390   2.387  11.028   1.612 -0.6080 -0.8881  2.2591
25929SOL     OW84391   9.882   7.195   7.859  0.5667  0.1890  0.4613
25929SOL    HW184392   9.951   7.152   7.808 -0.5467 -1.2590  0.1210
25929SOL    HW284393   9.877   7.145   7.940 -0.3054  0.0555  0.3353
25930SOL     OW84394   9.206   4.008  12.306  0.2711  0.6614  0.0657
25930SOL    HW184395   9.125   3.987  12.260  1.0849  0.4844 -1.3407
25930SOL    HW284396   9.177   4.049  12.388 -1.2746 -1.3070  0.6017
25931SOL     OW84397   3.190   9.412   4.799 -0.5909 -0.3757 -0.2250
25931SOL    HW184398   3.187   9.426   4.705 -0.4472 -1.2379 -0.3702
25931SOL    HW284399   3.227   9.492   4.835  0.8371 -0.6258 -1.0535
25932SOL     OW84400   0.459   2.623   5.628 -0.0599 -0.2605 -0.5034
25932SOL    HW184401   0.378   2.669   5.652  0.1667 -0.2112  0.2043
25932SOL    HW284402   0.441   2.531   5.648 -0.0858 -0.3084 -0.7447
25933SOL     OW84403   6.261   3.238   1.630 -0.1010  0.1926 -0.7867
25933SOL    HW184404   6.226   3.179   1.563  1.6420  1.0628 -2.5744
25933SOL    HW284405   6.185   3.286   1.662 -1.3221 -1.8368 -0.4405
25934SOL     OW84406   7.480   7.774   5.450  0.1100  0.6903 -0.1529
25934SOL    HW184407   7.555   7.806   5.501  2.4141 -2.5640 -1.1462
25934SOL    HW284408   7.426   7.728   5.515  1.2665 -0.5692 -0.0428
25935SOL     OW84409   5.487   3.071  10.333  0.2390 -0.4956 -0.4590
25935SOL    HW184410   5.426   3.006  10.369 -0.1959 -0.6876 -1.5215
25935SOL    HW284411   5.548   3.087  10.405 -1.1381 -0.1771  0.6999
25936SOL     OW84412  10.836  12.387   7.791  0.4332 -0.2430 -0.5090
25936SOL    HW184413  10.854  12.302   7.832 -0.7607 -0.0595  0.4821
25936SOL    HW284414  10.910  12.442   7.814 -0.2989 -0.0810  1.6946
25937SOL     OW84415   3.525   2.092   7.462 -0.0362  0.2044 -0.1014
25937SOL    HW184416   3.535   1.997   7.464  1.1440  0.3194  0.0816
25937SOL    HW284417   3.520   2.118   7.554  0.3870  0.3854 -0.1269
25938SOL     OW84418  12.118   8.560   4.506  0.2974  0.1075  0.1051
25938SOL    HW184419  12.138   8.592   4.594 -1.8296 -1.6331  1.3280
25938SOL    HW284420  12.187   8.595   4.451  1.4299  1.6597  2.3842
25939SOL     OW84421  11.382   8.154   3.291  0.5122 -0.5059  0.4662
25939SOL    HW184422  11.396   8.133   3.383 -0.4434  2.0262  1.2729
25939SOL    HW284423  11.335   8.237   3.292  2.3203  0.6805 -2.3465
25940SOL     OW84424   2.752  12.508  10.628  0.5173  0.2118  0.5396
25940SOL    HW184425   2.669  12.554  10.615  0.8881  0.9460  0.7404
25940SOL    HW284426   2.759  12.448  10.554  0.6077  1.3411 -0.3848
25941SOL     OW84427   3.808   3.151   1.332 -0.4634 -0.5227  0.1830
25941SOL    HW184428   3.734   3.162   1.272 -0.7975 -0.4455  0.6053
25941SOL    HW284429   3.870   3.098   1.283  0.1649  1.2428 -1.0145
25942SOL     OW84430   2.868  10.907   8.888  0.0819  0.4738  0.3380
25942SOL    HW184431   2.932  10.955   8.835 -1.1500  1.1870 -0.5395
25942SOL    HW284432   2.784  10.949   8.869 -0.7979 -1.0135  0.7875
25943SOL     OW84433  12.577   9.320   7.202 -0.1945 -0.3652  0.0149
25943SOL    HW184434  12.541   9.322   7.291  0.5111 -0.4867  0.3110
25943SOL    HW284435  12.615   9.233   7.193  0.9942  0.1347  0.1095
25944SOL     OW84436   4.626   3.844   3.173 -0.4394 -0.7577 -0.2327
25944SOL    HW184437   4.655   3.755   3.191  1.1065 -0.3562 -0.5697
25944SOL    HW284438   4.707   3.895   3.169 -1.3169  0.7482  0.3783
25945SOL     OW84439   0.159   0.891   6.969  0.0105 -0.2754 -0.0698
25945SOL    HW184440   0.139   0.955   7.037  0.0715 -1.0763  0.7285
25945SOL    HW284441   0.232   0.839   7.005  0.6903 -0.1077 -1.1518
25946SOL     OW84442   8.692   9.900   8.666 -0.3918  0.0768 -0.2843
25946SOL    HW184443   8.642   9.942   8.735  0.8010 -0.1726  0.7559
25946SOL    HW284444   8.660   9.809   8.665  0.0571 -0.0923  0.3993
25947SOL     OW84445  11.334   1.844   6.510  0.0062  0.1692 -0.3707
25947SOL    HW184446  11.403   1.831   6.445 -0.0953  1.0536 -0.6639
25947SOL    HW284447  11.297   1.757   6.523  1.1213 -0.3085 -0.2577
25948SOL     OW84448  12.134   9.742  12.176 -0.2575  0.2754  0.1043
25948SOL    HW184449  12.192   9.666  12.185 -1.4501 -0.4588  2.1579
25948SOL    HW284450  12.173   9.809  12.231 -0.4160  0.3796  0.0893
25949SOL     OW84451   3.929   3.154  10.710  0.5290 -0.1329 -0.1511
25949SOL    HW184452   3.861   3.115  10.765  0.5503  1.1155  0.8057
25949SOL    HW284453   3.989   3.083  10.691 -0.4697 -1.0075 -0.1061
25950SOL     OW84454   7.682   7.069  12.111  0.0613 -0.0047  0.2202
25950SOL    HW184455   7.651   7.134  12.048  1.1274 -0.6155 -0.9752
25950SOL    HW284456   7.752   7.115  12.159 -0.3124  0.2549  0.5197
25951SOL     OW84457   5.348   1.451   3.316  0.1444 -0.4035  0.0827
25951SOL    HW184458   5.282   1.508   3.275  1.2064  0.9459  0.1687
25951SOL    HW284459   5.330   1.364   3.280 -1.7785 -0.1078  0.2441
25952SOL     OW84460   5.285   5.938   1.046 -0.1191 -0.3248  0.0809
25952SOL    HW184461   5.275   5.899   1.133  0.1778  0.2494  0.3791
25952SOL    HW284462   5.339   5.876   0.997 -2.4848 -2.0155 -0.5902
25953SOL     OW84463   1.002  12.025   7.166 -0.2187 -0.0007  0.0128
25953SOL    HW184464   0.937  12.082   7.207 -0.5498 -1.0026  0.9317
25953SOL    HW284465   1.086  12.070   7.179 -0.3511 -0.1484  1.5582
25954SOL     OW84466  12.320   3.702   3.174  0.6339 -0.3132 -0.1483
25954SOL    HW184467  12.322   3.762   3.248 -0.6845 -0.7680  0.2838
25954SOL    HW284468  12.402   3.653   3.181 -0.9599 -2.9078  3.2311
25955SOL     OW84469   7.719   0.794   3.841 -0.8928  0.1925  0.2331
25955SOL    HW184470   7.725   0.711   3.794  0.5052 -0.1606  0.9772
25955SOL    HW284471   7.771   0.781   3.920 -1.7389  1.3481  1.0289
25956SOL     OW84472   1.515   6.199   4.830  0.2991  0.0235  0.4709
25956SOL    HW184473   1.538   6.148   4.908 -0.9342 -0.3054  0.6307
25956SOL    HW284474   1.424   6.225   4.844  1.0770  2.9607  0.7475
25957SOL     OW84475   6.608   2.242   1.219 -0.0521  0.2640  0.3172
25957SOL    HW184476   6.662   2.165   1.201  0.0226  0.1189  1.1371
25957SOL    HW284477   6.555   2.217   1.295  0.7512  1.4133  1.2813
25958SOL     OW84478   2.882   6.913   7.757  0.4379 -0.4625 -0.3431
25958SOL    HW184479   2.808   6.871   7.713 -0.2571 -1.3483  1.5504
25958SOL    HW284480   2.867   6.896   7.850  2.0968  0.8861  0.2235
25959SOL     OW84481   1.735   4.945   9.725  0.1350 -0.0630  0.0962
25959SOL    HW184482   1.776   5.031   9.717 -0.6307  0.3408  0.4281
25959SOL    HW284483   1.787   4.900   9.792  2.1665 -0.8600 -1.8777
25960SOL     OW84484   1.859   1.745   2.036  0.2805 -0.1421 -0.1543
25960SOL    HW184485   1.809   1.706   1.964 -0.2220 -1.9903  1.1225
25960SOL    HW284486   1.940   1.693   2.038 -0.2649 -0.9978  1.3830
25961SOL     OW84487  10.058  11.783  11.947  0.2508 -0.4860  0.2599
25961SOL    HW184488  10.119  11.803  12.018 -0.5712  0.4471  0.7252
25961SOL    HW284489  10.105  11.720  11.892  1.1299 -0.7719  1.3037
25962SOL     OW84490   3.244   2.584  10.197 -0.2487 -0.4890 -0.3909
25962SOL    HW184491   3.161   2.542  10.173  0.0005 -1.6120  0.5843
25962SOL    HW284492   3.240   2.592  10.293  0.6535 -0.3167 -0.3552
25963SOL     OW84493  12.520  10.785   5.951 -0.1385  0.2147  0.4574
25963SOL    HW184494  12.535  10.847   5.880  0.5757  0.9804  1.2550
25963SOL    HW284495  12.542  10.834   6.031  0.7645 -1.1625  1.0838
25964SOL     OW84496   7.499   5.660   6.181 -0.3303  0.7578  0.3207
25964SOL    HW184497   7.580   5.698   6.146 -0.0041  0.3273  0.5986
25964SOL    HW284498   7.495   5.692   6.271 -0.3884  0.6574  0.3533
25965SOL     OW84499  11.846   2.118   5.258  0.6520 -0.3231 -0.4912
25965SOL    HW184500  11.773   2.174   5.234  1.6134  1.5618  0.8111
25965SOL    HW284501  11.831   2.096   5.350  0.4902 -1.9759 -0.8654
25966SOL     OW84502   5.593  10.710   2.672  0.0100 -0.8247 -0.3378
25966SOL    HW184503   5.533  10.706   2.747  1.8504 -1.0338  1.2153
25966SOL    HW284504   5.581  10.798   2.637 -1.5143 -1.0236 -0.3562
25967SOL     OW84505   2.013  11.632  10.231  0.2892 -0.6394  0.0853
25967SOL    HW184506   2.014  11.727  10.247  0.2089 -0.6364  0.0724
25967SOL    HW284507   1.970  11.623  10.145 -0.2192 -0.7230  0.3418
25968SOL     OW84508   1.450   5.677   0.836 -0.5214 -0.0827 -0.0540
25968SOL    HW184509   1.373   5.665   0.780 -1.0108  0.2139  0.5449
25968SOL    HW284510   1.485   5.589   0.847  1.5145  0.1020 -3.4352
25969SOL     OW84511  10.216   9.228   4.262  0.6192 -0.1571 -0.4925
25969SOL    HW184512  10.124   9.225   4.286  0.1531  1.5382 -1.8801
25969SOL    HW284513  10.262   9.200   4.341 -1.0353 -0.1906  0.5077
25970SOL     OW84514  11.420   4.435   6.327  0.1756  0.0971  0.5614
25970SOL    HW184515  11.326   4.421   6.341  0.0636  0.5902  0.3218
25970SOL    HW284516  11.454   4.457   6.413  0.2576 -1.0824  0.8474
25971SOL     OW84517   3.815  11.103  11.233 -0.6293  0.8792 -0.5383
25971SOL    HW184518   3.849  11.192  11.228 -1.1795  1.1102 -0.3087
25971SOL    HW284519   3.885  11.052  11.274 -0.6787  1.4050  0.2097
25972SOL     OW84520   1.739  10.403  12.346  0.9879 -0.4523 -0.5820
25972SOL    HW184521   1.711  10.346  12.418  2.0042 -0.1591  0.0656
25972SOL    HW284522   1.819  10.363  12.314  1.3549  0.2491 -0.5562
25973SOL     OW84523   6.592  10.817   2.187 -0.5709 -0.0683 -0.1061
25973SOL    HW184524   6.671  10.785   2.142 -0.9510  0.0442 -0.8608
25973SOL    HW284525   6.626  10.877   2.254  0.2258 -2.5292  1.8673
25974SOL     OW84526   6.893   4.372  11.627 -0.2607 -0.0348  0.6659
25974SOL    HW184527   6.841   4.434  11.679 -0.5844 -0.7315  1.1856
25974SOL    HW284528   6.852   4.287  11.642  0.1074 -0.3663 -0.1365
25975SOL     OW84529   7.306   6.881  10.546 -0.3014 -0.1995 -0.4496
25975SOL    HW184530   7.302   6.833  10.629 -1.6023 -0.2905 -0.5471
25975SOL    HW284531   7.360   6.826  10.489 -1.1905 -1.2266 -0.3365
25976SOL     OW84532   4.041   6.644   8.166  0.0364 -0.0097  0.0467
25976SOL    HW184533   4.063   6.559   8.204 -2.0391 -0.7954 -0.3999
25976SOL    HW284534   4.094   6.649   8.086  1.8686  0.1647  1.2251
25977SOL     OW84535   7.469   9.747   0.952 -0.3992 -0.1068 -0.0874
25977SOL    HW184536   7.468   9.813   0.883 -0.4535  0.2933  0.2849
25977SOL    HW284537   7.381   9.751   0.990  0.2983  1.3368  1.5193
25978SOL     OW84538  11.970   8.656   6.658  0.4024 -0.2021  0.1373
25978SOL    HW184539  12.005   8.711   6.588  0.2225 -1.8762 -1.3569
25978SOL    HW284540  12.039   8.591   6.673 -0.2988 -0.9414  0.2172
25979SOL     OW84541   3.342   5.102  11.509 -0.1493 -0.3986  0.0668
25979SOL    HW184542   3.393   5.164  11.457 -1.6636  0.8942  0.0354
25979SOL    HW284543   3.258   5.096  11.463  0.2004 -3.1480 -0.3994
25980SOL     OW84544   9.003   6.568  10.728  0.5247 -0.4469 -0.4847
25980SOL    HW184545   9.040   6.641  10.678  0.8163 -0.1512  0.1585
25980SOL    HW284546   9.065   6.553  10.799 -0.4386 -0.1350  0.4415
25981SOL     OW84547   8.661   7.802  10.048  0.3385  0.1051 -0.4798
25981SOL    HW184548   8.649   7.750  10.128  0.6199 -2.4160 -1.9984
25981SOL    HW284549   8.746   7.773  10.013  1.3249  2.8144 -0.5904
25982SOL     OW84550   3.594   1.551   7.953 -0.7060  0.1716 -0.3204
25982SOL    HW184551   3.544   1.469   7.945  1.1552 -0.9408 -1.4040
25982SOL    HW284552   3.634   1.545   8.040  1.1030 -1.1610 -1.1769
25983SOL     OW84553   8.908  10.423   1.402  0.7956  1.0625 -0.2658
25983SOL    HW184554   8.877  10.410   1.312 -1.9805 -0.3284  0.7918
25983SOL    HW284555   8.942  10.338   1.429  3.7383  2.0015 -0.6124
25984SOL     OW84556  10.342   7.749  12.623 -0.4026 -0.1063  0.6363
25984SOL    HW184557  10.290   7.694  12.564 -0.7642  1.0544 -0.1721
25984SOL    HW284558  10.316   7.839  12.601  2.1552  0.5592 -0.0627
25985SOL     OW84559   2.088   5.101   8.161  0.1871 -0.0856 -0.1913
25985SOL    HW184560   2.014   5.099   8.222  1.0667 -0.1461  0.8837
25985SOL    HW284561   2.121   5.190   8.166  1.1545 -0.4687  0.5215
25986SOL     OW84562   2.638   7.973  12.742 -0.5791 -0.1481 -0.4762
25986SOL    HW184563   2.575   7.919  12.693 -0.6467 -2.2300  1.7211
25986SOL    HW284564   2.589   8.004  12.818  0.2543  0.7443 -0.2883
25987SOL     OW84565  10.045   7.500   6.717  0.0132  0.9598  0.1179
25987SOL    HW184566  10.124   7.449   6.696  0.1342  1.4530 -0.6852
25987SOL    HW284567  10.077   7.573   6.771  0.0964  1.0924 -0.1072
25988SOL     OW84568  11.704  11.588  11.593  0.1156 -0.1058  0.0193
25988SOL    HW184569  11.737  11.568  11.680 -0.2822 -1.0083 -0.0316
25988SOL    HW284570  11.635  11.524  11.578  0.6827 -0.4417 -1.2559
25989SOL     OW84571  12.040   1.426   6.062  0.5529  0.5245 -0.4244
25989SOL    HW184572  12.071   1.508   6.102  1.3987  0.7470 -1.4954
25989SOL    HW284573  12.038   1.445   5.968  1.4233 -0.8999 -0.7582
25990SOL     OW84574   6.897   7.849   7.156 -0.6004 -0.6927  0.4631
25990SOL    HW184575   6.932   7.762   7.174 -2.6644 -1.1324  3.0084
25990SOL    HW284576   6.957   7.909   7.200 -0.2665 -0.9904  0.4146
25991SOL     OW84577   6.667   8.997  11.427  0.3068  0.1307  0.0545
25991SOL    HW184578   6.588   9.014  11.478 -0.4312 -0.4970 -0.8520
25991SOL    HW284579   6.664   9.062  11.356  0.6706  0.1918  0.0929
25992SOL     OW84580   9.376   8.631   6.664 -0.5823  0.7962 -0.1737
25992SOL    HW184581   9.301   8.688   6.649 -0.4715  0.9762 -0.0462
25992SOL    HW284582   9.358   8.590   6.749 -1.2574 -0.3030 -0.8280
25993SOL     OW84583   7.878  10.877   5.657  0.3049  0.1509  0.2404
25993SOL    HW184584   7.868  10.938   5.584  0.7727 -0.8394 -0.6810
25993SOL    HW284585   7.898  10.932   5.732  3.2592  1.0161 -1.0306
25994SOL     OW84586   4.031   0.608   4.466  0.3288 -0.6526 -0.2252
25994SOL    HW184587   4.115   0.575   4.433  1.2503  0.7564  0.6270
25994SOL    HW284588   3.978   0.621   4.387  1.9779  1.2622 -1.0808
25995SOL     OW84589   3.535  10.089   6.171 -0.0143 -0.0167 -0.2771
25995SOL    HW184590   3.606  10.065   6.112  0.0693 -0.5779  0.0424
25995SOL    HW284591   3.578  10.102   6.256 -0.1420  0.7114 -0.3182
25996SOL     OW84592   4.485   2.890   1.179  0.1801 -0.0537 -0.2505
25996SOL    HW184593   4.569   2.903   1.136 -0.1135 -1.0034 -1.1765
25996SOL    HW284594   4.499   2.815   1.237  0.0391 -0.0644 -0.2293
25997SOL     OW84595   6.779   5.767   4.886  0.5470 -1.0186  0.1226
25997SOL    HW184596   6.730   5.702   4.835 -1.5547  0.8728 -0.4427
25997SOL    HW284597   6.745   5.758   4.975 -1.7401  0.9693 -0.4619
25998SOL     OW84598   2.600   7.374   1.933 -0.4634  0.7843 -0.1141
25998SOL    HW184599   2.690   7.394   1.956  0.0606 -0.5871 -0.8287
25998SOL    HW284600   2.549   7.400   2.009  0.0489  4.7864 -0.9455
25999SOL     OW84601   3.025  12.155   0.615 -0.3919 -0.1290  0.0243
25999SOL    HW184602   3.037  12.070   0.573  1.1460 -0.1944  0.5156
25999SOL    HW284603   3.084  12.153   0.691 -1.5058  0.7872  0.9605
26000SOL     OW84604   6.366   9.505  12.165  0.0500 -0.6615 -0.2883
26000SOL    HW184605   6.364   9.601  12.163 -0.1264 -0.6680 -0.4380
26000SOL    HW284606   6.439   9.481  12.107  0.0990 -0.6189 -0.2448
26001SOL     OW84607  11.357  10.965   5.456  0.4235  0.0110 -0.6037
26001SOL    HW184608  11.396  11.052   5.446  0.3829  0.0068 -0.8028
26001SOL    HW284609  11.430  10.904   5.441  1.2764 -0.0047  2.8080
26002SOL     OW84610  10.990  11.309   2.594  0.2221 -0.6786  0.3214
26002SOL    HW184611  11.034  11.343   2.672 -0.0813  0.2587  0.1026
26002SOL    HW284612  10.971  11.387   2.541 -0.7733 -1.1534 -0.0623
26003SOL     OW84613   4.851  11.437   7.046  0.2558  0.1917 -0.4169
26003SOL    HW184614   4.851  11.409   6.954 -0.8010 -0.1224 -0.3351
26003SOL    HW284615   4.789  11.377   7.088 -0.3262  1.2229  0.2196
26004SOL     OW84616  10.405  10.049   6.108 -0.0609  0.1814  0.4660
26004SOL    HW184617  10.322  10.097   6.104 -0.6970 -0.9646 -1.6457
26004SOL    HW284618  10.396   9.993   6.185 -0.8103  0.8282  0.8641
26005SOL     OW84619   0.862  12.066   0.746  0.0872  0.2778 -0.1391
26005SOL    HW184620   0.831  11.992   0.797 -1.9101  0.5919 -0.7863
26005SOL    HW284621   0.957  12.057   0.745  0.0490 -0.9358  1.7563
26006SOL     OW84622   9.573   1.193   5.312 -0.3192 -0.3212  0.6370
26006SOL    HW184623   9.510   1.220   5.244 -0.7318  0.2521  1.2378
26006SOL    HW284624   9.624   1.124   5.270 -2.8075 -2.4413  0.8228
26007SOL     OW84625   7.580   6.498   7.217  0.9079  0.1796 -0.2955
26007SOL    HW184626   7.589   6.532   7.306  2.3311  0.9976 -0.7220
26007SOL    HW284627   7.487   6.506   7.198  0.8905  2.0929  0.3386
26008SOL     OW84628  11.538   7.507   9.649  0.2036 -0.4353  0.3811
26008SOL    HW184629  11.473   7.466   9.705  0.3963 -0.0251  0.9108
26008SOL    HW284630  11.587   7.565   9.707  2.2113 -2.0345  0.3729
26009SOL     OW84631   5.744   0.540   0.687  0.2648  0.0855 -0.2639
26009SOL    HW184632   5.721   0.621   0.641  1.0276  0.5895  0.2250
26009SOL    HW284633   5.745   0.565   0.780 -0.2086 -0.6635 -0.0530
26010SOL     OW84634   1.044  10.820  10.083  0.2935  0.8549  0.1577
26010SOL    HW184635   1.061  10.870  10.163  4.1944 -0.6581  0.5405
26010SOL    HW284636   1.055  10.728  10.109 -2.4168  0.0058 -1.3618
26011SOL     OW84637   3.991   6.081  12.500  0.2320 -0.0256 -0.4021
26011SOL    HW184638   3.954   6.098  12.586 -0.1842 -0.6457 -0.4583
26011SOL    HW284639   4.049   6.006  12.512  2.1421  1.3916 -0.1415
26012SOL     OW84640   7.381   0.222   0.226 -0.2909  0.1342  0.4350
26012SOL    HW184641   7.309   0.244   0.167  0.2018  0.0540 -0.2012
26012SOL    HW284642   7.422   0.307   0.246 -1.8683  0.4712  2.5441
26013SOL     OW84643   2.288   6.630   0.325  0.3959 -0.2886 -0.6291
26013SOL    HW184644   2.268   6.711   0.279 -2.2868 -0.2899  0.3803
26013SOL    HW284645   2.309   6.567   0.255  2.6517  1.2185 -1.4147
26014SOL     OW84646   4.602  11.983   4.557 -0.2585 -0.4348 -0.2466
26014SOL    HW184647   4.672  12.024   4.506 -2.3664  3.6155 -0.3149
26014SOL    HW284648   4.625  12.000   4.648 -0.5775 -0.1088 -0.2246
26015SOL     OW84649   4.238   2.547   5.217 -0.0485  0.5308 -0.5580
26015SOL    HW184650   4.227   2.532   5.311  2.6967 -1.9881 -0.4853
26015SOL    HW284651   4.179   2.483   5.176 -1.0637  1.4626 -0.5883
26016SOL     OW84652  10.853   7.540   3.819 -0.8189  0.1550 -0.5230
26016SOL    HW184653  10.938   7.546   3.863 -1.1952 -0.0525  0.2583
26016SOL    HW284654  10.874   7.529   3.727 -0.0001  0.3377 -0.3688
26017SOL     OW84655  12.619   6.909   1.596 -0.1140  0.2553  0.5571
26017SOL    HW184656  12.571   6.862   1.527  0.5375 -0.5318  0.6312
26017SOL    HW284657  12.552   6.963   1.639 -0.5185  0.7993 -0.7131
26018SOL     OW84658   1.507   9.319  12.262  0.0629 -0.2873  0.4294
26018SOL    HW184659   1.412   9.314  12.253 -0.0839 -0.3894  1.7769
26018SOL    HW284660   1.522   9.317  12.357  1.3274  1.4252  0.3056
26019SOL     OW84661   8.591  11.639   1.548 -0.5956  0.0748 -0.1157
26019SOL    HW184662   8.628  11.727   1.543 -2.4420  0.8662 -1.1842
26019SOL    HW284663   8.505  11.652   1.589 -1.6486 -0.9090 -1.8837
26020SOL     OW84664   7.836   6.574  10.050 -0.1590  0.1581  0.2227
26020SOL    HW184665   7.799   6.588  10.136  0.1970 -0.8984  0.5669
26020SOL    HW284666   7.921   6.618  10.052 -0.1302  0.0908  0.4255
26021SOL     OW84667   8.026   0.130  12.712 -0.0817  0.3398  0.0687
26021SOL    HW184668   7.932   0.114  12.715 -0.1060  0.5686  2.2771
26021SOL    HW284669   8.066   0.048  12.740  0.1358  1.2609  2.8472
26022SOL     OW84670   5.212   2.047   7.310 -0.6327 -0.3921  0.0842
26022SOL    HW184671   5.201   2.047   7.215 -1.1206  0.5425  0.1336
26022SOL    HW284672   5.149   1.983   7.341 -1.2498  0.0990 -0.1431
26023SOL     OW84673   9.636   5.058   9.174  0.1767 -0.0213 -0.4065
26023SOL    HW184674   9.692   4.995   9.218 -0.7156 -1.1278 -0.8056
26023SOL    HW284675   9.587   5.100   9.245 -1.7374 -2.2614 -0.2755
26024SOL     OW84676   0.896   1.482   4.981 -0.0058 -0.1421  0.6415
26024SOL    HW184677   0.948   1.459   5.058  1.3434 -0.3633 -0.2811
26024SOL    HW284678   0.962   1.503   4.914 -0.9778 -2.8837 -1.3713
26025SOL     OW84679   3.908   8.179   6.575  0.1306  0.4130 -0.4186
26025SOL    HW184680   3.975   8.130   6.528 -2.0709 -0.7233 -2.6087
26025SOL    HW284681   3.956   8.250   6.618  2.8659 -1.1080 -0.7198
26026SOL     OW84682   0.813   6.242   3.874 -0.1505 -0.0235 -0.4508
26026SOL    HW184683   0.907   6.247   3.890 -0.0350 -1.3981 -0.5772
26026SOL    HW284684   0.795   6.313   3.813  1.0941 -0.7515 -1.7169
26027SOL     OW84685  10.402   4.421  12.308 -0.1587  0.3561 -0.0326
26027SOL    HW184686  10.355   4.364  12.370  0.3136  0.3635  0.3389
26027SOL    HW284687  10.487   4.378  12.297 -0.4367  0.0409 -1.1323
26028SOL     OW84688   5.276   8.015   5.794  0.7008 -0.4205 -0.1879
26028SOL    HW184689   5.278   8.094   5.740 -1.0848 -0.7834 -0.8436
26028SOL    HW284690   5.266   8.048   5.883  0.7289  0.1120 -0.3752
26029SOL     OW84691  10.799   6.192   2.081  0.0598 -0.2624 -0.7227
26029SOL    HW184692  10.827   6.154   2.165  0.8762 -1.1725 -1.3850
26029SOL    HW284693  10.866   6.258   2.062 -0.0457 -0.1583 -0.7323
26030SOL     OW84694  12.431   9.788   3.670 -0.0494 -0.1145 -0.5646
26030SOL    HW184695  12.444   9.698   3.642 -0.6307 -0.3555 -0.0898
26030SOL    HW284696  12.387   9.781   3.755  0.0543  0.6120 -0.4405
26031SOL     OW84697   1.484   1.433  11.799 -0.3540  0.3280  0.3084
26031SOL    HW184698   1.568   1.396  11.827 -0.2745 -0.1703 -0.5382
26031SOL    HW284699   1.497   1.528  11.801  1.5359  0.3468 -3.3441
26032SOL     OW84700   1.231   6.394   1.948  0.4825 -0.5181 -0.2290
26032SOL    HW184701   1.184   6.427   1.871 -0.4202  0.7548  0.8320
26032SOL    HW284702   1.316   6.439   1.945 -0.8419  2.3358  1.3656
26033SOL     OW84703   7.828  10.457   0.362  0.6615 -0.9318  0.3246
26033SOL    HW184704   7.811  10.440   0.455 -1.7533 -0.8418 -0.0203
26033SOL    HW284705   7.767  10.399   0.316  2.0507 -1.2145 -1.2413
26034SOL     OW84706   0.428   0.994   6.243 -0.5525 -0.1178  0.2739
26034SOL    HW184707   0.340   0.997   6.282 -0.6363 -0.6479  0.1406
26034SOL    HW284708   0.412   0.984   6.149 -0.3484  0.6543  0.1490
26035SOL     OW84709   7.130  10.316  10.086  0.4533 -0.0969 -0.1521
26035SOL    HW184710   7.094  10.229  10.069 -0.6868  0.3961 -0.3404
26035SOL    HW284711   7.199  10.302  10.150 -1.2354 -0.8797  1.5838
26036SOL     OW84712  11.802   2.889   3.321 -0.0611 -0.6175 -0.3429
26036SOL    HW184713  11.753   2.922   3.397 -1.3415 -1.3364 -0.8165
26036SOL    HW284714  11.890   2.924   3.332 -0.5188  0.2250  0.8764
26037SOL     OW84715   2.930  11.787   8.294  0.7646 -0.2958 -0.0331
26037SOL    HW184716   3.012  11.828   8.323 -0.1701  0.3842  1.7881
26037SOL    HW284717   2.870  11.800   8.367 -0.3961 -2.5355 -0.5274
26038SOL     OW84718   0.556   6.532   1.198  0.0107  0.3807  0.0760
26038SOL    HW184719   0.560   6.514   1.104  1.4295  1.2625 -0.0644
26038SOL    HW284720   0.544   6.627   1.204 -2.5257  0.0894  0.8128
26039SOL     OW84721   4.332   1.637   0.302 -0.1661 -0.1218 -0.2061
26039SOL    HW184722   4.420   1.617   0.335 -0.3735  0.4199  0.7179
26039SOL    HW284723   4.319   1.576   0.230  0.5532 -0.9536  0.3440
26040SOL     OW84724   6.450   5.680   1.335  0.0758 -0.0314  0.7431
26040SOL    HW184725   6.403   5.657   1.255 -2.6627 -1.9431  2.7437
26040SOL    HW284726   6.454   5.775   1.334 -1.3306  0.0519 -0.8925
26041SOL     OW84727   7.987   1.613   7.834 -0.3479  0.0965 -0.2128
26041SOL    HW184728   8.061   1.672   7.847 -0.2220  0.0768 -0.8146
26041SOL    HW284729   8.002   1.542   7.897  0.5378 -0.2763 -0.8214
26042SOL     OW84730   6.350   0.738   4.349 -0.0615  0.6126 -0.1488
26042SOL    HW184731   6.391   0.690   4.277  0.4870 -1.2571  1.3223
26042SOL    HW284732   6.270   0.689   4.369 -0.6876  1.6327 -0.0419
26043SOL     OW84733   7.978  10.585   7.252  0.1808  0.4271 -0.4121
26043SOL    HW184734   7.939  10.610   7.336  0.7185  1.7666 -0.5368
26043SOL    HW284735   8.064  10.551   7.274  0.6663  1.5739 -0.4586
26044SOL     OW84736  11.167   0.122  10.303 -0.5670  0.3449  0.7752
26044SOL    HW184737  11.206   0.139  10.218 -0.7194 -0.9442  0.4314
26044SOL    HW284738  11.089   0.070  10.284  0.0812 -1.0395  1.7831
26045SOL     OW84739   9.150   6.961   8.646  0.3135 -0.4252  0.2885
26045SOL    HW184740   9.108   6.909   8.715  4.7805 -2.4385  1.8567
26045SOL    HW284741   9.239   6.976   8.678  1.1444  3.0273 -2.9204
26046SOL     OW84742  10.298   7.609   1.935 -0.0449 -0.6512  0.2754
26046SOL    HW184743  10.263   7.525   1.964 -0.6235  0.1461  2.0178
26046SOL    HW284744  10.221   7.666   1.928  0.5555  0.3298  1.2997
26047SOL     OW84745   6.501   9.608   1.274 -0.7914  0.5990  0.4956
26047SOL    HW184746   6.565   9.539   1.256 -1.5809 -0.5518  1.8034
26047SOL    HW284747   6.544   9.664   1.338 -0.3385  1.0377 -0.1824
26048SOL     OW84748   9.242   8.455   7.209 -0.3319 -0.0844  0.1574
26048SOL    HW184749   9.197   8.521   7.261  0.8141 -0.8876  2.2595
26048SOL    HW284750   9.334   8.461   7.235  0.1230 -1.2154 -1.0229
26049SOL     OW84751   5.924   3.278   7.678  0.1363  0.7906 -0.6132
26049SOL    HW184752   5.857   3.339   7.708  0.8096  0.9159  0.7507
26049SOL    HW284753   5.878   3.219   7.619 -1.6092 -0.0943  1.4598
26050SOL     OW84754  11.101   9.461   4.597  0.4461  0.6990  0.5526
26050SOL    HW184755  11.140   9.438   4.513 -0.8046  2.2744 -0.5090
26050SOL    HW284756  11.009   9.477   4.578 -0.7181 -2.2190  2.8706
26051SOL     OW84757  12.011  12.675   7.070  0.0573 -0.1070  0.0558
26051SOL    HW184758  11.924  12.689   7.031 -0.1359 -0.0747  0.4897
26051SOL    HW284759  12.064  12.641   6.998  0.2058  1.6422 -0.7028
26052SOL     OW84760   2.228   4.900   5.029 -0.3892  0.2839 -0.0875
26052SOL    HW184761   2.206   4.905   4.936  0.0870 -0.9772 -0.2907
26052SOL    HW284762   2.240   4.991   5.056 -0.1263  0.6435 -1.3589
26053SOL     OW84763   3.969   6.054   2.425 -0.3168 -0.3100 -0.9332
26053SOL    HW184764   4.020   5.992   2.476 -0.0124 -0.8447 -1.8528
26053SOL    HW284765   4.032   6.094   2.365 -0.5639  0.6878 -0.5456
26054SOL     OW84766   3.116   8.430   0.742  0.3916  0.7611 -0.3325
26054SOL    HW184767   3.039   8.483   0.763  0.2967  1.2310 -1.7695
26054SOL    HW284768   3.124   8.370   0.816 -2.0872 -0.1450 -0.6948
26055SOL     OW84769   3.477   2.363   0.233  0.1931 -0.0016 -0.1064
26055SOL    HW184770   3.558   2.378   0.185  0.2540 -0.7163 -0.2436
26055SOL    HW284771   3.505   2.329   0.318  0.1739  2.8552  1.1703
26056SOL     OW84772   1.978  12.308   1.787 -0.0069  0.1888 -0.3350
26056SOL    HW184773   2.066  12.336   1.762  1.3213 -2.8001  0.5205
26056SOL    HW284774   1.963  12.349   1.872  0.5900  0.6102 -0.4223
26057SOL     OW84775   8.262   8.895   5.462  0.3162 -0.3510  0.4450
26057SOL    HW184776   8.303   8.835   5.526 -1.4964  0.2827  2.2957
26057SOL    HW284777   8.205   8.951   5.515 -0.7426  0.6778 -1.6885
26058SOL     OW84778   8.311   2.532   6.732 -0.0653  0.1487  0.5128
26058SOL    HW184779   8.349   2.619   6.734 -0.1243  0.1591  2.1998
26058SOL    HW284780   8.282   2.516   6.822 -0.8169 -1.2720  0.0478
26059SOL     OW84781   1.655   3.949   5.362 -0.2145 -0.3363  0.0503
26059SOL    HW184782   1.717   3.888   5.322 -0.1333 -0.4905  0.4159
26059SOL    HW284783   1.569   3.921   5.329 -0.1011 -0.1794 -0.3820
26060SOL     OW84784   7.764  11.902   3.683  0.2128 -0.1158  0.4294
26060SOL    HW184785   7.727  11.848   3.753  0.3231  0.7419  1.1709
26060SOL    HW284786   7.858  11.886   3.687  0.2700  0.2735  0.7942
26061SOL     OW84787   5.301  11.913   2.215  0.1722 -0.4841 -0.0077
26061SOL    HW184788   5.344  11.990   2.176  0.3522 -0.3524  0.4401
26061SOL    HW284789   5.364  11.882   2.280 -0.6027  0.0039  1.0063
26062SOL     OW84790   8.821  10.369   2.184 -0.2390 -0.7608 -0.1249
26062SOL    HW184791   8.765  10.325   2.248  1.0974 -0.1201  1.5983
26062SOL    HW284792   8.905  10.379   2.230 -0.0279  2.1978 -0.9273
26063SOL     OW84793   2.772   2.090   4.556  0.4204 -0.2602  0.2569
26063SOL    HW184794   2.840   2.025   4.537  0.3229 -0.4840  0.6676
26063SOL    HW284795   2.696   2.039   4.582  0.6622  0.0318  1.6237
26064SOL     OW84796   2.067  12.367  10.958  0.5154  0.8328 -0.1485
26064SOL    HW184797   1.999  12.417  10.911  1.2935 -0.4852 -2.8470
26064SOL    HW284798   2.119  12.327  10.889  2.4192 -0.4034  1.8969
26065SOL     OW84799   8.654   6.962   8.649 -0.3701  0.1455 -0.4074
26065SOL    HW184800   8.679   6.896   8.714 -2.0177  0.5819  0.7294
26065SOL    HW284801   8.559   6.969   8.657 -0.2006  3.4026  0.3218
26066SOL     OW84802  11.120  11.701   9.767  0.8115 -0.3275  0.1988
26066SOL    HW184803  11.191  11.764   9.770  0.1486  0.4582 -0.3653
26066SOL    HW284804  11.060  11.735   9.701  0.1195 -1.2044  0.3567
26067SOL     OW84805   2.416   9.987  11.489 -0.2859  0.0668 -0.8475
26067SOL    HW184806   2.323   9.976  11.469  0.0119  0.2492 -2.5070
26067SOL    HW284807   2.447   9.900  11.513 -1.0411  0.1569  0.5503
26068SOL     OW84808  10.117   1.567   0.821 -0.1751 -0.3641  0.6606
26068SOL    HW184809  10.082   1.509   0.889  0.5487 -1.1746  0.3623
26068SOL    HW284810  10.199   1.525   0.794  0.0604  0.4919  0.0102
26069SOL     OW84811   6.838   7.600  11.787  0.5111 -0.2022 -0.2051
26069SOL    HW184812   6.922   7.557  11.774 -0.2122 -1.4765 -0.8664
26069SOL    HW284813   6.777   7.552  11.731 -0.5532  1.0559 -0.1857
26070SOL     OW84814   4.882   6.157   5.374  0.0142  0.8671  0.3413
26070SOL    HW184815   4.886   6.220   5.447  1.4779 -0.6293  1.6348
26070SOL    HW284816   4.843   6.207   5.302 -0.6287  2.6879  1.8527
26071SOL     OW84817   5.929   5.237   3.596 -0.0971 -0.0351  0.2320
26071SOL    HW184818   5.884   5.322   3.600 -0.0455 -0.0665  1.8636
26071SOL    HW284819   5.869   5.176   3.639 -0.6251 -1.1101 -1.8603
26072SOL     OW84820   1.320   4.547   9.039 -0.2410 -0.3041 -0.4810
26072SOL    HW184821   1.388   4.577   8.979  0.6696  1.0240  1.1279
26072SOL    HW284822   1.348   4.578   9.125 -3.4640  1.3228  0.1286
26073SOL     OW84823  10.361   8.772   1.249  0.0754 -0.8720 -0.8814
26073SOL    HW184824  10.387   8.683   1.271 -0.2775 -0.9930 -0.9510
26073SOL    HW284825  10.280   8.786   1.297  1.3285  0.2540  1.0454
26074SOL     OW84826   9.033  10.473  10.620  0.0789  0.3376 -0.4738
26074SOL    HW184827   8.964  10.444  10.680  0.9732 -1.0431 -0.0686
26074SOL    HW284828   9.065  10.392  10.581  1.7704  0.9025 -0.3144
26075SOL     OW84829   9.960  11.274   4.368  0.1466 -0.4406 -0.4171
26075SOL    HW184830  10.025  11.268   4.298  1.4537 -1.2733  0.8059
26075SOL    HW284831   9.996  11.338   4.429 -0.8098  0.0213 -0.3199
26076SOL     OW84832   9.168   5.865   2.115 -0.1745  0.2005  0.1488
26076SOL    HW184833   9.148   5.946   2.067  1.6859  1.6636  1.6781
26076SOL    HW284834   9.242   5.888   2.171  0.9580 -2.8278  0.0821
26077SOL     OW84835   2.169   1.581   9.767  0.3075 -0.0833 -0.0675
26077SOL    HW184836   2.121   1.561   9.687  1.6412 -1.4489 -0.5833
26077SOL    HW284837   2.154   1.675   9.782 -2.2854 -0.4040 -0.2807
26078SOL     OW84838  12.442   0.049   8.401  0.1159  0.1226  0.2294
26078SOL    HW184839  12.456   0.143   8.385  0.2711  0.1916  0.7530
26078SOL    HW284840  12.351   0.043   8.429  0.0855  0.1089  0.1289
26079SOL     OW84841  12.313  10.343  10.076  0.0777  0.4934  0.1595
26079SOL    HW184842  12.262  10.402  10.132 -1.1441  1.2881 -1.6669
26079SOL    HW284843  12.403  10.372  10.087 -0.1596  0.8306  1.4513
26080SOL     OW84844   6.995   0.833   5.304 -0.3431  0.0318 -0.6541
26080SOL    HW184845   7.091   0.835   5.300 -0.3430  1.4891 -0.6619
26080SOL    HW284846   6.972   0.741   5.294  1.0822 -0.4242  0.0088
26081SOL     OW84847  11.073   9.779  10.173 -0.3780 -0.2609 -0.0280
26081SOL    HW184848  11.149   9.729  10.200  2.2037  3.3235  0.0634
26081SOL    HW284849  11.034   9.810  10.255  1.0152  1.7875 -0.0775
26082SOL     OW84850   3.777   1.617  12.465 -0.4333 -0.0309 -0.2146
26082SOL    HW184851   3.812   1.528  12.458 -0.4775 -0.1188  0.5357
26082SOL    HW284852   3.793   1.641  12.556 -0.5305  0.6865 -0.3843
26083SOL     OW84853   3.046   0.495   0.625  0.0965  0.0365 -0.1043
26083SOL    HW184854   3.130   0.502   0.670  0.3798  0.9599 -0.7422
26083SOL    HW284855   2.990   0.446   0.685  0.6401  0.7218  0.9847
26084SOL     OW84856   2.308   2.767  10.181  0.1180  0.0787  0.3343
26084SOL    HW184857   2.232   2.728  10.137  0.2369  1.8255 -1.5330
26084SOL    HW284858   2.277   2.785  10.270 -0.4114 -2.7316  0.8234
26085SOL     OW84859   9.027   0.020   6.520 -0.0806  0.2555 -0.8153
26085SOL    HW184860   8.970   0.021   6.443  0.3954 -0.5666 -1.1925
26085SOL    HW284861   9.072   0.105   6.517 -0.1241  0.2618 -1.3996
26086SOL     OW84862  10.940  10.154  11.671  0.5787 -0.3606 -0.5149
26086SOL    HW184863  10.850  10.185  11.681  1.5205  2.4751  0.0503
26086SOL    HW284864  10.987  10.191  11.745  2.1955 -2.0805 -0.6012
26087SOL     OW84865   1.413  11.794   0.712  0.0619  0.0324 -0.0431
26087SOL    HW184866   1.404  11.888   0.725  0.3646  0.0950 -0.3097
26087SOL    HW284867   1.339  11.771   0.655 -1.0375 -0.1766  1.3980
26088SOL     OW84868   4.957   3.211   0.299 -0.6400  0.4953 -0.5369
26088SOL    HW184869   5.019   3.229   0.228 -0.8531 -0.3172 -0.9450
26088SOL    HW284870   4.879   3.261   0.275 -0.6291  0.4107 -0.7554
26089SOL     OW84871   1.878   9.642   3.337  0.1380 -0.3521  0.2015
26089SOL    HW184872   1.858   9.728   3.374 -2.0129  0.2228 -1.9762
26089SOL    HW284873   1.794   9.596   3.336  1.0419 -2.0980  0.3166
26090SOL     OW84874   1.451   8.001   8.369  0.4924 -0.7469 -0.2602
26090SOL    HW184875   1.402   8.031   8.292  0.1334 -1.6380 -0.3961
26090SOL    HW284876   1.396   8.027   8.443  0.6986 -0.1418 -0.3162
26091SOL     OW84877   9.695   7.529  10.746  0.2646 -0.0790 -0.7050
26091SOL    HW184878   9.627   7.462  10.735  1.5849 -1.7859  0.7842
26091SOL    HW284879   9.701   7.541  10.841  1.7040  0.3860 -0.8315
26092SOL     OW84880   0.021   6.425   8.246 -0.2231  0.1030 -0.1618
26092SOL    HW184881   0.063   6.497   8.294  0.4725  0.8127 -1.7778
26092SOL    HW284882  -0.072   6.432   8.269  0.1325  0.1718  1.3568
26093SOL     OW84883   0.282   3.267   2.717 -0.2482  0.0500  0.2937
26093SOL    HW184884   0.342   3.193   2.728 -1.6167 -0.8214  2.5104
26093SOL    HW284885   0.249   3.259   2.627  2.2431  0.0849 -0.6979
26094SOL     OW84886   8.978   3.536   0.699 -0.0799  0.3295 -0.3629
26094SOL    HW184887   9.064   3.545   0.658 -0.3704 -0.6639 -1.2295
26094SOL    HW284888   8.997   3.532   0.793  0.9134 -0.6135 -0.5810
26095SOL     OW84889  10.699  11.113   0.045  0.3103 -0.2728  0.3463
26095SOL    HW184890  10.774  11.058   0.023 -0.4776 -1.1567 -0.2102
26095SOL    HW284891  10.734  11.202   0.047  1.5728 -0.7647  1.0683
26096SOL     OW84892   6.892   0.178  10.730  0.2218 -0.2362  0.8100
26096SOL    HW184893   6.974   0.213  10.694  0.6782 -0.4548  1.5987
26096SOL    HW284894   6.908   0.173  10.824 -1.1902  0.9770  1.1443
26097SOL     OW84895   6.583   6.519   4.060  0.0238 -1.0039 -0.2950
26097SOL    HW184896   6.607   6.607   4.032 -2.3168 -0.4434 -0.7676
26097SOL    HW284897   6.661   6.466   4.043  0.9293  0.6514 -1.6046
26098SOL     OW84898   2.141   4.252  11.599 -0.0812  0.3633 -0.2742
26098SOL    HW184899   2.058   4.276  11.557 -0.3393 -0.2065 -0.1075
26098SOL    HW284900   2.148   4.157  11.585 -0.0520  0.2063  0.7500
26099SOL     OW84901   1.483   0.880  12.674 -0.9435  0.0450 -1.1718
26099SOL    HW184902   1.547   0.813  12.700 -1.2353 -0.0268 -0.6253
26099SOL    HW284903   1.536   0.948  12.633 -0.5488 -0.1531 -1.0021
26100SOL     OW84904   5.593  12.321  11.089  0.3070  0.5402  0.0716
26100SOL    HW184905   5.614  12.323  10.996 -0.6390  2.3193 -0.1503
26100SOL    HW284906   5.497  12.317  11.092  0.3706 -1.3678  1.0130
26101SOL     OW84907  12.656   7.762   2.781  0.5390 -0.3597  0.5686
26101SOL    HW184908  12.696   7.727   2.702  0.0304  1.2672 -0.4572
26101SOL    HW284909  12.570   7.794   2.752  0.7847  1.2581  1.5242
26102SOL     OW84910   9.442  11.741   2.045  0.1203  0.0156 -0.0753
26102SOL    HW184911   9.394  11.822   2.024 -0.2036  0.0684  0.8172
26102SOL    HW284912   9.467  11.752   2.137  2.0332  0.0726 -0.5787
26103SOL     OW84913   7.243   2.740   3.888 -0.3825 -0.4172  0.0765
26103SOL    HW184914   7.307   2.776   3.826 -1.3645  0.8700 -0.2390
26103SOL    HW284915   7.291   2.673   3.935  1.5092  1.1436  0.5122
26104SOL     OW84916   5.289   1.227   0.626  0.1771  0.4349 -0.0860
26104SOL    HW184917   5.222   1.283   0.664  0.0224  0.1630  0.0430
26104SOL    HW284918   5.241   1.160   0.578  0.3649  0.5277 -0.4089
26105SOL     OW84919   6.678   9.658   5.454  0.0962 -0.0459 -0.3527
26105SOL    HW184920   6.676   9.708   5.372  1.2709  0.7824  0.0863
26105SOL    HW284921   6.685   9.725   5.522 -0.0853 -0.7512  0.3709
26106SOL     OW84922   4.831  11.659   8.852 -0.2395 -0.2404  0.7347
26106SOL    HW184923   4.849  11.572   8.888 -0.8364 -0.0804  1.4354
26106SOL    HW284924   4.911  11.683   8.807  0.0417 -1.0256  0.8002
26107SOL     OW84925  11.465   7.972   4.867  0.3195  0.6482  0.5066
26107SOL    HW184926  11.522   7.996   4.795  1.0700  0.4699  1.0202
26107SOL    HW284927  11.491   8.031   4.938 -0.3001  0.7200  0.6727
26108SOL     OW84928   4.122   9.728  12.605 -0.6860 -0.2819  0.2149
26108SOL    HW184929   4.209   9.694  12.624  0.0178  0.5293 -1.4011
26108SOL    HW284930   4.138   9.811  12.560 -2.2804 -0.3767 -0.5897
26109SOL     OW84931  10.197   9.289   6.333  0.1100  0.1330 -0.1983
26109SOL    HW184932  10.250   9.290   6.253 -1.9763 -0.2350 -1.6715
26109SOL    HW284933  10.232   9.361   6.385 -0.0266  2.0687 -2.5659
26110SOL     OW84934   1.368  10.114   3.502 -0.0617 -0.0060  0.2124
26110SOL    HW184935   1.369  10.103   3.407 -2.1113  3.4055 -0.3908
26110SOL    HW284936   1.441  10.174   3.519 -0.2346  0.0855  0.6361
26111SOL     OW84937  10.892  12.260   4.642 -0.4674  0.5492  0.4361
26111SOL    HW184938  10.901  12.272   4.737 -1.8964  1.4722  0.4869
26111SOL    HW284939  10.949  12.327   4.604 -0.4472  0.6574  0.6534
26112SOL     OW84940  10.665   8.863   5.710  0.2037 -0.0047 -0.2809
26112SOL    HW184941  10.595   8.919   5.744  0.2088 -0.2305  0.0993
26112SOL    HW284942  10.682   8.800   5.779  2.7092  1.7046  0.8286
26113SOL     OW84943   6.526   3.719   1.516 -0.5922  1.2015  0.7334
26113SOL    HW184944   6.493   3.646   1.568 -0.6784 -0.7482 -1.8518
26113SOL    HW284945   6.519   3.795   1.574  1.3776 -1.0678  4.2789
26114SOL     OW84946   8.368   4.328   5.402  0.2002  0.1724 -0.3627
26114SOL    HW184947   8.429   4.281   5.459 -0.5887  0.5242  0.8022
26114SOL    HW284948   8.347   4.408   5.450 -2.7733 -0.8618  0.2925
26115SOL     OW84949   8.740   8.309   5.091  0.4660 -0.4103 -0.0098
26115SOL    HW184950   8.723   8.293   4.998 -1.4280 -0.0687  0.2319
26115SOL    HW284951   8.829   8.277   5.105  0.0121 -2.5538 -1.4646
26116SOL     OW84952   8.139   0.342   1.438 -0.4874  0.0072 -0.3592
26116SOL    HW184953   8.157   0.411   1.374 -0.6219  0.4247  0.0533
26116SOL    HW284954   8.071   0.378   1.494 -0.3835 -0.3672  0.0119
26117SOL     OW84955   3.922   5.120   6.638  0.2749 -0.5327 -0.8389
26117SOL    HW184956   3.853   5.118   6.571 -0.0314 -1.7734 -0.5050
26117SOL    HW284957   3.940   5.214   6.650 -0.2799 -0.2479 -2.0139
26118SOL     OW84958   2.220   2.072   5.886 -0.1659 -0.0025  0.2675
26118SOL    HW184959   2.246   2.162   5.868  1.1066  0.1592  2.5758
26118SOL    HW284960   2.128   2.079   5.913 -0.2540  0.5217 -0.1606
26119SOL     OW84961   4.470   0.526   8.766 -0.9413  0.6925 -0.4957
26119SOL    HW184962   4.500   0.575   8.689 -2.5961  2.6352 -0.0024
26119SOL    HW284963   4.470   0.591   8.837 -0.3377 -0.8265  0.9622
26120SOL     OW84964  12.572   8.026   9.432 -0.4260 -0.4558 -0.2452
26120SOL    HW184965  12.519   8.106   9.430 -0.3317 -0.4040 -0.8470
26120SOL    HW284966  12.586   8.005   9.340  0.6496 -0.4441 -0.0912
26121SOL     OW84967   1.527   7.276   4.001  0.3552 -0.9373 -0.1160
26121SOL    HW184968   1.578   7.301   3.924  1.6280 -1.4799  0.5191
26121SOL    HW284969   1.563   7.328   4.072  1.3287 -2.6489  0.7150
26122SOL     OW84970   3.656   3.394   4.703  0.2697 -0.1343  0.2470
26122SOL    HW184971   3.714   3.360   4.634  0.4892  0.3149  0.2062
26122SOL    HW284972   3.589   3.327   4.712 -0.1815  0.1342 -0.9285
26123SOL     OW84973  12.145   2.137   3.646  0.0055  0.5947  0.1259
26123SOL    HW184974  12.153   2.230   3.627  0.2578  0.9829  1.9720
26123SOL    HW284975  12.113   2.133   3.736  1.4288 -1.1041  0.6200
26124SOL     OW84976   3.871   2.254  12.092 -0.1357  0.4353 -0.0494
26124SOL    HW184977   3.859   2.290  12.004  1.9881  3.5961  0.7975
26124SOL    HW284978   3.783   2.254  12.130 -0.5989  2.7555 -0.9376
26125SOL     OW84979   1.085   5.194   1.729  0.2032  0.0418  0.5315
26125SOL    HW184980   1.176   5.188   1.702  0.1813 -0.0299  0.4729
26125SOL    HW284981   1.048   5.108   1.709 -0.4658  0.7778 -1.6007
26126SOL     OW84982   6.175   9.180  10.623  0.1917 -0.2622 -0.2435
26126SOL    HW184983   6.257   9.147  10.585 -0.4681  0.1618 -2.1415
26126SOL    HW284984   6.130   9.101  10.654  0.1708 -0.8246 -1.6007
26127SOL     OW84985   8.657   4.763   0.442 -1.2120  0.1074  0.6338
26127SOL    HW184986   8.633   4.676   0.473 -0.7499  0.1934  1.2485
26127SOL    HW284987   8.683   4.811   0.521  2.2993 -0.4052 -0.0018
26128SOL     OW84988  12.606   2.035   6.954 -0.4058  0.6683  0.1740
26128SOL    HW184989  12.700   2.031   6.942 -0.4234 -0.2970  0.2818
26128SOL    HW284990  12.584   1.956   7.004 -1.3727  0.4458 -0.5699
26129SOL     OW84991   9.811   7.394   0.427 -0.1854 -0.3034  0.2798
26129SOL    HW184992   9.801   7.307   0.465  0.0742 -0.8932 -0.9453
26129SOL    HW284993   9.768   7.453   0.489  0.1458 -1.2267  1.4114
26130SOL     OW84994   9.765  10.958  12.732 -0.5681 -0.2420  0.1007
26130SOL    HW184995   9.793  10.866  12.737 -1.7054 -0.6903 -1.1175
26130SOL    HW284996   9.683  10.960  12.780  1.1216  0.9441  3.1722
26131SOL     OW84997  10.769   8.258   7.349  0.0354  0.2082  0.2028
26131SOL    HW184998  10.704   8.194   7.319 -0.5855  1.4368 -1.2371
26131SOL    HW284999  10.849   8.235   7.302 -0.1270  0.3324 -0.1417
26132SOL     OW85000   5.867   0.075   9.048  0.1215 -0.3494  0.5134
26132SOL    HW185001   5.851   0.170   9.042 -1.1947 -0.6597 -2.4759
26132SOL    HW285002   5.961   0.066   9.036  0.3909  0.6035  1.6968
26133SOL     OW85003  10.583   7.545   7.946  0.2951 -0.2722  0.1641
26133SOL    HW185004  10.661   7.535   8.002  0.5115 -1.6652 -0.3624
26133SOL    HW285005  10.583   7.638   7.922  0.7657  0.1392  1.6448
26134SOL     OW85006   2.967   1.902   4.010  0.1059  0.0651 -0.1337
26134SOL    HW185007   2.987   1.828   3.953  0.0541 -0.8076  0.9425
26134SOL    HW285008   2.909   1.958   3.958 -0.6023 -1.1113 -0.6456
26135SOL     OW85009   4.321   5.570   9.886  0.0120 -0.1157 -0.4834
26135SOL    HW185010   4.290   5.658   9.908 -1.4006 -0.3474 -1.3940
26135SOL    HW285011   4.415   5.574   9.898 -0.2801  0.7650  2.0273
26136SOL     OW85012   6.437   0.863   9.342 -0.2487 -0.5884 -0.0570
26136SOL    HW185013   6.414   0.936   9.400 -2.0030 -1.2881  0.2122
26136SOL    HW285014   6.423   0.897   9.254 -1.9711 -0.8134  0.0827
26137SOL     OW85015   3.731   7.436   6.780  0.3768  0.2897 -0.3050
26137SOL    HW185016   3.771   7.365   6.729 -2.6522 -0.9419 -1.1903
26137SOL    HW285017   3.716   7.506   6.716 -0.4980  0.0132 -0.4159
26138SOL     OW85018   7.304   9.912   6.036 -0.0926  0.0304 -0.0126
26138SOL    HW185019   7.230   9.853   6.051 -0.2138  0.1117 -0.3015
26138SOL    HW285020   7.349   9.913   6.120  0.2805 -0.9796 -0.1844
26139SOL     OW85021  12.050  10.762   5.415 -0.0451  0.3970  0.5610
26139SOL    HW185022  12.127  10.767   5.471  0.9707 -1.1492 -0.5949
26139SOL    HW285023  12.078  10.709   5.340 -1.1736  2.7167 -1.6474
26140SOL     OW85024  12.464   6.247  11.994 -0.0935  0.1486 -0.0992
26140SOL    HW185025  12.509   6.296  11.925  1.4674 -0.3604  0.4975
26140SOL    HW285026  12.371   6.264  11.979  0.2958  1.5289 -1.1996
26141SOL     OW85027   1.266   7.038   8.844 -0.4483 -0.1270  0.4369
26141SOL    HW185028   1.238   7.101   8.911  1.3563  0.0266  1.0923
26141SOL    HW285029   1.256   7.086   8.761 -1.7607  0.0208  0.6625
26142SOL     OW85030   8.139   4.823   1.541  0.1094 -0.2325 -0.2729
26142SOL    HW185031   8.153   4.873   1.461  1.2332 -0.0056  0.0496
26142SOL    HW285032   8.165   4.733   1.519 -0.0505 -0.2729 -0.2999
26143SOL     OW85033   2.593   1.464   0.206 -0.0896 -0.4739 -0.4661
26143SOL    HW185034   2.654   1.504   0.268  0.8654 -0.3181 -1.4787
26143SOL    HW285035   2.550   1.395   0.256  1.1824 -0.8283  0.1771
26144SOL     OW85036   7.111  12.186   8.423  0.2013 -0.2275 -0.4144
26144SOL    HW185037   7.078  12.118   8.482 -1.2468  0.9709  0.2197
26144SOL    HW285038   7.181  12.228   8.471 -0.6095  0.3827  0.2653
26145SOL     OW85039   9.470   8.288  11.484 -0.5349  0.6059  0.0310
26145SOL    HW185040   9.480   8.378  11.454  1.3412  0.3272 -0.3164
26145SOL    HW285041   9.432   8.242  11.410 -0.1809  0.8429 -0.3036
26146SOL     OW85042   9.274   3.298   9.395  0.0191 -0.0675 -0.0561
26146SOL    HW185043   9.310   3.329   9.479 -1.2152 -2.2414  1.3759
26146SOL    HW285044   9.254   3.378   9.347  1.5717  1.2553  1.3516
26147SOL     OW85045   0.503   0.313   2.599 -0.3314  0.2684 -0.2381
26147SOL    HW185046   0.420   0.324   2.552 -1.7040  2.8500  2.5160
26147SOL    HW285047   0.482   0.256   2.673  1.8032 -3.7568 -2.3767
26148SOL     OW85048  11.175  10.801   4.591 -0.6549 -0.2186  0.0559
26148SOL    HW185049  11.124  10.764   4.519  0.3153  0.6675 -1.1402
26148SOL    HW285050  11.185  10.893   4.568 -0.0605  0.0118  1.1766
26149SOL     OW85051   4.016   4.041   4.117 -0.1804  0.1063 -0.4955
26149SOL    HW185052   4.103   4.003   4.132 -0.4637 -0.6076 -0.6010
26149SOL    HW285053   4.034   4.125   4.075  0.5246  0.9261  1.3406
26150SOL     OW85054   2.155   9.012  12.305 -0.4521 -0.1173  0.2618
26150SOL    HW185055   2.096   8.940  12.327  0.1864 -1.0618 -0.9600
26150SOL    HW285056   2.122   9.087  12.356 -1.4910 -1.1072  1.1045
26151SOL     OW85057   4.645   1.555   7.115  0.4245 -0.4721 -0.4290
26151SOL    HW185058   4.571   1.608   7.084  0.1317  0.2308  1.3289
26151SOL    HW285059   4.611   1.510   7.192  1.3434 -1.5092 -0.6069
26152SOL     OW85060   6.379   9.307   4.583 -0.0288  0.0323 -0.0162
26152SOL    HW185061   6.427   9.228   4.606 -0.8823 -0.4811  0.0505
26152SOL    HW285062   6.287   9.282   4.589 -0.3590  1.3331  1.1415
26153SOL     OW85063   5.973  12.436   6.709  0.0453  0.4273  0.1556
26153SOL    HW185064   5.923  12.440   6.627 -0.0905  0.5265  0.2421
26153SOL    HW285065   5.906  12.441   6.777  0.1761  0.5571  0.2729
26154SOL     OW85066   1.965   2.232   6.758 -0.2066  0.0670 -0.2555
26154SOL    HW185067   1.886   2.179   6.745 -0.4091  0.3250 -0.0795
26154SOL    HW285068   2.006   2.233   6.671  0.4159 -1.3453 -0.0081
26155SOL     OW85069   4.038  11.219  11.953 -0.0565  0.2586  0.1188
26155SOL    HW185070   4.029  11.157  12.026  0.7282  0.4728  0.4049
26155SOL    HW285071   4.132  11.229  11.941 -0.1767  0.4869 -0.7120
26156SOL     OW85072  10.588   6.403   6.938 -0.3541  0.1198  0.8863
26156SOL    HW185073  10.684   6.406   6.948  0.0623 -1.4807 -1.6899
26156SOL    HW285074  10.572   6.442   6.852 -1.8704 -0.7428  0.7386
26157SOL     OW85075   6.782   8.573   0.222 -0.0588 -0.2987 -0.3541
26157SOL    HW185076   6.753   8.583   0.313  0.8007  1.5429 -0.2399
26157SOL    HW285077   6.870   8.534   0.229  0.2445  0.3730 -0.3518
26158SOL     OW85078   6.636   3.173   1.860 -0.5983  0.1565 -0.1258
26158SOL    HW185079   6.627   3.201   1.951  1.0580 -0.9306  0.4053
26158SOL    HW285080   6.685   3.092   1.864  1.3079  1.1089 -2.0940
26159SOL     OW85081  11.388  11.638   9.514  0.3828  0.3059  0.1242
26159SOL    HW185082  11.460  11.621   9.453  0.0200 -0.3180 -0.1299
26159SOL    HW285083  11.328  11.565   9.502  0.4116  0.0472  1.3868
26160SOL     OW85084   5.534   8.790   5.989 -0.2445 -0.0865  0.0283
26160SOL    HW185085   5.447   8.804   5.953 -0.0214  1.2234 -0.0471
26160SOL    HW285086   5.594   8.824   5.923  0.4597 -2.6140 -0.7391
26161SOL     OW85087   3.838   9.908   1.814  0.2188 -0.2439  0.2427
26161SOL    HW185088   3.916   9.944   1.856 -1.0019  1.7149  0.9744
26161SOL    HW285089   3.779   9.983   1.804 -1.6762 -1.6899 -0.0601
26162SOL     OW85090   3.518   1.966   8.012 -0.1614 -0.6493 -0.1670
26162SOL    HW185091   3.586   1.992   7.949 -1.3006 -0.4458 -1.3773
26162SOL    HW285092   3.502   1.874   7.993  0.7816 -1.1113  1.1303
26163SOL     OW85093   6.894   8.441   3.954  0.1997  0.0817  0.0603
26163SOL    HW185094   6.859   8.368   4.005  0.1980  0.4768  0.6364
26163SOL    HW285095   6.876   8.519   4.007  0.4843  0.4694 -0.3971
26164SOL     OW85096   0.600  12.266  12.457 -0.4774  0.1687 -0.4937
26164SOL    HW185097   0.614  12.224  12.542 -0.3905  0.5429 -0.3200
26164SOL    HW285098   0.515  12.310  12.465  0.0409  1.1535 -0.1994
26165SOL     OW85099   2.838   6.855   9.236 -0.1281  0.0861 -0.0737
26165SOL    HW185100   2.929   6.884   9.233  0.0136 -0.2347  0.8958
26165SOL    HW285101   2.804   6.887   9.319 -0.7768 -0.1824 -0.2240
26166SOL     OW85102   1.852   8.193   2.038 -0.0129 -0.2354 -0.3786
26166SOL    HW185103   1.805   8.109   2.045 -0.3507  0.0246  0.5473
26166SOL    HW285104   1.917   8.178   1.969  0.6119 -1.5799  0.4598
26167SOL     OW85105  10.031   0.788   9.939 -0.3612  0.0301 -0.2279
26167SOL    HW185106  10.060   0.838   9.862  1.0507  0.8525  0.7865
26167SOL    HW285107  10.112   0.761   9.982 -1.1151  0.0220  1.2479
26168SOL     OW85108   9.153   9.937   7.823 -0.5405 -0.3034  0.1954
26168SOL    HW185109   9.147   9.883   7.744  2.1892  0.3070 -0.5398
26168SOL    HW285110   9.183   9.877   7.891  1.7867  0.0295 -0.4501
26169SOL     OW85111   0.544   0.153  10.461  0.2723  0.6454 -0.0061
26169SOL    HW185112   0.575   0.077  10.510  1.4401  1.6666  0.8999
26169SOL    HW285113   0.483   0.197  10.520  1.0302  1.4142  0.2291
26170SOL     OW85114   4.863   5.635   8.473 -0.3902  0.0431 -0.0025
26170SOL    HW185115   4.955   5.657   8.484 -0.0725  0.5445 -2.8332
26170SOL    HW285116   4.816   5.701   8.525  0.7620 -0.9280  2.4444
26171SOL     OW85117   9.316   1.478   9.836 -0.1245  0.7717 -0.4784
26171SOL    HW185118   9.295   1.385   9.840  0.4252  0.6646  0.0385
26171SOL    HW285119   9.397   1.483   9.786  1.1455  0.7368  1.4907
26172SOL     OW85120   7.933  12.205   0.679 -0.2522 -0.0977  0.1951
26172SOL    HW185121   7.984  12.255   0.742 -0.3475 -2.2352  2.0893
26172SOL    HW285122   7.848  12.250   0.675  0.7751  1.8508 -0.8557
26173SOL     OW85123   0.420   0.659   5.443  0.7631 -0.4030 -0.4557
26173SOL    HW185124   0.510   0.652   5.410  0.7029  0.7872 -0.9309
26173SOL    HW285125   0.391   0.568   5.453  1.6078 -0.8098 -1.4573
26174SOL     OW85126   2.593  12.313   0.979  0.3386 -0.5527 -1.1642
26174SOL    HW185127   2.620  12.388   1.032 -1.9706 -0.7974  0.4943
26174SOL    HW285128   2.566  12.351   0.895 -1.1095  0.5551 -0.2399
26175SOL     OW85129   1.800  10.711   4.532 -0.4088 -0.5411  0.3029
26175SOL    HW185130   1.754  10.658   4.467  1.6029 -0.6969 -1.0975
26175SOL    HW285131   1.777  10.801   4.511  1.4893 -0.4592 -1.7969
26176SOL     OW85132   3.617   0.196   5.057  0.6161 -0.7224 -0.3086
26176SOL    HW185133   3.559   0.121   5.042  1.5152 -1.4280 -0.3755
26176SOL    HW285134   3.649   0.219   4.970  0.0352  0.0179 -0.3405
26177SOL     OW85135   5.751  12.657   5.164 -0.0561  0.0839 -0.7098
26177SOL    HW185136   5.844  12.636   5.157 -0.0932 -1.0451  1.4445
26177SOL    HW285137   5.747  12.720   5.236 -1.0776 -1.0341  0.2497
26178SOL     OW85138   7.302   8.125   7.653 -0.1774 -0.2020 -0.4149
26178SOL    HW185139   7.269   8.129   7.743  0.9648  0.5006 -0.0117
26178SOL    HW285140   7.299   8.215   7.622 -2.3989 -0.6704 -1.8147
26179SOL     OW85141   1.511   4.540   7.465 -0.1861 -0.0914  0.9239
26179SOL    HW185142   1.505   4.507   7.555 -1.8933 -1.1205  0.4936
26179SOL    HW285143   1.509   4.461   7.411 -1.0179  0.5806 -0.0614
26180SOL     OW85144   7.640  12.430   9.805 -0.0818  0.4711 -0.0480
26180SOL    HW185145   7.558  12.405   9.847 -0.5804  0.2258 -1.1388
26180SOL    HW285146   7.686  12.347   9.792  0.4208  0.6220  0.6998
26181SOL     OW85147   0.106   5.745   7.240 -0.4881 -0.1199 -0.4523
26181SOL    HW185148   0.085   5.785   7.156  0.1377 -1.6257 -1.3655
26181SOL    HW285149   0.171   5.677   7.219  0.0233 -0.2275  1.3060
26182SOL     OW85150   6.835   8.025   6.050 -0.9064  0.2644  0.3066
26182SOL    HW185151   6.844   8.114   6.085 -1.0691  0.3673  0.0843
26182SOL    HW285152   6.876   8.029   5.964  0.3724 -0.2275  0.8634
26183SOL     OW85153   7.776   7.970  11.616 -0.2107  0.0323 -0.6113
26183SOL    HW185154   7.782   7.876  11.597 -0.3307  0.3035 -2.0452
26183SOL    HW285155   7.865   7.996  11.637 -0.2905 -0.5341  0.5009
26184SOL     OW85156   4.416   2.102   1.216 -0.3633  0.2319  0.0548
26184SOL    HW185157   4.481   2.136   1.278 -1.9642 -1.6588  3.0156
26184SOL    HW285158   4.339   2.157   1.230 -1.5659 -1.7480  1.7496
26185SOL     OW85159   5.570   6.212   4.623 -0.4538  0.5080  0.1251
26185SOL    HW185160   5.521   6.292   4.605 -0.4675  0.3104 -0.7273
26185SOL    HW285161   5.570   6.205   4.719 -0.3845  1.5665  0.2153
26186SOL     OW85162   9.691   3.947   3.603  0.1853 -0.8194 -0.4618
26186SOL    HW185163   9.770   3.898   3.578 -0.0438 -2.3640  1.5796
26186SOL    HW285164   9.629   3.929   3.532  0.9091 -1.5383 -0.9313
26187SOL     OW85165   8.286   1.440   8.065  0.0451 -0.1425  0.1230
26187SOL    HW185166   8.293   1.400   8.152  1.2660 -1.7438 -0.6613
26187SOL    HW285167   8.373   1.474   8.046 -0.0409 -0.3804 -0.7345
26188SOL     OW85168   5.015   9.535   8.094  0.0061  0.3467 -0.3175
26188SOL    HW185169   4.942   9.486   8.130 -0.7388  0.3530 -1.7608
26188SOL    HW285170   5.004   9.624   8.129 -1.4119  0.6635 -1.4931
26189SOL     OW85171   8.639   8.399   6.203  0.0202  0.0186  0.1794
26189SOL    HW185172   8.702   8.457   6.245 -1.1401  0.6815  1.0599
26189SOL    HW285173   8.565   8.455   6.180 -0.0575 -0.6377 -1.3152
26190SOL     OW85174   1.270   4.042   8.789 -0.3113  0.0710  0.3859
26190SOL    HW185175   1.205   4.086   8.734  0.5516 -1.5453 -2.0511
26190SOL    HW285176   1.347   4.100   8.786 -0.2675 -0.0134 -0.1037
26191SOL     OW85177   0.796   7.469   0.232 -0.7225 -0.6605 -0.8465
26191SOL    HW185178   0.889   7.472   0.256 -0.9357  0.4158 -0.0760
26191SOL    HW285179   0.768   7.380   0.254 -0.2391 -0.5279  0.4170
26192SOL     OW85180   0.945  11.822   8.181 -0.1462  0.9751 -0.0186
26192SOL    HW185181   0.980  11.785   8.261 -1.0076 -0.3887 -0.2398
26192SOL    HW285182   0.897  11.900   8.209 -1.0306  0.1256  0.8883
26193SOL     OW85183  11.688  12.598   2.955 -0.3319 -0.0240  0.4010
26193SOL    HW185184  11.677  12.502   2.955  0.9516 -0.1974 -0.4634
26193SOL    HW285185  11.657  12.625   2.869  0.1690  0.2225  0.2969
26194SOL     OW85186   3.733  11.314  12.114  0.1629 -0.1249 -0.1775
26194SOL    HW185187   3.789  11.261  12.171  1.2233 -0.0976 -1.1722
26194SOL    HW285188   3.790  11.383  12.081 -0.7025  0.4717 -0.4681
26195SOL     OW85189   7.346   8.806  12.342 -0.0946  0.9909 -0.3306
26195SOL    HW185190   7.377   8.842  12.425 -2.4768  0.6983  0.7867
26195SOL    HW285191   7.400   8.729  12.327 -0.6075  0.1252  1.8425
26196SOL     OW85192   9.841   7.312   9.155  0.4093 -0.1698 -0.0663
26196SOL    HW185193   9.783   7.388   9.163  0.9381  0.4226 -1.4946
26196SOL    HW285194   9.888   7.309   9.237 -0.1809  0.5760  0.3142
26197SOL     OW85195   1.569   2.636   2.966 -0.1533 -0.0836 -0.1380
26197SOL    HW185196   1.615   2.715   2.937  1.5009 -1.1828 -0.6682
26197SOL    HW285197   1.606   2.618   3.053 -0.5854 -0.2362  0.0180
26198SOL     OW85198  10.637   2.028   8.575  0.1525 -0.3993 -0.1558
26198SOL    HW185199  10.665   1.943   8.610  0.3305 -1.2549 -2.2508
26198SOL    HW285200  10.582   2.006   8.500 -0.5822  1.3533 -0.1695
26199SOL     OW85201   2.460   8.669   5.971  0.0738  0.0749  0.2229
26199SOL    HW185202   2.530   8.716   5.926  0.2576  1.1528  1.5634
26199SOL    HW285203   2.504   8.623   6.043 -0.2881 -1.1881 -0.3274
26200SOL     OW85204   2.674   7.275   3.931  0.6112 -0.0328  0.0847
26200SOL    HW185205   2.733   7.335   3.885 -0.4689  0.0945 -1.1752
26200SOL    HW285206   2.600   7.329   3.956  0.5751 -0.4039  0.8059
26201SOL     OW85207   3.067   7.698   9.553  0.6743  0.0572  0.2569
26201SOL    HW185208   3.078   7.749   9.473 -0.3159  1.2998  0.8762
26201SOL    HW285209   3.111   7.750   9.620 -3.3293  2.1061  1.6279
26202SOL     OW85210   9.671   2.834  10.602 -0.3364  0.1848 -0.8520
26202SOL    HW185211   9.653   2.794  10.687 -1.3139  0.7050 -0.7991
26202SOL    HW285212   9.620   2.783  10.540 -1.3360  1.1112 -0.8273
26203SOL     OW85213   6.451  11.195   2.229  0.2622 -0.2661  0.1636
26203SOL    HW185214   6.464  11.199   2.324  1.5121  2.3703 -0.0224
26203SOL    HW285215   6.535  11.164   2.195  0.2519  0.0296 -0.1400
26204SOL     OW85216  10.904   6.271   7.675  0.2162 -0.2124  0.2426
26204SOL    HW185217  10.875   6.250   7.586  0.6493 -0.2635  0.1110
26204SOL    HW285218  10.936   6.187   7.709  0.2501 -0.1481  0.3667
26205SOL     OW85219   9.402  11.586   6.219 -0.0054  0.5966 -0.1175
26205SOL    HW185220   9.404  11.491   6.210 -0.1616  0.6211 -0.4306
26205SOL    HW285221   9.387  11.601   6.312 -0.5044  0.3043 -0.1476
26206SOL     OW85222   0.159   3.033   0.153  0.5003 -0.4678 -0.1130
26206SOL    HW185223   0.089   3.020   0.217 -1.2759 -2.8167 -2.3463
26206SOL    HW285224   0.145   3.121   0.120 -1.5706 -0.9363 -0.6234
26207SOL     OW85225  11.105  11.177   1.928 -0.1250 -0.5381  0.7494
26207SOL    HW185226  11.175  11.220   1.977 -0.0125  0.8316 -0.5521
26207SOL    HW285227  11.051  11.248   1.895 -0.0709 -1.3721 -1.2910
26208SOL     OW85228   2.431  11.391   8.210  0.0398 -0.6213 -0.3446
26208SOL    HW185229   2.360  11.400   8.147  1.0596 -2.5400 -1.9141
26208SOL    HW285230   2.389  11.357   8.289 -0.7584 -2.4694 -1.4909
26209SOL     OW85231   4.377   1.274   3.153 -0.0474 -0.0163 -0.3879
26209SOL    HW185232   4.461   1.286   3.196  0.3365 -0.5619 -0.9686
26209SOL    HW285233   4.357   1.181   3.163 -0.7438  0.1756  0.0386
26210SOL     OW85234  10.816   1.339  12.275 -0.1650 -0.0727 -0.0776
26210SOL    HW185235  10.787   1.430  12.285  0.8551  0.5089 -1.8100
26210SOL    HW285236  10.900   1.336  12.321  0.5645  0.3340 -1.3326
26211SOL     OW85237   8.007   1.212   5.654 -0.1081 -0.4367  0.3096
26211SOL    HW185238   8.045   1.259   5.729 -0.3167 -0.0914  0.2021
26211SOL    HW285239   8.051   1.127   5.655 -0.6653 -0.7322  1.2966
26212SOL     OW85240  12.697   1.503   6.991 -0.3670  0.1378 -0.1455
26212SOL    HW185241  12.711   1.585   6.944  0.3285 -0.4140 -0.9391
26212SOL    HW285242  12.725   1.522   7.081 -2.0768  1.3138  0.1777
26213SOL     OW85243   6.416   5.121  11.103  0.0601  0.2912 -0.1379
26213SOL    HW185244   6.351   5.051  11.097 -0.0223  0.3311  0.2934
26213SOL    HW285245   6.380   5.192  11.051  0.8182 -0.4976 -1.8309
26214SOL     OW85246   9.377   8.208   2.596  0.8408  0.2464  0.1032
26214SOL    HW185247   9.415   8.296   2.600 -0.3669  0.9718 -2.2784
26214SOL    HW285248   9.377   8.178   2.687  3.1918  1.8362  0.7288
26215SOL     OW85249   4.590   8.385  10.495  0.0826  0.2509 -0.0793
26215SOL    HW185250   4.500   8.354  10.499 -0.0053  0.6242  1.7311
26215SOL    HW285251   4.617   8.394  10.586  2.3180 -0.8536 -0.5394
26216SOL     OW85252   2.177   7.329   9.529  0.4865 -0.5504  0.6220
26216SOL    HW185253   2.244   7.288   9.474  1.0007 -0.6242  1.2943
26216SOL    HW285254   2.170   7.418   9.496 -0.4004 -1.0619 -0.6346
26217SOL     OW85255   8.704  10.494   3.977 -0.1170  0.1802  0.4917
26217SOL    HW185256   8.688  10.485   4.070 -0.8389 -0.0264  0.3491
26217SOL    HW285257   8.648  10.565   3.948 -1.6360 -1.2358 -0.2027
26218SOL     OW85258   9.262   4.931   2.990 -0.2256  0.0306  0.7163
26218SOL    HW185259   9.342   4.936   2.938  0.1724 -3.9825  0.6347
26218SOL    HW285260   9.293   4.926   3.080 -0.3963 -0.6216  0.7453
26219SOL     OW85261   0.257   9.829   5.175 -0.2974 -0.1996 -0.4399
26219SOL    HW185262   0.227   9.767   5.109 -0.3330 -0.3934 -0.2430
26219SOL    HW285263   0.299   9.899   5.125 -0.0478 -0.4958 -0.6496
26220SOL     OW85264   7.388   7.025  12.211 -0.0908 -0.3770  0.0344
26220SOL    HW185265   7.390   6.977  12.129 -0.0700  1.8177 -1.3385
26220SOL    HW285266   7.312   6.991  12.257 -0.5745 -1.1095 -1.2592
26221SOL     OW85267   1.127   6.984   7.782 -0.2198 -0.1869 -0.5798
26221SOL    HW185268   1.066   6.910   7.778 -0.0496 -0.3356 -0.4468
26221SOL    HW285269   1.071   7.061   7.790 -0.3719 -0.4006  0.6129
26222SOL     OW85270   3.670   2.984   3.977  0.6301 -0.7239 -0.3735
26222SOL    HW185271   3.615   2.931   4.034  1.5581 -0.9990  0.2856
26222SOL    HW285272   3.721   3.039   4.036 -1.9155  2.7015 -1.0357
26223SOL     OW85273   1.506   0.287   5.950  0.1863  1.0056 -0.0418
26223SOL    HW185274   1.462   0.235   6.017  1.6603  0.3507  0.4712
26223SOL    HW285275   1.442   0.352   5.923 -1.6691 -0.9290 -0.5334
26224SOL     OW85276   9.108  12.683   0.326 -0.1524  0.1909 -0.4176
26224SOL    HW185277   9.070  12.722   0.404  0.2982  2.7456 -1.3588
26224SOL    HW285278   9.202  12.680   0.344 -0.1580 -0.3009 -0.4464
26225SOL     OW85279   1.716   1.822   2.764  0.1709  0.0168 -0.0381
26225SOL    HW185280   1.667   1.785   2.837  0.7522 -0.6849  0.0022
26225SOL    HW285281   1.699   1.916   2.770 -0.5800 -0.1380  0.4041
26226SOL     OW85282  12.153  12.649   7.477 -0.3525 -0.4700  0.6949
26226SOL    HW185283  12.155  12.554   7.486  1.9145 -0.8511 -2.1771
26226SOL    HW285284  12.068  12.668   7.438  0.1801 -1.7422 -1.2388
26227SOL     OW85285   2.500   7.489  12.668  0.3594 -0.0531 -0.4026
26227SOL    HW185286   2.405   7.500  12.679  0.2701  0.4731 -1.5510
26227SOL    HW285287   2.510   7.410  12.616  0.5109  0.1727 -0.7260
26228SOL     OW85288   5.249   2.867   6.987  0.5277 -0.6131  0.3108
26228SOL    HW185289   5.296   2.928   7.043  1.1630 -1.2135  0.4437
26228SOL    HW285290   5.219   2.798   7.046  1.6591 -1.5277 -0.1251
26229SOL     OW85291   6.801   1.951  10.023  0.2874  0.3211 -0.3670
26229SOL    HW185292   6.839   2.038  10.009  1.6817 -0.3208 -0.7232
26229SOL    HW285293   6.876   1.895  10.045 -0.3126 -1.1886 -1.9224
26230SOL     OW85294   4.863   1.744   2.183 -0.0127 -0.2014 -0.4489
26230SOL    HW185295   4.908   1.829   2.182 -0.7243  0.1878 -1.4920
26230SOL    HW285296   4.798   1.753   2.253  2.2890 -1.2371  1.9903
26231SOL     OW85297   2.963   4.381   0.502 -0.5924  0.1888  0.5161
26231SOL    HW185298   2.977   4.447   0.570 -0.5036 -2.0342  2.7681
26231SOL    HW285299   2.869   4.364   0.505 -0.9656  1.5301 -1.4507
26232SOL     OW85300   9.864  11.249   0.796  0.2547  0.6324 -0.6333
26232SOL    HW185301   9.786  11.280   0.751 -0.1786  0.5464  0.0439
26232SOL    HW285302   9.862  11.154   0.785 -0.2030  0.5451  0.0955
26233SOL     OW85303   9.403   3.760   7.469  0.4945 -0.1498 -0.0757
26233SOL    HW185304   9.335   3.811   7.426  1.4002  1.0445 -0.1502
26233SOL    HW285305   9.467   3.826   7.499  2.2654 -1.2986 -1.1557
26234SOL     OW85306   3.014   6.381   0.264  0.7271  0.1895 -0.8491
26234SOL    HW185307   3.079   6.435   0.219  2.9422 -0.5102  1.3352
26234SOL    HW285308   3.019   6.408   0.356 -0.9936 -0.9816 -0.3520
26235SOL     OW85309   4.964   2.572   9.371 -0.3172  0.1198  0.4437
26235SOL    HW185310   5.036   2.510   9.384  1.2813  1.8279  0.2007
26235SOL    HW285311   4.912   2.535   9.300  0.3774 -1.0944  0.5415
26236SOL     OW85312   6.326  11.834   2.882 -0.6017 -0.0200  0.3502
26236SOL    HW185313   6.239  11.827   2.842 -0.9835 -1.4718  1.3439
26236SOL    HW285314   6.380  11.774   2.831 -0.3691  0.3174  0.2000
26237SOL     OW85315   2.437   4.379   6.941 -0.1994  0.3514  0.7770
26237SOL    HW185316   2.517   4.393   6.992 -0.0629  0.8689  0.4265
26237SOL    HW285317   2.376   4.446   6.972 -0.7184 -0.4223  1.4726
26238SOL     OW85318   5.414   4.949   1.788  0.1870  0.5762 -0.0138
26238SOL    HW185319   5.429   5.020   1.725  0.6434 -0.6738 -1.3777
26238SOL    HW285320   5.485   4.959   1.852  1.2512  0.3787 -1.1280
26239SOL     OW85321  10.215  12.781   2.379  0.1892 -0.2234 -0.2390
26239SOL    HW185322  10.122  12.761   2.367  0.1437 -0.1114 -0.0837
26239SOL    HW285323  10.219  12.828   2.462  0.2966  0.3618 -0.5701
26240SOL     OW85324   1.955   9.783  11.411 -0.0704  0.0765 -0.4740
26240SOL    HW185325   1.876   9.809  11.459 -0.9389 -0.7181 -1.3909
26240SOL    HW285326   1.981   9.700  11.451 -0.1182 -0.0137 -0.6301
26241SOL     OW85327   8.825   7.173   0.201 -0.3466  0.7771  0.4927
26241SOL    HW185328   8.816   7.096   0.258 -1.7986  0.6775  0.1898
26241SOL    HW285329   8.747   7.226   0.222 -0.3810  1.2103 -0.6926
26242SOL     OW85330  11.076   8.754   2.554 -0.4121 -0.0763 -0.1144
26242SOL    HW185331  11.136   8.822   2.521 -2.1871  2.7149  2.0198
26242SOL    HW285332  11.005   8.753   2.490  0.7107 -1.7897 -1.4384
26243SOL     OW85333   4.776  10.466   5.929  0.4218 -0.2523  0.0228
26243SOL    HW185334   4.718  10.542   5.921  1.2229  0.7476  2.7098
26243SOL    HW285335   4.864  10.503   5.939  0.8043 -1.4813  1.6670
26244SOL     OW85336  10.670   1.743   7.853 -0.8621  0.0533 -0.1236
26244SOL    HW185337  10.722   1.728   7.933 -1.1383 -2.1572 -0.3027
26244SOL    HW285338  10.724   1.803   7.801  0.9166 -1.0821  0.3019
26245SOL     OW85339   9.045   1.057   3.792 -0.5342  0.4348  0.2483
26245SOL    HW185340   8.998   1.041   3.710  1.7282  2.3053 -1.5770
26245SOL    HW285341   9.061   0.970   3.828 -2.5554 -0.3871 -0.6735
26246SOL     OW85342   8.914   1.869   6.738 -0.2680 -0.2000  0.6787
26246SOL    HW185343   8.840   1.812   6.759  1.0274 -1.4738  1.9932
26246SOL    HW285344   8.874   1.954   6.717 -2.2135 -1.4123 -0.8759
26247SOL     OW85345   8.757   7.893   0.018 -0.0730 -0.3250  0.5481
26247SOL    HW185346   8.682   7.865   0.071 -0.9993 -0.2252 -0.6698
26247SOL    HW285347   8.782   7.815  -0.032 -0.3841  0.0546 -0.2153
26248SOL     OW85348  10.469   4.442   9.615 -0.2995 -0.1518 -0.1596
26248SOL    HW185349  10.475   4.537   9.603 -2.1090 -0.0888 -0.7919
26248SOL    HW285350  10.544   4.407   9.568  1.9622  1.0614  2.2427
26249SOL     OW85351  10.898  12.212   5.241 -0.6810 -0.2294  0.0698
26249SOL    HW185352  10.821  12.233   5.188 -1.5705 -1.4622  0.8161
26249SOL    HW285353  10.878  12.245   5.328 -0.5614 -0.9237  0.3701
26250SOL     OW85354   6.331   5.731   0.509 -0.3135 -0.1466  0.3020
26250SOL    HW185355   6.321   5.784   0.430  1.0386 -0.0921  0.1519
26250SOL    HW285356   6.389   5.781   0.565  1.0880 -1.4653  0.1103
26251SOL     OW85357   3.870   2.944  10.230  1.2317 -0.5984  0.1145
26251SOL    HW185358   3.861   2.857  10.270  0.0557 -0.7207 -0.3905
26251SOL    HW285359   3.878   2.925  10.136 -0.9269 -0.1016 -0.2136
26252SOL     OW85360  12.605   0.292   3.016  0.1410  0.3310 -0.0253
26252SOL    HW185361  12.626   0.344   3.093 -2.5597  2.4357 -0.5566
26252SOL    HW285362  12.675   0.311   2.954  1.6160 -0.3243  1.3848
26253SOL     OW85363   9.398   3.118   0.624 -0.1390 -0.2915  0.0898
26253SOL    HW185364   9.437   3.203   0.603 -1.0577 -0.0033 -0.4900
26253SOL    HW285365   9.467   3.072   0.673  0.0815  1.0826  1.1381
26254SOL     OW85366   2.445   4.023   0.453  0.4238  0.3214 -0.0475
26254SOL    HW185367   2.428   3.996   0.543  1.9451  2.0362  0.8058
26254SOL    HW285368   2.401   3.956   0.400  2.0159 -2.4949  1.8841
26255SOL     OW85369   9.664   1.772   4.466 -0.3852  0.0614  0.1783
26255SOL    HW185370   9.642   1.722   4.545 -1.4164 -0.4445 -0.4017
26255SOL    HW285371   9.590   1.832   4.454 -1.1223 -1.0617 -1.3349
26256SOL     OW85372   5.675   5.122   8.876  0.0805  0.0384  0.1157
26256SOL    HW185373   5.601   5.091   8.823  0.7452 -2.2832  0.4331
26256SOL    HW285374   5.736   5.158   8.812 -0.4844  0.1563 -0.3683
26257SOL     OW85375   8.026   5.564  10.297  0.4632  0.3151  0.0410
26257SOL    HW185376   7.998   5.489  10.244  1.7287 -0.6650  0.7290
26257SOL    HW285377   7.978   5.555  10.379  2.7070 -1.4039  1.2469
26258SOL     OW85378   7.256  11.813   4.227 -0.7611  0.1506 -0.1815
26258SOL    HW185379   7.315  11.757   4.175 -0.4897  0.2488  0.0197
26258SOL    HW285380   7.311  11.846   4.298 -0.7527  1.1841 -0.6521
26259SOL     OW85381  11.727   7.361  10.614  0.3950 -0.4288 -0.1343
26259SOL    HW185382  11.680   7.386  10.534 -0.9607 -0.1530  0.7039
26259SOL    HW285383  11.689   7.417  10.682  2.1236 -0.0585  0.5667
26260SOL     OW85384   0.369  11.027   8.606  0.5470  0.5580  0.1886
26260SOL    HW185385   0.401  11.066   8.687  1.2745  2.0255 -0.7599
26260SOL    HW285386   0.417  10.944   8.598 -0.0653  0.0435  1.5879
26261SOL     OW85387   5.847   1.380  10.163 -0.1660  0.1550  0.5518
26261SOL    HW185388   5.929   1.368  10.212  0.1689 -1.1130 -0.2852
26261SOL    HW285389   5.832   1.297  10.119 -2.0612  0.2646  0.8842
26262SOL     OW85390  12.042  11.240   5.321  0.6686  0.5582  0.2356
26262SOL    HW185391  12.056  11.201   5.235 -0.9715  0.5694 -0.0717
26262SOL    HW285392  12.058  11.168   5.383  2.4869  0.7164 -0.0065
26263SOL     OW85393   5.765   1.805   9.618 -0.0079 -0.4202  0.6622
26263SOL    HW185394   5.840   1.822   9.675  0.3732 -0.6097  0.2263
26263SOL    HW285395   5.753   1.710   9.622  0.8133 -0.6019 -0.5330
26264SOL     OW85396   0.815   5.331   1.939 -0.1665  0.3862 -0.4194
26264SOL    HW185397   0.843   5.357   1.851 -2.3142 -0.0038 -1.2894
26264SOL    HW285398   0.741   5.389   1.958 -0.0759  0.0888  0.9078
26265SOL     OW85399  12.285  11.204   0.016  0.2334  0.1903 -0.4809
26265SOL    HW185400  12.232  11.242  -0.054  0.0125  0.9694  0.0898
26265SOL    HW285401  12.294  11.112  -0.007 -0.7257  0.2142 -0.9911
26266SOL     OW85402   3.998  12.540   1.407 -0.0989  0.0022 -0.1241
26266SOL    HW185403   3.965  12.451   1.415  1.2442 -0.4527  0.8593
26266SOL    HW285404   4.062  12.548   1.479 -0.3783  1.8364 -0.0329
26267SOL     OW85405   8.298   7.121   8.230 -0.2583 -0.1032  0.2672
26267SOL    HW185406   8.339   7.048   8.185 -2.4595 -1.1123 -0.2061
26267SOL    HW285407   8.355   7.196   8.211  0.7870 -1.2193 -1.1764
26268SOL     OW85408   4.984  11.942   0.392 -0.2425  0.0222  0.0790
26268SOL    HW185409   4.980  11.848   0.410 -2.1764  0.1406  0.4874
26268SOL    HW285410   4.921  11.981   0.453  0.8763  1.6516  0.2525
26269SOL     OW85411   6.884   6.299  12.781  0.3248  0.4106  0.1056
26269SOL    HW185412   6.826   6.227  12.805 -0.0959  0.4588 -0.7310
26269SOL    HW285413   6.835   6.348  12.715 -0.1869  2.5736  2.0077
26270SOL     OW85414  11.219  11.903   7.694  0.4587  0.0865  0.2603
26270SOL    HW185415  11.231  11.904   7.789  1.2832  1.1578  0.1506
26270SOL    HW285416  11.288  11.845   7.662  0.0130 -0.4928  0.3187
26271SOL     OW85417   8.641   0.675   3.558 -0.0854 -0.3097 -0.0316
26271SOL    HW185418   8.565   0.638   3.603  0.3919 -0.4481  0.6802
26271SOL    HW285419   8.659   0.757   3.604 -0.0899 -0.0386 -0.5034
26272SOL     OW85420   4.803   3.448   6.704  0.3804 -0.6297 -0.1796
26272SOL    HW185421   4.787   3.414   6.616  2.2717 -0.0510 -0.7848
26272SOL    HW285422   4.762   3.383   6.762 -2.0695 -0.3505 -1.4499
26273SOL     OW85423   8.901   7.437  11.676  0.3163  0.4879 -0.3489
26273SOL    HW185424   8.897   7.494  11.753 -0.2432 -1.5274  1.1974
26273SOL    HW285425   8.991   7.444  11.645  1.9895 -2.0093  3.2685
26274SOL     OW85426   3.692   3.612   4.234 -0.1230  0.0949  0.1476
26274SOL    HW185427   3.770   3.557   4.245 -0.0686  0.3174  0.9726
26274SOL    HW285428   3.717   3.678   4.169  0.2210 -0.1098  0.0730
26275SOL     OW85429   2.749   4.196   6.053 -0.5004 -0.1019 -0.4008
26275SOL    HW185430   2.706   4.134   6.112 -1.8558  0.9597 -0.2186
26275SOL    HW285431   2.693   4.274   6.055  1.0217  1.0589 -0.7894
26276SOL     OW85432   5.467  12.115   2.595  0.5366 -0.3566 -0.4855
26276SOL    HW185433   5.443  12.171   2.669 -1.8219 -2.5674  0.5911
26276SOL    HW285434   5.499  12.035   2.636  1.8974 -0.6122 -1.9474
26277SOL     OW85435   6.285   7.393   9.979 -0.5237 -0.3175 -0.0433
26277SOL    HW185436   6.356   7.436  10.027 -0.7041 -0.3379  0.2483
26277SOL    HW285437   6.231   7.465   9.947  0.9042 -0.1729 -2.3286
26278SOL     OW85438   0.032  11.210  11.650 -0.5356  0.6693 -0.1408
26278SOL    HW185439   0.084  11.290  11.656  0.6294 -0.0573 -0.0487
26278SOL    HW285440  -0.002  11.209  11.561  1.1916  0.2665 -0.8378
26279SOL     OW85441   6.599   1.335  10.074  0.3718  0.6007  0.2581
26279SOL    HW185442   6.574   1.427  10.059  1.8138  1.1346  0.9241
26279SOL    HW285443   6.540   1.307  10.144 -0.1972  0.9619 -0.0623
26280SOL     OW85444   1.865   5.507   8.585  0.2638 -0.1616 -0.4157
26280SOL    HW185445   1.916   5.481   8.508  1.9766  0.2232  0.5228
26280SOL    HW285446   1.925   5.564   8.634 -1.6659  1.6304 -0.0293
26281SOL     OW85447   7.215  11.902   1.013 -0.1691 -0.0942  0.5620
26281SOL    HW185448   7.166  11.934   0.937  1.8867  1.4042 -0.2133
26281SOL    HW285449   7.272  11.834   0.977  1.7873  1.5457  0.4107
26282SOL     OW85450   8.267   1.948  11.999  0.4373 -0.3730 -0.2325
26282SOL    HW185451   8.298   1.863  11.967  1.0679 -0.2455  0.0238
26282SOL    HW285452   8.346   2.001  12.006  0.0131  0.3446 -0.6944
26283SOL     OW85453  10.083   8.374   5.745 -0.8734  0.0295  0.2705
26283SOL    HW185454  10.149   8.333   5.688 -0.1481 -0.8711  1.6989
26283SOL    HW285455  10.135   8.424   5.808 -1.5390 -0.6979  1.4219
26284SOL     OW85456   6.367   0.162   0.044 -0.1156  0.4102  0.6995
26284SOL    HW185457   6.345   0.252   0.065 -0.4278  0.8243 -1.1606
26284SOL    HW285458   6.462   0.158   0.049 -0.0636  0.9958  0.3153
26285SOL     OW85459   0.907  10.257   3.085  0.0733 -0.2536 -0.5166
26285SOL    HW185460   0.954  10.278   3.166 -1.8195  1.8240  0.1388
26285SOL    HW285461   0.971  10.271   3.015  1.5553 -1.4468  0.5367
26286SOL     OW85462   0.684   1.676   6.283  0.0201 -0.1709  0.3951
26286SOL    HW185463   0.777   1.653   6.273  0.2029 -0.0189  1.6112
26286SOL    HW285464   0.678   1.767   6.254  0.2581 -0.1706  0.3473
26287SOL     OW85465   5.868   2.660   8.916 -0.3943 -0.4133  0.0057
26287SOL    HW185466   5.863   2.739   8.971  0.2066 -0.2303 -0.1900
26287SOL    HW285467   5.787   2.613   8.934 -1.7695  1.2380 -1.3690
26288SOL     OW85468   0.366   9.795  12.475 -0.4928  0.6464 -0.4775
26288SOL    HW185469   0.406   9.820  12.391 -0.2229  1.7676 -0.0287
26288SOL    HW285470   0.271   9.797  12.457 -0.4105 -0.3322 -1.0793
26289SOL     OW85471   2.456  10.019   8.743  0.3715  0.0167 -0.2212
26289SOL    HW185472   2.423  10.109   8.747  0.1527  0.0914 -2.4699
26289SOL    HW285473   2.512  10.017   8.666  0.9610 -1.6130  0.2030
26290SOL     OW85474   5.768   9.291   1.916 -0.6853 -0.1018  0.1676
26290SOL    HW185475   5.783   9.212   1.968 -2.3512  0.4291  1.5503
26290SOL    HW285476   5.672   9.297   1.909 -0.5425  0.6237 -1.7924
26291SOL     OW85477   6.302   8.366   6.295  0.0584  0.0560 -0.2325
26291SOL    HW185478   6.235   8.315   6.340 -0.8673 -0.3950 -1.9993
26291SOL    HW285479   6.292   8.342   6.203  0.8545  2.0365 -0.8880
26292SOL     OW85480  12.752  12.194   7.247  0.1541  0.1710  0.5768
26292SOL    HW185481  12.760  12.285   7.275 -0.6607  0.7867 -1.0546
26292SOL    HW285482  12.700  12.198   7.167 -2.2613 -1.9685  1.8865
26293SOL     OW85483   1.565  11.342   9.399  0.0240 -0.3825 -0.1597
26293SOL    HW185484   1.497  11.395   9.356  0.0538 -0.0332  0.2176
26293SOL    HW285485   1.566  11.261   9.349  0.9436  0.4973 -1.6336
26294SOL     OW85486  10.305   3.700   5.212 -0.2460  0.0800 -0.0841
26294SOL    HW185487  10.376   3.749   5.254 -0.1272 -1.3507  1.5217
26294SOL    HW285488  10.246   3.677   5.285 -1.6187  0.0158 -1.1699
26295SOL     OW85489   7.821  12.725   7.319  0.4028 -0.1755  0.7857
26295SOL    HW185490   7.871  12.652   7.282 -1.3910 -0.7100 -0.7541
26295SOL    HW285491   7.744  12.684   7.357 -1.0087  0.8935 -0.7430
26296SOL     OW85492   2.964   0.857   3.973 -0.2285 -0.2446 -0.3991
26296SOL    HW185493   3.055   0.868   3.946 -0.2852  0.1219 -0.4432
26296SOL    HW285494   2.969   0.801   4.051  0.1262  0.6597  0.2405
26297SOL     OW85495   7.053   3.013   3.212  0.1318  0.0554 -0.7552
26297SOL    HW185496   6.984   3.058   3.259 -0.5288 -0.4992 -1.1657
26297SOL    HW285497   7.127   3.011   3.272 -1.1596 -1.9768  0.8954
26298SOL     OW85498   0.294  11.658   7.503  0.5292  0.0070 -0.2002
26298SOL    HW185499   0.224  11.632   7.563  0.7862  0.8542  0.4938
26298SOL    HW285500   0.332  11.576   7.474 -0.4807 -0.4542 -0.2640
26299SOL     OW85501   0.348  10.025   0.115 -0.3529 -0.4958 -0.2292
26299SOL    HW185502   0.397   9.971   0.176  0.9474  0.3305 -0.4830
26299SOL    HW285503   0.283  10.070   0.169 -0.5391 -1.2669  0.1992
26300SOL     OW85504  10.910  10.885   6.542  0.1337 -0.0779 -0.5156
26300SOL    HW185505  10.955  10.966   6.566  1.3291 -0.7048 -0.5832
26300SOL    HW285506  10.817  10.904   6.557  0.4498  1.0933  0.0651
26301SOL     OW85507   5.335   9.296   8.017 -0.4603 -0.2929 -0.5148
26301SOL    HW185508   5.420   9.280   7.976  0.0407 -0.1334  0.4256
26301SOL    HW285509   5.311   9.385   7.990  0.5443  0.3627  0.6540
26302SOL     OW85510   3.946   3.003   1.613  0.9919 -0.4957 -0.1721
26302SOL    HW185511   3.942   2.943   1.538  2.5290  0.1570 -0.8232
26302SOL    HW285512   3.911   3.085   1.580  0.7675 -0.4715  0.1228
26303SOL     OW85513   8.635   9.746   6.103  0.1812  0.1463 -0.7580
26303SOL    HW185514   8.652   9.679   6.170  0.8423 -1.0885 -2.1070
26303SOL    HW285515   8.712   9.802   6.106 -0.2633  0.7237  0.2148
26304SOL     OW85516  12.785   8.519  12.179 -0.6534 -0.4000 -0.0495
26304SOL    HW185517  12.797   8.568  12.097  1.4109 -1.0358 -0.1702
26304SOL    HW285518  12.829   8.436  12.163 -0.2506 -0.5464  1.7190
26305SOL     OW85519   4.347   2.656   3.765  0.7206  0.1462 -0.1670
26305SOL    HW185520   4.285   2.724   3.789  1.0498  0.3926 -0.0015
26305SOL    HW285521   4.432   2.690   3.795  0.8967 -0.2948 -0.1627
26306SOL     OW85522   1.569   1.105   2.742  0.0826 -0.2374 -0.0443
26306SOL    HW185523   1.555   1.197   2.720  0.4586 -0.4462 -1.2300
26306SOL    HW285524   1.657   1.102   2.779  0.9496 -0.4106 -2.0100
26307SOL     OW85525   3.723   0.554   8.061  0.0780  0.0217  0.1293
26307SOL    HW185526   3.777   0.573   7.985 -0.3037 -0.1677 -0.1907
26307SOL    HW285527   3.780   0.573   8.136  0.5443 -0.0541 -0.1998
26308SOL     OW85528   6.672   6.985   6.255 -0.2141  0.1183 -0.0162
26308SOL    HW185529   6.683   7.024   6.168  1.7138 -1.1763 -0.4131
26308SOL    HW285530   6.721   7.043   6.313  0.8730 -0.5073 -0.2746
26309SOL     OW85531   5.925   4.157   5.580 -0.0727  0.5772 -0.0073
26309SOL    HW185532   6.020   4.145   5.580 -0.0818  0.3332  1.2306
26309SOL    HW285533   5.906   4.199   5.664 -0.9812  1.3788 -0.5939
26310SOL     OW85534   1.586   7.784   0.324 -0.3327  0.2845  0.1909
26310SOL    HW185535   1.645   7.716   0.357  0.7192  0.2733 -1.6201
26310SOL    HW285536   1.552   7.826   0.403 -1.3069 -2.5274  1.4151
26311SOL     OW85537   2.503   0.928  12.635 -0.0013 -0.1636  0.5897
26311SOL    HW185538   2.512   1.017  12.670 -0.6226 -0.5409  1.7527
26311SOL    HW285539   2.591   0.890  12.643  0.1694  0.2006  0.4721
26312SOL     OW85540   0.267  10.350   3.244 -0.4390 -0.3058 -0.5332
26312SOL    HW185541   0.233  10.262   3.256  1.1123 -0.7239  1.3245
26312SOL    HW285542   0.219  10.403   3.309  1.2782 -0.6084  1.0585
26313SOL     OW85543   1.411  10.868   2.902 -0.4506 -0.2189 -0.2012
26313SOL    HW185544   1.501  10.866   2.869 -0.5175  0.6840 -0.4750
26313SOL    HW285545   1.358  10.837   2.828 -0.4778  0.5543 -0.5213
26314SOL     OW85546   2.392   2.662  10.569 -0.2276 -0.1952 -0.6397
26314SOL    HW185547   2.410   2.670  10.663 -0.4568 -1.3254 -0.4907
26314SOL    HW285548   2.470   2.618  10.534 -0.9607 -1.5174 -0.6507
26315SOL     OW85549   0.564   1.415   7.169  0.6750  0.0573 -0.1660
26315SOL    HW185550   0.577   1.322   7.190  0.3867  0.1608  0.5042
26315SOL    HW285551   0.624   1.461   7.229  1.5321  0.2662 -1.1612
26316SOL     OW85552   2.875   8.483   7.785  0.0047  0.3086 -0.8074
26316SOL    HW185553   2.809   8.413   7.783  0.6850 -0.4194  0.7075
26316SOL    HW285554   2.954   8.443   7.751  0.0058  0.8118 -1.4160
26317SOL     OW85555   2.554   8.335   7.212  0.2645 -0.1333 -0.0222
26317SOL    HW185556   2.635   8.356   7.258  1.0073 -0.0620 -1.3233
26317SOL    HW285557   2.549   8.240   7.214  0.4055 -0.1399  0.0146
26318SOL     OW85558   0.862  10.658  12.281  0.6226  0.0665 -0.2451
26318SOL    HW185559   0.861  10.680  12.188 -1.4207 -1.0740 -0.5597
26318SOL    HW285560   0.933  10.593  12.289  1.3782  0.7955 -0.8079
26319SOL     OW85561  10.628   1.356   9.522 -0.0401 -0.4357  0.5290
26319SOL    HW185562  10.657   1.312   9.602  0.1429  0.1381  0.7804
26319SOL    HW285563  10.676   1.439   9.520 -1.3567  0.3661  0.7601
26320SOL     OW85564  12.299   9.061   6.176  0.2308  0.2488 -0.5602
26320SOL    HW185565  12.304   8.978   6.223  2.0386 -0.0119 -1.1578
26320SOL    HW285566  12.230   9.109   6.221  0.8957 -0.5527  1.4380
26321SOL     OW85567  10.368  12.440   3.923  0.2328 -0.5306  0.3971
26321SOL    HW185568  10.345  12.411   3.835  0.3605  1.1351 -0.2339
26321SOL    HW285569  10.327  12.527   3.930 -0.3047 -0.8973  2.2287
26322SOL     OW85570  11.604   5.208   1.965  0.1179  0.0425  0.1673
26322SOL    HW185571  11.644   5.138   1.913  1.9932  0.0994  1.4102
26322SOL    HW285572  11.571   5.164   2.043 -0.1283  0.3181  0.2183
26323SOL     OW85573   8.707  11.493   7.935 -0.4681 -0.0601  0.2136
26323SOL    HW185574   8.755  11.501   8.018 -0.0556  2.4245 -0.1802
26323SOL    HW285575   8.769  11.450   7.876  0.1888  0.4293  0.5263
26324SOL     OW85576   9.494   0.674   5.078 -0.4580  0.0137  0.0581
26324SOL    HW185577   9.422   0.612   5.092 -1.1056  1.1978  2.5575
26324SOL    HW285578   9.473   0.715   4.995 -2.5210  0.0412  0.5231
26325SOL     OW85579  11.612   2.179   0.281 -0.0515  0.0696  0.1116
26325SOL    HW185580  11.531   2.195   0.234 -0.5406  0.9087  1.1916
26325SOL    HW285581  11.643   2.267   0.306  0.1036 -0.3396  1.4584
26326SOL     OW85582   1.653   2.174   8.242 -0.0911 -0.7237 -0.4963
26326SOL    HW185583   1.691   2.224   8.170  1.8214  0.8913  1.4852
26326SOL    HW285584   1.595   2.236   8.286 -1.3316 -1.7248 -0.6849
26327SOL     OW85585   8.580   9.324  11.935 -0.2916  0.0685 -0.2342
26327SOL    HW185586   8.500   9.376  11.945 -0.0594  0.9987 -2.5696
26327SOL    HW285587   8.621   9.358  11.855  0.3837 -3.0915 -1.3749
26328SOL     OW85588   6.504   9.237   6.159 -0.4427  0.3065  0.1177
26328SOL    HW185589   6.566   9.293   6.206  1.8335 -3.1390  1.6607
26328SOL    HW285590   6.552   9.208   6.081 -0.2484 -1.8016  0.9348
26329SOL     OW85591   0.155   1.163   4.479  0.2327 -0.2184  0.0386
26329SOL    HW185592   0.246   1.147   4.452  0.2222 -2.7054  1.1849
26329SOL    HW285593   0.162   1.191   4.570 -0.1394  0.2034 -0.0607
26330SOL     OW85594   0.365  10.515  12.111 -0.0796  0.0679  0.0584
26330SOL    HW185595   0.445  10.555  12.146  1.1222 -1.1880 -1.1324
26330SOL    HW285596   0.368  10.532  12.017  0.2198 -2.2768 -0.4210
26331SOL     OW85597   6.781   3.247   6.553  0.3223  0.1113 -0.4487
26331SOL    HW185598   6.833   3.179   6.510 -0.5763  0.3120 -1.9237
26331SOL    HW285599   6.694   3.207   6.561  0.7075 -0.3368  2.2471
26332SOL     OW85600   2.285   1.783   4.253 -0.1952 -0.1894  0.8996
26332SOL    HW185601   2.324   1.762   4.168  0.4557  0.3674  1.0542
26332SOL    HW285602   2.228   1.708   4.272 -0.0653 -0.4889  0.1462
26333SOL     OW85603  12.120  10.400   9.741  0.1756 -0.8455 -0.3105
26333SOL    HW185604  12.169  10.461   9.796  0.1735  0.9662 -2.1983
26333SOL    HW285605  12.187  10.357   9.688  0.1159 -2.1125  0.5840
26334SOL     OW85606   2.353   9.274   0.446 -0.2892 -0.1529 -0.1129
26334SOL    HW185607   2.271   9.225   0.454  0.0684 -0.8670 -0.6949
26334SOL    HW285608   2.327   9.357   0.407 -0.8132 -0.1492  0.2387
26335SOL     OW85609   2.461   3.530   5.579  0.4129 -0.0953 -0.1230
26335SOL    HW185610   2.390   3.488   5.530 -0.8275  2.9539 -1.1860
26335SOL    HW285611   2.539   3.515   5.525 -0.2237 -0.0169 -1.0974
26336SOL     OW85612   1.687  12.148   6.896  0.3251 -0.4139  0.2429
26336SOL    HW185613   1.777  12.160   6.865  0.1465  0.4109  0.0283
26336SOL    HW285614   1.632  12.176   6.823 -0.1053 -0.2591  0.6204
26337SOL     OW85615   7.380  10.442   2.101 -0.0291 -0.2171 -0.0840
26337SOL    HW185616   7.314  10.496   2.146 -0.6525 -0.2592 -0.9300
26337SOL    HW285617   7.431  10.402   2.172 -2.3891 -2.0605  0.6880
26338SOL     OW85618   5.026   0.016   7.409 -0.3391  0.3984  0.1763
26338SOL    HW185619   5.009  -0.076   7.388 -3.6620  0.9383 -0.0051
26338SOL    HW285620   5.111   0.034   7.369 -0.0344 -2.3218 -0.6230
26339SOL     OW85621   6.159   4.972   4.217 -0.2832 -0.3519  0.5135
26339SOL    HW185622   6.138   4.879   4.221 -1.0042 -0.2441 -0.3861
26339SOL    HW285623   6.109   5.005   4.142 -1.7025  1.1790  2.0432
26340SOL     OW85624  10.564   4.092  11.219  0.4248  0.0259  0.3031
26340SOL    HW185625  10.634   4.124  11.162  0.0970  0.3278  0.0629
26340SOL    HW285626  10.485   4.133  11.184  0.2690  0.5137  1.1979
26341SOL     OW85627   3.828  11.413   9.523 -0.6956  0.1449  0.4545
26341SOL    HW185628   3.747  11.461   9.540 -0.7172  1.4219 -2.6239
26341SOL    HW285629   3.898  11.476   9.539 -0.5872  0.4581 -1.1192
26342SOL     OW85630  11.482   3.540   3.103  0.9530  0.2919 -0.2168
26342SOL    HW185631  11.437   3.570   3.024 -1.4935 -0.5855  0.7298
26342SOL    HW285632  11.477   3.615   3.163 -1.9791 -0.6375  0.8870
26343SOL     OW85633   0.976   0.379   7.430  0.1807 -0.7833 -1.1581
26343SOL    HW185634   0.968   0.437   7.506  0.1999 -1.0707 -0.9305
26343SOL    HW285635   0.887   0.366   7.400  0.1914 -0.5063 -1.3086
26344SOL     OW85636   9.176   4.902   9.035  0.4251 -0.0276  0.3467
26344SOL    HW185637   9.187   4.991   9.003  2.1115  0.3996  1.9166
26344SOL    HW285638   9.167   4.912   9.130  0.2962 -1.5066  0.5174
26345SOL     OW85639   5.314   9.268  11.552 -0.0680  0.5814  0.3884
26345SOL    HW185640   5.365   9.345  11.577  2.0017 -0.0875 -1.4802
26345SOL    HW285641   5.372   9.194  11.570 -0.0551 -0.1720 -2.3027
26346SOL     OW85642  10.306   0.403   9.019 -0.1475  1.0858 -0.5704
26346SOL    HW185643  10.351   0.319   9.018  1.3152  1.8316  0.1009
26346SOL    HW285644  10.236   0.393   8.955 -1.3498 -1.3380  0.9544
26347SOL     OW85645   4.849  11.145  11.678  0.1598  0.0710  0.5849
26347SOL    HW185646   4.860  11.116  11.769 -0.0130  1.6040  1.1266
26347SOL    HW285647   4.797  11.076  11.637  2.5681 -2.0273  0.8458
26348SOL     OW85648   3.144   3.001   4.302  0.4899  1.3789 -0.5175
26348SOL    HW185649   3.064   3.030   4.257 -0.5517 -2.3674 -1.4436
26348SOL    HW285650   3.120   2.998   4.394 -1.4863 -1.9860 -0.9669
26349SOL     OW85651   5.852   2.171   1.095  0.1595  0.1510  0.1257
26349SOL    HW185652   5.854   2.089   1.046  2.4156  0.5128 -0.4875
26349SOL    HW285653   5.848   2.145   1.187 -1.1932 -0.5680 -0.1054
26350SOL     OW85654   1.612   7.065  12.338 -0.0581  0.2462  0.2805
26350SOL    HW185655   1.536   7.049  12.394  0.2795 -0.6541  0.5071
26350SOL    HW285656   1.577   7.110  12.261 -0.6612  0.7076  0.8209
26351SOL     OW85657   8.591   7.987   0.216  0.6489 -0.2566  0.1951
26351SOL    HW185658   8.508   8.023   0.247  0.8619  0.0689  0.3927
26351SOL    HW285659   8.652   8.060   0.222  1.2720 -0.8405  1.3202
26352SOL     OW85660   5.347   8.379   3.350 -0.0409  0.2130  0.4873
26352SOL    HW185661   5.338   8.359   3.443 -0.5900 -2.0119  0.0008
26352SOL    HW285662   5.408   8.314   3.317  1.6776  2.1589 -0.4084
26353SOL     OW85663   3.362   1.006   8.831  0.7473 -0.5674  0.2528
26353SOL    HW185664   3.352   1.004   8.927 -0.4008 -0.2220  0.1508
26353SOL    HW285665   3.360   1.100   8.810 -0.4942 -0.7024 -0.2527
26354SOL     OW85666   2.115   3.278   1.095  0.1147  0.2441 -0.0399
26354SOL    HW185667   2.027   3.242   1.110  0.9195 -1.5411  0.6709
26354SOL    HW285668   2.100   3.372   1.080 -2.1717 -0.3547 -2.4651
26355SOL     OW85669   5.761   4.824   6.113  0.0601  0.2333  0.7298
26355SOL    HW185670   5.828   4.891   6.129 -0.3982  0.8372  0.1932
26355SOL    HW285671   5.750   4.781   6.198  1.2580 -0.0117  0.7826
26356SOL     OW85672   8.437   5.047   2.767  0.5608  0.0028 -0.7526
26356SOL    HW185673   8.370   5.055   2.836  1.5036  0.0967  0.1766
26356SOL    HW285674   8.479   4.963   2.785 -0.7110 -1.1102 -2.6503
26357SOL     OW85675  11.066  11.770  12.034  0.0594  0.0060 -0.4465
26357SOL    HW185676  11.080  11.818  12.116  0.9444  0.9759 -1.1294
26357SOL    HW285677  11.008  11.698  12.057  1.2200 -0.4402  1.2763
26358SOL     OW85678   4.361   1.494   6.268  0.8324  0.4641  0.4982
26358SOL    HW185679   4.326   1.447   6.193 -2.4544  0.4123  1.9302
26358SOL    HW285680   4.346   1.587   6.248 -0.9620  0.4136  1.4100
26359SOL     OW85681   4.048   0.204   0.984 -0.4939 -0.4485 -0.3637
26359SOL    HW185682   4.122   0.146   1.003 -0.4830 -0.5763 -0.7755
26359SOL    HW285683   4.048   0.267   1.055 -0.6882 -1.1371  0.2565
26360SOL     OW85684   6.202  12.539   6.773  0.0842 -0.9417 -0.2551
26360SOL    HW185685   6.121  12.489   6.760  0.5718 -2.0817  0.9279
26360SOL    HW285686   6.272  12.476   6.759  0.7483 -0.3131  0.1841
26361SOL     OW85687   5.661   4.231   9.679 -0.2614  0.1968 -0.0973
26361SOL    HW185688   5.633   4.152   9.726  0.1339 -0.4290 -0.8936
26361SOL    HW285689   5.609   4.230   9.598  0.1145  0.4759 -0.3453
26362SOL     OW85690   3.434   0.481  11.213 -0.5493 -0.1272  0.2805
26362SOL    HW185691   3.487   0.558  11.234 -0.7091  0.1436 -0.2787
26362SOL    HW285692   3.403   0.497  11.124  1.4895 -1.9759 -0.8720
26363SOL     OW85693  12.241  10.676   8.037 -0.2799 -0.1475 -0.1419
26363SOL    HW185694  12.331  10.664   8.006 -0.3946 -0.4746 -0.3697
26363SOL    HW285695  12.206  10.747   7.983 -0.7947 -1.3826 -1.5051
26364SOL     OW85696  11.977  10.795   0.499  0.3428  0.6309  0.0022
26364SOL    HW185697  12.066  10.795   0.463  0.9466  0.4177  1.3951
26364SOL    HW285698  11.921  10.820   0.426  1.5210  0.5046 -0.9804
26365SOL     OW85699  12.603   8.208  11.707 -0.4974 -0.6905 -0.1681
26365SOL    HW185700  12.601   8.113  11.716  0.0401 -0.6803  0.1471
26365SOL    HW285701  12.542   8.227  11.637 -0.9024 -1.2385  0.0288
26366SOL     OW85702  10.563  12.227   0.982  0.5951 -0.2875 -0.1262
26366SOL    HW185703  10.511  12.152   1.012 -0.7401  0.3075 -0.8342
26366SOL    HW285704  10.633  12.236   1.047  0.9411 -2.2920 -0.1704
26367SOL     OW85705   2.872  10.638   7.510 -0.3127 -0.1404  1.0897
26367SOL    HW185706   2.928  10.686   7.572  0.5529 -0.8321  0.8635
26367SOL    HW285707   2.823  10.706   7.465  1.2177  0.5814  0.4625
26368SOL     OW85708   5.573   7.143  11.550  0.1548 -0.0620  0.0741
26368SOL    HW185709   5.547   7.222  11.596  2.2726  0.7778 -0.0796
26368SOL    HW285710   5.623   7.174  11.474  2.1475 -1.5183  0.6948
26369SOL     OW85711   5.516   0.869  10.987 -0.3992  0.1700  0.3220
26369SOL    HW185712   5.574   0.940  10.960 -0.6977  0.3148  0.0615
26369SOL    HW285713   5.569   0.790  10.977  0.1043  0.3954  1.0980
26370SOL     OW85714   7.125   0.274  10.670  0.0233  0.1020 -0.0222
26370SOL    HW185715   7.178   0.321  10.734  1.4893 -1.8720  0.3179
26370SOL    HW285716   7.188   0.244  10.605 -1.0312 -0.4053 -0.8291
26371SOL     OW85717   3.069   7.911   5.899 -0.5942  0.7721 -0.1148
26371SOL    HW185718   3.131   7.943   5.833 -0.4671 -0.8168 -0.8015
26371SOL    HW285719   3.003   7.864   5.849 -1.6629  1.3169  0.7374
26372SOL     OW85720  10.174   2.199  12.007  0.6691  0.5149  0.1009
26372SOL    HW185721  10.229   2.237  11.938  0.8000 -0.3165 -0.2633
26372SOL    HW285722  10.231   2.135  12.050  1.1424  2.1480  2.0784
26373SOL     OW85723   5.751   3.918  12.304 -0.5160  0.7019  0.2330
26373SOL    HW185724   5.721   3.865  12.230  0.1987  1.8785 -0.9276
26373SOL    HW285725   5.715   4.005  12.289  0.7104  1.2941  0.5662
26374SOL     OW85726   5.618   9.447   4.184  0.0101 -0.1419 -0.1191
26374SOL    HW185727   5.650   9.481   4.267  0.1474 -2.7638  1.0163
26374SOL    HW285728   5.531   9.486   4.174  0.6796  1.5357  0.3681
26375SOL     OW85729   0.376  12.168   2.695 -0.1084 -0.2097 -0.3839
26375SOL    HW185730   0.454  12.188   2.748 -1.7591  0.3908  1.9700
26375SOL    HW285731   0.392  12.080   2.661  1.0737 -0.6198  1.1228
26376SOL     OW85732   2.723   9.605   0.335 -0.0060 -0.2860  0.6034
26376SOL    HW185733   2.763   9.531   0.289  0.3325  1.0617 -1.4137
26376SOL    HW285734   2.630   9.583   0.338  0.0110 -0.5886 -0.4543
26377SOL     OW85735   7.687   3.025  12.763 -0.2636 -0.5748 -0.0302
26377SOL    HW185736   7.597   3.029  12.729  0.5492  0.4877 -2.2037
26377SOL    HW285737   7.718   2.939  12.737 -0.5081 -0.8153  0.4414
26378SOL     OW85738   5.659   2.814   9.363  0.4048 -0.0678 -0.7068
26378SOL    HW185739   5.676   2.895   9.316 -0.4531  0.0722 -0.7926
26378SOL    HW285740   5.707   2.825   9.446 -0.3430  0.8776 -0.3752
26379SOL     OW85741   3.109   7.099   9.814 -0.5670  0.1574 -0.1704
26379SOL    HW185742   3.015   7.086   9.821 -0.5046  0.1932  0.8381
26379SOL    HW285743   3.145   7.012   9.798 -0.7617  0.1392 -0.5165
26380SOL     OW85744   4.731   6.816  11.712  0.7185  0.3520 -0.0771
26380SOL    HW185745   4.826   6.813  11.721  0.7667  2.8202  1.0997
26380SOL    HW285746   4.713   6.902  11.673 -1.0219 -0.1789 -0.5561
26381SOL     OW85747   1.259   9.697  10.261 -0.4628  0.5515  0.1744
26381SOL    HW185748   1.168   9.727  10.260 -0.2648  1.1915  0.6000
26381SOL    HW285749   1.254   9.603  10.247 -1.2025  0.5617  0.3631
26382SOL     OW85750  11.961   8.599   1.316  0.1592 -0.1922  0.4969
26382SOL    HW185751  12.024   8.527   1.316  0.5970  0.1743 -0.4833
26382SOL    HW285752  11.919   8.594   1.230 -0.8332 -0.1444  0.9610
26383SOL     OW85753   7.826  11.282   6.780  0.0910  0.0470 -0.2595
26383SOL    HW185754   7.849  11.193   6.752 -0.8747 -0.7802  1.3677
26383SOL    HW285755   7.736  11.294   6.751  0.0233  0.2624  0.0334
26384SOL     OW85756   1.236  12.131   8.581  0.2068  0.4693  0.2760
26384SOL    HW185757   1.204  12.144   8.491 -1.3557 -0.8437  0.5927
26384SOL    HW285758   1.192  12.198   8.632  2.1730  2.1427 -0.0920
26385SOL     OW85759  11.756  11.569   4.152  0.1860  0.3605 -0.5898
26385SOL    HW185760  11.827  11.614   4.197  0.6671  0.6106 -1.5709
26385SOL    HW285761  11.677  11.618   4.176  0.5099  0.8212 -0.4603
26386SOL     OW85762   3.383  10.114  10.106 -0.4692  0.2809 -0.2760
26386SOL    HW185763   3.434  10.169  10.165 -0.2345 -1.5264  1.2891
26386SOL    HW285764   3.409  10.142  10.018 -0.5157  2.7485  0.4258
26387SOL     OW85765  10.313   5.756   1.151 -0.0296  0.4888  0.0545
26387SOL    HW185766  10.267   5.715   1.225  0.2953  0.7432  0.4025
26387SOL    HW285767  10.252   5.821   1.118 -0.5592 -0.2803 -0.5158
26388SOL     OW85768   0.047   3.446   0.603  0.2884 -0.0344 -0.2634
26388SOL    HW185769   0.107   3.490   0.544  0.8298 -0.9867 -0.4492
26388SOL    HW285770   0.002   3.516   0.649  1.0312  0.7014 -0.6395
26389SOL     OW85771   4.298  11.027   8.961 -0.0972  0.4940 -0.0438
26389SOL    HW185772   4.373  10.979   8.996 -0.7158  0.5856  1.5016
26389SOL    HW285773   4.322  11.120   8.971  0.5419  0.5513 -1.7790
26390SOL     OW85774   2.486   0.772   8.611  0.2275 -0.0915  0.0092
26390SOL    HW185775   2.518   0.860   8.592  1.6698 -0.1236  1.9013
26390SOL    HW285776   2.554   0.714   8.576 -0.7678 -0.4889 -1.3196
26391SOL     OW85777   8.925   2.755   3.056  0.0210  0.4285  0.3870
26391SOL    HW185778   8.905   2.668   3.022  0.9944  0.5809 -0.6314
26391SOL    HW285779   8.840   2.791   3.082 -0.2549 -1.3202  2.1412
26392SOL     OW85780   8.536   1.853   6.106 -0.4474 -0.0202  0.2851
26392SOL    HW185781   8.613   1.864   6.163  0.0935 -2.0265  0.0529
26392SOL    HW285782   8.538   1.928   6.047  0.9488  0.3299  0.7382
26393SOL     OW85783   1.474   5.230  10.389  0.1776  0.0248 -0.4027
26393SOL    HW185784   1.528   5.150  10.385 -1.1559 -0.8408 -2.2703
26393SOL    HW285785   1.537   5.301  10.381  1.1119 -0.9525 -2.7385
26394SOL     OW85786   3.140   3.305   7.481  0.9303 -0.1322  0.6177
26394SOL    HW185787   3.071   3.347   7.429  0.5946  0.0884  1.2268
26394SOL    HW285788   3.158   3.223   7.436 -1.0001 -1.0492  1.4241
26395SOL     OW85789   2.625   3.837   5.067  0.4774 -0.0101  0.2858
26395SOL    HW185790   2.701   3.854   5.011  0.1556 -1.5390 -0.6978
26395SOL    HW285791   2.617   3.915   5.122  3.0581 -0.0270  0.8049
26396SOL     OW85792   3.310  12.517   0.799 -0.3683 -0.0749 -0.1204
26396SOL    HW185793   3.290  12.497   0.708  1.1413  0.2589 -0.5599
26396SOL    HW285794   3.228  12.504   0.846 -0.8581 -1.5004 -1.3190
26397SOL     OW85795   7.062   2.140   3.054 -0.0585 -0.4372 -0.1545
26397SOL    HW185796   7.082   2.203   3.123  0.0061  0.7137 -1.1960
26397SOL    HW285797   7.009   2.074   3.097  2.3810 -1.3573  1.7218
26398SOL     OW85798  12.774  11.513   4.553  0.2677 -0.7358 -0.2696
26398SOL    HW185799  12.829  11.513   4.475 -1.5200  1.7945 -1.6516
26398SOL    HW285800  12.816  11.576   4.612 -0.0004 -0.3917 -0.4450
26399SOL     OW85801  12.075   6.279  10.233  0.2113  0.2005  0.5014
26399SOL    HW185802  12.075   6.190  10.200 -0.2584  0.4898 -0.3032
26399SOL    HW285803  11.983   6.300  10.246  0.2235  1.0504 -0.6738
26400SOL     OW85804   3.609  11.862  11.184  0.3258  0.1084  0.0276
26400SOL    HW185805   3.678  11.881  11.121  0.9919  0.7247  0.9242
26400SOL    HW285806   3.577  11.948  11.211 -0.6224 -0.1724 -0.1843
26401SOL     OW85807   7.723  12.420  10.127  0.2142 -0.3846  0.5433
26401SOL    HW185808   7.806  12.425  10.080 -0.1919  0.7666 -0.1040
26401SOL    HW285809   7.701  12.512  10.145 -2.1651 -0.4350 -1.5686
26402SOL     OW85810  10.230   2.365  10.071 -0.1536  0.3262 -0.2057
26402SOL    HW185811  10.258   2.456  10.076 -0.0531  0.3070 -0.4216
26402SOL    HW285812  10.240   2.341   9.979 -1.7395  0.5885 -0.4820
26403SOL     OW85813  12.533   7.536  11.549  0.4241 -0.6011  0.2631
26403SOL    HW185814  12.512   7.448  11.520  1.4818 -0.3859 -1.2920
26403SOL    HW285815  12.565   7.525  11.639  0.1088 -1.7359  0.2509
26404SOL     OW85816  10.969   9.613  11.553  0.3250 -0.3594 -0.5200
26404SOL    HW185817  10.920   9.685  11.514  0.3606 -0.2726 -0.4055
26404SOL    HW285818  11.032   9.655  11.611  1.1702 -0.4229 -1.3626
26405SOL     OW85819   1.011   7.915   8.554 -0.3768  0.3241  1.0138
26405SOL    HW185820   0.995   8.005   8.526 -2.7619  0.3159  2.1195
26405SOL    HW285821   0.952   7.862   8.502  0.0080 -0.4489  1.3426
26406SOL     OW85822   1.776   6.671   7.982 -0.4332 -0.7864 -0.2484
26406SOL    HW185823   1.738   6.635   8.062 -1.6024  1.0667  0.0820
26406SOL    HW285824   1.715   6.645   7.913 -0.2174 -1.1165 -0.3168
26407SOL     OW85825   9.998  12.084  10.471  0.6363  0.1765 -0.0793
26407SOL    HW185826  10.033  12.169  10.499  1.7126  0.1564 -1.2886
26407SOL    HW285827  10.067  12.022  10.493 -0.5470 -0.5827  1.7299
26408SOL     OW85828   5.300  10.129   8.540  0.4412  0.4733 -0.1609
26408SOL    HW185829   5.271  10.040   8.559 -1.4407  0.5947 -2.1193
26408SOL    HW285830   5.289  10.176   8.623 -1.5719 -0.4132  0.1335
26409SOL     OW85831   3.636   1.451   8.619  0.0009 -0.7171  0.4359
26409SOL    HW185832   3.553   1.462   8.665  0.2327  0.2418  0.6404
26409SOL    HW285833   3.615   1.392   8.546 -0.6858 -1.0796  0.9148
26410SOL     OW85834  12.647   3.401   0.239 -0.4350  0.4042  0.3685
26410SOL    HW185835  12.676   3.482   0.282 -0.4996  1.4249 -1.3946
26410SOL    HW285836  12.572   3.372   0.290 -0.7133  1.7472  0.7552
26411SOL     OW85837   8.312   8.661  11.930 -0.4028  0.2420  0.2014
26411SOL    HW185838   8.277   8.710  12.005 -0.9155 -0.8377  0.6862
26411SOL    HW285839   8.267   8.698  11.854  0.5385  1.7444  0.3261
26412SOL     OW85840  11.188   1.642   6.076 -0.0092 -0.1714 -0.8059
26412SOL    HW185841  11.267   1.679   6.117 -1.1673  0.7456  0.6877
26412SOL    HW285842  11.158   1.710   6.016 -0.4273  0.0613 -0.3390
26413SOL     OW85843  11.201   9.717   4.658  0.1062 -0.8059 -0.0863
26413SOL    HW185844  11.134   9.724   4.726  0.3571  0.4745  0.0495
26413SOL    HW285845  11.178   9.637   4.610  0.4122 -2.2280  1.9947
26414SOL     OW85846   3.082  11.887  10.283  0.0320  0.2365  0.4019
26414SOL    HW185847   3.007  11.871  10.340 -1.3496  1.3478 -1.0112
26414SOL    HW285848   3.055  11.853  10.197  1.1239  0.7032 -0.1520
26415SOL     OW85849   6.393  11.159   6.017 -0.1416 -0.3711 -0.5268
26415SOL    HW185850   6.480  11.195   6.032  0.3097 -1.0784 -1.3511
26415SOL    HW285851   6.385  11.152   5.922 -1.0105 -0.5299 -0.4571
26416SOL     OW85852   5.603   0.257   1.675 -0.3973  0.1269  0.0516
26416SOL    HW185853   5.548   0.257   1.753  1.1974  1.8005  1.2904
26416SOL    HW285854   5.686   0.219   1.705 -0.6653 -1.9551 -1.6429
26417SOL     OW85855   9.506   9.309  10.066  0.4266  0.2265 -0.0656
26417SOL    HW185856   9.530   9.279   9.979  1.0086  0.3797  0.0379
26417SOL    HW285857   9.587   9.343  10.103  0.0942  0.5569  0.3749
26418SOL     OW85858   5.871   7.365   0.810 -0.3353 -0.4791  0.2918
26418SOL    HW185859   5.817   7.289   0.832 -0.0338 -0.6967  0.2842
26418SOL    HW285860   5.929   7.376   0.885  0.3877 -0.9475 -0.1852
26419SOL     OW85861   7.678   8.937  11.742  0.3393  0.3166 -0.0970
26419SOL    HW185862   7.609   8.996  11.771 -0.2025 -1.0798  1.6191
26419SOL    HW285863   7.733   8.924  11.820  2.5344  1.3088 -1.3790
26420SOL     OW85864  12.730   3.965   5.739  0.3728 -0.0908  0.3957
26420SOL    HW185865  12.800   3.965   5.674  0.4051 -2.7680  0.2992
26420SOL    HW285866  12.775   3.980   5.822  0.7525  0.3426  0.1173
26421SOL     OW85867   0.033  10.677   5.065 -0.0253  0.3873 -0.2462
26421SOL    HW185868  -0.019  10.752   5.094  0.2644  0.0785  1.1700
26421SOL    HW285869   0.124  10.705   5.075  0.2574 -1.2360  3.9105
26422SOL     OW85870   3.774   5.676   2.132  0.3195  0.1729  0.0587
26422SOL    HW185871   3.686   5.685   2.170  0.1686 -0.6217 -0.0886
26422SOL    HW285872   3.832   5.677   2.207  0.3129  1.9866  0.0904
26423SOL     OW85873  12.046   1.394   0.015 -0.1085 -0.2909  0.1623
26423SOL    HW185874  12.005   1.455   0.075 -0.3080  0.5707 -0.8214
26423SOL    HW285875  12.080   1.324   0.071 -3.1221 -1.2054  1.0217
26424SOL     OW85876   1.631   9.676   0.779  0.1293 -0.0551 -0.2422
26424SOL    HW185877   1.719   9.677   0.740 -0.2619  1.1859 -1.1793
26424SOL    HW285878   1.587   9.750   0.738 -2.0932 -1.9348 -1.4494
26425SOL     OW85879   7.751  10.766   3.865 -0.5555  0.4614 -0.0546
26425SOL    HW185880   7.828  10.822   3.877  1.8002 -1.7196 -3.2407
26425SOL    HW285881   7.690  10.819   3.814 -0.1423  1.4269  0.4353
26426SOL     OW85882  10.123   4.230  10.127  0.0358  0.8423  0.2218
26426SOL    HW185883  10.141   4.244  10.034  0.7324  0.4943  0.2954
26426SOL    HW285884  10.049   4.169  10.129  1.1171 -0.5308 -0.1250
26427SOL     OW85885   9.662   7.562   4.429 -0.1197 -0.0672 -0.2976
26427SOL    HW185886   9.702   7.528   4.349  1.4916  0.9365  0.0269
26427SOL    HW285887   9.710   7.519   4.500 -2.2899 -1.8296  0.2066
26428SOL     OW85888  11.581   6.262   6.448 -0.2274 -0.3962 -0.4502
26428SOL    HW185889  11.630   6.254   6.366  1.1517 -1.0245  0.3893
26428SOL    HW285890  11.602   6.350   6.480 -1.6582  0.2821 -1.2810
26429SOL     OW85891   1.588  11.831   8.684 -0.2039  0.3327  0.2989
26429SOL    HW185892   1.540  11.793   8.611 -0.1655  1.6371 -0.4431
26429SOL    HW285893   1.522  11.882   8.732 -0.0523  0.1758  0.6751
26430SOL     OW85894   0.546  10.438  10.120  0.1742 -0.0354  0.0389
26430SOL    HW185895   0.483  10.461  10.188  0.6860 -1.1290  0.9247
26430SOL    HW285896   0.561  10.344  10.133 -1.7208 -0.9634 -3.2655
26431SOL     OW85897   8.062  11.292   3.633  0.3593  0.1723 -0.3861
26431SOL    HW185898   8.015  11.344   3.698  0.4590  0.8223 -0.8216
26431SOL    HW285899   8.026  11.320   3.549  1.9424  1.1778 -0.7845
26432SOL     OW85900  12.630  12.450   4.443 -0.2016  0.0451 -0.0518
26432SOL    HW185901  12.679  12.368   4.442 -1.1666 -0.6622 -3.5604
26432SOL    HW285902  12.697  12.518   4.438  0.5485 -0.7562 -1.5281
26433SOL     OW85903   6.581   3.032   3.066 -0.2267  0.5003 -0.4200
26433SOL    HW185904   6.608   2.940   3.076 -1.9013 -0.2736 -2.3432
26433SOL    HW285905   6.650   3.072   3.013 -0.6555 -0.2920 -1.5972
26434SOL     OW85906   6.868  10.485   4.961 -0.1490  0.4422 -0.2137
26434SOL    HW185907   6.827  10.571   4.974  0.4259  0.9572 -1.6570
26434SOL    HW285908   6.861  10.469   4.867  0.7093 -0.6102 -0.1136
26435SOL     OW85909   3.296   8.678   4.943  0.1306 -0.3635  0.2362
26435SOL    HW185910   3.326   8.598   4.987 -0.4250  0.1339  1.5856
26435SOL    HW285911   3.372   8.736   4.944  0.0092 -0.2081  0.9258
26436SOL     OW85912   8.339  11.587   2.125  0.6516  0.2058  0.0549
26436SOL    HW185913   8.264  11.528   2.117 -0.0774  0.9381  1.2080
26436SOL    HW285914   8.399  11.558   2.057 -0.9831  0.0465 -1.4036
26437SOL     OW85915   4.968  12.620   6.386  0.1337  0.0878  0.2949
26437SOL    HW185916   5.000  12.671   6.461 -0.4582 -0.2497  0.7813
26437SOL    HW285917   4.976  12.680   6.312 -0.2644  0.7911  0.8057
26438SOL     OW85918   3.121   2.629   6.100 -0.1048 -0.3439  0.1150
26438SOL    HW185919   3.149   2.649   6.189  0.9326 -2.2386  0.2725
26438SOL    HW285920   3.200   2.642   6.047  0.1284 -2.0961 -0.0269
26439SOL     OW85921  12.238   9.810  11.255 -0.1765  0.7169 -0.2658
26439SOL    HW185922  12.187   9.738  11.292  0.2001  1.3352  1.5572
26439SOL    HW285923  12.269   9.859  11.331  4.2102 -0.3434 -1.0957
26440SOL     OW85924  11.748   7.276   5.049 -0.6352 -0.2339  0.0822
26440SOL    HW185925  11.794   7.193   5.041  0.2478  0.2831 -0.2459
26440SOL    HW285926  11.737   7.288   5.143 -1.0687 -0.8697  0.1253
26441SOL     OW85927   5.731  12.147  12.674  0.2644  0.2395  0.3794
26441SOL    HW185928   5.654  12.092  12.691 -1.4432  2.6994  1.1906
26441SOL    HW285929   5.769  12.162  12.760 -0.3424  1.6727  0.4319
26442SOL     OW85930   9.816   8.758   2.942 -1.0622 -0.4977 -0.3300
26442SOL    HW185931   9.852   8.804   3.018 -2.2817  0.4018 -0.2815
26442SOL    HW285932   9.793   8.671   2.976 -2.5249  0.2239  0.6108
26443SOL     OW85933   2.592   1.794   9.033  0.0745  0.4590  0.4732
26443SOL    HW185934   2.589   1.760   8.943  2.9559  2.3872 -0.4922
26443SOL    HW285935   2.535   1.735   9.082 -0.0584 -1.9100 -2.2205
26444SOL     OW85936   1.617   3.440  12.720  0.1655 -0.1892  0.0986
26444SOL    HW185937   1.601   3.518  12.668  1.5519 -0.0157 -0.0999
26444SOL    HW285938   1.614   3.368  12.657 -1.8741 -0.4465  0.3890
26445SOL     OW85939   4.622   2.081   1.997 -0.3368  0.0029 -0.0181
26445SOL    HW185940   4.647   2.105   1.908 -1.0787 -3.2569 -1.2524
26445SOL    HW285941   4.679   2.133   2.053  0.6752  1.6253 -2.3825
26446SOL     OW85942   0.994   8.675   7.497  0.3117 -0.2816 -0.2567
26446SOL    HW185943   0.910   8.690   7.541 -0.2546 -1.1815 -0.9909
26446SOL    HW285944   1.060   8.705   7.560 -0.5797  1.6111 -0.1532
26447SOL     OW85945   7.874   8.605   1.902  0.7596  0.8170  0.3581
26447SOL    HW185946   7.875   8.606   1.998 -0.7148 -0.0734  0.4034
26447SOL    HW285947   7.917   8.687   1.878  2.0922  0.5932  1.7443
26448SOL     OW85948   2.615   8.701   0.886  0.1436 -0.4462 -0.3776
26448SOL    HW185949   2.522   8.694   0.910  0.1967  0.0039 -0.0321
26448SOL    HW285950   2.652   8.759   0.952  0.8465 -1.2765 -0.0357
26449SOL     OW85951  11.881   2.686   3.564 -0.2483 -0.6264 -0.6965
26449SOL    HW185952  11.823   2.610   3.562 -0.2999 -0.6599  0.8017
26449SOL    HW285953  11.843   2.742   3.631  0.3934  0.2382 -1.0501
26450SOL     OW85954   8.288  12.391   6.173 -0.4888  0.1059  0.0314
26450SOL    HW185955   8.270  12.375   6.081 -2.6071 -1.0692  0.5635
26450SOL    HW285956   8.367  12.445   6.174  0.2733 -0.8455 -2.3996
26451SOL     OW85957  10.984  12.141  10.790 -0.0142  0.1584  0.2212
26451SOL    HW185958  11.027  12.077  10.733 -0.2266 -0.0089  0.2503
26451SOL    HW285959  10.935  12.088  10.854 -0.2330  0.3499  0.2131
26452SOL     OW85960   8.370   7.498  10.167  0.5154  0.6090 -0.0437
26452SOL    HW185961   8.450   7.536  10.202 -0.1914  1.0096  1.1814
26452SOL    HW285962   8.347   7.429  10.229 -0.3730  0.8550 -0.0812
26453SOL     OW85963  12.098   1.782  12.328 -0.2136 -0.3026 -0.6048
26453SOL    HW185964  12.145   1.866  12.323  2.2138 -1.6021 -1.1601
26453SOL    HW285965  12.094   1.763  12.422  1.6332 -0.7806 -0.5905
26454SOL     OW85966   0.266  10.015   2.991  0.3181  0.4819  0.1642
26454SOL    HW185967   0.215  10.002   3.070  0.6398 -0.7060  0.2046
26454SOL    HW285968   0.268  10.110   2.978 -2.6904  0.5786 -0.3844
26455SOL     OW85969   7.715   6.287   3.232  0.0948  0.0384 -0.1901
26455SOL    HW185970   7.764   6.204   3.234  0.3582  0.1973  0.0570
26455SOL    HW285971   7.699   6.307   3.324 -0.6727 -0.1458 -0.2813
26456SOL     OW85972   0.702   8.996  10.410 -0.1686 -0.0824  0.4426
26456SOL    HW185973   0.687   8.914  10.362  1.9468 -0.2859  0.0285
26456SOL    HW285974   0.621   9.010  10.459 -0.8390 -2.0522 -0.0078
26457SOL     OW85975  12.112   8.867   3.536 -0.6446  0.0396 -0.1524
26457SOL    HW185976  12.170   8.839   3.607 -1.7507 -1.0706  0.3507
26457SOL    HW285977  12.028   8.826   3.556 -0.8141 -0.9351 -2.4676
26458SOL     OW85978   2.188   1.312   2.300  0.0675  0.0641 -0.3027
26458SOL    HW185979   2.224   1.401   2.291 -1.8668  0.9058 -0.3340
26458SOL    HW285980   2.264   1.255   2.305  1.4020  1.8484  0.8529
26459SOL     OW85981   7.349  10.762   1.161 -0.0233 -0.2318  0.2682
26459SOL    HW185982   7.265  10.802   1.185  0.7424 -0.3266  3.6649
26459SOL    HW285983   7.348  10.677   1.205  0.7256 -1.5601 -2.1114
26460SOL     OW85984   6.385  12.228   8.520 -0.3164  0.0598  0.2899
26460SOL    HW185985   6.341  12.294   8.468  0.9165  1.2144  0.6556
26460SOL    HW285986   6.423  12.168   8.456 -1.2864 -0.2152 -0.0436
26461SOL     OW85987   3.552   1.072   1.420 -0.0249 -0.1737  0.0429
26461SOL    HW185988   3.576   1.086   1.512 -1.4823  0.8412  0.2975
26461SOL    HW285989   3.475   1.127   1.407 -0.4664 -1.1182 -1.5116
26462SOL     OW85990   0.235  10.808   8.931 -0.3813  0.3832  0.1392
26462SOL    HW185991   0.303  10.840   8.990  0.9338 -1.8098 -0.0553
26462SOL    HW285992   0.154  10.812   8.982  0.3915  0.3855  1.4065
26463SOL     OW85993   6.242  10.819   0.485 -0.2633  0.7470 -0.3542
26463SOL    HW185994   6.235  10.809   0.391  0.6956 -1.0861 -0.2727
26463SOL    HW285995   6.176  10.885   0.508 -0.3645  1.3622 -2.3022
26464SOL     OW85996   6.589   4.282   7.358 -0.2912 -0.5913 -0.8021
26464SOL    HW185997   6.513   4.325   7.397  0.5955 -0.1023  0.4046
26464SOL    HW285998   6.552   4.235   7.283 -2.1414 -1.9305  0.8291
26465SOL     OW85999  12.497  10.674   1.259  0.0360  0.1956  0.0888
26465SOL    HW186000  12.523  10.583   1.271 -0.6215 -0.2159 -1.3660
26465SOL    HW286001  12.476  10.681   1.166  0.9459  2.0736 -0.0212
26466SOL     OW86002  10.695   3.405   2.303 -0.1855 -0.1273 -0.5557
26466SOL    HW186003  10.637   3.417   2.379  0.2234 -0.6662 -0.1498
26466SOL    HW286004  10.782   3.429   2.336 -0.0977  0.2201 -1.0282
26467SOL     OW86005   0.438  12.012   4.309  0.3198 -0.2546 -0.2057
26467SOL    HW186006   0.381  12.089   4.309  0.3924 -0.1883  0.7418
26467SOL    HW286007   0.483  12.016   4.393 -1.5925 -2.7183  1.0654
26468SOL     OW86008   1.565   0.649  10.925  0.1280 -0.1584  0.1660
26468SOL    HW186009   1.641   0.593  10.908  0.3345  0.2572 -0.3051
26468SOL    HW286010   1.490   0.591  10.916  0.4142 -0.7664  1.4621
26469SOL     OW86011   9.974   7.185   4.911  0.1181  0.3564 -0.3829
26469SOL    HW186012   9.987   7.247   4.840 -1.3297 -0.2786 -1.2588
26469SOL    HW286013  10.049   7.126   4.907  0.2112  0.5262 -1.1874
26470SOL     OW86014   5.097   7.494  10.450 -0.0765  0.5876  0.7221
26470SOL    HW186015   5.119   7.576  10.406 -1.6772  1.2980  1.1741
26470SOL    HW286016   5.004   7.501  10.469 -0.5958 -1.9299 -0.4628
26471SOL     OW86017   1.224   7.520   4.266  0.0493  0.4401  0.3104
26471SOL    HW186018   1.243   7.587   4.331 -0.6783  1.4015 -0.4152
26471SOL    HW286019   1.133   7.538   4.241 -0.4273 -1.3462  0.6828
26472SOL     OW86020  12.501   4.326  10.217 -0.0407 -0.3576  0.2278
26472SOL    HW186021  12.557   4.277  10.277 -0.6880  0.2639  1.3766
26472SOL    HW286022  12.454   4.259  10.168  2.0196 -0.9125 -1.1401
26473SOL     OW86023  11.348   1.673   8.496 -0.4913  0.0331  0.0812
26473SOL    HW186024  11.284   1.709   8.433 -1.1959 -0.5885  0.4252
26473SOL    HW286025  11.425   1.729   8.485 -0.2361 -0.6161 -1.9946
26474SOL     OW86026   5.057   4.092   9.327  0.2054  0.5559  0.2362
26474SOL    HW186027   5.098   4.076   9.242 -0.9218 -4.9398  0.3644
26474SOL    HW286028   4.964   4.071   9.313 -0.0753 -0.1828  2.7207
26475SOL     OW86029   8.874   5.745   0.691  0.1782 -0.0706  0.0183
26475SOL    HW186030   8.889   5.809   0.621 -1.1265 -1.3016 -1.4859
26475SOL    HW286031   8.780   5.729   0.688  0.2330 -0.7984  1.5100
26476SOL     OW86032   3.077  10.371   1.860  0.3580 -0.3307 -0.5221
26476SOL    HW186033   3.011  10.440   1.853  2.7123  2.4850  1.9347
26476SOL    HW286034   3.146  10.397   1.798  1.7567  0.2443  1.1968
26477SOL     OW86035   1.221   3.779   0.243  0.2946  0.1133 -0.1441
26477SOL    HW186036   1.234   3.697   0.292  2.2877  1.6157  2.1184
26477SOL    HW286037   1.305   3.794   0.200  0.1327  1.1808 -0.1083
26478SOL     OW86038   6.446  10.522   6.038 -0.4948 -0.1396  0.1422
26478SOL    HW186039   6.502  10.455   6.000  1.7826  0.6109  1.9153
26478SOL    HW286040   6.469  10.602   5.992 -0.3640  0.1161  0.6434
26479SOL     OW86041   8.609   7.556   7.516  0.1606  0.1619  0.5356
26479SOL    HW186042   8.540   7.559   7.582  1.4914  0.0559  1.9843
26479SOL    HW286043   8.669   7.488   7.547  0.8174  0.1121 -0.7845
26480SOL     OW86044   5.317  11.976   2.890  0.0757  0.0504 -0.7205
26480SOL    HW186045   5.237  11.947   2.846  0.2356 -1.5288 -0.0251
26480SOL    HW286046   5.298  12.066   2.918 -0.5669  0.5633 -2.6355
26481SOL     OW86047   6.979  12.554   2.221 -0.5145  0.1505  0.6626
26481SOL    HW186048   6.924  12.615   2.269  0.0010 -0.2316  1.7733
26481SOL    HW286049   6.919  12.511   2.160 -1.2312  0.4951  1.1045
26482SOL     OW86050   7.057   9.554  10.091 -0.0444 -0.1696  0.1189
26482SOL    HW186051   7.064   9.634  10.143  0.4477  0.3693 -0.7443
26482SOL    HW286052   7.030   9.584  10.004  1.3085 -0.7950 -0.5523
26483SOL     OW86053   9.314   7.709   3.017  0.4589  0.5635  0.6359
26483SOL    HW186054   9.255   7.647   3.059  0.2493  1.1464  1.2132
26483SOL    HW286055   9.269   7.734   2.936  1.2746 -1.2561 -0.4434
26484SOL     OW86056   4.117   2.393   6.224 -0.0219 -0.2069 -0.0117
26484SOL    HW186057   4.159   2.476   6.246  0.1908 -0.6112  1.1807
26484SOL    HW286058   4.154   2.369   6.139  1.5071 -0.1172  0.5964
26485SOL     OW86059   6.043  11.299  10.869  0.1533 -0.1804  0.1297
26485SOL    HW186060   6.057  11.239  10.795 -1.7323 -0.3933 -0.0848
26485SOL    HW286061   6.031  11.385  10.828 -2.4319 -0.5270 -0.0134
26486SOL     OW86062   3.506   4.820   7.333  0.2836 -0.8476 -0.2109
26486SOL    HW186063   3.427   4.765   7.335  0.0953 -0.5797 -0.2018
26486SOL    HW286064   3.544   4.811   7.421 -0.2158 -0.2925  0.0731
26487SOL     OW86065   0.168   6.866   7.533  0.4800 -0.2121  0.2638
26487SOL    HW186066   0.206   6.953   7.520  1.5951 -0.5633  0.9874
26487SOL    HW286067   0.192   6.816   7.455 -1.7406  0.6043 -1.0403
26488SOL     OW86068   6.758   1.357   9.444 -0.0518  0.3742  0.9990
26488SOL    HW186069   6.664   1.361   9.425 -0.2521 -2.6099  0.8660
26488SOL    HW286070   6.770   1.272   9.487  2.7061  0.2564  0.1693
26489SOL     OW86071   6.074   3.917  10.942 -1.0172  0.5260 -0.6702
26489SOL    HW186072   6.042   4.000  10.976  0.0158  0.7732 -0.2787
26489SOL    HW286073   6.031   3.851  10.996 -0.4714  0.8721  0.2127
26490SOL     OW86074   4.514   0.050  12.009 -1.0501  0.0016  0.3907
26490SOL    HW186075   4.513   0.142  12.033 -1.5096 -0.1003  0.7777
26490SOL    HW286076   4.547   0.049  11.919  0.0899  0.4357  0.7827
26491SOL     OW86077   7.715   8.801   7.505 -0.2470  0.0484  0.1890
26491SOL    HW186078   7.737   8.739   7.574 -0.7832  1.4873  1.7314
26491SOL    HW286079   7.629   8.836   7.531 -0.3449  0.8166 -1.0769
26492SOL     OW86080  12.668   9.258   8.521 -0.3931  1.1710  0.1639
26492SOL    HW186081  12.679   9.182   8.465 -1.3005  0.6560  0.6517
26492SOL    HW286082  12.653   9.331   8.460 -1.1110  0.6667 -0.2769
26493SOL     OW86083   1.355   9.226   3.374  0.5159 -0.3852 -0.0577
26493SOL    HW186084   1.303   9.211   3.453  0.0400 -0.2501 -0.3371
26493SOL    HW286085   1.293   9.264   3.312  0.4978 -1.9705 -1.0406
26494SOL     OW86086   4.588  11.227   0.574  0.1902 -0.1882 -0.4162
26494SOL    HW186087   4.592  11.321   0.591  1.8762 -0.2986 -0.0431
26494SOL    HW286088   4.497  11.204   0.590  0.1370  1.0535  1.3851
26495SOL     OW86089  12.543  10.055   1.443  0.5731 -0.1656  0.0210
26495SOL    HW186090  12.464  10.036   1.392  1.2167  0.1631 -1.1143
26495SOL    HW286091  12.582   9.969   1.459  0.7740 -0.2123 -0.7089
26496SOL     OW86092  12.562   5.462   8.521 -0.0315  0.4761 -0.4915
26496SOL    HW186093  12.519   5.519   8.458  0.3899 -0.3721 -1.5886
26496SOL    HW286094  12.536   5.496   8.607 -2.3989  0.3317 -1.1047
26497SOL     OW86095   3.092   8.355   7.685  0.3453  0.5691  0.3717
26497SOL    HW186096   3.160   8.287   7.687 -2.5920 -2.8178 -2.0923
26497SOL    HW286097   3.123   8.417   7.619  1.6482 -0.1613  0.2526
26498SOL     OW86098   5.177   1.356   0.909  0.1460 -0.1646  0.8910
26498SOL    HW186099   5.130   1.420   0.962  0.3981 -0.2758  1.2559
26498SOL    HW286100   5.269   1.383   0.915  0.1247  0.0982  0.1211
26499SOL     OW86101   8.079   7.399   3.451 -0.5380 -0.2705 -0.0016
26499SOL    HW186102   8.094   7.486   3.414  1.8061 -1.2656 -1.6523
26499SOL    HW286103   7.987   7.380   3.430 -1.0958  1.7391  0.3727
26500SOL     OW86104   8.963  10.693   8.997  0.0380 -1.0857 -0.1845
26500SOL    HW186105   9.014  10.638   8.938 -1.2881 -2.0089 -0.5043
26500SOL    HW286106   8.976  10.782   8.965  2.5312 -1.0866  0.5688
26501SOL     OW86107   8.272  12.213   9.945 -0.3029  0.0258  0.0040
26501SOL    HW186108   8.322  12.133   9.962 -0.1697  0.2704  0.7867
26501SOL    HW286109   8.330  12.284   9.973 -0.2269  0.4325 -1.1361
26502SOL     OW86110   2.368   8.094  10.040  0.0168  0.0539 -0.0232
26502SOL    HW186111   2.378   8.179  10.083  0.7712  0.2237 -0.5363
26502SOL    HW286112   2.457   8.064  10.024 -0.2273  0.2328 -1.9461
26503SOL     OW86113   5.211   8.527   4.883 -0.5777 -0.1551  0.0078
26503SOL    HW186114   5.120   8.518   4.911 -1.3007  1.4122 -1.5957
26503SOL    HW286115   5.252   8.443   4.904 -2.5577 -1.1081  0.2093
26504SOL     OW86116   3.610   2.420   1.756  0.3907 -0.8555 -0.4847
26504SOL    HW186117   3.689   2.378   1.724  0.8029  0.5356 -1.3482
26504SOL    HW286118   3.573   2.464   1.680  0.3511  0.9136  0.5175
26505SOL     OW86119  12.287  11.138   2.999 -0.6985  0.3035 -0.4406
26505SOL    HW186120  12.205  11.185   3.013 -0.8789 -0.0456 -0.3019
26505SOL    HW286121  12.348  11.178   3.061 -0.6050  0.9448 -0.9403
26506SOL     OW86122   5.352   0.319   2.181 -0.3538 -0.4000  0.1132
26506SOL    HW186123   5.300   0.378   2.126 -0.5595 -0.8837 -0.2233
26506SOL    HW286124   5.286   0.266   2.227 -0.2564  1.0419  2.0555
26507SOL     OW86125   9.639   9.670   8.652  0.2948 -0.1301  0.0612
26507SOL    HW186126   9.589   9.601   8.609  0.7988  0.1717 -1.0522
26507SOL    HW286127   9.604   9.752   8.617 -0.0252  0.1840  1.0667
26508SOL     OW86128   1.587   9.410   5.865  0.5053  0.2150  0.4513
26508SOL    HW186129   1.510   9.430   5.918 -0.1674 -2.5262  0.6676
26508SOL    HW286130   1.636   9.346   5.917  2.6488  1.4420  0.0492
26509SOL     OW86131   9.502   4.573  12.563  0.5385 -0.4351  0.2668
26509SOL    HW186132   9.483   4.492  12.516  0.4781  0.6329 -1.6876
26509SOL    HW286133   9.589   4.599  12.532  0.1931  0.6780  0.1933
26510SOL     OW86134   9.806   8.919   0.307  0.0195  0.3863  0.3201
26510SOL    HW186135   9.792   8.824   0.316 -0.4626  0.3379 -0.7005
26510SOL    HW286136   9.893   8.934   0.344  0.7124 -0.7054 -0.7457
26511SOL     OW86137   4.984   0.850  11.498 -0.1564 -0.0716  0.3172
26511SOL    HW186138   5.011   0.831  11.587  1.9188 -0.0570 -0.2701
26511SOL    HW286139   4.995   0.767  11.451 -0.3728  0.1473 -0.1274
26512SOL     OW86140  12.204   0.727   5.696 -0.0511  0.1935 -0.7876
26512SOL    HW186141  12.157   0.809   5.685  1.2776  0.9159 -1.2926
26512SOL    HW286142  12.157   0.665   5.640 -0.8560  0.6975 -0.6767
26513SOL     OW86143   5.079   0.883   4.296 -0.2898 -0.3882  0.0057
26513SOL    HW186144   5.118   0.864   4.211 -0.3322 -1.0910  0.1359
26513SOL    HW286145   4.985   0.869   4.282 -0.2790 -0.6564  0.2077
26514SOL     OW86146   6.133   4.812   3.240 -0.7362 -0.8121 -0.5283
26514SOL    HW186147   6.196   4.883   3.239 -1.6450  0.0149 -0.6534
26514SOL    HW286148   6.051   4.852   3.209 -1.3087 -1.8581 -0.4175
26515SOL     OW86149   2.274  11.450   9.886 -0.7318  0.2979  0.1436
26515SOL    HW186150   2.275  11.355   9.887 -1.7482  0.1773 -2.3294
26515SOL    HW286151   2.199  11.473   9.831  0.9919  2.4328 -1.5268
26516SOL     OW86152   5.505   1.835   6.851  1.1343  0.1062  0.3725
26516SOL    HW186153   5.471   1.745   6.858 -1.5357  0.6785 -2.6519
26516SOL    HW286154   5.591   1.825   6.809  1.0833 -1.0662  0.5128
26517SOL     OW86155   6.595  12.211   6.945 -0.2778  0.3142  0.5594
26517SOL    HW186156   6.630  12.129   6.910  2.1715  1.7594 -0.6488
26517SOL    HW286157   6.651  12.230   7.020 -1.2326  0.5979  1.2172
26518SOL     OW86158  12.317   1.120   5.448 -0.1269  0.0147  0.1203
26518SOL    HW186159  12.260   1.045   5.466 -0.8206  0.2726 -0.8996
26518SOL    HW286160  12.270   1.170   5.382  0.7893  0.8290  0.0636
26519SOL     OW86161   2.236  11.758   9.413  0.6639 -0.0173 -0.5025
26519SOL    HW186162   2.269  11.847   9.430  1.8334 -0.4811 -0.2550
26519SOL    HW286163   2.191  11.765   9.329  2.0694  0.5084 -1.2520
26520SOL     OW86164   6.821   9.154  11.797  0.3610  0.2621 -0.2034
26520SOL    HW186165   6.900   9.108  11.827 -0.2568  0.3475  1.7166
26520SOL    HW286166   6.836   9.245  11.823 -0.5113  0.2120  0.5165
26521SOL     OW86167   9.483   5.383  10.943  0.0440 -0.4768  0.2234
26521SOL    HW186168   9.393   5.387  10.977 -0.4594  1.5021 -1.1362
26521SOL    HW286169   9.533   5.443  10.998  0.1968 -0.4987  0.1090
26522SOL     OW86170  10.097   0.173   9.497  0.0516 -0.2092 -0.1934
26522SOL    HW186171  10.133   0.212   9.417  1.8066 -0.5806  0.3619
26522SOL    HW286172  10.071   0.248   9.550 -1.5041  0.0373 -1.2272
26523SOL     OW86173   6.397   4.046  10.000  0.1806 -0.5352  0.5373
26523SOL    HW186174   6.490   4.067   9.996  0.5996 -2.4382 -0.9720
26523SOL    HW286175   6.373   4.061  10.091  1.6567  1.1022  0.7046
26524SOL     OW86176  12.388  12.247   6.445 -0.6556  0.0541 -0.7445
26524SOL    HW186177  12.314  12.207   6.399 -0.6467 -0.1486 -0.5853
26524SOL    HW286178  12.425  12.308   6.382  1.0912 -2.2063 -2.0829
26525SOL     OW86179   8.596   9.876  12.619  0.0131 -0.7033 -0.0364
26525SOL    HW186180   8.593   9.960  12.664  0.9728 -0.8978  0.4079
26525SOL    HW286181   8.540   9.819  12.672  0.7642 -0.8053  0.6676
26526SOL     OW86182   1.014  10.893   4.631  0.1625  0.5883  0.1468
26526SOL    HW186183   0.923  10.899   4.661  0.3112  1.3673  0.4689
26526SOL    HW286184   1.030  10.976   4.587  0.0895 -0.3660 -1.7552
26527SOL     OW86185   1.219  10.799   2.250  0.0907 -0.4183 -0.2250
26527SOL    HW186186   1.153  10.742   2.209  0.3660 -0.3989 -0.7130
26527SOL    HW286187   1.168  10.863   2.299 -0.2217 -1.9485  1.5664
26528SOL     OW86188   0.444   7.783   7.565  0.4849  0.0962 -0.3156
26528SOL    HW186189   0.478   7.856   7.616  3.5950 -2.5109  1.7410
26528SOL    HW286190   0.515   7.762   7.504 -1.3193  0.2001 -2.5712
26529SOL     OW86191   7.661   4.538   3.013  0.0782  0.3986 -0.5414
26529SOL    HW186192   7.723   4.579   2.953 -0.6224  0.0712 -1.5130
26529SOL    HW286193   7.576   4.546   2.969 -0.3477 -0.4084  0.1123
26530SOL     OW86194   1.320   5.412   1.497 -0.8022  0.6418  0.1720
26530SOL    HW186195   1.229   5.422   1.469 -0.3723  0.3054 -1.4253
26530SOL    HW286196   1.350   5.333   1.452  0.2890  0.7565  0.6809
26531SOL     OW86197   8.495   2.983   3.547 -0.0308 -0.3590 -0.1358
26531SOL    HW186198   8.466   2.989   3.638 -1.7214  0.1139 -0.6691
26531SOL    HW286199   8.523   3.072   3.525 -4.6250  0.9988 -1.5657
26532SOL     OW86200   3.860   8.646   5.734  0.5149 -0.5385 -1.0185
26532SOL    HW186201   3.896   8.645   5.645  1.9737 -0.9681 -0.4558
26532SOL    HW286202   3.933   8.619   5.790 -0.3933 -0.3522  0.3129
26533SOL     OW86203   5.868  10.862   1.764  0.5078 -0.4456  0.2404
26533SOL    HW186204   5.878  10.847   1.670 -0.1058  1.1772 -0.1007
26533SOL    HW286205   5.935  10.927   1.785 -0.7978  0.8759  0.4597
26534SOL     OW86206  11.589   1.681   7.484 -0.2915 -0.0270  0.0293
26534SOL    HW186207  11.572   1.773   7.462 -0.2658  0.1766  0.8224
26534SOL    HW286208  11.677   1.682   7.522 -0.2867 -0.3840  0.0281
26535SOL     OW86209   8.486   4.708  11.869 -0.2825  0.6735 -0.1801
26535SOL    HW186210   8.549   4.658  11.817 -0.3260  0.6858 -0.2449
26535SOL    HW286211   8.417   4.645  11.890 -0.9865  1.0074 -1.3482
26536SOL     OW86212   9.389   0.279   1.459 -0.0430  0.1152  0.2950
26536SOL    HW186213   9.363   0.196   1.499 -0.3615 -0.3150 -0.7436
26536SOL    HW286214   9.360   0.346   1.521 -0.3310 -0.5272  0.8680
26537SOL     OW86215   1.846   0.934   8.850 -0.3283 -1.0880 -0.1530
26537SOL    HW186216   1.771   0.887   8.886 -2.1955  0.5432 -1.6551
26537SOL    HW286217   1.819   1.026   8.851  1.0566 -0.5913 -2.0540
26538SOL     OW86218  11.519   6.480   4.087  0.3837  0.4906  0.3122
26538SOL    HW186219  11.495   6.567   4.056  0.3177  0.6627  0.8448
26538SOL    HW286220  11.614   6.481   4.090  0.3950  0.4365  0.0197
26539SOL     OW86221   8.018   1.029   2.571  0.1529 -0.1282  0.5707
26539SOL    HW186222   8.045   0.961   2.632  1.6036 -0.2237 -0.1299
26539SOL    HW286223   8.064   1.108   2.602 -0.6212  0.2814  0.7099
26540SOL     OW86224   5.833   8.382   5.415  0.4038  0.5907 -0.2259
26540SOL    HW186225   5.889   8.341   5.481 -0.1476 -2.1491 -1.3607
26540SOL    HW286226   5.745   8.354   5.436  0.2684 -0.8091 -2.3673
26541SOL     OW86227   5.111   2.007   9.408 -0.7205 -0.3529 -0.1682
26541SOL    HW186228   5.022   2.006   9.442 -0.5997  1.8385  0.3478
26541SOL    HW286229   5.101   2.031   9.316 -0.5859  3.3664  0.6410
26542SOL     OW86230   8.762  10.352  11.473  0.2922 -0.1798 -0.0718
26542SOL    HW186231   8.757  10.276  11.531 -1.0308 -0.3626 -0.4130
26542SOL    HW286232   8.687  10.406  11.496  0.6450  0.5324 -0.5350
26543SOL     OW86233  11.127  10.675   8.534  0.2354 -0.6017 -0.2481
26543SOL    HW186234  11.149  10.589   8.570  1.8369 -0.5044 -0.9143
26543SOL    HW286235  11.034  10.668   8.511  0.3637 -2.1914 -0.3991
26544SOL     OW86236   2.624   1.895  12.306 -0.0267 -0.0685  0.2308
26544SOL    HW186237   2.700   1.930  12.260 -0.0259 -0.1523  0.1675
26544SOL    HW286238   2.554   1.895  12.241  0.1369 -0.7707  0.0481
26545SOL     OW86239   4.234   3.462   4.771 -0.3861  0.6805 -0.5449
26545SOL    HW186240   4.195   3.511   4.843  0.2602 -2.1211  1.8613
26545SOL    HW286241   4.321   3.500   4.759 -0.5733  1.2833 -0.0009
26546SOL     OW86242   8.612   4.991   8.388 -0.4687 -0.2110  0.2869
26546SOL    HW186243   8.617   5.027   8.299  0.5886  0.3382  0.5466
26546SOL    HW286244   8.559   4.912   8.379 -1.1437  0.3318 -0.6694
26547SOL     OW86245   9.715   6.348   4.859 -0.3025  0.1171  0.1387
26547SOL    HW186246   9.781   6.337   4.791 -0.4889  1.4553 -0.2734
26547SOL    HW286247   9.733   6.277   4.921  1.9981  0.8805  0.4421
26548SOL     OW86248  10.172   6.091   7.447 -0.3677 -0.5256  0.3473
26548SOL    HW186249  10.235   6.089   7.375 -0.8597 -1.3538 -0.0766
26548SOL    HW286250  10.119   6.169   7.430 -0.5727 -0.7928 -0.2845
26549SOL     OW86251   2.495   0.912   3.357 -0.2889 -0.4956  0.1284
26549SOL    HW186252   2.500   0.857   3.279 -3.6023 -0.9838  0.1198
26549SOL    HW286253   2.457   0.994   3.327 -0.1398 -0.1104  0.9656
26550SOL     OW86254   8.932   7.806   3.736  0.4589 -0.3288 -0.1975
26550SOL    HW186255   8.990   7.830   3.808 -1.2936  0.0436  1.1384
26550SOL    HW286256   8.910   7.889   3.694  0.2625 -0.3915 -0.2174
26551SOL     OW86257   8.859   5.583   1.840  0.3447 -0.0332 -0.2241
26551SOL    HW186258   8.930   5.536   1.885 -0.2116 -0.4196  0.2522
26551SOL    HW286259   8.792   5.517   1.825  0.4213  0.1404 -1.4354
26552SOL     OW86260   1.826  11.906   5.087  0.3294  0.5314 -0.2116
26552SOL    HW186261   1.747  11.930   5.134 -0.1322  0.1008 -0.7560
26552SOL    HW286262   1.823  11.957   5.006  2.9004  4.1026  1.6423
26553SOL     OW86263   6.927   6.888   3.953  0.2009  0.0911 -0.5862
26553SOL    HW186264   6.896   6.948   3.885 -1.6807 -1.5269 -1.2713
26553SOL    HW286265   6.907   6.933   4.036  0.0833  0.9733 -1.0812
26554SOL     OW86266   7.464   7.099   1.500  0.0315 -0.0190 -0.3316
26554SOL    HW186267   7.407   7.060   1.434  0.7407 -1.1336 -0.3038
26554SOL    HW286268   7.424   7.075   1.583 -1.4768  2.3023 -0.2941
26555SOL     OW86269   3.281  10.979  11.539 -0.2429 -0.0024  0.3946
26555SOL    HW186270   3.186  10.974  11.539 -0.2992  0.8100 -0.2519
26555SOL    HW286271   3.301  11.072  11.526  0.6257 -0.2800 -0.4586
26556SOL     OW86272   5.378   7.109   6.409 -0.1880  0.0507  0.0778
26556SOL    HW186273   5.467   7.093   6.377 -0.3107 -0.2812 -0.1004
26556SOL    HW286274   5.321   7.081   6.338 -0.4309  0.5554  0.0692
26557SOL     OW86275   7.336   8.317  11.986 -0.1336  0.0546  0.4171
26557SOL    HW186276   7.428   8.334  12.009 -0.0926  2.2892 -1.1255
26557SOL    HW286277   7.339   8.283  11.897 -0.8334  0.7900  0.1023
26558SOL     OW86278   7.629   8.391  12.297 -0.0613 -0.5647  0.2297
26558SOL    HW186279   7.635   8.355  12.208 -0.0519  0.4591 -0.2042
26558SOL    HW286280   7.714   8.373  12.336  0.8510  1.1457 -0.8511
26559SOL     OW86281   6.764   4.300   7.681  0.0079 -0.0941  0.3313
26559SOL    HW186282   6.747   4.281   7.773  0.9638  1.3089  0.8419
26559SOL    HW286283   6.739   4.392   7.671  0.6678 -0.0006 -0.5956
26560SOL     OW86284   4.446   5.628   6.023 -0.1973 -0.4386 -0.4611
26560SOL    HW186285   4.499   5.702   5.995 -0.5185 -0.2802 -0.6508
26560SOL    HW286286   4.356   5.653   6.002 -0.2074 -1.3584 -1.6223
26561SOL     OW86287  11.977  10.276  11.428 -0.1040  0.6450 -0.7591
26561SOL    HW186288  12.059  10.297  11.383 -0.5346 -1.2834 -2.6213
26561SOL    HW286289  11.972  10.180  11.423 -0.6952  0.3695  2.6366
26562SOL     OW86290   3.000   5.129   0.068  0.6091  0.9943  0.4921
26562SOL    HW186291   3.030   5.095  -0.016  1.5751 -1.2946  1.6721
26562SOL    HW286292   3.045   5.213   0.078  1.0052  0.9755 -0.9606
26563SOL     OW86293   0.258   7.746   4.196 -1.0115 -0.2653 -0.3055
26563SOL    HW186294   0.286   7.670   4.145 -0.7165 -1.1309  1.0846
26563SOL    HW286295   0.179   7.715   4.242  1.2008 -1.1208  3.2625
26564SOL     OW86296   6.655   8.046  12.171  0.2196 -0.3623 -0.0260
26564SOL    HW186297   6.684   8.035  12.080 -0.5783  0.5769 -0.4055
26564SOL    HW286298   6.647   7.957  12.204 -1.3202 -0.8132 -1.4760
26565SOL     OW86299  10.393   2.421   3.157 -0.0195 -0.1346 -0.4091
26565SOL    HW186300  10.440   2.504   3.161 -1.2139  0.5667 -0.3718
26565SOL    HW286301  10.300   2.446   3.158 -0.4376 -1.3384 -2.4917
26566SOL     OW86302  12.079   0.388  11.867  0.1948 -0.3630 -0.3025
26566SOL    HW186303  12.148   0.448  11.836 -1.2459  1.5635  0.0600
26566SOL    HW286304  12.039   0.433  11.940  0.6788 -2.9492  1.7135
26567SOL     OW86305   9.012   9.898   5.500  0.1249  0.0022 -0.7642
26567SOL    HW186306   9.082   9.891   5.565 -0.1624 -0.0545 -0.4550
26567SOL    HW286307   8.994   9.992   5.493  1.6744  0.2384 -2.4203
26568SOL     OW86308  10.488   4.903   2.160 -0.2001  0.3237 -0.5672
26568SOL    HW186309  10.393   4.893   2.150 -0.5749 -0.1916  2.4381
26568SOL    HW286310  10.498   4.966   2.232  1.7400  0.0512 -0.5425
26569SOL     OW86311   5.591   8.619   4.836 -0.1361 -0.3100 -0.0135
26569SOL    HW186312   5.577   8.536   4.792 -0.1269  0.6357 -1.9358
26569SOL    HW286313   5.617   8.679   4.765 -3.3736  2.1703  0.6529
26570SOL     OW86314   2.629   5.749   0.373 -0.2750 -0.1646 -0.3513
26570SOL    HW186315   2.605   5.672   0.320 -1.3904  0.3887 -0.6892
26570SOL    HW286316   2.597   5.823   0.322  0.1117  0.4813  0.3340
26571SOL     OW86317   5.666   6.954   3.409 -0.4765  0.3874 -0.1809
26571SOL    HW186318   5.679   6.883   3.346 -1.7394 -0.2724  0.2854
26571SOL    HW286319   5.584   6.934   3.453  1.0848 -0.0120  2.8130
26572SOL     OW86320  12.174  10.905  12.555 -0.2858  0.1185  0.6169
26572SOL    HW186321  12.108  10.955  12.507 -0.5691 -1.0692 -0.2786
26572SOL    HW286322  12.251  10.906  12.499 -0.2065 -0.2265  0.7148
26573SOL     OW86323   9.326   1.500  10.633 -0.6295 -0.1334  0.2919
26573SOL    HW186324   9.276   1.421  10.610 -0.9207  0.0643  0.2427
26573SOL    HW286325   9.348   1.539  10.548 -1.1009  0.2205  0.3299
26574SOL     OW86326   5.124   9.674   0.766 -0.5842  0.6792 -0.6034
26574SOL    HW186327   5.147   9.756   0.811  0.0986  0.7902 -1.1512
26574SOL    HW286328   5.113   9.699   0.675 -0.3219  0.1435 -0.7849
26575SOL     OW86329   6.467  11.497   4.794  0.2945  0.5512 -0.1162
26575SOL    HW186330   6.499  11.579   4.755 -1.1928  0.6403 -1.2542
26575SOL    HW286331   6.375  11.515   4.815 -0.0778 -0.8448 -0.4668
26576SOL     OW86332   1.851  11.747   4.427 -0.4901 -0.0132 -0.1249
26576SOL    HW186333   1.877  11.790   4.345 -1.8537  0.6700 -0.2377
26576SOL    HW286334   1.809  11.816   4.478 -3.3201 -1.2624 -0.5695
26577SOL     OW86335   0.069   6.878   4.184  0.2473  0.2602  0.1238
26577SOL    HW186336   0.124   6.800   4.196 -0.8508 -0.3960  1.0695
26577SOL    HW286337   0.131   6.951   4.183  1.5147 -0.7145 -2.6554
26578SOL     OW86338   0.508   6.543   3.453 -0.6410 -0.3672 -0.3781
26578SOL    HW186339   0.482   6.474   3.515 -1.0177  0.0968 -0.0082
26578SOL    HW286340   0.563   6.498   3.389  0.8499 -0.6013  1.0190
26579SOL     OW86341   3.432   2.585   1.928 -0.0827  0.1006  0.4387
26579SOL    HW186342   3.436   2.515   1.863 -0.6918  0.2912  0.1887
26579SOL    HW286343   3.398   2.661   1.880  2.6027  1.2264  0.1454
26580SOL     OW86344  11.372   6.899  12.164 -0.0507  0.0577  0.6954
26580SOL    HW186345  11.318   6.909  12.086  1.4181 -0.1516 -0.3749
26580SOL    HW286346  11.311   6.872  12.232 -1.5155  1.0963 -0.1427
26581SOL     OW86347  12.527   3.504   9.116 -0.2616 -0.4686 -0.0826
26581SOL    HW186348  12.601   3.521   9.057 -0.5420  0.1815 -0.2625
26581SOL    HW286349  12.460   3.567   9.088 -0.4061 -0.1625  0.9272
26582SOL     OW86350   5.349  10.077   7.194  0.7449 -0.1058 -0.4574
26582SOL    HW186351   5.288  10.004   7.199  0.6235  0.0146 -0.1350
26582SOL    HW286352   5.336  10.125   7.276  2.2550 -0.8495  0.2548
26583SOL     OW86353  10.966  10.882   6.055  0.4057 -0.1405 -0.6499
26583SOL    HW186354  10.905  10.933   6.109  0.8773  0.9274 -1.0955
26583SOL    HW286355  10.934  10.792   6.062 -0.4611  0.2067  0.1515
26584SOL     OW86356   9.223  11.268   2.072 -0.0316  0.3065 -0.1475
26584SOL    HW186357   9.271  11.343   2.039 -0.0165  0.1638 -0.4464
26584SOL    HW286358   9.273  11.240   2.149 -0.3430  0.9398  0.2960
26585SOL     OW86359   5.587   7.692   4.446  0.0074 -0.1149 -0.3289
26585SOL    HW186360   5.659   7.754   4.434 -0.0952  0.4953  1.8542
26585SOL    HW286361   5.514   7.744   4.479 -0.5259 -1.1711  0.2243
26586SOL     OW86362   3.233   8.882   3.455 -0.5173 -0.0890 -0.5810
26586SOL    HW186363   3.189   8.951   3.505  0.6119 -0.1220  0.5060
26586SOL    HW286364   3.318   8.873   3.497 -0.5395 -1.9678 -0.8585
26587SOL     OW86365   1.752   2.084   5.414  0.2636 -0.5759  0.2145
26587SOL    HW186366   1.693   2.133   5.472  0.0778 -1.9048  1.1880
26587SOL    HW286367   1.833   2.076   5.465  1.3463  1.2326 -1.1083
26588SOL     OW86368   5.437   7.951  11.080 -0.0881 -0.0057 -0.3745
26588SOL    HW186369   5.347   7.951  11.047 -0.5418  1.2407  0.7712
26588SOL    HW286370   5.484   8.005  11.017 -0.7090  1.4277  0.3416
26589SOL     OW86371   7.993   7.673   1.803  0.2714  0.2702 -0.6724
26589SOL    HW186372   8.008   7.638   1.891  0.9197 -1.7392 -1.5327
26589SOL    HW286373   8.079   7.703   1.774  0.5160 -1.1055 -1.4316
26590SOL     OW86374   6.854   4.622   4.986  0.3479  0.3178 -0.9869
26590SOL    HW186375   6.880   4.639   4.895 -0.7481 -0.8489 -1.5557
26590SOL    HW286376   6.784   4.556   4.979 -0.7605  1.2575  0.6279
26591SOL     OW86377   8.936  11.876   9.484  0.4264  0.6027  0.0468
26591SOL    HW186378   8.937  11.873   9.389  0.2434  2.5492 -0.0425
26591SOL    HW286379   8.849  11.843   9.508  0.7796 -0.7238 -0.3745
26592SOL     OW86380  11.366   8.121   9.559 -0.4345  0.3775  0.0599
26592SOL    HW186381  11.352   8.059   9.630  2.5972  2.0007  2.3453
26592SOL    HW286382  11.290   8.179   9.562 -0.7720 -0.0967  1.4487
26593SOL     OW86383   8.359   9.908   1.381 -0.6666  0.6490 -0.1262
26593SOL    HW186384   8.295   9.925   1.312 -0.4762  1.5514 -0.0946
26593SOL    HW286385   8.310   9.867   1.451 -1.4902  2.4155  0.3924
26594SOL     OW86386   0.512  12.243   9.350 -0.6891  0.0552  0.1698
26594SOL    HW186387   0.441  12.283   9.301 -0.4493 -0.8110 -0.9257
26594SOL    HW286388   0.555  12.316   9.395 -2.7370  0.5054  1.5291
26595SOL     OW86389  12.080   7.004   4.103  0.0173  0.0622  0.2617
26595SOL    HW186390  12.118   6.991   4.016 -2.0872 -0.9531 -0.5647
26595SOL    HW286391  12.088   6.919   4.146 -1.5327 -0.2677 -0.0494
26596SOL     OW86392   7.289   1.037   3.727 -0.0660  0.0020 -0.5333
26596SOL    HW186393   7.286   0.941   3.726 -0.6138 -0.0020  0.2972
26596SOL    HW286394   7.212   1.063   3.779  0.1149  0.8891 -0.6911
26597SOL     OW86395  11.959   3.638   9.617 -0.6946  0.3667  0.5295
26597SOL    HW186396  11.863   3.639   9.625 -0.9001  1.3994 -1.4610
26597SOL    HW286397  11.978   3.701   9.547  1.1032 -2.9787 -2.2901
26598SOL     OW86398  12.449   5.066  11.401 -0.1759  0.0282  0.0711
26598SOL    HW186399  12.388   5.126  11.358 -0.6508  0.2843  1.0616
26598SOL    HW286400  12.452   4.990  11.344 -0.1399  0.6889 -0.8294
26599SOL     OW86401   3.608  10.626   7.597  0.0497 -0.1087  0.8774
26599SOL    HW186402   3.698  10.616   7.564 -1.0733 -1.3982 -2.1594
26599SOL    HW286403   3.598  10.554   7.659  0.2379 -1.9922 -1.1381
26600SOL     OW86404   1.946  11.600   6.079  0.2811 -0.2092 -0.1751
26600SOL    HW186405   1.947  11.511   6.042 -0.3709 -1.5000  2.5991
26600SOL    HW286406   2.034  11.633   6.064  0.8751 -1.7762 -0.3935
26601SOL     OW86407   7.846   0.462   5.374 -0.3036  0.6699  0.1066
26601SOL    HW186408   7.830   0.374   5.341 -1.5978  1.1119 -0.5379
26601SOL    HW286409   7.940   0.466   5.390 -0.5105 -1.5720  2.3682
26602SOL     OW86410   8.549   8.128  12.203 -0.3253 -0.0581  0.9157
26602SOL    HW186411   8.492   8.152  12.275 -0.8613  1.1387  0.1312
26602SOL    HW286412   8.489   8.100  12.133  0.1834 -1.2758  0.9374
26603SOL     OW86413   5.540   2.204   7.213  0.1237 -0.1784 -0.1381
26603SOL    HW186414   5.540   2.113   7.244 -0.2628 -0.1926 -0.1831
26603SOL    HW286415   5.606   2.247   7.267 -0.2075 -0.3153  0.3857
26604SOL     OW86416   9.332  11.021   7.442 -0.0113 -0.0016  0.4996
26604SOL    HW186417   9.420  11.014   7.406  0.0101 -1.3308  0.7637
26604SOL    HW286418   9.276  11.037   7.365  0.2817 -0.7090  0.1302
26605SOL     OW86419  11.010   1.527   2.511  0.3852 -0.2344  0.2461
26605SOL    HW186420  11.042   1.566   2.592 -1.7613  1.2838  0.4485
26605SOL    HW286421  10.943   1.464   2.540 -1.4542  1.3696 -0.3288
26606SOL     OW86422   4.374   5.270  11.054  0.3694  0.5095  0.0594
26606SOL    HW186423   4.400   5.271  11.147 -0.3487  0.8167  0.2632
26606SOL    HW286424   4.360   5.178  11.034  3.3153  0.0942 -0.5650
26607SOL     OW86425   2.802   6.764  12.149  0.4104 -0.2569  0.1684
26607SOL    HW186426   2.783   6.678  12.113  0.0932 -0.5321  0.9756
26607SOL    HW286427   2.812   6.749  12.243 -0.1865  0.6708  0.3921
26608SOL     OW86428   8.657   4.041   9.215  0.0696 -0.4602  0.4911
26608SOL    HW186429   8.643   4.072   9.126  1.0782  0.2667  0.5634
26608SOL    HW286430   8.682   3.949   9.205  0.4896 -0.2959 -0.0094
26609SOL     OW86431   7.579   3.390  12.278  0.0247  0.0064 -0.2175
26609SOL    HW186432   7.554   3.437  12.199  0.9820 -1.2383 -1.2991
26609SOL    HW286433   7.670   3.415  12.293 -1.0213  2.8276  2.4601
26610SOL     OW86434   5.719   4.496   7.288 -0.4153  0.2924 -0.4218
26610SOL    HW186435   5.681   4.449   7.213 -1.5868  2.2483 -1.1258
26610SOL    HW286436   5.701   4.439   7.363 -1.2381 -0.6778 -1.3192
26611SOL     OW86437  10.577  11.000   0.849  0.2492  0.0760 -0.0416
26611SOL    HW186438  10.499  11.040   0.811  1.1696  0.8968 -1.1380
26611SOL    HW286439  10.633  10.979   0.774  1.7324  0.9084  0.7857
26612SOL     OW86440   4.588  10.701   5.305 -0.0594  0.0913  0.3264
26612SOL    HW186441   4.616  10.792   5.315  0.8510 -0.1796  0.3458
26612SOL    HW286442   4.666  10.655   5.271  0.4663 -1.2470  3.0194
26613SOL     OW86443   5.026  11.451   2.901  0.2853 -0.3546 -0.3097
26613SOL    HW186444   4.954  11.512   2.915 -0.9808 -1.8434  0.0019
26613SOL    HW286445   4.999  11.371   2.947  2.1392 -0.9687 -0.2005
26614SOL     OW86446   6.604   0.528  12.448 -0.6022  0.3597 -0.0475
26614SOL    HW186447   6.566   0.590  12.510 -1.1549  0.7295 -0.7526
26614SOL    HW286448   6.657   0.470  12.503 -0.7911  0.9024  0.7269
26615SOL     OW86449   5.443   7.534  12.727  0.4631  0.6893  0.1750
26615SOL    HW186450   5.415   7.625  12.738  0.6719  0.6587  1.0111
26615SOL    HW286451   5.532   7.531  12.763 -0.5453 -0.4326  2.8232
26616SOL     OW86452   7.281  10.820   5.876 -0.2405  0.2451  0.0801
26616SOL    HW186453   7.375  10.831   5.860 -0.1268 -0.8607 -0.0792
26616SOL    HW286454   7.240  10.836   5.791 -0.2640  1.3414  0.2835
26617SOL     OW86455   2.371   3.355   1.350 -0.2367  0.4690  0.1990
26617SOL    HW186456   2.294   3.303   1.373  0.6123 -0.6056  0.7142
26617SOL    HW286457   2.443   3.292   1.353  0.4827  1.1386 -1.6141
26618SOL     OW86458   8.092   9.398  12.284  0.0031 -0.0053 -0.7743
26618SOL    HW186459   8.154   9.326  12.275  0.0384  0.1467 -1.9142
26618SOL    HW286460   8.006   9.355  12.288  0.1461 -0.2100  0.7448
26619SOL     OW86461   6.705   6.490   1.479 -0.2023  0.0783 -0.5326
26619SOL    HW186462   6.680   6.479   1.387 -0.3671 -0.6940 -0.4052
26619SOL    HW286463   6.637   6.443   1.528 -0.5618  1.1701  0.0335
26620SOL     OW86464  11.161   8.545   6.324  0.5209  0.5403  0.1361
26620SOL    HW186465  11.083   8.577   6.278 -0.6763  0.6336  2.1082
26620SOL    HW286466  11.234   8.567   6.266 -1.0353 -1.8937 -3.0638
26621SOL     OW86467  12.161  11.722   1.350 -0.0128  0.0950 -0.2404
26621SOL    HW186468  12.146  11.699   1.258 -3.2506 -1.6556  0.5648
26621SOL    HW286469  12.237  11.670   1.375 -0.8501 -1.7498 -1.2455
26622SOL     OW86470  11.986  11.045   5.682 -0.1826  0.1122  0.0737
26622SOL    HW186471  11.927  11.112   5.646 -0.0909 -0.0514 -0.4006
26622SOL    HW286472  11.938  11.008   5.756 -0.6116  0.1005 -0.2004
26623SOL     OW86473   0.454   3.395  12.446 -0.4295  0.2823 -0.2605
26623SOL    HW186474   0.400   3.465  12.411  1.8313  1.5298 -1.4965
26623SOL    HW286475   0.474   3.340  12.370 -0.0126 -0.1807  0.1784
26624SOL     OW86476  12.752   7.229   8.948  0.0505 -0.0845 -0.0473
26624SOL    HW186477  12.811   7.300   8.925 -0.5742  1.0691  1.7624
26624SOL    HW286478  12.810   7.153   8.960  0.9268  0.5565 -0.1308
26625SOL     OW86479  12.422  12.492  11.883 -0.5175 -0.4131 -0.4628
26625SOL    HW186480  12.508  12.451  11.889 -0.7462 -1.0308 -1.2403
26625SOL    HW286481  12.440  12.586  11.891  0.1360 -0.5845  0.1962
26626SOL     OW86482   8.180   6.568   2.714 -0.3042  0.7919  0.0813
26626SOL    HW186483   8.244   6.568   2.786  0.0561 -0.1673 -0.2268
26626SOL    HW286484   8.192   6.483   2.671 -1.4607  0.7968 -0.2788
26627SOL     OW86485   1.606   3.890  10.308  0.1664 -0.0763  0.2021
26627SOL    HW186486   1.665   3.927  10.374 -0.1571  1.8843 -0.5535
26627SOL    HW286487   1.653   3.900  10.225 -0.4785 -0.1604 -0.1798
26628SOL     OW86488   4.970   8.159   5.961  0.8159 -0.2968 -0.2403
26628SOL    HW186489   4.911   8.204   6.022  1.5265  0.5879 -0.1920
26628SOL    HW286490   4.939   8.068   5.961 -0.3336  0.0806  0.0363
26629SOL     OW86491   5.891   9.321  11.241  0.3413  0.0567  0.4912
26629SOL    HW186492   5.878   9.231  11.212 -2.0585  0.1738  1.0626
26629SOL    HW286493   5.883   9.374  11.161 -0.4330 -0.0689  0.4846
26630SOL     OW86494   0.939   7.310   6.525 -0.6556 -0.4174 -0.1138
26630SOL    HW186495   0.974   7.223   6.543 -1.0646 -0.1730  2.1104
26630SOL    HW286496   1.003   7.351   6.467 -0.0683 -1.9097 -0.5472
26631SOL     OW86497   4.916  10.900   1.852  0.1580 -0.0423  0.3072
26631SOL    HW186498   4.964  10.911   1.934 -0.0823  1.5946  0.2490
26631SOL    HW286499   4.840  10.847   1.876  0.6431 -0.4787  0.9191
26632SOL     OW86500   5.141  11.938  11.815 -0.5904 -0.4481 -0.0339
26632SOL    HW186501   5.105  11.923  11.727 -0.0186 -2.4640  0.0314
26632SOL    HW286502   5.221  11.988  11.800 -1.6006  1.1175 -0.4501
26633SOL     OW86503   0.125   7.113   5.806 -0.0948 -0.3516 -0.0248
26633SOL    HW186504   0.038   7.135   5.772 -0.7494  1.4281  2.5067
26633SOL    HW286505   0.179   7.189   5.786  0.6189 -1.0003 -0.6275
26634SOL     OW86506  12.718   3.834   1.721  0.2095  0.5995  0.2655
26634SOL    HW186507  12.751   3.749   1.751 -0.6512  0.2258  0.1651
26634SOL    HW286508  12.662   3.813   1.646 -0.1484  1.2410  0.3486
26635SOL     OW86509  11.197  11.072  12.291 -0.0663 -0.1695 -0.5232
26635SOL    HW186510  11.226  11.153  12.249 -1.0454  0.1184 -0.6526
26635SOL    HW286511  11.112  11.054  12.252 -1.2731  0.3988  1.6809
26636SOL     OW86512   5.183  11.229  10.528  0.2196  0.1013 -0.1796
26636SOL    HW186513   5.151  11.258  10.442 -0.8762  0.9389  0.4846
26636SOL    HW286514   5.137  11.285  10.590  0.7020 -0.7648  0.9807
26637SOL     OW86515   1.343   6.831   8.671  0.5749  0.2431 -0.5354
26637SOL    HW186516   1.338   6.801   8.581 -0.9579  0.9482 -0.7159
26637SOL    HW286517   1.293   6.913   8.672 -0.0643 -0.1325  1.0960
26638SOL     OW86518   4.745   3.096  11.250 -0.1974  0.5485  0.1054
26638SOL    HW186519   4.787   3.180  11.269  1.4848 -0.1009 -0.5874
26638SOL    HW286520   4.814   3.032  11.261 -1.0291 -0.5866 -1.0610
26639SOL     OW86521   0.801   7.713   3.917 -0.0382  0.9581 -0.3491
26639SOL    HW186522   0.824   7.659   3.993 -0.3623  0.0945 -0.8553
26639SOL    HW286523   0.780   7.799   3.955 -1.0868  0.3052  0.6555
26640SOL     OW86524   4.024   7.969   8.170  0.0265  0.8001  0.0541
26640SOL    HW186525   3.957   7.940   8.232  2.2206 -0.4397  2.0372
26640SOL    HW286526   4.072   7.889   8.149 -0.4237  1.2396 -3.1170
26641SOL     OW86527   6.844   5.744   5.348  0.2679  0.7140  0.4840
26641SOL    HW186528   6.898   5.820   5.372  0.5887  0.2717  1.1761
26641SOL    HW286529   6.905   5.670   5.349 -0.3428  0.2025  1.2672
26642SOL     OW86530   8.343   3.390   5.213  0.0693 -0.0834  0.9098
26642SOL    HW186531   8.342   3.307   5.261  1.4142 -0.6115  0.0783
26642SOL    HW286532   8.288   3.375   5.137  1.2627 -0.6533  0.1222
26643SOL     OW86533  10.270   0.512   3.056  0.0516  0.1609  0.5696
26643SOL    HW186534  10.313   0.594   3.082  0.8683 -0.4080  1.0641
26643SOL    HW286535  10.276   0.512   2.960  0.6407  0.3719  0.6030
26644SOL     OW86536   5.826   0.425  10.348  0.5168  0.1120 -0.4519
26644SOL    HW186537   5.780   0.482  10.409 -1.5544 -1.7694 -0.1129
26644SOL    HW286538   5.799   0.457  10.261 -0.4686 -0.1888 -0.2704
26645SOL     OW86539   2.835   6.260   8.464  0.1025  0.3122  0.2355
26645SOL    HW186540   2.831   6.187   8.525 -2.8276 -1.1417 -1.4830
26645SOL    HW286541   2.749   6.302   8.471  1.1054  2.5423 -0.0842
26646SOL     OW86542   7.779   8.527   5.061  0.2162  0.4546 -0.6453
26646SOL    HW186543   7.755   8.439   5.034 -0.0612  0.7291 -1.3270
26646SOL    HW286544   7.696   8.575   5.065  0.0630  0.1055  2.0535
26647SOL     OW86545   3.583   9.398   4.569 -0.2169 -0.3182  0.2757
26647SOL    HW186546   3.532   9.418   4.490  0.6971 -1.3793 -0.6160
26647SOL    HW286547   3.650   9.337   4.539  0.4516 -0.3628  1.7940
26648SOL     OW86548   4.434   7.431   4.012  0.5131 -0.1958  0.1598
26648SOL    HW186549   4.449   7.507   4.068 -1.5069  1.2721 -1.1698
26648SOL    HW286550   4.360   7.386   4.053  0.0873 -0.0249 -0.4109
26649SOL     OW86551   0.154   4.192   9.072  0.1109  0.5263  0.1049
26649SOL    HW186552   0.103   4.135   9.129  0.1831  1.0827  0.7464
26649SOL    HW286553   0.167   4.272   9.124  0.8005  0.7645 -0.4144
26650SOL     OW86554   2.104  12.583   9.661  0.2404  0.1980  0.4020
26650SOL    HW186555   2.135  12.579   9.571 -0.5132  1.1525  0.0781
26650SOL    HW286556   2.159  12.650   9.702 -2.0999  2.9027 -0.5388
26651SOL     OW86557   9.897   6.771   8.288  0.2827  0.1078 -0.0979
26651SOL    HW186558   9.888   6.770   8.192  1.8438 -3.6435 -0.4063
26651SOL    HW286559   9.807   6.778   8.320 -0.2335  1.9538 -1.7669
26652SOL     OW86560  11.689   0.494   6.472  0.9144  0.0907 -0.4125
26652SOL    HW186561  11.666   0.566   6.413 -0.7962 -0.7658 -0.8593
26652SOL    HW286562  11.755   0.444   6.424 -0.3018 -0.4804 -1.5407
26653SOL     OW86563   5.050   8.303   0.870  0.1231 -0.4424  0.1198
26653SOL    HW186564   5.077   8.225   0.919  0.1454  0.0341  0.8833
26653SOL    HW286565   5.006   8.358   0.934  0.1365  0.1945 -0.4017
26654SOL     OW86566   9.748   5.580  12.330  0.1239 -0.1386 -0.2887
26654SOL    HW186567   9.805   5.632  12.386  0.8791 -0.0093 -1.1660
26654SOL    HW286568   9.734   5.499  12.380  1.9473 -0.6232 -0.5061
26655SOL     OW86569  11.303   6.877  11.702 -0.3594  0.0921 -0.2633
26655SOL    HW186570  11.224   6.893  11.754 -0.9018  0.3982 -1.1699
26655SOL    HW286571  11.296   6.786  11.674 -0.2694  0.0479 -0.1425
26656SOL     OW86572   3.168   2.950   7.109  0.3981  0.1131  0.5663
26656SOL    HW186573   3.103   2.897   7.156  0.9126 -0.8307  0.2279
26656SOL    HW286574   3.199   2.893   7.039 -0.2649  1.4540 -0.8623
26657SOL     OW86575   1.216   9.280   9.162  0.2959 -0.2487  0.3651
26657SOL    HW186576   1.264   9.255   9.083  1.5237  0.5701  0.8205
26657SOL    HW286577   1.284   9.294   9.228 -0.6002  0.6199  1.1337
26658SOL     OW86578   4.176   4.549   4.526  0.8144 -0.8236  0.2794
26658SOL    HW186579   4.190   4.538   4.620 -1.5671  1.8305  1.0878
26658SOL    HW286580   4.198   4.641   4.510 -0.1677 -0.8523 -1.4852
26659SOL     OW86581   3.612   3.158   3.234  0.5866 -0.4572  0.6496
26659SOL    HW186582   3.555   3.198   3.168  0.2598  1.2879  1.9123
26659SOL    HW286583   3.566   3.079   3.261  0.6270 -1.0865 -1.0157
26660SOL     OW86584   6.772   6.189   9.108  0.1503  0.6550  0.2796
26660SOL    HW186585   6.742   6.146   9.188  0.8732 -0.2744  0.0700
26660SOL    HW286586   6.694   6.233   9.073 -0.5644 -0.3231  0.6119
26661SOL     OW86587   1.472   5.763   6.171 -0.4685  0.5064 -0.1014
26661SOL    HW186588   1.471   5.673   6.138  0.1272  1.3039 -2.4787
26661SOL    HW286589   1.542   5.763   6.236 -0.7465 -0.8349  0.2317
26662SOL     OW86590   4.416   1.264   3.565 -0.1299 -0.4195  0.2375
26662SOL    HW186591   4.448   1.343   3.609 -0.7929  1.1808 -1.9574
26662SOL    HW286592   4.338   1.293   3.517 -0.7693 -2.5824 -0.1335
26663SOL     OW86593   3.516   4.403   5.870  0.5806  0.0320  0.6958
26663SOL    HW186594   3.607   4.383   5.847  0.5627 -0.9013  1.3738
26663SOL    HW286595   3.498   4.348   5.947 -0.1439  1.1880  1.3872
26664SOL     OW86596   1.515   9.078   0.679 -0.0959 -0.4127 -0.0552
26664SOL    HW186597   1.599   9.117   0.704 -1.3218  2.8218 -0.6034
26664SOL    HW286598   1.521   9.066   0.585  0.6285 -2.6810  0.2160
26665SOL     OW86599   2.917   1.660   3.836  0.0334 -0.3741 -0.2580
26665SOL    HW186600   3.012   1.658   3.840  0.0379 -1.5815 -0.4978
26665SOL    HW286601   2.889   1.601   3.906 -0.5397 -0.0294 -0.1933
26666SOL     OW86602   9.442  10.398   1.549  0.3844 -0.3302 -0.1458
26666SOL    HW186603   9.429  10.423   1.641  2.0938  0.4274 -0.0642
26666SOL    HW286604   9.371  10.336   1.531 -0.3577 -0.0269  1.4942
26667SOL     OW86605   0.705   4.737   7.774  0.1536  0.5280  0.1055
26667SOL    HW186606   0.674   4.823   7.801  1.5035  0.9403  0.4559
26667SOL    HW286607   0.771   4.714   7.840  0.7486 -0.1763 -0.7117
26668SOL     OW86608   4.853   7.749   7.384  0.5903  0.3347  0.6222
26668SOL    HW186609   4.903   7.824   7.416 -0.3716  1.7217 -0.9429
26668SOL    HW286610   4.879   7.740   7.293 -1.6865  0.8980 -0.1498
26669SOL     OW86611   8.288   8.469   1.124 -0.0160 -0.2437  0.2649
26669SOL    HW186612   8.346   8.420   1.182  0.0171  0.8513  1.2060
26669SOL    HW286613   8.257   8.542   1.178 -1.4345 -0.2073 -0.5473
26670SOL     OW86614   6.108   1.122   1.935  0.2937  0.1588  0.5340
26670SOL    HW186615   6.052   1.113   1.859 -0.4374 -1.2250  1.2078
26670SOL    HW286616   6.060   1.182   1.993  0.0061 -0.1911  0.6597
26671SOL     OW86617   7.397  11.751   8.612 -0.4038 -0.4438 -0.0790
26671SOL    HW186618   7.453  11.784   8.683  0.3869  0.3097 -1.0146
26671SOL    HW286619   7.392  11.657   8.626  0.8655 -0.4868  0.2142
26672SOL     OW86620   2.374   3.892   1.573 -0.5802 -0.3978  0.0578
26672SOL    HW186621   2.291   3.860   1.609 -1.1896  1.8310  0.7851
26672SOL    HW286622   2.441   3.856   1.631 -0.9884 -2.2856 -0.5775
26673SOL     OW86623   2.055   8.819   7.840  0.1514 -0.3180 -0.2276
26673SOL    HW186624   2.015   8.752   7.895 -0.1927 -0.7165 -0.9512
26673SOL    HW286625   2.047   8.786   7.751  0.2661  0.5391 -0.5712
26674SOL     OW86626   3.222   7.253   8.221 -0.3002 -0.1524  0.0118
26674SOL    HW186627   3.283   7.323   8.202 -1.3982  0.7498 -0.2820
26674SOL    HW286628   3.223   7.198   8.142 -0.7805  0.5483 -0.4916
26675SOL     OW86629   0.685   2.221  12.052  0.3011 -0.2263 -0.2040
26675SOL    HW186630   0.626   2.241  12.125  1.5199 -1.0004  1.0537
26675SOL    HW286631   0.723   2.306  12.028 -0.9137  0.1991 -0.6907
26676SOL     OW86632   6.290   7.026   4.819  0.4635 -0.3777 -0.6407
26676SOL    HW186633   6.347   6.951   4.801  1.5393  0.8073 -2.5602
26676SOL    HW286634   6.349   7.101   4.817 -0.4989  0.5227  1.7576
26677SOL     OW86635   9.097   0.952  11.322  0.6870 -0.4535  0.0543
26677SOL    HW186636   9.178   0.908  11.296  0.9421 -1.3505  2.1935
26677SOL    HW286637   9.068   0.905  11.400 -0.9582  0.9788  0.3584
26678SOL     OW86638   2.089   2.511   0.560  0.3880  0.0839  0.1803
26678SOL    HW186639   2.085   2.420   0.590  0.8282  0.2660  0.8303
26678SOL    HW286640   2.146   2.554   0.624  2.4160  0.2394 -1.6063
26679SOL     OW86641  10.556  10.143   0.025  0.2920 -0.1064 -0.0708
26679SOL    HW186642  10.531  10.085   0.097 -0.6075  0.8705  0.4263
26679SOL    HW286643  10.644  10.115   0.000 -0.2637 -1.9485 -0.1148
26680SOL     OW86644  12.192  12.433   4.738  0.2372  0.0043  0.3120
26680SOL    HW186645  12.146  12.516   4.726 -0.8778 -0.9019 -2.5311
26680SOL    HW286646  12.284  12.453   4.721  0.3085  0.9917  1.6728
26681SOL     OW86647   9.613   4.990   8.193 -0.3323  0.3855  0.0360
26681SOL    HW186648   9.565   5.055   8.244 -0.5280  2.4987 -2.6101
26681SOL    HW286649   9.705   5.017   8.200  0.1427 -1.4737  2.0830
26682SOL     OW86650   3.905   0.624   4.934  0.6001 -0.3409 -0.6351
26682SOL    HW186651   3.893   0.646   4.842 -0.4912 -0.1672 -0.4646
26682SOL    HW286652   3.821   0.587   4.961  1.5270 -2.2448 -0.2096
26683SOL     OW86653   9.230   5.899  10.410  0.1583 -0.6085  0.3579
26683SOL    HW186654   9.165   5.920  10.477 -0.4238 -2.1126  0.3261
26683SOL    HW286655   9.199   5.815  10.373  1.3318 -0.6171 -0.6760
26684SOL     OW86656   4.825   5.767  12.535  0.6568 -0.2340 -0.0938
26684SOL    HW186657   4.785   5.819  12.466  0.1537 -0.6222 -0.1082
26684SOL    HW286658   4.895   5.719  12.491  1.3925  0.7232  0.0062
26685SOL     OW86659   0.333   3.212   4.644 -0.7735 -0.8146  0.6574
26685SOL    HW186660   0.340   3.307   4.628 -1.1533 -0.2830  3.2237
26685SOL    HW286661   0.242   3.191   4.623 -1.2692 -0.1408  1.9951
26686SOL     OW86662   5.977   0.553   9.973  0.1848 -0.2585  0.8877
26686SOL    HW186663   5.945   0.624   9.918  2.2969  2.1104  2.4931
26686SOL    HW286664   5.924   0.477   9.948 -1.6233  1.6393 -1.4974
26687SOL     OW86665  10.650   3.706   5.117 -0.0694 -0.1218  0.1406
26687SOL    HW186666  10.618   3.634   5.172  1.4838  1.0687  2.8132
26687SOL    HW286667  10.714   3.665   5.059  1.9828 -0.8155  2.6799
26688SOL     OW86668   5.113   0.643  12.486 -0.4611  0.5029 -0.0461
26688SOL    HW186669   5.033   0.602  12.516 -1.3718  0.8947 -1.7885
26688SOL    HW286670   5.142   0.588  12.413  1.2493 -0.0058  0.9472
26689SOL     OW86671   6.450   3.142   6.981  0.0064  0.3240 -0.3080
26689SOL    HW186672   6.493   3.073   6.930 -0.9326 -0.5239  0.0058
26689SOL    HW286673   6.451   3.109   7.071  1.4114  1.6862  0.2077
26690SOL     OW86674   7.366   9.838  11.094 -0.0540  0.2012 -0.0609
26690SOL    HW186675   7.399   9.786  11.168  0.0382 -0.8836 -0.8314
26690SOL    HW286676   7.271   9.828  11.098 -0.0745  0.4834  0.1514
26691SOL     OW86677   3.838  11.381  11.357  0.1377 -0.0555  0.1409
26691SOL    HW186678   3.759  11.328  11.360  0.6336 -0.7668  1.0684
26691SOL    HW286679   3.808  11.470  11.375 -0.7018  0.0168 -1.4453
26692SOL     OW86680  12.151   0.169   7.060 -0.5098 -0.4439  0.1605
26692SOL    HW186681  12.165   0.160   6.965 -3.7599  0.3030 -0.5234
26692SOL    HW286682  12.124   0.081   7.088 -0.2208 -0.5020  0.2584
26693SOL     OW86683  11.065  12.574   0.958  0.1324  0.2919 -0.0106
26693SOL    HW186684  11.132  12.616   0.905  0.0143 -0.6386 -0.9174
26693SOL    HW286685  11.109  12.551   1.040  0.9451 -0.3789 -0.6240
26694SOL     OW86686   0.178   4.245   0.128  0.1161 -0.4572 -0.4067
26694SOL    HW186687   0.201   4.272   0.039 -1.1186 -0.1406 -0.6449
26694SOL    HW286688   0.099   4.192   0.117 -0.6992  0.5194  0.6018
26695SOL     OW86689   2.459   9.440   5.381 -0.2127  0.0200 -0.2759
26695SOL    HW186690   2.367   9.417   5.366 -0.2127 -0.5300  0.4679
26695SOL    HW286691   2.505   9.411   5.302 -0.3193 -2.0402  0.3402
26696SOL     OW86692   5.201   8.669  12.395 -0.1165  0.3021  0.4878
26696SOL    HW186693   5.164   8.686  12.482 -0.4544 -0.4220  0.4915
26696SOL    HW286694   5.279   8.725  12.391 -2.3937  3.6588 -0.4375
26697SOL     OW86695   2.866  10.732   1.664 -0.5845  0.2196 -0.2575
26697SOL    HW186696   2.928  10.673   1.622 -0.1895 -0.8451  1.7307
26697SOL    HW286697   2.782  10.711   1.623 -0.3853 -1.4525  0.1332
26698SOL     OW86698   0.103   9.820   4.673 -0.1170  0.7092  0.2285
26698SOL    HW186699   0.055   9.834   4.591  0.6620 -0.6960 -0.5034
26698SOL    HW286700   0.051   9.865   4.740 -1.7395  0.3288 -0.7359
26699SOL     OW86701   7.248   9.257   4.372  0.3802  0.1026  0.1425
26699SOL    HW186702   7.291   9.272   4.456  0.4421 -0.6308  0.2457
26699SOL    HW286703   7.273   9.333   4.319  1.0503  0.1465  0.5063
26700SOL     OW86704   5.548   3.827   1.748  0.6514 -0.3550 -0.4913
26700SOL    HW186705   5.517   3.838   1.658  0.6809 -0.5317 -0.5226
26700SOL    HW286706   5.531   3.912   1.790  0.4377 -0.3427 -0.6022
26701SOL     OW86707   7.382   2.161   5.905  0.0975  0.5098  0.2589
26701SOL    HW186708   7.404   2.070   5.925  2.1640  0.2779 -2.5255
26701SOL    HW286709   7.372   2.163   5.810 -2.7054  2.7021  0.4634
26702SOL     OW86710   6.587  10.080   3.417  0.4102  0.6409 -0.8571
26702SOL    HW186711   6.600  10.149   3.482 -0.4172 -1.0048  1.1535
26702SOL    HW286712   6.649  10.011   3.441  0.9662  0.4767 -2.6013
26703SOL     OW86713   0.148  12.503  11.931  0.3309  0.2249  0.0595
26703SOL    HW186714   0.188  12.586  11.956 -0.0088 -0.1573  2.0341
26703SOL    HW286715   0.076  12.527  11.873  1.7706  1.0947 -1.4738
26704SOL     OW86716   8.683  11.382   0.735  0.0245  0.1426  0.2347
26704SOL    HW186717   8.753  11.404   0.673 -0.8317 -0.3527 -0.9400
26704SOL    HW286718   8.681  11.286   0.736  0.8768  0.0846  2.0584
26705SOL     OW86719   0.599  12.076   9.116  0.0841  0.2370 -0.3896
26705SOL    HW186720   0.612  12.122   9.199  1.0579  0.0282 -0.4146
26705SOL    HW286721   0.571  11.988   9.142  4.1856 -1.1955 -0.0149
26706SOL     OW86722   9.646  12.445  12.663 -0.0527 -0.1172  0.0815
26706SOL    HW186723   9.552  12.424  12.661 -0.1957  0.4101  0.7549
26706SOL    HW286724   9.679  12.398  12.740  0.3070 -0.5387 -0.3201
26707SOL     OW86725  11.546   8.740   1.559  0.4524 -0.3054  0.1798
26707SOL    HW186726  11.610   8.777   1.498 -0.3963 -0.4328 -0.8082
26707SOL    HW286727  11.599   8.703   1.630  1.3983  1.3513  0.3982
26708SOL     OW86728   2.329   7.880   2.452  0.3031  0.3136  0.0739
26708SOL    HW186729   2.279   7.839   2.522  0.6733  0.2451  0.3029
26708SOL    HW286730   2.327   7.974   2.474 -0.6418  0.4391 -0.5144
26709SOL     OW86731   3.006   6.339  10.463 -0.1343  0.0480  0.3701
26709SOL    HW186732   2.987   6.309  10.374  1.6461 -0.8536  0.2458
26709SOL    HW286733   3.022   6.433  10.453 -2.0108  0.3708  0.1225
26710SOL     OW86734  10.977  10.942  11.834  0.3953 -0.1908 -0.2004
26710SOL    HW186735  11.052  10.999  11.848  0.2991 -0.1261  0.0561
26710SOL    HW286736  10.980  10.919  11.741  1.8810 -1.7835  0.1845
26711SOL     OW86737   6.841   6.496  11.465  0.0541  0.5491 -0.1321
26711SOL    HW186738   6.802   6.579  11.439 -0.0524  0.2396 -0.9708
26711SOL    HW286739   6.770   6.451  11.512  1.0450  2.2705  3.3902
26712SOL     OW86740  11.226   4.688   7.558  0.1380 -0.4620  0.1084
26712SOL    HW186741  11.181   4.750   7.501  1.5056  0.2672 -0.2180
26712SOL    HW286742  11.309   4.671   7.514  0.0382 -2.1003  0.4854
26713SOL     OW86743  12.764   2.046  11.203  0.0354 -1.1509 -0.1380
26713SOL    HW186744  12.741   1.995  11.125 -0.7915 -0.0831 -0.6131
26713SOL    HW286745  12.766   2.137  11.173  1.3252 -0.8620  0.7325
26714SOL     OW86746  11.865  11.626   0.940  0.4773  0.0114 -0.2774
26714SOL    HW186747  11.797  11.560   0.940 -0.1348  0.6107  0.8443
26714SOL    HW286748  11.914  11.610   0.860 -0.6594 -0.7559 -0.8448
26715SOL     OW86749  10.960   5.071   9.490 -0.6687 -0.1671  0.5075
26715SOL    HW186750  10.972   5.165   9.502 -1.3006  0.0771 -0.5976
26715SOL    HW286751  10.892   5.064   9.423 -0.9029 -1.4167  0.8462
26716SOL     OW86752   3.106   0.334  12.062  0.2633  0.1657 -0.6330
26716SOL    HW186753   3.144   0.421  12.050 -0.2370  0.5690  0.5548
26716SOL    HW286754   3.148   0.301  12.141  0.7591 -0.8580 -1.3122
26717SOL     OW86755   3.777   0.289  11.923  0.2603 -0.0153 -0.0697
26717SOL    HW186756   3.858   0.237  11.919  0.1427 -0.3568  1.4403
26717SOL    HW286757   3.707   0.225  11.930 -0.0175  0.3113  0.1923
26718SOL     OW86758  10.296  12.552   1.852 -0.0196  0.2272 -0.4669
26718SOL    HW186759  10.383  12.519   1.832  0.5503  0.9391  0.6901
26718SOL    HW286760  10.297  12.565   1.947 -1.3080  0.4598 -0.4681
26719SOL     OW86761   9.953  11.536   5.183  0.0099 -0.0686  0.4780
26719SOL    HW186762  10.025  11.600   5.183 -1.1193  1.2544 -0.1757
26719SOL    HW286763   9.877  11.587   5.210 -1.5501 -0.3500 -2.9720
26720SOL     OW86764  10.643   4.263  12.004  0.1824  0.1707 -0.5729
26720SOL    HW186765  10.577   4.221  12.060  2.4697 -1.8816  0.8263
26720SOL    HW286766  10.636   4.216  11.921 -0.8312  0.7447 -0.8274
26721SOL     OW86767   6.044   2.289   0.931 -0.3421 -0.0020  0.2462
26721SOL    HW186768   6.091   2.338   0.998 -1.0973 -0.5670  1.2169
26721SOL    HW286769   5.973   2.245   0.978 -1.6868  0.5977 -1.1205
26722SOL     OW86770   4.042   3.608  12.272 -0.2417  0.0873  0.1862
26722SOL    HW186771   4.122   3.624  12.222  0.0770 -0.3263  0.5558
26722SOL    HW286772   4.022   3.516  12.256  0.6358 -0.4508  1.8894
26723SOL     OW86773   6.268   0.779   5.573 -0.0973  0.0114  0.0148
26723SOL    HW186774   6.302   0.691   5.556 -0.4962  0.0235 -0.8733
26723SOL    HW286775   6.173   0.768   5.576 -0.1392  0.3820  0.0953
26724SOL     OW86776   7.125   3.896   9.913 -0.0781 -0.0606  0.2351
26724SOL    HW186777   7.122   3.825   9.849 -0.3394  0.0707  0.1005
26724SOL    HW286778   7.185   3.960   9.876 -0.2128  0.0057  0.1344
26725SOL     OW86779   3.091   2.931   6.325  0.1559 -0.2143 -0.0002
26725SOL    HW186780   3.135   2.855   6.362  0.1495  0.1265  0.7442
26725SOL    HW286781   3.155   3.001   6.332  1.2387 -0.7396 -3.3431
26726SOL     OW86782   9.425   7.136   3.313  0.1955  0.0746  0.1821
26726SOL    HW186783   9.403   7.152   3.221 -0.7302  0.8685  0.5223
26726SOL    HW286784   9.515   7.105   3.311 -0.1254 -0.8954 -1.0807
26727SOL     OW86785   8.108   9.768   1.603  1.0449 -0.1950  0.3391
26727SOL    HW186786   8.134   9.685   1.564 -0.5537 -0.2407 -0.7774
26727SOL    HW286787   8.063   9.745   1.684  0.8547 -0.4137  0.1727
26728SOL     OW86788   6.054  10.697   7.573 -0.5492 -0.3326  0.4958
26728SOL    HW186789   6.016  10.692   7.661 -1.4716 -0.0305  0.1287
26728SOL    HW286790   6.049  10.790   7.551  2.2146  0.0665  1.1829
26729SOL     OW86791   1.244   3.895   0.565  0.5577 -0.1541 -0.1775
26729SOL    HW186792   1.193   3.853   0.496 -2.7621  1.8005  0.8456
26729SOL    HW286793   1.212   3.854   0.646  0.4267  1.2289  0.5035
26730SOL     OW86794   4.080   2.249   2.055  0.1153  0.3415  0.1112
26730SOL    HW186795   4.035   2.328   2.027 -0.3630  0.1148  0.2316
26730SOL    HW286796   4.165   2.252   2.011 -0.4479  0.2024 -1.0272
26731SOL     OW86797  11.705   2.390   9.063  0.1907 -0.1970  0.5506
26731SOL    HW186798  11.628   2.419   9.015  0.3382 -1.5390 -0.5243
26731SOL    HW286799  11.673   2.322   9.122  0.5470 -0.7481  0.1110
26732SOL     OW86800   0.848   6.086   3.050  0.0582  0.3856 -0.0459
26732SOL    HW186801   0.768   6.140   3.049  1.1118  2.0365 -1.5853
26732SOL    HW286802   0.877   6.085   2.959  1.0806 -1.3511  0.2548
26733SOL     OW86803   2.270   5.810   8.741  0.1673  0.2643 -0.3645
26733SOL    HW186804   2.356   5.771   8.725  0.2842  0.7683 -1.0464
26733SOL    HW286805   2.269   5.889   8.686 -0.1929  1.0231  0.7016
26734SOL     OW86806   8.257   0.674   8.208  0.2913  0.2372  0.8085
26734SOL    HW186807   8.286   0.629   8.128  0.3408  0.1397  0.8802
26734SOL    HW286808   8.284   0.765   8.195 -1.8807  0.7812 -0.3676
26735SOL     OW86809  10.584   2.879   2.261  0.4719  0.5319 -0.0231
26735SOL    HW186810  10.595   2.870   2.166  1.1767 -0.1032  0.1099
26735SOL    HW286811  10.489   2.881   2.274  0.3181 -1.3259 -0.5918
26736SOL     OW86812   3.085   4.853  12.124  0.1140 -0.8390 -0.0606
26736SOL    HW186813   2.990   4.857  12.120  0.0403 -0.6467  1.3811
26736SOL    HW286814   3.114   4.908  12.051 -0.9476  3.1621  2.2059
26737SOL     OW86815   3.198   4.799  10.175 -0.6810  0.6612 -0.1143
26737SOL    HW186816   3.187   4.746  10.096 -1.0835 -0.5422  0.7107
26737SOL    HW286817   3.207   4.889  10.144  0.2959  0.0822 -1.5881
26738SOL     OW86818   5.869   1.983   7.344  0.0181 -0.1872  0.0197
26738SOL    HW186819   5.859   1.889   7.325 -0.4180 -0.3676  1.0661
26738SOL    HW286820   5.858   1.989   7.439  0.7458  0.8425  0.0489
26739SOL     OW86821   1.346  11.064   4.520  0.7592  0.1521 -0.4397
26739SOL    HW186822   1.368  11.123   4.448  0.0343 -1.7768 -2.3690
26739SOL    HW286823   1.262  11.025   4.494  1.5246 -2.1956  0.3699
26740SOL     OW86824   2.474   0.438   0.581 -0.3124 -0.1180 -0.0371
26740SOL    HW186825   2.529   0.515   0.568  0.9917 -0.9371  0.4203
26740SOL    HW286826   2.536   0.365   0.590 -1.3459 -0.7886  2.5444
26741SOL     OW86827   7.023   8.476   0.302  0.1150 -0.1156 -0.1451
26741SOL    HW186828   7.096   8.509   0.354  1.6117 -0.8751 -1.6748
26741SOL    HW286829   6.985   8.407   0.357  0.9266 -0.1207  0.4400
26742SOL     OW86830   5.635   5.794   1.764  0.4767  0.5177  0.5713
26742SOL    HW186831   5.616   5.871   1.818 -1.3590 -2.0283  3.9408
26742SOL    HW286832   5.583   5.807   1.684 -1.7906  1.6913  2.1307
26743SOL     OW86833  12.718   3.881  11.428 -0.5107 -0.0616  0.4907
26743SOL    HW186834  12.747   3.933  11.503  0.0123 -0.3982  0.5221
26743SOL    HW286835  12.775   3.908  11.356 -1.5608  0.8827 -0.0164
26744SOL     OW86836   3.352   6.033   5.808 -0.3867  0.0235  0.4749
26744SOL    HW186837   3.287   6.020   5.740 -1.0588  1.6110  0.7674
26744SOL    HW286838   3.365   5.946   5.846  0.5388 -1.0759 -2.0853
26745SOL     OW86839  12.358   5.266   5.382 -0.0051 -0.1334  0.3933
26745SOL    HW186840  12.440   5.238   5.342  0.1043  0.3101  0.2985
26745SOL    HW286841  12.328   5.191   5.433  0.7489 -0.1067  0.8881
26746SOL     OW86842   1.384   8.155   7.745  0.1012  0.0564  0.1518
26746SOL    HW186843   1.372   8.155   7.651  2.8215  1.3925 -0.3072
26746SOL    HW286844   1.437   8.078   7.763  0.4442  0.3434  0.4120
26747SOL     OW86845   3.545   3.023   9.443  0.3207  0.3208  1.0022
26747SOL    HW186846   3.638   3.000   9.443  0.3175  0.2566 -0.3631
26747SOL    HW286847   3.512   2.988   9.526  1.4571  0.1547  1.4034
26748SOL     OW86848  12.574   4.398   9.969 -0.1252  0.2144 -0.2804
26748SOL    HW186849  12.527   4.334   9.915  0.6738  0.3104 -1.1237
26748SOL    HW286850  12.540   4.385  10.057 -0.8285 -0.5615 -0.6524
26749SOL     OW86851   4.343   5.239  12.105 -0.1900  0.4358  0.2407
26749SOL    HW186852   4.422   5.266  12.151 -0.5866  1.1470  0.5192
26749SOL    HW286853   4.277   5.303  12.131 -0.9617 -0.3584  0.3094
26750SOL     OW86854   2.513   4.614   0.280 -0.2424  0.0762 -0.4844
26750SOL    HW186855   2.487   4.642   0.368  0.3841 -0.0317 -0.2555
26750SOL    HW286856   2.448   4.548   0.255 -0.8560  0.6477 -0.4108
26751SOL     OW86857   0.497  11.244  10.580  0.0075  0.2086  0.0815
26751SOL    HW186858   0.484  11.288  10.496 -0.0377  0.5309  0.2588
26751SOL    HW286859   0.585  11.271  10.608  0.0874 -0.0269  0.0615
26752SOL     OW86860   7.292  10.486  10.728  0.3955 -0.0081 -0.6149
26752SOL    HW186861   7.336  10.501  10.645 -1.2939 -1.5026 -1.8511
26752SOL    HW286862   7.241  10.565  10.743  2.2790  1.1385  0.1176
26753SOL     OW86863   0.091   9.022  11.008  0.5227 -0.5516  0.4067
26753SOL    HW186864   0.070   8.997  10.917 -1.2715 -0.1485  0.6603
26753SOL    HW286865   0.005   9.029  11.050  1.1937  1.3676  1.5810
26754SOL     OW86866   6.708   4.733   0.332 -0.0702 -0.2071  0.1794
26754SOL    HW186867   6.726   4.665   0.397  1.7916 -1.2397 -1.3147
26754SOL    HW286868   6.623   4.709   0.295 -2.0899  1.4479  3.3959
26755SOL     OW86869   1.540   4.193   9.613 -0.3357 -0.2802 -0.0350
26755SOL    HW186870   1.543   4.271   9.558  0.7568  0.4142  0.9641
26755SOL    HW286871   1.489   4.219   9.690 -0.0358 -0.5790  0.2690
26756SOL     OW86872   2.788   8.171   7.022  0.4833  0.4858  0.2942
26756SOL    HW186873   2.840   8.143   6.946  2.0316 -1.0933  1.8357
26756SOL    HW286874   2.809   8.264   7.032  1.8167  0.2441 -0.0460
26757SOL     OW86875   3.917   4.110  12.464 -0.0513  0.5654  0.5559
26757SOL    HW186876   3.956   4.037  12.513 -0.2787  0.5112  0.6592
26757SOL    HW286877   3.842   4.136  12.516 -0.4185  0.3704  0.1353
26758SOL     OW86878   9.021   3.498  10.226 -0.1174  0.3245 -0.2588
26758SOL    HW186879   9.114   3.488  10.205  0.1165  1.5678  0.1040
26758SOL    HW286880   8.989   3.409  10.237  1.4011 -0.0927  1.1733
26759SOL     OW86881  10.555  12.772   2.566 -0.0469  0.2762 -0.2573
26759SOL    HW186882  10.516  12.859   2.566  1.4311  0.9760 -0.7731
26759SOL    HW286883  10.482  12.713   2.547 -1.0265  1.4132 -0.1484
26760SOL     OW86884   8.078   8.682  11.097  0.2174  0.3202  0.5922
26760SOL    HW186885   8.038   8.722  11.020 -0.0829  0.7981  0.9887
26760SOL    HW286886   8.118   8.601  11.065 -0.9385 -0.0925  0.1581
26761SOL     OW86887   1.102   0.013   2.702 -0.1406  0.0591  0.4617
26761SOL    HW186888   1.107  -0.081   2.685 -0.4052  0.2060 -0.5012
26761SOL    HW286889   1.084   0.019   2.795  0.4979 -0.8294  0.6548
26762SOL     OW86890   2.330   8.796   2.736  0.0033 -0.3736  0.2805
26762SOL    HW186891   2.317   8.881   2.694 -0.1000  0.5993  2.1589
26762SOL    HW286892   2.387   8.814   2.811  1.0408 -2.2030  0.0123
26763SOL     OW86893   3.535   8.862   0.114  0.2667  0.1531  0.7599
26763SOL    HW186894   3.517   8.864   0.208  0.5230  0.4698  0.8071
26763SOL    HW286895   3.547   8.955   0.091  2.0195 -0.0323  0.7750
26764SOL     OW86896  11.731   9.769   2.822 -0.3043  0.3216 -0.0218
26764SOL    HW186897  11.825   9.752   2.818 -0.1642  0.1788  2.3923
26764SOL    HW286898  11.691   9.685   2.801  0.1506  0.0646  0.1168
26765SOL     OW86899  11.758   3.981   1.674  0.0563 -0.5835  0.1141
26765SOL    HW186900  11.851   3.979   1.651  0.6628 -2.5831  2.3351
26765SOL    HW286901  11.732   3.889   1.679 -2.0176 -0.0676 -0.2838
26766SOL     OW86902   1.505   5.136   7.918 -0.0486  0.3674  0.1729
26766SOL    HW186903   1.492   5.061   7.860  0.7998  0.5442 -0.2594
26766SOL    HW286904   1.598   5.133   7.940 -0.4338  0.0184  1.9179
26767SOL     OW86905   7.154   7.507   1.188 -0.3558  0.1552 -0.0789
26767SOL    HW186906   7.203   7.571   1.137  2.5239  0.1284  2.3559
26767SOL    HW286907   7.082   7.556   1.226 -0.3020  1.0536 -1.0923
26768SOL     OW86908   8.748   0.830  12.072  0.0459  0.4844 -0.0713
26768SOL    HW186909   8.739   0.740  12.041 -0.2955  0.4070  0.2409
26768SOL    HW286910   8.738   0.883  11.994  1.1533  0.2264 -0.4126
26769SOL     OW86911   0.791   9.340  11.264 -0.4787  0.7402 -0.0153
26769SOL    HW186912   0.739   9.387  11.200 -1.7446  0.8453  1.0497
26769SOL    HW286913   0.780   9.247  11.241 -0.4968  0.7973 -0.2409
26770SOL     OW86914  12.685   4.000   7.281  0.2328  0.3934 -0.2047
26770SOL    HW186915  12.746   4.036   7.216 -1.2539  3.5910 -0.0236
26770SOL    HW286916  12.713   4.040   7.363 -1.0795  0.5826  0.1619
26771SOL     OW86917   8.768   7.290   0.627  0.2907 -0.3455 -0.1587
26771SOL    HW186918   8.711   7.347   0.679  1.3105  1.2080 -0.6546
26771SOL    HW286919   8.847   7.343   0.612  1.1945 -1.8265 -0.8571
26772SOL     OW86920  10.605  11.908  10.148  0.1000  0.2876  0.3905
26772SOL    HW186921  10.524  11.898  10.199 -0.1864 -0.2475 -0.1556
26772SOL    HW286922  10.623  11.820  10.114 -0.8713  0.9744 -2.1526
26773SOL     OW86923   9.034  10.608   2.105 -0.1322  0.3614 -0.2675
26773SOL    HW186924   9.050  10.702   2.097 -0.9607  0.5451  0.1116
26773SOL    HW286925   8.941  10.598   2.087 -0.7568  0.0218  2.6130
26774SOL     OW86926   2.194  11.693   7.612 -0.0628  0.1446  0.8608
26774SOL    HW186927   2.147  11.630   7.557 -1.2163  0.9426  0.9152
26774SOL    HW286928   2.247  11.743   7.551 -0.0943 -0.0551  0.6693
26775SOL     OW86929   1.964  11.375  10.914  0.0206  0.0816 -0.4282
26775SOL    HW186930   2.045  11.399  10.871 -0.2802 -1.0385 -1.6855
26775SOL    HW286931   1.899  11.373  10.844 -0.5943 -1.2435  0.1365
26776SOL     OW86932  12.705   2.549   0.119  0.1779  0.3968  0.0479
26776SOL    HW186933  12.624   2.584   0.157  1.0782  1.7716  0.7991
26776SOL    HW286934  12.751   2.626   0.086  1.1702 -0.3657 -0.4036
26777SOL     OW86935   4.221   9.903   5.491  0.0902 -0.0877 -0.1747
26777SOL    HW186936   4.235   9.886   5.584  1.9410 -0.5628 -0.4999
26777SOL    HW286937   4.199   9.996   5.486  2.2854  0.5340  0.5738
26778SOL     OW86938   1.993   0.411   5.308  0.3051 -0.0344  0.0485
26778SOL    HW186939   1.969   0.453   5.225 -3.1095 -1.7187 -0.0017
26778SOL    HW286940   2.086   0.391   5.299  0.5806  1.8792 -2.4075
26779SOL     OW86941   6.188   4.541   3.441  0.1948  0.0629 -0.6021
26779SOL    HW186942   6.207   4.475   3.374  0.9464  0.0936 -0.4237
26779SOL    HW286943   6.170   4.621   3.391  2.0099  0.4137 -0.7566
26780SOL     OW86944  10.805   3.707  10.800 -0.1699 -0.8376  0.5065
26780SOL    HW186945  10.862   3.691  10.876  0.0882 -0.0298  0.4949
26780SOL    HW286946  10.859   3.682  10.725  1.1628  2.1625  0.2984
26781SOL     OW86947   6.588   0.129   0.384  0.4002  0.0045 -0.0750
26781SOL    HW186948   6.603   0.153   0.293  1.3076  0.9572  0.3112
26781SOL    HW286949   6.675   0.124   0.423 -0.0215  2.3673  1.4081
26782SOL     OW86950   0.248   0.260   0.669  0.1509 -0.0719  0.3893
26782SOL    HW186951   0.331   0.268   0.716 -0.7303 -1.0564  2.2061
26782SOL    HW286952   0.197   0.337   0.696  0.3872  0.4553 -0.6092
26783SOL     OW86953   1.627   0.723   2.194 -0.1807  0.3324 -0.3579
26783SOL    HW186954   1.718   0.699   2.212  0.0368  0.0862 -1.6476
26783SOL    HW286955   1.599   0.773   2.270  1.6464  2.0764 -0.7586
26784SOL     OW86956   5.669  11.081   9.446 -0.3384  0.3439  0.2253
26784SOL    HW186957   5.706  11.115   9.527  0.6657 -2.2315  0.9523
26784SOL    HW286958   5.579  11.058   9.469 -0.4605  0.8040  0.2237
26785SOL     OW86959  12.510   6.291   1.550  0.3030 -0.1476 -0.3402
26785SOL    HW186960  12.571   6.341   1.605 -1.0709  1.6467 -0.3442
26785SOL    HW286961  12.426   6.299   1.595 -0.2020 -1.4421 -1.0189
26786SOL     OW86962   5.388   6.182   2.786 -0.0639 -0.1333 -0.6625
26786SOL    HW186963   5.433   6.195   2.869 -0.3513 -1.0003 -0.3578
26786SOL    HW286964   5.457   6.177   2.721  0.1899  0.0835 -0.4107
26787SOL     OW86965   8.906  11.278   8.851  0.2472 -0.0396 -0.3852
26787SOL    HW186966   8.937  11.367   8.867  0.6686 -0.6653  3.0973
26787SOL    HW286967   8.962  11.223   8.906 -3.4994 -1.8142  2.0457
26788SOL     OW86968   7.177   6.962  12.348  0.3630  0.2356  0.3783
26788SOL    HW186969   7.115   6.894  12.320  0.8140  0.3186 -0.8674
26788SOL    HW286970   7.149   6.984  12.437 -0.1404 -1.1736  0.5962
26789SOL     OW86971   9.172   5.404  10.212  0.2837  0.0526  0.1004
26789SOL    HW186972   9.192   5.365  10.127 -1.3864  0.2706 -0.4297
26789SOL    HW286973   9.225   5.354  10.274  0.1077 -1.3809 -0.8497
26790SOL     OW86974  10.348   8.454   4.583  0.3723 -0.2733 -0.2865
26790SOL    HW186975  10.288   8.496   4.644  1.1065 -0.3243  0.4968
26790SOL    HW286976  10.310   8.368   4.567  0.7377 -0.7028  1.0090
26791SOL     OW86977   9.996   7.838   9.033 -0.0779 -0.5985 -0.7557
26791SOL    HW186978   9.967   7.928   9.025 -1.1646 -0.8544  0.0947
26791SOL    HW286979  10.086   7.844   9.066 -0.3016  0.1606 -0.2791
26792SOL     OW86980   0.475   7.680   0.926 -0.1187 -0.4068  0.1104
26792SOL    HW186981   0.394   7.634   0.950 -0.9380 -1.1931 -3.5993
26792SOL    HW286982   0.448   7.772   0.920 -0.1740 -0.3607  0.9531
26793SOL     OW86983   7.552   3.642   0.413  0.0313  0.1084  0.1823
26793SOL    HW186984   7.629   3.629   0.467 -0.0992 -1.2299  0.0843
26793SOL    HW286985   7.557   3.573   0.347 -1.2018  0.0384  0.1293
26794SOL     OW86986   2.112   7.538   7.060 -0.1119  0.3897 -0.3348
26794SOL    HW186987   2.184   7.479   7.042  0.2097  0.9854 -1.0625
26794SOL    HW286988   2.132   7.617   7.010 -0.5915  1.0726  0.5115
26795SOL     OW86989   0.795   8.636   7.888  0.3873 -0.0004 -0.2783
26795SOL    HW186990   0.874   8.660   7.937  1.5990 -2.0050 -1.0873
26795SOL    HW286991   0.813   8.664   7.798 -0.5488  0.9919 -0.1743
26796SOL     OW86992  11.279   4.854   4.287  0.1361 -0.0631  0.0621
26796SOL    HW186993  11.327   4.937   4.280  0.8783 -0.4334  0.6275
26796SOL    HW286994  11.253   4.849   4.379 -4.9123  2.2352 -0.8669
26797SOL     OW86995   2.404   5.199   4.584  0.4514  0.2047  1.0086
26797SOL    HW186996   2.427   5.166   4.671 -0.3250  0.7890  1.4418
26797SOL    HW286997   2.377   5.289   4.599  1.6187  0.7645 -0.0282
26798SOL     OW86998   8.203   1.062   5.543  0.4064  0.0768 -0.0999
26798SOL    HW186999   8.200   1.043   5.449 -1.0155 -0.2177 -0.0147
26798SOL    HW287000   8.284   1.112   5.555 -0.2035  1.5758 -1.7570
26799SOL     OW87001   8.638  12.031  11.610  0.2945 -0.4364 -0.2438
26799SOL    HW187002   8.583  11.953  11.619 -0.7415  0.3600  0.5451
26799SOL    HW287003   8.655  12.059  11.700 -0.7603  1.1847 -0.5023
26800SOL     OW87004  11.104   3.595  11.818  0.4944  0.0944 -0.2107
26800SOL    HW187005  11.150   3.613  11.737 -0.1039  0.5316 -0.4567
26800SOL    HW287006  11.090   3.500  11.817 -1.6022  0.3415 -1.7849
26801SOL     OW87007   7.087   5.384  10.160 -0.3252 -0.0627  0.1767
26801SOL    HW187008   7.019   5.432  10.112 -0.1029 -0.7827 -0.9107
26801SOL    HW287009   7.166   5.393  10.105 -0.1505 -1.2035  0.2138
26802SOL     OW87010   3.865   6.065   7.404 -0.0604  0.0626  0.4333
26802SOL    HW187011   3.930   6.101   7.344  0.6863  0.5184  1.4792
26802SOL    HW287012   3.781   6.094   7.368  0.3138 -0.2963 -0.7792
26803SOL     OW87013   6.919   3.001   6.465  0.2392  0.3095  0.3638
26803SOL    HW187014   6.988   3.067   6.482  1.6025 -1.5427  2.7040
26803SOL    HW287015   6.964   2.931   6.419 -0.3923 -0.3720  0.7716
26804SOL     OW87016   1.518   1.099   8.822  0.2905  0.0512  0.7642
26804SOL    HW187017   1.520   1.011   8.783 -2.8649  0.7555 -1.3871
26804SOL    HW287018   1.555   1.156   8.754 -0.1987  0.6749  1.0082
26805SOL     OW87019   3.105   4.748   6.898 -0.4828  0.6012  0.3105
26805SOL    HW187020   3.135   4.669   6.853 -1.0393  0.1749  0.6752
26805SOL    HW287021   3.137   4.820   6.844 -1.7843  0.0988 -1.2305
26806SOL     OW87022   9.260   5.195   3.781 -0.0917 -0.4120  0.1916
26806SOL    HW187023   9.346   5.213   3.744 -0.8839  0.3718 -1.3381
26806SOL    HW287024   9.269   5.109   3.823  1.7273  0.1802  1.0790
26807SOL     OW87025  11.626   4.648   2.917 -0.0509  0.1292  0.2318
26807SOL    HW187026  11.667   4.733   2.901 -0.0190  0.0745  0.0167
26807SOL    HW287027  11.667   4.589   2.853  0.6205 -0.2746  1.0231
26808SOL     OW87028  10.525   5.691   9.825  0.3088 -0.1708  0.5445
26808SOL    HW187029  10.498   5.708   9.915 -2.0168  1.2916 -0.3169
26808SOL    HW287030  10.575   5.769   9.800 -1.5395  0.8309 -0.2483
26809SOL     OW87031   5.374  11.662   4.024 -0.0251 -0.1336 -0.0524
26809SOL    HW187032   5.383  11.582   4.076  0.9498 -0.4257 -0.6426
26809SOL    HW287033   5.453  11.712   4.043 -1.1577  1.2579  1.2146
26810SOL     OW87034   5.899   2.020  11.827  0.0014 -0.0924 -0.2061
26810SOL    HW187035   5.910   1.937  11.779  1.6003 -0.2020  0.2827
26810SOL    HW287036   5.904   2.087  11.760  0.9207 -0.3105 -0.3769
26811SOL     OW87037  11.783   6.449   3.903 -0.2965  0.1377 -0.7005
26811SOL    HW187038  11.783   6.375   3.963  0.0596  0.2906 -0.5128
26811SOL    HW287039  11.837   6.515   3.945  0.7901 -0.1186 -1.6440
26812SOL     OW87040   9.399   0.554   6.154 -0.3509  0.3436  0.2949
26812SOL    HW187041   9.389   0.514   6.067  0.8279  0.3944  0.1274
26812SOL    HW287042   9.436   0.485   6.208  0.4499  0.8000  0.3379
26813SOL     OW87043   5.805  11.383   4.425 -0.5065 -0.4821 -0.2263
26813SOL    HW187044   5.890  11.406   4.388 -0.1259  0.3238  1.0758
26813SOL    HW287045   5.748  11.457   4.402 -0.5048 -0.4052  0.0128
26814SOL     OW87046   2.491   3.692  10.760  0.2497 -0.1548 -0.1535
26814SOL    HW187047   2.482   3.736  10.675  0.1049  0.7958  0.3383
26814SOL    HW287048   2.417   3.632  10.764  0.9082 -1.0748 -1.1920
26815SOL     OW87049   4.301  11.959   0.205 -0.4615  0.5313 -0.0809
26815SOL    HW187050   4.288  12.023   0.275  0.1839  0.1039  0.4413
26815SOL    HW287051   4.378  11.909   0.232 -0.3862  0.1583 -0.9502
26816SOL     OW87052   7.963   0.645   0.152  0.3721  0.2460 -0.5682
26816SOL    HW187053   7.943   0.590   0.229  0.6543  0.8304 -0.0689
26816SOL    HW287054   8.049   0.615   0.124  0.3657  0.1834 -0.5236
26817SOL     OW87055   7.812  12.251   9.288 -0.4007  0.5289  0.0755
26817SOL    HW187056   7.852  12.272   9.372  1.1362 -0.8541 -0.2681
26817SOL    HW287057   7.839  12.161   9.270 -1.6918  0.3802 -1.3508
26818SOL     OW87058   8.468   5.771  10.798  0.0819 -0.3971 -0.2879
26818SOL    HW187059   8.405   5.700  10.805 -0.5645  0.1212 -0.7536
26818SOL    HW287060   8.506   5.779  10.886 -1.1604 -0.1178  0.2372
26819SOL     OW87061   4.232   7.805   9.489  0.0095 -0.0075  0.3286
26819SOL    HW187062   4.234   7.864   9.564  0.9860  1.2938 -0.6861
26819SOL    HW287063   4.147   7.822   9.448 -0.7575 -1.1037  1.3944
26820SOL     OW87064   6.499   1.401   9.280  0.0680 -0.1651  0.1991
26820SOL    HW187065   6.487   1.496   9.271  0.5749 -0.3005 -2.5355
26820SOL    HW287066   6.435   1.362   9.221  1.7672 -1.4048 -0.9129
26821SOL     OW87067   8.328  12.301   8.232  0.4212 -0.3472  0.6480
26821SOL    HW187068   8.255  12.244   8.256  0.6184 -0.7234  0.3629
26821SOL    HW287069   8.357  12.269   8.147  0.6930  0.0221  0.5976
26822SOL     OW87070   2.059   1.092   2.946  0.3174 -0.3728 -0.3397
26822SOL    HW187071   2.137   1.146   2.952 -0.0813  0.0448  1.8605
26822SOL    HW287072   2.064   1.033   3.022 -0.3955 -1.8875 -1.4147
26823SOL     OW87073   6.153  11.510   2.514 -0.3647  0.5800 -0.2478
26823SOL    HW187074   6.195  11.480   2.434  0.5021 -0.0952  0.4398
26823SOL    HW287075   6.154  11.606   2.507  1.4825  0.6058 -0.1838
26824SOL     OW87076   4.995   7.977   5.200  0.2831 -0.3448 -0.0404
26824SOL    HW187077   5.058   8.020   5.258 -1.1590  0.0068  1.3297
26824SOL    HW287078   4.985   7.889   5.236 -2.3155  0.5743  1.7344
26825SOL     OW87079  11.953   0.856   3.144  0.4461  0.6899  0.0140
26825SOL    HW187080  12.006   0.779   3.121 -0.4573  0.2560 -0.6816
26825SOL    HW287081  11.990   0.927   3.092  1.5582  0.8461  0.9744
26826SOL     OW87082   0.662   4.889  12.692  0.0049  0.2996  0.0816
26826SOL    HW187083   0.650   4.983  12.676  0.2053  0.3870  0.4182
26826SOL    HW287084   0.575   4.851  12.681 -0.1808  0.6063  0.4583
26827SOL     OW87085  11.849  10.596   5.000 -0.3044  0.2151 -0.1236
26827SOL    HW187086  11.838  10.650   4.922  0.2542 -0.1309 -0.4458
26827SOL    HW287087  11.938  10.613   5.030  1.5183 -3.5325 -2.6131
26828SOL     OW87088  11.435   2.923  10.608 -0.9835 -0.6136 -0.3676
26828SOL    HW187089  11.449   2.894  10.518 -0.6977  1.0320 -0.8882
26828SOL    HW287090  11.369   2.992  10.601 -0.5214 -0.0469  0.5878
26829SOL     OW87091  10.996   2.449   2.132 -0.0111 -0.5755 -0.0924
26829SOL    HW187092  10.955   2.382   2.187  0.4862  1.1031  2.4940
26829SOL    HW287093  10.935   2.522   2.133  0.5063 -0.1058 -0.9356
26830SOL     OW87094   7.613  12.418  11.187 -0.1032 -0.2421  0.3050
26830SOL    HW187095   7.517  12.423  11.187 -0.0992  0.3316  1.5855
26830SOL    HW287096   7.633  12.340  11.240  0.1465 -0.7107 -0.4577
26831SOL     OW87097  11.661   5.397   7.675 -0.1684  0.4061 -0.3173
26831SOL    HW187098  11.708   5.367   7.598  0.0894 -1.2858  0.4469
26831SOL    HW287099  11.719   5.376   7.748 -0.2176  2.3600  0.3476
26832SOL     OW87100   1.387   8.085  11.807  0.5627 -0.2625  0.0688
26832SOL    HW187101   1.453   8.153  11.816 -0.2483  0.3384  2.1173
26832SOL    HW287102   1.401   8.049  11.719  3.0312  0.3953  0.1185
26833SOL     OW87103   6.562   1.046   4.551  0.9822 -0.5338 -0.5078
26833SOL    HW187104   6.561   1.082   4.462  0.7071  1.2316  0.1741
26833SOL    HW287105   6.471   1.025   4.570  0.6255  1.4679  0.2320
26834SOL     OW87106   3.922   9.698   2.281  0.3621 -0.2067  0.2314
26834SOL    HW187107   3.915   9.603   2.267 -0.8476  0.0195 -0.9000
26834SOL    HW287108   3.832   9.730   2.273  0.8046  1.0917  0.2277
26835SOL     OW87109   2.237   5.140   5.395 -0.3788  0.4637 -0.3469
26835SOL    HW187110   2.323   5.109   5.368 -0.6942  0.1704 -1.0510
26835SOL    HW287111   2.250   5.173   5.484  0.2516 -0.4785 -0.0694
26836SOL     OW87112   4.262   3.398   6.787 -0.9509  0.3670 -0.6049
26836SOL    HW187113   4.353   3.427   6.795 -0.8529 -0.0910  0.0265
26836SOL    HW287114   4.228   3.400   6.877 -1.2995 -0.3225 -0.7135
26837SOL     OW87115   6.560  11.031  10.881 -0.3291  0.3227 -0.0310
26837SOL    HW187116   6.507  11.059  10.956  0.0334 -2.0801  1.2501
26837SOL    HW287117   6.496  10.998  10.818 -0.5513  0.8366 -0.0800
26838SOL     OW87118   2.931   7.217   6.799 -0.7222 -0.2560 -0.2509
26838SOL    HW187119   3.001   7.251   6.744  0.1590 -2.1437 -0.3754
26838SOL    HW287120   2.914   7.287   6.862  0.9678  0.4144 -0.4911
26839SOL     OW87121  10.543  10.695   3.458 -0.2562 -0.0235  0.0868
26839SOL    HW187122  10.606  10.669   3.392 -1.6761 -2.3829 -0.4606
26839SOL    HW287123  10.594  10.704   3.539  0.6424 -3.5548  0.0643
26840SOL     OW87124   5.126  12.235  11.251 -0.0575  0.3435 -0.2066
26840SOL    HW187125   5.175  12.318  11.258 -1.5929  1.2189  0.9325
26840SOL    HW287126   5.084  12.239  11.165  0.4497  0.4079 -0.4543
26841SOL     OW87127   4.868   3.327   5.164 -0.1622 -0.2119 -0.1048
26841SOL    HW187128   4.794   3.375   5.200 -0.1001 -0.8670  0.9204
26841SOL    HW287129   4.942   3.387   5.171 -0.2067 -0.2384  0.6223
26842SOL     OW87130   9.903   4.235   9.845  0.4972 -0.4972 -0.1893
26842SOL    HW187131   9.943   4.304   9.792 -0.2085 -0.8835 -1.2736
26842SOL    HW287132   9.833   4.279   9.894  0.3152 -0.3639 -0.5662
26843SOL     OW87133   5.374   6.860   5.357 -0.4051 -0.8222  0.3420
26843SOL    HW187134   5.463   6.853   5.323 -1.2341 -0.7899 -2.0499
26843SOL    HW287135   5.384   6.853   5.452  2.1416 -0.6540  0.1698
26844SOL     OW87136   6.215   8.707   2.083 -0.3069  0.6006  0.2228
26844SOL    HW187137   6.192   8.785   2.033 -0.8834  0.5957  0.4681
26844SOL    HW287138   6.188   8.728   2.173 -1.3022 -0.2085  0.1308
26845SOL     OW87139  12.102   5.053   8.273 -0.4008  0.2338  0.2666
26845SOL    HW187140  12.138   5.138   8.297 -0.7346 -0.2260  2.7059
26845SOL    HW287141  12.066   5.066   8.185  1.5079  1.9563 -0.3393
26846SOL     OW87142  10.211  12.058   6.673  0.1575  0.1186  0.5122
26846SOL    HW187143  10.239  12.122   6.607  0.8173 -1.0907 -0.4104
26846SOL    HW287144  10.141  12.103   6.721  0.7578  1.6172  0.0498
26847SOL     OW87145   0.902   5.508   5.767  0.3128 -0.1225  0.9829
26847SOL    HW187146   0.857   5.588   5.795  2.4469  3.0200 -3.3485
26847SOL    HW287147   0.837   5.460   5.715 -0.4723 -0.3291  2.1299
26848SOL     OW87148   3.713   2.037   0.085 -0.5703 -0.1272  0.0962
26848SOL    HW187149   3.735   2.043   0.178 -0.4585  2.1479 -0.0388
26848SOL    HW287150   3.757   1.957   0.055  0.1211 -0.4186  1.7881
26849SOL     OW87151   2.526   1.565  10.942 -0.2117 -0.9245  0.3441
26849SOL    HW187152   2.442   1.529  10.970 -0.1016 -0.9541  0.6382
26849SOL    HW287153   2.591   1.517  10.993 -0.1533  1.0620  2.2707
26850SOL     OW87154  10.964  12.724  10.273  0.2530  0.2152 -0.6515
26850SOL    HW187155  10.902  12.676  10.327  0.1229 -0.6050 -1.4993
26850SOL    HW287156  10.916  12.744  10.192  1.1998 -0.8569 -1.5214
26851SOL     OW87157   3.999   2.215  10.618 -0.4594 -0.1402 -0.4885
26851SOL    HW187158   4.060   2.214  10.691 -0.9891 -3.1656  0.0404
26851SOL    HW287159   4.041   2.162  10.550 -1.8571 -1.1985 -0.5913
26852SOL     OW87160  11.246   9.023   8.080  0.8057  0.1211 -0.7213
26852SOL    HW187161  11.328   9.031   8.130  1.0209 -2.4866 -0.5168
26852SOL    HW287162  11.264   8.953   8.017 -1.2785 -0.5441 -0.6319
26853SOL     OW87163   7.600   4.869   1.433  0.0571  0.2241  0.3058
26853SOL    HW187164   7.686   4.836   1.409  0.0468  1.4643 -1.6802
26853SOL    HW287165   7.541   4.831   1.368 -0.8308 -0.1376  1.2904
26854SOL     OW87166   4.217   1.697   7.532 -0.2569  0.0260 -0.4910
26854SOL    HW187167   4.311   1.683   7.516  0.0277  2.4680 -1.5212
26854SOL    HW287168   4.212   1.727   7.623  0.3008  1.7845 -0.9794
26855SOL     OW87169   9.114   4.566   1.849 -0.2146 -0.0027 -0.1143
26855SOL    HW187170   9.159   4.516   1.780 -0.0090  1.2116 -0.8923
26855SOL    HW287171   9.021   4.559   1.827 -0.3800 -1.8269  1.0237
26856SOL     OW87172   7.384  10.480   9.846 -0.4009  0.2707  0.1774
26856SOL    HW187173   7.414  10.404   9.796 -0.1770  0.5149 -0.0635
26856SOL    HW287174   7.458  10.502   9.903 -0.0411  0.9739 -0.5343
26857SOL     OW87175   1.002   6.167  10.889 -0.1730  0.2460 -0.1526
26857SOL    HW187176   1.019   6.072  10.890 -0.4747  0.1719 -1.0022
26857SOL    HW287177   0.985   6.189  10.981  0.0760 -0.4907  0.0808
26858SOL     OW87178  12.613   6.020  11.840 -0.6118  0.1665 -0.1437
26858SOL    HW187179  12.546   6.066  11.890 -1.0620  0.5115 -1.0487
26858SOL    HW287180  12.695   6.064  11.865 -1.0389  1.5315 -1.0321
26859SOL     OW87181  12.138   9.484   7.607 -0.1238 -0.5838 -0.2728
26859SOL    HW187182  12.214   9.494   7.550 -0.0701 -1.2308 -0.3197
26859SOL    HW287183  12.069   9.534   7.564  0.0267 -0.7366 -0.6998
26860SOL     OW87184   0.027   4.989  12.589 -0.1259 -0.4559 -0.4574
26860SOL    HW187185   0.089   5.022  12.524 -0.0606 -1.4828 -0.9291
26860SOL    HW287186   0.064   4.906  12.617 -0.4824 -0.3170  0.4350
26861SOL     OW87187   5.776   8.163   5.637  0.4215  0.2020 -0.0758
26861SOL    HW187188   5.749   8.162   5.729 -0.3136  0.7810 -0.2821
26861SOL    HW287189   5.864   8.201   5.639 -0.4743  2.3803  0.1760
26862SOL     OW87190   2.067   3.832   6.174  0.4029  0.3231  0.1401
26862SOL    HW187191   2.033   3.845   6.085 -1.3617 -2.7318  0.2588
26862SOL    HW287192   1.999   3.868   6.231  0.0930 -0.4705  0.2805
26863SOL     OW87193   1.535  10.785  10.276 -0.6986 -0.2426  0.2375
26863SOL    HW187194   1.502  10.765  10.363  0.2957  0.7466  0.8694
26863SOL    HW287195   1.512  10.877  10.262 -3.7875 -1.1600 -1.9437
26864SOL     OW87196   9.831   7.198  10.915  1.0283  0.5185  0.1760
26864SOL    HW187197   9.890   7.189  10.840  0.6063  0.2452 -0.1275
26864SOL    HW287198   9.748   7.160  10.885  0.1340  2.5278 -0.0514
26865SOL     OW87199  10.378   7.386   3.757  0.4064 -0.2897 -0.0440
26865SOL    HW187200  10.332   7.309   3.725 -0.0411  0.5388 -1.4894
26865SOL    HW287201  10.355   7.455   3.695  0.8197  1.0037  1.1980
26866SOL     OW87202   8.245  10.604   8.621  0.7601 -0.3258  0.2773
26866SOL    HW187203   8.152  10.606   8.600  1.1590 -3.5815 -2.8850
26866SOL    HW287204   8.252  10.540   8.692  0.6021 -0.7762 -0.1026
26867SOL     OW87205   3.533  12.355   7.958 -0.0015  0.3173  0.1944
26867SOL    HW187206   3.447  12.314   7.951 -0.5449  1.0109  2.1276
26867SOL    HW287207   3.589  12.288   7.996  0.0103  0.2571  0.0722
26868SOL     OW87208   5.485  12.220   5.949 -0.0943  0.3069 -0.1072
26868SOL    HW187209   5.469  12.263   6.033 -1.0847  1.2703 -0.7578
26868SOL    HW287210   5.444  12.134   5.957  1.2535 -0.2751  0.9491
26869SOL     OW87211   3.441   8.458  10.842 -0.2825 -0.3462 -0.1963
26869SOL    HW187212   3.526   8.428  10.810 -0.3593  0.3583 -1.1233
26869SOL    HW287213   3.428   8.542  10.798 -2.4651 -1.4608 -1.8249
26870SOL     OW87214   5.264  11.136   9.455  0.1461  0.2017 -0.7811
26870SOL    HW187215   5.218  11.107   9.376  2.0012  0.3455 -1.9731
26870SOL    HW287216   5.329  11.068   9.471 -1.1096 -0.5448  1.5168
26871SOL     OW87217   8.034   7.252   3.087  0.0410  0.0336  0.3670
26871SOL    HW187218   8.026   7.180   3.151 -0.4213  1.1880  1.6540
26871SOL    HW287219   8.121   7.239   3.049  0.5600 -0.4003  1.6129
26872SOL     OW87220   0.602   3.974   9.862 -0.3533  0.6397  0.1982
26872SOL    HW187221   0.534   3.908   9.847 -1.0166  1.4004 -0.2244
26872SOL    HW287222   0.658   3.936   9.931 -0.6579 -0.3963 -0.1065
26873SOL     OW87223   8.808   9.173  11.309 -0.0825  0.3219  0.6123
26873SOL    HW187224   8.826   9.174  11.215  1.7079  1.0156  0.9353
26873SOL    HW287225   8.749   9.098  11.321  1.0251 -0.8356 -0.8253
26874SOL     OW87226   0.345   4.873   0.139  0.3468 -0.6316 -0.1019
26874SOL    HW187227   0.427   4.836   0.171 -0.1795 -1.3565  0.4209
26874SOL    HW287228   0.279   4.808   0.161 -0.4992  0.3415  0.2577
26875SOL     OW87229  10.691   1.240   5.048 -0.4969 -0.1345 -0.8865
26875SOL    HW187230  10.631   1.313   5.032  1.1055  1.5223  0.2117
26875SOL    HW287231  10.650   1.165   5.005 -2.2040  1.4053 -2.0997
26876SOL     OW87232  10.506   4.329   2.336 -0.8288  0.5266  0.3035
26876SOL    HW187233  10.488   4.240   2.307 -0.0567  1.1543 -2.3939
26876SOL    HW287234  10.433   4.381   2.302  0.4956  1.4163 -1.3220
26877SOL     OW87235   2.442   4.328  11.996  0.3819  0.0749 -0.1264
26877SOL    HW187236   2.427   4.346  11.904 -2.7422 -0.0747  0.2417
26877SOL    HW287237   2.393   4.396  12.043  0.8187 -0.6119  1.4067
26878SOL     OW87238  10.805   2.528   4.455 -0.3891  0.2888  0.2207
26878SOL    HW187239  10.808   2.623   4.467 -0.8383  0.5582 -1.5980
26878SOL    HW287240  10.712   2.507   4.452 -0.2885 -0.0751 -0.3646
26879SOL     OW87241   2.915  11.681   4.644 -0.2130 -0.2864 -0.6328
26879SOL    HW187242   2.929  11.762   4.596 -0.1766  0.1074  0.0479
26879SOL    HW287243   2.975  11.618   4.603 -1.2093 -0.3522 -2.0690
26880SOL     OW87244   7.826   1.425   2.150  0.1875  0.1238 -0.0931
26880SOL    HW187245   7.776   1.373   2.213  0.6499 -0.4346 -0.1871
26880SOL    HW287246   7.820   1.515   2.184 -1.0385  0.1102 -0.2038
26881SOL     OW87247   5.500   6.645   4.195 -0.0917  0.7876  0.2741
26881SOL    HW187248   5.584   6.601   4.180 -1.1427 -0.6595 -1.8221
26881SOL    HW287249   5.439   6.574   4.212 -1.4557  1.5454 -1.2156
26882SOL     OW87250  11.113   6.656  10.830 -0.2084 -0.4698 -0.2581
26882SOL    HW187251  11.149   6.732  10.876  0.8869 -0.2909 -1.3486
26882SOL    HW287252  11.018   6.669  10.833 -0.2982 -1.2034  3.1095
26883SOL     OW87253   5.194   7.977   8.163  0.1449  0.0641  0.0796
26883SOL    HW187254   5.215   8.065   8.131 -0.8058 -0.3351 -1.8131
26883SOL    HW287255   5.278   7.931   8.162  0.2148  0.1597 -1.6849
26884SOL     OW87256   5.983   9.009   6.774  0.5756  0.5389 -0.4311
26884SOL    HW187257   6.027   8.992   6.691  0.0946 -0.9583 -0.4051
26884SOL    HW287258   6.026   9.087   6.808  2.1468  0.0171 -1.1369
26885SOL     OW87259   6.931   3.578   4.329  0.2421  0.3190  0.0334
26885SOL    HW187260   6.838   3.564   4.345  0.7777 -3.6910  0.6602
26885SOL    HW287261   6.968   3.598   4.415  0.0749  1.2589 -0.1068
26886SOL     OW87262   2.390  10.853  10.453 -0.0629 -0.4194  0.4106
26886SOL    HW187263   2.316  10.834  10.396 -0.2141  1.2455 -0.0040
26886SOL    HW287264   2.361  10.829  10.541 -1.3296  0.7481  0.3376
26887SOL     OW87265   3.176   0.898   4.567 -0.2730 -0.4989 -0.4125
26887SOL    HW187266   3.224   0.869   4.645  1.4743  1.5262 -0.6535
26887SOL    HW287267   3.137   0.982   4.593 -1.9806 -1.0951 -0.9051
26888SOL     OW87268   0.144  10.173   9.075 -0.6152 -0.1025  0.2614
26888SOL    HW187269   0.135  10.101   9.012 -0.5231 -0.1074  0.2527
26888SOL    HW287270   0.086  10.242   9.042 -0.7163 -0.1791  0.2787
26889SOL     OW87271   4.312  10.399   4.610 -0.0256 -0.1199  0.6335
26889SOL    HW187272   4.331  10.385   4.702 -1.0838  1.0610  1.0517
26889SOL    HW287273   4.277  10.316   4.579 -0.0717 -0.3867  1.4022
26890SOL     OW87274   5.288   1.479   7.309 -0.1017 -0.6347 -0.4792
26890SOL    HW187275   5.214   1.419   7.318 -0.6010 -0.2585 -1.8272
26890SOL    HW287276   5.350   1.432   7.253 -0.2250 -0.1567 -1.0284
26891SOL     OW87277  10.720   8.588   7.360 -0.3538 -0.3808 -0.3144
26891SOL    HW187278  10.637   8.598   7.407  0.5593 -1.0792  1.5470
26891SOL    HW287279  10.738   8.494   7.362  1.4777 -0.0606  1.1988
26892SOL     OW87280  12.020   7.255   8.139  0.0926  0.4227  0.1475
26892SOL    HW187281  11.985   7.334   8.181  0.0901  1.0337 -0.9663
26892SOL    HW287282  12.002   7.268   8.046  0.7319 -0.5741 -0.1234
26893SOL     OW87283   4.133  10.396   5.019 -0.7035 -0.0598  0.6377
26893SOL    HW187284   4.196  10.450   5.066 -0.5521 -0.4140  0.8463
26893SOL    HW287285   4.186  10.336   4.968 -0.8340  1.1452 -1.0076
26894SOL     OW87286  10.438   6.767   4.076 -0.0627 -0.4360  0.2826
26894SOL    HW187287  10.393   6.830   4.019  1.1064 -1.2547 -1.6375
26894SOL    HW287288  10.379   6.757   4.151 -1.2235  1.4020 -0.3042
26895SOL     OW87289  12.770   7.330   1.693 -0.4700 -0.3122  0.1048
26895SOL    HW187290  12.834   7.273   1.651  0.4250  0.2792  0.6463
26895SOL    HW287291  12.760   7.295   1.781 -0.0510  0.2567  0.3808
26896SOL     OW87292   5.931  12.100   4.215 -0.0527  0.1488  0.0384
26896SOL    HW187293   5.926  12.188   4.251 -1.0183  0.2927 -0.4172
26896SOL    HW287294   6.011  12.063   4.253  0.6660  1.4087 -0.1998
26897SOL     OW87295   6.924  11.189  10.741 -0.2122  0.7727  0.4815
26897SOL    HW187296   6.889  11.100  10.739 -0.6213  0.9058  1.2460
26897SOL    HW287297   6.846  11.245  10.743  0.0455  1.1255  0.6898
26898SOL     OW87298   8.238  12.136   8.585 -0.2149 -0.6436 -0.8062
26898SOL    HW187299   8.329  12.135   8.555  0.0625  0.0573 -0.0167
26898SOL    HW287300   8.216  12.228   8.593  0.0637 -0.7345  2.0880
26899SOL     OW87301   4.076   8.957  12.614  0.5065 -0.3924  0.7204
26899SOL    HW187302   4.138   8.883  12.616 -0.1218 -0.9642 -0.3834
26899SOL    HW287303   3.998   8.923  12.657  0.0917 -0.4825 -0.1076
26900SOL     OW87304   8.463   0.394   9.734  0.4236 -0.1529 -0.1478
26900SOL    HW187305   8.469   0.483   9.767 -0.3465 -0.3128  0.4385
26900SOL    HW287306   8.385   0.358   9.775  0.1406 -0.7620 -1.1792
26901SOL     OW87307   7.480   3.279   1.623  0.3659 -0.3988  0.2538
26901SOL    HW187308   7.428   3.220   1.678  1.1025 -1.6535 -0.3595
26901SOL    HW287309   7.480   3.238   1.537  2.0139 -0.2242  0.1353
26902SOL     OW87310   8.040   1.357   9.716  0.2354  0.0135  0.3264
26902SOL    HW187311   8.113   1.295   9.714  1.5752  1.3951  2.4279
26902SOL    HW287312   7.971   1.311   9.764  0.8229 -0.2548  0.9364
26903SOL     OW87313   1.204   4.447   1.935  0.4080  0.2592  0.5361
26903SOL    HW187314   1.211   4.531   1.889 -1.1771 -0.3448 -0.9063
26903SOL    HW287315   1.121   4.452   1.982  0.1829 -0.5896  0.2411
26904SOL     OW87316   9.648  11.118   9.868 -0.1984 -0.0162 -0.3751
26904SOL    HW187317   9.632  11.212   9.867 -1.6734 -0.1433  2.1132
26904SOL    HW287318   9.567  11.080   9.903  1.2205 -1.9801  1.0393
26905SOL     OW87319   6.558  12.214   3.635  0.0557 -0.3150 -0.5110
26905SOL    HW187320   6.548  12.267   3.556 -0.4682 -0.2283 -0.3916
26905SOL    HW287321   6.483  12.154   3.634 -0.2487  0.0416  0.1861
26906SOL     OW87322   6.916   7.496   6.533 -0.1864  0.6820  0.7925
26906SOL    HW187323   6.870   7.578   6.515 -0.7515  0.1927 -0.0963
26906SOL    HW287324   6.994   7.500   6.478  1.2247  1.8023  2.7957
26907SOL     OW87325   2.268  11.223  10.982 -0.5554  0.6582 -0.4993
26907SOL    HW187326   2.233  11.141  10.948 -0.5408  0.4561 -0.0222
26907SOL    HW287327   2.363  11.212  10.981 -0.4369  1.4344 -2.3826
26908SOL     OW87328   4.994   9.423   0.733  0.0829  0.3483 -0.4111
26908SOL    HW187329   5.030   9.510   0.743 -1.4466  0.8400  1.5491
26908SOL    HW287330   4.905   9.429   0.769 -0.1966 -1.9280 -0.5155
26909SOL     OW87331   6.501   1.793   8.335  0.1451 -0.1493  0.7470
26909SOL    HW187332   6.458   1.864   8.382 -0.9867 -0.0442 -0.4060
26909SOL    HW287333   6.555   1.838   8.270 -0.0299 -0.3297  0.4772
26910SOL     OW87334   6.665   7.282   7.869 -0.0629 -0.2823 -0.0205
26910SOL    HW187335   6.682   7.280   7.963  0.1876  0.3786 -0.0479
26910SOL    HW287336   6.732   7.339   7.833 -0.5944  0.0572 -0.5030
26911SOL     OW87337   8.104  10.554   1.018  0.6928  0.6215  0.6123
26911SOL    HW187338   8.138  10.468   0.997 -0.5932  0.0757  0.6556
26911SOL    HW287339   8.168  10.615   0.982  0.9256 -0.3370 -0.6820
26912SOL     OW87340  11.118   3.228   4.984 -0.3875  0.2729  0.2256
26912SOL    HW187341  11.154   3.301   4.933 -0.0500  0.2010  0.3556
26912SOL    HW287342  11.194   3.171   5.001 -0.6762 -0.2001 -0.0310
26913SOL     OW87343   5.067   2.827   2.729  0.8971 -0.5572  0.0979
26913SOL    HW187344   5.059   2.731   2.725 -1.1387 -0.4482  0.5189
26913SOL    HW287345   4.984   2.859   2.694  1.1851  1.0382  0.8140
26914SOL     OW87346   3.461   8.782   1.852  0.0862 -0.4176  0.2114
26914SOL    HW187347   3.407   8.706   1.874  0.3914 -0.8820 -0.6099
26914SOL    HW287348   3.437   8.804   1.762  0.9872 -0.4025 -0.0414
26915SOL     OW87349   6.616   9.242   7.152  0.3633 -0.7099 -0.0680
26915SOL    HW187350   6.702   9.263   7.188 -0.4962  0.7720  1.2319
26915SOL    HW287351   6.612   9.293   7.071  0.5141 -0.3564  0.1432
26916SOL     OW87352  10.323  12.074   9.411 -0.4349 -0.0176  0.0371
26916SOL    HW187353  10.249  12.014   9.421 -0.1146 -0.2810  0.9544
26916SOL    HW287354  10.360  12.080   9.499 -1.1730  2.4631  0.2553
26917SOL     OW87355   8.442   6.678  10.832  0.1621  0.1422 -0.1590
26917SOL    HW187356   8.447   6.646  10.922  2.8388  1.9214  0.4258
26917SOL    HW287357   8.404   6.765  10.839  1.8215  0.9232 -0.5135
26918SOL     OW87358  10.593  12.535   2.298 -0.4638  0.0384  0.2061
26918SOL    HW187359  10.604  12.448   2.259  0.1084  0.1032  0.2104
26918SOL    HW287360  10.539  12.583   2.235 -0.4600 -0.2051  0.0168
26919SOL     OW87361  10.691   4.452  12.237 -0.3693  0.8444  0.2563
26919SOL    HW187362  10.684   4.399  12.157 -1.0686  0.5151  0.5315
26919SOL    HW287363  10.680   4.542  12.207  0.6365  0.8295 -0.1907
26920SOL     OW87364   2.025   7.129   8.754 -0.2725 -0.4049  0.5798
26920SOL    HW187365   2.019   7.047   8.802 -0.0838 -0.1036  1.1320
26920SOL    HW287366   1.942   7.136   8.707 -0.5936 -0.5476  1.1234
26921SOL     OW87367   3.852   3.777  12.043 -0.1528 -0.5763 -0.0341
26921SOL    HW187368   3.801   3.842  12.092 -0.9918 -1.9311  0.9830
26921SOL    HW287369   3.943   3.806  12.054 -0.5175  0.5708  0.1561
26922SOL     OW87370   5.483   5.273   3.555 -0.1318  0.0169  0.7194
26922SOL    HW187371   5.489   5.189   3.601 -0.4981  0.3906  1.4716
26922SOL    HW287372   5.564   5.319   3.579  0.7529 -0.6624 -0.8352
26923SOL     OW87373   1.819   5.845   0.307 -0.1603  0.4350 -0.3969
26923SOL    HW187374   1.879   5.873   0.376 -0.5888 -1.5791  0.8432
26923SOL    HW287375   1.734   5.880   0.333 -0.1341  0.5706 -0.4877
26924SOL     OW87376  10.730   6.423   1.250  0.1189  0.0950 -0.1387
26924SOL    HW187377  10.767   6.439   1.163  1.3739 -0.0061  0.3617
26924SOL    HW287378  10.667   6.352   1.236 -0.5867  0.8954 -1.1687
26925SOL     OW87379   5.441   7.928   9.598  0.2333  0.1657  0.4924
26925SOL    HW187380   5.446   7.980   9.678 -0.1188  0.1514  0.5239
26925SOL    HW287381   5.493   7.850   9.617  1.1219  0.6982  0.2929
26926SOL     OW87382   3.082   8.735   8.174  0.3276 -0.7365 -0.5350
26926SOL    HW187383   3.112   8.802   8.113 -0.6989 -0.0948 -0.3528
26926SOL    HW287384   3.055   8.662   8.119  0.8384 -0.7614 -0.7612
26927SOL     OW87385   1.299   9.377  10.350 -0.6435 -0.3544 -0.3079
26927SOL    HW187386   1.299   9.443  10.419  2.0189  1.1581 -1.6311
26927SOL    HW287387   1.210   9.381  10.313 -1.1478  1.0318  0.9565
26928SOL     OW87388   3.762   7.407   7.033 -0.2837  0.3372 -0.1757
26928SOL    HW187389   3.707   7.329   7.022 -1.9990  1.1827  1.7904
26928SOL    HW287390   3.776   7.439   6.944  0.5735 -2.2280 -1.0670
26929SOL     OW87391   7.479   9.731   6.762  0.2086 -0.1999 -0.4182
26929SOL    HW187392   7.496   9.795   6.832  2.8416  0.9763 -1.9605
26929SOL    HW287393   7.427   9.779   6.697 -0.9086 -0.8105 -0.0026
26930SOL     OW87394   1.061   3.395   4.897  0.0184  0.1027  0.0196
26930SOL    HW187395   1.019   3.440   4.970  0.1939  1.0751 -0.4578
26930SOL    HW287396   1.150   3.379   4.926 -0.0116  0.1741  0.1517
26931SOL     OW87397   7.700   4.726   2.491 -0.0726  0.3823  0.3450
26931SOL    HW187398   7.715   4.646   2.442 -0.2786 -0.7093  1.9854
26931SOL    HW287399   7.749   4.793   2.444 -0.7637 -0.4612 -1.6675
26932SOL     OW87400   6.080   6.485   1.981  0.2639  0.1788  0.7355
26932SOL    HW187401   6.156   6.493   2.039  0.7870  0.7884 -0.0173
26932SOL    HW287402   6.038   6.403   2.007  1.0485 -0.0487  1.3088
26933SOL     OW87403  10.457   1.223   3.507  0.1254 -0.0339 -0.3096
26933SOL    HW187404  10.446   1.279   3.430 -0.1189 -0.1453 -0.3595
26933SOL    HW287405  10.387   1.157   3.498  0.6671 -0.6011 -0.4806
26934SOL     OW87406   0.094   8.540   4.284 -0.4812  0.0545 -0.4976
26934SOL    HW187407   0.088   8.635   4.276  0.8103  0.5330  2.6331
26934SOL    HW287408   0.013   8.507   4.245 -0.5887  2.3076 -2.4340
26935SOL     OW87409   9.286   9.299   1.404  0.8134  0.3503 -0.0750
26935SOL    HW187410   9.267   9.225   1.346  1.3095  0.6893 -0.6950
26935SOL    HW287411   9.358   9.268   1.459 -0.1603 -0.2352  0.8934
26936SOL     OW87412   8.092   0.655   2.537  0.0660 -0.0530 -0.0320
26936SOL    HW187413   8.000   0.631   2.523  0.9930 -2.2769 -3.6353
26936SOL    HW287414   8.111   0.719   2.468  1.8164 -1.6241 -1.0847
26937SOL     OW87415   9.364   8.067   6.492  0.2297 -0.0239 -0.1088
26937SOL    HW187416   9.408   8.002   6.437 -0.0311 -1.1912  1.0062
26937SOL    HW287417   9.293   8.101   6.437  1.4060  0.5981 -1.3074
26938SOL     OW87418   5.611   8.843   5.735 -0.5349  0.0814 -0.0672
26938SOL    HW187419   5.588   8.933   5.758 -0.7007  0.0396 -0.0698
26938SOL    HW287420   5.591   8.836   5.641 -1.0385 -0.1222  0.0560
26939SOL     OW87421   7.702   8.474   3.200 -0.0659  0.2754  0.9576
26939SOL    HW187422   7.736   8.385   3.209  0.3655  0.2100 -0.9096
26939SOL    HW287423   7.643   8.485   3.275 -0.8113 -1.8891  0.7546
26940SOL     OW87424   9.242   3.627  12.121  0.4908 -0.5595 -0.5011
26940SOL    HW187425   9.309   3.562  12.096  1.0910 -1.2978  2.5932
26940SOL    HW287426   9.172   3.575  12.160 -0.6589  0.4545 -1.1300
26941SOL     OW87427   7.200  12.717   2.171  0.1731  0.7595 -0.3821
26941SOL    HW187428   7.281  12.668   2.175 -0.3382 -0.0906 -0.2481
26941SOL    HW287429   7.132  12.655   2.199 -0.7704  0.9094 -2.1934
26942SOL     OW87430  11.290   4.241  12.256 -0.7085 -0.0651 -0.1307
26942SOL    HW187431  11.341   4.198  12.188  0.3098  2.3657 -1.0072
26942SOL    HW287432  11.325   4.204  12.338 -0.5999 -1.5968 -0.8213
26943SOL     OW87433  12.575   0.008   3.988  0.0485  0.1273 -0.0643
26943SOL    HW187434  12.492  -0.028   4.018  0.4958  0.3478  1.5512
26943SOL    HW287435  12.624  -0.069   3.957 -0.2408 -0.2011  0.2736
26944SOL     OW87436   6.323   2.955   8.621 -0.0271 -0.2253 -0.4618
26944SOL    HW187437   6.391   2.961   8.554 -0.1162  0.5637 -0.4897
26944SOL    HW287438   6.290   3.044   8.630  0.5744 -0.1381  1.2680
26945SOL     OW87439   3.988   8.138   5.865 -0.4348 -0.2576 -0.0103
26945SOL    HW187440   4.044   8.172   5.795 -2.2743 -0.2141 -1.5415
26945SOL    HW287441   3.957   8.054   5.831  2.0452 -2.4632  2.6449
26946SOL     OW87442   3.602   5.980   8.234  0.0873 -0.6470 -0.2298
26946SOL    HW187443   3.627   5.906   8.180  0.1474 -2.6042  2.2716
26946SOL    HW287444   3.597   5.944   8.323  0.5241  2.4438  1.1834
26947SOL     OW87445   0.218   0.808   9.640  0.5139 -0.1387  0.0143
26947SOL    HW187446   0.126   0.817   9.612  0.0434 -2.2182  0.7617
26947SOL    HW287447   0.250   0.731   9.593  1.7112  0.1869  0.2672
26948SOL     OW87448   8.940   0.999   3.539 -0.2065 -0.5145  0.1284
26948SOL    HW187449   8.850   0.972   3.556  0.2661 -1.6866  0.8936
26948SOL    HW287450   8.933   1.064   3.469 -1.5523 -1.4420 -0.6545
26949SOL     OW87451   1.170   2.618   2.380 -0.7582  0.1290  0.3418
26949SOL    HW187452   1.169   2.576   2.294 -1.1744  0.8812 -0.0311
26949SOL    HW287453   1.078   2.615   2.409 -0.7728  0.6594  0.3643
26950SOL     OW87454   4.613   6.813   1.158  0.4412 -0.0310 -0.3832
26950SOL    HW187455   4.619   6.893   1.211  0.6523  1.8120 -2.9783
26950SOL    HW287456   4.703   6.791   1.137  0.3471 -0.5688 -0.2277
26951SOL     OW87457  12.291   8.946   6.675 -0.6122  0.4788  1.1229
26951SOL    HW187458  12.228   8.925   6.743 -0.9980 -1.0017  0.3505
26951SOL    HW287459  12.358   8.879   6.682 -0.0082  1.0353  0.8320
26952SOL     OW87460   1.653   0.922   6.952 -0.0897 -0.5389 -0.0037
26952SOL    HW187461   1.564   0.926   6.986 -0.3167  0.7111 -0.7079
26952SOL    HW287462   1.681   0.832   6.969 -0.8650 -0.4872  1.7724
26953SOL     OW87463   6.962  10.180   0.253 -0.7837  0.3074 -0.2424
26953SOL    HW187464   6.987  10.110   0.313 -0.7743  0.6044  0.1047
26953SOL    HW287465   7.028  10.177   0.184  0.3093  1.1652  0.7246
26954SOL     OW87466   3.854   9.052   5.659  0.0941 -0.2517  0.4843
26954SOL    HW187467   3.789   9.067   5.727  0.2673  1.2439  0.3697
26954SOL    HW287468   3.806   9.063   5.577  0.3141  0.0707  0.3952
26955SOL     OW87469   3.499   2.909   5.032  0.4367 -0.1581 -0.2591
26955SOL    HW187470   3.405   2.900   5.052  0.4885  0.4006  0.2695
26955SOL    HW287471   3.528   2.981   5.088  1.3077 -0.6867 -0.0172
26956SOL     OW87472   9.149   1.627   0.955  0.0997 -0.2716 -0.1338
26956SOL    HW187473   9.095   1.706   0.953  1.9820  1.0787  0.4015
26956SOL    HW287474   9.182   1.622   1.045  0.0190 -1.6970 -0.1530
26957SOL     OW87475  10.778   1.522   9.745 -0.1731  0.1928  0.4215
26957SOL    HW187476  10.737   1.608   9.736 -0.2900  0.0848 -0.1527
26957SOL    HW287477  10.868   1.535   9.718 -0.2281  0.1053  0.1951
26958SOL     OW87478   8.018  12.227   7.856 -0.2383  0.4234 -0.0054
26958SOL    HW187479   8.058  12.281   7.923  0.9704 -0.2513 -0.1534
26958SOL    HW287480   7.925  12.246   7.861 -0.8462 -2.3785  4.4902
26959SOL     OW87481  10.757  11.480   5.649  0.1442 -0.4014 -0.1914
26959SOL    HW187482  10.836  11.439   5.614 -0.5851  0.1830 -2.7020
26959SOL    HW287483  10.779  11.572   5.656  0.4087 -0.5592  1.3960
26960SOL     OW87484   0.881  10.482   4.146  0.1964 -0.2284  0.2960
26960SOL    HW187485   0.926  10.402   4.171  2.4830  0.8405 -0.1606
26960SOL    HW287486   0.899  10.492   4.053 -1.9654 -0.2850 -0.1971
26961SOL     OW87487   1.898  12.723   1.695 -0.3072 -0.6152  0.2742
26961SOL    HW187488   1.856  12.801   1.732 -0.6723 -1.0308  0.7565
26961SOL    HW287489   1.854  12.709   1.612  0.7593  0.5338 -0.5215
26962SOL     OW87490   7.291  11.982   1.302  0.3654 -0.6735 -0.4224
26962SOL    HW187491   7.383  11.957   1.308  0.2939 -0.6008  2.7381
26962SOL    HW287492   7.260  11.940   1.222  3.0550 -0.8796 -1.4666
26963SOL     OW87493   1.080  10.336   7.158 -0.4522  0.6015 -0.2256
26963SOL    HW187494   1.033  10.253   7.166  2.6717 -1.2534  0.7878
26963SOL    HW287495   1.101  10.361   7.248  1.5288  0.6081 -0.6299
26964SOL     OW87496   0.666   9.017   6.235 -0.5095 -0.1488 -0.3255
26964SOL    HW187497   0.579   8.977   6.230 -0.5092 -0.2755  0.4795
26964SOL    HW287498   0.726   8.943   6.229 -0.4409 -0.0189 -1.3177
26965SOL     OW87499   1.630   3.190  11.512 -0.0742 -0.1846 -0.2752
26965SOL    HW187500   1.546   3.232  11.532 -0.1326 -1.1645  1.8027
26965SOL    HW287501   1.672   3.248  11.449 -1.3789  1.4636  0.3146
26966SOL     OW87502   4.628   3.881   2.864  0.0308  0.0278  0.0148
26966SOL    HW187503   4.553   3.847   2.915  0.3739 -0.8124 -0.0225
26966SOL    HW287504   4.589   3.912   2.782 -0.3241 -0.0654  0.1453
26967SOL     OW87505   9.391   2.017   0.573 -0.1433 -0.1922  0.8094
26967SOL    HW187506   9.464   2.027   0.512  0.3055  1.3133  1.5500
26967SOL    HW287507   9.314   2.040   0.522  0.0403 -0.4683  0.4003
26968SOL     OW87508   4.784   7.773   3.914  0.0469  0.0735 -0.2774
26968SOL    HW187509   4.743   7.736   3.992  1.1245  0.1808  0.3556
26968SOL    HW287510   4.777   7.704   3.848 -1.1063  0.0783 -0.1837
26969SOL     OW87511   9.923   9.339   1.357 -0.3301 -0.3555 -0.4409
26969SOL    HW187512   9.885   9.252   1.364  1.0002 -0.9801 -0.5298
26969SOL    HW287513   9.865   9.386   1.297 -1.3313 -1.0158 -0.0102
26970SOL     OW87514   4.476   1.617   2.627 -0.1910 -0.0517 -0.0858
26970SOL    HW187515   4.504   1.541   2.678 -2.5838 -1.2945 -0.4867
26970SOL    HW287516   4.435   1.675   2.691  1.6818  1.0183  0.2296
26971SOL     OW87517  11.085   0.758   7.295 -0.1265 -0.8246 -0.2699
26971SOL    HW187518  11.012   0.718   7.342 -0.0221 -1.5448 -0.7129
26971SOL    HW287519  11.060   0.754   7.203 -0.1424  0.1973 -0.3228
26972SOL     OW87520  10.717   0.828   8.497  0.2252  0.2417 -0.2682
26972SOL    HW187521  10.783   0.835   8.565  0.0160  0.1682 -0.0542
26972SOL    HW287522  10.746   0.888   8.429  1.1771 -0.7166 -0.7378
26973SOL     OW87523   1.037   5.804   8.339  0.5722  0.1035 -0.0900
26973SOL    HW187524   1.028   5.885   8.390  4.0035  0.4856  0.1096
26973SOL    HW287525   1.096   5.749   8.391  0.2623 -1.5429 -1.3940
26974SOL     OW87526   9.229   0.552   5.721 -0.1017 -0.1597  0.2396
26974SOL    HW187527   9.317   0.566   5.688  0.5795 -0.7702  1.7223
26974SOL    HW287528   9.227   0.597   5.806 -1.4300  0.3822 -0.0398
26975SOL     OW87529   0.772  10.820  11.553  0.0950 -0.0898 -0.2950
26975SOL    HW187530   0.776  10.751  11.619  2.1098 -0.1946 -0.4639
26975SOL    HW287531   0.757  10.900  11.604 -0.7399 -0.4536  0.0437
26976SOL     OW87532  12.750   5.462   7.027 -0.4419  0.1811 -0.1296
26976SOL    HW187533  12.754   5.461   7.123 -0.0484 -1.9471 -0.1046
26976SOL    HW287534  12.841   5.458   6.999 -0.5879 -1.7582 -0.4920
26977SOL     OW87535   4.709   3.350   0.241  0.1704  0.2341 -0.3955
26977SOL    HW187536   4.712   3.441   0.213 -0.4647  0.3860  0.0045
26977SOL    HW287537   4.615   3.332   0.253  0.3142 -0.3704 -0.1614
26978SOL     OW87538   3.788   0.399   3.589 -0.8540  0.1213 -0.4089
26978SOL    HW187539   3.817   0.308   3.595 -1.5465 -0.0290  0.9892
26978SOL    HW287540   3.727   0.399   3.515 -1.5019 -0.7502  0.0998
26979SOL     OW87541   6.920   6.816  11.312 -0.4766 -0.5808 -0.1789
26979SOL    HW187542   6.897   6.869  11.389  0.5332  2.3968 -1.7535
26979SOL    HW287543   7.015   6.809  11.316 -0.0684  2.0446 -2.4453
26980SOL     OW87544  10.605   0.787  10.718 -0.2800  0.5200 -0.0766
26980SOL    HW187545  10.602   0.697  10.751 -0.2771 -0.1599 -1.7953
26980SOL    HW287546  10.653   0.780  10.635  1.0223  2.3654  0.4700
26981SOL     OW87547   8.242   4.147  11.029  0.2136  0.2472  0.0762
26981SOL    HW187548   8.177   4.082  11.002  0.8608  0.2219 -1.5481
26981SOL    HW287549   8.280   4.178  10.947  0.6854  1.9001  0.8768
26982SOL     OW87550  11.794   0.855   9.782  0.0731 -0.2980 -0.0882
26982SOL    HW187551  11.783   0.863   9.877  1.2884  1.7787 -0.0415
26982SOL    HW287552  11.889   0.843   9.770  0.3150  2.0811 -1.0873
26983SOL     OW87553   7.659   7.856   3.711  0.3914 -0.2784  0.6657
26983SOL    HW187554   7.711   7.933   3.734  0.3533 -0.3164  0.8841
26983SOL    HW287555   7.643   7.864   3.617 -1.5585  1.1804  1.0678
26984SOL     OW87556   7.209   2.120   8.959  0.4757 -0.0453  0.1404
26984SOL    HW187557   7.260   2.171   8.895 -0.5493 -0.6111 -1.1665
26984SOL    HW287558   7.139   2.179   8.986  0.7311  0.0849  0.5357
26985SOL     OW87559   9.772  12.237   5.091  0.5160 -0.1156 -0.2350
26985SOL    HW187560   9.771  12.302   5.021  2.9715  0.1630 -0.0801
26985SOL    HW287561   9.734  12.158   5.051 -2.1594  1.1996 -0.5311
26986SOL     OW87562   6.020   6.918   7.953  0.5242  0.1313 -0.0158
26986SOL    HW187563   5.941   6.951   7.910  0.1327 -0.6778  0.0627
26986SOL    HW287564   6.022   6.963   8.037 -0.3159 -0.4566  0.3306
26987SOL     OW87565   4.703  10.325  10.860 -0.0312  0.3499  0.0015
26987SOL    HW187566   4.794  10.311  10.886 -0.1230 -0.9210 -0.2939
26987SOL    HW287567   4.709  10.383  10.784  0.5829 -0.1559 -0.3502
26988SOL     OW87568   5.172   3.817  12.643  0.4683  0.5795 -0.3759
26988SOL    HW187569   5.094   3.866  12.618 -0.5881 -0.1996  1.2276
26988SOL    HW287570   5.230   3.824  12.567 -1.8011 -0.2491 -2.3037
26989SOL     OW87571   2.362   4.455   3.792 -0.0661  0.0804 -0.0955
26989SOL    HW187572   2.288   4.412   3.748 -1.1514  1.8818 -0.0912
26989SOL    HW287573   2.387   4.394   3.862 -0.7698 -1.0790 -0.8137
26990SOL     OW87574   5.997   0.075   2.620  0.1996  0.8986 -0.0130
26990SOL    HW187575   5.908   0.105   2.601 -0.2617 -0.2229  0.3624
26990SOL    HW287576   6.002  -0.013   2.582 -0.0209 -0.5194  3.0234
26991SOL     OW87577   7.131  11.377   8.035  0.0338 -0.3707  0.1186
26991SOL    HW187578   7.087  11.403   8.116  0.3992 -0.2242  0.2714
26991SOL    HW287579   7.153  11.460   7.992  0.0617 -0.4447 -0.0105
26992SOL     OW87580   7.446   0.981  12.706  0.1366  0.4268  0.0116
26992SOL    HW187581   7.521   0.944  12.660  1.6321  0.7693  2.0056
26992SOL    HW287582   7.449   1.075  12.685  0.1853  0.4124 -0.0436
26993SOL     OW87583   0.662  11.005   4.282 -0.2336  0.4232  0.5768
26993SOL    HW187584   0.730  10.942   4.309 -2.4343 -1.6267  1.7222
26993SOL    HW287585   0.640  10.980   4.193  1.3074  1.9124 -0.2773
26994SOL     OW87586   6.634   2.658   0.467 -0.1281 -0.0201 -0.3425
26994SOL    HW187587   6.546   2.684   0.496 -0.1390  0.8106 -1.0790
26994SOL    HW287588   6.679   2.631   0.547 -0.4926  1.2223  0.3048
26995SOL     OW87589   9.804   5.456   8.099  0.2741  0.0626 -0.2631
26995SOL    HW187590   9.862   5.433   8.171 -0.1382 -0.0091  0.0516
26995SOL    HW287591   9.748   5.526   8.134 -1.8832 -1.9147  0.4815
26996SOL     OW87592   7.169  10.372   0.772  0.0804  0.0153 -0.3323
26996SOL    HW187593   7.248  10.411   0.733  1.2109 -1.0346  0.7977
26996SOL    HW287594   7.097  10.416   0.728  1.2392 -0.7416 -3.3123
26997SOL     OW87595  11.911  12.117   4.590  0.1606 -0.1482 -0.2053
26997SOL    HW187596  11.883  12.201   4.625 -0.7253 -0.5735  0.1264
26997SOL    HW287597  11.841  12.056   4.613 -0.2288 -0.5503 -2.2613
26998SOL     OW87598  12.770   9.473  12.558  0.0863  0.1076 -0.4355
26998SOL    HW187599  12.737   9.386  12.577  0.9685 -0.1988 -0.2406
26998SOL    HW287600  12.808   9.466  12.471 -1.0103  0.6524 -0.9776
26999SOL     OW87601   9.127   5.008   0.804 -0.2142 -0.4822  0.2956
26999SOL    HW187602   9.170   4.935   0.759 -1.3543 -1.1128  0.2093
26999SOL    HW287603   9.130   4.984   0.896  1.6454  0.5652  0.5692
27000SOL     OW87604   4.249   9.394   3.354  0.0563 -0.2148  0.0502
27000SOL    HW187605   4.233   9.378   3.261 -1.3719  0.1049  0.2169
27000SOL    HW287606   4.334   9.355   3.371 -0.0652 -1.0683 -1.1949
27001SOL     OW87607   9.949  12.644   7.666  0.7285  0.2289  0.4987
27001SOL    HW187608   9.953  12.637   7.761  0.6574  2.2918  0.7064
27001SOL    HW287609  10.024  12.594   7.635  1.3920  0.4242  1.7186
27002SOL     OW87610   5.977   4.556   7.916 -0.0707  0.5390 -0.0795
27002SOL    HW187611   5.916   4.562   7.843  0.2147 -1.0486 -0.4916
27002SOL    HW287612   6.061   4.535   7.875 -0.2342 -2.0799  0.7370
27003SOL     OW87613   8.331  12.513   3.100 -0.3675  0.0534  0.6979
27003SOL    HW187614   8.245  12.552   3.117  1.3673  3.4009  3.0947
27003SOL    HW287615   8.357  12.549   3.016 -1.3014 -1.1032 -0.1186
27004SOL     OW87616   8.792   9.503  12.725  0.7841 -0.3278  0.0888
27004SOL    HW187617   8.826   9.586  12.758  1.3689  0.5102 -2.3622
27004SOL    HW287618   8.867   9.444  12.725  0.5367 -0.6621  1.1637
27005SOL     OW87619   6.176  10.823  10.918  0.0098  0.1936  0.3885
27005SOL    HW187620   6.230  10.870  10.854 -0.3110 -1.7046 -1.4043
27005SOL    HW287621   6.222  10.834  11.001  1.5769  1.0674 -0.5360
27006SOL     OW87622   1.121   3.558   1.134  0.2456  0.2205  0.0786
27006SOL    HW187623   1.167   3.618   1.192 -0.2130 -0.2078  0.8984
27006SOL    HW287624   1.126   3.473   1.176 -0.2203 -0.0745 -0.4319
27007SOL     OW87625   0.194   0.797  11.116  0.5122  0.0698  0.2411
27007SOL    HW187626   0.122   0.800  11.053  0.2130  0.3211  0.5937
27007SOL    HW287627   0.180   0.872  11.174 -0.3072 -1.2122  1.7893
27008SOL     OW87628   7.345   9.580   4.627  0.3851  0.1973  0.0499
27008SOL    HW187629   7.372   9.491   4.603 -0.5401 -0.4758  1.4319
27008SOL    HW287630   7.314   9.618   4.544 -1.2873 -1.5322 -0.1721
27009SOL     OW87631   6.786   1.202  12.501 -0.0854  0.5195 -0.5538
27009SOL    HW187632   6.816   1.288  12.531 -1.0972  0.6668  0.1015
27009SOL    HW287633   6.753   1.218  12.413 -0.4616  0.8514 -0.3573
27010SOL     OW87634   4.971   7.526   2.528 -0.3861  0.2861 -0.4644
27010SOL    HW187635   4.983   7.620   2.521  1.7566  0.1137  0.1880
27010SOL    HW287636   4.977   7.508   2.622 -2.6632 -0.3225 -0.3824
27011SOL     OW87637   4.291  10.790   5.622  0.2820  0.4725  0.1411
27011SOL    HW187638   4.286  10.875   5.666  0.1144 -0.6811  2.5124
27011SOL    HW287639   4.202  10.773   5.593  0.2380  0.9240 -0.0009
27012SOL     OW87640   3.531  11.138   8.809 -0.5196  0.0351  0.0072
27012SOL    HW187641   3.579  11.207   8.855 -0.6547 -0.0685  0.3004
27012SOL    HW287642   3.472  11.102   8.875 -2.5847  1.5930 -0.8602
27013SOL     OW87643  11.796   2.204  11.989 -0.3800 -0.2782 -0.2550
27013SOL    HW187644  11.729   2.255  12.034 -0.2757 -1.4442  1.2940
27013SOL    HW287645  11.747   2.133  11.946 -0.2035 -1.0713  0.7944
27014SOL     OW87646   9.859   1.556   0.006 -0.6918 -0.2485  0.3273
27014SOL    HW187647   9.787   1.518   0.056 -0.8461  0.6379  0.8013
27014SOL    HW287648   9.868   1.645   0.041 -0.0898  0.0188 -0.4810
27015SOL     OW87649   6.062  11.103   0.213 -0.2842 -0.0337  0.2922
27015SOL    HW187650   6.153  11.117   0.186 -0.7977  0.6606 -1.1919
27015SOL    HW287651   6.013  11.102   0.131 -1.5838 -0.7320  1.0525
27016SOL     OW87652   0.076   1.577   7.552 -0.1809  0.2231 -0.1462
27016SOL    HW187653   0.108   1.545   7.637  1.3624 -1.7764 -1.3794
27016SOL    HW287654   0.000   1.521   7.533 -0.5851  0.7351 -0.0489
27017SOL     OW87655   5.804   7.466   7.753 -0.1396  0.3220 -0.2968
27017SOL    HW187656   5.718   7.507   7.759 -0.7626 -0.9925  0.0805
27017SOL    HW287657   5.863   7.527   7.798 -1.1354  0.5351  0.7590
27018SOL     OW87658   6.579  11.078   8.592 -0.0023  0.5536  0.3944
27018SOL    HW187659   6.665  11.118   8.602  0.2895  0.0148  0.1087
27018SOL    HW287660   6.552  11.054   8.681 -0.1854  1.3813  0.5671
27019SOL     OW87661   8.675  11.572   8.422  0.3220 -0.1311 -0.6747
27019SOL    HW187662   8.629  11.654   8.436  0.4843 -0.2886  0.8732
27019SOL    HW287663   8.623  11.527   8.354  0.0098  1.0545 -1.2378
27020SOL     OW87664   2.133   4.272  12.430  0.0761 -0.1674 -0.0887
27020SOL    HW187665   2.217   4.299  12.394  0.6926 -0.0095  1.4195
27020SOL    HW287666   2.139   4.177  12.437 -0.6221 -0.3692 -1.7510
27021SOL     OW87667   0.437  10.243   8.198  0.0170  0.3324 -0.1339
27021SOL    HW187668   0.392  10.190   8.132 -1.3785  0.3845  0.7445
27021SOL    HW287669   0.449  10.329   8.155  1.1983 -0.2867 -1.1176
27022SOL     OW87670   2.151   7.046   4.965 -0.2043 -0.0138  0.9912
27022SOL    HW187671   2.157   7.012   4.875 -0.5304  0.3242  0.8375
27022SOL    HW287672   2.164   6.970   5.021 -0.2473 -0.2712  0.6521
27023SOL     OW87673   8.417   8.208   8.960 -0.1545  0.3975  0.0428
27023SOL    HW187674   8.502   8.248   8.982  0.4274 -0.0722 -1.2399
27023SOL    HW287675   8.381   8.264   8.892 -0.0472 -0.3846 -0.6682
27024SOL     OW87676   9.089  11.423   0.001 -0.4028 -0.5213  0.0616
27024SOL    HW187677   9.069  11.506  -0.043  1.1341 -1.2660 -2.2735
27024SOL    HW287678   9.169  11.393  -0.042  0.4471 -2.0459  2.5559
27025SOL     OW87679   7.360   7.988   5.311 -0.3450  0.4255 -0.1084
27025SOL    HW187680   7.342   7.964   5.220  0.7523  0.0101 -0.2315
27025SOL    HW287681   7.423   7.922   5.340 -1.5859 -0.1707  1.3340
27026SOL     OW87682   2.135   4.621   7.717  0.4103 -0.2215 -0.4407
27026SOL    HW187683   2.083   4.552   7.758  0.3738  0.0159 -0.0804
27026SOL    HW287684   2.223   4.584   7.711  0.4051 -0.2738 -0.1915
27027SOL     OW87685  12.409   6.734   2.765  0.1392 -0.0415 -0.6617
27027SOL    HW187686  12.414   6.667   2.833 -1.4079 -0.1402 -0.6026
27027SOL    HW287687  12.491   6.783   2.773  0.0360 -0.0914  1.2363
27028SOL     OW87688   9.168   3.058  12.701 -0.2672  0.6318 -0.1599
27028SOL    HW187689   9.126   2.973  12.712  1.6998 -0.7931 -2.5079
27028SOL    HW287690   9.140   3.087  12.614  1.0035  1.1696 -0.4144
27029SOL     OW87691  12.508   1.763   4.058 -0.2506  0.3044  0.4923
27029SOL    HW187692  12.497   1.749   3.964 -2.2062 -0.0220  0.7269
27029SOL    HW287693  12.537   1.854   4.065 -0.6604  0.5182 -0.4091
27030SOL     OW87694   4.324   2.220   8.155  0.1528  0.1581  0.6352
27030SOL    HW187695   4.275   2.139   8.145 -0.2930  0.3881  0.9284
27030SOL    HW287696   4.414   2.197   8.133 -0.1431 -0.1867 -0.2583
27031SOL     OW87697   0.704  11.493   6.507 -0.6612 -0.0738 -0.1746
27031SOL    HW187698   0.742  11.447   6.432  0.2366  1.0558 -0.4322
27031SOL    HW287699   0.610  11.491   6.490 -0.5729 -0.9891 -0.6502
27032SOL     OW87700  11.395   3.898   5.249 -0.0279  0.7988 -0.4111
27032SOL    HW187701  11.472   3.910   5.195  0.8979  1.1266  0.9421
27032SOL    HW287702  11.358   3.815   5.219  1.1833  0.3340 -0.6795
27033SOL     OW87703   6.542   6.613  12.331  0.1880  0.0928 -0.5570
27033SOL    HW187704   6.563   6.521  12.348  1.4097  0.3158 -0.7974
27033SOL    HW287705   6.597   6.637  12.257  2.0139  1.7867  1.2293
27034SOL     OW87706  12.068   7.778   7.053 -0.3489 -0.2340 -0.5698
27034SOL    HW187707  12.063   7.779   7.149 -0.5190  1.6005 -0.5647
27034SOL    HW287708  12.142   7.721   7.033  1.0215  1.0119  0.7403
27035SOL     OW87709   4.492   5.907   5.930  0.3621  0.3710  0.3287
27035SOL    HW187710   4.571   5.959   5.916 -0.6626  2.0509  0.5282
27035SOL    HW287711   4.459   5.936   6.015 -0.9759  0.4073 -0.1832
27036SOL     OW87712   0.606   5.173   2.595  0.1213 -0.0020 -0.3112
27036SOL    HW187713   0.570   5.257   2.625  0.7352  0.5846 -1.1550
27036SOL    HW287714   0.640   5.192   2.508  2.6409 -0.4669  0.5047
27037SOL     OW87715   0.943  10.829   6.453  0.3086  0.1730 -0.1685
27037SOL    HW187716   0.985  10.744   6.463  2.5428  1.3389  1.1756
27037SOL    HW287717   1.009  10.884   6.410 -1.4587  1.0030 -1.9700
27038SOL     OW87718   1.842   4.892   6.180  0.3470  0.0212  0.3629
27038SOL    HW187719   1.877   4.827   6.241  1.5376  0.5921  0.3049
27038SOL    HW287720   1.837   4.973   6.231  1.4982  0.5395 -0.3169
27039SOL     OW87721   0.108   2.574   6.658  0.7795 -0.3991 -0.5858
27039SOL    HW187722   0.144   2.591   6.746  2.1415  0.7869 -1.3175
27039SOL    HW287723   0.120   2.481   6.645  1.1607 -0.4772  0.2386
27040SOL     OW87724   0.907   1.453   1.849 -0.0569 -0.1595 -0.5176
27040SOL    HW187725   0.898   1.378   1.907 -0.8593 -0.4590 -1.0168
27040SOL    HW287726   0.833   1.447   1.789 -0.0014  0.9019 -0.7164
27041SOL     OW87727  11.755   1.603   5.465 -0.3093 -0.5446 -0.4430
27041SOL    HW187728  11.679   1.549   5.444 -0.3309 -0.5495 -0.3557
27041SOL    HW287729  11.828   1.541   5.473 -0.8556 -0.9582  2.4615
27042SOL     OW87730   8.007   0.183   2.850 -0.1523 -0.0668  0.3176
27042SOL    HW187731   8.100   0.175   2.871 -0.1440 -0.4104  0.1473
27042SOL    HW287732   7.999   0.145   2.763 -0.2567  1.0014 -0.1520
27043SOL     OW87733   4.005   1.036   7.683 -0.4691  0.7088  0.2692
27043SOL    HW187734   4.082   1.091   7.666  0.0723 -0.1575 -0.1387
27043SOL    HW287735   3.978   1.061   7.772  1.0332  0.1566  0.9193
27044SOL     OW87736   0.947   5.273  12.316 -0.1765 -0.4798  0.5373
27044SOL    HW187737   0.997   5.304  12.392 -1.8724  1.2998  1.0397
27044SOL    HW287738   0.909   5.190  12.345 -0.0660 -0.2669  1.3129
27045SOL     OW87739   0.424   3.911   5.673 -0.2437 -0.6105  0.0933
27045SOL    HW187740   0.377   3.831   5.649  0.4883 -1.0649  0.1451
27045SOL    HW287741   0.516   3.889   5.662  0.0256 -0.1546  1.2530
27046SOL     OW87742   0.750   0.177  10.841  0.3390  0.5797  0.4364
27046SOL    HW187743   0.740   0.269  10.818  0.0425  0.2107 -1.0225
27046SOL    HW287744   0.671   0.157  10.892 -1.0366  0.4767 -1.5947
27047SOL     OW87745   0.741   2.802  11.592 -0.0322 -0.3568 -0.3653
27047SOL    HW187746   0.818   2.792  11.647  0.2243 -0.2876 -0.7113
27047SOL    HW287747   0.701   2.884  11.622 -0.6308 -0.9825  0.6151
27048SOL     OW87748   8.532   3.987   5.991  0.4090 -0.1071  0.1932
27048SOL    HW187749   8.496   4.005   5.904 -0.4066  2.3780  0.9569
27048SOL    HW287750   8.594   4.057   6.007  1.2837 -1.0792  1.2455
27049SOL     OW87751   7.875   1.341   8.970 -0.0855  0.7144 -0.1588
27049SOL    HW187752   7.945   1.406   8.966  1.4795 -0.7856  0.9867
27049SOL    HW287753   7.909   1.266   8.921 -0.5008 -0.3476  1.1011
27050SOL     OW87754   2.878   3.984   7.436  0.3694  0.2828 -0.1598
27050SOL    HW187755   2.905   3.973   7.527  2.7407  3.5725 -0.2992
27050SOL    HW287756   2.929   3.919   7.388  1.0704  0.2636  0.5920
27051SOL     OW87757   7.572  11.011   4.301  0.5928  0.0137 -0.3254
27051SOL    HW187758   7.651  10.987   4.349  1.0464  2.7840  0.4750
27051SOL    HW287759   7.500  10.996   4.363  0.7902  0.1145 -0.0731
27052SOL     OW87760  12.618   7.691   7.080 -0.3181 -0.1196  0.3651
27052SOL    HW187761  12.553   7.634   7.120  0.9721 -2.4104 -0.5980
27052SOL    HW287762  12.625   7.661   6.990  1.4082  0.6499  0.1894
27053SOL     OW87763   0.889   5.408  10.308  0.1774 -0.1430 -0.5348
27053SOL    HW187764   0.807   5.397  10.260 -1.8739 -0.0965  2.6260
27053SOL    HW287765   0.902   5.324  10.353 -0.7404  1.1851  2.5066
27054SOL     OW87766  11.755   3.963   9.996 -0.2753 -0.2277  0.0227
27054SOL    HW187767  11.813   3.976  10.072  0.8555  0.6650 -0.9388
27054SOL    HW287768  11.715   4.049   9.982 -0.6941 -0.4606 -0.2188
27055SOL     OW87769   8.579   2.414   6.734 -0.3446  0.1061  0.2695
27055SOL    HW187770   8.621   2.499   6.720 -0.3123  0.0784  0.2018
27055SOL    HW287771   8.486   2.431   6.717 -0.0151 -0.5019 -2.5138
27056SOL     OW87772   0.286   6.012  11.790 -0.2015  0.2641 -0.3354
27056SOL    HW187773   0.306   5.926  11.751  1.9020 -0.2035  1.5295
27056SOL    HW287774   0.307   6.001  11.883 -5.9332  0.9667  1.4381
27057SOL     OW87775  10.983   7.387  12.756 -0.1834  0.6271 -0.2213
27057SOL    HW187776  11.034   7.319  12.799 -2.0821 -1.0694 -0.4945
27057SOL    HW287777  11.013   7.385  12.665 -0.7654 -0.4280 -0.4058
27058SOL     OW87778   3.732   1.483   3.192  0.4016  0.1794  0.1068
27058SOL    HW187779   3.822   1.506   3.170 -0.3280  2.1981 -1.1045
27058SOL    HW287780   3.702   1.557   3.246 -1.0234  0.4004 -0.9461
27059SOL     OW87781  10.148   7.002   8.925  0.0889 -0.8442  0.5930
27059SOL    HW187782  10.160   7.009   8.831 -2.1504  1.5463  0.3342
27059SOL    HW287783  10.236   6.996   8.961  0.9518 -2.7460 -1.6582
27060SOL     OW87784   9.457   5.075   3.204 -0.0924  0.6648 -0.9253
27060SOL    HW187785   9.408   5.042   3.280  2.9231 -0.2200  0.8083
27060SOL    HW287786   9.501   4.998   3.169  1.1126  1.5968 -1.5279
27061SOL     OW87787   4.075   9.572  11.211  0.7156 -0.4058  0.3701
27061SOL    HW187788   4.044   9.662  11.207  0.9957 -0.2768  0.9612
27061SOL    HW287789   4.114   9.556  11.125 -0.7193 -0.4865 -0.2999
27062SOL     OW87790   7.506  12.137  10.624  0.2513 -0.6645  0.1484
27062SOL    HW187791   7.515  12.091  10.541 -0.5216 -0.3571 -0.1129
27062SOL    HW287792   7.506  12.230  10.600 -0.8792 -0.5914  0.3846
27063SOL     OW87793   8.095  12.701   4.084 -0.0231  1.1634 -0.1531
27063SOL    HW187794   8.161  12.646   4.124  2.4949  3.1774 -1.2505
27063SOL    HW287795   8.070  12.655   4.003 -0.5704  0.0337  0.6399
27064SOL     OW87796   7.834   7.971   5.126  0.3330  0.1020 -0.3412
27064SOL    HW187797   7.821   7.958   5.220  0.7400 -0.0783 -0.3086
27064SOL    HW287798   7.817   8.064   5.112 -1.2879 -0.1576 -0.3540
27065SOL     OW87799   9.045   0.473   4.139 -0.6288  0.4791  0.4443
27065SOL    HW187800   9.098   0.551   4.123  0.0237 -0.2920 -1.4180
27065SOL    HW287801   9.098   0.419   4.198 -0.2003  0.5697  0.1461
27066SOL     OW87802  10.513  11.092   1.290 -0.0213  0.6163  0.6605
27066SOL    HW187803  10.427  11.063   1.319 -0.2236 -0.5455 -1.0065
27066SOL    HW287804  10.500  11.184   1.268 -0.8626  0.4387  0.3570
27067SOL     OW87805   6.068   5.048   6.372  0.0955 -0.1031 -0.3660
27067SOL    HW187806   5.995   5.075   6.428  0.0384  0.0998 -0.5360
27067SOL    HW287807   6.124   5.126   6.366 -0.2607  0.0983 -1.1654
27068SOL     OW87808   6.914   4.689   4.703  0.2243  0.7122 -0.0605
27068SOL    HW187809   6.991   4.741   4.727  0.1936  1.6080 -1.7146
27068SOL    HW287810   6.854   4.752   4.663 -1.1003 -0.0985  0.5721
27069SOL     OW87811   7.898  10.351   7.608  0.1391 -0.1080 -0.0456
27069SOL    HW187812   7.838  10.336   7.682  1.0197  1.5022  1.0466
27069SOL    HW287813   7.958  10.418   7.639  0.5858  0.5798 -2.2419
27070SOL     OW87814  10.779  12.670   7.524 -0.4072  0.1213 -0.0796
27070SOL    HW187815  10.857  12.725   7.529  0.7284 -1.5182  1.1665
27070SOL    HW287816  10.732  12.688   7.605 -1.8392  1.6999 -1.1655
27071SOL     OW87817   1.488   7.892   9.878  0.0559 -0.6411 -0.0287
27071SOL    HW187818   1.533   7.930   9.953 -0.9088 -1.6111  1.0598
27071SOL    HW287819   1.410   7.946   9.867 -0.7116 -1.5579  0.7879
27072SOL     OW87820   1.653   9.653   1.897  0.7276 -0.4681  0.6035
27072SOL    HW187821   1.739   9.613   1.915  1.1030  0.3828  0.7178
27072SOL    HW287822   1.618   9.674   1.983  1.0473  0.5085  0.5088
27073SOL     OW87823   0.082   9.418  10.797 -0.3139  0.7043 -0.3034
27073SOL    HW187824   0.145   9.359  10.837 -1.9802 -1.0833 -0.1979
27073SOL    HW287825   0.116   9.435  10.710 -0.8009 -2.1830 -1.1550
27074SOL     OW87826   3.373  12.234   7.625  0.2410 -0.1536 -0.8220
27074SOL    HW187827   3.425  12.194   7.694 -0.1044  2.0294  0.8299
27074SOL    HW287828   3.437  12.264   7.561  0.6234 -1.6018 -1.1372
27075SOL     OW87829   4.536   7.131   1.881  0.5147 -1.1606 -0.3118
27075SOL    HW187830   4.452   7.086   1.869 -0.9153  1.0622  0.6602
27075SOL    HW287831   4.555   7.121   1.974  0.4197 -0.2138 -0.1809
27076SOL     OW87832   6.521   6.178   7.650 -0.0154 -0.0963  0.3813
27076SOL    HW187833   6.455   6.231   7.606  0.5969 -0.1395 -0.6005
27076SOL    HW287834   6.476   6.145   7.728 -1.9912 -2.1532 -1.4882
27077SOL     OW87835   0.074   6.634   5.047  0.6822  0.0176  0.4891
27077SOL    HW187836   0.055   6.600   5.134 -2.9416  0.5005  0.0190
27077SOL    HW287837   0.050   6.563   4.988 -1.9801  1.3996 -0.2485
27078SOL     OW87838   3.311   3.564   7.284 -0.0588  0.0289 -0.2050
27078SOL    HW187839   3.333   3.473   7.306 -2.9826 -0.7745 -0.2386
27078SOL    HW287840   3.298   3.607   7.368  3.0560  1.0145 -0.1058
27079SOL     OW87841   6.772   2.306   8.327  0.0453  0.2739 -0.0299
27079SOL    HW187842   6.738   2.265   8.247 -1.2376 -1.0333  1.1205
27079SOL    HW287843   6.852   2.257   8.346 -1.4682 -1.8840  1.3262
27080SOL     OW87844   5.568   4.901  11.455  0.1068 -0.2348 -0.2203
27080SOL    HW187845   5.531   4.855  11.380  3.5287 -1.2986 -1.4329
27080SOL    HW287846   5.563   4.994  11.430  2.2195 -0.6192 -2.3978
27081SOL     OW87847  12.652   9.029  12.445 -0.2191  0.3334 -0.3087
27081SOL    HW187848  12.585   9.050  12.379 -1.9072 -1.5474  0.6850
27081SOL    HW287849  12.715   8.974  12.398  1.2744  2.8612 -1.4972
27082SOL     OW87850  11.807   0.466   3.079  0.1418  0.5101 -0.5197
27082SOL    HW187851  11.891   0.435   3.114 -0.4232  0.0480  0.4792
27082SOL    HW287852  11.828   0.500   2.992  1.4445  0.8628 -0.0887
27083SOL     OW87853   7.490   8.024   0.234 -0.1329  0.3517 -0.9905
27083SOL    HW187854   7.515   7.932   0.232 -2.1877 -0.3371  0.9083
27083SOL    HW287855   7.559   8.069   0.184  1.7817 -1.9868 -0.6275
27084SOL     OW87856   8.529  11.391   4.161  0.7424 -0.1744  0.0863
27084SOL    HW187857   8.480  11.409   4.081 -3.4820  1.2544  2.7124
27084SOL    HW287858   8.571  11.474   4.183  0.7488 -0.1824  0.1056
27085SOL     OW87859  11.661   2.246   4.516 -0.1126 -0.2971 -0.4303
27085SOL    HW187860  11.615   2.268   4.597  0.5108 -1.1701  0.1704
27085SOL    HW287861  11.749   2.221   4.543 -0.3889 -2.2257 -1.1838
27086SOL     OW87862  11.184  10.734   3.660  0.6206 -0.0917  0.1140
27086SOL    HW187863  11.170  10.747   3.567 -0.8754 -3.4219 -0.2745
27086SOL    HW287864  11.264  10.681   3.666 -1.6997 -3.9816  0.1427
27087SOL     OW87865  10.427   7.128   8.070 -0.3045 -0.2753 -0.1857
27087SOL    HW187866  10.437   7.096   7.980  0.2893  1.2447 -0.6815
27087SOL    HW287867  10.493   7.080   8.119  1.0398  0.6157 -1.0547
27088SOL     OW87868   7.654   6.182   3.527 -0.1118  0.0738  0.0238
27088SOL    HW187869   7.625   6.271   3.507  1.5908  0.3275 -1.5331
27088SOL    HW287870   7.592   6.151   3.594  0.3256  3.0669  2.0099
27089SOL     OW87871   9.165   2.588   9.517 -0.2230 -0.0824  0.3677
27089SOL    HW187872   9.209   2.638   9.448 -0.5857  0.7580  0.7276
27089SOL    HW287873   9.222   2.513   9.533  0.3173  0.1997 -0.2122
27090SOL     OW87874  10.265   8.857   9.797 -0.0918 -0.0840  0.1626
27090SOL    HW187875  10.196   8.850   9.862  0.5365  1.9065  1.1127
27090SOL    HW287876  10.298   8.768   9.788 -0.8343 -0.5719  1.8528
27091SOL     OW87877   2.259  10.489   7.727  0.1340  1.0067  0.1233
27091SOL    HW187878   2.308  10.407   7.731 -1.2665  0.1105 -0.3712
27091SOL    HW287879   2.293  10.541   7.800  0.2156 -0.5127  1.2182
27092SOL     OW87880   5.813  11.823   2.736  0.1551  0.2740 -0.4108
27092SOL    HW187881   5.718  11.835   2.739  0.2137  0.7727 -0.3414
27092SOL    HW287882   5.835  11.829   2.643  0.0464 -0.4879 -0.4908
27093SOL     OW87883   5.523   7.224  12.303 -0.4093  0.6320  0.6850
27093SOL    HW187884   5.479   7.192  12.224 -0.6600  0.9157  0.7089
27093SOL    HW287885   5.472   7.300  12.330 -0.9507 -0.0501  1.7058
27094SOL     OW87886   6.893   0.639   0.680 -1.0692  0.2266  0.3242
27094SOL    HW187887   6.943   0.710   0.640 -0.8069  0.4366  0.9927
27094SOL    HW287888   6.906   0.564   0.622 -0.8484  0.5644 -0.0683
27095SOL     OW87889   9.822   5.317   7.864  0.1972  0.3090  0.2226
27095SOL    HW187890   9.825   5.348   7.955 -0.2435 -0.7164  0.6023
27095SOL    HW287891   9.731   5.331   7.837  0.5628  1.6028 -0.4472
27096SOL     OW87892   9.456  12.298   8.216 -0.3797  0.0161  0.1191
27096SOL    HW187893   9.421  12.208   8.213 -1.9803  0.6183 -0.2961
27096SOL    HW287894   9.379  12.353   8.233  0.4630  1.3746 -0.3129
27097SOL     OW87895   0.713   3.035  11.715 -0.1290  0.8394 -0.3324
27097SOL    HW187896   0.761   3.110  11.681  0.2524  1.2447  1.0314
27097SOL    HW287897   0.765   3.005  11.789  0.5599 -1.7570 -1.7458
27098SOL     OW87898   1.277   0.112   8.176 -0.5154  0.2689 -0.4246
27098SOL    HW187899   1.282   0.136   8.083 -1.1392 -1.4636 -0.9475
27098SOL    HW287900   1.301   0.020   8.178  0.2694  0.4703  1.2693
27099SOL     OW87901   3.389   8.001  10.605 -0.4239  0.0119  0.0599
27099SOL    HW187902   3.366   8.045  10.523 -0.9028 -2.7416 -1.4176
27099SOL    HW287903   3.345   8.051  10.673  0.1561  2.5220 -1.2871
27100SOL     OW87904   6.175   7.913   1.939  0.8367 -1.1089 -0.5589
27100SOL    HW187905   6.096   7.859   1.941  1.9467 -2.8311 -0.7285
27100SOL    HW287906   6.179   7.947   1.850  0.4696 -1.3062 -0.6511
27101SOL     OW87907   0.982  11.896   0.051 -0.5341  0.0289  0.0154
27101SOL    HW187908   1.019  11.954  -0.016 -1.7329  0.2953 -0.4291
27101SOL    HW287909   1.020  11.810   0.031  1.9651  0.7413  1.2185
27102SOL     OW87910   3.588   1.500   1.088 -0.2466  0.3655 -0.1544
27102SOL    HW187911   3.610   1.451   1.009  0.0875 -1.0017  0.7525
27102SOL    HW287912   3.670   1.502   1.138 -0.8387 -0.1916  0.8723
27103SOL     OW87913   2.225   7.949   1.724 -0.1102 -0.5626 -0.4429
27103SOL    HW187914   2.282   7.878   1.755  0.0986  0.6815  2.2502
27103SOL    HW287915   2.279   8.028   1.730 -1.5655  0.4010  0.4965
27104SOL     OW87916   1.932   4.743   9.443 -0.0874  0.0823  0.2400
27104SOL    HW187917   1.968   4.664   9.405 -0.8205 -0.0510 -0.2071
27104SOL    HW287918   1.988   4.762   9.517 -0.4731 -1.4045  0.9473
27105SOL     OW87919   6.574   5.935   3.031 -0.0357 -0.5984 -0.0923
27105SOL    HW187920   6.499   5.884   3.000 -1.3367  1.0293  0.2058
27105SOL    HW287921   6.546   6.026   3.022  1.8758  0.0633  0.1728
27106SOL     OW87922  11.840   7.079   4.642 -0.3686 -0.2643 -0.2071
27106SOL    HW187923  11.891   7.124   4.575  1.5928  0.8100  1.8610
27106SOL    HW287924  11.762   7.134   4.653 -0.2333  0.0788 -0.8904
27107SOL     OW87925  10.583   8.002   6.907 -0.2167  0.5522  0.5230
27107SOL    HW187926  10.593   8.076   6.846  0.1903  0.5007  0.5238
27107SOL    HW287927  10.491   7.977   6.899 -0.1122  0.3864 -0.2633
27108SOL     OW87928   9.504   9.963   5.939  0.1055 -0.1170  0.6389
27108SOL    HW187929   9.442   9.993   5.873  1.0782  1.5623  0.4216
27108SOL    HW287930   9.491  10.024   6.012 -0.6224 -1.6498  1.8553
27109SOL     OW87931   1.986  10.345   6.950 -0.6167  0.0519  0.4715
27109SOL    HW187932   2.012  10.437   6.942 -2.1677  0.3514 -4.0497
27109SOL    HW287933   2.069  10.297   6.958  0.5194  1.6535 -1.0530
27110SOL     OW87934   4.080   3.870  11.790 -0.0769  0.9890  0.5100
27110SOL    HW187935   4.045   3.837  11.873 -1.9021  2.5914  0.4347
27110SOL    HW287936   4.172   3.889  11.809 -0.3245  0.8179  2.0011
27111SOL     OW87937  11.225   1.145  12.026  0.2461 -0.1505 -0.0062
27111SOL    HW187938  11.196   1.235  12.043 -0.9153 -0.5414  0.1599
27111SOL    HW287939  11.270   1.119  12.106 -2.3367 -0.8493  1.3065
27112SOL     OW87940   3.002  10.509  11.840 -0.7851 -0.2722 -0.3506
27112SOL    HW187941   2.914  10.505  11.802 -0.8375 -0.6133 -0.1975
27112SOL    HW287942   3.034  10.419  11.836 -0.1990 -0.0444 -0.9596
27113SOL     OW87943   6.069   6.942   8.658  0.3243 -0.1531  0.5944
27113SOL    HW187944   6.132   7.009   8.685  1.4714 -0.3906 -1.2881
27113SOL    HW287945   6.078   6.938   8.563 -1.6606 -1.1132  0.3950
27114SOL     OW87946  10.436   0.966  11.961  0.4741 -0.2745  0.4475
27114SOL    HW187947  10.428   0.994  11.870  2.4767 -1.1106 -0.0352
27114SOL    HW287948  10.368   0.899  11.972  0.6466 -0.6530 -0.6632
27115SOL     OW87949   5.509  12.379   3.449  1.0465 -0.4667  0.4226
27115SOL    HW187950   5.512  12.335   3.534  0.6199  1.0035  1.2332
27115SOL    HW287951   5.594  12.362   3.410  1.0053 -1.7209  0.8436
27116SOL     OW87952   5.254   2.884   8.253 -0.3687  0.0391 -0.1857
27116SOL    HW187953   5.196   2.897   8.178 -0.3603  5.2799  0.3421
27116SOL    HW287954   5.342   2.901   8.219  0.0863 -1.0298  0.3966
27117SOL     OW87955   1.472   0.782   5.733  0.0615  0.2517 -0.1041
27117SOL    HW187956   1.521   0.704   5.759 -1.7839 -0.4318  1.6303
27117SOL    HW287957   1.494   0.847   5.800 -0.6510  0.2268  0.1626
27118SOL     OW87958   0.347   0.155   2.161  0.4157  0.3056 -0.3959
27118SOL    HW187959   0.413   0.213   2.199  0.5151  1.7482 -2.5687
27118SOL    HW287960   0.269   0.210   2.151  0.2648 -0.1127 -1.7810
27119SOL     OW87961  11.883   7.136   1.601  0.0387 -0.2372 -0.2317
27119SOL    HW187962  11.943   7.197   1.644  1.4890 -0.9830 -1.1129
27119SOL    HW287963  11.940   7.067   1.567 -1.5981 -2.8036  1.7847
27120SOL     OW87964   1.574   1.656   7.808  0.2174 -0.1234  0.2784
27120SOL    HW187965   1.579   1.731   7.867 -0.3859 -0.7456  1.1516
27120SOL    HW287966   1.665   1.639   7.783  0.5098  0.0242  1.2073
27121SOL     OW87967   9.847   4.379   2.838 -0.0178 -0.0179  0.4939
27121SOL    HW187968   9.755   4.358   2.851  0.0244 -0.5311 -0.0090
27121SOL    HW287969   9.878   4.314   2.776  0.3231  1.0485 -0.4803
27122SOL     OW87970   3.292   8.582   8.297 -0.2546  0.1429  0.6983
27122SOL    HW187971   3.206   8.625   8.292 -0.2825  0.0272  0.0982
27122SOL    HW287972   3.352   8.652   8.323 -0.1752  0.7439 -0.9745
27123SOL     OW87973   0.290   8.355  10.853 -0.3112 -0.6150 -0.1449
27123SOL    HW187974   0.250   8.280  10.809  1.1537 -1.4269 -0.1503
27123SOL    HW287975   0.365   8.377  10.798  0.3751 -0.3601  0.8755
27124SOL     OW87976   3.724   3.114   8.183 -0.2238  0.4456 -0.4535
27124SOL    HW187977   3.725   3.038   8.242 -0.7264 -0.8986 -2.1178
27124SOL    HW287978   3.787   3.092   8.115  1.0952  2.4239  0.0392
27125SOL     OW87979   8.903   9.730   0.031 -0.3397  0.2347  0.3755
27125SOL    HW187980   8.940   9.711   0.117 -1.1233  1.5866  1.0447
27125SOL    HW287981   8.975   9.771  -0.017 -0.5974  1.9685  1.3471
27126SOL     OW87982   9.746   2.720  11.956  0.0209 -0.6090  0.4597
27126SOL    HW187983   9.662   2.688  11.924 -1.1254  0.4144  2.3180
27126SOL    HW287984   9.757   2.679  12.041  0.8659  0.1674  0.7427
27127SOL     OW87985   8.547   3.106   6.123  0.8264 -0.5013 -0.4137
27127SOL    HW187986   8.471   3.057   6.093  0.8469  0.0213 -1.3535
27127SOL    HW287987   8.551   3.183   6.066  0.8433  0.5687  0.9765
27128SOL     OW87988  11.525   5.465   1.534 -0.2442 -0.2050 -0.1032
27128SOL    HW187989  11.507   5.478   1.627  0.0525 -1.0480  0.0811
27128SOL    HW287990  11.597   5.525   1.515 -2.1840  2.1550 -0.5161
27129SOL     OW87991  10.874  10.461   7.179 -0.1804  0.5193  0.1636
27129SOL    HW187992  10.781  10.442   7.165 -0.3610  1.1712  0.4777
27129SOL    HW287993  10.917  10.377   7.165 -0.6022  0.5911 -1.9312
27130SOL     OW87994   1.253   8.251   1.417  0.2268 -0.5615  0.0383
27130SOL    HW187995   1.250   8.314   1.345 -3.8177  0.1723  0.6134
27130SOL    HW287996   1.228   8.168   1.377 -0.5143 -0.4685  0.2919
27131SOL     OW87997   4.854   9.393  12.093  0.1637  0.3915 -0.7615
27131SOL    HW187998   4.876   9.346  12.013  1.7968  0.8091 -0.6003
27131SOL    HW287999   4.902   9.346  12.162 -2.0745 -0.6373  0.2013
27132SOL     OW88000   8.785   3.386   0.514  0.3152 -0.3313 -0.3311
27132SOL    HW188001   8.851   3.420   0.575  0.0444  0.3697 -0.4230
27132SOL    HW288002   8.837   3.351   0.441  0.5861  1.3473 -0.9946
27133SOL     OW88003   9.138   1.610   0.106  0.1608  0.5041  0.1016
27133SOL    HW188004   9.048   1.641   0.093  0.1287 -0.2338 -1.6509
27133SOL    HW288005   9.133   1.516   0.089  1.5608  0.7113 -1.7686
27134SOL     OW88006  11.430   3.775   7.246  0.3313 -0.4695 -0.2290
27134SOL    HW188007  11.492   3.821   7.303 -1.3822  1.3994  0.2072
27134SOL    HW288008  11.364   3.741   7.306 -0.6384  0.1262 -0.9496
27135SOL     OW88009  11.781   5.826   9.914 -0.0682 -0.1977  0.4927
27135SOL    HW188010  11.731   5.807   9.993 -0.7394 -1.0441 -0.1256
27135SOL    HW288011  11.844   5.754   9.907 -1.1477 -1.0674 -0.6502
27136SOL     OW88012   8.308   9.236   0.289  0.3470  0.1137 -0.7379
27136SOL    HW188013   8.283   9.171   0.355 -1.5006  1.9386  0.5085
27136SOL    HW288014   8.397   9.213   0.264  0.0102 -2.4467  0.1460
27137SOL     OW88015   3.296  11.006   0.557 -0.1331 -0.3366 -0.2598
27137SOL    HW188016   3.253  10.952   0.624  0.9428 -2.0497 -0.8996
27137SOL    HW288017   3.231  11.073   0.536 -0.2522  0.7510  3.0008
27138SOL     OW88018   8.358   7.290   2.311 -0.0338  0.5646 -1.0778
27138SOL    HW188019   8.336   7.354   2.380  1.8180  2.5124 -2.1809
27138SOL    HW288020   8.274   7.270   2.270 -1.0723 -0.0193  1.1515
27139SOL     OW88021   4.362   0.808   7.356  0.0895 -0.7698 -0.3816
27139SOL    HW188022   4.283   0.755   7.366 -0.9248  0.7141 -0.1670
27139SOL    HW288023   4.391   0.825   7.445 -0.9747  0.9599 -0.3156
27140SOL     OW88024   9.186   1.515   5.839 -0.2925 -0.1384 -0.7916
27140SOL    HW188025   9.269   1.559   5.820  0.8228 -1.5249  0.5836
27140SOL    HW288026   9.135   1.580   5.887  1.3353 -0.2697  1.2459
27141SOL     OW88027   8.748   6.978  12.535 -0.2266 -0.5796  0.0696
27141SOL    HW188028   8.728   7.072  12.540 -1.7954 -0.6910 -2.2940
27141SOL    HW288029   8.821   6.972  12.474 -0.5499 -0.9356 -0.2861
27142SOL     OW88030   9.057   2.021   3.178 -0.0909  0.8553  0.2596
27142SOL    HW188031   9.004   1.954   3.135  1.2416  0.0961 -0.2482
27142SOL    HW288032   9.093   2.074   3.107  0.6883  0.7016  0.5343
27143SOL     OW88033   8.528   6.292   5.716  0.2030  0.0730 -0.1695
27143SOL    HW188034   8.519   6.215   5.771 -0.2664  1.8794  2.4436
27143SOL    HW288035   8.615   6.283   5.675  1.2601 -0.6460  2.0862
27144SOL     OW88036   6.045   6.357   7.439 -0.4029  0.6675  0.1580
27144SOL    HW188037   6.116   6.337   7.378 -0.9299 -0.4861 -0.1170
27144SOL    HW288038   6.078   6.430   7.492  0.6372  0.7162 -0.5281
27145SOL     OW88039   3.871   8.855   2.164 -0.3775  0.0729 -0.1523
27145SOL    HW188040   3.816   8.792   2.117  1.3666  0.4917 -2.9434
27145SOL    HW288041   3.914   8.802   2.232 -1.2345 -1.0765 -0.4660
27146SOL     OW88042   7.488   2.191  12.630  0.6513  0.1070  0.5990
27146SOL    HW188043   7.557   2.257  12.634 -0.0287  1.0346 -1.6452
27146SOL    HW288044   7.449   2.192  12.717  1.6603  1.5554  1.0711
27147SOL     OW88045   4.888   0.394  10.997 -0.2529 -0.5472  0.5229
27147SOL    HW188046   4.796   0.388  11.025 -0.3297 -0.6709  0.2528
27147SOL    HW288047   4.932   0.442  11.067 -0.9174  1.2808 -0.2573
27148SOL     OW88048   1.797   8.895   0.045  0.1134 -0.2494 -0.1060
27148SOL    HW188049   1.850   8.817   0.064  1.1896  0.9204  2.0594
27148SOL    HW288050   1.707   8.866   0.057  0.4357 -1.4164 -0.3775
27149SOL     OW88051   4.884   2.467   0.600 -0.1877 -0.5767  0.6858
27149SOL    HW188052   4.970   2.459   0.561  0.5522 -3.8994  2.5995
27149SOL    HW288053   4.901   2.480   0.694 -1.7052 -1.5313  1.1379
27150SOL     OW88054   6.275   9.430   6.606  0.1060  0.5021  1.1626
27150SOL    HW188055   6.189   9.471   6.598  0.8449  1.8930 -0.2514
27150SOL    HW288056   6.327   9.492   6.657  0.0189 -0.8527  3.0166
27151SOL     OW88057   8.055  10.163  11.988  0.2417 -0.0093  0.0007
27151SOL    HW188058   8.069  10.071  11.966  1.2447  0.5216 -1.7658
27151SOL    HW288059   7.967  10.182  11.955  0.1087 -0.2774  0.1953
27152SOL     OW88060  12.584   7.976   0.350 -0.1598  0.0751 -0.0775
27152SOL    HW188061  12.496   7.967   0.315 -1.5581 -0.1064  3.0924
27152SOL    HW288062  12.596   8.070   0.363  0.7009  0.2207 -1.7156
27153SOL     OW88063   3.559  11.350  10.370 -0.6566 -1.0137  0.2157
27153SOL    HW188064   3.533  11.334  10.461  1.8230  1.8321  1.6392
27153SOL    HW288065   3.519  11.434  10.349  1.9572  0.3606  0.2601
27154SOL     OW88066   0.718   9.944   4.246  0.2579 -0.8514 -0.4322
27154SOL    HW188067   0.732  10.032   4.281 -0.4957 -1.0377  0.3652
27154SOL    HW288068   0.684   9.959   4.157  0.7778 -0.3537 -0.5483
27155SOL     OW88069   4.307  11.792  11.406 -0.3154 -0.0907 -0.0588
27155SOL    HW188070   4.401  11.796  11.390 -0.5702  0.8804 -1.4899
27155SOL    HW288071   4.274  11.734  11.337 -0.8561  0.1924 -0.0401
27156SOL     OW88072   8.525   5.064   3.460  0.0652 -0.0364  0.5899
27156SOL    HW188073   8.545   5.067   3.367  1.6380 -0.2410  0.8795
27156SOL    HW288074   8.468   5.139   3.475 -1.9469 -1.1830 -0.8629
27157SOL     OW88075   9.464   6.168   2.740  0.7543  0.1990  0.0723
27157SOL    HW188076   9.514   6.159   2.659 -1.6463 -0.5633 -1.4213
27157SOL    HW288077   9.403   6.240   2.723 -0.3780 -0.5395  0.8430
27158SOL     OW88078  11.080   8.122  10.628 -0.3501 -0.0603  0.3391
27158SOL    HW188079  11.120   8.037  10.612 -1.4932 -0.5124 -0.1703
27158SOL    HW288080  11.155   8.181  10.643  0.5251 -0.8504 -0.7210
27159SOL     OW88081   1.233  10.672   1.792 -0.4536 -0.3960  0.2580
27159SOL    HW188082   1.235  10.692   1.698 -3.3059 -0.0231  0.1915
27159SOL    HW288083   1.279  10.745   1.833  0.5128 -0.3737 -0.8060
27160SOL     OW88084   4.900   2.114   0.232 -0.2267  0.4581 -0.2688
27160SOL    HW188085   4.883   2.206   0.212  1.3930  0.7388 -0.4549
27160SOL    HW288086   4.924   2.113   0.324 -0.5599  0.1677 -0.1832
27161SOL     OW88087   7.688  12.767   3.245 -0.2033 -0.4243  0.6681
27161SOL    HW188088   7.722  12.699   3.303 -1.3192 -1.8070 -0.2620
27161SOL    HW288089   7.662  12.838   3.304 -0.0482 -1.2380  1.7390
27162SOL     OW88090   5.111   2.239   1.208 -0.0653  0.0425 -0.2384
27162SOL    HW188091   5.192   2.285   1.232 -0.0268  0.5394 -1.2742
27162SOL    HW288092   5.050   2.260   1.279  0.7990 -0.6320  0.7460
27163SOL     OW88093   5.464   8.950   3.412 -0.4266 -0.2171  0.2036
27163SOL    HW188094   5.480   8.879   3.474  0.0585 -0.1353  0.1747
27163SOL    HW288095   5.549   8.967   3.372 -0.4268  0.7423  0.5895
27164SOL     OW88096   6.114   6.712   0.801  0.1868 -0.2222 -0.2743
27164SOL    HW188097   6.081   6.735   0.714  0.4283 -2.1371 -0.9342
27164SOL    HW288098   6.047   6.743   0.861 -0.8484 -0.4127 -1.2898
27165SOL     OW88099   3.526   0.761  10.930  0.8233 -0.3808  0.1490
27165SOL    HW188100   3.524   0.668  10.909 -0.1327 -0.4241  0.3686
27165SOL    HW288101   3.444   0.796  10.894  0.6965  0.1696  0.9279
27166SOL     OW88102   9.860  11.137   9.042  0.1496 -0.1077 -0.2725
27166SOL    HW188103   9.851  11.175   9.130 -0.5467 -1.8181  0.4510
27166SOL    HW288104   9.931  11.073   9.051 -1.6418 -2.1945 -0.1847
27167SOL     OW88105   2.698   7.702   0.032 -0.4785 -0.0410  0.1498
27167SOL    HW188106   2.706   7.759  -0.044 -1.4724  1.8666  1.4090
27167SOL    HW288107   2.782   7.657   0.037  0.2443  1.1173 -1.0284
27168SOL     OW88108   6.434   7.821   6.232 -0.2059  0.0851  0.3818
27168SOL    HW188109   6.389   7.888   6.180  0.6425 -0.7395 -1.4620
27168SOL    HW288110   6.365   7.786   6.289 -1.8616 -0.7913 -2.0166
27169SOL     OW88111   4.853   8.087   6.509  0.0674  0.8555  0.8238
27169SOL    HW188112   4.801   8.160   6.542  0.8811  1.7699  0.1699
27169SOL    HW288113   4.830   8.081   6.416 -1.7072 -1.2562  1.3337
27170SOL     OW88114   6.081   6.881  10.535  0.5583  0.5589  0.0168
27170SOL    HW188115   6.026   6.804  10.524  0.1622  0.8697 -0.2069
27170SOL    HW288116   6.040   6.930  10.606  1.0175  0.3879  0.4075
27171SOL     OW88117   1.061  11.692  10.926 -0.1925  0.2136  0.6075
27171SOL    HW188118   1.104  11.645  10.997  1.2008  1.0742  0.3751
27171SOL    HW288119   1.039  11.624  10.862  0.7747 -0.2672  0.7740
27172SOL     OW88120   9.525   8.237   3.978 -0.2678  0.1899  0.1484
27172SOL    HW188121   9.540   8.158   3.925 -0.4067  0.8126 -0.8362
27172SOL    HW288122   9.549   8.210   4.067  1.7493 -0.3726 -0.5003
27173SOL     OW88123   5.346   1.532  12.237 -0.3218 -0.3776 -0.1025
27173SOL    HW188124   5.326   1.587  12.162 -0.1647 -1.4198 -0.9331
27173SOL    HW288125   5.264   1.528  12.287 -0.8507 -0.8147 -0.9811
27174SOL     OW88126   8.327   0.495   9.499  0.4523 -0.0971 -0.1391
27174SOL    HW188127   8.367   0.481   9.413  0.6150  0.5792 -0.1785
27174SOL    HW288128   8.389   0.457   9.561  0.1279 -0.9736 -0.3494
27175SOL     OW88129   0.019  12.764   2.955  0.1293  0.2027 -0.5164
27175SOL    HW188130  -0.025  12.833   2.904  1.6520  1.5392 -0.1004
27175SOL    HW288131   0.005  12.789   3.046 -0.2679 -0.6937 -0.3173
27176SOL     OW88132   6.225   3.626  11.437  0.2857 -0.2800 -0.0934
27176SOL    HW188133   6.276   3.649  11.360  0.7404  0.8250  0.5030
27176SOL    HW288134   6.135   3.647  11.414  0.0216 -2.4432 -1.2301
27177SOL     OW88135  10.202   8.350  10.696  0.2876 -0.0391  0.2969
27177SOL    HW188136  10.266   8.329  10.764  0.5627  0.5048  0.2117
27177SOL    HW288137  10.118   8.352  10.742  0.6121  1.6229  0.9161
27178SOL     OW88138   6.772  12.298   7.198 -0.5275  0.0837  0.2421
27178SOL    HW188139   6.820  12.242   7.260  0.4797  0.0376 -0.5394
27178SOL    HW288140   6.683  12.301   7.232  0.1929  0.8177  2.2100
27179SOL     OW88141   9.754   1.485   4.371  0.1089  0.2370  0.4772
27179SOL    HW188142   9.787   1.571   4.346 -1.4703 -0.3208 -4.9638
27179SOL    HW288143   9.666   1.500   4.403  0.4846  0.7317  1.2935
27180SOL     OW88144  12.621   2.390   6.765 -0.1522  0.0658 -0.0705
27180SOL    HW188145  12.530   2.361   6.771 -0.3943  0.6132 -0.9805
27180SOL    HW288146  12.625   2.443   6.686  0.4024  2.0779  1.2221
27181SOL     OW88147  12.267   1.584   0.087 -0.5795  0.4653  0.1414
27181SOL    HW188148  12.282   1.531   0.166  2.1141  0.9669  0.0562
27181SOL    HW288149  12.218   1.526   0.029  0.1346 -1.0646  0.9895
27182SOL     OW88150   7.823   0.972   4.830  0.8602  0.0299 -0.6807
27182SOL    HW188151   7.857   0.885   4.852 -1.4604 -0.5656  0.8650
27182SOL    HW288152   7.731   0.958   4.810  0.7886  1.9569 -1.9233
27183SOL     OW88153   4.222   5.574   8.047  0.1408 -0.3341  0.5737
27183SOL    HW188154   4.293   5.511   8.037  0.3875 -0.0018  0.1346
27183SOL    HW288155   4.187   5.559   8.134  0.0684 -1.2040  0.3980
27184SOL     OW88156   6.491   6.112   7.039  0.0970  0.1308 -0.0097
27184SOL    HW188157   6.569   6.084   6.991  0.6348  0.5679  0.5987
27184SOL    HW288158   6.456   6.031   7.077  0.5561  0.0012  0.1442
27185SOL     OW88159   3.007   9.046   6.252 -0.1493  0.2307  0.5432
27185SOL    HW188160   2.943   9.117   6.242  0.4412  0.7632  0.4443
27185SOL    HW288161   3.069   9.080   6.317 -0.1809 -0.4337  0.9250
27186SOL     OW88162   6.293   5.185   0.849 -0.2028  0.2067  0.0457
27186SOL    HW188163   6.201   5.207   0.841  0.2519  1.6835 -1.7952
27186SOL    HW288164   6.322   5.229   0.929 -0.8759  0.5941  0.0789
27187SOL     OW88165   9.289   7.582   1.228  0.1444  0.0960 -0.4322
27187SOL    HW188166   9.242   7.500   1.242  0.0467 -0.5462 -3.7613
27187SOL    HW288167   9.277   7.631   1.309 -2.6252 -1.8050  0.4387
27188SOL     OW88168   3.898   3.205   5.930 -0.7178 -0.2884 -0.0190
27188SOL    HW188169   3.878   3.283   5.982  2.1966  0.9230 -0.5165
27188SOL    HW288170   3.967   3.234   5.870  2.1546 -3.7567  1.2702
27189SOL     OW88171   5.872   1.083   9.223  0.5874 -0.0421 -0.0780
27189SOL    HW188172   5.785   1.047   9.234  0.5530 -0.7324 -2.2545
27189SOL    HW288173   5.877   1.153   9.288 -1.4274 -0.2458  0.3542
27190SOL     OW88174   0.231   3.137   6.241  0.3384 -0.7027  0.0526
27190SOL    HW188175   0.173   3.199   6.285  1.4500 -0.4225  1.1985
27190SOL    HW288176   0.241   3.171   6.153 -0.1595 -0.0027  0.2647
27191SOL     OW88177   3.897  11.822  11.673 -0.3576  0.0629 -0.3732
27191SOL    HW188178   3.920  11.805  11.582  1.0265  2.0334 -0.4448
27191SOL    HW288179   3.920  11.740  11.719  0.5246 -0.3623 -1.5225
27192SOL     OW88180   4.813   5.834   7.115 -0.3295  0.3605  0.3733
27192SOL    HW188181   4.871   5.821   7.040 -2.8008  0.5088 -1.6990
27192SOL    HW288182   4.812   5.929   7.127 -2.3849  0.6575 -1.5969
27193SOL     OW88183  10.172  12.262  12.392 -0.0421  0.1218 -0.0456
27193SOL    HW188184  10.157  12.223  12.478  1.1056 -1.5157 -0.5241
27193SOL    HW288185  10.170  12.187  12.332 -0.3659  1.1705 -1.3897
27194SOL     OW88186   0.909   8.039   7.626  0.1094 -0.5417 -0.2982
27194SOL    HW188187   0.890   8.123   7.669  1.1294 -0.8206  0.7348
27194SOL    HW288188   0.904   8.059   7.533  0.7014  0.7599 -0.0727
27195SOL     OW88189   7.713  10.193  12.752  0.8880  0.4125 -0.5227
27195SOL    HW188190   7.622  10.202  12.724  0.4896  3.7505  1.2353
27195SOL    HW288191   7.709  10.135  12.828  0.1141  0.9111 -0.1666
27196SOL     OW88192   4.898   0.707   9.402  0.3313 -0.0630  0.0840
27196SOL    HW188193   4.950   0.766   9.456  1.5515  0.0628 -1.1694
27196SOL    HW288194   4.810   0.711   9.440  1.2147 -0.3751  2.3505
27197SOL     OW88195   6.198   4.186   5.548  0.2145 -0.3792  0.3615
27197SOL    HW188196   6.230   4.223   5.630  0.0782 -0.6589  0.5452
27197SOL    HW288197   6.272   4.135   5.515 -0.4433 -2.1586  1.4803
27198SOL     OW88198  11.217  10.973   6.335 -1.4026 -0.1405  0.2384
27198SOL    HW188199  11.222  11.048   6.275  0.0254  0.5901  1.2145
27198SOL    HW288200  11.178  11.009   6.415 -0.5466 -0.3896  0.7760
27199SOL     OW88201  10.908   4.038   1.319 -0.1144  0.4398  0.4466
27199SOL    HW188202  10.841   3.974   1.293  1.8725 -1.1025 -1.1756
27199SOL    HW288203  10.937   4.077   1.237  0.6047  1.4705  1.1784
27200SOL     OW88204   7.051  12.124   5.895 -0.2115  0.3501 -0.7720
27200SOL    HW188205   7.065  12.137   5.801  1.1841 -0.0752 -0.6400
27200SOL    HW288206   7.106  12.049   5.917 -0.7786  0.2454  0.3301
27201SOL     OW88207  11.531   0.835   8.743 -0.0938  0.4524 -0.4536
27201SOL    HW188208  11.561   0.767   8.803  0.8544  1.7873  0.6578
27201SOL    HW288209  11.460   0.879   8.789 -0.7271  0.2091 -1.1740
27202SOL     OW88210   6.754   7.900  11.822  0.0970  0.3298  0.3386
27202SOL    HW188211   6.671   7.933  11.855 -0.0348  0.7988 -0.4312
27202SOL    HW288212   6.751   7.805  11.836  0.2810  0.5565  2.1541
27203SOL     OW88213   0.918   8.654   6.476 -0.0350 -0.0098  0.0416
27203SOL    HW188214   0.917   8.566   6.438 -1.9233 -0.3313  0.7254
27203SOL    HW288215   0.851   8.652   6.544 -2.4274  2.7740 -1.9457
27204SOL     OW88216   2.151   5.636   9.853 -0.0761 -0.5869  0.1037
27204SOL    HW188217   2.188   5.723   9.837  1.9036 -1.1520  1.1930
27204SOL    HW288218   2.196   5.579   9.791  0.6968 -1.2445  1.2253
27205SOL     OW88219  10.811   9.476   0.799  0.0490  0.5627  0.7347
27205SOL    HW188220  10.797   9.511   0.711 -3.3899  1.1738  1.3816
27205SOL    HW288221  10.774   9.388   0.797  0.3060  0.4257  1.4765
27206SOL     OW88222   3.274   4.090   9.671 -0.0090 -0.1196 -0.1307
27206SOL    HW188223   3.254   4.098   9.578 -0.9736 -2.7286 -0.2315
27206SOL    HW288224   3.369   4.099   9.677  0.4045 -2.6522 -1.7973
27207SOL     OW88225   3.737   0.336   2.404 -0.0373  0.4627 -0.3778
27207SOL    HW188226   3.832   0.325   2.408  0.1104  1.8891  2.4623
27207SOL    HW288227   3.702   0.246   2.408  1.1951  0.0041  0.9331
27208SOL     OW88228   6.082   7.359  12.122 -0.1012  0.1578 -0.1195
27208SOL    HW188229   6.038   7.287  12.078  1.1540  0.3189 -1.7351
27208SOL    HW288230   6.137   7.317  12.189 -0.1035 -0.3099 -0.4081
27209SOL     OW88231   8.079   4.676  10.874  0.2771 -0.3804 -0.0498
27209SOL    HW188232   8.170   4.707  10.881  0.0964  0.1506 -0.0259
27209SOL    HW288233   8.075   4.600  10.932 -0.0231  1.2585  2.2171
27210SOL     OW88234   6.668   8.492   1.251  0.2249  0.3833 -0.3014
27210SOL    HW188235   6.721   8.414   1.267  0.6479  0.9120  0.9313
27210SOL    HW288236   6.727   8.552   1.204 -1.0292 -1.1932 -4.3686
27211SOL     OW88237   4.134  11.820   0.695  0.5682  0.2793 -0.0103
27211SOL    HW188238   4.169  11.797   0.781  0.3517  1.1092  0.3066
27211SOL    HW288239   4.039  11.814   0.706  0.5553 -0.4835 -0.4484
27212SOL     OW88240   9.879  10.327  11.694  0.1727  0.1188 -0.1146
27212SOL    HW188241   9.952  10.299  11.748  0.4428 -1.4863 -1.2132
27212SOL    HW288242   9.904  10.412  11.660  0.1111  1.0343  2.0112
27213SOL     OW88243   7.085   7.594   1.739 -0.5347  0.3056 -0.6985
27213SOL    HW188244   7.049   7.643   1.666 -2.2349 -0.7724 -0.6244
27213SOL    HW288245   7.149   7.535   1.699 -1.0063  0.1554 -1.2413
27214SOL     OW88246   9.254  10.172   1.568 -0.1432  0.8053 -0.6962
27214SOL    HW188247   9.236  10.113   1.495 -1.5808  1.8139 -1.2015
27214SOL    HW288248   9.173  10.221   1.579  0.0123  0.6160  1.6618
27215SOL     OW88249  11.685  12.192   1.705  0.4548 -0.0704 -0.4226
27215SOL    HW188250  11.664  12.272   1.751 -3.1361 -0.9910 -0.1631
27215SOL    HW288251  11.642  12.123   1.755  0.5163 -1.7140 -2.4607
27216SOL     OW88252  11.423   9.009  11.412  0.1771  0.0367  0.3555
27216SOL    HW188253  11.381   9.051  11.487  0.0548  0.8011 -0.1320
27216SOL    HW288254  11.355   8.955  11.372  0.2342 -0.3504  0.7730
27217SOL     OW88255   7.185   2.845   0.916  0.2872  0.2712  0.5288
27217SOL    HW188256   7.126   2.866   0.844  1.7251 -0.7495 -1.0114
27217SOL    HW288257   7.134   2.786   0.972 -0.7122  0.7689  0.1730
27218SOL     OW88258   2.908   0.356   7.059 -0.2288  0.0384 -0.5039
27218SOL    HW188259   2.915   0.264   7.033 -1.1204 -0.6633  1.4824
27218SOL    HW288260   2.824   0.384   7.023  0.8815  0.7011 -2.7180
27219SOL     OW88261   2.181   8.796   3.094  0.0257 -0.1952  0.2996
27219SOL    HW188262   2.247   8.740   3.054 -0.0362 -1.6404  2.0811
27219SOL    HW288263   2.228   8.875   3.119  0.2424  0.3609 -1.7470
27220SOL     OW88264   1.343   8.825   6.133 -0.0347  0.4890  0.4306
27220SOL    HW188265   1.388   8.781   6.205  1.1468  0.2874 -0.4057
27220SOL    HW288266   1.346   8.918   6.155 -1.5196  0.2917  1.6351
27221SOL     OW88267   4.411   4.382  12.473 -0.1348 -0.1576  0.3475
27221SOL    HW188268   4.335   4.433  12.500 -0.9558 -0.0233 -2.0247
27221SOL    HW288269   4.439   4.421  12.391  0.7307 -2.0016 -0.2953
27222SOL     OW88270   6.327  12.653   9.348 -0.0129  0.0782  0.5196
27222SOL    HW188271   6.253  12.686   9.399 -1.2738  0.0953 -1.2249
27222SOL    HW288272   6.367  12.732   9.310 -0.7645 -0.0896 -0.6735
27223SOL     OW88273   3.537   1.424   2.968  0.1223 -0.2024  0.0643
27223SOL    HW188274   3.574   1.433   2.880  2.1320 -0.4826  0.8245
27223SOL    HW288275   3.612   1.437   3.027 -1.1558 -0.1039  1.7390
27224SOL     OW88276   9.814   8.837   6.939 -0.3688 -0.0856 -0.3624
27224SOL    HW188277   9.786   8.874   7.023 -1.3690 -3.0064  0.7130
27224SOL    HW288278   9.836   8.913   6.885 -0.7300  1.9377  2.1697
27225SOL     OW88279   5.759   2.685   7.445  0.5253  0.1633 -0.4462
27225SOL    HW188280   5.685   2.727   7.489  0.8396  1.1838 -0.8721
27225SOL    HW288281   5.783   2.612   7.502  0.6416  1.1939  0.8518
27226SOL     OW88282   8.911  12.532  11.974 -0.1118 -0.9145 -0.2130
27226SOL    HW188283   8.861  12.592  12.028 -1.1103 -0.5138 -1.5198
27226SOL    HW288284   9.001  12.565  11.977 -0.3756 -0.2267  0.2470
27227SOL     OW88285   7.043  11.569  11.012  0.1994 -0.0888 -0.7253
27227SOL    HW188286   6.950  11.588  11.013 -0.0487 -0.9686  1.9209
27227SOL    HW288287   7.049  11.477  10.985  0.0823 -0.5747  0.7779
27228SOL     OW88288   5.770  12.356   3.377 -0.2119  0.4437  0.3273
27228SOL    HW188289   5.819  12.358   3.294 -1.6512 -1.9395 -0.6855
27228SOL    HW288290   5.818  12.295   3.432  0.6455  1.8975  1.2706
27229SOL     OW88291  10.400  10.224   3.514 -0.3478 -0.1005  0.2381
27229SOL    HW188292  10.310  10.255   3.504  0.0506  1.7978  1.8859
27229SOL    HW288293  10.449  10.270   3.445 -0.3984  0.0571  0.3065
27230SOL     OW88294  12.369   8.661   4.250  0.0911 -0.4453 -0.4520
27230SOL    HW188295  12.317   8.695   4.178  1.2730  1.1777 -0.5866
27230SOL    HW288296  12.438   8.610   4.207  1.2253  1.1176 -0.5656
27231SOL     OW88297   2.049   7.808   9.082 -0.1949  0.1452 -0.0347
27231SOL    HW188298   2.099   7.772   9.156  0.5900  1.7950  0.2733
27231SOL    HW288299   2.100   7.783   9.005  0.4546  0.7186  0.1915
27232SOL     OW88300  12.139  10.872   6.528 -0.4769  0.2160  0.6632
27232SOL    HW188301  12.075  10.939   6.552 -1.3710 -0.8751  1.3937
27232SOL    HW288302  12.213  10.888   6.586 -0.5475  0.7688  0.6068
27233SOL     OW88303   5.175   8.843   9.439 -0.0740  0.4811  0.2148
27233SOL    HW188304   5.189   8.857   9.345 -2.7226  0.2975 -0.2744
27233SOL    HW288305   5.146   8.929   9.472 -0.5795  0.1757  0.5700
27234SOL     OW88306   0.095   5.234  10.850  0.2004  0.3351  0.1368
27234SOL    HW188307   0.037   5.291  10.901  0.3923 -0.6037  1.4699
27234SOL    HW288308   0.051   5.149  10.852  1.7680 -0.5103  1.5422
27235SOL     OW88309  11.945   2.439   5.941  0.0620  0.8912 -0.1705
27235SOL    HW188310  12.028   2.465   5.980 -0.3062 -0.2215  1.5001
27235SOL    HW288311  11.915   2.366   5.996 -0.9390 -0.2282 -2.0717
27236SOL     OW88312  12.142   9.505  10.374 -0.1842 -0.4194  0.3586
27236SOL    HW188313  12.113   9.547  10.455 -0.1431  1.2463 -0.4293
27236SOL    HW288314  12.065   9.509  10.316 -0.2414 -1.6632  0.3202
27237SOL     OW88315   7.260   0.601  11.032  0.4330 -0.0786 -0.7497
27237SOL    HW188316   7.258   0.511  10.999 -1.2246 -0.3118 -0.0972
27237SOL    HW288317   7.279   0.654  10.955  0.6039 -0.9130 -1.2994
27238SOL     OW88318   7.599   5.092  11.784  0.4136 -0.3954  0.3389
27238SOL    HW188319   7.516   5.140  11.781  1.3816  1.2931 -1.3595
27238SOL    HW288320   7.584   5.014  11.730  0.1669  0.3387 -0.6776
27239SOL     OW88321   7.362   8.214   6.316  0.3419 -0.2476 -0.1519
27239SOL    HW188322   7.430   8.281   6.310  1.2561 -1.2324 -1.5416
27239SOL    HW288323   7.363   8.185   6.407  2.0477 -0.4780 -0.2271
27240SOL     OW88324   1.888   8.075   8.285  0.5294 -0.2649  0.0430
27240SOL    HW188325   1.948   8.110   8.219 -0.8460 -1.3702 -1.9129
27240SOL    HW288326   1.811   8.130   8.279 -0.0114 -1.0150 -0.0418
27241SOL     OW88327   3.612   8.349   9.300 -0.0129  0.0734  0.6667
27241SOL    HW188328   3.640   8.285   9.235 -2.6180 -0.7824  0.2719
27241SOL    HW288329   3.657   8.430   9.277  0.8944 -0.8163 -0.7681
27242SOL     OW88330  12.646   3.515   6.058  0.3818  0.0611 -0.1577
27242SOL    HW188331  12.612   3.443   6.111 -0.3757  0.6704  0.2038
27242SOL    HW288332  12.664   3.476   5.972 -2.9302  0.0191 -0.9701
27243SOL     OW88333   4.119   2.068   4.193 -0.4507  0.4746  0.1720
27243SOL    HW188334   4.118   2.141   4.131  1.3266  0.7173  0.3792
27243SOL    HW288335   4.162   1.997   4.145 -0.7980  0.0529  0.4849
27244SOL     OW88336   7.874   2.993  11.175 -0.4997 -0.0679  0.1792
27244SOL    HW188337   7.890   3.087  11.179 -1.8084  0.2797 -1.4084
27244SOL    HW288338   7.881   2.971  11.082 -0.4870 -1.4858  0.4877
27245SOL     OW88339   5.787   4.110   4.580  0.7619  0.0568 -0.0332
27245SOL    HW188340   5.880   4.097   4.598  0.5370  0.7597  1.8785
27245SOL    HW288341   5.781   4.113   4.485  2.2427 -3.0627 -0.3587
27246SOL     OW88342   4.812  11.663   7.874 -0.4076  0.5870 -0.5925
27246SOL    HW188343   4.898  11.683   7.910 -0.3045 -1.5852  0.5734
27246SOL    HW288344   4.830  11.627   7.787  0.0741 -1.1956  0.1860
27247SOL     OW88345   6.968  10.169  11.390 -0.4247 -0.8933 -0.2837
27247SOL    HW188346   6.968  10.251  11.439  0.3981 -2.1535  1.9293
27247SOL    HW288347   6.878  10.160  11.358 -1.0337 -0.0911  1.1268
27248SOL     OW88348   7.071  10.853   5.158  0.2739 -0.1959 -0.5076
27248SOL    HW188349   7.012  10.928   5.151 -0.4006 -0.7638 -1.1333
27248SOL    HW288350   7.148  10.878   5.107  0.6941  0.6361  0.4876
27249SOL     OW88351   1.175  12.225   8.284  0.3594  0.0577 -0.0397
27249SOL    HW188352   1.266  12.244   8.263  0.3675  0.7733  0.5667
27249SOL    HW288353   1.138  12.190   8.203  1.3752 -1.0230 -0.0571
27250SOL     OW88354   0.906   4.116   5.921 -0.1012  0.1069 -0.2514
27250SOL    HW188355   0.812   4.105   5.938 -0.2946  2.0179  0.1820
27250SOL    HW288356   0.917   4.089   5.831 -1.0268 -0.4270 -0.2175
27251SOL     OW88357   6.066   8.162   2.944  0.4415  0.1974  0.4267
27251SOL    HW188358   6.110   8.162   3.029 -1.1053 -0.5096  1.2720
27251SOL    HW288359   6.120   8.106   2.888  0.8919 -0.2172  1.2690
27252SOL     OW88360   1.219   2.157   2.171 -0.1824 -0.5815 -0.9613
27252SOL    HW188361   1.314   2.170   2.177 -0.1407 -0.5606 -1.5645
27252SOL    HW288362   1.207   2.104   2.092 -0.5550 -2.0269  0.0174
27253SOL     OW88363   5.084  11.036   5.461 -0.0675 -0.5582 -0.2015
27253SOL    HW188364   5.014  10.972   5.446  0.8462 -1.0941 -2.8977
27253SOL    HW288365   5.066  11.107   5.399  0.0388  0.8839  1.3522
27254SOL     OW88366   9.565   9.080  11.225  0.2352 -0.5096  0.0285
27254SOL    HW188367   9.524   9.145  11.168  0.1877  0.1807  0.8189
27254SOL    HW288368   9.627   9.034  11.170  0.2350  0.1844 -0.5639
27255SOL     OW88369   1.748   7.911   9.749 -0.5029  0.0439  0.1361
27255SOL    HW188370   1.690   7.861   9.807 -0.4776 -0.1241  0.0172
27255SOL    HW288371   1.836   7.886   9.777 -0.4715  0.9341  0.8775
27256SOL     OW88372   4.714  11.983   7.916  0.4424 -0.2975  0.3788
27256SOL    HW188373   4.696  11.919   7.984  1.2093 -2.4854 -1.3440
27256SOL    HW288374   4.809  11.975   7.900  0.4520  0.8443 -0.2794
27257SOL     OW88375   1.140   3.158   9.683 -0.0737 -0.2587 -0.2489
27257SOL    HW188376   1.215   3.105   9.710  0.5271  1.4864  1.8323
27257SOL    HW288377   1.072   3.095   9.664  0.7069 -1.8432  1.7832
27258SOL     OW88378   9.854   1.647   2.840 -0.3183  0.2458  0.6152
27258SOL    HW188379   9.767   1.625   2.872  0.5108 -0.4008  2.5948
27258SOL    HW288380   9.874   1.732   2.880 -0.2863  0.7191 -0.3746
27259SOL     OW88381  10.947   0.939   8.617 -0.2022  0.0088  0.2439
27259SOL    HW188382  10.993   0.873   8.669  0.1526  0.1403  0.1025
27259SOL    HW288383  10.912   1.000   8.681  2.3065  1.5518  0.2934
27260SOL     OW88384   7.922   7.989  12.200 -0.1444 -0.2508  0.9605
27260SOL    HW188385   7.870   8.014  12.277 -0.8274  0.0191  0.4292
27260SOL    HW288386   7.856   7.959  12.137  0.5497 -2.3857  1.1772
27261SOL     OW88387   1.363   9.962   0.886  0.2019  0.1791  0.4066
27261SOL    HW188388   1.403   9.998   0.807  0.3087 -1.5951 -0.4061
27261SOL    HW288389   1.272   9.944   0.861 -0.0125  0.4574  0.9804
27262SOL     OW88390   3.331   8.072   6.376  0.1593  0.2242  0.4877
27262SOL    HW188391   3.291   8.048   6.292 -0.0393 -0.6901  0.8322
27262SOL    HW288392   3.400   8.134   6.353 -0.2499  0.3994 -0.2968
27263SOL     OW88393  12.497   1.370  12.686 -0.0954  0.4221  0.4985
27263SOL    HW188394  12.426   1.419  12.643  0.3135  1.6243  1.1420
27263SOL    HW288395  12.490   1.282  12.650 -1.4878  0.6877  0.0280
27264SOL     OW88396   4.964   0.077   4.343  0.1464  0.2351  0.1171
27264SOL    HW188397   4.957   0.125   4.425 -0.6913  0.2131  0.0650
27264SOL    HW288398   5.044   0.111   4.303  1.3796 -0.7930  1.5959
27265SOL     OW88399  10.647   9.830   3.386 -0.1989 -0.0416 -0.8438
27265SOL    HW188400  10.679   9.889   3.454  1.8574 -1.2793 -0.6536
27265SOL    HW288401  10.575   9.782   3.427  2.7062 -2.7791  1.6313
27266SOL     OW88402   5.779   3.074   2.925  0.1482 -0.1564  0.0086
27266SOL    HW188403   5.869   3.104   2.913 -0.2674  0.3959 -1.9632
27266SOL    HW288404   5.763   3.085   3.019  1.9131  0.3456  0.2848
27267SOL     OW88405   2.119   5.456   0.863 -0.1710  0.3579 -0.1080
27267SOL    HW188406   2.123   5.380   0.922  0.6848  0.9327  0.6189
27267SOL    HW288407   2.163   5.427   0.783  2.5525  0.8193  1.0986
27268SOL     OW88408   6.553   2.680  10.189  0.0691 -0.5244  0.4378
27268SOL    HW188409   6.521   2.656  10.276 -0.1863 -1.1276  0.1754
27268SOL    HW288410   6.640   2.640  10.183 -0.1714 -1.0087  0.1746
27269SOL     OW88411   6.713   5.586   8.335 -0.3535 -0.1315  0.5175
27269SOL    HW188412   6.631   5.635   8.321 -0.6537 -0.8797 -0.4146
27269SOL    HW288413   6.780   5.640   8.294 -0.4706  0.1861  0.7382
27270SOL     OW88414   8.100   3.950  10.900 -0.0649  0.4080 -0.0890
27270SOL    HW188415   8.052   4.032  10.913 -0.4288  0.0088  1.2577
27270SOL    HW288416   8.038   3.892  10.856  0.2586  0.8951 -1.2305
27271SOL     OW88417  12.696   5.981   6.658 -0.3049 -0.1283 -0.2507
27271SOL    HW188418  12.719   5.903   6.708  0.5507 -0.6089 -1.3578
27271SOL    HW288419  12.709   6.053   6.720  1.7871 -0.6109 -0.0582
27272SOL     OW88420   8.067  11.531   6.971  0.1428 -0.6912 -0.1389
27272SOL    HW188421   7.976  11.543   6.943  0.3471  0.0109 -0.5273
27272SOL    HW288422   8.114  11.510   6.891  1.1387  3.5143 -0.8751
27273SOL     OW88423   2.265   7.652  10.260  0.5390 -0.0748 -0.3347
27273SOL    HW188424   2.257   7.744  10.285 -0.8811 -0.5110  0.9794
27273SOL    HW288425   2.314   7.654  10.178  0.7050  1.8357 -0.2381
27274SOL     OW88426   5.497   9.393   5.353  0.6070  1.0183  0.3699
27274SOL    HW188427   5.438   9.320   5.369 -0.0414  1.4114 -0.1761
27274SOL    HW288428   5.548   9.402   5.434  1.4759 -0.7292  0.0682
27275SOL     OW88429   8.494  11.220   2.302  0.3405  0.6024 -0.1719
27275SOL    HW188430   8.470  11.151   2.239 -1.5111 -0.6664  1.7724
27275SOL    HW288431   8.543  11.283   2.250  4.3331 -3.2023 -1.7054
27276SOL     OW88432   3.618  10.653   2.775 -0.0407 -0.2283 -0.6438
27276SOL    HW188433   3.654  10.568   2.802 -0.3968 -0.1971 -0.0532
27276SOL    HW288434   3.586  10.638   2.686  0.9527 -0.3965 -0.9836
27277SOL     OW88435   1.794  12.018   4.522 -0.5830 -0.0620  0.4167
27277SOL    HW188436   1.737  11.999   4.596  0.5250  0.9757  1.5895
27277SOL    HW288437   1.774  12.109   4.500 -0.1565 -0.0301  0.1430
27278SOL     OW88438   3.136  12.190  10.094  0.0048  0.1794 -0.2824
27278SOL    HW188439   3.185  12.165  10.172 -1.0124 -0.6426  0.1109
27278SOL    HW288440   3.164  12.126  10.028  0.7897  0.8126 -0.5725
27279SOL     OW88441   5.765  11.771   0.245  0.1517 -0.6140 -0.0453
27279SOL    HW188442   5.808  11.687   0.229 -1.2385 -1.1949 -0.8711
27279SOL    HW288443   5.728  11.764   0.333 -1.7541 -1.7139 -0.8750
27280SOL     OW88444   6.782   3.034   9.712 -0.0270 -0.5454  0.2987
27280SOL    HW188445   6.845   3.106   9.719 -1.5123  1.3045 -3.2517
27280SOL    HW288446   6.699   3.072   9.739 -0.7453 -1.0683 -1.1301
27281SOL     OW88447   0.972  10.826   3.049 -0.5987 -0.4227 -0.5171
27281SOL    HW188448   0.882  10.855   3.040 -0.9578 -1.6031 -0.9415
27281SOL    HW288449   0.990  10.776   2.969  0.7147  0.4941 -0.8262
27282SOL     OW88450   8.725   0.210   6.828 -0.0528  0.0983 -0.0086
27282SOL    HW188451   8.815   0.204   6.794 -0.3288 -0.4741 -0.6704
27282SOL    HW288452   8.715   0.302   6.852  0.2836  0.4579 -1.1626
27283SOL     OW88453   3.093   3.150   0.142  0.2434  0.1521  0.0649
27283SOL    HW188454   3.167   3.091   0.132  0.1609 -0.0531  0.5894
27283SOL    HW288455   3.108   3.220   0.079  0.7239 -0.0461 -0.0411
27284SOL     OW88456  12.647   2.702   4.892 -0.2997 -0.1939  0.3577
27284SOL    HW188457  12.690   2.619   4.868 -1.7859 -0.4607 -1.6560
27284SOL    HW288458  12.715   2.768   4.877  0.5080 -0.9103  0.7243
27285SOL     OW88459   6.135   0.986   3.330  0.0884  0.8305  0.1877
27285SOL    HW188460   6.093   0.930   3.264  1.1188  0.8397 -0.4873
27285SOL    HW288461   6.067   1.050   3.352  0.4253  2.3248 -2.6250
27286SOL     OW88462   8.947   8.577  12.703 -0.1794 -0.6459 -0.1607
27286SOL    HW188463   8.911   8.492  12.676 -0.3882  0.1741 -2.7345
27286SOL    HW288464   8.944   8.631  12.624  1.6331  1.2155  0.9336
27287SOL     OW88465   8.632   1.871   6.436  0.1125  0.3034  0.1388
27287SOL    HW188466   8.698   1.887   6.369  0.7627 -0.2693  0.6397
27287SOL    HW288467   8.679   1.829   6.507 -1.2402 -2.4625 -0.4834
27288SOL     OW88468   1.773  11.323   2.897  0.5930  0.1804  0.8002
27288SOL    HW188469   1.689  11.300   2.857  0.1681 -0.2299  1.8966
27288SOL    HW288470   1.827  11.354   2.824  0.5745 -2.5940 -0.5154
27289SOL     OW88471   8.737   3.186  10.128  0.2850  0.0515  0.4185
27289SOL    HW188472   8.718   3.278  10.105  1.9183  0.0844 -1.0324
27289SOL    HW288473   8.816   3.191  10.181  1.3045 -0.5613 -0.9677
27290SOL     OW88474  11.061   5.822   1.055 -0.0503 -0.1353  0.0761
27290SOL    HW188475  10.978   5.841   1.100  0.5726  0.0004  1.2018
27290SOL    HW288476  11.128   5.842   1.120  0.8310 -1.1771 -0.4917
27291SOL     OW88477   7.806   9.131   7.861  0.0135 -0.2102 -0.6755
27291SOL    HW188478   7.725   9.138   7.810 -1.3584  0.1625  1.4248
27291SOL    HW288479   7.812   9.215   7.907  0.0295 -1.2739  1.3604
27292SOL     OW88480   5.430   2.528   5.625 -0.2809 -0.1659  0.2365
27292SOL    HW188481   5.398   2.521   5.535 -0.9434 -2.0261  0.5655
27292SOL    HW288482   5.443   2.437   5.653  1.1785  0.4097  1.5919
27293SOL     OW88483   2.031  10.800   1.319  0.5181  0.7205  0.1249
27293SOL    HW188484   2.034  10.713   1.280  1.6564  1.5109 -1.6504
27293SOL    HW288485   1.991  10.855   1.252  0.3704  1.6906  0.9859
27294SOL     OW88486   7.034   8.388   1.237 -0.2728 -0.1992  0.2654
27294SOL    HW188487   6.962   8.349   1.187  0.6595 -0.1578 -1.1654
27294SOL    HW288488   7.086   8.313   1.266 -1.5525 -0.3334  2.4722
27295SOL     OW88489   6.836   8.939   5.540 -0.4399  0.1281  0.0117
27295SOL    HW188490   6.835   9.009   5.475  1.0635 -0.4386 -0.6548
27295SOL    HW288491   6.798   8.864   5.494  0.5248 -0.2436 -0.1971
27296SOL     OW88492   8.142   6.822   3.505  0.1110 -0.0834 -0.0614
27296SOL    HW188493   8.084   6.768   3.450 -0.7701  1.3835 -0.6525
27296SOL    HW288494   8.186   6.759   3.562  0.1748 -1.5625 -1.6357
27297SOL     OW88495  12.455   4.189   1.442 -0.5112  0.3812  0.6146
27297SOL    HW188496  12.436   4.145   1.359  1.4679 -0.4131  0.5085
27297SOL    HW288497  12.402   4.142   1.507  1.7951 -2.6188  0.5756
27298SOL     OW88498   5.583  11.164   6.904 -0.5826 -0.1797  0.1104
27298SOL    HW188499   5.546  11.176   6.992 -0.7963 -0.4340  0.0537
27298SOL    HW288500   5.639  11.242   6.891 -1.8003  0.6747 -0.1783
27299SOL     OW88501  10.409   6.186  11.359 -0.0994  0.1455 -0.1914
27299SOL    HW188502  10.431   6.101  11.320  1.2946  0.3095  0.1948
27299SOL    HW288503  10.343   6.223  11.299  1.9080  0.3587 -2.4283
27300SOL     OW88504   9.981  10.800  11.578 -0.1689 -0.3734 -0.1312
27300SOL    HW188505  10.028  10.858  11.517  0.0115  0.3150  0.6485
27300SOL    HW288506  10.018  10.713  11.561 -0.0470 -0.1718 -0.9329
27301SOL     OW88507   1.559   4.756   9.235  0.1102 -0.2190  0.2205
27301SOL    HW188508   1.497   4.792   9.170 -0.1064 -1.9788 -0.6026
27301SOL    HW288509   1.559   4.821   9.306  0.5232  1.9128 -1.5956
27302SOL     OW88510   0.945   3.637   1.702 -0.9396  0.0479  0.1731
27302SOL    HW188511   0.987   3.552   1.687 -0.1816  0.7674 -2.3183
27302SOL    HW288512   0.851   3.617   1.706 -0.8483 -0.8692 -1.2767
27303SOL     OW88513  11.211  11.637   4.055 -0.3256  0.6470 -0.0243
27303SOL    HW188514  11.278  11.702   4.035 -0.8053  1.2614  0.3445
27303SOL    HW288515  11.134  11.688   4.079 -0.7649 -0.0566  0.0910
27304SOL     OW88516  12.383   4.389   0.249 -0.1488 -0.6161  0.2556
27304SOL    HW188517  12.333   4.461   0.288  2.5911  2.0632 -0.8398
27304SOL    HW288518  12.357   4.312   0.301 -4.0120  0.8221  0.8299
27305SOL     OW88519   4.184   7.509   4.599  0.2295 -0.0658 -0.3321
27305SOL    HW188520   4.196   7.469   4.685  1.0977  0.3627 -0.2432
27305SOL    HW288521   4.090   7.522   4.591  0.1536 -0.0084  0.5989
27306SOL     OW88522   3.325  10.772   5.454  0.2523 -0.2873  0.0148
27306SOL    HW188523   3.310  10.693   5.402  1.8637 -1.8705  1.8108
27306SOL    HW288524   3.413  10.760   5.491  1.1985  3.0393 -0.7859
27307SOL     OW88525   8.409   3.528   2.775 -0.3272 -0.6042  0.7692
27307SOL    HW188526   8.352   3.465   2.731 -0.8947  0.4502 -0.0695
27307SOL    HW288527   8.435   3.485   2.856 -2.5831 -1.0197  1.3391
27308SOL     OW88528   0.196   2.244   2.509  0.1129 -0.3365  0.1335
27308SOL    HW188529   0.142   2.248   2.431 -1.3388 -0.0196  1.1256
27308SOL    HW288530   0.197   2.152   2.533 -2.2122 -0.0776  1.5580
27309SOL     OW88531   1.579   2.596  12.654 -0.1973  0.0815  0.4457
27309SOL    HW188532   1.572   2.595  12.749 -0.8494  1.1917  0.4240
27309SOL    HW288533   1.633   2.672  12.634  0.0229 -0.2009 -0.0725
27310SOL     OW88534  10.756  10.631   3.265 -0.2995 -0.5131  0.0972
27310SOL    HW188535  10.695  10.631   3.192  0.4196  0.1493 -0.5146
27310SOL    HW288536  10.833  10.586   3.233 -0.3775 -1.1777  0.8055
27311SOL     OW88537   5.144   0.726   3.627  0.0336 -0.5674 -0.4167
27311SOL    HW188538   5.175   0.644   3.666  1.0879 -0.3498 -0.7485
27311SOL    HW288539   5.223   0.781   3.621 -0.3859 -0.0494 -1.4593
27312SOL     OW88540   7.678   3.086   0.962  0.2498  0.5272  0.5224
27312SOL    HW188541   7.591   3.122   0.949  0.5894  1.3233  0.3840
27312SOL    HW288542   7.705   3.120   1.048  0.2628 -0.0567  0.7551
27313SOL     OW88543   8.878   1.200   8.616 -0.0083 -0.3929 -0.1216
27313SOL    HW188544   8.952   1.142   8.634 -0.4864 -1.0526 -0.2795
27313SOL    HW288545   8.875   1.258   8.692  0.0207 -1.0410  0.3821
27314SOL     OW88546   7.286  10.879   0.101 -0.4230  0.5805  0.5768
27314SOL    HW188547   7.324  10.829   0.028 -1.0849 -0.6849  1.0672
27314SOL    HW288548   7.333  10.846   0.178  1.2316  2.8589  0.6430
27315SOL     OW88549  11.798   6.699   1.486 -0.0473 -0.3184 -0.0375
27315SOL    HW188550  11.823   6.733   1.572 -0.2630 -1.9156  0.6894
27315SOL    HW288551  11.858   6.625   1.471  0.3892  0.2895 -1.5449
27316SOL     OW88552   6.963   4.130   0.615 -0.4174 -0.0360 -0.2108
27316SOL    HW188553   7.025   4.188   0.570 -0.9052  0.7869  0.1397
27316SOL    HW288554   7.008   4.104   0.695 -0.6244  0.8197  0.2013
27317SOL     OW88555   2.613   6.697   7.938 -0.1300  0.1371  0.3343
27317SOL    HW188556   2.557   6.697   7.860 -1.0832  2.7882  0.9250
27317SOL    HW288557   2.686   6.640   7.915 -1.6578 -1.1987 -1.5137
27318SOL     OW88558  10.088   4.297   7.899  0.3109 -0.4911  0.2550
27318SOL    HW188559   9.994   4.296   7.878  0.1810 -2.4282  0.8045
27318SOL    HW288560  10.092   4.324   7.991  0.4794  1.6144 -0.3040
27319SOL     OW88561  12.409   1.155   8.507 -0.2967 -0.0955 -0.2584
27319SOL    HW188562  12.466   1.150   8.583 -0.4206 -1.3702 -0.2231
27319SOL    HW288563  12.463   1.126   8.434 -0.6407 -0.4526 -0.3740
27320SOL     OW88564   3.608   8.074   8.044  0.3642  0.0878 -0.2846
27320SOL    HW188565   3.691   8.073   7.997  1.1206  1.0234  0.9855
27320SOL    HW288566   3.628   8.113   8.129 -1.1472 -0.7143  0.4864
27321SOL     OW88567  11.942  11.734   9.884  0.0104  0.3102 -0.2008
27321SOL    HW188568  11.883  11.809   9.887  0.8757  1.0815 -1.4475
27321SOL    HW288569  11.884  11.658   9.876 -0.8961  0.7783  1.5678
27322SOL     OW88570   1.742   1.143   9.704 -0.0522  0.4534  0.1580
27322SOL    HW188571   1.679   1.091   9.654 -1.1743 -0.0781  2.0475
27322SOL    HW288572   1.823   1.092   9.700 -0.0705  0.5021 -1.2202
27323SOL     OW88573   2.493   0.825  11.992  0.2187 -0.3210  0.1191
27323SOL    HW188574   2.435   0.772  12.046 -1.2082  0.0219 -1.0067
27323SOL    HW288575   2.436   0.894  11.957  1.4595  0.4232 -0.4939
27324SOL     OW88576   1.800   1.623  12.657 -0.4120 -0.2343  0.2156
27324SOL    HW188577   1.765   1.547  12.612 -1.7217  0.4795 -0.0173
27324SOL    HW288578   1.724   1.678  12.675  0.5858  1.4850 -0.5136
27325SOL     OW88579  12.472  12.738  10.416  0.3020  0.2106  0.0803
27325SOL    HW188580  12.387  12.768  10.449  0.0922  1.3563 -1.3908
27325SOL    HW288581  12.454  12.652  10.378 -0.0515  0.1328  0.4263
27326SOL     OW88582   7.335   8.097   5.675  0.0590  0.2021  0.1142
27326SOL    HW188583   7.338   8.056   5.761 -2.4176 -0.5114 -0.0548
27326SOL    HW288584   7.268   8.048   5.627  0.0755  1.7219 -1.5979
27327SOL     OW88585   3.726   5.105   3.233  0.0558 -0.1758  0.5048
27327SOL    HW188586   3.645   5.148   3.205  0.5125  0.9497  0.8833
27327SOL    HW288587   3.702   5.012   3.240 -0.3713 -0.4255 -2.5874
27328SOL     OW88588  11.912  10.987   7.022  0.0347 -0.2608  0.3426
27328SOL    HW188589  11.907  10.914   7.083 -1.1195 -0.2984  0.2235
27328SOL    HW288590  11.892  11.064   7.075  2.2076  0.1491  0.6902
27329SOL     OW88591  11.111   4.527   2.818 -0.3005  0.0103  0.3872
27329SOL    HW188592  11.079   4.598   2.875  0.1644  2.0510 -1.7306
27329SOL    HW288593  11.172   4.478   2.873 -0.1506  1.6431  1.7584
27330SOL     OW88594   4.946   6.114   9.593 -0.2377  0.4905 -0.7084
27330SOL    HW188595   4.869   6.064   9.565 -0.7878  0.4887  0.7455
27330SOL    HW288596   4.930   6.203   9.561 -0.7956  0.4600 -0.5185
27331SOL     OW88597  10.632  11.837   6.948 -0.6920 -0.3084 -1.1333
27331SOL    HW188598  10.572  11.764   6.968 -0.7939 -0.0804 -0.5817
27331SOL    HW288599  10.578  11.900   6.901 -0.8732 -0.1267 -0.6838
27332SOL     OW88600   9.414  10.818   0.259 -0.2940  0.2087 -0.4698
27332SOL    HW188601   9.367  10.775   0.330 -1.3426  0.6121 -0.8853
27332SOL    HW288602   9.496  10.847   0.298  0.4601 -2.1019 -0.1716
27333SOL     OW88603   5.493   2.820   1.917  0.0623  0.3390  0.0264
27333SOL    HW188604   5.409   2.855   1.947 -0.5124 -1.4632  0.6553
27333SOL    HW288605   5.546   2.812   1.996  0.3932  0.3232 -0.1922
27334SOL     OW88606   2.126   0.254   1.552  0.1082  0.1624  0.0708
27334SOL    HW188607   2.131   0.344   1.585  1.4287  0.2684 -0.3807
27334SOL    HW288608   2.142   0.262   1.458 -1.0227 -0.4300 -0.1999
27335SOL     OW88609   0.489   1.440   2.517 -0.2522  0.2677  0.0479
27335SOL    HW188610   0.446   1.389   2.585 -0.0251  0.0342  0.0186
27335SOL    HW288611   0.494   1.380   2.442  0.6495  0.0927  0.2371
27336SOL     OW88612   8.551   0.259  10.131  0.0893 -0.2967  0.4922
27336SOL    HW188613   8.627   0.302  10.171  1.0028 -1.9836  0.6563
27336SOL    HW288614   8.586   0.219  10.052 -1.4089  1.8106 -1.3584
27337SOL     OW88615   8.591   7.373   8.665 -0.4178  0.1744 -0.0413
27337SOL    HW188616   8.561   7.343   8.751 -1.1840 -2.3984 -1.1048
27337SOL    HW288617   8.514   7.364   8.608  0.5631 -0.0764 -1.3852
27338SOL     OW88618   1.867  11.161   9.979  0.2077 -0.1352  0.0813
27338SOL    HW188619   1.827  11.159  10.066  0.2876 -3.0620  0.1532
27338SOL    HW288620   1.844  11.247   9.944  0.8739  1.4872  3.2587
27339SOL     OW88621   8.942  12.578  11.274 -0.1225 -0.3693 -0.6635
27339SOL    HW188622   8.955  12.616  11.187  0.3302  0.9603 -0.0308
27339SOL    HW288623   8.888  12.641  11.320 -0.9871 -1.4162 -0.1948
27340SOL     OW88624   4.286   5.415   3.009 -0.3269 -0.1637  0.8854
27340SOL    HW188625   4.307   5.462   3.090 -0.2405 -0.1756  0.8698
27340SOL    HW288626   4.198   5.381   3.023 -0.8403  0.9688  0.4531
27341SOL     OW88627  10.751   4.339   2.440 -0.1242 -0.0642 -0.4187
27341SOL    HW188628  10.743   4.253   2.482  1.1200 -0.5533 -1.1584
27341SOL    HW288629  10.666   4.352   2.398 -1.6942  0.7127  2.6486
27342SOL     OW88630   3.553   1.135  11.342 -0.0203  0.2361 -0.0884
27342SOL    HW188631   3.639   1.092  11.339  0.5983  1.3975  0.2808
27342SOL    HW288632   3.530   1.148  11.250  0.3412  0.2065 -0.1852
27343SOL     OW88633  12.224   9.078   5.784  0.4357 -0.0258 -0.0917
27343SOL    HW188634  12.155   9.015   5.763  2.0174 -1.6358 -0.7158
27343SOL    HW288635  12.177   9.157   5.811 -1.6517 -1.7244  1.5979
27344SOL     OW88636   1.250  11.975  10.466  0.5851  0.2299 -0.8907
27344SOL    HW188637   1.173  11.996  10.518  1.4442  0.4972  0.3052
27344SOL    HW288638   1.215  11.945  10.382 -0.7863  1.2175 -0.6900
27345SOL     OW88639   5.189   2.305   6.627  0.1569  0.0208  0.0289
27345SOL    HW188640   5.264   2.353   6.593 -0.2639  1.1418  0.6325
27345SOL    HW288641   5.227   2.231   6.675  0.9528  1.1987  1.2881
27346SOL     OW88642  10.232   2.793  12.776 -0.1692  0.0145 -0.0747
27346SOL    HW188643  10.255   2.840  12.856  2.9409  0.1409 -0.9201
27346SOL    HW288644  10.245   2.701  12.798 -0.4929 -0.0391 -0.1028
27347SOL     OW88645   4.078  10.997  10.161 -0.1816  0.0787 -0.5505
27347SOL    HW188646   4.120  10.926  10.209  0.0502  0.3122 -0.4111
27347SOL    HW288647   3.993  11.008  10.204 -0.2686 -0.1986 -0.6517
27348SOL     OW88648   7.978   3.321   5.257 -0.3984 -0.0339  0.1440
27348SOL    HW188649   8.015   3.245   5.302  0.4393  1.1292  1.4934
27348SOL    HW288650   7.885   3.299   5.246  0.3142 -2.4903 -2.1958
27349SOL     OW88651   3.128   5.762   7.605 -0.1379  1.0233  0.4630
27349SOL    HW188652   3.094   5.759   7.515 -0.4910  1.6715  0.5669
27349SOL    HW288653   3.134   5.856   7.625  1.9547  0.9465  0.3786
27350SOL     OW88654   6.061   8.605  10.240  0.0378 -0.1137 -0.3845
27350SOL    HW188655   6.024   8.564  10.162 -0.5356 -2.2900  0.9387
27350SOL    HW288656   6.017   8.561  10.313 -0.4854  2.7795  1.2145
27351SOL     OW88657  11.298   7.811   5.153 -0.5154 -0.1969 -0.1399
27351SOL    HW188658  11.330   7.900   5.164 -1.1180 -0.0933  0.9264
27351SOL    HW288659  11.359   7.757   5.204 -0.7928 -0.2506  0.1406
27352SOL     OW88660   7.245   4.166   0.720  0.3896  0.1982  0.1564
27352SOL    HW188661   7.243   4.189   0.627  0.6054 -0.1367  0.0696
27352SOL    HW288662   7.247   4.071   0.722 -0.4104  0.1802  0.5197
27353SOL     OW88663  10.304  10.170  10.548  0.0264 -0.6116 -0.3404
27353SOL    HW188664  10.253  10.250  10.561 -1.5497 -1.5899 -0.2581
27353SOL    HW288665  10.240  10.104  10.522  1.3557 -1.7518 -0.8873
27354SOL     OW88666   1.743   3.903   4.768 -0.0268 -0.0615 -0.4379
27354SOL    HW188667   1.771   3.968   4.832 -0.0785 -0.4251 -0.0394
27354SOL    HW288668   1.712   3.954   4.694  0.4887  0.3590 -0.3684
27355SOL     OW88669   2.753   4.852   6.221  0.2562  0.4378 -0.5241
27355SOL    HW188670   2.795   4.932   6.190  0.9757 -0.0035 -0.7100
27355SOL    HW288671   2.671   4.847   6.171  0.5855  0.6428 -1.0939
27356SOL     OW88672   5.078   4.210  11.186 -0.2160 -0.0889  0.3599
27356SOL    HW188673   5.056   4.209  11.279 -0.6529 -1.2941  0.2494
27356SOL    HW288674   5.058   4.122  11.155 -1.1551  0.6170 -1.1289
27357SOL     OW88675   5.581   5.729   5.452  0.0950  0.4555 -0.3179
27357SOL    HW188676   5.656   5.750   5.507 -1.3184  0.0612  1.9002
27357SOL    HW288677   5.519   5.801   5.468 -0.5910  0.0211 -0.9458
27358SOL     OW88678   8.170   4.535   4.015  0.1347  0.5382  0.2884
27358SOL    HW188679   8.166   4.622   4.055  2.3000  1.4471 -1.2294
27358SOL    HW288680   8.211   4.480   4.082  0.5269  1.1827  0.5940
27359SOL     OW88681   6.761   8.292   2.382  0.2200 -0.6255 -0.3569
27359SOL    HW188682   6.668   8.295   2.361  0.4041  0.0833 -1.1289
27359SOL    HW288683   6.771   8.358   2.452  0.1918 -0.4763 -0.4925
27360SOL     OW88684   6.829   4.997  10.087 -0.0614 -0.1353  0.0504
27360SOL    HW188685   6.770   5.019  10.159  0.2662  0.6326  0.0902
27360SOL    HW288686   6.916   5.023  10.118  0.1930 -0.5184 -0.3227
27361SOL     OW88687  11.595   3.254   1.545  0.6913 -0.2091  0.2739
27361SOL    HW188688  11.522   3.208   1.586  0.0531  0.3423 -0.2209
27361SOL    HW288689  11.672   3.200   1.564  0.5127  0.2934  2.6224
27362SOL     OW88690   0.045   1.935   3.828  0.0082  0.1173  0.3658
27362SOL    HW188691   0.113   1.996   3.858 -0.2657  0.6551 -0.0942
27362SOL    HW288692  -0.037   1.984   3.837 -0.4029 -0.7017  1.4138
27363SOL     OW88693   5.596   3.996   4.767  0.3054  0.2324  0.1586
27363SOL    HW188694   5.562   4.064   4.824 -0.4252 -0.0962  0.1336
27363SOL    HW288695   5.617   4.041   4.685  2.1087  0.8530  0.9156
27364SOL     OW88696   4.654   0.306   1.551 -0.4466 -0.0107  0.1415
27364SOL    HW188697   4.659   0.374   1.483 -2.7685  0.3503  0.2434
27364SOL    HW288698   4.691   0.347   1.629 -1.7365  1.1435  0.1782
27365SOL     OW88699  11.145  12.607   9.321 -0.0340 -0.1167 -0.0210
27365SOL    HW188700  11.121  12.609   9.228  0.4162 -0.9963 -0.1718
27365SOL    HW288701  11.066  12.633   9.367  0.1247  1.7133 -0.7059
27366SOL     OW88702  12.664   7.559   3.320 -0.5783  0.5635 -0.2867
27366SOL    HW188703  12.736   7.607   3.362 -1.5277  1.4020  0.4251
27366SOL    HW288704  12.702   7.474   3.299  0.2341  0.4661  1.3620
27367SOL     OW88705   8.806   1.611   6.484  0.5399  0.0187 -0.0270
27367SOL    HW188706   8.892   1.646   6.507  1.3200 -2.7681  1.7073
27367SOL    HW288707   8.824   1.524   6.447 -1.5429 -0.8607  0.8630
27368SOL     OW88708   5.826   3.085   1.319 -0.1676  0.0072  0.6368
27368SOL    HW188709   5.888   3.082   1.391 -1.8027 -4.5336  2.2441
27368SOL    HW288710   5.740   3.095   1.361 -0.9196  1.6322 -1.1182
27369SOL     OW88711   5.515  12.056  11.351  0.1763 -0.1501 -0.0287
27369SOL    HW188712   5.456  12.100  11.412 -0.4901  1.5502 -1.7830
27369SOL    HW288713   5.600  12.060  11.394 -0.4403  0.1040  1.2190
27370SOL     OW88714   9.743   2.200   5.068 -0.4810  0.3137  0.1154
27370SOL    HW188715   9.700   2.115   5.067  0.6337 -0.2721  0.6854
27370SOL    HW288716   9.808   2.194   5.138 -0.6534  1.7722  0.4496
27371SOL     OW88717   6.551   9.153   7.545 -0.0230  0.4375  0.2156
27371SOL    HW188718   6.552   9.192   7.632  0.0911  1.1299 -0.0869
27371SOL    HW288719   6.531   9.226   7.486  1.0695  0.2323 -0.4532
27372SOL     OW88720   1.132   2.132  10.385  0.1317 -0.4829  0.3373
27372SOL    HW188721   1.138   2.043  10.422 -2.2930 -0.1671  1.7388
27372SOL    HW288722   1.153   2.121  10.292 -0.3848 -2.6081  0.4130
27373SOL     OW88723  10.675   5.277   3.455 -0.1013 -0.0860  0.3548
27373SOL    HW188724  10.735   5.338   3.498 -0.4182  1.0863 -0.8262
27373SOL    HW288725  10.681   5.298   3.362 -0.4614 -1.6560 -0.0636
27374SOL     OW88726   3.742   7.738   2.061  0.0694  0.8935 -0.0959
27374SOL    HW188727   3.830   7.729   2.024  0.1899  0.1816  0.3439
27374SOL    HW288728   3.683   7.721   1.987  0.3068 -0.8632  0.0811
27375SOL     OW88729   2.269   7.137   2.180  0.2514 -0.1620 -0.0353
27375SOL    HW188730   2.270   7.215   2.235  0.1764  1.3799 -2.0993
27375SOL    HW288731   2.184   7.096   2.198  0.2416  0.2793  0.9806
27376SOL     OW88732   7.287   7.212   4.982 -0.1490  0.3709 -0.1397
27376SOL    HW188733   7.305   7.198   5.075 -0.7165 -0.6647 -0.1672
27376SOL    HW288734   7.219   7.147   4.961 -0.2119  0.7655 -1.2149
27377SOL     OW88735  11.197   8.287   3.631  0.5161 -0.6639  0.0091
27377SOL    HW188736  11.203   8.345   3.555 -4.2097 -0.3266 -0.3991
27377SOL    HW288737  11.182   8.200   3.594 -1.5214 -0.5471  0.4582
27378SOL     OW88738   4.223   8.365   4.387  0.4469 -0.4938 -0.1786
27378SOL    HW188739   4.277   8.405   4.455  0.8323  0.5732 -1.0731
27378SOL    HW288740   4.266   8.281   4.369  1.0203 -0.2639  0.0864
27379SOL     OW88741  11.989   2.702  11.609 -0.0011 -0.0057  0.0047
27379SOL    HW188742  11.966   2.781  11.658  0.3248 -0.9273  1.7607
27379SOL    HW288743  11.905   2.662  11.586 -0.1764 -0.0339  0.6644
27380SOL     OW88744   4.662  10.845   1.003 -0.0087 -0.1056  0.5138
27380SOL    HW188745   4.621  10.779   0.947  0.4647  0.2858 -0.3102
27380SOL    HW288746   4.750  10.811   1.020 -0.7071 -1.0592  2.4726
27381SOL     OW88747   4.113  12.683   2.115  0.3098  0.0379  0.9883
27381SOL    HW188748   4.073  12.765   2.144 -0.4317 -0.4579  1.3983
27381SOL    HW288749   4.109  12.627   2.192 -1.3518 -1.1829  0.0598
27382SOL     OW88750  10.000   8.823  11.353 -0.6228  0.2294 -0.2394
27382SOL    HW188751  10.046   8.789  11.276 -0.4304 -1.1002  0.4286
27382SOL    HW288752  10.066   8.818  11.423 -1.3476 -0.3727  0.4152
27383SOL     OW88753   0.114  11.456  10.305  0.0460 -0.8463 -0.1180
27383SOL    HW188754   0.056  11.512  10.253 -0.9158 -0.7215  1.0442
27383SOL    HW288755   0.058  11.383  10.332  0.7987 -1.4194 -0.0967
27384SOL     OW88756   2.488  11.726   2.885  1.0321  0.2187 -0.2751
27384SOL    HW188757   2.463  11.715   2.976  0.6488 -2.2868 -0.6094
27384SOL    HW288758   2.474  11.819   2.867 -2.4913  0.1106  1.1660
27385SOL     OW88759   6.308   5.801   9.868 -0.5502 -0.1097  0.0078
27385SOL    HW188760   6.350   5.739   9.809  1.5156  0.5810  0.6905
27385SOL    HW288761   6.281   5.874   9.812 -0.2756 -0.2856 -0.3583
27386SOL     OW88762  11.648   1.826   4.550  0.6564  0.7188  0.8251
27386SOL    HW188763  11.723   1.808   4.493  0.0880  1.2497 -0.1338
27386SOL    HW288764  11.684   1.825   4.638  1.4684 -0.7074  0.5198
27387SOL     OW88765   6.156   4.563   7.661 -0.4087 -0.3644  0.3849
27387SOL    HW188766   6.227   4.504   7.634 -1.5338 -1.0341 -1.2569
27387SOL    HW288767   6.197   4.649   7.664  0.8521 -0.9510  1.0856
27388SOL     OW88768  12.105   2.558  12.190 -0.0708  0.6130 -0.1874
27388SOL    HW188769  12.200   2.563  12.179  0.4377 -0.8922  2.5899
27388SOL    HW288770  12.093   2.526  12.279 -3.2238  1.0529 -0.3538
27389SOL     OW88771   5.842   7.381  10.695  0.6977 -0.3338 -0.1218
27389SOL    HW188772   5.802   7.432  10.625 -0.2306 -0.0345  0.6078
27389SOL    HW288773   5.879   7.305  10.651  0.3163 -0.0474 -0.9605
27390SOL     OW88774   1.176  11.351   3.358  0.5131  0.1087 -0.7580
27390SOL    HW188775   1.134  11.428   3.320 -3.0020 -0.3056  1.7502
27390SOL    HW288776   1.193  11.293   3.283  0.6213  2.1351 -2.3798
27391SOL     OW88777   0.652   1.181   0.573  0.4890  0.1705 -0.2126
27391SOL    HW188778   0.667   1.276   0.570 -0.6974  0.4989  1.9869
27391SOL    HW288779   0.683   1.154   0.659 -0.7627 -1.1198 -0.1233
27392SOL     OW88780   3.689   5.924   1.032  0.4999  0.1813  0.0938
27392SOL    HW188781   3.658   5.966   0.952  1.6036  0.2292 -0.3273
27392SOL    HW288782   3.782   5.906   1.015  0.9193  0.7971  1.6108
27393SOL     OW88783   3.707  10.533   3.482  0.6339 -0.3761 -0.1278
27393SOL    HW188784   3.785  10.554   3.534 -0.1050  1.6302  0.2443
27393SOL    HW288785   3.729  10.560   3.393 -0.0287  1.3917  0.2040
27394SOL     OW88786   6.981   0.535  10.782 -0.4159  0.5185 -0.3649
27394SOL    HW188787   7.027   0.616  10.758 -0.2747  0.1907 -1.2091
27394SOL    HW288788   7.016   0.469  10.723 -0.5543 -0.1643  0.3053
27395SOL     OW88789   7.817   6.841   8.508  0.2135 -0.1072 -0.0982
27395SOL    HW188790   7.858   6.911   8.560 -0.8488 -0.0427  0.6851
27395SOL    HW288791   7.745   6.810   8.563 -2.4275  1.4679 -2.4060
27396SOL     OW88792  12.142   3.906   6.778 -0.4397 -0.6303 -0.0481
27396SOL    HW188793  12.096   3.863   6.706 -0.8749 -0.4180  0.0919
27396SOL    HW288794  12.213   3.847   6.801  0.0656 -0.4267 -1.0324
27397SOL     OW88795   1.049  10.619   8.604  0.4478 -0.4446  0.0357
27397SOL    HW188796   1.085  10.531   8.617  1.0430 -0.2271 -0.0680
27397SOL    HW288797   1.059  10.634   8.510  0.7742 -0.0897  0.1268
27398SOL     OW88798  10.573   0.413   7.543  0.2981  0.2313 -0.4070
27398SOL    HW188799  10.587   0.489   7.599  1.0242 -1.2855  1.5471
27398SOL    HW288800  10.478   0.403   7.540  0.2626 -0.2004  1.3474
27399SOL     OW88801   6.361  10.546   2.432  0.4332 -0.3186  0.0991
27399SOL    HW188802   6.383  10.506   2.516  0.6490 -0.9896 -0.2689
27399SOL    HW288803   6.318  10.477   2.383 -0.6644  0.3780  0.0380
27400SOL     OW88804   2.037   0.422   5.928 -0.3843  0.2272 -0.2310
27400SOL    HW188805   2.036   0.331   5.958 -1.8197 -0.7456 -2.9382
27400SOL    HW288806   1.959   0.461   5.967 -1.1754 -0.4576 -1.1015
27401SOL     OW88807   9.891   7.885  11.764 -0.3024  0.6088  0.3028
27401SOL    HW188808   9.871   7.896  11.856 -1.8875  1.7817 -0.1426
27401SOL    HW288809   9.822   7.827  11.731  0.1482  0.3416 -0.2064
27402SOL     OW88810  11.432   5.462  11.317  0.2364  0.0953 -0.0663
27402SOL    HW188811  11.418   5.489  11.408 -1.0919 -0.6668 -0.0315
27402SOL    HW288812  11.509   5.513  11.289 -0.2646  1.4918  0.9787
27403SOL     OW88813   3.312  12.321   4.706  0.0340 -0.0844  0.1347
27403SOL    HW188814   3.262  12.282   4.778  0.8490  0.2215  0.8850
27403SOL    HW288815   3.285  12.272   4.628 -1.6313  0.2642  0.4655
27404SOL     OW88816   8.173   1.421   3.662  0.5940 -0.1495 -0.0304
27404SOL    HW188817   8.088   1.432   3.705 -0.3657 -0.4159 -1.7690
27404SOL    HW288818   8.223   1.498   3.688 -0.5907  0.5972  0.1127
27405SOL     OW88819  10.600   9.461   9.449  0.0504  0.2680 -0.3417
27405SOL    HW188820  10.656   9.423   9.517  0.3317  2.2013  0.5942
27405SOL    HW288821  10.660   9.508   9.391 -0.3867  0.4283 -0.6739
27406SOL     OW88822   9.277   8.155  10.960 -0.1353 -0.0376  0.7347
27406SOL    HW188823   9.214   8.199  11.016 -0.3129 -0.8315  1.1796
27406SOL    HW288824   9.268   8.198  10.875 -1.1903 -0.0480  0.8254
27407SOL     OW88825  11.252   8.844  12.534 -0.6384  0.0430 -0.1785
27407SOL    HW188826  11.332   8.833  12.482  0.1457 -0.1921  1.0201
27407SOL    HW288827  11.181   8.845  12.470  0.2184 -0.9821 -1.1804
27408SOL     OW88828   4.747   7.774   1.003 -0.4287  0.4221 -0.4235
27408SOL    HW188829   4.683   7.751   1.070 -0.3875 -0.5970 -0.7304
27408SOL    HW288830   4.776   7.691   0.967  0.8739  0.8794 -0.4881
27409SOL     OW88831   6.468   2.503   7.453 -0.1939  0.3263 -1.0010
27409SOL    HW188832   6.403   2.564   7.418 -1.3423 -0.0242  0.4360
27409SOL    HW288833   6.548   2.554   7.459 -1.3006  2.0110  0.8636
27410SOL     OW88834   4.104   5.494   3.470  0.2836 -0.6006 -0.4732
27410SOL    HW188835   4.143   5.581   3.478 -2.0950  0.7462 -2.3800
27410SOL    HW288836   4.015   5.504   3.503  0.0628 -2.4217 -0.4070
27411SOL     OW88837   2.999   0.747   4.402 -0.6181 -0.6174 -0.7901
27411SOL    HW188838   3.063   0.798   4.451 -0.2474 -0.5299 -1.3544
27411SOL    HW288839   2.989   0.666   4.451 -2.0825  0.4333  0.7789
27412SOL     OW88840   1.687   6.466  12.548  0.7403  0.6124 -0.1193
27412SOL    HW188841   1.633   6.419  12.612  1.5128  1.4271  1.1797
27412SOL    HW288842   1.649   6.554  12.545  0.1082  0.3213 -1.5594
27413SOL     OW88843   9.451   0.410  12.480 -0.4527  0.6227  0.3309
27413SOL    HW188844   9.410   0.329  12.511 -1.0203  1.0900  0.8527
27413SOL    HW288845   9.524   0.382  12.425  0.4462 -0.2462  1.9215
27414SOL     OW88846  12.278   4.120   6.963 -0.2819  0.1211 -0.2529
27414SOL    HW188847  12.307   4.058   6.896  1.4989 -0.0654  0.6491
27414SOL    HW288848  12.349   4.122   7.027 -1.4846  1.0725  1.1195
27415SOL     OW88849   3.892  11.023  11.673 -0.3406 -0.2951 -0.1590
27415SOL    HW188850   3.929  10.995  11.758  0.3969  0.0190 -0.3616
27415SOL    HW288851   3.847  11.105  11.693 -0.8245 -0.6141  0.0702
27416SOL     OW88852   6.626  11.548   0.982 -0.2947 -0.2864 -0.7132
27416SOL    HW188853   6.655  11.464   0.945  1.3648  0.1292 -0.4546
27416SOL    HW288854   6.708  11.593   1.005 -1.2084  0.2195  1.8387
27417SOL     OW88855   7.102   2.501  10.828  0.5709  0.2037 -0.2355
27417SOL    HW188856   7.143   2.415  10.817 -0.7058 -0.2442 -1.6818
27417SOL    HW288857   7.029   2.486  10.888  1.2854  0.6269  0.7820
27418SOL     OW88858  10.284   6.238  12.093  0.3020 -0.3673  0.0499
27418SOL    HW188859  10.309   6.229  12.185  0.3284 -0.4374  0.0353
27418SOL    HW288860  10.358   6.201  12.044 -0.1631 -1.3015  0.0260
27419SOL     OW88861   6.470   7.157  11.374 -0.2352  0.3825  0.5226
27419SOL    HW188862   6.525   7.079  11.385  0.1636  0.1655 -2.2447
27419SOL    HW288863   6.380   7.123  11.374 -0.0862 -0.0345 -0.1268
27420SOL     OW88864   2.971  11.739   9.662 -0.4068  0.1474 -0.0072
27420SOL    HW188865   3.044  11.797   9.685 -0.6659 -0.2216  1.8927
27420SOL    HW288866   2.894  11.781   9.699 -0.9087 -0.3645 -0.4462
27421SOL     OW88867   3.930   0.041   2.472  0.3895  0.0059  0.3397
27421SOL    HW188868   3.991   0.110   2.493 -0.8134  0.9197  0.9669
27421SOL    HW288869   3.882   0.073   2.395  0.7424 -0.7331 -0.2045
27422SOL     OW88870   2.178  10.191   2.222 -0.8369 -0.1817  0.2918
27422SOL    HW188871   2.115  10.125   2.250 -0.6971 -0.1977  0.5667
27422SOL    HW288872   2.218  10.223   2.303  0.0046 -0.6516  0.0760
27423SOL     OW88873   6.079   7.333   4.947  0.8471  0.1050 -0.9007
27423SOL    HW188874   6.061   7.408   5.003 -1.1865 -1.3228  0.5119
27423SOL    HW288875   6.146   7.283   4.994  0.3984 -0.2104 -0.5895
27424SOL     OW88876   5.423   9.526   7.550 -0.3186  0.2880  0.2867
27424SOL    HW188877   5.516   9.512   7.532  0.2081  1.2870  2.0051
27424SOL    HW288878   5.378   9.465   7.492  1.4465 -1.1043  0.2867
27425SOL     OW88879  10.132   2.726   9.047  0.4202 -0.3157 -0.5523
27425SOL    HW188880  10.179   2.646   9.026  0.6145  0.0626 -1.6108
27425SOL    HW288881  10.188   2.771   9.111 -0.7102 -2.0024  1.7567
27426SOL     OW88882   0.182  11.825  10.260 -0.3690 -0.3708 -0.0344
27426SOL    HW188883   0.125  11.761  10.216 -0.3826  2.5486 -5.0559
27426SOL    HW288884   0.139  11.909  10.245  2.4188  1.3858  1.1015
27427SOL     OW88885  11.480   2.009   1.396  0.3111  0.0835 -0.3664
27427SOL    HW188886  11.407   2.062   1.364 -0.9677 -0.8726  0.8784
27427SOL    HW288887  11.444   1.921   1.407  1.1045 -0.0251  2.0286
27428SOL     OW88888   1.348   1.372   4.461  0.2442 -0.2679 -0.2888
27428SOL    HW188889   1.344   1.423   4.541 -1.3058 -0.9168  0.0613
27428SOL    HW288890   1.304   1.426   4.395  0.3061 -0.3271 -0.3799
27429SOL     OW88891   5.496  10.812   3.864 -0.5546 -0.1326  0.1208
27429SOL    HW188892   5.408  10.813   3.827 -0.6599 -0.6001  0.3433
27429SOL    HW288893   5.481  10.800   3.958 -0.2165 -2.4290 -0.0579
27430SOL     OW88894   8.577   5.582   8.905  0.2007  0.5894  0.3610
27430SOL    HW188895   8.511   5.567   8.838  0.1554  1.1189  0.2856
27430SOL    HW288896   8.531   5.628   8.975  0.4120  0.6593  0.4543
27431SOL     OW88897   7.807   9.404   7.878  0.1192  0.0127 -0.0502
27431SOL    HW188898   7.790   9.448   7.795  0.4670 -0.0431 -0.1543
27431SOL    HW288899   7.884   9.449   7.914 -1.0778  1.2423  1.1098
27432SOL     OW88900   1.844   1.702  11.058 -0.4240  0.4526 -0.1568
27432SOL    HW188901   1.872   1.751  11.135  1.4429  1.5576 -1.4570
27432SOL    HW288902   1.903   1.627  11.054 -0.5053  0.4061 -0.5299
27433SOL     OW88903  11.128   9.967   1.542  0.1386  0.0275  0.5347
27433SOL    HW188904  11.067   9.998   1.609  0.4923  0.5110  0.6369
27433SOL    HW288905  11.210   9.951   1.588  0.5647  0.9541  0.1189
27434SOL     OW88906   9.484   1.523   2.219 -0.3958 -0.3334  0.3620
27434SOL    HW188907   9.471   1.613   2.249  0.4911 -0.0686 -0.0162
27434SOL    HW288908   9.474   1.528   2.124  0.6878 -0.4389  0.2352
27435SOL     OW88909   8.790   5.746  12.492  0.0597  0.3982 -0.8332
27435SOL    HW188910   8.762   5.727  12.581  0.0559 -1.1899 -1.1524
27435SOL    HW288911   8.736   5.820  12.464  0.8058  1.6242  0.8379
27436SOL     OW88912  12.159  12.233   1.269 -0.2540 -0.5836 -0.3094
27436SOL    HW188913  12.085  12.224   1.329 -0.5156 -0.4061 -0.6024
27436SOL    HW288914  12.129  12.293   1.202 -0.0649 -1.0004 -0.7798
27437SOL     OW88915   8.181  12.068   7.322 -0.3889 -0.2965 -0.1911
27437SOL    HW188916   8.244  12.044   7.391  1.1936  0.7245 -1.2044
27437SOL    HW288917   8.229  12.131   7.268 -2.1687  0.1775 -1.2775
27438SOL     OW88918   7.232   8.523  10.350  0.4991  0.2958  0.3525
27438SOL    HW188919   7.231   8.595  10.287  0.7410 -0.8825 -1.0253
27438SOL    HW288920   7.194   8.449  10.304  2.6254 -1.1812  0.8234
27439SOL     OW88921   6.386  12.342   6.767  0.0114 -0.1441  0.0100
27439SOL    HW188922   6.407  12.264   6.819 -0.5134 -0.3833 -0.1345
27439SOL    HW288923   6.428  12.326   6.683 -0.3279 -0.3993 -0.1133
27440SOL     OW88924   9.271  11.214   4.755 -0.3792 -0.4864  0.4334
27440SOL    HW188925   9.339  11.221   4.687  0.3191 -0.9439  1.0659
27440SOL    HW288926   9.272  11.298   4.799 -0.3402 -0.4353  0.3362
27441SOL     OW88927   4.739   6.272   8.029 -0.0497  0.2120 -0.0018
27441SOL    HW188928   4.718   6.317   7.948  1.3955 -0.7532 -0.9717
27441SOL    HW288929   4.775   6.188   8.001 -2.1414 -1.3817  1.7143
27442SOL     OW88930  11.835  12.550  12.320  0.6077  0.4509  0.6107
27442SOL    HW188931  11.851  12.456  12.319  0.9107  0.4382 -2.3413
27442SOL    HW288932  11.886  12.582  12.394 -0.1561 -1.7586  2.1892
27443SOL     OW88933   6.390  10.480   4.548  0.3053  0.1865  0.1240
27443SOL    HW188934   6.444  10.511   4.475  0.6418 -1.2925 -0.2715
27443SOL    HW288935   6.335  10.412   4.511 -1.3460  1.1613  0.7005
27444SOL     OW88936   8.356   1.413   6.511 -0.2403 -0.6195 -0.6201
27444SOL    HW188937   8.420   1.423   6.440  1.8820  0.3156  1.3000
27444SOL    HW288938   8.275   1.448   6.474  0.9993  0.7185 -2.3045
27445SOL     OW88939   5.812   0.852   9.476 -0.5740 -0.3333 -0.1434
27445SOL    HW188940   5.902   0.865   9.449 -0.2541  1.1658  1.4722
27445SOL    HW288941   5.765   0.928   9.439 -0.7889 -0.1074  0.5843
27446SOL     OW88942  12.297   2.174   4.638  0.2604 -0.5843  0.0996
27446SOL    HW188943  12.365   2.145   4.699  0.2553 -0.9668 -0.0769
27446SOL    HW288944  12.259   2.251   4.681  0.1335 -0.9522  0.6714
27447SOL     OW88945   3.710   3.459   0.206 -0.0891  0.0209  0.1337
27447SOL    HW188946   3.786   3.495   0.161 -0.5522  1.5999  0.5258
27447SOL    HW288947   3.688   3.379   0.157  0.9214  0.3362 -0.8799
27448SOL     OW88948   6.034  10.900   6.311  0.0458 -0.0279  0.3915
27448SOL    HW188949   6.079  10.920   6.228  0.1480  2.2185  0.9302
27448SOL    HW288950   5.942  10.919   6.294  0.2127  1.5741  1.0555
27449SOL     OW88951   8.671   6.079   9.340  0.1817 -0.4990  0.0198
27449SOL    HW188952   8.680   6.127   9.422 -1.7231  0.9803 -0.5539
27449SOL    HW288953   8.637   5.993   9.365  0.5867 -0.4227  0.8403
27450SOL     OW88954   0.167   7.181   5.264  0.2036 -0.1840 -0.2737
27450SOL    HW188955   0.172   7.095   5.223  1.2288 -0.9229  1.3124
27450SOL    HW288956   0.098   7.173   5.329 -0.1278  0.3904 -0.5498
27451SOL     OW88957   5.739   7.923   2.109 -0.6447 -0.2302 -0.2210
27451SOL    HW188958   5.775   8.009   2.130 -1.4349 -0.2290  1.2387
27451SOL    HW288959   5.671   7.909   2.174 -1.2190 -1.5368 -1.0661
27452SOL     OW88960   8.614   9.774   1.388 -0.2767 -0.3617  0.0112
27452SOL    HW188961   8.529   9.815   1.405  1.0350  2.4592  0.3160
27452SOL    HW288962   8.639   9.808   1.302  0.9415 -0.3925  0.3464
27453SOL     OW88963   0.437   2.941   9.221 -0.0242  0.5403  0.5031
27453SOL    HW188964   0.368   2.983   9.171 -0.3629 -0.0861  0.4365
27453SOL    HW288965   0.512   3.000   9.214 -0.4636  1.0752  0.3301
27454SOL     OW88966  12.552   7.526   1.525  0.2419 -0.6990  0.0586
27454SOL    HW188967  12.468   7.541   1.568  0.3074 -1.6933  0.5682
27454SOL    HW288968  12.540   7.557   1.436 -1.3330 -2.7123 -0.4839
27455SOL     OW88969   6.003   1.630   3.610 -0.1887  0.4548  0.2892
27455SOL    HW188970   5.921   1.676   3.591 -0.7177 -0.4426  0.3657
27455SOL    HW288971   6.044   1.681   3.680 -0.4325  1.1936 -0.0982
27456SOL     OW88972  11.073  11.123  10.808 -0.2631 -0.4967 -0.2664
27456SOL    HW188973  11.125  11.173  10.745  2.9182  0.1321  2.5922
27456SOL    HW288974  11.134  11.057  10.842 -1.6914 -0.5859  2.3391
27457SOL     OW88975   2.889   3.088   4.196 -0.9586  0.3195  0.2057
27457SOL    HW188976   2.837   3.021   4.239 -1.3617 -0.2118 -1.0576
27457SOL    HW288977   2.847   3.171   4.219 -1.0877  0.0624  0.9093
27458SOL     OW88978   0.748  10.987   2.756  0.1514 -0.1255 -0.0673
27458SOL    HW188979   0.752  11.045   2.832  0.1640  1.5889 -1.3194
27458SOL    HW288980   0.658  10.953   2.756 -0.0575  0.4291  0.3173
27459SOL     OW88981   0.181   4.365   7.034 -0.2889  0.4236 -0.3226
27459SOL    HW188982   0.087   4.350   7.026 -0.5026  0.5580  1.5261
27459SOL    HW288983   0.190   4.422   7.110  1.4287 -1.8329  1.3271
27460SOL     OW88984   1.388   4.533   4.361  0.1094  0.0215  0.0096
27460SOL    HW188985   1.432   4.574   4.436  1.0865  0.8939 -1.0086
27460SOL    HW288986   1.450   4.467   4.330 -1.2058 -1.9027  1.2686
27461SOL     OW88987   9.788  11.613   3.235  0.0889 -0.0298  0.4612
27461SOL    HW188988   9.759  11.568   3.315 -0.8372 -0.7536 -0.2712
27461SOL    HW288989   9.807  11.543   3.173  2.0680  0.4706  0.4171
27462SOL     OW88990  10.615  11.745   1.384 -0.2546  0.0600 -0.0970
27462SOL    HW188991  10.610  11.649   1.388 -1.9068  0.0616 -1.1298
27462SOL    HW288992  10.670  11.762   1.308  0.5527 -0.0474  0.4497
27463SOL     OW88993   6.344   8.552   4.642 -0.3368  0.1779  0.2309
27463SOL    HW188994   6.417   8.507   4.598 -1.1207  1.6018 -2.8400
27463SOL    HW288995   6.266   8.511   4.606 -1.0447  1.3102  0.4356
27464SOL     OW88996   1.366  12.052   2.697  0.5810  0.4998  0.2097
27464SOL    HW188997   1.318  12.113   2.641  0.3049 -0.5728 -0.7535
27464SOL    HW288998   1.442  12.025   2.645 -0.6075 -1.8772 -0.4457
27465SOL     OW88999   7.484  10.320   1.845  0.0837  0.4580  0.5014
27465SOL    HW189000   7.561  10.267   1.863 -0.2219  0.1773  0.9891
27465SOL    HW289001   7.501  10.358   1.759  2.2221  2.9846  1.9067
27466SOL     OW89002   8.561  11.333   9.538 -1.0538  0.1360 -0.4703
27466SOL    HW189003   8.628  11.314   9.472 -1.6989 -1.8813 -0.6188
27466SOL    HW289004   8.607  11.332   9.621 -0.3065  2.2992 -0.7873
27467SOL     OW89005   3.906   5.511   4.200 -0.4099 -0.4246  0.6324
27467SOL    HW189006   3.954   5.428   4.201  0.9597  0.3243  2.2323
27467SOL    HW289007   3.851   5.507   4.278 -0.4412  0.1072  0.6409
27468SOL     OW89008   5.879   3.958  10.637  0.1659  0.1784  0.2472
27468SOL    HW189009   5.892   4.044  10.677 -0.7078  0.2033  0.5167
27468SOL    HW289010   5.918   3.965  10.550 -0.2747  0.9910  0.1076
27469SOL     OW89011   5.749   5.153  10.048 -0.2517 -0.4033  0.1114
27469SOL    HW189012   5.761   5.059  10.062 -1.0681 -0.3351  1.4385
27469SOL    HW289013   5.780   5.193  10.129  0.4097  0.5191 -0.5706
27470SOL     OW89014   8.145   2.485  12.530  0.3017  0.3746 -0.2732
27470SOL    HW189015   8.213   2.503  12.595  2.1207 -1.6968 -1.4675
27470SOL    HW289016   8.098   2.409  12.566 -0.7706  1.1686  0.0602
27471SOL     OW89017   6.514  10.935   7.937 -0.4846 -0.0253 -0.7887
27471SOL    HW189018   6.515  11.008   7.999  1.3032 -1.2494  0.7219
27471SOL    HW289019   6.422  10.925   7.913 -1.2872  0.4134  1.8034
27472SOL     OW89020   7.841   8.647   4.492  0.8021 -0.1068  0.1861
27472SOL    HW189021   7.935   8.664   4.499  1.2031 -0.6111 -2.7854
27472SOL    HW289022   7.804   8.729   4.458  0.2421 -0.1428  0.6749
27473SOL     OW89023   8.549  12.760   2.671 -0.0835 -0.6850 -0.2357
27473SOL    HW189024   8.541  12.746   2.765 -0.4863 -2.0087 -0.4394
27473SOL    HW289025   8.514  12.680   2.632  2.3355 -1.2366 -1.4675
27474SOL     OW89026   6.936  10.308   7.884  0.5148  0.5224  0.0013
27474SOL    HW189027   7.012  10.365   7.892  1.9033 -1.2396  0.1681
27474SOL    HW289028   6.876  10.337   7.953  2.1488  0.3770  1.5433
27475SOL     OW89029   2.692   7.414   6.541 -0.3824  0.1985 -0.6078
27475SOL    HW189030   2.638   7.342   6.508  0.2725 -0.1763 -0.8791
27475SOL    HW289031   2.779   7.396   6.506  0.0026  0.5868  0.1488
27476SOL     OW89032   7.214   5.764   8.799  0.2984 -0.1742  0.1483
27476SOL    HW189033   7.143   5.826   8.783  1.1710  0.6998 -0.4962
27476SOL    HW289034   7.172   5.690   8.842 -1.0597  0.1718 -0.5138
27477SOL     OW89035  11.267  10.382   8.868  0.3091 -0.3208 -0.2780
27477SOL    HW189036  11.351  10.346   8.895  0.6124  0.9562  0.5765
27477SOL    HW289037  11.254  10.458   8.925  1.0391  2.7058 -3.8321
27478SOL     OW89038   1.394   5.137   2.175 -0.0704 -0.1373  0.2488
27478SOL    HW189039   1.391   5.047   2.142 -2.4641 -0.1777  0.3995
27478SOL    HW289040   1.361   5.190   2.102  1.1300  0.6153  0.2314
27479SOL     OW89041  12.364  11.361   7.651 -0.2933 -0.7131 -0.5268
27479SOL    HW189042  12.431  11.328   7.590  2.1579  0.8141  1.1535
27479SOL    HW289043  12.338  11.445   7.614 -0.3515 -0.7348 -0.5349
27480SOL     OW89044   4.683   5.030   6.195 -0.4725 -0.9253 -0.0255
27480SOL    HW189045   4.607   4.985   6.233 -1.4100  1.2713  0.8479
27480SOL    HW289046   4.661   5.123   6.199  1.9197 -0.2616 -0.5452
27481SOL     OW89047   7.966   4.160   7.840 -0.2260 -0.3002 -0.7036
27481SOL    HW189048   8.006   4.244   7.816  0.7734 -0.9463 -1.3741
27481SOL    HW289049   7.998   4.099   7.774 -1.1904 -1.1500 -0.3956
27482SOL     OW89050   4.181   0.504   9.336 -0.2508  0.1110 -0.2285
27482SOL    HW189051   4.218   0.534   9.419  0.5892 -0.6907 -0.2966
27482SOL    HW289052   4.095   0.546   9.332 -0.5415 -0.2522  1.3117
27483SOL     OW89053  10.359   4.324   1.918 -0.5184  0.2760  0.3886
27483SOL    HW189054  10.322   4.237   1.933 -0.2068  0.3571  1.7954
27483SOL    HW289055  10.452   4.315   1.939 -0.5329  0.9980  0.8045
27484SOL     OW89056   3.258   5.945   1.359  0.1312  0.1368 -0.1759
27484SOL    HW189057   3.296   5.862   1.332  0.4923  0.0654  0.5386
27484SOL    HW289058   3.304   5.968   1.440  1.4797  2.0320 -1.4069
27485SOL     OW89059   3.145   0.681  12.642 -0.2653 -0.7963 -0.2984
27485SOL    HW189060   3.113   0.738  12.712 -0.8938 -1.6263  0.1073
27485SOL    HW289061   3.068   0.662  12.589  0.1699 -0.3164 -1.1375
27486SOL     OW89062   8.642  12.184   0.564 -0.3878 -0.1921  0.1561
27486SOL    HW189063   8.614  12.275   0.563  1.1335  0.3208  0.6974
27486SOL    HW289064   8.608  12.147   0.482 -1.0256  0.8509 -0.0638
27487SOL     OW89065   6.977   0.551   5.359 -0.3905 -0.3906  0.3891
27487SOL    HW189066   6.924   0.567   5.437  1.7634  1.0228  1.6541
27487SOL    HW289067   7.055   0.506   5.392  0.1664 -0.5537 -1.0903
27488SOL     OW89068   3.416   9.493   8.303  0.0461 -0.1459 -0.6222
27488SOL    HW189069   3.334   9.495   8.353  1.1298  1.7764  1.2202
27488SOL    HW289070   3.472   9.431   8.350  0.3879  0.1536 -0.6282
27489SOL     OW89071  12.702   1.567   9.982  0.2978  0.0708  0.5637
27489SOL    HW189072  12.749   1.489  10.012 -0.4434 -0.2230  0.9670
27489SOL    HW289073  12.772   1.628   9.957  0.9116 -0.1750  1.6126
27490SOL     OW89074  12.501   4.698   0.453 -0.7512  0.5214 -0.3573
27490SOL    HW189075  12.482   4.726   0.542 -0.5438 -0.6128  0.0520
27490SOL    HW289076  12.423   4.652   0.424 -0.2114 -0.5701 -0.1415
27491SOL     OW89077   5.436   5.612   4.613 -0.3552 -0.0035  0.5815
27491SOL    HW189078   5.478   5.658   4.540  0.6959  2.1138  2.3786
27491SOL    HW289079   5.440   5.519   4.588  0.8542  0.5401 -1.5707
27492SOL     OW89080  10.549   0.743   4.466 -0.1882  0.4246 -0.5448
27492SOL    HW189081  10.559   0.724   4.373 -1.0327  1.3642 -0.8580
27492SOL    HW289082  10.519   0.834   4.468  0.1512  0.5290  0.6680
27493SOL     OW89083   9.177   4.491  10.844  0.3663  0.5417  0.0771
27493SOL    HW189084   9.270   4.478  10.865  0.0870  0.4396  1.2957
27493SOL    HW289085   9.178   4.541  10.762  1.5025  1.0736  0.3963
27494SOL     OW89086   2.170   1.512   5.743 -0.3865  0.2022  0.1535
27494SOL    HW189087   2.157   1.432   5.793  0.3576  0.7907  1.3359
27494SOL    HW289088   2.223   1.568   5.800 -0.3137  1.2730 -0.9173
27495SOL     OW89089   3.176  12.012   1.989 -0.4534 -0.1366 -0.5622
27495SOL    HW189090   3.108  12.006   2.056  1.3629  0.6656  1.4962
27495SOL    HW289091   3.212  11.923   1.983 -0.2029 -0.0834  0.0435
27496SOL     OW89092   9.181  10.240   2.968 -0.7226 -0.0905  0.0470
27496SOL    HW189093   9.191  10.163   2.912  0.8813 -1.0331  1.5391
27496SOL    HW289094   9.264  10.248   3.014 -1.0383  2.2267  0.3796
27497SOL     OW89095   2.056   2.774   2.415 -0.1424 -0.2435 -0.1286
27497SOL    HW189096   1.968   2.778   2.379  0.3565  0.0865 -1.3856
27497SOL    HW289097   2.061   2.689   2.459 -0.5901 -0.9666 -1.4239
27498SOL     OW89098   3.475   9.155   6.579  0.6865 -0.6663  0.2179
27498SOL    HW189099   3.416   9.080   6.588 -0.0925 -0.3540 -1.7680
27498SOL    HW289100   3.436   9.223   6.635  0.6971 -1.3347  1.0497
27499SOL     OW89101   3.095   3.988   8.286  0.3690 -0.0484 -0.6848
27499SOL    HW189102   3.025   4.037   8.329  1.4305  0.3195  0.6792
27499SOL    HW289103   3.094   4.019   8.195 -1.8618 -0.7817 -0.9850
27500SOL     OW89104   3.425  12.067   1.832  0.2851 -0.1060 -0.5081
27500SOL    HW189105   3.479  12.012   1.888  0.3561 -1.2264 -1.6289
27500SOL    HW289106   3.342  12.076   1.879  0.9086  0.3861  0.5302
27501SOL     OW89107  10.595   1.035   0.152  0.4060  0.3604  0.0599
27501SOL    HW189108  10.580   0.941   0.137 -0.4948  0.1826  1.8083
27501SOL    HW289109  10.622   1.040   0.243  3.0007  1.5909 -0.6942
27502SOL     OW89110   2.840   2.001   8.877  0.1076  0.0905 -0.7265
27502SOL    HW189111   2.880   2.088   8.877 -0.6346  0.4485 -1.2322
27502SOL    HW289112   2.899   1.947   8.929 -0.2033  1.2745  0.9553
27503SOL     OW89113   7.698  12.393   5.378  0.1084  0.5833 -0.0176
27503SOL    HW189114   7.730  12.326   5.318  0.5183  1.7659 -1.1718
27503SOL    HW289115   7.777  12.430   5.418 -0.1229  0.2702  0.7530
27504SOL     OW89116  10.221   9.701   1.005  0.3974 -0.1976  0.0137
27504SOL    HW189117  10.202   9.736   0.918 -0.0711  3.1644  1.3248
27504SOL    HW289118  10.145   9.647   1.027  1.0806 -2.1508 -2.0496
27505SOL     OW89119   5.294   4.892   9.660 -0.0774 -0.1893 -0.2021
27505SOL    HW189120   5.239   4.874   9.736  0.4905 -1.4630 -0.0589
27505SOL    HW289121   5.235   4.883   9.585  0.2638 -3.7962 -0.2227
27506SOL     OW89122  12.013   3.441  11.856 -0.0160 -0.1669 -0.4358
27506SOL    HW189123  11.979   3.530  11.855 -1.2711 -0.5522 -3.5343
27506SOL    HW289124  11.936   3.386  11.838  1.0769 -1.7235 -0.5725
27507SOL     OW89125   2.872   7.796   3.663  0.2581  0.3636 -0.2062
27507SOL    HW189126   2.921   7.783   3.745 -1.7524 -0.7239  0.8780
27507SOL    HW289127   2.807   7.862   3.685 -0.0141  0.3897 -1.0746
27508SOL     OW89128   4.241  10.829   6.689  0.5756  0.0341 -0.2688
27508SOL    HW189129   4.197  10.896   6.741  0.8305 -0.9961  1.3227
27508SOL    HW289130   4.187  10.750   6.701  2.1806 -0.9493  0.7549
27509SOL     OW89131  10.615   6.753   9.504 -0.1528  0.0665  0.3681
27509SOL    HW189132  10.556   6.819   9.541  1.9456  1.7903  0.8404
27509SOL    HW289133  10.559   6.677   9.489 -1.9991  0.7283  3.1190
27510SOL     OW89134   9.998  10.179   4.096  0.4043  0.6276 -0.3869
27510SOL    HW189135   9.945  10.227   4.159 -0.6773 -0.2378 -0.5968
27510SOL    HW289136   9.999  10.234   4.018 -0.9535  0.2737 -0.6791
27511SOL     OW89137   5.034   7.886   4.481  0.4446  0.3571  0.4303
27511SOL    HW189138   5.127   7.886   4.460  0.7908  0.3713  1.8414
27511SOL    HW289139   4.999   7.810   4.436  1.0226  0.6711 -0.5682
27512SOL     OW89140   7.785  11.834   7.168  0.1574  0.0333 -0.0060
27512SOL    HW189141   7.697  11.870   7.180  0.4614  0.6491  0.4745
27512SOL    HW289142   7.773  11.739   7.169 -0.5512  0.1170 -0.3563
27513SOL     OW89143  11.630   6.327   8.859  0.4879  0.2479  0.1736
27513SOL    HW189144  11.689   6.370   8.797  0.0557 -0.6584 -0.9168
27513SOL    HW289145  11.549   6.313   8.809 -0.1464  0.1774  1.1948
27514SOL     OW89146  12.113   5.881  11.203  0.3666 -0.3074 -0.2094
27514SOL    HW189147  12.103   5.787  11.220 -2.3186  0.0826  1.0121
27514SOL    HW289148  12.200   5.903  11.234  1.3424 -2.4976 -1.2010
27515SOL     OW89149   7.749   6.082   0.002  0.0304 -0.1745 -0.1743
27515SOL    HW189150   7.811   6.154   0.010 -0.2904 -0.0340  1.2131
27515SOL    HW289151   7.771   6.022   0.074 -0.9346 -0.5087 -0.1407
27516SOL     OW89152  10.455  11.605  12.103  0.5660 -0.4181  0.1782
27516SOL    HW189153  10.392  11.539  12.133 -0.7431  0.5798 -0.2524
27516SOL    HW289154  10.496  11.566  12.026  1.0825 -1.4132  0.9398
27517SOL     OW89155   9.824   8.979   6.708  0.4093  0.8542  0.5559
27517SOL    HW189156   9.908   9.021   6.728  0.9299 -0.0321  0.3227
27517SOL    HW289157   9.810   8.995   6.615  0.6341  0.4864  0.4549
27518SOL     OW89158   8.446   7.103  11.716  0.0718  0.3370  0.2186
27518SOL    HW189159   8.437   7.197  11.700  0.3137  0.5801  1.4383
27518SOL    HW289160   8.426   7.092  11.809 -0.8273 -0.9497 -0.1016
27519SOL     OW89161   8.633   9.669  11.322 -0.5346 -0.4573  0.0989
27519SOL    HW189162   8.689   9.694  11.248 -0.5791 -0.8430 -0.0669
27519SOL    HW289163   8.564   9.735  11.324 -0.1646 -0.0748  0.1998
27520SOL     OW89164   8.814   8.870   0.345 -0.1801  0.2458 -0.7110
27520SOL    HW189165   8.909   8.866   0.356 -0.2203 -2.6487 -0.7938
27520SOL    HW289166   8.779   8.886   0.433  0.3440  0.2858 -0.5105
27521SOL     OW89167   9.378   1.531   0.431  0.5290 -0.2834  0.2726
27521SOL    HW189168   9.405   1.605   0.485 -0.3801  0.3681 -0.1359
27521SOL    HW289169   9.285   1.547   0.413  0.3719 -1.4136 -0.0081
27522SOL     OW89170   9.259  12.361   5.593  0.1430  0.0696 -0.1742
27522SOL    HW189171   9.283  12.418   5.520 -0.1186 -2.6714 -2.5774
27522SOL    HW289172   9.342  12.320   5.619 -0.1407 -0.8926 -0.7397
27523SOL     OW89173   5.631   2.710   5.299  0.2925  0.5631  0.3880
27523SOL    HW189174   5.709   2.681   5.346 -0.9282 -0.6737  1.7628
27523SOL    HW289175   5.603   2.633   5.250  0.8604  1.4919 -1.4970
27524SOL     OW89176   6.713   6.670   5.678  0.1924 -0.0082  0.1648
27524SOL    HW189177   6.745   6.748   5.634  1.4804 -0.2394  0.6607
27524SOL    HW289178   6.667   6.702   5.755  0.9212  0.2667  0.4934
27525SOL     OW89179   6.359  11.716   6.537  0.1286  0.1671  0.0882
27525SOL    HW189180   6.376  11.671   6.454  2.0179  1.0047 -0.0296
27525SOL    HW289181   6.442  11.758   6.559 -0.9647  1.8312  1.2785
27526SOL     OW89182   1.532  11.719   9.021  0.5642  0.2533  0.0085
27526SOL    HW189183   1.528  11.814   9.029  0.2152  0.2207  0.2476
27526SOL    HW289184   1.623  11.700   9.002  0.3560  0.7629 -1.6671
27527SOL     OW89185  10.240   9.276   5.062  0.6033 -0.4861 -0.1844
27527SOL    HW189186  10.315   9.282   5.121  0.2844  0.9747  0.1081
27527SOL    HW289187  10.224   9.366   5.033  0.9066 -1.1810 -2.7481
27528SOL     OW89188   3.346   7.135   6.228  1.1122 -0.2685 -0.2531
27528SOL    HW189189   3.397   7.155   6.306  0.5648  1.1485 -0.2262
27528SOL    HW289190   3.396   7.172   6.156  0.9168 -0.3068 -0.4101
27529SOL     OW89191  12.447   6.464   4.045  0.1825 -0.0861  0.0561
27529SOL    HW189192  12.482   6.470   4.134 -0.6949 -0.7803  0.4614
27529SOL    HW289193  12.507   6.405   4.000  0.8667  0.5938  0.0578
27530SOL     OW89194   2.835   0.265  11.371 -0.5295  0.2209  0.3048
27530SOL    HW189195   2.857   0.287  11.280 -1.4839 -0.1039 -0.0248
27530SOL    HW289196   2.739   0.265  11.372 -0.5304 -0.6050  1.1128
27531SOL     OW89197  12.369   0.500  11.994 -0.1489  0.2218  0.6515
27531SOL    HW189198  12.460   0.527  11.982 -0.2553 -0.2911 -1.9625
27531SOL    HW289199  12.331   0.568  12.049  1.4390  1.2635  0.5417
27532SOL     OW89200   6.699   0.612  10.810  0.8377 -0.0942  0.6511
27532SOL    HW189201   6.775   0.665  10.787  1.5679 -0.3917  2.2481
27532SOL    HW289202   6.728   0.522  10.798  0.3333 -0.2037  0.1580
27533SOL     OW89203   6.691   6.729   3.912  0.1639  0.8088 -0.1712
27533SOL    HW189204   6.771   6.781   3.908 -0.3156  1.4857 -2.5625
27533SOL    HW289205   6.621   6.795   3.912 -0.4306  0.2178  1.4163
27534SOL     OW89206   2.455   1.034   2.786 -0.1456  0.3517  0.0761
27534SOL    HW189207   2.385   1.022   2.723 -0.0823  0.8623 -0.0953
27534SOL    HW289208   2.434   0.975   2.858 -0.1267 -0.3574 -0.4997
27535SOL     OW89209  12.732   3.408   5.141  0.5088 -0.2823 -0.1821
27535SOL    HW189210  12.679   3.486   5.160 -0.2223 -0.6988 -0.4608
27535SOL    HW289211  12.744   3.409   5.046 -1.2806 -1.5894 -0.4820
27536SOL     OW89212  10.733  11.414   4.670 -0.0148  0.2340 -0.5737
27536SOL    HW189213  10.672  11.487   4.680  0.6352  0.8684 -1.0706
27536SOL    HW289214  10.820  11.455   4.673  0.3503 -0.3772 -1.8182
27537SOL     OW89215   3.946  11.249   8.939  0.2493 -0.0801  0.9268
27537SOL    HW189216   3.914  11.287   8.857 -1.0397  1.8029  2.2484
27537SOL    HW289217   4.019  11.304   8.965  0.8904 -0.8899  0.9043
27538SOL     OW89218   6.995   2.979   8.772  0.8636  0.3476 -0.9170
27538SOL    HW189219   6.925   2.935   8.820  1.0899 -0.2744 -1.1483
27538SOL    HW289220   6.979   3.073   8.788  0.3754  0.1910 -0.4242
27539SOL     OW89221   5.941  12.523  11.861  0.3950  0.9982  0.1558
27539SOL    HW189222   5.987  12.563  11.934  1.2458 -1.9001  1.3729
27539SOL    HW289223   5.848  12.536  11.881  0.6248  0.6121  1.5872
27540SOL     OW89224   9.166   5.677  10.283 -0.1730 -0.0352  0.4293
27540SOL    HW189225   9.146   5.585  10.301 -2.4640  0.7514  2.3682
27540SOL    HW289226   9.148   5.687  10.189 -1.2699 -1.2599  0.4763
27541SOL     OW89227   7.513   0.245   5.325 -0.3498 -0.4787  0.0234
27541SOL    HW189228   7.605   0.228   5.306  0.2199  0.3029  1.8510
27541SOL    HW289229   7.470   0.160   5.315  0.5760 -0.8594 -0.7905
27542SOL     OW89230   2.041   0.048   8.353 -0.0660 -0.1918  0.0535
27542SOL    HW189231   2.115   0.107   8.341  1.4608 -1.8025  1.0831
27542SOL    HW289232   2.079  -0.040   8.348 -1.9370 -1.0744  0.4624
27543SOL     OW89233  12.015   6.001   4.730  0.0223  0.2547 -0.2263
27543SOL    HW189234  12.034   6.070   4.666 -0.9616  0.3328 -0.4456
27543SOL    HW289235  12.047   5.921   4.688  0.6777  0.4917 -0.1981
27544SOL     OW89236   1.623   2.313  11.604 -0.6130 -0.1511  0.1775
27544SOL    HW189237   1.627   2.219  11.624 -0.6970 -0.2080 -0.0788
27544SOL    HW289238   1.564   2.348  11.670 -0.5669 -0.2748  0.2866
27545SOL     OW89239   7.842   3.644  11.026  0.0645  0.1793 -0.2442
27545SOL    HW189240   7.776   3.594  10.977  1.0296  0.9435 -2.4593
27545SOL    HW289241   7.816   3.635  11.117 -1.9455 -1.2021 -0.8843
27546SOL     OW89242   1.290   1.177  10.177 -0.3758 -0.0452  0.1304
27546SOL    HW189243   1.330   1.242  10.119 -0.1584  0.5323  0.9098
27546SOL    HW289244   1.292   1.218  10.264  2.0939 -2.0945  1.1488
27547SOL     OW89245  10.559   2.129   6.367  0.5337  0.2289  0.1187
27547SOL    HW189246  10.505   2.190   6.316  0.6708  0.9916  0.8533
27547SOL    HW289247  10.525   2.043   6.345  1.0477  0.4760 -1.7920
27548SOL     OW89248  11.115   9.438   5.064  0.1768  0.0767  0.4104
27548SOL    HW189249  11.186   9.412   5.006  0.4268 -0.6296  1.0211
27548SOL    HW289250  11.069   9.508   5.017  0.0771 -0.8187 -0.8502
27549SOL     OW89251   4.885   1.082   0.584 -0.6642  0.5324  0.3583
27549SOL    HW189252   4.975   1.048   0.580 -0.8076  0.2898 -2.1612
27549SOL    HW289253   4.834   1.010   0.621  0.0133  0.3293  0.9193
27550SOL     OW89254   9.539   2.616   2.388 -0.3850  0.3477  0.4119
27550SOL    HW189255   9.464   2.667   2.357 -0.4134 -0.7651 -1.5159
27550SOL    HW289256   9.566   2.564   2.312  1.5835 -0.2002  1.4095
27551SOL     OW89257   4.478   5.271   5.308 -0.0200  0.2794 -0.0951
27551SOL    HW189258   4.455   5.200   5.248 -1.8552  0.3734  0.4383
27551SOL    HW289259   4.552   5.315   5.266 -1.9099  1.0250 -2.8891
27552SOL     OW89260  11.372  11.475   7.787  0.4596  0.3452  0.0710
27552SOL    HW189261  11.350  11.387   7.817 -2.0751  0.4375 -1.2294
27552SOL    HW289262  11.382  11.526   7.867  2.4355 -1.1481  0.8656
27553SOL     OW89263   2.077   5.755   3.846 -0.6807 -0.3049 -0.4209
27553SOL    HW189264   2.066   5.819   3.916  1.8980 -0.7165  0.4613
27553SOL    HW289265   1.992   5.753   3.802 -2.4732 -0.1271  2.7395
27554SOL     OW89266   6.377  10.228   0.380  0.2104 -0.6591 -0.2215
27554SOL    HW189267   6.470  10.241   0.361  0.0340  0.3407 -0.4249
27554SOL    HW289268   6.361  10.136   0.357  1.6689 -1.5427  2.0071
27555SOL     OW89269   2.375   6.471  11.505 -0.1215 -0.4375  0.5883
27555SOL    HW189270   2.308   6.453  11.439 -1.0759 -0.4242  1.5199
27555SOL    HW289271   2.428   6.391  11.508 -0.8431 -0.9271  0.6793
27556SOL     OW89272   8.623   5.782   3.026  0.1943  0.0482 -0.5060
27556SOL    HW189273   8.625   5.692   2.994 -1.3486  0.4310 -1.7837
27556SOL    HW289274   8.684   5.829   2.968  1.6631 -0.2910  0.6991
27557SOL     OW89275   8.000  12.551   9.976 -0.7838 -0.6007  0.0954
27557SOL    HW189276   7.998  12.592   9.889 -3.5646 -0.4115  0.1630
27557SOL    HW289277   8.019  12.623  10.036  1.5718 -0.8010 -0.3147
27558SOL     OW89278   5.091   5.813   6.397 -0.2690 -0.0262 -0.5097
27558SOL    HW189279   5.098   5.845   6.307 -2.7470  1.0217 -0.4152
27558SOL    HW289280   5.081   5.718   6.388  1.0439 -0.1190 -1.2078
27559SOL     OW89281   4.078   0.580   4.201 -0.3979  0.0693 -0.0476
27559SOL    HW189282   4.119   0.519   4.140 -0.8896 -0.7070  0.3820
27559SOL    HW289283   3.984   0.573   4.183 -0.4362  1.0927 -0.3424
27560SOL     OW89284   7.866   3.064   2.561 -0.0201  0.0027  0.1587
27560SOL    HW189285   7.818   3.140   2.594 -0.6957 -0.1196 -0.5109
27560SOL    HW289286   7.810   3.028   2.492  0.0272 -1.4345  0.8293
27561SOL     OW89287   8.196  11.582  11.096  0.5416  0.0798 -0.5369
27561SOL    HW189288   8.210  11.583  11.001  1.8510 -0.3046 -0.3640
27561SOL    HW289289   8.267  11.635  11.131 -1.7971  3.1411  0.0676
27562SOL     OW89290  11.018  10.881  11.559  0.2091  0.1639 -0.3049
27562SOL    HW189291  11.029  10.786  11.561  0.4742  0.2073  1.0664
27562SOL    HW289292  11.005  10.902  11.467 -3.1094 -1.5682 -0.3759
27563SOL     OW89293   3.832   9.880  11.382  0.1438  0.4333  0.3598
27563SOL    HW189294   3.873   9.797  11.404  1.8587  1.1302 -0.0227
27563SOL    HW289295   3.771   9.897  11.454  1.5476  0.0017  1.6836
27564SOL     OW89296   2.881   3.106  11.763 -0.3918 -0.4443  0.4033
27564SOL    HW189297   2.880   3.133  11.671 -3.0182 -0.3268  0.4033
27564SOL    HW289298   2.973   3.084  11.781  0.2171 -0.2227 -2.1518
27565SOL     OW89299   8.904  11.254   9.216 -0.5111 -0.1659 -0.1973
27565SOL    HW189300   8.848  11.322   9.179 -0.4785  0.6604  1.1839
27565SOL    HW289301   8.867  11.238   9.303  0.6669 -0.4935  0.2614
27566SOL     OW89302  12.110   5.012   7.257  0.3868 -0.0797  0.3533
27566SOL    HW189303  12.050   4.937   7.255  0.0857  0.1690 -0.2991
27566SOL    HW289304  12.195   4.975   7.232  0.0401 -0.0442 -0.9698
27567SOL     OW89305  11.247   2.050   5.306 -0.4390  0.0123 -0.4635
27567SOL    HW189306  11.282   2.098   5.231  0.7733 -0.6371 -0.3328
27567SOL    HW289307  11.317   2.051   5.370 -0.8902 -0.7822  0.0604
27568SOL     OW89308   0.302   8.806   8.147 -0.0976  0.0758  0.0920
27568SOL    HW189309   0.351   8.742   8.096 -0.1115  0.6579 -0.6641
27568SOL    HW289310   0.210   8.788   8.127 -0.1871 -0.7656  1.2082
27569SOL     OW89311  10.584  12.602   2.968 -0.2634  0.6253 -0.4277
27569SOL    HW189312  10.626  12.621   2.884 -0.2969  2.8597 -0.0234
27569SOL    HW289313  10.657  12.600   3.031 -0.5093  3.6566  0.1397
27570SOL     OW89314  11.247   9.209  11.665 -0.2722  0.2561 -0.1625
27570SOL    HW189315  11.195   9.249  11.734 -2.0890 -2.0906 -0.0628
27570SOL    HW289316  11.290   9.135  11.707  1.5937  0.9146 -0.7622
27571SOL     OW89317   2.404   7.534   4.632  0.5099  0.2362  0.5384
27571SOL    HW189318   2.395   7.628   4.641 -0.1266  0.1237  1.2236
27571SOL    HW289319   2.361   7.498   4.710  0.4636 -0.6242  0.1345
27572SOL     OW89320  10.464   9.872  12.277 -0.4090  0.5069  0.3254
27572SOL    HW189321  10.545   9.922  12.271 -0.8779  1.2593 -0.0254
27572SOL    HW289322  10.468   9.810  12.204 -0.0834  0.4508  0.3928
27573SOL     OW89323   4.829   7.595   8.930  0.5341 -0.4104 -0.0905
27573SOL    HW189324   4.847   7.564   9.019 -0.3784 -1.1123 -0.1352
27573SOL    HW289325   4.885   7.672   8.920 -0.1824  0.3770  1.5193
27574SOL     OW89326   5.106   5.121   2.315  0.1776  0.4819  0.3360
27574SOL    HW189327   5.143   5.033   2.326 -2.1891 -0.6534 -0.1366
27574SOL    HW289328   5.051   5.134   2.393 -2.3334 -0.0500 -1.2100
27575SOL     OW89329   6.668   7.170  10.885 -0.2601  0.2693  0.2404
27575SOL    HW189330   6.651   7.150  10.793 -0.6576  1.0905  0.1193
27575SOL    HW289331   6.589   7.141  10.931 -0.0533 -0.1596  0.3262
27576SOL     OW89332   7.928   0.013   1.525 -0.5149  0.2264 -0.0834
27576SOL    HW189333   7.889   0.060   1.598  1.3208  1.1340  0.3818
27576SOL    HW289334   7.939  -0.077   1.556  0.8421  0.7416  1.0635
27577SOL     OW89335   1.345   8.399  11.977 -0.6683 -0.5191  0.2459
27577SOL    HW189336   1.376   8.328  11.922  0.4133 -1.1386  1.5870
27577SOL    HW289337   1.391   8.477  11.944 -2.2154 -0.3003 -1.5284
27578SOL     OW89338   8.851   0.104   5.005 -0.0932 -0.0172 -0.1903
27578SOL    HW189339   8.899   0.045   4.947 -0.6758 -0.9468  0.2301
27578SOL    HW289340   8.908   0.180   5.016  2.9229 -2.4040  2.9331
27579SOL     OW89341   6.451   5.890   6.735  0.0817 -0.4371  0.1799
27579SOL    HW189342   6.435   5.984   6.723  0.5643 -0.3671  0.0545
27579SOL    HW289343   6.474   5.881   6.827  1.0426 -0.2717 -0.0257
27580SOL     OW89344   7.066   8.876  12.351 -0.8824  0.1921  0.0185
27580SOL    HW189345   7.160   8.878  12.370 -1.2475  1.2159  1.9773
27580SOL    HW289346   7.045   8.783  12.345  0.1728 -0.0580 -0.0236
27581SOL     OW89347   8.656   7.636   0.933  0.2343  0.0209 -0.2497
27581SOL    HW189348   8.691   7.725   0.938 -0.1798  0.2530 -1.2055
27581SOL    HW289349   8.600   7.628   1.011 -0.9780  1.1766 -0.9600
27582SOL     OW89350   4.985   2.207   5.709  0.4462 -0.1676 -0.4195
27582SOL    HW189351   4.957   2.255   5.631  0.9127 -0.8933 -1.0578
27582SOL    HW289352   5.024   2.273   5.766 -1.9543  0.7871  0.2581
27583SOL     OW89353   3.934   8.695   8.515  0.5555 -0.3192 -0.1378
27583SOL    HW189354   3.949   8.619   8.459  0.0868 -0.9384  0.5699
27583SOL    HW289355   3.985   8.765   8.474  0.0113 -0.6830 -1.4945
27584SOL     OW89356   1.810   7.320  10.828  0.1222 -0.0490 -0.2425
27584SOL    HW189357   1.781   7.384  10.892  0.2905 -1.1247  0.9511
27584SOL    HW289358   1.732   7.300  10.776  0.0522  1.0369 -0.5918
27585SOL     OW89359  10.137  11.569  10.150  0.3294 -0.7732  0.0434
27585SOL    HW189360  10.092  11.488  10.125 -1.5222  0.0523  0.5025
27585SOL    HW289361  10.080  11.609  10.216  0.0669  1.9265 -1.6508
27586SOL     OW89362   6.948   9.267   4.536  0.2530 -0.7880  0.0244
27586SOL    HW189363   6.933   9.176   4.511 -1.3816 -0.3996 -0.5297
27586SOL    HW289364   7.033   9.266   4.580 -0.6321 -2.9589  1.9066
27587SOL     OW89365  11.424   7.877   1.763 -0.0427 -0.4515 -0.2597
27587SOL    HW189366  11.332   7.889   1.739  0.1099  0.1199 -0.5830
27587SOL    HW289367  11.455   7.966   1.781 -0.0411 -0.8064  1.6753
27588SOL     OW89368   4.547   3.708  12.341 -0.4403  0.4736  0.2448
27588SOL    HW189369   4.482   3.754  12.394  1.0134  1.7917  0.9574
27588SOL    HW289370   4.596   3.655  12.404  0.1392  0.6535 -0.0458
27589SOL     OW89371   0.357   6.133  10.173  0.0978  0.1170 -0.3567
27589SOL    HW189372   0.374   6.217  10.215 -0.8910  0.4674 -0.6456
27589SOL    HW289373   0.406   6.070  10.226 -0.6945  0.6130  1.0274
27590SOL     OW89374  12.151  10.503  10.258  0.0602 -0.4793  0.0942
27590SOL    HW189375  12.074  10.475  10.307 -0.0304  0.0221  0.2383
27590SOL    HW289376  12.180  10.582  10.303 -0.8161  0.7741 -1.4915
27591SOL     OW89377   3.824   1.567   7.721 -0.1511 -0.3007  0.0800
27591SOL    HW189378   3.784   1.645   7.760  1.6793  0.6900  0.0705
27591SOL    HW289379   3.849   1.594   7.633  0.2757 -0.9760 -0.0142
27592SOL     OW89380  10.238  10.649   1.498 -0.2751 -0.0558  0.0581
27592SOL    HW189381  10.268  10.740   1.495 -3.4329  1.1149 -0.5403
27592SOL    HW289382  10.248  10.617   1.409  0.4224 -0.1772  0.1725
27593SOL     OW89383   1.886   6.000   4.846 -0.6551  0.0769  0.5402
27593SOL    HW189384   1.907   5.908   4.863 -2.0910 -0.4649 -0.3937
27593SOL    HW289385   1.868   6.002   4.752  0.6332  1.6053  0.2842
27594SOL     OW89386   5.645   7.081   9.670 -0.3960 -0.2378  0.3487
27594SOL    HW189387   5.705   7.031   9.614  0.4949  0.4543  0.6592
27594SOL    HW289388   5.576   7.019   9.692  1.6441 -2.0162  2.3140
27595SOL     OW89389   7.087   5.562   3.441 -0.1373 -0.6888 -0.6880
27595SOL    HW189390   7.000   5.559   3.403  0.1017  1.4457 -1.5363
27595SOL    HW289391   7.146   5.572   3.367  0.5661  0.8316  0.0229
27596SOL     OW89392   7.554   1.141   2.552  0.0756 -0.4713  0.0280
27596SOL    HW189393   7.628   1.091   2.587  0.4733 -0.2030 -0.4318
27596SOL    HW289394   7.566   1.229   2.585 -0.5204 -0.6215  0.6738
27597SOL     OW89395  10.346   0.856   4.923  0.0774  0.0686  0.2298
27597SOL    HW189396  10.361   0.765   4.896  1.2349  0.2681  0.1284
27597SOL    HW289397  10.276   0.851   4.988  1.4649 -1.1463  1.7211
27598SOL     OW89398   2.452   7.014   0.838 -0.2127 -0.2459 -0.2926
27598SOL    HW189399   2.505   7.031   0.916  0.7526 -2.4269 -0.3989
27598SOL    HW289400   2.516   7.008   0.767 -1.2198  3.5083 -1.6931
27599SOL     OW89401   6.774   3.759   0.154  0.0741  0.2054 -0.0360
27599SOL    HW189402   6.818   3.807   0.224 -0.5306 -1.2410  1.3925
27599SOL    HW289403   6.685   3.795   0.153 -0.3353 -0.7059  0.9367
27600SOL     OW89404   1.874   2.739  12.735 -0.3436  0.1008  0.3402
27600SOL    HW189405   1.857   2.797  12.810 -1.0588 -1.7949  1.7395
27600SOL    HW289406   1.842   2.787  12.659 -0.0841  1.8811  1.3055
27601SOL     OW89407   5.697   5.634   9.815  0.3150  0.5196 -0.3250
27601SOL    HW189408   5.700   5.561   9.878  1.9646  0.7395 -0.1249
27601SOL    HW289409   5.706   5.592   9.730  0.0958  0.4043 -0.2950
27602SOL     OW89410   3.830   0.662   6.894  0.3313  0.1630  0.0169
27602SOL    HW189411   3.876   0.680   6.812  0.8913 -1.7229 -0.1069
27602SOL    HW289412   3.899   0.638   6.956 -0.1715  0.7549  0.8219
27603SOL     OW89413   5.639   8.243  11.824 -0.1044 -0.5292  0.0061
27603SOL    HW189414   5.717   8.188  11.832  1.5668  1.8442  1.4096
27603SOL    HW289415   5.604   8.248  11.913  0.5474  1.5609  0.2172
27604SOL     OW89416  10.093   9.719   7.517  0.2882 -0.3094  0.0894
27604SOL    HW189417  10.150   9.779   7.469 -0.3521  0.1172 -0.1683
27604SOL    HW289418  10.092   9.639   7.464  0.7155 -0.3563  0.1478
27605SOL     OW89419   0.576   6.301   0.627 -0.3524  0.4339  0.4133
27605SOL    HW189420   0.619   6.325   0.709 -2.7758  1.3894  1.4897
27605SOL    HW289421   0.529   6.380   0.600 -0.2642 -0.1107 -1.4804
27606SOL     OW89422   1.938   5.571   2.025 -0.4699  0.7114  0.1460
27606SOL    HW189423   1.963   5.643   1.966  0.1163  0.3030 -0.1130
27606SOL    HW289424   2.004   5.503   2.010 -0.2579  0.6205  1.3189
27607SOL     OW89425   3.583  12.397   9.683  0.0038  1.0373 -0.0417
27607SOL    HW189426   3.572  12.306   9.709  0.7392  0.2167 -2.2929
27607SOL    HW289427   3.551  12.448   9.757 -0.6957 -1.0395  1.1653
27608SOL     OW89428   6.796   6.534   4.962  0.2334  0.6933  0.5593
27608SOL    HW189429   6.788   6.629   4.953  1.4882  0.9459  1.7996
27608SOL    HW289430   6.708   6.500   4.945 -0.1404  2.0272 -0.2918
27609SOL     OW89431   8.480   8.569   3.080  0.7136  0.2534  0.2393
27609SOL    HW189432   8.424   8.504   3.123  0.6554 -0.7212 -1.2163
27609SOL    HW289433   8.481   8.644   3.140 -1.4357 -0.0415  0.7325
27610SOL     OW89434   1.363   0.665   7.269 -0.3066  0.1350 -0.3931
27610SOL    HW189435   1.429   0.653   7.200  1.8340 -0.0487  1.5473
27610SOL    HW289436   1.341   0.576   7.296  0.0981  0.2075  0.2092
27611SOL     OW89437   8.496  12.416  12.413 -0.3405 -0.4411  0.4383
27611SOL    HW189438   8.483  12.330  12.454  0.7366 -0.4092  0.8723
27611SOL    HW289439   8.591  12.427  12.410 -0.4680  0.9920  0.9189
27612SOL     OW89440   7.502   9.644   2.705  1.0669 -0.4973  0.5299
27612SOL    HW189441   7.583   9.598   2.728  1.4405 -1.4352 -2.2371
27612SOL    HW289442   7.529   9.708   2.639 -0.3404 -0.4552 -0.0394
27613SOL     OW89443   6.492   8.314  12.401 -0.0873  0.1282  0.0235
27613SOL    HW189444   6.537   8.390  12.363  0.8687 -0.6320 -0.4010
27613SOL    HW289445   6.459   8.346  12.485 -0.2296  1.1847 -0.4199
27614SOL     OW89446   9.591   6.916   3.236  0.1100 -0.3208  0.0387
27614SOL    HW189447   9.548   6.839   3.274  2.9346 -2.6221 -1.0804
27614SOL    HW289448   9.562   6.918   3.145 -0.8435  0.7085  0.3361
27615SOL     OW89449  10.779   9.406   1.078 -0.2694 -0.2696  0.1590
27615SOL    HW189450  10.761   9.437   0.989  2.2388 -1.4499 -0.8525
27615SOL    HW289451  10.760   9.313   1.075 -0.8401 -0.2010  1.1137
27616SOL     OW89452   2.142   1.156   6.021  0.1809  0.0323  0.0305
27616SOL    HW189453   2.085   1.216   6.069 -0.5150 -0.7596  0.2103
27616SOL    HW289454   2.120   1.171   5.929 -0.0385 -0.0003  0.0774
27617SOL     OW89455   0.324  10.708   7.475 -0.1513 -0.3763  0.0871
27617SOL    HW189456   0.272  10.707   7.555 -1.7322 -0.8607 -0.8846
27617SOL    HW289457   0.387  10.779   7.487  0.3194 -1.0858  2.1365
27618SOL     OW89458   3.217   9.217   0.496  0.4011 -0.2752 -0.2656
27618SOL    HW189459   3.148   9.151   0.494 -0.3254  0.4152  0.7045
27618SOL    HW289460   3.196   9.276   0.424 -2.0069  1.7804  1.9085
27619SOL     OW89461   1.099   5.857  10.652  0.1645 -0.4001  0.9532
27619SOL    HW189462   1.050   5.795  10.706  1.0841 -1.1815  0.9219
27619SOL    HW289463   1.176   5.808  10.623 -0.1039  0.1380 -0.7533
27620SOL     OW89464   2.327   4.645   3.018  1.0074  0.1935  0.2523
27620SOL    HW189465   2.319   4.741   3.024 -2.4935 -0.0277  1.1160
27620SOL    HW289466   2.295   4.624   2.931  0.4789 -0.2737  0.5572
27621SOL     OW89467   8.579  11.896   7.391  0.1403 -0.2520  0.9556
27621SOL    HW189468   8.497  11.891   7.441 -0.5662  1.3862  0.0841
27621SOL    HW289469   8.550  11.898   7.299  1.2751 -1.2203  0.5529
27622SOL     OW89470   2.362   5.871   4.300 -0.2900 -0.7165 -0.3851
27622SOL    HW189471   2.373   5.871   4.395  0.7031 -0.1022 -0.4895
27622SOL    HW289472   2.291   5.934   4.285  0.6733  0.4516 -0.1567
27623SOL     OW89473  10.358  11.083  10.878 -0.1793  0.5039  0.3182
27623SOL    HW189474  10.432  11.039  10.919 -0.5044 -0.1952  0.1727
27623SOL    HW289475  10.281  11.040  10.916 -0.4934  0.3760 -0.4472
27624SOL     OW89476  12.593   7.802   7.952  0.2361 -0.0724  0.2906
27624SOL    HW189477  12.533   7.727   7.952 -0.8199  0.7421  0.9360
27624SOL    HW289478  12.606   7.822   8.044 -0.1313  1.0275  0.1116
27625SOL     OW89479   1.224   4.057   8.375  0.1905 -0.4481 -0.0095
27625SOL    HW189480   1.291   4.012   8.324  1.4622 -1.6880  2.5868
27625SOL    HW289481   1.217   4.006   8.456 -0.1161  2.5961  2.0319
27626SOL     OW89482   9.432   0.485   0.701 -0.4536 -0.3941 -0.0918
27626SOL    HW189483   9.524   0.474   0.677 -0.5396  0.5082 -0.9049
27626SOL    HW289484   9.417   0.579   0.695 -1.1734 -0.4217  1.0484
27627SOL     OW89485   5.419  10.368   5.519  0.3326  0.6018  0.4869
27627SOL    HW189486   5.329  10.396   5.534  0.7225  1.3232  1.6416
27627SOL    HW289487   5.411  10.277   5.489 -0.7584  0.3689  1.3914
27628SOL     OW89488   5.578  12.551   0.545  0.0789 -0.2166 -0.1097
27628SOL    HW189489   5.620  12.602   0.614  0.6591 -1.5144  0.5459
27628SOL    HW289490   5.530  12.482   0.592 -0.2760 -0.5699 -0.9652
27629SOL     OW89491   5.379  10.893   0.541 -0.1774 -0.2780  0.7696
27629SOL    HW189492   5.420  10.888   0.454  0.8474  3.2449  0.9115
27629SOL    HW289493   5.449  10.869   0.602  0.0270  0.2423  0.7448
27630SOL     OW89494  10.096   9.707  11.460 -0.4177 -0.6704 -0.1481
27630SOL    HW189495  10.008   9.669  11.463  0.2309 -2.5893 -2.6236
27630SOL    HW289496  10.105   9.739  11.370  1.4387 -0.5828  0.0392
27631SOL     OW89497  10.361   3.231   0.890  0.1736  0.2123  0.4169
27631SOL    HW189498  10.309   3.311   0.889 -0.5650 -0.2571  0.6510
27631SOL    HW289499  10.403   3.229   0.804 -0.4874  0.4096  0.0818
27632SOL     OW89500   9.604   9.628   6.302 -0.0966 -0.1954 -0.0428
27632SOL    HW189501   9.674   9.648   6.241  0.0204  0.4338  0.2793
27632SOL    HW289502   9.642   9.564   6.362  0.8359  1.4266  1.2027
27633SOL     OW89503  12.675  11.663   6.905  0.4085 -0.5700  0.3055
27633SOL    HW189504  12.765  11.631   6.914  1.2334  0.1417 -3.6443
27633SOL    HW289505  12.684  11.756   6.886 -1.2577 -0.3166  0.5837
27634SOL     OW89506  11.545   5.715  11.568 -0.4575 -0.1293  0.8429
27634SOL    HW189507  11.548   5.730  11.662 -1.0597  2.5464  0.5318
27634SOL    HW289508  11.501   5.793  11.533  1.4661 -0.0893 -1.8227
27635SOL     OW89509  11.202  12.125  12.369  0.1141 -0.3243  0.2050
27635SOL    HW189510  11.282  12.073  12.364 -0.4840 -1.3097  0.5928
27635SOL    HW289511  11.151  12.083  12.438 -1.9817 -1.5292 -1.9179
27636SOL     OW89512   7.022   3.349  12.494 -0.4511  0.2945  0.0360
27636SOL    HW189513   7.056   3.348  12.404  0.2171  0.8547  0.2758
27636SOL    HW289514   6.935   3.309  12.487  0.1038 -0.8417 -0.6493
27637SOL     OW89515   9.425  12.473  12.250  0.8266 -0.4738  0.0194
27637SOL    HW189516   9.510  12.483  12.208 -0.2678 -0.8210 -2.4830
27637SOL    HW289517   9.408  12.379  12.249 -0.2428 -0.2860 -0.9758
27638SOL     OW89518  11.899  12.072   2.922  0.3050 -0.6511  0.2987
27638SOL    HW189519  11.844  12.116   2.858 -1.3140 -0.7678  1.5467
27638SOL    HW289520  11.971  12.036   2.871  0.3177  1.2459 -1.0991
27639SOL     OW89521  11.109   5.236  12.201 -0.1810  0.2801 -0.5174
27639SOL    HW189522  11.171   5.166  12.181 -0.7280 -0.1906 -0.5869
27639SOL    HW289523  11.077   5.265  12.115 -0.6296 -0.0047 -0.4486
27640SOL     OW89524   0.729   0.387   3.794 -0.1073  0.5206  0.5013
27640SOL    HW189525   0.795   0.435   3.844 -1.4717  1.8661  1.0932
27640SOL    HW289526   0.755   0.295   3.802  3.4473  1.1186 -1.9009
27641SOL     OW89527   3.746   8.092  12.088 -0.2205  0.4597 -0.2592
27641SOL    HW189528   3.678   8.129  12.032 -1.2831  2.2670  2.0511
27641SOL    HW289529   3.704   8.017  12.130  0.5356 -0.8192 -1.6953
27642SOL     OW89530   3.242   7.424   2.298 -0.2220  0.0976  0.0866
27642SOL    HW189531   3.249   7.515   2.328 -0.5224  0.0180  0.4076
27642SOL    HW289532   3.200   7.378   2.371 -1.1908 -0.0507 -0.5578
27643SOL     OW89533   8.712  12.490   7.266 -0.6824 -0.1362  0.1799
27643SOL    HW189534   8.728  12.583   7.285 -0.6925 -0.3129  1.0833
27643SOL    HW289535   8.705  12.486   7.171  0.3860  0.6205  0.0572
27644SOL     OW89536   6.781   4.105   6.425  0.3646  0.1170 -0.2029
27644SOL    HW189537   6.830   4.028   6.451 -0.0845 -0.0444  0.1785
27644SOL    HW289538   6.744   4.140   6.506  0.9504  1.0089 -0.3072
27645SOL     OW89539   1.526  12.240  11.554 -0.0479 -0.2332  0.5295
27645SOL    HW189540   1.534  12.146  11.536 -0.6762 -0.1058 -0.4184
27645SOL    HW289541   1.476  12.275  11.481  0.9564  1.0060  0.3997
27646SOL     OW89542   0.787   9.889   5.793  0.3360 -0.5488  0.2912
27646SOL    HW189543   0.718   9.943   5.830  0.2754  0.0703 -0.6957
27646SOL    HW289544   0.743   9.835   5.727  0.4685 -1.5160  0.9712
27647SOL     OW89545  12.422   5.550   8.863 -0.3992 -0.6237 -0.1929
27647SOL    HW189546  12.499   5.600   8.836 -2.2419  2.1156 -0.7456
27647SOL    HW289547  12.440   5.526   8.954  0.6934  0.8842  0.0281
27648SOL     OW89548   4.578   2.433   3.170  0.1990  0.1158 -0.2419
27648SOL    HW189549   4.579   2.372   3.096  0.4716 -0.5038  0.2666
27648SOL    HW289550   4.575   2.377   3.247 -0.1986  0.7609  0.2211
27649SOL     OW89551   7.457   2.481  12.516  0.1240  0.2050  0.0868
27649SOL    HW189552   7.431   2.487  12.424 -1.3528  0.8074  0.5076
27649SOL    HW289553   7.393   2.421  12.554  1.3135 -0.8070  0.5392
27650SOL     OW89554   2.159   2.504  10.050 -0.4160 -0.3406 -0.0587
27650SOL    HW189555   2.237   2.461  10.014  0.1786  1.9445 -1.7472
27650SOL    HW289556   2.086   2.464  10.003  0.0270 -0.2233 -0.8702
27651SOL     OW89557   4.048   4.087   0.426 -0.1917  0.2685 -0.0259
27651SOL    HW189558   3.990   4.127   0.361  1.0372 -0.1398 -1.4100
27651SOL    HW289559   4.062   4.157   0.491 -0.9771  0.8650 -0.4711
27652SOL     OW89560   6.678   9.260  11.585 -0.1977 -0.0861 -0.5871
27652SOL    HW189561   6.748   9.229  11.643 -0.3025  0.0408 -0.3928
27652SOL    HW289562   6.609   9.195  11.594 -0.9076  0.8166  0.7422
27653SOL     OW89563   7.259  10.278   4.850  0.4061 -0.3810  0.7011
27653SOL    HW189564   7.294  10.215   4.912  0.4108 -0.6689  0.4078
27653SOL    HW289565   7.170  10.249   4.833 -0.2488  0.7585  2.0001
27654SOL     OW89566   2.003   7.733   4.784 -0.2326  0.3553 -0.7631
27654SOL    HW189567   2.070   7.779   4.734  0.3241  0.0471 -0.3138
27654SOL    HW289568   1.967   7.669   4.722  1.2704 -0.8421 -0.4725
27655SOL     OW89569   5.353   7.564   7.725 -0.3228 -0.1495 -0.1326
27655SOL    HW189570   5.279   7.623   7.740 -0.8978 -0.6550 -0.8678
27655SOL    HW289571   5.421   7.619   7.688 -1.0881 -0.0431 -1.4473
27656SOL     OW89572   9.292  12.106   8.515 -0.3053  0.5672 -0.1981
27656SOL    HW189573   9.265  12.048   8.444 -2.3715 -0.6692  1.4880
27656SOL    HW289574   9.282  12.194   8.478 -0.4074 -0.0557 -1.7325
27657SOL     OW89575  12.477   5.948   2.171  0.0948 -0.1088 -0.3739
27657SOL    HW189576  12.429   6.031   2.169 -0.0009 -0.1483 -2.9777
27657SOL    HW289577  12.569   5.973   2.161  0.0272 -0.3020 -1.6122
27658SOL     OW89578  12.745   1.779   3.209 -0.3406  0.0578  0.6437
27658SOL    HW189579  12.674   1.738   3.159  0.2573 -1.2284  0.8105
27658SOL    HW289580  12.738   1.741   3.296  0.9392 -0.5918  0.4854
27659SOL     OW89581   2.434   2.787   3.508  0.2945 -0.7505 -0.0408
27659SOL    HW189582   2.485   2.816   3.584  1.0959 -0.7506 -0.5605
27659SOL    HW289583   2.500   2.763   3.443 -0.3791 -0.2701 -0.9196
27660SOL     OW89584  11.123   4.033  10.196 -0.1914 -0.4995 -0.1067
27660SOL    HW189585  11.102   3.982  10.274  0.0027  0.5251  0.6274
27660SOL    HW289586  11.211   4.066  10.212  0.5430 -1.6278 -1.5043
27661SOL     OW89587   4.730   4.335   1.376 -0.4426  0.2961 -0.0477
27661SOL    HW189588   4.703   4.410   1.429 -1.4074  0.0129 -0.1114
27661SOL    HW289589   4.801   4.368   1.322  1.2627  0.3498  2.0935
27662SOL     OW89590   1.209   7.253   9.031 -0.4248 -0.2284 -0.0338
27662SOL    HW189591   1.255   7.302   8.963  0.4074 -0.1503  0.5673
27662SOL    HW289592   1.153   7.318   9.074 -0.1865 -0.0499  0.0107
27663SOL     OW89593  12.210   5.945   1.895  0.1138 -0.0253  0.0671
27663SOL    HW189594  12.163   5.902   1.966 -0.8530 -0.1776 -0.6524
27663SOL    HW289595  12.266   6.009   1.939 -0.2730 -0.2957  0.9800
27664SOL     OW89596   2.732   7.025  12.096  0.2113  0.0620  0.2694
27664SOL    HW189597   2.759   6.933  12.094  0.0120  0.0122 -0.4618
27664SOL    HW289598   2.793   7.067  12.155  1.2754 -0.2339 -0.5928
27665SOL     OW89599  11.923   9.730   6.429 -0.1453  0.0424  0.2917
27665SOL    HW189600  11.873   9.649   6.431 -1.5835  0.8250 -1.0998
27665SOL    HW289601  11.985   9.718   6.357  1.2742 -0.6726  1.5879
27666SOL     OW89602   0.949   7.633  11.866  0.2537 -0.1624  0.5915
27666SOL    HW189603   0.995   7.674  11.793 -0.5120  0.8122  0.6304
27666SOL    HW289604   0.856   7.645  11.844  0.0038 -1.6580  0.7359
27667SOL     OW89605  12.646   9.409   3.756 -0.5565 -0.1203 -0.0941
27667SOL    HW189606  12.706   9.420   3.682 -1.4350 -0.1946 -0.8316
27667SOL    HW289607  12.704   9.398   3.832  0.3790 -1.0372 -0.9055
27668SOL     OW89608   3.839   0.929   2.058 -0.4976  0.3291 -0.0246
27668SOL    HW189609   3.881   0.976   1.985 -0.7833  0.7050  0.0520
27668SOL    HW289610   3.756   0.899   2.021 -0.3088 -0.1375 -0.0782
27669SOL     OW89611   4.531   8.270   2.738 -0.2053  0.1910  0.1312
27669SOL    HW189612   4.588   8.347   2.734  0.3124 -0.2305 -0.9921
27669SOL    HW289613   4.511   8.260   2.831 -1.7186  2.7141  0.1857
27670SOL     OW89614  12.096   2.789   7.471  0.0434  0.1697 -0.3332
27670SOL    HW189615  12.076   2.703   7.436  0.7813  0.5199 -1.6973
27670SOL    HW289616  12.070   2.785   7.563  0.2253 -1.5449 -0.3356
27671SOL     OW89617   9.656   6.860  10.667 -0.1818 -0.3415 -0.2386
27671SOL    HW189618   9.618   6.775  10.644 -1.5677  0.0277  0.6092
27671SOL    HW289619   9.590   6.924  10.641 -0.8100  0.2454  2.4668
27672SOL     OW89620   6.883  11.622   7.059  0.2294  0.4110 -0.1813
27672SOL    HW189621   6.868  11.715   7.073 -1.3510  0.2410 -0.5620
27672SOL    HW289622   6.802  11.580   7.086  0.3803 -0.7211 -1.3607
27673SOL     OW89623   5.245  10.766   8.791  0.5411 -0.1767 -0.7142
27673SOL    HW189624   5.228  10.775   8.885 -0.7050  0.7065 -1.0112
27673SOL    HW289625   5.329  10.720   8.787  0.8230  0.1444  0.8297
27674SOL     OW89626  11.344  12.379  12.316 -0.3074  0.3366  0.6980
27674SOL    HW189627  11.282  12.308  12.333 -0.4007  0.3397  0.3676
27674SOL    HW289628  11.412  12.368  12.383 -0.8942  0.6093  1.3475
27675SOL     OW89629   3.814   2.913   3.770 -0.4099  0.3792  0.3970
27675SOL    HW189630   3.758   2.917   3.848 -1.5442  0.2902 -0.3989
27675SOL    HW289631   3.813   3.002   3.735  0.7280  0.6066  0.8966
27676SOL     OW89632   3.987   0.621   9.549  0.2744  0.0727  0.3588
27676SOL    HW189633   3.919   0.607   9.615 -0.4127  0.1210 -0.3232
27676SOL    HW289634   3.947   0.589   9.467  0.3892  1.7617 -0.3825
27677SOL     OW89635   7.935   9.989   1.566 -0.2026 -0.2229 -0.0080
27677SOL    HW189636   7.999   9.917   1.564  1.7636  1.4275 -0.0388
27677SOL    HW289637   7.878   9.967   1.640 -0.6914 -2.5747 -0.9707
27678SOL     OW89638   9.387  10.650   0.978 -0.8362  0.3006  0.0537
27678SOL    HW189639   9.353  10.636   0.889 -1.5375 -1.2302  0.5366
27678SOL    HW289640   9.309  10.655   1.033 -0.3991  1.1795  0.5938
27679SOL     OW89641   8.192   7.806   0.112  0.2921 -0.0335  0.4766
27679SOL    HW189642   8.201   7.901   0.119 -1.6385  0.2410 -0.1666
27679SOL    HW289643   8.097   7.791   0.115  0.5828 -2.1655  3.0486
27680SOL     OW89644  11.537   2.210   9.203 -0.0538 -0.4844  0.0724
27680SOL    HW189645  11.527   2.136   9.143 -1.6289 -0.6427  0.4898
27680SOL    HW289646  11.555   2.170   9.288  1.0953 -0.2977 -0.0692
27681SOL     OW89647  10.958   1.562  10.910 -0.4560 -0.9279 -0.0933
27681SOL    HW189648  10.864   1.563  10.893 -0.3526  1.1299 -0.7675
27681SOL    HW289649  10.996   1.621  10.845  1.1407 -0.6501  1.0108
27682SOL     OW89650  10.767   1.728   3.710 -0.2705 -0.4963  0.0707
27682SOL    HW189651  10.706   1.801   3.709 -0.4892 -0.6614  0.8014
27682SOL    HW289652  10.844   1.760   3.662 -0.6832 -0.0761 -0.3143
27683SOL     OW89653   6.441  11.535   7.910 -0.5795  0.1274 -0.0599
27683SOL    HW189654   6.444  11.516   8.004  0.4696 -2.0350 -0.4725
27683SOL    HW289655   6.372  11.477   7.877 -2.1689  2.0982 -0.4511
27684SOL     OW89656   7.566   7.301   1.190 -0.4613  0.1842  0.4479
27684SOL    HW189657   7.488   7.331   1.143 -0.2555 -0.5131 -0.3616
27684SOL    HW289658   7.579   7.212   1.160 -0.7603 -0.5831  2.4151
27685SOL     OW89659   2.254   1.809   8.363 -0.0939  0.6189 -0.2933
27685SOL    HW189660   2.268   1.868   8.289 -2.4555 -1.7266 -2.8515
27685SOL    HW289661   2.312   1.734   8.346  1.0670  1.0060  1.5978
27686SOL     OW89662   6.859   3.465   0.885  0.7597  0.4155  0.1247
27686SOL    HW189663   6.826   3.484   0.972 -1.0921  1.3958 -0.7371
27686SOL    HW289664   6.784   3.428   0.838  2.0179 -1.1397 -0.7520
27687SOL     OW89665  11.766   8.161   5.834  0.2180 -0.0236 -0.6931
27687SOL    HW189666  11.860   8.160   5.817  0.5130 -0.3520  0.7978
27687SOL    HW289667  11.757   8.207   5.917 -0.6074 -2.4645  0.6762
27688SOL     OW89668   0.179   4.739   3.364 -0.1666  0.5187 -0.2911
27688SOL    HW189669   0.210   4.746   3.455 -1.0428 -0.7354  0.1241
27688SOL    HW289670   0.115   4.809   3.356 -0.9190 -0.0621  0.4324
27689SOL     OW89671   1.652   6.720   4.641  0.8023 -0.1239 -0.7566
27689SOL    HW189672   1.594   6.653   4.676 -0.9895  1.3873 -0.6496
27689SOL    HW289673   1.649   6.708   4.546  1.9729 -1.3134 -0.6678
27690SOL     OW89674   0.042   9.638   9.624  0.0008  0.0706 -0.2619
27690SOL    HW189675   0.060   9.641   9.718 -0.0097 -0.1278 -0.2523
27690SOL    HW289676  -0.010   9.716   9.607 -2.1648 -1.1461  0.3609
27691SOL     OW89677   2.020   6.834   8.089  0.6360  0.3266 -0.1501
27691SOL    HW189678   1.965   6.794   8.021  0.3315  2.4672 -1.2522
27691SOL    HW289679   2.109   6.828   8.055  0.6802  0.0184  0.0097
27692SOL     OW89680   4.206   7.164   6.893 -0.3763 -0.0997 -0.2635
27692SOL    HW189681   4.247   7.231   6.839  2.5431 -1.4422  0.0984
27692SOL    HW289682   4.158   7.109   6.831 -0.6655  0.8462 -0.8875
27693SOL     OW89683  12.351   9.473   9.824  0.5570 -0.4968 -0.3307
27693SOL    HW189684  12.365   9.391   9.778 -0.4761 -0.6543 -0.3839
27693SOL    HW289685  12.323   9.448   9.912  1.1100 -0.1944 -0.0595
27694SOL     OW89686  11.086   8.108   6.516 -0.3761 -0.1752 -0.3550
27694SOL    HW189687  11.057   8.127   6.605 -1.2315  1.2824 -0.9055
27694SOL    HW289688  11.080   8.193   6.471 -0.8796 -1.0740 -2.0418
27695SOL     OW89689   9.481  10.923   9.379  0.2023  0.2618 -0.1268
27695SOL    HW189690   9.463  11.009   9.343 -1.7679  0.5996  1.4958
27695SOL    HW289691   9.572  10.928   9.409  1.2480  0.5942 -3.0322
27696SOL     OW89692   6.493   2.759   8.276  0.5297  0.2097  0.1339
27696SOL    HW189693   6.521   2.668   8.280  1.9815  0.4663 -2.4057
27696SOL    HW289694   6.562   2.807   8.324  1.3745  0.2189 -1.0344
27697SOL     OW89695   9.811   9.994  12.553  0.2562 -0.4913  0.1001
27697SOL    HW189696   9.873   9.924  12.533  0.1925 -1.2775  2.3733
27697SOL    HW289697   9.762   9.962  12.628 -1.4420  1.0219 -0.3001
27698SOL     OW89698  10.994   4.154   7.993 -0.4730  0.0605 -0.1356
27698SOL    HW189699  11.083   4.186   8.003 -0.1091 -1.6336  3.3831
27698SOL    HW289700  10.938   4.228   8.019 -0.0002  0.2667  0.2873
27699SOL     OW89701   9.088   7.990   3.543  0.1112  0.1722  0.1421
27699SOL    HW189702   9.144   7.941   3.483  0.7271  0.6321  0.3303
27699SOL    HW289703   9.146   8.015   3.615  0.2650  2.5523 -0.7121
27700SOL     OW89704  11.838   4.517   7.463 -0.4811  0.5124  0.3399
27700SOL    HW189705  11.833   4.500   7.557  2.2878 -0.8836  0.3174
27700SOL    HW289706  11.851   4.611   7.457 -0.9844  0.6627  1.3328
27701SOL     OW89707   7.937   8.865   0.649 -0.2504 -0.1666 -0.0186
27701SOL    HW189708   8.015   8.818   0.619 -0.9297 -0.5798 -1.1496
27701SOL    HW289709   7.945   8.865   0.745  1.1986 -0.0917 -0.1090
27702SOL     OW89710   6.683   1.048   2.551 -0.0730  0.5025  0.4106
27702SOL    HW189711   6.646   1.135   2.562 -1.1903 -0.0609  1.3491
27702SOL    HW289712   6.629   1.007   2.484  0.0567  0.3233  0.4140
27703SOL     OW89713   7.654   0.511  12.659  0.4395 -0.4276 -0.6747
27703SOL    HW189714   7.743   0.529  12.629 -0.1525  0.7842 -1.8454
27703SOL    HW289715   7.654   0.535  12.751  1.3402 -0.5137 -0.6414
27704SOL     OW89716  10.607   3.104   9.171  0.2980 -0.1443  0.6439
27704SOL    HW189717  10.579   3.016   9.197 -0.5964  0.1139  0.5666
27704SOL    HW289718  10.527   3.148   9.142  1.1647 -0.2939 -2.3042
27705SOL     OW89719   1.279   1.884   7.613 -0.3576  0.6167 -0.3197
27705SOL    HW189720   1.186   1.874   7.635 -0.7538 -0.9127 -2.3450
27705SOL    HW289721   1.316   1.798   7.629  0.1688  0.5603 -1.6782
27706SOL     OW89722   3.189   3.705  11.349 -0.4056  0.2237  0.0886
27706SOL    HW189723   3.152   3.622  11.318 -2.8462  0.3656  2.3040
27706SOL    HW289724   3.158   3.770  11.286 -1.0121 -0.1377  0.0082
27707SOL     OW89725   9.579   7.028  10.347 -0.1123 -0.0032 -0.1301
27707SOL    HW189726   9.536   6.950  10.383  0.3602 -0.1364  0.1488
27707SOL    HW289727   9.573   7.016  10.252 -0.8287  0.0584 -0.0996
27708SOL     OW89728   7.554   5.557   8.456  0.0590  0.2550 -0.0227
27708SOL    HW189729   7.583   5.508   8.533 -0.3444  0.2878  0.1513
27708SOL    HW289730   7.548   5.491   8.387  2.8577  0.5986 -0.7378
27709SOL     OW89731   0.572   7.082   5.360  0.6009 -0.1245 -0.2451
27709SOL    HW189732   0.625   7.034   5.423  0.5575 -0.0938 -0.1852
27709SOL    HW289733   0.516   7.015   5.320  0.4513 -0.1048 -0.0713
27710SOL     OW89734   8.591   1.267   9.202  0.5498  0.5180 -0.2900
27710SOL    HW189735   8.667   1.240   9.253  0.0844 -2.1669 -0.8664
27710SOL    HW289736   8.516   1.234   9.252  0.0070 -0.4207 -1.6615
27711SOL     OW89737   2.033   8.342  11.055 -1.0703  0.6773  0.1557
27711SOL    HW189738   2.051   8.380  10.969 -0.9160  1.1337  0.3871
27711SOL    HW289739   2.089   8.264  11.059  0.4277  1.7263  0.6130
27712SOL     OW89740   7.059   0.087   9.111  0.3862 -0.2360 -0.6606
27712SOL    HW189741   7.035   0.001   9.145 -0.9922  0.1327 -0.6344
27712SOL    HW289742   7.069   0.141   9.190 -0.1335 -0.0448 -0.7195
27713SOL     OW89743  10.639   5.565   3.375  0.0730  0.1954 -0.7465
27713SOL    HW189744  10.657   5.576   3.468  0.3981 -1.9755 -0.5117
27713SOL    HW289745  10.575   5.634   3.355  1.0579  1.6177  0.7196
27714SOL     OW89746   3.526   6.609   0.944  0.0614  0.3355 -0.2190
27714SOL    HW189747   3.596   6.672   0.961  1.9484 -1.7523  0.3719
27714SOL    HW289748   3.550   6.568   0.861 -1.0311  0.2687 -0.5144
27715SOL     OW89749   5.309   8.703   1.645 -0.2756 -0.0181 -0.4351
27715SOL    HW189750   5.224   8.677   1.612  0.6784  0.7540 -3.9058
27715SOL    HW289751   5.310   8.799   1.636  0.7283  0.0433  0.1548
27716SOL     OW89752   1.349   6.763  11.824  0.3055 -0.0527 -0.2232
27716SOL    HW189753   1.376   6.855  11.828  0.0978  0.0864 -1.6760
27716SOL    HW289754   1.399   6.726  11.752  0.1991 -1.0305  0.1907
27717SOL     OW89755   9.274  11.403   1.042 -0.4627  0.3459  0.4005
27717SOL    HW189756   9.331  11.333   1.075 -1.1093  0.5105  1.9656
27717SOL    HW289757   9.299  11.413   0.950 -1.0087 -2.5998 -0.1869
27718SOL     OW89758   4.092   6.317   7.434  0.1481 -0.1066 -0.3342
27718SOL    HW189759   4.065   6.265   7.358  1.5479  0.7392 -1.4661
27718SOL    HW289760   4.046   6.400   7.423 -0.1300 -0.2033  0.0917
27719SOL     OW89761   8.529  11.895   1.198  0.0793 -0.5270 -0.1804
27719SOL    HW189762   8.471  11.898   1.274 -0.1245 -0.8775 -0.3187
27719SOL    HW289763   8.614  11.866   1.233 -0.2807 -1.6899 -0.2397
27720SOL     OW89764   3.578   9.085   8.991  0.1419  0.0225  0.2013
27720SOL    HW189765   3.544   9.111   9.077  0.8331  0.5208  0.3392
27720SOL    HW289766   3.673   9.077   9.005  0.4358  1.3609 -0.8046
27721SOL     OW89767   8.966   9.194   1.630  0.4589 -0.1101 -0.2743
27721SOL    HW189768   8.967   9.098   1.639  0.8183 -0.1677 -0.8795
27721SOL    HW289769   8.916   9.210   1.550  2.0832  0.1027 -1.2780
27722SOL     OW89770   2.368   6.561   9.565 -0.1827 -0.4121 -0.0239
27722SOL    HW189771   2.449   6.550   9.515  0.6533 -1.6604  1.5099
27722SOL    HW289772   2.313   6.488   9.539 -0.6928  0.2335 -0.7969
27723SOL     OW89773   0.184   3.105   2.082 -0.6151  0.3936 -0.1818
27723SOL    HW189774   0.126   3.053   2.026  1.6142 -1.5695 -0.8733
27723SOL    HW289775   0.245   3.041   2.118  0.5453  2.2062  1.2575
27724SOL     OW89776   7.773   7.372  10.049  0.5086 -0.1572 -0.1968
27724SOL    HW189777   7.819   7.388   9.966  3.0509 -1.2443  0.8937
27724SOL    HW289778   7.770   7.277  10.057  0.0906 -0.0685  0.8407
27725SOL     OW89779   4.897   0.057   2.691  0.5510 -0.0022 -0.8214
27725SOL    HW189780   4.880  -0.031   2.723 -0.1927  0.1380 -0.8115
27725SOL    HW289781   4.823   0.109   2.722  1.9579  1.0950  0.9478
27726SOL     OW89782   0.744   7.451   2.283  0.1093 -0.4712  0.2803
27726SOL    HW189783   0.791   7.380   2.325  1.2115 -0.6304 -1.1382
27726SOL    HW289784   0.768   7.529   2.331 -0.8276 -0.9764  1.6275
27727SOL     OW89785   8.023   2.086   2.977 -0.0226 -0.0599  0.0411
27727SOL    HW189786   7.988   2.082   2.888  2.8750 -0.5146 -1.2118
27727SOL    HW289787   8.082   2.011   2.983 -0.3257 -0.1993  2.4910
27728SOL     OW89788  10.046   3.198   6.486 -0.0768  0.2510  0.1631
27728SOL    HW189789  10.057   3.276   6.540  3.5900  0.4672 -0.6407
27728SOL    HW289790  10.098   3.130   6.529 -0.3959 -0.7661 -0.9732
27729SOL     OW89791   8.804   0.553   7.485 -0.5003  0.3380  0.1457
27729SOL    HW189792   8.803   0.510   7.570 -1.6457  2.2636  1.1858
27729SOL    HW289793   8.885   0.603   7.484 -1.3183  1.7348  0.9168
27730SOL     OW89794   3.046   3.426  10.416 -0.3070  0.4052  0.0692
27730SOL    HW189795   2.999   3.372  10.479 -1.3200  2.1499  0.8819
27730SOL    HW289796   2.986   3.498  10.396 -0.0031 -0.0156 -2.8732
27731SOL     OW89797   5.866  11.631   4.006 -0.0153 -0.1566 -0.1092
27731SOL    HW189798   5.778  11.626   3.969 -0.5362  1.4477  0.8340
27731SOL    HW289799   5.924  11.627   3.929 -0.9714  0.3856 -0.8830
27732SOL     OW89800   9.499   4.499   2.213  0.3924  0.0829 -0.3076
27732SOL    HW189801   9.594   4.486   2.212  0.4399  0.3959  0.1199
27732SOL    HW289802   9.463   4.410   2.215  0.6316 -0.1093 -2.3655
27733SOL     OW89803   1.131   9.092   6.745  0.0246  0.0178 -0.0406
27733SOL    HW189804   1.050   9.135   6.716  0.9274  0.5876 -1.8527
27733SOL    HW289805   1.100   9.017   6.797 -1.6100  1.5502  1.3577
27734SOL     OW89806   0.769  12.165   3.036  0.4858 -0.0581 -0.1634
27734SOL    HW189807   0.725  12.247   3.059 -0.2710 -0.5303  0.1045
27734SOL    HW289808   0.724  12.099   3.088  1.6722 -0.5246  0.2889
27735SOL     OW89809   1.002   8.292   8.482 -0.4764  0.2094 -0.1536
27735SOL    HW189810   0.908   8.307   8.487 -0.4686  0.7613 -1.2514
27735SOL    HW289811   1.040   8.359   8.540 -0.7540  0.0588  0.2039
27736SOL     OW89812  10.777  11.157   2.660 -0.0734  0.2970 -0.5489
27736SOL    HW189813  10.846  11.210   2.621 -0.8947  0.4496 -1.8421
27736SOL    HW289814  10.763  11.197   2.746  0.2498  1.3558 -0.9717
27737SOL     OW89815  11.998   1.165   5.623 -0.0587 -0.1459 -0.1295
27737SOL    HW189816  12.076   1.182   5.677 -1.0548 -1.2256  1.7504
27737SOL    HW289817  12.003   1.071   5.604  0.3573  0.2382 -2.1423
27738SOL     OW89818   2.196  12.733   9.092  0.0064  0.0575  0.3418
27738SOL    HW189819   2.179  12.664   9.157 -0.0265  0.4814  0.7851
27738SOL    HW289820   2.291  12.730   9.078  0.2411  0.9789  1.5637
27739SOL     OW89821  12.784   2.733  12.643 -0.3623  0.3666  0.3523
27739SOL    HW189822  12.703   2.782  12.633 -0.8199  0.0041  2.0252
27739SOL    HW289823  12.850   2.800  12.663 -0.8695  0.4263  2.0230
27740SOL     OW89824   4.204   3.616  10.680  0.3086 -0.7455  0.2250
27740SOL    HW189825   4.176   3.686  10.622 -0.9222 -0.4018  1.1805
27740SOL    HW289826   4.126   3.562  10.692  0.6859 -1.1260  1.0849
27741SOL     OW89827   4.098   6.005   5.967  0.1409  0.0567 -0.1190
27741SOL    HW189828   4.004   6.027   5.965  0.3698  1.0429 -1.5137
27741SOL    HW289829   4.142   6.089   5.970  1.0086 -0.3978  0.1528
27742SOL     OW89830   5.853   4.215  11.726  0.0023 -0.5876 -0.1275
27742SOL    HW189831   5.939   4.172  11.718  0.3552  0.1104 -0.1452
27742SOL    HW289832   5.860   4.294  11.673 -0.8109 -0.7530 -0.4958
27743SOL     OW89833   3.120   5.283  10.677  0.2830  0.0405 -0.0852
27743SOL    HW189834   3.175   5.224  10.625 -0.5249 -0.5699 -0.2615
27743SOL    HW289835   3.075   5.226  10.740  1.7077  0.8200  1.7654
27744SOL     OW89836   6.183   8.100   3.187  0.0064 -0.1353  0.2811
27744SOL    HW189837   6.173   8.005   3.186 -0.5674 -0.0788 -0.2353
27744SOL    HW289838   6.101   8.132   3.226 -0.0685  0.1717 -0.1211
27745SOL     OW89839   0.636   5.009   9.533 -0.2673  0.0282  0.4845
27745SOL    HW189840   0.552   4.969   9.513  0.3603 -1.3491  0.4840
27745SOL    HW289841   0.673   5.030   9.448  0.2213 -1.1892  0.3750
27746SOL     OW89842   2.507  10.914   7.254  0.4218 -0.0973  0.3645
27746SOL    HW189843   2.523  11.007   7.263  1.1567 -0.3328  1.6820
27746SOL    HW289844   2.441  10.894   7.320  0.2785 -0.5165  0.1041
27747SOL     OW89845  12.430   4.568   4.219 -0.2387  0.0451 -0.1331
27747SOL    HW189846  12.417   4.581   4.125  0.3055 -0.4041 -0.2788
27747SOL    HW289847  12.347   4.532   4.250  0.0808 -1.2802 -0.7394
27748SOL     OW89848   3.980   7.899   6.715 -0.1326 -0.6643  0.4280
27748SOL    HW189849   4.057   7.954   6.732 -1.3482  0.7589  1.6527
27748SOL    HW289850   3.932   7.945   6.646 -0.3363 -1.0486  0.3143
27749SOL     OW89851   2.701   6.462  10.905 -0.1580 -0.1471  0.2190
27749SOL    HW189852   2.762   6.415  10.962 -0.1635 -0.7654 -0.2843
27749SOL    HW289853   2.747   6.542  10.882 -0.3478  0.3650  1.4959
27750SOL     OW89854   6.072  10.991   3.743  0.1467 -0.1410  0.0136
27750SOL    HW189855   6.045  11.082   3.759  2.1762  0.4612  0.2682
27750SOL    HW289856   6.102  10.959   3.828  1.4328 -0.3237 -0.4905
27751SOL     OW89857   0.884  10.442   1.900  0.0767 -0.4643 -0.0167
27751SOL    HW189858   0.791  10.449   1.877  0.2684 -1.8364 -1.3775
27751SOL    HW289859   0.927  10.417   1.818  1.4746 -1.0683  0.8689
27752SOL     OW89860   7.921   5.910   9.784 -0.0381  0.0607  0.1614
27752SOL    HW189861   7.974   5.934   9.708  0.3876 -0.9732  0.1094
27752SOL    HW289862   7.928   5.984   9.843 -0.6615  1.0315 -0.9427
27753SOL     OW89863   3.054   5.642  12.269  0.0748  0.6200  0.6473
27753SOL    HW189864   3.008   5.725  12.254  0.7653  0.6992 -1.4462
27753SOL    HW289865   3.114   5.635  12.195 -0.3255 -1.9988  0.4732
27754SOL     OW89866   6.999   0.870   2.111 -0.2047 -0.1950 -0.4899
27754SOL    HW189867   7.035   0.865   2.200 -0.5079 -0.2278 -0.3678
27754SOL    HW289868   7.053   0.810   2.060 -0.7864 -1.1107 -0.0627
27755SOL     OW89869   6.889   4.011   3.744  0.7561  0.0850  0.3716
27755SOL    HW189870   6.952   4.038   3.677  3.3903  1.1759  3.0631
27755SOL    HW289871   6.813   4.067   3.730  1.4663  0.7096 -1.2684
27756SOL     OW89872   6.836  11.025   7.475 -0.1563 -0.0246 -0.0531
27756SOL    HW189873   6.749  10.985   7.476  0.2994 -1.0730  1.2326
27756SOL    HW289874   6.871  11.005   7.388 -1.5428  1.2357 -0.9335
27757SOL     OW89875   0.836   6.383   8.479 -0.4995  0.1768 -0.0858
27757SOL    HW189876   0.888   6.333   8.416 -1.7239 -0.6621 -0.4674
27757SOL    HW289877   0.850   6.337   8.562  0.4099  0.7534  0.0940
27758SOL     OW89878   2.163  12.556   8.601  0.4123 -0.0742 -0.3486
27758SOL    HW189879   2.151  12.622   8.669  2.6372 -2.0324  2.1693
27758SOL    HW289880   2.095  12.491   8.618  0.7692 -0.4051 -0.1472
27759SOL     OW89881   4.052  10.837  11.825  0.5206 -0.3951 -0.1019
27759SOL    HW189882   4.068  10.747  11.853 -0.1687 -0.5252 -0.1085
27759SOL    HW289883   4.135  10.866  11.787  0.7301 -1.0407 -0.1406
27760SOL     OW89884   8.857   9.405   6.279  0.0308 -0.2259  0.2625
27760SOL    HW189885   8.952   9.407   6.291 -0.0325  0.2714  0.7713
27760SOL    HW289886   8.825   9.356   6.355 -0.0073 -1.9529 -0.8223
27761SOL     OW89887   4.905   3.798   7.394  0.4268 -0.1314  0.0475
27761SOL    HW189888   4.948   3.793   7.479  0.6972  0.3577 -0.0549
27761SOL    HW289889   4.812   3.796   7.413  0.4809 -1.3414  0.2687
27762SOL     OW89890   0.002   8.725   3.440 -0.2435  0.2612  0.3517
27762SOL    HW189891   0.041   8.676   3.513 -2.0326 -0.0739  1.1430
27762SOL    HW289892   0.004   8.817   3.470 -0.0577  0.2464  0.3856
27763SOL     OW89893   5.943   3.241   2.589 -1.0168  0.4067 -0.3341
27763SOL    HW189894   5.999   3.196   2.526 -1.5069  1.0571 -1.2611
27763SOL    HW289895   5.868   3.184   2.601 -0.6216 -0.0177  0.1702
27764SOL     OW89896   5.607  12.637   0.087  0.1456 -0.0631  0.2005
27764SOL    HW189897   5.604  12.565   0.150  3.2112 -0.0100  0.5751
27764SOL    HW289898   5.652  12.708   0.133  1.6687  0.3014 -1.7024
27765SOL     OW89899   2.103  12.191   9.263  0.1840  0.1094  0.3061
27765SOL    HW189900   2.166  12.127   9.298 -0.3136 -0.6214 -0.0988
27765SOL    HW289901   2.087  12.162   9.173  1.5586  2.0561 -0.6398
27766SOL     OW89902   0.430   3.773   9.799 -0.0537  0.1677  0.1389
27766SOL    HW189903   0.364   3.764   9.730 -0.2286  1.2258  0.1470
27766SOL    HW289904   0.420   3.695   9.853  1.9041 -2.1218 -2.5323
27767SOL     OW89905   4.511  12.435  10.794  0.0705 -0.2021  0.0330
27767SOL    HW189906   4.416  12.422  10.791  0.0326  0.2319 -0.9218
27767SOL    HW289907   4.547  12.357  10.752  0.1814 -0.6849  0.9911
27768SOL     OW89908  11.213   1.093   7.677 -0.3279 -0.1431 -0.3030
27768SOL    HW189909  11.205   1.009   7.632  0.1381  0.2226 -1.0794
27768SOL    HW289910  11.134   1.141   7.653  0.1561  0.2438 -1.1511
27769SOL     OW89911   3.882   1.321   0.649  0.1018 -0.2492 -0.2328
27769SOL    HW189912   3.859   1.228   0.649  1.0337 -0.5191  0.9849
27769SOL    HW289913   3.938   1.331   0.727  1.1120  1.0527 -1.0815
27770SOL     OW89914   5.913   3.029   8.573  0.0239 -0.4726  0.0057
27770SOL    HW189915   5.907   2.993   8.485  0.0223  0.5685 -0.4276
27770SOL    HW289916   5.997   3.076   8.575 -0.0555 -0.3379  0.4992
27771SOL     OW89917  11.540  10.803   7.943 -0.3572  0.3205  0.0493
27771SOL    HW189918  11.451  10.769   7.935 -0.2014 -0.1793  0.3857
27771SOL    HW289919  11.539  10.856   8.023 -0.7086  1.4817 -0.6959
27772SOL     OW89920   6.387   0.687   4.892  0.2366 -0.0318  0.1989
27772SOL    HW189921   6.423   0.620   4.833  0.0806  0.5012 -0.5157
27772SOL    HW289922   6.292   0.680   4.880  0.2193  0.2880  0.1514
27773SOL     OW89923   3.728   9.155   4.514 -0.4310 -0.3480 -0.4318
27773SOL    HW189924   3.654   9.099   4.536 -1.2179  0.2631 -1.4202
27773SOL    HW289925   3.778   9.105   4.450 -0.1755 -0.6202 -0.0228
27774SOL     OW89926   1.558   8.623   8.426 -0.0413 -0.3043  0.2206
27774SOL    HW189927   1.481   8.574   8.398  0.3231 -0.5236 -0.4256
27774SOL    HW289928   1.590   8.575   8.502 -1.0401  0.2956  1.0439
27775SOL     OW89929   1.151   7.562   8.396  0.2764 -0.2567  0.2823
27775SOL    HW189930   1.217   7.612   8.349  0.7818  0.2262  1.4672
27775SOL    HW289931   1.094   7.526   8.328 -0.2319  2.1100 -0.6026
27776SOL     OW89932   5.142   6.756   0.654 -0.0931  0.3868 -0.2447
27776SOL    HW189933   5.182   6.765   0.741 -0.1774  2.3009 -0.3758
27776SOL    HW289934   5.183   6.677   0.618  0.7980  0.2039  1.0718
27777SOL     OW89935   3.432   0.500   2.451 -0.1421  0.3419 -0.2810
27777SOL    HW189936   3.454   0.571   2.511  0.2946  0.3390 -0.4324
27777SOL    HW289937   3.477   0.523   2.369 -0.5387  0.2265 -0.5323
27778SOL     OW89938   8.372   2.620  11.488  0.3835  0.2849  0.8907
27778SOL    HW189939   8.299   2.682  11.499 -0.8895 -1.3566  2.4190
27778SOL    HW289940   8.450   2.670  11.513 -0.4957  1.4917  1.3311
27779SOL     OW89941  10.800   6.887   8.387 -0.5392 -0.1260 -0.0066
27779SOL    HW189942  10.829   6.829   8.458 -0.4461 -0.7668 -0.5661
27779SOL    HW289943  10.882   6.917   8.347 -0.3675  3.0182  2.2892
27780SOL     OW89944   5.763  11.021   7.201 -0.5886 -0.0417  0.3968
27780SOL    HW189945   5.739  10.972   7.280 -2.5529 -2.6541 -1.6220
27780SOL    HW289946   5.704  11.097   7.201 -0.9053 -0.2824  1.1861
27781SOL     OW89947   3.737  10.319   5.079  0.2062  0.1758 -0.0469
27781SOL    HW189948   3.802  10.277   5.135 -0.4307 -2.5927 -1.2361
27781SOL    HW289949   3.695  10.384   5.136  2.1660  0.1642  1.5110
27782SOL     OW89950  10.505   9.683   7.490 -0.2850 -0.1960  1.1128
27782SOL    HW189951  10.591   9.643   7.478 -0.2677  0.1064  0.2060
27782SOL    HW289952  10.453   9.650   7.417 -0.1720  1.6737  0.1162
27783SOL     OW89953   2.210   6.447   2.013  0.0796  0.1725  0.0006
27783SOL    HW189954   2.253   6.533   2.018  0.3845 -0.0563  3.2432
27783SOL    HW289955   2.119   6.464   2.034 -0.1252 -0.1855 -0.5559
27784SOL     OW89956   6.909  10.917   1.003  0.0831 -0.0959  0.7360
27784SOL    HW189957   6.899  10.952   0.915 -2.7939  2.2067  1.7844
27784SOL    HW289958   6.999  10.937   1.027  0.4681  0.6133 -1.1330
27785SOL     OW89959   3.207   1.874   4.556 -0.1368 -0.3288  0.2811
27785SOL    HW189960   3.229   1.957   4.598  0.3414 -0.1737 -0.2688
27785SOL    HW289961   3.260   1.872   4.477 -0.4125 -0.9982  0.1051
27786SOL     OW89962   1.216   5.327   1.984  0.3130  0.4895  0.6472
27786SOL    HW189963   1.277   5.384   1.938  0.3213  0.3994  0.5455
27786SOL    HW289964   1.165   5.285   1.914 -0.0284  0.7464  0.7374
27787SOL     OW89965   2.950  11.687   7.044 -0.3202  0.2479 -0.3979
27787SOL    HW189966   2.889  11.693   6.970 -0.2378 -0.1324 -0.4962
27787SOL    HW289967   2.952  11.594   7.066  0.0585  0.2894 -0.2544
27788SOL     OW89968   2.074   2.208   6.226  0.4596 -0.5831  0.7061
27788SOL    HW189969   2.169   2.203   6.234  0.2428 -2.5896  3.2706
27788SOL    HW289970   2.055   2.166   6.142  1.8285  0.0403  0.0630
27789SOL     OW89971  12.374  12.468   4.399 -0.2095 -0.5349 -0.1481
27789SOL    HW189972  12.332  12.386   4.424 -1.9605  0.8614  1.7474
27789SOL    HW289973  12.464  12.459   4.429 -0.6367 -1.3769  0.9386
27790SOL     OW89974   7.049   9.789  10.775  0.4169  0.5347  0.0290
27790SOL    HW189975   7.091   9.870  10.802  0.7860 -0.2463  1.9328
27790SOL    HW289976   7.106   9.720  10.808 -0.1120 -0.5178 -1.1785
27791SOL     OW89977   1.096   3.729   3.527 -0.6211 -0.5961  0.3189
27791SOL    HW189978   1.089   3.725   3.431 -0.4183  2.9770  0.0117
27791SOL    HW289979   1.014   3.693   3.559 -1.6127  0.0661 -1.3354
27792SOL     OW89980  10.904   1.950   9.733 -0.2689 -0.1160  0.4073
27792SOL    HW189981  10.899   1.905   9.649 -0.3120 -0.8887  0.8135
27792SOL    HW289982  10.955   1.891   9.789 -2.6542 -0.9932  1.7785
27793SOL     OW89983   3.366   5.892   3.810 -0.2432  0.2645  0.0162
27793SOL    HW189984   3.311   5.951   3.862 -0.5490 -1.0307  1.2271
27793SOL    HW289985   3.455   5.922   3.825 -0.3269 -0.0979  1.3422
27794SOL     OW89986  12.113   2.962   3.834 -0.5775  0.5116 -0.4393
27794SOL    HW189987  12.128   2.959   3.740 -0.3700  0.3109 -0.3984
27794SOL    HW289988  12.193   3.001   3.870 -0.3011 -0.2147 -0.2600
27795SOL     OW89989   4.385   9.849   3.628 -0.4392  0.2048  0.9694
27795SOL    HW189990   4.388   9.753   3.630  2.2543  0.1570 -0.6904
27795SOL    HW289991   4.436   9.876   3.705  2.8884  0.1164 -1.0234
27796SOL     OW89992  10.958   1.021   7.038  0.1053 -0.2256 -0.0158
27796SOL    HW189993  10.951   0.926   7.033  0.7088 -0.2936  0.3814
27796SOL    HW289994  10.886   1.047   7.096 -0.6338 -0.3423 -0.8435
27797SOL     OW89995  11.506   7.656  11.200  0.4356  0.2045 -0.1269
27797SOL    HW189996  11.572   7.689  11.139  0.0579 -1.0840 -1.2862
27797SOL    HW289997  11.543   7.575  11.234  0.8840  1.1620  1.8455
27798SOL     OW89998   2.652   2.181   7.571  0.4803  0.2607  0.6705
27798SOL    HW189999   2.622   2.265   7.606  1.8580  0.9336  0.2695
27798SOL    HW290000   2.613   2.116   7.630 -0.1339  1.2004  1.3282
27799SOL     OW90001  11.147   5.511   1.837 -0.5856  0.1771  0.0413
27799SOL    HW190002  11.070   5.554   1.798  0.4572  1.7012 -0.4518
27799SOL    HW290003  11.119   5.485   1.924 -2.1397 -0.7829 -0.7060
27800SOL     OW90004   0.653   3.265   5.501  0.1943  0.0342 -0.3561
27800SOL    HW190005   0.564   3.246   5.471 -0.1647  1.3244 -0.1896
27800SOL    HW290006   0.695   3.179   5.509 -1.3734 -0.6872  0.5948
27801SOL     OW90007   1.220   0.532   9.936 -0.1394  0.0465 -0.5085
27801SOL    HW190008   1.194   0.551  10.026 -3.5170 -0.9600 -1.1284
27801SOL    HW290009   1.284   0.461   9.945 -1.3480 -0.9226  1.1204
27802SOL     OW90010   3.869   5.193  10.612  0.4529  0.3550 -0.6094
27802SOL    HW190011   3.910   5.118  10.570 -1.6572 -1.2215 -0.0272
27802SOL    HW290012   3.930   5.218  10.681  0.8533 -1.3627 -0.2982
27803SOL     OW90013   0.235   7.861   7.834  0.4502 -0.2000  0.0377
27803SOL    HW190014   0.254   7.936   7.777 -0.5311 -0.0412 -0.0998
27803SOL    HW290015   0.305   7.863   7.899  1.4341 -0.2286 -0.9982
27804SOL     OW90016   8.388   0.874   0.634  0.9794 -0.5266  0.2836
27804SOL    HW190017   8.337   0.876   0.553  1.8716 -2.9654 -0.4166
27804SOL    HW290018   8.324   0.895   0.703  0.2423  1.7612 -0.9855
27805SOL     OW90019   0.867   3.457   7.660 -0.6174  0.2575 -0.1958
27805SOL    HW190020   0.940   3.484   7.716 -1.5275  1.7599  0.3044
27805SOL    HW290021   0.821   3.391   7.712 -0.1518 -0.0304 -0.1377
27806SOL     OW90022   4.986   4.884   0.902  0.0337  0.3018 -0.3316
27806SOL    HW190023   4.988   4.859   0.809  2.2548 -0.2343 -0.1981
27806SOL    HW290024   4.951   4.973   0.902  0.2472  0.4122 -1.7164
27807SOL     OW90025   6.871   7.990   7.855 -0.2537  0.2064 -0.5997
27807SOL    HW190026   6.815   8.065   7.837 -0.1886 -0.3389 -3.4978
27807SOL    HW290027   6.949   8.028   7.897 -1.4247  1.3280  0.6747
27808SOL     OW90028   5.146   0.099   1.498 -0.6087 -0.3866  0.1274
27808SOL    HW190029   5.195   0.093   1.580 -2.5799  0.9179  1.4965
27808SOL    HW290030   5.094   0.019   1.495 -1.0274 -0.1319  0.5060
27809SOL     OW90031   8.531   7.705   5.789 -0.1132  0.3167 -0.0045
27809SOL    HW190032   8.579   7.661   5.720 -1.7954 -0.1294 -0.9530
27809SOL    HW290033   8.554   7.797   5.780 -0.1522  0.2340 -1.0343
27810SOL     OW90034   9.468   5.076   7.308  0.4269 -0.4017  0.3678
27810SOL    HW190035   9.523   5.146   7.342 -0.1227  0.6373 -0.8045
27810SOL    HW290036   9.441   5.027   7.386 -0.1274  1.3902  1.3753
27811SOL     OW90037  10.586   8.892   4.405 -0.1246  0.0971 -0.3655
27811SOL    HW190038  10.567   8.805   4.440  1.3165  0.2265  0.8251
27811SOL    HW290039  10.668   8.882   4.358 -1.0918  0.3516 -2.2080
27812SOL     OW90040   8.738  10.425   5.370 -0.0011 -0.0080  0.4127
27812SOL    HW190041   8.696  10.384   5.446  1.0993 -0.0997  0.9885
27812SOL    HW290042   8.716  10.367   5.297 -0.3521 -0.3849  0.8118
27813SOL     OW90043   5.133  10.373   0.026  0.0497 -0.9329 -0.4373
27813SOL    HW190044   5.107  10.445  -0.032 -0.1743 -0.2373  0.4969
27813SOL    HW290045   5.150  10.300  -0.032 -0.1880 -0.2546 -1.3779
27814SOL     OW90046   6.165   6.659   3.126 -0.0747 -0.5711  0.1291
27814SOL    HW190047   6.229   6.693   3.064  0.4579 -1.8188 -0.0416
27814SOL    HW290048   6.091   6.630   3.073  0.3164 -1.4968  0.0681
27815SOL     OW90049   4.367   8.606   1.161 -0.0887  0.5119  0.8608
27815SOL    HW190050   4.295   8.548   1.133 -0.9049  1.1686  1.5145
27815SOL    HW290051   4.439   8.585   1.103 -0.7184 -0.3921  0.3740
27816SOL     OW90052   6.004  10.331   9.531 -0.1285 -0.1743  0.5454
27816SOL    HW190053   6.031  10.423   9.537 -0.0002 -0.3062  2.5744
27816SOL    HW290054   5.935  10.331   9.464  1.4168  0.9744 -1.1592
27817SOL     OW90055   2.002   1.623  10.020 -0.0509  0.1594 -0.3783
27817SOL    HW190056   2.020   1.644  10.112 -0.5687  1.8244 -0.6213
27817SOL    HW290057   2.065   1.675   9.971  1.2859 -1.8936 -0.9964
27818SOL     OW90058   5.669  10.132   9.580 -0.6521  0.5943  0.3650
27818SOL    HW190059   5.679  10.052   9.630 -1.9790  0.1197 -0.1054
27818SOL    HW290060   5.724  10.196   9.626  1.3674 -0.8397  0.0777
27819SOL     OW90061  10.824   4.540   1.773  0.4454 -0.0335  0.4201
27819SOL    HW190062  10.801   4.452   1.802  1.8590 -0.3585  0.6018
27819SOL    HW290063  10.848   4.586   1.853 -1.0682  0.7937  0.4349
27820SOL     OW90064   7.653  11.484   8.769  0.0376  0.4218 -0.0620
27820SOL    HW190065   7.748  11.473   8.757 -0.0283  0.5544 -0.6973
27820SOL    HW290066   7.619  11.497   8.681 -0.1605  3.7369  0.3713
27821SOL     OW90067   4.915   3.955   3.750  0.1706  0.3410 -0.8382
27821SOL    HW190068   4.825   3.935   3.727  0.6393 -1.4430 -1.3029
27821SOL    HW290069   4.909   4.008   3.829 -1.2657 -0.6196 -0.2717
27822SOL     OW90070   2.783  11.258   0.755 -0.0992  0.4049 -0.3813
27822SOL    HW190071   2.853  11.254   0.819 -0.8682  3.0204  0.7444
27822SOL    HW290072   2.718  11.195   0.787 -1.5176  3.2274  2.9307
27823SOL     OW90073   5.993   0.274   8.296  0.3203  0.3918 -0.1000
27823SOL    HW190074   5.955   0.269   8.383  0.2235  1.7019 -0.0545
27823SOL    HW290075   5.992   0.367   8.274  3.2008  0.4834 -0.2382
27824SOL     OW90076  10.462  10.744   0.971 -0.6954  0.2186 -0.1999
27824SOL    HW190077  10.486  10.835   0.989  1.0262 -0.3900  0.7565
27824SOL    HW290078  10.499  10.726   0.884  0.9900 -0.2220  0.5781
27825SOL     OW90079   0.250   9.896   5.878 -0.3935  0.4025 -0.2554
27825SOL    HW190080   0.185   9.875   5.811  0.8520  0.2970 -1.4781
27825SOL    HW290081   0.218   9.853   5.957 -1.7306  0.2531 -0.8476
27826SOL     OW90082   3.837   6.311  11.325 -0.2486 -0.6462 -0.2254
27826SOL    HW190083   3.761   6.368  11.310 -0.7793 -1.4367 -0.6106
27826SOL    HW290084   3.913   6.366  11.304 -0.7532 -0.1199 -0.6948
27827SOL     OW90085   2.405   1.476  10.669 -0.0559  0.0288  0.3661
27827SOL    HW190086   2.403   1.480  10.765 -0.9553  0.4147  0.3430
27827SOL    HW290087   2.461   1.550  10.644  0.5217 -0.3217  0.6003
27828SOL     OW90088   2.511   4.872   1.826  0.0508  0.0013  0.3412
27828SOL    HW190089   2.504   4.906   1.737  1.2628  0.5229  0.4174
27828SOL    HW290090   2.467   4.787   1.823  0.6659 -0.3042 -0.9433
27829SOL     OW90091   9.394   9.425   6.146 -0.0662 -0.0720 -0.1368
27829SOL    HW190092   9.374   9.517   6.131 -0.4705 -0.1385 -0.0015
27829SOL    HW290093   9.421   9.392   6.060  0.9095  0.3748 -0.0198
27830SOL     OW90094   8.137   5.780  10.143  0.3448 -0.0139 -0.0152
27830SOL    HW190095   8.133   5.871  10.173 -3.5626 -0.0536  0.0995
27830SOL    HW290096   8.082   5.732  10.205  0.1326 -1.9254 -1.5926
27831SOL     OW90097  11.375   8.857   1.753  0.8824  0.1059  0.0934
27831SOL    HW190098  11.426   8.930   1.788  1.6089 -0.4234  0.1853
27831SOL    HW290099  11.428   8.824   1.681  0.9913 -0.8570  0.5953
27832SOL     OW90100   3.589  12.434   8.637  0.0063 -0.5054  0.3171
27832SOL    HW190101   3.604  12.477   8.553  2.0948 -0.3052  0.7327
27832SOL    HW290102   3.523  12.488   8.680  0.1995  0.4031 -0.4816
27833SOL     OW90103   7.156   7.336   3.780  0.1040 -0.5027 -0.3536
27833SOL    HW190104   7.135   7.278   3.707  0.9520 -1.6799  0.3182
27833SOL    HW290105   7.251   7.334   3.786  0.1050  0.4068  0.1405
27834SOL     OW90106   4.373  12.488   2.556 -0.7268  0.6061  0.5001
27834SOL    HW190107   4.302  12.493   2.620 -0.3985  1.9900  0.8027
27834SOL    HW290108   4.453  12.496   2.608 -0.3490 -0.6465  0.1374
27835SOL     OW90109   7.539   3.244   4.712 -0.3577 -0.2948  0.4892
27835SOL    HW190110   7.486   3.226   4.790 -0.0683  0.7667  0.9629
27835SOL    HW290111   7.561   3.158   4.677 -0.2125 -0.8114  1.7844
27836SOL     OW90112   7.636   6.984   8.298  0.0533  0.3750 -0.3205
27836SOL    HW190113   7.579   7.026   8.363  0.4845 -0.6181  0.7153
27836SOL    HW290114   7.724   6.991   8.334  0.1049 -1.7176  0.0730
27837SOL     OW90115   3.691  11.666   0.969 -0.3075  0.5546  0.4460
27837SOL    HW190116   3.755  11.712   0.914 -0.3888  0.1305 -0.0013
27837SOL    HW290117   3.685  11.720   1.048 -1.5018  2.1543 -0.6684
27838SOL     OW90118   8.534   3.234  10.928  0.1048 -0.0882  0.1948
27838SOL    HW190119   8.455   3.230  10.982  1.1677  1.5548  1.9828
27838SOL    HW290120   8.596   3.176  10.972  0.5458  0.1972 -0.0495
27839SOL     OW90121   6.620  12.652   2.950  0.1954  0.3186  0.4754
27839SOL    HW190122   6.645  12.731   2.999 -0.0945 -0.7660  2.4697
27839SOL    HW290123   6.547  12.681   2.895  0.9734  1.7487  0.1410
27840SOL     OW90124   5.788  12.541   1.676  0.3725  0.5062 -0.3107
27840SOL    HW190125   5.809  12.472   1.613  0.8821  0.7862 -0.4472
27840SOL    HW290126   5.809  12.623   1.631 -1.0589  0.8161 -0.4847
27841SOL     OW90127   0.306   1.696   1.200 -0.0914  0.2279  0.0809
27841SOL    HW190128   0.390   1.740   1.213 -1.2767  2.1560  1.8477
27841SOL    HW290129   0.253   1.724   1.274 -2.4077 -0.7134 -1.1318
27842SOL     OW90130   1.530   8.379   9.860 -0.4446  0.1200  1.0213
27842SOL    HW190131   1.444   8.341   9.875 -0.6945 -0.0125 -0.5614
27842SOL    HW290132   1.580   8.359   9.939 -1.5233 -0.7770  1.4909
27843SOL     OW90133   8.887  12.209  11.291  0.2533  0.8727  0.6490
27843SOL    HW190134   8.934  12.161  11.223  1.2477  0.2080  1.7648
27843SOL    HW290135   8.904  12.301  11.271  1.1419  0.6690  0.4006
27844SOL     OW90136   9.359  11.610   4.201  0.1820  0.4222 -0.5358
27844SOL    HW190137   9.287  11.660   4.163 -0.7391  0.1090  0.7223
27844SOL    HW290138   9.341  11.519   4.175 -0.5408  0.1841  0.7190
27845SOL     OW90139  10.846  11.096   8.444 -0.3028 -0.0164  0.4968
27845SOL    HW190140  10.871  11.165   8.506  0.6572  0.7881 -0.7402
27845SOL    HW290141  10.888  11.121   8.362 -0.9646 -1.4331 -0.3108
27846SOL     OW90142  12.409   3.693   5.883  0.6121 -0.2157 -0.1512
27846SOL    HW190143  12.394   3.689   5.977 -1.6730 -2.1593 -0.4926
27846SOL    HW290144  12.502   3.673   5.872  0.3536 -2.8587  1.6140
27847SOL     OW90145   8.852  10.953   2.634  0.1635  0.0170 -0.0659
27847SOL    HW190146   8.807  11.027   2.674  1.4675  0.6910  0.2003
27847SOL    HW290147   8.816  10.876   2.679 -0.9228  0.4868 -0.0844
27848SOL     OW90148  11.077   0.320   0.582 -0.0950 -0.1515  0.3051
27848SOL    HW190149  11.048   0.281   0.665  0.4177  1.3642  1.2594
27848SOL    HW290150  11.171   0.333   0.594 -0.0436  0.2059 -0.4592
27849SOL     OW90151   0.015   9.447   1.961 -0.7781 -0.2481  0.1858
27849SOL    HW190152   0.057   9.407   1.885 -1.4326 -0.6015  0.0004
27849SOL    HW290153   0.063   9.528   1.975 -0.7939 -0.0662 -0.7508
27850SOL     OW90154   5.440   1.977   2.576 -0.0601 -0.0715 -0.2339
27850SOL    HW190155   5.515   1.917   2.581  0.9582  1.1463 -0.3274
27850SOL    HW290156   5.438   2.004   2.484 -0.0193  0.6148 -0.0407
27851SOL     OW90157   3.796  10.467   1.826  0.3813 -0.0837  0.3709
27851SOL    HW190158   3.736  10.435   1.759  1.3883 -0.5296 -0.3485
27851SOL    HW290159   3.777  10.414   1.903 -0.2730 -0.0864  0.2109
27852SOL     OW90160   4.479   1.847  10.035 -0.1082  0.3784  0.2210
27852SOL    HW190161   4.470   1.917   9.971 -1.9485 -0.4425 -0.4811
27852SOL    HW290162   4.399   1.796  10.027  2.3354 -3.7352 -1.5510
27853SOL     OW90163   8.666   3.182   9.070 -0.5090 -0.4459  0.0270
27853SOL    HW190164   8.669   3.127   9.148 -1.5612  0.3834  0.6769
27853SOL    HW290165   8.757   3.184   9.039  0.0620 -0.1978  1.6428
27854SOL     OW90166   0.462  12.632   6.478 -0.2853 -0.2912  0.4146
27854SOL    HW190167   0.480  12.538   6.467  0.4656 -0.0421 -0.7075
27854SOL    HW290168   0.546  12.674   6.459 -0.6106  0.6165  0.9279
27855SOL     OW90169   0.146   4.415   8.091  0.1420 -0.3387 -0.2792
27855SOL    HW190170   0.053   4.435   8.076  0.1015  0.0155  0.3856
27855SOL    HW290171   0.157   4.327   8.056 -0.1249  0.1288 -1.5738
27856SOL     OW90172   5.828   4.013   3.035  0.7760 -0.1493  0.9089
27856SOL    HW190173   5.737   3.993   3.013  0.4917  1.4928  0.4430
27856SOL    HW290174   5.876   3.933   3.012 -0.1372 -0.0572 -1.6400
27857SOL     OW90175   3.460   7.708   2.575 -0.0904 -0.2598 -0.5213
27857SOL    HW190176   3.406   7.738   2.502 -1.3479 -1.3201 -0.0641
27857SOL    HW290177   3.504   7.630   2.541 -1.2128 -1.1613  0.0359
27858SOL     OW90178   1.983   2.082   6.013  0.2252  0.6016 -0.0130
27858SOL    HW190179   1.941   2.166   5.993 -0.5250  0.2839  0.1581
27858SOL    HW290180   1.913   2.018   6.002  0.5005  0.1221  0.9311
27859SOL     OW90181   4.699   4.242   9.870  0.1809 -0.5327  0.2189
27859SOL    HW190182   4.616   4.282   9.844  1.1159  1.1703 -0.3468
27859SOL    HW290183   4.678   4.150   9.884 -1.2111 -0.8246 -2.9428
27860SOL     OW90184  12.113   2.859  12.664  0.0099  0.1114 -0.3294
27860SOL    HW190185  12.023   2.848  12.693 -0.7442 -0.9418 -2.7696
27860SOL    HW290186  12.105   2.902  12.579  1.7787 -0.5038 -0.8479
27861SOL     OW90187   3.541   7.219   2.433  0.0914 -0.4038  0.2760
27861SOL    HW190188   3.516   7.196   2.343 -1.0054 -0.6475  0.6261
27861SOL    HW290189   3.459   7.216   2.482  0.3411  1.6357  0.9048
27862SOL     OW90190   3.467  10.891   2.124  0.5743  0.3198 -0.6335
27862SOL    HW190191   3.486  10.985   2.119 -2.6547  1.0541 -1.4552
27862SOL    HW290192   3.449  10.865   2.034 -2.0677 -0.1643 -0.0421
27863SOL     OW90193   2.829   2.709   0.758 -0.4344 -0.6189 -0.4640
27863SOL    HW190194   2.791   2.796   0.765  0.5889 -0.2263  0.5311
27863SOL    HW290195   2.855   2.700   0.666 -0.5745  0.1100 -0.5745
27864SOL     OW90196   8.548   0.661   0.669  0.9344  0.4229  0.5813
27864SOL    HW190197   8.630   0.692   0.707  0.9112  1.9064 -0.4884
27864SOL    HW290198   8.504   0.741   0.640  0.3666 -0.5472 -1.3643
27865SOL     OW90199   6.369  11.133  11.580 -0.4890  0.0416  0.4013
27865SOL    HW190200   6.293  11.192  11.581 -1.0477 -0.6494  1.7057
27865SOL    HW290201   6.356  11.078  11.657  0.7680 -0.8358 -0.0014
27866SOL     OW90202   7.333   2.496   5.291 -0.1794 -0.3218 -0.5490
27866SOL    HW190203   7.412   2.443   5.285 -0.4418 -0.7534 -0.1745
27866SOL    HW290204   7.356   2.578   5.246  0.3020 -0.6520 -0.9125
27867SOL     OW90205   3.233  11.007  12.575  0.2419 -0.3313 -0.1338
27867SOL    HW190206   3.220  10.974  12.664 -0.0989 -0.1264 -0.1086
27867SOL    HW290207   3.327  10.997  12.560 -0.0242 -2.7309 -0.6660
27868SOL     OW90208   2.966   9.295   7.950  0.0387  0.2031  0.3578
27868SOL    HW190209   3.012   9.255   8.024 -1.0375 -0.7048  0.5676
27868SOL    HW290210   3.005   9.255   7.873  0.5841  0.5190  0.4651
27869SOL     OW90211   9.962   8.522  10.489  0.3342  0.4609 -0.1760
27869SOL    HW190212   9.932   8.442  10.532  0.2202  0.6239  0.0507
27869SOL    HW290213  10.043   8.544  10.536  0.7934  0.0464 -0.7567
27870SOL     OW90214  12.073   2.512   3.781  0.4879 -0.0578 -0.7228
27870SOL    HW190215  12.152   2.566   3.773  0.1149  0.3444 -1.8897
27870SOL    HW290216  12.060   2.475   3.694 -0.0819 -0.8859 -0.3000
27871SOL     OW90217   5.119   4.585  10.635  0.0138 -0.2737  0.2396
27871SOL    HW190218   5.159   4.670  10.615 -0.0119 -0.2184  0.4309
27871SOL    HW290219   5.025   4.602  10.635  0.0419  0.1913  2.4934
27872SOL     OW90220  10.881   8.996   5.018 -0.1857  0.1908 -0.6132
27872SOL    HW190221  10.908   9.076   5.064 -1.4490  1.0987 -1.3766
27872SOL    HW290222  10.841   9.028   4.937 -4.1025 -0.8850  0.6695
27873SOL     OW90223   8.390   4.489   3.160  0.7673  0.2313  0.3925
27873SOL    HW190224   8.450   4.485   3.085  0.7860  0.1514  0.4119
27873SOL    HW290225   8.311   4.443   3.131  0.3040  1.2544 -0.0082
27874SOL     OW90226  10.812   9.112   6.739  0.6584  0.4280  0.4008
27874SOL    HW190227  10.833   9.173   6.669 -0.0401 -1.0484 -1.1635
27874SOL    HW290228  10.733   9.149   6.780 -0.3655  0.1205 -1.1958
27875SOL     OW90229  12.622   3.238  11.827  0.1748 -0.1523 -0.5084
27875SOL    HW190230  12.641   3.199  11.912 -0.7564  0.1622 -0.1457
27875SOL    HW290231  12.529   3.223  11.813  0.1082  0.6582 -1.0230
27876SOL     OW90232   7.099  11.172  10.075 -0.2197 -0.2105  0.0183
27876SOL    HW190233   7.099  11.267  10.085 -0.5217 -0.2997  1.0188
27876SOL    HW290234   7.037  11.154  10.005 -0.4678  0.3092  0.1014
27877SOL     OW90235   2.624   9.185   1.508 -0.1868  0.7552  0.2169
27877SOL    HW190236   2.573   9.232   1.574 -0.1910  1.1801 -0.0836
27877SOL    HW290237   2.632   9.247   1.436 -1.0092 -0.0447 -0.5860
27878SOL     OW90238   4.218   1.595   6.608  0.0947  0.1697  0.4719
27878SOL    HW190239   4.222   1.690   6.594 -0.9983  0.2706  0.7754
27878SOL    HW290240   4.306   1.572   6.638  0.5062  1.0099 -0.0272
27879SOL     OW90241   5.290  11.154   0.563  0.4238 -0.4511  0.4403
27879SOL    HW190242   5.201  11.128   0.589  1.0182 -1.9156  1.1477
27879SOL    HW290243   5.342  11.075   0.576  1.6460  0.0847 -0.9762
27880SOL     OW90244  10.508  12.323   4.784 -0.0032 -0.4654 -0.1498
27880SOL    HW190245  10.521  12.232   4.757  0.8548 -0.7074  1.0429
27880SOL    HW290246  10.557  12.332   4.865  0.1849  1.1603 -0.4140
27881SOL     OW90247   4.054   5.622   1.069  0.6453 -0.2172  0.0025
27881SOL    HW190248   3.985   5.656   1.012  0.6355 -0.1873  0.0324
27881SOL    HW290249   4.133   5.669   1.042  0.7947 -0.7352 -0.4921
27882SOL     OW90250  11.555   5.519  10.940 -0.6620 -0.4702  0.3870
27882SOL    HW190251  11.533   5.612  10.936  0.9256  0.0269  1.7528
27882SOL    HW290252  11.596   5.500  10.855 -1.3315 -0.0221 -0.0402
27883SOL     OW90253   5.023   8.603   0.361 -0.0480  0.1142  0.0669
27883SOL    HW190254   4.997   8.514   0.387 -2.3874  0.5767 -0.4927
27883SOL    HW290255   5.079   8.590   0.285 -1.4217 -0.8744 -0.8226
27884SOL     OW90256   8.898   0.030   0.456 -0.1747 -0.1221 -0.2558
27884SOL    HW190257   8.866   0.016   0.367 -1.2862 -1.1756  0.2784
27884SOL    HW290258   8.909   0.124   0.463  1.0331 -0.0965 -1.8639
27885SOL     OW90259   1.989   0.497  10.319  0.3229  0.3545  0.1472
27885SOL    HW190260   1.907   0.454  10.294  1.5786 -1.0535 -1.8336
27885SOL    HW290261   2.053   0.426  10.323  1.5645  1.4856  1.2497
27886SOL     OW90262  10.346   9.231   8.451 -0.2182 -0.5144 -0.4857
27886SOL    HW190263  10.311   9.299   8.510 -1.2842 -1.8250  0.4603
27886SOL    HW290264  10.430   9.265   8.423 -1.0695  1.5633 -0.6887
27887SOL     OW90265   3.187   0.783   1.328  0.0133 -0.1333  0.6748
27887SOL    HW190266   3.194   0.766   1.422  1.3522 -2.6789  0.2325
27887SOL    HW290267   3.240   0.713   1.288 -0.0638  1.1975 -1.9461
27888SOL     OW90268   2.690   5.682   2.891 -0.3342  0.2616  0.0632
27888SOL    HW190269   2.663   5.730   2.813  0.1262  1.5252  0.6571
27888SOL    HW290270   2.608   5.656   2.933 -0.5910  0.8924 -0.0473
27889SOL     OW90271  10.223   1.945   1.857  0.2035 -0.3852  0.4819
27889SOL    HW190272  10.307   1.914   1.893  0.8161  1.1172  0.4257
27889SOL    HW290273  10.190   1.871   1.807  0.5835 -1.6587  2.0174
27890SOL     OW90274  11.811   4.014  11.968 -0.1204 -0.4483 -0.0488
27890SOL    HW190275  11.781   4.086  12.024 -0.7717 -0.7995  0.0653
27890SOL    HW290276  11.793   3.935  12.019 -1.2226 -0.8153 -0.9537
27891SOL     OW90277   3.444   7.569  11.580 -0.0752  0.5390  0.2694
27891SOL    HW190278   3.487   7.570  11.666  0.1945  0.3088  0.1407
27891SOL    HW290279   3.363   7.519  11.594  0.0133  0.4216  0.3702
27892SOL     OW90280   9.041   1.604  11.832  0.4538  0.2758  0.3339
27892SOL    HW190281   9.014   1.617  11.741  0.6164 -0.7517  0.1237
27892SOL    HW290282   9.024   1.511  11.849  0.9528  0.3267  1.1688
27893SOL     OW90283   4.624   8.918   6.457 -0.4114  0.0705 -0.7370
27893SOL    HW190284   4.630   9.004   6.497 -0.8897  0.1667 -0.8647
27893SOL    HW290285   4.715   8.890   6.446 -0.2634 -0.5100  1.5746
27894SOL     OW90286  12.636  11.465  11.555 -0.1006 -0.2157 -0.1162
27894SOL    HW190287  12.600  11.482  11.468  0.1172 -0.1851 -0.2026
27894SOL    HW290288  12.572  11.502  11.615  0.5536  1.2862 -0.3095
27895SOL     OW90289  10.652   4.654   2.175 -0.0315 -0.0575 -0.0357
27895SOL    HW190290  10.582   4.591   2.156  0.9200 -0.2363 -3.9060
27895SOL    HW290291  10.607   4.737   2.188 -1.0894 -0.4852 -0.7496
27896SOL     OW90292  11.341   4.857  11.411 -0.1971 -0.3949 -0.2509
27896SOL    HW190293  11.427   4.841  11.449 -0.7184 -2.1429  0.2960
27896SOL    HW290294  11.308   4.770  11.388 -2.1598  0.1436  0.3217
27897SOL     OW90295   5.689   7.991   8.274 -0.1444  0.0325 -0.0122
27897SOL    HW190296   5.730   8.059   8.327 -0.4358 -0.5252  0.9464
27897SOL    HW290297   5.688   7.913   8.331  1.0355 -1.0526 -1.3918
27898SOL     OW90298   0.038   0.763   5.974  0.4009 -0.7689  0.3490
27898SOL    HW190299  -0.033   0.699   5.972 -0.8708  0.5546  0.7789
27898SOL    HW290300   0.046   0.793   5.883 -1.8655  1.3558  0.7248
27899SOL     OW90301  11.936  11.401   5.895 -0.7105  0.3484  0.1107
27899SOL    HW190302  11.989  11.333   5.936 -0.1419  0.9115  0.3436
27899SOL    HW290303  11.854  11.358   5.874 -0.4827 -0.3256  0.5420
27900SOL     OW90304   6.699   8.351   6.695  0.6969 -0.0752  0.4030
27900SOL    HW190305   6.621   8.357   6.640  0.9060  0.5246  0.1658
27900SOL    HW290306   6.690   8.267   6.740 -0.9639  0.7572  1.7317
27901SOL     OW90307  11.330   8.888  10.752 -0.1735 -0.2560 -0.1722
27901SOL    HW190308  11.260   8.853  10.696  1.1181 -0.0204 -2.0335
27901SOL    HW290309  11.284   8.948  10.811 -1.6799 -0.8757 -0.6528
27902SOL     OW90310   3.379  11.281   8.435  0.4252 -0.1290  0.0928
27902SOL    HW190311   3.453  11.271   8.494  0.3525  0.3116  0.2640
27902SOL    HW290312   3.417  11.283   8.347  0.6205  0.1241  0.1816
27903SOL     OW90313   1.588   8.660   3.481 -0.0666 -0.4517 -0.0442
27903SOL    HW190314   1.574   8.746   3.443  0.3955 -0.9227 -1.3229
27903SOL    HW290315   1.663   8.671   3.540  0.3319 -0.0944 -0.6125
27904SOL     OW90316   3.349   5.651   7.172 -0.0596  0.4719  0.6945
27904SOL    HW190317   3.335   5.710   7.246 -0.1227  1.1079  0.1797
27904SOL    HW290318   3.263   5.613   7.155  0.4140 -1.6334  2.5533
27905SOL     OW90319   4.892   5.975   9.869 -1.0351 -0.1500 -0.5326
27905SOL    HW190320   4.915   6.048   9.811 -2.0166  0.7311  0.1566
27905SOL    HW290321   4.948   5.903   9.840  1.4376  1.4076  0.0115
27906SOL     OW90322   0.113   8.760   9.149 -0.0632  0.4096  0.1102
27906SOL    HW190323   0.092   8.850   9.123  0.7220  0.0305 -2.0192
27906SOL    HW290324   0.153   8.769   9.236  0.3206  2.1556 -0.2033
27907SOL     OW90325  10.151   4.196  12.771  0.2432 -0.2567 -0.1186
27907SOL    HW190326  10.146   4.232  12.860 -1.7871  1.5853 -0.8814
27907SOL    HW290327  10.068   4.152  12.758  0.9057 -1.3405 -0.8172
27908SOL     OW90328   5.457   8.544   2.002 -0.0472  0.6406  0.3681
27908SOL    HW190329   5.414   8.475   2.052  0.1417  0.9491  0.9663
27908SOL    HW290330   5.388   8.610   1.991 -0.9310 -0.5842 -2.1785
27909SOL     OW90331   0.719   4.554   0.775 -0.6873 -0.2367  0.2912
27909SOL    HW190332   0.629   4.562   0.743 -0.7687 -1.9507  0.0312
27909SOL    HW290333   0.755   4.480   0.728  0.6410 -0.0296  0.9419
27910SOL     OW90334   8.482  10.635   9.807 -0.3038 -0.3693  0.2423
27910SOL    HW190335   8.477  10.617   9.713 -0.4216  0.0079  0.1734
27910SOL    HW290336   8.419  10.706   9.820 -1.7382 -1.6855  0.9265
27911SOL     OW90337  11.830   5.828   3.256 -0.1451 -0.3284  0.6849
27911SOL    HW190338  11.775   5.898   3.222  3.1379  2.2251  0.0748
27911SOL    HW290339  11.897   5.815   3.189  2.0548 -0.6866  2.7825
27912SOL     OW90340  11.086  11.273   3.494  0.5045  0.7196 -0.6339
27912SOL    HW190341  11.089  11.181   3.470  0.7680  0.5648 -0.0312
27912SOL    HW290342  10.993  11.293   3.506  0.5630  0.0004  1.2061
27913SOL     OW90343   6.552  12.062  10.151  0.3836  0.1400  0.2340
27913SOL    HW190344   6.489  12.010  10.101  1.0210  0.2794 -0.7243
27913SOL    HW290345   6.513  12.150  10.152  1.1130  0.5153 -1.4017
27914SOL     OW90346   0.356   8.607   4.414 -0.8645 -0.1746 -0.5081
27914SOL    HW190347   0.347   8.700   4.391  0.4478  0.5949  1.7989
27914SOL    HW290348   0.271   8.569   4.390 -1.1637  1.4131 -2.2324
27915SOL     OW90349   8.034   7.595   8.106  1.0338 -0.2332 -0.0560
27915SOL    HW190350   8.117   7.554   8.133  0.9476  0.3756  1.2177
27915SOL    HW290351   8.004   7.541   8.033  3.1664  0.2739 -1.4066
27916SOL     OW90352   4.222   7.352   1.828  0.1128  0.3426 -0.5290
27916SOL    HW190353   4.134   7.352   1.865  0.0172  1.0725 -0.7547
27916SOL    HW290354   4.260   7.436   1.854  0.9609 -0.2021  0.0733
27917SOL     OW90355   1.955   6.190   4.052 -0.0969  0.6241 -0.2121
27917SOL    HW190356   1.959   6.275   4.008  0.1881  0.3635 -0.6938
27917SOL    HW290357   1.881   6.198   4.112  2.1699  2.5530  2.5735
27918SOL     OW90358  11.070  10.258   1.385  0.3918 -0.2985  0.1249
27918SOL    HW190359  11.024  10.194   1.332  1.4097 -0.9620  0.0126
27918SOL    HW290360  11.001  10.304   1.434 -0.3955 -0.9893 -0.3208
27919SOL     OW90361   3.361   1.363   4.449  0.5695  0.0654  0.2947
27919SOL    HW190362   3.287   1.395   4.397  0.7324  0.4873  0.3219
27919SOL    HW290363   3.412   1.309   4.388  0.8186  0.6453 -0.0182
27920SOL     OW90364   3.060  12.679   2.828 -0.2048 -0.7356 -0.2916
27920SOL    HW190365   3.151  12.648   2.835  0.0058 -1.4960 -4.1052
27920SOL    HW290366   3.068  12.775   2.827  0.5255 -0.7876 -0.2781
27921SOL     OW90367  12.597   2.326   6.178 -0.2360  0.1739 -0.1138
27921SOL    HW190368  12.511   2.359   6.153 -0.1753 -0.1719 -0.7914
27921SOL    HW290369  12.590   2.231   6.168 -0.2291  0.0149  1.2627
27922SOL     OW90370   1.794   4.349   3.186 -0.2428 -0.5359  0.2894
27922SOL    HW190371   1.784   4.293   3.263  0.1002  3.3850  3.5192
27922SOL    HW290372   1.885   4.336   3.159 -0.1759 -1.5116  0.9206
27923SOL     OW90373   4.363   1.593   4.775  0.0195  0.1602 -0.4635
27923SOL    HW190374   4.287   1.547   4.740 -0.6914 -0.2211  1.4810
27923SOL    HW290375   4.439   1.549   4.736 -0.7211 -0.4675 -1.2102
27924SOL     OW90376   6.679   5.838  11.432  0.2095  0.2466  0.0383
27924SOL    HW190377   6.651   5.856  11.521 -1.9546  0.1496 -0.5666
27924SOL    HW290378   6.662   5.745  11.420  0.1039  0.3435 -0.5981
27925SOL     OW90379   7.205  11.430   4.322 -0.3509  0.1073  0.4146
27925SOL    HW190380   7.297  11.451   4.303 -0.5495  1.7471  1.0972
27925SOL    HW290381   7.199  11.336   4.310  1.2107  0.0932 -0.5366
27926SOL     OW90382   4.131   0.270   4.866  0.3513 -0.1854 -0.0084
27926SOL    HW190383   4.129   0.328   4.790 -0.4916 -1.3889 -0.9507
27926SOL    HW290384   4.215   0.288   4.908  0.4558  1.1186 -0.7334
27927SOL     OW90385  11.784   9.318   6.129 -0.3180 -0.4055 -0.3345
27927SOL    HW190386  11.876   9.312   6.101 -0.5453  1.2594 -1.6160
27927SOL    HW290387  11.782   9.273   6.213  1.9704  0.7076  0.4115
27928SOL     OW90388   8.909   6.680   3.789 -0.2432  0.1030  0.0188
27928SOL    HW190389   8.952   6.604   3.830  2.3270  0.6241 -1.4919
27928SOL    HW290390   8.884   6.735   3.863  0.4512 -0.9034  1.0476
27929SOL     OW90391   3.638   9.851  11.970  0.4984 -0.6238  0.0748
27929SOL    HW190392   3.594   9.849  12.055 -0.9771 -1.4341 -0.6705
27929SOL    HW290393   3.571   9.825  11.907  1.1719  1.2210 -1.5260
27930SOL     OW90394   5.129   7.000  10.476  0.2694 -0.5298  0.3095
27930SOL    HW190395   5.078   7.044  10.544  2.9650  3.4913  0.1039
27930SOL    HW290396   5.188   6.942  10.524  0.4927  0.4323  1.2358
27931SOL     OW90397   0.055   2.860  10.594 -0.0345 -0.3914  0.0271
27931SOL    HW190398   0.022   2.774  10.567  2.0384 -0.8643 -1.1376
27931SOL    HW290399  -0.005   2.887  10.664 -1.0414 -2.5349  0.0677
27932SOL     OW90400   7.583   7.287   1.758  0.3654  0.5304 -0.3560
27932SOL    HW190401   7.523   7.214   1.745 -0.4884  1.2486 -0.4888
27932SOL    HW290402   7.592   7.327   1.671  0.2278  1.0415 -0.1384
27933SOL     OW90403   9.936   1.888   4.433 -0.1265 -0.3731  0.2968
27933SOL    HW190404   9.983   1.806   4.419  1.9413  0.7703  0.1680
27933SOL    HW290405   9.859   1.863   4.485  1.6346 -2.0740  2.2715
27934SOL     OW90406   8.222   8.377   7.167 -1.1253  0.1085 -0.3062
27934SOL    HW190407   8.180   8.355   7.084 -0.8896  0.6391 -0.5675
27934SOL    HW290408   8.286   8.306   7.181  0.8593  1.4456 -2.0005
27935SOL     OW90409  11.249   5.561  10.187  0.0047 -0.3077 -0.1629
27935SOL    HW190410  11.168   5.539  10.140 -0.2285 -0.6031  0.3725
27935SOL    HW290411  11.222   5.575  10.277  0.3848  0.7005 -0.1870
27936SOL     OW90412   5.996   5.466   2.747 -0.5009 -0.0771 -0.1516
27936SOL    HW190413   6.046   5.402   2.798 -2.2151 -2.0621 -0.8072
27936SOL    HW290414   5.963   5.416   2.673 -0.6427  1.9957 -1.5687
27937SOL     OW90415   5.195   3.818   5.780 -0.7186 -0.4030  0.2087
27937SOL    HW190416   5.250   3.802   5.703 -0.2539 -0.0809  0.4633
27937SOL    HW290417   5.254   3.861   5.843 -1.1442 -0.4769  0.6657
27938SOL     OW90418  12.689   3.791   2.955  0.0504 -0.9740 -0.1584
27938SOL    HW190419  12.777   3.770   2.924  1.0060 -0.7585  2.2154
27938SOL    HW290420  12.652   3.707   2.981  0.3067 -0.8543  0.6218
27939SOL     OW90421   8.086   2.293   7.591  0.8717  0.2817  0.0396
27939SOL    HW190422   7.996   2.283   7.560  1.2995 -1.9617 -0.6622
27939SOL    HW290423   8.125   2.357   7.532 -0.0055  0.5900 -0.2148
27940SOL     OW90424   2.894   1.648   8.641  0.1509  0.2025  0.3338
27940SOL    HW190425   2.941   1.725   8.610  1.0457 -1.1571 -1.9905
27940SOL    HW290426   2.828   1.631   8.573 -0.2225 -0.8803  0.9355
27941SOL     OW90427   8.694  11.897   6.078 -0.0460 -0.0176  0.1698
27941SOL    HW190428   8.707  11.821   6.136 -0.5774 -0.9923 -0.9456
27941SOL    HW290429   8.625  11.869   6.018  0.4303  1.0115 -0.8766
27942SOL     OW90430   3.849   5.629   0.881  0.0944  0.3236  0.5021
27942SOL    HW190431   3.855   5.533   0.884  0.0855  0.2742 -0.7250
27942SOL    HW290432   3.778   5.647   0.820  0.3523  1.1286  0.4321
27943SOL     OW90433   0.276   7.214   0.362 -0.6853  0.1618 -0.4864
27943SOL    HW190434   0.332   7.188   0.435 -1.8329  1.6019  0.9711
27943SOL    HW290435   0.243   7.132   0.327 -0.5657 -0.5413  0.9837
27944SOL     OW90436   4.122   6.248   5.395 -0.0184 -0.1117  0.0087
27944SOL    HW190437   4.135   6.154   5.404 -0.2696 -0.8189 -4.5059
27944SOL    HW290438   4.026   6.259   5.394  0.0093  0.1747  0.3683
27945SOL     OW90439   7.131   1.343   6.654  0.5648  0.1485 -0.3567
27945SOL    HW190440   7.185   1.266   6.636  1.8387  0.8063  0.4225
27945SOL    HW290441   7.149   1.363   6.746 -2.1760 -0.4419  0.4045
27946SOL     OW90442   8.581   4.807   1.546  0.7081  0.1373 -0.3083
27946SOL    HW190443   8.529   4.835   1.470  1.2137  0.8816 -0.3913
27946SOL    HW290444   8.591   4.713   1.535 -1.3116 -0.1850  0.1283
27947SOL     OW90445   9.004   7.470   2.080 -0.1573 -0.0898  0.4594
27947SOL    HW190446   9.011   7.376   2.065 -2.0490  0.0615 -1.9417
27947SOL    HW290447   8.912   7.484   2.103  0.6322  0.9428  3.4835
27948SOL     OW90448   8.324  10.215   9.709  0.3925  0.5848 -0.4397
27948SOL    HW190449   8.292  10.304   9.723 -0.1299  0.1962  1.0461
27948SOL    HW290450   8.411  10.214   9.750  0.1609  0.2734  0.0562
27949SOL     OW90451   2.696   8.511   8.781  0.6101  0.7580 -0.0290
27949SOL    HW190452   2.708   8.601   8.810  0.2013  1.2201 -1.2503
27949SOL    HW290453   2.782   8.470   8.795  0.2737  0.7320  2.4469
27950SOL     OW90454   4.843   0.499   5.505 -0.2565 -0.2161 -0.2626
27950SOL    HW190455   4.802   0.584   5.492  1.2092  0.3867 -1.1604
27950SOL    HW290456   4.929   0.507   5.464 -0.2704 -2.2859 -0.8243
27951SOL     OW90457   5.930   2.288   8.912 -0.0259  0.4253 -0.0235
27951SOL    HW190458   5.876   2.302   8.990  0.1322  0.4809  0.0754
27951SOL    HW290459   5.926   2.371   8.865 -0.1271  0.3895 -0.0784
27952SOL     OW90460   2.004  12.054   8.436 -0.0229  0.2013  0.0833
27952SOL    HW190461   1.976  12.141   8.463  0.2287 -0.1419  1.5005
27952SOL    HW290462   1.923  12.007   8.420 -0.1800  0.3501  0.4380
27953SOL     OW90463   7.488   6.187  11.395 -0.2463  0.6675 -0.5064
27953SOL    HW190464   7.403   6.145  11.389 -0.1594  0.5505 -0.9653
27953SOL    HW290465   7.543   6.141  11.331  0.5188 -0.0908  0.6491
27954SOL     OW90466   7.725   0.599   8.214 -0.1622  0.0321  0.6280
27954SOL    HW190467   7.677   0.557   8.286  0.2126  1.0623  1.5026
27954SOL    HW290468   7.797   0.645   8.257  1.1755 -0.8382 -0.5933
27955SOL     OW90469   7.416   6.799  11.220  0.1826 -0.0104 -0.6784
27955SOL    HW190470   7.468   6.777  11.298  0.5020 -0.7162 -1.0797
27955SOL    HW290471   7.415   6.894  11.218 -2.4441  0.1532  1.9208
27956SOL     OW90472   2.563   8.982   2.665  0.1839 -0.2350  0.8341
27956SOL    HW190473   2.656   8.995   2.644  0.0520  1.7090  1.3217
27956SOL    HW290474   2.551   9.026   2.749 -1.3481  0.2117  0.4068
27957SOL     OW90475   0.090   4.902   8.963 -0.3083  0.2550 -0.2497
27957SOL    HW190476   0.180   4.872   8.949  0.3947  0.1458  3.4781
27957SOL    HW290477   0.048   4.891   8.878  3.0195 -0.1770 -2.0290
27958SOL     OW90478  10.287   0.170   0.356  0.5639 -0.0742  0.2236
27958SOL    HW190479  10.339   0.093   0.379  1.5282  1.1349  2.5731
27958SOL    HW290480  10.352   0.235   0.329  0.0774  0.7061  0.8583
27959SOL     OW90481   9.781  12.623  11.651  0.1830  0.4064 -0.1341
27959SOL    HW190482   9.757  12.699  11.704 -1.5684 -0.8977  1.0445
27959SOL    HW290483   9.836  12.570  11.709  0.1419  0.0542 -0.4118
27960SOL     OW90484   8.349   9.954   2.636 -0.4663 -0.1048 -0.8367
27960SOL    HW190485   8.401   9.877   2.615  0.3167  0.3082 -0.4478
27960SOL    HW290486   8.412  10.019   2.667 -0.8177  1.3757 -2.9628
27961SOL     OW90487   1.530   4.979  11.864  0.0328  0.0712  0.2478
27961SOL    HW190488   1.575   4.912  11.914  1.0041  0.4693 -0.0821
27961SOL    HW290489   1.445   4.989  11.909 -0.6846 -2.2688 -0.4781
27962SOL     OW90490  10.815   1.176   2.896  0.3841  0.1484  0.2146
27962SOL    HW190491  10.752   1.105   2.878  0.1763  0.8524 -2.1773
27962SOL    HW290492  10.899   1.132   2.905  0.2257 -0.4866 -1.0570
27963SOL     OW90493  12.648   9.962   3.706  0.2854 -0.3659 -0.2715
27963SOL    HW190494  12.610  10.008   3.781 -0.6178  0.0267 -0.9531
27963SOL    HW290495  12.578   9.906   3.674 -0.0118  0.9175 -2.0020
27964SOL     OW90496   1.951  12.347  11.707 -0.3605  0.2460 -0.1454
27964SOL    HW190497   2.008  12.416  11.740  1.9724 -0.8472 -1.6295
27964SOL    HW290498   1.884  12.393  11.655 -1.2817  1.5955  2.0931
27965SOL     OW90499   1.493   1.629   7.414 -0.3217 -0.3377  0.3826
27965SOL    HW190500   1.564   1.606   7.353  0.0656  0.3165  0.5755
27965SOL    HW290501   1.447   1.700   7.370  0.6514  0.9302  1.3207
27966SOL     OW90502  11.142   7.623   3.499 -0.4707  0.0232  0.1041
27966SOL    HW190503  11.183   7.576   3.571  0.2742 -0.3721 -0.5506
27966SOL    HW290504  11.209   7.623   3.430 -1.4138 -0.2442 -0.8414
27967SOL     OW90505   8.270   4.118   9.304  0.2845 -0.0903  0.4504
27967SOL    HW190506   8.293   4.195   9.357  1.6823  1.0754 -1.7181
27967SOL    HW290507   8.179   4.099   9.329  1.1806 -0.4264  4.1084
27968SOL     OW90508   1.223   9.803   8.282 -0.3903  0.1855  0.2460
27968SOL    HW190509   1.235   9.739   8.212 -0.3816  0.3050  0.1378
27968SOL    HW290510   1.133   9.790   8.311 -1.1652  1.6529 -1.3222
27969SOL     OW90511   4.614  12.088   6.593  0.5168 -0.1815  0.1442
27969SOL    HW190512   4.701  12.118   6.621  1.3339 -1.4461 -0.9336
27969SOL    HW290513   4.576  12.050   6.672  0.9664  0.3157  0.6111
27970SOL     OW90514  11.224   6.461  11.351  1.0176 -0.5064 -0.0841
27970SOL    HW190515  11.142   6.452  11.399  2.1763 -1.8890  1.7732
27970SOL    HW290516  11.208   6.534  11.290 -1.6783 -0.9861 -0.0928
27971SOL     OW90517   9.609  12.617   7.994  0.2467 -0.2932 -0.1651
27971SOL    HW190518   9.672  12.551   7.965  1.3374  1.7975 -2.9368
27971SOL    HW290519   9.525  12.585   7.960  0.5460 -0.8584 -0.3964
27972SOL     OW90520   4.818   3.880  11.935 -0.3197  0.1475  0.6699
27972SOL    HW190521   4.769   3.798  11.927 -0.1549  0.1561 -0.7503
27972SOL    HW290522   4.901   3.863  11.890  0.2416  0.7059  1.4709
27973SOL     OW90523   4.705   4.189  11.132 -0.4099 -0.1284  0.1690
27973SOL    HW190524   4.676   4.146  11.212 -0.2975 -0.6793 -0.0835
27973SOL    HW290525   4.639   4.256  11.115  0.2804  0.9359  1.4807
27974SOL     OW90526  12.659  11.588   2.907 -0.7225  0.6192 -0.2803
27974SOL    HW190527  12.598  11.551   2.844  1.1715 -1.9421 -0.7800
27974SOL    HW290528  12.724  11.633   2.854 -1.2194  1.9064  0.1519
27975SOL     OW90529  10.018   6.259  10.645  0.5560  0.3542  0.3848
27975SOL    HW190530   9.974   6.195  10.590 -2.0988  2.0291  0.4291
27975SOL    HW290531  10.111   6.245  10.627  0.0079 -2.1923 -1.0117
27976SOL     OW90532   6.894   2.790   0.088 -0.3390 -0.5201  0.2286
27976SOL    HW190533   6.894   2.814  -0.004 -1.1187 -1.0778  0.0781
27976SOL    HW290534   6.975   2.740   0.099 -0.3721 -0.6774 -0.2162
27977SOL     OW90535   6.724  11.734   1.990  0.2398 -0.3843 -0.1867
27977SOL    HW190536   6.763  11.771   1.911 -2.1587  1.3093 -0.7029
27977SOL    HW290537   6.772  11.774   2.062  0.5564  0.3434 -0.7898
27978SOL     OW90538   4.265   8.542   1.516  0.5749 -0.1722  0.0270
27978SOL    HW190539   4.188   8.557   1.572  0.6905 -0.6894  0.3326
27978SOL    HW290540   4.265   8.448   1.500  0.7520 -0.0769 -0.5521
27979SOL     OW90541   6.472   6.962   2.468 -0.0785 -0.3143 -0.3409
27979SOL    HW190542   6.542   6.914   2.514  1.0294 -0.3954 -2.0114
27979SOL    HW290543   6.406   6.895   2.450  0.3669 -0.7129 -0.5462
27980SOL     OW90544   7.150   0.585   6.505 -0.8922  0.2605 -0.4632
27980SOL    HW190545   7.132   0.492   6.492 -1.0244  0.1959  0.1616
27980SOL    HW290546   7.066   0.621   6.535 -1.1679  0.8077 -1.7984
27981SOL     OW90547   8.889  10.838   1.006 -0.6789  0.8355  0.6807
27981SOL    HW190548   8.966  10.876   0.963 -0.5586  0.7373  0.8099
27981SOL    HW290549   8.922  10.802   1.088 -0.9996  1.5232  1.1289
27982SOL     OW90550   7.274   0.029   3.888 -0.4103 -0.2019 -0.0250
27982SOL    HW190551   7.268   0.036   3.984  1.8489  0.3267  0.1384
27982SOL    HW290552   7.309   0.113   3.860  0.1870 -0.8049 -1.1548
27983SOL     OW90553   0.737  10.365   6.571 -0.2418  0.5075 -0.3898
27983SOL    HW190554   0.668  10.378   6.637  0.3842  0.3580  0.3185
27983SOL    HW290555   0.808  10.422   6.601 -0.3588  1.3047 -1.5755
27984SOL     OW90556   0.455  11.491   0.495 -0.0800  0.3075 -0.3700
27984SOL    HW190557   0.432  11.400   0.478  0.5935  0.1440 -0.4391
27984SOL    HW290558   0.374  11.540   0.481 -0.3475 -0.2334 -0.7150
27985SOL     OW90559   7.985   5.172   9.916 -0.0517  0.6894 -0.5056
27985SOL    HW190560   8.049   5.199   9.851 -1.4381  2.6304 -1.1695
27985SOL    HW290561   8.036   5.157   9.995  1.5937 -1.1788 -1.8409
27986SOL     OW90562   1.598   1.630   3.388 -0.0137  0.6272  0.4766
27986SOL    HW190563   1.632   1.544   3.364  1.1931  1.4016 -0.7449
27986SOL    HW290564   1.503   1.622   3.379  0.2081  0.1614 -2.4020
27987SOL     OW90565  11.999   6.767   4.892 -0.5664  0.1487  0.4081
27987SOL    HW190566  11.980   6.678   4.864  0.6803  0.1633 -0.5937
27987SOL    HW290567  11.988   6.820   4.813 -0.8054  0.8128  0.8750
27988SOL     OW90568   8.874   2.530   2.113  0.0409 -0.2785  0.5329
27988SOL    HW190569   8.918   2.544   2.196  2.0385  2.5890 -0.8350
27988SOL    HW290570   8.937   2.479   2.061 -0.4671 -0.6124  0.2410
27989SOL     OW90571   7.817   3.541   2.881  0.1584  0.0444 -0.1760
27989SOL    HW190572   7.813   3.572   2.971 -1.1255  0.1716 -0.2710
27989SOL    HW290573   7.908   3.513   2.870  0.3472  0.0841  1.1337
27990SOL     OW90574   7.193   6.044   9.289  0.2275 -0.0883  0.3537
27990SOL    HW190575   7.140   6.022   9.213 -0.4127  0.3554  0.6688
27990SOL    HW290576   7.178   6.137   9.304  1.5135  0.1822  0.1258
27991SOL     OW90577  11.775  10.496  12.518 -0.1432 -0.3082 -0.0712
27991SOL    HW190578  11.795  10.480  12.426  0.8318 -0.6006  0.1800
27991SOL    HW290579  11.686  10.533  12.517  0.8627  2.3144 -1.3476
27992SOL     OW90580   0.677  12.608   5.387  0.3044 -0.8892  0.1793
27992SOL    HW190581   0.747  12.652   5.339 -0.5164  1.5387  1.0787
27992SOL    HW290582   0.647  12.539   5.328  0.9645  0.4118 -1.7731
27993SOL     OW90583   4.177  10.344   9.117 -0.1740  0.5217  0.3013
27993SOL    HW190584   4.250  10.336   9.178  0.0993  0.2303 -0.0632
27993SOL    HW290585   4.214  10.387   9.040 -0.9289  2.6450  1.0381
27994SOL     OW90586  12.407   5.668   7.991 -0.2791  0.2646 -0.7855
27994SOL    HW190587  12.341   5.667   8.061  2.6724  0.1828  2.2691
27994SOL    HW290588  12.379   5.601   7.930 -0.7187 -3.2485  2.8445
27995SOL     OW90589   1.503   5.968   8.275  0.1491  0.1099 -0.5852
27995SOL    HW190590   1.499   5.888   8.223 -0.9733 -0.1556 -0.1339
27995SOL    HW290591   1.500   5.938   8.366 -0.3414  0.6576 -0.4113
27996SOL     OW90592   3.295   4.115   8.099 -0.2645  0.2709  0.8567
27996SOL    HW190593   3.380   4.076   8.121 -1.6242 -3.1975  0.6700
27996SOL    HW290594   3.290   4.193   8.153  3.3989  1.2175  0.1254
27997SOL     OW90595  11.261   3.047   3.479  0.4702  0.1077  0.0491
27997SOL    HW190596  11.268   3.000   3.396 -0.6275  1.8544 -1.0908
27997SOL    HW290597  11.193   3.000   3.528 -0.2655  0.2273 -0.8554
27998SOL     OW90598  12.700   2.799   1.628 -0.3893  0.6533  0.6327
27998SOL    HW190599  12.608   2.820   1.642 -0.7507 -1.3621  1.6625
27998SOL    HW290600  12.700   2.735   1.557  0.0121 -0.6149  1.7242
27999SOL     OW90601   5.376  12.349   0.996  0.1040  0.2263 -0.3109
27999SOL    HW190602   5.422  12.277   0.953 -1.3561 -0.8163 -0.1932
27999SOL    HW290603   5.440  12.386   1.057  0.6252 -1.4948  0.2239
28000SOL     OW90604   3.952  12.601   5.317 -0.5124 -0.0632 -0.4186
28000SOL    HW190605   3.974  12.521   5.364 -0.2961 -0.2148 -0.7784
28000SOL    HW290606   3.976  12.584   5.226  1.7396  1.1954 -0.1542
28001SOL     OW90607  11.408  12.205   1.340  0.0471  0.0483 -0.2072
28001SOL    HW190608  11.474  12.137   1.357  1.0827  1.0540 -0.0172
28001SOL    HW290609  11.451  12.265   1.279 -0.5340  0.9515  0.2471
28002SOL     OW90610   8.865   5.398  11.510 -0.0477 -0.1739  0.6061
28002SOL    HW190611   8.810   5.325  11.539  0.3150 -0.5871  0.2661
28002SOL    HW290612   8.903   5.368  11.427 -0.5283  0.7142  0.0518
28003SOL     OW90613  12.131   5.198  12.786  0.0414  0.4187  0.4446
28003SOL    HW190614  12.057   5.141  12.765  0.0169  1.4601 -3.0219
28003SOL    HW290615  12.206   5.158  12.742  0.6420  1.5034  0.4212
28004SOL     OW90616   0.496   6.530   4.551  0.1370 -0.6127  0.4614
28004SOL    HW190617   0.587   6.556   4.569  0.7634 -2.1887 -0.2324
28004SOL    HW290618   0.501   6.436   4.533 -1.3568 -0.4137 -1.3773
28005SOL     OW90619  10.299   5.916  10.716  0.4660 -0.0440  0.0415
28005SOL    HW190620  10.333   5.956  10.796 -0.3105  0.1661  0.2721
28005SOL    HW290621  10.225   5.863  10.745 -0.0624  0.3332 -0.5779
28006SOL     OW90622   2.666   0.165   9.145  0.0882 -0.4841 -0.0160
28006SOL    HW190623   2.723   0.191   9.072 -1.2101 -0.2153 -0.9773
28006SOL    HW290624   2.585   0.214   9.130  0.2367  0.6182  2.3740
28007SOL     OW90625   3.017   6.469   0.556  0.1942 -0.2284  0.0144
28007SOL    HW190626   3.101   6.443   0.593  0.6043 -0.1614 -0.8348
28007SOL    HW290627   2.954   6.406   0.591  0.5869 -0.2457  0.7005
28008SOL     OW90628   9.831   4.888  11.079  0.2413  0.0556  0.1319
28008SOL    HW190629   9.886   4.887  11.158 -1.5767  2.4180  1.5810
28008SOL    HW290630   9.757   4.943  11.103 -1.6516 -1.1731 -2.4770
28009SOL     OW90631  10.629  11.305   8.284  0.3845 -0.0431  0.4054
28009SOL    HW190632  10.593  11.327   8.371  0.8055 -0.2372  0.6308
28009SOL    HW290633  10.552  11.294   8.229  0.1287  1.6974  0.3406
28010SOL     OW90634   4.412  11.413   7.700 -0.0158 -0.2188  0.4474
28010SOL    HW190635   4.395  11.350   7.771  0.6512 -1.1345 -0.1676
28010SOL    HW290636   4.394  11.498   7.738 -2.7485 -0.8725  0.7775
28011SOL     OW90637  11.187   3.842  11.034 -0.0821 -0.4759  1.0773
28011SOL    HW190638  11.161   3.857  11.125  0.0294 -1.5443  1.3050
28011SOL    HW290639  11.142   3.910  10.985 -0.7526 -0.3436  1.8472
28012SOL     OW90640   3.359  12.632   4.439  0.8394 -0.3456  0.0647
28012SOL    HW190641   3.432  12.668   4.490  0.6500 -0.5895  0.5073
28012SOL    HW290642   3.381  12.654   4.349 -0.4318  3.0732  0.4319
28013SOL     OW90643  10.160   0.859   9.537 -0.3635 -0.4059 -0.5960
28013SOL    HW190644  10.180   0.808   9.458  1.4260  0.8690 -1.0411
28013SOL    HW290645  10.178   0.799   9.610  0.1628 -0.9058 -1.1303
28014SOL     OW90646   9.967   5.783   1.883  0.4176  0.4647  0.2131
28014SOL    HW190647  10.025   5.753   1.813 -0.5629 -0.9899 -0.0316
28014SOL    HW290648   9.889   5.815   1.837  0.1607  0.3996  0.5983
28015SOL     OW90649  11.268  11.904   7.951  0.5729  0.8239  0.0055
28015SOL    HW190650  11.350  11.860   7.972 -0.2300 -0.3503  0.8685
28015SOL    HW290651  11.280  11.994   7.981  1.4198  0.5754  0.4434
28016SOL     OW90652   9.993   1.791   9.482 -0.7117  0.6340  0.3083
28016SOL    HW190653   9.942   1.858   9.528 -0.8191  1.8244 -1.4286
28016SOL    HW290654  10.030   1.837   9.407  2.5614 -0.2765  1.1680
28017SOL     OW90655   6.402   3.910   4.223  0.0662 -0.2497  0.2635
28017SOL    HW190656   6.343   3.976   4.260 -1.7213 -1.5573 -0.0972
28017SOL    HW290657   6.445   3.954   4.150  0.6579  1.1657  1.3973
28018SOL     OW90658   8.943   4.019   8.795  0.5272  0.3431 -0.1671
28018SOL    HW190659   9.016   4.023   8.734  0.4633 -1.0097 -0.3576
28018SOL    HW290660   8.922   4.111   8.814  1.3994  0.7557 -1.1374
28019SOL     OW90661   9.577   0.332   4.292  0.6444 -0.1968 -0.7324
28019SOL    HW190662   9.528   0.319   4.373  0.6421  2.0650 -0.2948
28019SOL    HW290663   9.648   0.269   4.296  1.3637  0.6690  1.6743
28020SOL     OW90664   5.302   0.161   1.283 -0.1877 -0.3651 -0.2097
28020SOL    HW190665   5.391   0.164   1.318  0.1173  0.9269 -1.0136
28020SOL    HW290666   5.246   0.144   1.359  0.5480  1.1534  0.7186
28021SOL     OW90667   0.736   1.321   1.640 -0.3116 -0.1677  0.1575
28021SOL    HW190668   0.751   1.370   1.560  1.6150  1.7996  1.5993
28021SOL    HW290669   0.797   1.247   1.635  2.0775  1.5967  0.9912
28022SOL     OW90670   7.723   3.712   9.695  0.2774  0.3953 -0.2241
28022SOL    HW190671   7.644   3.687   9.742  1.2567 -1.3426  0.6121
28022SOL    HW290672   7.727   3.652   9.620  1.0390  0.1174  0.0238
28023SOL     OW90673   5.401  11.774   7.701 -0.4652 -0.0621 -0.6718
28023SOL    HW190674   5.446  11.804   7.622 -0.4458  0.1340 -0.5868
28023SOL    HW290675   5.322  11.827   7.706 -0.7263 -0.4328 -0.8400
28024SOL     OW90676   5.502   3.966   5.765  0.0050 -0.4452 -0.4096
28024SOL    HW190677   5.501   3.882   5.718 -1.4433 -0.2257 -0.8149
28024SOL    HW290678   5.557   4.023   5.711 -0.0443 -0.7686 -0.8094
28025SOL     OW90679   5.725  12.728   4.522 -0.0341  0.5831 -0.0441
28025SOL    HW190680   5.679  12.735   4.606 -2.1389 -1.8652 -0.8639
28025SOL    HW290681   5.664  12.765   4.458  0.4276  0.0258 -0.8194
28026SOL     OW90682   2.508  12.185   3.212 -0.4206  0.2162 -0.3136
28026SOL    HW190683   2.560  12.160   3.136  0.5835  2.5176 -0.4766
28026SOL    HW290684   2.424  12.140   3.200  0.7986 -1.9815 -1.0893
28027SOL     OW90685   4.598   9.028   0.589  0.2342 -0.9668 -0.3169
28027SOL    HW190686   4.604   8.961   0.656  0.8831  0.2023  0.8464
28027SOL    HW290687   4.687   9.037   0.556  0.3821  0.0345  0.2988
28028SOL     OW90688   1.020  10.255  11.249 -0.0559  0.2754  0.3728
28028SOL    HW190689   0.957  10.192  11.214 -1.0819 -0.3204  3.0700
28028SOL    HW290690   0.967  10.330  11.275  0.7854  1.0667 -0.1470
28029SOL     OW90691   5.871   9.768   0.877  0.0646  0.0909 -0.2086
28029SOL    HW190692   5.824   9.748   0.796 -0.4410  1.7034 -0.3645
28029SOL    HW290693   5.812   9.828   0.924  0.3972 -0.7247  1.3103
28030SOL     OW90694   0.907   7.795   2.803  0.0351 -0.3273  0.0156
28030SOL    HW190695   0.846   7.790   2.877  0.2919  1.5396  0.3949
28030SOL    HW290696   0.919   7.889   2.787  2.4575 -0.6076 -0.3143
28031SOL     OW90697   1.605   3.405   8.575 -0.0935  0.2747 -0.0302
28031SOL    HW190698   1.556   3.459   8.637  1.0881  2.1955 -0.6632
28031SOL    HW290699   1.619   3.462   8.500 -0.0322 -1.4343 -1.3683
28032SOL     OW90700   4.503   5.516   0.126 -0.0407 -0.2283 -0.4291
28032SOL    HW190701   4.450   5.587   0.090  1.6639  1.2409 -0.1998
28032SOL    HW290702   4.498   5.528   0.221  0.6696 -0.0582 -0.4057
28033SOL     OW90703   4.254  10.053   5.062  0.4407 -0.5517  0.2004
28033SOL    HW190704   4.283  10.136   5.100 -0.6546 -1.4649  3.3213
28033SOL    HW290705   4.333  10.016   5.022  1.0155  1.7904 -1.0234
28034SOL     OW90706   4.843  12.024  12.679 -0.6438 -0.5875 -0.6360
28034SOL    HW190707   4.819  12.111  12.648 -1.6335 -1.1814 -1.5805
28034SOL    HW290708   4.892  11.985  12.606 -0.1263 -0.7994 -0.1848
28035SOL     OW90709  10.932  10.547  10.289 -0.2165 -0.1286  0.2555
28035SOL    HW190710  10.971  10.528  10.204  0.8023  0.0081  0.6795
28035SOL    HW290711  10.986  10.617  10.325  0.5876 -1.4896  1.8428
28036SOL     OW90712   2.948   9.051  10.615  0.0965  0.5053  0.0195
28036SOL    HW190713   3.003   9.014  10.684  2.6728 -1.8832 -3.0204
28036SOL    HW290714   2.897   8.977  10.582  1.0737  0.8539 -2.4538
28037SOL     OW90715  11.220   1.642  11.352  0.1147  0.4001  0.0660
28037SOL    HW190716  11.168   1.670  11.427 -0.6219 -1.4244  0.2927
28037SOL    HW290717  11.161   1.649  11.278  0.9689  2.6025 -0.4865
28038SOL     OW90718   3.408  12.318  12.787 -0.5675 -0.3908  0.1983
28038SOL    HW190719   3.406  12.343  12.879  2.4457 -0.6653  0.4175
28038SOL    HW290720   3.351  12.241  12.781 -0.8658 -0.3153  1.7978
28039SOL     OW90721   0.144   2.948   4.680 -0.0995  0.5862 -0.1016
28039SOL    HW190722   0.123   3.021   4.738  0.8655  0.9455 -0.1860
28039SOL    HW290723   0.067   2.938   4.624  0.2049  2.3132 -0.8772
28040SOL     OW90724   7.764   0.105   9.981  0.2387  0.0659 -0.5239
28040SOL    HW190725   7.736   0.074   9.895  0.7702  1.8554 -1.3892
28040SOL    HW290726   7.859   0.093   9.981  0.2133 -0.1450 -0.0951
28041SOL     OW90727  12.259   4.731   5.269 -0.3273 -0.6784 -0.3502
28041SOL    HW190728  12.221   4.645   5.286 -3.0739  0.6192  0.5831
28041SOL    HW290729  12.337   4.712   5.216 -1.0922 -3.6731 -0.6133
28042SOL     OW90730   4.155   3.445   7.032 -0.3524 -0.3639 -0.0720
28042SOL    HW190731   4.094   3.376   7.058 -0.7329  0.1973  0.5575
28042SOL    HW290732   4.145   3.513   7.099 -0.0950  0.3704 -0.7561
28043SOL     OW90733  10.466  10.275   4.866 -0.4171 -0.5315 -0.7894
28043SOL    HW190734  10.452  10.186   4.832  1.5794 -1.4001  0.5010
28043SOL    HW290735  10.542  10.307   4.817 -0.2998 -0.0645 -0.3077
28044SOL     OW90736  10.882   1.555   0.128  0.1779  0.4128  0.2363
28044SOL    HW190737  10.808   1.613   0.145 -1.0473 -1.1557  0.4827
28044SOL    HW290738  10.843   1.470   0.112  1.9311 -0.4222  0.1246
28045SOL     OW90739  10.706   2.827   4.809 -0.0780 -0.9291  0.3977
28045SOL    HW190740  10.767   2.900   4.805 -3.1279  1.8186 -0.9896
28045SOL    HW290741  10.740   2.764   4.745  2.1230 -0.3658  0.9162
28046SOL     OW90742   6.747   4.462   7.175  0.0671 -0.0893 -0.7079
28046SOL    HW190743   6.826   4.499   7.136 -0.3420 -0.5367 -2.0262
28046SOL    HW290744   6.702   4.420   7.102 -1.3660  0.1029  0.0355
28047SOL     OW90745   1.077   2.409   4.328 -0.3217  0.0140  0.4305
28047SOL    HW190746   1.168   2.389   4.307  0.0472  2.2143 -0.4262
28047SOL    HW290747   1.076   2.422   4.423  0.4607  0.7250  0.3576
28048SOL     OW90748   9.485   1.969   5.027 -0.2725 -0.8392  0.1890
28048SOL    HW190749   9.542   1.996   5.099 -1.3225  1.1522  0.3570
28048SOL    HW290750   9.430   1.900   5.064 -0.3279 -0.3188  1.1219
28049SOL     OW90751   3.545   5.721   2.263  0.0020 -0.1063 -0.1106
28049SOL    HW190752   3.476   5.702   2.327  1.4931  1.0054  1.9333
28049SOL    HW290753   3.507   5.789   2.207 -1.6601 -1.7501 -1.0993
28050SOL     OW90754   4.217  10.757  12.777  0.6912  0.5104 -0.1039
28050SOL    HW190755   4.276  10.822  12.816 -0.3157  1.3232  0.0984
28050SOL    HW290756   4.130  10.781  12.809  0.2423 -0.6900 -0.3728
28051SOL     OW90757   5.421   5.237   0.768  0.3014 -0.1795 -1.1463
28051SOL    HW190758   5.340   5.221   0.719 -0.9299  0.9574  0.4138
28051SOL    HW290759   5.469   5.301   0.715  0.0516 -0.6314 -1.9368
28052SOL     OW90760   7.071  10.943   2.296 -0.2821 -0.4782 -0.3467
28052SOL    HW190761   7.032  10.976   2.215  0.5042 -0.1638 -0.6104
28052SOL    HW290762   7.016  10.868   2.320 -0.6958 -0.4025 -1.0166
28053SOL     OW90763   8.408   9.782  10.704  0.7267 -0.2553 -0.0680
28053SOL    HW190764   8.314   9.769  10.715  0.5235  1.2385  0.2158
28053SOL    HW290765   8.422   9.776  10.610  0.2031  0.3483 -0.1916
28054SOL     OW90766   7.131   2.158   4.715 -0.3477 -0.1039  0.8835
28054SOL    HW190767   7.197   2.152   4.784  1.4618  1.4510 -0.6046
28054SOL    HW290768   7.142   2.246   4.679 -0.4242 -1.2307 -2.1323
28055SOL     OW90769   5.983   1.388   0.646  0.2725  0.0403 -0.2598
28055SOL    HW190770   6.000   1.471   0.691  1.4381 -0.8727  1.0545
28055SOL    HW290771   5.888   1.378   0.650  0.0355  1.5988 -1.0203
28056SOL     OW90772  11.860   9.114  10.645 -0.3509 -0.5384  0.5177
28056SOL    HW190773  11.932   9.176  10.659  0.1182 -0.4121 -1.9539
28056SOL    HW290774  11.782   9.160  10.674  0.0296  1.1383 -0.9468
28057SOL     OW90775   0.918  11.481  12.619 -0.5518 -0.2389 -0.0468
28057SOL    HW190776   0.851  11.433  12.667 -0.8451 -1.1687 -1.3245
28057SOL    HW290777   0.972  11.414  12.578  1.1707  0.4969  0.9225
28058SOL     OW90778   5.311   9.267  10.914 -0.2232  0.2531 -0.0031
28058SOL    HW190779   5.239   9.212  10.945  0.0140 -0.4202 -0.6107
28058SOL    HW290780   5.269   9.339  10.868 -0.5180 -0.6666 -1.2331
28059SOL     OW90781   2.768   3.271   9.341 -0.2816 -0.6803  0.1595
28059SOL    HW190782   2.817   3.342   9.382 -1.8428  0.1305  0.6985
28059SOL    HW290783   2.831   3.229   9.283  1.4255 -0.5484  1.8129
28060SOL     OW90784  12.044   8.401   2.104  0.0826  0.0527 -0.2659
28060SOL    HW190785  12.068   8.342   2.175  0.3937  0.2606 -0.1988
28060SOL    HW290786  11.991   8.347   2.045 -0.3980 -0.0518  0.2520
28061SOL     OW90787  12.725   4.738   7.426 -0.4605  0.7281  0.2695
28061SOL    HW190788  12.800   4.784   7.390 -0.8662  2.3010  1.3233
28061SOL    HW290789  12.668   4.721   7.351  0.6486  0.0397 -0.4422
28062SOL     OW90790   2.260   4.879   1.230  0.1277 -0.5531 -0.0128
28062SOL    HW190791   2.328   4.945   1.214  0.8230 -1.2926 -0.1687
28062SOL    HW290792   2.179   4.929   1.237  0.7231  0.3717  0.4370
28063SOL     OW90793   7.603  10.908   6.956 -0.5227  0.1961 -0.0891
28063SOL    HW190794   7.553  10.828   6.969 -0.1632 -0.1861 -0.9458
28063SOL    HW290795   7.567  10.946   6.876 -1.3603  1.4223  0.8431
28064SOL     OW90796   6.927   9.413  11.830 -0.0678 -0.7323 -0.0886
28064SOL    HW190797   6.886   9.485  11.780  1.1784 -0.5470 -0.8920
28064SOL    HW290798   6.915   9.438  11.921 -0.2313  0.1840 -0.3417
28065SOL     OW90799   5.428   2.388   8.531  0.2357 -0.0429  0.1399
28065SOL    HW190800   5.379   2.350   8.458  2.4343 -1.2219 -0.8363
28065SOL    HW290801   5.520   2.380   8.504  1.1120 -0.2154  2.9042
28066SOL     OW90802  11.312   9.935  11.998  0.0948  0.0123  0.0620
28066SOL    HW190803  11.358   9.925  12.081  4.1072  3.3654 -1.4249
28066SOL    HW290804  11.250  10.007  12.013  1.3484  1.1276  0.0386
28067SOL     OW90805   5.657   6.620  11.335 -0.0270  0.2819 -0.2268
28067SOL    HW190806   5.607   6.649  11.410  1.0474  0.4815  0.4413
28067SOL    HW290807   5.740   6.667  11.342  0.6280 -0.7469 -0.7594
28068SOL     OW90808   9.657   4.621   9.790 -0.7132  0.2675 -0.0354
28068SOL    HW190809   9.579   4.673   9.769 -0.8341  1.0468  2.1065
28068SOL    HW290810   9.641   4.536   9.748 -0.3484  1.9066 -3.9321
28069SOL     OW90811  11.646   8.702   5.817 -0.4617  0.4888  1.2522
28069SOL    HW190812  11.739   8.682   5.823 -1.0692 -3.1152  0.7850
28069SOL    HW290813  11.642   8.785   5.769  2.4758 -1.3744 -2.7952
28070SOL     OW90814   4.739   2.329  10.452 -0.1512 -0.0468 -0.4731
28070SOL    HW190815   4.803   2.360  10.388 -1.3457 -0.2924 -1.8276
28070SOL    HW290816   4.750   2.388  10.527 -0.0797  1.5428 -1.6820
28071SOL     OW90817   4.703   3.514   9.496 -0.0892  0.1411 -0.2045
28071SOL    HW190818   4.740   3.593   9.456  0.2461  0.7067  1.1493
28071SOL    HW290819   4.779   3.465   9.525 -0.3193 -0.3596 -0.4476
28072SOL     OW90820   2.575   6.760  10.052  0.0164  0.3862  0.1234
28072SOL    HW190821   2.564   6.686   9.992 -0.1888  1.3060 -0.9952
28072SOL    HW290822   2.503   6.819  10.030 -2.2498 -0.7557  3.6292
28073SOL     OW90823   3.410  10.291   3.155  0.4538  0.0968  0.1091
28073SOL    HW190824   3.352  10.267   3.082  0.5097  0.2793  0.0023
28073SOL    HW290825   3.355  10.344   3.213  0.1717 -0.7623  0.6338
28074SOL     OW90826   0.063   0.844   7.382  0.1999 -0.0364  0.3029
28074SOL    HW190827   0.113   0.769   7.349 -1.7011 -0.3678 -2.1764
28074SOL    HW290828   0.098   0.919   7.334 -2.1864 -0.4283 -2.2993
28075SOL     OW90829   1.414   5.567   5.745  0.1772 -0.2771 -0.0936
28075SOL    HW190830   1.402   5.478   5.780 -2.4355 -0.6723 -1.7597
28075SOL    HW290831   1.330   5.589   5.707  1.4344  2.0634 -1.7402
28076SOL     OW90832   8.783   9.233   1.107 -0.3660  0.2666  0.0556
28076SOL    HW190833   8.832   9.287   1.045  0.7246 -1.2508 -0.4640
28076SOL    HW290834   8.726   9.180   1.052 -0.0305 -0.4599  0.3950
28077SOL     OW90835  12.730   0.516   1.845 -0.5050  0.2777 -0.1159
28077SOL    HW190836  12.788   0.446   1.875 -1.1243  0.1200  0.7460
28077SOL    HW290837  12.776   0.597   1.868 -0.4983  0.1537  0.3193
28078SOL     OW90838  10.758  12.720   8.434  0.1619 -0.1960  0.2683
28078SOL    HW190839  10.768  12.789   8.368 -2.1841 -2.6144 -2.9766
28078SOL    HW290840  10.681  12.746   8.484  0.8880  0.7929  0.9022
28079SOL     OW90841   0.214   9.309  11.511  0.2626  0.0023 -0.1379
28079SOL    HW190842   0.145   9.373  11.531 -1.2723 -0.7958 -2.4893
28079SOL    HW290843   0.284   9.361  11.471  0.4996  0.6263  1.0260
28080SOL     OW90844   0.091   8.845   0.074  0.5330 -0.4537 -0.3017
28080SOL    HW190845   0.023   8.787   0.039 -0.4627  0.8088 -0.5360
28080SOL    HW290846   0.139   8.791   0.136 -1.3858 -1.0973  0.7095
28081SOL     OW90847   6.159   1.519  11.192  0.2061 -0.0168 -0.5725
28081SOL    HW190848   6.169   1.600  11.142 -1.0452  1.2296  1.0689
28081SOL    HW290849   6.196   1.540  11.278  0.2857 -1.3658 -0.2664
28082SOL     OW90850   0.035  12.312  10.966 -0.1165 -0.3534  0.2825
28082SOL    HW190851   0.072  12.331  11.053  0.3297 -1.3917  0.3360
28082SOL    HW290852  -0.036  12.250  10.983 -1.7420  1.4044  0.1455
28083SOL     OW90853  10.442   5.076   9.492  0.3801 -0.0842 -0.2248
28083SOL    HW190854  10.439   5.155   9.545  0.4088 -0.0768 -0.2338
28083SOL    HW290855  10.526   5.036   9.513  0.4615  0.0028 -0.3831
28084SOL     OW90856  11.371   1.285  12.522 -0.4396 -0.0745  0.1616
28084SOL    HW190857  11.452   1.334  12.504 -0.3793  0.5586  1.9462
28084SOL    HW290858  11.301   1.343  12.492 -0.2760 -0.7661 -1.7081
28085SOL     OW90859   7.131   3.327  12.264 -0.3585  0.2434 -0.0040
28085SOL    HW190860   7.143   3.234  12.243 -3.0757  0.1028 -1.4200
28085SOL    HW290861   7.171   3.374  12.190 -1.2757  0.0695 -0.6315
28086SOL     OW90862   6.818   3.635  12.724  0.0609  0.1862  0.6231
28086SOL    HW190863   6.775   3.671  12.801  0.1115  1.8250 -0.0681
28086SOL    HW290864   6.912   3.644  12.743  0.1202 -1.3969  1.2317
28087SOL     OW90865   0.661   4.762   0.435 -0.9955 -0.3737 -0.0305
28087SOL    HW190866   0.644   4.682   0.484 -0.0907  0.0603  1.0465
28087SOL    HW290867   0.649   4.832   0.499  0.8302  0.1749 -0.2326
28088SOL     OW90868   3.033  10.584   1.489  0.6296 -0.3082  0.2953
28088SOL    HW190869   2.978  10.507   1.474  1.4554 -0.8602  0.0342
28088SOL    HW290870   3.107  10.572   1.430 -0.7449  2.2978 -2.2653
28089SOL     OW90871   7.934   9.754  12.597  0.0973 -0.0213  0.4790
28089SOL    HW190872   7.881   9.745  12.518  0.7475  1.5481 -0.1817
28089SOL    HW290873   7.986   9.674  12.601 -1.8697 -1.3334  0.8321
28090SOL     OW90874   1.781  10.493   1.465  0.3892 -0.0111  0.1339
28090SOL    HW190875   1.800  10.409   1.422 -0.2704  0.1630 -0.5324
28090SOL    HW290876   1.865  10.539   1.466  0.4588 -0.0728 -0.8979
28091SOL     OW90877   2.884   2.351   8.603  0.1130 -0.3556  0.3388
28091SOL    HW190878   2.868   2.308   8.519 -1.8753  0.1261  0.4162
28091SOL    HW290879   2.807   2.407   8.616  0.6021 -0.0612  2.2581
28092SOL     OW90880  11.755   9.707   1.494  0.2991  0.6523 -0.2927
28092SOL    HW190881  11.783   9.640   1.432  1.0421  1.0801 -0.4356
28092SOL    HW290882  11.665   9.684   1.515  0.7405 -0.7577  0.1610
28093SOL     OW90883   5.274  11.264  12.314  0.1831  0.1900 -0.1557
28093SOL    HW190884   5.332  11.249  12.239 -0.0213  0.3013 -0.3341
28093SOL    HW290885   5.333  11.295  12.383  0.1228  1.8436 -0.8094
28094SOL     OW90886   4.783   9.406   4.394 -0.2463 -0.2490  0.3858
28094SOL    HW190887   4.763   9.332   4.452  0.3955 -1.5710 -1.0213
28094SOL    HW290888   4.873   9.430   4.418 -0.2405 -0.3199  0.4388
28095SOL     OW90889   6.284   7.828   9.624 -0.9361 -0.3633  0.1919
28095SOL    HW190890   6.242   7.908   9.657 -1.9174 -0.5225 -0.6042
28095SOL    HW290891   6.303   7.777   9.703 -2.5224 -0.3974  0.6019
28096SOL     OW90892   1.909   4.297  11.467  0.3965  0.9010 -0.7156
28096SOL    HW190893   1.853   4.235  11.515  1.0702 -0.1749 -1.2712
28096SOL    HW290894   1.859   4.378  11.465 -0.3253  0.5087  0.4317
28097SOL     OW90895   9.144   6.775  11.513 -0.3626  0.5155  0.3453
28097SOL    HW190896   9.160   6.800  11.604 -0.6919  0.2894  0.4682
28097SOL    HW290897   9.219   6.809  11.464  1.6214 -2.2593  1.1811
28098SOL     OW90898  10.714  11.931   3.164 -0.5141  0.3361 -0.1835
28098SOL    HW190899  10.685  11.855   3.113  0.5099 -0.8182  0.9043
28098SOL    HW290900  10.762  11.985   3.102  0.0537 -0.6690 -0.6393
28099SOL     OW90901  10.502   0.044   7.475  0.1311 -0.1341  0.1502
28099SOL    HW190902  10.456  -0.002   7.545  2.3771 -0.1067  1.7360
28099SOL    HW290903  10.434   0.061   7.409 -1.9643 -0.6206  2.0547
28100SOL     OW90904   3.143   8.196  11.417  0.4479 -0.0252  0.2823
28100SOL    HW190905   3.104   8.277  11.386  0.5647  0.0222  0.2606
28100SOL    HW290906   3.074   8.154  11.467  0.3601  0.0464  0.2222
28101SOL     OW90907   7.373  11.750   8.342 -0.0549 -0.1827  0.0349
28101SOL    HW190908   7.373  11.754   8.437 -2.2733 -1.5815  0.1728
28101SOL    HW290909   7.305  11.686   8.321  0.4750 -0.0202 -2.4954
28102SOL     OW90910  10.683   6.091   2.567  0.0545  0.1334 -0.3212
28102SOL    HW190911  10.675   6.153   2.495  0.7474  1.9953  1.1140
28102SOL    HW290912  10.602   6.101   2.616  0.7015  0.9709  0.6504
28103SOL     OW90913   8.990   5.825   3.462  0.6812  0.2028 -0.0760
28103SOL    HW190914   9.044   5.746   3.452  0.1648 -0.4560  1.8298
28103SOL    HW290915   9.038   5.879   3.525  0.0221  0.4382  0.2334
28104SOL     OW90916   7.767   5.766  11.877  0.0067 -0.0543  0.0672
28104SOL    HW190917   7.838   5.791  11.935  0.1049 -0.1018 -0.0325
28104SOL    HW290918   7.689   5.809  11.913  0.5770  2.5581 -1.5113
28105SOL     OW90919   0.200   0.118   4.583 -0.2228 -0.1909 -0.0258
28105SOL    HW190920   0.116   0.105   4.538 -0.5161 -0.5965  0.6299
28105SOL    HW290921   0.179   0.106   4.675  0.6218 -0.5707  0.1172
28106SOL     OW90922   6.643   1.413   5.769 -0.0089  0.0253 -0.1437
28106SOL    HW190923   6.572   1.475   5.756 -1.7455 -1.6798  0.6372
28106SOL    HW290924   6.723   1.466   5.765 -1.3882  2.2931  0.5931
28107SOL     OW90925   6.585   4.658   6.064  0.0650 -0.0385  0.0415
28107SOL    HW190926   6.513   4.624   6.116  0.9371 -0.6439  0.8864
28107SOL    HW290927   6.642   4.583   6.048  0.1881  0.2878 -1.1895
28108SOL     OW90928   0.957   9.791  10.599 -0.5648 -0.2368 -0.0710
28108SOL    HW190929   0.987   9.816  10.686 -0.7247  1.2037 -0.4127
28108SOL    HW290930   0.928   9.700  10.609  0.1536 -0.3569  1.1789
28109SOL     OW90931   8.937   6.392   5.020  0.6387 -0.0062  0.2983
28109SOL    HW190932   8.933   6.322   5.085  0.7859 -0.7532 -0.4738
28109SOL    HW290933   8.889   6.358   4.945  0.1310  1.0021  0.1466
28110SOL     OW90934   2.473   6.513   9.217  0.0415  0.9914  0.0590
28110SOL    HW190935   2.399   6.567   9.189 -1.1894 -0.3983  0.4631
28110SOL    HW290936   2.528   6.505   9.139 -1.0707  0.7712 -0.7238
28111SOL     OW90937  10.626  10.281  12.575  0.6504 -0.2902  0.2255
28111SOL    HW190938  10.577  10.290  12.493  0.6606  0.2453  0.2763
28111SOL    HW290939  10.561  10.249  12.638  0.5114 -0.1784  0.1409
28112SOL     OW90940  10.265   9.339   1.018 -0.8389  0.6208 -0.0253
28112SOL    HW190941  10.342   9.369   0.971 -0.1672 -0.4447  0.3755
28112SOL    HW290942  10.269   9.384   1.103  0.6054 -1.1177  0.8949
28113SOL     OW90943  11.819   6.949  12.102 -0.0100  0.3650 -0.6795
28113SOL    HW190944  11.873   6.898  12.162  1.0848 -0.0175 -1.9490
28113SOL    HW290945  11.740   6.970  12.152  1.0210  0.3531  0.9872
28114SOL     OW90946   5.625   2.473  10.299  0.6223 -0.0589 -0.0192
28114SOL    HW190947   5.602   2.541  10.362  0.3357 -0.6129  0.4774
28114SOL    HW290948   5.565   2.401  10.318  1.0409 -0.5190 -0.4271
28115SOL     OW90949   3.409  11.170   6.214  0.1682 -0.0579  0.5490
28115SOL    HW190950   3.461  11.111   6.159  0.7685 -0.7867  1.8432
28115SOL    HW290951   3.393  11.247   6.159 -0.4923 -1.3265 -1.1377
28116SOL     OW90952   6.654   6.338  12.603 -0.3143 -0.0151  0.4573
28116SOL    HW190953   6.696   6.252  12.595 -1.9405 -0.7487 -0.6893
28116SOL    HW290954   6.589   6.339  12.533 -1.3316  1.5779  1.3799
28117SOL     OW90955  11.272   3.581  10.486  0.8525 -0.1955 -0.0233
28117SOL    HW190956  11.234   3.595  10.572 -0.5200  4.0048 -1.0466
28117SOL    HW290957  11.360   3.620  10.492  0.2612  1.3616 -0.7355
28118SOL     OW90958   0.298   3.434   4.992 -0.3321 -0.2681 -0.0089
28118SOL    HW190959   0.350   3.507   4.958  0.4295 -1.3597 -1.2276
28118SOL    HW290960   0.215   3.440   4.945  0.1735 -0.8893 -0.9976
28119SOL     OW90961   1.685  12.307   9.334  0.4782  0.0017  0.3141
28119SOL    HW190962   1.622  12.338   9.399 -0.2617 -0.1128 -0.3288
28119SOL    HW290963   1.707  12.385   9.283  1.5853  0.2327  1.1181
28120SOL     OW90964   3.115  12.481  10.155 -0.2085 -0.2026 -0.4136
28120SOL    HW190965   3.076  12.393  10.155 -0.7495  0.0347 -0.4251
28120SOL    HW290966   3.196  12.471  10.105 -0.0233 -0.7980 -0.0155
28121SOL     OW90967  11.595   7.907   9.898  0.2784 -0.0542  0.2906
28121SOL    HW190968  11.628   7.836   9.843 -1.5892 -0.8424  0.0896
28121SOL    HW290969  11.673   7.948   9.936  1.4732 -1.1134 -0.9473
28122SOL     OW90970  12.021   2.585  10.281 -0.4375 -0.6179 -0.2769
28122SOL    HW190971  12.080   2.648  10.321  1.4249 -2.0531 -0.6089
28122SOL    HW290972  11.933   2.619  10.299  0.4165  0.6715  1.7998
28123SOL     OW90973   2.468   0.317   8.013 -0.2315 -0.1339 -1.0240
28123SOL    HW190974   2.528   0.351   7.946  0.5354  0.5055 -0.0327
28123SOL    HW290975   2.519   0.251   8.060 -0.4695  0.0346 -0.5204
28124SOL     OW90976   1.046  10.477   2.417 -0.0776  0.3763  0.4820
28124SOL    HW190977   1.071  10.555   2.468  1.0231  0.7034 -0.5096
28124SOL    HW290978   1.119  10.464   2.357  0.5200 -2.3711  1.6547
28125SOL     OW90979   0.198   8.370   8.403 -0.2952 -0.5376 -1.1495
28125SOL    HW190980   0.170   8.352   8.493 -2.1666 -1.4016 -1.8542
28125SOL    HW290981   0.169   8.460   8.387 -2.7782 -1.3846 -1.8342
28126SOL     OW90982   4.784   2.716   3.119 -0.0575  0.2954  0.8274
28126SOL    HW190983   4.800   2.736   3.212 -0.4716  0.4116  0.8772
28126SOL    HW290984   4.842   2.774   3.071 -1.7035  2.1452  0.9454
28127SOL     OW90985  11.860   5.508   1.063 -0.2905  0.0625  0.3052
28127SOL    HW190986  11.896   5.454   0.993 -1.4268 -0.1287 -0.1614
28127SOL    HW290987  11.896   5.595   1.048  1.8104 -0.5686  1.2449
28128SOL     OW90988   9.128  11.755   1.084  0.0469  0.2588  0.3306
28128SOL    HW190989   9.203  11.703   1.115  0.2723  0.2412 -0.2375
28128SOL    HW290990   9.080  11.695   1.027  0.1083  0.5655 -0.0404
28129SOL     OW90991   0.011   5.415  10.518  0.7297 -0.5801  0.3322
28129SOL    HW190992   0.085   5.410  10.458  0.7104 -1.3058  0.3622
28129SOL    HW290993  -0.038   5.492  10.489  0.1524 -1.5048 -1.2598
28130SOL     OW90994   1.902   4.396   5.547  0.2928 -0.5687 -0.4457
28130SOL    HW190995   1.935   4.483   5.567  0.4192 -0.6280 -0.3914
28130SOL    HW290996   1.807   4.403   5.558  0.2178 -0.2224 -1.2727
28131SOL     OW90997   9.454   1.426   6.875  0.5341  0.1159  0.0300
28131SOL    HW190998   9.400   1.433   6.796  0.3966 -0.2425  0.0906
28131SOL    HW290999   9.448   1.512   6.915 -0.1075  0.0409  0.1088
28132SOL     OW91000   6.570   1.362   4.150 -0.1565 -0.2648  0.4561
28132SOL    HW191001   6.558   1.446   4.194 -0.4199 -0.0573 -0.0022
28132SOL    HW291002   6.664   1.345   4.155 -0.3316 -0.8700  2.2248
28133SOL     OW91003   6.364   8.920   0.928 -0.1861  0.2295  0.1988
28133SOL    HW191004   6.378   9.011   0.952  0.1739 -0.0313  1.0104
28133SOL    HW291005   6.411   8.870   0.994 -0.3743 -0.5494 -0.2397
28134SOL     OW91006   6.373   8.185   8.776 -0.0310  0.5905 -0.1698
28134SOL    HW191007   6.315   8.259   8.763 -0.1042  0.7048  0.7532
28134SOL    HW291008   6.415   8.202   8.860  1.2496  0.4516 -0.7554
28135SOL     OW91009   2.746  11.118   5.371 -0.2215  0.1539 -0.2934
28135SOL    HW191010   2.736  11.025   5.391  1.7502  0.0773  0.5326
28135SOL    HW291011   2.697  11.130   5.289 -0.6343 -1.5570 -0.3338
28136SOL     OW91012   4.150   2.416   6.717 -0.0248  0.0581  0.3069
28136SOL    HW191013   4.095   2.365   6.658  1.3972  0.0057 -1.0451
28136SOL    HW291014   4.112   2.402   6.804 -1.8951 -0.2434 -0.5194
28137SOL     OW91015   4.612   7.412  10.050 -0.0542 -0.7050 -0.0044
28137SOL    HW191016   4.601   7.430   9.956 -0.7461 -1.9084 -0.1750
28137SOL    HW291017   4.705   7.428  10.067 -0.0512  0.1232 -0.7612
28138SOL     OW91018   8.404   5.168   1.243 -0.2506  0.3556  0.7572
28138SOL    HW191019   8.357   5.251   1.256  1.1099  1.2875 -0.0112
28138SOL    HW291020   8.494   5.194   1.223  0.1476 -1.3009  0.2123
28139SOL     OW91021   1.722  12.104   9.980  0.2597 -0.4757  0.0545
28139SOL    HW191022   1.806  12.062   9.998 -0.0489 -0.6666  1.0887
28139SOL    HW291023   1.741  12.165   9.908  1.2558 -0.5985  0.2009
28140SOL     OW91024  11.596   8.193   1.991  0.7277 -0.0302  0.3345
28140SOL    HW191025  11.554   8.195   2.078 -1.0849  0.4595 -0.4997
28140SOL    HW291026  11.524   8.178   1.930  2.2615 -2.8622 -0.9550
28141SOL     OW91027   4.941  10.489   7.927  0.3212  0.3273  0.2213
28141SOL    HW191028   5.018  10.434   7.941 -0.0629  0.0686  1.4999
28141SOL    HW291029   4.924  10.484   7.833  1.8312  0.3515 -0.0699
28142SOL     OW91030   2.398   1.595   0.391  0.2499 -0.0990  0.0608
28142SOL    HW191031   2.473   1.638   0.349  0.5852 -0.3645  0.3802
28142SOL    HW291032   2.419   1.502   0.388  0.8080 -0.0690  1.7606
28143SOL     OW91033   6.176   0.530   0.496  0.2082  0.2638 -0.2880
28143SOL    HW191034   6.259   0.567   0.524 -0.5665  1.1113  0.9915
28143SOL    HW291035   6.170   0.552   0.402  1.2374  0.5328 -0.2969
28144SOL     OW91036   8.112   2.712   5.386 -0.2452 -0.3380 -0.3621
28144SOL    HW191037   8.178   2.703   5.317 -0.5164 -2.0657 -0.4596
28144SOL    HW291038   8.161   2.742   5.463  0.6369 -1.3870 -0.4891
28145SOL     OW91039   1.440   9.419   5.253 -0.1322 -0.2467 -0.3581
28145SOL    HW191040   1.382   9.414   5.329  0.2492 -1.7295 -0.1321
28145SOL    HW291041   1.526   9.440   5.290 -0.1174 -0.0817 -0.4821
28146SOL     OW91042   0.827   9.379   1.239  0.2947  0.0256  0.3613
28146SOL    HW191043   0.788   9.435   1.307  0.6007  0.7389 -0.0451
28146SOL    HW291044   0.889   9.324   1.287 -1.3374 -1.2967  1.0638
28147SOL     OW91045   3.796  10.210  10.846 -0.8536 -0.1526  0.1277
28147SOL    HW191046   3.837  10.210  10.760  1.1891 -0.2964  1.0393
28147SOL    HW291047   3.829  10.290  10.888 -1.0705 -0.5666  1.1117
28148SOL     OW91048   5.986   9.218   4.084  0.4497  0.4258 -0.5124
28148SOL    HW191049   5.962   9.129   4.056 -0.1900  1.1439 -2.3885
28148SOL    HW291050   6.030   9.205   4.167  0.3389 -1.6575 -0.7135
28149SOL     OW91051   0.257  10.441   7.527  0.1516  0.8743  0.0497
28149SOL    HW191052   0.288  10.518   7.479 -0.0542  0.9975  0.1159
28149SOL    HW291053   0.162  10.441   7.515  0.1984  0.3593 -0.3508
28150SOL     OW91054   0.907  11.864   5.073 -0.5236  0.0160  0.2856
28150SOL    HW191055   0.938  11.876   4.983  0.8473 -2.1941  0.4036
28150SOL    HW291056   0.906  11.769   5.086 -2.6338  0.1981  1.9757
28151SOL     OW91057   9.029  10.029   4.519 -0.2568 -0.0003 -0.6501
28151SOL    HW191058   9.109  10.043   4.470 -1.5011  0.5861 -2.6479
28151SOL    HW291059   9.031  10.094   4.589  0.5630  0.6675 -1.2736
28152SOL     OW91060   7.139   7.173   3.555 -0.2608 -0.8367  0.9623
28152SOL    HW191061   7.097   7.105   3.503  0.1554 -1.0051  0.8382
28152SOL    HW291062   7.225   7.137   3.577 -0.0750 -0.3955  0.9774
28153SOL     OW91063   9.104   5.382   0.953 -0.2690  0.4810 -0.0300
28153SOL    HW191064   9.142   5.444   0.891 -0.0011  0.7258  0.3766
28153SOL    HW291065   9.167   5.378   1.025 -1.5723  1.8207  1.2403
28154SOL     OW91066   1.398   7.949   6.923 -0.1812  0.2999  0.0843
28154SOL    HW191067   1.433   7.882   6.864 -1.7644 -0.2531 -0.2789
28154SOL    HW291068   1.450   7.940   7.003  1.5523  0.6049 -0.9528
28155SOL     OW91069   1.712   2.786   0.538  0.8324 -0.2987 -0.5605
28155SOL    HW191070   1.668   2.825   0.614 -0.1197 -1.3147 -0.5846
28155SOL    HW291071   1.749   2.861   0.492  0.1395  0.4707  0.0957
28156SOL     OW91072  10.203   1.222   0.887  0.0938 -0.5660 -0.6449
28156SOL    HW191073  10.253   1.288   0.839 -1.0064 -0.5644 -1.8437
28156SOL    HW291074  10.262   1.194   0.957  0.5094  1.8509  0.0658
28157SOL     OW91075   7.025   5.233   3.733  0.3126  0.1879  0.2174
28157SOL    HW191076   7.025   5.325   3.760  1.2417  0.0100  0.8548
28157SOL    HW291077   7.036   5.236   3.638  2.1889  0.7227  0.4055
28158SOL     OW91078   3.899  10.710   9.674  0.2049 -0.3413  0.3860
28158SOL    HW191079   3.952  10.751   9.742  0.7673  1.4966 -1.0650
28158SOL    HW291080   3.837  10.779   9.647 -0.2017 -1.1076 -0.7338
28159SOL     OW91081   7.345  10.975   4.474  0.0955 -0.2456 -0.4698
28159SOL    HW191082   7.291  11.005   4.547 -1.7310 -0.8400 -1.5202
28159SOL    HW291083   7.323  11.033   4.402  1.6541  0.1421 -0.6784
28160SOL     OW91084   4.207   3.644   4.230 -0.1873  0.2733 -0.4169
28160SOL    HW191085   4.256   3.697   4.293 -1.2510  0.2843  0.4339
28160SOL    HW291086   4.152   3.588   4.285  0.2012 -1.0303 -1.3166
28161SOL     OW91087   3.404   8.982  10.861 -0.1066 -0.3845 -0.3397
28161SOL    HW191088   3.422   9.075  10.846  0.2152 -0.2449  0.8447
28161SOL    HW291089   3.390   8.975  10.955  1.3827 -1.7841 -0.1931
28162SOL     OW91090  10.963   3.020   3.260 -0.1532  0.1561 -0.1192
28162SOL    HW191091  10.872   3.049   3.268 -0.2514 -0.3897  1.0321
28162SOL    HW291092  10.989   3.044   3.171 -1.9093 -1.0610 -1.0150
28163SOL     OW91093   3.847   9.660   6.613  0.6205  0.0290  0.0563
28163SOL    HW191094   3.929   9.612   6.624  1.2569  0.9038 -0.7269
28163SOL    HW291095   3.871   9.739   6.564 -1.1107 -0.9920 -2.7184
28164SOL     OW91096   2.169   9.587  12.034  0.7975 -0.3804  0.2090
28164SOL    HW191097   2.246   9.540  12.066  0.2111 -1.0986  0.5954
28164SOL    HW291098   2.193   9.615  11.946  0.5292 -3.0418 -0.8094
28165SOL     OW91099   0.801   0.454  10.759 -0.3322 -0.2041 -0.5396
28165SOL    HW191100   0.746   0.526  10.791  0.8726  1.4614 -1.9855
28165SOL    HW291101   0.772   0.441  10.669 -0.3899 -1.4366 -0.3589
28166SOL     OW91102   1.797   4.101   4.951  0.1953  0.1855 -0.1611
28166SOL    HW191103   1.726   4.131   5.008  0.1164  0.0028 -0.1606
28166SOL    HW291104   1.876   4.114   5.003  0.1720  0.4763 -0.1957
28167SOL     OW91105   3.514   1.624   0.488  0.1784  0.0109 -0.3881
28167SOL    HW191106   3.585   1.560   0.481 -0.9563 -1.6069  1.7336
28167SOL    HW291107   3.465   1.615   0.406  0.9885 -0.6174 -0.8203
28168SOL     OW91108   4.338  10.477   2.421  0.2737  0.2984  0.1211
28168SOL    HW191109   4.270  10.519   2.368 -0.3842  2.4581  2.4987
28168SOL    HW291110   4.366  10.402   2.368 -2.1021  0.8186 -2.0927
28169SOL     OW91111   5.748   6.253   2.353 -0.4324  0.7074 -0.2691
28169SOL    HW191112   5.719   6.175   2.306 -0.0579  0.8249 -0.6963
28169SOL    HW291113   5.836   6.270   2.320  0.5512 -0.2250  1.7112
28170SOL     OW91114   3.114   5.651  11.630  0.4934  0.5428  0.2606
28170SOL    HW191115   3.021   5.632  11.620  0.0728  1.7276  1.5591
28170SOL    HW291116   3.158   5.567  11.616 -0.6760  0.1500 -1.2944
28171SOL     OW91117   0.034   8.116   0.052  0.3778 -0.3766 -0.2511
28171SOL    HW191118  -0.018   8.126  -0.028 -1.9676 -0.1592  1.2189
28171SOL    HW291119   0.036   8.022   0.068  1.4396 -0.4823 -0.8856
28172SOL     OW91120   5.648   3.280  12.129  0.0370 -0.0729  0.3156
28172SOL    HW191121   5.736   3.266  12.164  0.6652  0.0254 -1.1679
28172SOL    HW291122   5.662   3.316  12.041 -1.4880  0.8516  0.4012
28173SOL     OW91123   2.590  11.399   1.254 -0.0782 -0.5605 -0.4429
28173SOL    HW191124   2.614  11.454   1.180  3.2298 -0.3359  0.6053
28173SOL    HW291125   2.577  11.461   1.326  1.2731 -0.9618  0.1780
28174SOL     OW91126  11.900  10.769  12.280  0.1808  0.9579  0.0062
28174SOL    HW191127  11.816  10.809  12.259  0.0787  0.4668 -0.5722
28174SOL    HW291128  11.950  10.774  12.199  0.1007 -0.2123 -0.1411
28175SOL     OW91129  11.121   7.525   0.983  0.1072 -0.2865  0.2075
28175SOL    HW191130  11.070   7.575   0.919  0.7893  1.6005  1.0770
28175SOL    HW291131  11.068   7.525   1.062  0.5029 -0.1371  0.4797
28176SOL     OW91132   3.459  11.986   2.519  0.6909  0.0187  0.1926
28176SOL    HW191133   3.396  11.913   2.520  0.1109  0.4366 -1.6072
28176SOL    HW291134   3.428  12.043   2.449  3.5478 -0.1786 -1.3681
28177SOL     OW91135   5.636   9.017   4.035  0.1659 -0.7061 -0.0289
28177SOL    HW191136   5.607   8.926   4.035 -1.8647 -0.1442 -1.3093
28177SOL    HW291137   5.657   9.036   3.944 -1.0749  0.5273 -0.1035
28178SOL     OW91138   3.472   6.094   6.275  0.3813  0.6810  0.3831
28178SOL    HW191139   3.504   6.147   6.202  1.4672 -1.1933 -0.5785
28178SOL    HW291140   3.440   6.158   6.339 -0.5653  2.4029 -1.6726
28179SOL     OW91141   6.517  10.513   3.559 -0.0947 -0.3320  0.4864
28179SOL    HW191142   6.581  10.501   3.488 -0.7328  0.5972 -0.2724
28179SOL    HW291143   6.538  10.444   3.622  0.9874 -0.6913 -0.2389
28180SOL     OW91144   9.257   8.949   9.691 -0.3209  0.4632  0.3035
28180SOL    HW191145   9.329   8.924   9.750  0.1396  0.1251 -0.3893
28180SOL    HW291146   9.213   8.867   9.671 -0.4548  0.5728  0.1471
28181SOL     OW91147   3.560   6.769   3.083  0.0346 -0.1719 -0.0090
28181SOL    HW191148   3.507   6.787   3.161  0.7994 -0.6967  0.6379
28181SOL    HW291149   3.560   6.853   3.036 -0.8493  0.0142  0.2847
28182SOL     OW91150   3.069   9.283  10.999 -0.4516 -0.4287 -0.2258
28182SOL    HW191151   3.148   9.287  10.945 -0.3082 -1.4978 -0.1153
28182SOL    HW291152   2.999   9.258  10.939 -0.7065  0.4724 -0.3152
28183SOL     OW91153  10.977   8.201   4.590  0.1638 -0.1997 -0.0998
28183SOL    HW191154  10.968   8.212   4.685 -1.5753  2.1480 -0.4320
28183SOL    HW291155  11.048   8.260   4.566 -0.2242  0.1594 -0.3810
28184SOL     OW91156  11.917  10.808   1.644  0.0797  0.1417  0.1801
28184SOL    HW191157  11.846  10.783   1.585  0.3909 -0.2386 -0.0403
28184SOL    HW291158  11.879  10.875   1.701  0.4638  2.5386 -2.1405
28185SOL     OW91159  10.402   9.671   6.751  0.0571 -0.2377 -0.2235
28185SOL    HW191160  10.353   9.620   6.686  0.6249 -0.0858 -0.7909
28185SOL    HW291161  10.349   9.750   6.764 -0.6837 -0.8400  0.4485
28186SOL     OW91162   0.730   7.867   1.227  0.1052  0.0041  0.0018
28186SOL    HW191163   0.764   7.948   1.189 -0.9465  0.4592 -0.0277
28186SOL    HW291164   0.788   7.848   1.301  0.6338  0.5285 -0.2715
28187SOL     OW91165   1.553   3.201   8.353  0.0301  0.1608 -0.2253
28187SOL    HW191166   1.584   3.196   8.444 -0.4922 -1.2271 -0.1008
28187SOL    HW291167   1.500   3.281   8.351  0.5021  0.5068  0.5497
28188SOL     OW91168   8.640  10.630   1.183 -0.0973  0.2414  0.2487
28188SOL    HW191169   8.581  10.701   1.157 -1.6549 -0.5639  1.4294
28188SOL    HW291170   8.716  10.674   1.221  0.2536  1.3142 -1.5851
28189SOL     OW91171   9.937   0.591   8.405 -0.0989  0.0843 -0.3765
28189SOL    HW191172   9.970   0.680   8.423  3.0407 -0.6809 -1.6164
28189SOL    HW291173   9.860   0.582   8.461 -0.1110  3.3165  0.3304
28190SOL     OW91174   2.558   4.370  12.685 -0.0895 -0.4055  0.7560
28190SOL    HW191175   2.467   4.389  12.664 -0.0429 -1.5354 -0.5919
28190SOL    HW291176   2.576   4.423  12.763 -1.7407  0.1981  0.7669
28191SOL     OW91177  11.040   1.897   6.064  0.1489  0.0012 -0.6602
28191SOL    HW191178  11.119   1.940   6.094 -0.3184  0.9400 -0.7510
28191SOL    HW291179  11.039   1.911   5.969 -1.1304  1.7640 -0.4338
28192SOL     OW91180   9.358  11.252   9.642  0.2180 -0.0323 -0.0107
28192SOL    HW191181   9.416  11.262   9.567  1.3746 -1.1216  0.7000
28192SOL    HW291182   9.272  11.280   9.610  0.8043  0.1046 -1.5468
28193SOL     OW91183   8.953   4.021  11.863  0.1068  0.2235  0.2358
28193SOL    HW191184   8.994   4.108  11.864  0.2763  0.2353  3.2084
28193SOL    HW291185   9.021   3.963  11.898 -0.6548 -0.7550  0.1230
28194SOL     OW91186  12.038  12.064   3.822 -0.4280 -0.5891 -0.5250
28194SOL    HW191187  12.119  12.038   3.867 -0.7893 -0.7865  0.0211
28194SOL    HW291188  12.036  12.159   3.828  0.3221 -0.4922 -1.5231
28195SOL     OW91189   7.291   4.743   2.615  0.4152  0.0825  0.5177
28195SOL    HW191190   7.223   4.789   2.565  0.6265 -0.4691 -0.3046
28195SOL    HW291191   7.367   4.801   2.609  0.0703  0.6446  1.3393
28196SOL     OW91192   8.074   9.701   5.458  0.1434 -0.0875 -0.3516
28196SOL    HW191193   8.046   9.732   5.372  0.4042 -0.5751 -0.6183
28196SOL    HW291194   8.159   9.658   5.442  0.0359 -0.4818  0.0851
28197SOL     OW91195   9.462  12.778   5.397  0.2374  0.1895  0.3771
28197SOL    HW191196   9.502  12.811   5.316 -1.7071  1.0320 -0.3022
28197SOL    HW291197   9.422  12.854   5.437 -0.5359 -0.5834  1.1042
28198SOL     OW91198  11.828   2.334   8.180  0.1555 -0.0006 -0.2295
28198SOL    HW191199  11.816   2.367   8.091 -0.9063 -2.4621 -1.0802
28198SOL    HW291200  11.923   2.324   8.189  0.2211 -1.0473 -1.6555
28199SOL     OW91201   8.797   2.642  10.691  0.0892  0.0097  0.2108
28199SOL    HW191202   8.725   2.688  10.734 -1.8832 -1.4976 -1.3099
28199SOL    HW291203   8.824   2.576  10.755  0.8193  1.1982  1.1672
28200SOL     OW91204   3.305   4.002   3.279  0.3105  0.4078  0.4629
28200SOL    HW191205   3.326   4.094   3.263 -1.2421  0.8716  0.9380
28200SOL    HW291206   3.256   3.974   3.201  1.6174 -0.3363 -0.1344
28201SOL     OW91207   0.781   9.076   3.449  0.1519  0.3459 -0.1770
28201SOL    HW191208   0.707   9.017   3.459  2.0930 -2.4316 -0.8552
28201SOL    HW291209   0.756   9.155   3.496 -2.1098 -1.5251  2.0251
28202SOL     OW91210   7.785   9.179  11.969  0.1766 -0.0189  0.3287
28202SOL    HW191211   7.865   9.186  11.918  0.3565 -0.6313  0.5242
28202SOL    HW291212   7.780   9.087  11.994  0.9510  0.5341  2.7958
28203SOL     OW91213   9.852   7.711   0.404  0.1263 -0.0483  0.0121
28203SOL    HW191214   9.776   7.686   0.352 -0.6256  1.3464  0.4057
28203SOL    HW291215   9.927   7.690   0.348 -0.3910 -3.0999  0.2977
28204SOL     OW91216  10.308  11.073   3.185  0.5436 -0.0044 -0.1476
28204SOL    HW191217  10.213  11.073   3.172  0.5108 -0.5703  0.0603
28204SOL    HW291218  10.320  11.044   3.276  0.9468 -0.8303 -0.4518
28205SOL     OW91219   1.287   5.724  10.520 -0.2639  0.2886 -0.6841
28205SOL    HW191220   1.282   5.628  10.522 -0.8258  0.3185 -0.0903
28205SOL    HW291221   1.271   5.746  10.428  3.5812 -0.3099 -1.6754
28206SOL     OW91222   9.412   7.761  11.584  0.3146  0.4449  0.2854
28206SOL    HW191223   9.359   7.702  11.530  1.7251 -0.4294 -0.2139
28206SOL    HW291224   9.433   7.835  11.527  0.5230  0.2608  0.1191
28207SOL     OW91225   6.844   9.405  12.591 -0.2007  0.7254  0.5928
28207SOL    HW191226   6.928   9.447  12.572 -0.4974  1.3231  0.5738
28207SOL    HW291227   6.779   9.463  12.551 -0.6519  0.5383  1.0447
28208SOL     OW91228  11.202   1.527  10.628 -0.1355 -0.1438  0.0910
28208SOL    HW191229  11.141   1.454  10.632 -0.0000 -0.1956  1.6828
28208SOL    HW291230  11.243   1.529  10.714  1.4579  0.4536 -0.6437
28209SOL     OW91231   3.218   7.341  12.195  0.7634  0.4493  0.5613
28209SOL    HW191232   3.271   7.401  12.247  0.0117  2.1734 -0.5576
28209SOL    HW291233   3.147   7.396  12.160 -2.5358 -1.8950  2.8934
28210SOL     OW91234   0.238   2.474   9.024  0.4107  0.3068 -0.1615
28210SOL    HW191235   0.171   2.460   8.958 -0.2256  1.2492  0.2511
28210SOL    HW291236   0.198   2.536   9.085  1.0958 -0.2991  0.9324
28211SOL     OW91237   3.453  10.887   1.181 -0.0763  0.7792 -0.0167
28211SOL    HW191238   3.478  10.878   1.273  1.1752  0.2695 -0.3859
28211SOL    HW291239   3.533  10.870   1.132 -0.7399  0.9517 -1.2158
28212SOL     OW91240   4.078   4.811   3.213  0.3781  0.2803 -0.8842
28212SOL    HW191241   4.108   4.737   3.267  2.8582  1.5231 -0.3683
28212SOL    HW291242   4.004   4.777   3.164 -0.3096 -1.7217  1.3335
28213SOL     OW91243   4.583   8.995   6.930  0.0318 -0.3910 -0.0135
28213SOL    HW191244   4.655   9.014   6.869 -1.6657  0.7365 -1.8044
28213SOL    HW291245   4.544   9.080   6.949  0.3872 -0.7325  2.6214
28214SOL     OW91246   8.198   0.172  12.193  0.1268 -0.1509 -0.1893
28214SOL    HW191247   8.147   0.102  12.233 -0.1242  0.0086 -0.2296
28214SOL    HW291248   8.143   0.250  12.200 -0.3186 -0.2939 -1.6300
28215SOL     OW91249   7.102   0.866   0.655  0.0103  0.0038  0.0076
28215SOL    HW191250   7.091   0.857   0.750  0.8715 -1.7683 -0.0246
28215SOL    HW291251   7.196   0.864   0.641 -0.1177 -0.0630 -0.9067
28216SOL     OW91252   3.269   2.429   6.544 -0.1202  0.3460 -0.3354
28216SOL    HW191253   3.353   2.439   6.501 -0.7269 -1.0867 -1.9439
28216SOL    HW291254   3.280   2.351   6.600  0.2098  1.3367  1.0249
28217SOL     OW91255   6.571   8.135   6.467  0.5210  0.2019 -0.1376
28217SOL    HW191256   6.592   8.102   6.379  0.3886 -0.7212  0.1661
28217SOL    HW291257   6.563   8.229   6.455  0.6379  0.1082 -1.0945
28218SOL     OW91258   4.524  10.018   0.455  0.1013  0.4212 -0.3035
28218SOL    HW191259   4.530  10.005   0.360 -0.3544 -0.3778 -0.2359
28218SOL    HW291260   4.470   9.945   0.485  1.1199  0.0516  0.7046
28219SOL     OW91261  11.898   8.950   3.355  0.1669 -0.7841  0.3624
28219SOL    HW191262  11.981   8.995   3.371 -0.2274  0.3319 -0.5759
28219SOL    HW291263  11.923   8.860   3.334  1.3103 -0.0739 -1.5835
28220SOL     OW91264   6.019  12.761   8.418 -0.1573 -0.1097 -0.1876
28220SOL    HW191265   6.030  12.762   8.323 -0.1264  0.2129 -0.1813
28220SOL    HW291266   6.109  12.766   8.453 -0.2379  1.9704 -0.1375
28221SOL     OW91267   9.892  12.102   0.930  0.3525 -0.8390 -0.1506
28221SOL    HW191268   9.803  12.129   0.906  0.6407  1.1613  0.8474
28221SOL    HW291269   9.946  12.178   0.910  1.7294 -1.7568 -0.0088
28222SOL     OW91270   8.142   3.097   9.606  0.5717  0.4739 -0.4592
28222SOL    HW191271   8.215   3.142   9.649 -0.2042  1.7070 -0.3597
28222SOL    HW291272   8.064   3.140   9.641 -0.2173 -0.8463 -0.5314
28223SOL     OW91273   4.908   3.085  10.369  0.1544 -0.0889 -0.0056
28223SOL    HW191274   4.973   3.026  10.406 -1.5008 -0.6864  2.1574
28223SOL    HW291275   4.884   3.046  10.285  3.4599  0.8821 -1.5988
28224SOL     OW91276   8.848  11.732   8.951  1.1616 -0.3189 -0.0342
28224SOL    HW191277   8.787  11.660   8.967  1.9053 -0.4721  2.6213
28224SOL    HW291278   8.794  11.802   8.915 -0.1758 -1.1354  0.3143
28225SOL     OW91279   1.743   9.948   0.973 -0.9321  0.5925 -0.4626
28225SOL    HW191280   1.688   9.874   0.999 -1.0257  0.8877  0.2113
28225SOL    HW291281   1.817   9.945   1.033  0.0206 -0.0547 -1.6384
28226SOL     OW91282   4.328   1.588  11.651 -0.8193 -0.1164  0.2441
28226SOL    HW191283   4.303   1.657  11.591  0.7473  0.8536  0.6427
28226SOL    HW291284   4.278   1.605  11.731  0.2395  1.1549  0.6668
28227SOL     OW91285   8.081   1.898   7.705 -0.1008 -0.1552 -0.1769
28227SOL    HW191286   7.999   1.947   7.712 -0.0171 -0.1815  1.5778
28227SOL    HW291287   8.147   1.964   7.686 -0.3689  0.0228 -0.4952
28228SOL     OW91288  11.116  11.165  11.440 -0.3283 -0.3558  0.1118
28228SOL    HW191289  11.130  11.154  11.534 -1.6368  0.3556  0.4287
28228SOL    HW291290  11.047  11.231  11.435 -1.4651 -1.5950 -1.3005
28229SOL     OW91291   3.943   0.602   5.287 -0.0384 -0.4420  0.4396
28229SOL    HW191292   3.911   0.533   5.345 -1.0635  1.2825  2.0321
28229SOL    HW291293   3.867   0.623   5.232  0.7853 -1.7308 -1.2709
28230SOL     OW91294   3.816   7.930   2.410  0.4211  0.3077  0.0115
28230SOL    HW191295   3.880   7.923   2.339  1.0604  2.2501  0.3288
28230SOL    HW291296   3.731   7.935   2.365  0.6246 -0.5344 -0.4909
28231SOL     OW91297   2.912  11.518  10.482  0.1428  0.3824  0.4416
28231SOL    HW191298   2.820  11.504  10.504  0.4259 -1.0589  0.7810
28231SOL    HW291299   2.948  11.566  10.556  0.2993 -1.5020  1.6356
28232SOL     OW91300   6.081   0.180   3.714 -0.1110 -0.5702  0.3758
28232SOL    HW191301   6.037   0.123   3.776  0.8909 -2.8337 -0.8831
28232SOL    HW291302   6.019   0.191   3.642 -0.4027  0.1585  0.7348
28233SOL     OW91303   1.322   5.447   4.542 -0.1318 -0.4565 -0.5332
28233SOL    HW191304   1.337   5.451   4.447  0.6149 -0.2733 -0.4159
28233SOL    HW291305   1.364   5.366   4.569  2.2156  0.8612  0.0492
28234SOL     OW91306   5.139   4.439   2.202 -0.4800 -0.1885  0.0327
28234SOL    HW191307   5.221   4.447   2.250 -0.4665  0.4851 -0.0887
28234SOL    HW291308   5.161   4.466   2.112 -0.6498 -0.8059 -0.1983
28235SOL     OW91309   1.997   8.625   2.449  0.1546 -0.1201  0.4682
28235SOL    HW191310   1.992   8.540   2.406 -0.1489  0.3271 -0.4230
28235SOL    HW291311   1.941   8.682   2.396  2.0826  1.1665 -0.3024
28236SOL     OW91312   6.458   7.275   6.913 -0.0273  0.2908 -0.6716
28236SOL    HW191313   6.372   7.304   6.945  0.3939  1.4800 -0.5544
28236SOL    HW291314   6.453   7.180   6.915 -1.4667  0.3347 -0.9986
28237SOL     OW91315   9.992   2.522  10.727  0.1749 -0.4225  0.7254
28237SOL    HW191316  10.041   2.569  10.660  1.0961 -1.0360  0.9472
28237SOL    HW291317   9.920   2.481  10.679  1.7425 -2.2285 -0.2409
28238SOL     OW91318   7.795  11.379   9.831 -0.2301 -0.1264  0.4211
28238SOL    HW191319   7.749  11.451   9.874  0.5440 -0.0028  1.0648
28238SOL    HW291320   7.805  11.407   9.740 -2.6262 -0.7449 -0.1045
28239SOL     OW91321  10.201   0.801   6.635  0.5935  0.3023 -0.1527
28239SOL    HW191322  10.293   0.816   6.617  0.9974 -1.3774  0.3680
28239SOL    HW291323  10.158   0.882   6.608  2.0551  0.6651 -1.5385
28240SOL     OW91324  11.305   3.404   9.309  0.2380 -0.2759 -0.3564
28240SOL    HW191325  11.283   3.448   9.227 -0.3780 -0.2333 -0.1722
28240SOL    HW291326  11.354   3.470   9.359  1.3781 -0.5770 -1.0222
28241SOL     OW91327   7.106   4.831  11.673 -0.4244  0.0787  0.4044
28241SOL    HW191328   7.046   4.792  11.609  1.8584  0.2617 -2.0227
28241SOL    HW291329   7.102   4.925  11.655  1.0753  0.0307 -0.3344
28242SOL     OW91330   6.278   4.716   6.823 -0.1520 -0.1877 -0.4802
28242SOL    HW191331   6.233   4.793   6.788  1.1814  0.6336 -0.4340
28242SOL    HW291332   6.370   4.739   6.823  0.0799 -0.9030  1.7749
28243SOL     OW91333  10.812   6.836   2.773 -0.4105  0.1889  0.1107
28243SOL    HW191334  10.867   6.914   2.762 -0.2232  0.0365 -0.0308
28243SOL    HW291335  10.735   6.868   2.820 -0.3539  0.4694  0.0139
28244SOL     OW91336   7.161   0.126   5.223 -0.0670  0.4028 -0.6644
28244SOL    HW191337   7.208   0.196   5.269 -1.0402  0.3931  0.3569
28244SOL    HW291338   7.112   0.171   5.154 -0.8029  0.7540  0.0807
28245SOL     OW91339   7.991   7.696   1.078 -0.5384  0.3228 -0.3903
28245SOL    HW191340   8.002   7.748   1.158  1.3251 -0.0726 -0.3622
28245SOL    HW291341   7.915   7.641   1.097 -0.3618  0.4982  0.9682
28246SOL     OW91342   1.891   9.327   6.045  0.7428 -0.1595  0.5735
28246SOL    HW191343   1.970   9.273   6.042  1.1834  0.5198 -1.7549
28246SOL    HW291344   1.819   9.265   6.034  1.2573 -0.3472 -2.3738
28247SOL     OW91345   6.719   8.757   1.370 -0.1928 -0.7634 -0.2441
28247SOL    HW191346   6.630   8.723   1.385 -0.0806 -1.2089 -0.5520
28247SOL    HW291347   6.776   8.695   1.415 -0.0760 -0.0057  0.6876
28248SOL     OW91348   0.124  11.612   0.969  0.2439  0.2740 -0.2326
28248SOL    HW191349   0.050  11.600   1.029 -0.0009 -2.1677 -0.9450
28248SOL    HW291350   0.096  11.682   0.910 -1.6505 -0.8291 -0.6923
28249SOL     OW91351   1.905   6.038  12.623 -0.3945  0.4513 -0.2103
28249SOL    HW191352   1.869   5.990  12.698 -1.1186  0.3653 -0.5966
28249SOL    HW291353   1.917   6.127  12.656  0.4777  0.1352  0.3639
28250SOL     OW91354   8.383   3.810  12.469  0.5976 -0.5722 -0.4278
28250SOL    HW191355   8.388   3.830  12.563 -0.1466  2.9296 -0.9801
28250SOL    HW291356   8.303   3.852  12.440  0.3413 -2.3683 -2.5281
28251SOL     OW91357   3.992   7.426  12.485 -0.3980 -0.4022  0.0329
28251SOL    HW191358   4.023   7.446  12.397  0.6200 -0.5698  0.3354
28251SOL    HW291359   4.002   7.332  12.494  1.0449 -0.1997  0.8696
28252SOL     OW91360   0.055   5.274  11.928 -0.1201 -0.2716 -0.5341
28252SOL    HW191361  -0.021   5.278  11.986  1.3723  2.1935  1.4359
28252SOL    HW291362   0.028   5.321  11.850 -0.4446  1.1725  0.4177
28253SOL     OW91363   4.907   3.477  11.224  0.4202 -0.0563 -0.0997
28253SOL    HW191364   4.972   3.547  11.220  0.2277  0.1043 -0.5755
28253SOL    HW291365   4.957   3.396  11.228  0.6478  0.1164  0.7164
28254SOL     OW91366   0.872  10.395   5.472 -0.5152 -0.3098  0.3124
28254SOL    HW191367   0.803  10.331   5.487 -0.6005 -0.3310 -0.1683
28254SOL    HW291368   0.953  10.344   5.466 -0.6141 -0.4043 -0.3176
28255SOL     OW91369  11.330   6.939   1.994  0.3008 -0.0325  0.0213
28255SOL    HW191370  11.397   6.980   2.050 -0.1589 -0.9908  1.3411
28255SOL    HW291371  11.251   6.991   2.009  0.5717  0.7087 -1.0401
28256SOL     OW91372   5.181   1.308  10.426  0.2012 -0.3901 -0.2618
28256SOL    HW191373   5.205   1.399  10.441 -0.7248 -0.3772  1.3645
28256SOL    HW291374   5.264   1.264  10.407  1.0864  0.2628  1.8123
28257SOL     OW91375   1.555   7.022   6.787  0.0798 -0.3056  0.4090
28257SOL    HW191376   1.650   7.027   6.786  0.0634 -0.0948 -0.2871
28257SOL    HW291377   1.531   7.000   6.697 -0.4797 -1.2995  0.7839
28258SOL     OW91378   0.708   5.668   5.584  0.2084  0.5234  0.7617
28258SOL    HW191379   0.698   5.574   5.604  1.6641  0.1918  0.0719
28258SOL    HW291380   0.629   5.708   5.620 -1.1834 -1.1687 -0.2443
28259SOL     OW91381   2.113   8.728   1.073 -0.9343  0.6841 -0.8644
28259SOL    HW191382   2.045   8.709   1.138 -0.5418  0.4768 -0.5142
28259SOL    HW291383   2.173   8.654   1.077 -0.3658  1.1398 -0.7517
28260SOL     OW91384  11.810   3.099  12.676 -0.7051  0.5981 -0.5021
28260SOL    HW191385  11.739   3.121  12.735 -0.0050  2.0041 -0.1406
28260SOL    HW291386  11.770   3.041  12.611 -1.3362 -1.6179  1.7037
28261SOL     OW91387   1.974   9.284   7.772 -0.0084 -0.4570 -0.1716
28261SOL    HW191388   1.928   9.324   7.698  2.1429  1.5696 -0.5550
28261SOL    HW291389   1.942   9.331   7.849 -1.5744 -1.9381  0.1276
28262SOL     OW91390   7.494   6.440   1.942  0.0703  0.0981  0.4084
28262SOL    HW191391   7.513   6.346   1.935 -1.1565 -0.1213 -0.1000
28262SOL    HW291392   7.557   6.482   1.883  0.3161 -0.4439  0.2818
28263SOL     OW91393  12.733  12.508   2.866  0.4339  0.1397 -0.4722
28263SOL    HW191394  12.755  12.597   2.894  0.3856  0.0302 -0.0806
28263SOL    HW291395  12.817  12.471   2.838  0.1591  0.9563 -2.5301
28264SOL     OW91396  12.493   8.684   5.811 -0.3528 -0.0586 -0.1144
28264SOL    HW191397  12.531   8.759   5.857 -0.3357  0.8293 -1.5060
28264SOL    HW291398  12.398   8.697   5.819 -0.3552 -0.2520  0.1925
28265SOL     OW91399   7.291   1.487   8.025 -0.5030  0.0276 -0.2486
28265SOL    HW191400   7.291   1.582   8.028 -0.1253  0.0595 -0.9487
28265SOL    HW291401   7.373   1.464   7.980 -0.0829 -0.6641  0.8275
28266SOL     OW91402   3.579   1.722   0.097 -0.5878 -0.2621  0.1916
28266SOL    HW191403   3.644   1.751   0.161 -1.6776  0.2401  1.1065
28266SOL    HW291404   3.610   1.636   0.069 -0.1367 -0.5556  1.4992
28267SOL     OW91405   1.006   4.298   0.913  0.2447 -0.4477 -0.0335
28267SOL    HW191406   0.948   4.369   0.943 -0.1878 -0.3870 -0.9714
28267SOL    HW291407   0.982   4.223   0.967  0.3864 -0.0106  0.6574
28268SOL     OW91408  12.162   1.346   4.928 -0.2231  0.3272  0.0495
28268SOL    HW191409  12.076   1.304   4.918 -0.5353  0.9773 -0.0349
28268SOL    HW291410  12.196   1.352   4.839 -0.3023  0.4980  0.0293
28269SOL     OW91411   3.242   3.097   5.167  0.1152 -0.4483  0.6489
28269SOL    HW191412   3.251   3.104   5.262 -0.7447 -2.6873  0.9484
28269SOL    HW291413   3.152   3.067   5.153  0.4491 -0.8597 -0.8294
28270SOL     OW91414   3.493   1.895  12.471  0.1296 -0.7011  0.0277
28270SOL    HW191415   3.484   1.921  12.379 -4.4202  0.0321  0.4724
28270SOL    HW291416   3.448   1.812  12.478  1.7934 -1.5582  1.4028
28271SOL     OW91417   9.937   0.773   0.816  0.1525 -0.0219 -0.2363
28271SOL    HW191418  10.008   0.821   0.858  0.0719  0.5422 -0.7347
28271SOL    HW291419   9.857   0.803   0.859  0.1549 -0.1489 -0.1434
28272SOL     OW91420   1.932  10.033   4.842 -0.2837  0.1579  0.9338
28272SOL    HW191421   1.857  10.091   4.854 -0.8365 -0.3041 -0.2158
28272SOL    HW291422   2.004  10.092   4.820 -0.9105  0.4007 -0.5483
28273SOL     OW91423   7.441   0.318   4.903 -0.0346 -0.2598 -0.1417
28273SOL    HW191424   7.428   0.374   4.980  1.6243 -0.0630  0.0122
28273SOL    HW291425   7.415   0.373   4.829 -1.6351 -0.4440  0.2387
28274SOL     OW91426   7.952  11.211  10.408 -0.0091  0.4781 -0.2147
28274SOL    HW191427   8.015  11.140  10.391  0.1885  0.8769 -1.2650
28274SOL    HW291428   8.001  11.274  10.461  0.4377  0.6991 -0.8693
28275SOL     OW91429   6.449   1.331   4.568  0.0504 -0.2613 -0.8870
28275SOL    HW191430   6.443   1.307   4.476 -0.2897  0.5299 -1.0806
28275SOL    HW291431   6.506   1.265   4.607 -1.9559 -2.2227 -1.0824
28276SOL     OW91432   8.536   8.617  10.764  0.2528 -1.0208 -0.0379
28276SOL    HW191433   8.577   8.692  10.720 -1.7150  0.3466  0.3459
28276SOL    HW291434   8.563   8.625  10.855 -1.5562  0.4783  0.4277
28277SOL     OW91435   9.823   6.420  10.028 -0.1342 -0.3561  0.1207
28277SOL    HW191436   9.734   6.420  10.063 -1.1360 -0.1436 -2.2147
28277SOL    HW291437   9.848   6.327  10.027 -0.8480 -0.5572 -0.3315
28278SOL     OW91438   3.257   6.439   4.202 -0.4970  0.0443 -0.6900
28278SOL    HW191439   3.332   6.426   4.143 -0.6349  0.5154 -0.9707
28278SOL    HW291440   3.285   6.507   4.262  0.2493 -1.5227  0.8346
28279SOL     OW91441  10.069   0.020   9.826 -0.4823  0.0656 -0.3158
28279SOL    HW191442  10.064   0.090   9.761 -1.1448  0.2943 -0.0248
28279SOL    HW291443  10.022   0.055   9.902  0.0528 -0.3045  0.1909
28280SOL     OW91444   0.494   0.918  12.588  0.4929 -0.5911  0.5291
28280SOL    HW191445   0.411   0.945  12.627  0.1141 -0.7686 -0.1410
28280SOL    HW291446   0.477   0.831  12.552  0.1399  0.4601 -2.0550
28281SOL     OW91447   3.613   1.941  12.048  0.1234 -0.4698 -0.3909
28281SOL    HW191448   3.539   1.895  12.007 -0.0348 -0.2319 -0.3697
28281SOL    HW291449   3.639   1.884  12.121  1.3444 -1.6472 -1.6807
28282SOL     OW91450   3.246   9.038  10.165  1.1797  0.4602  0.1210
28282SOL    HW191451   3.184   9.031  10.238  0.5911 -0.8903 -0.4812
28282SOL    HW291452   3.214   9.112  10.114  1.8329  1.6944  1.4093
28283SOL     OW91453  11.493   8.765   2.217 -0.3072  0.4965  0.2303
28283SOL    HW191454  11.441   8.722   2.284 -0.2806  0.2250  0.0793
28283SOL    HW291455  11.544   8.831   2.264  1.5047 -1.2667  0.8769
28284SOL     OW91456  10.946   0.347  11.778  0.3811 -0.0589  0.4986
28284SOL    HW191457  10.974   0.303  11.698 -1.6795 -2.6753  1.0481
28284SOL    HW291458  11.025   0.354  11.831  1.1867 -1.2626 -0.4923
28285SOL     OW91459   2.437   0.594  10.736  0.1325 -0.5288  0.6159
28285SOL    HW191460   2.508   0.625  10.792  1.6563 -2.8134  0.1137
28285SOL    HW291461   2.367   0.569  10.796  1.7705 -3.0274  1.6279
28286SOL     OW91462   1.683   2.895   6.332  0.4268  0.6907 -0.3742
28286SOL    HW191463   1.660   2.882   6.424  1.4336  0.6150 -0.1307
28286SOL    HW291464   1.605   2.937   6.294  0.6256  2.2606  0.8723
28287SOL     OW91465   4.722   1.521   4.545  0.1534 -0.0659  0.5652
28287SOL    HW191466   4.768   1.439   4.565 -0.5174 -0.4757  0.4656
28287SOL    HW291467   4.766   1.554   4.466 -0.0419 -0.7191  0.1700
28288SOL     OW91468   2.970   3.245  10.617  0.1845  0.0451  0.4947
28288SOL    HW191469   3.030   3.173  10.638 -0.1587 -1.7843 -3.7770
28288SOL    HW291470   2.884   3.204  10.616 -0.1570  0.7362 -0.7543
28289SOL     OW91471  11.580   2.522  10.662  0.1576  0.1437 -0.1031
28289SOL    HW191472  11.634   2.445  10.645 -1.3284 -0.9853  0.1208
28289SOL    HW291473  11.641   2.588  10.695  1.5871 -0.6580 -1.0616
28290SOL     OW91474   8.938  10.186   8.345 -0.4008 -0.0157  0.2143
28290SOL    HW191475   8.850  10.149   8.341  0.0989 -1.2746  0.1817
28290SOL    HW291476   8.932  10.270   8.299 -1.8572  0.5247  1.3098
28291SOL     OW91477   4.142   4.472  10.918  0.1378  0.1531  0.1982
28291SOL    HW191478   4.199   4.549  10.924  0.6729 -0.2750  0.6984
28291SOL    HW291479   4.149   4.445  10.826  0.7662  0.1018  0.2514
28292SOL     OW91480   1.755  11.834   3.124  0.2127  0.5710  0.1909
28292SOL    HW191481   1.782  11.754   3.078  0.0573  0.5257  0.1803
28292SOL    HW291482   1.799  11.829   3.209  0.9628  0.9302 -0.1649
28293SOL     OW91483   5.140   0.980   0.558 -0.1844  0.3197  0.0606
28293SOL    HW191484   5.080   0.930   0.502  0.0295  1.2709 -1.0522
28293SOL    HW291485   5.182   0.914   0.613 -0.4441 -0.6532 -0.8696
28294SOL     OW91486   0.988   6.938   5.258  0.4360 -0.0650 -0.5303
28294SOL    HW191487   0.960   6.971   5.172  0.3511  0.8101 -0.1796
28294SOL    HW291488   0.957   7.004   5.320  1.4330 -0.1458  0.0707
28295SOL     OW91489   0.640   2.582  11.234  0.1475  0.8245 -0.0334
28295SOL    HW191490   0.574   2.534  11.284 -1.3158  1.6705 -1.0542
28295SOL    HW291491   0.674   2.518  11.171  0.1802  0.4180  0.3976
28296SOL     OW91492   9.130   1.826   4.758 -0.0466  0.4559  0.4155
28296SOL    HW191493   9.070   1.816   4.684  0.0035  3.3090 -0.1533
28296SOL    HW291494   9.092   1.896   4.811  1.6183  0.7841  1.2617
28297SOL     OW91495   7.305  11.748  12.753  0.0404  0.2523  0.2403
28297SOL    HW191496   7.395  11.775  12.733  0.1052  0.7064  1.1220
28297SOL    HW291497   7.309  11.716  12.843 -0.2918 -1.5806 -0.3599
28298SOL     OW91498   8.468   6.764   3.567  0.0632  0.0142  0.0151
28298SOL    HW191499   8.486   6.745   3.476 -1.1703  0.6288 -0.3856
28298SOL    HW291500   8.534   6.715   3.616 -0.3401 -1.7651 -1.1230
28299SOL     OW91501   1.343   6.820   2.266 -0.5916  0.6251 -0.2039
28299SOL    HW191502   1.397   6.853   2.337 -0.2400 -0.1719 -0.0913
28299SOL    HW291503   1.257   6.859   2.281 -0.2530  1.2783  0.0651
28300SOL     OW91504   7.614   9.410   9.659  0.2494  0.2002 -0.1954
28300SOL    HW191505   7.596   9.344   9.593  1.3388 -0.8874  0.5463
28300SOL    HW291506   7.530   9.425   9.703  0.1795 -1.4823  0.3148
28301SOL     OW91507   7.164   2.319   3.219 -0.3286 -0.2211 -0.0426
28301SOL    HW191508   7.222   2.363   3.281  0.2007 -0.9292 -0.0237
28301SOL    HW291509   7.096   2.384   3.200 -0.7130 -0.1007  1.5475
28302SOL     OW91510   9.317  11.336   7.173 -0.0380  0.1868  0.3288
28302SOL    HW191511   9.358  11.260   7.214 -0.3335  0.3621  0.9583
28302SOL    HW291512   9.368  11.411   7.202  0.2090  0.2455 -0.2332
28303SOL     OW91513   1.504   3.587   0.765  0.1895  0.1478  0.1630
28303SOL    HW191514   1.492   3.527   0.839  1.4636  0.1889  0.4327
28303SOL    HW291515   1.497   3.674   0.804 -2.2296  0.2313 -0.3243
28304SOL     OW91516   9.425   2.998   3.222  0.5054 -0.9104 -0.2681
28304SOL    HW191517   9.464   2.934   3.282  1.2650 -0.6414 -0.4675
28304SOL    HW291518   9.382   2.945   3.155 -0.6038 -1.2184  0.6560
28305SOL     OW91519   9.996   4.407  10.569  0.0683  0.7255 -0.1584
28305SOL    HW191520   9.961   4.487  10.530 -0.1768  0.1236 -1.2229
28305SOL    HW291521  10.088   4.407  10.544  0.4313  1.3806  1.0780
28306SOL     OW91522   1.768   1.581  12.379 -0.0376  0.6421 -0.1758
28306SOL    HW191523   1.684   1.619  12.355 -0.4016 -1.1303 -2.0629
28306SOL    HW291524   1.828   1.609  12.309  0.9233  1.7170  1.0335
28307SOL     OW91525   4.316   3.695  11.669 -0.6060 -0.1371  0.4870
28307SOL    HW191526   4.335   3.783  11.635 -1.3379 -0.3090 -0.4099
28307SOL    HW291527   4.302   3.642  11.590  1.0524 -1.3672  0.9611
28308SOL     OW91528  12.445   2.499  12.621  0.2643 -0.7870  0.2183
28308SOL    HW191529  12.459   2.530  12.532  1.1483 -1.0529  0.2538
28308SOL    HW291530  12.411   2.575  12.668  0.2363 -0.5160 -0.2344
28309SOL     OW91531  10.795   8.807   4.626  0.1316  0.1825 -0.4529
28309SOL    HW191532  10.878   8.842   4.658  0.4393 -0.4804 -0.5293
28309SOL    HW291533  10.819   8.740   4.562 -0.4390 -0.7063  0.2387
28310SOL     OW91534   9.483   7.799   4.523 -0.3703 -0.1709  0.1676
28310SOL    HW191535   9.551   7.748   4.479  0.8248  0.4449  1.2524
28310SOL    HW291536   9.468   7.752   4.606  0.3294  0.8766  0.9172
28311SOL     OW91537   0.257  11.506   9.201  0.2572 -0.3129 -0.1950
28311SOL    HW191538   0.239  11.599   9.208  0.6916 -0.2519  0.1733
28311SOL    HW291539   0.186  11.472   9.146 -0.3526  0.0983  0.3092
28312SOL     OW91540   4.188   1.434  12.297  0.1040 -0.2119  0.1193
28312SOL    HW191541   4.166   1.522  12.266 -0.6793 -0.1040  0.9325
28312SOL    HW291542   4.146   1.375  12.235 -0.4737  0.0006  0.3013
28313SOL     OW91543   7.474   8.884   9.373 -0.1384 -0.2039  0.3954
28313SOL    HW191544   7.440   8.800   9.404 -0.1715 -0.0672  0.7300
28313SOL    HW291545   7.561   8.864   9.339 -0.6155 -0.5872 -0.6244
28314SOL     OW91546   1.343   6.412  11.530  0.0101 -0.4299 -0.3535
28314SOL    HW191547   1.359   6.379  11.618  1.6448  2.4148  0.5510
28314SOL    HW291548   1.295   6.342  11.486  0.1817 -2.4244  2.4006
28315SOL     OW91549   6.189   5.279   3.606  0.8105 -0.0988  0.0483
28315SOL    HW191550   6.228   5.208   3.556 -0.5565 -0.4446 -0.5871
28315SOL    HW291551   6.095   5.261   3.603  0.4525  1.5979  0.0682
28316SOL     OW91552   3.442  11.235   4.413  0.4829  0.2626 -0.3385
28316SOL    HW191553   3.459  11.145   4.441 -2.9166 -0.7987 -1.2177
28316SOL    HW291554   3.511  11.253   4.349  2.0429 -1.1396  0.8321
28317SOL     OW91555  11.894  12.780   5.927 -0.4381  0.3693  0.1610
28317SOL    HW191556  11.864  12.702   5.973 -2.8810  1.0148 -0.1612
28317SOL    HW291557  11.989  12.772   5.925 -0.6157 -2.7755 -0.2283
28318SOL     OW91558   7.586   0.544   4.072 -0.6834  0.0617 -0.1889
28318SOL    HW191559   7.627   0.629   4.085  1.3325 -0.9483  0.5228
28318SOL    HW291560   7.653   0.492   4.028 -1.0487 -1.7548  1.2842
28319SOL     OW91561   2.444  10.737  11.354 -0.2813  0.4975  0.0760
28319SOL    HW191562   2.420  10.781  11.272  1.1404 -1.4419 -1.4884
28319SOL    HW291563   2.364  10.693  11.382 -0.8200  1.2856 -0.1971
28320SOL     OW91564   1.177  10.993  10.856  0.4170  0.0706  0.3083
28320SOL    HW191565   1.231  11.064  10.890  0.0934  1.0990 -1.2263
28320SOL    HW291566   1.158  10.938  10.933  2.4312  0.4435  1.1325
28321SOL     OW91567   3.444  12.101   1.417 -0.1629  0.0740 -0.2974
28321SOL    HW191568   3.391  12.169   1.376  0.2692  0.7094  0.1878
28321SOL    HW291569   3.442  12.122   1.510  1.3538  0.4101 -0.3222
28322SOL     OW91570   1.635   7.907   4.994  0.8466  0.7420  0.2247
28322SOL    HW191571   1.566   7.928   5.057 -0.4903 -1.4839 -0.3798
28322SOL    HW291572   1.629   7.977   4.928  0.2235  1.4348  0.9946
28323SOL     OW91573   7.567   9.126   8.524  0.2262  0.2840  0.1215
28323SOL    HW191574   7.515   9.112   8.603 -0.2609  0.7890 -0.1016
28323SOL    HW291575   7.504   9.116   8.452  0.1844  1.9498 -0.1086
28324SOL     OW91576   2.673   3.606  12.333  0.2254 -0.3209  0.4349
28324SOL    HW191577   2.685   3.552  12.411  0.2813 -0.9708 -0.0135
28324SOL    HW291578   2.659   3.543  12.262 -0.5498  0.2733  0.0395
28325SOL     OW91579   3.764   2.099   6.437  0.3131  0.4100 -0.1928
28325SOL    HW191580   3.793   2.051   6.359  2.0439 -1.2462  1.3877
28325SOL    HW291581   3.677   2.132   6.413  0.1546 -1.2815 -2.2915
28326SOL     OW91582   9.065   6.267  11.687  0.3387  0.1202 -0.0630
28326SOL    HW191583   9.077   6.317  11.768 -1.4940 -0.2422  0.4707
28326SOL    HW291584   9.111   6.184  11.703  0.3851  0.2377  0.4333
28327SOL     OW91585   7.460   1.105   7.669 -0.2727  0.4042 -0.2841
28327SOL    HW191586   7.550   1.137   7.663 -0.3745  0.7184 -0.1463
28327SOL    HW291587   7.411   1.178   7.707 -0.7495  0.5662 -1.1605
28328SOL     OW91588   4.850   9.809  11.445  0.0483 -0.5120  0.2358
28328SOL    HW191589   4.788   9.877  11.472 -1.8117 -2.6389  1.7381
28328SOL    HW291590   4.924   9.818  11.506  0.0343  0.4221  0.1230
28329SOL     OW91591   5.867  10.355   9.041 -0.2982  0.0530  0.2066
28329SOL    HW191592   5.813  10.429   9.015 -0.2623 -0.4625 -1.4637
28329SOL    HW291593   5.954  10.376   9.008 -0.1673 -0.4952  0.1951
28330SOL     OW91594   7.278   5.644   9.732 -0.6225 -0.5976 -0.3330
28330SOL    HW191595   7.222   5.611   9.662 -0.9277 -0.5065 -0.1336
28330SOL    HW291596   7.367   5.621   9.704 -0.3265  2.6088 -2.6040
28331SOL     OW91597   2.776   1.001   8.744 -0.6479 -0.2914  0.1296
28331SOL    HW191598   2.867   0.996   8.716 -0.6173  2.4791 -0.5683
28331SOL    HW291599   2.725   0.989   8.663 -0.7599  1.5447 -0.0984
28332SOL     OW91600  10.873  12.710  11.784 -0.4350 -0.3171 -0.3092
28332SOL    HW191601  10.931  12.713  11.859  0.5988 -0.4961 -1.0815
28332SOL    HW291602  10.923  12.665  11.716 -1.1471  0.3037 -1.2795
28333SOL     OW91603  12.073   5.679   9.605  0.1040 -0.3162 -0.4893
28333SOL    HW191604  12.079   5.597   9.556  0.5983 -0.7743  0.3092
28333SOL    HW291605  12.122   5.662   9.686 -1.4914  0.0836  0.6126
28334SOL     OW91606  12.712   2.459  11.726  0.4055 -0.6066 -0.1322
28334SOL    HW191607  12.641   2.441  11.788 -0.3131  0.6862 -0.5366
28334SOL    HW291608  12.791   2.429  11.770 -0.1843 -0.4708  1.0517
28335SOL     OW91609   8.339   0.581   7.966  0.1479 -0.2577  0.4588
28335SOL    HW191610   8.325   0.487   7.960 -1.9048  0.0796 -0.9291
28335SOL    HW291611   8.434   0.591   7.962  0.4070 -2.2627  0.7472
28336SOL     OW91612   3.198   3.528   0.895 -0.0120 -0.3356 -0.2446
28336SOL    HW191613   3.164   3.613   0.869  3.1691  1.2687  0.3999
28336SOL    HW291614   3.200   3.530   0.990  1.3189 -0.5240 -0.2409
28337SOL     OW91615   2.650  12.550   6.776 -0.0607  0.3696  0.2293
28337SOL    HW191616   2.736  12.553   6.733 -0.4368  1.2320 -0.4935
28337SOL    HW291617   2.647  12.630   6.828 -0.3153  0.1912  0.4883
28338SOL     OW91618   3.862   8.016   9.631  0.3268  0.2507  0.0117
28338SOL    HW191619   3.954   8.026   9.608  0.3785  0.1454  0.1750
28338SOL    HW291620   3.815   8.057   9.558  0.5304  1.3094  0.4656
28339SOL     OW91621   9.237   0.522  10.811  0.3355  0.2306  0.2287
28339SOL    HW191622   9.165   0.501  10.870  0.6097  2.7737  1.5988
28339SOL    HW291623   9.303   0.454  10.828 -0.4569 -0.2981  1.2883
28340SOL     OW91624   0.616   0.088   3.344  0.1059 -0.0565 -0.4144
28340SOL    HW191625   0.674   0.014   3.363 -0.1482 -0.1710 -0.0622
28340SOL    HW291626   0.583   0.116   3.430 -0.4274 -0.0536 -0.6112
28341SOL     OW91627   8.201   4.898  11.672 -0.1148  0.0026 -0.1122
28341SOL    HW191628   8.173   4.966  11.733 -0.5097 -0.3383  0.0913
28341SOL    HW291629   8.163   4.817  11.706  0.8399 -0.4220 -0.0188
28342SOL     OW91630   3.148   3.884   3.079 -0.1259  0.2653  0.3217
28342SOL    HW191631   3.079   3.818   3.088 -0.3381  0.5324  0.6670
28342SOL    HW291632   3.218   3.839   3.033  0.0180 -0.4225  1.1861
28343SOL     OW91633   7.577   2.515  10.301 -0.4396 -0.7024 -0.8532
28343SOL    HW191634   7.576   2.444  10.366  2.8438 -0.5229 -0.4596
28343SOL    HW291635   7.605   2.473  10.220  0.9643 -0.0084 -0.7554
28344SOL     OW91636  12.132  11.558   6.396  0.0363 -0.0655  0.3799
28344SOL    HW191637  12.163  11.506   6.471  0.5149  0.6721  0.7029
28344SOL    HW291638  12.115  11.645   6.432  2.3517  0.9285 -0.7668
28345SOL     OW91639   5.848   8.093   0.497 -0.3050 -0.0379  0.3742
28345SOL    HW191640   5.901   8.171   0.478  0.2553 -0.4407  0.2356
28345SOL    HW291641   5.908   8.020   0.481 -0.3551 -0.4653  1.9570
28346SOL     OW91642  10.974   8.804   0.848 -0.5941  0.4680 -0.0132
28346SOL    HW191643  11.006   8.717   0.825 -1.1275  0.2645  0.0092
28346SOL    HW291644  11.030   8.864   0.798  0.0761  0.1358  0.3293
28347SOL     OW91645   0.460  12.764   7.114 -0.2639  0.5352 -0.2619
28347SOL    HW191646   0.509  12.754   7.033  0.4736  0.4181  0.1929
28347SOL    HW291647   0.375  12.799   7.086 -0.1048  0.2833 -1.1016
28348SOL     OW91648   6.421   2.993   5.851  0.4893  0.2499  0.2787
28348SOL    HW191649   6.433   2.915   5.906  0.4167  0.1119  0.0989
28348SOL    HW291650   6.337   3.029   5.879 -1.0899 -1.5372 -1.8242
28349SOL     OW91651  11.331   8.478   5.322 -0.0743  0.6709 -0.0796
28349SOL    HW191652  11.282   8.397   5.308 -1.6648  1.3134  1.3972
28349SOL    HW291653  11.333   8.519   5.235 -0.1457 -0.4458 -0.6337
28350SOL     OW91654   9.061   5.144   8.762  0.3834  0.6438 -0.3549
28350SOL    HW191655   9.081   5.156   8.855 -0.2975  0.1908 -0.1377
28350SOL    HW291656   9.144   5.119   8.722  0.3691 -0.8034  0.4415
28351SOL     OW91657   1.815   4.380   2.746  0.1176 -0.5588 -0.2633
28351SOL    HW191658   1.797   4.470   2.774 -0.8556 -0.3681 -1.4156
28351SOL    HW291659   1.761   4.326   2.803  0.8935 -0.4490  0.5995
28352SOL     OW91660   3.698   1.212   3.326 -0.2598 -0.0020 -0.0182
28352SOL    HW191661   3.698   1.304   3.300 -1.6697  0.0219 -0.0539
28352SOL    HW291662   3.606   1.194   3.349  0.2413 -1.0351  1.3141
28353SOL     OW91663   1.495   5.967   3.972 -0.0234  0.1888 -0.1076
28353SOL    HW191664   1.557   5.928   3.911 -1.0119 -0.4163 -0.7425
28353SOL    HW291665   1.421   5.907   3.974  0.0387  0.0963  1.8314
28354SOL     OW91666   5.549   3.383   1.423 -0.6562  0.4173 -0.0765
28354SOL    HW191667   5.576   3.331   1.347 -2.0009 -3.6515  1.9371
28354SOL    HW291668   5.471   3.430   1.394 -0.0971  0.4284 -1.6690
28355SOL     OW91669   9.655   8.742   6.645  0.0899  0.6707 -0.8117
28355SOL    HW191670   9.595   8.708   6.712  0.7043 -1.4488 -1.2701
28355SOL    HW291671   9.683   8.827   6.680 -0.6503  0.2431  0.9642
28356SOL     OW91672   0.692  11.858   6.303 -0.4906  0.1646 -0.2737
28356SOL    HW191673   0.630  11.815   6.362  0.4394 -1.3202 -0.3396
28356SOL    HW291674   0.639  11.885   6.228 -0.8509 -2.4717 -1.0518
28357SOL     OW91675   2.653   5.225  10.323 -0.2885 -0.1682 -0.0787
28357SOL    HW191676   2.654   5.150  10.264 -1.2276  0.9185 -1.5243
28357SOL    HW291677   2.562   5.232  10.352 -0.6394  1.4815 -1.4248
28358SOL     OW91678   7.328   3.460  10.015 -0.3123  0.0971  0.1232
28358SOL    HW191679   7.309   3.425  10.102  3.0103 -1.6009  0.3270
28358SOL    HW291680   7.407   3.513  10.026  2.2929 -2.8800 -2.1860
28359SOL     OW91681  12.424   5.663   2.954 -0.5706 -0.7535  0.6197
28359SOL    HW191682  12.339   5.699   2.979 -0.3740  0.8398 -0.7623
28359SOL    HW291683  12.405   5.607   2.879 -0.5241 -1.3305  1.0314
28360SOL     OW91684   5.053   2.060   5.100  0.3040  0.0519 -0.2134
28360SOL    HW191685   5.022   2.062   5.190 -0.4235  1.8854 -0.4654
28360SOL    HW291686   5.013   2.137   5.059  1.3346 -0.2409 -1.8601
28361SOL     OW91687  12.666   7.252   9.379 -0.5099 -0.2525  0.6631
28361SOL    HW191688  12.590   7.248   9.321 -0.7139  0.7408  0.8587
28361SOL    HW291689  12.630   7.244   9.467 -0.2539 -1.1081  0.7094
28362SOL     OW91690   7.342   8.016   0.004 -0.9915 -0.0764  0.6606
28362SOL    HW191691   7.338   8.105  -0.031  1.5994 -0.6502 -1.5199
28362SOL    HW291692   7.386   8.026   0.089  1.6571  0.6478 -0.6574
28363SOL     OW91693  10.680   0.913  12.091  0.5484  0.6119 -0.3561
28363SOL    HW191694  10.605   0.944  12.040  1.2693  0.0295 -1.8019
28363SOL    HW291695  10.735   0.991  12.103  0.5808  0.6646 -0.8385
28364SOL     OW91696   9.737   9.942   0.832 -0.1350 -0.3611  0.0359
28364SOL    HW191697   9.737  10.010   0.900 -2.2936 -0.5931  0.3249
28364SOL    HW291698   9.826   9.945   0.796  0.6961  0.6247  2.0011
28365SOL     OW91699   3.990   6.965   0.275  0.0471  0.4256 -0.4298
28365SOL    HW191700   3.978   6.876   0.242  0.8751  0.0119  0.3535
28365SOL    HW291701   4.061   7.001   0.222  0.5764  0.1670  0.0880
28366SOL     OW91702  12.023   9.197   1.737  0.0545  0.4723 -0.3069
28366SOL    HW191703  11.978   9.134   1.793  1.7756  0.1628  0.7969
28366SOL    HW291704  12.000   9.283   1.773  0.5161  0.3092  0.3792
28367SOL     OW91705   0.326   8.952   8.623 -0.4405  0.0974 -0.3652
28367SOL    HW191706   0.369   8.932   8.540 -0.5592  1.0653 -0.6705
28367SOL    HW291707   0.243   8.994   8.597 -0.9890 -0.5881  0.2293
28368SOL     OW91708   0.890   1.534   8.213  0.3769  0.1920  0.4246
28368SOL    HW191709   0.853   1.448   8.196  0.0719  0.3024  0.5188
28368SOL    HW291710   0.983   1.525   8.192  0.3044 -0.0983  0.2236
28369SOL     OW91711   4.003   1.148   9.480  0.2236 -0.0617 -0.1209
28369SOL    HW191712   4.028   1.078   9.540 -0.2359  1.0368  1.3830
28369SOL    HW291713   3.909   1.161   9.495 -0.0597 -0.2069 -1.5666
28370SOL     OW91714  12.019   5.483   2.435 -0.2567 -0.3162 -0.0299
28370SOL    HW191715  12.048   5.548   2.499 -1.1442 -0.5766  0.6574
28370SOL    HW291716  12.007   5.533   2.354  1.2155 -0.0441 -0.1236
28371SOL     OW91717  11.606   8.603   7.203  0.4548 -0.2201 -0.2820
28371SOL    HW191718  11.543   8.615   7.274 -0.3557  1.3778 -1.2078
28371SOL    HW291719  11.555   8.614   7.123  1.6347 -0.3916 -1.0876
28372SOL     OW91720   3.187   6.923  10.117  0.4014 -0.1341  0.4097
28372SOL    HW191721   3.217   6.860  10.052 -2.7468 -0.2033 -1.1363
28372SOL    HW291722   3.199   7.008  10.074 -0.3443 -0.0821  0.2942
28373SOL     OW91723   8.977   3.848   5.070  0.7338 -0.4730 -0.3674
28373SOL    HW191724   9.071   3.831   5.067  0.7430 -0.4213 -0.3698
28373SOL    HW291725   8.964   3.888   5.156  0.6345 -0.9521 -0.1552
28374SOL     OW91726  11.833   4.852   7.372  0.1313  0.5182  0.0933
28374SOL    HW191727  11.855   4.945   7.364 -1.3793  0.7677 -1.8362
28374SOL    HW291728  11.758   4.840   7.314  0.6757 -2.0446 -0.1948
28375SOL     OW91729   6.609  11.779   6.590 -0.1252 -0.0969  0.1184
28375SOL    HW191730   6.696  11.741   6.577  1.6012  2.0440  3.8166
28375SOL    HW291731   6.618  11.871   6.567 -1.3979  0.1525  0.5156
28376SOL     OW91732   3.299   5.208   2.953 -0.0526 -0.2604  0.0963
28376SOL    HW191733   3.221   5.180   3.001  0.7746 -1.1685  0.9364
28376SOL    HW291734   3.290   5.303   2.947 -0.1031 -0.0816  2.2348
28377SOL     OW91735   6.953   2.168  12.182 -0.1772  0.3082 -0.0930
28377SOL    HW191736   7.011   2.094  12.200 -1.8161 -0.5683  2.0228
28377SOL    HW291737   6.865   2.130  12.176 -0.7427  1.7426 -2.0286
28378SOL     OW91738   8.930   3.124   8.684  0.1535  0.2848 -0.0889
28378SOL    HW191739   8.909   3.204   8.733  1.2712 -0.2934  1.3878
28378SOL    HW291740   8.878   3.056   8.726  1.7898 -0.3832  0.9515
28379SOL     OW91741   0.447   4.820  10.043  0.3951 -0.7260 -0.3138
28379SOL    HW191742   0.361   4.800  10.079  0.0940  0.5460 -0.2509
28379SOL    HW291743   0.451   4.773   9.960 -1.9041  1.9757 -2.1666
28380SOL     OW91744   1.967   4.054  10.691  0.1228 -0.5505 -0.6362
28380SOL    HW191745   1.899   4.024  10.752  0.4713 -0.4462 -0.1878
28380SOL    HW291746   2.046   4.058  10.745  0.2118  0.5887 -0.8313
28381SOL     OW91747   1.887   5.505   9.689 -0.1804  0.0923  0.0974
28381SOL    HW191748   1.978   5.530   9.673 -0.4038  1.3972  0.7158
28381SOL    HW291749   1.850   5.581   9.734 -1.6077 -0.3838 -0.2520
28382SOL     OW91750  11.168  12.196   1.770  0.0573  0.0345 -0.4353
28382SOL    HW191751  11.201  12.197   1.860 -1.8924  1.5205  0.3263
28382SOL    HW291752  11.152  12.104   1.752 -0.8928 -0.1922  1.3028
28383SOL     OW91753   2.563   4.265   0.322  0.2121 -0.2845  0.1687
28383SOL    HW191754   2.506   4.330   0.280 -0.7156  0.0098  1.7936
28383SOL    HW291755   2.511   4.184   0.323  0.4859 -0.4621  0.1428
28384SOL     OW91756   4.283   4.841   9.779 -0.4514 -0.0704  0.0684
28384SOL    HW191757   4.262   4.748   9.782 -2.2114  0.2935  1.3578
28384SOL    HW291758   4.378   4.845   9.770 -0.2880 -1.9876  0.5430
28385SOL     OW91759   8.137   4.309   9.832 -0.1222  0.1431  0.5448
28385SOL    HW191760   8.045   4.284   9.845 -0.5817  1.0606 -0.7432
28385SOL    HW291761   8.149   4.307   9.737  1.2724 -0.2084  0.7174
28386SOL     OW91762   5.026   1.843   8.701 -0.5047  1.0940  0.7479
28386SOL    HW191763   5.067   1.917   8.656 -0.3731  0.1677 -0.7122
28386SOL    HW291764   5.082   1.828   8.777  1.2317  0.6392 -0.5391
28387SOL     OW91765   2.902   2.083  12.480 -0.1024  0.2229 -0.3810
28387SOL    HW191766   2.878   2.163  12.433 -1.0248 -1.4582 -2.9941
28387SOL    HW291767   2.826   2.026  12.469  0.9865 -1.4477  0.3692
28388SOL     OW91768   0.728   6.881   8.121  0.6410  0.2812  0.4992
28388SOL    HW191769   0.715   6.971   8.092  1.0623 -0.1553 -1.1376
28388SOL    HW291770   0.653   6.833   8.086  1.6466 -0.4369 -0.7704
28389SOL     OW91771   7.062   5.437  12.272  0.2290 -0.6446  0.7928
28389SOL    HW191772   6.974   5.460  12.300 -0.1894  0.6108 -1.3297
28389SOL    HW291773   7.112   5.518  12.279  0.0656 -0.2035 -1.9426
28390SOL     OW91774  12.342   1.688   6.808  0.1384 -0.4446  0.1209
28390SOL    HW191775  12.252   1.706   6.780 -0.6207  0.3711  2.8030
28390SOL    HW291776  12.338   1.600   6.845  0.3042 -0.1916  0.7493
28391SOL     OW91777   8.637  11.300   5.867  0.7110  0.0966  0.4359
28391SOL    HW191778   8.672  11.373   5.919  1.0088  0.2777 -0.0128
28391SOL    HW291779   8.623  11.337   5.780 -0.7231  0.0603  0.6308
28392SOL     OW91780  12.770  12.472   1.252  0.0772 -0.2549 -0.2763
28392SOL    HW191781  12.817  12.498   1.331 -0.9188 -0.3111  0.3425
28392SOL    HW291782  12.769  12.551   1.198 -3.3022  1.3246  1.7648
28393SOL     OW91783   0.293   2.615   6.892 -0.1015 -0.0366 -1.1579
28393SOL    HW191784   0.377   2.627   6.849  0.3717 -0.3922 -0.3664
28393SOL    HW291785   0.285   2.520   6.903  1.1474  0.1054  2.0373
28394SOL     OW91786   7.515   5.510   3.414  0.0940 -0.2221 -0.2240
28394SOL    HW191787   7.483   5.420   3.422  0.5317 -0.3461  0.1657
28394SOL    HW291788   7.559   5.527   3.497 -3.2461  1.6845  1.3604
28395SOL     OW91789   8.017   2.764   9.384 -0.4931  0.3863  0.1296
28395SOL    HW191790   8.061   2.830   9.330 -0.6939  1.5615  1.3747
28395SOL    HW291791   7.926   2.766   9.356 -0.2220 -0.4785 -0.8967
28396SOL     OW91792  10.669  10.425   0.641 -0.1772 -0.0811  0.0341
28396SOL    HW191793  10.607  10.490   0.673  0.6275  0.3980  0.6456
28396SOL    HW291794  10.628  10.340   0.662  0.3264  0.1996  2.4143
28397SOL     OW91795   5.760   9.985   8.681  0.0324  0.1457 -0.1610
28397SOL    HW191796   5.805   9.958   8.601  1.6436 -3.0437  1.6426
28397SOL    HW291797   5.674   9.944   8.676  0.3524 -0.5622 -0.0521
28398SOL     OW91798   6.325   4.204  11.137 -0.4004  0.1004 -0.0855
28398SOL    HW191799   6.421   4.201  11.136 -0.3235  1.7567 -1.4608
28398SOL    HW291800   6.303   4.227  11.227  0.4646 -0.5120  0.3019
28399SOL     OW91801   0.402   5.826   8.549  0.2119  0.6591 -0.0754
28399SOL    HW191802   0.479   5.881   8.531  0.0040  0.6544 -0.9922
28399SOL    HW291803   0.342   5.843   8.477 -0.0053 -0.5164 -0.1906
28400SOL     OW91804   7.616  11.891   2.228  0.2921  0.0286  0.5606
28400SOL    HW191805   7.696  11.852   2.262  0.7354  1.1134  0.7968
28400SOL    HW291806   7.632  11.902   2.134 -0.3031 -1.4356  0.2496
28401SOL     OW91807   2.024   9.583   6.214  0.5879 -0.0521 -0.0600
28401SOL    HW191808   1.966   9.626   6.276 -0.0196 -1.1498  0.1728
28401SOL    HW291809   1.992   9.492   6.211  0.2448  0.0916 -2.3935
28402SOL     OW91810   0.833   3.013   1.090 -0.0164  0.4537  0.5134
28402SOL    HW191811   0.781   3.085   1.055  1.4928  1.8186  0.9393
28402SOL    HW291812   0.913   3.014   1.037  0.1010 -0.8067  0.6454
28403SOL     OW91813   7.329  12.166   9.597  0.2936 -0.1352  0.6098
28403SOL    HW191814   7.359  12.250   9.632  1.5667  0.0261 -0.7623
28403SOL    HW291815   7.257  12.141   9.654 -0.2218  1.9593  0.9833
28404SOL     OW91816   7.010   4.696   4.129 -0.2850  0.1420 -0.3932
28404SOL    HW191817   7.032   4.630   4.195 -0.3792  0.9369  0.4603
28404SOL    HW291818   6.916   4.684   4.114 -0.1873 -0.2874 -0.6614
28405SOL     OW91819   3.434  11.242   6.695  0.8985  0.8063 -0.2227
28405SOL    HW191820   3.458  11.197   6.776 -1.4582  0.8698  0.5784
28405SOL    HW291821   3.503  11.218   6.633  3.0767  1.1641  1.9006
28406SOL     OW91822   0.572   6.599  12.313  0.4781  0.8827 -0.4229
28406SOL    HW191823   0.583   6.682  12.267 -2.0918  1.2399 -0.5399
28406SOL    HW291824   0.556   6.623  12.404  0.7676  0.4493 -0.2543
28407SOL     OW91825   6.203   0.193  12.286  0.4997  0.7668  0.1685
28407SOL    HW191826   6.259   0.271  12.294  1.3079  0.1435  0.7557
28407SOL    HW291827   6.214   0.147  12.369  0.1641 -0.0678 -0.2340
28408SOL     OW91828   3.798   2.223   1.810 -0.0864  0.0079  0.2172
28408SOL    HW191829   3.839   2.183   1.886 -0.9522 -1.6346 -0.1494
28408SOL    HW291830   3.869   2.232   1.746  1.0485  2.9354  1.6905
28409SOL     OW91831   4.657   4.350   9.127  0.4139 -0.1976 -0.8839
28409SOL    HW191832   4.746   4.366   9.158  0.5237 -1.1240 -0.7067
28409SOL    HW291833   4.619   4.437   9.116  1.1189  0.1824 -0.3163
28410SOL     OW91834   2.681   0.803   2.639  0.1157 -0.0113 -0.1907
28410SOL    HW191835   2.730   0.843   2.711  1.1826  0.8262 -1.3434
28410SOL    HW291836   2.679   0.870   2.571 -0.0279 -1.1217 -1.3176
28411SOL     OW91837  10.799   1.139   1.764  0.0376  0.0011 -0.0270
28411SOL    HW191838  10.783   1.058   1.716 -0.4236  0.4278 -0.6081
28411SOL    HW291839  10.731   1.199   1.733  0.4219  0.6345  0.3357
28412SOL     OW91840  12.291  10.716   6.363 -0.2432 -0.0142 -0.4754
28412SOL    HW191841  12.228  10.700   6.293  0.0183  0.3033 -0.7844
28412SOL    HW291842  12.252  10.787   6.414 -0.9343 -0.9425  0.3254
28413SOL     OW91843   8.547   5.972  12.094 -0.0759  0.2718 -0.3224
28413SOL    HW191844   8.479   6.038  12.080  0.6683  1.5853  1.7691
28413SOL    HW291845   8.514   5.918  12.166  2.0767  2.6601  2.7462
28414SOL     OW91846   5.230   6.870   4.734  0.4511  0.4339 -0.2334
28414SOL    HW191847   5.275   6.854   4.817 -0.5053 -3.7556 -0.3034
28414SOL    HW291848   5.300   6.868   4.668  0.8590  0.7063  0.1803
28415SOL     OW91849   2.387   8.570   3.904 -0.6453 -0.1477 -0.4075
28415SOL    HW191850   2.426   8.607   3.984 -0.5129  1.1580 -1.0523
28415SOL    HW291851   2.297   8.602   3.905 -1.0683 -1.2852 -0.0919
28416SOL     OW91852   5.236   2.019   8.040  0.3309 -0.0847 -0.1789
28416SOL    HW191853   5.235   1.959   7.966  0.5060 -1.9595  1.2665
28416SOL    HW291854   5.325   2.055   8.041  0.3275 -0.0439 -0.8479
28417SOL     OW91855  11.908   1.707   0.919  0.2484 -0.0706  0.2722
28417SOL    HW191856  11.957   1.738   0.996  2.3716 -1.2598 -0.5017
28417SOL    HW291857  11.876   1.621   0.945 -1.8608  0.8558  0.9026
28418SOL     OW91858   2.905   0.536  12.443 -0.1144  0.2755  0.0858
28418SOL    HW191859   2.887   0.482  12.366 -1.4027  0.9937 -0.1492
28418SOL    HW291860   2.876   0.624  12.418 -0.1058  0.6192  1.2230
28419SOL     OW91861   9.796  11.623   4.951  0.0235  0.3284 -0.8171
28419SOL    HW191862   9.842  11.548   4.989  1.1344  0.5388 -1.7048
28419SOL    HW291863   9.730  11.584   4.893  1.4107 -0.0173 -2.2447
28420SOL     OW91864   1.503   9.823   9.686  0.2269 -0.5982  0.6091
28420SOL    HW191865   1.496   9.822   9.591  0.0913 -0.1889  0.6097
28420SOL    HW291866   1.562   9.896   9.705 -0.7110  0.1196  0.8810
28421SOL     OW91867   9.885   1.209   4.824 -0.0436  0.1697 -0.0100
28421SOL    HW191868   9.905   1.123   4.787 -1.9625 -0.0307 -0.6747
28421SOL    HW291869   9.852   1.260   4.750 -0.8468  0.8275  0.7795
28422SOL     OW91870   8.560  11.772   6.392  0.1731  0.0433 -0.6689
28422SOL    HW191871   8.562  11.813   6.478 -0.4284 -1.5113  0.1335
28422SOL    HW291872   8.564  11.845   6.330 -1.3957  1.3309  0.6520
28423SOL     OW91873   8.538   4.672   0.767  0.2653 -0.0957 -0.2358
28423SOL    HW191874   8.560   4.756   0.726 -2.9791  0.8611 -0.3314
28423SOL    HW291875   8.510   4.696   0.855 -1.4928 -0.9014 -0.5343
28424SOL     OW91876   7.543   2.124  11.588  0.1703 -0.1624  0.1842
28424SOL    HW191877   7.519   2.083  11.671 -0.0556  1.4305  0.9345
28424SOL    HW291878   7.560   2.050  11.529 -2.5704 -1.3722  0.7520
28425SOL     OW91879   4.928   1.422   3.989 -0.6067 -0.3153  0.3672
28425SOL    HW191880   5.003   1.464   4.029 -1.7828  2.0384  0.2687
28425SOL    HW291881   4.910   1.346   4.044  1.3470 -0.5016  0.8015
28426SOL     OW91882   6.494   5.352  10.762 -0.4751  0.2327  0.2297
28426SOL    HW191883   6.412   5.332  10.717  0.7496 -1.4844 -1.3886
28426SOL    HW291884   6.512   5.274  10.814  0.1559  0.5685  0.5189
28427SOL     OW91885   1.615  10.895   2.721 -0.1689 -0.1468 -0.0888
28427SOL    HW191886   1.628  10.851   2.637 -0.5179 -0.2730 -0.0802
28427SOL    HW291887   1.703  10.920   2.750  0.3998 -3.2167  1.1979
28428SOL     OW91888   1.021  12.691   6.778 -0.3278 -0.0603  0.1618
28428SOL    HW191889   1.026  12.631   6.703  0.6420 -2.0126  1.6940
28428SOL    HW291890   1.099  12.745   6.771 -0.7971  0.5297 -0.7948
28429SOL     OW91891   2.780   5.474   3.193  0.4372 -0.6158 -0.1709
28429SOL    HW191892   2.839   5.549   3.179  1.5462 -1.5919 -0.8933
28429SOL    HW291893   2.735   5.463   3.110 -0.0134 -0.5303  0.0561
28430SOL     OW91894   3.089   8.965   0.283 -0.0279  0.0260  0.0162
28430SOL    HW191895   3.123   8.948   0.371  0.7201 -2.7041 -0.7099
28430SOL    HW291896   2.994   8.959   0.293  0.0456 -0.1379  0.6521
28431SOL     OW91897   8.337   5.777   2.708  0.5919  0.1263 -0.3735
28431SOL    HW191898   8.342   5.683   2.693  2.5869  0.0524  0.4054
28431SOL    HW291899   8.385   5.791   2.790 -0.3022  1.7394 -0.0816
28432SOL     OW91900  10.429   8.278   3.204  0.2576 -0.1907  0.3918
28432SOL    HW191901  10.400   8.346   3.142  2.5953  0.9700  0.4590
28432SOL    HW291902  10.410   8.314   3.290 -0.2505 -0.4676  0.3943
28433SOL     OW91903   6.023   8.789   0.363  0.1231  0.4294 -0.0182
28433SOL    HW191904   6.036   8.760   0.453 -0.0134 -0.3309 -0.2391
28433SOL    HW291905   5.947   8.848   0.367  0.4795  0.8716  0.4491
28434SOL     OW91906  11.466   1.102   3.095 -0.0055 -0.0638  0.6939
28434SOL    HW191907  11.475   1.197   3.080  0.9813 -0.4945 -2.1555
28434SOL    HW291908  11.546   1.078   3.141  0.0265  0.4000  0.8940
28435SOL     OW91909   3.117   9.857   7.080 -0.0660 -0.7851 -0.3233
28435SOL    HW191910   3.070   9.774   7.075 -1.6041  0.0131  0.0500
28435SOL    HW291911   3.133   9.870   7.173  0.1207 -0.6405 -0.3753
28436SOL     OW91912   9.733  10.250   2.556  0.2397  0.2720  0.0538
28436SOL    HW191913   9.768  10.241   2.645  1.2625 -0.3558 -0.4016
28436SOL    HW291914   9.810  10.257   2.500 -0.3469 -0.9298 -0.9598
28437SOL     OW91915  11.552   9.426   9.748  0.1597 -0.1532  0.4848
28437SOL    HW191916  11.587   9.344   9.781  1.6502  0.0031 -0.6187
28437SOL    HW291917  11.627   9.485   9.746 -0.5107  0.6948 -0.4363
28438SOL     OW91918  11.112   4.300   2.482 -0.3402  0.5638 -0.0526
28438SOL    HW191919  11.142   4.388   2.505 -0.4472  0.5951 -0.0318
28438SOL    HW291920  11.110   4.252   2.565 -1.7668  0.9901  0.1727
28439SOL     OW91921   9.551   1.886  10.338 -0.4594 -0.2874  0.2894
28439SOL    HW191922   9.610   1.812  10.324 -0.2866 -0.5773  2.2185
28439SOL    HW291923   9.609   1.961  10.349 -0.5034 -0.3498  0.9654
28440SOL     OW91924  11.771   8.588   6.800  0.8076 -0.1477 -0.0897
28440SOL    HW191925  11.789   8.495   6.788  0.8451  0.1847 -3.7366
28440SOL    HW291926  11.824   8.631   6.732 -0.2137  2.4148  0.6262
28441SOL     OW91927   4.141   6.412  10.002 -0.7415  0.1676 -0.8445
28441SOL    HW191928   4.142   6.424  10.097 -0.8820  1.1141 -0.9597
28441SOL    HW291929   4.067   6.354   9.986 -1.0218  0.4063 -0.4211
28442SOL     OW91930   5.954  10.828   2.366 -0.1167  0.1227  0.1098
28442SOL    HW191931   5.876  10.881   2.345  0.5978  1.2468  0.1922
28442SOL    HW291932   6.027  10.878   2.330  0.4551 -1.8159 -1.6200
28443SOL     OW91933   4.515  12.426   8.646  0.2931  0.3315  0.2269
28443SOL    HW191934   4.437  12.397   8.599 -0.8342  2.9250  0.2875
28443SOL    HW291935   4.490  12.421   8.738 -0.0513  1.7037  0.2250
28444SOL     OW91936   6.049   9.754   3.092  0.6900 -0.2167  0.0135
28444SOL    HW191937   6.099   9.721   3.167 -0.0029 -0.9756  0.1510
28444SOL    HW291938   6.003   9.831   3.125  1.5867  0.3635 -0.0576
28445SOL     OW91939   6.375   8.685  11.021 -0.7302  0.2573 -0.4481
28445SOL    HW191940   6.400   8.594  11.013 -2.2185 -0.2309  0.0679
28445SOL    HW291941   6.322   8.689  11.101  1.3367  2.0605  0.9437
28446SOL     OW91942  11.774  12.507   6.793 -0.0411 -0.5557 -0.1792
28446SOL    HW191943  11.816  12.454   6.861  1.0454 -0.6344 -0.8911
28446SOL    HW291944  11.847  12.549   6.747 -0.7846 -0.1758 -1.0282
28447SOL     OW91945  12.161  10.635   6.671  0.6584 -0.1414 -0.2444
28447SOL    HW191946  12.136  10.701   6.606 -0.5030  0.5830  0.8911
28447SOL    HW291947  12.150  10.551   6.626  0.0158  0.3489 -1.0272
28448SOL     OW91948   9.160   4.911   1.074  0.0431 -0.2284  0.2292
28448SOL    HW191949   9.097   4.847   1.107 -2.7264  1.0892 -2.0061
28448SOL    HW291950   9.131   4.994   1.112 -0.1397  0.5181 -1.4474
28449SOL     OW91951  10.377   5.264   9.687 -0.2615  0.4886 -0.0693
28449SOL    HW191952  10.446   5.243   9.750  0.1161 -0.3934 -0.7694
28449SOL    HW291953  10.357   5.356   9.704  2.2049  1.2642 -0.9066
28450SOL     OW91954   7.735   3.710  12.205 -0.7213  0.7078  0.1403
28450SOL    HW191955   7.659   3.735  12.256 -1.3984 -0.6598 -0.1584
28450SOL    HW291956   7.715   3.740  12.116 -1.1652 -0.0990 -0.0452
28451SOL     OW91957   2.296   1.968   4.495 -0.0118 -0.1292  0.2066
28451SOL    HW191958   2.266   1.918   4.419 -1.1571  1.5567 -0.5207
28451SOL    HW291959   2.324   2.052   4.459 -0.2133  0.5773  1.6126
28452SOL     OW91960   8.609   0.373   8.088 -0.3373  0.5573  0.2526
28452SOL    HW191961   8.600   0.467   8.078  1.8046  0.7391 -0.2941
28452SOL    HW291962   8.569   0.336   8.009  0.6231  1.1181 -0.5074
28453SOL     OW91963   9.592   2.976  10.295 -0.0604 -0.0367 -0.5502
28453SOL    HW191964   9.636   2.946  10.374 -0.1748  1.0273 -0.0598
28453SOL    HW291965   9.500   2.984  10.320 -0.2659 -0.6650 -1.0896
28454SOL     OW91966   4.759   6.092  12.696  0.5482 -0.0345  0.0337
28454SOL    HW191967   4.831   6.120  12.639 -0.4925 -0.5061 -1.5903
28454SOL    HW291968   4.723   6.174  12.730  2.2472  0.1776  1.4333
28455SOL     OW91969   2.317   2.689   2.782 -0.1224  0.2163 -0.2749
28455SOL    HW191970   2.367   2.769   2.800  0.7738  0.1939 -2.3832
28455SOL    HW291971   2.373   2.618   2.812 -0.2979  0.3145  0.2943
28456SOL     OW91972   8.694   9.097   9.601 -0.0764 -0.3946  0.3216
28456SOL    HW191973   8.661   9.016   9.562 -1.4042 -0.6920  1.9210
28456SOL    HW291974   8.648   9.166   9.553 -1.7868 -0.7551  1.3320
28457SOL     OW91975   4.631  11.381  12.032 -0.0762  0.2546 -0.0608
28457SOL    HW191976   4.642  11.398  11.939 -0.8275 -1.5100 -0.5052
28457SOL    HW291977   4.719  11.387  12.068  0.5429 -1.1429 -1.2724
28458SOL     OW91978   5.906   5.432   4.621  0.3196 -0.1014  0.4511
28458SOL    HW191979   5.989   5.470   4.651 -0.6724  2.8989 -0.2439
28458SOL    HW291980   5.899   5.460   4.529 -0.3897 -2.3404 -0.2349
28459SOL     OW91981  11.317   8.759   8.551  0.1512 -0.6563  0.7425
28459SOL    HW191982  11.342   8.667   8.552 -1.5842 -1.1610  0.5085
28459SOL    HW291983  11.301   8.781   8.643 -1.4304 -1.2010  0.6277
28460SOL     OW91984   0.251  11.412   9.885  0.1407  0.3545  0.3875
28460SOL    HW191985   0.341  11.381   9.879  0.4368  0.9059  1.6629
28460SOL    HW291986   0.258  11.498   9.927 -0.9844  0.4042  0.5077
28461SOL     OW91987   2.440  12.542  11.537  0.1811  0.1351  0.2100
28461SOL    HW191988   2.378  12.573  11.471 -1.0124 -0.2166  1.1358
28461SOL    HW291989   2.517  12.597  11.524 -0.6792  1.2711 -0.3124
28462SOL     OW91990   9.027  12.065   6.889  0.1302  0.2009 -0.3708
28462SOL    HW191991   8.951  12.058   6.831 -0.7513  2.3572  0.4171
28462SOL    HW291992   8.998  12.123   6.960  2.2998  0.5410  0.3234
28463SOL     OW91993   7.110  10.363   5.377 -0.3461  0.3463 -0.0185
28463SOL    HW191994   7.130  10.377   5.284 -0.6772 -0.2073 -0.1793
28463SOL    HW291995   7.015  10.365   5.381 -0.4654 -2.2687 -0.1458
28464SOL     OW91996  12.139   9.108  10.109  1.1958 -0.4720 -0.4014
28464SOL    HW191997  12.117   9.067  10.025  0.6338  0.5691 -0.7805
28464SOL    HW291998  12.157   9.199  10.087  0.2034  0.0185  0.7131
28465SOL     OW91999   1.412   0.979   3.323 -0.2834  0.6111 -0.2015
28465SOL    HW192000   1.341   0.918   3.346 -1.4545  2.2174  0.6169
28465SOL    HW292001   1.391   1.008   3.234 -0.5387  0.9333 -0.0359
28466SOL     OW92002   4.990  11.585   8.590 -0.3167  0.6866  0.2895
28466SOL    HW192003   5.065  11.535   8.560 -0.0356  1.8878 -1.1075
28466SOL    HW292004   4.919  11.521   8.595  0.5182 -0.2427  0.5652
28467SOL     OW92005   6.856  10.727   2.808 -0.2621 -0.0894  0.4057
28467SOL    HW192006   6.900  10.808   2.831 -2.3259  1.1060  0.3929
28467SOL    HW292007   6.908  10.690   2.737  2.0010 -0.0061  1.9181
28468SOL     OW92008   6.761   1.680  10.919 -0.7032 -0.7613  0.1939
28468SOL    HW192009   6.672   1.714  10.921 -0.1030  0.9379  0.7208
28468SOL    HW292010   6.771   1.633  11.002 -0.4907  0.9068  1.1653
28469SOL     OW92011  12.646  12.315  11.928 -0.5010  0.2654 -0.8007
28469SOL    HW192012  12.657  12.231  11.883 -0.6833  0.2895 -0.8912
28469SOL    HW292013  12.696  12.377  11.875  0.6443 -0.0003 -0.0697
28470SOL     OW92014   6.141  11.471   6.895  0.5397  0.3040  0.1585
28470SOL    HW192015   6.109  11.420   6.969 -1.1242  0.6382 -0.2962
28470SOL    HW292016   6.205  11.414   6.851  1.0281 -0.1541  1.4328
28471SOL     OW92017   1.053   4.340  12.766 -0.0943 -0.2641 -0.0455
28471SOL    HW192018   1.004   4.292  12.699 -0.4564  0.4375 -0.2917
28471SOL    HW292019   1.141   4.351  12.728  0.6351 -2.4858  0.8487
28472SOL     OW92020  11.609  11.194   0.860 -0.2375 -0.0899 -0.3497
28472SOL    HW192021  11.602  11.164   0.950 -0.6010 -0.8777 -0.6400
28472SOL    HW292022  11.690  11.156   0.828 -1.2384 -1.7032 -1.0586
28473SOL     OW92023   7.308   9.514   6.464  0.3342  0.4127  0.4295
28473SOL    HW192024   7.216   9.490   6.460  0.3870  0.3977 -2.0586
28473SOL    HW292025   7.309   9.609   6.448  0.6598  0.7609  2.3036
28474SOL     OW92026   7.129   7.330   7.400 -0.3373 -0.6634 -0.1399
28474SOL    HW192027   7.056   7.302   7.344  0.9651  0.7030 -2.7221
28474SOL    HW292028   7.177   7.392   7.346  2.0762 -0.5905  1.9311
28475SOL     OW92029   4.025   8.182   2.543  0.2989 -0.1101 -0.7559
28475SOL    HW192030   4.060   8.241   2.609  1.7360  0.1637 -1.7250
28475SOL    HW292031   4.099   8.127   2.518  0.3621  1.0341 -3.4631
28476SOL     OW92032   1.604  10.967  12.088 -0.0063 -0.1709 -0.3320
28476SOL    HW192033   1.565  10.881  12.071 -0.1490 -0.5362  1.5528
28476SOL    HW292034   1.695  10.947  12.109  1.5081  0.6949 -4.9347
28477SOL     OW92035   4.187  12.215  12.345  0.4147 -0.3047  0.3707
28477SOL    HW192036   4.151  12.144  12.398  1.0769 -2.1380 -1.4784
28477SOL    HW292037   4.282  12.204  12.353  0.5848 -1.6789 -2.3179
28478SOL     OW92038   9.364   5.820   4.172 -0.1696  0.3828 -0.0608
28478SOL    HW192039   9.437   5.800   4.231 -0.4765 -0.0227  0.1877
28478SOL    HW292040   9.377   5.762   4.097  0.4144  1.1438 -0.5617
28479SOL     OW92041   7.746   9.492   7.636 -0.1098  0.5216 -0.1560
28479SOL    HW192042   7.791   9.541   7.567  2.8592 -1.6625  0.0216
28479SOL    HW292043   7.708   9.416   7.591 -2.1304  1.3485  0.0255
28480SOL     OW92044  10.251   9.465   1.250  0.3482 -0.6517  0.4036
28480SOL    HW192045  10.188   9.536   1.242  2.1025  0.8593 -1.4106
28480SOL    HW292046  10.288   9.475   1.337  0.6801  0.8215  0.1239
28481SOL     OW92047   3.289  12.741   9.279 -0.2456 -0.2963 -0.0078
28481SOL    HW192048   3.235  12.728   9.201  1.2264  1.8407 -1.4869
28481SOL    HW292049   3.251  12.818   9.321  2.2297  2.0735 -1.7816
28482SOL     OW92050   4.729  10.827   2.440  0.3476  0.3094  0.0820
28482SOL    HW192051   4.698  10.826   2.531  0.4669  2.7968  0.2252
28482SOL    HW292052   4.817  10.865   2.445  0.5712 -0.0106 -1.0379
28483SOL     OW92053   4.144   7.475   1.270  0.0979  0.3711  0.0479
28483SOL    HW192054   4.209   7.450   1.336  1.3347  0.5146 -1.0607
28483SOL    HW292055   4.113   7.561   1.299  0.9059  0.6057  0.2496
28484SOL     OW92056   0.078   6.166   6.156 -0.0463 -0.0623 -0.4952
28484SOL    HW192057   0.105   6.074   6.146 -0.4772 -0.3674  0.9313
28484SOL    HW292058   0.042   6.171   6.245 -1.4398  1.1421 -1.0843
28485SOL     OW92059   7.298   3.060   3.389 -0.3962  0.2490  0.4802
28485SOL    HW192060   7.241   3.043   3.464 -0.6280  2.8823  0.9986
28485SOL    HW292061   7.341   3.143   3.410 -0.6379  1.2190 -2.3609
28486SOL     OW92062   9.414   0.442   2.324 -0.2666  0.5155 -0.8280
28486SOL    HW192063   9.359   0.382   2.373 -1.2423  0.7932 -1.5544
28486SOL    HW292064   9.437   0.511   2.387  1.6763 -1.0554  0.2972
28487SOL     OW92065   0.618   4.986  11.750  0.4064  0.3133  0.1519
28487SOL    HW192066   0.549   4.928  11.782  1.1447  0.1016  1.4446
28487SOL    HW292067   0.687   4.979  11.816  1.8261  0.2417 -1.2775
28488SOL     OW92068   1.927   2.897   6.461 -0.1233 -0.2343 -0.5142
28488SOL    HW192069   1.911   2.984   6.497 -0.6659 -1.1608  1.6292
28488SOL    HW292070   1.855   2.882   6.400  0.4385  1.1178 -1.5613
28489SOL     OW92071   4.094   4.308   3.264 -0.0897  0.6305  0.8255
28489SOL    HW192072   4.155   4.299   3.190 -1.4367  2.6204 -0.6485
28489SOL    HW292073   4.045   4.226   3.265  2.1093 -0.7414  1.6313
28490SOL     OW92074   2.119   1.609   1.175  0.0681 -0.4592 -0.1961
28490SOL    HW192075   2.116   1.704   1.182  0.6552 -0.5031  0.7941
28490SOL    HW292076   2.085   1.590   1.087 -0.7882  0.6067 -0.1095
28491SOL     OW92077  10.177   9.700   9.153 -0.2630 -0.0079  0.1753
28491SOL    HW192078  10.198   9.654   9.072 -1.9088  1.4446 -1.1698
28491SOL    HW292079  10.167   9.630   9.218 -0.8206 -1.4020 -1.3333
28492SOL     OW92080   3.876   3.050   7.651 -0.1889 -0.0298  0.1202
28492SOL    HW192081   3.903   3.021   7.739 -0.6882 -0.5997  0.0898
28492SOL    HW292082   3.897   3.143   7.650 -0.5552  0.0801  1.0008
28493SOL     OW92083   0.331   5.804   3.236  0.2330 -0.2085  0.1209
28493SOL    HW192084   0.386   5.728   3.256  0.2595 -0.0415  0.7014
28493SOL    HW292085   0.350   5.866   3.307 -1.1622 -0.3832  0.6689
28494SOL     OW92086   7.686   2.838  10.032 -0.1188 -0.3561  0.6648
28494SOL    HW192087   7.676   2.848   9.937  0.0134 -0.7052  0.6163
28494SOL    HW292088   7.620   2.773  10.056  0.1338 -0.5744  0.7556
28495SOL     OW92089   3.732   4.687   6.623  0.3351 -0.5835  0.1518
28495SOL    HW192090   3.754   4.594   6.616  0.4747 -0.5312 -0.1007
28495SOL    HW292091   3.758   4.712   6.712 -0.8636 -1.0955  0.6708
28496SOL     OW92092   4.769   3.323  10.111 -0.2231  0.1066  0.4025
28496SOL    HW192093   4.776   3.391  10.044 -1.0428 -0.5981 -0.4221
28496SOL    HW292094   4.851   3.274  10.104 -0.2733  0.0808 -0.0450
28497SOL     OW92095   2.209  11.293  11.947 -0.2052 -0.2890 -0.4116
28497SOL    HW192096   2.178  11.359  11.886  3.0606 -0.5923 -2.6520
28497SOL    HW292097   2.189  11.209  11.905  0.5366 -0.5518 -0.2583
28498SOL     OW92098   3.681   9.681   8.111  0.8836 -0.4785  0.3735
28498SOL    HW192099   3.625   9.756   8.092  0.9284 -0.8107 -1.2038
28498SOL    HW292100   3.750   9.716   8.168 -0.0144  0.2794  1.0302
28499SOL     OW92101   6.220   9.641   2.617  0.2537 -0.0824  0.0849
28499SOL    HW192102   6.141   9.594   2.643  0.2246 -0.5015 -0.7443
28499SOL    HW292103   6.203   9.669   2.527  0.7300  0.5245  0.1789
28500SOL     OW92104  12.651  10.264   9.031 -0.3589  0.3829  0.7394
28500SOL    HW192105  12.626  10.184   9.078  2.8467 -2.2290 -1.4490
28500SOL    HW292106  12.610  10.254   8.945  0.6446  0.6663  0.2122
28501SOL     OW92107   7.593   3.949   9.923  0.2939  0.1568 -0.0844
28501SOL    HW192108   7.529   4.021   9.923  0.5677  0.4185 -1.4523
28501SOL    HW292109   7.677   3.991   9.940  0.3288  0.0277  0.0665
28502SOL     OW92110   7.085   9.386   3.792 -0.1224  0.0225  0.4104
28502SOL    HW192111   7.020   9.425   3.732 -0.3499  2.7366  2.2275
28502SOL    HW292112   7.035   9.366   3.871  0.7906 -0.2331  0.9325
28503SOL     OW92113   8.823  12.726   2.765 -0.2183 -0.6943  0.2200
28503SOL    HW192114   8.852  12.641   2.733 -0.1263 -0.8940  0.8271
28503SOL    HW292115   8.750  12.749   2.707  0.6214 -0.5525 -0.8052
28504SOL     OW92116   9.286  10.790   7.878  0.3840 -0.1003  0.1915
28504SOL    HW192117   9.191  10.806   7.874  0.4033 -0.2312 -1.6848
28504SOL    HW292118   9.325  10.867   7.837  1.1538  0.3055  1.6395
28505SOL     OW92119   7.970   7.974   9.834  0.3594  0.3790 -0.5116
28505SOL    HW192120   7.998   8.043   9.894  0.2710 -0.6850  0.8071
28505SOL    HW292121   7.932   7.907   9.891  0.5515 -0.8081 -1.7408
28506SOL     OW92122   3.697   5.707   5.452  0.3702  0.1187 -0.0220
28506SOL    HW192123   3.639   5.656   5.395 -0.2798  0.9086 -0.0959
28506SOL    HW292124   3.637   5.750   5.514  0.8597  1.0233 -0.1529
28507SOL     OW92125   3.349  11.256   9.673 -0.1350 -0.3562 -0.0914
28507SOL    HW192126   3.427  11.311   9.681  2.2841 -3.2548 -1.7589
28507SOL    HW292127   3.340  11.214   9.758  1.1100 -1.1461 -0.3311
28508SOL     OW92128   1.052   3.662  12.556  1.1909  0.2976  0.0396
28508SOL    HW192129   0.972   3.703  12.589  0.3670 -1.4453  0.3270
28508SOL    HW292130   1.044   3.665  12.461  0.9628  0.4510  0.0629
28509SOL     OW92131   1.064   2.317   7.309 -0.8287  0.1289  0.2552
28509SOL    HW192132   1.111   2.235   7.301 -0.3637  0.4589 -0.4813
28509SOL    HW292133   1.132   2.383   7.325 -0.9535  0.7008 -1.4519
28510SOL     OW92134   0.460   1.580  11.535  0.1020 -0.2231 -0.1631
28510SOL    HW192135   0.431   1.498  11.575  0.5425  0.4611  1.6628
28510SOL    HW292136   0.551   1.589  11.562 -0.1414  1.1920  0.2737
28511SOL     OW92137  10.880   0.257   3.375 -0.3335 -1.1823 -0.6314
28511SOL    HW192138  10.860   0.176   3.422 -0.7821 -1.3100 -1.0395
28511SOL    HW292139  10.798   0.282   3.332 -0.2506 -0.4077 -0.3574
28512SOL     OW92140   1.961  11.645   3.009 -0.1616 -0.2172  0.0962
28512SOL    HW192141   2.049  11.680   2.998  0.3240 -1.7854 -1.4639
28512SOL    HW292142   1.915  11.668   2.928 -0.2571 -1.8905 -0.3620
28513SOL     OW92143  12.635   4.788   5.810 -0.2935  0.4655  0.1059
28513SOL    HW192144  12.695   4.808   5.882  1.6398 -0.7625 -1.0756
28513SOL    HW292145  12.618   4.872   5.768  1.4810  0.7095 -0.1661
28514SOL     OW92146  11.284   9.529   3.121  0.6574  0.0006  0.5740
28514SOL    HW192147  11.272   9.474   3.198  0.8087 -0.6149  0.1674
28514SOL    HW292148  11.366   9.498   3.082  0.9559  0.7849  0.5542
28515SOL     OW92149  11.949   7.725  11.412  0.1234  0.3031  0.0233
28515SOL    HW192150  12.037   7.708  11.445  0.0491 -0.5589 -0.2029
28515SOL    HW292151  11.934   7.656  11.347 -0.7743  0.3514  0.1656
28516SOL     OW92152   1.433   0.798   3.684  0.3287  0.6289  0.3815
28516SOL    HW192153   1.363   0.761   3.737  0.5442  0.6664  0.6923
28516SOL    HW292154   1.393   0.813   3.598  0.1858 -0.1437  0.3072
28517SOL     OW92155  11.627   1.948   1.875 -0.4732  0.3603 -0.0070
28517SOL    HW192156  11.707   1.998   1.888 -0.3793  0.0812  0.4991
28517SOL    HW292157  11.586   1.945   1.962 -1.3158  0.9792 -0.3631
28518SOL     OW92158   7.277  10.844   1.893 -0.3696 -0.1292  0.5363
28518SOL    HW192159   7.288  10.918   1.832  0.8078  0.7722  1.7740
28518SOL    HW292160   7.186  10.817   1.881  0.0609 -0.6440 -2.2925
28519SOL     OW92161   7.270   7.445  10.477  0.3025 -0.0861  0.1050
28519SOL    HW192162   7.197   7.391  10.507 -0.5643  1.2224  0.4268
28519SOL    HW292163   7.229   7.526  10.446  1.5699  0.4484 -0.2359
28520SOL     OW92164   5.252   2.633   1.334  0.1097 -0.1915  0.6175
28520SOL    HW192165   5.166   2.598   1.360 -1.0501  1.8895 -0.2087
28520SOL    HW292166   5.236   2.674   1.250  2.3910 -1.3444 -0.4614
28521SOL     OW92167   1.667  12.098   1.239  0.9960  0.2108  0.8141
28521SOL    HW192168   1.685  12.080   1.331  1.6893 -1.5770  0.3575
28521SOL    HW292169   1.753  12.116   1.200  1.0040 -1.2922  0.0778
28522SOL     OW92170   9.516   8.127   9.116 -0.6902  0.4459  0.4189
28522SOL    HW192171   9.434   8.086   9.089 -0.9799  0.6382  1.0084
28522SOL    HW292172   9.554   8.159   9.034  0.0760 -1.9160 -0.2240
28523SOL     OW92173  12.117   5.300   9.773  0.1063 -0.3714  0.2827
28523SOL    HW192174  12.051   5.338   9.716  0.9696  1.3866  0.4013
28523SOL    HW292175  12.078   5.302   9.860 -0.1613 -0.5428  0.1695
28524SOL     OW92176   0.360   5.211   8.862  0.4905 -0.8475  0.1198
28524SOL    HW192177   0.330   5.297   8.835 -0.1986 -1.0383  0.2660
28524SOL    HW292178   0.335   5.153   8.790  0.6427 -0.9848  0.1755
28525SOL     OW92179   8.970   3.223   0.774 -0.3291  0.5980  0.0524
28525SOL    HW192180   8.895   3.174   0.742 -0.5663 -0.4801  2.0799
28525SOL    HW292181   9.037   3.211   0.707 -0.5820 -2.0491  0.1776
28526SOL     OW92182   5.458   1.655  11.552 -0.3271 -0.3172 -0.2867
28526SOL    HW192183   5.542   1.639  11.508 -0.7074  0.9703 -1.5759
28526SOL    HW292184   5.461   1.747  11.576 -0.3802 -0.8450  1.9774
28527SOL     OW92185   0.071   6.189  11.849 -0.0267 -0.1668  0.1100
28527SOL    HW192186   0.144   6.131  11.831 -1.3661 -1.5554 -1.2419
28527SOL    HW292187   0.084   6.263  11.789  0.9572  0.2940  0.8623
28528SOL     OW92188   8.422  12.079   8.871  0.5511  0.8024 -0.2950
28528SOL    HW192189   8.436  12.000   8.818  0.9561  1.4522 -1.1855
28528SOL    HW292190   8.498  12.084   8.928  0.4196  0.4291 -0.0884
28529SOL     OW92191   0.387   9.775   7.454  0.3167  0.2263  0.0388
28529SOL    HW192192   0.443   9.771   7.377  0.6153 -2.3909  0.2931
28529SOL    HW292193   0.443   9.814   7.522  1.3519 -0.9239 -0.1145
28530SOL     OW92194   5.018   6.430  10.979 -0.2907 -0.4080  0.8785
28530SOL    HW192195   5.105   6.439  11.015  0.0990  0.2854 -0.1787
28530SOL    HW292196   5.023   6.352  10.923 -0.0844  0.1103  0.1506
28531SOL     OW92197   0.206   0.585   4.639 -0.2643 -0.6316  0.0097
28531SOL    HW192198   0.243   0.607   4.725  0.5159 -0.8811 -0.2624
28531SOL    HW292199   0.192   0.670   4.596 -1.4282 -0.4496  0.6827
28532SOL     OW92200   5.025  11.182   0.693  0.5143 -0.1151 -0.3152
28532SOL    HW192201   5.078  11.104   0.712  0.1688 -0.6930 -1.5529
28532SOL    HW292202   4.935  11.148   0.689  0.1300  0.7037  0.9574
28533SOL     OW92203  10.077   1.177   5.982 -0.4553  0.6908  0.1147
28533SOL    HW192204  10.090   1.113   5.913 -0.8618  1.0509 -0.3007
28533SOL    HW292205  10.165   1.212   5.999 -0.4596  1.1349 -0.7398
28534SOL     OW92206   4.807  12.269   1.359 -0.1858  0.3806 -0.2629
28534SOL    HW192207   4.887  12.219   1.373 -0.6528 -0.1777  0.5048
28534SOL    HW292208   4.793  12.268   1.264  0.4300  0.0456 -0.3497
28535SOL     OW92209   0.953   9.800   8.332  0.3152  0.4834 -0.5054
28535SOL    HW192210   0.890   9.864   8.300 -0.8709 -0.6837 -0.5654
28535SOL    HW292211   0.907   9.752   8.401  1.4898  0.2960  0.1866
28536SOL     OW92212   8.680  12.063  11.891 -0.0476  0.1775  0.0081
28536SOL    HW192213   8.732  12.139  11.919  0.8464 -0.9446  1.5998
28536SOL    HW292214   8.737  11.987  11.910 -0.7011 -0.8856 -2.0092
28537SOL     OW92215  10.129   0.956   5.808 -0.4158 -0.0204 -0.1003
28537SOL    HW192216  10.063   0.922   5.748  0.9000 -0.4267 -1.3580
28537SOL    HW292217  10.195   0.887   5.813  0.9474  1.2083 -0.5219
28538SOL     OW92218   9.352  10.011  12.029 -0.1959 -0.1602  0.1989
28538SOL    HW192219   9.355   9.954  11.952  1.0595 -1.0295  0.8469
28538SOL    HW292220   9.267   9.995  12.068 -0.8373  0.2640 -0.9636
28539SOL     OW92221   5.833   6.016   6.037  0.2158 -0.1883  0.7160
28539SOL    HW192222   5.760   6.041   5.980  0.0824 -0.2141  0.8728
28539SOL    HW292223   5.846   6.092   6.093 -1.4278 -1.1163  2.4668
28540SOL     OW92224   8.509  10.376   9.894 -0.3297 -0.0831  0.2456
28540SOL    HW192225   8.431  10.379   9.949 -0.6470  1.2979 -0.2415
28540SOL    HW292226   8.527  10.467   9.873  0.7293 -0.4696 -0.6306
28541SOL     OW92227  10.778  12.448   3.399 -0.6483 -0.5091  0.2920
28541SOL    HW192228  10.865  12.460   3.438 -0.3862  0.9716 -0.6660
28541SOL    HW292229  10.722  12.509   3.448 -0.6134  0.3189 -0.6601
28542SOL     OW92230   3.653   6.533   8.365  0.2208  0.3856 -0.1407
28542SOL    HW192231   3.679   6.613   8.319  1.2658  0.8318  1.1636
28542SOL    HW292232   3.692   6.462   8.314 -0.9296  0.6507 -1.4562
28543SOL     OW92233   1.301   2.192  10.995  0.0236 -0.3248  0.0249
28543SOL    HW192234   1.341   2.126  10.938  0.2228 -1.7052  1.6680
28543SOL    HW292235   1.374   2.247  11.023  0.0637 -0.1870 -0.3438
28544SOL     OW92236   9.168   1.109   8.244 -0.2144 -0.4595  0.0221
28544SOL    HW192237   9.220   1.147   8.315  1.0160  1.7036 -1.9014
28544SOL    HW292238   9.181   1.015   8.251 -0.0805 -0.3108  2.5720
28545SOL     OW92239   9.780   5.339   1.499  0.5427  0.3261 -1.1281
28545SOL    HW192240   9.842   5.409   1.478 -0.1694  0.8052 -1.6837
28545SOL    HW292241   9.694   5.378   1.487  0.0721  0.2158  1.4541
28546SOL     OW92242   1.759   6.154   8.297 -1.0582 -0.0257  0.4224
28546SOL    HW192243   1.791   6.181   8.211 -0.3323  2.1313  1.3106
28546SOL    HW292244   1.748   6.059   8.290 -0.2168 -0.0106 -1.7683
28547SOL     OW92245   6.764  11.941   4.232 -0.2066  0.3865 -0.3259
28547SOL    HW192246   6.850  11.975   4.256 -0.2995  2.2426 -2.2781
28547SOL    HW292247   6.706  12.018   4.236 -1.3491 -0.4220 -0.8551
28548SOL     OW92248   0.851   5.058  12.438  0.1473  0.1621  0.1618
28548SOL    HW192249   0.866   4.964  12.438  0.1392  0.1590  0.5434
28548SOL    HW292250   0.820   5.078  12.526 -2.1154  0.1777 -0.5773
28549SOL     OW92251   2.101  11.514  10.627  0.6839  0.6484  0.0839
28549SOL    HW192252   2.017  11.550  10.654 -0.5523 -1.9602  0.0056
28549SOL    HW292253   2.146  11.495  10.709  0.2720  0.0603  0.1785
28550SOL     OW92254   9.376   9.267  10.510 -0.2177  0.3238  0.4087
28550SOL    HW192255   9.440   9.196  10.520 -1.0132 -0.2377  1.7286
28550SOL    HW292256   9.297   9.224  10.478 -0.7281  0.5804  1.2800
28551SOL     OW92257  12.001   9.767   8.255 -0.0143  0.1642 -0.1935
28551SOL    HW192258  12.002   9.739   8.163  1.7820  0.2875 -0.2497
28551SOL    HW292259  12.053   9.701   8.300 -0.7674  0.1834  0.7369
28552SOL     OW92260   6.829   5.497   5.142 -0.1833 -0.1765  0.2051
28552SOL    HW192261   6.898   5.563   5.154 -1.0125  0.5586  1.0844
28552SOL    HW292262   6.819   5.458   5.229 -0.0975 -1.0878 -0.1810
28553SOL     OW92263  12.378   9.952   2.118 -0.2758 -0.3961 -0.2992
28553SOL    HW192264  12.349   9.916   2.034 -2.7260 -0.3080  0.4445
28553SOL    HW292265  12.332   9.900   2.184  2.5910 -1.3380  1.1235
28554SOL     OW92266   4.874   0.782   2.362 -0.3346 -0.3006  0.1189
28554SOL    HW192267   4.902   0.783   2.454 -0.4629  1.3919  0.1650
28554SOL    HW292268   4.812   0.709   2.357 -0.2065 -0.5207  1.3382
28555SOL     OW92269   3.330  11.802   3.227  0.2741 -0.1821  0.0093
28555SOL    HW192270   3.258  11.825   3.169  1.0249 -0.8398 -1.2442
28555SOL    HW292271   3.380  11.883   3.236 -0.3378  0.1494  0.4749
28556SOL     OW92272   5.512   9.416   9.902 -0.2026  0.2501  0.3627
28556SOL    HW192273   5.501   9.466   9.983 -0.9050  1.6120 -0.5384
28556SOL    HW292274   5.497   9.480   9.832  1.9193 -0.5219 -0.8826
28557SOL     OW92275  10.138  10.190   6.110  0.3070 -0.3977 -0.0722
28557SOL    HW192276  10.049  10.201   6.144  0.4046  0.7591 -0.1465
28557SOL    HW292277  10.132  10.116   6.049 -1.0629  0.8478 -1.5451
28558SOL     OW92278   1.334   5.523   0.417 -0.1862  0.3945  0.1107
28558SOL    HW192279   1.314   5.581   0.343 -0.2159  0.0722 -0.1321
28558SOL    HW292280   1.351   5.438   0.378 -1.4311 -0.0883  0.5589
28559SOL     OW92281   5.793   5.823  12.151  0.1923  0.5708 -0.2844
28559SOL    HW192282   5.707   5.843  12.190  0.3119  1.3102 -0.3861
28559SOL    HW292283   5.829   5.754  12.207 -0.8608 -0.4159 -0.7813
28560SOL     OW92284   3.504   1.908  10.935 -0.1863  0.4169  0.1202
28560SOL    HW192285   3.426   1.851  10.941 -0.8400  0.9253 -2.4791
28560SOL    HW292286   3.495   1.952  10.851  2.1553  1.6985  0.4689
28561SOL     OW92287   8.226  10.159   2.119  0.3468  0.6710  0.3125
28561SOL    HW192288   8.304  10.155   2.065  0.2451  1.7080  0.0762
28561SOL    HW292289   8.204  10.252   2.124 -0.6253  0.4351  0.7289
28562SOL     OW92290   3.249   5.505   9.194 -0.5443  0.7249  0.2467
28562SOL    HW192291   3.214   5.538   9.111 -1.0882  0.1618  0.2423
28562SOL    HW292292   3.342   5.525   9.190 -1.0607  3.7852  0.9738
28563SOL     OW92293   8.919   8.419  10.534 -0.1323 -0.1006  0.1841
28563SOL    HW192294   8.856   8.469  10.483  1.4868  0.4038 -1.4689
28563SOL    HW292295   8.932   8.469  10.614 -2.1353 -0.4714  0.7795
28564SOL     OW92296  11.691   4.409  10.486  0.4893 -0.1699 -0.3659
28564SOL    HW192297  11.766   4.443  10.534  0.7507 -2.6654  1.1618
28564SOL    HW292298  11.617   4.424  10.543  0.4332 -1.0305 -0.1954
28565SOL     OW92299   6.464   4.474   0.993  0.3118  0.5307  0.4258
28565SOL    HW192300   6.509   4.399   1.033  0.2971  0.6725  0.7100
28565SOL    HW292301   6.464   4.541   1.061 -1.5373  0.0600  0.9362
28566SOL     OW92302   8.980   0.608   3.149  0.1653 -0.5485 -0.2507
28566SOL    HW192303   8.950   0.660   3.074  0.1713 -0.2728 -0.0642
28566SOL    HW292304   8.975   0.669   3.223 -0.8334 -1.1142  0.1620
28567SOL     OW92305   6.115   5.636   1.530  0.0951 -0.0960 -0.9383
28567SOL    HW192306   6.146   5.587   1.453  0.5443 -2.2416  0.5388
28567SOL    HW292307   6.033   5.675   1.501  0.8858  0.2360 -2.8969
28568SOL     OW92308  12.032   4.432   5.527  0.0442 -0.1013 -0.1069
28568SOL    HW192309  12.034   4.341   5.555  2.4637 -0.5547 -1.4417
28568SOL    HW292310  12.035   4.482   5.608 -1.9128 -1.1433  0.6685
28569SOL     OW92311   6.664   3.198  11.716 -1.0427 -0.0600  0.2389
28569SOL    HW192312   6.687   3.197  11.623 -0.5167  0.4245  0.3600
28569SOL    HW292313   6.623   3.113  11.731  0.4735 -0.8820 -0.0379
28570SOL     OW92314   3.907   1.144   7.915 -0.1852 -0.1814  0.2414
28570SOL    HW192315   3.840   1.173   7.852  1.1288 -0.9311 -1.5760
28570SOL    HW292316   3.956   1.224   7.935  0.3305 -0.1873 -0.9032
28571SOL     OW92317  10.294   1.451   8.481  0.4833 -0.2126  0.1529
28571SOL    HW192318  10.201   1.436   8.500  0.4996 -1.6527 -0.7804
28571SOL    HW292319  10.319   1.522   8.540 -1.6846  1.5562 -0.8619
28572SOL     OW92320   9.645   7.017   5.498  0.2228 -0.1274  0.0822
28572SOL    HW192321   9.663   7.110   5.510  0.4426 -0.1484 -0.0816
28572SOL    HW292322   9.714   6.973   5.548 -0.3274 -0.2000  0.7980
28573SOL     OW92323   4.426   7.354   9.624  0.6941  0.2928 -1.0313
28573SOL    HW192324   4.443   7.443   9.595 -0.3200  0.3963 -1.3210
28573SOL    HW292325   4.421   7.360   9.720  2.2258  0.2525 -0.9113
28574SOL     OW92326  11.463  10.792   0.562  0.4409  0.0287 -0.0345
28574SOL    HW192327  11.389  10.840   0.524  1.7625  2.0670 -0.2114
28574SOL    HW292328  11.477  10.834   0.647  1.6379 -0.0042 -0.1899
28575SOL     OW92329   4.163   3.563   7.888  0.7322  0.3909 -0.7160
28575SOL    HW192330   4.153   3.633   7.952 -1.7641 -0.6882  0.1841
28575SOL    HW292331   4.189   3.487   7.939  2.1763  0.2925 -1.5209
28576SOL     OW92332   2.686   0.709   5.777 -0.4171  0.1585 -0.4103
28576SOL    HW192333   2.733   0.649   5.718  3.4844  1.6241  0.9029
28576SOL    HW292334   2.699   0.795   5.739 -1.9016  0.6808  0.1929
28577SOL     OW92335   1.754   6.889   3.844  0.0001 -0.3778  0.0544
28577SOL    HW192336   1.700   6.947   3.790  0.4259 -0.8680 -0.9223
28577SOL    HW292337   1.837   6.937   3.855  0.0940 -0.4941 -0.1480
28578SOL     OW92338   2.303   6.647   6.809  0.0806  0.3330  0.2239
28578SOL    HW192339   2.314   6.556   6.782  2.1529  0.6798 -0.3392
28578SOL    HW292340   2.212   6.669   6.787  0.2835 -0.8335 -2.1415
28579SOL     OW92341   3.280   3.077   0.821  0.0699  0.0328  0.2903
28579SOL    HW192342   3.350   3.126   0.778  0.1800 -0.3250  0.0534
28579SOL    HW292343   3.203   3.133   0.813  0.7028  1.2446  2.1336
28580SOL     OW92344   1.469   8.865   5.760 -0.2801  0.3637  0.2018
28580SOL    HW192345   1.446   8.823   5.677 -1.3016  0.5771  0.3594
28580SOL    HW292346   1.466   8.794   5.824 -2.1283  0.6379  0.4894
28581SOL     OW92347   5.045   5.151   7.391 -0.6338  0.3692  0.5323
28581SOL    HW192348   5.072   5.230   7.438 -1.6334  1.5466 -0.7851
28581SOL    HW292349   5.123   5.122   7.345  0.0297 -0.0827  1.8831
28582SOL     OW92350   9.072  10.586  11.219 -0.3654 -0.6152  0.0577
28582SOL    HW192351   9.045  10.598  11.128 -0.2428  0.0722  0.1068
28582SOL    HW292352   9.035  10.502  11.244  0.5590 -1.3634 -0.9902
28583SOL     OW92353   5.844   0.075   8.595 -0.1687 -0.0893 -0.0975
28583SOL    HW192354   5.798   0.156   8.571 -1.3674 -0.6481  0.2017
28583SOL    HW292355   5.898   0.054   8.520  0.7532  1.3893  0.1077
28584SOL     OW92356   2.541   6.292  10.634  0.1989  0.1743  0.1262
28584SOL    HW192357   2.586   6.375  10.618 -0.9363  0.7482 -0.2325
28584SOL    HW292358   2.552   6.243  10.553  0.9502 -0.0724  0.3703
28585SOL     OW92359   2.932   7.826   1.322  0.5162  0.7137  0.3553
28585SOL    HW192360   3.019   7.787   1.333  0.2172 -0.0163  0.1529
28585SOL    HW292361   2.942   7.916   1.354  0.8398  0.0375  2.3036
28586SOL     OW92362   6.895   0.221   8.270  0.1387 -0.0957 -0.1110
28586SOL    HW192363   6.904   0.144   8.326  2.0892  0.7899  0.9011
28586SOL    HW292364   6.896   0.187   8.181 -1.8543 -1.4360  0.3326
28587SOL     OW92365  10.465   9.605   5.619  0.3465 -0.9824 -0.3793
28587SOL    HW192366  10.446   9.647   5.703  1.8757  0.3854 -0.6595
28587SOL    HW292367  10.540   9.549   5.637  1.1018 -0.1834 -0.9321
28588SOL     OW92368   3.740   0.199   7.204 -0.1148  0.1889  0.2553
28588SOL    HW192369   3.691   0.280   7.188  0.0067  0.1922 -0.1191
28588SOL    HW292370   3.714   0.141   7.132 -0.0544 -0.0365  0.4136
28589SOL     OW92371   7.594  11.715   0.470  0.2579  0.5287 -0.5955
28589SOL    HW192372   7.640  11.677   0.545 -1.0227  0.6542  0.3072
28589SOL    HW292373   7.636  11.678   0.393 -0.0322 -1.6489  0.2316
28590SOL     OW92374  10.865   8.669   6.855 -0.0755 -0.5652 -0.2491
28590SOL    HW192375  10.854   8.582   6.892  0.3956 -0.4779  0.1015
28590SOL    HW292376  10.864   8.655   6.760  0.4144 -1.0051 -0.1920
28591SOL     OW92377   6.949   0.228   2.381 -0.7490  0.1916 -0.2736
28591SOL    HW192378   6.908   0.281   2.450 -2.0591 -0.4381 -0.5381
28591SOL    HW292379   7.023   0.281   2.351  0.4053  0.1027  2.2008
28592SOL     OW92380   1.857   9.321   9.519  0.3448  0.0346 -0.4438
28592SOL    HW192381   1.835   9.232   9.544  1.3339 -0.2226 -0.4393
28592SOL    HW292382   1.778   9.372   9.538 -1.9431 -1.5087 -4.4645
28593SOL     OW92383   2.768   4.272   5.149  0.8797  0.1985 -0.1032
28593SOL    HW192384   2.728   4.194   5.110  0.3662  0.3339  0.1450
28593SOL    HW292385   2.734   4.274   5.239  2.3515 -0.3340  0.4974
28594SOL     OW92386  11.206   8.450   8.025  0.4356 -0.0411  0.3552
28594SOL    HW192387  11.149   8.381   8.060 -0.8591  0.7826 -0.0374
28594SOL    HW292388  11.203   8.520   8.091  2.4576 -0.6775  1.1771
28595SOL     OW92389   2.221   5.419  10.455 -0.3798 -0.1214 -0.5959
28595SOL    HW192390   2.171   5.500  10.462  0.1763  0.1111  4.3294
28595SOL    HW292391   2.311   5.448  10.443 -0.3016  0.0130  0.2280
28596SOL     OW92392   7.386   7.516  11.247  0.1584  0.4227 -0.1186
28596SOL    HW192393   7.333   7.493  11.323  1.2620 -1.8195  0.0566
28596SOL    HW292394   7.388   7.611  11.247 -1.6882  0.5143  1.3606
28597SOL     OW92395   3.557   6.226   0.660 -0.5619  0.1892 -0.1572
28597SOL    HW192396   3.598   6.209   0.576 -1.0072 -0.5433 -0.2352
28597SOL    HW292397   3.524   6.140   0.689 -1.1002  0.5685  0.3900
28598SOL     OW92398  10.247   6.798   4.255 -0.3602  0.3238 -0.1583
28598SOL    HW192399  10.306   6.864   4.291  0.7160 -0.5368 -0.3122
28598SOL    HW292400  10.189   6.776   4.328  0.8981 -0.3780  0.6611
28599SOL     OW92401   5.390   4.296   2.491 -0.2219  0.0925 -0.2907
28599SOL    HW192402   5.454   4.366   2.505  0.4956 -0.3899 -1.0942
28599SOL    HW292403   5.333   4.300   2.569  2.2797 -1.0888  1.7290
28600SOL     OW92404   8.979   1.790   8.483 -0.1585  0.8898  0.1364
28600SOL    HW192405   9.015   1.704   8.505  0.5461  1.2986  0.6484
28600SOL    HW292406   9.050   1.851   8.503 -0.7518  1.6189  0.0622
28601SOL     OW92407   7.962   3.830   2.312 -0.5154  0.1354 -0.1034
28601SOL    HW192408   7.948   3.813   2.219 -0.2283 -0.1276 -0.1020
28601SOL    HW292409   7.976   3.925   2.318 -0.4300  0.1370 -0.3443
28602SOL     OW92410  12.758   5.573   6.443 -0.0530  0.8059 -0.5271
28602SOL    HW192411  12.690   5.509   6.466  0.5531  0.1734 -0.4614
28602SOL    HW292412  12.827   5.560   6.508  1.1877 -0.2256 -1.9693
28603SOL     OW92413   6.711   3.398  12.690 -0.3007  0.1039  0.1545
28603SOL    HW192414   6.653   3.439  12.754 -1.3694  0.7724 -1.2054
28603SOL    HW292415   6.788   3.456  12.687  0.2333 -0.4794  1.5357
28604SOL     OW92416   8.739  12.164   1.078 -0.2476 -0.1127 -0.5356
28604SOL    HW192417   8.756  12.221   1.153  1.9702  0.3114 -1.2630
28604SOL    HW292418   8.822  12.117   1.065 -0.1547  0.6650 -3.3555
28605SOL     OW92419   4.472   1.352   0.358 -0.2607  0.4142 -0.1600
28605SOL    HW192420   4.410   1.290   0.398 -0.3356  1.7982  2.0182
28605SOL    HW292421   4.558   1.320   0.384 -0.2379  0.5284 -0.0960
28606SOL     OW92422   1.737   1.213   8.658  0.5272 -0.5870 -0.5672
28606SOL    HW192423   1.740   1.300   8.617 -0.2997 -0.7132 -0.9162
28606SOL    HW292424   1.821   1.174   8.637  1.4184  0.5908  0.6338
28607SOL     OW92425  11.622   3.993   8.936 -0.1736 -0.2426  0.4728
28607SOL    HW192426  11.596   4.079   8.968  0.1908  0.3470 -0.7679
28607SOL    HW292427  11.702   3.973   8.985  1.7352  1.7053 -1.6120
28608SOL     OW92428   1.565   0.559   6.416  0.7465 -0.3984 -0.1658
28608SOL    HW192429   1.485   0.510   6.434 -0.4609  1.8791  1.0129
28608SOL    HW292430   1.563   0.575   6.322  1.8992 -3.6469 -0.8889
28609SOL     OW92431  12.605   9.182   1.814  0.0970  0.0545 -0.0126
28609SOL    HW192432  12.621   9.273   1.791  1.6752 -0.4875 -1.1964
28609SOL    HW292433  12.636   9.174   1.904  2.1309  0.1848 -0.6632
28610SOL     OW92434   7.489   0.281  10.512  0.1649  0.8467 -0.4383
28610SOL    HW192435   7.583   0.297  10.510  0.1745  1.2208  1.0849
28610SOL    HW292436   7.469   0.269  10.605 -1.2046  0.2100 -0.7832
28611SOL     OW92437   5.280   8.211  10.290 -0.3316 -0.2037 -0.4167
28611SOL    HW192438   5.245   8.236  10.204 -0.4428  0.3348 -0.2231
28611SOL    HW292439   5.270   8.290  10.343  0.9161 -0.1291 -0.2660
28612SOL     OW92440   1.921   2.130   4.383 -1.1888  0.3417 -0.3294
28612SOL    HW192441   1.933   2.047   4.336  2.7516  0.8916 -0.6620
28612SOL    HW292442   1.939   2.109   4.474 -0.5615  0.7378 -0.3555
28613SOL     OW92443   1.242   3.516   7.010  0.0755 -0.6283  0.4093
28613SOL    HW192444   1.242   3.567   7.090 -0.3865 -1.8931  1.2561
28613SOL    HW292445   1.179   3.445   7.026  1.7935 -2.3691 -0.0869
28614SOL     OW92446  11.707  11.997   3.399  0.5775 -0.2408 -0.3345
28614SOL    HW192447  11.698  12.038   3.313 -0.3078 -0.2554 -0.2503
28614SOL    HW292448  11.633  12.031   3.449  0.2892 -1.3302 -0.0141
28615SOL     OW92449   9.766   9.080   1.483 -0.3130 -0.2212  0.3945
28615SOL    HW192450   9.740   8.997   1.442 -1.5736 -0.6691  2.0238
28615SOL    HW292451   9.714   9.146   1.438 -0.3653 -0.4849  0.0627
28616SOL     OW92452   9.901   9.080   8.044  0.2991 -0.3775 -0.3203
28616SOL    HW192453   9.910   9.163   8.091 -2.4342  1.5574 -2.8559
28616SOL    HW292454   9.807   9.069   8.032  0.6209 -3.5031 -0.7831
28617SOL     OW92455  11.728   9.965   0.722 -0.2952 -0.6632  0.0714
28617SOL    HW192456  11.759   9.891   0.774  1.3262 -1.1506 -1.4935
28617SOL    HW292457  11.796  10.032   0.732 -0.6861 -0.2140 -0.2341
28618SOL     OW92458   9.138   5.242   6.169  0.2722 -0.2355  0.4697
28618SOL    HW192459   9.181   5.279   6.092 -1.6267 -0.7787 -0.9525
28618SOL    HW292460   9.206   5.194   6.215  2.0828  2.3212  0.6501
28619SOL     OW92461   3.722   1.315   7.687  0.0982  0.3838  0.1240
28619SOL    HW192462   3.746   1.400   7.724  1.2584 -0.7602  2.1802
28619SOL    HW292463   3.761   1.315   7.600 -0.4910  2.1863 -0.1816
28620SOL     OW92464   8.615  12.664  12.727 -0.3083  0.4341 -0.4070
28620SOL    HW192465   8.583  12.646  12.638 -0.4784 -0.4769 -0.1795
28620SOL    HW292466   8.548  12.720  12.766 -0.2094  0.8774 -0.8677
28621SOL     OW92467  12.413   5.672   7.566  0.2824 -0.5590  0.4576
28621SOL    HW192468  12.346   5.649   7.502 -0.2102  2.0531 -0.0798
28621SOL    HW292469  12.367   5.725   7.631  1.8316  1.6871 -0.1662
28622SOL     OW92470   1.534   2.561   3.772 -0.4966 -0.2417  0.6320
28622SOL    HW192471   1.576   2.500   3.833  1.1119 -0.9179 -1.0560
28622SOL    HW292472   1.553   2.648   3.809 -1.4792 -0.6599  2.2263
28623SOL     OW92473   9.754   9.710   0.369 -0.4109 -0.2988  1.0703
28623SOL    HW192474   9.785   9.630   0.412 -0.8910 -0.3363  1.3580
28623SOL    HW292475   9.826   9.737   0.312 -0.4181 -1.1782  0.6351
28624SOL     OW92476   7.197  11.106   1.074 -0.0643  0.5589  0.3425
28624SOL    HW192477   7.292  11.121   1.076  0.6173 -2.9298  2.2961
28624SOL    HW292478   7.165  11.162   1.004  3.6441  0.9388 -1.2542
28625SOL     OW92479   7.565   0.586  11.689  0.1607  0.2643  0.3710
28625SOL    HW192480   7.476   0.567  11.661 -0.1332  0.5746  1.0716
28625SOL    HW292481   7.567   0.561  11.781  0.6000  0.9006  0.5374
28626SOL     OW92482   3.896   9.405  11.329 -0.4018 -0.3208 -0.0310
28626SOL    HW192483   3.897   9.338  11.261 -0.9162  0.3582 -0.7302
28626SOL    HW292484   3.948   9.477  11.292 -0.1199 -0.2082  0.5760
28627SOL     OW92485   1.102   5.762   8.756 -0.5936 -0.1793 -0.5001
28627SOL    HW192486   1.195   5.766   8.778 -0.6651  0.3589 -0.2668
28627SOL    HW292487   1.089   5.675   8.720  0.1447 -0.0083 -1.2031
28628SOL     OW92488   0.834   0.894   1.436 -0.3091 -0.4741  0.0218
28628SOL    HW192489   0.847   0.839   1.513  0.0350  0.0869  0.3719
28628SOL    HW292490   0.921   0.930   1.417 -0.4563 -0.3529 -0.4262
28629SOL     OW92491   8.658   0.643  11.612  0.5305 -0.1447 -0.2429
28629SOL    HW192492   8.703   0.562  11.638 -0.5850 -0.9766 -0.7996
28629SOL    HW292493   8.619   0.676  11.693  0.8704 -0.2417 -0.0383
28630SOL     OW92494   1.369   8.478   7.021  0.6771 -0.6780 -0.8448
28630SOL    HW192495   1.329   8.424   7.090  0.6095  1.7542  1.1761
28630SOL    HW292496   1.295   8.522   6.979  0.9160  1.1493  0.5351
28631SOL     OW92497   5.294  10.377  10.474  0.0800 -0.3050  0.6792
28631SOL    HW192498   5.341  10.460  10.478 -0.6562  0.1223  0.7295
28631SOL    HW292499   5.356  10.316  10.434  0.6323  0.2649  0.6510
28632SOL     OW92500   6.415   5.204   7.021  0.3428  0.2224 -0.2156
28632SOL    HW192501   6.436   5.290   7.058 -2.6013  0.6932  0.6504
28632SOL    HW292502   6.335   5.177   7.066 -0.0736 -1.9611 -2.0524
28633SOL     OW92503  11.346   7.333  12.624 -0.1838 -0.2221 -0.0493
28633SOL    HW192504  11.267   7.350  12.573 -0.7181 -1.2238  0.4007
28633SOL    HW292505  11.314   7.284  12.700  0.7795  0.0262  0.5246
28634SOL     OW92506   0.869   0.218   6.522 -0.3481  0.7054 -0.0652
28634SOL    HW192507   0.851   0.250   6.611 -0.7605  0.0641  0.0924
28634SOL    HW292508   0.787   0.176   6.495  0.0532  0.1408 -0.4152
28635SOL     OW92509   7.659   7.588   6.838  0.6865 -0.1542 -0.2124
28635SOL    HW192510   7.753   7.606   6.841  0.5730  0.5727 -0.7460
28635SOL    HW292511   7.653   7.500   6.801  1.1178  0.3926 -1.6508
28636SOL     OW92512   6.985  11.675   2.224  0.0030 -0.5551 -0.5838
28636SOL    HW192513   6.960  11.761   2.259  0.1733 -0.3118 -1.0538
28636SOL    HW292514   7.058  11.647   2.279 -1.0470 -1.1143  0.5867
28637SOL     OW92515   7.917   9.828   2.872  0.2145  0.4276  0.1962
28637SOL    HW192516   7.949   9.903   2.820 -2.2150  2.0390  0.8357
28637SOL    HW292517   7.849   9.866   2.928 -1.8219 -2.4571 -0.1484
28638SOL     OW92518  12.380   9.432   2.796 -0.6022  0.0019 -0.1686
28638SOL    HW192519  12.348   9.431   2.706  0.8364  0.4888 -0.7021
28638SOL    HW292520  12.412   9.343   2.811 -1.2490 -0.2074  0.0378
28639SOL     OW92521   1.419  12.157   3.873 -0.5101  0.1234 -0.3885
28639SOL    HW192522   1.437  12.233   3.817 -0.4589  1.2380  1.0761
28639SOL    HW292523   1.330  12.130   3.848  0.0319 -0.2913 -1.9557
28640SOL     OW92524   2.081   6.885   9.845 -0.2649 -0.6170  0.0603
28640SOL    HW192525   1.993   6.914   9.868 -0.7621 -0.4490 -1.8645
28640SOL    HW292526   2.126   6.963   9.815  0.4760 -0.7519  0.7740
28641SOL     OW92527   8.268   8.575   9.015 -0.1734 -0.9552  0.5432
28641SOL    HW192528   8.247   8.601   9.105 -0.4381  0.4074  0.1141
28641SOL    HW292529   8.187   8.537   8.982 -1.4225  2.1551 -0.3458
28642SOL     OW92530   5.045   3.786   8.817  0.2969  0.2739 -0.1822
28642SOL    HW192531   4.966   3.733   8.819 -0.1760  0.9848  0.0664
28642SOL    HW292532   5.050   3.819   8.727  0.7553 -0.4142 -0.4230
28643SOL     OW92533   4.211   3.540   7.321  0.6365 -0.4066 -0.1788
28643SOL    HW192534   4.197   3.445   7.321 -2.0308 -0.0883 -0.4012
28643SOL    HW292535   4.184   3.568   7.409  1.3382  0.1931 -0.1393
28644SOL     OW92536   5.475  10.617  11.913 -0.0383 -0.1014  0.4045
28644SOL    HW192537   5.384  10.636  11.939  0.4621 -2.1765  4.3144
28644SOL    HW292538   5.528  10.679  11.963  0.8437 -0.2999 -0.2526
28645SOL     OW92539   2.842  12.694   8.900  0.1117 -0.0409 -0.2403
28645SOL    HW192540   2.917  12.643   8.870 -1.8299 -1.5044 -3.1332
28645SOL    HW292541   2.864  12.785   8.878  0.8666 -0.5015 -1.4749
28646SOL     OW92542   0.375   9.522   0.639 -0.2198  0.4556 -0.2663
28646SOL    HW192543   0.404   9.572   0.563  0.3992  1.1894  0.4246
28646SOL    HW292544   0.439   9.543   0.707 -0.8612 -0.0364  0.5145
28647SOL     OW92545   3.813  11.798   7.389 -0.1597  0.1776 -0.3534
28647SOL    HW192546   3.876  11.736   7.425 -1.2025 -0.2691  0.8043
28647SOL    HW292547   3.865  11.875   7.366  0.9425 -0.5708 -0.4444
28648SOL     OW92548   7.760  10.171   3.745  0.2848 -0.3424  0.0290
28648SOL    HW192549   7.701  10.220   3.802  0.7173 -0.9257  0.9987
28648SOL    HW292550   7.725  10.186   3.657 -0.0789  1.0247  0.3675
28649SOL     OW92551   1.161   4.850  10.236 -0.1186 -0.0176 -0.4110
28649SOL    HW192552   1.122   4.782  10.290 -0.2761  0.2164 -0.2238
28649SOL    HW292553   1.173   4.924  10.296  0.8015 -0.1491 -0.4099
28650SOL     OW92554   8.238  12.245   3.208  0.4654 -0.1953  0.0609
28650SOL    HW192555   8.209  12.213   3.123 -0.1061  0.5432 -0.0341
28650SOL    HW292556   8.242  12.340   3.198  1.5947 -0.1726  0.4934
28651SOL     OW92557  12.664   5.676   7.649  0.4430  0.2598  0.2140
28651SOL    HW192558  12.712   5.697   7.569 -0.8173 -0.5613 -0.7933
28651SOL    HW292559  12.572   5.675   7.623  0.0210 -0.1917  1.6296
28652SOL     OW92560   9.909   0.756   4.938  0.2966 -0.5152 -0.4094
28652SOL    HW192561   9.919   0.819   4.866  0.4520  0.4257  0.4225
28652SOL    HW292562   9.858   0.684   4.900 -2.0126  1.2085 -0.7460
28653SOL     OW92563   7.901   9.005   1.509  0.1725 -0.2495 -0.2450
28653SOL    HW192564   7.922   9.091   1.545 -0.5535  0.5195 -1.5749
28653SOL    HW292565   7.847   9.024   1.433 -0.0353 -1.9009 -0.5402
28654SOL     OW92566  12.412  12.420   8.061  0.1259  0.3766 -0.1879
28654SOL    HW192567  12.431  12.510   8.035 -0.7424  0.8304  0.7141
28654SOL    HW292568  12.317  12.414   8.062  0.0687 -1.3568 -2.8847
28655SOL     OW92569   9.096   4.886  10.538  0.6616  0.1914  0.2113
28655SOL    HW192570   9.119   4.805  10.584 -0.5904  0.7982  1.9975
28655SOL    HW292571   9.037   4.858  10.469  0.6055 -0.4712  0.5181
28656SOL     OW92572   9.364   3.682  11.059  0.2042  0.5779  0.3183
28656SOL    HW192573   9.329   3.737  10.989 -1.1363  0.0087  0.5188
28656SOL    HW292574   9.321   3.714  11.138 -0.0421 -0.2939  0.5414
28657SOL     OW92575   8.901   9.870   3.740  0.1460  0.0936  0.1597
28657SOL    HW192576   8.875   9.923   3.816  0.6817 -0.0984  0.4770
28657SOL    HW292577   8.823   9.868   3.685 -0.7359 -0.9380  1.3672
28658SOL     OW92578  12.089   9.237  11.648 -0.1349 -0.2550 -0.0616
28658SOL    HW192579  12.056   9.176  11.581  0.7992 -0.0886 -0.6903
28658SOL    HW292580  12.069   9.194  11.731  0.4926 -1.4258 -0.4887
28659SOL     OW92581  11.467  10.348   4.538 -0.3061 -0.5649 -0.2064
28659SOL    HW192582  11.378  10.313   4.543 -1.5460  2.4023  0.8170
28659SOL    HW292583  11.467  10.421   4.600  1.1231  3.0028 -4.0136
28660SOL     OW92584   5.581   4.609   2.210  0.2749 -0.0588 -0.6941
28660SOL    HW192585   5.502   4.662   2.223  0.1772  0.1695 -2.0961
28660SOL    HW292586   5.644   4.645   2.273 -0.1020  1.0920 -0.9427
28661SOL     OW92587   8.905   4.610   8.559 -0.1754  0.2427 -0.4422
28661SOL    HW192588   8.975   4.675   8.569 -0.5198  0.8732 -1.8573
28661SOL    HW292589   8.861   4.635   8.478 -0.4781 -1.6288 -0.8934
28662SOL     OW92590   9.964   2.268   4.865 -0.0520 -0.1543 -0.4815
28662SOL    HW192591  10.037   2.309   4.914 -0.1996 -1.8839  1.2992
28662SOL    HW292592   9.930   2.202   4.925 -1.1922 -1.4183 -2.4470
28663SOL     OW92593   6.418   5.079   1.507  0.7954 -0.7659  0.6278
28663SOL    HW192594   6.469   5.002   1.532  0.1542 -0.9867  1.2656
28663SOL    HW292595   6.327   5.055   1.525  0.6966  0.6778  2.3293
28664SOL     OW92596   3.993   1.281  12.152  0.8027  0.0440 -0.1259
28664SOL    HW192597   3.944   1.201  12.132 -0.3092  0.6098  0.2656
28664SOL    HW292598   3.987   1.333  12.072 -0.3078  0.6373  0.3272
28665SOL     OW92599   0.707   9.468   4.462 -0.0492  0.2605 -0.0358
28665SOL    HW192600   0.617   9.462   4.496  0.4677  0.5654  1.4994
28665SOL    HW292601   0.720   9.561   4.445 -0.7084 -0.0234 -2.3571
28666SOL     OW92602   1.232   3.068   6.682 -0.3577 -0.2701  0.4163
28666SOL    HW192603   1.223   3.016   6.602 -0.6268 -0.5113  0.6076
28666SOL    HW292604   1.326   3.087   6.687 -0.3144 -0.4061  0.1390
28667SOL     OW92605   2.352   4.142   1.687  0.4659 -0.0003  0.2290
28667SOL    HW192606   2.397   4.073   1.639  2.3746  0.5061  1.1907
28667SOL    HW292607   2.335   4.210   1.621 -0.3428 -0.8602 -0.4698
28668SOL     OW92608  10.375   2.364   4.570 -0.6810  0.2910 -0.1575
28668SOL    HW192609  10.314   2.385   4.641 -0.1499  1.0231  0.0909
28668SOL    HW292610  10.327   2.302   4.516 -1.3719  0.2836  0.4388
28669SOL     OW92611  11.000   7.477   7.093 -0.1379 -0.0204  0.2856
28669SOL    HW192612  10.977   7.547   7.032  1.3662  1.2659  1.1242
28669SOL    HW292613  10.917   7.434   7.113 -0.9393  0.8327 -1.0550
28670SOL     OW92614   3.000  11.101   3.841 -0.2390 -0.2137 -0.5575
28670SOL    HW192615   2.910  11.112   3.810 -0.7367  2.7919  1.5287
28670SOL    HW292616   3.051  11.085   3.762 -2.0027  2.4463 -2.3881
28671SOL     OW92617   0.715   4.235   9.798 -0.0843 -0.0304 -0.3853
28671SOL    HW192618   0.656   4.305   9.825 -0.2545 -0.4269  0.2997
28671SOL    HW292619   0.660   4.157   9.795  0.1166 -0.1488 -1.0821
28672SOL     OW92620   6.628  12.746   5.678  0.1349 -0.4242  0.3866
28672SOL    HW192621   6.619  12.655   5.650 -1.2282 -0.7200  1.6248
28672SOL    HW292622   6.553  12.790   5.638 -0.5466 -0.3792  1.6525
28673SOL     OW92623   2.996   8.621   2.834  0.1280 -0.3817 -0.1311
28673SOL    HW192624   2.945   8.696   2.866 -0.3245 -0.2702 -1.0770
28673SOL    HW292625   2.996   8.632   2.739  3.1706  0.4559 -0.1400
28674SOL     OW92626   0.730   7.462   8.795  0.6169 -0.2131 -0.5232
28674SOL    HW192627   0.781   7.542   8.777 -1.7111  1.4492 -0.1550
28674SOL    HW292628   0.763   7.398   8.732  1.7675  1.3910 -1.6377
28675SOL     OW92629   8.896   4.804   3.510  0.2597  0.4537 -0.4838
28675SOL    HW192630   8.981   4.761   3.524  1.7846  3.5504  0.8974
28675SOL    HW292631   8.869   4.833   3.597 -2.2315 -0.3552 -0.9114
28676SOL     OW92632   5.914   5.405   8.375 -0.7801 -0.9194  0.2606
28676SOL    HW192633   5.982   5.364   8.429 -0.0318  0.8197  0.7088
28676SOL    HW292634   5.832   5.373   8.411 -0.2719 -0.3752  1.9740
28677SOL     OW92635   4.849   8.256  11.384  0.4780  0.2044 -0.3763
28677SOL    HW192636   4.873   8.195  11.454 -1.2633  1.2568  1.2590
28677SOL    HW292637   4.804   8.203  11.319 -2.6907 -0.1357  1.8763
28678SOL     OW92638   9.838   2.425   4.696 -0.2322  0.4798 -0.5007
28678SOL    HW192639   9.894   2.365   4.744  0.0170  0.6608 -0.5615
28678SOL    HW292640   9.895   2.499   4.674 -0.8448  1.3499  0.6880
28679SOL     OW92641   4.307  12.719  11.769  0.3002  0.2384 -0.1291
28679SOL    HW192642   4.345  12.632  11.767 -0.7950 -0.2502 -0.5686
28679SOL    HW292643   4.216  12.705  11.796  0.7335  1.5015  2.2962
28680SOL     OW92644   7.668   9.939   8.066  0.6938 -0.1654 -0.3726
28680SOL    HW192645   7.732   9.869   8.076 -0.7659 -1.4292  0.4522
28680SOL    HW292646   7.596   9.900   8.017  0.4780  1.2022 -1.2191
28681SOL     OW92647   0.929   0.952  11.268 -0.0671  0.5484  0.0805
28681SOL    HW192648   0.927   1.048  11.275  0.4724  0.7884 -2.2970
28681SOL    HW292649   0.880   0.922  11.345  1.9335  2.6070  2.3748
28682SOL     OW92650   5.421   4.390  11.256  0.2992  0.6291  0.1556
28682SOL    HW192651   5.517   4.392  11.254  0.3946 -1.0453 -2.8266
28682SOL    HW292652   5.400   4.297  11.270 -0.7518  0.3945 -2.4754
28683SOL     OW92653   2.365  12.677   9.728 -0.3045 -0.6739  0.2569
28683SOL    HW192654   2.438  12.615   9.738  0.0586 -0.3117 -0.0939
28683SOL    HW292655   2.393  12.735   9.657 -0.1151  0.6294  1.3600
28684SOL     OW92656   8.019   6.023   2.150 -0.5458  0.7658 -0.5087
28684SOL    HW192657   8.060   6.107   2.169 -0.8778  0.6579  0.7543
28684SOL    HW292658   8.092   5.966   2.124 -0.0629  0.9507  0.3959
28685SOL     OW92659   9.100   0.085   5.284  0.0690  0.7623 -0.3818
28685SOL    HW192660   9.080   0.089   5.378  0.0299 -1.0280 -0.2829
28685SOL    HW292661   9.190   0.118   5.278  0.3523  0.1670  0.3951
28686SOL     OW92662   2.784   6.293  11.082  0.4215  0.3330  0.0868
28686SOL    HW192663   2.738   6.292  11.166  1.1952 -0.0340  0.5193
28686SOL    HW292664   2.866   6.246  11.099  0.4373 -0.0474 -0.9621
28687SOL     OW92665   7.645   9.249   4.339  0.3264 -0.4689  0.4340
28687SOL    HW192666   7.678   9.209   4.419 -1.4498 -0.2416  1.3374
28687SOL    HW292667   7.653   9.181   4.272  0.0216 -1.3462  1.2686
28688SOL     OW92668   8.638   7.288   2.200 -0.5008 -0.0720 -0.3625
28688SOL    HW192669   8.550   7.284   2.238  0.0140 -0.1548  0.8606
28688SOL    HW292670   8.653   7.199   2.168 -0.2057 -0.5508  1.0166
28689SOL     OW92671  11.788   5.189  11.570 -0.5638  0.0629  0.6838
28689SOL    HW192672  11.812   5.108  11.525  1.6267  0.5720  0.7986
28689SOL    HW292673  11.740   5.240  11.504  2.4504  0.7325 -1.1766
28690SOL     OW92674   3.186   5.620   4.287  0.4106 -0.1626 -0.4476
28690SOL    HW192675   3.250   5.668   4.340  1.8264 -1.7716 -0.6308
28690SOL    HW292676   3.152   5.552   4.345 -1.7083  1.0461 -0.1403
28691SOL     OW92677   3.966   7.257  10.572  0.0198 -0.2901 -0.0694
28691SOL    HW192678   4.035   7.268  10.637 -1.2323 -1.0149  1.4368
28691SOL    HW292679   3.987   7.175  10.527  0.6695  0.0055 -0.3102
28692SOL     OW92680  12.401   9.465   5.906 -0.2239  0.2817 -0.6442
28692SOL    HW192681  12.446   9.404   5.964  0.5566  0.9740 -0.5024
28692SOL    HW292682  12.447   9.458   5.822 -1.4057 -0.7810 -1.2410
28693SOL     OW92683   0.066   3.992   9.535 -0.6306 -0.3881 -0.2295
28693SOL    HW192684   0.120   3.947   9.471 -0.4437  0.6918 -0.8452
28693SOL    HW292685   0.116   3.986   9.617  0.0220 -0.1116 -0.6079
28694SOL     OW92686   3.573   7.386   4.944  0.4805  0.0923 -0.0136
28694SOL    HW192687   3.550   7.478   4.961  1.5013  0.6022 -1.2578
28694SOL    HW292688   3.491   7.346   4.917  0.1018  0.7382  0.1403
28695SOL     OW92689   6.507   2.978   0.253 -0.7125 -0.0730 -0.1555
28695SOL    HW192690   6.520   3.061   0.206  0.2437 -1.2838 -2.1755
28695SOL    HW292691   6.595   2.940   0.259 -1.4592 -2.3183 -2.0437
28696SOL     OW92692  11.698   8.272   3.922  0.5632 -0.2583 -0.4053
28696SOL    HW192693  11.651   8.201   3.879 -0.2237  1.4053 -2.4898
28696SOL    HW292694  11.697   8.249   4.015 -4.8746 -0.1998 -0.1209
28697SOL     OW92695  12.745   6.501   1.193  0.3629 -0.2143  0.0054
28697SOL    HW192696  12.757   6.414   1.157  0.3442 -0.2108 -0.0095
28697SOL    HW292697  12.826   6.548   1.170  0.3352 -0.2004 -0.0662
28698SOL     OW92698   7.185   9.470   8.824 -0.3253 -0.2252  0.4873
28698SOL    HW192699   7.101   9.515   8.820  0.2807  0.9066  0.1372
28698SOL    HW292700   7.163   9.377   8.820 -1.5752  0.0467  0.7627
28699SOL     OW92701   8.176   0.156   3.978  0.0578  0.6027  0.0145
28699SOL    HW192702   8.198   0.069   4.011  2.0084  1.9956  2.7052
28699SOL    HW292703   8.229   0.166   3.899  0.1087 -0.4825 -0.1064
28700SOL     OW92704   9.802   0.167   4.307 -0.5381 -0.0593  0.3701
28700SOL    HW192705   9.840   0.142   4.391  1.1961  1.0109 -0.0386
28700SOL    HW292706   9.877   0.179   4.249 -1.5236  1.5525 -0.6807
28701SOL     OW92707   5.825   7.178   8.573 -0.5726 -0.3017 -0.5126
28701SOL    HW192708   5.792   7.098   8.615 -2.7569 -0.4902 -2.4336
28701SOL    HW292709   5.857   7.149   8.488  0.8234  0.5490 -0.2997
28702SOL     OW92710   6.034   5.262   2.047 -0.0093  0.6232 -0.1046
28702SOL    HW192711   6.021   5.355   2.030 -0.7823  0.3643 -1.0450
28702SOL    HW292712   6.121   5.256   2.086  0.2956  1.6773 -0.5958
28703SOL     OW92713   8.905   6.971  11.195  0.2089  0.2876 -0.6852
28703SOL    HW192714   8.833   7.028  11.169  0.8850  1.2833 -0.4144
28703SOL    HW292715   8.920   6.915  11.119 -0.8342  0.0708 -0.7475
28704SOL     OW92716  12.655   4.458   2.747  0.0718  0.3799 -0.0790
28704SOL    HW192717  12.736   4.466   2.696 -1.8837  0.8504 -3.4130
28704SOL    HW292718  12.642   4.364   2.757  0.3174  0.2692 -0.7500
28705SOL     OW92719   7.366   8.452   2.629 -0.4441 -0.5854  0.2737
28705SOL    HW192720   7.393   8.521   2.569 -1.6315 -1.9343 -1.9294
28705SOL    HW292721   7.445   8.432   2.680  0.1824  1.6360  0.2773
28706SOL     OW92722  12.407   4.141  12.728  0.3015  0.3143  0.5518
28706SOL    HW192723  12.471   4.121  12.796  0.1483 -0.3544  0.5089
28706SOL    HW292724  12.436   4.224  12.691 -0.2926  1.3145  2.2447
28707SOL     OW92725   7.592   5.813   3.356 -0.2277  0.2826  0.0680
28707SOL    HW192726   7.511   5.764   3.368  0.2304 -0.4379  0.2737
28707SOL    HW292727   7.645   5.757   3.300  1.0981 -0.4091  1.9202
28708SOL     OW92728   7.580   4.305   2.614  0.3345 -0.6210  0.3559
28708SOL    HW192729   7.497   4.352   2.621 -0.8957 -2.6982  0.7401
28708SOL    HW292730   7.610   4.323   2.525 -1.9246 -1.8711 -0.7504
28709SOL     OW92731   0.549   5.799   6.431  0.0937 -0.5007 -0.1776
28709SOL    HW192732   0.520   5.874   6.484 -0.0602 -0.8151  0.1837
28709SOL    HW292733   0.515   5.723   6.477 -0.7082 -0.7461 -1.1557
28710SOL     OW92734   6.191   6.373   7.219  0.6501 -0.0239 -0.0016
28710SOL    HW192735   6.247   6.368   7.141 -0.0164 -1.0042 -0.4334
28710SOL    HW292736   6.112   6.418   7.189  0.3205 -0.5561  0.0657
28711SOL     OW92737  10.674  10.474   4.321  0.5215  0.4627 -0.0177
28711SOL    HW192738  10.671  10.569   4.329  1.7710  0.5376 -0.3467
28711SOL    HW292739  10.751  10.456   4.267  1.5830 -0.8424  1.8265
28712SOL     OW92740   1.338   6.196   6.560 -0.2917  0.3372  0.8718
28712SOL    HW192741   1.332   6.104   6.538 -3.1768 -0.0747  2.8338
28712SOL    HW292742   1.421   6.204   6.607  0.6552 -0.9142 -0.4957
28713SOL     OW92743   5.511  12.701   3.367  0.3275  0.2513 -0.1271
28713SOL    HW192744   5.517  12.694   3.272 -0.8356  1.7621 -0.3538
28713SOL    HW292745   5.524  12.611   3.399  0.5150 -0.3097 -1.7161
28714SOL     OW92746   6.956   0.053   9.747 -0.0308 -0.1065  0.3588
28714SOL    HW192747   6.906  -0.027   9.759  0.3950 -0.4073  0.1767
28714SOL    HW292748   7.046   0.023   9.730  0.2133  0.4158  0.6685
28715SOL     OW92749   0.147   6.464  11.843  0.1925  0.2666 -0.0794
28715SOL    HW192750   0.130   6.477  11.936 -1.8737  1.1464 -0.5202
28715SOL    HW292751   0.238   6.489  11.832 -0.0223  1.9063  1.4221
28716SOL     OW92752   6.308  10.595   9.922  0.0780  0.2769  0.0034
28716SOL    HW192753   6.309  10.586   9.827  0.9662 -0.4791  0.0708
28716SOL    HW292754   6.321  10.689   9.938  1.3284  0.2251 -0.6097
28717SOL     OW92755   4.788   7.658  11.227 -0.3363  0.0380 -0.6389
28717SOL    HW192756   4.822   7.627  11.143 -0.1134  1.0478 -0.9259
28717SOL    HW292757   4.861   7.704  11.267 -0.7958  0.5716 -0.4117
28718SOL     OW92758   1.658  10.787   2.123  0.2324  0.2773 -0.0177
28718SOL    HW192759   1.594  10.721   2.151  0.5350 -0.3889 -0.8644
28718SOL    HW292760   1.732  10.737   2.091 -0.0827  0.9693 -1.9860
28719SOL     OW92761   3.434   0.420   8.390 -0.0387 -0.0341 -0.1773
28719SOL    HW192762   3.523   0.394   8.363  0.8060  1.6685  0.7860
28719SOL    HW292763   3.438   0.516   8.393 -2.2414  0.1468 -1.1277
28720SOL     OW92764  10.972   6.403   9.387  0.0938 -0.4865  0.3451
28720SOL    HW192765  10.996   6.446   9.469 -1.2528  1.8443 -0.4008
28720SOL    HW292766  11.018   6.452   9.319 -1.6141 -0.0194 -0.5447
28721SOL     OW92767   8.384  10.139   2.366  0.5411 -0.2694  0.6193
28721SOL    HW192768   8.335  10.172   2.291  2.2706 -0.8851 -0.8721
28721SOL    HW292769   8.331  10.067   2.399 -1.0944  1.0964  1.1303
28722SOL     OW92770   9.975  10.566   5.566  0.9185  0.8555  0.5852
28722SOL    HW192771   9.927  10.644   5.595  1.3298  1.0127  0.8533
28722SOL    HW292772   9.939  10.546   5.480  0.4863  1.0681  0.7129
28723SOL     OW92773   4.124   1.022   1.555  0.6774 -0.0541 -0.7775
28723SOL    HW192774   4.033   1.011   1.583  0.2927  1.6882 -1.2650
28723SOL    HW292775   4.156   0.932   1.545 -0.9432 -0.7074 -0.4794
28724SOL     OW92776   4.558   3.872   0.692  0.1860 -0.2847  0.2995
28724SOL    HW192777   4.647   3.872   0.658 -0.3936 -1.5539 -1.3463
28724SOL    HW292778   4.521   3.955   0.664  0.4319 -0.3413 -0.1998
28725SOL     OW92779   3.646   1.513   1.499  0.2394  0.3232  0.2035
28725SOL    HW192780   3.625   1.467   1.580  0.1476  0.6480  0.3662
28725SOL    HW292781   3.710   1.579   1.525  1.7259 -0.8476 -0.3418
28726SOL     OW92782   2.359  11.355   1.768  0.0234 -0.4645 -0.9171
28726SOL    HW192783   2.301  11.430   1.780  1.2935  0.5198 -0.6971
28726SOL    HW292784   2.384  11.359   1.675 -1.7534 -2.0423 -1.5201
28727SOL     OW92785  11.863   7.393   1.392  0.3301  0.0566  0.2535
28727SOL    HW192786  11.780   7.376   1.347  0.4508  0.5631 -0.1754
28727SOL    HW292787  11.929   7.384   1.323  0.5163  0.8578  0.3178
28728SOL     OW92788   1.420   8.532   7.392  0.4053  0.6124 -0.6242
28728SOL    HW192789   1.332   8.530   7.429  0.6196 -0.6874 -0.1426
28728SOL    HW292790   1.415   8.598   7.323 -1.4566 -0.7438 -1.8711
28729SOL     OW92791   2.789   8.878  10.153  0.0760 -0.2535  0.2527
28729SOL    HW192792   2.774   8.786  10.129 -0.9599 -0.4382  1.5032
28729SOL    HW292793   2.782   8.879  10.249  1.3220  0.9241  0.3639
28730SOL     OW92794  10.460   5.746   6.939 -0.1701 -0.8062 -0.1886
28730SOL    HW192795  10.498   5.736   6.852 -0.4121  0.5219 -0.4629
28730SOL    HW292796  10.389   5.682   6.940  0.0006 -1.0219 -0.8724
28731SOL     OW92797  10.878   7.642   0.867  0.1625  0.4596  0.1297
28731SOL    HW192798  10.866   7.588   0.789  0.5250  0.9650 -0.2774
28731SOL    HW292799  10.792   7.641   0.910  0.3131 -0.9338  0.4634
28732SOL     OW92800   0.856   0.786   6.404 -0.2817 -0.0366  0.4615
28732SOL    HW192801   0.844   0.693   6.421 -1.9451  0.2393  1.0326
28732SOL    HW292802   0.767   0.823   6.410  0.4736  1.7600  1.3791
28733SOL     OW92803  11.822   7.576   4.949 -0.1697  0.0989  0.0907
28733SOL    HW192804  11.810   7.492   4.993 -1.1622  0.2326  0.0958
28733SOL    HW292805  11.917   7.587   4.944 -0.0385 -0.4232  1.2247
28734SOL     OW92806   4.787   4.349   0.099  0.2056 -0.1327  0.5638
28734SOL    HW192807   4.733   4.323   0.025 -0.0277 -0.4534  0.8440
28734SOL    HW292808   4.847   4.414   0.063  2.9382 -3.1993 -0.9674
28735SOL     OW92809   2.423  11.787  10.193  0.0397 -0.6065 -0.4242
28735SOL    HW192810   2.382  11.760  10.112 -0.6313  0.4910 -0.4714
28735SOL    HW292811   2.488  11.853  10.167  0.9316 -1.3723 -0.2158
28736SOL     OW92812   1.422   4.940  12.670 -0.0151 -0.4143 -0.1426
28736SOL    HW192813   1.368   4.867  12.701 -0.3597 -0.8990 -1.7910
28736SOL    HW292814   1.363   4.993  12.617  0.5967  0.2730 -0.1568
28737SOL     OW92815   5.348  11.844   1.786 -0.9883  0.1255 -0.3431
28737SOL    HW192816   5.397  11.780   1.837 -1.3312 -0.3234 -0.5744
28737SOL    HW292817   5.409  11.871   1.717 -0.2959  1.1995  0.6450
28738SOL     OW92818   1.374   9.081   4.309 -0.1470  0.1979  0.8015
28738SOL    HW192819   1.465   9.100   4.283  0.0143  1.3833  2.0693
28738SOL    HW292820   1.322   9.146   4.263 -0.3942 -0.6053 -0.0762
28739SOL     OW92821   2.462   8.343  11.663 -0.4125 -0.1667 -0.8519
28739SOL    HW192822   2.371   8.371  11.665 -0.1840  0.5888 -0.6040
28739SOL    HW292823   2.491   8.351  11.754 -0.0279 -0.1381 -0.9763
28740SOL     OW92824  12.665   7.891   6.757  0.1164 -0.0230  0.0082
28740SOL    HW192825  12.757   7.881   6.781 -0.1992  0.2160  1.3840
28740SOL    HW292826  12.632   7.801   6.747  0.3670 -0.1159  0.0326
28741SOL     OW92827   7.172   8.445   1.599 -0.1171 -0.3496  0.1045
28741SOL    HW192828   7.190   8.539   1.606 -1.0162  0.0753 -2.3082
28741SOL    HW292829   7.202   8.421   1.511 -2.6496 -1.6248 -0.5154
28742SOL     OW92830  11.499   6.351  11.320 -0.3770 -0.0656  0.0886
28742SOL    HW192831  11.500   6.260  11.288 -1.3025 -0.0602  0.0352
28742SOL    HW292832  11.412   6.383  11.298  0.3131  1.2162 -0.9429
28743SOL     OW92833   9.071   8.472   6.705 -0.3241 -0.1277  0.2039
28743SOL    HW192834   9.133   8.408   6.741  1.4953  0.3951 -1.7639
28743SOL    HW292835   9.078   8.548   6.763  0.4582 -0.2968  0.3391
28744SOL     OW92836   8.406   7.614   9.299 -0.2051  0.0857  0.1587
28744SOL    HW192837   8.440   7.530   9.332 -2.2938 -0.5973  0.7088
28744SOL    HW292838   8.333   7.635   9.357  0.1742  2.2606 -0.0645
28745SOL     OW92839  12.344   1.041   3.914 -0.3869 -0.0675  0.3028
28745SOL    HW192840  12.334   0.965   3.972  1.1896 -1.0173 -0.5660
28745SOL    HW292841  12.318   1.008   3.828  0.9548  0.1328 -0.2086
28746SOL     OW92842   3.042  11.887   2.656 -0.1695 -0.4765 -0.3170
28746SOL    HW192843   2.973  11.821   2.650  0.4887 -1.1689 -0.4503
28746SOL    HW292844   3.116  11.841   2.697  0.1011  0.3430  0.1380
28747SOL     OW92845  10.301   5.120  12.514 -0.8868 -0.1465  0.1384
28747SOL    HW192846  10.344   5.060  12.574  0.1794 -0.7953 -1.2309
28747SOL    HW292847  10.290   5.201  12.565  1.0567 -0.2925  0.8473
28748SOL     OW92848  12.257   7.288  11.966 -0.8966  0.3991 -0.5670
28748SOL    HW192849  12.231   7.243  11.886  0.9091  0.5364 -1.2757
28748SOL    HW292850  12.342   7.249  11.989  0.1426  2.5501 -0.5376
28749SOL     OW92851   1.106   6.257   5.856  0.0823 -0.0638  0.5295
28749SOL    HW192852   1.196   6.229   5.838  0.2467  1.3498 -1.1563
28749SOL    HW292853   1.111   6.352   5.861 -1.2035 -0.0085  1.3132
28750SOL     OW92854   4.714  11.708   3.929  0.3323  0.0472  0.0416
28750SOL    HW192855   4.770  11.732   4.003  0.2934 -2.3085  0.9293
28750SOL    HW292856   4.628  11.689   3.968  0.1964 -0.8409 -0.6367
28751SOL     OW92857  11.211  12.087   4.136  0.1722 -0.1096 -0.1197
28751SOL    HW192858  11.232  12.178   4.155  0.5133 -0.0458 -0.7795
28751SOL    HW292859  11.264  12.065   4.059  0.5013 -1.0269  0.3555
28752SOL     OW92860  12.277   0.197  11.771 -0.1010  0.3253  0.2150
28752SOL    HW192861  12.371   0.184  11.764 -0.2134 -0.0638 -0.6881
28752SOL    HW292862  12.267   0.263  11.840  0.7205 -1.0140  1.6555
28753SOL     OW92863  10.568   5.862   0.039  0.0516 -0.1264 -1.1979
28753SOL    HW192864  10.476   5.872   0.064  0.1331 -0.6394 -0.6634
28753SOL    HW292865  10.568   5.792  -0.027 -0.1070  0.8965 -2.3129
28754SOL     OW92866   2.884   7.724   2.849 -0.1735 -0.0651 -0.6569
28754SOL    HW192867   2.872   7.686   2.762  0.8954 -0.1000 -0.8062
28754SOL    HW292868   2.942   7.799   2.834  0.1454 -0.1651  0.0439
28755SOL     OW92869   3.381   4.956  11.130  0.2670 -0.0381  0.1197
28755SOL    HW192870   3.289   4.947  11.154  0.1099  1.1307  0.0243
28755SOL    HW292871   3.392   4.898  11.055 -0.1473 -0.9011  0.7158
28756SOL     OW92872   2.595  11.802   0.342 -0.2615 -0.3199  0.2848
28756SOL    HW192873   2.510  11.827   0.306 -0.2483  0.7257  0.9652
28756SOL    HW292874   2.586  11.813   0.436  0.1089 -1.8256  0.5349
28757SOL     OW92875  12.543  12.349  10.202  0.3569 -0.5042  0.0226
28757SOL    HW192876  12.525  12.354  10.296  0.1069  0.8778 -0.0777
28757SOL    HW292877  12.632  12.382  10.192  0.0721  0.1724 -0.3100
28758SOL     OW92878   5.356  11.664   0.843 -0.3822  0.0706 -0.0766
28758SOL    HW192879   5.289  11.634   0.905 -0.4575  1.2992  0.4689
28758SOL    HW292880   5.366  11.591   0.782 -1.3504 -0.6085  0.5361
28759SOL     OW92881   6.271   1.329   5.465 -0.1356 -0.2777  0.6580
28759SOL    HW192882   6.222   1.248   5.450  0.2760 -0.4968  0.4677
28759SOL    HW292883   6.355   1.314   5.421  0.1231  0.0671  1.0315
28760SOL     OW92884   2.437   0.211   1.973 -0.0293 -0.2036  0.2015
28760SOL    HW192885   2.374   0.213   1.901  1.9795 -1.9080 -1.7294
28760SOL    HW292886   2.417   0.290   2.024 -2.3447  0.4023 -1.4892
28761SOL     OW92887   4.052   2.694   9.869 -0.8581 -0.5300  0.2066
28761SOL    HW192888   4.143   2.682   9.897 -0.9310 -1.5452  0.0498
28761SOL    HW292889   4.053   2.672   9.775 -1.3862 -1.2171  0.3558
28762SOL     OW92890   0.258   7.327   5.751  0.1003  0.1604  0.2217
28762SOL    HW192891   0.289   7.353   5.664 -0.7708  0.0898 -0.1187
28762SOL    HW292892   0.338   7.302   5.799  0.4241 -1.8543 -1.2314
28763SOL     OW92893   0.370  12.410   0.575 -0.3001  0.4224  0.0918
28763SOL    HW192894   0.418  12.327   0.573 -0.0880  0.5539 -0.3589
28763SOL    HW292895   0.382  12.447   0.487 -0.2083  1.0311  0.3558
28764SOL     OW92896  10.611   7.895  11.376  0.0737 -0.4249  0.3286
28764SOL    HW192897  10.679   7.913  11.311  0.7109  0.5815  1.2525
28764SOL    HW292898  10.532   7.935  11.340  0.2076 -0.6416 -0.2245
28765SOL     OW92899   2.712   2.907   1.583  0.2546 -0.0469  0.0744
28765SOL    HW192900   2.783   2.964   1.615  0.2101  0.2715 -0.3742
28765SOL    HW292901   2.645   2.912   1.651  1.3140 -1.6461  1.2951
28766SOL     OW92902   8.346   0.938   9.859  0.7591  0.2549 -0.3598
28766SOL    HW192903   8.319   0.941   9.951 -1.2146 -0.5819 -0.8452
28766SOL    HW292904   8.433   0.977   9.858  0.5961  0.8152  1.7726
28767SOL     OW92905   9.152   2.918   3.456 -0.5594  0.3448 -0.2652
28767SOL    HW192906   9.065   2.944   3.486 -0.3025  3.4922 -1.8594
28767SOL    HW292907   9.135   2.845   3.396 -1.9433  0.0992  0.3639
28768SOL     OW92908   0.602   6.245   6.416  0.1153 -0.6344 -0.0418
28768SOL    HW192909   0.627   6.326   6.460  1.1505 -1.1405  0.3320
28768SOL    HW292910   0.556   6.274   6.337  0.9206  0.3252 -0.1724
28769SOL     OW92911   1.116   7.367   7.467 -0.3818 -0.3589  0.0060
28769SOL    HW192912   1.133   7.275   7.450  0.9955  0.0545 -1.0442
28769SOL    HW292913   1.020   7.374   7.469 -0.6141 -1.3295 -2.9441
28770SOL     OW92914   7.050   5.579   2.932  0.2309  0.1129  0.6481
28770SOL    HW192915   7.039   5.671   2.955  0.2858  0.2413  0.1789
28770SOL    HW292916   7.022   5.531   3.009  0.1592  0.5234  0.8800
28771SOL     OW92917   9.889   9.808   5.091 -0.3054  0.3892 -0.3009
28771SOL    HW192918   9.878   9.743   5.022  2.1182  2.1982 -2.6143
28771SOL    HW292919   9.944   9.764   5.156  1.5858  0.0677 -1.9871
28772SOL     OW92920  10.104   6.077   3.904 -0.4494 -0.0306  0.5490
28772SOL    HW192921  10.193   6.098   3.877 -0.5430 -1.4739 -1.0925
28772SOL    HW292922  10.107   6.076   4.000  1.2606  0.0690  0.5256
28773SOL     OW92923   4.182   3.715   3.129  0.6908 -0.2527 -0.1790
28773SOL    HW192924   4.193   3.748   3.218 -0.8939 -0.5649  0.1454
28773SOL    HW292925   4.189   3.620   3.138 -2.4776 -0.5550  0.1643
28774SOL     OW92926   1.430   4.774   8.564 -0.4770  0.6541 -1.0379
28774SOL    HW192927   1.506   4.741   8.517 -2.0001  0.3991 -3.5155
28774SOL    HW292928   1.400   4.849   8.513 -2.0373  0.5793 -0.2977
28775SOL     OW92929   8.314   7.312  10.372  0.0526  0.4562  0.4260
28775SOL    HW192930   8.318   7.278  10.461  1.2118  1.1544  0.6567
28775SOL    HW292931   8.222   7.337  10.360  0.1043  1.4514  1.8574
28776SOL     OW92932   7.302   1.133   6.607 -0.1793  0.2085 -0.1271
28776SOL    HW192933   7.356   1.067   6.650  0.2936 -0.1839 -1.2809
28776SOL    HW292934   7.308   1.112   6.514 -1.7889  0.5695 -0.3453
28777SOL     OW92935   4.316   7.824   3.364  0.1323 -0.3484 -0.0298
28777SOL    HW192936   4.221   7.831   3.372  0.0996 -0.1762 -0.5460
28777SOL    HW292937   4.344   7.787   3.448 -0.4472 -0.9244 -0.0761
28778SOL     OW92938   2.036  10.471   2.212  0.1378  0.3100 -0.0851
28778SOL    HW192939   1.953  10.428   2.230  0.6605  0.1020  1.9951
28778SOL    HW292940   2.102  10.403   2.222  0.6092  0.4991 -1.6103
28779SOL     OW92941   9.406   9.168   4.756 -0.0772 -0.2506  0.2800
28779SOL    HW192942   9.428   9.249   4.802 -1.0637  0.0819  0.1804
28779SOL    HW292943   9.468   9.104   4.791  1.7922  0.8711 -0.7836
28780SOL     OW92944   5.099  12.376   9.847  0.3240 -0.0377 -0.0047
28780SOL    HW192945   5.141  12.454   9.882 -0.0181 -0.5465  1.6068
28780SOL    HW292946   5.166  12.308   9.855  0.0779 -0.2658  0.1089
28781SOL     OW92947   8.846   9.385  12.075 -0.4335  0.5715 -0.1531
28781SOL    HW192948   8.836   9.473  12.038 -1.4235  0.7244  0.4314
28781SOL    HW292949   8.757   9.356  12.092 -0.0535  0.1413  1.2367
28782SOL     OW92950   9.016   1.567   3.210  0.5436  0.1459  0.3782
28782SOL    HW192951   8.924   1.586   3.229  1.0564  1.8704  1.3362
28782SOL    HW292952   9.036   1.491   3.264 -0.7089 -1.2560 -1.0410
28783SOL     OW92953   0.835   4.484   5.038 -0.0672  0.2329  0.3365
28783SOL    HW192954   0.851   4.486   5.132 -0.1643 -0.8794  0.3923
28783SOL    HW292955   0.922   4.491   4.998 -0.0095  0.5041  0.5079
28784SOL     OW92956   9.352   4.052   2.721 -0.3649  0.4678  0.4622
28784SOL    HW192957   9.372   3.974   2.669  0.9653  0.8875  0.3057
28784SOL    HW292958   9.318   4.115   2.658  1.4890  1.0660  0.0111
28785SOL     OW92959   9.601   1.586   6.441  0.5618  0.1639 -0.6287
28785SOL    HW192960   9.586   1.647   6.368  0.0500  1.8267  0.7986
28785SOL    HW292961   9.695   1.566   6.436  0.3702 -0.4694 -2.2528
28786SOL     OW92962   4.803   7.918   5.958 -0.3247  0.0430  0.0581
28786SOL    HW192963   4.759   7.848   6.005  1.7347 -0.0175  2.0888
28786SOL    HW292964   4.743   7.941   5.887 -2.4932 -1.5367  1.2614
28787SOL     OW92965   2.314   3.073   9.040 -0.3657  0.3628 -0.1899
28787SOL    HW192966   2.303   3.158   8.997 -0.7010 -0.1731 -1.2010
28787SOL    HW292967   2.360   3.020   8.975 -1.2081 -0.5830 -0.0376
28788SOL     OW92968   0.162  11.292   8.938 -0.9650  0.2460  0.3880
28788SOL    HW192969   0.094  11.338   8.987 -1.9096 -0.4099 -0.2648
28788SOL    HW292970   0.203  11.359   8.884 -2.0802  0.4135 -0.2912
28789SOL     OW92971   5.621   8.165  11.022  0.4130  0.1059  0.3657
28789SOL    HW192972   5.673   8.201  10.950  1.6645 -0.5175  0.9243
28789SOL    HW292973   5.640   8.221  11.097 -0.2372  0.2587  0.4203
28790SOL     OW92974   4.986  11.023   8.099 -0.4266 -0.2265 -0.6244
28790SOL    HW192975   4.949  11.059   8.017  0.5053  1.3278 -0.4002
28790SOL    HW292976   4.977  10.928   8.089 -0.5571 -0.0724 -2.4362
28791SOL     OW92977   1.873   0.712   6.413  0.1938  0.6474  0.2803
28791SOL    HW192978   1.962   0.680   6.430 -0.8258 -1.2508  2.7067
28791SOL    HW292979   1.844   0.663   6.336  1.2571  1.4168 -0.6496
28792SOL     OW92980   9.510   6.833   2.014 -0.3818  0.1338 -0.1805
28792SOL    HW192981   9.583   6.829   2.075 -0.5587  1.6383  0.1587
28792SOL    HW292982   9.551   6.831   1.927  0.0137  0.4068  0.0011
28793SOL     OW92983  10.499   0.588  10.886 -0.5303  0.2021  0.2212
28793SOL    HW192984  10.461   0.524  10.825  0.0361  0.4865 -0.4406
28793SOL    HW292985  10.466   0.562  10.971  1.9043 -2.7506  0.4314
28794SOL     OW92986   6.340   0.986   3.926 -0.0088 -0.6300 -0.0635
28794SOL    HW192987   6.357   0.970   4.019  1.9169 -1.0428 -0.4316
28794SOL    HW292988   6.245   0.992   3.919 -0.2164 -1.0817  1.8494
28795SOL     OW92989   9.055   1.890   3.917  0.9689  0.2774  0.1426
28795SOL    HW192990   8.981   1.831   3.902  1.5583 -0.4867  0.1838
28795SOL    HW292991   9.093   1.904   3.831  1.1053  0.2277  0.1941
28796SOL     OW92992   0.619   9.586   3.573 -0.2111  0.0653  0.1787
28796SOL    HW192993   0.586   9.672   3.547 -0.0458  0.0328 -0.1396
28796SOL    HW292994   0.602   9.581   3.667 -0.4642  0.3372  0.1492
28797SOL     OW92995   5.730   9.688   1.566  0.4318 -0.3638 -0.0787
28797SOL    HW192996   5.743   9.629   1.640 -2.2785  0.3124  1.0521
28797SOL    HW292997   5.669   9.642   1.509  0.4916  0.1997 -0.6069
28798SOL     OW92998   4.507   6.908   4.950 -0.2232 -1.0284  0.0680
28798SOL    HW192999   4.563   6.837   4.980 -0.6049 -0.7618  1.4638
28798SOL    HW293000   4.564   6.962   4.894  0.3089 -1.9168 -0.2664
28799SOL     OW93001   5.452   3.156   9.279  0.2922  0.0612 -0.2359
28799SOL    HW193002   5.464   3.158   9.374  0.8424 -0.4106 -0.2915
28799SOL    HW293003   5.372   3.104   9.266 -1.2505  2.2249  0.0744
28800SOL     OW93004   6.454   1.691   3.425  0.0168 -0.7418  0.5711
28800SOL    HW193005   6.539   1.660   3.456  0.5474 -0.4381 -0.5558
28800SOL    HW293006   6.403   1.611   3.409  0.3279 -0.9429  0.5867
28801SOL     OW93007   0.723   4.228   7.329  0.3409  0.1247  0.5373
28801SOL    HW193008   0.730   4.141   7.367  1.0692  0.4910  1.2712
28801SOL    HW293009   0.702   4.285   7.403 -0.8416  0.4870 -0.0454
28802SOL     OW93010  10.650  10.838  10.020  0.0477  0.2450 -0.3217
28802SOL    HW193011  10.651  10.925  10.060 -0.2299  0.8327 -1.5451
28802SOL    HW293012  10.667  10.778  10.092  0.5232  1.3345  0.4992
28803SOL     OW93013  10.543   7.462  10.938 -0.2688 -0.2918 -0.0130
28803SOL    HW193014  10.515   7.478  11.028  1.1428  0.7275  0.2791
28803SOL    HW293015  10.581   7.546  10.910 -0.2233 -0.7487 -1.3800
28804SOL     OW93016   4.677   2.823   5.044  0.4154 -0.7444  0.0202
28804SOL    HW193017   4.624   2.744   5.038  1.0550 -1.1312 -0.6563
28804SOL    HW293018   4.618   2.894   5.020  0.4074 -1.2559 -1.5400
28805SOL     OW93019   6.145   1.099   4.776 -0.2472 -0.4622 -0.1866
28805SOL    HW193020   6.140   1.093   4.871  1.6654  1.3202  0.1056
28805SOL    HW293021   6.151   1.193   4.758  0.5703 -0.8140 -1.9842
28806SOL     OW93022   1.486   2.082   7.628  0.0823  0.2563  0.5582
28806SOL    HW193023   1.563   2.046   7.584 -1.5426 -0.5793 -1.8176
28806SOL    HW293024   1.439   2.005   7.659 -0.0145  0.7401  1.6507
28807SOL     OW93025   5.310  12.369   8.355 -0.6656 -0.1498  0.2681
28807SOL    HW193026   5.288  12.290   8.306  1.2610 -0.0253 -0.8876
28807SOL    HW293027   5.229  12.420   8.357 -1.4050 -1.2557 -0.7054
28808SOL     OW93028   9.145   7.138   5.863 -0.2390 -0.1774 -0.2821
28808SOL    HW193029   9.204   7.208   5.838 -0.3740 -0.0276 -0.1892
28808SOL    HW293030   9.162   7.067   5.801 -1.1518  0.4834 -1.3344
28809SOL     OW93031   7.841   8.584   1.351 -0.3380  0.1327 -0.1050
28809SOL    HW193032   7.867   8.656   1.294  2.3153  2.4504  3.6235
28809SOL    HW293033   7.917   8.526   1.353 -0.8094 -0.4901  0.2394
28810SOL     OW93034  12.374   3.472   9.823  0.3863 -0.1217 -0.4627
28810SOL    HW193035  12.281   3.457   9.804  0.0097 -1.1108  1.8747
28810SOL    HW293036  12.420   3.408   9.770 -0.2824 -0.0255 -1.1869
28811SOL     OW93037  12.416   7.508   3.136 -0.0895  0.4978 -0.5239
28811SOL    HW193038  12.446   7.465   3.056 -0.1805  0.6872 -0.6589
28811SOL    HW293039  12.482   7.484   3.202 -1.3149 -1.7763  0.0034
28812SOL     OW93040  11.261   2.231   3.206  0.0361  0.0642 -0.2478
28812SOL    HW193041  11.298   2.185   3.131  1.0465  0.4047  0.0383
28812SOL    HW293042  11.302   2.317   3.205 -0.1409  0.1694  0.5421
28813SOL     OW93043   9.469  12.774   5.069  0.5589  0.5017 -0.4322
28813SOL    HW193044   9.557  12.811   5.074  0.2747  1.5618 -2.2617
28813SOL    HW293045   9.419  12.838   5.017 -1.2053 -0.2378  0.2609
28814SOL     OW93046   6.818   3.689   6.379 -0.2993  0.2406  0.1871
28814SOL    HW193047   6.804   3.632   6.303  0.0705  2.4980 -1.7098
28814SOL    HW293048   6.762   3.652   6.447 -2.0296 -0.9173 -1.7383
28815SOL     OW93049   5.199   7.282   8.608  0.6857  0.0575 -0.5049
28815SOL    HW193050   5.191   7.271   8.703 -0.9626  0.8258 -0.5181
28815SOL    HW293051   5.110   7.267   8.575  1.1808  0.0984 -1.8973
28816SOL     OW93052  10.199   7.369   7.434 -0.0529  0.0783  0.1511
28816SOL    HW193053  10.132   7.330   7.491  0.2610  1.5816  1.6361
28816SOL    HW293054  10.156   7.380   7.350 -1.0259 -0.8208  0.5074
28817SOL     OW93055   7.268   0.185  10.140 -0.3987  0.3390 -0.3166
28817SOL    HW193056   7.257   0.145  10.053 -0.6796 -2.2123  0.7807
28817SOL    HW293057   7.342   0.244  10.130  0.8900 -1.3932 -1.8678
28818SOL     OW93058  11.534   8.631   6.591 -0.4954  0.3310  0.2482
28818SOL    HW193059  11.574   8.573   6.656  0.1335 -0.2305 -0.6115
28818SOL    HW293060  11.447   8.595   6.576  0.1328 -0.8305 -0.7749
28819SOL     OW93061  10.200   2.822   3.321  0.0985  0.1739 -0.0768
28819SOL    HW193062  10.120   2.846   3.367 -0.6560 -0.4945 -1.0019
28819SOL    HW293063  10.175   2.820   3.229  1.6747  1.8863 -0.5933
28820SOL     OW93064   7.282   1.976   3.099  0.4064  0.3132  0.3701
28820SOL    HW193065   7.287   2.004   3.190  0.8673  3.1587 -0.4430
28820SOL    HW293066   7.213   2.030   3.061  1.5028  0.5528 -1.3779
28821SOL     OW93067   5.050  11.251   4.483  0.2223  0.5295 -0.7553
28821SOL    HW193068   4.990  11.306   4.534 -0.2435 -1.2852  0.7413
28821SOL    HW293069   4.995  11.212   4.415 -0.1419 -0.4472  0.0765
28822SOL     OW93070  10.734   4.315   2.920 -0.1593 -0.3231 -0.2618
28822SOL    HW193071  10.811   4.300   2.865 -1.9902 -0.8705 -2.8558
28822SOL    HW293072  10.697   4.228   2.933 -1.7543  0.1658 -1.3050
28823SOL     OW93073   4.674   2.578   4.140 -0.1481  0.1569  0.5114
28823SOL    HW193074   4.592   2.565   4.093  1.1025 -2.2328 -1.2517
28823SOL    HW293075   4.674   2.670   4.164 -2.5237  0.6286 -0.9596
28824SOL     OW93076   2.649   1.735   2.318 -0.0059 -0.4338  0.6168
28824SOL    HW193077   2.610   1.802   2.263  3.6823 -0.3946 -2.2768
28824SOL    HW293078   2.648   1.773   2.406  0.4113  2.6833 -0.6163
28825SOL     OW93079   0.074   5.310   4.697  0.3983  0.4009  0.0625
28825SOL    HW193080   0.013   5.324   4.769  1.1143  0.3447  0.6872
28825SOL    HW293081   0.148   5.264   4.737  0.4423 -0.3598 -0.8694
28826SOL     OW93082   4.635   7.972   7.161 -0.3979  0.0224 -0.1721
28826SOL    HW193083   4.569   7.911   7.195 -0.9805  0.5143 -0.4007
28826SOL    HW293084   4.687   7.996   7.238 -0.8821  0.1097  0.1321
28827SOL     OW93085   6.891   3.538   0.341  0.3390 -0.2293  0.6440
28827SOL    HW193086   6.879   3.443   0.343 -3.2754  0.1185  1.3014
28827SOL    HW293087   6.886   3.561   0.248  1.7881 -0.6744  0.4305
28828SOL     OW93088   2.423   0.991   6.883 -0.0030 -0.0063  0.2894
28828SOL    HW193089   2.484   0.917   6.872  0.9461  0.9925 -1.5927
28828SOL    HW293090   2.346   0.966   6.833  0.9884  0.9183 -1.8368
28829SOL     OW93091   2.571   2.895   9.444  0.4347  0.1046  0.4642
28829SOL    HW193092   2.663   2.921   9.436  0.7175 -1.1922 -0.7618
28829SOL    HW293093   2.543   2.877   9.355 -0.9723  0.2743  0.8488
28830SOL     OW93094   7.932   7.010   1.982 -0.3689  0.2211 -0.1062
28830SOL    HW193095   7.883   6.929   1.969 -1.2195  0.7921 -0.4801
28830SOL    HW293096   8.022   6.981   1.996 -0.5921 -0.7632 -0.6588
28831SOL     OW93097   6.481   3.870   2.598 -0.8537 -0.5497  0.2985
28831SOL    HW193098   6.535   3.795   2.621 -0.0312  0.5108  2.0236
28831SOL    HW293099   6.506   3.890   2.508  2.0244  0.1433  1.1341
28832SOL     OW93100  10.450   1.303  11.517  0.3799 -0.3326 -0.5023
28832SOL    HW193101  10.380   1.267  11.463 -0.0551 -0.9623  0.4629
28832SOL    HW293102  10.405   1.352  11.586  0.7569 -2.4495  1.3541
28833SOL     OW93103   0.341   2.540  11.384 -0.0426  0.0176  0.3467
28833SOL    HW193104   0.289   2.473  11.429  0.5111 -0.4317  0.3281
28833SOL    HW293105   0.286   2.569  11.312  0.0448 -1.0383 -0.1657
28834SOL     OW93106   2.272   4.970  11.354  0.4933 -0.0629  0.0509
28834SOL    HW193107   2.286   4.875  11.349  0.3633 -0.0493 -0.7963
28834SOL    HW293108   2.296   5.002  11.267  2.8097  1.0157  1.0297
28835SOL     OW93109   9.218   7.146  10.634 -0.2143 -0.0121 -0.7795
28835SOL    HW193110   9.176   7.229  10.655 -0.3399 -0.0591 -0.8427
28835SOL    HW293111   9.201   7.133  10.540  0.0476  0.0303 -0.8330
28836SOL     OW93112   6.826   8.450   2.148  0.5472  0.0816 -0.6689
28836SOL    HW193113   6.749   8.506   2.162  2.1110  2.3434 -0.7373
28836SOL    HW293114   6.832   8.398   2.228 -2.1043 -1.6018 -1.4151
28837SOL     OW93115   7.534   5.078   1.591 -0.5612  0.3377  0.2943
28837SOL    HW193116   7.554   5.005   1.532  0.8761  0.1704  0.9512
28837SOL    HW293117   7.439   5.075   1.601 -0.7658  0.0184 -1.5382
28838SOL     OW93118   1.015   1.396   2.526 -0.6249 -0.5676  0.2426
28838SOL    HW193119   1.094   1.349   2.498 -0.8550 -0.5411 -0.4718
28838SOL    HW293120   1.047   1.473   2.572 -0.2166 -0.1028 -0.7927
28839SOL     OW93121  10.012   0.319   7.528  0.6631 -0.5867 -0.2732
28839SOL    HW193122   9.937   0.333   7.585  0.6771 -0.5791 -0.2571
28839SOL    HW293123   9.991   0.370   7.449  0.0283 -1.6597 -0.8274
28840SOL     OW93124   7.692   7.145   0.379  0.5824  0.1276 -0.4912
28840SOL    HW193125   7.682   7.232   0.418 -0.8247 -0.3224  0.2148
28840SOL    HW293126   7.687   7.160   0.285 -0.1720  0.7726 -0.3624
28841SOL     OW93127  10.003   9.024   0.790 -0.2819 -0.4072 -0.3652
28841SOL    HW193128  10.007   8.937   0.751  0.7123 -1.1257  1.2537
28841SOL    HW293129  10.047   9.015   0.875 -1.1021  1.4190  0.3113
28842SOL     OW93130  11.625   6.625   5.243  0.1489 -0.5196  0.2500
28842SOL    HW193131  11.634   6.532   5.222 -0.1317 -0.5010  0.0486
28842SOL    HW293132  11.677   6.669   5.176  1.6571 -0.6087  1.3063
28843SOL     OW93133   4.464   3.667   5.831 -0.0787  0.3072 -0.4304
28843SOL    HW193134   4.497   3.616   5.757  0.2979  0.5244 -0.4204
28843SOL    HW293135   4.381   3.626   5.855 -0.0227  0.0128 -0.7404
28844SOL     OW93136   4.611   3.112   3.136 -0.3897 -0.5009 -0.3833
28844SOL    HW193137   4.618   3.061   3.056 -0.7338 -0.6188 -0.3375
28844SOL    HW293138   4.687   3.171   3.134 -1.3967  0.8141 -1.7098
28845SOL     OW93139   6.890   0.586   8.155 -0.3924  0.6053  0.2975
28845SOL    HW193140   6.936   0.580   8.239  0.9031  2.0557 -0.2700
28845SOL    HW293141   6.798   0.576   8.178  0.1010 -1.8484  1.5351
28846SOL     OW93142  11.235   8.394   0.359  0.2723  0.3364  0.2189
28846SOL    HW193143  11.304   8.372   0.296 -0.7323 -0.2446 -0.7209
28846SOL    HW293144  11.206   8.481   0.333 -0.5952 -0.1677 -0.5820
28847SOL     OW93145   4.754   9.404   0.091 -0.3536 -0.0741  0.3949
28847SOL    HW193146   4.742   9.430   0.182 -0.2965  1.6404 -0.0406
28847SOL    HW293147   4.712   9.318   0.084 -0.1923 -0.3261  2.0623
28848SOL     OW93148   0.936  11.715   0.428  0.3281  0.2380  0.1670
28848SOL    HW193149   1.006  11.659   0.395  0.7014 -0.0191  1.3624
28848SOL    HW293150   0.951  11.799   0.385  0.2827 -0.3153 -0.9671
28849SOL     OW93151   6.922   7.732  12.040  0.2085  1.0465 -0.0316
28849SOL    HW193152   6.841   7.773  12.071 -0.8141 -1.3239  0.6476
28849SOL    HW293153   6.905   7.712  11.948 -1.3561 -2.3051  0.8440
28850SOL     OW93154   4.350  11.219   2.828  0.2839  0.6797  0.0503
28850SOL    HW193155   4.355  11.270   2.909 -1.0886  1.2642 -0.1943
28850SOL    HW293156   4.357  11.128   2.856 -1.7644  0.7740  1.0477
28851SOL     OW93157   7.422   1.836   4.652 -0.4192  0.4269  0.1976
28851SOL    HW193158   7.350   1.800   4.601  0.7615 -0.4761 -0.9127
28851SOL    HW293159   7.430   1.927   4.622 -1.9767  1.0065  1.3854
28852SOL     OW93160   4.500  11.328  11.257  0.0825  0.0665 -0.1448
28852SOL    HW193161   4.544  11.275  11.323 -0.1636 -0.1188 -0.1261
28852SOL    HW293162   4.543  11.306  11.175  0.1503  0.0308 -0.0999
28853SOL     OW93163  10.863   7.996   1.857 -0.1073 -0.0454 -0.6161
28853SOL    HW193164  10.861   7.901   1.842 -1.9863  0.2027 -2.3168
28853SOL    HW293165  10.771   8.020   1.870  0.4371  1.4331  0.8744
28854SOL     OW93166  10.119   8.685  11.152  0.0602  0.0891 -0.1946
28854SOL    HW193167  10.167   8.637  11.084 -1.5522 -0.6095 -0.9072
28854SOL    HW293168  10.031   8.648  11.148 -0.5176  1.2653  1.1123
28855SOL     OW93169  10.197   6.544  10.612 -0.4612 -0.5205 -0.1981
28855SOL    HW193170  10.220   6.486  10.684 -0.2764 -1.5108 -1.0373
28855SOL    HW293171  10.281   6.563  10.569 -0.6846 -0.7335 -0.7383
28856SOL     OW93172   8.094   4.586  11.738  0.0815  0.9189  0.6566
28856SOL    HW193173   8.030   4.515  11.741  0.0782  0.7680 -1.4517
28856SOL    HW293174   8.175   4.543  11.710  0.1743  1.6499 -0.2626
28857SOL     OW93175  12.077  12.586   5.377 -0.3549 -0.0030 -0.4333
28857SOL    HW193176  11.995  12.601   5.424  0.1221  1.7501 -0.1007
28857SOL    HW293177  12.056  12.602   5.285 -0.7390 -1.1535 -0.5649
28858SOL     OW93178   2.410   9.260   6.354 -0.1566 -0.0911  0.4832
28858SOL    HW193179   2.465   9.196   6.400  0.5464 -0.3501 -0.6798
28858SOL    HW293180   2.472   9.322   6.317 -0.7160  0.1937  0.0154
28859SOL     OW93181  10.143  11.985   1.396 -0.1887  0.5662  0.0450
28859SOL    HW193182  10.230  11.956   1.373  1.1246  4.5662 -0.8422
28859SOL    HW293183  10.088  11.962   1.321  0.7775  0.5689 -0.6739
28860SOL     OW93184   1.243   0.781   3.412 -0.3720  0.2557  0.0144
28860SOL    HW193185   1.184   0.814   3.480 -2.3546  0.1408 -1.5622
28860SOL    HW293186   1.192   0.714   3.367  0.1374  1.5878 -2.7494
28861SOL     OW93187   3.961   1.614   7.460  0.5042 -0.1019  0.2229
28861SOL    HW193188   3.941   1.682   7.395 -0.4695 -1.4393 -0.9348
28861SOL    HW293189   4.052   1.630   7.485  0.0940  2.0678  0.5511
28862SOL     OW93190   6.863   5.883   8.273  0.2151 -0.4821  0.1915
28862SOL    HW193191   6.882   5.795   8.238 -1.0427 -1.1077  1.0118
28862SOL    HW293192   6.807   5.923   8.207  0.6070 -0.3747 -0.0782
28863SOL     OW93193  12.760  12.466  10.261 -0.6752  0.1100 -0.2516
28863SOL    HW193194  12.769  12.460  10.356 -1.2506  0.1973 -0.1864
28863SOL    HW293195  12.785  12.557  10.240  0.5035 -0.2075 -0.3220
28864SOL     OW93196   4.864   9.448   9.098 -0.2212  0.4704  0.1994
28864SOL    HW193197   4.787   9.399   9.067 -0.3695 -0.4765  1.9665
28864SOL    HW293198   4.833   9.539   9.104 -1.0522  0.1798  0.4083
28865SOL     OW93199  10.131   2.066   2.075  0.1315 -0.1452  0.2034
28865SOL    HW193200  10.129   2.012   2.153 -1.7370  0.1714  0.4226
28865SOL    HW293201  10.154   2.006   2.004 -2.1073 -1.3552  0.4017
28866SOL     OW93202   0.995   0.312  10.057  0.3351 -0.1874 -0.3019
28866SOL    HW193203   1.020   0.229  10.016 -0.7264 -1.1176  0.8495
28866SOL    HW293204   0.973   0.369   9.983  0.7115 -1.0483 -1.1069
28867SOL     OW93205   2.044   5.026   1.994 -0.2266 -0.3543  0.0830
28867SOL    HW193206   2.123   5.042   1.942  0.6772 -0.4624  1.3635
28867SOL    HW293207   2.034   4.930   1.992 -0.5711 -0.3107 -0.4137
28868SOL     OW93208  11.071   2.961   1.185  0.1547 -0.2918  0.0937
28868SOL    HW193209  11.104   3.050   1.188  0.4539 -0.2884 -1.9926
28868SOL    HW293210  11.032   2.947   1.272 -0.3770  2.0171  0.2843
28869SOL     OW93211   8.824   8.316  11.871  0.3371  0.3262 -0.1258
28869SOL    HW193212   8.902   8.272  11.906  0.8106  1.0947 -0.1904
28869SOL    HW293213   8.837   8.408  11.893 -1.3914  0.2596  1.4287
28870SOL     OW93214   3.497   0.269  12.603 -0.2877 -0.3410  0.1784
28870SOL    HW193215   3.440   0.198  12.573  0.7409 -1.9227  1.7314
28870SOL    HW293216   3.447   0.349  12.587 -1.4460 -1.3590 -1.7867
28871SOL     OW93217  12.719   5.122   6.250  0.2953  0.1500  0.3943
28871SOL    HW193218  12.638   5.158   6.213 -0.1119 -2.1199 -1.1305
28871SOL    HW293219  12.780   5.196   6.251 -1.5759  1.7702  1.0064
28872SOL     OW93220  12.523   4.026  12.337 -0.0507  0.2963 -0.1524
28872SOL    HW193221  12.442   4.029  12.387  1.0496  0.3974  1.7452
28872SOL    HW293222  12.535   4.115  12.304 -1.0427  0.1099 -1.0536
28873SOL     OW93223   9.550   1.942   0.349 -0.2078 -0.8921 -0.1082
28873SOL    HW193224   9.493   1.889   0.294  0.2619 -0.0454 -1.4593
28873SOL    HW293225   9.638   1.908   0.332 -0.0415 -0.5138 -0.0140
28874SOL     OW93226   2.124   1.922   1.309  0.0536  0.3878 -0.1294
28874SOL    HW193227   2.030   1.920   1.323  0.3473  0.2647  2.2011
28874SOL    HW293228   2.139   2.002   1.259 -1.2710  0.3242 -0.6740
28875SOL     OW93229   7.935   3.616   4.257  0.2209  0.0877  0.0220
28875SOL    HW193230   8.022   3.637   4.292  1.1933 -0.2753 -2.0076
28875SOL    HW293231   7.919   3.526   4.285  0.3652  0.2534  0.6531
28876SOL     OW93232  12.012   6.748   6.639 -0.0779  0.2919  0.3948
28876SOL    HW193233  11.938   6.793   6.599 -0.6336 -1.3171 -0.4930
28876SOL    HW293234  12.077   6.816   6.653 -0.9941  1.4162 -0.5959
28877SOL     OW93235   3.454   9.636   7.217  0.3097  0.3246 -0.1097
28877SOL    HW193236   3.435   9.603   7.129 -0.4315 -0.5145  0.3536
28877SOL    HW293237   3.469   9.730   7.204 -0.8252  0.4141 -0.9926
28878SOL     OW93238   4.106   3.279  10.307  0.1445 -0.1338 -0.2795
28878SOL    HW193239   4.195   3.294  10.339  0.2238  2.2903 -1.4285
28878SOL    HW293240   4.100   3.332  10.227 -2.4947  0.2188  0.0755
28879SOL     OW93241   3.264   4.528   8.432  0.2119 -0.1667  0.5156
28879SOL    HW193242   3.311   4.611   8.426  0.9014 -0.5551  0.3678
28879SOL    HW293243   3.310   4.470   8.372 -0.8349 -0.3984 -0.0741
28880SOL     OW93244   6.172   5.974   1.270 -0.8234  0.5850  0.1602
28880SOL    HW193245   6.240   5.930   1.219 -1.0246  0.0465  0.3552
28880SOL    HW293246   6.095   5.972   1.214 -0.6355  1.3769 -0.1449
28881SOL     OW93247   6.973   0.813  12.496 -0.3025  0.4650 -0.5883
28881SOL    HW193248   6.908   0.881  12.517 -1.3045 -0.7066  0.3195
28881SOL    HW293249   7.057   0.854  12.514 -0.9198  1.2027  0.8361
28882SOL     OW93250   0.612   2.767   4.724  0.4602 -0.1748  0.0195
28882SOL    HW193251   0.598   2.834   4.658 -0.5753 -0.0216  0.3713
28882SOL    HW293252   0.560   2.796   4.799  0.3903 -1.1190  0.3523
28883SOL     OW93253   5.115   4.809   2.305  0.0234 -0.2291 -0.3529
28883SOL    HW193254   5.041   4.828   2.247  0.2661 -0.2195 -0.6636
28883SOL    HW293255   5.080   4.746   2.368 -0.3543  0.0660 -0.2623
28884SOL     OW93256   1.059   2.759   4.501 -0.4606  0.2739 -0.4888
28884SOL    HW193257   0.997   2.687   4.513 -0.1002 -0.1796 -1.2194
28884SOL    HW293258   1.103   2.739   4.418  0.8453  0.4355  0.1327
28885SOL     OW93259  11.107   7.075   9.296 -0.5871 -0.1109  0.5278
28885SOL    HW193260  11.084   7.002   9.354 -1.7416  0.5287  0.9177
28885SOL    HW293261  11.203   7.078   9.298 -0.5750 -0.4900  1.9373
28886SOL     OW93262   0.661   0.083  11.841 -0.0563 -0.1813 -0.0883
28886SOL    HW193263   0.665   0.033  11.923 -0.4503  0.2507  0.1938
28886SOL    HW293264   0.656   0.174  11.869 -0.5966 -0.0580 -0.5931
28887SOL     OW93265  10.200   0.236   6.769 -0.2803 -0.4786 -0.4173
28887SOL    HW193266  10.129   0.295   6.743 -1.4197 -1.4716  0.3413
28887SOL    HW293267  10.276   0.266   6.719 -0.6698  1.9616  0.3411
28888SOL     OW93268   8.579   5.862  11.024  0.3803 -0.0371  0.4166
28888SOL    HW193269   8.647   5.914  10.981 -0.9413  1.7793  0.4113
28888SOL    HW293270   8.600   5.868  11.117  0.5469  0.0175  0.3760
28889SOL     OW93271   0.801   6.188   2.463 -0.3526 -0.3396 -0.3163
28889SOL    HW193272   0.831   6.203   2.374  0.5291 -0.9286 -0.1410
28889SOL    HW293273   0.783   6.094   2.466  0.0312 -0.4009  0.2354
28890SOL     OW93274   7.569   8.841   7.127 -0.0687 -0.4796  0.5081
28890SOL    HW193275   7.528   8.879   7.049  0.6719 -0.6215  0.0291
28890SOL    HW293276   7.497   8.820   7.186 -0.7073 -1.0024 -0.4313
28891SOL     OW93277   2.109   0.447  10.026 -0.2003 -0.2669 -0.0360
28891SOL    HW193278   2.171   0.377  10.044 -2.4483 -2.8109 -1.3247
28891SOL    HW293279   2.023   0.404  10.030 -1.8800  2.8523  0.8546
28892SOL     OW93280   8.516   6.522   0.300  0.6819  0.2034  0.0353
28892SOL    HW193281   8.506   6.441   0.351  1.1436  0.5774  0.7329
28892SOL    HW293282   8.607   6.522   0.272  0.3868 -0.0876 -0.9662
28893SOL     OW93283   0.548   9.833  11.360 -0.7839 -0.0853  0.2840
28893SOL    HW193284   0.586   9.916  11.387 -1.2998  0.0420  0.6364
28893SOL    HW293285   0.546   9.836  11.265  0.8363 -0.4318  0.2126
28894SOL     OW93286   0.276   2.628   1.552  0.4717  0.3516 -0.2718
28894SOL    HW193287   0.235   2.602   1.469  0.8690 -2.6112  0.3676
28894SOL    HW293288   0.203   2.633   1.614  0.2882  1.7471 -0.5583
28895SOL     OW93289   8.631   8.166  10.300  0.3960 -0.0640  0.0130
28895SOL    HW193290   8.561   8.231  10.296  2.2065  1.9519 -0.8877
28895SOL    HW293291   8.623   8.117  10.218 -0.4146 -0.3643  0.2672
28896SOL     OW93292   2.098   4.144   0.329  0.4445 -0.1704 -0.3492
28896SOL    HW193293   2.162   4.215   0.333 -0.1186  0.3153  0.2283
28896SOL    HW293294   2.131   4.078   0.390 -0.6120  0.9537  1.5502
28897SOL     OW93295   8.925   7.435   7.645  0.3925 -0.3339  0.4006
28897SOL    HW193296   8.898   7.343   7.638 -1.1553  0.1947 -1.0684
28897SOL    HW293297   8.913   7.456   7.737 -1.2154 -1.0415  0.3778
28898SOL     OW93298   8.620   9.806   0.761 -0.1093  0.7296  0.1780
28898SOL    HW193299   8.710   9.823   0.789 -0.3054 -0.7788  1.9804
28898SOL    HW293300   8.567   9.868   0.812 -0.1810  0.6276  0.2299
28899SOL     OW93301   2.719   5.737   3.486  0.2862  0.1103  0.4839
28899SOL    HW193302   2.747   5.661   3.537 -1.0811 -1.1284 -0.5422
28899SOL    HW293303   2.799   5.768   3.444  0.8671 -0.7621  0.9051
28900SOL     OW93304   4.605   1.343   6.923  0.0280  0.3616  0.1353
28900SOL    HW193305   4.643   1.388   6.998 -0.5461 -0.0892  0.7000
28900SOL    HW293306   4.516   1.378   6.916 -0.4776 -0.7680  0.6669
28901SOL     OW93307   0.419   7.044   3.795 -0.1763  0.7943 -0.6363
28901SOL    HW193308   0.444   6.952   3.806  1.9184  1.2558 -1.0806
28901SOL    HW293309   0.324   7.045   3.809 -0.2058 -1.3741 -0.3263
28902SOL     OW93310   2.130   4.305   8.300 -0.3454 -0.2208  0.5589
28902SOL    HW193311   2.128   4.213   8.274  0.4878 -0.1856  0.3627
28902SOL    HW293312   2.191   4.308   8.374 -0.2134  0.2087  0.4355
28903SOL     OW93313  12.739  12.276   4.191  0.5239  0.8867 -0.2352
28903SOL    HW193314  12.747  12.257   4.285 -0.0942  0.4438 -0.2700
28903SOL    HW293315  12.814  12.232   4.151 -0.7755 -1.3932 -0.2971
28904SOL     OW93316   3.709   4.492  10.882 -0.0797  0.2120 -0.3393
28904SOL    HW193317   3.636   4.445  10.925 -1.5076  0.7052 -2.1181
28904SOL    HW293318   3.741   4.431  10.816 -0.3036  0.8006 -0.9987
28905SOL     OW93319  11.357   8.692   0.663  0.2179  0.3028  0.6175
28905SOL    HW193320  11.412   8.649   0.598  0.2898 -0.1751  0.9849
28905SOL    HW293321  11.399   8.672   0.747 -1.1203 -1.0582  1.0142
28906SOL     OW93322   2.670  12.510   7.057 -0.2420 -0.2828  0.2034
28906SOL    HW193323   2.713  12.593   7.036 -0.6789  0.0388  0.5479
28906SOL    HW293324   2.590  12.536   7.103 -1.4380 -0.8033 -1.4661
28907SOL     OW93325   9.641  10.055   4.490 -0.1495 -0.7964 -0.3762
28907SOL    HW193326   9.629   9.963   4.466  0.0047 -0.7131 -0.7847
28907SOL    HW293327   9.612  10.104   4.414 -0.4183 -0.4972 -0.0848
28908SOL     OW93328  12.201   1.942   5.937 -0.5812 -0.1291  0.5564
28908SOL    HW193329  12.292   1.929   5.963 -1.0652 -2.8944  1.2432
28908SOL    HW293330  12.158   1.972   6.017 -0.7362 -1.5789  1.0522
28909SOL     OW93331   5.818   6.407   0.395 -0.2770 -0.5835 -0.3910
28909SOL    HW193332   5.841   6.364   0.478  0.5589  0.7539  0.0997
28909SOL    HW293333   5.726   6.431   0.406  0.0574  0.3677  0.5385
28910SOL     OW93334   7.956   9.088  12.724  0.2317  0.2447  0.1404
28910SOL    HW193335   7.882   9.087  12.785  2.2721  1.0796  2.7988
28910SOL    HW293336   7.990   8.999  12.726  0.3301  0.2849  0.2827
28911SOL     OW93337  10.033   0.994   9.742 -0.3656 -0.0562 -0.2852
28911SOL    HW193338   9.941   1.005   9.765  0.1593  1.5122  1.2762
28911SOL    HW293339  10.032   0.965   9.650 -2.4039 -0.8381 -0.0600
28912SOL     OW93340   3.615   3.068   5.214  0.1913 -0.2678 -0.1159
28912SOL    HW193341   3.676   3.137   5.242  0.1087  0.3488 -1.3581
28912SOL    HW293342   3.620   3.002   5.283  1.0768  0.4973  0.5861
28913SOL     OW93343   6.821  11.457   9.395  0.1809 -0.3446  0.1341
28913SOL    HW193344   6.838  11.466   9.301  1.7425  0.5920  0.4601
28913SOL    HW293345   6.904  11.425   9.431 -0.5536 -1.1635  1.1403
28914SOL     OW93346   2.678   5.312   8.512 -0.0796 -0.1036  0.1477
28914SOL    HW193347   2.677   5.277   8.601 -0.5396 -0.5324 -0.0224
28914SOL    HW293348   2.633   5.246   8.460  0.9498 -0.2604 -0.5550
28915SOL     OW93349   7.624   9.794  10.859  0.7938  0.0924 -0.1460
28915SOL    HW193350   7.651   9.875  10.902 -2.1284  0.4033  1.3603
28915SOL    HW293351   7.637   9.726  10.926 -2.7527  0.4128  1.0887
28916SOL     OW93352  12.579   6.388  11.091  0.3328 -0.7009  0.1597
28916SOL    HW193353  12.509   6.437  11.133 -0.1024 -0.3419 -0.9632
28916SOL    HW293354  12.627   6.347  11.164  0.0579  0.5129  1.0443
28917SOL     OW93355   2.580   3.839  10.060  0.4956 -0.4838 -0.2210
28917SOL    HW193356   2.537   3.838   9.975 -1.3576  1.8243  0.5925
28917SOL    HW293357   2.527   3.779  10.114  1.4802 -1.6949 -0.5424
28918SOL     OW93358   1.779   6.758   2.626  0.3093 -0.2602 -0.3588
28918SOL    HW193359   1.842   6.823   2.657  0.0624 -0.4091  0.4911
28918SOL    HW293360   1.769   6.698   2.700 -1.2603  0.0790 -0.2613
28919SOL     OW93361  10.866   8.685   7.616 -0.7120  0.4817 -0.8254
28919SOL    HW193362  10.780   8.717   7.646 -1.0039 -0.3547 -0.7565
28919SOL    HW293363  10.846   8.613   7.557 -0.0525  0.1014 -0.5992
28920SOL     OW93364  10.170   3.929   8.601 -0.4350 -0.2601  0.5361
28920SOL    HW193365  10.171   4.008   8.546 -1.1936  0.0436  0.9464
28920SOL    HW293366  10.103   3.946   8.667  0.1214 -0.8278  1.2687
28921SOL     OW93367  12.008   7.349   2.988  0.0372  0.7168 -0.0474
28921SOL    HW193368  12.029   7.423   3.045  1.5160  0.0752  0.3080
28921SOL    HW293369  11.980   7.280   3.048 -0.7420  0.7924 -0.3216
28922SOL     OW93370   6.416  11.926   7.398 -0.1745  0.2352  0.3217
28922SOL    HW193371   6.341  11.978   7.427 -1.1441 -0.2787 -1.1548
28922SOL    HW293372   6.382  11.874   7.325  0.9046 -2.1281  1.4222
28923SOL     OW93373   0.627   5.295  11.094  0.8545  0.4338 -0.6721
28923SOL    HW193374   0.534   5.275  11.100  0.8252  0.9347  2.1779
28923SOL    HW293375   0.640   5.326  11.004 -1.5952 -0.1403 -1.2868
28924SOL     OW93376  11.709   6.540   2.986  0.2389 -0.5606  0.0254
28924SOL    HW193377  11.775   6.517   2.920  2.5079  1.3375  1.4806
28924SOL    HW293378  11.738   6.494   3.065  1.1366  1.8995  1.2260
28925SOL     OW93379   6.982  12.028   5.016  0.0814 -0.1637 -0.2282
28925SOL    HW193380   6.929  12.107   5.007  0.3198 -0.0138 -0.3424
28925SOL    HW293381   6.959  11.974   4.940  0.6716  0.2508 -0.7117
28926SOL     OW93382   9.533   9.298   8.785 -0.5506  0.0958  0.4011
28926SOL    HW193383   9.515   9.365   8.719 -1.8965  0.8944  1.5100
28926SOL    HW293384   9.561   9.222   8.736 -1.0398  0.8220 -1.0489
28927SOL     OW93385   4.732   3.777   7.757  0.2125  0.1187 -0.0492
28927SOL    HW193386   4.700   3.787   7.667 -0.5601  2.8252  0.4200
28927SOL    HW293387   4.653   3.783   7.810  0.4583 -3.0534  0.8324
28928SOL     OW93388   8.154   8.432   8.544 -0.4187  0.5649  0.2189
28928SOL    HW193389   8.152   8.528   8.549 -0.0674  0.5110  1.9512
28928SOL    HW293390   8.144   8.413   8.451  3.0016  2.3953 -0.6936
28929SOL     OW93391   4.367   3.709   0.478  0.3005 -0.1303 -0.7060
28929SOL    HW193392   4.429   3.712   0.404 -2.2334 -2.6746 -3.2223
28929SOL    HW293393   4.316   3.789   0.470  1.0116  0.3187 -0.7994
28930SOL     OW93394   3.433   0.805   3.770 -0.0675 -0.0864 -0.4231
28930SOL    HW193395   3.386   0.817   3.687  0.0239 -0.8762 -0.6015
28930SOL    HW293396   3.461   0.713   3.767 -0.4248 -0.2366  0.6766
28931SOL     OW93397   1.447   0.662   0.983  0.4010  0.3042 -0.2406
28931SOL    HW193398   1.437   0.744   0.935  3.1773  1.4367  0.8635
28931SOL    HW293399   1.422   0.684   1.073  0.2644 -0.3276 -0.1190
28932SOL     OW93400  12.147  11.266   9.627 -0.3317 -0.1144  1.0234
28932SOL    HW193401  12.213  11.259   9.558 -2.0803 -1.0689 -0.6754
28932SOL    HW293402  12.149  11.358   9.652  0.5993  0.1956 -0.0771
28933SOL     OW93403   9.857   6.479   7.245  0.1666 -0.1731  0.2362
28933SOL    HW193404   9.874   6.562   7.289  0.7591  0.2639 -0.7885
28933SOL    HW293405   9.944   6.448   7.220 -0.0757 -0.9513  0.3361
28934SOL     OW93406   5.967   5.382   7.091  0.7193  0.2378 -0.1546
28934SOL    HW193407   6.014   5.302   7.114  0.3549 -0.3053 -1.2302
28934SOL    HW293408   5.980   5.392   6.997  1.0450  1.6485  0.0067
28935SOL     OW93409   0.743   4.787   9.659  0.0686  0.1589  0.2823
28935SOL    HW193410   0.791   4.745   9.587 -0.8894 -0.8912  0.2327
28935SOL    HW293411   0.705   4.865   9.620 -1.4037 -0.9896 -0.7243
28936SOL     OW93412   4.979   2.284  11.400  0.2658  0.2204 -0.0881
28936SOL    HW193413   4.967   2.303  11.307  0.1977 -0.3585 -0.2025
28936SOL    HW293414   5.043   2.348  11.430  0.7250  0.0440 -0.6751
28937SOL     OW93415  10.469   9.093  10.462 -0.9463  0.0290 -0.1514
28937SOL    HW193416  10.437   9.049  10.541  1.8609  0.9438  1.6433
28937SOL    HW293417  10.499   9.021  10.406 -1.4907 -0.5609  0.2840
28938SOL     OW93418  11.771   8.414   8.750  0.6412 -0.1963 -0.4553
28938SOL    HW193419  11.763   8.441   8.658  0.3778 -0.5187 -0.5295
28938SOL    HW293420  11.756   8.494   8.800  0.5932 -0.0589 -0.6891
28939SOL     OW93421   7.873  10.174   8.973 -0.2163 -0.1778 -0.0835
28939SOL    HW193422   7.961  10.143   8.997  0.2195  0.5258 -0.7107
28939SOL    HW293423   7.827  10.096   8.943 -0.1058 -0.7152  1.0852
28940SOL     OW93424   3.785  10.936  10.025 -0.6665 -0.3346 -0.2549
28940SOL    HW193425   3.781  10.976  10.112 -3.5638 -0.8744 -0.0449
28940SOL    HW293426   3.749  10.848  10.038  0.6027 -1.1273 -1.7047
28941SOL     OW93427   5.409   0.302   3.747 -0.3669 -0.0706  0.2673
28941SOL    HW193428   5.445   0.319   3.834 -0.1835  0.9262  0.0040
28941SOL    HW293429   5.433   0.211   3.729  1.5363  0.3933  0.3295
28942SOL     OW93430   5.428   6.155   5.246  0.7548  0.3607  0.4616
28942SOL    HW193431   5.416   6.064   5.219  0.0451  1.1337 -2.1669
28942SOL    HW293432   5.340   6.192   5.242  0.5278  0.6121  4.2331
28943SOL     OW93433   9.499   6.639  10.630  0.4068  0.8153 -0.1712
28943SOL    HW193434   9.564   6.613  10.695  1.1378  1.4525 -0.6339
28943SOL    HW293435   9.443   6.562  10.622  0.0992  0.8345  1.4362
28944SOL     OW93436   0.031   9.955   5.396  0.2548  0.2622  0.5553
28944SOL    HW193437  -0.047  10.001   5.366  0.8576  1.6437  1.0397
28944SOL    HW293438   0.102  10.018   5.386  1.0844 -0.5065  1.3913
28945SOL     OW93439  10.183   5.342  11.593 -0.4723  0.7501  0.3022
28945SOL    HW193440  10.154   5.334  11.684 -0.5754 -0.8364  0.1663
28945SOL    HW293441  10.275   5.368  11.599  0.1486 -1.3892  0.9540
28946SOL     OW93442   5.751   0.053   5.349  0.1331  0.8076 -0.1630
28946SOL    HW193443   5.658   0.059   5.370  0.3179  1.3376  0.5214
28946SOL    HW293444   5.788   0.137   5.376  1.0968  0.0185  1.0731
28947SOL     OW93445  10.607   6.651  11.867 -0.2323 -0.1255 -0.0756
28947SOL    HW193446  10.572   6.735  11.898 -1.0503 -0.5932  0.3060
28947SOL    HW293447  10.531   6.593  11.867  0.8513 -1.6884  2.5270
28948SOL     OW93448   2.216   8.389   1.342 -0.1919  0.3996 -0.3338
28948SOL    HW193449   2.241   8.342   1.263 -0.0804  0.2064 -0.1874
28948SOL    HW293450   2.160   8.328   1.390  0.0815  0.3531 -0.0670
28949SOL     OW93451   4.514   7.965   8.281  0.2161 -0.6254 -0.5177
28949SOL    HW193452   4.573   8.037   8.303  0.7567 -0.7904 -1.3756
28949SOL    HW293453   4.427   7.995   8.308  0.7410 -0.5696  1.1980
28950SOL     OW93454   2.330   4.220   6.036  0.0134  0.2393  0.1971
28950SOL    HW193455   2.417   4.192   6.008  0.0720  0.0423  0.5741
28950SOL    HW293456   2.292   4.262   5.959  0.1519 -0.3460 -0.1882
28951SOL     OW93457   3.084   6.037   3.878 -0.1166  0.6588  0.0559
28951SOL    HW193458   3.097   5.981   3.955 -1.3899 -1.1864 -0.9883
28951SOL    HW293459   2.994   6.068   3.886 -0.2345  0.5014 -0.6571
28952SOL     OW93460   6.850  10.368   2.556  0.0756 -0.2747 -0.2295
28952SOL    HW193461   6.806  10.378   2.640 -0.1694 -0.0679 -0.3810
28952SOL    HW293462   6.781  10.379   2.491  0.6126  1.8609 -0.5380
28953SOL     OW93463   0.460   6.099  12.404 -0.1693 -0.0627 -0.9302
28953SOL    HW193464   0.545   6.092  12.447 -1.5575 -1.1532  1.8506
28953SOL    HW293465   0.453   6.192  12.380  1.7082  0.0650 -1.1015
28954SOL     OW93466   5.702  11.092   5.021 -0.1498  0.1267 -0.0349
28954SOL    HW193467   5.695  11.183   5.051  0.3172  0.3568 -0.6044
28954SOL    HW293468   5.638  11.044   5.074 -1.5571  1.0488 -0.8573
28955SOL     OW93469   8.428   2.114   3.507 -0.1640  0.5089  0.6242
28955SOL    HW193470   8.437   2.206   3.483  1.0085  0.3938  0.5515
28955SOL    HW293471   8.427   2.115   3.603 -1.1891  0.6687  0.6225
28956SOL     OW93472  11.612  10.320   6.662 -0.1619  0.5269 -0.1946
28956SOL    HW193473  11.614  10.415   6.656 -0.9018  0.5420 -0.2285
28956SOL    HW293474  11.676  10.290   6.597 -0.0161  0.9952 -0.2664
28957SOL     OW93475   4.685   8.331   5.563  0.2640 -0.0864  0.1481
28957SOL    HW193476   4.627   8.337   5.487  0.5959 -0.0648 -0.1070
28957SOL    HW293477   4.733   8.414   5.563  1.4367 -0.7296 -0.5816
28958SOL     OW93478   5.290   9.909   8.233  0.3027 -0.5318 -0.7035
28958SOL    HW193479   5.291   9.884   8.326 -1.7138 -0.4102 -0.5897
28958SOL    HW293480   5.298  10.005   8.234 -0.0797 -0.4966 -0.6097
28959SOL     OW93481   7.016   8.443   5.791 -0.2869  0.4482  0.9668
28959SOL    HW193482   6.938   8.478   5.747 -1.5176 -2.3804  0.6918
28959SOL    HW293483   7.086   8.455   5.728 -1.3155 -0.3997 -0.3895
28960SOL     OW93484  10.512  11.498   7.595 -0.6399  0.1648 -0.6168
28960SOL    HW193485  10.608  11.497   7.595 -0.5843 -2.4537 -1.4335
28960SOL    HW293486  10.488  11.543   7.514 -0.2062  2.3794  0.4068
28961SOL     OW93487   5.989   0.597   2.140 -1.0117  0.0387 -0.4050
28961SOL    HW193488   5.914   0.583   2.082  0.6990 -1.6031 -2.3456
28961SOL    HW293489   6.063   0.560   2.093  0.8450  0.5220  1.9755
28962SOL     OW93490   5.400   6.817   7.755  0.3716 -0.3195 -0.1042
28962SOL    HW193491   5.490   6.789   7.770  0.9852  2.2707  1.7825
28962SOL    HW293492   5.390   6.817   7.660  2.0733 -1.4275 -0.3171
28963SOL     OW93493   1.786   4.661   6.699 -0.1339 -0.0994  0.2795
28963SOL    HW193494   1.849   4.593   6.723  0.3244 -0.2138 -1.1471
28963SOL    HW293495   1.793   4.726   6.768  1.8086  0.0549 -0.0164
28964SOL     OW93496  11.577   1.947   7.744  0.4118  0.3100  0.1728
28964SOL    HW193497  11.594   1.875   7.805 -0.4204  0.2666  0.3599
28964SOL    HW293498  11.485   1.938   7.720  0.5862  0.6627 -0.6634
28965SOL     OW93499   0.355   1.703   0.073 -0.0019  0.5783  0.1262
28965SOL    HW193500   0.265   1.732   0.087  0.3339  1.0661  1.4278
28965SOL    HW293501   0.402   1.781   0.044  0.1295  0.4711  0.0451
28966SOL     OW93502   4.463   2.451   1.555 -0.5034  0.3455  0.5618
28966SOL    HW193503   4.456   2.546   1.557  0.6931  0.4381  1.5143
28966SOL    HW293504   4.481   2.426   1.646  0.3189 -0.6790  0.1470
28967SOL     OW93505   2.165   9.085  12.773 -0.3107 -0.4747  0.9223
28967SOL    HW193506   2.154   9.017  12.706  1.1218 -1.0830  1.2631
28967SOL    HW293507   2.253   9.070  12.808 -1.4622 -0.9962  3.8594
28968SOL     OW93508   7.346   9.328  10.845  0.1879  0.7317  0.1582
28968SOL    HW193509   7.320   9.342  10.754 -0.9988 -0.8490  0.2093
28968SOL    HW293510   7.439   9.307  10.841  0.5037  2.1350 -0.5027
28969SOL     OW93511   7.244   1.221   4.188 -0.1438 -0.7257 -0.5527
28969SOL    HW193512   7.253   1.316   4.179 -0.9732 -0.5191  0.5423
28969SOL    HW293513   7.212   1.209   4.278  0.7825 -2.0950 -0.3788
28970SOL     OW93514   6.329  10.541   0.078  0.5819 -0.1370 -0.0805
28970SOL    HW193515   6.264  10.485   0.121  0.6677 -2.4897 -2.6842
28970SOL    HW293516   6.399  10.550   0.142  0.3471 -2.7513  0.6849
28971SOL     OW93517   7.610   5.885   0.884 -0.6785 -0.2842  0.4241
28971SOL    HW193518   7.631   5.792   0.888 -2.0902 -0.6166  0.4239
28971SOL    HW293519   7.687   5.928   0.922  1.6407 -1.1621 -2.8663
28972SOL     OW93520  11.168   3.830   2.164 -0.2617 -0.1984  0.0269
28972SOL    HW193521  11.232   3.796   2.227 -0.7075 -0.3064  0.4275
28972SOL    HW293522  11.221   3.865   2.093  0.2467 -0.2054  0.3969
28973SOL     OW93523   1.950   1.058  10.379  0.1124 -0.1892 -0.1636
28973SOL    HW193524   1.879   1.074  10.318  0.2299 -0.5891 -0.4082
28973SOL    HW293525   1.913   0.995  10.442 -0.0248  0.2572  0.2111
28974SOL     OW93526   6.128  12.291   3.283 -0.6231 -0.6888 -0.3314
28974SOL    HW193527   6.063  12.306   3.213 -2.2400  1.1276  1.4206
28974SOL    HW293528   6.169  12.376   3.296  0.0445 -1.1345  0.5724
28975SOL     OW93529   2.027   8.140  11.626  0.4201  0.6530  0.3276
28975SOL    HW193530   2.082   8.116  11.701  0.5674  0.3562  0.1297
28975SOL    HW293531   2.016   8.234  11.633  2.0073  0.9334 -0.3046
28976SOL     OW93532  10.339  11.527   2.424 -0.2881  0.1719  0.2722
28976SOL    HW193533  10.310  11.453   2.370  1.1790 -1.1650  1.2252
28976SOL    HW293534  10.266  11.589   2.420 -2.1641 -1.8785  0.4717
28977SOL     OW93535   3.406   1.299   0.595 -0.4088  0.1247 -0.9331
28977SOL    HW193536   3.410   1.210   0.559  0.0646 -0.4175  0.3815
28977SOL    HW293537   3.457   1.352   0.535  0.8442 -0.8576 -0.7749
28978SOL     OW93538  11.665  11.872   2.836  0.1034  0.7491  0.4986
28978SOL    HW193539  11.736  11.936   2.828  0.6121  0.0369 -0.9571
28978SOL    HW293540  11.701  11.792   2.799 -1.2061  0.1595  0.4797
28979SOL     OW93541   7.520   2.390  10.792  0.0401  0.3971 -0.6406
28979SOL    HW193542   7.570   2.442  10.855 -0.1393  3.1488 -2.5638
28979SOL    HW293543   7.517   2.302  10.829  2.2043  1.2528  1.8253
28980SOL     OW93544   2.186   6.220   4.891  0.0395  0.0197 -0.1884
28980SOL    HW193545   2.186   6.144   4.832 -0.7728 -0.0826 -0.0699
28980SOL    HW293546   2.127   6.282   4.849 -1.9726 -0.7353  1.3385
28981SOL     OW93547   7.670   1.174  10.776 -0.1292 -0.1612  0.0490
28981SOL    HW193548   7.731   1.112  10.816  0.2131 -0.0133 -0.2418
28981SOL    HW293549   7.681   1.162  10.682  0.5599  0.9414 -0.0261
28982SOL     OW93550  11.509   6.117   7.817  0.8030 -0.0587  0.0427
28982SOL    HW193551  11.433   6.061   7.834  0.9824  0.0088  1.1383
28982SOL    HW293552  11.573   6.058   7.777  1.0142 -0.6764  1.2467
28983SOL     OW93553  10.979  11.362  10.607 -0.1513 -0.3349 -0.5675
28983SOL    HW193554  10.986  11.333  10.698 -0.7282  0.2737 -0.3234
28983SOL    HW293555  10.966  11.457  10.613  0.1007 -0.2537 -1.2918
28984SOL     OW93556   2.738   4.736  12.647 -0.1310  0.0891 -0.0684
28984SOL    HW193557   2.699   4.661  12.691 -0.0387  1.0999  1.8303
28984SOL    HW293558   2.710   4.812  12.698 -0.6336  1.4391 -2.2054
28985SOL     OW93559   5.887  11.912   7.538  0.1738  0.2519  0.3059
28985SOL    HW193560   5.911  11.983   7.478  0.9940 -0.6081 -0.4132
28985SOL    HW293561   5.936  11.836   7.506 -2.4086 -1.2490 -0.3800
28986SOL     OW93562   5.752   7.744   7.455  0.6907  0.1350 -0.1378
28986SOL    HW193563   5.713   7.694   7.384 -1.2001  0.4622  0.6018
28986SOL    HW293564   5.765   7.832   7.419 -0.0505  0.2385 -0.1658
28987SOL     OW93565   7.420   2.155   1.193  0.4506 -0.1285  0.0797
28987SOL    HW193566   7.416   2.239   1.147  2.4773  1.3157  2.2812
28987SOL    HW293567   7.348   2.159   1.256 -0.5894 -0.8942 -1.0204
28988SOL     OW93568  12.407   6.213   7.735 -0.3111  0.4386 -0.0698
28988SOL    HW193569  12.421   6.307   7.725  1.4381 -0.0010 -2.7092
28988SOL    HW293570  12.347   6.190   7.664  0.6564 -0.6570 -0.5678
28989SOL     OW93571   2.418   1.675   9.202  0.4696  0.2534  0.5361
28989SOL    HW193572   2.408   1.699   9.294  1.3104  0.6409  0.5409
28989SOL    HW293573   2.375   1.590   9.194 -0.0367  0.4451  1.1780
28990SOL     OW93574  11.811   0.240  11.337 -0.5018  0.1229 -0.1902
28990SOL    HW193575  11.863   0.160  11.341 -0.4969  0.0967 -0.7885
28990SOL    HW293576  11.720   0.211  11.332 -0.4700  0.1455 -0.9399
28991SOL     OW93577  11.214   0.960   4.911 -0.1073  0.6135  0.3553
28991SOL    HW193578  11.166   0.992   4.835  1.1927  0.6528 -0.4823
28991SOL    HW293579  11.205   1.028   4.977 -1.1895  0.6126  0.2175
28992SOL     OW93580   3.491   2.739  12.080  0.3769 -0.1519  0.3069
28992SOL    HW193581   3.506   2.831  12.059  0.5376 -0.3668 -0.5627
28992SOL    HW293582   3.559   2.692  12.031 -0.1873 -0.7868  0.1235
28993SOL     OW93583   4.435   9.888   6.621  0.0556  0.4046 -0.0201
28993SOL    HW193584   4.409   9.967   6.572 -0.9061  0.4380  0.5160
28993SOL    HW293585   4.389   9.817   6.576  0.2447  0.2609  0.0164
28994SOL     OW93586  10.528   5.282  11.390 -0.5933 -0.1411 -0.1948
28994SOL    HW193587  10.576   5.240  11.462  0.8153  0.9924 -0.4375
28994SOL    HW293588  10.494   5.362  11.429  0.5461  0.6979 -0.8747
28995SOL     OW93589   1.612   6.835   3.389 -0.2418  0.0625  0.0713
28995SOL    HW193590   1.534   6.852   3.441 -0.1510  0.1761  0.1693
28995SOL    HW293591   1.604   6.743   3.364 -0.0825 -0.0954  0.6139
28996SOL     OW93592   3.376   3.368   4.551  0.1092 -0.2341 -0.3321
28996SOL    HW193593   3.444   3.384   4.486  1.1483 -2.4775  0.0945
28996SOL    HW293594   3.314   3.309   4.507 -0.6866  0.4589 -0.1683
28997SOL     OW93595   7.162  10.740  11.779  0.1273  0.4990  0.5388
28997SOL    HW193596   7.144  10.649  11.754 -0.1474  0.5419  0.5818
28997SOL    HW293597   7.250  10.737  11.815  0.2123  0.2905  0.3220
28998SOL     OW93598   5.567  11.746   6.495  0.5822 -0.2923 -0.4100
28998SOL    HW193599   5.527  11.684   6.435  0.1168 -0.3054 -0.0894
28998SOL    HW293600   5.661  11.726   6.491  0.5467 -0.3477 -1.0617
28999SOL     OW93601   5.520  12.043  12.318  0.1653  0.2566 -0.3974
28999SOL    HW193602   5.592  12.102  12.294  1.3783 -1.0707 -0.1791
28999SOL    HW293603   5.442  12.084  12.280  1.1182  1.4113 -1.2075
29000SOL     OW93604   6.654   6.778   7.552  0.5578  0.2379  0.3195
29000SOL    HW193605   6.572   6.822   7.576 -1.4307 -1.5647 -2.4617
29000SOL    HW293606   6.633   6.685   7.556  1.9779 -0.2482 -1.7923
29001SOL     OW93607  11.035   7.842   3.257 -0.6081 -0.5834 -0.5108
29001SOL    HW193608  11.021   7.937   3.261 -1.0887 -0.6112 -1.2643
29001SOL    HW293609  10.953   7.804   3.289 -0.1229 -0.7576  0.5731
29002SOL     OW93610   0.641   1.346   5.386 -0.4088 -0.3939 -0.3381
29002SOL    HW193611   0.662   1.412   5.320 -1.6706  0.6749  0.2870
29002SOL    HW293612   0.556   1.311   5.359 -1.7454  1.2003  1.4940
29003SOL     OW93613   4.228   8.465   9.515 -0.2319 -1.2109  0.3211
29003SOL    HW193614   4.300   8.468   9.452  0.4546  1.6710  1.0790
29003SOL    HW293615   4.267   8.435   9.596  0.8169  2.4100  1.3339
29004SOL     OW93616   1.296   1.954   8.624 -0.2695  0.1974  0.0310
29004SOL    HW193617   1.259   2.038   8.595 -2.2862 -0.2821  1.0265
29004SOL    HW293618   1.292   1.958   8.720  0.2590 -0.7763  0.1067
29005SOL     OW93619  12.071   1.250   1.032  0.2155 -0.3465 -0.1357
29005SOL    HW193620  12.084   1.323   0.971  0.1782  0.3184  0.6308
29005SOL    HW293621  12.031   1.181   0.980  1.2221 -0.2109 -1.1294
29006SOL     OW93622   2.114   5.375   6.400  0.1809  0.2522  0.2616
29006SOL    HW193623   2.025   5.368   6.365 -0.3043  1.3827  1.1530
29006SOL    HW293624   2.132   5.469   6.399  1.2516  0.0603  0.3880
29007SOL     OW93625   1.245   8.161  11.552 -0.0572 -0.1583  0.0621
29007SOL    HW193626   1.245   8.197  11.640 -1.4897 -0.9502  0.4083
29007SOL    HW293627   1.197   8.225  11.500  0.4261  0.1043 -0.0709
29008SOL     OW93628  10.089   5.048   9.171  0.0247  0.4157 -0.2095
29008SOL    HW193629  10.019   5.059   9.234  0.4874  1.4384  0.1513
29008SOL    HW293630  10.169   5.041   9.224  0.4941  1.8826 -0.6588
29009SOL     OW93631   7.514   1.681  11.272  0.2462  0.0704 -0.1791
29009SOL    HW193632   7.592   1.672  11.217 -0.1923  2.2411 -1.2566
29009SOL    HW293633   7.441   1.678  11.210 -0.7458 -3.3169  0.9337
29010SOL     OW93634   8.540   8.288  11.579  0.5472  0.3949 -0.0263
29010SOL    HW193635   8.472   8.321  11.521 -0.7685 -0.5362  0.9273
29010SOL    HW293636   8.621   8.297  11.528 -0.2376  1.6737 -1.1263
29011SOL     OW93637   4.740   3.848   9.805  0.6874  0.2174 -0.0764
29011SOL    HW193638   4.707   3.908   9.872  0.8263 -0.3657  0.5230
29011SOL    HW293639   4.835   3.861   9.806  0.8779 -1.0638  1.1089
29012SOL     OW93640   4.441   6.006   7.531 -0.1017  0.1606 -0.4029
29012SOL    HW193641   4.524   5.963   7.551 -0.6018 -0.3378  0.6843
29012SOL    HW293642   4.376   5.935   7.534 -0.7038  0.7119 -0.2169
29013SOL     OW93643   1.722   8.702   6.727  0.0440 -0.1164 -0.8706
29013SOL    HW193644   1.699   8.618   6.688 -2.3001  0.0092  0.0680
29013SOL    HW293645   1.770   8.748   6.659 -1.5326 -0.9646 -2.6442
29014SOL     OW93646  11.624   4.492   0.506 -0.2050  1.1880  0.7627
29014SOL    HW193647  11.688   4.563   0.503  1.9213 -0.6211  0.1128
29014SOL    HW293648  11.651   4.432   0.437 -2.5488  0.2226  0.5743
29015SOL     OW93649   7.057   5.867  12.483  0.2824  0.2056 -0.9647
29015SOL    HW193650   7.030   5.879  12.574 -0.1548  0.6818 -1.1549
29015SOL    HW293651   7.011   5.788  12.455  0.6227 -0.0920 -0.6968
29016SOL     OW93652   3.255   4.623   2.732  0.4173 -0.3462  0.0277
29016SOL    HW193653   3.285   4.543   2.688 -0.0539 -0.3023 -0.3849
29016SOL    HW293654   3.300   4.623   2.816 -1.3185 -2.2668  1.0474
29017SOL     OW93655  11.637   9.268   2.151  0.4072 -0.8744 -0.1552
29017SOL    HW193656  11.645   9.308   2.238  1.8257  0.8025 -0.9878
29017SOL    HW293657  11.598   9.336   2.097  1.2583 -1.2166 -1.2345
29018SOL     OW93658   6.154   2.762   8.511  0.0730  0.0989  0.3280
29018SOL    HW193659   6.178   2.790   8.423  0.0168 -1.4284 -0.1977
29018SOL    HW293660   6.211   2.813   8.569  1.8447 -0.6286 -0.7100
29019SOL     OW93661  11.085   2.804   9.427 -0.5370 -0.1037 -0.6462
29019SOL    HW193662  11.120   2.818   9.339  1.4956  0.5532  0.2096
29019SOL    HW293663  11.015   2.870   9.436  1.5879  2.3115 -0.5887
29020SOL     OW93664  12.209   5.327  11.518  0.5449 -0.1664 -0.5390
29020SOL    HW193665  12.117   5.325  11.544  0.3516  0.3488 -1.1353
29020SOL    HW293666  12.206   5.323  11.422  1.1783 -0.9166 -0.5353
29021SOL     OW93667   5.141   3.392  11.490  0.4285  0.4438  0.3981
29021SOL    HW193668   5.191   3.458  11.537  1.6700 -1.1272  1.3650
29021SOL    HW293669   5.190   3.379  11.408  0.0826  0.8186  0.1242
29022SOL     OW93670   7.098   5.530   1.585  0.1594 -0.5968 -0.1599
29022SOL    HW193671   7.097   5.441   1.620  3.4221 -0.2114  1.2823
29022SOL    HW293672   7.136   5.583   1.655 -1.4652  1.9492 -1.0730
29023SOL     OW93673   1.190   9.986   8.564 -0.6650  0.2100  0.2435
29023SOL    HW193674   1.209   9.984   8.470  2.5239  0.4360  0.7727
29023SOL    HW293675   1.205   9.896   8.593 -1.1639  0.2470  0.6217
29024SOL     OW93676   9.264   2.030  10.305 -0.4397 -0.0290 -0.0928
29024SOL    HW193677   9.300   2.116  10.325  0.6528 -0.5437  0.2382
29024SOL    HW293678   9.273   2.021  10.210 -0.2960  0.1155 -0.0924
29025SOL     OW93679   2.357  11.497   1.098 -0.1798  0.6202 -0.2798
29025SOL    HW193680   2.426  11.433   1.114 -0.8465  0.0431  0.3536
29025SOL    HW293681   2.329  11.525   1.185 -0.5004  1.1159 -0.5326
29026SOL     OW93682  11.815  10.465   9.932  0.0647  0.2148  0.0272
29026SOL    HW193683  11.904  10.502   9.933 -0.0095  0.4051 -0.4010
29026SOL    HW293684  11.792  10.457  10.024 -0.5416  2.7447  0.1697
29027SOL     OW93685   9.431   9.531   1.099  0.0471 -0.0790 -0.0674
29027SOL    HW193686   9.439   9.499   1.189  0.1552  0.1487  0.0041
29027SOL    HW293687   9.339   9.558   1.091 -0.1231 -0.6989 -0.2261
29028SOL     OW93688  12.041   5.791   8.690 -0.4401  1.1417  0.2616
29028SOL    HW193689  12.045   5.704   8.651  0.0165  0.8036  1.0403
29028SOL    HW293690  12.066   5.777   8.782 -2.0488  1.8270  0.8236
29029SOL     OW93691  10.631  11.799   1.660  0.4872 -0.0441 -0.5335
29029SOL    HW193692  10.609  11.789   1.567  0.1441 -1.0848 -0.3643
29029SOL    HW293693  10.561  11.854   1.695 -0.4001 -1.1127 -0.5507
29030SOL     OW93694   7.212   9.696   9.610 -0.3127  0.1044 -0.8241
29030SOL    HW193695   7.294   9.668   9.571  0.7024 -0.4372  1.5230
29030SOL    HW293696   7.165   9.741   9.539  1.8602  0.1896 -2.2872
29031SOL     OW93697   1.875  12.231   8.219 -0.4159  0.1907 -0.3561
29031SOL    HW193698   1.940  12.227   8.149 -0.9095 -1.1414 -0.7806
29031SOL    HW293699   1.836  12.143   8.220  0.0599 -0.0594  2.0512
29032SOL     OW93700   9.689   7.269   8.619  0.2095 -0.1419 -0.1397
29032SOL    HW193701   9.628   7.211   8.574 -0.1346 -0.0837  0.2456
29032SOL    HW293702   9.730   7.215   8.686  1.0012 -0.3276 -0.7565
29033SOL     OW93703   3.419   0.084  11.196  0.5042  0.2531  0.3296
29033SOL    HW193704   3.399  -0.001  11.235  0.5156  0.6790  1.2707
29033SOL    HW293705   3.425   0.066  11.102 -0.3385 -0.6301  0.4302
29034SOL     OW93706   9.699   3.245   3.429  0.0707  0.5111  0.4060
29034SOL    HW193707   9.629   3.310   3.416 -0.0614  0.3520  0.3224
29034SOL    HW293708   9.684   3.210   3.516  0.6547  1.2065  0.8014
29035SOL     OW93709   7.456   4.577   4.423  0.6651 -0.4372  0.0873
29035SOL    HW193710   7.396   4.558   4.350 -1.1725  1.2085  1.0577
29035SOL    HW293711   7.531   4.620   4.381 -0.4363  0.6460 -0.8697
29036SOL     OW93712   6.931  12.715   8.082 -0.0707  0.0447  0.3751
29036SOL    HW193713   6.985  12.670   8.017 -1.8662  0.0570 -1.2133
29036SOL    HW293714   6.936  12.660   8.160  2.0475 -0.0382  0.2446
29037SOL     OW93715   3.521   3.578   8.128 -0.0272 -0.5975 -0.1472
29037SOL    HW193716   3.551   3.494   8.093  0.6373 -0.8527  0.9650
29037SOL    HW293717   3.549   3.642   8.063 -0.9842 -1.2704 -1.2606
29038SOL     OW93718  10.433   9.279   1.810  0.4537 -0.8376  0.0399
29038SOL    HW193719  10.473   9.193   1.821 -0.7516 -1.3341  0.7643
29038SOL    HW293720  10.369   9.285   1.881  0.5131  0.6594 -0.0012
29039SOL     OW93721   0.337   9.008   6.529 -0.4692 -0.0522  0.1225
29039SOL    HW193722   0.315   8.915   6.540  0.8020 -0.6281 -1.7255
29039SOL    HW293723   0.254   9.054   6.542 -0.7770 -1.2325  2.9406
29040SOL     OW93724  12.045   0.354   9.861  0.1169  0.1376 -0.6564
29040SOL    HW193725  12.061   0.282   9.921  1.6419  0.2356 -0.9140
29040SOL    HW293726  11.969   0.326   9.810  0.8262 -1.3918 -0.9219
29041SOL     OW93727   0.724   3.298   4.354  0.4453 -0.8634  0.1585
29041SOL    HW193728   0.635   3.286   4.321  0.2926  1.2952 -0.3838
29041SOL    HW293729   0.714   3.352   4.433  1.3245  0.9545 -0.8976
29042SOL     OW93730   1.492   4.762   2.583  0.0951 -0.5690 -1.3074
29042SOL    HW193731   1.445   4.845   2.589  0.6091 -0.3134 -0.7608
29042SOL    HW293732   1.433   4.705   2.533 -0.0814  0.2462 -2.0538
29043SOL     OW93733   1.666   7.556   2.500 -0.1480  0.9432  0.2476
29043SOL    HW193734   1.711   7.595   2.575  0.4681  1.5329 -0.4031
29043SOL    HW293735   1.732   7.555   2.431 -0.9685  1.3064 -0.5661
29044SOL     OW93736   2.812   4.902   1.632 -0.1283 -0.1825 -0.1161
29044SOL    HW193737   2.735   4.845   1.630 -1.2019  1.1399  1.5854
29044SOL    HW293738   2.791   4.974   1.573  0.8010 -0.9665 -1.4541
29045SOL     OW93739   3.150   9.704   0.811  0.2614 -0.1714 -0.4317
29045SOL    HW193740   3.124   9.795   0.818  0.1896 -0.2550  0.5624
29045SOL    HW293741   3.092   9.667   0.745 -0.1137  0.3588 -0.4033
29046SOL     OW93742   8.164   2.854   4.310 -0.5113 -0.3299  0.3331
29046SOL    HW193743   8.221   2.914   4.261 -1.7276 -1.1856 -2.3596
29046SOL    HW293744   8.081   2.901   4.319 -1.3807 -1.3829 -1.5419
29047SOL     OW93745   2.250   5.277   2.715  0.2303 -0.4789  0.0521
29047SOL    HW193746   2.266   5.309   2.626 -0.3597 -0.7968 -0.1718
29047SOL    HW293747   2.185   5.338   2.751  0.1064 -0.6346  0.0935
29048SOL     OW93748  12.011   0.161  11.682  0.0264 -0.6370 -0.1589
29048SOL    HW193749  12.002   0.069  11.656  1.1627 -0.4828 -1.1703
29048SOL    HW293750  12.102   0.168  11.711  0.5439  0.5736 -1.9070
29049SOL     OW93751   4.416   5.406   8.841  0.0320 -0.1052 -0.4746
29049SOL    HW193752   4.481   5.423   8.773  0.1454 -0.7700 -0.5377
29049SOL    HW293753   4.404   5.490   8.884  0.3092  0.2137 -1.0118
29050SOL     OW93754   6.193   0.122   4.947  0.5969  0.1854 -0.6115
29050SOL    HW193755   6.220   0.053   5.007 -1.4416 -0.0746  0.0977
29050SOL    HW293756   6.128   0.081   4.890 -2.1830  1.8730  1.1122
29051SOL     OW93757   3.095   4.087   2.396 -0.0830 -0.2703 -0.4948
29051SOL    HW193758   3.115   4.142   2.320  0.7232  0.9759  0.5741
29051SOL    HW293759   3.133   4.002   2.375  0.3738  0.1384 -1.3746
29052SOL     OW93760   3.929  11.129   3.745  0.1190 -0.0341 -0.8329
29052SOL    HW193761   3.836  11.119   3.729 -0.3276  1.1590  0.7434
29052SOL    HW293762   3.957  11.194   3.681 -0.0274 -0.7146 -1.5953
29053SOL     OW93763   0.614   6.966   1.826 -0.1496 -0.4455 -0.0891
29053SOL    HW193764   0.598   6.934   1.915  0.0005 -0.4674 -0.0686
29053SOL    HW293765   0.528   6.971   1.786 -0.3114  0.3986  0.3423
29054SOL     OW93766  12.703   6.171  11.590 -0.1732  0.2431 -0.3090
29054SOL    HW193767  12.680   6.207  11.675 -1.1937 -1.3552  0.1481
29054SOL    HW293768  12.697   6.076  11.602  0.6063 -0.0484 -1.9120
29055SOL     OW93769  11.337   0.864   1.047  0.7026 -0.1269 -0.1384
29055SOL    HW193770  11.275   0.814   1.101  2.0198 -1.0665  0.5863
29055SOL    HW293771  11.295   0.870   0.961 -1.6327  1.7627  1.0495
29056SOL     OW93772   3.825   5.497  10.722 -0.2655 -0.2075  0.3231
29056SOL    HW193773   3.868   5.501  10.637  2.3748 -1.0179  1.5050
29056SOL    HW293774   3.773   5.416  10.719 -2.3127  1.0751 -1.3289
29057SOL     OW93775   7.108   8.913  10.408 -0.3075  0.3412  0.0131
29057SOL    HW193776   7.137   8.992  10.363  1.8090 -0.6440 -0.4512
29057SOL    HW293777   7.185   8.881  10.455 -1.2281 -1.1922  0.5852
29058SOL     OW93778  11.967   3.970   6.391  0.2158 -0.6620 -0.2305
29058SOL    HW193779  12.012   4.042   6.348  0.6091 -0.8653 -0.1714
29058SOL    HW293780  11.999   3.973   6.482 -1.3626  0.3815  0.3171
29059SOL     OW93781   9.644   9.351   0.093  0.0341  0.0588  0.7702
29059SOL    HW193782   9.707   9.379   0.027 -1.3878  0.7067 -0.3722
29059SOL    HW293783   9.577   9.304   0.044 -0.2415 -0.8755  1.9895
29060SOL     OW93784   5.786   1.811  10.405  0.2047  0.1966  0.1641
29060SOL    HW193785   5.865   1.786  10.453 -0.0607 -0.2783  0.3603
29060SOL    HW293786   5.800   1.776  10.317 -0.3728 -1.0998  0.5651
29061SOL     OW93787   0.269   4.567   9.025  0.4129  0.0400  0.1018
29061SOL    HW193788   0.335   4.514   8.979 -0.9296 -1.7740  0.1723
29061SOL    HW293789   0.265   4.648   8.974  1.3160 -0.5965 -1.0545
29062SOL     OW93790   1.463  10.727  10.882  0.3613 -0.2388  0.2824
29062SOL    HW193791   1.459  10.633  10.898 -1.0220 -0.0538  1.1636
29062SOL    HW293792   1.387  10.763  10.927  1.5824  1.4803  1.1086
29063SOL     OW93793   9.931   5.707   3.054 -0.5533  0.3269 -0.3895
29063SOL    HW193794   9.952   5.616   3.033  1.7198  0.5408  0.7001
29063SOL    HW293795   9.917   5.708   3.148  2.0350  1.4728  0.0611
29064SOL     OW93796   0.601   9.484   8.659  0.1974 -1.0010  0.7374
29064SOL    HW193797   0.561   9.554   8.710 -1.8804 -0.4930 -1.3730
29064SOL    HW293798   0.599   9.408   8.716  2.1801  0.4841  2.9625
29065SOL     OW93799   4.449   2.117   9.134 -0.2148 -0.1346  0.1832
29065SOL    HW193800   4.405   2.202   9.142 -3.2471 -1.7162  1.7960
29065SOL    HW293801   4.474   2.094   9.223  2.7004 -0.0151 -0.5099
29066SOL     OW93802   5.138  11.032  12.139 -0.1279  0.1871 -0.5521
29066SOL    HW193803   5.104  10.949  12.105 -2.6582  1.0353 -0.2304
29066SOL    HW293804   5.158  11.014  12.231  1.3698 -0.5731 -0.9806
29067SOL     OW93805   8.928   5.090   8.520  0.1644 -0.5870  0.2798
29067SOL    HW193806   8.950   5.110   8.611 -1.4607 -1.7200  0.9627
29067SOL    HW293807   8.853   5.145   8.500 -0.5076 -1.5131  0.1816
29068SOL     OW93808  12.452   5.095   6.912 -0.3367  0.5166 -0.1868
29068SOL    HW193809  12.439   5.000   6.908  0.6977  0.3371  0.1857
29068SOL    HW293810  12.439   5.117   7.004  1.0011  0.4547  0.0427
29069SOL     OW93811   4.076   8.482   6.892  0.0623 -0.2479 -0.1184
29069SOL    HW193812   3.992   8.525   6.908 -0.0151 -0.4055 -0.1015
29069SOL    HW293813   4.078   8.410   6.955  0.8330  0.6114  0.8671
29070SOL     OW93814  11.361  12.231   9.735  0.3281 -0.5463  0.1414
29070SOL    HW193815  11.410  12.162   9.780 -0.2106 -0.9152  0.1790
29070SOL    HW293816  11.346  12.196   9.648 -0.6047 -0.8063  0.3959
29071SOL     OW93817   0.765  12.738   0.700 -0.5137 -0.2583 -0.6310
29071SOL    HW193818   0.859  12.757   0.688 -0.3648  0.4651  1.3581
29071SOL    HW293819   0.754  12.651   0.662  1.6238 -1.6174  1.5461
29072SOL     OW93820   3.361   6.836   3.961  0.1267  0.1911 -0.1594
29072SOL    HW193821   3.423   6.848   4.033  1.1347  0.4374 -1.0295
29072SOL    HW293822   3.331   6.924   3.940 -0.0282  0.1381 -0.1620
29073SOL     OW93823   5.641  11.630   0.893 -0.8629 -0.5610  0.8632
29073SOL    HW193824   5.549  11.639   0.871 -0.5522  0.0399 -0.2732
29073SOL    HW293825   5.686  11.626   0.808  0.0524 -2.0496  1.3711
29074SOL     OW93826   3.706   7.481  12.037 -0.9219 -0.6751 -0.2525
29074SOL    HW193827   3.691   7.508  12.127  2.3307  1.9498 -0.3110
29074SOL    HW293828   3.781   7.421  12.041  0.9587  1.4257 -1.2436
29075SOL     OW93829  11.118   2.838   1.583  0.3689 -0.0807  0.5378
29075SOL    HW193830  11.063   2.776   1.535  0.7885 -0.2407  0.2539
29075SOL    HW293831  11.201   2.792   1.594  0.7450  0.4956  0.1653
29076SOL     OW93832   9.672   8.320   9.613 -0.0977 -0.4909  0.3604
29076SOL    HW193833   9.623   8.402   9.606  1.0609  0.1319 -1.0584
29076SOL    HW293834   9.606   8.254   9.637 -2.6387 -0.4664 -5.0351
29077SOL     OW93835   2.159   3.077  11.238  0.1852 -0.2304  0.0842
29077SOL    HW193836   2.089   3.117  11.290 -0.9733  0.1767 -1.6940
29077SOL    HW293837   2.149   3.116  11.151  1.5067 -1.5182 -0.6809
29078SOL     OW93838   7.717   1.289   9.390 -0.1286  0.1027 -0.1393
29078SOL    HW193839   7.622   1.282   9.374 -0.3563 -0.1073  1.1926
29078SOL    HW293840   7.726   1.365   9.448  0.4223 -0.3885  0.4290
29079SOL     OW93841   8.090  11.474   9.400 -0.1372  0.2978 -0.2817
29079SOL    HW193842   8.164  11.467   9.339  0.5981 -0.2377  0.6421
29079SOL    HW293843   8.042  11.393   9.387  1.2406 -0.8422  1.3591
29080SOL     OW93844   4.708   6.069   4.126  0.4291  0.0108  0.0062
29080SOL    HW193845   4.675   6.146   4.171 -0.7970  0.2921 -1.2835
29080SOL    HW293846   4.791   6.049   4.169  0.4263  1.6165  0.8294
29081SOL     OW93847   5.579   4.105   3.244 -0.3957  0.0813  0.3319
29081SOL    HW193848   5.558   4.086   3.153  0.4240 -0.3642  0.2341
29081SOL    HW293849   5.494   4.108   3.288 -0.8330  0.8189 -0.5363
29082SOL     OW93850  12.038  10.759   7.591 -0.1935 -0.0066  0.1569
29082SOL    HW193851  11.990  10.795   7.666  0.1135  0.2913  0.2148
29082SOL    HW293852  12.044  10.833   7.530  0.6281  0.1067  0.3668
29083SOL     OW93853  10.505   4.567   4.471  0.0646  0.7362 -0.0040
29083SOL    HW193854  10.535   4.622   4.398  0.9589 -0.9469 -0.9756
29083SOL    HW293855  10.580   4.564   4.531 -0.2084  1.0938  0.3540
29084SOL     OW93856   1.896  12.727   0.740  0.3294 -0.0935 -0.0176
29084SOL    HW193857   1.890  12.822   0.728  0.8775 -0.0179  0.2319
29084SOL    HW293858   1.957  12.717   0.813 -1.4391 -0.5755  1.4700
29085SOL     OW93859   4.923  12.385   5.997  0.5414  0.2032 -0.6850
29085SOL    HW193860   4.918  12.405   6.091  1.5004 -0.1821 -0.5373
29085SOL    HW293861   4.835  12.403   5.964 -0.2965 -1.1938  0.5993
29086SOL     OW93862   3.037   6.863   8.478  0.0276  0.2466  0.0803
29086SOL    HW193863   3.128   6.858   8.504  0.1946 -0.1927 -0.5748
29086SOL    HW293864   3.022   6.784   8.426 -1.1599 -0.5141  1.4971
29087SOL     OW93865   6.941   9.459   9.055  0.0847  0.1409  0.5951
29087SOL    HW193866   6.975   9.541   9.091 -0.1721 -0.3627  2.0432
29087SOL    HW293867   6.852   9.481   9.025  0.1981  0.5030  0.5183
29088SOL     OW93868   7.374   6.691  10.733 -0.5545 -0.5011 -0.1501
29088SOL    HW193869   7.353   6.605  10.697 -2.1231 -0.5793  0.8628
29088SOL    HW293870   7.365   6.679  10.828 -2.6077  1.2070 -0.0734
29089SOL     OW93871   2.263  12.360   0.824 -0.7054 -0.1586 -0.4050
29089SOL    HW193872   2.190  12.405   0.781  0.2218  0.1391 -1.7245
29089SOL    HW293873   2.335  12.422   0.821 -0.4588 -0.3259  1.1813
29090SOL     OW93874   0.428   6.857   5.271 -0.2504 -0.0489 -0.0894
29090SOL    HW193875   0.437   6.804   5.192  1.3514  1.7356 -1.1918
29090SOL    HW293876   0.418   6.793   5.342 -0.8851 -1.7091 -1.6090
29091SOL     OW93877   1.244  11.771   4.713  0.2389  0.1293 -0.6113
29091SOL    HW193878   1.327  11.807   4.744 -0.5905  0.5584  1.2805
29091SOL    HW293879   1.254  11.765   4.618  1.5347  2.4528 -0.6922
29092SOL     OW93880   9.362   7.091   4.437 -0.0935  0.2376 -0.2162
29092SOL    HW193881   9.321   7.072   4.522  1.6633 -2.1374  0.2029
29092SOL    HW293882   9.293   7.071   4.374 -1.3169  1.6944  0.5782
29093SOL     OW93883   4.155   3.527   2.246 -0.2609  0.1866 -0.4294
29093SOL    HW193884   4.162   3.588   2.319 -1.6947  0.2507 -0.3219
29093SOL    HW293885   4.204   3.570   2.175  0.7890  0.3117  0.3484
29094SOL     OW93886   2.694   3.285   2.972  0.5605 -0.0570 -0.1280
29094SOL    HW193887   2.666   3.257   3.059 -0.5945  0.8835 -0.1747
29094SOL    HW293888   2.790   3.283   2.975  0.5243 -0.9086  0.8628
29095SOL     OW93889  12.633  10.453   3.336 -0.6346 -0.9303 -0.1288
29095SOL    HW193890  12.643  10.399   3.414 -0.9437 -1.0716 -0.1872
29095SOL    HW293891  12.575  10.403   3.278 -1.6173 -0.1753  0.1657
29096SOL     OW93892   4.146   9.795   7.641  0.1986  0.0843 -0.1202
29096SOL    HW193893   4.144   9.719   7.582  1.6815 -0.7057  0.7826
29096SOL    HW293894   4.171   9.868   7.584  1.1770 -0.5800 -0.5850
29097SOL     OW93895  10.166   4.848   9.878 -0.0622  0.1152 -0.4009
29097SOL    HW193896  10.159   4.936   9.916  1.4185  0.4841 -0.9343
29097SOL    HW293897  10.222   4.859   9.801 -1.6053 -0.9371 -1.7262
29098SOL     OW93898   8.663   9.975   7.303  0.1876  0.5199 -0.1868
29098SOL    HW193899   8.580   9.995   7.260 -0.2629  0.7696  0.7621
29098SOL    HW293900   8.718  10.052   7.285  0.1851  0.3852 -0.7590
29099SOL     OW93901   6.744   8.780   3.316  0.5695 -0.4971  0.6126
29099SOL    HW193902   6.686   8.814   3.384 -0.5505  2.2125 -1.5300
29099SOL    HW293903   6.685   8.751   3.246  1.7303 -1.2600 -0.0797
29100SOL     OW93904   9.860   9.515   8.742  0.0881 -0.0782 -0.2105
29100SOL    HW193905   9.855   9.426   8.707 -0.6235 -0.9397  1.9423
29100SOL    HW293906   9.781   9.558   8.710 -0.8255 -1.0190  0.7161
29101SOL     OW93907   5.632   3.491   6.388 -0.1078 -0.1009 -0.5934
29101SOL    HW193908   5.660   3.470   6.299 -2.1396 -0.9195 -1.1071
29101SOL    HW293909   5.537   3.502   6.381 -0.2413  0.3996  1.3731
29102SOL     OW93910   8.235   6.938   9.485  0.3009 -0.5207 -0.0540
29102SOL    HW193911   8.200   7.003   9.425  1.5937  0.6724  0.4365
29102SOL    HW293912   8.159   6.889   9.515 -0.8215  1.2880  0.1816
29103SOL     OW93913   3.999   4.992   3.956 -0.0644  0.2997  0.6535
29103SOL    HW193914   3.975   4.900   3.952  2.9426 -0.5927  0.1450
29103SOL    HW293915   4.094   4.991   3.969 -0.0498  3.3483  1.6094
29104SOL     OW93916   0.976   3.520   2.525  0.5404 -0.2147 -0.2719
29104SOL    HW193917   0.885   3.548   2.538  0.7510  0.7964 -0.8964
29104SOL    HW293918   0.969   3.448   2.463  0.1239 -0.4911  0.0860
29105SOL     OW93919   4.306   4.359   5.191 -0.3567  0.1884 -0.2795
29105SOL    HW193920   4.279   4.278   5.148  0.1432  0.5867 -1.3781
29105SOL    HW293921   4.237   4.376   5.255 -0.6424 -0.9150 -0.2772
29106SOL     OW93922   3.804   1.896   9.080  0.2447  0.0547 -0.0668
29106SOL    HW193923   3.717   1.911   9.116 -0.4616 -0.4276 -1.5067
29106SOL    HW293924   3.789   1.851   8.997  1.8674  0.0130 -0.3837
29107SOL     OW93925  10.122  11.404   9.502  0.1715  0.0426  0.3618
29107SOL    HW193926  10.085  11.375   9.585 -1.7198  1.0010 -0.0832
29107SOL    HW293927  10.175  11.481   9.525  0.4425 -0.2699  0.7922
29108SOL     OW93928   6.898  10.018   1.468 -0.2352 -0.2620 -0.2566
29108SOL    HW193929   6.826  10.079   1.481 -0.8183 -1.0261  0.1865
29108SOL    HW293930   6.916   9.984   1.556 -0.5236 -1.3971 -0.6228
29109SOL     OW93931   4.342  11.381   0.251 -0.0599 -0.3507 -0.0669
29109SOL    HW193932   4.315  11.443   0.183 -2.7324  0.5597  1.6660
29109SOL    HW293933   4.411  11.427   0.299  0.2821 -0.0898 -0.7887
29110SOL     OW93934   4.779   1.606   8.625  0.0013  0.0607 -0.6848
29110SOL    HW193935   4.771   1.698   8.649  1.2747 -0.1398  0.6473
29110SOL    HW293936   4.706   1.590   8.565 -0.7544  1.7054 -0.2479
29111SOL     OW93937   0.539   9.918   5.032  0.0086 -0.1332  0.2417
29111SOL    HW193938   0.580  10.003   5.017  0.5193 -0.1041  1.6733
29111SOL    HW293939   0.458   9.920   4.980  1.0184  0.4155 -1.3600
29112SOL     OW93940   0.107   4.944   2.369 -0.1192 -0.4083 -0.3013
29112SOL    HW193941   0.198   4.973   2.369 -0.2634  0.2182 -2.1889
29112SOL    HW293942   0.075   4.963   2.457  1.1561  0.7849 -0.0666
29113SOL     OW93943   2.687   7.267   0.713 -0.1250  0.1301  0.4355
29113SOL    HW193944   2.660   7.325   0.784  1.6697  3.4686 -1.3559
29113SOL    HW293945   2.774   7.299   0.687  1.2866 -3.7764 -0.4302
29114SOL     OW93946   3.666  12.642   5.225  1.1018 -0.1373 -0.2283
29114SOL    HW193947   3.750  12.621   5.266  0.3223 -0.3284  1.3289
29114SOL    HW293948   3.676  12.732   5.195  1.8887 -0.1892 -0.1537
29115SOL     OW93949   0.541   4.407   9.922 -0.4810 -0.2796 -0.1439
29115SOL    HW193950   0.482   4.348   9.969 -0.8493  0.9390  0.9710
29115SOL    HW293951   0.583   4.458   9.990  0.5867  0.0631 -1.0356
29116SOL     OW93952   6.789  11.905   2.818 -0.0489 -0.0743  0.1205
29116SOL    HW193953   6.760  11.997   2.816 -2.5680 -0.8006 -0.8105
29116SOL    HW293954   6.746  11.869   2.896  1.6576 -0.2992  1.0003
29117SOL     OW93955   0.745   6.952   6.675 -0.1643 -0.7667 -0.6719
29117SOL    HW193956   0.671   7.013   6.671  0.0510 -0.4057  0.4455
29117SOL    HW293957   0.802   6.979   6.604  0.0213  0.4929 -0.0811
29118SOL     OW93958   8.468   2.341  10.306  0.5302 -0.1442 -0.6665
29118SOL    HW193959   8.472   2.319  10.213 -1.2295 -0.6950 -0.6569
29118SOL    HW293960   8.419   2.423  10.310  0.6139 -0.1107 -0.2185
29119SOL     OW93961   1.505   8.035   0.779  0.2293 -0.6760  0.5269
29119SOL    HW193962   1.593   7.997   0.775  0.3580 -0.2687 -1.7816
29119SOL    HW293963   1.453   7.979   0.722 -0.1927  1.0512 -0.8458
29120SOL     OW93964   4.046   3.947  12.696 -0.1448  0.1022  0.1310
29120SOL    HW193965   4.069   3.865  12.652  1.2069  0.0674  0.8286
29120SOL    HW293966   4.131   3.988  12.715 -0.7134  0.6417  1.6792
29121SOL     OW93967   7.095  10.058  10.910 -0.3403 -0.5325 -0.0179
29121SOL    HW193968   7.146  10.087  10.834  1.2965  0.3350  1.3615
29121SOL    HW293969   7.057  10.138  10.945  1.2836 -0.4767  1.7328
29122SOL     OW93970   9.431  10.305   3.088  0.1851  0.2427 -0.1120
29122SOL    HW193971   9.441  10.396   3.118  1.5797  0.0451  0.0600
29122SOL    HW293972   9.465  10.305   2.999 -3.7402  0.7766 -1.8225
29123SOL     OW93973  12.281  12.109  11.828 -0.3932  0.2990 -0.0844
29123SOL    HW193974  12.269  12.058  11.748 -0.3598 -1.6713  1.0932
29123SOL    HW293975  12.192  12.135  11.852 -0.5430 -0.1457 -0.1369
29124SOL     OW93976   7.029   6.113   4.879 -0.3319 -0.1585 -0.0772
29124SOL    HW193977   7.114   6.089   4.842  0.4036 -0.9403  1.9512
29124SOL    HW293978   7.022   6.207   4.864  0.9919 -0.0467 -0.1222
29125SOL     OW93979   8.946   1.109   6.728 -0.1057  0.1520 -0.2984
29125SOL    HW193980   8.936   1.109   6.633  1.1902 -0.4689 -0.4583
29125SOL    HW293981   8.906   1.191   6.757  2.0810  1.8217 -1.6993
29126SOL     OW93982   4.301   0.294   8.682 -0.1207  0.3397 -0.1137
29126SOL    HW193983   4.298   0.221   8.745 -0.1116  1.6095  1.4104
29126SOL    HW293984   4.385   0.337   8.699 -0.8808  1.7377  0.2401
29127SOL     OW93985   1.919  12.593  10.188 -0.0777 -0.2726  0.0812
29127SOL    HW193986   1.865  12.526  10.146  0.0499 -0.9322  0.9427
29127SOL    HW293987   1.910  12.576  10.282  1.5474 -0.3534  0.2553
29128SOL     OW93988   1.238  10.013  10.627  1.1616  0.8178 -0.4784
29128SOL    HW193989   1.216  10.105  10.610 -1.6228  0.4372  0.5469
29128SOL    HW293990   1.189   9.991  10.706  3.5142 -0.9892  0.5968
29129SOL     OW93991   9.223   5.658   0.617 -0.2673  0.1326 -0.4230
29129SOL    HW193992   9.166   5.650   0.541 -1.4237  0.1207  0.4158
29129SOL    HW293993   9.241   5.752   0.624 -1.7649  0.3897  0.3956
29130SOL     OW93994   4.846   0.035   8.051 -0.3785 -0.1836  0.1104
29130SOL    HW193995   4.816   0.096   8.119 -0.0034  0.0731  0.0469
29130SOL    HW293996   4.932   0.069   8.025 -0.2983 -0.5736 -0.1326
29131SOL     OW93997  11.926  10.609   2.734  0.3123 -0.5310  0.3251
29131SOL    HW193998  11.931  10.569   2.647  0.4244 -1.6310  0.8166
29131SOL    HW293999  11.862  10.680   2.725 -0.2326 -1.1068 -0.4724
29132SOL     OW94000   4.224   1.759   7.849 -0.0227 -0.0792 -0.2441
29132SOL    HW194001   4.281   1.686   7.870  0.8263 -0.2870 -2.9514
29132SOL    HW294002   4.262   1.833   7.896  0.8190 -0.7876  0.2245
29133SOL     OW94003   8.224   7.638   5.242 -0.2724 -0.2190 -0.4196
29133SOL    HW194004   8.169   7.694   5.187  0.5011 -0.7796 -1.8385
29133SOL    HW294005   8.298   7.694   5.267 -1.8733  0.8570  2.3506
29134SOL     OW94006   7.137   0.394   6.048  0.1680 -0.3596 -0.0040
29134SOL    HW194007   7.054   0.392   6.094  0.3496 -1.9723  0.3076
29134SOL    HW294008   7.129   0.468   5.988 -2.0260 -1.2635 -0.9416
29135SOL     OW94009   6.310   3.315   6.690  0.4627 -0.1361  0.0451
29135SOL    HW194010   6.294   3.223   6.712 -0.1601  0.1198  0.6851
29135SOL    HW294011   6.249   3.334   6.619  1.0378 -0.3817 -0.5336
29136SOL     OW94012   7.936   5.206  11.298 -0.0955  0.1890  0.5134
29136SOL    HW194013   7.936   5.163  11.384  0.3742 -0.6995  0.0794
29136SOL    HW294014   8.029   5.215  11.276 -0.2264 -0.6682 -0.4288
29137SOL     OW94015   4.755  11.065  10.189  0.4501  0.0741  0.0328
29137SOL    HW194016   4.834  11.065  10.135  0.9534 -1.3750  0.7425
29137SOL    HW294017   4.743  10.974  10.215 -0.5434  0.5280  1.2696
29138SOL     OW94018  11.674   8.770   9.847  0.4246  0.3287  0.4421
29138SOL    HW194019  11.742   8.738   9.789  1.1399 -0.1072  1.4939
29138SOL    HW294020  11.663   8.702   9.913 -1.5498  0.0624 -0.0879
29139SOL     OW94021   8.377   7.099  11.986  0.3560 -0.8862 -0.1552
29139SOL    HW194022   8.450   7.088  12.047 -0.8069 -0.1826  1.4271
29139SOL    HW294023   8.305   7.130  12.040 -0.4366  0.8528 -2.0823
29140SOL     OW94024   9.675   9.248  11.429  0.5875  0.7384 -0.2778
29140SOL    HW194025   9.745   9.190  11.458  0.1060  0.5466  0.5263
29140SOL    HW294026   9.640   9.206  11.351  0.4827  0.1340  0.0894
29141SOL     OW94027   9.978   7.572  10.725  0.7907  0.0070 -0.3620
29141SOL    HW194028   9.891   7.535  10.716  0.7123  0.4003 -1.3583
29141SOL    HW294029  10.038   7.499  10.708  0.6779 -0.3666  0.7539
29142SOL     OW94030   6.818   0.729   9.607  0.1212 -0.2847 -0.2611
29142SOL    HW194031   6.895   0.735   9.664  0.9141 -0.6618 -1.2418
29142SOL    HW294032   6.847   0.769   9.525 -1.7997  2.5933  0.3400
29143SOL     OW94033   9.793   0.385   7.677  0.2187  0.4477 -0.2180
29143SOL    HW194034   9.728   0.336   7.727  0.6718 -0.2342 -0.2919
29143SOL    HW294035   9.741   0.445   7.624 -0.4726 -1.0654 -1.3352
29144SOL     OW94036   3.511  12.325   2.568  0.3262 -0.4003 -0.6223
29144SOL    HW194037   3.593  12.349   2.610 -0.8260  2.2529  0.3071
29144SOL    HW294038   3.528  12.336   2.474  1.4637 -1.5433 -0.5879
29145SOL     OW94039  11.485   2.746   5.282 -0.0889  0.5559  0.5723
29145SOL    HW194040  11.459   2.710   5.197 -0.0311  0.7651  0.4674
29145SOL    HW294041  11.403   2.776   5.322 -0.0127  1.2235  0.2378
29146SOL     OW94042   0.675   8.668   8.872 -0.2609  0.3149 -0.1303
29146SOL    HW194043   0.754   8.663   8.925 -0.3985  0.6294  0.1052
29146SOL    HW294044   0.706   8.687   8.783 -0.0613  0.2625 -0.0705
29147SOL     OW94045   6.927   0.707   3.560  0.0410  0.3281  0.4641
29147SOL    HW194046   6.902   0.788   3.516  0.1741  0.2702  0.2793
29147SOL    HW294047   6.893   0.716   3.649  0.2549  0.6871  0.5135
29148SOL     OW94048   2.941   2.368   6.867  0.3115 -0.0549  0.3913
29148SOL    HW194049   2.863   2.408   6.828 -1.0587 -2.4255  0.4926
29148SOL    HW294050   2.960   2.293   6.810  2.1791  0.1460  0.7094
29149SOL     OW94051   3.585   2.383   1.362  0.3719  0.6021  0.1367
29149SOL    HW194052   3.603   2.432   1.282  0.5901  0.6772  0.2325
29149SOL    HW294053   3.500   2.342   1.346 -0.0336  1.3693  0.2257
29150SOL     OW94054   5.891  10.215   5.890 -0.2264 -0.2821  0.0992
29150SOL    HW194055   5.949  10.248   5.958  0.3077  0.7301 -0.8186
29150SOL    HW294056   5.804  10.242   5.917 -0.0229  0.0706  0.4079
29151SOL     OW94057   7.442   5.908   9.972 -0.2602 -0.4135  0.1139
29151SOL    HW194058   7.477   5.962  10.042  1.7885 -0.7032 -0.6155
29151SOL    HW294059   7.463   5.955   9.892 -2.1355 -0.3281 -0.3755
29152SOL     OW94060  12.121   5.737   1.691  0.0190  0.2775  0.4921
29152SOL    HW194061  12.147   5.809   1.748  0.0904 -0.2938  1.2005
29152SOL    HW294062  12.042   5.701   1.731 -0.7386  0.7346 -0.5447
29153SOL     OW94063   1.641  10.765  11.117  0.5979 -0.3621  0.3671
29153SOL    HW194064   1.701  10.715  11.060  0.6029  0.3600 -0.2708
29153SOL    HW294065   1.567  10.706  11.131  0.0176 -0.1136 -1.4188
29154SOL     OW94066   1.957   1.408   1.981  0.3451 -0.0818 -0.0101
29154SOL    HW194067   2.005   1.342   1.931 -0.2268  0.4190 -1.2580
29154SOL    HW294068   2.025   1.458   2.026  0.9276 -0.1052 -0.8415
29155SOL     OW94069   1.357   8.249  10.209 -0.0067 -0.9871 -0.6597
29155SOL    HW194070   1.354   8.194  10.286  1.4984 -0.5074 -0.2397
29155SOL    HW294071   1.433   8.305  10.221 -0.8892  0.4884 -1.5460
29156SOL     OW94072  11.001   3.847   5.685 -0.0254 -0.1543  0.4774
29156SOL    HW194073  11.027   3.786   5.755  0.1703 -1.3142 -0.5640
29156SOL    HW294074  10.905   3.846   5.687 -0.0206  0.5003  1.2905
29157SOL     OW94075   8.427   8.711   5.210  0.0338  0.0734 -0.3738
29157SOL    HW194076   8.499   8.718   5.147 -0.4900  0.3344 -0.9534
29157SOL    HW294077   8.367   8.780   5.185 -0.0628  0.3562  0.5888
29158SOL     OW94078   9.907   6.475  12.629  0.1059  0.4922 -1.0579
29158SOL    HW194079   9.997   6.507  12.631 -0.0118  0.7896 -0.0117
29158SOL    HW294080   9.900   6.427  12.546  0.5246  2.4923 -2.3365
29159SOL     OW94081   5.621   0.310   8.743 -0.2669 -0.4634  0.2181
29159SOL    HW194082   5.558   0.376   8.714  1.0305  0.9170  0.4328
29159SOL    HW294083   5.686   0.307   8.673 -0.0379 -1.1387  0.4520
29160SOL     OW94084   3.734   8.896  12.294  0.7399 -0.4425 -0.1428
29160SOL    HW194085   3.750   8.847  12.213  1.9621 -1.1892  0.5176
29160SOL    HW294086   3.732   8.828  12.362  1.4914  0.3349  0.6702
29161SOL     OW94087   1.537  10.435   8.529  0.4940 -0.7298 -0.5324
29161SOL    HW194088   1.547  10.510   8.586 -0.5077 -0.1064 -1.1461
29161SOL    HW294089   1.497  10.367   8.584 -1.2777  0.1486 -0.6723
29162SOL     OW94090   5.209   5.528   8.936  0.2592  0.2034 -0.1027
29162SOL    HW194091   5.131   5.540   8.882  0.7277  1.1604 -0.5973
29162SOL    HW294092   5.183   5.467   9.005 -1.0926  0.9732  0.0877
29163SOL     OW94093   9.224   9.647   7.370  0.5162  0.3152 -0.0011
29163SOL    HW194094   9.252   9.664   7.280  0.2822  1.1024  0.0646
29163SOL    HW294095   9.286   9.697   7.424  0.0251  0.6951  0.2214
29164SOL     OW94096   1.019   7.398   5.619 -0.1591  0.0702 -0.0557
29164SOL    HW194097   0.963   7.334   5.575 -0.6307 -0.2073  0.9210
29164SOL    HW294098   1.107   7.361   5.612 -0.5432 -1.2294  1.3543
29165SOL     OW94099   5.101   9.193   6.014  0.2897 -0.5036 -0.2220
29165SOL    HW194100   5.190   9.228   6.004  0.1641 -0.6940 -2.6610
29165SOL    HW294101   5.054   9.224   5.936 -1.4336 -1.4697  0.3712
29166SOL     OW94102   6.267   2.971   7.941  0.4687  0.2062 -0.8493
29166SOL    HW194103   6.292   2.990   7.850  0.4673  0.5431 -0.7812
29166SOL    HW294104   6.305   2.885   7.959  0.9818  0.4055 -0.9745
29167SOL     OW94105  10.074   5.605   5.067  0.2263  0.0675  0.0877
29167SOL    HW194106  10.108   5.518   5.087 -1.2618 -0.2671  1.3845
29167SOL    HW294107   9.990   5.588   5.023 -0.1187  0.8300  0.4306
29168SOL     OW94108   8.953   3.366   9.894 -0.2647  0.4819 -0.0860
29168SOL    HW194109   8.909   3.368   9.979  1.1117 -1.7944  0.7820
29168SOL    HW294110   9.016   3.438   9.898 -0.0216  0.2280  0.9619
29169SOL     OW94111  10.096   6.974   1.754  0.7293  0.1711 -0.1217
29169SOL    HW194112  10.031   7.034   1.717 -0.3335 -0.0149  1.3409
29169SOL    HW294113  10.164   6.968   1.687  0.7487  2.7884 -0.4614
29170SOL     OW94114   4.601  12.439   1.408 -0.5912 -0.2518  0.1938
29170SOL    HW194115   4.672  12.377   1.397 -0.3653 -0.2084  1.3053
29170SOL    HW294116   4.525  12.397   1.367  0.1148 -0.1819 -1.2256
29171SOL     OW94117   8.531  12.174   7.481 -0.0001  0.0539 -0.0100
29171SOL    HW194118   8.605  12.229   7.510  1.5047 -1.7854 -0.1457
29171SOL    HW294119   8.572  12.093   7.451 -2.0881 -0.9265 -0.3929
29172SOL     OW94120   0.899   5.666   8.980  0.1564  0.0799 -0.1635
29172SOL    HW194121   0.922   5.678   9.072  2.8570  0.3563 -0.7981
29172SOL    HW294122   0.909   5.753   8.941  0.7036 -0.3519 -1.0246
29173SOL     OW94123   9.947   6.833   4.028  0.0606 -0.0269  0.0455
29173SOL    HW194124   9.880   6.870   3.970 -0.9005  0.5667  1.4895
29173SOL    HW294125  10.029   6.863   3.990 -0.6405  3.3307  0.8576
29174SOL     OW94126   4.560   5.196  11.608  0.2780  0.2466  0.5592
29174SOL    HW194127   4.626   5.215  11.674 -1.1561  0.3808  2.0182
29174SOL    HW294128   4.495   5.142  11.654  0.8842 -2.6293 -1.6353
29175SOL     OW94129  12.192   2.759   5.891  0.4911  0.6318 -0.4030
29175SOL    HW194130  12.118   2.740   5.834 -1.5364  2.7757  1.2895
29175SOL    HW294131  12.201   2.682   5.947 -0.9793  0.6153 -0.1628
29176SOL     OW94132  11.057   3.228  11.104 -0.6343 -0.1332  0.1505
29176SOL    HW194133  11.097   3.175  11.035 -0.0191  0.0431  0.3693
29176SOL    HW294134  11.126   3.238  11.170 -0.5218  1.4434 -0.1608
29177SOL     OW94135  10.098   8.334   2.508 -0.2336 -0.4360  0.8056
29177SOL    HW194136  10.156   8.407   2.487 -0.9176 -0.4111 -1.1567
29177SOL    HW294137  10.018   8.376   2.541 -0.0104 -0.3804  1.2847
29178SOL     OW94138  10.558  11.102  12.397  0.2166 -0.1295 -0.4240
29178SOL    HW194139  10.642  11.067  12.367 -0.0126  0.3093 -1.6504
29178SOL    HW294140  10.515  11.028  12.440  1.4222 -0.2290  0.6782
29179SOL     OW94141   6.725   0.013  12.756  0.0907  0.0933 -0.1867
29179SOL    HW194142   6.807  -0.027  12.786 -0.6921 -0.3505  1.4534
29179SOL    HW294143   6.705  -0.032  12.674  0.5334 -1.1279  0.3501
29180SOL     OW94144   3.181  10.887   7.897 -0.4338 -0.4800 -0.2856
29180SOL    HW194145   3.212  10.973   7.924 -0.8001 -1.2731  3.1399
29180SOL    HW294146   3.252  10.852   7.842 -0.5122  2.0913 -2.1893
29181SOL     OW94147   0.560   2.110   1.199 -0.1545  0.4406  0.2263
29181SOL    HW194148   0.532   2.175   1.134 -1.3859 -0.4982 -0.2258
29181SOL    HW294149   0.653   2.128   1.212 -0.6057  2.7068  0.6229
29182SOL     OW94150  12.777  10.449   7.483 -0.2914  0.2093  0.1258
29182SOL    HW194151  12.751  10.358   7.494 -1.5039  0.2583 -1.8329
29182SOL    HW294152  12.708  10.488   7.429  0.7719  2.0013 -0.0420
29183SOL     OW94153   8.972  11.466  12.041 -0.4334  0.6572  0.2725
29183SOL    HW194154   9.011  11.458  11.954  3.3292  0.8904  1.7578
29183SOL    HW294155   9.041  11.505  12.095 -2.0540 -0.7956  3.7119
29184SOL     OW94156   0.426   6.210   2.599  0.2970  0.3118  0.1909
29184SOL    HW194157   0.380   6.212   2.683  1.6518 -0.5201  1.0072
29184SOL    HW294158   0.467   6.124   2.597  0.1235  0.2431 -1.4431
29185SOL     OW94159   9.813  10.577   7.412 -0.6227  0.1657 -0.2618
29185SOL    HW194160   9.783  10.547   7.326 -0.2743  0.1308 -0.3748
29185SOL    HW294161   9.833  10.497   7.460  0.0966  0.2052 -0.4860
29186SOL     OW94162   0.663   4.617   2.765 -0.2507  0.5240  0.5661
29186SOL    HW194163   0.598   4.675   2.725  0.4715  1.8410  1.2044
29186SOL    HW294164   0.740   4.623   2.708 -0.6083 -0.8697 -0.0814
29187SOL     OW94165   9.420  10.655   6.819  0.5065  0.1499  0.2115
29187SOL    HW194166   9.349  10.694   6.870 -1.9685 -0.4459 -2.4778
29187SOL    HW294167   9.445  10.724   6.757 -1.4258 -1.1867 -2.2277
29188SOL     OW94168   8.576  10.921   8.079 -0.0857  0.0579 -0.0031
29188SOL    HW194169   8.532  10.854   8.131 -1.6023  0.3678 -0.8515
29188SOL    HW294170   8.624  10.973   8.144  0.4632 -1.3316  0.7486
29189SOL     OW94171   5.629   2.321   3.275  0.0224  0.7978 -0.6425
29189SOL    HW194172   5.582   2.334   3.358  1.4466 -2.1017  0.7611
29189SOL    HW294173   5.562   2.330   3.208 -2.2612 -1.4658  1.1392
29190SOL     OW94174   3.765   4.375   6.272 -0.4542 -0.2133 -0.4242
29190SOL    HW194175   3.719   4.458   6.261 -0.7906 -0.5539 -1.8021
29190SOL    HW294176   3.704   4.321   6.323  0.6542  1.0313  2.4644
29191SOL     OW94177  10.643   0.882   2.317 -0.3388 -0.3814  0.2092
29191SOL    HW194178  10.631   0.969   2.355 -0.5388  0.3621 -1.4395
29191SOL    HW294179  10.718   0.892   2.259 -0.6679 -1.1743 -0.3669
29192SOL     OW94180   7.427   7.881   1.725 -0.1397 -0.7977  0.1777
29192SOL    HW194181   7.352   7.875   1.666 -0.4808  2.8480  0.0126
29192SOL    HW294182   7.494   7.825   1.685 -1.1782 -0.3553 -2.3369
29193SOL     OW94183  11.084   6.843   3.154 -0.6575 -0.0300 -0.5721
29193SOL    HW194184  11.088   6.910   3.222 -0.5366 -0.9763  0.3668
29193SOL    HW294185  11.170   6.803   3.153 -0.4304  0.4250 -1.7807
29194SOL     OW94186   7.520   4.810   3.926  0.1700  0.6342 -0.8587
29194SOL    HW194187   7.615   4.808   3.939  0.1296  0.7458 -0.5208
29194SOL    HW294188   7.485   4.833   4.012 -0.1967  0.0819 -0.8569
29195SOL     OW94189   7.761   7.711  11.578 -0.5460 -0.0013  0.4793
29195SOL    HW194190   7.723   7.768  11.511  0.0471  1.2830  1.1841
29195SOL    HW294191   7.826   7.660  11.531 -0.1408  0.8752  0.0538
29196SOL     OW94192   6.192   1.972   2.859  0.2442 -0.1973 -1.1197
29196SOL    HW194193   6.245   1.997   2.783  1.4824  1.9022  0.3191
29196SOL    HW294194   6.256   1.962   2.930 -1.1336  2.7206  0.7575
29197SOL     OW94195   9.008  10.204  12.384  0.3460  0.3673 -0.0496
29197SOL    HW194196   8.974  10.244  12.464  1.1636  1.7460 -0.3623
29197SOL    HW294197   9.081  10.150  12.413 -1.3767 -1.8292  0.5024
29198SOL     OW94198   8.913   9.272  10.574 -0.2944 -0.3243 -0.4568
29198SOL    HW194199   8.871   9.346  10.618  1.4913  0.4154  0.0896
29198SOL    HW294200   8.871   9.267  10.488 -0.6511  1.1248 -0.3837
29199SOL     OW94201   1.786  11.437   8.301 -0.4455  0.1037 -0.4266
29199SOL    HW194202   1.692  11.440   8.286 -0.3740 -1.1674 -1.3674
29199SOL    HW294203   1.820  11.515   8.256 -1.0445  0.5732 -0.0732
29200SOL     OW94204   9.113   5.845   9.266 -0.4036 -0.1881  0.4747
29200SOL    HW194205   9.068   5.790   9.202 -1.2792  1.0502 -0.0104
29200SOL    HW294206   9.206   5.827   9.251 -0.6279 -0.5931 -0.5304
29201SOL     OW94207   3.426   0.570   5.162 -0.0238 -0.0659  0.3016
29201SOL    HW194208   3.357   0.609   5.216 -1.4793  0.6576 -1.9658
29201SOL    HW294209   3.391   0.484   5.138  0.8446 -0.6007  0.8786
29202SOL     OW94210   1.143   6.694   2.108  0.1512 -0.4017  0.1395
29202SOL    HW194211   1.230   6.726   2.131 -0.9742  2.5482  0.6856
29202SOL    HW294212   1.114   6.749   2.036 -1.5629 -0.8050  0.4625
29203SOL     OW94213   1.452   6.920   1.943  0.2385 -0.1397  0.7081
29203SOL    HW194214   1.402   7.001   1.934  2.0011  0.9929  0.5457
29203SOL    HW294215   1.505   6.916   1.863  0.1542 -1.5084  0.6893
29204SOL     OW94216   3.430   5.237   7.707 -0.3741  0.5451  0.0607
29204SOL    HW194217   3.441   5.331   7.694 -0.2962  0.5737  0.3266
29204SOL    HW294218   3.519   5.204   7.721 -0.3346  0.3411 -0.5965
29205SOL     OW94219   5.843   2.567   5.080 -0.3516 -0.4140  0.0006
29205SOL    HW194220   5.853   2.616   5.162 -0.4719  1.1904 -0.8961
29205SOL    HW294221   5.913   2.601   5.024 -0.1332 -1.6529 -0.5137
29206SOL     OW94222   4.135  12.235   3.652  0.4174 -0.4029  0.3373
29206SOL    HW194223   4.095  12.163   3.702 -1.7515 -0.1027 -0.8862
29206SOL    HW294224   4.220  12.200   3.626 -0.5236 -2.5212 -0.1303
29207SOL     OW94225   7.920  12.096   7.448 -0.6774  0.6834 -1.1231
29207SOL    HW194226   8.007  12.068   7.422 -0.4562 -2.2820  2.0024
29207SOL    HW294227   7.934  12.174   7.501 -0.1008  0.9859 -1.7158
29208SOL     OW94228   2.363   8.541   1.522 -0.0957 -0.1528 -0.3956
29208SOL    HW194229   2.328   8.488   1.451  1.3158 -0.3030 -1.0102
29208SOL    HW294230   2.285   8.572   1.569 -1.0478 -0.3357 -1.7815
29209SOL     OW94231  11.235  10.028   9.208  0.4417 -0.6285 -0.2147
29209SOL    HW194232  11.184  10.109   9.215 -1.6470 -1.8092 -0.9204
29209SOL    HW294233  11.298  10.034   9.279 -0.7772  0.8722  0.8226
29210SOL     OW94234   4.773   4.030   2.423 -0.1118  0.3098  0.4546
29210SOL    HW194235   4.686   4.034   2.463 -1.3377  1.0224 -2.0261
29210SOL    HW294236   4.810   3.947   2.454 -1.7610 -0.0987  1.4487
29211SOL     OW94237   9.650  12.598   1.877 -0.1580  0.3963 -0.1898
29211SOL    HW194238   9.638  12.692   1.863  2.3147  0.5282 -1.9565
29211SOL    HW294239   9.688  12.593   1.965 -0.1799  1.0664 -0.1297
29212SOL     OW94240   9.960   0.432   3.493  0.1571  0.3360 -0.3478
29212SOL    HW194241  10.010   0.431   3.412  1.9342  0.7849  0.6712
29212SOL    HW294242   9.870   0.416   3.467  0.8500 -0.7307 -2.2698
29213SOL     OW94243  11.304   9.372   7.212 -0.4228 -0.2225  0.1600
29213SOL    HW194244  11.264   9.456   7.192 -2.2691 -1.0119  0.2968
29213SOL    HW294245  11.320   9.375   7.306 -2.0824 -0.6206  0.4864
29214SOL     OW94246   9.559   6.088   0.846  0.1946 -0.0446 -0.3785
29214SOL    HW194247   9.578   6.016   0.786  1.1214  1.9917 -2.6931
29214SOL    HW294248   9.466   6.080   0.864  0.0877 -1.2794 -1.3162
29215SOL     OW94249   5.234  11.523   1.738 -0.1764  0.3823  0.5969
29215SOL    HW194250   5.295  11.542   1.667 -0.5147 -0.2896  0.1151
29215SOL    HW294251   5.253  11.589   1.804  0.9025  0.3369  0.3499
29216SOL     OW94252  12.072   4.850   6.638  0.1303 -0.4231 -0.0120
29216SOL    HW194253  12.137   4.920   6.643  0.2923 -0.6400  1.0297
29216SOL    HW294254  12.085   4.812   6.551  0.2849  0.5941 -0.4472
29217SOL     OW94255   1.682   0.879   0.791 -0.5900 -0.1177 -0.5400
29217SOL    HW194256   1.736   0.957   0.808 -1.5138  0.4320 -0.0440
29217SOL    HW294257   1.592   0.909   0.806 -0.8952 -1.5163  0.5835
29218SOL     OW94258  11.220   4.726  11.969 -0.0771 -0.0256 -0.2266
29218SOL    HW194259  11.169   4.673  11.908 -0.9834 -0.8616  1.1835
29218SOL    HW294260  11.283   4.773  11.914  0.1923 -1.9155 -1.6481
29219SOL     OW94261   3.070   3.648   7.961 -0.1434  0.4812  0.4931
29219SOL    HW194262   2.995   3.707   7.956  1.1652  2.1504 -1.9644
29219SOL    HW294263   3.145   3.703   7.936  1.4034 -1.8171 -0.2667
29220SOL     OW94264   7.861   3.314   3.720  0.2681 -0.0586 -0.0286
29220SOL    HW194265   7.926   3.336   3.653 -0.1460  0.1565 -0.3649
29220SOL    HW294266   7.804   3.251   3.677  1.1560 -1.4464  0.7652
29221SOL     OW94267   3.311   5.407   8.273  0.4045  0.6919  0.3617
29221SOL    HW194268   3.254   5.482   8.254  1.0336  1.1427  0.2338
29221SOL    HW294269   3.395   5.446   8.298  0.5012  0.0491  1.1048
29222SOL     OW94270   4.174  12.778   4.863 -0.0304  0.1288 -0.1728
29222SOL    HW194271   4.159  12.872   4.860  2.2258  0.5712  0.2973
29222SOL    HW294272   4.133  12.744   4.784 -0.4091  1.5905 -0.6310
29223SOL     OW94273   6.098   5.369  11.952 -0.2635  0.2806 -0.0531
29223SOL    HW194274   6.061   5.457  11.957 -2.5703 -0.5832 -0.5663
29223SOL    HW294275   6.068   5.326  12.032 -1.1290 -0.6791 -0.8507
29224SOL     OW94276  12.537  10.896   0.886 -0.0310 -0.0914  0.1532
29224SOL    HW194277  12.630  10.917   0.877  0.2578 -1.4311 -0.2204
29224SOL    HW294278  12.522  10.897   0.980  1.1671 -2.9411  0.4741
29225SOL     OW94279   9.097   1.499   0.679 -0.0337  0.3409 -0.8045
29225SOL    HW194280   9.014   1.542   0.701 -0.4906 -1.4127  1.1095
29225SOL    HW294281   9.155   1.520   0.751  0.1132 -1.2075 -0.4490
29226SOL     OW94282   4.099   3.407   3.191 -0.3788 -0.6913 -0.3617
29226SOL    HW194283   4.127   3.367   3.274 -0.6696  0.0123  0.0866
29226SOL    HW294284   4.123   3.343   3.124 -0.2248 -1.3160  0.2769
29227SOL     OW94285  12.042   2.110   4.194  0.0108 -0.0652 -0.0148
29227SOL    HW194286  12.083   2.131   4.278 -0.0226  0.0332 -0.0225
29227SOL    HW294287  12.066   2.019   4.177  2.6950  0.7977 -1.4084
29228SOL     OW94288   6.833   7.398   9.448  0.3069 -0.1829 -0.3798
29228SOL    HW194289   6.872   7.340   9.514 -0.0946 -0.5718 -0.4806
29228SOL    HW294290   6.739   7.384   9.457  0.1732  0.8485 -0.0528
29229SOL     OW94291   7.744   5.359   3.046  0.3620 -0.2944 -0.4910
29229SOL    HW194292   7.801   5.424   3.086  0.2111  0.0479 -0.8264
29229SOL    HW294293   7.803   5.300   2.999  0.3980  0.5751 -1.5880
29230SOL     OW94294   1.479   5.624   1.483  0.2216  0.1296  0.2514
29230SOL    HW194295   1.422   5.701   1.492 -1.6956 -1.2230  0.3062
29230SOL    HW294296   1.419   5.550   1.486  1.7688 -1.3150 -2.0603
29231SOL     OW94297  10.536  12.403   8.596  0.1732  0.0497  1.0417
29231SOL    HW194298  10.443  12.388   8.611  0.3329 -0.4448  1.5895
29231SOL    HW294299  10.555  12.485   8.642  0.4232 -0.8938  2.7257
29232SOL     OW94300   0.380  10.794   1.537 -0.3590  0.1018 -0.4165
29232SOL    HW194301   0.411  10.740   1.464 -0.3363  0.1479 -0.4404
29232SOL    HW294302   0.408  10.746   1.615 -1.5474 -0.6467 -0.4242
29233SOL     OW94303   7.817   5.757  12.741 -0.3802 -0.3463 -0.2601
29233SOL    HW194304   7.740   5.811  12.725 -0.9420 -0.4388  1.8992
29233SOL    HW294305   7.865   5.801  12.811  0.5652 -1.2589 -0.2980
29234SOL     OW94306   4.591   0.970   8.701  0.0682  0.6645  0.0417
29234SOL    HW194307   4.607   0.992   8.793  3.7444 -3.5984  0.7563
29234SOL    HW294308   4.664   1.012   8.654  1.5500 -1.6874  0.0789
29235SOL     OW94309   6.984   6.200  12.477 -0.0282 -0.0463 -0.5562
29235SOL    HW194310   7.030   6.231  12.554 -0.7081  3.0052 -1.2287
29235SOL    HW294311   7.047   6.144  12.432  0.7270 -1.0581  1.6339
29236SOL     OW94312  10.849   4.130   4.809  0.1510 -0.2512  0.0036
29236SOL    HW194313  10.804   4.214   4.808 -0.5973 -0.6236 -1.5488
29236SOL    HW294314  10.937   4.149   4.841 -0.1033  1.0728 -0.0514
29237SOL     OW94315   6.602   5.987  10.208  0.4825 -0.3140  0.2761
29237SOL    HW194316   6.690   6.003  10.172  1.3405 -1.6311  1.6921
29237SOL    HW294317   6.592   5.892  10.205 -1.0624 -0.1588 -0.1897
29238SOL     OW94318   2.124   3.243   6.680 -0.0999 -0.0873 -0.2344
29238SOL    HW194319   2.147   3.331   6.648  0.7860 -0.3136 -0.2436
29238SOL    HW294320   2.040   3.224   6.639 -0.4143  0.8527 -0.0486
29239SOL     OW94321   3.928   6.651   5.733  0.2006 -0.3693 -0.0380
29239SOL    HW194322   3.939   6.574   5.676 -0.9885  0.0495 -0.8677
29239SOL    HW294323   3.957   6.725   5.678 -0.8538  0.0273 -0.0752
29240SOL     OW94324   8.342  12.192   2.916 -0.0357 -1.0372  0.2703
29240SOL    HW194325   8.256  12.234   2.914 -0.1547 -1.2836  0.1055
29240SOL    HW294326   8.350  12.150   2.830 -0.7438 -2.9820  1.1029
29241SOL     OW94327   8.471   5.234   1.587  0.0345  0.3809 -0.2058
29241SOL    HW194328   8.386   5.190   1.583  0.3173 -0.3357  1.2835
29241SOL    HW294329   8.463   5.297   1.658  0.9458 -0.1630  0.4059
29242SOL     OW94330   0.769   8.125   2.696  0.1567 -0.4155 -0.2965
29242SOL    HW194331   0.782   8.092   2.785 -0.3356  0.8074  0.2517
29242SOL    HW294332   0.830   8.198   2.689  0.7373 -0.9784 -1.2469
29243SOL     OW94333  12.173  10.959   4.528  0.4179 -0.1681  0.1598
29243SOL    HW194334  12.188  10.956   4.433  0.8202 -1.3864  0.2484
29243SOL    HW294335  12.221  10.884   4.562 -0.9255 -0.6032  1.1767
29244SOL     OW94336   3.003   7.017   2.754 -0.3798 -0.2714 -0.4342
29244SOL    HW194337   3.042   7.048   2.835 -0.3223 -0.7643 -0.2677
29244SOL    HW294338   3.072   6.963   2.713  0.7192  2.3374 -2.2992
29245SOL     OW94339  12.346   1.789  11.978  0.7881 -0.1278  0.0586
29245SOL    HW194340  12.371   1.701  12.005  1.8095 -0.0579 -0.6014
29245SOL    HW294341  12.409   1.812  11.909 -0.3816  0.5459 -0.8218
29246SOL     OW94342   6.981  12.100   1.002 -0.7019  0.0202 -0.3516
29246SOL    HW194343   6.969  12.071   0.911  2.0316 -0.2576 -0.7020
29246SOL    HW294344   7.076  12.114   1.010 -1.0994  1.9793  1.9006
29247SOL     OW94345   7.995   9.937  10.242  0.7212  0.0378  0.2878
29247SOL    HW194346   7.907   9.960  10.212  1.0008  1.9846  0.8036
29247SOL    HW294347   8.040   9.907  10.163  0.0141  0.3900 -0.2612
29248SOL     OW94348  11.255   2.449  10.998 -0.0815 -0.3846 -0.7151
29248SOL    HW194349  11.162   2.427  10.994  0.2503 -1.7712 -1.3195
29248SOL    HW294350  11.286   2.411  11.080 -0.4175  1.7211  0.4449
29249SOL     OW94351   8.106   8.640   6.544  0.3286 -0.3115 -0.5734
29249SOL    HW194352   8.138   8.672   6.460 -0.1019  1.4625 -0.0877
29249SOL    HW294353   8.185   8.631   6.598  0.9076 -3.4940 -1.7139
29250SOL     OW94354  12.404   4.903   8.811  0.3819 -0.2113 -0.7116
29250SOL    HW194355  12.403   4.880   8.903 -1.1897  1.1786 -0.3260
29250SOL    HW294356  12.386   4.821   8.765  0.9983 -0.8822  0.2086
29251SOL     OW94357  11.256  11.610   7.276  0.1915  0.4970 -0.1086
29251SOL    HW194358  11.173  11.639   7.314  1.4451  3.2779  0.7849
29251SOL    HW294359  11.313  11.598   7.352  0.3677 -2.6120 -0.6067
29252SOL     OW94360   5.567   5.513   4.045 -0.6136 -0.1664  0.4170
29252SOL    HW194361   5.617   5.432   4.040 -1.0210 -0.3199 -1.7559
29252SOL    HW294362   5.629   5.576   4.082  0.0044 -1.2087  1.2138
29253SOL     OW94363   3.318   8.979   1.130  0.0661  0.3026 -0.4807
29253SOL    HW194364   3.378   8.918   1.172 -0.7494 -0.0185  0.2588
29253SOL    HW294365   3.262   9.011   1.201  0.9234  2.5049 -0.7001
29254SOL     OW94366  10.038   9.953   2.619 -0.2361 -0.4681  0.5342
29254SOL    HW194367  10.063  10.018   2.553  1.0377  0.4726  1.8744
29254SOL    HW294368  10.038   9.870   2.571 -0.7027  0.3344 -0.9434
29255SOL     OW94369   7.949   8.195   0.199  0.4017 -0.1362  0.2237
29255SOL    HW194370   7.971   8.267   0.139  0.8594 -0.1684  0.3475
29255SOL    HW294371   7.877   8.229   0.251  2.7341  1.5694  2.6032
29256SOL     OW94372   9.038   5.583   2.851 -0.7198 -0.1265  0.1390
29256SOL    HW194373   8.972   5.554   2.914 -1.5605  2.9336  0.8585
29256SOL    HW294374   9.048   5.677   2.869  3.7595 -0.3796 -0.0690
29257SOL     OW94375   4.479   3.027   2.023 -0.2147  0.7716 -0.1843
29257SOL    HW194376   4.446   2.937   2.010  0.4274  0.6729 -1.2132
29257SOL    HW294377   4.428   3.080   1.961  0.4767  0.8625 -0.6848
29258SOL     OW94378   3.197   5.072  10.085 -0.1488 -0.7169  0.1514
29258SOL    HW194379   3.104   5.057  10.070 -0.1749 -0.1436 -0.3442
29258SOL    HW294380   3.209   5.165  10.065  0.7135 -1.0125 -0.8010
29259SOL     OW94381   3.892   7.275   8.169  0.5264 -0.0530  0.3114
29259SOL    HW194382   3.815   7.264   8.225  0.0209 -4.3183 -0.8823
29259SOL    HW294383   3.955   7.211   8.201  1.0434 -1.1270 -2.5287
29260SOL     OW94384  11.180   7.231   2.430 -0.3191  0.4479 -0.5034
29260SOL    HW194385  11.183   7.136   2.444 -0.4932  0.7884  2.5423
29260SOL    HW294386  11.263   7.263   2.466 -1.0741  1.6003  0.2760
29261SOL     OW94387  12.707   1.674   1.858 -0.4474 -0.1348 -0.3854
29261SOL    HW194388  12.623   1.630   1.873  0.4880 -1.3134  1.7859
29261SOL    HW294389  12.755   1.664   1.940 -0.0110  4.7902  0.3157
29262SOL     OW94390   7.625  12.632   6.099  0.0362 -0.7306  0.1640
29262SOL    HW194391   7.582  12.627   6.014  1.7884 -0.6913 -0.7660
29262SOL    HW294392   7.614  12.723   6.126 -1.1738 -0.9208  0.3554
29263SOL     OW94393   0.498   1.233   2.335 -0.2034  0.4987  0.0715
29263SOL    HW194394   0.567   1.178   2.373  1.1216  1.8333 -0.3038
29263SOL    HW294395   0.544   1.286   2.270 -1.8084  0.6678 -0.9617
29264SOL     OW94396  11.738   9.642   9.035  0.8679  0.5560  0.2342
29264SOL    HW194397  11.833   9.648   9.039  0.8520  0.1694  2.7230
29264SOL    HW294398  11.720   9.548   9.040  0.3343  0.6034 -0.5388
29265SOL     OW94399   6.331   3.304  11.554  0.0323 -0.7320 -0.3536
29265SOL    HW194400   6.333   3.209  11.567  1.5347 -0.6010  0.6244
29265SOL    HW294401   6.317   3.340  11.642  1.3647 -0.0256 -0.4033
29266SOL     OW94402   9.455   5.028   2.602  0.4444 -0.0145 -0.2994
29266SOL    HW194403   9.497   5.077   2.532  3.3430 -1.2273  0.4522
29266SOL    HW294404   9.425   5.095   2.664  0.2022  0.9378 -1.4108
29267SOL     OW94405   5.288   7.202   8.928  0.3430 -0.5258 -0.4709
29267SOL    HW194406   5.373   7.236   8.899 -0.2355  2.6008  1.0961
29267SOL    HW294407   5.238   7.280   8.953 -2.4201 -2.3774  0.2544
29268SOL     OW94408   6.572  11.654   0.524  0.5723  0.2629  0.6231
29268SOL    HW194409   6.641  11.720   0.525  1.0081 -0.1909  1.0508
29268SOL    HW294410   6.537  11.655   0.614 -0.9762  1.5035  0.0665
29269SOL     OW94411   1.402   9.160  11.963 -0.4352 -0.1430  0.0404
29269SOL    HW194412   1.464   9.233  11.969  0.9486 -1.2908  0.5037
29269SOL    HW294413   1.321   9.200  11.932 -0.0252  1.7366  1.1996
29270SOL     OW94414   7.799   7.607   7.185 -0.2784 -0.3493 -0.0494
29270SOL    HW194415   7.795   7.614   7.280  2.3833  1.0589  0.0434
29270SOL    HW294416   7.831   7.692   7.156  1.2617 -1.5091 -2.0047
29271SOL     OW94417   0.571   3.657   6.477 -0.2269 -0.4861  0.3022
29271SOL    HW194418   0.519   3.734   6.455 -0.6181 -1.3925 -2.2550
29271SOL    HW294419   0.512   3.583   6.461  1.1596 -1.4435 -0.5121
29272SOL     OW94420   1.513   1.789   9.421 -0.7325 -0.3195 -0.2715
29272SOL    HW194421   1.603   1.790   9.390 -0.5279  0.8489  0.3145
29272SOL    HW294422   1.461   1.766   9.343  0.0230 -0.6145 -0.6945
29273SOL     OW94423   0.714   5.380   7.801  0.1681  0.7585  0.2876
29273SOL    HW194424   0.760   5.362   7.719  1.1016 -1.1994  1.1962
29273SOL    HW294425   0.691   5.473   7.795  1.6429  1.0616 -1.4845
29274SOL     OW94426   6.171   1.741   4.829  0.0599 -0.7577  0.3420
29274SOL    HW194427   6.265   1.728   4.821 -0.1977 -1.9845 -1.2145
29274SOL    HW294428   6.134   1.690   4.758 -1.9269 -2.0184  2.1510
29275SOL     OW94429  11.511   8.497   1.842  0.0599 -0.0596 -0.4531
29275SOL    HW194430  11.592   8.454   1.817 -0.3221 -0.6565 -0.6992
29275SOL    HW294431  11.496   8.562   1.773 -1.0832 -1.8205 -1.9603
29276SOL     OW94432   5.584   1.820  10.778  0.2553 -0.7411  0.3211
29276SOL    HW194433   5.555   1.874  10.704  2.0462 -0.9485 -0.5952
29276SOL    HW294434   5.535   1.739  10.769 -1.8746  0.3535  1.2477
29277SOL     OW94435   8.251   3.928  12.128 -0.2989 -0.1932 -1.1142
29277SOL    HW194436   8.224   4.011  12.168 -0.4375 -0.4164 -0.7407
29277SOL    HW294437   8.192   3.917  12.053 -3.0031 -1.8836  1.0618
29278SOL     OW94438   4.611   0.693   6.639 -0.3003 -0.4683 -0.2246
29278SOL    HW194439   4.650   0.646   6.565 -1.2711 -1.2152 -0.2779
29278SOL    HW294440   4.521   0.662   6.642 -0.5832  0.3982  0.5877
29279SOL     OW94441   6.498   8.118   5.749  0.3460  0.2741 -0.2895
29279SOL    HW194442   6.468   8.207   5.732 -0.6832 -0.0132 -0.0646
29279SOL    HW294443   6.427   8.063   5.718 -0.9259 -0.3433  3.2097
29280SOL     OW94444   6.204   7.813   8.425  0.1450 -0.1713 -0.7788
29280SOL    HW194445   6.211   7.886   8.364 -1.0459  0.6027 -0.0314
29280SOL    HW294446   6.111   7.812   8.451  0.9787  0.9929  2.7532
29281SOL     OW94447   0.622   6.488   6.555 -0.5143 -0.6516  0.0188
29281SOL    HW194448   0.697   6.546   6.564  0.5973 -1.9389 -0.6415
29281SOL    HW294449   0.566   6.531   6.491  0.0884 -0.1151 -0.1541
29282SOL     OW94450   6.897  12.642   1.239  0.2256  0.3297 -0.5664
29282SOL    HW194451   6.812  12.638   1.194 -1.5570  0.7291  2.4850
29282SOL    HW294452   6.924  12.550   1.246 -0.0394  0.1769 -1.4048
29283SOL     OW94453  12.558   1.347   3.049  0.0833 -0.3447  0.2570
29283SOL    HW194454  12.532   1.356   2.957  1.1013  1.0076  0.0763
29283SOL    HW294455  12.546   1.434   3.085  0.9428 -0.5549  1.0748
29284SOL     OW94456   4.057   4.914   6.229 -0.2381 -0.4176 -0.8935
29284SOL    HW194457   4.093   4.998   6.203 -0.3332 -0.2272 -0.4071
29284SOL    HW294458   4.085   4.854   6.160  1.0507 -0.2831 -0.4991
29285SOL     OW94459  10.677  12.697  11.582  0.0762 -0.4849 -0.2452
29285SOL    HW194460  10.595  12.737  11.610 -0.1304 -0.6466 -0.6130
29285SOL    HW294461  10.737  12.711  11.655  0.3052  1.3793 -0.7360
29286SOL     OW94462   0.958  12.005   9.203  0.3677 -0.5387  1.1434
29286SOL    HW194463   0.918  12.087   9.177  0.5983 -1.1032 -1.1561
29286SOL    HW294464   0.886  11.951   9.234  0.0723  0.1017  1.6062
29287SOL     OW94465   2.311   4.973   0.914 -0.3473 -0.3306  0.2992
29287SOL    HW194466   2.320   4.878   0.910 -1.4825 -0.5847  2.4334
29287SOL    HW294467   2.349   4.997   0.999  0.0073  1.1447 -0.2511
29288SOL     OW94468   9.945   5.437   2.571 -0.0440 -0.0785  0.1467
29288SOL    HW194469  10.002   5.388   2.629  0.4539  0.8379  0.4471
29288SOL    HW294470   9.999   5.457   2.495  0.1834  1.1293  0.6012
29289SOL     OW94471   0.151   7.491  10.408 -0.1373  0.0162 -0.1856
29289SOL    HW194472   0.175   7.405  10.443  1.1168  0.8540  1.1506
29289SOL    HW294473   0.155   7.480  10.313  0.3498 -1.3098 -0.0393
29290SOL     OW94474   1.422  11.044  10.562 -0.3684 -0.3758 -0.3127
29290SOL    HW194475   1.463  11.076  10.481 -0.7576  0.4197 -0.2052
29290SOL    HW294476   1.449  10.952  10.567 -0.2987 -0.4306 -1.3277
29291SOL     OW94477  11.784   3.476  12.532  0.0445  0.0962 -0.0776
29291SOL    HW194478  11.851   3.544  12.532  0.4366 -0.2065 -2.5089
29291SOL    HW294479  11.727   3.499  12.459 -0.1723 -1.7988 -0.5560
29292SOL     OW94480   7.195  10.482   4.641 -0.2183  0.2567 -0.2443
29292SOL    HW194481   7.187  10.572   4.673 -0.8388 -0.1817  0.9129
29292SOL    HW294482   7.226  10.432   4.717 -0.5700 -0.6217 -0.6613
29293SOL     OW94483   7.961   6.418  10.562  0.1583  0.5879 -0.2091
29293SOL    HW194484   8.007   6.486  10.611 -0.6371  0.1673  1.1977
29293SOL    HW294485   7.868   6.436  10.576 -0.1212  0.7565 -2.0485
29294SOL     OW94486   4.232   3.053   3.792  0.7542  0.1142  0.3461
29294SOL    HW194487   4.312   3.105   3.795 -1.6538  4.1844  0.4847
29294SOL    HW294488   4.202   3.051   3.883  0.3152 -0.7963  0.1887
29295SOL     OW94489  10.166   1.212   1.961  0.7066 -0.0697  0.0484
29295SOL    HW194490  10.145   1.304   1.944 -0.6832 -0.2940  0.4574
29295SOL    HW294491  10.211   1.182   1.882  0.3894  0.7313 -0.4417
29296SOL     OW94492   4.134   7.874  11.341  0.5943 -0.0566  0.2690
29296SOL    HW194493   4.134   7.807  11.410  0.1585  0.5200  0.8378
29296SOL    HW294494   4.191   7.838  11.273 -0.3742 -1.4462  0.1392
29297SOL     OW94495   1.975   1.817   8.355  0.6626 -0.1865 -0.1985
29297SOL    HW194496   2.055   1.765   8.348  1.5127  0.7629  1.6083
29297SOL    HW294497   1.951   1.812   8.448  1.5859  3.6758  0.4127
29298SOL     OW94498   1.949   8.210   7.756  0.2603 -0.1221  0.4181
29298SOL    HW194499   1.900   8.205   7.674  0.1978  1.9792  0.2648
29298SOL    HW294500   2.010   8.137   7.752  0.6765  0.2656 -1.8110
29299SOL     OW94501   7.068   5.902   0.602 -0.1757  0.4194  0.4452
29299SOL    HW194502   7.155   5.888   0.565  0.0339  0.4482  0.9155
29299SOL    HW294503   7.012   5.921   0.526 -0.0121 -0.7130  0.0328
29300SOL     OW94504   9.163   1.871   3.656 -0.1055  0.0291 -0.3041
29300SOL    HW194505   9.169   1.933   3.583 -0.0703  1.6275  0.9725
29300SOL    HW294506   9.151   1.786   3.615 -1.0140  0.9719 -2.1562
29301SOL     OW94507   7.403   1.552  10.290  0.0868  0.0361  0.2722
29301SOL    HW194508   7.321   1.523  10.329 -0.1562 -0.4751 -0.6089
29301SOL    HW294509   7.378   1.623  10.231  0.1543 -0.6800 -0.6392
29302SOL     OW94510   8.780   0.378  11.073  0.1883 -0.0189 -0.6802
29302SOL    HW194511   8.811   0.288  11.066  0.6007  0.2111 -2.4241
29302SOL    HW294512   8.685   0.371  11.072  0.1859 -0.3712 -3.0594
29303SOL     OW94513   0.416   0.666   1.629 -0.2539 -0.0508  0.2946
29303SOL    HW194514   0.467   0.624   1.699 -0.5408 -0.0490  0.5042
29303SOL    HW294515   0.481   0.686   1.562 -0.2207 -1.5096 -0.1460
29304SOL     OW94516  11.652  11.712   2.589  0.0215 -0.2172  0.0897
29304SOL    HW194517  11.655  11.722   2.494 -0.8489 -0.5149  0.0188
29304SOL    HW294518  11.559  11.724   2.611  0.1339 -0.6689  0.8399
29305SOL     OW94519  10.090  11.138   6.512  0.2341  0.1713  0.1920
29305SOL    HW194520  10.090  11.219   6.460  0.9596  0.6279  0.8858
29305SOL    HW294521  10.074  11.069   6.449 -0.6120  0.8761 -0.3910
29306SOL     OW94522   0.933   7.134   5.449  0.0624  0.5765 -0.0704
29306SOL    HW194523   1.026   7.158   5.451 -0.2180  1.6480  1.9215
29306SOL    HW294524   0.894   7.199   5.390  0.2233  1.6027  0.9193
29307SOL     OW94525  12.122   4.125   7.238 -0.0610  0.2309  0.0292
29307SOL    HW194526  12.159   4.182   7.170  0.5848 -0.8307 -0.5408
29307SOL    HW294527  12.084   4.052   7.189  0.9933 -0.8896  0.8133
29308SOL     OW94528   5.636   6.442   5.298 -0.4564  0.0386 -0.3208
29308SOL    HW194529   5.622   6.419   5.390 -0.0057  0.9434 -0.0035
29308SOL    HW294530   5.724   6.409   5.278 -0.8732 -0.8682 -0.6747
29309SOL     OW94531   9.903   8.244   5.905  0.4777 -0.1494  0.6535
29309SOL    HW194532   9.832   8.241   5.841 -1.1823 -0.8534  2.4151
29309SOL    HW294533   9.978   8.278   5.857 -1.0368  0.5803 -1.3048
29310SOL     OW94534   5.365   6.664   9.485 -0.0191  0.1747  0.4708
29310SOL    HW194535   5.424   6.642   9.557  0.4476 -0.8946 -0.2082
29310SOL    HW294536   5.404   6.740   9.443  0.8362 -0.4553  0.1005
29311SOL     OW94537   6.600  10.363   7.540 -0.2033  0.1142  0.7835
29311SOL    HW194538   6.627  10.443   7.496 -0.2978  0.4534  1.3353
29311SOL    HW294539   6.673  10.341   7.598 -0.0839 -0.3210  0.4738
29312SOL     OW94540   3.652  11.916   7.566  0.4325  0.0509  0.6818
29312SOL    HW194541   3.715  11.891   7.499 -1.9853 -1.4837 -1.1885
29312SOL    HW294542   3.629  11.834   7.609 -0.7172  0.4733  0.9098
29313SOL     OW94543   9.003   6.985   0.927  0.3312 -0.4032 -0.1427
29313SOL    HW194544   8.972   6.954   1.012  1.6728 -2.2246 -0.2506
29313SOL    HW294545   8.995   6.909   0.869  0.1444  0.5819 -1.4653
29314SOL     OW94546   7.705   2.121   9.585  0.5602  1.2529  0.2493
29314SOL    HW194547   7.710   2.179   9.660 -0.7586  2.2981 -0.4356
29314SOL    HW294548   7.735   2.036   9.618  1.9921  2.1639  1.4106
29315SOL     OW94549   4.908   3.412   9.668  0.5219 -0.0451 -0.0596
29315SOL    HW194550   4.884   3.385   9.757 -0.0826  0.9312  0.0878
29315SOL    HW294551   4.936   3.503   9.677  0.7652 -0.0379 -0.8162
29316SOL     OW94552   7.729  10.668   2.115 -0.3811 -0.0860 -0.2159
29316SOL    HW194553   7.710  10.574   2.111  0.4107 -0.2444 -0.3147
29316SOL    HW294554   7.726  10.698   2.024  3.6078 -0.8961 -0.7843
29317SOL     OW94555   0.512   1.916   2.576  0.0506  0.6301 -0.5758
29317SOL    HW194556   0.585   1.936   2.517  0.1060 -0.5971 -0.9491
29317SOL    HW294557   0.527   1.825   2.602  0.4574  1.3414  1.9393
29318SOL     OW94558  10.768   0.793   1.259  0.2449 -0.4217  0.0267
29318SOL    HW194559  10.849   0.743   1.245  0.3322  0.0508 -1.2984
29318SOL    HW294560  10.767   0.811   1.353  1.2805 -1.1063  0.1873
29319SOL     OW94561  12.479  12.123   9.228 -0.8597 -0.5749  0.1898
29319SOL    HW194562  12.484  12.219   9.233 -0.9637 -0.3156 -2.7351
29319SOL    HW294563  12.568  12.096   9.205 -1.0160 -1.1021  0.2044
29320SOL     OW94564   5.509   6.839   9.337  0.0683  0.3640 -0.3409
29320SOL    HW194565   5.583   6.879   9.382  0.2155 -0.3649  0.0911
29320SOL    HW294566   5.460   6.912   9.300 -0.2078  1.0329  1.2458
29321SOL     OW94567   0.341   4.020   3.958 -0.0953 -0.2351  0.4219
29321SOL    HW194568   0.346   3.932   3.995  1.3378  0.6143  2.4119
29321SOL    HW294569   0.427   4.058   3.973 -0.8053  1.6685  0.0498
29322SOL     OW94570   3.578   6.030   7.044  0.2223 -0.0842 -0.0547
29322SOL    HW194571   3.490   6.047   7.076  0.1071  0.7314 -0.7826
29322SOL    HW294572   3.634   6.045   7.120  0.0078  2.3907 -0.3060
29323SOL     OW94573  11.355   5.938  12.742  0.0098 -0.3075 -0.8972
29323SOL    HW194574  11.445   5.944  12.709  0.1530 -1.2971 -0.7297
29323SOL    HW294575  11.305   5.904  12.668  0.3934 -2.8578 -0.0820
29324SOL     OW94576  10.950   7.914   1.553 -0.4660  0.3226 -0.2735
29324SOL    HW194577  10.871   7.887   1.505 -1.5032  1.0021  0.9850
29324SOL    HW294578  10.992   7.978   1.496 -0.3833 -0.6076 -1.2999
29325SOL     OW94579   7.084  12.703  11.261  0.0055  0.0511 -0.1240
29325SOL    HW194580   6.992  12.688  11.286 -0.6300  2.5823 -0.7511
29325SOL    HW294581   7.128  12.719  11.345 -0.4122  0.2589  0.0618
29326SOL     OW94582   0.790  10.972  12.065 -0.1903 -0.4926 -0.3236
29326SOL    HW194583   0.836  10.888  12.059 -0.5942 -0.7579  0.3175
29326SOL    HW294584   0.853  11.035  12.030  0.3981 -0.9584 -0.1292
29327SOL     OW94585   4.575   1.936   7.507 -0.3273 -0.0904  0.1939
29327SOL    HW194586   4.621   1.977   7.580 -0.7015  0.7542 -0.0259
29327SOL    HW294587   4.565   2.007   7.442 -1.9713 -0.2060  0.2707
29328SOL     OW94588   9.655  10.451  10.690 -0.0711  0.1908 -0.6632
29328SOL    HW194589   9.645  10.378  10.629  1.2186  0.3535 -1.1053
29328SOL    HW294590   9.636  10.529  10.638 -1.8705  0.1839 -0.0844
29329SOL     OW94591   6.744  11.185  10.244 -0.2695 -0.0885  0.7053
29329SOL    HW194592   6.794  11.136  10.179  0.3221  1.3237  0.0532
29329SOL    HW294593   6.679  11.233  10.193  0.6888  1.6246  1.0264
29330SOL     OW94594   4.924   1.201   0.957 -0.1275 -0.0098  0.2816
29330SOL    HW194595   5.005   1.249   0.940 -0.9934  2.2922  2.0976
29330SOL    HW294596   4.856   1.254   0.917 -0.9365 -1.0268  0.2667
29331SOL     OW94597   4.976   0.895   5.960  0.0809 -0.3021 -0.3938
29331SOL    HW194598   4.902   0.854   6.003 -0.5694  0.6325 -0.5807
29331SOL    HW294599   5.051   0.839   5.981 -0.3836 -0.3942  1.1248
29332SOL     OW94600  12.783   9.085   3.221  0.2160  0.0187  0.4976
29332SOL    HW194601  12.733   9.151   3.269 -1.8397 -1.0743 -0.0503
29332SOL    HW294602  12.789   9.120   3.132 -1.9516 -1.0043 -0.1117
29333SOL     OW94603   0.671   5.975   9.758 -0.3977  0.5833 -0.4498
29333SOL    HW194604   0.752   6.021   9.734  0.1078  0.4573  0.8896
29333SOL    HW294605   0.656   6.000   9.849 -0.5618 -1.2382  0.0636
29334SOL     OW94606   0.323   5.569   9.091 -0.1344  0.2975 -0.1943
29334SOL    HW194607   0.299   5.488   9.136 -3.0291  1.0126 -0.2444
29334SOL    HW294608   0.328   5.546   8.999 -0.1331  0.0082 -0.1219
29335SOL     OW94609   7.251   9.366  10.034 -0.3694  0.0933 -0.3447
29335SOL    HW194610   7.317   9.406   9.978 -0.1799 -0.0923 -0.2548
29335SOL    HW294611   7.202   9.440  10.070 -0.2625  0.2277 -0.4764
29336SOL     OW94612   4.306  12.745   2.446  0.2618 -0.4308  0.2673
29336SOL    HW194613   4.354  12.667   2.472  1.5501  0.3256  0.2217
29336SOL    HW294614   4.215  12.716   2.440  0.7085 -1.9114  0.2859
29337SOL     OW94615   2.088   1.248   2.572  0.7412 -0.4233  0.6359
29337SOL    HW194616   2.141   1.313   2.617  0.7684 -0.2075  0.3034
29337SOL    HW294617   2.091   1.275   2.480  0.5984 -0.7885  0.5216
29338SOL     OW94618   9.162   3.332  10.626  0.3323 -0.4426 -0.1200
29338SOL    HW194619   9.079   3.370  10.654  0.2834 -1.0117  0.5229
29338SOL    HW294620   9.223   3.351  10.698  0.1233 -2.1993  0.5657
29339SOL     OW94621  10.302   3.551   3.467  0.0827  0.3788  0.3818
29339SOL    HW194622  10.211   3.542   3.495 -0.8207  2.6770 -1.4928
29339SOL    HW294623  10.323   3.644   3.482  1.7184  0.1564 -0.3036
29340SOL     OW94624   2.397   0.244   5.996  0.3721 -0.1594 -0.3796
29340SOL    HW194625   2.488   0.232   5.970  0.7123  1.6323 -0.1246
29340SOL    HW294626   2.376   0.334   5.972 -0.3159  0.5577  2.4872
29341SOL     OW94627   3.456  12.555   0.334 -0.0106  0.7037 -0.5303
29341SOL    HW194628   3.401  12.480   0.311  1.3348  0.2572 -2.6222
29341SOL    HW294629   3.529  12.517   0.383  0.8923  0.5311 -1.9585
29342SOL     OW94630   6.470   0.790   0.768 -0.4210  0.1739 -0.2670
29342SOL    HW194631   6.508   0.864   0.815  1.1223 -0.2650 -0.7600
29342SOL    HW294632   6.410   0.829   0.705 -0.8758  0.8864  0.5851
29343SOL     OW94633   9.181   2.180  11.689  0.1991  0.1659 -0.3308
29343SOL    HW194634   9.168   2.215  11.777  1.0219 -0.3190 -0.0031
29343SOL    HW294635   9.272   2.200  11.669 -0.1860  0.9036 -1.3680
29344SOL     OW94636   3.251   4.275  10.556 -0.9026 -0.1865 -1.0981
29344SOL    HW194637   3.156   4.283  10.568 -0.7204  0.4996  0.0798
29344SOL    HW294638   3.279   4.362  10.527  0.0150  1.5264  3.8559
29345SOL     OW94639  12.092  10.509   5.822  0.3752  0.6715  0.3077
29345SOL    HW194640  12.166  10.556   5.784  0.5639  1.0659  1.1407
29345SOL    HW294641  12.019  10.570   5.818  0.3208  0.6071  0.3094
29346SOL     OW94642   6.832   7.316   4.187  0.2807  0.3385 -0.5395
29346SOL    HW194643   6.885   7.393   4.165  1.8694 -0.2873  0.8488
29346SOL    HW294644   6.791   7.339   4.270 -2.2583  1.0673 -1.9141
29347SOL     OW94645   4.205  12.761   8.206 -0.1375  0.4161 -0.3047
29347SOL    HW194646   4.248  12.843   8.227  0.3284 -0.0455  0.5791
29347SOL    HW294647   4.207  12.757   8.110  2.5589  0.0136 -0.2993
29348SOL     OW94648  10.390   2.130   3.213  0.6745  0.2043 -0.2925
29348SOL    HW194649  10.404   2.214   3.169 -0.0311  1.4676  1.7243
29348SOL    HW294650  10.397   2.065   3.144  1.7622  1.8716 -1.8557
29349SOL     OW94651  11.218   6.935  11.187  0.4919  0.2845  0.5871
29349SOL    HW194652  11.236   7.004  11.124 -1.0860  1.0006  0.8714
29349SOL    HW294653  11.123   6.934  11.194  0.5571 -1.0560  1.5576
29350SOL     OW94654  12.259   1.012  10.505 -0.2966 -0.2069 -0.0267
29350SOL    HW194655  12.308   1.007  10.586 -1.2895  0.0028  0.5992
29350SOL    HW294656  12.315   0.969  10.440  0.7149  0.0613  0.6547
29351SOL     OW94657  12.221   7.974   6.626  0.7140 -0.5005 -0.2134
29351SOL    HW194658  12.129   7.986   6.599  0.8300 -0.1802 -0.4830
29351SOL    HW294659  12.261   7.928   6.552  1.0173  0.3151 -0.5728
29352SOL     OW94660   2.158   7.826  11.120  0.0745 -0.0433  0.3051
29352SOL    HW194661   2.098   7.857  11.187  0.1354 -1.2449  0.9519
29352SOL    HW294662   2.107   7.829  11.039 -0.8780 -1.0411  0.8473
29353SOL     OW94663   4.320   6.911   1.067 -0.1950  0.5075  0.1245
29353SOL    HW194664   4.230   6.897   1.038 -0.3799  0.7817  0.5687
29353SOL    HW294665   4.368   6.834   1.035 -1.2367 -1.3622  2.7357
29354SOL     OW94666   1.054   6.300   8.750 -0.0220  0.4093 -0.0431
29354SOL    HW194667   1.134   6.271   8.706 -0.1191 -1.2871  0.8010
29354SOL    HW294668   1.043   6.391   8.723  2.1889  0.6890 -0.1732
29355SOL     OW94669   9.702   8.186  11.287 -0.0525 -0.0927 -0.0098
29355SOL    HW194670   9.641   8.240  11.237  1.1334  0.9311 -0.4104
29355SOL    HW294671   9.788   8.227  11.272  0.7377 -1.4923  0.5128
29356SOL     OW94672   1.046   6.842   7.458  0.6968 -0.1347 -0.5806
29356SOL    HW194673   1.022   6.754   7.428  1.5784 -0.3511 -0.6841
29356SOL    HW294674   0.975   6.868   7.516  1.0486 -1.4504  0.4831
29357SOL     OW94675   8.747   5.830   3.647  0.4679  0.0757 -0.6073
29357SOL    HW194676   8.841   5.849   3.649  0.2943  0.9253 -0.1129
29357SOL    HW294677   8.737   5.768   3.575  1.2407  0.9393 -1.4970
29358SOL     OW94678   2.273   3.421   2.579 -0.2521 -0.7633 -0.1907
29358SOL    HW194679   2.228   3.342   2.548 -1.4239 -0.6449  1.1010
29358SOL    HW294680   2.242   3.432   2.669  0.2395  0.9233 -0.2004
29359SOL     OW94681   0.746   8.256   9.209  0.1713  0.5104  0.1026
29359SOL    HW194682   0.660   8.228   9.241  0.5080  1.1930  1.6642
29359SOL    HW294683   0.789   8.295   9.285  1.3256  1.4660 -0.9970
29360SOL     OW94684   1.625   3.461   5.426 -0.3517  0.2512 -0.5009
29360SOL    HW194685   1.640   3.455   5.332 -0.3957 -2.2364 -0.4209
29360SOL    HW294686   1.632   3.371   5.457 -0.9493  0.9254  1.7961
29361SOL     OW94687   0.896  10.869   5.008  0.1462  0.5915 -0.5481
29361SOL    HW194688   0.863  10.831   4.926 -3.2937 -1.2376  1.4404
29361SOL    HW294689   0.847  10.951   5.018 -0.3875  0.1946  0.2127
29362SOL     OW94690   2.526  12.001   6.664  0.1033  0.4134  0.2347
29362SOL    HW194691   2.597  11.937   6.660  1.2515  1.6387  0.1179
29362SOL    HW294692   2.539  12.045   6.749 -1.2984 -0.1888  0.7869
29363SOL     OW94693   0.553   3.013   4.283 -0.2721 -0.2648 -0.0430
29363SOL    HW194694   0.536   2.982   4.194  1.1686  1.1171 -0.8502
29363SOL    HW294695   0.499   3.091   4.292 -0.2087 -0.2483  0.1933
29364SOL     OW94696  11.530   4.968  12.190  0.2700 -0.7060 -0.2248
29364SOL    HW194697  11.517   4.906  12.262  2.0855 -1.0946 -0.1900
29364SOL    HW294698  11.508   5.054  12.228  1.6470 -0.8455  0.9622
29365SOL     OW94699   7.455   3.290   3.464 -0.2394 -0.2295  0.0409
29365SOL    HW194700   7.550   3.284   3.476 -0.1959  1.8568  1.2431
29365SOL    HW294701   7.442   3.366   3.409 -1.1780 -1.8989 -2.2078
29366SOL     OW94702   5.098   2.406   2.364  0.7140  0.3204 -0.7357
29366SOL    HW194703   5.129   2.412   2.274  0.7111 -1.5386 -0.9057
29366SOL    HW294704   5.030   2.473   2.370  2.7365  2.5154 -1.1888
29367SOL     OW94705   6.820   2.589  10.622  0.5770  0.0025 -0.7409
29367SOL    HW194706   6.911   2.581  10.592  0.2035 -0.0974 -1.9277
29367SOL    HW294707   6.780   2.506  10.598 -0.0627  0.4112 -1.1228
29368SOL     OW94708  12.747   7.432   8.035 -0.3436 -0.1122 -0.1489
29368SOL    HW194709  12.697   7.420   7.954  0.0387 -1.1517 -0.2466
29368SOL    HW294710  12.801   7.509   8.019  0.4405 -0.8731 -1.2622
29369SOL     OW94711   7.584   1.321   0.257  0.1896 -0.3862 -0.0911
29369SOL    HW194712   7.640   1.247   0.232  0.2733 -0.6061  0.7428
29369SOL    HW294713   7.519   1.326   0.186  2.5367  1.2777 -2.3202
29370SOL     OW94714   7.978  11.794   4.712  0.4067  0.2412  0.2872
29370SOL    HW194715   7.925  11.871   4.692 -1.2958 -1.3883 -2.2000
29370SOL    HW294716   7.926  11.745   4.775 -0.4772 -0.6614 -1.0722
29371SOL     OW94717   8.116   4.503   9.378 -0.2653  0.0935  0.0409
29371SOL    HW194718   8.212   4.511   9.379 -0.2916  0.4375  0.2147
29371SOL    HW294719   8.088   4.566   9.311 -0.4190  0.6758  0.6379
29372SOL     OW94720   0.723  11.572   1.736 -0.4557 -0.2826  0.4631
29372SOL    HW194721   0.700  11.508   1.668  2.4834  0.2365 -1.1897
29372SOL    HW294722   0.698  11.656   1.699 -0.3497 -0.1254  0.7469
29373SOL     OW94723  10.926  10.141  11.121 -0.7124  0.1488 -0.1311
29373SOL    HW194724  10.891  10.160  11.208 -0.0430  1.0155 -0.0451
29373SOL    HW294725  11.017  10.168  11.124 -0.5868 -0.1174 -1.0044
29374SOL     OW94726   3.126   6.380   7.207 -0.0874 -0.3904 -0.0189
29374SOL    HW194727   3.111   6.349   7.297  1.0544 -2.0323 -0.3578
29374SOL    HW294728   3.091   6.311   7.152  0.9610 -0.3082 -0.8202
29375SOL     OW94729   5.871  11.947  10.056 -0.5353 -0.0374 -0.0773
29375SOL    HW194730   5.926  11.869  10.066 -1.9594 -0.8866  1.9678
29375SOL    HW294731   5.927  12.019  10.084 -0.1610 -0.7707  1.1622
29376SOL     OW94732  10.892   0.612   9.551 -0.8556  0.1457  0.0141
29376SOL    HW194733  10.947   0.544   9.511  0.6696  0.5042  1.3651
29376SOL    HW294734  10.879   0.677   9.482  0.4387  0.0354 -0.3611
29377SOL     OW94735  10.759   8.322   0.313  0.1742 -0.9010 -0.0193
29377SOL    HW194736  10.748   8.243   0.366  0.1741  0.1517  1.6362
29377SOL    HW294737  10.852   8.344   0.320  0.0826 -0.4878 -0.0510
29378SOL     OW94738   5.887   9.950   1.148  0.8147  0.1917 -0.4220
29378SOL    HW194739   5.797   9.942   1.115 -0.2261  0.3781  2.0746
29378SOL    HW294740   5.894  10.041   1.176  0.4279 -0.6158  2.6652
29379SOL     OW94741   9.960   5.035   8.375  0.1727  0.1059  0.0311
29379SOL    HW194742  10.008   4.979   8.313  1.9982  0.9962  0.5592
29379SOL    HW294743  10.004   5.021   8.459 -1.5134 -0.1808  0.8972
29380SOL     OW94744   5.481   8.425   9.976  0.1991 -0.1209  0.0095
29380SOL    HW194745   5.520   8.512   9.967 -0.1532 -0.0788 -1.5379
29380SOL    HW294746   5.404   8.439  10.031 -1.0402  1.0022 -1.8753
29381SOL     OW94747  11.454   4.278   4.050 -0.3778 -0.4467 -0.5456
29381SOL    HW194748  11.405   4.202   4.081 -0.2636  0.4787  2.2728
29381SOL    HW294749  11.407   4.353   4.086  0.4422  0.7475 -1.8410
29382SOL     OW94750   7.063   0.855  10.115  0.0024  0.5031  0.2201
29382SOL    HW194751   7.089   0.805  10.037  0.9126 -0.0190  0.8492
29382SOL    HW294752   6.971   0.876  10.100  0.2628  0.7596 -1.1833
29383SOL     OW94753   6.276   2.077   2.595  0.1651  0.0692 -0.5504
29383SOL    HW194754   6.371   2.087   2.602  0.1179  0.5415 -0.5511
29383SOL    HW294755   6.257   2.092   2.502 -0.1296  2.0249 -0.2169
29384SOL     OW94756  12.134   4.156   4.403  0.2372  0.3442 -1.4018
29384SOL    HW194757  12.133   4.067   4.438  0.3926  0.8406 -0.0641
29384SOL    HW294758  12.076   4.205   4.461  1.0422  1.3557 -1.4320
29385SOL     OW94759  10.987   3.435   9.907 -0.1220  0.0542  0.2033
29385SOL    HW194760  10.985   3.381   9.828  1.5038  0.5993 -0.2563
29385SOL    HW294761  10.928   3.508   9.888  0.6361  0.4379 -0.7131
29386SOL     OW94762   4.100   0.256   5.945 -0.1987  0.1918 -0.1920
29386SOL    HW194763   4.185   0.218   5.922  0.1171  0.0754  1.1019
29386SOL    HW294764   4.037   0.205   5.893  0.4709 -0.1118 -0.7213
29387SOL     OW94765   6.831   1.278   8.309 -0.0173  0.3587  0.5667
29387SOL    HW194766   6.740   1.276   8.279 -0.4662 -1.7356  1.8627
29387SOL    HW294767   6.826   1.301   8.402  0.8017  0.3754  0.6163
29388SOL     OW94768   7.207   7.009   7.908  0.0343 -0.7220 -0.2767
29388SOL    HW194769   7.169   6.955   7.839 -0.2525 -0.6035 -0.2141
29388SOL    HW294770   7.179   6.967   7.990  1.4495 -1.6171 -0.2217
29389SOL     OW94771   0.194   5.283   5.185  0.0204  0.0910 -0.4164
29389SOL    HW194772   0.225   5.317   5.101 -0.8132  1.1569 -0.3113
29389SOL    HW294773   0.114   5.332   5.203  0.8178  0.7910  1.5768
29390SOL     OW94774  11.300  10.489   1.856  0.0415  0.1436  0.5432
29390SOL    HW194775  11.363  10.417   1.851 -0.4128 -0.1596 -1.2602
29390SOL    HW294776  11.352  10.568   1.839  0.4477  0.2299  2.0361
29391SOL     OW94777   0.606   4.771   4.170 -0.0972 -0.4127 -0.4892
29391SOL    HW194778   0.599   4.828   4.247 -1.3239 -0.1443 -0.7892
29391SOL    HW294779   0.565   4.821   4.100 -0.0165 -1.1411 -1.0613
29392SOL     OW94780   5.405   3.385   6.828  0.0468  0.0233  0.2414
29392SOL    HW194781   5.491   3.386   6.787  0.2818 -0.3903  0.7063
29392SOL    HW294782   5.367   3.301   6.802  1.0802 -1.2883  2.5724
29393SOL     OW94783   5.417   0.317   3.388  0.2257 -0.1779 -0.2960
29393SOL    HW194784   5.430   0.342   3.479 -0.8175  0.4825 -0.3158
29393SOL    HW294785   5.376   0.231   3.392  1.2775 -0.6983 -0.1835
29394SOL     OW94786  12.714  11.416   6.447 -0.4508 -0.6314  0.3368
29394SOL    HW194787  12.683  11.499   6.484 -1.2143 -1.0435  0.6455
29394SOL    HW294788  12.647  11.352   6.473  1.1883 -1.7810  1.9693
29395SOL     OW94789   9.838   1.802   3.834 -0.0192 -0.7379 -0.2690
29395SOL    HW194790   9.932   1.781   3.831  0.2562  0.3479  0.3155
29395SOL    HW294791   9.796   1.718   3.852  0.7795 -1.3578 -1.1956
29396SOL     OW94792   5.056   0.739   9.733 -0.1908  0.5969  0.5694
29396SOL    HW194793   5.082   0.788   9.655 -2.4283  0.9776 -0.0095
29396SOL    HW294794   5.136   0.693   9.759  0.3047 -0.9643 -2.9922
29397SOL     OW94795  11.869   8.532  10.142  0.1979 -0.2121  0.4027
29397SOL    HW194796  11.933   8.602  10.140  0.7814 -0.7419 -0.2116
29397SOL    HW294797  11.792   8.569  10.098 -0.2258  0.6928  1.8529
29398SOL     OW94798   2.543  10.146   1.620  0.8915  0.1836 -0.2202
29398SOL    HW194799   2.516  10.125   1.710 -0.7226 -0.1408 -0.7355
29398SOL    HW294800   2.638  10.143   1.622  1.0228  2.1477  1.9526
29399SOL     OW94801  10.380   9.002   9.196 -0.2613 -0.0516 -0.3258
29399SOL    HW194802  10.347   9.066   9.259 -3.2198 -3.0033  1.4587
29399SOL    HW294803  10.316   9.004   9.125  0.2317 -0.2907 -0.7839
29400SOL     OW94804   0.800   9.308   0.170 -0.6103  0.0047 -0.2892
29400SOL    HW194805   0.789   9.219   0.202  1.8946 -0.2532  0.1206
29400SOL    HW294806   0.808   9.299   0.075  2.5519 -0.7308 -0.0869
29401SOL     OW94807   0.252   0.955  10.677 -0.0211 -0.2667 -0.0202
29401SOL    HW194808   0.309   0.881  10.658  0.2563 -0.0752  0.0563
29401SOL    HW294809   0.307   1.016  10.725 -0.4746 -0.3689  0.6511
29402SOL     OW94810   2.116   7.125   9.148 -0.9298 -0.0432  0.0161
29402SOL    HW194811   2.068   7.184   9.206 -2.4351  0.0044 -1.2004
29402SOL    HW294812   2.073   7.040   9.159 -1.1709 -0.0548 -0.9297
29403SOL     OW94813  11.371  10.994   7.620 -0.6384  0.0848  0.0523
29403SOL    HW194814  11.411  11.076   7.649  1.2285 -1.0555  0.9027
29403SOL    HW294815  11.323  10.962   7.696 -1.9048  0.6743 -0.4790
29404SOL     OW94816   3.665   3.451  11.252 -0.4005  0.0954  0.2490
29404SOL    HW194817   3.605   3.384  11.219 -1.5037  0.8049  0.7362
29404SOL    HW294818   3.611   3.530  11.258  0.5704  0.7321  0.7958
29405SOL     OW94819   2.788  10.332   2.679 -0.5618 -0.0394 -0.4597
29405SOL    HW194820   2.777  10.412   2.628  1.1043 -1.0065 -2.4881
29405SOL    HW294821   2.856  10.352   2.742 -0.5115  0.3151 -0.6261
29406SOL     OW94822   7.986  12.279   4.098  0.7044 -0.7155  0.3928
29406SOL    HW194823   7.903  12.241   4.127  0.6911 -0.6348  0.4631
29406SOL    HW294824   8.011  12.338   4.170 -0.3860  1.0984 -0.6348
29407SOL     OW94825   6.655  12.029   9.551 -0.1226  0.3630 -0.8221
29407SOL    HW194826   6.682  12.118   9.575 -0.1087 -0.1860  1.4102
29407SOL    HW294827   6.722  11.973   9.590  0.1114 -0.6391 -2.5819
29408SOL     OW94828  12.257   9.928  12.371 -0.0151 -0.5281  0.3290
29408SOL    HW194829  12.350   9.913  12.353 -0.1623  0.1037 -1.0411
29408SOL    HW294830  12.241  10.016  12.339 -1.2765 -0.9410 -0.2221
29409SOL     OW94831   3.636   4.724   0.012 -0.1653 -0.0807  0.1536
29409SOL    HW194832   3.673   4.794  -0.042 -0.6846 -1.9329 -2.8266
29409SOL    HW294833   3.706   4.660   0.019 -1.0309 -1.1901 -0.9299
29410SOL     OW94834  11.349  10.228   3.470 -0.1634  0.0503  0.2485
29410SOL    HW194835  11.270  10.176   3.484 -0.8927  1.1931  0.4351
29410SOL    HW294836  11.318  10.312   3.437  1.1524 -0.5493 -2.8773
29411SOL     OW94837   2.576   4.341  11.610  0.1779  0.1640  0.6183
29411SOL    HW194838   2.600   4.256  11.647  1.3349  0.4229  0.4980
29411SOL    HW294839   2.517   4.379  11.674 -0.9435 -1.0187  0.3365
29412SOL     OW94840   1.819   5.274   6.646  0.4900 -0.3093  0.8113
29412SOL    HW194841   1.892   5.230   6.690 -0.1695 -0.9166  1.3205
29412SOL    HW294842   1.758   5.295   6.717  0.2055  0.2785  0.4004
29413SOL     OW94843  12.193   7.729   9.784 -0.0876 -0.0163 -0.2426
29413SOL    HW194844  12.278   7.689   9.769  0.0296  0.1098  0.0856
29413SOL    HW294845  12.182   7.790   9.711  1.0257  1.5112  0.8080
29414SOL     OW94846   7.527   6.159   2.686  0.3991  0.6956 -0.4388
29414SOL    HW194847   7.478   6.232   2.648  0.5680  1.0716  0.0550
29414SOL    HW294848   7.584   6.130   2.615 -0.8969 -0.1026 -1.2040
29415SOL     OW94849   6.370  10.907   6.151  0.1442 -0.1130  0.3067
29415SOL    HW194850   6.396  10.996   6.126  0.8357 -0.4980 -0.4160
29415SOL    HW294851   6.282  10.897   6.115  0.5595 -0.1471 -0.7651
29416SOL     OW94852   3.868  10.287  10.576  0.3041  0.1233  0.0665
29416SOL    HW194853   3.840  10.244  10.495 -1.4639  1.7388 -0.2381
29416SOL    HW294854   3.910  10.368  10.548  0.2595  0.3898  0.7481
29417SOL     OW94855   7.209   8.512   2.262  0.2750  0.7265 -0.0543
29417SOL    HW194856   7.248   8.569   2.328  0.7717 -0.9412  1.1349
29417SOL    HW294857   7.148   8.456   2.310 -0.5389  0.5200 -1.2649
29418SOL     OW94858   7.916   0.247   7.840  0.1277 -0.0887  0.5452
29418SOL    HW194859   7.892   0.156   7.823  2.1128 -0.3899 -1.1406
29418SOL    HW294860   7.976   0.242   7.914 -0.3999 -0.0358  0.9822
29419SOL     OW94861   4.471  10.158   0.688 -0.5025  0.5252 -0.0186
29419SOL    HW194862   4.494  10.099   0.616 -1.2401 -0.4992  0.5591
29419SOL    HW294863   4.414  10.224   0.648 -1.8182 -0.6724 -0.1966
29420SOL     OW94864   7.207   4.602   3.058  0.2236  0.6364  0.2566
29420SOL    HW194865   7.243   4.539   3.120  0.0652  0.8192  0.5339
29420SOL    HW294866   7.113   4.588   3.060  0.3412 -0.5831 -1.2705
29421SOL     OW94867   1.070   7.318  10.758 -0.6844  0.5489 -0.2069
29421SOL    HW194868   1.130   7.286  10.691 -0.0959 -1.0659  1.0004
29421SOL    HW294869   1.122   7.379  10.810 -0.5509  0.3345 -0.0869
29422SOL     OW94870   2.462  12.744   9.016  0.3977  0.5031  0.3532
29422SOL    HW194871   2.484  12.659   9.056 -0.4513  0.9440  1.8268
29422SOL    HW294872   2.523  12.752   8.942  0.3888 -1.4498  0.0778
29423SOL     OW94873   0.148   3.439   3.800 -0.1712  0.3526  0.8093
29423SOL    HW194874   0.193   3.522   3.820  0.6189 -0.0580  0.7984
29423SOL    HW294875   0.094   3.459   3.724  0.5204  0.7076  0.3930
29424SOL     OW94876   5.229   0.365   1.463 -0.3840 -0.0423 -0.7599
29424SOL    HW194877   5.142   0.404   1.456 -0.7119 -0.7359 -0.6298
29424SOL    HW294878   5.214   0.271   1.452  0.1847 -0.2989  0.4393
29425SOL     OW94879  12.502   9.880   5.621  0.0738 -0.3138 -0.3276
29425SOL    HW194880  12.511   9.849   5.711  0.3895 -0.3033 -0.3558
29425SOL    HW294881  12.530   9.806   5.567 -1.7435 -0.9549 -0.4755
29426SOL     OW94882  10.794  11.607   9.570 -0.3678  0.2109 -0.3877
29426SOL    HW194883  10.827  11.600   9.481 -1.5309  1.1691 -0.9382
29426SOL    HW294884  10.753  11.694   9.573  0.2064  0.4612  1.2830
29427SOL     OW94885   8.994   6.275   7.262  0.1385 -0.6482 -0.3117
29427SOL    HW194886   9.071   6.306   7.309  0.0754 -0.1468 -0.5308
29427SOL    HW294887   8.958   6.206   7.318  1.0996 -1.3400 -0.5043
29428SOL     OW94888   7.158  10.969   2.993  0.4891 -0.3339 -0.3330
29428SOL    HW194889   7.217  10.899   2.967  2.4343  1.7492 -2.0123
29428SOL    HW294890   7.212  11.025   3.051 -0.1805  0.9933 -0.9468
29429SOL     OW94891   2.539   5.817   0.929  0.0775  0.0345 -0.4135
29429SOL    HW194892   2.492   5.808   0.846 -0.2631  0.6567 -0.2948
29429SOL    HW294893   2.521   5.736   0.976 -2.4052  0.9702  0.3878
29430SOL     OW94894   8.425  10.390   6.365 -0.1528 -0.1931  0.0292
29430SOL    HW194895   8.458  10.322   6.424  1.5444 -0.2768 -0.9380
29430SOL    HW294896   8.355  10.433   6.414 -2.5661 -3.7187  0.0496
29431SOL     OW94897  10.820  11.111  11.497 -0.3776 -0.1491 -0.1271
29431SOL    HW194898  10.784  11.196  11.472 -0.1744  0.0044  0.1011
29431SOL    HW294899  10.892  11.131  11.557  0.4381 -0.4221 -0.9713
29432SOL     OW94900  10.554   7.765   2.403  0.0935  0.3897  0.1009
29432SOL    HW194901  10.576   7.724   2.487 -0.1624 -0.6594 -0.3187
29432SOL    HW294902  10.595   7.707   2.338  0.9774  1.6305 -0.4774
29433SOL     OW94903   3.743   3.995  10.705  0.6593  0.0669 -0.4302
29433SOL    HW194904   3.732   4.033  10.792 -1.6202  0.3672 -0.7855
29433SOL    HW294905   3.728   3.902  10.716  0.8241  0.0402 -0.4302
29434SOL     OW94906   2.763   7.117   2.219 -0.6068 -0.0181  0.0169
29434SOL    HW194907   2.684   7.137   2.269 -1.6868 -1.9927 -0.7983
29434SOL    HW294908   2.744   7.034   2.176  2.2038 -0.9730  0.3969
29435SOL     OW94909   3.055  10.715   7.703  0.2667 -0.2041 -0.3333
29435SOL    HW194910   3.131  10.740   7.651 -1.7129  1.7387 -2.5144
29435SOL    HW294911   3.047  10.784   7.769  0.7165 -0.7552  0.3153
29436SOL     OW94912   7.294  12.422  10.633  0.7630 -0.0619 -0.2248
29436SOL    HW194913   7.388  12.405  10.622  0.9932  1.1199 -0.1902
29436SOL    HW294914   7.290  12.500  10.688 -0.2038  0.8331 -1.5066
29437SOL     OW94915   1.177   7.402   6.354 -0.6419 -0.2482  0.1498
29437SOL    HW194916   1.269   7.376   6.354 -0.8635 -1.1667  1.9235
29437SOL    HW294917   1.131   7.328   6.313 -0.6909 -0.2567  0.2193
29438SOL     OW94918   1.630  12.372   1.157 -0.0354  0.5979  0.0485
29438SOL    HW194919   1.608  12.427   1.232 -0.9083  0.1890  0.1116
29438SOL    HW294920   1.640  12.284   1.194  0.1382  0.4992 -0.2291
29439SOL     OW94921   6.912   2.209  11.363  0.0164  0.5094 -0.1385
29439SOL    HW194922   6.917   2.220  11.458  0.3848  0.8400 -0.1937
29439SOL    HW294923   6.891   2.116  11.351 -4.0838  1.2147  0.3674
29440SOL     OW94924   3.812  12.666   8.055  0.1865 -0.0008 -0.3434
29440SOL    HW194925   3.822  12.722   7.978 -0.3250  0.9703  0.2795
29440SOL    HW294926   3.882  12.601   8.046 -1.4380 -1.5989 -2.9956
29441SOL     OW94927   2.969  10.386   7.670  0.1360  0.0777 -0.6842
29441SOL    HW194928   2.927  10.449   7.612 -2.2786  1.1667  2.0081
29441SOL    HW294929   2.989  10.436   7.749 -1.8521 -2.3452  1.5560
29442SOL     OW94930   5.860  11.040   6.035 -0.1298 -0.2159 -0.1947
29442SOL    HW194931   5.781  11.065   5.986 -0.0785 -1.7147 -1.0904
29442SOL    HW294932   5.827  11.001   6.115 -0.2387  0.7554  0.2558
29443SOL     OW94933  12.620   7.959   0.868 -0.4164  0.1072 -0.5042
29443SOL    HW194934  12.596   7.983   0.957 -1.6626  0.6386 -0.9651
29443SOL    HW294935  12.675   8.032   0.837 -0.7783  0.3820 -0.4982
29444SOL     OW94936   2.804   0.895   4.235  0.0319 -0.0732 -0.1514
29444SOL    HW194937   2.836   0.840   4.306 -0.0637  0.6018  0.4242
29444SOL    HW294938   2.719   0.857   4.212 -0.1938  0.0368  0.4805
29445SOL     OW94939  10.080  12.692   7.032  0.0982  0.1842 -0.2468
29445SOL    HW194940   9.988  12.682   7.008  0.7267 -1.2646 -2.3633
29445SOL    HW294941  10.091  12.785   7.050 -1.7532  0.3812  0.0081
29446SOL     OW94942  11.795  10.198   0.296  0.1520 -0.3127  0.4176
29446SOL    HW194943  11.807  10.141   0.220 -0.3180  0.8971 -0.6070
29446SOL    HW294944  11.752  10.142   0.361 -1.3331 -0.8561 -0.9546
29447SOL     OW94945  10.077  10.586  11.462  0.1915  0.3716 -0.0437
29447SOL    HW194946  10.040  10.537  11.388  0.9941  2.1995 -1.7493
29447SOL    HW294947  10.169  10.599  11.438  0.1784  2.0437  0.6746
29448SOL     OW94948   6.557   0.463   8.806  0.7045  0.2808  0.4008
29448SOL    HW194949   6.650   0.439   8.808  0.6918  0.2731  1.5094
29448SOL    HW294950   6.527   0.451   8.897  0.0063  1.7938  0.4029
29449SOL     OW94951   6.853   6.578   2.430  1.1273  0.3567  0.0034
29449SOL    HW194952   6.892   6.494   2.455 -1.9092 -1.2874 -0.3212
29449SOL    HW294953   6.846   6.574   2.335  1.1972  1.1236 -0.0426
29450SOL     OW94954   3.466   3.187   4.782  0.5162  0.2833  0.2637
29450SOL    HW194955   3.387   3.173   4.730  0.5260  2.1240 -0.3313
29450SOL    HW294956   3.495   3.099   4.806 -0.6831 -0.5182 -1.0504
29451SOL     OW94957   5.693   9.677   7.983  0.3233 -0.6767  0.6788
29451SOL    HW194958   5.627   9.608   7.989 -0.0233 -0.4411 -0.1836
29451SOL    HW294959   5.770   9.641   8.026 -0.2841 -1.0647  1.4626
29452SOL     OW94960   7.923   5.080   1.006  0.4008 -0.3063  0.6266
29452SOL    HW194961   7.995   5.138   1.031 -0.6624  1.0482  0.6715
29452SOL    HW294962   7.855   5.139   0.975 -0.7839 -1.5448  0.7946
29453SOL     OW94963   6.441   8.525   8.675 -0.1143  0.6194  0.6269
29453SOL    HW194964   6.360   8.473   8.671 -0.6821  1.3218  2.2559
29453SOL    HW294965   6.511   8.462   8.661 -0.8656 -0.3128  0.9562
29454SOL     OW94966   6.036   7.539  10.388 -0.2442  0.0741 -0.6404
29454SOL    HW194967   6.059   7.551  10.296 -0.1009  1.6503 -0.4326
29454SOL    HW294968   6.095   7.470  10.419  2.4938  2.1732 -0.8049
29455SOL     OW94969   0.700   3.022   9.267 -0.6143  0.0982  0.0289
29455SOL    HW194970   0.716   3.094   9.206 -0.4669  0.9026  0.9946
29455SOL    HW294971   0.745   2.947   9.227 -3.0464 -0.2318 -2.4088
29456SOL     OW94972   9.424  12.092   6.662 -0.2734 -0.8024  0.1835
29456SOL    HW194973   9.371  12.172   6.671 -2.0426 -1.6863 -1.6959
29456SOL    HW294974   9.369  12.023   6.699  0.7990 -1.3327  0.8164
29457SOL     OW94975   1.600   3.262   4.935 -0.5989 -0.3726 -0.4934
29457SOL    HW194976   1.576   3.214   4.855  2.6746 -2.1750 -0.5755
29457SOL    HW294977   1.665   3.325   4.906 -0.3951 -0.0934  0.5580
29458SOL     OW94978   7.346   2.029   9.665 -0.4732  0.3742  0.9167
29458SOL    HW194979   7.366   1.980   9.585 -4.1558 -1.1316  0.7019
29458SOL    HW294980   7.353   2.121   9.638  1.9872 -0.0096 -0.0023
29459SOL     OW94981   8.919   0.068   3.732 -0.4563 -0.0219 -0.0193
29459SOL    HW194982   8.993   0.086   3.674 -0.9756  0.5963 -0.5050
29459SOL    HW294983   8.945   0.105   3.816  0.3383 -0.9942  0.1773
29460SOL     OW94984   4.037   5.436   7.136 -0.3117  0.1761 -0.0286
29460SOL    HW194985   3.962   5.495   7.142 -1.6293 -1.4363  0.0397
29460SOL    HW294986   4.015   5.376   7.065  1.2786  0.1553 -0.5323
29461SOL     OW94987   4.058   1.777   2.186  0.1952  0.0965  0.0692
29461SOL    HW194988   4.006   1.855   2.208  1.1170  1.4238 -2.1476
29461SOL    HW294989   4.004   1.728   2.125  0.1524 -0.3481  0.4570
29462SOL     OW94990   9.511   5.760   8.155 -0.2026  0.0983  0.9125
29462SOL    HW194991   9.450   5.687   8.163  0.1128 -0.2333  0.3220
29462SOL    HW294992   9.592   5.728   8.195  0.3762 -0.4008 -0.5993
29463SOL     OW94993  10.446   0.877   3.534 -0.1132 -0.1215 -0.3232
29463SOL    HW194994  10.503   0.889   3.610  0.4819 -0.1548 -0.7587
29463SOL    HW294995  10.442   0.963   3.493 -1.6339  0.2518  0.5714
29464SOL     OW94996   9.096   1.016   7.604 -0.2811  0.4232 -0.3208
29464SOL    HW194997   9.154   1.091   7.590  0.1196  0.8517  2.9368
29464SOL    HW294998   9.095   1.003   7.699 -2.8748 -1.7187 -0.5120
29465SOL     OW94999   2.899  11.006   3.416 -0.2047 -0.0319  0.0184
29465SOL    HW195000   2.820  11.058   3.432 -0.2588  0.0841 -0.6089
29465SOL    HW295001   2.904  10.999   3.321 -0.2063 -1.2038  0.1001
29466SOL     OW95002   5.572   5.336   9.931 -0.0339  0.2130 -0.1055
29466SOL    HW195003   5.610   5.252   9.956  0.5005  0.4889  0.0138
29466SOL    HW295004   5.528   5.366  10.011 -0.4222 -0.0563 -0.2131
29467SOL     OW95005   5.165   0.273   0.768 -0.0736  0.4112  0.1143
29467SOL    HW195006   5.236   0.248   0.827 -1.1397  0.4820  1.4622
29467SOL    HW295007   5.146   0.193   0.719 -0.1702 -0.0740  0.9263
29468SOL     OW95008   6.019   3.976  10.088 -0.0228 -0.0626 -0.0595
29468SOL    HW195009   5.942   4.030  10.108  0.1204 -0.4160  1.5916
29468SOL    HW295010   6.028   3.981   9.993  0.3030  3.2719  0.0174
29469SOL     OW95011   6.891   2.411  10.975  0.1209  0.0348  0.1124
29469SOL    HW195012   6.824   2.415  11.043  0.1499 -1.2070  0.2433
29469SOL    HW295013   6.846   2.432  10.894 -0.0779  0.7659  0.4042
29470SOL     OW95014   5.426   9.475   6.610  0.3632  0.2311 -0.2727
29470SOL    HW195015   5.419   9.396   6.665  1.7820  0.5221  0.3755
29470SOL    HW295016   5.426   9.547   6.672 -1.7516  0.8535 -0.9051
29471SOL     OW95017   2.765   1.979   6.024  0.2768 -0.5804 -0.0792
29471SOL    HW195018   2.777   1.891   6.060  2.1521 -0.9657 -1.4869
29471SOL    HW295019   2.827   2.034   6.071  0.2671 -0.3549 -0.3267
29472SOL     OW95020   2.398   9.874   0.708  0.1111  0.2058  0.2809
29472SOL    HW195021   2.334   9.888   0.777 -1.6295 -0.2552 -1.1562
29472SOL    HW295022   2.350   9.828   0.639  1.7656  0.5931 -1.2261
29473SOL     OW95023   1.855   5.254   1.568 -0.0887 -0.4958 -0.2456
29473SOL    HW195024   1.935   5.205   1.587  0.4526 -0.7978 -2.9298
29473SOL    HW295025   1.805   5.198   1.509 -2.4919 -0.4345  1.5705
29474SOL     OW95026   4.519   3.321  11.014 -0.4602  0.0674 -0.2885
29474SOL    HW195027   4.438   3.273  11.031 -0.3563 -0.0841 -0.2226
29474SOL    HW295028   4.502   3.369  10.933 -1.4357  1.8012  0.8649
29475SOL     OW95029   5.249   2.212  11.652 -0.0307  0.0615  0.1922
29475SOL    HW195030   5.341   2.188  11.639 -0.1673  0.0274 -0.8761
29475SOL    HW295031   5.251   2.299  11.691  0.4540 -0.0319  0.3799
29476SOL     OW95032   7.852   8.623   5.893 -0.3846 -0.3035  0.3544
29476SOL    HW195033   7.869   8.662   5.979  1.1843  1.1847 -0.5610
29476SOL    HW295034   7.937   8.588   5.866 -0.3811  0.9861 -1.4016
29477SOL     OW95035   8.135   4.494   4.463 -0.2164  0.1126  0.4076
29477SOL    HW195036   8.213   4.493   4.407 -0.7367  0.1648 -0.3353
29477SOL    HW295037   8.155   4.431   4.532  0.0557 -0.7063 -0.3895
29478SOL     OW95038   1.817   1.639  11.448 -0.3102 -0.1458  0.2359
29478SOL    HW195039   1.760   1.573  11.487 -0.2140  0.1527  0.8889
29478SOL    HW295040   1.903   1.597  11.444 -0.0417  0.2583  1.5160
29479SOL     OW95041   8.265   0.528   6.745 -0.3100 -0.4977 -0.1197
29479SOL    HW195042   8.330   0.594   6.721  1.5412 -2.5997 -1.2099
29479SOL    HW295043   8.181   0.576   6.744  1.1025  2.2183  0.9631
29480SOL     OW95044   9.093   8.581   4.207 -0.0331  0.1895 -0.4833
29480SOL    HW195045   9.168   8.525   4.191  0.9779  1.3278  0.1209
29480SOL    HW295046   9.129   8.660   4.248 -1.5516  0.7544 -0.1381
29481SOL     OW95047   5.349   7.739   8.386  0.2906 -0.2227 -0.0606
29481SOL    HW195048   5.324   7.655   8.425 -1.3448  0.4265  0.4046
29481SOL    HW295049   5.372   7.794   8.461  1.1747 -0.1948 -0.3498
29482SOL     OW95050   3.962   8.741   7.521  0.1252  0.2995 -0.0449
29482SOL    HW195051   3.893   8.798   7.553  0.5362  1.3125 -0.9100
29482SOL    HW295052   3.941   8.727   7.429 -0.3059 -1.4718  0.2909
29483SOL     OW95053   6.858   9.462  10.334  0.4077 -0.0328 -0.4681
29483SOL    HW195054   6.867   9.557  10.330  1.3870 -0.0738  0.2728
29483SOL    HW295055   6.780   9.443  10.283 -1.3017  1.4052  1.4552
29484SOL     OW95056   6.057   1.777   5.692 -0.0679 -0.2348  0.3185
29484SOL    HW195057   6.074   1.817   5.607  0.6114  1.2726  1.1310
29484SOL    HW295058   5.964   1.792   5.707 -0.0239  0.1805  0.1873
29485SOL     OW95059   4.495  11.658  11.120  0.4061 -0.2054  0.2993
29485SOL    HW195060   4.494  11.565  11.096 -2.0151 -0.8232  2.3423
29485SOL    HW295061   4.517  11.658  11.213  0.6320  1.3196  0.2654
29486SOL     OW95062   8.809  10.532   8.270 -0.2517  0.3695  0.2708
29486SOL    HW195063   8.878  10.552   8.333 -0.7524 -0.6510  1.1798
29486SOL    HW295064   8.854  10.491   8.196  0.1228 -0.4013  0.9112
29487SOL     OW95065   9.768  11.500  11.304  0.0419 -0.6701 -0.2857
29487SOL    HW195066   9.696  11.542  11.351  1.1026  1.1692 -0.2162
29487SOL    HW295067   9.846  11.525  11.353  0.7451 -3.0387 -0.0722
29488SOL     OW95068  12.160  12.092   7.047  0.1582  0.3784 -0.0625
29488SOL    HW195069  12.234  12.141   7.012 -0.4084  0.3554 -1.3301
29488SOL    HW295070  12.100  12.082   6.973  0.5729 -2.8458 -0.1099
29489SOL     OW95071   0.408   7.242   8.821  0.3229 -0.2132  0.2890
29489SOL    HW195072   0.329   7.279   8.781  0.1317  0.1344  0.9707
29489SOL    HW295073   0.438   7.177   8.758 -0.2444 -0.0213 -0.1962
29490SOL     OW95074   6.116   2.310   3.515 -0.8451  0.2620  0.3866
29490SOL    HW195075   6.049   2.266   3.566 -0.9102 -0.1580 -0.0518
29490SOL    HW295076   6.074   2.331   3.432  0.0190 -1.5148 -0.5485
29491SOL     OW95077   6.603   9.519  12.504 -0.2218  0.6104  0.2221
29491SOL    HW195078   6.525   9.508  12.558 -0.6412  1.2593 -0.2524
29491SOL    HW295079   6.608   9.613  12.487  0.9041  0.6359  0.5998
29492SOL     OW95080   5.801   3.884   4.906 -0.3173  0.0735 -0.1645
29492SOL    HW195081   5.775   3.908   4.995  0.3890 -2.0042  0.6649
29492SOL    HW295082   5.750   3.942   4.850  0.2141  2.4072  1.5755
29493SOL     OW95083  12.410   8.801  12.020 -0.3546  0.0940  0.4557
29493SOL    HW195084  12.409   8.802  12.115 -1.7075  2.2821  0.4978
29493SOL    HW295085  12.317   8.801  11.995 -0.0285  0.0234 -0.8477
29494SOL     OW95086   3.436   9.810  10.575  0.2280 -0.0239  0.4115
29494SOL    HW195087   3.359   9.842  10.622  0.5579  0.8185  0.3810
29494SOL    HW295088   3.468   9.886  10.526  0.9615 -0.4207  0.2648
29495SOL     OW95089   7.148   0.440   0.453  0.0750 -0.4815  0.3210
29495SOL    HW195090   7.060   0.455   0.488  0.6871 -0.1970  1.8250
29495SOL    HW295091   7.140   0.456   0.359 -1.4628 -0.4207  0.4379
29496SOL     OW95092   2.137   6.313   6.131  0.1955  0.4943 -0.2956
29496SOL    HW195093   2.064   6.311   6.194  0.9809 -0.2990  0.6318
29496SOL    HW295094   2.095   6.311   6.045 -0.8669 -0.8410  0.2205
29497SOL     OW95095   8.018  12.099   2.231  0.1936  0.1631  0.6705
29497SOL    HW195096   8.107  12.113   2.263  0.7872  0.3765 -0.9615
29497SOL    HW295097   7.991  12.184   2.197  0.3400 -0.4267 -1.0578
29498SOL     OW95098  11.547  12.375   3.756  0.1199 -0.3656 -0.5687
29498SOL    HW195099  11.593  12.393   3.674  0.3781 -1.3990 -0.6738
29498SOL    HW295100  11.476  12.316   3.730 -0.8307  0.6197 -0.2933
29499SOL     OW95101   6.059   5.912   0.264 -0.4236  0.0531  0.1686
29499SOL    HW195102   6.129   5.848   0.278 -0.7800  0.1319  2.7901
29499SOL    HW295103   6.082   5.955   0.182  2.1867 -0.4847  0.5273
29500SOL     OW95104   0.961   6.611   7.372 -0.4035 -0.5720  0.4473
29500SOL    HW195105   0.871   6.594   7.344  0.8423 -2.1193 -3.4624
29500SOL    HW295106   0.992   6.526   7.403  0.0743 -0.4227  0.3857
29501SOL     OW95107   2.616   3.233   1.479  0.6371  0.0557 -0.2021
29501SOL    HW195108   2.622   3.151   1.530 -0.1612 -0.3671 -0.7802
29501SOL    HW295109   2.708   3.259   1.466  0.9962 -1.6330 -1.4146
29502SOL     OW95110  11.825   6.324   8.336 -0.0238 -0.2346 -0.3095
29502SOL    HW195111  11.825   6.229   8.346 -0.7157 -0.0463  1.9738
29502SOL    HW295112  11.911   6.351   8.369 -0.4044  0.0195  0.5065
29503SOL     OW95113   7.224   3.478   2.351 -1.3240 -0.0564  0.4833
29503SOL    HW195114   7.157   3.519   2.295 -3.6000 -1.3058  2.1407
29503SOL    HW295115   7.252   3.401   2.302  0.1610  1.3013 -0.9294
29504SOL     OW95116   0.418   3.068   2.959 -0.3835  0.4966  0.2078
29504SOL    HW195117   0.474   3.071   2.881 -1.2775  2.4184 -0.4210
29504SOL    HW295118   0.340   3.021   2.931  0.2896 -0.9673  0.6898
29505SOL     OW95119   8.315   4.077   9.981  0.3451 -0.2875  0.2335
29505SOL    HW195120   8.399   4.108   9.948 -1.0774  0.8310 -2.6991
29505SOL    HW295121   8.289   4.142  10.046  1.5263 -0.4510  0.8990
29506SOL     OW95122   7.403  12.772   5.256  0.4318 -0.0687  0.3762
29506SOL    HW195123   7.392  12.712   5.330 -0.0213 -1.0687 -0.4839
29506SOL    HW295124   7.314  12.798   5.233  0.5220 -0.2541 -0.2050
29507SOL     OW95125   2.283   3.346   7.507 -0.1021  0.3607 -0.2047
29507SOL    HW195126   2.349   3.283   7.477  1.0115  0.9207  0.9754
29507SOL    HW295127   2.324   3.390   7.581 -2.6420 -0.8106  2.0628
29508SOL     OW95128   0.542   1.435  10.358 -0.2450 -0.7597  0.2298
29508SOL    HW195129   0.481   1.385  10.305 -1.8104  0.3924  0.8858
29508SOL    HW295130   0.501   1.439  10.445  1.1666 -0.6630  0.9317
29509SOL     OW95131   9.723   0.787   2.474  0.1216 -0.0628 -0.0451
29509SOL    HW195132   9.647   0.845   2.482  0.7950  0.8481 -0.1175
29509SOL    HW295133   9.799   0.845   2.484  0.8090 -1.0283  0.4863
29510SOL     OW95134   2.514  11.084  11.859  0.1088  0.2852 -0.8017
29510SOL    HW195135   2.425  11.057  11.835 -0.2355  0.0013  0.6446
29510SOL    HW295136   2.553  11.005  11.895  1.7633 -0.1899 -3.4203
29511SOL     OW95137   7.936   4.634   9.594 -0.5737  0.0168 -0.0397
29511SOL    HW195138   7.901   4.712   9.552  1.5946  1.1102  0.0525
29511SOL    HW295139   7.974   4.583   9.523  0.5832  0.4964  0.2065
29512SOL     OW95140  10.356   8.505   1.390  0.0785  0.2980  0.4401
29512SOL    HW195141  10.311   8.456   1.321  0.1376 -0.1124  0.6947
29512SOL    HW295142  10.288   8.559   1.429 -0.2579 -0.5162  0.9997
29513SOL     OW95143   2.960  11.904   4.517  0.7760  0.2788 -0.2357
29513SOL    HW195144   2.909  11.978   4.484  1.4114 -0.4865 -3.3220
29513SOL    HW295145   3.046  11.941   4.536  0.1596  0.8987  1.5487
29514SOL     OW95146   0.914   1.434   6.293 -0.3502 -0.4944  0.2640
29514SOL    HW195147   0.973   1.363   6.317 -1.3654 -0.5248  3.0453
29514SOL    HW295148   0.846   1.391   6.240  1.3884 -0.6509 -2.0154
29515SOL     OW95149   2.132  12.422   0.169  0.0949 -0.2280 -0.2248
29515SOL    HW195150   2.226  12.405   0.177  0.2866  0.6955 -0.3628
29515SOL    HW295151   2.099  12.416   0.259  0.3454 -0.2507 -0.1333
29516SOL     OW95152   5.621   0.279   9.009 -0.1871 -0.0100  0.0320
29516SOL    HW195153   5.669   0.360   9.029 -1.3395  0.2605  2.0158
29516SOL    HW295154   5.637   0.264   8.916  0.7134  2.0572 -0.2076
29517SOL     OW95155  11.643   4.453   7.284 -0.1519 -0.6442  0.2133
29517SOL    HW195156  11.714   4.464   7.348 -1.3438 -1.2284  1.6963
29517SOL    HW295157  11.662   4.519   7.217  1.2971 -0.1885  1.0143
29518SOL     OW95158   9.983   3.673   9.658 -0.4389  0.0207  0.0468
29518SOL    HW195159   9.934   3.642   9.582  0.0018 -0.0767 -0.2033
29518SOL    HW295160   9.934   3.749   9.689  0.8174  1.7781 -2.0011
29519SOL     OW95161   3.364   4.645   1.128 -0.1273 -0.1009 -0.1423
29519SOL    HW195162   3.294   4.686   1.077 -1.6396 -1.2482  0.9294
29519SOL    HW295163   3.434   4.710   1.129 -1.3892  1.3205 -0.7723
29520SOL     OW95164   9.218   2.223   3.039 -0.3480 -0.3724 -0.2514
29520SOL    HW195165   9.226   2.302   2.985 -2.1996 -0.1007 -0.2114
29520SOL    HW295166   9.308   2.193   3.053  0.3311  1.2149 -1.0245
29521SOL     OW95167   8.413   8.773   5.667  0.4880  0.0508 -0.0486
29521SOL    HW195168   8.477   8.835   5.632  0.8842 -0.5375 -0.3883
29521SOL    HW295169   8.460   8.725   5.735  0.5269 -0.6146 -0.5291
29522SOL     OW95170   6.753   6.086  12.535 -0.3652 -0.7073 -0.7341
29522SOL    HW195171   6.836   6.125  12.508 -0.0815 -1.5449 -1.0919
29522SOL    HW295172   6.715   6.051  12.454 -0.7966 -0.8399 -0.4800
29523SOL     OW95173   2.963  10.748   5.914  0.7522 -0.5625  0.3204
29523SOL    HW195174   2.982  10.842   5.915  0.1469 -0.4306 -0.0991
29523SOL    HW295175   2.936  10.728   6.004  0.8800 -0.3413  0.4091
29524SOL     OW95176   3.817   5.133  12.490  0.1079  0.4318  0.0789
29524SOL    HW195177   3.903   5.171  12.471  0.6965 -0.8513  0.0331
29524SOL    HW295178   3.778   5.116  12.404  1.3780 -2.3084 -0.0833
29525SOL     OW95179   1.902  11.711  10.828  0.2339 -0.4322  0.0513
29525SOL    HW195180   1.884  11.760  10.908  0.7868 -0.8318  0.4202
29525SOL    HW295181   1.817  11.707  10.783 -0.0918 -0.2742  0.6490
29526SOL     OW95182   9.772   5.769   4.948 -0.2373  0.2581  0.2592
29526SOL    HW195183   9.812   5.782   5.035 -1.2546 -1.3988  1.0149
29526SOL    HW295184   9.798   5.681   4.923  1.1239  1.1585 -1.7657
29527SOL     OW95185   3.120  11.656   3.923  0.6526  0.4052 -0.1524
29527SOL    HW195186   3.061  11.654   3.998  0.1375  2.3693 -0.4483
29527SOL    HW295187   3.108  11.743   3.885  2.7457  0.3784 -1.0287
29528SOL     OW95188   8.283   9.329   4.850  0.1979 -0.3865 -0.3174
29528SOL    HW195189   8.241   9.270   4.787 -0.8608  1.0834 -1.0643
29528SOL    HW295190   8.284   9.280   4.932 -0.5692 -1.4695 -0.9278
29529SOL     OW95191   5.692  12.044  11.096  0.0930 -0.3251  0.1637
29529SOL    HW195192   5.610  12.023  11.139  1.0482 -0.7311  1.8784
29529SOL    HW295193   5.699  12.139  11.101  0.1282 -0.3565  0.8228
29530SOL     OW95194   3.726   6.271  12.575  0.6100 -0.2061  0.1818
29530SOL    HW195195   3.648   6.324  12.560  1.0949  0.6119  0.5205
29530SOL    HW295196   3.744   6.280  12.668  0.7134 -0.9543  0.2426
29531SOL     OW95197  10.549  11.739   3.796  0.0080  0.0946 -0.6207
29531SOL    HW195198  10.603  11.801   3.846  0.1464  0.6553 -1.4528
29531SOL    HW295199  10.484  11.794   3.753 -0.2757 -0.4177 -0.8466
29532SOL     OW95200   5.354   2.391   6.367 -0.0978  0.2036 -0.5801
29532SOL    HW195201   5.289   2.398   6.297 -0.6892  1.6667  0.0627
29532SOL    HW295202   5.423   2.452   6.343  1.3763 -1.7138 -1.5209
29533SOL     OW95203   9.100   8.891   0.012 -0.4712 -0.6140  0.0462
29533SOL    HW195204   9.127   8.977   0.045 -0.0135 -0.7407  0.0113
29533SOL    HW295205   9.100   8.835   0.090 -1.3313 -0.4542  0.1711
29534SOL     OW95206  10.949   6.102   9.457  0.3883  0.0033 -0.1444
29534SOL    HW195207  10.975   6.191   9.433  2.2262 -0.5685 -0.4415
29534SOL    HW295208  10.957   6.052   9.375 -0.5244 -0.4685  0.0425
29535SOL     OW95209   9.584   7.123   7.804  0.2632  0.2114  0.1686
29535SOL    HW195210   9.619   7.048   7.852  0.2480 -0.1899 -0.4273
29535SOL    HW295211   9.502   7.092   7.767 -0.1938  0.8161  0.6711
29536SOL     OW95212  11.506  12.358   5.343  1.1254 -0.5735 -0.8838
29536SOL    HW195213  11.532  12.326   5.429  1.2969  0.0983 -0.6765
29536SOL    HW295214  11.486  12.451   5.357 -1.9055 -1.1275 -0.8916
29537SOL     OW95215   5.497   1.058   4.529 -0.2304 -0.2055  0.0897
29537SOL    HW195216   5.450   0.981   4.560 -0.2579 -0.1612  0.1618
29537SOL    HW295217   5.585   1.048   4.564 -0.4811  0.2537  0.8987
29538SOL     OW95218   3.502  10.450   6.243 -0.2763  0.4572 -0.7001
29538SOL    HW195219   3.501  10.415   6.154  2.3293 -0.1084 -0.6115
29538SOL    HW295220   3.578  10.408   6.284 -0.5121  1.8319  1.3233
29539SOL     OW95221   7.992   5.958  11.294  0.3882  0.6533  0.1526
29539SOL    HW195222   8.063   5.893  11.296 -0.5363 -0.3953 -0.0222
29539SOL    HW295223   7.933   5.927  11.226 -0.6085  1.1034  0.7821
29540SOL     OW95224   7.433  12.631   5.487 -0.4228  0.1964 -0.1311
29540SOL    HW195225   7.489  12.557   5.465 -1.5486 -0.9906  0.7886
29540SOL    HW295226   7.484  12.681   5.552 -0.3536 -0.7937  0.6041
29541SOL     OW95227   2.426   4.576   9.912  0.5384 -0.4555 -0.6834
29541SOL    HW195228   2.521   4.565   9.920  0.5070 -1.4042 -1.4327
29541SOL    HW295229   2.409   4.570   9.819 -0.2012  0.3932 -0.6196
29542SOL     OW95230   5.115  12.287  11.664 -0.1536 -0.2148 -0.2718
29542SOL    HW195231   5.057  12.311  11.591  0.0304 -0.8130 -0.6298
29542SOL    HW295232   5.181  12.231  11.624 -1.1059 -2.1074  0.6497
29543SOL     OW95233   1.666   2.364   1.651  0.1623  0.3530  0.3510
29543SOL    HW195234   1.576   2.396   1.646 -0.4672 -1.2611  0.7836
29543SOL    HW295235   1.718   2.433   1.611 -1.3596  0.9140 -0.7522
29544SOL     OW95236   8.749   1.658  11.639 -0.2514 -0.1478 -0.4022
29544SOL    HW195237   8.768   1.748  11.663 -0.3816 -0.6067  1.5734
29544SOL    HW295238   8.751   1.658  11.543 -0.8182  2.0485 -0.4655
29545SOL     OW95239   6.126   5.222   0.453 -0.3487 -0.2907 -0.2003
29545SOL    HW195240   6.196   5.282   0.426  1.0038 -0.2866  2.9169
29545SOL    HW295241   6.163   5.135   0.438  0.3857 -0.2885  1.4237
29546SOL     OW95242   5.101   9.006   5.443  0.0524  0.1598 -0.4027
29546SOL    HW195243   5.017   9.042   5.471  0.8164  0.5895  1.4781
29546SOL    HW295244   5.115   8.931   5.501  0.5463 -0.4911 -1.3348
29547SOL     OW95245   0.074   8.514   7.079  0.3060 -0.1844  0.3060
29547SOL    HW195246   0.155   8.542   7.122  0.6325  2.4690 -1.8112
29547SOL    HW295247   0.008   8.518   7.149  1.3588  1.1449  1.2883
29548SOL     OW95248   4.291   7.711   8.778 -0.2514 -0.2687  0.3326
29548SOL    HW195249   4.332   7.663   8.706 -1.3266 -0.1733 -0.3859
29548SOL    HW295250   4.285   7.801   8.746  0.3583  0.0363  1.0485
29549SOL     OW95251  11.521   9.968   7.368 -0.0819  0.1368  0.5695
29549SOL    HW195252  11.524   9.924   7.283 -0.6749  2.0245 -0.4869
29549SOL    HW295253  11.429   9.966   7.393 -0.0481  0.4049  0.7192
29550SOL     OW95254   7.469   7.930   2.428 -0.1769 -0.0926  0.0492
29550SOL    HW195255   7.509   8.015   2.448  0.5169 -0.3816 -0.0631
29550SOL    HW295256   7.424   7.944   2.345 -1.0395  0.4695  0.6016
29551SOL     OW95257  11.685   4.994   0.628  0.0697  0.0234  0.3617
29551SOL    HW195258  11.776   4.994   0.597  0.4680 -0.3286  1.4981
29551SOL    HW295259  11.690   5.030   0.716 -1.0167  0.7932  0.1263
29552SOL     OW95260   0.490   1.874   7.505 -0.5894  0.0301  0.3115
29552SOL    HW195261   0.484   1.955   7.453  0.0392  0.6105  1.1249
29552SOL    HW295262   0.565   1.828   7.469  0.9046  1.2288  1.7521
29553SOL     OW95263   1.568  10.169   1.380 -0.5291  0.2304  0.0605
29553SOL    HW195264   1.663  10.178   1.387 -0.7784  2.2710  1.7647
29553SOL    HW295265   1.537  10.176   1.470 -2.3906  1.2499 -0.6098
29554SOL     OW95266   2.814   2.577   3.039 -0.1123 -0.5099 -0.0231
29554SOL    HW195267   2.720   2.565   3.028 -0.0489 -1.7477  0.5255
29554SOL    HW295268   2.852   2.493   3.014  0.9443  0.2598 -1.1165
29555SOL     OW95269   4.096   5.249   5.051  0.3335  0.4499  0.3828
29555SOL    HW195270   4.067   5.280   5.137 -0.9845 -1.1855  0.5876
29555SOL    HW295271   4.030   5.185   5.025  0.6553  0.9376 -1.9038
29556SOL     OW95272   3.768   8.229  10.183 -0.3201 -0.6275  0.1091
29556SOL    HW195273   3.800   8.301  10.128  0.0004 -1.2098 -0.4794
29556SOL    HW295274   3.727   8.169  10.122 -1.0306 -0.7204  0.6593
29557SOL     OW95275   3.676   0.483  11.628 -0.1221 -0.1964  0.7806
29557SOL    HW195276   3.755   0.452  11.584 -0.9420  0.0438 -0.9175
29557SOL    HW295277   3.705   0.501  11.718  2.3791  2.1563 -0.3485
29558SOL     OW95278   3.852   4.739  10.365 -0.3071 -0.1962  0.0720
29558SOL    HW195279   3.931   4.720  10.414 -0.7604  0.7552  1.2035
29558SOL    HW295280   3.880   4.740  10.273  0.6535 -1.4308  0.3305
29559SOL     OW95281   7.780   8.911  12.014 -0.4947 -0.2911 -0.3908
29559SOL    HW195282   7.706   8.851  12.008 -1.7680  1.1105  0.3998
29559SOL    HW295283   7.830   8.882  12.091 -1.3310 -0.1120  0.2313
29560SOL     OW95284   9.761   8.878   4.979 -0.3093 -0.0633 -0.3206
29560SOL    HW195285   9.727   8.909   4.895  0.5323  0.1335 -0.5990
29560SOL    HW295286   9.689   8.828   5.017 -1.3071  1.2837 -0.3749
29561SOL     OW95287   4.037   4.163   7.130 -0.2931  0.0494  0.3738
29561SOL    HW195288   4.107   4.183   7.192  0.5097 -1.2252 -0.0767
29561SOL    HW295289   4.083   4.127   7.054 -1.1871  2.0521 -1.2237
29562SOL     OW95290   1.330   6.787   8.386  0.4876 -0.3031 -0.6265
29562SOL    HW195291   1.377   6.778   8.302 -0.4184  0.3649 -1.2198
29562SOL    HW295292   1.240   6.764   8.365  0.3263 -0.5272  0.2734
29563SOL     OW95293  11.783   7.440   0.555  0.0590 -0.2797  0.3159
29563SOL    HW195294  11.727   7.461   0.480 -0.1632 -0.8428  0.3159
29563SOL    HW295295  11.723   7.433   0.629 -0.2600 -3.1241 -0.0837
29564SOL     OW95296  10.650   0.677   3.768 -0.1368  0.3907  0.1766
29564SOL    HW195297  10.738   0.643   3.783  0.1222  0.0303 -1.8744
29564SOL    HW295298  10.664   0.765   3.734 -0.5040  0.0391 -0.9311
29565SOL     OW95299   8.479   4.150   0.048 -0.1485 -0.9658 -0.8234
29565SOL    HW195300   8.456   4.232   0.094 -2.8017 -2.0315 -0.0639
29565SOL    HW295301   8.436   4.158  -0.037 -1.3181 -1.9410 -0.3556
29566SOL     OW95302   1.066  10.784   9.242 -0.1573  0.5141 -0.3502
29566SOL    HW195303   1.005  10.815   9.309  1.0597  0.6483  0.7310
29566SOL    HW295304   1.112  10.711   9.283  0.9581  0.9094 -0.8606
29567SOL     OW95305   5.737   1.683   6.750 -0.2913  0.1447  0.2859
29567SOL    HW195306   5.775   1.619   6.810  2.2481  1.3885  0.1363
29567SOL    HW295307   5.812   1.714   6.699 -1.9116  1.2340 -1.5254
29568SOL     OW95308   7.880   3.947   8.483 -0.2562  0.2101 -0.0359
29568SOL    HW195309   7.890   4.038   8.513 -2.8820  0.2592  0.9798
29568SOL    HW295310   7.833   3.955   8.400  1.1984 -0.2030 -0.9339
29569SOL     OW95311   8.579   5.891   0.487  0.0098 -0.1265 -0.0236
29569SOL    HW195312   8.580   5.796   0.499 -2.2519 -0.2849 -0.5092
29569SOL    HW295313   8.511   5.922   0.547  1.1300  1.2981  0.5807
29570SOL     OW95314  10.406   9.203   0.434  0.3223 -0.4387 -0.0777
29570SOL    HW195315  10.459   9.133   0.395  0.5096  0.3365 -1.2899
29570SOL    HW295316  10.468   9.252   0.488  0.3824 -0.7173  0.1079
29571SOL     OW95317   4.564   4.276   3.000 -0.5403 -0.5876 -0.0038
29571SOL    HW195318   4.580   4.298   2.908 -0.6053  0.7205  0.2819
29571SOL    HW295319   4.469   4.278   3.009 -0.4906  2.7101  0.8368
29572SOL     OW95320   3.361   6.914   4.353 -0.1197 -0.2380 -0.7444
29572SOL    HW195321   3.413   6.854   4.406  0.1415 -0.0468 -0.7789
29572SOL    HW295322   3.274   6.875   4.349 -0.1737 -0.1900 -0.0679
29573SOL     OW95323   4.307   3.488   1.924 -0.1551  0.2058  0.2662
29573SOL    HW195324   4.301   3.422   1.993  1.8954 -0.0687  0.2265
29573SOL    HW295325   4.328   3.569   1.969  1.5771 -0.0492 -0.0194
29574SOL     OW95326   4.747   7.330   9.695 -0.3981  0.2316  0.4232
29574SOL    HW195327   4.697   7.279   9.759 -0.0125  0.1716  0.6810
29574SOL    HW295328   4.738   7.420   9.725  0.6929  0.0967  1.2066
29575SOL     OW95329   8.057  12.730   8.740  0.5288  0.3014 -0.2358
29575SOL    HW195330   8.045  12.825   8.731  1.2875  0.5533  1.1330
29575SOL    HW295331   7.969  12.695   8.748  0.2424  0.8965 -0.7091
29576SOL     OW95332   6.551  10.726   3.039  0.5430  0.5429  0.0824
29576SOL    HW195333   6.531  10.639   3.076 -0.7025  1.0739  0.7258
29576SOL    HW295334   6.591  10.773   3.112  0.8661  0.6364 -0.1553
29577SOL     OW95335   3.163  11.812   6.181  0.1940 -0.0004  0.2615
29577SOL    HW195336   3.082  11.806   6.232  0.6395  0.1397  1.0099
29577SOL    HW295337   3.196  11.899   6.200 -1.3701  1.4802 -3.0141
29578SOL     OW95338  12.777   5.394   0.958  0.1460 -0.0521 -0.7182
29578SOL    HW195339  12.720   5.321   0.983 -0.3073  0.6424  0.3631
29578SOL    HW295340  12.863   5.354   0.945 -0.0089 -0.7326  0.2336
29579SOL     OW95341   8.503   3.579  10.283 -0.5481  0.2496 -0.0277
29579SOL    HW195342   8.538   3.663  10.313 -1.4494  0.1890  1.2662
29579SOL    HW295343   8.453   3.600  10.204 -1.2178  1.0183  0.5966
29580SOL     OW95344  10.163  11.996   9.777  0.0271 -0.2407  0.5533
29580SOL    HW195345  10.132  11.982   9.867  1.0661 -0.0405  0.9552
29580SOL    HW295346  10.211  11.916   9.756 -0.4449 -0.4044  0.0623
29581SOL     OW95347   7.600  12.090   3.515 -0.4442 -0.1118 -0.1720
29581SOL    HW195348   7.649  12.014   3.546 -1.1383  0.0312  1.3586
29581SOL    HW295349   7.624  12.098   3.423  1.6860 -0.5977  0.2772
29582SOL     OW95350  12.197   8.536   8.024 -0.5331  0.4073 -0.4634
29582SOL    HW195351  12.194   8.444   8.049 -0.9342  0.3919 -0.5548
29582SOL    HW295352  12.185   8.584   8.107  1.0337  0.4104 -0.2092
29583SOL     OW95353   3.410   5.078   3.743  0.0134 -0.0638  0.2595
29583SOL    HW195354   3.360   5.153   3.774  0.2350  0.2437 -0.1131
29583SOL    HW295355   3.464   5.051   3.817 -0.9315 -0.6006  0.7683
29584SOL     OW95356   2.849   1.843   7.447  0.1285  0.3601  0.0910
29584SOL    HW195357   2.898   1.765   7.424  1.1561  0.9374  0.2785
29584SOL    HW295358   2.761   1.827   7.412  0.2390 -0.9881  0.3808
29585SOL     OW95359  10.188  12.592  12.567 -0.0266 -0.5015  0.5629
29585SOL    HW195360  10.232  12.657  12.622  2.1959 -2.1213  0.8205
29585SOL    HW295361  10.108  12.571  12.614  0.3512  0.3683  1.6482
29586SOL     OW95362   8.595  12.444   3.631 -0.7013 -0.0227 -0.3859
29586SOL    HW195363   8.534  12.381   3.670 -0.0079 -1.6855 -1.8731
29586SOL    HW295364   8.677  12.396   3.623 -0.0859  1.1509 -1.3646
29587SOL     OW95365   4.240  11.743   4.820 -0.0236 -0.3608  0.0551
29587SOL    HW195366   4.225  11.747   4.726  0.0746 -2.0513 -0.0742
29587SOL    HW295367   4.161  11.703   4.856  0.3108 -0.5948  0.5596
29588SOL     OW95368   3.759  10.016   6.968 -0.0581  0.2404 -0.6962
29588SOL    HW195369   3.816  10.086   7.002 -1.2678  0.1128  1.8204
29588SOL    HW295370   3.814   9.938   6.969 -0.4072 -0.1028  2.7006
29589SOL     OW95371   8.349  10.526  10.143  0.5773  0.1697 -0.0886
29589SOL    HW195372   8.269  10.554  10.098  0.1358  0.1647  0.6699
29589SOL    HW295373   8.366  10.594  10.207  1.3786  0.3331 -0.4629
29590SOL     OW95374  10.985   3.395   5.880  0.1350 -0.0212  0.4278
29590SOL    HW195375  11.070   3.369   5.917  0.3880 -0.7513 -0.6348
29590SOL    HW295376  10.956   3.318   5.831 -1.0350  0.3107  0.5720
29591SOL     OW95377   8.161  10.372  10.856 -0.0121  0.2465  0.2206
29591SOL    HW195378   8.235  10.406  10.906 -0.2318  1.1938 -0.0751
29591SOL    HW295379   8.092  10.437  10.868 -1.3151 -1.3230  1.6995
29592SOL     OW95380   9.641   4.648  10.692  0.1941 -0.1514 -0.3307
29592SOL    HW195381   9.727   4.663  10.652 -0.2643  1.3109 -0.8769
29592SOL    HW295382   9.619   4.732  10.732 -0.1924 -1.0508  1.4193
29593SOL     OW95383  11.065  11.728   7.429 -0.0668  0.2304  0.4838
29593SOL    HW195384  11.037  11.805   7.479 -0.6787 -0.4291  1.1930
29593SOL    HW295385  11.088  11.664   7.496  0.1841 -0.2917 -0.0988
29594SOL     OW95386   5.538   4.227   8.559 -0.4094 -0.7160 -0.2688
29594SOL    HW195387   5.630   4.202   8.564 -0.2769 -0.6755 -1.8251
29594SOL    HW295388   5.522   4.276   8.639  1.1955  0.0877 -0.3882
29595SOL     OW95389   1.747   5.120  11.902 -0.1450 -0.3032  0.0277
29595SOL    HW195390   1.663   5.073  11.903 -0.2816 -0.0772  1.2566
29595SOL    HW295391   1.808   5.060  11.859 -1.1042 -0.1396 -1.6350
29596SOL     OW95392   9.925   8.694   4.007  0.1272 -0.0707  0.3551
29596SOL    HW195393   9.930   8.624   4.072  0.1918  0.2410  0.6865
29596SOL    HW295394   9.851   8.670   3.951  0.0805 -0.3470  0.5326
29597SOL     OW95395   1.858   3.940   7.208  0.4357 -0.1431  0.0000
29597SOL    HW195396   1.890   3.851   7.197  0.4587  0.0676 -1.8675
29597SOL    HW295397   1.935   3.991   7.233  0.7311 -0.3735 -0.4328
29598SOL     OW95398   1.729   9.425   2.854 -0.0770 -0.0598 -0.3357
29598SOL    HW195399   1.781   9.397   2.929 -1.3184  0.2397  0.6560
29598SOL    HW295400   1.773   9.504   2.823  1.0276 -0.7346 -0.5909
29599SOL     OW95401   9.460   2.415   3.089 -0.0704 -0.2787  0.1538
29599SOL    HW195402   9.400   2.464   3.144  0.4748 -2.0523  2.5191
29599SOL    HW295403   9.547   2.440   3.119  0.3228 -0.0818 -1.0639
29600SOL     OW95404   9.261   6.537  11.418 -0.1850 -0.1195  0.9763
29600SOL    HW195405   9.221   6.619  11.448  1.5289  0.9687  0.4800
29600SOL    HW295406   9.339   6.527  11.473  1.3261  0.2938 -0.9691
29601SOL     OW95407   0.224   8.663   3.628  0.0683  0.6981 -0.2249
29601SOL    HW195408   0.290   8.641   3.562  0.3917  0.3993  0.1884
29601SOL    HW295409   0.195   8.578   3.662 -0.3405  0.8378 -0.2206
29602SOL     OW95410   4.355   7.453   0.728 -0.5327 -0.2859 -0.1261
29602SOL    HW195411   4.345   7.441   0.823 -0.0579  0.4338  0.0253
29602SOL    HW295412   4.271   7.491   0.700  0.0737  1.4922  0.3748
29603SOL     OW95413   2.558   2.987   5.573 -0.1805  0.3654  0.2817
29603SOL    HW195414   2.644   2.972   5.535 -0.6022  1.8568 -1.3975
29603SOL    HW295415   2.501   3.005   5.498 -1.6688  0.7255  1.4425
29604SOL     OW95416   3.895   1.959  10.310 -0.0030  0.0614 -0.1335
29604SOL    HW195417   3.815   1.945  10.258  0.4743 -0.6131 -0.6992
29604SOL    HW295418   3.928   2.044  10.281  0.2074 -0.2658 -0.8836
29605SOL     OW95419   7.768   2.493   3.184  0.2570 -0.2830  0.5428
29605SOL    HW195420   7.862   2.480   3.179  0.3781  0.0330  1.8122
29605SOL    HW295421   7.735   2.416   3.231 -0.1603 -0.5115 -0.0974
29606SOL     OW95422   8.948   6.761   9.181 -0.1346  0.0047  0.1500
29606SOL    HW195423   8.925   6.686   9.126  0.6579 -1.1376  1.2946
29606SOL    HW295424   8.889   6.755   9.256 -1.0278  1.3879 -0.4171
29607SOL     OW95425   6.164  12.171   7.751 -0.4128  0.2865 -0.0827
29607SOL    HW195426   6.096  12.232   7.777 -1.9062 -0.9128 -1.0081
29607SOL    HW295427   6.243  12.204   7.794 -1.5207  1.7881  0.9253
29608SOL     OW95428  12.303   6.524   1.452 -0.2978  0.3777  0.2973
29608SOL    HW195429  12.224   6.489   1.412 -0.0978 -1.2968  1.2860
29608SOL    HW295430  12.356   6.448   1.474  2.0524  1.4674 -1.1362
29609SOL     OW95431   1.854   6.669   7.526  0.6311 -0.1696  0.0679
29609SOL    HW195432   1.913   6.602   7.492 -0.0542 -1.8511  2.0043
29609SOL    HW295433   1.796   6.622   7.585 -2.7719  1.3436 -1.7676
29610SOL     OW95434   3.426   5.172   8.374  0.2504  0.4244 -0.1390
29610SOL    HW195435   3.350   5.190   8.430  0.3195 -1.2312  0.5281
29610SOL    HW295436   3.419   5.235   8.302  0.1298  2.6023  1.6768
29611SOL     OW95437  11.169   8.368   9.241 -0.2802 -0.5731  0.2306
29611SOL    HW195438  11.133   8.339   9.324 -0.8421  0.7241  0.4736
29611SOL    HW295439  11.158   8.293   9.182  0.8149 -1.7660  1.4899
29612SOL     OW95440   3.097   2.767  11.355 -0.1054  0.1105  0.1360
29612SOL    HW195441   3.114   2.684  11.311  0.2088  0.5815 -0.6576
29612SOL    HW295442   3.136   2.833  11.297  0.7149  0.7193  1.3449
29613SOL     OW95443   6.111   6.589   2.415  0.1969  1.0567 -0.1447
29613SOL    HW195444   6.074   6.659   2.468  0.1508  0.6313  0.3953
29613SOL    HW295445   6.049   6.578   2.343 -0.4664  0.7028  0.4693
29614SOL     OW95446  11.309   2.312   6.622 -0.1049 -0.2050  0.2847
29614SOL    HW195447  11.238   2.316   6.685  0.9794  0.2423  1.5159
29614SOL    HW295448  11.374   2.374   6.655 -0.0094  0.9797 -1.9294
29615SOL     OW95449   6.834   2.442   3.575  0.3444  0.0024  0.4207
29615SOL    HW195450   6.752   2.393   3.574  0.1502  0.3215 -0.2628
29615SOL    HW295451   6.808   2.530   3.604  0.2222  0.4494 -0.9747
29616SOL     OW95452   1.645   7.265  11.214  0.3424 -0.2559 -0.4986
29616SOL    HW195453   1.613   7.355  11.221  0.1949 -0.3939  1.0788
29616SOL    HW295454   1.630   7.241  11.123 -0.5830  0.9571 -0.6981
29617SOL     OW95455   1.447   4.893  11.318  0.0654 -0.1668  0.6300
29617SOL    HW195456   1.433   4.944  11.397  1.1348  0.3266  0.5232
29617SOL    HW295457   1.404   4.943  11.249  0.3788  0.1624  0.6676
29618SOL     OW95458   3.974   8.233   8.095  0.3406  0.1597 -0.2195
29618SOL    HW195459   4.059   8.244   8.052  0.2810 -0.0853 -0.3929
29618SOL    HW295460   3.990   8.169   8.164  0.2422 -0.0525 -0.3947
29619SOL     OW95461   1.451   9.504   1.758  0.3268 -0.2390  0.3727
29619SOL    HW195462   1.464   9.489   1.664 -1.1696 -1.1509  0.2759
29619SOL    HW295463   1.529   9.552   1.786 -0.1624  2.0231 -1.7752
29620SOL     OW95464   4.884   0.077   3.375  0.7658 -0.4159 -0.3313
29620SOL    HW195465   4.959   0.074   3.316  0.9051 -1.7893 -0.1269
29620SOL    HW295466   4.808   0.062   3.319  0.7596 -0.2518 -0.3666
29621SOL     OW95467  11.501   7.664  10.620 -0.5487 -0.0621  0.3473
29621SOL    HW195468  11.522   7.674  10.527  0.3425 -0.8073  0.4546
29621SOL    HW295469  11.435   7.595  10.623 -1.3070  0.6526  0.1923
29622SOL     OW95470   5.283   7.051   3.942  0.4011 -0.2510 -0.0839
29622SOL    HW195471   5.362   7.042   3.996  0.1912 -0.5139  0.1819
29622SOL    HW295472   5.247   6.963   3.938 -0.0369 -0.0761  0.0270
29623SOL     OW95473  10.795  11.747   9.003  0.5589  0.0038  0.4470
29623SOL    HW195474  10.816  11.755   9.096 -0.1956 -0.5432  0.6749
29623SOL    HW295475  10.729  11.815   8.987  1.1687  0.5396  0.1465
29624SOL     OW95476   4.582   9.375   3.045  0.9999 -0.5211  0.5011
29624SOL    HW195477   4.656   9.422   3.081 -0.3935 -0.3587  3.4087
29624SOL    HW295478   4.595   9.284   3.072  0.4535 -0.6170  0.4517
29625SOL     OW95479   8.361   6.971   3.804 -0.1232  0.3598 -0.3460
29625SOL    HW195480   8.267   6.956   3.818  0.0369 -1.1749 -0.7695
29625SOL    HW295481   8.375   7.060   3.836 -2.2911  1.8034 -2.9168
29626SOL     OW95482  11.696   7.057   9.421  0.0801 -0.1657  0.3394
29626SOL    HW195483  11.633   7.114   9.467 -1.6984 -0.5217 -1.4975
29626SOL    HW295484  11.701   6.979   9.476  0.5819  0.7052  1.5897
29627SOL     OW95485   0.313   0.536   1.090  0.0212  0.3116 -0.3036
29627SOL    HW195486   0.258   0.520   1.013 -0.4566 -2.0209  0.4160
29627SOL    HW295487   0.264   0.599   1.142 -0.4040  0.7222 -1.1848
29628SOL     OW95488   8.726   6.190  12.243  0.4745 -0.0098  0.8241
29628SOL    HW195489   8.762   6.101  12.249  0.7009  0.1440  2.0691
29628SOL    HW295490   8.699   6.210  12.333 -2.1825  0.1202  0.0552
29629SOL     OW95491  12.078   1.688   6.735  0.4692 -0.3506 -0.2488
29629SOL    HW195492  12.041   1.767   6.698 -1.2318  0.6137  3.1097
29629SOL    HW295493  12.015   1.619   6.714  0.9672 -0.4611 -1.4769
29630SOL     OW95494   2.007   2.584  10.554 -0.1511 -0.7170  0.4537
29630SOL    HW195495   1.919   2.562  10.585 -0.7414  1.1209  0.1873
29630SOL    HW295496   2.003   2.571  10.459 -0.6818  0.9828  0.2165
29631SOL     OW95497   8.661  10.222   3.322  0.6625  0.0053  0.8794
29631SOL    HW195498   8.585  10.164   3.317  1.3457 -0.9984  1.7228
29631SOL    HW295499   8.685  10.236   3.230 -1.7627  2.0829  0.4438
29632SOL     OW95500  11.527   8.403   6.293  0.7657 -0.2628 -0.0802
29632SOL    HW195501  11.481   8.484   6.274  0.2764 -0.8139 -1.3983
29632SOL    HW295502  11.620   8.428   6.300  0.7820  0.2351 -1.7675
29633SOL     OW95503   7.122   1.773   4.955 -0.1671 -0.1030  0.9875
29633SOL    HW195504   7.216   1.788   4.941 -0.2153 -1.4909 -1.2212
29633SOL    HW295505   7.119   1.697   5.012  0.1710 -2.3000 -1.7182
29634SOL     OW95506   2.949   9.173   5.836  0.2759  0.2177  0.1387
29634SOL    HW195507   2.975   9.218   5.756 -0.1965  1.3425  0.5927
29634SOL    HW295508   2.912   9.242   5.891  0.6692 -0.5139  1.3609
29635SOL     OW95509   2.657   6.969   1.644 -0.7024 -0.2422 -0.1033
29635SOL    HW195510   2.705   6.935   1.719  0.1086 -0.8095 -0.8542
29635SOL    HW295511   2.724   6.978   1.575 -0.6908  3.5397  0.2124
29636SOL     OW95512   5.689  11.251   8.643 -0.6539  0.1857  0.1277
29636SOL    HW195513   5.649  11.332   8.671  0.1849  0.1824  1.3986
29636SOL    HW295514   5.717  11.268   8.553  0.6558  1.7712  0.7784
29637SOL     OW95515   1.068   3.198   3.610  0.3859  0.2948 -0.3440
29637SOL    HW195516   1.016   3.134   3.658  2.9282 -0.8772  1.0517
29637SOL    HW295517   1.032   3.283   3.636 -0.0373 -0.4152  1.5524
29638SOL     OW95518   2.560   2.550   2.662 -0.1816  0.1840 -0.1234
29638SOL    HW195519   2.576   2.472   2.716  2.4043  0.3437 -0.5427
29638SOL    HW295520   2.482   2.528   2.612 -1.0422 -1.0713  1.6550
29639SOL     OW95521   5.587   7.267   2.265  0.1520 -0.0309 -0.1920
29639SOL    HW195522   5.612   7.239   2.177  1.2099 -0.8879  0.3614
29639SOL    HW295523   5.560   7.358   2.255 -2.5909 -0.9350 -1.9134
29640SOL     OW95524   3.881  11.237   2.804 -0.4217  0.3498 -0.5650
29640SOL    HW195525   3.890  11.241   2.899 -1.0215 -1.6191 -0.3898
29640SOL    HW295526   3.951  11.293   2.771 -0.8533  1.9226  1.0223
29641SOL     OW95527   5.542   7.692   5.502  0.7882 -0.6918  0.4194
29641SOL    HW195528   5.619   7.656   5.458  1.0271 -0.0315  0.2862
29641SOL    HW295529   5.547   7.787   5.487 -1.5558 -0.8216 -2.1037
29642SOL     OW95530   2.841  11.257   2.156 -0.2367  0.7678  0.6072
29642SOL    HW195531   2.802  11.342   2.174  2.0492  1.7498  1.1320
29642SOL    HW295532   2.922  11.255   2.207  0.6329 -1.0304 -0.7172
29643SOL     OW95533   0.714   4.026   0.707  0.2140  0.3480  0.1135
29643SOL    HW195534   0.788   4.086   0.699  0.8409 -0.2430  1.2901
29643SOL    HW295535   0.637   4.082   0.702  0.7370  1.0231 -0.6595
29644SOL     OW95536   4.958   2.255   1.475  0.1632 -0.0397 -0.3441
29644SOL    HW195537   4.915   2.170   1.488  1.7600 -1.3341 -2.7442
29644SOL    HW295538   4.954   2.297   1.561 -1.3865 -2.1886  0.7363
29645SOL     OW95539   4.991   9.042  11.514 -0.1395 -0.6626 -0.3306
29645SOL    HW195540   4.980   9.106  11.444  0.9821  0.4120  0.4166
29645SOL    HW295541   5.026   8.965  11.471 -1.1651 -0.6685 -1.1983
29646SOL     OW95542  10.119   0.532   6.628  0.3591 -0.9807  0.6259
29646SOL    HW195543  10.060   0.515   6.701  0.1680 -0.9200  0.4848
29646SOL    HW295544  10.147   0.623   6.640 -0.6171 -0.5830 -0.0565
29647SOL     OW95545   5.034   5.098   5.707 -0.1900  0.4798  0.3203
29647SOL    HW195546   5.072   5.181   5.680 -1.0597  1.1775  1.1605
29647SOL    HW295547   4.939   5.114   5.709 -0.4694 -0.8624 -0.6096
29648SOL     OW95548  12.219  10.109   9.996 -0.5249  0.5295 -0.2602
29648SOL    HW195549  12.144  10.092  10.052  0.3477  2.0515  1.4996
29648SOL    HW295550  12.246  10.198  10.019  1.5302  0.1939 -1.1522
29649SOL     OW95551   6.537   4.116   7.838  0.4152  0.5580  0.4431
29649SOL    HW195552   6.582   4.190   7.878 -0.3553  1.0209  0.4583
29649SOL    HW295553   6.494   4.072   7.911  1.7341 -0.5446  0.6020
29650SOL     OW95554   9.220   4.904   6.039  0.0871  0.6336 -0.7187
29650SOL    HW195555   9.145   4.846   6.054  0.9095 -0.0073  1.3920
29650SOL    HW295556   9.202   4.946   5.955 -0.9118 -2.1117 -1.9942
29651SOL     OW95557   0.950   9.280   7.641  0.1158  0.0483  0.6511
29651SOL    HW195558   1.040   9.299   7.613 -0.6912  1.2445 -1.2898
29651SOL    HW295559   0.934   9.340   7.714  0.7457  0.1146  0.7402
29652SOL     OW95560   0.653   7.511   7.223  0.4342 -0.5737 -0.4633
29652SOL    HW195561   0.635   7.546   7.135  2.2563 -0.4341 -0.8148
29652SOL    HW295562   0.696   7.582   7.269  0.0834 -0.8683  0.3350
29653SOL     OW95563   6.390  12.716   2.063  0.2334 -0.0111  0.9077
29653SOL    HW195564   6.442  12.784   2.020 -1.9499  0.8234 -0.5757
29653SOL    HW295565   6.385  12.645   2.000 -0.1654 -0.2065  1.1491
29654SOL     OW95566   2.373   8.599   1.074  0.1791  0.0253  0.1062
29654SOL    HW195567   2.400   8.665   1.138  0.6327 -1.3405  1.3660
29654SOL    HW295568   2.418   8.519   1.101 -1.7361 -1.2518 -0.3014
29655SOL     OW95569   9.759   0.391  10.760  0.1960 -0.1965  0.2098
29655SOL    HW195570   9.716   0.374  10.843 -0.2475 -1.3409 -0.2237
29655SOL    HW295571   9.802   0.308  10.739  0.3480  0.0947 -0.6707
29656SOL     OW95572  11.995   2.195  10.787  0.7598  0.2342  0.9494
29656SOL    HW195573  12.012   2.101  10.783 -0.3000  0.0852 -1.1592
29656SOL    HW295574  12.066   2.235  10.737 -0.3944  0.2667 -0.7451
29657SOL     OW95575   8.871  11.598   4.249 -0.1077 -0.0205  0.4994
29657SOL    HW195576   8.910  11.685   4.261  0.8138 -0.4905  0.9630
29657SOL    HW295577   8.777  11.615   4.246  0.0595  0.9999  0.5539
29658SOL     OW95578   7.932   3.400   5.618 -0.8387  0.3099 -0.0602
29658SOL    HW195579   7.991   3.469   5.588  0.6608  1.0490  4.0003
29658SOL    HW295580   7.875   3.443   5.682 -0.4069 -1.9636  1.9930
29659SOL     OW95581  10.147  12.686   5.886  0.1718 -0.0133 -0.5577
29659SOL    HW195582  10.167  12.634   5.964 -2.8335 -0.3416  0.1293
29659SOL    HW295583  10.111  12.623   5.824  0.4175  0.6059 -1.3450
29660SOL     OW95584   6.104   9.245   0.144 -0.3138 -0.4938  0.6580
29660SOL    HW195585   6.135   9.216   0.057 -0.8825 -0.5076  0.4548
29660SOL    HW295586   6.160   9.319   0.166 -1.0606  0.4036 -0.3552
29661SOL     OW95587   8.632   0.494   7.211  0.2511  0.5396  0.1006
29661SOL    HW195588   8.650   0.506   7.117 -0.4173 -0.0312 -0.1069
29661SOL    HW295589   8.538   0.478   7.215  0.5645 -1.4018  0.6631
29662SOL     OW95590   9.023  12.748   3.971  0.1940  0.0089 -0.1244
29662SOL    HW195591   9.096  12.690   3.992 -0.3860  0.3018  3.2150
29662SOL    HW295592   8.954  12.689   3.940  0.0123 -1.0090  2.0719
29663SOL     OW95593   6.241   5.507   8.682 -0.3599 -0.2509 -0.8150
29663SOL    HW195594   6.260   5.514   8.775 -0.3317  0.8304 -0.8926
29663SOL    HW295595   6.321   5.536   8.638  0.0384 -1.8169 -1.2090
29664SOL     OW95596   5.265   7.343   6.455 -0.2416  0.4461 -0.1027
29664SOL    HW195597   5.320   7.269   6.429 -1.4885 -0.5002 -0.1173
29664SOL    HW295598   5.182   7.303   6.481 -0.4237  1.7058  1.3770
29665SOL     OW95599   2.566   2.054   7.883 -0.5868 -0.4625  0.1742
29665SOL    HW195600   2.624   2.130   7.896  1.7340 -2.1898  0.6342
29665SOL    HW295601   2.503   2.060   7.955  0.3633  0.3679  0.9811
29666SOL     OW95602  10.154   8.190   8.023 -0.3172  0.3159  0.1827
29666SOL    HW195603  10.161   8.285   8.012  4.0008  0.3390  1.3323
29666SOL    HW295604  10.148   8.177   8.117 -0.9741 -0.6133  0.0325
29667SOL     OW95605  10.911   6.138   0.549  0.0179 -0.1589  0.1762
29667SOL    HW195606  10.968   6.063   0.533  0.6354  0.7105 -2.0744
29667SOL    HW295607  10.902   6.142   0.645  1.2582 -2.1099  0.4191
29668SOL     OW95608  10.861   4.194  10.808  0.4757  0.4450 -0.6245
29668SOL    HW195609  10.774   4.209  10.769  0.5249 -0.4797 -1.1300
29668SOL    HW295610  10.920   4.247  10.755  0.3326  0.4022 -0.8288
29669SOL     OW95611   2.925   2.997   3.427  0.3424 -0.2434  0.0905
29669SOL    HW195612   3.004   3.051   3.430 -0.9929  1.8635 -0.5329
29669SOL    HW295613   2.914   2.975   3.335 -0.1171  0.0024  0.0819
29670SOL     OW95614  10.604   6.397   7.540  0.0506 -0.0771  0.3516
29670SOL    HW195615  10.693   6.384   7.572 -0.2412 -0.7568  0.9055
29670SOL    HW295616  10.602   6.489   7.510  0.9230 -0.0586  0.3381
29671SOL     OW95617   5.885   1.555  11.215  0.0970  0.2057  0.1420
29671SOL    HW195618   5.979   1.548  11.202  0.3485 -0.0815  1.8102
29671SOL    HW295619   5.850   1.471  11.184  0.7991 -0.9603  2.2802
29672SOL     OW95620   9.035   9.010   4.102 -0.2569  0.4616  0.2310
29672SOL    HW195621   9.009   8.944   4.167 -3.6574  1.7247  0.3767
29672SOL    HW295622   8.952   9.046   4.071  1.3756  2.2692 -2.3952
29673SOL     OW95623   2.508  10.018   8.402 -0.6349 -0.1685 -0.2064
29673SOL    HW195624   2.533  10.109   8.390  1.8811 -0.4450  2.0297
29673SOL    HW295625   2.514   9.979   8.315  3.5511  0.6980 -0.4943
29674SOL     OW95626  12.152  11.250   1.819  0.3985  0.0191 -0.5544
29674SOL    HW195627  12.092  11.199   1.765  0.1652 -0.4508  0.1370
29674SOL    HW295628  12.238  11.237   1.779  0.0522  0.7161 -1.5669
29675SOL     OW95629  10.349   1.728   0.047  0.4390 -0.5325 -0.1402
29675SOL    HW195630  10.406   1.668  -0.000  0.5498 -0.7148  0.2175
29675SOL    HW295631  10.298   1.772  -0.021  0.6218 -0.7615 -0.4279
29676SOL     OW95632   5.973   5.473   1.128 -0.2568  0.2819 -0.3023
29676SOL    HW195633   6.050   5.474   1.184  0.2343 -1.7693 -0.8452
29676SOL    HW295634   5.900   5.458   1.188  0.0457  0.0021  0.0004
29677SOL     OW95635   5.672   6.114   9.177 -0.5294  0.2806 -0.2152
29677SOL    HW195636   5.701   6.023   9.171 -1.6823 -0.0973 -0.3817
29677SOL    HW295637   5.706   6.144   9.261 -0.0879 -0.2883 -0.1798
29678SOL     OW95638   0.144   9.295  11.229  0.0583 -0.0789 -0.0322
29678SOL    HW195639   0.211   9.306  11.297  1.0513 -1.0450 -0.8265
29678SOL    HW295640   0.067   9.262  11.277  0.6817 -0.5612  0.6645
29679SOL     OW95641   5.492  11.567   4.645 -0.2203 -0.1831  0.8612
29679SOL    HW195642   5.408  11.521   4.645 -1.0232  1.2254  0.6455
29679SOL    HW295643   5.553  11.506   4.605 -1.1645 -1.1951  0.9178
29680SOL     OW95644  11.028  10.857   2.827  0.5290 -0.1540 -0.0512
29680SOL    HW195645  11.078  10.813   2.896  1.2990  1.3826  0.4071
29680SOL    HW295646  10.957  10.902   2.872  0.8872  0.6507 -0.2657
29681SOL     OW95647   0.233  11.158   2.002  0.0599  0.1969  0.7913
29681SOL    HW195648   0.215  11.195   1.916  1.0611  1.4790  1.1086
29681SOL    HW295649   0.249  11.065   1.985  1.0261  0.5727 -0.5325
29682SOL     OW95650  12.696   9.168  11.363 -0.2877  0.7273 -0.5195
29682SOL    HW195651  12.647   9.209  11.434  1.4485  0.2728  0.9963
29682SOL    HW295652  12.728   9.086  11.400 -0.6638 -0.3092 -2.3556
29683SOL     OW95653   1.008  12.527   7.792  0.1673  0.5452 -0.2253
29683SOL    HW195654   0.937  12.464   7.808 -0.9351  1.8656  0.3611
29683SOL    HW295655   1.053  12.493   7.715 -2.0508  0.4257 -1.5680
29684SOL     OW95656  12.396   2.562   3.097 -0.3773 -0.2787  0.0712
29684SOL    HW195657  12.462   2.524   3.039 -0.2364 -0.4472  0.3390
29684SOL    HW295658  12.346   2.488   3.129  0.5671 -0.3745  1.4231
29685SOL     OW95659   9.677   0.346   3.433  0.3941 -0.5605  0.1548
29685SOL    HW195660   9.676   0.407   3.359 -0.2436  0.6459  1.1186
29685SOL    HW295661   9.702   0.262   3.395 -0.2812 -0.0470 -1.4845
29686SOL     OW95662   4.638  11.909   6.073  0.3811 -0.3027  0.2928
29686SOL    HW195663   4.695  11.951   6.009  0.4668 -2.4886 -1.1524
29686SOL    HW295664   4.694  11.892   6.148  0.8230  0.3675  0.1174
29687SOL     OW95665   3.117   6.423  12.576 -0.8100 -0.2980  0.2672
29687SOL    HW195666   3.116   6.332  12.606 -1.3248 -0.8935 -1.4447
29687SOL    HW295667   3.135   6.417  12.482  1.5760  1.5339  0.5262
29688SOL     OW95668   9.509   4.804   3.126 -0.2965 -0.6176  0.2687
29688SOL    HW195669   9.436   4.754   3.088 -0.5077  0.0465 -0.2262
29688SOL    HW295670   9.585   4.777   3.074 -0.8024  1.2702 -1.6257
29689SOL     OW95671   0.608   3.532   5.403 -0.3863  0.1898 -0.0422
29689SOL    HW195672   0.602   3.441   5.431 -1.0959  0.6478  1.3943
29689SOL    HW295673   0.520   3.567   5.416 -0.0695  1.1417 -0.3374
29690SOL     OW95674   5.210   0.812   7.991 -0.1473  0.1242 -0.5766
29690SOL    HW195675   5.284   0.759   7.962  0.9045  1.0202  0.3143
29690SOL    HW295676   5.154   0.820   7.914  0.3939 -1.0481 -1.1196
29691SOL     OW95677   0.555   3.030   7.288  0.0824  0.0124  0.5301
29691SOL    HW195678   0.521   2.994   7.207  0.4276  0.1514  0.3219
29691SOL    HW295679   0.558   2.956   7.349 -0.0855 -0.1111  0.3860
29692SOL     OW95680  12.456   5.817  10.970  0.0216  0.1868  0.9190
29692SOL    HW195681  12.464   5.887  10.905  0.1992 -0.1302  0.5980
29692SOL    HW295682  12.389   5.759  10.936  1.2294 -0.8395  0.2091
29693SOL     OW95683   8.321  10.654  11.767  0.3441  0.5835  0.0661
29693SOL    HW195684   8.320  10.720  11.836  2.2319  0.4509  0.2702
29693SOL    HW295685   8.410  10.656  11.733 -0.6526  1.0013 -2.7742
29694SOL     OW95686   3.742   5.402   3.009 -0.2795  0.4555  0.2836
29694SOL    HW195687   3.675   5.355   3.059  0.2750  0.8648  1.4686
29694SOL    HW295688   3.701   5.423   2.925 -0.5273 -2.1713 -0.3241
29695SOL     OW95689   6.742   9.772   5.207  0.2407  0.2563 -0.0601
29695SOL    HW195690   6.736   9.741   5.117  0.1337  0.2802 -0.0606
29695SOL    HW295691   6.801   9.847   5.203  3.1203 -1.8113  0.4003
29696SOL     OW95692   3.835   9.366  12.293  0.3161 -0.6038 -0.0330
29696SOL    HW195693   3.820   9.329  12.379  1.6235  0.2420  0.5896
29696SOL    HW295694   3.921   9.407  12.299 -0.3579  1.0836 -1.1764
29697SOL     OW95695   6.163   6.779   0.267 -0.2030 -0.3189 -0.0930
29697SOL    HW195696   6.135   6.771   0.176  1.0044 -1.7783 -0.3669
29697SOL    HW295697   6.246   6.825   0.264 -0.7199  0.6894  0.4018
29698SOL     OW95698   1.642  11.085   0.141 -0.2726  0.3963  0.1199
29698SOL    HW195699   1.639  11.125   0.055  0.7302  0.3381  0.0381
29698SOL    HW295700   1.714  11.021   0.136 -1.4723 -1.0324  0.4112
29699SOL     OW95701   1.266   0.341   9.294 -0.0365 -0.2675  0.1324
29699SOL    HW195702   1.218   0.395   9.356 -0.2956  1.7914 -1.7516
29699SOL    HW295703   1.201   0.280   9.259 -0.3433 -0.1171  0.4437
29700SOL     OW95704   3.522  12.406   3.693  0.1161 -0.4911 -0.0796
29700SOL    HW195705   3.481  12.453   3.766  1.0454  0.4105 -0.1115
29700SOL    HW295706   3.593  12.355   3.734  0.1584 -0.5793 -0.2596
29701SOL     OW95707   9.779   7.441   8.786  0.4027 -0.0335  0.2758
29701SOL    HW195708   9.740   7.424   8.872  2.2087 -2.7670  0.6951
29701SOL    HW295709   9.732   7.381   8.727 -0.1534  1.1159 -0.4873
29702SOL     OW95710   9.060   4.822   8.587 -0.4270  0.0622  0.4063
29702SOL    HW195711   9.072   4.883   8.660 -0.9531 -0.0577  0.5992
29702SOL    HW295712   8.995   4.864   8.531  0.8531  0.7186 -0.6368
29703SOL     OW95713  11.131  10.127   5.962  0.5511  0.0836 -0.3497
29703SOL    HW195714  11.130  10.153   5.870  0.6945 -2.7305 -1.2227
29703SOL    HW295715  11.183  10.195   6.005  2.1834  0.4312 -2.6864
29704SOL     OW95716   9.423   2.669   1.480  0.0592  0.3707 -0.1408
29704SOL    HW195717   9.427   2.642   1.572  1.4202  2.3795  0.4428
29704SOL    HW295718   9.428   2.586   1.432 -0.1198 -0.6977  1.5600
29705SOL     OW95719   3.691   3.759  12.387  0.2016  0.2423 -0.4457
29705SOL    HW195720   3.716   3.688  12.328 -0.1192 -1.0155  0.8794
29705SOL    HW295721   3.671   3.716  12.470 -1.4396  1.7240 -0.0096
29706SOL     OW95722   9.516   9.813  12.199  0.0824  0.8101  0.1193
29706SOL    HW195723   9.448   9.852  12.145 -0.5717 -0.3877  0.0657
29706SOL    HW295724   9.533   9.879  12.267 -1.4849  0.9102  0.4336
29707SOL     OW95725   5.893   3.410   1.511  0.1628  0.1803 -0.1982
29707SOL    HW195726   5.872   3.504   1.509  1.7094  0.5806  0.6673
29707SOL    HW295727   5.913   3.392   1.603 -3.7029 -1.9196  0.4122
29708SOL     OW95728   7.855   0.365   9.680  0.7018 -0.2147 -0.0684
29708SOL    HW195729   7.818   0.354   9.592 -0.1934 -0.2085  0.2968
29708SOL    HW295730   7.779   0.366   9.738  1.3351 -1.0118  0.7962
29709SOL     OW95731   7.182   2.593   0.608 -0.2483  0.1151 -0.3834
29709SOL    HW195732   7.150   2.563   0.693 -1.3314 -0.9785 -1.1454
29709SOL    HW295733   7.174   2.689   0.612 -0.7411  0.0454  0.5605
29710SOL     OW95734  10.140   1.095   0.642 -0.2577 -0.0923  0.1789
29710SOL    HW195735  10.170   1.166   0.698 -1.4729  0.7865 -0.2550
29710SOL    HW295736  10.049   1.081   0.667 -0.5806 -0.2417 -1.0121
29711SOL     OW95737   6.874   0.605   9.951 -0.4771 -0.1139  0.4869
29711SOL    HW195738   6.926   0.676   9.914  0.7841 -0.2836  1.8512
29711SOL    HW295739   6.894   0.530   9.895  0.6836 -0.1537  0.9388
29712SOL     OW95740   1.509   9.836   3.529 -0.4555 -0.3964 -0.4822
29712SOL    HW195741   1.471   9.812   3.614 -0.5031  1.3542  0.0473
29712SOL    HW295742   1.434   9.862   3.476 -0.1955  2.5704  0.3944
29713SOL     OW95743   6.782   6.737  10.844  0.0864  0.6948 -0.0740
29713SOL    HW195744   6.728   6.658  10.844 -0.8735  1.3305  0.5623
29713SOL    HW295745   6.762   6.779  10.760  0.8439  0.1224 -0.5585
29714SOL     OW95746   6.371   5.307   1.088 -0.4418  0.2469 -0.3349
29714SOL    HW195747   6.394   5.301   1.181  0.5986  1.4942 -0.4822
29714SOL    HW295748   6.426   5.378   1.055 -2.3250  1.2696 -1.4358
29715SOL     OW95749   1.325   2.968   8.605  0.1220 -0.7021  1.2401
29715SOL    HW195750   1.408   2.968   8.653  1.5043 -1.5233 -1.0345
29715SOL    HW295751   1.305   3.061   8.592  1.1127 -0.4967  1.1111
29716SOL     OW95752   4.446   7.627   9.529  0.1527 -0.5481 -0.6158
29716SOL    HW195753   4.370   7.684   9.519  0.7369  0.2966 -0.3664
29716SOL    HW295754   4.506   7.677   9.585  1.1282 -0.9583 -1.2690
29717SOL     OW95755   0.502  12.016  12.128  0.2492  0.3783  0.7833
29717SOL    HW195756   0.540  11.928  12.126 -0.3879  0.0883 -1.0274
29717SOL    HW295757   0.570  12.071  12.167  1.6341 -0.5058 -0.2838
29718SOL     OW95758   7.239  11.124   0.235  0.3482 -0.3003  0.1664
29718SOL    HW195759   7.334  11.112   0.236  0.4537  0.4773  0.5948
29718SOL    HW295760   7.205  11.042   0.200  1.1809 -0.5517 -0.0884
29719SOL     OW95761   4.126  10.112  11.169  0.8047  0.0471  0.4667
29719SOL    HW195762   4.179  10.170  11.224  0.3670  1.5268 -0.6333
29719SOL    HW295763   4.042  10.156  11.161  0.2215 -1.0797  0.1572
29720SOL     OW95764   2.965   2.162   7.094 -0.5489 -0.1220 -0.3434
29720SOL    HW195765   2.911   2.136   7.169 -1.2323  0.4229 -0.6297
29720SOL    HW295766   2.924   2.242   7.062  1.2834  1.1186  0.2965
29721SOL     OW95767  11.294   5.552   2.947 -0.0191 -0.0213  0.2023
29721SOL    HW195768  11.309   5.540   2.853  2.6103 -0.4057  0.5902
29721SOL    HW295769  11.267   5.465   2.978  0.3322 -0.2166 -0.0248
29722SOL     OW95770  10.834   6.816   6.901 -0.3947 -0.2238 -0.3718
29722SOL    HW195771  10.917   6.860   6.882  1.3799 -2.4960  1.4781
29722SOL    HW295772  10.813   6.842   6.991 -0.6942 -1.0946 -0.1806
29723SOL     OW95773   4.708   7.059   1.634 -0.2468 -0.2375 -0.1913
29723SOL    HW195774   4.620   7.076   1.668  0.0605 -0.5781  0.7925
29723SOL    HW295775   4.758   7.027   1.709  1.3473  2.0455 -0.1705
29724SOL     OW95776   1.079   9.630   1.806 -0.4062 -0.1733  0.0662
29724SOL    HW195777   1.089   9.659   1.715  1.3041 -0.4185  0.1521
29724SOL    HW295778   1.074   9.535   1.801  0.7718 -0.2546  0.3010
29725SOL     OW95779   7.474   1.038  12.056 -0.6299 -0.2626 -0.2754
29725SOL    HW195780   7.515   0.968  12.106  0.4259 -0.4976 -1.4398
29725SOL    HW295781   7.388   1.003  12.033 -0.0131 -1.3012 -1.0789
29726SOL     OW95782   0.330   9.812  12.048  0.2498  0.3413 -0.0400
29726SOL    HW195783   0.392   9.788  11.979  0.8354  0.7015  0.3487
29726SOL    HW295784   0.309   9.730  12.092 -0.9054 -0.0457 -1.2674
29727SOL     OW95785   2.825   9.766   6.380  0.6894 -0.0203 -0.3354
29727SOL    HW195786   2.843   9.717   6.459 -0.7665 -1.5649 -0.8899
29727SOL    HW295787   2.812   9.856   6.410  1.7776 -0.2597  0.9313
29728SOL     OW95788   0.308   3.528   1.010 -0.1878  0.1137  0.1088
29728SOL    HW195789   0.223   3.512   1.050 -0.9297  1.4447 -0.8390
29728SOL    HW295790   0.312   3.468   0.935  0.8616 -1.8052  1.6163
29729SOL     OW95791  10.612  10.311   6.151 -0.3867  0.0343 -0.1399
29729SOL    HW195792  10.644  10.263   6.228  0.3305  0.1535 -0.3506
29729SOL    HW295793  10.529  10.269   6.129 -0.6925  0.1298  0.8153
29730SOL     OW95794   1.145  12.586  11.201  0.5901  0.3217  0.2152
29730SOL    HW195795   1.155  12.579  11.296 -0.5163 -1.0627  0.2776
29730SOL    HW295796   1.074  12.648  11.189  1.2522  1.0973  0.2472
29731SOL     OW95797   7.692   7.279   8.883 -1.2801 -0.1467 -0.2051
29731SOL    HW195798   7.703   7.340   8.956  0.4045 -1.1725  0.4756
29731SOL    HW295799   7.623   7.219   8.912 -1.5539  0.2440 -0.0393
29732SOL     OW95800   5.249   9.895   0.074  0.0317 -0.2386 -0.2037
29732SOL    HW195801   5.232   9.842  -0.004  0.1049 -0.9577  0.2609
29732SOL    HW295802   5.175   9.956   0.078  0.0511 -0.1636 -0.8579
29733SOL     OW95803   9.442   1.608   2.548 -0.3133 -0.0766 -0.1107
29733SOL    HW195804   9.502   1.596   2.475  0.2205  0.1556  0.2866
29733SOL    HW295805   9.450   1.528   2.599 -0.3674 -0.0578 -0.0726
29734SOL     OW95806  12.345  11.859  11.441 -0.2937 -0.4126 -0.7694
29734SOL    HW195807  12.372  11.818  11.359  2.5897 -0.9342  0.3404
29734SOL    HW295808  12.339  11.787  11.504  0.5879  0.3120  0.1811
29735SOL     OW95809   6.688   1.756   4.982  0.7612 -0.0893  0.7111
29735SOL    HW195810   6.736   1.731   4.903 -1.8326 -1.0257 -0.6929
29735SOL    HW295811   6.749   1.809   5.032  2.6520  0.1818 -1.7219
29736SOL     OW95812   3.178   5.462   3.670 -0.0644  0.3157  0.0179
29736SOL    HW195813   3.114   5.518   3.714 -1.2088 -0.4246 -0.6835
29736SOL    HW295814   3.261   5.484   3.713 -0.7687  1.2847  0.9460
29737SOL     OW95815   8.804  12.409   2.052 -0.4107  0.2155 -0.0601
29737SOL    HW195816   8.861  12.432   2.126  0.2595 -0.5782 -0.3051
29737SOL    HW295817   8.777  12.319   2.069  0.2563 -0.1990 -1.0725
29738SOL     OW95818   2.630   3.920   1.065  0.0130 -0.3488  0.1545
29738SOL    HW195819   2.590   3.972   0.996 -2.3873  0.2251  1.8526
29738SOL    HW295820   2.700   3.975   1.099  0.4990 -0.1858 -1.0454
29739SOL     OW95821   8.009   1.705   4.837  0.4953 -0.1985 -0.7057
29739SOL    HW195822   7.914   1.704   4.848  0.2261  0.8787 -2.6131
29739SOL    HW295823   8.036   1.616   4.860 -1.1652 -0.9614 -1.5432
29740SOL     OW95824   5.816   0.685  11.487 -0.0781 -0.2663  0.1767
29740SOL    HW195825   5.819   0.768  11.534  0.2961 -1.0612  1.6150
29740SOL    HW295826   5.845   0.620  11.551  2.5374 -1.1495 -1.7567
29741SOL     OW95827   0.551   9.253   4.198 -0.1707  0.6540  0.3463
29741SOL    HW195828   0.640   9.247   4.232  0.2604 -0.3663 -0.8381
29741SOL    HW295829   0.529   9.346   4.201  0.8487  0.8901  0.8425
29742SOL     OW95830   0.068   7.364   6.271 -0.1911 -0.0362  0.6506
29742SOL    HW195831   0.081   7.427   6.200  2.0189  0.1621  1.1487
29742SOL    HW295832   0.128   7.292   6.250 -2.0039 -1.6023  0.5760
29743SOL     OW95833   4.636  12.328   5.302 -0.0299 -0.1252 -0.0194
29743SOL    HW195834   4.635  12.285   5.216 -0.7651  1.0947 -0.6661
29743SOL    HW295835   4.548  12.314   5.337  0.1078 -0.1887  0.2999
29744SOL     OW95836  12.348   7.197   6.681 -0.4678 -0.1489 -0.1212
29744SOL    HW195837  12.419   7.164   6.736 -0.2653 -0.3394 -0.4988
29744SOL    HW295838  12.375   7.178   6.592 -1.3726 -0.9740 -0.2352
29745SOL     OW95839   2.015  10.235   7.458 -0.2515 -0.1051  0.3059
29745SOL    HW195840   1.952  10.275   7.517 -0.2163  1.8999 -0.9261
29745SOL    HW295841   1.962  10.196   7.388 -0.3195 -2.8522  1.7651
29746SOL     OW95842   7.016   2.921  10.503  0.2000 -0.1691  0.0676
29746SOL    HW195843   6.986   2.843  10.456  0.2579 -0.0989 -0.0885
29746SOL    HW295844   7.101   2.897  10.538 -0.2405 -0.5348  0.9272
29747SOL     OW95845   3.286   0.128   8.333  0.1147  0.4722  1.2258
29747SOL    HW195846   3.255   0.193   8.397  0.3993  1.7794  0.0750
29747SOL    HW295847   3.300   0.178   8.253 -1.6624 -1.3735 -0.3502
29748SOL     OW95848  11.960   2.983   2.451  0.4359  0.0445  0.1990
29748SOL    HW195849  11.984   2.891   2.441  2.2943  0.6919 -2.1778
29748SOL    HW295850  12.039   3.031   2.427 -0.3532  2.3007  1.7752
29749SOL     OW95851  11.519   2.392   6.087  0.5176 -0.1266 -0.4618
29749SOL    HW195852  11.453   2.453   6.055  0.9023  0.5831  0.0692
29749SOL    HW295853  11.577   2.445   6.142  0.1723 -1.1918  1.0081
29750SOL     OW95854   1.737   3.059   7.110  0.3112 -0.4390  0.7016
29750SOL    HW195855   1.766   3.150   7.117  0.9470 -0.5101 -0.6296
29750SOL    HW295856   1.646   3.065   7.083  0.8629 -0.1500 -1.2413
29751SOL     OW95857   1.176  12.759   7.804 -0.1019  0.3101  0.3545
29751SOL    HW195858   1.093  12.807   7.801 -0.9494 -1.0653  0.6957
29751SOL    HW295859   1.150  12.667   7.794  1.0216 -0.5148  3.8181
29752SOL     OW95860   1.559   3.956   2.487 -0.1680  0.8622 -0.2830
29752SOL    HW195861   1.567   3.946   2.582 -2.2720  3.3668  0.2914
29752SOL    HW295862   1.490   3.895   2.462 -1.4837  2.0354  0.3305
29753SOL     OW95863   5.224   0.673   0.317 -0.2728  0.2917 -0.2139
29753SOL    HW195864   5.161   0.741   0.293 -0.5674  0.2650  0.4667
29753SOL    HW295865   5.279   0.713   0.384  0.4603  0.3206 -0.8249
29754SOL     OW95866   3.672   7.739   7.733 -0.0232  0.2660  0.2951
29754SOL    HW195867   3.680   7.738   7.828  1.1444  1.2901  0.2284
29754SOL    HW295868   3.708   7.655   7.704  0.4854  0.3416  0.7027
29755SOL     OW95869   9.183   3.400   2.239 -0.2776 -0.4145  0.2636
29755SOL    HW195870   9.117   3.403   2.308 -1.5465  1.5177 -0.9416
29755SOL    HW295871   9.250   3.340   2.272  0.2658  1.9706  4.1547
29756SOL     OW95872   0.279  10.272   7.755  0.3519  0.1236  0.6322
29756SOL    HW195873   0.245  10.338   7.815 -1.6989  0.3695 -0.7027
29756SOL    HW295874   0.295  10.319   7.673 -0.4952 -0.8765 -0.1372
29757SOL     OW95875   2.214  11.669   6.050  0.3302 -0.3813 -0.2209
29757SOL    HW195876   2.278  11.723   6.004  0.5793 -0.3564  0.1462
29757SOL    HW295877   2.266  11.619   6.113 -0.1251  0.4417  0.8433
29758SOL     OW95878   6.268  10.230   0.919 -0.2936  0.1859  0.4932
29758SOL    HW195879   6.216  10.179   0.981 -0.9401  0.8176  0.4853
29758SOL    HW295880   6.204  10.280   0.869  0.1868 -0.4886 -0.8669
29759SOL     OW95881   0.065   2.463   7.361 -0.3583 -0.0602  0.1552
29759SOL    HW195882   0.136   2.437   7.302 -1.3204  1.2351 -1.6656
29759SOL    HW295883  -0.002   2.396   7.350 -1.2396  1.0437 -1.5939
29760SOL     OW95884   3.418   5.597   8.682  0.3552 -0.5483 -0.6691
29760SOL    HW195885   3.472   5.583   8.604  1.0639  0.6774 -0.4148
29760SOL    HW295886   3.446   5.529   8.743  0.3523 -1.0167 -1.1760
29761SOL     OW95887  12.194  11.958  11.181  0.2805  0.1656  0.2363
29761SOL    HW195888  12.139  11.913  11.245 -0.2069  0.7619  0.2475
29761SOL    HW295889  12.245  12.020  11.232 -1.5259  2.0440 -0.1306
29762SOL     OW95890  10.466   7.331   7.460  0.5482 -0.9260 -0.1978
29762SOL    HW195891  10.379   7.335   7.421  1.0123  2.0336 -1.1858
29762SOL    HW295892  10.452   7.298   7.549 -1.6032 -0.2792 -0.2570
29763SOL     OW95893   1.506   9.746   7.733 -0.5688 -0.4197  1.0199
29763SOL    HW195894   1.494   9.670   7.791 -0.4179  0.2732  1.9707
29763SOL    HW295895   1.598   9.770   7.743 -0.0707 -1.3496 -0.8561
29764SOL     OW95896  11.145   0.541   8.060 -0.2404  0.0244 -0.2847
29764SOL    HW195897  11.088   0.468   8.084 -0.6470 -0.3499 -2.2307
29764SOL    HW295898  11.149   0.595   8.139 -2.7244 -0.3082  0.1530
29765SOL     OW95899   5.126   7.469   0.167 -0.1080  0.7888  0.7108
29765SOL    HW195900   5.045   7.498   0.208 -0.9513 -0.3192 -0.1305
29765SOL    HW295901   5.117   7.374   0.159  1.2811  0.6442  0.6150
29766SOL     OW95902  11.638   3.130   5.846 -0.6162  0.2951  0.0652
29766SOL    HW195903  11.629   3.050   5.795  2.4822  0.3253 -0.7171
29766SOL    HW295904  11.732   3.136   5.865 -1.0872  2.4998  2.1751
29767SOL     OW95905  12.474   6.463   1.110 -0.6502  0.6511 -0.0927
29767SOL    HW195906  12.480   6.369   1.095 -0.6429  0.4304  1.1914
29767SOL    HW295907  12.546   6.483   1.170  0.9120  1.9333 -2.2561
29768SOL     OW95908   5.622   3.808  10.350 -0.1083  0.2402  0.7806
29768SOL    HW195909   5.619   3.899  10.381  0.6821  0.8817 -0.8919
29768SOL    HW295910   5.681   3.811  10.275 -1.5540 -1.2901 -0.4948
29769SOL     OW95911   7.804   9.351  12.670  0.0633 -0.2709 -0.3906
29769SOL    HW195912   7.802   9.412  12.743 -1.0129  0.6601 -1.1544
29769SOL    HW295913   7.892   9.314  12.671  0.5813  0.9427  0.3876
29770SOL     OW95914   9.803  10.912   5.115  0.2474 -0.0215 -0.5196
29770SOL    HW195915   9.718  10.890   5.076  0.5028 -0.4671 -0.8345
29770SOL    HW295916   9.817  10.845   5.181  0.6749 -0.3612 -0.9501
29771SOL     OW95917   8.105  10.045   9.048  0.1884  0.5454 -0.1248
29771SOL    HW195918   8.148   9.986   8.987 -0.0416 -1.4121  1.5041
29771SOL    HW295919   8.100   9.996   9.130 -1.4163  2.2547  0.8904
29772SOL     OW95920   9.163   9.061   9.167 -0.4141  0.2722  0.0074
29772SOL    HW195921   9.165   8.993   9.100  0.7129 -1.2104  1.4719
29772SOL    HW295922   9.116   9.134   9.126 -1.1631 -1.1581 -1.8128
29773SOL     OW95923   5.735   6.564   6.140  0.2319 -0.1159 -0.2118
29773SOL    HW195924   5.672   6.509   6.093 -0.6660  0.8633 -0.1836
29773SOL    HW295925   5.744   6.522   6.225  0.5537 -0.9383 -0.6392
29774SOL     OW95926   3.523   3.401   0.432 -0.1779  0.2559  0.1812
29774SOL    HW195927   3.485   3.339   0.369  0.1424  1.1075 -0.8810
29774SOL    HW295928   3.598   3.438   0.386  0.2377  0.6990  1.1876
29775SOL     OW95929   9.276   7.861  11.930  0.3368 -0.4425  0.2891
29775SOL    HW195930   9.184   7.880  11.910  0.7082  1.0737 -0.0851
29775SOL    HW295931   9.274   7.774  11.970 -1.2163 -0.5900 -0.0310
29776SOL     OW95932   2.299   0.485   2.698  0.3224  0.0643  0.4541
29776SOL    HW195933   2.374   0.429   2.718 -0.1187 -1.4590 -1.8071
29776SOL    HW295934   2.332   0.574   2.709  1.9591 -0.5797  1.1310
29777SOL     OW95935   2.072   8.837   4.202 -0.0764 -0.0827 -0.7206
29777SOL    HW195936   1.992   8.785   4.212 -0.5535  1.0081  1.7955
29777SOL    HW295937   2.137   8.791   4.255  0.1758  0.5666 -0.4608
29778SOL     OW95938   7.795   6.024   3.960  0.5608 -0.0013  0.3731
29778SOL    HW195939   7.704   6.041   3.984  0.8943  0.3173  1.4547
29778SOL    HW295940   7.795   5.934   3.930 -0.0783 -0.0729  0.5617
29779SOL     OW95941   8.011   3.702   9.489 -0.2329 -0.3027  0.6172
29779SOL    HW195942   8.031   3.794   9.505 -1.4867  0.0327  0.3447
29779SOL    HW295943   8.067   3.654   9.552  2.1035  0.4745 -0.7505
29780SOL     OW95944   0.183   6.240   0.537 -0.1889  0.1757  0.2579
29780SOL    HW195945   0.156   6.258   0.628 -0.7557 -0.0321  0.1389
29780SOL    HW295946   0.248   6.170   0.545  1.4663  1.7167  0.6639
29781SOL     OW95947   6.348   9.605   3.972 -0.2899  0.3012 -0.5956
29781SOL    HW195948   6.261   9.642   3.959 -0.5542 -0.3605 -0.7798
29781SOL    HW295949   6.332   9.511   3.985  0.4232  0.1117 -1.0289
29782SOL     OW95950  10.070   0.322   3.702 -0.3090  0.0333 -0.2551
29782SOL    HW195951  10.086   0.406   3.747 -1.0629  0.0358  0.0291
29782SOL    HW295952  10.029   0.347   3.619 -1.1360 -0.0729  0.1118
29783SOL     OW95953   2.424  12.523   4.117 -0.0827  0.5239  0.3589
29783SOL    HW195954   2.359  12.505   4.050 -0.6809 -0.0777  1.0840
29783SOL    HW295955   2.508  12.520   4.071 -0.5169  0.7177 -0.4659
29784SOL     OW95956  11.657   7.266   1.714 -0.6863 -0.4756  0.3119
29784SOL    HW195957  11.721   7.207   1.674  1.0549  0.3351  1.7572
29784SOL    HW295958  11.632   7.224   1.796 -0.6627  0.0440  0.5893
29785SOL     OW95959   5.188   7.526   7.174 -0.0785  0.2855 -0.0954
29785SOL    HW195960   5.139   7.534   7.093 -1.4725  1.8267  0.8335
29785SOL    HW295961   5.263   7.585   7.163  0.4516 -0.4833 -0.7174
29786SOL     OW95962   9.107   1.085   7.177  0.5363  0.2689 -0.1462
29786SOL    HW195963   9.070   1.023   7.238  1.5553  0.9417  1.2137
29786SOL    HW295964   9.108   1.039   7.093 -0.2883 -0.9107  0.4714
29787SOL     OW95965   3.032   9.355  10.237  0.6079  0.2426  0.1983
29787SOL    HW195966   2.964   9.290  10.224  0.2868  0.5648  0.2556
29787SOL    HW295967   3.061   9.378  10.149  0.1923  0.5769  0.1465
29788SOL     OW95968   9.883   7.384   9.634 -0.2087 -0.4484  0.4706
29788SOL    HW195969   9.803   7.414   9.676 -0.6405  1.1765 -1.4100
29788SOL    HW295970   9.952   7.439   9.671 -0.6277  1.1744 -1.0731
29789SOL     OW95971   9.579  11.361   6.872  0.0511 -0.3509  0.1858
29789SOL    HW195972   9.605  11.412   6.795  1.8530  0.2445  1.1458
29789SOL    HW295973   9.559  11.426   6.939  2.8212 -0.8162  1.5694
29790SOL     OW95974   0.306   4.115  10.729  0.1433 -0.3824  0.0819
29790SOL    HW195975   0.397   4.086  10.714  0.1053 -0.5153  0.1037
29790SOL    HW295976   0.271   4.051  10.790  0.1751 -0.0696  0.4293
29791SOL     OW95977   6.867   3.880  12.016  0.5194 -0.0124 -0.2738
29791SOL    HW195978   6.824   3.829  12.084 -1.0917  0.2880 -1.0049
29791SOL    HW295979   6.941   3.922  12.060  0.6613 -1.3251  0.8122
29792SOL     OW95980   7.468   6.122  10.926  0.5355 -0.3079  0.4164
29792SOL    HW195981   7.505   6.204  10.959  1.3691 -0.2308 -0.6507
29792SOL    HW295982   7.542   6.060  10.927  0.4143 -0.4936 -0.5882
29793SOL     OW95983   7.266  12.236  11.096  0.6267  0.1314  0.1905
29793SOL    HW195984   7.210  12.251  11.021  2.2298 -1.3562 -1.3942
29793SOL    HW295985   7.211  12.188  11.158  0.0362 -1.0133 -1.1762
29794SOL     OW95986   2.379   9.445   7.635  0.1171  0.1894 -0.0349
29794SOL    HW195987   2.410   9.368   7.586 -0.7979 -0.4729  0.4112
29794SOL    HW295988   2.445   9.458   7.703 -0.7127 -1.4450  1.1499
29795SOL     OW95989   9.543   2.029  11.835  0.4004  0.0053 -0.0476
29795SOL    HW195990   9.583   1.955  11.789 -0.4116 -0.5078  0.0447
29795SOL    HW295991   9.519   2.090  11.765  0.5263 -0.0974 -0.1816
29796SOL     OW95992   4.372   5.742  12.536  0.5122 -0.1733  0.6092
29796SOL    HW195993   4.294   5.793  12.555 -1.0384 -2.5163  0.8476
29796SOL    HW295994   4.442   5.785  12.586 -0.0477  3.1991 -1.1799
29797SOL     OW95995  10.860   5.622   2.460 -0.1639 -0.1030  0.2691
29797SOL    HW195996  10.879   5.631   2.554 -1.4982  0.0073  0.5493
29797SOL    HW295997  10.766   5.603   2.457  0.0663 -1.1715 -0.9960
29798SOL     OW95998   3.534   6.504  12.636 -0.0180  0.3033  0.2668
29798SOL    HW195999   3.464   6.445  12.665 -0.0175  0.7690  1.2628
29798SOL    HW296000   3.491   6.564  12.575 -0.1420 -0.3753 -0.3153
29799SOL     OW96001   7.227   9.486   2.185  0.9226 -0.0346  0.1609
29799SOL    HW196002   7.232   9.522   2.097  2.4495  0.9699  0.6309
29799SOL    HW296003   7.152   9.530   2.225 -1.5771 -2.4693 -1.4164
29800SOL     OW96004   0.719  12.043  11.143 -0.2623  0.2934  0.3070
29800SOL    HW196005   0.699  12.044  11.050 -2.0203 -2.3197  0.5441
29800SOL    HW296006   0.786  11.976  11.153  3.1712  3.4381  0.5556
29801SOL     OW96007   3.798   5.511   0.489 -0.0773  0.2721 -0.8772
29801SOL    HW196008   3.820   5.547   0.403 -0.1524 -1.1477 -1.5211
29801SOL    HW296009   3.782   5.418   0.473  2.7545 -0.7055  1.1152
29802SOL     OW96010  11.471  10.931   0.804  0.1512 -0.1971  0.5052
29802SOL    HW196011  11.527  10.964   0.874  1.7202  1.5155 -1.4286
29802SOL    HW296012  11.415  11.004   0.780  0.2794 -0.4307 -0.5975
29803SOL     OW96013   6.948   7.336  10.149 -0.1653 -0.5584  0.0271
29803SOL    HW196014   6.991   7.269  10.201 -0.4511 -1.8696 -1.3639
29803SOL    HW296015   7.018   7.375  10.097 -0.1169 -0.2762  0.3009
29804SOL     OW96016   9.092  11.721  12.648  0.0307 -0.4667  0.4669
29804SOL    HW196017   9.070  11.778  12.722 -0.0347 -1.9126  1.6078
29804SOL    HW296018   9.047  11.760  12.573 -0.0288  0.9436  1.2220
29805SOL     OW96019  11.607   1.401   7.552  0.7919  0.1887 -0.4812
29805SOL    HW196020  11.578   1.333   7.491 -0.7402 -0.5126  0.9134
29805SOL    HW296021  11.586   1.483   7.508 -1.0010 -0.2994 -0.6480
29806SOL     OW96022   4.456   7.664   5.943 -0.2646 -0.1255 -0.1041
29806SOL    HW196023   4.421   7.704   5.863  1.4291  1.7982  0.0367
29806SOL    HW296024   4.380   7.660   6.002 -0.5777  3.0417 -0.1297
29807SOL     OW96025   6.395   8.347   9.217 -0.3917  0.6093  0.0723
29807SOL    HW196026   6.451   8.299   9.277  0.3941 -1.0006 -1.8457
29807SOL    HW296027   6.415   8.439   9.235  3.3916  0.1312 -0.8894
29808SOL     OW96028   6.180   9.032   2.354  0.4072  0.2520  0.1642
29808SOL    HW196029   6.164   9.069   2.441  0.4438 -0.3603  0.4381
29808SOL    HW296030   6.191   9.108   2.297 -1.0774  0.6893  0.4077
29809SOL     OW96031  11.719   7.887   2.410  0.4063 -0.5559  0.7756
29809SOL    HW196032  11.643   7.871   2.467  0.5519 -1.0702  0.8327
29809SOL    HW296033  11.682   7.899   2.323  0.2704 -0.9567  0.7784
29810SOL     OW96034  11.981   8.260   1.733 -0.2755  0.0440 -0.6058
29810SOL    HW196035  11.979   8.220   1.646 -0.6916 -0.4990 -0.3553
29810SOL    HW296036  12.012   8.349   1.718 -0.3631 -0.0379 -1.3153
29811SOL     OW96037   7.434   8.450   8.503  0.0625 -0.3536  0.2796
29811SOL    HW196038   7.357   8.407   8.465 -0.0157 -0.2681  0.3425
29811SOL    HW296039   7.457   8.518   8.439  0.2462 -0.5500  0.1321
29812SOL     OW96040   5.234  12.107   0.132 -0.1908 -0.1375 -0.3669
29812SOL    HW196041   5.233  12.086   0.039 -0.6489 -1.0545 -0.1615
29812SOL    HW296042   5.144  12.132   0.153  0.4629  3.0881 -0.7940
29813SOL     OW96043   1.999   4.044  12.271 -0.2056  0.1269  0.0557
29813SOL    HW196044   1.953   4.012  12.193 -0.9150 -1.1566  0.9681
29813SOL    HW296045   2.085   4.070  12.239 -0.8649  0.6965 -1.3524
29814SOL     OW96046  12.362   2.870  11.994 -0.5099 -0.6575 -0.0970
29814SOL    HW196047  12.293   2.821  11.949 -0.1020 -0.8464 -0.5360
29814SOL    HW296048  12.410   2.803  12.044  0.1419 -0.7583 -0.8171
29815SOL     OW96049   5.735  11.246   9.093  0.3884  0.5890 -0.8709
29815SOL    HW196050   5.713  11.157   9.122  1.1743  0.9740  1.1186
29815SOL    HW296051   5.796  11.234   9.021 -0.4036 -0.4590 -1.3964
29816SOL     OW96052  11.557   5.299   0.350  0.4233 -0.1358  0.2892
29816SOL    HW196053  11.470   5.334   0.330  0.1456 -0.1476  1.3815
29816SOL    HW296054  11.581   5.341   0.433  1.6380  0.1742 -0.2064
29817SOL     OW96055   7.822   0.224   3.046 -0.2590  0.6277  0.1357
29817SOL    HW196056   7.745   0.181   3.009 -0.0812 -0.1634  0.6692
29817SOL    HW296057   7.883   0.232   2.973 -1.4321  2.7367 -0.7082
29818SOL     OW96058   4.270   9.449   4.852 -0.4335 -0.2372  0.2482
29818SOL    HW196059   4.211   9.441   4.927  0.8205  1.8484  1.5601
29818SOL    HW296060   4.254   9.537   4.818  1.1213 -0.0318 -0.0407
29819SOL     OW96061   3.041   9.627   3.201  0.3514  0.1904 -0.2370
29819SOL    HW196062   3.131   9.596   3.213  0.3204  1.1656  4.3610
29819SOL    HW296063   3.050   9.711   3.157  1.3218 -0.9662 -2.4525
29820SOL     OW96064   3.373   5.104   5.297 -0.2715  0.6892 -0.7356
29820SOL    HW196065   3.333   5.032   5.346  0.9375 -1.1262 -2.2824
29820SOL    HW296066   3.330   5.183   5.331 -2.2869 -0.8098  0.3957
29821SOL     OW96067   1.415   7.130   1.542 -0.0064 -0.3917  0.2758
29821SOL    HW196068   1.416   7.220   1.509 -1.9317 -0.6257 -0.5752
29821SOL    HW296069   1.392   7.138   1.634 -0.2668 -0.0091  0.1799
29822SOL     OW96070   8.105  11.418   1.792 -0.0445  0.1055  0.1288
29822SOL    HW196071   8.020  11.407   1.749 -0.0377 -0.2826  0.2103
29822SOL    HW296072   8.112  11.512   1.806  0.3961  0.3708 -1.6183
29823SOL     OW96073   7.140   0.149   4.454 -0.2139 -0.4269 -0.1378
29823SOL    HW196074   7.191   0.224   4.484  1.0819 -1.4823  0.4111
29823SOL    HW296075   7.164   0.138   4.362 -1.3609  0.5516 -0.5864
29824SOL     OW96076   2.604   8.489   2.521 -0.2249 -0.2789  0.3179
29824SOL    HW196077   2.578   8.580   2.532 -2.9549 -1.0418  0.7217
29824SOL    HW296078   2.603   8.453   2.610  0.1964 -0.8925  0.0837
29825SOL     OW96079   0.818   5.260   7.226  0.2477 -0.2749  0.1975
29825SOL    HW196080   0.820   5.265   7.130  0.4693  1.1859  0.2664
29825SOL    HW296081   0.726   5.245   7.247  0.0023  0.6006 -0.2092
29826SOL     OW96082   7.207   0.456   3.678 -0.2932 -0.1739  0.4619
29826SOL    HW196083   7.229   0.505   3.598 -0.9035  0.6759  0.7973
29826SOL    HW296084   7.291   0.438   3.719 -0.0538  0.5594  0.3071
29827SOL     OW96085  12.061  11.151  10.609  0.1111 -0.0572  1.3219
29827SOL    HW196086  11.973  11.149  10.646 -0.8122 -1.0755 -0.8159
29827SOL    HW296087  12.089  11.242  10.621 -2.3479  1.0261 -0.4067
29828SOL     OW96088   3.480   1.396   1.319  0.3970 -0.0814  0.1645
29828SOL    HW196089   3.534   1.445   1.381 -0.8538  2.6601 -0.7651
29828SOL    HW296090   3.520   1.413   1.234  0.5121 -1.5564 -0.0953
29829SOL     OW96091   7.138   7.040   4.638 -0.1627 -0.1333  0.1608
29829SOL    HW196092   7.124   7.129   4.606 -2.2133 -0.2346  0.6488
29829SOL    HW296093   7.171   6.992   4.562  0.2217  0.8478 -0.3087
29830SOL     OW96094   5.441   6.495   1.561 -0.2035 -0.1208  0.2516
29830SOL    HW196095   5.421   6.579   1.519 -2.0242 -0.4776  0.2963
29830SOL    HW296096   5.459   6.516   1.652  0.8205  0.3545 -0.0491
29831SOL     OW96097  11.694   4.383   1.560 -0.0101  0.0904  0.7462
29831SOL    HW196098  11.612   4.421   1.590  0.5574  1.2222  0.9248
29831SOL    HW296099  11.679   4.289   1.561 -1.5582  0.3052  0.0188
29832SOL     OW96100   1.636   3.446   6.100 -0.8248 -0.3784  0.0571
29832SOL    HW196101   1.615   3.482   6.015  0.0025 -0.3907 -0.1632
29832SOL    HW296102   1.731   3.455   6.108 -1.0663  1.4315  1.8048
29833SOL     OW96103   2.235   4.146   3.484 -0.8555  0.2448  0.4216
29833SOL    HW196104   2.327   4.137   3.511 -0.3723 -1.1426 -1.4166
29833SOL    HW296105   2.236   4.120   3.392 -2.9328  1.3070  0.0533
29834SOL     OW96106   4.430  11.696  10.137  0.1768 -0.3754  0.1591
29834SOL    HW196107   4.455  11.769  10.081 -0.7314  0.1211  0.3851
29834SOL    HW296108   4.435  11.732  10.226 -0.9383 -0.3811  0.2283
29835SOL     OW96109   1.421   8.139   2.549  0.1721  0.4359  0.0404
29835SOL    HW196110   1.350   8.084   2.582  0.0190  1.3515  1.3226
29835SOL    HW296111   1.498   8.082   2.550 -0.3819 -0.3461 -0.6385
29836SOL     OW96112   2.512   6.824   8.438  0.4603  0.2392 -0.1345
29836SOL    HW196113   2.515   6.919   8.453 -1.0822  0.1744  0.7163
29836SOL    HW296114   2.499   6.815   8.344 -0.0512  0.8893 -0.1294
29837SOL     OW96115   1.169   9.062  11.159  0.4694 -0.5726 -0.0633
29837SOL    HW196116   1.124   9.135  11.116  0.9222  0.5855  1.3814
29837SOL    HW296117   1.228   9.028  11.091  1.1287  1.1767 -0.4276
29838SOL     OW96118   9.948   8.449   5.278 -0.2880 -0.4667  0.0317
29838SOL    HW196119  10.009   8.376   5.290  1.4577  1.0511  1.0024
29838SOL    HW296120   9.960   8.476   5.188 -0.4315 -0.9384 -0.1319
29839SOL     OW96121   1.114  10.018   0.541  0.0681 -0.2779 -0.0467
29839SOL    HW196122   1.027  10.037   0.505 -0.7216 -2.0893  0.7618
29839SOL    HW296123   1.114  10.062   0.626 -0.4458 -1.0401  0.3608
29840SOL     OW96124   0.313   0.032   2.396 -0.0788 -0.1487 -0.5871
29840SOL    HW196125   0.338   0.055   2.307  0.0009  2.3506 -0.0125
29840SOL    HW296126   0.392  -0.006   2.435 -0.2847 -1.7934 -1.7059
29841SOL     OW96127   5.434   3.347  11.826 -0.2842  0.0032  0.3470
29841SOL    HW196128   5.508   3.405  11.810 -0.4052  0.2396  0.6394
29841SOL    HW296129   5.414   3.310  11.740  1.2622 -1.4121  0.5525
29842SOL     OW96130   0.794   8.244   0.261 -0.1544  0.6471 -0.1308
29842SOL    HW196131   0.884   8.230   0.232 -0.3499  0.8841 -0.8782
29842SOL    HW296132   0.744   8.176   0.217 -0.1975 -0.1669  1.1352
29843SOL     OW96133   6.474  10.785  10.062 -0.6801  0.0422 -0.2838
29843SOL    HW196134   6.462  10.813  10.153 -0.9591  2.4793 -1.0009
29843SOL    HW296135   6.560  10.743  10.062 -0.9317 -0.5435  1.2102
29844SOL     OW96136  10.048   2.855   2.764  0.0377  0.5638 -0.3640
29844SOL    HW196137   9.975   2.914   2.744 -0.6554 -0.6382 -1.5512
29844SOL    HW296138  10.066   2.810   2.681  2.5290  1.2174 -0.2730
29845SOL     OW96139   6.690   0.152   6.062 -0.3631 -0.0353 -0.3392
29845SOL    HW196140   6.677   0.162   6.156  0.8211 -0.4081 -0.1230
29845SOL    HW296141   6.784   0.140   6.052 -0.4201  0.4565 -1.6189
29846SOL     OW96142   8.495   2.987   0.741  0.7491  0.2722 -0.5274
29846SOL    HW196143   8.441   2.910   0.755 -0.8850  1.4470 -0.1148
29846SOL    HW296144   8.541   3.001   0.824 -0.0620  0.5635 -0.1225
29847SOL     OW96145   1.294   6.620   4.861  0.3569 -0.4171  0.3931
29847SOL    HW196146   1.269   6.682   4.792  2.1711  0.1836  0.2395
29847SOL    HW296147   1.248   6.539   4.838 -1.2460  0.5473  0.0292
29848SOL     OW96148   5.690   4.515  10.256 -0.3383  0.4825  0.3099
29848SOL    HW196149   5.613   4.572  10.250 -0.8280 -0.0350  1.3458
29848SOL    HW296150   5.656   4.433  10.293  0.4793 -0.2373 -0.4923
29849SOL     OW96151  10.355   9.801  10.713  0.6682  0.6009 -0.3932
29849SOL    HW196152  10.329   9.718  10.672  1.8318 -0.0930  0.2100
29849SOL    HW296153  10.433   9.828  10.665  2.3759 -0.4923  1.5353
29850SOL     OW96154   6.203   4.795  11.319  0.2541 -0.1084 -0.0148
29850SOL    HW196155   6.272   4.732  11.296 -0.1662 -0.6805  0.2533
29850SOL    HW296156   6.248   4.879  11.327  0.8908 -0.4460 -0.0075
29851SOL     OW96157   6.712  10.087   4.494  0.0858 -0.2536  0.7355
29851SOL    HW196158   6.681   9.998   4.482 -0.6873  0.0896  0.1096
29851SOL    HW296159   6.808  10.079   4.499  0.0008 -1.1463  1.0560
29852SOL     OW96160   2.770  10.480   8.412 -0.1616 -0.5709 -0.0789
29852SOL    HW196161   2.852  10.524   8.436 -0.7472  0.5441 -0.0163
29852SOL    HW296162   2.748  10.427   8.488 -0.3397  0.4157  0.5713
29853SOL     OW96163   7.922   2.531   9.887 -0.2014 -0.2814 -0.2547
29853SOL    HW196164   7.925   2.622   9.857 -1.0454  0.6503  2.2332
29853SOL    HW296165   7.980   2.529   9.962  1.7265 -2.4789 -1.6603
29854SOL     OW96166   3.313   7.636   7.148 -0.2131  0.0073 -0.2794
29854SOL    HW196167   3.297   7.675   7.234  0.3745  0.1856 -0.2414
29854SOL    HW296168   3.399   7.671   7.123  0.3776 -1.3219 -0.2098
29855SOL     OW96169   3.251   3.846   5.794 -1.0706 -0.1016 -0.5330
29855SOL    HW196170   3.237   3.836   5.889 -0.2815 -0.6719 -0.4616
29855SOL    HW296171   3.164   3.858   5.758 -1.2829  1.4804  0.4058
29856SOL     OW96172   8.811   2.642   0.328 -0.3233 -0.0345  0.0716
29856SOL    HW196173   8.753   2.643   0.405  0.8624 -0.8316  1.0105
29856SOL    HW296174   8.798   2.728   0.288 -1.5949  0.0858  0.6786
29857SOL     OW96175   3.131   9.158   9.386 -0.4889 -0.6832 -0.1374
29857SOL    HW196176   3.171   9.167   9.300 -0.2343  0.5674  0.0900
29857SOL    HW296177   3.039   9.138   9.368 -0.2362 -1.4232 -0.6711
29858SOL     OW96178   0.449   4.110  11.160  0.6519 -0.1295  0.0083
29858SOL    HW196179   0.432   4.098  11.254 -0.8312  1.1150 -0.0535
29858SOL    HW296180   0.399   4.040  11.118  0.9587 -0.4216  0.1317
29859SOL     OW96181  11.171   0.100   0.226  0.2836 -0.1988  0.2470
29859SOL    HW196182  11.250   0.063   0.266  0.5429 -1.6387 -1.4648
29859SOL    HW296183  11.102   0.085   0.291  0.7195 -2.3166  0.2940
29860SOL     OW96184   0.658   4.181  12.251 -0.0598 -0.2515  0.0533
29860SOL    HW196185   0.730   4.127  12.286 -1.8535 -1.1691  2.6497
29860SOL    HW296186   0.585   4.120  12.243 -1.2079  1.1331 -0.2124
29861SOL     OW96187   2.967   8.143   1.392 -0.7836 -0.0799 -0.2281
29861SOL    HW196188   2.995   8.235   1.391 -0.0668 -0.2971 -1.5748
29861SOL    HW296189   3.037   8.097   1.438 -0.3105 -0.2010 -1.0670
29862SOL     OW96190   3.755   2.306  12.557  0.3927  0.2520 -0.0681
29862SOL    HW196191   3.699   2.251  12.612  1.4950  0.7784  1.6675
29862SOL    HW296192   3.836   2.256  12.548  0.8624  0.9347  0.2912
29863SOL     OW96193   0.922   6.463   9.125  0.0808 -0.1395 -0.5756
29863SOL    HW196194   0.852   6.507   9.175 -1.2985  0.5138 -2.9457
29863SOL    HW296195   0.982   6.431   9.192 -0.8412  2.0429  1.4548
29864SOL     OW96196   7.491  11.290   5.284  0.2936  0.0521 -0.3097
29864SOL    HW196197   7.527  11.345   5.214 -1.0039 -1.8462 -2.6168
29864SOL    HW296198   7.567  11.264   5.335  1.7723 -0.6954 -2.7007
29865SOL     OW96199   8.229  10.473   7.285  0.1928 -0.2436 -0.0998
29865SOL    HW196200   8.302  10.477   7.346  0.3388  0.9596 -0.3334
29865SOL    HW296201   8.183  10.392   7.308  0.5428 -0.0768  1.2463
29866SOL     OW96202   6.148  10.742   0.220  0.2272 -0.5638  0.3505
29866SOL    HW196203   6.090  10.810   0.184  0.4100 -0.9428 -0.7033
29866SOL    HW296204   6.235  10.780   0.213  0.2491 -0.5813  0.5359
29867SOL     OW96205   2.989   7.143   5.175  0.5520  0.0507  0.4405
29867SOL    HW196206   2.925   7.202   5.215 -1.6187 -0.8766 -1.4545
29867SOL    HW296207   2.988   7.065   5.230 -1.8028 -0.8955 -0.8134
29868SOL     OW96208  12.237   6.781   7.485 -0.1703 -0.0089 -0.3564
29868SOL    HW196209  12.225   6.705   7.428  3.2237  0.3092 -1.7608
29868SOL    HW296210  12.156   6.831   7.475 -1.3715 -2.0610 -1.5886
29869SOL     OW96211  12.131   8.164   2.221 -0.2737 -0.4711 -0.0350
29869SOL    HW196212  12.173   8.187   2.303 -0.8629  1.5043 -0.2301
29869SOL    HW296213  12.054   8.113   2.247 -0.3974  0.0439  0.6356
29870SOL     OW96214   5.806   2.061   8.723 -0.2553 -0.2129 -0.1345
29870SOL    HW196215   5.760   2.106   8.794 -1.7351 -1.3326 -0.3298
29870SOL    HW296216   5.762   1.976   8.716  1.4688 -1.1118 -0.7646
29871SOL     OW96217   4.392   2.300   6.485  0.1207 -0.5107  0.1937
29871SOL    HW196218   4.372   2.383   6.528  0.9185 -0.1407 -0.1313
29871SOL    HW296219   4.307   2.258   6.472 -0.3672  0.6812 -0.5061
29872SOL     OW96220  12.038   1.147  10.590  0.3433 -0.6897 -0.2144
29872SOL    HW196221  12.106   1.087  10.559 -0.3564 -1.3099 -0.5839
29872SOL    HW296222  12.045   1.222  10.532  2.3541  0.3967  1.2988
29873SOL     OW96223  10.162  10.861   0.680 -0.3302 -0.4531  0.2454
29873SOL    HW196224  10.219  10.798   0.634 -1.3031 -0.7908 -0.5323
29873SOL    HW296225  10.222  10.930   0.709  0.3209 -0.1699 -1.6260
29874SOL     OW96226   1.755   5.971   0.545  0.2598 -0.2966 -0.6438
29874SOL    HW196227   1.719   5.891   0.584  0.5827 -0.1490 -0.0343
29874SOL    HW296228   1.709   6.042   0.590  0.5021 -0.1249 -0.6674
29875SOL     OW96229   3.341   8.036   9.636  0.3521 -0.4382 -0.0813
29875SOL    HW196230   3.314   7.997   9.553  0.2514 -0.3446 -0.0925
29875SOL    HW296231   3.409   8.099   9.611  0.9396 -1.0343 -0.0003
29876SOL     OW96232   8.273   8.094   6.713  0.1273 -0.3466 -0.7483
29876SOL    HW196233   8.262   8.116   6.620 -2.2020  2.1307 -0.0097
29876SOL    HW296234   8.368   8.085   6.724  0.6837  1.7845 -2.8958
29877SOL     OW96235   1.741   5.063  11.595  0.2512 -0.0880 -0.6157
29877SOL    HW196236   1.776   4.980  11.561  0.0955 -0.0714 -0.8157
29877SOL    HW296237   1.659   5.039  11.638  0.9627 -0.2786  0.7108
29878SOL     OW96238   7.279   9.651  10.888 -0.1500  0.0802  0.0066
29878SOL    HW196239   7.234   9.604  10.958  0.3323 -0.2126  0.1220
29878SOL    HW296240   7.344   9.704  10.933 -0.9950  1.2323 -0.0809
29879SOL     OW96241   1.268  12.626   6.166  0.1709  0.1392  0.7511
29879SOL    HW196242   1.206  12.694   6.190  0.3741  0.5440  0.1460
29879SOL    HW296243   1.315  12.607   6.247 -1.1088 -0.5710  1.3548
29880SOL     OW96244   8.226   7.274   9.143 -0.5281  0.0410 -0.5506
29880SOL    HW196245   8.210   7.354   9.194 -1.5626 -0.6768  0.3206
29880SOL    HW296246   8.321   7.262   9.145 -0.1353  2.2583 -2.3283
29881SOL     OW96247  12.611   1.043   3.095  0.4064 -0.0782  0.2802
29881SOL    HW196248  12.553   1.007   3.161 -0.5921 -0.1302 -0.6078
29881SOL    HW296249  12.572   1.128   3.073  0.1281 -0.5136 -0.9816
29882SOL     OW96250   5.688   3.965   3.565  0.1335 -0.1072  0.3128
29882SOL    HW196251   5.769   3.918   3.545 -0.3548 -0.6896 -0.3214
29882SOL    HW296252   5.712   4.057   3.557  0.4438 -0.2869 -1.1090
29883SOL     OW96253  11.474   8.586  10.631 -0.7794  0.1319  0.3030
29883SOL    HW196254  11.567   8.601  10.614 -0.7648 -0.9679 -0.6961
29883SOL    HW296255  11.471   8.546  10.718 -0.3145  0.1529  0.3283
29884SOL     OW96256   5.378   0.394   9.050 -1.0197 -0.0158  0.3067
29884SOL    HW196257   5.445   0.325   9.051 -1.3432 -0.3424 -0.4953
29884SOL    HW296258   5.299   0.350   9.021 -1.0384  0.8620 -1.0125
29885SOL     OW96259   2.259   1.142   7.163  0.4207 -0.2716 -0.4898
29885SOL    HW196260   2.208   1.111   7.087 -0.8107 -0.4068  0.3612
29885SOL    HW296261   2.193   1.181   7.221  1.0392 -1.9539  1.4300
29886SOL     OW96262   8.600   0.963   4.120 -0.8765  0.4024  0.0179
29886SOL    HW196263   8.633   1.050   4.142  1.4590 -0.7852  1.6660
29886SOL    HW296264   8.543   0.939   4.193 -0.9954  0.2998 -0.1080
29887SOL     OW96265   1.090   0.989  10.146  0.7834  0.0970 -0.3626
29887SOL    HW196266   1.169   1.043  10.149  0.5230  0.5369 -0.9991
29887SOL    HW296267   1.060   0.997  10.055 -0.7594  1.0679  0.1899
29888SOL     OW96268  11.027  11.373   6.473 -0.5571 -0.3948  0.0909
29888SOL    HW196269  10.935  11.394   6.455  0.0191  0.6485 -2.0257
29888SOL    HW296270  11.067  11.458   6.491  0.5091 -0.4369 -1.8569
29889SOL     OW96271   4.973   0.192   2.451 -0.4655  0.2707  0.8046
29889SOL    HW196272   5.017   0.145   2.521  1.3540  0.0842 -0.3803
29889SOL    HW296273   4.886   0.153   2.446  0.6519 -2.4002  0.4774
29890SOL     OW96274  10.597   4.996  12.646 -0.2638 -0.1465  0.0244
29890SOL    HW196275  10.584   5.022  12.737 -0.6678  0.3846 -0.1806
29890SOL    HW296276  10.542   4.918  12.635 -1.5913  0.7836 -0.2194
29891SOL     OW96277   6.207   0.260   5.502 -0.1908 -0.1067 -0.5360
29891SOL    HW196278   6.278   0.245   5.565 -0.1170  1.9294 -0.0895
29891SOL    HW296279   6.252   0.261   5.417 -0.0330 -1.0051 -0.4835
29892SOL     OW96280   1.125   6.982   2.198 -0.3271 -0.5470 -0.1833
29892SOL    HW196281   1.177   7.032   2.261 -1.1819  0.0899  0.0327
29892SOL    HW296282   1.088   7.049   2.140 -1.1217 -0.9613 -0.1636
29893SOL     OW96283   2.650  12.549   1.113  0.1910  0.0238  1.0700
29893SOL    HW196284   2.735  12.592   1.124  1.4977 -1.4636 -2.1212
29893SOL    HW296285   2.604  12.602   1.048  0.0285 -0.9539  0.3698
29894SOL     OW96286   3.381   0.817  12.719 -0.0380 -0.0700 -0.5133
29894SOL    HW196287   3.307   0.764  12.689 -0.8040  0.0651  1.0256
29894SOL    HW296288   3.397   0.786  12.808  1.4137  0.2933 -0.6386
29895SOL     OW96289  12.073   0.521  10.177 -0.4289  0.1798  0.6759
29895SOL    HW196290  12.147   0.470  10.210 -0.2829 -0.1995 -0.2020
29895SOL    HW296291  11.997   0.482  10.220 -0.4017 -1.3173 -0.5498
29896SOL     OW96292  10.413   9.501   0.240  0.2869 -0.1299 -0.2701
29896SOL    HW196293  10.405   9.587   0.198  0.6744  0.8071  1.4733
29896SOL    HW296294  10.406   9.439   0.168 -0.5991  1.3312 -1.5223
29897SOL     OW96295   2.794   4.729   8.698  0.0344 -0.5053  0.0088
29897SOL    HW196296   2.767   4.660   8.637  1.8008 -0.7473 -0.5586
29897SOL    HW296297   2.865   4.775   8.653  1.0800 -0.3848  1.6800
29898SOL     OW96298   3.283   6.991   2.015 -0.1891  0.1435 -0.3137
29898SOL    HW196299   3.227   6.919   1.986  0.4951 -0.0276 -1.2838
29898SOL    HW296300   3.312   6.965   2.102 -1.3539  0.0910  0.0676
29899SOL     OW96301   1.106  12.715  11.472  0.3086  0.0665  0.2625
29899SOL    HW196302   1.040  12.701  11.540 -2.0515 -0.1768 -1.9322
29899SOL    HW296303   1.107  12.810  11.460 -1.6713 -0.0501 -1.4438
29900SOL     OW96304  12.503   7.986  11.038 -0.0077  0.0164 -0.2618
29900SOL    HW196305  12.476   8.008  11.127  2.4861 -0.3486  0.6635
29900SOL    HW296306  12.541   7.899  11.046  1.4368  0.5175 -1.4239
29901SOL     OW96307   0.993  11.384   6.791  0.4650 -0.0645 -0.1295
29901SOL    HW196308   1.034  11.467   6.815 -1.2690  1.1871 -1.2849
29901SOL    HW296309   0.900  11.396   6.812  0.3508 -2.2216  0.9255
29902SOL     OW96310   6.096   7.667   0.035 -0.1277 -0.1346 -0.4541
29902SOL    HW196311   6.123   7.690   0.124  1.8232  1.4063 -1.3424
29902SOL    HW296312   6.015   7.618   0.045  0.2489 -0.3223  2.1753
29903SOL     OW96313   4.870   5.521   2.750  0.4230  0.3813  0.3205
29903SOL    HW196314   4.815   5.507   2.672 -0.3009  1.1476  0.6796
29903SOL    HW296315   4.823   5.478   2.821  2.0709 -2.0869  0.0196
29904SOL     OW96316   2.029  12.027   3.698 -0.6026 -0.3439  0.2689
29904SOL    HW196317   2.023  11.951   3.641  1.1948  0.7785 -1.5855
29904SOL    HW296318   2.112  12.016   3.744 -0.3347  0.4428 -0.0025
29905SOL     OW96319   6.823  10.657   6.299 -0.3120  0.5547 -0.1023
29905SOL    HW196320   6.915  10.630   6.305 -0.0917  1.5870  2.2992
29905SOL    HW296321   6.819  10.708   6.218  1.1185  0.1789 -0.4567
29906SOL     OW96322   5.568   5.040   6.126 -0.5471  0.3282  0.5833
29906SOL    HW196323   5.621   5.116   6.150  0.6869  0.6257 -2.6335
29906SOL    HW296324   5.631   4.977   6.092 -1.9047 -0.7129 -0.0752
29907SOL     OW96325   2.190   3.770   4.263 -0.3445  0.5545 -0.1895
29907SOL    HW196326   2.139   3.793   4.185 -1.7904  1.3677  0.9285
29907SOL    HW296327   2.217   3.855   4.299 -3.0581  0.5693  2.2720
29908SOL     OW96328  11.202   4.250   0.870  0.1592  0.0242  0.0334
29908SOL    HW196329  11.264   4.311   0.910 -2.8194  2.0719  1.9950
29908SOL    HW296330  11.215   4.167   0.915  0.1556  0.9865  1.8954
29909SOL     OW96331   0.730   5.922   2.463  0.4704  0.0230 -0.1463
29909SOL    HW196332   0.642   5.903   2.429  1.2002  1.0033 -2.8285
29909SOL    HW296333   0.718   5.928   2.558 -2.9157  2.7279 -0.5354
29910SOL     OW96334   5.819   6.791   3.859 -0.0674 -0.7039  0.5285
29910SOL    HW196335   5.915   6.784   3.860  0.1217  1.0562 -0.0776
29910SOL    HW296336   5.801   6.851   3.786 -1.5150  0.1430  1.5362
29911SOL     OW96337   2.229  10.381  11.307  0.2459 -0.1264 -0.0343
29911SOL    HW196338   2.238  10.304  11.363  1.2935  0.4900  0.6787
29911SOL    HW296339   2.248  10.349  11.219 -2.3944 -1.3151 -0.2374
29912SOL     OW96340  12.720   6.894   0.327 -0.5570 -0.7828 -0.1140
29912SOL    HW196341  12.650   6.954   0.303 -0.8931 -1.5416 -1.1323
29912SOL    HW296342  12.677   6.809   0.337  0.1335 -1.1645 -0.2719
29913SOL     OW96343   8.058   8.190   7.795  0.2922  0.2897 -0.1250
29913SOL    HW196344   8.029   8.111   7.841 -0.5915  1.1145  0.7984
29913SOL    HW296345   8.148   8.202   7.823  0.0636  0.2487  0.6527
29914SOL     OW96346   9.272   7.040  10.378  0.0538  0.6464 -0.1477
29914SOL    HW196347   9.216   6.991  10.317 -0.0860  0.4041  0.1741
29914SOL    HW296348   9.357   7.044  10.333  0.2031 -0.3145  0.0260
29915SOL     OW96349   8.747   4.952   4.093  0.3452 -0.1564  0.3045
29915SOL    HW196350   8.655   4.936   4.074  0.7332  0.9100 -3.3747
29915SOL    HW296351   8.757   5.047   4.089  1.4312 -0.1752  1.8042
29916SOL     OW96352   1.983  10.899   9.530 -0.4221  0.0158 -0.3426
29916SOL    HW196353   1.953  10.816   9.492 -0.2017 -0.3048  0.1669
29916SOL    HW296354   2.062  10.876   9.579 -1.0383  0.2837  0.8207
29917SOL     OW96355   2.374   3.969  11.805 -0.0186  0.4188  0.1351
29917SOL    HW196356   2.449   4.012  11.764 -0.9907  1.3750 -0.7098
29917SOL    HW296357   2.411   3.891  11.847  1.3756  0.6614 -0.5782
29918SOL     OW96358  12.628   7.801  11.494  0.1502 -0.2742 -0.5544
29918SOL    HW196359  12.606   7.710  11.510  2.0207 -0.8024 -0.6894
29918SOL    HW296360  12.691   7.799  11.422  0.0456  1.1455 -0.7282
29919SOL     OW96361   8.644   1.545   5.006  0.5128  0.2614 -0.2124
29919SOL    HW196362   8.707   1.569   5.073 -0.3769  3.2849 -0.3314
29919SOL    HW296363   8.690   1.559   4.923  0.2287  0.8600 -0.2740
29920SOL     OW96364  10.883  10.220   6.892  0.3723  0.2701 -0.5592
29920SOL    HW196365  10.926  10.161   6.829  1.9475  0.5759  0.1706
29920SOL    HW296366  10.921  10.197   6.976  1.1727  2.4031 -0.2713
29921SOL     OW96367   4.122  12.259   0.101  0.0465 -0.2644  1.0620
29921SOL    HW196368   4.082  12.196   0.042 -2.1156 -0.3919  2.5588
29921SOL    HW296369   4.216  12.253   0.083 -0.3751 -1.5960 -1.0167
29922SOL     OW96370   4.141   2.296   4.354 -0.0683  0.4243  0.1896
29922SOL    HW196371   4.209   2.346   4.308  0.4156  0.7454  1.2085
29922SOL    HW296372   4.147   2.208   4.318 -0.3416  0.8762 -1.0167
29923SOL     OW96373   0.325   9.584  12.207 -0.0636  0.1986 -0.1359
29923SOL    HW196374   0.345   9.530  12.283 -0.4059 -1.7667 -1.3588
29923SOL    HW296375   0.234   9.610  12.219 -0.4162 -0.9038 -0.2952
29924SOL     OW96376   6.360   9.675   6.412  0.3557  0.4321 -0.3044
29924SOL    HW196377   6.311   9.632   6.342 -1.4718 -0.4710  1.4128
29924SOL    HW296378   6.292   9.712   6.469  1.7745  1.3864  0.8277
29925SOL     OW96379   8.278  11.682   4.953  0.0582 -0.0580  0.6178
29925SOL    HW196380   8.243  11.613   5.010  0.4648 -1.1492 -0.4098
29925SOL    HW296381   8.352  11.718   5.001 -0.7073  0.2976  1.5599
29926SOL     OW96382   4.934   1.690   1.786 -0.6587 -0.3939 -0.2048
29926SOL    HW196383   4.864   1.629   1.761 -0.3668 -0.9055  0.2258
29926SOL    HW296384   4.994   1.638   1.839  0.4249 -0.1449 -1.1522
29927SOL     OW96385   4.906   0.729   7.726  0.1837 -0.6656 -0.3344
29927SOL    HW196386   4.911   0.650   7.780  0.6171 -0.3676  0.0693
29927SOL    HW296387   4.971   0.788   7.764 -0.8228  0.2675 -0.0066
29928SOL     OW96388   5.412   6.523   2.921  0.1775  0.0440 -0.0094
29928SOL    HW196389   5.388   6.489   3.007 -0.9079 -0.2167 -0.4053
29928SOL    HW296390   5.506   6.542   2.928  0.4673 -1.4939  0.7304
29929SOL     OW96391   0.845   2.590   1.794  0.2140 -0.7350  0.3375
29929SOL    HW196392   0.768   2.600   1.739 -1.0870 -2.4804  1.7287
29929SOL    HW296393   0.818   2.621   1.880  0.4801 -2.8321  1.2455
29930SOL     OW96394   7.415   3.481   3.185  0.6474 -0.1081 -0.1571
29930SOL    HW196395   7.341   3.420   3.180  0.0121  0.6480 -0.0165
29930SOL    HW296396   7.474   3.451   3.116 -0.4039  0.0939 -1.1736
29931SOL     OW96397   0.059   1.586   7.227 -0.2101  0.2138 -0.6954
29931SOL    HW196398   0.128   1.562   7.288 -1.3811 -0.9736  0.2213
29931SOL    HW296399   0.083   1.674   7.196  1.0532  0.3197  0.5234
29932SOL     OW96400   8.955   8.442   2.195 -0.3325  0.1770  0.3122
29932SOL    HW196401   8.955   8.413   2.286  0.9006  1.2253  0.6764
29932SOL    HW296402   8.991   8.368   2.146 -1.2090 -0.4749  0.6191
29933SOL     OW96403   9.505   8.763   5.355 -0.1991  0.3991 -0.0037
29933SOL    HW196404   9.522   8.775   5.262 -1.2025  1.4537 -0.0791
29933SOL    HW296405   9.409   8.768   5.363 -0.3082 -1.7348  0.8313
29934SOL     OW96406   1.438   3.934  12.167  0.0649  0.0587 -0.0020
29934SOL    HW196407   1.435   3.995  12.241  0.7014 -1.9834  1.8315
29934SOL    HW296408   1.386   3.975  12.099 -1.5699  1.5264  2.0113
29935SOL     OW96409   1.971   2.258  11.771 -0.6629 -0.2147  0.2994
29935SOL    HW196410   1.945   2.345  11.738 -0.1996  0.0807  0.6921
29935SOL    HW296411   1.909   2.240  11.841 -0.9092 -0.3057  0.0567
29936SOL     OW96412   2.867   2.397   0.214  0.0246  0.3211 -0.2271
29936SOL    HW196413   2.783   2.389   0.259  0.7787 -1.1854  1.0081
29936SOL    HW296414   2.881   2.491   0.205 -2.2095  0.5959 -1.3073
29937SOL     OW96415   5.076   2.033   1.878  0.3619 -0.0093  0.6633
29937SOL    HW196416   5.064   1.973   1.804 -1.4839 -0.3458  1.1761
29937SOL    HW296417   5.142   1.990   1.933 -0.2683 -1.1492  0.5702
29938SOL     OW96418  10.002   5.302   3.304 -0.5387 -0.7286 -0.2086
29938SOL    HW196419   9.942   5.228   3.299 -0.0829 -1.1598  0.4789
29938SOL    HW296420  10.069   5.274   3.367  0.5695 -0.4042 -1.2045
29939SOL     OW96421  10.536   8.421   5.960  0.0042 -0.6251 -0.0390
29939SOL    HW196422  10.447   8.409   5.993  0.5128 -0.5978  1.4137
29939SOL    HW296423  10.585   8.348   5.997  0.9244  0.2641  0.5552
29940SOL     OW96424  10.203   2.870  10.139  0.0201 -0.7528 -0.0706
29940SOL    HW196425  10.157   2.913  10.067 -0.1324 -0.4595  0.1981
29940SOL    HW296426  10.258   2.939  10.176 -1.4353 -0.3414  1.3907
29941SOL     OW96427   9.748  11.936   8.605 -0.6283 -0.1015 -0.5994
29941SOL    HW196428   9.665  11.955   8.650  0.9442 -0.7605  2.8712
29941SOL    HW296429   9.809  12.002   8.638  0.7131 -0.8042 -1.5973
29942SOL     OW96430   5.684   8.798  12.131 -0.6389 -0.3880  0.2926
29942SOL    HW196431   5.709   8.869  12.071  0.5681 -1.6458 -0.7352
29942SOL    HW296432   5.590   8.785  12.115 -0.5489 -0.0256 -0.5562
29943SOL     OW96433   5.235   4.203   6.040  0.1541  0.5566  0.1393
29943SOL    HW196434   5.217   4.109   6.033 -2.7180  0.8596  1.9718
29943SOL    HW296435   5.292   4.222   5.965 -0.1948 -2.3827 -1.0073
29944SOL     OW96436   8.351   8.401   8.041  0.0957  0.2519 -0.4361
29944SOL    HW196437   8.329   8.474   8.100 -0.8310  0.1306 -0.6179
29944SOL    HW296438   8.352   8.440   7.954 -1.0308 -0.0580 -0.6062
29945SOL     OW96439   8.083   3.715   2.787 -0.6971 -0.1635  0.7920
29945SOL    HW196440   7.993   3.747   2.777 -0.9050 -0.6878  0.9557
29945SOL    HW296441   8.073   3.623   2.814 -0.1138 -0.0638  1.3608
29946SOL     OW96442  11.394   7.166   7.921 -0.5190  0.1334 -0.4454
29946SOL    HW196443  11.464   7.144   7.982 -0.9668 -0.7173 -0.2253
29946SOL    HW296444  11.405   7.104   7.849 -0.5626  0.5251 -0.7963
29947SOL     OW96445   0.752  12.271   7.077 -0.0850 -0.1965 -0.0200
29947SOL    HW196446   0.667  12.308   7.101 -0.5135 -1.5519  0.7050
29947SOL    HW296447   0.777  12.218   7.153  0.4424 -1.4144 -0.9984
29948SOL     OW96448   3.159   8.928  10.777  0.6958 -0.3591  0.1591
29948SOL    HW196449   3.253   8.943  10.767  0.6441  0.0744  0.3076
29948SOL    HW296450   3.150   8.887  10.863  0.8885 -1.7465 -0.4599
29949SOL     OW96451   2.798   6.432  10.206  0.1949 -0.6113 -0.2187
29949SOL    HW196452   2.844   6.496  10.151 -0.3595  0.5312  0.5984
29949SOL    HW296453   2.756   6.485  10.274  0.2772 -1.9253  0.8919
29950SOL     OW96454   1.100   1.428  11.914  0.3386 -0.3660  0.2745
29950SOL    HW196455   1.150   1.362  11.962  1.2864 -0.0006 -0.1635
29950SOL    HW296456   1.128   1.512  11.952 -1.2471 -0.2173  1.1914
29951SOL     OW96457   7.438   5.349   4.228  0.3770  0.1100 -0.1846
29951SOL    HW196458   7.411   5.260   4.207  0.0372 -0.2968  1.7642
29951SOL    HW296459   7.489   5.378   4.152 -0.8363 -1.1470 -1.5342
29952SOL     OW96460   6.500   1.646  10.115  0.2936 -0.2711  0.5793
29952SOL    HW196461   6.580   1.642  10.168 -0.1338  0.3597  1.3026
29952SOL    HW296462   6.518   1.713  10.050  0.7570 -0.9197  0.0296
29953SOL     OW96463   4.941  11.391  10.873 -0.0190 -0.0879 -0.2470
29953SOL    HW196464   5.019  11.379  10.927  0.6807  0.1354 -1.1887
29953SOL    HW296465   4.916  11.482  10.886 -1.6917 -0.7629  2.0666
29954SOL     OW96466   9.085   7.297  11.100 -0.4356 -0.3708  0.5356
29954SOL    HW196467   9.180   7.293  11.101 -0.2932  1.7950 -0.2301
29954SOL    HW296468   9.059   7.229  11.037  0.6375 -0.4348  0.1404
29955SOL     OW96469  10.365   2.083  10.032 -0.5006 -0.0791  0.1696
29955SOL    HW196470  10.352   2.172  10.065 -0.9889 -0.4730  1.0828
29955SOL    HW296471  10.431   2.092   9.963 -0.2198  0.9249  0.5519
29956SOL     OW96472  12.098   0.437   1.217  0.7145  0.2097 -0.7382
29956SOL    HW196473  12.163   0.403   1.279 -0.2241 -1.8130 -0.7829
29956SOL    HW296474  12.014   0.428   1.263  0.3489  2.1731 -0.9284
29957SOL     OW96475   6.935   1.678   5.293  0.0876 -0.3580 -0.5161
29957SOL    HW196476   6.928   1.585   5.271 -0.2778 -0.7545  1.1578
29957SOL    HW296477   7.026   1.688   5.322  0.0669 -0.2288 -0.4984
29958SOL     OW96478  12.452   0.759   5.808 -0.0250 -0.0232 -0.1062
29958SOL    HW196479  12.509   0.810   5.750  1.5043 -1.5815 -0.0472
29958SOL    HW296480  12.369   0.752   5.761  0.0096  1.7033 -0.5097
29959SOL     OW96481   7.208   9.485  11.382 -0.0993 -0.3382 -0.2650
29959SOL    HW196482   7.116   9.480  11.409 -0.2837 -1.0699 -1.0043
29959SOL    HW296483   7.256   9.455  11.459 -0.3562  1.4292  0.6577
29960SOL     OW96484   3.144   0.633   4.976  0.2755  0.7132 -0.6617
29960SOL    HW196485   3.096   0.629   5.059 -0.5768 -0.5705 -1.2006
29960SOL    HW296486   3.106   0.708   4.930 -1.4559 -0.4327 -1.1880
29961SOL     OW96487   8.695   3.410  11.568  0.6647 -0.8196  0.1029
29961SOL    HW196488   8.634   3.341  11.594 -0.4572 -0.3670 -1.2213
29961SOL    HW296489   8.656   3.491  11.599  1.9206 -0.7118  1.5420
29962SOL     OW96490  10.983   6.772   7.935 -0.2518  0.5673  0.2576
29962SOL    HW196491  11.042   6.769   8.011 -1.6971 -3.0305  1.4527
29962SOL    HW296492  10.895   6.780   7.973 -0.9607 -0.5463 -1.0720
29963SOL     OW96493   6.590   7.607   6.159 -0.5847  0.4436 -0.4738
29963SOL    HW196494   6.523   7.673   6.176 -1.6465 -1.2005  2.4699
29963SOL    HW296495   6.543   7.532   6.123  0.0862  0.1790 -0.8322
29964SOL     OW96496   3.266  12.378   2.639 -0.4477 -0.3740  0.1560
29964SOL    HW196497   3.354  12.347   2.616 -1.2272 -3.5264  0.9718
29964SOL    HW296498   3.225  12.398   2.555  0.3755 -0.9415 -0.4013
29965SOL     OW96499   2.250   6.822   5.219 -0.5893  0.0910 -0.3124
29965SOL    HW196500   2.189   6.788   5.154  0.1298 -0.8673 -0.5130
29965SOL    HW296501   2.196   6.846   5.294 -1.3462  0.5470 -0.9883
29966SOL     OW96502   1.119   3.829   3.967  0.0947 -0.4746  0.2049
29966SOL    HW196503   1.211   3.833   3.938  0.4409  0.3175  1.3283
29966SOL    HW296504   1.106   3.910   4.015 -1.1118 -0.7373  0.3505
29967SOL     OW96505   1.989  10.370   5.744  0.0911 -0.2188 -0.2072
29967SOL    HW196506   1.957  10.451   5.784  1.2285  0.6058 -0.9041
29967SOL    HW296507   2.065  10.346   5.797  0.6444  0.0041 -0.8781
29968SOL     OW96508  12.511   5.003   2.590 -0.2328 -0.4829  0.0574
29968SOL    HW196509  12.442   4.994   2.655  0.0515  1.2473  0.6539
29968SOL    HW296510  12.557   4.919   2.591 -0.1051 -0.4327  2.2654
29969SOL     OW96511   3.112   1.906   7.659 -0.0818  0.8338  0.2865
29969SOL    HW196512   3.097   1.950   7.576  0.8039  0.7639  0.0820
29969SOL    HW296513   3.103   1.812   7.639 -1.4212  0.8675  0.6087
29970SOL     OW96514   9.326  10.131  10.141 -0.4435 -0.3197  0.5625
29970SOL    HW196515   9.367  10.165  10.062  2.7563 -2.4731  1.1097
29970SOL    HW296516   9.336  10.202  10.205 -2.5334  1.2075 -0.6622
29971SOL     OW96517  12.007   9.970  11.140 -0.1363  0.0252  0.2051
29971SOL    HW196518  11.995   9.994  11.232  3.8339  0.1315  0.8791
29971SOL    HW296519  12.067   9.896  11.142 -0.0700 -0.0766 -2.3224
29972SOL     OW96520   8.325   2.949  10.536 -0.1638 -0.0941  0.3361
29972SOL    HW196521   8.391   2.981  10.474 -0.3172  0.8736  0.6424
29972SOL    HW296522   8.251   3.010  10.524 -0.9820 -1.1175  0.0400
29973SOL     OW96523   7.306  11.401   1.214 -0.2288 -0.1858  0.1556
29973SOL    HW196524   7.353  11.329   1.257 -0.3444 -1.2592 -1.4552
29973SOL    HW296525   7.355  11.418   1.134 -2.1939 -0.9053 -1.2622
29974SOL     OW96526   5.917   3.311   5.948  0.4289 -0.3120 -0.2264
29974SOL    HW196527   6.011   3.326   5.937  0.1465  0.0548 -2.9818
29974SOL    HW296528   5.900   3.229   5.901 -0.7312 -0.0061 -0.3874
29975SOL     OW96529  11.509   6.830  10.134  0.6263 -0.4521 -0.2193
29975SOL    HW196530  11.516   6.776  10.213  2.6419 -2.4181 -1.5787
29975SOL    HW296531  11.548   6.775  10.066 -1.9117  0.7477 -2.8234
29976SOL     OW96532   2.693   4.483   9.025 -0.0092  0.0369 -0.6645
29976SOL    HW196533   2.612   4.443   8.993 -0.4873  0.1567  0.3597
29976SOL    HW296534   2.746   4.497   8.946 -1.1420  0.3185 -1.3950
29977SOL     OW96535   5.397   4.407  10.844 -0.5233 -0.2338 -0.1077
29977SOL    HW196536   5.370   4.348  10.774  0.5237 -2.0286  0.9355
29977SOL    HW296537   5.390   4.356  10.924  2.1792  0.3706  0.6395
29978SOL     OW96538   7.755   5.306   4.919  0.5487 -0.0008  0.5385
29978SOL    HW196539   7.812   5.313   4.843 -0.8817  0.6950 -0.5220
29978SOL    HW296540   7.672   5.273   4.884  0.1491 -0.6219  1.9678
29979SOL     OW96541   5.299   4.871   5.115  0.2304  0.2474  0.7623
29979SOL    HW196542   5.359   4.926   5.063 -0.2285 -0.5141 -0.6332
29979SOL    HW296543   5.356   4.816   5.167  0.7072  1.3483  1.4359
29980SOL     OW96544   2.282   6.564   1.610  0.3110 -0.7169 -0.2865
29980SOL    HW196545   2.274   6.605   1.696 -1.9371  1.3398 -1.3666
29980SOL    HW296546   2.371   6.527   1.609  0.6014 -0.2997  2.6531
29981SOL     OW96547   2.758   5.342   1.643  0.0988 -0.5565 -0.0032
29981SOL    HW196548   2.850   5.358   1.626  0.0497  0.4429  0.5871
29981SOL    HW296549   2.718   5.429   1.641 -0.6226 -0.8522  0.9071
29982SOL     OW96550   8.920   1.832   5.404 -0.1506  0.3748  0.5606
29982SOL    HW196551   8.954   1.789   5.482  0.7090 -0.1991 -0.1117
29982SOL    HW296552   8.839   1.874   5.433 -0.5307 -0.9114  1.4580
29983SOL     OW96553   4.580   3.322  12.566  0.2648  0.0352  0.0606
29983SOL    HW196554   4.657   3.326  12.624 -0.2045 -1.9439  0.9050
29983SOL    HW296555   4.614   3.282  12.485 -0.2005 -3.0968  1.2562
29984SOL     OW96556   9.318   4.572   1.371  0.0386  0.4995 -0.4245
29984SOL    HW196557   9.297   4.632   1.442 -0.6834 -0.9607  0.6533
29984SOL    HW296558   9.380   4.510   1.410 -1.2291 -0.9957 -0.7017
29985SOL     OW96559   3.958   1.036   1.844  0.2355  0.4401 -0.3486
29985SOL    HW196560   3.916   1.063   1.762 -0.6984 -0.6799 -0.2620
29985SOL    HW296561   3.966   1.117   1.894  0.5977  1.0992 -1.4475
29986SOL     OW96562   2.006   2.841   5.734  0.4162 -0.1066 -0.1844
29986SOL    HW196563   1.948   2.881   5.669  0.9848 -0.8804 -1.1984
29986SOL    HW296564   2.085   2.818   5.685  0.7736 -0.9059  0.7339
29987SOL     OW96565  11.020   2.941  10.619  0.7340 -0.1069  0.1006
29987SOL    HW196566  11.081   3.013  10.635  0.4597  0.6048 -1.8185
29987SOL    HW296567  11.041   2.911  10.531  0.5109 -2.0965  0.6647
29988SOL     OW96568   9.440  10.989   2.072 -0.7781 -0.1599  0.1934
29988SOL    HW196569   9.426  11.073   2.116 -1.3576 -0.1601  0.0222
29988SOL    HW296570   9.531  10.990   2.044 -0.6494  0.2044  0.6302
29989SOL     OW96571  10.214  10.242   7.165 -0.6298 -0.3733  0.0851
29989SOL    HW196572  10.245  10.156   7.194 -0.3773  0.0503  1.1131
29989SOL    HW296573  10.124  10.247   7.197 -0.8680 -0.5141 -0.5506
29990SOL     OW96574   6.250   3.055   6.758  0.2691 -0.3902  0.0385
29990SOL    HW196575   6.226   3.032   6.848 -0.6079  0.6327  0.0754
29990SOL    HW296576   6.239   2.973   6.709  0.0126 -0.7652  0.7066
29991SOL     OW96577   3.825   4.336   7.020  0.5638  0.1686 -0.8143
29991SOL    HW196578   3.905   4.288   7.044  0.6021  0.6927  0.1602
29991SOL    HW296579   3.843   4.426   7.045 -1.2790 -0.1000  1.9207
29992SOL     OW96580   8.131   6.909   4.174  0.1932 -0.3759 -0.2002
29992SOL    HW196581   8.092   6.995   4.189  0.2857 -0.5280  1.0107
29992SOL    HW296582   8.062   6.847   4.198  0.1148 -0.6447 -1.1007
29993SOL     OW96583   4.746   9.689   9.157  0.2096  0.1797  0.1725
29993SOL    HW196584   4.800   9.764   9.134  0.2557  0.6101  1.6310
29993SOL    HW296585   4.694   9.717   9.232 -0.6243 -0.8708  0.0271
29994SOL     OW96586   1.261   9.817   5.354  0.1898 -0.0803 -0.9287
29994SOL    HW196587   1.195   9.766   5.401 -0.5660  3.5969  2.4976
29994SOL    HW296588   1.215   9.848   5.276 -1.7460  1.0955  0.5863
29995SOL     OW96589  10.947  12.529   0.309  0.4628  0.2865 -0.9931
29995SOL    HW196590  11.002  12.553   0.234 -0.3215 -0.9577 -2.0029
29995SOL    HW296591  10.860  12.517   0.272 -0.8160  3.1720  0.7346
29996SOL     OW96592   4.797  12.658   2.047  0.3158 -0.3726  0.0282
29996SOL    HW196593   4.861  12.701   1.990 -1.5278  2.0080 -0.4204
29996SOL    HW296594   4.716  12.659   1.997 -0.6804 -0.8870  1.5666
29997SOL     OW96595   5.721   8.408   5.889 -0.2008  0.2037  0.1678
29997SOL    HW196596   5.731   8.316   5.913 -0.1300  0.4379  1.0799
29997SOL    HW296597   5.775   8.455   5.953  1.2679  0.7634 -1.3988
29998SOL     OW96598  11.303  11.830   5.872  0.4527 -0.0674 -0.4826
29998SOL    HW196599  11.320  11.919   5.903 -2.4302  0.1635  0.7073
29998SOL    HW296600  11.251  11.842   5.793 -1.1821 -0.6210  0.4621
29999SOL     OW96601   1.042  11.948   1.124  0.1450  0.1657 -0.3374
29999SOL    HW196602   1.057  12.030   1.172  1.9648  1.0481 -2.2222
29999SOL    HW296603   1.072  11.880   1.184  0.6242  1.0712  0.4859
30000SOL     OW96604  12.433   4.214   8.959  0.4627 -0.3715 -0.0078
30000SOL    HW196605  12.499   4.237   8.894 -0.7557 -1.4089 -1.6752
30000SOL    HW296606  12.358   4.269   8.938  0.1019 -0.5910  0.6503
30001SOL     OW96607  12.051  12.038   6.153 -0.4259 -0.1168 -0.2101
30001SOL    HW196608  12.045  11.985   6.073  0.7312  0.4504 -0.6944
30001SOL    HW296609  12.117  11.993   6.206 -0.4998  0.0385  0.0112
30002SOL     OW96610   5.623   8.179   1.120 -0.1250 -0.0154 -0.1153
30002SOL    HW196611   5.717   8.174   1.101 -0.1937  1.6153 -1.0680
30002SOL    HW296612   5.608   8.110   1.185  1.1609 -2.2870 -2.0774
30003SOL     OW96613   3.286   2.124   1.902 -0.1212  0.3484 -0.0107
30003SOL    HW196614   3.229   2.070   1.957 -0.3162  1.8072  1.2798
30003SOL    HW296615   3.371   2.080   1.905 -0.3546 -0.0744  0.7322
30004SOL     OW96616   2.166   4.994   2.695 -0.1178 -0.2427 -0.0543
30004SOL    HW196617   2.172   4.956   2.608 -2.0766  0.9280 -0.7533
30004SOL    HW296618   2.221   5.072   2.692 -2.0283  1.1513 -1.0864
30005SOL     OW96619  10.045   5.222   7.474  0.4531  0.6147  0.2743
30005SOL    HW196620   9.999   5.297   7.512  0.8373  1.2482 -0.4745
30005SOL    HW296621  10.089   5.181   7.548  1.9526  2.3618  0.4212
30006SOL     OW96622  10.614   5.525   7.378  0.1890  0.1338  0.9007
30006SOL    HW196623  10.656   5.505   7.461 -0.9296 -1.7128  1.0869
30006SOL    HW296624  10.522   5.540   7.401 -0.9592 -3.8940 -0.2162
30007SOL     OW96625  12.477   9.300  11.138  0.0443 -0.5402 -0.6194
30007SOL    HW196626  12.527   9.381  11.140  0.1511 -0.6182  0.0771
30007SOL    HW296627  12.395   9.321  11.184  1.0346 -1.4393  1.7064
30008SOL     OW96628   2.519  11.044  12.307  0.4186 -0.2232  0.0754
30008SOL    HW196629   2.574  11.050  12.385 -1.1165 -0.0303  1.1717
30008SOL    HW296630   2.574  11.080  12.237  1.2080  1.2055  1.3682
30009SOL     OW96631   1.348   0.893  12.390 -0.1323 -0.5895 -0.3966
30009SOL    HW196632   1.365   0.835  12.464 -2.3550 -0.1188  0.5604
30009SOL    HW296633   1.431   0.895  12.342  1.3732 -0.9957  1.9993
30010SOL     OW96634   3.472   8.144   6.932  0.6355 -0.1773  0.5432
30010SOL    HW196635   3.482   8.066   6.987 -0.0247 -1.0193 -0.5049
30010SOL    HW296636   3.553   8.149   6.882  0.2247 -0.8396 -0.1961
30011SOL     OW96637   9.189   4.849   4.548 -0.3315  0.8604  0.4428
30011SOL    HW196638   9.176   4.884   4.460 -1.0036  1.0397  0.6092
30011SOL    HW296639   9.193   4.755   4.537  0.1935  0.9145  0.1474
30012SOL     OW96640   0.051  11.628   7.691 -0.1838 -0.6576 -0.5141
30012SOL    HW196641   0.020  11.591   7.774  0.8732 -1.4224 -0.4368
30012SOL    HW296642   0.079  11.717   7.713  1.8816 -1.4732  0.4086
30013SOL     OW96643  12.774   2.084   7.924  0.1606 -0.1705 -0.4711
30013SOL    HW196644  12.712   2.059   7.992  1.0822 -0.0592  0.4385
30013SOL    HW296645  12.762   2.178   7.913 -0.6753 -0.3486 -1.1872
30014SOL     OW96646  11.982   8.336   5.226 -0.0096  0.0496  0.3392
30014SOL    HW196647  12.002   8.300   5.139  0.6626  0.2092  0.4181
30014SOL    HW296648  11.999   8.264   5.286  0.8246  0.3173  0.4483
30015SOL     OW96649  11.362   4.193   8.579  0.3543  0.2842 -0.7527
30015SOL    HW196650  11.345   4.126   8.513  2.2936 -1.3476  0.2752
30015SOL    HW296651  11.442   4.163   8.623 -1.1863  0.8616  2.8010
30016SOL     OW96652   8.854   6.596  11.441  0.1361  0.1211 -0.7739
30016SOL    HW196653   8.841   6.678  11.394  1.6446 -0.9812 -3.2922
30016SOL    HW296654   8.789   6.537  11.404  0.0849 -0.2651 -0.0865
30017SOL     OW96655   9.839  11.361  12.579 -0.3425  0.3746 -0.2571
30017SOL    HW196656   9.910  11.423  12.595  1.7598 -2.1289  0.9582
30017SOL    HW296657   9.856  11.327  12.491  1.4200 -1.7606  0.7927
30018SOL     OW96658   4.409   5.979   1.599 -0.0061 -0.1219 -0.1716
30018SOL    HW196659   4.458   6.055   1.569  1.9219 -2.0625 -2.3835
30018SOL    HW296660   4.320   5.993   1.567  0.3797  1.0689 -0.7773
30019SOL     OW96661   4.825   3.215   4.555  0.0553 -0.3166  0.4574
30019SOL    HW196662   4.819   3.289   4.494 -0.6489 -1.3162 -0.7339
30019SOL    HW296663   4.738   3.210   4.596 -0.2927 -1.1982 -0.3548
30020SOL     OW96664   2.125   1.865   9.816  0.1615 -0.4070  0.0956
30020SOL    HW196665   2.161   1.947   9.782 -0.9427  0.6426  1.3342
30020SOL    HW296666   2.031   1.870   9.797  0.0713 -1.3717  0.2339
30021SOL     OW96667  12.262   5.186  12.457  0.1842 -0.2716 -0.1534
30021SOL    HW196668  12.170   5.213  12.463  0.0672 -0.2380 -1.7357
30021SOL    HW296669  12.285   5.160  12.546 -0.5273  2.3489  0.9164
30022SOL     OW96670  12.337  12.627   9.498  0.1049  0.3891 -0.3648
30022SOL    HW196671  12.352  12.550   9.444  1.5464  0.8393 -0.6689
30022SOL    HW296672  12.412  12.684   9.480 -0.4684  1.4791  0.5102
30023SOL     OW96673   5.422   4.436  10.073  0.1169  0.3448  0.4891
30023SOL    HW196674   5.353   4.372  10.055  0.0679  0.2765  0.9199
30023SOL    HW296675   5.503   4.386  10.066  0.1325  0.4373 -0.0730
30024SOL     OW96676   0.445   2.105   6.436 -0.2742 -0.1829  0.6943
30024SOL    HW196677   0.430   2.192   6.401 -2.0494 -0.9587 -0.6094
30024SOL    HW296678   0.428   2.113   6.530 -0.7316  0.7836  0.5304
30025SOL     OW96679   3.742   1.451   6.145  0.0288  0.8973 -0.0540
30025SOL    HW196680   3.757   1.418   6.233 -0.3706  0.0262 -0.3049
30025SOL    HW296681   3.819   1.505   6.127 -0.4528  2.0922  1.2816
30026SOL     OW96682  12.592   1.611   6.670  0.0387 -0.1447 -0.5656
30026SOL    HW196683  12.504   1.624   6.705 -1.1413 -2.6996 -2.2979
30026SOL    HW296684  12.583   1.623   6.575  2.1518  2.0181 -0.5999
30027SOL     OW96685   8.697   6.761   9.326 -0.2318  0.0818  0.0421
30027SOL    HW196686   8.603   6.780   9.322 -0.4594 -0.8021  0.6788
30027SOL    HW296687   8.720   6.776   9.418 -0.0113 -0.8130  0.1398
30028SOL     OW96688   1.319   1.488   1.533 -0.1818 -0.2550 -0.1843
30028SOL    HW196689   1.327   1.583   1.533 -1.8067 -0.0631  0.8034
30028SOL    HW296690   1.365   1.459   1.454  0.7939  1.2893 -0.2211
30029SOL     OW96691   6.842   9.327   8.221 -0.1369  0.1654  0.1286
30029SOL    HW196692   6.825   9.420   8.229 -0.2665  0.0193  2.1982
30029SOL    HW296693   6.935   9.317   8.244  0.3080 -0.0749 -1.6370
30030SOL     OW96694   2.713   5.316   1.988  0.0572 -0.2168 -0.1873
30030SOL    HW196695   2.657   5.355   2.056 -0.2046 -1.1748  0.1592
30030SOL    HW296696   2.768   5.389   1.958 -1.0332  0.6360 -0.1988
30031SOL     OW96697   6.306   0.883   8.999 -0.1118 -0.8650  0.8181
30031SOL    HW196698   6.236   0.890   9.064 -0.1641 -0.0067  0.6777
30031SOL    HW296699   6.262   0.902   8.916  0.0034 -1.7189  0.5556
30032SOL     OW96700  12.759   9.788   7.589  0.5457 -0.3174 -0.3299
30032SOL    HW196701  12.784   9.876   7.618  2.4432 -0.3792 -1.6152
30032SOL    HW296702  12.693   9.802   7.521 -1.2362 -0.0494  1.3721
30033SOL     OW96703   0.366   2.221   4.620 -0.3469  0.7573 -0.2787
30033SOL    HW196704   0.428   2.241   4.550 -2.2245 -1.3229 -2.7293
30033SOL    HW296705   0.343   2.307   4.656  1.0827  1.8674 -1.8345
30034SOL     OW96706   9.663   1.834   2.431 -0.1185  0.1938 -0.2022
30034SOL    HW196707   9.582   1.819   2.382 -0.8861  2.6104  0.1864
30034SOL    HW296708   9.665   1.928   2.447  1.9357 -0.0131  1.2874
30035SOL     OW96709   1.650   1.432   7.058 -0.3502 -0.1137 -0.4105
30035SOL    HW196710   1.690   1.389   6.983 -2.1185  1.4054 -2.3549
30035SOL    HW296711   1.715   1.496   7.086  0.0886 -0.2474 -1.0892
30036SOL     OW96712   7.562   0.379  12.027  0.5518 -0.3971  0.5089
30036SOL    HW196713   7.583   0.347  11.940 -0.0132 -1.5963  0.7868
30036SOL    HW296714   7.494   0.320  12.059 -0.8100  1.3082  0.9420
30037SOL     OW96715   9.387   6.893   7.083 -0.0944  0.4915  0.3781
30037SOL    HW196716   9.303   6.851   7.098  0.7304 -2.2603 -1.7208
30037SOL    HW296717   9.368   6.968   7.027 -1.2286  0.3699  0.5934
30038SOL     OW96718   0.772   2.210  11.253  0.4298 -0.2421  0.5598
30038SOL    HW196719   0.811   2.240  11.336 -0.3924  0.7684  0.6005
30038SOL    HW296720   0.789   2.281  11.192  2.1109 -1.4989 -0.5102
30039SOL     OW96721  10.106   4.353   0.837  0.1878  0.3373  0.2347
30039SOL    HW196722  10.082   4.340   0.745 -0.9000  0.7575  0.4478
30039SOL    HW296723  10.074   4.440   0.858 -0.0492  0.0320  1.1676
30040SOL     OW96724   4.413  12.587   8.304 -0.0464  0.1662 -0.5040
30040SOL    HW196725   4.480  12.653   8.284 -1.8998  2.7555  1.0816
30040SOL    HW296726   4.334  12.620   8.262 -1.5058  0.1467  2.0020
30041SOL     OW96727   6.099   2.326  12.303  0.9928 -0.0793 -0.2136
30041SOL    HW196728   6.135   2.412  12.281 -0.8058  0.3434 -1.8538
30041SOL    HW296729   6.118   2.272  12.226  0.2036 -0.4955 -0.1318
30042SOL     OW96730  10.509   1.315   6.226 -0.1533  0.8814  0.0414
30042SOL    HW196731  10.506   1.327   6.321  0.9307 -0.4771  0.2865
30042SOL    HW296732  10.461   1.233   6.211  0.8937  0.3245 -0.3940
30043SOL     OW96733   6.293  10.644   3.419  0.4343 -0.6340  0.0684
30043SOL    HW196734   6.266  10.570   3.365 -0.2877 -0.8354  0.6900
30043SOL    HW296735   6.355  10.607   3.482 -0.4488 -0.8521  0.8168
30044SOL     OW96736  10.410   8.784   7.398  0.0257 -0.0392 -0.3928
30044SOL    HW196737  10.357   8.706   7.380 -1.2805  1.0840 -1.6686
30044SOL    HW296738  10.455   8.765   7.480 -0.6595 -1.9182 -0.4198
30045SOL     OW96739  12.440   0.125   3.235  0.2912 -0.3603 -0.0622
30045SOL    HW196740  12.379   0.189   3.273  0.7994  0.9351 -1.3302
30045SOL    HW296741  12.406   0.110   3.146 -0.0898 -2.2588  0.3601
30046SOL     OW96742   6.658   4.031  10.574  0.2272  0.5130  0.7370
30046SOL    HW196743   6.711   4.059  10.649  1.7224 -1.0217  0.3194
30046SOL    HW296744   6.692   4.082  10.500  0.1034  0.6189  0.7550
30047SOL     OW96745  11.418   9.864   0.966 -0.2046 -0.0383  0.6026
30047SOL    HW196746  11.420   9.907   0.880 -2.6832  0.5321  0.7468
30047SOL    HW296747  11.403   9.772   0.946 -1.8934  0.2497  0.3854
30048SOL     OW96748   7.507   9.710   6.206 -0.7624 -0.2046 -0.4014
30048SOL    HW196749   7.431   9.740   6.256 -1.4832  2.1289 -2.6782
30048SOL    HW296750   7.580   9.716   6.268 -1.8831  0.8818  0.8968
30049SOL     OW96751   6.228  12.629   8.722  0.2589 -0.2824  0.2194
30049SOL    HW196752   6.248  12.538   8.744  1.2823 -0.0177  0.4810
30049SOL    HW296753   6.145  12.648   8.765 -0.2232 -1.2382 -0.2633
30050SOL     OW96754   4.003   4.050   3.257  0.4065 -0.1951  0.0520
30050SOL    HW196755   3.927   4.002   3.291  0.4316  0.6429  1.3995
30050SOL    HW296756   4.004   4.031   3.164 -0.5563 -1.4510  0.2691
30051SOL     OW96757  12.745   2.296  12.113  0.8717  0.3399 -0.1028
30051SOL    HW196758  12.747   2.201  12.124  0.2602  0.2858 -0.4016
30051SOL    HW296759  12.689   2.328  12.184  0.0335  0.3484 -0.7526
30052SOL     OW96760   6.913   0.953   8.713  0.0226 -0.0042  0.2727
30052SOL    HW196761   6.993   0.995   8.683  0.1873 -1.3389 -1.3246
30052SOL    HW296762   6.923   0.948   8.809  1.5280  0.4536  0.1669
30053SOL     OW96763   5.524   4.549   6.860  0.4078  0.2166  0.1111
30053SOL    HW196764   5.446   4.494   6.853  0.8005 -0.3922  0.4368
30053SOL    HW296765   5.589   4.506   6.804 -0.1767  1.9946 -2.0786
30054SOL     OW96766   8.308   9.477   9.200  0.0280  0.1546 -0.0733
30054SOL    HW196767   8.387   9.462   9.252 -0.3539 -0.4890  0.3258
30054SOL    HW296768   8.288   9.570   9.213  2.8170  1.3979 -3.1038
30055SOL     OW96769   4.597  12.208   4.323 -0.0350 -0.4731 -0.5593
30055SOL    HW196770   4.600  12.301   4.345 -2.5462 -0.4781  0.1339
30055SOL    HW296771   4.683  12.174   4.349  0.3937  1.3630  0.5946
30056SOL     OW96772   3.919   0.175   3.625 -0.4335  0.1897  0.2457
30056SOL    HW196773   4.013   0.190   3.629 -0.1452 -0.6639 -1.8648
30056SOL    HW296774   3.902   0.108   3.691  0.1608  1.4078  1.6766
30057SOL     OW96775   6.964  10.735   6.925 -0.1338 -0.3560  0.2284
30057SOL    HW196776   6.913  10.800   6.878 -0.5164 -2.2243 -2.1422
30057SOL    HW296777   7.033  10.785   6.970 -1.7086  1.8222  0.3484
30058SOL     OW96778  11.512   8.725  11.559 -0.0657  0.5664  0.3957
30058SOL    HW196779  11.444   8.710  11.494 -0.3561  2.7313  0.1251
30058SOL    HW296780  11.575   8.782  11.516  1.2198 -0.2486  1.1166
30059SOL     OW96781  11.737  10.830  11.338 -0.2284 -0.0883  0.2159
30059SOL    HW196782  11.737  10.774  11.415 -0.4824  0.0115  0.2882
30059SOL    HW296783  11.769  10.915  11.370 -2.8149  0.7468  0.7938
30060SOL     OW96784   6.662   9.813   6.258  0.2586  0.3595 -0.1325
30060SOL    HW196785   6.649   9.766   6.340 -2.0536 -0.2109 -0.7552
30060SOL    HW296786   6.590   9.876   6.254  1.2079  1.4425 -1.0304
30061SOL     OW96787   3.358  12.601   9.504  0.2611 -0.0567  0.0701
30061SOL    HW196788   3.429  12.655   9.540 -0.5676  0.2328  1.3217
30061SOL    HW296789   3.331  12.647   9.425 -0.4370  1.4205  1.1183
30062SOL     OW96790   0.473   2.445   1.645 -0.4410  0.2692  0.1584
30062SOL    HW196791   0.442   2.360   1.677 -1.2202  0.0195 -1.1701
30062SOL    HW296792   0.394   2.497   1.636 -0.2950  0.2585 -1.4854
30063SOL     OW96793   3.905   1.591  11.685  0.2926 -0.0158 -0.3337
30063SOL    HW196794   3.952   1.621  11.763  0.7104 -1.7322  0.1327
30063SOL    HW296795   3.813   1.593  11.710  0.4164 -0.4650  0.2107
30064SOL     OW96796   0.700   6.506   3.933 -0.3872  0.6631  0.0472
30064SOL    HW196797   0.712   6.415   3.962 -0.8497  0.0131 -1.7195
30064SOL    HW296798   0.755   6.514   3.855 -0.4758  1.8653  0.0882
30065SOL     OW96799  12.710   6.475   0.864  0.1316  0.7387 -0.0840
30065SOL    HW196800  12.768   6.528   0.809 -0.6678  2.7501  0.9187
30065SOL    HW296801  12.644   6.537   0.895 -0.0981 -0.5637  2.2208
30066SOL     OW96802   3.443   0.856  11.643 -0.2856  0.6633  0.0314
30066SOL    HW196803   3.426   0.768  11.609 -1.3896  1.3429 -1.2776
30066SOL    HW296804   3.385   0.912  11.593 -0.4906  2.0028  1.6836
30067SOL     OW96805   7.000   9.845   7.823  0.0382  0.3312  0.4363
30067SOL    HW196806   6.940   9.918   7.805  3.3716  3.0154 -0.9630
30067SOL    HW296807   7.025   9.858   7.915  2.1789  2.4177 -0.3436
30068SOL     OW96808   6.575   0.334   4.186  0.5710 -0.5811 -0.0248
30068SOL    HW196809   6.490   0.297   4.161 -0.2519  0.3948  1.2457
30068SOL    HW296810   6.611   0.367   4.104 -0.6419 -0.2949 -0.4744
30069SOL     OW96811   2.775   7.748   8.431 -0.5426 -0.7403  0.4173
30069SOL    HW196812   2.695   7.801   8.433  0.1848  0.3689  0.4973
30069SOL    HW296813   2.813   7.758   8.518 -0.8968 -2.2300  0.7835
30070SOL     OW96814   9.348   5.151   8.717  0.6678 -0.1021  0.0216
30070SOL    HW196815   9.421   5.133   8.777  0.9446  1.0893  0.0674
30070SOL    HW296816   9.326   5.243   8.733 -1.3854 -0.6362  0.5741
30071SOL     OW96817   0.243   5.580   0.118  0.5752  0.3269 -0.3487
30071SOL    HW196818   0.316   5.531   0.080  1.0553  1.2356 -0.6324
30071SOL    HW296819   0.176   5.581   0.050  1.0805  1.1679 -0.8610
30072SOL     OW96820   4.526   7.699   5.616  0.0587  0.2559 -0.5498
30072SOL    HW196821   4.442   7.665   5.585 -0.4059  1.2803 -0.4563
30072SOL    HW296822   4.589   7.630   5.596 -1.1007 -1.4136  1.1676
30073SOL     OW96823   3.748   5.028  11.000  0.4706  0.1594  0.6034
30073SOL    HW196824   3.742   5.020  11.095 -1.6385 -0.9409  0.4320
30073SOL    HW296825   3.717   4.943  10.967  1.0682  0.5555 -1.0778
30074SOL     OW96826   0.091   5.641  11.289 -0.1034 -0.1853 -0.5319
30074SOL    HW196827   0.059   5.606  11.372 -0.2953 -0.2416 -0.6299
30074SOL    HW296828   0.186   5.633  11.295 -0.1774 -3.0661 -1.5381
30075SOL     OW96829   8.191   1.922  11.247  0.4094  0.1509 -0.0948
30075SOL    HW196830   8.115   1.868  11.223  0.3620  0.5946 -1.0026
30075SOL    HW296831   8.198   1.986  11.176  0.0340  1.8113  1.2815
30076SOL     OW96832   3.323  12.600   6.024 -0.3585 -0.1228 -0.6633
30076SOL    HW196833   3.326  12.551   5.941  0.1978 -2.3364  0.5853
30076SOL    HW296834   3.231  12.621   6.036 -0.7140 -1.3815 -0.9862
30077SOL     OW96835   6.331   0.052   9.765 -0.5661 -0.1255 -0.5036
30077SOL    HW196836   6.256   0.109   9.776  0.2838  1.2861 -1.6279
30077SOL    HW296837   6.405   0.112   9.754  0.7536 -1.4604  0.6631
30078SOL     OW96838   9.586   7.101   8.441 -0.7498 -0.4602  0.5524
30078SOL    HW196839   9.531   7.066   8.371 -1.3284  0.9859  0.2675
30078SOL    HW296840   9.590   7.030   8.506 -0.0129 -1.9146 -1.0050
30079SOL     OW96841  11.439   2.878  11.298 -0.4043  0.3587 -0.5750
30079SOL    HW196842  11.446   2.925  11.215 -2.0325 -1.0701 -1.5868
30079SOL    HW296843  11.346   2.884  11.322 -0.3045 -0.7828  0.2024
30080SOL     OW96844   8.992   2.122   9.868 -0.0017  0.4093  0.8134
30080SOL    HW196845   8.971   2.132   9.775  0.3682 -0.2299  0.6589
30080SOL    HW296846   9.009   2.212   9.898 -0.0487  0.6123  0.2481
30081SOL     OW96847  12.098  10.065   6.503  0.6786 -0.1464 -0.1923
30081SOL    HW196848  12.044  10.050   6.425  1.0725  1.3647 -0.7764
30081SOL    HW296849  12.049  10.023   6.574 -0.0029 -0.9937 -1.1359
30082SOL     OW96850   9.920   9.232   3.210  0.3191 -0.1312  0.3730
30082SOL    HW196851   9.949   9.318   3.240 -0.4431  0.0660  0.5826
30082SOL    HW296852   9.903   9.244   3.117  1.2312 -0.3430  0.1700
30083SOL     OW96853   6.763  10.543   0.496  0.1313  0.0228 -0.0690
30083SOL    HW196854   6.719  10.622   0.465 -1.5943 -0.7682  0.2798
30083SOL    HW296855   6.804  10.569   0.579 -0.2916  0.5868 -0.0331
30084SOL     OW96856   7.724   4.079   1.365  0.0276 -0.1881 -0.1116
30084SOL    HW196857   7.713   4.143   1.294  1.8039  1.0897  0.6873
30084SOL    HW296858   7.702   3.995   1.324  3.8660  0.0233 -3.1862
30085SOL     OW96859  11.203   1.127   9.352 -0.6977 -0.5955  0.1471
30085SOL    HW196860  11.193   1.068   9.426  0.5459  0.5666  1.3084
30085SOL    HW296861  11.275   1.185   9.377 -0.8664  0.4403 -1.5755
30086SOL     OW96862   2.113  10.466   4.041 -0.4344 -0.1275  0.2310
30086SOL    HW196863   2.104  10.514   3.959  0.2944 -1.2311 -0.5353
30086SOL    HW296864   2.206  10.445   4.046 -0.6660 -1.1078  0.7283
30087SOL     OW96865  12.279  10.690   5.722  0.3561  0.4575 -0.0985
30087SOL    HW196866  12.325  10.738   5.790  0.7244  0.5296 -0.3929
30087SOL    HW296867  12.319  10.720   5.640  0.8894 -0.6407 -0.2698
30088SOL     OW96868  11.752  11.661   7.389 -0.4042  0.2993 -0.3845
30088SOL    HW196869  11.721  11.586   7.338 -0.6042 -0.8499  1.3394
30088SOL    HW296870  11.845  11.667   7.368 -0.1948 -0.9962  0.0868
30089SOL     OW96871   9.238   0.221  10.657  0.0739  0.1471 -0.5731
30089SOL    HW196872   9.324   0.257  10.678 -0.0338  0.0668  0.0244
30089SOL    HW296873   9.186   0.235  10.736  0.3169 -2.2234  0.0755
30090SOL     OW96874   3.753   2.503   9.764  0.2410 -0.0827 -0.2209
30090SOL    HW196875   3.743   2.515   9.669  0.7339  2.4142 -0.0108
30090SOL    HW296876   3.709   2.420   9.782  1.3518 -1.3416 -2.8250
30091SOL     OW96877   7.226  10.620   2.227  0.0675 -0.2457  0.1273
30091SOL    HW196878   7.261  10.690   2.281 -0.9312 -0.2929  0.8776
30091SOL    HW296879   7.143  10.654   2.194  0.4539 -0.3892 -1.0273
30092SOL     OW96880   1.869   9.780   4.719  0.7514  0.5910  0.3446
30092SOL    HW196881   1.896   9.860   4.765  1.9233  0.1874  0.3871
30092SOL    HW296882   1.874   9.712   4.786 -0.3407  0.4747  0.3321
30093SOL     OW96883   1.829  10.988   6.711 -0.0751 -0.6512  0.0141
30093SOL    HW196884   1.897  11.053   6.729 -0.1942 -0.4736 -0.1655
30093SOL    HW296885   1.875  10.904   6.712  0.5154 -0.4122 -1.8672
30094SOL     OW96886   3.344   0.033   2.178 -0.2064 -0.6412 -0.1840
30094SOL    HW196887   3.320   0.075   2.096  1.2332  0.9503  0.1591
30094SOL    HW296888   3.331   0.100   2.245  2.1832 -0.6467  0.3820
30095SOL     OW96889   6.547  11.160  10.425 -0.3731  0.0996  0.5139
30095SOL    HW196890   6.569  11.228  10.489 -0.3143  0.5521  0.0218
30095SOL    HW296891   6.614  11.169  10.357  0.4779 -1.3755  1.1169
30096SOL     OW96892   8.609   2.208  12.350 -0.6804 -0.7882 -0.2757
30096SOL    HW196893   8.550   2.267  12.396  0.6909  1.6263 -1.4444
30096SOL    HW296894   8.670   2.178  12.417 -0.0344  0.9422 -0.0432
30097SOL     OW96895  11.802   2.035   5.009  0.2921  0.1536 -0.3816
30097SOL    HW196896  11.895   2.047   4.992  0.5056  1.0106  1.2525
30097SOL    HW296897  11.792   2.049   5.103 -1.5480  0.5130 -0.5860
30098SOL     OW96898  11.588  11.657   2.251  0.4055 -0.3636 -0.1509
30098SOL    HW196899  11.517  11.635   2.191  2.5554 -2.3423 -2.1743
30098SOL    HW296900  11.630  11.733   2.213  1.7475 -1.5966 -1.2301
30099SOL     OW96901   6.686   9.945   2.267  0.2486  1.1177 -0.2721
30099SOL    HW196902   6.700   9.934   2.361 -1.4819 -1.0873 -0.1788
30099SOL    HW296903   6.744  10.016   2.242  1.0760  1.4799  2.3798
30100SOL     OW96904   2.646   0.941   9.813  0.3597 -0.0624 -0.0376
30100SOL    HW196905   2.582   0.924   9.882 -0.5932  0.7073 -0.7023
30100SOL    HW296906   2.648   0.861   9.761  0.8269 -0.5189  0.6617
30101SOL     OW96907   1.911   2.794  11.682  0.2062 -0.0269  0.4542
30101SOL    HW196908   1.852   2.861  11.718  0.2841  0.7633 -0.8480
30101SOL    HW296909   1.917   2.728  11.752 -2.3461 -0.2187  0.5843
30102SOL     OW96910   7.169   8.336   3.618  0.0815  0.4364  0.0630
30102SOL    HW196911   7.148   8.284   3.696  1.2621 -0.7930 -0.3910
30102SOL    HW296912   7.094   8.323   3.560 -1.5401  2.6027  1.5163
30103SOL     OW96913   8.900   6.868  11.440  0.0293 -0.2940 -0.0113
30103SOL    HW196914   8.903   6.880  11.346  1.1099 -0.3078  0.0115
30103SOL    HW296915   8.989   6.843  11.465 -0.2456 -0.3411  1.0036
30104SOL     OW96916  10.000   0.370   5.177 -0.0445  0.0944  0.3381
30104SOL    HW196917  10.033   0.421   5.251  2.0515  0.7615 -0.9634
30104SOL    HW296918  10.044   0.285   5.185 -2.1718 -0.9824  1.5027
30105SOL     OW96919   2.279  11.057   9.247 -0.7859  0.3397 -0.0009
30105SOL    HW196920   2.284  11.130   9.187 -2.0091  1.4505  1.1920
30105SOL    HW296921   2.250  10.983   9.193  0.4638  0.6974 -1.2138
30106SOL     OW96922   0.041  12.458   2.510 -0.3801  0.0486 -0.0178
30106SOL    HW196923   0.044  12.526   2.578 -0.3667 -2.1002  2.2539
30106SOL    HW296924   0.132  12.451   2.481 -0.2778  0.6184  0.1430
30107SOL     OW96925   8.081   4.418   8.871 -0.5822 -0.5512 -1.1958
30107SOL    HW196926   8.041   4.502   8.894 -1.1766 -0.7951 -1.3123
30107SOL    HW296927   8.043   4.356   8.933  0.6673 -0.5618 -0.4113
30108SOL     OW96928   3.605   8.856   5.316  0.1211 -0.1304 -0.2341
30108SOL    HW196929   3.672   8.825   5.256 -1.2286  0.1417 -1.9748
30108SOL    HW296930   3.638   8.941   5.347  0.7244 -0.1415 -0.8244
30109SOL     OW96931   2.123  12.707   6.814 -0.0956 -0.0076  0.2994
30109SOL    HW196932   2.126  12.762   6.892 -1.2526  1.9553 -0.9625
30109SOL    HW296933   2.207  12.661   6.814  1.4479  2.6168  0.8495
30110SOL     OW96934   6.568  12.594   9.458  0.3228  0.1139  0.3139
30110SOL    HW196935   6.541  12.604   9.549  1.2909  0.1024  0.6071
30110SOL    HW296936   6.498  12.637   9.408 -1.3481 -1.7610  0.8956
30111SOL     OW96937   2.787  10.577   7.029 -0.0365  0.0574 -0.2921
30111SOL    HW196938   2.695  10.602   7.036  0.2507  1.0589 -0.0309
30111SOL    HW296939   2.784  10.488   6.994 -1.1590 -0.6139  1.3762
30112SOL     OW96940   7.498   8.445   8.970  0.2223 -0.7452 -0.0530
30112SOL    HW196941   7.455   8.370   8.928 -0.0555 -0.9291  0.5434
30112SOL    HW296942   7.436   8.473   9.036  0.2204  0.1709 -0.4307
30113SOL     OW96943   0.928   1.265   8.480  0.2400  0.0724  0.9407
30113SOL    HW196944   1.006   1.270   8.424  0.0929 -0.4988  0.6775
30113SOL    HW296945   0.911   1.172   8.489 -0.5381  0.1963  0.8309
30114SOL     OW96946   2.078   3.927   0.134 -0.4209 -0.2980  0.4822
30114SOL    HW196947   2.021   3.933   0.058  0.2514  1.1158  0.0699
30114SOL    HW296948   2.047   3.996   0.193 -0.3054 -0.7401  1.0749
30115SOL     OW96949   7.456  10.105   9.236  0.0231  0.1980  0.6824
30115SOL    HW196950   7.413  10.037   9.184 -2.1217 -1.0906  3.8346
30115SOL    HW296951   7.549  10.099   9.211 -0.5910 -1.5731 -1.5323
30116SOL     OW96952  10.891  10.521   0.399  0.0058  0.0897  0.1123
30116SOL    HW196953  10.804  10.501   0.436  0.6141 -3.6222 -0.0823
30116SOL    HW296954  10.900  10.460   0.326  1.7514  2.3215 -1.6785
30117SOL     OW96955   6.355  11.910   0.227 -0.1394  0.6143 -0.1082
30117SOL    HW196956   6.332  11.982   0.286 -1.2367 -0.1242  0.3927
30117SOL    HW296957   6.334  11.943   0.140  2.1818  1.9907 -0.2330
30118SOL     OW96958   4.956   1.757   6.450  0.0215  0.2076  0.3641
30118SOL    HW196959   5.050   1.755   6.433 -0.0246  0.4754  0.0877
30118SOL    HW296960   4.927   1.667   6.432  0.0695  0.3429 -0.4333
30119SOL     OW96961   0.717   1.035  12.491 -0.7648  0.0911 -0.2096
30119SOL    HW196962   0.653   0.971  12.524 -2.1926 -0.2412 -3.2584
30119SOL    HW296963   0.802   0.995  12.508 -1.5301 -1.4240  0.2633
30120SOL     OW96964   1.910   9.532  11.195 -0.6721 -0.0580  0.3605
30120SOL    HW196965   1.855   9.569  11.263 -2.0159 -1.1927 -0.0767
30120SOL    HW296966   1.853   9.525  11.118  0.3861 -0.2391 -0.4429
30121SOL     OW96967  11.503  12.607   8.061 -0.4701  0.5371  0.0150
30121SOL    HW196968  11.530  12.528   8.014  0.6828  0.7390  0.3003
30121SOL    HW296969  11.495  12.674   7.994 -0.2257  0.4732 -0.0800
30122SOL     OW96970   4.436  12.158   9.335  0.4281 -0.5612 -0.0566
30122SOL    HW196971   4.358  12.131   9.287 -0.0132 -0.6669  0.7051
30122SOL    HW296972   4.409  12.158   9.427  0.3599  2.5491  0.0242
30123SOL     OW96973  10.243  11.344  12.061  0.1901  0.3697  0.2228
30123SOL    HW196974  10.277  11.280  11.999  0.6565  0.5862  0.2483
30123SOL    HW296975  10.292  11.328  12.142 -1.7360 -1.1789  1.1613
30124SOL     OW96976   4.918  11.442   4.625 -0.1400  0.2514 -0.1443
30124SOL    HW196977   4.871  11.523   4.607 -0.8556 -0.0508  0.3199
30124SOL    HW296978   4.870  11.402   4.697  1.3255  0.3452  0.9281
30125SOL     OW96979   2.331   2.798  11.700  0.3028 -1.3447  0.0787
30125SOL    HW196980   2.313   2.826  11.610  0.5619  0.3250  0.5110
30125SOL    HW296981   2.376   2.714  11.691  0.9400 -0.8712 -1.3886
30126SOL     OW96982   7.996   8.005   0.416  0.0641  0.0708 -0.4127
30126SOL    HW196983   8.060   7.934   0.410  0.1990  0.1327  0.2550
30126SOL    HW296984   7.964   8.015   0.326  0.7078 -0.2199 -0.6841
30127SOL     OW96985   2.328   7.183   9.337 -0.1814 -0.0970  0.3480
30127SOL    HW196986   2.378   7.102   9.348  0.8152  0.2894 -1.1258
30127SOL    HW296987   2.255   7.159   9.280 -1.6619 -0.6147  2.3427
30128SOL     OW96988  11.493   1.815  11.369 -0.3364 -0.2096 -0.2224
30128SOL    HW196989  11.535   1.790  11.287  0.8983  0.4889  0.1589
30128SOL    HW296990  11.423   1.751  11.382 -0.6835 -0.2124 -1.9063
30129SOL     OW96991   5.274   5.876   1.307 -0.1441  0.3161 -0.4897
30129SOL    HW196992   5.237   5.894   1.393  2.0392 -1.0648  0.8335
30129SOL    HW296993   5.228   5.798   1.277 -0.4707  0.4316 -0.2928
30130SOL     OW96994  12.397   7.595   7.916 -0.1600  0.9167  0.0494
30130SOL    HW196995  12.327   7.558   7.969 -0.3072  0.4916 -0.4295
30130SOL    HW296996  12.443   7.518   7.881  0.7420  1.1879  0.6088
30131SOL     OW96997  10.057   8.961  10.708  0.0324 -0.3480  0.0250
30131SOL    HW196998  10.038   9.034  10.766 -0.5838 -0.5049  0.0358
30131SOL    HW296999  10.145   8.933  10.731  0.2800  0.4053  0.0064
30132SOL     OW97000  10.343  11.068   4.130  0.7488 -0.7782  0.4335
30132SOL    HW197001  10.437  11.067   4.147  1.1221  1.1208 -1.2085
30132SOL    HW297002  10.309  11.137   4.187  0.6322 -0.3491 -0.1453
30133SOL     OW97003  11.108   9.535   0.183  0.1224  0.4106 -0.1755
30133SOL    HW197004  11.112   9.547   0.088 -0.6466 -2.2359 -0.6058
30133SOL    HW297005  11.118   9.441   0.196  0.6809  0.7475  2.4332
30134SOL     OW97006   3.849   3.600   9.856 -0.1774  0.3113 -0.4783
30134SOL    HW197007   3.880   3.539   9.789  0.4152 -1.0107  0.9520
30134SOL    HW297008   3.915   3.596   9.925 -1.4785  0.5567  0.8297
30135SOL     OW97009   5.651   3.235  12.490 -0.0025  0.1178 -0.0136
30135SOL    HW197010   5.563   3.273  12.491  0.1486  0.7026 -2.4582
30135SOL    HW297011   5.706   3.302  12.450  1.3226 -0.7320  0.3165
30136SOL     OW97012   6.490  10.438   3.820  0.9435  0.0027 -0.2144
30136SOL    HW197013   6.482  10.421   3.913  0.7526 -0.2543 -0.2791
30136SOL    HW297014   6.481  10.533   3.812  1.8537  0.1279  0.1221
30137SOL     OW97015   0.048   3.395  11.986 -0.1394  0.1171  0.4863
30137SOL    HW197016   0.014   3.465  12.042 -0.0926  1.1042 -0.6765
30137SOL    HW297017  -0.026   3.370  11.931 -0.2525 -1.0162  1.1219
30138SOL     OW97018   6.571   2.617   1.478  0.1545 -0.4040 -0.1888
30138SOL    HW197019   6.599   2.648   1.392 -1.1645  0.0383 -0.4847
30138SOL    HW297020   6.629   2.662   1.539  0.3469  0.1871 -0.7903
30139SOL     OW97021  10.815   5.995  10.573  0.6250  0.1907 -0.7677
30139SOL    HW197022  10.849   6.064  10.630  0.1585  1.3813 -1.8994
30139SOL    HW297023  10.725   5.980  10.604  1.2306 -1.1120  0.5250
30140SOL     OW97024   4.643   4.321  12.637 -0.1880  0.0578 -0.1183
30140SOL    HW197025   4.692   4.386  12.585 -0.1071 -1.5171 -2.1386
30140SOL    HW297026   4.567   4.299  12.583 -0.5350 -1.0796  0.7904
30141SOL     OW97027   1.321  10.496  11.300 -0.3672  0.5776 -0.0642
30141SOL    HW197028   1.227  10.497  11.318 -0.4499  2.6480 -0.3018
30141SOL    HW297029   1.352  10.580  11.334  1.6120 -0.4736  0.9261
30142SOL     OW97030   4.038   5.476  10.474 -0.0687 -0.3023 -0.6369
30142SOL    HW197031   4.107   5.412  10.458 -0.2010 -0.6305  0.1043
30142SOL    HW297032   4.065   5.553  10.424  0.5109 -0.6423 -0.8546
30143SOL     OW97033   6.228   0.592   0.203 -0.4263 -1.3093 -0.1503
30143SOL    HW197034   6.271   0.625   0.124  1.3283 -1.4895  0.6855
30143SOL    HW297035   6.240   0.497   0.199 -0.2992 -1.3154  0.3586
30144SOL     OW97036   1.552   4.447   3.180 -0.1529 -0.4226  0.2309
30144SOL    HW197037   1.505   4.407   3.107  0.7287 -0.4577 -0.3312
30144SOL    HW297038   1.642   4.417   3.170  0.0880  0.0129  1.0208
30145SOL     OW97039  10.229   8.360   4.926 -0.3182  0.0885 -0.6512
30145SOL    HW197040  10.312   8.383   4.967 -0.3875 -0.7417 -0.0426
30145SOL    HW297041  10.170   8.431   4.952 -0.2916 -0.2840  0.4558
30146SOL     OW97042   9.203   9.032   8.826 -0.2991 -0.3754 -0.1087
30146SOL    HW197043   9.263   9.046   8.753  0.2388  1.9682  0.6912
30146SOL    HW297044   9.116   9.050   8.790  0.0018  1.1960 -0.1133
30147SOL     OW97045   0.301   2.100  11.338  0.2988 -0.6224 -0.1318
30147SOL    HW197046   0.347   2.089  11.420 -1.1700 -0.7404  0.7102
30147SOL    HW297047   0.369   2.125  11.275  1.6068 -1.5693  0.8580
30148SOL     OW97048  11.235  10.545   2.860 -0.7038  0.3423  0.5044
30148SOL    HW197049  11.313  10.559   2.805  0.6980  0.9771  2.5271
30148SOL    HW297050  11.214  10.452   2.849  0.8292 -0.0309  0.5031
30149SOL     OW97051   3.494   9.522   5.702  0.7596  0.4433  0.4613
30149SOL    HW197052   3.559   9.461   5.735 -0.4676 -1.1835  0.0048
30149SOL    HW297053   3.427   9.526   5.770 -0.7949 -1.3705 -0.8763
30150SOL     OW97054   4.790   3.186   7.254 -0.6200 -0.2761  0.2658
30150SOL    HW197055   4.729   3.258   7.237 -1.1974 -1.0835 -1.3046
30150SOL    HW297056   4.818   3.158   7.167  1.7368 -0.1764  0.9270
30151SOL     OW97057   5.716   6.462   6.387  0.1679  0.5129 -0.3162
30151SOL    HW197058   5.664   6.482   6.464  1.2451 -0.0445  0.5865
30151SOL    HW297059   5.776   6.392   6.415  0.8600  0.5803 -1.5304
30152SOL     OW97060   2.391   5.306   0.204  0.1445 -0.0829 -0.0540
30152SOL    HW197061   2.407   5.231   0.260  1.0705  0.3300  0.2491
30152SOL    HW297062   2.298   5.326   0.218 -0.0748 -1.0614 -0.0286
30153SOL     OW97063   2.585  10.000  12.054 -0.1047 -0.3207 -0.1471
30153SOL    HW197064   2.537  10.017  12.135 -2.0841 -2.8055 -0.6624
30153SOL    HW297065   2.676   9.991  12.080 -0.5696 -0.1346  1.6381
30154SOL     OW97066   9.880   1.669   9.199  0.0023  0.4942 -0.3109
30154SOL    HW197067   9.903   1.576   9.210 -0.0810  0.4310 -0.6547
30154SOL    HW297068   9.809   1.668   9.135  1.1634  0.9284 -1.6368
30155SOL     OW97069  10.111  10.858   8.471  0.4573  0.6183 -0.1893
30155SOL    HW197070  10.044  10.805   8.514  2.0634 -0.5062  1.0612
30155SOL    HW297071  10.067  10.896   8.395 -1.3541 -0.7120  0.1333
30156SOL     OW97072   3.735   7.461   9.944 -0.5131  0.0304  0.5818
30156SOL    HW197073   3.674   7.448   9.870  0.3600 -2.2264  0.1664
30156SOL    HW297074   3.819   7.428   9.912 -0.0721 -0.8905  2.5271
30157SOL     OW97075   0.130  12.017   3.286  0.3774 -0.5178 -0.6622
30157SOL    HW197076   0.085  12.085   3.236 -1.3027 -0.6566  0.5741
30157SOL    HW297077   0.063  11.981   3.345  1.9704 -1.1329  0.8936
30158SOL     OW97078   8.409   6.230   0.840  0.6000 -0.3856 -0.3388
30158SOL    HW197079   8.323   6.269   0.857  1.4365  0.8867  1.2961
30158SOL    HW297080   8.433   6.190   0.924  1.6479 -0.6255 -0.7473
30159SOL     OW97081   1.432   5.276   0.255 -0.1211  0.5463  0.3760
30159SOL    HW197082   1.505   5.214   0.250  0.9536  1.5753  2.1193
30159SOL    HW297083   1.368   5.243   0.192  0.7813 -1.8188  0.5956
30160SOL     OW97084   3.024  10.181   0.547 -0.2987  0.1500  0.7977
30160SOL    HW197085   3.119  10.169   0.540 -0.4893 -1.6198  0.7378
30160SOL    HW297086   2.990  10.153   0.462 -1.0297 -1.6044  1.6093
30161SOL     OW97087   0.364   3.620   9.182  0.3877  0.3332 -0.0948
30161SOL    HW197088   0.416   3.599   9.259  0.5335 -1.5771 -0.6477
30161SOL    HW297089   0.408   3.574   9.110 -0.8918  0.3612 -0.9389
30162SOL     OW97090   3.343   7.057   0.977 -0.5306  0.1997 -0.3531
30162SOL    HW197091   3.369   6.995   0.910 -1.0859  1.5890 -1.9278
30162SOL    HW297092   3.422   7.071   1.029 -0.1188 -0.9817 -0.6375
30163SOL     OW97093   8.542   4.950  11.756  0.3570  0.4214 -0.0531
30163SOL    HW197094   8.520   4.879  11.816 -0.1742 -1.6887 -2.5960
30163SOL    HW297095   8.475   5.017  11.773 -0.4586 -0.5965  0.8989
30164SOL     OW97096   2.554  12.520   9.346  0.1314  0.4424 -0.6886
30164SOL    HW197097   2.516  12.522   9.258  0.2364  2.1244 -0.7359
30164SOL    HW297098   2.646  12.498   9.332 -0.4060 -2.0004 -0.7204
30165SOL     OW97099   0.068   7.257   0.630  0.4062  0.0145  0.1595
30165SOL    HW197100   0.112   7.174   0.644  0.1164 -0.0558  0.6906
30165SOL    HW297101   0.134   7.323   0.650  0.7845 -0.0747 -0.7388
30166SOL     OW97102   4.136   6.052   0.770 -0.6317 -0.1850 -0.2684
30166SOL    HW197103   4.193   6.071   0.695  0.0016  2.1840  0.7067
30166SOL    HW297104   4.063   6.113   0.762 -1.1272 -0.6566  0.4659
30167SOL     OW97105   1.229   9.642   4.910  0.1514 -0.3667 -0.2954
30167SOL    HW197106   1.219   9.562   4.962 -1.0728  0.5065  0.8873
30167SOL    HW297107   1.141   9.681   4.910  1.0562  1.7967  0.5381
30168SOL     OW97108   1.862  11.846  10.343 -0.1550 -0.4461 -0.4430
30168SOL    HW197109   1.768  11.855  10.324 -0.2102  0.6367  0.2584
30168SOL    HW297110   1.893  11.936  10.355  0.3296 -0.9028  2.3244
30169SOL     OW97111   2.979  11.777   9.301 -0.4805  0.1373  0.7182
30169SOL    HW197112   3.001  11.693   9.261 -1.6025 -0.9197  2.1953
30169SOL    HW297113   2.973  11.758   9.395 -0.9693  1.8135  1.0640
30170SOL     OW97114  12.638   8.263   8.704  0.4641 -0.5414  0.1639
30170SOL    HW197115  12.569   8.328   8.715  0.7227 -0.1801 -0.3039
30170SOL    HW297116  12.593   8.185   8.672  0.1578 -0.5874  0.6977
30171SOL     OW97117   7.173   1.824   9.785  0.5432 -0.2218  0.0014
30171SOL    HW197118   7.209   1.894   9.731  1.8119 -1.2440 -0.5168
30171SOL    HW297119   7.174   1.747   9.729  0.4092 -0.9588  0.9793
30172SOL     OW97120   9.358   3.599   8.204  0.0368 -0.7205 -0.1940
30172SOL    HW197121   9.296   3.540   8.247  0.6332 -1.1861  0.0337
30172SOL    HW297122   9.424   3.541   8.167  1.5340 -0.1389  1.4312
30173SOL     OW97123   9.752   9.709   3.579 -0.4118  0.0516 -0.2639
30173SOL    HW197124   9.845   9.729   3.595 -0.7427 -0.8305  3.5220
30173SOL    HW297125   9.724   9.660   3.655 -3.8637 -0.4394 -1.6705
30174SOL     OW97126   1.756  10.737  10.018 -0.2793 -0.2303  0.2324
30174SOL    HW197127   1.817  10.690   9.961  1.1982  0.0754  1.5021
30174SOL    HW297128   1.717  10.804   9.961 -0.9922 -1.7216 -1.1092
30175SOL     OW97129   9.593   2.065   1.850 -0.3511 -0.0047  0.1135
30175SOL    HW197130   9.594   2.144   1.797 -0.7176 -0.3336 -0.3966
30175SOL    HW297131   9.515   2.017   1.820  1.1640 -1.7167 -1.3075
30176SOL     OW97132   1.440  11.101   3.208  0.2990  1.0462 -0.0933
30176SOL    HW197133   1.519  11.068   3.251 -0.3485 -1.2244 -0.4650
30176SOL    HW297134   1.463  11.105   3.115 -0.2760 -0.7013 -0.3566
30177SOL     OW97135  10.968   1.849   0.571  0.0933  0.7426  0.5011
30177SOL    HW197136  11.060   1.866   0.552  0.2962 -0.2220  0.5412
30177SOL    HW297137  10.948   1.905   0.646  1.6325 -1.4818  2.7202
30178SOL     OW97138   9.444   0.710   9.656  0.2243 -0.8756  0.0119
30178SOL    HW197139   9.404   0.653   9.590  0.5411 -0.0798 -0.8845
30178SOL    HW297140   9.514   0.657   9.694 -0.3526 -1.5543  0.1509
30179SOL     OW97141   9.540   3.529   5.771  0.2201 -0.2799  0.6463
30179SOL    HW197142   9.590   3.572   5.841 -0.0354  1.6947 -0.2933
30179SOL    HW297143   9.594   3.454   5.745  3.0813  2.0262 -0.6803
30180SOL     OW97144   3.033   7.600   0.776  0.0319  0.1366 -0.0959
30180SOL    HW197145   3.017   7.506   0.779  1.6952 -0.2312 -1.2496
30180SOL    HW297146   2.991   7.629   0.694 -3.0296  1.0258  1.6129
30181SOL     OW97147   3.518   6.421   3.630 -0.4151  0.1354 -0.6332
30181SOL    HW197148   3.520   6.330   3.658 -0.3435  0.5907  0.9083
30181SOL    HW297149   3.606   6.454   3.648 -0.6326  0.6872 -0.5458
30182SOL     OW97150   3.986  10.969  12.588 -0.2508  0.3715  0.4030
30182SOL    HW197151   3.956  11.037  12.528  0.6595 -0.1239 -0.6393
30182SOL    HW297152   3.939  10.890  12.562  0.0732  0.1758  0.3997
30183SOL     OW97153   3.139   0.857   8.199  0.1300  0.0367  0.3194
30183SOL    HW197154   3.222   0.810   8.209  0.8301  1.1058 -0.2922
30183SOL    HW297155   3.114   0.841   8.108  0.3772  0.8116  0.1024
30184SOL     OW97156   6.385   1.451   7.228 -0.3064  0.3211  0.1577
30184SOL    HW197157   6.385   1.355   7.222 -0.3870  0.2056  1.6764
30184SOL    HW297158   6.329   1.479   7.156  0.8275 -0.6923 -1.1862
30185SOL     OW97159   7.000  12.665   7.497 -0.0645 -0.1762 -0.0998
30185SOL    HW197160   7.012  12.577   7.462 -0.1825 -0.8717  1.5115
30185SOL    HW297161   7.076  12.679   7.554 -0.4217  0.4553  0.2359
30186SOL     OW97162   4.853   2.369   0.236 -0.3216  0.0212 -0.0875
30186SOL    HW197163   4.889   2.375   0.324 -1.4947 -2.5138  0.6696
30186SOL    HW297164   4.789   2.440   0.231  0.2806  0.6516  0.8063
30187SOL     OW97165  11.700   9.276   3.469  0.9831 -0.5572 -0.7894
30187SOL    HW197166  11.685   9.184   3.491  2.1089 -0.3501  1.0217
30187SOL    HW297167  11.638   9.324   3.524 -0.1005 -0.2187 -2.2425
30188SOL     OW97168   9.976   8.061   3.417 -0.2573 -0.2985  0.3614
30188SOL    HW197169   9.990   8.147   3.456  1.3363 -0.1354 -0.4510
30188SOL    HW297170  10.064   8.032   3.392 -0.8716 -1.7387 -0.2644
30189SOL     OW97171   1.829  10.641   7.607 -0.0822 -0.1666  0.3768
30189SOL    HW197172   1.834  10.696   7.685 -0.6315  0.0805  0.2423
30189SOL    HW297173   1.750  10.670   7.562  1.1887  0.9815 -1.2434
30190SOL     OW97174  11.432   4.519   3.330 -0.0972 -0.0769 -0.6064
30190SOL    HW197175  11.468   4.602   3.362  0.9783 -0.6054 -0.4209
30190SOL    HW297176  11.443   4.522   3.235  0.6239 -0.3146 -0.5352
30191SOL     OW97177   7.049   1.578   6.866  0.5712 -0.4496 -0.4223
30191SOL    HW197178   6.994   1.631   6.924  1.2040 -0.0977 -0.1362
30191SOL    HW297179   6.987   1.521   6.821  0.0531 -0.6319  0.4962
30192SOL     OW97180  11.106   0.062   4.970 -0.4956 -0.3795  0.0201
30192SOL    HW197181  11.082   0.063   5.062  0.4946  1.0235  0.2996
30192SOL    HW297182  11.169  -0.009   4.962  0.9534  0.7287  0.9017
30193SOL     OW97183  10.134   0.966   8.217  0.4516 -0.3121 -0.6024
30193SOL    HW197184  10.223   0.968   8.182  1.5325  2.4032  1.8261
30193SOL    HW297185  10.097   1.050   8.191 -0.7458 -0.6657 -0.0795
30194SOL     OW97186   1.331   7.192   1.836  0.3738  0.1027  0.0828
30194SOL    HW197187   1.362   7.279   1.864  2.0442 -0.6782  0.7615
30194SOL    HW297188   1.250   7.179   1.886 -0.2807  1.5193 -0.5329
30195SOL     OW97189   1.066   5.482   7.367 -0.2446 -0.5262  0.1330
30195SOL    HW197190   0.979   5.484   7.328 -0.2857  0.0511  0.2342
30195SOL    HW297191   1.109   5.407   7.326 -0.8449 -0.9224  0.2122
30196SOL     OW97192  11.068   8.572   7.073  0.3520  0.3348 -0.5433
30196SOL    HW197193  10.978   8.546   7.054  0.6855  0.2419 -2.1162
30196SOL    HW297194  11.061   8.626   7.152 -1.2463  1.3014 -1.2840
30197SOL     OW97195  11.393   5.769  11.190 -0.2449 -0.0096 -0.9240
30197SOL    HW197196  11.416   5.862  11.184 -0.8000  0.3288  1.4560
30197SOL    HW297197  11.477   5.724  11.197  0.0101  0.7383  2.0909
30198SOL     OW97198  11.837   1.032  10.725 -0.5856  0.0880 -0.0390
30198SOL    HW197199  11.766   1.095  10.731  0.1662  0.9500 -0.0588
30198SOL    HW297200  11.907   1.078  10.679 -0.1067 -0.8301 -0.2557
30199SOL     OW97201   2.456   5.787  10.405 -0.2483  0.8883 -0.2940
30199SOL    HW197202   2.505   5.832  10.474 -1.0439  1.1335  0.1182
30199SOL    HW297203   2.369   5.827  10.407 -0.6912 -0.0377 -0.5448
30200SOL     OW97204   3.386   7.345  11.778  0.1837 -0.1524 -0.0117
30200SOL    HW197205   3.366   7.252  11.770 -0.3875  0.0348 -0.8801
30200SOL    HW297206   3.300   7.388  11.779  0.4579  0.4459 -0.8634
30201SOL     OW97207   6.709   2.654  12.481  0.4006 -0.2794  0.0194
30201SOL    HW197208   6.753   2.644  12.396  0.6426 -1.2112  0.2433
30201SOL    HW297209   6.723   2.571  12.525  2.2544  0.9667  1.9352
30202SOL     OW97210   9.715   6.719  10.139 -0.3767  0.4271  0.1136
30202SOL    HW197211   9.720   6.814  10.148 -1.4238  0.4982  0.0764
30202SOL    HW297212   9.670   6.706  10.056 -0.2537 -0.1061  0.1308
30203SOL     OW97213   6.599  12.213   4.807  0.3381  0.0093 -0.2692
30203SOL    HW197214   6.555  12.131   4.785  1.3305 -0.4089 -0.7206
30203SOL    HW297215   6.543  12.281   4.768 -0.4299 -0.4425  0.0127
30204SOL     OW97216   9.399   9.017   8.450  0.3671  0.3605  0.0347
30204SOL    HW197217   9.363   9.105   8.441 -1.9008 -0.4204  0.7406
30204SOL    HW297218   9.422   9.009   8.542 -0.5772 -0.1586  0.2401
30205SOL     OW97219   3.803  12.260  10.002  0.9015  0.4085  0.0851
30205SOL    HW197220   3.776  12.246  10.093  1.2835 -0.2001  0.1089
30205SOL    HW297221   3.805  12.355   9.993  1.1588  0.4833  0.8120
30206SOL     OW97222   3.590   1.703   2.648  0.3903  0.6085  0.2722
30206SOL    HW197223   3.506   1.748   2.645 -0.7319 -1.3731  0.7414
30206SOL    HW297224   3.640   1.751   2.714 -0.7862  1.1203  0.8192
30207SOL     OW97225   2.555   3.233   0.647 -0.4531  0.0899  0.1664
30207SOL    HW197226   2.478   3.223   0.590 -0.1040  0.9844 -0.4882
30207SOL    HW297227   2.603   3.306   0.609  1.1025 -0.9023  0.1569
30208SOL     OW97228   4.210   8.637   4.998  0.3539  0.1348 -0.1830
30208SOL    HW197229   4.190   8.659   4.907 -0.3070  1.0899  0.1793
30208SOL    HW297230   4.243   8.718   5.036  2.8118 -0.8195 -0.1359
30209SOL     OW97231   5.171   9.668   7.411 -0.0022  0.4418 -0.3194
30209SOL    HW197232   5.179   9.574   7.429  0.4914 -0.1578 -3.2931
30209SOL    HW297233   5.118   9.673   7.332  2.5437  2.4616 -2.0343
30210SOL     OW97234   6.979  10.580   6.016 -0.0455  0.1307  0.2652
30210SOL    HW197235   7.040  10.561   5.944 -0.8304 -1.9345  0.0983
30210SOL    HW297236   7.025  10.646   6.068  0.9136  1.0663 -1.6397
30211SOL     OW97237   9.315   4.514  11.356  0.3320  0.0685 -0.1880
30211SOL    HW197238   9.384   4.560  11.405 -0.8975  0.3394  1.3976
30211SOL    HW297239   9.347   4.511  11.266  2.0585  0.8565  0.3535
30212SOL     OW97240   9.228   7.348   4.135 -0.1574 -0.2196  0.4976
30212SOL    HW197241   9.165   7.364   4.065 -1.3396 -2.0024  1.1016
30212SOL    HW297242   9.311   7.380   4.099 -0.4230 -2.2996 -2.3242
30213SOL     OW97243   8.090   4.407  11.011  0.8791 -0.4322  0.2356
30213SOL    HW197244   8.118   4.434  11.098 -0.1022  0.5470  0.2718
30213SOL    HW297245   8.132   4.322  10.998  3.8352  0.9335  0.2356
30214SOL     OW97246   5.227   0.301   9.771 -0.6971 -0.2304  0.5818
30214SOL    HW197247   5.241   0.376   9.829 -1.3265  1.7657 -1.7046
30214SOL    HW297248   5.141   0.317   9.731 -0.1867 -1.3764 -1.0894
30215SOL     OW97249   9.196   9.251  10.825  0.7207  0.7174 -0.1886
30215SOL    HW197250   9.181   9.186  10.757  0.6383 -0.2958  0.7670
30215SOL    HW297251   9.169   9.334  10.786  0.9828  0.2105 -1.4854
30216SOL     OW97252   5.213   5.496  10.922  0.2894 -0.1631 -0.1868
30216SOL    HW197253   5.157   5.422  10.945 -0.7299  1.6014  4.0381
30216SOL    HW297254   5.279   5.499  10.991  1.4857  1.7267 -1.3199
30217SOL     OW97255   6.315   7.043  10.444 -0.1663  0.4062 -0.0019
30217SOL    HW197256   6.300   7.001  10.359 -0.4252 -0.2475  0.3650
30217SOL    HW297257   6.283   6.980  10.508  0.3913  0.7292  0.6033
30218SOL     OW97258   9.930  10.441   5.153  0.2153  0.1243 -0.8213
30218SOL    HW197259   9.970  10.365   5.196  1.7534  0.1005 -2.1987
30218SOL    HW297260   9.839  10.439   5.182  0.9272 -0.4212  1.6482
30219SOL     OW97261  10.900   4.325  11.500  0.5147 -0.0383  0.2654
30219SOL    HW197262  10.843   4.376  11.558  2.0264 -0.5442  2.3357
30219SOL    HW297263  10.896   4.370  11.416 -1.3380  1.0843  0.8935
30220SOL     OW97264   3.068   2.284   0.058  0.0673 -0.1826  0.3996
30220SOL    HW197265   3.052   2.321  -0.029 -0.2316 -0.3651  0.3728
30220SOL    HW297266   3.003   2.326   0.114  0.4825  0.1868  0.6061
30221SOL     OW97267  12.609   4.551   5.941 -0.3816 -0.4006 -0.7203
30221SOL    HW197268  12.521   4.532   5.972 -0.9909 -0.8334 -2.6252
30221SOL    HW297269  12.598   4.622   5.878  0.8920  0.8078  0.3342
30222SOL     OW97270   4.669  11.892  11.683  0.1235  0.3066 -0.6005
30222SOL    HW197271   4.713  11.975  11.665  0.8642 -0.0305 -0.4124
30222SOL    HW297272   4.724  11.826  11.641  0.4452 -0.2313  0.5963
30223SOL     OW97273   3.479   8.715   3.294  0.6965 -0.0702  0.1283
30223SOL    HW197274   3.391   8.739   3.263  1.6406  1.4143 -1.5566
30223SOL    HW297275   3.484   8.749   3.383 -0.0255  0.9273 -0.1974
30224SOL     OW97276  10.940   9.245   5.149  0.3426 -0.3798 -0.4882
30224SOL    HW197277  10.908   9.286   5.230 -2.1560  0.0719 -1.6207
30224SOL    HW297278  10.989   9.314   5.105  0.3742 -0.1580 -0.1119
30225SOL     OW97279   3.170   7.291  10.909  0.0943 -0.1791 -0.4052
30225SOL    HW197280   3.085   7.293  10.954  0.0848  0.6113 -0.4328
30225SOL    HW297281   3.203   7.381  10.918  1.6396 -0.8453  0.9301
30226SOL     OW97282   2.218   8.469   7.263 -0.0301 -0.1590 -0.2463
30226SOL    HW197283   2.295   8.437   7.216  0.2785  0.7840 -0.4211
30226SOL    HW297284   2.219   8.564   7.247 -1.3069 -0.1496 -0.3735
30227SOL     OW97285   8.245   5.826   4.606  0.1532 -0.5765  0.0804
30227SOL    HW197286   8.198   5.908   4.589  0.0061 -0.9855 -1.7956
30227SOL    HW297287   8.336   5.845   4.584  0.0016 -1.0610 -1.0879
30228SOL     OW97288  10.336   8.932  12.722 -0.0838  0.6145  0.3927
30228SOL    HW197289  10.412   8.874  12.729 -0.5331 -0.0737 -0.3047
30228SOL    HW297290  10.347   8.976  12.637 -0.9878 -0.2787 -0.2162
30229SOL     OW97291   1.649   7.868   6.460  0.4951 -0.0919 -0.0200
30229SOL    HW197292   1.704   7.799   6.496  1.7648  1.7738  1.8623
30229SOL    HW297293   1.706   7.916   6.400  0.8678  1.5513  1.5641
30230SOL     OW97294  12.668  10.237   3.993  0.0100 -0.1036 -0.0043
30230SOL    HW197295  12.725  10.314   3.987  0.9621 -0.7577  0.4222
30230SOL    HW297296  12.609  10.245   3.918 -0.1241  1.2072  0.2130
30231SOL     OW97297  10.361   6.772  11.063 -0.0128 -0.5265 -0.0802
30231SOL    HW197298  10.390   6.858  11.094  0.7976 -1.2812  1.3924
30231SOL    HW297299  10.266   6.774  11.074 -0.0377  0.2722 -0.3351
30232SOL     OW97300   9.497   7.778  10.070  0.3947 -0.0412  0.1006
30232SOL    HW197301   9.479   7.871  10.061  0.8526  0.2924  2.0842
30232SOL    HW297302   9.579   7.765  10.023  2.0696  1.2946  2.4104
30233SOL     OW97303  12.536   3.951   4.240 -0.0923 -0.1884  0.2484
30233SOL    HW197304  12.498   4.020   4.186 -2.5439 -1.8667 -0.3478
30233SOL    HW297305  12.471   3.880   4.238  1.5239 -1.8665  2.1950
30234SOL     OW97306   6.672   1.520  11.189 -0.2191  0.2746 -0.1468
30234SOL    HW197307   6.580   1.494  11.192  0.2897 -1.7234 -0.1171
30234SOL    HW297308   6.694   1.541  11.280 -0.9037  1.8978 -0.3239
30235SOL     OW97309   2.519   1.237   6.906  0.0426  0.5097 -0.4182
30235SOL    HW197310   2.559   1.250   6.993 -0.0906 -0.9788 -0.0992
30235SOL    HW297311   2.492   1.145   6.907 -1.3072  0.8793 -1.4977
30236SOL     OW97312   4.235   0.666   5.429 -0.0839 -1.1359 -0.2955
30236SOL    HW197313   4.303   0.693   5.491 -0.1326 -0.8690 -0.3570
30236SOL    HW297314   4.195   0.589   5.469 -0.0815 -0.9949 -0.0201
30237SOL     OW97315   3.922  10.520   2.672 -0.1034 -0.0505  0.1343
30237SOL    HW197316   3.848  10.496   2.617 -0.3017 -1.6449  1.0307
30237SOL    HW297317   3.996  10.525   2.611 -0.6590  0.0498 -0.5441
30238SOL     OW97318   1.567   5.984   2.866  0.1419 -0.6491  0.0263
30238SOL    HW197319   1.635   6.005   2.802 -1.3594  2.3982 -0.7797
30238SOL    HW297320   1.493   5.953   2.812 -0.5780  0.3646  0.4023
30239SOL     OW97321   5.097   7.749  12.176  0.7699 -0.6991  0.1091
30239SOL    HW197322   5.035   7.716  12.240 -2.0349  0.5135 -1.7844
30239SOL    HW297323   5.086   7.691  12.100  0.2689  0.8244 -1.0340
30240SOL     OW97324  10.498   6.874   4.580  0.3858  0.5836 -0.0705
30240SOL    HW197325  10.497   6.786   4.542 -1.6843  0.2397  0.6603
30240SOL    HW297326  10.469   6.931   4.509 -1.4326  0.2059  0.3045
30241SOL     OW97327  11.730  10.415   1.353 -0.3241  0.6599  0.0603
30241SOL    HW197328  11.778  10.346   1.398 -1.2278 -0.6494 -0.9029
30241SOL    HW297329  11.780  10.495   1.371  0.1982 -0.0564  2.0246
30242SOL     OW97330   1.868   2.395   3.689 -0.0141  0.0132 -0.2359
30242SOL    HW197331   1.796   2.334   3.673  0.2411 -0.3980  0.1483
30242SOL    HW297332   1.928   2.381   3.616 -0.4047  0.4799 -0.6489
30243SOL     OW97333   4.054   1.339   0.867 -0.4052  0.0580 -0.1474
30243SOL    HW197334   4.038   1.293   0.949  0.7256 -0.1772 -0.0439
30243SOL    HW297335   4.146   1.321   0.846 -0.5079  0.5985 -1.1599
30244SOL     OW97336  11.945   1.558   2.385  0.1588 -0.3112 -0.1528
30244SOL    HW197337  11.887   1.614   2.437  0.4290 -0.4513  0.3127
30244SOL    HW297338  12.017   1.536   2.445  2.6089  2.7009 -1.6533
30245SOL     OW97339  11.493   7.145  12.004 -0.1758 -0.0530 -0.0059
30245SOL    HW197340  11.492   7.228  12.051 -1.4958 -0.0877  0.0883
30245SOL    HW297341  11.479   7.169  11.912 -1.2607 -0.1880  0.1078
30246SOL     OW97342   1.020   6.952  10.379 -0.3298 -0.7537 -0.1093
30246SOL    HW197343   1.052   6.872  10.336 -0.3677  0.2971 -2.2053
30246SOL    HW297344   1.093   6.979  10.436  0.4113 -1.2709 -0.7929
30247SOL     OW97345   9.985   7.195   3.453 -0.0691  0.2493  0.1599
30247SOL    HW197346  10.056   7.207   3.390 -0.9691  0.3055 -0.8613
30247SOL    HW297347   9.935   7.121   3.419  0.1627 -0.5678  1.5097
30248SOL     OW97348   4.666   7.276  11.131 -0.1345 -0.0113 -0.2028
30248SOL    HW197349   4.750   7.241  11.101  0.0759 -0.4530  0.8449
30248SOL    HW297350   4.616   7.291  11.051  1.1919  0.9500 -0.8982
30249SOL     OW97351   1.199  11.701  12.396 -0.1735 -0.3684 -0.2073
30249SOL    HW197352   1.152  11.720  12.315  0.1407  0.9670 -0.1061
30249SOL    HW297353   1.179  11.775  12.454  0.6292 -0.6521  0.4626
30250SOL     OW97354   3.806  12.318   7.685  0.3970  0.0926 -0.0738
30250SOL    HW197355   3.893  12.278   7.690  0.1792 -0.5720 -1.3713
30250SOL    HW297356   3.802  12.356   7.598 -0.5181  0.3416  0.0737
30251SOL     OW97357   6.909   1.274  10.142  0.2750  0.1371 -0.1842
30251SOL    HW197358   6.814   1.283  10.150  0.0005 -2.0304 -0.4279
30251SOL    HW297359   6.924   1.261  10.049  1.0459  2.1983 -0.3988
30252SOL     OW97360   7.484  11.390  11.276  0.0237 -0.5466 -0.0695
30252SOL    HW197361   7.553  11.326  11.297 -0.6847 -1.2179  0.2840
30252SOL    HW297362   7.495  11.407  11.182  0.6232 -0.6971 -0.0321
30253SOL     OW97363  11.686   3.423   2.762  0.6432 -0.2296 -0.4502
30253SOL    HW197364  11.721   3.368   2.831  0.4801  0.8530  0.5246
30253SOL    HW297365  11.610   3.375   2.728  1.7890 -1.6081 -1.1528
30254SOL     OW97366   9.703   6.324  11.289  0.1771  0.0830  0.2030
30254SOL    HW197367   9.639   6.369  11.344 -0.2766 -1.6001  1.1177
30254SOL    HW297368   9.788   6.356  11.319 -0.1562  1.0078  0.1909
30255SOL     OW97369  10.981   9.201   2.608  0.6256 -0.0549 -0.0504
30255SOL    HW197370  10.911   9.180   2.670  0.3225  0.2352 -0.2924
30255SOL    HW297371  10.963   9.149   2.531 -1.1768  2.3494 -1.3744
30256SOL     OW97372   2.185   0.681   9.747 -0.4553 -0.3803 -0.1490
30256SOL    HW197373   2.123   0.631   9.693  0.5583 -0.1792 -1.5819
30256SOL    HW297374   2.148   0.769   9.752 -0.4230 -0.3241 -0.7992
30257SOL     OW97375   6.153   7.568   6.064  0.2041  0.0410  0.1605
30257SOL    HW197376   6.176   7.501   5.999  1.1087 -0.7978  1.3000
30257SOL    HW297377   6.192   7.649   6.030 -1.2220  0.1227 -1.4216
30258SOL     OW97378   7.287   4.925   1.684 -0.0226 -0.2160 -0.0108
30258SOL    HW197379   7.221   4.995   1.682 -0.8569 -0.9941 -0.4616
30258SOL    HW297380   7.292   4.900   1.777  0.1060  0.2750  0.1170
30259SOL     OW97381  10.062  11.653  11.062 -0.1178 -0.0073 -0.0962
30259SOL    HW197382   9.975  11.614  11.067 -0.1645  0.0282 -0.6186
30259SOL    HW297383  10.054  11.722  10.997 -0.2817  1.5198  1.4677
30260SOL     OW97384   5.308   4.288  11.806  0.0706  0.0930  0.2799
30260SOL    HW197385   5.393   4.309  11.767 -0.6057 -0.8807 -1.8843
30260SOL    HW297386   5.304   4.192  11.803 -1.3152  0.1544 -0.1697
30261SOL     OW97387   7.622   6.652   1.540 -0.2106  1.0018 -0.6976
30261SOL    HW197388   7.574   6.713   1.484 -2.1267  0.8975  0.7678
30261SOL    HW297389   7.604   6.566   1.503  1.1831  1.1427 -1.7993
30262SOL     OW97390   1.834  11.638   6.977 -0.5721  0.2683 -0.1447
30262SOL    HW197391   1.827  11.733   6.987  0.8823  0.3419  0.4488
30262SOL    HW297392   1.927  11.619   6.992 -0.6130 -1.1213 -1.3924
30263SOL     OW97393   1.162   6.911   2.691 -0.1377 -0.2194  0.0320
30263SOL    HW197394   1.193   7.002   2.689 -0.1292 -0.2278 -0.2946
30263SOL    HW297395   1.231   6.863   2.736 -0.1783 -0.0485  0.2737
30264SOL     OW97396   9.374   7.562  10.934  0.0334  0.3754  0.3721
30264SOL    HW197397   9.367   7.553  10.839 -0.0269  0.3828  0.3756
30264SOL    HW297398   9.322   7.640  10.955 -1.3744 -0.5990  0.6074
30265SOL     OW97399   9.767  10.460   9.289  0.1559  0.1291 -0.0232
30265SOL    HW197400   9.858  10.461   9.321 -0.0868  1.5677  0.7061
30265SOL    HW297401   9.717  10.423   9.362 -0.0313  0.7664  0.1775
30266SOL     OW97402   3.805   0.082   8.873 -0.4188 -0.1587 -0.5460
30266SOL    HW197403   3.780   0.067   8.782 -1.0175  1.3422 -0.6564
30266SOL    HW297404   3.898   0.106   8.869  0.1856 -2.2202 -0.4914
30267SOL     OW97405  12.447   5.223   6.128  0.1790  0.0581  0.5171
30267SOL    HW197406  12.519   5.286   6.134  0.7174 -0.3160 -1.2738
30267SOL    HW297407  12.387   5.262   6.064  0.5224 -1.1798 -0.6211
30268SOL     OW97408  10.696   6.797   4.213  0.1847  0.3814 -0.0255
30268SOL    HW197409  10.730   6.708   4.224 -1.4086  0.0993  4.2770
30268SOL    HW297410  10.611   6.785   4.171  0.1522 -0.0734  0.1650
30269SOL     OW97411   8.951   8.850   8.084  0.0065  0.4903  0.6956
30269SOL    HW197412   9.020   8.899   8.129  1.7745 -0.8664 -0.4088
30269SOL    HW297413   8.972   8.758   8.102  0.4575 -0.0857 -2.3178
30270SOL     OW97414   4.753   4.436  10.191  0.4018 -0.5931 -0.4167
30270SOL    HW197415   4.813   4.386  10.137  2.2516  0.7545  0.2952
30270SOL    HW297416   4.766   4.402  10.280  0.3746 -0.0612 -0.2044
30271SOL     OW97417   0.957   8.870  10.518 -0.2639  0.0014  0.2928
30271SOL    HW197418   0.902   8.813  10.572 -0.3856  0.9992  1.2515
30271SOL    HW297419   0.911   8.954  10.517  1.2890  0.9272  1.2851
30272SOL     OW97420   5.851   9.368   5.986 -0.0417 -0.0108 -0.3916
30272SOL    HW197421   5.837   9.290   6.039 -0.6002  0.2278 -0.1807
30272SOL    HW297422   5.931   9.350   5.937 -0.6100 -1.0539 -0.9641
30273SOL     OW97423   4.714   8.794  10.820 -0.2506 -0.1797  0.3634
30273SOL    HW197424   4.622   8.791  10.846 -0.4832 -0.8467 -0.4971
30273SOL    HW297425   4.760   8.747  10.890 -0.4279  0.9117  1.2535
30274SOL     OW97426   5.816   7.001   4.121 -0.1186  0.3720 -0.2914
30274SOL    HW197427   5.785   6.939   4.187 -0.7627  1.3033  0.2811
30274SOL    HW297428   5.803   6.955   4.038 -1.7423  0.2006  0.0355
30275SOL     OW97429   3.808   7.520  11.769  0.1195  0.0152 -0.2601
30275SOL    HW197430   3.903   7.534  11.769 -0.1411  2.2991 -1.4828
30275SOL    HW297431   3.780   7.548  11.856  0.4008  0.9225 -0.4521
30276SOL     OW97432   1.599   1.579   5.094 -0.1472  1.1878 -0.1618
30276SOL    HW197433   1.605   1.630   5.013 -0.3546  0.4283 -0.6638
30276SOL    HW297434   1.675   1.606   5.144  1.6279 -0.3962 -1.8243
30277SOL     OW97435   8.287   8.010   1.062  0.0005 -0.1874  0.1348
30277SOL    HW197436   8.275   8.105   1.059 -1.4873 -0.3394  0.6305
30277SOL    HW297437   8.316   7.986   0.974  0.1642  0.6897 -0.0603
30278SOL     OW97438   9.944   2.066  11.848  0.3290 -0.7160  0.0739
30278SOL    HW197439   9.897   2.070  11.765 -0.6852  0.0223  0.6688
30278SOL    HW297440   9.927   2.151  11.890 -0.0119 -1.4483  1.4780
30279SOL     OW97441   5.112   3.226   8.190  0.1209  0.4220  0.2260
30279SOL    HW197442   5.115   3.212   8.285 -0.4789  0.4116  0.2435
30279SOL    HW297443   5.021   3.210   8.166  0.4026 -0.2145 -0.4537
30280SOL     OW97444   2.706   6.275   2.807  0.0962  0.3424  0.3028
30280SOL    HW197445   2.711   6.182   2.827 -1.7478  0.0817 -0.2894
30280SOL    HW297446   2.685   6.278   2.714  0.7020  1.3833  0.1811
30281SOL     OW97447  10.862   5.301  10.729 -0.3835 -0.4563  0.3060
30281SOL    HW197448  10.890   5.212  10.748  0.2692 -0.5676 -1.0656
30281SOL    HW297449  10.795   5.292  10.662  1.6226  0.1450 -1.9292
30282SOL     OW97450   4.257  11.032   1.817 -0.0055 -0.1627 -0.3712
30282SOL    HW197451   4.336  11.011   1.867 -0.9529 -0.7821  0.9022
30282SOL    HW297452   4.284  11.104   1.760  1.3444 -0.0065  0.4120
30283SOL     OW97453   7.263   1.257  11.092 -0.0482  0.4768  0.0978
30283SOL    HW197454   7.274   1.319  11.164 -0.5212  0.4071  0.2289
30283SOL    HW297455   7.230   1.310  11.019 -0.4323  0.3803  0.2034
30284SOL     OW97456   4.449   8.919   0.099 -0.2363  0.1170  0.1456
30284SOL    HW197457   4.375   8.858   0.098  0.7204 -1.1082  1.3059
30284SOL    HW297458   4.525   8.865   0.117  1.0478  1.2827 -1.4758
30285SOL     OW97459   9.289   9.775   7.127  0.2127 -0.1222 -0.1822
30285SOL    HW197460   9.222   9.797   7.062 -0.0970 -0.0845  0.1482
30285SOL    HW297461   9.354   9.845   7.119 -0.3250  0.4372  0.2429
30286SOL     OW97462   7.914  12.568   6.034 -0.0581  0.0360  0.5433
30286SOL    HW197463   7.821  12.548   6.033 -0.4070  1.5336  1.0964
30286SOL    HW297464   7.937  12.569   6.127  0.6869 -0.9833  0.3966
30287SOL     OW97465   1.597   5.630   5.261  0.0839  0.1201  0.1797
30287SOL    HW197466   1.570   5.683   5.187 -1.0844  0.2462  0.6666
30287SOL    HW297467   1.660   5.684   5.308  1.5729 -0.3441 -1.2155
30288SOL     OW97468   9.929   1.147   8.158  0.0148 -0.4528  0.3135
30288SOL    HW197469   9.923   1.236   8.192 -1.5677 -0.5053  0.2854
30288SOL    HW297470   9.955   1.158   8.066 -1.7079  0.1187 -0.1468
30289SOL     OW97471   5.595   2.383  11.242 -0.1076 -0.3459  0.5178
30289SOL    HW197472   5.674   2.340  11.209  0.3678  1.2798 -0.5899
30289SOL    HW297473   5.525   2.354  11.183  0.1200 -0.0286  0.0810
30290SOL     OW97474   4.330   9.730   7.895  0.2821  0.3258 -0.1983
30290SOL    HW197475   4.266   9.773   7.837 -0.4951  1.3596  1.3604
30290SOL    HW297476   4.381   9.802   7.931  1.0837 -0.3521  0.0352
30291SOL     OW97477   1.553   6.891   2.479  0.2146 -0.3890 -0.3728
30291SOL    HW197478   1.584   6.849   2.559  0.6079 -0.1798 -0.4126
30291SOL    HW297479   1.623   6.952   2.456 -0.2035  0.0432 -0.4970
30292SOL     OW97480   0.993   5.676   3.311 -0.7194  0.3006  0.0926
30292SOL    HW197481   1.044   5.756   3.325 -2.0386  1.6617 -2.2800
30292SOL    HW297482   1.051   5.620   3.258 -0.4695  0.4321  0.2244
30293SOL     OW97483   1.433   4.658  10.496 -0.7585 -0.1005 -0.8554
30293SOL    HW197484   1.355   4.653  10.550 -0.6566 -1.7406 -0.8233
30293SOL    HW297485   1.421   4.590  10.429  1.1212 -1.1909 -0.1617
30294SOL     OW97486  11.358  11.560  12.213  0.1833  0.0020  0.7504
30294SOL    HW197487  11.328  11.543  12.302 -0.3070 -0.9168  0.4152
30294SOL    HW297488  11.442  11.604  12.224  0.7566 -1.2648  1.6619
30295SOL     OW97489   0.860   0.020   0.024 -0.9625  0.3760  0.6280
30295SOL    HW197490   0.878   0.109   0.054 -0.1728  0.8639 -1.1391
30295SOL    HW297491   0.890  -0.037   0.095  2.3876  1.3961  0.1984
30296SOL     OW97492  10.365   1.612   6.564 -0.4021  0.0426  0.0293
30296SOL    HW197493  10.341   1.701   6.537 -1.1727  0.1994  1.1592
30296SOL    HW297494  10.374   1.564   6.482 -0.7094  0.9760 -0.5752
30297SOL     OW97495   0.771   1.941   2.898  0.1334 -0.4891 -0.1241
30297SOL    HW197496   0.713   1.916   2.970 -0.9785 -0.1683 -0.8962
30297SOL    HW297497   0.788   1.859   2.852 -0.2574 -0.4786 -0.2905
30298SOL     OW97498   4.674   2.404   0.957 -1.0421 -0.2980 -0.2180
30298SOL    HW197499   4.594   2.449   0.932 -1.7655 -1.6397 -0.4302
30298SOL    HW297500   4.648   2.312   0.965  0.3743 -0.6888  0.1697
30299SOL     OW97501  11.972   3.897   4.785  0.1650 -0.0448  0.1875
30299SOL    HW197502  12.029   3.917   4.858 -0.0512  0.8258  0.1309
30299SOL    HW297503  11.947   3.982   4.750 -2.6800 -0.2743  1.3772
30300SOL     OW97504   6.196  12.462   8.009 -0.0180  0.3632 -0.4215
30300SOL    HW197505   6.121  12.405   8.028  0.1496  0.8053  1.7995
30300SOL    HW297506   6.254  12.408   7.955  0.0518 -1.5717  1.4376
30301SOL     OW97507   0.802   4.131   2.576 -0.3245 -0.4918  0.3183
30301SOL    HW197508   0.861   4.136   2.501  1.1636 -4.7105  0.9608
30301SOL    HW297509   0.853   4.166   2.649  0.1237 -0.9868  0.2493
30302SOL     OW97510   3.739  10.801   8.749 -0.2250 -0.7172  0.3649
30302SOL    HW197511   3.667  10.739   8.759 -0.6060 -0.5380 -1.0137
30302SOL    HW297512   3.705  10.883   8.785  0.0866 -1.1467  1.6930
30303SOL     OW97513   7.990   4.466  10.323  0.3086  0.2825 -0.1286
30303SOL    HW197514   7.975   4.373  10.304 -1.0583  0.3073  0.6991
30303SOL    HW297515   7.982   4.509  10.238 -2.1937 -0.0152 -0.1152
30304SOL     OW97516   4.891   5.175   4.192  0.0548  0.4596  0.3975
30304SOL    HW197517   4.940   5.257   4.192  0.2295  0.3562  0.0927
30304SOL    HW297518   4.808   5.197   4.150  0.0553  0.5060  0.4195
30305SOL     OW97519   0.269   5.180   4.866 -0.4438  0.2368 -0.3149
30305SOL    HW197520   0.346   5.124   4.873 -1.0212 -0.7115 -1.2442
30305SOL    HW297521   0.299   5.267   4.892  0.6238 -0.3665  0.5573
30306SOL     OW97522   7.846   9.279   2.580  0.8662 -0.1826  0.7835
30306SOL    HW197523   7.883   9.201   2.538  0.0451  0.2262 -0.7738
30306SOL    HW297524   7.899   9.351   2.547 -0.2583  0.2263 -0.1812
30307SOL     OW97525  11.816   3.838   1.400  0.0402 -0.2646 -0.3742
30307SOL    HW197526  11.818   3.831   1.304 -2.5516 -1.4151 -0.4244
30307SOL    HW297527  11.903   3.808   1.428  0.0452 -2.2639 -2.2728
30308SOL     OW97528  10.011   1.364  10.976 -0.1213 -0.4470 -0.4664
30308SOL    HW197529  10.000   1.277  11.014 -0.8822 -0.7617 -1.3561
30308SOL    HW297530  10.103   1.385  10.990  0.4043 -1.9617 -1.3827
30309SOL     OW97531   7.757   1.427   4.561  0.0151 -0.1793 -0.1303
30309SOL    HW197532   7.705   1.481   4.620 -1.7368 -1.3864 -0.4836
30309SOL    HW297533   7.738   1.463   4.474  2.5958  1.6046 -0.0520
30310SOL     OW97534  12.732   8.414  10.782  0.5336  0.4178  0.1210
30310SOL    HW197535  12.756   8.324  10.761  0.5908  0.2207  1.0033
30310SOL    HW297536  12.660   8.435  10.723 -0.1402 -0.5461  0.5846
30311SOL     OW97537   1.143   0.887   7.275 -0.3764  0.0194  0.6420
30311SOL    HW197538   1.230   0.848   7.263  0.4319  1.0058  2.7524
30311SOL    HW297539   1.146   0.967   7.222  0.2121  0.2900  1.0604
30312SOL     OW97540  11.748   1.103   6.436 -0.0349 -0.4581 -0.4011
30312SOL    HW197541  11.709   1.075   6.353 -0.8534 -1.8604  0.4352
30312SOL    HW297542  11.786   1.023   6.473  0.0860  0.0952  0.7062
30313SOL     OW97543   6.208   0.218   7.278 -0.0361  0.6754 -0.6093
30313SOL    HW197544   6.264   0.241   7.203  2.1173 -2.1763 -0.0165
30313SOL    HW297545   6.250   0.260   7.353  1.0782 -1.0249 -0.2430
30314SOL     OW97546  10.194   8.691   2.640 -0.4516 -0.1858 -0.0362
30314SOL    HW197547  10.213   8.603   2.609  0.2066  0.0710 -0.3752
30314SOL    HW297548  10.189   8.683   2.735 -2.0019 -0.8891 -0.1395
30315SOL     OW97549   7.373   7.684   6.277  0.6635 -0.1786 -0.1059
30315SOL    HW197550   7.361   7.753   6.212 -0.1137 -1.3416 -1.2404
30315SOL    HW297551   7.308   7.704   6.345  0.5819  0.3124 -0.3288
30316SOL     OW97552   1.495  10.214  12.103  0.3669  0.0971 -0.0803
30316SOL    HW197553   1.491  10.172  12.189  0.2750  0.7810  0.2583
30316SOL    HW297554   1.431  10.285  12.108  1.6729  1.2991 -0.0652
30317SOL     OW97555   4.809   6.569   2.726  0.0966  0.3500 -0.4930
30317SOL    HW197556   4.762   6.512   2.666 -0.8546 -0.4450  0.9330
30317SOL    HW297557   4.811   6.520   2.809  1.8669  1.1363 -0.0113
30318SOL     OW97558   8.968   2.486  12.438 -0.3462  0.0168  0.1827
30318SOL    HW197559   8.876   2.467  12.457 -0.0805 -1.3136  0.2603
30318SOL    HW297560   8.998   2.410  12.389  0.7559  0.3647  0.2907
30319SOL     OW97561   0.637   8.387   0.438  0.1071  0.7548  0.0784
30319SOL    HW197562   0.597   8.423   0.359  2.0514  2.3001 -0.3027
30319SOL    HW297563   0.683   8.308   0.408 -0.3035  0.5552 -0.0336
30320SOL     OW97564   4.291   0.763   9.809 -0.2225 -0.1089 -0.2317
30320SOL    HW197565   4.320   0.699   9.745 -1.1869  0.2526 -1.0567
30320SOL    HW297566   4.268   0.712   9.887  0.7932 -0.5630 -0.2167
30321SOL     OW97567   5.383   4.817   4.829  0.2471  0.2390  0.5726
30321SOL    HW197568   5.456   4.877   4.814 -0.0853  0.1779 -1.6166
30321SOL    HW297569   5.389   4.754   4.758 -1.5488 -0.1638  0.7233
30322SOL     OW97570  11.771  11.412   4.433  0.3698 -0.0909  0.2963
30322SOL    HW197571  11.856  11.415   4.476 -0.6028 -1.2666  2.4376
30322SOL    HW297572  11.735  11.500   4.443  0.1564 -0.3457  1.9958
30323SOL     OW97573   2.817   2.964   5.504 -0.3196  0.2803 -0.2619
30323SOL    HW197574   2.830   3.058   5.494 -1.7342  0.4454 -0.7922
30323SOL    HW297575   2.882   2.937   5.569 -0.0704  1.6616  0.0871
30324SOL     OW97576   1.513   6.656   9.543 -0.3445  0.3801 -0.1894
30324SOL    HW197577   1.593   6.609   9.565 -0.1228 -0.6302 -2.8489
30324SOL    HW297578   1.525   6.744   9.580  0.5038 -0.6988  2.2945
30325SOL     OW97579  11.661   5.258  11.059 -0.4247  0.8190 -0.0908
30325SOL    HW197580  11.597   5.206  11.011  0.2515 -2.2103  2.0290
30325SOL    HW297581  11.672   5.337  11.006  1.3240 -2.6287 -5.7167
30326SOL     OW97582   5.619   0.276   0.655  0.3203 -0.1945  0.2331
30326SOL    HW197583   5.702   0.229   0.650  0.3115 -0.2396  0.4893
30326SOL    HW297584   5.644   0.369   0.652  0.3704 -0.2095  0.1818
30327SOL     OW97585   5.083   2.563   0.114  0.0929  0.5035  0.3510
30327SOL    HW197586   5.043   2.609   0.188 -0.0497 -0.3276  0.7997
30327SOL    HW297587   5.012   2.511   0.076  0.9020 -1.7838  1.7777
30328SOL     OW97588  11.358   3.127   7.599  0.0840 -0.3260 -0.0005
30328SOL    HW197589  11.383   3.218   7.614  0.3167 -0.1818 -1.1787
30328SOL    HW297590  11.275   3.132   7.554  1.0406 -0.6167 -1.8812
30329SOL     OW97591  10.493   2.582   1.462 -0.9029  0.0673  0.4995
30329SOL    HW197592  10.477   2.521   1.391 -1.5769 -0.0776  0.7688
30329SOL    HW297593  10.512   2.527   1.538 -0.1103  0.2224  0.4176
30330SOL     OW97594   8.275   8.364   6.253  0.2573  0.0806  0.0306
30330SOL    HW197595   8.321   8.444   6.231  0.3052  0.3885  1.2115
30330SOL    HW297596   8.185   8.391   6.270 -0.4996 -0.5486 -2.5099
30331SOL     OW97597   1.651   6.053   7.623  0.5194 -0.7309 -0.5568
30331SOL    HW197598   1.621   6.127   7.570  0.0989 -2.7111 -3.3181
30331SOL    HW297599   1.728   6.087   7.670  0.3983  1.4111 -1.7541
30332SOL     OW97600   5.991   4.879   9.361  0.0105  0.3440  0.4030
30332SOL    HW197601   5.981   4.811   9.427  0.7403 -0.2941 -0.1193
30332SOL    HW297602   6.048   4.945   9.401  1.1992 -0.4707  0.1296
30333SOL     OW97603   4.179  11.125  12.289  0.1243 -0.1932  0.2120
30333SOL    HW197604   4.168  11.036  12.256 -1.3386  0.4357 -1.0520
30333SOL    HW297605   4.092  11.153  12.316  0.9094  0.0640  2.8429
30334SOL     OW97606   0.814   6.735  10.056  0.2125  0.2836 -0.4759
30334SOL    HW197607   0.821   6.829  10.040  1.4887  0.4909  1.0747
30334SOL    HW297608   0.787   6.728  10.148 -0.5678 -0.8636 -0.7761
30335SOL     OW97609  12.531   7.164   8.362 -0.2890 -0.4968 -0.1760
30335SOL    HW197610  12.445   7.144   8.399 -0.3541  0.6172  0.3351
30335SOL    HW297611  12.512   7.200   8.275 -0.4024  0.3387  0.1810
30336SOL     OW97612   9.540   6.669   8.045 -0.5602  0.2211  0.1617
30336SOL    HW197613   9.608   6.735   8.027  0.1713 -0.5400  0.0781
30336SOL    HW297614   9.587   6.596   8.085 -1.4152 -0.1193  0.5781
30337SOL     OW97615   7.382   4.566   9.864  0.5783  0.0181 -0.0433
30337SOL    HW197616   7.446   4.606   9.805  1.3149 -1.3020 -0.1939
30337SOL    HW297617   7.328   4.512   9.806 -1.1156  1.6081 -0.0106
30338SOL     OW97618   5.252   3.241   5.370  0.3502 -0.3157  0.1182
30338SOL    HW197619   5.179   3.180   5.380  0.9103 -1.0368 -0.0660
30338SOL    HW297620   5.305   3.228   5.449 -0.0133  0.6300  0.5377
30339SOL     OW97621   8.972   4.612   9.366 -0.0568 -0.5315 -0.0048
30339SOL    HW197622   9.065   4.616   9.386  0.5723 -3.6691 -1.6953
30339SOL    HW297623   8.961   4.670   9.290  0.9898 -1.6708 -1.0654
30340SOL     OW97624   9.818   0.712  11.113  0.2245 -0.2301  0.1004
30340SOL    HW197625   9.826   0.620  11.137 -0.7628  0.0522  1.6913
30340SOL    HW297626   9.783   0.711  11.024 -0.8639 -1.4279  0.5130
30341SOL     OW97627   8.348   3.485   6.815  0.1832  0.8052 -0.1059
30341SOL    HW197628   8.360   3.408   6.871  1.1675  1.5024  0.6673
30341SOL    HW297629   8.318   3.554   6.875 -0.3366  1.1273 -0.7256
30342SOL     OW97630   7.139   1.242   1.294 -0.1282 -0.2412  0.4704
30342SOL    HW197631   7.054   1.261   1.254 -0.3973 -1.6801  0.3111
30342SOL    HW297632   7.138   1.291   1.377 -2.2903 -2.3782  1.8291
30343SOL     OW97633   6.720   1.184  12.215 -0.4158 -0.0410  0.5290
30343SOL    HW197634   6.782   1.111  12.222  0.2180  0.5180  0.8469
30343SOL    HW297635   6.773   1.257  12.182 -0.9541  0.3940  0.6133
30344SOL     OW97636   4.816   8.105   9.136 -0.0641  0.3256 -0.3460
30344SOL    HW197637   4.903   8.100   9.097  0.4129 -0.6348  0.7856
30344SOL    HW297638   4.756   8.088   9.064  0.7287 -0.0046 -0.9381
30345SOL     OW97639   4.546   8.420  11.186  0.3728  0.2245 -0.6121
30345SOL    HW197640   4.578   8.353  11.126  0.6691 -0.3774  0.1982
30345SOL    HW297641   4.463   8.385  11.219  0.6330  0.1507 -0.0250
30346SOL     OW97642   5.526   3.532  11.411 -0.0628  0.2669 -0.0709
30346SOL    HW197643   5.533   3.436  11.410 -0.6932  0.2082  0.1356
30346SOL    HW297644   5.616   3.563  11.405  0.1024 -0.3379 -0.8855
30347SOL     OW97645   3.375   1.636   4.916  0.0239  0.1687  0.3476
30347SOL    HW197646   3.382   1.715   4.968  0.6660  0.4228 -0.1084
30347SOL    HW297647   3.379   1.666   4.825  2.0530 -0.5030  0.1576
30348SOL     OW97648   6.870   8.529  11.916  0.1898  0.1429  0.0153
30348SOL    HW197649   6.778   8.523  11.891 -0.3974  1.5437  1.6375
30348SOL    HW297650   6.896   8.618  11.893  0.9448 -0.0338  0.1493
30349SOL     OW97651   7.672   0.663   0.094 -0.2227 -0.0410 -0.5146
30349SOL    HW197652   7.686   0.732   0.029 -0.2908  0.5507  0.0877
30349SOL    HW297653   7.745   0.674   0.155  0.7068 -1.5527 -1.2955
30350SOL     OW97654   3.923   8.740   6.461 -0.5459  0.5493  0.3344
30350SOL    HW197655   3.958   8.735   6.372  1.5888  0.6949  1.1045
30350SOL    HW297656   3.896   8.650   6.481  0.3726  0.2022  0.0636
30351SOL     OW97657   9.990  12.731   3.897  0.8012  0.7034  0.0984
30351SOL    HW197658   9.918  12.670   3.879  1.1975  0.4096 -0.5459
30351SOL    HW297659  10.020  12.708   3.985  1.7243 -0.8571 -0.5827
30352SOL     OW97660   0.709  10.821   3.909  0.4296  0.4347  0.1835
30352SOL    HW197661   0.746  10.867   3.834  0.4889  0.6654  0.3541
30352SOL    HW297662   0.649  10.884   3.950  0.3439  0.2866  0.2884
30353SOL     OW97663   5.380   1.097   5.876  0.2708  0.2908  0.1012
30353SOL    HW197664   5.353   1.098   5.968 -2.1885 -1.6326 -0.5007
30353SOL    HW297665   5.409   1.007   5.860 -0.5501  0.2402 -1.2940
30354SOL     OW97666  10.805   3.116  11.240 -0.3420  0.0431  0.4247
30354SOL    HW197667  10.884   3.138  11.190 -0.9439 -0.2981 -0.6947
30354SOL    HW297668  10.835   3.053  11.305 -0.0516 -1.7894 -1.3785
30355SOL     OW97669   7.965   2.499  11.938 -0.4025 -0.0993  0.5244
30355SOL    HW197670   8.037   2.440  11.919 -0.0228  0.7892 -0.9827
30355SOL    HW297671   7.944   2.540  11.853 -2.7275 -0.3859  0.8787
30356SOL     OW97672   9.675   2.226   4.822  0.0407 -0.3667  0.0470
30356SOL    HW197673   9.709   2.205   4.909 -0.5759  0.9275  0.6136
30356SOL    HW297674   9.752   2.251   4.771  0.3832 -0.9897  0.2456
30357SOL     OW97675   4.680  12.638   2.336  0.1212 -0.2443 -0.2215
30357SOL    HW197676   4.722  12.712   2.292 -0.3910  0.8173  1.0099
30357SOL    HW297677   4.612  12.609   2.275 -0.3318  0.9568 -0.3118
30358SOL     OW97678   3.708   7.526   3.211  0.5342  0.3259  0.3532
30358SOL    HW197679   3.691   7.562   3.124 -2.8128  1.1364  1.2056
30358SOL    HW297680   3.671   7.437   3.207 -0.0505  0.5263  1.0247
30359SOL     OW97681   9.817   1.781   0.160 -0.0784 -0.3463  0.3732
30359SOL    HW197682   9.844   1.870   0.134  0.8913 -0.8771 -0.5299
30359SOL    HW297683   9.819   1.782   0.255 -1.6763  1.0677  0.4425
30360SOL     OW97684  10.588   4.386   7.570  0.0832 -0.0669 -0.2029
30360SOL    HW197685  10.668   4.438   7.579  0.3641 -0.4477 -0.5030
30360SOL    HW297686  10.530   4.440   7.517 -0.0473  0.4263  0.4363
30361SOL     OW97687   1.223   2.321   6.416 -0.4817 -0.0613 -0.2337
30361SOL    HW197688   1.129   2.305   6.409 -0.4227 -0.7935  0.4846
30361SOL    HW297689   1.239   2.328   6.510  0.4402 -1.6388 -0.2344
30362SOL     OW97690   0.860   0.003   7.856 -0.2026 -0.3929  0.0078
30362SOL    HW197691   0.870  -0.091   7.841  0.9890 -0.1056 -1.2170
30362SOL    HW297692   0.878   0.014   7.949  1.0765 -1.2272 -0.1018
30363SOL     OW97693   7.530   4.323   2.324 -0.2541  0.3386  0.5206
30363SOL    HW197694   7.460   4.261   2.344 -0.2004 -0.3958 -1.3720
30363SOL    HW297695   7.532   4.327   2.228  1.8564  0.8478  0.5322
30364SOL     OW97696   3.496   8.161  10.952 -0.3066 -0.3526  0.3372
30364SOL    HW197697   3.442   8.084  10.973 -3.0254  1.2553 -0.2489
30364SOL    HW297698   3.563   8.128  10.893 -1.7201 -2.2134 -0.3243
30365SOL     OW97699   1.638   3.841   8.549 -0.1182  0.1079 -0.7315
30365SOL    HW197700   1.688   3.922   8.558  0.0289 -0.1155  0.6780
30365SOL    HW297701   1.591   3.832   8.632  0.5413 -1.6893 -0.5023
30366SOL     OW97702   9.525   0.911   9.480  0.1469 -0.0109 -0.0859
30366SOL    HW197703   9.608   0.871   9.454  1.1149  1.5831  0.3870
30366SOL    HW297704   9.497   0.860   9.556  1.5656  0.4049  0.7695
30367SOL     OW97705  12.161   6.729   3.338  0.2633  0.1260 -0.0124
30367SOL    HW197706  12.233   6.672   3.364 -1.1726 -0.6149  2.8148
30367SOL    HW297707  12.195   6.818   3.346  1.7189 -0.2029 -1.8424
30368SOL     OW97708  11.594   3.023   6.289  0.6114  0.0816  0.3783
30368SOL    HW197709  11.644   3.079   6.348 -2.2939  0.5396  2.6437
30368SOL    HW297710  11.558   3.083   6.223  0.4520  0.2754  0.6407
30369SOL     OW97711   1.055   9.504   8.923 -0.1091 -0.3403 -0.0976
30369SOL    HW197712   1.059   9.420   8.877 -0.5676 -0.0147 -0.7500
30369SOL    HW297713   0.966   9.509   8.957 -0.0593 -0.1503  0.0073
30370SOL     OW97714   2.339   4.490  10.584 -0.3038 -0.2873 -0.1074
30370SOL    HW197715   2.375   4.483  10.496 -0.8272 -0.4916 -0.3110
30370SOL    HW297716   2.254   4.447  10.578 -1.1367  1.2480  0.0418
30371SOL     OW97717   5.474   2.616   7.729 -0.3625  0.9344 -0.2475
30371SOL    HW197718   5.454   2.690   7.672  0.7972  2.0542  0.7577
30371SOL    HW297719   5.485   2.654   7.816  0.0392 -0.4486  0.3413
30372SOL     OW97720   6.597   5.026   2.725 -1.1430  0.0557  0.1555
30372SOL    HW197721   6.573   5.117   2.742 -0.3548 -0.0326  1.9684
30372SOL    HW297722   6.625   4.992   2.810 -0.6604 -1.6607 -0.6377
30373SOL     OW97723   5.184  12.400   5.929 -0.2509  0.0899  0.3020
30373SOL    HW197724   5.157  12.434   5.844 -1.6058 -0.4416  0.4981
30373SOL    HW297725   5.104  12.400   5.982  0.0850 -1.6293  0.8851
30374SOL     OW97726   2.556  10.129  10.572  0.1335  0.3731  0.0372
30374SOL    HW197727   2.569  10.091  10.659  0.9459  0.4370 -0.0519
30374SOL    HW297728   2.644  10.143  10.538 -0.1580  1.4877 -0.3102
30375SOL     OW97729   3.139   8.613  10.273 -0.2345 -0.5879  0.4148
30375SOL    HW197730   3.059   8.641  10.317 -0.1930  0.0520  0.0930
30375SOL    HW297731   3.126   8.520  10.256 -1.0472 -0.4232  0.0854
30376SOL     OW97732  11.999   2.979   7.062  0.0530  0.7486 -0.0951
30376SOL    HW197733  12.046   3.051   7.022 -0.9184  2.1914  1.2566
30376SOL    HW297734  12.027   2.978   7.153 -0.0650 -0.5042 -0.0420
30377SOL     OW97735   1.903   1.288  10.588  0.0285 -0.9018 -0.0453
30377SOL    HW197736   1.970   1.244  10.534  1.5404  0.5011  0.6009
30377SOL    HW297737   1.925   1.262  10.678  1.8084  2.0372  0.5129
30378SOL     OW97738   9.155   7.324   0.632  0.0799  0.4264 -0.4845
30378SOL    HW197739   9.088   7.391   0.619 -0.2654  0.4866  1.3730
30378SOL    HW297740   9.236   7.373   0.642  0.6385  0.3268 -3.5336
30379SOL     OW97741   5.174   5.353   0.667  0.2586  0.1664 -0.1557
30379SOL    HW197742   5.100   5.292   0.669  0.7847 -0.6286 -2.2584
30379SOL    HW297743   5.141   5.432   0.710 -1.5307 -0.4785 -0.2433
30380SOL     OW97744  12.409   7.732   8.638 -0.2975  0.6260  0.4342
30380SOL    HW197745  12.363   7.695   8.563  1.7351 -0.5150 -0.3370
30380SOL    HW297746  12.440   7.818   8.607  1.3428 -0.2268 -0.4557
30381SOL     OW97747   0.531   5.035   8.997 -0.6168 -0.3960  0.4986
30381SOL    HW197748   0.620   5.069   8.995 -0.6053  0.1810  3.8903
30381SOL    HW297749   0.478   5.100   8.952  0.1868  1.4062  2.0123
30382SOL     OW97750   8.195  10.511   4.094 -0.7865 -0.0115  0.6305
30382SOL    HW197751   8.173  10.470   4.177  0.9549  0.2350  1.2621
30382SOL    HW297752   8.266  10.457   4.059 -1.0875  0.2422 -0.4020
30383SOL     OW97753   6.971   5.620   0.203  0.0201  0.0339 -0.3298
30383SOL    HW197754   7.031   5.662   0.266  0.0308 -1.5046  0.7305
30383SOL    HW297755   7.010   5.535   0.186 -1.0053 -0.3315 -0.9280
30384SOL     OW97756   8.890   3.044   4.972  0.4776 -0.4294  0.1561
30384SOL    HW197757   8.924   3.042   5.061  1.3639 -2.4968 -0.1798
30384SOL    HW297758   8.886   3.137   4.950 -1.1672  0.2376  2.8331
30385SOL     OW97759  11.637  11.072   3.960  0.2307 -0.4405  0.0560
30385SOL    HW197760  11.688  11.122   3.895 -0.5386 -0.6767 -0.7538
30385SOL    HW297761  11.573  11.135   3.993 -1.1994 -1.0180 -1.4760
30386SOL     OW97762  10.610   9.550   5.969  0.1436 -0.0880 -0.0633
30386SOL    HW197763  10.605   9.462   5.933  1.0915  0.2943 -1.2055
30386SOL    HW297764  10.652   9.538   6.055 -0.2846 -0.7961  0.0585
30387SOL     OW97765  10.116   8.416  11.433 -0.7579 -0.4137 -0.3889
30387SOL    HW197766  10.149   8.458  11.512  0.7574 -1.3161 -0.4948
30387SOL    HW297767  10.192   8.411  11.375 -0.8487 -3.1401 -0.4158
30388SOL     OW97768   4.402   5.351   5.998 -0.1154  0.3848 -0.9099
30388SOL    HW197769   4.478   5.302   5.964  0.1053 -0.1626  0.3195
30388SOL    HW297770   4.435   5.439   6.014  0.8584 -0.3361  1.4766
30389SOL     OW97771   0.240   5.770   0.667  0.0421  0.4115 -0.0023
30389SOL    HW197772   0.236   5.816   0.583 -0.3945  1.3412  0.5063
30389SOL    HW297773   0.223   5.678   0.645 -4.2981  1.1486 -0.5137
30390SOL     OW97774   0.229   6.024   9.706 -0.2266  0.4471 -0.1120
30390SOL    HW197775   0.262   6.098   9.756  0.4163 -0.5857  1.0642
30390SOL    HW297776   0.265   6.037   9.618  0.8522  0.9235  0.3784
30391SOL     OW97777   9.709   7.738  11.624  0.0474 -0.1506 -0.2817
30391SOL    HW197778   9.624   7.754  11.583 -0.2331 -2.1999 -0.5866
30391SOL    HW297779   9.772   7.748  11.554 -0.1540 -0.7053 -0.5464
30392SOL     OW97780   5.583   1.170   1.173  0.2363  0.1735  0.0228
30392SOL    HW197781   5.597   1.260   1.200 -0.7265  0.7502 -1.3214
30392SOL    HW297782   5.489   1.156   1.182  0.2687 -0.4455 -0.4794
30393SOL     OW97783  11.093   2.200   4.247  0.4725  0.3064 -0.3398
30393SOL    HW197784  11.090   2.255   4.326 -1.0050 -0.3901  0.1256
30393SOL    HW297785  11.146   2.250   4.185  2.0315  0.6680  1.2335
30394SOL     OW97786   9.864   1.586  10.959  0.1072  0.1467 -0.1482
30394SOL    HW197787   9.904   1.499  10.967 -0.8034 -0.4356 -1.3712
30394SOL    HW297788   9.933   1.641  10.923  0.4128 -0.3231 -0.2902
30395SOL     OW97789   4.058  12.233   2.585  0.2921  0.1977  0.5670
30395SOL    HW197790   4.088  12.261   2.499 -0.2606  0.1829  0.3639
30395SOL    HW297791   4.119  12.273   2.646  0.7698  0.0972  0.1639
30396SOL     OW97792   2.833  11.361  11.392  0.4647 -0.1732 -0.0516
30396SOL    HW197793   2.751  11.396  11.358 -0.1350 -0.8228  0.6686
30396SOL    HW297794   2.808  11.279  11.435  1.4652 -0.3049  0.3134
30397SOL     OW97795   5.467  11.095   4.816 -0.0306 -0.0653 -0.0217
30397SOL    HW197796   5.554  11.076   4.851  0.1360  0.3018 -0.2313
30397SOL    HW297797   5.447  11.183   4.847 -0.3218 -0.1443  0.0154
30398SOL     OW97798   5.285   8.929   7.436 -0.2988 -0.2175  0.3319
30398SOL    HW197799   5.308   8.905   7.347 -0.7483  0.3214  0.0689
30398SOL    HW297800   5.214   8.869   7.460 -0.7415  0.1842  0.0315
30399SOL     OW97801   6.474   2.498   8.641 -0.5614  0.4170 -0.3445
30399SOL    HW197802   6.387   2.516   8.606 -0.2352  1.1222 -0.8162
30399SOL    HW297803   6.511   2.433   8.582  0.0234  1.6694 -1.4209
30400SOL     OW97804   4.954  12.782   0.176  0.3989  0.3604 -0.2005
30400SOL    HW197805   4.907  12.742   0.250  0.2824  0.3289 -0.2920
30400SOL    HW297806   5.023  12.720   0.155  1.2641  0.9725  0.7376
30401SOL     OW97807   0.251   4.975   8.325 -0.5667 -0.3353 -0.1623
30401SOL    HW197808   0.260   5.051   8.382 -0.7225 -1.4470  1.4150
30401SOL    HW297809   0.176   4.928   8.360 -0.2065 -1.4350 -0.8320
30402SOL     OW97810  11.940   2.482   1.103  0.3753 -0.1084 -0.0397
30402SOL    HW197811  11.901   2.518   1.024  0.1408 -0.2511  0.0101
30402SOL    HW297812  12.030   2.460   1.077  0.3739  0.0723 -0.1983
30403SOL     OW97813   6.251   5.136   2.601 -0.0798  0.8711  0.4180
30403SOL    HW197814   6.170   5.133   2.653 -0.1308  0.5081  0.3196
30403SOL    HW297815   6.288   5.222   2.620  1.0674 -0.0471  2.8506
30404SOL     OW97816  12.409   3.373   5.845 -0.2276  0.3951  0.4624
30404SOL    HW197817  12.391   3.463   5.869  0.1886  0.8669 -0.8902
30404SOL    HW297818  12.503   3.361   5.860 -0.1125  0.4638 -0.1775
30405SOL     OW97819   2.865   3.282   1.404  0.2982 -0.5163  0.4270
30405SOL    HW197820   2.905   3.221   1.343 -1.0450 -1.5176  0.5017
30405SOL    HW297821   2.939   3.318   1.454  1.2372 -1.0403 -0.5471
30406SOL     OW97822   3.182   5.769   5.341  0.3093  0.6160 -0.1862
30406SOL    HW197823   3.168   5.723   5.258  0.0707  0.8261 -0.2638
30406SOL    HW297824   3.268   5.809   5.332  0.2323  0.7392 -0.3804
30407SOL     OW97825   8.370   5.439   8.764 -0.2734  0.2086  0.4957
30407SOL    HW197826   8.331   5.525   8.746  0.6854  0.2431 -1.7915
30407SOL    HW297827   8.310   5.377   8.723  0.8266  0.1011 -1.0452
30408SOL     OW97828   3.201  10.232   7.112 -0.5408 -0.7943  0.0637
30408SOL    HW197829   3.254  10.256   7.188 -0.8031 -0.4927  0.1548
30408SOL    HW297830   3.123  10.192   7.149 -1.6382  1.2379  0.0600
30409SOL     OW97831   3.576   9.574   8.628  0.1826  0.0516 -0.4648
30409SOL    HW197832   3.496   9.625   8.617  0.3891  0.0157 -2.7736
30409SOL    HW297833   3.550   9.484   8.609  0.3306 -0.3551  1.1137
30410SOL     OW97834   3.247   9.269   7.283  0.1489 -0.7904  0.4301
30410SOL    HW197835   3.326   9.239   7.239 -0.7505  1.0581 -2.7257
30410SOL    HW297836   3.277   9.339   7.341  0.9927 -1.2384  0.5557
30411SOL     OW97837   2.017   4.877   7.808  0.1727 -0.0739 -0.5080
30411SOL    HW197838   2.018   4.788   7.771 -1.7063  0.6070 -2.4495
30411SOL    HW297839   2.094   4.919   7.772  0.1530 -0.4204 -0.9685
30412SOL     OW97840   2.252  11.793   7.009  0.2886  0.3740 -0.0738
30412SOL    HW197841   2.212  11.866   6.962  0.8559  0.7574  0.0311
30412SOL    HW297842   2.337  11.781   6.968  0.6072  0.4251  0.5488
30413SOL     OW97843   7.285   4.226   3.456  0.2809  0.0465  0.0795
30413SOL    HW197844   7.316   4.148   3.503 -0.0661  0.2714  0.7036
30413SOL    HW297845   7.277   4.293   3.525 -1.0681  0.1395 -0.1529
30414SOL     OW97846   4.545   2.580   7.252 -0.0091 -0.1047  0.2962
30414SOL    HW197847   4.461   2.585   7.208 -1.3228  0.5190  2.7179
30414SOL    HW297848   4.526   2.545   7.339  2.1863  0.3031  1.0262
30415SOL     OW97849  10.958   0.557   0.527 -0.5858 -0.1374 -0.0367
30415SOL    HW197850  10.868   0.527   0.516 -0.5377  0.5289 -2.8776
30415SOL    HW297851  11.010   0.477   0.527 -1.1850 -0.7380  3.8473
30416SOL     OW97852   3.484  11.073   7.538 -0.0426 -0.6975  0.2520
30416SOL    HW197853   3.389  11.058   7.534  0.0917 -2.0731  1.5794
30416SOL    HW297854   3.493  11.166   7.556 -1.1445 -0.5917  0.2987
30417SOL     OW97855   3.713  11.607  11.400 -0.5400 -0.0747  0.0339
30417SOL    HW197856   3.632  11.652  11.375 -0.1792  0.0490 -0.9705
30417SOL    HW297857   3.708  11.598  11.495 -3.2318 -2.8380 -0.2107
30418SOL     OW97858   3.459   8.219   8.895  0.4770 -0.3566 -0.3195
30418SOL    HW197859   3.488   8.142   8.846  0.4846  0.0869 -1.0263
30418SOL    HW297860   3.538   8.252   8.936  0.5698 -0.4236 -0.4435
30419SOL     OW97861  11.716   8.191   0.739 -0.3986 -0.1146  0.4004
30419SOL    HW197862  11.638   8.135   0.730 -1.2623  0.9803  0.8512
30419SOL    HW297863  11.760   8.157   0.817 -0.7706 -0.3265  0.5216
30420SOL     OW97864   8.198  12.049  11.705  0.1926 -0.1793  0.0738
30420SOL    HW197865   8.246  12.073  11.784  0.3032  0.8365 -0.2885
30420SOL    HW297866   8.187  12.132  11.658 -0.8993 -0.5782 -0.4058
30421SOL     OW97867   9.649   1.246  10.317  0.4763  0.2500  0.8179
30421SOL    HW197868   9.608   1.264  10.233 -0.3774  0.3157  1.2361
30421SOL    HW297869   9.596   1.176  10.355  1.0029  0.0499  1.1931
30422SOL     OW97870   1.437   5.912   9.538 -0.5949  0.3015 -0.2551
30422SOL    HW197871   1.351   5.918   9.580  0.1162 -0.3253  1.3961
30422SOL    HW297872   1.488   5.856   9.597  0.7324  0.0631 -1.5710
30423SOL     OW97873   5.124   4.680   4.276 -0.1538  0.8449 -0.2838
30423SOL    HW197874   5.109   4.773   4.296  0.0783  0.9484 -0.5825
30423SOL    HW297875   5.081   4.667   4.192 -2.2675  0.0908  0.8339
30424SOL     OW97876   3.940  10.116   0.752 -0.2870  0.2864  0.3657
30424SOL    HW197877   3.927  10.166   0.671  0.0643  0.6768  0.5491
30424SOL    HW297878   3.901  10.170   0.820  0.9234  0.7617  0.7031
30425SOL     OW97879   4.024   4.056  10.321  0.3926  0.7063  0.0964
30425SOL    HW197880   3.936   4.019  10.324  0.9665 -0.7374 -0.0872
30425SOL    HW297881   4.013   4.142  10.280 -0.9587  0.6534  0.3273
30426SOL     OW97882   0.183   3.875   2.386 -0.8282 -0.1234  0.1352
30426SOL    HW197883   0.114   3.936   2.411 -2.0627 -1.1862 -0.5556
30426SOL    HW297884   0.209   3.902   2.298 -0.2886  0.3249  0.4257
30427SOL     OW97885  11.942   8.836  10.341  0.1647  0.8530  0.1274
30427SOL    HW197886  11.988   8.918  10.355  1.3361  1.1200 -3.9119
30427SOL    HW297887  11.860   8.861  10.299 -0.6768  0.0563  1.2565
30428SOL     OW97888   0.013   2.122   1.482 -0.4686 -0.5240 -0.0019
30428SOL    HW197889  -0.036   2.061   1.537  0.2583 -0.1533  1.0985
30428SOL    HW297890  -0.023   2.208   1.505 -1.0164 -0.4655 -1.0416
30429SOL     OW97891  11.977  12.715   7.684  0.0062  0.1672 -0.0178
30429SOL    HW197892  12.019  12.704   7.769  0.3959 -0.2062 -0.2496
30429SOL    HW297893  12.043  12.685   7.621 -0.7945 -0.9232 -0.3663
30430SOL     OW97894   7.237   3.966   2.208  0.2758  0.0537 -0.3355
30430SOL    HW197895   7.250   3.923   2.124  2.8180  0.6514 -0.3318
30430SOL    HW297896   7.195   3.900   2.263 -1.2263 -0.4192 -1.9408
30431SOL     OW97897   8.918  10.381  11.252  0.0929 -0.0968  0.2327
30431SOL    HW197898   8.868  10.404  11.331 -0.0607 -0.4390  0.2368
30431SOL    HW297899   8.907  10.286  11.243  2.8432 -0.6438  1.6781
30432SOL     OW97900   4.133   0.572   5.067  0.7269 -0.3828  0.3683
30432SOL    HW197901   4.065   0.582   5.000  0.7086 -0.2703  0.4043
30432SOL    HW297902   4.087   0.545   5.146  0.5351  1.1406  0.8054
30433SOL     OW97903   3.178   2.362   0.415  0.2718  0.0695  0.3282
30433SOL    HW197904   3.192   2.431   0.351  0.7205 -0.4148 -0.1030
30433SOL    HW297905   3.089   2.377   0.447 -0.5087 -0.4927 -1.4399
30434SOL     OW97906   3.822   2.878   8.683 -0.9859  0.2028  0.3605
30434SOL    HW197907   3.855   2.944   8.745 -2.7787  0.6729  0.8626
30434SOL    HW297908   3.898   2.858   8.627  0.2333  0.9437  1.6829
30435SOL     OW97909  11.550   6.719   6.014  0.1052 -0.7156  0.1253
30435SOL    HW197910  11.613   6.694   5.947 -0.0941 -1.3329  0.1593
30435SOL    HW297911  11.596   6.782   6.069  0.3640 -0.4265 -0.4245
30436SOL     OW97912   6.726   0.700   2.475 -0.4703 -0.2111  0.1178
30436SOL    HW197913   6.654   0.661   2.525 -0.5111  0.1815  0.3713
30436SOL    HW297914   6.687   0.724   2.391 -0.3377 -1.1135 -0.2056
30437SOL     OW97915   5.838  12.217   7.704 -0.4479 -0.2520 -0.2128
30437SOL    HW197916   5.760  12.260   7.671  0.7815  1.8426 -0.5425
30437SOL    HW297917   5.848  12.139   7.649 -3.7755 -2.1817  1.6083
30438SOL     OW97918   1.826   3.424   0.114  0.7349  0.4103 -0.3771
30438SOL    HW197919   1.851   3.514   0.135 -0.3613  0.2045  2.2260
30438SOL    HW297920   1.790   3.429   0.025  1.4524  2.3617 -0.6025
30439SOL     OW97921  11.267   8.577   6.591 -0.3048 -0.6382 -0.1184
30439SOL    HW197922  11.242   8.574   6.499 -1.4720 -0.6472  0.1880
30439SOL    HW297923  11.259   8.669   6.615  0.0687 -0.6244 -0.0442
30440SOL     OW97924   6.149   0.438   9.215  0.2886 -0.6473 -0.7115
30440SOL    HW197925   6.123   0.349   9.236  0.7535 -0.9650 -1.4394
30440SOL    HW297926   6.221   0.428   9.153 -0.8352  0.2162 -2.2347
30441SOL     OW97927   2.802   1.959  10.134  0.3392  0.0345  0.6010
30441SOL    HW197928   2.853   1.927  10.060  0.3912  0.3306  0.5087
30441SOL    HW297929   2.732   1.895  10.144  0.1170  0.1909  0.0615
30442SOL     OW97930  12.310   1.217   4.106 -0.2167 -0.6803 -0.1065
30442SOL    HW197931  12.345   1.305   4.087 -1.5862  0.2847  1.5628
30442SOL    HW297932  12.327   1.167   4.026 -1.3783  1.7311 -2.0034
30443SOL     OW97933   6.832   3.190   0.103 -0.1831 -0.1473 -0.7172
30443SOL    HW197934   6.912   3.205   0.053  0.1867  0.6423  0.0962
30443SOL    HW297935   6.780   3.132   0.047  0.2319  0.6741 -2.0081
30444SOL     OW97936   6.956  11.094  11.302 -0.4548  0.2098  0.0463
30444SOL    HW197937   6.936  11.058  11.389 -0.6142 -1.0132 -0.4660
30444SOL    HW297938   6.982  11.017  11.251  2.1766  1.2584 -0.2907
30445SOL     OW97939   4.053   7.859  11.653 -0.2634  0.3839 -0.4308
30445SOL    HW197940   4.147   7.867  11.672 -0.4839 -1.6183  1.9615
30445SOL    HW297941   4.015   7.939  11.688 -0.0356 -1.1978  3.9526
30446SOL     OW97942  12.448   5.083   1.536  0.5484  0.4760 -0.1431
30446SOL    HW197943  12.440   5.179   1.533 -0.6627  0.5643  2.5420
30446SOL    HW297944  12.413   5.054   1.452 -0.4692  2.3603 -0.4377
30447SOL     OW97945  12.777   1.730   5.256 -0.3621  0.4772 -0.1711
30447SOL    HW197946  12.714   1.775   5.200  0.3146  1.3250 -0.2613
30447SOL    HW297947  12.856   1.722   5.202 -0.7875 -1.8368 -0.5769
30448SOL     OW97948  10.802   4.604  11.426 -0.1927  0.0307  0.4760
30448SOL    HW197949  10.730   4.665  11.441 -0.0110  0.1976  0.6781
30448SOL    HW297950  10.814   4.604  11.331 -0.8569 -0.4615  0.3866
30449SOL     OW97951   4.024   4.144   4.776  0.2922  0.4900 -0.6389
30449SOL    HW197952   3.996   4.213   4.835 -0.5302 -0.5884  0.2909
30449SOL    HW297953   3.946   4.123   4.725  1.3617  2.4934 -3.3458
30450SOL     OW97954   6.755   2.072  11.053  0.1539  0.1262  0.2877
30450SOL    HW197955   6.735   2.109  10.967 -0.8042 -0.1120  0.3954
30450SOL    HW297956   6.682   2.013  11.071  0.6853 -0.3306  0.9756
30451SOL     OW97957   9.952  11.621   2.013  0.6320 -0.0049  0.7868
30451SOL    HW197958   9.862  11.653   2.020  0.1564 -1.2361  0.5591
30451SOL    HW297959   9.945  11.542   1.959  1.7283 -0.6348  1.5399
30452SOL     OW97960   9.979   9.460   5.392  0.1503 -0.0408  0.0976
30452SOL    HW197961   9.908   9.398   5.402  1.5525 -1.5256  1.4861
30452SOL    HW297962  10.055   9.407   5.369  0.8307  1.5003 -1.4945
30453SOL     OW97963   7.299   6.500   8.972  0.1690 -0.8845 -0.0497
30453SOL    HW197964   7.309   6.494   8.877  0.4167 -1.9807  0.0304
30453SOL    HW297965   7.218   6.453   8.990 -1.1938  1.3416  0.0842
30454SOL     OW97966   0.435   0.287   8.155  0.1417 -0.4452  0.3047
30454SOL    HW197967   0.371   0.219   8.134 -2.5824  1.8032  0.7465
30454SOL    HW297968   0.463   0.321   8.069 -1.2868  0.2544  0.0836
30455SOL     OW97969  11.836   2.241   1.657 -0.0231 -0.0383  0.0796
30455SOL    HW197970  11.843   2.328   1.618  1.5874  0.6596  1.7524
30455SOL    HW297971  11.765   2.249   1.721  0.4848  0.2659  0.6295
30456SOL     OW97972   1.100   8.071   1.826 -0.5969  0.0662  0.0276
30456SOL    HW197973   1.115   8.109   1.913 -2.6634  1.2177 -0.0347
30456SOL    HW297974   1.173   8.103   1.773  1.4999 -1.8139  1.5885
30457SOL     OW97975  12.060  10.850   0.020  0.5263  0.5075  0.0278
30457SOL    HW197976  12.097  10.881  -0.062  1.9512 -0.3886  0.3060
30457SOL    HW297977  12.022  10.765  -0.001  1.5071 -0.0436  0.4165
30458SOL     OW97978   9.568  11.782  11.987  0.7171  0.2492 -0.1100
30458SOL    HW197979   9.475  11.798  12.000  0.4104 -1.6054  0.3200
30458SOL    HW297980   9.592  11.837  11.913 -0.3989  1.7556  0.6075
30459SOL     OW97981   0.855   6.332   1.289  0.0961  0.5207 -0.0310
30459SOL    HW197982   0.802   6.343   1.367  1.1507  0.7742  0.6695
30459SOL    HW297983   0.883   6.421   1.265  1.8629  0.2422  0.8240
30460SOL     OW97984   2.961   1.554   7.778 -0.4345  0.2112  0.3036
30460SOL    HW197985   3.050   1.525   7.757 -0.9682  0.2858 -2.4092
30460SOL    HW297986   2.909   1.474   7.773 -0.7973  0.4671 -0.1157
30461SOL     OW97987   5.868   3.769   9.738 -0.4200  0.0925 -0.0905
30461SOL    HW197988   5.826   3.758   9.652 -1.1040  1.4414  0.0433
30461SOL    HW297989   5.862   3.683   9.778 -1.5012 -0.1859 -0.7945
30462SOL     OW97990   0.391   7.354   7.786  0.5935  0.2299  0.0470
30462SOL    HW197991   0.341   7.430   7.756 -1.5625 -0.8827  0.6365
30462SOL    HW297992   0.345   7.279   7.748  1.9452 -0.8407  0.4725
30463SOL     OW97993   1.058  11.644   0.020 -0.1743 -0.3402  0.0327
30463SOL    HW197994   1.019  11.590  -0.048  3.4811 -1.6464 -1.2906
30463SOL    HW297995   1.040  11.597   0.102 -0.4183 -1.4285 -0.6323
30464SOL     OW97996  11.997   8.285  11.395  0.7522  0.2525 -0.2435
30464SOL    HW197997  12.083   8.267  11.358  0.9968  0.0501  0.4215
30464SOL    HW297998  11.938   8.225  11.350  1.3183 -1.2052  0.8961
30465SOL     OW97999   3.040  11.477   0.173  0.4209 -0.1346  0.5030
30465SOL    HW198000   2.993  11.436   0.101 -1.3107  2.1181  0.2536
30465SOL    HW298001   3.132  11.462   0.153 -0.0452 -0.6158 -1.5316
30466SOL     OW98002   9.485   5.184   6.945 -0.0825  0.3696  0.3936
30466SOL    HW198003   9.493   5.095   6.978  0.5709  0.5544  0.7635
30466SOL    HW298004   9.410   5.221   6.992 -0.6180 -0.1090 -0.0680
30467SOL     OW98005  12.508   8.259  10.229  0.6341  0.2248 -0.2546
30467SOL    HW198006  12.499   8.198  10.303  0.7365 -0.8316 -1.0828
30467SOL    HW298007  12.497   8.346  10.268  0.2371 -0.3288  0.9261
30468SOL     OW98008  11.547   4.268  10.857 -0.8194 -0.0348  0.4999
30468SOL    HW198009  11.530   4.353  10.898 -2.5056  0.1722 -0.5493
30468SOL    HW298010  11.479   4.210  10.892 -2.0855  0.0571 -1.6202
30469SOL     OW98011   4.623   9.081   9.067  0.1175  0.2134 -0.0418
30469SOL    HW198012   4.608   9.031   8.987 -0.6502  0.3594  0.0072
30469SOL    HW298013   4.637   9.014   9.134  3.6732  0.0395 -0.7598
30470SOL     OW98014  11.846  10.294   7.001  0.1842 -0.0017  0.1159
30470SOL    HW198015  11.773  10.343   6.964  2.0763  1.5954 -1.7523
30470SOL    HW298016  11.869  10.231   6.932  0.1971 -0.9050  0.9313
30471SOL     OW98017   2.040   7.786  10.033  0.1289  0.1671  0.3788
30471SOL    HW198018   2.057   7.793   9.939 -0.7489 -0.3303  0.1738
30471SOL    HW298019   2.092   7.710  10.061 -1.4834 -1.2041 -0.1991
30472SOL     OW98020   0.932   1.629   9.557 -0.4882 -0.1952 -0.5939
30472SOL    HW198021   0.842   1.646   9.585  0.3968  1.7899  1.3755
30472SOL    HW298022   0.935   1.661   9.466 -1.2687  1.9245  0.0471
30473SOL     OW98023   1.808   1.939  12.615 -0.1547 -0.5740  0.4721
30473SOL    HW198024   1.848   1.871  12.561  0.2540 -1.0523  1.3602
30473SOL    HW298025   1.725   1.960  12.571  1.3832  1.0574 -1.9203
30474SOL     OW98026   3.220   2.631   1.295 -0.1626  0.3102 -1.4974
30474SOL    HW198027   3.300   2.637   1.243  0.7520  0.2095 -0.1442
30474SOL    HW298028   3.199   2.538   1.297 -0.2750  0.3279 -1.7822
30475SOL     OW98029  11.479  10.714   1.802  0.4141  0.0569 -0.5995
30475SOL    HW198030  11.533  10.672   1.735 -0.2099 -2.8797  0.5741
30475SOL    HW298031  11.535  10.717   1.880 -0.2021 -0.5009 -0.1202
30476SOL     OW98032  10.824   9.569   7.479  0.6232 -0.3818 -0.7280
30476SOL    HW198033  10.802   9.515   7.403 -0.4408 -2.1238  0.7355
30476SOL    HW298034  10.919   9.572   7.479  0.6416  0.3570 -2.5619
30477SOL     OW98035   7.454   9.508   9.888  0.2202  0.1623  0.2877
30477SOL    HW198036   7.448   9.601   9.864  1.3021 -0.1869 -1.5034
30477SOL    HW298037   7.516   9.506   9.960  0.8975  0.7456 -0.2635
30478SOL     OW98038   5.926   8.878   4.503  0.2930 -0.3022  0.2517
30478SOL    HW198039   5.867   8.828   4.446  1.3338 -1.4509  0.1275
30478SOL    HW298040   5.897   8.969   4.494 -0.3756 -0.6197 -1.1248
30479SOL     OW98041   2.087   2.750   7.305 -0.4078 -0.1859 -0.7325
30479SOL    HW198042   2.097   2.713   7.393 -1.8526 -2.3339 -1.3834
30479SOL    HW298043   2.010   2.807   7.311 -1.3280 -1.3730 -0.8587
30480SOL     OW98044   3.810   5.762   6.757 -0.1615 -0.2368  0.4700
30480SOL    HW198045   3.737   5.778   6.816 -0.0688  2.4361 -0.0390
30480SOL    HW298046   3.768   5.730   6.677 -0.7773  0.8594  0.3300
30481SOL     OW98047   0.574   8.336   2.908  0.0309 -0.0901 -0.4655
30481SOL    HW198048   0.645   8.382   2.863  0.7247 -2.3765 -1.8378
30481SOL    HW298049   0.504   8.330   2.844 -0.9591  0.9590  0.4520
30482SOL     OW98050   6.245   0.038  12.508 -0.0543 -0.3955  0.5416
30482SOL    HW198051   6.150   0.036  12.518 -0.3073  2.6268 -0.2191
30482SOL    HW298052   6.278  -0.022  12.574 -2.3929  0.7049  2.8699
30483SOL     OW98053  11.090   8.871  11.674  0.3378  0.1395 -0.1945
30483SOL    HW198054  10.994   8.870  11.670  0.3055  0.1638  0.5380
30483SOL    HW298055  11.110   8.932  11.745  0.9008  0.1954 -0.4008
30484SOL     OW98056   4.839   5.919  12.147 -0.1898 -0.1118  0.5838
30484SOL    HW198057   4.894   5.845  12.121 -1.3576 -1.4201  1.7021
30484SOL    HW298058   4.780   5.932  12.072 -0.4639 -0.7986  0.6748
30485SOL     OW98059   1.796   6.937  12.486 -0.1214  0.6815 -0.7004
30485SOL    HW198060   1.737   6.972  12.420  0.2420  1.7750 -0.4680
30485SOL    HW298061   1.822   7.014  12.538 -0.2294 -0.1181  0.5765
30486SOL     OW98062   8.412  10.508   7.546 -0.4774 -0.0366 -0.1468
30486SOL    HW198063   8.399  10.462   7.629 -2.3858 -0.7132 -0.7604
30486SOL    HW298064   8.408  10.601   7.568  2.7699 -0.0443  1.0142
30487SOL     OW98065   0.020   9.793  10.688 -0.2966 -0.4731  0.1476
30487SOL    HW198066   0.101   9.780  10.639 -1.9677 -1.3302 -2.5953
30487SOL    HW298067  -0.016   9.876  10.654 -0.4027  0.1143  1.6230
30488SOL     OW98068  10.336   1.148  11.070  0.4906  0.3107 -0.2760
30488SOL    HW198069  10.380   1.186  10.994 -0.3402  0.4964 -0.6799
30488SOL    HW298070  10.336   1.218  11.135  0.7466  0.3231 -0.2876
30489SOL     OW98071   9.152   9.538   1.368 -0.2131  0.1239 -0.4160
30489SOL    HW198072   9.057   9.529   1.362 -0.1741 -0.8785  0.1933
30489SOL    HW298073   9.183   9.448   1.381  0.7093  0.5982  0.8029
30490SOL     OW98074  12.745   5.524  10.106 -0.5675 -0.3108  0.3551
30490SOL    HW198075  12.730   5.559  10.193 -0.3283 -0.2792  0.3840
30490SOL    HW298076  12.797   5.591  10.061 -2.5724  0.7156 -0.5690
30491SOL     OW98077   1.271  11.000   4.920 -0.4227  0.0437 -0.0363
30491SOL    HW198078   1.334  11.055   4.873 -1.7881  0.3107 -1.6256
30491SOL    HW298079   1.260  10.923   4.864 -0.4555 -0.6827  0.9403
30492SOL     OW98080   0.860  10.295   1.325 -0.2877 -0.2759 -0.3251
30492SOL    HW198081   0.831  10.270   1.236 -0.9018  0.5830 -0.3756
30492SOL    HW298082   0.906  10.377   1.313 -0.8176  0.1088  0.2138
30493SOL     OW98083  12.327  11.832  10.761 -0.4679 -0.8738  0.1982
30493SOL    HW198084  12.316  11.899  10.694  0.1159 -2.2157 -1.2864
30493SOL    HW298085  12.255  11.770  10.746  1.1493 -2.5700 -0.9402
30494SOL     OW98086   8.175   2.468   7.390 -0.1113  0.0368  0.0460
30494SOL    HW198087   8.248   2.518   7.427  0.1114  0.2232 -0.6253
30494SOL    HW298088   8.217   2.407   7.329 -0.3220 -1.4524  1.3487
30495SOL     OW98089   1.133  10.477   7.437 -0.2165  0.0277  0.1054
30495SOL    HW198090   1.098  10.544   7.379 -0.7512 -0.3002  0.0424
30495SOL    HW298091   1.202  10.521   7.487 -0.4062  0.5561 -0.0987
30496SOL     OW98092   3.270   5.412   7.435  0.8824 -0.4598 -0.7515
30496SOL    HW198093   3.259   5.322   7.403 -1.3008 -0.4432 -0.2132
30496SOL    HW298094   3.260   5.405   7.530 -1.2651  0.5371 -0.8465
30497SOL     OW98095  12.030  12.103   8.368  0.2419  0.1958  0.5077
30497SOL    HW198096  12.077  12.168   8.420  0.6663 -0.1176  0.5194
30497SOL    HW298097  12.056  12.019   8.406 -0.1510  0.0090  0.3668
30498SOL     OW98098   8.366   7.855   4.984 -0.2098  0.4697  0.1267
30498SOL    HW198099   8.379   7.943   5.019 -1.5217  0.6330  0.2679
30498SOL    HW298100   8.277   7.832   5.011  0.6124 -1.5016  1.3949
30499SOL     OW98101   2.603   4.795  11.721 -0.0567  0.0109 -0.2424
30499SOL    HW198102   2.557   4.758  11.797  2.5007 -2.4265  0.2853
30499SOL    HW298103   2.657   4.865  11.758  0.4577 -0.5310  0.0504
30500SOL     OW98104   0.707   0.744   0.477 -0.1668  0.0109 -0.2429
30500SOL    HW198105   0.682   0.829   0.440 -2.3300 -0.7060 -0.5774
30500SOL    HW298106   0.646   0.682   0.437  1.1261 -1.6584  0.2815
30501SOL     OW98107   1.390   6.181  10.670  0.1686  0.4462  0.1317
30501SOL    HW198108   1.419   6.090  10.666  1.3174  0.7470  0.9813
30501SOL    HW298109   1.429   6.222  10.593 -0.9845  0.0800 -0.6811
30502SOL     OW98110   1.280   2.257   9.066 -0.0504 -0.3591  0.0183
30502SOL    HW198111   1.279   2.242   9.161 -1.7823  0.2188  0.1210
30502SOL    HW298112   1.367   2.294   9.049 -0.6961  2.3381  1.8951
30503SOL     OW98113   1.577  11.591   3.691  0.3278  0.0045 -0.2273
30503SOL    HW198114   1.543  11.563   3.776  0.9000 -1.6637 -0.4956
30503SOL    HW298115   1.606  11.681   3.705  1.8592 -0.7297  1.7934
30504SOL     OW98116   8.017  11.349   2.913 -0.6761 -0.1400 -0.2651
30504SOL    HW198117   7.946  11.329   2.974 -0.8025  0.7372 -0.1083
30504SOL    HW298118   7.977  11.405   2.847  0.1399  1.4802  0.5488
30505SOL     OW98119  10.504   0.668   5.560  0.2708  0.5281 -0.3749
30505SOL    HW198120  10.498   0.683   5.465  0.3900  1.3085 -0.2725
30505SOL    HW298121  10.511   0.756   5.597 -2.0053  0.4047  0.5235
30506SOL     OW98122  10.067   6.439   2.876 -0.0165 -0.2164  0.1735
30506SOL    HW198123  10.049   6.346   2.889  0.3091 -0.3480 -0.2978
30506SOL    HW298124   9.995   6.470   2.821  0.6900 -0.5429 -0.9650
30507SOL     OW98125   2.770   6.758   6.870  0.1112 -0.1862 -0.3062
30507SOL    HW198126   2.787   6.849   6.847 -0.3721  0.5174  1.9439
30507SOL    HW298127   2.835   6.737   6.936 -0.2204 -1.2577 -0.3050
30508SOL     OW98128   3.125   5.711  10.276 -0.0325 -0.1133  0.1664
30508SOL    HW198129   3.164   5.630  10.310  0.8055 -0.0682 -0.6579
30508SOL    HW298130   3.143   5.709  10.182 -3.2219 -0.7672 -0.5540
30509SOL     OW98131  10.286   8.089   6.535 -0.0584 -0.0927  0.4497
30509SOL    HW198132  10.268   8.068   6.444  0.3294  0.1325  0.3180
30509SOL    HW298133  10.201   8.088   6.578 -0.1576 -1.0306  0.2594
30510SOL     OW98134   7.273   0.906   7.536 -0.4297 -0.4715  0.0991
30510SOL    HW198135   7.334   0.838   7.507  0.0478 -0.8457  1.8303
30510SOL    HW298136   7.329   0.972   7.577 -0.9057  0.9100 -1.3407
30511SOL     OW98137   1.474   5.191   2.416 -0.1005  0.2367  0.3136
30511SOL    HW198138   1.452   5.168   2.326  0.2318 -1.0124  0.5211
30511SOL    HW298139   1.392   5.182   2.464 -0.1243  0.1818  0.2622
30512SOL     OW98140   0.755   5.809  11.777  0.3092 -0.3917 -0.1949
30512SOL    HW198141   0.825   5.762  11.823 -0.2090 -2.1823 -1.1457
30512SOL    HW298142   0.699   5.741  11.741 -1.2199  0.9888 -0.5775
30513SOL     OW98143   1.122   9.343   5.763 -0.1025  0.7616 -0.2313
30513SOL    HW198144   1.189   9.373   5.825 -0.1740  2.4142 -0.8897
30513SOL    HW298145   1.149   9.255   5.739  0.4717  0.4698  1.3850
30514SOL     OW98146  10.899   3.406   5.363 -0.3636  0.3376  0.1063
30514SOL    HW198147  10.814   3.436   5.330 -1.4422  0.8952  3.0496
30514SOL    HW298148  10.898   3.431   5.455  3.5138  1.4085  0.0164
30515SOL     OW98149   6.003  11.945   1.171  0.0936 -0.2427  0.1748
30515SOL    HW198150   6.035  11.882   1.237 -2.1204 -2.4590 -0.6933
30515SOL    HW298151   6.014  11.900   1.088 -3.6482 -0.6207 -0.3094
30516SOL     OW98152  12.190   1.533   2.555 -0.4915  0.0506 -0.0285
30516SOL    HW198153  12.196   1.450   2.507 -3.1031  1.0967 -2.4051
30516SOL    HW298154  12.251   1.591   2.509  0.4113 -0.1591  0.8645
30517SOL     OW98155  11.270   0.406   4.820  0.5914  0.2854  0.0813
30517SOL    HW198156  11.339   0.471   4.804  0.1989  0.4287 -1.0994
30517SOL    HW298157  11.246   0.420   4.912  3.0369 -0.6631  0.9404
30518SOL     OW98158   6.160   6.709   6.303 -0.5079 -0.5306 -0.2831
30518SOL    HW198159   6.129   6.738   6.388  1.3400 -1.1372  0.6631
30518SOL    HW298160   6.143   6.615   6.302  1.0485 -0.8575  0.2127
30519SOL     OW98161  11.309   6.115   9.266  0.1664 -0.0859  0.2622
30519SOL    HW198162  11.360   6.154   9.195 -0.8659 -0.1575 -0.5465
30519SOL    HW298163  11.293   6.025   9.238  1.4724 -0.7579  1.5485
30520SOL     OW98164  11.898  12.404   4.636 -0.4924  0.6474 -0.5814
30520SOL    HW198165  11.869  12.429   4.548 -1.9823  0.8801 -0.0559
30520SOL    HW298166  11.976  12.457   4.652 -0.8230  1.3847 -1.3616
30521SOL     OW98167   4.859   5.067  11.180 -0.3847 -0.4817  0.2580
30521SOL    HW198168   4.832   4.995  11.236 -0.7893 -0.2099  0.4213
30521SOL    HW298169   4.776   5.103  11.147 -0.1509 -1.4791 -1.5937
30522SOL     OW98170   0.159   0.433   8.178  0.0889 -0.1855 -0.4868
30522SOL    HW198171   0.088   0.497   8.182  0.6694  0.4549 -0.2324
30522SOL    HW298172   0.136   0.376   8.104 -1.5375 -1.0384  0.6222
30523SOL     OW98173  10.110  12.080   0.079 -0.3572 -0.3745 -0.5477
30523SOL    HW198174  10.052  12.004   0.074 -0.5333 -0.1844 -1.3686
30523SOL    HW298175  10.136  12.083   0.172 -0.0700 -1.6402 -0.5607
30524SOL     OW98176  10.417  10.494   3.809 -0.3941  0.1126  0.2144
30524SOL    HW198177  10.474  10.563   3.844  1.5315 -1.7529  0.9432
30524SOL    HW298178  10.358  10.540   3.749  0.1300  2.5251  1.4332
30525SOL     OW98179  10.839   3.849  11.103  0.0057  0.4232 -0.4181
30525SOL    HW198180  10.753   3.881  11.074  0.2509  1.6533  0.1887
30525SOL    HW298181  10.818   3.792  11.177 -0.2912  0.6881 -0.2934
30526SOL     OW98182   5.185   3.630   6.018 -0.7736 -0.4503  0.0016
30526SOL    HW198183   5.193   3.710   5.965 -1.9993 -0.1787  0.2081
30526SOL    HW298184   5.094   3.628   6.045 -0.8237 -2.0771 -0.2085
30527SOL     OW98185   9.417   7.180   2.869 -0.2554  0.0212 -0.4664
30527SOL    HW198186   9.364   7.236   2.813 -1.9816 -1.4497 -0.4251
30527SOL    HW298187   9.491   7.153   2.813  0.0086  1.4270 -0.8207
30528SOL     OW98188  11.109   2.195   7.267 -0.1144  0.3088 -0.6842
30528SOL    HW198189  11.203   2.212   7.262  0.0422 -0.4406 -0.4228
30528SOL    HW298190  11.100   2.130   7.337 -0.5177 -1.7312 -2.5097
30529SOL     OW98191   1.068  11.173   5.044  0.4419 -0.3790 -0.6594
30529SOL    HW198192   1.011  11.130   5.107  1.0224 -0.7128 -0.3554
30529SOL    HW298193   1.113  11.101   4.999  1.1291 -0.1119 -0.4153
30530SOL     OW98194   9.071   3.645  11.701  0.3231 -0.1340  0.3192
30530SOL    HW198195   9.008   3.598  11.646 -0.1634 -0.0056  0.7596
30530SOL    HW298196   9.021   3.672  11.777  0.7471  0.5700  0.3608
30531SOL     OW98197  11.042   9.781  12.059 -0.1443 -0.0595  0.4141
30531SOL    HW198198  11.043   9.873  12.083 -1.0387  0.0104  0.2261
30531SOL    HW298199  11.125   9.746  12.092 -0.2540  0.5763  1.3920
30532SOL     OW98200  11.465   3.654   4.138  0.0880  0.0771  0.7841
30532SOL    HW198201  11.523   3.596   4.189  1.2421  0.9896  0.5512
30532SOL    HW298202  11.379   3.643   4.179  0.2337 -1.8880  0.6635
30533SOL     OW98203  10.886  11.147  11.027 -0.2902 -0.2177 -0.0894
30533SOL    HW198204  10.911  11.230  11.068  0.6365 -0.8415  0.6577
30533SOL    HW298205  10.953  11.133  10.959  0.0171 -0.7214  0.3097
30534SOL     OW98206   2.822   3.542  12.673  0.0428 -0.2746 -0.0638
30534SOL    HW198207   2.791   3.484  12.743 -0.5447  0.2950  0.1572
30534SOL    HW298208   2.759   3.614  12.673 -0.3367 -0.5834 -1.6024
30535SOL     OW98209   8.721   3.860   9.477 -0.0279 -0.6777  0.2063
30535SOL    HW198210   8.629   3.859   9.504 -0.0456 -0.6815  0.1464
30535SOL    HW298211   8.748   3.951   9.488 -0.6956 -0.1425 -1.9698
30536SOL     OW98212   4.948   0.269   3.766  0.5198 -0.0600  0.0083
30536SOL    HW198213   5.005   0.267   3.689  0.5739  0.2502  0.0398
30536SOL    HW298214   4.884   0.338   3.748  0.5650  0.0524  0.2630
30537SOL     OW98215  12.065   1.739   4.341  0.2541  0.5470 -0.0940
30537SOL    HW198216  12.059   1.655   4.296  1.9281 -0.6164  1.6770
30537SOL    HW298217  12.043   1.719   4.432 -0.8329  2.3594  0.0946
30538SOL     OW98218   3.554   9.156   6.320 -0.1268  0.1990  0.4220
30538SOL    HW198219   3.610   9.234   6.316  0.1675  0.0069  0.7094
30538SOL    HW298220   3.534   9.147   6.413 -1.1773  0.6434  0.2479
30539SOL     OW98221   6.884   5.088   3.099 -0.1299  0.1655  0.1895
30539SOL    HW198222   6.818   5.134   3.151 -0.9374 -0.5709 -0.1569
30539SOL    HW298223   6.936   5.040   3.163 -0.3580  0.2281  0.4216
30540SOL     OW98224   7.924   7.656  12.055 -0.0186 -0.1870 -0.2253
30540SOL    HW198225   7.867   7.584  12.082 -1.4587 -0.2910 -3.1603
30540SOL    HW298226   7.938   7.706  12.136 -1.8792 -1.7883  1.1996
30541SOL     OW98227   2.360  11.337   7.871 -0.1030 -0.2520  0.0191
30541SOL    HW198228   2.329  11.391   7.944 -0.4629 -2.5697  1.6854
30541SOL    HW298229   2.388  11.401   7.805 -1.4015  1.9460  1.4437
30542SOL     OW98230   1.957  11.448   9.702 -0.2840  0.0838 -0.1682
30542SOL    HW198231   2.028  11.504   9.669 -1.6074  1.8071 -0.2373
30542SOL    HW298232   1.888  11.457   9.637 -0.6637 -1.4045  0.0060
30543SOL     OW98233   5.669   5.988  11.508 -0.4976  0.3662  0.0410
30543SOL    HW198234   5.732   5.986  11.436  1.1012  4.5587  1.0606
30543SOL    HW298235   5.715   5.946  11.581 -0.5544 -0.2870 -0.2907
30544SOL     OW98236   5.926   2.877   5.993 -0.3723 -0.1781 -0.0494
30544SOL    HW198237   5.988   2.818   5.950  1.3347 -0.0129  2.0196
30544SOL    HW298238   5.856   2.820   6.024  0.2003 -0.8057  0.1034
30545SOL     OW98239   0.766  10.628   2.435 -0.0035 -0.1310  0.6191
30545SOL    HW198240   0.780  10.555   2.376  2.8153  0.4248  0.4706
30545SOL    HW298241   0.755  10.704   2.378 -0.7809 -0.0982  0.7991
30546SOL     OW98242   3.918   0.088   5.319 -0.1038 -0.2889 -0.2148
30546SOL    HW198243   3.931  -0.006   5.305  0.9976 -0.0098 -1.1866
30546SOL    HW298244   3.954   0.103   5.407  1.3204 -0.4963 -0.7336
30547SOL     OW98245  12.316  11.192   4.967  0.2814  0.2389  0.3445
30547SOL    HW198246  12.272  11.277   4.966  0.3141  0.3242 -2.4793
30547SOL    HW298247  12.256  11.134   5.013  0.0517  1.6543  1.9149
30548SOL     OW98248   9.080   8.199  10.579  0.6046  0.0398 -0.3266
30548SOL    HW198249   9.027   8.273  10.550  2.4863  1.6618  0.1616
30548SOL    HW298250   9.126   8.231  10.656 -1.0597 -2.7748  2.0551
30549SOL     OW98251   1.788   9.002   9.006 -0.1640 -0.2231 -0.2108
30549SOL    HW198252   1.832   9.033   9.085 -1.1358  0.8172 -0.0399
30549SOL    HW298253   1.819   8.913   8.994  2.4385  0.6150 -0.4507
30550SOL     OW98254   5.543   1.235  10.078  0.4154  0.1776  0.5718
30550SOL    HW198255   5.616   1.187  10.040  0.9049  0.5607  1.0113
30550SOL    HW298256   5.544   1.320  10.034  0.5409  0.3625  0.9275
30551SOL     OW98257   1.583  10.243   9.925 -0.0128 -0.3000  0.2370
30551SOL    HW198258   1.640  10.313   9.955  0.6037 -1.2958  1.5023
30551SOL    HW298259   1.500  10.287   9.905  1.5890  1.4547 -3.3422
30552SOL     OW98260  11.108   1.128  12.481  0.4245  0.3455 -0.5988
30552SOL    HW198261  11.166   1.194  12.443 -1.8756  2.5307 -0.6195
30552SOL    HW298262  11.025   1.174  12.492 -1.1268 -2.4224  0.0300
30553SOL     OW98263   4.396   2.794   0.800 -0.0033 -0.3915  0.2249
30553SOL    HW198264   4.323   2.818   0.743  0.0936  0.6385  0.5105
30553SOL    HW298265   4.474   2.819   0.750  0.1069 -0.2237  0.4805
30554SOL     OW98266   5.791   1.206  11.619  0.2461 -0.4202  0.1580
30554SOL    HW198267   5.827   1.295  11.614  0.5639 -0.5860 -0.9940
30554SOL    HW298268   5.840   1.157  11.552 -2.1848 -0.6341 -1.5817
30555SOL     OW98269   7.242   7.183   8.874  0.3871 -0.3571  0.2713
30555SOL    HW198270   7.318   7.128   8.853 -0.7726 -1.2370 -2.0360
30555SOL    HW298271   7.269   7.271   8.848  0.1976 -0.8965 -1.9979
30556SOL     OW98272   6.688  10.214   2.993 -0.4212 -0.3574  0.3159
30556SOL    HW198273   6.633  10.267   2.935  0.7818 -1.9339 -2.4462
30556SOL    HW298274   6.626  10.159   3.041 -1.4658  1.1060  0.7400
30557SOL     OW98275   0.412  11.873   7.342 -0.7226 -0.2075 -0.6491
30557SOL    HW198276   0.366  11.813   7.401  0.9607 -1.3462 -0.4322
30557SOL    HW298277   0.417  11.826   7.259 -0.3366  0.0758 -0.7904
30558SOL     OW98278   2.640   8.212  12.526 -0.2303  0.2641  0.1808
30558SOL    HW198279   2.672   8.152  12.593 -0.0744  0.1499  0.0034
30558SOL    HW298280   2.708   8.279  12.519  0.0501 -0.0686 -0.3133
30559SOL     OW98281   4.697   6.709  11.295 -0.4067  0.1478 -0.6518
30559SOL    HW198282   4.773   6.673  11.249 -0.2593 -0.1362 -0.1970
30559SOL    HW298283   4.711   6.803  11.295 -0.0062  0.0919 -0.4982
30560SOL     OW98284  11.288   5.961  10.473 -0.1689  0.1317  0.0338
30560SOL    HW198285  11.298   5.948  10.378 -0.2154  0.6207 -0.0422
30560SOL    HW298286  11.198   5.934  10.491 -0.3416  0.5684 -0.1604
30561SOL     OW98287   1.783   2.250   1.880 -0.4023 -0.2273  0.3787
30561SOL    HW198288   1.796   2.319   1.945 -2.5156  1.0614 -0.4313
30561SOL    HW298289   1.752   2.297   1.802 -1.7229 -2.0660 -0.2649
30562SOL     OW98290   7.281  11.697  12.338 -0.6329  0.5797  0.1155
30562SOL    HW198291   7.220  11.668  12.406 -1.5930 -0.9544 -1.3007
30562SOL    HW298292   7.240  11.775  12.301 -1.5281 -0.1553 -0.4916
30563SOL     OW98293   6.639   3.410   2.622 -0.0377 -0.2971 -0.2266
30563SOL    HW198294   6.675   3.369   2.542  0.3153 -0.7981  0.1776
30563SOL    HW298295   6.663   3.349   2.692 -1.0663 -0.2792  0.1552
30564SOL     OW98296  10.274   7.590  12.409  0.1825  0.1513  0.0741
30564SOL    HW198297  10.192   7.551  12.440  0.5160 -0.9076 -0.3324
30564SOL    HW298298  10.257   7.612  12.318  0.5071 -0.5740 -0.1715
30565SOL     OW98299   2.311   8.741  10.176 -0.0235  0.5209 -0.1600
30565SOL    HW198300   2.248   8.733  10.248  0.2873  2.7220  0.4053
30565SOL    HW298301   2.280   8.815  10.124 -0.3261 -1.1114 -2.4500
30566SOL     OW98302   8.727   5.887   4.281 -0.3265 -0.0563 -0.0210
30566SOL    HW198303   8.818   5.868   4.259 -0.4941 -0.6283 -0.2451
30566SOL    HW298304   8.730   5.971   4.325  0.2885  0.0261 -0.2106
30567SOL     OW98305   1.287   5.547  12.670  0.3905 -0.2422  0.4226
30567SOL    HW198306   1.352   5.537  12.600 -0.3386 -1.2382 -0.1417
30567SOL    HW298307   1.240   5.627  12.648 -0.8431 -1.3354 -1.1224
30568SOL     OW98308   1.128   8.254   8.763 -0.1551 -0.1628  0.3228
30568SOL    HW198309   1.103   8.299   8.683  1.8736  1.4590  0.5199
30568SOL    HW298310   1.111   8.317   8.833  1.0817 -0.3244  0.8044
30569SOL     OW98311  11.945   4.731   8.968  0.2973 -0.4784  0.4686
30569SOL    HW198312  11.969   4.822   8.986  3.0451 -0.6148 -1.9074
30569SOL    HW298313  11.874   4.737   8.903  0.4660 -0.0481  0.3234
30570SOL     OW98314   4.585   8.684   0.161 -0.0944  0.0278  0.1264
30570SOL    HW198315   4.654   8.632   0.121  2.0971  1.7058  1.4894
30570SOL    HW298316   4.517   8.689   0.094  2.1420  0.3030 -2.2948
30571SOL     OW98317  10.100   5.296   1.506 -0.5985  0.2719  0.2794
30571SOL    HW198318  10.143   5.381   1.514 -1.7046  0.7024  2.1563
30571SOL    HW298319  10.107   5.274   1.413  1.1167  1.6426  0.0473
30572SOL     OW98320   6.856   6.179   1.246 -0.6780  0.5910  0.0838
30572SOL    HW198321   6.832   6.104   1.192 -0.0829  1.4693 -1.4652
30572SOL    HW298322   6.794   6.177   1.319 -1.6832 -0.4977 -0.7682
30573SOL     OW98323   4.527   4.005   8.004  0.1846 -0.4213 -0.3610
30573SOL    HW198324   4.487   4.028   7.921  0.6481 -1.4505 -0.9001
30573SOL    HW298325   4.550   4.088   8.045 -2.0053  0.1753 -0.2485
30574SOL     OW98326   3.445  10.371  11.015  0.4239 -0.3693  0.2500
30574SOL    HW198327   3.419  10.442  10.956  0.2726  0.7599  1.6123
30574SOL    HW298328   3.407  10.396  11.100  0.1505 -2.2214  0.7053
30575SOL     OW98329   4.397   4.523   4.244 -0.5326  0.4657  0.0530
30575SOL    HW198330   4.433   4.555   4.327  3.1365  0.1530 -1.2463
30575SOL    HW298331   4.417   4.430   4.243 -1.7930  0.1734 -0.6460
30576SOL     OW98332   6.602   4.881  11.180 -0.1551  0.0040  0.2631
30576SOL    HW198333   6.537   4.835  11.127 -1.7027 -1.4288  3.1452
30576SOL    HW298334   6.561   4.964  11.202 -1.0892 -0.8272  1.9333
30577SOL     OW98335   0.543   1.182   8.528  0.4080 -0.1599  0.3281
30577SOL    HW198336   0.587   1.265   8.545  0.3302  0.0767 -0.5821
30577SOL    HW298337   0.586   1.119   8.587  1.4555  0.2183 -0.0141
30578SOL     OW98338   4.421   1.535   8.026  0.2901 -0.1840  0.2974
30578SOL    HW198339   4.461   1.450   8.042  1.4722  0.3834  0.4861
30578SOL    HW298340   4.357   1.545   8.096  0.9271 -0.4461  0.9302
30579SOL     OW98341  10.328   8.655   0.711  0.6371  0.6231  0.4599
30579SOL    HW198342  10.305   8.618   0.627 -0.2919 -0.9541  1.3697
30579SOL    HW298343  10.333   8.750   0.695 -0.3589  0.4369 -1.1472
30580SOL     OW98344  11.789  11.329   0.564 -0.5156  0.0261 -0.0841
30580SOL    HW198345  11.821  11.347   0.653 -0.2160 -0.0132 -0.1828
30580SOL    HW298346  11.812  11.407   0.514  0.1942 -0.3462 -0.3557
30581SOL     OW98347   6.778  10.747   7.710  0.1317  0.1047 -0.2457
30581SOL    HW198348   6.871  10.733   7.692  0.5691  1.2049  0.9585
30581SOL    HW298349   6.773  10.746   7.806 -1.1785 -0.3416 -0.3070
30582SOL     OW98350   8.911   9.333   8.826 -0.1842 -0.0482  0.1226
30582SOL    HW198351   8.982   9.301   8.771  0.3271  0.3716  0.5223
30582SOL    HW298352   8.842   9.267   8.817  0.0789 -0.2303 -0.6232
30583SOL     OW98353   7.917   8.281   4.886 -0.0107 -0.0692 -0.5706
30583SOL    HW198354   7.909   8.334   4.807  0.1748  0.7365 -0.0629
30583SOL    HW298355   7.830   8.283   4.926  0.7060  2.6421  1.1554
30584SOL     OW98356   0.638   5.484   0.183 -0.2838 -0.0352  0.4569
30584SOL    HW198357   0.719   5.434   0.192 -0.0850  0.0965 -0.4872
30584SOL    HW298358   0.587   5.435   0.118 -0.4285  0.5549  0.1237
30585SOL     OW98359   4.783   3.401   5.830 -0.4572 -0.0576 -0.2240
30585SOL    HW198360   4.815   3.349   5.757  0.7518 -2.3901  1.8005
30585SOL    HW298361   4.808   3.491   5.809  2.7463 -1.0665 -1.2207
30586SOL     OW98362   4.848   8.981  12.723 -0.2313 -0.1312 -0.0179
30586SOL    HW198363   4.942   8.960  12.724 -0.2302 -0.1798  1.8907
30586SOL    HW298364   4.839   9.047  12.654  1.0905 -0.5539 -0.6375
30587SOL     OW98365   1.730   2.087   9.327  0.0442  0.3717  0.3812
30587SOL    HW198366   1.635   2.076   9.340  0.3920 -2.1246  1.4411
30587SOL    HW298367   1.741   2.088   9.232 -0.9967 -0.1677  0.2362
30588SOL     OW98368  12.079   8.311   6.146 -0.9686 -0.2088 -0.3722
30588SOL    HW198369  12.020   8.386   6.155 -0.9451 -0.3808  1.4439
30588SOL    HW298370  12.044   8.246   6.206  0.7168 -0.5487  0.2782
30589SOL     OW98371   5.700   2.869  11.207  0.2993 -0.5815  0.1144
30589SOL    HW198372   5.686   2.949  11.157  0.4018 -1.1149 -0.7889
30589SOL    HW298373   5.740   2.808  11.145  0.8406 -1.1215  0.9650
30590SOL     OW98374   4.596  10.472   6.302  0.2257  0.0472  0.1064
30590SOL    HW198375   4.606  10.384   6.339  0.1742 -0.6093 -1.3860
30590SOL    HW298376   4.686  10.504   6.294  0.2446  0.1348  0.6568
30591SOL     OW98377  11.393  10.332  11.872  0.0148  0.3383  0.1678
30591SOL    HW198378  11.335  10.335  11.949  0.4209 -1.4690  0.5783
30591SOL    HW298379  11.478  10.306  11.908 -0.2086 -2.4368 -1.0572
30592SOL     OW98380   2.432   0.498   8.363 -0.8537 -0.1754  0.4394
30592SOL    HW198381   2.440   0.591   8.344  0.9653 -0.6811 -1.7545
30592SOL    HW298382   2.523   0.468   8.373 -1.2715 -2.0145 -0.7658
30593SOL     OW98383   8.946   0.652   2.347 -0.1893 -0.2364  0.2901
30593SOL    HW198384   9.030   0.651   2.393  0.2326 -0.5604 -0.4664
30593SOL    HW298385   8.959   0.592   2.273 -1.1781 -0.5132  0.3288
30594SOL     OW98386   0.038   1.853  10.614  0.0141  0.7873  0.3738
30594SOL    HW198387  -0.036   1.912  10.613 -2.0801 -1.6151 -2.2115
30594SOL    HW298388   0.023   1.797  10.691 -0.8782  0.3092 -0.1415
30595SOL     OW98389   6.717  11.067   2.230 -0.4035 -0.6306 -0.3796
30595SOL    HW198390   6.745  11.072   2.321  3.3391  0.9146 -1.4234
30595SOL    HW298391   6.793  11.033   2.183 -0.0449  3.5862 -3.5151
30596SOL     OW98392   0.626   3.325   9.410  0.2513  0.4876 -0.4898
30596SOL    HW198393   0.560   3.255   9.403 -0.2060  0.9153 -0.5281
30596SOL    HW298394   0.579   3.405   9.386  0.6222  0.8924  0.0980
30597SOL     OW98395   6.082  10.074   7.543  0.7684  0.1851  0.1688
30597SOL    HW198396   6.037  10.032   7.469  0.8365  0.3079  0.0577
30597SOL    HW298397   6.129  10.148   7.504  1.4722 -0.2368  0.2013
30598SOL     OW98398  12.191   4.624  11.291  0.3901 -0.0173 -0.0500
30598SOL    HW198399  12.129   4.675  11.240  0.4938  0.2538  0.0970
30598SOL    HW298400  12.143   4.544  11.313  0.3311 -0.1159 -0.5316
30599SOL     OW98401   4.996   4.303   4.147 -0.2635  0.1517 -0.2036
30599SOL    HW198402   4.955   4.385   4.174 -1.9695 -0.3036 -1.2526
30599SOL    HW298403   5.079   4.301   4.196 -0.0833  2.5484 -0.2549
30600SOL     OW98404   7.067   6.288   9.308 -0.3151 -0.5615 -0.0654
30600SOL    HW198405   7.133   6.333   9.361  0.5617 -0.9075 -0.8465
30600SOL    HW298406   6.983   6.318   9.344  0.2568 -0.2538  1.0607
30601SOL     OW98407   7.488   8.623  12.612  0.2317 -0.1834 -0.1037
30601SOL    HW198408   7.424   8.561  12.579 -1.3342  1.4128 -0.1847
30601SOL    HW298409   7.459   8.708  12.579  1.5905  0.7718  1.0349
30602SOL     OW98410   3.472   3.433   0.890 -0.1652 -0.5651 -0.1748
30602SOL    HW198411   3.390   3.482   0.886  0.5493  0.5991 -1.7425
30602SOL    HW298412   3.464   3.379   0.968 -2.9788 -1.5257 -1.0050
30603SOL     OW98413   0.299   0.750  12.772  0.4316 -0.1190  0.5853
30603SOL    HW198414   0.344   0.799  12.841  1.8146 -1.9400  1.0758
30603SOL    HW298415   0.278   0.666  12.812  0.6538 -0.9684 -0.9885
30604SOL     OW98416  10.038   0.325   1.120 -0.6062 -0.3203 -0.2486
30604SOL    HW198417  10.056   0.352   1.030  0.8773  0.5081  0.2569
30604SOL    HW298418  10.055   0.231   1.121 -1.5978 -0.5219 -1.0495
30605SOL     OW98419   4.416   4.519   0.676  0.2517  0.0831  0.2401
30605SOL    HW198420   4.509   4.504   0.692 -0.1022  0.1739  2.6958
30605SOL    HW298421   4.393   4.592   0.733 -0.9903  1.2253 -1.6137
30606SOL     OW98422   9.085   7.596  11.077  0.4781  0.1708  0.2492
30606SOL    HW198423   9.138   7.600  11.156  0.1189 -1.6754  0.6282
30606SOL    HW298424   9.058   7.504  11.071 -1.6914  0.8013 -0.5578
30607SOL     OW98425   6.410   1.970   8.892 -0.1939 -0.5970 -0.2671
30607SOL    HW198426   6.430   2.064   8.899 -0.7171 -0.4354 -0.8703
30607SOL    HW298427   6.371   1.948   8.976 -0.2756 -0.2245 -0.2047
30608SOL     OW98428   2.419  11.642  12.230 -0.1427 -0.7247 -0.2954
30608SOL    HW198429   2.474  11.623  12.154  0.5132  0.6488 -0.2101
30608SOL    HW298430   2.481  11.675  12.295 -0.9911  0.3702 -0.0186
30609SOL     OW98431   1.601   9.540   2.423 -0.1944 -0.2564  0.6338
30609SOL    HW198432   1.621   9.466   2.480  2.3959  0.2467  0.4955
30609SOL    HW298433   1.611   9.506   2.334 -1.7873 -0.4033  0.4778
30610SOL     OW98434   1.556   7.733  12.758  0.5045  0.0944 -0.0364
30610SOL    HW198435   1.620   7.662  12.752 -0.3719 -0.7805  0.6562
30610SOL    HW298436   1.498   7.707  12.828  1.1037  2.2984  1.3895
30611SOL     OW98437   7.222  11.302   2.130  0.1349 -0.2315  0.1810
30611SOL    HW198438   7.160  11.321   2.060 -0.1468 -0.7332  0.2857
30611SOL    HW298439   7.224  11.383   2.183 -2.0882 -0.8808  1.4060
30612SOL     OW98440  12.501  10.874   8.215  0.1783 -0.4986  0.6491
30612SOL    HW198441  12.406  10.881   8.226  0.3266 -1.2256  2.9341
30612SOL    HW298442  12.517  10.781   8.200  0.3953 -0.0823 -2.1644
30613SOL     OW98443  10.859   6.955  11.729  0.2157  0.6914  0.1119
30613SOL    HW198444  10.852   6.888  11.798 -1.0118  0.3201 -0.3455
30613SOL    HW298445  10.924   7.017  11.763 -1.9343  1.7696  2.6877
30614SOL     OW98446  12.356   6.766   7.020 -0.3438  0.3240  0.2379
30614SOL    HW198447  12.381   6.799   7.107 -0.0961 -0.4014  0.4495
30614SOL    HW298448  12.261   6.758   7.024 -0.1716 -2.7341  1.6137
30615SOL     OW98449   3.516   2.408   7.502 -0.0651  0.0294 -0.4849
30615SOL    HW198450   3.460   2.334   7.477  0.2045 -0.7489  1.0669
30615SOL    HW298451   3.564   2.429   7.423 -0.2257 -1.4122 -0.9980
30616SOL     OW98452  11.012   5.242   3.634  0.2476  0.5441 -0.2615
30616SOL    HW198453  10.955   5.274   3.703 -1.6884 -0.4142 -1.3396
30616SOL    HW298454  11.008   5.309   3.566  2.3628  1.6197  0.5616
30617SOL     OW98455   5.265  10.428   9.614 -0.0954  0.2339 -0.4261
30617SOL    HW198456   5.244  10.398   9.702 -0.1957  0.5005 -0.3588
30617SOL    HW298457   5.185  10.469   9.582  0.0434  0.4456 -0.5086
30618SOL     OW98458   6.087   4.614   0.404 -0.0850 -0.6976 -0.0387
30618SOL    HW198459   6.142   4.691   0.417  0.2800 -1.0229  0.3664
30618SOL    HW298460   6.100   4.561   0.482  1.6524 -2.4016 -1.3847
30619SOL     OW98461   4.551  11.183   0.142 -0.4024 -0.0067 -0.0052
30619SOL    HW198462   4.565  11.272   0.109 -0.3991 -0.6998 -1.9603
30619SOL    HW298463   4.457  11.180   0.160 -0.4619  0.2759 -0.2551
30620SOL     OW98464   6.729   0.363   7.238 -0.4661 -0.1574  0.5684
30620SOL    HW198465   6.720   0.391   7.329  2.8790 -1.3158  1.3561
30620SOL    HW298466   6.759   0.442   7.192 -0.3822 -0.0365  0.8290
30621SOL     OW98467   4.316  10.001  10.482 -0.3106 -0.3784  0.0446
30621SOL    HW198468   4.390   9.959  10.525 -0.1231 -0.6203 -0.4952
30621SOL    HW298469   4.338  10.094  10.480  0.8271 -0.6330 -1.6832
30622SOL     OW98470  12.244   5.231   7.321  0.1601 -0.1737 -0.1482
30622SOL    HW198471  12.200   5.148   7.303 -1.5276  0.6159  0.1709
30622SOL    HW298472  12.324   5.228   7.268 -2.0331 -0.1383 -3.7289
30623SOL     OW98473  12.348   6.813   4.528 -0.5086  0.3413 -0.1644
30623SOL    HW198474  12.383   6.803   4.616 -0.5488 -0.6855 -0.2566
30623SOL    HW298475  12.255   6.827   4.540 -0.5427  0.0217 -0.0416
30624SOL     OW98476   6.507   4.132   9.664  0.2935 -0.1637 -0.0661
30624SOL    HW198477   6.596   4.101   9.676  0.9263  1.6816  0.3822
30624SOL    HW298478   6.460   4.103   9.742  0.6583 -0.5767  0.0029
30625SOL     OW98479   9.195   7.174   6.172  0.0198  0.4556  0.4166
30625SOL    HW198480   9.154   7.148   6.090  0.5849  1.2412 -0.1211
30625SOL    HW298481   9.252   7.247   6.149  1.7545 -0.6190  1.1281
30626SOL     OW98482   6.868   0.242   3.234 -0.2382 -0.3510 -0.5497
30626SOL    HW198483   6.810   0.223   3.308  0.8128  2.4693  1.1460
30626SOL    HW298484   6.955   0.218   3.265  0.2464  1.0942 -0.7274
30627SOL     OW98485   2.812   0.964   6.011 -0.0660 -0.6918  0.0445
30627SOL    HW198486   2.905   0.988   6.011 -0.3975  0.6861 -0.3816
30627SOL    HW298487   2.767   1.041   5.976 -1.5819 -0.4332  2.2931
30628SOL     OW98488   1.290   5.405   8.288 -0.4246  0.3194  0.4498
30628SOL    HW198489   1.286   5.449   8.203  2.1245  0.3976  0.3043
30628SOL    HW298490   1.242   5.463   8.347 -0.4216  1.3311 -0.5106
30629SOL     OW98491   4.745  11.894   7.065 -0.0447 -0.0519 -0.3983
30629SOL    HW198492   4.820  11.953   7.064 -0.7701  0.9174 -1.8405
30629SOL    HW298493   4.782  11.807   7.075  1.2271  0.4574 -0.5669
30630SOL     OW98494   9.842   5.286  10.364  0.1887  0.5290 -0.3420
30630SOL    HW198495   9.861   5.260  10.454 -0.6798 -2.4171 -0.8745
30630SOL    HW298496   9.752   5.257  10.349 -0.0835  2.0244 -1.8179
30631SOL     OW98497   1.119   2.443  10.436 -0.3935 -0.0088 -0.5771
30631SOL    HW198498   1.199   2.470  10.481 -0.6910  1.1389 -0.7204
30631SOL    HW298499   1.122   2.347  10.440  0.5261  0.0260  0.2198
30632SOL     OW98500  12.570   8.301   5.272  0.4474 -0.1468  0.0037
30632SOL    HW198501  12.516   8.372   5.307 -2.3619 -1.9626 -0.2700
30632SOL    HW298502  12.571   8.317   5.177 -0.6996 -0.7082 -0.1298
30633SOL     OW98503   6.834  12.602   3.126  0.9454  1.3520 -0.2668
30633SOL    HW198504   6.747  12.622   3.090  0.9906  1.4980 -0.2932
30633SOL    HW298505   6.837  12.506   3.127  0.0754  1.3083  1.4428
30634SOL     OW98506   1.341   8.075   8.606  0.3399  0.6456  0.4740
30634SOL    HW198507   1.255   8.070   8.647  0.4950  1.6344  0.9461
30634SOL    HW298508   1.401   8.040   8.672  0.4808  1.3955  0.7479
30635SOL     OW98509   3.174   0.788  11.819 -0.4136 -0.7804  0.3028
30635SOL    HW198510   3.215   0.849  11.758  0.1765 -2.2558 -0.8183
30635SOL    HW298511   3.246   0.753  11.871 -1.0827  2.1594  3.6351
30636SOL     OW98512   6.984  11.009   8.012  0.0074  0.2465 -0.4656
30636SOL    HW198513   6.903  11.011   8.062  0.6207  1.1573  0.5332
30636SOL    HW298514   6.979  11.086   7.955  0.5964  0.8834  0.3227
30637SOL     OW98515   2.717   9.760   1.938  0.0704  0.3052  0.1400
30637SOL    HW198516   2.695   9.679   1.892  0.0338  0.1306  0.4597
30637SOL    HW298517   2.765   9.812   1.874 -0.6140  0.3744 -0.3273
30638SOL     OW98518  11.303   1.264  11.572 -0.8455  0.9638 -0.3362
30638SOL    HW198519  11.346   1.206  11.635 -1.1761  0.4050 -0.6232
30638SOL    HW298520  11.263   1.205  11.508 -1.6537  1.4997 -0.3278
30639SOL     OW98521  12.419   1.599   6.036 -0.4764 -0.5254 -0.0806
30639SOL    HW198522  12.391   1.513   6.069 -2.7743  0.0902 -0.2683
30639SOL    HW298523  12.358   1.661   6.076  1.7111  1.1801  0.8067
30640SOL     OW98524   7.601  11.735  11.153  0.1732  0.8091 -0.1343
30640SOL    HW198525   7.571  11.808  11.098 -1.9632 -0.3937 -0.6851
30640SOL    HW298526   7.644  11.676  11.092 -3.0435 -0.9907 -0.8676
30641SOL     OW98527   1.398   4.713   0.277  0.7221  0.2240 -0.1504
30641SOL    HW198528   1.337   4.734   0.206 -0.4768  0.8353  1.0148
30641SOL    HW298529   1.371   4.626   0.306 -0.2937  0.9112  1.0352
30642SOL     OW98530   0.050   1.836  12.427  0.0275 -0.0720  0.0427
30642SOL    HW198531   0.008   1.759  12.387  0.3507 -0.2917  0.1196
30642SOL    HW298532  -0.013   1.867  12.492  0.6617 -1.3998  1.3439
30643SOL     OW98533   3.620   1.919   8.704 -0.1659  0.1199  0.7350
30643SOL    HW198534   3.562   1.856   8.747 -0.4242  0.6745  1.2006
30643SOL    HW298535   3.609   1.901   8.610 -1.8266  0.8329  0.7545
30644SOL     OW98536   7.157   2.386   3.927 -0.0320  0.4436 -0.3269
30644SOL    HW198537   7.239   2.410   3.971  0.8936 -0.1956 -1.6091
30644SOL    HW298538   7.174   2.298   3.892 -2.3433 -0.9788  1.8883
30645SOL     OW98539   2.418  10.811   2.095 -0.1785  0.3626 -0.1689
30645SOL    HW198540   2.456  10.836   2.011 -1.9236  0.4943 -0.9691
30645SOL    HW298541   2.455  10.874   2.158  0.1283  1.1173 -1.0800
30646SOL     OW98542   2.361  12.243   2.101 -0.0543 -0.4124  0.1502
30646SOL    HW198543   2.424  12.316   2.104 -0.6918  0.1222  0.8448
30646SOL    HW298544   2.365  12.212   2.011 -0.2031  0.8772 -0.3204
30647SOL     OW98545  12.763  10.071   8.169  0.7293  0.6085  0.2124
30647SOL    HW198546  12.853  10.103   8.181  1.4045 -1.2834  0.6095
30647SOL    HW298547  12.772   9.975   8.170 -1.1113  0.3685 -1.2435
30648SOL     OW98548  12.392  11.150  11.984 -0.5126 -0.1242 -0.0089
30648SOL    HW198549  12.472  11.122  11.940 -0.4583 -1.3435  0.7974
30648SOL    HW298550  12.419  11.224  12.039 -0.0636 -0.1452 -0.1986
30649SOL     OW98551   4.147   2.194   5.677 -0.1477  0.0396 -0.1270
30649SOL    HW198552   4.154   2.285   5.705 -1.2813  0.2703 -0.5217
30649SOL    HW298553   4.226   2.179   5.625  1.5962 -0.1492  2.3713
30650SOL     OW98554  10.343  10.798  10.838 -0.1918 -0.1301 -0.0197
30650SOL    HW198555  10.361  10.775  10.929  0.4062  0.4630  0.0115
30650SOL    HW298556  10.331  10.893  10.839 -0.5795 -0.1680 -0.4999
30651SOL     OW98557   2.428  10.149   2.483  0.6160 -0.0298  0.1884
30651SOL    HW198558   2.481  10.105   2.550  1.3343 -0.3237 -0.5481
30651SOL    HW298559   2.481  10.224   2.456 -1.5916  2.8640  3.1283
30652SOL     OW98560  12.310   7.859  11.305 -0.1360 -0.3632  0.7409
30652SOL    HW198561  12.229   7.855  11.256  1.4076  0.3368 -2.1039
30652SOL    HW298562  12.346   7.770  11.301  0.5102 -0.0737 -0.4679
30653SOL     OW98563  10.950   5.373   3.861 -0.0013  0.0279  0.5355
30653SOL    HW198564  10.881   5.355   3.925 -0.4907  1.3670  0.4363
30653SOL    HW298565  10.988   5.457   3.890  0.0874  0.4142 -0.6420
30654SOL     OW98566   7.593   9.463   8.258  0.3155  0.5530  0.6110
30654SOL    HW198567   7.529   9.534   8.266  0.0935  0.3729  0.4328
30654SOL    HW298568   7.677   9.508   8.244 -0.0536  0.7787 -1.2296
30655SOL     OW98569   6.699   1.259   1.999 -0.9470 -0.6382  0.1366
30655SOL    HW198570   6.721   1.239   2.090  0.5596  0.5486  0.0888
30655SOL    HW298571   6.732   1.184   1.950 -0.5878 -0.6957  0.4572
30656SOL     OW98572   2.377   7.039   0.500  0.4343 -0.1301  0.0430
30656SOL    HW198573   2.463   7.062   0.537 -0.0089  0.1394  0.9439
30656SOL    HW298574   2.370   7.092   0.420  1.1129 -0.1672 -0.0461
30657SOL     OW98575   2.031   8.346   7.088  0.4652 -0.2776  0.4923
30657SOL    HW198576   2.093   8.350   7.160  0.1662  0.9568  0.7104
30657SOL    HW298577   2.063   8.275   7.032  0.0748 -2.0431  2.3772
30658SOL     OW98578   5.941   1.106   6.737 -0.2086 -0.4332  0.2675
30658SOL    HW198579   5.992   1.174   6.780 -0.7552 -0.7820  1.5171
30658SOL    HW298580   5.952   1.123   6.643  0.8744  0.4535  0.5330
30659SOL     OW98581   7.995   1.375   7.097 -0.3009 -0.2256 -0.2681
30659SOL    HW198582   7.955   1.290   7.079 -1.7645  0.2412  0.5617
30659SOL    HW298583   8.064   1.356   7.161 -0.9894 -0.7443  0.3463
30660SOL     OW98584   5.855   0.574   8.436  0.3534  0.5027  0.2282
30660SOL    HW198585   5.842   0.640   8.368 -1.9485 -1.0118 -0.9224
30660SOL    HW298586   5.944   0.589   8.468  1.1682  1.8890 -2.4234
30661SOL     OW98587   4.771   7.738   0.699  0.3765  0.1783 -0.0694
30661SOL    HW198588   4.684   7.747   0.660 -0.5655  1.2576  2.1466
30661SOL    HW298589   4.765   7.780   0.784  2.5676 -1.3423  0.9629
30662SOL     OW98590   9.845  10.836   1.570 -0.0230  0.4624  0.0438
30662SOL    HW198591   9.911  10.906   1.575  0.5960 -0.1646  1.1051
30662SOL    HW298592   9.882  10.773   1.509 -0.7386  1.1968 -1.1790
30663SOL     OW98593   6.447   8.289   4.394  0.3516  0.4019  0.0465
30663SOL    HW198594   6.530   8.335   4.407  1.3507 -1.1858 -0.4093
30663SOL    HW298595   6.472   8.200   4.367 -1.4579 -0.6824  1.6080
30664SOL     OW98596   2.912   8.375   8.810  0.7467 -0.8728  0.6398
30664SOL    HW198597   2.931   8.315   8.738  0.2571 -0.5548  0.2311
30664SOL    HW298598   2.928   8.324   8.889 -2.1216 -2.4204  0.3574
30665SOL     OW98599   1.349   0.613   3.905 -0.0996 -0.2147 -0.4111
30665SOL    HW198600   1.259   0.593   3.932 -0.2943 -0.0367 -0.9247
30665SOL    HW298601   1.379   0.534   3.860  0.6080 -0.9332  1.2387
30666SOL     OW98602   9.805  11.226   2.487 -0.0391 -0.0385  0.6012
30666SOL    HW198603   9.758  11.242   2.568 -0.4052  0.5996  0.2727
30666SOL    HW298604   9.779  11.138   2.460  0.9060 -0.6884  1.7116
30667SOL     OW98605   7.170  10.523   5.803 -0.3034 -0.0243 -0.2711
30667SOL    HW198606   7.238  10.523   5.871  1.6756  1.0025 -2.1342
30667SOL    HW298607   7.181  10.440   5.757 -1.9976 -0.9631  0.9060
30668SOL     OW98608   4.373   9.878   1.818  0.4474  0.2770  0.2622
30668SOL    HW198609   4.402   9.821   1.890 -0.3263  1.7897  1.8305
30668SOL    HW298610   4.291   9.838   1.788  0.4169  0.0143  0.6865
30669SOL     OW98611   6.551   6.049   0.248  0.6582  0.4118  0.4007
30669SOL    HW198612   6.541   5.954   0.238 -1.3121  0.8250 -2.9067
30669SOL    HW298613   6.616   6.074   0.182 -0.4874  1.5638 -0.3434
30670SOL     OW98614   7.419   3.073   2.499  0.8368 -0.3999 -0.3043
30670SOL    HW198615   7.422   2.987   2.541  2.0496 -0.2716 -0.0632
30670SOL    HW298616   7.452   3.058   2.411  0.9671 -0.2052 -0.2901
30671SOL     OW98617   8.276  10.825   2.266  0.2625 -0.2217 -0.4672
30671SOL    HW198618   8.312  10.896   2.213 -0.8863  1.5763  1.0517
30671SOL    HW298619   8.216  10.780   2.207  0.6474  0.3467 -1.3249
30672SOL     OW98620   3.511   5.220   9.081  0.5912  0.4678 -0.1366
30672SOL    HW198621   3.597   5.196   9.047  1.3123  0.1191  1.8137
30672SOL    HW298622   3.486   5.298   9.030  1.6002  0.0090 -1.3853
30673SOL     OW98623   8.729  11.794   2.643 -0.6380 -0.5374  0.1857
30673SOL    HW198624   8.691  11.772   2.728  0.0847  0.5696  0.8035
30673SOL    HW298625   8.654  11.795   2.583 -1.5423  1.0099  1.2761
30674SOL     OW98626   2.884   5.508   9.979  0.1742  0.6530  0.8938
30674SOL    HW198627   2.849   5.513  10.068 -0.8613 -0.6254  0.5942
30674SOL    HW298628   2.978   5.516   9.990  0.0460  0.7241  2.0811
30675SOL     OW98629   3.354  10.979   5.184 -0.0808  0.4870 -0.4083
30675SOL    HW198630   3.394  10.901   5.145  1.2732  1.7201 -1.6191
30675SOL    HW298631   3.320  10.949   5.268  0.0849 -1.4817 -0.9958
30676SOL     OW98632   0.617   9.512   3.886  0.2325 -0.7176  0.6243
30676SOL    HW198633   0.666   9.453   3.943 -1.0455 -2.6053 -0.1219
30676SOL    HW298634   0.530   9.516   3.926 -0.1234 -0.5246 -0.1597
30677SOL     OW98635  10.529   7.070   2.621  0.6295  0.0194 -0.7964
30677SOL    HW198636  10.493   7.003   2.680 -0.3558  0.9777 -0.2838
30677SOL    HW298637  10.479   7.149   2.641  2.1403  1.0677 -1.0227
30678SOL     OW98638   0.570  10.394  12.368 -0.3110  0.0459 -0.1116
30678SOL    HW198639   0.564  10.438  12.453 -1.1765 -0.7782  0.2743
30678SOL    HW298640   0.537  10.306  12.384  0.9700 -0.6231 -0.9662
30679SOL     OW98641   7.915  12.221   1.748 -0.7595 -0.0844 -0.0544
30679SOL    HW198642   7.972  12.151   1.780 -0.4714  0.5086  0.8001
30679SOL    HW298643   7.971  12.273   1.690 -0.9020 -0.4251 -0.4957
30680SOL     OW98644   0.247   7.611   8.150  0.5297 -0.6581 -0.4497
30680SOL    HW198645   0.281   7.694   8.183  1.5575 -1.1916 -0.1321
30680SOL    HW298646   0.217   7.631   8.061 -0.6816  0.3998  0.1724
30681SOL     OW98647   1.424   7.959   5.893  0.2404 -0.1560 -0.0765
30681SOL    HW198648   1.504   7.980   5.844 -0.0478  0.0316 -0.4717
30681SOL    HW298649   1.448   7.883   5.946  0.4706 -0.5695 -0.7516
30682SOL     OW98650   4.446   7.006   6.001 -0.1699 -0.4750  0.3735
30682SOL    HW198651   4.539   7.018   6.023 -0.0791 -0.2726 -0.0921
30682SOL    HW298652   4.400   7.068   6.057 -0.0520 -0.8134  0.8457
30683SOL     OW98653   4.013  11.111   9.677  0.4558 -0.7339  0.0041
30683SOL    HW198654   3.961  11.159   9.613 -1.2199 -0.6859  1.3231
30683SOL    HW298655   4.081  11.068   9.625  0.0086  0.4083 -1.6080
30684SOL     OW98656   0.880   6.430  11.496 -0.5012 -0.4618  0.1207
30684SOL    HW198657   0.943   6.498  11.475  0.5947 -1.8767 -1.4528
30684SOL    HW298658   0.798   6.477  11.511 -0.0827  1.1470 -2.1302
30685SOL     OW98659   5.317   9.857  10.351  0.2611  0.1716  0.3677
30685SOL    HW198660   5.235   9.904  10.362 -1.0014 -1.7011 -0.4600
30685SOL    HW298661   5.338   9.867  10.258  0.2812 -0.4019  0.3068
30686SOL     OW98662   3.204   2.345   8.821 -0.2880  0.0585  0.6777
30686SOL    HW198663   3.185   2.390   8.903  0.5819  3.0277 -0.6394
30686SOL    HW298664   3.268   2.277   8.845  0.3083  1.1712  2.3799
30687SOL     OW98665   2.859   0.131   6.011  0.6160 -0.5792 -0.0139
30687SOL    HW198666   2.868   0.109   6.104 -2.0900 -2.1029 -0.0296
30687SOL    HW298667   2.878   0.225   6.008  0.7773 -0.4816  2.0656
30688SOL     OW98668   0.827   3.785   3.384 -0.1655  0.0515  0.5372
30688SOL    HW198669   0.895   3.801   3.318 -1.3241 -1.2807 -1.0769
30688SOL    HW298670   0.840   3.854   3.449  0.1411  2.3491 -1.8031
30689SOL     OW98671   7.586   2.602   2.978  0.0471  0.0390  0.2572
30689SOL    HW198672   7.572   2.692   3.005 -2.4882 -0.3448  0.4523
30689SOL    HW298673   7.640   2.564   3.048 -0.9667  0.7669  1.4703
30690SOL     OW98674   0.034   8.096   0.480  0.0479  0.6610  0.9409
30690SOL    HW198675  -0.007   8.012   0.499 -1.2746  0.4428 -2.3966
30690SOL    HW298676  -0.037   8.159   0.483  0.3488  1.0683 -0.0934
30691SOL     OW98677   2.149   6.359  12.592  0.1823  0.2856 -0.1132
30691SOL    HW198678   2.182   6.317  12.671  0.6239  0.0948 -0.3906
30691SOL    HW298679   2.054   6.359  12.602  0.2828  1.6270  1.1042
30692SOL     OW98680   7.830   7.436   1.440 -0.2169  0.2893 -0.5887
30692SOL    HW198681   7.748   7.401   1.473 -1.0599  0.7764 -2.0710
30692SOL    HW298682   7.869   7.482   1.515 -0.6994 -0.9313  0.4445
30693SOL     OW98683   0.912   6.681   5.355  0.4716  0.5004  0.9247
30693SOL    HW198684   0.991   6.661   5.406 -0.6644 -0.2392  2.4850
30693SOL    HW298685   0.937   6.754   5.300  3.3249 -1.8648 -1.2662
30694SOL     OW98686   4.373   3.778  10.811 -0.0208 -0.5965 -0.0442
30694SOL    HW198687   4.293   3.795  10.859 -0.9515  0.0381 -1.7275
30694SOL    HW298688   4.346   3.721  10.739  0.5949  1.1853 -1.7848
30695SOL     OW98689   0.811   0.975   7.896 -0.1291  0.2781 -0.4156
30695SOL    HW198690   0.756   0.967   7.818 -0.2287 -1.0621 -0.2150
30695SOL    HW298691   0.750   0.977   7.969  0.0145  0.4938 -0.3001
30696SOL     OW98692   0.395   9.487   1.812 -0.3387 -0.4883  0.5239
30696SOL    HW198693   0.451   9.430   1.759  0.7303 -0.2120  1.3028
30696SOL    HW298694   0.306   9.464   1.787  0.0137 -2.9484  1.2548
30697SOL     OW98695  11.942  12.185   0.345 -0.1674  0.4194 -0.3595
30697SOL    HW198696  11.982  12.101   0.325  0.0224  0.2414  0.6924
30697SOL    HW298697  11.963  12.240   0.270  2.3650  0.4331  0.2463
30698SOL     OW98698   6.558   7.592   8.313  0.0842  0.1735 -0.0264
30698SOL    HW198699   6.536   7.545   8.394 -1.4526 -0.8856 -1.0139
30698SOL    HW298700   6.642   7.634   8.332  0.0375 -0.5136  1.9189
30699SOL     OW98701   1.175   4.558   5.845  0.4294 -0.1313 -0.0125
30699SOL    HW198702   1.121   4.558   5.924 -0.3365 -1.6014 -0.4969
30699SOL    HW298703   1.263   4.580   5.876  0.0646 -0.2737  1.1730
30700SOL     OW98704   1.456   5.948   2.004 -0.1231  0.0770 -0.1282
30700SOL    HW198705   1.389   5.993   2.054 -0.1027 -1.1149  1.0438
30700SOL    HW298706   1.408   5.898   1.938 -0.1625  1.4982 -1.2190
30701SOL     OW98707   3.080   4.802   2.983 -0.0807 -0.3706  0.0266
30701SOL    HW198708   3.102   4.767   3.070 -0.2644  2.4139  1.3222
30701SOL    HW298709   3.163   4.803   2.936  0.6606  0.6978  1.2571
30702SOL     OW98710   2.102   6.852   8.946 -0.2856 -0.1043  0.2665
30702SOL    HW198711   2.091   6.852   9.041  0.2939  0.8833  0.3492
30702SOL    HW298712   2.014   6.834   8.912 -0.4979 -0.4779  0.9849
30703SOL     OW98713   2.287   8.784   5.559 -0.2917 -0.0416  0.1680
30703SOL    HW198714   2.367   8.818   5.519  0.3998 -2.4389 -0.6802
30703SOL    HW298715   2.309   8.776   5.652 -0.0866  0.7474  0.1912
30704SOL     OW98716   7.410   8.885   8.416 -0.1328  0.6028 -0.1558
30704SOL    HW198717   7.475   8.814   8.416 -0.1501  0.5841  0.5736
30704SOL    HW298718   7.413   8.920   8.505 -0.1290  1.5193 -0.5099
30705SOL     OW98719   5.689   6.506   7.191 -1.0981  0.2967 -0.5542
30705SOL    HW198720   5.705   6.507   7.097 -0.2230 -1.7734 -0.4820
30705SOL    HW298721   5.639   6.585   7.208  0.4828  1.7863 -2.4290
30706SOL     OW98722   6.668  11.439   7.451 -0.0582  0.5659  0.0262
30706SOL    HW198723   6.633  11.371   7.393  1.3266  0.9578 -1.3359
30706SOL    HW298724   6.626  11.519   7.422  0.6384  0.7630 -0.4709
30707SOL     OW98725   4.305   5.278   1.471 -0.1897  0.1748  0.1618
30707SOL    HW198726   4.380   5.250   1.418  0.8377  1.2464  0.9717
30707SOL    HW298727   4.336   5.270   1.562 -1.6468 -0.9176  0.5952
30708SOL     OW98728   5.721  10.819   5.322  0.3246  0.7375 -0.0818
30708SOL    HW198729   5.740  10.902   5.365  1.5826 -0.2690  1.4188
30708SOL    HW298730   5.751  10.753   5.383 -0.8737 -0.8543 -1.1289
30709SOL     OW98731   3.580   1.629   9.877 -0.0743  0.4690  0.2532
30709SOL    HW198732   3.508   1.606   9.817 -0.2933  2.1560 -0.1704
30709SOL    HW298733   3.538   1.679   9.947  0.2273 -1.2346  1.7212
30710SOL     OW98734   6.010   9.472  12.584 -0.3399 -0.2373 -0.4539
30710SOL    HW198735   6.018   9.419  12.663 -2.0727 -2.5975 -1.7407
30710SOL    HW298736   6.017   9.563  12.616  3.0228 -1.1119  1.8002
30711SOL     OW98737   6.646   0.059   8.135  0.5685 -0.6514  0.0538
30711SOL    HW198738   6.550   0.062   8.131  0.5655 -1.0260 -0.1808
30711SOL    HW298739   6.666   0.077   8.227  0.3022  0.0327 -0.0120
30712SOL     OW98740   5.977   8.988  11.401  0.3259 -0.5788 -0.2803
30712SOL    HW198741   5.946   9.055  11.463  0.4915  1.2991 -2.1282
30712SOL    HW298742   6.062   8.961  11.436  0.0138 -0.2282  0.7936
30713SOL     OW98743   5.866   7.915  10.220  0.3968  0.1503 -0.2516
30713SOL    HW198744   5.886   7.962  10.301 -2.9188  0.2175  0.6678
30713SOL    HW298745   5.921   7.837  10.224  4.4395  2.6740 -0.7665
30714SOL     OW98746   1.810   3.027   0.449 -0.8659  0.3977  0.5673
30714SOL    HW198747   1.881   3.042   0.512  1.3937  0.7041 -1.8932
30714SOL    HW298748   1.787   3.115   0.419 -0.4278  0.1474 -0.5329
30715SOL     OW98749  11.789   1.251  10.087  0.4669  0.3662 -0.5484
30715SOL    HW198750  11.761   1.244   9.995  0.3580 -0.3382 -0.4661
30715SOL    HW298751  11.716   1.293  10.131  0.3034  0.2269 -0.6854
30716SOL     OW98752   9.358   6.345   7.207 -0.0948 -0.0244  0.2040
30716SOL    HW198753   9.451   6.340   7.227  0.2066 -2.2200 -1.3677
30716SOL    HW298754   9.321   6.400   7.276  2.1409 -0.1890  1.6192
30717SOL     OW98755   3.284   8.255  10.707  0.0222  0.3782 -0.3812
30717SOL    HW198756   3.359   8.309  10.736 -0.4009  0.9344 -0.3028
30717SOL    HW298757   3.212   8.284  10.762  0.2953 -1.9322  1.3254
30718SOL     OW98758   1.764   2.656   7.797  0.0451 -0.3670 -0.4482
30718SOL    HW198759   1.679   2.651   7.840 -0.9139  1.5196 -1.9670
30718SOL    HW298760   1.774   2.749   7.774  2.5773 -0.5050 -0.2238
30719SOL     OW98761   9.245   1.091   1.087  0.9527 -0.0230 -0.1473
30719SOL    HW198762   9.232   1.186   1.096  2.2054  0.0334  1.6085
30719SOL    HW298763   9.157   1.054   1.092  0.4843  1.0095 -0.3968
30720SOL     OW98764   7.679   7.401   8.396 -0.1293  0.2731  0.6291
30720SOL    HW198765   7.601   7.456   8.405  0.0643  0.3744  1.8420
30720SOL    HW298766   7.752   7.462   8.407  0.1015 -0.4097  3.8933
30721SOL     OW98767   0.286   0.896   5.371 -0.7541 -0.1690 -0.1512
30721SOL    HW198768   0.344   0.826   5.402  0.9912  0.9024 -0.8091
30721SOL    HW298769   0.285   0.960   5.443 -0.5707  0.1290 -0.4124
30722SOL     OW98770  10.512  11.260  10.586 -0.3188  0.0402  0.2405
30722SOL    HW198771  10.457  11.185  10.567 -0.9728  0.6428 -0.3190
30722SOL    HW298772  10.578  11.227  10.648 -1.2252 -0.7209  0.8299
30723SOL     OW98773   3.176   0.512   6.823  0.4408  0.4664  0.2953
30723SOL    HW198774   3.088   0.540   6.799  0.2319 -0.4414 -0.0248
30723SOL    HW298775   3.184   0.424   6.788  1.5814  0.6399  0.0732
30724SOL     OW98776   3.852   3.541   6.738 -0.4350  0.1185  0.0988
30724SOL    HW198777   3.777   3.594   6.768 -0.6434  0.1628 -0.4898
30724SOL    HW298778   3.928   3.581   6.780 -0.5150  1.2640 -0.7974
30725SOL     OW98779  10.654   1.743   6.593 -0.2382 -0.3180  0.1091
30725SOL    HW198780  10.621   1.687   6.663 -1.1995  1.0801  0.8303
30725SOL    HW298781  10.657   1.687   6.516  0.5920 -1.8377  1.1839
30726SOL     OW98782   3.642  10.099   3.293  0.3265 -0.0313 -0.2736
30726SOL    HW198783   3.590  10.137   3.222 -0.1730  1.3888  0.8125
30726SOL    HW298784   3.689  10.174   3.331  0.5658 -0.7617  0.9035
30727SOL     OW98785  10.496   7.500  11.771  0.0336 -0.0548  0.1871
30727SOL    HW198786  10.467   7.509  11.862  0.9739  1.0887  0.3923
30727SOL    HW298787  10.430   7.547  11.720  0.9658  1.7152  0.5596
30728SOL     OW98788   5.680  10.240   3.646  0.2994  0.8042  0.5848
30728SOL    HW198789   5.692  10.218   3.738  1.0715  2.5094  0.9170
30728SOL    HW298790   5.588  10.217   3.628  0.0471  0.7697  1.8577
30729SOL     OW98791   8.432  10.311   4.013 -0.2196  0.4886 -0.0851
30729SOL    HW198792   8.378  10.243   3.972  0.9413  0.5481 -1.8011
30729SOL    HW298793   8.504  10.325   3.952  0.2023  2.4491  0.7772
30730SOL     OW98794   8.515  10.479   9.588  0.0092 -0.1462 -0.1190
30730SOL    HW198795   8.528  10.518   9.502 -1.2056 -1.8522 -1.1471
30730SOL    HW298796   8.422  10.456   9.590 -0.1217  0.4055  1.9108
30731SOL     OW98797   9.104   1.924  11.826 -0.1525  0.0015  0.5196
30731SOL    HW198798   9.193   1.906  11.795 -0.3243 -0.3626  0.2293
30731SOL    HW298799   9.083   2.010  11.790 -1.3993 -1.5238 -2.8848
30732SOL     OW98800   8.816   7.557   7.879  0.4381 -0.9895 -0.4072
30732SOL    HW198801   8.874   7.538   7.952 -0.7657 -0.0862  0.8458
30732SOL    HW298802   8.737   7.504   7.896 -1.1335  1.5147  0.7428
30733SOL     OW98803   8.804   2.179   3.831  0.3503 -0.2455 -0.2860
30733SOL    HW198804   8.743   2.248   3.806  0.3372  0.1800  0.8813
30733SOL    HW298805   8.748   2.106   3.860  0.3749 -0.5645 -1.0112
30734SOL     OW98806   4.734  11.046  10.950 -0.2254  0.0879 -0.3336
30734SOL    HW198807   4.720  11.014  11.040  0.0085 -1.8798 -0.9460
30734SOL    HW298808   4.827  11.068  10.946 -0.5892  1.9145  0.3840
30735SOL     OW98809  11.528   1.675   1.072 -0.2333  0.1490  0.6258
30735SOL    HW198810  11.572   1.749   1.115  0.2086  0.1145  0.2386
30735SOL    HW298811  11.599   1.623   1.035 -0.4972 -0.8412  1.4632
30736SOL     OW98812   3.681  10.025  11.038 -0.3095  0.2919  0.1187
30736SOL    HW198813   3.672  10.080  11.116 -1.5719 -0.6478  0.6689
30736SOL    HW298814   3.743  10.072  10.982  1.7410  0.3372  2.2762
30737SOL     OW98815   6.774   5.836   2.892  0.1169 -0.7273  0.1628
30737SOL    HW198816   6.839   5.832   2.963  0.1889  2.3911  0.4221
30737SOL    HW298817   6.697   5.877   2.933 -0.5183 -0.6207 -1.0967
30738SOL     OW98818   1.394  12.333   0.796 -0.2182  0.8703 -0.2383
30738SOL    HW198819   1.311  12.307   0.836 -1.3033  0.0524 -2.8249
30738SOL    HW298820   1.382  12.425   0.773  1.1978  2.0144  2.9806
30739SOL     OW98821   7.240  12.176   6.664 -0.1762 -0.5702  0.2591
30739SOL    HW198822   7.240  12.271   6.664 -0.7745 -0.5506  1.7727
30739SOL    HW298823   7.149  12.152   6.647  0.1182 -0.8937 -0.9259
30740SOL     OW98824  12.262  11.024   5.825  0.2496  0.2992 -0.1632
30740SOL    HW198825  12.219  10.961   5.882  0.8581  0.4948  0.5181
30740SOL    HW298826  12.202  11.033   5.750  0.1803 -1.1371 -0.3168
30741SOL     OW98827   0.786   2.540   1.371 -0.1455  0.2274 -0.6577
30741SOL    HW198828   0.759   2.465   1.317 -0.9167  0.2258 -0.2797
30741SOL    HW298829   0.767   2.617   1.318  0.8883  0.1640 -1.1526
30742SOL     OW98830   7.200   3.862  12.123  0.3433  0.0616  0.5080
30742SOL    HW198831   7.258   3.931  12.154  1.6567 -0.5593 -0.4873
30742SOL    HW298832   7.204   3.795  12.191 -0.2732  0.5766  1.0697
30743SOL     OW98833   3.146   3.459   8.467  0.4342  0.0058  0.1562
30743SOL    HW198834   3.154   3.367   8.444  2.9075 -0.3466  1.9234
30743SOL    HW298835   3.189   3.506   8.396  1.5481 -0.4653  0.4947
30744SOL     OW98836  11.435  10.206  11.639  0.7634  0.0020 -0.3619
30744SOL    HW198837  11.399  10.238  11.722 -0.0751  0.2125 -0.7898
30744SOL    HW298838  11.528  10.192  11.656  0.8903  1.4145  0.2064
30745SOL     OW98839   3.793   9.252  10.523  0.3503 -0.0019  0.2815
30745SOL    HW198840   3.875   9.294  10.498  0.3250 -0.2101 -0.1674
30745SOL    HW298841   3.745   9.319  10.571  0.3153  0.4845 -0.4178
30746SOL     OW98842   1.652   1.856  12.046 -1.1280  0.6351 -0.1587
30746SOL    HW198843   1.612   1.940  12.065 -0.4027  0.5378  2.1569
30746SOL    HW298844   1.744   1.867  12.073 -1.0523 -0.9124  0.3118
30747SOL     OW98845   0.963   2.456  11.508 -0.5030 -0.3107 -0.4528
30747SOL    HW198846   0.878   2.441  11.468  0.0739 -0.8390 -1.5098
30747SOL    HW298847   0.954   2.420  11.596 -1.0990 -1.1645 -0.8523
30748SOL     OW98848  12.618   4.487   3.008 -0.0564  0.1530 -0.2836
30748SOL    HW198849  12.706   4.459   3.032 -0.4044  0.1752  1.1350
30748SOL    HW298850  12.607   4.459   2.917 -0.0435 -3.5858  0.7203
30749SOL     OW98851   9.153  12.037   3.111  0.5956 -0.2602 -0.4391
30749SOL    HW198852   9.203  12.051   3.191  1.4783 -1.3523 -0.7852
30749SOL    HW298853   9.062  12.055   3.137  1.1343  1.9987  0.1273
30750SOL     OW98854  10.875  11.665   6.741  0.0496 -0.3996  0.1843
30750SOL    HW198855  10.843  11.623   6.661  1.7665 -0.5660 -0.4445
30750SOL    HW298856  10.813  11.736   6.757 -1.1564 -1.2778 -0.4462
30751SOL     OW98857   2.694   1.261   4.292 -0.1125 -0.0310 -0.2334
30751SOL    HW198858   2.744   1.218   4.223 -0.0435  1.1341 -0.9409
30751SOL    HW298859   2.617   1.205   4.305  0.6846 -1.1294 -0.0747
30752SOL     OW98860   0.618   0.909   6.666  0.4009 -0.4353 -0.2237
30752SOL    HW198861   0.620   0.913   6.761 -1.3670 -0.1219 -0.1650
30752SOL    HW298862   0.574   0.990   6.639 -0.8365 -1.3941 -1.1922
30753SOL     OW98863  11.930  11.350   7.677 -0.2072 -0.4281  0.0741
30753SOL    HW198864  11.994  11.282   7.655  0.7207  0.5225 -0.2458
30753SOL    HW298865  11.933  11.356   7.772  0.5640 -0.0325  0.0281
30754SOL     OW98866   3.432  10.652   9.041 -0.2217 -0.3507  0.0223
30754SOL    HW198867   3.496  10.582   9.028  0.2122  0.2017 -0.8615
30754SOL    HW298868   3.359  10.629   8.983 -0.1183 -0.1268 -0.1995
30755SOL     OW98869   5.688   1.395   9.235  0.3583 -0.7799 -0.0053
30755SOL    HW198870   5.721   1.360   9.318  0.5596  0.5238  0.4901
30755SOL    HW298871   5.612   1.448   9.261  0.6185 -0.0985 -0.6175
30756SOL     OW98872   0.847   4.003   6.381  0.3790  0.2339  0.4429
30756SOL    HW198873   0.877   3.984   6.292 -0.6635 -1.8875  0.4895
30756SOL    HW298874   0.860   3.922   6.429  2.3128  1.7254  2.7132
30757SOL     OW98875  11.305   5.410   8.439  0.4575  0.0874  0.2561
30757SOL    HW198876  11.394   5.414   8.405 -0.1517  0.3601 -1.4213
30757SOL    HW298877  11.274   5.323   8.414  0.3092 -0.0720  0.9842
30758SOL     OW98878   9.618   1.703   5.194 -0.3595  0.2271 -0.1391
30758SOL    HW198879   9.535   1.666   5.225 -0.2157  0.8688  1.0305
30758SOL    HW298880   9.677   1.627   5.186 -1.2308 -0.3470 -1.6808
30759SOL     OW98881   3.536   8.813  11.397 -0.8407  0.6377  1.0035
30759SOL    HW198882   3.469   8.815  11.329 -0.1794  2.7635  0.3338
30759SOL    HW298883   3.588   8.735  11.377 -2.5622 -0.6017  1.0589
30760SOL     OW98884   7.333  10.439   3.801 -0.2559  0.1240  0.1751
30760SOL    HW198885   7.419  10.463   3.766  0.0584 -0.0816  0.8002
30760SOL    HW298886   7.322  10.347   3.774  0.1656 -0.1611  0.9525
30761SOL     OW98887   4.089   2.578   2.166 -0.2677 -0.0843  0.1778
30761SOL    HW198888   4.124   2.534   2.244 -0.9727 -0.5436  0.2373
30761SOL    HW298889   4.075   2.669   2.194 -0.4572 -0.2328  0.5694
30762SOL     OW98890   9.776   2.701   2.547 -0.1576  0.2189 -0.2047
30762SOL    HW198891   9.785   2.635   2.616  0.0695  1.0854  0.6141
30762SOL    HW298892   9.727   2.656   2.478 -0.6091 -0.5983  0.6151
30763SOL     OW98893   5.683   7.477   4.558 -0.1046 -0.4123  0.5758
30763SOL    HW198894   5.645   7.405   4.509  3.0386 -1.6277 -0.3698
30763SOL    HW298895   5.627   7.552   4.539 -1.0022 -1.6238 -2.0271
30764SOL     OW98896   1.989   9.432  11.798 -0.4133 -0.0728 -0.0070
30764SOL    HW198897   2.070   9.386  11.822 -0.5035 -0.0029  0.4538
30764SOL    HW298898   1.925   9.362  11.785 -0.5844 -0.0879  0.8237
30765SOL     OW98899   1.275   4.788   6.093  0.2222  0.3470  0.1229
30765SOL    HW198900   1.367   4.801   6.068 -0.2394  0.3561 -1.7448
30765SOL    HW298901   1.278   4.724   6.164  1.6206 -0.2681 -0.4543
30766SOL     OW98902   2.005   5.600  10.060 -0.3119  0.1973 -0.7226
30766SOL    HW198903   2.054   5.612   9.978 -0.0695 -0.3747 -0.6689
30766SOL    HW298904   2.024   5.509  10.086 -0.6724  0.2617 -0.2191
30767SOL     OW98905   3.271  12.342  11.234 -0.2493 -0.0213  0.2768
30767SOL    HW198906   3.266  12.282  11.308  1.7389  0.2071  0.6510
30767SOL    HW298907   3.188  12.390  11.237 -1.4127 -1.9586  0.6130
30768SOL     OW98908   9.850   7.105  10.413 -0.2805  0.7156 -0.5427
30768SOL    HW198909   9.774   7.065  10.372 -1.3913  1.5323  0.6502
30768SOL    HW298910   9.815   7.150  10.489  1.5789 -0.0549  0.8477
30769SOL     OW98911  12.620  10.761   5.450 -0.0447  0.0633 -0.1109
30769SOL    HW198912  12.615  10.711   5.531 -2.8433  0.0277 -0.2022
30769SOL    HW298913  12.687  10.717   5.398 -1.0845 -2.4722  0.5689
30770SOL     OW98914   7.594   8.547   7.062  0.1138  0.0606  0.0226
30770SOL    HW198915   7.585   8.635   7.025  1.0798  0.7020  1.2537
30770SOL    HW298916   7.679   8.516   7.031  1.0748  0.7229  1.8252
30771SOL     OW98917  10.966   2.469   0.184 -0.2790  0.2147  0.1920
30771SOL    HW198918  10.890   2.412   0.172 -0.9976  0.6408  2.1750
30771SOL    HW298919  10.965   2.490   0.278  1.3433  1.5613 -0.0406
30772SOL     OW98920   9.020  12.381   7.905 -0.0813  0.8327 -0.1002
30772SOL    HW198921   9.045  12.327   7.980 -0.1564 -1.8799 -1.8891
30772SOL    HW298922   8.926  12.395   7.916  0.0189  0.9782  0.6150
30773SOL     OW98923  11.684   5.040  10.692  0.0510 -0.6317 -0.3614
30773SOL    HW198924  11.647   5.054  10.605 -0.4372 -1.0758 -0.2277
30773SOL    HW298925  11.732   4.957  10.685 -0.3649 -0.8985 -0.0908
30774SOL     OW98926   1.675   2.737  10.799  0.3526 -0.4608 -0.4399
30774SOL    HW198927   1.724   2.681  10.861 -0.9780 -2.2755 -0.9427
30774SOL    HW298928   1.584   2.726  10.824 -0.0482  0.4261 -1.4580
30775SOL     OW98929   0.481   5.878   2.000  0.0266 -0.3180 -0.0315
30775SOL    HW198930   0.448   5.849   1.915  1.6173 -1.1938 -0.3810
30775SOL    HW298931   0.568   5.839   2.007 -0.2014 -0.5669  2.1578
30776SOL     OW98932   0.343   4.718   9.619 -0.6726  0.4143 -0.1081
30776SOL    HW198933   0.275   4.739   9.683 -1.4817 -1.6447 -0.2377
30776SOL    HW298934   0.413   4.680   9.671 -0.0884  1.4145 -0.1307
30777SOL     OW98935   8.554   1.760   1.081  0.3914 -0.3741  0.0134
30777SOL    HW198936   8.586   1.682   1.126  2.1281  0.9693  1.2012
30777SOL    HW298937   8.629   1.792   1.032 -0.2778  0.6243 -0.3830
30778SOL     OW98938  12.422   3.332   6.880  0.1442 -0.4309 -0.1035
30778SOL    HW198939  12.504   3.327   6.930 -0.9655  1.2232  2.0543
30778SOL    HW298940  12.361   3.278   6.929 -0.4744 -0.4260 -0.8468
30779SOL     OW98941  10.407  10.462   7.519 -0.3077 -0.4316  0.2499
30779SOL    HW198942  10.316  10.432   7.528  0.3243 -2.8841 -0.7295
30779SOL    HW298943  10.411  10.541   7.572 -3.3807  0.6092 -0.8109
30780SOL     OW98944   4.524   8.785   8.170  0.5335  0.5027  0.1986
30780SOL    HW198945   4.565   8.855   8.119  0.8486  0.8113  0.8642
30780SOL    HW298946   4.441   8.824   8.201  0.2190  0.2289 -0.2891
30781SOL     OW98947   0.944  10.211  12.111  0.3982  0.0758  0.5346
30781SOL    HW198948   1.037  10.195  12.094  0.0941 -0.9562 -0.2543
30781SOL    HW298949   0.943  10.257  12.195  1.7716  2.3228 -0.5481
30782SOL     OW98950   5.030  11.057   5.913  0.4587 -0.2577  0.1932
30782SOL    HW198951   5.017  11.125   5.846  1.2154 -1.0697 -0.8177
30782SOL    HW298952   5.099  11.093   5.969  0.0836  0.2767  0.3155
30783SOL     OW98953   9.876   0.240   2.769  1.0249 -0.5243 -0.4695
30783SOL    HW198954   9.839   0.324   2.741  1.2906 -0.8516 -1.8910
30783SOL    HW298955   9.952   0.228   2.713  2.5370 -0.5132  1.4885
30784SOL     OW98956   8.498   3.523   2.469  0.1782 -0.7187 -0.3170
30784SOL    HW198957   8.505   3.443   2.417  0.1216 -1.0415  0.1688
30784SOL    HW298958   8.456   3.496   2.550 -1.4613  0.1348 -0.8434
30785SOL     OW98959   7.442  11.454   8.254 -1.0175 -0.5107  0.4137
30785SOL    HW198960   7.490  11.400   8.192 -0.7416 -1.2297  1.2267
30785SOL    HW298961   7.399  11.391   8.313 -0.9712  0.1468  1.1712
30786SOL     OW98962   3.994  11.234   8.226 -0.2160  0.0831 -0.2949
30786SOL    HW198963   3.920  11.291   8.205 -0.9760 -0.5261  0.6735
30786SOL    HW298964   3.964  11.181   8.300  0.9414 -0.6676 -0.3380
30787SOL     OW98965   3.502   8.587   9.515  0.6125  0.1743  0.2674
30787SOL    HW198966   3.483   8.677   9.486  1.2127  0.1108 -0.3454
30787SOL    HW298967   3.465   8.582   9.604  0.7766  1.0994  0.3977
30788SOL     OW98968  10.806   4.663  11.864 -0.1169  0.6823  0.1896
30788SOL    HW198969  10.788   4.724  11.792 -1.1802 -0.8502 -0.8996
30788SOL    HW298970  10.901   4.662  11.871  0.0556  0.4375 -1.6284
30789SOL     OW98971   4.477   1.654   2.294 -0.3484  0.2382 -0.3650
30789SOL    HW198972   4.463   1.676   2.386 -0.3998  0.3647 -0.4032
30789SOL    HW298973   4.535   1.578   2.297  0.3713  0.7795 -0.2460
30790SOL     OW98974   4.278   8.032   0.109 -0.3496 -0.3326 -0.4596
30790SOL    HW198975   4.300   8.077   0.028  0.9110  0.8854  0.5069
30790SOL    HW298976   4.302   7.941   0.093  0.7804  0.0578 -1.1482
30791SOL     OW98977   7.639  12.072   0.587 -0.2759  0.0464  0.1847
30791SOL    HW198978   7.726  12.039   0.563 -0.7753 -1.5785  0.4476
30791SOL    HW298979   7.581  11.998   0.571 -1.2154  0.1462  2.7050
30792SOL     OW98980   9.967  11.559   6.445 -0.4682  0.5365 -0.5499
30792SOL    HW198981   9.885  11.548   6.396 -0.7218 -0.1937  0.0252
30792SOL    HW298982  10.014  11.476   6.433 -0.5018  0.3713  0.3860
30793SOL     OW98983   0.842  12.367   6.701 -0.1320  0.0745  0.1791
30793SOL    HW198984   0.773  12.343   6.762 -0.2161  1.9380  0.8945
30793SOL    HW298985   0.824  12.316   6.622 -0.2018 -2.1787  1.5530
30794SOL     OW98986  11.697  12.224  11.624  0.1222  0.0918 -0.3111
30794SOL    HW198987  11.710  12.238  11.718  2.3387  0.6770 -0.6396
30794SOL    HW298988  11.649  12.301  11.595  1.4690  1.0996  0.0029
30795SOL     OW98989  11.570   8.232   5.625  0.5588 -0.7378 -0.0400
30795SOL    HW198990  11.534   8.308   5.671  1.3784  1.1695 -2.3183
30795SOL    HW298991  11.653   8.214   5.670 -0.0699 -0.9160  1.0904
30796SOL     OW98992   0.469   2.117  10.386 -0.3546 -0.0492 -0.1285
30796SOL    HW198993   0.479   2.186  10.452 -0.4323  0.7326 -0.9050
30796SOL    HW298994   0.548   2.123  10.333 -0.2057 -0.7951  0.0109
30797SOL     OW98995   8.895   5.970  12.277 -0.7811  0.2675 -0.0989
30797SOL    HW198996   8.841   5.901  12.239 -0.2417  0.7271 -1.7840
30797SOL    HW298997   8.982   5.930  12.285 -1.1884 -0.2957  2.0928
30798SOL     OW98998   5.157  12.510   6.868  0.4132  0.4392 -0.7219
30798SOL    HW198999   5.095  12.576   6.839  0.3884  0.9981  0.5340
30798SOL    HW299000   5.133  12.431   6.820 -0.2963  1.0298 -1.3639
30799SOL     OW99001   2.547   6.561  10.263  0.7343  0.2663 -0.5929
30799SOL    HW199002   2.462   6.579  10.303  0.8100  2.5498 -1.3152
30799SOL    HW299003   2.542   6.601  10.177  3.0360  1.8528 -0.0792
30800SOL     OW99004   9.791  11.597   5.956  0.0773 -0.0307  0.6319
30800SOL    HW199005   9.852  11.529   5.927  1.2923  0.5535  1.7049
30800SOL    HW299006   9.750  11.628   5.875  1.7719  0.0731 -0.2330
30801SOL     OW99007  12.741   9.445  11.597 -0.1724  0.3924 -0.0703
30801SOL    HW199008  12.687   9.499  11.538 -0.0907  0.4673 -0.0773
30801SOL    HW299009  12.786   9.508  11.653  0.3954  0.3580 -0.4808
30802SOL     OW99010   6.789   4.448  10.599 -0.1196 -0.0914 -0.0244
30802SOL    HW199011   6.703   4.408  10.589  0.3645 -0.7436 -2.0539
30802SOL    HW299012   6.817   4.423  10.687 -1.7406 -0.3580  0.4405
30803SOL     OW99013   3.364   0.565  12.297 -0.1031 -0.2350  0.8038
30803SOL    HW199014   3.428   0.543  12.230  0.4391  0.8522  0.9319
30803SOL    HW299015   3.400   0.643  12.340 -0.5878 -0.7163  2.1459
30804SOL     OW99016   0.620   0.682   3.975  0.2171  0.0594 -0.2717
30804SOL    HW199017   0.558   0.619   3.937 -0.4114 -0.1292  1.0201
30804SOL    HW299018   0.569   0.763   3.982 -0.4011 -0.4442  2.0708
30805SOL     OW99019   4.791  10.969  12.618  0.1915  0.0813  0.0115
30805SOL    HW199020   4.718  11.019  12.655  0.2102 -0.3900  0.7162
30805SOL    HW299021   4.839  10.937  12.695 -0.7424 -2.3897 -0.3519
30806SOL     OW99022   0.853  11.120   2.524  0.2603  0.6829  0.3421
30806SOL    HW199023   0.808  11.071   2.593 -0.7723  1.8298  0.5189
30806SOL    HW299024   0.782  11.153   2.469  0.8049  2.9225  0.8861
30807SOL     OW99025   2.019   6.149   7.521  0.2516 -0.1020 -0.1916
30807SOL    HW199026   1.990   6.167   7.610 -0.1801  0.3381 -0.4161
30807SOL    HW299027   1.938   6.144   7.470  0.5376  0.6577 -0.7377
30808SOL     OW99028   5.030   8.886   8.278 -0.5169 -0.4793  0.0433
30808SOL    HW199029   5.085   8.945   8.330 -1.9911  1.2931 -0.3419
30808SOL    HW299030   5.090   8.816   8.251  1.0367  0.2444  1.4153
30809SOL     OW99031   8.311  12.717   9.391  0.2527  0.3193  0.2993
30809SOL    HW199032   8.239  12.656   9.408  0.4534  0.0523  0.1976
30809SOL    HW299033   8.388  12.662   9.386  0.4368  0.5836  0.2043
30810SOL     OW99034   7.236  10.831   8.849  0.4838  0.4011  0.2521
30810SOL    HW199035   7.328  10.807   8.840  0.9805  1.0113  2.9147
30810SOL    HW299036   7.233  10.924   8.824  0.7204  0.5319  0.6920
30811SOL     OW99037   2.719   5.536   8.054  0.1546  0.3653  0.0898
30811SOL    HW199038   2.774   5.600   8.100  3.6155 -1.5985 -0.9219
30811SOL    HW299039   2.726   5.560   7.962  1.6202 -1.3987 -0.3223
30812SOL     OW99040   5.866  11.019   3.120 -0.1554 -0.7443 -0.3799
30812SOL    HW199041   5.950  11.060   3.098 -0.7317  1.7891  1.6841
30812SOL    HW299042   5.885  10.925   3.122  2.4170 -0.3139 -0.6971
30813SOL     OW99043   8.543  11.149   3.589 -0.3356  0.3288 -0.0249
30813SOL    HW199044   8.504  11.072   3.631  0.6607  0.2837  0.8416
30813SOL    HW299045   8.514  11.223   3.643  0.1681  0.3693  0.1946
30814SOL     OW99046   5.119   3.866   6.739  0.5054 -0.5668  0.7920
30814SOL    HW199047   5.056   3.892   6.671  1.1982 -0.5470  0.1388
30814SOL    HW299048   5.096   3.776   6.760  1.4069 -1.2233 -0.8259
30815SOL     OW99049   5.820   1.464  12.455  0.0370 -0.8127  0.2829
30815SOL    HW199050   5.780   1.551  12.456  1.2580 -0.2342  1.1347
30815SOL    HW299051   5.862   1.456  12.541 -0.9640 -2.6961  0.6552
30816SOL     OW99052  10.418   9.234   4.669  0.2159  0.1395 -0.0399
30816SOL    HW199053  10.333   9.216   4.710  0.6595 -0.9286  0.4557
30816SOL    HW299054  10.473   9.265   4.740  0.2261  0.9164 -0.3792
30817SOL     OW99055   1.767   3.255  11.228  0.0033  0.4852  0.3825
30817SOL    HW199056   1.791   3.330  11.173  1.9764 -0.8174 -0.6687
30817SOL    HW299057   1.710   3.202  11.172  2.0120 -0.8414 -0.5114
30818SOL     OW99058   6.996   5.387  12.015  0.1456  0.0027  0.1690
30818SOL    HW199059   7.057   5.435  11.959 -0.6223  0.7656 -0.0303
30818SOL    HW299060   7.007   5.425  12.102 -0.1705  0.2576  0.0968
30819SOL     OW99061   7.984   5.668   1.515 -1.1480  0.0349  0.8865
30819SOL    HW199062   7.928   5.612   1.461 -1.2860  0.4446  0.5986
30819SOL    HW299063   7.934   5.681   1.595 -0.5830 -1.2633  1.4760
30820SOL     OW99064   0.415   9.949   1.407 -0.5491  0.0816  0.3659
30820SOL    HW199065   0.382   9.973   1.494  0.0858 -0.1278  0.6763
30820SOL    HW299066   0.493   9.896   1.425  0.6786  1.5622 -0.3325
30821SOL     OW99067   0.911   2.535   2.127 -0.0658 -0.3193  0.1984
30821SOL    HW199068   1.005   2.526   2.138  0.0436  0.2587 -0.2338
30821SOL    HW299069   0.887   2.470   2.062  0.1928  0.1990 -0.4208
30822SOL     OW99070   2.055   7.574   4.316  0.2168  0.7107  0.0950
30822SOL    HW199071   2.109   7.650   4.296  2.0391 -0.3077  0.9418
30822SOL    HW299072   1.992   7.570   4.244  1.6177  1.6255 -1.2504
30823SOL     OW99073   9.918   9.100  11.439 -0.5351  0.0622  0.3818
30823SOL    HW199074   9.953   9.093  11.528  0.6480  0.3750 -0.0352
30823SOL    HW299075   9.958   9.027  11.391 -1.4600 -0.3328  0.1831
30824SOL     OW99076   9.632  11.340   4.175  0.4639 -0.4049  0.3060
30824SOL    HW199077   9.711  11.287   4.189  0.1526 -1.2274 -0.8601
30824SOL    HW299078   9.623  11.343   4.080 -1.0226 -0.4921  0.4270
30825SOL     OW99079   9.045   1.207  11.238  0.5165 -0.0481 -1.0279
30825SOL    HW199080   9.112   1.146  11.269 -1.0523 -2.2470 -1.7119
30825SOL    HW299081   9.039   1.190  11.143 -0.5245  0.5776 -1.0960
30826SOL     OW99082   6.915   3.844  11.753 -0.1850 -0.6122  0.0991
30826SOL    HW199083   6.896   3.811  11.841 -0.1960  0.4835  0.5221
30826SOL    HW299084   6.857   3.793  11.696 -1.6228 -0.0013  0.9453
30827SOL     OW99085   6.465  10.945   5.204  0.2164  0.1438 -0.3866
30827SOL    HW199086   6.460  10.858   5.165 -0.6822  0.3363 -0.7099
30827SOL    HW299087   6.398  10.996   5.160  1.5916  1.3892 -1.1570
30828SOL     OW99088  11.502   0.801   6.575  0.1153 -0.2685  0.2044
30828SOL    HW199089  11.584   0.845   6.598 -0.5421  1.4660 -0.5872
30828SOL    HW299090  11.512   0.712   6.610  2.4522 -0.2144 -0.1407
30829SOL     OW99091  10.198   1.574   3.541  0.2769  0.2412 -0.1037
30829SOL    HW199092  10.175   1.666   3.549  0.1177  0.1634  0.4044
30829SOL    HW299093  10.293   1.572   3.546  0.4116  0.5417 -1.9701
30830SOL     OW99094   5.246   8.401  10.805  0.5512  0.0602  1.3061
30830SOL    HW199095   5.275   8.421  10.894  1.8199 -0.2725  0.9780
30830SOL    HW299096   5.273   8.311  10.789  1.4579  0.5110  0.1454
30831SOL     OW99097   3.130   5.833   3.168  0.4413  0.8128 -0.6787
30831SOL    HW199098   3.058   5.781   3.132  1.8329 -1.6159 -0.1628
30831SOL    HW299099   3.101   5.857   3.256 -0.5209  1.6093 -1.1913
30832SOL     OW99100   3.437   3.386   5.899  0.0371 -0.5027 -0.4414
30832SOL    HW199101   3.396   3.453   5.954  0.0614 -0.0663 -0.9479
30832SOL    HW299102   3.426   3.418   5.809 -0.9613 -1.7244 -0.7869
30833SOL     OW99103   9.125   1.137  10.714 -0.1076 -0.1898  0.1796
30833SOL    HW199104   9.060   1.067  10.721 -0.9952  0.4790 -1.0055
30833SOL    HW299105   9.204   1.093  10.683 -0.8630 -0.5868 -1.2731
30834SOL     OW99106  11.355   6.066   4.856  0.6845 -0.1596 -0.5017
30834SOL    HW199107  11.376   6.136   4.917  2.2000 -0.6192 -0.4479
30834SOL    HW299108  11.400   5.989   4.891 -0.1277 -0.9279 -1.0903
30835SOL     OW99109   9.739   9.289   5.053  0.4543 -0.0987 -0.0770
30835SOL    HW199110   9.803   9.253   4.991  0.8260  0.7564 -0.2114
30835SOL    HW299111   9.714   9.215   5.108  0.9761 -0.6172 -0.5223
30836SOL     OW99112   3.421   8.481   9.762  0.7969 -0.3145 -0.3511
30836SOL    HW199113   3.354   8.505   9.826  0.5921 -0.5629 -0.4730
30836SOL    HW299114   3.492   8.444   9.814  0.8507 -0.0314 -0.2189
30837SOL     OW99115   2.596  11.242   1.908  0.4272  0.1377 -0.1473
30837SOL    HW199116   2.601  11.282   1.995  0.0144  2.2154 -1.0080
30837SOL    HW299117   2.505  11.257   1.880  0.9681  1.0016 -1.5640
30838SOL     OW99118   2.315   5.445   4.655 -0.0737  0.1620  0.0215
30838SOL    HW199119   2.406   5.470   4.675  0.0871 -0.2968 -0.1195
30838SOL    HW299120   2.268   5.528   4.651  0.0624  0.3287  1.4139
30839SOL     OW99121   6.700   5.920   9.804 -0.1173  0.3889 -0.0785
30839SOL    HW199122   6.636   5.984   9.836 -0.9812  0.5323 -1.9339
30839SOL    HW299123   6.700   5.850   9.869 -1.7172  0.6846  0.2666
30840SOL     OW99124   5.983  12.244   8.867 -0.2777  0.4012  0.2528
30840SOL    HW199125   5.967  12.336   8.844 -0.4215  0.0108 -1.3711
30840SOL    HW299126   6.071  12.226   8.833 -0.9544 -0.5264 -1.0945
30841SOL     OW99127   6.298   6.453   2.132  0.8569 -0.0267  0.2835
30841SOL    HW199128   6.265   6.452   2.222 -0.1998  0.1462 -0.0933
30841SOL    HW299129   6.385   6.493   2.139  1.7873 -2.0773  1.5357
30842SOL     OW99130  10.078  12.294   0.817  0.1288  0.0229 -0.9041
30842SOL    HW199131  10.057  12.388   0.811 -0.6820 -0.1219 -0.4679
30842SOL    HW299132  10.172  12.292   0.835  0.3651  0.7238 -1.9459
30843SOL     OW99133   2.130   9.848   9.259 -0.0260 -0.3270  0.7752
30843SOL    HW199134   2.089   9.916   9.313 -0.5492 -1.1620  1.4558
30843SOL    HW299135   2.214   9.886   9.233 -0.8500  1.0840  0.0625
30844SOL     OW99136   8.310   1.533   4.720  0.5716 -0.5237  0.0695
30844SOL    HW199137   8.236   1.511   4.777  0.4970  0.5853  0.4168
30844SOL    HW299138   8.317   1.628   4.726  1.8424 -0.5912 -0.1899
30845SOL     OW99139  11.664   1.620   8.650  0.0040  0.0973 -0.0894
30845SOL    HW199140  11.731   1.553   8.641  1.1476  1.3959 -2.0049
30845SOL    HW299141  11.584   1.572   8.669  0.5081 -1.9610 -2.7094
30846SOL     OW99142   1.929   7.688   6.160 -0.4001 -0.1114 -0.1172
30846SOL    HW199143   1.834   7.696   6.168 -0.6581 -1.5645 -1.1820
30846SOL    HW299144   1.950   7.725   6.075  0.0854  0.7412  0.3612
30847SOL     OW99145   7.757   1.918   8.489 -0.6860  0.0059  0.2273
30847SOL    HW199146   7.832   1.889   8.540 -0.4027  0.9384  0.3649
30847SOL    HW299147   7.788   1.915   8.398 -0.9288 -0.8872  0.1664
30848SOL     OW99148   9.720   6.268   0.700  0.3468 -0.0248 -0.4922
30848SOL    HW199149   9.630   6.254   0.728 -0.7491 -0.6981 -3.9017
30848SOL    HW299150   9.713   6.301   0.611  3.4638 -1.9445 -1.6155
30849SOL     OW99151  11.287  10.522  10.274  0.3848  0.4114 -0.4212
30849SOL    HW199152  11.221  10.569  10.224  1.4512 -0.6850 -3.0492
30849SOL    HW299153  11.237  10.467  10.335 -0.9944  1.4622 -0.5707
30850SOL     OW99154  10.419   1.528   8.267 -0.9355 -0.4180 -0.4276
30850SOL    HW199155  10.458   1.450   8.227 -0.5754 -0.5410  0.1512
30850SOL    HW299156  10.381   1.497   8.349 -0.0378  0.1508  0.2341
30851SOL     OW99157   2.627   3.665   2.585 -0.0441 -0.3470 -0.6437
30851SOL    HW199158   2.622   3.761   2.594  1.1757 -0.1391 -1.8615
30851SOL    HW299159   2.557   3.644   2.524 -1.5390 -0.5025  1.0363
30852SOL     OW99160   0.525  12.622   5.973  0.2807  0.0554 -0.0204
30852SOL    HW199161   0.472  12.598   5.897 -0.4367 -2.2062  1.1217
30852SOL    HW299162   0.467  12.676   6.027  0.0934 -0.0659 -0.1014
30853SOL     OW99163   1.516  12.302   8.377 -0.7575 -0.0342  0.0420
30853SOL    HW199164   1.548  12.371   8.319  1.3091 -0.6486  0.3421
30853SOL    HW299165   1.440  12.340   8.421  0.3137  2.0881  0.2210
30854SOL     OW99166   2.189   1.202  12.439 -0.0110 -0.0379  0.5347
30854SOL    HW199167   2.108   1.205  12.490 -0.7253  0.2497 -0.5878
30854SOL    HW299168   2.252   1.253  12.490  0.0060 -1.6631  2.2824
30855SOL     OW99169  12.129   7.507   4.315 -0.5827 -0.6970 -0.3773
30855SOL    HW199170  12.048   7.548   4.345 -1.9364 -3.7247  0.5594
30855SOL    HW299171  12.119   7.502   4.220 -0.6416  0.5401 -0.4522
30856SOL     OW99172  12.678   9.819   8.150 -0.0504 -0.1028  0.4477
30856SOL    HW199173  12.752   9.758   8.144 -0.8019 -0.9578 -0.4842
30856SOL    HW299174  12.606   9.766   8.185 -0.8932  0.0543 -0.9608
30857SOL     OW99175   4.584   3.088   2.295  0.0739 -0.2792 -0.3444
30857SOL    HW199176   4.566   3.182   2.295 -0.3784 -0.3398  1.4876
30857SOL    HW299177   4.550   3.057   2.211 -0.5559  1.0489 -0.5959
30858SOL     OW99178   0.563   4.131   2.421  0.2851 -0.6724  0.1047
30858SOL    HW199179   0.653   4.127   2.389 -0.1076 -2.6967 -0.9154
30858SOL    HW299180   0.542   4.224   2.420  2.6862 -0.0241  1.4316
30859SOL     OW99181  11.071   5.497   9.023  0.7250 -0.2167  0.0437
30859SOL    HW199182  11.016   5.534   9.093  1.5067  3.4535 -1.0371
30859SOL    HW299183  11.153   5.475   9.065  0.4141 -0.1612  0.6851
30860SOL     OW99184   4.955  10.774   5.408 -0.0905 -0.0516  0.2134
30860SOL    HW199185   4.895  10.700   5.416  0.2740 -0.2407  1.3692
30860SOL    HW299186   5.018  10.762   5.480 -0.7128  2.0034  1.1897
30861SOL     OW99187   4.617   7.603   3.073 -0.2377  0.2314  0.5037
30861SOL    HW199188   4.525   7.602   3.044  0.2599  1.8598 -1.3467
30861SOL    HW299189   4.618   7.546   3.150 -2.5613 -0.7806 -0.1122
30862SOL     OW99190   3.825   4.189   8.271 -0.2072  0.0793  0.2061
30862SOL    HW199191   3.831   4.101   8.235 -2.0300  0.7798 -2.0520
30862SOL    HW299192   3.882   4.242   8.215 -1.0308  0.7346 -0.0385
30863SOL     OW99193   9.732   2.666   9.251  0.8240 -0.2591  0.2053
30863SOL    HW199194   9.766   2.660   9.161 -1.0755 -2.1077 -0.4767
30863SOL    HW299195   9.676   2.744   9.250  2.0130  0.6236  0.2685
30864SOL     OW99196   1.809  11.170   7.028  0.2965  0.2723  0.8723
30864SOL    HW199197   1.724  11.154   7.069 -1.2956  2.4522 -1.2594
30864SOL    HW299198   1.838  11.254   7.065  1.1519 -0.0689  0.9930
30865SOL     OW99199   3.987   7.313   6.678 -0.4754  0.0186  0.4290
30865SOL    HW199200   4.068   7.341   6.636 -0.0687 -1.4087  0.2023
30865SOL    HW299201   3.984   7.363   6.759  0.1394  0.7909 -0.0091
30866SOL     OW99202   7.699   2.266   2.087 -0.3846 -0.0604  0.1426
30866SOL    HW199203   7.690   2.361   2.085  1.9428  0.1969 -1.7239
30866SOL    HW299204   7.758   2.249   2.160  0.1948  0.0404 -0.3018
30867SOL     OW99205   2.230  12.270   8.064 -0.2641  0.3207  0.3184
30867SOL    HW199206   2.161  12.233   8.010  1.6389 -2.5231 -0.4025
30867SOL    HW299207   2.308  12.267   8.010  0.6059  3.0973  1.2253
30868SOL     OW99208   7.895   8.423   2.288  0.1771 -0.2426  0.3189
30868SOL    HW199209   7.989   8.403   2.292 -0.0530 -1.1899  1.5894
30868SOL    HW299210   7.852   8.339   2.301 -0.8688  0.0596 -1.0353
30869SOL     OW99211   2.674   3.973   0.035 -0.0873  0.4941 -0.3265
30869SOL    HW199212   2.592   4.021   0.023 -1.1092 -1.1802 -0.4361
30869SOL    HW299213   2.739   4.040   0.052 -1.6198  1.8416  0.4898
30870SOL     OW99214  12.428  12.056   4.278  0.4941  0.1672 -0.2261
30870SOL    HW199215  12.500  12.033   4.220  0.2580 -0.3932 -0.3022
30870SOL    HW299216  12.455  12.022   4.364 -1.0402 -2.9791 -0.8426
30871SOL     OW99217   4.961   7.464   9.175  0.7731 -0.3540  0.0990
30871SOL    HW199218   4.950   7.377   9.138  2.0513 -1.1113  1.3867
30871SOL    HW299219   4.968   7.449   9.269 -1.6402  1.4297  0.6516
30872SOL     OW99220  10.549   1.818   4.896  0.3464  0.4373 -0.3944
30872SOL    HW199221  10.514   1.770   4.972  1.6211 -0.1083 -0.1324
30872SOL    HW299222  10.545   1.910   4.922 -0.5674  0.3684 -0.2449
30873SOL     OW99223  11.084   4.873   9.092 -0.3336 -0.1392  0.4941
30873SOL    HW199224  11.066   4.954   9.044 -0.9199 -1.1078 -0.9508
30873SOL    HW299225  11.017   4.870   9.160 -0.4139  0.4961  0.4498
30874SOL     OW99226   3.608   9.604  10.999  0.2553  0.0043 -0.0918
30874SOL    HW199227   3.618   9.671  11.067 -0.0440 -0.0734  0.0278
30874SOL    HW299228   3.683   9.618  10.942  1.3301 -0.8675  1.0509
30875SOL     OW99229  12.321  12.689   1.094  0.2145  0.1757  0.0526
30875SOL    HW199230  12.328  12.784   1.091  0.6037  0.1446 -0.0396
30875SOL    HW299231  12.369  12.664   1.173  1.1956 -0.0394 -0.5944
30876SOL     OW99232   4.174   8.408  12.036 -0.2076 -0.4039  0.0039
30876SOL    HW199233   4.142   8.341  11.976 -0.6389 -0.1119 -0.1051
30876SOL    HW299234   4.111   8.408  12.108  1.8089 -2.7054  1.9307
30877SOL     OW99235  12.169   8.700   4.741 -0.4831 -0.3549 -0.0060
30877SOL    HW199236  12.188   8.791   4.763 -0.7057  0.2013 -1.9578
30877SOL    HW299237  12.223   8.649   4.802 -1.1315  1.0313  1.8070
30878SOL     OW99238  10.871   7.174   3.155 -0.2285  0.0366  0.6555
30878SOL    HW199239  10.955   7.149   3.194  0.0801 -1.0465 -0.6578
30878SOL    HW299240  10.894   7.211   3.070 -0.9928  1.1509  0.9051
30879SOL     OW99241  10.253   1.856   0.497 -0.2735 -0.3001 -0.6281
30879SOL    HW199242  10.183   1.798   0.528 -1.6305  1.3363 -0.5085
30879SOL    HW299243  10.265   1.919   0.568  1.7337 -0.8346 -0.4224
30880SOL     OW99244   0.386   7.425   5.517 -0.7091  0.1154 -0.1693
30880SOL    HW199245   0.429   7.504   5.549  0.0685 -0.0396 -0.7868
30880SOL    HW299246   0.416   7.417   5.426 -1.9000 -0.1141 -0.5520
30881SOL     OW99247   4.399   9.797   5.005 -0.1606 -0.4345 -0.1758
30881SOL    HW199248   4.431   9.743   5.077  0.5610 -0.8431 -0.7923
30881SOL    HW299249   4.303   9.793   5.013 -0.0972 -0.6283  0.6303
30882SOL     OW99250   6.684   5.172   0.386  0.0344  0.7470  0.0444
30882SOL    HW199251   6.766   5.140   0.349  0.2588 -1.2550  2.0470
30882SOL    HW299252   6.710   5.236   0.451  0.0045  0.3036  0.4963
30883SOL     OW99253   6.164   5.948   6.496 -0.0943  0.8723  0.4390
30883SOL    HW199254   6.093   6.008   6.474  1.2650  1.9526 -1.2656
30883SOL    HW299255   6.241   6.005   6.507  1.5379 -0.5030 -2.5166
30884SOL     OW99256   0.949   7.888   4.295 -0.3496  0.2727 -0.0780
30884SOL    HW199257   0.862   7.920   4.319 -0.4466 -0.4590  0.6002
30884SOL    HW299258   1.006   7.918   4.366 -0.2977 -0.3418  0.1511
30885SOL     OW99259   7.224   7.012   0.572  0.2465  0.4501 -0.1656
30885SOL    HW199260   7.219   7.064   0.652 -0.7737  0.0745  0.0256
30885SOL    HW299261   7.303   7.043   0.528  0.3104  1.3028  0.5362
30886SOL     OW99262   0.237   4.367   2.406  0.2944  0.1272  0.1366
30886SOL    HW199263   0.234   4.422   2.328  0.0651  2.8268  1.9399
30886SOL    HW299264   0.328   4.371   2.435  0.2163 -0.2427  0.4394
30887SOL     OW99265   1.236   1.256   8.325 -0.3091  0.1342  0.0389
30887SOL    HW199266   1.266   1.277   8.414 -0.6722  0.8854 -0.0077
30887SOL    HW299267   1.274   1.324   8.270 -0.9938  0.3231 -0.2107
30888SOL     OW99268  12.689   5.938   1.766  0.2648  0.6833 -0.2214
30888SOL    HW199269  12.626   5.933   1.838  0.1548  1.1943 -0.2760
30888SOL    HW299270  12.713   6.030   1.762 -0.2823  0.7959 -1.3074
30889SOL     OW99271   1.620   0.077   4.074  0.3369  0.7012 -0.0168
30889SOL    HW199272   1.654  -0.009   4.099 -0.4192  0.3289 -0.2488
30889SOL    HW299273   1.686   0.113   4.015 -0.2603 -0.5667 -1.5145
30890SOL     OW99274   2.117  10.756  10.832 -0.1859  0.4513 -0.1073
30890SOL    HW199275   2.112  10.760  10.737  1.0038  1.0383 -0.1623
30890SOL    HW299276   2.193  10.701  10.850 -0.2239  0.5854  0.4960
30891SOL     OW99277   1.996   4.338  12.027  0.5786  0.3202 -1.1079
30891SOL    HW199278   1.915   4.287  12.021  0.6037  0.0962  0.1420
30891SOL    HW299279   2.059   4.288  11.975  0.9145 -1.6244  1.0141
30892SOL     OW99280   4.797   1.336   5.893 -0.3158  0.2386 -0.5820
30892SOL    HW199281   4.791   1.247   5.859  1.4678 -0.3245  0.4480
30892SOL    HW299282   4.775   1.328   5.986 -0.7763  0.9899 -0.6172
30893SOL     OW99283   8.570  10.958   2.787 -0.6369  0.9311 -0.0328
30893SOL    HW199284   8.618  10.886   2.829  0.6313  2.7479  1.8765
30893SOL    HW299285   8.484  10.922   2.767  0.8521 -1.9692 -1.9784
30894SOL     OW99286   0.744   2.332   3.738  0.7979  0.1364 -0.2068
30894SOL    HW199287   0.679   2.289   3.682  0.1073 -0.6079  1.1116
30894SOL    HW299288   0.825   2.282   3.724 -0.0436 -1.8252  1.4598
30895SOL     OW99289   3.287   6.441   9.793 -0.2442 -0.0256 -0.1037
30895SOL    HW199290   3.263   6.525   9.754 -1.1689 -0.2387 -0.0079
30895SOL    HW299291   3.375   6.455   9.828 -1.2814  1.6899  2.0765
30896SOL     OW99292   0.733  10.188   4.331  0.5662  0.1015  0.3763
30896SOL    HW199293   0.818  10.205   4.290  0.4019 -0.5257 -0.2413
30896SOL    HW299294   0.752  10.186   4.425  1.1996  0.1492  0.2552
30897SOL     OW99295  12.614   2.715   9.896 -0.2646  0.0790  0.4642
30897SOL    HW199296  12.530   2.734   9.855  0.1425  0.0610 -0.4180
30897SOL    HW299297  12.607   2.625   9.927 -0.2949 -0.2109 -0.3567
30898SOL     OW99298   1.522   2.498   7.467  0.3413 -0.0001  0.3848
30898SOL    HW199299   1.506   2.524   7.558 -1.7446  0.6158 -0.1044
30898SOL    HW299300   1.599   2.547   7.441  1.8981 -1.2941  2.2287
30899SOL     OW99301   2.364   5.752  11.133  0.0651  0.3395  0.7418
30899SOL    HW199302   2.425   5.714  11.069  0.4509  0.0652  1.2657
30899SOL    HW299303   2.420   5.796  11.197 -0.3401  0.9787  0.6613
30900SOL     OW99304   8.178   7.539  12.129  0.0693  0.2987 -0.0722
30900SOL    HW199305   8.254   7.579  12.087 -0.6338 -0.5153 -2.2391
30900SOL    HW299306   8.123   7.614  12.154  0.3363  0.8010 -0.9503
30901SOL     OW99307   3.610   4.991   7.539  0.4957 -0.3670 -0.1557
30901SOL    HW199308   3.626   4.973   7.632  1.1909  0.1377 -0.1717
30901SOL    HW299309   3.697   4.993   7.500  0.2213 -0.3014 -0.7697
30902SOL     OW99310   5.252   2.917  10.073 -0.4654  0.2373  0.1606
30902SOL    HW199311   5.294   2.835  10.100  0.7323  0.9923  0.6987
30902SOL    HW299312   5.161   2.907  10.098 -0.4310 -1.0993 -0.1760
30903SOL     OW99313  12.714   6.224   6.773  0.9456  0.3142 -0.0452
30903SOL    HW199314  12.623   6.253   6.768  0.3094 -1.6315 -0.6338
30903SOL    HW299315  12.751   6.275   6.845 -0.4291  1.5668 -0.1686
30904SOL     OW99316   7.406   1.222   7.358  0.2021  0.1633 -0.1947
30904SOL    HW199317   7.446   1.199   7.442  1.6088  2.2576 -0.2222
30904SOL    HW299318   7.404   1.140   7.310 -1.5194 -1.3307  2.1599
30905SOL     OW99319   5.067   5.864   5.547  0.4450 -0.1299  0.1039
30905SOL    HW199320   5.124   5.909   5.609  0.2991 -0.1194  0.2318
30905SOL    HW299321   5.084   5.906   5.463 -0.4418  0.8777  0.4013
30906SOL     OW99322  10.871   7.228   0.834 -0.1352  0.5052  0.3677
30906SOL    HW199323  10.963   7.237   0.810 -0.5158  0.9850 -0.9822
30906SOL    HW299324  10.870   7.157   0.899  1.1739  0.5051  0.4124
30907SOL     OW99325   2.902  10.737   1.217  0.3179  0.3370 -0.3210
30907SOL    HW199326   2.861  10.716   1.301  0.3472 -1.0546 -0.6225
30907SOL    HW299327   2.965  10.806   1.238  0.7672 -0.4106  0.9347
30908SOL     OW99328   6.687  11.433   8.230 -0.4241 -0.2847  0.3464
30908SOL    HW199329   6.693  11.472   8.317  0.2256  0.7886 -0.1622
30908SOL    HW299330   6.776  11.440   8.194 -0.9022  0.2149 -0.7858
30909SOL     OW99331   7.211   7.700   6.668 -0.3095  0.0157 -0.1134
30909SOL    HW199332   7.276   7.759   6.706 -1.0266  0.7590 -0.0091
30909SOL    HW299333   7.134   7.711   6.723 -0.5371 -0.8366 -0.2474
30910SOL     OW99334   4.342   0.457   0.038  0.1049  0.0308 -0.0250
30910SOL    HW199335   4.288   0.381   0.017 -1.6813  0.8031  1.5069
30910SOL    HW299336   4.348   0.506  -0.044 -3.7231  1.2015  0.2022
30911SOL     OW99337   9.575   4.963   8.612 -0.0383 -0.2725 -0.1649
30911SOL    HW199338   9.670   4.976   8.622  0.1264 -1.0975 -0.5542
30911SOL    HW299339   9.549   4.917   8.692  0.3018 -1.9966 -0.9948
30912SOL     OW99340   5.424   2.833   9.872  0.0743 -1.4090  0.4927
30912SOL    HW199341   5.357   2.832   9.804 -0.7578 -0.0022  1.2344
30912SOL    HW299342   5.375   2.829   9.954  0.9941 -1.9568  1.0351
30913SOL     OW99343  11.537   7.883  12.787 -0.1468  0.2224  0.0699
30913SOL    HW199344  11.590   7.957  12.757 -2.8323  2.5327  0.5090
30913SOL    HW299345  11.591   7.839  12.852  1.9996  1.0665 -1.0230
30914SOL     OW99346   4.358   3.415   4.490 -0.4841 -0.2614 -0.2142
30914SOL    HW199347   4.319   3.473   4.556  0.1818 -1.1684  1.0139
30914SOL    HW299348   4.400   3.346   4.541  1.8033  0.0837 -1.4975
30915SOL     OW99349   3.086   5.863   1.116 -0.4816  0.2537 -0.0035
30915SOL    HW199350   3.134   5.798   1.065 -1.8072  0.2408 -1.3138
30915SOL    HW299351   3.147   5.892   1.183  0.5747 -1.3825 -0.2180
30916SOL     OW99352  10.093  11.956   9.504  0.0398 -0.1710 -0.0160
30916SOL    HW199353  10.103  11.980   9.596 -0.6470  0.4447 -0.0971
30916SOL    HW299354  10.122  11.864   9.500  0.4764 -0.0717  0.7265
30917SOL     OW99355   5.897   4.494  10.102 -0.2765 -0.7571 -0.2239
30917SOL    HW199356   5.931   4.406  10.117  2.2292  0.1638 -0.1381
30917SOL    HW299357   5.829   4.505  10.168 -0.2524 -2.4107  0.1220
30918SOL     OW99358   4.508   0.081   2.012 -0.1551 -0.2197  0.1710
30918SOL    HW199359   4.553   0.016   1.958  1.9516  0.6915  0.7162
30918SOL    HW299360   4.433   0.108   1.959 -0.5004 -2.2975 -0.5035
30919SOL     OW99361   6.945   3.104   1.266  0.6479  0.7174 -0.1444
30919SOL    HW199362   7.015   3.054   1.224 -0.1174 -0.9412  0.4750
30919SOL    HW299363   6.864   3.068   1.230  0.0655  2.2218 -0.4313
30920SOL     OW99364  12.124   7.052  11.152  0.9140 -0.3769  0.1856
30920SOL    HW199365  12.053   7.102  11.111 -1.0721 -1.7451  1.7471
30920SOL    HW299366  12.171   7.116  11.206  2.5538  1.0853 -2.7356
30921SOL     OW99367  10.947   6.819   1.364 -0.3299 -0.7455  0.0308
30921SOL    HW199368  10.864   6.773   1.374 -0.9627  0.3286 -0.1473
30921SOL    HW299369  10.927   6.894   1.307  0.6841 -0.3022  0.2303
30922SOL     OW99370   8.014   9.433   6.699  0.0678 -0.1953 -0.2665
30922SOL    HW199371   7.940   9.436   6.759 -0.3001 -1.5927 -0.6083
30922SOL    HW299372   8.047   9.523   6.697  0.7816 -0.2872  2.8291
30923SOL     OW99373  10.680   3.631  11.886  0.0431 -0.3673  0.0873
30923SOL    HW199374  10.616   3.668  11.825 -1.7350 -1.7323  1.0394
30923SOL    HW299375  10.722   3.561  11.836  0.2092 -0.0056 -0.2835
30924SOL     OW99376   1.184   5.041   6.041 -0.4431 -0.0838  0.3410
30924SOL    HW199377   1.213   4.950   6.028  1.2390  0.5590 -0.6994
30924SOL    HW299378   1.219   5.066   6.126  0.7304  0.1584 -0.1910
30925SOL     OW99379  10.021   2.859   9.416  0.0116 -0.0515  0.0396
30925SOL    HW199380   9.973   2.874   9.498  0.6573 -0.6236  0.5322
30925SOL    HW299381   9.953   2.838   9.352 -0.4598 -0.0889  0.5455
30926SOL     OW99382  10.520   6.537   7.175  0.1977  0.1884  0.3289
30926SOL    HW199383  10.445   6.585   7.211 -1.2274 -0.6190 -1.4275
30926SOL    HW299384  10.509   6.542   7.080  1.1175 -1.9109  0.0596
30927SOL     OW99385  12.359   1.969   7.785  0.6591  0.1669  0.0529
30927SOL    HW199386  12.329   2.057   7.807  1.7738  0.6742 -0.4140
30927SOL    HW299387  12.441   1.982   7.738  1.7492 -1.1714  1.4633
30928SOL     OW99388   0.113   8.618   0.688 -0.2188  0.5450 -0.2562
30928SOL    HW199389   0.165   8.551   0.644 -0.3291 -0.2687  0.8114
30928SOL    HW299390   0.111   8.590   0.779 -1.6870  1.0986 -0.0987
30929SOL     OW99391   5.927   8.026   9.693  0.0446  0.4322 -0.3837
30929SOL    HW199392   5.875   8.107   9.692  0.4816  0.7963  1.6068
30929SOL    HW299393   6.018   8.056   9.681  0.0735  0.0508 -1.2246
30930SOL     OW99394  11.105   8.483   2.934  0.2845  0.0712  0.0592
30930SOL    HW199395  11.171   8.552   2.943  1.5239 -1.1479  0.8095
30930SOL    HW299396  11.060   8.481   3.018 -1.9734  2.0286 -0.9846
30931SOL     OW99397   6.586   9.435   5.005 -0.1942  0.0894  0.2144
30931SOL    HW199398   6.670   9.427   5.051  0.5167  1.8028 -0.7296
30931SOL    HW299399   6.529   9.481   5.066  0.1116  0.5166  0.1804
30932SOL     OW99400   3.949   7.723   1.379  0.5659 -0.4609 -0.3220
30932SOL    HW199401   3.958   7.677   1.462 -2.1193  0.4019  0.5337
30932SOL    HW299402   3.884   7.672   1.330 -0.8278  1.1394 -0.2339
30933SOL     OW99403   8.603   9.406   2.485  0.5509 -0.6044 -0.0925
30933SOL    HW199404   8.567   9.345   2.421 -0.4216  0.1483 -0.2943
30933SOL    HW299405   8.692   9.377   2.499  0.0770 -2.1391 -0.1017
30934SOL     OW99406  11.086  12.382   6.607 -0.4352  0.1518 -0.1084
30934SOL    HW199407  11.122  12.386   6.696 -0.2522  0.0268 -0.1781
30934SOL    HW299408  11.019  12.314   6.612  0.5133 -0.8271 -0.4061
30935SOL     OW99409  10.192  10.594   3.685  0.2301  0.1136  0.6533
30935SOL    HW199410  10.118  10.534   3.692  1.7446 -2.2951 -2.0355
30935SOL    HW299411  10.173  10.647   3.608  1.6834 -1.2608 -0.7172
30936SOL     OW99412   8.836  12.288   6.124  0.0970 -0.4345  0.3363
30936SOL    HW199413   8.785  12.313   6.201 -0.0227 -0.4465  0.2609
30936SOL    HW299414   8.833  12.365   6.067  1.7137  0.2602  1.1234
30937SOL     OW99415   7.328   3.129   5.119 -0.1374 -0.0446  0.3940
30937SOL    HW199416   7.411   3.100   5.083 -0.1836 -0.3123  0.5030
30937SOL    HW299417   7.262   3.074   5.076 -0.4580  1.4639 -1.1830
30938SOL     OW99418   0.428   8.837   5.937 -0.2818 -0.0417 -0.5043
30938SOL    HW199419   0.509   8.806   5.977 -0.3626  0.7050  0.2732
30938SOL    HW299420   0.377   8.758   5.922 -0.1957 -0.3673  0.8012
30939SOL     OW99421  11.177  12.753   1.354 -0.5401 -0.1502  0.0287
30939SOL    HW199422  11.253  12.742   1.297 -0.1113 -2.8854  0.9753
30939SOL    HW299423  11.104  12.722   1.302 -0.4356 -0.8952  0.3189
30940SOL     OW99424  12.709   3.374   3.345  0.0170 -0.4495  0.2171
30940SOL    HW199425  12.776   3.406   3.285  0.1139 -1.2612 -0.1322
30940SOL    HW299426  12.724   3.422   3.426 -0.6373  1.2606 -0.6460
30941SOL     OW99427   7.222  12.713  10.212 -0.1328  0.2287 -0.4418
30941SOL    HW199428   7.171  12.709  10.293 -0.5107  0.5703 -0.6588
30941SOL    HW299429   7.260  12.801  10.210 -0.6668  0.4562 -0.9543
30942SOL     OW99430   1.936   2.778   8.570  0.2977 -0.7510 -0.4576
30942SOL    HW199431   1.975   2.859   8.602  0.5432 -1.2163  0.4524
30942SOL    HW299432   1.842   2.794   8.573  0.3453 -0.4889 -0.3163
30943SOL     OW99433   4.602   4.564   7.535 -0.2012 -0.1984 -0.1928
30943SOL    HW199434   4.518   4.603   7.512 -0.3996 -1.5145 -1.8384
30943SOL    HW299435   4.665   4.635   7.525 -0.9295  0.4454 -0.2522
30944SOL     OW99436   4.656   5.118   2.074  0.3788  0.0947 -0.6292
30944SOL    HW199437   4.666   5.042   2.016 -1.5380 -1.2690  0.7190
30944SOL    HW299438   4.670   5.084   2.162 -1.1509  1.1490  0.0673
30945SOL     OW99439  12.724  10.659   8.080  0.1167  0.8730 -0.1142
30945SOL    HW199440  12.755  10.570   8.095  2.3585  1.4719 -0.7514
30945SOL    HW299441  12.747  10.706   8.160  0.6594  1.2635 -0.4869
30946SOL     OW99442   8.568   2.866   0.111  0.4327 -0.0963 -0.1644
30946SOL    HW199443   8.540   2.878   0.201  0.1684  0.6657 -0.3382
30946SOL    HW299444   8.504   2.806   0.073 -0.5777  1.0867 -0.3660
30947SOL     OW99445   1.396   9.527   0.732  0.0859  0.7630  0.9681
30947SOL    HW199446   1.380   9.560   0.644 -1.6742  0.1903  1.0300
30947SOL    HW299447   1.472   9.576   0.763  1.9719 -0.3683 -1.5352
30948SOL     OW99448  11.049   1.726   3.386  0.6691  0.1132  0.1157
30948SOL    HW199449  10.956   1.740   3.406  0.3296 -1.8450  0.0826
30948SOL    HW299450  11.087   1.814   3.386 -0.8654  0.8347  1.6785
30949SOL     OW99451   9.253   4.773   1.616 -0.0183  0.2808 -0.3567
30949SOL    HW199452   9.231   4.866   1.605 -1.1069 -0.1144 -1.9791
30949SOL    HW299453   9.171   4.732   1.644 -0.5766 -0.6777 -3.0704
30950SOL     OW99454   6.167   5.599   4.316  0.0243 -0.1057  0.3075
30950SOL    HW199455   6.220   5.642   4.383  1.3030 -2.5931  1.0272
30950SOL    HW299456   6.202   5.631   4.233  0.3238  0.8566  0.7881
30951SOL     OW99457   8.357  12.216   9.643  0.3117 -0.1871  0.3553
30951SOL    HW199458   8.436  12.168   9.669  0.2333 -0.4156  0.1754
30951SOL    HW299459   8.287  12.174   9.693  0.0468 -1.1098 -0.7481
30952SOL     OW99460   2.214   4.279   6.815  0.6939 -0.5265  0.4681
30952SOL    HW199461   2.303   4.289   6.848  0.9552  1.8421 -0.7743
30952SOL    HW299462   2.225   4.238   6.729  0.8054  1.3824 -0.4802
30953SOL     OW99463   1.100   3.281   7.041 -0.0567 -0.3509  0.4436
30953SOL    HW199464   1.111   3.245   7.128  0.5189  0.7444  0.8495
30953SOL    HW299465   1.009   3.312   7.038  0.3782  1.0682  1.2477
30954SOL     OW99466   1.272   9.232   8.119 -0.9429  0.0201  0.3734
30954SOL    HW199467   1.350   9.177   8.132 -0.9248  0.3394  1.7483
30954SOL    HW299468   1.248   9.260   8.207 -2.6395 -0.0901 -0.0264
30955SOL     OW99469  12.332  11.964   3.722 -0.6431 -0.4881 -0.1138
30955SOL    HW199470  12.408  11.967   3.780 -0.2605  0.6127 -0.6320
30955SOL    HW299471  12.353  11.897   3.657  0.0741  0.0704 -0.4768
30956SOL     OW99472   9.974   2.909  11.387  0.5449 -0.4726 -0.3319
30956SOL    HW199473   9.910   2.967  11.348  0.9319 -0.8807 -1.6331
30956SOL    HW299474  10.046   2.966  11.414  0.0302 -0.1213  0.3081
30957SOL     OW99475  10.693   8.063   8.543  0.1893 -0.0798 -0.5965
30957SOL    HW199476  10.610   8.105   8.523  0.4463  0.2470 -0.9789
30957SOL    HW299477  10.668   7.979   8.582 -0.3189  0.1706 -0.3706
30958SOL     OW99478   8.179   8.357  11.600 -0.2161 -0.7788 -0.0828
30958SOL    HW199479   8.239   8.305  11.547 -0.9802  0.6233 -2.4573
30958SOL    HW299480   8.095   8.351  11.554 -0.5094  1.9047 -0.0430
30959SOL     OW99481   4.164   8.440   7.211 -0.1444 -0.0223  0.2180
30959SOL    HW199482   4.191   8.444   7.302  2.4847  1.1688 -0.5281
30959SOL    HW299483   4.129   8.527   7.193 -0.3142 -0.1397 -0.0278
30960SOL     OW99484   8.212   3.335   9.787  0.4201 -0.4854  0.2734
30960SOL    HW199485   8.300   3.311   9.760 -0.6053 -3.1418 -1.0891
30960SOL    HW299486   8.197   3.421   9.748  1.9033 -0.6527 -0.7250
30961SOL     OW99487   1.737   1.636   9.942  0.4475  0.1960  0.1302
30961SOL    HW199488   1.725   1.566   9.877  0.7600 -0.2698  0.5634
30961SOL    HW299489   1.832   1.643   9.952  0.4549  1.2027 -0.4490
30962SOL     OW99490   5.818   3.356   5.109 -0.0593  0.3473  0.6282
30962SOL    HW199491   5.838   3.447   5.090  0.8672  0.6406  2.7510
30962SOL    HW299492   5.724   3.355   5.127 -0.1555  0.7849  0.1669
30963SOL     OW99493   0.378   4.710   5.493 -0.3267  0.0202 -0.0761
30963SOL    HW199494   0.413   4.621   5.486 -3.6395 -1.4331 -0.1687
30963SOL    HW299495   0.329   4.711   5.575 -0.3923  1.7681 -0.0955
30964SOL     OW99496   4.080   7.187   0.056  0.1280  0.5710 -0.3624
30964SOL    HW199497   4.095   7.250  -0.014 -0.9127  1.0500 -0.1708
30964SOL    HW299498   4.168   7.159   0.082  0.5318 -0.1763 -2.3313
30965SOL     OW99499   0.235   4.688   8.122  0.0487 -0.5041 -0.2011
30965SOL    HW199500   0.273   4.675   8.208  3.0241 -1.2055 -1.4815
30965SOL    HW299501   0.218   4.600   8.090  2.4142 -0.5395 -1.6274
30966SOL     OW99502   9.577   3.567  12.454 -0.1709  0.0365 -0.4454
30966SOL    HW199503   9.493   3.547  12.495 -0.7896  1.4959 -0.9664
30966SOL    HW299504   9.642   3.552  12.523 -0.7039 -2.1033 -0.3189
30967SOL     OW99505   8.466   1.118   1.971  0.3895  0.4784  0.3817
30967SOL    HW199506   8.455   1.169   1.891 -1.2796  1.4219  1.1752
30967SOL    HW299507   8.435   1.030   1.948  1.4855  0.2753 -0.4433
30968SOL     OW99508   0.513   8.012  10.914  0.0891 -0.1721 -0.3599
30968SOL    HW199509   0.514   7.930  10.964 -3.5701  0.3739  0.9318
30968SOL    HW299510   0.552   8.076  10.973  0.8045 -0.5221 -0.4388
30969SOL     OW99511   7.858   0.551   4.880  0.4528 -0.3195 -0.0322
30969SOL    HW199512   7.952   0.541   4.896  0.3961  0.2399  0.7343
30969SOL    HW299513   7.817   0.505   4.953  0.1531  0.6714  0.4298
30970SOL     OW99514   2.978   5.051  10.481 -1.0317  0.0984 -0.1245
30970SOL    HW199515   3.051   4.989  10.486 -1.3467 -0.4153 -1.5411
30970SOL    HW299516   2.946   5.058  10.571  0.6034  0.1484  0.4888
30971SOL     OW99517   6.126   0.881  10.887 -0.2122 -0.4149  0.1297
30971SOL    HW199518   6.217   0.882  10.858 -0.5742  0.2942 -1.0400
30971SOL    HW299519   6.130   0.855  10.979  1.4302  2.2417  0.9151
30972SOL     OW99520  10.799  12.050  10.261 -0.1697 -0.4643 -0.5252
30972SOL    HW199521  10.728  12.030  10.322 -0.2597 -0.8264 -0.7432
30972SOL    HW299522  10.768  12.017  10.176 -1.3507  2.6402 -1.4547
30973SOL     OW99523   2.931   4.413   9.906  0.6001 -0.1045  0.3675
30973SOL    HW199524   2.979   4.450   9.832 -0.6501 -1.2306 -1.0875
30973SOL    HW299525   2.976   4.330   9.924  0.6023 -0.0689  0.5217
30974SOL     OW99526   6.833   1.526   2.067  0.0681 -0.0399  0.3319
30974SOL    HW199527   6.786   1.565   2.140  0.0728  0.0049  0.3104
30974SOL    HW299528   6.777   1.453   2.039  0.6038 -0.7533  1.1029
30975SOL     OW99529   9.513   4.947   7.061 -0.1271  0.0241 -0.5231
30975SOL    HW199530   9.517   4.852   7.057 -0.1103  0.0542 -1.2185
30975SOL    HW299531   9.514   4.967   7.155 -0.1053 -0.6554 -0.3766
30976SOL     OW99532   8.931   3.264   4.367  0.2943  0.3172  0.6726
30976SOL    HW199533   9.016   3.224   4.349  0.1019  0.4012 -0.5297
30976SOL    HW299534   8.878   3.193   4.404  0.1952 -0.3669 -0.7118
30977SOL     OW99535   0.566   6.049  11.047  0.4347  0.0136  0.0418
30977SOL    HW199536   0.621   6.006  10.981  0.5516  0.9564 -0.4916
30977SOL    HW299537   0.627   6.072  11.118  0.5959  0.3673 -0.2082
30978SOL     OW99538   2.951   5.480   5.100 -0.0439  0.2360  0.5641
30978SOL    HW199539   2.864   5.463   5.064  0.6068  1.1149 -1.6023
30978SOL    HW299540   2.989   5.393   5.111 -0.3980 -0.0967 -0.6492
30979SOL     OW99541   5.829  10.065   9.126  0.3626 -0.2917 -0.0542
30979SOL    HW199542   5.806  10.128   9.194  0.3110 -0.6230  0.2377
30979SOL    HW299543   5.784  10.097   9.048  0.6009  0.2115  0.0101
30980SOL     OW99544  10.633   0.085   9.272  0.0454  0.5401 -0.1149
30980SOL    HW199545  10.681   0.034   9.206  0.8884  0.1534  0.7633
30980SOL    HW299546  10.578   0.021   9.317  0.2536  0.6032  0.2355
30981SOL     OW99547   3.198   6.161  12.690 -0.4175  0.1210  0.0706
30981SOL    HW199548   3.282   6.163  12.645  0.1957 -0.1327  1.1580
30981SOL    HW299549   3.162   6.074  12.672  0.2842 -0.3438  0.8680
30982SOL     OW99550   3.972   3.586   4.845 -0.4276 -0.0894 -0.2608
30982SOL    HW199551   3.942   3.521   4.781  0.0307 -0.3058 -0.2566
30982SOL    HW299552   3.990   3.664   4.793 -0.2842 -0.1905 -0.3617
30983SOL     OW99553   5.303  12.663  11.445 -0.0900  0.0554  0.4247
30983SOL    HW199554   5.249  12.644  11.368  0.2360 -0.4541  0.3130
30983SOL    HW299555   5.252  12.726  11.495 -0.0366  0.8786 -0.5231
30984SOL     OW99556   4.272  10.678  10.481  0.2687 -0.1164 -0.2198
30984SOL    HW199557   4.269  10.712  10.392  0.6875 -1.2933 -0.6888
30984SOL    HW299558   4.350  10.718  10.520 -1.6745  3.1028  0.7882
30985SOL     OW99559   5.243  12.253   7.788 -0.0693 -0.2136  0.1637
30985SOL    HW199560   5.316  12.291   7.836 -0.2627  0.7481 -0.2759
30985SOL    HW299561   5.284  12.204   7.717  0.1825 -0.8573  0.7449
30986SOL     OW99562   6.105   8.031   8.707 -0.4478 -0.0259 -1.0772
30986SOL    HW199563   6.154   8.073   8.636  0.1758 -1.7461 -1.7000
30986SOL    HW299564   6.137   8.074   8.787 -0.7459  1.5299 -1.7595
30987SOL     OW99565   8.722   1.227   4.173  0.4300  0.4148  0.1758
30987SOL    HW199566   8.811   1.261   4.180  0.1137  1.2271  0.3829
30987SOL    HW299567   8.684   1.274   4.098  0.6588 -1.0697 -0.9263
30988SOL     OW99568   4.707   9.986   5.045  0.5044  0.0330  0.6633
30988SOL    HW199569   4.715  10.025   4.958  1.5142  0.6442  1.0203
30988SOL    HW299570   4.646   9.913   5.032  1.2462 -0.3832 -0.7318
30989SOL     OW99571   5.044  11.707  12.333 -0.1432 -0.4732 -0.4835
30989SOL    HW199572   5.089  11.655  12.267 -1.0179 -1.0516 -0.6423
30989SOL    HW299573   4.953  11.712  12.302 -0.4062 -0.1353  0.3027
30990SOL     OW99574   6.708   7.409   5.342 -0.1259 -0.4356  0.5154
30990SOL    HW199575   6.789   7.400   5.392  1.2462  1.3820 -1.2125
30990SOL    HW299576   6.724   7.362   5.260  1.0132  3.2697 -1.6777
30991SOL     OW99577   6.133   5.658   4.903  0.1812 -0.7106 -0.0409
30991SOL    HW199578   6.098   5.676   4.815  1.3709 -1.2353 -0.6507
30991SOL    HW299579   6.073   5.594   4.941  0.2407 -1.2953 -0.9035
30992SOL     OW99580   9.641   7.282  10.023  0.0511  0.3257 -0.3026
30992SOL    HW199581   9.551   7.252  10.021 -0.2028  0.9606  0.9154
30992SOL    HW299582   9.649   7.338   9.945 -0.8687  0.9581  0.0343
30993SOL     OW99583   9.915   8.438  11.865  0.5356  0.0460  0.3910
30993SOL    HW199584   9.902   8.445  11.959 -2.0041 -0.5436  0.1733
30993SOL    HW299585   9.960   8.519  11.841 -0.9623  1.3808  1.8300
30994SOL     OW99586   6.172   3.133   1.376 -0.0277  0.2250  0.1405
30994SOL    HW199587   6.150   3.041   1.361 -0.6513  0.4403 -0.2935
30994SOL    HW299588   6.125   3.181   1.308 -2.4026  1.1653  2.2831
30995SOL     OW99589  10.338   7.842   4.380 -0.4281 -0.2899 -0.2085
30995SOL    HW199590  10.281   7.845   4.303 -0.0629  1.7665 -0.4737
30995SOL    HW299591  10.308   7.915   4.434  0.6886 -0.3917  0.5805
30996SOL     OW99592   7.323   7.458   9.147 -0.8911  0.4397 -0.2965
30996SOL    HW199593   7.324   7.509   9.066  0.2436 -0.1475 -0.6639
30996SOL    HW299594   7.231   7.434   9.158 -1.2707  1.6190 -0.7003
30997SOL     OW99595   8.186   8.764   3.440  0.1682  0.0738 -0.3639
30997SOL    HW199596   8.172   8.858   3.447 -1.4200 -0.0090 -1.7331
30997SOL    HW299597   8.098   8.726   3.450  0.8721 -1.3179  0.8357
30998SOL     OW99598   0.401   2.532   0.713  0.2651 -0.1087  0.1950
30998SOL    HW199599   0.313   2.558   0.741  0.7040  0.2572  1.3030
30998SOL    HW299600   0.413   2.574   0.628  0.4205  2.2498  1.3065
30999SOL     OW99601   2.783   1.037  11.305 -0.2703  0.0621 -0.5528
30999SOL    HW199602   2.855   1.090  11.268  0.7706 -0.9556 -0.0379
30999SOL    HW299603   2.815   1.011  11.391 -0.4402 -2.0116 -1.0784
31000SOL     OW99604  11.194   0.258   9.253 -1.0070 -0.0950  0.2253
31000SOL    HW199605  11.149   0.221   9.177  0.5256 -1.9752  0.1538
31000SOL    HW299606  11.206   0.184   9.312 -2.7939  1.4447  2.7083
31001SOL     OW99607   2.371   8.353   6.091 -0.5650  0.3538  0.2706
31001SOL    HW199608   2.316   8.275   6.093  2.0791 -1.6281  0.4359
31001SOL    HW299609   2.349   8.396   6.008 -0.8269 -1.5401 -0.6926
31002SOL     OW99610  12.551   5.581   5.131 -0.4909 -0.1527  0.1233
31002SOL    HW199611  12.577   5.665   5.092  1.5017 -0.8984 -0.2961
31002SOL    HW299612  12.516   5.605   5.217  1.0073  1.0865  0.4465
31003SOL     OW99613   4.618   6.058   4.471  0.0917 -0.2140  0.0478
31003SOL    HW199614   4.653   6.145   4.490 -1.1471  0.4642 -0.6372
31003SOL    HW299615   4.686   6.015   4.419 -0.0011  1.0183 -1.1516
31004SOL     OW99616   2.497   4.334   5.825 -0.1645 -0.0136 -0.2339
31004SOL    HW199617   2.481   4.286   5.744  1.0693 -1.6377  0.4355
31004SOL    HW299618   2.550   4.410   5.798  0.1900 -0.5032 -0.9530
31005SOL     OW99619   9.117   9.672   9.612 -0.0960  0.5838 -0.2027
31005SOL    HW199620   9.107   9.582   9.580  0.8684  0.6231 -0.6635
31005SOL    HW299621   9.027   9.705   9.620 -0.4234  0.0071 -1.2935
31006SOL     OW99622   9.269   6.918   9.420  0.0213 -0.2299 -0.6549
31006SOL    HW199623   9.349   6.865   9.422 -0.0328 -0.3012  1.0017
31006SOL    HW299624   9.235   6.912   9.509 -2.1144 -0.6071 -1.4420
31007SOL     OW99625   6.152   5.574   0.223  0.4323 -0.2891 -0.1023
31007SOL    HW199626   6.207   5.544   0.295  0.4593 -1.5403 -0.6334
31007SOL    HW299627   6.071   5.525   0.233  0.3393 -0.2765 -0.7768
31008SOL     OW99628   1.784   5.242   5.760 -0.0065  0.2575 -0.0301
31008SOL    HW199629   1.818   5.171   5.814  0.6559 -0.6178 -1.5423
31008SOL    HW299630   1.691   5.224   5.751  0.2349 -0.6777 -0.7534
31009SOL     OW99631   8.045   7.994  11.711  0.5290  0.1603 -0.0453
31009SOL    HW199632   8.070   7.910  11.750  1.0417  0.5492  0.4846
31009SOL    HW299633   8.031   8.051  11.786  1.3362  0.8689 -0.4131
31010SOL     OW99634   1.507   3.271   9.798  0.6208 -0.0956 -0.4156
31010SOL    HW199635   1.484   3.264   9.890 -3.2605 -2.3163 -1.2812
31010SOL    HW299636   1.497   3.364   9.777 -0.5654  0.1224  0.9795
31011SOL     OW99637   3.078  12.436   7.521  0.0229 -0.2237  0.1794
31011SOL    HW199638   3.166  12.472   7.536 -0.3975 -0.1181  2.8772
31011SOL    HW299639   3.034  12.501   7.467  1.1391  0.4194  0.0063
31012SOL     OW99640   4.649  11.567   6.632 -0.1671 -0.2341 -0.0308
31012SOL    HW199641   4.622  11.555   6.723 -1.3629 -0.4301 -0.4054
31012SOL    HW299642   4.568  11.581   6.583  0.4949  0.4366 -0.9929
31013SOL     OW99643   0.272   4.566   6.868  0.5484  0.6197 -0.0890
31013SOL    HW199644   0.240   4.598   6.952  0.6656 -1.6634  0.9036
31013SOL    HW299645   0.207   4.501   6.841  1.4047  0.0728 -0.9040
31014SOL     OW99646   7.245   3.450  11.257  0.1880 -0.0679  0.1479
31014SOL    HW199647   7.177   3.451  11.189  0.0742  1.7202  0.2459
31014SOL    HW299648   7.310   3.388  11.225 -1.1081 -1.2638 -0.3087
31015SOL     OW99649   7.788  11.933   4.298 -0.7635 -0.0391  0.0215
31015SOL    HW199650   7.778  11.846   4.260 -1.7467 -0.0061  0.1850
31015SOL    HW299651   7.789  11.918   4.393 -1.0970  0.1484  0.0533
31016SOL     OW99652  10.031   7.943  10.438  0.4886  0.0590  0.1673
31016SOL    HW199653   9.966   7.918  10.372  0.3578 -1.1188  0.7151
31016SOL    HW299654  10.035   8.039  10.432 -2.0089  0.2881  0.7794
31017SOL     OW99655  12.263   0.196   0.621  0.2381 -0.2141 -0.3138
31017SOL    HW199656  12.227   0.127   0.676  0.4760 -0.0888  0.0029
31017SOL    HW299657  12.323   0.151   0.562  1.8426 -0.0629  1.1353
31018SOL     OW99658   1.608   8.613  11.048  0.0318 -0.0913  0.5022
31018SOL    HW199659   1.672   8.653  10.990 -1.9688  2.2582 -0.2727
31018SOL    HW299660   1.602   8.522  11.018  0.6122  0.4928 -1.5733
31019SOL     OW99661  12.379   9.087   5.558  0.7493 -0.5633  0.1852
31019SOL    HW199662  12.421   9.000   5.559 -0.1917 -1.0316 -0.0597
31019SOL    HW299663  12.323   9.087   5.636  1.3170  0.1264  0.6070
31020SOL     OW99664   5.389   6.052   3.628 -0.0407  0.1312 -0.4085
31020SOL    HW199665   5.455   6.037   3.696 -1.4203  0.6964  1.1271
31020SOL    HW299666   5.434   6.104   3.562  0.6457  2.0437  1.4301
31021SOL     OW99667   0.025   9.942  12.119  0.1223 -0.1701 -0.1212
31021SOL    HW199668   0.039   9.869  12.180 -0.8238 -0.5791 -0.3802
31021SOL    HW299669   0.107   9.947  12.069 -0.1430 -1.6704 -0.7471
31022SOL     OW99670   5.252  12.417   0.229 -0.5062  0.5720  0.0397
31022SOL    HW199671   5.158  12.416   0.209 -0.7704 -1.6059  1.1284
31022SOL    HW299672   5.257  12.446   0.320 -0.2146 -0.0584  0.2320
31023SOL     OW99673   8.292   6.083   0.276  0.4814 -0.2729  0.3513
31023SOL    HW199674   8.197   6.083   0.268  0.5048 -0.3990  0.0830
31023SOL    HW299675   8.320   6.005   0.229  0.6639 -0.6362  1.0371
31024SOL     OW99676  11.966   1.420   5.467  0.2840  0.0646 -0.4340
31024SOL    HW199677  12.011   1.351   5.515  0.9136  0.6346 -0.1884
31024SOL    HW299678  11.930   1.376   5.390  1.4397 -0.3822 -0.7463
31025SOL     OW99679  11.016  11.868   1.056  0.2368 -0.1151 -0.2261
31025SOL    HW199680  11.001  11.825   0.971 -0.2743 -0.7435  0.1731
31025SOL    HW299681  11.102  11.910   1.047  0.3423 -0.4691 -0.9362
31026SOL     OW99682  12.740  12.095   1.419 -0.0109 -0.6420  0.3170
31026SOL    HW199683  12.825  12.121   1.456  1.5532 -2.3623 -1.7531
31026SOL    HW299684  12.701  12.040   1.487  1.1757 -0.9405  0.8003
31027SOL     OW99685   2.053  12.469   0.714  0.2512 -0.4975 -0.0460
31027SOL    HW199686   2.014  12.556   0.707 -0.2828 -0.8325 -1.4761
31027SOL    HW299687   2.013  12.432   0.793  0.8562  0.7174  0.8630
31028SOL     OW99688   1.949   3.203   0.211 -0.7713 -0.4095 -0.2659
31028SOL    HW199689   1.887   3.197   0.284  0.8124  0.0396  1.1616
31028SOL    HW299690   1.923   3.282   0.164 -0.5256  0.4985  1.0694
31029SOL     OW99691   6.795   6.850   5.281  0.4495 -0.0313  0.1373
31029SOL    HW199692   6.718   6.793   5.284  0.2609  0.0286 -1.9957
31029SOL    HW299693   6.796   6.893   5.366 -1.0718 -1.0629  0.7259
31030SOL     OW99694   8.093   9.497   2.962 -0.1646  0.3620  0.4012
31030SOL    HW199695   8.119   9.491   3.055  1.4236 -0.3441 -0.0448
31030SOL    HW299696   8.028   9.428   2.951 -1.2456  1.2162  1.2435
31031SOL     OW99697  10.943   8.078   6.246  0.0871  0.1752  0.1029
31031SOL    HW199698  10.970   8.035   6.327 -1.1426 -1.4114 -0.2863
31031SOL    HW299699  10.850   8.057   6.238  0.5099 -1.0223 -2.4983
31032SOL     OW99700   9.206   3.758   9.209  0.5424  0.2870  1.0942
31032SOL    HW199701   9.228   3.811   9.132  0.2444  0.7882  1.3428
31032SOL    HW299702   9.119   3.790   9.235 -0.0040 -0.8909  0.7799
31033SOL     OW99703  12.636   8.690   7.630  0.0757 -0.1608 -0.0158
31033SOL    HW199704  12.581   8.767   7.649 -0.5065 -0.3769 -0.7631
31033SOL    HW299705  12.586   8.616   7.664  1.0273 -0.1557  1.4751
31034SOL     OW99706  11.436  12.285   6.414  0.4437  0.2829 -0.0510
31034SOL    HW199707  11.355  12.273   6.364  1.5658  0.3261 -1.9895
31034SOL    HW299708  11.457  12.377   6.404  2.6493 -0.3799 -2.8523
31035SOL     OW99709   8.373  11.300  10.523  0.2622  0.4100 -0.2622
31035SOL    HW199710   8.364  11.207  10.543 -0.4653  0.1156 -1.8104
31035SOL    HW299711   8.378  11.304  10.428 -1.6663  2.0842 -0.3651
31036SOL     OW99712   6.654   8.269  11.993 -0.2533  0.0446 -0.0843
31036SOL    HW199713   6.650   8.233  12.081 -0.4677  1.0380  0.3236
31036SOL    HW299714   6.592   8.343  11.994  1.3060  1.4193 -0.4055
31037SOL     OW99715   0.502   3.182   8.699 -0.0690 -1.2032  0.4611
31037SOL    HW199716   0.508   3.087   8.685 -1.0824 -1.2564  0.3183
31037SOL    HW299717   0.589   3.215   8.676 -0.2233 -1.8790 -1.2234
31038SOL     OW99718   2.466   2.981   7.946  0.0247  0.2155 -0.2036
31038SOL    HW199719   2.440   3.072   7.935  1.3018  0.5754 -0.3326
31038SOL    HW299720   2.416   2.951   8.022 -0.2354  1.0756 -0.0200
31039SOL     OW99721   5.844  12.139  10.444  0.1145  0.1440 -0.8760
31039SOL    HW199722   5.770  12.110  10.391 -0.0573  0.7341 -0.9700
31039SOL    HW299723   5.807  12.201  10.507  0.2296 -0.9611  0.3093
31040SOL     OW99724  10.984   0.896   1.039 -0.5394 -0.1378  0.2459
31040SOL    HW199725  10.931   0.825   1.003 -1.0993  0.0086  0.7617
31040SOL    HW299726  10.985   0.963   0.970  0.6964 -0.9810 -0.5824
31041SOL     OW99727  12.758   1.390   6.678  0.6302  0.2093 -0.4374
31041SOL    HW199728  12.745   1.330   6.751  0.0081 -2.0404 -2.2592
31041SOL    HW299729  12.702   1.465   6.698  1.1925  0.0940  1.7757
31042SOL     OW99730   1.465   2.184   9.300 -0.0081  0.2069  0.0907
31042SOL    HW199731   1.393   2.128   9.328 -2.4286  2.5486 -0.9664
31042SOL    HW299732   1.448   2.268   9.344  0.7623  1.4964 -1.9134
31043SOL     OW99733  10.757   8.654   6.601 -0.1832 -0.0934 -0.5650
31043SOL    HW199734  10.752   8.699   6.517  0.4360  0.1674 -0.4626
31043SOL    HW299735  10.716   8.714   6.664  1.5338  0.8031 -0.2418
31044SOL     OW99736   0.025   8.342   7.651  0.1539 -0.0423 -0.0332
31044SOL    HW199737   0.075   8.398   7.710  1.2464 -1.4772  0.4555
31044SOL    HW299738  -0.059   8.387   7.641  0.9440  1.6071  0.4118
31045SOL     OW99739   1.158  10.292   4.983 -0.9077  0.1241  0.2638
31045SOL    HW199740   1.115  10.223   5.034 -0.1559  0.0328  0.7791
31045SOL    HW299741   1.181  10.358   5.047 -1.5296  0.8176 -0.2163
31046SOL     OW99742   0.031  10.016   4.911  0.5396  0.3036 -0.2184
31046SOL    HW199743   0.021  10.090   4.852  0.7276  1.2224  0.8680
31046SOL    HW299744  -0.045   9.960   4.893 -0.5429  1.6201  0.1377
31047SOL     OW99745   3.360   7.086   9.648 -0.0767 -0.3206 -0.3683
31047SOL    HW199746   3.273   7.094   9.686  0.4403  2.1303  0.4914
31047SOL    HW299747   3.413   7.048   9.718 -0.1407 -0.4597 -0.3935
31048SOL     OW99748   7.645  11.646   9.819  0.0203 -0.2124 -0.2802
31048SOL    HW199749   7.686  11.614   9.899 -0.3277 -0.2556 -0.1182
31048SOL    HW299750   7.631  11.740   9.835 -2.4333 -0.6724  0.7701
31049SOL     OW99751   1.583   5.785  10.842  0.1594 -0.4208 -0.5943
31049SOL    HW199752   1.578   5.739  10.926  1.4080 -0.2946 -0.4327
31049SOL    HW299753   1.646   5.855  10.856 -0.7961  0.6008 -1.2031
31050SOL     OW99754   5.016   1.329   0.607 -0.4105  0.1053  0.1666
31050SOL    HW199755   4.961   1.251   0.605 -0.0776 -0.1621  0.9376
31050SOL    HW299756   4.988   1.377   0.685 -0.6835  0.8185 -0.3585
31051SOL     OW99757  10.528   0.378   2.699 -0.3819  0.2286 -0.5214
31051SOL    HW199758  10.568   0.396   2.615  1.0002  0.4211  0.1514
31051SOL    HW299759  10.501   0.286   2.695  1.6502 -0.4212 -0.4323
31052SOL     OW99760   5.561  11.105  11.554  0.2738 -0.3372  0.5818
31052SOL    HW199761   5.646  11.072  11.523  0.2059  0.0295 -0.0163
31052SOL    HW299762   5.546  11.185  11.504 -0.9690 -1.0112 -0.1910
31053SOL     OW99763   7.533   4.008   0.976 -0.3996  0.7324 -0.1366
31053SOL    HW199764   7.542   4.009   0.880 -0.3029  0.1179 -0.1390
31053SOL    HW299765   7.542   4.100   1.002 -0.8222  0.9540 -0.7501
31054SOL     OW99766   9.755  10.470  11.279  0.5598 -1.0713 -0.6239
31054SOL    HW199767   9.832  10.445  11.229 -0.2665 -1.8745 -1.5631
31054SOL    HW299768   9.692  10.400  11.262 -0.6380 -0.0671 -0.5128
31055SOL     OW99769  11.120   3.060   3.015 -0.2495  0.0530  0.0294
31055SOL    HW199770  11.121   2.990   2.950 -1.1307 -0.8820  1.0098
31055SOL    HW299771  11.047   3.116   2.988  0.6164  0.7780 -0.9042
31056SOL     OW99772   2.880   3.413  10.818  0.1577  0.1344 -0.0498
31056SOL    HW199773   2.854   3.495  10.776  0.9270  0.7415  0.6195
31056SOL    HW299774   2.940   3.372  10.756 -0.5717 -0.1432 -0.5791
31057SOL     OW99775   0.139   8.878   0.600  0.4507 -0.2118  0.2595
31057SOL    HW199776   0.224   8.920   0.588  0.8306 -1.0174  0.1027
31057SOL    HW299777   0.159   8.792   0.637 -0.3792  0.1356  1.6054
31058SOL     OW99778   5.854   8.428   0.797  0.2826  0.1987  0.1732
31058SOL    HW199779   5.800   8.488   0.746 -0.1327  0.1461  0.5442
31058SOL    HW299780   5.808   8.344   0.791 -1.3266  0.7614  2.8797
31059SOL     OW99781  10.959   9.885   3.595 -0.4221  0.4006  0.0616
31059SOL    HW199782  10.945   9.845   3.680  0.0585  0.6505  0.2621
31059SOL    HW299783  10.881   9.939   3.580 -0.9773 -0.4379 -0.1214
31060SOL     OW99784   0.595   3.163   5.168 -0.0201 -0.1095  0.0678
31060SOL    HW199785   0.603   3.110   5.247  0.1729  0.7821  0.6677
31060SOL    HW299786   0.682   3.162   5.129  0.6174  1.5982  1.3167
31061SOL     OW99787   0.165   3.248   2.468 -0.3905  0.0038 -0.0084
31061SOL    HW199788   0.225   3.242   2.394  1.1428  0.2575  1.1638
31061SOL    HW299789   0.088   3.294   2.433  0.5830  0.7237 -1.2691
31062SOL     OW99790   7.732  12.600  11.435  0.2611  0.1920 -0.2324
31062SOL    HW199791   7.645  12.581  11.470  0.5926 -0.4320  0.2724
31062SOL    HW299792   7.733  12.695  11.424 -0.1623  0.3085  0.6297
31063SOL     OW99793  11.432   9.613   5.020 -0.0725 -0.1839  0.2313
31063SOL    HW199794  11.456   9.563   4.942 -1.0766 -2.6280  1.3983
31063SOL    HW299795  11.413   9.701   4.987  0.7358 -0.8153 -2.0793
31064SOL     OW99796  12.785   0.347   2.831  0.4578 -0.1952 -0.1431
31064SOL    HW199797  12.754   0.276   2.774  1.0612 -0.1583 -0.5367
31064SOL    HW299798  12.861   0.309   2.877  0.3527 -0.0263  0.1721
31065SOL     OW99799   7.622  11.561   8.522 -0.8589 -0.6738  0.5636
31065SOL    HW199800   7.586  11.514   8.447  0.2579 -1.2135  0.3392
31065SOL    HW299801   7.708  11.591   8.492 -0.5341 -0.6079  1.5230
31066SOL     OW99802   7.124   5.035  10.536 -0.2580 -0.1858 -0.4364
31066SOL    HW199803   7.065   5.036  10.612 -0.3115 -2.2786 -0.4046
31066SOL    HW299804   7.209   5.012  10.573 -0.1660 -0.6470 -0.9243
31067SOL     OW99805   7.086   8.809   5.218 -0.0535  0.2274  0.1375
31067SOL    HW199806   7.182   8.801   5.215 -0.0750  0.0608 -0.1836
31067SOL    HW299807   7.068   8.843   5.305  0.3142  0.4543  0.1320
31068SOL     OW99808   7.337   9.011   8.653 -0.1474 -0.0168 -0.6177
31068SOL    HW199809   7.306   9.069   8.723 -0.8599  0.0757 -0.9961
31068SOL    HW299810   7.405   8.957   8.694 -0.3864  0.2045  0.0807
31069SOL     OW99811   6.344   3.718  11.210 -0.0853 -0.1437  0.0692
31069SOL    HW199812   6.436   3.737  11.228 -0.3297  1.6548 -0.3856
31069SOL    HW299813   6.346   3.642  11.152  1.1305  0.0513 -0.1676
31070SOL     OW99814   9.658   9.440   6.528 -0.3057  0.5176  0.0316
31070SOL    HW199815   9.641   9.479   6.614  0.8257  0.8180  0.1346
31070SOL    HW299816   9.745   9.402   6.536 -0.0748  0.7870 -1.0651
31071SOL     OW99817   6.474  10.513  11.971 -0.1332  0.2377 -0.1026
31071SOL    HW199818   6.436  10.511  11.884 -0.7193  0.4189  0.1429
31071SOL    HW299819   6.563  10.547  11.958 -0.0875 -0.0910 -0.6694
31072SOL     OW99820   2.322   6.456   2.334 -0.2408 -0.3579  0.1912
31072SOL    HW199821   2.333   6.539   2.287  0.3107 -0.3981  0.2450
31072SOL    HW299822   2.230   6.432   2.318  0.1810 -0.8989 -1.7386
31073SOL     OW99823   6.643  12.629  12.563  0.4868 -0.2328  0.2765
31073SOL    HW199824   6.715  12.582  12.522  0.6608 -0.2007  0.5465
31073SOL    HW299825   6.608  12.685  12.493 -0.7178 -1.8829 -0.5165
31074SOL     OW99826   9.675   4.188   8.061 -0.2507  0.4165 -0.7566
31074SOL    HW199827   9.753   4.134   8.072  1.4001  2.9983  1.5111
31074SOL    HW299828   9.693   4.243   7.986  0.2868  1.1977 -0.0733
31075SOL     OW99829   3.402   4.387   9.916  0.6795  0.3717 -0.0854
31075SOL    HW199830   3.416   4.386  10.011  1.5014  1.7669 -0.1502
31075SOL    HW299831   3.432   4.474   9.889 -0.6249  0.4286 -1.4769
31076SOL     OW99832   1.583   5.612   3.698 -0.0503  0.3702  0.5991
31076SOL    HW199833   1.604   5.604   3.605  0.6312  1.9343  0.5849
31076SOL    HW299834   1.488   5.617   3.701 -0.6240 -4.8236  0.4919
31077SOL     OW99835   2.461   1.731   2.731  0.9445  0.0786  0.3624
31077SOL    HW199836   2.391   1.699   2.787  0.1228 -0.2583 -0.8157
31077SOL    HW299837   2.487   1.655   2.679  1.7598  0.3581  0.3386
31078SOL     OW99838   3.456   4.320   6.524 -0.1220  0.1592  0.2029
31078SOL    HW199839   3.472   4.380   6.451 -1.9586  0.3853 -0.0444
31078SOL    HW299840   3.483   4.370   6.601  0.9586  0.2553 -0.2163
31079SOL     OW99841   6.234   6.283   9.557  0.1697 -0.2416 -0.1084
31079SOL    HW199842   6.153   6.333   9.563  0.3560 -0.0328  0.7828
31079SOL    HW299843   6.217   6.218   9.489 -0.5958  0.0579 -0.2186
31080SOL     OW99844   5.082   0.317   3.528 -0.6320 -0.2988 -0.2801
31080SOL    HW199845   5.145   0.254   3.493  0.1424 -0.1123  0.7344
31080SOL    HW299846   5.055   0.368   3.451 -0.6658 -1.3250 -0.9735
31081SOL     OW99847   2.196   9.885   0.344  0.7809 -0.2030 -0.2461
31081SOL    HW199848   2.153   9.817   0.291  1.0389  2.1126 -3.7996
31081SOL    HW299849   2.140   9.962   0.334  1.3938  0.6422  2.1989
31082SOL     OW99850   0.013   8.726   5.950 -0.1857 -0.8714 -0.1288
31082SOL    HW199851   0.013   8.674   5.870  0.7112  0.5964 -1.1031
31082SOL    HW299852  -0.071   8.772   5.949  0.1869 -0.1960 -0.6703
31083SOL     OW99853   5.334   9.317   7.156 -0.2090  0.1184 -0.0046
31083SOL    HW199854   5.292   9.269   7.084 -0.7702  0.4167  0.1175
31083SOL    HW299855   5.369   9.396   7.114 -1.5818  0.8885  0.2333
31084SOL     OW99856   1.623  11.334   1.348  0.0441 -0.6837  0.2178
31084SOL    HW199857   1.591  11.349   1.436 -0.6439 -1.6086  0.1420
31084SOL    HW299858   1.718  11.347   1.354 -0.0848 -0.0456  0.9232
31085SOL     OW99859   0.350   9.838   8.306  0.7102  0.3367 -0.3008
31085SOL    HW199860   0.313   9.918   8.342  1.3056 -0.0050  1.1389
31085SOL    HW299861   0.442   9.858   8.292  0.6301  0.2442 -1.0007
31086SOL     OW99862  10.693   9.096  11.161  0.0726 -0.2345  0.1867
31086SOL    HW199863  10.678   9.133  11.248 -0.0826 -0.4133  0.2345
31086SOL    HW299864  10.698   9.002  11.175  0.8298 -0.2137  0.1178
31087SOL     OW99865   7.858   7.396   4.022  0.0937  0.4502  0.2331
31087SOL    HW199866   7.866   7.394   4.117 -0.1028 -0.9147  0.2408
31087SOL    HW299867   7.764   7.407   4.006  0.1613  0.9889  0.1878
31088SOL     OW99868   6.587   8.626   3.122  0.3653 -0.3192  0.4908
31088SOL    HW199869   6.612   8.564   3.054 -0.1644  1.5662 -1.5699
31088SOL    HW299870   6.545   8.698   3.074 -2.3693 -0.0117  3.0447
31089SOL     OW99871   1.368   1.287   8.959  0.1481  0.2797  0.0363
31089SOL    HW199872   1.434   1.230   8.920  1.1814  0.9253  0.7873
31089SOL    HW299873   1.292   1.230   8.973  0.9425 -0.7678  0.2158
31090SOL     OW99874   2.683   2.876  10.218  0.0508 -0.1771  0.7744
31090SOL    HW199875   2.748   2.942  10.242  0.5147 -0.6372  0.7939
31090SOL    HW299876   2.620   2.878  10.290  0.3309 -0.1042  1.0198
31091SOL     OW99877   2.466   5.966   8.074  0.4673  0.5773  0.6532
31091SOL    HW199878   2.446   6.045   8.024  1.8912  1.0378  0.7526
31091SOL    HW299879   2.417   5.975   8.155 -0.2872  0.7936  0.1812
31092SOL     OW99880   0.693   3.821  11.746 -0.0983  0.0691  0.1923
31092SOL    HW199881   0.730   3.870  11.819 -0.7629 -0.1992  0.7228
31092SOL    HW299882   0.769   3.790  11.697  0.3493  0.4657  0.6253
31093SOL     OW99883  11.113  11.072   8.107 -0.6020  0.0006 -0.3414
31093SOL    HW199884  11.097  11.059   8.014 -1.8299 -0.7795 -0.0432
31093SOL    HW299885  11.043  11.024   8.151  0.2227 -0.0476  1.0009
31094SOL     OW99886   8.936  10.980   4.973  0.4818 -0.2655  0.0740
31094SOL    HW199887   9.008  11.000   5.032 -0.4745  1.0159  0.8850
31094SOL    HW299888   8.972  10.994   4.885  0.9412  1.4928  0.4934
31095SOL     OW99889   7.167   7.082   2.660  0.1400 -0.4666 -0.3639
31095SOL    HW199890   7.186   6.988   2.670 -1.1254 -0.5808  1.4708
31095SOL    HW299891   7.073   7.086   2.641  0.6335  0.3653 -3.0801
31096SOL     OW99892   0.173   1.210   2.039 -0.3365  0.7337  0.3207
31096SOL    HW199893   0.167   1.280   2.105 -0.4267  0.5535  0.5042
31096SOL    HW299894   0.234   1.244   1.974 -0.1053  0.8375  0.5910
31097SOL     OW99895   1.199   4.674   6.466 -0.2529  0.1364 -0.5003
31097SOL    HW199896   1.130   4.608   6.472 -0.4537  0.1031 -2.4935
31097SOL    HW299897   1.260   4.640   6.401 -0.4037  1.8845 -1.6393
31098SOL     OW99898   9.228   3.173   2.794  0.8353 -0.3055  0.0721
31098SOL    HW199899   9.318   3.176   2.825  0.7728  0.2264  0.2178
31098SOL    HW299900   9.226   3.103   2.729  1.2547 -0.6012  0.3741
31099SOL     OW99901   3.470  10.488   8.199 -0.5590 -0.2281  0.1548
31099SOL    HW199902   3.451  10.560   8.139 -2.7896 -0.7176  0.2137
31099SOL    HW299903   3.511  10.530   8.275 -0.0167  0.7062 -0.6397
31100SOL     OW99904  10.798   6.430  10.436 -0.2674  0.5174  0.0071
31100SOL    HW199905  10.872   6.395  10.386  2.5739  3.2615  1.9253
31100SOL    HW299906  10.742   6.470  10.369  1.5354  0.9747 -1.3161
31101SOL     OW99907   2.689   4.113   5.497  0.1648  0.4287 -0.5422
31101SOL    HW199908   2.710   4.206   5.482  1.0681  0.1064 -1.3949
31101SOL    HW299909   2.710   4.099   5.589  1.6658  0.6826 -0.8105
31102SOL     OW99910   6.186   5.741   2.403  0.1333  0.3537  0.4460
31102SOL    HW199911   6.094   5.750   2.378 -0.4854 -2.2380  1.4747
31102SOL    HW299912   6.222   5.829   2.393 -1.7509  0.9478 -2.6021
31103SOL     OW99913   8.763   5.777   9.310 -0.2213  0.3971  0.0583
31103SOL    HW199914   8.683   5.784   9.362  0.4772  2.0742  0.9929
31103SOL    HW299915   8.822   5.725   9.364  0.3948  1.8749  0.8702
31104SOL     OW99916   9.875   0.139  10.814  0.0911  0.7362  0.3668
31104SOL    HW199917   9.917   0.056  10.790 -0.2980  0.3201  1.0886
31104SOL    HW299918   9.903   0.154  10.904 -1.9400  0.0225  1.1631
31105SOL     OW99919   4.877   7.551   0.264 -0.1327  0.2907 -0.6199
31105SOL    HW199920   4.864   7.510   0.349 -0.5864 -1.7268 -1.5984
31105SOL    HW299921   4.909   7.638   0.284 -0.8931  0.1199  1.6219
31106SOL     OW99922  11.158   6.240   8.309  0.5035  0.3364  0.0315
31106SOL    HW199923  11.068   6.220   8.334  0.2102 -1.1115 -1.9556
31106SOL    HW299924  11.191   6.160   8.269  2.3647  1.1376 -0.1793
31107SOL     OW99925  10.989  12.326   1.594 -0.1956 -0.8383 -0.0437
31107SOL    HW199926  11.048  12.283   1.656  0.8380  0.7666  0.1669
31107SOL    HW299927  10.930  12.257   1.564  0.5981 -2.0951  1.1699
31108SOL     OW99928  10.248  12.332  12.008 -0.2459  0.4037 -0.3087
31108SOL    HW199929  10.241  12.249  11.960  0.3802  1.1952 -1.8320
31108SOL    HW299930  10.183  12.388  11.966 -0.0609  0.9479  0.1362
31109SOL     OW99931   1.284   2.548   5.940  0.2335  0.8555  0.0554
31109SOL    HW199932   1.262   2.503   6.022  0.4438 -0.2002 -0.4541
31109SOL    HW299933   1.298   2.477   5.877  1.0093  1.6256 -0.6573
31110SOL     OW99934   2.241   0.715   5.161  0.5786  0.0754  0.2565
31110SOL    HW199935   2.224   0.650   5.228  4.4260  0.7189  2.1321
31110SOL    HW299936   2.253   0.797   5.208 -1.2002  1.6203 -1.7564
31111SOL     OW99937  12.212   6.878   1.298  0.6933 -0.4210  0.4250
31111SOL    HW199938  12.178   6.799   1.257  0.2358  0.7499 -1.5953
31111SOL    HW299939  12.239   6.933   1.225 -0.0917  1.7627  1.6810
31112SOL     OW99940   8.157   9.148   6.879  0.1629 -0.0699  0.4292
31112SOL    HW199941   8.208   9.105   6.948  2.5078  0.5178 -0.8389
31112SOL    HW299942   8.079   9.094   6.870  0.0881 -0.5545  3.0380
31113SOL     OW99943  11.201   3.839  12.152  0.6273 -0.5848  0.1755
31113SOL    HW199944  11.258   3.916  12.147  1.3454 -1.1931 -1.5723
31113SOL    HW299945  11.241   3.784  12.219  0.2359  0.4235  1.2792
31114SOL     OW99946   4.821   7.040   9.823  1.1518  0.2396 -0.4537
31114SOL    HW199947   4.832   7.025   9.916  1.3942 -0.5461 -0.5998
31114SOL    HW299948   4.754   7.108   9.816 -0.9685 -1.6645  0.2161
31115SOL     OW99949  11.615  12.110   8.013 -0.1805  0.0446  0.3182
31115SOL    HW199950  11.552  12.055   8.061 -0.9220 -0.0083 -0.6903
31115SOL    HW299951  11.666  12.048   7.961  0.9959  0.0504  1.4229
31116SOL     OW99952   9.256   7.095  12.679  0.0154  0.2419 -0.3318
31116SOL    HW199953   9.179   7.038  12.680 -0.2314  0.5656 -0.6269
31116SOL    HW299954   9.309   7.066  12.754  0.0014 -0.5171 -0.6087
31117SOL     OW99955   1.328   9.497   6.463 -0.4972  0.6158 -0.2141
31117SOL    HW199956   1.308   9.576   6.513  0.2821  1.9255 -1.8494
31117SOL    HW299957   1.421   9.482   6.479 -0.7246 -0.1986  0.3726
31118SOL     OW99958   0.790   0.899  11.966  0.5591  0.0089  0.2620
31118SOL    HW199959   0.696   0.918  11.973  0.5065  1.3548 -2.4906
31118SOL    HW299960   0.830   0.943  12.040 -0.9710 -0.7760  1.6092
31119SOL     OW99961   0.976   3.774  10.144 -0.4302  0.5077 -0.0851
31119SOL    HW199962   1.008   3.704  10.087  0.6067  1.2453 -0.4349
31119SOL    HW299963   0.984   3.739  10.233 -0.5029 -0.0327 -0.2875
31120SOL     OW99964   3.168   2.402   9.311 -0.6523 -0.2218  0.1088
31120SOL    HW199965   3.087   2.375   9.354  0.7485 -2.5746  1.4518
31120SOL    HW299966   3.232   2.409   9.382  1.4131 -2.8846 -1.3278
31121SOL     OW99967   4.332   9.154   0.135  0.9414  0.5048  0.4217
31121SOL    HW199968   4.389   9.081   0.111  0.3932  0.7309 -1.8854
31121SOL    HW299969   4.245   9.126   0.107 -0.1182  0.2822  3.6282
31122SOL     OW99970   8.971   0.544   9.755 -0.0203 -0.3521  1.0424
31122SOL    HW199971   8.924   0.619   9.718  2.0703  0.4950 -0.0757
31122SOL    HW299972   8.918   0.468   9.732 -0.4390  0.4742 -0.8843
31123SOL     OW99973   7.932   0.468  12.701 -0.0538  0.5990 -0.7023
31123SOL    HW199974   7.995   0.502  12.637 -0.1631  2.0241 -0.0974
31123SOL    HW299975   7.923   0.539  12.765 -1.2722 -0.1024 -0.0667
31124SOL     OW99976   7.878   5.557   8.066 -0.2750  0.4445 -0.1825
31124SOL    HW199977   7.949   5.621   8.057 -0.8114  0.8958 -1.5750
31124SOL    HW299978   7.809   5.605   8.112  0.5264 -0.2059  1.7969
31125SOL     OW99979   1.624  10.610   4.333  0.2431 -0.0360 -0.5069
31125SOL    HW199980   1.626  10.699   4.297  0.6772  0.1922  0.0593
31125SOL    HW299981   1.671  10.557   4.269  3.8172  0.9102  1.0592
31126SOL     OW99982   1.368   7.737   9.365  0.2809  0.6577 -0.2137
31126SOL    HW199983   1.331   7.820   9.334  2.6162  1.7140 -0.3837
31126SOL    HW299984   1.435   7.764   9.428  1.3981 -1.0877 -0.6083
31127SOL     OW99985   5.564   5.175  10.546  0.1475 -0.5128  0.0109
31127SOL    HW199986   5.471   5.167  10.524 -0.2132  1.3778  0.6513
31127SOL    HW299987   5.594   5.250  10.494  0.9480 -0.2167  0.8789
31128SOL     OW99988   0.272   2.606  11.906 -0.3317 -0.4035 -0.4304
31128SOL    HW199989   0.234   2.526  11.870  2.4565 -1.5656 -1.0403
31128SOL    HW299990   0.283   2.664  11.831  1.1066 -0.9623 -0.6747
31129SOL     OW99991   6.450   8.366   0.866 -0.2811  0.3957  0.1035
31129SOL    HW199992   6.457   8.411   0.950 -2.6554  0.1716  0.5101
31129SOL    HW299993   6.535   8.324   0.854  0.3008  0.8624  2.1328
31130SOL     OW99994   4.245   1.559  10.959 -0.4591 -0.0702  0.1464
31130SOL    HW199995   4.300   1.529  10.887  0.7588 -1.1533  1.4671
31130SOL    HW299996   4.216   1.479  11.002 -0.4901  0.5467  1.3303
31131SOL     OW99997   2.727   0.479   1.830  0.4566 -0.5118 -0.2346
31131SOL    HW199998   2.816   0.485   1.794  1.3076 -1.0665  1.6678
31131SOL    HW299999   2.677   0.543   1.780  1.9503 -0.1032 -1.2824
31132SOL     OW    0   3.927   2.585  11.635  0.2062 -0.1086 -0.1328
31132SOL    HW1    1   3.836   2.561  11.615  0.6591 -0.7453 -1.5520
31132SOL    HW2    2   3.980   2.531  11.575  1.6086 -0.9432  1.7537
31133SOL     OW    3   9.206   0.665   4.628  0.1272 -0.1441  0.1443
31133SOL    HW1    4   9.233   0.623   4.710 -0.3259  0.2626  0.5100
31133SOL    HW2    5   9.168   0.594   4.577 -1.0221 -0.1262  0.9279
31134SOL     OW    6   3.332   6.604   8.831 -0.4745  0.0460  0.4733
31134SOL    HW1    7   3.382   6.656   8.893 -0.0208 -1.1180  1.1179
31134SOL    HW2    8   3.280   6.545   8.886  1.2698 -2.2573 -0.1966
31135SOL     OW    9   7.500  11.925   7.183 -0.3639 -0.1763 -0.0018
31135SOL    HW1   10   7.565  11.993   7.163 -1.1181  0.7615  0.6681
31135SOL    HW2   11   7.431  11.938   7.119 -0.9572  0.3172  0.7250
31136SOL     OW   12   3.992   5.510   6.594  0.1171  0.4585 -0.0160
31136SOL    HW1   13   4.052   5.566   6.642  1.3757  0.3518 -1.4028
31136SOL    HW2   14   3.906   5.526   6.635  1.1621 -0.0097  2.5537
31137SOL     OW   15   2.241   9.215   1.562  0.1329  0.4579  0.0378
31137SOL    HW1   16   2.154   9.189   1.531  0.8923 -0.1940 -1.6493
31137SOL    HW2   17   2.273   9.277   1.497  0.7158  1.1616  0.9633
31138SOL     OW   18   4.617   2.292  11.175 -0.0251  0.4070  0.2665
31138SOL    HW1   19   4.696   2.345  11.165 -0.9080  1.3981 -2.2311
31138SOL    HW2   20   4.643   2.204  11.149  0.2945  0.7038 -0.4256
31139SOL     OW   21   2.968   4.375  11.923 -0.1481 -0.6122  0.0229
31139SOL    HW1   22   2.992   4.456  11.968  2.1645 -1.2007 -0.0115
31139SOL    HW2   23   3.020   4.375  11.843  0.5370 -2.4491  0.3992
31140SOL     OW   24   7.918   1.076   9.484  0.4278 -0.2785  0.1819
31140SOL    HW1   25   7.864   1.026   9.545  0.2968 -0.5312 -0.1389
31140SOL    HW2   26   7.866   1.153   9.463 -0.3051 -1.0608 -0.9934
31141SOL     OW   27   2.348   1.145   8.417  0.0122 -0.5255 -0.4832
31141SOL    HW1   28   2.278   1.156   8.482  1.1158  0.1314  0.6282
31141SOL    HW2   29   2.329   1.060   8.377 -0.4526 -1.1738  1.0333
31142SOL     OW   30   0.469   2.212   2.478  0.1042 -0.1860  0.0416
31142SOL    HW1   31   0.492   2.188   2.568 -0.2304 -0.7885 -0.0285
31142SOL    HW2   32   0.375   2.225   2.479  0.3608  2.0794  0.2739
31143SOL     OW   33   4.062   4.265  12.276  0.2480  0.0446 -0.1323
31143SOL    HW1   34   3.990   4.326  12.261 -0.9011 -1.5227 -1.3041
31143SOL    HW2   35   4.033   4.211  12.349  1.0510  0.5689  0.5904
31144SOL     OW   36   0.609   5.797   9.185  0.3082 -0.4527 -0.3256
31144SOL    HW1   37   0.605   5.892   9.175  1.8392 -0.1760  1.2374
31144SOL    HW2   38   0.572   5.763   9.103 -1.9798  1.4297 -0.1597
31145SOL     OW   39   8.837   5.296   6.261 -0.0681 -0.1063  0.3073
31145SOL    HW1   40   8.821   5.202   6.253 -1.7945  0.1438  0.4257
31145SOL    HW2   41   8.927   5.308   6.229  0.1205 -1.7570  0.1271
31146SOL     OW   42  11.228   9.931   7.839  0.6543 -0.3489  0.1002
31146SOL    HW1   43  11.307   9.916   7.786  0.3341 -2.0418  0.0453
31146SOL    HW2   44  11.246   9.888   7.922  0.0262 -0.2225  0.3087
31147SOL     OW   45   3.504   7.757   0.521  0.3355  0.5648 -0.2357
31147SOL    HW1   46   3.419   7.800   0.529 -0.6903 -1.5561  1.0679
31147SOL    HW2   47   3.496   7.702   0.443 -0.1375 -0.8935  0.8000
31148SOL     OW   48   4.039  10.747  10.302 -0.2699 -0.6965  0.4367
31148SOL    HW1   49   4.086  10.689  10.362 -0.0696 -0.4750  0.4929
31148SOL    HW2   50   3.952  10.756  10.341 -0.1306 -0.5254  0.7158
31149SOL     OW   51  11.145   4.310   9.307  0.2824 -0.0200 -0.1245
31149SOL    HW1   52  11.087   4.269   9.371  0.4429  0.6234  0.4446
31149SOL    HW2   53  11.221   4.337   9.358  0.3773  0.5770 -0.5733
31150SOL     OW   54   7.877   5.059   1.913 -0.0353 -0.6521  0.2906
31150SOL    HW1   55   7.894   5.023   1.999  2.1750 -1.4902 -0.4407
31150SOL    HW2   56   7.876   4.983   1.854  0.4855  0.0624 -0.6823
31151SOL     OW   57   3.152   4.661   0.283 -0.3087 -0.2228 -0.0737
31151SOL    HW1   58   3.190   4.660   0.195 -2.2091  0.6017 -0.9586
31151SOL    HW2   59   3.058   4.652   0.269 -0.4932 -3.5958  2.0988
31152SOL     OW   60  12.090   5.595   0.467  0.2515  0.2947  0.0538
31152SOL    HW1   61  12.173   5.607   0.514  0.4869  0.1478 -0.3177
31152SOL    HW2   62  12.063   5.506   0.491 -0.4289  0.7780  1.1460
31153SOL     OW   63   7.826   2.782   5.286  0.5756  0.2203 -0.1362
31153SOL    HW1   64   7.900   2.729   5.315 -0.2250  0.2025  2.0166
31153SOL    HW2   65   7.854   2.816   5.201  3.1825  0.4078  0.6840
31154SOL     OW   66   8.314   6.029   9.997  0.1737 -0.0642 -0.2286
31154SOL    HW1   67   8.402   6.018  10.034  0.2534 -2.2533 -0.9255
31154SOL    HW2   68   8.279   6.107  10.041  2.5720  1.0859 -0.2034
31155SOL     OW   69   8.012   3.646  12.659 -0.1337 -0.3585  0.1291
31155SOL    HW1   70   8.089   3.611  12.614 -1.2031 -0.8509 -1.3791
31155SOL    HW2   71   7.988   3.579  12.722 -0.4763 -1.0933 -0.7643
31156SOL     OW   72  10.603   8.687   0.980  0.0770  0.1264 -0.2197
31156SOL    HW1   73  10.641   8.634   0.910 -1.7354 -1.4817 -0.0530
31156SOL    HW2   74  10.674   8.745   1.007  2.0867 -1.9855 -0.6526
31157SOL     OW   75   5.644  11.285   8.183  0.5422 -0.0638  0.1849
31157SOL    HW1   76   5.731  11.316   8.157  0.1225 -0.1264 -1.3636
31157SOL    HW2   77   5.661  11.207   8.237  1.4537  0.3661  0.5343
31158SOL     OW   78   4.703  12.782  11.381 -0.7837 -0.0634  0.2659
31158SOL    HW1   79   4.678  12.696  11.346  0.6211  0.3462 -1.8910
31158SOL    HW2   80   4.632  12.804  11.442 -3.4313 -0.8634 -2.2972
31159SOL     OW   81   7.501   8.454   6.310  0.2386 -0.3447 -0.1966
31159SOL    HW1   82   7.561   8.512   6.263 -0.3270  0.0640 -0.4281
31159SOL    HW2   83   7.424   8.509   6.328 -1.9160 -1.8954 -3.5921
31160SOL     OW   84   0.954  11.880   9.748  0.3158  0.1966 -0.4283
31160SOL    HW1   85   1.026  11.818   9.758 -0.2952 -0.3955  0.4624
31160SOL    HW2   86   0.995  11.966   9.757  1.3465  0.0303 -2.7141
31161SOL     OW   87   7.253   6.053   0.112 -0.6177 -0.4316 -0.5265
31161SOL    HW1   88   7.177   6.104   0.138  0.0945  0.7401 -0.6744
31161SOL    HW2   89   7.312   6.057   0.187 -0.4024 -0.7517 -0.6756
31162SOL     OW   90   5.655  11.834  11.710 -0.1386 -0.4395  0.1240
31162SOL    HW1   91   5.567  11.796  11.702 -0.0119 -0.5345 -0.9453
31162SOL    HW2   92   5.670  11.839  11.804 -1.3375 -0.3137  0.3270
31163SOL     OW   93   8.678   9.922   0.374  0.7542  0.2108 -0.4142
31163SOL    HW1   94   8.693   9.885   0.287  0.1273 -1.2096  0.0508
31163SOL    HW2   95   8.605   9.871   0.410  1.4342  0.3119  1.1995
31164SOL     OW   96   6.864   6.825   8.725 -0.0098 -0.0882  0.1997
31164SOL    HW1   97   6.799   6.895   8.715 -3.4720 -3.0358 -0.1080
31164SOL    HW2   98   6.847   6.788   8.811  0.9322 -1.2506 -0.0750
31165SOL     OW   99   7.605   1.998   9.120  0.0087  0.1255  0.4827
31165SOL    HW1  100   7.647   2.062   9.176  0.3118 -0.6840  1.1955
31165SOL    HW2  101   7.662   1.991   9.043  0.7577 -0.3698  1.0743
31166SOL     OW  102   3.075   3.036   9.607 -0.2416 -0.0723  0.1227
31166SOL    HW1  103   3.096   2.955   9.654 -2.1369 -0.0100  1.2374
31166SOL    HW2  104   3.047   3.097   9.677 -0.0285  1.1260 -0.8048
31167SOL     OW  105   0.087  12.787   7.576 -0.2171  0.1437 -0.5709
31167SOL    HW1  106   0.058  12.755   7.491 -0.5630 -0.0601 -0.3773
31167SOL    HW2  107   0.182  12.772   7.576 -0.3812 -1.0068 -0.4420
31168SOL     OW  108   3.035  10.040  10.131  0.1093 -0.2379  0.3974
31168SOL    HW1  109   3.063  10.114  10.185  0.1479  0.4745 -0.5631
31168SOL    HW2  110   3.103  10.033  10.064 -0.8158  0.0245 -0.5880
31169SOL     OW  111   7.333   8.750   1.797 -0.2766  0.2327 -0.0257
31169SOL    HW1  112   7.419   8.746   1.755 -0.8879  0.0585 -1.3180
31169SOL    HW2  113   7.335   8.680   1.862  0.2177 -0.4235 -0.7281
31170SOL     OW  114  10.687   5.312   1.191 -0.8546  0.0868 -0.0981
31170SOL    HW1  115  10.777   5.334   1.168 -0.8972 -2.1620 -2.9977
31170SOL    HW2  116  10.687   5.308   1.287  2.8567 -2.3714  0.0126
31171SOL     OW  117  10.671   7.471   6.354  0.0895 -0.5626 -0.0509
31171SOL    HW1  118  10.712   7.554   6.327  2.3267 -1.8868 -0.9592
31171SOL    HW2  119  10.635   7.490   6.441  2.1233  0.9046  0.5575
31172SOL     OW  120  12.783   3.059   9.244  1.0399 -0.1297  0.3382
31172SOL    HW1  121  12.805   2.967   9.259  1.7264 -0.0449 -0.1032
31172SOL    HW2  122  12.868   3.103   9.238  0.9466 -0.1058 -3.5114
31173SOL     OW  123   3.847   4.176   1.595  0.3576 -0.0042 -0.4051
31173SOL    HW1  124   3.757   4.166   1.626  0.6094 -0.8003  0.0864
31173SOL    HW2  125   3.854   4.118   1.520  0.4608  0.0753 -0.4582
31174SOL     OW  126   2.964  12.113   2.497  0.2502  0.3245  0.8794
31174SOL    HW1  127   3.021  12.056   2.549  0.9256  1.0985  1.0187
31174SOL    HW2  128   2.987  12.092   2.406  1.1095  0.9468  0.9368
31175SOL     OW  129   2.784   6.277   7.735 -0.2583 -0.1675  0.2880
31175SOL    HW1  130   2.700   6.238   7.712 -0.0639  1.3447 -4.0128
31175SOL    HW2  131   2.768   6.372   7.733  0.7675  0.2083  3.5806
31176SOL     OW  132   5.013   5.133   4.724 -0.2579 -0.2431  0.2427
31176SOL    HW1  133   5.064   5.123   4.644 -0.1111 -2.7822  0.5866
31176SOL    HW2  134   5.052   5.071   4.786 -0.8371  1.1067  2.0609
31177SOL     OW  135  10.283   8.233  12.302 -0.1233 -0.1169 -0.3928
31177SOL    HW1  136  10.343   8.293  12.259  0.7156 -0.6790 -0.0336
31177SOL    HW2  137  10.296   8.248  12.396 -0.5584 -0.2357 -0.3097
31178SOL     OW  138   4.901   7.288   5.312 -0.1884  0.0676  0.7665
31178SOL    HW1  139   4.976   7.254   5.264  1.8391  2.4899  1.9474
31178SOL    HW2  140   4.935   7.307   5.400 -2.0539  1.6324  1.2339
31179SOL     OW  141   3.690  10.600  11.073 -0.5324  0.1400 -0.3888
31179SOL    HW1  142   3.608  10.632  11.110 -0.2390 -0.7704  1.1440
31179SOL    HW2  143   3.665  10.522  11.023 -0.9144  1.3058 -2.0954
31180SOL     OW  144  10.842   4.060   3.977 -0.7306 -0.2157  0.7499
31180SOL    HW1  145  10.833   4.102   3.892 -0.6618  0.0360  0.8667
31180SOL    HW2  146  10.809   4.125   4.039  2.8624  1.2707  1.3402
31181SOL     OW  147   9.096  10.969  12.492  0.6345 -0.1533 -0.3731
31181SOL    HW1  148   9.003  10.991  12.490  0.3959 -0.9983  0.4762
31181SOL    HW2  149   9.099  10.874  12.490  1.4661 -0.1457 -0.1743
31182SOL     OW  150   0.412   0.796   4.335 -0.1483 -0.0694 -0.1267
31182SOL    HW1  151   0.507   0.802   4.331 -0.2669  1.0718 -2.1064
31182SOL    HW2  152   0.394   0.702   4.340  1.0536 -0.3227 -0.3609
31183SOL     OW  153   1.599   3.570   5.854  0.3919  0.2815  0.3357
31183SOL    HW1  154   1.513   3.545   5.820  0.8427 -0.9622  0.0443
31183SOL    HW2  155   1.649   3.596   5.777  0.5413  0.1850  0.3999
31184SOL     OW  156  10.860   5.290  12.332 -0.3288 -0.1456  0.1087
31184SOL    HW1  157  10.829   5.205  12.362  2.7218 -1.0831  0.9178
31184SOL    HW2  158  10.913   5.270  12.255 -1.1187  1.3106 -0.8782
31185SOL     OW  159   1.492   9.613  11.501  0.3345 -0.5418  0.6733
31185SOL    HW1  160   1.465   9.546  11.564  0.3208 -0.1344  1.1066
31185SOL    HW2  161   1.550   9.670  11.550 -0.3350  0.2567  0.5417
31186SOL     OW  162  12.766   2.772   9.344  0.4644 -0.3325 -0.4435
31186SOL    HW1  163  12.770   2.791   9.438  1.9822 -3.7104  0.3098
31186SOL    HW2  164  12.676   2.746   9.328  0.2455  0.0692  0.1140
31187SOL     OW  165   4.962   7.403   6.721 -0.1069  0.3310 -0.1131
31187SOL    HW1  166   4.936   7.369   6.806  0.3193  2.7566  1.0799
31187SOL    HW2  167   4.880   7.427   6.678 -0.2920 -0.4769 -0.2308
31188SOL     OW  168   0.396   1.527   2.881 -0.3942 -0.4367 -0.6950
31188SOL    HW1  169   0.327   1.520   2.816 -0.0455 -1.1082 -0.9988
31188SOL    HW2  170   0.462   1.583   2.841 -1.4177  1.4858  0.1899
31189SOL     OW  171   3.043   9.425   1.904  0.0993 -0.0088  0.3155
31189SOL    HW1  172   2.970   9.414   1.965  0.7555 -0.6935  1.0047
31189SOL    HW2  173   3.074   9.336   1.888  0.5675  0.2493 -0.2478
31190SOL     OW  174   4.768  10.134   2.236  0.5063  0.0758 -0.3611
31190SOL    HW1  175   4.751  10.208   2.294  0.7884 -1.1378  1.3478
31190SOL    HW2  176   4.839  10.163   2.179  0.3845  1.2213  0.0602
31191SOL     OW  177   2.913   2.432   0.892 -0.3372  0.1842  0.3383
31191SOL    HW1  178   2.870   2.475   0.818  0.9082  0.4551 -0.2564
31191SOL    HW2  179   2.841   2.397   0.944 -1.2464 -0.9019 -1.5174
31192SOL     OW  180  11.924   3.075   1.114 -0.0656  0.1899  0.0631
31192SOL    HW1  181  11.993   3.110   1.169  0.3015 -1.3594  0.6327
31192SOL    HW2  182  11.843   3.102   1.156  0.2040  0.5052  0.3772
31193SOL     OW  183   0.003   0.710   8.967  0.2524 -0.1631  0.0061
31193SOL    HW1  184  -0.065   0.772   8.991  0.7594  0.3142  0.2391
31193SOL    HW2  185  -0.042   0.627   8.955 -0.3324  0.1023  0.3698
31194SOL     OW  186   0.705   1.758   5.946 -0.0356 -0.4433  0.7566
31194SOL    HW1  187   0.645   1.694   5.984 -2.3183  1.5493  0.7811
31194SOL    HW2  188   0.703   1.741   5.852  2.0152 -2.4473  0.9977
31195SOL     OW  189   9.110  10.896   2.036  0.3126 -0.1457  0.4863
31195SOL    HW1  190   9.045  10.921   1.971  0.4233 -0.2053  0.3522
31195SOL    HW2  191   9.193  10.927   2.001  0.0445  2.5867  1.9985
31196SOL     OW  192   3.928  10.671   1.725  0.1547  0.0722  0.2298
31196SOL    HW1  193   3.895  10.597   1.776 -0.1257 -0.2555 -0.4249
31196SOL    HW2  194   4.009  10.696   1.770  0.5222 -0.9563  0.1604
31197SOL     OW  195  11.346   7.671   0.688 -0.3446  0.7367  0.6265
31197SOL    HW1  196  11.379   7.674   0.778 -0.3216  0.8227  0.6147
31197SOL    HW2  197  11.416   7.629   0.639 -0.3977  0.6033  0.6659
31198SOL     OW  198   9.533   0.526   7.012  0.0635  0.4947 -0.0008
31198SOL    HW1  199   9.526   0.477   6.930  1.8013 -0.4503  0.3680
31198SOL    HW2  200   9.451   0.574   7.018 -0.9743 -1.0233 -1.2536
31199SOL     OW  201  10.637   4.085   1.759  0.6518  0.4906 -0.2298
31199SOL    HW1  202  10.670   4.134   1.683  0.0117 -0.1292 -0.9118
31199SOL    HW2  203  10.550   4.056   1.734  1.6701 -2.6128 -0.5907
31200SOL     OW  204   2.664   1.428   8.888  0.8223  0.1756  0.0964
31200SOL    HW1  205   2.606   1.462   8.820 -0.4568 -1.4928  0.2856
31200SOL    HW2  206   2.720   1.502   8.911  1.4646  0.7356 -2.8964
31201SOL     OW  207   1.599   2.997   7.531  0.3095  0.5124 -0.1379
31201SOL    HW1  208   1.619   2.975   7.440  0.5870 -1.3799  0.3375
31201SOL    HW2  209   1.516   2.953   7.548  1.5219 -1.3527  1.2422
31202SOL     OW  210   5.155  11.347   8.782 -0.0988  0.3160 -0.2613
31202SOL    HW1  211   5.220  11.285   8.815  0.7032  1.1650 -0.2064
31202SOL    HW2  212   5.169  11.349   8.688  0.5567  1.1461 -0.1569
31203SOL     OW  213  11.995   1.959   2.181  0.5078 -0.2391  0.0062
31203SOL    HW1  214  12.085   1.927   2.170  0.5830 -0.0084 -0.0378
31203SOL    HW2  215  12.001   2.053   2.169  0.3228 -0.1765  0.3742
31204SOL     OW  216   8.419   5.648  10.053 -0.6451 -0.2042 -0.7540
31204SOL    HW1  217   8.354   5.693   9.999 -0.2089  0.5810 -0.6405
31204SOL    HW2  218   8.374   5.629  10.135 -0.0638  2.5362  0.2869
31205SOL     OW  219   5.257   4.729   0.896  0.3208 -0.7370  0.3137
31205SOL    HW1  220   5.318   4.716   0.823  0.5636 -1.0561  0.5719
31205SOL    HW2  221   5.179   4.768   0.855 -0.7527 -3.6079 -0.6287
31206SOL     OW  222   7.411   1.292   5.862 -0.4192 -0.4024  0.5464
31206SOL    HW1  223   7.447   1.231   5.925 -0.2795 -0.0567  0.8033
31206SOL    HW2  224   7.481   1.304   5.797 -0.0351  0.3104  1.0732
31207SOL     OW  225   8.715   3.929   3.664  0.2068 -0.2941  0.5057
31207SOL    HW1  226   8.645   3.954   3.604  1.0070  4.5237  1.1601
31207SOL    HW2  227   8.796   3.960   3.622  1.0803  0.7577  2.7888
31208SOL     OW  228  11.569   0.246  10.806 -0.0031  0.3399  0.0447
31208SOL    HW1  229  11.647   0.299  10.823 -0.0085  0.1089  0.8026
31208SOL    HW2  230  11.599   0.176  10.748  0.2859  0.4231  0.0929
31209SOL     OW  231   1.803   0.455   6.490 -0.3689 -0.0402 -0.1231
31209SOL    HW1  232   1.809   0.454   6.585  2.5453  2.7154 -0.1180
31209SOL    HW2  233   1.732   0.516   6.470 -1.0310 -0.6756  0.2169
31210SOL     OW  234   6.875   1.316   7.867 -0.2214  0.3297  0.2981
31210SOL    HW1  235   6.941   1.358   7.811  0.7965 -0.4532  0.8835
31210SOL    HW2  236   6.801   1.300   7.808  0.9429 -0.7674 -0.9395
31211SOL     OW  237   7.135  11.651  10.183 -0.2106 -0.2253  0.1426
31211SOL    HW1  238   7.171  11.583  10.240 -0.2607  1.9803  3.0072
31211SOL    HW2  239   7.208  11.711  10.168 -1.3970  2.0024  2.4427
31212SOL     OW  240  11.979   1.535   6.946  0.1328 -0.2897  0.3572
31212SOL    HW1  241  12.014   1.608   6.895  1.7726 -0.8154  0.6654
31212SOL    HW2  242  11.887   1.556   6.959  0.4206  1.3937 -0.1308
31213SOL     OW  243   6.742   7.427   9.974  0.1892  0.2152 -0.8698
31213SOL    HW1  244   6.817   7.423  10.033 -0.8023  0.2229  0.4523
31213SOL    HW2  245   6.733   7.338   9.941 -0.6327 -0.3756  0.8489
31214SOL     OW  246   4.194   9.094  11.767  0.4002 -0.3494  0.2866
31214SOL    HW1  247   4.288   9.109  11.773  0.2463  0.6929  0.3145
31214SOL    HW2  248   4.176   9.098  11.673  0.7881 -3.4349 -0.0372
31215SOL     OW  249   3.659  10.933  11.457  0.1136  0.6185 -0.0277
31215SOL    HW1  250   3.598  10.871  11.498  1.7979 -0.1163  1.4624
31215SOL    HW2  251   3.716  10.962  11.528  2.3623  0.2394 -1.5671
31216SOL     OW  252   8.372  12.609   8.820  0.4843  0.0101 -0.2200
31216SOL    HW1  253   8.424  12.537   8.783 -0.5925 -1.2221  0.5697
31216SOL    HW2  254   8.427  12.686   8.809  1.7392 -0.9533 -0.9885
31217SOL     OW  255  10.804   9.180  10.892 -0.0010 -0.2259 -0.5396
31217SOL    HW1  256  10.778   9.144  10.977  1.0423 -0.2323 -0.2085
31217SOL    HW2  257  10.791   9.108  10.831 -1.1799 -0.0872 -0.4756
31218SOL     OW  258   4.222   2.951   0.583 -0.0647  0.1205  0.0598
31218SOL    HW1  259   4.193   2.910   0.502  0.4525  0.2387 -0.1851
31218SOL    HW2  260   4.311   2.982   0.565 -0.7998  2.3424 -0.1371
31219SOL     OW  261   9.241  11.902   2.360  0.2101 -0.1918  0.7720
31219SOL    HW1  262   9.228  11.810   2.340 -0.1884  0.0629 -0.2129
31219SOL    HW2  263   9.206  11.914   2.448 -2.0088 -0.4957 -0.0035
31220SOL     OW  264   2.600   4.517   0.981  0.1076 -0.0539 -0.1670
31220SOL    HW1  265   2.590   4.530   1.076  0.1811  0.2376 -0.1980
31220SOL    HW2  266   2.650   4.436   0.973 -0.9990 -0.7679  0.0212
31221SOL     OW  267  10.406   9.083  12.500 -0.2180  0.2986  0.1960
31221SOL    HW1  268  10.495   9.052  12.519 -0.3093 -1.6009 -2.0698
31221SOL    HW2  269  10.418   9.173  12.471  1.3080 -0.5504 -2.0919
31222SOL     OW  270  10.627   7.589   0.980  0.0688  0.3781  0.3507
31222SOL    HW1  271  10.688   7.561   1.049  0.3932  1.8929  0.7300
31222SOL    HW2  272  10.555   7.630   1.028 -0.8798 -0.6947 -0.1337
31223SOL     OW  273  10.127   4.876   1.102  0.1034 -0.5600  0.3744
31223SOL    HW1  274  10.222   4.879   1.117  0.4262  1.4039 -1.4829
31223SOL    HW2  275  10.111   4.791   1.062  1.1905 -0.7273  0.2684
31224SOL     OW  276   2.320   0.945   6.348 -0.6673 -0.5261 -0.2409
31224SOL    HW1  277   2.411   0.924   6.370 -0.5918 -0.1646 -0.2036
31224SOL    HW2  278   2.317   1.041   6.345 -0.6318 -0.5581 -2.0272
31225SOL     OW  279   6.278  11.372  11.736  0.2100  0.5096 -0.1368
31225SOL    HW1  280   6.290  11.443  11.673  0.1213 -0.0255 -0.7688
31225SOL    HW2  281   6.287  11.413  11.821 -1.0881  1.5352 -0.4580
31226SOL     OW  282  12.011  12.502   6.169  0.2026  0.3483 -0.3454
31226SOL    HW1  283  12.062  12.552   6.104  1.7753 -0.1829  0.4378
31226SOL    HW2  284  11.957  12.568   6.212 -0.0053  0.8925 -1.4062
31227SOL     OW  285  10.351   0.172   1.594  0.4162 -0.4020 -0.3823
31227SOL    HW1  286  10.445   0.174   1.615  0.6613  0.0735 -1.4577
31227SOL    HW2  287  10.316   0.251   1.636  1.6443  2.8847 -4.7606
31228SOL     OW  288   5.965   9.785  12.661 -0.3142 -0.2012  0.3616
31228SOL    HW1  289   5.996   9.748  12.744  0.2993 -2.6489 -0.8726
31228SOL    HW2  290   5.882   9.740  12.644  0.2189 -0.7462 -0.9607
31229SOL     OW  291   7.874   8.474   8.441 -0.2339  0.1054 -0.5736
31229SOL    HW1  292   7.926   8.552   8.422  1.1956 -0.5085  0.6411
31229SOL    HW2  293   7.922   8.402   8.400 -0.4955 -0.3921 -0.0228
31230SOL     OW  294   2.570   8.503   6.179 -0.3074  0.0297 -0.1994
31230SOL    HW1  295   2.502   8.438   6.194 -0.1189 -0.2477 -0.5385
31230SOL    HW2  296   2.644   8.474   6.233 -0.8236  0.9302  1.0424
31231SOL     OW  297  11.536   8.206   8.523  0.3241  0.4124  0.4721
31231SOL    HW1  298  11.465   8.183   8.463  2.2606  0.6163 -2.0805
31231SOL    HW2  299  11.520   8.151   8.600  0.5364 -4.0709 -2.3047
31232SOL     OW  300  11.360   8.023   0.167  0.2081 -0.2355 -0.2907
31232SOL    HW1  301  11.416   7.965   0.115  1.3987  1.6177 -1.1786
31232SOL    HW2  302  11.397   8.022   0.255  1.4179  0.6219 -0.7636
31233SOL     OW  303  10.049  10.321   9.632  0.1871  0.2721 -0.3229
31233SOL    HW1  304  10.134  10.308   9.590  0.6122  0.2988  0.5062
31233SOL    HW2  305  10.011  10.234   9.638  1.9818 -0.4568  3.0444
31234SOL     OW  306  11.335   1.545  12.701 -0.2517 -0.3328  0.4384
31234SOL    HW1  307  11.244   1.563  12.724 -1.1468 -1.8483 -1.5339
31234SOL    HW2  308  11.348   1.591  12.618  0.5330 -0.7205  0.3350
31235SOL     OW  309   9.446   0.833   0.896  0.2200 -0.1295 -0.1858
31235SOL    HW1  310   9.510   0.875   0.953  1.3066 -0.1395 -1.3533
31235SOL    HW2  311   9.402   0.769   0.952  0.4405  0.6699  0.9164
31236SOL     OW  312  10.788   0.492   4.437  0.4340  0.2527 -0.2803
31236SOL    HW1  313  10.843   0.446   4.374  0.2621  0.5566 -0.6589
31236SOL    HW2  314  10.837   0.571   4.460  1.1072 -0.5149  1.0081
31237SOL     OW  315   6.961  10.762   9.144  0.6115 -0.3728  0.3036
31237SOL    HW1  316   6.981  10.721   9.059 -1.3377 -1.9445  0.5235
31237SOL    HW2  317   7.020  10.718   9.205  1.9362  0.6747 -0.1721
31238SOL     OW  318   8.511   9.229   5.470 -0.5067  0.4780 -0.4679
31238SOL    HW1  319   8.537   9.275   5.550 -0.6717  1.0861 -0.7593
31238SOL    HW2  320   8.419   9.255   5.457 -1.5480 -2.1428  0.9209
31239SOL     OW  321   1.682   3.242   7.620  0.5572  0.7428  0.0855
31239SOL    HW1  322   1.776   3.227   7.608  0.5527 -0.3448  1.2572
31239SOL    HW2  323   1.640   3.167   7.576  0.3042  0.4538  0.8034
31240SOL     OW  324   8.146   1.782   1.604 -0.0895 -0.2387 -0.2071
31240SOL    HW1  325   8.227   1.816   1.566 -0.4510  0.0346 -0.7444
31240SOL    HW2  326   8.151   1.807   1.697  0.6106 -0.5484 -0.1531
31241SOL     OW  327   1.025   8.796   5.418 -0.0974  0.1669 -0.2024
31241SOL    HW1  328   1.065   8.839   5.343  0.6329  1.6692  0.9984
31241SOL    HW2  329   0.937   8.771   5.388  0.6623 -0.5647 -1.9619
31242SOL     OW  330   9.995   7.896   5.073  0.5040 -0.0385  0.0224
31242SOL    HW1  331   9.964   7.985   5.055  0.3560 -0.3013 -1.1151
31242SOL    HW2  332  10.089   7.905   5.087  0.8933  0.0686 -2.2401
31243SOL     OW  333   8.762   2.942   6.135  0.0478  0.4497  0.3098
31243SOL    HW1  334   8.676   2.981   6.155  0.0606  0.0258  1.2904
31243SOL    HW2  335   8.801   2.928   6.221 -0.3361 -2.5837  0.1113
31244SOL     OW  336   2.383   5.155   8.791 -0.0273 -0.0009  0.1649
31244SOL    HW1  337   2.400   5.100   8.715 -1.7607 -0.4091  0.0324
31244SOL    HW2  338   2.295   5.190   8.776  0.8586  2.5434  0.4254
31245SOL     OW  339   1.531   0.999   6.509 -0.7375 -0.5168  0.3207
31245SOL    HW1  340   1.564   0.967   6.425  1.5117 -0.7926  1.2646
31245SOL    HW2  341   1.583   0.953   6.575 -1.6336  0.5836  1.8528
31246SOL     OW  342  11.957   1.967  10.303  0.2880 -0.1933  0.0067
31246SOL    HW1  343  11.928   1.922  10.224 -1.0125  0.4604  0.0813
31246SOL    HW2  344  12.051   1.981  10.290  0.4915 -1.8148 -0.5462
31247SOL     OW  345   5.708   5.276   4.010  0.0354  0.4977  0.6620
31247SOL    HW1  346   5.702   5.272   3.914 -1.6536  0.9687  0.7197
31247SOL    HW2  347   5.801   5.287   4.027  0.3149  0.9902 -0.9515
31248SOL     OW  348  12.405   2.411  10.719 -0.2449 -0.0340  0.1616
31248SOL    HW1  349  12.358   2.384  10.640 -1.6346 -0.0046  0.9543
31248SOL    HW2  350  12.447   2.494  10.695 -1.5713  0.5490 -0.2237
31249SOL     OW  351  10.708   1.111   3.401 -0.3094 -0.0579 -0.0754
31249SOL    HW1  352  10.763   1.133   3.326  0.1996 -1.0778 -0.0254
31249SOL    HW2  353  10.650   1.187   3.412  0.7506  0.8204 -0.4347
31250SOL     OW  354   8.279   6.305   2.292  0.0807  0.3924  0.7939
31250SOL    HW1  355   8.223   6.246   2.342  2.9636 -3.1562  0.2400
31250SOL    HW2  356   8.339   6.342   2.357 -0.6781  1.5233  0.8879
31251SOL     OW  357   2.070   5.702  11.624 -0.0718 -0.0818  0.7281
31251SOL    HW1  358   2.116   5.665  11.548 -0.8147  1.1264 -0.3379
31251SOL    HW2  359   1.994   5.746  11.587 -0.9558 -0.2526  2.2823
31252SOL     OW  360   4.027  10.980   8.966  0.8319 -0.2807  0.3607
31252SOL    HW1  361   3.976  11.058   8.946 -0.7588 -1.2380  0.5287
31252SOL    HW2  362   4.118  11.010   8.968  0.4938  1.1169 -1.8668
31253SOL     OW  363   6.116   9.252  10.891  0.2874  0.3520 -0.2629
31253SOL    HW1  364   6.027   9.284  10.906  0.7743  0.9948  1.5180
31253SOL    HW2  365   6.123   9.245  10.796 -1.6981  0.1702 -0.4389
31254SOL     OW  366   1.887   7.592  10.632  0.4999  0.0466  0.7048
31254SOL    HW1  367   1.952   7.521  10.635 -1.1357 -1.5850 -0.1058
31254SOL    HW2  368   1.811   7.552  10.590 -0.4129  2.4064 -0.0143
31255SOL     OW  369  12.047   9.898  10.014  0.2926  0.1438 -0.0263
31255SOL    HW1  370  12.032   9.858   9.928 -0.6424 -0.8877  0.5854
31255SOL    HW2  371  12.141   9.914  10.017  0.3342  0.2686 -1.2652
31256SOL     OW  372  10.103   7.772   3.066  0.1794 -0.0436  0.0969
31256SOL    HW1  373  10.029   7.781   3.126  0.5932  1.1866  0.4680
31256SOL    HW2  374  10.118   7.678   3.059 -3.4709 -0.6762 -2.5605
31257SOL     OW  375   3.094   5.946   4.853 -0.3229 -0.2467  0.2269
31257SOL    HW1  376   3.126   5.938   4.943 -0.1670  2.0053  0.4354
31257SOL    HW2  377   3.166   5.988   4.807 -0.6270 -0.8650 -0.8356
31258SOL     OW  378   5.733   0.493   9.188 -0.6614  0.2192 -0.4222
31258SOL    HW1  379   5.672   0.549   9.236 -3.0316 -1.0923 -1.7374
31258SOL    HW2  380   5.749   0.419   9.247  0.5889  1.0615  0.3514
31259SOL     OW  381   6.935   4.664   6.648 -0.3329  0.5203  0.0853
31259SOL    HW1  382   6.949   4.610   6.726 -2.2690  1.3688  1.0830
31259SOL    HW2  383   6.991   4.624   6.581 -0.4742 -1.7335  1.2227
31260SOL     OW  384  10.463   1.006   3.844  0.3115  0.2353 -0.0757
31260SOL    HW1  385  10.554   1.007   3.872  0.0073  1.3156  0.9715
31260SOL    HW2  386  10.450   1.089   3.799 -0.2647  0.3053  0.2028
31261SOL     OW  387  11.422   5.226   0.609  0.0714 -0.0658 -0.2980
31261SOL    HW1  388  11.495   5.279   0.642 -0.7986  0.6112  0.5754
31261SOL    HW2  389  11.453   5.136   0.617  0.3872  0.1548  1.1599
31262SOL     OW  390   5.335   0.453   7.389  0.0403 -0.1760  0.1682
31262SOL    HW1  391   5.273   0.385   7.414 -0.7955 -0.4914 -2.4304
31262SOL    HW2  392   5.307   0.479   7.301  3.2617  0.0776 -0.9039
31263SOL     OW  393   0.845   1.207   6.452 -0.0371  0.1453 -0.1885
31263SOL    HW1  394   0.803   1.177   6.371 -0.5274  2.1185 -0.7122
31263SOL    HW2  395   0.802   1.290   6.472  1.7948  0.9236  0.7198
31264SOL     OW  396   9.647  10.554   1.465 -0.0406 -0.1051 -0.2031
31264SOL    HW1  397   9.730  10.536   1.508 -0.7152  1.5247  1.9566
31264SOL    HW2  398   9.585  10.494   1.507 -0.3048  0.0294 -0.3985
31265SOL     OW  399   4.988  11.387   5.997  0.1332 -0.0231  0.3687
31265SOL    HW1  400   4.970  11.347   5.912 -1.6671 -2.1160  1.6410
31265SOL    HW2  401   4.980  11.481   5.981  1.0897 -0.2578 -1.9995
31266SOL     OW  402   9.154   8.659  10.518  0.1420 -0.3979 -0.3374
31266SOL    HW1  403   9.066   8.674  10.552 -0.0592  0.4733 -1.2063
31266SOL    HW2  404   9.163   8.720  10.444  1.4480 -0.5200 -0.3107
31267SOL     OW  405   4.839   3.174   8.141 -0.0971  0.0742  0.5643
31267SOL    HW1  406   4.751   3.206   8.157  0.0426  0.2133  1.0852
31267SOL    HW2  407   4.847   3.096   8.195 -0.6603 -1.2631 -1.2023
31268SOL     OW  408  10.443   6.632   4.990 -0.4875  0.0601  0.3546
31268SOL    HW1  409  10.371   6.592   5.039 -1.5140  0.9617 -0.3826
31268SOL    HW2  410  10.520   6.619   5.046 -1.7251  1.6427  2.5550
31269SOL     OW  411   8.340   6.799   9.780 -0.1011 -0.1470  0.5956
31269SOL    HW1  412   8.343   6.834   9.869  1.1077  4.1392 -0.8995
31269SOL    HW2  413   8.279   6.856   9.734  1.4351 -0.4277 -1.9687
31270SOL     OW  414   6.700   4.989   1.124  0.1288  0.0678 -0.3213
31270SOL    HW1  415   6.758   4.923   1.086 -0.0080  0.6124 -1.5478
31270SOL    HW2  416   6.631   5.000   1.058  0.2632  1.5643 -0.2470
31271SOL     OW  417   3.259   8.252   6.606 -0.0559  0.8046  0.2167
31271SOL    HW1  418   3.239   8.185   6.541 -3.2926 -0.2677  2.1056
31271SOL    HW2  419   3.300   8.205   6.678  0.7281  1.4581  0.2086
31272SOL     OW  420  11.146   0.504  10.747 -0.2141 -0.0873  0.1688
31272SOL    HW1  421  11.184   0.515  10.660  0.3620  2.1937  0.6559
31272SOL    HW2  422  11.060   0.465  10.731  0.1500 -0.2996 -1.3636
31273SOL     OW  423   0.679   0.683  10.823 -0.0770  0.3477  0.5721
31273SOL    HW1  424   0.619   0.729  10.882 -0.5234  1.1166 -0.4591
31273SOL    HW2  425   0.732   0.752  10.784  0.5212 -0.1978  0.3966
31274SOL     OW  426   2.300   1.769   3.970  0.3508 -0.2578 -0.1156
31274SOL    HW1  427   2.226   1.755   3.912  0.1230  0.2430  0.0502
31274SOL    HW2  428   2.344   1.846   3.935  0.9865 -0.7428 -0.4042
31275SOL     OW  429  11.427   2.990   4.735 -0.4716 -0.2084 -0.2992
31275SOL    HW1  430  11.492   2.957   4.673 -1.1487  1.3115 -1.8884
31275SOL    HW2  431  11.470   3.063   4.779 -0.7112  0.0398 -0.4814
31276SOL     OW  432   3.784   9.801   8.684 -0.3655 -0.1349  0.0762
31276SOL    HW1  433   3.728   9.802   8.606  0.7653  0.0768 -0.7548
31276SOL    HW2  434   3.831   9.718   8.678 -1.6912 -1.0491  1.6066
31277SOL     OW  435   6.421  11.216   7.413 -0.1283  0.4053 -0.2036
31277SOL    HW1  436   6.348  11.260   7.455 -0.8550 -1.3189  0.4286
31277SOL    HW2  437   6.484  11.201   7.483 -0.0229  0.1646 -0.3470
31278SOL     OW  438   5.689   5.731  10.272 -0.1413 -0.4510 -0.1862
31278SOL    HW1  439   5.757   5.675  10.311 -0.3332 -2.4922 -2.5492
31278SOL    HW2  440   5.737   5.792  10.216 -0.1512 -1.3796 -1.2428
31279SOL     OW  441   9.815   2.580   0.692 -0.0441 -0.2599 -0.0241
31279SOL    HW1  442   9.759   2.504   0.677 -0.7723  0.4867 -1.2089
31279SOL    HW2  443   9.784   2.645   0.630  0.6016  0.9965  0.9336
31280SOL     OW  444   6.098  10.800   5.705  0.1756 -0.0833  0.5569
31280SOL    HW1  445   6.112  10.802   5.610  0.5515 -0.6362  0.5963
31280SOL    HW2  446   6.130  10.714   5.732 -0.9294 -0.3540  1.0338
31281SOL     OW  447  11.024  10.080   6.211 -0.1969 -0.5466 -0.7378
31281SOL    HW1  448  11.023  10.106   6.119 -1.2739  0.6063 -0.4216
31281SOL    HW2  449  11.018  10.162   6.259 -0.9923 -1.2223  0.3428
31282SOL     OW  450  10.793  10.020   7.184 -0.1133  0.3268 -0.1648
31282SOL    HW1  451  10.813  10.008   7.277 -0.0316 -0.7816 -0.3207
31282SOL    HW2  452  10.849  10.094   7.158 -0.3505  0.8370  0.7257
31283SOL     OW  453   2.887  10.946   3.126  0.0726 -0.3749 -0.0453
31283SOL    HW1  454   2.970  10.917   3.088  0.1426 -0.5755  0.2642
31283SOL    HW2  455   2.852  11.008   3.062  0.0135 -0.9839 -0.6198
31284SOL     OW  456   7.485  12.313   3.262 -0.2436 -0.8459  0.1560
31284SOL    HW1  457   7.530  12.319   3.347 -0.8496 -0.4410  0.4509
31284SOL    HW2  458   7.485  12.402   3.228  1.3312 -1.2382 -0.9877
31285SOL     OW  459   5.277   7.107   5.251 -0.5735 -0.5857 -0.2412
31285SOL    HW1  460   5.345   7.170   5.278 -0.2964 -1.4576  1.1876
31285SOL    HW2  461   5.323   7.023   5.245 -1.1985 -0.8875 -0.8919
31286SOL     OW  462  10.505   3.952   9.014  0.2801 -0.6671  0.0488
31286SOL    HW1  463  10.423   3.992   8.985  0.6667  1.3453  1.5461
31286SOL    HW2  464  10.568   3.973   8.945  0.0581 -0.2107 -0.0182
31287SOL     OW  465  11.633   6.832  10.844 -0.4250  0.1050 -0.0580
31287SOL    HW1  466  11.646   6.737  10.844 -0.1632  0.1036  2.0747
31287SOL    HW2  467  11.546   6.844  10.808 -0.7306 -1.0043  0.2551
31288SOL     OW  468   5.725   8.670   6.218 -0.2749  0.3099 -0.8634
31288SOL    HW1  469   5.654   8.683   6.156 -1.2078 -0.3638  0.0248
31288SOL    HW2  470   5.761   8.584   6.196 -1.8639 -0.8244  0.6668
31289SOL     OW  471   1.040   4.211   9.286 -0.8646  0.5659  0.6922
31289SOL    HW1  472   0.973   4.252   9.232 -0.2158  3.7836  2.0913
31289SOL    HW2  473   1.116   4.202   9.228 -1.3710  0.3265  0.0605
31290SOL     OW  474   2.010   4.080   2.676 -0.2753  0.4999  0.1038
31290SOL    HW1  475   2.019   4.168   2.712 -1.4906  0.8052 -0.2628
31290SOL    HW2  476   2.037   4.089   2.585  2.7256 -0.2547  0.8288
31291SOL     OW  477   9.507   0.304   8.218 -0.2701 -0.1776  0.2673
31291SOL    HW1  478   9.602   0.311   8.227 -0.3471  0.5905  0.6126
31291SOL    HW2  479   9.493   0.280   8.127  0.2938 -1.5600  0.5231
31292SOL     OW  480   7.016   9.034   8.110 -0.0203 -0.0305  0.6044
31292SOL    HW1  481   7.008   8.967   8.177 -1.2654  0.7438  1.2689
31292SOL    HW2  482   7.023   8.986   8.028  3.4366 -1.0521  1.3656
31293SOL     OW  483   8.731   9.433  11.714  0.0351  0.1278 -0.8423
31293SOL    HW1  484   8.759   9.517  11.749 -0.9971  1.3760 -2.8236
31293SOL    HW2  485   8.691   9.454  11.630  0.0139 -2.3909 -1.5496
31294SOL     OW  486   4.092   8.699   7.212 -0.1961  0.3795 -0.3211
31294SOL    HW1  487   4.001   8.727   7.208  0.0827  1.1348 -2.0971
31294SOL    HW2  488   4.142   8.776   7.185  0.9603 -0.1475  0.2327
31295SOL     OW  489   7.779   2.164   7.445  0.1057  0.1430  0.5324
31295SOL    HW1  490   7.813   2.204   7.365  2.7972 -0.2988  1.3655
31295SOL    HW2  491   7.811   2.074   7.442 -4.4298 -1.7367 -0.4997
31296SOL     OW  492   0.408   9.094  12.144 -0.4376  0.0785  0.1299
31296SOL    HW1  493   0.365   9.009  12.151  0.7494 -0.7981 -2.3807
31296SOL    HW2  494   0.369   9.135  12.067  2.1164 -0.1485 -1.3807
31297SOL     OW  495   8.462  11.621  10.420 -0.4279  0.6657 -0.0469
31297SOL    HW1  496   8.496  11.558  10.483 -1.1569 -0.2976 -0.5887
31297SOL    HW2  497   8.450  11.702  10.470  0.9563  0.5371  0.5575
31298SOL     OW  498   1.528   0.616   7.057 -0.5833  0.0900 -0.0086
31298SOL    HW1  499   1.461   0.616   6.989  0.1747  0.5444 -0.7723
31298SOL    HW2  500   1.611   0.630   7.010 -0.0517  0.5096  1.0107
31299SOL     OW  501   7.556  12.560   4.026  0.1886  0.1782 -0.2595
31299SOL    HW1  502   7.610  12.482   4.012 -1.5472 -0.9014 -1.3541
31299SOL    HW2  503   7.514  12.576   3.942  0.9444  2.7181 -0.2428
31300SOL     OW  504   1.108  12.421   6.756 -0.0462  0.0756  0.8945
31300SOL    HW1  505   1.075  12.433   6.845 -1.2274 -1.7784  0.7526
31300SOL    HW2  506   1.064  12.342   6.724  0.8947  0.2895 -1.0866
31301SOL     OW  507  12.461   0.491   2.280 -0.0384 -0.2509 -0.2657
31301SOL    HW1  508  12.485   0.514   2.370  1.3702  0.8493 -0.8800
31301SOL    HW2  509  12.384   0.544   2.261  0.3632  0.3958 -0.0927
31302SOL     OW  510   0.860   7.616   5.428 -0.2519  0.0078  0.1996
31302SOL    HW1  511   0.802   7.647   5.497  1.4122  0.4677  1.4612
31302SOL    HW2  512   0.928   7.567   5.474  0.4658 -0.3828 -1.2031
31303SOL     OW  513   1.285  12.378  12.537  0.3100 -0.2990 -0.8671
31303SOL    HW1  514   1.327  12.307  12.489 -2.8026 -2.4049 -0.7827
31303SOL    HW2  515   1.213  12.406  12.481  0.1112  1.3101  0.1002
31304SOL     OW  516   8.953  10.004   1.341  0.0366  0.3462  0.7253
31304SOL    HW1  517   9.044  10.004   1.312  0.2681  0.5722  1.4287
31304SOL    HW2  518   8.903   9.972   1.265  0.8125 -0.8934  0.7182
31305SOL     OW  519   8.834   0.911   5.205  0.6706 -0.0323 -0.0224
31305SOL    HW1  520   8.928   0.918   5.223  0.1201  0.2913  3.3224
31305SOL    HW2  521   8.802   0.848   5.269 -1.1651 -1.5853 -2.3241
31306SOL     OW  522   6.379   1.910   2.092 -0.0094  0.7848 -0.2322
31306SOL    HW1  523   6.399   1.989   2.141  0.9793 -0.7478  1.9767
31306SOL    HW2  524   6.285   1.898   2.103  0.1323  0.6921  0.9720
31307SOL     OW  525   5.555   1.215   3.117  0.2740  0.6862 -0.5545
31307SOL    HW1  526   5.461   1.225   3.103  0.1039  0.2856  0.2224
31307SOL    HW2  527   5.562   1.157   3.192  1.1088  2.4470  0.8174
31308SOL     OW  528   2.329   7.058   7.806  0.3282  0.1022 -0.0432
31308SOL    HW1  529   2.326   7.150   7.833 -1.0544  0.2704 -0.6656
31308SOL    HW2  530   2.238   7.037   7.784  0.7269 -1.2415 -0.4966
31309SOL     OW  531   0.165   9.536   9.958 -0.1386  0.0949 -0.5767
31309SOL    HW1  532   0.144   9.622   9.994  0.0760 -0.6843  1.5630
31309SOL    HW2  533   0.134   9.474  10.024  2.5277 -1.3507 -0.5402
31310SOL     OW  534  11.696   7.010   3.994  0.4151  0.0802 -0.1546
31310SOL    HW1  535  11.660   6.973   4.075  0.3776 -0.0256 -0.2186
31310SOL    HW2  536  11.620   7.047   3.949  0.2580 -0.8051 -0.6442
31311SOL     OW  537   1.663   0.716   4.238 -0.2698  0.2170 -0.9584
31311SOL    HW1  538   1.598   0.649   4.216 -0.1268 -0.3903  0.3725
31311SOL    HW2  539   1.616   0.777   4.295  0.9518 -1.7603  2.4234
31312SOL     OW  540   6.226   2.893  12.711 -0.2729  0.1413  0.3083
31312SOL    HW1  541   6.270   2.831  12.652  0.0808  1.1948 -0.5721
31312SOL    HW2  542   6.296   2.951  12.740 -1.0807  2.1528 -1.4990
31313SOL     OW  543   7.954   1.017   1.466 -0.1606  0.0201  0.0921
31313SOL    HW1  544   8.004   0.960   1.407 -0.3183  0.5224 -0.5411
31313SOL    HW2  545   7.908   0.957   1.524 -1.2856 -0.5726 -1.3366
31314SOL     OW  546   5.901   7.985   6.439 -0.8603 -0.0305 -0.3132
31314SOL    HW1  547   5.939   7.913   6.389 -0.7430  0.3115 -0.7144
31314SOL    HW2  548   5.885   7.947   6.526  4.1637  0.7422  1.3444
31315SOL     OW  549   8.702   6.238   5.501 -0.2893 -0.0897 -0.1715
31315SOL    HW1  550   8.646   6.208   5.429 -0.0903 -0.9556  0.0163
31315SOL    HW2  551   8.737   6.157   5.539 -1.4531  0.2496  1.7669
31316SOL     OW  552   7.826   6.293   0.809 -0.0634 -0.0639 -0.0248
31316SOL    HW1  553   7.878   6.373   0.801 -2.3302  1.5290 -0.0749
31316SOL    HW2  554   7.762   6.314   0.877 -2.6985 -0.6047 -2.1591
31317SOL     OW  555   9.758  11.322   8.066  0.3126 -0.0945 -0.4232
31317SOL    HW1  556   9.803  11.342   7.983 -0.6298 -0.8503 -1.1377
31317SOL    HW2  557   9.827  11.329   8.132  0.7350  2.1858 -1.0252
31318SOL     OW  558  12.539   8.799   4.441 -0.5437 -0.4360  0.2559
31318SOL    HW1  559  12.479   8.751   4.384  0.9107  0.5656 -2.2593
31318SOL    HW2  560  12.504   8.888   4.445  0.0041 -0.1931 -0.1100
31319SOL     OW  561   2.196   7.283  11.034  0.3027  0.5405 -0.3577
31319SOL    HW1  562   2.147   7.305  10.955  1.0070  1.7273 -0.4884
31319SOL    HW2  563   2.277   7.244  11.002 -0.5488 -1.5417 -0.1393
31320SOL     OW  564   8.175   0.433   3.809 -0.3717 -0.1468 -0.6433
31320SOL    HW1  565   8.148   0.393   3.726  0.0513 -0.3463 -0.6847
31320SOL    HW2  566   8.270   0.435   3.805 -0.3807  0.6527 -0.5344
31321SOL     OW  567   2.906  11.546   4.925  0.5786 -0.5869 -0.0651
31321SOL    HW1  568   2.967  11.482   4.889  1.0192 -0.6998  0.8600
31321SOL    HW2  569   2.919  11.624   4.871  0.7586 -0.9458 -0.5560
31322SOL     OW  570  12.404   7.484   0.259 -0.1251 -0.6964  0.1779
31322SOL    HW1  571  12.382   7.413   0.319  0.5812  0.6009  2.0418
31322SOL    HW2  572  12.400   7.563   0.312 -1.2850  0.7618 -1.9240
31323SOL     OW  573   4.898   2.716   7.772  0.4803  0.4182  0.0343
31323SOL    HW1  574   4.974   2.774   7.766 -0.1298  1.2018 -0.2428
31323SOL    HW2  575   4.892   2.694   7.865  0.4899  1.1081  0.2023
31324SOL     OW  576  12.640   4.459   1.128 -0.1408  0.4270 -0.4686
31324SOL    HW1  577  12.641   4.498   1.040  0.7082  1.8331  0.1321
31324SOL    HW2  578  12.559   4.491   1.168  0.4329  1.4277 -0.0655
31325SOL     OW  579   0.203   4.417   9.231  0.0038 -0.2112 -0.2139
31325SOL    HW1  580   0.242   4.443   9.315  0.1172  1.4345 -0.7542
31325SOL    HW2  581   0.239   4.479   9.168 -0.1178 -1.4002 -1.4936
31326SOL     OW  582   4.760  12.296   2.930  0.1777 -0.5781  0.3882
31326SOL    HW1  583   4.818  12.239   2.980  0.4253  0.2150  1.0195
31326SOL    HW2  584   4.788  12.385   2.952 -0.7149 -0.1957  0.0371
31327SOL     OW  585   0.654   7.909  12.042  0.4761 -0.0385 -0.0206
31327SOL    HW1  586   0.593   7.972  12.080  0.2715 -0.6179  0.6463
31327SOL    HW2  587   0.738   7.955  12.041  0.9876 -0.6130  3.1475
31328SOL     OW  588   5.739   6.310   8.571 -0.1302  0.1647  0.1295
31328SOL    HW1  589   5.714   6.402   8.585 -2.9082 -0.6856  1.6479
31328SOL    HW2  590   5.701   6.288   8.485 -0.2714  0.1894  0.1855
31329SOL     OW  591   6.891   7.818  10.028 -0.0496  0.1142 -0.0857
31329SOL    HW1  592   6.807   7.820  10.074  0.2866 -1.9586  0.7452
31329SOL    HW2  593   6.946   7.880  10.076 -0.7808  0.7279 -0.0134
31330SOL     OW  594   8.461   0.814  12.167 -0.1144 -0.1381  0.4807
31330SOL    HW1  595   8.555   0.795  12.169 -0.2296 -1.1048 -1.0931
31330SOL    HW2  596   8.452   0.896  12.215  1.2263 -1.0929  2.5041
31331SOL     OW  597   0.873   1.817   0.408 -0.1666 -0.2606  0.5134
31331SOL    HW1  598   0.884   1.891   0.348 -3.0567 -0.4501 -0.4024
31331SOL    HW2  599   0.811   1.848   0.473 -0.1773 -1.3921  1.0570
31332SOL     OW  600   6.041   9.826  10.112 -0.0723 -0.4236 -0.1903
31332SOL    HW1  601   6.088   9.830  10.029 -0.6809  0.2974 -0.5176
31332SOL    HW2  602   5.970   9.889  10.101  1.0335  1.2468  1.6334
31333SOL     OW  603  11.385   6.841   6.976  0.0541  0.2212 -0.0513
31333SOL    HW1  604  11.377   6.936   6.986 -0.2677  0.1534  0.3328
31333SOL    HW2  605  11.378   6.827   6.882 -2.6432  0.3317  0.0711
31334SOL     OW  606   5.944   1.384   0.326 -0.6484 -0.1350  0.2537
31334SOL    HW1  607   5.950   1.468   0.374 -1.6441  0.5272 -0.7335
31334SOL    HW2  608   5.967   1.318   0.392  1.6372  0.9736  0.6909
31335SOL     OW  609   9.250   4.554   8.203 -0.2670 -0.1239  0.2576
31335SOL    HW1  610   9.320   4.617   8.221 -0.5707  0.3804 -0.2999
31335SOL    HW2  611   9.250   4.543   8.108 -2.0461  1.2157  0.0388
31336SOL     OW  612   1.021   4.972  12.718  0.5151 -0.1636  0.1918
31336SOL    HW1  613   1.011   4.889  12.670  0.1200 -0.3258  0.5400
31336SOL    HW2  614   0.946   4.973  12.777 -0.8731  1.6101 -1.4938
31337SOL     OW  615   0.455   4.100  10.436  0.3668  0.3830  0.3039
31337SOL    HW1  616   0.471   4.109  10.529 -0.8327  0.2236  0.5374
31337SOL    HW2  617   0.540   4.116  10.395  0.8143  0.8467  1.3916
31338SOL     OW  618  11.768   3.423   3.056 -0.6879  0.0337 -0.1881
31338SOL    HW1  619  11.727   3.395   3.138 -2.0898  0.5854 -0.6565
31338SOL    HW2  620  11.760   3.518   3.057 -1.3878  0.0091 -1.2659
31339SOL     OW  621  11.862   6.674   5.638 -0.2502  0.4878 -0.1515
31339SOL    HW1  622  11.785   6.684   5.582  0.8593  0.6711 -1.6937
31339SOL    HW2  623  11.922   6.618   5.589  0.7456  0.6053  0.8752
31340SOL     OW  624   8.480  11.506   6.158 -0.4247  0.3725  0.5345
31340SOL    HW1  625   8.503  11.491   6.249 -2.7412 -2.6354  0.7689
31340SOL    HW2  626   8.407  11.568   6.162 -1.5414 -0.9291  0.9030
31341SOL     OW  627   9.005   1.434  10.051 -0.6014 -0.2499  0.0600
31341SOL    HW1  628   8.929   1.449  10.107 -0.4435  0.6484  0.0629
31341SOL    HW2  629   9.053   1.517  10.055  1.0504 -1.2153  1.0880
31342SOL     OW  630   3.883   7.249   5.959  0.5595 -1.3057  0.2766
31342SOL    HW1  631   3.911   7.169   5.916  0.0431 -0.7336 -1.1766
31342SOL    HW2  632   3.896   7.318   5.893 -2.7908 -0.7702  0.0158
31343SOL     OW  633   2.915   6.409   8.222 -0.7206 -0.1652  0.2925
31343SOL    HW1  634   2.915   6.343   8.291 -2.5416  0.7576  1.2362
31343SOL    HW2  635   2.873   6.485   8.261  1.1354  1.5503 -0.8164
31344SOL     OW  636   4.420  12.125   2.486  0.0150 -0.0511 -0.3457
31344SOL    HW1  637   4.371  12.092   2.562 -1.6360  0.5954 -1.0821
31344SOL    HW2  638   4.395  12.218   2.480  1.6057  0.3985 -0.5810
31345SOL     OW  639   4.057   3.325  12.449 -0.4580 -0.2511  0.4360
31345SOL    HW1  640   4.151   3.336  12.462 -0.6327  0.0654  1.4584
31345SOL    HW2  641   4.017   3.399  12.493 -1.1155  0.7930 -1.7750
31346SOL     OW  642   0.128   1.417   5.227 -0.4746  0.3337 -0.3338
31346SOL    HW1  643   0.217   1.452   5.222  1.1757 -2.9385  2.4296
31346SOL    HW2  644   0.073   1.495   5.241  2.2619  2.2626  0.5928
31347SOL     OW  645   3.900   9.000   8.254  0.1395  0.8758 -0.9630
31347SOL    HW1  646   3.894   8.985   8.159 -1.2612  2.1359 -1.1162
31347SOL    HW2  647   3.818   9.043   8.276  0.8922  1.5634  0.6424
31348SOL     OW  648   2.022   6.299   2.761  0.8170 -0.4030 -0.3757
31348SOL    HW1  649   1.928   6.299   2.778  0.3465 -3.9367 -2.0007
31348SOL    HW2  650   2.059   6.241   2.828  1.7579  0.4504 -0.1349
31349SOL     OW  651   2.843  10.982   2.655 -0.1730  0.1729  0.0955
31349SOL    HW1  652   2.903  10.930   2.603 -1.4045 -0.1038 -1.1084
31349SOL    HW2  653   2.774  11.007   2.594 -0.4078  1.9328  1.0139
31350SOL     OW  654   1.810  10.773   2.473  0.2191 -0.2926  0.0304
31350SOL    HW1  655   1.875  10.824   2.522  0.3021 -2.1082  1.9639
31350SOL    HW2  656   1.857  10.744   2.395  1.8898 -1.7035  1.4703
31351SOL     OW  657   1.718   5.735  12.378  0.0005 -0.0330  0.2690
31351SOL    HW1  658   1.747   5.825  12.363 -1.2970  0.5102  0.9090
31351SOL    HW2  659   1.671   5.738  12.461  1.1627 -1.6062  1.0510
31352SOL     OW  660   7.940   3.769  10.442 -0.4253 -0.4446  0.3781
31352SOL    HW1  661   7.907   3.680  10.432 -0.9694 -0.0208 -2.9842
31352SOL    HW2  662   8.034   3.762  10.425 -0.2565 -0.5038  1.2917
31353SOL     OW  663  10.505   1.215   7.961 -0.1243 -0.4301  0.3168
31353SOL    HW1  664  10.592   1.229   7.923 -0.2575 -1.1644 -0.2743
31353SOL    HW2  665  10.486   1.298   8.006 -0.0476  0.5721 -1.4075
31354SOL     OW  666   8.988   9.156   7.524 -0.4004 -0.0232  0.5430
31354SOL    HW1  667   8.965   9.066   7.548 -0.7367 -0.2932 -0.7369
31354SOL    HW2  668   9.013   9.196   7.607 -0.2679 -1.2856  1.1453
31355SOL     OW  669  11.051   1.175   2.142 -0.3597 -0.4039  0.4293
31355SOL    HW1  670  11.055   1.187   2.047  0.4485 -0.0312  0.4991
31355SOL    HW2  671  11.127   1.120   2.162  0.3769  0.7776  1.0245
31356SOL     OW  672   4.670  12.174   3.953 -0.5173  0.5173 -0.6193
31356SOL    HW1  673   4.636  12.123   4.027  1.5135  1.3200  0.9730
31356SOL    HW2  674   4.701  12.108   3.891  1.8169 -0.3182  1.2742
31357SOL     OW  675   7.205   1.663   1.802 -0.2222  1.0502  0.1403
31357SOL    HW1  676   7.171   1.648   1.891 -0.6556 -0.1148 -0.1973
31357SOL    HW2  677   7.292   1.624   1.804 -1.0847 -1.0575 -0.5443
31358SOL     OW  678  12.037   9.074   7.160  0.5695  0.7535 -0.3777
31358SOL    HW1  679  12.081   8.989   7.166  1.0839  0.9985 -0.5402
31358SOL    HW2  680  11.986   9.081   7.240  2.3987  1.3084  0.8122
31359SOL     OW  681   1.088  10.675   2.040  0.0533  0.3972 -0.2933
31359SOL    HW1  682   1.027  10.602   2.044 -2.3650  2.2987 -0.6669
31359SOL    HW2  683   1.146  10.653   1.967 -0.2382 -1.3710 -0.0546
31360SOL     OW  684   4.892   8.561   8.041  0.0231  0.2685 -0.3079
31360SOL    HW1  685   4.970   8.560   8.097  0.3099 -0.3405 -0.7078
31360SOL    HW2  686   4.819   8.555   8.102  0.3301 -0.2819  0.0138
31361SOL     OW  687   3.125   7.597   0.457  0.5480  0.2933 -0.2316
31361SOL    HW1  688   3.125   7.529   0.524  0.2541  1.3356  0.8548
31361SOL    HW2  689   3.161   7.553   0.380  3.8327 -0.1981  1.3834
31362SOL     OW  690   3.596   7.070  12.080 -0.1173  0.0015 -0.2809
31362SOL    HW1  691   3.573   6.978  12.091  1.8676 -0.6080 -0.8206
31362SOL    HW2  692   3.638   7.074  11.994  1.3298  1.0494  0.4161
31363SOL     OW  693   3.597   3.796   3.909  0.1615  0.1298  0.0462
31363SOL    HW1  694   3.641   3.830   3.831 -0.3979 -0.6080 -0.6152
31363SOL    HW2  695   3.652   3.824   3.982  0.0966  1.8204 -0.5085
31364SOL     OW  696   0.800   2.197   9.624 -0.4810 -0.7696  0.3697
31364SOL    HW1  697   0.774   2.129   9.686  0.4246 -1.7299 -0.2550
31364SOL    HW2  698   0.881   2.232   9.660  0.0293 -1.3072 -0.2281
31365SOL     OW  699   0.918   5.586   1.018  0.0018 -0.0667  0.1216
31365SOL    HW1  700   0.988   5.549   0.964  0.0538 -1.5863  1.1719
31365SOL    HW2  701   0.872   5.646   0.959  0.8336 -0.7044 -1.2327
31366SOL     OW  702   2.582   9.084   2.316  0.8163  0.1025 -0.1483
31366SOL    HW1  703   2.508   9.096   2.376 -0.4400 -0.5039 -1.5131
31366SOL    HW2  704   2.633   9.165   2.325 -0.5350  0.9681  0.1220
31367SOL     OW  705   1.387  10.131  12.637 -0.1524  0.4815 -0.2215
31367SOL    HW1  706   1.477  10.161  12.633  1.5065 -3.7651  0.2074
31367SOL    HW2  707   1.368  10.123  12.730 -0.3506 -0.2237 -0.3178
31368SOL     OW  708   0.615   0.957   1.689 -0.2690  0.0987 -0.1705
31368SOL    HW1  709   0.614   0.877   1.741 -1.1671  2.1290  3.2757
31368SOL    HW2  710   0.706   0.968   1.663  0.6357 -0.2306  2.5356
31369SOL     OW  711   2.658   9.643   9.608 -0.0069 -0.6143  0.7726
31369SOL    HW1  712   2.637   9.717   9.666 -2.4451 -0.8533  0.2840
31369SOL    HW2  713   2.640   9.675   9.520  2.2524 -0.7422  0.1894
31370SOL     OW  714   4.974   3.596   3.993 -0.4545 -0.1406 -0.1498
31370SOL    HW1  715   4.952   3.630   3.906 -1.9668  0.3591  0.4010
31370SOL    HW2  716   5.013   3.671   4.039  1.0886 -0.6112 -0.6109
31371SOL     OW  717   7.085   6.028  11.204 -0.9028 -0.2852  0.4375
31371SOL    HW1  718   7.000   6.055  11.172 -0.3811  2.7542  1.3521
31371SOL    HW2  719   7.148   6.069  11.144 -0.0463  0.0223  1.5189
31372SOL     OW  720   9.129  12.280  12.263 -0.0522  0.0685 -0.4235
31372SOL    HW1  721   9.079  12.221  12.205 -0.4998 -1.4205  1.3620
31372SOL    HW2  722   9.070  12.354  12.277 -1.2906 -1.0534  0.6041
31373SOL     OW  723  10.329   5.956   0.770 -0.3053 -0.1477  0.5137
31373SOL    HW1  724  10.240   5.943   0.736 -1.3424  0.5051  2.7834
31373SOL    HW2  725  10.371   5.871   0.763 -1.4355 -0.6937  0.2662
31374SOL     OW  726  11.652   6.748   8.548 -0.0702  0.0537 -0.7454
31374SOL    HW1  727  11.570   6.706   8.575 -0.1084 -0.2334 -1.2965
31374SOL    HW2  728  11.689   6.689   8.482  1.0206 -0.2623  0.1072
31375SOL     OW  729   2.130   3.774   6.459  0.0050 -0.0576 -0.2429
31375SOL    HW1  730   2.198   3.841   6.454 -1.9532  2.0220 -0.3633
31375SOL    HW2  731   2.121   3.742   6.370  0.0120  0.4994 -0.4428
31376SOL     OW  732   0.015  12.228   2.688 -0.4280  0.6513  0.1866
31376SOL    HW1  733  -0.020  12.311   2.656  0.4754  0.8315 -0.3877
31376SOL    HW2  734   0.106  12.247   2.708 -0.0505 -0.3278 -0.5118
31377SOL     OW  735   1.476   4.936   4.816  0.1911  0.1812 -0.4657
31377SOL    HW1  736   1.567   4.917   4.837  0.8675  1.0984 -2.3173
31377SOL    HW2  737   1.463   5.026   4.844  0.5221  0.7581 -2.0659
31378SOL     OW  738  11.004   0.582  11.405  0.0642 -0.5028 -0.5421
31378SOL    HW1  739  10.968   0.497  11.378  0.0191 -0.7948  0.4247
31378SOL    HW2  740  11.040   0.618  11.324  0.3504 -1.5792 -0.9241
31379SOL     OW  741   7.922   3.308  10.934 -0.3025  0.3264  0.4417
31379SOL    HW1  742   8.006   3.343  10.903 -0.6626  0.9771  0.1773
31379SOL    HW2  743   7.938   3.286  11.026  0.3296 -0.1365  0.2265
31380SOL     OW  744  10.982   0.887  12.537 -0.5930 -0.3519 -0.6971
31380SOL    HW1  745  10.980   0.888  12.633 -2.1112  0.5535 -0.7146
31380SOL    HW2  746  11.037   0.963  12.514 -0.8363 -0.1295 -0.5507
31381SOL     OW  747   2.916   2.884  12.474  0.6395  0.0518 -0.1910
31381SOL    HW1  748   2.990   2.877  12.534  0.1215 -0.0017  0.4498
31381SOL    HW2  749   2.954   2.865  12.388  1.2819 -0.4217  0.1820
31382SOL     OW  750   1.666   5.203   2.110 -0.6793 -0.1274  0.4273
31382SOL    HW1  751   1.602   5.152   2.161 -1.0743  0.8610  0.9447
31382SOL    HW2  752   1.625   5.288   2.097  0.0322  0.1214 -0.3017
31383SOL     OW  753   5.127   6.621   1.082 -0.3574  0.0536  0.0404
31383SOL    HW1  754   5.040   6.662   1.079 -0.2994  0.1413 -0.5211
31383SOL    HW2  755   5.176   6.663   1.011  0.2250  0.1812  0.5119
31384SOL     OW  756   3.244   7.794   8.024 -0.1566 -0.0183 -0.2403
31384SOL    HW1  757   3.328   7.770   7.985 -0.5135  0.7380 -1.5258
31384SOL    HW2  758   3.188   7.718   8.009  0.6485 -1.1177  1.8926
31385SOL     OW  759   8.519   4.624   3.925 -0.0675 -0.0146 -0.1618
31385SOL    HW1  760   8.500   4.635   3.832  1.6770  1.6549 -0.3805
31385SOL    HW2  761   8.547   4.532   3.932  0.8568  0.1263 -1.5124
31386SOL     OW  762   2.334  12.683   0.618  0.0580 -0.0638 -0.0616
31386SOL    HW1  763   2.303  12.700   0.707 -0.8495 -1.5433 -0.0674
31386SOL    HW2  764   2.285  12.745   0.563 -0.3340 -0.0372  0.3170
31387SOL     OW  765   5.812  11.611  12.474  0.0862 -0.5484 -0.1135
31387SOL    HW1  766   5.729  11.570  12.499 -0.1730  0.0442  0.0148
31387SOL    HW2  767   5.802  11.703  12.499 -0.5926  0.3626 -3.2343
31388SOL     OW  768   7.467   5.310   3.160  0.2635  0.8166  0.5346
31388SOL    HW1  769   7.539   5.306   3.096  0.7535  0.3298  1.1062
31388SOL    HW2  770   7.389   5.327   3.107  0.6104  0.0659 -0.2380
31389SOL     OW  771   3.617   0.190   6.661 -0.0752  0.0532  0.1221
31389SOL    HW1  772   3.576   0.272   6.635  0.4085  1.0670  2.3600
31389SOL    HW2  773   3.648   0.152   6.579 -1.0083  1.6915 -1.0504
31390SOL     OW  774   4.029   8.034   1.583  0.1071 -0.1173 -0.0582
31390SOL    HW1  775   4.088   7.980   1.636  0.1960  1.0678  1.1230
31390SOL    HW2  776   3.970   7.972   1.541 -0.1262 -1.1170  1.6567
31391SOL     OW  777   0.610   0.972  10.064  0.1362 -0.2376  0.4041
31391SOL    HW1  778   0.518   0.988  10.084 -0.4548 -2.3402 -0.3868
31391SOL    HW2  779   0.641   0.914  10.134  0.4449 -0.6895 -0.0940
31392SOL     OW  780   4.614   5.802   1.734 -0.1263  0.2263 -0.4992
31392SOL    HW1  781   4.524   5.779   1.714 -0.0626  0.4476 -1.0680
31392SOL    HW2  782   4.652   5.827   1.650  0.4338  0.2433 -0.2500
31393SOL     OW  783   6.613  11.972   1.393  0.5969  0.3207 -0.0055
31393SOL    HW1  784   6.626  11.898   1.335  0.4575  0.4983 -0.2643
31393SOL    HW2  785   6.656  11.946   1.475 -3.6836 -2.2361  1.7716
31394SOL     OW  786  10.255   8.626   5.711  0.0541 -0.1729  0.0207
31394SOL    HW1  787  10.300   8.577   5.779  1.0461  1.6581  0.7744
31394SOL    HW2  788  10.310   8.618   5.633 -0.6018 -1.5016 -0.3302
31395SOL     OW  789   8.887   9.336   0.889 -0.0371 -0.0619 -0.1514
31395SOL    HW1  790   8.879   9.424   0.855  1.5041 -0.8551 -2.8587
31395SOL    HW2  791   8.852   9.279   0.820  1.6923 -1.6931  0.2185
31396SOL     OW  792   9.046   6.635   6.962  0.3165  0.4902 -0.1418
31396SOL    HW1  793   9.013   6.545   6.954 -0.2412  0.6977 -0.2814
31396SOL    HW2  794   9.118   6.629   7.025 -0.1149  0.0448  0.3246
31397SOL     OW  795  11.402  10.662   5.807 -0.1319  0.7429 -0.5336
31397SOL    HW1  796  11.364  10.704   5.730  1.8346  1.1099 -1.3634
31397SOL    HW2  797  11.455  10.590   5.772 -0.3671 -0.0104  0.6006
31398SOL     OW  798   1.015   1.537   3.673 -0.0631 -0.3898 -0.1729
31398SOL    HW1  799   0.978   1.542   3.761  0.0187  1.9907 -0.2136
31398SOL    HW2  800   0.942   1.558   3.615  0.6185  1.5243 -0.4162
31399SOL     OW  801  10.734   8.487  11.584  0.3507  0.3861  0.4005
31399SOL    HW1  802  10.791   8.450  11.517  0.2042  0.1107  0.4263
31399SOL    HW2  803  10.759   8.443  11.665 -1.9190 -2.0141 -0.0851
31400SOL     OW  804   9.741   7.570  11.853 -0.0456 -0.4548  0.4132
31400SOL    HW1  805   9.646   7.562  11.849  0.0396 -1.1657 -1.8786
31400SOL    HW2  806   9.765   7.616  11.773  1.6848 -2.5713 -0.4005
31401SOL     OW  807   0.618   4.048   3.960 -0.2360  0.1949 -0.3529
31401SOL    HW1  808   0.656   4.097   4.033 -1.0427 -0.5190  0.5668
31401SOL    HW2  809   0.620   4.110   3.887  2.1130  0.3888 -0.2133
31402SOL     OW  810  12.378   2.000   0.849  0.0785  0.4779  0.0439
31402SOL    HW1  811  12.307   2.027   0.791  0.3125  0.5219 -0.2267
31402SOL    HW2  812  12.457   2.006   0.795  0.2102 -0.1841  0.1444
31403SOL     OW  813   2.058   4.606   9.839 -0.2435  0.2179 -0.0377
31403SOL    HW1  814   1.991   4.572   9.898 -0.0722 -0.5375 -0.2671
31403SOL    HW2  815   2.123   4.645   9.897 -0.1101 -0.4577  0.2786
31404SOL     OW  816   5.038   1.441   2.711 -0.5283  0.2124  0.1587
31404SOL    HW1  817   5.122   1.476   2.681 -0.5615  0.6468  0.5606
31404SOL    HW2  818   4.977   1.514   2.702 -0.8690 -0.1049 -0.1428
31405SOL     OW  819   9.064   2.404   3.198  0.1260  0.1944 -0.2788
31405SOL    HW1  820   9.001   2.375   3.264 -1.3606 -1.8295 -2.4454
31405SOL    HW2  821   9.123   2.330   3.185 -0.8619 -0.2914 -2.5854
31406SOL     OW  822   9.162   9.665   5.250  0.1033 -0.5233 -0.1156
31406SOL    HW1  823   9.110   9.733   5.208 -0.6423 -1.9899 -1.6825
31406SOL    HW2  824   9.100   9.618   5.306  0.5049 -0.2293  0.5894
31407SOL     OW  825  12.647  11.178   3.984 -0.1216 -0.8242 -0.3221
31407SOL    HW1  826  12.564  11.194   4.029  0.0522  2.9594 -1.0375
31407SOL    HW2  827  12.622  11.138   3.900 -1.1590 -0.2854 -0.2788
31408SOL     OW  828   4.680   1.824   2.669  0.2323 -0.1328 -0.6235
31408SOL    HW1  829   4.589   1.816   2.642 -0.0100 -2.8894  0.7128
31408SOL    HW2  830   4.676   1.831   2.764  1.4035 -0.6343 -0.5218
31409SOL     OW  831   8.771   4.616   2.723 -0.0808 -0.5259 -0.3992
31409SOL    HW1  832   8.832   4.650   2.657 -0.1708 -0.0065 -0.2192
31409SOL    HW2  833   8.806   4.648   2.806 -1.0842  0.5453 -0.3587
31410SOL     OW  834   6.804  10.440   4.707 -0.1830 -0.4089  0.2037
31410SOL    HW1  835   6.745  10.368   4.729 -0.4228 -0.4522 -0.5394
31410SOL    HW2  836   6.781  10.463   4.617 -0.9808  1.4662  0.8418
31411SOL     OW  837   5.124   4.710   5.916  0.0699  0.7524 -0.0644
31411SOL    HW1  838   5.098   4.707   5.824 -0.6345 -0.4444  0.1454
31411SOL    HW2  839   5.161   4.623   5.933  2.6008  1.7826  0.1463
31412SOL     OW  840   4.848   2.098   7.164  0.6852 -0.1475  0.2669
31412SOL    HW1  841   4.780   2.134   7.222 -1.4227 -1.0095 -1.5224
31412SOL    HW2  842   4.839   2.003   7.173  1.7249 -0.2782  0.0298
31413SOL     OW  843   2.534   9.649   4.681  0.4775  0.3582 -0.0952
31413SOL    HW1  844   2.627   9.672   4.684  0.0829  2.0494  0.3979
31413SOL    HW2  845   2.506   9.651   4.772  0.4485 -2.5765  0.0485
31414SOL     OW  846   4.719   3.579  11.908  0.1921 -0.5920 -0.6509
31414SOL    HW1  847   4.696   3.491  11.878 -0.3831 -0.5865 -0.2316
31414SOL    HW2  848   4.636   3.619  11.934  0.4135  0.1755 -1.0884
31415SOL     OW  849   2.463   5.478   1.667  0.2094 -0.1275 -0.0719
31415SOL    HW1  850   2.383   5.454   1.621 -0.2843 -0.2443  0.8314
31415SOL    HW2  851   2.487   5.400   1.718  1.4336 -0.4298 -1.0554
31416SOL     OW  852   6.153  10.183   6.752  0.0274 -0.0517 -0.2614
31416SOL    HW1  853   6.151  10.163   6.846  2.0467 -1.2378 -0.3971
31416SOL    HW2  854   6.068  10.156   6.719 -0.3753 -0.4918  1.0841
31417SOL     OW  855   1.376   4.201   1.143 -0.2343  0.2334  0.1475
31417SOL    HW1  856   1.437   4.262   1.103  0.2199 -0.3166 -0.0044
31417SOL    HW2  857   1.305   4.192   1.079 -0.2099  0.4482  0.0892
31418SOL     OW  858   1.117   4.117   3.289 -0.6157  0.0450 -0.2023
31418SOL    HW1  859   1.119   4.204   3.249  0.6529  0.1450  0.0274
31418SOL    HW2  860   1.177   4.064   3.235 -3.3547 -1.4755 -1.9902
31419SOL     OW  861   2.981   7.442   1.745 -0.5045  0.8374  0.3160
31419SOL    HW1  862   2.898   7.399   1.727  0.4345 -0.6480 -0.6786
31419SOL    HW2  863   3.038   7.372   1.778  0.7243  1.5536 -0.2066
31420SOL     OW  864   1.285   0.168   0.283 -0.4351 -1.0644 -0.1400
31420SOL    HW1  865   1.352   0.208   0.229 -1.5770 -0.7759 -1.3944
31420SOL    HW2  866   1.269   0.082   0.243  0.2165 -1.7585  1.0344
31421SOL     OW  867   3.594   3.897   4.792  0.2879 -0.5775 -0.6006
31421SOL    HW1  868   3.576   3.828   4.727  1.3953 -0.4524 -1.0521
31421SOL    HW2  869   3.679   3.873   4.829  0.3103  0.1247 -0.1933
31422SOL     OW  870   8.555  11.151   0.505  0.0742  0.3585 -0.1677
31422SOL    HW1  871   8.635  11.193   0.473  0.0065  0.4352 -0.2377
31422SOL    HW2  872   8.578  11.117   0.591  0.4916 -0.5686 -0.6355
31423SOL     OW  873   2.873   9.795   2.623 -0.2255 -0.3921 -0.3703
31423SOL    HW1  874   2.860   9.803   2.529 -2.2856  2.0645  0.0199
31423SOL    HW2  875   2.968   9.792   2.634  0.1100  0.7993 -2.4395
31424SOL     OW  876   1.145   0.615   2.130  0.6128  0.6127 -0.3684
31424SOL    HW1  877   1.055   0.582   2.132 -0.7946  4.0562  1.7163
31424SOL    HW2  878   1.196   0.547   2.173 -1.4399 -0.3671  0.6666
31425SOL     OW  879  11.171   2.342  10.188  0.3359 -0.1549  0.0083
31425SOL    HW1  880  11.131   2.423  10.155  1.0155 -0.0803 -0.6676
31425SOL    HW2  881  11.132   2.273  10.136 -0.8431 -0.3646  1.1298
31426SOL     OW  882  12.455   5.919   4.500 -0.1730 -0.4691 -0.2819
31426SOL    HW1  883  12.550   5.913   4.490 -0.1047  0.3128 -0.1855
31426SOL    HW2  884  12.440   5.919   4.594 -0.2692 -0.6296 -0.2975
31427SOL     OW  885   2.479   1.196   3.303 -0.2696  0.2215  0.1316
31427SOL    HW1  886   2.404   1.249   3.275  0.4934  0.7755 -0.9158
31427SOL    HW2  887   2.510   1.240   3.382  0.5108  1.5333 -0.8667
31428SOL     OW  888  11.188   3.214  11.891 -0.3564 -0.0765  0.4557
31428SOL    HW1  889  11.105   3.242  11.852 -0.4422 -1.0066 -0.0701
31428SOL    HW2  890  11.253   3.273  11.854 -0.9578  1.7190  2.1187
31429SOL     OW  891   4.604  12.215   6.296  0.3282  0.3990  0.1379
31429SOL    HW1  892   4.565  12.249   6.216  0.8362 -0.9153 -0.7085
31429SOL    HW2  893   4.529  12.200   6.355 -0.0324  1.5100 -0.0171
31430SOL     OW  894   1.585   0.371   7.095 -0.0472 -0.1992  0.2566
31430SOL    HW1  895   1.508   0.319   7.117  0.0595  0.3883  2.1737
31430SOL    HW2  896   1.551   0.459   7.078  0.0398 -0.3267 -0.6714
31431SOL     OW  897   9.785   0.418   4.515  0.0791  0.2511 -0.4088
31431SOL    HW1  898   9.804   0.353   4.583  0.1690 -0.4839 -1.1194
31431SOL    HW2  899   9.695   0.398   4.488  0.0606  0.5133 -0.5476
31432SOL     OW  900  10.274   8.951  12.329  0.5925  0.3137  0.2442
31432SOL    HW1  901  10.334   8.992  12.391  0.5826  2.0952 -0.8527
31432SOL    HW2  902  10.191   8.997  12.343  0.1679 -0.3747  0.0051
31433SOL     OW  903   4.315  10.073  10.957  0.1211  0.1594 -0.0243
31433SOL    HW1  904   4.364   9.997  10.988 -1.8543 -1.2659 -0.2305
31433SOL    HW2  905   4.250  10.090  11.025  0.1692  1.3212 -0.2515
31434SOL     OW  906  12.323   7.339   5.371  0.0049  0.4210  0.5884
31434SOL    HW1  907  12.271   7.383   5.304 -0.8249  0.4371  1.2268
31434SOL    HW2  908  12.261   7.284   5.418  0.6743  0.0003  1.0114
31435SOL     OW  909  12.639   2.229   3.660  0.3837  0.4707  0.1412
31435SOL    HW1  910  12.656   2.210   3.568 -0.0896  1.0971 -0.0850
31435SOL    HW2  911  12.693   2.306   3.680  0.1819  0.5840  0.2669
31436SOL     OW  912   7.407   3.727  10.620 -0.8973 -0.0271  0.6476
31436SOL    HW1  913   7.383   3.818  10.608  1.6530  1.0693  2.8783
31436SOL    HW2  914   7.382   3.708  10.711  0.3360 -0.9136  0.8261
31437SOL     OW  915   0.650   0.958   8.650 -0.3077 -0.3248  0.6227
31437SOL    HW1  916   0.566   0.912   8.651 -1.9305  1.8574 -4.4494
31437SOL    HW2  917   0.706   0.906   8.593  1.3393 -0.8842  2.6401
31438SOL     OW  918   7.267   6.771   1.154  0.1060  0.0330 -0.1920
31438SOL    HW1  919   7.221   6.730   1.227 -0.1584 -0.6917 -0.7529
31438SOL    HW2  920   7.247   6.716   1.078 -2.7311  2.7447 -1.6430
31439SOL     OW  921  11.162   0.330  11.262  0.0511 -0.5872  0.1385
31439SOL    HW1  922  11.168   0.359  11.171  2.9427 -0.8146  0.1458
31439SOL    HW2  923  11.168   0.411  11.313 -1.6222 -0.4554  0.1543
31440SOL     OW  924   5.747   4.150   4.278 -0.0628 -0.3070  0.0663
31440SOL    HW1  925   5.723   4.227   4.227  1.0150 -1.0039 -1.5947
31440SOL    HW2  926   5.721   4.076   4.224 -0.1059 -1.1111  1.1496
31441SOL     OW  927   0.154   7.616  12.576  0.0012 -0.4985 -0.0330
31441SOL    HW1  928   0.203   7.579  12.503  0.6555 -1.0666  0.6748
31441SOL    HW2  929   0.127   7.541  12.628 -0.6573 -0.1172  0.1855
31442SOL     OW  930   8.998   6.759  10.515 -0.4067  0.4887  0.7153
31442SOL    HW1  931   9.009   6.840  10.466 -0.1481 -0.9687 -1.7995
31442SOL    HW2  932   8.953   6.699  10.454 -0.8363 -1.1804  2.5597
31443SOL     OW  933   3.037   8.877   9.385  0.7030 -0.2985 -0.1083
31443SOL    HW1  934   3.061   8.957   9.430  0.4472 -0.0653 -0.3805
31443SOL    HW2  935   2.979   8.831   9.446 -1.4106  1.0268 -1.0071
31444SOL     OW  936   9.034   6.092   9.652  0.1928  0.0099  0.9182
31444SOL    HW1  937   9.126   6.093   9.628 -0.0939 -1.7008 -0.4494
31444SOL    HW2  938   9.008   6.184   9.649  1.6966  0.4583  0.7560
31445SOL     OW  939   5.634   7.215   6.641 -0.0625 -0.1990  0.0657
31445SOL    HW1  940   5.600   7.276   6.706  0.5434 -1.3243  1.4989
31445SOL    HW2  941   5.656   7.269   6.566  1.6601  1.5598  1.7365
31446SOL     OW  942   2.793   6.730  11.493  0.3881 -0.3439 -0.0139
31446SOL    HW1  943   2.699   6.716  11.498 -0.1443  1.2936 -3.1200
31446SOL    HW2  944   2.816   6.709  11.403  3.0494 -0.7055  0.6526
31447SOL     OW  945   8.953   7.473   0.548 -0.3300  0.4952  0.4318
31447SOL    HW1  946   8.909   7.556   0.530  0.0719  0.4910 -0.7038
31447SOL    HW2  947   8.975   7.439   0.461 -0.7955 -0.9683  0.8634
31448SOL     OW  948   2.111   4.441  10.186  0.0446 -0.1277  0.5144
31448SOL    HW1  949   2.023   4.458  10.220 -0.5400  1.3887 -1.5802
31448SOL    HW2  950   2.099   4.377  10.117  0.0590  2.1676 -1.7589
31449SOL     OW  951  12.005   8.230   7.919  0.3656 -0.2606  0.1707
31449SOL    HW1  952  11.966   8.269   7.841  1.5249  0.0428 -0.2699
31449SOL    HW2  953  11.972   8.283   7.991 -0.8891 -0.6744 -0.0738
31450SOL     OW  954  11.217   7.249   3.753  0.2070 -0.4694 -0.1881
31450SOL    HW1  955  11.284   7.318   3.751  1.4258 -1.6180 -0.4633
31450SOL    HW2  956  11.224   7.207   3.667 -2.0124  0.3824 -0.8725
31451SOL     OW  957   3.848   1.154   6.045  0.0158 -0.0519 -0.0294
31451SOL    HW1  958   3.904   1.213   5.995  0.5306 -0.5028 -0.0006
31451SOL    HW2  959   3.866   1.068   6.008  0.2920 -0.3729  0.8202
31452SOL     OW  960   1.230   2.560   8.951 -0.0673  0.0977  0.3922
31452SOL    HW1  961   1.287   2.632   8.925  2.0033 -1.8105 -0.6082
31452SOL    HW2  962   1.222   2.505   8.873 -0.7214 -1.3349  1.4096
31453SOL     OW  963   3.084   4.793   0.544 -0.1724 -0.0451 -0.2267
31453SOL    HW1  964   2.994   4.794   0.576  0.4881 -0.2066  1.7863
31453SOL    HW2  965   3.085   4.725   0.477 -1.6150  0.1776 -0.4984
31454SOL     OW  966   6.899   1.165   0.606  0.5419 -0.3068 -0.5606
31454SOL    HW1  967   6.860   1.212   0.679  2.4987  0.1682  0.2532
31454SOL    HW2  968   6.825   1.125   0.560 -1.0647  2.2265 -0.3547
31455SOL     OW  969   6.649   1.508   7.054 -0.2866 -0.2274 -0.5756
31455SOL    HW1  970   6.667   1.471   6.967 -3.1520 -0.6991 -1.0756
31455SOL    HW2  971   6.603   1.438   7.101 -2.9719  1.5236 -0.4032
31456SOL     OW  972   3.766  12.340   8.181  0.3321  0.1198  0.5868
31456SOL    HW1  973   3.827  12.367   8.113 -0.9456  1.1015 -0.2125
31456SOL    HW2  974   3.724  12.261   8.146  1.1684 -0.6226  1.1848
31457SOL     OW  975   7.099   2.606   2.772  0.5299 -0.0125  0.1567
31457SOL    HW1  976   7.126   2.697   2.758 -0.5316  0.5991  1.8849
31457SOL    HW2  977   7.153   2.576   2.845 -0.6705 -0.0496  1.0426
31458SOL     OW  978   4.569   8.106  11.580 -0.3426  0.1820 -0.1280
31458SOL    HW1  979   4.551   8.013  11.567 -0.6701  0.3945 -1.3367
31458SOL    HW2  980   4.630   8.128  11.510 -2.3596  1.4498 -1.6146
31459SOL     OW  981   3.171  10.028  12.353  0.3170 -0.4243 -0.1570
31459SOL    HW1  982   3.227  10.096  12.316 -0.3066 -0.6953 -1.6469
31459SOL    HW2  983   3.211  10.009  12.438  0.4131  1.8890  0.3775
31460SOL     OW  984   1.337   6.216   4.068 -0.3858 -0.0889  0.1728
31460SOL    HW1  985   1.336   6.210   4.164  0.7472  2.2384  0.3939
31460SOL    HW2  986   1.289   6.296   4.048 -1.8804 -1.3058 -1.3419
31461SOL     OW  987   6.815   4.689  12.255  0.0794 -0.5832  0.1079
31461SOL    HW1  988   6.909   4.673  12.247  0.2968  1.0858 -1.0180
31461SOL    HW2  989   6.774   4.615  12.210  0.9563  0.2503 -2.1900
31462SOL     OW  990   5.756   3.786   0.244 -0.0206  0.2397 -0.5021
31462SOL    HW1  991   5.762   3.856   0.179  0.2556  0.5190 -0.1812
31462SOL    HW2  992   5.812   3.716   0.209  1.9412  1.2327  0.4732
31463SOL     OW  993  11.403  11.725   4.895 -0.4368 -0.9140 -0.3291
31463SOL    HW1  994  11.360  11.695   4.975 -0.3142  0.0895  0.1210
31463SOL    HW2  995  11.358  11.806   4.872  0.2710 -0.6059 -0.6538
31464SOL     OW  996   0.343   7.287  11.809  0.3446  0.0698 -0.7513
31464SOL    HW1  997   0.435   7.303  11.787  0.0477  0.3890 -1.8309
31464SOL    HW2  998   0.312   7.227  11.740 -0.7999  1.6335 -1.6661
31465SOL     OW  999   8.926  12.003   4.518 -0.9168 -0.2045 -0.2256
31465SOL    HW1 1000   8.900  11.914   4.538 -0.4508 -0.5241 -1.0008
31465SOL    HW2 1001   8.893  12.055   4.591 -0.8743 -1.0626  0.4130
31466SOL     OW 1002   1.071   0.421  12.640 -0.3353  0.5217 -0.3667
31466SOL    HW1 1003   1.042   0.468  12.718 -0.8291 -1.5429  0.7599
31466SOL    HW2 1004   1.100   0.490  12.580 -1.9369  2.3111  0.7907
31467SOL     OW 1005   3.228   2.151   4.298  0.2922  0.4005  0.5457
31467SOL    HW1 1006   3.187   2.116   4.219  1.2193  0.0314  0.2096
31467SOL    HW2 1007   3.319   2.122   4.292  0.1664 -0.5126  2.2469
31468SOL     OW 1008  10.898   1.348   3.217  0.3053  0.0984 -0.8071
31468SOL    HW1 1009  10.885   1.383   3.305 -1.6661 -2.1904 -0.0656
31468SOL    HW2 1010  10.840   1.400   3.161 -0.2385  0.0383 -0.3046
31469SOL     OW 1011   2.511  10.182  11.722  0.1056  0.1893  0.1263
31469SOL    HW1 1012   2.602  10.185  11.692 -0.2362 -0.8260 -1.1137
31469SOL    HW2 1013   2.482  10.093  11.701 -0.5919 -0.1816  2.3476
31470SOL     OW 1014   7.814  12.306  12.489  0.2335  0.1031 -0.0225
31470SOL    HW1 1015   7.762  12.357  12.551 -1.1551 -1.4265  0.1289
31470SOL    HW2 1016   7.814  12.217  12.525 -1.1308 -0.9871 -2.4788
31471SOL     OW 1017   0.274   6.857  11.480 -0.3952  0.3529  0.0014
31471SOL    HW1 1018   0.328   6.909  11.419  1.9826 -1.9396 -0.0212
31471SOL    HW2 1019   0.228   6.795  11.424 -0.7144  0.3229  0.2960
31472SOL     OW 1020   0.831  11.513   2.828 -0.0120  0.6274  0.1923
31472SOL    HW1 1021   0.891  11.458   2.779 -0.6595  0.3694 -0.3169
31472SOL    HW2 1022   0.763  11.538   2.765 -0.8387  0.3147  0.9395
31473SOL     OW 1023   1.790   6.367   5.770 -0.2432  0.1994  0.0758
31473SOL    HW1 1024   1.805   6.274   5.754 -0.0858  0.5730 -2.2694
31473SOL    HW2 1025   1.698   6.381   5.749 -0.1077  0.6877 -0.2088
31474SOL     OW 1026  10.711   7.783   9.139 -0.6693 -0.1909 -0.1820
31474SOL    HW1 1027  10.703   7.747   9.051  1.8889  0.2117 -0.6390
31474SOL    HW2 1028  10.774   7.727   9.183 -2.5913 -0.9448  1.7742
31475SOL     OW 1029  10.033   5.469  11.848 -0.6183  0.2459  0.2602
31475SOL    HW1 1030  10.008   5.498  11.936 -0.5369 -1.0023  0.7056
31475SOL    HW2 1031   9.966   5.405  11.824 -0.4108  0.2788 -0.4322
31476SOL     OW 1032   4.498  10.959   9.283 -0.7790 -0.2214 -0.3280
31476SOL    HW1 1033   4.471  11.050   9.292 -0.2279  0.0787 -1.6046
31476SOL    HW2 1034   4.576  10.951   9.337 -1.5619 -0.2872  0.8292
31477SOL     OW 1035  10.046   5.101   2.386 -0.5433 -0.5036  0.4655
31477SOL    HW1 1036  10.023   5.095   2.478  0.5302  2.4023  1.0345
31477SOL    HW2 1037   9.982   5.162   2.349  2.2665  2.9805  0.7542
31478SOL     OW 1038   1.985   3.378   5.097 -0.0208 -0.0515 -0.0301
31478SOL    HW1 1039   2.046   3.317   5.057 -1.3979 -1.0608 -0.6511
31478SOL    HW2 1040   1.902   3.331   5.100 -1.0717  1.6932 -0.2986
31479SOL     OW 1041   6.048   2.871   1.252  0.1517 -0.4248 -0.0525
31479SOL    HW1 1042   6.024   2.937   1.188 -0.9669  0.5907  1.3542
31479SOL    HW2 1043   6.125   2.828   1.215 -0.8799 -0.3958 -2.3975
31480SOL     OW 1044   4.173   3.222   1.065 -0.1141 -0.1287 -0.5204
31480SOL    HW1 1045   4.178   3.155   0.997  1.2536 -1.2434  0.6209
31480SOL    HW2 1046   4.254   3.272   1.056 -0.2737  0.1991 -0.1874
31481SOL     OW 1047   5.463  10.158  11.218  0.2463 -0.1552  0.8313
31481SOL    HW1 1048   5.438  10.250  11.205 -0.6264 -0.4632  0.3011
31481SOL    HW2 1049   5.525  10.140  11.148 -1.2711 -0.6009 -0.4337
31482SOL     OW 1050   8.152   8.607   7.627  0.1563  0.3928  0.4693
31482SOL    HW1 1051   8.153   8.692   7.582 -0.0150  0.2332  0.1568
31482SOL    HW2 1052   8.125   8.545   7.559  1.4950 -0.1022  0.3561
31483SOL     OW 1053   0.526   4.867   6.618 -0.5328  0.1475  0.0607
31483SOL    HW1 1054   0.539   4.850   6.525  1.1026 -0.1930  0.3066
31483SOL    HW2 1055   0.556   4.787   6.661 -0.6657  0.5397  0.8983
31484SOL     OW 1056   0.865   3.391   3.199 -0.2993 -0.0563 -0.7081
31484SOL    HW1 1057   0.841   3.440   3.120  1.6720 -0.0639 -1.3855
31484SOL    HW2 1058   0.828   3.304   3.186 -0.4974  0.1171 -1.3565
31485SOL     OW 1059   0.956  11.262   2.289  0.2336 -0.4940  0.0132
31485SOL    HW1 1060   0.999  11.180   2.265 -0.1047 -0.2495 -1.5253
31485SOL    HW2 1061   0.999  11.289   2.370  0.8859 -1.7894  0.1187
31486SOL     OW 1062   2.011  11.719   1.883 -0.8066  0.5638  0.2373
31486SOL    HW1 1063   1.950  11.655   1.920  0.4426 -0.8373 -0.0355
31486SOL    HW2 1064   1.962  11.761   1.813 -1.5247 -0.3928  0.1493
31487SOL     OW 1065   1.767   2.054  12.298 -1.1151  0.4177 -0.4385
31487SOL    HW1 1066   1.695   2.104  12.259 -2.4325 -1.1578 -0.1400
31487SOL    HW2 1067   1.763   2.075  12.391 -2.3610 -1.0008 -0.1416
31488SOL     OW 1068   8.429   5.988   0.691 -0.3498  0.1051 -0.5597
31488SOL    HW1 1069   8.346   5.957   0.655 -0.4543  0.1764 -0.3781
31488SOL    HW2 1070   8.405   6.044   0.764 -0.1194 -0.8001  0.2436
31489SOL     OW 1071   7.681  12.315   0.716 -0.4067  0.5865 -0.3480
31489SOL    HW1 1072   7.617  12.382   0.693  1.5944  1.8057 -2.7071
31489SOL    HW2 1073   7.662  12.242   0.656  0.9345  1.3204 -1.7078
31490SOL     OW 1074  11.721   3.026   5.231 -0.0697  0.4015 -0.2900
31490SOL    HW1 1075  11.802   3.075   5.241 -1.6266  3.1495 -0.1577
31490SOL    HW2 1076  11.656   3.075   5.282 -1.7917 -1.8404 -0.1492
31491SOL     OW 1077   4.466   2.643   5.077  0.0096  0.1196 -0.2169
31491SOL    HW1 1078   4.424   2.604   5.000  2.1142  0.0870 -1.4495
31491SOL    HW2 1079   4.408   2.622   5.150 -0.6773 -2.3593 -1.3579
31492SOL     OW 1080   5.764   5.406   7.751 -0.3225  0.0666 -0.2054
31492SOL    HW1 1081   5.763   5.483   7.694  1.3560 -0.1748 -0.6189
31492SOL    HW2 1082   5.789   5.439   7.837  0.1104  0.0373 -0.3167
31493SOL     OW 1083   5.218   8.030   5.013 -0.7624  0.1954  0.6998
31493SOL    HW1 1084   5.134   8.049   4.971 -0.9555  0.4515  1.1994
31493SOL    HW2 1085   5.196   8.011   5.104 -0.4909 -1.6834  0.4107
31494SOL     OW 1086   9.157   4.712   2.739  0.3366  0.6089 -0.5352
31494SOL    HW1 1087   9.182   4.670   2.657  0.1283 -0.2981 -0.1560
31494SOL    HW2 1088   9.185   4.650   2.807  1.3115  1.7507  0.1360
31495SOL     OW 1089   5.838  12.252   7.303  0.2533  0.0286 -0.5768
31495SOL    HW1 1090   5.880  12.175   7.341 -0.7402 -0.5334 -0.5903
31495SOL    HW2 1091   5.858  12.323   7.364  1.0637 -0.2587 -0.4993
31496SOL     OW 1092   2.163   9.700   7.959 -0.0106 -0.0717 -1.2929
31496SOL    HW1 1093   2.150   9.795   7.958  0.4577  0.1891  2.3819
31496SOL    HW2 1094   2.089   9.667   8.011  0.9808 -1.4118 -0.6644
31497SOL     OW 1095   1.306   9.748   8.666 -0.3476  0.2597 -0.1747
31497SOL    HW1 1096   1.391   9.771   8.704  0.5353 -0.1228 -1.8577
31497SOL    HW2 1097   1.244   9.765   8.737  0.9809  1.6784  0.7286
31498SOL     OW 1098   9.204   0.515   9.591 -0.9146 -0.1013  0.3125
31498SOL    HW1 1099   9.116   0.547   9.612 -1.1738 -0.2421 -0.5240
31498SOL    HW2 1100   9.238   0.483   9.675 -0.7633  2.0224  1.1539
31499SOL     OW 1101  10.073   7.016   7.561  0.4462 -0.2585  0.0635
31499SOL    HW1 1102  10.078   7.078   7.633  1.6731 -2.3462  1.9227
31499SOL    HW2 1103   9.994   6.965   7.579  1.5395 -1.7499  0.8354
31500SOL     OW 1104   5.580   2.542   6.274 -0.2543  0.2561 -0.5182
31500SOL    HW1 1105   5.673   2.534   6.252 -0.4028 -0.5346 -0.8603
31500SOL    HW2 1106   5.557   2.631   6.245 -0.2112 -0.4042 -2.7524
31501SOL     OW 1107   7.729  12.340   7.715 -0.3943  0.2815  0.1570
31501SOL    HW1 1108   7.720  12.284   7.792 -0.3802 -0.5519 -0.4412
31501SOL    HW2 1109   7.654  12.317   7.659 -0.3570  0.8163 -0.1236
31502SOL     OW 1110   4.848   9.129   4.933 -0.4882  0.4542  0.0128
31502SOL    HW1 1111   4.760   9.093   4.944 -0.3588 -0.2642 -1.1914
31502SOL    HW2 1112   4.882   9.134   5.023 -1.4036 -0.1561  0.4130
31503SOL     OW 1113   7.385   3.188   9.047 -0.3370  0.5372  0.9371
31503SOL    HW1 1114   7.364   3.195   8.954 -1.5084 -3.1257  0.7840
31503SOL    HW2 1115   7.306   3.217   9.092 -0.9454 -0.6044  0.6535
31504SOL     OW 1116   7.783   7.905   2.615  0.5135 -0.1264 -0.3708
31504SOL    HW1 1117   7.699   7.948   2.629  1.6395  1.9419  0.6603
31504SOL    HW2 1118   7.842   7.977   2.592  1.7764 -1.6732 -2.1820
31505SOL     OW 1119   2.708   2.975   0.755 -0.2211  0.1886  0.6669
31505SOL    HW1 1120   2.654   2.955   0.832 -0.5901 -0.3446  0.2769
31505SOL    HW2 1121   2.688   3.066   0.734  0.6712  0.6914  1.8220
31506SOL     OW 1122   0.339  11.752   8.994 -0.5444  0.2842 -0.4038
31506SOL    HW1 1123   0.361  11.791   8.909 -0.6680 -1.3675 -1.2296
31506SOL    HW2 1124   0.401  11.679   9.003 -1.0750 -0.0611  0.5508
31507SOL     OW 1125  10.665   3.319   0.574 -0.4149  0.2183 -0.1788
31507SOL    HW1 1126  10.707   3.242   0.613  2.0965  0.5130 -2.0608
31507SOL    HW2 1127  10.709   3.393   0.615  2.0823  0.5347 -3.0634
31508SOL     OW 1128  12.400   2.583  11.806 -0.3264 -0.3415  0.1625
31508SOL    HW1 1129  12.327   2.645  11.799  0.4097  0.5396  0.0402
31508SOL    HW2 1130  12.399   2.536  11.723 -0.3819  0.1041 -0.0959
31509SOL     OW 1131   7.677   6.672   4.123 -0.3996 -0.8363 -0.0926
31509SOL    HW1 1132   7.594   6.624   4.116 -0.1330 -1.2052 -0.8930
31509SOL    HW2 1133   7.709   6.677   4.033  0.8178 -1.3566  0.2930
31510SOL     OW 1134   8.099   9.083   1.777  0.2003  0.1884 -0.0512
31510SOL    HW1 1135   8.054   9.156   1.734  0.6178  0.6841  0.3381
31510SOL    HW2 1136   8.166   9.056   1.715 -0.1504 -0.0732 -0.3244
31511SOL     OW 1137   9.460   9.957   6.991  0.1735 -0.6855 -0.4766
31511SOL    HW1 1138   9.479  10.051   6.987  1.5045 -0.9472 -0.6747
31511SOL    HW2 1139   9.433   9.935   6.902 -1.5484 -0.2301 -0.0999
31512SOL     OW 1140   0.103   4.019   5.476 -0.1887 -0.2969 -0.4247
31512SOL    HW1 1141   0.031   4.074   5.507 -1.5000 -2.2543  0.1738
31512SOL    HW2 1142   0.091   4.013   5.381 -0.3121  0.0650 -0.4311
31513SOL     OW 1143   4.281  12.540   1.943  1.0869  0.1221 -0.0473
31513SOL    HW1 1144   4.374  12.525   1.962  1.0392 -0.3882 -0.2021
31513SOL    HW2 1145   4.262  12.625   1.982  1.7941  0.5482 -0.6057
31514SOL     OW 1146   4.427  11.163   5.280  0.5759  0.0922  0.2987
31514SOL    HW1 1147   4.521  11.150   5.265  0.8968  1.8728  0.4852
31514SOL    HW2 1148   4.405  11.236   5.222 -0.6702 -0.2008  0.3885
31515SOL     OW 1149   3.361   7.619   9.342 -0.0273  0.3102 -0.6389
31515SOL    HW1 1150   3.274   7.602   9.306 -0.0024  1.9329 -1.6050
31515SOL    HW2 1151   3.399   7.683   9.281  1.1901  0.8938  0.6816
31516SOL     OW 1152   9.975   3.265  11.814 -0.0288 -0.0886 -0.3267
31516SOL    HW1 1153   9.895   3.245  11.766 -0.0777  0.6879 -0.5727
31516SOL    HW2 1154   9.984   3.360  11.808  1.3187 -0.2271 -0.9610
31517SOL     OW 1155  11.349   2.111   1.024 -0.1515  0.3057  0.1171
31517SOL    HW1 1156  11.444   2.118   1.024  0.0668 -1.8654  0.3571
31517SOL    HW2 1157  11.322   2.139   1.112  0.2439  0.9558  0.0370
31518SOL     OW 1158   7.273   1.889  11.416  0.1978 -0.0912 -0.3138
31518SOL    HW1 1159   7.271   1.942  11.496 -1.7587 -0.2904 -0.1869
31518SOL    HW2 1160   7.220   1.812  11.436 -0.4952 -0.0570 -1.8655
31519SOL     OW 1161   7.672  10.548   1.249  0.0563  0.1426 -0.2382
31519SOL    HW1 1162   7.672  10.644   1.247  0.1846  0.1594 -2.4650
31519SOL    HW2 1163   7.582  10.524   1.230  0.4699 -0.1011 -2.1518
31520SOL     OW 1164   9.220  12.266   9.613 -0.1458  0.4002 -0.2230
31520SOL    HW1 1165   9.141  12.213   9.607  1.4032 -2.2194  0.7143
31520SOL    HW2 1166   9.209  12.318   9.692  0.0666 -1.9155  1.4398
31521SOL     OW 1167   7.503   8.912   5.018 -0.3552 -0.2508 -0.0596
31521SOL    HW1 1168   7.477   8.988   4.965  0.2639  0.2675  0.3758
31521SOL    HW2 1169   7.499   8.943   5.108 -0.6634 -0.9132  0.1573
31522SOL     OW 1170   0.279   1.389  11.677 -0.5180 -0.1381 -0.6623
31522SOL    HW1 1171   0.211   1.403  11.743  0.3287 -1.1056  0.4824
31522SOL    HW2 1172   0.343   1.332  11.721  0.8179  0.3964 -1.8292
31523SOL     OW 1173   3.703  11.888   2.558  0.3973 -0.2013  0.6898
31523SOL    HW1 1174   3.766  11.951   2.593  0.5280  0.2341 -0.3261
31523SOL    HW2 1175   3.620  11.935   2.558  0.1667 -0.5907  1.4969
31524SOL     OW 1176   5.520  11.444   1.789 -0.0714  0.1382  0.5958
31524SOL    HW1 1177   5.579  11.424   1.862 -2.0500 -1.5673  1.8624
31524SOL    HW2 1178   5.471  11.521   1.818 -3.0124 -2.2376  2.6933
31525SOL     OW 1179   1.114   8.658   0.615 -0.1467  0.1279  0.1690
31525SOL    HW1 1180   1.196   8.633   0.656  1.1550  1.3678 -1.5293
31525SOL    HW2 1181   1.100   8.592   0.546  0.2432  0.7498 -0.5214
31526SOL     OW 1182   4.160   8.030   3.844  0.2843  0.4947 -0.1246
31526SOL    HW1 1183   4.108   8.051   3.767  1.1068  2.3744 -0.2056
31526SOL    HW2 1184   4.237   8.086   3.838  0.7425  0.1366  1.6731
31527SOL     OW 1185   8.396   0.562  10.319 -0.0908  0.3530  0.4678
31527SOL    HW1 1186   8.326   0.503  10.291 -0.5463  1.4230 -0.7525
31527SOL    HW2 1187   8.461   0.505  10.360 -2.2253 -0.5370  2.8414
31528SOL     OW 1188  12.515   9.894  12.303 -0.8969 -0.1183  0.2700
31528SOL    HW1 1189  12.468   9.881  12.220 -0.5746 -1.6567  0.2969
31528SOL    HW2 1190  12.596   9.939  12.277 -0.2264 -1.6521 -0.4738
31529SOL     OW 1191  10.479   8.725   9.141  0.0201 -0.1891 -0.6263
31529SOL    HW1 1192  10.569   8.727   9.175  0.2203 -0.3582 -1.1315
31529SOL    HW2 1193  10.439   8.805   9.175  0.0715 -0.5737  0.3633
31530SOL     OW 1194   5.471   3.809   3.560  0.2836 -0.1662 -0.3349
31530SOL    HW1 1195   5.541   3.874   3.555 -0.0068  0.2965  1.0310
31530SOL    HW2 1196   5.418   3.825   3.482  1.0696  0.2389 -0.7906
31531SOL     OW 1197  11.507   0.034   2.768  0.2193 -0.1693  0.2417
31531SOL    HW1 1198  11.563   0.020   2.692 -0.6070 -0.0959 -0.3903
31531SOL    HW2 1199  11.419   0.013   2.738  0.0208 -1.3891  1.5285
31532SOL     OW 1200   6.889   7.831   8.108 -0.1005 -0.3175 -0.4079
31532SOL    HW1 1201   6.815   7.771   8.114 -0.7155  0.5029  0.6084
31532SOL    HW2 1202   6.887   7.863   8.018 -1.3279  0.0964 -0.2574
31533SOL     OW 1203   7.654   5.553   1.150  0.0215 -0.0866  0.2335
31533SOL    HW1 1204   7.579   5.582   1.098  0.4218 -0.0893 -0.3643
31533SOL    HW2 1205   7.715   5.517   1.085 -0.0559 -1.3843  0.8497
31534SOL     OW 1206   8.564   6.472   9.286  0.4544  0.3048 -0.1004
31534SOL    HW1 1207   8.573   6.535   9.215  0.4213 -0.5244 -0.8484
31534SOL    HW2 1208   8.471   6.477   9.310 -0.1449 -1.2775 -1.8953
31535SOL     OW 1209  10.972   5.241  12.705 -0.3231  0.2287  0.3799
31535SOL    HW1 1210  11.026   5.241  12.784 -0.1218  1.3284  0.2581
31535SOL    HW2 1211  11.034   5.253  12.633 -0.5843  0.0451  0.1214
31536SOL     OW 1212   5.797   8.606  10.985 -0.0136  0.0831 -0.0567
31536SOL    HW1 1213   5.738   8.598  10.910  0.4398 -1.1603 -0.3195
31536SOL    HW2 1214   5.748   8.655  11.050 -0.9986 -0.1672 -0.5916
31537SOL     OW 1215   4.191   6.706   7.249  0.5317 -0.2886 -0.1707
31537SOL    HW1 1216   4.267   6.651   7.228 -1.9587 -3.9205 -0.5248
31537SOL    HW2 1217   4.157   6.733   7.164  0.9853  0.8072 -0.0264
31538SOL     OW 1218   7.881   4.713   3.116  0.3947  0.0206 -0.4941
31538SOL    HW1 1219   7.904   4.653   3.045 -2.9637 -2.2630  0.1352
31538SOL    HW2 1220   7.912   4.669   3.195 -0.0118  0.2652 -0.1958
31539SOL     OW 1221  12.516   2.390   9.184  0.2567 -0.3193  0.3274
31539SOL    HW1 1222  12.570   2.359   9.111 -0.1145 -2.2102  0.7970
31539SOL    HW2 1223  12.450   2.445   9.144 -1.0160 -2.7197 -1.0598
31540SOL     OW 1224  10.471   5.434   9.397  0.2447 -0.0543  0.1311
31540SOL    HW1 1225  10.413   5.499   9.437  1.8839 -0.5613  3.6834
31540SOL    HW2 1226  10.525   5.484   9.336 -1.0505  1.1520 -0.0915
31541SOL     OW 1227   7.447   7.056   6.443  0.2820  0.5095  0.3555
31541SOL    HW1 1228   7.517   7.093   6.389  0.6715  0.8241  1.0625
31541SOL    HW2 1229   7.368   7.070   6.391  0.7618 -0.0424 -0.5464
31542SOL     OW 1230   8.409  10.572   2.637 -0.2376 -0.0531  0.2102
31542SOL    HW1 1231   8.455  10.618   2.566 -0.8707 -0.7920 -0.7013
31542SOL    HW2 1232   8.330  10.537   2.596 -1.4630  0.8723  1.6630
31543SOL     OW 1233   0.573   9.840   2.530  0.3631 -0.0931 -0.1125
31543SOL    HW1 1234   0.608   9.909   2.587 -1.2794  0.5477  0.1762
31543SOL    HW2 1235   0.526   9.888   2.462  0.0554 -0.9232 -0.4921
31544SOL     OW 1236  12.478   5.169   6.421 -0.4513 -0.4059 -0.3471
31544SOL    HW1 1237  12.549   5.105   6.425 -1.1816 -1.2272 -0.2542
31544SOL    HW2 1238  12.459   5.177   6.327  0.6607  0.8582 -0.5033
31545SOL     OW 1239  12.205   6.134   2.863 -0.3806 -0.7367  0.7148
31545SOL    HW1 1240  12.204   6.106   2.955  0.5597  0.0059  0.9642
31545SOL    HW2 1241  12.288   6.180   2.853 -0.4752 -0.8081 -0.5174
31546SOL     OW 1242  12.300   1.837   0.522  0.4016 -0.4107 -0.4345
31546SOL    HW1 1243  12.304   1.758   0.468  1.1460  0.3751 -1.5737
31546SOL    HW2 1244  12.224   1.823   0.579  0.2034 -1.7071 -0.9682
31547SOL     OW 1245   9.317   3.325  10.838 -0.0532 -0.0050 -0.3259
31547SOL    HW1 1246   9.256   3.350  10.907  1.6465  0.9465  0.9285
31547SOL    HW2 1247   9.362   3.248  10.873 -0.2269 -0.4556 -1.0635
31548SOL     OW 1248   5.144   5.740   8.449  0.2918  0.5429 -0.4683
31548SOL    HW1 1249   5.118   5.816   8.500  0.9418  1.5587 -1.6205
31548SOL    HW2 1250   5.229   5.714   8.486 -0.6530 -0.6585  0.9927
31549SOL     OW 1251   1.654   7.705   6.180  0.0686 -0.0841  0.3323
31549SOL    HW1 1252   1.649   7.799   6.192 -2.1402 -0.4973  4.0913
31549SOL    HW2 1253   1.571   7.682   6.138  0.1520 -0.4865  0.3824
31550SOL     OW 1254   7.241   0.076   4.189  0.8267 -0.0129  0.3094
31550SOL    HW1 1255   7.255   0.171   4.190  0.5836  0.0577 -1.0315
31550SOL    HW2 1256   7.328   0.039   4.206  1.1058  0.4512 -0.0798
31551SOL     OW 1257   6.671   8.845   5.204  0.2973  0.0963  0.2155
31551SOL    HW1 1258   6.615   8.768   5.211 -0.4279  0.6007  0.0611
31551SOL    HW2 1259   6.742   8.829   5.266 -0.2920 -0.3150  0.7899
31552SOL     OW 1260   4.235   8.925   6.063 -0.3095  0.6858  0.2051
31552SOL    HW1 1261   4.224   9.004   6.116 -1.2133  0.6149  0.1375
31552SOL    HW2 1262   4.161   8.926   6.001 -0.2458 -0.1202  0.0958
31553SOL     OW 1263   0.624   0.605   4.962  0.1966 -0.0230  0.6108
31553SOL    HW1 1264   0.609   0.539   4.895 -1.7451  2.2110 -1.3363
31553SOL    HW2 1265   0.719   0.620   4.959  0.1878 -0.0214 -1.6589
31554SOL     OW 1266  10.308   8.819   8.653 -0.1644  0.3590 -0.3287
31554SOL    HW1 1267  10.214   8.816   8.671 -0.5036  0.3168 -1.9125
31554SOL    HW2 1268  10.315   8.872   8.573  1.2655  1.2192  0.3329
31555SOL     OW 1269   9.578   4.619   0.377  0.5099  0.5510  0.1624
31555SOL    HW1 1270   9.637   4.684   0.414 -0.1177  0.7964  0.7346
31555SOL    HW2 1271   9.513   4.669   0.329 -0.0264  0.3630  0.6753
31556SOL     OW 1272   4.241  11.774  12.211  0.5323 -0.4446 -0.3192
31556SOL    HW1 1273   4.195  11.820  12.140 -0.2940  0.5666  0.8438
31556SOL    HW2 1274   4.285  11.701  12.167  1.1520  0.9208 -2.0986
31557SOL     OW 1275   0.984   3.907  11.499 -0.0955 -0.2042  0.4083
31557SOL    HW1 1276   0.905   3.933  11.451  0.2955 -0.8856 -0.6475
31557SOL    HW2 1277   0.988   3.966  11.574  0.2632  2.1739 -1.3714
31558SOL     OW 1278   3.964   2.681   6.659  0.6052 -0.4125  0.2005
31558SOL    HW1 1279   3.998   2.722   6.580 -0.1453  0.9479  0.5588
31558SOL    HW2 1280   3.947   2.754   6.719 -2.9348 -0.9515  0.0529
31559SOL     OW 1281   4.197   2.623  10.587 -0.5596 -0.5596  0.1112
31559SOL    HW1 1282   4.240   2.704  10.615 -0.1191 -0.1940 -1.5587
31559SOL    HW2 1283   4.256   2.554  10.617 -0.4202 -0.2240  0.6336
31560SOL     OW 1284   4.610   1.377   2.771  0.3675 -0.3698 -0.6384
31560SOL    HW1 1285   4.659   1.429   2.835  0.4373 -1.8813  0.5882
31560SOL    HW2 1286   4.677   1.324   2.727 -0.0184 -1.8336  0.4602
31561SOL     OW 1287   6.261   4.816   0.423 -0.0872 -0.4667  0.4952
31561SOL    HW1 1288   6.307   4.875   0.483 -0.3506 -0.1589  0.3991
31561SOL    HW2 1289   6.237   4.870   0.349  1.2417 -1.1088 -0.4364
31562SOL     OW 1290   1.481   9.182  10.245 -0.9856 -0.1846 -0.7819
31562SOL    HW1 1291   1.494   9.245  10.174  0.7244  0.3326 -0.0506
31562SOL    HW2 1292   1.419   9.225  10.304 -0.8876  0.2186 -0.9695
31563SOL     OW 1293   0.817  10.368   2.307 -0.4796  0.1115  0.3395
31563SOL    HW1 1294   0.904  10.383   2.344 -0.4842 -1.0242  0.8450
31563SOL    HW2 1295   0.825  10.284   2.261 -1.9752 -1.4306  2.6705
31564SOL     OW 1296   6.817   7.906  11.246  0.2808 -0.0701 -0.6730
31564SOL    HW1 1297   6.771   7.990  11.255 -0.5844 -0.7442  2.1576
31564SOL    HW2 1298   6.843   7.904  11.154 -1.3236  2.4356 -1.3142
31565SOL     OW 1299   7.256   2.149  11.067 -0.1115  0.0400 -0.4669
31565SOL    HW1 1300   7.315   2.099  11.123 -1.1557  0.5068  1.1214
31565SOL    HW2 1301   7.170   2.110  11.082 -0.2742 -0.5519 -2.6503
31566SOL     OW 1302   7.332  11.722   0.865  0.0273  0.4170  0.3634
31566SOL    HW1 1303   7.413  11.692   0.907  1.0757  1.9300 -0.4891
31566SOL    HW2 1304   7.355  11.733   0.773 -1.8022 -1.3140 -0.3786
31567SOL     OW 1305   7.749   5.206   3.299  0.0306  0.5890 -0.3093
31567SOL    HW1 1306   7.727   5.264   3.227 -2.0427  0.8548  0.4632
31567SOL    HW2 1307   7.702   5.125   3.281  0.4958  0.2134  0.1159
31568SOL     OW 1308   4.473   4.510   8.903  0.2050 -0.0247  0.0406
31568SOL    HW1 1309   4.463   4.541   8.993  0.3352  1.4418 -0.4220
31568SOL    HW2 1310   4.445   4.584   8.849  2.4777  0.0343 -1.1545
31569SOL     OW 1311  10.884   1.809   6.998 -0.1495 -0.1014  0.0477
31569SOL    HW1 1312  10.824   1.883   7.008  1.3435  1.3839 -1.3306
31569SOL    HW2 1313  10.948   1.820   7.069 -0.5669 -0.7571  0.5385
31570SOL     OW 1314  11.688   8.867   5.404 -0.2749 -0.2671  0.3701
31570SOL    HW1 1315  11.628   8.905   5.340  0.0698 -0.5678 -0.1403
31570SOL    HW2 1316  11.705   8.778   5.372  2.7487  0.7389 -1.1747
31571SOL     OW 1317   5.846   1.575   8.865  0.1325 -0.0672  0.6475
31571SOL    HW1 1318   5.814   1.546   8.779  2.3472 -1.1237  0.0820
31571SOL    HW2 1319   5.809   1.512   8.927  1.9060 -1.9808 -0.1254
31572SOL     OW 1320   7.430  11.341   0.955  0.4772 -0.1547  0.3030
31572SOL    HW1 1321   7.455  11.250   0.944  1.6415  0.0917  0.7891
31572SOL    HW2 1322   7.369  11.358   0.883  2.6959 -0.4163 -1.7626
31573SOL     OW 1323   6.116   7.037  11.133 -0.0852  0.1833 -0.2545
31573SOL    HW1 1324   6.071   7.068  11.055 -1.0464  1.2347  0.6793
31573SOL    HW2 1325   6.056   6.972  11.172 -0.2210  0.6330  0.2999
31574SOL     OW 1326   0.061  11.427   6.116 -0.3119 -0.4181  0.1928
31574SOL    HW1 1327  -0.007  11.469   6.063 -0.5204 -1.2958 -0.2586
31574SOL    HW2 1328   0.022  11.418   6.203 -0.6469 -0.5834  0.0279
31575SOL     OW 1329   1.518  12.014   9.345  0.0292 -0.5937 -0.2165
31575SOL    HW1 1330   1.512  12.092   9.289  2.3137 -0.4752 -0.3868
31575SOL    HW2 1331   1.503  12.047   9.434  0.8886  0.0552 -0.2992
31576SOL     OW 1332  11.551   4.351   2.762  0.0370 -0.5670  0.4341
31576SOL    HW1 1333  11.623   4.401   2.800  0.7262 -0.8558 -0.4489
31576SOL    HW2 1334  11.592   4.298   2.694 -1.1895  0.2287 -0.9985
31577SOL     OW 1335   9.992   4.540  10.150  0.1390 -0.3365  0.1165
31577SOL    HW1 1336  10.044   4.460  10.154  0.9171  0.1725  0.4689
31577SOL    HW2 1337   9.966   4.547  10.059  2.8312  0.7001 -0.6650
31578SOL     OW 1338   1.575   4.101   3.200 -0.3580 -0.6571  0.2384
31578SOL    HW1 1339   1.645   4.066   3.144  0.3112  0.8405  0.0847
31578SOL    HW2 1340   1.622   4.147   3.270 -0.9902  3.4504 -1.7282
31579SOL     OW 1341   6.376   0.490   8.488 -0.3422  0.0362 -0.0633
31579SOL    HW1 1342   6.405   0.452   8.571  2.3021  2.1718  0.1123
31579SOL    HW2 1343   6.306   0.551   8.512 -0.4643 -0.2902  0.4191
31580SOL     OW 1344  11.100  10.572   5.570 -0.3073 -0.3751  0.3879
31580SOL    HW1 1345  11.021  10.601   5.617  0.4934  1.0178  0.9228
31580SOL    HW2 1346  11.160  10.645   5.577  1.6209 -1.9597  1.2779
31581SOL     OW 1347   3.231   3.084   7.336  0.1340 -0.6087 -0.5869
31581SOL    HW1 1348   3.193   3.002   7.369 -0.5850 -0.1911 -0.3433
31581SOL    HW2 1349   3.208   3.085   7.243 -2.8348  0.8583  0.0337
31582SOL     OW 1350   3.384   3.958   0.809 -0.1771 -0.1989 -0.3219
31582SOL    HW1 1351   3.404   3.865   0.821  0.0075 -0.0081  1.0545
31582SOL    HW2 1352   3.352   3.987   0.894  1.0228  1.3039 -0.3232
31583SOL     OW 1353   4.813   4.418  10.810 -0.4809  0.3741  0.6424
31583SOL    HW1 1354   4.903   4.389  10.820  0.2234  1.3637 -1.9813
31583SOL    HW2 1355   4.806   4.495  10.867  1.4948  2.3830 -1.6145
31584SOL     OW 1356   2.869   5.860  10.921  0.1556 -0.3388 -0.3961
31584SOL    HW1 1357   2.833   5.940  10.882  1.9483  0.3888 -0.6648
31584SOL    HW2 1358   2.815   5.789  10.885 -0.0936  0.5743 -1.9071
31585SOL     OW 1359   5.038   0.920  12.554 -0.9691 -0.4849 -0.0675
31585SOL    HW1 1360   5.080   0.835  12.567 -1.7001 -0.8252  0.0871
31585SOL    HW2 1361   5.029   0.956  12.643  3.1800  1.6840 -0.2729
31586SOL     OW 1362  11.019   0.288   4.833 -0.3221 -0.1613 -0.6797
31586SOL    HW1 1363  11.096   0.330   4.796  0.7013 -3.0057 -2.0949
31586SOL    HW2 1364  11.046   0.197   4.848 -3.1332 -1.0510 -0.3419
31587SOL     OW 1365   1.984   3.020   8.687 -0.4920  0.1823 -0.0719
31587SOL    HW1 1366   1.995   3.098   8.632  1.4656 -0.2199 -0.3174
31587SOL    HW2 1367   1.924   3.048   8.756  1.6358  2.5594  0.9709
31588SOL     OW 1368   6.257   5.168   6.649 -0.2574 -0.1355 -0.0210
31588SOL    HW1 1369   6.205   5.088   6.650 -0.2839 -0.1158  0.5573
31588SOL    HW2 1370   6.283   5.179   6.557 -1.2051 -0.1828 -0.3059
31589SOL     OW 1371  12.467  10.558   6.530 -0.9987 -0.4167  0.2602
31589SOL    HW1 1372  12.397  10.609   6.490 -1.7045 -2.3011 -1.0983
31589SOL    HW2 1373  12.477  10.593   6.618 -2.8365  0.6627  0.0673
31590SOL     OW 1374   9.459   1.504   4.406 -0.2081 -0.1994  0.3249
31590SOL    HW1 1375   9.415   1.561   4.469 -0.2493 -1.8699  1.8911
31590SOL    HW2 1376   9.426   1.532   4.321 -0.0458  2.2307  0.9918
31591SOL     OW 1377   7.258   4.024  12.356 -0.2196 -0.6459 -0.3499
31591SOL    HW1 1378   7.236   4.035  12.449  0.4835  0.1320 -0.2683
31591SOL    HW2 1379   7.180   3.982  12.318 -0.2966 -1.4986  0.6989
31592SOL     OW 1380  10.668  12.763   1.967  0.2345  0.2993 -0.5136
31592SOL    HW1 1381  10.642  12.855   1.957  2.5228  1.0239 -0.5907
31592SOL    HW2 1382  10.644  12.722   1.884 -2.5744  0.2874  0.2248
31593SOL     OW 1383   2.678   0.823  11.150  0.3943  0.0497  0.0712
31593SOL    HW1 1384   2.700   0.902  11.199  2.1019 -0.5416  0.3042
31593SOL    HW2 1385   2.649   0.761  11.216  1.7674 -0.4302  0.2373
31594SOL     OW 1386   7.821  12.373   0.188  0.8308 -0.2400 -0.1112
31594SOL    HW1 1387   7.737  12.346   0.224  1.2997 -1.2265  0.3148
31594SOL    HW2 1388   7.881  12.369   0.263  0.9811  1.8727 -0.0812
31595SOL     OW 1389   7.971   9.529  11.845 -0.5093 -0.3191  0.1747
31595SOL    HW1 1390   7.937   9.581  11.919 -1.1310 -0.8713  0.2971
31595SOL    HW2 1391   8.044   9.480  11.882  1.3002  1.8176 -0.4001
31596SOL     OW 1392   0.810   8.273  11.856 -0.3239  0.0507 -0.5387
31596SOL    HW1 1393   0.720   8.243  11.842 -0.7027 -0.4862  2.3789
31596SOL    HW2 1394   0.804   8.368  11.857 -0.7144  0.0347 -1.1307
31597SOL     OW 1395   4.477   5.866   3.076  0.0323 -0.3862  0.1386
31597SOL    HW1 1396   4.490   5.834   2.987 -2.1801 -2.6351  0.5137
31597SOL    HW2 1397   4.454   5.788   3.126 -0.9107  1.1454  2.2161
31598SOL     OW 1398   1.219   8.551   9.295  0.4421 -0.4892  0.1652
31598SOL    HW1 1399   1.244   8.598   9.216 -1.4574  0.8541  0.2872
31598SOL    HW2 1400   1.141   8.597   9.326 -1.0763 -3.2403  0.7524
31599SOL     OW 1401  10.564   6.702   2.172 -0.2491  0.3422 -0.1272
31599SOL    HW1 1402  10.583   6.613   2.143 -3.3859 -0.0120 -1.5687
31599SOL    HW2 1403  10.638   6.754   2.141  1.7296 -1.7320  0.8725
31600SOL     OW 1404   2.063  12.167   6.154  0.1167  0.2258 -0.7090
31600SOL    HW1 1405   2.107  12.214   6.225  0.5429 -0.6222 -0.3923
31600SOL    HW2 1406   2.079  12.220   6.076  1.8569 -0.1436 -0.6331
31601SOL     OW 1407   0.105   2.264   9.112  0.3197  0.2156 -0.0540
31601SOL    HW1 1408   0.067   2.335   9.164  0.5915 -0.0065  0.4616
31601SOL    HW2 1409   0.189   2.299   9.082 -0.1953  0.6391 -1.0370
31602SOL     OW 1410   7.460   4.276   1.657  0.3750 -0.2526  0.2139
31602SOL    HW1 1411   7.556   4.271   1.659  0.4165 -0.0133 -0.7510
31602SOL    HW2 1412   7.432   4.185   1.661  0.5810 -0.2798  1.9609
31603SOL     OW 1413  10.250  11.953  11.310 -0.4706 -0.2194  0.2708
31603SOL    HW1 1414  10.298  11.880  11.348 -0.6430 -0.7322 -0.4971
31603SOL    HW2 1415  10.240  12.014  11.383  0.7573 -0.3902  0.6139
31604SOL     OW 1416   0.314   3.352   8.643 -0.7051 -0.4954  0.0260
31604SOL    HW1 1417   0.267   3.310   8.570  0.6020 -0.5933 -0.7921
31604SOL    HW2 1418   0.372   3.284   8.677 -1.4993 -0.5357  1.3781
31605SOL     OW 1419   0.232   5.464  10.370  0.2894  0.1427 -0.6187
31605SOL    HW1 1420   0.262   5.487  10.281  0.7441 -0.2752 -0.5741
31605SOL    HW2 1421   0.217   5.549  10.412  1.8541  0.4010 -0.4984
31606SOL     OW 1422   6.256  11.272   6.483  0.5110  0.0780  0.0589
31606SOL    HW1 1423   6.222  11.256   6.394 -0.9610 -2.1583  0.9398
31606SOL    HW2 1424   6.350  11.262   6.474  0.3594 -0.5489 -1.1926
31607SOL     OW 1425   2.102  11.167   4.660 -0.4373 -0.3034  0.1327
31607SOL    HW1 1426   2.094  11.081   4.700  2.1803 -0.7606 -0.1847
31607SOL    HW2 1427   2.092  11.229   4.732  2.4738 -1.0689  1.3058
31608SOL     OW 1428   8.371  11.086   0.874 -0.0559 -0.7664  0.5477
31608SOL    HW1 1429   8.453  11.084   0.923 -0.0940 -1.5659  0.6020
31608SOL    HW2 1430   8.378  11.163   0.818  0.4126 -0.4096  1.0880
31609SOL     OW 1431   5.693   4.764   2.649 -0.1789  0.1879  0.6076
31609SOL    HW1 1432   5.721   4.723   2.731 -0.1954  1.1118  1.0834
31609SOL    HW2 1433   5.636   4.836   2.676 -0.5149  0.2497 -0.2346
31610SOL     OW 1434   3.226  10.669  12.159  0.4103  0.2861 -0.1123
31610SOL    HW1 1435   3.226  10.601  12.091  0.5861 -1.5889  1.6432
31610SOL    HW2 1436   3.134  10.684  12.179  0.3917 -1.0411  0.9378
31611SOL     OW 1437   1.879   7.525  11.553 -0.0743  0.3353 -0.3268
31611SOL    HW1 1438   1.962   7.555  11.518 -0.8178 -0.1638 -2.6421
31611SOL    HW2 1439   1.852   7.454  11.496 -2.1555  0.5533  0.2779
31612SOL     OW 1440   5.813   7.315   5.996 -0.1256  0.2172  0.6409
31612SOL    HW1 1441   5.748   7.273   6.053 -0.5296  0.4208  0.3436
31612SOL    HW2 1442   5.831   7.250   5.928  0.4455 -0.0707  1.0622
31613SOL     OW 1443  11.540   0.924  11.482  0.3473 -0.0044  0.3992
31613SOL    HW1 1444  11.625   0.883  11.499  0.5771 -0.7797 -2.2252
31613SOL    HW2 1445  11.556   1.018  11.493  0.8443 -0.2734  2.4204
31614SOL     OW 1446  10.325  10.872   4.509  0.7600 -0.5269 -0.1678
31614SOL    HW1 1447  10.243  10.908   4.474 -0.1991 -0.7766  1.7016
31614SOL    HW2 1448  10.319  10.778   4.492 -1.1412 -1.1513  3.1301
31615SOL     OW 1449   9.289  11.325   6.802  0.1534 -0.5171  0.2277
31615SOL    HW1 1450   9.218  11.268   6.830  0.1689 -0.6847 -0.0679
31615SOL    HW2 1451   9.357  11.314   6.868  0.4185 -1.3460 -0.1724
31616SOL     OW 1452   4.131   2.520   0.154  0.9014  0.0095  0.1496
31616SOL    HW1 1453   4.057   2.466   0.182  1.4174 -0.6451  0.2673
31616SOL    HW2 1454   4.162   2.479   0.074  0.9476  0.4646 -0.0682
31617SOL     OW 1455   9.552   6.428  12.092  0.0863  0.0259 -0.1700
31617SOL    HW1 1456   9.509   6.507  12.059  0.1288 -0.0936 -0.5103
31617SOL    HW2 1457   9.484   6.361  12.087 -0.0880  0.1414  0.5481
31618SOL     OW 1458   2.685  10.520   0.780  0.0193  1.0314 -0.4804
31618SOL    HW1 1459   2.763  10.487   0.735 -0.9956 -1.2055 -0.7298
31618SOL    HW2 1460   2.720  10.577   0.848  1.7742  1.4561 -1.6506
31619SOL     OW 1461  12.659  12.519   4.087  0.0805 -0.1533 -0.4591
31619SOL    HW1 1462  12.684  12.444   4.141  0.3335  0.5114  0.3796
31619SOL    HW2 1463  12.614  12.578   4.148 -2.7461 -0.8546 -1.6839
31620SOL     OW 1464   4.858  11.700  11.564 -0.7590 -0.5974 -0.1803
31620SOL    HW1 1465   4.896  11.672  11.480  1.6714  2.3884 -0.2330
31620SOL    HW2 1466   4.921  11.670  11.629 -0.7870  0.2129  0.2269
31621SOL     OW 1467   4.997   9.124   2.705 -0.3790 -0.4076  0.4849
31621SOL    HW1 1468   4.946   9.188   2.754  0.9996  0.3295  0.9910
31621SOL    HW2 1469   5.080   9.117   2.752  0.1767 -1.2522 -0.5633
31622SOL     OW 1470   1.163  12.222   1.997  0.5337  0.0757  0.0137
31622SOL    HW1 1471   1.093  12.285   1.983 -0.0850 -0.7928 -1.0243
31622SOL    HW2 1472   1.222  12.236   1.922  1.3290  0.5979  0.7198
31623SOL     OW 1473   0.390   4.270   4.358  0.1533 -0.1697  0.0090
31623SOL    HW1 1474   0.344   4.331   4.416 -1.2133 -0.2265 -0.9534
31623SOL    HW2 1475   0.451   4.325   4.310 -1.4729  0.6116 -1.2691
31624SOL     OW 1476   1.659   7.365   6.235 -0.7138  0.3196  0.1303
31624SOL    HW1 1477   1.641   7.429   6.166 -0.8065  0.5223  0.3419
31624SOL    HW2 1478   1.701   7.292   6.190  0.1546  0.8801  0.0091
31625SOL     OW 1479   3.209  10.645   1.885  0.7838  0.1198  0.1917
31625SOL    HW1 1480   3.128  10.693   1.867  0.1044 -1.1328 -0.1947
31625SOL    HW2 1481   3.277  10.712   1.886  0.2320  0.8715 -2.6734
31626SOL     OW 1482  10.763   9.165   5.410 -0.4191  0.5702 -0.2680
31626SOL    HW1 1483  10.812   9.103   5.356  2.2556  2.3706 -0.1019
31626SOL    HW2 1484  10.769   9.131   5.499 -0.5289  0.1717 -0.4123
31627SOL     OW 1485   7.804   3.145   0.183  0.2991  0.1008  0.6722
31627SOL    HW1 1486   7.754   3.110   0.110  0.0128  1.0448  0.4034
31627SOL    HW2 1487   7.895   3.135   0.157  0.1988  0.4317  0.1803
31628SOL     OW 1488  10.701   6.699   2.462 -0.0529 -0.0023 -0.3755
31628SOL    HW1 1489  10.771   6.641   2.493 -1.2097  0.0693  2.6485
31628SOL    HW2 1490  10.656   6.647   2.394  1.3012 -1.0644 -0.5057
31629SOL     OW 1491   8.386  10.881  12.318  0.3870 -1.0712 -0.8902
31629SOL    HW1 1492   8.345  10.966  12.335 -0.4238 -1.6653  0.2683
31629SOL    HW2 1493   8.473  10.902  12.284  0.3325  0.2218 -0.2682
31630SOL     OW 1494   2.596   2.426   7.643  0.3525  0.4095 -0.0145
31630SOL    HW1 1495   2.647   2.504   7.664  0.7729 -0.2982  1.7715
31630SOL    HW2 1496   2.505   2.456   7.643  0.5838  1.1238 -0.4930
31631SOL     OW 1497   4.402  12.439   6.783 -0.0574  0.2238 -0.0426
31631SOL    HW1 1498   4.309  12.419   6.768  0.3069 -2.0092  0.4127
31631SOL    HW2 1499   4.436  12.362   6.828  1.9916  1.1010 -0.0099
31632SOL     OW 1500   5.502  11.547  11.498  0.6548  0.2783 -0.7129
31632SOL    HW1 1501   5.462  11.618  11.549  0.0072  0.8223 -1.9303
31632SOL    HW2 1502   5.517  11.586  11.411 -1.6619 -1.6459 -2.1047
31633SOL     OW 1503  10.439  12.475   7.888  0.5763 -0.5304  0.6003
31633SOL    HW1 1504  10.439  12.514   7.801  1.1741 -1.2700  0.2667
31633SOL    HW2 1505  10.468  12.385   7.875 -1.0535 -1.2117  1.3226
31634SOL     OW 1506   2.661   9.411   4.826  0.5546 -0.8253  0.0517
31634SOL    HW1 1507   2.588   9.454   4.872  2.5144  1.0491  1.5899
31634SOL    HW2 1508   2.650   9.436   4.734 -0.2844  0.0947  0.3893
31635SOL     OW 1509   2.303   5.339   2.438 -0.1139  0.3133  0.5415
31635SOL    HW1 1510   2.277   5.387   2.359  0.4781  0.4148  0.4080
31635SOL    HW2 1511   2.362   5.270   2.406  0.1865  0.4021  0.9028
31636SOL     OW 1512   6.389   5.662   2.587  0.3903  0.0847 -0.5297
31636SOL    HW1 1513   6.334   5.691   2.514  1.5872  0.2663 -1.3891
31636SOL    HW2 1514   6.475   5.647   2.547  0.5781 -1.7245  0.4780
31637SOL     OW 1515   3.183   6.828   2.980  0.0059 -0.5978 -0.3497
31637SOL    HW1 1516   3.166   6.741   3.014 -0.9670 -0.3262 -0.1177
31637SOL    HW2 1517   3.098   6.872   2.981  0.4209  0.2472 -0.7610
31638SOL     OW 1518   0.381   1.139   4.069  0.4169  0.0871 -0.1982
31638SOL    HW1 1519   0.380   1.217   4.125  0.8227  0.4322 -0.6562
31638SOL    HW2 1520   0.351   1.171   3.984  0.4134 -0.2941 -0.3397
31639SOL     OW 1521   5.909   9.053  11.151 -0.1796 -0.0677  0.0071
31639SOL    HW1 1522   5.915   9.029  11.243 -0.7358  0.8722  0.2988
31639SOL    HW2 1523   6.001   9.059  11.122 -0.0070 -1.0490  0.2948
31640SOL     OW 1524   2.924   8.838   9.876  0.1467 -0.3847  0.5705
31640SOL    HW1 1525   3.011   8.809   9.901 -0.0679  0.9296  3.1646
31640SOL    HW2 1526   2.867   8.809   9.947 -1.4338 -0.5538 -0.6953
31641SOL     OW 1527   8.993   6.501   0.117  0.5027  0.4186 -0.0862
31641SOL    HW1 1528   9.073   6.480   0.070  0.1168  0.8763 -0.9585
31641SOL    HW2 1529   8.983   6.595   0.108 -0.8872  0.1917 -1.2214
31642SOL     OW 1530   5.868   2.278   5.068  0.0876 -0.4276 -1.1094
31642SOL    HW1 1531   5.860   2.373   5.061 -1.9666 -0.6101 -1.8636
31642SOL    HW2 1532   5.917   2.252   4.990  0.0260 -0.0367 -1.2815
31643SOL     OW 1533   8.374   7.157   4.467  0.0435 -0.0126 -0.6493
31643SOL    HW1 1534   8.418   7.239   4.489  0.1211  0.0904 -1.1768
31643SOL    HW2 1535   8.291   7.185   4.426  0.3601 -0.1846 -1.4228
31644SOL     OW 1536   8.452  10.043  10.575  0.2447  0.3726  0.2938
31644SOL    HW1 1537   8.375  10.073  10.624 -0.6052 -0.3997 -0.5394
31644SOL    HW2 1538   8.475  10.116  10.518  0.6388  0.9086  1.1180
31645SOL     OW 1539   9.772  10.311   1.912 -0.3982  0.0412  0.3718
31645SOL    HW1 1540   9.778  10.240   1.848  0.7349  0.6920 -0.2788
31645SOL    HW2 1541   9.765  10.391   1.859 -1.4946  0.4420  1.0936
31646SOL     OW 1542   1.699   4.923   8.454  0.2407 -0.3744 -0.4270
31646SOL    HW1 1543   1.670   4.832   8.461 -0.6456 -0.1407 -0.9334
31646SOL    HW2 1544   1.678   4.962   8.539 -0.4264 -0.3509 -0.6026
31647SOL     OW 1545   3.339   0.660   8.220 -0.0382 -0.4376 -0.0609
31647SOL    HW1 1546   3.290   0.593   8.173  0.8787  0.0430 -1.8324
31647SOL    HW2 1547   3.423   0.665   8.173 -0.1761  2.0813 -0.1750
31648SOL     OW 1548   0.538  12.568  12.368  0.3062 -0.5728 -0.3936
31648SOL    HW1 1549   0.568  12.612  12.448  2.4707 -0.8534 -0.9804
31648SOL    HW2 1550   0.455  12.528  12.392  0.0041  0.8875  1.1707
31649SOL     OW 1551   3.694   9.081   0.748 -0.4133  0.7895  0.2053
31649SOL    HW1 1552   3.637   9.023   0.799 -2.1627  0.3823 -2.0507
31649SOL    HW2 1553   3.771   9.029   0.729 -0.6418  0.2553  0.7317
31650SOL     OW 1554   0.989   2.364  11.781 -0.7610  0.0422  0.3809
31650SOL    HW1 1555   0.906   2.375  11.826 -1.0176  1.4264 -0.3918
31650SOL    HW2 1556   1.054   2.401  11.841 -0.9510  0.7659  0.1446
31651SOL     OW 1557   0.522   5.751  11.057  0.8754  0.0603  0.3086
31651SOL    HW1 1558   0.433   5.718  11.068  0.8041  0.4215  0.8268
31651SOL    HW2 1559   0.522   5.837  11.100  0.6185  1.4654 -2.2704
31652SOL     OW 1560   1.524   3.358   3.029 -0.2259 -0.1466  0.1053
31652SOL    HW1 1561   1.565   3.271   3.030 -1.9752 -1.0183  0.5498
31652SOL    HW2 1562   1.469   3.358   2.951  2.0569  1.7816 -1.6607
31653SOL     OW 1563   9.047  10.821   5.260  0.3651 -0.5719 -0.0982
31653SOL    HW1 1564   8.970  10.763   5.257 -0.8936  1.0639 -0.7903
31653SOL    HW2 1565   9.054  10.847   5.352 -2.3130  2.2142 -0.5126
31654SOL     OW 1566   3.611  10.338   3.624  0.3029  0.3278 -0.9865
31654SOL    HW1 1567   3.620  10.420   3.576 -0.0708 -0.4867 -2.4908
31654SOL    HW2 1568   3.535  10.295   3.585 -0.5872  0.0187  0.9426
31655SOL     OW 1569   1.158  11.771   8.684 -0.0879  0.6687  0.1545
31655SOL    HW1 1570   1.095  11.839   8.712  0.5742  0.0002  3.7341
31655SOL    HW2 1571   1.141  11.697   8.743  2.3317 -0.4916 -0.4868
31656SOL     OW 1572   9.173  11.054   3.829  0.3085 -0.4466 -0.0127
31656SOL    HW1 1573   9.203  11.073   3.740  0.0248  1.3629  0.2424
31656SOL    HW2 1574   9.151  11.140   3.866 -0.7026 -1.2697  1.4051
31657SOL     OW 1575   8.120   3.855   1.218 -0.1623 -0.1188 -0.2508
31657SOL    HW1 1576   8.058   3.823   1.152 -0.1241 -0.0177 -0.3354
31657SOL    HW2 1577   8.071   3.852   1.300 -0.1752 -0.3425 -0.2682
31658SOL     OW 1578   4.739  12.110   4.788 -0.2530  0.3622  0.1109
31658SOL    HW1 1579   4.801  12.039   4.772 -0.5952  0.2052 -0.5327
31658SOL    HW2 1580   4.725  12.107   4.883 -0.3098 -0.4769  0.0863
31659SOL     OW 1581   7.052   9.275  11.609 -0.0765 -0.7638 -0.3706
31659SOL    HW1 1582   7.017   9.334  11.676  1.8480  1.2421 -1.0563
31659SOL    HW2 1583   7.131   9.238  11.649 -0.0735 -1.2036 -0.7780
31660SOL     OW 1584  12.708  11.054   4.742 -0.2234  0.3057  0.2043
31660SOL    HW1 1585  12.759  11.132   4.721 -1.4056  0.8412 -0.8229
31660SOL    HW2 1586  12.749  10.984   4.690 -1.3627  1.0392 -1.8087
31661SOL     OW 1587   9.928   2.506   8.261 -0.0039 -0.7436  0.2607
31661SOL    HW1 1588   9.962   2.558   8.188  0.5449 -0.8964  0.4032
31661SOL    HW2 1589  10.006   2.476   8.308 -0.2719 -2.2762 -0.2117
31662SOL     OW 1590  12.734  10.115   8.477  0.3241  0.6730 -0.1070
31662SOL    HW1 1591  12.640  10.102   8.464 -0.0904  2.6071  0.6739
31662SOL    HW2 1592  12.770  10.116   8.388 -0.4266  0.2581 -0.4281
31663SOL     OW 1593  11.430   1.655   1.656  0.0727  0.2151 -0.3833
31663SOL    HW1 1594  11.396   1.702   1.580 -0.2885 -1.9325 -1.6200
31663SOL    HW2 1595  11.371   1.580   1.666  0.7176 -0.1015  1.4113
31664SOL     OW 1596   6.970   1.569   4.346 -0.1438 -0.0589 -0.0090
31664SOL    HW1 1597   6.957   1.664   4.356 -1.4614 -0.3339  1.2687
31664SOL    HW2 1598   7.024   1.545   4.422  1.6019 -0.1241 -1.2034
31665SOL     OW 1599   5.571   9.816   2.184  0.5261  0.3233  0.1880
31665SOL    HW1 1600   5.633   9.817   2.111  0.4187  0.0826  0.0896
31665SOL    HW2 1601   5.591   9.894   2.235 -0.0850  1.0661 -0.6794
31666SOL     OW 1602   9.269   2.988   2.351 -0.3255  0.3227 -0.4124
31666SOL    HW1 1603   9.305   3.075   2.369  0.8716 -0.3478  0.6301
31666SOL    HW2 1604   9.271   2.980   2.256  2.0999  0.4485 -0.4430
31667SOL     OW 1605   3.172   0.942   9.328  0.1616  0.0522 -0.0295
31667SOL    HW1 1606   3.121   0.894   9.393  0.3494  0.6491  0.5732
31667SOL    HW2 1607   3.159   1.034   9.352  1.6799  0.2122  0.2702
31668SOL     OW 1608   3.009   3.052   3.923 -0.0885  0.1617  0.1023
31668SOL    HW1 1609   2.974   3.061   4.012 -1.4183 -0.2629 -0.3434
31668SOL    HW2 1610   2.946   3.099   3.868  1.7186  2.0713 -0.4545
31669SOL     OW 1611  11.642  11.250   4.912 -0.6976 -0.1670 -0.3761
31669SOL    HW1 1612  11.577  11.309   4.950 -0.6043  0.8617 -1.7302
31669SOL    HW2 1613  11.590  11.184   4.866 -0.7846 -0.4042  0.0509
31670SOL     OW 1614   0.191   8.779   4.681  0.4389 -0.5572  0.1000
31670SOL    HW1 1615   0.139   8.825   4.614  0.3447  0.0235  0.5591
31670SOL    HW2 1616   0.149   8.694   4.690 -1.2579  0.3404  1.3562
31671SOL     OW 1617   4.775   0.633   2.967 -0.2847 -0.2112 -0.3286
31671SOL    HW1 1618   4.845   0.583   2.923  0.8565  1.2729 -0.2692
31671SOL    HW2 1619   4.813   0.719   2.983 -1.5952  0.1239  1.2121
31672SOL     OW 1620   8.234  11.401  12.548  0.7358  0.2344  0.0419
31672SOL    HW1 1621   8.248  11.477  12.492 -0.5904  0.1344 -0.4597
31672SOL    HW2 1622   8.285  11.420  12.628  1.7698  0.8640 -0.7375
31673SOL     OW 1623  11.152  11.567   6.792 -0.3170  0.8264  0.5415
31673SOL    HW1 1624  11.057  11.558   6.803 -0.4565  1.0751 -0.3783
31673SOL    HW2 1625  11.184  11.588   6.879 -0.7303 -2.2193  1.5436
31674SOL     OW 1626   2.556   3.740   7.881 -0.6275  0.0373  0.0395
31674SOL    HW1 1627   2.572   3.667   7.821  0.3401  0.7634 -0.6222
31674SOL    HW2 1628   2.599   3.815   7.839  0.8606  0.3760  2.0468
31675SOL     OW 1629   9.626   2.554   3.896 -0.4368  0.3907  0.5165
31675SOL    HW1 1630   9.571   2.620   3.940  0.2074 -0.3979  2.6073
31675SOL    HW2 1631   9.697   2.537   3.957  1.1629  0.0243 -1.3513
31676SOL     OW 1632  11.791  12.660  11.168 -0.4202  0.4461 -0.2336
31676SOL    HW1 1633  11.830  12.681  11.253 -0.4683  1.9510 -0.5556
31676SOL    HW2 1634  11.697  12.666  11.182 -0.4953 -0.9233 -0.0179
31677SOL     OW 1635   3.692   6.890   4.002 -0.4628 -0.5352  0.5596
31677SOL    HW1 1636   3.682   6.834   3.925  0.1163  2.0370 -1.5363
31677SOL    HW2 1637   3.615   6.871   4.056 -1.9870 -0.9796 -1.6612
31678SOL     OW 1638   8.703  11.647   7.225  0.0305 -0.1339 -0.4520
31678SOL    HW1 1639   8.646  11.664   7.300  0.2208  1.0293 -0.5602
31678SOL    HW2 1640   8.770  11.588   7.259  0.1134  0.3798  0.3094
31679SOL     OW 1641   3.693   0.651   8.417  0.6868 -0.0786 -0.2618
31679SOL    HW1 1642   3.721   0.739   8.443 -0.1830  0.0703  0.2216
31679SOL    HW2 1643   3.753   0.627   8.346  2.0059  0.2222  0.7112
31680SOL     OW 1644   3.380   8.402   1.256  0.4741  0.8345  0.2156
31680SOL    HW1 1645   3.410   8.387   1.166  1.2339  2.5440  0.1473
31680SOL    HW2 1646   3.461   8.406   1.307  0.1713  1.9835  0.6172
31681SOL     OW 1647   7.895  10.851  11.176 -0.3807  0.4609  0.0310
31681SOL    HW1 1648   7.842  10.931  11.177 -1.3777 -0.1767 -0.0265
31681SOL    HW2 1649   7.834  10.782  11.147  0.9484 -0.0020 -1.8231
31682SOL     OW 1650   2.958  11.944   1.704  0.4189 -0.4074  0.2460
31682SOL    HW1 1651   2.946  11.924   1.611 -1.0485  0.3914  0.2342
31682SOL    HW2 1652   2.890  12.008   1.724  0.5868 -0.7027  1.9259
31683SOL     OW 1653   3.903   3.335   8.281  0.3370 -0.4636 -0.4480
31683SOL    HW1 1654   3.862   3.334   8.368 -0.3954  0.5941 -0.7710
31683SOL    HW2 1655   3.863   3.261   8.236 -0.2581 -0.2210 -0.3241
31684SOL     OW 1656   8.935  11.873   4.276 -0.3739 -0.1310 -0.3207
31684SOL    HW1 1657   8.893  11.922   4.206 -0.4072 -0.7087 -0.7124
31684SOL    HW2 1658   8.961  11.940   4.340  0.4820  0.4975 -1.2995
31685SOL     OW 1659   6.670   1.091  11.152 -0.1019 -0.1381  0.7781
31685SOL    HW1 1660   6.749   1.132  11.116 -0.0312 -0.8351  0.1103
31685SOL    HW2 1661   6.691   0.998  11.158 -1.5386 -0.6816 -1.3838
31686SOL     OW 1662   9.697   4.039  12.230 -0.4721 -0.0789 -0.2565
31686SOL    HW1 1663   9.753   3.981  12.281  1.3575  0.8820 -1.0773
31686SOL    HW2 1664   9.694   3.999  12.143 -1.4216 -0.3209 -0.1326
31687SOL     OW 1665   1.244   8.537   8.477  0.2369  0.5820 -0.1961
31687SOL    HW1 1666   1.305   8.464   8.467 -0.8260 -0.7234  1.9873
31687SOL    HW2 1667   1.286   8.594   8.542  0.3827  1.1443 -0.7780
31688SOL     OW 1668   7.721   8.363   9.473 -0.2701  0.1697  0.4033
31688SOL    HW1 1669   7.661   8.288   9.475 -0.1387 -0.0119 -1.0470
31688SOL    HW2 1670   7.808   8.324   9.481 -0.1729  0.0857 -0.7917
31689SOL     OW 1671   8.446   2.086   2.986 -0.0602 -0.0001 -0.0894
31689SOL    HW1 1672   8.471   1.994   2.987 -2.9475 -0.9110  0.0144
31689SOL    HW2 1673   8.505   2.129   3.048 -0.0883 -2.2283  1.5850
31690SOL     OW 1674  11.577   7.080   8.862  0.7207  0.3433 -0.2321
31690SOL    HW1 1675  11.586   7.064   8.955 -2.4428  2.1573  0.5472
31690SOL    HW2 1676  11.665   7.065   8.826  2.0673 -0.3357  2.9829
31691SOL     OW 1677  10.355   9.939   7.901 -0.4309 -0.2467  0.7160
31691SOL    HW1 1678  10.329   9.968   7.989  0.2331  1.3166  0.4422
31691SOL    HW2 1679  10.442   9.902   7.912 -0.0844  0.5240  0.6410
31692SOL     OW 1680   5.148   2.050   9.078 -0.1913  0.6994 -0.7687
31692SOL    HW1 1681   5.209   1.993   9.031 -0.2105 -0.0586  0.0944
31692SOL    HW2 1682   5.064   2.035   9.036 -0.1790  0.1458 -0.6032
31693SOL     OW 1683   7.247   6.467   2.857 -0.1630  0.2373  0.0252
31693SOL    HW1 1684   7.333   6.453   2.896  0.0703  0.2397 -0.4887
31693SOL    HW2 1685   7.198   6.388   2.878  0.4289 -0.3956 -0.9207
31694SOL     OW 1686   9.494   9.050   3.572 -0.1274  0.6912  0.8301
31694SOL    HW1 1687   9.554   8.987   3.534 -1.3030 -0.1554  0.3117
31694SOL    HW2 1688   9.508   9.045   3.666  0.5411  0.4489  0.7171
31695SOL     OW 1689   7.927  12.047   8.463 -0.3531 -0.0747 -0.1177
31695SOL    HW1 1690   8.019  12.058   8.440 -0.2347  0.0778  0.4090
31695SOL    HW2 1691   7.906  11.957   8.437  0.4583 -0.7448  1.4460
31696SOL     OW 1692   7.094   2.265   2.038 -0.3053 -0.1231 -0.5131
31696SOL    HW1 1693   7.110   2.330   2.106  0.8241 -1.4521  0.5381
31696SOL    HW2 1694   7.031   2.205   2.078 -0.2258 -0.4885 -0.9387
31697SOL     OW 1695  11.012  12.516   2.073  0.3277 -0.0372 -0.4194
31697SOL    HW1 1696  10.965  12.499   1.991  2.7191 -0.9145 -1.7095
31697SOL    HW2 1697  11.060  12.435   2.091  1.7056  0.9401  0.5297
31698SOL     OW 1698  10.886   7.265  10.696  0.2791 -0.3461  0.1109
31698SOL    HW1 1699  10.805   7.214  10.702  0.3610 -0.5645 -0.6304
31698SOL    HW2 1700  10.872   7.323  10.621  1.2953 -1.2327 -0.7737
31699SOL     OW 1701   9.433  12.093   9.528 -0.1439  0.3180  0.5936
31699SOL    HW1 1702   9.354  12.124   9.572  0.4004  0.4979  1.4696
31699SOL    HW2 1703   9.445  12.153   9.454 -0.8024  0.3098  0.4770
31700SOL     OW 1704   8.980  11.661  11.764 -0.5109 -0.7572  0.5918
31700SOL    HW1 1705   8.905  11.649  11.822 -1.5748 -3.0056 -1.1040
31700SOL    HW2 1706   8.942  11.687  11.680  0.9307  1.6081  0.5535
31701SOL     OW 1707   6.003   5.140   1.791  0.3757 -0.8410  0.0791
31701SOL    HW1 1708   6.053   5.193   1.729  0.3338 -2.0393 -1.0295
31701SOL    HW2 1709   6.009   5.187   1.874 -1.8852  2.2916 -1.3699
31702SOL     OW 1710   0.598   6.772   6.522 -0.0001  0.3466  0.2286
31702SOL    HW1 1711   0.513   6.815   6.525 -0.1720  0.0738 -0.5494
31702SOL    HW2 1712   0.614   6.744   6.612  0.4780  2.7290  0.9363
31703SOL     OW 1713   1.974   1.722   6.166  0.5019 -0.7973 -0.7510
31703SOL    HW1 1714   1.926   1.786   6.114 -0.3883  0.1687  1.1656
31703SOL    HW2 1715   2.060   1.761   6.178 -0.2633  0.4634  1.0232
31704SOL     OW 1716   2.426   1.946  11.861 -0.1860  0.0520 -0.4028
31704SOL    HW1 1717   2.448   1.958  11.769 -1.9083  1.2150 -0.6993
31704SOL    HW2 1718   2.331   1.957  11.865 -0.2934 -1.0656  1.3570
31705SOL     OW 1719   5.817   1.973   9.927  0.7997  0.0436 -0.0947
31705SOL    HW1 1720   5.841   2.013  10.010  0.3405  0.6046 -0.2262
31705SOL    HW2 1721   5.759   1.901   9.951  0.1680  0.5870  0.0429
31706SOL     OW 1722   7.286   6.156   8.619 -0.3024 -0.4113  0.5640
31706SOL    HW1 1723   7.261   6.124   8.706 -0.9293 -2.2335 -0.2409
31706SOL    HW2 1724   7.226   6.229   8.601 -0.0190  0.1289  1.7189
31707SOL     OW 1725   4.141   5.509  11.727  0.0131  0.1314  0.4034
31707SOL    HW1 1726   4.120   5.437  11.667  0.0140  0.5463 -0.0943
31707SOL    HW2 1727   4.218   5.478  11.774 -0.6136 -0.6475  0.9657
31708SOL     OW 1728  10.884  12.354   7.248 -0.1565 -0.0668  0.3140
31708SOL    HW1 1729  10.887  12.437   7.200 -0.8527 -1.1958 -1.8662
31708SOL    HW2 1730  10.841  12.375   7.330 -0.5730  1.6819 -0.3002
31709SOL     OW 1731   8.112  10.872   5.284 -0.4720  0.3296 -0.1937
31709SOL    HW1 1732   8.024  10.902   5.263 -1.0339 -0.6468  0.6957
31709SOL    HW2 1733   8.121  10.884   5.378 -0.5256 -1.6800  0.1225
31710SOL     OW 1734   5.213   2.333   9.969 -1.0118 -0.0165  0.3489
31710SOL    HW1 1735   5.244   2.246   9.948 -1.3246 -0.2733  0.9179
31710SOL    HW2 1736   5.248   2.351  10.056 -2.0941 -0.1497  0.8300
31711SOL     OW 1737  11.261   3.849   4.569  0.2377  0.0372 -0.3072
31711SOL    HW1 1738  11.304   3.773   4.530  0.8126  1.0611 -1.7465
31711SOL    HW2 1739  11.326   3.919   4.564  0.1631  0.3696  2.1086
31712SOL     OW 1740   0.589  10.193   0.748 -0.9854 -0.8342 -0.5929
31712SOL    HW1 1741   0.616  10.229   0.663 -0.5340 -0.1649 -0.1836
31712SOL    HW2 1742   0.499  10.165   0.735 -1.4583  0.7061 -0.8892
31713SOL     OW 1743   0.891   9.705  11.583  0.0654  0.3670  0.4351
31713SOL    HW1 1744   0.928   9.793  11.585 -0.5390  0.6192  1.1196
31713SOL    HW2 1745   0.890   9.681  11.490  2.7526 -0.0344  0.4544
31714SOL     OW 1746  12.667   8.441   6.180 -0.6679 -0.1435 -0.0559
31714SOL    HW1 1747  12.687   8.532   6.156  0.0648 -0.4652 -0.6943
31714SOL    HW2 1748  12.682   8.438   6.274  3.1596 -0.5193 -0.5308
31715SOL     OW 1749   4.338  12.519   9.451  0.1973  0.0129  0.5270
31715SOL    HW1 1750   4.291  12.511   9.368  1.5452 -0.1479 -0.2492
31715SOL    HW2 1751   4.319  12.608   9.481 -1.8415 -0.5446  1.0500
31716SOL     OW 1752   0.883   2.556   4.701  0.1950  0.1318  0.1478
31716SOL    HW1 1753   0.819   2.577   4.633  1.6469 -0.8403 -1.5931
31716SOL    HW2 1754   0.835   2.570   4.783 -2.8807 -2.1525 -1.0263
31717SOL     OW 1755   8.520   6.854   3.036 -0.5405  0.1807 -0.6098
31717SOL    HW1 1756   8.456   6.863   3.107 -0.2452  1.7845 -0.5075
31717SOL    HW2 1757   8.467   6.857   2.956 -0.8871 -1.7386 -0.5037
31718SOL     OW 1758  12.171  12.447   0.502 -0.6312  0.0096 -0.1593
31718SOL    HW1 1759  12.243  12.385   0.498  0.8821  1.6755  0.3543
31718SOL    HW2 1760  12.150  12.464   0.410  0.7753  0.7803 -0.3558
31719SOL     OW 1761   5.521   8.131   3.260  0.0736 -0.1365 -0.3555
31719SOL    HW1 1762   5.434   8.127   3.220  0.1316 -0.3673 -0.4578
31719SOL    HW2 1763   5.535   8.044   3.297 -0.2721  0.2750  0.7939
31720SOL     OW 1764  10.804   7.687   6.322  0.3831 -0.2775 -0.2906
31720SOL    HW1 1765  10.879   7.726   6.367  0.2600 -0.7029  0.2983
31720SOL    HW2 1766  10.749   7.761   6.297  1.5847  0.1519 -1.8257
31721SOL     OW 1767   4.597   8.119  12.700 -0.7933  0.3170 -0.0345
31721SOL    HW1 1768   4.640   8.086  12.779  0.0965  0.5383 -0.4178
31721SOL    HW2 1769   4.632   8.207  12.689 -0.2774 -0.0140 -1.1358
31722SOL     OW 1770   4.496   8.196   4.129  0.2318 -0.3229  0.1851
31722SOL    HW1 1771   4.537   8.115   4.098  2.4533  0.5376  0.6832
31722SOL    HW2 1772   4.485   8.183   4.223 -0.0503 -0.2855  0.1590
31723SOL     OW 1773  12.577   2.526   2.581  0.0901  0.6213  0.6566
31723SOL    HW1 1774  12.553   2.614   2.612 -1.1577  0.2215  0.8801
31723SOL    HW2 1775  12.502   2.497   2.530  1.7039  0.8800 -2.0820
31724SOL     OW 1776  12.173   0.313  12.149  0.0013  0.2225 -0.2042
31724SOL    HW1 1777  12.143   0.273  12.068 -0.6342 -0.8148  0.5245
31724SOL    HW2 1778  12.134   0.400  12.149  0.6802  0.5482 -1.3866
31725SOL     OW 1779   7.545   1.520   8.419 -0.2025 -0.0027 -0.2160
31725SOL    HW1 1780   7.578   1.595   8.469  0.8028  0.5819 -1.6948
31725SOL    HW2 1781   7.494   1.559   8.349  0.4357 -0.6828 -1.0782
31726SOL     OW 1782   1.784   6.797   1.364  0.4470  0.0807  0.3760
31726SOL    HW1 1783   1.726   6.721   1.361  0.3507  0.1637  0.0972
31726SOL    HW2 1784   1.727   6.871   1.385  0.4879  0.1257  0.3312
31727SOL     OW 1785  11.239   1.771   5.021  0.1359  0.5618 -0.0590
31727SOL    HW1 1786  11.252   1.690   4.973 -0.7897  0.2745  0.1528
31727SOL    HW2 1787  11.309   1.829   4.990  0.2073  0.0241 -0.9409
31728SOL     OW 1788  12.716   5.501   9.507 -0.9189 -0.3834  0.1820
31728SOL    HW1 1789  12.630   5.534   9.482 -0.6117 -0.2110 -0.7067
31728SOL    HW2 1790  12.711   5.488   9.601 -2.3525 -1.6281 -0.0130
31729SOL     OW 1791   8.394   9.840   2.268  0.1694  0.5945  0.1496
31729SOL    HW1 1792   8.480   9.878   2.286  1.9851 -1.6947 -2.7668
31729SOL    HW2 1793   8.390   9.762   2.324 -1.0095  1.7931  1.8217
31730SOL     OW 1794   2.162   9.971  11.377 -0.0838 -0.5907  0.1802
31730SOL    HW1 1795   2.100   9.898  11.388 -1.1042  0.1877 -0.1667
31730SOL    HW2 1796   2.117  10.046  11.417  0.7736 -0.0686  0.1826
31731SOL     OW 1797  11.127  10.950   1.803 -0.0357  0.2451 -0.4931
31731SOL    HW1 1798  11.145  10.887   1.872  1.1606  0.5490 -0.4979
31731SOL    HW2 1799  11.116  11.033   1.848 -1.2425  0.1157 -0.5178
31732SOL     OW 1800   4.594   7.112   2.153 -0.1358 -0.7650  0.4540
31732SOL    HW1 1801   4.573   7.019   2.145 -0.7957 -0.7912  2.0819
31732SOL    HW2 1802   4.520   7.149   2.201 -0.1892  0.7504 -0.7218
31733SOL     OW 1803  11.748   5.622   3.427 -0.0520  0.0918 -0.2617
31733SOL    HW1 1804  11.765   5.704   3.380 -0.2087  0.0568 -0.3814
31733SOL    HW2 1805  11.810   5.560   3.389  0.5254  0.3225  0.2967
31734SOL     OW 1806   7.665   1.654   4.689 -0.0258 -0.5326  0.0898
31734SOL    HW1 1807   7.721   1.685   4.760  2.0424  0.2855 -1.7729
31734SOL    HW2 1808   7.598   1.722   4.680  1.3069  0.7894 -0.4261
31735SOL     OW 1809   6.456   3.503   4.833 -0.5919 -0.3491  0.1849
31735SOL    HW1 1810   6.408   3.563   4.891 -3.8097 -0.4381 -2.1289
31735SOL    HW2 1811   6.488   3.558   4.762 -1.3184 -0.9923 -0.6471
31736SOL     OW 1812   0.221   0.842  11.641 -0.0246  0.1105  0.0780
31736SOL    HW1 1813   0.193   0.932  11.624  1.4024  0.3240 -1.4107
31736SOL    HW2 1814   0.177   0.790  11.573  2.6800  0.4040 -2.0763
31737SOL     OW 1815   6.612   6.193   2.872  0.1332  0.0954  0.2281
31737SOL    HW1 1816   6.708   6.195   2.875  0.1363  0.7930 -0.0967
31737SOL    HW2 1817   6.587   6.284   2.886 -0.5287 -0.2791  1.6712
31738SOL     OW 1818   4.977  11.948   3.362 -0.8810  0.2608  0.2797
31738SOL    HW1 1819   5.034  11.945   3.286 -0.1159  1.0124  0.8042
31738SOL    HW2 1820   4.893  11.914   3.331 -0.1734 -0.8033 -0.5123
31739SOL     OW 1821   1.467   6.257   2.600 -0.4354 -0.4550 -0.8235
31739SOL    HW1 1822   1.373   6.266   2.586 -0.4418  0.6735 -0.1895
31739SOL    HW2 1823   1.479   6.271   2.694  0.5327  1.4310 -1.1606
31740SOL     OW 1824   9.344   8.641   4.904  0.3065 -0.4603 -0.2007
31740SOL    HW1 1825   9.408   8.633   4.833 -0.6023  0.6523 -1.1755
31740SOL    HW2 1826   9.354   8.560   4.954  1.7295 -0.7820 -0.9494
31741SOL     OW 1827   0.975   0.362   6.295 -0.3359  0.1879 -0.5167
31741SOL    HW1 1828   0.936   0.290   6.344  0.4349  1.8036  2.7107
31741SOL    HW2 1829   1.059   0.327   6.264 -0.7779 -0.8230 -0.6051
31742SOL     OW 1830  12.132   6.637   2.808 -0.2390  0.5736  0.4104
31742SOL    HW1 1831  12.117   6.695   2.733 -0.7873 -0.0460  0.0343
31742SOL    HW2 1832  12.227   6.626   2.811 -0.2507  0.1357 -0.5523
31743SOL     OW 1833   9.973  12.196   0.587  0.0038  0.4913  0.6907
31743SOL    HW1 1834  10.014  12.238   0.663 -0.4069  1.1284  0.5680
31743SOL    HW2 1835   9.928  12.268   0.541  0.5297  0.1783 -0.3426
31744SOL     OW 1836   5.741   4.073   5.407  0.0945 -0.7825  0.3969
31744SOL    HW1 1837   5.807   4.065   5.475  1.9534  0.5914 -1.1384
31744SOL    HW2 1838   5.732   4.168   5.394 -1.6876 -0.9586  0.0816
31745SOL     OW 1839   9.307  10.421   8.082 -0.6056 -0.5190 -0.0307
31745SOL    HW1 1840   9.326  10.473   8.004  0.9304  0.0416  0.6769
31745SOL    HW2 1841   9.388  10.373   8.098 -1.1798 -1.2286  0.7619
31746SOL     OW 1842   2.703   5.879   6.296  0.1299 -0.4020  0.4040
31746SOL    HW1 1843   2.791   5.878   6.334 -0.4570 -1.5130  1.8281
31746SOL    HW2 1844   2.680   5.972   6.291  1.7224 -0.0266 -0.9006
31747SOL     OW 1845   8.988   3.292   2.693 -0.3086 -0.0010 -0.4934
31747SOL    HW1 1846   8.973   3.324   2.782  1.2618  2.6637 -1.0887
31747SOL    HW2 1847   9.059   3.228   2.702  0.1211  0.5552  0.1339
31748SOL     OW 1848   0.983  11.784   7.293  0.9028 -0.2355 -0.6951
31748SOL    HW1 1849   0.893  11.753   7.279 -0.1696  1.0300  2.3903
31748SOL    HW2 1850   0.980  11.877   7.273  0.5417  0.5378  2.3933
31749SOL     OW 1851   6.966   9.883   3.860 -0.3853 -0.8379  0.1420
31749SOL    HW1 1852   6.941   9.969   3.895 -2.1635 -1.3173  0.1872
31749SOL    HW2 1853   6.882   9.842   3.838  0.5384 -1.5465 -2.3666
31750SOL     OW 1854   8.373  10.248   9.270 -0.2201 -0.7480  0.1336
31750SOL    HW1 1855   8.368  10.158   9.305 -2.5838 -0.4507  0.7682
31750SOL    HW2 1856   8.430  10.294   9.331  0.6148 -1.6996  0.0929
31751SOL     OW 1857   3.620   1.125  11.700 -0.0809  0.1152 -0.2530
31751SOL    HW1 1858   3.637   1.083  11.785  1.0121  1.8444  0.4359
31751SOL    HW2 1859   3.632   1.054  11.636  0.0867 -0.9943  0.9556
31752SOL     OW 1860   7.043  10.319  11.021  0.1633  0.5698 -0.1593
31752SOL    HW1 1861   7.094  10.396  10.997  1.8324  0.0437  1.4375
31752SOL    HW2 1862   6.976  10.352  11.081  0.3368  0.8791 -0.1362
31753SOL     OW 1863   7.313   5.605   4.220 -0.1706 -0.1838  0.1232
31753SOL    HW1 1864   7.378   5.535   4.220  1.3579  1.1404 -1.5869
31753SOL    HW2 1865   7.361   5.683   4.192 -2.5439  0.7824 -1.6485
31754SOL     OW 1866   7.359   9.274   5.130  0.6341 -0.2206 -0.0613
31754SOL    HW1 1867   7.321   9.231   5.053 -0.7401 -2.3518  1.6899
31754SOL    HW2 1868   7.421   9.210   5.165  1.7434  0.9925  0.2712
31755SOL     OW 1869   7.554  12.414  11.848  0.1506  0.0211 -0.8523
31755SOL    HW1 1870   7.598  12.495  11.872 -0.7691  0.5282 -0.8457
31755SOL    HW2 1871   7.576  12.400  11.756  2.1857 -0.9576 -0.2693
31756SOL     OW 1872  12.372   0.845  11.299  0.0608  0.2347  0.3142
31756SOL    HW1 1873  12.309   0.840  11.370 -0.7509  1.2708 -0.2995
31756SOL    HW2 1874  12.325   0.812  11.222  1.7918 -3.6498  0.6957
31757SOL     OW 1875   4.004   1.552   5.576  0.2895 -0.5763  0.2964
31757SOL    HW1 1876   4.011   1.488   5.504  2.0809 -1.0054  0.8146
31757SOL    HW2 1877   3.933   1.518   5.631  1.3123 -2.2445  0.6509
31758SOL     OW 1878   4.026  11.441   2.453  0.4671 -0.4724  0.5213
31758SOL    HW1 1879   3.931  11.435   2.444  0.0968  0.2459  3.0112
31758SOL    HW2 1880   4.051  11.362   2.500  0.5868  0.7308  2.6039
31759SOL     OW 1881   4.344   3.404  12.429  0.2989 -0.5588  0.3387
31759SOL    HW1 1882   4.430   3.403  12.472  1.1606  1.0301 -1.1890
31759SOL    HW2 1883   4.356   3.353  12.349  0.1523  0.5281 -0.3991
31760SOL     OW 1884   3.631   8.366  12.267 -0.1477  0.2742 -0.6030
31760SOL    HW1 1885   3.597   8.277  12.270  0.3475  0.1120  0.4425
31760SOL    HW2 1886   3.717   8.361  12.307 -0.1243  1.2315 -0.5123
31761SOL     OW 1887   0.433   4.274   6.614  0.7306  0.4354  0.2456
31761SOL    HW1 1888   0.456   4.355   6.568  2.1077  0.1930  0.4747
31761SOL    HW2 1889   0.517   4.238   6.643  0.0935 -0.8049  0.6091
31762SOL     OW 1890   6.944   2.429  12.269 -0.2797  0.0876 -0.1244
31762SOL    HW1 1891   6.890   2.467  12.200  0.8614  1.2680 -0.3994
31762SOL    HW2 1892   6.931   2.334  12.261  0.1889  0.1699 -2.2643
31763SOL     OW 1893   1.857   2.527   0.225 -0.7077 -0.3332  0.4251
31763SOL    HW1 1894   1.862   2.437   0.260 -2.2097 -0.1792  1.1616
31763SOL    HW2 1895   1.767   2.534   0.192 -0.9485  1.1911  1.2880
31764SOL     OW 1896  10.773   7.898  11.610 -0.2528 -0.0545  0.0450
31764SOL    HW1 1897  10.696   7.900  11.554  0.4590  0.9530 -0.9539
31764SOL    HW2 1898  10.847   7.887  11.550  0.3121 -3.1543  1.1332
31765SOL     OW 1899   7.527   6.751   1.081  0.3938 -0.6000  0.1242
31765SOL    HW1 1900   7.536   6.767   0.987  2.5017  0.2370  0.4136
31765SOL    HW2 1901   7.433   6.738   1.094  0.0586 -0.8326 -2.0969
31766SOL     OW 1902   0.064   2.420   0.316 -0.1619 -0.0170  0.3805
31766SOL    HW1 1903   0.004   2.462   0.255 -1.1014  0.8802  1.8448
31766SOL    HW2 1904   0.151   2.447   0.288 -0.3923 -1.2152 -1.6940
31767SOL     OW 1905   5.687   5.291   0.976 -0.0765 -0.4947  0.2506
31767SOL    HW1 1906   5.602   5.332   0.966 -0.2593 -0.9816 -0.2027
31767SOL    HW2 1907   5.668   5.199   0.992  0.3501 -0.5110  0.7166
31768SOL     OW 1908  11.675  12.426   0.305 -0.1467  0.3943  0.5454
31768SOL    HW1 1909  11.718  12.361   0.249  1.0766  1.4982  0.1519
31768SOL    HW2 1910  11.610  12.376   0.354 -0.5716 -0.7914 -1.1265
31769SOL     OW 1911   3.986   6.511   4.417 -0.7530 -0.5196  0.5752
31769SOL    HW1 1912   3.941   6.565   4.482 -1.7707 -0.2540 -0.3187
31769SOL    HW2 1913   4.032   6.574   4.360  2.0986 -0.8207  2.3312
31770SOL     OW 1914  10.201   3.518   1.229 -0.4028  0.4041 -0.3511
31770SOL    HW1 1915  10.265   3.456   1.194 -0.4357  0.1784 -0.0176
31770SOL    HW2 1916  10.143   3.465   1.282  0.9556  1.0226  1.8990
31771SOL     OW 1917   8.061   6.723  10.095 -0.1447 -0.1943 -0.4127
31771SOL    HW1 1918   8.113   6.660  10.145 -1.0088  0.2075  1.0646
31771SOL    HW2 1919   8.124   6.768  10.039  0.9999 -0.1745  0.8457
31772SOL     OW 1920   5.812   6.693   8.236 -0.2622  0.0962 -0.0154
31772SOL    HW1 1921   5.907   6.680   8.247 -0.2384  0.0774 -0.2367
31772SOL    HW2 1922   5.801   6.711   8.143 -0.2539  1.9802  0.2967
31773SOL     OW 1923   5.346   0.800   5.994  0.2338  0.3309  0.0881
31773SOL    HW1 1924   5.406   0.790   5.921  0.4716  0.2531  0.2941
31773SOL    HW2 1925   5.299   0.717   5.997  1.5500 -0.4136  1.2065
31774SOL     OW 1926   3.285   0.885   0.933  0.1429 -0.4784  0.9161
31774SOL    HW1 1927   3.238   0.930   1.004  1.3239  2.1301  0.1816
31774SOL    HW2 1928   3.234   0.905   0.855  0.8443 -0.1137  0.5371
31775SOL     OW 1929   9.126  10.773   9.974  0.0432  0.0477  0.5322
31775SOL    HW1 1930   9.125  10.737   9.886 -0.7594 -0.7066  0.8399
31775SOL    HW2 1931   9.085  10.860   9.965  0.6451  0.2818  0.0421
31776SOL     OW 1932   9.928   0.363   1.598 -0.4154 -0.0353  0.0243
31776SOL    HW1 1933   9.840   0.383   1.630 -0.0978  0.2254  0.7611
31776SOL    HW2 1934   9.914   0.326   1.511 -1.2784 -0.3630  0.2905
31777SOL     OW 1935   6.080   0.309  11.647 -0.4609  0.0950  0.0040
31777SOL    HW1 1936   6.081   0.301  11.552  2.2196 -1.9980  0.0702
31777SOL    HW2 1937   6.067   0.219  11.678 -0.0041  0.5468  1.5962
31778SOL     OW 1938   8.186  12.536   2.268  0.3533 -0.1665 -0.1528
31778SOL    HW1 1939   8.275  12.536   2.304  0.7287 -1.7208 -1.0226
31778SOL    HW2 1940   8.152  12.623   2.289  1.6799  0.0773  1.1528
31779SOL     OW 1941   2.537  11.482   5.421  0.1084  0.1548  0.4031
31779SOL    HW1 1942   2.575  11.457   5.506 -0.4099  1.0778  0.9255
31779SOL    HW2 1943   2.528  11.577   5.426  0.8616  0.3326 -1.0288
31780SOL     OW 1944   0.004   6.975   6.986 -0.1986  0.3254 -0.2563
31780SOL    HW1 1945  -0.087   7.006   6.985 -0.0155  0.9099  0.3583
31780SOL    HW2 1946   0.036   6.997   7.074  0.0087 -1.4444  0.1391
31781SOL     OW 1947  10.722  11.605   8.184 -0.7843 -0.5335  0.4776
31781SOL    HW1 1948  10.716  11.692   8.146 -0.0297 -0.4283  0.5861
31781SOL    HW2 1949  10.631  11.579   8.198 -1.0305 -0.0034 -0.0888
31782SOL     OW 1950   6.271   7.322   3.562 -0.2339  0.0788  0.1201
31782SOL    HW1 1951   6.258   7.252   3.498 -2.7575 -1.1273  1.7403
31782SOL    HW2 1952   6.238   7.284   3.644  0.7826  2.2984  1.6401
31783SOL     OW 1953  11.364   2.337   3.557 -0.0768  0.1013  0.2266
31783SOL    HW1 1954  11.363   2.392   3.478  0.8727  0.1864  0.2616
31783SOL    HW2 1955  11.333   2.252   3.527 -0.2719  0.2872 -0.1104
31784SOL     OW 1956   2.827   0.010   0.313 -0.5210  0.3403  0.2693
31784SOL    HW1 1957   2.877  -0.071   0.304  0.7347  0.8289  2.1232
31784SOL    HW2 1958   2.831   0.051   0.227 -0.2201 -1.0365 -0.3979
31785SOL     OW 1959   4.674   3.381   7.872  0.1126  0.1417  0.3347
31785SOL    HW1 1960   4.614   3.454   7.856  0.0687 -0.0548 -0.4682
31785SOL    HW2 1961   4.617   3.304   7.874  0.1864  0.0965  0.9378
31786SOL     OW 1962  11.114   2.564   4.665 -0.3729  0.6077 -0.2337
31786SOL    HW1 1963  11.169   2.643   4.667 -0.5960  0.7855  2.2337
31786SOL    HW2 1964  11.111   2.535   4.756 -1.2272 -1.6302 -0.9114
31787SOL     OW 1965   7.645   8.077  10.895 -0.1633  0.8114 -0.1928
31787SOL    HW1 1966   7.721   8.023  10.877 -1.1220 -0.9610  0.7377
31787SOL    HW2 1967   7.583   8.057  10.825  0.0863  1.9994 -0.7725
31788SOL     OW 1968   3.005   5.118   7.663  0.4133 -0.4245  0.0091
31788SOL    HW1 1969   3.012   5.037   7.613  1.4531 -1.1844  1.3353
31788SOL    HW2 1970   2.946   5.097   7.735  0.3739  0.1237  0.1449
31789SOL     OW 1971   2.012   0.363   8.568 -0.2176 -0.3201  0.2615
31789SOL    HW1 1972   2.107   0.351   8.581 -0.2502  0.3393  1.1891
31789SOL    HW2 1973   1.973   0.335   8.651 -0.8725 -0.9202 -0.2430
31790SOL     OW 1974   2.619   9.450  11.727  0.3912  0.2996 -0.0111
31790SOL    HW1 1975   2.621   9.423  11.635 -0.1819  0.3958 -0.0559
31790SOL    HW2 1976   2.673   9.528  11.731 -0.3772  0.8707 -0.4653
31791SOL     OW 1977   6.045   4.651   8.576 -0.6258 -0.0833  0.1668
31791SOL    HW1 1978   6.064   4.726   8.632  0.2090  0.3352 -0.6434
31791SOL    HW2 1979   6.083   4.576   8.622  1.1376  0.4230 -0.3544
31792SOL     OW 1980   6.084  11.205  12.420  0.2150 -0.1859 -0.2986
31792SOL    HW1 1981   6.109  11.232  12.331 -0.5906  0.6347 -0.2921
31792SOL    HW2 1982   6.010  11.145  12.407  0.3155 -0.3322 -0.1966
31793SOL     OW 1983  10.937   2.337  11.644 -0.0167  0.2077 -0.0379
31793SOL    HW1 1984  10.907   2.371  11.560 -1.4908 -0.5182  0.1650
31793SOL    HW2 1985  11.031   2.324  11.633 -0.1886  0.1240 -1.5706
31794SOL     OW 1986   5.864   1.072   4.341  0.4285 -0.0891  0.1798
31794SOL    HW1 1987   5.803   1.142   4.318  0.9486  0.1596 -0.4697
31794SOL    HW2 1988   5.841   1.049   4.431 -1.3569 -0.7694 -0.3922
31795SOL     OW 1989   4.637  11.407   7.330  0.1960  0.5213 -0.5619
31795SOL    HW1 1990   4.594  11.364   7.257  1.3224  0.0607 -0.9747
31795SOL    HW2 1991   4.704  11.345   7.359 -0.2950  0.6420  0.9416
31796SOL     OW 1992   8.623   9.122   5.235  0.4504  0.1803  0.2529
31796SOL    HW1 1993   8.582   9.173   5.305 -1.1856 -0.2403 -0.3489
31796SOL    HW2 1994   8.686   9.066   5.281 -1.5509 -1.0864  1.6357
31797SOL     OW 1995   8.966  11.416   5.690  0.5450  0.1336 -0.0965
31797SOL    HW1 1996   8.976  11.497   5.740  2.3204 -0.0743 -0.0489
31797SOL    HW2 1997   8.872  11.398   5.692  0.3568  1.0912  1.6525
31798SOL     OW 1998   6.149  11.422   1.819 -0.1056  1.0975  0.2274
31798SOL    HW1 1999   6.178  11.353   1.879 -0.0954  0.6561 -0.2724
31798SOL    HW2 2000   6.151  11.502   1.871 -0.0636  0.7282  0.8035
31799SOL     OW 2001   4.960  12.078   0.166 -0.1765  0.3374 -0.1495
31799SOL    HW1 2002   4.962  12.009   0.232  0.5359 -0.2225 -0.7249
31799SOL    HW2 2003   4.913  12.039   0.092 -1.8330  1.2979  0.3652
31800SOL     OW 2004   2.927   1.121   6.879 -0.0486 -0.3461  0.1610
31800SOL    HW1 2005   2.869   1.126   6.803 -1.6273  4.0436  1.3361
31800SOL    HW2 2006   2.871   1.088   6.949  0.1648 -0.3366  0.3335
31801SOL     OW 2007   9.621   0.596  10.673  0.4652  0.2663 -0.0153
31801SOL    HW1 2008   9.549   0.549  10.630 -0.0103  0.5023  0.4975
31801SOL    HW2 2009   9.683   0.528  10.698 -0.8480 -0.3107  1.9454
31802SOL     OW 2010   4.952   7.524   2.799  0.1616 -0.3680  0.3479
31802SOL    HW1 2011   4.933   7.566   2.883  0.3274  1.6317 -0.5585
31802SOL    HW2 2012   5.005   7.447   2.822  2.4902  1.5467  1.9523
31803SOL     OW 2013   2.224   4.377   1.190 -0.6987  0.3129  0.4316
31803SOL    HW1 2014   2.160   4.310   1.214  0.9361 -0.8678  1.7348
31803SOL    HW2 2015   2.229   4.373   1.095 -1.1363 -0.9408  0.4485
31804SOL     OW 2016   0.323   7.934   6.262 -0.3523  0.3258 -0.0535
31804SOL    HW1 2017   0.291   8.004   6.205  2.3805 -0.1542 -2.4387
31804SOL    HW2 2018   0.254   7.868   6.259 -1.3151  1.3311 -0.9112
31805SOL     OW 2019   4.751   5.000   8.518  0.4688  0.0918  0.1647
31805SOL    HW1 2020   4.793   5.077   8.479  1.2627 -1.2187 -1.7449
31805SOL    HW2 2021   4.816   4.930   8.510 -0.6853 -1.0882  0.6358
31806SOL     OW 2022   9.071  10.619   4.716  0.0014  0.6503 -0.6799
31806SOL    HW1 2023   9.089  10.610   4.810 -0.9237 -0.8030 -0.5985
31806SOL    HW2 2024   8.979  10.591   4.707  0.7804 -1.7238 -2.3183
31807SOL     OW 2025  11.039  10.763   6.355  0.0403  0.5794  0.1400
31807SOL    HW1 2026  10.983  10.806   6.420  0.0988  1.8162 -0.6017
31807SOL    HW2 2027  11.101  10.831   6.327  1.2596 -0.4651  0.1724
31808SOL     OW 2028   7.501   0.327   0.858 -0.6752 -0.1225  0.5156
31808SOL    HW1 2029   7.487   0.279   0.939 -3.9491  1.2561  0.9205
31808SOL    HW2 2030   7.425   0.385   0.851 -0.1992  0.2905 -3.2150
31809SOL     OW 2031  10.924  11.829   7.986 -0.6127  0.2828 -0.2504
31809SOL    HW1 2032  11.017  11.848   8.001 -0.4550 -0.8935  0.4579
31809SOL    HW2 2033  10.900  11.880   7.909  1.1407 -0.8346 -1.6191
31810SOL     OW 2034  11.667  11.908   0.789 -0.5053  0.1052 -0.3608
31810SOL    HW1 2035  11.652  11.977   0.853 -1.5157 -0.5368  0.1311
31810SOL    HW2 2036  11.714  11.950   0.718  1.4337  0.6624  1.1484
31811SOL     OW 2037   4.623   8.881   5.352 -0.1938 -0.4952 -0.0730
31811SOL    HW1 2038   4.659   8.801   5.314  3.6925  0.2408  1.5375
31811SOL    HW2 2039   4.548   8.852   5.404  0.4680 -2.9295 -0.3621
31812SOL     OW 2040   1.788   8.367   7.938 -0.4485  0.0949 -0.2094
31812SOL    HW1 2041   1.832   8.290   7.902  1.5255  0.2181  1.6858
31812SOL    HW2 2042   1.733   8.400   7.867  0.6567 -1.5488 -1.9131
31813SOL     OW 2043   3.510   5.432   2.131  0.0677 -0.5169  0.0554
31813SOL    HW1 2044   3.539   5.393   2.214 -0.2695 -0.6945  0.0906
31813SOL    HW2 2045   3.458   5.508   2.157 -1.2503 -1.3855  0.0580
31814SOL     OW 2046   2.161   7.143   6.287  0.6761  0.2645  0.1313
31814SOL    HW1 2047   2.130   7.199   6.359 -0.9728 -1.2805  0.7149
31814SOL    HW2 2048   2.128   7.185   6.208 -0.0806  0.4342  0.5243
31815SOL     OW 2049   7.152   0.110   7.200 -0.6552  0.0720 -0.1201
31815SOL    HW1 2050   7.114   0.173   7.262 -2.0360 -1.0795  0.2580
31815SOL    HW2 2051   7.202   0.050   7.255 -2.4503 -1.3659  0.0329
31816SOL     OW 2052   2.995   4.581   8.388 -0.2128  0.5473 -0.3036
31816SOL    HW1 2053   2.974   4.566   8.296 -3.2586  0.4078  0.3020
31816SOL    HW2 2054   3.090   4.580   8.391  0.0521  1.9486 -3.6576
31817SOL     OW 2055   2.453   5.285   3.592  0.7525 -0.4658 -0.2299
31817SOL    HW1 2056   2.487   5.364   3.550  1.8435 -0.1002  1.2476
31817SOL    HW2 2057   2.517   5.217   3.571 -0.1262 -0.9724 -1.4041
31818SOL     OW 2058   7.741   6.393  11.945  0.7156  0.0110  0.1378
31818SOL    HW1 2059   7.728   6.475  11.898  1.1973 -0.6177 -1.1642
31818SOL    HW2 2060   7.680   6.332  11.904 -0.3714 -0.0606  1.7727
31819SOL     OW 2061   7.665   2.537  11.283 -0.9019  0.2895  0.1367
31819SOL    HW1 2062   7.731   2.602  11.310  0.3084 -0.6182 -0.5145
31819SOL    HW2 2063   7.614   2.521  11.362 -0.9227  1.6815  0.4302
31820SOL     OW 2064   1.006   1.446   4.355  0.0066 -0.0395 -0.4115
31820SOL    HW1 2065   0.928   1.471   4.304 -0.0994  1.0822  0.2867
31820SOL    HW2 2066   1.076   1.499   4.318  0.6357 -1.5875 -1.5433
31821SOL     OW 2067   7.360   3.680   0.655 -0.2028 -0.2096 -0.0749
31821SOL    HW1 2068   7.396   3.605   0.702 -0.0170 -0.3196 -0.3882
31821SOL    HW2 2069   7.324   3.643   0.574 -1.5463 -0.1824  0.4974
31822SOL     OW 2070   9.689   6.361   2.486 -0.1670 -0.2888 -0.0066
31822SOL    HW1 2071   9.695   6.284   2.542  1.0084  1.0889  1.9263
31822SOL    HW2 2072   9.748   6.425   2.527 -2.2093  2.1704 -0.6293
31823SOL     OW 2073   7.907   3.324   1.530  0.6322 -0.6158 -0.4304
31823SOL    HW1 2074   7.874   3.304   1.618 -0.9625  0.2957 -0.7759
31823SOL    HW2 2075   7.836   3.373   1.489  1.2337 -1.2408 -2.3283
31824SOL     OW 2076   4.342   3.538   5.098 -0.1104 -0.1355  0.3482
31824SOL    HW1 2077   4.281   3.548   5.171 -1.0331 -0.1872 -0.3984
31824SOL    HW2 2078   4.377   3.625   5.084  0.1375 -0.1401  0.9036
31825SOL     OW 2079   7.606   8.183  11.472  0.2015  0.3699  0.0751
31825SOL    HW1 2080   7.644   8.198  11.385  1.8508 -0.5077  0.5929
31825SOL    HW2 2081   7.652   8.106  11.505 -0.9164  0.2498  1.4476
31826SOL     OW 2082   8.531  11.013   3.961 -0.0539 -0.4648  0.6288
31826SOL    HW1 2083   8.454  11.071   3.962  0.5793  0.3872  1.3694
31826SOL    HW2 2084   8.606  11.073   3.961  0.7470 -1.1015 -3.8827
31827SOL     OW 2085   9.908   9.444   3.878  0.1501 -0.6651 -0.5154
31827SOL    HW1 2086   9.880   9.421   3.966  0.7523 -0.8000 -0.3489
31827SOL    HW2 2087  10.004   9.436   3.881  0.2239 -0.0060 -0.9944
31828SOL     OW 2088   4.099  10.646   7.322  0.2035  0.0566  0.0769
31828SOL    HW1 2089   4.187  10.658   7.288  0.3098 -0.0260  0.3190
31828SOL    HW2 2090   4.069  10.734   7.344  0.5558  0.0037  0.8032
31829SOL     OW 2091   8.025   4.516   7.590 -0.7544 -0.0305  0.4485
31829SOL    HW1 2092   8.096   4.481   7.645 -0.6317  0.8275  0.8429
31829SOL    HW2 2093   8.060   4.511   7.501  0.0609  0.9444  0.6877
31830SOL     OW 2094   3.114   0.066   1.375  0.8297  0.0803  0.0496
31830SOL    HW1 2095   3.196   0.023   1.398  1.3224  0.0454 -1.6331
31830SOL    HW2 2096   3.055  -0.006   1.352  0.8346  0.1825 -0.2810
31831SOL     OW 2097   3.968   8.724   1.405 -0.5198  0.0045  0.3271
31831SOL    HW1 2098   3.990   8.631   1.406  1.5790  0.4082 -0.8942
31831SOL    HW2 2099   3.928   8.741   1.490  0.0800 -1.7942  1.0002
31832SOL     OW 2100  11.970   0.135   5.098 -0.1908 -0.2727 -0.1704
31832SOL    HW1 2101  11.977   0.039   5.099  1.8647 -0.1642 -0.1419
31832SOL    HW2 2102  11.877   0.152   5.112 -0.6481 -2.2651 -0.4306
31833SOL     OW 2103   3.990   2.815  11.048  0.5021  0.1006  0.2866
31833SOL    HW1 2104   4.057   2.782  10.988 -0.5399  1.8545 -2.0041
31833SOL    HW2 2105   3.929   2.742  11.059  0.3175 -0.0497 -1.4501
31834SOL     OW 2106   4.014   4.492   6.278 -0.2306 -0.0664 -0.0806
31834SOL    HW1 2107   3.967   4.575   6.289  0.1265 -0.0366  1.5900
31834SOL    HW2 2108   3.947   4.430   6.248 -0.5458  0.7712 -1.1211
31835SOL     OW 2109  10.968   1.582   5.176  0.4413  0.2895 -0.2763
31835SOL    HW1 2110  11.050   1.629   5.182 -0.2452  1.7409 -1.6439
31835SOL    HW2 2111  10.938   1.573   5.267  2.9089 -1.9001  0.4522
31836SOL     OW 2112   7.761  10.632  10.348  0.2562  0.0508  0.1221
31836SOL    HW1 2113   7.795  10.679  10.272 -0.7033  0.1175 -0.2827
31836SOL    HW2 2114   7.834  10.629  10.409  0.4420  1.7946  0.0323
31837SOL     OW 2115   7.131   6.538  10.088  0.0127  0.1324 -0.0268
31837SOL    HW1 2116   7.177   6.616  10.055 -0.9375 -0.1635 -2.2400
31837SOL    HW2 2117   7.201   6.475  10.106  0.8528  1.6253  2.4237
31838SOL     OW 2118   1.797  10.365   3.716  0.1017 -0.2079 -0.4680
31838SOL    HW1 2119   1.727  10.414   3.759  0.9768 -0.0617  0.8294
31838SOL    HW2 2120   1.849  10.432   3.671  0.7542 -0.0234  0.5291
31839SOL     OW 2121  11.400   1.704   2.553  0.3664 -0.1936  0.2344
31839SOL    HW1 2122  11.392   1.636   2.620  0.6457  1.6119  2.2094
31839SOL    HW2 2123  11.345   1.673   2.481 -0.8506 -1.7172  1.7278
31840SOL     OW 2124   4.585   0.630   0.070  0.6229  0.1357  0.3374
31840SOL    HW1 2125   4.501   0.583   0.073  1.4157 -1.3439  0.3084
31840SOL    HW2 2126   4.588   0.677   0.154 -0.0864 -0.0498  0.4788
31841SOL     OW 2127   4.130   2.493   3.327 -0.1651 -0.3840  0.5219
31841SOL    HW1 2128   4.109   2.525   3.239  1.5457  2.3491  0.9485
31841SOL    HW2 2129   4.096   2.561   3.386  2.1905 -0.0516  1.6394
31842SOL     OW 2130   2.610   5.192   1.037  0.0897  0.5787 -0.0040
31842SOL    HW1 2131   2.616   5.274   0.989 -1.1232  0.3571 -0.5581
31842SOL    HW2 2132   2.658   5.129   0.982 -0.3047  0.5782 -0.3490
31843SOL     OW 2133   3.096   4.757   1.018  0.2932  0.1621  0.2105
31843SOL    HW1 2134   3.067   4.697   1.087  1.6122  0.0636  0.7082
31843SOL    HW2 2135   3.104   4.842   1.062  1.5734  0.0065  0.3177
31844SOL     OW 2136   6.256   8.766   1.732 -0.1322 -0.1782  0.3718
31844SOL    HW1 2137   6.213   8.827   1.792  1.5910  0.7191  0.7862
31844SOL    HW2 2138   6.266   8.816   1.650 -0.1811 -0.4900  0.1746
31845SOL     OW 2139   1.789   4.802   2.564  0.5176 -0.0259  0.1457
31845SOL    HW1 2140   1.693   4.800   2.563  0.4952  0.6987  0.1664
31845SOL    HW2 2141   1.815   4.714   2.537 -0.1530 -0.7178  1.6032
31846SOL     OW 2142   6.989   0.832   7.112  0.3978  0.2881  0.3201
31846SOL    HW1 2143   7.055   0.805   7.048  1.6772 -0.0969  1.7419
31846SOL    HW2 2144   7.037   0.886   7.175 -0.3583 -0.9797  2.0549
31847SOL     OW 2145  12.407   4.945  11.669  0.9707 -0.5559  0.3438
31847SOL    HW1 2146  12.403   4.986  11.582  0.4575  0.7784  0.9639
31847SOL    HW2 2147  12.455   5.008  11.722  1.2802 -1.3674  1.0358
31848SOL     OW 2148   6.063   2.592   7.478 -0.0080 -0.2968 -0.5388
31848SOL    HW1 2149   6.087   2.647   7.404  1.6536 -1.0059 -0.5815
31848SOL    HW2 2150   6.089   2.643   7.555  0.7682 -0.6642 -0.5504
31849SOL     OW 2151   3.006  11.162   6.762  0.3084  0.2929 -1.1532
31849SOL    HW1 2152   3.028  11.184   6.853 -1.6860  0.5743 -0.6941
31849SOL    HW2 2153   3.090  11.140   6.722  0.9869 -3.1168  1.6190
31850SOL     OW 2154   0.454   3.777  11.390  0.4899  0.2812  0.6140
31850SOL    HW1 2155   0.523   3.788  11.326  0.4219 -0.3069  0.4285
31850SOL    HW2 2156   0.470   3.845  11.456  1.8256 -0.4492  1.0863
31851SOL     OW 2157  10.665   0.464   9.988 -0.0757  0.9061  0.4748
31851SOL    HW1 2158  10.684   0.505  10.072  0.2830  0.8517  0.4218
31851SOL    HW2 2159  10.727   0.391   9.982  0.7275  1.6160 -0.3508
31852SOL     OW 2160   0.369   6.700   5.036  0.2568 -0.3295  0.3661
31852SOL    HW1 2161   0.300   6.635   5.048 -2.0976  1.5103 -1.9705
31852SOL    HW2 2162   0.391   6.695   4.943 -1.1370  3.0996 -0.2897
31853SOL     OW 2163   0.609  12.412   3.077  0.2116 -0.2008  0.7868
31853SOL    HW1 2164   0.604  12.494   3.127  0.6975 -0.2109  0.8652
31853SOL    HW2 2165   0.538  12.358   3.111  0.2793 -0.0470  1.1797
31854SOL     OW 2166   4.154   1.628  12.632 -1.2648  0.4119  0.1185
31854SOL    HW1 2167   4.169   1.690  12.561 -0.5380  0.1920  0.0736
31854SOL    HW2 2168   4.077   1.662  12.678 -0.1487  2.0684  0.8697
31855SOL     OW 2169   9.147   8.887  10.339 -0.0490 -0.1945  0.4684
31855SOL    HW1 2170   9.073   8.946  10.353 -0.6854 -0.8695  0.0340
31855SOL    HW2 2171   9.211   8.939  10.292 -1.2823 -0.2892 -1.4461
31856SOL     OW 2172   2.450   2.793   1.669  0.0138  0.2189 -0.1964
31856SOL    HW1 2173   2.382   2.783   1.603 -0.9901 -2.7281  1.1390
31856SOL    HW2 2174   2.402   2.802   1.752  1.2730  0.9643  0.4939
31857SOL     OW 2175   7.367   0.666   8.270 -0.5867 -0.5728  0.7242
31857SOL    HW1 2176   7.329   0.753   8.257  1.3609  0.5425  1.9216
31857SOL    HW2 2177   7.388   0.636   8.182 -0.7718  0.4226  0.3275
31858SOL     OW 2178  12.312   8.736   1.448 -0.3226 -0.4921 -0.0175
31858SOL    HW1 2179  12.308   8.794   1.524  0.3061 -0.0703 -0.2949
31858SOL    HW2 2180  12.242   8.767   1.390  1.0622  1.1139 -0.9235
31859SOL     OW 2181  10.988   6.455   2.379  0.3172 -0.1713  0.0292
31859SOL    HW1 2182  10.927   6.382   2.395  0.9131  0.0462  4.7002
31859SOL    HW2 2183  11.074   6.419   2.402  1.5755  0.5523 -3.0503
31860SOL     OW 2184   4.032   7.103   0.931  0.2826 -0.1122 -0.3142
31860SOL    HW1 2185   3.950   7.091   0.978 -0.1147  1.8684 -0.3953
31860SOL    HW2 2186   4.090   7.146   0.994  1.0757 -0.9858 -0.4314
31861SOL     OW 2187   2.252   8.074   9.807  0.3424  0.3920  0.2240
31861SOL    HW1 2188   2.277   8.124   9.885  2.7238  0.9596 -0.8186
31861SOL    HW2 2189   2.306   7.995   9.811  0.7304  0.5779 -0.9866
31862SOL     OW 2190  10.289   1.040   4.489  0.2457 -0.1428 -0.1923
31862SOL    HW1 2191  10.324   1.119   4.530 -1.5286  0.1398  0.8544
31862SOL    HW2 2192  10.237   1.072   4.416  1.8672 -0.5535 -1.6052
31863SOL     OW 2193   3.108   1.006   2.828  0.2352  0.1853 -0.5137
31863SOL    HW1 2194   3.121   1.062   2.904  0.4597 -1.4303  0.6960
31863SOL    HW2 2195   3.189   0.955   2.821  0.4101  0.6218 -2.1354
31864SOL     OW 2196   7.739   2.041  12.242 -0.3320  0.2103 -0.4144
31864SOL    HW1 2197   7.694   2.031  12.326  0.0414  0.5451 -0.1727
31864SOL    HW2 2198   7.773   2.131  12.244 -1.5729  0.7470 -1.5246
31865SOL     OW 2199   9.280  10.516   9.303 -0.4451  0.1275  0.8202
31865SOL    HW1 2200   9.239  10.484   9.383 -1.6160  0.3106  0.3110
31865SOL    HW2 2201   9.275  10.441   9.242  1.1388 -0.2755  1.1390
31866SOL     OW 2202  11.394   3.892  10.502  0.1183 -0.4762  0.2724
31866SOL    HW1 2203  11.362   3.872  10.590  0.4194 -0.7891  0.3123
31866SOL    HW2 2204  11.434   3.978  10.510 -0.7708 -0.0448  0.2057
31867SOL     OW 2205   5.315  11.695   6.364  0.8534 -0.5791  0.2079
31867SOL    HW1 2206   5.274  11.774   6.400  0.8425 -0.4852 -0.0142
31867SOL    HW2 2207   5.256  11.667   6.294  2.2265  0.7580 -1.5655
31868SOL     OW 2208   2.837  10.117   0.014 -0.0817  0.5639 -0.3511
31868SOL    HW1 2209   2.834  10.167  -0.068  1.5401  1.2537 -0.0399
31868SOL    HW2 2210   2.777  10.044   0.001  0.4807  0.4090 -2.3242
31869SOL     OW 2211   8.138   0.446   6.411  0.6560 -0.7722 -0.3662
31869SOL    HW1 2212   8.127   0.520   6.470  0.0861 -0.1995 -1.1614
31869SOL    HW2 2213   8.057   0.396   6.419  0.8526 -1.0619 -0.1698
31870SOL     OW 2214   5.539   7.229  10.469 -0.2353  0.3618  0.0229
31870SOL    HW1 2215   5.545   7.245  10.563  0.4163  1.3906 -0.1859
31870SOL    HW2 2216   5.447   7.245  10.448 -0.9237 -2.0518  0.8418
31871SOL     OW 2217   0.902   1.494   3.300 -0.0872 -0.3941 -0.0087
31871SOL    HW1 2218   0.813   1.527   3.286  0.6841  1.6430 -0.4438
31871SOL    HW2 2219   0.955   1.543   3.238  1.2925 -1.9305 -0.0884
31872SOL     OW 2220  10.772   4.214   2.154  0.0021  0.0241 -0.0540
31872SOL    HW1 2221  10.700   4.244   2.209 -0.3313  0.9805 -0.9892
31872SOL    HW2 2222  10.849   4.257   2.190 -0.3466  1.3861 -0.8502
31873SOL     OW 2223   1.806   9.705   6.348 -0.2068  0.0083  0.1080
31873SOL    HW1 2224   1.756   9.782   6.321  1.3729  1.2507  0.5843
31873SOL    HW2 2225   1.754   9.630   6.316 -2.3144  1.2019  0.5650
31874SOL     OW 2226  10.310   2.268  11.025 -0.3829 -0.3127 -0.1325
31874SOL    HW1 2227  10.354   2.272  11.110  0.6869  1.7588 -0.7173
31874SOL    HW2 2228  10.379   2.243  10.963 -1.3855 -2.9528 -0.3309
31875SOL     OW 2229   5.678   4.138   6.272 -0.0005  0.0133  0.5424
31875SOL    HW1 2230   5.642   4.197   6.206  0.8574 -1.3142 -1.1851
31875SOL    HW2 2231   5.605   4.080   6.294  0.2335 -0.8591 -0.8387
31876SOL     OW 2232  11.269   1.828   0.613  0.2312 -0.2166  0.1356
31876SOL    HW1 2233  11.306   1.755   0.563  0.7142 -0.7367  1.2087
31876SOL    HW2 2234  11.337   1.895   0.611 -0.4444  0.4711 -1.3466
31877SOL     OW 2235   3.964   7.791  12.148 -0.0281  0.0922  0.0524
31877SOL    HW1 2236   4.051   7.827  12.161  0.2756 -0.5562 -0.1625
31877SOL    HW2 2237   3.932   7.832  12.067  0.1034  0.2777  0.0959
31878SOL     OW 2238   2.632   3.324  10.077 -0.5491 -0.6700 -0.1415
31878SOL    HW1 2239   2.579   3.246  10.056  0.3048 -1.4330  0.4781
31878SOL    HW2 2240   2.635   3.325  10.172 -0.2677 -0.0682 -0.1585
31879SOL     OW 2241  10.999   0.370   7.238 -0.1706  0.5120 -0.4808
31879SOL    HW1 2242  11.009   0.357   7.332  1.4180  0.8126 -0.5762
31879SOL    HW2 2243  10.907   0.353   7.221 -0.0710 -1.6261  0.7959
31880SOL     OW 2244  11.079   6.704  10.396  0.1560 -0.2370  0.4163
31880SOL    HW1 2245  11.107   6.635  10.336  0.9764  0.4618 -0.0302
31880SOL    HW2 2246  11.003   6.744  10.353 -0.4379 -0.9591  0.7644
31881SOL     OW 2247   3.958   7.896   0.011 -0.1628  0.4498  0.1446
31881SOL    HW1 2248   3.957   7.888   0.107  1.0248 -0.2963  0.1206
31881SOL    HW2 2249   3.941   7.807  -0.020 -3.3756  1.1425 -0.4284
31882SOL     OW 2250  10.103   7.176  11.366 -0.3438 -0.1693 -0.2234
31882SOL    HW1 2251  10.086   7.234  11.292  1.4566  2.1661  1.0543
31882SOL    HW2 2252  10.197   7.183  11.381 -0.6421 -0.5201  2.2617
31883SOL     OW 2253   6.636  10.336   5.972  0.1461  0.2316  0.1940
31883SOL    HW1 2254   6.714  10.337   6.027 -0.8380  1.9256  1.6669
31883SOL    HW2 2255   6.621  10.243   5.954  1.8000 -0.2036  0.8727
31884SOL     OW 2256   1.419  10.198  11.420 -0.7224  0.0899 -0.2051
31884SOL    HW1 2257   1.502  10.168  11.383 -1.6862  0.4715 -2.9007
31884SOL    HW2 2258   1.429  10.292  11.430  0.1199 -0.1928  2.3028
31885SOL     OW 2259   3.986   6.326  12.386 -0.3035  0.3234  0.2489
31885SOL    HW1 2260   3.976   6.242  12.430  0.7435  0.6927  1.2483
31885SOL    HW2 2261   3.896   6.357  12.373 -0.7063 -0.9833 -0.2478
31886SOL     OW 2262   3.737  11.198   3.360  0.2508  0.4513  0.1458
31886SOL    HW1 2263   3.743  11.131   3.292  1.8185  1.1721 -0.4826
31886SOL    HW2 2264   3.796  11.267   3.331 -2.0363  2.6021  0.2693
31887SOL     OW 2265  11.198   0.551   3.564 -0.1662  0.4157 -0.1474
31887SOL    HW1 2266  11.227   0.641   3.551 -1.4845  0.6058 -2.2514
31887SOL    HW2 2267  11.271   0.497   3.533  0.5488  0.7321  0.9347
31888SOL     OW 2268   2.648   8.718  12.207 -0.0306  0.3824  0.1102
31888SOL    HW1 2269   2.636   8.682  12.119  1.9450  1.2557 -0.5697
31888SOL    HW2 2270   2.699   8.651  12.252 -0.3650  0.2839  0.3424
31889SOL     OW 2271   2.501  10.933   1.356 -0.7111  0.2408  0.2258
31889SOL    HW1 2272   2.435  10.903   1.294  0.7030  0.2113 -1.3177
31889SOL    HW2 2273   2.584  10.929   1.308  0.4460  0.2351  2.1051
31890SOL     OW 2274   1.245   2.661   5.201 -0.0690 -0.2068  0.5787
31890SOL    HW1 2275   1.253   2.719   5.125 -1.7669  0.1870  0.6487
31890SOL    HW2 2276   1.321   2.681   5.255  1.5571 -0.9746 -1.2928
31891SOL     OW 2277   9.425  11.403   4.570 -0.6656 -1.1253  0.2897
31891SOL    HW1 2278   9.341  11.402   4.523  0.5306 -0.8038 -1.9988
31891SOL    HW2 2279   9.468  11.483   4.540  1.0181 -1.9587  0.3544
31892SOL     OW 2280   9.391   7.569   2.551  0.0565 -0.0947  0.5225
31892SOL    HW1 2281   9.397   7.665   2.549  1.3594 -0.1697 -1.0896
31892SOL    HW2 2282   9.301   7.551   2.523  0.4071  0.6573 -1.2663
31893SOL     OW 2283   6.527   8.172   2.086 -0.5353 -0.1438  0.0764
31893SOL    HW1 2284   6.518   8.221   2.168  1.4184 -1.2609  1.0133
31893SOL    HW2 2285   6.508   8.081   2.110  0.5968 -0.5702 -0.5828
31894SOL     OW 2286   0.607   8.361  11.191 -0.1278  1.0052  0.6666
31894SOL    HW1 2287   0.700   8.343  11.176 -0.3722  0.3350 -0.0788
31894SOL    HW2 2288   0.604   8.398  11.280  0.6718 -0.3376  1.2823
31895SOL     OW 2289   5.694   3.171  10.062  0.1810  0.4436  0.1522
31895SOL    HW1 2290   5.655   3.235  10.122  0.9420  0.2352  0.8841
31895SOL    HW2 2291   5.772   3.215  10.028 -0.1717  0.5076 -0.5881
31896SOL     OW 2292   5.854   3.970   6.163  0.0485  0.0504 -0.2590
31896SOL    HW1 2293   5.889   3.941   6.247  0.7173  0.2789 -0.4587
31896SOL    HW2 2294   5.801   4.047   6.185 -0.1870 -0.1826  0.0141
31897SOL     OW 2295   2.505   1.124   0.590 -0.3468 -0.4197  0.0647
31897SOL    HW1 2296   2.590   1.100   0.627 -0.3018 -1.6031 -0.7334
31897SOL    HW2 2297   2.455   1.042   0.590 -1.8082  0.4206  1.2775
31898SOL     OW 2298   8.635  10.857   2.122  0.3747  0.5914 -0.3734
31898SOL    HW1 2299   8.666  10.771   2.094 -0.7118 -0.7306  2.2660
31898SOL    HW2 2300   8.682  10.874   2.203 -1.1029  1.4496  0.3303
31899SOL     OW 2301   1.401   7.503   0.198  0.0346 -0.5172 -0.5267
31899SOL    HW1 2302   1.337   7.460   0.255 -1.2482  0.9952 -0.7849
31899SOL    HW2 2303   1.379   7.474   0.110  1.4016 -2.0656 -0.4182
31900SOL     OW 2304   1.463   9.776   9.949 -0.4661  0.4302 -0.6809
31900SOL    HW1 2305   1.440   9.851  10.004 -0.2818  0.2872 -0.4128
31900SOL    HW2 2306   1.466   9.813   9.860 -0.3194  0.7519 -0.5439
31901SOL     OW 2307  11.076   5.312   1.234 -0.4229 -0.2178  0.2558
31901SOL    HW1 2308  11.100   5.347   1.320 -1.4759  0.5551  0.2441
31901SOL    HW2 2309  11.040   5.386   1.186 -0.6139 -0.8266 -0.5677
31902SOL     OW 2310   5.947   1.424  11.650  0.4561 -0.2881  0.1301
31902SOL    HW1 2311   5.989   1.507  11.674 -1.1574  1.0017 -1.2920
31902SOL    HW2 2312   6.011   1.357  11.676  1.9037  1.3869  1.1171
31903SOL     OW 2313   9.104   8.731   9.607 -0.3432 -0.2529 -0.2860
31903SOL    HW1 2314   9.014   8.761   9.622 -0.1945 -1.0920  3.0778
31903SOL    HW2 2315   9.103   8.638   9.631  1.4087 -0.2889 -0.2098
31904SOL     OW 2316   3.870   9.499   1.039 -0.1858 -0.2041  0.2781
31904SOL    HW1 2317   3.837   9.431   0.980  1.3450 -0.8987  0.1776
31904SOL    HW2 2318   3.832   9.478   1.124 -0.4318 -0.6504  0.0614
31905SOL     OW 2319   0.224   1.979   6.730 -0.3865  0.2691  0.4466
31905SOL    HW1 2320   0.170   2.007   6.656 -1.8109 -2.8150  0.1266
31905SOL    HW2 2321   0.314   1.982   6.697 -0.6483  2.0922 -0.2292
31906SOL     OW 2322  10.356   9.974   5.808  0.3390  0.0815 -0.4701
31906SOL    HW1 2323  10.374   9.880   5.799  2.9176  0.5543 -1.2087
31906SOL    HW2 2324  10.407  10.002   5.884  2.0883  1.3529 -2.0047
31907SOL     OW 2325  12.762   6.072   9.760  0.5207  0.1346 -0.7918
31907SOL    HW1 2326  12.761   6.109   9.848  1.2188  2.9054 -1.8194
31907SOL    HW2 2327  12.842   6.019   9.757  0.7231  0.3747  0.0985
31908SOL     OW 2328   0.668  12.519   1.739  0.5390 -0.0114 -0.3602
31908SOL    HW1 2329   0.710  12.519   1.825 -2.1897  0.6277  1.0688
31908SOL    HW2 2330   0.630  12.432   1.731 -3.3029  1.2984  1.3728
31909SOL     OW 2331   8.734   9.969   3.540  0.2754  0.0044  0.4644
31909SOL    HW1 2332   8.742   9.903   3.471 -3.2861  0.6402 -0.7953
31909SOL    HW2 2333   8.794  10.039   3.513  0.7755 -0.8250 -0.6685
31910SOL     OW 2334   3.859   5.863  11.058  0.3649 -0.4435  0.0532
31910SOL    HW1 2335   3.808   5.929  11.105 -0.6025 -1.2401  0.1748
31910SOL    HW2 2336   3.884   5.906  10.976 -0.8843 -0.1530 -0.1982
31911SOL     OW 2337   5.829   7.342   7.447 -0.2437 -0.1050  0.1989
31911SOL    HW1 2338   5.746   7.373   7.412  0.4719 -0.5503 -2.0804
31911SOL    HW2 2339   5.864   7.416   7.496 -1.1349  0.6943 -0.3536
31912SOL     OW 2340   3.953   7.330   1.898  0.1399 -0.0127  0.2361
31912SOL    HW1 2341   3.894   7.309   1.971 -0.1952  2.1832  0.6591
31912SOL    HW2 2342   3.933   7.263   1.832 -0.3349 -1.3869  1.7132
31913SOL     OW 2343   9.558  10.849   9.056 -0.0005  0.6597 -0.3118
31913SOL    HW1 2344   9.551  10.753   9.056 -0.1404  0.6335 -2.5631
31913SOL    HW2 2345   9.490  10.878   8.995  0.5783  2.1545 -0.2704
31914SOL     OW 2346  11.044  10.803   1.208 -0.0353  0.1978 -0.1228
31914SOL    HW1 2347  11.015  10.768   1.293  4.5139 -0.1250  1.5841
31914SOL    HW2 2348  11.055  10.897   1.225 -0.3445  0.3517 -0.7790
31915SOL     OW 2349   1.866   1.036   6.837 -0.2340  0.0595 -0.1285
31915SOL    HW1 2350   1.893   0.972   6.771  0.3772 -1.2232  1.2967
31915SOL    HW2 2351   1.787   0.998   6.876  0.3065 -0.0296  0.9343
31916SOL     OW 2352  12.635   9.961   1.860 -0.5188  0.3191 -0.2693
31916SOL    HW1 2353  12.708   9.947   1.920 -0.3896  1.0401 -0.2534
31916SOL    HW2 2354  12.665   9.922   1.778  0.5341  1.9243 -0.7035
31917SOL     OW 2355   0.013   7.685   1.393  0.1276  0.7997  0.2538
31917SOL    HW1 2356  -0.072   7.724   1.416 -0.6160  0.3117 -1.5019
31917SOL    HW2 2357   0.071   7.761   1.381  0.0163  1.1328  1.6243
31918SOL     OW 2358   4.436   8.824  10.856  0.6649  0.1915 -0.2942
31918SOL    HW1 2359   4.384   8.835  10.935  2.3323  0.5822  0.7911
31918SOL    HW2 2360   4.378   8.852  10.785 -0.4297  1.0943  0.9068
31919SOL     OW 2361   4.312  12.255   7.719  0.5768  0.0881  0.1357
31919SOL    HW1 2362   4.287  12.255   7.811  0.5238 -2.2992  0.1825
31919SOL    HW2 2363   4.229  12.264   7.672  0.7180  2.6982  0.2525
31920SOL     OW 2364   5.456  10.990   4.250 -0.0757 -0.7009 -0.3488
31920SOL    HW1 2365   5.510  10.977   4.328  2.9783 -1.9394 -2.4906
31920SOL    HW2 2366   5.419  10.903   4.232 -0.2800 -0.5653 -0.5931
31921SOL     OW 2367   3.487   8.597   3.625 -0.2326 -0.4810 -0.0365
31921SOL    HW1 2368   3.413   8.572   3.568 -1.4382 -2.0074  2.0356
31921SOL    HW2 2369   3.484   8.533   3.696  2.5005  0.0749  0.6644
31922SOL     OW 2370   2.702  12.176   9.297  0.2370  0.6271  0.2327
31922SOL    HW1 2371   2.701  12.259   9.248  0.7079  0.5272  0.0531
31922SOL    HW2 2372   2.757  12.194   9.373  0.6927  0.3597 -0.0273
31923SOL     OW 2373   6.761   6.016   7.232  0.3201 -0.0596  0.9126
31923SOL    HW1 2374   6.759   6.102   7.274 -1.0270 -0.4262  1.6769
31923SOL    HW2 2375   6.759   5.954   7.305 -1.1724 -0.7127  0.3498
31924SOL     OW 2376   2.856   1.457   6.148  0.1123 -0.1936 -0.1890
31924SOL    HW1 2377   2.781   1.446   6.089  0.2297 -0.5285 -0.2783
31924SOL    HW2 2378   2.929   1.414   6.102  0.0663 -1.0144  0.4785
31925SOL     OW 2379   3.685   7.346   7.929  0.2403 -0.2729  0.0744
31925SOL    HW1 2380   3.727   7.351   7.844  2.1631 -0.6003  0.9476
31925SOL    HW2 2381   3.746   7.391   7.988 -0.0960 -1.7171  1.5913
31926SOL     OW 2382   9.532  12.276   9.326 -0.1094 -0.1240  0.1955
31926SOL    HW1 2383   9.572  12.323   9.252  1.0458 -0.0965  0.8176
31926SOL    HW2 2384   9.604  12.225   9.364 -1.6282 -4.1337 -1.6777
31927SOL     OW 2385  11.456   4.505   1.554  0.6051  0.0218  0.5918
31927SOL    HW1 2386  11.441   4.573   1.488  0.3182  0.5198  1.1614
31927SOL    HW2 2387  11.368   4.480   1.583  0.7436  0.5437  1.5162
31928SOL     OW 2388  12.511   6.309   6.029 -0.2664 -0.1121 -0.6194
31928SOL    HW1 2389  12.598   6.291   5.993  0.0872  1.1698 -0.4721
31928SOL    HW2 2390  12.525   6.313   6.123  0.0809  2.5567 -0.6914
31929SOL     OW 2391   9.712  11.043  11.031 -0.0029  0.0963 -0.2770
31929SOL    HW1 2392   9.644  10.994  11.078 -0.7995  0.7240 -0.7417
31929SOL    HW2 2393   9.782  11.055  11.095  0.3017 -1.7774 -0.1991
31930SOL     OW 2394   4.088  10.328  12.638 -0.0505 -0.0861 -0.3316
31930SOL    HW1 2395   4.052  10.344  12.551  1.0335 -0.1569 -0.8159
31930SOL    HW2 2396   4.017  10.286  12.687  0.1927 -2.8286 -2.0955
31931SOL     OW 2397   5.586  11.765   3.102 -0.7296  0.0044  0.2135
31931SOL    HW1 2398   5.653  11.828   3.131  0.0738 -1.4139  1.5988
31931SOL    HW2 2399   5.597  11.761   3.007  0.8549  0.1794  0.3597
31932SOL     OW 2400  11.497   2.139   1.669  0.6108 -0.5936 -0.0449
31932SOL    HW1 2401  11.525   2.081   1.740 -2.4765  1.8989  3.6199
31932SOL    HW2 2402  11.430   2.089   1.622  3.3807 -2.6502 -2.1415
31933SOL     OW 2403  12.560   7.777   9.560 -0.7067 -0.6199 -0.3768
31933SOL    HW1 2404  12.532   7.736   9.478  1.6000 -2.2095 -0.4502
31933SOL    HW2 2405  12.593   7.863   9.534 -3.0685  0.3167 -0.5816
31934SOL     OW 2406   5.363  11.739  10.600  0.1675  0.2758 -0.5855
31934SOL    HW1 2407   5.312  11.691  10.666 -0.1293  1.2946 -0.0492
31934SOL    HW2 2408   5.301  11.754  10.528  0.4893 -0.8290 -1.1008
31935SOL     OW 2409  11.204   4.040   7.007  0.4075  0.7584 -0.1552
31935SOL    HW1 2410  11.275   4.070   6.951 -1.4945  1.9443 -2.1013
31935SOL    HW2 2411  11.220   3.947   7.020  2.6902  1.1486  0.1153
31936SOL     OW 2412   8.534   2.929   4.403 -0.7627  0.4242  0.1776
31936SOL    HW1 2413   8.450   2.929   4.359 -0.2582 -1.6501 -0.8986
31936SOL    HW2 2414   8.528   2.858   4.467  0.1160  0.3374  0.1832
31937SOL     OW 2415   1.093   9.481  10.203 -0.2829  0.0770 -0.0598
31937SOL    HW1 2416   1.088   9.531  10.121  0.6214 -1.1348 -0.8886
31937SOL    HW2 2417   1.013   9.506  10.250 -0.8823  0.7280 -1.3477
31938SOL     OW 2418  11.555   7.475   8.282  0.7816 -0.2588  0.2638
31938SOL    HW1 2419  11.521   7.540   8.343  1.5940 -0.0444  0.5009
31938SOL    HW2 2420  11.555   7.393   8.331  2.0350  0.0348  0.7808
31939SOL     OW 2421   4.058   0.127   8.551  0.2286 -0.1890  0.0925
31939SOL    HW1 2422   3.985   0.089   8.502 -0.5574  0.0858  1.0232
31939SOL    HW2 2423   4.093   0.054   8.602 -1.2068  0.2386  1.7898
31940SOL     OW 2424   7.928   8.390   7.646  0.6076  0.2414  0.4612
31940SOL    HW1 2425   7.959   8.378   7.557 -0.3859 -0.0020  0.1316
31940SOL    HW2 2426   7.963   8.315   7.695 -1.8916 -1.7453 -0.5810
31941SOL     OW 2427   8.311  11.349   7.571  0.2928 -0.1682  0.0328
31941SOL    HW1 2428   8.392  11.333   7.619  0.4540  2.3025  0.7403
31941SOL    HW2 2429   8.264  11.413   7.625 -1.1054  0.0799 -1.4235
31942SOL     OW 2430   9.607   3.833   3.340  0.2726  0.2179  0.6485
31942SOL    HW1 2431   9.558   3.915   3.327 -0.4120 -0.3752 -0.7578
31942SOL    HW2 2432   9.662   3.826   3.262  0.9378 -0.2679  1.1512
31943SOL     OW 2433  10.103   6.889   7.311  0.0337  0.1394 -0.1651
31943SOL    HW1 2434  10.016   6.849   7.306 -0.2269  0.6856 -0.0177
31943SOL    HW2 2435  10.117   6.903   7.405  0.2141  0.1973 -0.2014
31944SOL     OW 2436  11.020   6.014   7.701  0.0814 -0.1116  0.8315
31944SOL    HW1 2437  11.064   5.937   7.738  2.7220  0.3195 -1.1123
31944SOL    HW2 2438  11.038   6.008   7.607 -1.4386  1.8115  0.3673
31945SOL     OW 2439   3.467   9.391  11.128  0.4663  0.0613  0.2294
31945SOL    HW1 2440   3.522   9.454  11.083 -0.0163  0.8997  0.7941
31945SOL    HW2 2441   3.412   9.354  11.059 -0.7389  1.8187  0.1869
31946SOL     OW 2442  10.254   9.891   1.729 -0.7301 -0.1434  0.0985
31946SOL    HW1 2443  10.350   9.885   1.724 -0.7906 -0.6689 -0.6350
31946SOL    HW2 2444  10.237   9.983   1.749 -0.1002  0.1469 -0.6460
31947SOL     OW 2445   9.522   1.132   9.762  0.1418 -0.0459 -0.1311
31947SOL    HW1 2446   9.434   1.165   9.745 -0.9015 -1.7515  1.5620
31947SOL    HW2 2447   9.561   1.198   9.819 -0.2261  0.4706 -0.4709
31948SOL     OW 2448   7.081  12.485   2.827  0.3118  0.3337 -0.3461
31948SOL    HW1 2449   7.174  12.485   2.804 -0.1695  0.1482 -2.5042
31948SOL    HW2 2450   7.069  12.405   2.879  1.2441  0.0197 -0.6041
31949SOL     OW 2451   3.990  11.408   6.111 -0.2758 -0.8472 -0.1632
31949SOL    HW1 2452   4.038  11.490   6.125 -2.1952  0.4406 -0.7865
31949SOL    HW2 2453   3.904  11.424   6.150  0.1963 -3.6454  2.3592
31950SOL     OW 2454   3.578  12.040   0.345 -0.2222  0.7491 -1.1625
31950SOL    HW1 2455   3.672  12.029   0.335 -0.2929  0.4698 -1.5579
31950SOL    HW2 2456   3.540  11.980   0.281 -0.6665  0.9025 -1.0472
31951SOL     OW 2457  12.590   6.617   2.265  0.3697 -0.1443 -0.4802
31951SOL    HW1 2458  12.511   6.671   2.252 -0.0773 -0.4762  0.7113
31951SOL    HW2 2459  12.646   6.638   2.190 -0.2284  1.2071 -0.5802
31952SOL     OW 2460   0.832   0.262   2.811  0.0283  0.5186  0.0283
31952SOL    HW1 2461   0.875   0.295   2.890 -1.2936  0.0428  0.9714
31952SOL    HW2 2462   0.868   0.174   2.799  0.5716  0.7616 -0.1860
31953SOL     OW 2463   1.167   5.983   7.210  0.2283  0.1081  0.1323
31953SOL    HW1 2464   1.091   6.037   7.187 -0.6495 -0.9179  0.5084
31953SOL    HW2 2465   1.177   5.995   7.304  2.9885  3.2543 -0.3938
31954SOL     OW 2466   0.599   6.817   0.013  0.0242 -0.7347  0.6699
31954SOL    HW1 2467   0.567   6.903  -0.014  0.1427 -0.6225  0.8917
31954SOL    HW2 2468   0.694   6.828   0.021 -0.0962 -0.5265  2.0161
31955SOL     OW 2469   4.264   9.405   8.322 -0.0523 -0.4652  0.1379
31955SOL    HW1 2470   4.181   9.363   8.346 -0.7019  0.9915  0.5361
31955SOL    HW2 2471   4.258   9.418   8.228 -1.2661  1.5814  0.4333
31956SOL     OW 2472   9.995   4.799   1.806  0.5973  0.2196 -0.3454
31956SOL    HW1 2473   9.924   4.809   1.869  0.7583  0.2482 -0.1699
31956SOL    HW2 2474  10.006   4.887   1.769  0.5394  0.2150 -0.3740
31957SOL     OW 2475   9.967  10.703   5.257  0.4507  0.5683  0.4448
31957SOL    HW1 2476   9.919  10.627   5.227 -0.4971  0.5642  1.9028
31957SOL    HW2 2477  10.039  10.712   5.194  1.3987 -2.3163  0.9964
31958SOL     OW 2478   3.676   7.848   2.664  0.0396  0.4398  0.4721
31958SOL    HW1 2479   3.719   7.870   2.580 -1.1573 -0.1088 -0.3060
31958SOL    HW2 2480   3.594   7.808   2.639  0.5755 -1.7007  1.9105
31959SOL     OW 2481  12.316   0.273   6.571  0.3930  0.1613 -0.6457
31959SOL    HW1 2482  12.409   0.263   6.590  0.0530  1.4158  2.1138
31959SOL    HW2 2483  12.303   0.368   6.563 -1.1428  0.3338  2.4902
31960SOL     OW 2484   4.338   3.808   3.593 -0.1391 -0.2819  0.4131
31960SOL    HW1 2485   4.426   3.798   3.556  0.1823  0.9267  0.7824
31960SOL    HW2 2486   4.349   3.872   3.664 -1.6832  1.7165 -1.0370
31961SOL     OW 2487   3.838   0.889   6.390 -0.1296  0.2114  0.2009
31961SOL    HW1 2488   3.886   0.861   6.312 -0.3464 -0.8460  0.4344
31961SOL    HW2 2489   3.904   0.934   6.443  0.4543 -0.6378  0.2139
31962SOL     OW 2490   4.388   0.214   1.230  0.1757 -0.1780  0.2389
31962SOL    HW1 2491   4.311   0.238   1.281 -0.3538 -0.9843 -0.1685
31962SOL    HW2 2492   4.457   0.272   1.263 -1.1452  2.2852 -1.0542
31963SOL     OW 2493  12.141  11.670   3.409 -0.6394 -0.3299 -0.0933
31963SOL    HW1 2494  12.090  11.630   3.338 -2.0834  1.9298 -0.4323
31963SOL    HW2 2495  12.155  11.760   3.380  1.7474 -0.2802  1.0049
31964SOL     OW 2496   2.513   1.990   7.299  0.3659  0.5223 -0.4829
31964SOL    HW1 2497   2.465   1.955   7.375  0.3205 -0.9311 -1.1346
31964SOL    HW2 2498   2.590   2.033   7.336 -0.8202  1.8874  0.5169
31965SOL     OW 2499  10.468   9.961   8.955  0.1637  0.3008  0.0489
31965SOL    HW1 2500  10.494   9.886   8.901 -0.0805  0.2823 -0.0446
31965SOL    HW2 2501  10.538  10.025   8.943  1.0571 -0.4294  1.1798
31966SOL     OW 2502   6.039   6.777   9.894  0.2535  0.1335  0.2784
31966SOL    HW1 2503   6.104   6.750   9.959 -0.4784 -0.4978  0.7557
31966SOL    HW2 2504   6.064   6.730   9.814  0.5983  0.1856  0.3542
31967SOL     OW 2505   8.743   7.962  11.503  0.7364  0.1175  0.2083
31967SOL    HW1 2506   8.836   7.976  11.485  0.7984 -1.0590 -0.4879
31967SOL    HW2 2507   8.708   7.925  11.422 -0.8043  2.4034 -0.2620
31968SOL     OW 2508   5.385   8.144   1.567  0.8074 -0.3368 -0.0441
31968SOL    HW1 2509   5.418   8.054   1.560  1.1177 -0.1979 -0.4428
31968SOL    HW2 2510   5.464   8.198   1.568  0.6295 -0.0827  0.4813
31969SOL     OW 2511   2.598   0.457   1.435 -0.5463  0.6048  0.4052
31969SOL    HW1 2512   2.640   0.374   1.457 -1.2005 -0.7757 -2.9400
31969SOL    HW2 2513   2.507   0.434   1.417 -0.4423  1.7128 -1.9395
31970SOL     OW 2514   6.809   3.548   6.100  0.2610 -0.0818  0.5079
31970SOL    HW1 2515   6.785   3.509   6.016 -1.1938  0.5817  0.5800
31970SOL    HW2 2516   6.885   3.498   6.129 -1.4887 -2.9662  0.6059
31971SOL     OW 2517   7.595  10.511   6.684  0.6839 -0.1425 -0.3081
31971SOL    HW1 2518   7.646  10.592   6.676  1.8059 -0.9283 -1.8587
31971SOL    HW2 2519   7.593  10.476   6.594  0.6566 -2.0569  0.3959
31972SOL     OW 2520  10.856   0.776   2.024  0.0680  0.8387  0.5699
31972SOL    HW1 2521  10.774   0.781   1.975  0.7914  1.1441 -0.6369
31972SOL    HW2 2522  10.874   0.866   2.051  0.0661  0.7882  0.7412
31973SOL     OW 2523   0.080  10.241   4.730 -0.2663 -0.1253  0.0905
31973SOL    HW1 2524  -0.009  10.275   4.721  0.2474  1.0124 -1.0980
31973SOL    HW2 2525   0.136  10.319   4.728  0.6938 -0.6017  3.0851
31974SOL     OW 2526  12.239   1.150  12.060 -0.3902  0.6497 -0.0040
31974SOL    HW1 2527  12.156   1.197  12.051 -1.6052 -1.4453 -0.4033
31974SOL    HW2 2528  12.238   1.087  11.988  1.9113  1.0482 -0.4426
31975SOL     OW 2529   0.836   1.895  11.502 -0.4256 -0.0144 -0.0068
31975SOL    HW1 2530   0.922   1.855  11.519 -0.8392 -0.7306  0.4758
31975SOL    HW2 2531   0.856   1.983  11.471  0.4743 -0.0605  0.4144
31976SOL     OW 2532   7.389   3.894   6.468  0.2104 -0.2711  0.3108
31976SOL    HW1 2533   7.377   3.970   6.524  2.0477  0.7128 -0.5512
31976SOL    HW2 2534   7.366   3.925   6.380  0.1666 -0.9675  0.0658
31977SOL     OW 2535   4.068  12.308  10.310  0.6027 -0.2739 -0.0725
31977SOL    HW1 2536   4.115  12.231  10.277  0.2889  0.1058 -1.4636
31977SOL    HW2 2537   4.114  12.330  10.392  2.3726 -0.3933 -0.9700
31978SOL     OW 2538   4.826   2.232   9.121  0.0626 -0.1387 -0.1992
31978SOL    HW1 2539   4.850   2.306   9.177 -1.9735  0.6452 -0.2590
31978SOL    HW2 2540   4.778   2.272   9.048  1.5916 -1.2596 -1.9170
31979SOL     OW 2541   6.041   3.361   3.899 -0.4289 -0.5934  0.3106
31979SOL    HW1 2542   6.069   3.426   3.963  2.0115 -0.7758 -0.4831
31979SOL    HW2 2543   6.081   3.279   3.928 -1.2806 -1.1839 -0.1390
31980SOL     OW 2544   6.637   1.122   7.727  0.0532 -0.1764 -0.0054
31980SOL    HW1 2545   6.705   1.069   7.770  0.0043 -0.2353 -0.0011
31980SOL    HW2 2546   6.580   1.150   7.798 -2.3694 -3.5530 -0.3747
31981SOL     OW 2547  11.504   8.250   5.371 -0.2073  0.5171 -0.5318
31981SOL    HW1 2548  11.495   8.342   5.346  0.7967  0.7776  0.0149
31981SOL    HW2 2549  11.512   8.252   5.467 -0.3713 -0.1576 -0.4980
31982SOL     OW 2550  12.304  11.008   6.702 -0.3018  0.6656  0.0858
31982SOL    HW1 2551  12.227  11.042   6.749 -0.8416 -1.2363  0.6667
31982SOL    HW2 2552  12.378  11.051   6.743 -0.8625  0.0947  1.7700
31983SOL     OW 2553   0.977   5.132   0.961  0.2382  0.0180  0.1579
31983SOL    HW1 2554   0.939   5.208   1.005  1.5320 -0.1337  1.6198
31983SOL    HW2 2555   0.945   5.056   1.011  0.8161 -0.2301  0.1623
31984SOL     OW 2556   3.398   7.533  12.368 -0.3958 -0.2447  0.2549
31984SOL    HW1 2557   3.486   7.539  12.408 -0.3088 -1.1775  0.2132
31984SOL    HW2 2558   3.403   7.590  12.292 -0.1510  0.5287  0.8275
31985SOL     OW 2559   8.844   8.027   1.439  0.7959  0.0212 -0.4093
31985SOL    HW1 2560   8.819   8.117   1.419  1.1264  0.1560 -0.2267
31985SOL    HW2 2561   8.928   8.015   1.393  1.2159  0.1106  0.3163
31986SOL     OW 2562   6.418   7.592  10.368  0.4386 -0.6009 -0.4231
31986SOL    HW1 2563   6.507   7.627  10.363  0.5619 -0.8446  0.0202
31986SOL    HW2 2564   6.429   7.506  10.409  0.1548 -1.2085 -1.5918
31987SOL     OW 2565   0.054  11.921   1.122 -0.0965 -0.1469  0.2015
31987SOL    HW1 2566  -0.041  11.923   1.111 -0.1406 -1.3886  0.2045
31987SOL    HW2 2567   0.088  11.949   1.037 -0.4488  0.8076  0.3605
31988SOL     OW 2568  12.581   1.115   7.149  0.3469  0.9063  0.5007
31988SOL    HW1 2569  12.499   1.163   7.159  0.8304  2.1214 -0.9323
31988SOL    HW2 2570  12.566   1.054   7.078 -1.0572 -3.0866  3.8395
31989SOL     OW 2571   0.203   0.465  10.163 -0.2657 -0.0843  0.5204
31989SOL    HW1 2572   0.266   0.394  10.154  0.8589  0.7511  1.3576
31989SOL    HW2 2573   0.169   0.456  10.252  0.8450  1.1420  1.0971
31990SOL     OW 2574   6.924   2.794   5.015 -1.0439  0.0122 -0.6700
31990SOL    HW1 2575   6.876   2.838   5.085 -0.3391  0.4230 -0.4427
31990SOL    HW2 2576   6.957   2.714   5.055  0.2709  0.7538 -0.2022
31991SOL     OW 2577   5.672   2.572   2.387  0.3101  0.6007 -0.1122
31991SOL    HW1 2578   5.626   2.501   2.432  1.8971  0.8622  2.1350
31991SOL    HW2 2579   5.756   2.577   2.433  1.0512  2.5774 -1.5902
31992SOL     OW 2580   8.976   6.577   1.921  0.9622  0.0903  0.8837
31992SOL    HW1 2581   8.953   6.593   1.829 -1.1312 -0.0204  1.3359
31992SOL    HW2 2582   9.008   6.661   1.953  0.7492  0.3899  0.3146
31993SOL     OW 2583  11.412  10.001   9.422  0.1175 -0.3540  0.1200
31993SOL    HW1 2584  11.483  10.003   9.358 -0.8829  0.4114 -1.0036
31993SOL    HW2 2585  11.457   9.997   9.507  1.5510  1.6078 -0.4656
31994SOL     OW 2586   9.672   3.215   3.139  0.3430 -0.6932  0.0331
31994SOL    HW1 2587   9.651   3.132   3.180 -0.7521 -0.6635 -0.4313
31994SOL    HW2 2588   9.696   3.273   3.211  1.6945 -1.5536  0.3074
31995SOL     OW 2589   0.762  10.861   0.163 -0.0345 -0.3119  0.2845
31995SOL    HW1 2590   0.830  10.856   0.230  1.4131 -0.0811 -1.1272
31995SOL    HW2 2591   0.684  10.824   0.206  0.5607  0.7311  2.4108
31996SOL     OW 2592   5.213   3.589   4.384  0.0769 -0.5093  0.7118
31996SOL    HW1 2593   5.260   3.555   4.308 -1.1185 -1.3772  0.3345
31996SOL    HW2 2594   5.282   3.620   4.444  1.0573 -0.5979 -0.3459
31997SOL     OW 2595   4.465  10.504   0.314  0.1404  0.0882  0.0200
31997SOL    HW1 2596   4.551  10.463   0.324 -0.1477 -0.2905  1.1160
31997SOL    HW2 2597   4.403  10.440   0.349 -0.4739  0.7934  0.2527
31998SOL     OW 2598   8.729   7.807   7.907  0.8901 -0.2015  0.2533
31998SOL    HW1 2599   8.675   7.815   7.827 -0.5996  0.0735  1.2464
31998SOL    HW2 2600   8.753   7.714   7.909  0.1248 -0.4160 -0.0114
31999SOL     OW 2601   1.934   2.234   5.038  0.2853 -0.4319  0.3927
31999SOL    HW1 2602   1.915   2.257   4.947  2.2939 -2.0679 -0.5165
31999SOL    HW2 2603   1.914   2.141   5.044 -1.6576  0.0242  2.2350
32000SOL     OW 2604  10.280  11.139   5.200  0.4017  0.2833  0.5505
32000SOL    HW1 2605  10.256  11.214   5.255  0.5494 -1.4864  3.2289
32000SOL    HW2 2606  10.324  11.178   5.124  1.1949  2.8708  2.1922
32001SOL     OW 2607   6.349   9.784  12.165 -0.2577 -0.1437  0.6437
32001SOL    HW1 2608   6.438   9.815  12.148  0.0343  0.4164  2.8836
32001SOL    HW2 2609   6.300   9.808  12.086  1.3383  0.4173 -0.2255
32002SOL     OW 2610   1.418   0.593   7.744 -0.7770 -0.0464 -0.2508
32002SOL    HW1 2611   1.372   0.664   7.699  0.2408  1.1579  0.5329
32002SOL    HW2 2612   1.373   0.585   7.828  0.8445  1.7349  0.8908
32003SOL     OW 2613   8.218   5.134  12.369 -0.2705  0.1901 -0.7753
32003SOL    HW1 2614   8.281   5.169  12.305  0.8775 -0.5919 -0.1124
32003SOL    HW2 2615   8.191   5.211  12.419  2.7941  0.1677  1.1589
32004SOL     OW 2616   6.201  11.472   8.908 -0.4595  0.2028  0.6129
32004SOL    HW1 2617   6.179  11.507   8.994  1.6387  0.3813  1.1245
32004SOL    HW2 2618   6.251  11.541   8.865  0.7697 -0.8356  0.2974
32005SOL     OW 2619  12.049   4.049  11.815 -0.6392 -0.1563 -0.2339
32005SOL    HW1 2620  12.099   4.116  11.861  1.5824 -1.3897 -0.7203
32005SOL    HW2 2621  11.988   4.015  11.880  0.9354 -0.3599  1.1987
32006SOL     OW 2622   1.048   5.545  11.839  0.0014  0.5591  0.4860
32006SOL    HW1 2623   1.075   5.637  11.840  2.4535 -0.0885  1.3362
32006SOL    HW2 2624   1.050   5.518  11.931 -3.4317  0.2919  0.6074
32007SOL     OW 2625  10.380   5.472  11.180  0.1912 -0.0223  0.4250
32007SOL    HW1 2626  10.314   5.473  11.111 -0.5747  1.2529  1.1436
32007SOL    HW2 2627  10.336   5.432  11.255  1.2535 -2.1100  0.0046
32008SOL     OW 2628   2.744   7.474   4.626  0.0130  0.4715 -0.4734
32008SOL    HW1 2629   2.806   7.437   4.563  1.1337 -0.6732  1.1972
32008SOL    HW2 2630   2.661   7.431   4.607  0.4813 -0.3000 -0.8035
32009SOL     OW 2631   8.126  10.479   4.559  0.4401 -0.0911  0.1351
32009SOL    HW1 2632   8.214  10.509   4.582  0.1659 -0.4652  1.7646
32009SOL    HW2 2633   8.105  10.413   4.626 -1.0622 -0.0393 -0.2647
32010SOL     OW 2634   7.475   6.048   3.181 -0.0614  0.1110  0.3734
32010SOL    HW1 2635   7.509   6.099   3.108  1.7033  1.7879  2.2689
32010SOL    HW2 2636   7.548   5.991   3.207 -1.9160 -3.5700 -1.6226
32011SOL     OW 2637   5.566   3.247   2.118 -0.7558 -0.3025  0.1609
32011SOL    HW1 2638   5.489   3.259   2.063  0.6110  0.8162 -1.5786
32011SOL    HW2 2639   5.538   3.276   2.205 -2.2985  0.0641 -0.4323
32012SOL     OW 2640   7.797   4.924   2.295 -0.9710  0.9923 -0.0151
32012SOL    HW1 2641   7.856   4.980   2.346 -1.2874 -0.8385  2.5763
32012SOL    HW2 2642   7.730   4.983   2.262 -0.0954  2.4560  0.7350
32013SOL     OW 2643   9.232   1.021   0.820  0.0262 -0.4851 -0.3051
32013SOL    HW1 2644   9.252   1.058   0.906 -3.8533  0.0336  0.5590
32013SOL    HW2 2645   9.265   1.086   0.757  2.2584 -0.5295  0.7252
32014SOL     OW 2646   7.046  12.775   8.589 -0.2015  0.3245  0.5971
32014SOL    HW1 2647   7.120  12.769   8.529 -0.8648  0.4124 -0.2502
32014SOL    HW2 2648   6.977  12.816   8.537 -1.5948 -1.8686  0.6266
32015SOL     OW 2649   3.551   6.846   8.039 -0.1126  0.0707 -0.4908
32015SOL    HW1 2650   3.641   6.875   8.052 -0.3779  0.2268  1.1122
32015SOL    HW2 2651   3.505   6.870   8.119 -1.0365 -2.0585 -0.2927
32016SOL     OW 2652  11.335  10.356   6.364  0.4495 -0.2486 -0.0324
32016SOL    HW1 2653  11.307  10.270   6.395  0.1720  0.2120  1.0402
32016SOL    HW2 2654  11.323  10.413   6.440  3.3190  0.1884  0.1735
32017SOL     OW 2655  10.994   1.887   5.794  0.2392  0.3752 -0.2999
32017SOL    HW1 2656  10.905   1.852   5.800  0.6616 -0.8589 -0.9974
32017SOL    HW2 2657  11.029   1.851   5.712  1.1945  1.2960 -0.3191
32018SOL     OW 2658   3.146  12.477   7.169  0.2413  0.7453  0.2308
32018SOL    HW1 2659   3.235  12.492   7.202  0.4035  0.9615 -0.2886
32018SOL    HW2 2660   3.120  12.562   7.132 -0.1600  0.6647  0.3292
32019SOL     OW 2661   6.126  10.252  11.616  0.0671 -0.1491 -0.2835
32019SOL    HW1 2662   6.106  10.288  11.702  0.9979 -0.4867  0.0863
32019SOL    HW2 2663   6.045  10.210  11.587  0.0372 -0.9155  0.8737
32020SOL     OW 2664   8.838   7.687   6.375 -0.1228  0.4134 -0.4365
32020SOL    HW1 2665   8.891   7.610   6.355 -0.5016 -0.1210  0.5330
32020SOL    HW2 2666   8.884   7.731   6.447  0.5239  1.5644 -1.5179
32021SOL     OW 2667   5.056   0.593   8.986 -0.0829  0.1546 -0.2963
32021SOL    HW1 2668   4.996   0.567   9.055  2.0668  2.0120  2.5493
32021SOL    HW2 2669   5.007   0.655   8.932 -1.1339  0.5792  1.1097
32022SOL     OW 2670   2.134  10.941  11.481 -0.5417  0.1997  0.0513
32022SOL    HW1 2671   2.113  10.978  11.396 -1.1462 -1.1319 -0.4094
32022SOL    HW2 2672   2.158  10.850  11.462  1.8255  0.5589  1.0191
32023SOL     OW 2673   3.137   2.826   7.501  0.7702  0.1564 -0.4442
32023SOL    HW1 2674   3.079   2.777   7.560  1.3060  2.1237  1.8999
32023SOL    HW2 2675   3.086   2.904   7.477  2.1034  1.6577  1.2416
32024SOL     OW 2676  11.645   3.411   5.724  0.7434 -1.0097 -0.3457
32024SOL    HW1 2677  11.660   3.337   5.783  0.6502  0.6266  1.8479
32024SOL    HW2 2678  11.555   3.400   5.694  0.4540 -1.3493  0.6186
32025SOL     OW 2679   9.604  12.588   9.959 -1.1074  0.0363 -0.1555
32025SOL    HW1 2680   9.660  12.653   9.917 -1.7720  0.2680 -0.7079
32025SOL    HW2 2681   9.610  12.511   9.901 -0.7763 -0.1938  0.1844
32026SOL     OW 2682   0.971   5.221   3.709  0.5395 -0.1758 -0.3045
32026SOL    HW1 2683   0.956   5.129   3.686  0.0728  0.0538 -0.9457
32026SOL    HW2 2684   0.964   5.268   3.626  3.2221  0.1886 -0.3997
32027SOL     OW 2685   0.755   8.477  10.815  0.1285  0.1740 -0.6303
32027SOL    HW1 2686   0.752   8.405  10.753 -0.4379  0.4571 -0.9378
32027SOL    HW2 2687   0.780   8.437  10.898  0.5302 -0.2596 -0.9614
32028SOL     OW 2688   3.095  11.047   0.841 -0.0264 -0.3377  0.2652
32028SOL    HW1 2689   3.033  10.983   0.875 -1.6432  0.0043 -1.8591
32028SOL    HW2 2690   3.181  11.005   0.851 -0.9588 -2.5088 -0.3213
32029SOL     OW 2691  10.834   1.496   1.617  0.2584  1.1455 -0.7698
32029SOL    HW1 2692  10.772   1.482   1.688  1.3238  2.1462  0.3851
32029SOL    HW2 2693  10.779   1.517   1.541 -0.8273  1.6440  0.1303
32030SOL     OW 2694   0.702  11.065  11.668  0.5834 -0.3242 -0.2157
32030SOL    HW1 2695   0.607  11.068  11.679  0.5985  0.5345 -0.2824
32030SOL    HW2 2696   0.733  11.148  11.705  1.1982 -0.0810 -1.2506
32031SOL     OW 2697   5.391   4.714   4.317  0.1416 -0.3145  0.1528
32031SOL    HW1 2698   5.299   4.718   4.290 -0.4766  1.1487  2.2146
32031SOL    HW2 2699   5.406   4.623   4.341 -0.3024 -0.8806 -1.5541
32032SOL     OW 2700   3.303   3.147   6.567  0.1935  0.0952 -0.2163
32032SOL    HW1 2701   3.308   3.131   6.473  1.2987 -0.5908 -0.0544
32032SOL    HW2 2702   3.393   3.145   6.597 -0.2436 -2.9463  1.3547
32033SOL     OW 2703   7.499  10.765   8.852  0.1473  0.2393 -0.0031
32033SOL    HW1 2704   7.539  10.739   8.769  1.3017 -0.3493  0.7030
32033SOL    HW2 2705   7.561  10.733   8.919 -2.0480 -1.7627  1.2353
32034SOL     OW 2706  11.346  12.445   0.800 -0.1698  0.1082 -0.4445
32034SOL    HW1 2707  11.317  12.536   0.799 -2.0873 -0.4391  0.3028
32034SOL    HW2 2708  11.431  12.447   0.842 -1.2779  1.3215  1.9270
32035SOL     OW 2709   6.785   0.421   6.560 -0.4013  0.2727  0.2112
32035SOL    HW1 2710   6.738   0.447   6.481 -1.5688  2.0605  1.4203
32035SOL    HW2 2711   6.789   0.500   6.613 -0.3505 -1.0533  2.3036
32036SOL     OW 2712   1.395   1.481  10.851 -0.6218 -0.6744 -0.6088
32036SOL    HW1 2713   1.466   1.519  10.903 -1.9934 -0.1217  0.9519
32036SOL    HW2 2714   1.393   1.389  10.877 -0.9307 -0.5256 -0.0777
32037SOL     OW 2715  11.768   0.572   3.974 -0.2853 -0.1613 -0.1576
32037SOL    HW1 2716  11.694   0.572   3.912  0.1336  1.4737 -0.7129
32037SOL    HW2 2717  11.799   0.482   3.974 -1.7410 -0.6873 -0.5878
32038SOL     OW 2718   8.278   6.816  10.642  0.5506 -0.2339  0.5102
32038SOL    HW1 2719   8.263   6.907  10.615  0.7670 -0.2145  0.4517
32038SOL    HW2 2720   8.372   6.801  10.625  0.4272 -0.5990  0.1141
32039SOL     OW 2721  11.029   0.039  12.446  0.9450  0.0224 -0.1388
32039SOL    HW1 2722  11.010   0.033  12.352 -1.8583  0.4562  0.3176
32039SOL    HW2 2723  11.002   0.128  12.471 -0.0933 -0.6682  1.3763
32040SOL     OW 2724   5.971   5.926  10.481 -0.6912 -0.5453  0.3496
32040SOL    HW1 2725   6.016   5.873  10.548 -0.1575  1.0131  1.2747
32040SOL    HW2 2726   5.878   5.910  10.497 -0.5456 -2.3433 -0.3664
32041SOL     OW 2727   4.691   7.765   7.758 -0.5976  0.2518 -0.2581
32041SOL    HW1 2728   4.621   7.768   7.692  0.4315  1.7120 -1.3477
32041SOL    HW2 2729   4.684   7.849   7.803  0.8791  0.7037 -0.8466
32042SOL     OW 2730  12.405   8.624   2.278  0.2023  0.5483 -0.1294
32042SOL    HW1 2731  12.333   8.682   2.253  0.0367  0.2807 -0.2847
32042SOL    HW2 2732  12.396   8.614   2.372 -1.5321 -1.4928 -0.4302
32043SOL     OW 2733  10.775   2.177   7.972 -0.1893  0.2693 -0.3140
32043SOL    HW1 2734  10.807   2.149   8.057 -1.2348 -0.0253 -0.0008
32043SOL    HW2 2735  10.845   2.230   7.936 -0.0230  1.0184  1.0521
32044SOL     OW 2736   4.230   9.141   6.242 -0.0233  0.1297 -0.2437
32044SOL    HW1 2737   4.147   9.183   6.263  0.2314  1.0061 -0.9087
32044SOL    HW2 2738   4.285   9.213   6.209  1.0568 -0.4008  0.3624
32045SOL     OW 2739   6.439   4.643  11.379 -0.0532 -0.2406 -0.4010
32045SOL    HW1 2740   6.529   4.626  11.408 -0.4560 -1.0711  0.3966
32045SOL    HW2 2741   6.390   4.655  11.460 -0.9648 -1.3473 -0.7770
32046SOL     OW 2742   9.639   9.026  11.631 -0.2613 -0.0981 -0.1032
32046SOL    HW1 2743   9.567   9.034  11.569 -0.8617  0.6690  0.6516
32046SOL    HW2 2744   9.682   9.111  11.628  1.1332 -0.8183 -1.1413
32047SOL     OW 2745   1.593   7.447   4.225  0.3297  0.1154  0.5873
32047SOL    HW1 2746   1.653   7.442   4.299  0.5256  0.3436  0.4439
32047SOL    HW2 2747   1.564   7.539   4.224 -0.1492 -0.0298  0.7601
32048SOL     OW 2748   2.597   5.460   5.211 -0.3290 -0.4101 -0.3802
32048SOL    HW1 2749   2.678   5.412   5.232 -0.5016 -1.0709 -1.1431
32048SOL    HW2 2750   2.528   5.395   5.222 -0.8680  0.3480  0.9989
32049SOL     OW 2751   6.733   0.354   5.349 -0.7844  0.4516 -0.2036
32049SOL    HW1 2752   6.754   0.446   5.360  0.1069  0.3068 -0.5020
32049SOL    HW2 2753   6.747   0.338   5.255  2.2107 -0.6568  0.2968
32050SOL     OW 2754   7.663  10.711   3.031  0.4462 -0.4367  0.2740
32050SOL    HW1 2755   7.725  10.667   2.973  1.2264  0.4731  0.3912
32050SOL    HW2 2756   7.640  10.792   2.985 -0.8526 -0.8711  0.1223
32051SOL     OW 2757   8.694   9.199  12.197  0.3033  0.5155 -0.3655
32051SOL    HW1 2758   8.637   9.192  12.274  0.0231  0.5906 -0.5651
32051SOL    HW2 2759   8.634   9.209  12.123  0.5950  1.1658 -0.5154
32052SOL     OW 2760   5.154   7.508  10.165 -0.1177  0.2506  0.0831
32052SOL    HW1 2761   5.242   7.479  10.138  0.9377  1.3611  2.1030
32052SOL    HW2 2762   5.150   7.600  10.138 -0.1144  0.5791  1.1443
32053SOL     OW 2763   1.915   0.019   8.091 -0.4707  0.3149  0.0500
32053SOL    HW1 2764   1.924  -0.074   8.072 -1.4072 -0.0483  1.2229
32053SOL    HW2 2765   1.939   0.027   8.184  1.7765  1.6240 -0.5565
32054SOL     OW 2766   8.005   1.037   0.806 -0.0693 -0.2251  0.2097
32054SOL    HW1 2767   8.089   0.991   0.802  1.8249  2.9728 -1.5202
32054SOL    HW2 2768   7.971   1.032   0.716 -1.3249 -0.7159  0.6927
32055SOL     OW 2769   6.533   2.104   2.967 -0.1957 -0.4315  0.2913
32055SOL    HW1 2770   6.480   2.036   3.008 -1.5567  1.1727  1.2904
32055SOL    HW2 2771   6.476   2.180   2.961  1.0900  0.4867 -1.3395
32056SOL     OW 2772  10.126   2.439  12.661 -0.1546 -0.3423  0.3615
32056SOL    HW1 2773  10.063   2.468  12.727 -0.4732 -2.4302  1.0484
32056SOL    HW2 2774  10.205   2.419  12.710 -0.1216 -1.1142  0.0049
32057SOL     OW 2775   6.123   9.247   6.831 -0.0232  0.3952  0.2069
32057SOL    HW1 2776   6.162   9.328   6.863 -0.9814  1.8691 -2.1007
32057SOL    HW2 2777   6.131   9.252   6.735 -2.5271 -0.9285 -0.1672
32058SOL     OW 2778   9.271  10.766   9.164  0.1382  0.5274  0.1739
32058SOL    HW1 2779   9.210  10.827   9.121 -0.2782 -0.1130 -0.1553
32058SOL    HW2 2780   9.304  10.711   9.094 -1.2639 -1.1555  0.7624
32059SOL     OW 2781   0.083   5.850   7.957  0.0225 -0.0973 -0.0466
32059SOL    HW1 2782   0.178   5.852   7.970  0.1481 -2.8778  0.0970
32059SOL    HW2 2783   0.052   5.930   7.998  2.3164  0.9663 -0.2143
32060SOL     OW 2784   1.755   8.822   2.804  0.4655  0.1842  0.6011
32060SOL    HW1 2785   1.817   8.829   2.876  0.8570  0.2303  0.2656
32060SOL    HW2 2786   1.765   8.732   2.773 -0.5668 -0.2116  1.3658
32061SOL     OW 2787   4.566   1.359   7.433 -0.2252  0.2159 -0.5985
32061SOL    HW1 2788   4.503   1.309   7.484  1.0944  0.2549  1.1439
32061SOL    HW2 2789   4.513   1.420   7.382 -1.6158 -0.0809  0.4501
32062SOL     OW 2790  10.471   1.272  10.881 -0.2146  0.0958 -0.1279
32062SOL    HW1 2791  10.531   1.344  10.900 -0.4452 -0.1595  1.7040
32062SOL    HW2 2792  10.520   1.215  10.821  0.6371  0.8469 -0.1609
32063SOL     OW 2793   2.239  11.305   9.412  0.7215  0.1994 -0.2509
32063SOL    HW1 2794   2.205  11.273   9.496  0.4436  2.7162  0.6809
32063SOL    HW2 2795   2.269  11.227   9.367 -0.5108 -1.4125  1.5621
32064SOL     OW 2796   4.512   1.477   1.123 -0.4874 -0.4344  0.0270
32064SOL    HW1 2797   4.492   1.557   1.173  0.3418 -0.8734  1.0880
32064SOL    HW2 2798   4.579   1.505   1.061 -0.9915 -0.0553 -0.3576
32065SOL     OW 2799   7.284   9.093   6.688  0.5652 -0.2123  0.4608
32065SOL    HW1 2800   7.301   9.182   6.718  0.0654 -0.2169  0.7678
32065SOL    HW2 2801   7.303   9.095   6.594 -0.9750  0.6373  0.1348
32066SOL     OW 2802   6.635   1.921   8.736 -0.1718 -0.2241  0.0813
32066SOL    HW1 2803   6.568   1.946   8.800 -1.7618 -2.5776 -0.5159
32066SOL    HW2 2804   6.709   1.891   8.789 -0.2210  0.8128  0.7614
32067SOL     OW 2805  10.862  10.842   7.770  0.2759 -0.3359  0.0234
32067SOL    HW1 2806  10.825  10.778   7.710  2.6150 -0.1085 -1.8352
32067SOL    HW2 2807  10.912  10.789   7.833  0.1111 -0.4635  0.0464
32068SOL     OW 2808   6.425   6.205   4.933 -0.3682  0.1543 -0.6019
32068SOL    HW1 2809   6.429   6.190   4.839 -0.2221  0.6016 -0.6696
32068SOL    HW2 2810   6.480   6.135   4.970 -1.3768 -0.7429 -0.7571
32069SOL     OW 2811   5.846  12.432   5.855 -0.0840 -0.1824  0.5813
32069SOL    HW1 2812   5.758  12.434   5.818 -0.2187 -2.2349  0.6879
32069SOL    HW2 2813   5.833  12.451   5.948 -0.3585  0.0067  0.5049
32070SOL     OW 2814   1.234   1.624   6.696  0.1056 -0.0107  0.3753
32070SOL    HW1 2815   1.192   1.539   6.691 -0.2611  0.2171 -0.6930
32070SOL    HW2 2816   1.317   1.613   6.651  0.2083  0.1086  0.5347
32071SOL     OW 2817   1.263   6.450   2.730 -0.3958 -0.0902 -0.2588
32071SOL    HW1 2818   1.185   6.488   2.771 -0.9420 -1.9746  0.6064
32071SOL    HW2 2819   1.280   6.506   2.654 -2.3850  0.6044 -0.2666
32072SOL     OW 2820   2.147   7.735  12.002 -0.5031 -0.6504 -0.0171
32072SOL    HW1 2821   2.213   7.670  12.028 -1.1254 -0.1644  3.2648
32072SOL    HW2 2822   2.088   7.740  12.078  0.3218  4.7329  0.6299
32073SOL     OW 2823   0.978  11.119   1.529  0.1080 -0.2855  0.2472
32073SOL    HW1 2824   0.982  11.024   1.544  1.0975 -0.5540 -1.4781
32073SOL    HW2 2825   1.059  11.152   1.570 -0.3309 -0.1372  1.0180
32074SOL     OW 2826  12.484   4.984   5.259  0.1030  0.0754 -0.3853
32074SOL    HW1 2827  12.539   4.907   5.274  0.6583  0.5305  0.0170
32074SOL    HW2 2828  12.395   4.952   5.264  0.3248 -0.4913  0.1138
32075SOL     OW 2829  12.165   0.015  11.967 -0.4721  0.1188 -0.0792
32075SOL    HW1 2830  12.239  -0.027  12.011 -0.4492 -0.3873 -0.5873
32075SOL    HW2 2831  12.198   0.036  11.880 -1.0577 -0.5077 -0.4566
32076SOL     OW 2832   7.169   7.743   5.844 -0.6160  0.0240 -0.1512
32076SOL    HW1 2833   7.170   7.766   5.937 -1.2482  0.6976 -0.2958
32076SOL    HW2 2834   7.135   7.822   5.801  1.5100  0.4523 -1.1663
32077SOL     OW 2835   6.037   4.747   6.415  0.0235 -0.1080  0.3107
32077SOL    HW1 2836   6.101   4.744   6.344  1.3755 -0.2711  1.4824
32077SOL    HW2 2837   6.057   4.670   6.468 -1.6211 -0.5519  0.3448
32078SOL     OW 2838   4.369   3.368  10.369  0.5272 -0.2303  0.2301
32078SOL    HW1 2839   4.400   3.431  10.434 -2.3360  0.8654  0.6954
32078SOL    HW2 2840   4.346   3.421  10.293 -0.3008 -0.9239 -0.0212
32079SOL     OW 2841   1.613  11.749  10.357  0.0146  0.0367 -0.2650
32079SOL    HW1 2842   1.659  11.728  10.275 -1.3766  0.1626 -1.1179
32079SOL    HW2 2843   1.558  11.673  10.374  0.2241  0.0516  0.5148
32080SOL     OW 2844   5.996  10.501   7.367 -0.0354  0.0555  0.1065
32080SOL    HW1 2845   5.959  10.556   7.298  2.2343  0.4796 -0.8639
32080SOL    HW2 2846   6.034  10.563   7.430 -1.0945 -0.3582  1.2126
32081SOL     OW 2847   4.823   9.571  10.722  0.0278 -0.0161  0.0230
32081SOL    HW1 2848   4.768   9.557  10.799 -1.2636  0.6440 -0.7485
32081SOL    HW2 2849   4.837   9.484  10.686 -1.1604 -0.1362 -0.1822
32082SOL     OW 2850   7.534   5.783   4.359 -0.3350 -0.8423  0.0563
32082SOL    HW1 2851   7.482   5.752   4.434 -1.1785 -2.0749 -1.0041
32082SOL    HW2 2852   7.611   5.726   4.359 -0.5694 -1.1602 -0.2952
32083SOL     OW 2853   2.698   4.164   2.766  0.4067  0.4679 -0.1654
32083SOL    HW1 2854   2.714   4.241   2.710  1.3363 -0.4602 -1.2367
32083SOL    HW2 2855   2.608   4.174   2.795  0.3280  1.6718 -0.7507
32084SOL     OW 2856   3.313   1.119   3.219 -0.5198  0.5561  0.3384
32084SOL    HW1 2857   3.220   1.100   3.216 -0.4883  0.2774  0.9392
32084SOL    HW2 2858   3.355   1.033   3.227 -0.2970  0.7604  1.6281
32085SOL     OW 2859   7.780   6.770   2.536  0.0179  0.3995 -0.6630
32085SOL    HW1 2860   7.823   6.700   2.585 -1.5513 -0.5301 -0.5504
32085SOL    HW2 2861   7.742   6.827   2.604  0.3221  0.7358 -0.7719
32086SOL     OW 2862   6.881   4.250  12.779  0.4116  0.2520  0.0104
32086SOL    HW1 2863   6.799   4.237  12.827  0.5311  2.2609  0.8691
32086SOL    HW2 2864   6.947   4.209  12.834  0.1751 -0.0375  0.0835
32087SOL     OW 2865   4.280   8.687   9.751 -0.5011  1.0299  0.2012
32087SOL    HW1 2866   4.186   8.667   9.753 -0.6700  1.7735  2.0984
32087SOL    HW2 2867   4.304   8.681   9.658 -1.7717 -1.9626 -0.0727
32088SOL     OW 2868   5.323   6.536   4.906  0.1760  0.5272 -0.1174
32088SOL    HW1 2869   5.242   6.553   4.857 -1.4733 -0.6589  2.0143
32088SOL    HW2 2870   5.341   6.619   4.950  1.2805  1.3883 -2.0692
32089SOL     OW 2871   8.787   8.315   7.694 -0.6057  0.0922 -0.7602
32089SOL    HW1 2872   8.851   8.279   7.632  0.4478 -3.1236  1.9074
32089SOL    HW2 2873   8.719   8.248   7.700 -1.7015  1.2443  0.0768
32090SOL     OW 2874   3.447  10.784  12.707  0.2920  0.0214  0.4212
32090SOL    HW1 2875   3.361  10.803  12.743  0.3249  0.5303  0.2339
32090SOL    HW2 2876   3.464  10.693  12.733 -0.2736 -0.0641  0.5029
32091SOL     OW 2877   1.434  10.975   2.146 -0.0490  0.6807 -0.6727
32091SOL    HW1 2878   1.483  10.903   2.107  0.8910  1.0243 -0.1423
32091SOL    HW2 2879   1.365  10.932   2.197 -0.6360  0.2085 -1.8377
32092SOL     OW 2880   6.508   0.597  10.981 -0.2707 -0.0845  0.4335
32092SOL    HW1 2881   6.561   0.632  10.909 -1.1586 -0.5216 -0.4731
32092SOL    HW2 2882   6.549   0.514  11.003 -0.2010 -0.1231  0.1697
32093SOL     OW 2883   1.250   6.539   8.079  0.2096 -0.9202  0.1197
32093SOL    HW1 2884   1.219   6.539   8.169 -1.5424 -0.2364 -0.4429
32093SOL    HW2 2885   1.312   6.612   8.075  0.1613 -0.8444  0.7374
32094SOL     OW 2886  11.250   3.412   2.285  0.4911  0.1383  0.0479
32094SOL    HW1 2887  11.230   3.465   2.363 -1.9390 -0.5385 -0.0099
32094SOL    HW2 2888  11.183   3.437   2.222  0.0006 -2.0986 -0.4093
32095SOL     OW 2889   6.658   1.950  11.893 -0.2817 -0.7194 -0.0798
32095SOL    HW1 2890   6.621   1.951  11.805 -2.0342 -1.8660  0.6052
32095SOL    HW2 2891   6.753   1.950  11.879 -0.4756  1.2425 -1.9156
32096SOL     OW 2892  10.670   1.222   3.961 -0.2670 -0.4714  0.2214
32096SOL    HW1 2893  10.706   1.260   4.041 -2.5752  0.0280  1.0716
32096SOL    HW2 2894  10.686   1.289   3.894  2.7892 -1.3824 -0.1419
32097SOL     OW 2895   8.658  11.452  10.012  0.0363  0.5529  0.4370
32097SOL    HW1 2896   8.727  11.445  10.079 -1.5289 -0.9536  1.9967
32097SOL    HW2 2897   8.692  11.403   9.937  0.7520  0.0128  1.0958
32098SOL     OW 2898   6.376   8.150   0.664 -0.1209  0.0366  0.5354
32098SOL    HW1 2899   6.317   8.076   0.676  0.0952  0.0859  1.9905
32098SOL    HW2 2900   6.328   8.226   0.697  0.2198  0.3075  0.4129
32099SOL     OW 2901   7.700   9.946  10.480 -0.4363  0.3935 -0.3196
32099SOL    HW1 2902   7.721   9.917  10.391  0.5822  0.9555 -0.2723
32099SOL    HW2 2903   7.771  10.005  10.504 -1.2397  1.0663  0.4861
32100SOL     OW 2904   9.423   7.290   8.723  0.1681  0.1212  0.3203
32100SOL    HW1 2905   9.470   7.355   8.670  2.0721 -0.9469  0.6209
32100SOL    HW2 2906   9.470   7.290   8.807 -0.0425 -1.3449  0.4571
32101SOL     OW 2907   5.293   9.499   1.302 -0.2200  0.7315 -0.2135
32101SOL    HW1 2908   5.291   9.529   1.211  1.4313  0.6592 -0.3130
32101SOL    HW2 2909   5.357   9.556   1.345  1.3546 -1.1567  0.1146
32102SOL     OW 2910   3.878   1.960   7.582  0.0608  0.0613  0.6580
32102SOL    HW1 2911   3.956   1.944   7.635  1.3273  2.5122 -0.3199
32102SOL    HW2 2912   3.818   2.006   7.641 -0.1200 -0.6119  1.0152
32103SOL     OW 2913   8.133   1.616   3.025 -0.0188  0.0881 -0.0864
32103SOL    HW1 2914   8.125   1.542   2.964  1.1015 -0.0751 -0.0613
32103SOL    HW2 2915   8.225   1.642   3.017  0.4258 -0.5657  2.2552
32104SOL     OW 2916   5.767   8.372   3.913 -0.2444 -0.0058 -0.2095
32104SOL    HW1 2917   5.796   8.379   3.821  1.0304  0.3456  0.1934
32104SOL    HW2 2918   5.842   8.334   3.958 -0.6064  0.4703  0.8131
32105SOL     OW 2919   0.924   8.309   1.044  0.1261  0.4923 -0.2615
32105SOL    HW1 2920   0.836   8.344   1.051  0.3195  0.8375  0.5484
32105SOL    HW2 2921   0.914   8.226   0.997 -0.3464  1.5584 -2.1278
32106SOL     OW 2922   9.849   0.186   0.148 -0.0356  0.2835  0.1801
32106SOL    HW1 2923   9.808   0.150   0.069 -1.1738 -1.4931  1.4988
32106SOL    HW2 2924   9.943   0.178   0.132 -0.1984 -3.0793  0.1794
32107SOL     OW 2925   5.104  11.654   7.955 -0.1269 -0.0452 -0.7985
32107SOL    HW1 2926   5.165  11.657   8.028 -0.8101 -1.7407 -0.1110
32107SOL    HW2 2927   5.154  11.614   7.884 -0.4187 -1.5299 -0.2049
32108SOL     OW 2928   6.936  12.169   9.585  0.6613 -0.1076  0.1025
32108SOL    HW1 2929   6.928  12.156   9.680 -0.9749 -0.4080 -0.0341
32108SOL    HW2 2930   6.999  12.239   9.575 -0.2253  0.9397  1.5002
32109SOL     OW 2931   9.338   2.988  12.105 -0.1332 -0.4864 -0.1940
32109SOL    HW1 2932   9.390   2.934  12.045  1.4469  0.8276 -0.0706
32109SOL    HW2 2933   9.289   3.046  12.047  1.3797  0.7697 -0.2877
32110SOL     OW 2934   4.750   9.523   1.580  1.2019  0.2115  0.7971
32110SOL    HW1 2935   4.719   9.601   1.626  0.7005 -0.9521  2.5297
32110SOL    HW2 2936   4.781   9.465   1.649 -2.7831 -3.1063  0.1792
32111SOL     OW 2937   9.202   3.802   9.655  0.0855  0.4425 -0.1735
32111SOL    HW1 2938   9.168   3.717   9.627 -0.4208  0.5000  0.2483
32111SOL    HW2 2939   9.177   3.862   9.585 -1.5611  0.6721  0.5661
32112SOL     OW 2940   9.799  10.651   8.823 -0.0275  0.3528  0.6587
32112SOL    HW1 2941   9.775  10.578   8.880  0.9145  0.4251  1.1639
32112SOL    HW2 2942   9.845  10.713   8.880 -0.2816  1.0713  0.1101
32113SOL     OW 2943  12.658   2.062  10.408 -0.2219 -0.5182  0.5296
32113SOL    HW1 2944  12.633   2.116  10.333  1.3472 -0.4236  0.0192
32113SOL    HW2 2945  12.606   1.982  10.399  0.1436 -0.6321 -0.8574
32114SOL     OW 2946   6.304   5.465   0.447 -0.6565  0.4485  0.3191
32114SOL    HW1 2947   6.370   5.425   0.503 -2.4937 -0.8421  1.6908
32114SOL    HW2 2948   6.305   5.558   0.470  2.4651  1.0675 -1.6521
32115SOL     OW 2949   9.806   4.912  11.787  0.2277 -0.3594 -0.4563
32115SOL    HW1 2950   9.782   4.940  11.698  2.4791 -1.3106 -1.4500
32115SOL    HW2 2951   9.779   4.821  11.792 -1.1584  0.0691  0.3902
32116SOL     OW 2952   4.833   3.831   6.977 -0.1260 -0.3235 -0.7090
32116SOL    HW1 2953   4.885   3.773   7.033  0.7957  1.0602 -0.0694
32116SOL    HW2 2954   4.886   3.910   6.968 -0.3848 -0.3603 -3.3161
32117SOL     OW 2955   4.074  12.200  12.087 -0.4960 -0.1204 -0.2088
32117SOL    HW1 2956   4.121  12.132  12.038 -1.0370 -1.8201  1.5132
32117SOL    HW2 2957   4.112  12.197  12.175 -2.1646  0.1351  0.5568
32118SOL     OW 2958   0.915   9.071   2.296  0.5465  0.2722 -0.2579
32118SOL    HW1 2959   0.823   9.044   2.287  0.8816 -0.7829 -0.6327
32118SOL    HW2 2960   0.965   8.991   2.279  1.6339  1.3657 -2.5555
32119SOL     OW 2961   0.167  12.516  10.034 -0.2667 -0.1064  0.3208
32119SOL    HW1 2962   0.103  12.579  10.000 -0.1499 -0.8822 -1.4416
32119SOL    HW2 2963   0.211  12.563  10.105 -1.5999  1.0438  0.4316
32120SOL     OW 2964   2.947   7.629  10.234 -0.3628 -0.2223  0.5258
32120SOL    HW1 2965   3.017   7.626  10.299 -2.0692  1.5116  2.5781
32120SOL    HW2 2966   2.929   7.722  10.221 -1.0478 -0.5702 -1.4004
32121SOL     OW 2967  10.471  12.001   5.974 -0.1562 -0.0431 -0.0368
32121SOL    HW1 2968  10.511  12.024   5.890  0.2134  1.5323  0.5256
32121SOL    HW2 2969  10.539  12.018   6.039 -1.2825  1.5079  0.8280
32122SOL     OW 2970   7.365   2.029   6.627  0.4259  0.2619 -0.5883
32122SOL    HW1 2971   7.437   1.986   6.675 -0.0448  0.5695  0.4284
32122SOL    HW2 2972   7.384   2.012   6.535  0.9686 -1.0024 -0.2720
32123SOL     OW 2973  11.609   4.331   9.587 -0.0555  0.1630  0.2042
32123SOL    HW1 2974  11.682   4.269   9.591  0.1258  0.4178  0.9538
32123SOL    HW2 2975  11.629   4.396   9.653 -0.8696  0.3429  0.2811
32124SOL     OW 2976  11.233   5.132  10.440  0.1057 -0.3612  0.7138
32124SOL    HW1 2977  11.285   5.120  10.361 -2.5028  1.0666 -1.3751
32124SOL    HW2 2978  11.159   5.073  10.430  0.1563 -0.8078  2.5650
32125SOL     OW 2979   5.948   2.528   4.583 -0.0023 -0.2193  0.2687
32125SOL    HW1 2980   5.979   2.598   4.641 -0.2896  0.6923 -0.6348
32125SOL    HW2 2981   5.854   2.521   4.602 -0.5898  1.6236 -1.5476
32126SOL     OW 2982   2.476   2.050   0.618  0.5400  0.0292 -0.3164
32126SOL    HW1 2983   2.437   2.056   0.531  1.8606  2.2964 -0.8147
32126SOL    HW2 2984   2.432   2.117   0.669 -0.3489 -1.4034  0.8740
32127SOL     OW 2985   6.939  10.985   1.629  0.3127  0.0503 -0.1069
32127SOL    HW1 2986   6.914  11.020   1.543 -0.4008 -1.3983 -0.5248
32127SOL    HW2 2987   6.904  11.048   1.691 -0.0963  0.5760 -0.8492
32128SOL     OW 2988   3.635  11.414   3.519  0.4941  0.2921  0.4374
32128SOL    HW1 2989   3.700  11.437   3.453 -0.5076  1.7848 -0.0744
32128SOL    HW2 2990   3.683  11.415   3.601  1.4658 -0.2580 -0.1051
32129SOL     OW 2991   6.440   1.299   1.973 -0.0678  0.2988  0.3166
32129SOL    HW1 2992   6.534   1.285   1.973 -0.1212 -0.1541 -0.9488
32129SOL    HW2 2993   6.421   1.338   1.888 -1.1824 -0.7926  0.0387
32130SOL     OW 2994   6.091   1.498   9.182  0.0677 -0.3846 -0.1623
32130SOL    HW1 2995   6.059   1.437   9.116 -3.0130  2.4298 -1.5578
32130SOL    HW2 2996   6.019   1.560   9.195  1.8025  1.1801  3.4161
32131SOL     OW 2997   8.957   8.325   8.590 -0.1837  0.3348 -0.1290
32131SOL    HW1 2998   8.946   8.303   8.683 -0.9287 -0.3405 -0.3603
32131SOL    HW2 2999   9.034   8.382   8.587 -1.5062  2.2765  1.1754
32132SOL     OW 3000   7.682   4.154  11.652  0.4330 -0.8953 -0.7849
32132SOL    HW1 3001   7.591   4.163  11.679 -0.8161 -1.1026 -4.3776
32132SOL    HW2 3002   7.699   4.060  11.656  1.0188 -0.7421  1.2024
32133SOL     OW 3003   2.634  10.490   6.387  0.0542  0.7140  0.7414
32133SOL    HW1 3004   2.589  10.413   6.423  2.0098  0.0033  1.7833
32133SOL    HW2 3005   2.622  10.482   6.293 -1.4242  0.2100  0.9380
32134SOL     OW 3006   2.432   4.821  11.120  0.1578 -0.1138  0.3448
32134SOL    HW1 3007   2.356   4.785  11.166 -0.4235  0.0894 -0.4267
32134SOL    HW2 3008   2.400   4.838  11.031  0.5059  1.9644  0.5739
32135SOL     OW 3009   5.805   3.515  11.377 -0.0315  0.0666 -0.5374
32135SOL    HW1 3010   5.837   3.449  11.315 -0.8318 -0.6154 -0.2387
32135SOL    HW2 3011   5.858   3.592  11.358  1.0560 -0.7068 -0.7737
32136SOL     OW 3012   5.734   3.505   1.128 -0.4217 -0.1115 -0.6133
32136SOL    HW1 3013   5.688   3.421   1.129  0.3365 -0.5343 -0.9217
32136SOL    HW2 3014   5.696   3.554   1.202 -2.8828  0.3792 -2.0618
32137SOL     OW 3015   4.973   2.541  10.729  0.1629 -0.6578  0.3869
32137SOL    HW1 3016   5.030   2.534  10.806 -1.3401 -1.5890  1.4707
32137SOL    HW2 3017   4.927   2.458  10.726  0.4811 -0.7955 -1.8008
32138SOL     OW 3018   2.829   8.899  12.453  0.6898  0.1701 -0.2702
32138SOL    HW1 3019   2.908   8.864  12.495  0.2292  0.8794  1.2515
32138SOL    HW2 3020   2.757   8.849  12.492  0.2862  0.3110 -0.8147
32139SOL     OW 3021  11.107  11.059   6.905 -0.4319  0.1233  0.3052
32139SOL    HW1 3022  11.059  10.977   6.912 -0.3112 -0.0487 -0.6727
32139SOL    HW2 3023  11.199  11.033   6.910 -0.4048  0.2462  0.4277
32140SOL     OW 3024   1.794   9.972   4.253 -0.2866 -0.0761 -0.0965
32140SOL    HW1 3025   1.737  10.035   4.210  0.4967 -0.3342 -1.5807
32140SOL    HW2 3026   1.809  10.008   4.341  0.0305  1.7289 -0.8598
32141SOL     OW 3027   7.260  12.180   3.320 -0.3647 -0.2707 -0.4951
32141SOL    HW1 3028   7.338  12.224   3.285  0.3064  0.0224  1.2732
32141SOL    HW2 3029   7.220  12.244   3.379 -1.4549 -0.7513 -0.6781
32142SOL     OW 3030   3.843  12.679   2.694  0.0598  0.2773 -0.0807
32142SOL    HW1 3031   3.842  12.750   2.630 -0.6703 -0.6120 -1.0841
32142SOL    HW2 3032   3.752  12.670   2.722  0.1008 -0.4336 -0.1557
32143SOL     OW 3033   2.319   5.275   0.868 -0.4774 -0.6682  0.0106
32143SOL    HW1 3034   2.333   5.181   0.860 -0.1818 -0.6344  0.1107
32143SOL    HW2 3035   2.273   5.286   0.950 -0.9007 -0.7637 -0.2123
32144SOL     OW 3036   0.309  11.354   2.162  0.1930 -0.3464 -0.1574
32144SOL    HW1 3037   0.221  11.379   2.191  0.5222 -1.5149  2.0781
32144SOL    HW2 3038   0.296  11.273   2.113 -0.0750  0.0524 -0.7496
32145SOL     OW 3039   9.789   7.169  11.443 -0.6661 -0.5759 -0.5845
32145SOL    HW1 3040   9.793   7.204  11.354 -1.1922  0.4852 -0.2022
32145SOL    HW2 3041   9.856   7.217  11.490 -0.3431 -1.1859 -0.4170
32146SOL     OW 3042  10.919   7.743  11.802 -1.0338 -0.3668  0.4433
32146SOL    HW1 3043  10.865   7.679  11.850 -1.5894 -0.9707 -0.9351
32146SOL    HW2 3044  10.885   7.740  11.713  0.0489  0.6546 -0.0198
32147SOL     OW 3045  11.879   4.597   3.081 -0.0191 -0.1982  0.0553
32147SOL    HW1 3046  11.850   4.506   3.093  0.7393 -0.3252  0.9899
32147SOL    HW2 3047  11.841   4.622   2.997 -1.0267 -1.0648  0.2256
32148SOL     OW 3048   4.813  10.005   3.178 -0.1201 -0.0798 -0.0265
32148SOL    HW1 3049   4.753  10.079   3.170  1.2519  1.0191 -0.5712
32148SOL    HW2 3050   4.756   9.930   3.194 -1.5826  1.0203  0.1731
32149SOL     OW 3051   4.847   9.123  11.275  0.2747  0.0404  0.6837
32149SOL    HW1 3052   4.812   9.100  11.189 -0.2730 -0.9840  1.1594
32149SOL    HW2 3053   4.882   9.212  11.264 -0.0250  0.0269 -0.5159
32150SOL     OW 3054   9.359   1.154   9.499 -0.1080 -0.0501  0.1243
32150SOL    HW1 3055   9.416   1.222   9.463  1.0021 -1.4587 -0.8907
32150SOL    HW2 3056   9.419   1.085   9.528 -1.2225 -0.8880  0.5172
32151SOL     OW 3057   7.635   1.936   3.509 -0.0513 -0.2050  0.2136
32151SOL    HW1 3058   7.547   1.928   3.547  1.1088 -1.8056  2.7715
32151SOL    HW2 3059   7.650   1.852   3.466  0.0054  0.3254 -0.8350
32152SOL     OW 3060   5.065  11.526   2.228  0.1471 -0.2191 -0.0568
32152SOL    HW1 3061   5.032  11.468   2.160  0.8983  0.1805 -0.7839
32152SOL    HW2 3062   5.151  11.491   2.250  0.6562  0.6490 -0.5787
32153SOL     OW 3063   7.699   2.551   1.217  0.6868  0.1188 -0.4717
32153SOL    HW1 3064   7.724   2.474   1.165 -0.3589 -0.5154 -0.0630
32153SOL    HW2 3065   7.608   2.535   1.241  0.9742  0.6754  1.0754
32154SOL     OW 3066   5.740   3.990   5.135 -0.1462 -0.0771  0.0896
32154SOL    HW1 3067   5.774   4.027   5.217 -2.8288  0.8185  0.9070
32154SOL    HW2 3068   5.701   4.065   5.090  0.0291 -0.8308 -1.3683
32155SOL     OW 3069  12.038   7.902   4.664  0.4570  0.4537  0.2536
32155SOL    HW1 3070  12.073   7.983   4.701  0.8830 -0.2561  1.4814
32155SOL    HW2 3071  11.948   7.898   4.694  0.6893  0.0677  0.9256
32156SOL     OW 3072   6.274   0.242   1.736  0.0868 -0.2762  0.0301
32156SOL    HW1 3073   6.316   0.234   1.821  0.4489 -1.1213 -0.2122
32156SOL    HW2 3074   6.344   0.274   1.678  0.8066 -2.7287 -0.6174
32157SOL     OW 3075   5.952   3.703  11.074  0.2299  0.1008 -0.1793
32157SOL    HW1 3076   5.867   3.747  11.074  0.0500 -0.1965  1.0444
32157SOL    HW2 3077   5.948   3.641  11.001 -0.7005 -0.0704  0.0040
32158SOL     OW 3078   4.602   3.328  11.854 -0.3225  0.0097 -0.0813
32158SOL    HW1 3079   4.623   3.324  11.761  0.5667 -3.1350  0.1416
32158SOL    HW2 3080   4.507   3.317  11.857 -0.4145  0.5839 -0.6086
32159SOL     OW 3081   3.664   1.462   4.583 -0.0758 -0.1088  0.3280
32159SOL    HW1 3082   3.692   1.384   4.536  0.0096 -0.9289  1.6612
32159SOL    HW2 3083   3.613   1.428   4.657  2.0165  0.8881  2.3772
32160SOL     OW 3084   7.389   6.866   3.049  0.4087 -0.3323  0.1274
32160SOL    HW1 3085   7.313   6.812   3.070  1.0853 -0.7926  1.5535
32160SOL    HW2 3086   7.366   6.953   3.083  1.0832 -0.8318  1.9831
32161SOL     OW 3087  10.056  11.851   8.774  0.5146 -0.2074 -0.1685
32161SOL    HW1 3088  10.106  11.771   8.791  1.6821  0.6929  0.8953
32161SOL    HW2 3089   9.965  11.822   8.768  1.0770 -1.8371 -1.6153
32162SOL     OW 3090   3.332   9.321   6.765  0.3017 -0.1534  0.4795
32162SOL    HW1 3091   3.287   9.392   6.719 -0.7140  0.3367  2.1493
32162SOL    HW2 3092   3.376   9.364   6.838  1.0018 -1.0426  0.5902
32163SOL     OW 3093   7.380   8.610   9.890 -0.2858  0.4796  0.4953
32163SOL    HW1 3094   7.376   8.702   9.865 -0.4525 -0.2373 -2.4263
32163SOL    HW2 3095   7.472   8.585   9.877 -0.4734 -0.0367  0.1046
32164SOL     OW 3096   2.647   9.909   2.770  0.4882  0.1008 -0.3590
32164SOL    HW1 3097   2.620   9.834   2.823  0.0887  0.8585  0.5289
32164SOL    HW2 3098   2.683   9.870   2.690 -2.9195 -1.0032 -1.5296
32165SOL     OW 3099   9.515   2.509   0.785 -0.5588 -0.2582 -0.4087
32165SOL    HW1 3100   9.535   2.421   0.816  1.8671 -0.2069 -1.5591
32165SOL    HW2 3101   9.557   2.567   0.848 -2.0698  0.1103  0.2959
32166SOL     OW 3102  11.013   6.842   6.159  0.3668 -0.3681 -0.2424
32166SOL    HW1 3103  10.997   6.935   6.149  2.2294  0.0765  0.3911
32166SOL    HW2 3104  10.983   6.802   6.078  1.0994  1.0228 -1.2264
32167SOL     OW 3105   0.198   1.851  11.356 -0.1320  0.0109 -1.1912
32167SOL    HW1 3106   0.105   1.865  11.340 -0.1654  1.4928  0.1461
32167SOL    HW2 3107   0.239   1.937  11.345  0.8080 -0.2598 -0.0958
32168SOL     OW 3108   8.802   0.141   8.776  0.0229  0.5296 -0.0386
32168SOL    HW1 3109   8.841   0.170   8.693 -0.2466  0.2143 -0.2787
32168SOL    HW2 3110   8.843   0.055   8.792 -0.1147  0.4759  0.0228
32169SOL     OW 3111   2.436   0.476  11.608  0.1001 -0.4146 -0.4513
32169SOL    HW1 3112   2.347   0.488  11.642 -0.0644 -0.3675 -0.8938
32169SOL    HW2 3113   2.486   0.445  11.683 -0.0329  0.6357  0.0939
32170SOL     OW 3114   3.242   6.296   7.684  0.0477 -0.0900 -0.1678
32170SOL    HW1 3115   3.307   6.332   7.744  0.3792 -0.5609 -0.2373
32170SOL    HW2 3116   3.160   6.299   7.733  0.1464  0.3706 -0.0253
32171SOL     OW 3117   3.581   3.983   7.365  0.1445 -0.7672  0.0774
32171SOL    HW1 3118   3.527   3.958   7.290 -0.4765 -3.8630  1.3890
32171SOL    HW2 3119   3.650   4.037   7.329 -0.9948 -0.8992 -2.4684
32172SOL     OW 3120   1.083  10.571   2.983 -0.0625  0.3973  0.4496
32172SOL    HW1 3121   1.016  10.539   3.044  0.8183 -1.5062  0.5168
32172SOL    HW2 3122   1.065  10.524   2.901 -0.5953  2.1369 -0.4739
32173SOL     OW 3123   3.633   6.818   9.574 -0.2925  0.5261  0.2853
32173SOL    HW1 3124   3.665   6.795   9.662 -0.6108  1.7218  0.7326
32173SOL    HW2 3125   3.623   6.734   9.530 -0.7663 -0.1503  1.6184
32174SOL     OW 3126   0.305   9.239   7.413 -0.4849  0.3493  0.2509
32174SOL    HW1 3127   0.365   9.204   7.347  0.8528  2.2806  0.3328
32174SOL    HW2 3128   0.352   9.230   7.496 -1.0039  0.4119  0.5597
32175SOL     OW 3129   6.922   8.966   4.545 -0.2692 -0.1151  0.2457
32175SOL    HW1 3130   6.998   8.999   4.592  0.6995 -0.5047 -1.0009
32175SOL    HW2 3131   6.878   8.909   4.608  0.8500 -0.4367  0.7668
32176SOL     OW 3132  11.713   5.221   9.431 -1.1238 -0.1631  0.0195
32176SOL    HW1 3133  11.653   5.219   9.506 -0.0804 -1.0844  0.8570
32176SOL    HW2 3134  11.704   5.135   9.391 -0.6348 -0.1742 -0.0696
32177SOL     OW 3135   5.022  12.574   2.225  0.6265  0.0440  0.0062
32177SOL    HW1 3136   5.006  12.499   2.168  1.2724  0.3695 -0.6161
32177SOL    HW2 3137   4.972  12.646   2.185  0.2675  0.0325  0.4204
32178SOL     OW 3138  12.182   8.179   9.994 -0.2283 -0.1017  0.1154
32178SOL    HW1 3139  12.275   8.157   9.991 -0.5446 -1.5966  0.5189
32178SOL    HW2 3140  12.137   8.096   9.982 -1.5574  0.8381 -1.8623
32179SOL     OW 3141   0.204   1.852   1.978 -0.3024  0.0075  0.0828
32179SOL    HW1 3142   0.115   1.888   1.980 -0.5090 -0.5174  0.3994
32179SOL    HW2 3143   0.259   1.924   2.010 -0.8547 -0.3342  1.9211
32180SOL     OW 3144   7.894  12.496   6.623  0.4688 -0.2050 -0.3350
32180SOL    HW1 3145   7.818  12.523   6.676  0.8964 -0.9777  0.7232
32180SOL    HW2 3146   7.862  12.422   6.572  0.2955 -0.0373 -0.4689
32181SOL     OW 3147   6.283   7.228   1.142 -0.0232 -0.4783  0.3887
32181SOL    HW1 3148   6.370   7.189   1.142  0.1657 -0.0709 -0.3563
32181SOL    HW2 3149   6.252   7.217   1.232  0.5467 -1.1685  0.5107
32182SOL     OW 3150   1.176   1.512   1.763  0.2526  0.3695 -0.1933
32182SOL    HW1 3151   1.093   1.473   1.737 -1.0493  1.8726  1.4194
32182SOL    HW2 3152   1.235   1.497   1.689 -1.0696 -1.7937 -0.8850
32183SOL     OW 3153   4.181   6.977   2.425  0.2461 -0.6560  0.4280
32183SOL    HW1 3154   4.153   6.913   2.490 -1.0874 -0.4559  0.0850
32183SOL    HW2 3155   4.191   7.059   2.473 -0.2307 -0.6266  0.4838
32184SOL     OW 3156  11.790  12.259   4.878 -0.1271 -0.3559  0.9398
32184SOL    HW1 3157  11.844  12.208   4.939  0.8687 -0.3767  0.0570
32184SOL    HW2 3158  11.853  12.307   4.825 -1.0235  1.0562  1.1034
32185SOL     OW 3159   2.335   3.219   3.560  0.6589 -0.4919 -0.0748
32185SOL    HW1 3160   2.369   3.183   3.642  2.6109 -1.1959 -1.1551
32185SOL    HW2 3161   2.375   3.306   3.554  1.0800 -0.7267 -0.6344
32186SOL     OW 3162   1.353  10.875   6.818  0.2740  0.3639 -0.4659
32186SOL    HW1 3163   1.257  10.871   6.816  0.2637  0.2608  0.0373
32186SOL    HW2 3164   1.376  10.840   6.904  0.8767 -1.7396 -1.4203
32187SOL     OW 3165   8.432   4.448  11.255 -0.1817  0.0674  0.6435
32187SOL    HW1 3166   8.420   4.484  11.168  0.6086  0.7489  0.8019
32187SOL    HW2 3167   8.470   4.520  11.306  1.7110 -1.0214  0.8910
32188SOL     OW 3168   2.150   1.276   9.414 -0.4054 -0.2704  0.4327
32188SOL    HW1 3169   2.149   1.191   9.371  2.8843  0.0597 -0.5557
32188SOL    HW2 3170   2.161   1.255   9.507  1.5772 -0.9993  0.0796
32189SOL     OW 3171   9.464  11.524  11.537 -0.2199 -0.2547 -0.0948
32189SOL    HW1 3172   9.501  11.589  11.478  2.4766 -0.7458  0.8681
32189SOL    HW2 3173   9.381  11.561  11.567 -0.5435  1.0031 -2.3769
32190SOL     OW 3174   3.737   4.242  11.146  0.0837 -0.1218  0.2375
32190SOL    HW1 3175   3.729   4.232  11.241  0.6293  0.1910  0.3249
32190SOL    HW2 3176   3.811   4.186  11.122  0.1520  0.0502  0.0417
32191SOL     OW 3177   7.894  12.451   1.302 -0.5614 -0.2312 -0.1187
32191SOL    HW1 3178   7.853  12.458   1.216  0.7500 -0.9002 -0.8234
32191SOL    HW2 3179   7.836  12.501   1.360 -1.2871  0.5196 -1.4391
32192SOL     OW 3180   8.401   7.890   1.278 -0.8692 -0.1559  0.1059
32192SOL    HW1 3181   8.414   7.960   1.343  0.1900 -0.9452  0.7790
32192SOL    HW2 3182   8.364   7.935   1.202  0.6126  1.3206  0.1978
32193SOL     OW 3183   0.393   2.706   2.434 -0.2801 -0.5329 -0.7322
32193SOL    HW1 3184   0.339   2.722   2.512  0.8720 -2.7188  0.6436
32193SOL    HW2 3185   0.453   2.781   2.431 -1.3319  0.3484 -0.4528
32194SOL     OW 3186  12.130   8.526  11.917 -0.9857 -0.2500  0.2830
32194SOL    HW1 3187  12.195   8.474  11.870 -1.5827 -0.7866  0.0404
32194SOL    HW2 3188  12.053   8.526  11.860 -0.8708  1.2635  0.0689
32195SOL     OW 3189   3.538   3.467   2.549 -0.1193 -0.2558  0.7500
32195SOL    HW1 3190   3.601   3.439   2.616  1.2610  1.6487  0.3268
32195SOL    HW2 3191   3.505   3.385   2.512 -0.3717 -1.3519  3.2148
32196SOL     OW 3192   4.290   6.857   5.846 -0.5089 -0.2075 -0.3752
32196SOL    HW1 3193   4.220   6.881   5.907 -0.2680 -0.7387  0.1169
32196SOL    HW2 3194   4.369   6.896   5.883 -0.4459 -0.1142 -0.6100
32197SOL     OW 3195   4.006   6.260   6.609 -0.4568 -0.5677 -0.4564
32197SOL    HW1 3196   3.953   6.197   6.657 -0.7742  0.7204  0.9322
32197SOL    HW2 3197   4.094   6.249   6.644 -0.6299  0.1657  0.2234
32198SOL     OW 3198   2.845   8.298   9.607  0.5526 -0.3963  0.1616
32198SOL    HW1 3199   2.819   8.388   9.587 -0.1987 -0.4348  0.8921
32198SOL    HW2 3200   2.936   8.292   9.577  0.5746  0.5658 -0.0030
32199SOL     OW 3201   1.730   4.399  12.674 -0.3529  0.3219  0.1853
32199SOL    HW1 3202   1.665   4.461  12.641  0.0163  0.0648 -1.0733
32199SOL    HW2 3203   1.806   4.411  12.618  1.1166  1.3561  2.2743
32200SOL     OW 3204   5.550   6.337  10.696  0.6184  0.2309 -0.5022
32200SOL    HW1 3205   5.532   6.394  10.771  0.7220 -1.2733  0.7157
32200SOL    HW2 3206   5.637   6.363  10.666  0.5730  0.8547 -0.1229
32201SOL     OW 3207   8.184   1.121   0.371 -0.1886  0.4825 -0.3768
32201SOL    HW1 3208   8.185   1.026   0.382  0.6638  0.2580 -2.0598
32201SOL    HW2 3209   8.151   1.135   0.283 -2.0685  1.8777  0.4848
32202SOL     OW 3210   5.520   3.266   9.047 -0.1275 -0.0603  0.0809
32202SOL    HW1 3211   5.484   3.245   9.133  0.0178 -0.8993 -0.0572
32202SOL    HW2 3212   5.512   3.361   9.041 -2.1463 -0.1921  0.1205
32203SOL     OW 3213   6.694   3.656   9.215 -0.1690 -0.6410 -0.4260
32203SOL    HW1 3214   6.694   3.686   9.124  0.2438 -0.9739 -0.5385
32203SOL    HW2 3215   6.748   3.577   9.214 -1.7887 -1.7985 -0.2530
32204SOL     OW 3216   8.513  12.001  12.126  1.0336  0.7925 -0.1944
32204SOL    HW1 3217   8.599  11.977  12.091  2.0325 -0.4094  2.7607
32204SOL    HW2 3218   8.532  12.052  12.205 -0.9356  0.3590  0.6263
32205SOL     OW 3219  11.601   1.251  12.149 -0.2999  0.5744  0.0319
32205SOL    HW1 3220  11.595   1.271  12.242  0.4353 -1.1654  0.4863
32205SOL    HW2 3221  11.566   1.163  12.140 -1.2232  1.0576 -1.5053
32206SOL     OW 3222  12.525   8.271   9.317 -0.2039 -0.2453  0.2614
32206SOL    HW1 3223  12.529   8.203   9.250  0.0352  0.6022 -0.6204
32206SOL    HW2 3224  12.616   8.284   9.344 -0.0186  0.8697 -0.8008
32207SOL     OW 3225   2.073   6.770   5.008  0.3001 -0.5580 -0.2264
32207SOL    HW1 3226   2.001   6.777   4.946 -0.3915 -0.3273  0.5821
32207SOL    HW2 3227   2.130   6.702   4.971 -0.3968 -0.8344 -0.8109
32208SOL     OW 3228   6.978   6.479   1.487  0.1990  0.2505  0.1815
32208SOL    HW1 3229   6.883   6.483   1.483  0.1861 -0.1200  0.0123
32208SOL    HW2 3230   6.997   6.387   1.507  0.4654  0.6593  1.9654
32209SOL     OW 3231   9.938   9.298   8.204  0.1456 -0.3641 -0.4993
32209SOL    HW1 3232   9.912   9.366   8.266 -1.2033 -0.4640 -0.9130
32209SOL    HW2 3233   9.995   9.240   8.255  0.2622  0.3638  0.2222
32210SOL     OW 3234  10.372   5.613   3.380 -0.2487  0.1533 -0.2242
32210SOL    HW1 3235  10.350   5.642   3.469  2.5361  0.3819  0.4839
32210SOL    HW2 3236  10.376   5.517   3.387 -1.7378  0.0488 -0.5771
32211SOL     OW 3237   3.601   0.148   7.973 -0.1397  0.7168 -0.1095
32211SOL    HW1 3238   3.651   0.207   8.030  0.5434 -0.7051  0.8062
32211SOL    HW2 3239   3.667   0.097   7.927 -0.7067  1.1818 -1.5073
32212SOL     OW 3240   2.044   9.937   7.089  0.3987  0.9660  0.1942
32212SOL    HW1 3241   2.055   9.869   7.022 -1.8785  1.9514 -1.2926
32212SOL    HW2 3242   1.997   9.894   7.159  0.2716  0.6367 -0.0898
32213SOL     OW 3243  11.299   8.750   9.501  0.6251  0.1409 -0.2101
32213SOL    HW1 3244  11.216   8.736   9.545 -0.2211 -0.4141 -1.9171
32213SOL    HW2 3245  11.330   8.662   9.477  0.6292  0.4518 -1.4457
32214SOL     OW 3246   8.987   8.886  12.223  0.0576 -0.4269 -0.3515
32214SOL    HW1 3247   9.060   8.946  12.235 -0.1460 -0.0879 -0.7903
32214SOL    HW2 3248   8.939   8.921  12.148 -0.3151 -0.8858 -0.3331
32215SOL     OW 3249   5.142   7.127  12.529 -0.2738 -0.0957  0.4545
32215SOL    HW1 3250   5.215   7.153  12.585 -0.5437  2.3917 -0.2125
32215SOL    HW2 3251   5.074   7.100  12.590 -0.1641  1.4614  1.3278
32216SOL     OW 3252   7.182  11.642   7.966 -0.1794 -0.4132  0.6895
32216SOL    HW1 3253   7.110  11.661   7.906  1.2068  1.4793 -0.5461
32216SOL    HW2 3254   7.190  11.721   8.019  0.5534 -0.8558  1.2568
32217SOL     OW 3255   4.158   7.779   0.530  0.1069  0.6112  0.4397
32217SOL    HW1 3256   4.176   7.865   0.492 -0.5146  1.7099  2.4303
32217SOL    HW2 3257   4.139   7.722   0.456 -1.0923  2.6091 -0.8837
32218SOL     OW 3258   2.870   0.396  11.893  0.1720 -0.2089  0.4630
32218SOL    HW1 3259   2.949   0.356  11.930  0.1534 -0.9410 -0.2517
32218SOL    HW2 3260   2.901   0.474  11.848  0.1165  1.0561  2.5168
32219SOL     OW 3261   5.408  12.583   8.550  0.7596  0.7395  0.2781
32219SOL    HW1 3262   5.394  12.577   8.644 -1.3845  0.3860 -0.0118
32219SOL    HW2 3263   5.351  12.516   8.513  1.6242  0.8184 -1.2801
32220SOL     OW 3264  12.572   2.134  11.694  0.0694  0.5050 -0.6567
32220SOL    HW1 3265  12.484   2.142  11.657 -0.6816 -1.4434  0.5383
32220SOL    HW2 3266  12.572   2.195  11.768 -0.6701 -0.1973 -0.0524
32221SOL     OW 3267  11.173   0.941   9.967 -0.1356  0.4205 -0.2226
32221SOL    HW1 3268  11.194   0.913   9.878 -0.2357  2.1258 -0.8326
32221SOL    HW2 3269  11.169   1.037   9.961  2.0920  0.7718  2.0649
32222SOL     OW 3270   7.201   6.988   4.371 -0.3912 -0.0009  0.4061
32222SOL    HW1 3271   7.198   7.071   4.323 -0.4602  0.1786  0.7127
32222SOL    HW2 3272   7.259   6.932   4.320 -0.0953  0.3447  0.3641
32223SOL     OW 3273   4.832  11.698  12.155 -0.2729  0.5679 -0.2200
32223SOL    HW1 3274   4.870  11.741  12.079 -0.4921  1.3518  0.1084
32223SOL    HW2 3275   4.739  11.720  12.152 -0.2001  1.0120  0.5308
32224SOL     OW 3276   5.478   7.875   3.280 -1.1423 -0.0515  0.8766
32224SOL    HW1 3277   5.413   7.853   3.213 -1.2232 -0.2938  1.0340
32224SOL    HW2 3278   5.518   7.791   3.303  1.3038  0.3661 -1.3193
32225SOL     OW 3279  11.517   6.912   2.614  0.1930  0.3546  0.2801
32225SOL    HW1 3280  11.524   6.849   2.685 -0.5813  0.8274  0.7920
32225SOL    HW2 3281  11.570   6.875   2.543  0.0985 -0.6442  0.7222
32226SOL     OW 3282   0.245   2.015  10.649 -0.1796  0.0023  0.0675
32226SOL    HW1 3283   0.217   2.082  10.587  1.3730  0.6120 -0.0100
32226SOL    HW2 3284   0.178   1.947  10.642 -1.2812  1.1041 -0.5478
32227SOL     OW 3285   8.015   4.398  12.380 -0.2933  0.5828  0.4091
32227SOL    HW1 3286   8.015   4.349  12.462 -0.8528 -0.4297 -0.1651
32227SOL    HW2 3287   8.002   4.489  12.405 -3.9043 -0.0390  1.3092
32228SOL     OW 3288   4.576   1.029   0.709 -0.4413  0.1561  0.1500
32228SOL    HW1 3289   4.517   0.956   0.690 -2.1005  1.5122 -0.1235
32228SOL    HW2 3290   4.655   0.988   0.745 -1.3507 -1.7475  0.0569
32229SOL     OW 3291   0.754  11.711  10.852  0.1203  0.5720  0.5284
32229SOL    HW1 3292   0.801  11.768  10.913  2.0886 -0.0762 -0.3042
32229SOL    HW2 3293   0.757  11.624  10.893 -1.0607  0.6526  0.8207
32230SOL     OW 3294   6.283   4.332   5.767  0.0450 -1.3014  0.2543
32230SOL    HW1 3295   6.377   4.352   5.774  0.0581  0.1685 -2.7215
32230SOL    HW2 3296   6.249   4.350   5.855  2.1844  0.3983  0.8461
32231SOL     OW 3297   4.360  12.035  11.611  0.1789  0.4380  0.0106
32231SOL    HW1 3298   4.401  12.104  11.561 -1.3546 -0.0177 -2.0285
32231SOL    HW2 3299   4.325  11.975  11.545 -2.0602 -0.1514  1.6012
32232SOL     OW 3300   5.710   1.200   1.812  0.6215  0.5284  0.2800
32232SOL    HW1 3301   5.721   1.105   1.811 -0.0613  0.4173  1.5525
32232SOL    HW2 3302   5.785   1.233   1.762  1.0630 -0.6582  0.1223
32233SOL     OW 3303   0.989   3.059   3.357  0.4310 -0.2912  0.8068
32233SOL    HW1 3304   1.051   2.989   3.375 -0.1672 -0.8981  0.5742
32233SOL    HW2 3305   0.992   3.115   3.435  2.8390  0.9192 -0.0849
32234SOL     OW 3306  12.095   9.663   6.224  0.1863  0.1888 -0.2271
32234SOL    HW1 3307  12.071   9.585   6.173  0.1504  1.8633 -2.9995
32234SOL    HW2 3308  12.186   9.647   6.251 -0.4375 -1.5969  0.9862
32235SOL     OW 3309   7.360   9.469   3.795  0.3995  0.6456 -0.2581
32235SOL    HW1 3310   7.390   9.454   3.884  2.5475  0.6394 -0.9187
32235SOL    HW2 3311   7.267   9.489   3.803  0.2463 -0.6579  1.8342
32236SOL     OW 3312   3.925  10.005   5.748  0.6066 -0.5905 -0.2735
32236SOL    HW1 3313   3.966  10.089   5.732  0.7410 -0.6509 -0.2450
32236SOL    HW2 3314   3.996   9.948   5.778  0.6382 -0.8821 -0.8740
32237SOL     OW 3315   0.809  11.297   6.316  0.0435 -0.5042 -0.1454
32237SOL    HW1 3316   0.736  11.261   6.265 -0.7210 -0.0043  0.5716
32237SOL    HW2 3317   0.810  11.247   6.397  0.2052 -0.1991  0.0447
32238SOL     OW 3318   9.590   0.864   4.513 -0.0415  0.3371  0.6749
32238SOL    HW1 3319   9.675   0.832   4.482 -0.6694 -0.9711  0.2444
32238SOL    HW2 3320   9.541   0.882   4.433  0.3388  2.6641  0.8805
32239SOL     OW 3321   8.939   9.758  12.274  0.4865  0.6869 -0.0280
32239SOL    HW1 3322   8.922   9.664  12.283  2.5632  0.2009 -0.6305
32239SOL    HW2 3323   8.905   9.796  12.356 -1.0334 -0.4551 -0.0858
32240SOL     OW 3324   7.524   0.487  10.126 -0.3176  0.5831  0.2478
32240SOL    HW1 3325   7.432   0.483  10.152 -0.9028  0.0865 -1.7418
32240SOL    HW2 3326   7.548   0.396  10.107 -0.3181  0.9940 -2.0229
32241SOL     OW 3327   6.363  11.916  11.476 -0.7449  0.0889 -0.2868
32241SOL    HW1 3328   6.379  12.005  11.444 -0.2276 -0.0206 -0.3423
32241SOL    HW2 3329   6.450  11.876  11.480 -0.7039  0.2538  1.7179
32242SOL     OW 3330   0.537   0.473   6.476 -0.6689  0.0018  0.0683
32242SOL    HW1 3331   0.537   0.380   6.498 -0.6210 -0.4145 -1.5335
32242SOL    HW2 3332   0.626   0.501   6.492 -0.2708 -0.6368 -0.8908
32243SOL     OW 3333  11.088   3.827   1.898  0.4152 -0.0435  0.1971
32243SOL    HW1 3334  11.070   3.774   1.976 -0.9755 -3.2840 -2.0843
32243SOL    HW2 3335  11.018   3.891   1.896 -0.6978 -1.1961  0.6454
32244SOL     OW 3336   1.944   2.835  10.025  0.4248 -0.0443  0.1570
32244SOL    HW1 3337   1.881   2.786   9.972  1.0841 -2.0926  1.1394
32244SOL    HW2 3338   2.014   2.857   9.964 -0.0164 -0.0770 -0.3722
32245SOL     OW 3339  12.664   4.657  10.845 -0.3877  0.3165 -0.1929
32245SOL    HW1 3340  12.653   4.589  10.779 -1.2031  1.2409 -1.0519
32245SOL    HW2 3341  12.758   4.659  10.863 -0.4769 -2.0124  0.9485
32246SOL     OW 3342   6.610   6.155   2.202  0.6651  0.9503  0.2862
32246SOL    HW1 3343   6.665   6.121   2.273  1.1361 -1.3989 -1.0964
32246SOL    HW2 3344   6.644   6.243   2.186  1.0516  1.2355  2.4408
32247SOL     OW 3345  11.263   1.158  12.755  0.3493  0.3799 -0.2148
32247SOL    HW1 3346  11.304   1.194  12.676  0.3057 -2.2484 -1.5724
32247SOL    HW2 3347  11.171   1.185  12.748  0.2861 -0.0352 -1.2472
32248SOL     OW 3348   3.055   1.542   6.297 -0.5046 -0.0839 -0.1365
32248SOL    HW1 3349   2.967   1.531   6.261 -0.2288 -0.3910 -0.7310
32248SOL    HW2 3350   3.083   1.454   6.320 -0.2809 -0.0089 -0.1160
32249SOL     OW 3351   3.189   4.227   6.626 -0.1728 -0.1260  0.4119
32249SOL    HW1 3352   3.284   4.241   6.628 -0.1237 -0.4977  0.8595
32249SOL    HW2 3353   3.162   4.258   6.539  0.0254  2.0526  1.0532
32250SOL     OW 3354   0.169   6.594   0.102  0.4294  0.0550 -0.5287
32250SOL    HW1 3355   0.089   6.556   0.067  0.4266 -1.4805  0.9866
32250SOL    HW2 3356   0.154   6.689   0.099 -0.6813 -0.1400 -1.9521
32251SOL     OW 3357   5.298   2.599   2.449 -0.4095  0.1590  0.2210
32251SOL    HW1 3358   5.207   2.609   2.478 -0.5457 -1.4706  0.4082
32251SOL    HW2 3359   5.307   2.507   2.427  0.8976  0.5068 -0.8886
32252SOL     OW 3360   9.913   2.118   4.560  1.0883 -0.5894 -0.1273
32252SOL    HW1 3361   9.934   2.043   4.504  1.7392  0.1711 -0.9359
32252SOL    HW2 3362   9.925   2.085   4.649 -1.3298 -2.2413 -0.3020
32253SOL     OW 3363   9.121  10.243   0.159 -0.7982 -0.2639  0.2103
32253SOL    HW1 3364   9.171  10.167   0.189  0.9789  0.8002  0.0867
32253SOL    HW2 3365   9.125  10.305   0.231 -1.8372 -0.0794  0.1323
32254SOL     OW 3366   9.648   4.024   0.148  0.1879  0.8878 -0.3116
32254SOL    HW1 3367   9.636   4.054   0.058  3.1555 -0.7301 -1.3680
32254SOL    HW2 3368   9.634   3.929   0.144  0.5607  0.7638  0.8794
32255SOL     OW 3369   2.767   0.374   7.566 -0.1456 -0.0782 -0.2189
32255SOL    HW1 3370   2.847   0.379   7.619 -0.5862  0.4950  0.4177
32255SOL    HW2 3371   2.736   0.285   7.578  0.7931 -0.5446 -1.0832
32256SOL     OW 3372   4.997   5.352   1.899  0.2053  0.9985 -0.0770
32256SOL    HW1 3373   5.033   5.326   1.984  0.0413  2.2442  0.4090
32256SOL    HW2 3374   4.949   5.433   1.918 -1.0930  0.4906 -1.0978
32257SOL     OW 3375   7.118   4.609  11.311 -0.2577 -0.1142  0.8306
32257SOL    HW1 3376   7.147   4.540  11.252  0.3220  0.8858 -0.0785
32257SOL    HW2 3377   7.199   4.653  11.338 -0.7405  1.5033 -0.2377
32258SOL     OW 3378  11.072  11.364   6.206 -0.1919 -0.2793  0.0285
32258SOL    HW1 3379  11.040  11.343   6.294  0.1748 -2.5780 -0.3303
32258SOL    HW2 3380  11.163  11.390   6.218 -0.1743 -0.4863  0.3391
32259SOL     OW 3381  10.104   2.597   0.263 -0.2738 -0.5643 -0.5091
32259SOL    HW1 3382  10.200   2.598   0.261 -0.1304 -0.6913  2.2823
32259SOL    HW2 3383  10.082   2.510   0.296 -1.3406 -0.3658 -0.6693
32260SOL     OW 3384   6.737  10.934  12.251  0.0139  0.8837 -0.0311
32260SOL    HW1 3385   6.773  10.934  12.340 -0.3972 -0.7595  0.1741
32260SOL    HW2 3386   6.710  10.843  12.237 -3.2467  1.8168 -0.4981
32261SOL     OW 3387  12.091   4.681   8.655  0.2164  0.3389 -0.5495
32261SOL    HW1 3388  12.044   4.707   8.735  0.2508  2.2138 -1.1051
32261SOL    HW2 3389  12.167   4.739   8.652 -0.0912  0.6951 -2.2265
32262SOL     OW 3390   5.673  11.528   5.419  0.0203  0.1494 -0.0382
32262SOL    HW1 3391   5.716  11.489   5.496  1.7467  1.0242 -0.5037
32262SOL    HW2 3392   5.700  11.472   5.346 -0.1417  0.3572 -0.2570
32263SOL     OW 3393  10.775   8.292   9.052 -0.3777 -0.6789 -0.0474
32263SOL    HW1 3394  10.726   8.374   9.054 -1.6656 -1.4102  2.1147
32263SOL    HW2 3395  10.759   8.257   8.964 -0.6061  0.8927 -0.6693
32264SOL     OW 3396  10.959   8.688  12.199 -0.0235  0.0876  0.0088
32264SOL    HW1 3397  10.936   8.776  12.170  1.4886  0.3818 -0.3847
32264SOL    HW2 3398  10.887   8.632  12.167  0.5531  0.7063 -2.5518
32265SOL     OW 3399   4.257   8.070   9.120  0.1961  0.3594 -0.0321
32265SOL    HW1 3400   4.175   8.021   9.110  0.0279  0.4076  1.0621
32265SOL    HW2 3401   4.313   8.013   9.172  0.6748  0.5526 -0.3312
32266SOL     OW 3402   3.435   2.649   0.210  0.0633 -0.0039  0.3140
32266SOL    HW1 3403   3.426   2.554   0.213 -1.9574  0.0990 -0.6128
32266SOL    HW2 3404   3.414   2.673   0.119  1.5005  1.2588  0.2748
32267SOL     OW 3405   6.808  12.121  11.894  0.1288 -0.1249 -0.2738
32267SOL    HW1 3406   6.769  12.081  11.817 -0.7816  0.5334 -0.1642
32267SOL    HW2 3407   6.760  12.084  11.968 -1.0536  1.4784 -0.1937
32268SOL     OW 3408  10.196   8.555   3.288  0.4357  0.5754  0.1367
32268SOL    HW1 3409  10.246   8.549   3.207  1.2106  0.1003  0.6382
32268SOL    HW2 3410  10.261   8.543   3.357 -0.3977 -0.2167  0.8033
32269SOL     OW 3411   2.073   0.464   1.702 -0.1060 -0.0368  0.3301
32269SOL    HW1 3412   2.156   0.506   1.679 -0.1959 -1.1056 -2.3320
32269SOL    HW2 3413   2.015   0.537   1.725  0.9070  0.9254 -0.0575
32270SOL     OW 3414   9.436   0.480   9.012 -0.2857  0.3920  0.2557
32270SOL    HW1 3415   9.482   0.398   9.032 -0.8931 -0.3776 -1.3123
32270SOL    HW2 3416   9.504   0.547   9.019  1.0436 -0.6537 -1.5909
32271SOL     OW 3417   7.041   3.955   9.144 -0.1275 -0.2509  0.0485
32271SOL    HW1 3418   7.102   4.022   9.113 -1.1087 -0.6991 -3.2102
32271SOL    HW2 3419   7.065   3.876   9.096 -2.2322 -0.8297 -0.1582
32272SOL     OW 3420  10.269   7.974   7.922 -0.2010 -0.3187 -0.0649
32272SOL    HW1 3421  10.363   7.992   7.917 -0.4079  0.7559 -0.4363
32272SOL    HW2 3422  10.234   8.050   7.970 -0.8480 -0.8356  0.2850
32273SOL     OW 3423   4.368   1.957  10.865 -0.0876  0.6101  0.0803
32273SOL    HW1 3424   4.420   1.882  10.836  0.3590  1.1129 -0.4610
32273SOL    HW2 3425   4.418   1.993  10.939 -0.2340  0.4489  0.2574
32274SOL     OW 3426   3.550  11.861   9.613  0.1860 -0.7583  0.4107
32274SOL    HW1 3427   3.577  11.837   9.702  0.5118 -1.8740  0.0266
32274SOL    HW2 3428   3.620  11.917   9.580 -0.1160 -0.0277  0.9796
32275SOL     OW 3429   5.479   5.740   0.618 -0.1225  0.5382  0.3867
32275SOL    HW1 3430   5.476   5.705   0.707  2.4645 -2.3117 -0.5064
32275SOL    HW2 3431   5.403   5.702   0.575  0.1613 -0.3173  0.6355
32276SOL     OW 3432   1.422   6.890  12.494  0.6576 -0.2327  0.6065
32276SOL    HW1 3433   1.380   6.964  12.449  0.0073 -0.5828  0.6205
32276SOL    HW2 3434   1.446   6.830  12.424  1.4723  0.1236  0.5683
32277SOL     OW 3435   2.221   5.693  11.391  0.2661  0.1491 -0.0037
32277SOL    HW1 3436   2.204   5.696  11.297 -1.2552 -2.5419  0.0978
32277SOL    HW2 3437   2.317   5.701  11.397  0.4511 -0.1401 -1.8123
32278SOL     OW 3438  11.825   5.066   9.956 -0.2264 -0.1009  0.3372
32278SOL    HW1 3439  11.870   4.982   9.944  1.4963  0.9060 -0.7945
32278SOL    HW2 3440  11.758   5.068   9.888  0.8481  0.0959 -0.7620
32279SOL     OW 3441   8.979   9.679   3.093  0.3693  0.1457  0.1364
32279SOL    HW1 3442   8.999   9.761   3.138 -1.3404  0.4034  0.4869
32279SOL    HW2 3443   8.967   9.704   3.001 -2.4156  0.7465  0.5871
32280SOL     OW 3444   1.679  10.582   1.132 -0.1148  0.3041 -0.3612
32280SOL    HW1 3445   1.692  10.583   1.038  0.5160 -2.4848 -0.3869
32280SOL    HW2 3446   1.598  10.533   1.145 -1.7315  2.9948  0.5187
32281SOL     OW 3447   8.478   2.441   1.236 -0.1772 -0.4084  0.6126
32281SOL    HW1 3448   8.560   2.393   1.248  0.1899  0.0884  0.1553
32281SOL    HW2 3449   8.410   2.377   1.253  0.2801 -0.2990  3.2710
32282SOL     OW 3450   0.155   9.460  10.524  0.0483  0.0798  0.1902
32282SOL    HW1 3451   0.118   9.382  10.485 -2.1726  1.8020 -1.4086
32282SOL    HW2 3452   0.235   9.477  10.474 -0.5117 -0.0894 -0.7867
32283SOL     OW 3453   9.210   9.925  11.470 -0.6143 -0.3449 -0.0926
32283SOL    HW1 3454   9.197  10.012  11.432 -1.9217  0.0610  1.1908
32283SOL    HW2 3455   9.303   9.907  11.457 -0.5421  0.7654 -1.3414
32284SOL     OW 3456  10.429   3.873  11.135  0.1037 -0.1444  0.2895
32284SOL    HW1 3457  10.477   3.941  11.182  0.9560 -0.9888  0.6531
32284SOL    HW2 3458  10.464   3.877  11.046 -0.5394  0.5299  0.0530
32285SOL     OW 3459   4.701   1.821   9.364  0.3083 -0.1030 -0.4643
32285SOL    HW1 3460   4.684   1.728   9.346 -0.5905 -0.1952  0.7045
32285SOL    HW2 3461   4.614   1.862   9.362  0.5575  0.4786  0.2067
32286SOL     OW 3462   4.176   6.445  12.225  0.9001 -0.2420 -0.2119
32286SOL    HW1 3463   4.121   6.389  12.279  1.1962  2.1762  2.9142
32286SOL    HW2 3464   4.246   6.388  12.194 -0.0546 -2.0765  0.8209
32287SOL     OW 3465   7.242   4.626   2.145 -0.2610  0.2939 -0.2008
32287SOL    HW1 3466   7.223   4.533   2.130 -1.5631  0.3412  0.9185
32287SOL    HW2 3467   7.292   4.628   2.226 -1.2341  0.6288  0.4050
32288SOL     OW 3468   7.937   1.061  11.231 -0.6983  0.0238  0.3667
32288SOL    HW1 3469   7.846   1.038  11.213  0.3138 -4.8012  0.0579
32288SOL    HW2 3470   7.948   1.046  11.325  0.0052 -0.7141  0.1844
32289SOL     OW 3471  11.543   0.175   3.775  0.2129 -0.2322  0.2951
32289SOL    HW1 3472  11.578   0.264   3.778  0.9847 -0.3909 -2.1144
32289SOL    HW2 3473  11.448   0.186   3.782  0.2256  0.9002 -0.9472
32290SOL     OW 3474   3.166   4.101   3.541 -0.6332 -0.0327 -0.0865
32290SOL    HW1 3475   3.181   4.176   3.598 -1.3174  0.3825 -0.4461
32290SOL    HW2 3476   3.236   4.107   3.475 -1.3135  0.9192 -0.7479
32291SOL     OW 3477   9.237  11.646   5.609 -0.1679  0.0936  0.0948
32291SOL    HW1 3478   9.151  11.686   5.594 -0.9443 -1.9157 -1.2923
32291SOL    HW2 3479   9.228  11.603   5.694 -0.2563  0.5492  0.3196
32292SOL     OW 3480   6.882   3.214   5.144  0.1048 -0.6828  0.2751
32292SOL    HW1 3481   6.929   3.206   5.061  1.7084 -2.0861  1.2336
32292SOL    HW2 3482   6.903   3.301   5.176 -1.7830  0.4954 -1.4290
32293SOL     OW 3483   9.674   1.259   2.244  0.4444  0.1725 -0.0735
32293SOL    HW1 3484   9.691   1.354   2.241  1.1330  0.1162  1.0515
32293SOL    HW2 3485   9.760   1.220   2.229  0.0349 -0.3033 -1.2432
32294SOL     OW 3486  11.558   5.049   9.886  0.3100 -0.0045  1.1277
32294SOL    HW1 3487  11.484   5.049   9.825  0.3555  0.0307  1.0713
32294SOL    HW2 3488  11.556   5.136   9.927  0.8509  0.3272  0.4734
32295SOL     OW 3489   4.889   7.220   9.101  0.5572 -0.2413  0.0004
32295SOL    HW1 3490   4.884   7.130   9.067 -0.0357  0.0412 -0.6938
32295SOL    HW2 3491   4.798   7.249   9.105  0.4782 -0.6255  2.9703
32296SOL     OW 3492   4.561   1.574   8.442 -0.2589 -0.1751  0.9269
32296SOL    HW1 3493   4.544   1.482   8.459 -1.1941 -0.5284 -1.4192
32296SOL    HW2 3494   4.503   1.621   8.502 -0.0993 -1.1225  1.8376
32297SOL     OW 3495   6.338   9.905   0.906  0.1628 -0.4900 -0.0159
32297SOL    HW1 3496   6.256   9.945   0.935  0.2522 -2.1038  2.8190
32297SOL    HW2 3497   6.322   9.879   0.816 -1.6479  1.1821 -0.2371
32298SOL     OW 3498   3.591   8.613   5.068 -0.5465 -0.1736  0.0720
32298SOL    HW1 3499   3.532   8.687   5.060 -0.4166 -0.0465  0.2713
32298SOL    HW2 3500   3.662   8.632   5.006 -0.0652  0.3037  0.7552
32299SOL     OW 3501   1.728   9.583  10.741 -0.1899 -0.2174  0.0501
32299SOL    HW1 3502   1.679   9.543  10.812 -1.0429  0.7933  0.0564
32299SOL    HW2 3503   1.797   9.633  10.785 -0.9802  0.7592  0.2140
32300SOL     OW 3504   6.776   7.215  11.593  0.3035 -0.0146 -0.2487
32300SOL    HW1 3505   6.723   7.292  11.612  0.1265 -0.4011  0.9313
32300SOL    HW2 3506   6.821   7.196  11.675 -0.0491 -1.4511 -0.3570
32301SOL     OW 3507   1.960   5.748   3.500 -0.2141 -0.1503 -0.2357
32301SOL    HW1 3508   2.051   5.750   3.528  0.2999 -0.2488 -1.8133
32301SOL    HW2 3509   1.910   5.748   3.582  1.2124 -2.6571  0.7666
32302SOL     OW 3510   5.280   3.884   9.126  0.0629 -0.2494 -0.1562
32302SOL    HW1 3511   5.199   3.913   9.083  0.0441  0.7237  0.4977
32302SOL    HW2 3512   5.344   3.878   9.055 -0.2218  0.3707 -0.4696
32303SOL     OW 3513   3.794   4.452   4.273  0.0860  0.1615  0.5039
32303SOL    HW1 3514   3.787   4.448   4.178 -0.7607 -1.0352  0.5980
32303SOL    HW2 3515   3.750   4.373   4.304  0.6946  0.3327  1.8798
32304SOL     OW 3516   2.394   5.018   2.484  0.7668  0.4850 -0.4073
32304SOL    HW1 3517   2.314   5.032   2.434  0.9402  1.5177 -0.4220
32304SOL    HW2 3518   2.402   4.923   2.491 -0.1404  0.3619 -0.9107
32305SOL     OW 3519   3.572   4.411  10.563 -0.5718  0.0774 -0.7116
32305SOL    HW1 3520   3.607   4.324  10.544  1.2528  0.6948 -0.3042
32305SOL    HW2 3521   3.520   4.399  10.642 -3.4733 -1.3439 -2.6388
32306SOL     OW 3522   3.933   5.244  11.039 -0.1109  0.0339  0.1103
32306SOL    HW1 3523   3.873   5.170  11.028 -1.4025  1.0344  0.1444
32306SOL    HW2 3524   3.968   5.234  11.128  0.6006 -1.1254 -0.2799
32307SOL     OW 3525   5.072  11.127   7.614  0.5734 -0.3784  0.2328
32307SOL    HW1 3526   5.021  11.187   7.558  0.9490  1.4964  1.7843
32307SOL    HW2 3527   5.016  11.050   7.624 -0.0147 -0.2690 -1.6904
32308SOL     OW 3528   2.847   2.324  12.373 -0.0998 -0.2721 -0.7303
32308SOL    HW1 3529   2.763   2.332  12.327 -1.1766  1.5352  1.3459
32308SOL    HW2 3530   2.913   2.348  12.308 -1.4243  0.7892 -1.7395
32309SOL     OW 3531   6.318   2.073   5.494 -0.5038 -0.1714 -0.4200
32309SOL    HW1 3532   6.400   2.059   5.447 -0.2672  0.6458 -0.2588
32309SOL    HW2 3533   6.343   2.117   5.575 -0.9558 -1.1744  0.3006
32310SOL     OW 3534   8.574   1.041  10.185  0.9972  0.0669  0.1763
32310SOL    HW1 3535   8.648   1.062  10.127  0.4609 -0.1313 -0.5973
32310SOL    HW2 3536   8.581   0.947  10.198  0.8498  0.0383  0.0527
32311SOL     OW 3537   9.268   8.692   6.214  0.5978  0.5323 -0.1119
32311SOL    HW1 3538   9.179   8.667   6.189  0.7648 -1.1526  0.7884
32311SOL    HW2 3539   9.266   8.787   6.217 -0.4130  0.6801 -2.7778
32312SOL     OW 3540   7.802   6.870  10.321  0.3652 -0.4933 -0.1558
32312SOL    HW1 3541   7.762   6.786  10.296  1.3578 -0.5735 -1.6206
32312SOL    HW2 3542   7.893   6.848  10.341  0.7190  0.2571 -0.8571
32313SOL     OW 3543  11.685   2.395   5.769 -0.0090 -0.3995 -0.4197
32313SOL    HW1 3544  11.771   2.373   5.733  1.3655 -0.1716  2.4402
32313SOL    HW2 3545  11.693   2.488   5.793 -1.1568 -0.3109 -0.3281
32314SOL     OW 3546   7.925   9.678   2.100 -0.0797 -0.0673 -0.3309
32314SOL    HW1 3547   8.017   9.680   2.127  0.1968 -1.2842 -1.1241
32314SOL    HW2 3548   7.886   9.610   2.155 -0.3995  0.1252 -0.3185
32315SOL     OW 3549   2.023   6.818   1.220 -0.8781  0.6093 -0.1207
32315SOL    HW1 3550   1.952   6.793   1.280  0.8795 -0.3987  1.6406
32315SOL    HW2 3551   2.068   6.736   1.201 -0.5335  1.1367 -1.7445
32316SOL     OW 3552   4.960   3.664   5.328 -0.1824  0.1393  0.2267
32316SOL    HW1 3553   4.984   3.577   5.296  0.8752  0.0030  1.3311
32316SOL    HW2 3554   4.865   3.666   5.324 -0.1774 -0.7067 -0.7047
32317SOL     OW 3555  11.473   4.686   7.428  0.0670  0.5104 -0.0038
32317SOL    HW1 3556  11.444   4.749   7.361  0.8812  2.1362  1.1055
32317SOL    HW2 3557  11.531   4.627   7.380 -0.7907  0.5257 -1.1094
32318SOL     OW 3558   7.108   2.928   7.467 -0.1139  0.2006  0.3023
32318SOL    HW1 3559   7.032   2.924   7.408 -1.6235  0.6848  2.0994
32318SOL    HW2 3560   7.142   3.017   7.455 -0.2632  0.2162 -0.0126
32319SOL     OW 3561   5.024  10.447   5.241  0.2049  0.0838  0.0498
32319SOL    HW1 3562   5.041  10.364   5.196 -1.7719 -0.1862 -0.2796
32319SOL    HW2 3563   5.074  10.440   5.322  0.4985 -1.2027 -0.2138
32320SOL     OW 3564   3.554   4.183   6.304  0.0541  0.3228  0.0065
32320SOL    HW1 3565   3.540   4.201   6.397 -1.3092 -0.1483 -0.0874
32320SOL    HW2 3566   3.576   4.090   6.300 -1.9354 -0.1589 -0.3066
32321SOL     OW 3567  11.620   1.361  12.424  0.1052  0.3298  0.8174
32321SOL    HW1 3568  11.652   1.442  12.384 -1.4669  0.9185  0.7032
32321SOL    HW2 3569  11.700   1.310  12.440  0.9346  0.7689 -1.4858
32322SOL     OW 3570  11.581   3.503   9.192  0.7400  0.3485  0.3406
32322SOL    HW1 3571  11.539   3.548   9.118  1.4533  0.8624  0.2378
32322SOL    HW2 3572  11.534   3.535   9.269  1.2133  1.2634  0.2651
32323SOL     OW 3573  11.141   0.949  10.887 -0.5298 -0.0984  0.2945
32323SOL    HW1 3574  11.218   0.908  10.927 -1.4819  0.2302  2.6502
32323SOL    HW2 3575  11.071   0.885  10.899 -0.8649  0.0282 -0.8867
32324SOL     OW 3576   5.380   3.966  10.615  0.2997 -0.6677  0.5589
32324SOL    HW1 3577   5.360   3.901  10.547  0.5686 -1.9301  1.6444
32324SOL    HW2 3578   5.457   4.012  10.582 -0.7527  0.1321 -0.8993
32325SOL     OW 3579   7.085   8.977   6.092 -0.7077  0.3329 -0.6473
32325SOL    HW1 3580   7.011   8.926   6.126  0.2743 -0.1691  0.8472
32325SOL    HW2 3581   7.158   8.915   6.089 -0.5177  0.6035 -2.9108
32326SOL     OW 3582   9.286  10.720  11.075  0.2141  0.1199  0.0055
32326SOL    HW1 3583   9.204  10.705  11.121  0.1299 -0.8727 -0.4476
32326SOL    HW2 3584   9.274  10.680  10.990  1.0176  0.3509 -0.2306
32327SOL     OW 3585   9.578  12.132   1.193  0.0813  0.4070 -0.0169
32327SOL    HW1 3586   9.509  12.128   1.126 -0.1242 -0.4088  0.2381
32327SOL    HW2 3587   9.536  12.176   1.267 -0.2467 -0.3029  0.2255
32328SOL     OW 3588   3.086   6.715   5.399 -0.1368 -0.2965  0.4155
32328SOL    HW1 3589   3.179   6.713   5.379 -0.0720 -0.3065  0.7271
32328SOL    HW2 3590   3.064   6.625   5.423  0.0443 -0.0375  1.5983
32329SOL     OW 3591  12.139   7.815   4.015 -0.1623  0.2371 -0.2363
32329SOL    HW1 3592  12.219   7.772   4.043 -0.1025  0.8444  0.5800
32329SOL    HW2 3593  12.071   7.748   4.023  0.1287 -0.0495 -0.1615
32330SOL     OW 3594   9.708   7.953  10.626  0.3264  0.1151  0.0666
32330SOL    HW1 3595   9.684   7.916  10.711  0.5114  4.6370  2.3783
32330SOL    HW2 3596   9.798   7.924  10.613 -0.1449 -1.7746  0.6487
32331SOL     OW 3597   4.179  12.059   0.542  0.4383  0.1766  0.8599
32331SOL    HW1 3598   4.088  12.087   0.529 -0.2100 -2.3230 -0.6294
32331SOL    HW2 3599   4.173  11.990   0.607  1.5826  1.2578  2.1737
32332SOL     OW 3600   0.000  10.579   3.868 -0.1790 -0.5785  0.3220
32332SOL    HW1 3601  -0.016  10.662   3.913  1.3625  0.6024 -1.1708
32332SOL    HW2 3602  -0.070  10.572   3.804  1.7536  1.6295 -2.2226
32333SOL     OW 3603   8.494   5.283  11.472  0.2454 -0.9433  0.1408
32333SOL    HW1 3604   8.527   5.349  11.534 -0.8336 -1.3099  1.1569
32333SOL    HW2 3605   8.562   5.217  11.469 -0.0475 -1.3620  1.6813
32334SOL     OW 3606   2.784   8.325   2.358 -0.1368 -0.0760 -0.0870
32334SOL    HW1 3607   2.844   8.339   2.432  0.4703  0.0023 -0.5904
32334SOL    HW2 3608   2.703   8.368   2.385 -0.8159 -2.2558  1.6504
32335SOL     OW 3609   4.242   1.121   6.381  0.0434  0.7798  0.3463
32335SOL    HW1 3610   4.261   1.206   6.419 -0.8193  0.8412  0.6604
32335SOL    HW2 3611   4.161   1.135   6.331 -0.5650 -0.0305  1.0659
32336SOL     OW 3612   2.480   4.496   1.263  0.1025  0.2281 -0.0762
32336SOL    HW1 3613   2.430   4.563   1.308 -0.6198  0.9786 -1.8924
32336SOL    HW2 3614   2.416   4.425   1.248  0.5414 -0.3555  0.7454
32337SOL     OW 3615   6.550  11.541  10.328 -0.5270 -0.2842 -0.1100
32337SOL    HW1 3616   6.610  11.525  10.400  1.2827  1.6134 -1.0869
32337SOL    HW2 3617   6.603  11.584  10.261 -2.8657  1.0417 -1.2553
32338SOL     OW 3618  10.043   6.815  10.223 -0.0015  0.1518 -0.6634
32338SOL    HW1 3619  10.025   6.730  10.183 -0.1875 -0.2528  0.2706
32338SOL    HW2 3620  10.027   6.802  10.316  2.9081  0.3797 -0.0538
32339SOL     OW 3621   0.730   4.270   3.228 -0.1204  0.2523 -0.7170
32339SOL    HW1 3622   0.646   4.270   3.275  1.0875 -3.8104  2.0371
32339SOL    HW2 3623   0.783   4.335   3.274 -0.7207  0.4281 -0.2573
32340SOL     OW 3624   2.723  11.046   8.612 -0.0330 -1.0131 -0.4427
32340SOL    HW1 3625   2.647  11.001   8.576 -0.6830  0.6087 -1.1839
32340SOL    HW2 3626   2.690  11.130   8.642  0.8551 -1.5651  2.3628
32341SOL     OW 3627   1.884   6.248   6.217  0.0621  0.1066  0.1802
32341SOL    HW1 3628   1.805   6.245   6.271 -0.0471 -2.0559 -0.0160
32341SOL    HW2 3629   1.948   6.197   6.267  0.2549 -1.1158 -1.2503
32342SOL     OW 3630   1.547   8.269   6.390  1.0413 -0.0062 -0.5855
32342SOL    HW1 3631   1.543   8.363   6.369 -0.6251  0.4458  1.4178
32342SOL    HW2 3632   1.532   8.225   6.306 -0.6881  1.5896 -1.1744
32343SOL     OW 3633  12.027  11.103   7.595 -0.3893 -0.7293  0.2549
32343SOL    HW1 3634  12.116  11.086   7.626 -0.3291  0.7949  1.0125
32343SOL    HW2 3635  12.029  11.079   7.502  1.4298  1.2363 -0.2978
32344SOL     OW 3636   4.516   3.593  10.433  0.4191  0.4318  0.9900
32344SOL    HW1 3637   4.570   3.606  10.511  1.4378  1.0613  0.2219
32344SOL    HW2 3638   4.570   3.539  10.376 -0.8421 -1.1322  1.2122
32345SOL     OW 3639   2.156   7.501   8.438  0.0165 -0.4375 -0.1610
32345SOL    HW1 3640   2.179   7.422   8.487 -0.6555 -0.6316 -0.1440
32345SOL    HW2 3641   2.124   7.469   8.354  0.8697 -0.1168 -0.6193
32346SOL     OW 3642   5.519  11.612   9.130 -0.7456 -0.1627 -0.0591
32346SOL    HW1 3643   5.465  11.620   9.051 -1.1535  1.5052  0.3404
32346SOL    HW2 3644   5.609  11.618   9.099 -0.9094  3.0565 -0.2696
32347SOL     OW 3645   2.701   8.087   4.980  0.5038  0.1183  0.3387
32347SOL    HW1 3646   2.694   8.048   4.893  1.5970 -3.2913  1.6150
32347SOL    HW2 3647   2.781   8.140   4.977 -0.0071  0.8494 -0.9606
32348SOL     OW 3648   5.958  12.234  11.886 -0.0145 -0.3883 -0.0441
32348SOL    HW1 3649   5.984  12.195  11.969  1.0516 -0.1388 -0.2389
32348SOL    HW2 3650   5.955  12.328  11.904  1.1436 -0.2502 -0.5050
32349SOL     OW 3651   7.215  11.900   5.879  0.4869 -0.3431  0.0289
32349SOL    HW1 3652   7.169  11.849   5.946  0.1733 -1.6884 -1.1747
32349SOL    HW2 3653   7.220  11.842   5.803  0.9972  1.0721 -1.0684
32350SOL     OW 3654  10.943   6.757   1.007  0.2248  0.4012 -0.1734
32350SOL    HW1 3655  10.872   6.767   1.070 -0.4239  0.2477 -0.8685
32350SOL    HW2 3656  10.937   6.666   0.977  0.2074  0.6074 -0.8246
32351SOL     OW 3657   6.316   7.618  10.821 -0.2983 -0.4374  0.1460
32351SOL    HW1 3658   6.328   7.665  10.903  0.6816  0.9019 -0.7236
32351SOL    HW2 3659   6.235   7.569  10.833 -0.3048 -0.0847  1.8110
32352SOL     OW 3660  12.401   5.830   5.712 -0.2857  0.2764 -0.4159
32352SOL    HW1 3661  12.468   5.866   5.654 -0.6652  0.8591 -0.5019
32352SOL    HW2 3662  12.325   5.886   5.698 -0.7076 -0.2162 -0.1211
32353SOL     OW 3663   6.079  12.520   2.798  0.3896  0.0838  0.5897
32353SOL    HW1 3664   6.068  12.586   2.867  1.1751  0.4628  0.3575
32353SOL    HW2 3665   6.082  12.437   2.846  1.7431  0.4027  1.1088
32354SOL     OW 3666   9.041  12.706   4.862 -0.3940 -0.4318  0.0819
32354SOL    HW1 3667   8.959  12.688   4.816 -0.0137 -1.4580 -0.2227
32354SOL    HW2 3668   9.107  12.657   4.814  0.1845 -0.6850  1.1006
32355SOL     OW 3669  10.720   2.783  11.487  0.2176 -0.2248 -0.4469
32355SOL    HW1 3670  10.637   2.767  11.443  0.8325 -1.9192 -1.0302
32355SOL    HW2 3671  10.720   2.723  11.562  0.0272  1.2632  0.8105
32356SOL     OW 3672   6.235   9.146   5.178 -0.0755  0.5348  0.2114
32356SOL    HW1 3673   6.285   9.135   5.097 -0.7527  0.1992 -0.1774
32356SOL    HW2 3674   6.211   9.057   5.203  0.3165  0.6210  0.9099
32357SOL     OW 3675   8.206   9.802   8.921 -0.0884 -0.2812 -0.5955
32357SOL    HW1 3676   8.284   9.814   8.976 -0.1783  0.4003 -0.6101
32357SOL    HW2 3677   8.211   9.711   8.893 -0.4666 -0.8747  1.1838
32358SOL     OW 3678   2.059   4.565  12.726 -0.2931  0.5761  0.0597
32358SOL    HW1 3679   1.994   4.540  12.660 -0.5114 -0.4464  0.6396
32358SOL    HW2 3680   2.133   4.507  12.708 -0.4229  0.1702  0.8046
32359SOL     OW 3681  11.913  11.549   8.284  0.0636  0.5472 -0.0704
32359SOL    HW1 3682  11.937  11.628   8.333 -1.6499  1.5195 -0.7115
32359SOL    HW2 3683  11.905  11.482   8.351  0.0179  1.2973  0.7036
32360SOL     OW 3684   6.785   8.241   4.510 -0.2119 -0.1706  0.3403
32360SOL    HW1 3685   6.878   8.260   4.516  0.3348 -2.4388  0.0444
32360SOL    HW2 3686   6.743   8.327   4.505  1.9254  0.8884 -0.8315
32361SOL     OW 3687   0.291   0.972   8.865 -0.2188 -0.3585  0.2340
32361SOL    HW1 3688   0.362   0.978   8.928  1.4637 -0.5672 -1.5524
32361SOL    HW2 3689   0.320   0.906   8.802 -2.7430 -1.6848  0.3060
32362SOL     OW 3690   2.151   5.182  10.282  0.2286 -0.2937  0.5369
32362SOL    HW1 3691   2.189   5.217  10.362 -1.9716  0.5605  1.2761
32362SOL    HW2 3692   2.073   5.136  10.311 -0.3043 -0.4617 -1.0695
32363SOL     OW 3693   3.166  11.809   3.502  0.7329 -0.0747  0.4800
32363SOL    HW1 3694   3.253  11.815   3.461  0.2508 -2.0734 -1.0030
32363SOL    HW2 3695   3.129  11.728   3.468 -2.2878  1.3494 -0.0102
32364SOL     OW 3696   5.386   0.805   2.829 -0.5184  0.1253  0.6176
32364SOL    HW1 3697   5.355   0.779   2.742  0.4404  2.1535 -0.4074
32364SOL    HW2 3698   5.454   0.741   2.851  0.8600  0.8978 -1.2032
32365SOL     OW 3699  10.256   0.361   6.511 -0.1290  0.0750 -0.1885
32365SOL    HW1 3700  10.193   0.314   6.457 -0.9842 -1.4607  1.9967
32365SOL    HW2 3701  10.208   0.437   6.544 -0.6614 -0.7623  0.9885
32366SOL     OW 3702   7.131   7.286   7.931 -0.1985 -0.1985  0.1320
32366SOL    HW1 3703   7.166   7.197   7.940  2.1554  0.6942  0.7481
32366SOL    HW2 3704   7.133   7.302   7.837  1.4738 -0.0994  0.1415
32367SOL     OW 3705   9.908   7.111   5.632 -0.4536  0.1447  0.0736
32367SOL    HW1 3706   9.939   7.078   5.547  0.5850  0.5725  0.2727
32367SOL    HW2 3707   9.958   7.062   5.697 -1.4197 -0.3540  0.4683
32368SOL     OW 3708  12.592   4.276  11.354 -0.2825  0.4732 -0.0078
32368SOL    HW1 3709  12.612   4.324  11.275  0.0002  1.9228  0.9163
32368SOL    HW2 3710  12.552   4.340  11.413 -1.1957 -0.7317  0.7595
32369SOL     OW 3711   1.005   5.065   9.884 -0.0667  0.5608 -0.5528
32369SOL    HW1 3712   0.914   5.079   9.913 -0.2056 -2.3770  0.7527
32369SOL    HW2 3713   1.057   5.115   9.947 -0.7139  2.0127 -1.1207
32370SOL     OW 3714   4.241  12.259   2.824  0.0019 -0.1772 -0.1199
32370SOL    HW1 3715   4.286  12.237   2.905 -1.3852 -0.1460  0.6972
32370SOL    HW2 3716   4.243  12.355   2.821  0.0052 -0.1761 -0.0927
32371SOL     OW 3717   8.040   8.243   6.519 -0.5776 -0.4140 -0.3485
32371SOL    HW1 3718   8.024   8.249   6.613  0.8612  2.0170 -0.1782
32371SOL    HW2 3719   7.985   8.312   6.481 -0.7322 -1.0149 -1.2520
32372SOL     OW 3720  11.704   7.685   9.788  0.0688 -0.2557  0.0486
32372SOL    HW1 3721  11.748   7.744   9.727  0.0576  0.4329  0.6973
32372SOL    HW2 3722  11.771   7.665   9.854 -0.4184  0.3873  0.7548
32373SOL     OW 3723   4.689   8.651  12.056 -0.4350  0.2915  0.4914
32373SOL    HW1 3724   4.772   8.611  12.032  0.4424  2.6012 -0.6896
32373SOL    HW2 3725   4.693   8.660  12.151  0.0194 -0.8975  0.6003
32374SOL     OW 3726   7.063   3.252  12.754 -0.5762  0.6183  0.1150
32374SOL    HW1 3727   7.037   3.292  12.671 -3.2309 -0.2951  0.4329
32374SOL    HW2 3728   7.136   3.194  12.730 -0.0886  1.7181 -1.2205
32375SOL     OW 3729   0.875   7.479   7.552 -0.3982 -0.3790  0.5175
32375SOL    HW1 3730   0.787   7.452   7.579 -0.7287  0.6539  0.5083
32375SOL    HW2 3731   0.884   7.568   7.585  1.3872 -1.0919  2.2143
32376SOL     OW 3732   7.090   6.337   9.033 -0.0894 -0.3136 -0.4779
32376SOL    HW1 3733   7.107   6.328   9.127  1.0861 -2.3097 -0.7999
32376SOL    HW2 3734   7.000   6.306   9.021  0.6055 -2.6555 -0.2487
32377SOL     OW 3735   7.271   7.187   8.388  0.8727 -0.2408  0.0689
32377SOL    HW1 3736   7.252   7.099   8.354  2.4406 -0.3062 -0.7190
32377SOL    HW2 3737   7.276   7.242   8.309 -0.1483  0.5884  0.5586
32378SOL     OW 3738   7.734   1.628   7.721  0.4859  0.2492  0.3200
32378SOL    HW1 3739   7.745   1.582   7.637  0.2334 -0.3418  0.6087
32378SOL    HW2 3740   7.817   1.614   7.767  0.3216 -0.1123  0.5041
32379SOL     OW 3741   3.286   3.134   5.423 -0.4125  0.1790 -0.3717
32379SOL    HW1 3742   3.237   3.214   5.438 -1.8853 -1.1755  2.8380
32379SOL    HW2 3743   3.375   3.155   5.450 -0.7648  0.7563  0.3692
32380SOL     OW 3744   3.025   9.223   8.747  0.0977  0.4080  0.1041
32380SOL    HW1 3745   2.955   9.163   8.771  1.2917 -0.8899  0.4813
32380SOL    HW2 3746   2.998   9.257   8.661 -1.4545  0.7160  0.6887
32381SOL     OW 3747   2.330  11.555   7.248  0.3081 -0.3408  0.4787
32381SOL    HW1 3748   2.360  11.536   7.159  1.0015  1.8098  0.1911
32381SOL    HW2 3749   2.363  11.482   7.300  0.9327 -1.0412 -0.8454
32382SOL     OW 3750   4.784   5.165   8.952  0.3254 -0.3627 -0.3509
32382SOL    HW1 3751   4.820   5.253   8.938 -0.6193 -0.0295 -0.8186
32382SOL    HW2 3752   4.717   5.156   8.884 -2.9046  0.3923  2.4448
32383SOL     OW 3753   5.385   3.299  12.524 -0.2604 -0.1477 -0.3925
32383SOL    HW1 3754   5.309   3.249  12.555 -2.2356  2.0634 -1.3637
32383SOL    HW2 3755   5.365   3.318  12.432  1.6450  0.2513 -0.7736
32384SOL     OW 3756  10.327   0.066   7.259 -0.6811 -0.2056  0.3559
32384SOL    HW1 3757  10.234   0.079   7.278 -1.0159 -2.0658  0.1814
32384SOL    HW2 3758  10.340   0.107   7.173 -0.8615  1.7211  1.1955
32385SOL     OW 3759  10.378  11.881   1.325  0.2689  0.3410  0.6271
32385SOL    HW1 3760  10.338  11.818   1.385 -0.5218  0.3241  0.0926
32385SOL    HW2 3761  10.470  11.855   1.322 -0.4844 -2.6745 -1.8236
32386SOL     OW 3762  12.482  11.654  10.291  0.3645 -0.0628 -0.1153
32386SOL    HW1 3763  12.387  11.652  10.274  0.3226 -2.8929 -0.1173
32386SOL    HW2 3764  12.518  11.705  10.218 -0.9285 -1.5844 -1.9206
32387SOL     OW 3765   8.940   0.295   8.160  0.1342 -0.5436  0.4685
32387SOL    HW1 3766   8.881   0.369   8.150  1.1353  0.2181  0.0188
32387SOL    HW2 3767   8.884   0.218   8.150 -0.5422  0.1495 -1.5728
32388SOL     OW 3768   3.079  11.391  12.656  0.2617 -0.0370 -0.1621
32388SOL    HW1 3769   2.985  11.381  12.644  0.5451 -0.8292 -2.0432
32388SOL    HW2 3770   3.107  11.306  12.691  0.1811  0.4783  1.1891
32389SOL     OW 3771   6.593   1.223   5.028  0.2724 -0.4856 -0.5519
32389SOL    HW1 3772   6.550   1.240   4.945 -1.1566 -1.8828 -0.1420
32389SOL    HW2 3773   6.595   1.127   5.035  0.8699 -0.4039  0.7598
32390SOL     OW 3774   7.118  11.299   8.511 -0.3114 -0.7117  0.5550
32390SOL    HW1 3775   7.074  11.216   8.494 -0.1775 -0.3458 -1.9555
32390SOL    HW2 3776   7.105  11.314   8.604 -2.1628 -2.5015  0.6614
32391SOL     OW 3777   2.960   0.492  10.062 -0.7294  0.1129  0.1061
32391SOL    HW1 3778   2.946   0.407  10.105 -2.0158  0.2704  0.0378
32391SOL    HW2 3779   2.881   0.542  10.082  0.0553  1.3552  0.2397
32392SOL     OW 3780   7.501   5.242   7.888 -0.1160  0.4272  0.6381
32392SOL    HW1 3781   7.567   5.308   7.911 -0.4518  0.8938  0.2857
32392SOL    HW2 3782   7.476   5.263   7.798 -0.5935  0.1268  0.6948
32393SOL     OW 3783   1.958   5.600   2.344 -0.2127 -0.2343 -0.0909
32393SOL    HW1 3784   2.023   5.542   2.305  0.0133  0.0247 -0.0985
32393SOL    HW2 3785   1.875   5.553   2.334  0.0105 -0.6947  0.1780
32394SOL     OW 3786   0.788   4.911   7.336  0.5082 -0.1658 -0.4083
32394SOL    HW1 3787   0.756   4.972   7.402 -0.5675 -1.2480  0.1248
32394SOL    HW2 3788   0.783   4.825   7.378  0.9682 -0.7389 -1.4782
32395SOL     OW 3789   6.575   4.185   2.747 -0.8020  0.4454  0.5720
32395SOL    HW1 3790   6.485   4.166   2.774 -1.0725  1.1736  0.2313
32395SOL    HW2 3791   6.568   4.208   2.655 -0.3365  0.9328  0.6483
32396SOL     OW 3792  11.718  12.517  10.625  0.2389 -0.0266 -0.0392
32396SOL    HW1 3793  11.771  12.506  10.703 -1.3696 -2.2120  0.8588
32396SOL    HW2 3794  11.701  12.611  10.620  2.5489  0.4952  0.6670
32397SOL     OW 3795   8.567   4.255   1.650  0.6637  0.0667  0.1068
32397SOL    HW1 3796   8.578   4.176   1.598 -0.4922 -0.1789  0.1914
32397SOL    HW2 3797   8.597   4.231   1.738 -0.8192 -0.6955  0.4405
32398SOL     OW 3798  12.229  10.929  10.857 -0.6137  0.2885  0.3898
32398SOL    HW1 3799  12.140  10.965  10.850 -1.5318 -1.8106  0.6585
32398SOL    HW2 3800  12.230  10.883  10.941  0.5994 -0.0616  0.1942
32399SOL     OW 3801   4.607   0.303   7.411 -0.4303 -0.0100  0.2752
32399SOL    HW1 3802   4.574   0.214   7.414  2.3764 -1.2166 -1.3637
32399SOL    HW2 3803   4.552   0.347   7.346 -1.2720 -0.7959  0.4445
32400SOL     OW 3804   3.436  12.071   4.410  0.1331  0.0076 -0.0777
32400SOL    HW1 3805   3.448  12.162   4.383 -1.3053  0.3922  0.5231
32400SOL    HW2 3806   3.403  12.027   4.332  1.4204 -0.1552 -0.5492
32401SOL     OW 3807  11.210  10.184   7.969 -0.4278  0.2856  0.5410
32401SOL    HW1 3808  11.231  10.254   7.907  0.7712  0.0433  0.6469
32401SOL    HW2 3809  11.248  10.106   7.930  1.8088  0.3951  2.3029
32402SOL     OW 3810   5.002   9.356   2.879 -0.2019  0.6936  0.6756
32402SOL    HW1 3811   4.943   9.395   2.943 -0.0048 -2.0789  2.7614
32402SOL    HW2 3812   5.078   9.328   2.931 -0.3703 -2.3774 -0.4986
32403SOL     OW 3813   3.692   4.014  10.966  0.0206 -0.0425 -0.5293
32403SOL    HW1 3814   3.721   3.943  11.024 -1.6844  0.5225  1.1353
32403SOL    HW2 3815   3.658   4.081  11.026  1.6491  2.2751 -2.0128
32404SOL     OW 3816   4.493   7.328  10.909  0.1153  0.9033  0.2640
32404SOL    HW1 3817   4.429   7.282  10.963  1.8875 -0.7645  1.0747
32404SOL    HW2 3818   4.478   7.295  10.820  0.0628  0.2972  0.4979
32405SOL     OW 3819   2.754   7.556  11.851 -0.3958  0.1953  0.2397
32405SOL    HW1 3820   2.741   7.567  11.757  0.8109 -0.7697 -0.0753
32405SOL    HW2 3821   2.682   7.499  11.879  0.7985 -1.8766 -0.6906
32406SOL     OW 3822   7.678   1.351  10.180  0.2861 -0.1564  0.4287
32406SOL    HW1 3823   7.736   1.427  10.177  0.1863 -0.0953 -0.1454
32406SOL    HW2 3824   7.714   1.291  10.115  0.5645 -0.7532  1.1203
32407SOL     OW 3825   6.538  12.627   9.733 -0.5539 -0.3657 -0.2818
32407SOL    HW1 3826   6.604  12.596   9.794  1.5765  2.9544 -0.6364
32407SOL    HW2 3827   6.477  12.678   9.787  0.7277  1.6622 -0.6205
32408SOL     OW 3828  10.405  10.485   1.319  0.4531  0.1295  0.1626
32408SOL    HW1 3829  10.487  10.436   1.328  0.2117 -0.6053 -1.2181
32408SOL    HW2 3830  10.431  10.577   1.327  0.9952 -0.1742  2.3013
32409SOL     OW 3831   0.808  10.397  11.345  0.1513 -0.1172 -0.3859
32409SOL    HW1 3832   0.772  10.483  11.324 -0.7473 -1.0064 -2.8261
32409SOL    HW2 3833   0.748  10.335  11.304  0.3732 -1.9891  1.9150
32410SOL     OW 3834   2.433  11.852   1.089 -0.4377 -0.0009  0.1113
32410SOL    HW1 3835   2.348  11.814   1.065  0.0147 -1.3749  0.6351
32410SOL    HW2 3836   2.486  11.844   1.009  0.2999 -2.3944  0.7540
32411SOL     OW 3837   0.194  11.021   5.629 -0.5219  0.2154  0.1162
32411SOL    HW1 3838   0.276  10.972   5.635 -0.3735  0.3279 -0.8093
32411SOL    HW2 3839   0.213  11.092   5.567 -1.5607 -0.2841 -0.8014
32412SOL     OW 3840  11.451   9.647   8.184  0.4410 -0.2789 -0.1265
32412SOL    HW1 3841  11.532   9.694   8.202  0.2256  0.8026 -1.7570
32412SOL    HW2 3842  11.426   9.675   8.096 -1.4507 -0.9619  0.1457
32413SOL     OW 3843   8.532   1.136   3.124 -0.4702 -0.0814 -0.2936
32413SOL    HW1 3844   8.490   1.217   3.153 -1.8839 -1.7849  2.9588
32413SOL    HW2 3845   8.462   1.084   3.086 -0.1798 -0.8490  0.1954
32414SOL     OW 3846   0.574   3.281   3.067  0.3436 -0.8222 -0.3251
32414SOL    HW1 3847   0.509   3.214   3.045  1.1502 -1.2897 -1.3723
32414SOL    HW2 3848   0.606   3.312   2.983  1.0971 -0.2006  0.1733
32415SOL     OW 3849   9.210   3.508  11.435  0.2484  0.0481 -0.3814
32415SOL    HW1 3850   9.225   3.475  11.346 -1.6632  0.5536 -0.9433
32415SOL    HW2 3851   9.116   3.526  11.438  0.6718  2.4222  0.9284
32416SOL     OW 3852   6.719   7.398   0.723  0.6952 -0.3072 -0.3771
32416SOL    HW1 3853   6.777   7.448   0.666 -0.3374  0.0327 -1.1515
32416SOL    HW2 3854   6.631   7.423   0.696  0.1450  0.8006  2.1822
32417SOL     OW 3855  10.991   7.883   0.538  0.7015  0.2257 -0.3429
32417SOL    HW1 3856  10.950   7.952   0.486 -1.3781 -1.3246 -0.9184
32417SOL    HW2 3857  10.963   7.802   0.495  0.8336 -1.0443  1.8436
32418SOL     OW 3858  12.319   3.254   5.598 -0.1836  0.6030  0.3680
32418SOL    HW1 3859  12.340   3.302   5.678  1.6246 -1.0990  0.9857
32418SOL    HW2 3860  12.284   3.171   5.629 -1.1876  0.6360 -0.6501
32419SOL     OW 3861   2.231   0.263   6.258  0.4200 -0.1773  0.7575
32419SOL    HW1 3862   2.278   0.242   6.178 -1.8725  0.3404 -0.8300
32419SOL    HW2 3863   2.199   0.352   6.245 -2.0954 -0.9377  1.0833
32420SOL     OW 3864  12.421   9.090   8.305 -0.7133 -0.6077  0.5022
32420SOL    HW1 3865  12.463   9.143   8.237 -2.8918  1.0583  0.3531
32420SOL    HW2 3866  12.441   9.000   8.281 -0.8002 -0.0343 -1.9479
32421SOL     OW 3867   8.122   8.056   7.098 -0.0630  0.7422 -0.1330
32421SOL    HW1 3868   8.074   8.087   7.175  0.5253 -0.6226  0.8397
32421SOL    HW2 3869   8.119   8.129   7.036 -0.1574  2.0728  1.3678
32422SOL     OW 3870   4.088  11.889   0.055  0.1694 -0.3640 -0.4001
32422SOL    HW1 3871   4.114  11.876  -0.036  1.1229  0.8886 -0.3286
32422SOL    HW2 3872   4.168  11.913   0.100 -0.5474  0.4281  0.4952
32423SOL     OW 3873   3.476  12.589   5.410 -0.2473 -0.2592  0.0860
32423SOL    HW1 3874   3.554  12.610   5.359  0.8348 -0.4805  1.5819
32423SOL    HW2 3875   3.482  12.495   5.427  0.7100  0.1527  2.5361
32424SOL     OW 3876   2.966   6.559   7.055  0.0852 -0.2946  0.6352
32424SOL    HW1 3877   3.047   6.575   7.008  0.2983 -2.1177  0.3351
32424SOL    HW2 3878   2.992   6.511   7.133 -0.5124  0.8574  1.5886
32425SOL     OW 3879   4.485   0.009  11.518  0.2683 -0.6353 -0.0845
32425SOL    HW1 3880   4.446   0.082  11.469  1.5523  0.3758  0.3522
32425SOL    HW2 3881   4.424  -0.006  11.590  0.6055  0.8609  0.5421
32426SOL     OW 3882   3.274   6.317   2.514 -0.0091 -0.2443 -0.7753
32426SOL    HW1 3883   3.304   6.383   2.577 -1.2152  2.4454 -2.8429
32426SOL    HW2 3884   3.333   6.243   2.528 -0.4134 -0.0242  3.6986
32427SOL     OW 3885  10.154  10.591   7.961  0.5260 -0.6049 -0.3290
32427SOL    HW1 3886  10.136  10.636   7.879 -0.6672  0.8237  0.6498
32427SOL    HW2 3887  10.217  10.523   7.939 -0.6346 -1.0096 -2.6284
32428SOL     OW 3888   6.589   3.175   2.751 -0.3125  0.3439  0.5010
32428SOL    HW1 3889   6.511   3.216   2.714  0.0932  0.1758 -0.5987
32428SOL    HW2 3890   6.592   3.088   2.710  0.1521  0.1411  0.9507
32429SOL     OW 3891   0.568   9.985   7.995  0.0636 -0.2495 -0.2161
32429SOL    HW1 3892   0.617   9.969   8.076  2.0563  0.4525 -1.2131
32429SOL    HW2 3893   0.561   9.899   7.954 -0.5572 -0.5327  0.4462
32430SOL     OW 3894   5.764   6.045   9.646 -0.0591 -0.0104  0.6132
32430SOL    HW1 3895   5.717   5.967   9.676 -0.3535  0.2083  0.7251
32430SOL    HW2 3896   5.721   6.117   9.691 -1.0522  0.4181 -0.9293
32431SOL     OW 3897   4.990   0.892   0.364 -0.5834 -0.0083 -0.3151
32431SOL    HW1 3898   4.965   0.800   0.365 -1.5309  0.2399 -0.0213
32431SOL    HW2 3899   4.919   0.935   0.315  0.2483  0.4579 -1.1443
32432SOL     OW 3900   0.897   6.988  11.699  0.1665 -0.1640  0.1287
32432SOL    HW1 3901   0.952   6.957  11.628 -1.4879 -2.6308 -0.1897
32432SOL    HW2 3902   0.952   6.981  11.778  1.3049  0.5375 -0.5763
32433SOL     OW 3903  11.762  10.203   1.681  0.5232  0.1306  0.2093
32433SOL    HW1 3904  11.758  10.183   1.774 -0.4517  1.5221  0.4910
32433SOL    HW2 3905  11.699  10.144   1.640  0.3926  0.0472  0.5322
32434SOL     OW 3906   8.845  11.787   6.644  0.2141 -0.3219  0.3498
32434SOL    HW1 3907   8.907  11.845   6.600  0.8064  0.4504  2.1450
32434SOL    HW2 3908   8.759  11.822   6.622  0.5624  1.6155  1.7959
32435SOL     OW 3909   0.181   7.040   4.442  0.0416 -0.4165 -0.0564
32435SOL    HW1 3910   0.203   7.132   4.428 -1.2980 -0.0463  0.1234
32435SOL    HW2 3911   0.100   7.042   4.492 -0.5645 -1.6918 -0.9196
32436SOL     OW 3912   2.746   2.251   4.966  0.5577 -0.5465 -0.1236
32436SOL    HW1 3913   2.735   2.337   4.927  1.3034 -1.0507 -1.4907
32436SOL    HW2 3914   2.826   2.258   5.018 -1.3295  0.6314  2.8772
32437SOL     OW 3915   8.841   0.613   2.003 -0.0752 -0.1758 -0.0863
32437SOL    HW1 3916   8.920   0.665   2.018 -1.5889  2.3264 -0.2869
32437SOL    HW2 3917   8.841   0.597   1.908 -1.1350  2.2747 -0.5862
32438SOL     OW 3918   8.001   8.610  11.489 -0.0481  0.7725  0.1176
32438SOL    HW1 3919   7.977   8.520  11.513  0.1326  1.1198  1.6875
32438SOL    HW2 3920   8.091   8.603  11.458  0.6977  0.6748  2.1695
32439SOL     OW 3921  11.808   0.605   1.966 -0.3376 -0.1508 -0.1792
32439SOL    HW1 3922  11.770   0.576   1.883 -1.9312  0.5843  0.2453
32439SOL    HW2 3923  11.766   0.550   2.032  1.6929 -1.4502  0.0972
32440SOL     OW 3924  11.050   0.306   5.981  0.1748  0.4609  0.1934
32440SOL    HW1 3925  11.054   0.360   5.902  0.1926 -0.8875 -0.7567
32440SOL    HW2 3926  10.963   0.268   5.981  0.6391 -0.6501  0.0504
32441SOL     OW 3927   7.722   8.793   9.255  0.3797 -0.2943 -0.0554
32441SOL    HW1 3928   7.793   8.830   9.202  0.0659  0.4339  0.0260
32441SOL    HW2 3929   7.720   8.700   9.231  1.1540 -0.2570 -0.2898
32442SOL     OW 3930   8.888   3.240   0.239 -0.4707 -0.0770 -0.2271
32442SOL    HW1 3931   8.793   3.238   0.238 -0.6723  3.5779 -1.4365
32442SOL    HW2 3932   8.914   3.236   0.147  0.4239  0.6765 -0.0224
32443SOL     OW 3933   4.615   8.049   4.709 -0.0622 -0.0015  0.0737
32443SOL    HW1 3934   4.679   8.108   4.669 -0.5089  0.0670 -0.5580
32443SOL    HW2 3935   4.615   7.972   4.653 -2.3252  0.9947 -1.4334
32444SOL     OW 3936   5.294   7.205   1.474 -0.2624 -0.6641  0.1015
32444SOL    HW1 3937   5.371   7.246   1.436 -2.5565  2.7412 -1.3449
32444SOL    HW2 3938   5.240   7.181   1.399 -2.7561  1.7036  0.9814
32445SOL     OW 3939   0.654   6.835   0.919 -0.2673 -0.0261  0.0490
32445SOL    HW1 3940   0.684   6.744   0.916  0.3262  0.1745 -2.8934
32445SOL    HW2 3941   0.635   6.857   0.828  0.3448  3.0443  0.5522
32446SOL     OW 3942   1.419  11.532   3.897 -0.1729  0.9043 -0.2505
32446SOL    HW1 3943   1.380  11.454   3.936  0.8268  1.0697  1.1691
32446SOL    HW2 3944   1.347  11.594   3.890 -0.6949  0.3253 -0.1495
32447SOL     OW 3945  12.518   1.824   5.946 -0.0163 -0.1720  0.4835
32447SOL    HW1 3946  12.501   1.845   5.855 -0.8971  1.2053  0.9335
32447SOL    HW2 3947  12.476   1.739   5.959  0.4660 -0.5692 -0.4762
32448SOL     OW 3948   7.751   9.050  12.435  0.1651  0.6524  0.0531
32448SOL    HW1 3949   7.774   9.055  12.527  1.6070  0.0339 -0.2437
32448SOL    HW2 3950   7.706   8.966  12.426  0.8623  0.2636  0.0521
32449SOL     OW 3951   0.765  12.233   2.077 -0.7621  0.6011 -0.2874
32449SOL    HW1 3952   0.676  12.211   2.049 -0.1657 -0.4396 -1.4757
32449SOL    HW2 3953   0.773  12.195   2.165 -1.3309  0.2977 -0.3665
32450SOL     OW 3954   3.549   4.244   3.741 -0.0072 -0.0508  0.5347
32450SOL    HW1 3955   3.476   4.305   3.742  0.5208  0.6019  0.5673
32450SOL    HW2 3956   3.623   4.295   3.707 -0.0903 -1.3445 -1.7532
32451SOL     OW 3957  10.139   3.350   4.049 -0.1909 -0.0284 -0.3106
32451SOL    HW1 3958  10.143   3.422   4.111 -0.7849  0.4519 -0.8168
32451SOL    HW2 3959  10.194   3.377   3.976  0.4270 -0.5466 -0.0440
32452SOL     OW 3960  11.949   6.898   0.914  0.0602  0.0193  0.0568
32452SOL    HW1 3961  11.965   6.955   0.989 -0.4241  0.3861 -0.1195
32452SOL    HW2 3962  11.888   6.946   0.858  0.3256 -0.2947 -0.5216
32453SOL     OW 3963   4.809   8.068   0.081 -0.2821 -0.6106 -0.1004
32453SOL    HW1 3964   4.865   8.145   0.093 -1.3574  0.1624  0.1932
32453SOL    HW2 3965   4.869   7.997   0.058  0.6363  0.5972 -1.6534
32454SOL     OW 3966  11.730   8.523   7.772 -0.1437  0.2308  0.5205
32454SOL    HW1 3967  11.661   8.562   7.717  1.2436 -1.5867 -2.7943
32454SOL    HW2 3968  11.707   8.431   7.777  0.7474  0.0445  1.5275
32455SOL     OW 3969   7.672   1.801   2.851 -0.4592  0.1023  0.2314
32455SOL    HW1 3970   7.670   1.709   2.827  0.1839  0.3800 -0.9956
32455SOL    HW2 3971   7.726   1.805   2.930 -0.2779 -0.5434  0.1393
32456SOL     OW 3972   0.459   8.674   7.865  0.1703  0.3165  0.2924
32456SOL    HW1 3973   0.528   8.635   7.811  1.4583  0.8795  1.4778
32456SOL    HW2 3974   0.501   8.750   7.906 -1.1929  0.7359  0.9647
32457SOL     OW 3975   2.279   4.139   9.224 -0.1445  0.4478  0.4082
32457SOL    HW1 3976   2.316   4.121   9.138 -0.0910 -0.4886  0.6184
32457SOL    HW2 3977   2.354   4.137   9.283 -0.2322  0.7248  0.5313
32458SOL     OW 3978   3.728   5.686   0.120  0.0162 -0.5697 -0.4751
32458SOL    HW1 3979   3.637   5.659   0.138  0.8253 -1.7102  2.4859
32458SOL    HW2 3980   3.727   5.781   0.132 -0.7642 -0.6010 -0.2045
32459SOL     OW 3981   5.283   5.598   5.422  0.6325  0.4497 -0.1424
32459SOL    HW1 3982   5.224   5.646   5.364 -1.3595 -0.6221  0.8402
32459SOL    HW2 3983   5.352   5.564   5.365 -0.2350  0.9706 -1.5443
32460SOL     OW 3984   6.508  11.754   4.676 -0.2450 -0.0673  0.1526
32460SOL    HW1 3985   6.481  11.695   4.605 -0.7136 -0.5603  0.7321
32460SOL    HW2 3986   6.431  11.808   4.694  0.3566  1.1534 -0.7695
32461SOL     OW 3987   1.422  11.687  10.898 -0.1505  0.0827  0.0070
32461SOL    HW1 3988   1.425  11.641  10.814 -0.4826  0.3511 -0.1558
32461SOL    HW2 3989   1.403  11.778  10.875  0.4867  0.3006  0.3274
32462SOL     OW 3990   0.998   6.751   7.761 -0.6267 -0.3937  0.0705
32462SOL    HW1 3991   1.014   6.681   7.824  0.0766 -0.9429 -0.7049
32462SOL    HW2 3992   0.920   6.722   7.712 -0.0956 -0.8511 -0.5259
32463SOL     OW 3993   2.508   1.943   2.231  0.0108  0.3699 -0.3779
32463SOL    HW1 3994   2.424   1.961   2.273 -0.7343 -2.3002 -0.5173
32463SOL    HW2 3995   2.496   1.973   2.140 -0.8243 -0.0192 -0.4090
32464SOL     OW 3996   2.558   5.237   1.782  0.8464 -0.0006 -0.2974
32464SOL    HW1 3997   2.624   5.280   1.728  0.4444  0.2686 -0.5759
32464SOL    HW2 3998   2.601   5.226   1.867  0.9585  0.9349 -0.2223
32465SOL     OW 3999   7.967   6.764  11.532  0.1867  0.0911 -0.6930
32465SOL    HW1 4000   7.950   6.680  11.574  2.2316 -1.1610 -2.1853
32465SOL    HW2 4001   7.972   6.826  11.605 -2.0661 -0.8859  0.3771
32466SOL     OW 4002   6.532  12.269  12.044 -0.3716  0.2739 -0.1546
32466SOL    HW1 4003   6.556  12.334  12.109 -0.5453 -0.3761  0.5726
32466SOL    HW2 4004   6.538  12.315  11.960 -2.4639  1.8084  0.4781
32467SOL     OW 4005  11.569   3.174   2.619  0.0368  0.4253  0.6485
32467SOL    HW1 4006  11.537   3.220   2.541 -1.7572 -1.3335  0.2762
32467SOL    HW2 4007  11.637   3.115   2.586  0.6635  1.0627  0.7620
32468SOL     OW 4008   1.295   3.323   0.932  0.3594 -0.7301 -0.2510
32468SOL    HW1 4009   1.361   3.262   0.899 -0.5415 -2.5678  1.1412
32468SOL    HW2 4010   1.324   3.343   1.021  0.8203  1.2211 -0.7868
32469SOL     OW 4011   6.811   3.815   2.215  0.0582 -0.1999 -0.1024
32469SOL    HW1 4012   6.730   3.838   2.170 -0.3470  1.6659  1.4322
32469SOL    HW2 4013   6.786   3.742   2.272 -0.3287 -0.2377 -0.3160
32470SOL     OW 4014  10.687   2.120   7.587 -0.0509 -0.1564  0.5363
32470SOL    HW1 4015  10.740   2.197   7.606  0.5950  0.0091 -1.7206
32470SOL    HW2 4016  10.748   2.046   7.594  0.0624 -0.1455 -0.2693
32471SOL     OW 4017  10.696   7.681   2.189 -0.2159  0.0446 -0.5772
32471SOL    HW1 4018  10.680   7.590   2.213 -2.7968  0.8431  1.2478
32471SOL    HW2 4019  10.791   7.691   2.191  0.0650 -2.3128  0.3239
32472SOL     OW 4020   7.368   8.309   3.102 -0.1820  0.2665 -0.1807
32472SOL    HW1 4021   7.389   8.394   3.063  0.8543  0.0476 -0.1497
32472SOL    HW2 4022   7.296   8.275   3.049  0.6357  0.3483 -1.3879
32473SOL     OW 4023   4.227   9.377   1.438  0.3459 -0.1146  0.2140
32473SOL    HW1 4024   4.141   9.338   1.423  0.1113  0.3291  0.4041
32473SOL    HW2 4025   4.223   9.462   1.394  0.6089  0.0066  0.4197
32474SOL     OW 4026   9.856  11.074   8.476 -0.1382  0.2497  0.2793
32474SOL    HW1 4027   9.828  11.017   8.548  1.5592  0.1728  0.9095
32474SOL    HW2 4028   9.775  11.117   8.447 -1.1320 -1.0316  1.0631
32475SOL     OW 4029   8.200   7.135   8.872 -0.4450 -0.8423 -0.9249
32475SOL    HW1 4030   8.192   7.081   8.951 -0.4003 -1.0779 -1.0780
32475SOL    HW2 4031   8.120   7.188   8.871  0.7585  1.1721  0.7447
32476SOL     OW 4032   7.638   6.401   0.513  0.2160 -0.0397 -0.0548
32476SOL    HW1 4033   7.695   6.476   0.498  2.0421 -0.8786  2.0720
32476SOL    HW2 4034   7.672   6.332   0.456  0.4432 -0.1331  0.1941
32477SOL     OW 4035   6.221   8.292   4.556 -0.1775 -0.3443 -0.6486
32477SOL    HW1 4036   6.298   8.284   4.499  1.6999  0.1769  1.6730
32477SOL    HW2 4037   6.151   8.245   4.509  1.6474 -1.2351 -2.6294
32478SOL     OW 4038   3.037   2.372   4.920  0.2998  0.2315  0.3959
32478SOL    HW1 4039   3.066   2.442   4.862  0.2221 -0.2070 -0.1736
32478SOL    HW2 4040   2.994   2.308   4.863 -0.7257  0.2885  1.0580
32479SOL     OW 4041  12.423  10.880   2.013  0.3240 -0.5753  0.4231
32479SOL    HW1 4042  12.516  10.888   2.033  0.3598 -0.1340  0.0827
32479SOL    HW2 4043  12.416  10.903   1.920  0.1981 -2.7875 -0.1725
32480SOL     OW 4044   6.442   0.093   6.473  0.6721 -0.2607 -0.3524
32480SOL    HW1 4045   6.468   0.163   6.533  1.6766 -1.0097  0.1047
32480SOL    HW2 4046   6.352   0.071   6.499  1.2111 -0.8238  1.1385
32481SOL     OW 4047  12.111   4.605   9.950 -0.6703  0.7739  0.0399
32481SOL    HW1 4048  12.186   4.662   9.966 -1.2303  1.6132 -0.2906
32481SOL    HW2 4049  12.151   4.522   9.922  0.1933  0.4226  2.1603
32482SOL     OW 4050   3.769   2.590   9.491 -0.0665 -0.0450  0.7600
32482SOL    HW1 4051   3.801   2.542   9.415  2.4333  1.6863  0.5948
32482SOL    HW2 4052   3.731   2.670   9.456 -0.0620  0.1797  1.2481
32483SOL     OW 4053   1.453   3.011  12.627  0.0628 -0.8558  0.0602
32483SOL    HW1 4054   1.478   3.067  12.553  1.1425  0.0949  1.0909
32483SOL    HW2 4055   1.365   3.040  12.651  0.2137 -0.2928 -0.0578
32484SOL     OW 4056   1.051   1.049   0.482 -0.3895 -0.7194 -0.1016
32484SOL    HW1 4057   1.032   0.955   0.489  2.3560 -1.3057  0.9748
32484SOL    HW2 4058   1.028   1.085   0.567  0.6159 -0.9114  0.2733
32485SOL     OW 4059  10.726   5.056  12.435  0.2682 -0.5409  0.2959
32485SOL    HW1 4060  10.660   5.043  12.366 -0.1745 -0.9827  0.7932
32485SOL    HW2 4061  10.679   5.039  12.516  0.5186  1.0031  0.7958
32486SOL     OW 4062   8.692   5.616  10.819 -0.3551  0.2828 -0.0721
32486SOL    HW1 4063   8.619   5.601  10.760  0.4695  0.1562 -1.0976
32486SOL    HW2 4064   8.690   5.541  10.879 -0.7868  0.0389 -0.3850
32487SOL     OW 4065   9.470  10.151   2.570  0.2687 -0.1456 -0.1243
32487SOL    HW1 4066   9.485  10.074   2.515  2.9482 -0.1820  0.4895
32487SOL    HW2 4067   9.552  10.200   2.564  0.2184  0.4585  2.8319
32488SOL     OW 4068   1.582   0.751   3.305 -0.0293  0.1831 -0.0732
32488SOL    HW1 4069   1.496   0.789   3.285 -0.3110 -0.8920 -0.9655
32488SOL    HW2 4070   1.618   0.726   3.220  0.7554 -0.2510  0.3762
32489SOL     OW 4071   2.605   0.014   6.238  0.1617 -0.4569  0.3554
32489SOL    HW1 4072   2.693  -0.012   6.267  1.5142  1.5129 -1.6173
32489SOL    HW2 4073   2.574   0.074   6.305  0.8688 -0.2255  0.4816
32490SOL     OW 4074   5.439   2.318   9.016  0.4344  0.3786 -0.5957
32490SOL    HW1 4075   5.351   2.289   9.041  0.7606 -0.1593 -0.0203
32490SOL    HW2 4076   5.450   2.403   9.059 -0.1387  0.8839 -1.4273
32491SOL     OW 4077  10.157   9.057   4.740  0.0849  0.0595  0.2780
32491SOL    HW1 4078  10.156   9.028   4.831 -0.0848  0.1181  0.2946
32491SOL    HW2 4079  10.086   9.010   4.698 -0.0136  0.2405  0.2402
32492SOL     OW 4080   2.948   6.413   6.326  0.0236 -0.6080 -0.0169
32492SOL    HW1 4081   3.017   6.348   6.315 -1.2534 -1.9392 -0.6264
32492SOL    HW2 4082   2.877   6.382   6.269 -0.4996  1.5577 -0.6545
32493SOL     OW 4083   7.920   6.612   1.535 -0.1518 -0.4908  0.0728
32493SOL    HW1 4084   7.845   6.614   1.595  0.1413 -2.5810  0.5894
32493SOL    HW2 4085   7.881   6.593   1.450 -0.3770  0.4334 -0.0397
32494SOL     OW 4086   0.573   1.081   9.638 -0.1179  0.4104  0.0779
32494SOL    HW1 4087   0.570   1.036   9.554  0.4315  0.7399 -0.1255
32494SOL    HW2 4088   0.609   1.168   9.617 -1.0931  0.9146  0.4731
32495SOL     OW 4089   0.475   4.955   3.551 -0.2652  0.1146  0.5917
32495SOL    HW1 4090   0.475   4.923   3.460 -0.8707 -0.2962  0.7301
32495SOL    HW2 4091   0.428   4.888   3.600 -0.4222  0.6035  1.1159
32496SOL     OW 4092  12.779   7.236   8.242 -0.2704  0.2084  0.2665
32496SOL    HW1 4093  12.756   7.285   8.163 -1.8553 -2.3929 -1.0201
32496SOL    HW2 4094  12.702   7.243   8.298  0.1242  0.5123  0.7704
32497SOL     OW 4095   7.381   5.471   9.392 -0.3535  0.1469  0.2098
32497SOL    HW1 4096   7.442   5.488   9.463  0.2001  1.6577 -0.5802
32497SOL    HW2 4097   7.435   5.434   9.322 -0.3719  1.1646 -0.3684
32498SOL     OW 4098   8.512  11.980  11.115 -0.3151 -0.0493 -0.4870
32498SOL    HW1 4099   8.536  12.029  11.193  1.6722 -2.3752  0.5097
32498SOL    HW2 4100   8.533  12.038  11.042  1.8232  0.6694  0.6305
32499SOL     OW 4101   3.259   8.570   1.799  0.0025 -0.7162  0.7244
32499SOL    HW1 4102   3.247   8.533   1.886  0.2580 -1.3881  0.4805
32499SOL    HW2 4103   3.261   8.494   1.741 -0.1445 -0.2765  0.1357
32500SOL     OW 4104   8.029   5.361   0.606 -0.4293  0.2112  0.6367
32500SOL    HW1 4105   8.024   5.420   0.680  0.3389  0.7882  0.2422
32500SOL    HW2 4106   8.042   5.274   0.645 -0.8477  0.3938  1.1905
32501SOL     OW 4107   6.114   7.964   3.680 -0.2172 -0.1161 -0.6145
32501SOL    HW1 4108   6.095   7.871   3.691 -1.2965  0.1320 -0.2744
32501SOL    HW2 4109   6.135   7.995   3.768  0.1531 -0.0435 -0.7290
32502SOL     OW 4110   6.808   0.121  12.441  0.3094  0.4708 -0.2094
32502SOL    HW1 4111   6.818   0.187  12.372  3.7665 -0.4468 -0.7643
32502SOL    HW2 4112   6.714   0.101  12.440  0.0604  0.7705 -4.4644
32503SOL     OW 4113   8.660   3.571   6.100 -0.5963 -0.0268 -0.3829
32503SOL    HW1 4114   8.604   3.647   6.116  0.8390  0.5921  2.3808
32503SOL    HW2 4115   8.744   3.609   6.074 -0.3669 -0.7806 -0.7716
32504SOL     OW 4116   0.938   7.010  12.515  0.1301  0.0611  0.3941
32504SOL    HW1 4117   0.952   7.009  12.610 -0.1304 -0.9179  0.4347
32504SOL    HW2 4118   0.894   7.094  12.498  0.7111  0.5100  1.0511
32505SOL     OW 4119   7.476   6.092   9.769 -0.2656  0.7194 -0.3738
32505SOL    HW1 4120   7.548   6.143   9.807  0.3637 -0.3995 -0.0360
32505SOL    HW2 4121   7.406   6.157   9.756  0.4028  1.6139  0.3256
32506SOL     OW 4122   7.343  12.627  10.951  0.0753  0.0467 -0.6594
32506SOL    HW1 4123   7.367  12.672  11.032 -0.6549  0.3956 -0.6272
32506SOL    HW2 4124   7.260  12.585  10.972  0.6090 -1.1072 -0.7724
32507SOL     OW 4125   3.582   4.763   1.460  0.3043  0.2037  0.4445
32507SOL    HW1 4126   3.552   4.851   1.483  2.4813  0.7945  1.3699
32507SOL    HW2 4127   3.627   4.732   1.538  0.3443 -1.3683 -0.1726
32508SOL     OW 4128   8.051  10.939  12.709  0.0799 -0.0151 -0.1144
32508SOL    HW1 4129   8.058  11.034  12.697 -0.0472 -0.0999 -0.9500
32508SOL    HW2 4130   8.103  10.920  12.787 -0.8206  0.8837  0.7198
32509SOL     OW 4131  11.195  12.371   1.384 -0.1738  0.0585 -0.2428
32509SOL    HW1 4132  11.277  12.324   1.401  0.7394  1.5425 -0.2938
32509SOL    HW2 4133  11.134  12.338   1.450  0.4818 -1.0240 -0.1531
32510SOL     OW 4134   6.974   8.270   6.420  0.1583 -0.0243 -0.0691
32510SOL    HW1 4135   7.003   8.198   6.476 -0.6466 -0.3880 -0.1032
32510SOL    HW2 4136   6.974   8.346   6.477 -2.0340 -0.6489  0.8715
32511SOL     OW 4137   8.020   2.516   5.590 -0.2291 -0.3781  0.0070
32511SOL    HW1 4138   8.066   2.579   5.644  1.6176 -0.4180 -1.4022
32511SOL    HW2 4139   8.001   2.563   5.509 -2.2524 -0.5372  0.3411
32512SOL     OW 4140  11.707   7.472   4.609 -0.1739 -0.7839  0.4205
32512SOL    HW1 4141  11.734   7.413   4.539  0.1603 -1.9406  1.4830
32512SOL    HW2 4142  11.697   7.415   4.686  0.8986  0.6377  1.6840
32513SOL     OW 4143  10.167   2.247   5.945 -0.0576  0.1785 -0.3150
32513SOL    HW1 4144  10.144   2.222   6.034 -0.5397  1.1734 -0.1462
32513SOL    HW2 4145  10.177   2.164   5.898  0.8639 -0.3790  0.8102
32514SOL     OW 4146   6.022   5.851   9.433 -0.4422  0.5030 -0.6811
32514SOL    HW1 4147   6.098   5.794   9.425 -0.3337  0.9202 -4.7012
32514SOL    HW2 4148   5.979   5.823   9.514  4.2714  0.8062  2.3205
32515SOL     OW 4149  11.214   4.583   2.581  0.0826  0.3932  0.6833
32515SOL    HW1 4150  11.284   4.649   2.584 -0.8703  1.5847 -1.2136
32515SOL    HW2 4151  11.181   4.580   2.671  0.8287  1.7832  1.0403
32516SOL     OW 4152   8.729   9.095   5.864  0.1212  0.0913  0.0547
32516SOL    HW1 4153   8.796   9.027   5.853 -0.0037 -0.2604  1.2769
32516SOL    HW2 4154   8.736   9.120   5.956 -2.3569 -0.9911  0.6338
32517SOL     OW 4155  10.144   5.634  10.965 -0.1290 -0.8535  0.5376
32517SOL    HW1 4156  10.157   5.539  10.960 -0.4040 -0.8928  0.5795
32517SOL    HW2 4157  10.142   5.663  10.874 -1.0170 -1.0184  0.5028
32518SOL     OW 4158   9.724   0.804   0.297 -0.7267  0.1171 -0.7073
32518SOL    HW1 4159   9.707   0.885   0.345  1.5082  0.4634 -0.3961
32518SOL    HW2 4160   9.783   0.831   0.226 -2.3932 -0.7397 -2.4894
32519SOL     OW 4161   4.418  10.005   8.007  0.1732 -0.3416 -0.1462
32519SOL    HW1 4162   4.366   9.985   8.084 -0.6310 -0.7665 -0.7830
32519SOL    HW2 4163   4.509  10.006   8.038 -0.2732  2.8574  1.5177
32520SOL     OW 4164   6.803   9.389   6.928 -0.5244 -0.6694 -0.6050
32520SOL    HW1 4165   6.797   9.485   6.929 -0.9427 -0.6932 -0.2802
32520SOL    HW2 4166   6.896   9.370   6.919 -0.3187 -0.2285  0.4775
32521SOL     OW 4167  11.446  11.953   0.545 -0.1186 -0.0941 -0.2668
32521SOL    HW1 4168  11.371  11.995   0.502 -0.7718 -0.8504  0.1063
32521SOL    HW2 4169  11.414  11.930   0.632  0.7182  0.0382  0.0858
32522SOL     OW 4170   7.387   5.292   3.520 -0.1778  0.3826  0.0422
32522SOL    HW1 4171   7.387   5.214   3.464  1.5212  0.4089 -0.0374
32522SOL    HW2 4172   7.434   5.264   3.599  0.7106  1.3866 -0.1120
32523SOL     OW 4173   5.727   5.478   1.306  0.3696 -0.4076  0.0498
32523SOL    HW1 4174   5.667   5.527   1.250  0.3409 -1.0023 -0.4445
32523SOL    HW2 4175   5.682   5.475   1.391  0.0273 -0.2410 -0.1218
32524SOL     OW 4176   3.382  11.893   1.657  0.2686  0.5573  0.6581
32524SOL    HW1 4177   3.386  11.958   1.727 -0.8056  1.4523 -0.0822
32524SOL    HW2 4178   3.474  11.875   1.636  0.5946  0.6846  1.9042
32525SOL     OW 4179   1.242   9.640  11.097 -0.2054  0.3043  0.1323
32525SOL    HW1 4180   1.285   9.577  11.040  0.2772  1.2892 -0.6264
32525SOL    HW2 4181   1.255   9.724  11.054  0.7366  1.1804  2.0055
32526SOL     OW 4182   4.838   3.265  12.671 -0.2396 -0.1079 -0.2117
32526SOL    HW1 4183   4.892   3.189  12.692  1.2669  0.2776 -2.3971
32526SOL    HW2 4184   4.877   3.337  12.720  1.2864  0.1484 -1.7060
32527SOL     OW 4185   9.865   9.272   7.788 -1.0747 -0.0995 -0.5506
32527SOL    HW1 4186   9.936   9.295   7.728  0.2260 -0.5233  0.7658
32527SOL    HW2 4187   9.805   9.219   7.735 -0.8591  0.9740 -1.9051
32528SOL     OW 4188   4.815  11.305   0.869  0.4435 -0.3919  0.1197
32528SOL    HW1 4189   4.803  11.394   0.836  2.2973  0.0737  0.5979
32528SOL    HW2 4190   4.798  11.249   0.793 -0.8948  0.3425 -0.1494
32529SOL     OW 4191   2.343   7.438   8.938  0.3009  0.5167  0.7904
32529SOL    HW1 4192   2.337   7.344   8.956  0.5610  0.1694 -0.8136
32529SOL    HW2 4193   2.261   7.458   8.893 -0.2255  1.3104  2.0433
32530SOL     OW 4194   1.507   7.890   7.149  0.0337  0.1806 -0.0438
32530SOL    HW1 4195   1.587   7.837   7.152 -0.0597  0.0586  2.2969
32530SOL    HW2 4196   1.439   7.832   7.183  0.0178  1.8102  3.0469
32531SOL     OW 4197   5.771   1.776   3.602  0.0765 -0.2702 -0.0268
32531SOL    HW1 4198   5.731   1.815   3.524  1.2102  0.4481 -0.2596
32531SOL    HW2 4199   5.696   1.744   3.653 -0.7154 -0.1919 -1.1010
32532SOL     OW 4200   5.499   4.131  11.996 -0.6583 -0.1650  0.2830
32532SOL    HW1 4201   5.462   4.219  11.985  0.8604  0.2871 -1.8453
32532SOL    HW2 4202   5.562   4.141  12.068  0.7812  1.0118 -1.0544
32533SOL     OW 4203   1.528  11.224   8.834 -0.4694 -0.1257 -0.3077
32533SOL    HW1 4204   1.505  11.149   8.889  1.5779 -0.3791  0.2950
32533SOL    HW2 4205   1.567  11.287   8.895 -1.3031  1.0531 -0.9618
32534SOL     OW 4206   1.193   8.412   7.647 -0.2428  0.2047 -0.7147
32534SOL    HW1 4207   1.269   8.469   7.656  0.7585 -1.1507 -0.3017
32534SOL    HW2 4208   1.210   8.339   7.707 -1.7458 -0.2600 -0.8089
32535SOL     OW 4209   5.745   9.353   2.958  0.3668  0.4475 -0.2960
32535SOL    HW1 4210   5.712   9.412   3.026  0.4380 -0.7573  0.8256
32535SOL    HW2 4211   5.827   9.392   2.929  0.9077  0.4105  1.1296
32536SOL     OW 4212   9.302   8.420   4.143 -0.0546 -0.3651  0.9514
32536SOL    HW1 4213   9.284   8.425   4.049 -1.8262  2.6089  1.3117
32536SOL    HW2 4214   9.362   8.347   4.152 -0.1789 -1.0525 -2.4326
32537SOL     OW 4215   5.313   9.632   0.340  0.4429 -0.0070  0.4510
32537SOL    HW1 4216   5.364   9.617   0.261 -1.3334 -0.6467 -0.6166
32537SOL    HW2 4217   5.329   9.554   0.394  1.5605  0.3791  0.7167
32538SOL     OW 4218   5.008   7.795   8.538  0.1421  0.0203  0.0606
32538SOL    HW1 4219   5.081   7.853   8.559  0.5728 -0.8251  1.0369
32538SOL    HW2 4220   4.960   7.839   8.469  2.2054  0.1177 -1.3985
32539SOL     OW 4221   9.263   0.721  10.337  0.5480 -0.7511  0.2888
32539SOL    HW1 4222   9.351   0.759  10.348  1.0389 -1.8714  0.3160
32539SOL    HW2 4223   9.242   0.686  10.424 -0.4763  0.5966  0.6289
32540SOL     OW 4224   1.746   0.740  12.693 -0.0131 -0.2292  0.4974
32540SOL    HW1 4225   1.719   0.742  12.785  0.3989  0.3376  0.6124
32540SOL    HW2 4226   1.786   0.826  12.678 -0.8345  0.0062 -0.4414
32541SOL     OW 4227   5.117   1.109   2.567 -0.4577 -0.4790 -0.0509
32541SOL    HW1 4228   5.130   1.149   2.481  0.6640 -0.2202  0.2229
32541SOL    HW2 4229   5.160   1.169   2.628 -0.3173 -1.2003  0.5715
32542SOL     OW 4230   6.566   9.970  11.396 -0.1469 -0.2379 -0.2050
32542SOL    HW1 4231   6.500   9.949  11.462  0.9091  0.8123  1.2397
32542SOL    HW2 4232   6.632   9.903  11.405 -0.4202 -0.6085 -0.8444
32543SOL     OW 4233   2.503   3.456   9.560 -0.0424  0.1506 -0.0636
32543SOL    HW1 4234   2.479   3.449   9.652  0.7894  0.3165  0.1791
32543SOL    HW2 4235   2.545   3.372   9.541  1.6126  0.8606  0.2855
32544SOL     OW 4236  12.346  10.925  11.413 -0.3321  0.4083 -0.5314
32544SOL    HW1 4237  12.258  10.956  11.432  0.5888  1.7754  1.7903
32544SOL    HW2 4238  12.387  10.912  11.498  1.0733 -2.2877 -1.4807
32545SOL     OW 4239   0.015   1.430   8.478 -0.3038 -0.7413  0.0916
32545SOL    HW1 4240  -0.061   1.466   8.431  1.2075  1.8348 -0.5479
32545SOL    HW2 4241  -0.005   1.446   8.571 -1.3540 -1.8374  0.0771
32546SOL     OW 4242   2.419   3.175   6.145 -0.4233 -0.0706  0.2870
32546SOL    HW1 4243   2.515   3.182   6.152 -0.5230  1.3291  0.5647
32546SOL    HW2 4244   2.405   3.134   6.060  0.4244 -0.9964  0.5586
32547SOL     OW 4245   0.765   8.374   7.741  0.2107 -0.4442  0.3303
32547SOL    HW1 4246   0.744   8.467   7.741 -0.9106 -0.6767  0.3974
32547SOL    HW2 4247   0.758   8.348   7.650 -0.3283 -0.6299  0.4198
32548SOL     OW 4248   0.913   0.795   1.895  0.1076 -0.2133  0.0673
32548SOL    HW1 4249   0.858   0.832   1.965  0.6936  1.7061 -0.4152
32548SOL    HW2 4250   0.855   0.789   1.819  0.5607  2.1933 -0.5573
32549SOL     OW 4251   4.597  10.038  10.365 -0.3506 -0.1875  0.1957
32549SOL    HW1 4252   4.547  10.017  10.287  0.1414  1.7478 -0.6882
32549SOL    HW2 4253   4.594   9.958  10.417 -1.3065 -1.2803 -1.4502
32550SOL     OW 4254  10.055   2.671   1.608 -0.5352  0.2032  0.1034
32550SOL    HW1 4255  10.080   2.589   1.565  0.5238  0.6645 -0.2029
32550SOL    HW2 4256  10.127   2.731   1.588 -1.9802  1.6633 -0.9426
32551SOL     OW 4257   7.172  10.667   6.577  0.0535 -0.4624 -0.5816
32551SOL    HW1 4258   7.166  10.612   6.656  0.4479 -1.0457 -0.9528
32551SOL    HW2 4259   7.224  10.742   6.605  1.8731 -1.5843 -0.7579
32552SOL     OW 4260   1.084   0.327   0.865 -0.3612  0.1102 -0.2352
32552SOL    HW1 4261   0.996   0.361   0.882 -0.0590  0.7928 -0.0067
32552SOL    HW2 4262   1.125   0.394   0.811 -0.5223 -0.9576 -1.7686
32553SOL     OW 4263   2.784  11.745   3.492 -0.3815 -0.0585 -0.4481
32553SOL    HW1 4264   2.716  11.777   3.552  0.9846 -0.2646  1.2893
32553SOL    HW2 4265   2.846  11.699   3.548  2.1198  1.5764 -1.6959
32554SOL     OW 4266   3.347   0.567   7.382 -0.3983  0.1473  0.3321
32554SOL    HW1 4267   3.261   0.544   7.347  0.2256  0.3881 -1.4448
32554SOL    HW2 4268   3.330   0.586   7.474 -1.9368 -1.5838  0.4844
32555SOL     OW 4269   3.501   7.307   8.460  0.3219  0.0810  0.2873
32555SOL    HW1 4270   3.514   7.287   8.367  0.8570 -3.0978  0.9129
32555SOL    HW2 4271   3.408   7.294   8.476  0.0663  1.4775  0.0833
32556SOL     OW 4272   3.497   5.757  11.309  0.0023  0.3658 -0.1028
32556SOL    HW1 4273   3.402   5.744  11.299 -0.3470  1.4766  1.4999
32556SOL    HW2 4274   3.520   5.818  11.239 -0.6109  0.6605 -0.0593
32557SOL     OW 4275   2.792  10.026  11.053  0.0745  0.3483  0.3227
32557SOL    HW1 4276   2.747  10.075  11.122 -2.6770 -1.1201 -0.2836
32557SOL    HW2 4277   2.734  10.032  10.978  2.1267  0.3729 -1.3521
32558SOL     OW 4278   6.207  12.725   6.951 -0.4107 -0.5815  0.1943
32558SOL    HW1 4279   6.242  12.651   6.902  0.5208 -0.2450  0.3191
32558SOL    HW2 4280   6.166  12.780   6.885  1.6391  0.3338 -0.4063
32559SOL     OW 4281   0.174   2.289   3.127  0.1167  0.1858 -0.1257
32559SOL    HW1 4282   0.121   2.222   3.171 -1.2986  1.3431 -0.0007
32559SOL    HW2 4283   0.159   2.273   3.033 -0.5681  0.5808 -0.0890
32560SOL     OW 4284   3.119   8.183  12.020  0.0081  0.7226 -0.0336
32560SOL    HW1 4285   3.052   8.138  12.070  2.0539 -2.1033  0.3945
32560SOL    HW2 4286   3.140   8.124  11.948  1.8239  1.6387 -0.3195
32561SOL     OW 4287   1.612  12.566   6.803 -0.0731 -0.0921 -0.1273
32561SOL    HW1 4288   1.708  12.559   6.809 -0.1299  0.1057  1.5433
32561SOL    HW2 4289   1.580  12.531   6.886 -1.6905 -3.2073 -1.8952
32562SOL     OW 4290   7.139   7.502   9.534 -0.5412  0.5981  0.2180
32562SOL    HW1 4291   7.080   7.447   9.585  0.7541 -1.2756 -0.2231
32562SOL    HW2 4292   7.115   7.485   9.443 -1.1697  2.0284  0.0725
32563SOL     OW 4293   0.326   9.207   3.425 -0.0107  0.3489 -0.3981
32563SOL    HW1 4294   0.280   9.285   3.395  0.0983  0.6405  0.1668
32563SOL    HW2 4295   0.376   9.237   3.501  0.8181 -0.0480 -0.7790
32564SOL     OW 4296   7.686  12.599   7.807  0.0281  0.2432  0.5147
32564SOL    HW1 4297   7.699  12.506   7.789 -0.0712  0.3145  0.0470
32564SOL    HW2 4298   7.773  12.638   7.799  0.1168  0.1423  1.0031
32565SOL     OW 4299  11.299   9.591   1.233 -0.0962 -0.4815  0.4551
32565SOL    HW1 4300  11.223   9.576   1.177  0.3442  0.6766 -0.5034
32565SOL    HW2 4301  11.367   9.622   1.173  0.6661 -0.0545  1.5094
32566SOL     OW 4302   1.773   5.519   0.838  0.1032 -0.4385  0.5672
32566SOL    HW1 4303   1.769   5.550   0.748 -1.3289 -2.5331 -0.1639
32566SOL    HW2 4304   1.811   5.592   0.887 -0.5615  1.3625 -1.4495
32567SOL     OW 4305   4.289   6.753   3.099 -0.4108  0.0271  0.0343
32567SOL    HW1 4306   4.229   6.825   3.079  0.0211 -0.1453 -2.0742
32567SOL    HW2 4307   4.232   6.682   3.127 -0.9262  0.8337  1.0821
32568SOL     OW 4308   1.837   6.241   3.564  0.2318 -0.0602  0.2979
32568SOL    HW1 4309   1.807   6.285   3.484 -1.5698 -1.3811  0.1835
32568SOL    HW2 4310   1.847   6.311   3.628  0.0409  0.8177 -0.6102
32569SOL     OW 4311   0.508   6.959   2.458 -0.6299 -0.3506  0.3652
32569SOL    HW1 4312   0.428   6.953   2.510 -0.3449  0.2158  0.8911
32569SOL    HW2 4313   0.515   6.874   2.415 -0.3544 -1.2359  2.0517
32570SOL     OW 4314   6.517  11.655   2.762  0.5965 -0.5282 -0.7881
32570SOL    HW1 4315   6.528  11.596   2.836  0.2745  0.2299 -0.1157
32570SOL    HW2 4316   6.584  11.629   2.700 -1.2873 -3.4957 -1.8020
32571SOL     OW 4317   4.929   8.390   9.063  0.5800  0.0339  0.6529
32571SOL    HW1 4318   4.916   8.308   9.016  0.0329  0.5478 -0.1190
32571SOL    HW2 4319   5.004   8.431   9.018  0.7878  0.0065  0.9701
32572SOL     OW 4320   5.740   5.102   0.263 -0.2333 -0.2428 -0.2073
32572SOL    HW1 4321   5.701   5.164   0.201 -1.1917 -0.7023 -0.0830
32572SOL    HW2 4322   5.669   5.042   0.285  0.2061 -0.3460  1.0201
32573SOL     OW 4323   1.969   9.467   0.472  0.3024 -0.2292  0.3309
32573SOL    HW1 4324   2.023   9.483   0.394  0.9728  0.2696  0.8908
32573SOL    HW2 4325   1.972   9.372   0.484 -0.0602 -0.3505 -0.4225
32574SOL     OW 4326   9.896   7.026   6.382 -0.1826  1.0665 -0.2082
32574SOL    HW1 4327   9.878   7.110   6.339  0.5807  0.4347 -1.8350
32574SOL    HW2 4328   9.897   6.962   6.310 -0.2240 -0.2628  0.9357
32575SOL     OW 4329   4.166  12.661   6.522 -0.3952 -0.3764  0.1547
32575SOL    HW1 4330   4.148  12.568   6.533  1.6524 -0.7712  0.6400
32575SOL    HW2 4331   4.259  12.665   6.501 -1.0497  1.3489 -3.1868
32576SOL     OW 4332   8.241   2.148   6.811 -0.3867 -0.2117  0.3331
32576SOL    HW1 4333   8.312   2.107   6.761 -2.0930 -1.9297 -0.8423
32576SOL    HW2 4334   8.286   2.200   6.877  1.9947 -2.1960  0.4562
32577SOL     OW 4335  10.768   5.114   1.571  0.0313  0.3987  0.1020
32577SOL    HW1 4336  10.745   5.061   1.647  1.0122 -1.5539 -0.9010
32577SOL    HW2 4337  10.756   5.056   1.496  3.6854  0.6579 -0.8613
32578SOL     OW 4338   1.744   2.118   9.040  0.3239 -0.1984 -0.5515
32578SOL    HW1 4339   1.762   2.171   8.962  1.0944  1.1005  0.4766
32578SOL    HW2 4340   1.830   2.083   9.065  0.1490 -0.2936 -0.0745
32579SOL     OW 4341   9.984   1.100  11.086 -0.0806 -0.4614  0.1243
32579SOL    HW1 4342   9.894   1.067  11.090  0.5368 -2.0902  2.0810
32579SOL    HW2 4343  10.030   1.037  11.031 -0.3721  1.1482 -2.0789
32580SOL     OW 4344   7.663   5.677   8.185  0.6856  0.3805 -0.3938
32580SOL    HW1 4345   7.592   5.734   8.159  0.8600 -0.0553 -1.9188
32580SOL    HW2 4346   7.691   5.710   8.271 -1.8974  0.0179  0.6848
32581SOL     OW 4347   2.585  10.553   4.014 -0.5925 -0.6880 -0.2574
32581SOL    HW1 4348   2.676  10.583   4.022 -1.1115  0.6146  1.3666
32581SOL    HW2 4349   2.542  10.623   3.965 -1.2979  0.1235  1.4496
32582SOL     OW 4350  11.993   8.024   5.722  0.3124 -0.7330  0.3710
32582SOL    HW1 4351  11.960   7.966   5.654 -0.1055  1.0104 -0.9948
32582SOL    HW2 4352  12.046   7.968   5.779  1.9396 -2.0329 -2.2397
32583SOL     OW 4353   3.028  10.195   3.540  0.2039 -0.0652  0.1444
32583SOL    HW1 4354   3.056  10.221   3.453 -0.6628  0.7832  0.1034
32583SOL    HW2 4355   2.944  10.152   3.526 -0.2163  0.5959  0.6158
32584SOL     OW 4356   1.888   1.706   9.667  0.5711 -0.3584 -0.5876
32584SOL    HW1 4357   1.864   1.695   9.575 -2.3154  0.0420  0.0209
32584SOL    HW2 4358   1.871   1.620   9.706  0.3530 -0.1245 -0.1659
32585SOL     OW 4359   0.655   8.031   8.284 -0.0768 -0.0891  0.1020
32585SOL    HW1 4360   0.570   8.046   8.326 -1.0670 -1.0781 -1.4451
32585SOL    HW2 4361   0.636   8.032   8.190  1.3336 -1.8355 -0.2498
32586SOL     OW 4362   6.389   5.674   4.919  0.5349 -0.6946  1.1910
32586SOL    HW1 4363   6.422   5.684   5.009  0.6743  0.2738  1.0425
32586SOL    HW2 4364   6.293   5.674   4.929  0.5156  0.7651  1.2324
32587SOL     OW 4365  11.520   0.210   1.635 -0.2123 -0.0244  0.5552
32587SOL    HW1 4366  11.558   0.130   1.599 -0.4651  0.2877 -0.4414
32587SOL    HW2 4367  11.516   0.195   1.729 -1.9125 -1.9143  0.2529
32588SOL     OW 4368   8.576   9.365  10.191  0.0089 -0.0347 -0.0680
32588SOL    HW1 4369   8.571   9.374  10.096 -1.2128  0.4220  0.0201
32588SOL    HW2 4370   8.599   9.453  10.222 -2.7936  0.6647  0.2284
32589SOL     OW 4371   8.477   2.646  10.116  0.8757  0.9073 -0.2111
32589SOL    HW1 4372   8.447   2.644  10.207 -1.4193 -1.1877 -0.9145
32589SOL    HW2 4373   8.408   2.693  10.070 -0.2735 -1.8167 -1.4810
32590SOL     OW 4374   2.720   7.619   3.937  0.4152  0.1539 -0.2504
32590SOL    HW1 4375   2.773   7.555   3.888  3.0026  0.7687  1.5177
32590SOL    HW2 4376   2.631   7.607   3.904  1.6619 -0.6960 -3.7338
32591SOL     OW 4377   2.677  11.555   9.428 -0.1696 -0.2243  0.3561
32591SOL    HW1 4378   2.590  11.533   9.459  0.2681 -0.5247  1.3938
32591SOL    HW2 4379   2.736  11.495   9.474  0.4539 -1.2243 -1.6205
32592SOL     OW 4380  10.412   3.690   9.410 -0.2398  0.6701 -0.1373
32592SOL    HW1 4381  10.502   3.658   9.407 -1.1849 -2.1757 -1.2735
32592SOL    HW2 4382  10.417   3.777   9.370  1.8853  0.2810 -0.8746
32593SOL     OW 4383  11.571   7.730   3.301  0.5105 -0.3189  0.1368
32593SOL    HW1 4384  11.659   7.705   3.274  0.7357 -0.7148  1.1908
32593SOL    HW2 4385  11.551   7.807   3.248  1.4783 -0.2329 -0.1307
32594SOL     OW 4386   1.358   5.148   6.694  0.0476 -0.5310 -0.3514
32594SOL    HW1 4387   1.328   5.064   6.661 -0.0735 -1.0019  0.9136
32594SOL    HW2 4388   1.419   5.127   6.765 -0.6259  0.4357  0.5462
32595SOL     OW 4389  10.632   0.467   6.677 -0.4246  0.1235  0.0946
32595SOL    HW1 4390  10.574   0.393   6.659  0.8417 -0.6313 -1.0601
32595SOL    HW2 4391  10.618   0.487   6.770 -0.4914 -1.8203  0.5306
32596SOL     OW 4392   4.918  12.638   6.760 -0.0427 -0.2854 -0.2951
32596SOL    HW1 4393   4.886  12.668   6.845  1.7981 -1.0217  0.7245
32596SOL    HW2 4394   4.877  12.697   6.696 -2.9428 -0.8646  0.8907
32597SOL     OW 4395   0.771   0.063   6.889  0.0997 -0.5170 -0.0574
32597SOL    HW1 4396   0.854   0.074   6.935  0.7862 -1.1846 -1.1094
32597SOL    HW2 4397   0.783  -0.015   6.835 -0.2148  0.9175 -2.3145
32598SOL     OW 4398   9.700  12.000  12.213  0.0296  0.2446  0.1926
32598SOL    HW1 4399   9.709  11.998  12.308  0.4675  1.6835  0.1924
32598SOL    HW2 4400   9.753  11.926  12.182 -1.1713 -1.0569  1.1100
32599SOL     OW 4401  10.694   8.146   6.470 -0.0131  0.1751 -0.1544
32599SOL    HW1 4402  10.728   8.204   6.401 -2.9069  1.7433 -0.3989
32599SOL    HW2 4403  10.700   8.199   6.550  0.3524 -0.4373  0.2259
32600SOL     OW 4404  11.858   6.618   7.350 -0.2291 -0.0933 -0.5378
32600SOL    HW1 4405  11.813   6.588   7.429  1.2873 -1.8779 -0.2611
32600SOL    HW2 4406  11.883   6.708   7.370 -1.1506 -0.0274  0.4203
32601SOL     OW 4407   9.720   1.665  11.930  0.2315 -0.0195 -0.0315
32601SOL    HW1 4408   9.751   1.589  11.978  0.2965 -0.7336 -1.1848
32601SOL    HW2 4409   9.684   1.723  11.998  1.5040 -0.4164  1.0131
32602SOL     OW 4410   4.725   0.129   0.608  0.1832 -0.1331 -0.3265
32602SOL    HW1 4411   4.680   0.179   0.677 -0.2886 -0.6120 -0.2812
32602SOL    HW2 4412   4.799   0.087   0.653 -0.2892 -0.6764 -0.0423
32603SOL     OW 4413   7.649   5.355   9.781 -0.0608 -0.4812  0.2727
32603SOL    HW1 4414   7.708   5.282   9.762 -0.0432 -0.3744 -0.0785
32603SOL    HW2 4415   7.704   5.420   9.824  0.6024  0.5571 -2.0195
32604SOL     OW 4416   3.128   8.003   3.628 -0.3199 -0.5287 -0.4298
32604SOL    HW1 4417   3.205   8.058   3.618 -2.1019  2.0865 -0.7243
32604SOL    HW2 4418   3.104   8.012   3.721 -0.6588 -0.7452 -0.4947
32605SOL     OW 4419   6.510  10.981  12.455  0.8252  0.5544 -0.4938
32605SOL    HW1 4420   6.497  10.886  12.455  1.3317  0.4772 -0.2252
32605SOL    HW2 4421   6.582  10.995  12.518  1.0871  1.0624 -0.8986
32606SOL     OW 4422  10.114   0.811   4.065  0.0643 -0.0450 -0.4601
32606SOL    HW1 4423  10.056   0.740   4.093  0.5445  0.1417  1.1455
32606SOL    HW2 4424  10.059   0.889   4.068  0.3651  0.1498  1.1670
32607SOL     OW 4425   2.542   4.224   7.820 -0.4981  0.3122  0.2791
32607SOL    HW1 4426   2.513   4.170   7.894  1.6140 -0.6711  0.4918
32607SOL    HW2 4427   2.599   4.290   7.860  0.5560 -0.1488 -0.4106
32608SOL     OW 4428   6.983   4.617  12.608  0.0774 -0.4414 -0.0643
32608SOL    HW1 4429   6.917   4.647  12.670  0.6608  0.3638  0.1793
32608SOL    HW2 4430   6.935   4.607  12.526 -0.0952  1.5840 -0.2674
32609SOL     OW 4431  10.950   4.389   0.058 -0.6276 -0.3182 -0.1180
32609SOL    HW1 4432  10.993   4.351  -0.018 -0.1412 -1.5414  0.7296
32609SOL    HW2 4433  10.909   4.469   0.025  0.1959 -0.4214 -1.4891
32610SOL     OW 4434   4.156   7.089  11.184  0.4833 -0.2462 -0.5823
32610SOL    HW1 4435   4.184   7.017  11.240  1.8017  1.1838  0.6737
32610SOL    HW2 4436   4.090   7.135  11.236  0.2572 -0.0579 -1.0339
32611SOL     OW 4437   7.300   1.992  12.533  0.0474 -0.4386 -0.1799
32611SOL    HW1 4438   7.215   1.983  12.575  0.4925  0.3777  0.9368
32611SOL    HW2 4439   7.331   2.079  12.559  1.1849 -0.6923 -0.6227
32612SOL     OW 4440   2.004   3.791   3.363  0.1173 -0.3454 -0.2533
32612SOL    HW1 4441   2.012   3.816   3.271  2.6464  0.0976  0.0241
32612SOL    HW2 4442   2.045   3.705   3.369 -0.3556 -0.5341  0.4067
32613SOL     OW 4443   7.877   8.273  10.757  0.2310  0.1898  0.7216
32613SOL    HW1 4444   7.904   8.184  10.735  0.5754 -0.0978  2.2077
32613SOL    HW2 4445   7.896   8.281  10.850 -3.9119  0.2819  1.7476
32614SOL     OW 4446   8.052   2.558   2.176 -0.2495 -0.3159  0.0668
32614SOL    HW1 4447   8.135   2.529   2.139 -0.5823 -1.0361 -0.1297
32614SOL    HW2 4448   8.063   2.652   2.188  0.4923 -0.3580 -0.2246
32615SOL     OW 4449  11.680   6.855   3.290 -0.5621 -0.4875  0.5639
32615SOL    HW1 4450  11.769   6.826   3.309 -0.1179 -0.0342 -0.6638
32615SOL    HW2 4451  11.623   6.792   3.333  0.3411 -0.4296  1.8918
32616SOL     OW 4452   6.114  10.968   6.050 -0.2802 -0.6540  0.3448
32616SOL    HW1 4453   6.024  10.998   6.039 -0.1563  0.1611  1.3202
32616SOL    HW2 4454   6.168  11.039   6.013 -0.0350 -0.8597  0.3050
32617SOL     OW 4455   1.147   3.131   8.956  0.0998  0.2034  0.3635
32617SOL    HW1 4456   1.199   3.211   8.945 -0.3835  0.4746 -0.0012
32617SOL    HW2 4457   1.084   3.133   8.884  1.1992 -1.3876 -0.7240
32618SOL     OW 4458   8.904  12.389   6.864  0.0382  0.3131 -0.4284
32618SOL    HW1 4459   8.913  12.470   6.914  0.4251  0.1374 -0.2074
32618SOL    HW2 4460   8.918  12.320   6.928 -0.8618  0.0523 -0.4978
32619SOL     OW 4461   0.545  12.237   3.598  0.0447 -0.5809 -0.4502
32619SOL    HW1 4462   0.621  12.244   3.540  0.5280 -0.6990  0.1423
32619SOL    HW2 4463   0.489  12.171   3.558 -0.6830  0.8696 -1.9057
32620SOL     OW 4464   3.811   4.265   6.030 -0.1654  0.0663 -0.0854
32620SOL    HW1 4465   3.787   4.298   6.117  0.2786 -1.4480  0.6467
32620SOL    HW2 4466   3.907   4.257   6.033  0.1856  2.5961 -1.7114
32621SOL     OW 4467   6.418   7.105   5.208 -0.2519  0.0704 -0.0283
32621SOL    HW1 4468   6.417   7.186   5.156 -1.7178  1.1031  1.4795
32621SOL    HW2 4469   6.328   7.074   5.206 -0.7574  0.9681  2.9436
32622SOL     OW 4470   7.983   0.011   9.327 -0.3390 -0.3212  0.2373
32622SOL    HW1 4471   8.044   0.081   9.306 -1.2763  0.5980  0.4850
32622SOL    HW2 4472   7.992  -0.052   9.255  1.1817 -0.4235  0.4852
32623SOL     OW 4473   0.244   2.319  10.580  0.2524  0.0575  0.2833
32623SOL    HW1 4474   0.320   2.376  10.591 -0.4015  0.6922  1.8225
32623SOL    HW2 4475   0.179   2.354  10.640 -1.4665 -0.1700 -1.3624
32624SOL     OW 4476  12.499   9.024  11.565 -0.1601  0.1592  0.1448
32624SOL    HW1 4477  12.413   8.982  11.564 -0.7217  1.2805  0.0919
32624SOL    HW2 4478  12.552   8.973  11.504 -0.7061 -0.7001  0.3791
32625SOL     OW 4479   0.786   4.096   7.060 -0.3183  0.5202 -0.1804
32625SOL    HW1 4480   0.811   4.135   7.143 -0.6213  0.6102 -0.1311
32625SOL    HW2 4481   0.782   4.169   6.998 -0.4179  0.5014 -0.1969
32626SOL     OW 4482   8.970   4.972   3.064 -0.3907 -0.3355  0.5059
32626SOL    HW1 4483   8.907   5.044   3.065 -1.0105 -0.7145 -2.4213
32626SOL    HW2 4484   8.917   4.893   3.073 -0.1276 -0.5823 -0.0777
32627SOL     OW 4485   2.246   7.344  10.701  0.4813  0.3947 -0.4859
32627SOL    HW1 4486   2.258   7.319  10.609 -1.2892  1.6895 -1.1268
32627SOL    HW2 4487   2.292   7.428  10.708  0.3000  0.4760 -0.2878
32628SOL     OW 4488  11.674   9.085   2.828 -0.2835  0.0699  0.0694
32628SOL    HW1 4489  11.764   9.106   2.805 -0.1973 -0.2611  0.1095
32628SOL    HW2 4490  11.661   9.125   2.914 -0.0147 -0.3186  0.2951
32629SOL     OW 4491  10.678   0.737   7.162 -0.1302 -0.9172  0.1729
32629SOL    HW1 4492  10.717   0.822   7.144  0.5780 -1.2310  0.2084
32629SOL    HW2 4493  10.589   0.757   7.193  0.4941 -0.1310  1.4989
32630SOL     OW 4494   3.265   3.410   2.793 -0.2067  0.2933  0.3943
32630SOL    HW1 4495   3.332   3.360   2.746 -0.9585 -0.4163  0.0505
32630SOL    HW2 4496   3.314   3.458   2.860  0.5208 -1.1086  0.9138
32631SOL     OW 4497   1.664   5.649   6.488  0.2009 -0.0385  0.4731
32631SOL    HW1 4498   1.678   5.722   6.427 -0.5949  0.1426  0.4992
32631SOL    HW2 4499   1.688   5.685   6.573 -2.2215  0.9211  0.8326
32632SOL     OW 4500   1.792   4.826  10.134  0.2165  0.1306  0.4031
32632SOL    HW1 4501   1.821   4.905  10.087 -1.0511  1.4973  1.7761
32632SOL    HW2 4502   1.789   4.758  10.067 -0.7774  1.7855 -1.3517
32633SOL     OW 4503   9.759   0.306  11.927 -0.2275  0.0075 -0.4679
32633SOL    HW1 4504   9.823   0.377  11.933 -0.7033  0.4779 -0.8747
32633SOL    HW2 4505   9.792   0.239  11.986  0.0172  0.7391  0.2480
32634SOL     OW 4506   9.869   9.572  11.448  0.1375 -0.0458 -0.0545
32634SOL    HW1 4507   9.890   9.508  11.380 -1.0327  0.1701 -0.6492
32634SOL    HW2 4508   9.781   9.548  11.478  0.8168 -0.3995  1.7267
32635SOL     OW 4509   7.523   9.943   4.352  0.0373  0.2871  0.1981
32635SOL    HW1 4510   7.578   9.921   4.427  0.7953  0.0598 -0.4121
32635SOL    HW2 4511   7.583   9.946   4.278 -0.5048  1.6322 -0.2193
32636SOL     OW 4512   2.001  12.666   7.155  0.4190  0.0195 -0.0435
32636SOL    HW1 4513   2.067  12.727   7.121 -2.3818  1.8349 -2.6687
32636SOL    HW2 4514   1.947  12.719   7.213  1.8139 -1.7474  3.0812
32637SOL     OW 4515   0.140   5.529   6.630 -0.4024 -0.8045  0.1513
32637SOL    HW1 4516   0.231   5.557   6.639 -0.3617  0.4706 -3.0885
32637SOL    HW2 4517   0.143   5.434   6.644  0.9961 -0.5142  2.2674
32638SOL     OW 4518  12.627   9.367   6.035 -0.2417 -0.0047  0.0066
32638SOL    HW1 4519  12.621   9.281   6.075  1.4914  0.0086  0.3973
32638SOL    HW2 4520  12.663   9.351   5.948 -0.0752  0.3007  0.0162
32639SOL     OW 4521   0.466   3.029  11.617  0.4748  0.0322 -0.3045
32639SOL    HW1 4522   0.559   3.035  11.639  0.4490  0.5463 -0.3144
32639SOL    HW2 4523   0.465   3.010  11.523  0.5746  0.7724 -0.4649
32640SOL     OW 4524  11.678   6.004   3.580  0.5453 -0.4230 -0.4663
32640SOL    HW1 4525  11.633   6.058   3.515 -0.7474 -3.1664 -2.0123
32640SOL    HW2 4526  11.749   5.961   3.532 -0.7829 -2.9498 -0.3551
32641SOL     OW 4527   3.571  12.482   0.934  0.1404 -0.4529 -0.1508
32641SOL    HW1 4528   3.635  12.549   0.910  0.4810 -0.1931  1.4004
32641SOL    HW2 4529   3.492  12.505   0.885 -0.2401  1.9993  1.4768
32642SOL     OW 4530   3.115   7.579   9.264  0.5494  0.1237 -0.0705
32642SOL    HW1 4531   3.067   7.516   9.318  0.5397  0.4897  0.3501
32642SOL    HW2 4532   3.048   7.639   9.230  0.5537 -0.1072 -0.4989
32643SOL     OW 4533   9.267   5.532   1.182 -0.0765  0.7227  0.3571
32643SOL    HW1 4534   9.255   5.607   1.123  0.5415 -0.0151 -0.7409
32643SOL    HW2 4535   9.356   5.502   1.164 -0.4467 -0.4980  0.5115
32644SOL     OW 4536  10.634  12.707   7.998 -0.2376 -0.4296 -0.4108
32644SOL    HW1 4537  10.557  12.752   8.034  0.2170  1.7208 -1.9544
32644SOL    HW2 4538  10.612  12.690   7.907  0.5954 -1.0564 -0.5061
32645SOL     OW 4539   8.980   8.092  12.628  0.2330 -0.0228  0.1325
32645SOL    HW1 4540   9.017   8.027  12.568 -0.0883  0.6035 -0.7639
32645SOL    HW2 4541   9.043   8.097  12.700  0.3199 -1.2369  0.1694
32646SOL     OW 4542   2.023  12.272   9.698 -0.8635 -0.3601 -0.1319
32646SOL    HW1 4543   2.110  12.286   9.661 -0.7216 -0.6814  0.0760
32646SOL    HW2 4544   1.966  12.259   9.622 -0.7143 -0.2551 -0.2638
32647SOL     OW 4545   0.783   1.360  11.032  0.0098 -0.2595 -0.0137
32647SOL    HW1 4546   0.858   1.394  11.080  0.1669 -1.5368  0.6626
32647SOL    HW2 4547   0.708   1.407  11.069  0.4600  1.1207 -0.7860
32648SOL     OW 4548   2.116  10.708   4.283  0.3443 -0.3579  0.5914
32648SOL    HW1 4549   2.039  10.655   4.265  0.2977  0.3239 -1.4501
32648SOL    HW2 4550   2.190  10.649   4.268  0.2687 -0.1419 -0.7489
32649SOL     OW 4551  12.463  10.457  10.831  0.6424  0.5236  0.2654
32649SOL    HW1 4552  12.485  10.374  10.872 -0.0336 -0.3210 -1.0042
32649SOL    HW2 4553  12.540  10.478  10.778 -0.0474 -0.5034 -1.2140
32650SOL     OW 4554  10.415   7.046   9.796 -0.6943 -0.0816 -0.3430
32650SOL    HW1 4555  10.496   7.075   9.754  0.1895  1.9922  2.5161
32650SOL    HW2 4556  10.432   6.956   9.823  0.7261  0.3601  0.3016
32651SOL     OW 4557   2.521  12.420  12.785  0.0901 -0.0447 -0.2486
32651SOL    HW1 4558   2.472  12.407  12.867  2.9120 -1.0297  1.4072
32651SOL    HW2 4559   2.473  12.368  12.720 -1.1589 -0.7918  1.2076
32652SOL     OW 4560   1.899   3.093   6.859 -0.2724  0.2601 -0.1653
32652SOL    HW1 4561   1.921   3.077   6.767  0.1388  0.5030 -0.1126
32652SOL    HW2 4562   1.825   3.154   6.856  0.3063  0.9734 -0.3357
32653SOL     OW 4563   4.461   9.497   1.170  0.4076 -0.5756 -0.4993
32653SOL    HW1 4564   4.509   9.545   1.238 -0.7256 -0.7163  0.4296
32653SOL    HW2 4565   4.370   9.524   1.182 -0.0491 -1.9341 -0.8435
32654SOL     OW 4566  11.513   5.232   3.238 -0.9298  0.1663 -0.0730
32654SOL    HW1 4567  11.539   5.266   3.323 -0.1976  0.0889 -0.2569
32654SOL    HW2 4568  11.519   5.307   3.179 -0.5055  0.0081 -0.2382
32655SOL     OW 4569   9.349   2.998  10.446  0.1408 -0.1995 -0.4406
32655SOL    HW1 4570   9.291   3.066  10.412  1.8101  1.6343  0.1653
32655SOL    HW2 4571   9.300   2.958  10.518 -1.0052  0.1005 -1.0318
32656SOL     OW 4572   5.142   3.324   0.609 -0.0311 -0.0450 -0.0505
32656SOL    HW1 4573   5.205   3.377   0.658 -0.7256 -0.6785  1.6286
32656SOL    HW2 4574   5.068   3.382   0.595 -0.3546 -0.2314  0.8302
32657SOL     OW 4575  10.390  10.273   0.806 -0.3488 -0.1165 -0.1339
32657SOL    HW1 4576  10.417  10.241   0.892 -2.0454 -1.9167 -0.1920
32657SOL    HW2 4577  10.428  10.211   0.744 -1.6057 -0.6112 -0.4405
32658SOL     OW 4578   1.275   2.221  11.594  0.4836  0.3364 -0.7091
32658SOL    HW1 4579   1.262   2.215  11.499 -4.2429  0.1479 -0.3316
32658SOL    HW2 4580   1.252   2.312  11.615 -1.6319 -0.3968  0.4346
32659SOL     OW 4581   8.663   7.822   2.443  0.4075  0.6097 -0.1280
32659SOL    HW1 4582   8.629   7.814   2.354  0.8273  2.7727 -0.5376
32659SOL    HW2 4583   8.739   7.764   2.445  0.2904  0.4078 -1.1262
32660SOL     OW 4584   9.032   2.580   2.804  0.0007 -0.3136 -0.2692
32660SOL    HW1 4585   8.984   2.587   2.721 -0.0232 -0.0968 -0.2369
32660SOL    HW2 4586   8.974   2.531   2.862  0.3541 -1.2031 -0.6392
32661SOL     OW 4587   5.029   5.429   4.737 -0.0060  0.4013 -0.3321
32661SOL    HW1 4588   5.026   5.421   4.642 -0.8429 -0.7438 -0.2290
32661SOL    HW2 4589   5.045   5.340   4.768 -0.6096  0.6154  0.6329
32662SOL     OW 4590   0.694   1.340   9.588 -0.3188  0.3501  0.3470
32662SOL    HW1 4591   0.703   1.344   9.493  1.2050  0.1371  0.4535
32662SOL    HW2 4592   0.668   1.429   9.614  3.7159  1.8218  0.0677
32663SOL     OW 4593   9.841   2.828   1.535  0.2237  0.0735 -0.1292
32663SOL    HW1 4594   9.894   2.906   1.551  1.0816 -0.8601  1.8479
32663SOL    HW2 4595   9.881   2.760   1.589 -2.0363 -1.0937  0.1901
32664SOL     OW 4596  11.980  10.762  12.007 -0.5595 -0.1527  0.3803
32664SOL    HW1 4597  11.912  10.794  11.948 -1.8295  2.4788  3.0577
32664SOL    HW2 4598  12.049  10.829  12.002 -0.1681 -0.4962  1.0482
32665SOL     OW 4599  10.492   1.423  12.359  0.2137 -0.0372 -0.2901
32665SOL    HW1 4600  10.572   1.475  12.357  1.1384 -1.3937  0.2334
32665SOL    HW2 4601  10.453   1.444  12.444 -1.3871  2.5568 -1.5273
32666SOL     OW 4602   7.987   2.253   5.751 -0.5672 -0.5226 -0.2346
32666SOL    HW1 4603   7.974   2.346   5.730 -1.0400 -0.5876 -0.2394
32666SOL    HW2 4604   7.910   2.209   5.716  0.2440 -1.0963 -1.3506
32667SOL     OW 4605   4.387   2.667   4.350 -0.1466 -0.1717 -0.1458
32667SOL    HW1 4606   4.428   2.594   4.396 -1.6651 -0.4478  0.8364
32667SOL    HW2 4607   4.377   2.736   4.416 -3.4622 -1.0086  0.4312
32668SOL     OW 4608   6.521  12.592   8.329  0.1086  0.3664  0.1365
32668SOL    HW1 4609   6.447  12.649   8.351 -0.6929 -1.0283  1.2593
32668SOL    HW2 4610   6.577  12.593   8.407  0.7543  0.6129 -0.3227
32669SOL     OW 4611   4.741   9.760  10.993 -0.3005  0.0443 -0.4744
32669SOL    HW1 4612   4.677   9.778  10.924 -0.7239  0.4896  0.0283
32669SOL    HW2 4613   4.696   9.784  11.074  0.5339  0.4402 -0.1227
32670SOL     OW 4614   3.974   8.800  11.316  0.5533  0.2754 -0.1305
32670SOL    HW1 4615   3.996   8.720  11.268  1.3759  0.1021  0.5156
32670SOL    HW2 4616   4.046   8.812  11.377  0.1364  1.1850  0.2005
32671SOL     OW 4617   5.386   1.602   4.265  0.7384 -0.5779  0.0803
32671SOL    HW1 4618   5.403   1.518   4.224  4.8625  0.4573 -0.7787
32671SOL    HW2 4619   5.374   1.663   4.192 -5.0800 -0.5618  0.6092
32672SOL     OW 4620   9.140   4.873   9.312 -0.5748 -0.0303 -0.2665
32672SOL    HW1 4621   9.181   4.954   9.345 -0.8361  0.4295 -1.0495
32672SOL    HW2 4622   9.142   4.813   9.387  2.4538 -0.3964 -0.5189
32673SOL     OW 4623   7.039  10.943   0.541  0.7078  0.1571  0.2665
32673SOL    HW1 4624   7.071  10.865   0.497  0.5464  0.0139  0.4017
32673SOL    HW2 4625   6.947  10.925   0.559  0.2791  0.9666 -1.0021
32674SOL     OW 4626  12.338   4.198  11.898 -0.0759  0.3067  0.1398
32674SOL    HW1 4627  12.337   4.154  11.983 -1.4490  0.1161  0.0516
32674SOL    HW2 4628  12.429   4.191  11.869  0.2179 -0.4701  1.1519
32675SOL     OW 4629   7.569   0.274  11.744  0.1889  0.5341  0.2404
32675SOL    HW1 4630   7.584   0.303  11.655  2.5813 -0.7922  0.1115
32675SOL    HW2 4631   7.479   0.242  11.745  0.6835 -1.1782 -2.2516
32676SOL     OW 4632  10.945  11.115   3.734  0.2168 -0.0205  0.7365
32676SOL    HW1 4633  10.853  11.097   3.716  0.6587 -2.0171  0.1470
32676SOL    HW2 4634  10.990  11.088   3.654  1.4973 -1.1682  1.7919
32677SOL     OW 4635   8.096   3.543   5.405 -0.3300  0.9219 -0.1387
32677SOL    HW1 4636   8.055   3.464   5.369 -1.5492  1.1779  0.6150
32677SOL    HW2 4637   8.104   3.602   5.330  1.2974 -0.1647 -0.8656
32678SOL     OW 4638   0.342   7.411   6.831  0.8212  0.0407  0.0869
32678SOL    HW1 4639   0.336   7.500   6.866  1.3632  0.0038  0.2889
32678SOL    HW2 4640   0.300   7.356   6.897 -0.4365  0.2513 -0.5103
32679SOL     OW 4641  10.150   1.607   6.707  0.3447 -0.1644 -0.3591
32679SOL    HW1 4642  10.170   1.565   6.791 -0.7881 -1.1540 -0.5549
32679SOL    HW2 4643  10.232   1.599   6.657  0.3183 -1.7871 -0.2201
32680SOL     OW 4644   1.764   9.217   3.532  0.3661  0.0870  0.7145
32680SOL    HW1 4645   1.841   9.184   3.578 -0.1893 -0.7971  1.0550
32680SOL    HW2 4646   1.712   9.260   3.600  0.8345  1.2125  0.3705
32681SOL     OW 4647   2.572   2.898   3.720  0.4946 -0.3384 -0.6533
32681SOL    HW1 4648   2.602   2.814   3.753 -1.3904 -1.3072 -1.2874
32681SOL    HW2 4649   2.653   2.946   3.699  1.5955 -2.0703 -0.5211
32682SOL     OW 4650   2.616   4.856  12.449 -0.0214  0.5370  0.8210
32682SOL    HW1 4651   2.612   4.813  12.364 -2.2372 -0.1749  1.2067
32682SOL    HW2 4652   2.647   4.788  12.509  0.4443  0.7007  0.7662
32683SOL     OW 4653   3.963   4.202   1.833 -0.5869 -0.2134  0.4118
32683SOL    HW1 4654   3.974   4.111   1.859  1.1028 -0.7906 -2.0142
32683SOL    HW2 4655   3.929   4.197   1.744 -2.9969  1.6091  1.1179
32684SOL     OW 4656   0.275   4.412  12.676 -0.2874  0.4925 -0.0907
32684SOL    HW1 4657   0.350   4.472  12.676  0.4467 -0.3844  0.6746
32684SOL    HW2 4658   0.200   4.467  12.695  0.2048  1.3504 -0.5812
32685SOL     OW 4659   1.875   3.923   0.579 -0.1225  0.0593  0.4048
32685SOL    HW1 4660   1.814   3.923   0.506  0.8422  0.0085 -0.4190
32685SOL    HW2 4661   1.866   3.836   0.618  0.7855 -0.6572 -0.9035
32686SOL     OW 4662   5.015  10.754   8.029  0.2764 -0.2224  0.2994
32686SOL    HW1 4663   5.111  10.757   8.030  0.3998 -2.4298  1.7745
32686SOL    HW2 4664   4.993  10.699   7.953  0.0091  1.9598 -1.2990
32687SOL     OW 4665  12.084  10.027   3.115 -0.1347  0.1788 -0.4146
32687SOL    HW1 4666  12.045  10.028   3.028  1.6162 -1.8744 -1.3047
32687SOL    HW2 4667  12.172  10.062   3.103  1.1168 -2.6063 -0.0962
32688SOL     OW 4668  11.353   7.961   3.844  0.3634  0.0107 -0.4506
32688SOL    HW1 4669  11.320   7.925   3.927  1.3925  0.7960  0.3441
32688SOL    HW2 4670  11.275   7.991   3.798 -0.2759 -0.8744  0.0124
32689SOL     OW 4671   6.212  12.568   0.371  0.0375  0.5902 -0.2026
32689SOL    HW1 4672   6.260  12.493   0.405 -0.2836 -0.2499 -1.5236
32689SOL    HW2 4673   6.276  12.619   0.323 -0.2866 -0.3773 -1.7197
32690SOL     OW 4674   1.324   6.944   0.208 -0.6781 -0.0679  0.3596
32690SOL    HW1 4675   1.380   6.963   0.283 -1.4571  1.4987  0.5754
32690SOL    HW2 4676   1.329   7.022   0.153 -1.9810 -0.2271 -0.0227
32691SOL     OW 4677   1.848   3.650   0.363  0.0735 -0.0920 -0.1509
32691SOL    HW1 4678   1.842   3.652   0.459  0.1515  0.1087 -0.1491
32691SOL    HW2 4679   1.757   3.644   0.334  0.0615 -0.3750 -0.0604
32692SOL     OW 4680   3.456  10.317   0.600  0.2745  0.5360  0.3843
32692SOL    HW1 4681   3.417  10.231   0.613  1.8403 -0.2091  0.3158
32692SOL    HW2 4682   3.401  10.376   0.652 -0.2253 -0.6474  1.2431
32693SOL     OW 4683  12.463   2.616  11.375 -0.2693 -0.3797  0.2409
32693SOL    HW1 4684  12.493   2.700  11.410  0.3474  0.2368 -1.6499
32693SOL    HW2 4685  12.380   2.600  11.420 -0.0533  0.8901  1.1585
32694SOL     OW 4686  11.264  12.006   8.958 -0.1561  0.4332  0.2148
32694SOL    HW1 4687  11.327  12.032   8.891  0.1001  0.3976  0.4423
32694SOL    HW2 4688  11.201  11.951   8.911  0.3723 -0.1128  0.1333
32695SOL     OW 4689   0.701   0.640   9.937 -0.2777  0.0742  0.1904
32695SOL    HW1 4690   0.737   0.712   9.885 -1.3094  1.8957  1.8496
32695SOL    HW2 4691   0.624   0.612   9.889 -1.2705  1.7965  0.7009
32696SOL     OW 4692  10.751   2.097   1.932  0.5181  0.1030 -0.5192
32696SOL    HW1 4693  10.796   2.074   2.013 -0.9825  1.4907  0.7771
32696SOL    HW2 4694  10.687   2.027   1.919  0.1136  0.3594  0.0480
32697SOL     OW 4695  12.372   8.833   5.033  0.2612 -0.1645 -0.3791
32697SOL    HW1 4696  12.333   8.793   5.111  0.0491  0.0887 -0.3521
32697SOL    HW2 4697  12.429   8.902   5.067 -0.5505  0.5806 -0.4659
32698SOL     OW 4698  10.047   7.807  11.096 -0.3645  0.1932  0.4477
32698SOL    HW1 4699  10.055   7.714  11.119  0.9211  0.1902  0.0463
32698SOL    HW2 4700   9.994   7.844  11.166 -0.2008 -0.6891  1.0568
32699SOL     OW 4701   7.889   7.741   5.823 -0.2239  0.4777 -0.2940
32699SOL    HW1 4702   7.853   7.770   5.907 -1.0422  2.0001 -1.1336
32699SOL    HW2 4703   7.965   7.797   5.808  0.6842 -0.6346 -0.0110
32700SOL     OW 4704   0.455   4.736   2.522 -0.4472 -0.6624 -0.4176
32700SOL    HW1 4705   0.457   4.825   2.488 -0.0743 -1.0306 -1.4112
32700SOL    HW2 4706   0.368   4.726   2.561 -1.3869 -0.5884 -2.3702
32701SOL     OW 4707   8.609   3.569   5.704  0.1964 -0.4642  0.0099
32701SOL    HW1 4708   8.534   3.531   5.660  0.1392 -1.2328  0.7532
32701SOL    HW2 4709   8.584   3.659   5.722  0.1530 -0.1881 -1.3446
32702SOL     OW 4710   9.167   6.760   7.286 -0.1208 -0.1308 -0.0997
32702SOL    HW1 4711   9.173   6.807   7.369 -1.1687 -1.0806  0.5357
32702SOL    HW2 4712   9.101   6.808   7.236 -2.6089 -1.8990  1.2853
32703SOL     OW 4713   4.212   0.520   6.419 -0.3149  0.1938  0.2012
32703SOL    HW1 4714   4.181   0.454   6.481 -0.6643  1.4265  1.4022
32703SOL    HW2 4715   4.283   0.478   6.371 -0.3087 -0.9270  1.1658
32704SOL     OW 4716   9.842   0.944   7.483  0.0372  0.3922  0.1366
32704SOL    HW1 4717   9.779   0.928   7.413  0.6471  1.7272 -0.7587
32704SOL    HW2 4718   9.917   0.984   7.439  1.4358 -0.9483  1.2139
32705SOL     OW 4719   2.180   4.921   8.460  0.1593  0.1857  1.0982
32705SOL    HW1 4720   2.219   4.929   8.372 -0.3161  1.0014  0.9538
32705SOL    HW2 4721   2.106   4.862   8.447 -0.4672  1.0340  0.7537
32706SOL     OW 4722   7.896  12.680   5.240 -0.3490  0.5011 -0.3551
32706SOL    HW1 4723   7.880  12.589   5.263  0.0681  0.2458 -1.0380
32706SOL    HW2 4724   7.811  12.713   5.212 -0.2096 -0.1468 -1.6314
32707SOL     OW 4725  10.170  11.534   3.823  0.0894  0.0466 -0.3596
32707SOL    HW1 4726  10.097  11.530   3.761 -0.4290  1.7470  0.1016
32707SOL    HW2 4727  10.135  11.497   3.904 -0.4227  1.2515 -0.0135
32708SOL     OW 4728   2.442   9.276  12.489 -0.1518  0.3922 -0.0035
32708SOL    HW1 4729   2.366   9.277  12.548 -1.9312  1.7151 -2.1327
32708SOL    HW2 4730   2.408   9.310  12.406  3.1119  2.4230 -0.6908
32709SOL     OW 4731   9.732  10.632  11.909 -0.0419  0.0186 -0.3255
32709SOL    HW1 4732   9.713  10.670  11.823 -0.1885 -0.3951 -0.4803
32709SOL    HW2 4733   9.813  10.674  11.936  0.5162 -0.5125 -1.0949
32710SOL     OW 4734  12.582   6.971   2.727  0.6194  0.1262  0.5531
32710SOL    HW1 4735  12.633   6.890   2.716  0.2765 -0.1766  1.0929
32710SOL    HW2 4736  12.584   7.013   2.642  0.2464 -0.7907  0.0768
32711SOL     OW 4737   4.891   2.471  12.156  0.2561 -0.3109 -0.2740
32711SOL    HW1 4738   4.964   2.422  12.193 -0.1720  0.0995  1.2025
32711SOL    HW2 4739   4.932   2.534  12.096  0.8804 -1.7446 -1.4093
32712SOL     OW 4740  12.153   9.532   8.249 -0.4136  0.4397 -0.2616
32712SOL    HW1 4741  12.214   9.566   8.183  1.0237 -0.9957  0.2421
32712SOL    HW2 4742  12.100   9.468   8.202 -0.7115  0.8176 -0.4414
32713SOL     OW 4743   6.896  10.283   8.265 -0.3187  0.1803  0.0414
32713SOL    HW1 4744   6.834  10.223   8.307 -0.6344  1.0724  0.8960
32713SOL    HW2 4745   6.841  10.337   8.208  0.2078 -1.6213 -2.3662
32714SOL     OW 4746  12.135   2.074   3.155 -0.0140  0.5177  1.1375
32714SOL    HW1 4747  12.074   2.101   3.224  0.0146 -0.5143  1.5968
32714SOL    HW2 4748  12.079   2.035   3.088  0.1030 -0.2344  1.4626
32715SOL     OW 4749   4.337   3.964   0.326  0.0685 -0.0440 -0.3607
32715SOL    HW1 4750   4.245   3.992   0.328  0.2099  0.5374 -1.2173
32715SOL    HW2 4751   4.354   3.949   0.233  0.9290  0.1511 -0.2359
32716SOL     OW 4752   6.717  12.418   6.802 -0.2506  0.0537 -0.0801
32716SOL    HW1 4753   6.795  12.431   6.855  0.3670 -0.3183 -0.8647
32716SOL    HW2 4754   6.658  12.367   6.858  0.2905 -0.1326  0.3291
32717SOL     OW 4755   7.976   1.175  10.280  0.2109 -0.1377  0.0486
32717SOL    HW1 4756   7.961   1.229  10.202 -1.3071 -1.1579 -0.4028
32717SOL    HW2 4757   7.890   1.140  10.302  0.8349 -0.8621  1.4713
32718SOL     OW 4758   5.969   9.190   8.430  0.2531  0.4794 -0.5560
32718SOL    HW1 4759   6.046   9.140   8.403  0.7806 -0.3672  2.1661
32718SOL    HW2 4760   5.927   9.216   8.348  1.6663 -1.7804 -2.1199
32719SOL     OW 4761  12.583   2.081   8.790  0.2777 -0.0263  0.1621
32719SOL    HW1 4762  12.504   2.073   8.843  0.3389 -0.4432  0.1912
32719SOL    HW2 4763  12.604   1.992   8.764  1.5450 -0.0847  1.3109
32720SOL     OW 4764  10.045   6.982   3.704  0.2075 -0.3954  0.0172
32720SOL    HW1 4765   9.956   6.971   3.737 -0.6615 -2.7374 -2.7247
32720SOL    HW2 4766  10.037   7.042   3.630  0.6044 -1.6288 -1.0716
32721SOL     OW 4767   1.333   1.491   5.041  0.4309  0.1108  0.1686
32721SOL    HW1 4768   1.420   1.521   5.068 -0.2678  0.4188  2.2681
32721SOL    HW2 4769   1.312   1.422   5.104 -0.0623 -1.3541 -1.5267
32722SOL     OW 4770   4.943  11.519  12.630  0.0308 -0.2576  0.6531
32722SOL    HW1 4771   4.940  11.468  12.549  0.7715 -0.5179  0.7894
32722SOL    HW2 4772   5.031  11.557  12.632 -0.3640  0.6898  0.7659
32723SOL     OW 4773   9.736   4.406   9.386 -0.0296  0.6178  0.3454
32723SOL    HW1 4774   9.647   4.440   9.394 -0.7051 -1.1756  0.9856
32723SOL    HW2 4775   9.763   4.430   9.297 -1.4195  0.6164 -0.1068
32724SOL     OW 4776  10.225  10.253   9.025 -0.1179  0.2858  0.1212
32724SOL    HW1 4777  10.246  10.286   9.112 -0.3719  0.6200  0.0599
32724SOL    HW2 4778  10.212  10.159   9.037 -0.6637  0.4050  0.5457
32725SOL     OW 4779  10.189   9.121   2.214 -0.5452  0.3301 -0.3706
32725SOL    HW1 4780  10.170   9.192   2.275 -1.5023 -1.4238  1.5028
32725SOL    HW2 4781  10.284   9.110   2.220 -0.5809  0.4063  0.6183
32726SOL     OW 4782   5.664   6.130   8.782  0.2069  0.5234  0.2725
32726SOL    HW1 4783   5.680   6.160   8.872 -0.6709  1.4526  0.1403
32726SOL    HW2 4784   5.709   6.194   8.727  1.3874 -0.4755  0.0540
32727SOL     OW 4785   5.636   7.940   0.405  0.1809  0.1857 -0.1555
32727SOL    HW1 4786   5.553   7.983   0.426  0.7769  0.7089  1.3041
32727SOL    HW2 4787   5.700   7.983   0.463  1.0781 -1.6548  0.2874
32728SOL     OW 4788   8.409   9.401   2.003  0.1766 -0.2765  0.3059
32728SOL    HW1 4789   8.376   9.413   1.914 -2.1331  2.8343  1.3870
32728SOL    HW2 4790   8.462   9.479   2.019  0.3584 -0.6696  1.7452
32729SOL     OW 4791  10.011   3.855   2.166  0.3271  0.1000  0.3602
32729SOL    HW1 4792   9.923   3.881   2.191  0.4466  0.0327  0.8448
32729SOL    HW2 4793  10.060   3.851   2.248  0.3670 -1.4527  0.3013
32730SOL     OW 4794   7.714   5.735   9.907  0.0030  0.1795  0.2612
32730SOL    HW1 4795   7.643   5.734   9.842 -0.7436 -0.6738  1.0595
32730SOL    HW2 4796   7.781   5.792   9.869 -0.5349 -0.0866 -1.1347
32731SOL     OW 4797   1.128   3.677   8.267 -0.2581  0.3597 -0.1931
32731SOL    HW1 4798   1.151   3.657   8.358 -1.2482  1.9142  0.4429
32731SOL    HW2 4799   1.132   3.592   8.222 -0.3000 -0.5367  1.4212
32732SOL     OW 4800   6.844   3.905   4.334 -0.4797  0.4302  0.0926
32732SOL    HW1 4801   6.822   3.973   4.271  0.3618 -0.9503 -1.8224
32732SOL    HW2 4802   6.900   3.948   4.398 -1.3349  1.8844 -0.1038
32733SOL     OW 4803   2.073   0.340  12.243  1.0168  0.2190  0.2644
32733SOL    HW1 4804   2.080   0.296  12.328  0.0892 -1.2324 -0.3631
32733SOL    HW2 4805   2.005   0.407  12.256 -0.5787 -1.3028  0.2178
32734SOL     OW 4806  10.020   9.818   3.597  0.0171 -0.0600  0.2528
32734SOL    HW1 4807  10.071   9.762   3.539 -1.5544 -2.1123  0.7448
32734SOL    HW2 4808  10.069   9.817   3.680 -0.8204 -2.1232  0.7653
32735SOL     OW 4809   9.665   3.838   7.841  0.0754 -1.2448 -0.1580
32735SOL    HW1 4810   9.670   3.888   7.922  1.2485 -1.0634 -0.3297
32735SOL    HW2 4811   9.655   3.747   7.869 -3.0758 -0.9090  0.1634
32736SOL     OW 4812   8.983   7.444   6.288  0.0686 -0.2182 -0.6814
32736SOL    HW1 4813   8.981   7.370   6.350 -0.9532  0.0525 -0.3767
32736SOL    HW2 4814   8.939   7.410   6.210 -0.9953  0.2477 -0.3095
32737SOL     OW 4815   3.315  10.958   6.393 -0.7276 -0.3546 -0.1959
32737SOL    HW1 4816   3.351  11.036   6.351  0.4510  0.0229  1.4069
32737SOL    HW2 4817   3.373  10.887   6.366 -1.1584 -0.4855 -0.7891
32738SOL     OW 4818   0.613   7.760   1.837  0.8796 -0.0255  0.6673
32738SOL    HW1 4819   0.639   7.845   1.873 -2.2064  0.4289  2.1603
32738SOL    HW2 4820   0.634   7.698   1.907 -0.9486  0.2122  1.4778
32739SOL     OW 4821   5.648   6.671  12.662  0.4649  0.0711 -0.4779
32739SOL    HW1 4822   5.727   6.655  12.714 -0.3211  0.5230  0.9047
32739SOL    HW2 4823   5.676   6.658  12.571  1.5074 -2.3356  0.1042
32740SOL     OW 4824   3.321  12.314  12.285  1.2634 -0.0551  0.1210
32740SOL    HW1 4825   3.375  12.358  12.351 -3.1071  3.9412  1.5636
32740SOL    HW2 4826   3.321  12.374  12.210 -1.5017  0.5329  0.4717
32741SOL     OW 4827   2.168   4.588  11.890  0.4632  0.5907  1.1209
32741SOL    HW1 4828   2.178   4.616  11.981  2.0114 -1.1801  1.5360
32741SOL    HW2 4829   2.226   4.512  11.881 -0.4818  0.0559 -1.0539
32742SOL     OW 4830   1.957   4.229   8.721 -0.5874  0.2035 -0.3259
32742SOL    HW1 4831   2.030   4.264   8.772 -1.4150  1.0258  0.3231
32742SOL    HW2 4832   1.947   4.139   8.752  0.4018 -0.0589 -0.7223
32743SOL     OW 4833   0.552  11.665  12.509  0.1418 -0.4459 -0.2808
32743SOL    HW1 4834   0.597  11.723  12.571  2.6882 -0.9616 -1.5345
32743SOL    HW2 4835   0.603  11.671  12.429 -2.1478 -1.0194 -1.8946
32744SOL     OW 4836   6.978  11.332   4.026  0.7382  0.3030 -0.0073
32744SOL    HW1 4837   6.979  11.401   4.093  0.0447  0.8381 -0.5392
32744SOL    HW2 4838   6.946  11.375   3.947 -0.1717 -0.7424 -0.2261
32745SOL     OW 4839   7.281   2.891   6.067 -0.4396 -0.0769 -0.1063
32745SOL    HW1 4840   7.321   2.890   6.153  0.2042  0.1035 -0.3945
32745SOL    HW2 4841   7.215   2.822   6.069 -1.0386  0.5021  0.8068
32746SOL     OW 4842   1.579  11.247   2.717  0.0321 -0.4009 -0.1674
32746SOL    HW1 4843   1.497  11.295   2.701 -0.6248 -1.3580  0.2069
32746SOL    HW2 4844   1.608  11.220   2.631 -0.7687 -1.1919 -0.2029
32747SOL     OW 4845   9.137   6.480  10.468  0.1733 -0.2217 -0.1588
32747SOL    HW1 4846   9.126   6.437  10.383  0.1879  0.6382 -0.5997
32747SOL    HW2 4847   9.050   6.508  10.493  0.2764  0.1450 -0.2152
32748SOL     OW 4848  10.822   5.594   3.164 -0.8087  0.0191  0.2606
32748SOL    HW1 4849  10.763   5.580   3.238 -1.3064  0.1261 -0.1075
32748SOL    HW2 4850  10.784   5.669   3.118 -0.2109  0.2819  0.1884
32749SOL     OW 4851   0.225   0.645   7.278  0.1100 -0.0961 -0.3162
32749SOL    HW1 4852   0.244   0.568   7.224  0.2546  1.0671 -2.0071
32749SOL    HW2 4853   0.308   0.694   7.279 -0.1576  0.3591  0.2046
32750SOL     OW 4854   7.031  12.588   4.600  0.1569  0.2535 -0.1272
32750SOL    HW1 4855   7.036  12.669   4.651  1.4769  0.6048 -0.7632
32750SOL    HW2 4856   7.078  12.524   4.653  0.2812  0.2493 -0.2426
32751SOL     OW 4857   2.302   4.000   4.349  0.2831 -0.3537  0.3011
32751SOL    HW1 4858   2.260   4.084   4.366 -1.3070 -0.0365 -3.9520
32751SOL    HW2 4859   2.393   4.021   4.331  0.1383  0.2996  0.3259
32752SOL     OW 4860   8.242   8.192  10.342 -0.5589  0.2184  0.4195
32752SOL    HW1 4861   8.241   8.231  10.429  0.7462  0.7683  0.2004
32752SOL    HW2 4862   8.232   8.265  10.282  3.6634  0.6239 -0.0743
32753SOL     OW 4863   5.039   0.978   7.803 -0.4719 -0.5797 -0.1965
32753SOL    HW1 4864   5.012   1.021   7.722 -0.3455  0.3654  0.2461
32753SOL    HW2 4865   5.033   1.046   7.870  0.3450 -1.0805  0.4127
32754SOL     OW 4866   2.954   8.023   0.643 -0.2903  0.1937  0.1395
32754SOL    HW1 4867   2.945   7.946   0.699  1.8030  0.5927  1.1486
32754SOL    HW2 4868   2.907   8.093   0.690 -1.6312 -0.2702 -0.4571
32755SOL     OW 4869  12.013  11.623   8.566  0.0362 -0.1023  0.2833
32755SOL    HW1 4870  12.097  11.649   8.603  0.4824 -0.8223 -0.2074
32755SOL    HW2 4871  12.027  11.533   8.536 -0.1380  0.6130 -2.1164
32756SOL     OW 4872   0.901   8.625  11.075  0.6185 -0.5555 -0.1639
32756SOL    HW1 4873   0.879   8.632  11.168 -0.3723 -0.2809 -0.4071
32756SOL    HW2 4874   0.892   8.532  11.056  0.0999 -0.5152 -0.1452
32757SOL     OW 4875  11.863   2.264  10.082 -0.2946  0.4847  0.0557
32757SOL    HW1 4876  11.909   2.206  10.143  0.7071  0.6818 -0.4707
32757SOL    HW2 4877  11.931   2.289  10.018 -1.2208  0.5611 -0.9239
32758SOL     OW 4878   1.586   4.641  12.530  0.3204 -0.3616 -0.3348
32758SOL    HW1 4879   1.616   4.659  12.619 -1.8270 -0.5700  0.5135
32758SOL    HW2 4880   1.587   4.725  12.486 -0.8793  0.2227  0.6849
32759SOL     OW 4881   5.813   7.676  12.408 -0.5609  0.5594  0.0786
32759SOL    HW1 4882   5.875   7.614  12.446  0.2230  0.0018 -2.0213
32759SOL    HW2 4883   5.858   7.711  12.331 -1.5625  2.6678  0.3816
32760SOL     OW 4884  12.339  10.515   4.294 -0.1289 -0.4696  0.0278
32760SOL    HW1 4885  12.354  10.492   4.386 -0.5111 -0.4571  0.0924
32760SOL    HW2 4886  12.413  10.477   4.248  1.1298  1.1612  0.5822
32761SOL     OW 4887   6.558   9.871   1.046 -0.0760  0.6882  0.6313
32761SOL    HW1 4888   6.566   9.945   1.106 -0.1046  2.0897 -1.0020
32761SOL    HW2 4889   6.472   9.883   1.005  0.4306  0.4582 -0.5402
32762SOL     OW 4890  12.647   1.197   9.018 -0.0940  0.0958  0.1443
32762SOL    HW1 4891  12.586   1.224   9.087 -2.1992  0.0449 -1.5647
32762SOL    HW2 4892  12.715   1.264   9.018 -1.3481  1.4248  0.7075
32763SOL     OW 4893   9.348   6.725   8.900 -0.4718 -0.3214 -0.0188
32763SOL    HW1 4894   9.368   6.679   8.980 -0.2393  0.3333  0.3097
32763SOL    HW2 4895   9.271   6.681   8.864 -1.8056  0.5882  1.5926
32764SOL     OW 4896   8.341  12.135  11.921 -0.1903  0.1322 -0.1392
32764SOL    HW1 4897   8.391  12.074  11.976 -1.7522 -2.9521 -1.8439
32764SOL    HW2 4898   8.407  12.195  11.886  1.7445 -1.4613  0.5454
32765SOL     OW 4899   0.875   8.064   9.572 -0.5123 -0.4880  0.0573
32765SOL    HW1 4900   0.838   8.137   9.521 -1.3613 -0.7978  0.2019
32765SOL    HW2 4901   0.798   8.021   9.610  0.1353  0.4387  2.5861
32766SOL     OW 4902   1.824   5.528   5.985  0.0365  0.7009  0.2520
32766SOL    HW1 4903   1.729   5.522   5.987  0.0969 -0.2283  0.5088
32766SOL    HW2 4904   1.845   5.548   5.894 -0.3660  0.1890  0.0436
32767SOL     OW 4905   2.688   3.762  12.652 -0.5071 -0.0043  0.7112
32767SOL    HW1 4906   2.694   3.836  12.712  0.9420  0.0418  0.5465
32767SOL    HW2 4907   2.701   3.801  12.565  4.4054 -0.7927  0.8366
32768SOL     OW 4908  12.456   7.606  11.285 -0.2440 -0.5800 -0.1439
32768SOL    HW1 4909  12.428   7.586  11.374  2.5095 -2.7156  0.3998
32768SOL    HW2 4910  12.389   7.568  11.229 -1.5289 -0.0490  0.9830
32769SOL     OW 4911   0.572   5.283   6.257 -0.1080  0.2478 -0.0908
32769SOL    HW1 4912   0.563   5.370   6.219 -2.1257 -0.1254 -0.6072
32769SOL    HW2 4913   0.487   5.266   6.297  0.1060 -1.6380 -0.3568
32770SOL     OW 4914   2.313  11.289   4.966 -0.3889 -0.0067 -0.4090
32770SOL    HW1 4915   2.356  11.374   4.960 -0.0034 -0.3034 -2.3931
32770SOL    HW2 4916   2.381  11.225   4.947 -1.1493 -0.6206 -1.1591
32771SOL     OW 4917   1.104   4.013  10.194 -0.1883  0.4872  0.4638
32771SOL    HW1 4918   1.046   3.937  10.194  0.5046 -0.1624 -2.7398
32771SOL    HW2 4919   1.070   4.069  10.124  3.1019 -0.0912 -1.8175
32772SOL     OW 4920   8.505   5.925   1.562  0.3745 -0.3511  0.0511
32772SOL    HW1 4921   8.538   5.866   1.494  0.6275 -0.9922  0.7159
32772SOL    HW2 4922   8.583   5.974   1.591  0.2128  0.1334 -0.3213
32773SOL     OW 4923   1.092   5.791   0.580 -0.1054  0.1933 -0.5401
32773SOL    HW1 4924   1.159   5.858   0.571 -0.0746 -0.0401 -2.5673
32773SOL    HW2 4925   1.140   5.713   0.609 -0.1435  0.9702  1.8157
32774SOL     OW 4926   5.987   1.213   0.101 -0.7760 -0.1007  0.0050
32774SOL    HW1 4927   6.075   1.183   0.123 -0.4993  0.0605 -0.8486
32774SOL    HW2 4928   5.971   1.286   0.161 -1.5090 -1.9216  2.2045
32775SOL     OW 4929  11.429   5.137  10.927 -0.1191  0.0685  0.2756
32775SOL    HW1 4930  11.391   5.111  10.843  1.1537 -1.7168  0.1860
32775SOL    HW2 4931  11.394   5.224  10.943  0.2899  0.8713 -2.5497
32776SOL     OW 4932   8.617   8.276   8.054  0.2631 -0.1046 -0.2633
32776SOL    HW1 4933   8.618   8.279   7.958  0.6896 -2.5859 -0.4166
32776SOL    HW2 4934   8.531   8.310   8.078  0.3164  0.9681 -1.4911
32777SOL     OW 4935   5.384   0.482  10.964 -0.6500  0.2093 -0.1038
32777SOL    HW1 4936   5.301   0.519  10.934 -0.0732  1.3037 -0.4151
32777SOL    HW2 4937   5.360   0.425  11.037 -1.6325  0.8441  0.0897
32778SOL     OW 4938   3.908   6.913   8.544  0.1113 -0.1638 -0.3447
32778SOL    HW1 4939   3.850   6.884   8.614 -1.5242 -0.9864 -1.9556
32778SOL    HW2 4940   3.923   7.006   8.562 -1.0034 -0.1451  0.6019
32779SOL     OW 4941  11.053   4.746  11.109  0.4000 -0.2788  0.0016
32779SOL    HW1 4942  11.015   4.823  11.151  1.2795 -1.0736  2.4716
32779SOL    HW2 4943  11.131   4.779  11.064 -0.1173  0.5001 -0.3299
32780SOL     OW 4944   4.303   5.998   9.430  0.0762  0.1217  0.1900
32780SOL    HW1 4945   4.353   6.009   9.349 -0.1577  1.2127  0.1884
32780SOL    HW2 4946   4.257   6.081   9.443 -1.0886 -0.5623  0.6441
32781SOL     OW 4947  12.204   2.685   8.143  0.0142 -0.2736 -0.7458
32781SOL    HW1 4948  12.111   2.709   8.146 -0.0883 -0.7362  0.3413
32781SOL    HW2 4949  12.234   2.714   8.057 -0.9224  0.6659 -0.7680
32782SOL     OW 4950   2.576   2.755  11.980 -0.2923  0.0886  0.2320
32782SOL    HW1 4951   2.502   2.771  12.038 -0.1456  0.6644  0.2693
32782SOL    HW2 4952   2.575   2.829  11.919 -1.2085 -1.1371 -1.3206
32783SOL     OW 4953  11.914   5.050   3.103  0.0712  0.1826  0.0404
32783SOL    HW1 4954  11.962   4.976   3.141 -0.5420 -0.6273 -0.7239
32783SOL    HW2 4955  11.965   5.074   3.026 -0.2064 -0.0213 -0.2070
32784SOL     OW 4956   1.956   7.855   2.575  0.5169  0.1596 -0.9198
32784SOL    HW1 4957   2.003   7.772   2.566  0.8267  0.2980 -0.5812
32784SOL    HW2 4958   1.881   7.834   2.631  0.3745  0.0244 -1.1562
32785SOL     OW 4959   1.117   7.319   3.304  0.0115 -0.4301 -0.1722
32785SOL    HW1 4960   1.158   7.301   3.220 -0.6619  0.0255 -0.6056
32785SOL    HW2 4961   1.035   7.364   3.282  0.9670  1.9219  0.7997
32786SOL     OW 4962   0.133   0.291   1.832  0.1236  0.3478 -0.3904
32786SOL    HW1 4963   0.086   0.282   1.749  2.6248 -0.2153 -1.8451
32786SOL    HW2 4964   0.195   0.218   1.832  0.6782  0.7643  1.6576
32787SOL     OW 4965   4.695  10.040  11.499 -0.1234 -0.1135  0.4535
32787SOL    HW1 4966   4.673  10.131  11.482  1.5175  0.1478 -0.4505
32787SOL    HW2 4967   4.626  10.009  11.558 -1.6940  1.1939 -0.6151
32788SOL     OW 4968   6.802   3.347   9.675  0.2474 -0.0448  0.3715
32788SOL    HW1 4969   6.809   3.425   9.729  1.1144 -0.8919  1.5439
32788SOL    HW2 4970   6.720   3.306   9.703  0.4826 -0.2633  0.7418
32789SOL     OW 4971  11.781   1.453   7.275  0.0590  0.2463  0.5204
32789SOL    HW1 4972  11.849   1.390   7.252 -1.2306 -1.0209  0.0739
32789SOL    HW2 4973  11.828   1.536   7.287  1.3820 -0.0402 -2.1217
32790SOL     OW 4974  12.604   2.176   5.404 -0.1067  0.3161 -0.0779
32790SOL    HW1 4975  12.683   2.124   5.417  0.6712  1.3108 -0.7960
32790SOL    HW2 4976  12.560   2.173   5.490  0.1785 -1.0635  0.0478
32791SOL     OW 4977   9.921   9.346  12.741 -0.0818  0.0793 -0.3739
32791SOL    HW1 4978   9.945   9.434  12.715  0.1307  0.0753 -0.1896
32791SOL    HW2 4979  10.002   9.306  12.773  0.7214 -1.4214 -3.7957
32792SOL     OW 4980   5.576   3.327  10.450 -0.4828 -0.1889 -0.0544
32792SOL    HW1 4981   5.533   3.404  10.487  1.0970  1.1187 -0.7703
32792SOL    HW2 4982   5.549   3.327  10.358 -1.4671 -1.2430  0.2248
32793SOL     OW 4983   0.952   1.359   7.482  0.8221  0.0763 -0.2024
32793SOL    HW1 4984   0.961   1.289   7.418  3.0068  0.4979 -0.4364
32793SOL    HW2 4985   0.984   1.321   7.564 -0.2726  0.0853  0.2469
32794SOL     OW 4986   0.521   2.976   2.447 -0.2096 -0.7176  0.7350
32794SOL    HW1 4987   0.611   2.963   2.478  0.2259  0.8700  0.2181
32794SOL    HW2 4988   0.517   3.069   2.424 -2.0279 -0.7335  0.8619
32795SOL     OW 4989   1.558  12.495   8.214  0.6359  0.4130  0.6831
32795SOL    HW1 4990   1.646  12.521   8.188  0.6465  1.1300  1.4065
32795SOL    HW2 4991   1.504  12.574   8.203  0.1993  0.1304  0.7487
32796SOL     OW 4992   2.751   3.310  11.372  0.6339  0.2811 -0.1707
32796SOL    HW1 4993   2.809   3.345  11.305  1.5897 -2.2554 -0.7904
32796SOL    HW2 4994   2.664   3.314  11.332  1.3895 -3.0577 -2.6385
32797SOL     OW 4995  12.218   0.325   8.166  0.6229  0.2533  0.0887
32797SOL    HW1 4996  12.177   0.333   8.080  1.1965  0.0899 -0.2029
32797SOL    HW2 4997  12.237   0.416   8.192 -2.1698  0.5837  1.3588
32798SOL     OW 4998   4.759   1.834   8.771 -0.0509  0.5573 -0.2793
32798SOL    HW1 4999   4.854   1.844   8.763 -0.0926  0.5553 -0.8752
32798SOL    HW2 5000   4.740   1.855   8.862  0.4546  1.0830 -0.2864
32799SOL     OW 5001   2.409   0.221   3.075 -0.2924 -0.4379  0.5936
32799SOL    HW1 5002   2.397   0.288   3.142 -0.4723  1.0065 -0.8343
32799SOL    HW2 5003   2.503   0.221   3.059 -0.3252 -0.3606  0.4086
32800SOL     OW 5004   7.989   1.266  10.686  0.1768 -0.4536  0.1730
32800SOL    HW1 5005   7.961   1.258  10.778  0.3380  0.2843  0.2940
32800SOL    HW2 5006   7.909   1.252  10.636 -0.4331  1.4501  0.5146
32801SOL     OW 5007   6.138  11.586   2.115  0.3020  0.1249 -0.4666
32801SOL    HW1 5008   6.160  11.507   2.164  0.5943  0.3723 -0.1934
32801SOL    HW2 5009   6.220  11.635   2.111 -0.3804  1.5630  1.4758
32802SOL     OW 5010   4.071  10.611   6.396  0.1191  0.2777  0.2652
32802SOL    HW1 5011   4.034  10.590   6.482  0.2985  0.9626  0.5102
32802SOL    HW2 5012   4.166  10.612   6.410  0.2129 -0.7996 -0.2131
32803SOL     OW 5013   3.409  12.316  10.157  0.5568 -0.2047  0.0947
32803SOL    HW1 5014   3.361  12.295  10.237  1.9937  0.7405  1.2747
32803SOL    HW2 5015   3.448  12.233  10.130 -1.0692 -0.8228 -0.4683
32804SOL     OW 5016   4.311   9.709   4.292 -0.1981 -0.1745  0.1209
32804SOL    HW1 5017   4.337   9.660   4.369 -2.1714 -0.0359  0.9238
32804SOL    HW2 5018   4.235   9.662   4.257 -0.4506  0.7719 -0.6597
32805SOL     OW 5019   7.773  11.318   4.219 -0.0629  0.9741 -0.4347
32805SOL    HW1 5020   7.686  11.356   4.230 -1.1622 -1.3638 -0.3372
32805SOL    HW2 5021   7.802  11.299   4.309 -1.3700 -2.0505 -0.5246
32806SOL     OW 5022  11.341  12.460   3.500  0.3521  0.0623 -0.1232
32806SOL    HW1 5023  11.374  12.545   3.468 -0.2016  0.3557  0.0826
32806SOL    HW2 5024  11.298  12.421   3.424 -2.4396  1.4850  0.5963
32807SOL     OW 5025  10.147   4.167   8.424 -0.1574 -0.1078  0.2743
32807SOL    HW1 5026  10.123   4.258   8.407 -0.1714 -0.3574 -1.0922
32807SOL    HW2 5027  10.143   4.124   8.339 -0.4947 -1.4840  0.9563
32808SOL     OW 5028   2.104   0.086   5.129 -0.6222  0.1038 -0.6549
32808SOL    HW1 5029   2.118   0.059   5.038 -0.1657 -0.9892 -0.2715
32808SOL    HW2 5030   2.151   0.169   5.136  0.0769 -0.2313 -1.1942
32809SOL     OW 5031  10.668  10.599   1.172 -0.7682 -0.5793 -0.1284
32809SOL    HW1 5032  10.611  10.672   1.150 -0.2423 -0.2750 -0.5096
32809SOL    HW2 5033  10.663  10.540   1.098 -0.8314 -0.7044 -0.0251
32810SOL     OW 5034   4.199  12.019   4.201 -0.9644  0.5230  0.5434
32810SOL    HW1 5035   4.196  11.935   4.156 -1.9006  0.6577  0.3344
32810SOL    HW2 5036   4.232  11.998   4.288  0.3904  0.1903 -0.0170
32811SOL     OW 5037  11.188  10.124   8.571  0.6637  0.4057 -0.4005
32811SOL    HW1 5038  11.261  10.064   8.554  2.2978  1.9174  0.9310
32811SOL    HW2 5039  11.140  10.085   8.644  1.4224  0.4407  0.1254
32812SOL     OW 5040   6.032   8.741   3.390  0.0087  0.2875 -0.1219
32812SOL    HW1 5041   6.093   8.694   3.333 -0.6921 -1.8158  0.7510
32812SOL    HW2 5042   6.060   8.718   3.479 -0.4011  1.5120  0.3396
32813SOL     OW 5043   2.919   9.338   2.900 -0.4554  0.0258  0.1444
32813SOL    HW1 5044   2.835   9.310   2.862 -1.2039  0.5302  1.3572
32813SOL    HW2 5045   2.895   9.404   2.965  0.7100 -1.1047  1.8070
32814SOL     OW 5046  11.911   9.629   7.497  0.3567  0.4938  0.2692
32814SOL    HW1 5047  11.828   9.640   7.450  0.3723 -0.1522  0.0777
32814SOL    HW2 5048  11.907   9.692   7.568 -0.8593 -0.3830  1.0255
32815SOL     OW 5049   4.168  12.456   9.236  0.0208 -0.0244 -0.1692
32815SOL    HW1 5050   4.105  12.385   9.235 -2.3601  1.9473  0.0825
32815SOL    HW2 5051   4.158  12.499   9.152 -0.4517  1.4928  0.6237
32816SOL     OW 5052  11.446   3.556  10.786  0.4178  0.4798  0.1803
32816SOL    HW1 5053  11.477   3.482  10.734  2.0189 -0.9240  2.9022
32816SOL    HW2 5054  11.362   3.527  10.821  1.5983 -0.7354  2.2516
32817SOL     OW 5055   8.721   8.162   0.885 -0.1582 -0.1103 -0.0438
32817SOL    HW1 5056   8.792   8.222   0.907  0.3092 -0.7731  0.3085
32817SOL    HW2 5057   8.641   8.212   0.901  0.2242  0.6423 -0.4380
32818SOL     OW 5058   6.708   1.892  10.409 -0.2434  0.5142 -0.8643
32818SOL    HW1 5059   6.752   1.930  10.484 -0.7185 -0.4312 -0.0882
32818SOL    HW2 5060   6.643   1.833  10.446 -1.1284  0.7237 -2.0003
32819SOL     OW 5061   4.619   4.066   4.038 -0.0421 -0.2236  0.1279
32819SOL    HW1 5062   4.576   4.019   3.967  0.3147  0.6365 -0.6849
32819SOL    HW2 5063   4.610   4.009   4.114 -1.6605 -0.5409 -0.2715
32820SOL     OW 5064   2.587   6.290  11.294 -0.0092  0.1499 -0.0019
32820SOL    HW1 5065   2.613   6.316  11.383  0.0948 -0.9038  0.2878
32820SOL    HW2 5066   2.493   6.277  11.300  0.3187 -2.3827  0.6354
32821SOL     OW 5067   1.602   9.117   5.277 -0.5063  0.3735  0.3371
32821SOL    HW1 5068   1.671   9.171   5.315  0.0182  0.4685 -0.7154
32821SOL    HW2 5069   1.648   9.058   5.217 -1.0864 -1.0937  1.2929
32822SOL     OW 5070   4.259   2.442  10.881 -0.0111 -0.1317  0.1065
32822SOL    HW1 5071   4.302   2.440  10.795  1.5546  0.1109  0.8395
32822SOL    HW2 5072   4.328   2.419  10.943 -1.0666 -0.1388  1.3271
32823SOL     OW 5073   5.934   4.863   5.623 -0.0851  0.3067  0.2756
32823SOL    HW1 5074   5.955   4.870   5.716  2.0181  0.1253 -0.1204
32823SOL    HW2 5075   5.887   4.944   5.602  0.3083  0.8077  1.2925
32824SOL     OW 5076   1.947   4.787   5.325  0.1576  0.2173 -0.1757
32824SOL    HW1 5077   1.934   4.865   5.380  0.1395 -0.9556  1.5769
32824SOL    HW2 5078   2.039   4.764   5.339  0.5732  0.6992 -1.8305
32825SOL     OW 5079   2.104   7.441   7.308  0.3410 -0.3470  0.1165
32825SOL    HW1 5080   2.132   7.472   7.222  1.5707 -2.1319 -0.1797
32825SOL    HW2 5081   2.048   7.365   7.288 -1.1245  0.4980  0.8560
32826SOL     OW 5082   3.104   2.241   4.505  0.1986 -0.3362  0.3547
32826SOL    HW1 5083   3.190   2.273   4.533 -0.1272  1.5526 -0.6914
32826SOL    HW2 5084   3.120   2.204   4.418 -0.3698  2.0461 -0.8466
32827SOL     OW 5085   3.683   0.543   3.810 -0.8713  0.1422  0.4338
32827SOL    HW1 5086   3.705   0.466   3.862 -0.2882  1.1101  1.6808
32827SOL    HW2 5087   3.705   0.519   3.720  1.0686 -0.5232  1.0389
32828SOL     OW 5088   5.298   4.986   3.161 -0.1741 -0.5944 -0.1664
32828SOL    HW1 5089   5.269   4.895   3.175 -0.7182 -0.5483 -0.9185
32828SOL    HW2 5090   5.279   5.003   3.068  0.6357  0.0373 -0.2296
32829SOL     OW 5091   0.071   7.727   7.577  0.1485  0.4924 -0.4782
32829SOL    HW1 5092   0.146   7.784   7.592  0.1419  0.5399 -0.6190
32829SOL    HW2 5093   0.016   7.776   7.515 -0.3040  0.7303  0.1045
32830SOL     OW 5094   1.529  11.111   3.859 -0.3968  0.2493 -0.3689
32830SOL    HW1 5095   1.474  11.044   3.818 -0.3208 -0.2036  0.2680
32830SOL    HW2 5096   1.521  11.095   3.953  0.9407  0.0827 -0.2681
32831SOL     OW 5097   9.968   3.764  12.591 -0.1649  0.0822  0.3191
32831SOL    HW1 5098   9.905   3.692  12.592  1.3322 -1.3459 -1.1117
32831SOL    HW2 5099  10.038   3.736  12.649  0.2465  0.5613  0.0681
32832SOL     OW 5100   9.140   8.328   9.958 -0.1469 -0.4285 -0.1687
32832SOL    HW1 5101   9.169   8.362  10.043  0.8357 -0.2066 -0.5723
32832SOL    HW2 5102   9.159   8.399   9.896 -1.1694 -0.4538 -0.5308
32833SOL     OW 5103   8.411   8.707   9.392  0.2284  0.1508 -0.0574
32833SOL    HW1 5104   8.360   8.640   9.347  0.1075 -0.0613  0.3924
32833SOL    HW2 5105   8.346   8.763   9.434  0.2795  1.1877 -1.2998
32834SOL     OW 5106  12.455   3.231   1.567  0.2203  0.0807 -0.3424
32834SOL    HW1 5107  12.464   3.224   1.472 -1.4606  0.4056 -0.5525
32834SOL    HW2 5108  12.379   3.287   1.580  1.0354  0.8943  1.2140
32835SOL     OW 5109   5.685   3.046   9.221 -0.0869  0.0186 -0.8124
32835SOL    HW1 5110   5.596   3.078   9.240  0.1342 -0.4189  1.1738
32835SOL    HW2 5111   5.743   3.110   9.262  0.4085 -1.2604  0.6053
32836SOL     OW 5112  11.940   1.436  12.527  0.4051 -0.2731  0.0109
32836SOL    HW1 5113  11.891   1.511  12.560  0.3166 -0.3132 -0.0291
32836SOL    HW2 5114  11.997   1.411  12.599  1.8504  1.0462 -0.5951
32837SOL     OW 5115   4.774   3.714  10.323 -0.3599 -0.2642  0.3163
32837SOL    HW1 5116   4.744   3.624  10.330 -1.8481  0.0580 -1.1335
32837SOL    HW2 5117   4.799   3.723  10.231 -0.0957  0.7655  0.4776
32838SOL     OW 5118   1.923   7.555   2.357  0.0314 -0.2787 -0.3612
32838SOL    HW1 5119   1.914   7.575   2.264  0.1460  0.8594 -0.1412
32838SOL    HW2 5120   1.978   7.625   2.391 -0.5427 -0.3256  0.6896
32839SOL     OW 5121   0.311   2.676   9.335 -0.0187 -0.0715 -0.8511
32839SOL    HW1 5122   0.306   2.722   9.251  0.6646  2.3260  0.3359
32839SOL    HW2 5123   0.399   2.695   9.367 -0.5893 -0.1514  0.8308
32840SOL     OW 5124   3.177   0.763   6.725  0.0275 -0.2600 -0.0563
32840SOL    HW1 5125   3.141   0.820   6.793  0.0225  0.5635 -0.7233
32840SOL    HW2 5126   3.196   0.681   6.770 -0.5955  0.0394  0.7890
32841SOL     OW 5127  10.581   5.915   9.596  0.1167 -0.3150 -0.3078
32841SOL    HW1 5128  10.582   5.999   9.642 -1.4861  1.4963 -3.2601
32841SOL    HW2 5129  10.662   5.914   9.545 -1.0104  0.7431 -2.2303
32842SOL     OW 5130   6.502   3.066   3.316 -0.3986  0.0763  0.1892
32842SOL    HW1 5131   6.521   3.041   3.226  0.6994 -0.8967  0.6687
32842SOL    HW2 5132   6.492   3.161   3.313  0.5594  0.1637 -0.7962
32843SOL     OW 5133   0.046  11.965   7.975  0.5127  0.0359 -0.0778
32843SOL    HW1 5134  -0.013  11.909   7.925  1.2406 -0.7798 -0.0543
32843SOL    HW2 5135   0.053  12.045   7.923 -0.8142  0.2683  0.0578
32844SOL     OW 5136  12.326   4.055   1.229 -0.2076  0.3290 -0.3218
32844SOL    HW1 5137  12.245   4.008   1.245 -0.1582  0.2401 -0.3342
32844SOL    HW2 5138  12.348   4.034   1.138  1.0945 -1.5607  0.3799
32845SOL     OW 5139   3.920  11.721   4.569  0.1003  0.1809 -0.6246
32845SOL    HW1 5140   3.874  11.786   4.517  0.0356  0.2533 -0.4790
32845SOL    HW2 5141   4.013  11.740   4.557  0.0953 -0.0383 -1.0119
32846SOL     OW 5142   4.657   7.993  10.955  0.0031  0.3613 -0.4143
32846SOL    HW1 5143   4.615   7.965  10.873  0.6257 -0.0687 -0.5913
32846SOL    HW2 5144   4.607   7.948  11.024  1.6205 -2.1155 -0.7338
32847SOL     OW 5145   3.141  11.795   4.251 -0.6191 -0.1316 -0.7230
32847SOL    HW1 5146   3.161  11.761   4.338  2.8982 -0.3138 -1.4490
32847SOL    HW2 5147   3.093  11.724   4.209 -0.8204 -0.7525  0.5149
32848SOL     OW 5148   9.451   4.490   9.372 -0.7944  0.3822 -0.4558
32848SOL    HW1 5149   9.398   4.493   9.292 -1.8296 -1.9568  0.0382
32848SOL    HW2 5150   9.435   4.402   9.407 -0.3942  1.3437  2.3501
32849SOL     OW 5151   8.936   0.358   2.643 -0.0427  0.4568 -0.1369
32849SOL    HW1 5152   8.888   0.305   2.580  1.8835  1.3990 -2.5643
32849SOL    HW2 5153   8.947   0.301   2.719 -1.9884 -0.9306 -0.8276
32850SOL     OW 5154  12.067   4.760   8.301 -0.0260  0.2175 -0.0417
32850SOL    HW1 5155  12.112   4.834   8.260  1.2899  0.8963  2.4334
32850SOL    HW2 5156  12.023   4.798   8.377  1.4175 -1.5969  1.8106
32851SOL     OW 5157   8.586   5.543   2.907  0.0970 -0.4623 -0.3871
32851SOL    HW1 5158   8.513   5.496   2.866 -0.6003 -1.1694  1.5347
32851SOL    HW2 5159   8.662   5.488   2.890 -0.2188 -0.8566 -0.5404
32852SOL     OW 5160   2.669  11.174   3.424 -0.3061  0.0454 -0.7855
32852SOL    HW1 5161   2.610  11.163   3.349 -0.6832 -0.3889 -0.4289
32852SOL    HW2 5162   2.612  11.202   3.496  0.0989  0.7613 -0.7268
32853SOL     OW 5163   4.075   1.497   9.014 -0.3096 -0.3054 -0.5617
32853SOL    HW1 5164   4.087   1.438   9.088 -0.5701 -1.1748 -1.1992
32853SOL    HW2 5165   4.071   1.585   9.053  1.5183 -0.5635  0.2630
32854SOL     OW 5166  12.172   4.416   0.545  0.3824  0.8390 -0.1764
32854SOL    HW1 5167  12.227   4.345   0.579 -0.3301  1.1814  1.8037
32854SOL    HW2 5168  12.120   4.374   0.476  0.8488 -0.2635  0.1070
32855SOL     OW 5169   8.757   2.336   9.607 -0.0378 -0.0566  0.1881
32855SOL    HW1 5170   8.665   2.318   9.589 -0.0084  0.0674 -0.0898
32855SOL    HW2 5171   8.756   2.391   9.686 -0.2463  0.6250 -0.2805
32856SOL     OW 5172   5.586   7.231   8.296 -0.1111 -0.5314  0.4264
32856SOL    HW1 5173   5.619   7.142   8.308 -0.2116 -0.7379 -0.6689
32856SOL    HW2 5174   5.504   7.220   8.247  0.1077  0.1713 -0.1260
32857SOL     OW 5175   3.647  10.522   7.015 -0.0866 -0.1820 -0.4724
32857SOL    HW1 5176   3.723  10.559   6.970  0.8225  0.5804  1.5518
32857SOL    HW2 5177   3.594  10.483   6.945  1.9191 -0.3283 -2.0001
32858SOL     OW 5178   8.131   3.228  11.590 -0.0520 -0.8111  0.2594
32858SOL    HW1 5179   8.072   3.156  11.571  0.1842 -0.5751 -1.5320
32858SOL    HW2 5180   8.074   3.300  11.615 -0.4909 -0.8332 -0.6376
32859SOL     OW 5181   7.738   3.768   2.470 -0.5738 -0.0530 -0.1230
32859SOL    HW1 5182   7.665   3.787   2.411 -0.1323  0.2162 -0.5931
32859SOL    HW2 5183   7.816   3.781   2.416 -0.1074  1.4973  0.8788
32860SOL     OW 5184   6.407   5.887   2.805  0.4740 -0.3229  0.1246
32860SOL    HW1 5185   6.426   5.822   2.737 -0.2915 -1.1982  0.7055
32860SOL    HW2 5186   6.409   5.971   2.760  0.3493 -0.8491 -0.9015
32861SOL     OW 5187  11.342   7.727   4.290 -0.5477  0.3657  0.1615
32861SOL    HW1 5188  11.370   7.712   4.380  1.2116  0.2198 -0.3741
32861SOL    HW2 5189  11.261   7.676   4.282 -1.5284  1.5143  2.0368
32862SOL     OW 5190  10.393  10.274   8.193 -0.0446  0.0157  0.0076
32862SOL    HW1 5191  10.392  10.362   8.230  2.2220 -0.4048  1.2213
32862SOL    HW2 5192  10.485  10.257   8.173 -0.4366 -2.0606 -0.2288
32863SOL     OW 5193  11.535   9.757  11.063  0.2726 -0.4359 -0.0491
32863SOL    HW1 5194  11.591   9.815  11.116 -0.6585  1.4772 -1.0359
32863SOL    HW2 5195  11.455   9.749  11.115  0.6418 -1.4241  0.3888
32864SOL     OW 5196  11.266   5.329   8.726  0.9098  0.2168 -0.2036
32864SOL    HW1 5197  11.284   5.331   8.632  2.0186  0.6089  0.0026
32864SOL    HW2 5198  11.203   5.399   8.740 -1.1909 -1.3920 -0.9910
32865SOL     OW 5199   5.335   4.555   7.139  0.4999 -0.3098  1.0417
32865SOL    HW1 5200   5.310   4.611   7.066 -1.2351 -0.6067  1.3583
32865SOL    HW2 5201   5.360   4.615   7.209  1.8622 -0.0203  0.3404
32866SOL     OW 5202   1.820   4.460   8.041 -0.1421 -0.0017  0.3755
32866SOL    HW1 5203   1.776   4.544   8.027  0.5237  0.4807  1.1012
32866SOL    HW2 5204   1.911   4.483   8.060  0.0958 -0.9051  0.3995
32867SOL     OW 5205   0.013   9.894   5.682  0.4408 -0.2135  0.2240
32867SOL    HW1 5206  -0.004   9.913   5.589  0.8991  1.2767  0.4085
32867SOL    HW2 5207  -0.073   9.894   5.723  0.2029 -1.2311 -0.2443
32868SOL     OW 5208   7.150   7.706  10.096  0.1294 -0.5722 -0.3264
32868SOL    HW1 5209   7.063   7.741  10.117 -0.2581  0.0475 -2.7103
32868SOL    HW2 5210   7.189   7.771  10.038  2.7538 -0.2461  1.6249
32869SOL     OW 5211   4.523  10.007   2.204  0.2076 -1.0887 -0.4909
32869SOL    HW1 5212   4.601  10.062   2.191 -0.4869 -0.2151 -1.0623
32869SOL    HW2 5213   4.545   9.952   2.279  0.1051  1.4767  1.5623
32870SOL     OW 5214  11.953   3.991   9.768 -0.3993  0.0459  0.2699
32870SOL    HW1 5215  11.983   3.922   9.828  0.3608  0.0542 -0.0963
32870SOL    HW2 5216  11.940   4.067   9.824  0.9006  0.2270  0.3362
32871SOL     OW 5217   8.556   5.401   1.273 -0.0423  0.0670  0.3985
32871SOL    HW1 5218   8.523   5.485   1.306 -0.7966  0.1863 -0.6058
32871SOL    HW2 5219   8.621   5.373   1.338 -0.0732  1.2295  0.9513
32872SOL     OW 5220  12.205   2.547   6.056 -0.4175  0.8934  0.1980
32872SOL    HW1 5221  12.237   2.603   6.126  0.5952  0.0644  0.4239
32872SOL    HW2 5222  12.216   2.458   6.089  0.5546  0.4605 -1.1910
32873SOL     OW 5223   6.591   1.304   6.033  0.1757  0.1002 -0.3562
32873SOL    HW1 5224   6.668   1.357   6.048  0.8291 -1.1855  1.0277
32873SOL    HW2 5225   6.529   1.330   6.101  1.3205 -2.3408  1.7595
32874SOL     OW 5226   3.858  12.721   4.973  0.2398  0.0133  0.1284
32874SOL    HW1 5227   3.803  12.662   4.922  1.0639 -0.6192 -0.0514
32874SOL    HW2 5228   3.843  12.807   4.934 -1.1166 -0.0160  0.5151
32875SOL     OW 5229   1.460   8.297   7.956 -0.3245  0.2473  0.7004
32875SOL    HW1 5230   1.553   8.303   7.932 -0.1275 -2.3653  0.5295
32875SOL    HW2 5231   1.420   8.249   7.885 -1.6827  0.6712  1.1555
32876SOL     OW 5232   4.338   7.768  10.194  0.2459 -0.3452 -0.3236
32876SOL    HW1 5233   4.403   7.782  10.263  0.9443  1.2799 -1.2524
32876SOL    HW2 5234   4.358   7.681  10.159  2.1559  0.2290 -0.7903
32877SOL     OW 5235  11.979  11.905   8.069  0.3996 -0.6048 -0.0422
32877SOL    HW1 5236  11.933  11.944   7.995 -0.8419 -0.3592  0.8370
32877SOL    HW2 5237  12.064  11.949   8.071  0.3198 -0.3825 -1.0995
32878SOL     OW 5238   0.167   4.101   2.881  0.2158 -0.4419  0.4894
32878SOL    HW1 5239   0.206   4.154   2.949 -1.5396 -0.6759  1.7579
32878SOL    HW2 5240   0.206   4.014   2.892 -0.3111 -0.5693  1.4657
32879SOL     OW 5241  12.208   3.854   0.442 -0.0556  0.2462  0.4807
32879SOL    HW1 5242  12.256   3.773   0.424 -1.1339 -0.8144  2.1440
32879SOL    HW2 5243  12.264   3.923   0.406  1.2055 -1.1686 -0.4086
32880SOL     OW 5244   6.565   9.869   6.544  0.4076 -0.0655  0.4019
32880SOL    HW1 5245   6.493   9.917   6.504  1.4651  0.5897 -0.7790
32880SOL    HW2 5246   6.522   9.806   6.602 -1.0607  1.3932  0.9851
32881SOL     OW 5247  11.939  11.124   8.571  0.5033  0.0284  0.3911
32881SOL    HW1 5248  11.937  11.060   8.643 -0.5064  0.5072  0.8035
32881SOL    HW2 5249  11.867  11.184   8.590  1.7627  1.6343  0.3183
32882SOL     OW 5250   5.754   6.370  12.011 -0.9477 -0.2893  0.1382
32882SOL    HW1 5251   5.717   6.290  11.975 -3.0979 -0.1664  1.8347
32882SOL    HW2 5252   5.689   6.400  12.074  1.6636  0.5529  2.6458
32883SOL     OW 5253   6.674   6.034  10.687 -0.1654  0.0666  0.2016
32883SOL    HW1 5254   6.634   6.083  10.615  0.7772 -1.2763 -1.3031
32883SOL    HW2 5255   6.604   5.979  10.722 -0.4674  0.2562 -0.1059
32884SOL     OW 5256  11.333   2.623  11.896 -0.3090  0.4766 -0.5090
32884SOL    HW1 5257  11.357   2.551  11.837  0.3409  0.0379  0.2562
32884SOL    HW2 5258  11.352   2.702  11.847  0.1746  0.1190 -0.9138
32885SOL     OW 5259   9.717   0.679   7.224  0.1051 -0.1533  0.9216
32885SOL    HW1 5260   9.682   0.762   7.256 -0.9200 -0.8582  1.7079
32885SOL    HW2 5261   9.649   0.645   7.165 -0.1277 -1.0774  1.6929
32886SOL     OW 5262   2.661  11.349   2.825 -0.0236  0.2323 -0.4254
32886SOL    HW1 5263   2.701  11.317   2.744 -0.2596 -0.7344 -0.1614
32886SOL    HW2 5264   2.598  11.282   2.850 -1.0677  1.2449 -0.2581
32887SOL     OW 5265   2.438  11.958   1.604 -0.1716 -0.0209  0.2428
32887SOL    HW1 5266   2.473  12.047   1.602  1.9949 -0.6898  2.9143
32887SOL    HW2 5267   2.495  11.909   1.545 -0.5425  0.1025 -0.2197
32888SOL     OW 5268   0.177  10.864  10.905  0.4113 -0.1222  0.2247
32888SOL    HW1 5269   0.143  10.778  10.883 -0.3812  0.2840 -0.1977
32888SOL    HW2 5270   0.202  10.902  10.820  1.7595 -0.3354  0.5015
32889SOL     OW 5271   7.758   7.797   6.068  0.0381  0.1292 -0.3340
32889SOL    HW1 5272   7.802   7.880   6.088 -0.4086  0.5007 -0.8199
32889SOL    HW2 5273   7.744   7.756   6.153 -0.3224  0.8661 -0.0219
32890SOL     OW 5274   7.539   1.302   8.180  0.6159  0.2719 -0.6352
32890SOL    HW1 5275   7.587   1.251   8.115  0.6627  1.8261 -1.8810
32890SOL    HW2 5276   7.448   1.277   8.168  0.7468 -0.3069 -0.4755
32891SOL     OW 5277   9.670  11.490   5.323 -0.2801 -0.3667  0.0181
32891SOL    HW1 5278   9.623  11.469   5.242 -0.8403 -0.8081  0.4529
32891SOL    HW2 5279   9.624  11.442   5.391  0.5902 -0.5204  0.5140
32892SOL     OW 5280   0.804   9.271   8.944 -0.9339 -0.1988 -0.2463
32892SOL    HW1 5281   0.813   9.176   8.955  1.9122 -0.1007 -0.9738
32892SOL    HW2 5282   0.737   9.282   8.876 -1.1678 -1.6748 -0.2833
32893SOL     OW 5283   4.840   6.393   9.060  0.0892  0.5032 -0.2713
32893SOL    HW1 5284   4.764   6.360   9.108  0.2856 -1.8009 -1.3841
32893SOL    HW2 5285   4.803   6.454   8.996 -0.7371  0.0769 -0.2215
32894SOL     OW 5286   7.826  10.153  11.852  0.2274 -0.0741  0.8522
32894SOL    HW1 5287   7.782  10.130  11.769  3.1844 -0.9099 -0.6243
32894SOL    HW2 5288   7.808  10.246  11.863 -0.9357 -0.1260 -0.2793
32895SOL     OW 5289   3.305   1.927   4.878  0.1565 -0.1610 -0.1433
32895SOL    HW1 5290   3.300   2.005   4.823  0.6867  0.6040  0.8465
32895SOL    HW2 5291   3.230   1.874   4.852  1.4345 -0.7788 -2.9559
32896SOL     OW 5292   2.159   1.638   1.801  0.0600 -0.1010 -0.2000
32896SOL    HW1 5293   2.139   1.600   1.887  1.1617 -1.0226 -0.3252
32896SOL    HW2 5294   2.074   1.656   1.762 -0.4532  0.4823  1.1463
32897SOL     OW 5295   8.633  12.501   5.497  0.1310 -0.1315 -0.0659
32897SOL    HW1 5296   8.697  12.436   5.468 -0.2826 -2.9714  4.5015
32897SOL    HW2 5297   8.548  12.460   5.480 -0.2441  0.5307  0.1892
32898SOL     OW 5298   1.079   3.536   9.067  0.1545 -0.2274 -0.1391
32898SOL    HW1 5299   1.046   3.578   9.147 -2.5652 -1.0950 -0.7128
32898SOL    HW2 5300   1.068   3.442   9.083  1.5950 -0.5154 -0.7325
32899SOL     OW 5301   7.578   7.196   2.836  0.1790 -0.1417 -0.0566
32899SOL    HW1 5302   7.532   7.272   2.799 -0.0306  0.5140  1.4876
32899SOL    HW2 5303   7.510   7.145   2.879  0.8811  1.2805  3.0109
32900SOL     OW 5304   4.218   2.936   7.912 -0.4336 -0.3191  0.0058
32900SOL    HW1 5305   4.297   2.887   7.933  1.2797  1.7238 -1.3316
32900SOL    HW2 5306   4.181   2.960   7.997  0.6827 -0.8353  0.6549
32901SOL     OW 5307   3.528  12.188  10.791 -0.3368  0.3041  0.7037
32901SOL    HW1 5308   3.473  12.201  10.868 -1.2147  0.4796  0.0551
32901SOL    HW2 5309   3.611  12.230  10.814 -1.9001  4.1828  0.0126
32902SOL     OW 5310   1.906   2.154   7.117 -0.1852  0.2208  0.1239
32902SOL    HW1 5311   1.875   2.214   7.049 -1.8503 -0.1457  0.5306
32902SOL    HW2 5312   1.980   2.109   7.076 -1.0569  0.1178 -1.4022
32903SOL     OW 5313   5.807   8.470   4.654  0.3188  0.0057  0.3036
32903SOL    HW1 5314   5.834   8.560   4.672  1.2138 -0.1680 -0.1454
32903SOL    HW2 5315   5.711   8.474   4.649  0.2030  0.5832  2.2168
32904SOL     OW 5316   9.119   1.256  10.978 -0.0441 -0.0148 -0.1471
32904SOL    HW1 5317   9.151   1.319  10.914 -0.2396 -1.2607 -1.4965
32904SOL    HW2 5318   9.152   1.172  10.949  0.4147 -0.5558  1.7655
32905SOL     OW 5319  11.053   6.288   9.045 -0.2774  0.3997 -0.0367
32905SOL    HW1 5320  11.071   6.347   9.118 -0.0275 -0.8477  0.9612
32905SOL    HW2 5321  11.053   6.201   9.085 -1.1659 -0.2365 -1.3546
32906SOL     OW 5322   5.346   7.848   7.587  0.4266 -0.4015  0.3669
32906SOL    HW1 5323   5.272   7.862   7.647  0.0610 -0.7820  0.0088
32906SOL    HW2 5324   5.392   7.932   7.587  0.4918 -0.4225  1.2614
32907SOL     OW 5325   4.234   7.815   5.444 -0.2778 -0.1790  0.3522
32907SOL    HW1 5326   4.260   7.900   5.481 -2.2068  1.2097 -1.2858
32907SOL    HW2 5327   4.216   7.833   5.352 -1.4203 -2.2222  0.1082
32908SOL     OW 5328   9.037   9.294   3.386 -0.3426  0.4009  0.3895
32908SOL    HW1 5329   9.011   9.206   3.359 -0.1845  0.3376  0.4425
32908SOL    HW2 5330   8.990   9.353   3.328 -1.7514  0.3323  1.4071
32909SOL     OW 5331   2.964   0.609   9.004 -0.4947  0.4358  0.3686
32909SOL    HW1 5332   2.926   0.530   9.044 -0.4411  0.2129 -0.0089
32909SOL    HW2 5333   2.992   0.580   8.917 -1.4885  1.1406 -0.2117
32910SOL     OW 5334   2.423   4.378  10.326 -0.1146  0.1103 -1.1369
32910SOL    HW1 5335   2.353   4.325  10.287 -2.6379  3.1026 -1.1053
32910SOL    HW2 5336   2.474   4.316  10.378 -2.5548 -2.3328 -1.3999
32911SOL     OW 5337   7.811   3.225  12.635 -0.1964  0.5105  0.5192
32911SOL    HW1 5338   7.878   3.206  12.569  0.7896  0.1293  1.5957
32911SOL    HW2 5339   7.790   3.141  12.673 -2.2484  0.4322 -0.6241
32912SOL     OW 5340   7.206   9.534  11.120 -0.5833  0.3954  0.5479
32912SOL    HW1 5341   7.170   9.530  11.208 -0.2970 -0.3879  0.6452
32912SOL    HW2 5342   7.292   9.491  11.127 -0.5417  0.3548 -0.0989
32913SOL     OW 5343   2.776  12.672   3.731 -0.1189 -0.3634 -0.0349
32913SOL    HW1 5344   2.841  12.739   3.710 -0.0357  0.8087  3.2853
32913SOL    HW2 5345   2.826  12.604   3.776 -0.6709 -1.2471 -0.7296
32914SOL     OW 5346  12.138  10.933   1.534 -0.7729 -0.0054  0.3049
32914SOL    HW1 5347  12.198  10.859   1.522 -0.6775 -0.0265  0.8925
32914SOL    HW2 5348  12.057  10.893   1.564 -1.7095 -0.1811 -2.2078
32915SOL     OW 5349   5.759   2.378  12.729 -0.1236 -0.4089 -0.2231
32915SOL    HW1 5350   5.812   2.353  12.805 -0.4161  1.6589  0.7318
32915SOL    HW2 5351   5.676   2.408  12.766 -1.5404 -2.3528 -1.6110
32916SOL     OW 5352   3.003   2.294   3.925 -0.3216 -0.2347  0.0266
32916SOL    HW1 5353   3.055   2.223   3.962  0.7352 -0.1478 -1.2094
32916SOL    HW2 5354   3.064   2.341   3.868 -1.4816  0.5150 -0.6410
32917SOL     OW 5355   0.527   3.258   1.152 -0.3488  0.3709  0.5187
32917SOL    HW1 5356   0.549   3.221   1.237 -0.1579  1.6898  1.0703
32917SOL    HW2 5357   0.503   3.183   1.098 -0.1683 -0.5131  1.6415
32918SOL     OW 5358   1.488   3.186  12.420 -0.0778 -0.3527 -0.1362
32918SOL    HW1 5359   1.402   3.183  12.377  0.1481 -0.6184 -0.5725
32918SOL    HW2 5360   1.549   3.212  12.351  0.1544  0.1293  0.2412
32919SOL     OW 5361   1.754   8.385  10.993 -0.3060  0.1995  0.4629
32919SOL    HW1 5362   1.842   8.378  11.030 -0.1547  0.7557  0.2141
32919SOL    HW2 5363   1.767   8.384  10.898 -0.5648  0.3095  0.4239
32920SOL     OW 5364   9.058  12.180   5.597 -0.0894 -0.0782  0.0138
32920SOL    HW1 5365   9.137  12.230   5.576 -0.2292 -0.0871 -0.5381
32920SOL    HW2 5366   9.085  12.122   5.669 -0.5384  2.4123  2.3458
32921SOL     OW 5367   1.700   8.948  11.742  0.1376  0.1130  1.3360
32921SOL    HW1 5368   1.707   8.929  11.649  2.0395  2.4198  0.8986
32921SOL    HW2 5369   1.681   8.863  11.783 -2.5103 -0.6733 -1.2393
32922SOL     OW 5370   6.146   8.642   5.770  0.0069  0.2423 -0.2309
32922SOL    HW1 5371   6.193   8.559   5.775 -0.6547 -0.1021  0.4458
32922SOL    HW2 5372   6.092   8.633   5.691  0.1216  0.1203 -0.2967
32923SOL     OW 5373   5.428  11.885   1.446  0.1214  0.2689 -0.3469
32923SOL    HW1 5374   5.427  11.942   1.369  2.2218 -0.3718 -0.9250
32923SOL    HW2 5375   5.506  11.914   1.495 -1.0510  0.5137  1.4438
32924SOL     OW 5376   2.750   2.679   3.716  0.2911  0.4870  0.3761
32924SOL    HW1 5377   2.831   2.670   3.664  0.5704  1.6173  0.5968
32924SOL    HW2 5378   2.742   2.595   3.761  0.1901 -0.4297 -1.2561
32925SOL     OW 5379  11.435   3.692   2.057  0.3872  0.0408  0.4089
32925SOL    HW1 5380  11.453   3.642   2.136 -1.7772 -0.5997  0.5711
32925SOL    HW2 5381  11.500   3.762   2.057  1.6250 -1.0496  1.7322
32926SOL     OW 5382   2.681   8.359   5.921 -0.5234  0.4289  0.0844
32926SOL    HW1 5383   2.653   8.268   5.930  1.2672  0.0611  3.2088
32926SOL    HW2 5384   2.625   8.407   5.982  0.2344  0.9896  0.3506
32927SOL     OW 5385   4.531   0.879  12.247  0.4105 -0.4462 -0.1322
32927SOL    HW1 5386   4.446   0.922  12.253  1.4519  1.6210  0.6418
32927SOL    HW2 5387   4.589   0.946  12.213  2.1031 -1.2775  1.0013
32928SOL     OW 5388   7.439  10.743  10.846 -0.2976 -0.0631  0.3771
32928SOL    HW1 5389   7.474  10.832  10.852 -1.1736  0.5657 -2.3106
32928SOL    HW2 5390   7.514  10.689  10.823  0.1892 -0.0356  1.7731
32929SOL     OW 5391   0.985   6.913   2.499  0.4716 -0.1458 -0.1885
32929SOL    HW1 5392   0.899   6.935   2.535  0.3219 -2.6304  1.2138
32929SOL    HW2 5393   1.045   6.924   2.573  1.3290  1.0213 -1.0091
32930SOL     OW 5394   4.381   0.046   5.612 -0.7796  0.3068 -0.4113
32930SOL    HW1 5395   4.455  -0.015   5.609 -0.9375  0.1509 -1.3571
32930SOL    HW2 5396   4.367   0.071   5.521 -2.4097 -0.3010 -0.3651
32931SOL     OW 5397   0.603   7.256   7.476 -0.5636 -0.2277  0.2502
32931SOL    HW1 5398   0.544   7.307   7.420  0.8807  0.9994 -0.2309
32931SOL    HW2 5399   0.618   7.312   7.552 -1.0819 -1.1227  1.0333
32932SOL     OW 5400   3.096   2.323  10.267 -0.2260 -0.1994 -0.2657
32932SOL    HW1 5401   3.118   2.324  10.360  0.0315  1.8840 -0.2805
32932SOL    HW2 5402   3.001   2.326  10.264 -0.2818 -1.5086 -0.0994
32933SOL     OW 5403   2.416  10.928   5.535 -0.1230 -0.4879 -0.1155
32933SOL    HW1 5404   2.506  10.916   5.503  0.3942  1.0720  0.5927
32933SOL    HW2 5405   2.362  10.872   5.480  1.2083 -0.9184 -1.0306
32934SOL     OW 5406  11.699   3.063   2.403  0.5475 -0.2885 -0.6440
32934SOL    HW1 5407  11.770   3.003   2.424  0.3091 -0.0364  1.0441
32934SOL    HW2 5408  11.738   3.128   2.346  1.5224 -0.4954 -0.2297
32935SOL     OW 5409   4.017   6.302   8.997  0.4668  0.5773  0.8007
32935SOL    HW1 5410   3.974   6.306   8.911  0.7761 -1.8678  0.4697
32935SOL    HW2 5411   4.077   6.228   8.990  2.2668  1.8159  2.3793
32936SOL     OW 5412   9.175   4.239   6.499 -0.2330  0.6516 -0.2108
32936SOL    HW1 5413   9.165   4.322   6.451 -2.4102  0.6675  0.1619
32936SOL    HW2 5414   9.098   4.188   6.474 -1.1110  0.4036  2.6993
32937SOL     OW 5415  12.728   4.617   1.715 -0.3788  0.6126 -0.2892
32937SOL    HW1 5416  12.766   4.552   1.655  1.6638  1.6613 -0.2333
32937SOL    HW2 5417  12.685   4.680   1.657 -1.5509 -0.2505 -0.3955
32938SOL     OW 5418  11.511   9.434   3.024  0.1310 -0.9510 -0.1905
32938SOL    HW1 5419  11.587   9.450   2.967  0.5467 -0.1608  0.5529
32938SOL    HW2 5420  11.549   9.427   3.112 -0.7700  0.8786  0.3851
32939SOL     OW 5421   4.355  12.183   3.493 -0.3630  0.0565  0.1540
32939SOL    HW1 5422   4.389  12.234   3.420 -0.1774 -0.3848 -0.0686
32939SOL    HW2 5423   4.430  12.169   3.551 -0.9020  2.0948  1.4481
32940SOL     OW 5424   0.149   4.984   5.082 -0.6278 -0.3510 -0.2538
32940SOL    HW1 5425   0.111   5.062   5.123 -0.4101 -0.6068  0.4478
32940SOL    HW2 5426   0.232   5.014   5.045 -0.8223 -0.1189 -0.5051
32941SOL     OW 5427   6.254   1.602   9.512 -0.2735 -0.2300  0.1774
32941SOL    HW1 5428   6.334   1.609   9.459  0.2107  0.4153  0.9550
32941SOL    HW2 5429   6.195   1.668   9.475  0.4834  1.0227  1.0987
32942SOL     OW 5430   7.230   1.284   8.464  0.4090 -0.0319 -0.3382
32942SOL    HW1 5431   7.188   1.368   8.483  1.1313  0.3484 -0.3889
32942SOL    HW2 5432   7.173   1.243   8.400 -1.1705 -0.5868  1.3271
32943SOL     OW 5433   0.726   1.760   7.474  0.6844 -0.0570 -0.0371
32943SOL    HW1 5434   0.755   1.837   7.425  1.7506  0.2598  1.0714
32943SOL    HW2 5435   0.763   1.771   7.561  2.1293 -2.5432 -0.2490
32944SOL     OW 5436  12.641  10.340   9.807  0.2622 -0.4807 -0.1274
32944SOL    HW1 5437  12.607  10.294   9.731 -2.0250 -0.0558  0.5750
32944SOL    HW2 5438  12.598  10.425   9.806  0.5590 -0.2779  1.3714
32945SOL     OW 5439   1.234   4.285   1.688 -0.1738 -0.1195 -0.1708
32945SOL    HW1 5440   1.292   4.334   1.630  1.2733 -1.1185  0.3934
32945SOL    HW2 5441   1.230   4.337   1.768 -1.9075  1.0904 -0.9659
32946SOL     OW 5442   2.535   2.086   1.856  0.3841 -0.4737 -0.0943
32946SOL    HW1 5443   2.555   2.167   1.810  0.4183 -0.5252 -0.1713
32946SOL    HW2 5444   2.615   2.034   1.851  0.8833  0.1205  1.3214
32947SOL     OW 5445   8.389   4.914  12.111 -0.4658  0.2952  0.1208
32947SOL    HW1 5446   8.399   4.827  12.071  0.1948  0.9862 -1.2774
32947SOL    HW2 5447   8.298   4.916  12.141 -0.3560 -1.0517  0.6255
32948SOL     OW 5448   1.297   8.477   2.205 -0.2832 -0.6903  0.4552
32948SOL    HW1 5449   1.349   8.481   2.125  0.1268 -0.7747  0.7156
32948SOL    HW2 5450   1.332   8.402   2.253 -1.6740 -1.7297 -0.0766
32949SOL     OW 5451  10.213   0.887   6.119  0.3529 -0.0618  0.1182
32949SOL    HW1 5452  10.231   0.824   6.050 -2.1504  0.4683 -1.1640
32949SOL    HW2 5453  10.151   0.843   6.177  0.8437  0.2141  0.8611
32950SOL     OW 5454   4.432   3.844   5.143  0.0785  0.6950  0.4104
32950SOL    HW1 5455   4.504   3.903   5.120  1.2904 -0.7396  0.3626
32950SOL    HW2 5456   4.366   3.859   5.075  0.6065  1.5880  0.0783
32951SOL     OW 5457   3.854   9.664   9.603 -0.8407  0.0018  0.5807
32951SOL    HW1 5458   3.794   9.600   9.643 -0.7463  0.5684  1.6559
32951SOL    HW2 5459   3.808   9.747   9.610 -0.5542  0.2082  0.0482
32952SOL     OW 5460  12.453  11.542   7.001 -0.6498 -0.3457  0.2979
32952SOL    HW1 5461  12.380  11.603   7.012 -1.4973 -0.6943 -2.5693
32952SOL    HW2 5462  12.517  11.590   6.948  0.7908 -0.4407  1.8459
32953SOL     OW 5463   5.775  10.681   0.144  0.3159 -0.2804  0.5671
32953SOL    HW1 5464   5.737  10.594   0.136 -1.6871  0.3873  2.0633
32953SOL    HW2 5465   5.809  10.685   0.233  2.2781 -0.1906 -0.1347
32954SOL     OW 5466   6.996   8.692  10.555 -0.6238  0.8852  0.4644
32954SOL    HW1 5467   7.046   8.679  10.636  0.5359  0.5002 -0.2864
32954SOL    HW2 5468   7.035   8.770  10.515 -0.8287  0.7592  0.0170
32955SOL     OW 5469   4.847   0.021  11.117 -0.2405  0.1614 -0.7356
32955SOL    HW1 5470   4.776   0.077  11.085 -1.7656 -0.2272  1.7140
32955SOL    HW2 5471   4.822  -0.000  11.207  2.3183 -1.1606 -0.2475
32956SOL     OW 5472   7.919   1.608   5.569  0.1421 -0.0501  0.5992
32956SOL    HW1 5473   7.969   1.527   5.569 -0.9936 -0.8753 -2.0269
32956SOL    HW2 5474   7.867   1.605   5.648  0.9684 -1.3130  1.1210
32957SOL     OW 5475   2.747   4.859   1.981 -0.2531  0.0739  0.2983
32957SOL    HW1 5476   2.677   4.823   1.926 -1.3652  0.3369  1.4977
32957SOL    HW2 5477   2.776   4.938   1.935 -0.5813 -0.1613 -0.3176
32958SOL     OW 5478   9.603   3.926   6.559  0.2948  0.3652  0.0322
32958SOL    HW1 5479   9.583   4.014   6.526 -1.1752  0.1976  0.4054
32958SOL    HW2 5480   9.559   3.867   6.499  0.8413 -0.1018  0.0881
32959SOL     OW 5481   1.119  11.057  12.264 -0.1920 -0.3885  0.8717
32959SOL    HW1 5482   1.167  11.138  12.249  1.4803 -1.0299  2.3519
32959SOL    HW2 5483   1.140  11.002  12.188 -3.0320  1.1932 -1.2354
32960SOL     OW 5484  12.595   1.296   8.206  0.5785  0.6595  0.3132
32960SOL    HW1 5485  12.609   1.386   8.175 -0.8743  0.8098  0.0338
32960SOL    HW2 5486  12.501   1.290   8.222  0.0446 -1.7321 -2.7351
32961SOL     OW 5487   8.567  12.783  10.575 -0.6122 -0.3888 -0.2136
32961SOL    HW1 5488   8.651  12.817  10.543 -0.1755 -2.0917 -0.9851
32961SOL    HW2 5489   8.570  12.797  10.670  0.2757  0.1209 -0.3025
32962SOL     OW 5490   0.070   1.221   7.371 -0.1579 -0.0664 -0.4828
32962SOL    HW1 5491   0.065   1.184   7.282  0.3800 -1.8882  0.1944
32962SOL    HW2 5492   0.149   1.274   7.369  0.1937 -0.5830 -0.9484
32963SOL     OW 5493   7.326   5.135   3.804  0.4978 -0.5823 -0.9943
32963SOL    HW1 5494   7.320   5.040   3.789  1.0592 -0.9970  1.0947
32963SOL    HW2 5495   7.240   5.168   3.778  0.3518 -1.6092 -1.9367
32964SOL     OW 5496   6.832   7.179   1.326 -0.9225 -0.1895 -0.6648
32964SOL    HW1 5497   6.816   7.167   1.232  0.4788 -0.9836 -0.8240
32964SOL    HW2 5498   6.786   7.260   1.348  0.1625  0.9729 -2.4241
32965SOL     OW 5499   5.661  12.009  10.720  0.0355  0.2659 -0.2362
32965SOL    HW1 5500   5.741  11.962  10.697 -0.6208 -0.8652 -0.2871
32965SOL    HW2 5501   5.683  12.102  10.709  1.5017  0.0010  0.3114
32966SOL     OW 5502   7.372  12.778   1.524 -0.0946  0.1537  0.1252
32966SOL    HW1 5503   7.313  12.853   1.529 -1.6789 -0.8131 -2.3605
32966SOL    HW2 5504   7.319  12.707   1.489  2.0348 -1.3529 -0.2807
32967SOL     OW 5505   6.853   9.484   3.599 -0.2366  0.2797 -0.4344
32967SOL    HW1 5506   6.830   9.396   3.569  0.5483 -0.0654 -0.0480
32967SOL    HW2 5507   6.910   9.519   3.531  0.2351  0.1160 -0.1256
32968SOL     OW 5508   7.573   0.646  11.958  0.1841  0.4190 -0.4323
32968SOL    HW1 5509   7.498   0.693  11.994  0.9906  0.4953  1.2646
32968SOL    HW2 5510   7.558   0.554  11.979  0.1944  0.3321 -0.7921
32969SOL     OW 5511   4.699   5.414   1.214  0.0250  0.6308  0.4148
32969SOL    HW1 5512   4.748   5.408   1.132  0.5319 -1.2137  0.8249
32969SOL    HW2 5513   4.754   5.468   1.271  0.4607  0.5252  0.0973
32970SOL     OW 5514  10.359   5.966  10.989 -0.0087 -0.3095 -0.0715
32970SOL    HW1 5515  10.382   5.875  11.011 -0.5012 -0.5533 -0.5293
32970SOL    HW2 5516  10.268   5.975  11.019  0.2381  0.2282  0.5346
32971SOL     OW 5517   4.864  12.566   2.724  0.0012 -0.5367  0.4643
32971SOL    HW1 5518   4.924  12.503   2.764 -0.6781 -0.9945  0.7659
32971SOL    HW2 5519   4.871  12.550   2.630  1.3372  0.3059  0.3827
32972SOL     OW 5520  11.454   4.040   3.636 -0.7155 -0.1761  0.1807
32972SOL    HW1 5521  11.392   4.113   3.636 -0.7053 -0.0471 -2.5360
32972SOL    HW2 5522  11.401   3.963   3.656 -1.0470  0.3410  1.3714
32973SOL     OW 5523   0.524   2.816  10.737 -0.4587 -0.0570  0.0823
32973SOL    HW1 5524   0.509   2.815  10.643 -1.6092  1.7373  0.2087
32973SOL    HW2 5525   0.541   2.724  10.759 -2.8992 -0.9728 -1.4431
32974SOL     OW 5526  10.760   7.803   3.704  0.4383 -0.5123  0.2459
32974SOL    HW1 5527  10.677   7.851   3.693  0.1818 -1.1510 -0.8276
32974SOL    HW2 5528  10.734   7.720   3.744  0.5554 -0.6740 -0.0073
32975SOL     OW 5529   8.606   2.660  10.909  0.2994  0.3976  0.3333
32975SOL    HW1 5530   8.598   2.752  10.885  0.3287  0.2948 -0.0724
32975SOL    HW2 5531   8.554   2.652  10.989 -2.2782  0.1409 -1.2669
32976SOL     OW 5532   0.529   1.528  10.837 -0.3522 -0.3385  0.1687
32976SOL    HW1 5533   0.453   1.567  10.880 -0.8008 -1.7713  0.7412
32976SOL    HW2 5534   0.495   1.498  10.752 -0.6088 -1.5342  0.6751
32977SOL     OW 5535   5.571   8.984   2.453  0.7152 -0.3189 -0.1688
32977SOL    HW1 5536   5.540   8.911   2.507  2.3795  0.0246  1.3548
32977SOL    HW2 5537   5.502   9.050   2.459  0.3175 -0.7864  0.5096
32978SOL     OW 5538   0.272   3.800   9.366 -0.2024  0.4222 -0.4395
32978SOL    HW1 5539   0.284   3.737   9.295  2.8538  0.2076  0.1078
32978SOL    HW2 5540   0.319   3.879   9.337 -1.3397  1.3702  0.1831
32979SOL     OW 5541   5.893  11.341   9.376  0.0402 -0.1104 -0.6592
32979SOL    HW1 5542   5.943  11.286   9.437 -0.5819  0.3779  0.2971
32979SOL    HW2 5543   5.818  11.372   9.426  0.3055  1.5211 -1.2135
32980SOL     OW 5544   8.451   2.106   7.406 -0.1238 -0.1500  0.2356
32980SOL    HW1 5545   8.396   2.040   7.446  0.3388  0.4425  1.9383
32980SOL    HW2 5546   8.448   2.180   7.467  1.9566  0.1591  0.0389
32981SOL     OW 5547   1.449   6.169   1.213 -0.1660 -0.3324  0.1971
32981SOL    HW1 5548   1.436   6.080   1.178 -0.3850 -0.6532  1.0586
32981SOL    HW2 5549   1.360   6.204   1.222 -0.0867 -0.0771 -0.0194
32982SOL     OW 5550  10.458   5.530  11.501 -0.3837 -0.6562  0.5531
32982SOL    HW1 5551  10.540   5.580  11.508 -1.1836  0.6953  0.7365
32982SOL    HW2 5552  10.390   5.594  11.523 -1.8175 -0.6944 -3.0499
32983SOL     OW 5553   8.119   4.798   6.039  0.1887 -0.0486  0.5798
32983SOL    HW1 5554   8.034   4.772   6.074 -0.2566 -0.5811 -0.7991
32983SOL    HW2 5555   8.145   4.724   5.983  0.1426  1.3030 -1.3464
32984SOL     OW 5556   9.634   7.510   5.841  0.4355  0.0575 -0.1078
32984SOL    HW1 5557   9.695   7.565   5.890  0.5034 -0.7993  0.7857
32984SOL    HW2 5558   9.555   7.564   5.834  0.5215  0.3041  0.7037
32985SOL     OW 5559  11.660   6.746   6.682 -0.1937 -0.5426  0.5956
32985SOL    HW1 5560  11.712   6.818   6.647  1.7623 -2.1160  0.0675
32985SOL    HW2 5561  11.701   6.724   6.766 -1.3235 -0.4916  1.1875
32986SOL     OW 5562   1.437   3.746   3.094 -0.0243  0.1969  0.0769
32986SOL    HW1 5563   1.361   3.688   3.098 -0.0295  0.2454  0.6733
32986SOL    HW2 5564   1.503   3.696   3.046 -0.7901  0.5689 -1.4483
32987SOL     OW 5565   3.253   9.349   7.770 -0.1993  0.2580 -0.0982
32987SOL    HW1 5566   3.274   9.274   7.714  0.3475  0.2770  0.0750
32987SOL    HW2 5567   3.299   9.331   7.852  0.3203  1.0132 -0.2184
32988SOL     OW 5568   7.331   4.275   8.102  0.5823 -0.0887 -0.3715
32988SOL    HW1 5569   7.354   4.297   8.192 -0.9170  0.5839 -0.1118
32988SOL    HW2 5570   7.367   4.346   8.049  0.8164 -0.0907 -0.2106
32989SOL     OW 5571   2.581   6.864   3.387 -0.2839 -0.2905  0.5816
32989SOL    HW1 5572   2.624   6.780   3.372  1.1080  0.5820 -0.5657
32989SOL    HW2 5573   2.487   6.845   3.380 -0.3079 -2.4553  4.1801
32990SOL     OW 5574  11.650   2.411   4.301 -0.7733 -0.1345 -0.1273
32990SOL    HW1 5575  11.694   2.364   4.230 -3.3549 -1.9490 -0.6340
32990SOL    HW2 5576  11.669   2.360   4.379  2.2468  1.9776  0.7248
32991SOL     OW 5577   9.389   5.848  10.937 -0.5191 -0.3919 -0.7095
32991SOL    HW1 5578   9.417   5.869  11.027 -3.2228 -0.3410  0.2223
32991SOL    HW2 5579   9.405   5.928  10.888  0.0026 -0.0582 -0.0170
32992SOL     OW 5580  11.049   6.792   0.773 -0.2540  0.1404  0.2758
32992SOL    HW1 5581  10.997   6.745   0.707  1.0017 -0.7037 -0.1355
32992SOL    HW2 5582  10.991   6.796   0.850 -1.1937 -0.1474 -0.3913
32993SOL     OW 5583   9.065  11.550   9.154 -0.6565  0.1528 -0.7552
32993SOL    HW1 5584   9.106  11.628   9.117 -0.0608  0.5970  0.7721
32993SOL    HW2 5585   9.086  11.480   9.093  1.2902  0.6207 -0.6772
32994SOL     OW 5586   2.888   2.619  10.351  0.3242  0.1618  0.3102
32994SOL    HW1 5587   2.956   2.610  10.418  0.1716  1.5640  0.6754
32994SOL    HW2 5588   2.829   2.686  10.385  0.0696  0.6843 -1.0746
32995SOL     OW 5589   6.001   3.995  10.385 -0.9703  0.0793  0.3386
32995SOL    HW1 5590   6.069   4.052  10.422 -0.3777 -0.9412  0.8538
32995SOL    HW2 5591   6.001   4.017  10.291  0.3003 -0.1008  0.2649
32996SOL     OW 5592  11.060   3.443  10.408  0.1849 -0.6820  0.3234
32996SOL    HW1 5593  11.144   3.489  10.408 -0.2408  0.2916  3.1792
32996SOL    HW2 5594  11.031   3.447  10.317  2.5403  0.2020 -0.4745
32997SOL     OW 5595  11.248  11.705   3.463  0.0017 -0.2380 -0.9843
32997SOL    HW1 5596  11.156  11.688   3.481  0.4052 -0.8415  0.7296
32997SOL    HW2 5597  11.286  11.618   3.448  1.0280 -0.5581  2.4734
32998SOL     OW 5598   3.815  12.268   4.187 -0.4190 -0.0486 -0.0910
32998SOL    HW1 5599   3.816  12.351   4.139 -0.9234  0.0503  0.0609
32998SOL    HW2 5600   3.762  12.286   4.265  0.9556 -0.0116  0.8643
32999SOL     OW 5601   2.283   4.114  12.149 -0.0164 -0.4282 -0.1097
32999SOL    HW1 5602   2.374   4.120  12.179 -0.5086  0.1256  1.3306
32999SOL    HW2 5603   2.279   4.173  12.073  0.1038  2.1670  1.7475
33000SOL     OW 5604  12.726   3.231   9.043 -0.1852  0.0153  0.3595
33000SOL    HW1 5605  12.755   3.311   9.087 -1.2691  1.1802 -0.9083
33000SOL    HW2 5606  12.729   3.163   9.110  2.3831  0.7134  1.0566
33001SOL     OW 5607   5.928  11.295   5.825 -0.4662  0.4273  0.4044
33001SOL    HW1 5608   5.988  11.222   5.811 -0.0413  0.6406  1.0562
33001SOL    HW2 5609   5.956  11.361   5.760 -0.3633  0.3033  0.3220
33002SOL     OW 5610   2.097   5.131   7.422  0.3130 -0.3530 -0.3268
33002SOL    HW1 5611   2.148   5.084   7.356 -0.3238  0.4213 -1.4087
33002SOL    HW2 5612   2.138   5.218   7.426 -0.7950  0.2332 -1.1091
33003SOL     OW 5613   7.714   7.400   2.599  0.2459 -0.1809  0.0114
33003SOL    HW1 5614   7.629   7.415   2.642  0.2101  1.1766 -0.4833
33003SOL    HW2 5615   7.696   7.413   2.506  0.7558 -1.1269 -0.2338
33004SOL     OW 5616   2.665   1.986  12.556 -0.5816 -0.5316 -0.2809
33004SOL    HW1 5617   2.639   1.958  12.468 -3.3945  0.2434  0.2220
33004SOL    HW2 5618   2.691   1.906  12.600 -0.5684 -1.1388 -1.3452
33005SOL     OW 5619   1.661  10.044   7.312 -0.3993 -0.0896  0.3987
33005SOL    HW1 5620   1.677  10.040   7.406 -0.5728 -0.8305  0.4038
33005SOL    HW2 5621   1.745  10.023   7.272  0.0866  1.7890  0.3565
33006SOL     OW 5622  12.678   5.892   2.469  0.5304  0.4146 -0.2890
33006SOL    HW1 5623  12.733   5.894   2.391  0.5023  0.4828 -0.3070
33006SOL    HW2 5624  12.659   5.799   2.483 -0.3055  0.4751 -0.9458
33007SOL     OW 5625   2.468   3.452   7.712  0.3728 -0.1327 -0.4687
33007SOL    HW1 5626   2.515   3.501   7.645  0.6671 -1.7026 -1.4789
33007SOL    HW2 5627   2.536   3.404   7.758  0.1065  0.4737  0.5824
33008SOL     OW 5628   8.274  10.139   7.654 -0.6571  0.0654  0.0018
33008SOL    HW1 5629   8.296  10.229   7.675  0.9056 -0.3309  0.1972
33008SOL    HW2 5630   8.357  10.091   7.662 -1.4034 -1.3481 -0.2959
33009SOL     OW 5631   5.931   3.706   4.098 -0.2840  0.0980  0.1355
33009SOL    HW1 5632   5.934   3.693   4.192 -0.5731 -0.9957  0.0098
33009SOL    HW2 5633   5.972   3.628   4.062 -0.6496  0.2595 -0.6572
33010SOL     OW 5634  11.860   8.021  10.245  0.2260  0.4718 -0.3541
33010SOL    HW1 5635  11.838   8.038  10.153  1.4637  1.2512 -0.5208
33010SOL    HW2 5636  11.871   7.926  10.250  1.8916  0.5665 -1.4426
33011SOL     OW 5637  10.315   6.548   5.967  0.6600  0.3135 -0.0357
33011SOL    HW1 5638  10.363   6.512   5.893  2.4631  1.3118  0.5776
33011SOL    HW2 5639  10.361   6.515   6.044 -0.6052  0.0457  0.6273
33012SOL     OW 5640   2.299   8.568   9.246  0.7746  0.0681 -0.1132
33012SOL    HW1 5641   2.223   8.511   9.249  1.1210 -0.3739  1.8425
33012SOL    HW2 5642   2.301   8.610   9.332  1.5637  1.6857 -0.8614
33013SOL     OW 5643   5.069  11.296   0.948 -0.2722 -0.3966  0.1192
33013SOL    HW1 5644   4.975  11.304   0.961 -0.5743 -2.9723  0.0077
33013SOL    HW2 5645   5.078  11.260   0.859  0.8096 -0.3145  0.1768
33014SOL     OW 5646   6.689   3.027   1.135  0.0893  0.2073 -0.3781
33014SOL    HW1 5647   6.676   3.110   1.090 -0.4563  0.6869  0.6238
33014SOL    HW2 5648   6.654   3.042   1.223 -1.6242 -1.5868 -0.6745
33015SOL     OW 5649   2.404  10.644   3.622  0.1674  0.0913 -0.1668
33015SOL    HW1 5650   2.458  10.594   3.561 -1.0671 -0.2023 -1.0552
33015SOL    HW2 5651   2.322  10.658   3.575 -1.0176 -0.5698  1.6135
33016SOL     OW 5652   8.148   7.823   2.727 -0.2240  0.5081  0.0422
33016SOL    HW1 5653   8.171   7.788   2.641  0.0532 -0.3591  0.4594
33016SOL    HW2 5654   8.056   7.800   2.739 -0.9235  2.5187 -0.9143
33017SOL     OW 5655   2.079  11.198  12.163  0.1904  0.2293  0.1553
33017SOL    HW1 5656   2.154  11.194  12.222 -0.2640  2.2135  0.9343
33017SOL    HW2 5657   2.105  11.261  12.095 -1.5765  2.9084  1.7856
33018SOL     OW 5658  10.716   2.278   3.281 -0.3652  0.1383  0.0957
33018SOL    HW1 5659  10.806   2.261   3.254 -0.5859 -0.6051 -0.2141
33018SOL    HW2 5660  10.669   2.291   3.199 -0.5102  0.7122  0.2653
33019SOL     OW 5661   7.651   5.975   1.218  0.6185  0.0469 -0.2447
33019SOL    HW1 5662   7.702   6.009   1.291 -0.9671 -0.5875  1.2020
33019SOL    HW2 5663   7.657   5.880   1.226  0.9603 -0.0433 -1.3504
33020SOL     OW 5664  12.586   0.792   9.863  0.6135  0.0149  0.3370
33020SOL    HW1 5665  12.652   0.829   9.920 -0.7829  0.0301  2.0262
33020SOL    HW2 5666  12.612   0.700   9.852  1.1718  0.1440  0.5628
33021SOL     OW 5667   2.090   5.661  10.609  0.2636  0.0488  0.2798
33021SOL    HW1 5668   2.109   5.704  10.525 -0.1107  1.0419  0.6813
33021SOL    HW2 5669   2.012   5.707  10.641 -0.2139 -1.0148  0.6939
33022SOL     OW 5670   7.956  11.276   9.020  0.4983  0.1145 -0.1464
33022SOL    HW1 5671   7.970  11.190   8.980  0.8122 -0.3612  0.9639
33022SOL    HW2 5672   7.866  11.298   8.999  0.7054 -0.0302 -1.2678
33023SOL     OW 5673   1.168   5.043   7.636  0.1261  0.0785 -0.3611
33023SOL    HW1 5674   1.184   5.079   7.549  2.7373  0.8285  0.3172
33023SOL    HW2 5675   1.110   4.969   7.621 -0.0437  0.5885 -2.6466
33024SOL     OW 5676   2.610   7.372   9.745 -0.6916  0.3137 -0.0980
33024SOL    HW1 5677   2.593   7.461   9.712 -1.0159 -0.1870 -1.3458
33024SOL    HW2 5678   2.546   7.360   9.815 -1.2918  0.7219 -0.5632
33025SOL     OW 5679  11.707  12.696   7.000  0.3220  0.1554  0.0374
33025SOL    HW1 5680  11.716  12.661   6.911 -0.4897  1.4363 -0.5621
33025SOL    HW2 5681  11.647  12.635   7.043 -0.9971  0.7012 -0.9650
33026SOL     OW 5682   9.910   1.270   7.563  0.0839 -0.1903  0.1940
33026SOL    HW1 5683   9.990   1.238   7.521  0.4151 -0.2647  0.8516
33026SOL    HW2 5684   9.926   1.363   7.577  0.6046 -0.4402  1.4652
33027SOL     OW 5685   3.200   7.484   4.129 -0.1698 -0.1410 -0.5275
33027SOL    HW1 5686   3.145   7.514   4.201  0.0220  1.7062 -1.0888
33027SOL    HW2 5687   3.289   7.500   4.159 -0.1016  1.5232 -1.4572
33028SOL     OW 5688   8.548   6.176  10.388  0.1488  0.2612 -0.1902
33028SOL    HW1 5689   8.610   6.117  10.430 -1.2352 -0.7953  0.4571
33028SOL    HW2 5690   8.501   6.218  10.460 -1.1681 -0.3910 -0.6304
33029SOL     OW 5691   5.832  12.655   9.292  0.1101 -0.1938 -0.6543
33029SOL    HW1 5692   5.893  12.710   9.242  1.3410 -2.1320 -1.3887
33029SOL    HW2 5693   5.822  12.576   9.239 -2.7731 -0.1353 -0.3500
33030SOL     OW 5694   9.143   9.728   1.578 -0.5986  0.3623  0.0702
33030SOL    HW1 5695   9.048   9.727   1.573 -0.6317  2.0353 -0.2675
33030SOL    HW2 5696   9.172   9.668   1.509 -1.3907 -0.6367  0.5860
33031SOL     OW 5697   7.745   0.728  10.925 -0.5385 -0.0452  0.2694
33031SOL    HW1 5698   7.776   0.656  10.979 -0.6982 -0.5936 -0.3627
33031SOL    HW2 5699   7.822   0.754  10.874 -0.4126  0.4069  0.6865
33032SOL     OW 5700   4.259   1.666   9.446  0.7435 -0.0358 -0.1097
33032SOL    HW1 5701   4.330   1.695   9.503  0.8896  0.9273 -0.7499
33032SOL    HW2 5702   4.211   1.746   9.426 -1.9820 -0.9657  2.1850
33033SOL     OW 5703  12.174  12.002   2.014  0.3273 -0.1142 -0.4543
33033SOL    HW1 5704  12.091  11.986   1.969 -0.8251  1.0607  1.1439
33033SOL    HW2 5705  12.204  12.086   1.978  0.5174 -0.2431 -0.5964
33034SOL     OW 5706   3.855   9.137   2.843 -0.7494 -0.0579 -0.4915
33034SOL    HW1 5707   3.785   9.196   2.871 -1.2957 -0.9648  0.1191
33034SOL    HW2 5708   3.911   9.128   2.920 -1.0496 -0.8545 -0.3559
33035SOL     OW 5709   6.789   1.892   5.271 -0.7805 -0.3070  0.5678
33035SOL    HW1 5710   6.848   1.947   5.219 -2.5632  1.1539 -0.0538
33035SOL    HW2 5711   6.841   1.815   5.295  1.1377  0.6082 -0.4572
33036SOL     OW 5712   9.520  11.990   6.404  0.2501  0.4276  0.2028
33036SOL    HW1 5713   9.610  11.958   6.414  1.1424  1.9846 -2.0377
33036SOL    HW2 5714   9.490  12.004   6.494  2.1273 -0.4360  1.0199
33037SOL     OW 5715  11.746   2.001   2.680 -0.0362  0.1509 -0.4267
33037SOL    HW1 5716  11.773   2.088   2.650 -0.0842  0.1799 -0.3860
33037SOL    HW2 5717  11.825   1.947   2.672 -0.2450 -0.0317 -1.3398
33038SOL     OW 5718   5.219  10.321  11.789 -0.4997 -0.9062 -0.0550
33038SOL    HW1 5719   5.227  10.245  11.732 -0.0392 -0.5900 -0.4238
33038SOL    HW2 5720   5.246  10.290  11.875  1.6807 -0.6996 -0.6004
33039SOL     OW 5721  11.613   2.813  12.137 -0.0024 -0.0919  0.3742
33039SOL    HW1 5722  11.666   2.885  12.171  1.0975 -0.2828 -0.8708
33039SOL    HW2 5723  11.656   2.787  12.056 -1.2717 -1.1319 -0.0050
33040SOL     OW 5724  12.310   2.334   2.701  0.7648  0.3792 -0.7049
33040SOL    HW1 5725  12.255   2.324   2.623 -0.3630  1.7584 -0.1174
33040SOL    HW2 5726  12.270   2.405   2.750  2.4159  0.6373  0.3392
33041SOL     OW 5727   3.431   9.186   3.594  0.2061 -0.4493 -0.0432
33041SOL    HW1 5728   3.492   9.162   3.524  1.5863 -0.0855  0.9867
33041SOL    HW2 5729   3.361   9.235   3.550  0.3029 -1.4505 -1.3490
33042SOL     OW 5730   6.008   2.085  12.470  0.4493  0.2924  0.0058
33042SOL    HW1 5731   5.946   2.085  12.543  0.7174 -0.3866  0.2384
33042SOL    HW2 5732   5.980   2.012  12.414  1.2332 -0.2270  0.2858
33043SOL     OW 5733   1.508  10.588  12.616 -0.2202 -0.5637 -0.1486
33043SOL    HW1 5734   1.469  10.675  12.621  0.2189 -0.3848  0.1788
33043SOL    HW2 5735   1.591  10.602  12.571  0.6646 -0.5258  1.4250
33044SOL     OW 5736  10.939   8.576   1.767 -0.0468  0.1764  0.5218
33044SOL    HW1 5737  10.916   8.493   1.726  2.1070 -0.9767  1.5390
33044SOL    HW2 5738  11.030   8.592   1.742 -0.5319  2.5284 -0.0548
33045SOL     OW 5739   8.381   3.374  12.326 -0.4713  0.6521  0.4158
33045SOL    HW1 5740   8.371   3.469  12.313  1.6170  1.2481  2.3079
33045SOL    HW2 5741   8.446   3.367  12.397 -0.3116 -2.2141  0.1023
33046SOL     OW 5742  10.646   0.559   6.937 -0.0783 -0.7588  0.4147
33046SOL    HW1 5743  10.699   0.578   7.014  1.8911  2.1953 -1.4194
33046SOL    HW2 5744  10.555   0.564   6.968  0.6365  0.3625  2.5544
33047SOL     OW 5745   8.461   0.943   8.040  0.8469 -0.3020  0.3937
33047SOL    HW1 5746   8.527   0.885   8.079  0.7037 -1.0685 -0.4655
33047SOL    HW2 5747   8.499   0.970   7.957 -0.4787 -1.9007 -0.7876
33048SOL     OW 5748   6.069  10.756  11.868 -0.4644  0.3712 -0.1664
33048SOL    HW1 5749   6.036  10.733  11.781  2.6440  1.8410 -1.9265
33048SOL    HW2 5750   6.054  10.851  11.875  1.3164  0.6992 -0.1838
33049SOL     OW 5751   4.167   0.107   5.205  0.1135 -0.2858  0.1086
33049SOL    HW1 5752   4.095   0.132   5.264  0.2172  1.9645 -0.6188
33049SOL    HW2 5753   4.126   0.097   5.119  0.5345  0.1188 -0.1428
33050SOL     OW 5754   4.126   0.131   8.921 -0.3121 -0.2782  0.2609
33050SOL    HW1 5755   4.128   0.137   9.017  0.7399 -1.8322  0.3809
33050SOL    HW2 5756   4.208   0.087   8.898 -0.8851 -0.6103 -1.2914
33051SOL     OW 5757   3.818   1.421   6.425 -0.1587  0.2550  0.5313
33051SOL    HW1 5758   3.825   1.379   6.511  1.0914 -0.8329 -0.0744
33051SOL    HW2 5759   3.908   1.446   6.403 -0.7706  2.9129  0.6456
33052SOL     OW 5760   6.161  12.494   2.532 -0.0764  0.0593  0.0446
33052SOL    HW1 5761   6.114  12.491   2.616 -1.0758 -1.8891 -0.5212
33052SOL    HW2 5762   6.096  12.527   2.470  0.2770  0.2883 -0.2085
33053SOL     OW 5763   6.380   2.334   9.816  0.1859 -0.1639 -0.2050
33053SOL    HW1 5764   6.382   2.346   9.911  0.2976 -2.8377  0.2185
33053SOL    HW2 5765   6.434   2.404   9.781  2.1304 -0.5022  1.9165
33054SOL     OW 5766   4.967   4.941   8.824  0.4400  0.2725 -0.1912
33054SOL    HW1 5767   4.958   5.035   8.842 -2.1085  0.4600 -1.8816
33054SOL    HW2 5768   4.910   4.899   8.889  0.0655  0.0723 -0.6419
33055SOL     OW 5769   4.891   2.406   8.091  0.0147  0.0791  0.0389
33055SOL    HW1 5770   4.833   2.367   8.156  1.4250 -0.9951  0.7013
33055SOL    HW2 5771   4.971   2.354   8.096  0.7747  1.0482 -1.3726
33056SOL     OW 5772  10.203   3.600   4.156 -0.1519 -0.0181  0.1404
33056SOL    HW1 5773  10.279   3.604   4.098  0.5138 -0.8652  0.9216
33056SOL    HW2 5774  10.148   3.673   4.129  0.0025 -0.5466 -1.7510
33057SOL     OW 5775   8.864  12.193   7.080  0.4832  0.0657 -0.1957
33057SOL    HW1 5776   8.912  12.126   7.128  1.5795  1.4878  0.7834
33057SOL    HW2 5777   8.783  12.204   7.130  0.1452 -0.7484 -0.5531
33058SOL     OW 5778   1.486  10.749   9.944  0.2206 -0.4316 -0.7158
33058SOL    HW1 5779   1.425  10.690   9.900 -2.7917  1.5978  0.3820
33058SOL    HW2 5780   1.457  10.837   9.919  1.9415  0.6684  0.8765
33059SOL     OW 5781   7.911   2.247   1.836  0.7572  0.1629  0.3940
33059SOL    HW1 5782   7.954   2.288   1.761 -0.6744 -0.0540 -0.5871
33059SOL    HW2 5783   7.857   2.178   1.798  0.6721 -0.5401  1.7241
33060SOL     OW 5784   2.463   8.581   7.466 -0.0262  0.2268  0.2177
33060SOL    HW1 5785   2.422   8.517   7.523 -0.6833 -0.2731 -0.7973
33060SOL    HW2 5786   2.466   8.539   7.380  1.6277  0.6708  0.0231
33061SOL     OW 5787   3.692  10.459   0.590 -0.5867  1.2322 -0.2794
33061SOL    HW1 5788   3.763  10.396   0.582 -0.8556  1.1277 -2.2480
33061SOL    HW2 5789   3.622  10.411   0.636 -0.4216  0.4210 -0.8621
33062SOL     OW 5790   6.507   6.210   1.016 -0.0111  0.4449 -0.5526
33062SOL    HW1 5791   6.513   6.236   0.924 -0.7412  3.6833  0.1979
33062SOL    HW2 5792   6.432   6.259   1.050 -1.6263 -2.9017  1.1725
33063SOL     OW 5793   9.033   4.711   0.635 -0.0138 -0.0584 -0.1307
33063SOL    HW1 5794   8.981   4.776   0.682 -0.4933 -0.3117 -0.3043
33063SOL    HW2 5795   9.067   4.653   0.703  0.1815  0.2058 -0.0021
33064SOL     OW 5796   6.036  11.712   7.460  0.2679 -0.3396  0.0019
33064SOL    HW1 5797   6.043  11.674   7.373 -0.3664  2.1269 -1.2149
33064SOL    HW2 5798   6.119  11.691   7.502 -0.0114 -2.9113 -0.5441
33065SOL     OW 5799   6.484   9.021   0.607 -0.2513 -0.0545 -0.1247
33065SOL    HW1 5800   6.457   9.044   0.696 -0.5142  0.3627 -0.3102
33065SOL    HW2 5801   6.459   9.096   0.554  2.7604  1.1245 -0.0763
33066SOL     OW 5802   1.148   8.442  10.293 -0.5611 -0.1736  0.0725
33066SOL    HW1 5803   1.208   8.515  10.306  0.1609 -0.8108  0.4492
33066SOL    HW2 5804   1.196   8.381  10.237 -1.3539 -0.1352 -0.6712
33067SOL     OW 5805   4.442  11.109   6.475  0.5722  0.2349  0.1422
33067SOL    HW1 5806   4.359  11.087   6.433  1.3842 -0.3500 -1.2082
33067SOL    HW2 5807   4.508  11.098   6.407  1.8643 -0.0747  1.3861
33068SOL     OW 5808   7.814  11.410   9.555 -0.8581  0.1590 -0.2864
33068SOL    HW1 5809   7.825  11.498   9.521 -1.5483  0.1314 -0.5978
33068SOL    HW2 5810   7.843  11.353   9.484 -0.5078  0.1345 -0.1236
33069SOL     OW 5811  10.159   5.761   3.318 -0.5076  0.4330  0.1724
33069SOL    HW1 5812  10.077   5.711   3.318 -0.7592  0.8385  0.0667
33069SOL    HW2 5813  10.223   5.701   3.356 -0.6566 -0.2150 -0.5532
33070SOL     OW 5814   8.325   2.271  10.590 -0.6854 -0.3043  0.2242
33070SOL    HW1 5815   8.347   2.308  10.505 -2.4672 -0.8475 -0.5085
33070SOL    HW2 5816   8.388   2.311  10.650 -0.7633  1.8134 -0.9818
33071SOL     OW 5817   5.576   3.777   1.261  0.4425  0.3021  0.0296
33071SOL    HW1 5818   5.499   3.745   1.214  1.2882  0.3359 -1.4650
33071SOL    HW2 5819   5.613   3.844   1.203  1.3205  0.6373  0.9437
33072SOL     OW 5820   4.836   1.065   8.697  0.1333  0.0974 -0.3365
33072SOL    HW1 5821   4.816   1.112   8.778  0.6525 -0.2343 -0.0139
33072SOL    HW2 5822   4.923   1.027   8.711  0.2412  0.0562 -1.0572
33073SOL     OW 5823   1.235   3.585   6.322 -0.5805 -0.5854  0.0187
33073SOL    HW1 5824   1.322   3.624   6.311 -1.3380  0.8589 -1.2118
33073SOL    HW2 5825   1.213   3.601   6.414 -0.7992  1.8725 -0.3976
33074SOL     OW 5826   7.449  12.670   3.097  0.2562 -0.6059  0.0900
33074SOL    HW1 5827   7.431  12.667   3.002 -0.1656  0.0625  0.1360
33074SOL    HW2 5828   7.541  12.693   3.103  0.6529 -2.0626 -0.1567
33075SOL     OW 5829   7.446   9.817   5.633 -0.0359 -0.0878  0.4819
33075SOL    HW1 5830   7.391   9.749   5.671  0.2018  0.4067  1.7620
33075SOL    HW2 5831   7.435   9.807   5.539  1.0791 -2.7878  0.5679
33076SOL     OW 5832   6.324   4.140   9.166 -0.4894  0.5368  0.7445
33076SOL    HW1 5833   6.248   4.191   9.192 -0.6303 -0.1568  1.7782
33076SOL    HW2 5834   6.359   4.105   9.248  0.4091  0.1057  0.2016
33077SOL     OW 5835   9.289  10.017   0.162  0.4895 -0.2414 -0.0121
33077SOL    HW1 5836   9.260   9.947   0.221 -1.2497 -0.2297 -0.7828
33077SOL    HW2 5837   9.380   9.997   0.144  0.1869 -2.0035  0.2150
33078SOL     OW 5838   0.517   5.550   4.454 -0.0612  0.1345 -0.2505
33078SOL    HW1 5839   0.594   5.562   4.398  0.3576 -0.4300  0.2031
33078SOL    HW2 5840   0.518   5.626   4.512 -0.3994  0.6335 -0.8879
33079SOL     OW 5841   0.506  11.916   2.660 -0.5024  0.5193 -0.2578
33079SOL    HW1 5842   0.597  11.886   2.659 -0.3834  0.8744 -0.8713
33079SOL    HW2 5843   0.481  11.916   2.752 -0.1121 -0.2635 -0.1450
33080SOL     OW 5844   3.055   8.779  12.510  1.0299  0.3575  0.0634
33080SOL    HW1 5845   3.117   8.807  12.443  2.4699 -0.2566  1.0795
33080SOL    HW2 5846   3.076   8.687  12.524  0.7360  0.4662  1.3071
33081SOL     OW 5847  12.098  12.216   8.121 -0.2975 -0.5722 -0.2868
33081SOL    HW1 5848  12.061  12.198   8.207 -0.4644  0.0520 -0.2291
33081SOL    HW2 5849  12.168  12.279   8.137  0.4697 -1.3471 -0.4620
33082SOL     OW 5850   9.789  12.181   5.467 -0.6342  0.3406  0.5505
33082SOL    HW1 5851   9.748  12.121   5.529  0.4612  0.1326  1.1068
33082SOL    HW2 5852   9.824  12.125   5.398 -0.4108  0.4126  0.6016
33083SOL     OW 5853   2.210   4.757   5.399  0.1972  0.2472 -0.5361
33083SOL    HW1 5854   2.259   4.719   5.327  1.3996  0.2217  0.2750
33083SOL    HW2 5855   2.275   4.804   5.451 -0.6590  0.3678  0.4670
33084SOL     OW 5856   5.995   8.274   3.291  0.2301 -0.1613  0.2286
33084SOL    HW1 5857   5.903   8.262   3.313  0.7309 -1.9870  1.5385
33084SOL    HW2 5858   5.994   8.335   3.217 -1.9854  0.0995  0.4020
33085SOL     OW 5859   1.067  10.934  10.330 -0.1770  0.0981  0.6832
33085SOL    HW1 5860   1.096  10.909  10.417  3.8122 -0.2047 -0.5321
33085SOL    HW2 5861   1.110  11.018  10.313  0.9157 -0.8550 -1.6928
33086SOL     OW 5862   9.684  12.602   9.273  0.0630  0.2635 -0.2620
33086SOL    HW1 5863   9.697  12.637   9.185  1.2778  0.4021 -0.0434
33086SOL    HW2 5864   9.755  12.538   9.284  1.2026  1.7049  1.3517
33087SOL     OW 5865   8.682   0.836   0.026  0.7738  0.6728  0.5180
33087SOL    HW1 5866   8.763   0.887   0.019  0.1559  1.4826 -1.0687
33087SOL    HW2 5867   8.628   0.885   0.089  1.0094  0.8136  0.6130
33088SOL     OW 5868  10.811   1.551  10.677 -0.2682 -0.6240 -0.1400
33088SOL    HW1 5869  10.840   1.461  10.660  1.0665 -0.0491 -1.0893
33088SOL    HW2 5870  10.792   1.587  10.590 -1.1020 -0.0744  0.2523
33089SOL     OW 5871  11.345   9.175   3.123  0.2495 -0.5762 -0.3819
33089SOL    HW1 5872  11.323   9.094   3.077  0.9348 -2.2426  2.0814
33089SOL    HW2 5873  11.439   9.186   3.109  0.7365 -1.8010  1.5279
33090SOL     OW 5874   0.317  10.625   6.677 -0.1586 -0.1508  0.1020
33090SOL    HW1 5875   0.298  10.592   6.765 -0.8808  1.7452  0.6982
33090SOL    HW2 5876   0.410  10.646   6.679  0.6722 -3.2078 -0.7126
33091SOL     OW 5877   1.457   8.574   1.961  0.2233 -0.4176  0.0702
33091SOL    HW1 5878   1.379   8.548   1.912 -0.0661  0.7861 -0.1379
33091SOL    HW2 5879   1.524   8.512   1.933 -0.6584 -1.5262  0.3121
33092SOL     OW 5880   2.903   8.668  11.904  0.2204  0.0017  0.0172
33092SOL    HW1 5881   2.964   8.594  11.903  0.2002 -0.0131 -1.1722
33092SOL    HW2 5882   2.935   8.727  11.836 -0.2447  0.6908  0.3888
33093SOL     OW 5883   5.831   1.049   7.748  0.0542 -0.0282 -0.5727
33093SOL    HW1 5884   5.782   1.125   7.717 -1.7057 -0.2859  1.3512
33093SOL    HW2 5885   5.914   1.085   7.780 -0.3496  0.9339 -0.5797
33094SOL     OW 5886   2.663   1.488   9.615  0.2565  0.1378 -0.0402
33094SOL    HW1 5887   2.688   1.419   9.677  1.7362  0.8086  0.1571
33094SOL    HW2 5888   2.730   1.555   9.627 -0.1882  0.8533 -1.4476
33095SOL     OW 5889  11.982   4.314   8.828 -0.2163 -0.3566 -0.3821
33095SOL    HW1 5890  11.983   4.360   8.912  2.1050 -0.0355 -0.5036
33095SOL    HW2 5891  11.961   4.382   8.764  0.7980  0.0497 -0.3120
33096SOL     OW 5892  11.910  12.198   9.001 -0.2039 -0.3158 -0.2964
33096SOL    HW1 5893  11.960  12.222   8.922 -1.1750 -0.0936 -0.8510
33096SOL    HW2 5894  11.944  12.111   9.024  0.1816 -0.3257 -0.8774
33097SOL     OW 5895   9.805   2.032   8.613  0.0903 -0.1655  0.2370
33097SOL    HW1 5896   9.763   1.976   8.679  0.7361 -0.7057  0.2022
33097SOL    HW2 5897   9.899   2.016   8.624  0.3196  1.1426  0.4291
33098SOL     OW 5898  11.826   7.719   0.163  1.0487  0.1652 -0.2579
33098SOL    HW1 5899  11.908   7.696   0.206  1.2072  1.9974  0.4996
33098SOL    HW2 5900  11.759   7.668   0.208  1.5874 -0.2297  0.1006
33099SOL     OW 5901   6.596   0.801   3.411 -0.3489  0.4645  0.6538
33099SOL    HW1 5902   6.636   0.722   3.376 -1.9966 -0.2370  0.2501
33099SOL    HW2 5903   6.670   0.858   3.433  0.8196 -0.3000 -1.0846
33100SOL     OW 5904   0.467   0.350  11.458  0.0458  0.1205 -0.7256
33100SOL    HW1 5905   0.428   0.381  11.540  1.1660 -0.3301 -0.0084
33100SOL    HW2 5906   0.406   0.283  11.427  0.8254 -1.5371  1.0749
33101SOL     OW 5907   7.178   4.871   4.416 -0.9743 -0.1068 -0.6211
33101SOL    HW1 5908   7.093   4.834   4.395  0.4404 -2.8461 -1.9999
33101SOL    HW2 5909   7.216   4.810   4.479 -0.3276  1.5635  0.7056
33102SOL     OW 5910   8.759  10.322   1.184 -0.5304  0.2098 -0.3045
33102SOL    HW1 5911   8.816  10.302   1.110  0.2322  2.6264 -0.4637
33102SOL    HW2 5912   8.681  10.361   1.145 -1.1296 -0.5612  0.0777
33103SOL     OW 5913   1.572  12.035  12.079  0.4998  0.3964 -0.0868
33103SOL    HW1 5914   1.565  12.130  12.075  0.7623  0.3986 -0.6298
33103SOL    HW2 5915   1.535  12.011  12.164 -0.6843  0.8836 -0.4511
33104SOL     OW 5916  11.138  12.541   5.312 -0.0425 -0.3248  0.1635
33104SOL    HW1 5917  11.172  12.598   5.380 -1.2313 -1.0969  1.4592
33104SOL    HW2 5918  11.051  12.576   5.293 -0.0951 -0.6800 -0.2691
33105SOL     OW 5919   9.699   3.505  11.398 -0.4450  0.5526  0.2585
33105SOL    HW1 5920   9.776   3.509  11.455 -0.7004  1.2668  0.5664
33105SOL    HW2 5921   9.635   3.563  11.439 -0.4074  1.6171 -1.0890
33106SOL     OW 5922   5.897  11.080   4.433  0.5222  0.3375 -0.6137
33106SOL    HW1 5923   5.991  11.093   4.443  0.4043  1.0545 -0.3436
33106SOL    HW2 5924   5.860  11.168   4.437 -0.5182 -0.1090  2.9985
33107SOL     OW 5925   3.821   9.227  11.991  0.2392  0.1827 -0.0625
33107SOL    HW1 5926   3.873   9.302  11.962  0.8277 -0.0690  0.3475
33107SOL    HW2 5927   3.875   9.151  11.972 -1.4319 -0.4368 -3.0818
33108SOL     OW 5928   5.577  11.051   1.011 -0.5914 -0.1934  0.0738
33108SOL    HW1 5929   5.544  11.097   1.089 -1.0029  0.8506 -0.6949
33108SOL    HW2 5930   5.523  10.972   1.005  0.6210 -1.2365  1.8466
33109SOL     OW 5931   3.944   1.389   4.968 -0.3012 -0.6033 -0.6097
33109SOL    HW1 5932   3.887   1.438   5.027 -1.4197 -0.1099 -2.0392
33109SOL    HW2 5933   3.988   1.325   5.025 -1.3803 -0.2092  0.7244
33110SOL     OW 5934   9.603   7.150   6.563  0.4406  0.1967 -0.1514
33110SOL    HW1 5935   9.536   7.208   6.528 -0.6777 -0.3270  1.0475
33110SOL    HW2 5936   9.626   7.093   6.490  1.6446  2.1259 -1.4001
33111SOL     OW 5937  11.107   6.473   8.708  0.6258 -0.1969 -0.2834
33111SOL    HW1 5938  11.038   6.500   8.768 -0.6421 -0.2040 -1.6884
33111SOL    HW2 5939  11.082   6.386   8.680  1.1295 -0.1423 -0.9210
33112SOL     OW 5940  10.871   7.978   9.403  0.0423 -0.0910 -0.4505
33112SOL    HW1 5941  10.814   8.006   9.332  0.2726 -0.8243 -0.9361
33112SOL    HW2 5942  10.828   8.010   9.483 -2.1814 -2.4166 -0.6091
33113SOL     OW 5943   9.938   3.189   8.932  0.1727  0.2141 -0.3039
33113SOL    HW1 5944   9.952   3.259   8.995 -0.3564  0.1713 -0.1384
33113SOL    HW2 5945  10.024   3.175   8.892  0.8078 -0.6118  1.2811
33114SOL     OW 5946   5.938   1.054   8.267  0.0124  0.1492 -0.1207
33114SOL    HW1 5947   5.946   1.120   8.336  1.5320  0.6383 -0.7224
33114SOL    HW2 5948   5.851   1.069   8.230 -0.7180  0.0726  1.4528
33115SOL     OW 5949   7.097   9.009   2.765 -0.3431  0.1630 -0.3350
33115SOL    HW1 5950   7.015   9.048   2.796 -0.0317  0.3650  0.2658
33115SOL    HW2 5951   7.163   9.077   2.780  0.4300 -0.9333  1.8281
33116SOL     OW 5952   5.277   7.306  10.374 -0.0379 -0.6433 -0.6128
33116SOL    HW1 5953   5.213   7.376  10.362 -1.3461 -1.2329  2.1847
33116SOL    HW2 5954   5.243   7.233  10.323 -0.3278 -0.2213 -1.0266
33117SOL     OW 5955   0.409   7.012  11.290 -0.2365  0.1257  0.4492
33117SOL    HW1 5956   0.498   7.046  11.281 -0.9251  2.1082  0.6802
33117SOL    HW2 5957   0.357   7.089  11.313 -1.9004 -1.1277  0.9802
33118SOL     OW 5958   1.577   2.917   0.728  0.2742 -0.2651  0.1544
33118SOL    HW1 5959   1.604   3.002   0.762 -0.8588  0.3407 -0.3906
33118SOL    HW2 5960   1.501   2.893   0.782  0.7106 -1.0339  0.4413
33119SOL     OW 5961  11.387  11.288   9.683 -0.5550  0.3873  0.2942
33119SOL    HW1 5962  11.447  11.360   9.702  1.2941 -0.7397 -0.9232
33119SOL    HW2 5963  11.357  11.258   9.769  1.5737  0.2697  1.0583
33120SOL     OW 5964   1.006   0.901   6.643 -0.8723 -0.4799 -0.2375
33120SOL    HW1 5965   1.081   0.873   6.591 -0.2296 -0.2489  0.5413
33120SOL    HW2 5966   0.933   0.906   6.581  0.0322  0.4575 -1.2557
33121SOL     OW 5967   4.370  10.437   6.620  0.8228  0.5083  0.0876
33121SOL    HW1 5968   4.291  10.464   6.665  0.1276 -0.5246 -0.4636
33121SOL    HW2 5969   4.367  10.483   6.536  0.0611 -0.5828 -0.5114
33122SOL     OW 5970   8.303   4.241  12.637 -0.3470  0.0772 -0.5732
33122SOL    HW1 5971   8.298   4.328  12.677 -1.9138 -0.3705  0.3186
33122SOL    HW2 5972   8.216   4.227  12.600 -0.2116 -1.2194 -0.4601
33123SOL     OW 5973   0.512   4.624   3.802 -0.1398  0.5317  0.3174
33123SOL    HW1 5974   0.478   4.547   3.847 -0.7638  1.1546  0.9223
33123SOL    HW2 5975   0.437   4.661   3.757  0.1483  0.8282  0.0729
33124SOL     OW 5976   9.850   6.012   9.612 -0.2564 -0.1020 -0.2544
33124SOL    HW1 5977   9.877   6.077   9.676  1.1732 -0.3798 -0.5477
33124SOL    HW2 5978   9.868   6.053   9.527 -0.5684 -0.3864 -0.4615
33125SOL     OW 5979  12.027  11.953   9.047  0.3208  0.5219  0.5740
33125SOL    HW1 5980  11.998  11.877   8.997 -0.0188  2.6381 -2.6932
33125SOL    HW2 5981  12.106  11.923   9.092  0.5310 -1.6005 -1.0554
33126SOL     OW 5982  12.788  10.649   2.657  0.1819  0.2586 -0.8333
33126SOL    HW1 5983  12.735  10.721   2.690 -0.6355 -1.4362  1.9881
33126SOL    HW2 5984  12.852  10.633   2.727 -0.7720 -2.7542 -0.5006
33127SOL     OW 5985   3.461   3.737   5.034 -0.3890 -0.1623  0.1165
33127SOL    HW1 5986   3.393   3.796   5.067 -1.1135 -0.7516 -0.2812
33127SOL    HW2 5987   3.472   3.762   4.943 -0.0670 -0.0687  0.1801
33128SOL     OW 5988   3.530   6.960  10.932  0.2299  0.6644 -0.2628
33128SOL    HW1 5989   3.456   6.899  10.933 -1.0422  2.1410 -0.0776
33128SOL    HW2 5990   3.582   6.936  11.009 -1.5104  1.2520  1.1570
33129SOL     OW 5991   2.897   7.947   0.117 -0.1926  0.0065 -0.2412
33129SOL    HW1 5992   2.806   7.920   0.107 -0.6608  1.5726 -0.5054
33129SOL    HW2 5993   2.922   7.918   0.205 -0.2816 -2.1915 -0.8848
33130SOL     OW 5994   3.080   7.824   7.083  0.3538 -0.2872 -0.2074
33130SOL    HW1 5995   3.148   7.762   7.056  0.1291 -0.1537 -1.1254
33130SOL    HW2 5996   2.998   7.786   7.050  0.4189  1.4586 -2.7216
33131SOL     OW 5997   8.144   1.229   4.034  0.1117  0.2328 -0.0213
33131SOL    HW1 5998   8.225   1.227   4.086  1.2198 -1.7538 -1.6681
33131SOL    HW2 5999   8.161   1.169   3.961 -3.1174 -0.8012 -0.0725
33132SOL     OW 6000   1.848   0.183   0.855 -0.3386  0.0980  0.0601
33132SOL    HW1 6001   1.800   0.257   0.818 -0.0909  0.5395  0.6206
33132SOL    HW2 6002   1.823   0.181   0.947  1.4277  0.9350  0.6070
33133SOL     OW 6003  12.081   2.875   1.408  0.1464  0.1020  0.4630
33133SOL    HW1 6004  12.018   2.803   1.400  0.9686 -0.6141  0.3005
33133SOL    HW2 6005  12.120   2.862   1.495  0.5885  0.1105  0.2646
33134SOL     OW 6006   7.387   0.724   2.558  0.4388  0.2539 -0.5911
33134SOL    HW1 6007   7.436   0.649   2.592 -0.0507 -0.1376 -0.7380
33134SOL    HW2 6008   7.299   0.714   2.595  0.2483  0.5080 -0.9715
33135SOL     OW 6009   2.272   9.316  10.347  0.1419  0.0319 -0.0230
33135SOL    HW1 6010   2.351   9.275  10.312 -0.3623 -0.5605 -0.5087
33135SOL    HW2 6011   2.303   9.395  10.392  0.9690 -0.0118 -0.4971
33136SOL     OW 6012   2.401   0.847   4.463 -0.1625 -0.1417 -0.1616
33136SOL    HW1 6013   2.414   0.797   4.383  2.8644  0.2897 -0.0544
33136SOL    HW2 6014   2.336   0.913   4.440  0.3305 -0.2834 -2.1369
33137SOL     OW 6015   2.809   3.144   0.178 -0.0119  0.0941 -0.0037
33137SOL    HW1 6016   2.904   3.146   0.162 -0.1904  0.4423 -1.0908
33137SOL    HW2 6017   2.776   3.079   0.116 -0.2691 -1.4616  1.6932
33138SOL     OW 6018   5.584  11.820   0.034  0.5038 -0.5749  0.2523
33138SOL    HW1 6019   5.510  11.762   0.049  0.8040 -0.9448  0.3311
33138SOL    HW2 6020   5.620  11.837   0.121 -0.4266  0.8804  0.3767
33139SOL     OW 6021   3.380   3.673  10.335 -0.3430  0.0542 -0.3941
33139SOL    HW1 6022   3.402   3.708  10.421  0.9577  0.1113 -0.7344
33139SOL    HW2 6023   3.407   3.581  10.339 -1.9451 -0.4383 -0.1581
33140SOL     OW 6024   5.513  11.384   4.063 -0.4082 -0.4160 -0.7273
33140SOL    HW1 6025   5.578  11.341   4.118 -1.8381  0.1641  1.5796
33140SOL    HW2 6026   5.481  11.314   4.005  0.2657 -1.4094  0.0525
33141SOL     OW 6027  12.781   5.015   0.175 -0.1211 -0.5102 -0.2901
33141SOL    HW1 6028  12.791   4.939   0.233  1.6810 -0.0655  0.0443
33141SOL    HW2 6029  12.856   5.011   0.116 -1.9339 -0.9806 -2.7272
33142SOL     OW 6030   7.441   2.118   4.549  0.4207 -0.3876 -0.0073
33142SOL    HW1 6031   7.364   2.100   4.496  1.1610  0.0999 -1.2816
33142SOL    HW2 6032   7.511   2.133   4.486  1.0245  1.6954  1.0572
33143SOL     OW 6033   8.326   2.965   9.967 -0.0133  0.0441 -0.7651
33143SOL    HW1 6034   8.265   2.894   9.990  1.0006 -0.6728 -0.2054
33143SOL    HW2 6035   8.387   2.924   9.905  2.3197 -0.4997  1.6753
33144SOL     OW 6036  11.848   5.437   9.308 -0.1543  0.1539  0.7337
33144SOL    HW1 6037  11.804   5.356   9.335 -2.4975  1.2361  0.4321
33144SOL    HW2 6038  11.790   5.507   9.338  1.0857  1.6735 -0.2552
33145SOL     OW 6039   8.759  10.625  10.107  0.4529 -0.2881 -0.1048
33145SOL    HW1 6040   8.782  10.558  10.043 -1.5483 -0.5072 -0.6769
33145SOL    HW2 6041   8.761  10.707  10.057  2.4669  0.0660  0.4874
33146SOL     OW 6042   5.343   3.520   1.298  0.3132  0.1120 -0.2108
33146SOL    HW1 6043   5.301   3.549   1.380  1.8399  0.2951  0.5454
33146SOL    HW2 6044   5.344   3.599   1.243 -0.8998 -0.0606 -0.5062
33147SOL     OW 6045   5.145   1.344   2.965  0.1385 -0.2844  0.1692
33147SOL    HW1 6046   5.063   1.295   2.953 -1.4520  2.2685 -0.1761
33147SOL    HW2 6047   5.157   1.391   2.883  2.0557 -0.7005  0.1771
33148SOL     OW 6048   6.167   3.987  12.039  0.1307 -0.2626  0.2769
33148SOL    HW1 6049   6.107   3.978  11.965  0.0545  2.2893 -0.0680
33148SOL    HW2 6050   6.112   3.979  12.116  0.0681 -2.0181  0.1005
33149SOL     OW 6051   9.380   0.599  10.078  0.3519 -0.3124 -0.0403
33149SOL    HW1 6052   9.345   0.572  10.163 -0.0539  0.4848  0.0568
33149SOL    HW2 6053   9.303   0.622  10.027  0.4656 -2.4589 -1.2452
33150SOL     OW 6054   8.859   6.542   9.006 -0.0336 -0.0462 -0.3359
33150SOL    HW1 6055   8.799   6.475   8.973  0.7439 -1.6272  1.2981
33150SOL    HW2 6056   8.936   6.493   9.036  0.3758  1.5209  1.3602
33151SOL     OW 6057   6.014   4.443   1.533  0.1212 -0.0180  0.1945
33151SOL    HW1 6058   5.948   4.512   1.527 -0.9517 -0.9974  0.6025
33151SOL    HW2 6059   6.027   4.430   1.627  0.7140 -0.0075  0.1175
33152SOL     OW 6060   8.015   3.261  11.202 -0.2600 -0.2139  0.1128
33152SOL    HW1 6061   8.106   3.233  11.193  0.3058  0.0874  3.6153
33152SOL    HW2 6062   8.021   3.354  11.224 -1.2614 -0.5519  1.9969
33153SOL     OW 6063   6.523  10.126   7.413  0.3141 -0.2984  0.3795
33153SOL    HW1 6064   6.553  10.212   7.442 -0.7685  0.7928 -1.5402
33153SOL    HW2 6065   6.471  10.093   7.486  1.0923  0.4754  1.3084
33154SOL     OW 6066   3.703   0.957   8.067 -0.1095 -0.2852 -0.3025
33154SOL    HW1 6067   3.708   0.971   8.162 -1.6772  0.8270 -0.3358
33154SOL    HW2 6068   3.736   1.039   8.030 -0.9370 -0.1105 -0.6724
33155SOL     OW 6069   4.557   3.909   4.241 -0.2139 -0.4621 -0.1713
33155SOL    HW1 6070   4.523   3.857   4.314 -0.7715  0.9897  0.6304
33155SOL    HW2 6071   4.651   3.913   4.257 -0.3302 -0.1534  0.4814
33156SOL     OW 6072  10.313  10.040   7.397 -0.2375 -0.0176  0.6724
33156SOL    HW1 6073  10.398  10.039   7.442  0.7021  1.3054 -0.9689
33156SOL    HW2 6074  10.253  10.081   7.459  0.9977  1.6510  0.8414
33157SOL     OW 6075   5.468   0.259   4.806 -0.6581  0.0855 -0.0713
33157SOL    HW1 6076   5.435   0.171   4.786 -0.9546  0.0569  0.5037
33157SOL    HW2 6077   5.561   0.256   4.785 -0.9942  0.1339 -1.6355
33158SOL     OW 6078  10.771  11.507   7.512 -0.0571  0.1046 -0.0224
33158SOL    HW1 6079  10.739  11.596   7.495 -0.4739 -0.1356 -0.5314
33158SOL    HW2 6080  10.853  11.501   7.464  1.1012  0.9240  1.7708
33159SOL     OW 6081  11.098   7.091  11.818 -0.2139 -0.1547  0.2550
33159SOL    HW1 6082  11.066   7.062  11.904 -1.0306  0.6655  0.2398
33159SOL    HW2 6083  11.177   7.141  11.838  0.5681 -1.3947  0.3732
33160SOL     OW 6084   6.875   5.357   2.664 -0.1692 -0.2252 -0.0607
33160SOL    HW1 6085   6.905   5.314   2.745 -1.0188 -1.2083 -0.2465
33160SOL    HW2 6086   6.817   5.427   2.695  1.0562  0.7114  0.2342
33161SOL     OW 6087   3.953   9.926   2.523  0.4330  0.0903 -0.6986
33161SOL    HW1 6088   3.987   9.857   2.466  0.0549 -1.4478  0.8579
33161SOL    HW2 6089   4.028   9.952   2.577  0.1792 -0.3377 -0.1234
33162SOL     OW 6090   3.146  12.087   7.114 -0.9213  0.0283  0.1230
33162SOL    HW1 6091   3.087  12.090   7.189 -0.3415  1.0366  0.5613
33162SOL    HW2 6092   3.231  12.111   7.150 -0.6233  0.4719 -0.8490
33163SOL     OW 6093  10.635   6.878   3.807  0.0586  0.0901 -0.0484
33163SOL    HW1 6094  10.640   6.785   3.831 -0.0340 -0.1604 -0.9692
33163SOL    HW2 6095  10.650   6.879   3.712  2.1474  1.2108  0.2359
33164SOL     OW 6096   0.529  11.491   8.031 -0.3000  0.3829  0.6308
33164SOL    HW1 6097   0.536  11.541   7.950  1.4832  0.6047  0.8838
33164SOL    HW2 6098   0.617  11.491   8.067 -1.2751  1.4593  3.2814
33165SOL     OW 6099   1.961   8.891   5.101  0.2752  0.0879  0.1157
33165SOL    HW1 6100   2.022   8.943   5.048  0.3457  0.5158  0.6101
33165SOL    HW2 6101   2.015   8.858   5.173 -0.0026  0.1825  0.3668
33166SOL     OW 6102   3.130  10.150   1.710 -0.1156 -0.0231 -0.1506
33166SOL    HW1 6103   3.196  10.206   1.669 -1.7866  2.8149  0.7267
33166SOL    HW2 6104   3.122  10.184   1.800  0.1248 -3.0005  1.0966
33167SOL     OW 6105  11.169  10.283   9.140  0.1889 -0.0988 -0.1330
33167SOL    HW1 6106  11.109  10.232   9.086  0.0374  0.6034 -0.6505
33167SOL    HW2 6107  11.255  10.271   9.099  0.1329  0.1469 -0.3270
33168SOL     OW 6108   4.847   0.929   1.688  0.1875  0.4249 -0.2277
33168SOL    HW1 6109   4.808   0.968   1.610 -0.8083 -0.2349 -0.0743
33168SOL    HW2 6110   4.932   0.897   1.659  0.1360  0.8460 -0.8573
33169SOL     OW 6111   5.024   4.984   0.122  0.1461  0.4551  0.2085
33169SOL    HW1 6112   5.018   4.903   0.172 -1.8389  0.6847  0.4068
33169SOL    HW2 6113   5.032   4.956   0.031  0.4391  0.0424  0.3580
33170SOL     OW 6114   2.388   0.111   8.538 -0.0140 -0.1582 -0.1324
33170SOL    HW1 6115   2.326   0.183   8.541 -0.3975 -0.4441 -1.0028
33170SOL    HW2 6116   2.427   0.115   8.451  0.4463 -0.6019  0.0433
33171SOL     OW 6117   0.402   4.861  11.872 -0.4939  0.5226  0.0306
33171SOL    HW1 6118   0.350   4.816  11.939 -0.3617 -1.2189 -0.9926
33171SOL    HW2 6119   0.339   4.919  11.829 -0.6866  1.3165  1.3238
33172SOL     OW 6120   6.042   3.171   2.927  0.1270  0.3195 -0.2075
33172SOL    HW1 6121   6.122   3.120   2.939  0.5740  1.1768  0.5146
33172SOL    HW2 6122   6.048   3.241   2.991 -1.1843  0.4277 -0.1812
33173SOL     OW 6123   9.054   9.956   5.988 -0.2247 -0.7274  0.0919
33173SOL    HW1 6124   9.088  10.027   6.043 -1.5900  0.0777 -0.0646
33173SOL    HW2 6125   8.961   9.951   6.010 -0.3487 -1.8170 -0.6269
33174SOL     OW 6126   3.468   2.291   9.722 -0.7725 -0.1234 -0.0134
33174SOL    HW1 6127   3.502   2.215   9.769  1.6200  0.2566 -1.0177
33174SOL    HW2 6128   3.376   2.295   9.748 -0.4582 -2.0995  1.6963
33175SOL     OW 6129   0.805   3.624   1.270  0.4121 -0.2251  0.0444
33175SOL    HW1 6130   0.748   3.552   1.246  0.9093 -1.7821  2.9932
33175SOL    HW2 6131   0.894   3.589   1.259  0.7498  0.8883 -0.9868
33176SOL     OW 6132  11.370   3.566   1.596 -0.2813  0.6805  0.1147
33176SOL    HW1 6133  11.397   3.585   1.686  0.4027  1.6200 -0.2748
33176SOL    HW2 6134  11.281   3.602   1.591 -0.2472  0.8096  0.3594
33177SOL     OW 6135   9.450   0.816   7.575 -0.3631 -0.2669  0.6079
33177SOL    HW1 6136   9.441   0.781   7.663  0.4449 -1.2316  0.3228
33177SOL    HW2 6137   9.446   0.911   7.586 -1.6324 -0.3954  1.5139
33178SOL     OW 6138   7.894   6.596   2.704  0.0497 -0.0879  0.0144
33178SOL    HW1 6139   7.982   6.618   2.733  0.1486 -0.3227 -0.1043
33178SOL    HW2 6140   7.903   6.510   2.662 -0.2083 -0.0492 -0.1241
33179SOL     OW 6141   9.701  12.352   7.996 -0.1809  0.5164 -0.0421
33179SOL    HW1 6142   9.718  12.270   8.042 -0.8961 -0.5469 -1.6014
33179SOL    HW2 6143   9.623  12.335   7.942  0.3073  1.8507 -1.2618
33180SOL     OW 6144   4.770   2.338   2.776  0.6354 -0.6303  0.0572
33180SOL    HW1 6145   4.716   2.286   2.835 -0.2609  0.0684 -0.1286
33180SOL    HW2 6146   4.804   2.275   2.712  2.1977 -1.5321  1.6836
33181SOL     OW 6147   0.037   9.755   0.930  0.3010  0.1187  0.5438
33181SOL    HW1 6148   0.080   9.670   0.923  0.2259  0.1585 -0.5740
33181SOL    HW2 6149  -0.004   9.768   0.844 -1.9615  0.0765  1.5253
33182SOL     OW 6150   2.278   6.714   2.227  1.0458 -0.1313 -0.4128
33182SOL    HW1 6151   2.202   6.754   2.184  3.0390  2.3041 -1.9473
33182SOL    HW2 6152   2.251   6.703   2.318 -1.5970 -0.7062 -1.1823
33183SOL     OW 6153  12.384   0.896   9.298  0.3826  0.3170 -0.2459
33183SOL    HW1 6154  12.390   0.982   9.256 -1.4700  0.8535  0.4949
33183SOL    HW2 6155  12.343   0.840   9.231  1.3883  0.0395 -0.6504
33184SOL     OW 6156   2.125  11.433   5.272  0.1180 -0.1272  0.3060
33184SOL    HW1 6157   2.173  11.454   5.192 -2.0497  0.3886 -0.9509
33184SOL    HW2 6158   2.101  11.341   5.263  0.0056 -0.1126  0.4455
33185SOL     OW 6159   3.722   8.862   2.724 -1.4636 -0.4576 -0.4330
33185SOL    HW1 6160   3.783   8.822   2.786 -1.6791 -1.5233 -0.8760
33185SOL    HW2 6161   3.773   8.931   2.682  0.7009 -3.4990 -3.3124
33186SOL     OW 6162   0.575   2.953  12.470 -0.1379  0.5076 -0.0825
33186SOL    HW1 6163   0.529   2.909  12.399  0.2608  0.3742 -0.2632
33186SOL    HW2 6164   0.665   2.918  12.465 -0.1837  0.2611  0.6807
33187SOL     OW 6165   8.854   3.817   0.744 -0.0012  0.2909  0.4196
33187SOL    HW1 6166   8.872   3.731   0.706 -1.3501 -0.6641  1.8580
33187SOL    HW2 6167   8.805   3.863   0.676 -1.0760 -0.8427  0.3903
33188SOL     OW 6168   9.172   8.240   1.193 -0.0884 -0.2896  0.2388
33188SOL    HW1 6169   9.143   8.286   1.114  0.2187 -0.5413 -0.0231
33188SOL    HW2 6170   9.239   8.298   1.230 -1.1336  0.4560  1.0296
33189SOL     OW 6171   7.848  11.579  12.667 -0.2592  0.1047 -0.4820
33189SOL    HW1 6172   7.937  11.594  12.636 -0.1393 -1.5513 -1.0429
33189SOL    HW2 6173   7.806  11.530  12.596 -1.0837 -0.6123  0.4737
33190SOL     OW 6174   3.496   4.165   5.232 -0.1046 -0.4392 -0.1070
33190SOL    HW1 6175   3.411   4.190   5.267 -0.2967 -3.3401  1.8099
33190SOL    HW2 6176   3.480   4.149   5.139 -1.2239  0.7404 -0.1348
33191SOL     OW 6177   7.419   4.162   2.060  0.2271  0.5980 -0.2640
33191SOL    HW1 6178   7.378   4.106   2.126  2.3857 -0.2564  0.4385
33191SOL    HW2 6179   7.488   4.108   2.022  1.4096  2.2750 -0.6274
33192SOL     OW 6180  11.579  10.125   8.862 -0.4695  0.0788  0.2352
33192SOL    HW1 6181  11.673  10.112   8.853 -0.0798  2.3830  0.5443
33192SOL    HW2 6182  11.551  10.164   8.779 -0.9737  0.3038  0.5027
33193SOL     OW 6183   1.193  10.826   9.565 -0.6202  0.3494 -0.1966
33193SOL    HW1 6184   1.254  10.895   9.589 -0.2307  0.0858 -0.4267
33193SOL    HW2 6185   1.136  10.816   9.642  0.2975 -0.1389  0.4334
33194SOL     OW 6186   5.827   9.365   5.342 -0.0419 -0.1841 -0.0045
33194SOL    HW1 6187   5.780   9.370   5.425  0.5018 -0.9275  0.3644
33194SOL    HW2 6188   5.846   9.272   5.331  3.1673  0.2389  0.9389
33195SOL     OW 6189   5.578   3.597   9.821  0.6580  0.1663  0.6467
33195SOL    HW1 6190   5.622   3.611   9.737  0.6562  2.0185  0.9230
33195SOL    HW2 6191   5.485   3.593   9.798  0.6088  1.2604  0.5993
33196SOL     OW 6192  12.563   9.192   8.098  0.0841  0.5626 -0.6778
33196SOL    HW1 6193  12.514   9.135   8.039  1.4716  0.2827 -1.5908
33196SOL    HW2 6194  12.629   9.233   8.043 -0.2802  2.3692  0.1440
33197SOL     OW 6195   1.016   6.305   2.864  0.8709  0.2778  0.4453
33197SOL    HW1 6196   1.010   6.401   2.863  0.6260  0.2556 -0.2253
33197SOL    HW2 6197   1.062   6.286   2.946  0.9907  0.9693  0.5508
33198SOL     OW 6198   8.951   2.032   6.377 -0.3587  0.3509  0.2855
33198SOL    HW1 6199   8.940   2.055   6.469 -0.1076 -0.1713  0.4495
33198SOL    HW2 6200   8.929   2.112   6.329  0.2891  0.8614  0.8324
33199SOL     OW 6201   1.831  12.357   7.340 -0.0516  0.5896 -0.2477
33199SOL    HW1 6202   1.756  12.416   7.329 -0.2415  0.7978  1.7723
33199SOL    HW2 6203   1.891  12.405   7.397  1.2179  0.0470 -1.0847
33200SOL     OW 6204   5.886  10.961   8.817  0.6704  0.2479 -0.0740
33200SOL    HW1 6205   5.921  11.031   8.873  1.0800 -0.7009  0.9073
33200SOL    HW2 6206   5.933  10.883   8.845 -0.2238 -0.5437 -0.7116
33201SOL     OW 6207   0.420  10.546  11.839  0.2238 -0.4828  0.2468
33201SOL    HW1 6208   0.398  10.460  11.803  0.3743 -1.3221  2.0387
33201SOL    HW2 6209   0.516  10.548  11.841  0.2704  0.3393 -1.0786
33202SOL     OW 6210   5.533   7.677   8.825  0.1361 -0.0456  1.2100
33202SOL    HW1 6211   5.463   7.625   8.785 -0.4169  2.2288 -1.0525
33202SOL    HW2 6212   5.533   7.651   8.917 -1.8297 -2.0914  0.7118
33203SOL     OW 6213   2.780   7.361   8.847 -0.3442 -0.0516 -0.1944
33203SOL    HW1 6214   2.762   7.282   8.796  0.1382 -0.4494  0.2442
33203SOL    HW2 6215   2.804   7.329   8.934  2.7415  0.3908 -0.7809
33204SOL     OW 6216  12.227   9.234   2.607 -0.4761 -0.8538 -0.3511
33204SOL    HW1 6217  12.255   9.171   2.674 -0.2486  1.6468  2.0664
33204SOL    HW2 6218  12.282   9.213   2.531  3.9025 -0.0004  2.2210
33205SOL     OW 6219   7.486  12.508  10.304  0.1020 -0.6827  0.1368
33205SOL    HW1 6220   7.536  12.430  10.326  0.4954 -0.1898  1.0248
33205SOL    HW2 6221   7.552  12.571  10.274  0.1877  0.2949  2.1903
33206SOL     OW 6222   8.998   8.654   1.252  0.2423  0.0739  0.1644
33206SOL    HW1 6223   8.939   8.654   1.177  0.7197  0.8222 -0.2305
33206SOL    HW2 6224   8.945   8.623   1.325 -0.4612  0.1358 -0.3123
33207SOL     OW 6225   2.753   4.638   3.680  0.2075 -0.7401 -0.2875
33207SOL    HW1 6226   2.754   4.707   3.747 -0.5438  0.7625 -1.7386
33207SOL    HW2 6227   2.666   4.646   3.641  0.3151 -2.1844 -0.8478
33208SOL     OW 6228   5.661   9.926   3.857  0.3689 -0.3847  0.0176
33208SOL    HW1 6229   5.635   9.897   3.944 -1.4314 -2.4214 -1.1166
33208SOL    HW2 6230   5.608   9.875   3.797  0.1268  2.3170 -2.3029
33209SOL     OW 6231   7.497  12.024  11.364 -0.3674 -0.1006 -0.7308
33209SOL    HW1 6232   7.418  12.076  11.378  1.0239  1.7344  0.7217
33209SOL    HW2 6233   7.495  12.003  11.270 -1.9830  0.8740 -0.9538
33210SOL     OW 6234  10.729  11.660  10.434 -0.0045  0.0248  0.1987
33210SOL    HW1 6235  10.703  11.706  10.355  0.2637  1.3375  0.8521
33210SOL    HW2 6236  10.706  11.569  10.417 -2.0524  0.6223 -0.4962
33211SOL     OW 6237  11.491   4.330   3.774 -0.3636 -0.3022 -0.2141
33211SOL    HW1 6238  11.516   4.247   3.733  0.2129 -0.5596  0.6446
33211SOL    HW2 6239  11.484   4.311   3.867 -0.5239  0.5480 -0.0388
33212SOL     OW 6240   6.094   0.008   1.794  0.3058  0.7734 -0.3382
33212SOL    HW1 6241   6.150   0.086   1.787  1.4887 -0.1498 -2.0207
33212SOL    HW2 6242   6.141  -0.059   1.745 -0.8247 -0.9420  0.8268
33213SOL     OW 6243   4.747   1.540   6.641  0.5013  0.0690 -0.0133
33213SOL    HW1 6244   4.827   1.592   6.649 -0.2028  0.9890  1.4565
33213SOL    HW2 6245   4.767   1.457   6.685  0.4678  0.5268  0.8703
33214SOL     OW 6246  10.694   8.561  10.265 -0.1483 -0.5886 -0.0888
33214SOL    HW1 6247  10.775   8.603  10.291 -1.2670  0.8123  1.3171
33214SOL    HW2 6248  10.667   8.607  10.185 -0.5851  0.3809  0.5960
33215SOL     OW 6249   1.487  10.524   6.529  0.1346  0.0319 -0.0559
33215SOL    HW1 6250   1.467  10.598   6.587  0.3080 -0.1417  0.2219
33215SOL    HW2 6251   1.455  10.447   6.576 -1.3897  0.0482 -0.9726
33216SOL     OW 6252   2.537  12.070   8.079  0.2412 -0.6902 -0.3652
33216SOL    HW1 6253   2.523  12.164   8.069  3.7437 -0.0338 -0.3474
33216SOL    HW2 6254   2.476  12.030   8.017 -0.2607  1.6589 -1.5078
33217SOL     OW 6255  12.531  11.901   5.350  0.1395  0.2806  0.2140
33217SOL    HW1 6256  12.457  11.945   5.308  0.0794 -0.7675 -0.8339
33217SOL    HW2 6257  12.555  11.958   5.423 -1.6822  0.6626  0.5608
33218SOL     OW 6258   3.442  10.113   2.473 -0.6354  0.0946 -0.1262
33218SOL    HW1 6259   3.361  10.069   2.444  0.2817 -0.1657 -2.5363
33218SOL    HW2 6260   3.502  10.041   2.494 -0.7626  0.2821  0.9329
33219SOL     OW 6261   0.590  12.053   7.422 -0.2127  0.2365  0.0773
33219SOL    HW1 6262   0.545  12.132   7.453 -0.8863 -0.0297 -0.2000
33219SOL    HW2 6263   0.520  11.999   7.384  0.2663 -0.4224  0.1189
33220SOL     OW 6264   0.693   1.629   1.669  0.2206 -0.6893  0.3694
33220SOL    HW1 6265   0.772   1.679   1.689  0.0403 -0.2119 -0.1006
33220SOL    HW2 6266   0.711   1.589   1.583 -0.0292 -0.6167  0.2826
33221SOL     OW 6267   3.984   9.472   5.757 -0.5793 -0.4158  0.7843
33221SOL    HW1 6268   3.930   9.437   5.828 -0.3553  0.8629  1.6133
33221SOL    HW2 6269   3.942   9.554   5.732  0.1971 -0.0889  0.4892
33222SOL     OW 6270   6.665   5.225   4.194  0.0881 -0.3554  0.4937
33222SOL    HW1 6271   6.715   5.300   4.224 -1.6575  1.3373 -0.5359
33222SOL    HW2 6272   6.669   5.231   4.098 -4.1526  1.5475  0.2191
33223SOL     OW 6273  12.499   5.831  12.049 -0.4565 -0.3395 -0.4571
33223SOL    HW1 6274  12.520   5.893  11.979 -2.9512  0.8649 -0.2739
33223SOL    HW2 6275  12.540   5.868  12.127 -0.6537  0.2806 -0.6347
33224SOL     OW 6276   2.098   5.417  12.605  0.6065 -0.2917 -0.1176
33224SOL    HW1 6277   2.159   5.369  12.662 -0.1452 -1.8307 -0.5619
33224SOL    HW2 6278   2.090   5.363  12.527 -1.6490 -0.3526  0.0963
33225SOL     OW 6279  11.812   3.664   2.852  0.5256  0.7634  0.1834
33225SOL    HW1 6280  11.903   3.641   2.831  0.1809 -0.4466 -0.0707
33225SOL    HW2 6281  11.760   3.596   2.809 -0.3102 -0.9497  3.6171
33226SOL     OW 6282  12.579   9.803   6.144  0.3831  0.1424 -0.3728
33226SOL    HW1 6283  12.484   9.800   6.155  0.4838 -0.6602  0.4473
33226SOL    HW2 6284  12.609   9.719   6.180  1.4809  0.7656  0.2079
33227SOL     OW 6285  11.007   0.878   8.160  0.4794 -0.3263 -0.1678
33227SOL    HW1 6286  11.038   0.949   8.105 -0.4093  0.2968  0.1190
33227SOL    HW2 6287  10.912   0.887   8.160  0.4669  0.1031  1.9811
33228SOL     OW 6288   8.337   1.427   6.175  0.0133  0.0120  0.2405
33228SOL    HW1 6289   8.349   1.473   6.091  1.1497  1.0531  0.9377
33228SOL    HW2 6290   8.286   1.488   6.228  1.2893  0.4103  1.0748
33229SOL     OW 6291   8.599  11.912   6.622 -0.2488 -0.8819  0.0173
33229SOL    HW1 6292   8.566  11.987   6.573 -1.7523 -0.8016  1.0638
33229SOL    HW2 6293   8.554  11.917   6.707  1.4210 -1.6204  1.0101
33230SOL     OW 6294   6.997   4.894  12.192 -0.4495  0.6074  0.8193
33230SOL    HW1 6295   7.028   4.985  12.196 -0.9174  0.7681  0.8135
33230SOL    HW2 6296   7.044   4.850  12.263  0.2783  0.6945  0.4102
33231SOL     OW 6297   7.976   6.524   0.856  0.4523 -0.3303 -0.6740
33231SOL    HW1 6298   7.929   6.604   0.831 -1.0781 -0.5474  1.2458
33231SOL    HW2 6299   8.000   6.537   0.947 -0.1013 -2.1504 -0.2157
33232SOL     OW 6300  10.396   8.967   4.030  0.0826  0.0211  0.2052
33232SOL    HW1 6301  10.479   8.921   4.045  0.0088  0.5675  2.7225
33232SOL    HW2 6302  10.330   8.911   4.072 -1.0619 -0.8894 -2.5591
33233SOL     OW 6303  10.869   0.972   2.608 -0.3516  0.0061 -0.0639
33233SOL    HW1 6304  10.840   1.023   2.533 -0.7504  0.1463  0.1813
33233SOL    HW2 6305  10.794   0.974   2.669 -0.8079 -1.7583 -0.4896
33234SOL     OW 6306   8.308   5.180  12.125  0.7776  0.3800 -0.1295
33234SOL    HW1 6307   8.360   5.242  12.074  1.4164  1.2335  1.4910
33234SOL    HW2 6308   8.370   5.111  12.148  0.0368 -1.0122 -2.0394
33235SOL     OW 6309   8.774   6.492   5.551  0.1361 -0.1945  0.0490
33235SOL    HW1 6310   8.866   6.492   5.526  0.5138  0.9170  1.3590
33235SOL    HW2 6311   8.746   6.402   5.538  1.6429 -0.7541  0.4946
33236SOL     OW 6312   1.648   5.365   3.206  0.1379  0.3554  0.1571
33236SOL    HW1 6313   1.577   5.382   3.144  1.1912  0.6488 -1.0019
33236SOL    HW2 6314   1.725   5.407   3.167  1.7305 -2.7336 -0.3002
33237SOL     OW 6315   9.405   7.170   5.442 -0.0749  0.1487 -0.1553
33237SOL    HW1 6316   9.314   7.186   5.466  0.2440  1.2430  0.3896
33237SOL    HW2 6317   9.430   7.244   5.388  0.8290  0.4833  0.6746
33238SOL     OW 6318   3.559   1.760  10.609 -0.0469 -0.0812  0.2233
33238SOL    HW1 6319   3.581   1.771  10.701 -0.9037 -1.2786  0.5934
33238SOL    HW2 6320   3.465   1.742  10.609  0.2660 -1.9776 -0.7017
33239SOL     OW 6321  10.196   8.875  11.965 -0.1807  0.0252 -0.2864
33239SOL    HW1 6322  10.120   8.820  11.982  0.8673 -1.4676 -0.2029
33239SOL    HW2 6323  10.163   8.965  11.970 -2.0050 -0.5892 -0.7105
33240SOL     OW 6324   1.738   7.325   0.814  0.0118  0.1298  0.1230
33240SOL    HW1 6325   1.807   7.297   0.754 -0.5350 -0.6186 -0.1736
33240SOL    HW2 6326   1.759   7.283   0.897  0.4717  0.7313  0.3159
33241SOL     OW 6327   4.133   9.386   9.457 -0.6099  0.8811  0.1508
33241SOL    HW1 6328   4.159   9.318   9.520 -2.2052 -1.7182 -1.7498
33241SOL    HW2 6329   4.149   9.468   9.502  1.5979 -0.7256  2.5915
33242SOL     OW 6330   1.935  11.094  11.245  0.8521 -0.2639  0.8752
33242SOL    HW1 6331   1.987  11.018  11.219  0.9065  0.3487 -0.9452
33242SOL    HW2 6332   1.849  11.079  11.204  0.2673 -0.2123  2.0388
33243SOL     OW 6333   4.237   7.383   8.962 -0.2458 -0.1999  0.4451
33243SOL    HW1 6334   4.225   7.451   9.029 -1.0779  0.8868 -0.7592
33243SOL    HW2 6335   4.308   7.417   8.907 -1.8364  0.6342 -1.2160
33244SOL     OW 6336   3.926   4.592   9.110  0.0002  0.5453  0.0767
33244SOL    HW1 6337   3.976   4.586   9.191  2.7347  0.3642 -1.5001
33244SOL    HW2 6338   3.904   4.685   9.102  0.0202  0.6211  0.8537
33245SOL     OW 6339   2.676   7.051   4.620  0.6297 -0.9676  0.1626
33245SOL    HW1 6340   2.626   7.128   4.595  0.0567 -0.7591  1.8042
33245SOL    HW2 6341   2.766   7.083   4.630  0.5789 -0.7332 -0.1160
33246SOL     OW 6342   9.906   1.162   8.552  0.1425 -0.4965 -0.1833
33246SOL    HW1 6343   9.865   1.110   8.483 -1.4114 -0.4573  0.6642
33246SOL    HW2 6344   9.870   1.126   8.634  0.5972  0.6007  0.5202
33247SOL     OW 6345   7.270  12.503   1.505 -0.0091 -0.0996 -0.4011
33247SOL    HW1 6346   7.256  12.432   1.569  1.0137  0.2371  0.2279
33247SOL    HW2 6347   7.307  12.460   1.429 -0.8478 -0.4495 -0.6238
33248SOL     OW 6348   0.571   6.876   9.852 -0.1372 -0.3509  0.0677
33248SOL    HW1 6349   0.567   6.818   9.927  0.7184 -3.9146 -2.4017
33248SOL    HW2 6350   0.620   6.827   9.786  0.6741  3.2410 -2.2988
33249SOL     OW 6351   3.111  12.470   6.889 -0.1215 -0.0591 -0.6859
33249SOL    HW1 6352   3.152  12.444   6.971  0.5490 -0.6033 -1.1757
33249SOL    HW2 6353   3.181  12.463   6.824 -0.0627  2.4400 -0.9707
33250SOL     OW 6354   9.460   5.810  10.558 -0.1806  0.2185  0.2035
33250SOL    HW1 6355   9.410   5.862  10.495  0.9365 -0.4405 -1.2757
33250SOL    HW2 6356   9.393   5.771  10.615 -1.2177  0.9268 -0.4937
33251SOL     OW 6357  10.847   2.673   1.721  0.3169  0.1748  0.0198
33251SOL    HW1 6358  10.917   2.627   1.675  0.0662  0.1845 -0.3747
33251SOL    HW2 6359  10.891   2.716   1.794  0.6539 -0.1680  0.0212
33252SOL     OW 6360   5.775   4.377   2.728  0.2047  0.2341 -0.3151
33252SOL    HW1 6361   5.782   4.401   2.820  1.0373  0.3294 -0.3984
33252SOL    HW2 6362   5.864   4.356   2.701 -0.1424 -0.5657 -0.8966
33253SOL     OW 6363  12.084  11.935   8.635 -0.1136  0.2574 -0.1011
33253SOL    HW1 6364  12.068  12.023   8.602 -0.6180  0.2853  0.2017
33253SOL    HW2 6365  12.146  11.897   8.573  0.3246  0.9184 -0.0741
33254SOL     OW 6366  12.686  12.210   3.836  0.3549  0.0030  0.1085
33254SOL    HW1 6367  12.764  12.163   3.866  0.9707  0.4421 -0.7664
33254SOL    HW2 6368  12.719  12.273   3.772 -0.8060 -0.3252 -0.8563
33255SOL     OW 6369   6.385   5.328   9.173 -0.1112  0.6079  0.4402
33255SOL    HW1 6370   6.320   5.262   9.196  0.3195  0.4001  1.0812
33255SOL    HW2 6371   6.394   5.383   9.251  1.0561  0.1456  0.6575
33256SOL     OW 6372   0.724   9.137   6.756  0.8177 -0.0939  0.4692
33256SOL    HW1 6373   0.673   9.121   6.677 -0.3112  0.7848  0.9940
33256SOL    HW2 6374   0.813   9.152   6.725  0.7926 -1.6682 -0.4675
33257SOL     OW 6375   1.415   0.710  11.989 -0.1088 -0.1224  0.3295
33257SOL    HW1 6376   1.354   0.762  12.040 -0.2880 -1.5129  1.6118
33257SOL    HW2 6377   1.363   0.675  11.917  0.0715  1.5994 -0.6936
33258SOL     OW 6378   4.659  10.347   7.219  0.4983  0.5120 -0.1162
33258SOL    HW1 6379   4.695  10.265   7.251  0.3513  0.4726 -0.0528
33258SOL    HW2 6380   4.721  10.414   7.248 -0.1487  0.5956  1.1166
33259SOL     OW 6381  10.604   9.260  12.280 -0.4143  0.8126  0.1242
33259SOL    HW1 6382  10.607   9.353  12.257  1.6127  0.4892 -1.1852
33259SOL    HW2 6383  10.694   9.238  12.304 -1.3789 -0.2016  3.2701
33260SOL     OW 6384   2.307   6.142  12.451 -0.0363 -0.6130 -0.3533
33260SOL    HW1 6385   2.247   6.076  12.483  0.7166 -1.6618 -1.0257
33260SOL    HW2 6386   2.251   6.217  12.428 -0.6922 -0.1465  2.4035
33261SOL     OW 6387   4.354  12.489   4.305  0.0209  0.0495  0.1810
33261SOL    HW1 6388   4.304  12.413   4.275  2.5714 -2.0863  0.8755
33261SOL    HW2 6389   4.351  12.483   4.401 -0.8936  1.7086  0.2887
33262SOL     OW 6390   0.587   9.465   2.178 -0.0187  0.2252  0.3458
33262SOL    HW1 6391   0.512   9.464   2.237  0.3495 -1.3656  0.8320
33262SOL    HW2 6392   0.575   9.388   2.123  0.7531  0.5065 -0.2359
33263SOL     OW 6393  12.105   2.990   9.132  0.3545 -0.1031 -0.0676
33263SOL    HW1 6394  12.066   2.903   9.128  1.2034 -0.5640  1.1321
33263SOL    HW2 6395  12.033   3.049   9.110 -0.6426 -1.0084  0.6533
33264SOL     OW 6396   6.997   9.529   8.629 -0.2485 -0.3493  0.6688
33264SOL    HW1 6397   7.040   9.547   8.545 -1.2789 -0.0059  0.2023
33264SOL    HW2 6398   6.984   9.435   8.630  0.2958 -0.4281  0.7094
33265SOL     OW 6399   1.012   3.363   1.770 -0.2461  0.0347 -0.2213
33265SOL    HW1 6400   1.068   3.298   1.725 -1.2184 -2.1548  1.5311
33265SOL    HW2 6401   1.061   3.387   1.848 -1.7213 -2.2303  1.5611
33266SOL     OW 6402   1.830   2.640   3.604  0.1741 -0.4855 -0.5581
33266SOL    HW1 6403   1.773   2.624   3.530 -0.4003 -0.5882 -0.1044
33266SOL    HW2 6404   1.842   2.554   3.645  1.2929 -0.6025 -1.0920
33267SOL     OW 6405  12.204  11.697   3.090  0.2412 -0.3261 -0.0253
33267SOL    HW1 6406  12.136  11.649   3.041  0.7397 -1.0107 -0.0630
33267SOL    HW2 6407  12.189  11.789   3.068  0.2290 -0.5926 -1.1953
33268SOL     OW 6408   6.349   1.932   7.050  0.0146  0.0554 -0.6115
33268SOL    HW1 6409   6.263   1.898   7.025 -0.3617  0.0355  0.6417
33268SOL    HW2 6410   6.410   1.862   7.024 -0.4574 -0.3752 -0.5802
33269SOL     OW 6411   9.781  11.822   6.328 -0.1563 -0.3700  0.1377
33269SOL    HW1 6412   9.766  11.731   6.301  1.3416 -0.0234 -2.1769
33269SOL    HW2 6413   9.856  11.850   6.276 -0.4368  2.1457  0.9539
33270SOL     OW 6414   2.031  12.065   9.931  0.0609  0.3292 -0.2652
33270SOL    HW1 6415   2.077  12.060  10.014 -0.0991 -1.2105 -0.2425
33270SOL    HW2 6416   2.076  12.002   9.874 -0.9051  0.0736 -0.7783
33271SOL     OW 6417   8.446  12.501   9.275 -0.4030  0.1412  0.2992
33271SOL    HW1 6418   8.434  12.409   9.300 -0.0634 -0.1323 -0.5052
33271SOL    HW2 6419   8.541  12.514   9.278 -0.4261  0.3632  0.0645
33272SOL     OW 6420   9.558   2.320   3.414 -0.0793  0.3556  0.9491
33272SOL    HW1 6421   9.491   2.252   3.424 -1.2743  1.5212  1.2179
33272SOL    HW2 6422   9.613   2.311   3.491  0.5912 -1.1394  0.3304
33273SOL     OW 6423   5.493   8.440   1.188 -0.3608 -0.2288 -0.1122
33273SOL    HW1 6424   5.499   8.345   1.182 -2.6013 -0.4244 -0.3122
33273SOL    HW2 6425   5.455   8.457   1.274  2.4476  0.7065  1.0450
33274SOL     OW 6426   4.648   6.264   0.358 -0.8306 -0.0092 -0.7804
33274SOL    HW1 6427   4.739   6.234   0.350 -0.8964  0.2024 -2.9630
33274SOL    HW2 6428   4.649   6.352   0.322 -1.5100  0.9282  1.3330
33275SOL     OW 6429   1.282   2.806   0.251 -0.1519  0.0391  0.8985
33275SOL    HW1 6430   1.353   2.858   0.214  1.2810 -1.6206  1.2183
33275SOL    HW2 6431   1.311   2.783   0.339  0.4284 -3.2825 -0.0336
33276SOL     OW 6432   1.109   7.618   6.623 -0.5245 -0.4741  0.0692
33276SOL    HW1 6433   1.066   7.688   6.573  0.7389  2.5436  2.8393
33276SOL    HW2 6434   1.195   7.609   6.583  0.3395  1.6482  1.2899
33277SOL     OW 6435   7.712   9.886   5.501  0.3776  0.0353 -0.7409
33277SOL    HW1 6436   7.751   9.805   5.534 -1.5514 -1.0579 -0.9929
33277SOL    HW2 6437   7.779   9.924   5.444  1.6015 -0.9794 -0.0256
33278SOL     OW 6438   2.986   7.387   3.097  0.4067 -0.1351 -0.1357
33278SOL    HW1 6439   2.987   7.301   3.138  0.8493 -0.9235 -1.7149
33278SOL    HW2 6440   3.018   7.447   3.165  1.0483 -1.3597  0.6753
33279SOL     OW 6441   2.932   3.188   7.102 -0.2442 -0.0244  0.0382
33279SOL    HW1 6442   2.860   3.158   7.158  0.3266 -0.0572  0.7678
33279SOL    HW2 6443   2.900   3.175   7.013 -1.4221  0.6268  0.3507
33280SOL     OW 6444  11.778   3.886   3.009  0.3817 -0.5630  0.2861
33280SOL    HW1 6445  11.704   3.841   3.050  0.7453 -1.6362 -0.2064
33280SOL    HW2 6446  11.821   3.818   2.957  0.9225  0.3731 -0.5061
33281SOL     OW 6447  11.625  10.682   2.034 -0.2114  0.1970  0.2718
33281SOL    HW1 6448  11.662  10.618   2.094 -0.6498 -0.4147 -0.0945
33281SOL    HW2 6449  11.651  10.767   2.069 -2.0405 -0.0401  2.4176
33282SOL     OW 6450   9.655   6.127  10.516 -0.3510  0.5236 -0.2063
33282SOL    HW1 6451   9.625   6.057  10.459  1.4288 -0.9376  0.5385
33282SOL    HW2 6452   9.750   6.129  10.504 -0.0450  0.9178  1.8460
33283SOL     OW 6453   5.547   6.310   3.644  0.0505 -0.5022  0.0695
33283SOL    HW1 6454   5.601   6.312   3.723 -0.4355  0.6082  0.4036
33283SOL    HW2 6455   5.477   6.373   3.662 -1.6215 -2.2105 -0.1597
33284SOL     OW 6456   5.232   0.744  10.521  0.0408 -0.5335 -0.4175
33284SOL    HW1 6457   5.189   0.660  10.539  0.5804 -0.3328  2.2400
33284SOL    HW2 6458   5.318   0.719  10.488  1.1508 -1.2127  2.6493
33285SOL     OW 6459  11.320   2.207  11.876  0.0188  0.1492  0.5237
33285SOL    HW1 6460  11.365   2.149  11.815 -0.9666 -1.0775  0.9264
33285SOL    HW2 6461  11.313   2.290  11.829  3.9234  0.9114  0.9768
33286SOL     OW 6462   4.427   7.783   1.690 -0.5379 -0.7058  0.0890
33286SOL    HW1 6463   4.432   7.727   1.613  0.7412 -2.5456  1.4450
33286SOL    HW2 6464   4.472   7.864   1.663  0.2264 -1.4547 -0.9799
33287SOL     OW 6465  11.071   0.907   1.822  0.3966 -0.0487  0.0242
33287SOL    HW1 6466  10.982   0.889   1.789  0.7708 -0.8415 -0.5887
33287SOL    HW2 6467  11.072   1.001   1.837 -0.5747 -0.0392  0.1077
33288SOL     OW 6468   5.524  11.880   5.889 -0.0443  0.2079 -0.4657
33288SOL    HW1 6469   5.436  11.840   5.884  0.5490 -1.1149 -1.0105
33288SOL    HW2 6470   5.551  11.887   5.797  1.1173 -1.0959 -0.2655
33289SOL     OW 6471  12.286  11.674  12.519  0.0331  0.4516 -0.0072
33289SOL    HW1 6472  12.349  11.605  12.498 -0.3698 -0.0879  0.5205
33289SOL    HW2 6473  12.333  11.755  12.502  1.8912  0.1682  3.0276
33290SOL     OW 6474   0.211   5.476   0.675  0.0973 -0.1407 -0.2776
33290SOL    HW1 6475   0.203   5.380   0.680  0.9851 -0.2586 -0.8462
33290SOL    HW2 6476   0.123   5.508   0.693 -0.0677 -1.0390  0.6440
33291SOL     OW 6477   7.803   4.681   2.743 -0.1100  0.2547  0.0271
33291SOL    HW1 6478   7.774   4.724   2.662 -0.0566 -0.7371 -0.5421
33291SOL    HW2 6479   7.862   4.612   2.713 -2.4480 -2.1840  0.5826
33292SOL     OW 6480   3.002   9.891  11.206  0.0949 -0.4065 -0.2985
33292SOL    HW1 6481   2.921   9.932  11.176  0.1163 -0.3827 -0.3237
33292SOL    HW2 6482   3.028   9.941  11.283  0.2972 -0.1680 -0.5226
33293SOL     OW 6483  11.449   2.991   2.041 -0.0036  0.0349 -0.0505
33293SOL    HW1 6484  11.412   3.077   2.063 -0.8952 -0.5086  0.6328
33293SOL    HW2 6485  11.530   3.011   1.995  2.4937  1.3205  4.2911
33294SOL     OW 6486   8.027   1.966   6.020 -0.6076 -0.0684  0.1089
33294SOL    HW1 6487   8.005   2.032   6.086 -0.7179  0.5849 -0.5714
33294SOL    HW2 6488   8.043   2.016   5.940 -2.5109 -0.9765 -0.9076
33295SOL     OW 6489   2.311   2.712   4.521 -0.2041 -0.0529 -0.6534
33295SOL    HW1 6490   2.326   2.638   4.462  0.0541  0.5991 -1.4145
33295SOL    HW2 6491   2.227   2.748   4.494 -0.7122 -0.5372  0.2355
33296SOL     OW 6492   8.857   1.535  12.528 -1.0298  0.4836 -0.0049
33296SOL    HW1 6493   8.780   1.586  12.504  0.6637  3.7350  0.9770
33296SOL    HW2 6494   8.873   1.556  12.620  0.8207 -0.4256 -0.0623
33297SOL     OW 6495   9.129   0.808  11.612 -1.2327  0.3575  0.1909
33297SOL    HW1 6496   9.109   0.835  11.702 -0.3635 -2.6164  1.3933
33297SOL    HW2 6497   9.122   0.713  11.613  3.0608 -0.2201 -1.7156
33298SOL     OW 6498   1.290   6.951  11.564  0.7920 -0.1050 -0.2678
33298SOL    HW1 6499   1.333   6.986  11.642 -1.8086  2.1391  0.3139
33298SOL    HW2 6500   1.323   6.861  11.557  2.3623  0.1427  2.4148
33299SOL     OW 6501   4.655   0.948   8.962  0.3996 -0.5716 -0.4652
33299SOL    HW1 6502   4.736   0.903   8.985 -0.0401 -0.7997  0.7336
33299SOL    HW2 6503   4.630   0.995   9.042 -1.1874 -1.3652 -0.4609
33300SOL     OW 6504   7.341   4.213   9.506  0.1761 -0.1345 -0.4043
33300SOL    HW1 6505   7.358   4.306   9.521 -1.4958  0.2221 -0.5665
33300SOL    HW2 6506   7.312   4.180   9.591  0.3528 -0.4173 -0.4530
33301SOL     OW 6507   3.829   5.252   6.241 -0.5636  0.1653  0.4191
33301SOL    HW1 6508   3.872   5.216   6.163 -1.1203 -2.5687  1.2553
33301SOL    HW2 6509   3.900   5.287   6.294  0.1589 -0.4852 -0.1010
33302SOL     OW 6510   1.936   1.070   4.165 -0.2894 -0.5791 -0.5751
33302SOL    HW1 6511   1.843   1.081   4.185 -0.4122  0.6773 -1.7551
33302SOL    HW2 6512   1.943   0.979   4.135 -0.3951 -2.0315  3.1801
33303SOL     OW 6513   7.779   5.148   8.879 -0.1287  0.1342  0.0892
33303SOL    HW1 6514   7.785   5.231   8.926  1.1724  0.1667 -0.0833
33303SOL    HW2 6515   7.716   5.163   8.809 -1.1156  0.4760  1.0385
33304SOL     OW 6516   8.182   4.411   8.374 -0.0046  0.2644  0.8080
33304SOL    HW1 6517   8.108   4.351   8.377  0.8926 -0.9159 -0.0603
33304SOL    HW2 6518   8.160   4.473   8.304 -0.3047  0.0977  0.7535
33305SOL     OW 6519   4.085   5.204  11.250 -0.4814  0.0372  0.1625
33305SOL    HW1 6520   4.127   5.127  11.211 -0.4747  0.0417  0.1603
33305SOL    HW2 6521   4.155   5.247  11.299 -0.0823  0.9220 -1.1351
33306SOL     OW 6522   2.879  10.026   5.312 -0.1191  0.3451 -0.1467
33306SOL    HW1 6523   2.833   9.953   5.352 -2.1692  1.3912 -0.4522
33306SOL    HW2 6524   2.810  10.090   5.292  1.4095  1.7641 -1.1723
33307SOL     OW 6525  10.992  11.521   1.562 -0.3807 -0.0555 -0.2999
33307SOL    HW1 6526  10.976  11.614   1.547 -2.6872 -0.2184  0.7645
33307SOL    HW2 6527  10.961  11.478   1.483  0.4200  0.0434 -0.6748
33308SOL     OW 6528   1.078   0.690   7.495 -0.2650  0.4603 -0.1646
33308SOL    HW1 6529   1.086   0.772   7.447  0.0757 -0.4826 -1.8021
33308SOL    HW2 6530   1.159   0.683   7.545  0.6277  0.2120 -1.5694
33309SOL     OW 6531   3.395  10.744   4.117  0.4142  0.2701 -0.6077
33309SOL    HW1 6532   3.397  10.788   4.202  1.8704  1.7463 -1.3588
33309SOL    HW2 6533   3.480  10.701   4.111 -0.3130 -1.2301 -0.6518
33310SOL     OW 6534  10.104   9.423   4.079 -0.7014 -0.0301  0.1880
33310SOL    HW1 6535  10.158   9.348   4.106 -0.7974  0.4448  1.8207
33310SOL    HW2 6536  10.067   9.457   4.161 -1.9920  0.8020 -0.6915
33311SOL     OW 6537   1.851   8.629   4.018  0.0180 -0.0505 -0.7361
33311SOL    HW1 6538   1.853   8.645   4.112 -0.5793 -0.3988 -0.6604
33311SOL    HW2 6539   1.896   8.546   4.007  0.3352  0.1288 -0.7886
33312SOL     OW 6540   5.826   9.814   9.001 -0.4332 -0.0821 -0.4122
33312SOL    HW1 6541   5.830   9.895   9.051 -0.7961 -1.3317  1.7613
33312SOL    HW2 6542   5.735   9.786   9.007 -0.4780 -0.2876 -1.7824
33313SOL     OW 6543  12.087  12.248  10.898 -0.2439 -0.2444 -0.2914
33313SOL    HW1 6544  12.173  12.206  10.891 -0.3169 -0.4898  0.2252
33313SOL    HW2 6545  12.095  12.306  10.974 -1.1354 -1.7588  1.0154
33314SOL     OW 6546  11.307   7.972   6.567 -0.2231  0.2354  0.4759
33314SOL    HW1 6547  11.232   8.026   6.544 -1.0667 -0.9294  0.4424
33314SOL    HW2 6548  11.270   7.888   6.595  0.9773  0.1169  1.8753
33315SOL     OW 6549   3.328  12.264   2.257 -0.7949 -0.3139 -0.4909
33315SOL    HW1 6550   3.325  12.312   2.175  0.6025 -1.3327 -1.1740
33315SOL    HW2 6551   3.394  12.196   2.243  1.5575  1.1524  2.3780
33316SOL     OW 6552   2.026   7.307   7.635 -0.1173 -0.0605 -0.3202
33316SOL    HW1 6553   1.938   7.279   7.610 -0.8841  1.7065  0.2561
33316SOL    HW2 6554   2.034   7.395   7.601  1.1184  0.1242  0.3744
33317SOL     OW 6555   9.270  11.394   3.576  0.0512  0.1022 -0.3483
33317SOL    HW1 6556   9.281  11.454   3.502  1.1108  1.2434  0.6761
33317SOL    HW2 6557   9.175  11.390   3.590 -0.3242 -1.4879 -2.7790
33318SOL     OW 6558   9.380  12.611   9.080 -0.0229  0.4064 -0.3616
33318SOL    HW1 6559   9.388  12.706   9.088  3.3358  0.0830  2.0956
33318SOL    HW2 6560   9.341  12.584   9.163  0.3458 -0.4686 -0.4700
33319SOL     OW 6561   0.242   8.869   1.790  0.0884  0.3150  0.6361
33319SOL    HW1 6562   0.324   8.906   1.758  0.1615  0.0104  0.4568
33319SOL    HW2 6563   0.264   8.830   1.874  0.1063  0.3129  0.6301
33320SOL     OW 6564   6.084   3.624   7.252 -0.3022  0.4002  0.2134
33320SOL    HW1 6565   6.128   3.673   7.321 -0.7693 -0.1780  0.9309
33320SOL    HW2 6566   6.155   3.593   7.195  0.0851  0.8472  0.4539
33321SOL     OW 6567   2.523   9.105   1.953 -0.0977  0.2509  0.4796
33321SOL    HW1 6568   2.589   9.102   1.884  0.9214 -2.0534  1.4309
33321SOL    HW2 6569   2.569   9.145   2.027  0.4271 -1.6514  1.2456
33322SOL     OW 6570   0.841  11.332   8.862 -0.0862  0.1981 -0.0847
33322SOL    HW1 6571   0.885  11.358   8.942 -2.3911  0.1768  1.2748
33322SOL    HW2 6572   0.834  11.413   8.811  0.6140  0.3870  0.1124
33323SOL     OW 6573   3.358   1.276  12.739 -0.4057 -0.7548 -0.0477
33323SOL    HW1 6574   3.305   1.356  12.736 -1.2165 -1.1674  1.9208
33323SOL    HW2 6575   3.294   1.205  12.738  0.2063 -1.3212  0.2890
33324SOL     OW 6576   5.830   7.581   7.002  0.7024  0.2710  0.0344
33324SOL    HW1 6577   5.909   7.625   7.033  0.0747  1.7693 -0.4142
33324SOL    HW2 6578   5.772   7.652   6.975 -0.2713 -0.8533 -0.9301
33325SOL     OW 6579  11.387   6.364   3.305  0.1027 -0.4179 -0.2321
33325SOL    HW1 6580  11.347   6.287   3.265  0.1522  0.3044 -1.7403
33325SOL    HW2 6581  11.439   6.403   3.234 -0.1459  1.1452  0.4175
33326SOL     OW 6582   2.705   0.984   8.310  0.2289  0.4599  0.4658
33326SOL    HW1 6583   2.750   1.046   8.253  0.5894 -0.1299  0.0989
33326SOL    HW2 6584   2.769   0.915   8.326 -1.2629 -1.7361 -2.1422
33327SOL     OW 6585  11.278  12.426   8.963  0.2048 -0.1960  0.4460
33327SOL    HW1 6586  11.283  12.396   8.872 -0.3268 -0.2266  0.4186
33327SOL    HW2 6587  11.367  12.448   8.987  0.2259  0.6311 -0.3621
33328SOL     OW 6588   7.651  11.176   9.632  0.0144 -0.0497  0.9741
33328SOL    HW1 6589   7.729  11.167   9.687  1.5015 -1.5304 -1.1996
33328SOL    HW2 6590   7.644  11.269   9.615  1.4402  0.1078  1.1043
33329SOL     OW 6591   5.678   1.876   7.119 -0.0526  0.0091 -0.2201
33329SOL    HW1 6592   5.680   1.912   7.208  1.7426 -2.0230  0.6629
33329SOL    HW2 6593   5.594   1.830   7.113 -0.5009  0.7590  0.1349
33330SOL     OW 6594   6.954   4.753  11.486 -0.0933  0.4378  0.1120
33330SOL    HW1 6595   6.922   4.794  11.405  0.1559 -0.6824 -0.5873
33330SOL    HW2 6596   7.006   4.678  11.455  1.1863  0.8080  1.2864
33331SOL     OW 6597   5.512   4.607   3.703  0.9550 -0.6534  0.3853
33331SOL    HW1 6598   5.473   4.615   3.790  0.8435 -0.0685  0.2867
33331SOL    HW2 6599   5.516   4.513   3.687 -0.1903 -0.7278  0.4967
33332SOL     OW 6600   7.943   4.169  10.294 -0.6547  0.1192  0.1849
33332SOL    HW1 6601   7.970   4.147  10.383  0.3605 -1.2359 -0.4167
33332SOL    HW2 6602   7.859   4.124  10.283 -0.1534 -0.8170  0.0485
33333SOL     OW 6603   4.479   0.733   5.529 -0.6656 -0.7100  0.2587
33333SOL    HW1 6604   4.563   0.757   5.492 -0.3777 -0.7370  0.8832
33333SOL    HW2 6605   4.495   0.724   5.623 -1.4423 -0.3544  0.4368
33334SOL     OW 6606   8.865  11.199   1.723  0.4503  0.6087 -0.1420
33334SOL    HW1 6607   8.921  11.266   1.761  1.1028 -0.3249  0.6047
33334SOL    HW2 6608   8.903  11.116   1.753 -0.1805 -0.1067 -1.2364
33335SOL     OW 6609   0.162   8.308  11.805 -0.0595  0.3441  0.1577
33335SOL    HW1 6610   0.088   8.271  11.853  0.7417 -2.0311 -0.3365
33335SOL    HW2 6611   0.123   8.349  11.728 -0.9018 -0.7131  0.0040
33336SOL     OW 6612   6.021  10.016   0.504 -0.4604 -0.1483  0.1561
33336SOL    HW1 6613   5.959   9.957   0.460 -1.3155 -0.1148  1.2852
33336SOL    HW2 6614   5.969  10.061   0.570  0.4666  0.9487  0.1681
33337SOL     OW 6615   3.216  11.141  10.197 -0.3401  0.3347  0.1247
33337SOL    HW1 6616   3.143  11.121  10.256 -1.9301  1.2410 -1.4290
33337SOL    HW2 6617   3.185  11.216  10.146  1.0207 -0.3008 -1.7426
33338SOL     OW 6618   1.228   0.930   7.951 -0.1937 -0.0634  0.0180
33338SOL    HW1 6619   1.242   1.025   7.943 -1.0317 -0.0451 -1.9280
33338SOL    HW2 6620   1.276   0.905   8.030 -2.0599  2.3903  2.0828
33339SOL     OW 6621   7.061   3.186   9.421 -0.8229 -0.1884 -0.5436
33339SOL    HW1 6622   7.047   3.267   9.372  0.4581  0.1488 -0.3915
33339SOL    HW2 6623   7.105   3.214   9.501  0.2962 -1.0966 -0.8167
33340SOL     OW 6624   2.158   5.445   0.221 -0.6211 -0.5169  0.0786
33340SOL    HW1 6625   2.065   5.447   0.199 -0.4290 -0.6219 -0.7816
33340SOL    HW2 6626   2.200   5.496   0.152  0.0020 -0.8347  0.2183
33341SOL     OW 6627   4.895  11.423   5.063  0.5617 -0.6324  0.3115
33341SOL    HW1 6628   4.888  11.506   5.110  0.1858 -1.5672  1.9979
33341SOL    HW2 6629   4.833  11.430   4.991 -2.0330 -0.6625  2.4069
33342SOL     OW 6630   7.650   4.281  12.105  0.0479 -0.4580  0.5144
33342SOL    HW1 6631   7.592   4.334  12.050  0.4489  0.1704  0.6899
33342SOL    HW2 6632   7.721   4.340  12.130 -1.2480 -0.0330  3.5861
33343SOL     OW 6633   3.054   6.194  10.926  0.1127 -0.3691 -0.1824
33343SOL    HW1 6634   3.030   6.127  10.990  1.7244 -1.9982 -1.1900
33343SOL    HW2 6635   2.983   6.194  10.863 -1.0769  0.6530  1.0901
33344SOL     OW 6636   1.626   8.129   9.611 -0.6199  0.1901 -0.1669
33344SOL    HW1 6637   1.566   8.177   9.669 -0.0580  2.5178 -1.3790
33344SOL    HW2 6638   1.653   8.053   9.662 -0.9477  1.5879  2.2496
33345SOL     OW 6639   9.285   9.302  12.420 -0.1528  0.1870  0.2721
33345SOL    HW1 6640   9.324   9.255  12.346 -0.8895 -0.1371  0.0860
33345SOL    HW2 6641   9.349   9.293  12.491 -0.5037 -1.5487  0.4045
33346SOL     OW 6642   2.965   9.885   3.131  0.1168 -0.4689  0.5075
33346SOL    HW1 6643   2.916   9.926   3.060  0.1401 -1.7830 -0.2941
33346SOL    HW2 6644   2.898   9.865   3.197 -0.0274  0.0515  0.5201
33347SOL     OW 6645   0.113   8.614   5.027 -0.5784 -0.8487 -0.2108
33347SOL    HW1 6646   0.041   8.646   4.973  1.3683 -1.2042 -3.2055
33347SOL    HW2 6647   0.158   8.693   5.058  0.7587 -0.5243 -2.7323
33348SOL     OW 6648  10.861  10.840   2.029  0.2630  0.4204 -0.3968
33348SOL    HW1 6649  10.952  10.832   2.058 -0.2108 -2.1166  0.6642
33348SOL    HW2 6650  10.811  10.857   2.109 -0.6384 -3.0123 -0.0483
33349SOL     OW 6651   4.356   9.310   5.247 -0.0618  0.0764 -0.0545
33349SOL    HW1 6652   4.419   9.326   5.317  1.4284  0.3368 -1.3864
33349SOL    HW2 6653   4.292   9.380   5.256  0.2034  0.2098  0.9169
33350SOL     OW 6654   3.713   6.532   4.094  0.3385  0.1556 -0.1018
33350SOL    HW1 6655   3.797   6.557   4.055  0.4985  0.9661  0.7152
33350SOL    HW2 6656   3.647   6.567   4.034  0.5857 -0.4243 -0.7117
33351SOL     OW 6657   7.259  12.580   0.028 -0.0959  0.4252 -0.1376
33351SOL    HW1 6658   7.286  12.489   0.038 -1.1975  0.1851  0.9961
33351SOL    HW2 6659   7.253  12.593  -0.066  2.6137  0.1430 -0.4177
33352SOL     OW 6660   1.735   7.845   0.671 -0.0640 -0.3899  0.5026
33352SOL    HW1 6661   1.642   7.823   0.668 -0.0641 -0.5288  1.4488
33352SOL    HW2 6662   1.779   7.760   0.677  0.1329 -0.3303 -0.0763
33353SOL     OW 6663  10.897   7.614  11.532 -0.1213  0.0949  0.0320
33353SOL    HW1 6664  10.902   7.584  11.441 -0.6396 -0.7121  0.2566
33353SOL    HW2 6665  10.976   7.580  11.573 -0.2723 -0.2002  0.0748
33354SOL     OW 6666  10.977   8.101   4.134  0.1671  0.2557 -0.4809
33354SOL    HW1 6667  10.897   8.108   4.081 -0.2843  1.2962  0.3060
33354SOL    HW2 6668  10.947   8.101   4.224  1.1172  2.1603 -0.1222
33355SOL     OW 6669   1.855   3.707   3.611 -0.0104  0.2669 -0.1307
33355SOL    HW1 6670   1.901   3.630   3.644  1.6052  0.9482 -0.7089
33355SOL    HW2 6671   1.867   3.705   3.516  2.1612  2.4479  0.0017
33356SOL     OW 6672   4.148   2.076   8.585 -0.5343 -0.3021 -0.1949
33356SOL    HW1 6673   4.085   2.041   8.648  0.8950 -1.3159  0.7588
33356SOL    HW2 6674   4.233   2.053   8.622  0.4305  1.5052 -1.1385
33357SOL     OW 6675   3.932  11.695   1.622 -0.4680 -0.7800  0.1289
33357SOL    HW1 6676   3.911  11.767   1.681 -0.1245 -0.2235 -0.4106
33357SOL    HW2 6677   3.929  11.617   1.677  2.3002 -0.0628  1.5138
33358SOL     OW 6678   2.683   5.944   9.020  0.3151 -0.2170  0.3834
33358SOL    HW1 6679   2.593   5.951   9.051 -1.1888 -1.3256 -3.1732
33358SOL    HW2 6680   2.728   5.890   9.086 -1.9134 -0.5939  1.6809
33359SOL     OW 6681   9.688   0.361  12.354 -0.2230  0.1301 -0.0409
33359SOL    HW1 6682   9.654   0.296  12.292 -2.2861  0.8993  0.2008
33359SOL    HW2 6683   9.780   0.337  12.367 -0.5338 -1.8062 -1.1259
33360SOL     OW 6684   2.304   0.432  12.126  0.1277 -0.5443 -0.1507
33360SOL    HW1 6685   2.231   0.412  12.186 -0.7549 -0.1870 -1.0825
33360SOL    HW2 6686   2.366   0.360  12.140 -0.2119 -0.6511  0.9380
33361SOL     OW 6687   0.796  10.614  10.900  0.7223  0.0475 -0.4130
33361SOL    HW1 6688   0.704  10.634  10.881  0.4995 -0.9031 -0.3928
33361SOL    HW2 6689   0.823  10.681  10.963  0.2123  0.6683 -0.8363
33362SOL     OW 6690   4.300   4.220   3.097  0.7517  0.2759  0.3587
33362SOL    HW1 6691   4.357   4.157   3.141  0.3767 -0.8107 -0.6542
33362SOL    HW2 6692   4.316   4.302   3.142  2.8123 -0.0804  0.3956
33363SOL     OW 6693   9.351   0.503   6.612 -0.0728 -0.5012  0.1753
33363SOL    HW1 6694   9.312   0.541   6.533 -0.3886 -2.3504 -0.6057
33363SOL    HW2 6695   9.320   0.559   6.683  1.8158  2.4529 -1.1109
33364SOL     OW 6696   0.465   2.593  11.646 -0.5671  0.2929 -0.3259
33364SOL    HW1 6697   0.380   2.586  11.602  0.2204 -0.4487 -1.8264
33364SOL    HW2 6698   0.528   2.561  11.581  0.7956  0.2148  0.9766
33365SOL     OW 6699   2.894  10.361   1.420  0.4694  0.0971 -0.3943
33365SOL    HW1 6700   2.963  10.321   1.368  0.3887 -1.0349  0.3215
33365SOL    HW2 6701   2.856  10.288   1.469 -0.9414  0.7656 -0.4416
33366SOL     OW 6702   0.720   3.847   1.392  0.0804 -0.2665  0.5514
33366SOL    HW1 6703   0.758   3.767   1.357 -2.1396 -2.5835  3.0070
33366SOL    HW2 6704   0.784   3.879   1.455  0.7237 -0.4297 -0.0116
33367SOL     OW 6705  12.636   6.212   0.858 -0.6655  0.7918  0.1392
33367SOL    HW1 6706  12.623   6.196   0.951  1.6760 -0.0341  0.3936
33367SOL    HW2 6707  12.663   6.304   0.852 -0.7512  0.8258  0.2846
33368SOL     OW 6708   2.331   8.884   7.915  0.3821  0.0319  0.1255
33368SOL    HW1 6709   2.240   8.856   7.901  0.0368  0.7565  0.8396
33368SOL    HW2 6710   2.360   8.912   7.828  0.2404 -1.0654 -0.3009
33369SOL     OW 6711  11.362   7.267  12.341  0.0305  0.2729  0.0112
33369SOL    HW1 6712  11.444   7.224  12.317 -0.3201 -0.5527  0.2630
33369SOL    HW2 6713  11.369   7.280  12.435 -0.1962  0.0285  0.0651
33370SOL     OW 6714   9.488   7.389  10.644 -0.0659 -0.3539  0.0656
33370SOL    HW1 6715   9.446   7.411  10.561  2.9712 -0.4419 -1.6701
33370SOL    HW2 6716   9.472   7.295  10.655  1.4814 -0.9025 -1.7904
33371SOL     OW 6717   1.042   2.889   7.459  0.3331 -0.1755  0.0652
33371SOL    HW1 6718   1.007   2.958   7.516  1.0117  0.1844  0.0645
33371SOL    HW2 6719   0.972   2.824   7.454 -0.1699  0.3258  0.3897
33372SOL     OW 6720  10.345   4.011   0.849  0.0798 -0.1546  0.0127
33372SOL    HW1 6721  10.349   4.095   0.896 -1.7200  0.5377 -0.9860
33372SOL    HW2 6722  10.436   3.992   0.826  0.4303  2.0418 -0.6015
33373SOL     OW 6723   5.419   5.700   4.881  0.2043  0.3636  0.1296
33373SOL    HW1 6724   5.456   5.651   4.808 -0.5154  0.5101 -0.3438
33373SOL    HW2 6725   5.341   5.651   4.906 -1.3744  1.9979 -1.3200
33374SOL     OW 6726   2.344   6.131   6.378  0.3400 -0.6019 -0.0657
33374SOL    HW1 6727   2.410   6.105   6.442 -1.4576 -0.7676  1.7987
33374SOL    HW2 6728   2.338   6.226   6.387  0.0442 -0.6312  0.0559
33375SOL     OW 6729  11.661  11.294   3.576  0.3000 -0.1566 -0.2371
33375SOL    HW1 6730  11.612  11.213   3.586  2.0742 -1.2475  0.1966
33375SOL    HW2 6731  11.703  11.308   3.661  2.1038 -0.2581 -1.0578
33376SOL     OW 6732  10.373   5.198   1.939 -0.1628 -0.3937  0.0589
33376SOL    HW1 6733  10.337   5.284   1.959  1.4613 -0.3736  3.6140
33376SOL    HW2 6734  10.413   5.208   1.852 -1.5291  1.8766 -0.3632
33377SOL     OW 6735   4.646   5.238   5.904 -0.4801  0.3563  0.0463
33377SOL    HW1 6736   4.683   5.152   5.921 -0.6633  0.5916  1.7767
33377SOL    HW2 6737   4.708   5.300   5.942 -1.2520  0.8882  0.4798
33378SOL     OW 6738   1.431   3.511   9.710  0.0819 -0.6075 -0.8911
33378SOL    HW1 6739   1.349   3.522   9.661 -0.3924  0.3496  0.0534
33378SOL    HW2 6740   1.442   3.595   9.755  0.6952 -1.3195  0.3159
33379SOL     OW 6741   8.721   4.728   9.667 -0.1702 -0.1592 -0.4710
33379SOL    HW1 6742   8.683   4.696   9.749  0.6549 -0.4558 -0.1965
33379SOL    HW2 6743   8.658   4.793   9.636 -1.4914 -1.4767 -0.6356
33380SOL     OW 6744   3.206   4.764  11.304 -0.9606 -0.6019  0.1318
33380SOL    HW1 6745   3.275   4.699  11.311 -0.2471  0.2141  1.0666
33380SOL    HW2 6746   3.127   4.720  11.336 -0.5891 -1.1446  0.2993
33381SOL     OW 6747   3.493  11.027   4.855 -0.2515 -0.1120  0.2434
33381SOL    HW1 6748   3.456  10.985   4.777  0.9630  0.7839 -0.8666
33381SOL    HW2 6749   3.432  11.098   4.875  0.0185  0.3939 -0.6410
33382SOL     OW 6750   0.412   4.439   3.985 -0.3032 -0.2281 -0.4840
33382SOL    HW1 6751   0.330   4.446   4.033 -0.5074  2.3328 -1.0302
33382SOL    HW2 6752   0.479   4.431   4.052 -0.8865 -1.0409  0.0141
33383SOL     OW 6753   7.850  10.470   3.701  0.4979 -0.1890  0.5231
33383SOL    HW1 6754   7.880  10.538   3.762 -1.1774 -0.5317  1.8075
33383SOL    HW2 6755   7.876  10.502   3.615  1.9888  0.8419  1.2948
33384SOL     OW 6756   7.744   7.834   1.868 -0.1835  0.2054 -0.0637
33384SOL    HW1 6757   7.818   7.777   1.852  0.5785  1.1316  0.0443
33384SOL    HW2 6758   7.717   7.863   1.781  0.1911  0.6044 -0.0515
33385SOL     OW 6759  11.794   5.293  11.302  0.2223  0.1852  0.0443
33385SOL    HW1 6760  11.841   5.376  11.293  1.9520 -0.6323  1.0896
33385SOL    HW2 6761  11.745   5.285  11.220  0.6843  1.8318 -0.4360
33386SOL     OW 6762   0.195  10.428  12.670  0.0202 -0.3878  0.0260
33386SOL    HW1 6763   0.254  10.368  12.716  1.0236  0.1037 -0.5937
33386SOL    HW2 6764   0.243  10.510  12.664 -0.6758 -0.0138 -0.6188
33387SOL     OW 6765   0.431   0.052   8.399  0.5795  0.3694 -0.3868
33387SOL    HW1 6766   0.465  -0.037   8.405  0.2582  0.1228 -1.8006
33387SOL    HW2 6767   0.383   0.066   8.480 -0.1813 -1.1006 -0.5671
33388SOL     OW 6768   3.543  12.667   8.108  0.1422  0.0454 -0.1214
33388SOL    HW1 6769   3.515  12.591   8.058  0.5275  0.1678 -0.5290
33388SOL    HW2 6770   3.638  12.672   8.093 -0.3199  2.9026 -3.4116
33389SOL     OW 6771  12.355   4.612   9.560 -0.2805 -0.2596  0.1253
33389SOL    HW1 6772  12.443   4.577   9.575  0.4035  0.8814 -0.9670
33389SOL    HW2 6773  12.341   4.672   9.633 -0.0415 -0.2780  0.1873
33390SOL     OW 6774   4.855  11.687   3.669 -0.3574  0.0280 -0.4288
33390SOL    HW1 6775   4.773  11.718   3.632 -0.5047  0.2604  0.0750
33390SOL    HW2 6776   4.836  11.676   3.763  0.2983  0.4770 -0.2384
33391SOL     OW 6777  10.556   9.453   3.030 -0.5394  0.4499 -0.3884
33391SOL    HW1 6778  10.572   9.418   2.942 -1.6438  1.0601 -0.8389
33391SOL    HW2 6779  10.487   9.518   3.018  0.2538  1.5285  0.7221
33392SOL     OW 6780  10.861   5.008   3.150  0.2272  0.6443 -0.5545
33392SOL    HW1 6781  10.884   4.960   3.071 -1.4576 -1.6224  0.2349
33392SOL    HW2 6782  10.769   5.032   3.139  0.2424  1.1576  0.3170
33393SOL     OW 6783   0.133  11.216   4.069  0.1641 -0.2226 -0.0665
33393SOL    HW1 6784   0.140  11.144   4.132 -0.1270 -0.4723 -0.3161
33393SOL    HW2 6785   0.118  11.294   4.123 -0.1188 -0.4395  0.1712
33394SOL     OW 6786   4.234   0.536   3.769  0.6619 -0.5132 -0.4292
33394SOL    HW1 6787   4.212   0.629   3.771  0.2542 -0.6134 -0.2288
33394SOL    HW2 6788   4.206   0.503   3.854  0.8752 -0.8058 -0.4703
33395SOL     OW 6789   0.717   2.295  11.518  0.3674  0.4081  0.5184
33395SOL    HW1 6790   0.648   2.318  11.456  1.6503 -0.7795 -1.4239
33395SOL    HW2 6791   0.671   2.247  11.587 -0.9142  0.6611 -0.1212
33396SOL     OW 6792   3.593  10.496   3.122  0.2824  0.0179 -1.1359
33396SOL    HW1 6793   3.543  10.417   3.143 -0.2129  0.7583  0.6593
33396SOL    HW2 6794   3.626  10.480   3.033 -0.2639 -1.9517 -1.0426
33397SOL     OW 6795   6.524   0.052   5.270  0.8180 -0.3717 -0.7433
33397SOL    HW1 6796   6.569  -0.022   5.310 -0.2016 -0.7882 -0.3312
33397SOL    HW2 6797   6.591   0.094   5.215  1.4169 -1.5889 -0.9824
33398SOL     OW 6798  11.983   8.820   1.565 -0.0249 -0.2578 -0.3491
33398SOL    HW1 6799  12.003   8.839   1.656 -1.7715  1.0632 -0.1915
33398SOL    HW2 6800  12.065   8.839   1.518  0.5500  0.1813  0.7967
33399SOL     OW 6801   8.686   0.426   1.516  0.2353 -0.5583  0.0961
33399SOL    HW1 6802   8.774   0.428   1.554  0.2301 -3.4692  0.4651
33399SOL    HW2 6803   8.628   0.412   1.590 -0.4918  0.5009 -0.2528
33400SOL     OW 6804   2.074  12.693  11.671  0.2090  0.3560  0.7490
33400SOL    HW1 6805   2.092  12.782  11.701  0.9575  0.7664 -0.7901
33400SOL    HW2 6806   1.979  12.689  11.665  0.1832  1.3152  0.1967
33401SOL     OW 6807  11.232   4.189   5.276 -0.1901 -0.1151  0.4743
33401SOL    HW1 6808  11.210   4.255   5.211  0.5685 -0.4252 -0.1192
33401SOL    HW2 6809  11.152   4.177   5.327  0.0430  2.2720  1.5204
33402SOL     OW 6810   2.593  10.444   7.638  0.3990  0.2111 -0.1571
33402SOL    HW1 6811   2.561  10.528   7.606 -0.0195  0.0607 -0.1429
33402SOL    HW2 6812   2.665  10.466   7.697  0.2224  0.5675 -0.0712
33403SOL     OW 6813   6.537   4.356  10.617 -0.0553 -0.2430  0.3578
33403SOL    HW1 6814   6.443   4.372  10.620 -0.0644  0.2016 -1.2580
33403SOL    HW2 6815   6.544   4.265  10.586  0.0442 -0.3176  0.5998
33404SOL     OW 6816   6.854   7.800   3.941  0.0624  0.0443 -0.3374
33404SOL    HW1 6817   6.789   7.780   4.008  1.3324 -1.2348  0.5692
33404SOL    HW2 6818   6.880   7.714   3.907  0.0668  0.6295 -1.8802
33405SOL     OW 6819  11.010   3.420   3.560 -0.5103 -0.4182 -1.0585
33405SOL    HW1 6820  11.085   3.379   3.518  0.0680 -1.2680  0.7093
33405SOL    HW2 6821  10.938   3.409   3.497  0.3879 -1.2628 -1.9699
33406SOL     OW 6822   1.470   5.517   6.071 -0.7091  0.4971 -0.0622
33406SOL    HW1 6823   1.484   5.424   6.052 -0.0301  0.5176  0.3101
33406SOL    HW2 6824   1.377   5.524   6.090 -0.7453 -0.1246  0.0094
33407SOL     OW 6825  11.348   0.019   1.116  0.5031 -0.7334  0.5002
33407SOL    HW1 6826  11.407   0.007   1.041  2.0044  0.5443  1.4295
33407SOL    HW2 6827  11.300  -0.064   1.121 -2.1926  0.1869 -3.9184
33408SOL     OW 6828  11.841   8.997  10.082 -0.2383  0.4415 -0.2192
33408SOL    HW1 6829  11.862   9.075  10.133 -0.5898  0.1306  0.4207
33408SOL    HW2 6830  11.842   9.026   9.991 -2.4069  1.7229  0.0931
33409SOL     OW 6831  11.539   2.069   8.033  0.3989 -0.4893  0.0452
33409SOL    HW1 6832  11.472   2.001   8.026 -0.8431  0.6890 -0.0666
33409SOL    HW2 6833  11.605   2.046   7.968 -1.6168  0.1503 -2.3744
33410SOL     OW 6834   2.991  10.596   8.500  0.1699 -0.5362  0.1879
33410SOL    HW1 6835   2.994  10.603   8.596 -0.1540  1.5579  0.0765
33410SOL    HW2 6836   3.004  10.685   8.469  0.5515 -1.2266 -1.7527
33411SOL     OW 6837   1.017   1.543   0.728 -0.7019 -0.0799 -0.2623
33411SOL    HW1 6838   1.057   1.551   0.642  0.5968 -0.3977  0.2963
33411SOL    HW2 6839   0.937   1.595   0.723 -0.7601 -0.2857 -1.7252
33412SOL     OW 6840   5.243   7.443   8.205 -0.1577  0.5795 -0.1966
33412SOL    HW1 6841   5.163   7.486   8.175 -0.1446  0.5032 -0.3356
33412SOL    HW2 6842   5.214   7.385   8.275 -0.2981  0.1493 -0.6100
33413SOL     OW 6843  10.956   7.983   5.314 -0.8546  0.0887 -0.1332
33413SOL    HW1 6844  10.974   7.908   5.257  1.6586  0.5428 -0.0308
33413SOL    HW2 6845  10.982   7.953   5.401  0.7320  1.2473 -0.1876
33414SOL     OW 6846   3.198   2.092   6.970  0.1454  0.3231  0.2058
33414SOL    HW1 6847   3.106   2.095   6.996 -0.4107  0.6533 -1.6748
33414SOL    HW2 6848   3.234   2.177   6.997  0.0192  0.0571  1.2638
33415SOL     OW 6849  12.167  12.184   2.235  0.0212  0.5119  0.5210
33415SOL    HW1 6850  12.203  12.129   2.305  1.1107  1.1222  0.4690
33415SOL    HW2 6851  12.160  12.125   2.160 -0.9877 -0.1039  1.0706
33416SOL     OW 6852   6.343   3.236   2.622 -0.2977  0.0769 -0.2108
33416SOL    HW1 6853   6.402   3.211   2.551  1.4820  0.9649  0.8947
33416SOL    HW2 6854   6.327   3.329   2.609 -1.2873 -0.0923 -0.3361
33417SOL     OW 6855   1.691   0.052  10.764  0.1173 -0.4814 -0.1584
33417SOL    HW1 6856   1.679   0.037  10.670 -1.8733 -1.1573  0.1500
33417SOL    HW2 6857   1.602   0.045  10.800  0.6901  0.8177  1.6286
33418SOL     OW 6858  10.939   2.240   2.354  0.0316  0.2859 -0.4301
33418SOL    HW1 6859  10.957   2.178   2.425  0.9113  0.4424 -0.5043
33418SOL    HW2 6860  10.978   2.322   2.384 -0.0561  0.4867 -0.8604
33419SOL     OW 6861   1.017  11.309   8.168  0.1876 -0.0682  0.7167
33419SOL    HW1 6862   1.019  11.228   8.218  0.3618  1.8128  4.0835
33419SOL    HW2 6863   1.060  11.373   8.224 -2.1274  2.9394 -0.5994
33420SOL     OW 6864   6.128  12.312   6.305 -0.0543 -0.1759 -0.3611
33420SOL    HW1 6865   6.045  12.344   6.342 -0.0369  0.9363 -1.2497
33420SOL    HW2 6866   6.184  12.389   6.300  0.2129 -0.4397 -1.9482
33421SOL     OW 6867  10.993   7.299   8.234 -0.6317  0.0992  0.2492
33421SOL    HW1 6868  11.084   7.293   8.204 -0.5964  0.2551  0.3230
33421SOL    HW2 6869  10.998   7.277   8.327 -0.8377 -1.0696  0.0002
33422SOL     OW 6870   7.757   3.171   4.176  0.0848  0.5114  0.2343
33422SOL    HW1 6871   7.796   3.096   4.221 -1.9124 -0.9241 -0.3191
33422SOL    HW2 6872   7.758   3.148   4.084  1.5800  2.2402 -0.2524
33423SOL     OW 6873   4.263  12.428   0.284 -0.3447 -0.2800 -0.5470
33423SOL    HW1 6874   4.264  12.424   0.380  1.3674 -0.7563 -0.5607
33423SOL    HW2 6875   4.231  12.342   0.257 -3.0968  0.6088 -0.4342
33424SOL     OW 6876   6.739   8.301   6.970  0.5359 -0.1969  0.0051
33424SOL    HW1 6877   6.701   8.216   6.950 -0.6147  0.1498  0.6496
33424SOL    HW2 6878   6.825   8.281   7.008  1.1441 -0.9748 -1.6713
33425SOL     OW 6879   1.488  10.546  12.263  0.3022 -0.7353 -0.2156
33425SOL    HW1 6880   1.438  10.611  12.313  1.7870  1.1916 -1.1024
33425SOL    HW2 6881   1.514  10.481  12.329  0.7986  0.8604  1.2584
33426SOL     OW 6882   1.013   1.827   8.661 -0.2059 -0.5574  0.0171
33426SOL    HW1 6883   1.107   1.832   8.643 -0.5938 -0.5129 -2.1943
33426SOL    HW2 6884   1.008   1.784   8.747  1.8179 -0.3528  0.2905
33427SOL     OW 6885   7.903  11.418   3.834  0.3197 -0.1887 -0.0236
33427SOL    HW1 6886   7.826  11.427   3.890 -0.5594 -2.9388 -0.6548
33427SOL    HW2 6887   7.967  11.480   3.872 -0.5416 -1.1626  3.4205
33428SOL     OW 6888   8.775   2.423   1.375 -0.0827 -0.2371 -0.3029
33428SOL    HW1 6889   8.865   2.437   1.404 -0.3404 -0.8210  0.8100
33428SOL    HW2 6890   8.759   2.494   1.312  0.7291  0.6250  0.4275
33429SOL     OW 6891  11.135  12.547   2.834  0.0928  0.4498 -0.1533
33429SOL    HW1 6892  11.181  12.561   2.917 -0.4741  2.5312 -0.1137
33429SOL    HW2 6893  11.200  12.563   2.766  0.3311 -0.3310 -0.1092
33430SOL     OW 6894  11.028  12.076   5.776 -0.4097 -0.5595  0.3287
33430SOL    HW1 6895  11.065  12.103   5.691 -1.0118 -3.3820 -0.9328
33430SOL    HW2 6896  10.969  12.148   5.799  1.0611  1.0925 -0.7509
33431SOL     OW 6897   6.177   3.676   1.946  0.0346  0.2395 -0.4024
33431SOL    HW1 6898   6.204   3.603   2.002  1.3437 -0.2622 -1.6263
33431SOL    HW2 6899   6.082   3.676   1.950  0.0679 -0.3341  1.1052
33432SOL     OW 6900   1.753  11.813   1.199  0.4409  0.0173  0.3764
33432SOL    HW1 6901   1.708  11.857   1.127 -1.1457 -0.7181  0.8563
33432SOL    HW2 6902   1.758  11.879   1.268  0.4501  0.2185  0.1844
33433SOL     OW 6903   4.384   9.461   5.746  0.9165  0.2806 -0.0933
33433SOL    HW1 6904   4.310   9.413   5.783  0.2664  1.3549  0.0337
33433SOL    HW2 6905   4.405   9.413   5.665 -1.3809  1.2203 -1.3341
33434SOL     OW 6906   3.006  11.761  10.027 -0.2176  0.0470 -0.0005
33434SOL    HW1 6907   2.974  11.683   9.982  0.8367 -0.0220 -0.6600
33434SOL    HW2 6908   2.928  11.815  10.040 -0.6759 -0.2796 -1.2320
33435SOL     OW 6909   8.076   0.914   2.802 -0.0796 -0.2249  0.0103
33435SOL    HW1 6910   8.047   0.969   2.875 -0.5870  2.1863 -1.8790
33435SOL    HW2 6911   8.059   0.825   2.831 -2.9406  0.7543  1.7444
33436SOL     OW 6912   2.773   8.705   3.303 -0.2276 -0.3772 -0.8323
33436SOL    HW1 6913   2.777   8.775   3.237  0.6159 -0.1085 -0.5056
33436SOL    HW2 6914   2.788   8.625   3.254 -0.5019 -0.2702 -1.1000
33437SOL     OW 6915   5.822   4.576   5.897 -0.3163 -0.1104  0.2093
33437SOL    HW1 6916   5.761   4.646   5.873 -1.2164 -0.7355  0.6386
33437SOL    HW2 6917   5.860   4.549   5.814 -0.6573  0.2611 -0.0750
33438SOL     OW 6918   6.877   0.361   2.828 -0.6284 -0.0702  0.1677
33438SOL    HW1 6919   6.956   0.306   2.833 -0.2241  0.2080 -2.1021
33438SOL    HW2 6920   6.812   0.307   2.784 -1.9506 -0.4587  2.4090
33439SOL     OW 6921  10.464   6.492  12.132  0.2711  0.2607 -0.8191
33439SOL    HW1 6922  10.466   6.452  12.046 -2.5830 -0.3125 -0.7122
33439SOL    HW2 6923  10.423   6.578  12.119 -0.3542  0.0995 -0.0337
33440SOL     OW 6924   4.134   1.371  11.157  0.6592  0.7369 -0.3349
33440SOL    HW1 6925   4.166   1.282  11.150 -0.8137  0.1504  0.0046
33440SOL    HW2 6926   4.089   1.375  11.241 -0.6782  1.3036 -1.0286
33441SOL     OW 6927   4.735   6.455  12.540  0.4644  0.4187 -0.1020
33441SOL    HW1 6928   4.672   6.479  12.473  2.0013  0.7564 -1.5085
33441SOL    HW2 6929   4.786   6.536  12.554  0.5943  0.1616  0.9795
33442SOL     OW 6930   5.983   8.550   9.376 -0.0272 -0.4777  0.6478
33442SOL    HW1 6931   5.916   8.619   9.377  0.6298  0.1740  1.0711
33442SOL    HW2 6932   6.062   8.594   9.345  1.2435 -0.2028  3.8624
33443SOL     OW 6933   9.891   5.111   3.552 -0.0516 -0.2412  0.1073
33443SOL    HW1 6934   9.802   5.076   3.559 -0.3085  0.2996 -0.3767
33443SOL    HW2 6935   9.883   5.202   3.578  0.4375 -0.2935  0.4400
33444SOL     OW 6936   2.133   4.388   3.990 -0.4040  0.4794 -0.3848
33444SOL    HW1 6937   2.223   4.394   4.021 -0.8423  2.6212  0.7211
33444SOL    HW2 6938   2.105   4.480   3.980 -1.6395 -0.0845 -3.2599
33445SOL     OW 6939   0.016  11.406   0.441 -0.5484  0.4122  0.2005
33445SOL    HW1 6940   0.016  11.437   0.532  0.8527  2.0575 -0.2930
33445SOL    HW2 6941  -0.070  11.432   0.407 -0.8749  0.2739  0.9046
33446SOL     OW 6942   5.686   9.167   6.763  0.4631  0.0701 -0.3558
33446SOL    HW1 6943   5.696   9.184   6.670 -0.3944 -0.7668 -0.6194
33446SOL    HW2 6944   5.665   9.074   6.769 -1.0323  0.4133  0.5290
33447SOL     OW 6945   0.180   4.169   7.994 -0.8389 -0.1140 -0.3584
33447SOL    HW1 6946   0.271   4.164   8.024 -0.4214  0.4156 -1.4713
33447SOL    HW2 6947   0.183   4.144   7.902 -1.8745 -0.3665 -0.3428
33448SOL     OW 6948   0.919   4.679   4.735 -0.2662  0.5259  0.1457
33448SOL    HW1 6949   0.949   4.635   4.815  0.0954 -3.6383 -2.0494
33448SOL    HW2 6950   0.989   4.666   4.672 -0.7705  3.2371 -1.0981
33449SOL     OW 6951   3.037   0.017  11.610 -0.3994  0.1519  0.1579
33449SOL    HW1 6952   3.108   0.074  11.642  0.6438 -0.7304 -0.5050
33449SOL    HW2 6953   3.022  -0.045  11.682 -1.8659  1.4994  1.0732
33450SOL     OW 6954   8.163   4.314   1.352 -0.4197  0.3248 -0.5722
33450SOL    HW1 6955   8.161   4.254   1.426 -0.0822  0.6471 -0.2948
33450SOL    HW2 6956   8.114   4.270   1.283 -0.3732 -0.1639 -0.2944
33451SOL     OW 6957   0.816  10.567   9.302  0.3557 -0.1309 -0.2210
33451SOL    HW1 6958   0.906  10.535   9.314  0.2470 -0.6978 -0.8888
33451SOL    HW2 6959   0.764  10.489   9.285  0.0580  0.3607 -1.6942
33452SOL     OW 6960  12.712   5.912   8.909 -0.2555  0.1899  0.2689
33452SOL    HW1 6961  12.681   5.855   8.838 -1.3145 -1.1926  1.7711
33452SOL    HW2 6962  12.780   5.861   8.953 -0.7429  0.3488  1.2269
33453SOL     OW 6963   3.650  11.508   7.005 -0.0630  0.0269  0.3560
33453SOL    HW1 6964   3.738  11.507   7.041  0.3319  1.0119 -0.5420
33453SOL    HW2 6965   3.600  11.564   7.066 -0.0155 -0.3255  0.7236
33454SOL     OW 6966   2.274   1.030   4.127  0.5676  0.2651 -0.5946
33454SOL    HW1 6967   2.340   1.005   4.063  0.5629 -0.7722 -0.2168
33454SOL    HW2 6968   2.191   1.006   4.086  0.2497  2.8298 -1.6642
33455SOL     OW 6969  11.497   6.888   0.906 -0.4483  0.3265 -0.3643
33455SOL    HW1 6970  11.562   6.897   0.836  1.4054 -1.2707  1.0282
33455SOL    HW2 6971  11.449   6.808   0.884  0.4580 -0.4499  0.3503
33456SOL     OW 6972   9.649  11.520   6.652 -0.0472 -0.0450 -0.4756
33456SOL    HW1 6973   9.583  11.589   6.649 -0.1779 -0.1001  0.6647
33456SOL    HW2 6974   9.733  11.566   6.651 -0.0695  0.0199 -2.0988
33457SOL     OW 6975   9.849   1.736   1.724  0.1394 -0.5121  0.4888
33457SOL    HW1 6976   9.923   1.792   1.703 -0.3057 -0.3620 -0.8394
33457SOL    HW2 6977   9.833   1.749   1.817  1.7855 -0.5760  0.8002
33458SOL     OW 6978  11.844   0.935   8.274 -0.2972  0.7616 -0.0273
33458SOL    HW1 6979  11.766   0.887   8.303  0.0484 -0.4938 -1.0564
33458SOL    HW2 6980  11.811   0.998   8.209 -0.4761  0.3070 -0.3794
33459SOL     OW 6981   8.474   0.682   0.944  0.5226  0.3754  0.6008
33459SOL    HW1 6982   8.403   0.746   0.934  0.2767 -0.0812 -0.8779
33459SOL    HW2 6983   8.460   0.620   0.872  0.9482 -1.1610  1.8058
33460SOL     OW 6984  12.302   8.249   6.759  0.3542  0.3528 -0.7195
33460SOL    HW1 6985  12.292   8.176   6.697  1.8585 -0.8421  0.3562
33460SOL    HW2 6986  12.397   8.265   6.762  0.2350  0.9213  0.6454
33461SOL     OW 6987   6.049  12.088   9.107 -0.1932  0.2639  0.7053
33461SOL    HW1 6988   5.993  12.139   9.049  1.5817  0.6218 -0.7710
33461SOL    HW2 6989   6.037  12.127   9.193 -0.0559  2.1865 -0.1112
33462SOL     OW 6990   0.087   0.080  11.619  0.1145 -0.1756  0.2527
33462SOL    HW1 6991   0.033   0.143  11.665  0.2802  0.1328  0.0260
33462SOL    HW2 6992   0.160   0.063  11.679  0.9548  1.1117 -0.3564
33463SOL     OW 6993  12.161   8.310   0.616 -0.0878  0.2858 -0.8219
33463SOL    HW1 6994  12.216   8.252   0.563 -0.5027 -0.2823 -0.6252
33463SOL    HW2 6995  12.176   8.282   0.706 -0.6168  0.2062 -0.7601
33464SOL     OW 6996  10.165   8.211   9.654  0.1377  0.2668  0.2164
33464SOL    HW1 6997  10.072   8.217   9.632 -0.2386  0.7116  1.7775
33464SOL    HW2 6998  10.171   8.136   9.713  0.7235  0.4316  0.3718
33465SOL     OW 6999   6.005   3.787   8.250 -0.4858  0.0499 -0.8061
33465SOL    HW1 7000   6.073   3.833   8.299  1.8045 -1.0293 -2.7857
33465SOL    HW2 7001   5.985   3.845   8.177  1.5648 -1.4319 -2.6545
33466SOL     OW 7002   9.401   0.876   9.865 -0.1237  0.0111  0.1868
33466SOL    HW1 7003   9.417   0.809   9.799 -1.1315 -0.5018  0.4518
33466SOL    HW2 7004   9.399   0.958   9.815 -1.0653 -0.3882 -0.4507
33467SOL     OW 7005   2.949   5.383   7.541 -0.1307 -0.1766 -0.5515
33467SOL    HW1 7006   2.955   5.362   7.448  1.7087  0.0484 -0.5178
33467SOL    HW2 7007   2.961   5.299   7.585  0.6117 -0.0542 -0.5092
33468SOL     OW 7008   8.282  12.228  12.722  0.0755  0.0765  0.3039
33468SOL    HW1 7009   8.276  12.319  12.692 -0.7256 -0.3897 -1.0373
33468SOL    HW2 7010   8.192  12.206  12.749  0.3297 -0.2193  0.9128
33469SOL     OW 7011   5.086   2.606   6.453 -0.5931  0.4832  0.2705
33469SOL    HW1 7012   5.148   2.534   6.467  0.7246  1.0792 -2.0109
33469SOL    HW2 7013   5.025   2.573   6.387 -1.4734  0.6300  0.9960
33470SOL     OW 7014  10.113   0.208   0.131 -0.5551  0.1948 -0.2145
33470SOL    HW1 7015  10.168   0.161   0.193 -0.0286  1.8533  0.6055
33470SOL    HW2 7016  10.148   0.185   0.045 -0.0617 -0.5718  0.1866
33471SOL     OW 7017   2.516   6.395   7.652  0.2120  0.0214  0.1043
33471SOL    HW1 7018   2.506   6.489   7.665 -0.1533  0.0544 -0.3808
33471SOL    HW2 7019   2.465   6.355   7.721 -1.2082  0.1865 -0.8117
33472SOL     OW 7020   7.793   6.050   1.482 -0.8989  0.2692  0.1827
33472SOL    HW1 7021   7.738   6.011   1.550  0.0401 -0.4578  0.5609
33472SOL    HW2 7022   7.838   6.123   1.525 -0.6847  0.1221  0.2149
33473SOL     OW 7023   4.959   5.167   2.538  0.8343  0.4137  0.1459
33473SOL    HW1 7024   4.864   5.181   2.535  0.5532 -1.4319 -1.2595
33473SOL    HW2 7025   4.984   5.191   2.627 -0.8262  1.5500  0.3599
33474SOL     OW 7026   1.892   6.884   6.691 -0.4518 -0.1916 -0.6748
33474SOL    HW1 7027   1.945   6.951   6.649 -0.7249  0.9619  0.7285
33474SOL    HW2 7028   1.820   6.867   6.629  0.5378 -0.4553 -1.7780
33475SOL     OW 7029   0.803   2.993  12.219  0.1606 -0.2200 -0.7595
33475SOL    HW1 7030   0.855   3.066  12.253  2.2986 -0.6527 -2.8018
33475SOL    HW2 7031   0.807   2.926  12.287 -1.0563  1.1694  0.7552
33476SOL     OW 7032   9.840  11.661   4.069  0.1168 -0.5053  0.4408
33476SOL    HW1 7033   9.747  11.644   4.051 -0.1561 -0.3535  1.6147
33476SOL    HW2 7034   9.864  11.729   4.007 -0.4791 -0.7381 -0.0657
33477SOL     OW 7035  12.391  11.463   1.994  0.1988  0.0478  0.4652
33477SOL    HW1 7036  12.470  11.468   2.048  0.5181 -2.3875  0.3390
33477SOL    HW2 7037  12.341  11.390   2.030 -1.4301  0.7800 -0.2119
33478SOL     OW 7038  12.579   4.686   3.644 -0.1003  0.1610  0.1252
33478SOL    HW1 7039  12.621   4.648   3.567 -1.4704  0.0098 -0.5813
33478SOL    HW2 7040  12.647   4.685   3.711  0.1304 -3.1919  0.0437
33479SOL     OW 7041   2.275   7.186  12.576  0.1720 -0.6306 -0.5083
33479SOL    HW1 7042   2.202   7.228  12.531 -1.0844 -0.5383  1.4807
33479SOL    HW2 7043   2.285   7.102  12.531 -0.6030 -0.2959 -1.3468
33480SOL     OW 7044   2.756  10.329   6.973  0.0152 -0.3810 -0.6176
33480SOL    HW1 7045   2.715  10.268   7.035  0.9066  0.6557  1.0862
33480SOL    HW2 7046   2.752  10.284   6.889  0.5622 -2.7680  0.5372
33481SOL     OW 7047  12.257   6.810   0.704 -0.0224  0.0895  0.8211
33481SOL    HW1 7048  12.328   6.868   0.732 -1.2964  1.0364  2.2822
33481SOL    HW2 7049  12.278   6.726   0.744  0.5507  0.2265  0.8165
33482SOL     OW 7050   5.345   3.698   9.565 -0.0085  0.0239 -0.2348
33482SOL    HW1 7051   5.292   3.621   9.587 -0.6628 -0.1946 -2.3757
33482SOL    HW2 7052   5.338   3.754   9.642 -0.2317 -1.6696  1.0360
33483SOL     OW 7053   6.873  12.554  12.419  0.0113  0.4199 -0.5158
33483SOL    HW1 7054   6.966  12.539  12.432  0.2953  2.1659 -0.2120
33483SOL    HW2 7055   6.869  12.624  12.353 -1.0248  1.1933  0.3278
33484SOL     OW 7056   3.434   7.277   8.025  0.0808 -0.1227  0.3188
33484SOL    HW1 7057   3.518   7.308   7.990  0.0179  1.6376  1.6166
33484SOL    HW2 7058   3.390   7.239   7.949  1.3920  0.3468 -0.7294
33485SOL     OW 7059   1.816  10.985   5.110 -0.2502  0.0234  0.1361
33485SOL    HW1 7060   1.846  11.071   5.080 -1.1761  0.1849 -0.3658
33485SOL    HW2 7061   1.756  10.956   5.041 -1.5795 -0.0825  1.3055
33486SOL     OW 7062   4.505   0.425   9.491  0.2659  0.6956  0.0795
33486SOL    HW1 7063   4.421   0.430   9.536  0.1985  1.0460 -0.0844
33486SOL    HW2 7064   4.491   0.364   9.419  0.3880  0.0881  0.5540
33487SOL     OW 7065  12.183   9.522  12.502 -0.4534 -0.1594 -0.4175
33487SOL    HW1 7066  12.260   9.470  12.479 -0.0468  0.2403  0.0027
33487SOL    HW2 7067  12.111   9.483  12.454  0.1650 -0.0315 -1.4639
33488SOL     OW 7068   6.300  10.160  11.967  0.6380 -0.7148 -0.1765
33488SOL    HW1 7069   6.268  10.071  11.981  1.3092 -0.9925 -0.3947
33488SOL    HW2 7070   6.239  10.197  11.904 -1.0495 -0.2152  1.6382
33489SOL     OW 7071   0.600   1.620   2.270  0.6447 -0.0773 -0.0164
33489SOL    HW1 7072   0.688   1.591   2.294  1.3298  1.9495  0.1418
33489SOL    HW2 7073   0.549   1.609   2.350  1.5573  1.5278  0.8511
33490SOL     OW 7074   2.130   4.561   9.555 -0.4973 -0.5856  0.3998
33490SOL    HW1 7075   2.098   4.502   9.487 -0.3808 -0.4358  0.2134
33490SOL    HW2 7076   2.074   4.544   9.630  0.2303 -1.7034  0.6990
33491SOL     OW 7077   4.146   9.037  10.019 -0.2363 -0.0454  0.0575
33491SOL    HW1 7078   4.142   9.130  10.041  0.6381 -0.1835  0.8634
33491SOL    HW2 7079   4.080   8.996  10.076  0.5470 -0.1212  0.9397
33492SOL     OW 7080   5.623   2.758   7.023  0.4319  0.6438 -0.1885
33492SOL    HW1 7081   5.579   2.841   7.038 -0.3638  0.2018 -0.0029
33492SOL    HW2 7082   5.610   2.709   7.104 -1.2302 -0.5833 -1.1346
33493SOL     OW 7083   8.979   1.330   4.181  0.7324 -0.4508 -0.3537
33493SOL    HW1 7084   8.978   1.419   4.217 -3.1326 -0.4654  0.0009
33493SOL    HW2 7085   8.975   1.342   4.087 -2.2743 -0.0743 -0.2575
33494SOL     OW 7086   2.094   5.482   2.799  0.4537 -0.1520 -0.3207
33494SOL    HW1 7087   2.112   5.554   2.860  0.5507 -1.8776  1.8196
33494SOL    HW2 7088   2.102   5.521   2.712 -0.0624  2.5371  0.7376
33495SOL     OW 7089   8.281   0.315   4.429 -0.2279  0.5499  0.4434
33495SOL    HW1 7090   8.208   0.300   4.368 -0.7708 -1.0262  1.4332
33495SOL    HW2 7091   8.239   0.338   4.511  0.1913 -2.3452  1.5952
33496SOL     OW 7092   5.737   4.927   9.401 -0.1125 -0.1623 -0.3025
33496SOL    HW1 7093   5.686   4.932   9.320  0.0302  1.3863 -0.3192
33496SOL    HW2 7094   5.820   4.889   9.373  0.1861  0.9708 -1.0385
33497SOL     OW 7095   3.520   4.222   7.904  0.1658  0.6235 -0.4795
33497SOL    HW1 7096   3.458   4.170   7.955  2.1119 -0.2569  1.1501
33497SOL    HW2 7097   3.569   4.157   7.853  1.1729  1.0527 -0.0877
33498SOL     OW 7098   2.653   2.629   1.589  0.0280 -0.4374  0.7106
33498SOL    HW1 7099   2.578   2.679   1.621 -0.0137  0.3029 -0.4535
33498SOL    HW2 7100   2.729   2.685   1.607 -0.1422  0.7217 -1.7343
33499SOL     OW 7101   2.469  10.967   8.564  0.3900  0.1350  0.2255
33499SOL    HW1 7102   2.424  10.935   8.485 -1.2653 -0.6737  1.4313
33499SOL    HW2 7103   2.430  11.053   8.581  0.3201  0.0511  0.4903
33500SOL     OW 7104   9.532   9.504   2.904  0.1988 -0.4719 -0.1091
33500SOL    HW1 7105   9.481   9.492   2.984 -0.0300 -1.2967 -0.3710
33500SOL    HW2 7106   9.502   9.588   2.868 -0.7640 -0.8096 -0.1131
33501SOL     OW 7107   2.777   4.188  10.680  0.7623 -0.0257 -0.2243
33501SOL    HW1 7108   2.777   4.246  10.756  0.9421  0.0496 -0.2819
33501SOL    HW2 7109   2.833   4.115  10.705 -0.2663 -0.6799  0.2301
33502SOL     OW 7110   6.969   9.937   4.628  0.1424 -0.6577  0.1391
33502SOL    HW1 7111   7.017  10.005   4.675 -0.9071  0.6990 -0.6724
33502SOL    HW2 7112   7.017   9.857   4.646  1.5395  0.3231  0.9702
33503SOL     OW 7113   0.543   5.705   4.903 -0.3346  0.0024 -0.4502
33503SOL    HW1 7114   0.576   5.629   4.857 -0.7588  0.8620 -2.2409
33503SOL    HW2 7115   0.601   5.714   4.979 -0.4311 -2.2036 -0.0665
33504SOL     OW 7116   7.121  11.281  12.199  0.0983  0.2811  0.0842
33504SOL    HW1 7117   7.149  11.226  12.127 -0.6301 -0.6946  0.5258
33504SOL    HW2 7118   7.027  11.290  12.187 -0.2666 -1.0189  1.6267
33505SOL     OW 7119   4.840  11.878  11.225  0.5462 -0.1511  0.3163
33505SOL    HW1 7120   4.918  11.824  11.215  1.1004  0.9217 -1.7805
33505SOL    HW2 7121   4.866  11.948  11.285  2.0336  1.4531 -2.0053
33506SOL     OW 7122  12.543  12.072  12.739  0.4230  0.9263  0.7339
33506SOL    HW1 7123  12.562  12.108  12.826  1.6092  1.2603  0.3439
33506SOL    HW2 7124  12.606  12.001  12.727 -0.0533  0.5626  0.3336
33507SOL     OW 7125   3.372   8.581   2.973  0.1463  0.3536 -0.1105
33507SOL    HW1 7126   3.294   8.582   3.029 -0.9287  0.6611 -1.5396
33507SOL    HW2 7127   3.408   8.493   2.984 -0.2327  0.3041  0.8017
33508SOL     OW 7128   6.833   6.419   8.528 -0.2803  0.2831  0.4085
33508SOL    HW1 7129   6.752   6.449   8.570 -0.3885  1.2926 -0.4748
33508SOL    HW2 7130   6.891   6.495   8.531 -0.1860  0.2883 -0.9826
33509SOL     OW 7131   9.641  11.767  12.708  0.4444 -0.4500 -0.3350
33509SOL    HW1 7132   9.689  11.749  12.788  0.2196 -1.7114 -0.4646
33509SOL    HW2 7133   9.563  11.815  12.736  0.4537 -0.7343  0.1812
33510SOL     OW 7134  12.461  10.311  11.958  0.1485 -0.4636  0.8378
33510SOL    HW1 7135  12.478  10.338  12.048  0.8962  1.2422  0.2248
33510SOL    HW2 7136  12.545  10.277  11.926  0.3395  0.4711  0.3005
33511SOL     OW 7137   3.625   7.140   7.058  0.0427  0.5778  0.1263
33511SOL    HW1 7138   3.542   7.135   7.105 -0.2971  1.4976 -0.3500
33511SOL    HW2 7139   3.628   7.060   7.006  0.0013 -0.0106  1.0010
33512SOL     OW 7140   4.233  10.774  10.760  0.0716 -0.3052 -0.5254
33512SOL    HW1 7141   4.270  10.707  10.817 -1.2648  0.0882  0.8725
33512SOL    HW2 7142   4.233  10.735  10.672  0.6816 -1.5382  0.0154
33513SOL     OW 7143   3.958  10.485   4.828  0.2824 -0.0264  0.3083
33513SOL    HW1 7144   3.973  10.444   4.913 -1.6042  1.2312  1.3279
33513SOL    HW2 7145   4.045  10.515   4.800  1.1480 -1.6357  1.1040
33514SOL     OW 7146  12.767   9.642   6.509 -0.2216  0.3180  0.0310
33514SOL    HW1 7147  12.786   9.637   6.415 -0.6394  2.5178 -0.2342
33514SOL    HW2 7148  12.762   9.551   6.537 -0.6799 -0.4199 -2.1954
33515SOL     OW 7149   8.906   4.845   2.254 -0.0264  0.5794 -0.7012
33515SOL    HW1 7150   8.817   4.811   2.252  0.3535 -0.4443 -0.4371
33515SOL    HW2 7151   8.924   4.871   2.163 -0.8346  1.4496 -0.6221
33516SOL     OW 7152  10.027   5.932   6.566  0.4637 -0.1104  0.2798
33516SOL    HW1 7153  10.026   5.951   6.472 -0.5203 -0.7144  0.1535
33516SOL    HW2 7154  10.023   5.837   6.571  0.8337 -0.0946  0.9363
33517SOL     OW 7155   1.946  10.637  11.194 -0.3730 -0.0201 -0.4887
33517SOL    HW1 7156   1.884  10.643  11.121 -1.0470 -0.3103  0.0398
33517SOL    HW2 7157   1.948  10.544  11.217  2.0958 -0.4282 -2.0099
33518SOL     OW 7158   8.076   0.647   5.732 -0.2098 -0.0045 -0.5145
33518SOL    HW1 7159   8.093   0.553   5.717 -0.7090 -0.4480  1.4639
33518SOL    HW2 7160   8.041   0.651   5.821  1.1212  2.2375 -0.0246
33519SOL     OW 7161   8.443   2.948   3.816  0.0819  0.7496 -0.2237
33519SOL    HW1 7162   8.408   2.879   3.872  2.5406  0.2045  0.7417
33519SOL    HW2 7163   8.479   3.013   3.876 -1.1178  2.3445 -1.1433
33520SOL     OW 7164   6.369   9.447   7.976 -0.2855 -0.4371  0.6389
33520SOL    HW1 7165   6.304   9.393   8.021  0.3754 -0.5423  1.4871
33520SOL    HW2 7166   6.395   9.395   7.900 -1.6369 -0.1255 -0.0769
33521SOL     OW 7167   8.112   3.379  12.364 -0.0282  0.5026  0.6855
33521SOL    HW1 7168   8.073   3.304  12.408 -0.6603 -0.3336 -1.1948
33521SOL    HW2 7169   8.206   3.360  12.363 -0.3481 -1.5027 -1.7744
33522SOL     OW 7170   3.492   2.556   9.263 -0.4046 -0.6830  0.3278
33522SOL    HW1 7171   3.524   2.645   9.281 -2.8413  0.4152 -0.3120
33522SOL    HW2 7172   3.433   2.567   9.188 -0.6698 -2.8862  0.1533
33523SOL     OW 7173   4.037   9.897   8.047  0.7711 -0.3933 -0.1066
33523SOL    HW1 7174   4.018   9.979   8.001 -1.1951 -0.6403  0.1715
33523SOL    HW2 7175   4.119   9.914   8.093  0.0421  1.6731  0.5325
33524SOL     OW 7176   1.622  12.761  12.391 -0.5038 -0.2191  1.1908
33524SOL    HW1 7177   1.683  12.700  12.348  0.4972  1.8557 -0.5114
33524SOL    HW2 7178   1.556  12.779  12.324 -1.0746  0.1956  1.8552
33525SOL     OW 7179   3.507   5.825  10.361 -0.0448 -0.5078 -1.0733
33525SOL    HW1 7180   3.534   5.835  10.452 -2.6176  0.0651 -0.2828
33525SOL    HW2 7181   3.433   5.886  10.351 -0.4240 -1.2287 -3.2807
33526SOL     OW 7182   5.884   5.740   7.410  0.1546  0.0050  0.5233
33526SOL    HW1 7183   5.884   5.835   7.394  0.7426 -0.0848 -0.0667
33526SOL    HW2 7184   5.955   5.726   7.472  1.7006 -0.3043 -1.2138
33527SOL     OW 7185   5.148   4.424   5.602 -0.4186  0.1218 -0.1192
33527SOL    HW1 7186   5.208   4.355   5.577 -3.1212 -2.1625 -0.7986
33527SOL    HW2 7187   5.119   4.401   5.690 -2.0990 -0.2540 -0.7307
33528SOL     OW 7188  10.532   3.770  12.177 -0.0988  0.4142  0.0454
33528SOL    HW1 7189  10.515   3.769  12.083 -0.6335  1.5832  0.1157
33528SOL    HW2 7190  10.449   3.797  12.216  0.2747  0.4672  0.8170
33529SOL     OW 7191   3.315   2.293   1.348  0.3352 -0.0784  0.3431
33529SOL    HW1 7192   3.317   2.247   1.431 -0.8181 -0.6536  0.0674
33529SOL    HW2 7193   3.239   2.258   1.302  1.1818 -0.0969 -1.1432
33530SOL     OW 7194   2.158   3.357   7.141  0.0804 -0.0109 -0.1700
33530SOL    HW1 7195   2.186   3.423   7.077  0.9854  1.3010  1.5143
33530SOL    HW2 7196   2.216   3.283   7.124 -0.6328 -0.2554 -1.7733
33531SOL     OW 7197   3.136   4.270   8.734  0.9118  0.6210 -0.4984
33531SOL    HW1 7198   3.218   4.272   8.685  1.7026  0.4712  0.7833
33531SOL    HW2 7199   3.097   4.357   8.720  0.1409 -0.0302 -2.9284
33532SOL     OW 7200   7.047   9.820  10.245 -0.3010  0.1949 -0.2039
33532SOL    HW1 7201   7.128   9.852  10.284  0.0727 -0.0216 -0.7914
33532SOL    HW2 7202   6.987   9.810  10.319  0.4725 -0.4641  0.3500
33533SOL     OW 7203   0.631   9.755   1.430  0.5871  0.4172 -0.0889
33533SOL    HW1 7204   0.697   9.686   1.437 -0.6703 -0.9210 -0.7856
33533SOL    HW2 7205   0.676   9.827   1.385  2.5323  0.9522  2.4535
33534SOL     OW 7206   3.000   4.115   0.583  0.8423  0.3323 -1.1121
33534SOL    HW1 7207   2.962   4.130   0.670  0.0965 -0.8015 -1.2135
33534SOL    HW2 7208   3.012   4.203   0.547 -0.6213  0.7806 -0.6001
33535SOL     OW 7209   0.914   7.205   7.814 -0.6396  0.6041 -0.4269
33535SOL    HW1 7210   0.840   7.236   7.865 -0.5651  1.6578 -0.9370
33535SOL    HW2 7211   0.875   7.145   7.750 -0.7260 -0.7627  0.8464
33536SOL     OW 7212  12.404   3.883   6.277 -0.0368 -0.4238  0.0215
33536SOL    HW1 7213  12.494   3.880   6.247  0.6928  1.6608  1.7458
33536SOL    HW2 7214  12.354   3.837   6.209  2.0380  0.0936 -1.9752
33537SOL     OW 7215   9.606   1.856  11.117  0.0082 -0.6640  0.6820
33537SOL    HW1 7216   9.635   1.947  11.120 -4.3167  0.9682  0.3774
33537SOL    HW2 7217   9.640   1.822  11.034 -0.6929  1.7079 -0.6564
33538SOL     OW 7218  12.628   7.057   4.944 -0.0099  0.0485 -0.6710
33538SOL    HW1 7219  12.544   7.077   4.903  0.2537 -1.8178 -2.2448
33538SOL    HW2 7220  12.692   7.064   4.874  0.8579 -0.5969  0.0276
33539SOL     OW 7221  10.957   9.025   0.341  0.4212 -0.6435 -0.0857
33539SOL    HW1 7222  10.956   8.930   0.344  0.3196 -0.6576 -0.4678
33539SOL    HW2 7223  10.912   9.047   0.260  1.7181 -0.3152 -0.7483
33540SOL     OW 7224   7.508   0.477   0.246 -0.2481  0.0604  0.0113
33540SOL    HW1 7225   7.426   0.521   0.227 -1.0151 -0.4106  1.9855
33540SOL    HW2 7226   7.574   0.547   0.242 -1.2421  1.1799  1.6755
33541SOL     OW 7227  10.458   0.499   8.291  0.3877  0.0003  0.1180
33541SOL    HW1 7228  10.399   0.570   8.267 -0.2844 -1.1645 -1.8676
33541SOL    HW2 7229  10.420   0.421   8.251  2.2430 -1.1237  0.4107
33542SOL     OW 7230  12.379   7.694   7.408  0.2182 -0.5669  0.0632
33542SOL    HW1 7231  12.355   7.724   7.495 -0.0514 -2.3268  0.6351
33542SOL    HW2 7232  12.420   7.771   7.366 -1.6190  0.9576  0.9151
33543SOL     OW 7233   6.295  11.313   0.502  0.7575 -0.3533  0.4955
33543SOL    HW1 7234   6.345  11.324   0.583  0.7765  1.3758  0.3044
33543SOL    HW2 7235   6.362  11.306   0.434  0.7671  0.4622  0.4056
33544SOL     OW 7236  10.386   3.370   1.587  0.1620 -0.0345 -0.0102
33544SOL    HW1 7237  10.443   3.414   1.649  0.7082  1.2560 -1.3790
33544SOL    HW2 7238  10.299   3.408   1.603  0.5891  1.4631 -1.0431
33545SOL     OW 7239   8.520   8.813   6.352  0.6585  0.5328  0.6073
33545SOL    HW1 7240   8.564   8.766   6.423  1.4202  2.1032  1.2279
33545SOL    HW2 7241   8.448   8.859   6.396 -0.3490 -0.3588 -0.0608
33546SOL     OW 7242   1.345   5.815   1.757  0.6035  0.5436 -0.4742
33546SOL    HW1 7243   1.323   5.851   1.671 -2.4105  0.5105  0.1925
33546SOL    HW2 7244   1.262   5.782   1.792  1.6854  0.7121  2.5388
33547SOL     OW 7245   1.279   7.187   8.106 -0.1484  0.5416 -0.5171
33547SOL    HW1 7246   1.184   7.174   8.106 -0.0104 -0.5589 -0.1725
33547SOL    HW2 7247   1.315   7.099   8.099  0.8510  1.0306 -1.7762
33548SOL     OW 7248   1.712   4.659   0.944  0.3569 -0.2386 -0.3330
33548SOL    HW1 7249   1.635   4.646   0.888  0.3206 -0.3962 -0.2461
33548SOL    HW2 7250   1.786   4.657   0.883  0.4146 -1.5291 -0.2464
33549SOL     OW 7251   0.437   8.292   3.401  0.0734 -0.3797 -0.4567
33549SOL    HW1 7252   0.493   8.229   3.447 -0.2016 -0.7062 -0.5625
33549SOL    HW2 7253   0.398   8.242   3.330  0.0188 -0.0318 -0.6729
33550SOL     OW 7254  10.423  10.541   9.488  0.4121  0.7030 -0.1448
33550SOL    HW1 7255  10.494  10.561   9.549 -0.1501  1.2843  0.3288
33550SOL    HW2 7256  10.403  10.449   9.506  1.9005  0.1311 -1.1913
33551SOL     OW 7257   7.523  10.514   0.094 -0.4864  0.0028  0.1295
33551SOL    HW1 7258   7.557  10.456   0.163 -1.3171  0.5795  1.0575
33551SOL    HW2 7259   7.589  10.511   0.025  1.3787  0.9362  1.7680
33552SOL     OW 7260   6.907  11.131   4.821 -0.1239 -0.1597 -0.0855
33552SOL    HW1 7261   6.903  11.132   4.916  0.8929  1.6029 -0.0267
33552SOL    HW2 7262   6.819  11.153   4.793 -0.9256 -2.4595  0.3540
33553SOL     OW 7263   1.065   2.067  12.052 -0.1616 -0.0321  0.1185
33553SOL    HW1 7264   0.988   2.057  11.996  1.3529 -2.3193 -1.7737
33553SOL    HW2 7265   1.082   2.161  12.053 -0.6756  0.1908 -2.7497
33554SOL     OW 7266   4.959   1.689   2.654  0.2100 -0.2782  0.2766
33554SOL    HW1 7267   4.879   1.741   2.653  0.1227 -0.4154  0.2462
33554SOL    HW2 7268   5.027   1.751   2.683  0.0917 -0.1677  0.3187
33555SOL     OW 7269   4.156   5.001  10.816  0.5492  0.9155  0.0648
33555SOL    HW1 7270   4.125   5.092  10.818  0.5734  0.9168  0.3700
33555SOL    HW2 7271   4.079   4.950  10.794  0.6793  1.0750 -0.8024
33556SOL     OW 7272  11.536  12.167   6.649  0.6241 -0.3807  0.2342
33556SOL    HW1 7273  11.488  12.198   6.572  2.2790 -0.6471 -0.9809
33556SOL    HW2 7274  11.567  12.080   6.624 -0.5321 -1.3802  2.0403
33557SOL     OW 7275   5.936   7.413  12.414 -0.1323  0.4901 -0.4136
33557SOL    HW1 7276   5.997   7.457  12.355 -0.5084  0.8323 -0.5539
33557SOL    HW2 7277   5.904   7.337  12.364  2.1738 -1.2719  0.6067
33558SOL     OW 7278   7.571   7.474   5.855 -0.6548 -0.2660 -0.0310
33558SOL    HW1 7279   7.563   7.536   5.782 -0.7555 -0.8538 -0.5190
33558SOL    HW2 7280   7.492   7.490   5.908 -1.3661 -0.9015 -0.8783
33559SOL     OW 7281   8.776   5.238   4.095  0.2013  0.6830 -0.2829
33559SOL    HW1 7282   8.860   5.260   4.055  1.2806 -0.8933  0.9835
33559SOL    HW2 7283   8.767   5.301   4.167  0.2180  0.9515 -0.5135
33560SOL     OW 7284   5.637   4.724   7.905  0.2996 -0.0828  0.0168
33560SOL    HW1 7285   5.601   4.665   7.971  4.5308 -2.8639  0.2174
33560SOL    HW2 7286   5.647   4.808   7.950 -1.7195 -0.3802  1.1515
33561SOL     OW 7287   6.522   6.524  11.182  0.1035 -0.6822 -0.5037
33561SOL    HW1 7288   6.463   6.597  11.198  1.2709 -0.1947  2.1577
33561SOL    HW2 7289   6.607   6.566  11.166  0.4830 -1.4415 -0.4942
33562SOL     OW 7290  11.118   7.893   9.375  0.8278 -0.0069 -0.1157
33562SOL    HW1 7291  11.178   7.888   9.450  0.3811  1.8087  0.4072
33562SOL    HW2 7292  11.036   7.926   9.412  0.1522 -0.4429 -1.1823
33563SOL     OW 7293  12.430   1.884  10.412  0.2756  0.0378 -0.1559
33563SOL    HW1 7294  12.382   1.863  10.332 -0.6822  0.0566  0.3996
33563SOL    HW2 7295  12.419   1.807  10.468  0.0195  0.4567  0.3785
33564SOL     OW 7296   0.686  11.904  11.404  0.0818 -0.7289 -0.4507
33564SOL    HW1 7297   0.641  11.820  11.401 -1.5694  0.0977 -0.3748
33564SOL    HW2 7298   0.623  11.966  11.368  1.3644  0.4400 -0.7702
33565SOL     OW 7299   7.695  12.742   6.382 -0.2166  0.1186  0.4172
33565SOL    HW1 7300   7.669  12.695   6.461 -1.9449  0.5034  0.1317
33565SOL    HW2 7301   7.631  12.813   6.374  0.8501  1.0258 -0.5010
33566SOL     OW 7302   2.206   5.119  11.591  0.0944 -0.1307  0.0327
33566SOL    HW1 7303   2.250   5.058  11.532  0.3727  0.1823 -0.0845
33566SOL    HW2 7304   2.138   5.159  11.538  0.8382  0.7190 -0.3066
33567SOL     OW 7305   2.131  10.623   1.827 -0.1160 -0.0927  0.3832
33567SOL    HW1 7306   2.039  10.610   1.804 -0.0674 -0.3998  0.3528
33567SOL    HW2 7307   2.166  10.677   1.757 -0.4528  0.6553  0.7803
33568SOL     OW 7308   3.503   3.115   3.723 -0.0342  0.4196  0.4539
33568SOL    HW1 7309   3.440   3.123   3.795 -0.0137 -3.3324  1.0909
33568SOL    HW2 7310   3.581   3.077   3.764  0.4829 -0.5061 -1.3033
33569SOL     OW 7311  11.143  11.108   2.846 -0.1584 -0.4095 -0.1510
33569SOL    HW1 7312  11.111  11.020   2.825 -0.6737 -0.5082  0.9528
33569SOL    HW2 7313  11.231  11.095   2.879 -0.8972 -0.7606  1.8036
33570SOL     OW 7314  10.021  12.743  11.855 -0.1468  0.3865 -0.4989
33570SOL    HW1 7315  10.021  12.816  11.793 -0.9118  0.1807 -0.7625
33570SOL    HW2 7316   9.985  12.780  11.936 -2.8351 -0.1921 -1.3172
33571SOL     OW 7317   8.781   8.897   0.601 -0.2287  0.2760  0.2579
33571SOL    HW1 7318   8.836   8.839   0.653  2.4584  1.6185 -0.8776
33571SOL    HW2 7319   8.708   8.918   0.658  0.3102 -1.7171  1.8265
33572SOL     OW 7320  10.303   6.781  12.104  0.1000  0.1833  0.1735
33572SOL    HW1 7321  10.309   6.766  12.009  0.8879  2.4551 -0.2169
33572SOL    HW2 7322  10.379   6.836  12.123 -1.1642  1.4778  1.7401
33573SOL     OW 7323   5.608  10.727   6.005 -0.2611 -0.2381 -0.2365
33573SOL    HW1 7324   5.653  10.780   5.940  0.9380  0.0228  0.7679
33573SOL    HW2 7325   5.675  10.669   6.040 -0.9963 -0.7342  0.3938
33574SOL     OW 7326   8.526   1.533  10.120 -0.3781  0.2742  0.1832
33574SOL    HW1 7327   8.488   1.466  10.177 -0.1338  2.3601  3.0398
33574SOL    HW2 7328   8.472   1.610  10.134 -0.1624  0.9930 -2.3646
33575SOL     OW 7329   4.989   0.605   3.416 -0.8492  0.3237 -0.0206
33575SOL    HW1 7330   5.024   0.655   3.490 -0.2208  0.2382 -0.2582
33575SOL    HW2 7331   5.065   0.587   3.361 -1.1800 -0.3061 -0.2817
33576SOL     OW 7332   6.004   9.730   1.260  0.3499 -0.1441 -0.0540
33576SOL    HW1 7333   6.091   9.704   1.229  0.8237 -0.4774  1.4649
33576SOL    HW2 7334   5.973   9.792   1.194  1.4261 -0.5654 -1.0042
33577SOL     OW 7335   1.336   6.135  11.063 -0.1198  0.3646 -0.3096
33577SOL    HW1 7336   1.411   6.182  11.025 -1.5048  2.6525 -0.4052
33577SOL    HW2 7337   1.267   6.143  10.997 -1.3160  0.8468  0.9652
33578SOL     OW 7338   1.821   2.470   6.703 -0.2012 -0.5997 -0.2610
33578SOL    HW1 7339   1.882   2.528   6.658  1.7387 -0.8842  1.8121
33578SOL    HW2 7340   1.873   2.394   6.727 -0.9857 -0.3907  2.5376
33579SOL     OW 7341   4.153  12.313   3.222 -0.1864 -0.0350 -0.2921
33579SOL    HW1 7342   4.065  12.278   3.237 -0.5890  0.5029 -1.3104
33579SOL    HW2 7343   4.164  12.381   3.288 -0.4986 -0.1520 -0.1191
33580SOL     OW 7344   5.232   2.041  10.079 -0.3339 -0.1357  0.2971
33580SOL    HW1 7345   5.222   1.967  10.020 -1.0806  0.6317 -0.5660
33580SOL    HW2 7346   5.326   2.042  10.100 -0.4474 -1.8440  1.0582
33581SOL     OW 7347   3.194  10.486   6.021 -0.3026 -0.2349 -0.9444
33581SOL    HW1 7348   3.174  10.570   5.981  0.0679 -1.0417 -2.9772
33581SOL    HW2 7349   3.290  10.483   6.023 -0.3153 -0.0958  0.3038
33582SOL     OW 7350  10.432   4.573   3.547  0.2256  0.0220  0.0941
33582SOL    HW1 7351  10.336   4.568   3.548  0.1875  0.6087  0.7302
33582SOL    HW2 7352  10.458   4.521   3.472 -0.5083 -1.6248  0.9239
33583SOL     OW 7353   3.591   8.251   4.159 -0.6557  0.1051  0.0834
33583SOL    HW1 7354   3.666   8.270   4.102 -2.4903 -0.2941 -2.6461
33583SOL    HW2 7355   3.539   8.331   4.157 -0.6805  0.1499  1.4355
33584SOL     OW 7356  10.691  12.682   6.366 -0.5716 -0.2714 -0.2767
33584SOL    HW1 7357  10.766  12.626   6.344  1.1243  2.0749 -0.8398
33584SOL    HW2 7358  10.729  12.754   6.416 -2.1981  1.6838 -1.7172
33585SOL     OW 7359  10.208   0.627   5.590 -0.1430  0.0804  0.1979
33585SOL    HW1 7360  10.294   0.661   5.614  0.0833  0.7584 -1.4192
33585SOL    HW2 7361  10.211   0.534   5.612  0.9977  0.1040  0.1863
33586SOL     OW 7362  12.022   1.508   1.510  0.2457 -0.3368  0.4711
33586SOL    HW1 7363  12.049   1.598   1.533  0.9266  0.1807 -2.0814
33586SOL    HW2 7364  11.942   1.520   1.458 -1.3376 -1.4653  2.5117
33587SOL     OW 7365   5.202   8.873   0.153  0.6917 -0.4419 -0.4578
33587SOL    HW1 7366   5.186   8.793   0.202  1.0651 -1.7638 -2.3621
33587SOL    HW2 7367   5.296   8.872   0.135  0.5428 -0.1216 -1.3394
33588SOL     OW 7368   7.486   4.644  12.361  0.4692  0.1412  0.0521
33588SOL    HW1 7369   7.494   4.578  12.429 -0.2308 -1.0383 -0.9725
33588SOL    HW2 7370   7.404   4.689  12.381  0.6525  0.3172  0.4181
33589SOL     OW 7371   6.099   2.612  12.757  0.0871  0.0958 -0.5497
33589SOL    HW1 7372   6.119   2.653  12.672  0.1556 -0.8181 -0.9801
33589SOL    HW2 7373   6.042   2.676  12.800  0.0950  0.6018 -1.2567
33590SOL     OW 7374   1.384   9.531   4.076 -0.0001  0.6346 -0.7045
33590SOL    HW1 7375   1.319   9.597   4.100 -0.7867 -0.7528  1.2164
33590SOL    HW2 7376   1.357   9.502   3.989 -2.0050  0.1045  0.0282
33591SOL     OW 7377   0.550   7.050   8.673  0.2280 -0.3106  0.4325
33591SOL    HW1 7378   0.611   6.982   8.702  1.4179 -0.0073 -1.2018
33591SOL    HW2 7379   0.508   7.014   8.595  0.7085  0.7035 -0.3223
33592SOL     OW 7380   1.981   0.549   9.289 -0.6695 -0.6663  0.4970
33592SOL    HW1 7381   1.975   0.635   9.247 -2.6682 -1.4474 -0.9864
33592SOL    HW2 7382   2.064   0.551   9.337  0.2510  1.3787 -1.0450
33593SOL     OW 7383   6.126   0.449   4.656  0.4632 -0.5652 -0.0607
33593SOL    HW1 7384   6.144   0.458   4.750 -0.0043 -0.2303  0.0022
33593SOL    HW2 7385   6.100   0.537   4.628  0.9873 -0.5766 -0.5908
33594SOL     OW 7386   7.389   2.968  12.275  0.8768  0.1020  0.5384
33594SOL    HW1 7387   7.298   2.979  12.300  0.1348  1.2210 -2.2634
33594SOL    HW2 7388   7.392   2.885  12.229  1.3428 -0.0354  0.8059
33595SOL     OW 7389  10.875  11.126   5.300 -0.2291 -0.0889 -0.0168
33595SOL    HW1 7390  10.842  11.190   5.363  1.8667  1.7360 -0.6603
33595SOL    HW2 7391  10.949  11.085   5.344 -1.2060 -1.7477  0.1698
33596SOL     OW 7392   2.977  10.404   6.675 -0.0668 -0.5143  0.2161
33596SOL    HW1 7393   2.951  10.491   6.704  1.0127 -0.9491  2.7390
33596SOL    HW2 7394   3.028  10.419   6.596  0.0508  1.1292  0.5775
33597SOL     OW 7395  10.368   1.666   8.647  0.0472  0.4476  0.2952
33597SOL    HW1 7396  10.447   1.684   8.697  1.5755 -1.7617 -1.1394
33597SOL    HW2 7397  10.306   1.633   8.712  1.0181  0.2470  1.1542
33598SOL     OW 7398   7.911   2.856  12.609 -0.2271 -0.2155  0.1266
33598SOL    HW1 7399   7.867   2.771  12.613  0.1924 -0.5802 -1.8164
33598SOL    HW2 7400   8.004   2.834  12.618 -0.1319  0.0517 -0.2044
33599SOL     OW 7401   9.643  10.256   5.884  0.5253  0.4188 -0.5117
33599SOL    HW1 7402   9.577  10.224   5.822 -0.3217  1.1457 -0.0134
33599SOL    HW2 7403   9.684  10.329   5.838  1.1127 -0.1345 -0.8856
33600SOL     OW 7404   0.052   0.526   5.737  0.7620  0.2208  0.2812
33600SOL    HW1 7405  -0.020   0.506   5.797  2.0277 -0.7403  1.5549
33600SOL    HW2 7406   0.029   0.481   5.656 -0.1101 -0.0135  0.6484
33601SOL     OW 7407  10.623   5.067   2.002 -0.4433 -0.3497 -0.2759
33601SOL    HW1 7408  10.556   5.134   2.005 -0.9742 -0.8896  0.1851
33601SOL    HW2 7409  10.587   4.995   2.053  0.0602 -1.0371 -0.8685
33602SOL     OW 7410   5.143   4.399   7.441  0.1046  0.2933 -0.0498
33602SOL    HW1 7411   5.233   4.395   7.410 -0.3936 -0.1006 -1.4854
33602SOL    HW2 7412   5.123   4.493   7.443  0.6830  0.4133  0.7430
33603SOL     OW 7413  11.356   3.244   2.789 -0.4130 -0.4029  0.0478
33603SOL    HW1 7414  11.296   3.177   2.822 -1.4251  0.7549  0.6386
33603SOL    HW2 7415  11.423   3.195   2.741 -2.7093 -1.6635 -2.0612
33604SOL     OW 7416  11.773   7.602   1.587  0.4178  0.4231  1.0371
33604SOL    HW1 7417  11.756   7.523   1.536  0.3955  0.2185  1.3587
33604SOL    HW2 7418  11.710   7.599   1.659  0.1780  0.9179  0.8495
33605SOL     OW 7419   2.837   9.395   3.936 -0.2332 -0.1438  0.1433
33605SOL    HW1 7420   2.848   9.300   3.948 -1.2255 -0.0661  1.8303
33605SOL    HW2 7421   2.759   9.403   3.881  1.2247 -0.3240 -2.1012
33606SOL     OW 7422   9.281   3.765   0.988 -0.4986 -0.3507 -0.4750
33606SOL    HW1 7423   9.272   3.801   0.900  0.3628 -0.5532 -0.6528
33606SOL    HW2 7424   9.341   3.691   0.977  0.3201  0.1558  0.4199
33607SOL     OW 7425  10.259  10.739   2.086  0.0349  0.0979  0.3742
33607SOL    HW1 7426  10.197  10.778   2.148 -0.3151 -0.3878  0.3344
33607SOL    HW2 7427  10.281  10.810   2.026 -1.1603  0.0529 -0.1385
33608SOL     OW 7428   7.696  11.971   9.499 -0.0680  0.1019 -0.0006
33608SOL    HW1 7429   7.772  11.994   9.553 -0.6309  0.0807  0.8226
33608SOL    HW2 7430   7.631  11.942   9.562 -0.4538 -0.7403 -0.7797
33609SOL     OW 7431   9.849   7.677   3.943 -0.2712 -0.6323 -0.0232
33609SOL    HW1 7432   9.848   7.640   3.854  3.5878  0.1697 -0.6094
33609SOL    HW2 7433   9.852   7.772   3.929  2.5245 -0.5110  0.6748
33610SOL     OW 7434   8.547   1.307   4.838  0.3499  0.1735 -0.1351
33610SOL    HW1 7435   8.534   1.402   4.832  3.4948  0.6539 -0.8595
33610SOL    HW2 7436   8.640   1.294   4.821 -0.1023 -3.1431 -0.7642
33611SOL     OW 7437   4.741  10.411   2.868 -0.4911 -0.4968  0.6760
33611SOL    HW1 7438   4.706  10.425   2.957 -1.6470  0.1849  0.1406
33611SOL    HW2 7439   4.728  10.317   2.853  1.2917 -0.9768  1.8448
33612SOL     OW 7440   8.236   5.076   6.219 -0.1444 -0.6750 -0.2287
33612SOL    HW1 7441   8.313   5.123   6.249  0.4793 -1.7035 -0.1532
33612SOL    HW2 7442   8.190   5.052   6.300 -0.3532 -0.3856 -0.2585
33613SOL     OW 7443   2.974  12.554   5.042  0.1338  0.2529 -0.2150
33613SOL    HW1 7444   3.018  12.634   5.013 -0.2082  0.3674 -0.4286
33613SOL    HW2 7445   2.924  12.525   4.966  0.6279 -0.4298 -0.2865
33614SOL     OW 7446   8.906   2.715   2.519  0.2190 -0.2450  1.2531
33614SOL    HW1 7447   8.934   2.649   2.455 -1.9406  0.1393 -0.1617
33614SOL    HW2 7448   8.936   2.798   2.482 -1.3382  0.0125  0.5063
33615SOL     OW 7449   2.868   7.696   8.160  0.2500 -0.4929 -0.3322
33615SOL    HW1 7450   2.843   7.707   8.252  0.6190 -2.4390  0.0398
33615SOL    HW2 7451   2.784   7.687   8.114  0.0530 -3.1721  0.3804
33616SOL     OW 7452  12.108  10.043  11.734 -0.1199  0.2525 -0.0723
33616SOL    HW1 7453  12.163   9.980  11.688  0.9768  1.3568 -0.3258
33616SOL    HW2 7454  12.157  10.066  11.813 -0.5547  0.7062  0.0805
33617SOL     OW 7455   6.510  12.468   5.903  0.1754  0.1582  0.3002
33617SOL    HW1 7456   6.527  12.450   5.810  0.0705 -2.2980  0.6831
33617SOL    HW2 7457   6.423  12.431   5.919 -1.0330  2.9755  0.8309
33618SOL     OW 7458  10.513   8.061  10.922 -0.2249  0.9683 -0.0202
33618SOL    HW1 7459  10.522   7.998  10.850  0.3533  0.8315  0.1595
33618SOL    HW2 7460  10.428   8.041  10.961  1.1857 -1.8797  2.0153
33619SOL     OW 7461   5.328   3.524   8.594 -0.3988  0.4640 -0.5214
33619SOL    HW1 7462   5.338   3.587   8.666 -1.8393 -0.3528  0.4402
33619SOL    HW2 7463   5.234   3.526   8.573 -0.6455 -1.9438  0.0931
33620SOL     OW 7464   1.283   7.153   0.001 -0.1423 -1.0055  0.2108
33620SOL    HW1 7465   1.294   7.234   0.050 -0.5771 -1.8609  1.7930
33620SOL    HW2 7466   1.245   7.180  -0.083  1.3810  0.5796 -0.0105
33621SOL     OW 7467   2.233   0.523   4.643  0.2743  0.0872 -0.4928
33621SOL    HW1 7468   2.313   0.511   4.591  0.9191 -2.8131  0.9473
33621SOL    HW2 7469   2.263   0.564   4.724 -0.4118  2.7352 -1.5065
33622SOL     OW 7470   7.473   2.297   6.426  0.2866 -0.0419 -0.3886
33622SOL    HW1 7471   7.492   2.257   6.511  0.2824 -0.0564 -0.3945
33622SOL    HW2 7472   7.459   2.389   6.446  3.0234  0.5243 -0.7036
33623SOL     OW 7473   5.510   1.620   9.231 -0.0058 -0.5758  0.7267
33623SOL    HW1 7474   5.537   1.622   9.139 -0.9047  0.7514  0.4705
33623SOL    HW2 7475   5.517   1.711   9.260 -2.0690 -0.5328  1.2482
33624SOL     OW 7476  12.788   1.542  12.517 -0.0450  0.3302  0.1007
33624SOL    HW1 7477  12.737   1.461  12.510 -1.5626  1.3826 -2.0793
33624SOL    HW2 7478  12.783   1.565  12.610 -2.2665 -0.4265  0.2303
33625SOL     OW 7479   9.591  10.042  12.391 -0.2719 -0.0607 -0.3493
33625SOL    HW1 7480   9.595  10.121  12.337  0.9975  1.8030  2.2254
33625SOL    HW2 7481   9.682  10.020  12.408 -0.6009 -0.0693  1.6256
33626SOL     OW 7482  10.371   7.857   9.663  0.3781  0.1702  0.3437
33626SOL    HW1 7483  10.328   7.787   9.615  0.0707  0.2996  0.4279
33626SOL    HW2 7484  10.438   7.813   9.716  1.2794  0.1139 -0.8172
33627SOL     OW 7485   7.013  11.775   8.401 -0.0111  0.7144 -0.0772
33627SOL    HW1 7486   6.977  11.699   8.446 -0.1570  0.6166 -0.3562
33627SOL    HW2 7487   7.058  11.825   8.469 -0.1582  0.5228  0.1576
33628SOL     OW 7488  11.264  11.220  10.648 -0.0788  0.4355  0.6459
33628SOL    HW1 7489  11.304  11.289  10.596 -0.4326  0.7827  0.8351
33628SOL    HW2 7490  11.333  11.193  10.709 -0.0015  0.7408  0.6906
33629SOL     OW 7491  11.120   7.126  10.678  0.6825 -0.4033  0.5718
33629SOL    HW1 7492  11.035   7.167  10.693  0.6713 -0.6430  1.1924
33629SOL    HW2 7493  11.106   7.068  10.603  0.5222  0.2057  0.1298
33630SOL     OW 7494   9.384  10.488  10.110  0.0308 -0.1900 -0.3766
33630SOL    HW1 7495   9.413  10.577  10.091 -0.7527  0.1700  0.0885
33630SOL    HW2 7496   9.436  10.433  10.052  1.6367  0.4401  0.3837
33631SOL     OW 7497   1.503   9.679   3.094 -0.3066  0.4013  0.2060
33631SOL    HW1 7498   1.554   9.760   3.083 -0.0929  0.3172  0.5574
33631SOL    HW2 7499   1.521   9.652   3.184 -1.4776  0.7183  0.5640
33632SOL     OW 7500   1.580   9.444   6.415 -0.1904  0.0297 -0.3459
33632SOL    HW1 7501   1.588   9.483   6.328  2.0442 -1.3070 -0.8169
33632SOL    HW2 7502   1.632   9.363   6.410 -0.8310 -0.5963  1.9405
33633SOL     OW 7503   7.965   6.168   3.778 -0.9974  0.2655 -0.7021
33633SOL    HW1 7504   7.900   6.235   3.798  0.2863  0.6801  2.5978
33633SOL    HW2 7505   7.930   6.088   3.816 -0.2026  0.2388  0.0248
33634SOL     OW 7506   2.686   4.869   7.837  0.0588  0.0533 -0.2147
33634SOL    HW1 7507   2.782   4.871   7.829  0.2669  1.4837  1.8553
33634SOL    HW2 7508   2.659   4.960   7.830 -0.9569 -0.1367  0.9187
33635SOL     OW 7509   9.497  10.308   9.168 -0.1493  0.4055  0.3608
33635SOL    HW1 7510   9.555  10.232   9.174 -2.8365 -1.6909  1.9198
33635SOL    HW2 7511   9.520  10.360   9.246 -0.0258 -0.1575  0.7110
33636SOL     OW 7512   3.428   7.238   2.165 -0.1594  0.4697  0.0619
33636SOL    HW1 7513   3.362   7.307   2.172 -2.3970 -1.3097 -1.7156
33636SOL    HW2 7514   3.475   7.257   2.083 -0.0856  0.4552  0.1006
33637SOL     OW 7515   7.868   8.208   6.767  0.1771 -0.2045 -0.0095
33637SOL    HW1 7516   7.881   8.302   6.762 -0.3214 -0.1729 -1.1722
33637SOL    HW2 7517   7.822   8.194   6.850 -0.6401  0.6973 -0.2857
33638SOL     OW 7518   0.484   1.916   4.223  0.0303  0.2196 -0.2268
33638SOL    HW1 7519   0.473   1.986   4.159 -3.1413  0.7919  0.8100
33638SOL    HW2 7520   0.397   1.879   4.234  1.1044 -2.0905  1.3335
33639SOL     OW 7521   4.477   9.095   1.159 -0.3384 -0.2002  0.0569
33639SOL    HW1 7522   4.486   9.183   1.121 -0.5002 -0.6207 -0.9856
33639SOL    HW2 7523   4.556   9.084   1.212 -0.0751  0.3852 -0.1982
33640SOL     OW 7524   9.911   7.855   3.212 -0.2880  0.0819 -0.1686
33640SOL    HW1 7525   9.855   7.879   3.139 -0.4706  1.5542  0.4168
33640SOL    HW2 7526   9.919   7.935   3.264  0.5206 -0.6945  0.9736
33641SOL     OW 7527   4.800   9.269  11.867 -0.2759  0.3560 -0.2277
33641SOL    HW1 7528   4.708   9.280  11.893 -0.8426  0.7854 -2.2484
33641SOL    HW2 7529   4.798   9.197  11.803  1.0640 -0.7333  0.8714
33642SOL     OW 7530   0.372   3.353  11.506  0.2442  0.0639  0.1938
33642SOL    HW1 7531   0.301   3.410  11.477  0.2963  0.4607  0.8289
33642SOL    HW2 7532   0.330   3.290  11.565 -0.1718 -1.7883 -1.9211
33643SOL     OW 7533   9.311   0.554   4.848  0.2702 -0.1485  0.0791
33643SOL    HW1 7534   9.320   0.459   4.841 -0.4018 -0.2374  0.3935
33643SOL    HW2 7535   9.280   0.569   4.937  1.7619  0.4726  0.5231
33644SOL     OW 7536  11.086   3.790   3.452 -0.2781  0.0372 -0.2910
33644SOL    HW1 7537  11.095   3.811   3.545 -0.1334  1.1933 -0.5412
33644SOL    HW2 7538  11.092   3.875   3.408  0.8215 -0.5937 -1.4444
33645SOL     OW 7539  11.755   4.424   3.501  0.1203 -0.2023 -0.0533
33645SOL    HW1 7540  11.691   4.473   3.551  0.0985 -0.5739  0.2903
33645SOL    HW2 7541  11.838   4.467   3.519 -0.2841  1.6314 -2.2024
33646SOL     OW 7542   9.594   4.550  11.466  0.3583 -0.0208  0.2717
33646SOL    HW1 7543   9.614   4.461  11.437 -0.6327 -0.4512  0.8549
33646SOL    HW2 7544   9.678   4.595  11.464  0.7318 -0.7131 -0.8910
33647SOL     OW 7545   7.941   1.976   9.819  0.5116  0.1474 -0.0923
33647SOL    HW1 7546   7.983   1.912   9.762  1.0514  0.4974 -0.0954
33647SOL    HW2 7547   7.980   1.962   9.905  1.4179  1.1501 -0.3091
33648SOL     OW 7548   4.509  11.609   2.629  0.0209  0.3882  0.2910
33648SOL    HW1 7549   4.514  11.705   2.624 -0.8214  0.4899  1.2346
33648SOL    HW2 7550   4.599  11.581   2.645  0.4430  0.9462 -0.9929
33649SOL     OW 7551   5.132  10.243   6.516 -0.1622 -0.3219  0.2508
33649SOL    HW1 7552   5.143  10.324   6.466 -0.4516 -1.2678 -1.4132
33649SOL    HW2 7553   5.042  10.217   6.498  0.1792 -1.4303  0.0850
33650SOL     OW 7554   7.042   7.246   0.404 -0.1634  0.0251 -0.3401
33650SOL    HW1 7555   7.009   7.194   0.332  1.5944 -0.2201 -1.0263
33650SOL    HW2 7556   7.130   7.210   0.421 -0.6243 -0.0968  2.0949
33651SOL     OW 7557  11.994   3.233   9.591 -0.3793 -0.1613 -0.2685
33651SOL    HW1 7558  11.949   3.249   9.508  0.3325 -1.2907 -0.8951
33651SOL    HW2 7559  11.998   3.137   9.598  0.3030 -0.0789  0.6655
33652SOL     OW 7560   0.834  12.154   7.336 -0.2298  0.1952 -0.1457
33652SOL    HW1 7561   0.889  12.194   7.404 -0.2221 -0.3092  0.1460
33652SOL    HW2 7562   0.763  12.112   7.385 -1.0593  1.0922 -0.5285
33653SOL     OW 7563   7.167   3.280   7.744  0.4084 -0.0491 -0.1634
33653SOL    HW1 7564   7.247   3.252   7.787 -1.1215 -0.2895  2.7578
33653SOL    HW2 7565   7.117   3.200   7.731  0.1748  0.2168 -0.9655
33654SOL     OW 7566   1.650  12.342  10.718  0.2429 -0.2786 -0.5087
33654SOL    HW1 7567   1.665  12.315  10.809 -0.1678 -4.1547 -1.4220
33654SOL    HW2 7568   1.555  12.342  10.709  0.1066  3.0664 -0.2997
33655SOL     OW 7569   3.578   4.243   6.991  0.0141  0.1438  0.6217
33655SOL    HW1 7570   3.669   4.257   7.017  0.6982 -0.2482 -1.3157
33655SOL    HW2 7571   3.563   4.308   6.922 -1.5745  0.9605  1.6772
33656SOL     OW 7572   9.693   0.099   7.236  0.5416 -0.2653  0.0784
33656SOL    HW1 7573   9.768   0.063   7.282  0.0998  0.2630  1.2385
33656SOL    HW2 7574   9.695   0.192   7.257 -0.0687 -0.1377 -0.4113
33657SOL     OW 7575   9.658   0.025  11.157 -0.6240  0.1864 -0.0378
33657SOL    HW1 7576   9.677  -0.017  11.241  0.6553  0.1224 -0.3420
33657SOL    HW2 7577   9.743   0.056  11.126 -0.8822 -0.7926 -1.8605
33658SOL     OW 7578  10.304  11.673   3.053  0.0513  0.5025  0.5076
33658SOL    HW1 7579  10.320  11.761   3.088  0.8197  0.1206  1.1446
33658SOL    HW2 7580  10.310  11.616   3.129  0.4231 -0.2042 -0.0482
33659SOL     OW 7581   7.660   7.787  11.318  0.2346 -0.3485  0.2555
33659SOL    HW1 7582   7.566   7.795  11.305  0.1262 -0.6440  0.7945
33659SOL    HW2 7583   7.699   7.816  11.236 -0.3273 -0.2363  0.0259
33660SOL     OW 7584   7.422   1.572  12.212  0.2690  0.3227  0.1578
33660SOL    HW1 7585   7.455   1.485  12.190  0.7631  0.3773  0.6437
33660SOL    HW2 7586   7.367   1.597  12.138  0.9886  0.0477 -0.4865
33661SOL     OW 7587   1.368   9.328   5.508  0.3827  0.1528 -0.1621
33661SOL    HW1 7588   1.460   9.314   5.533  0.1525  2.0005  2.0648
33661SOL    HW2 7589   1.319   9.266   5.561  0.2651  0.0820 -0.3549
33662SOL     OW 7590   6.350  12.713   8.119 -0.8080  0.0101  0.2134
33662SOL    HW1 7591   6.283  12.649   8.094 -0.8866 -0.7384  2.1373
33662SOL    HW2 7592   6.304  12.779   8.170 -0.3822  0.5110 -0.0356
33663SOL     OW 7593   2.188   7.047   1.502 -0.3165 -0.3574 -0.0324
33663SOL    HW1 7594   2.202   7.102   1.424  1.3154  1.5961  1.5280
33663SOL    HW2 7595   2.105   7.077   1.538  0.0026  0.2924  0.1740
33664SOL     OW 7596   2.222   8.685   9.497 -0.0114 -0.5986 -0.2724
33664SOL    HW1 7597   2.275   8.668   9.575  0.6243  0.0590 -0.5490
33664SOL    HW2 7598   2.132   8.669   9.525 -0.2160  2.8904  1.6450
33665SOL     OW 7599   2.968  12.398  11.958 -0.8858 -0.1622 -0.2619
33665SOL    HW1 7600   2.937  12.451  12.031 -0.1218 -0.3591  0.2130
33665SOL    HW2 7601   2.945  12.308  11.982 -2.1820 -0.0657 -1.0666
33666SOL     OW 7602   9.367  11.620   0.569 -0.3978  0.3977 -0.6046
33666SOL    HW1 7603   9.356  11.655   0.658  0.0190  0.3186 -0.5210
33666SOL    HW2 7604   9.314  11.540   0.568  0.0273  0.1087 -0.2577
33667SOL     OW 7605   3.949   7.751   9.683  0.0428  0.5341 -0.0623
33667SOL    HW1 7606   3.933   7.837   9.643  0.0021  0.3203 -0.5091
33667SOL    HW2 7607   3.868   7.703   9.669 -0.8975  1.2760  2.4550
33668SOL     OW 7608  12.164   5.459   9.454  0.4049  0.0652  0.0973
33668SOL    HW1 7609  12.244   5.507   9.476  0.2248  1.7814 -2.6115
33668SOL    HW2 7610  12.169   5.445   9.360 -2.0717 -0.6311 -0.0119
33669SOL     OW 7611  12.321   6.047   7.920 -0.3644  0.1751  0.0455
33669SOL    HW1 7612  12.342   6.119   7.861  1.0759  1.9511  2.5948
33669SOL    HW2 7613  12.402   5.996   7.926 -0.3467  0.2861  0.8418
33670SOL     OW 7614   9.170   3.844  11.549 -0.0699 -0.0548 -0.0631
33670SOL    HW1 7615   9.093   3.900  11.550  0.4374  0.6561  0.9834
33670SOL    HW2 7616   9.146   3.769  11.604  0.0025  0.1913  0.3047
33671SOL     OW 7617   4.039   4.102   2.655 -0.1428 -0.0601 -0.6635
33671SOL    HW1 7618   4.041   4.006   2.652 -1.3769 -0.0940 -0.8198
33671SOL    HW2 7619   4.088   4.124   2.735 -1.2190 -0.8971  0.2538
33672SOL     OW 7620   7.124   4.003  11.612 -0.3931  0.3278  0.0753
33672SOL    HW1 7621   7.100   4.064  11.682  1.8623 -2.0472  3.1999
33672SOL    HW2 7622   7.089   3.919  11.641 -0.3990 -0.5549 -2.3265
33673SOL     OW 7623  10.435  12.470   3.185 -0.0561  0.1366 -0.2852
33673SOL    HW1 7624  10.390  12.542   3.139 -0.9813 -0.3208 -0.1138
33673SOL    HW2 7625  10.526  12.498   3.190 -0.6553  2.0155  1.1500
33674SOL     OW 7626   5.384   8.515  12.063  0.0643 -0.5393  0.2464
33674SOL    HW1 7627   5.366   8.461  11.986 -0.5877 -0.8772  0.6348
33674SOL    HW2 7628   5.376   8.455  12.137  2.7201 -0.7270  0.4939
33675SOL     OW 7629   6.581   0.277   3.718  0.1403 -0.3379  0.1111
33675SOL    HW1 7630   6.596   0.349   3.656 -0.5407 -0.3099 -0.0239
33675SOL    HW2 7631   6.487   0.263   3.717 -0.0627  0.5143  2.0993
33676SOL     OW 7632   9.164   0.738   6.508  0.0901 -0.5926 -0.0540
33676SOL    HW1 7633   9.214   0.799   6.454  1.3182  0.5159  2.1946
33676SOL    HW2 7634   9.165   0.777   6.596 -1.2047 -2.6430  0.9484
33677SOL     OW 7635   8.329   3.321   5.809 -0.4038 -0.1514  0.1142
33677SOL    HW1 7636   8.396   3.327   5.878  0.1285 -2.6941 -0.0798
33677SOL    HW2 7637   8.368   3.365   5.734  0.2094  0.1455  0.5912
33678SOL     OW 7638   7.430  10.754  11.502 -0.2977 -0.5257  0.2464
33678SOL    HW1 7639   7.376  10.700  11.560  0.1754 -1.0967  0.1729
33678SOL    HW2 7640   7.369  10.816  11.463 -0.2725  1.5649  3.1870
33679SOL     OW 7641   9.615   0.596   4.263 -0.2994  0.0397  0.6040
33679SOL    HW1 7642   9.596   0.503   4.275 -1.2338  0.3111  1.3139
33679SOL    HW2 7643   9.711   0.601   4.264 -0.1646 -1.1694 -1.5798
33680SOL     OW 7644   2.466   7.897   9.145 -0.3853  0.1435  0.0566
33680SOL    HW1 7645   2.461   7.958   9.071  0.2070  0.2693  0.1158
33680SOL    HW2 7646   2.411   7.823   9.119 -0.3524  0.2838 -0.4170
33681SOL     OW 7647  12.400  12.159   7.741 -0.6230 -0.4364 -0.3688
33681SOL    HW1 7648  12.360  12.073   7.749  0.7190 -1.1917 -1.3534
33681SOL    HW2 7649  12.463  12.164   7.813  0.5638 -1.0432 -1.3157
33682SOL     OW 7650   5.837   8.261   3.619  0.1612 -0.2867  0.1273
33682SOL    HW1 7651   5.816   8.168   3.609 -0.7839  0.1071 -2.2837
33682SOL    HW2 7652   5.913   8.274   3.563 -1.5232  0.9032 -2.0416
33683SOL     OW 7653  11.236   0.704   2.021 -0.2016 -0.2109 -0.1087
33683SOL    HW1 7654  11.180   0.741   1.952 -1.5104  1.1893  1.6282
33683SOL    HW2 7655  11.176   0.678   2.090  1.0045 -2.4321  0.2170
33684SOL     OW 7656   4.279   8.164   7.384  0.3338 -0.0494  0.2988
33684SOL    HW1 7657   4.239   8.081   7.409  0.1572  0.3043  1.2428
33684SOL    HW2 7658   4.328   8.144   7.304 -0.4048 -0.8589  0.0296
33685SOL     OW 7659   9.222   8.732  12.184 -0.4810 -0.1765  0.1163
33685SOL    HW1 7660   9.156   8.762  12.247 -2.0144 -0.7614 -1.1388
33685SOL    HW2 7661   9.229   8.805  12.121 -0.1928 -0.2510  0.0639
33686SOL     OW 7662   2.558   8.484   1.731  0.1587 -0.1350  0.0169
33686SOL    HW1 7663   2.484   8.515   1.679 -0.9866  0.1963  1.7717
33686SOL    HW2 7664   2.551   8.388   1.728 -0.5035 -0.1031  0.3745
33687SOL     OW 7665   6.959   8.849   4.294  0.1510 -0.2012 -0.3343
33687SOL    HW1 7666   7.044   8.891   4.280  0.4048 -0.2231  0.9553
33687SOL    HW2 7667   6.952   8.842   4.389 -1.4487  0.0917 -0.4061
33688SOL     OW 7668   0.997  10.388   9.117 -0.2766 -0.4985 -0.2042
33688SOL    HW1 7669   0.908  10.380   9.152 -0.1131  2.2666  1.1501
33688SOL    HW2 7670   1.053  10.352   9.186 -0.1585  2.0125  1.1365
33689SOL     OW 7671   5.238   0.636   4.646  0.2336 -0.2409 -0.1532
33689SOL    HW1 7672   5.269   0.721   4.616  3.0443 -0.2231  2.3057
33689SOL    HW2 7673   5.161   0.656   4.699  1.0507  0.9126  0.6699
33690SOL     OW 7674   4.804  11.548   2.634  0.4181  0.1094 -0.8159
33690SOL    HW1 7675   4.793  11.598   2.553  0.7861 -0.2439 -1.0923
33690SOL    HW2 7676   4.872  11.596   2.683  1.4299 -0.5912 -1.4849
33691SOL     OW 7677   0.306   8.302   5.608 -0.8905  0.3269 -0.5090
33691SOL    HW1 7678   0.297   8.353   5.527 -0.3095  2.6533  0.8087
33691SOL    HW2 7679   0.219   8.303   5.646 -1.3010 -1.2544 -1.3144
33692SOL     OW 7680   1.086  10.797   9.825 -0.1041 -0.0126  0.2809
33692SOL    HW1 7681   1.055  10.796   9.916  1.4177  1.8826  0.8824
33692SOL    HW2 7682   1.029  10.859   9.780 -1.0446 -1.1713 -0.1635
33693SOL     OW 7683   4.635   8.574   3.646 -0.1416 -0.2064  0.1431
33693SOL    HW1 7684   4.593   8.629   3.580 -0.5654 -1.2057 -0.4461
33693SOL    HW2 7685   4.729   8.592   3.637 -0.1020 -1.0046 -1.3981
33694SOL     OW 7686   8.705   7.120  11.568 -0.5783 -0.4996 -0.0683
33694SOL    HW1 7687   8.725   7.030  11.541  0.1775 -0.8060  1.3683
33694SOL    HW2 7688   8.621   7.112  11.614 -2.0403  0.0766 -2.4894
33695SOL     OW 7689   9.888  12.177  12.032  0.2580 -0.0986  0.4366
33695SOL    HW1 7690   9.845  12.099  12.067 -1.6812  1.2677  1.2672
33695SOL    HW2 7691   9.932  12.216  12.107 -0.0741  0.4140  0.3700
33696SOL     OW 7692   0.575   7.578   2.110 -0.1313  0.2260 -0.1970
33696SOL    HW1 7693   0.558   7.666   2.143 -0.5452  0.4925 -1.1070
33696SOL    HW2 7694   0.588   7.526   2.189 -1.9948  0.6720  0.4693
33697SOL     OW 7695   5.879   7.699  10.562 -0.0431  0.2371 -0.2145
33697SOL    HW1 7696   5.928   7.638  10.507  0.8313  1.4096 -0.7923
33697SOL    HW2 7697   5.787   7.679  10.545  0.2312 -0.6423 -0.7010
33698SOL     OW 7698   5.671   4.476   6.456 -0.7945 -0.0936 -0.1717
33698SOL    HW1 7699   5.659   4.439   6.543 -0.0364  0.7214  0.2995
33698SOL    HW2 7700   5.736   4.420   6.414  1.5894  1.5037  1.1216
33699SOL     OW 7701   0.950   0.866   5.453  0.3508  0.3300 -0.2277
33699SOL    HW1 7702   0.882   0.809   5.486  1.8388  0.0213  2.5943
33699SOL    HW2 7703   0.910   0.953   5.451 -0.4872 -0.0421  0.1117
33700SOL     OW 7704   9.520   2.518  10.660 -0.6434  0.2582 -0.4796
33700SOL    HW1 7705   9.499   2.583  10.727  0.3047 -0.8778  0.9865
33700SOL    HW2 7706   9.507   2.434  10.703 -0.0606 -0.5148 -1.7569
33701SOL     OW 7707   6.150   6.736  10.144  0.9499 -0.5187  0.3138
33701SOL    HW1 7708   6.123   6.647  10.166  0.0449 -0.6625 -1.2749
33701SOL    HW2 7709   6.087   6.792  10.191  0.8519 -0.7331  0.4412
33702SOL     OW 7710   1.420   2.042  10.794  0.3364  0.1843 -0.0990
33702SOL    HW1 7711   1.510   2.071  10.782  0.2148  0.8965  0.6033
33702SOL    HW2 7712   1.426   1.967  10.852  0.3309  1.7782  2.1024
33703SOL     OW 7713   2.672   8.745  10.736  0.2474 -0.1515 -0.8556
33703SOL    HW1 7714   2.698   8.719  10.825 -0.6047 -0.4036 -0.6660
33703SOL    HW2 7715   2.659   8.839  10.741  0.1807 -0.1677 -0.6982
33704SOL     OW 7716   9.444   0.444   3.855  0.2256 -0.0920 -0.1559
33704SOL    HW1 7717   9.470   0.516   3.912 -1.4145  0.2301  0.2202
33704SOL    HW2 7718   9.455   0.478   3.766 -3.2696  1.7904 -0.0470
33705SOL     OW 7719   5.552  11.614   6.863  0.2305  0.3438  0.2414
33705SOL    HW1 7720   5.499  11.609   6.784 -0.6274  0.8437  0.7667
33705SOL    HW2 7721   5.615  11.543   6.855 -1.4299 -1.1849  0.2645
33706SOL     OW 7722   1.011   0.050   2.974 -0.4682  0.0545  0.2282
33706SOL    HW1 7723   1.007   0.136   3.017 -1.6694  0.0569  0.1365
33706SOL    HW2 7724   1.072  -0.000   3.028 -0.7423  0.5646  1.0394
33707SOL     OW 7725   2.686   1.160   2.753  0.5167  0.0005  0.1475
33707SOL    HW1 7726   2.593   1.139   2.759  0.4823  0.6380  3.6309
33707SOL    HW2 7727   2.732   1.083   2.786  1.1979  0.1073 -0.4993
33708SOL     OW 7728   2.442   7.243   4.884  0.0352 -0.6755  0.1279
33708SOL    HW1 7729   2.427   7.223   4.791 -1.0653  0.4060  0.0425
33708SOL    HW2 7730   2.439   7.338   4.889  0.8084 -0.6851  1.1795
33709SOL     OW 7731   7.559   6.978   4.165 -0.5123  1.1037  0.3060
33709SOL    HW1 7732   7.579   6.996   4.257 -2.2128  0.7367  0.7780
33709SOL    HW2 7733   7.486   6.917   4.168 -0.6197  1.1147 -1.3019
33710SOL     OW 7734   7.237  11.142   1.855 -0.0662  0.4082 -0.0396
33710SOL    HW1 7735   7.171  11.178   1.914  1.5133  0.8362  1.5509
33710SOL    HW2 7736   7.284  11.219   1.822 -1.3010  0.2410 -2.4405
33711SOL     OW 7737  10.901  11.019   0.467  0.3113  0.3198  0.4636
33711SOL    HW1 7738  10.898  11.114   0.455 -0.2756  0.1688 -0.6733
33711SOL    HW2 7739  10.992  11.001   0.492  0.6233  1.0945 -0.0837
33712SOL     OW 7740   7.274   6.127  12.616  0.1412 -0.5878  0.2079
33712SOL    HW1 7741   7.249   6.129  12.709  0.6774  1.7364  0.3588
33712SOL    HW2 7742   7.363   6.161  12.615 -0.2788  0.5754 -1.2364
33713SOL     OW 7743   2.598   5.093   6.527  0.2051  0.0433 -0.3844
33713SOL    HW1 7744   2.510   5.113   6.497 -0.7285 -1.6014  1.0599
33713SOL    HW2 7745   2.604   4.997   6.523  2.6062  0.1741 -2.1980
33714SOL     OW 7746  10.357   0.804  11.536 -0.1319  0.2035 -0.2786
33714SOL    HW1 7747  10.364   0.810  11.441  0.3884 -0.2843 -0.2711
33714SOL    HW2 7748  10.349   0.710  11.554  2.9841 -0.0266  0.3629
33715SOL     OW 7749   2.580  10.028   0.551  0.3288  0.3884  1.6209
33715SOL    HW1 7750   2.620  10.085   0.616 -0.8724 -0.1646  2.8996
33715SOL    HW2 7751   2.535   9.961   0.602  1.1827 -1.3849  0.1930
33716SOL     OW 7752   6.168   4.481   6.948  0.2538  0.0019  0.6017
33716SOL    HW1 7753   6.088   4.502   6.998  1.1059 -0.5139  2.2632
33716SOL    HW2 7754   6.196   4.565   6.912 -2.1203 -0.0917 -1.8108
33717SOL     OW 7755   1.347  12.375  11.397 -0.3488 -0.6909 -0.5903
33717SOL    HW1 7756   1.342  12.303  11.334  0.7694 -0.7912 -0.5882
33717SOL    HW2 7757   1.261  12.376  11.439 -0.4568 -1.8958 -0.7396
33718SOL     OW 7758   9.988   1.657  11.285  0.3809  0.0371 -0.1336
33718SOL    HW1 7759   9.965   1.664  11.192 -0.1443 -1.6251 -0.1517
33718SOL    HW2 7760   9.956   1.571  11.311  0.2175  0.6188  1.6886
33719SOL     OW 7761   0.180  11.501  10.570  0.3179  0.1490 -0.2792
33719SOL    HW1 7762   0.097  11.532  10.606  0.1142 -0.4657 -0.2157
33719SOL    HW2 7763   0.156  11.443  10.499  0.6380 -1.4422  0.8625
33720SOL     OW 7764   7.243   8.226   2.592 -0.0019 -0.0755  0.8059
33720SOL    HW1 7765   7.191   8.237   2.513  1.7564 -1.1371 -0.6126
33720SOL    HW2 7766   7.278   8.313   2.611 -0.5547  0.2157  0.4965
33721SOL     OW 7767   2.544   5.572   4.717 -0.6016  0.2406 -0.3935
33721SOL    HW1 7768   2.587   5.632   4.777 -0.7670 -0.7578  0.7688
33721SOL    HW2 7769   2.611   5.507   4.696 -0.6914  0.3095 -0.9060
33722SOL     OW 7770   4.360   0.323   7.620 -0.0277 -0.5061  0.3167
33722SOL    HW1 7771   4.417   0.279   7.558 -0.8496 -0.9435 -0.1536
33722SOL    HW2 7772   4.371   0.275   7.702  1.0871  0.0947  0.5373
33723SOL     OW 7773   8.830   5.510   4.239 -0.0649  0.0329 -0.5570
33723SOL    HW1 7774   8.789   5.539   4.158 -0.5923  0.1985 -0.2380
33723SOL    HW2 7775   8.794   5.567   4.306 -1.5219 -1.6403  0.1655
33724SOL     OW 7776  11.015  11.688   3.815  0.7082 -0.6372  0.3320
33724SOL    HW1 7777  11.086  11.700   3.879  1.4920  0.2607 -0.6565
33724SOL    HW2 7778  10.936  11.676   3.868  1.4118 -0.4230  1.4628
33725SOL     OW 7779   8.738   0.742   4.026 -0.3228  0.0036  0.1431
33725SOL    HW1 7780   8.807   0.758   4.090 -1.7486  0.4336  1.6195
33725SOL    HW2 7781   8.668   0.802   4.050 -2.4567 -2.4893  0.6147
33726SOL     OW 7782   8.867   4.088  12.579  0.5133 -0.0337 -0.0247
33726SOL    HW1 7783   8.786   4.036  12.573  1.4743 -1.5166 -0.9443
33726SOL    HW2 7784   8.845   4.161  12.637 -2.1209  0.8625 -1.9772
33727SOL     OW 7785   0.654   9.173   7.995 -0.5514 -0.8847  0.1802
33727SOL    HW1 7786   0.726   9.184   7.933 -0.4431  0.3027  0.5077
33727SOL    HW2 7787   0.611   9.258   7.998 -0.0110 -0.6325  2.4109
33728SOL     OW 7788   4.609   0.502  10.167 -0.1346 -0.6488 -0.2354
33728SOL    HW1 7789   4.694   0.514  10.125 -1.5406 -0.0147 -3.2123
33728SOL    HW2 7790   4.601   0.407  10.179  0.2278 -0.9168 -1.8291
33729SOL     OW 7791   3.292   5.120   7.276  0.3950  0.0031 -0.0129
33729SOL    HW1 7792   3.310   5.079   7.360 -0.0275 -0.4982 -0.1628
33729SOL    HW2 7793   3.201   5.097   7.257 -0.7121  3.0118  1.0440
33730SOL     OW 7794   2.032   4.906   0.972  0.6944 -0.2387 -0.3420
33730SOL    HW1 7795   2.074   4.831   1.015 -0.7179 -0.5680  0.5488
33730SOL    HW2 7796   2.103   4.967   0.956  1.6297 -1.0778  0.4407
33731SOL     OW 7797   1.845   6.418  11.869  0.1379 -0.7155 -0.1254
33731SOL    HW1 7798   1.919   6.365  11.901  0.0749 -0.8660 -0.2311
33731SOL    HW2 7799   1.838   6.396  11.776  0.9916  0.5017 -0.5117
33732SOL     OW 7800  11.726   2.817  10.430  0.0041 -0.0356 -0.1912
33732SOL    HW1 7801  11.780   2.798  10.354 -0.0584  0.3785 -0.3387
33732SOL    HW2 7802  11.673   2.892  10.405 -1.8699 -1.4377 -0.6773
33733SOL     OW 7803   6.370   2.748   3.069  0.0753  0.5002 -0.3640
33733SOL    HW1 7804   6.324   2.734   3.151  2.1409 -0.5157  0.6732
33733SOL    HW2 7805   6.463   2.751   3.092  0.6783  1.2037 -2.5322
33734SOL     OW 7806  11.943   0.979   3.923 -0.0210 -0.2169  0.1379
33734SOL    HW1 7807  11.973   0.945   4.007 -0.5490 -0.4845  0.2224
33734SOL    HW2 7808  11.999   1.055   3.906  0.0130 -0.0949  0.7833
33735SOL     OW 7809  12.491   1.719  10.767  0.3011  0.3972  0.0074
33735SOL    HW1 7810  12.421   1.691  10.826  1.0404 -0.2444  0.6081
33735SOL    HW2 7811  12.499   1.647  10.704  1.1225 -0.0332  0.5852
33736SOL     OW 7812   7.924   9.382  10.973 -0.4466 -0.0808  0.1953
33736SOL    HW1 7813   8.017   9.403  10.966 -0.5726  0.5139  0.2280
33736SOL    HW2 7814   7.906   9.378  11.067 -0.6223  0.5923  0.1926
33737SOL     OW 7815  11.593  10.712   6.723  0.2766 -0.1507 -0.1439
33737SOL    HW1 7816  11.663  10.758   6.769  0.1285 -0.6156  0.5566
33737SOL    HW2 7817  11.530  10.689   6.791 -0.3270 -0.1632 -0.6954
33738SOL     OW 7818   4.829   4.093   2.745  0.2091  0.0668 -0.1488
33738SOL    HW1 7819   4.793   4.005   2.751  1.7898 -0.5752  0.8066
33738SOL    HW2 7820   4.820   4.128   2.834 -0.8252  1.0687 -0.6281
33739SOL     OW 7821   1.858   1.944   6.638 -0.0469 -0.6431 -0.1105
33739SOL    HW1 7822   1.882   1.873   6.578  1.6360 -0.7512  0.6058
33739SOL    HW2 7823   1.890   1.913   6.724 -1.9408 -0.2823  0.7673
33740SOL     OW 7824  12.560   8.309   1.398 -0.0266  0.1462  0.2111
33740SOL    HW1 7825  12.523   8.392   1.428  0.0749 -0.7497  3.0972
33740SOL    HW2 7826  12.485   8.260   1.364 -1.2382 -0.6621  3.6590
33741SOL     OW 7827   2.854   1.307   8.698  0.4361 -0.1433 -0.7376
33741SOL    HW1 7828   2.825   1.226   8.740  0.1137  0.5809  0.4976
33741SOL    HW2 7829   2.811   1.376   8.748  1.4896  0.8270 -1.1381
33742SOL     OW 7830   8.511   5.157   4.724 -0.9250 -0.3619 -0.0630
33742SOL    HW1 7831   8.563   5.151   4.804 -0.8615  0.2762 -0.0577
33742SOL    HW2 7832   8.432   5.106   4.743 -1.8042  1.3637  1.1099
33743SOL     OW 7833   9.524  11.136   0.255  0.4839 -0.2638 -0.6006
33743SOL    HW1 7834   9.569  11.216   0.281  0.4100 -0.5399  0.4320
33743SOL    HW2 7835   9.510  11.145   0.161  1.3856  0.4750 -0.6775
33744SOL     OW 7836   6.721   2.374  12.558 -0.0351 -0.1904 -0.0774
33744SOL    HW1 7837   6.676   2.383  12.642 -0.8456 -2.0033 -0.2767
33744SOL    HW2 7838   6.650   2.371  12.493  0.4943 -0.7215 -0.6381
33745SOL     OW 7839   9.184   7.619   6.895 -0.3554 -0.3473 -0.6120
33745SOL    HW1 7840   9.169   7.537   6.942  0.5935 -0.8743 -1.1904
33745SOL    HW2 7841   9.274   7.612   6.863 -0.5731  0.5126 -1.4638
33746SOL     OW 7842   3.784   7.678  10.130  0.7029  0.2260  0.1891
33746SOL    HW1 7843   3.879   7.677  10.134  0.6830 -1.7168  1.8872
33746SOL    HW2 7844   3.761   7.612  10.065  0.5263 -0.1072  0.5829
33747SOL     OW 7845   1.382   4.129   7.387  0.3136  0.0495 -0.0163
33747SOL    HW1 7846   1.425   4.044   7.388  1.4559  0.5980  1.1239
33747SOL    HW2 7847   1.302   4.116   7.439  0.6775 -0.2387  0.4789
33748SOL     OW 7848   6.014   1.015   2.689 -0.1890 -0.8275 -0.2496
33748SOL    HW1 7849   6.076   0.954   2.649 -1.7784 -1.4187 -1.9550
33748SOL    HW2 7850   5.976   1.062   2.615  1.4503  2.8390  1.0069
33749SOL     OW 7851   8.483   1.542   6.757 -0.0752 -0.5786 -0.3861
33749SOL    HW1 7852   8.477   1.450   6.782 -1.4486 -0.4085  0.0155
33749SOL    HW2 7853   8.475   1.541   6.661  0.1599 -0.8859 -0.4053
33750SOL     OW 7854  10.207   9.745   4.618  0.8677 -0.0353  0.4424
33750SOL    HW1 7855  10.272   9.814   4.600  0.9044 -0.3850 -0.9140
33750SOL    HW2 7856  10.132   9.791   4.654  0.9498  0.7068 -0.3065
33751SOL     OW 7857  12.308   6.688   6.111  0.3529 -0.4821 -0.0326
33751SOL    HW1 7858  12.355   6.653   6.036  2.1729  3.6667 -1.0715
33751SOL    HW2 7859  12.374   6.735   6.162 -1.6907  0.9039  1.5477
33752SOL     OW 7860   9.434  11.107   5.217 -0.1888 -0.1918  0.5613
33752SOL    HW1 7861   9.464  11.073   5.132  0.3310 -2.4656  1.5675
33752SOL    HW2 7862   9.515  11.116   5.268 -0.2774  2.9019  0.3277
33753SOL     OW 7863   5.165   2.267   8.119 -0.1527 -0.4387  0.0675
33753SOL    HW1 7864   5.205   2.280   8.205 -0.1613 -0.7440  0.1211
33753SOL    HW2 7865   5.184   2.175   8.098  0.6775 -0.1093 -0.6761
33754SOL     OW 7866   1.163   4.872   5.677 -0.1348 -0.1876 -0.4790
33754SOL    HW1 7867   1.108   4.930   5.729  0.2525  0.0313 -0.3138
33754SOL    HW2 7868   1.147   4.785   5.714  0.3744  0.0053  0.2193
33755SOL     OW 7869   3.979   4.604  10.696 -0.1300 -0.1656 -0.1036
33755SOL    HW1 7870   3.924   4.526  10.687  0.2400 -0.4176 -0.2092
33755SOL    HW2 7871   4.069   4.570  10.698 -0.0146  0.1645  0.9778
33756SOL     OW 7872   1.088   8.383  10.594 -0.0250  0.4571 -0.6838
33756SOL    HW1 7873   1.129   8.468  10.609  1.6171 -0.2727 -0.7757
33756SOL    HW2 7874   1.101   8.367  10.500  1.3085 -0.6522 -0.3482
33757SOL     OW 7875   9.685   3.543   9.987  0.1625 -0.4924  0.2306
33757SOL    HW1 7876   9.683   3.628  10.031  1.0027  0.2755 -1.1407
33757SOL    HW2 7877   9.621   3.490  10.034  1.5568 -0.0017  2.8726
33758SOL     OW 7878   6.114  11.358   5.607  0.6383  0.7822  0.3426
33758SOL    HW1 7879   6.197  11.405   5.614  1.8559 -1.3609  1.5720
33758SOL    HW2 7880   6.127  11.296   5.535  0.3749 -0.0297  0.9759
33759SOL     OW 7881  11.108   6.521  11.897 -0.4342  0.1471 -0.8212
33759SOL    HW1 7882  11.166   6.445  11.904  0.0625  0.5723 -0.1217
33759SOL    HW2 7883  11.061   6.508  11.815 -0.7166 -1.1547 -0.4692
33760SOL     OW 7884   0.416  10.308   7.285  0.3068 -0.2635  0.3621
33760SOL    HW1 7885   0.476  10.281   7.215  0.8601 -0.5274  0.9281
33760SOL    HW2 7886   0.396  10.399   7.266  0.3603 -0.3648 -0.2059
33761SOL     OW 7887   8.311   2.647   5.202 -0.7271  0.4427 -0.1909
33761SOL    HW1 7888   8.259   2.703   5.144 -0.8314 -0.1057 -0.6446
33761SOL    HW2 7889   8.380   2.612   5.145  1.6736  3.0473  0.9228
33762SOL     OW 7890  12.349   4.944   2.353  0.1511  0.3848 -0.2589
33762SOL    HW1 7891  12.345   4.939   2.449  0.3046  1.3804 -0.1917
33762SOL    HW2 7892  12.412   4.878   2.328  0.8633  0.7953  0.4092
33763SOL     OW 7893  11.818   8.514  11.466 -0.0773  0.1948 -0.5426
33763SOL    HW1 7894  11.853   8.522  11.555  0.8269  1.2095 -0.9614
33763SOL    HW2 7895  11.862   8.438  11.429  0.2331  0.3147 -0.4212
33764SOL     OW 7896   3.217  11.205   2.987  0.5469 -0.1009 -0.2174
33764SOL    HW1 7897   3.229  11.198   3.082  2.1536  0.4069 -0.3551
33764SOL    HW2 7898   3.264  11.129   2.951  0.4405  0.0326 -0.6432
33765SOL     OW 7899   9.282   1.932   1.472 -0.5537 -0.4666  0.3054
33765SOL    HW1 7900   9.317   1.953   1.386 -2.6288 -0.4657 -0.5968
33765SOL    HW2 7901   9.322   1.848   1.494 -0.6300 -0.8797 -1.0404
33766SOL     OW 7902   9.182   0.308   1.778  0.5974  0.1832  0.7231
33766SOL    HW1 7903   9.240   0.245   1.822  0.6525  0.5107  1.1247
33766SOL    HW2 7904   9.217   0.394   1.802  1.5702  0.3781 -1.2564
33767SOL     OW 7905  11.849  11.849   8.314 -0.2144 -0.4815  0.1677
33767SOL    HW1 7906  11.816  11.938   8.300  3.4063  1.0913  0.5326
33767SOL    HW2 7907  11.899  11.830   8.234  1.0043 -1.1780  1.0666
33768SOL     OW 7908   0.658  12.660  12.591 -0.1438 -0.2463 -0.1636
33768SOL    HW1 7909   0.748  12.690  12.603 -0.0096 -0.9309  0.6633
33768SOL    HW2 7910   0.604  12.733  12.621  0.1598 -0.3069  0.5568
33769SOL     OW 7911   7.881   5.063   4.947  0.0658  0.5852 -0.0448
33769SOL    HW1 7912   7.896   5.123   4.874  1.7306  0.9543  0.5566
33769SOL    HW2 7913   7.901   4.976   4.911 -1.9085  0.3688 -0.7860
33770SOL     OW 7914   4.479   4.864   8.764 -0.5472 -0.4959 -0.2025
33770SOL    HW1 7915   4.486   4.786   8.709  0.2777 -0.7355  0.2337
33770SOL    HW2 7916   4.430   4.927   8.710 -1.2778 -1.3310 -0.5300
33771SOL     OW 7917  11.362   8.638  10.261  0.0197 -0.0926 -0.0057
33771SOL    HW1 7918  11.369   8.543  10.264 -0.8511 -0.1489  0.5529
33771SOL    HW2 7919  11.406   8.669  10.340  0.1346 -0.0384 -0.0903
33772SOL     OW 7920  11.369   3.315   5.645  0.1299  0.1984 -0.1403
33772SOL    HW1 7921  11.305   3.306   5.574  0.6502  2.5969 -1.0255
33772SOL    HW2 7922  11.321   3.357   5.716  0.6130  1.9685 -0.7924
33773SOL     OW 7923  10.370   8.871   2.976 -0.4121  0.5339 -0.0474
33773SOL    HW1 7924  10.379   8.954   2.928  0.3032  0.9923  0.8515
33773SOL    HW2 7925  10.275   8.859   2.983 -0.5284  1.1975 -0.3292
33774SOL     OW 7926  10.864   4.200   6.397  0.4107  0.6045 -0.2469
33774SOL    HW1 7927  10.893   4.263   6.331  0.1605  1.8061  0.7447
33774SOL    HW2 7928  10.773   4.224   6.415  0.9373  1.3824  1.6643
33775SOL     OW 7929   1.799   6.007  12.360  0.0415 -0.0498 -0.6928
33775SOL    HW1 7930   1.798   6.098  12.332 -0.3756 -0.0111 -0.5727
33775SOL    HW2 7931   1.830   6.010  12.451  0.6483 -0.0957 -0.8959
33776SOL     OW 7932   8.632   6.597   0.017 -0.2183 -0.5784 -0.5572
33776SOL    HW1 7933   8.630   6.683   0.057  0.4889 -1.0264  0.4535
33776SOL    HW2 7934   8.682   6.609  -0.064  2.2916 -0.5824  0.9246
33777SOL     OW 7935   5.598   4.497   2.586  0.3454 -0.2896  0.6582
33777SOL    HW1 7936   5.631   4.585   2.572 -1.2957  0.0758 -1.3787
33777SOL    HW2 7937   5.668   4.452   2.633  1.5071  1.8760  1.1049
33778SOL     OW 7938  12.302   4.664   1.988 -0.0465  0.0004  0.5110
33778SOL    HW1 7939  12.250   4.604   1.934 -1.1256  0.3214  1.1465
33778SOL    HW2 7940  12.392   4.646   1.964 -0.4361 -0.7211 -0.5028
33779SOL     OW 7941   9.216   5.337  10.688 -0.1970  0.5797 -0.2545
33779SOL    HW1 7942   9.266   5.277  10.633 -0.5801 -0.5255  0.5662
33779SOL    HW2 7943   9.280   5.403  10.716  0.7209 -0.5566  0.4125
33780SOL     OW 7944   7.804  11.168   3.297  0.0629  0.7396 -0.1039
33780SOL    HW1 7945   7.772  11.210   3.377 -0.2290 -0.7626  0.6102
33780SOL    HW2 7946   7.871  11.107   3.328 -2.3075 -2.2930 -0.4972
33781SOL     OW 7947  10.056   3.895   1.390 -0.4559 -0.3757  0.1877
33781SOL    HW1 7948  10.067   3.964   1.324 -2.0043  0.1527  0.4336
33781SOL    HW2 7949   9.962   3.891   1.405 -0.2731 -1.6052  1.2042
33782SOL     OW 7950   2.896   7.850   6.764 -0.5305  0.1737  0.0433
33782SOL    HW1 7951   2.808   7.857   6.727 -1.0157 -3.0066  0.3327
33782SOL    HW2 7952   2.882   7.834   6.857  0.2766 -1.0260 -0.0196
33783SOL     OW 7953   1.011   5.567   4.341  0.0286 -0.2795  0.4212
33783SOL    HW1 7954   0.980   5.597   4.426  0.1889 -0.9094  0.7128
33783SOL    HW2 7955   1.038   5.646   4.295  0.2172  0.0386  1.0706
33784SOL     OW 7956   6.033   2.953   7.062  0.3963  0.5910 -0.2789
33784SOL    HW1 7957   6.013   3.025   7.002  1.6233  0.9481 -0.2929
33784SOL    HW2 7958   5.981   2.880   7.031 -0.3980  1.2994 -0.6438
33785SOL     OW 7959   4.524   0.691   5.790 -0.8716 -0.1157 -0.2772
33785SOL    HW1 7960   4.614   0.678   5.820 -0.3860 -0.7356 -1.8711
33785SOL    HW2 7961   4.471   0.676   5.868  0.3563 -0.6083  0.5081
33786SOL     OW 7962   6.728   7.500   3.941  0.4621  0.1186 -0.0803
33786SOL    HW1 7963   6.820   7.520   3.922  1.0345  0.2882  2.4458
33786SOL    HW2 7964   6.731   7.453   4.025 -1.7673  0.1410  0.0771
33787SOL     OW 7965  11.567  12.308   4.698  0.3186  0.1020  0.3742
33787SOL    HW1 7966  11.647  12.299   4.750  0.7168  0.1857 -0.2192
33787SOL    HW2 7967  11.582  12.255   4.620 -0.2688 -0.0058  0.3305
33788SOL     OW 7968   9.146  11.319  11.576 -0.2323 -0.6297  0.4698
33788SOL    HW1 7969   9.088  11.245  11.559 -1.3126  0.0766  0.9071
33788SOL    HW2 7970   9.225  11.300  11.527 -0.9920 -1.4480 -0.4744
33789SOL     OW 7971   0.383   1.686   7.714  0.1435 -0.0854  0.4005
33789SOL    HW1 7972   0.448   1.615   7.716  1.6388  1.1885 -0.1515
33789SOL    HW2 7973   0.412   1.741   7.641 -1.3578  0.7577  0.4109
33790SOL     OW 7974  12.771   5.184   2.905 -0.1754 -0.4867 -0.0397
33790SOL    HW1 7975  12.761   5.276   2.880 -0.0227 -0.8763 -1.6680
33790SOL    HW2 7976  12.737   5.180   2.994 -1.2790  0.9153 -0.3525
33791SOL     OW 7977  11.803   8.238   9.785 -0.4920 -0.0417  0.2784
33791SOL    HW1 7978  11.740   8.222   9.714  0.7634  0.6455 -1.0386
33791SOL    HW2 7979  11.888   8.235   9.742  0.4247 -1.1771  2.0751
33792SOL     OW 7980   0.685   0.969   0.384  0.4222 -0.3936  0.7504
33792SOL    HW1 7981   0.678   1.045   0.440  1.1486 -0.4012  0.8493
33792SOL    HW2 7982   0.674   1.003   0.295  0.6280 -0.1902  0.8035
33793SOL     OW 7983  11.459  10.754   5.326  1.0776 -0.4632 -0.3938
33793SOL    HW1 7984  11.445  10.664   5.357 -0.7926 -0.9904 -2.4988
33793SOL    HW2 7985  11.541  10.749   5.276  0.4463 -1.2987 -1.3914
33794SOL     OW 7986   3.163   6.999  10.553  0.0197 -0.4225  0.7229
33794SOL    HW1 7987   3.133   6.944  10.481  0.6602  0.2598 -0.0820
33794SOL    HW2 7988   3.087   7.054  10.574  0.1996  0.2171 -0.2561
33795SOL     OW 7989  12.788  10.584   2.389 -0.3637  0.1589 -0.1750
33795SOL    HW1 7990  12.814  10.611   2.477 -2.0169 -2.3060  1.1891
33795SOL    HW2 7991  12.699  10.617   2.379 -0.5549 -0.4296 -0.4914
33796SOL     OW 7992   3.027   5.552   9.338  0.1299  0.7840  0.2654
33796SOL    HW1 7993   2.975   5.483   9.298 -0.4967  0.9330  0.8084
33796SOL    HW2 7994   3.117   5.531   9.314 -0.2354  1.0299 -1.4507
33797SOL     OW 7995   8.069   5.304   3.922  0.0350  0.2329  0.1816
33797SOL    HW1 7996   8.152   5.351   3.911  0.0328  0.3341  0.5908
33797SOL    HW2 7997   8.022   5.319   3.840  0.8445 -0.6753 -0.4727
33798SOL     OW 7998   5.001   4.542  10.074  0.4515  0.5019 -0.0040
33798SOL    HW1 7999   5.001   4.450  10.048 -1.6220  0.4133  0.2040
33798SOL    HW2 8000   4.959   4.542  10.160 -0.3075  1.7224 -0.3616
33799SOL     OW 8001   2.899   0.534   1.599  0.3297 -0.8232 -0.5537
33799SOL    HW1 8002   2.979   0.506   1.644  0.1066 -0.6458 -0.0416
33799SOL    HW2 8003   2.888   0.626   1.624 -0.2814 -0.9729 -0.2478
33800SOL     OW 8004   1.819  10.883   8.377  0.1813  0.2005  0.9602
33800SOL    HW1 8005   1.804  10.977   8.373 -0.4159  0.0723 -2.4674
33800SOL    HW2 8006   1.739  10.844   8.343  0.7821 -1.5240  1.4223
33801SOL     OW 8007   2.724   3.771   0.625 -0.3032  0.3648  0.0670
33801SOL    HW1 8008   2.689   3.788   0.538  1.2585  2.3347 -0.2456
33801SOL    HW2 8009   2.697   3.681   0.645 -1.5161  0.2129 -2.0155
33802SOL     OW 8010  11.382  11.568   2.090  0.1614  0.2226 -0.0023
33802SOL    HW1 8011  11.375  11.491   2.146 -1.1487  0.0278 -0.3869
33802SOL    HW2 8012  11.329  11.546   2.013  0.2803  1.2606 -0.3959
33803SOL     OW 8013   0.054  10.465   0.850  0.1971  0.0163  0.1756
33803SOL    HW1 8014   0.012  10.440   0.768 -0.9380 -0.1762  0.8022
33803SOL    HW2 8015   0.068  10.559   0.841 -0.9036  0.1932  0.1797
33804SOL     OW 8016   6.564   5.948   2.013  1.0564  0.4180 -0.2245
33804SOL    HW1 8017   6.581   6.021   2.073  0.0062  0.5919 -0.1210
33804SOL    HW2 8018   6.532   5.991   1.933  0.6090  0.0903 -0.2257
33805SOL     OW 8019   8.496  10.051  10.033  0.0351  0.2010  0.3476
33805SOL    HW1 8020   8.535  10.136  10.017 -0.6199  0.6168  0.8977
33805SOL    HW2 8021   8.557  10.006  10.092  0.6558  0.0644 -0.3910
33806SOL     OW 8022   0.380   1.085   1.556 -0.6501 -0.4754 -0.4566
33806SOL    HW1 8023   0.417   1.000   1.534 -3.2159 -1.6453 -0.5588
33806SOL    HW2 8024   0.411   1.102   1.645  2.7447  0.2396 -1.6193
33807SOL     OW 8025   1.452   3.666   6.757  0.3210 -0.3073  0.5797
33807SOL    HW1 8026   1.545   3.642   6.762  0.3323 -0.3359  0.2597
33807SOL    HW2 8027   1.430   3.696   6.845  1.0349  1.1778  0.2725
33808SOL     OW 8028   5.666   4.291   1.823  0.3771 -0.0449  0.2250
33808SOL    HW1 8029   5.729   4.298   1.751  1.8119 -0.8691  1.3631
33808SOL    HW2 8030   5.717   4.309   1.902 -0.6528 -1.3818  1.2464
33809SOL     OW 8031   9.953   9.394   4.879  0.0902  0.0708 -0.0749
33809SOL    HW1 8032   9.942   9.481   4.842 -0.7633 -0.2791 -0.6585
33809SOL    HW2 8033   9.995   9.409   4.964  2.9231  0.8332 -1.4929
33810SOL     OW 8034   9.595   9.256   4.404 -0.9545  0.2487 -0.1384
33810SOL    HW1 8035   9.538   9.332   4.393 -0.2794  0.9938  1.1992
33810SOL    HW2 8036   9.684   9.293   4.404 -0.4043 -0.9120 -2.4575
33811SOL     OW 8037   1.761   7.823  10.012  0.1082  1.0710 -0.1609
33811SOL    HW1 8038   1.855   7.818  10.030  0.0325  2.3959  0.7161
33811SOL    HW2 8039   1.720   7.828  10.098 -0.9388 -1.2795 -0.4447
33812SOL     OW 8040   6.433   5.274   4.782  0.2680  0.4326  0.1289
33812SOL    HW1 8041   6.520   5.238   4.766 -0.0885 -0.4645  0.2018
33812SOL    HW2 8042   6.450   5.365   4.806  1.2287  0.1127  0.7163
33813SOL     OW 8043   1.795   6.229  11.243 -0.3683  0.4545  0.1267
33813SOL    HW1 8044   1.736   6.291  11.286  1.9605  1.3241  2.3008
33813SOL    HW2 8045   1.844   6.282  11.180 -0.5104  0.1580 -0.2366
33814SOL     OW 8046  10.716   7.017   7.456 -0.1838 -0.2740 -0.0382
33814SOL    HW1 8047  10.726   7.109   7.431 -1.7178 -0.0292  0.1429
33814SOL    HW2 8048  10.628   7.012   7.494  0.2700 -1.6131  0.9136
33815SOL     OW 8049  10.955   0.783   2.763 -0.1300  0.0975 -0.0479
33815SOL    HW1 8050  10.975   0.845   2.833 -0.5013 -0.9754  1.0480
33815SOL    HW2 8051  10.915   0.837   2.695  3.4454  1.7888 -1.0243
33816SOL     OW 8052   2.147   6.856   7.715  0.1844 -0.0345  0.1137
33816SOL    HW1 8053   2.072   6.909   7.743  0.7910  1.1973 -0.5071
33816SOL    HW2 8054   2.137   6.847   7.620 -0.7316 -2.3972  0.3577
33817SOL     OW 8055  11.157  10.348   9.627  0.0996  0.3617  0.0412
33817SOL    HW1 8056  11.240  10.365   9.582 -0.6406  0.4728 -1.3299
33817SOL    HW2 8057  11.109  10.431   9.622 -0.1311  0.2877  0.7869
33818SOL     OW 8058   8.224  12.466   9.608 -0.2565 -0.0762  0.1959
33818SOL    HW1 8059   8.170  12.485   9.531 -0.2476  0.0822  0.2284
33818SOL    HW2 8060   8.245  12.373   9.600 -1.7466 -0.5214  0.9439
33819SOL     OW 8061   8.605   9.734  11.683  0.0766  0.2459  0.1671
33819SOL    HW1 8062   8.585   9.827  11.700 -2.0237 -0.2352  0.5284
33819SOL    HW2 8063   8.520   9.692  11.676  0.9810 -1.8347  0.9125
33820SOL     OW 8064   4.143   8.147  11.399 -0.2421  0.0629 -0.6545
33820SOL    HW1 8065   4.048   8.157  11.407 -0.2318 -1.0804  2.0404
33820SOL    HW2 8066   4.156   8.055  11.373  0.1405  0.2463 -1.1333
33821SOL     OW 8067   5.518   4.726   8.258 -0.4421  0.6198 -0.0637
33821SOL    HW1 8068   5.511   4.657   8.325 -1.1925 -0.8006 -1.5317
33821SOL    HW2 8069   5.609   4.757   8.266  0.3505 -1.4617 -0.1768
33822SOL     OW 8070   5.088   5.227  10.595 -0.3580  0.3800  0.3926
33822SOL    HW1 8071   5.096   5.158  10.661 -0.6688 -1.3281 -1.3098
33822SOL    HW2 8072   5.157   5.289  10.619  0.7433 -1.1092  1.2627
33823SOL     OW 8073   9.340  12.187   1.566 -0.2089  0.4830  0.4245
33823SOL    HW1 8074   9.374  12.138   1.640 -0.6406 -1.4311 -0.5629
33823SOL    HW2 8075   9.417  12.219   1.520  0.1098  0.2171  0.7683
33824SOL     OW 8076   4.562   5.093  12.454 -0.8296  0.1400 -0.1213
33824SOL    HW1 8077   4.609   5.010  12.444 -2.6513 -0.7360 -2.2630
33824SOL    HW2 8078   4.573   5.116  12.546  1.0499 -1.6507  0.1730
33825SOL     OW 8079   2.770   6.058   7.221 -0.0137 -0.1200 -0.0593
33825SOL    HW1 8080   2.756   6.073   7.315  2.8052  2.2538  0.0956
33825SOL    HW2 8081   2.747   5.965   7.209  1.7525 -1.2123  3.4879
33826SOL     OW 8082   2.592   6.583   7.034  0.1869 -0.5973  0.0645
33826SOL    HW1 8083   2.571   6.496   7.000 -1.2734 -0.5206  0.7049
33826SOL    HW2 8084   2.636   6.627   6.961 -0.7927 -1.2233 -0.9318
33827SOL     OW 8085  10.865   6.143   6.989 -0.5541 -0.5418 -0.0438
33827SOL    HW1 8086  10.808   6.126   7.064 -0.8462 -1.9325 -0.5535
33827SOL    HW2 8087  10.907   6.227   7.009 -0.7977 -0.7732  1.5501
33828SOL     OW 8088   9.666  11.909   7.222  0.7107 -0.1392  0.1185
33828SOL    HW1 8089   9.675  11.862   7.305  0.8201  0.3602  0.3924
33828SOL    HW2 8090   9.735  11.975   7.225  0.4721  0.1248 -0.2077
33829SOL     OW 8091   7.008   8.304  11.961 -0.1857  0.4198 -0.2984
33829SOL    HW1 8092   6.939   8.371  11.963 -0.2328  0.3939 -0.8041
33829SOL    HW2 8093   7.086   8.352  11.932 -0.3594  0.1472 -1.2635
33830SOL     OW 8094   8.335   8.596   6.714  0.1475 -0.1752 -0.4410
33830SOL    HW1 8095   8.425   8.566   6.701  0.2516  0.2614 -0.7771
33830SOL    HW2 8096   8.323   8.598   6.809  0.6593  0.2384 -0.3812
33831SOL     OW 8097   2.783   4.508   1.565  0.3565  0.1365  0.7419
33831SOL    HW1 8098   2.694   4.536   1.541  0.7112  2.4447  1.7647
33831SOL    HW2 8099   2.825   4.487   1.482 -0.7140  0.4320  0.0961
33832SOL     OW 8100   0.880   5.148  10.800  0.3740 -0.2400  0.0729
33832SOL    HW1 8101   0.804   5.173  10.748  0.3142 -0.6168 -0.0230
33832SOL    HW2 8102   0.854   5.162  10.891  0.7240  1.1042 -0.0232
33833SOL     OW 8103   2.182   7.119  10.217 -0.3174  0.5659  0.1355
33833SOL    HW1 8104   2.111   7.156  10.165 -1.1232 -1.5909 -0.4295
33833SOL    HW2 8105   2.221   7.052  10.160  2.2908  1.7615  0.3859
33834SOL     OW 8106   0.061   4.056  11.797  0.3347 -0.2484  0.1685
33834SOL    HW1 8107   0.115   3.982  11.769  1.1036 -0.5774  2.3059
33834SOL    HW2 8108   0.120   4.131  11.793  0.5786 -0.3673  1.1760
33835SOL     OW 8109   3.728   6.169  10.842  0.3664  0.5332 -0.0943
33835SOL    HW1 8110   3.764   6.232  10.905  3.4765 -0.6301 -0.5213
33835SOL    HW2 8111   3.639   6.152  10.873  0.6311  2.5276  2.0026
33836SOL     OW 8112   3.331   3.229   9.456  0.1606  0.1924 -0.5932
33836SOL    HW1 8113   3.261   3.191   9.404  0.1044 -0.2592 -0.1984
33836SOL    HW2 8114   3.402   3.165   9.451 -0.2495 -0.4161  0.8014
33837SOL     OW 8115   9.484   1.216   2.046  0.1717 -0.4233 -0.5137
33837SOL    HW1 8116   9.529   1.255   2.120 -1.0656  0.6563 -0.2902
33837SOL    HW2 8117   9.469   1.289   1.985  0.5246 -1.1483 -1.5033
33838SOL     OW 8118   5.862  10.335   9.300  0.4795  0.0805  0.2828
33838SOL    HW1 8119   5.767  10.326   9.310  0.4251  0.3434  0.0212
33838SOL    HW2 8120   5.875  10.346   9.206  0.8822 -1.2620  0.1607
33839SOL     OW 8121   6.284   7.761   9.120  0.0891  0.3207  0.1984
33839SOL    HW1 8122   6.223   7.804   9.180  0.4690  1.0670  0.0520
33839SOL    HW2 8123   6.244   7.769   9.034  0.9348  1.8793 -0.0853
33840SOL     OW 8124   7.716   6.567   1.788  0.1125 -0.2178  0.4402
33840SOL    HW1 8125   7.776   6.494   1.771  0.0460 -0.3418  0.7287
33840SOL    HW2 8126   7.671   6.582   1.705  0.3208 -0.3280  0.3070
33841SOL     OW 8127   9.794   1.201   9.017  0.4419 -0.5037 -0.2990
33841SOL    HW1 8128   9.826   1.112   9.004 -0.8361 -0.8791 -1.0617
33841SOL    HW2 8129   9.851   1.237   9.085  0.5576 -2.1291  0.5235
33842SOL     OW 8130   3.840  10.348   5.800 -0.4518 -1.1539  0.6885
33842SOL    HW1 8131   3.758  10.300   5.802 -0.4235 -1.2607 -0.4597
33842SOL    HW2 8132   3.869  10.344   5.709  1.1433 -1.6597  1.1883
33843SOL     OW 8133   1.555   5.681   9.741 -0.1723  0.1794  0.0871
33843SOL    HW1 8134   1.537   5.587   9.741 -2.6181  0.5387 -1.7643
33843SOL    HW2 8135   1.529   5.711   9.828 -0.0259 -0.7331  0.4551
33844SOL     OW 8136   5.038  10.795   9.696  0.1045 -0.2977  0.0829
33844SOL    HW1 8137   5.095  10.780   9.772 -0.5493  0.2747  0.7024
33844SOL    HW2 8138   4.971  10.726   9.702  0.3422 -0.5608 -0.2632
33845SOL     OW 8139  10.217   8.706  12.455  0.6440  0.3245  0.4553
33845SOL    HW1 8140  10.294   8.648  12.458  0.4317  0.0099  3.9636
33845SOL    HW2 8141  10.251   8.788  12.420  1.6354 -0.9306 -1.7575
33846SOL     OW 8142   3.176   6.412   3.698 -0.6602 -0.2327  0.8111
33846SOL    HW1 8143   3.144   6.390   3.785 -0.7126  0.3248  0.9347
33846SOL    HW2 8144   3.097   6.413   3.643 -0.5700 -1.0373  0.6581
33847SOL     OW 8145   8.211   3.309   9.018  0.5251 -1.3682  0.1139
33847SOL    HW1 8146   8.285   3.248   9.023  1.6791  0.0849  2.0775
33847SOL    HW2 8147   8.251   3.394   8.997 -0.7946 -0.8463 -0.4044
33848SOL     OW 8148   6.587   1.181   3.420  0.2337  0.8261 -0.0938
33848SOL    HW1 8149   6.538   1.192   3.338 -0.7101 -1.3020  0.1183
33848SOL    HW2 8150   6.537   1.116   3.469  1.6924  0.8094  1.4534
33849SOL     OW 8151   3.840   9.063   9.056  0.1222  0.1396  0.4346
33849SOL    HW1 8152   3.891   8.997   9.103  0.5161  0.1862  0.0737
33849SOL    HW2 8153   3.897   9.140   9.052 -0.0518  0.2594  0.2033
33850SOL     OW 8154  10.776   7.949   3.173  0.4077 -0.0995  0.4443
33850SOL    HW1 8155  10.770   7.973   3.265 -1.8241 -1.6836  0.7740
33850SOL    HW2 8156  10.720   8.013   3.128 -2.7603 -2.2959  0.9212
33851SOL     OW 8157  11.525   9.385  11.722 -0.1452 -0.1003 -0.0857
33851SOL    HW1 8158  11.496   9.297  11.744 -0.6579 -0.2617 -1.3398
33851SOL    HW2 8159  11.600   9.372  11.664  0.2656  0.3028  0.3410
33852SOL     OW 8160   6.707   5.138  12.667 -0.6888  0.1843  0.1342
33852SOL    HW1 8161   6.639   5.073  12.652  0.7787 -1.0681 -1.5757
33852SOL    HW2 8162   6.774   5.091  12.718 -0.4619  0.9602  0.5656
33853SOL     OW 8163   9.941  10.701   6.135  0.2343 -0.2320  0.0663
33853SOL    HW1 8164   9.999  10.634   6.171  0.7503 -0.2665 -0.8194
33853SOL    HW2 8165   9.854  10.677   6.167  0.4172 -1.3060 -0.2110
33854SOL     OW 8166  12.469   1.381  10.913  0.1147  0.5830 -0.6199
33854SOL    HW1 8167  12.486   1.370  11.007 -1.5050 -2.0857 -0.5251
33854SOL    HW2 8168  12.554   1.406  10.876  1.9937 -2.7326  1.0031
33855SOL     OW 8169   2.740   4.639  11.233 -0.0508  0.2830 -0.5509
33855SOL    HW1 8170   2.804   4.659  11.165  0.1056  0.8306 -0.2406
33855SOL    HW2 8171   2.769   4.555  11.270 -0.7308 -0.5758 -1.8713
33856SOL     OW 8172   8.745   2.246   7.835 -0.2571 -0.2134  0.0802
33856SOL    HW1 8173   8.703   2.332   7.838 -0.2261 -0.2155  0.7912
33856SOL    HW2 8174   8.778   2.238   7.746  0.4506  0.8554  0.2248
33857SOL     OW 8175   8.341  11.975   6.270 -0.1523 -0.4458 -0.3875
33857SOL    HW1 8176   8.267  11.980   6.210 -0.7849  1.5734  0.4798
33857SOL    HW2 8177   8.303  11.950   6.354  0.2221  0.0955 -0.0497
33858SOL     OW 8178   6.288   5.419  11.050 -0.1739 -0.4348  0.7198
33858SOL    HW1 8179   6.226   5.390  11.117 -0.5032 -0.1128  0.5601
33858SOL    HW2 8180   6.342   5.484  11.095 -0.1958 -0.4410  0.7552
33859SOL     OW 8181   9.454  10.789   4.237 -0.2637  0.7233 -0.1575
33859SOL    HW1 8182   9.411  10.704   4.228  0.9031  0.0536  0.3159
33859SOL    HW2 8183   9.470  10.797   4.331  1.2937  0.5952 -0.3843
33860SOL     OW 8184  10.854   1.855   4.469  0.0938  0.2361  0.5165
33860SOL    HW1 8185  10.786   1.834   4.405  0.7441  2.3321 -0.9302
33860SOL    HW2 8186  10.815   1.831   4.553 -1.5344 -0.7530 -0.4732
33861SOL     OW 8187   1.462   9.916   7.180 -0.2513  0.4133  0.2740
33861SOL    HW1 8188   1.491   9.920   7.089 -0.5602 -2.4761 -0.0434
33861SOL    HW2 8189   1.522   9.973   7.227  0.3637  1.4019 -1.6301
33862SOL     OW 8190  10.448   0.683   8.605 -0.1117 -0.1604  0.7260
33862SOL    HW1 8191  10.524   0.708   8.552  0.4268 -2.1950  0.4512
33862SOL    HW2 8192  10.427   0.595   8.576 -3.2359  0.6925  0.1183
33863SOL     OW 8193   9.162  11.166   5.234  0.0245 -0.4456  0.0600
33863SOL    HW1 8194   9.251  11.133   5.223  0.5481  1.2980 -1.3400
33863SOL    HW2 8195   9.164  11.212   5.318  0.6275  0.0643 -0.2233
33864SOL     OW 8196   4.381  11.016   8.114 -0.0013  0.1272 -0.1244
33864SOL    HW1 8197   4.335  11.098   8.130 -1.5813 -0.6987 -0.2241
33864SOL    HW2 8198   4.404  10.983   8.201 -1.7712 -0.6059  0.1150
33865SOL     OW 8199   7.923   0.527   4.632  0.0034 -0.0891  0.1214
33865SOL    HW1 8200   7.882   0.594   4.577  1.6909  0.9079  0.0094
33865SOL    HW2 8201   7.883   0.539   4.718  1.0613  1.8474  0.3885
33866SOL     OW 8202   1.553   2.544   0.482  0.2642  1.2062  0.2657
33866SOL    HW1 8203   1.586   2.458   0.507 -0.8069  0.7859  0.2794
33866SOL    HW2 8204   1.627   2.603   0.497  0.6737  0.4662  1.3210
33867SOL     OW 8205   9.198  10.161  11.327  0.8415 -0.5986 -0.3163
33867SOL    HW1 8206   9.147  10.174  11.247 -0.6795  1.6941  0.9151
33867SOL    HW2 8207   9.252  10.240  11.334  0.4292 -0.4301  1.2629
33868SOL     OW 8208   3.335  11.480   0.179 -0.2451 -0.0542 -0.6407
33868SOL    HW1 8209   3.347  11.479   0.273 -0.7821 -1.1164 -0.5698
33868SOL    HW2 8210   3.411  11.433   0.144 -0.6993 -0.8041 -0.6404
33869SOL     OW 8211  12.729   2.171   0.336 -0.2380  0.2925 -0.5488
33869SOL    HW1 8212  12.645   2.191   0.377  1.1201 -1.6239  3.6855
33869SOL    HW2 8213  12.784   2.247   0.355  0.3473 -0.5322  1.2236
33870SOL     OW 8214   4.712   7.137   3.426 -0.3590 -0.0204 -0.2161
33870SOL    HW1 8215   4.756   7.083   3.360  1.3462  0.6291  0.3391
33870SOL    HW2 8216   4.774   7.207   3.445 -1.6286  0.9100  0.6684
33871SOL     OW 8217   4.841  10.784  11.437 -0.2277  0.3929  0.5975
33871SOL    HW1 8218   4.930  10.803  11.406  0.5093 -2.3618  0.8104
33871SOL    HW2 8219   4.794  10.756  11.358 -0.3468  0.0409  0.7906
33872SOL     OW 8220   8.995   7.979   5.479 -0.0170  0.0681  0.2406
33872SOL    HW1 8221   9.016   8.043   5.547  1.2846  0.2866 -0.3311
33872SOL    HW2 8222   8.965   8.033   5.405  2.6004  0.2367 -0.8136
33873SOL     OW 8223   8.164   1.597   4.387 -0.0380 -0.8227  0.0481
33873SOL    HW1 8224   8.074   1.567   4.396 -0.0151 -1.1007 -0.5734
33873SOL    HW2 8225   8.165   1.683   4.428 -1.0165 -0.0382 -1.4772
33874SOL     OW 8226   1.665  12.725   7.493 -0.3777 -0.2597  0.1816
33874SOL    HW1 8227   1.666  12.630   7.483 -0.0097 -0.0680 -2.1987
33874SOL    HW2 8228   1.572  12.748   7.497 -0.4547 -0.7927  2.0963
33875SOL     OW 8229   1.124   9.086   1.949 -0.3214 -0.3548  0.6926
33875SOL    HW1 8230   1.039   9.051   1.977 -0.9453 -0.4962 -1.2571
33875SOL    HW2 8231   1.184   9.013   1.957 -0.6182 -0.5685  1.0009
33876SOL     OW 8232   4.013  11.848   9.990  0.6180  0.8191  0.2067
33876SOL    HW1 8233   4.044  11.883  10.074 -1.7993 -0.8423  1.9387
33876SOL    HW2 8234   3.965  11.920   9.951  2.3181  1.8248 -0.1593
33877SOL     OW 8235   6.256   4.368   2.446  0.0996 -0.0904  0.5925
33877SOL    HW1 8236   6.267   4.426   2.371  1.2941  0.2221  0.9853
33877SOL    HW2 8237   6.339   4.321   2.452  0.7379  1.1781  2.7784
33878SOL     OW 8238   2.662   6.139   5.656  0.5954  0.5093 -0.2427
33878SOL    HW1 8239   2.644   6.046   5.663  0.7906  0.4584 -0.4131
33878SOL    HW2 8240   2.706   6.162   5.738  0.7987  0.3954 -0.3224
33879SOL     OW 8241   0.938  10.808   5.276  0.3695  0.0759 -0.2771
33879SOL    HW1 8242   0.900  10.821   5.189 -0.7981  1.6020  0.4095
33879SOL    HW2 8243   1.006  10.876   5.282 -2.2832  2.8064  1.4253
33880SOL     OW 8244   9.671   9.607  12.677  0.0357 -0.5149 -0.0156
33880SOL    HW1 8245   9.664   9.543  12.606  2.3352 -0.4343 -0.3869
33880SOL    HW2 8246   9.762   9.635  12.675 -0.4725  1.4159  1.3471
33881SOL     OW 8247   2.803  10.584   0.005  0.4036  0.2550 -0.2304
33881SOL    HW1 8248   2.821  10.623  -0.081 -1.8306  0.1027 -0.8123
33881SOL    HW2 8249   2.824  10.654   0.067  0.5531  0.8959 -0.9835
33882SOL     OW 8250   0.964  12.011   1.479  0.3211 -0.9042 -0.0133
33882SOL    HW1 8251   0.891  11.950   1.466  0.4164 -0.9082 -0.5396
33882SOL    HW2 8252   0.982  12.046   1.392 -0.2018  0.4199  0.3843
33883SOL     OW 8253   1.297   2.173   3.666 -0.0654 -0.3831 -0.1840
33883SOL    HW1 8254   1.347   2.248   3.700  0.6421  0.9567 -3.7302
33883SOL    HW2 8255   1.221   2.213   3.623  0.0847 -1.7109 -1.7556
33884SOL     OW 8256   0.216   6.771   9.045 -0.5051  0.4100 -0.3968
33884SOL    HW1 8257   0.201   6.839   8.980  1.8859  0.6359 -0.8244
33884SOL    HW2 8258   0.238   6.819   9.125 -2.6857  0.1241  0.4320
33885SOL     OW 8259   0.938   3.437  11.111 -0.0425 -0.1928 -0.0910
33885SOL    HW1 8260   0.845   3.436  11.131 -0.0780 -0.2620 -0.2600
33885SOL    HW2 8261   0.954   3.524  11.075 -0.5509 -0.9796 -2.4436
33886SOL     OW 8262   9.802  10.551   1.792  0.1127 -0.0018  0.4253
33886SOL    HW1 8263   9.830  10.531   1.702 -0.6521  0.6650  0.0192
33886SOL    HW2 8264   9.759  10.636   1.784 -0.5071 -0.2254  1.3182
33887SOL     OW 8265   6.376   5.091   5.263 -0.1116  0.0779  0.3259
33887SOL    HW1 8266   6.450   5.088   5.202 -0.3640  0.0799  0.0163
33887SOL    HW2 8267   6.316   5.155   5.225 -0.1135  0.3323  0.7583
33888SOL     OW 8268   8.304   8.161   7.917 -0.5364  0.3942  0.0423
33888SOL    HW1 8269   8.305   8.102   7.993  1.6626 -1.1946 -1.1014
33888SOL    HW2 8270   8.325   8.247   7.953 -0.7468 -0.0838  1.3702
33889SOL     OW 8271   7.065   9.143   7.761  0.4009 -0.1555  0.6189
33889SOL    HW1 8272   7.134   9.205   7.785 -0.7047  2.3433 -2.0349
33889SOL    HW2 8273   6.991   9.166   7.817  0.3893  0.0736  0.5106
33890SOL     OW 8274  12.284   9.018   4.214 -0.8210  0.3332 -0.6108
33890SOL    HW1 8275  12.324   9.000   4.299  0.3346 -2.0205 -1.5742
33890SOL    HW2 8276  12.196   9.049   4.236 -0.1570  0.9400  1.4485
33891SOL     OW 8277  10.101   6.474   4.855  0.0806 -0.3312 -0.1946
33891SOL    HW1 8278  10.040   6.457   4.784  0.1318 -1.8928  0.1047
33891SOL    HW2 8279  10.130   6.564   4.840 -1.2767 -0.0119 -1.0898
33892SOL     OW 8280   1.774   0.817   4.637  0.4461 -0.3525  0.1244
33892SOL    HW1 8281   1.780   0.771   4.720 -0.1098  0.4684  0.6341
33892SOL    HW2 8282   1.858   0.799   4.593  0.9125 -0.4615  1.0355
33893SOL     OW 8283   9.076  11.133   6.853  0.2918 -0.1540 -0.3683
33893SOL    HW1 8284   9.003  11.167   6.905 -0.7733 -0.5707 -1.5259
33893SOL    HW2 8285   9.053  11.041   6.837  0.1176  0.1748 -2.2916
33894SOL     OW 8286   8.856   3.985   1.439 -0.1405  0.3647 -0.3244
33894SOL    HW1 8287   8.899   4.071   1.430 -0.1033  0.1557 -2.8014
33894SOL    HW2 8288   8.777   4.004   1.491  0.2349  1.7440 -0.1950
33895SOL     OW 8289   1.231   5.248  10.973  0.6164 -0.0108 -0.6317
33895SOL    HW1 8290   1.182   5.234  10.892 -1.3740  2.8551 -0.1058
33895SOL    HW2 8291   1.166   5.283  11.034  2.7541  1.3526  1.0201
33896SOL     OW 8292   4.363   9.760   2.487  0.4494 -0.4340 -0.2462
33896SOL    HW1 8293   4.434   9.698   2.499  1.1266  0.3977  0.1150
33896SOL    HW2 8294   4.347   9.760   2.392 -1.5655 -3.3096 -0.0522
33897SOL     OW 8295   7.985   8.018  12.683 -0.0633  0.2189 -0.4378
33897SOL    HW1 8296   7.944   7.975  12.758  0.3400  0.9709  0.2342
33897SOL    HW2 8297   7.927   7.998  12.610 -1.3489  0.7883  0.3822
33898SOL     OW 8298   8.260  10.711   0.852 -0.1581 -0.1507 -0.0151
33898SOL    HW1 8299   8.355  10.714   0.846 -0.0244 -0.5883  1.3901
33898SOL    HW2 8300   8.230  10.716   0.762  1.1358  1.5157 -0.4034
33899SOL     OW 8301   4.084  11.499   0.881  0.5382 -0.2937  0.0839
33899SOL    HW1 8302   4.011  11.454   0.839  0.1825  0.2747  0.0761
33899SOL    HW2 8303   4.059  11.504   0.974  0.7936 -0.5374  0.1660
33900SOL     OW 8304  12.398   6.466  10.669 -0.1274  0.0217  0.1493
33900SOL    HW1 8305  12.487   6.430  10.675 -0.4995 -0.8200  0.8801
33900SOL    HW2 8306  12.358   6.444  10.753 -0.7405  1.2144  0.1955
33901SOL     OW 8307   2.311   6.990   5.590 -0.4318 -0.4135 -0.4468
33901SOL    HW1 8308   2.372   6.932   5.636  0.7257 -1.7510 -3.4053
33901SOL    HW2 8309   2.366   7.042   5.532 -1.9307 -1.1335 -2.6785
33902SOL     OW 8310   0.695   6.039  10.301  0.3122  0.1553  0.1403
33902SOL    HW1 8311   0.616   6.015  10.349 -0.1031  0.0791 -0.5658
33902SOL    HW2 8312   0.710   6.131  10.322 -1.4074  0.9049 -1.6653
33903SOL     OW 8313   4.815   6.285  10.354 -0.1995  0.1537  0.1468
33903SOL    HW1 8314   4.839   6.377  10.345  0.3625  0.2485  2.1825
33903SOL    HW2 8315   4.720   6.285  10.364 -0.4501  0.2998 -1.8045
33904SOL     OW 8316   4.718  12.134  10.427 -0.0971 -0.3001  0.2607
33904SOL    HW1 8317   4.812  12.149  10.436 -0.2536 -0.1700  2.0102
33904SOL    HW2 8318   4.683  12.217  10.396  0.3170 -0.2586 -0.1108
33905SOL     OW 8319   3.931   2.287   2.704 -0.4587  0.0671  0.1676
33905SOL    HW1 8320   3.864   2.329   2.758 -0.3656 -0.9137  1.0631
33905SOL    HW2 8321   3.909   2.194   2.706  0.0604 -0.0872 -0.7675
33906SOL     OW 8322   9.451   7.280  12.005 -0.2408  0.0760 -0.0544
33906SOL    HW1 8323   9.527   7.302  11.951  0.8144  0.4630  1.5041
33906SOL    HW2 8324   9.453   7.185  12.013 -1.1640 -0.1105 -1.7091
33907SOL     OW 8325   6.304   4.695   4.104  0.6029 -0.3363  0.4054
33907SOL    HW1 8326   6.391   4.697   4.066  0.1055 -1.1749 -0.8310
33907SOL    HW2 8327   6.245   4.690   4.029 -0.3855 -2.7186  1.2506
33908SOL     OW 8328   9.799   0.964   8.793 -0.2290 -1.0228 -0.1081
33908SOL    HW1 8329   9.748   1.031   8.747 -0.7062 -1.2832  0.0335
33908SOL    HW2 8330   9.888   0.998   8.795 -0.7261  0.2828  1.2377
33909SOL     OW 8331  11.433   9.920   0.706 -0.0035 -0.2993  0.0815
33909SOL    HW1 8332  11.523   9.945   0.684 -0.1426 -0.9744 -1.4114
33909SOL    HW2 8333  11.380   9.960   0.637 -0.7883 -0.4005  0.6121
33910SOL     OW 8334   3.106   0.161   2.761 -0.4675  0.3598  0.1128
33910SOL    HW1 8335   3.030   0.206   2.725  0.0413  0.2718 -1.1284
33910SOL    HW2 8336   3.138   0.106   2.689  1.9748  1.9545 -0.1511
33911SOL     OW 8337  10.961   6.361   1.368 -0.0571  0.6608 -1.1496
33911SOL    HW1 8338  11.026   6.304   1.328 -0.4281  0.2239 -1.1500
33911SOL    HW2 8339  10.893   6.371   1.301 -1.4134 -1.3047 -0.1587
33912SOL     OW 8340   7.203  10.200   9.357 -0.5570 -0.3890  0.2886
33912SOL    HW1 8341   7.180  10.257   9.429 -1.1847 -1.2903  0.8237
33912SOL    HW2 8342   7.256  10.254   9.299  0.6864  0.1055  1.8401
33913SOL     OW 8343   9.711  10.424   7.198 -0.1655  0.3239 -0.2447
33913SOL    HW1 8344   9.779  10.408   7.133 -0.6112 -0.3373 -0.5517
33913SOL    HW2 8345   9.634  10.448   7.147 -0.5325 -0.2544  0.0319
33914SOL     OW 8346   9.574   1.312   4.625  0.3283 -0.3935  0.4592
33914SOL    HW1 8347   9.669   1.315   4.633  0.4376 -0.7911 -0.5148
33914SOL    HW2 8348   9.552   1.385   4.567  0.0643 -0.4679  0.4628
33915SOL     OW 8349   8.217   6.650   3.931  0.4425 -0.4367  0.1804
33915SOL    HW1 8350   8.240   6.633   3.839 -2.4571  0.4537 -0.8080
33915SOL    HW2 8351   8.156   6.723   3.927 -1.2347 -1.5918  2.6693
33916SOL     OW 8352   0.785   0.115   2.248 -0.0195  0.1359  0.2189
33916SOL    HW1 8353   0.754   0.205   2.234 -0.9802 -0.1164  0.6665
33916SOL    HW2 8354   0.848   0.123   2.320 -0.4149  0.3992  0.5413
33917SOL     OW 8355  10.688   9.311   5.863 -0.5424  0.5787  0.2473
33917SOL    HW1 8356  10.772   9.312   5.909 -0.0646  1.3037 -0.6048
33917SOL    HW2 8357  10.709   9.276   5.776 -1.3989 -0.6111  0.5014
33918SOL     OW 8358   8.077   9.106  10.899  0.4655 -0.7350 -0.2832
33918SOL    HW1 8359   8.109   9.143  10.982  1.2327 -2.1605  0.0981
33918SOL    HW2 8360   8.013   9.040  10.926 -1.1743  0.5183 -0.9592
33919SOL     OW 8361   0.106  10.727   1.226  0.1299 -0.2558  0.3588
33919SOL    HW1 8362   0.081  10.734   1.134 -0.1941 -0.0031  0.4639
33919SOL    HW2 8363   0.182  10.786   1.234  0.2644 -0.4098  0.2161
33920SOL     OW 8364  10.272   5.204   0.595 -0.5210 -0.6685 -0.1538
33920SOL    HW1 8365  10.320   5.121   0.590 -1.6591 -1.3787  0.3611
33920SOL    HW2 8366  10.335   5.265   0.633  0.1099 -1.4743  0.1429
33921SOL     OW 8367   5.469   3.786  10.809  0.3317  0.3304  0.2280
33921SOL    HW1 8368   5.464   3.844  10.885 -0.5231  1.6593 -0.7885
33921SOL    HW2 8369   5.431   3.838  10.737 -0.8050 -1.6263 -0.6640
33922SOL     OW 8370   8.840   3.903   6.155  0.1776 -0.5682  0.0080
33922SOL    HW1 8371   8.851   3.924   6.062 -3.8430 -1.5116 -0.8427
33922SOL    HW2 8372   8.782   3.971   6.188  1.6214 -0.1984  1.9397
33923SOL     OW 8373   9.853   3.954   0.320  0.4014 -0.1859 -0.9189
33923SOL    HW1 8374   9.795   3.982   0.249 -0.6112 -1.6543 -0.7186
33923SOL    HW2 8375   9.899   3.879   0.284  0.5721 -0.3614 -0.3419
33924SOL     OW 8376   8.927   6.345   9.677  0.2876  0.0002  0.4172
33924SOL    HW1 8377   8.912   6.383   9.764 -0.8592 -0.6068  0.5155
33924SOL    HW2 8378   8.890   6.408   9.616 -2.3947 -1.2246  0.6270
33925SOL     OW 8379   1.998   2.471   1.066 -0.1756 -0.3593  0.0984
33925SOL    HW1 8380   1.997   2.562   1.095 -0.0391 -0.1171 -0.6444
33925SOL    HW2 8381   1.906   2.449   1.052 -0.1953 -0.2764  0.0953
33926SOL     OW 8382   7.396   3.879   9.660  0.2978 -0.2002 -0.1325
33926SOL    HW1 8383   7.472   3.862   9.717 -0.1960  0.3020  0.6995
33926SOL    HW2 8384   7.358   3.959   9.695  0.5588  0.6929 -1.8123
33927SOL     OW 8385   4.649  10.560   2.455 -0.2611  0.2223 -0.4173
33927SOL    HW1 8386   4.687  10.648   2.457  0.6867 -0.1776 -0.2478
33927SOL    HW2 8387   4.567  10.569   2.503  1.4847  0.2939  2.8501
33928SOL     OW 8388   3.583   1.645   0.777 -0.3577  0.3163 -0.1731
33928SOL    HW1 8389   3.607   1.553   0.783  0.6475  0.5871  0.2596
33928SOL    HW2 8390   3.545   1.655   0.690 -3.0675 -1.0571  0.7304
33929SOL     OW 8391   8.526   1.795  10.227  0.0792 -0.6466  0.3706
33929SOL    HW1 8392   8.617   1.764  10.230  0.3711  0.0990 -0.2800
33929SOL    HW2 8393   8.534   1.891  10.227 -0.7318 -0.5708  0.9152
33930SOL     OW 8394  11.601   9.752   9.246 -0.6427  0.7729 -0.1311
33930SOL    HW1 8395  11.637   9.702   9.173 -3.5137 -0.7901 -0.6286
33930SOL    HW2 8396  11.541   9.814   9.206 -2.3175 -0.1486  0.8142
33931SOL     OW 8397  11.134   2.437   8.531 -0.2469  0.6767  0.2508
33931SOL    HW1 8398  11.207   2.484   8.491 -0.4960  1.2942  0.5097
33931SOL    HW2 8399  11.147   2.446   8.625 -0.2157  0.0885  0.3090
33932SOL     OW 8400   3.394   5.470   1.328 -0.1765  0.1131 -0.2177
33932SOL    HW1 8401   3.469   5.448   1.383 -0.3207 -1.1435 -0.5016
33932SOL    HW2 8402   3.395   5.404   1.259 -0.6520  1.0061 -1.0926
33933SOL     OW 8403   7.186   6.642   1.423  0.1631  0.3564 -0.5572
33933SOL    HW1 8404   7.149   6.724   1.453 -1.4197 -0.1658 -0.9904
33933SOL    HW2 8405   7.124   6.575   1.452  1.3811 -0.6986 -0.2695
33934SOL     OW 8406   7.749   4.719  12.251 -0.0729  0.4196 -0.0818
33934SOL    HW1 8407   7.738   4.814  12.247  0.0201  0.4463  0.2605
33934SOL    HW2 8408   7.667   4.688  12.290  0.2885  0.4518  0.7357
33935SOL     OW 8409   9.800   3.910   0.774 -0.2378 -0.6674  0.2629
33935SOL    HW1 8410   9.810   3.815   0.775 -0.0446 -0.6542 -0.0741
33935SOL    HW2 8411   9.890   3.943   0.763 -0.3221 -0.4539  0.2090
33936SOL     OW 8412  11.767   9.144   0.218  0.0582  0.4442 -0.1058
33936SOL    HW1 8413  11.683   9.179   0.246 -0.0438 -0.1625  0.3796
33936SOL    HW2 8414  11.829   9.215   0.233 -0.5789  1.3923 -1.7940
33937SOL     OW 8415   0.093   3.016   8.258  0.4384  0.3943  0.3826
33937SOL    HW1 8416   0.106   2.980   8.171  2.1246  1.6842  0.0576
33937SOL    HW2 8417   0.005   2.989   8.282  0.1720 -0.5129 -1.4549
33938SOL     OW 8418   5.163   1.746   7.247  0.1305  0.3589  0.6808
33938SOL    HW1 8419   5.204   1.663   7.270 -1.1301 -1.0634 -1.7560
33938SOL    HW2 8420   5.069   1.727   7.248 -0.1260  0.8605 -2.5676
33939SOL     OW 8421   4.164   3.045   3.458 -0.3004 -0.5077  0.1854
33939SOL    HW1 8422   4.190   3.023   3.548 -0.8149  0.0972  0.4933
33939SOL    HW2 8423   4.070   3.025   3.455 -0.1694 -1.0640 -0.3948
33940SOL     OW 8424  12.238   4.445  11.831 -0.3308  0.8777 -0.0685
33940SOL    HW1 8425  12.234   4.354  11.861 -0.8309  0.8952 -0.0771
33940SOL    HW2 8426  12.329   4.459  11.807  0.1061  0.8526  1.4473
33941SOL     OW 8427  12.746   5.210   8.319  0.1262  0.8146 -0.2970
33941SOL    HW1 8428  12.785   5.286   8.362  0.6254  0.2707  0.2278
33941SOL    HW2 8429  12.817   5.172   8.267  0.4880 -0.5032  1.0966
33942SOL     OW 8430   0.165  11.746   9.310 -0.0794  0.1456 -0.6873
33942SOL    HW1 8431   0.203  11.828   9.279  2.6460 -0.6266  0.3459
33942SOL    HW2 8432   0.198  11.736   9.399 -0.0578 -2.2052 -0.8879
33943SOL     OW 8433   6.152  10.825   9.788  0.1607 -0.0921  0.3315
33943SOL    HW1 8434   6.145  10.772   9.709 -3.1426 -0.6092  0.8219
33943SOL    HW2 8435   6.091  10.898   9.773  1.5921  1.3688  1.3120
33944SOL     OW 8436   6.531  10.994   0.840 -0.6428  0.5773  0.1589
33944SOL    HW1 8437   6.489  10.929   0.784  0.8871  0.1761 -0.6001
33944SOL    HW2 8438   6.565  10.943   0.914  1.5952  0.2132 -1.0130
33945SOL     OW 8439   4.061   3.852   1.049 -0.4082  0.6568 -0.3447
33945SOL    HW1 8440   4.008   3.819   0.976 -0.2153 -0.2849 -0.0787
33945SOL    HW2 8441   4.136   3.792   1.053 -1.1013 -0.1571  1.4641
33946SOL     OW 8442  12.639  12.249   1.205 -0.5881 -0.1108 -0.7200
33946SOL    HW1 8443  12.690  12.330   1.197  0.6320 -0.9211 -1.5356
33946SOL    HW2 8444  12.692  12.192   1.261  1.0456 -2.0956 -3.9434
33947SOL     OW 8445   2.783   1.503   5.353  0.2027  0.3555 -0.1274
33947SOL    HW1 8446   2.763   1.479   5.262  0.1361 -0.6502  0.1432
33947SOL    HW2 8447   2.739   1.588   5.365 -0.4871  0.1082 -0.7863
33948SOL     OW 8448   2.075   7.758   5.561  0.0479  0.0915 -0.8352
33948SOL    HW1 8449   2.100   7.668   5.579 -1.5083 -0.5603 -1.7796
33948SOL    HW2 8450   2.080   7.766   5.466  1.5869  1.4618 -0.6823
33949SOL     OW 8451   2.318  10.682  10.641 -0.2503  0.0103  0.9020
33949SOL    HW1 8452   2.407  10.655  10.666 -0.1850 -0.6038  0.0320
33949SOL    HW2 8453   2.293  10.622  10.572 -1.3206  0.2419  1.0712
33950SOL     OW 8454   3.812   4.366   2.320  0.4381  0.3222 -0.1452
33950SOL    HW1 8455   3.789   4.365   2.413  0.5407  1.3534 -0.0966
33950SOL    HW2 8456   3.767   4.443   2.284  0.8048  0.2242 -0.8381
33951SOL     OW 8457   6.657   3.902  11.486  0.1459 -0.0279 -0.0473
33951SOL    HW1 8458   6.643   3.865  11.573  1.2782  1.5164  0.8307
33951SOL    HW2 8459   6.577   3.952  11.468 -0.7376 -1.5646 -0.5875
33952SOL     OW 8460   2.725  10.871   0.504  0.6791  0.7816 -0.1054
33952SOL    HW1 8461   2.798  10.914   0.460  1.1528  1.6524  1.4513
33952SOL    HW2 8462   2.661  10.941   0.518 -1.1031 -0.1796 -2.5389
33953SOL     OW 8463   5.928   1.325   5.568 -0.3498 -0.2611 -0.5831
33953SOL    HW1 8464   5.921   1.383   5.643 -1.3291 -1.4185  0.2576
33953SOL    HW2 8465   5.931   1.384   5.492  0.3640  0.9139  0.3223
33954SOL     OW 8466   2.047   1.937   7.294 -0.1422  0.3099 -0.3699
33954SOL    HW1 8467   2.116   1.948   7.229 -0.4859 -0.0676 -0.8097
33954SOL    HW2 8468   1.987   1.873   7.255 -0.5213  0.3160  0.1823
33955SOL     OW 8469   6.344  12.292   2.909  0.5690  0.5196  0.3942
33955SOL    HW1 8470   6.377  12.352   2.841  1.8189 -2.4812 -1.8918
33955SOL    HW2 8471   6.254  12.273   2.882  0.7301  0.0929  0.1591
33956SOL     OW 8472   1.515   3.672   2.246  0.1374 -0.5073 -0.2506
33956SOL    HW1 8473   1.466   3.594   2.218  0.0654 -0.6263  0.2059
33956SOL    HW2 8474   1.606   3.650   2.229  0.0685 -0.4316 -0.7472
33957SOL     OW 8475   8.032   7.362  10.614 -0.7535 -0.1473  0.7534
33957SOL    HW1 8476   8.056   7.359  10.706 -0.4813 -1.5603  0.6528
33957SOL    HW2 8477   8.055   7.451  10.586  1.2330 -0.3722  1.5044
33958SOL     OW 8478  11.039   3.447   2.114 -0.5290 -0.1044  0.4666
33958SOL    HW1 8479  11.019   3.362   2.151 -0.0379 -0.4367 -0.0150
33958SOL    HW2 8480  11.005   3.444   2.024  0.7759 -0.3428 -0.0491
33959SOL     OW 8481   0.528   5.747  10.205 -0.1348 -0.7801  0.3418
33959SOL    HW1 8482   0.449   5.709  10.167 -1.2358  1.6374  0.0409
33959SOL    HW2 8483   0.520   5.731  10.299 -0.4948 -1.3862  0.2131
33960SOL     OW 8484   4.093   6.816   0.950  0.0377 -0.4389 -0.0067
33960SOL    HW1 8485   4.034   6.789   0.879  1.6626  0.2591 -1.7060
33960SOL    HW2 8486   4.075   6.909   0.962 -0.7628 -0.7165  1.0667
33961SOL     OW 8487   9.998   3.263  12.573  0.0720  0.3698 -0.1366
33961SOL    HW1 8488   9.914   3.231  12.606  0.3332 -1.5193 -1.1308
33961SOL    HW2 8489  10.058   3.190  12.587  1.6483  1.7861  0.8040
33962SOL     OW 8490   6.101   9.116   0.398  0.3813  0.7653  0.2617
33962SOL    HW1 8491   6.067   9.031   0.369 -0.8518  0.6789  1.7678
33962SOL    HW2 8492   6.100   9.171   0.320  0.7430 -0.4695 -0.6382
33963SOL     OW 8493   5.550   3.082   5.076  0.3395  0.0310 -0.3006
33963SOL    HW1 8494   5.466   3.051   5.044  0.8020 -0.3125 -1.2222
33963SOL    HW2 8495   5.565   3.033   5.158  0.3411 -1.0429 -0.9255
33964SOL     OW 8496   2.147   1.618   5.315  0.1790  0.5341  0.5212
33964SOL    HW1 8497   2.086   1.681   5.275  0.5745  0.3107 -0.4690
33964SOL    HW2 8498   2.135   1.538   5.264  0.0341 -0.0547  1.4613
33965SOL     OW 8499   0.305  10.118   7.995 -0.4352  0.4741 -0.1932
33965SOL    HW1 8500   0.298  10.174   7.918  2.7376  1.8960  0.4103
33965SOL    HW2 8501   0.383  10.064   7.979 -0.8155 -0.5711  1.2143
33966SOL     OW 8502  10.458   6.834   0.331 -0.1192  0.1411 -0.3613
33966SOL    HW1 8503  10.407   6.913   0.319  0.2119  0.5391  0.7043
33966SOL    HW2 8504  10.549   6.864   0.334 -0.0840 -0.0064  1.7938
33967SOL     OW 8505   9.148   7.661   9.437 -0.2182  0.1873 -0.0658
33967SOL    HW1 8506   9.061   7.684   9.469  0.5986  1.1389  1.6017
33967SOL    HW2 8507   9.176   7.589   9.494  0.0391 -0.2262 -0.7023
33968SOL     OW 8508   6.348   4.852  12.181 -0.6993  0.4063  0.5503
33968SOL    HW1 8509   6.285   4.875  12.249 -1.3230 -0.2984  0.2401
33968SOL    HW2 8510   6.315   4.897  12.103 -0.4122  0.6126  0.5502
33969SOL     OW 8511  12.697  11.830  10.410  0.2112  0.3689 -0.0472
33969SOL    HW1 8512  12.615  11.878  10.407  0.6931  1.4103  1.8476
33969SOL    HW2 8513  12.681  11.751  10.359 -0.8775  2.0901 -2.5576
33970SOL     OW 8514   4.694   0.829  10.250  0.8971 -0.2518  0.2874
33970SOL    HW1 8515   4.604   0.801  10.269  0.9137 -0.3536  0.2157
33970SOL    HW2 8516   4.736   0.832  10.336  1.1831 -1.4419  0.2145
33971SOL     OW 8517  12.483  11.450   4.618  0.0711 -0.2129 -0.8688
33971SOL    HW1 8518  12.487  11.361   4.652  0.7456 -0.6568 -2.0318
33971SOL    HW2 8519  12.574  11.480   4.620 -0.4340  1.6525  2.3866
33972SOL     OW 8520   8.789   7.666   4.235  0.4581  0.0976 -0.5218
33972SOL    HW1 8521   8.753   7.598   4.178 -1.0163  0.4471 -0.0498
33972SOL    HW2 8522   8.798   7.743   4.180  0.0937  0.1163 -0.5595
33973SOL     OW 8523  11.068   6.322   6.830 -0.5058 -0.2126 -0.4810
33973SOL    HW1 8524  11.031   6.390   6.887  0.1591  0.5744 -0.9729
33973SOL    HW2 8525  11.005   6.315   6.758 -1.6548 -1.6237  0.5932
33974SOL     OW 8526   5.546   6.256   1.501 -0.5044  0.3649  0.3428
33974SOL    HW1 8527   5.563   6.263   1.407 -0.8964 -0.0503  0.2384
33974SOL    HW2 8528   5.524   6.345   1.528  2.3426  1.1092  0.6036
33975SOL     OW 8529  12.129  12.156   3.063  0.7895  0.2142 -0.0642
33975SOL    HW1 8530  12.046  12.152   3.017  1.0967  1.6892 -0.8409
33975SOL    HW2 8531  12.183  12.089   3.022 -1.1211 -3.6681  3.0901
33976SOL     OW 8532   4.697   2.453   7.063  0.3541 -0.0768 -0.1143
33976SOL    HW1 8533   4.712   2.361   7.085 -2.3491 -1.0068 -1.7218
33976SOL    HW2 8534   4.649   2.489   7.138  1.6063  0.1433  0.6127
33977SOL     OW 8535  10.226   6.380   2.205 -0.1343  0.2493  0.2234
33977SOL    HW1 8536  10.282   6.303   2.210  0.4954  0.6510 -0.3998
33977SOL    HW2 8537  10.227   6.416   2.294  1.1907  0.6454  0.0730
33978SOL     OW 8538  11.227   9.598  12.220  0.6607 -0.0030  0.4419
33978SOL    HW1 8539  11.227   9.610  12.315  1.5173  0.6717  0.3756
33978SOL    HW2 8540  11.223   9.504  12.207  0.8115 -0.1136  1.1545
33979SOL     OW 8541  12.499   6.185   7.424  0.1997  0.0562 -0.1145
33979SOL    HW1 8542  12.525   6.277   7.416 -0.4705  0.1489 -1.6586
33979SOL    HW2 8543  12.404   6.188   7.435  0.2772 -0.4330  0.7631
33980SOL     OW 8544   6.071   5.681  10.923 -0.5936  0.6295  0.4725
33980SOL    HW1 8545   6.127   5.662  10.998  0.8662 -1.1195 -0.9520
33980SOL    HW2 8546   6.055   5.595  10.884 -2.7340  1.3171 -0.2575
33981SOL     OW 8547   5.619   9.158   2.815 -0.2743 -0.5405 -0.2319
33981SOL    HW1 8548   5.655   9.237   2.857 -2.0425  0.6014 -0.7635
33981SOL    HW2 8549   5.585   9.190   2.731 -2.6488 -1.5025  0.3102
33982SOL     OW 8550  11.952   2.944  11.703  0.1402 -0.3113 -0.1216
33982SOL    HW1 8551  12.028   2.999  11.684 -1.2553  1.4530 -0.7581
33982SOL    HW2 8552  11.934   2.958  11.796 -0.3446  0.4920 -0.3338
33983SOL     OW 8553   1.027   0.476  11.837  0.4073 -0.2119 -0.1266
33983SOL    HW1 8554   0.988   0.516  11.914  0.6108 -0.2830  0.0144
33983SOL    HW2 8555   1.046   0.386  11.863  1.3849  0.0339  0.0699
33984SOL     OW 8556  11.037   1.629   3.104  0.0666  0.4310 -0.3778
33984SOL    HW1 8557  10.986   1.654   3.181  1.6460  0.7235  0.6150
33984SOL    HW2 8558  11.074   1.711   3.071 -0.3677  0.2731 -1.3105
33985SOL     OW 8559   6.279  11.563  10.465 -0.2690 -0.1314 -0.6926
33985SOL    HW1 8560   6.231  11.503  10.408 -0.9554  0.1113 -0.3841
33985SOL    HW2 8561   6.369  11.561  10.432 -0.6467  0.0103 -1.8004
33986SOL     OW 8562   9.632   7.781   3.732 -0.1913 -0.3428  0.1278
33986SOL    HW1 8563   9.719   7.752   3.704 -1.2019 -2.8818 -0.6965
33986SOL    HW2 8564   9.596   7.825   3.654 -0.7054 -1.9391 -0.5744
33987SOL     OW 8565   0.544   8.312   0.027 -0.1625 -0.4492  0.4746
33987SOL    HW1 8566   0.570   8.235   0.077 -1.0737 -2.3048 -1.7640
33987SOL    HW2 8567   0.621   8.335  -0.024 -0.1734 -0.4128  0.4742
33988SOL     OW 8568   3.839   2.764  12.642 -0.4962 -0.1564 -0.0297
33988SOL    HW1 8569   3.850   2.670  12.656 -1.4100 -0.2945 -0.1610
33988SOL    HW2 8570   3.927   2.801  12.654  0.0761 -1.1471 -0.9840
33989SOL     OW 8571   0.988   3.438   3.692  1.0627  0.9536 -0.3972
33989SOL    HW1 8572   0.904   3.415   3.653  0.6984  0.2902  0.7338
33989SOL    HW2 8573   0.967   3.508   3.754  1.3148  0.6650  0.0148
33990SOL     OW 8574   4.228   0.225   9.234  0.0256 -0.3953  0.2224
33990SOL    HW1 8575   4.142   0.184   9.250  0.7282 -1.0911  2.5964
33990SOL    HW2 8576   4.220   0.312   9.272 -0.2891  0.3899 -1.5528
33991SOL     OW 8577   7.322   9.569  10.631 -0.0986 -0.2828 -0.0041
33991SOL    HW1 8578   7.236   9.583  10.592  0.1740 -1.1738 -0.9699
33991SOL    HW2 8579   7.313   9.600  10.721 -0.2449  3.6254 -1.1576
33992SOL     OW 8580   0.523   9.392   8.381 -0.6094 -0.2641 -0.0990
33992SOL    HW1 8581   0.433   9.366   8.401 -0.2790 -1.4359 -0.0725
33992SOL    HW2 8582   0.560   9.417   8.466 -0.0329 -2.6265  0.3984
33993SOL     OW 8583   2.617   2.385  12.201 -0.7926 -0.4314  0.3010
33993SOL    HW1 8584   2.667   2.431  12.133 -1.3195  0.5625  0.5601
33993SOL    HW2 8585   2.573   2.314  12.155  0.7722 -1.2716  0.0496
33994SOL     OW 8586  11.114   1.816   4.554 -0.0707  0.5467 -0.5607
33994SOL    HW1 8587  11.031   1.814   4.507 -0.9876 -0.7654  1.0140
33994SOL    HW2 8588  11.180   1.807   4.487 -1.3055 -0.8324 -1.6635
33995SOL     OW 8589   8.484   0.009   3.222 -0.0754 -0.0476 -0.5475
33995SOL    HW1 8590   8.535  -0.046   3.281  0.3730  1.0686  0.1590
33995SOL    HW2 8591   8.439   0.071   3.281  1.1437  1.7128 -1.3959
33996SOL     OW 8592   0.686   9.131   9.473 -0.2100  0.0922  0.0859
33996SOL    HW1 8593   0.657   9.222   9.474  0.5473  0.3332  0.0930
33996SOL    HW2 8594   0.772   9.134   9.433 -0.4249 -0.6970 -0.4508
33997SOL     OW 8595   2.492  12.683   8.153  0.0355 -0.0180 -0.4250
33997SOL    HW1 8596   2.441  12.654   8.078 -1.0563  1.4401 -0.2945
33997SOL    HW2 8597   2.478  12.616   8.220  0.1923 -0.8082 -1.1750
33998SOL     OW 8598   3.013   1.981   9.249  0.2153 -0.4896  0.1328
33998SOL    HW1 8599   2.918   1.976   9.253  0.0358  1.8589  0.3149
33998SOL    HW2 8600   3.039   2.016   9.334  0.9256  1.5206 -0.8229
33999SOL     OW 8601   9.221   3.289   0.059  0.5809  0.0027  0.1643
33999SOL    HW1 8602   9.215   3.222  -0.009  0.9711  0.2214 -0.0898
33999SOL    HW2 8603   9.143   3.276   0.112 -0.0852  0.2424 -0.7158
34000SOL     OW 8604   6.406  10.203   7.037 -0.8287 -0.1126 -0.1051
34000SOL    HW1 8605   6.452  10.150   6.972 -0.1413 -1.6561  1.5747
34000SOL    HW2 8606   6.373  10.140   7.101 -0.8334  1.3879  1.4430
34001SOL     OW 8607  10.920  12.458   2.413  0.3884  0.0945 -0.1781
34001SOL    HW1 8608  10.906  12.528   2.350 -1.4636 -1.1816 -1.2739
34001SOL    HW2 8609  10.890  12.495   2.497  1.0633  1.1631 -0.3971
34002SOL     OW 8610   0.451   1.613   9.794  0.0445 -0.2243  0.3715
34002SOL    HW1 8611   0.405   1.549   9.740 -0.9151 -0.0299  0.9316
34002SOL    HW2 8612   0.427   1.591   9.884  0.4485  0.3473  0.6275
34003SOL     OW 8613   8.308   8.886   2.483  0.6608 -0.2608 -0.3620
34003SOL    HW1 8614   8.369   8.959   2.475  0.8295 -0.1595  1.4194
34003SOL    HW2 8615   8.364   8.810   2.498  0.4620  0.1579  3.6131
34004SOL     OW 8616   5.008   1.702   8.464 -0.8654  0.0378 -0.3944
34004SOL    HW1 8617   5.000   1.739   8.552 -0.0156  1.4707 -0.8851
34004SOL    HW2 8618   4.918   1.701   8.431 -1.2783 -1.1240  0.7031
34005SOL     OW 8619   5.226   1.709   6.426 -0.1229  0.3871 -0.1919
34005SOL    HW1 8620   5.297   1.727   6.365 -0.7080  0.6934 -0.7948
34005SOL    HW2 8621   5.262   1.733   6.512  0.6762  0.0319 -0.4147
34006SOL     OW 8622   6.283   8.024   6.064  0.2189 -0.2739  0.2590
34006SOL    HW1 8623   6.361   8.079   6.054 -0.9354  1.5242  0.6829
34006SOL    HW2 8624   6.211   8.086   6.073 -1.0756 -1.8768  1.5447
34007SOL     OW 8625   1.458   4.176  10.304 -0.1672 -0.4180 -0.6757
34007SOL    HW1 8626   1.433   4.087  10.329 -0.6127 -0.7769 -2.2235
34007SOL    HW2 8627   1.503   4.165  10.220  3.0075  0.4935  0.7835
34008SOL     OW 8628   3.488   0.824   1.666  0.0321  0.4779 -0.5707
34008SOL    HW1 8629   3.466   0.870   1.747 -0.0576 -2.3262  1.1315
34008SOL    HW2 8630   3.404   0.805   1.625  0.0030  0.8201 -0.6662
34009SOL     OW 8631  11.071   0.708  11.187 -0.6465 -0.2235 -0.0003
34009SOL    HW1 8632  11.156   0.740  11.155 -1.2298  1.2533 -0.1499
34009SOL    HW2 8633  11.026   0.678  11.108 -1.1926  1.2804 -0.2880
34010SOL     OW 8634   2.591   5.759   6.646  0.0940 -0.3098  0.7035
34010SOL    HW1 8635   2.538   5.811   6.706 -1.6893  0.1501 -1.1523
34010SOL    HW2 8636   2.535   5.685   6.621 -0.0175  0.5249 -1.8051
34011SOL     OW 8637   1.978   4.650   2.897 -0.2825  0.5504  0.0494
34011SOL    HW1 8638   1.917   4.724   2.888 -2.2193 -0.8280  1.1355
34011SOL    HW2 8639   1.983   4.635   2.991  0.7160 -0.2249 -0.1165
34012SOL     OW 8640   4.631  12.746   8.322 -0.2923  0.2490  0.0084
34012SOL    HW1 8641   4.663  12.688   8.391  1.8295  1.1156 -0.1719
34012SOL    HW2 8642   4.692  12.819   8.322 -0.7122  0.6753 -2.2372
34013SOL     OW 8643   3.526  12.401   1.204 -0.3127 -0.6546  0.1536
34013SOL    HW1 8644   3.580  12.474   1.234 -3.5925  1.7121  0.8736
34013SOL    HW2 8645   3.515  12.416   1.110  1.5490 -2.1470 -0.3654
34014SOL     OW 8646   5.395  12.561   2.773  0.1128 -0.2513  0.5388
34014SOL    HW1 8647   5.463  12.494   2.775  1.0918  0.7147  1.4286
34014SOL    HW2 8648   5.430  12.629   2.715  0.1500  0.4722  1.3802
34015SOL     OW 8649   7.616   9.458   7.093 -0.0541 -0.3813 -0.1980
34015SOL    HW1 8650   7.600   9.459   7.188  0.2856  1.2713 -0.1403
34015SOL    HW2 8651   7.554   9.521   7.058 -0.9575 -1.7901 -1.2465
34016SOL     OW 8652   1.500  11.011   9.894  0.7852 -0.0792  0.0286
34016SOL    HW1 8653   1.476  11.083   9.951 -0.4812 -0.4825  0.0378
34016SOL    HW2 8654   1.587  11.033   9.863  0.8322  0.9410  0.8382
34017SOL     OW 8655  11.931  10.600   1.409 -0.1879  0.0624  0.5222
34017SOL    HW1 8656  11.932  10.552   1.492  0.0230 -0.0366  0.4624
34017SOL    HW2 8657  11.943  10.692   1.434  2.9042 -0.2173  0.4237
34018SOL     OW 8658   4.153   9.326   5.540  0.2892 -0.4232  0.1244
34018SOL    HW1 8659   4.117   9.370   5.617  0.3196 -0.4084  0.1300
34018SOL    HW2 8660   4.243   9.355   5.534  0.4299 -0.7977  0.3631
34019SOL     OW 8661   7.765   2.351  10.527 -0.1956 -0.1444  0.1531
34019SOL    HW1 8662   7.807   2.427  10.567  1.6936 -0.5188 -0.9822
34019SOL    HW2 8663   7.791   2.277  10.582 -2.6841  0.0426  1.7240
34020SOL     OW 8664   0.598   4.942   3.802 -0.0807  0.1432  0.0436
34020SOL    HW1 8665   0.550   4.860   3.807  0.1789 -0.0143 -0.0651
34020SOL    HW2 8666   0.572   4.981   3.719 -1.0223  0.6816  0.5702
34021SOL     OW 8667  11.938   4.119  10.898 -0.2474 -0.2497 -0.0730
34021SOL    HW1 8668  11.879   4.050  10.869 -1.4480 -0.1536  1.9153
34021SOL    HW2 8669  11.887   4.169  10.962  1.5323  0.7004  0.6901
34022SOL     OW 8670   2.447   8.859   7.240  0.2461  0.2081  0.1599
34022SOL    HW1 8671   2.463   8.802   7.164  0.9390 -2.0912  1.9133
34022SOL    HW2 8672   2.357   8.840   7.266  0.5605 -0.3030  0.9013
34023SOL     OW 8673   8.335   6.784   8.944 -0.1162 -0.3138  0.7909
34023SOL    HW1 8674   8.372   6.829   9.020  1.7607 -0.9880  0.3191
34023SOL    HW2 8675   8.357   6.840   8.870 -1.1292 -0.1289  0.6164
34024SOL     OW 8676   7.446   0.881   3.295  0.1633  0.3248  0.4819
34024SOL    HW1 8677   7.475   0.969   3.270 -1.3217  0.2945 -1.5524
34024SOL    HW2 8678   7.391   0.895   3.371 -0.6369  1.2709 -0.2411
34025SOL     OW 8679   4.862   4.993   1.501 -0.1985 -0.3306 -0.0304
34025SOL    HW1 8680   4.806   5.071   1.502 -0.5049 -0.5465  1.3172
34025SOL    HW2 8681   4.807   4.923   1.535  0.0079 -1.2171 -1.4476
34026SOL     OW 8682   4.661   1.011   7.411  0.0415 -0.4001 -0.0924
34026SOL    HW1 8683   4.672   0.943   7.478  2.7318 -1.1585 -1.1479
34026SOL    HW2 8684   4.664   1.093   7.459  2.1434 -0.9243  0.7662
34027SOL     OW 8685   7.439   2.719  12.117 -0.1542 -0.2503  0.5714
34027SOL    HW1 8686   7.528   2.733  12.149  0.4285 -0.0525 -1.0314
34027SOL    HW2 8687   7.409   2.640  12.162  1.3130 -1.0472  0.1835
34028SOL     OW 8688  11.308   3.083   9.424 -0.2250  0.0858  0.3514
34028SOL    HW1 8689  11.304   3.109   9.516 -2.1601 -1.8067  0.8929
34028SOL    HW2 8690  11.325   2.989   9.426 -1.3629 -0.2008 -1.1531
34029SOL     OW 8691   2.614   1.952   6.356  0.2582 -0.0710  0.1471
34029SOL    HW1 8692   2.649   2.036   6.385 -4.7045  2.2648  0.4415
34029SOL    HW2 8693   2.594   1.965   6.263  2.4876 -2.2609 -0.7281
34030SOL     OW 8694   5.256   2.454   0.984 -0.2163  0.2981 -0.1220
34030SOL    HW1 8695   5.312   2.388   1.025 -1.9791 -0.4053  1.2906
34030SOL    HW2 8696   5.256   2.527   1.047 -0.4339  0.5326 -0.3946
34031SOL     OW 8697   7.167   1.010  11.756  0.3404  0.8535 -0.5153
34031SOL    HW1 8698   7.258   1.033  11.737 -0.2732  2.4826 -1.7210
34031SOL    HW2 8699   7.119   1.039  11.679 -1.3199  0.8082  0.4683
34032SOL     OW 8700   4.772  11.961   9.476 -0.3008  0.2287  0.3659
34032SOL    HW1 8701   4.862  11.994   9.470 -0.9951  1.9567 -1.3385
34032SOL    HW2 8702   4.720  12.037   9.502 -1.5752 -0.1747 -0.9190
34033SOL     OW 8703  11.817   5.514   0.378  0.0561  0.1440 -0.5626
34033SOL    HW1 8704  11.882   5.496   0.445 -0.2134  2.4566  0.4335
34033SOL    HW2 8705  11.856   5.584   0.325 -1.5251  1.5863  0.0587
34034SOL     OW 8706  11.160   7.684   6.069  0.3112  0.3354  0.0310
34034SOL    HW1 8707  11.177   7.700   5.976  0.5791 -1.8520 -0.3504
34034SOL    HW2 8708  11.085   7.624   6.069  0.0690  0.6200  1.2578
34035SOL     OW 8709   2.911  10.156   5.054  0.2505  0.4518 -0.3483
34035SOL    HW1 8710   2.832  10.210   5.054 -0.4008 -0.4607  0.7098
34035SOL    HW2 8711   2.939  10.155   5.145  1.2509  0.4189 -0.6530
34036SOL     OW 8712  10.369   4.519   9.281  0.6292 -0.4687 -0.0932
34036SOL    HW1 8713  10.366   4.578   9.357  1.2197 -1.0288  0.3801
34036SOL    HW2 8714  10.378   4.577   9.206  0.7462  0.0693  0.3271
34037SOL     OW 8715   5.020   0.082   6.963  0.0965 -0.0388  0.4902
34037SOL    HW1 8716   4.962   0.052   7.032 -0.9333  1.8596  0.5231
34037SOL    HW2 8717   4.960   0.112   6.894  1.0931 -0.8988 -0.7868
34038SOL     OW 8718   9.551   8.336   4.497 -0.5029  0.4730 -0.1433
34038SOL    HW1 8719   9.545   8.246   4.466 -2.4797  0.2216  0.8266
34038SOL    HW2 8720   9.586   8.385   4.422 -1.0840 -0.8020 -1.2748
34039SOL     OW 8721   2.611   0.338   2.344  0.0809 -0.8174  0.6407
34039SOL    HW1 8722   2.516   0.334   2.357 -0.0922 -3.2104 -0.7725
34039SOL    HW2 8723   2.639   0.412   2.397 -2.6727  0.4716  0.4758
34040SOL     OW 8724   8.693  10.919   4.198  0.5275  0.4340  0.5898
34040SOL    HW1 8725   8.757  10.852   4.174 -2.3299 -2.2183 -0.3352
34040SOL    HW2 8726   8.657  10.949   4.114 -0.2047  1.0546  1.1113
34041SOL     OW 8727   4.558   6.105   6.408 -0.6431 -0.1186 -0.5226
34041SOL    HW1 8728   4.476   6.150   6.427  0.2995  1.9556 -1.0938
34041SOL    HW2 8729   4.625   6.173   6.413  0.9326 -1.5605 -0.9997
34042SOL     OW 8730   5.109  11.735   4.911 -0.5930  0.1501 -0.0776
34042SOL    HW1 8731   5.184  11.794   4.908  1.2800 -2.0797 -0.1988
34042SOL    HW2 8732   5.053  11.761   4.838  0.6702  1.1205 -0.7183
34043SOL     OW 8733   9.890  11.729   8.484  0.2875  0.3705 -0.5280
34043SOL    HW1 8734   9.959  11.750   8.547  0.0208 -0.8782  0.2015
34043SOL    HW2 8735   9.830  11.804   8.489  0.5245  0.5165  0.3539
34044SOL     OW 8736  12.425   8.560  12.538  0.2605  0.2638 -0.4194
34044SOL    HW1 8737  12.508   8.535  12.498  0.4820  0.1094  0.1212
34044SOL    HW2 8738  12.381   8.477  12.556  0.5563  0.2896  0.4621
34045SOL     OW 8739   3.324   1.421  12.443  0.8028  0.1962 -0.1000
34045SOL    HW1 8740   3.383   1.355  12.479  0.8723 -0.1986 -0.9334
34045SOL    HW2 8741   3.312   1.396  12.352  0.2493  0.9231 -0.2344
34046SOL     OW 8742   5.290   4.050  10.001  0.1439  0.0499 -0.0028
34046SOL    HW1 8743   5.272   4.143   9.984 -1.3429 -0.2280 -0.0933
34046SOL    HW2 8744   5.350   4.051  10.076  1.7552  1.1139 -1.2408
34047SOL     OW 8745  11.495   1.965   2.114 -0.6727 -0.7477 -0.2120
34047SOL    HW1 8746  11.517   2.040   2.170  0.7411 -0.2486 -1.3673
34047SOL    HW2 8747  11.529   1.889   2.160  0.4720 -0.3408 -0.3686
34048SOL     OW 8748   7.889   0.420   6.732  0.4934  0.4000 -0.7928
34048SOL    HW1 8749   7.868   0.363   6.658  0.0049  0.1639 -0.4795
34048SOL    HW2 8750   7.811   0.475   6.742  0.4334  0.2252 -0.2660
34049SOL     OW 8751   4.831   0.581  11.253 -0.2158 -0.5389 -0.6869
34049SOL    HW1 8752   4.924   0.569  11.236 -0.3523 -0.1156 -1.7820
34049SOL    HW2 8753   4.812   0.671  11.226 -1.2189 -1.0637 -1.8540
34050SOL     OW 8754   3.864   0.259   2.723  0.5540 -0.1851  0.0283
34050SOL    HW1 8755   3.832   0.345   2.751  1.3928 -0.4996  2.1533
34050SOL    HW2 8756   3.953   0.276   2.692  0.0911 -0.0489 -1.3019
34051SOL     OW 8757  12.114   4.499   1.386  0.4870 -0.4914 -0.8687
34051SOL    HW1 8758  12.092   4.512   1.478 -0.0031 -2.8744 -0.5811
34051SOL    HW2 8759  12.168   4.574   1.363  0.5945  0.1686  1.3545
34052SOL     OW 8760  11.555  10.248  11.267  0.2633 -0.1159 -0.0215
34052SOL    HW1 8761  11.549  10.179  11.200  0.9857  1.4707 -1.8367
34052SOL    HW2 8762  11.471  10.245  11.312 -1.2414  0.1648 -2.5677
34053SOL     OW 8763  10.237   0.707   8.827 -0.5412  1.0598  0.3653
34053SOL    HW1 8764  10.297   0.760   8.774 -0.7510 -0.1770 -1.1741
34053SOL    HW2 8765  10.284   0.624   8.841 -1.0749  0.8358  0.8960
34054SOL     OW 8766   7.061  11.663   4.340  0.2968  0.3942 -0.1819
34054SOL    HW1 8767   7.125  11.731   4.319 -0.5981  1.3461  0.1238
34054SOL    HW2 8768   7.112  11.581   4.337  1.3535  1.0471 -0.6900
34055SOL     OW 8769   0.216  12.540   8.562  0.0364 -0.1802 -0.0096
34055SOL    HW1 8770   0.183  12.520   8.475  1.7141 -0.8956 -0.5222
34055SOL    HW2 8771   0.196  12.633   8.575 -2.2637 -0.5927 -0.1723
34056SOL     OW 8772   2.547   8.428   6.845  0.2612  0.3016 -0.0693
34056SOL    HW1 8773   2.622   8.472   6.886 -0.2543  0.6349  0.5299
34056SOL    HW2 8774   2.471   8.464   6.890 -0.1823 -1.2558  0.4986
34057SOL     OW 8775   0.025   8.603   9.348  0.0108 -0.5867 -0.1116
34057SOL    HW1 8776  -0.000   8.660   9.275 -0.8837 -1.5070 -0.5534
34057SOL    HW2 8777   0.120   8.593   9.339 -0.1914 -1.4022 -1.7202
34058SOL     OW 8778   2.848  10.288   6.454  0.4200 -0.0960 -0.0314
34058SOL    HW1 8779   2.847  10.382   6.472  0.2778 -0.0633 -0.2104
34058SOL    HW2 8780   2.859  10.282   6.360 -0.7474 -0.2379 -0.1707
34059SOL     OW 8781  11.507   7.944   3.151  0.7845 -0.1876 -0.0592
34059SOL    HW1 8782  11.462   8.019   3.192  1.3582  0.0111  0.2206
34059SOL    HW2 8783  11.585   7.982   3.112  1.7849 -0.8335  1.2541
34060SOL     OW 8784   0.741   7.032   2.601  0.3147  0.6361  0.1257
34060SOL    HW1 8785   0.665   7.009   2.549  0.3145  0.4445  0.2110
34060SOL    HW2 8786   0.743   6.968   2.672  1.4056 -0.2959 -0.7095
34061SOL     OW 8787   5.157   6.826   6.346  0.4400  0.0752 -0.4114
34061SOL    HW1 8788   5.137   6.833   6.253 -0.1021 -1.3503 -0.4392
34061SOL    HW2 8789   5.089   6.878   6.390  1.3450  1.6565 -0.8380
34062SOL     OW 8790  11.014   7.970   7.646  0.3430 -0.3547  1.0633
34062SOL    HW1 8791  11.046   7.885   7.615  1.2145 -0.2647  1.6796
34062SOL    HW2 8792  11.057   8.034   7.590 -0.8390 -0.3207  0.1468
34063SOL     OW 8793   4.555   3.996   8.924  0.0788  0.3579 -0.2040
34063SOL    HW1 8794   4.596   3.999   8.837 -2.8954 -0.7239 -1.7707
34063SOL    HW2 8795   4.559   3.904   8.949 -1.0561  0.2891 -0.2460
34064SOL     OW 8796   5.567   8.354   6.197 -0.4816  0.0519  0.5226
34064SOL    HW1 8797   5.663   8.351   6.202 -0.3432  0.5304 -1.1834
34064SOL    HW2 8798   5.546   8.448   6.197 -1.0306 -0.0533  1.7357
34065SOL     OW 8799   0.455   4.638   1.916 -0.2055  0.6022  0.1847
34065SOL    HW1 8800   0.538   4.592   1.919 -0.1723  0.5940 -0.6004
34065SOL    HW2 8801   0.474   4.725   1.951  0.3210  0.8703 -0.7494
34066SOL     OW 8802  12.520  12.053   4.543 -0.7779 -0.2813 -0.1615
34066SOL    HW1 8803  12.488  12.095   4.622 -2.1775  0.3083 -1.0169
34066SOL    HW2 8804  12.534  11.962   4.569  0.8883  0.3390  1.3143
34067SOL     OW 8805   5.516  11.859   2.734 -0.0397  0.5126 -0.3260
34067SOL    HW1 8806   5.493  11.766   2.736  1.2307  0.1603 -0.7917
34067SOL    HW2 8807   5.459  11.900   2.800 -0.5936 -0.5967 -0.0972
34068SOL     OW 8808   0.085  10.042   7.639  0.2336  0.1621 -0.6361
34068SOL    HW1 8809   0.161  10.091   7.606 -0.8587  0.7333 -2.4486
34068SOL    HW2 8810   0.010  10.084   7.597 -0.9242 -1.6519 -0.4509
34069SOL     OW 8811   1.275  10.257   5.345  0.3781  0.3989 -0.8638
34069SOL    HW1 8812   1.253  10.338   5.298 -0.2074  0.5734 -0.3140
34069SOL    HW2 8813   1.229  10.266   5.429  0.3295 -0.4930 -0.7896
34070SOL     OW 8814   9.399   6.982   8.776 -0.3815 -0.1025  0.0027
34070SOL    HW1 8815   9.473   7.036   8.802 -0.9776  1.9932 -2.2741
34070SOL    HW2 8816   9.393   6.915   8.844  1.1206  2.0082  2.4094
34071SOL     OW 8817  11.939  12.337   2.258 -0.3048 -0.2813  0.3482
34071SOL    HW1 8818  11.952  12.430   2.274 -1.0846  0.2312 -1.6636
34071SOL    HW2 8819  12.027  12.299   2.263  0.2438  0.8475 -0.3862
34072SOL     OW 8820   5.373   5.600  12.459 -0.5610  0.1424  0.2650
34072SOL    HW1 8821   5.402   5.691  12.468  0.2929  0.1714 -2.0288
34072SOL    HW2 8822   5.439   5.560  12.402 -1.3779 -1.7051  0.5597
34073SOL     OW 8823   8.785   0.812   4.708  0.0721 -0.0774  0.2870
34073SOL    HW1 8824   8.837   0.885   4.740 -1.0523  1.1139 -0.4869
34073SOL    HW2 8825   8.787   0.748   4.779  3.0855 -0.3898  0.0367
34074SOL     OW 8826   2.756   1.416  11.428  0.3888 -0.8026  0.2507
34074SOL    HW1 8827   2.700   1.465  11.489  0.7774 -0.3667  0.2639
34074SOL    HW2 8828   2.776   1.334  11.474 -0.7160 -1.2208  0.0005
34075SOL     OW 8829   1.447   0.838   9.824  0.8472 -0.5376  0.2130
34075SOL    HW1 8830   1.429   0.918   9.873 -0.1640 -0.7552  0.2167
34075SOL    HW2 8831   1.533   0.810   9.855  0.7229 -0.0557  1.0243
34076SOL     OW 8832   8.832   0.834   9.717 -0.3623 -0.0685 -0.1263
34076SOL    HW1 8833   8.797   0.917   9.748  1.4675  0.1170  1.6203
34076SOL    HW2 8834   8.898   0.859   9.652  0.0318 -0.1773  0.2342
34077SOL     OW 8835   3.053  10.344   5.825  0.1691  0.3884  0.0817
34077SOL    HW1 8836   3.033  10.260   5.867 -1.2103  0.8144  0.3181
34077SOL    HW2 8837   3.096  10.396   5.893  0.7787 -0.0118  0.0144
34078SOL     OW 8838   2.054   5.457   9.252  1.0140 -0.1373  0.0451
34078SOL    HW1 8839   2.055   5.417   9.165  0.0283 -1.1985  0.4861
34078SOL    HW2 8840   2.007   5.540   9.240 -0.9182 -1.1793 -0.1299
34079SOL     OW 8841   2.492   9.189   8.636 -0.1843  0.2691 -0.3619
34079SOL    HW1 8842   2.436   9.173   8.712  0.6719  0.0195  0.2336
34079SOL    HW2 8843   2.578   9.156   8.662 -0.0292 -0.4564 -1.6895
34080SOL     OW 8844   4.490   0.899   1.424  0.1536 -0.2770  0.5015
34080SOL    HW1 8845   4.439   0.855   1.492  0.9260 -1.3898  0.4034
34080SOL    HW2 8846   4.431   0.905   1.349  0.1657 -1.6026  0.3668
34081SOL     OW 8847   2.837   1.323   7.899  0.1751 -0.5090 -0.3320
34081SOL    HW1 8848   2.754   1.371   7.890 -0.5315 -1.7148 -0.5662
34081SOL    HW2 8849   2.837   1.263   7.824 -0.4469 -2.9724  1.4907
34082SOL     OW 8850   1.344   1.504   0.727 -0.1996 -0.2677 -0.1662
34082SOL    HW1 8851   1.335   1.595   0.700  0.6223  0.3492  1.4911
34082SOL    HW2 8852   1.280   1.456   0.673 -0.3711  1.2075 -1.3341
34083SOL     OW 8853   7.021   7.162  11.400  0.3766  0.1014 -0.4447
34083SOL    HW1 8854   6.971   7.210  11.467 -1.7604 -1.4093 -0.8483
34083SOL    HW2 8855   7.063   7.091  11.448  0.5780  0.2588 -0.3893
34084SOL     OW 8856  10.436   9.338   7.431 -0.2873  0.7034  0.2959
34084SOL    HW1 8857  10.385   9.399   7.378  0.2953  1.7021  0.8749
34084SOL    HW2 8858  10.387   9.255   7.425 -0.1635  0.7313 -1.9000
34085SOL     OW 8859   8.079  10.784  10.280  0.2056  0.0082  0.5235
34085SOL    HW1 8860   8.053  10.732  10.356 -0.5439 -0.5097 -0.0778
34085SOL    HW2 8861   8.111  10.720  10.216  0.0404  0.3577  0.0848
34086SOL     OW 8862  11.238  10.928   5.196 -0.1975  0.1594  0.2820
34086SOL    HW1 8863  11.216  10.850   5.145  0.5457 -0.0304  0.2439
34086SOL    HW2 8864  11.236  10.898   5.287 -1.3432  0.4544  0.3675
34087SOL     OW 8865   1.555  11.591   0.560 -0.0045  0.4030 -0.0006
34087SOL    HW1 8866   1.534  11.653   0.629 -0.1178  0.8226 -0.4152
34087SOL    HW2 8867   1.472  11.575   0.515 -0.1406 -0.6436  0.5825
34088SOL     OW 8868   1.227   3.717   2.509  0.5318 -0.0211  0.0968
34088SOL    HW1 8869   1.153   3.660   2.489 -0.5754  1.1525  0.6819
34088SOL    HW2 8870   1.303   3.659   2.514 -0.1002 -1.0713 -1.8617
34089SOL     OW 8871   1.266   6.156   2.091 -0.5240  0.2476 -0.2717
34089SOL    HW1 8872   1.213   6.188   2.164  0.8695  1.2338  0.3461
34089SOL    HW2 8873   1.262   6.226   2.025 -0.6356 -0.0310 -0.5665
34090SOL     OW 8874  10.413  11.654   0.225 -0.3497 -0.3685 -0.1728
34090SOL    HW1 8875  10.385  11.743   0.242 -0.1525 -0.5737  1.3811
34090SOL    HW2 8876  10.340  11.599   0.252 -0.2561 -0.7081 -0.5876
34091SOL     OW 8877   5.407   1.649   5.580 -0.3127 -0.0705 -0.1088
34091SOL    HW1 8878   5.317   1.675   5.600 -0.3645  0.9075 -1.4705
34091SOL    HW2 8879   5.399   1.564   5.538 -0.7496  0.5462 -1.3359
34092SOL     OW 8880   2.545   9.634  10.770 -0.2750  0.5518  0.4244
34092SOL    HW1 8881   2.552   9.587  10.853 -1.7768 -1.1302 -0.3171
34092SOL    HW2 8882   2.603   9.586  10.711 -0.5433  0.6428  0.0818
34093SOL     OW 8883   2.594   7.088   1.035 -0.0132  0.2335  0.8816
34093SOL    HW1 8884   2.572   7.035   1.111 -2.7449  0.9610  0.6963
34093SOL    HW2 8885   2.619   7.173   1.072 -1.4012  0.6061  1.0007
34094SOL     OW 8886  12.650   6.829   9.038 -0.2878 -0.4397 -0.0546
34094SOL    HW1 8887  12.700   6.883   9.099  0.1739 -0.0863 -0.7435
34094SOL    HW2 8888  12.559   6.855   9.054 -0.2789 -1.1315  1.2427
34095SOL     OW 8889  10.771   8.452   2.467 -0.7125 -0.3440  0.3388
34095SOL    HW1 8890  10.852   8.404   2.451 -0.2166  1.2786 -2.6241
34095SOL    HW2 8891  10.704   8.384   2.471  0.2721 -1.4837 -1.3477
34096SOL     OW 8892   6.626   7.303   3.402  0.1515  0.6146  0.3109
34096SOL    HW1 8893   6.656   7.312   3.493  0.4485  0.1698  0.2593
34096SOL    HW2 8894   6.703   7.324   3.350 -0.1378  1.2994  0.1541
34097SOL     OW 8895   1.545   2.693  11.682 -0.1774  0.2825 -0.3780
34097SOL    HW1 8896   1.585   2.761  11.629 -0.9319  0.6497 -0.4881
34097SOL    HW2 8897   1.588   2.701  11.767  1.4092 -0.6424 -1.0396
34098SOL     OW 8898   9.680   7.333   3.622  0.0006  0.5715 -0.0598
34098SOL    HW1 8899   9.604   7.366   3.671 -0.4858 -0.7943  0.1504
34098SOL    HW2 8900   9.715   7.410   3.578 -1.0743  1.3707  0.4292
34099SOL     OW 8901   2.945   0.135   3.448  0.1457  0.3225 -0.2727
34099SOL    HW1 8902   2.851   0.134   3.431 -0.1137 -1.2191  0.9255
34099SOL    HW2 8903   2.984   0.100   3.368  0.0245  3.6104 -1.9067
34100SOL     OW 8904  11.740   4.726   0.531  0.2035  0.6828 -0.2752
34100SOL    HW1 8905  11.659   4.774   0.516 -0.1748 -0.0592 -0.6830
34100SOL    HW2 8906  11.804   4.767   0.472 -0.3348  0.1546 -1.2573
34101SOL     OW 8907   0.469   0.802   7.242  0.0718  0.4494  0.4194
34101SOL    HW1 8908   0.537   0.735   7.233  0.1527  0.5028  0.6301
34101SOL    HW2 8909   0.513   0.876   7.284  0.0923  0.8028 -0.2072
34102SOL     OW 8910  12.683   3.624  10.629  0.0085  0.0255  0.1195
34102SOL    HW1 8911  12.675   3.538  10.670  0.4793 -1.2156 -2.1871
34102SOL    HW2 8912  12.595   3.643  10.597  0.2376 -0.4232 -0.8223
34103SOL     OW 8913  12.366   0.133   9.265 -0.0940  0.0741 -0.0610
34103SOL    HW1 8914  12.278   0.126   9.230 -0.4033 -0.7365  0.8355
34103SOL    HW2 8915  12.354   0.152   9.358  0.6678 -0.1535  0.0958
34104SOL     OW 8916   5.445   7.218  11.063 -0.1624  0.3220  0.2573
34104SOL    HW1 8917   5.420   7.271  10.987 -0.5144  0.5444  0.5273
34104SOL    HW2 8918   5.519   7.265  11.102  1.0721 -0.6281 -0.8633
34105SOL     OW 8919  12.067   4.153   6.153  0.1745 -0.2590 -0.3447
34105SOL    HW1 8920  12.155   4.159   6.189  0.0020  2.1942 -0.1939
34105SOL    HW2 8921  12.077   4.181   6.062 -0.7578  2.4663  0.3138
34106SOL     OW 8922   4.009   9.524   1.927 -0.3566 -0.6447  0.4828
34106SOL    HW1 8923   3.939   9.551   1.987  0.4442 -0.6046  1.4176
34106SOL    HW2 8924   3.985   9.435   1.901 -0.4541 -0.8625  1.2759
34107SOL     OW 8925   2.373   7.861  11.821  0.4216  0.3690 -0.3557
34107SOL    HW1 8926   2.370   7.954  11.800  0.2914  0.1873 -1.1437
34107SOL    HW2 8927   2.448   7.827  11.772  1.2423  0.2863  0.8940
34108SOL     OW 8928   9.774  12.649   8.531 -0.2584  0.1382  0.0157
34108SOL    HW1 8929   9.864  12.669   8.507 -1.1814  0.7198 -3.3832
34108SOL    HW2 8930   9.772  12.553   8.537  0.0605 -0.1027 -2.6324
34109SOL     OW 8931   8.357   3.409   0.817  0.0991  0.5388 -0.1973
34109SOL    HW1 8932   8.443   3.369   0.830  1.3620  3.2036  0.4458
34109SOL    HW2 8933   8.301   3.368   0.883  0.5540 -1.8809 -1.1948
34110SOL     OW 8934   3.193  12.678   0.383  0.2410  0.1125 -0.0913
34110SOL    HW1 8935   3.127  12.654   0.318  0.3389  2.3081 -1.1097
34110SOL    HW2 8936   3.272  12.631   0.356 -0.4594 -1.3395  0.2557
34111SOL     OW 8937   6.921  12.572   0.218  0.5149 -0.0834  0.2167
34111SOL    HW1 8938   6.988  12.622   0.265 -0.1157  2.1341 -1.1038
34111SOL    HW2 8939   6.939  12.588   0.126 -0.6041 -1.1531 -0.2097
34112SOL     OW 8940   0.995   6.684  11.640  0.1297  0.0093 -0.8078
34112SOL    HW1 8941   0.984   6.693  11.545  0.5283 -0.4765 -0.9118
34112SOL    HW2 8942   1.090   6.690  11.653 -0.0082  1.2833 -0.2899
34113SOL     OW 8943   8.774  12.284  10.013  0.5112  0.2272  0.2898
34113SOL    HW1 8944   8.754  12.191  10.026  1.5121 -0.4276 -2.3020
34113SOL    HW2 8945   8.867  12.292  10.035  0.4756  0.5990  0.3113
34114SOL     OW 8946  12.470   2.317   6.448  0.3491 -0.6533 -0.0470
34114SOL    HW1 8947  12.562   2.342   6.457  0.1329 -0.3334  1.6628
34114SOL    HW2 8948  12.421   2.395   6.476 -0.6133  0.5413 -4.3127
34115SOL     OW 8949   9.035   1.892   0.950 -0.7251 -0.1415  0.6980
34115SOL    HW1 8950   9.122   1.930   0.968 -0.3594 -0.9488  0.6488
34115SOL    HW2 8951   8.998   1.950   0.883 -0.5917  0.7211  1.3534
34116SOL     OW 8952   6.237   5.074   3.279 -0.4509 -0.3219  0.1896
34116SOL    HW1 8953   6.282   5.156   3.260 -1.5406  0.9090  2.5282
34116SOL    HW2 8954   6.159   5.077   3.223 -0.9551  0.7278  0.9071
34117SOL     OW 8955   9.840   7.607   7.994  0.5703  0.5337  0.7438
34117SOL    HW1 8956   9.803   7.623   8.080  1.5229  0.8711  1.1091
34117SOL    HW2 8957   9.803   7.677   7.939  0.0870  0.4142  0.9160
34118SOL     OW 8958   6.902   3.652   3.201 -0.1126 -0.2583 -0.8598
34118SOL    HW1 8959   6.890   3.729   3.147 -0.8909 -1.0961 -1.9212
34118SOL    HW2 8960   6.837   3.660   3.271  0.6211  0.6197 -0.2481
34119SOL     OW 8961  11.249  10.056   7.422 -0.2029 -0.1105 -0.0964
34119SOL    HW1 8962  11.264  10.033   7.514 -0.6667 -1.5172 -0.3562
34119SOL    HW2 8963  11.209  10.143   7.426  1.0950  0.4800  0.9516
34120SOL     OW 8964   0.588   6.277   0.340  0.1799 -0.3431  0.4232
34120SOL    HW1 8965   0.512   6.219   0.338  0.6287 -1.0080  1.7243
34120SOL    HW2 8966   0.594   6.306   0.431  0.9582  0.4146  0.1434
34121SOL     OW 8967  10.979  10.470   4.857 -0.4533  0.2423 -0.3477
34121SOL    HW1 8968  10.900  10.505   4.898 -0.4570  0.4159 -0.4992
34121SOL    HW2 8969  10.979  10.509   4.769  0.5563  1.3951  0.1329
34122SOL     OW 8970   3.261   9.456   9.586  0.3857 -0.2622 -0.1076
34122SOL    HW1 8971   3.187   9.454   9.646  1.2793  0.6491  1.0646
34122SOL    HW2 8972   3.331   9.410   9.633  0.9262 -0.0403 -0.6855
34123SOL     OW 8973   5.227   6.963   1.202  0.6290  0.2537  0.1399
34123SOL    HW1 8974   5.155   6.964   1.265 -0.3433 -1.0860 -0.8833
34123SOL    HW2 8975   5.222   7.047   1.157 -0.2255  0.2289  0.1815
34124SOL     OW 8976   2.438   8.845   1.759  0.3743 -0.1872  0.5707
34124SOL    HW1 8977   2.366   8.786   1.779  0.6001 -0.2934  1.0863
34124SOL    HW2 8978   2.490   8.847   1.839  0.9894 -0.1751  0.1738
34125SOL     OW 8979   6.706   9.052  10.665 -0.3588  0.2696  0.4657
34125SOL    HW1 8980   6.689   8.965  10.631  2.1702  0.3168 -1.1976
34125SOL    HW2 8981   6.778   9.086  10.612 -0.1054  2.7189  2.1471
34126SOL     OW 8982   0.015   5.242   1.290 -0.4016 -0.7131 -0.1100
34126SOL    HW1 8983   0.017   5.151   1.260 -1.0211 -0.9184  0.4384
34126SOL    HW2 8984  -0.055   5.282   1.238 -1.6011 -1.1155  1.1280
34127SOL     OW 8985  10.559  11.479   3.550 -0.3146 -0.2793 -0.4326
34127SOL    HW1 8986  10.509  11.530   3.613 -0.2714  0.3020 -0.8626
34127SOL    HW2 8987  10.504  11.403   3.532 -0.5727 -0.1700 -0.1211
34128SOL     OW 8988   0.602   7.652   9.086 -0.1304  0.3963 -0.0933
34128SOL    HW1 8989   0.674   7.589   9.092 -1.0291 -0.6204  0.1763
34128SOL    HW2 8990   0.553   7.625   9.008 -0.3532  0.9459 -0.1473
34129SOL     OW 8991  10.525   4.543   0.506  0.0132 -0.5356  0.4377
34129SOL    HW1 8992  10.437   4.546   0.543  0.1282 -1.2909  0.7902
34129SOL    HW2 8993  10.512   4.566   0.414 -0.2474  1.5151  0.9325
34130SOL     OW 8994   3.757   2.278   4.054 -0.5816  0.1564  0.1782
34130SOL    HW1 8995   3.790   2.275   3.964  2.0465  0.4424  1.0379
34130SOL    HW2 8996   3.724   2.190   4.071 -0.3988 -0.1186 -0.8393
34131SOL     OW 8997   4.641   8.803  11.838 -0.5079 -0.3219 -0.2909
34131SOL    HW1 8998   4.694   8.757  11.772  1.8910  1.0712  0.5309
34131SOL    HW2 8999   4.650   8.750  11.917 -3.5915 -2.1311 -0.9881
34132SOL     OW 9000  10.320   4.748   9.062 -0.1742 -0.1743 -0.0223
34132SOL    HW1 9001  10.342   4.824   9.116  0.3724 -0.2427 -0.1411
34132SOL    HW2 9002  10.398   4.734   9.008 -0.2064 -0.9185  0.1132
34133SOL     OW 9003   7.067  11.876   9.780  0.0929  0.0871 -0.1815
34133SOL    HW1 9004   7.138  11.920   9.825 -0.3412  0.1723  0.4377
34133SOL    HW2 9005   7.107  11.796   9.744  0.7547  0.7111 -0.8545
34134SOL     OW 9006   6.203   8.422   7.272 -0.4369  0.1234 -0.0405
34134SOL    HW1 9007   6.174   8.444   7.361 -1.5038  0.5330 -0.4692
34134SOL    HW2 9008   6.125   8.435   7.218  1.2132  4.4219 -1.8070
34135SOL     OW 9009   3.059   4.607   5.861  0.1790  0.2840  0.1642
34135SOL    HW1 9010   2.980   4.613   5.915 -0.6978  1.7101 -1.1986
34135SOL    HW2 9011   3.128   4.643   5.917 -0.2120 -0.5268  1.1973
34136SOL     OW 9012   8.969  11.920   0.071 -0.1780 -0.7924  0.3556
34136SOL    HW1 9013   9.043  11.967   0.033 -1.3749  0.4196 -0.5401
34136SOL    HW2 9014   8.899  11.985   0.077 -1.0855 -1.8265  1.4954
34137SOL     OW 9015  11.679   5.884   9.507 -0.2120 -0.0213 -0.5026
34137SOL    HW1 9016  11.714   5.937   9.578 -1.6621  1.5538 -0.9032
34137SOL    HW2 9017  11.595   5.851   9.541 -0.4201 -0.1269 -1.1058
34138SOL     OW 9018   3.408   5.825  12.035  0.3351 -0.6253  0.3300
34138SOL    HW1 9019   3.381   5.894  11.974  0.2334 -1.0850 -0.1554
34138SOL    HW2 9020   3.493   5.855  12.069  0.7556 -0.7097 -0.6102
34139SOL     OW 9021   2.190  12.017   8.217 -0.3483  0.5332 -0.1835
34139SOL    HW1 9022   2.174  12.107   8.187 -0.9736  0.7651  0.8002
34139SOL    HW2 9023   2.170  12.019   8.310  1.2717 -0.2408  0.2149
34140SOL     OW 9024  12.773   4.344   2.090  0.0579 -0.1072  0.0633
34140SOL    HW1 9025  12.707   4.373   2.028  0.7409 -1.9225 -1.6037
34140SOL    HW2 9026  12.723   4.309   2.164 -0.7748  4.0037  1.6833
34141SOL     OW 9027   8.170  10.827   4.505 -0.1531  0.3166  0.0319
34141SOL    HW1 9028   8.206  10.758   4.561  0.9306  0.1915 -0.7842
34141SOL    HW2 9029   8.173  10.790   4.417  1.4218  1.7434 -0.5747
34142SOL     OW 9030   2.824   1.149   8.110 -0.5051  0.2125  0.3065
34142SOL    HW1 9031   2.860   1.095   8.040  2.8771  0.8007  1.4056
34142SOL    HW2 9032   2.821   1.237   8.074  2.4721  0.7632  1.0973
34143SOL     OW 9033   0.974   2.314   6.773  0.0380 -0.0589 -0.1141
34143SOL    HW1 9034   1.027   2.378   6.821  0.5707  0.0639 -0.8336
34143SOL    HW2 9035   0.979   2.234   6.825  2.0038 -0.4235 -0.7819
34144SOL     OW 9036   0.652   7.189   3.005  0.1944  0.5404  0.6460
34144SOL    HW1 9037   0.730   7.134   3.010  1.3149  2.0294  0.3884
34144SOL    HW2 9038   0.640   7.222   3.095 -1.4047 -1.2765  1.1643
34145SOL     OW 9039  11.286   5.903   4.124 -0.0592  0.0142 -0.2862
34145SOL    HW1 9040  11.197   5.880   4.096  0.2900 -0.4646 -1.0030
34145SOL    HW2 9041  11.319   5.824   4.166 -0.0949  0.3115  0.3193
34146SOL     OW 9042   2.384   8.967   4.494  0.5707 -0.0396  0.1217
34146SOL    HW1 9043   2.444   9.012   4.553  1.6644 -0.3419 -0.7229
34146SOL    HW2 9044   2.423   8.880   4.481 -1.4477 -1.2720  1.6520
34147SOL     OW 9045   1.385   5.455   9.421 -0.0470 -0.3311  0.1932
34147SOL    HW1 9046   1.462   5.403   9.444 -0.4762 -0.3972  1.5251
34147SOL    HW2 9047   1.348   5.483   9.504 -1.0628  0.3079 -0.4470
34148SOL     OW 9048  10.485   1.717   0.443  0.1571  0.2714  0.3845
34148SOL    HW1 9049  10.510   1.688   0.531 -1.1726 -2.5015 -0.0342
34148SOL    HW2 9050  10.394   1.745   0.452  0.2755  0.7761  0.0382
34149SOL     OW 9051   5.863  11.419   1.729  0.3589  0.0546 -0.0509
34149SOL    HW1 9052   5.951  11.390   1.755  0.7509  1.2922  0.0824
34149SOL    HW2 9053   5.804  11.357   1.771  1.1675 -0.7968 -0.1411
34150SOL     OW 9054   2.746   7.572  11.559 -0.6880 -0.2938  0.1131
34150SOL    HW1 9055   2.694   7.506  11.513 -0.5362  0.7383 -1.6289
34150SOL    HW2 9056   2.833   7.563  11.521 -0.4136  0.2193  0.6191
34151SOL     OW 9057   1.849   9.351   5.129 -0.2946 -0.5507 -0.3240
34151SOL    HW1 9058   1.852   9.309   5.215  3.6790  0.4604  0.2707
34151SOL    HW2 9059   1.839   9.444   5.149 -0.3895 -0.4060 -1.0241
34152SOL     OW 9060   7.675   0.206   6.009  0.0518  0.0410  0.3210
34152SOL    HW1 9061   7.653   0.291   6.045  1.7958  0.8205 -0.3544
34152SOL    HW2 9062   7.674   0.219   5.914 -0.5698 -0.9489  0.1751
34153SOL     OW 9063   8.373   2.135   5.753  0.1138 -0.0038  0.1922
34153SOL    HW1 9064   8.293   2.141   5.701 -0.0601 -2.0884  0.1374
34153SOL    HW2 9065   8.432   2.080   5.702  0.2987 -1.3210  1.7370
34154SOL     OW 9066  10.433   0.637   1.954 -0.1119  0.6929 -0.2628
34154SOL    HW1 9067  10.464   0.695   2.024  0.4960  0.4431 -0.3181
34154SOL    HW2 9068  10.357   0.592   1.991  2.1972 -2.0637  1.5747
34155SOL     OW 9069   4.688   2.388   4.810 -0.3839 -0.2096  0.2037
34155SOL    HW1 9070   4.631   2.360   4.738 -0.8441 -0.3537  0.6128
34155SOL    HW2 9071   4.705   2.308   4.859  2.0082 -0.6128 -1.1357
34156SOL     OW 9072   2.843   3.882   1.884 -0.0824  0.3810  0.3934
34156SOL    HW1 9073   2.805   3.969   1.897 -1.3425 -0.2752  1.3351
34156SOL    HW2 9074   2.915   3.878   1.948 -0.6310  0.3871  1.0182
34157SOL     OW 9075   4.227   7.576   3.581 -0.0025  1.8132 -0.3990
34157SOL    HW1 9076   4.307   7.537   3.544 -0.1398  0.9492  0.1878
34157SOL    HW2 9077   4.165   7.504   3.587 -0.3709  2.1766  0.4369
34158SOL     OW 9078   1.007   5.149   6.453  0.0129  1.0329  0.3146
34158SOL    HW1 9079   0.972   5.062   6.469 -0.4008  1.0068 -0.6535
34158SOL    HW2 9080   1.029   5.183   6.540 -0.9497  0.4434  0.7983
34159SOL     OW 9081   2.876   1.703   5.801 -0.1755  0.1855  0.0820
34159SOL    HW1 9082   2.888   1.730   5.892  0.5279  0.0247  0.0482
34159SOL    HW2 9083   2.883   1.607   5.804  0.1929  0.2015 -0.1796
34160SOL     OW 9084   4.320   6.626   3.464  0.5713 -0.4585 -0.4570
34160SOL    HW1 9085   4.365   6.685   3.404  1.0301  0.3279  0.6207
34160SOL    HW2 9086   4.388   6.598   3.526 -0.3035  0.4527  0.9758
34161SOL     OW 9087  10.617   2.865   0.182 -0.0619 -0.0980 -0.1177
34161SOL    HW1 9088  10.569   2.790   0.216  0.2947  0.5182  1.8635
34161SOL    HW2 9089  10.562   2.898   0.111 -0.5949 -1.7391 -0.5119
34162SOL     OW 9090   6.665  10.485   9.603  0.3673 -0.0958 -0.0459
34162SOL    HW1 9091   6.709  10.435   9.534  0.5328 -0.0581  0.0317
34162SOL    HW2 9092   6.703  10.453   9.684  2.0856  1.6492 -0.0741
34163SOL     OW 9093   3.572   9.949   4.459  0.0387 -0.3546 -0.2941
34163SOL    HW1 9094   3.562   9.929   4.366  0.2204 -1.1044 -0.1594
34163SOL    HW2 9095   3.491   9.919   4.499  0.0902 -0.3180 -0.1620
34164SOL     OW 9096   5.979   8.606   8.518 -0.4137 -0.2929  0.5693
34164SOL    HW1 9097   5.905   8.584   8.574 -1.2783  2.7367  0.7879
34164SOL    HW2 9098   6.005   8.694   8.545  1.8151 -0.3452 -1.0584
34165SOL     OW 9099   7.170   1.487   4.545 -0.1061 -0.6400 -0.2580
34165SOL    HW1 9100   7.245   1.429   4.534  1.0624  0.4183  1.6738
34165SOL    HW2 9101   7.207   1.570   4.573 -1.8712  0.5833 -1.2887
34166SOL     OW 9102   7.044   5.103   0.540 -0.2941  0.0906 -0.3989
34166SOL    HW1 9103   6.997   5.042   0.482  0.0275  0.1648 -0.7422
34166SOL    HW2 9104   6.978   5.169   0.563 -0.4920 -0.0737 -0.4857
34167SOL     OW 9105   0.406   0.209   5.665  0.0189  0.3219  0.3683
34167SOL    HW1 9106   0.474   0.142   5.674 -0.8699 -0.8596 -1.2560
34167SOL    HW2 9107   0.387   0.236   5.755  0.0796 -1.9261  1.1125
34168SOL     OW 9108   9.849  11.846  10.293  0.3903 -0.0130  0.7243
34168SOL    HW1 9109   9.911  11.863  10.222 -0.2540  2.1528  0.6258
34168SOL    HW2 9110   9.846  11.927  10.342 -2.2357 -0.1128  0.8305
34169SOL     OW 9111  12.679   0.554   7.592  0.2464 -0.0038 -0.0984
34169SOL    HW1 9112  12.651   0.538   7.502  0.8118 -0.4803 -0.1903
34169SOL    HW2 9113  12.651   0.643   7.610 -0.4140 -0.1141 -0.5404
34170SOL     OW 9114   0.539   9.601   0.832  0.1621  0.2707 -0.2524
34170SOL    HW1 9115   0.609   9.539   0.851 -0.2996 -0.5291 -1.1098
34170SOL    HW2 9116   0.560   9.677   0.886 -0.8717 -1.6894  3.2638
34171SOL     OW 9117   9.282   6.509   3.190  0.3509  0.0542 -0.0507
34171SOL    HW1 9118   9.227   6.438   3.224 -0.2947  0.7337  0.3911
34171SOL    HW2 9119   9.342   6.529   3.262  0.0149  0.4596  0.1247
34172SOL     OW 9120   4.708  11.296   9.332  0.3327  0.0525  0.0782
34172SOL    HW1 9121   4.625  11.250   9.343  1.0067 -1.4717 -0.8677
34172SOL    HW2 9122   4.706  11.365   9.398 -2.1018  0.7083 -0.5625
34173SOL     OW 9123   8.309   3.048   1.560  0.0963  0.5080  0.6063
34173SOL    HW1 9124   8.244   3.108   1.596 -0.5530 -0.1120  0.4847
34173SOL    HW2 9125   8.368   3.029   1.634 -0.3021  0.4843  0.9216
34174SOL     OW 9126  10.405   8.262   6.189 -0.1681 -0.3775  0.2807
34174SOL    HW1 9127  10.381   8.170   6.199 -2.4971  0.1671  0.3274
34174SOL    HW2 9128  10.353   8.308   6.255  0.3753  1.0468 -0.2383
34175SOL     OW 9129  10.695   7.486   1.588 -0.1199 -0.4909 -0.2385
34175SOL    HW1 9130  10.698   7.564   1.644 -0.8499 -1.3416  1.0598
34175SOL    HW2 9131  10.601   7.468   1.578  0.0410 -1.2380 -0.4543
34176SOL     OW 9132   3.387   9.212   5.122  0.2091 -0.1917  0.1267
34176SOL    HW1 9133   3.297   9.228   5.150  0.7899 -0.7512  2.4937
34176SOL    HW2 9134   3.420   9.298   5.097 -0.4300  0.3165  0.9952
34177SOL     OW 9135  11.414   0.952   0.063  1.1646 -0.0499  0.2317
34177SOL    HW1 9136  11.384   0.869   0.027  1.8335 -0.0004 -0.4518
34177SOL    HW2 9137  11.345   1.014   0.042  1.6351  0.0232 -1.1600
34178SOL     OW 9138  12.645   0.819   8.190 -0.1852 -0.7382 -0.6427
34178SOL    HW1 9139  12.625   0.782   8.104 -1.8915 -1.5015  0.0246
34178SOL    HW2 9140  12.592   0.898   8.196 -1.3512 -1.5351  0.2634
34179SOL     OW 9141   4.208   4.556   9.812  0.1408  0.1383 -0.0507
34179SOL    HW1 9142   4.121   4.527   9.785  0.3250  1.0988 -1.8395
34179SOL    HW2 9143   4.266   4.531   9.740  0.9049  1.6610 -0.0082
34180SOL     OW 9144   5.791  11.559   3.651  0.5354  0.0799  0.4859
34180SOL    HW1 9145   5.852  11.579   3.722 -1.6543 -0.3220  2.6243
34180SOL    HW2 9146   5.750  11.643   3.631  0.4039  0.0106  0.4621
34181SOL     OW 9147   3.435  10.994  10.559 -0.2396 -0.9229  0.0885
34181SOL    HW1 9148   3.446  10.961  10.470  1.2606  1.9458 -0.8935
34181SOL    HW2 9149   3.417  11.087  10.549  0.5029 -0.3861  2.8121
34182SOL     OW 9150   0.344  12.338  12.407 -0.4236 -0.4603 -0.1043
34182SOL    HW1 9151   0.306  12.351  12.320 -0.1845  1.8884  0.0814
34182SOL    HW2 9152   0.296  12.264  12.443 -0.4988 -1.5054 -2.2279
34183SOL     OW 9153   8.605  12.176   5.538 -0.5395 -0.0030  0.0364
34183SOL    HW1 9154   8.542  12.247   5.524  1.7133  2.1286 -0.0528
34183SOL    HW2 9155   8.651  12.201   5.619  0.1271 -1.5288  0.1621
34184SOL     OW 9156   4.964   7.798   0.304 -0.1361  0.2831  0.4419
34184SOL    HW1 9157   4.933   7.852   0.377  0.5924 -0.2524  1.1562
34184SOL    HW2 9158   5.056   7.780   0.325 -0.0605 -0.2997 -0.3593
34185SOL     OW 9159  10.165   6.529   1.016  0.2923  0.0279  0.2871
34185SOL    HW1 9160  10.219   6.604   0.991 -0.7915  0.2080 -1.7522
34185SOL    HW2 9161  10.196   6.458   0.958 -0.3132 -0.4131  0.4961
34186SOL     OW 9162   2.129   5.966  12.225 -0.0579  0.7861 -0.0062
34186SOL    HW1 9163   2.053   5.915  12.195  0.0165  0.6570  0.0272
34186SOL    HW2 9164   2.124   5.962  12.320 -0.1907  1.0459  0.0001
34187SOL     OW 9165   3.972   6.590   6.171  0.1315 -0.0821  0.3434
34187SOL    HW1 9166   4.020   6.604   6.089  0.8533 -0.9254  0.6114
34187SOL    HW2 9167   3.999   6.662   6.227 -0.3654  0.5011 -0.1509
34188SOL     OW 9168   9.775   2.494  11.388 -0.2176  0.4838  0.4127
34188SOL    HW1 9169   9.692   2.540  11.378 -0.1882  0.7974  1.5444
34188SOL    HW2 9170   9.812   2.527  11.470 -0.3056 -1.6815  1.4076
34189SOL     OW 9171   5.935   5.315   2.530  0.3778  0.3224  0.1185
34189SOL    HW1 9172   5.901   5.347   2.446 -1.9081 -0.1995  0.7848
34189SOL    HW2 9173   5.929   5.220   2.524  1.2179  0.2315  0.5001
34190SOL     OW 9174   4.724   6.610   3.384 -0.1134  0.4909  0.7844
34190SOL    HW1 9175   4.697   6.627   3.294 -0.6630 -3.0894  0.1245
34190SOL    HW2 9176   4.652   6.646   3.437 -1.4167 -0.1917 -0.4324
34191SOL     OW 9177   2.635  10.739   2.622  0.1892  0.4204 -0.1080
34191SOL    HW1 9178   2.595  10.741   2.535  0.6243 -2.1827 -0.4351
34191SOL    HW2 9179   2.724  10.708   2.607  0.5425  0.7685  1.1916
34192SOL     OW 9180   6.153   2.230   5.332  0.2312 -0.4782  0.5003
34192SOL    HW1 9181   6.067   2.242   5.371  0.1099  0.7509 -0.0858
34192SOL    HW2 9182   6.200   2.174   5.393 -0.5301 -0.0379  1.5139
34193SOL     OW 9183   5.061   0.582   4.187  0.6187 -0.2116  0.0832
34193SOL    HW1 9184   5.078   0.582   4.281 -0.3306  0.4028  0.2667
34193SOL    HW2 9185   5.148   0.589   4.147  0.9324  1.4750  0.9484
34194SOL     OW 9186   7.191  11.518   8.334 -0.4781 -0.2039 -0.4534
34194SOL    HW1 9187   7.189  11.452   8.403 -0.3792  0.7101  0.4409
34194SOL    HW2 9188   7.248  11.481   8.267  1.5985 -0.0193  1.1128
34195SOL     OW 9189   2.084   3.669  12.286 -0.7312 -0.3013 -0.7916
34195SOL    HW1 9190   2.111   3.741  12.229 -0.8718  0.2567 -0.1677
34195SOL    HW2 9191   2.151   3.602  12.274 -0.6832 -0.1332 -1.5014
34196SOL     OW 9192   6.432   4.959   3.896  0.7294 -0.7789  0.0775
34196SOL    HW1 9193   6.341   4.964   3.869  1.1846  0.1576 -1.3779
34196SOL    HW2 9194   6.428   4.945   3.991 -0.9258  0.0486  0.1647
34197SOL     OW 9195  12.761   1.969   7.248  0.2234  0.6035 -0.2954
34197SOL    HW1 9196  12.670   1.986   7.272  0.2232  0.4789 -0.2076
34197SOL    HW2 9197  12.792   1.906   7.314  0.3868  0.6836 -0.2967
34198SOL     OW 9198   4.502   5.630   8.609 -0.2512 -0.4712 -0.0984
34198SOL    HW1 9199   4.568   5.563   8.626  0.1293 -0.5645 -1.7541
34198SOL    HW2 9200   4.528   5.704   8.664  0.7222 -0.8251 -0.0735
34199SOL     OW 9201   4.796   7.341   4.694 -0.3116  0.2310  0.2388
34199SOL    HW1 9202   4.824   7.278   4.628 -2.8640 -1.1904  0.3760
34199SOL    HW2 9203   4.725   7.390   4.653 -2.4119 -1.1266  1.9957
34200SOL     OW 9204   2.860   7.485  11.307 -0.4537  0.0898 -0.4126
34200SOL    HW1 9205   2.822   7.402  11.334 -2.5317  1.1518  0.1893
34200SOL    HW2 9206   2.880   7.474  11.215 -0.3132 -1.1881 -0.2460
34201SOL     OW 9207   4.996   4.792   7.115 -0.3486 -0.9305  0.3133
34201SOL    HW1 9208   5.084   4.801   7.079 -1.0794  2.6330 -0.9013
34201SOL    HW2 9209   4.938   4.794   7.038 -1.6027 -0.3717  1.2401
34202SOL     OW 9210   4.600   4.570   3.974 -0.6000  0.1165  0.0699
34202SOL    HW1 9211   4.575   4.480   3.953 -0.0765  0.0843 -0.4351
34202SOL    HW2 9212   4.519   4.610   4.006 -0.9661 -0.3807 -0.2170
34203SOL     OW 9213  10.114   4.833   0.688 -0.0395 -0.0502 -0.0174
34203SOL    HW1 9214  10.187   4.857   0.745  0.8344  1.5724 -1.6869
34203SOL    HW2 9215  10.035   4.860   0.736  0.5513 -0.2311  1.0777
34204SOL     OW 9216   5.542   0.922  10.443  0.6298 -0.3804 -0.3250
34204SOL    HW1 9217   5.553   0.834  10.409  0.9132 -0.6296  0.3985
34204SOL    HW2 9218   5.500   0.970  10.371  0.9241 -0.9669 -0.9017
34205SOL     OW 9219   0.376  12.079   9.876 -0.8864 -0.2993 -0.2677
34205SOL    HW1 9220   0.321  12.157   9.884  0.4228  0.5810  0.5954
34205SOL    HW2 9221   0.387  12.048   9.966  0.1990 -0.3101 -0.3889
34206SOL     OW 9222   9.505   4.016  12.465 -0.2298 -0.2062  0.2778
34206SOL    HW1 9223   9.443   3.944  12.476  1.1309 -1.1793  2.1388
34206SOL    HW2 9224   9.553   3.995  12.385  0.9798 -2.0863  1.4347
34207SOL     OW 9225   9.362   4.742  11.008  0.6727  0.3035  0.1697
34207SOL    HW1 9226   9.316   4.663  11.034 -1.8028  1.1844 -1.2150
34207SOL    HW2 9227   9.404   4.773  11.089 -0.4966 -0.9957  1.3261
34208SOL     OW 9228   7.775   9.704   2.458 -0.0514 -0.8483 -0.0362
34208SOL    HW1 9229   7.790   9.772   2.393 -0.0779 -1.6976 -0.9569
34208SOL    HW2 9230   7.723   9.746   2.526 -0.9826 -0.2371 -1.1013
34209SOL     OW 9231   6.439   1.248  12.539  0.5844  0.1963 -0.6544
34209SOL    HW1 9232   6.427   1.266  12.445  2.0088  1.8797 -0.5491
34209SOL    HW2 9233   6.496   1.318  12.570  0.1934 -0.3738  1.4860
34210SOL     OW 9234   4.193   3.756   0.712  0.3028 -0.2479  0.0239
34210SOL    HW1 9235   4.254   3.798   0.650  0.5610 -0.1225  0.3568
34210SOL    HW2 9236   4.250   3.707   0.772  0.1340  0.4367  0.7680
34211SOL     OW 9237   2.329   3.860  11.425  0.2079  0.7474  0.4361
34211SOL    HW1 9238   2.307   3.919  11.353 -0.9048 -0.6191 -0.4080
34211SOL    HW2 9239   2.247   3.813  11.444  1.0179 -0.4567  1.1117
34212SOL     OW 9240   2.188   9.503   1.198  0.1169  0.2692  0.2669
34212SOL    HW1 9241   2.260   9.542   1.148 -0.5376  1.9880  0.6058
34212SOL    HW2 9242   2.225   9.487   1.285  0.4771 -0.1906  0.0359
34213SOL     OW 9243   9.904   8.907  10.244  0.3955 -0.2202 -0.0806
34213SOL    HW1 9244   9.812   8.881  10.243  0.5891 -0.9678  0.7635
34213SOL    HW2 9245   9.927   8.916  10.151 -0.6217  0.3496 -0.2919
34214SOL     OW 9246  11.354   6.396   7.296  0.3587  0.1268 -0.4125
34214SOL    HW1 9247  11.344   6.333   7.225  1.8003  0.1846 -0.6964
34214SOL    HW2 9248  11.386   6.344   7.370  2.6458  0.6331 -0.9699
34215SOL     OW 9249   2.835   3.358  12.180  0.4512 -0.3946  0.0858
34215SOL    HW1 9250   2.840   3.379  12.273 -2.3226 -0.5914  0.3584
34215SOL    HW2 9251   2.746   3.383  12.154  1.3437  0.2725 -2.6933
34216SOL     OW 9252   3.093   5.552   5.523  0.0518 -0.9886 -0.2556
34216SOL    HW1 9253   3.101   5.564   5.617 -0.1810  0.8137 -0.4300
34216SOL    HW2 9254   3.182   5.558   5.490 -0.0779  1.3386 -0.3936
34217SOL     OW 9255  10.356   3.651   2.756  0.1592  0.0394 -0.3915
34217SOL    HW1 9256  10.441   3.647   2.801  0.7010 -1.9576 -1.4701
34217SOL    HW2 9257  10.376   3.687   2.670 -0.2614  0.4400 -0.3253
34218SOL     OW 9258   2.110   8.390  11.898 -0.2269 -0.7048 -0.2901
34218SOL    HW1 9259   2.127   8.296  11.901  1.7520 -0.3878 -0.2923
34218SOL    HW2 9260   2.127   8.415  11.807 -2.2922 -0.5510 -0.6959
34219SOL     OW 9261   3.221   8.878   4.367 -0.2378  0.3390  0.2879
34219SOL    HW1 9262   3.290   8.930   4.327  1.4371 -0.9652  1.3397
34219SOL    HW2 9263   3.195   8.816   4.299 -2.3819  2.5219 -1.0369
34220SOL     OW 9264   1.720   1.147  10.263 -0.1038 -0.3246 -0.1675
34220SOL    HW1 9265   1.727   1.119  10.172  1.9907  0.0901 -0.1821
34220SOL    HW2 9266   1.650   1.093  10.299 -0.1564 -1.3514 -1.7053
34221SOL     OW 9267   2.647   6.567   0.114 -0.0070  0.1353  0.3800
34221SOL    HW1 9268   2.731   6.580   0.070  0.3008  0.1389  0.9692
34221SOL    HW2 9269   2.647   6.476   0.142 -0.2021  0.1334  0.3776
34222SOL     OW 9270   1.561  12.281   5.426 -0.0618 -0.5007  0.6262
34222SOL    HW1 9271   1.476  12.270   5.468  1.3378 -1.0341  3.6260
34222SOL    HW2 9272   1.591  12.368   5.455  0.5536 -0.4484 -0.1281
34223SOL     OW 9273   6.023   8.341   8.333 -0.4688  0.3524 -0.1297
34223SOL    HW1 9274   6.022   8.424   8.380 -0.1688  0.4872 -0.3590
34223SOL    HW2 9275   5.969   8.357   8.255 -0.9371  0.1395  0.1471
34224SOL     OW 9276   8.210  11.795  11.979 -0.0376  0.1696 -0.2181
34224SOL    HW1 9277   8.143  11.740  11.937  0.1830  0.1870 -0.6017
34224SOL    HW2 9278   8.162  11.843  12.046 -0.0311 -1.3409  0.9280
34225SOL     OW 9279  10.541   0.379   1.391 -0.5599  0.2138  0.3007
34225SOL    HW1 9280  10.637   0.375   1.392 -0.5054 -1.7481  3.3852
34225SOL    HW2 9281  10.520   0.467   1.423  0.0172  1.8138 -3.2764
34226SOL     OW 9282  12.127   9.354   6.251  0.3937  0.0884  0.0080
34226SOL    HW1 9283  12.222   9.355   6.239  0.6671  0.2877  1.8812
34226SOL    HW2 9284  12.114   9.317   6.338 -1.2979 -0.5039 -0.4573
34227SOL     OW 9285   4.851   5.636  10.595  0.2906 -0.1225 -0.3043
34227SOL    HW1 9286   4.775   5.688  10.621  0.6645  0.1369  0.2947
34227SOL    HW2 9287   4.859   5.569  10.662  1.8247  1.1209  0.8404
34228SOL     OW 9288  10.211  12.324   8.276  0.3395 -0.2958  1.1843
34228SOL    HW1 9289  10.292  12.273   8.282  0.5648  0.0209  0.9078
34228SOL    HW2 9290  10.215  12.384   8.351 -0.8259 -1.9310  2.6259
34229SOL     OW 9291  11.971   4.119   3.214  0.4678  0.4484  0.4894
34229SOL    HW1 9292  11.922   4.091   3.291 -0.1518  0.6594  0.1736
34229SOL    HW2 9293  12.035   4.181   3.247  0.1055  0.6493  0.8138
34230SOL     OW 9294  11.951   1.039   0.611 -0.2062  0.1520 -0.1962
34230SOL    HW1 9295  11.944   0.950   0.645  0.6235  0.0750 -0.1862
34230SOL    HW2 9296  11.956   1.095   0.689 -0.9878  0.2327 -0.2035
34231SOL     OW 9297   9.745  11.970   4.642 -0.0151  0.6540 -0.2941
34231SOL    HW1 9298   9.676  11.973   4.576 -0.0190  2.9075 -0.2360
34231SOL    HW2 9299   9.751  12.059   4.676  1.9289  0.1871  0.7529
34232SOL     OW 9300   2.864   3.918   4.013  0.1247  0.5014 -0.3861
34232SOL    HW1 9301   2.942   3.870   3.984  0.3021  0.4753  0.1223
34232SOL    HW2 9302   2.791   3.859   3.992  0.3177  0.1399 -0.0401
34233SOL     OW 9303   2.848   3.931   4.275 -0.0601  0.3899 -0.0505
34233SOL    HW1 9304   2.868   3.840   4.298 -0.2830  0.6163  1.0733
34233SOL    HW2 9305   2.855   3.933   4.179  1.0103 -0.5524 -0.0113
34234SOL     OW 9306   2.456   0.599   6.189  0.3010  0.4080 -0.0771
34234SOL    HW1 9307   2.492   0.625   6.104  0.3083 -2.6800 -1.1542
34234SOL    HW2 9308   2.362   0.589   6.173  0.5305 -2.0705 -0.4089
34235SOL     OW 9309   8.049   0.215   0.782  0.5520  0.0448 -0.3462
34235SOL    HW1 9310   7.982   0.189   0.718 -0.3889  1.9611 -0.2251
34235SOL    HW2 9311   8.020   0.176   0.864 -0.2914  0.6221 -0.3528
34236SOL     OW 9312  10.648   6.556   1.717  0.4416 -0.1071  0.1114
34236SOL    HW1 9313  10.664   6.464   1.693 -0.8750  0.0136 -1.3231
34236SOL    HW2 9314  10.568   6.553   1.771  1.4229  0.0326  1.6542
34237SOL     OW 9315   9.027  11.713   3.460  0.2251 -0.1455  0.4535
34237SOL    HW1 9316   8.959  11.654   3.494 -0.4039 -0.9613 -2.0029
34237SOL    HW2 9317   9.091  11.654   3.420  0.7394  0.7716 -0.1036
34238SOL     OW 9318   6.524   3.863   0.251 -0.0730 -0.2087 -0.5104
34238SOL    HW1 9319   6.474   3.833   0.326  1.8649  1.2005  1.4951
34238SOL    HW2 9320   6.523   3.959   0.258  0.9772 -0.0794 -1.7007
34239SOL     OW 9321   2.900   7.124   3.163 -0.3714 -0.0618 -0.2171
34239SOL    HW1 9322   2.842   7.072   3.107 -0.7289 -1.0085  0.9858
34239SOL    HW2 9323   2.879   7.096   3.252 -1.5766  3.1534  0.6451
34240SOL     OW 9324   1.641   6.372   7.884 -0.3853  0.4514 -0.1015
34240SOL    HW1 9325   1.559   6.419   7.899 -0.5004  0.1172  0.3430
34240SOL    HW2 9326   1.640   6.301   7.948  0.1047  0.2542 -0.3066
34241SOL     OW 9327   3.924   6.269   0.702 -0.0946  0.2584 -0.2612
34241SOL    HW1 9328   3.915   6.359   0.672  2.7039  0.6693 -0.1200
34241SOL    HW2 9329   3.866   6.218   0.645 -2.1675  2.1621  0.0383
34242SOL     OW 9330   8.995   3.102   5.234  0.4201  0.2427  0.8198
34242SOL    HW1 9331   8.907   3.140   5.238  0.2232 -0.0161 -0.6528
34242SOL    HW2 9332   9.054   3.177   5.239  0.0537  0.6718 -0.8405
34243SOL     OW 9333   9.718   2.290   4.443  0.2063 -0.9618 -0.2953
34243SOL    HW1 9334   9.731   2.251   4.356  0.2532  2.5817 -2.0538
34243SOL    HW2 9335   9.785   2.249   4.498  0.2205 -3.2777 -1.8830
34244SOL     OW 9336   7.246  11.068   5.689 -0.5172 -0.2272  0.6387
34244SOL    HW1 9337   7.188  11.047   5.616  1.4565  0.2094 -1.1962
34244SOL    HW2 9338   7.284  11.153   5.665  1.4157 -0.8334  1.3220
34245SOL     OW 9339   8.839   0.616   8.806  0.2604  0.4334  0.1410
34245SOL    HW1 9340   8.786   0.541   8.834  0.8263 -0.1183 -0.2376
34245SOL    HW2 9341   8.780   0.667   8.750 -0.0943  0.2040  0.2996
34246SOL     OW 9342  10.961   2.415   2.759 -0.5527  0.2303 -0.3433
34246SOL    HW1 9343  10.900   2.356   2.715  0.0764 -2.0719  1.6404
34246SOL    HW2 9344  11.044   2.368   2.758  0.3067  1.6719  0.2191
34247SOL     OW 9345   0.777   4.354   6.932  0.0713  0.3793 -0.3761
34247SOL    HW1 9346   0.681   4.363   6.930  0.0065 -0.2090 -0.0172
34247SOL    HW2 9347   0.808   4.441   6.957 -0.4231  0.3114  0.5228
34248SOL     OW 9348   7.547   3.547   0.085  0.6298  0.0099  0.3708
34248SOL    HW1 9349   7.566   3.481   0.151 -0.4116 -1.3606 -0.6258
34248SOL    HW2 9350   7.577   3.507   0.003  0.5559  1.0480 -0.1702
34249SOL     OW 9351   6.799   5.505  12.326  0.3248  0.0753 -0.3964
34249SOL    HW1 9352   6.746   5.459  12.391  1.1443 -0.1494  0.1280
34249SOL    HW2 9353   6.799   5.596  12.356  1.0344 -0.0979  0.1651
34250SOL     OW 9354   6.014   6.672   4.943  0.0908 -0.0671  0.0056
34250SOL    HW1 9355   5.942   6.624   4.983  1.1676 -0.8114  1.0899
34250SOL    HW2 9356   5.978   6.760   4.929 -0.7750 -0.1841  1.2908
34251SOL     OW 9357   2.835   3.816   1.329 -0.0447  0.2385 -0.1527
34251SOL    HW1 9358   2.751   3.858   1.344 -0.2993 -0.7040  1.3190
34251SOL    HW2 9359   2.825   3.729   1.368  2.2083  0.7729  1.8446
34252SOL     OW 9360  12.593  11.660   5.589 -0.4051 -0.2300  0.7515
34252SOL    HW1 9361  12.688  11.671   5.590 -0.5730  1.7013  2.6042
34252SOL    HW2 9362  12.566  11.691   5.503  0.3943  2.7983  1.4657
34253SOL     OW 9363   7.046   6.752   2.349  0.0273 -0.0201 -0.0059
34253SOL    HW1 9364   7.000   6.698   2.284 -0.9850  2.0244 -1.0672
34253SOL    HW2 9365   7.012   6.722   2.433  0.2705 -1.7206 -0.4724
34254SOL     OW 9366   2.726   6.722   7.251 -0.0622  0.3900  0.0350
34254SOL    HW1 9367   2.690   6.679   7.174  0.2247  2.5634 -1.4255
34254SOL    HW2 9368   2.652   6.771   7.288 -0.0262 -0.0595  0.7142
34255SOL     OW 9369   0.160   5.875   6.150  0.2740  0.1919 -0.0170
34255SOL    HW1 9370   0.253   5.883   6.170  0.4678  1.8703 -1.3517
34255SOL    HW2 9371   0.121   5.837   6.229  1.6811  1.9875  1.6438
34256SOL     OW 9372   8.274  12.208   3.650  0.2266  0.0773  0.1799
34256SOL    HW1 9373   8.217  12.278   3.618  1.9860  0.9942 -1.0821
34256SOL    HW2 9374   8.333  12.252   3.712  1.7638 -0.0899 -1.0976
34257SOL     OW 9375  10.456  11.229  12.197  0.0243  0.5014  0.3582
34257SOL    HW1 9376  10.451  11.147  12.148 -0.9775 -0.6600  2.3216
34257SOL    HW2 9377  10.496  11.206  12.280  3.7182  2.8307 -0.5301
34258SOL     OW 9378   0.257   5.311   5.658  0.3336  0.1714  0.3727
34258SOL    HW1 9379   0.183   5.263   5.697 -1.2136  2.6821  0.8015
34258SOL    HW2 9380   0.329   5.296   5.719 -0.1572 -1.3404  0.6310
34259SOL     OW 9381   3.472   0.792   7.195  0.1906  0.0144  0.1280
34259SOL    HW1 9382   3.434   0.714   7.234  0.9929 -0.1300  0.6369
34259SOL    HW2 9383   3.499   0.764   7.107 -1.1792  0.2164 -0.3792
34260SOL     OW 9384   7.520   5.536   9.612 -0.0349  0.2070  0.3085
34260SOL    HW1 9385   7.599   5.584   9.587  0.2848 -0.4697 -0.0156
34260SOL    HW2 9386   7.552   5.463   9.664 -0.4186 -0.2487 -0.0881
34261SOL     OW 9387  10.924  11.711   0.847 -0.0501  0.1083  0.4738
34261SOL    HW1 9388  10.971  11.702   0.765 -0.6859  1.6815 -0.0985
34261SOL    HW2 9389  10.878  11.627   0.858  0.0688 -0.1264 -0.7524
34262SOL     OW 9390   4.908   3.606   6.092  0.5036 -0.1291 -0.3880
34262SOL    HW1 9391   4.891   3.634   6.182  2.1448 -0.1931 -0.0229
34262SOL    HW2 9392   4.909   3.510   6.097  2.2043 -0.1404 -0.0877
34263SOL     OW 9393   1.325   1.048   5.934  0.4923 -0.2249  0.2035
34263SOL    HW1 9394   1.263   1.116   5.908  1.7103  0.8699  0.0661
34263SOL    HW2 9395   1.278   0.997   6.001 -1.5441 -1.1633 -1.8185
34264SOL     OW 9396   5.419   6.614   8.186  0.7225  0.4243  0.1685
34264SOL    HW1 9397   5.475   6.673   8.137 -0.7971  0.8009 -1.2011
34264SOL    HW2 9398   5.463   6.530   8.183  1.6739  0.9236 -0.0399
34265SOL     OW 9399   3.127   4.982  10.970 -0.0908  0.4862  0.4118
34265SOL    HW1 9400   3.095   5.066  11.001  1.9623  1.3477  0.4048
34265SOL    HW2 9401   3.195   5.004  10.906  0.6979 -1.1469  0.6255
34266SOL     OW 9402   2.945   2.048   3.011 -0.2650  0.3240  0.4123
34266SOL    HW1 9403   2.912   2.008   2.930 -0.8660  1.1529  0.2356
34266SOL    HW2 9404   3.008   1.985   3.045  2.1711  1.1738 -2.1676
34267SOL     OW 9405   5.766   0.542   1.982  0.2458 -0.0408 -0.2855
34267SOL    HW1 9406   5.792   0.513   1.895  1.4314  0.9268 -0.2794
34267SOL    HW2 9407   5.671   0.528   1.984 -0.0517  1.3140 -2.2744
34268SOL     OW 9408  11.851   2.235   2.610  0.0396  1.0273  0.7798
34268SOL    HW1 9409  11.914   2.303   2.635 -0.1402  1.2285  0.6924
34268SOL    HW2 9410  11.789   2.281   2.554  0.0831  0.7193  0.4818
34269SOL     OW 9411  12.447   5.635   8.328 -0.2378  0.0567  0.0007
34269SOL    HW1 9412  12.499   5.594   8.259  0.3487 -2.6240  1.8579
34269SOL    HW2 9413  12.357   5.632   8.295  0.0574 -0.9754 -0.7608
34270SOL     OW 9414  11.184   8.375   1.679  0.5741  0.1280  0.0273
34270SOL    HW1 9415  11.199   8.460   1.722 -1.2916  1.3232 -1.5216
34270SOL    HW2 9416  11.110   8.337   1.726  0.5441 -0.0225 -0.1433
34271SOL     OW 9417  11.769   0.053   7.518 -0.0628 -0.4221  0.4563
34271SOL    HW1 9418  11.781   0.006   7.435  1.0733 -0.8537  0.8529
34271SOL    HW2 9419  11.850   0.038   7.566  0.3556  1.9936  0.6043
34272SOL     OW 9420   1.703   6.035  10.842 -0.0389 -0.1235 -0.9079
34272SOL    HW1 9421   1.659   6.111  10.879  0.8420 -0.5978  1.2416
34272SOL    HW2 9422   1.648   6.009  10.768 -2.5904  0.1319  0.7922
34273SOL     OW 9423  10.377   7.760   5.470  0.0926  0.2740  0.0570
34273SOL    HW1 9424  10.407   7.834   5.417  1.6104  0.0008  0.4899
34273SOL    HW2 9425  10.427   7.685   5.438 -0.8354 -0.4100  0.1756
34274SOL     OW 9426   1.029   1.808  12.125  0.1287  0.2321 -0.1106
34274SOL    HW1 9427   1.067   1.891  12.096 -0.1344 -0.2341 -1.9837
34274SOL    HW2 9428   1.065   1.743  12.064 -1.4398 -0.6426 -0.1656
34275SOL     OW 9429   9.234   5.233   0.659 -0.6996  0.0032 -0.0004
34275SOL    HW1 9430   9.170   5.176   0.702 -3.6741  2.3233 -1.0556
34275SOL    HW2 9431   9.318   5.205   0.696 -1.9802 -4.3800  0.2211
34276SOL     OW 9432  11.430   3.453  12.776 -0.1262  0.0787  0.7123
34276SOL    HW1 9433  11.453   3.384  12.714  1.3966 -0.6924  2.0501
34276SOL    HW2 9434  11.348   3.424  12.815 -0.7314  0.2313 -0.4055
34277SOL     OW 9435   2.383   5.622   9.102 -0.2024  0.0166  0.3020
34277SOL    HW1 9436   2.434   5.606   9.022 -2.1097 -1.5546 -0.6889
34277SOL    HW2 9437   2.366   5.535   9.137 -0.6315  0.6210  1.6442
34278SOL     OW 9438   9.305  11.536   5.864  0.1847 -0.2199 -0.0536
34278SOL    HW1 9439   9.380  11.478   5.847  0.2338 -0.6167  1.4473
34278SOL    HW2 9440   9.263  11.499   5.941  0.5133  2.0283  1.2740
34279SOL     OW 9441   7.992   5.803   9.177 -0.2314  0.1645 -0.6895
34279SOL    HW1 9442   8.057   5.747   9.220 -0.6057  0.9848  1.0601
34279SOL    HW2 9443   7.998   5.781   9.084  0.6783 -1.6694 -0.2383
34280SOL     OW 9444   2.549  11.546  12.001  0.3549 -0.2165 -0.1433
34280SOL    HW1 9445   2.488  11.475  12.020  0.3938 -0.5814 -1.2745
34280SOL    HW2 9446   2.612  11.507  11.940  2.1427 -0.0562  1.5104
34281SOL     OW 9447  11.246   7.004   0.637 -0.2098  0.6159  0.3264
34281SOL    HW1 9448  11.334   6.966   0.632 -0.7284 -0.6471  0.4669
34281SOL    HW2 9449  11.195   6.938   0.683 -0.8181  2.1317  1.9160
34282SOL     OW 9450   8.407  10.192   0.360  0.2029  0.0156 -0.5832
34282SOL    HW1 9451   8.357  10.120   0.322  1.2764 -1.0916  0.0222
34282SOL    HW2 9452   8.494  10.184   0.322  0.3611  0.9687 -0.4565
34283SOL     OW 9453  10.171   1.485  10.194 -0.0323 -0.6724  0.0386
34283SOL    HW1 9454  10.169   1.401  10.240  1.5280 -0.9712 -0.3898
34283SOL    HW2 9455  10.082   1.519  10.204  0.0156 -1.0484  2.6722
34284SOL     OW 9456   3.722   6.398   4.322  0.0985  0.3382  0.0869
34284SOL    HW1 9457   3.796   6.444   4.362 -0.3805  1.6024 -0.4418
34284SOL    HW2 9458   3.703   6.446   4.242 -0.2901 -0.9233 -0.6136
34285SOL     OW 9459   1.727   7.997   4.034  0.0314  0.2875 -0.2657
34285SOL    HW1 9460   1.719   8.040   3.948  0.6994  2.5518  0.7186
34285SOL    HW2 9461   1.648   7.943   4.041  0.2400 -0.3951 -2.5129
34286SOL     OW 9462  11.383   4.381   7.473  0.4863 -0.1725 -0.1148
34286SOL    HW1 9463  11.471   4.347   7.459 -0.1593 -1.6636 -0.7343
34286SOL    HW2 9464  11.328   4.329   7.415 -0.7975  0.7972  0.1978
34287SOL     OW 9465   6.992   1.380   5.924 -0.0039 -0.2362 -0.4017
34287SOL    HW1 9466   7.066   1.441   5.913 -0.3239  0.1222 -0.5867
34287SOL    HW2 9467   6.945   1.385   5.841 -0.1246 -0.6199 -0.3573
34288SOL     OW 9468  11.485   0.734  12.444 -1.1874 -0.2151 -1.1628
34288SOL    HW1 9469  11.439   0.817  12.430  0.4784  0.8625 -0.5498
34288SOL    HW2 9470  11.571   0.747  12.405 -0.2455 -0.9841  0.5414
34289SOL     OW 9471   0.995   2.291   5.050 -0.1753  0.2905  0.1067
34289SOL    HW1 9472   1.039   2.233   4.988 -0.8727  2.2007 -2.3661
34289SOL    HW2 9473   0.910   2.249   5.066  0.5485 -0.9156  0.9262
34290SOL     OW 9474   0.385  10.112   8.628  1.0777  0.1616 -0.1897
34290SOL    HW1 9475   0.430  10.173   8.686  0.6124  1.0872 -0.7831
34290SOL    HW2 9476   0.421  10.026   8.651 -0.4089  0.1967  2.7809
34291SOL     OW 9477  12.002   2.733   7.723 -0.3673  0.2498 -0.0868
34291SOL    HW1 9478  11.990   2.639   7.737  1.2271  0.3640  2.7927
34291SOL    HW2 9479  11.965   2.774   7.801  0.3711  1.9086 -0.5611
34292SOL     OW 9480   0.628  10.740   2.995  0.2306  0.9564 -0.0864
34292SOL    HW1 9481   0.662  10.679   2.929  0.6201  1.1857 -0.1015
34292SOL    HW2 9482   0.607  10.819   2.946 -1.4378  0.4295 -0.2716
34293SOL     OW 9483   3.565   2.337  10.271 -0.3617  0.2291 -0.6510
34293SOL    HW1 9484   3.527   2.318  10.357 -0.1464 -1.6648 -0.9276
34293SOL    HW2 9485   3.659   2.334  10.284 -0.3154 -0.9860 -1.0945
34294SOL     OW 9486  12.722   1.412   8.737 -0.2568  0.6884 -0.1751
34294SOL    HW1 9487  12.805   1.430   8.780 -0.6510 -0.6665  1.2332
34294SOL    HW2 9488  12.657   1.461   8.788 -0.6128 -0.2378  0.2959
34295SOL     OW 9489   8.240   6.083   8.791  0.0904  0.4157 -0.4941
34295SOL    HW1 9490   8.173   6.016   8.777 -1.2745  0.9701  2.5278
34295SOL    HW2 9491   8.208   6.160   8.743 -0.3482  0.0636 -0.7684
34296SOL     OW 9492   8.339  12.359   7.140 -0.2968  0.1151 -0.5019
34296SOL    HW1 9493   8.270  12.370   7.076 -0.3944  0.4894 -0.3345
34296SOL    HW2 9494   8.349  12.445   7.180  0.4775  0.1486 -0.7420
34297SOL     OW 9495   3.770   9.035   1.662  0.3657  0.1631  0.1010
34297SOL    HW1 9496   3.712   9.097   1.619 -0.5160 -0.0293  0.9655
34297SOL    HW2 9497   3.858   9.066   1.642 -0.0486  1.7702  0.5863
34298SOL     OW 9498   2.596   9.618   8.301 -0.6686 -0.3519 -0.5104
34298SOL    HW1 9499   2.642   9.667   8.233  0.2198 -0.2641  0.1472
34298SOL    HW2 9500   2.550   9.549   8.253 -0.1043 -0.2578 -1.2079
34299SOL     OW 9501   3.547   5.930   9.644  0.1888  0.6219 -0.3678
34299SOL    HW1 9502   3.529   5.842   9.611  1.5848 -0.6238  1.9115
34299SOL    HW2 9503   3.617   5.963   9.588 -0.9510  0.7126 -1.8098
34300SOL     OW 9504   7.002  12.197   3.891  0.3034  0.3968 -0.0292
34300SOL    HW1 9505   7.032  12.165   3.977 -0.5021  3.9160  1.7367
34300SOL    HW2 9506   7.082  12.205   3.839  0.6027 -3.9986 -0.6631
34301SOL     OW 9507  11.024   5.422   3.430  0.0624 -0.1312  0.2150
34301SOL    HW1 9508  11.004   5.364   3.357 -0.8261  0.7391 -0.2558
34301SOL    HW2 9509  11.114   5.449   3.416  0.5417 -1.5025  0.5264
34302SOL     OW 9510   6.545   5.702  10.175  0.1108 -0.2568 -0.5197
34302SOL    HW1 9511   6.631   5.688  10.216  0.4440  0.2023 -1.0463
34302SOL    HW2 9512   6.540   5.636  10.106 -0.6978 -1.4207  0.5989
34303SOL     OW 9513   5.854   2.547  12.105  0.2447  0.5412  0.1916
34303SOL    HW1 9514   5.782   2.536  12.043 -0.0508  1.7485  0.2925
34303SOL    HW2 9515   5.931   2.515  12.059 -0.4717 -1.7596  0.4531
34304SOL     OW 9516   1.684   9.677   1.070  0.1061 -0.1821 -0.4849
34304SOL    HW1 9517   1.659   9.661   0.980 -0.0522 -0.6111 -0.3651
34304SOL    HW2 9518   1.780   9.673   1.069  0.0744 -1.0562 -0.4745
34305SOL     OW 9519  11.095   5.615   3.205  0.1596 -0.4258 -0.3610
34305SOL    HW1 9520  11.123   5.577   3.288 -0.6216  0.7822  0.4839
34305SOL    HW2 9521  11.000   5.605   3.205  0.1606 -0.5044 -1.1692
34306SOL     OW 9522   8.178   2.772  12.588  0.5998  0.3205 -0.5334
34306SOL    HW1 9523   8.194   2.700  12.526  0.8688  1.0299 -1.3219
34306SOL    HW2 9524   8.244   2.837  12.564 -1.0869  1.7866 -1.3762
34307SOL     OW 9525   2.332   2.304   6.445  0.7825  0.2680  0.1055
34307SOL    HW1 9526   2.368   2.360   6.376  1.6505 -0.0778  0.2620
34307SOL    HW2 9527   2.290   2.364   6.506  1.7671  0.7503  0.3122
34308SOL     OW 9528   4.673   1.058   5.036 -0.0919  0.2006 -0.1785
34308SOL    HW1 9529   4.679   1.129   4.973 -0.9366  0.0832 -0.4137
34308SOL    HW2 9530   4.579   1.049   5.053  0.1774  1.7515  2.8575
34309SOL     OW 9531  11.429   9.010   8.564 -0.1854  0.5712  0.0187
34309SOL    HW1 9532  11.369   8.943   8.531 -1.0415  0.0485  2.3881
34309SOL    HW2 9533  11.515   8.983   8.532 -1.0022  0.5997 -2.3561
34310SOL     OW 9534  11.762   8.165   8.908 -0.1241  0.3136  0.1677
34310SOL    HW1 9535  11.836   8.151   8.849 -0.3072  0.6481 -0.1456
34310SOL    HW2 9536  11.709   8.232   8.865 -0.4739  0.2666  0.5155
34311SOL     OW 9537   3.409   5.612   3.830 -0.3232 -0.1826 -0.2026
34311SOL    HW1 9538   3.489   5.595   3.779 -0.2194  1.1803 -0.5302
34311SOL    HW2 9539   3.389   5.704   3.812 -1.4102 -0.2398  0.6700
34312SOL     OW 9540  11.505   1.382   2.969 -0.5860 -0.4554  0.2535
34312SOL    HW1 9541  11.597   1.408   2.965 -0.6183 -0.4755 -1.5622
34312SOL    HW2 9542  11.478   1.405   3.058  0.7586  0.9921  0.3454
34313SOL     OW 9543   2.090   1.499   0.205 -0.7899  0.0680  0.0213
34313SOL    HW1 9544   2.037   1.575   0.229 -2.1458 -0.0643 -2.2800
34313SOL    HW2 9545   2.035   1.424   0.227 -0.2507 -0.2119  0.4610
34314SOL     OW 9546   7.058  11.394   9.533  0.6752  0.1769 -0.1428
34314SOL    HW1 9547   7.006  11.411   9.611  0.2222 -2.8962  0.3493
34314SOL    HW2 9548   7.129  11.338   9.564  0.4390 -1.1688 -1.9353
34315SOL     OW 9549   4.438   7.131   3.495 -0.1013 -0.1536 -0.5456
34315SOL    HW1 9550   4.532   7.138   3.476  0.3793  4.1097  2.0624
34315SOL    HW2 9551   4.398   7.106   3.411  3.2537 -2.3007 -1.7132
34316SOL     OW 9552  11.049   7.240   4.005 -0.1224 -0.1498 -0.4000
34316SOL    HW1 9553  11.022   7.306   3.942 -0.6361  0.1871  0.1562
34316SOL    HW2 9554  11.145   7.239   4.000 -0.1113  0.6211 -0.4338
34317SOL     OW 9555  11.054  12.545   7.866 -0.1489 -0.6687 -0.4781
34317SOL    HW1 9556  11.112  12.469   7.862  0.4317 -0.2383 -0.3529
34317SOL    HW2 9557  11.113  12.620   7.872 -0.7209 -0.2329 -0.1829
34318SOL     OW 9558   9.518   4.143  11.256  0.6897  0.2932  0.2642
34318SOL    HW1 9559   9.435   4.125  11.300  1.1463 -0.7252  0.7401
34318SOL    HW2 9560   9.545   4.059  11.218  2.0312  0.3254  1.0522
34319SOL     OW 9561   5.342   2.710   0.159 -0.1828  0.0379  0.5915
34319SOL    HW1 9562   5.285   2.786   0.150  0.6576  0.5662 -0.4215
34319SOL    HW2 9563   5.284   2.635   0.142 -0.6198  0.5531 -0.2944
34320SOL     OW 9564   3.926   0.320   9.148  0.0132  0.7503  0.2273
34320SOL    HW1 9565   3.986   0.254   9.114 -0.9745  0.3702 -0.8388
34320SOL    HW2 9566   3.862   0.333   9.078  1.4028  4.5020 -0.5925
34321SOL     OW 9567   3.777  12.154   1.961  0.1728  0.1224  0.2818
34321SOL    HW1 9568   3.852  12.197   2.003 -0.6056 -0.0659  1.9718
34321SOL    HW2 9569   3.710  12.222   1.958 -0.2566 -0.2762  0.7128
34322SOL     OW 9570   3.850   0.046  10.717  0.3419  0.3402 -0.5834
34322SOL    HW1 9571   3.868  -0.003  10.637  1.2650  0.4774 -0.4746
34322SOL    HW2 9572   3.780  -0.004  10.761  0.0892  0.0624 -1.2851
34323SOL     OW 9573   8.387   3.790   1.260 -0.4940  0.7838  0.7021
34323SOL    HW1 9574   8.446   3.830   1.196 -0.1251  0.0282  0.5453
34323SOL    HW2 9575   8.301   3.827   1.241 -0.1520  1.5470  0.6238
34324SOL     OW 9576  11.630   4.945  10.945 -0.3738  0.1282 -0.0431
34324SOL    HW1 9577  11.649   4.982  10.858 -0.5229  0.1357 -0.0732
34324SOL    HW2 9578  11.548   4.987  10.970 -0.7308 -0.4483 -0.2272
34325SOL     OW 9579   9.588   1.026   1.562  0.6592 -0.3141 -0.4961
34325SOL    HW1 9580   9.569   1.033   1.656 -2.6519 -0.0184 -1.0529
34325SOL    HW2 9581   9.502   1.024   1.521  1.9963 -1.5291 -3.4998
34326SOL     OW 9582   0.997   7.155  10.212 -0.5119  0.0751 -0.2593
34326SOL    HW1 9583   1.092   7.169  10.206 -0.6272  0.7436 -0.6245
34326SOL    HW2 9584   0.988   7.073  10.259  0.3093 -1.2479 -2.2885
34327SOL     OW 9585   9.353   8.047  10.060 -0.3662  0.0625 -0.4783
34327SOL    HW1 9586   9.265   8.063  10.027 -0.3234  1.3855 -0.0161
34327SOL    HW2 9587   9.340   8.022  10.151 -0.2558  0.6960 -0.2817
34328SOL     OW 9588   3.641   2.308   8.017  0.5154  0.0799  0.1779
34328SOL    HW1 9589   3.576   2.371   8.050  0.7790  0.0760  0.7125
34328SOL    HW2 9590   3.683   2.353   7.944  0.1217  0.1981  0.0188
34329SOL     OW 9591   9.825   9.141   2.404 -0.2439 -0.2093  0.7546
34329SOL    HW1 9592   9.738   9.141   2.444 -0.7025 -0.3624 -0.2010
34329SOL    HW2 9593   9.808   9.144   2.310  0.7637 -2.2003  0.4668
34330SOL     OW 9594   3.998   3.462  10.707 -0.4312  0.3600 -0.1017
34330SOL    HW1 9595   3.925   3.490  10.762 -0.1504  1.7677 -0.4054
34330SOL    HW2 9596   3.976   3.373  10.680 -1.7985  0.5941  0.1950
34331SOL     OW 9597  11.139  11.134   2.426 -0.2665  0.1198  0.2145
34331SOL    HW1 9598  11.217  11.183   2.452  0.4105  0.0539 -1.5452
34331SOL    HW2 9599  11.070  11.168   2.482  0.6899  1.3499  0.7103
34332SOL     OW 9600   6.692   2.637  10.960  0.2367  0.0421 -0.2619
34332SOL    HW1 9601   6.670   2.667  10.872 -0.4124  0.0115 -0.1115
34332SOL    HW2 9602   6.755   2.701  10.993  0.0081  0.3948 -0.5140
34333SOL     OW 9603  12.350   0.378  11.109 -0.6959 -0.0772 -0.2478
34333SOL    HW1 9604  12.273   0.403  11.161 -0.0439 -0.1522  0.7792
34333SOL    HW2 9605  12.417   0.357  11.174 -0.4232 -2.0300 -1.0981
34334SOL     OW 9606  11.448   1.218   4.615  0.4820 -0.3367  0.1295
34334SOL    HW1 9607  11.433   1.307   4.584 -2.0198 -0.4201  0.8471
34334SOL    HW2 9608  11.462   1.167   4.535 -0.5535  0.3155 -0.4991
34335SOL     OW 9609  10.043   7.024   9.616 -0.7903  0.0750 -0.0593
34335SOL    HW1 9610  10.105   7.071   9.561  0.0403 -0.0963  0.7022
34335SOL    HW2 9611   9.965   7.014   9.562 -0.9571  2.2155 -0.2675
34336SOL     OW 9612   3.118   1.299   5.066 -0.3664 -0.3593 -0.0110
34336SOL    HW1 9613   3.188   1.244   5.030  0.0536  0.8450 -1.1486
34336SOL    HW2 9614   3.042   1.279   5.011 -0.4656 -0.4727  0.1675
34337SOL     OW 9615   1.526  12.332   3.659  0.5855 -0.0662 -0.1918
34337SOL    HW1 9616   1.622  12.325   3.663  0.5937 -0.5323 -1.0146
34337SOL    HW2 9617   1.505  12.321   3.566 -0.4157 -2.1670  0.2126
34338SOL     OW 9618   3.418   2.775   4.386  0.0925 -0.3678  0.1863
34338SOL    HW1 9619   3.348   2.758   4.323  0.7097 -1.8961 -0.1241
34338SOL    HW2 9620   3.383   2.845   4.442 -0.7207  0.5775 -1.4203
34339SOL     OW 9621   7.522  12.202   1.354 -0.3192  0.3121 -0.1289
34339SOL    HW1 9622   7.511  12.115   1.315 -1.8001 -0.6847  2.2914
34339SOL    HW2 9623   7.552  12.185   1.443 -0.6996  2.2842  0.4273
34340SOL     OW 9624   6.622   7.443   6.729 -0.6497 -0.0972 -0.0607
34340SOL    HW1 9625   6.555   7.390   6.774 -0.1560 -1.3724 -0.7754
34340SOL    HW2 9626   6.701   7.389   6.733 -0.2181  0.4420 -1.1249
34341SOL     OW 9627   5.201   7.898  10.954 -0.7097  0.0571 -0.2959
34341SOL    HW1 9628   5.108   7.914  10.938 -0.4795  1.9986  0.0045
34341SOL    HW2 9629   5.206   7.806  10.978 -2.4006 -0.3650 -1.3752
34342SOL     OW 9630   7.093  10.101  12.471 -0.3971 -0.2535  0.1531
34342SOL    HW1 9631   7.015  10.062  12.433 -0.4202 -0.2043  0.1496
34342SOL    HW2 9632   7.063  10.143  12.551 -0.6247  0.8925 -0.5035
34343SOL     OW 9633   5.065   9.945  10.374  0.4808 -0.2387 -0.6603
34343SOL    HW1 9634   5.022  10.030  10.362  0.1316 -0.5853 -2.1085
34343SOL    HW2 9635   5.038   9.916  10.461 -1.9264 -0.2671 -1.3439
34344SOL     OW 9636   3.248   4.051   7.271 -0.0654 -0.4460 -0.3541
34344SOL    HW1 9637   3.305   4.128   7.262 -2.7158  1.5701 -1.0492
34344SOL    HW2 9638   3.280   3.990   7.204  1.0930  0.6971 -0.9055
34345SOL     OW 9639   0.038   8.016  12.532 -0.5240 -0.1960 -0.4678
34345SOL    HW1 9640  -0.056   8.000  12.524 -0.8014  1.1217 -0.0934
34345SOL    HW2 9641   0.070   7.944  12.586 -2.0738  1.4047  2.8625
34346SOL     OW 9642   2.671  12.044   4.818 -0.5882  0.1919  0.7074
34346SOL    HW1 9643   2.601  12.109   4.816  0.8503  1.8065  0.0771
34346SOL    HW2 9644   2.626  11.960   4.826 -2.6010  1.1335 -0.1013
34347SOL     OW 9645  10.615   4.739   9.182  0.6656 -0.0816  0.9264
34347SOL    HW1 9646  10.607   4.772   9.272  0.5622  0.5232  0.6990
34347SOL    HW2 9647  10.675   4.665   9.189  1.7936  0.8313  1.2880
34348SOL     OW 9648   6.147   9.340   3.919 -0.1464  0.1389  0.0007
34348SOL    HW1 9649   6.078   9.293   3.965 -0.2322 -0.3836 -0.6443
34348SOL    HW2 9650   6.224   9.330   3.974 -0.7701  1.5030  1.1998
34349SOL     OW 9651   1.291   8.383  12.501  0.3887  0.1437 -0.0352
34349SOL    HW1 9652   1.248   8.425  12.427  1.3908 -0.6078 -1.0799
34349SOL    HW2 9653   1.296   8.451  12.568 -0.2843  0.9202 -0.7545
34350SOL     OW 9654   9.459   9.526   0.261  0.7598  0.0840  0.2557
34350SOL    HW1 9655   9.395   9.491   0.199  0.3138  1.5439 -0.1334
34350SOL    HW2 9656   9.543   9.492   0.231  0.3249 -0.9225  0.1063
34351SOL     OW 9657   1.626  12.683   0.678  0.1852 -0.4299  0.2899
34351SOL    HW1 9658   1.641  12.680   0.584  1.3169  2.0349  0.3047
34351SOL    HW2 9659   1.713  12.679   0.718  0.1827  2.6715  0.9311
34352SOL     OW 9660   6.066   8.915  12.418 -0.3795  0.2200  0.4927
34352SOL    HW1 9661   6.104   8.929  12.331 -1.3974  2.7050  0.3722
34352SOL    HW2 9662   6.003   8.844  12.405 -1.2706  1.2248 -1.1044
34353SOL     OW 9663   3.926   5.933   3.090 -0.0902  0.0071  0.6233
34353SOL    HW1 9664   4.020   5.917   3.098 -0.1441 -1.5814 -1.2188
34353SOL    HW2 9665   3.919   6.002   3.024 -0.2219  0.5847  1.2272
34354SOL     OW 9666   5.111   8.413   8.363  0.2563  0.0023 -0.1771
34354SOL    HW1 9667   5.177   8.383   8.301 -0.1346  1.3735 -1.3193
34354SOL    HW2 9668   5.159   8.429   8.444  1.1760  0.2024 -0.7552
34355SOL     OW 9669   7.843  11.855  12.473 -0.1353  0.1218  0.0036
34355SOL    HW1 9670   7.844  11.857  12.378  0.6954 -1.1690 -0.0318
34355SOL    HW2 9671   7.909  11.790  12.497  0.6996  1.4468  1.5074
34356SOL     OW 9672   6.458  11.147   3.762  0.2762  0.3102  0.6377
34356SOL    HW1 9673   6.405  11.112   3.691  0.6445  0.3237  0.3526
34356SOL    HW2 9674   6.395  11.175   3.828 -0.1727  1.7701 -0.3504
34357SOL     OW 9675   0.699   2.502   4.152 -0.2358 -0.5958 -0.3104
34357SOL    HW1 9676   0.636   2.429   4.155 -1.5352  0.3790 -2.1516
34357SOL    HW2 9677   0.674   2.558   4.225  0.1830 -1.4906  0.5506
34358SOL     OW 9678   0.794   4.162   8.901 -0.0772  0.1612 -0.0716
34358SOL    HW1 9679   0.864   4.177   8.965 -0.5554  1.0429  0.2733
34358SOL    HW2 9680   0.773   4.250   8.868 -2.4171  0.2228  1.3585
34359SOL     OW 9681   7.892   5.409   4.182  0.1572 -0.0734  0.0311
34359SOL    HW1 9682   7.984   5.381   4.186 -0.2584 -1.5489 -0.1091
34359SOL    HW2 9683   7.843   5.328   4.167 -1.3215  0.4585  1.6443
34360SOL     OW 9684   6.312   6.974  10.147  0.0232 -0.9861  0.1555
34360SOL    HW1 9685   6.246   7.042  10.131  1.0706 -0.3146 -1.5793
34360SOL    HW2 9686   6.261   6.892  10.149 -0.8570 -0.5566 -1.7867
34361SOL     OW 9687   5.584  12.011   8.360 -0.0777  0.7863  0.7470
34361SOL    HW1 9688   5.556  11.919   8.363  1.0999  0.4368  2.0051
34361SOL    HW2 9689   5.577  12.035   8.267  3.7229 -1.9562 -0.5347
34362SOL     OW 9690  12.396   3.035   3.566 -0.0547 -0.1071 -0.5017
34362SOL    HW1 9691  12.343   3.009   3.491  2.0239 -0.8668 -1.8136
34362SOL    HW2 9692  12.485   3.006   3.543  0.8999  0.9056  1.6491
34363SOL     OW 9693   2.240   2.150  12.419  0.3579 -0.0181  0.0538
34363SOL    HW1 9694   2.298   2.095  12.471  0.2611 -0.5474 -0.3862
34363SOL    HW2 9695   2.171   2.176  12.479  0.0751 -0.8824  0.1177
34364SOL     OW 9696   6.332   0.218   0.387  0.7575 -0.3380  0.1860
34364SOL    HW1 9697   6.306   0.180   0.471  0.0309  1.3575  0.7493
34364SOL    HW2 9698   6.417   0.177   0.369 -0.2043 -2.6032  0.4878
34365SOL     OW 9699  12.778   7.383   7.178  0.0404 -0.2022 -0.5211
34365SOL    HW1 9700  12.718   7.399   7.251 -0.9369  0.7114 -1.4884
34365SOL    HW2 9701  12.845   7.450   7.186  1.5958 -1.8379  1.1560
34366SOL     OW 9702   1.311   9.293   6.724  0.0682  0.3269 -0.2718
34366SOL    HW1 9703   1.235   9.235   6.728 -0.2281  0.6853 -0.6013
34366SOL    HW2 9704   1.342   9.298   6.814 -0.8063  0.8378  0.0094
34367SOL     OW 9705   4.650   2.558  10.680 -0.0940 -0.1910  0.7682
34367SOL    HW1 9706   4.654   2.609  10.761 -1.9877  0.8032  0.3096
34367SOL    HW2 9707   4.626   2.622  10.613 -0.9698 -1.4053 -0.1183
34368SOL     OW 9708   2.936   5.553   2.815  0.1800 -0.2742  0.5560
34368SOL    HW1 9709   2.932   5.458   2.805 -0.8215 -0.1148 -1.0557
34368SOL    HW2 9710   2.847   5.578   2.840  0.3574  0.2623  0.6663
34369SOL     OW 9711   5.476   6.819  11.509 -0.1118 -0.2134  0.3153
34369SOL    HW1 9712   5.481   6.827  11.604 -2.2641  0.3028  0.4547
34369SOL    HW2 9713   5.396   6.768  11.494  0.3830 -0.5936 -1.2179
34370SOL     OW 9714   4.401  12.222   0.071  0.0185 -0.3625 -0.0628
34370SOL    HW1 9715   4.486  12.253   0.041 -0.2287 -0.2672 -0.6960
34370SOL    HW2 9716   4.391  12.136   0.028 -1.4541  0.8780 -2.4317
34371SOL     OW 9717   2.039  11.868   6.011 -0.4154 -0.2209 -0.0656
34371SOL    HW1 9718   2.111  11.809   6.034  0.0382  1.2742  2.9499
34371SOL    HW2 9719   2.077  11.928   5.947  0.3462 -0.7741 -0.1512
34372SOL     OW 9720  10.087   6.781   6.383  0.5444  0.1221 -1.1366
34372SOL    HW1 9721  10.043   6.818   6.307  0.4860 -0.3735 -1.3395
34372SOL    HW2 9722  10.019   6.732   6.429  0.6492  0.1796 -0.9180
34373SOL     OW 9723  11.198   7.248   0.054  0.8149  0.9147 -0.1361
34373SOL    HW1 9724  11.175   7.241   0.147 -1.6958  1.2640 -0.6595
34373SOL    HW2 9725  11.249   7.169   0.036 -0.2982 -0.1309  1.1145
34374SOL     OW 9726   3.494   1.441  10.223  0.2258 -0.3438  0.3307
34374SOL    HW1 9727   3.562   1.397  10.275  0.1256  0.2178  0.9414
34374SOL    HW2 9728   3.412   1.399  10.250  0.1248  0.2381  0.9472
34375SOL     OW 9729   6.740   5.723   1.284 -0.6699 -0.3288  0.1379
34375SOL    HW1 9730   6.653   5.717   1.322 -0.1492  0.5622  1.5375
34375SOL    HW2 9731   6.799   5.732   1.359  0.7282 -1.7391 -0.7336
34376SOL     OW 9732   7.329  10.165  11.991  0.1810  0.4057  0.3118
34376SOL    HW1 9733   7.366  10.089  11.946  3.0219  2.1429 -0.5517
34376SOL    HW2 9734   7.352  10.152  12.083  0.2461 -0.0197  0.2363
34377SOL     OW 9735   1.983   5.700  12.686  0.0086  0.2583  0.1943
34377SOL    HW1 9736   2.006   5.752  12.608 -0.5893  1.5905  0.8760
34377SOL    HW2 9737   2.026   5.616  12.671  2.6913  1.5427 -0.0855
34378SOL     OW 9738   6.348   2.253   6.241  0.4750  0.3349 -0.0715
34378SOL    HW1 9739   6.349   2.345   6.269  2.0970  0.1932  0.4426
34378SOL    HW2 9740   6.280   2.249   6.174  1.3342  2.2453 -1.1293
34379SOL     OW 9741   6.592  11.962  10.409 -0.3040 -0.5573 -0.7777
34379SOL    HW1 9742   6.500  11.983  10.420 -0.0829  0.2689 -0.4161
34379SOL    HW2 9743   6.611  11.986  10.318 -0.2438  0.0888 -0.5984
34380SOL     OW 9744  10.856   3.936   2.146  0.3508  0.0598  0.0313
34380SOL    HW1 9745  10.803   4.015   2.137  1.2599  0.7646  0.5947
34380SOL    HW2 9746  10.945   3.964   2.121  0.4822 -1.0786 -0.8859
34381SOL     OW 9747   5.950   9.175   7.498  0.3730 -0.2889  0.1320
34381SOL    HW1 9748   6.041   9.150   7.482  0.7553 -0.1851  2.0274
34381SOL    HW2 9749   5.948   9.204   7.589 -1.2354  1.2879 -0.3609
34382SOL     OW 9750   5.885   0.504  11.097 -0.5811  0.0141  0.3278
34382SOL    HW1 9751   5.794   0.532  11.086 -0.1675  1.1054 -0.5449
34382SOL    HW2 9752   5.906   0.460  11.014 -0.6117 -1.1666  0.9252
34383SOL     OW 9753   1.903   2.903   0.998  0.3556 -0.0818 -0.6190
34383SOL    HW1 9754   1.889   2.935   0.909  1.5701  3.8906  0.4200
34383SOL    HW2 9755   1.817   2.908   1.039 -0.7318 -4.0463 -1.9232
34384SOL     OW 9756   5.841   6.387   6.727 -0.5447  0.4770 -0.1081
34384SOL    HW1 9757   5.860   6.341   6.809 -2.4063 -0.1870 -0.0061
34384SOL    HW2 9758   5.920   6.375   6.674 -0.4157 -1.6008  0.4749
34385SOL     OW 9759  11.984   5.672  12.534  0.3712  0.0495  0.1657
34385SOL    HW1 9760  12.026   5.645  12.615  0.9616 -1.9350 -0.7336
34385SOL    HW2 9761  12.053   5.718  12.486  2.0603 -3.8620 -1.6419
34386SOL     OW 9762   4.662   1.536   6.124 -0.3306 -0.2112  0.0584
34386SOL    HW1 9763   4.606   1.562   6.051  0.1432 -2.8053 -1.3532
34386SOL    HW2 9764   4.602   1.505   6.192 -0.7049 -2.2445 -1.1404
34387SOL     OW 9765   2.863   1.837   4.395 -0.0513 -0.0604 -0.7240
34387SOL    HW1 9766   2.792   1.879   4.346 -0.6815 -1.5718 -1.1487
34387SOL    HW2 9767   2.908   1.783   4.331  1.1464  0.4392 -0.3274
34388SOL     OW 9768  12.314   6.255  10.332 -0.6293  0.3768 -0.2689
34388SOL    HW1 9769  12.225   6.268  10.300 -1.0964 -0.3655  0.6868
34388SOL    HW2 9770  12.309   6.175  10.385  0.8815 -0.4003 -1.2544
34389SOL     OW 9771   5.203   4.658   8.547  0.2551 -0.2114  0.2109
34389SOL    HW1 9772   5.191   4.642   8.641  1.1324 -1.1995  0.1822
34389SOL    HW2 9773   5.118   4.689   8.516  0.1598  0.8754  1.4680
34390SOL     OW 9774   5.920  10.564  10.338  0.3422  0.0232  0.2310
34390SOL    HW1 9775   5.844  10.560  10.396 -0.6868 -0.8824 -1.1275
34390SOL    HW2 9776   5.921  10.655  10.306  0.3409  0.2641  0.8970
34391SOL     OW 9777   2.903   5.312   7.275 -0.1156  0.0814 -0.6935
34391SOL    HW1 9778   2.932   5.226   7.244  0.0697 -0.8272  1.7266
34391SOL    HW2 9779   2.918   5.371   7.201  1.8101 -1.5585 -1.7238
34392SOL     OW 9780   3.442   5.728   5.596  0.8083  0.3077  0.3952
34392SOL    HW1 9781   3.369   5.789   5.590  1.0881  0.6031 -0.0123
34392SOL    HW2 9782   3.401   5.641   5.588  0.5249  0.4792 -0.0556
34393SOL     OW 9783   5.703   6.066   5.189  0.4119 -0.1637  0.0132
34393SOL    HW1 9784   5.612   6.079   5.160  1.5694  3.7120 -2.5600
34393SOL    HW2 9785   5.733   5.989   5.142 -0.6523  0.3847 -1.6269
34394SOL     OW 9786   5.471   4.891   7.054 -0.4469 -0.2796 -0.0744
34394SOL    HW1 9787   5.508   4.979   7.047  0.9028 -0.5941  2.1642
34394SOL    HW2 9788   5.467   4.874   7.148  0.8307 -3.2057 -0.4437
34395SOL     OW 9789   9.595   5.043  12.767  0.1671 -0.0382 -0.3322
34395SOL    HW1 9790   9.524   4.980  12.776  0.9077 -0.9884 -0.9701
34395SOL    HW2 9791   9.620   5.064  12.857 -1.1453  0.5988 -0.0889
34396SOL     OW 9792   4.120   0.982   0.681 -0.2318  0.3685 -0.5858
34396SOL    HW1 9793   4.039   1.003   0.727  0.6254 -0.9621  1.6427
34396SOL    HW2 9794   4.108   0.892   0.650  0.5665 -0.0412  0.2452
34397SOL     OW 9795   0.308   0.695   2.838  0.5546 -0.4278  0.2814
34397SOL    HW1 9796   0.296   0.657   2.751  0.1760  0.2811  0.0244
34397SOL    HW2 9797   0.384   0.753   2.829  0.9210 -0.8476  0.5909
34398SOL     OW 9798   0.822   0.902   3.765 -0.7373 -0.1884 -0.8131
34398SOL    HW1 9799   0.730   0.894   3.740 -0.6068 -2.0443 -0.8121
34398SOL    HW2 9800   0.859   0.964   3.702 -2.3245  1.9751  0.2283
34399SOL     OW 9801  10.664   8.694   7.079  0.7652  0.0045  0.2445
34399SOL    HW1 9802  10.715   8.625   7.121 -0.0585 -1.2213 -0.7020
34399SOL    HW2 9803  10.714   8.717   7.001 -0.3427 -1.6010 -0.9912
34400SOL     OW 9804  11.289   7.442   9.215 -0.0599  0.5568 -0.2610
34400SOL    HW1 9805  11.302   7.537   9.223  0.1480  0.5353 -0.3271
34400SOL    HW2 9806  11.301   7.408   9.304 -0.3820  0.6222 -0.1941
34401SOL     OW 9807   7.277   0.055   2.397 -0.3478  0.4997  0.3108
34401SOL    HW1 9808   7.233   0.002   2.330 -0.3102 -2.2222  2.2804
34401SOL    HW2 9809   7.263   0.008   2.479 -0.0957  3.5011  2.2459
34402SOL     OW 9810  10.935   5.937  11.559 -0.0828  0.0470 -0.3929
34402SOL    HW1 9811  10.844   5.957  11.584 -0.3406  0.0432 -1.2736
34402SOL    HW2 9812  10.928   5.904  11.469  0.7865 -0.0499 -0.4335
34403SOL     OW 9813   2.842   0.059  10.551 -0.2430  0.0983 -0.3209
34403SOL    HW1 9814   2.909  -0.008  10.563 -1.3221 -1.0028 -0.2781
34403SOL    HW2 9815   2.892   0.140  10.538  1.0869 -0.6707 -0.2373
34404SOL     OW 9816   5.084  12.717   7.645  0.3188 -0.2336  0.1085
34404SOL    HW1 9817   5.055  12.774   7.574  0.8763 -0.8517 -0.6336
34404SOL    HW2 9818   5.144  12.655   7.603 -0.0847 -1.2152  0.9399
34405SOL     OW 9819  10.614   2.520   3.440  0.6719 -0.2124 -0.1975
34405SOL    HW1 9820  10.529   2.489   3.470  0.3304  0.1924 -0.7157
34405SOL    HW2 9821  10.646   2.450   3.383 -0.4738  0.6814 -2.0346
34406SOL     OW 9822   3.194   6.020   8.518 -0.2126 -0.8849  0.5126
34406SOL    HW1 9823   3.120   6.071   8.552  2.4628  2.5327  1.8266
34406SOL    HW2 9824   3.222   5.966   8.592  2.5609  2.9039  2.5689
34407SOL     OW 9825   3.184  12.765   2.558 -0.0892  0.2439  0.2242
34407SOL    HW1 9826   3.247  12.720   2.502 -1.2407  1.2745 -2.0150
34407SOL    HW2 9827   3.119  12.697   2.580  0.8676 -0.4003  1.1651
34408SOL     OW 9828   9.880   9.681   0.758  0.2173 -0.2121  0.7297
34408SOL    HW1 9829   9.917   9.628   0.828 -0.1912 -0.0211  1.0923
34408SOL    HW2 9830   9.952   9.693   0.696  0.6732 -0.1099  1.2723
34409SOL     OW 9831   6.577   7.716   6.798 -0.2798 -0.0450 -0.1077
34409SOL    HW1 9832   6.568   7.765   6.716  0.2750  0.4079  0.0951
34409SOL    HW2 9833   6.613   7.632   6.772 -0.0357  0.1245 -0.3271
34410SOL     OW 9834   2.432   3.985   5.951  0.1847  0.0766 -0.1419
34410SOL    HW1 9835   2.366   4.047   5.920  1.2817  1.5907  0.4184
34410SOL    HW2 9836   2.421   3.908   5.895 -1.8832  0.3566 -0.2141
34411SOL     OW 9837   7.509   9.067   2.910  0.0571 -0.1596 -0.2474
34411SOL    HW1 9838   7.546   9.101   2.828 -1.0816 -0.4364 -0.9110
34411SOL    HW2 9839   7.420   9.103   2.912 -0.2504 -0.9243  0.3933
34412SOL     OW 9840  11.906   3.180   3.577  0.0944 -0.7114 -0.1678
34412SOL    HW1 9841  11.975   3.136   3.527 -0.1906  0.2284 -1.4321
34412SOL    HW2 9842  11.825   3.162   3.529 -0.2629 -0.2314  0.2407
34413SOL     OW 9843  11.527   1.697   3.960  0.4573  0.7245  0.1626
34413SOL    HW1 9844  11.547   1.669   4.049 -0.1657 -0.1430  0.0377
34413SOL    HW2 9845  11.432   1.710   3.960  0.3341 -0.1524 -0.6178
34414SOL     OW 9846   6.042   8.348   9.973 -0.3436  0.4670  0.2532
34414SOL    HW1 9847   6.102   8.372  10.044  0.0588  1.3920 -0.3731
34414SOL    HW2 9848   5.986   8.425   9.962  0.2582  0.7460 -1.0867
34415SOL     OW 9849   9.403   7.853  11.131 -0.1377  0.2722 -0.6126
34415SOL    HW1 9850   9.398   7.765  11.169 -0.3103  1.4709  2.4062
34415SOL    HW2 9851   9.494   7.862  11.104 -0.2219 -0.9722 -1.3944
34416SOL     OW 9852   5.431   8.032   2.695  0.0222 -0.6325 -0.6481
34416SOL    HW1 9853   5.513   7.989   2.672 -0.4331 -1.0024 -1.6698
34416SOL    HW2 9854   5.375   7.961   2.728  0.1829 -0.3464  0.2437
34417SOL     OW 9855   2.662   1.179   5.900  0.3870 -0.4764  0.2674
34417SOL    HW1 9856   2.577   1.144   5.872  0.4918 -1.6849  1.3511
34417SOL    HW2 9857   2.661   1.270   5.872 -0.4328 -0.9948 -1.5375
34418SOL     OW 9858   4.020   5.793   9.614  0.6010 -0.6274  0.0092
34418SOL    HW1 9859   4.049   5.703   9.627 -1.0180 -1.1784  0.0261
34418SOL    HW2 9860   4.001   5.799   9.521  1.8060  0.0770 -0.2185
34419SOL     OW 9861   3.146   0.521   1.791 -0.0345 -0.1326 -0.5424
34419SOL    HW1 9862   3.176   0.545   1.879 -0.5432 -0.7451 -0.1907
34419SOL    HW2 9863   3.111   0.432   1.801 -0.0590 -0.2278 -1.3762
34420SOL     OW 9864   6.407   7.056  12.321  0.1940  0.1544  0.3917
34420SOL    HW1 9865   6.347   7.130  12.325 -0.4860 -0.4284  2.0752
34420SOL    HW2 9866   6.468   7.072  12.393  0.0616 -0.8813  0.7463
34421SOL     OW 9867  12.060   8.259   3.260  0.6023 -0.5233 -0.0954
34421SOL    HW1 9868  12.148   8.272   3.294 -0.3461  0.2489  2.2949
34421SOL    HW2 9869  12.016   8.206   3.327 -0.6840 -1.1523 -1.3737
34422SOL     OW 9870   6.404   4.593   8.868  0.1509 -0.4793 -0.1962
34422SOL    HW1 9871   6.384   4.685   8.850 -1.9938 -0.9110 -0.1874
34422SOL    HW2 9872   6.475   4.597   8.932 -2.3344  1.2984  2.7125
34423SOL     OW 9873   2.297   1.220   5.256  0.0218 -0.0321 -0.0523
34423SOL    HW1 9874   2.359   1.289   5.233 -0.2552 -0.0632 -0.9452
34423SOL    HW2 9875   2.327   1.143   5.209 -0.2064 -0.2713  0.1874
34424SOL     OW 9876  10.428   5.047   7.195  0.1387  0.2416 -0.1092
34424SOL    HW1 9877  10.365   5.111   7.161  0.8479  1.4260  0.7060
34424SOL    HW2 9878  10.506   5.060   7.141  0.1444 -0.2605 -0.2248
34425SOL     OW 9879   2.409   7.170   6.107 -0.2973  0.3069  0.3809
34425SOL    HW1 9880   2.319   7.190   6.081 -0.7639  0.5149  2.0361
34425SOL    HW2 9881   2.401   7.137   6.197  1.3156  0.5888  0.6523
34426SOL     OW 9882  11.966   9.260   8.506 -0.2238 -1.0334 -0.4979
34426SOL    HW1 9883  11.989   9.338   8.557 -0.6661 -1.2070 -0.0210
34426SOL    HW2 9884  12.050   9.224   8.478  0.2476 -2.4643  2.4036
34427SOL     OW 9885  10.170   7.286  11.917 -0.2781  0.1837  0.2676
34427SOL    HW1 9886  10.140   7.291  12.008 -0.3048 -1.9262  0.4244
34427SOL    HW2 9887  10.094   7.254  11.868  0.4919 -1.3038 -0.0067
34428SOL     OW 9888   1.164   4.687   3.930  0.2677  0.1730 -0.2370
34428SOL    HW1 9889   1.212   4.671   4.011  1.5874  0.3809 -0.9548
34428SOL    HW2 9890   1.218   4.750   3.882  0.2836 -1.0664 -1.9443
34429SOL     OW 9891   6.184  10.669   9.335  0.2596  0.4085 -0.3799
34429SOL    HW1 9892   6.152  10.670   9.425 -0.0203 -1.9792 -0.3786
34429SOL    HW2 9893   6.109  10.698   9.283  0.4603  1.9263  0.1323
34430SOL     OW 9894   7.989   9.730   6.050  0.1665  0.5582  0.0228
34430SOL    HW1 9895   7.980   9.635   6.055  1.6772  0.4113  0.5172
34430SOL    HW2 9896   7.932   9.756   5.978 -1.7501 -0.4873  1.0723
34431SOL     OW 9897   5.158   2.389  12.230  0.8280  0.3285  0.4458
34431SOL    HW1 9898   5.196   2.442  12.300  1.9533 -0.0987  0.1832
34431SOL    HW2 9899   5.189   2.300  12.247  0.7031  0.1307 -0.3066
34432SOL     OW 9900   7.245  12.653   8.311 -0.5125  0.5089 -0.0347
34432SOL    HW1 9901   7.199  12.627   8.230  0.5232  1.9667 -1.1365
34432SOL    HW2 9902   7.336  12.626   8.296 -0.4011  0.3664  0.8624
34433SOL     OW 9903   3.193  10.072  11.660  0.3897 -0.5830  0.1308
34433SOL    HW1 9904   3.191   9.995  11.716 -2.8237 -0.5171  0.2459
34433SOL    HW2 9905   3.148  10.140  11.710  1.4287  0.8240 -0.7591
34434SOL     OW 9906   1.696   7.245   9.578 -0.3225  0.2663  0.4450
34434SOL    HW1 9907   1.606   7.252   9.609 -0.1997 -0.5600  1.0138
34434SOL    HW2 9908   1.744   7.311   9.628 -0.7774  1.4184 -0.5813
34435SOL     OW 9909   8.184   1.246  11.933 -0.0167 -0.0657  0.2674
34435SOL    HW1 9910   8.193   1.212  12.023 -1.2961 -1.5489 -0.1125
34435SOL    HW2 9911   8.246   1.318  11.928  0.4450 -0.2753  2.1969
34436SOL     OW 9912   5.902  10.882   4.952 -0.5607 -0.1674  0.4593
34436SOL    HW1 9913   5.864  10.795   4.937 -1.3858 -0.1427  2.0726
34436SOL    HW2 9914   5.826  10.937   4.974  0.2503  0.0283  3.2102
34437SOL     OW 9915   5.546  12.672   4.990 -0.1545  0.0418  0.1552
34437SOL    HW1 9916   5.490  12.729   5.044  1.3287  1.5608  0.2003
34437SOL    HW2 9917   5.624  12.659   5.043 -0.0202 -1.1828 -0.3188
34438SOL     OW 9918   7.078  12.111   8.138 -0.5197  0.3122 -0.0004
34438SOL    HW1 9919   7.095  12.018   8.152 -0.6849  0.1220 -1.0006
34438SOL    HW2 9920   7.094  12.152   8.224 -2.0491 -0.8558  0.8828
34439SOL     OW 9921   4.106  12.669   8.644 -0.5009 -0.3157  0.3563
34439SOL    HW1 9922   4.184  12.619   8.670 -1.3162 -1.1269  1.3313
34439SOL    HW2 9923   4.089  12.641   8.554  0.9639  0.7155 -0.2757
34440SOL     OW 9924   4.908  10.087   5.202 -0.1692 -0.1797  0.3912
34440SOL    HW1 9925   4.863  10.111   5.283  1.2116 -0.1950  1.2000
34440SOL    HW2 9926   4.839  10.057   5.144 -1.3635  1.1435  1.0686
34441SOL     OW 9927   9.473   4.501  11.124  0.2048  0.5700  0.6359
34441SOL    HW1 9928   9.536   4.446  11.171  0.5286  0.5684  0.2050
34441SOL    HW2 9929   9.483   4.477  11.032 -2.8471 -1.9482  0.7807
34442SOL     OW 9930   0.754   7.663  10.219  0.3362  0.4575 -0.3847
34442SOL    HW1 9931   0.798   7.748  10.209  0.0792  0.5721 -0.5829
34442SOL    HW2 9932   0.821   7.604  10.252  0.5410  0.7198 -0.3295
34443SOL     OW 9933  12.119  11.558   9.731 -0.3022  0.2008 -0.2821
34443SOL    HW1 9934  12.208  11.590   9.744  0.0928 -0.8427 -0.3122
34443SOL    HW2 9935  12.065  11.615   9.784  0.4417  0.5649  0.0951
34444SOL     OW 9936  12.678  10.283   3.542 -0.2384 -0.3581  0.9826
34444SOL    HW1 9937  12.771  10.263   3.544  0.1334  0.9981 -0.6165
34444SOL    HW2 9938  12.644  10.233   3.467 -0.2717  1.0199  0.0378
34445SOL     OW 9939  11.388   5.940  11.544 -0.6527 -0.4235 -0.2788
34445SOL    HW1 9940  11.323   5.956  11.475 -0.4445  0.8087 -0.2064
34445SOL    HW2 9941  11.339   5.945  11.626 -0.5436  0.1158 -0.2440
34446SOL     OW 9942  10.742   0.243  10.305  0.4183  0.1471  0.3880
34446SOL    HW1 9943  10.787   0.205  10.380  0.6138 -0.5013 -0.0509
34446SOL    HW2 9944  10.667   0.185  10.290  2.5669 -2.2193 -2.4155
34447SOL     OW 9945   6.069   0.412   6.890  0.4033 -0.6575 -0.3390
34447SOL    HW1 9946   6.057   0.404   6.795 -0.5422  0.8186 -0.3650
34447SOL    HW2 9947   6.002   0.355   6.927  0.5079 -0.9163 -0.5391
34448SOL     OW 9948   5.129   1.165   4.921 -0.0372  0.1587 -0.6954
34448SOL    HW1 9949   5.194   1.234   4.935 -0.5703  0.8011 -1.2904
34448SOL    HW2 9950   5.079   1.161   5.002  2.0128 -1.7730  0.5795
34449SOL     OW 9951   1.103   0.009   3.768 -0.6348  0.2601  0.9380
34449SOL    HW1 9952   1.106  -0.084   3.745  1.6721  0.7002 -1.0809
34449SOL    HW2 9953   1.138   0.014   3.857 -1.8425 -0.8653  1.4940
34450SOL     OW 9954   8.752  11.404   6.897 -0.6483 -0.6186  0.4668
34450SOL    HW1 9955   8.806  11.483   6.891 -0.4207 -0.7319  0.9721
34450SOL    HW2 9956   8.799  11.348   6.959 -0.5635 -1.3479 -0.2426
34451SOL     OW 9957  12.519  10.545   0.141  0.2047 -0.0407  0.2185
34451SOL    HW1 9958  12.586  10.505   0.198 -0.7197  0.8086  1.9657
34451SOL    HW2 9959  12.551  10.528   0.052  2.0251 -0.8850  0.9722
34452SOL     OW 9960   5.187   2.268   1.874 -0.0205  0.0506 -0.2997
34452SOL    HW1 9961   5.126   2.194   1.872 -0.1918  0.1950 -0.4494
34452SOL    HW2 9962   5.274   2.227   1.878 -0.1076 -0.1605 -0.5374
34453SOL     OW 9963   0.369   6.565  11.691 -0.3877 -0.2042  0.0195
34453SOL    HW1 9964   0.442   6.545  11.633 -0.0861 -2.0953  0.9703
34453SOL    HW2 9965   0.408   6.609  11.766 -0.4067 -0.1071 -0.0274
34454SOL     OW 9966   2.296  10.794   2.993 -0.4107 -0.0069 -0.5635
34454SOL    HW1 9967   2.225  10.849   2.960 -0.5853 -0.1723 -0.4644
34454SOL    HW2 9968   2.306  10.820   3.085  1.3150  1.7756 -1.1935
34455SOL     OW 9969  10.132   1.454   7.221 -0.2780  0.0339 -0.1395
34455SOL    HW1 9970  10.136   1.529   7.281 -0.7069  1.1545 -1.4503
34455SOL    HW2 9971  10.063   1.398   7.256  0.4555 -0.0724  1.1985
34456SOL     OW 9972   4.185   7.893  12.522  0.0270  0.6740 -0.6179
34456SOL    HW1 9973   4.220   7.810  12.556  0.3608  1.1108  0.1073
34456SOL    HW2 9974   4.239   7.960  12.562  0.0985  1.2274 -1.6288
34457SOL     OW 9975   0.482  12.368   0.031 -0.1867 -0.0273  0.1396
34457SOL    HW1 9976   0.559  12.422   0.013  0.4646 -0.4066  1.6326
34457SOL    HW2 9977   0.504  12.282  -0.007  0.1527 -0.1443  0.5898
34458SOL     OW 9978   0.414  12.244   7.459  0.2827 -0.3163  0.1374
34458SOL    HW1 9979   0.391  12.328   7.499 -0.0501 -0.7843  0.9633
34458SOL    HW2 9980   0.344  12.228   7.396 -0.8376 -0.9575  1.4823
34459SOL     OW 9981   5.110   9.818   9.265  0.2398 -0.1542  0.3541
34459SOL    HW1 9982   5.049   9.856   9.201 -0.2985  0.8382  1.4234
34459SOL    HW2 9983   5.104   9.724   9.250 -0.0558  0.0395 -0.8882
34460SOL     OW 9984   3.010  10.056   7.750 -0.6621  0.2319  0.1322
34460SOL    HW1 9985   2.975   9.972   7.778  1.0847 -0.2061  1.1453
34460SOL    HW2 9986   3.009  10.110   7.829  1.5021 -0.0133  0.3634
34461SOL     OW 9987   4.616  12.340   4.638  0.8149  0.7656 -0.0498
34461SOL    HW1 9988   4.663  12.266   4.676 -0.5837 -0.9199 -1.4269
34461SOL    HW2 9989   4.576  12.384   4.713  0.5114 -0.7408  0.7154
34462SOL     OW 9990   3.575   5.929   6.462 -0.0790 -0.3311 -0.4031
34462SOL    HW1 9991   3.560   5.974   6.379 -1.5389  0.0237  0.0246
34462SOL    HW2 9992   3.644   5.866   6.443  0.8233  0.9005 -1.4461
34463SOL     OW 9993  10.617   6.637   3.906  0.4877  0.0736  0.2841
34463SOL    HW1 9994  10.572   6.680   3.979  0.1543  2.3561 -1.1581
34463SOL    HW2 9995  10.549   6.584   3.864 -0.1224  1.1307 -0.1028
34464SOL     OW 9996   3.899   1.392   4.403  0.6293  0.1513 -0.5827
34464SOL    HW1 9997   3.955   1.434   4.338  0.3262  1.7793  0.1497
34464SOL    HW2 9998   3.827   1.353   4.352  0.9368  0.5077 -1.2910
34465SOL     OW 9999   4.927   0.778   8.831 -0.3095 -0.2213  0.3787
34465SOL    HW110000   4.990   0.819   8.772 -0.1899 -1.6688 -0.5249
34465SOL    HW210001   4.856   0.748   8.774 -1.1312  0.0898  1.2128
34466SOL     OW10002   8.277  11.425   0.024 -0.6481 -0.0862  0.1879
34466SOL    HW110003   8.314  11.502   0.068 -0.2343  0.0719 -0.4278
34466SOL    HW210004   8.197  11.406   0.073  0.1992 -0.3802  1.5078
34467SOL     OW10005  11.676   5.011   3.897  0.8135 -0.4168 -0.1679
34467SOL    HW110006  11.761   5.056   3.891 -0.9103  3.2086 -0.3697
34467SOL    HW210007  11.667   4.964   3.815  2.5590 -0.8327 -0.1609
34468SOL     OW10008   8.860   9.380   2.598  0.0642 -0.2821 -0.9546
34468SOL    HW110009   8.837   9.471   2.585 -1.3426 -0.5141 -0.2987
34468SOL    HW210010   8.931   9.364   2.536  0.4525  1.2900 -0.9533
34469SOL     OW10011   9.119   5.515  11.481  0.0024  0.7070 -0.3613
34469SOL    HW110012   9.178   5.446  11.450  0.6183  2.2362 -2.8099
34469SOL    HW210013   9.037   5.470  11.502  1.1462 -1.0722  0.4814
34470SOL     OW10014   1.528   9.903   0.657 -0.4097 -0.0755 -0.1207
34470SOL    HW110015   1.575   9.981   0.687  0.7169 -1.5645  2.3311
34470SOL    HW210016   1.541   9.901   0.562  1.4738  1.4776  0.0574
34471SOL     OW10017   3.759  11.531  10.819  0.1048 -0.1225 -0.3644
34471SOL    HW110018   3.779  11.439  10.804 -1.4624 -0.7216  0.8176
34471SOL    HW210019   3.755  11.539  10.915  0.8995  1.3505 -0.4271
34472SOL     OW10020  12.498  11.495  10.540  0.2472  0.0006  0.4435
34472SOL    HW110021  12.496  11.548  10.460  1.3333 -1.0690 -0.3148
34472SOL    HW210022  12.417  11.444  10.537  0.6074 -0.5529 -0.3645
34473SOL     OW10023   2.958   3.787   1.667 -0.6281 -0.4928  0.0232
34473SOL    HW110024   2.975   3.695   1.686  0.3932  0.0446  2.0227
34473SOL    HW210025   2.903   3.817   1.740  0.2025  0.7977  0.1578
34474SOL     OW10026   9.016   2.130   4.014 -0.3119  0.2947 -0.6084
34474SOL    HW110027   8.930   2.150   3.977  0.0586  0.3930 -1.4327
34474SOL    HW210028   9.033   2.039   3.988 -0.2874  0.1824 -0.2062
34475SOL     OW10029   2.429   6.072   2.104  0.0865  0.0103  0.7710
34475SOL    HW110030   2.468   5.991   2.073 -1.3760 -0.6106  0.4670
34475SOL    HW210031   2.464   6.083   2.193 -1.3349 -2.1610  1.6964
34476SOL     OW10032   9.165   0.872   8.370 -0.1449 -0.1656 -0.4056
34476SOL    HW110033   9.075   0.866   8.402 -0.6926  2.9870 -1.0301
34476SOL    HW210034   9.216   0.895   8.448 -0.0355 -0.8323 -0.2709
34477SOL     OW10035  10.511   2.953  10.057 -0.7474 -0.6331  0.9201
34477SOL    HW110036  10.479   2.992  10.138  0.7083  0.0849  1.1790
34477SOL    HW210037  10.603   2.977  10.054 -1.1439  0.9693 -1.8767
34478SOL     OW10038   7.437   8.271   5.161 -0.2595 -0.1484 -0.4437
34478SOL    HW110039   7.371   8.204   5.176 -1.3622  1.2193  1.1423
34478SOL    HW210040   7.397   8.332   5.099  0.5371 -0.6208 -1.4686
34479SOL     OW10041   5.316   5.132  12.710  0.1814 -0.4282 -0.6736
34479SOL    HW110042   5.267   5.109  12.788  0.3353  0.4467 -0.3129
34479SOL    HW210043   5.281   5.216  12.682  0.9076 -0.1816 -0.8822
34480SOL     OW10044  10.189   7.520   7.704 -0.2849 -0.3104 -0.1677
34480SOL    HW110045  10.184   7.616   7.706 -1.1817 -0.0742 -4.2205
34480SOL    HW210046  10.159   7.497   7.616 -0.7863 -4.4157  0.8818
34481SOL     OW10047  11.495   5.520   2.217 -0.5744 -0.0683  0.8242
34481SOL    HW110048  11.436   5.475   2.277  0.7183  0.1351  2.3166
34481SOL    HW210049  11.582   5.505   2.253  0.1441  1.2153 -0.2589
34482SOL     OW10050   2.937   2.131   6.151  0.4832 -0.2782  0.3731
34482SOL    HW110051   2.935   2.227   6.148 -0.8675 -0.1837  2.5245
34482SOL    HW210052   2.969   2.111   6.238  1.0283 -1.8239 -0.1576
34483SOL     OW10053  10.334   5.120   2.373 -0.1353 -0.7611  0.1290
34483SOL    HW110054  10.374   5.059   2.435  0.8054 -0.6485 -0.3487
34483SOL    HW210055  10.240   5.107   2.384  0.0401 -1.9324  0.4035
34484SOL     OW10056  10.889  11.029   1.538 -0.1579  0.7822  0.0485
34484SOL    HW110057  10.887  11.005   1.630  0.9858  0.9769  0.1423
34484SOL    HW210058  10.810  10.990   1.501 -0.9423  1.2036  1.2207
34485SOL     OW10059  11.658   4.851   2.041  0.3909  0.0697  0.2845
34485SOL    HW110060  11.716   4.796   1.989  0.1741  0.2685 -0.1678
34485SOL    HW210061  11.632   4.922   1.982  0.5912  0.6060  0.8308
34486SOL     OW10062   9.380   9.017   6.637  0.1062  0.1667 -0.3657
34486SOL    HW110063   9.398   8.936   6.589 -1.2899 -0.0109 -0.6158
34486SOL    HW210064   9.291   9.041   6.613 -0.3141  0.5699  1.4139
34487SOL     OW10065  12.694   8.058   3.253 -0.2910 -0.3565  0.1931
34487SOL    HW110066  12.646   8.050   3.170 -2.2990  0.6039  1.1935
34487SOL    HW210067  12.703   8.152   3.267  2.4103 -0.4703 -0.1516
34488SOL     OW10068  12.077  11.362  10.287 -0.5267  0.0286 -0.0601
34488SOL    HW110069  12.134  11.439  10.289  0.9049 -0.9512  2.4748
34488SOL    HW210070  11.992  11.394  10.317 -0.0164  0.7086  0.7093
34489SOL     OW10071   9.977   3.244   9.417  0.1457 -0.8756 -0.1935
34489SOL    HW110072  10.001   3.238   9.324  1.1837 -2.1937  0.1226
34489SOL    HW210073   9.906   3.181   9.428 -0.1191 -0.5682 -0.1281
34490SOL     OW10074   3.530  11.408   5.666 -0.5106  0.3154  0.2985
34490SOL    HW110075   3.441  11.385   5.695 -1.5442  2.0903 -1.2131
34490SOL    HW210076   3.521  11.498   5.634  1.4829 -0.0501 -1.4362
34491SOL     OW10077   0.945   7.375   5.010 -0.0426 -0.0940 -0.1143
34491SOL    HW110078   0.912   7.356   4.922 -1.6011  1.5732  0.0271
34491SOL    HW210079   0.994   7.457   5.000 -0.0068 -0.0311  0.5193
34492SOL     OW10080   8.532   2.429   2.962  0.1977 -0.8613  0.3280
34492SOL    HW110081   8.539   2.372   2.885  0.6224 -0.1817 -0.1428
34492SOL    HW210082   8.440   2.456   2.962  0.5862  0.6778 -1.0943
34493SOL     OW10083   0.497   4.975   1.320  0.1901  0.2556 -0.1750
34493SOL    HW110084   0.423   4.936   1.275 -0.1738  0.4747  0.2225
34493SOL    HW210085   0.489   5.069   1.303 -0.1821  0.3902  0.6548
34494SOL     OW10086   8.001  10.428   1.806  1.1325 -0.0151 -0.3860
34494SOL    HW110087   8.055  10.379   1.745  2.4093  1.1352 -0.2316
34494SOL    HW210088   7.980  10.509   1.759  0.3042 -0.0472 -0.0914
34495SOL     OW10089   6.273  12.779  10.880  0.8959 -0.0900 -0.0653
34495SOL    HW110090   6.213  12.753  10.810  1.1599  1.0262 -0.7356
34495SOL    HW210091   6.273  12.705  10.940  1.3093 -1.4627 -1.6590
34496SOL     OW10092  11.135   7.195   1.891 -0.4282  1.2081 -0.1435
34496SOL    HW110093  11.114   7.107   1.860 -2.5397  2.0155 -1.2031
34496SOL    HW210094  11.213   7.220   1.842 -0.5619  0.4102 -0.7819
34497SOL     OW10095   4.340   8.549  11.846  0.0978 -0.0963  0.0343
34497SOL    HW110096   4.304   8.630  11.881 -0.7628  0.1689 -1.3800
34497SOL    HW210097   4.272   8.484  11.864  0.2082 -0.2249 -0.0174
34498SOL     OW10098   4.031   8.297   3.506  0.0120 -0.4301 -0.0165
34498SOL    HW110099   3.963   8.314   3.441 -0.7232 -1.4844  0.4578
34498SOL    HW210100   4.107   8.346   3.473 -0.4895 -0.5129 -1.3865
34499SOL     OW10101   6.399   9.269   7.333  0.2607  0.1280 -0.0538
34499SOL    HW110102   6.465   9.266   7.264  1.4338  0.5519  1.0089
34499SOL    HW210103   6.380   9.362   7.344  2.1663  0.3708  2.0306
34500SOL     OW10104   9.523   2.766   0.925  0.3538  0.1010 -0.0321
34500SOL    HW110105   9.521   2.826   0.850 -0.4926 -0.0046 -0.1015
34500SOL    HW210106   9.509   2.822   1.001  1.5588  0.2576  0.0951
34501SOL     OW10107   1.130   8.179   3.205  0.1254  0.2991  0.9731
34501SOL    HW110108   1.070   8.254   3.210 -0.2160  0.1285 -0.2377
34501SOL    HW210109   1.204   8.203   3.260 -0.5177  1.0273  1.5334
34502SOL     OW10110   3.957   8.460   2.229 -0.4518  0.0839 -0.0664
34502SOL    HW110111   3.934   8.544   2.267  0.2671  0.0748  0.4057
34502SOL    HW210112   3.885   8.401   2.254 -0.7417  0.4480 -0.0353
34503SOL     OW10113   2.157  12.070   2.495 -0.2414 -0.6943  0.2173
34503SOL    HW110114   2.131  12.047   2.406  1.3527 -0.0919 -0.4563
34503SOL    HW210115   2.111  12.151   2.514 -1.3873 -1.3550  0.3677
34504SOL     OW10116   8.410   1.311   5.891 -0.3254 -0.6256 -0.1779
34504SOL    HW110117   8.434   1.301   5.984 -0.4613 -1.0419 -0.1853
34504SOL    HW210118   8.477   1.369   5.855 -0.1808 -0.5903  0.1455
34505SOL     OW10119   2.270   8.763   9.798  0.4396  0.1080  0.1540
34505SOL    HW110120   2.187   8.740   9.840  0.5202 -0.9675 -0.2171
34505SOL    HW210121   2.325   8.685   9.810  2.0007  1.3743  1.7931
34506SOL     OW10122   5.279   4.986  10.502  0.0383 -0.0609  0.6611
34506SOL    HW110123   5.251   4.906  10.457 -1.2519  0.4665  0.4870
34506SOL    HW210124   5.308   4.955  10.588 -1.7040 -0.6235  1.0983
34507SOL     OW10125   2.497  11.766   3.902 -0.3475  0.1728 -0.0896
34507SOL    HW110126   2.531  11.826   3.835 -0.2937  0.3955  0.1365
34507SOL    HW210127   2.565  11.700   3.913 -0.2862  0.2292 -0.1340
34508SOL     OW10128   2.380   9.134  10.568  0.1148 -0.1654 -0.1301
34508SOL    HW110129   2.370   9.163  10.477  2.2424  0.3894 -0.2421
34508SOL    HW210130   2.302   9.166  10.613  0.2721  1.8723 -1.2208
34509SOL     OW10131   8.902   1.428   9.501  0.1671  0.3294 -0.7042
34509SOL    HW110132   8.822   1.424   9.554  0.4719 -1.3420 -0.2958
34509SOL    HW210133   8.891   1.359   9.436  1.6997 -0.7106  0.0602
34510SOL     OW10134   2.578   7.620   6.944  0.5493 -0.2898  0.3661
34510SOL    HW110135   2.536   7.706   6.931  1.6272 -0.0739 -2.2354
34510SOL    HW210136   2.542   7.565   6.875  1.8086 -1.1824  0.3878
34511SOL     OW10137   2.763  12.158  12.766  0.4452  0.2331 -0.3537
34511SOL    HW110138   2.698  12.098  12.803  1.4769 -0.6530  0.0850
34511SOL    HW210139   2.840  12.103  12.753  0.9837  1.1740 -1.2345
34512SOL     OW10140   7.950   4.496   8.621  0.7182  0.1589 -0.1384
34512SOL    HW110141   7.991   4.454   8.696 -1.2205 -0.7853  0.4597
34512SOL    HW210142   7.994   4.581   8.613 -0.0326  0.9363  2.9873
34513SOL     OW10143   4.446  11.247   4.127  0.5454  0.0667 -0.1525
34513SOL    HW110144   4.368  11.194   4.109 -0.0329  0.9356 -0.2640
34513SOL    HW210145   4.460  11.297   4.047 -1.2590  2.9566  1.1702
34514SOL     OW10146   1.195   2.447  11.912  0.0710  0.3377  0.1560
34514SOL    HW110147   1.250   2.524  11.926  2.0850 -1.0272  0.0997
34514SOL    HW210148   1.191   2.404  11.998  2.7351 -1.8243 -0.6787
34515SOL     OW10149   2.529   1.303   1.257 -0.0952  0.2023 -0.6518
34515SOL    HW110150   2.451   1.355   1.277  1.2045  1.7404  0.6535
34515SOL    HW210151   2.540   1.246   1.332  1.0245  1.2702  0.0261
34516SOL     OW10152   0.916   4.213   0.662 -0.3036 -0.4095  0.7573
34516SOL    HW110153   0.948   4.273   0.729 -1.0844 -0.4319  1.1536
34516SOL    HW210154   0.982   4.218   0.592  0.3664 -0.1771  1.3971
34517SOL     OW10155   7.112   6.326   8.452  0.4133 -0.4882  0.4263
34517SOL    HW110156   7.156   6.401   8.413  0.2521 -0.4863  0.2479
34517SOL    HW210157   7.070   6.282   8.378  1.0362 -1.1116  0.4302
34518SOL     OW10158   4.480   3.525   6.713 -0.1616  0.4671  0.5699
34518SOL    HW110159   4.520   3.559   6.793  0.9176 -0.3025  0.3804
34518SOL    HW210160   4.554   3.495   6.660 -0.8722  0.8249 -0.6582
34519SOL     OW10161  12.137   1.088   9.737  0.6976  0.8499 -0.0754
34519SOL    HW110162  12.212   1.046   9.695  0.4553  0.6253 -0.2875
34519SOL    HW210163  12.125   1.039   9.819 -0.2854 -0.2524 -0.8442
34520SOL     OW10164   6.161   3.313  12.474  0.0251  0.2681  0.0211
34520SOL    HW110165   6.076   3.358  12.468  1.0901  2.5187  0.6959
34520SOL    HW210166   6.217   3.360  12.413  0.9889 -0.7471  0.0995
34521SOL     OW10167   3.661   5.158   5.340  0.2892 -0.5209  0.1765
34521SOL    HW110168   3.715   5.226   5.380  0.5827 -1.0574  0.7123
34521SOL    HW210169   3.601   5.206   5.283  0.9643  0.1319 -0.0109
34522SOL     OW10170   3.104   0.350  11.196 -0.5850 -0.6864  0.4149
34522SOL    HW110171   3.149   0.332  11.279 -0.2282 -0.6948  0.2202
34522SOL    HW210172   3.062   0.436  11.210 -0.0789 -0.4358  0.4210
34523SOL     OW10173   5.125   0.545   6.625 -0.4037  0.3302 -0.0992
34523SOL    HW110174   5.148   0.577   6.713 -1.2274  0.2690  0.1487
34523SOL    HW210175   5.030   0.545   6.624 -0.4324 -1.5651 -0.3014
34524SOL     OW10176   8.891   0.369   7.261  0.3606 -0.0012 -0.0266
34524SOL    HW110177   8.815   0.428   7.257  1.3568  1.3694  0.6794
34524SOL    HW210178   8.900   0.348   7.354  1.0108  0.0654 -0.0720
34525SOL     OW10179   2.246   7.914  10.273  0.5393 -0.8840 -0.3558
34525SOL    HW110180   2.188   7.923  10.198  1.3798  1.2586 -0.8209
34525SOL    HW210181   2.330   7.949  10.242  1.4979 -1.9018  0.9630
34526SOL     OW10182   6.408  11.643   1.978 -0.0724  0.9783 -0.3679
34526SOL    HW110183   6.414  11.568   1.918 -0.3809  0.9954 -0.4192
34526SOL    HW210184   6.493  11.686   1.969 -0.1235  0.9978 -0.8152
34527SOL     OW10185   9.919   6.629   9.847  0.3119  0.3160 -0.3142
34527SOL    HW110186   9.894   6.550   9.894  0.3834  0.1422 -0.5702
34527SOL    HW210187   9.882   6.618   9.759  1.2801  0.0593 -0.6957
34528SOL     OW10188   4.597   4.726  12.717 -0.5407 -0.9779 -0.1529
34528SOL    HW110189   4.519   4.691  12.762 -2.0237  1.8224 -0.3584
34528SOL    HW210190   4.646   4.770  12.786  0.6723 -2.2705 -0.1332
34529SOL     OW10191   8.324   0.089   4.724  0.0923 -0.4188  0.6775
34529SOL    HW110192   8.402   0.070   4.672  0.4680  1.6151  0.4121
34529SOL    HW210193   8.251   0.056   4.672  0.7225 -1.7750  0.6396
34530SOL     OW10194   2.170  11.857   5.138  0.3623 -0.2149  0.0373
34530SOL    HW110195   2.085  11.860   5.182 -0.0973 -0.5641 -0.7962
34530SOL    HW210196   2.178  11.944   5.097  0.0156 -0.4619 -0.5730
34531SOL     OW10197   8.999   4.064   6.424  0.7393  0.2094  0.0790
34531SOL    HW110198   9.030   4.010   6.350 -0.1495 -1.9303  1.1785
34531SOL    HW210199   8.906   4.043   6.432  0.8327  0.3197  1.8363
34532SOL     OW10200  10.614  11.856  11.112  0.1153  0.2878 -0.2125
34532SOL    HW110201  10.528  11.822  11.088 -0.3136 -0.0411  1.6935
34532SOL    HW210202  10.598  11.911  11.189  1.3226  1.9494 -1.0740
34533SOL     OW10203   6.061  12.362   1.697  0.4477  0.2350  0.0870
34533SOL    HW110204   6.041  12.403   1.781 -1.0953  1.1325 -0.6846
34533SOL    HW210205   6.034  12.270   1.709  3.0031 -0.4410  1.4893
34534SOL     OW10206   6.107  11.322   7.113  0.2293  0.2391 -0.3041
34534SOL    HW110207   6.173  11.254   7.130  1.3778  1.3137 -0.3352
34534SOL    HW210208   6.026  11.273   7.098  1.0690 -1.1359 -0.5510
34535SOL     OW10209   9.337  10.463   1.791 -0.0717  0.0307 -0.7607
34535SOL    HW110210   9.361  10.535   1.849 -1.0932  0.6568 -1.0901
34535SOL    HW210211   9.265  10.420   1.835 -0.2387 -0.0637 -1.1253
34536SOL     OW10212   0.235   8.586   1.906  0.3485 -0.2081  0.4703
34536SOL    HW110213   0.257   8.496   1.927 -1.2527 -1.0641 -1.2192
34536SOL    HW210214   0.157   8.580   1.851  0.8832  2.1452 -0.6924
34537SOL     OW10215   2.885  10.124   7.194 -0.0191  0.4639  0.3671
34537SOL    HW110216   2.799  10.149   7.228  0.2601  0.9083  0.7515
34537SOL    HW210217   2.870  10.104   7.102 -0.3621  1.4517  0.2027
34538SOL     OW10218   3.174   9.104   6.819 -0.2591 -0.4473  0.7713
34538SOL    HW110219   3.235   9.174   6.796 -1.0765  0.4821  1.3558
34538SOL    HW210220   3.205   9.028   6.769  0.5566  0.3651  0.0058
34539SOL     OW10221   1.313  12.258   1.759  0.4997 -0.1016 -0.4426
34539SOL    HW110222   1.369  12.244   1.683  0.5295 -3.1325  0.0072
34539SOL    HW210223   1.225  12.239   1.728  0.4314 -0.7008  0.0937
34540SOL     OW10224   3.454   1.081   7.578 -0.2607  1.3405  0.0885
34540SOL    HW110225   3.483   1.055   7.491 -1.8586  2.3763 -0.8099
34540SOL    HW210226   3.505   1.027   7.638  0.4667  0.1972 -1.5016
34541SOL     OW10227   0.795  10.377   3.649  0.0593  0.4896  0.3677
34541SOL    HW110228   0.841  10.342   3.726 -0.0159 -0.6219 -0.0692
34541SOL    HW210229   0.768  10.465   3.675 -0.3933 -0.0426  1.7997
34542SOL     OW10230  11.041   4.533  10.272  0.5225  0.5573 -0.2287
34542SOL    HW110231  11.128   4.567  10.250  0.8415  0.1135  0.3103
34542SOL    HW210232  11.033   4.453  10.221  1.2451 -0.4492  1.1799
34543SOL     OW10233   0.548  11.210  12.714 -0.2156  0.4661 -0.1847
34543SOL    HW110234   0.462  11.177  12.690 -0.1039  0.0185  0.0243
34543SOL    HW210235   0.571  11.162  12.793  1.8585 -2.2467 -2.2353
34544SOL     OW10236   7.735   0.922   7.313  0.0726 -0.0168 -0.5212
34544SOL    HW110237   7.732   0.938   7.218 -1.8428  0.9708 -0.3309
34544SOL    HW210238   7.660   0.866   7.330  0.2953 -0.0303  0.4347
34545SOL     OW10239   1.894  11.709  11.276 -0.0416  0.4343  0.2931
34545SOL    HW110240   1.838  11.670  11.342 -1.1165 -0.0024 -0.8509
34545SOL    HW210241   1.956  11.640  11.253 -0.0123  0.4069  0.4553
34546SOL     OW10242   0.361   2.509   7.458 -0.1840  0.3341  0.1831
34546SOL    HW110243   0.333   2.451   7.387  0.6302 -2.1907  1.7992
34546SOL    HW210244   0.280   2.530   7.505 -0.1903 -2.6038  1.7144
34547SOL     OW10245   4.300  11.402  11.437 -0.2899 -0.3889  0.3088
34547SOL    HW110246   4.345  11.459  11.499  1.4373 -1.3475  0.0020
34547SOL    HW210247   4.368  11.373  11.376 -1.6081 -0.7989 -1.0430
34548SOL     OW10248   6.135  11.539   6.591 -0.6714  0.4427  0.1780
34548SOL    HW110249   6.200  11.609   6.596 -0.6623  0.5999 -1.4264
34548SOL    HW210250   6.167  11.481   6.521 -1.6209 -0.1482  0.2079
34549SOL     OW10251   3.239  11.148   9.152 -0.0222  0.9394 -0.0498
34549SOL    HW110252   3.257  11.083   9.085  1.8166  0.7313  0.5831
34549SOL    HW210253   3.175  11.106   9.210  0.0329  0.2765 -0.4627
34550SOL     OW10254   7.165   7.143   0.800 -0.3762  0.1120 -0.0253
34550SOL    HW110255   7.089   7.085   0.806 -1.2986  1.1574 -1.0497
34550SOL    HW210256   7.185   7.165   0.891 -0.6484 -0.9923  0.3148
34551SOL     OW10257  11.554   7.207   1.960  0.1245 -0.6000 -0.0320
34551SOL    HW110258  11.513   7.264   2.026  0.4375 -1.5084  0.9694
34551SOL    HW210259  11.540   7.118   1.994  2.0086 -0.9844 -0.1861
34552SOL     OW10260   7.241   5.389   2.980  0.3666  0.1910  0.0031
34552SOL    HW110261   7.234   5.336   2.900  1.2457  0.1947 -0.0834
34552SOL    HW210262   7.191   5.468   2.960  0.8990  0.3675 -0.7014
34553SOL     OW10263   4.153   7.130   7.816  0.8306 -0.0680 -0.2210
34553SOL    HW110264   4.101   7.078   7.877  1.2984 -1.2610 -0.8074
34553SOL    HW210265   4.243   7.118   7.846  0.9820  0.0481 -0.6278
34554SOL     OW10266   4.482   5.080   4.158 -0.1492 -0.3053 -0.0031
34554SOL    HW110267   4.521   4.995   4.177 -0.4492 -0.9766 -2.1062
34554SOL    HW210268   4.556   5.134   4.130 -0.1626 -0.3306 -0.0865
34555SOL     OW10269   0.926   0.273   1.383 -0.4298  0.2352 -0.1273
34555SOL    HW110270   0.973   0.338   1.436  1.5784 -1.0442 -0.2237
34555SOL    HW210271   0.964   0.283   1.296  0.1882 -1.2937 -0.0558
34556SOL     OW10272   3.327   9.421   9.140 -0.5773 -0.0684  0.0271
34556SOL    HW110273   3.341   9.426   9.046 -0.2950 -0.2119  0.0592
34556SOL    HW210274   3.390   9.355   9.170 -0.6062  0.0379  0.3263
34557SOL     OW10275   9.602   3.516   1.616  1.1322 -0.0305 -0.0391
34557SOL    HW110276   9.516   3.479   1.596  2.0716 -1.6959 -1.2369
34557SOL    HW210277   9.590   3.611   1.608 -1.1891 -0.0121  2.4267
34558SOL     OW10278   5.318   1.097   9.211 -0.0987 -0.2052  0.5279
34558SOL    HW110279   5.297   1.014   9.170  2.8368 -1.0897  0.6192
34558SOL    HW210280   5.386   1.135   9.156 -0.0638  1.2633  1.5112
34559SOL     OW10281   5.265   1.515  11.359 -0.5729 -0.2216  0.5332
34559SOL    HW110282   5.243   1.433  11.405 -0.4985  0.7135  2.3343
34559SOL    HW210283   5.330   1.557  11.415  2.1446 -0.5313 -2.1348
34560SOL     OW10284   0.356  10.723   4.591  0.6769  0.0818  0.0630
34560SOL    HW110285   0.388  10.676   4.514 -1.4116 -0.2330 -0.6704
34560SOL    HW210286   0.398  10.679   4.665 -0.0973 -2.0713 -0.6851
34561SOL     OW10287   6.582   9.422  10.927  0.8005 -0.7426  0.6323
34561SOL    HW110288   6.542   9.414  11.014 -4.8581  3.4611 -0.9673
34561SOL    HW210289   6.534   9.359  10.873  0.6301  0.1383 -0.2711
34562SOL     OW10290   9.150   5.933  11.176  0.4014  0.3836 -0.7316
34562SOL    HW110291   9.228   5.911  11.227 -0.3006 -1.1626 -0.2647
34562SOL    HW210292   9.077   5.901  11.229 -0.4805  0.6192 -1.7698
34563SOL     OW10293   4.018   1.352   5.402 -0.6819 -0.5315  0.3180
34563SOL    HW110294   4.032   1.262   5.431 -1.5241 -0.9391 -0.4913
34563SOL    HW210295   3.966   1.344   5.323  0.0407  0.6291 -0.3133
34564SOL     OW10296  10.147   9.159  11.960 -0.2781 -0.4436 -0.0447
34564SOL    HW110297  10.093   9.220  12.010 -2.1266 -0.6924 -1.6431
34564SOL    HW210298  10.235   9.197  11.964 -0.7561  0.6173  1.6217
34565SOL     OW10299  11.512   8.469   2.751 -0.8154 -0.4804 -0.3270
34565SOL    HW110300  11.536   8.386   2.708 -0.6002  0.4126 -2.0413
34565SOL    HW210301  11.572   8.475   2.825  1.1500 -0.5559 -1.8063
34566SOL     OW10302   3.238  11.270   3.545 -0.3823 -0.0288 -0.1294
34566SOL    HW110303   3.179  11.196   3.558  1.2721 -1.0151  2.4189
34566SOL    HW210304   3.225  11.325   3.622  1.8961 -0.2516  0.4894
34567SOL     OW10305   6.201   0.676   8.178  0.2929 -0.5646  0.3531
34567SOL    HW110306   6.262   0.613   8.140  1.8124  0.2182  1.4127
34567SOL    HW210307   6.257   0.741   8.220 -1.2357  1.1290 -0.1182
34568SOL     OW10308   1.788   6.944   7.564 -0.1410 -0.3352 -0.0610
34568SOL    HW110309   1.858   6.975   7.622 -0.3294  0.2058 -0.1201
34568SOL    HW210310   1.803   6.849   7.558 -0.2202 -0.4232  1.0066
34569SOL     OW10311   9.618   5.627  11.639  0.1503  0.1028  0.2387
34569SOL    HW110312   9.672   5.698  11.604 -0.1127  0.7332  1.0813
34569SOL    HW210313   9.629   5.633  11.734 -0.2083 -0.7220  0.3444
34570SOL     OW10314   9.621   2.356   1.471 -0.0250 -0.6872 -0.2158
34570SOL    HW110315   9.597   2.340   1.562  0.1077 -5.1667 -0.7015
34570SOL    HW210316   9.542   2.334   1.421  0.6256 -0.7655 -1.2530
34571SOL     OW10317   3.155   9.282   3.166  0.4035  0.4353 -0.8876
34571SOL    HW110318   3.192   9.356   3.118  0.8970  0.3989 -0.5675
34571SOL    HW210319   3.224   9.256   3.227 -0.6457  1.2520  0.7072
34572SOL     OW10320  10.859  10.272   2.776 -0.5262 -0.0940 -0.1349
34572SOL    HW110321  10.883  10.360   2.748 -1.5655  0.2452  0.0128
34572SOL    HW210322  10.887  10.268   2.868 -1.0690  0.3129  0.0503
34573SOL     OW10323   8.992  11.691  11.305  0.0833 -0.3598 -0.0554
34573SOL    HW110324   9.029  11.608  11.337 -1.3375 -0.7916  0.5334
34573SOL    HW210325   8.902  11.691  11.337 -0.1372  1.1228 -0.6096
34574SOL     OW10326   2.775   1.009   7.074  0.0450 -0.6422 -0.6141
34574SOL    HW110327   2.826   1.036   7.150  0.1894 -0.2167 -0.8597
34574SOL    HW210328   2.684   1.031   7.097  0.3990  2.4255 -1.7796
34575SOL     OW10329   3.036   5.592  10.938 -0.2655  0.4507 -0.2348
34575SOL    HW110330   3.005   5.506  10.911 -1.1940  1.2346 -1.8746
34575SOL    HW210331   2.968   5.625  10.997  0.2146 -0.0109  0.5972
34576SOL     OW10332   8.116  10.701   2.056 -0.0768  0.0176 -0.6953
34576SOL    HW110333   8.037  10.741   2.020  0.6926  1.1134 -1.2162
34576SOL    HW210334   8.170  10.680   1.979  0.8215  0.7563 -0.2832
34577SOL     OW10335  11.703   0.817   7.623  0.7528  0.3950  0.1563
34577SOL    HW110336  11.613   0.819   7.656  0.8826 -1.4696  0.7556
34577SOL    HW210337  11.744   0.895   7.659 -0.3392  0.6917  0.7880
34578SOL     OW10338   5.139  11.644  11.488 -0.1345 -0.8427 -0.4623
34578SOL    HW110339   5.136  11.668  11.396 -0.2428 -2.8657 -1.0356
34578SOL    HW210340   5.144  11.548  11.488 -1.3270 -0.9794  1.6410
34579SOL     OW10341   4.319   0.950   9.111  0.0807 -0.0816 -0.0671
34579SOL    HW110342   4.328   0.855   9.126 -0.6498 -0.0587  0.6050
34579SOL    HW210343   4.253   0.957   9.043  0.7543 -0.0754 -0.7261
34580SOL     OW10344   5.855   0.819  10.104 -0.3557 -0.3844  0.6447
34580SOL    HW110345   5.947   0.793  10.099 -0.5261 -0.8165 -0.4143
34580SOL    HW210346   5.806   0.737  10.094 -0.9008  0.2102 -2.6403
34581SOL     OW10347   7.694   3.321   2.328 -0.2841  0.3346 -0.6694
34581SOL    HW110348   7.669   3.349   2.416 -2.1821  1.0289 -1.3880
34581SOL    HW210349   7.630   3.254   2.305  1.8145 -1.8652 -0.5226
34582SOL     OW10350   6.919   8.941   9.754  0.5621 -0.2588 -0.0425
34582SOL    HW110351   6.837   8.897   9.737  0.7019 -0.2509 -0.7695
34582SOL    HW210352   6.924   8.948   9.849 -0.6305  0.4131 -0.0170
34583SOL     OW10353   3.465   2.889   0.342 -0.4468 -0.3780 -0.0335
34583SOL    HW110354   3.467   2.805   0.296  0.7386  0.3549 -1.4058
34583SOL    HW210355   3.516   2.874   0.422 -0.3558 -1.0024 -0.2014
34584SOL     OW10356   0.691   3.428   1.006 -0.5804 -0.0090  0.1946
34584SOL    HW110357   0.697   3.425   0.911  1.1277 -1.7867  0.2916
34584SOL    HW210358   0.630   3.358   1.029 -0.8469  0.2934  0.4273
34585SOL     OW10359   4.686   9.531   3.951 -0.1507 -0.4432  0.1651
34585SOL    HW110360   4.695   9.536   4.046 -1.9454  1.1238  0.3139
34585SOL    HW210361   4.758   9.586   3.917  1.0489 -1.7315  0.5370
34586SOL     OW10362   0.658   9.751   5.581 -0.0230 -0.0013 -0.1654
34586SOL    HW110363   0.706   9.707   5.511  1.4751  0.4995  0.5273
34586SOL    HW210364   0.567   9.750   5.550  0.5017 -0.3447 -1.8295
34587SOL     OW10365   7.440   1.512  11.773  0.4456 -0.0512  0.1421
34587SOL    HW110366   7.417   1.558  11.692 -0.2123 -0.9529 -0.2041
34587SOL    HW210367   7.518   1.461  11.750 -0.7410 -1.6879 -0.4936
34588SOL     OW10368   4.194   4.291   6.458  0.1614 -0.3818 -0.5537
34588SOL    HW110369   4.123   4.350   6.434  0.7607 -0.2618 -2.1656
34588SOL    HW210370   4.236   4.333   6.533 -2.7328 -1.5402  1.9207
34589SOL     OW10371   7.167   2.720  11.907 -0.2144  0.4248  0.0100
34589SOL    HW110372   7.253   2.756  11.887 -0.9739  1.9834 -0.6288
34589SOL    HW210373   7.184   2.648  11.968  1.5397  0.5564 -0.2820
34590SOL     OW10374   1.356  10.365   0.212  0.3792 -0.7066 -0.0549
34590SOL    HW110375   1.285  10.358   0.149  0.3351  2.7292 -0.5533
34590SOL    HW210376   1.435  10.374   0.159  0.8806 -1.6891  0.4815
34591SOL     OW10377   8.810   8.039   2.343  0.3025  0.1660  0.2402
34591SOL    HW110378   8.736   8.000   2.390 -0.9212 -1.6104 -2.8714
34591SOL    HW210379   8.886   8.018   2.398 -1.1727 -0.0666  2.3502
34592SOL     OW10380   1.120   5.817   6.695 -0.0485 -0.1281  0.0310
34592SOL    HW110381   1.187   5.823   6.626 -0.0247 -2.2648 -0.2237
34592SOL    HW210382   1.130   5.728   6.729 -0.9326  0.4552  1.9333
34593SOL     OW10383   7.747  10.352  11.277  0.3492 -0.0208 -0.0857
34593SOL    HW110384   7.669  10.296  11.278  1.0187 -0.9787  0.9078
34593SOL    HW210385   7.793  10.330  11.358  0.4410  2.3001  0.5642
34594SOL     OW10386   4.662   9.806   8.775 -0.0647  0.5575  0.2150
34594SOL    HW110387   4.586   9.750   8.793 -0.4968 -0.1726 -3.1154
34594SOL    HW210388   4.629   9.895   8.779 -0.3592  0.4006  1.6161
34595SOL     OW10389   6.763  10.286  12.241 -0.3905  0.4358  0.3495
34595SOL    HW110390   6.736  10.302  12.331 -1.7004  0.1882  0.0177
34595SOL    HW210391   6.682  10.268  12.194  0.3994 -0.8593 -0.5934
34596SOL     OW10392   2.307   7.682   8.306 -0.9875  0.6181 -0.3390
34596SOL    HW110393   2.325   7.614   8.242 -0.1178 -0.3731  0.9040
34596SOL    HW210394   2.247   7.640   8.368 -1.1286  1.2683 -0.0316
34597SOL     OW10395   2.194   3.310  11.560  0.5507 -0.1435  0.3802
34597SOL    HW110396   2.170   3.293  11.651  0.1924 -0.8115  0.1712
34597SOL    HW210397   2.115   3.287  11.511  1.8709 -3.5533 -0.4509
34598SOL     OW10398  11.822   4.240   4.448  0.3063  0.0363 -0.2463
34598SOL    HW110399  11.765   4.210   4.376 -2.6003  1.7709  1.1566
34598SOL    HW210400  11.824   4.335   4.439  0.4875  0.2337  1.5541
34599SOL     OW10401   7.874   9.618  10.298 -0.0658  0.3808  0.2559
34599SOL    HW110402   7.917   9.573  10.225  0.4772  1.5147 -0.1430
34599SOL    HW210403   7.933   9.689  10.321 -0.3787  0.2235  1.6194
34600SOL     OW10404  11.158   7.069   8.938 -0.7358  0.0127  0.1732
34600SOL    HW110405  11.199   7.148   8.972  0.0478  0.6108 -1.9660
34600SOL    HW210406  11.071   7.067   8.978  0.2872  0.3017  2.5504
34601SOL     OW10407   9.171  11.861   1.704 -0.3791 -0.5251 -0.4115
34601SOL    HW110408   9.139  11.864   1.794  0.0067  0.4300 -0.3005
34601SOL    HW210409   9.155  11.771   1.676  1.2740 -1.3880  1.2543
34602SOL     OW10410   5.245   5.509   3.067  0.1261  0.7068 -0.3967
34602SOL    HW110411   5.269   5.533   3.156  0.7850 -0.9243 -0.0862
34602SOL    HW210412   5.184   5.577   3.039 -0.8968  0.7221  1.6559
34603SOL     OW10413   7.238   3.264  10.915  0.5565  0.0708  0.3615
34603SOL    HW110414   7.205   3.176  10.895 -1.0756  0.5151  0.9413
34603SOL    HW210415   7.262   3.300  10.829 -1.6516  0.1366 -0.2935
34604SOL     OW10416  11.890   4.657   0.751 -0.0938 -0.4707 -0.1330
34604SOL    HW110417  11.917   4.566   0.743 -2.0678 -1.1042 -0.0942
34604SOL    HW210418  11.852   4.679   0.666 -2.2149 -0.6377  0.7035
34605SOL     OW10419   5.927   8.476  11.488 -0.3097 -0.0620  0.3895
34605SOL    HW110420   5.954   8.554  11.536  3.0659 -2.0417  2.0746
34605SOL    HW210421   5.900   8.414  11.556  2.0624 -2.0387 -0.3227
34606SOL     OW10422   8.862   5.325   2.223 -0.3687 -0.2509 -1.1035
34606SOL    HW110423   8.908   5.268   2.285 -0.4925 -1.4003 -2.0422
34606SOL    HW210424   8.925   5.341   2.154 -0.5425  0.2700 -1.1472
34607SOL     OW10425  12.780   5.433   5.222  0.1182  0.0334  0.2856
34607SOL    HW110426  12.734   5.514   5.201 -2.3358 -1.3494 -0.0488
34607SOL    HW210427  12.728   5.393   5.292  0.8958 -1.5563  0.0044
34608SOL     OW10428   9.730  10.717  11.645 -0.5987  0.2082 -0.2459
34608SOL    HW110429   9.818  10.746  11.620 -0.5409  1.5360  1.3315
34608SOL    HW210430   9.722  10.629  11.607  1.5336 -0.0889 -0.1319
34609SOL     OW10431   6.312   6.290   6.972 -0.0608 -0.0019 -0.1868
34609SOL    HW110432   6.375   6.235   7.018  2.0520  3.1816  1.0337
34609SOL    HW210433   6.334   6.280   6.879 -0.8176 -2.3262 -0.1898
34610SOL     OW10434   2.980  11.705   1.851  0.4351 -0.0993  0.2178
34610SOL    HW110435   2.963  11.798   1.843 -0.7518 -0.3228 -0.0239
34610SOL    HW210436   3.056  11.689   1.795  3.1928  1.3476  3.1998
34611SOL     OW10437  12.270   1.365  11.680  0.1925  0.1471 -0.9983
34611SOL    HW110438  12.189   1.337  11.637 -0.6254 -0.1159  0.6205
34611SOL    HW210439  12.285   1.299  11.748  1.4581  0.5144 -0.8975
34612SOL     OW10440   8.415   8.922   9.994  0.2980 -0.3243  0.0243
34612SOL    HW110441   8.397   8.833  10.025 -1.3127  0.2955  0.9622
34612SOL    HW210442   8.405   8.977  10.071  0.4366  0.7870 -0.7264
34613SOL     OW10443   7.251   9.065  11.655  0.0289  0.0865  0.1149
34613SOL    HW110444   7.300   8.983  11.665 -0.9493 -0.4289  0.9258
34613SOL    HW210445   7.161   9.041  11.676 -0.5832  1.0002 -1.3694
34614SOL     OW10446   1.888   5.240   3.396  0.2095 -0.1871 -0.3449
34614SOL    HW110447   1.963   5.233   3.337  0.0509 -0.4466 -0.5207
34614SOL    HW210448   1.826   5.295   3.349  1.3494  2.3438  0.9298
34615SOL     OW10449   0.789   7.621   0.481 -0.6236  0.3766 -0.0362
34615SOL    HW110450   0.784   7.549   0.418  1.9054  0.3841 -0.3646
34615SOL    HW210451   0.710   7.673   0.466 -1.5660 -1.2739 -1.0841
34616SOL     OW10452  12.441  12.678   9.938  0.5287 -0.5248  0.1471
34616SOL    HW110453  12.392  12.756   9.912 -1.5264 -2.0002 -0.6811
34616SOL    HW210454  12.491  12.706  10.015  0.2518  1.7164 -0.4160
34617SOL     OW10455   5.760   2.183  11.452  0.3980  0.4998 -0.0589
34617SOL    HW110456   5.697   2.116  11.425  2.3975 -1.3949 -0.3586
34617SOL    HW210457   5.797   2.215  11.369  0.4048  0.9945  0.1337
34618SOL     OW10458   5.089   0.534   7.513 -0.9669 -0.3912 -0.1319
34618SOL    HW110459   5.113   0.442   7.524 -0.4449 -0.4881 -1.7920
34618SOL    HW210460   5.047   0.538   7.427 -0.6901  0.9786 -0.2363
34619SOL     OW10461  12.476   2.628   5.894 -0.3643  0.0392  0.2833
34619SOL    HW110462  12.527   2.672   5.825  1.4572  0.5978  1.8891
34619SOL    HW210463  12.408   2.580   5.846  2.0234 -1.2718 -2.0821
34620SOL     OW10464   5.237   1.120   1.294  0.1435 -0.3855  0.0391
34620SOL    HW110465   5.194   1.127   1.209 -1.3854  0.0888  0.8240
34620SOL    HW210466   5.284   1.202   1.304  0.4053 -0.4814 -0.3752
34621SOL     OW10467   6.304  10.901   7.711 -0.0927  0.2768 -0.3385
34621SOL    HW110468   6.274  10.816   7.743 -1.1024  0.2341 -1.3545
34621SOL    HW210469   6.269  10.963   7.776  2.4212 -0.1793  1.5989
34622SOL     OW10470   7.451   9.625   2.299 -0.6323  0.5160  0.5075
34622SOL    HW110471   7.378   9.572   2.266 -0.9438  0.0074  1.9324
34622SOL    HW210472   7.517   9.561   2.324  0.0013  0.9410 -0.0597
34623SOL     OW10473   7.400  12.451   0.921  0.4508 -0.2818  0.0245
34623SOL    HW110474   7.376  12.509   0.993  2.0516 -0.8669  1.0722
34623SOL    HW210475   7.373  12.363   0.950  1.4329 -0.5727  0.0953
34624SOL     OW10476   9.873   5.279   2.312  0.2240  0.2799  0.2532
34624SOL    HW110477   9.862   5.344   2.242  2.6491 -0.4174 -0.9120
34624SOL    HW210478   9.810   5.305   2.379 -0.3721  2.5575 -1.0600
34625SOL     OW10479   9.119  12.120   8.747 -0.4016 -0.3241 -0.1258
34625SOL    HW110480   9.184  12.146   8.681 -1.3838 -0.4218 -1.1706
34625SOL    HW210481   9.095  12.031   8.723 -2.7051  0.5281 -1.3242
34626SOL     OW10482  10.549   7.993   7.925 -0.7314 -0.2651 -0.1440
34626SOL    HW110483  10.589   7.928   7.867 -0.8772 -0.3247 -0.1772
34626SOL    HW210484  10.555   8.075   7.876  0.1483 -0.1039  0.2130
34627SOL     OW10485   5.597  11.735   8.678  0.0347  0.5198  0.4360
34627SOL    HW110486   5.524  11.796   8.687 -1.3007 -1.1429  1.5216
34627SOL    HW210487   5.619  11.711   8.769 -0.7002 -1.9399  0.0390
34628SOL     OW10488   5.705  10.683   1.973 -0.3875  0.1074 -0.6419
34628SOL    HW110489   5.752  10.766   1.967  0.0106 -0.1171 -0.6601
34628SOL    HW210490   5.662  10.674   1.888 -0.5318  0.3532 -0.5955
34629SOL     OW10491   2.525   0.774   3.107  0.5175 -0.2675  0.3758
34629SOL    HW110492   2.554   0.709   3.043 -1.5375 -0.6517 -0.2598
34629SOL    HW210493   2.429   0.769   3.103  0.2902  2.6126  0.5252
34630SOL     OW10494   0.781   3.535   2.912  0.0315 -0.6227  0.2831
34630SOL    HW110495   0.847   3.466   2.901  2.7196  1.8631 -0.6499
34630SOL    HW210496   0.807   3.603   2.851 -2.8898  0.9841  0.6484
34631SOL     OW10497   5.127   2.827   0.861 -0.3402 -0.6154 -0.7005
34631SOL    HW110498   5.126   2.905   0.806  0.3104  0.3015  0.5225
34631SOL    HW210499   5.044   2.782   0.842  0.7078 -1.4171 -3.8279
34632SOL     OW10500  11.910   7.620  11.152 -0.7960 -0.6176 -0.3749
34632SOL    HW110501  11.822   7.582  11.147 -1.2954  0.6523 -2.4949
34632SOL    HW210502  11.919   7.670  11.071  0.8459  1.5536  1.0469
34633SOL     OW10503  11.045   7.162   9.821 -0.3605 -0.6558  0.4057
34633SOL    HW110504  11.088   7.164   9.736  0.8244 -2.0654  0.9250
34633SOL    HW210505  10.968   7.107   9.809  0.1965 -1.4459  0.3985
34634SOL     OW10506   8.231   7.349   5.458  0.1843 -0.0314 -0.0655
34634SOL    HW110507   8.318   7.360   5.420 -0.5936  1.0887 -1.6423
34634SOL    HW210508   8.205   7.437   5.484 -0.6226 -0.3078  0.0835
34635SOL     OW10509   0.795   4.475   7.224 -0.1211 -0.4648  0.2536
34635SOL    HW110510   0.715   4.501   7.179  0.4579 -1.9969 -1.7930
34635SOL    HW210511   0.778   4.385   7.252 -0.1096  0.1250  2.3799
34636SOL     OW10512   5.457   0.852   2.168  0.2574 -0.4520 -0.5076
34636SOL    HW110513   5.365   0.833   2.186 -0.6035  3.2870 -0.1453
34636SOL    HW210514   5.457   0.885   2.078  1.2189 -0.2128 -0.4249
34637SOL     OW10515   2.972   4.886   4.086  0.3453  0.2409 -0.4712
34637SOL    HW110516   2.980   4.966   4.036 -1.5957 -0.4790 -2.0793
34637SOL    HW210517   2.940   4.914   4.172  3.1113  1.4318  0.2652
34638SOL     OW10518  12.492   0.863  12.710  0.0470  0.3741  0.8741
34638SOL    HW110519  12.417   0.873  12.651 -0.1811 -2.3643  0.5306
34638SOL    HW210520  12.455   0.821  12.788  1.0636 -0.3222  1.0024
34639SOL     OW10521   0.081   4.594   5.972 -0.5886  0.0394  0.2729
34639SOL    HW110522  -0.014   4.596   5.963 -0.5760 -0.8736 -0.2104
34639SOL    HW210523   0.097   4.533   6.044 -0.3744  0.5213  0.6433
34640SOL     OW10524   3.747   6.569   4.606  0.4434  0.3978  0.2259
34640SOL    HW110525   3.794   6.524   4.676  0.9889  1.7850  0.8015
34640SOL    HW210526   3.677   6.617   4.651 -0.4352 -0.2570 -0.4238
34641SOL     OW10527   1.789   4.674   7.491  0.0605 -0.2724 -0.0600
34641SOL    HW110528   1.703   4.641   7.465  0.5937 -0.1973 -2.0343
34641SOL    HW210529   1.849   4.602   7.469  0.8732  0.8528 -1.6978
34642SOL     OW10530   8.945   0.327   3.304  0.2329  0.0090 -0.2287
34642SOL    HW110531   8.913   0.392   3.367 -0.7581 -0.7930  0.1261
34642SOL    HW210532   9.014   0.372   3.256  0.3281  0.9613  0.7610
34643SOL     OW10533   5.597   1.713  11.194 -0.6046  0.0410 -0.1180
34643SOL    HW110534   5.676   1.767  11.193  0.9326 -1.9683 -3.2798
34643SOL    HW210535   5.618   1.642  11.255  0.6222 -1.0682 -1.7204
34644SOL     OW10536   7.617  11.473   1.141  0.0372 -0.2019 -0.2036
34644SOL    HW110537   7.651  11.561   1.122 -0.1620 -0.1300 -0.2393
34644SOL    HW210538   7.570  11.449   1.061 -1.3040  0.3459  0.3858
34645SOL     OW10539  10.204   2.496   2.707  0.2816  0.2715 -0.0814
34645SOL    HW110540  10.262   2.542   2.768 -0.1593 -1.7024  1.9660
34645SOL    HW210541  10.179   2.563   2.643  1.6307  2.2002  1.2766
34646SOL     OW10542  10.976   0.027   5.476  0.2394  0.1366  0.4830
34646SOL    HW110543  11.015   0.100   5.525 -0.4091  0.2018  0.9218
34646SOL    HW210544  10.980  -0.047   5.537 -0.1894  0.1101  0.4783
34647SOL     OW10545   9.853  12.097   7.091 -0.2441 -0.1402  0.3086
34647SOL    HW110546   9.777  12.149   7.066  0.6727  0.6693 -0.9393
34647SOL    HW210547   9.911  12.160   7.135 -0.0059 -0.5967  0.6539
34648SOL     OW10548   1.902   8.108  10.436 -0.2374 -0.4583 -0.1771
34648SOL    HW110549   1.988   8.066  10.429 -0.7367 -1.9602  1.6120
34648SOL    HW210550   1.921   8.200  10.455  1.0395 -0.9348  1.0788
34649SOL     OW10551   2.823   0.555  11.241 -0.6181 -0.1923 -0.6160
34649SOL    HW110552   2.752   0.578  11.301  0.2505 -0.9734  0.7979
34649SOL    HW210553   2.899   0.602  11.276  0.5463 -2.8299  0.6844
34650SOL     OW10554   1.104   4.190   7.471  0.8043  0.8269 -0.0187
34650SOL    HW110555   1.063   4.195   7.557  2.0520  1.0562  0.5819
34650SOL    HW210556   1.146   4.275   7.459  1.4008  0.4779 -0.4549
34651SOL     OW10557   0.463   9.435   5.007  0.0125  0.2599 -0.0081
34651SOL    HW110558   0.503   9.517   5.037 -1.1681  0.5464  0.8442
34651SOL    HW210559   0.530   9.369   5.022  0.4065  0.8284  0.8067
34652SOL     OW10560  11.036  10.965   9.769 -0.0942  0.0624  0.0339
34652SOL    HW110561  11.010  11.007   9.687 -2.1853  2.2351  1.6780
34652SOL    HW210562  10.985  10.884   9.771 -0.6530  0.3935 -0.4596
34653SOL     OW10563   1.136   7.179   9.380 -0.3357 -0.0235 -0.4872
34653SOL    HW110564   1.102   7.229   9.305  0.3051  1.0539 -0.0919
34653SOL    HW210565   1.063   7.176   9.442 -0.4192  0.3486 -0.5618
34654SOL     OW10566  12.680  12.079   3.145  0.1755  0.2428  0.7491
34654SOL    HW110567  12.668  11.984   3.143  1.3345  0.0883  0.2539
34654SOL    HW210568  12.608  12.112   3.199 -1.9629 -0.6394 -1.3783
34655SOL     OW10569  11.029   6.111   9.889  0.7817 -0.0128  0.1469
34655SOL    HW110570  10.954   6.169   9.879  1.3970  1.3763  2.6500
34655SOL    HW210571  11.009   6.035   9.834 -1.3856  1.3001 -0.9966
34656SOL     OW10572   0.573   7.398   2.625 -0.2494 -0.5769 -0.3936
34656SOL    HW110573   0.643   7.345   2.663 -1.9784 -0.9286  2.6301
34656SOL    HW210574   0.556   7.357   2.540  2.0099 -1.5234 -0.4568
34657SOL     OW10575   1.751   4.175   3.389 -0.2176 -0.1670  0.3208
34657SOL    HW110576   1.833   4.134   3.419 -1.2209 -2.7829 -0.2032
34657SOL    HW210577   1.691   4.165   3.463  0.1290  2.5709  1.0445
34658SOL     OW10578   8.466   7.514   4.768  0.9318  0.3549 -0.4497
34658SOL    HW110579   8.452   7.608   4.758  1.7643  0.5101 -0.2415
34658SOL    HW210580   8.544   7.507   4.824  0.0712 -0.4553  0.7102
34659SOL     OW10581  12.295   1.821   5.541  0.2351  0.6860 -0.2110
34659SOL    HW110582  12.253   1.875   5.474 -2.3121  1.0751  1.5489
34659SOL    HW210583  12.331   1.747   5.493 -1.1144  1.1539 -2.0624
34660SOL     OW10584   5.930   0.859   7.279  0.2870 -0.7826 -0.3691
34660SOL    HW110585   5.994   0.821   7.338  0.3395  0.3607  0.3301
34660SOL    HW210586   5.954   0.951   7.272 -0.2045 -0.7175 -1.5355
34661SOL     OW10587   6.404  12.251   8.142 -0.1810  0.1385 -0.1365
34661SOL    HW110588   6.372  12.336   8.172 -3.0012 -1.0417  0.5195
34661SOL    HW210589   6.396  12.194   8.219 -0.4350 -1.2172 -1.1296
34662SOL     OW10590   5.332   2.394  10.783  0.1494 -0.0119  0.5525
34662SOL    HW110591   5.284   2.436  10.711 -1.1374 -0.4913  1.1161
34662SOL    HW210592   5.367   2.467  10.834 -0.0573  0.3394  0.1973
34663SOL     OW10593   8.728   5.747  12.241  0.5375  0.6326  0.8525
34663SOL    HW110594   8.772   5.730  12.324  0.2679 -1.7985  0.5775
34663SOL    HW210595   8.635   5.748  12.263  0.4113 -0.8008  0.5444
34664SOL     OW10596  10.103   8.995  10.417  1.0928  0.1201  0.1934
34664SOL    HW110597  10.076   9.008  10.508  0.7562  1.1988 -0.0389
34664SOL    HW210598  10.026   8.960  10.374  1.3285 -0.6244  0.3713
34665SOL     OW10599   1.727   0.175   3.041 -0.3641 -0.5750 -0.6941
34665SOL    HW110600   1.683   0.110   3.095 -0.7811 -0.5414 -0.9901
34665SOL    HW210601   1.672   0.183   2.964 -0.1108 -0.1522 -0.8326
34666SOL     OW10602   8.234   0.654   6.206  0.4129 -0.3627 -0.1548
34666SOL    HW110603   8.177   0.577   6.210 -1.6095  0.9777 -1.3931
34666SOL    HW210604   8.205   0.708   6.279  0.3367  0.1627 -0.5706
34667SOL     OW10605   5.204   6.800   3.918 -0.1985  0.1732 -0.2619
34667SOL    HW110606   5.166   6.738   3.981 -0.9707  0.0830 -0.8046
34667SOL    HW210607   5.299   6.784   3.924 -0.4181 -1.7580 -1.0701
34668SOL     OW10608  11.281   2.936   6.272 -0.3312 -0.1506  0.5169
34668SOL    HW110609  11.269   2.886   6.191 -0.2050  0.4732  0.1085
34668SOL    HW210610  11.375   2.952   6.277 -0.2929 -0.4977  0.9815
34669SOL     OW10611   4.498  11.999   8.569 -0.0342  0.0743 -0.1572
34669SOL    HW110612   4.528  12.063   8.634 -0.4593 -1.1679  1.3381
34669SOL    HW210613   4.523  11.914   8.606 -0.9092 -0.7135 -1.2997
34670SOL     OW10614   3.426   7.642   9.872  0.5341 -0.2913 -0.0264
34670SOL    HW110615   3.516   7.673   9.859  0.7800 -0.6821  0.6717
34670SOL    HW210616   3.394   7.693   9.947  0.8380 -1.4781  0.9359
34671SOL     OW10617   2.327   8.523  10.656  0.2150 -0.1302 -0.1524
34671SOL    HW110618   2.286   8.445  10.618 -0.6041  0.6503 -0.8965
34671SOL    HW210619   2.421   8.511  10.639  0.1685 -1.1976  0.2199
34672SOL     OW10620   8.482   0.043   7.028 -0.4453 -0.1589 -0.3587
34672SOL    HW110621   8.539   0.077   7.098  0.3974  1.7924 -1.8876
34672SOL    HW210622   8.407   0.103   7.028 -0.2010  0.1678 -1.4090
34673SOL     OW10623   1.639   5.869   6.344  0.0703 -0.0393  0.1952
34673SOL    HW110624   1.626   5.927   6.269  1.8397  0.9679  0.6088
34673SOL    HW210625   1.574   5.897   6.408 -0.0196  0.5495 -0.1518
34674SOL     OW10626   2.249   4.881  11.850 -0.1542  0.2153  0.1635
34674SOL    HW110627   2.309   4.954  11.839  1.0470 -0.9119 -1.3064
34674SOL    HW210628   2.300   4.816  11.898 -1.1059  0.2125  1.2008
34675SOL     OW10629  12.527   4.204   6.417 -0.0057 -0.0879  0.3928
34675SOL    HW110630  12.582   4.270   6.375 -1.3777 -0.7740 -2.7129
34675SOL    HW210631  12.589   4.138   6.450  1.2433  1.6324  1.6796
34676SOL     OW10632   5.904  12.646   3.277 -0.2687  0.4175 -0.6169
34676SOL    HW110633   5.888  12.620   3.368  0.9437  2.5210  0.2801
34676SOL    HW210634   5.838  12.713   3.260 -0.5125  0.0022 -1.2889
34677SOL     OW10635   6.273   2.516   8.390  0.1653  0.2615  0.4243
34677SOL    HW110636   6.352   2.558   8.356  0.3449  0.5854  1.2080
34677SOL    HW210637   6.212   2.587   8.407 -1.9628 -0.1733 -3.9650
34678SOL     OW10638  11.322   9.017   7.614 -0.4798  0.4391 -0.2229
34678SOL    HW110639  11.314   8.974   7.529  0.0767  1.3075 -0.7351
34678SOL    HW210640  11.244   9.072   7.622 -0.0138  1.1837 -0.6714
34679SOL     OW10641   9.634   6.582  10.855 -0.0618 -0.0300  0.7715
34679SOL    HW110642   9.598   6.582  10.944 -1.2364  0.4014  0.3243
34679SOL    HW210643   9.714   6.530  10.861 -0.1258 -0.0146  2.0738
34680SOL     OW10644   6.575   5.458   1.002 -0.4436  0.0305 -0.8937
34680SOL    HW110645   6.614   5.542   1.027 -1.9679 -0.3036  3.4052
34680SOL    HW210646   6.651   5.400   0.988  0.6210  1.2936 -0.5417
34681SOL     OW10647   6.063   1.248   9.694 -0.2554 -0.2369 -0.0352
34681SOL    HW110648   6.071   1.287   9.607 -0.5168  0.3602  0.2039
34681SOL    HW210649   6.011   1.311   9.744 -0.3670 -0.7204  0.4663
34682SOL     OW10650   7.218   5.156   2.216 -0.2464 -0.1600 -0.4555
34682SOL    HW110651   7.282   5.164   2.145 -1.5073  1.6974 -1.4585
34682SOL    HW210652   7.134   5.150   2.172 -0.9795  0.0083  0.8787
34683SOL     OW10653   7.097   1.542   2.387  0.4834  0.2587  0.3873
34683SOL    HW110654   7.186   1.568   2.364  1.2502 -2.2079  0.3713
34683SOL    HW210655   7.077   1.469   2.328 -2.0459  1.4751 -0.4327
34684SOL     OW10656   0.881   4.694   6.692  0.0274 -0.1999  0.4128
34684SOL    HW110657   0.847   4.624   6.637 -0.7261  1.1150 -0.8662
34684SOL    HW210658   0.868   4.662   6.782 -0.2247 -1.7023 -0.1251
34685SOL     OW10659  11.562  10.151   0.951 -0.4459  0.5163  1.0805
34685SOL    HW110660  11.493  10.131   0.887 -1.3771 -0.3711  2.3182
34685SOL    HW210661  11.635  10.184   0.898 -1.6780  1.1394 -0.2972
34686SOL     OW10662  11.199   9.022  10.972 -0.4424  0.0872  0.1942
34686SOL    HW110663  11.258   9.073  11.027 -1.9264 -1.2733  3.2803
34686SOL    HW210664  11.139   9.086  10.935 -0.1972  0.9435  1.2326
34687SOL     OW10665   7.700   2.968  10.881 -0.4111  0.7004 -0.0350
34687SOL    HW110666   7.795   2.974  10.883 -0.5066  3.8484 -0.4236
34687SOL    HW210667   7.678   2.976  10.788 -1.0713 -2.5565 -0.2916
34688SOL     OW10668   3.783   4.265  12.009 -0.4729 -0.3369  0.0442
34688SOL    HW110669   3.844   4.310  12.067 -0.3038 -0.4594 -0.0369
34688SOL    HW210670   3.768   4.326  11.937 -0.2015 -0.4328 -0.0929
34689SOL     OW10671   9.717  10.923  10.756  0.2777 -0.6345 -0.2403
34689SOL    HW110672   9.632  10.879  10.765 -0.3000  0.3135 -0.7796
34689SOL    HW210673   9.720  10.984  10.829 -0.0034  0.0998 -0.8291
34690SOL     OW10674   1.279  12.339   1.413 -0.4169  0.2486 -0.3759
34690SOL    HW110675   1.332  12.361   1.336 -0.0883  1.1288  0.0948
34690SOL    HW210676   1.342  12.302   1.475 -0.7807 -1.0319 -0.7415
34691SOL     OW10677   6.520   9.128   8.997  0.0382 -0.1845 -0.0368
34691SOL    HW110678   6.467   9.074   9.055 -1.0592 -0.9895 -1.7228
34691SOL    HW210679   6.472   9.211   8.992  1.0994  0.5854  1.5986
34692SOL     OW10680   2.802   5.130   5.008 -0.0704 -0.0172  0.0948
34692SOL    HW110681   2.775   5.181   4.931  1.2560  3.3132  1.6116
34692SOL    HW210682   2.879   5.081   4.978 -0.9535 -0.6352 -1.2643
34693SOL     OW10683   7.823  12.573   4.337 -0.0121  0.1642  0.4066
34693SOL    HW110684   7.767  12.577   4.415 -0.5687  0.0341  0.0190
34693SOL    HW210685   7.885  12.502   4.357  1.0569  1.3460  1.4976
34694SOL     OW10686  10.097   1.407   8.035 -0.2427 -0.2230 -0.6291
34694SOL    HW110687  10.032   1.386   8.103 -0.2632 -0.1430 -0.6229
34694SOL    HW210688  10.048   1.460   7.972  0.6448  3.0834  1.2109
34695SOL     OW10689   5.803  10.367  11.400  0.1918 -0.0173 -0.4429
34695SOL    HW110690   5.709  10.376  11.415  0.3322  2.0358 -0.4473
34695SOL    HW210691   5.811  10.295  11.338 -1.2900 -0.8895  0.3253
34696SOL     OW10692   2.174   8.201   4.907 -0.3821  0.2276 -0.2690
34696SOL    HW110693   2.154   8.287   4.943  0.4063 -0.1618  1.2127
34696SOL    HW210694   2.089   8.156   4.904 -0.8536  1.1528 -1.4041
34697SOL     OW10695  10.076   6.420   0.149 -0.4830  0.0312  0.0398
34697SOL    HW110696  10.061   6.492   0.088 -0.2967 -1.2970 -1.6526
34697SOL    HW210697  10.144   6.452   0.209 -1.0145  1.5366 -0.1257
34698SOL     OW10698   5.854   6.248   9.007  0.3518  0.6224  0.7373
34698SOL    HW110699   5.825   6.337   8.987  0.4912  0.5212  0.0670
34698SOL    HW210700   5.793   6.217   9.074 -0.6823  0.6418 -0.1832
34699SOL     OW10701   0.603   5.038  10.186  0.0064 -0.0505 -0.5193
34699SOL    HW110702   0.544   5.089  10.242  2.0534  1.3789  0.4649
34699SOL    HW210703   0.548   4.968  10.151 -1.9008  0.3122  1.5121
34700SOL     OW10704   0.530   3.688  10.911  0.6126  0.1696 -0.3468
34700SOL    HW110705   0.608   3.640  10.882 -0.4716 -0.6131 -2.1746
34700SOL    HW210706   0.556   3.780  10.910  1.5447 -0.0890 -0.8411
34701SOL     OW10707   5.036   5.776  12.039  0.0773  0.0485 -0.0621
34701SOL    HW110708   5.082   5.736  12.112  0.0685  0.1877  0.0203
34701SOL    HW210709   5.022   5.704  11.977 -0.6442 -0.2458  0.4304
34702SOL     OW10710   8.409   9.801   5.494  0.2750  0.1113  0.1215
34702SOL    HW110711   8.423   9.887   5.454  3.5821 -0.0051  0.7973
34702SOL    HW210712   8.426   9.738   5.424 -0.4448 -0.0353  0.0697
34703SOL     OW10713   6.857   3.534   5.646 -0.4005 -0.5187 -0.0914
34703SOL    HW110714   6.934   3.531   5.701 -1.0518 -2.4870  0.8305
34703SOL    HW210715   6.877   3.473   5.574 -0.1936  0.7822 -1.1697
34704SOL     OW10716   9.187  12.401   7.690 -0.4167  0.5898 -0.4210
34704SOL    HW110717   9.188  12.310   7.660 -1.2752  0.1303  0.8567
34704SOL    HW210718   9.154  12.396   7.780  1.8960  1.9083  0.5950
34705SOL     OW10719   6.232   4.855   5.313  0.0733 -0.1376 -0.1422
34705SOL    HW110720   6.295   4.790   5.345  0.2384 -0.5106 -1.2041
34705SOL    HW210721   6.283   4.936   5.304  0.9963 -0.9344 -3.0474
34706SOL     OW10722  11.663   8.793   6.948 -0.2819  0.1047 -0.2140
34706SOL    HW110723  11.727   8.864   6.957 -1.4311  1.0772  0.5475
34706SOL    HW210724  11.698   8.739   6.877  0.6447  1.4157 -0.8079
34707SOL     OW10725   3.276   8.752   1.606  0.0980 -0.1945 -0.1325
34707SOL    HW110726   3.264   8.690   1.677  1.0409 -0.8358 -0.5019
34707SOL    HW210727   3.194   8.801   1.601 -0.4862 -1.1011  0.4655
34708SOL     OW10728  10.641   9.419  10.889 -0.0983 -0.0631 -0.1829
34708SOL    HW110729  10.602   9.390  10.806  0.2121 -1.2543  0.0696
34708SOL    HW210730  10.709   9.354  10.907  0.1079  0.4178  0.8040
34709SOL     OW10731   2.683   2.907   1.304  0.1688  0.4015 -0.1086
34709SOL    HW110732   2.694   2.925   1.397  0.3339  0.8148 -0.2050
34709SOL    HW210733   2.594   2.874   1.296  0.1481  0.3817  0.1915
34710SOL     OW10734   4.757   7.643   6.335  0.3111 -0.5700 -0.4300
34710SOL    HW110735   4.713   7.701   6.273 -0.7106 -0.1370  0.6505
34710SOL    HW210736   4.827   7.697   6.372  0.9135 -0.8252 -1.1714
34711SOL     OW10737   9.117  12.118   1.986 -0.2151 -0.6115 -0.0708
34711SOL    HW110738   9.029  12.122   1.948 -0.4107 -2.2679  0.1186
34711SOL    HW210739   9.112  12.173   2.064 -0.6890  0.3772 -0.7807
34712SOL     OW10740  12.620   2.313   1.599 -0.4072  0.0425  0.0633
34712SOL    HW110741  12.568   2.236   1.618 -0.4622 -0.0306 -0.3909
34712SOL    HW210742  12.563   2.370   1.548  0.3012 -0.5280 -1.4420
34713SOL     OW10743   1.497   5.497  12.530 -0.1519 -0.2886 -0.1030
34713SOL    HW110744   1.568   5.541  12.576 -1.2412 -1.7576  3.3082
34713SOL    HW210745   1.527   5.407  12.519 -0.4862 -0.2977 -1.0768
34714SOL     OW10746   4.843   4.853  11.338  0.4088  0.1166 -0.2943
34714SOL    HW110747   4.832   4.784  11.404  0.4031  1.3880  1.0969
34714SOL    HW210748   4.935   4.877  11.344  0.2221  0.8096 -0.1643
34715SOL     OW10749   6.104   4.768  10.922  0.2055  0.2846  0.2836
34715SOL    HW110750   6.083   4.846  10.974 -0.9558 -1.2237  2.1913
34715SOL    HW210751   6.101   4.799  10.831 -1.9216  2.1181  0.8789
34716SOL     OW10752   8.166   1.915   4.787  0.5629 -0.5046  0.3240
34716SOL    HW110753   8.113   1.987   4.822 -0.3617 -1.1521  0.3125
34716SOL    HW210754   8.144   1.841   4.843 -0.0747 -1.2834 -0.9029
34717SOL     OW10755   5.379   1.855  10.310 -0.2380 -0.2728 -0.2720
34717SOL    HW110756   5.386   1.825  10.220 -0.4969  0.4023 -0.5200
34717SOL    HW210757   5.285   1.855  10.328 -0.3722  1.8321 -0.7819
34718SOL     OW10758  10.772   5.847   0.254  0.1209 -0.5131 -0.4108
34718SOL    HW110759  10.714   5.821   0.182 -0.6951 -0.5092  0.2220
34718SOL    HW210760  10.764   5.942   0.258  1.5695 -0.3196 -1.4561
34719SOL     OW10761   3.212   8.589   6.829  0.1638 -0.4951  0.0139
34719SOL    HW110762   3.179   8.678   6.837  3.9473  1.0699  0.2376
34719SOL    HW210763   3.195   8.565   6.738 -0.0605  0.8594 -0.3198
34720SOL     OW10764   7.451   7.070   8.075  0.5128 -0.1346  0.1827
34720SOL    HW110765   7.427   7.161   8.060  1.8925  0.3580  0.8344
34720SOL    HW210766   7.437   7.057   8.169 -0.5883 -0.8996 -0.0623
34721SOL     OW10767   6.147   1.495  10.913 -0.0446  0.2140 -0.1923
34721SOL    HW110768   6.221   1.434  10.910  0.9658  1.3610  0.5488
34721SOL    HW210769   6.106   1.479  10.997  0.4543  0.8047  0.1699
34722SOL     OW10770   6.473   8.493  11.235  0.3882  0.1486 -0.0992
34722SOL    HW110771   6.470   8.406  11.194  1.4278  0.0195  0.0710
34722SOL    HW210772   6.394   8.496  11.289  1.0480 -1.2983  1.0372
34723SOL     OW10773  10.161  11.931  10.047  0.3644 -0.0281  0.1230
34723SOL    HW110774  10.242  11.886  10.068  0.4827  0.0663 -0.1271
34723SOL    HW210775  10.168  12.015  10.092  0.7947  0.3374 -0.6062
34724SOL     OW10776   8.005  11.952   3.227 -0.4811 -0.5769 -0.1964
34724SOL    HW110777   8.077  11.983   3.172  0.1261 -1.0666  0.3093
34724SOL    HW210778   7.980  11.869   3.188 -1.3600 -0.0014 -0.8851
34725SOL     OW10779   6.548   3.368   6.863 -0.3385 -0.4452  0.3511
34725SOL    HW110780   6.488   3.299   6.892 -1.4104  0.2945 -0.0252
34725SOL    HW210781   6.569   3.345   6.772  1.7654 -1.9071  1.1375
34726SOL     OW10782   6.455   5.472   7.126  0.0132 -0.0143 -0.2362
34726SOL    HW110783   6.407   5.475   7.209  0.6329  1.0598  0.1005
34726SOL    HW210784   6.516   5.545   7.131  0.0660  0.0677 -1.6406
34727SOL     OW10785   9.673   9.425   2.520  0.2409  0.8270 -0.5407
34727SOL    HW110786   9.717   9.411   2.436  0.2010 -0.9649 -0.2975
34727SOL    HW210787   9.742   9.412   2.585 -0.4172 -1.2539 -0.1853
34728SOL     OW10788   4.170   9.894   0.241  0.1768 -0.4663 -1.1061
34728SOL    HW110789   4.185   9.800   0.227  0.7448 -0.3116 -1.6175
34728SOL    HW210790   4.086   9.899   0.286  0.7640 -1.2893  0.1161
34729SOL     OW10791   0.232   3.772   4.195  0.3765  0.3785 -0.2350
34729SOL    HW110792   0.153   3.820   4.175 -0.8272 -0.3290  2.3193
34729SOL    HW210793   0.281   3.829   4.254  0.9372  0.1157 -0.4353
34730SOL     OW10794  10.010  10.060   3.484 -0.3176  0.1816  0.1174
34730SOL    HW110795   9.934  10.040   3.431  0.2970 -0.5194 -0.5099
34730SOL    HW210796  10.011   9.992   3.552  0.2520 -0.3464 -0.4131
34731SOL     OW10797   8.790  11.356   5.380  0.2673  0.2291 -0.5480
34731SOL    HW110798   8.854  11.344   5.310  1.8952  1.3807  0.6535
34731SOL    HW210799   8.798  11.278   5.434 -1.2375 -0.8218 -1.7658
34732SOL     OW10800   7.106   5.822  10.777  0.4283 -0.0407  0.3054
34732SOL    HW110801   7.097   5.914  10.751  0.9989  0.3184  1.3035
34732SOL    HW210802   7.027   5.780  10.743  0.1300  0.8263 -0.1228
34733SOL     OW10803   8.333   9.035  11.692 -0.1607  0.1321  0.1351
34733SOL    HW110804   8.397   9.005  11.757  1.9541  0.8515 -1.5023
34733SOL    HW210805   8.344   8.975  11.619 -1.1565  0.4813 -0.3192
34734SOL     OW10806   4.559   1.891  12.015 -0.2147 -0.4313 -0.0611
34734SOL    HW110807   4.636   1.838  12.036 -0.2679  0.2495  2.1209
34734SOL    HW210808   4.595   1.977  11.994 -0.3838  0.2807  2.3390
34735SOL     OW10809  10.793  12.092   1.917  0.4835 -0.1630  0.1936
34735SOL    HW110810  10.844  12.053   1.988  0.5701  0.6286  0.5754
34735SOL    HW210811  10.815  12.039   1.840  2.3101  0.4656  0.2344
34736SOL     OW10812   7.093  10.869  11.261  0.3573 -0.3905 -0.0435
34736SOL    HW110813   7.164  10.889  11.322 -0.7328 -0.7412  1.3836
34736SOL    HW210814   7.136  10.869  11.175  2.4772 -2.3771  0.8919
34737SOL     OW10815   6.159   7.277  10.432  0.2667 -0.5711 -0.7738
34737SOL    HW110816   6.085   7.245  10.484  0.1121  1.6622  0.4913
34737SOL    HW210817   6.228   7.211  10.448 -1.3924 -2.7606 -2.1015
34738SOL     OW10818   5.972   4.226   5.279  0.7697  0.5464  0.3098
34738SOL    HW110819   6.005   4.261   5.362  0.7046  0.7222  0.2621
34738SOL    HW210820   5.888   4.270   5.266 -0.3877 -1.2271  1.3367
34739SOL     OW10821   4.010   5.218   7.309  0.4263  0.1782 -0.3120
34739SOL    HW110822   4.002   5.307   7.275 -1.2063  0.2525  0.1678
34739SOL    HW210823   3.941   5.169   7.264  0.8299 -0.6699 -0.0296
34740SOL     OW10824   1.659   1.711   1.366  0.6021 -0.3326 -0.0462
34740SOL    HW110825   1.593   1.773   1.336 -0.3449 -0.3425  1.8333
34740SOL    HW210826   1.610   1.630   1.382  1.3114 -0.7442  0.1066
34741SOL     OW10827   8.117   6.716   8.818 -0.2233  0.1715 -0.3218
34741SOL    HW110828   8.194   6.729   8.873 -0.8509 -0.7798  0.8614
34741SOL    HW210829   8.113   6.792   8.761  1.2557  0.5057  0.0040
34742SOL     OW10830  10.344   7.488   2.373  0.6136  0.4221  0.3916
34742SOL    HW110831  10.311   7.573   2.344  1.1419  0.8975  1.1270
34742SOL    HW210832  10.440   7.497   2.372  0.6727  0.3800  1.9178
34743SOL     OW10833  12.130   8.579   5.190  0.5437 -0.1909 -0.2773
34743SOL    HW110834  12.100   8.492   5.218 -0.5294  0.1730 -0.2296
34743SOL    HW210835  12.049   8.625   5.168  1.0380  1.0589  0.4514
34744SOL     OW10836   0.357  12.321   5.425 -0.4687 -0.4971  0.3208
34744SOL    HW110837   0.303  12.256   5.471 -0.7235  0.4049  1.3417
34744SOL    HW210838   0.426  12.342   5.487  1.1142 -1.6344 -0.9742
34745SOL     OW10839   4.526   4.727   6.917 -0.3683 -0.6630 -0.0434
34745SOL    HW110840   4.451   4.678   6.883 -0.6360 -0.1035 -0.2616
34745SOL    HW210841   4.532   4.804   6.861  1.3815 -1.4951 -1.1016
34746SOL     OW10842   1.725   3.382   1.930  0.3330  0.2967  0.3737
34746SOL    HW110843   1.728   3.286   1.935  1.3605  0.3037  0.2638
34746SOL    HW210844   1.781   3.404   1.855 -0.6994  0.9475 -0.2193
34747SOL     OW10845   7.759   7.555   2.872  0.6857  0.8747 -0.1660
34747SOL    HW110846   7.707   7.493   2.821 -0.5626 -0.0471  2.0514
34747SOL    HW210847   7.701   7.631   2.884  0.4309  0.5152  0.9732
34748SOL     OW10848  11.607  12.437   0.957 -0.3295 -0.2108 -0.0652
34748SOL    HW110849  11.652  12.521   0.968 -1.3420  0.2105  1.1092
34748SOL    HW210850  11.641  12.402   0.875  1.0016  0.7830  0.0335
34749SOL     OW10851   8.167  12.074   4.666  0.4365  0.0132 -0.6300
34749SOL    HW110852   8.236  12.081   4.732  0.7391 -1.4990 -0.7581
34749SOL    HW210853   8.098  12.022   4.706  0.6869 -1.0514 -1.5232
34750SOL     OW10854  10.958   9.555   6.385 -0.1669 -0.1067  0.1711
34750SOL    HW110855  11.044   9.571   6.345  0.9679 -0.0623  2.5038
34750SOL    HW210856  10.906   9.515   6.314  1.2141  1.3567 -1.7709
34751SOL     OW10857   7.566   9.971   1.683 -0.0749  0.3291  0.5002
34751SOL    HW110858   7.570   9.991   1.590 -0.1836 -0.9418  0.2130
34751SOL    HW210859   7.490  10.019   1.715 -0.2694  0.4534 -0.1454
34752SOL     OW10860   8.033  11.936   5.623 -0.8879  0.1476 -0.0537
34752SOL    HW110861   8.050  11.955   5.715  0.8602  0.7650 -0.4652
34752SOL    HW210862   8.002  12.019   5.587 -1.1345  0.0272 -0.1217
34753SOL     OW10863   7.282  12.345   3.937 -0.2760 -0.2669 -0.0033
34753SOL    HW110864   7.351  12.317   3.877  0.0334 -0.2248  0.3320
34753SOL    HW210865   7.220  12.393   3.882  0.5332  0.6856 -0.1055
34754SOL     OW10866   0.264   4.668   0.480  0.3321 -0.0832 -0.2080
34754SOL    HW110867   0.256   4.578   0.511 -0.0593  0.5176  1.5608
34754SOL    HW210868   0.204   4.673   0.405  1.5727 -1.6854 -1.4032
34755SOL     OW10869   1.297   7.152  10.204  0.5067 -0.5380  0.2224
34755SOL    HW110870   1.332   7.091  10.139  0.0617 -1.9812  1.2824
34755SOL    HW210871   1.297   7.103  10.286 -2.1315  0.0241  0.6628
34756SOL     OW10872  11.972  12.395   7.953  0.0098  0.1424 -0.3763
34756SOL    HW110873  11.995  12.367   7.864 -0.3935 -1.4647 -0.0155
34756SOL    HW210874  11.994  12.319   8.008 -2.0052  0.1631  0.5492
34757SOL     OW10875  10.226   1.127   5.274  0.0453 -0.2450 -0.8794
34757SOL    HW110876  10.185   1.113   5.188  1.1246  1.3658 -1.7046
34757SOL    HW210877  10.184   1.205   5.309 -0.2065 -0.7452 -0.0325
34758SOL     OW10878   2.084   9.877   3.837 -0.4483 -0.3068  0.2252
34758SOL    HW110879   2.105   9.955   3.890 -1.3072  0.2152 -0.1794
34758SOL    HW210880   1.991   9.862   3.853 -0.4424 -0.8565 -0.2263
34759SOL     OW10881   5.927  11.142   7.005  0.1662 -0.7246  0.1978
34759SOL    HW110882   5.903  11.087   7.080 -0.7299 -0.0840  0.3916
34759SOL    HW210883   5.935  11.080   6.932 -1.0059 -1.1096  0.3688
34760SOL     OW10884   8.060  11.700   8.699  0.0015 -0.4292  0.1683
34760SOL    HW110885   8.101  11.766   8.643  0.7059 -0.0982  1.0513
34760SOL    HW210886   8.115  11.697   8.777 -2.4399  1.0999  2.0741
34761SOL     OW10887   3.953   9.570  10.707  0.2748 -0.0555  0.0969
34761SOL    HW110888   3.973   9.567  10.800  1.0697  1.9485  0.0447
34761SOL    HW210889   3.857   9.572  10.703  0.1395 -2.2743  0.7140
34762SOL     OW10890   3.613   0.103   2.388  0.0162  0.6995 -0.6671
34762SOL    HW110891   3.601   0.028   2.330 -1.0119  0.8748 -0.7047
34762SOL    HW210892   3.550   0.090   2.458 -1.1127  2.1413 -1.3416
34763SOL     OW10893   8.187  11.191   7.101 -0.3263  0.1960  0.6899
34763SOL    HW110894   8.095  11.182   7.124 -0.8148  0.2678 -1.1264
34763SOL    HW210895   8.216  11.270   7.148 -0.5756 -0.9768  2.9631
34764SOL     OW10896   5.509   6.676  11.077 -0.0594  0.5710  0.1209
34764SOL    HW110897   5.573   6.641  11.138  2.3549  1.6662 -1.6329
34764SOL    HW210898   5.484   6.601  11.022  2.3982  0.7215 -1.3452
34765SOL     OW10899   8.920  11.388  12.501 -0.0774 -0.0746 -0.0988
34765SOL    HW110900   8.922  11.348  12.588  0.0169 -2.5201 -1.1719
34765SOL    HW210901   8.836  11.362  12.464  0.0818  0.5480 -0.9450
34766SOL     OW10902   4.704   5.196   7.544 -0.3369  0.4458 -0.1477
34766SOL    HW110903   4.625   5.157   7.505 -0.3238  0.9010 -0.6323
34766SOL    HW210904   4.758   5.121   7.569 -0.0755  0.1484 -1.5664
34767SOL     OW10905  12.667   6.944   2.222  0.0977  0.3611  0.7695
34767SOL    HW110906  12.716   6.903   2.293  2.5087  1.0295 -0.4120
34767SOL    HW210907  12.696   7.035   2.223 -0.6440  0.6212 -0.3973
34768SOL     OW10908  10.975   8.256   0.043  0.1556  0.3609 -0.2053
34768SOL    HW110909  10.959   8.221  -0.044  4.1067 -2.3101 -0.1584
34768SOL    HW210910  10.957   8.182   0.102  1.3911  0.7729  0.7438
34769SOL     OW10911   2.758   2.006   8.469  0.0653  0.2006 -0.1918
34769SOL    HW110912   2.791   2.092   8.446 -1.7859  0.8689 -0.5598
34769SOL    HW210913   2.834   1.949   8.467  1.3624  1.8381  0.1890
34770SOL     OW10914   7.305   2.764   3.576  0.0095  0.5275  0.1558
34770SOL    HW110915   7.264   2.711   3.507  1.4092 -0.2756 -0.1003
34770SOL    HW210916   7.239   2.828   3.599 -1.1884 -0.3802 -0.6159
34771SOL     OW10917   2.562   3.769   1.263  0.3080  0.4194  0.1918
34771SOL    HW110918   2.583   3.812   1.180 -1.9675 -1.8000 -1.7113
34771SOL    HW210919   2.612   3.688   1.261 -0.0532  0.1760  0.8214
34772SOL     OW10920   1.075  10.940   1.940  0.0025  0.3074  0.8604
34772SOL    HW110921   1.080  10.844   1.943 -2.9287  0.0721  1.7457
34772SOL    HW210922   1.049  10.960   1.851 -1.4317  0.0648  1.1995
34773SOL     OW10923   7.375   9.805   4.101  0.5990  0.1288  0.0012
34773SOL    HW110924   7.333   9.835   4.181 -1.5553  0.9351 -1.3263
34773SOL    HW210925   7.307   9.753   4.057  2.1897 -1.4831 -0.6687
34774SOL     OW10926  12.775   0.624   5.354  0.3419  0.1370  0.4754
34774SOL    HW110927  12.764   0.684   5.427  0.2096  0.9175 -0.1769
34774SOL    HW210928  12.816   0.676   5.285 -0.9831 -0.1465 -0.5772
34775SOL     OW10929  12.360   9.783   0.167 -0.1230 -0.0219  0.1203
34775SOL    HW110930  12.443   9.759   0.209  0.1711  0.3472 -0.2459
34775SOL    HW210931  12.359   9.731   0.086 -0.7250 -0.7897  0.6046
34776SOL     OW10932   4.649   9.686  10.114  0.1122 -0.3848 -0.2873
34776SOL    HW110933   4.734   9.727  10.130 -0.2943  0.2813  0.2190
34776SOL    HW210934   4.588   9.759  10.107 -0.6249 -0.8969  0.5706
34777SOL     OW10935   4.248   2.274   3.646  0.5320  0.0039  0.8217
34777SOL    HW110936   4.223   2.214   3.716 -1.9528  0.7200  0.6431
34777SOL    HW210937   4.168   2.286   3.594  1.9933  0.3609 -1.5070
34778SOL     OW10938  12.114   1.438   9.493  0.2731 -0.4485 -0.8019
34778SOL    HW110939  12.032   1.467   9.534  0.5574  2.3933 -2.0171
34778SOL    HW210940  12.163   1.397   9.564 -1.0263  0.3946  0.6495
34779SOL     OW10941   9.806   5.417  11.556  0.9674 -0.4412  0.2182
34779SOL    HW110942   9.839   5.357  11.623  0.1457  0.4859  1.5015
34779SOL    HW210943   9.737   5.466  11.600 -0.5841 -0.7535 -1.7203
34780SOL     OW10944   4.145   1.643   4.389 -0.2737 -0.1490 -0.0890
34780SOL    HW110945   4.142   1.585   4.465  1.4369  0.9289  0.8512
34780SOL    HW210946   4.119   1.729   4.423 -1.5578 -0.0636 -1.2016
34781SOL     OW10947   2.061  10.836   3.950  0.3654 -0.3505 -0.0218
34781SOL    HW110948   2.085  10.821   3.859  2.4348  2.8341 -0.1583
34781SOL    HW210949   2.145  10.844   3.996 -0.6152 -0.3619  1.8666
34782SOL     OW10950   4.830   3.246   8.776 -0.5340  0.1100 -0.1060
34782SOL    HW110951   4.886   3.212   8.846 -0.5828 -0.3233 -0.2735
34782SOL    HW210952   4.792   3.168   8.736 -1.1442  0.3988 -0.0907
34783SOL     OW10953   5.435  10.942  10.155 -0.0944  0.4697 -0.2135
34783SOL    HW110954   5.529  10.936  10.138  0.5079  1.2171  2.3517
34783SOL    HW210955   5.420  11.034  10.175 -0.2045 -0.3169  4.5000
34784SOL     OW10956   3.391   4.149   1.542 -0.6554  0.4978 -0.3494
34784SOL    HW110957   3.478   4.158   1.581 -0.6413 -2.5565  0.5417
34784SOL    HW210958   3.331   4.154   1.616 -1.1517  1.0076 -0.7767
34785SOL     OW10959   4.103   7.543   2.551 -0.0354  0.0186  0.2829
34785SOL    HW110960   4.088   7.511   2.462  1.3433  1.2097 -0.4200
34785SOL    HW210961   4.081   7.636   2.547 -0.4760 -0.0339  1.3303
34786SOL     OW10962   6.688   7.315  12.075  0.4354 -0.7497 -0.2541
34786SOL    HW110963   6.609   7.370  12.067  0.9836  0.1805  0.4940
34786SOL    HW210964   6.733   7.349  12.152  1.2356 -1.7209 -0.2708
34787SOL     OW10965   2.110   0.162   9.231  0.4659 -0.0772  0.1683
34787SOL    HW110966   2.133   0.082   9.184  0.5296 -0.1393  0.3049
34787SOL    HW210967   2.045   0.205   9.175 -1.2917 -1.3399  1.1387
34788SOL     OW10968  10.000  10.560   4.891  0.5764 -0.2385 -0.1106
34788SOL    HW110969   9.984  10.534   4.981  1.4524 -0.0389  0.1091
34788SOL    HW210970   9.970  10.486   4.839  0.1517 -0.3906  0.3457
34789SOL     OW10971   5.225   2.990   9.260  0.1529  0.0121  0.0100
34789SOL    HW110972   5.233   2.915   9.320 -1.3635 -0.6221 -0.5369
34789SOL    HW210973   5.152   2.967   9.202 -1.0654  2.3711  0.4968
34790SOL     OW10974  11.436   5.002   2.847 -0.6412  0.2396 -0.0069
34790SOL    HW110975  11.511   5.009   2.906 -0.2717 -0.4148 -0.3760
34790SOL    HW210976  11.438   5.083   2.797  0.1130  0.0420 -0.3254
34791SOL     OW10977   7.875   7.158   9.673  0.0907 -0.6325  0.0117
34791SOL    HW110978   7.899   7.131   9.762  1.8450 -0.7703 -0.4672
34791SOL    HW210979   7.808   7.095   9.645  0.3813 -1.3020  0.8010
34792SOL     OW10980   8.708  11.174   2.027 -0.3060  0.2767 -0.6329
34792SOL    HW110981   8.722  11.102   1.966 -0.3546 -0.7912  0.5747
34792SOL    HW210982   8.795  11.202   2.053 -0.2901 -0.6085  0.3128
34793SOL     OW10983   2.859   0.986   7.863 -0.0040 -0.2062 -0.3026
34793SOL    HW110984   2.799   0.990   7.788  0.2351  2.4752 -0.4637
34793SOL    HW210985   2.933   1.042   7.837 -0.7701  2.3788  2.5699
34794SOL     OW10986  10.884   7.886   4.806  0.1031 -0.2456 -0.4993
34794SOL    HW110987  10.862   7.974   4.837  0.9175 -0.1884 -0.0572
34794SOL    HW210988  10.822   7.869   4.735  0.1323  0.8141 -0.7966
34795SOL     OW10989   3.013  12.103   6.028  0.1854  0.4710  0.3522
34795SOL    HW110990   3.021  12.023   5.975 -0.5253  1.6869 -1.7278
34795SOL    HW210991   3.064  12.085   6.107  0.0327 -2.0238 -0.0387
34796SOL     OW10992   4.345   3.177   8.394 -0.8060 -0.4046  0.2932
34796SOL    HW110993   4.416   3.149   8.453 -0.8252  0.2589  0.6432
34796SOL    HW210994   4.390   3.225   8.324 -0.7386 -1.5691 -0.4924
34797SOL     OW10995  10.818   1.221  10.022  0.2116 -0.2657 -0.4201
34797SOL    HW110996  10.801   1.313  10.042 -1.0141 -0.1317 -1.8442
34797SOL    HW210997  10.822   1.178  10.108 -0.3222  0.9361  0.2322
34798SOL     OW10998   1.184   3.534   9.556  0.0044 -0.4497 -0.2666
34798SOL    HW110999   1.115   3.568   9.612  1.8082 -0.7597  2.3595
34798SOL    HW211000   1.146   3.457   9.514 -2.0475  0.9460 -1.1470
34799SOL     OW11001   0.661   7.055  11.607  0.3141 -0.6348  0.3810
34799SOL    HW111002   0.633   6.977  11.559 -0.7354 -0.6761  1.0375
34799SOL    HW211003   0.754   7.040  11.625  0.3641 -1.2815 -0.3476
34800SOL     OW11004   3.449   1.575  12.183 -0.0196  0.2472 -0.0849
34800SOL    HW111005   3.374   1.516  12.175  0.3858 -0.3157  0.1986
34800SOL    HW211006   3.512   1.527  12.238  1.5136 -0.2929 -2.1851
34801SOL     OW11007   3.620   7.111   8.222 -0.1608 -0.3402 -0.0745
34801SOL    HW111008   3.540   7.128   8.171 -0.9901 -2.0939  0.5433
34801SOL    HW211009   3.669   7.048   8.170 -1.0557 -2.2157  1.2392
34802SOL     OW11010   1.683   7.693  12.472  0.1974  0.7705 -0.0945
34802SOL    HW111011   1.668   7.773  12.524 -0.0355 -0.1137  1.2626
34802SOL    HW211012   1.698   7.724  12.383  1.6732  2.4543  0.6738
34803SOL     OW11013   5.696   8.544   9.741 -0.3328 -0.5873  0.9043
34803SOL    HW111014   5.755   8.536   9.816  2.4255 -0.4007 -1.0914
34803SOL    HW211015   5.728   8.480   9.678 -0.7906  1.0932 -1.1619
34804SOL     OW11016  11.318   2.517   4.461  0.0003  0.1474 -0.1517
34804SOL    HW111017  11.388   2.582   4.462 -0.8999  1.1586 -0.7551
34804SOL    HW211018  11.278   2.523   4.548  0.4098 -0.1694  0.0646
34805SOL     OW11019   9.951   5.055   2.639  0.2413  0.0490  0.3604
34805SOL    HW111020   9.916   4.971   2.611 -1.4870  0.9084 -0.2107
34805SOL    HW211021   9.877   5.099   2.682  0.7368  1.7523 -0.4224
34806SOL     OW11022  12.142  12.530   4.211  0.2699 -0.0925  0.2558
34806SOL    HW111023  12.108  12.443   4.230 -0.3230 -0.5994 -2.7550
34806SOL    HW211024  12.223  12.535   4.263 -0.2944 -1.9143  1.4229
34807SOL     OW11025   3.502   5.695   1.009 -0.2804 -0.2558 -0.4275
34807SOL    HW111026   3.554   5.615   1.010  0.0169 -0.0530  0.2996
34807SOL    HW211027   3.565   5.764   0.990 -0.6993 -0.2889 -2.1851
34808SOL     OW11028  10.313   8.306  12.571 -0.1367  0.0932  0.1378
34808SOL    HW111029  10.358   8.378  12.526  1.0021 -1.3602 -1.1535
34808SOL    HW211030  10.383   8.256  12.612 -0.5200 -2.0309 -1.6172
34809SOL     OW11031  11.306   1.607   6.953  0.2457 -0.2821 -1.2525
34809SOL    HW111032  11.223   1.611   7.000 -0.0990  1.0063 -1.9140
34809SOL    HW211033  11.301   1.525   6.904 -0.4332 -0.4519 -0.9184
34810SOL     OW11034  11.628   8.692  10.379 -0.2976 -0.1412 -0.0336
34810SOL    HW111035  11.675   8.713  10.460  1.8458  0.0772 -1.2642
34810SOL    HW211036  11.625   8.597  10.377 -0.1047 -0.1518  0.1676
34811SOL     OW11037  11.647   8.040  10.919  0.6399 -0.1850 -0.0865
34811SOL    HW111038  11.617   8.130  10.910 -0.1174 -0.3767  0.4612
34811SOL    HW211039  11.650   8.007  10.829 -2.6631 -0.7280 -0.1219
34812SOL     OW11040   0.741   5.017   1.221  0.0271  0.0065 -0.0438
34812SOL    HW111041   0.653   5.004   1.258 -0.2063 -0.7084 -0.8209
34812SOL    HW211042   0.800   5.008   1.296 -0.3933 -1.9970  0.0904
34813SOL     OW11043  12.177   0.787   9.788 -0.4742 -0.0270  0.0921
34813SOL    HW111044  12.242   0.845   9.827 -0.8116 -0.1742  0.9135
34813SOL    HW211045  12.215   0.700   9.795  0.4712  0.1683 -2.0666
34814SOL     OW11046   0.602   2.754   8.241 -0.3039  0.0726 -0.0710
34814SOL    HW111047   0.511   2.762   8.213 -0.1235 -1.4327 -1.1985
34814SOL    HW211048   0.653   2.770   8.162  0.4124  0.6127  0.4898
34815SOL     OW11049  11.793   4.480   2.747 -0.0538 -1.2041 -0.0025
34815SOL    HW111050  11.871   4.427   2.763  1.1753 -0.2533 -2.3059
34815SOL    HW211051  11.812   4.527   2.666 -1.1968  2.4899  1.6372
34816SOL     OW11052   5.594   5.798   7.962  0.8321  0.5124 -0.1367
34816SOL    HW111053   5.557   5.722   7.917  1.8597  0.5210 -1.0373
34816SOL    HW211054   5.530   5.868   7.946 -0.5138 -0.2965  1.3486
34817SOL     OW11055   3.856   5.585   7.014 -0.1182 -0.4169 -0.1523
34817SOL    HW111056   3.857   5.522   6.942 -0.6529 -0.3515 -0.2235
34817SOL    HW211057   3.766   5.618   7.016 -0.1080 -0.4101  0.5370
34818SOL     OW11058   5.437   0.566   0.511  0.5099 -0.2316  0.2238
34818SOL    HW111059   5.348   0.534   0.499  0.1895  0.5002  0.5726
34818SOL    HW211060   5.484   0.535   0.434 -0.2895  0.2081 -0.4611
34819SOL     OW11061   2.626   9.209   0.423 -0.4139 -0.4372  0.2763
34819SOL    HW111062   2.670   9.166   0.349  0.0681  0.2413  0.1581
34819SOL    HW211063   2.540   9.232   0.389 -0.9515 -1.9324  0.5619
34820SOL     OW11064   4.460   0.299   6.657  0.7089 -0.3195 -0.1281
34820SOL    HW111065   4.431   0.249   6.734 -0.1716  0.5258  0.1135
34820SOL    HW211066   4.512   0.371   6.693 -1.1307  1.0928 -0.1254
34821SOL     OW11067  10.956   2.217   0.520  0.3579 -0.9158 -0.4094
34821SOL    HW111068  11.017   2.228   0.447 -0.3143 -3.9469 -1.5531
34821SOL    HW211069  10.874   2.254   0.489  1.2722  2.7440  0.9634
34822SOL     OW11070   9.358  11.738   1.416  0.0645 -0.4493 -0.4132
34822SOL    HW111071   9.330  11.828   1.400 -1.1875 -1.0662 -1.9497
34822SOL    HW211072   9.297  11.685   1.366 -0.7770 -2.3490  2.3826
34823SOL     OW11073   2.591  12.061   5.120 -0.0012  0.0323  0.2206
34823SOL    HW111074   2.645  11.984   5.098  0.0631  0.3191 -0.6691
34823SOL    HW211075   2.541  12.034   5.196  1.0612 -0.4090  0.7913
34824SOL     OW11076   9.166   0.355   2.494  0.0452  0.1949 -0.7570
34824SOL    HW111077   9.125   0.293   2.433 -1.6492  0.4922  0.0014
34824SOL    HW211078   9.104   0.361   2.567  0.6851  1.9433 -0.2983
34825SOL     OW11079   5.598   0.390   9.901  0.1164 -0.0816  0.5998
34825SOL    HW111080   5.512   0.373   9.939  0.4807 -0.3660  1.3082
34825SOL    HW211081   5.638   0.304   9.892 -0.9467 -0.3733 -2.9287
34826SOL     OW11082   8.184   4.435   3.476 -0.3743 -0.5825 -0.3201
34826SOL    HW111083   8.171   4.454   3.569  1.9152  0.8837 -0.2084
34826SOL    HW211084   8.211   4.344   3.474  1.4694 -0.1163  0.7456
34827SOL     OW11085   7.840   0.159   6.237  0.3766 -0.5750 -0.1996
34827SOL    HW111086   7.802   0.087   6.286  0.4692 -1.0464 -0.8107
34827SOL    HW211087   7.772   0.184   6.174 -0.4783  1.2391  1.3253
34828SOL     OW11088   8.932  11.612   6.911  0.0136 -0.2920 -0.0679
34828SOL    HW111089   9.005  11.595   6.852 -1.8614  0.4821 -2.8146
34828SOL    HW211090   8.918  11.707   6.905 -1.8844 -0.5608 -0.5375
34829SOL     OW11091   1.007   7.669   5.709 -0.6761 -0.5173  0.0796
34829SOL    HW111092   0.979   7.586   5.671 -1.0372 -0.8823  1.1195
34829SOL    HW211093   0.931   7.726   5.700 -0.6698 -0.5173  0.0233
34830SOL     OW11094   5.509   2.221  12.675  0.0201  0.3332 -0.3948
34830SOL    HW111095   5.424   2.177  12.670 -0.0810  0.1155  1.9159
34830SOL    HW211096   5.494   2.296  12.732  1.3072  0.4572 -0.1799
34831SOL     OW11097   6.345   0.350   4.508 -0.2057 -0.6070  0.0012
34831SOL    HW111098   6.263   0.367   4.555 -1.4092 -1.4413 -1.7121
34831SOL    HW211099   6.318   0.325   4.420  1.9223 -0.6371 -0.7012
34832SOL     OW11100  12.298   3.363   9.513 -0.4537 -0.3073 -0.1509
34832SOL    HW111101  12.230   3.405   9.565  0.6250  0.4161  0.7200
34832SOL    HW211102  12.363   3.335   9.577 -0.4810 -2.0674 -0.8574
34833SOL     OW11103   9.502   1.335   5.548  0.1467 -0.1828 -0.0081
34833SOL    HW111104   9.528   1.279   5.476  2.2182  0.3029  0.2667
34833SOL    HW211105   9.420   1.375   5.521  1.1768  0.4787 -2.4142
34834SOL     OW11106   1.683   7.375   8.810  0.0377 -0.0464  0.3498
34834SOL    HW111107   1.636   7.451   8.775 -1.2073 -0.7305  0.4876
34834SOL    HW211108   1.755   7.413   8.860  0.3805  1.0011 -0.8834
34835SOL     OW11109   0.904   3.635   3.859  0.3119 -0.1107 -0.0720
34835SOL    HW111110   0.984   3.686   3.851  0.2942  0.3934  2.3181
34835SOL    HW211111   0.840   3.697   3.895 -0.8195 -0.8335 -0.7703
34836SOL     OW11112  11.393  12.311   0.331 -0.2859 -0.2969  0.3160
34836SOL    HW111113  11.303  12.326   0.303 -0.2031 -2.7684 -1.6779
34836SOL    HW211114  11.388  12.233   0.387  0.6318 -0.5791  0.0241
34837SOL     OW11115   9.236   8.928   6.947  0.2657 -0.1187  0.0001
34837SOL    HW111116   9.269   8.984   6.876  0.7276 -0.1067  0.2180
34837SOL    HW211117   9.315   8.901   6.994 -0.1374  1.1849  1.4829
34838SOL     OW11118  11.209   9.606   0.450  0.2772  0.0100 -0.3589
34838SOL    HW111119  11.207   9.701   0.462 -0.8526 -0.0965  0.4371
34838SOL    HW211120  11.185   9.592   0.359 -0.0605  0.4758 -0.3455
34839SOL     OW11121   1.811   2.583   8.126 -0.3850  0.3888 -0.6191
34839SOL    HW111122   1.721   2.605   8.151 -0.2837  0.4639 -0.3139
34839SOL    HW211123   1.830   2.503   8.175 -0.3128  0.3240 -0.7515
34840SOL     OW11124   5.828  11.785  10.721  0.0550 -0.3091 -0.5562
34840SOL    HW111125   5.787  11.700  10.738  1.7401 -1.0583 -0.0570
34840SOL    HW211126   5.867  11.776  10.634  0.4092 -0.1175 -0.4166
34841SOL     OW11127   9.954  12.005   7.372  0.3645  0.1369  0.8561
34841SOL    HW111128   9.876  12.037   7.418 -0.5229  1.2635 -1.2905
34841SOL    HW211129  10.017  12.077   7.379 -0.3528  0.9797 -0.9796
34842SOL     OW11130   6.793   4.730  12.757  0.2754  0.1507 -0.4539
34842SOL    HW111131   6.715   4.677  12.767  0.9437 -0.7573  0.1398
34842SOL    HW211132   6.775   4.809  12.808  0.2934 -0.6900  0.9078
34843SOL     OW11133  11.419  11.315   4.709 -0.3753  0.0003 -0.2239
34843SOL    HW111134  11.375  11.345   4.789  0.5784 -0.2884  0.4207
34843SOL    HW211135  11.468  11.392   4.679 -0.4543  0.0066 -0.3394
34844SOL     OW11136   7.162   7.248   1.050 -0.3737 -0.2964  0.2534
34844SOL    HW111137   7.131   7.337   1.066 -2.2197 -0.8386 -0.1279
34844SOL    HW211138   7.088   7.193   1.071 -0.0161 -1.6118 -1.7090
34845SOL     OW11139  12.476   5.298   0.713  0.1521 -0.1905 -0.0596
34845SOL    HW111140  12.409   5.274   0.649 -0.5400  0.0588  0.5592
34845SOL    HW211141  12.490   5.219   0.765  1.5907 -0.7589 -1.2660
34846SOL     OW11142   0.254   3.598   6.420  0.9680 -0.3511 -0.4628
34846SOL    HW111143   0.163   3.595   6.393  0.8058  0.1472  0.0157
34846SOL    HW211144   0.278   3.690   6.413  1.4470 -0.4850 -0.6211
34847SOL     OW11145  10.668   8.819  12.281  0.0983 -0.0253 -0.2827
34847SOL    HW111146  10.722   8.827  12.203  0.6726  0.1015  0.1232
34847SOL    HW211147  10.581   8.797  12.248  0.6147 -1.2401 -0.8803
34848SOL     OW11148  12.574   6.163   7.159 -0.1970 -0.0290 -0.1963
34848SOL    HW111149  12.507   6.210   7.109  0.6221  1.2273 -0.1727
34848SOL    HW211150  12.538   6.157   7.247 -0.8755 -0.6379 -0.5091
34849SOL     OW11151   3.717   2.830   5.367 -0.1868 -0.2305  0.0670
34849SOL    HW111152   3.657   2.856   5.437 -0.1111 -0.5155  0.2375
34849SOL    HW211153   3.729   2.736   5.379  1.2150  0.0072  0.7475
34850SOL     OW11154  12.766   6.246   8.727 -0.3939  0.0265 -0.1591
34850SOL    HW111155  12.759   6.162   8.772 -0.2872 -0.9339 -1.8390
34850SOL    HW211156  12.677   6.266   8.699 -0.2589 -0.0220 -0.6226
34851SOL     OW11157   3.136  10.112   0.015  0.1797  0.0565  0.1611
34851SOL    HW111158   3.161  10.024  -0.015 -0.9954 -0.8169  1.6478
34851SOL    HW211159   3.041  10.108   0.026  0.2092  1.2715  1.0336
34852SOL     OW11160  11.788  12.035  11.063  0.2239 -0.1752  0.4732
34852SOL    HW111161  11.878  12.034  11.032 -0.2275  1.4038 -1.0896
34852SOL    HW211162  11.778  12.120  11.105 -0.7332 -0.0278 -0.0273
34853SOL     OW11163  11.426   6.921   9.478  0.5613  0.3524  0.5763
34853SOL    HW111164  11.373   6.842   9.491 -0.0585  0.5783 -0.4675
34853SOL    HW211165  11.501   6.891   9.427 -0.8663  0.7865 -1.9924
34854SOL     OW11166   1.501  10.582   7.777 -0.2297 -0.0765  0.9062
34854SOL    HW111167   1.540  10.667   7.798  1.6621 -0.7146  0.2469
34854SOL    HW211168   1.432  10.602   7.714  0.6082  0.9293  0.2735
34855SOL     OW11169   2.573  10.479  10.314 -0.1278  0.5930  0.5893
34855SOL    HW111170   2.633  10.554  10.319 -3.0993  3.0776  1.8977
34855SOL    HW211171   2.579  10.450  10.223  2.8205  0.8220  0.6150
34856SOL     OW11172   1.519   6.404   9.251  0.6006  0.1972 -0.0674
34856SOL    HW111173   1.575   6.481   9.247  1.9375 -0.7322  0.1715
34856SOL    HW211174   1.537   6.365   9.337  0.3469 -0.6778 -0.3996
34857SOL     OW11175   1.750   7.109   2.414 -0.6568  0.0412 -0.5994
34857SOL    HW111176   1.767   7.050   2.340  1.5000  0.2669 -0.3499
34857SOL    HW211177   1.828   7.163   2.420 -1.3130  0.8761  1.0908
34858SOL     OW11178   2.507  12.301   7.923  0.0103 -0.5225 -0.5667
34858SOL    HW111179   2.449  12.364   7.880  0.1924 -0.3236 -0.5192
34858SOL    HW211180   2.594  12.321   7.890  0.2784  0.1772  0.5353
34859SOL     OW11181   1.561   0.872   4.445 -0.5403  0.2712  0.1663
34859SOL    HW111182   1.614   0.849   4.521 -1.5273  1.4831  1.2869
34859SOL    HW211183   1.548   0.967   4.454  1.0684  0.8636 -2.6826
34860SOL     OW11184   6.780  10.098   1.992  0.5569 -0.0673 -0.9365
34860SOL    HW111185   6.702  10.125   2.040  1.6985 -1.7949  2.1723
34860SOL    HW211186   6.755  10.017   1.948  0.7373 -1.1697  0.8620
34861SOL     OW11187   2.312   6.228   1.910 -0.3915  0.5524  0.4656
34861SOL    HW111188   2.302   6.310   1.957  0.8391 -0.1586  2.0745
34861SOL    HW211189   2.360   6.171   1.971 -0.0206 -0.9100 -1.1078
34862SOL     OW11190  12.501   8.573   0.503  0.0536 -0.1922 -0.4335
34862SOL    HW111191  12.584   8.616   0.483  1.8724 -2.9274  0.7399
34862SOL    HW211192  12.449   8.641   0.547  1.3958  1.7396 -1.6795
34863SOL     OW11193   2.689   9.472  10.623  0.0720 -0.1920  0.0024
34863SOL    HW111194   2.758   9.416  10.658  0.1814 -0.1513 -0.1449
34863SOL    HW211195   2.713   9.484  10.531  0.4874  0.7426  0.2203
34864SOL     OW11196  11.641  12.168   0.560  0.1802 -0.2914  0.1135
34864SOL    HW111197  11.580  12.095   0.547 -1.4455  0.8935  0.6726
34864SOL    HW211198  11.723  12.139   0.520 -0.5896 -2.1677 -0.2032
34865SOL     OW11199  10.317   1.478   9.145 -0.5083  0.2233  0.1700
34865SOL    HW111200  10.311   1.572   9.158  0.4485  0.1738  1.0778
34865SOL    HW211201  10.339   1.443   9.232 -0.8961 -0.8412 -0.1394
34866SOL     OW11202   1.602   7.645   2.918  0.2137 -0.4930 -0.4538
34866SOL    HW111203   1.527   7.587   2.913  1.1533 -1.8941  0.9403
34866SOL    HW211204   1.567   7.727   2.953 -0.6415 -1.1723  0.3161
34867SOL     OW11205   3.748   7.596  11.501  0.3961  0.6505 -0.4800
34867SOL    HW111206   3.786   7.601  11.589 -0.3300  0.4028 -0.1509
34867SOL    HW211207   3.658   7.567  11.515  1.4992 -4.1763 -1.5428
34868SOL     OW11208  12.205   1.473   3.283 -0.3169  0.0446 -0.3663
34868SOL    HW111209  12.132   1.525   3.248  1.2350  0.6458 -2.9988
34868SOL    HW211210  12.268   1.537   3.315 -0.4309 -0.4309  0.8540
34869SOL     OW11211   3.277   6.638   4.462  0.2061  0.4550 -0.2041
34869SOL    HW111212   3.210   6.687   4.414  0.5844  0.1375 -1.0960
34869SOL    HW211213   3.262   6.658   4.554  0.7879  2.8252 -0.5686
34870SOL     OW11214   6.057   1.077   3.876 -0.4801  0.0061  0.3513
34870SOL    HW111215   5.985   1.139   3.886 -2.0895 -1.5554 -1.1112
34870SOL    HW211216   6.022   0.993   3.906  0.4800 -0.9186 -0.9740
34871SOL     OW11217   8.435   7.238   4.952  0.1334 -0.5051  0.0219
34871SOL    HW111218   8.376   7.303   4.991 -0.9954 -2.4749  1.7868
34871SOL    HW211219   8.522   7.261   4.984 -0.4067 -0.4773  1.5582
34872SOL     OW11220   2.786  11.357   1.756  0.3381 -0.0049 -0.1537
34872SOL    HW111221   2.786  11.285   1.693  0.6348 -0.3156  0.1991
34872SOL    HW211222   2.730  11.326   1.827  0.0913  0.3018 -0.2131
34873SOL     OW11223   3.068   4.375   5.561  0.2167  0.7049 -0.6293
34873SOL    HW111224   3.035   4.365   5.472 -2.2996  0.3113  0.2558
34873SOL    HW211225   3.122   4.454   5.559 -0.5997  1.2593 -2.2889
34874SOL     OW11226   3.178   8.336   2.807 -0.0824 -0.5465 -0.2807
34874SOL    HW111227   3.208   8.427   2.801 -1.2834 -0.0900  0.3772
34874SOL    HW211228   3.118   8.326   2.733 -0.0673 -0.7636 -0.2649
34875SOL     OW11229  12.717  11.937   6.870  0.1508  0.2505  0.2186
34875SOL    HW111230  12.755  12.020   6.843 -2.3322  1.4666  0.1938
34875SOL    HW211231  12.628  11.958   6.897 -0.7312 -2.4546 -0.1915
34876SOL     OW11232   2.179   1.358   8.902 -0.2205 -0.5533 -0.5028
34876SOL    HW111233   2.126   1.425   8.859 -0.5806 -0.2327  0.4071
34876SOL    HW211234   2.210   1.400   8.982  0.2601 -1.1987 -0.3408
34877SOL     OW11235   2.773   6.539   7.599 -0.8269 -0.0609 -0.5925
34877SOL    HW111236   2.818   6.584   7.528  1.8425 -1.6914 -0.0712
34877SOL    HW211237   2.699   6.495   7.557 -1.3849  1.8362 -1.6933
34878SOL     OW11238   0.610   3.785   4.456  0.2070 -0.0327 -0.9336
34878SOL    HW111239   0.516   3.791   4.474 -0.5345  0.0664 -4.1793
34878SOL    HW211240   0.615   3.756   4.365  3.3486 -0.0377 -0.8680
34879SOL     OW11241   4.600   8.396   7.272  0.6720 -0.0135 -0.5947
34879SOL    HW111242   4.576   8.453   7.345  1.5315 -0.4137  0.0156
34879SOL    HW211243   4.655   8.450   7.216  0.7069  0.0376 -0.5109
34880SOL     OW11244   5.386  11.328   9.165 -0.1811  0.6302 -0.6231
34880SOL    HW111245   5.442  11.358   9.237 -0.9595 -0.7029  0.6029
34880SOL    HW211246   5.442  11.334   9.087  1.8377 -1.0013  0.5880
34881SOL     OW11247   0.289   8.463   6.685  0.1359 -0.1327 -0.0318
34881SOL    HW111248   0.308   8.431   6.773  2.2009  1.4591  0.1830
34881SOL    HW211249   0.330   8.400   6.627 -0.3002 -0.6171  0.1802
34882SOL     OW11250   1.655   5.498   4.732  0.1397  0.0807  0.0991
34882SOL    HW111251   1.712   5.574   4.721 -0.5769  0.4007 -1.9563
34882SOL    HW211252   1.610   5.513   4.815  0.8819  1.3027  0.3041
34883SOL     OW11253  11.861   8.605   7.104 -0.0862  0.5549  0.4665
34883SOL    HW111254  11.833   8.618   7.013 -1.6091  0.5325  0.9158
34883SOL    HW211255  11.781   8.608   7.155  0.4711 -1.5396  1.6005
34884SOL     OW11256  11.612   1.987   7.106  0.5351  0.6604  0.0602
34884SOL    HW111257  11.701   1.975   7.139  1.4819  1.6882 -1.9313
34884SOL    HW211258  11.577   1.898   7.096  1.4124  0.2443  0.6538
34885SOL     OW11259   2.545   8.436   3.072 -0.0338 -0.3014 -0.3192
34885SOL    HW111260   2.599   8.362   3.099 -0.8689 -1.8528 -2.5946
34885SOL    HW211261   2.455   8.405   3.080 -0.3756  0.1800 -1.9799
34886SOL     OW11262  12.170   8.073   7.048 -0.3018 -0.0173 -0.0211
34886SOL    HW111263  12.103   8.142   7.048  0.9746  1.4670 -3.3175
34886SOL    HW211264  12.122   7.993   7.026 -1.4224  0.3577  0.9548
34887SOL     OW11265   2.674   7.195   0.332 -0.1686 -0.4872 -0.1106
34887SOL    HW111266   2.709   7.254   0.398 -0.8073  1.2330 -1.2249
34887SOL    HW211267   2.581   7.217   0.327 -1.0399 -3.3862  1.1938
34888SOL     OW11268   9.372   9.410   7.491 -0.4247  0.2262 -0.4875
34888SOL    HW111269   9.330   9.487   7.452 -2.2866 -0.3435  0.3048
34888SOL    HW211270   9.328   9.335   7.452  0.1082 -0.4138  0.1081
34889SOL     OW11271   0.936   2.415   7.773  0.0838 -0.1919 -0.2534
34889SOL    HW111272   0.898   2.433   7.687 -0.3781 -0.5937 -0.1387
34889SOL    HW211273   0.913   2.323   7.790 -1.7218  0.4687  1.2258
34890SOL     OW11274   7.435  10.374   3.502  0.4756 -0.6662  0.0149
34890SOL    HW111275   7.417  10.298   3.557 -1.8391 -2.2083 -2.6380
34890SOL    HW211276   7.351  10.418   3.494  1.3028  0.8944 -0.3715
34891SOL     OW11277   4.115  12.302   7.395  0.0341 -0.0712  0.1048
34891SOL    HW111278   4.091  12.373   7.335  1.4347  0.0694 -0.3228
34891SOL    HW211279   4.210  12.294   7.386  0.3492  0.1792  2.5308
34892SOL     OW11280   7.641   3.617   4.217  0.6592  0.1726 -0.1007
34892SOL    HW111281   7.633   3.521   4.221 -1.2113  0.3104  0.5324
34892SOL    HW211282   7.720   3.637   4.267  0.1711 -0.9500  1.1799
34893SOL     OW11283  10.519  10.584   8.860 -0.1753  0.0091  0.4549
34893SOL    HW111284  10.455  10.622   8.920  2.0147 -0.0556  3.0548
34893SOL    HW211285  10.520  10.490   8.882  1.8354  0.2501  1.6120
34894SOL     OW11286  12.416  11.897   8.794  0.0697  0.2123 -0.2567
34894SOL    HW111287  12.336  11.948   8.800 -0.9896 -1.1946 -1.6514
34894SOL    HW211288  12.478  11.955   8.750  0.0809  1.5475  1.4338
34895SOL     OW11289   8.145  10.077   5.819 -0.8604 -0.0457  0.0626
34895SOL    HW111290   8.222  10.040   5.776 -0.3999 -0.6469  1.3603
34895SOL    HW211291   8.073  10.061   5.757 -0.4042 -1.8054 -0.0550
34896SOL     OW11292   2.953  12.787   4.343 -0.3575  0.8086 -0.1803
34896SOL    HW111293   2.921  12.736   4.268  1.6207  2.9228 -2.6235
34896SOL    HW211294   3.047  12.795   4.328  0.0289  1.7782  2.3073
34897SOL     OW11295   7.113   7.562   2.504 -0.0454 -0.3756 -0.4425
34897SOL    HW111296   7.071   7.593   2.584 -0.0229 -0.4291 -0.4097
34897SOL    HW211297   7.117   7.639   2.447  2.7836  0.5438  0.7794
34898SOL     OW11298   5.813  10.329   9.740  0.3648  0.0915 -0.2319
34898SOL    HW111299   5.814  10.363   9.829 -1.4045  0.6508 -0.3854
34898SOL    HW211300   5.897  10.356   9.703  0.9773  0.1432  1.1524
34899SOL     OW11301   4.601   7.717   1.237 -0.4237 -0.2554 -0.2135
34899SOL    HW111302   4.521   7.769   1.243 -0.0294  0.3437 -0.0854
34899SOL    HW211303   4.660   7.756   1.301  0.0368 -0.5751 -0.4384
34900SOL     OW11304  10.023   8.708  10.759 -0.1149  0.4490 -0.4545
34900SOL    HW111305   9.993   8.794  10.730  1.3616  0.9151 -0.6726
34900SOL    HW211306  10.091   8.684  10.696  0.4313 -0.2742  0.3842
34901SOL     OW11307   8.846   6.723  12.646  0.2612 -0.3090  0.1362
34901SOL    HW111308   8.829   6.654  12.582  1.0553  1.2326 -1.8265
34901SOL    HW211309   8.803   6.800  12.610 -0.5569  0.2926  2.2512
34902SOL     OW11310   8.861   3.576   9.223 -0.2808  0.1538 -0.4735
34902SOL    HW111311   8.799   3.539   9.160  0.0303 -1.3973  0.0903
34902SOL    HW211312   8.862   3.513   9.296 -0.0719  1.5237  0.7536
34903SOL     OW11313  10.465   0.367   7.253 -0.5032 -0.0700  0.5677
34903SOL    HW111314  10.425   0.448   7.221  3.3277  2.1228  0.7515
34903SOL    HW211315  10.476   0.381   7.347 -0.7989 -1.3585  0.8186
34904SOL     OW11316  12.262  11.146   3.771 -0.1531  0.0644  0.7677
34904SOL    HW111317  12.184  11.098   3.800  0.5474 -2.6886 -1.4132
34904SOL    HW211318  12.335  11.090   3.799  0.7245 -0.2439 -1.8434
34905SOL     OW11319   2.064   9.314  11.248 -0.3293 -0.0025  0.4642
34905SOL    HW111320   2.000   9.386  11.240  1.1874  1.3824  0.1756
34905SOL    HW211321   2.067   9.276  11.160 -0.8803 -0.1797  0.5210
34906SOL     OW11322   5.996   6.776  10.924  0.6225  0.0889 -0.4357
34906SOL    HW111323   6.033   6.864  10.911  2.2031 -0.2970  1.0140
34906SOL    HW211324   5.945   6.784  11.005  2.0622 -0.6637  0.5782
34907SOL     OW11325   0.245  11.057   7.442  0.0852  0.5992 -0.0376
34907SOL    HW111326   0.287  11.041   7.527 -1.1429  1.5892  0.8180
34907SOL    HW211327   0.311  11.102   7.390  1.2183 -0.9639 -0.0197
34908SOL     OW11328  10.015  12.305   1.099 -0.6484 -0.6806 -0.4795
34908SOL    HW111329   9.940  12.352   1.136 -1.4279 -1.5935 -0.8639
34908SOL    HW211330  10.003  12.310   1.004  0.8280  0.8217 -0.6345
34909SOL     OW11331   3.640   2.003  10.494 -0.1380  0.4080  0.0314
34909SOL    HW111332   3.639   1.907  10.489  0.0125  0.3019  1.4598
34909SOL    HW211333   3.699   2.022  10.567 -0.6021  1.5754  0.1203
34910SOL     OW11334   1.533   5.097   6.314 -0.6823  0.1483 -0.3409
34910SOL    HW111335   1.493   5.166   6.368 -1.4006  1.0354 -1.9269
34910SOL    HW211336   1.531   5.019   6.369 -1.7131  0.9222  0.7792
34911SOL     OW11337   2.128  11.272   1.094  0.0195 -0.0917 -0.5755
34911SOL    HW111338   2.162  11.361   1.103 -0.2465 -0.0608  0.1937
34911SOL    HW211339   2.204  11.221   1.064 -0.5542  0.9209 -4.2020
34912SOL     OW11340  11.501   1.018  12.447 -0.7374  0.5622  0.3393
34912SOL    HW111341  11.575   0.977  12.492 -0.0809  1.0357 -0.2716
34912SOL    HW211342  11.482   1.096  12.499  1.7142  2.5560 -1.4971
34913SOL     OW11343  12.729   8.433   6.449  0.5097 -0.0311 -0.0176
34913SOL    HW111344  12.802   8.375   6.468 -1.2974 -2.1237  0.9690
34913SOL    HW211345  12.765   8.521   6.457  2.7883 -0.9860  0.9149
34914SOL     OW11346  11.332   4.367   5.565  0.1439 -0.0373 -0.4446
34914SOL    HW111347  11.392   4.434   5.600  0.5469  0.3839 -1.8857
34914SOL    HW211348  11.388   4.292   5.547  0.2417  0.2998 -1.6391
34915SOL     OW11349  12.346   3.098   2.129  0.1732 -0.0216  0.0186
34915SOL    HW111350  12.392   3.057   2.056 -0.9576 -0.4906 -0.4499
34915SOL    HW211351  12.353   3.192   2.112  1.5633 -0.0393  0.3472
34916SOL     OW11352   5.037  10.566   5.979 -1.2046  0.4513 -0.4275
34916SOL    HW111353   5.071  10.566   6.068 -1.7851  2.3919 -0.1623
34916SOL    HW211354   5.054  10.654   5.947 -1.2399 -0.1314 -2.1652
34917SOL     OW11355   3.284   1.923   8.960  0.2277  0.4614 -0.6719
34917SOL    HW111356   3.343   1.897   8.890 -0.6480 -0.9716 -0.9229
34917SOL    HW211357   3.307   1.865   9.033  0.1517  0.9352 -0.2675
34918SOL     OW11358  12.672   2.439   8.945 -0.0350 -0.5078 -0.0591
34918SOL    HW111359  12.633   2.518   8.981  1.4141 -0.2897  1.1253
34918SOL    HW211360  12.758   2.467   8.913  0.2550 -1.4752 -0.1616
34919SOL     OW11361   1.185  12.712   0.156  1.0281 -0.1905 -0.1209
34919SOL    HW111362   1.210  12.624   0.186  2.1865  0.1285 -0.0742
34919SOL    HW211363   1.181  12.705   0.061 -0.7550 -0.7394 -0.0292
34920SOL     OW11364   6.601   5.794   5.471 -0.1566  0.1523 -0.2892
34920SOL    HW111365   6.560   5.707   5.479  1.4400 -0.6949 -0.9074
34920SOL    HW211366   6.683   5.778   5.425 -0.6307  2.2703 -2.0171
34921SOL     OW11367   7.023   8.162   8.965  0.2831 -0.4256 -0.3020
34921SOL    HW111368   6.942   8.160   9.016  1.0098  0.1357  0.9338
34921SOL    HW211369   6.995   8.164   8.874 -1.1323  1.5291  0.1258
34922SOL     OW11370   0.960   4.788  12.491 -0.2437  0.2414  0.3511
34922SOL    HW111371   1.036   4.791  12.432  0.1009  1.4104  0.8380
34922SOL    HW211372   0.978   4.713  12.548 -0.4164 -0.7027 -0.7806
34923SOL     OW11373   6.925  11.412   4.991  0.1983  0.1468 -0.0421
34923SOL    HW111374   6.998  11.399   5.052 -0.2104 -0.9415  0.2244
34923SOL    HW211375   6.957  11.378   4.907 -0.3658 -1.3674  0.3271
34924SOL     OW11376   3.489   5.727   4.964 -0.2434 -0.6707 -0.6218
34924SOL    HW111377   3.396   5.710   4.948 -0.0607 -1.4874 -0.8141
34924SOL    HW211378   3.528   5.641   4.977  0.0186 -0.2458  2.1493
34925SOL     OW11379   2.458   8.716   3.302 -0.1290  0.4605  0.5587
34925SOL    HW111380   2.551   8.714   3.279 -0.4793 -0.6071 -0.9089
34925SOL    HW211381   2.438   8.628   3.331 -0.5388  0.8847  1.6227
34926SOL     OW11382  11.341   9.449  12.716  0.2672  0.7539 -0.2626
34926SOL    HW111383  11.307   9.496  12.640  1.9835  0.1653 -1.4574
34926SOL    HW211384  11.384   9.372  12.679 -0.0009 -0.2743  1.4262
34927SOL     OW11385   7.550   9.207   3.974  0.0981  0.1345  0.5847
34927SOL    HW111386   7.599   9.243   3.900 -0.0234 -0.0705  0.4040
34927SOL    HW211387   7.506   9.282   4.013  0.0176  0.2146  0.3389
34928SOL     OW11388  11.760   3.163   4.116 -0.1311  0.2854 -0.2085
34928SOL    HW111389  11.754   3.136   4.025  0.0128  1.2928 -0.5322
34928SOL    HW211390  11.851   3.147   4.141 -0.9143 -3.2224  0.8492
34929SOL     OW11391  10.070   2.190  10.608  0.8424 -0.3731 -0.1099
34929SOL    HW111392  10.027   2.206  10.524  0.9600 -1.9321 -0.4985
34929SOL    HW211393  10.040   2.261  10.664 -0.1892  0.0200 -1.1180
34930SOL     OW11394   8.188   0.485   9.097  0.3252  0.0265 -0.7757
34930SOL    HW111395   8.141   0.502   9.179  0.7425 -0.8643 -0.3465
34930SOL    HW211396   8.120   0.492   9.029 -0.9586 -3.2017 -0.0183
34931SOL     OW11397   2.001   9.344   9.304 -0.3075 -0.1083 -0.3585
34931SOL    HW111398   1.961   9.343   9.391  0.5033 -1.5383  0.0292
34931SOL    HW211399   2.007   9.437   9.281 -2.5364  0.2169  0.1546
34932SOL     OW11400   2.205   8.686   4.378 -0.6157 -0.4380 -0.4589
34932SOL    HW111401   2.256   8.605   4.386 -0.7299 -0.6766 -1.8120
34932SOL    HW211402   2.183   8.710   4.468 -1.8707 -2.7246 -0.0763
34933SOL     OW11403   0.305   8.897   3.732  0.2311 -0.2162 -0.1088
34933SOL    HW111404   0.273   8.812   3.702  1.9956 -0.7791 -0.4573
34933SOL    HW211405   0.399   8.895   3.717  0.3818  1.6286  0.3227
34934SOL     OW11406   9.813   3.443   2.127 -0.0876 -0.4181 -0.4671
34934SOL    HW111407   9.902   3.411   2.112 -0.5184 -1.5730 -0.6434
34934SOL    HW211408   9.765   3.420   2.047 -0.7970 -0.7761  0.0444
34935SOL     OW11409   8.436   7.397   2.940 -0.5066 -0.9182  0.0557
34935SOL    HW111410   8.500   7.329   2.917  0.6195  0.2729 -0.4365
34935SOL    HW211411   8.456   7.470   2.881 -1.6272 -0.1044  0.6446
34936SOL     OW11412  10.200   9.077   9.603  0.5140 -0.3735  0.0905
34936SOL    HW111413  10.226   9.147   9.543 -0.2900  0.6509  0.8988
34936SOL    HW211414  10.218   9.113   9.690  1.7149 -1.8531  0.4915
34937SOL     OW11415  12.050   2.400   3.239 -0.3070  0.1376 -0.7134
34937SOL    HW111416  12.024   2.490   3.259  0.2401 -0.0695  1.1292
34937SOL    HW211417  12.037   2.392   3.145 -2.9340  1.3033 -0.5518
34938SOL     OW11418   7.583   8.692   8.999 -0.5934  0.2801 -0.3702
34938SOL    HW111419   7.547   8.608   8.971 -1.1444  0.4366 -0.1455
34938SOL    HW211420   7.578   8.689   9.095 -1.4749  0.9320 -0.3837
34939SOL     OW11421  10.982   7.102   6.116 -0.0112 -0.1569 -0.0846
34939SOL    HW111422  10.933   7.181   6.137 -1.9664 -0.9670 -1.3221
34939SOL    HW211423  11.073   7.131   6.110 -0.6393  1.9341 -0.1791
34940SOL     OW11424   8.473   5.650   1.416 -0.6568  0.0246 -0.0999
34940SOL    HW111425   8.527   5.619   1.488 -0.3267  0.3746 -0.1943
34940SOL    HW211426   8.386   5.661   1.455 -0.3753  0.6519  0.3600
34941SOL     OW11427   4.260  11.583   5.059 -0.8667  0.6740  0.2623
34941SOL    HW111428   4.203  11.562   4.985 -0.1335  0.0631 -0.1461
34941SOL    HW211429   4.224  11.664   5.095 -1.8297  0.4417 -0.1477
34942SOL     OW11430   2.664  12.646  11.441  0.0114 -0.9076 -0.7736
34942SOL    HW111431   2.690  12.737  11.456  0.6238 -0.7269 -2.6442
34942SOL    HW211432   2.739  12.594  11.470  0.5012 -0.6821 -1.6182
34943SOL     OW11433   3.628   6.229  12.229  0.4926  0.0387 -0.4335
34943SOL    HW111434   3.536   6.248  12.208  0.3262 -0.1830  0.0731
34943SOL    HW211435   3.677   6.300  12.189 -0.0911  1.3671  1.1084
34944SOL     OW11436   2.689   8.882  11.629 -0.4298 -0.1435  0.6003
34944SOL    HW111437   2.774   8.904  11.589  1.0078 -0.9182  3.0165
34944SOL    HW211438   2.656   8.966  11.662  0.9558 -0.2238  2.3600
34945SOL     OW11439  11.663   1.930   1.159 -0.5908  0.9814  0.2845
34945SOL    HW111440  11.709   1.993   1.103  2.0474 -0.9169  0.1016
34945SOL    HW211441  11.679   1.962   1.248 -0.4672  1.3153  0.1455
34946SOL     OW11442   9.049  10.454   7.869  0.1272 -0.0889 -0.0429
34946SOL    HW111443   9.114  10.455   7.799  0.7907  1.6264  0.5479
34946SOL    HW211444   9.003  10.371   7.858  1.5343 -0.7451 -1.2845
34947SOL     OW11445   2.268   9.684  10.757 -0.0223 -0.4080  0.3522
34947SOL    HW111446   2.357   9.716  10.744  0.3498 -1.7893 -0.7875
34947SOL    HW211447   2.277   9.616  10.824 -0.7300  1.4444  2.4229
34948SOL     OW11448   8.464   9.056   9.035  0.4851 -0.1436 -0.5789
34948SOL    HW111449   8.485   8.966   9.009 -0.7479 -0.5240 -0.3335
34948SOL    HW211450   8.380   9.074   8.992  0.2861  0.5820  0.0973
34949SOL     OW11451   1.001   6.059   6.660 -0.2325 -0.3182 -0.0569
34949SOL    HW111452   1.038   5.970   6.660 -1.7532 -1.0690 -3.0941
34949SOL    HW211453   0.907   6.045   6.669 -0.5722  0.8908 -1.4800
34950SOL     OW11454  12.470   7.484   6.092  0.5926  0.1481 -0.3394
34950SOL    HW111455  12.384   7.522   6.105  0.4142 -0.6925  1.0812
34950SOL    HW211456  12.461   7.430   6.013 -0.6918 -1.3139  0.7485
34951SOL     OW11457   8.505   7.842   3.002  0.2583 -0.1056  0.6255
34951SOL    HW111458   8.591   7.831   3.042  0.4820 -4.4805 -0.5162
34951SOL    HW211459   8.444   7.801   3.065 -0.4635 -0.1753 -0.0992
34952SOL     OW11460   5.728   0.202   5.052 -0.4120  0.0299 -0.2405
34952SOL    HW111461   5.785   0.190   5.129 -0.5321  2.5562  0.3275
34952SOL    HW211462   5.746   0.291   5.023 -1.2503 -0.4741 -2.4712
34953SOL     OW11463   8.431   6.288   4.844 -0.1853 -0.1102  0.0723
34953SOL    HW111464   8.395   6.222   4.904  2.1392 -1.3541  0.2051
34953SOL    HW211465   8.494   6.337   4.897  0.2285  0.2845 -0.7578
34954SOL     OW11466   5.942  10.477   5.351 -0.0630 -0.6833 -0.2763
34954SOL    HW111467   5.874  10.538   5.380  1.2866  1.4443 -1.3763
34954SOL    HW211468   5.992  10.458   5.430  0.3708  0.8315 -0.1557
34955SOL     OW11469  11.734   2.798   4.131 -1.1229 -0.8483 -0.0503
34955SOL    HW111470  11.769   2.879   4.169 -1.3892 -0.9337  0.3863
34955SOL    HW211471  11.806   2.762   4.080  0.1585 -2.0509  2.3920
34956SOL     OW11472   4.979  10.800   0.710 -0.4624 -0.8073 -0.6254
34956SOL    HW111473   5.030  10.724   0.738 -0.0138 -0.2053  0.2486
34956SOL    HW211474   4.902  10.763   0.668 -1.2672 -1.7880  1.5936
34957SOL     OW11475   1.065  12.031  11.936  0.1383  0.1032  0.4909
34957SOL    HW111476   1.151  12.070  11.917 -0.8868  2.7530  0.8490
34957SOL    HW211477   1.046  11.979  11.858  1.0130  1.5001 -0.7331
34958SOL     OW11478   2.769   3.322   3.962 -0.2703 -0.1916 -0.8867
34958SOL    HW111479   2.797   3.320   3.871  2.0280 -1.0455 -0.2231
34958SOL    HW211480   2.695   3.261   3.966  0.2467 -0.9226 -1.9864
34959SOL     OW11481   3.099  11.494   4.502 -0.6612 -0.0897  0.2502
34959SOL    HW111482   3.144  11.563   4.455 -2.2042  0.8464  0.0734
34959SOL    HW211483   3.106  11.417   4.445 -0.6950  0.4707 -0.5212
34960SOL     OW11484  12.427   1.462   3.791  0.4773 -0.1101 -0.3442
34960SOL    HW111485  12.417   1.550   3.754 -0.1504  0.5828  1.3484
34960SOL    HW211486  12.424   1.476   3.886  2.0472 -1.7867  0.0029
34961SOL     OW11487   3.198   1.030   1.207 -0.9451  0.4492  0.8845
34961SOL    HW111488   3.253   1.097   1.249 -1.5360  1.6762 -0.2157
34961SOL    HW211489   3.213   0.951   1.259  0.2388  1.2754  1.8760
34962SOL     OW11490  12.072   3.923   5.341 -0.0703 -0.3221 -0.3240
34962SOL    HW111491  12.131   3.998   5.344 -1.7005  1.0002  1.5404
34962SOL    HW211492  12.129   3.847   5.339  1.6879  0.8974  0.7163
34963SOL     OW11493   6.942  10.856   3.989  0.5535  0.0726  0.0808
34963SOL    HW111494   6.946  10.818   3.901 -2.2900 -0.1994 -0.0243
34963SOL    HW211495   6.986  10.792   4.045 -1.7032 -2.1267 -0.5120
34964SOL     OW11496   1.639   9.220   7.006 -0.2601 -0.0218 -0.4674
34964SOL    HW111497   1.597   9.271   6.937 -1.6298 -0.5447 -0.0515
34964SOL    HW211498   1.732   9.221   6.983  0.1370  4.1382  0.4276
34965SOL     OW11499   4.160  12.727  10.041  0.2310  0.4672 -0.3625
34965SOL    HW111500   4.111  12.672  10.102 -0.5247  1.2637 -0.2430
34965SOL    HW211501   4.245  12.683  10.033 -0.0050 -0.1740  0.4936
34966SOL     OW11502   3.030   8.506   8.003  0.0889  0.1363 -0.6311
34966SOL    HW111503   3.022   8.424   8.052 -2.6050  1.1057  0.7756
34966SOL    HW211504   2.970   8.495   7.929 -0.4928  0.8952 -0.2843
34967SOL     OW11505   3.832   2.808   0.331 -0.0939  0.4690 -0.0987
34967SOL    HW111506   3.800   2.873   0.393 -0.7431 -0.4463  0.5619
34967SOL    HW211507   3.913   2.775   0.369  0.5450  1.2840 -0.7215
34968SOL     OW11508   5.084   0.722   7.101 -0.2321 -0.3296 -0.4385
34968SOL    HW111509   5.064   0.799   7.049 -0.2760  0.3602  0.5785
34968SOL    HW211510   5.062   0.746   7.191 -0.1507 -1.4873 -0.0840
34969SOL     OW11511   3.533   1.228  12.548 -0.4962 -0.5534 -0.0606
34969SOL    HW111512   3.490   1.256  12.629 -1.7867  0.2527 -0.9698
34969SOL    HW211513   3.562   1.139  12.565  0.6138  0.1176  1.7809
34970SOL     OW11514   4.185   4.734   0.947  0.1765 -0.8902  0.1352
34970SOL    HW111515   4.269   4.688   0.936  1.4482  1.0217  1.3138
34970SOL    HW211516   4.193   4.780   1.031 -2.2731 -1.0265  0.5222
34971SOL     OW11517   1.581   8.906   8.373 -0.5675 -0.1410  0.1128
34971SOL    HW111518   1.667   8.934   8.406 -0.6510 -1.2551  1.3317
34971SOL    HW211519   1.562   8.825   8.420 -2.4984  0.3221  0.1960
34972SOL     OW11520   3.676   7.134  12.331  0.5894 -0.0386  0.3585
34972SOL    HW111521   3.614   7.112  12.261 -1.1728 -1.4874  2.2371
34972SOL    HW211522   3.726   7.053  12.344 -0.7995 -0.6497  2.3386
34973SOL     OW11523   5.486  11.086   7.534  0.4844 -0.2997  0.2371
34973SOL    HW111524   5.429  11.151   7.575 -0.9564 -1.0333 -0.5257
34973SOL    HW211525   5.432  11.007   7.527  1.7301 -1.1595 -0.1653
34974SOL     OW11526  12.313  10.100   3.024  0.7983 -0.5150 -0.6182
34974SOL    HW111527  12.353  10.138   2.946  1.9837 -1.5063 -0.5189
34974SOL    HW211528  12.372  10.029   3.049 -0.0327 -0.7814  0.6673
34975SOL     OW11529   5.545   4.158   4.981  0.0818  0.1614 -0.6960
34975SOL    HW111530   5.468   4.196   5.024 -0.0658  0.2227 -1.0115
34975SOL    HW211531   5.619   4.209   5.016 -0.0244  0.1342 -0.4296
34976SOL     OW11532   1.915   4.748   0.074 -0.1366  0.0632 -0.4296
34976SOL    HW111533   1.869   4.683   0.128 -1.2224  0.6656 -0.5914
34976SOL    HW211534   1.990   4.701   0.039  0.1458 -0.5640  0.9648
34977SOL     OW11535   3.288   1.819   8.518 -0.3592 -0.1842 -0.3519
34977SOL    HW111536   3.273   1.763   8.442  0.3560 -0.7628 -0.0800
34977SOL    HW211537   3.319   1.902   8.480 -0.7946 -0.1877 -0.7230
34978SOL     OW11538   3.425   0.706   8.754 -0.5693 -0.4917 -0.1460
34978SOL    HW111539   3.401   0.798   8.746 -0.2460 -0.2773  1.1672
34978SOL    HW211540   3.412   0.670   8.666  1.7887  1.3760 -1.3555
34979SOL     OW11541   5.431   1.329   8.965 -0.0333  0.3938 -0.3328
34979SOL    HW111542   5.365   1.395   8.988  0.4714  1.2850 -1.3519
34979SOL    HW211543   5.382   1.248   8.954 -0.7764  0.7577  0.1977
34980SOL     OW11544  10.295   0.671  12.347 -0.1423 -0.1233 -0.0907
34980SOL    HW111545  10.369   0.627  12.388 -1.0067 -0.7772  0.8133
34980SOL    HW211546  10.330   0.755  12.317  0.7995 -0.1490  0.8932
34981SOL     OW11547   6.667   8.851   9.095  0.3291  0.1826  0.4366
34981SOL    HW111548   6.626   8.778   9.048 -0.1348  0.6542  0.0886
34981SOL    HW211549   6.729   8.888   9.032  0.3612  0.2580  0.5120
34982SOL     OW11550   1.984   2.639   9.398  0.2192 -0.5615 -0.1137
34982SOL    HW111551   1.900   2.685   9.391  0.8440  0.5174 -0.8204
34982SOL    HW211552   1.961   2.554   9.436 -1.0710  0.0333  0.5142
34983SOL     OW11553   7.057   7.462  11.359  0.1908 -0.3589  0.4562
34983SOL    HW111554   6.966   7.432  11.358  0.6943 -2.0782 -2.0568
34983SOL    HW211555   7.056   7.545  11.312 -0.0098 -0.5670  0.0978
34984SOL     OW11556   5.993   1.137   1.655 -0.0461 -0.2034 -0.3461
34984SOL    HW111557   6.031   1.049   1.654  0.3462 -0.2939  3.9264
34984SOL    HW211558   5.920   1.133   1.593 -0.2303 -3.6368 -0.0951
34985SOL     OW11559   2.083   0.911  11.334  0.1576 -0.2142  0.0164
34985SOL    HW111560   2.004   0.904  11.280 -0.6926  1.9785  0.8541
34985SOL    HW211561   2.054   0.957  11.412  2.1437  0.0061  0.6591
34986SOL     OW11562   6.972   3.749  10.641 -0.0570  0.0635 -0.1036
34986SOL    HW111563   6.946   3.658  10.623  0.0845 -0.4538  1.9726
34986SOL    HW211564   7.048   3.763  10.586 -1.7135 -0.0584 -2.6136
34987SOL     OW11565   4.270  10.240   0.445 -0.2936 -0.3224 -0.6302
34987SOL    HW111566   4.213  10.164   0.458  0.0705 -0.3396  1.0821
34987SOL    HW211567   4.231  10.309   0.500  2.2917 -0.8868  2.1494
34988SOL     OW11568   2.604   0.560   2.890  0.1436  0.3201  0.4075
34988SOL    HW111569   2.564   0.482   2.853 -0.9475  0.7123  0.7378
34988SOL    HW211570   2.692   0.531   2.916  0.4676 -0.2973 -1.2133
34989SOL     OW11571   1.344   6.227   7.239 -0.2864 -0.2492 -0.1464
34989SOL    HW111572   1.435   6.250   7.255 -0.1459 -0.6518 -0.3587
34989SOL    HW211573   1.347   6.140   7.199 -0.7729 -0.3478  0.0187
34990SOL     OW11574  12.343  10.884  11.707 -0.4464 -0.0841 -0.2772
34990SOL    HW111575  12.428  10.855  11.740  0.0730  1.5792 -0.0214
34990SOL    HW211576  12.294  10.909  11.786 -1.2478 -1.1843 -0.4118
34991SOL     OW11577   6.109   9.638  10.590 -0.1203  0.6089  0.4107
34991SOL    HW111578   6.098   9.702  10.520 -0.4811  0.0687 -0.0267
34991SOL    HW211579   6.039   9.575  10.577 -0.4282  0.7077  1.4913
34992SOL     OW11580   6.841   7.990   9.186  0.3108  0.4550  0.1333
34992SOL    HW111581   6.886   7.919   9.233 -0.6026  0.4676  1.0652
34992SOL    HW211582   6.749   7.980   9.210 -0.0728  0.9481 -1.0633
34993SOL     OW11583   2.216   2.574   3.260  0.2735 -0.6369 -0.5129
34993SOL    HW111584   2.126   2.600   3.280  1.0746  0.2868  2.4411
34993SOL    HW211585   2.247   2.640   3.198  0.2262  1.8935  1.9139
34994SOL     OW11586   7.870  12.308  11.822  0.2161  0.1526  0.0993
34994SOL    HW111587   7.891  12.394  11.784 -0.2891  0.9608  1.5430
34994SOL    HW211588   7.850  12.327  11.914 -2.1263 -1.1809 -0.0364
34995SOL     OW11589  11.896   5.739   4.133  0.0013  0.1905  0.0167
34995SOL    HW111590  11.901   5.774   4.044 -0.4051  1.7179  0.5650
34995SOL    HW211591  11.942   5.803   4.186  0.8558 -1.0641  0.8289
34996SOL     OW11592   6.649   1.058   3.797  0.0476  0.3731  0.4171
34996SOL    HW111593   6.576   1.021   3.747  0.3361 -1.6605  1.4046
34996SOL    HW211594   6.609   1.091   3.878 -0.0691  1.4491 -0.0542
34997SOL     OW11595  12.673  11.909   2.856  0.4388 -0.1007 -0.3709
34997SOL    HW111596  12.638  11.998   2.862  0.3748 -0.1650  0.3026
34997SOL    HW211597  12.640  11.865   2.934 -0.5663 -1.1040 -1.3326
34998SOL     OW11598   7.270   1.217   2.063  0.0068 -0.4881 -0.5130
34998SOL    HW111599   7.303   1.238   2.150  0.5707  0.4279 -0.9311
34998SOL    HW211600   7.336   1.252   2.003 -1.1937  0.4383 -1.3423
34999SOL     OW11601   1.685   5.571   5.629 -0.3810  0.2165 -0.9596
34999SOL    HW111602   1.685   5.490   5.577 -0.4505 -0.9337  0.7729
34999SOL    HW211603   1.596   5.578   5.663 -1.0161  2.2230 -2.8010
35000SOL     OW11604  10.548   7.213   4.923 -0.1936 -0.1890  0.4907
35000SOL    HW111605  10.521   7.211   5.015 -0.9986 -1.6736  0.2592
35000SOL    HW211606  10.565   7.121   4.902  2.9199  0.4323 -0.0435
35001SOL     OW11607  12.740   9.161   2.969 -0.1376 -0.3998  0.2283
35001SOL    HW111608  12.775   9.075   2.947 -0.6694 -0.7333  0.6568
35001SOL    HW211609  12.785   9.221   2.909 -0.9166 -1.1647 -1.1836
35002SOL     OW11610   2.066   1.817  10.396 -0.1180 -0.6067  0.3308
35002SOL    HW111611   2.059   1.731  10.354 -0.0043 -0.1293 -0.6777
35002SOL    HW211612   1.980   1.858  10.381  0.5549  0.3295 -1.1687
35003SOL     OW11613  11.899   0.353   4.600 -0.3953  0.3532  0.3676
35003SOL    HW111614  11.913   0.320   4.688  0.4382  0.8834  0.4467
35003SOL    HW211615  11.929   0.444   4.603  0.4249  0.1430 -0.6545
35004SOL     OW11616   7.123  11.242  10.497  0.2594  0.0653  0.0424
35004SOL    HW111617   7.032  11.261  10.518  1.1103  2.9611  1.7338
35004SOL    HW211618   7.172  11.267  10.576  2.4776 -2.1547 -0.5036
35005SOL     OW11619   9.214   9.013  12.578 -0.1798 -0.7249 -0.0835
35005SOL    HW111620   9.275   9.080  12.608  1.3316 -1.3888 -1.4943
35005SOL    HW211621   9.162   9.056  12.511 -0.8811 -0.3267  0.6958
35006SOL     OW11622  12.573   8.019   3.000 -0.1440  0.1667  0.4261
35006SOL    HW111623  12.621   8.073   2.938  0.2134  0.6055  1.0819
35006SOL    HW211624  12.570   7.932   2.959  1.4225  0.0626  0.4787
35007SOL     OW11625   1.067   1.572   7.321  0.3228 -0.3950  0.1011
35007SOL    HW111626   1.041   1.663   7.312 -0.6560 -0.7892 -1.4674
35007SOL    HW211627   1.019   1.540   7.397  0.1843  0.2206  0.2745
35008SOL     OW11628   7.831   9.203   6.601 -0.0707  0.5219  0.5696
35008SOL    HW111629   7.762   9.226   6.663 -0.7471  0.0737 -0.0023
35008SOL    HW211630   7.912   9.207   6.652 -0.6209  0.1308  1.4845
35009SOL     OW11631  10.720   0.260   7.236  0.6634  0.3868 -0.5344
35009SOL    HW111632  10.628   0.286   7.224  0.1931 -1.6738 -1.9304
35009SOL    HW211633  10.730   0.253   7.331 -0.9476 -0.3217 -0.3739
35010SOL     OW11634  10.582   0.272   0.531 -0.2565 -1.5141 -0.5413
35010SOL    HW111635  10.546   0.295   0.445 -0.5872  0.5992  0.1057
35010SOL    HW211636  10.515   0.303   0.593  0.0065 -2.9500  0.4884
35011SOL     OW11637   5.738   3.218   0.130  0.1918  0.6543  0.3894
35011SOL    HW111638   5.726   3.142   0.187  0.9382 -0.4702 -0.8986
35011SOL    HW211639   5.651   3.234   0.092  0.0129  0.5058  0.7379
35012SOL     OW11640   5.769   2.755   1.033  0.2042 -0.7003 -0.3958
35012SOL    HW111641   5.768   2.745   0.938 -2.9411  2.3034 -0.8739
35012SOL    HW211642   5.812   2.840   1.048 -2.7848  0.7869  0.4076
35013SOL     OW11643   8.925   3.245  10.338  0.1337  0.0298 -0.3801
35013SOL    HW111644   8.876   3.213  10.414  0.3142  0.2797 -0.1558
35013SOL    HW211645   9.016   3.251  10.369 -0.0357  1.6852 -0.1098
35014SOL     OW11646   7.706  12.112   5.553 -0.3276 -0.3413 -0.2003
35014SOL    HW111647   7.794  12.113   5.515 -0.5787 -1.2238 -0.8402
35014SOL    HW211648   7.720  12.083   5.644 -0.0107 -1.1095 -0.4792
35015SOL     OW11649   0.339   0.224  10.266  0.0327  0.0223 -0.3225
35015SOL    HW111650   0.288   0.243  10.345 -0.4701  0.0177 -0.6395
35015SOL    HW211651   0.418   0.181  10.298  0.2155  0.7588  0.2470
35016SOL     OW11652   1.853  10.626   2.038  0.1399 -0.4530 -0.6328
35016SOL    HW111653   1.935  10.652   2.080 -0.0956  0.2726 -0.5948
35016SOL    HW211654   1.877  10.610   1.947  0.2631  0.1187 -0.7050
35017SOL     OW11655   1.806   7.411   6.489 -0.9135 -0.1916  0.5187
35017SOL    HW111656   1.750   7.390   6.414  1.5071 -1.5756 -1.0143
35017SOL    HW211657   1.790   7.340   6.552 -0.6315 -0.7888 -0.0717
35018SOL     OW11658   4.322   8.197   5.665 -0.3829  0.0727 -0.3853
35018SOL    HW111659   4.361   8.142   5.597 -0.1861  0.6022 -0.7071
35018SOL    HW211660   4.383   8.270   5.675  0.4724 -0.8437  1.5924
35019SOL     OW11661  11.456   4.968   3.229  0.5313 -0.3833 -0.1228
35019SOL    HW111662  11.442   4.953   3.322  0.0058  1.3054  0.1106
35019SOL    HW211663  11.500   5.054   3.225  1.4754 -0.8852 -1.3842
35020SOL     OW11664   0.353   2.777   8.214 -0.1960  0.1120  0.0259
35020SOL    HW111665   0.305   2.696   8.233 -1.3570  0.4934 -1.1266
35020SOL    HW211666   0.301   2.820   8.146  1.0672  1.2322 -0.2682
35021SOL     OW11667   7.705   9.826   1.988  0.0361 -0.2887  0.2134
35021SOL    HW111668   7.760   9.749   1.997  1.1602  0.4292 -0.3521
35021SOL    HW211669   7.759   9.898   2.019 -1.1073  0.2435  1.0310
35022SOL     OW11670   3.449   7.432   3.914 -0.5373  0.1925  0.5206
35022SOL    HW111671   3.515   7.367   3.938 -0.6093 -0.0671  0.0255
35022SOL    HW211672   3.498   7.514   3.905 -0.5301  0.3314  1.6800
35023SOL     OW11673   9.573   8.910   9.562  0.3837 -0.5001 -0.1720
35023SOL    HW111674   9.545   8.921   9.653  0.3222 -0.2164 -0.2259
35023SOL    HW211675   9.514   8.965   9.511 -0.1317 -1.3203 -0.4801
35024SOL     OW11676  11.637  12.386  10.205 -0.0206  0.2427 -0.2982
35024SOL    HW111677  11.678  12.460  10.250 -1.7941  0.8703  0.3927
35024SOL    HW211678  11.669  12.309  10.252  0.8975  0.6343 -0.2494
35025SOL     OW11679   1.739   5.637   1.713  0.1414  0.2515 -0.2983
35025SOL    HW111680   1.694   5.609   1.634 -0.1498 -0.0586 -0.0274
35025SOL    HW211681   1.672   5.634   1.781  0.2670  0.9809 -0.1305
35026SOL     OW11682   2.917   7.303   9.100 -0.0162 -0.0431 -0.1081
35026SOL    HW111683   3.004   7.279   9.069 -0.1118 -0.0985 -0.3426
35026SOL    HW211684   2.932   7.349   9.182  0.1993 -0.5604  0.1498
35027SOL     OW11685   8.534   5.528   1.677  0.3263 -0.4377 -0.2401
35027SOL    HW111686   8.445   5.496   1.661 -0.6057  1.6951  0.3211
35027SOL    HW211687   8.573   5.462   1.735 -0.6122 -1.7800 -1.0846
35028SOL     OW11688   2.541   7.704   4.898 -0.0916 -0.2308 -0.4155
35028SOL    HW111689   2.628   7.667   4.883  0.0577  0.3127 -0.9550
35028SOL    HW211690   2.532   7.771   4.830 -1.1641 -0.6715 -0.7193
35029SOL     OW11691   4.592   4.915   8.198 -0.5067  0.1637  0.5953
35029SOL    HW111692   4.507   4.922   8.156  0.0776 -0.2294 -0.7396
35029SOL    HW211693   4.641   4.990   8.166 -0.0636 -0.1182  0.5975
35030SOL     OW11694   5.850   9.059   2.033  0.4211  0.0518 -0.3249
35030SOL    HW111695   5.928   9.003   2.038  0.3105 -0.0748  0.0372
35030SOL    HW211696   5.779   9.004   2.066  0.7268  1.1575  2.4274
35031SOL     OW11697   0.032  11.535   4.922  0.2964  0.4007 -0.3822
35031SOL    HW111698   0.008  11.467   4.986 -3.0515  0.2452 -1.6251
35031SOL    HW211699  -0.003  11.615   4.959  0.1689  0.6606 -1.0606
35032SOL     OW11700   1.717   3.072   9.424  0.4605  0.3006 -0.4324
35032SOL    HW111701   1.805   3.099   9.454  1.7297 -2.0398 -1.7681
35032SOL    HW211702   1.665   3.152   9.428  2.6613  1.7955  0.3708
35033SOL     OW11703   1.832  10.898   8.676 -0.1622 -0.1887 -0.1953
35033SOL    HW111704   1.878  10.817   8.655  0.7382  0.4524 -0.7833
35033SOL    HW211705   1.786  10.922   8.596  2.0382  1.4487 -1.0770
35034SOL     OW11706   1.502  12.641   5.277  0.4235  0.0880  0.0505
35034SOL    HW111707   1.453  12.593   5.343 -0.1532  0.6875  0.0708
35034SOL    HW211708   1.444  12.642   5.201  0.0983  1.4068  0.2983
35035SOL     OW11709   5.225   0.919  12.321 -0.4755  0.0293 -0.3167
35035SOL    HW111710   5.213   0.843  12.378  1.0727  0.0037  0.0142
35035SOL    HW211711   5.183   0.991  12.369  1.6582  0.2357  1.4605
35036SOL     OW11712   7.625   6.853  10.722 -0.2980 -0.4172 -0.8356
35036SOL    HW111713   7.539   6.812  10.709 -0.1070 -0.2442 -3.0845
35036SOL    HW211714   7.685   6.801  10.667  0.2300  1.8748 -2.6021
35037SOL     OW11715   0.887  11.656   3.285 -0.2311  0.5961 -0.2006
35037SOL    HW111716   0.971  11.625   3.250  0.4555  1.7945  0.3395
35037SOL    HW211717   0.848  11.705   3.213 -0.1619  0.6095 -0.2295
35038SOL     OW11718   6.243   8.168  11.833  0.4974  0.1794  0.2174
35038SOL    HW111719   6.268   8.144  11.922  1.1289  2.0496  0.5927
35038SOL    HW211720   6.160   8.122  11.818  0.0390  0.3287  2.0265
35039SOL     OW11721   9.080   5.677   0.379  0.3399 -0.1752 -0.2191
35039SOL    HW111722   8.989   5.706   0.387  0.2279 -0.5036 -0.2834
35039SOL    HW211723   9.094   5.669   0.285 -0.0877 -1.7316 -0.1793
35040SOL     OW11724   0.153  10.932  12.229 -0.5066  0.4645  0.0662
35040SOL    HW111725   0.189  11.011  12.188  0.2505  0.5178  0.8222
35040SOL    HW211726   0.228  10.890  12.270 -1.1053 -0.0673  0.6241
35041SOL     OW11727   6.718  12.303   2.171  0.1926 -0.0250  0.1973
35041SOL    HW111728   6.685  12.373   2.228 -1.8609 -0.3227 -0.5449
35041SOL    HW211729   6.702  12.334   2.082  0.5950 -0.8382 -0.1749
35042SOL     OW11730  11.452   0.882   7.321 -0.5478  0.1520 -0.4094
35042SOL    HW111731  11.414   0.910   7.238 -0.4097  0.6641 -0.3011
35042SOL    HW211732  11.539   0.850   7.298  0.1253  1.7772 -0.2682
35043SOL     OW11733   4.851   6.917   3.337  0.2027  0.3162 -0.0926
35043SOL    HW111734   4.823   6.833   3.302 -1.0979  0.9996 -0.7310
35043SOL    HW211735   4.916   6.949   3.274 -0.1036  0.2864 -0.4227
35044SOL     OW11736   3.644   8.136   3.496 -0.1814  0.1394 -0.2459
35044SOL    HW111737   3.704   8.207   3.472  2.4817 -2.2820 -1.3137
35044SOL    HW211738   3.602   8.110   3.414 -0.3967 -0.1700 -0.0413
35045SOL     OW11739   9.950   4.826  10.053  0.3932  0.2897  0.0123
35045SOL    HW111740   9.995   4.800   9.973  0.7633  0.7346  0.0655
35045SOL    HW211741   9.895   4.751  10.076  0.3941  0.1042 -0.5752
35046SOL     OW11742   6.615  11.044   3.270  0.5720 -0.2007 -0.5559
35046SOL    HW111743   6.521  11.055   3.281  0.4287  0.7626 -2.4163
35046SOL    HW211744   6.652  11.128   3.296  0.7049  0.1517 -1.8174
35047SOL     OW11745   0.987  11.203   7.276  0.4138 -0.8235  0.1424
35047SOL    HW111746   1.025  11.241   7.197  3.6388  0.4539  2.1117
35047SOL    HW211747   0.960  11.115   7.250 -1.3660  0.4684 -2.9852
35048SOL     OW11748   0.453   9.525   1.425 -0.8787 -0.1978 -0.0058
35048SOL    HW111749   0.488   9.614   1.421  0.7294 -0.8053 -0.6222
35048SOL    HW211750   0.422   9.508   1.336  0.9087 -0.9896 -0.5321
35049SOL     OW11751   5.527   9.648   1.364 -0.0152  0.3859  0.2800
35049SOL    HW111752   5.519   9.725   1.308  0.5566  1.1489  1.2114
35049SOL    HW211753   5.562   9.580   1.307  0.8372  1.2272 -0.2264
35050SOL     OW11754   8.470   6.579   0.800 -0.4531  0.3568  0.2164
35050SOL    HW111755   8.421   6.536   0.870  1.8677 -1.0348  1.0793
35050SOL    HW211756   8.497   6.508   0.742 -1.8718  1.4277 -1.9077
35051SOL     OW11757   5.205  11.674   9.714 -0.2782  0.0880  0.5971
35051SOL    HW111758   5.121  11.629   9.701 -2.0011  2.6790  1.8554
35051SOL    HW211759   5.203  11.704   9.805  2.1898 -0.0399  0.7592
35052SOL     OW11760   4.413   4.140  10.592 -0.2629  0.1713 -0.0175
35052SOL    HW111761   4.407   4.105  10.503 -0.6452  0.1184  0.0281
35052SOL    HW211762   4.470   4.217  10.583  1.6063 -1.1253  0.0918
35053SOL     OW11763   0.279   0.855   0.391 -0.4907 -0.0094 -0.2057
35053SOL    HW111764   0.287   0.937   0.342  0.7152  0.6482  1.0369
35053SOL    HW211765   0.238   0.880   0.474  0.2574 -0.5874  0.3504
35054SOL     OW11766   6.064  12.239  12.385  0.3528 -0.4486 -0.1426
35054SOL    HW111767   6.067  12.184  12.463  3.0013 -1.7282 -0.9865
35054SOL    HW211768   6.134  12.303  12.398 -0.4418  0.5417 -0.6573
35055SOL     OW11769   6.636   7.604   7.207  0.0105 -0.1023 -0.1316
35055SOL    HW111770   6.633   7.677   7.146  1.6992  0.1200 -0.0098
35055SOL    HW211771   6.692   7.539   7.163  1.7450  0.3010  1.3585
35056SOL     OW11772   4.189   2.904   9.105 -0.8136  0.2091  0.9459
35056SOL    HW111773   4.116   2.963   9.123  0.6216  2.4468 -0.1748
35056SOL    HW211774   4.266   2.959   9.110  0.7461 -1.8460  0.9446
35057SOL     OW11775   2.864   9.626   4.563 -0.3932  0.2504  0.0348
35057SOL    HW111776   2.955   9.623   4.537  0.0251  2.0376  1.1020
35057SOL    HW211777   2.826   9.696   4.511 -0.4891  1.2325  1.3607
35058SOL     OW11778  12.330   6.246   9.653  0.2282  0.3637  0.0263
35058SOL    HW111779  12.292   6.333   9.661 -0.6201 -0.1930  3.8023
35058SOL    HW211780  12.315   6.222   9.561 -2.7301  2.7710 -0.2770
35059SOL     OW11781   9.055   6.185   2.803  0.8218 -0.0093 -0.0848
35059SOL    HW111782   9.113   6.170   2.878 -0.0839 -1.5704  0.3730
35059SOL    HW211783   8.985   6.241   2.838  0.2040 -1.0387  0.3718
35060SOL     OW11784   6.250  11.884  11.762 -0.1973  0.2491  0.4843
35060SOL    HW111785   6.306  11.867  11.686 -0.4917 -1.0439  0.5239
35060SOL    HW211786   6.184  11.946  11.731 -0.0256  0.1066 -0.1788
35061SOL     OW11787   1.805   4.265   7.164  0.3025 -0.3545 -0.0828
35061SOL    HW111788   1.752   4.220   7.229 -1.3131 -0.6026 -1.4943
35061SOL    HW211789   1.774   4.355   7.165  1.1085 -0.0766  0.3214
35062SOL     OW11790   2.959   6.554   4.335  0.3652 -0.2633 -0.2432
35062SOL    HW111791   2.883   6.591   4.290  0.1256  1.7698  1.6764
35062SOL    HW211792   2.927   6.473   4.374 -0.2345 -0.4865 -1.1787
35063SOL     OW11793   5.336   5.385   7.675 -0.0564 -0.4109 -0.2909
35063SOL    HW111794   5.266   5.352   7.618  0.1380 -0.8439 -0.2814
35063SOL    HW211795   5.294   5.398   7.760 -0.2622 -0.1102 -0.4383
35064SOL     OW11796   1.502  11.999   9.005  0.8029 -0.5098 -0.4797
35064SOL    HW111797   1.538  12.088   9.014  0.8319 -0.5326 -0.3642
35064SOL    HW211798   1.481  11.992   8.912  1.3804 -0.5991 -0.6090
35065SOL     OW11799   5.126   3.855  10.979 -0.0710 -0.1080 -0.4588
35065SOL    HW111800   5.121   3.812  10.894  0.7945  1.4863 -1.3518
35065SOL    HW211801   5.042   3.900  10.988 -0.9589 -1.8106  0.4561
35066SOL     OW11802   6.889  11.895  10.399  0.4131  0.1259 -0.0238
35066SOL    HW111803   6.983  11.899  10.419  0.2758 -0.1655  0.7128
35066SOL    HW211804   6.846  11.902  10.484 -0.2925  1.8592 -0.4921
35067SOL     OW11805   1.228  10.913  11.718 -0.0553 -0.1924  0.4821
35067SOL    HW111806   1.188  10.880  11.798 -1.1304  0.0377  0.0663
35067SOL    HW211807   1.287  10.843  11.689 -0.2561 -0.6025  1.0513
35068SOL     OW11808  10.223   8.579  10.929 -0.3420  0.2244 -0.2098
35068SOL    HW111809  10.172   8.647  10.884 -3.0561 -2.0447 -0.8066
35068SOL    HW211810  10.304   8.572  10.878 -0.9794  1.4593 -1.4591
35069SOL     OW11811   3.548   1.829   7.569  0.6036 -0.2710  0.6836
35069SOL    HW111812   3.500   1.783   7.500  1.4329  1.4501 -1.1459
35069SOL    HW211813   3.483   1.846   7.636 -1.0880  0.8565 -1.1368
35070SOL     OW11814   9.434   8.977   2.140 -0.0707 -0.2255 -0.2689
35070SOL    HW111815   9.447   9.070   2.159  0.2382 -0.2577 -0.3225
35070SOL    HW211816   9.411   8.939   2.225 -1.0802  0.0490 -0.4023
35071SOL     OW11817  11.634  10.539   3.856 -0.1089  0.2391 -0.1916
35071SOL    HW111818  11.595  10.607   3.911 -0.9982 -0.0109 -0.4930
35071SOL    HW211819  11.713  10.513   3.902  1.2048  2.6400 -0.8599
35072SOL     OW11820   6.604   4.620   2.218 -0.4973  0.1510 -0.0037
35072SOL    HW111821   6.556   4.693   2.179 -1.6533 -0.3094  0.5172
35072SOL    HW211822   6.581   4.623   2.311  0.3514 -0.1964  0.2319
35073SOL     OW11823   1.265   5.139   9.611 -0.3428 -0.4192  0.6730
35073SOL    HW111824   1.231   5.220   9.649 -0.6315 -0.8136  1.2736
35073SOL    HW211825   1.299   5.090   9.686  2.2732  0.2731  0.0248
35074SOL     OW11826   4.113   5.580   8.313  0.0661  0.2249 -0.1955
35074SOL    HW111827   4.069   5.570   8.398 -0.8087  0.1660 -0.6350
35074SOL    HW211828   4.199   5.617   8.335  0.4501 -1.1974  0.8309
35075SOL     OW11829   4.007   1.161   8.436  0.2227 -0.4749 -0.0226
35075SOL    HW111830   3.973   1.081   8.397  1.0359 -0.4292 -0.8693
35075SOL    HW211831   4.000   1.148   8.530  1.3474 -1.9917 -0.1225
35076SOL     OW11832   0.377   8.777  12.125  0.3746 -0.1595 -0.1208
35076SOL    HW111833   0.314   8.711  12.153 -0.8328  0.8586 -0.3390
35076SOL    HW211834   0.461   8.731  12.122 -0.0737 -1.1757  1.6783
35077SOL     OW11835   1.694   8.275   0.277 -0.1897 -0.0414 -0.0651
35077SOL    HW111836   1.716   8.184   0.297  2.9561  0.5344 -0.4426
35077SOL    HW211837   1.621   8.295   0.336  0.1964 -2.2583  1.2927
35078SOL     OW11838   5.740   5.910   7.171  0.0749 -0.0635  0.2132
35078SOL    HW111839   5.669   5.857   7.208 -0.4805 -0.6807 -1.5819
35078SOL    HW211840   5.789   5.942   7.246 -0.4817 -1.9103  1.4290
35079SOL     OW11841   3.896  12.083   0.598 -0.3092  0.6003 -0.2111
35079SOL    HW111842   3.801  12.068   0.599  0.0111 -2.2082 -1.5595
35079SOL    HW211843   3.926  12.050   0.683 -0.3303 -0.6963 -0.6851
35080SOL     OW11844   0.018  10.275   0.628  0.8385 -0.7047 -0.2018
35080SOL    HW111845  -0.058  10.219   0.611  2.0762 -2.2631 -0.7759
35080SOL    HW211846   0.088  10.239   0.573  2.0373  0.6442  0.3644
35081SOL     OW11847   1.079   4.606   2.949 -0.7122 -0.7396 -0.2080
35081SOL    HW111848   1.012   4.641   3.007 -0.6615  1.4312 -1.3618
35081SOL    HW211849   1.077   4.663   2.872  1.0591 -1.8661 -1.1666
35082SOL     OW11850   3.274  11.458   2.106 -0.1412  0.0122  0.0328
35082SOL    HW111851   3.283  11.444   2.012  1.3632 -1.0661  0.2985
35082SOL    HW211852   3.194  11.412   2.130 -0.3092 -0.0529 -0.6455
35083SOL     OW11853   6.684   6.820   7.286 -0.2985  0.1232  0.2704
35083SOL    HW111854   6.656   6.737   7.249  0.7414 -0.3411  0.4944
35083SOL    HW211855   6.669   6.811   7.380  1.1227 -0.3721  0.4760
35084SOL     OW11856   0.607  12.399  10.952 -0.0802 -0.4293 -0.3682
35084SOL    HW111857   0.635  12.308  10.944 -0.0535 -0.5352  0.7607
35084SOL    HW211858   0.517  12.394  10.984 -0.3395 -0.0546 -1.0097
35085SOL     OW11859   7.514   0.699   1.760  0.0506 -0.0470 -0.1462
35085SOL    HW111860   7.543   0.652   1.838 -0.9489 -1.2641 -0.4765
35085SOL    HW211861   7.590   0.697   1.701  0.2188 -0.7369  0.0869
35086SOL     OW11862   5.334   6.049  11.018 -0.1347 -0.4049 -0.1287
35086SOL    HW111863   5.292   6.030  11.102 -0.0249 -1.2746 -0.2667
35086SOL    HW211864   5.327   5.967  10.969 -2.3940  0.7492 -1.9226
35087SOL     OW11865   2.882   9.032   4.918  0.0192  0.5362  0.0775
35087SOL    HW111866   2.954   9.088   4.887  0.4148 -1.5542 -3.3513
35087SOL    HW211867   2.925   8.969   4.976  0.6003  0.4641 -0.4201
35088SOL     OW11868  12.024  10.113   7.218  0.8571 -0.5145 -0.0184
35088SOL    HW111869  11.957  10.162   7.265 -0.2307 -1.9650  0.0003
35088SOL    HW211870  12.034  10.031   7.267  0.1431 -1.8009 -1.9045
35089SOL     OW11871  11.392  10.029   5.611  0.3833 -0.3341 -0.4936
35089SOL    HW111872  11.485  10.041   5.629  0.2440 -0.1756  0.1430
35089SOL    HW211873  11.356  10.118   5.607 -0.0221 -0.4195  0.8255
35090SOL     OW11874   4.204   8.513   9.001 -0.2248  0.0594  0.2330
35090SOL    HW111875   4.166   8.445   9.056  0.8319 -0.8717 -0.1497
35090SOL    HW211876   4.135   8.535   8.938 -0.8784 -0.0132  0.9085
35091SOL     OW11877   0.243  12.117   5.049  0.3323 -0.5574 -0.7653
35091SOL    HW111878   0.147  12.121   5.050  0.3714  0.5090  0.2924
35091SOL    HW211879   0.271  12.204   5.021  0.9967 -0.2922  0.6100
35092SOL     OW11880   5.823   8.763   7.521 -0.1821  0.1063 -0.0759
35092SOL    HW111881   5.782   8.816   7.590  1.0352  0.5710  0.3283
35092SOL    HW211882   5.911   8.800   7.512  0.3712 -1.2314 -0.4732
35093SOL     OW11883  12.614  12.281   1.906  0.3491 -0.5918  0.0231
35093SOL    HW111884  12.523  12.303   1.889  0.3923 -1.0858 -0.9028
35093SOL    HW211885  12.616  12.258   1.999 -0.2654  0.3770  0.2926
35094SOL     OW11886  12.557   8.211   3.849 -0.0642  0.0142 -0.1262
35094SOL    HW111887  12.652   8.217   3.840  0.3022 -1.3595  1.9969
35094SOL    HW211888  12.529   8.154   3.778  1.2393 -2.5243  1.2690
35095SOL     OW11889   3.431   4.581   7.022 -0.5678  0.5632  0.1707
35095SOL    HW111890   3.335   4.580   7.029 -0.5018  0.7795  1.1801
35095SOL    HW211891   3.459   4.651   7.081  0.2614 -0.0785  0.5597
35096SOL     OW11892   6.799   3.899   9.354 -0.7190  0.0987  0.0247
35096SOL    HW111893   6.744   3.858   9.287 -0.3666 -0.0505 -0.1789
35096SOL    HW211894   6.869   3.835   9.369 -1.0161 -0.0441  0.8253
35097SOL     OW11895  11.290  11.152   6.164  0.2133 -0.1533  0.2599
35097SOL    HW111896  11.383  11.174   6.157  0.8299 -2.2443  1.0984
35097SOL    HW211897  11.245  11.223   6.117  2.1524  1.2775  0.4236
35098SOL     OW11898   4.577  12.353   3.352  0.3709 -0.3289  0.0326
35098SOL    HW111899   4.660  12.398   3.363 -0.0109  0.3642  0.1637
35098SOL    HW211900   4.511  12.421   3.366 -0.2078 -0.5825 -1.2850
35099SOL     OW11901   0.836   7.118  12.773  0.2585  0.5496  0.6630
35099SOL    HW111902   0.899   7.084  12.837 -0.3460 -0.3543  0.8064
35099SOL    HW211903   0.762   7.147  12.825 -1.4415 -2.7319  0.3418
35100SOL     OW11904   9.366   7.941  10.324  0.0768 -0.3702 -0.4525
35100SOL    HW111905   9.288   7.986  10.356  1.1926  1.0056  0.4515
35100SOL    HW211906   9.438   7.979  10.373  1.2451 -2.3140 -0.5465
35101SOL     OW11907   4.537   4.663   0.434 -0.5224 -0.0565  0.0613
35101SOL    HW111908   4.563   4.577   0.403  1.4298  0.3657  0.3925
35101SOL    HW211909   4.577   4.670   0.521 -1.3792  0.8404  0.3996
35102SOL     OW11910  11.998  12.123   1.685  0.0919 -0.3250  0.0391
35102SOL    HW111911  11.999  12.185   1.612 -0.1710  1.4207  1.4543
35102SOL    HW211912  11.910  12.131   1.722 -1.0011 -3.7345 -1.4452
35103SOL     OW11913   0.744  12.652   1.473 -0.5211 -0.1496  0.5642
35103SOL    HW111914   0.717  12.589   1.539 -0.1516  0.2742  1.1228
35103SOL    HW211915   0.662  12.693   1.445 -1.0442 -2.2641 -1.2843
35104SOL     OW11916   5.655   5.660   7.630 -0.3084 -0.7867 -0.6525
35104SOL    HW111917   5.588   5.649   7.697 -0.9790 -0.5582 -1.2796
35104SOL    HW211918   5.705   5.737   7.658 -0.5750 -0.7027 -0.4065
35105SOL     OW11919   0.932   4.092   3.091 -0.2434  0.7613 -0.0009
35105SOL    HW111920   0.890   4.178   3.083 -0.7567  0.5599  0.4984
35105SOL    HW211921   0.962   4.088   3.181 -0.7488  0.1830  0.1529
35106SOL     OW11922  11.253  11.805  11.110 -0.4055 -0.2560 -0.0666
35106SOL    HW111923  11.327  11.866  11.105  0.5568 -1.4255 -0.6388
35106SOL    HW211924  11.213  11.810  11.023 -0.0149 -0.7959 -0.2845
35107SOL     OW11925   9.757   3.050   9.396 -0.0126  0.5628  0.8236
35107SOL    HW111926   9.760   3.012   9.483 -0.4061  0.5471  0.8327
35107SOL    HW211927   9.664   3.068   9.380 -0.4721 -2.5365 -0.9098
35108SOL     OW11928   8.500   7.766   0.335  0.3455 -0.0319  0.2320
35108SOL    HW111929   8.526   7.838   0.277 -0.4444  1.0404  1.1576
35108SOL    HW211930   8.507   7.688   0.280  0.2439  0.8586 -1.1216
35109SOL     OW11931   8.964  10.642   1.541 -0.0380 -0.0898 -0.4852
35109SOL    HW111932   8.931  10.557   1.512  0.1317  0.0122 -0.9893
35109SOL    HW211933   8.920  10.658   1.625  1.2733 -1.5066  0.5480
35110SOL     OW11934   5.062   6.230   4.904  0.4178 -0.1097  0.3711
35110SOL    HW111935   5.065   6.268   4.816 -0.7057 -0.5520  0.1173
35110SOL    HW211936   5.147   6.187   4.915  0.2914 -0.6938 -0.8095
35111SOL     OW11937   5.070  11.387  10.045  0.2816 -0.5846 -0.7336
35111SOL    HW111938   5.027  11.366   9.962  0.5816  1.3384 -1.4374
35111SOL    HW211939   5.042  11.477  10.064  1.7202 -0.3164  0.2632
35112SOL     OW11940   6.740  12.668   5.399 -0.4256 -0.4311  0.0479
35112SOL    HW111941   6.765  12.758   5.418 -0.1218 -0.4946 -0.0415
35112SOL    HW211942   6.792  12.615   5.459 -0.9742 -0.5199  0.4436
35113SOL     OW11943   5.545   5.423   0.551  0.8481  0.1740 -0.5100
35113SOL    HW111944   5.524   5.503   0.504 -0.1349 -0.0309 -0.4551
35113SOL    HW211945   5.501   5.354   0.502  2.1131 -0.4138 -0.8516
35114SOL     OW11946  10.013   6.098   2.506 -0.3998  0.4424  0.2923
35114SOL    HW111947   9.938   6.058   2.461  0.3912 -2.0317  0.9731
35114SOL    HW211948  10.026   6.182   2.462 -3.1531  0.6767 -0.2504
35115SOL     OW11949  12.586   3.553  10.238  0.0011  0.2546 -0.4887
35115SOL    HW111950  12.560   3.461  10.229  1.5458 -0.0336 -3.5617
35115SOL    HW211951  12.679   3.549  10.260 -0.0562  1.0817 -0.1020
35116SOL     OW11952   7.335  12.644   6.403 -0.0628  0.4052 -0.4266
35116SOL    HW111953   7.371  12.559   6.376 -0.3810  0.7677 -2.0770
35116SOL    HW211954   7.397  12.708   6.369 -0.8942  0.9135 -1.0313
35117SOL     OW11955   6.062   8.654   1.376  0.1267 -0.0908  0.2583
35117SOL    HW111956   6.131   8.692   1.430  0.0487 -0.7253  0.8080
35117SOL    HW211957   5.983   8.656   1.430 -0.1171 -0.0568 -0.0928
35118SOL     OW11958   1.865  12.005   7.257 -0.3486 -0.3446  0.0903
35118SOL    HW111959   1.800  12.035   7.320 -1.3768 -0.7019 -0.7785
35118SOL    HW211960   1.943  11.986   7.310  0.1226  2.9797  0.8130
35119SOL     OW11961   8.277   8.633   6.984  0.2949 -0.0281  0.1420
35119SOL    HW111962   8.276   8.570   7.056 -1.7020 -0.3866 -0.1553
35119SOL    HW211963   8.186   8.659   6.972  0.6233  0.3859 -1.9433
35120SOL     OW11964   9.250   6.737   3.743  0.0216  0.2688  0.3380
35120SOL    HW111965   9.327   6.691   3.775 -0.6005 -0.8625  0.2625
35120SOL    HW211966   9.194   6.747   3.821  0.2324  1.1085  0.3988
35121SOL     OW11967   0.452   3.550   3.616  0.1290  0.2993  0.0273
35121SOL    HW111968   0.457   3.497   3.537  0.9232  0.1189  0.1908
35121SOL    HW211969   0.480   3.638   3.589 -0.4170  0.4452 -0.0714
35122SOL     OW11970   6.545   8.343  10.770  0.4989 -0.1462  0.4666
35122SOL    HW111971   6.466   8.366  10.818 -0.6286 -1.4456 -0.6717
35122SOL    HW211972   6.615   8.390  10.815 -0.9734  1.4839  1.1716
35123SOL     OW11973   0.099   5.540   3.754  0.8503 -0.8109  0.4333
35123SOL    HW111974   0.063   5.514   3.670 -2.1526  0.3397  1.2234
35123SOL    HW211975   0.038   5.502   3.818  0.5363  1.8472  1.8523
35124SOL     OW11976  12.009  10.018   0.911 -0.3780 -0.2196  0.2623
35124SOL    HW111977  11.980  10.090   0.855 -1.6858 -0.2662  0.8360
35124SOL    HW211978  12.083  10.054   0.960  1.2857 -0.4191 -1.9850
35125SOL     OW11979   3.176  11.415   5.079 -0.3928  0.3392 -0.4814
35125SOL    HW111980   3.114  11.342   5.088  0.0774 -0.0167 -0.1000
35125SOL    HW211981   3.260  11.379   5.104 -0.4045  1.4155  1.2655
35126SOL     OW11982   8.288   8.744  10.804 -0.0041 -0.0610  0.0321
35126SOL    HW111983   8.348   8.675  10.775  0.0326 -1.5565  3.3086
35126SOL    HW211984   8.341   8.798  10.863 -0.8781  0.9000 -0.0423
35127SOL     OW11985   4.202   7.539   9.210  0.2168 -0.3863 -0.1287
35127SOL    HW111986   4.127   7.515   9.265  1.0368 -2.8134  0.0477
35127SOL    HW211987   4.170   7.612   9.157 -1.2254  0.7918  2.1757
35128SOL     OW11988   0.145   5.456  12.254 -0.5011  0.1965  0.0611
35128SOL    HW111989   0.116   5.546  12.238  2.5299  1.3289  0.3092
35128SOL    HW211990   0.143   5.447  12.349 -1.4910 -0.2857  0.0046
35129SOL     OW11991  12.220   0.061   8.142  0.4206  0.4914 -0.1397
35129SOL    HW111992  12.159   0.016   8.201  0.0213 -0.8691 -1.5461
35129SOL    HW211993  12.211   0.154   8.165  0.9165 -0.0269  2.5116
35130SOL     OW11994  12.023   3.184  10.934  0.0619  0.2041 -0.7375
35130SOL    HW111995  12.104   3.211  10.891  0.1617  0.6328 -0.2879
35130SOL    HW211996  11.955   3.232  10.887  0.2647  1.4939  0.2486
35131SOL     OW11997  10.882  10.669   5.800  0.2023 -0.7372 -0.0774
35131SOL    HW111998  10.890  10.702   5.889  1.2050 -0.6447 -0.1947
35131SOL    HW211999  10.818  10.727   5.759  0.2843 -0.3231  0.3667
35132SOL     OW12000   5.331   2.635  11.167  0.0775  0.2093  0.0298
35132SOL    HW112001   5.291   2.702  11.221 -0.5208  0.2617 -0.4719
35132SOL    HW212002   5.276   2.557  11.180  0.6384 -0.1270  0.4402
35133SOL     OW12003   4.350  11.616   0.071  0.2496 -0.7433 -1.0603
35133SOL    HW112004   4.336  11.607  -0.024 -2.8220 -1.8005 -0.6124
35133SOL    HW212005   4.267  11.650   0.104  1.8682  1.4514  1.0926
35134SOL     OW12006   6.188   7.146  11.416 -0.2865 -0.0923  0.1241
35134SOL    HW112007   6.148   7.223  11.455 -0.8781  0.0163 -0.7003
35134SOL    HW212008   6.136   7.127  11.339  1.9950  0.8419 -1.7586
35135SOL     OW12009   4.294   9.791   7.207 -0.1993 -0.1107  0.6869
35135SOL    HW112010   4.209   9.805   7.167  0.6953  0.0793 -1.2982
35135SOL    HW212011   4.290   9.838   7.290 -1.0743  2.4671 -0.6749
35136SOL     OW12012   7.753  12.283   0.987  0.1318  0.1555 -0.1176
35136SOL    HW112013   7.705  12.291   0.905 -0.8129  0.3037  0.4426
35136SOL    HW212014   7.744  12.369   1.028  0.7946  0.1529  0.0501
35137SOL     OW12015   9.171   0.267   6.497  0.0841 -0.1855  0.3482
35137SOL    HW112016   9.167   0.358   6.466 -0.6364 -0.0282  0.8694
35137SOL    HW212017   9.264   0.245   6.494  0.1051 -0.0106 -1.3999
35138SOL     OW12018   4.306  10.652  11.698 -0.7244  0.1877 -0.2588
35138SOL    HW112019   4.219  10.611  11.698 -0.6339 -0.0015 -0.0011
35138SOL    HW212020   4.361  10.592  11.747 -0.2416 -0.1245 -1.1625
35139SOL     OW12021  10.906   7.526   4.500  0.0665  0.3641 -0.9989
35139SOL    HW112022  10.923   7.527   4.406 -0.3741  0.6722 -1.0811
35139SOL    HW212023  10.815   7.555   4.508 -0.2928 -0.8279 -0.5553
35140SOL     OW12024   1.187   4.302   4.384 -0.3121 -0.0975  0.4563
35140SOL    HW112025   1.248   4.374   4.401  0.6205 -1.1112  1.5735
35140SOL    HW212026   1.241   4.235   4.343 -0.7052 -0.9502  1.2997
35141SOL     OW12027  12.590  10.845  11.788  0.7085 -0.8506  0.3975
35141SOL    HW112028  12.634  10.875  11.868 -0.8357  2.9279  0.0607
35141SOL    HW212029  12.625  10.902  11.720 -0.7096 -1.5080 -0.9122
35142SOL     OW12030   0.215   7.323   4.444 -0.2841 -0.1261  0.2609
35142SOL    HW112031   0.268   7.389   4.400 -1.3030 -0.8552 -2.1806
35142SOL    HW212032   0.155   7.374   4.499  0.5898  0.8307  0.3724
35143SOL     OW12033   1.489   1.546   6.623  0.1290  0.0200  0.2480
35143SOL    HW112034   1.562   1.542   6.561  1.6571  0.4071  1.9439
35143SOL    HW212035   1.448   1.460   6.618 -0.8480  0.5550 -2.4617
35144SOL     OW12036   0.131   6.041   1.152  0.6710  0.4967  0.3449
35144SOL    HW112037   0.073   5.994   1.092  0.0961 -0.0680  1.3124
35144SOL    HW212038   0.121   5.995   1.235  0.9505  1.6667  1.0465
35145SOL     OW12039   6.342  10.731   2.167  0.2591 -0.2168  0.2631
35145SOL    HW112040   6.347  10.635   2.171  0.8836 -0.1761  0.5187
35145SOL    HW212041   6.433  10.760   2.178 -0.0115  0.4274  0.8428
35146SOL     OW12042   9.954   6.617   6.573  0.1498 -0.0127 -0.1080
35146SOL    HW112043   9.996   6.531   6.576 -1.9592 -1.1212  2.0709
35146SOL    HW212044   9.861   6.597   6.585 -0.4484  2.5772 -0.0033
35147SOL     OW12045   2.746   8.341  10.971 -0.1475 -0.1902  0.0589
35147SOL    HW112046   2.816   8.359  11.034  0.3211 -1.2724 -0.1393
35147SOL    HW212047   2.781   8.371  10.887 -0.3073  0.1510  0.1110
35148SOL     OW12048   7.868   1.124   6.193  0.1810 -0.1477 -0.7811
35148SOL    HW112049   7.810   1.048   6.182  0.1919 -0.3769  0.5437
35148SOL    HW212050   7.938   1.110   6.129 -1.4579  0.3964 -2.7603
35149SOL     OW12051  10.424  12.421   0.367 -1.0587 -0.3106 -0.3502
35149SOL    HW112052  10.503  12.455   0.408 -1.0048 -1.5589  0.6369
35149SOL    HW212053  10.354  12.480   0.396 -0.8358 -0.5248  0.6348
35150SOL     OW12054   8.494  11.631   2.596 -0.5470 -0.1225 -0.1184
35150SOL    HW112055   8.423  11.635   2.532 -0.8099 -2.1856 -0.0097
35150SOL    HW212056   8.464  11.569   2.662  0.9148 -0.2171  0.5041
35151SOL     OW12057   9.385   9.691   1.397  0.3050 -0.0238  0.2323
35151SOL    HW112058   9.408   9.653   1.482  1.1917  1.1618  0.5466
35151SOL    HW212059   9.326   9.627   1.358  0.4562 -0.9374  1.4297
35152SOL     OW12060   9.632  11.447  11.865  0.4758 -0.0985  0.3805
35152SOL    HW112061   9.662  11.497  11.941  2.6957 -1.1259  0.2427
35152SOL    HW212062   9.614  11.514  11.798  2.3668  0.6394  0.5374
35153SOL     OW12063   3.729   9.884   5.558 -0.4293 -0.1608  0.4026
35153SOL    HW112064   3.782   9.940   5.615  0.1630 -0.2969  0.0063
35153SOL    HW212065   3.755   9.910   5.469 -1.1070 -0.1652  0.2002
35154SOL     OW12066  12.333   6.763  11.651  0.0702 -0.1193 -0.2573
35154SOL    HW112067  12.251   6.718  11.671 -0.9341  1.9336  0.4874
35154SOL    HW212068  12.306   6.848  11.616  1.8588  0.6873  0.1951
35155SOL     OW12069   4.517   7.113   8.992 -0.2221  0.5845 -0.2671
35155SOL    HW112070   4.424   7.118   9.014 -0.9630 -1.1563 -2.6319
35155SOL    HW212071   4.551   7.042   9.048 -1.2275 -1.2829 -1.9121
35156SOL     OW12072   2.286   3.107  10.426  0.5527 -0.8547  0.2724
35156SOL    HW112073   2.276   3.170  10.355  0.3661 -1.5123 -0.3024
35156SOL    HW212074   2.198   3.071  10.438  0.7376 -1.3124  0.2881
35157SOL     OW12075  10.793  11.070   8.140 -0.0349 -0.1772  0.2405
35157SOL    HW112076  10.772  11.143   8.082 -3.3270 -0.5057  0.8147
35157SOL    HW212077  10.736  11.082   8.216  2.2050 -1.2215  2.2357
35158SOL     OW12078   8.564   2.977   5.194 -0.0879 -0.4406 -0.4287
35158SOL    HW112079   8.590   2.887   5.214  0.4814 -0.2067 -0.0887
35158SOL    HW212080   8.500   2.969   5.124 -2.8121 -1.3553  1.9901
35159SOL     OW12081   1.918   3.027  10.235 -0.0301 -0.6470 -0.1101
35159SOL    HW112082   1.928   2.955  10.173 -0.6216 -0.6057 -0.2584
35159SOL    HW212083   1.844   3.077  10.202 -0.7095 -0.9343  0.9328
35160SOL     OW12084  10.336   7.915   5.836 -0.0716 -0.6070  0.4217
35160SOL    HW112085  10.274   7.980   5.868  0.5217 -1.2362  3.1566
35160SOL    HW212086  10.282   7.851   5.789 -1.3257 -0.4317  1.5575
35161SOL     OW12087   1.136   5.516  10.216  0.0479 -0.1500 -0.4078
35161SOL    HW112088   1.046   5.488  10.233  0.6499 -1.8771  0.0975
35161SOL    HW212089   1.145   5.513  10.121 -1.5517  3.8815 -0.9094
35162SOL     OW12090  12.430   8.012   7.691  0.3519 -0.0409 -0.1707
35162SOL    HW112091  12.395   8.100   7.702 -0.9433 -0.6234  0.5914
35162SOL    HW212092  12.524   8.023   7.703  0.0544  0.9946  1.6966
35163SOL     OW12093  12.275  10.814   9.584 -0.5073  0.1438 -0.2300
35163SOL    HW112094  12.208  10.761   9.628  1.7128 -3.0650 -0.4548
35163SOL    HW212095  12.306  10.874   9.652 -0.3868 -1.5591  1.2979
35164SOL     OW12096  12.433   0.054  12.635 -0.5620  0.1507 -0.4278
35164SOL    HW112097  12.453  -0.036  12.659 -1.4609  0.2382  0.7940
35164SOL    HW212098  12.340   0.053  12.612 -0.8057  0.8998  0.4374
35165SOL     OW12099   4.232   9.932  11.435 -0.3259 -1.1987  0.5043
35165SOL    HW112100   4.200   9.863  11.377 -0.6027 -0.5445 -0.1230
35165SOL    HW212101   4.303   9.973  11.387 -0.4278 -0.7795  0.7093
35166SOL     OW12102  12.718   7.832   0.576 -0.4180 -0.0450  0.5171
35166SOL    HW112103  12.658   7.872   0.513 -0.2847  0.1299  0.5020
35166SOL    HW212104  12.742   7.748   0.536  2.4785  1.5174 -1.4261
35167SOL     OW12105   2.808   5.738   8.518 -0.0330  0.5103  0.1855
35167SOL    HW112106   2.800   5.691   8.435  2.0038  0.1880  0.1327
35167SOL    HW212107   2.814   5.830   8.494 -0.2522  0.4881  0.0436
35168SOL     OW12108   8.591   2.370   5.226 -0.7559  0.2218  0.1964
35168SOL    HW112109   8.630   2.296   5.179  0.6089 -0.9414  2.9691
35168SOL    HW212110   8.634   2.447   5.189  0.4686 -0.6537 -0.2830
35169SOL     OW12111   9.218   4.549   2.143  0.3773  0.7524 -0.0129
35169SOL    HW112112   9.210   4.547   2.048  0.6204 -4.1577 -0.2273
35169SOL    HW212113   9.312   4.560   2.159  0.3940  1.1044 -0.3515
35170SOL     OW12114   8.444   0.463   0.527  0.4178  0.1636 -0.8704
35170SOL    HW112115   8.494   0.531   0.573 -1.0056 -0.0794  1.1935
35170SOL    HW212116   8.383   0.430   0.593  0.1895 -2.2576 -2.1688
35171SOL     OW12117  11.154   6.292  10.569  0.1488 -0.4186 -0.1560
35171SOL    HW112118  11.150   6.380  10.605 -1.1727 -0.1346 -0.9480
35171SOL    HW212119  11.075   6.249  10.602  1.7977 -2.0483  1.9864
35172SOL     OW12120   8.277  12.095   2.642 -0.3041  0.4100 -0.1372
35172SOL    HW112121   8.241  12.058   2.561  0.0506  1.4026 -0.7732
35172SOL    HW212122   8.328  12.024   2.680  0.1435  0.1485 -1.1916
35173SOL     OW12123  12.144   6.429   2.484  0.0448 -0.0455  0.0884
35173SOL    HW112124  12.064   6.483   2.484 -0.8115 -1.2454  1.0357
35173SOL    HW212125  12.113   6.342   2.507  1.6979 -0.4590  0.8591
35174SOL     OW12126   0.191   5.139  10.589 -0.2675 -0.0936  0.0443
35174SOL    HW112127   0.167   5.168  10.677 -0.2863 -2.1234  0.7556
35174SOL    HW212128   0.108   5.129  10.543 -0.2100  2.1751 -0.6739
35175SOL     OW12129   9.708   0.119   9.497  0.1355 -0.3077  0.0454
35175SOL    HW112130   9.759   0.121   9.415 -0.0092  0.8952 -0.0355
35175SOL    HW212131   9.732   0.036   9.538  1.6597 -0.0844 -0.3192
35176SOL     OW12132  10.901  11.132  10.179 -0.4288  0.0574 -0.2470
35176SOL    HW112133  10.912  11.147  10.272 -0.3840 -0.2508 -0.2044
35176SOL    HW212134  10.945  11.049  10.161 -3.0058 -1.4835  0.0302
35177SOL     OW12135  10.560   9.247  10.677  0.1935  0.3851  0.2252
35177SOL    HW112136  10.536   9.194  10.601 -0.5916  2.1321 -0.7867
35177SOL    HW212137  10.603   9.184  10.736 -0.2184 -1.2599 -1.1252
35178SOL     OW12138   1.067  12.456  10.512  0.0244  0.0455  0.0148
35178SOL    HW112139   0.988  12.412  10.543  1.2534 -1.9226  0.5202
35178SOL    HW212140   1.035  12.540  10.479 -2.3646 -0.9395 -0.4419
35179SOL     OW12141   8.939  12.069   7.602  0.2976  0.2118 -0.0058
35179SOL    HW112142   8.903  11.986   7.633 -0.2625  0.8922  1.2323
35179SOL    HW212143   9.020  12.082   7.653 -0.0294  0.7882  0.3860
35180SOL     OW12144   7.848   3.233   9.597  0.3256 -0.0243  0.0871
35180SOL    HW112145   7.859   3.213   9.504  1.4606  0.5252  0.0792
35180SOL    HW212146   7.801   3.316   9.599  0.2789 -0.0493 -0.0023
35181SOL     OW12147   1.465   8.253   2.296  0.4361  0.0874 -0.6702
35181SOL    HW112148   1.516   8.173   2.291 -0.6407 -0.5819 -1.3302
35181SOL    HW212149   1.431   8.255   2.386  0.6474 -0.0683 -0.5868
35182SOL     OW12150  10.981  10.856  12.535 -0.2692  0.1185 -0.1304
35182SOL    HW112151  11.062  10.905  12.541 -0.4820  0.5351 -0.5830
35182SOL    HW212152  11.008  10.764  12.539  0.2544  0.2464 -0.6366
35183SOL     OW12153   8.660  12.561   1.799 -0.1782  0.6034 -0.2706
35183SOL    HW112154   8.680  12.534   1.888 -0.1771  0.4286 -0.3230
35183SOL    HW212155   8.684  12.486   1.745  2.7589  1.7379 -0.7512
35184SOL     OW12156   9.972   0.605   8.122  0.2768 -0.0278  0.2695
35184SOL    HW112157   9.965   0.699   8.103  1.4410  0.1702  0.7465
35184SOL    HW212158   9.960   0.598   8.216 -0.9179 -0.4972  0.0946
35185SOL     OW12159  11.610   4.183   9.913 -0.4711  0.6691 -0.3236
35185SOL    HW112160  11.533   4.199   9.858  1.2804  0.9353 -2.8312
35185SOL    HW212161  11.626   4.267   9.956 -1.1249  0.8113 -0.3437
35186SOL     OW12162   1.990   1.445  11.029 -0.1711 -0.4080 -0.0324
35186SOL    HW112163   1.945   1.361  11.032  0.1699 -0.6085 -0.3359
35186SOL    HW212164   2.043   1.440  10.949 -0.9141  0.4909 -0.6051
35187SOL     OW12165   0.155   1.171   1.403 -0.0168 -0.7830  0.4389
35187SOL    HW112166   0.231   1.144   1.455 -1.6062 -2.7771  1.8975
35187SOL    HW212167   0.183   1.251   1.359  2.3039 -0.4235  2.3741
35188SOL     OW12168   7.220   5.127   4.537 -0.0302  0.5608 -0.4454
35188SOL    HW112169   7.168   5.201   4.505 -1.9743  0.6549  2.5277
35188SOL    HW212170   7.163   5.051   4.524  0.6790  0.0484 -0.5910
35189SOL     OW12171   0.977  11.995   3.646  0.1746  0.6335 -0.6915
35189SOL    HW112172   0.904  12.049   3.676  1.0792  2.1321 -1.1306
35189SOL    HW212173   0.935  11.918   3.607 -1.1009  0.1222  1.5189
35190SOL     OW12174   3.343   1.117  10.121  0.3619  0.1556  0.8314
35190SOL    HW112175   3.434   1.089  10.120  0.7401  1.3250  0.6708
35190SOL    HW212176   3.328   1.157  10.035 -0.9092 -1.7870  0.0864
35191SOL     OW12177  12.614   6.026   5.791 -0.3716 -0.1353 -0.4393
35191SOL    HW112178  12.687   6.079   5.823  0.2336  0.3632 -2.5140
35191SOL    HW212179  12.652   5.939   5.777 -0.0828  0.1650 -1.6768
35192SOL     OW12180  10.265   6.677   7.233 -0.4439 -0.0447 -0.2878
35192SOL    HW112181  10.263   6.729   7.314 -1.2652  0.7390 -0.7901
35192SOL    HW212182  10.250   6.740   7.163 -1.4604 -0.9477 -0.9173
35193SOL     OW12183   4.822   4.029   7.758 -0.4773 -0.0369 -0.3148
35193SOL    HW112184   4.781   3.942   7.760  2.0330 -1.2874  0.2796
35193SOL    HW212185   4.849   4.045   7.848 -0.9015  1.3967 -0.4201
35194SOL     OW12186  10.238   4.831   7.227  0.0536 -0.0894  0.1670
35194SOL    HW112187  10.289   4.758   7.261 -4.1522 -2.6499  1.7320
35194SOL    HW212188  10.282   4.909   7.260  3.6827 -1.8493  0.0289
35195SOL     OW12189   1.805   0.176  11.963  1.0454 -0.2516  0.0022
35195SOL    HW112190   1.782   0.214  11.879 -0.3706 -1.0008  0.0299
35195SOL    HW212191   1.775   0.085  11.958  0.3249 -0.1277  1.5475
35196SOL     OW12192   5.611   2.467   2.126  0.2810 -0.0284  0.5482
35196SOL    HW112193   5.590   2.556   2.096  1.0758  0.3877  1.1598
35196SOL    HW212194   5.659   2.481   2.208  0.2141 -1.0396  0.7714
35197SOL     OW12195   6.515   4.949   5.776  0.2712  0.5245 -0.3116
35197SOL    HW112196   6.551   4.869   5.739 -1.7206 -1.1248  1.1305
35197SOL    HW212197   6.566   5.019   5.735  0.9175 -1.3430 -2.9612
35198SOL     OW12198   7.020   1.923   1.390  0.0352  0.0632 -0.2860
35198SOL    HW112199   7.093   1.912   1.451 -1.7713 -1.1064  1.8291
35198SOL    HW212200   6.960   1.983   1.434 -2.2112 -2.2784  0.0954
35199SOL     OW12201   2.064   9.999   0.129 -0.0600 -0.0441  0.1092
35199SOL    HW112202   2.058  10.089   0.162  0.8364 -0.0507  0.3135
35199SOL    HW212203   2.009   9.999   0.050  2.4447  1.5660 -1.7678
35200SOL     OW12204   7.948   5.252   5.194  0.6815  0.0517 -0.0202
35200SOL    HW112205   8.004   5.312   5.146 -1.1232  0.4643 -1.7473
35200SOL    HW212206   7.937   5.292   5.280  3.6814 -0.5014  0.7202
35201SOL     OW12207  12.017   3.406  10.613 -0.3564 -0.3365 -0.1076
35201SOL    HW112208  11.989   3.409  10.521 -0.7128 -0.3053  0.0006
35201SOL    HW212209  11.939   3.378  10.661 -0.4594  0.6193  0.3057
35202SOL     OW12210   6.263  12.508   4.445  0.3212  0.2785 -0.5054
35202SOL    HW112211   6.251  12.586   4.499  1.2840 -0.7231  1.2482
35202SOL    HW212212   6.219  12.438   4.493  1.9909 -0.8247 -0.5026
35203SOL     OW12213   6.827   0.159   5.740 -0.0055 -0.0941 -0.2331
35203SOL    HW112214   6.768   0.231   5.761 -1.6180 -1.4813  0.2471
35203SOL    HW212215   6.770   0.082   5.733  1.4145 -1.0350 -2.5078
35204SOL     OW12216   8.479  12.077   0.984 -0.0529 -0.3566 -0.5727
35204SOL    HW112217   8.489  12.002   1.042 -2.1747 -0.1108  0.2173
35204SOL    HW212218   8.557  12.130   1.000 -0.7492 -0.0314  2.5385
35205SOL     OW12219  11.909   8.789  11.090 -0.1790 -0.2795 -0.6594
35205SOL    HW112220  11.846   8.771  11.160  0.0338  0.9235 -0.1249
35205SOL    HW212221  11.981   8.727  11.105 -0.0957  0.0171  0.2550
35206SOL     OW12222   8.919  10.455   4.161  0.0496  0.0020 -0.1868
35206SOL    HW112223   8.840  10.482   4.207  0.2126  0.6003 -0.2495
35206SOL    HW212224   8.990  10.479   4.220  0.2124 -0.0061 -0.3771
35207SOL     OW12225   7.156   3.692   0.104  0.0698  0.2973 -0.5368
35207SOL    HW112226   7.243   3.732   0.109  0.4504 -0.7038  1.8238
35207SOL    HW212227   7.147   3.666   0.012  2.1797  0.5913 -0.8739
35208SOL     OW12228   3.325   7.190   9.143 -0.2872  0.2581  0.3009
35208SOL    HW112229   3.350   7.283   9.146  0.4877  0.0740 -0.2572
35208SOL    HW212230   3.342   7.158   9.232  1.8197  0.0636 -0.1233
35209SOL     OW12231   7.890   7.049  12.396  0.7012  0.4576  0.6231
35209SOL    HW112232   7.946   6.972  12.404  0.3533  0.1485  0.1292
35209SOL    HW212233   7.929   7.101  12.326  0.0557 -0.0497 -0.1395
35210SOL     OW12234   3.560   6.675  12.265  0.8653  0.3440 -0.3853
35210SOL    HW112235   3.500   6.730  12.316  0.3078  0.9390 -1.6440
35210SOL    HW212236   3.642   6.724  12.262  0.4544  0.9925 -1.2687
35211SOL     OW12237   9.398  10.551  11.874 -0.1850  1.0086 -0.3833
35211SOL    HW112238   9.377  10.457  11.878  0.1222  0.9366  3.4332
35211SOL    HW212239   9.494  10.554  11.874 -0.0751  1.1548  2.8671
35212SOL     OW12240   8.567   2.822   5.453 -0.2945 -0.6675 -0.2644
35212SOL    HW112241   8.594   2.907   5.488  0.3772 -0.9238 -0.1448
35212SOL    HW212242   8.473   2.817   5.471 -0.5162  0.3923 -0.9946
35213SOL     OW12243   4.054   2.520   3.782  0.3212  0.1954  0.3811
35213SOL    HW112244   4.057   2.587   3.850 -1.1438  2.8934 -1.9889
35213SOL    HW212245   4.125   2.544   3.722 -0.2687 -0.3231 -0.5477
35214SOL     OW12246   4.819   7.658   3.643  0.9044  0.1492 -0.0764
35214SOL    HW112247   4.902   7.705   3.651 -0.3343  2.1730  5.0502
35214SOL    HW212248   4.837   7.572   3.680  1.4330 -0.9154 -2.5892
35215SOL     OW12249   3.890   4.905   9.884 -0.1106  0.3462 -0.1191
35215SOL    HW112250   3.806   4.947   9.905 -0.1861  0.3168 -0.3636
35215SOL    HW212251   3.912   4.937   9.797 -0.5979 -0.8048 -0.6733
35216SOL     OW12252   3.763   0.789   3.936  0.3099 -0.6422  0.5393
35216SOL    HW112253   3.680   0.834   3.948  0.8723  0.6934 -0.3969
35216SOL    HW212254   3.739   0.704   3.898 -0.5965  0.0292 -0.4504
35217SOL     OW12255   5.174   0.480   4.431 -0.1662  0.2596 -0.1730
35217SOL    HW112256   5.168   0.544   4.502 -1.6566 -1.7195  1.6673
35217SOL    HW212257   5.246   0.422   4.456 -1.8477 -1.5407  0.8449
35218SOL     OW12258   0.334  11.489   8.764  0.3595  0.1625  0.1921
35218SOL    HW112259   0.378  11.571   8.738  0.4998 -0.0479 -0.2459
35218SOL    HW212260   0.405  11.430   8.786  0.3232 -0.2606 -0.7605
35219SOL     OW12261   3.195   9.844   9.403 -0.3710 -0.1001  0.1602
35219SOL    HW112262   3.192   9.756   9.365  1.3406 -0.5509  0.9791
35219SOL    HW212263   3.180   9.903   9.329  1.3422 -0.9953 -0.9564
35220SOL     OW12264   0.027   8.101  12.225 -0.0727  0.4546 -0.8667
35220SOL    HW112265   0.074   8.184  12.233 -0.9477  1.1052 -2.0991
35220SOL    HW212266   0.021   8.068  12.315 -0.4861  2.1698 -0.2239
35221SOL     OW12267   6.493   9.023  10.156 -0.3378 -0.2901 -0.6255
35221SOL    HW112268   6.452   8.937  10.165 -0.6355 -0.1011 -0.1308
35221SOL    HW212269   6.420   9.082  10.137 -0.1581 -0.1147 -0.7721
35222SOL     OW12270   4.016   0.804   6.162  0.4760 -0.5656 -0.4325
35222SOL    HW112271   4.035   0.852   6.081 -0.0723 -1.2715 -0.9992
35222SOL    HW212272   3.992   0.716   6.132 -0.8488 -0.5245  0.4296
35223SOL     OW12273  12.485   2.823  10.160  0.2302 -0.1197  0.6238
35223SOL    HW112274  12.446   2.756  10.216  2.2947 -0.7194  1.4388
35223SOL    HW212275  12.517   2.776  10.083 -1.9064  0.5918 -0.7925
35224SOL     OW12276   1.313   7.643   4.476 -0.3659  0.6717 -0.4855
35224SOL    HW112277   1.350   7.575   4.532  1.7974  0.4399 -2.0504
35224SOL    HW212278   1.238   7.676   4.524 -0.0155 -1.1286  1.4337
35225SOL     OW12279  12.120   6.069  10.472  0.3926  0.4146 -0.0375
35225SOL    HW112280  12.171   6.005  10.423  1.5974  0.4811  1.0769
35225SOL    HW212281  12.043   6.020  10.503  0.1241  0.1283 -1.1154
35226SOL     OW12282   7.096  11.114   4.598  0.1485  0.0334 -0.1584
35226SOL    HW112283   7.059  11.103   4.685  0.5781 -1.6326 -0.1650
35226SOL    HW212284   7.021  11.108   4.539 -0.1627  1.2989  0.0630
35227SOL     OW12285   9.582   0.381   2.105 -0.2126  0.3237 -0.3176
35227SOL    HW112286   9.631   0.306   2.139  0.3238  0.4114 -0.8722
35227SOL    HW212287   9.532   0.413   2.180  1.2824  0.7883  0.5218
35228SOL     OW12288   4.305  10.638   2.978  0.1420  0.0943 -0.1059
35228SOL    HW112289   4.311  10.555   3.025  0.9802  1.1947  1.8679
35228SOL    HW212290   4.219  10.636   2.936 -0.4489 -1.1747  1.0950
35229SOL     OW12291   6.995  10.236   4.797  0.9839  1.1039 -0.3156
35229SOL    HW112292   6.907  10.201   4.803  1.5400 -0.5407 -1.1769
35229SOL    HW212293   6.985  10.314   4.742  0.1466  0.5953 -0.9133
35230SOL     OW12294   1.832   4.196   9.379 -0.1895 -0.2170 -0.1639
35230SOL    HW112295   1.837   4.101   9.390  2.2025  0.0182  1.6127
35230SOL    HW212296   1.834   4.210   9.285 -1.7923 -1.9343 -0.5003
35231SOL     OW12297   9.915  10.388   8.511 -0.3793  0.4925 -0.4609
35231SOL    HW112298   9.908  10.371   8.417 -0.7228 -1.8170 -0.0915
35231SOL    HW212299  10.009  10.376   8.530 -0.4793 -0.1935 -0.3549
35232SOL     OW12300   6.810   8.186   0.180 -0.5810  0.2758  0.5780
35232SOL    HW112301   6.877   8.117   0.182  0.0992  0.9036  0.0754
35232SOL    HW212302   6.841   8.251   0.244 -2.0406 -0.6058  2.2425
35233SOL     OW12303   1.818   2.470  11.699 -0.4791  0.0352 -0.0662
35233SOL    HW112304   1.752   2.411  11.663 -0.4014  1.0812 -2.0215
35233SOL    HW212305   1.770   2.528  11.758 -1.1122  0.1411 -0.6895
35234SOL     OW12306   1.259   7.538   2.655 -0.3527 -0.1639 -0.3397
35234SOL    HW112307   1.290   7.525   2.744 -2.5360 -0.9561  0.3636
35234SOL    HW212308   1.318   7.485   2.601  0.5911 -0.1808  0.6811
35235SOL     OW12309   3.795  12.299  10.293 -0.1429 -0.2781  0.5279
35235SOL    HW112310   3.891  12.293  10.298 -0.1793 -0.7544  0.6950
35235SOL    HW212311   3.775  12.388  10.324  0.0568 -1.1492  3.5179
35236SOL     OW12312   9.618   7.867   0.640 -0.6450 -0.8529  0.3111
35236SOL    HW112313   9.529   7.900   0.655 -0.5755 -0.9801  1.0655
35236SOL    HW212314   9.606   7.785   0.592 -0.8597 -0.1707 -0.8182
35237SOL     OW12315   7.850   5.714   5.010  0.1051  0.1160 -0.8181
35237SOL    HW112316   7.817   5.803   5.000  0.9775  0.8224  1.7368
35237SOL    HW212317   7.813   5.684   5.093  0.4135 -1.6518 -1.2695
35238SOL     OW12318   4.100  12.279   5.217 -0.1243  0.0106  0.0683
35238SOL    HW112319   4.104  12.368   5.183 -1.5577  0.1186  0.1380
35238SOL    HW212320   4.175  12.274   5.278 -0.4451  1.4106  0.6251
35239SOL     OW12321   0.669   1.701   9.609 -0.1385  0.3734 -0.0553
35239SOL    HW112322   0.596   1.708   9.670 -0.0576 -2.0840  0.4181
35239SOL    HW212323   0.693   1.792   9.590 -2.1465  1.2206  1.1502
35240SOL     OW12324   7.985   8.310  11.008  0.2192 -0.1187 -0.2795
35240SOL    HW112325   7.948   8.294  11.094 -0.5403 -1.7101 -0.8509
35240SOL    HW212326   8.077   8.284  11.017  0.6472  1.5317  0.5063
35241SOL     OW12327   8.328  11.002   8.330 -0.3956 -0.2491  0.1159
35241SOL    HW112328   8.335  10.912   8.298  0.6223 -0.1665  0.0789
35241SOL    HW212329   8.418  11.027   8.351 -0.9987 -0.4207  3.4129
35242SOL     OW12330   6.467   3.747   5.647 -0.4688  0.0860 -0.2185
35242SOL    HW112331   6.386   3.707   5.616  0.2181 -0.3448 -1.5137
35242SOL    HW212332   6.468   3.728   5.741 -1.5888 -0.3841 -0.2859
35243SOL     OW12333   3.068   9.570   7.025 -0.3232  0.0147 -0.2819
35243SOL    HW112334   3.140   9.607   6.972  0.8604  0.0007  1.2376
35243SOL    HW212335   3.044   9.490   6.979  1.1591 -0.3694 -0.4491
35244SOL     OW12336   0.701  11.768  12.238  0.1223 -0.2728  0.1007
35244SOL    HW112337   0.734  11.692  12.190  0.0499 -0.3663  0.1981
35244SOL    HW212338   0.762  11.838  12.217  0.7565 -0.6025  0.7750
35245SOL     OW12339   0.982   5.787   6.354 -0.5117  0.0111  0.4439
35245SOL    HW112340   1.045   5.812   6.286 -1.7857 -0.4888 -0.9827
35245SOL    HW212341   0.993   5.853   6.422  1.7901 -0.2664  0.4268
35246SOL     OW12342   1.917   3.177   3.087  0.2394 -0.1086  0.3285
35246SOL    HW112343   1.854   3.148   3.022 -0.1775 -0.6126  0.9472
35246SOL    HW212344   2.001   3.177   3.041  0.1009 -1.3507  0.0384
35247SOL     OW12345  10.671  10.196   7.408 -0.0735  0.7433 -0.5066
35247SOL    HW112346  10.613  10.119   7.410 -1.1608  1.4479 -2.4380
35247SOL    HW212347  10.664  10.232   7.496 -2.6765  0.8107 -0.6384
35248SOL     OW12348   1.732   1.207   5.953  0.0757 -0.0732 -0.3284
35248SOL    HW112349   1.794   1.280   5.953  0.5188 -0.4017  1.4797
35248SOL    HW212350   1.725   1.182   6.045  0.6725 -2.9411 -0.9840
35249SOL     OW12351   2.621  11.565   6.141  0.0516 -0.1346 -0.3641
35249SOL    HW112352   2.648  11.516   6.063  2.1215 -0.7533  0.6490
35249SOL    HW212353   2.586  11.498   6.200  0.8548 -0.0928  0.1813
35250SOL     OW12354   9.532   0.087   2.529 -0.7008  0.1790 -0.4996
35250SOL    HW112355   9.438   0.100   2.538 -0.8602 -0.3230 -1.3711
35250SOL    HW212356   9.571   0.153   2.587 -1.5969 -1.2935  1.9104
35251SOL     OW12357  12.507  12.456  11.164  0.1146  0.7612 -0.1766
35251SOL    HW112358  12.577  12.514  11.134  0.9768  0.5794  1.3713
35251SOL    HW212359  12.513  12.458  11.260 -1.3436 -0.0697 -0.0285
35252SOL     OW12360   9.910   8.989   9.219 -0.1731  0.0253 -0.5317
35252SOL    HW112361   9.996   9.032   9.217  0.2421 -0.7451  0.3111
35252SOL    HW212362   9.929   8.899   9.245 -1.4277  0.3235  1.6052
35253SOL     OW12363  11.253   1.002   2.185  0.3123 -0.0587  0.1755
35253SOL    HW112364  11.253   0.967   2.274 -0.0439  0.1928  0.2766
35253SOL    HW212365  11.321   0.952   2.140 -1.0978 -1.8492 -0.0744
35254SOL     OW12366   7.970   5.116   0.727  0.1911 -0.8738 -0.7136
35254SOL    HW112367   7.935   5.052   0.665 -0.7198 -0.5554 -0.5515
35254SOL    HW212368   7.965   5.073   0.812 -1.7750 -0.1120 -0.3963
35255SOL     OW12369   3.832   7.089   7.480 -0.3404  0.2974  0.1498
35255SOL    HW112370   3.849   7.075   7.387 -1.6824 -0.1916 -0.0545
35255SOL    HW212371   3.909   7.052   7.524  0.5040  0.9195 -0.7656
35256SOL     OW12372  10.677  11.989   0.234  0.3606 -0.2074 -0.4143
35256SOL    HW112373  10.674  12.018   0.143 -0.3774 -0.9584 -0.6494
35256SOL    HW212374  10.725  11.906   0.232 -2.3702 -1.9256 -0.6735
35257SOL     OW12375   8.225   2.845   9.576 -0.2095  0.1366  0.2067
35257SOL    HW112376   8.172   2.920   9.603 -1.3601 -1.4460  2.7913
35257SOL    HW212377   8.162   2.786   9.534  0.4711  0.1477 -0.8557
35258SOL     OW12378   9.185   8.795   2.978 -0.5433 -0.1378 -0.4812
35258SOL    HW112379   9.195   8.881   3.019 -0.0856  0.0523 -0.9818
35258SOL    HW212380   9.111   8.755   3.024  1.5490 -1.0175  2.3959
35259SOL     OW12381  12.301   4.721   1.402 -0.0734  0.4164  0.2136
35259SOL    HW112382  12.303   4.807   1.361  1.1715  1.2792  1.9510
35259SOL    HW212383  12.257   4.736   1.486 -0.2912 -0.7557  0.3213
35260SOL     OW12384   6.133   4.757   1.414  0.9352 -0.2229  0.0300
35260SOL    HW112385   6.191   4.681   1.426  0.0528 -0.8116  0.7115
35260SOL    HW212386   6.064   4.745   1.479  0.1549  0.5766 -0.6205
35261SOL     OW12387  12.728  10.894   4.135  0.0465 -0.1595  0.1937
35261SOL    HW112388  12.687  10.981   4.140 -2.2831 -1.1344 -0.5363
35261SOL    HW212389  12.754  10.885   4.043  1.4859  0.2319  0.5385
35262SOL     OW12390   7.503   0.767   9.841  0.0266 -0.5329  0.1018
35262SOL    HW112391   7.597   0.753   9.853  0.1750 -0.6680 -1.0822
35262SOL    HW212392   7.481   0.714   9.764 -0.2321  2.4571 -2.0466
35263SOL     OW12393   5.129   3.799   2.953  0.1412 -0.0308 -0.5651
35263SOL    HW112394   5.045   3.758   2.930 -1.2811  1.5282  1.4643
35263SOL    HW212395   5.189   3.726   2.964 -1.9448 -1.5945  1.6145
35264SOL     OW12396  10.442   7.476   3.360  0.3530  0.0105  0.8622
35264SOL    HW112397  10.414   7.422   3.286 -1.4115  2.0680 -0.0957
35264SOL    HW212398  10.490   7.549   3.320  1.1069  0.1300  1.9356
35265SOL     OW12399   4.049   7.525  12.213  0.2958 -0.4560  0.1438
35265SOL    HW112400   3.996   7.604  12.203 -0.1627 -0.6050  1.2613
35265SOL    HW212401   4.005   7.459  12.160  1.0228  0.1769 -1.2959
35266SOL     OW12402   7.935   7.364   4.339 -0.0421  0.0148 -0.4245
35266SOL    HW112403   7.867   7.406   4.392  0.5195  0.7477 -0.2608
35266SOL    HW212404   8.013   7.368   4.394 -0.1618 -2.1108 -0.0126
35267SOL     OW12405   1.303   6.181  12.090 -0.2747  0.0189 -0.7315
35267SOL    HW112406   1.210   6.183  12.115 -0.3265  2.3910 -0.8495
35267SOL    HW212407   1.350   6.175  12.173 -0.4832 -1.8845 -0.7028
35268SOL     OW12408   4.183  11.749   4.553 -0.2575  0.0417  0.6937
35268SOL    HW112409   4.238  11.821   4.521  1.1514  0.4078  3.5281
35268SOL    HW212410   4.231  11.670   4.528  0.7869  0.3123  1.7225
35269SOL     OW12411  12.172   5.483  12.261 -0.2074 -0.3736  0.7858
35269SOL    HW112412  12.142   5.397  12.291 -1.6077  0.2794  1.3494
35269SOL    HW212413  12.109   5.508  12.194  0.5288 -0.0206  0.2092
35270SOL     OW12414   5.622   5.833   3.296 -0.0865 -0.3500 -0.0902
35270SOL    HW112415   5.709   5.845   3.259  0.1931 -0.9591  0.3510
35270SOL    HW212416   5.594   5.921   3.322  0.1584 -0.0721 -0.7398
35271SOL     OW12417  10.964   0.602   1.211  0.3361  0.2177 -0.1063
35271SOL    HW112418  10.917   0.551   1.277  1.7347 -0.9283  0.0698
35271SOL    HW212419  10.935   0.565   1.128  0.0429  0.3289 -0.0551
35272SOL     OW12420  12.299   8.681  10.128  0.3333  0.9873 -0.3300
35272SOL    HW112421  12.368   8.740  10.159  0.0746 -0.3172  3.1579
35272SOL    HW212422  12.340   8.594  10.129 -0.9026  0.3888  0.4316
35273SOL     OW12423   9.634  10.632   6.098 -0.1971 -0.4324  0.0440
35273SOL    HW112424   9.645  10.726   6.083  0.2035 -0.6535 -1.1414
35273SOL    HW212425   9.578  10.602   6.027 -3.2020 -0.5496  2.2776
35274SOL     OW12426   3.017   1.318   0.942 -0.1592  0.1703  0.3597
35274SOL    HW112427   3.081   1.372   0.988  1.2379  1.3175 -2.6238
35274SOL    HW212428   2.967   1.380   0.889 -1.0886 -1.1187 -0.3323
35275SOL     OW12429   5.196   8.854  11.886 -0.0435 -0.3228  0.0336
35275SOL    HW112430   5.166   8.799  11.814  0.1172  0.7434 -0.8582
35275SOL    HW212431   5.201   8.942  11.850  2.7163 -0.1667  0.5116
35276SOL     OW12432   3.548  12.176   0.582  0.2738 -0.0934 -0.0535
35276SOL    HW112433   3.596  12.253   0.551  1.2974 -0.4463  0.5802
35276SOL    HW212434   3.541  12.119   0.506  2.5596 -0.8577  0.2203
35277SOL     OW12435   0.560   2.917   8.942  0.5856  0.2119  0.0585
35277SOL    HW112436   0.495   2.884   8.879  0.6580  1.2759 -0.5879
35277SOL    HW212437   0.560   2.851   9.012 -2.4869  1.0281  0.9846
35278SOL     OW12438  11.804  11.431  12.069 -0.1165  0.0134 -0.2755
35278SOL    HW112439  11.871  11.390  12.015  0.8191  1.1895 -0.0462
35278SOL    HW212440  11.787  11.369  12.139  0.7344 -0.2935 -0.3403
35279SOL     OW12441   9.786   4.527   2.191 -0.0885  0.3754  0.3689
35279SOL    HW112442   9.880   4.544   2.184 -0.0920  0.4215  0.4304
35279SOL    HW212443   9.751   4.552   2.105 -0.1882  1.2955  0.6624
35280SOL     OW12444  11.074   4.900  12.394  0.0297 -0.1349  0.1329
35280SOL    HW112445  11.058   4.806  12.398 -1.1960 -0.0108 -1.0395
35280SOL    HW212446  11.134   4.911  12.319  0.2586  0.0167  0.3351
35281SOL     OW12447  11.551   8.959   4.264  0.0249  0.2089  0.4229
35281SOL    HW112448  11.637   8.939   4.229  0.3540  0.0616  1.2873
35281SOL    HW212449  11.564   9.038   4.316 -0.3773  0.2275  0.4990
35282SOL     OW12450  11.606   2.676   5.785  0.4886 -0.0246 -0.2280
35282SOL    HW112451  11.536   2.737   5.806 -0.5154 -0.2537 -2.5744
35282SOL    HW212452  11.592   2.655   5.693  1.7383 -2.5987  0.0964
35283SOL     OW12453   1.810  10.013   4.540  0.4646  0.3018  0.6152
35283SOL    HW112454   1.835   9.940   4.597 -1.6178 -0.5451  0.5461
35283SOL    HW212455   1.775  10.079   4.599 -0.7877 -0.1768  0.4382
35284SOL     OW12456  11.148  11.068   8.573 -0.4295 -0.3962 -0.3048
35284SOL    HW112457  11.241  11.053   8.591 -0.7103 -1.9468  0.0053
35284SOL    HW212458  11.131  11.016   8.493 -1.3159 -1.2554  0.4143
35285SOL     OW12459  10.920   8.262   8.312 -0.6631  0.2495 -0.0379
35285SOL    HW112460  10.913   8.314   8.392  1.9129  0.6862 -0.0083
35285SOL    HW212461  10.835   8.272   8.270 -1.4238  1.6294  1.6790
35286SOL     OW12462  11.074   9.851   6.942 -0.1065  0.6095  0.7727
35286SOL    HW112463  11.145   9.787   6.937 -0.2271  0.5423 -0.8039
35286SOL    HW212464  11.005   9.807   6.991 -0.1748 -0.4746 -0.2570
35287SOL     OW12465   9.312   8.096   4.238 -0.4931 -0.2502  0.4279
35287SOL    HW112466   9.306   8.130   4.328 -0.2635  1.4212 -0.1600
35287SOL    HW212467   9.405   8.106   4.216 -0.4010 -1.3705  0.2508
35288SOL     OW12468   7.390   9.058   3.812  0.2888 -0.2374 -0.2252
35288SOL    HW112469   7.472   9.083   3.855 -0.3460 -0.1608  0.9854
35288SOL    HW212470   7.346   9.002   3.876 -1.2159  0.8102 -0.2896
35289SOL     OW12471  11.073   0.058  12.181 -0.2389 -0.3715 -0.2992
35289SOL    HW112472  11.136  -0.010  12.159  0.9018  1.0002 -1.4818
35289SOL    HW212473  11.043   0.092  12.096 -1.7530 -0.2362  0.2514
35290SOL     OW12474  10.704   7.309   7.906 -0.6644  0.0614 -0.2178
35290SOL    HW112475  10.642   7.381   7.914  0.8576  1.6500 -1.6929
35290SOL    HW212476  10.761   7.335   7.833  0.9580 -1.8871  0.2673
35291SOL     OW12477   0.009  11.233  11.371  0.1664 -0.3231  0.0068
35291SOL    HW112478   0.061  11.307  11.403  0.4189 -1.1615  1.6389
35291SOL    HW212479   0.062  11.195  11.300  0.9250 -0.0624  0.4203
35292SOL     OW12480  12.323   8.463   1.317 -0.4523 -0.4093 -0.0272
35292SOL    HW112481  12.311   8.529   1.385 -1.9292  0.6000 -1.2109
35292SOL    HW212482  12.236   8.428   1.302 -0.4043  0.2528 -2.2174
35293SOL     OW12483   4.792   4.106   4.990 -0.2584  0.5882  0.1621
35293SOL    HW112484   4.831   4.046   4.926  1.4385  0.1015  1.5629
35293SOL    HW212485   4.718   4.057   5.026 -1.3302  0.9251 -1.4662
35294SOL     OW12486   5.586   2.593   0.235 -0.2312  0.1369 -0.4755
35294SOL    HW112487   5.499   2.629   0.215  0.1831  1.5347  0.1583
35294SOL    HW212488   5.606   2.539   0.159 -2.1421 -1.1685 -0.1361
35295SOL     OW12489   2.953   7.770   9.173  0.1606  0.0001  0.5095
35295SOL    HW112490   2.997   7.832   9.115  1.5252  0.4368  1.9352
35295SOL    HW212491   2.886   7.730   9.119  1.3791  0.3681 -1.3626
35296SOL     OW12492  10.609   5.177   0.340 -0.1597 -0.7018 -0.0078
35296SOL    HW112493  10.584   5.269   0.348  1.1457 -0.3251  0.0017
35296SOL    HW212494  10.570   5.134   0.416  0.1064  0.0483  0.5582
35297SOL     OW12495   6.183   9.020  10.091  0.5334  0.4192  0.5942
35297SOL    HW112496   6.146   9.035  10.004  1.3290  1.2250  0.3776
35297SOL    HW212497   6.197   9.108  10.127 -0.4614  0.1087  1.8477
35298SOL     OW12498   1.787   9.638   0.189 -0.8266 -0.1840 -0.1204
35298SOL    HW112499   1.771   9.619   0.097 -0.9592  0.9600 -0.3471
35298SOL    HW212500   1.706   9.676   0.221 -1.7244 -2.9634  1.1992
35299SOL     OW12501   9.275   8.419   1.381 -0.0658  0.2967  0.2040
35299SOL    HW112502   9.228   8.500   1.360  0.7895  0.2669 -2.0912
35299SOL    HW212503   9.309   8.434   1.470 -0.8205  2.0041  0.2501
35300SOL     OW12504   9.297   1.212   7.432  0.0541  0.0102 -0.1943
35300SOL    HW112505   9.359   1.230   7.362 -0.9104  0.9633 -0.8504
35300SOL    HW212506   9.348   1.168   7.500  1.5229  1.1397 -0.5259
35301SOL     OW12507   0.768  12.458   3.950 -0.0241 -0.1386  0.3731
35301SOL    HW112508   0.706  12.386   3.963 -1.2727  0.3078 -2.3824
35301SOL    HW212509   0.720  12.536   3.977 -2.7419  0.8336 -5.6842
35302SOL     OW12510   4.057   5.271   4.298  0.9200 -0.2633 -0.2431
35302SOL    HW112511   4.016   5.203   4.245  2.0808 -1.7466  0.6825
35302SOL    HW212512   4.038   5.245   4.388  2.7980 -0.3255  0.1660
35303SOL     OW12513   2.019   9.285   1.287 -0.1322 -0.0516  0.4484
35303SOL    HW112514   2.063   9.364   1.256 -1.4697 -0.1083 -1.7923
35303SOL    HW212515   1.946   9.317   1.340 -0.5280  0.2266 -0.2560
35304SOL     OW12516   9.789   8.207   2.019  0.1965  0.0626  0.2559
35304SOL    HW112517   9.739   8.279   2.059  1.2101 -0.1154  1.9139
35304SOL    HW212518   9.798   8.233   1.927 -2.7586  0.1847 -0.1054
35305SOL     OW12519   6.966   9.821   4.380  0.1301  0.5994 -0.1401
35305SOL    HW112520   6.887   9.773   4.357 -0.6722  2.0930 -0.6446
35305SOL    HW212521   6.948   9.857   4.467  0.3067  0.8270 -0.1960
35306SOL     OW12522   7.502  11.179  12.243  0.3823 -0.4088  0.4619
35306SOL    HW112523   7.523  11.204  12.153  2.1069  0.0530  0.9625
35306SOL    HW212524   7.446  11.250  12.276  3.2452  1.7423  1.0834
35307SOL     OW12525   6.358   1.756   3.969 -0.2198  0.4706 -0.1589
35307SOL    HW112526   6.375   1.843   4.006 -0.5030  0.1633  0.7182
35307SOL    HW212527   6.431   1.740   3.909 -0.0614  1.2217 -0.1775
35308SOL     OW12528  12.492   1.118   1.389  0.4620  0.3656 -0.2656
35308SOL    HW112529  12.452   1.181   1.330 -0.5804  2.0403  2.0449
35308SOL    HW212530  12.557   1.169   1.438  0.0923 -0.5003  1.1828
35309SOL     OW12531   5.427   4.402   1.080  0.1171  0.6461 -0.0884
35309SOL    HW112532   5.360   4.371   1.020  1.0095 -1.2238 -0.1946
35309SOL    HW212533   5.433   4.333   1.146 -0.0864  2.1451  1.5771
35310SOL     OW12534   1.591   8.468   6.189  0.5295 -0.6894  0.2083
35310SOL    HW112535   1.523   8.411   6.155  0.5267 -0.0343 -0.9316
35310SOL    HW212536   1.670   8.443   6.142  0.7837 -0.5425  0.5492
35311SOL     OW12537  11.220   1.093   8.259  0.3485 -0.2595  0.1405
35311SOL    HW112538  11.176   1.094   8.174  1.3477  2.1775 -0.4495
35311SOL    HW212539  11.312   1.108   8.238  0.8829 -1.3237  1.5833
35312SOL     OW12540   6.589   2.005  11.635  0.7032 -0.2388  0.1192
35312SOL    HW112541   6.581   2.086  11.584  2.4245  0.7109  1.2410
35312SOL    HW212542   6.502   1.967  11.632 -0.0799  1.4678 -0.7651
35313SOL     OW12543   1.346   5.855   8.855 -0.0555  0.2201  0.2831
35313SOL    HW112544   1.388   5.775   8.886  0.3153  0.1781 -0.3158
35313SOL    HW212545   1.410   5.924   8.871 -0.1594  0.3153  0.2919
35314SOL     OW12546  10.333   3.251   1.188  0.1286 -0.1082 -0.2027
35314SOL    HW112547  10.290   3.166   1.181  0.9803 -0.5120 -0.5600
35314SOL    HW212548  10.352   3.277   1.098  0.4692  0.1568 -0.0564
35315SOL     OW12549   8.149   7.202  12.418 -0.0142 -0.3031  0.3496
35315SOL    HW112550   8.190   7.121  12.447  0.3649  0.4656  2.0721
35315SOL    HW212551   8.095   7.230  12.492 -0.2632  0.9485 -0.2676
35316SOL     OW12552   1.070   2.683   5.835 -0.3874  0.0760 -0.5076
35316SOL    HW112553   1.144   2.630   5.863 -0.8097 -0.0682  0.3876
35316SOL    HW212554   1.081   2.766   5.882 -0.9688 -0.0726 -0.0980
35317SOL     OW12555   0.594   9.441   7.866  0.2016  0.0752 -0.0230
35317SOL    HW112556   0.554   9.485   7.791 -0.3809 -0.0401  0.2184
35317SOL    HW212557   0.566   9.493   7.942 -1.7529 -1.5425  0.4376
35318SOL     OW12558   3.699   0.574  12.227 -0.4352 -0.3120  0.2476
35318SOL    HW112559   3.727   0.482  12.231  0.1597 -0.3636 -2.5285
35318SOL    HW212560   3.674   0.587  12.135 -1.6461  1.9995  0.8301
35319SOL     OW12561   9.313   4.625   0.535  0.7012 -0.6693  0.6453
35319SOL    HW112562   9.227   4.597   0.506  0.4744 -0.5309  1.1723
35319SOL    HW212563   9.320   4.716   0.506 -0.2337  0.0405  2.5006
35320SOL     OW12564   3.131  12.708   4.656  0.2696 -0.1370 -0.1922
35320SOL    HW112565   3.205  12.665   4.612  0.4306 -1.0709  0.9630
35320SOL    HW212566   3.157  12.800   4.661  0.6638 -0.1787 -1.1738
35321SOL     OW12567   4.847   4.942   5.241  0.3829  0.6779 -0.1169
35321SOL    HW112568   4.820   4.975   5.326  0.4076  0.8050 -0.1568
35321SOL    HW212569   4.928   4.895   5.258  0.2670  0.5088 -0.0353
35322SOL     OW12570  10.633   5.839   0.903  0.5086 -0.1436  0.0884
35322SOL    HW112571  10.684   5.868   0.827 -0.7091 -0.7280 -0.9837
35322SOL    HW212572  10.542   5.849   0.876 -0.0413  1.8330  2.3063
35323SOL     OW12573   7.980   1.260  11.756  0.1015 -0.4313 -0.4014
35323SOL    HW112574   8.060   1.251  11.807  0.6271  2.1639 -0.5852
35323SOL    HW212575   7.934   1.334  11.797 -0.0851  0.9025 -2.8128
35324SOL     OW12576   2.700  10.794   3.732 -0.4511  0.4304 -0.6146
35324SOL    HW112577   2.623  10.744   3.759  0.0161 -0.3876 -0.7695
35324SOL    HW212578   2.736  10.829   3.814 -0.0411 -0.5812 -0.3452
35325SOL     OW12579   7.819   2.973   3.252  0.9529  0.3108  0.4325
35325SOL    HW112580   7.897   2.921   3.270  0.3365 -0.5780  0.5714
35325SOL    HW212581   7.853   3.061   3.236  2.1049 -0.3051 -0.7194
35326SOL     OW12582   5.301   0.037   0.298 -0.0411 -0.2860 -0.4151
35326SOL    HW112583   5.343   0.070   0.378  0.4868  3.2835 -1.9934
35326SOL    HW212584   5.210   0.021   0.325  0.6406 -1.5053  1.3957
35327SOL     OW12585   4.891   6.656  11.086  0.0025  0.0140 -0.2598
35327SOL    HW112586   4.883   6.565  11.060 -1.8846  0.1503 -0.3531
35327SOL    HW212587   4.982   6.666  11.115  0.6387 -1.4972 -1.6258
35328SOL     OW12588   7.736  11.845  10.202 -0.1516  0.0494  0.8686
35328SOL    HW112589   7.718  11.893  10.282  1.3487  2.2759 -0.0255
35328SOL    HW212590   7.829  11.861  10.185 -0.3601 -0.6027 -1.1192
35329SOL     OW12591   0.988   5.223   9.268 -0.7856 -0.4863  0.7209
35329SOL    HW112592   1.033   5.143   9.298 -0.0987 -0.8468 -1.1284
35329SOL    HW212593   1.018   5.291   9.327  1.1066 -1.0153  0.4460
35330SOL     OW12594  11.437  11.924   4.597  0.4358  0.1650  0.1311
35330SOL    HW112595  11.364  11.970   4.637  0.5999  0.2454  0.3397
35330SOL    HW212596  11.480  11.990   4.542  1.4501  0.6466  1.4295
35331SOL     OW12597  10.621   7.231   2.845  0.2615  0.4666  0.6653
35331SOL    HW112598  10.631   7.137   2.861 -1.1066  0.4475  1.5914
35331SOL    HW212599  10.654   7.244   2.756 -0.5984 -1.0951  0.0797
35332SOL     OW12600   9.074   6.438   2.146 -0.2150  0.2461  0.3251
35332SOL    HW112601   9.074   6.495   2.223  2.6666  0.4990  0.2514
35332SOL    HW212602   9.034   6.490   2.077 -1.3848  0.5982  1.2321
35333SOL     OW12603   0.618  10.938   8.169  0.1996 -0.5060 -0.0209
35333SOL    HW112604   0.616  11.005   8.100 -2.6375  1.8911  2.1380
35333SOL    HW212605   0.664  10.979   8.242  0.3934 -1.8009  0.6200
35334SOL     OW12606  11.513   1.409   4.172 -0.6656  0.0659 -0.3090
35334SOL    HW112607  11.545   1.488   4.216  0.5281  0.0373 -1.0682
35334SOL    HW212608  11.422   1.401   4.200  0.3685 -0.7637  3.2824
35335SOL     OW12609   3.869   4.505   1.808  0.1740  0.0202 -0.4232
35335SOL    HW112610   3.876   4.426   1.861 -3.1334  0.5603  1.0703
35335SOL    HW212611   3.958   4.541   1.807  1.0541 -1.8406  1.9113
35336SOL     OW12612   9.691  11.749   1.943 -0.2062  0.2337 -0.0823
35336SOL    HW112613   9.598  11.734   1.963 -0.9919  3.0506 -1.1711
35336SOL    HW212614   9.711  11.833   1.984  1.1430  0.8669 -1.9096
35337SOL     OW12615   7.382   9.022   9.153  0.2404 -0.2261  0.4266
35337SOL    HW112616   7.369   9.114   9.172 -1.9293 -0.3986  0.1022
35337SOL    HW212617   7.384   8.979   9.238 -0.8878 -0.0883  0.5355
35338SOL     OW12618   2.450   1.271   3.808 -0.6397 -0.0093 -0.5889
35338SOL    HW112619   2.466   1.360   3.840  0.7070  0.0405 -1.3283
35338SOL    HW212620   2.355   1.261   3.813 -0.6594  0.5788  1.8018
35339SOL     OW12621  12.074   5.641   2.196  0.6215  0.5372 -0.4062
35339SOL    HW112622  12.134   5.715   2.191  2.0170 -0.5542 -0.2787
35339SOL    HW212623  11.987   5.681   2.194  1.2792  2.3937  2.3917
35340SOL     OW12624   2.313   0.598   8.730  0.4068 -0.3416 -0.5427
35340SOL    HW112625   2.369   0.658   8.682  0.5913 -0.3296 -0.3170
35340SOL    HW212626   2.330   0.619   8.822  0.0336 -0.3409 -0.4755
35341SOL     OW12627  11.944   7.488   8.249  0.5734 -0.4847  0.2404
35341SOL    HW112628  11.919   7.526   8.334  1.4546  0.7165 -0.0264
35341SOL    HW212629  11.954   7.563   8.191 -0.8481 -1.3312 -1.1911
35342SOL     OW12630   7.100   8.967   2.274 -0.2851  0.2780 -0.8933
35342SOL    HW112631   7.132   8.932   2.191 -1.4122  1.2276 -1.7730
35342SOL    HW212632   7.105   9.062   2.263 -0.6314  0.4131  0.0559
35343SOL     OW12633   7.732   6.619   2.989 -0.5081  0.0261 -0.0014
35343SOL    HW112634   7.685   6.573   2.919 -1.3061 -0.9156  1.1005
35343SOL    HW212635   7.669   6.622   3.061  1.2335 -1.6939  1.7036
35344SOL     OW12636   2.320   6.593   4.992 -0.2305  0.0553 -0.1572
35344SOL    HW112637   2.382   6.634   5.052 -0.4582  0.3031 -0.0913
35344SOL    HW212638   2.352   6.617   4.905 -0.2454  0.2028 -0.1228
35345SOL     OW12639   3.490   3.224  10.167  0.4345  0.0253  0.4632
35345SOL    HW112640   3.570   3.202  10.119  0.1727 -0.4329  0.2311
35345SOL    HW212641   3.422   3.223  10.100 -0.1449 -1.8322  1.0400
35346SOL     OW12642   7.130   4.369  12.428  0.3940 -0.1303 -0.3554
35346SOL    HW112643   7.221   4.341  12.440  0.2188 -0.3113  0.5578
35346SOL    HW212644   7.092   4.367  12.515 -0.0660  1.4539 -0.4936
35347SOL     OW12645  12.295   9.510  12.191  0.0388 -0.3470  0.2139
35347SOL    HW112646  12.270   9.423  12.221 -1.0430  0.0729  0.5999
35347SOL    HW212647  12.332   9.497  12.104  1.4385 -1.3749  0.9378
35348SOL     OW12648  11.971   6.278   5.234 -0.5821  0.2235 -0.1778
35348SOL    HW112649  11.998   6.190   5.261 -0.1064  0.3675 -0.1689
35348SOL    HW212650  11.976   6.330   5.314 -0.4933  0.3439 -0.2612
35349SOL     OW12651   9.166  10.941   8.333 -0.1154 -0.1990 -0.1646
35349SOL    HW112652   9.237  10.892   8.376 -0.7959 -0.4545  0.6890
35349SOL    HW212653   9.204  11.027   8.315  0.0814  0.0558  1.3274
35350SOL     OW12654   1.183   9.871   3.912  0.5505 -0.1781  0.0582
35350SOL    HW112655   1.206   9.883   3.820 -1.4676  0.3458 -0.4176
35350SOL    HW212656   1.226   9.944   3.957 -0.8310  1.3008 -0.9211
35351SOL     OW12657  11.893   3.407   2.456  0.0046  0.0610 -0.1786
35351SOL    HW112658  11.899   3.363   2.541 -0.0776  1.1067  0.3857
35351SOL    HW212659  11.817   3.465   2.466  0.5575  0.8684 -0.6461
35352SOL     OW12660  11.414   9.132   6.364  0.0620 -0.0342 -0.1073
35352SOL    HW112661  11.360   9.071   6.414 -2.1116  0.6899 -1.4365
35352SOL    HW212662  11.481   9.161   6.426 -0.6543 -1.4877  1.4244
35353SOL     OW12663   7.349  12.036   8.263  0.6919 -0.5774 -0.1375
35353SOL    HW112664   7.403  11.965   8.296 -1.9267 -2.6089  0.0604
35353SOL    HW212665   7.281  12.047   8.328  0.3538  1.3477 -0.7502
35354SOL     OW12666   1.108   7.599   9.393 -0.3157 -0.2096 -0.0122
35354SOL    HW112667   1.194   7.634   9.374 -0.5501  0.6280  0.3966
35354SOL    HW212668   1.089   7.630   9.482 -0.8355 -0.7845  0.0845
35355SOL     OW12669   0.723   5.506   4.245  0.2138  0.5915 -0.5996
35355SOL    HW112670   0.703   5.553   4.164 -0.5132  1.4012  0.0325
35355SOL    HW212671   0.802   5.549   4.279  1.2002 -0.4857 -1.4273
35356SOL     OW12672   5.013  11.440   0.594  0.1875 -0.0544 -0.1506
35356SOL    HW112673   4.964  11.423   0.513  0.6348 -1.7805 -0.0978
35356SOL    HW212674   5.036  11.354   0.626 -0.0964  0.5961  1.9297
35357SOL     OW12675   5.819   1.935   7.588  0.1463 -0.3239 -0.6032
35357SOL    HW112676   5.813   1.840   7.576 -1.0557 -0.0740 -2.3481
35357SOL    HW212677   5.747   1.957   7.647 -1.3115 -0.2189 -2.3465
35358SOL     OW12678  12.379   2.910   9.143 -0.0577  0.7705 -0.2437
35358SOL    HW112679  12.398   2.964   9.066  0.9087 -1.6812 -1.8407
35358SOL    HW212680  12.283   2.908   9.147 -0.1603  0.2564 -1.9554
35359SOL     OW12681   1.682   9.854  12.157 -0.4126  0.6637 -0.2937
35359SOL    HW112682   1.704   9.909  12.082 -2.3701  2.0684  0.0837
35359SOL    HW212683   1.680   9.914  12.231 -1.1181 -0.1945  0.4081
35360SOL     OW12684   6.387   1.952   4.308  0.8894 -0.6163  0.3617
35360SOL    HW112685   6.478   1.927   4.293  0.6699 -0.2644 -2.0120
35360SOL    HW212686   6.392   2.024   4.372  2.6443  1.5666 -2.0182
35361SOL     OW12687   8.809   5.775   0.335 -0.4278 -0.0551  0.3887
35361SOL    HW112688   8.766   5.814   0.412  0.2511 -0.3495  0.9338
35361SOL    HW212689   8.774   5.687   0.330 -1.2733  0.3108 -0.2904
35362SOL     OW12690   3.632   1.160   6.187 -0.3818 -0.3491  0.0285
35362SOL    HW112691   3.564   1.213   6.145  0.9977  1.1473 -0.3907
35362SOL    HW212692   3.712   1.182   6.141  0.4431 -2.0085  0.5772
35363SOL     OW12693   3.056   3.454   2.383 -0.2002  0.2122 -0.2869
35363SOL    HW112694   2.974   3.441   2.430 -1.0933  2.5407 -1.0781
35363SOL    HW212695   3.031   3.459   2.291  1.2532 -1.9685 -0.8892
35364SOL     OW12696   1.786  11.187   3.734  0.1521 -0.3506  0.6556
35364SOL    HW112697   1.705  11.173   3.783  0.2042 -0.0495  0.8353
35364SOL    HW212698   1.759  11.225   3.651  0.0126 -1.4387  0.1809
35365SOL     OW12699  10.727  10.678   7.583  0.2839 -0.7948 -0.1398
35365SOL    HW112700  10.648  10.686   7.635 -0.6124 -1.2509 -1.3815
35365SOL    HW212701  10.720  10.747   7.517  0.9431 -0.8185 -0.2428
35366SOL     OW12702   4.196   1.108   6.753  0.4100  1.0530  0.5210
35366SOL    HW112703   4.263   1.176   6.761 -1.4000  2.8903  0.9452
35366SOL    HW212704   4.132   1.130   6.820 -0.5191 -0.7906  0.2835
35367SOL     OW12705   8.074  11.885   3.920 -0.0700  0.3056  0.1750
35367SOL    HW112706   8.118  11.883   3.834  0.6569  0.0173  0.5469
35367SOL    HW212707   8.087  11.975   3.950 -0.5510  0.4813 -0.1264
35368SOL     OW12708   4.038   4.989   1.548  0.6753  0.0468  0.5007
35368SOL    HW112709   4.127   4.986   1.513  0.4616  0.3940 -0.0927
35368SOL    HW212710   3.981   4.987   1.470  0.2049  1.6900  0.7664
35369SOL     OW12711   5.665  11.203  10.109 -0.0890  0.1856 -0.1974
35369SOL    HW112712   5.689  11.261  10.037  1.4461  0.2073  0.3066
35369SOL    HW212713   5.676  11.257  10.188 -1.4774  0.0780  0.0973
35370SOL     OW12714   2.489   8.104   0.127 -0.0817  0.1194  0.4661
35370SOL    HW112715   2.526   8.155   0.199  0.7694 -0.5197  0.4927
35370SOL    HW212716   2.395   8.099   0.147 -0.0486  0.9840  0.8745
35371SOL     OW12717   2.761  11.312  10.062 -0.0658  0.3476  0.0200
35371SOL    HW112718   2.805  11.301  10.147  1.0574  0.7668 -0.4833
35371SOL    HW212719   2.678  11.355  10.083 -1.1983 -2.1914  1.2272
35372SOL     OW12720   2.658  12.453   7.707 -0.5390 -0.3973 -0.2039
35372SOL    HW112721   2.749  12.460   7.737 -0.0142 -0.0517 -1.7926
35372SOL    HW212722   2.651  12.363   7.675 -1.5020 -1.2209  2.0901
35373SOL     OW12723   5.753   0.810   7.579 -0.4677  0.1119  0.2243
35373SOL    HW112724   5.778   0.857   7.658  2.8365 -1.5319  0.3134
35373SOL    HW212725   5.797   0.857   7.508 -1.3175  0.1055 -0.3172
35374SOL     OW12726   3.686  10.141   1.775 -0.1248 -0.1487  0.0663
35374SOL    HW112727   3.723  10.184   1.698 -1.6027  1.2369  0.0761
35374SOL    HW212728   3.593  10.132   1.755 -0.2227 -1.4268  0.9737
35375SOL     OW12729  11.185  12.318   2.173 -1.1256 -0.0915  0.0656
35375SOL    HW112730  11.198  12.238   2.122 -0.2140 -0.5327  0.9661
35375SOL    HW212731  11.241  12.307   2.250 -0.5525  1.6413 -0.0574
35376SOL     OW12732   6.149   1.143  12.512  0.1205  0.5377 -0.2704
35376SOL    HW112733   6.211   1.203  12.552 -0.9220  1.1113  0.5500
35376SOL    HW212734   6.109   1.194  12.441 -2.0994  1.5662  1.5710
35377SOL     OW12735   7.252   9.679   2.483  0.3965 -0.1191  0.0468
35377SOL    HW112736   7.270   9.725   2.565 -0.7752  1.7377 -0.6760
35377SOL    HW212737   7.319   9.712   2.422 -1.2901  1.8327 -0.8643
35378SOL     OW12738  10.891   7.791  10.676 -0.2202 -0.4610 -0.0584
35378SOL    HW112739  10.896   7.854  10.604  1.3726 -0.9486 -0.4363
35378SOL    HW212740  10.950   7.827  10.743  0.7738 -1.5527 -0.3172
35379SOL     OW12741   5.144   9.273  11.966 -0.3470 -0.0891 -0.0834
35379SOL    HW112742   5.228   9.237  11.995 -1.2482  0.5733  3.9747
35379SOL    HW212743   5.121   9.221  11.889  2.7680 -1.7042 -0.0742
35380SOL     OW12744   8.674   5.965   0.788  0.4766 -0.3218  0.1104
35380SOL    HW112745   8.723   6.031   0.740 -1.8293  2.7712  1.6623
35380SOL    HW212746   8.590   5.958   0.741  0.4379 -1.7157  0.3369
35381SOL     OW12747   3.455  10.176   3.818  0.1255 -0.6474  0.2200
35381SOL    HW112748   3.531  10.152   3.764 -0.1796  0.2026 -0.6131
35381SOL    HW212749   3.487  10.249   3.871 -0.7717  1.4636 -1.9637
35382SOL     OW12750   5.655   4.234   0.660  0.1419 -0.5852  0.3685
35382SOL    HW112751   5.602   4.157   0.679  2.3804 -1.7235  2.6642
35382SOL    HW212752   5.618   4.303   0.715  0.0070 -0.8940  0.6669
35383SOL     OW12753   4.435   9.027  11.461  0.1093  0.2894  0.0362
35383SOL    HW112754   4.370   9.063  11.401  1.1381  0.3439 -1.0796
35383SOL    HW212755   4.500   9.096  11.472  1.0165 -0.4483 -0.4761
35384SOL     OW12756   2.479  12.087  11.396 -0.6392 -0.1695 -0.0510
35384SOL    HW112757   2.406  12.061  11.341 -0.4766 -1.1265  0.1802
35384SOL    HW212758   2.533  12.009  11.405  0.4270  0.5139 -0.2236
35385SOL     OW12759   5.208   0.559   6.912  0.4448  0.0635 -0.5107
35385SOL    HW112760   5.156   0.594   6.984  0.0797  1.1655 -1.2987
35385SOL    HW212761   5.283   0.517   6.956  0.3867  0.9673  0.5056
35386SOL     OW12762   5.951   2.417   3.782  0.4762  0.0500  0.0015
35386SOL    HW112763   5.910   2.362   3.849  1.5006 -1.4740 -0.5682
35386SOL    HW212764   5.941   2.368   3.701  0.0459  1.4598 -0.8094
35387SOL     OW12765   5.013   7.463   1.381  0.0293  0.7049 -0.3357
35387SOL    HW112766   4.922   7.443   1.358 -0.2558  3.6040 -2.1875
35387SOL    HW212767   5.029   7.411   1.460 -3.0666 -0.2572 -0.1952
35388SOL     OW12768   1.591   9.136   4.578 -0.0947  0.2440 -0.1968
35388SOL    HW112769   1.541   9.055   4.584  0.3743 -0.1061 -0.9565
35388SOL    HW212770   1.670   9.119   4.628  0.1830  0.0938 -0.6841
35389SOL     OW12771   8.645   7.383   9.811  0.4569  0.0367 -0.2242
35389SOL    HW112772   8.678   7.378   9.901  0.4223 -0.3833 -0.2338
35389SOL    HW212773   8.551   7.367   9.818  0.6103 -1.0825 -0.4404
35390SOL     OW12774  10.410   7.023   7.567 -0.1942 -0.0631 -0.2692
35390SOL    HW112775  10.329   6.973   7.578 -0.8989  0.8981 -0.9299
35390SOL    HW212776  10.427   7.021   7.473 -0.9299  1.9588 -0.4947
35391SOL     OW12777   3.493   1.505  10.797 -0.2310  0.0096 -0.0067
35391SOL    HW112778   3.522   1.463  10.878  0.5774 -1.3661 -0.9628
35391SOL    HW212779   3.409   1.463  10.778 -1.3217  1.6127  1.0103
35392SOL     OW12780   7.419  12.465   8.252  0.6510  0.3293 -0.5121
35392SOL    HW112781   7.392  12.404   8.184  0.1347  0.2241 -0.2131
35392SOL    HW212782   7.510  12.441   8.270  0.3104 -0.6679 -0.0610
35393SOL     OW12783   5.371  11.942   3.221  0.5711  0.9865  0.9312
35393SOL    HW112784   5.350  11.922   3.312 -1.2146 -1.3939  0.0888
35393SOL    HW212785   5.426  11.869   3.192 -0.6889  0.5380 -0.4603
35394SOL     OW12786   5.688   5.287   4.398 -0.0346  0.5967 -0.1572
35394SOL    HW112787   5.784   5.283   4.392 -0.0503  0.4730 -0.3459
35394SOL    HW212788   5.666   5.227   4.469  0.0775  1.1877  0.3865
35395SOL     OW12789   0.701  12.111  10.636 -0.4855 -0.5406 -0.0728
35395SOL    HW112790   0.776  12.094  10.579 -1.5326 -1.5701 -1.2116
35395SOL    HW212791   0.626  12.077  10.587 -1.4627 -1.2812  1.8411
35396SOL     OW12792  12.188   3.042  10.643 -0.4686  0.4425  0.1670
35396SOL    HW112793  12.213   3.129  10.674 -0.4644  0.3551  0.4128
35396SOL    HW212794  12.145   3.057  10.559 -0.9585  0.7313  0.4650
35397SOL     OW12795  12.407  11.637   2.404  0.2321 -0.1263 -0.2084
35397SOL    HW112796  12.435  11.606   2.490 -0.5309  0.1787  0.1565
35397SOL    HW212797  12.316  11.609   2.396 -0.0211  0.7327 -0.4770
35398SOL     OW12798   2.430   0.450   5.656 -0.0439 -0.0589  0.0855
35398SOL    HW112799   2.417   0.356   5.640  2.5728 -0.5123  0.1744
35398SOL    HW212800   2.395   0.465   5.743 -0.4032 -0.9660  0.1074
35399SOL     OW12801   6.472   7.295   6.326 -0.2555  0.2839  0.1159
35399SOL    HW112802   6.478   7.376   6.377  1.1176  0.0771  0.3109
35399SOL    HW212803   6.515   7.229   6.380 -0.6691 -0.4121 -0.3849
35400SOL     OW12804   0.209   0.120  10.917 -0.3345  0.0707 -0.2304
35400SOL    HW112805   0.244   0.084  10.835 -1.5359  0.2385 -0.8543
35400SOL    HW212806   0.121   0.151  10.893 -0.3614  0.9420  0.9223
35401SOL     OW12807  11.874  11.636   9.294  0.5500 -0.2656 -0.3146
35401SOL    HW112808  11.884  11.610   9.386  1.6892 -0.9677 -0.6273
35401SOL    HW212809  11.940  11.704   9.280  0.6081 -0.3986 -0.7021
35402SOL     OW12810   6.068   5.119   3.996 -0.5007 -0.2927 -0.1555
35402SOL    HW112811   6.090   5.046   3.938 -0.2950  0.2809 -0.8052
35402SOL    HW212812   6.080   5.197   3.942 -0.5250  0.2364  0.5937
35403SOL     OW12813   8.135   6.795  11.203  0.0010  0.4689  0.2080
35403SOL    HW112814   8.050   6.837  11.194 -0.2274  0.2176  1.1767
35403SOL    HW212815   8.137   6.731  11.131 -0.1312  1.2777 -0.5409
35404SOL     OW12816   7.410   1.560   0.895 -0.0279  0.2343  0.0159
35404SOL    HW112817   7.463   1.482   0.913  1.8353  1.1995 -0.9352
35404SOL    HW212818   7.353   1.568   0.971  1.8375 -0.3868  1.5820
35405SOL     OW12819   8.118   4.531   1.820  0.0172  0.5170 -0.0938
35405SOL    HW112820   8.149   4.495   1.903 -2.4198 -0.3223  0.5537
35405SOL    HW212821   8.134   4.625   1.827  1.0704  0.2892  0.7522
35406SOL     OW12822  11.799  11.701   6.657 -0.8477  0.1089  0.0594
35406SOL    HW112823  11.838  11.689   6.743  0.6954 -3.2925 -0.9301
35406SOL    HW212824  11.743  11.623   6.645 -1.0111  0.4798 -1.9955
35407SOL     OW12825  11.486   9.879  10.806 -0.1383 -0.1107 -0.3844
35407SOL    HW112826  11.513   9.841  10.890  0.4218  0.6388 -0.2116
35407SOL    HW212827  11.539   9.958  10.798 -0.3546 -0.0541 -1.3453
35408SOL     OW12828   1.433   9.477   7.502  0.5839 -0.1131 -0.1904
35408SOL    HW112829   1.505   9.423   7.535  0.2585 -0.1738  0.4323
35408SOL    HW212830   1.408   9.531   7.577 -0.0149 -0.0815 -0.4115
35409SOL     OW12831  12.476  11.439   0.350  0.1867  0.1452  0.3490
35409SOL    HW112832  12.465  11.354   0.308  1.9842 -0.4320  0.9748
35409SOL    HW212833  12.469  11.421   0.444 -1.3333  1.0224  0.4252
35410SOL     OW12834   7.850   0.165   1.981  0.2483 -0.1054 -0.1871
35410SOL    HW112835   7.857   0.222   2.058  0.1955 -0.9944  0.4868
35410SOL    HW212836   7.941   0.145   1.959  0.3581  1.5698 -1.4662
35411SOL     OW12837   9.127  11.551   6.754 -0.1574  0.5226  0.0298
35411SOL    HW112838   9.197  11.492   6.780 -0.8241  0.4130  1.7095
35411SOL    HW212839   9.171  11.620   6.703  1.1534  0.4202  0.9800
35412SOL     OW12840   3.652   5.349   4.529  0.0653  0.4752  0.2729
35412SOL    HW112841   3.608   5.276   4.485  0.4145 -0.2488  1.0962
35412SOL    HW212842   3.721   5.307   4.582  1.1630  1.5142 -0.2996
35413SOL     OW12843   3.898   4.365   9.981  0.0532 -0.3650  0.6453
35413SOL    HW112844   3.883   4.458   9.964  0.5418 -0.4670 -0.4387
35413SOL    HW212845   3.963   4.339   9.915  0.1339 -1.4061  1.1170
35414SOL     OW12846   1.550   7.051   3.727  0.1358 -0.2235  0.4754
35414SOL    HW112847   1.497   7.087   3.655 -0.0590  3.2266  2.1602
35414SOL    HW212848   1.485   7.017   3.789  0.1436 -0.3624  0.4074
35415SOL     OW12849  10.648  10.911  11.484  0.4127 -0.1447 -0.2729
35415SOL    HW112850  10.710  10.984  11.480 -0.2012  0.4242  0.2802
35415SOL    HW212851  10.566  10.952  11.511  0.5788 -1.3246  2.3145
35416SOL     OW12852  11.515   9.241  12.592  0.2740  0.0072 -0.0650
35416SOL    HW112853  11.596   9.196  12.619 -0.3215 -1.3415 -0.4449
35416SOL    HW212854  11.541   9.296  12.518  0.9097 -0.1665  0.0266
35417SOL     OW12855  10.849  12.348  10.179 -0.1111  0.0165 -0.2475
35417SOL    HW112856  10.895  12.358  10.095 -0.2032 -0.1327 -0.3156
35417SOL    HW212857  10.888  12.271  10.219  1.6723  1.4686  0.9723
35418SOL     OW12858   2.831   8.110  10.154 -0.2359  0.3345 -0.3334
35418SOL    HW112859   2.856   8.154  10.235  2.5406 -0.1815 -0.7980
35418SOL    HW212860   2.855   8.171  10.085 -0.2588 -0.1994 -0.8257
35419SOL     OW12861   7.800   8.930   4.984 -0.1336 -0.4542 -0.0388
35419SOL    HW112862   7.715   8.888   4.988 -0.7637  0.7171 -0.7856
35419SOL    HW212863   7.839   8.899   4.903 -0.1896 -0.3657 -0.0998
35420SOL     OW12864   1.654   7.849  10.280 -0.5462 -0.0149 -0.0297
35420SOL    HW112865   1.666   7.755  10.290 -0.6951  0.1193  1.6377
35420SOL    HW212866   1.626   7.879  10.366  0.1698  1.6609 -0.3459
35421SOL     OW12867   0.352   7.631   6.995  0.4440  0.0252  0.5820
35421SOL    HW112868   0.321   7.719   6.978 -0.4447 -0.7742 -2.6995
35421SOL    HW212869   0.443   7.643   7.023  0.1424  1.9955  0.8578
35422SOL     OW12870   8.315   0.512  12.654 -0.0888 -0.1738 -0.1169
35422SOL    HW112871   8.403   0.546  12.638  0.1136 -1.3345 -1.7681
35422SOL    HW212872   8.305   0.442  12.590 -1.9261 -0.6017  0.5844
35423SOL     OW12873  12.622  11.596   8.208 -0.9014 -0.2081  0.6856
35423SOL    HW112874  12.552  11.567   8.266 -1.3909  0.8656  0.6584
35423SOL    HW212875  12.656  11.515   8.170  0.6051 -1.1398  3.7184
35424SOL     OW12876   7.699   4.374   8.617 -0.0415 -0.5762  0.3355
35424SOL    HW112877   7.640   4.445   8.643  0.4554 -0.6436  1.7485
35424SOL    HW212878   7.781   4.418   8.593 -0.4299 -0.5315 -0.9846
35425SOL     OW12879   3.813   9.647   5.657 -0.1710  0.0008  0.2949
35425SOL    HW112880   3.763   9.581   5.610  1.5800 -0.1835 -1.4535
35425SOL    HW212881   3.798   9.728   5.608  0.1427  0.2318  0.5709
35426SOL     OW12882   4.963   1.871  11.655 -0.3315 -0.3110 -0.2730
35426SOL    HW112883   4.978   1.778  11.639 -0.2041 -0.0291 -1.9911
35426SOL    HW212884   4.872   1.877  11.682 -0.2048 -0.9723  0.3294
35427SOL     OW12885  10.476   9.937   9.531 -0.2831  0.5488  0.1986
35427SOL    HW112886  10.459  10.031   9.540 -2.9809  0.2333 -0.7060
35427SOL    HW212887  10.420   9.909   9.459  0.4282 -1.7871  0.4551
35428SOL     OW12888   7.353   4.083   1.309 -0.5768 -0.0553 -0.2218
35428SOL    HW112889   7.364   4.175   1.333 -0.0371  0.0408 -0.8144
35428SOL    HW212890   7.267   4.079   1.266 -0.7874  0.0884  0.1811
35429SOL     OW12891   6.196   1.307   3.937  0.0257 -0.1201  0.2683
35429SOL    HW112892   6.160   1.298   3.849 -0.4966 -1.3005  0.5777
35429SOL    HW212893   6.127   1.275   3.995  0.1640  1.1313  1.1585
35430SOL     OW12894   1.899   9.253   3.987  0.2499  0.2769 -0.4249
35430SOL    HW112895   1.939   9.309   4.053  0.5881  0.5950 -0.8987
35430SOL    HW212896   1.971   9.227   3.930 -0.1173  0.3804 -0.9443
35431SOL     OW12897   7.192   2.965   1.172  0.2216 -0.1674  0.1221
35431SOL    HW112898   7.262   2.922   1.220  0.6032 -0.9551 -1.0981
35431SOL    HW212899   7.210   2.945   1.080 -0.7203  0.9362 -0.3274
35432SOL     OW12900  11.882   3.198   1.594 -0.0407 -0.2000 -0.1383
35432SOL    HW112901  11.921   3.152   1.668  0.3306 -2.3755 -1.5946
35432SOL    HW212902  11.916   3.287   1.600  1.1083 -0.7117  1.4690
35433SOL     OW12903   2.401   3.732   2.905  0.4114  0.0492  0.2213
35433SOL    HW112904   2.483   3.684   2.913  1.7286  1.9104 -1.1411
35433SOL    HW212905   2.396   3.755   2.812 -0.3188  2.1826  0.7297
35434SOL     OW12906   2.804   6.328   4.405 -0.6055 -0.3661  0.0886
35434SOL    HW112907   2.717   6.292   4.387 -0.2139 -0.5772 -1.5338
35434SOL    HW212908   2.838   6.275   4.477 -1.5669 -0.6669  0.3344
35435SOL     OW12909  10.429  10.620   1.718  0.1317 -0.1566 -0.5854
35435SOL    HW112910  10.471  10.707   1.718  1.3213 -0.6969 -1.5706
35435SOL    HW212911  10.340  10.636   1.687  0.5621  0.6276 -1.4649
35436SOL     OW12912   2.684   1.251   2.285 -0.3012  0.2853 -0.0131
35436SOL    HW112913   2.732   1.173   2.257  0.0288  0.5921 -0.3150
35436SOL    HW212914   2.714   1.267   2.375 -0.5340 -0.0570  0.1301
35437SOL     OW12915   6.475   8.273   2.720 -0.4265  0.3234 -0.2805
35437SOL    HW112916   6.389   8.254   2.758 -0.1060  1.1529  0.8965
35437SOL    HW212917   6.488   8.366   2.736  1.5832 -0.2004  1.4371
35438SOL     OW12918   1.453  10.132   6.010 -0.2881  0.0779 -0.1469
35438SOL    HW112919   1.537  10.151   5.968  0.2919 -2.0146 -0.0649
35438SOL    HW212920   1.459  10.039   6.033 -1.6061  0.5004  2.2132
35439SOL     OW12921   5.167  12.087   1.134 -0.3050 -0.0278 -0.4482
35439SOL    HW112922   5.170  12.183   1.134  0.4547 -0.0293 -1.7821
35439SOL    HW212923   5.257  12.061   1.154 -0.2901 -0.4517 -1.0470
35440SOL     OW12924  10.432   7.036   3.898  0.2255  0.2710  0.3025
35440SOL    HW112925  10.483   7.090   3.958  2.6756  1.2477 -2.4329
35440SOL    HW212926  10.497   6.981   3.853 -1.4258 -0.2855 -1.5699
35441SOL     OW12927   9.062   2.081  10.849 -0.3428  0.5326 -0.3471
35441SOL    HW112928   9.123   2.151  10.827  0.2824  0.6033  1.4435
35441SOL    HW212929   9.113   2.019  10.900 -1.7808  0.7229  1.4267
35442SOL     OW12930   8.894   6.411   9.953 -0.3275 -0.0665 -0.0457
35442SOL    HW112931   8.945   6.463  10.015 -0.7566  1.1517 -0.6747
35442SOL    HW212932   8.825   6.370  10.006  0.9312 -1.2853  0.7182
35443SOL     OW12933   0.943  11.095   1.207  0.2461  0.3829 -0.3633
35443SOL    HW112934   0.961  11.118   1.298 -0.0732 -0.4684 -0.0772
35443SOL    HW212935   1.010  11.143   1.157  0.5074  0.7536  0.3181
35444SOL     OW12936   4.633   1.015   6.758 -0.0999 -0.6102 -0.8829
35444SOL    HW112937   4.622   1.022   6.853  3.1554 -1.5444 -0.3261
35444SOL    HW212938   4.676   1.097   6.733 -0.7209 -0.4751 -1.5189
35445SOL     OW12939   2.890   4.208  12.382  0.7423  0.1003  0.5782
35445SOL    HW112940   2.940   4.130  12.357  0.5252 -0.1040  0.7794
35445SOL    HW212941   2.916   4.225  12.472  0.9645  0.4021  0.4612
35446SOL     OW12942  10.172   8.140   0.048 -0.4792  0.0199 -0.0398
35446SOL    HW112943  10.124   8.185   0.118 -0.7666  1.3734 -1.0695
35446SOL    HW212944  10.104   8.113  -0.014 -0.2634 -1.4854  0.3412
35447SOL     OW12945   1.979   7.155   4.162  0.2964 -0.4647 -0.3861
35447SOL    HW112946   2.048   7.194   4.216 -0.7528  0.7443  0.1464
35447SOL    HW212947   1.935   7.094   4.220 -1.3793  1.4614  0.4839
35448SOL     OW12948   7.695   8.524   7.348  0.4398  0.1179  0.4247
35448SOL    HW112949   7.682   8.612   7.382  0.4076 -0.0338  0.8064
35448SOL    HW212950   7.638   8.520   7.271  1.6516  0.9663 -0.5632
35449SOL     OW12951   1.692   8.153   5.487 -0.0628 -0.9446 -0.7145
35449SOL    HW112952   1.738   8.172   5.569  0.3625  0.2579 -1.2065
35449SOL    HW212953   1.761   8.126   5.427 -0.2983 -1.2764 -0.8364
35450SOL     OW12954   7.913   5.428   8.412  0.4590 -0.3290  0.0515
35450SOL    HW112955   7.975   5.478   8.359 -0.7064 -1.1306 -2.1745
35450SOL    HW212956   7.841   5.489   8.427  0.2267 -0.4943 -0.3823
35451SOL     OW12957   5.137   7.060   2.213 -0.1783  0.1379  0.0804
35451SOL    HW112958   5.153   7.075   2.120  1.6990  0.8156  0.4715
35451SOL    HW212959   5.224   7.049   2.251 -0.9484 -0.9030  1.6458
35452SOL     OW12960   2.366  10.526   8.402  0.0996 -0.0731  0.5473
35452SOL    HW112961   2.446  10.566   8.368 -0.3432 -0.5379 -1.1511
35452SOL    HW212962   2.357  10.562   8.490  0.2095  2.8527 -0.5193
35453SOL     OW12963   5.276  12.175   9.880 -0.3847  0.6766  0.4580
35453SOL    HW112964   5.335  12.164   9.806 -1.1764 -0.0329 -0.0869
35453SOL    HW212965   5.328  12.151   9.957  0.3781  1.2235  0.1132
35454SOL     OW12966   8.838   4.976   1.134 -0.5533 -0.8081 -0.4798
35454SOL    HW112967   8.849   4.973   1.229  1.4154 -0.0810 -0.6396
35454SOL    HW212968   8.814   4.886   1.110 -1.5647 -0.8912  0.7263
35455SOL     OW12969   7.801   4.504  12.616 -0.1243 -0.0533 -0.2998
35455SOL    HW112970   7.744   4.557  12.671  0.1164 -1.0993  1.0272
35455SOL    HW212971   7.744   4.469  12.548 -0.8010 -0.0346  0.2462
35456SOL     OW12972   9.627   2.402   5.498 -0.4423  0.0380  0.1007
35456SOL    HW112973   9.698   2.341   5.517  0.3336  0.3076 -1.6966
35456SOL    HW212974   9.564   2.388   5.568  0.4430 -1.6802  0.6137
35457SOL     OW12975  12.348   7.346   4.852  0.0978 -0.0536 -0.5856
35457SOL    HW112976  12.422   7.396   4.819 -0.6421  1.6244  0.1970
35457SOL    HW212977  12.374   7.254   4.840  2.8435  0.4417  0.8297
35458SOL     OW12978   7.234   3.071   4.490  0.2732 -0.3635  0.1397
35458SOL    HW112979   7.149   3.041   4.456  0.2089 -1.2993  1.0721
35458SOL    HW212980   7.220   3.081   4.584  1.3585 -1.1417  0.3999
35459SOL     OW12981   9.747   9.469   7.949  0.2605 -0.4765 -0.1255
35459SOL    HW112982   9.788   9.396   7.903  0.2934 -1.2023  1.0224
35459SOL    HW212983   9.699   9.517   7.881 -0.3047 -1.9333 -0.7858
35460SOL     OW12984  10.598   2.881   3.977 -0.4145  0.4348  0.3577
35460SOL    HW112985  10.557   2.954   3.931 -2.3595  0.6545  2.2939
35460SOL    HW212986  10.666   2.850   3.916 -1.3723  2.0587 -1.6806
35461SOL     OW12987   3.999   5.152   6.032  0.7038 -0.2752 -0.1791
35461SOL    HW112988   4.046   5.093   5.972  0.4083 -1.8895  1.1196
35461SOL    HW212989   4.044   5.236   6.022 -0.1962 -0.0230 -3.6926
35462SOL     OW12990   0.155   7.520  11.346  0.0055 -0.1603  0.6295
35462SOL    HW112991   0.232   7.548  11.297 -1.6661  0.9281 -1.5752
35462SOL    HW212992   0.158   7.571  11.427  1.9031 -0.6401  0.9053
35463SOL     OW12993  11.207   9.189   2.207  0.0381 -0.3303 -0.3036
35463SOL    HW112994  11.239   9.194   2.297  0.2909  0.6710 -0.4315
35463SOL    HW212995  11.213   9.279   2.175  0.1323 -0.7108 -1.3887
35464SOL     OW12996   4.162   8.045   9.650 -0.2723  0.7622 -0.3268
35464SOL    HW112997   4.253   8.073   9.641  0.7224 -2.3090 -0.9868
35464SOL    HW212998   4.142   8.055   9.743  1.5626 -0.6602  0.2668
35465SOL     OW12999   9.904   6.922   0.968 -0.0461 -0.3035  0.1157
35465SOL    HW113000   9.984   6.919   1.020  0.5097 -1.3439 -0.7388
35465SOL    HW213001   9.896   6.833   0.933 -1.7128 -0.2784  0.3755
35466SOL     OW13002   5.826   0.370   5.315 -0.2798 -0.2648 -0.1947
35466SOL    HW113003   5.876   0.325   5.383 -0.7019  0.0299  0.3163
35466SOL    HW213004   5.884   0.439   5.284 -0.8729  1.0428  1.4368
35467SOL     OW13005   7.805  12.228   5.190  0.2552 -0.2650 -0.2475
35467SOL    HW113006   7.738  12.270   5.135  0.1278 -1.5464 -1.1045
35467SOL    HW213007   7.870  12.196   5.128  1.3582  0.3705  0.5340
35468SOL     OW13008  10.204   3.175  11.686  0.0519 -0.1097  0.1330
35468SOL    HW113009  10.113   3.200  11.700 -0.3827 -1.8349  0.6451
35468SOL    HW213010  10.240   3.165  11.774 -0.0439 -1.9676  0.0062
35469SOL     OW13011   5.518   1.022   6.480 -0.0967 -0.1172  1.2016
35469SOL    HW113012   5.528   1.102   6.428 -1.1989 -0.3080  0.6651
35469SOL    HW213013   5.554   1.044   6.566  0.8236  0.5293  0.6585
35470SOL     OW13014   5.068   5.871  11.246  0.1804  0.3788 -0.1505
35470SOL    HW113015   4.973   5.865  11.236 -0.2148  1.2572  2.4601
35470SOL    HW213016   5.086   5.964  11.250  0.8757  0.1996  1.4616
35471SOL     OW13017  10.889   8.784   2.344  0.2726 -0.2914  0.1956
35471SOL    HW113018  10.822   8.853   2.347  1.2824  0.8828 -1.8943
35471SOL    HW213019  10.848   8.712   2.296  0.5160  0.4930 -1.2347
35472SOL     OW13020   8.228   8.102   2.837  0.5786  0.0147  0.0227
35472SOL    HW113021   8.210   8.045   2.762 -2.0448 -0.3926  0.8520
35472SOL    HW213022   8.146   8.150   2.851  1.2913  0.7510  2.0494
35473SOL     OW13023   0.460   1.125   1.820  0.4968 -0.1811 -0.2984
35473SOL    HW113024   0.516   1.180   1.875 -0.7790  1.5195 -0.5996
35473SOL    HW213025   0.516   1.052   1.794  1.9981  0.4912  0.8856
35474SOL     OW13026   2.617   1.499   7.901 -0.0170 -0.9210 -0.1871
35474SOL    HW113027   2.531   1.500   7.858  1.1924 -1.2021 -2.7792
35474SOL    HW213028   2.659   1.580   7.873  1.0491 -1.3983 -0.0300
35475SOL     OW13029   0.988   0.088   2.447 -0.0359  0.1478 -0.3939
35475SOL    HW113030   1.026   0.108   2.533 -0.2186  1.3938 -0.5843
35475SOL    HW213031   1.027   0.153   2.389 -0.7099 -0.0361 -1.0566
35476SOL     OW13032   9.419   8.938  12.779 -0.4587 -0.0100 -0.5467
35476SOL    HW113033   9.416   9.028  12.747  2.2021 -0.1504 -1.4085
35476SOL    HW213034   9.458   8.944  12.866 -2.1527 -0.2129  0.2824
35477SOL     OW13035   4.027   1.515   9.844  0.2293  0.3729  0.2126
35477SOL    HW113036   4.052   1.435   9.891  1.0703  0.9386  0.7594
35477SOL    HW213037   3.933   1.524   9.861 -0.3112 -1.4718 -1.3850
35478SOL     OW13038   0.071   8.607   5.679  0.3010 -0.0783 -0.2242
35478SOL    HW113039   0.090   8.648   5.595 -1.0123 -0.3481 -0.6751
35478SOL    HW213040   0.064   8.514   5.659 -0.1458 -0.1297  0.1679
35479SOL     OW13041  12.523   7.820   3.293  1.1021 -0.4042 -0.1891
35479SOL    HW113042  12.569   7.904   3.288  0.9343 -0.2774  0.3795
35479SOL    HW213043  12.593   7.756   3.308  1.2520 -0.3938 -0.8273
35480SOL     OW13044  10.014  11.004   8.261  0.2103  0.1024  0.5772
35480SOL    HW113045   9.946  11.028   8.324  0.5479 -1.9410  1.8339
35480SOL    HW213046   9.967  10.963   8.189  0.0297 -0.4176  0.9859
35481SOL     OW13047   2.683   2.611   9.188 -0.0426  0.0293 -0.5940
35481SOL    HW113048   2.768   2.644   9.159 -0.4709  0.5009 -1.3744
35481SOL    HW213049   2.631   2.690   9.204  0.0209 -0.2391  1.0185
35482SOL     OW13050   3.494   3.331   1.515 -0.4151 -0.1127 -0.2187
35482SOL    HW113051   3.532   3.243   1.511  0.2617  0.1517  0.1387
35482SOL    HW213052   3.560   3.387   1.473 -0.9323  0.1921 -0.6298
35483SOL     OW13053   4.783   3.089   0.535  0.3479  1.0024 -0.0432
35483SOL    HW113054   4.860   3.116   0.483 -0.0891  2.3567 -0.0296
35483SOL    HW213055   4.764   3.166   0.589  0.3121 -0.1100  1.5682
35484SOL     OW13056   1.319   6.146   7.952 -0.1250  0.0707  0.2040
35484SOL    HW113057   1.228   6.158   7.978 -0.7342 -2.1588 -0.6915
35484SOL    HW213058   1.323   6.175   7.861 -0.2755 -1.0686 -0.1770
35485SOL     OW13059   2.057   1.463   0.611 -0.3540 -0.3409 -0.2135
35485SOL    HW113060   2.108   1.536   0.578 -0.0048 -0.1058  0.8256
35485SOL    HW213061   1.968   1.481   0.581 -0.5007  1.1284  0.9824
35486SOL     OW13062   7.627   4.391   3.246  0.0496 -0.1001  0.4108
35486SOL    HW113063   7.696   4.325   3.252  0.9555  0.6627 -0.9265
35486SOL    HW213064   7.650   4.442   3.167 -1.0041  1.3433  0.9938
35487SOL     OW13065   6.665   8.183  11.729 -0.7125  0.0272 -0.0415
35487SOL    HW113066   6.702   8.095  11.724 -1.6672 -0.4029  0.3297
35487SOL    HW213067   6.675   8.208  11.821 -0.5471  0.2635 -0.1219
35488SOL     OW13068   0.399  11.158   7.248 -0.6135 -0.2115 -0.0271
35488SOL    HW113069   0.385  11.155   7.153 -0.9507 -4.3117 -0.0386
35488SOL    HW213070   0.495  11.161   7.257 -0.5869  0.5342 -0.4748
35489SOL     OW13071  10.377   2.525   7.335 -0.3096 -0.3016  0.3254
35489SOL    HW113072  10.437   2.462   7.374 -1.3518 -1.0566  0.7802
35489SOL    HW213073  10.371   2.500   7.243 -0.0179 -0.2922  0.3038
35490SOL     OW13074  10.978   4.619   3.531 -0.4298  0.1558  0.3620
35490SOL    HW113075  10.925   4.584   3.459 -0.8954  1.4062  0.0850
35490SOL    HW213076  10.985   4.712   3.513  1.9103  0.0445  0.3770
35491SOL     OW13077   5.967   4.371   0.309 -0.2151 -0.1454  0.0833
35491SOL    HW113078   6.048   4.323   0.324 -1.1985 -1.3422  2.0220
35491SOL    HW213079   5.984   4.459   0.344  0.1161 -0.5340  0.9247
35492SOL     OW13080   1.253   1.422   5.780 -0.2648  0.3107  0.5935
35492SOL    HW113081   1.190   1.399   5.848  0.4327 -2.3955  0.4634
35492SOL    HW213082   1.338   1.411   5.823  0.1635 -0.5923 -0.4510
35493SOL     OW13083   0.843  12.742   5.213  0.2599 -0.0465 -0.0735
35493SOL    HW113084   0.879  12.732   5.125  0.4453 -2.3832  0.1982
35493SOL    HW213085   0.785  12.818   5.206 -0.1656 -0.4926 -2.3750
35494SOL     OW13086   9.853   9.811   2.256  0.7096  0.5492 -0.5720
35494SOL    HW113087   9.831   9.903   2.266  1.5239  0.7104 -0.1428
35494SOL    HW213088   9.944   9.812   2.224  0.2438 -0.0790 -2.0012
35495SOL     OW13089   4.587   7.385   0.625 -0.2332  0.0087 -0.3373
35495SOL    HW113090   4.509   7.421   0.667 -0.9564 -1.2978 -0.5091
35495SOL    HW213091   4.568   7.391   0.531  0.9883  2.0656 -0.5280
35496SOL     OW13092   8.246   3.629  10.892 -0.0395  0.2959 -0.1579
35496SOL    HW113093   8.339   3.648  10.885 -0.0754  1.0947  1.1278
35496SOL    HW213094   8.217   3.617  10.802  1.1640  0.7602 -0.6315
35497SOL     OW13095   5.487   5.055   6.650 -0.1963  0.1091 -0.6641
35497SOL    HW113096   5.517   5.039   6.561 -1.7740 -1.2316 -0.9886
35497SOL    HW213097   5.486   4.968   6.691  0.4865  0.6961  0.6854
35498SOL     OW13098  11.936   8.209   6.619  0.3394  0.3208  0.7079
35498SOL    HW113099  11.912   8.119   6.640 -0.6310 -0.0364 -1.5476
35498SOL    HW213100  11.937   8.254   6.703  1.0183 -1.8071  1.9165
35499SOL     OW13101  11.937   1.247   9.665  0.9016 -0.0594 -0.2870
35499SOL    HW113102  11.998   1.175   9.679  0.0805 -0.7093  0.0504
35499SOL    HW213103  11.852   1.205   9.656  0.4838  0.8369 -0.6596
35500SOL     OW13104  10.409  10.684  12.729 -0.1238 -0.0402  0.6040
35500SOL    HW113105  10.457  10.759  12.765 -0.8477 -0.5720  2.8439
35500SOL    HW213106  10.323  10.721  12.706 -0.5596 -0.1760  1.9166
35501SOL     OW13107   0.820   7.290   4.019  0.3101  0.3053  0.1591
35501SOL    HW113108   0.883   7.222   4.044  0.2948 -0.2969 -1.3748
35501SOL    HW213109   0.805   7.276   3.926  0.3874  2.5032 -0.2325
35502SOL     OW13110   7.414   8.406   1.797 -0.4290 -0.1334 -0.2040
35502SOL    HW113111   7.344   8.359   1.752 -1.4656 -0.1828  1.3744
35502SOL    HW213112   7.372   8.443   1.874  1.2662 -0.0436  0.7259
35503SOL     OW13113  12.084   7.314  11.554 -0.3519  0.6021 -0.4909
35503SOL    HW113114  12.020   7.356  11.611 -0.3502  0.8248 -0.6527
35503SOL    HW213115  12.124   7.247  11.609 -1.5879 -0.3706 -0.7476
35504SOL     OW13116  12.299   5.081   6.630  0.4040 -0.0032  0.3537
35504SOL    HW113117  12.354   5.122   6.564  0.3443  0.3418  0.5161
35504SOL    HW213118  12.299   5.142   6.703 -0.9549  0.4650 -0.0042
35505SOL     OW13119   5.079   2.663   1.956  0.4798  0.1483  0.0066
35505SOL    HW113120   5.019   2.737   1.962  1.4190  0.8956  0.5218
35505SOL    HW213121   5.143   2.691   1.890 -0.4746 -1.1933 -1.5447
35506SOL     OW13122   4.116   5.617  12.740 -0.0745 -0.1667 -0.4287
35506SOL    HW113123   4.023   5.596  12.749 -0.3212  1.1105  0.3183
35506SOL    HW213124   4.160   5.533  12.728 -1.1078 -0.9698  1.2193
35507SOL     OW13125   2.856   1.115   3.385  0.1065 -0.1003  0.1385
35507SOL    HW113126   2.785   1.109   3.450 -0.4632  0.9268 -0.3691
35507SOL    HW213127   2.829   1.055   3.315 -0.2538  0.2675 -0.0412
35508SOL     OW13128   5.131   8.059   8.471 -0.1435  0.0406  0.2808
35508SOL    HW113129   5.198   8.126   8.484 -0.8164  0.6910  0.4787
35508SOL    HW213130   5.165   8.005   8.400  0.0540  1.0726 -0.4302
35509SOL     OW13131  12.650   4.963  11.984  0.3845  0.2554  0.0285
35509SOL    HW113132  12.708   4.971  12.060  1.3441  0.3122 -0.6957
35509SOL    HW213133  12.594   4.888  12.005  1.7321 -0.7492  0.0838
35510SOL     OW13134   4.620   6.069   2.147  0.4307  0.6017 -0.1112
35510SOL    HW113135   4.676   6.113   2.211  0.3128  1.0737 -0.3239
35510SOL    HW213136   4.586   5.992   2.193  0.1703  1.0551  0.4636
35511SOL     OW13137   7.555   7.680   1.269 -0.0717 -0.0594  0.2495
35511SOL    HW113138   7.501   7.748   1.308 -0.0895  0.2765 -0.3430
35511SOL    HW213139   7.645   7.708   1.285 -0.0654  0.8216 -1.1657
35512SOL     OW13140   0.196   4.431   8.516 -0.2225 -0.5291 -0.0690
35512SOL    HW113141   0.109   4.441   8.555 -0.9036 -1.8752 -1.1618
35512SOL    HW213142   0.256   4.446   8.588 -1.3454  0.5153  0.6967
35513SOL     OW13143   1.166   4.252   5.660  0.5083 -0.5530 -0.5492
35513SOL    HW113144   1.126   4.236   5.575  1.0492 -1.0180 -0.7221
35513SOL    HW213145   1.256   4.278   5.640  0.9328 -1.5906 -0.0987
35514SOL     OW13146  12.159   0.025  12.602 -0.5239  0.0433 -0.3097
35514SOL    HW113147  12.086   0.054  12.657 -0.1130 -1.2985  1.0028
35514SOL    HW213148  12.125   0.029  12.512 -0.7808  3.6234 -0.1955
35515SOL     OW13149  12.735   9.560   7.237 -0.3625  0.2874  0.4620
35515SOL    HW113150  12.784   9.517   7.307  1.1502 -0.6138 -1.0854
35515SOL    HW213151  12.689   9.489   7.192  1.2947  0.3278 -1.4480
35516SOL     OW13152   5.304   0.227  12.237 -0.1135 -0.0131 -0.1369
35516SOL    HW113153   5.360   0.250  12.163  0.0216 -1.3984 -0.4901
35516SOL    HW213154   5.365   0.212  12.309 -0.1636  0.2702 -0.0354
35517SOL     OW13155   9.253   4.806  11.741  0.0047 -0.2814 -0.3872
35517SOL    HW113156   9.275   4.846  11.656 -0.0395  0.2323 -0.1619
35517SOL    HW213157   9.319   4.840  11.801 -0.2464 -0.2701 -0.1157
35518SOL     OW13158  12.590   7.728  11.083  0.3395  0.4236  0.3560
35518SOL    HW113159  12.550   7.679  11.155 -0.7017 -0.6968 -0.9376
35518SOL    HW213160  12.612   7.661  11.018  1.6322  1.3613 -0.2156
35519SOL     OW13161   0.251  10.417   4.528  0.0636 -0.0008  0.4750
35519SOL    HW113162   0.304  10.345   4.496  0.5570  1.0971 -1.2646
35519SOL    HW213163   0.313  10.480   4.565 -0.2541  0.0997  0.8563
35520SOL     OW13164   3.107   5.034  11.312 -0.1558 -0.0653  0.2155
35520SOL    HW113165   3.134   4.943  11.298 -0.2009  0.0279 -0.4951
35520SOL    HW213166   3.013   5.034  11.292 -0.4726 -0.1464  1.5666
35521SOL     OW13167   9.568   3.351   8.404 -0.0366  0.3758 -0.2656
35521SOL    HW113168   9.579   3.442   8.434 -0.3682  0.3538 -0.0721
35521SOL    HW213169   9.540   3.359   8.313 -0.1814  0.4741 -0.2137
35522SOL     OW13170   8.848   6.723  12.087 -0.3607 -0.0037 -0.3725
35522SOL    HW113171   8.754   6.740  12.092 -0.6614 -1.5004 -0.4439
35522SOL    HW213172   8.859   6.671  12.008  0.1626 -1.8044  0.8115
35523SOL     OW13173   7.537   2.357   5.586  0.0969  0.6641  0.1173
35523SOL    HW113174   7.521   2.390   5.498 -1.9724  0.3391  0.3108
35523SOL    HW213175   7.492   2.419   5.643 -1.7271 -1.0567  0.6555
35524SOL     OW13176   5.656   7.617   7.240  0.4260 -0.0762  0.0946
35524SOL    HW113177   5.626   7.540   7.287 -0.3821 -1.2044 -2.1260
35524SOL    HW213178   5.704   7.583   7.164  0.7295  1.6101 -0.5316
35525SOL     OW13179   4.243   5.948  11.667  0.1504 -0.0566  0.0439
35525SOL    HW113180   4.312   6.015  11.671  0.0624  0.0951 -0.8451
35525SOL    HW213181   4.247   5.915  11.577 -2.6148  1.7495 -0.8570
35526SOL     OW13182  11.137   5.492  11.724 -0.0602 -0.8416 -0.1284
35526SOL    HW113183  11.200   5.458  11.661  0.9518 -0.5333  0.6911
35526SOL    HW213184  11.163   5.454  11.808  0.2726  0.8237  0.5718
35527SOL     OW13185   3.471   8.348   0.189  0.0147 -0.0329  0.1175
35527SOL    HW113186   3.386   8.358   0.231 -0.9410  0.0675 -1.7381
35527SOL    HW213187   3.507   8.437   0.186  1.0002 -0.2912  2.4138
35528SOL     OW13188  10.733  10.638   6.476 -0.0303 -0.1834  0.1990
35528SOL    HW113189  10.764  10.728   6.485 -1.0554  0.0288  1.9292
35528SOL    HW213190  10.787  10.601   6.406 -0.0946  1.9790 -1.0724
35529SOL     OW13191   6.420   8.233  11.127 -0.2188  0.1273  0.1079
35529SOL    HW113192   6.382   8.247  11.040 -1.4429  1.4535  0.8064
35529SOL    HW213193   6.352   8.187  11.176 -0.0853  0.6090  0.7609
35530SOL     OW13194   4.118   5.988   5.469 -0.6255  0.4211 -0.0410
35530SOL    HW113195   4.192   5.989   5.529  1.3040 -3.3329 -2.0279
35530SOL    HW213196   4.059   5.921   5.503 -0.1581 -0.7939 -1.4972
35531SOL     OW13197   1.520   8.469   8.880  0.4200 -0.0866 -0.0646
35531SOL    HW113198   1.466   8.391   8.891  0.5649 -0.1041  0.5376
35531SOL    HW213199   1.520   8.511   8.966  1.6807 -0.2892  0.0453
35532SOL     OW13200   5.346   2.723   0.730  0.3619 -0.1624  0.5701
35532SOL    HW113201   5.312   2.634   0.714  0.4233 -0.2358  0.8463
35532SOL    HW213202   5.284   2.762   0.791  0.3783 -0.0411  0.5100
35533SOL     OW13203   0.459   3.011   7.723  0.3394  0.7192 -0.2521
35533SOL    HW113204   0.367   3.031   7.740  0.4401 -0.1859  1.6927
35533SOL    HW213205   0.464   2.915   7.723  1.3782  0.7443  0.5495
35534SOL     OW13206   4.483   9.942  11.631  0.2131  0.4344 -0.2337
35534SOL    HW113207   4.542   9.933  11.706 -1.1052  1.3210  0.9604
35534SOL    HW213208   4.397   9.960  11.670 -0.5312  0.8303 -1.9670
35535SOL     OW13209   0.097   4.382   5.387  0.0212  0.0872  0.6015
35535SOL    HW113210   0.076   4.468   5.423 -0.2361  0.0076  0.6451
35535SOL    HW213211   0.054   4.320   5.445 -0.4777 -0.0382  0.1156
35536SOL     OW13212   5.134   4.080   8.778 -0.3377 -0.6341  0.2019
35536SOL    HW113213   5.128   4.171   8.748  1.4116 -0.1323  1.2152
35536SOL    HW213214   5.074   4.032   8.721 -1.6567  1.2117 -0.0687
35537SOL     OW13215   6.114   9.945  11.447  0.2356  0.0944 -0.3333
35537SOL    HW113216   6.134   9.988  11.364  1.8742  0.0021 -0.0296
35537SOL    HW213217   6.030   9.981  11.474  0.9297  2.1322 -0.7318
35538SOL     OW13218   7.361  11.090  12.712 -0.2453 -0.1138 -0.4716
35538SOL    HW113219   7.319  11.020  12.762  0.3437 -1.5765 -1.9431
35538SOL    HW213220   7.386  11.049  12.630  2.0357  1.2798 -0.5508
35539SOL     OW13221  12.311  10.876  10.602 -0.5087 -0.3548 -0.0247
35539SOL    HW113222  12.376  10.932  10.560  1.6512 -1.3913  1.7168
35539SOL    HW213223  12.289  10.923  10.683 -2.6988  0.4182 -0.9961
35540SOL     OW13224   5.980   9.205   4.791  0.0602 -0.7571 -0.4770
35540SOL    HW113225   6.010   9.291   4.820 -1.1956 -0.3208 -0.4083
35540SOL    HW213226   5.969   9.155   4.872 -1.1667 -0.3017 -0.3342
35541SOL     OW13227  12.519   4.873   6.678  0.1245  0.0991  0.1695
35541SOL    HW113228  12.553   4.825   6.602  0.5372  0.4802  0.1131
35541SOL    HW213229  12.425   4.882   6.661  0.1680 -0.0682 -0.1554
35542SOL     OW13230  10.489  12.463   9.199 -0.3059 -0.1767  0.2448
35542SOL    HW113231  10.504  12.459   9.294 -0.8241  2.5610  0.5343
35542SOL    HW213232  10.427  12.535   9.188 -0.1906 -0.3726 -2.2029
35543SOL     OW13233   7.081   9.856  11.085 -0.1836 -0.1363  0.2183
35543SOL    HW113234   7.003   9.815  11.049 -0.6812  0.9911 -0.0202
35543SOL    HW213235   7.103   9.925  11.023  0.1410  0.5063  1.0319
35544SOL     OW13236   9.344   8.256   3.581  0.6195  0.2722 -0.8867
35544SOL    HW113237   9.301   8.206   3.650  1.5521 -1.4140 -1.4603
35544SOL    HW213238   9.279   8.321   3.554  0.0536  0.6365  1.1849
35545SOL     OW13239   3.784   3.213   3.719 -0.0500 -0.4454  0.3056
35545SOL    HW113240   3.707   3.236   3.666 -1.1192 -0.6149  1.7144
35545SOL    HW213241   3.843   3.288   3.709 -0.4468 -0.2472 -0.6943
35546SOL     OW13242  10.071   0.842   0.382 -0.3953  0.0373  0.0063
35546SOL    HW113243  10.028   0.891   0.313  2.6042  1.5912 -0.9239
35546SOL    HW213244  10.034   0.876   0.463 -0.1711  2.0624 -0.7042
35547SOL     OW13245   4.114  12.535   2.658 -0.4109  0.1137 -0.0319
35547SOL    HW113246   4.111  12.548   2.753 -1.1692 -0.9069  0.1056
35547SOL    HW213247   4.056  12.602   2.622  0.9395  1.3981  0.0927
35548SOL     OW13248  12.293   3.362   0.119 -0.0075 -0.6032  0.1246
35548SOL    HW113249  12.239   3.380   0.196  0.2729 -1.3923  0.5244
35548SOL    HW213250  12.230   3.331   0.053 -0.4612  1.5420 -0.5132
35549SOL     OW13251   7.876   3.073   6.167  0.1981  0.0276 -0.1087
35549SOL    HW113252   7.814   3.137   6.132  0.2821  0.0016 -0.3062
35549SOL    HW213253   7.821   3.007   6.209  0.1523  1.9648  3.2214
35550SOL     OW13254   7.387   4.539   8.048  0.5072 -0.1488  0.4616
35550SOL    HW113255   7.440   4.617   8.036 -0.3004  0.1830 -1.2416
35550SOL    HW213256   7.301   4.571   8.074  0.0833 -0.4185 -0.5462
35551SOL     OW13257   8.705   2.362   4.273 -0.5108  0.1827 -0.3392
35551SOL    HW113258   8.717   2.310   4.352  0.2062 -0.7012 -1.0122
35551SOL    HW213259   8.789   2.357   4.228 -0.8043  0.9520 -0.9957
35552SOL     OW13260  10.549   4.027   3.871 -0.0983 -0.4204  0.0394
35552SOL    HW113261  10.460   4.012   3.902 -1.1340 -0.2685 -2.6021
35552SOL    HW213262  10.589   3.940   3.868 -0.2380 -0.5253  0.9307
35553SOL     OW13263   5.385   3.940   8.847  0.1790  0.4450  0.5130
35553SOL    HW113264   5.300   3.980   8.828  0.5321  1.9114  1.8107
35553SOL    HW213265   5.436   3.955   8.768 -0.8298 -0.7021 -0.3926
35554SOL     OW13266   4.950   7.278   3.451  0.1252  0.2692 -0.5754
35554SOL    HW113267   5.016   7.267   3.519  1.4634 -1.8006 -2.1184
35554SOL    HW213268   4.992   7.251   3.370 -1.5106  2.3453 -2.2767
35555SOL     OW13269  12.579   8.671  11.856 -0.6854 -0.3223  0.6939
35555SOL    HW113270  12.507   8.726  11.887 -1.3000 -1.5538  1.5167
35555SOL    HW213271  12.563   8.586  11.896  0.7688 -0.8519  0.1962
35556SOL     OW13272   5.211   4.809   6.962  0.2049  0.4443 -0.0076
35556SOL    HW113273   5.197   4.742   6.895 -0.6115  0.5385  0.0581
35556SOL    HW213274   5.306   4.823   6.962  0.2221  0.4340 -1.1308
35557SOL     OW13275   0.376   5.011  12.192 -0.4051  1.2213 -0.2224
35557SOL    HW113276   0.332   5.091  12.163 -1.5870  0.3092 -1.0781
35557SOL    HW213277   0.348   4.945  12.129 -1.6572 -0.4712  1.9549
35558SOL     OW13278   7.699   2.848  11.358 -0.4927  0.5466 -0.2043
35558SOL    HW113279   7.776   2.794  11.339 -0.0894  0.4176  1.6543
35558SOL    HW213280   7.709   2.924  11.301  1.8525  1.2950  1.0824
35559SOL     OW13281  10.581  11.516  10.986 -0.4520 -0.1469 -0.2678
35559SOL    HW113282  10.612  11.547  10.901 -0.8346  3.2272  0.6799
35559SOL    HW213283  10.490  11.545  10.991 -0.4260 -0.2548  1.2891
35560SOL     OW13284   1.304   4.000  11.724  0.1299  0.4577 -0.0633
35560SOL    HW113285   1.255   4.011  11.805  0.6481  2.0413  0.0697
35560SOL    HW213286   1.268   4.067  11.665  0.8962  0.4386 -0.5707
35561SOL     OW13287   1.737   9.193   0.744  0.3957  0.0806 -0.7390
35561SOL    HW113288   1.696   9.248   0.811 -1.8426 -2.1366 -0.1512
35561SOL    HW213289   1.805   9.144   0.792 -0.4103 -0.6445 -0.3081
35562SOL     OW13290   1.451  10.962  11.395 -0.2837  0.0254  0.3696
35562SOL    HW113291   1.431  11.028  11.461  0.1263 -0.1049  0.6312
35562SOL    HW213292   1.517  11.003  11.339 -0.3331 -0.0121  0.2843
35563SOL     OW13293   1.952   9.549   5.827 -0.2877  0.2783 -0.0975
35563SOL    HW113294   1.895   9.624   5.847 -1.4785 -0.2488 -1.3148
35563SOL    HW213295   1.984   9.520   5.912  0.4282  2.3239  0.3879
35564SOL     OW13296   2.096   9.917   2.920 -0.1507  0.1604  0.7364
35564SOL    HW113297   2.095   9.888   3.011 -0.1347  3.5859  1.9615
35564SOL    HW213298   2.013   9.964   2.909  0.8073  1.6852 -0.3252
35565SOL     OW13299   9.352   5.149  12.472 -0.2460  0.3705 -0.2746
35565SOL    HW113300   9.260   5.165  12.495  0.0290 -1.4572  2.4239
35565SOL    HW213301   9.360   5.054  12.469  1.0693  0.4723 -2.9523
35566SOL     OW13302  11.710   8.612   3.658  0.3440  0.4149  0.3221
35566SOL    HW113303  11.735   8.572   3.575 -1.0677  1.6524 -0.7442
35566SOL    HW213304  11.791   8.651   3.691  0.3894  2.4584 -1.9528
35567SOL     OW13305   8.199   6.619  11.952 -0.5868 -0.4700  0.4681
35567SOL    HW113306   8.124   6.675  11.973 -0.3595  0.1142 -0.2234
35567SOL    HW213307   8.174   6.577  11.869  0.2961  0.5707 -0.3430
35568SOL     OW13308   1.789   8.980   1.143 -0.4224  0.7151  0.4110
35568SOL    HW113309   1.870   9.017   1.176 -0.5983  0.4929  1.1079
35568SOL    HW213310   1.803   8.885   1.145 -0.7744  0.6653  0.7591
35569SOL     OW13311   0.043   6.129   5.554  0.1688 -0.2193  0.6119
35569SOL    HW113312   0.055   6.139   5.648 -1.9266 -2.7723  1.2805
35569SOL    HW213313   0.009   6.214   5.525  1.0842  0.6871  2.0668
35570SOL     OW13314   0.621  10.082   5.972  0.4355  0.2860 -0.5094
35570SOL    HW113315   0.547  10.141   5.988  0.8004  1.0756 -1.5960
35570SOL    HW213316   0.684  10.104   6.040  0.6385  1.3133 -0.9991
35571SOL     OW13317  11.923   1.734   7.816 -0.3636  0.2476 -0.0542
35571SOL    HW113318  11.882   1.697   7.738 -0.7066  1.9934 -0.7468
35571SOL    HW213319  12.011   1.758   7.788  0.6820 -2.0690  1.0117
35572SOL     OW13320  10.406  11.052   7.723 -0.2974 -0.2513  0.5719
35572SOL    HW113321  10.500  11.040   7.728 -0.3418 -1.0476 -0.2190
35572SOL    HW213322  10.374  11.030   7.810  0.0601 -1.9393  0.3057
35573SOL     OW13323  11.166   5.811  12.555 -0.3600 -0.3232 -0.7150
35573SOL    HW113324  11.180   5.737  12.497 -1.0428 -0.7556 -0.3449
35573SOL    HW213325  11.081   5.847  12.528 -0.2337  0.0615 -0.6119
35574SOL     OW13326   5.304   8.305   5.736 -0.1937  0.9065 -0.3522
35574SOL    HW113327   5.250   8.382   5.722  0.3479  1.4284  0.3405
35574SOL    HW213328   5.389   8.339   5.766  0.8098  0.1504 -2.1941
35575SOL     OW13329   5.841  10.269   5.219 -0.5265 -0.0692 -0.3359
35575SOL    HW113330   5.875  10.348   5.261  0.8297 -0.7290 -0.1264
35575SOL    HW213331   5.786  10.229   5.286 -0.2101  0.0564  0.0083
35576SOL     OW13332   7.359   7.908  10.231  0.1414 -0.3224  0.0036
35576SOL    HW113333   7.367   7.928  10.137 -0.4697 -0.2671 -0.0456
35576SOL    HW213334   7.441   7.864  10.254  1.6366  2.3408  0.1414
35577SOL     OW13335   1.073   9.501  11.695  0.4766 -0.0372  0.2753
35577SOL    HW113336   1.037   9.434  11.637 -0.3229  0.3953  0.2557
35577SOL    HW213337   1.059   9.584  11.648  1.2617  0.1725  0.3918
35578SOL     OW13338   0.883   2.928   8.237  0.4675  0.0811 -0.1241
35578SOL    HW113339   0.824   2.909   8.165  0.7932  0.6202 -0.5503
35578SOL    HW213340   0.899   2.844   8.280  0.5828 -0.3117 -0.9307
35579SOL     OW13341   8.726   4.310  12.257  0.0366 -0.1908  0.5771
35579SOL    HW113342   8.806   4.361  12.245 -0.4865  0.5039 -0.0198
35579SOL    HW213343   8.726   4.285  12.349  1.2892 -0.7904  0.4291
35580SOL     OW13344   7.119  11.648  12.541 -0.7515  0.4361  0.0258
35580SOL    HW113345   7.167  11.667  12.622 -1.7067 -0.9858  0.9780
35580SOL    HW213346   7.027  11.657  12.565 -1.0496 -0.1500 -0.8623
35581SOL     OW13347   8.870   4.730   4.968  0.1855 -0.3691 -0.1928
35581SOL    HW113348   8.916   4.672   4.908 -0.3376  0.8491 -1.8271
35581SOL    HW213349   8.897   4.818   4.942 -0.7474  0.2269  0.7754
35582SOL     OW13350   5.651   6.142  12.415 -0.6392  0.0874  0.3838
35582SOL    HW113351   5.633   6.157  12.508  0.3694 -0.1339  0.6250
35582SOL    HW213352   5.702   6.219  12.388  0.8117 -0.7746  0.5428
35583SOL     OW13353   9.791   2.708   0.939  0.0923 -0.5892 -0.4716
35583SOL    HW113354   9.701   2.737   0.929 -0.1408 -0.8894  0.6458
35583SOL    HW213355   9.797   2.630   0.884 -0.1444 -0.2253 -1.0282
35584SOL     OW13356   1.217   7.925   4.800  0.4905 -0.2355 -0.1293
35584SOL    HW113357   1.303   7.894   4.772  0.3931  0.5228 -1.3211
35584SOL    HW213358   1.175   7.958   4.721 -0.0547  1.3848  0.7714
35585SOL     OW13359   9.858   5.766   0.053  0.4853  0.8233  0.3244
35585SOL    HW113360   9.785   5.713   0.084  0.4829  0.1437 -0.7995
35585SOL    HW213361   9.831   5.856   0.070  0.6377  0.5042  2.6018
35586SOL     OW13362   7.475   1.084   1.656 -0.0321  0.3743 -0.1990
35586SOL    HW113363   7.515   1.095   1.570 -0.1396  1.0982 -0.1667
35586SOL    HW213364   7.546   1.101   1.718  0.2948 -1.1497 -0.1356
35587SOL     OW13365   1.731   6.384   8.911  0.4204  0.2652 -0.0010
35587SOL    HW113366   1.647   6.356   8.946 -0.0353  2.3146  0.6413
35587SOL    HW213367   1.796   6.335   8.962 -0.3370 -1.4704 -0.6352
35588SOL     OW13368  12.467  12.373   2.699  0.1110 -0.4408 -0.1959
35588SOL    HW113369  12.540  12.425   2.732 -0.8994  0.4502  0.7249
35588SOL    HW213370  12.458  12.400   2.608 -0.1733  0.7737  0.1762
35589SOL     OW13371   6.044   4.967   7.024 -0.1395  0.0040 -0.0787
35589SOL    HW113372   5.956   4.979   7.059 -0.3132  0.2114 -0.5798
35589SOL    HW213373   6.031   4.953   6.930  0.4747  1.6711 -0.4363
35590SOL     OW13374  10.439   4.087  12.730  0.2029 -0.0479  0.3078
35590SOL    HW113375  10.478   4.135  12.802 -1.0754  0.4498  0.6921
35590SOL    HW213376  10.346   4.107  12.735  0.0614 -0.1364 -1.3767
35591SOL     OW13377   7.402   7.331   7.498  0.1919  0.2246  0.4598
35591SOL    HW113378   7.311   7.319   7.471  0.0895  0.6924  0.5804
35591SOL    HW213379   7.410   7.426   7.512 -0.1875 -0.1364  3.6431
35592SOL     OW13380   7.340  11.667   4.592 -0.2689  0.3828  0.2775
35592SOL    HW113381   7.409  11.617   4.549 -1.1101  1.6488 -2.9244
35592SOL    HW213382   7.260  11.618   4.574 -0.7866  1.5395 -0.7804
35593SOL     OW13383   3.713  10.899   9.612 -0.2708  0.3844  0.3220
35593SOL    HW113384   3.702  10.962   9.683  1.9340 -0.6923  1.7216
35593SOL    HW213385   3.712  10.953   9.532 -0.9298  1.8461  1.2674
35594SOL     OW13386   4.682   8.041   7.757  0.1019 -0.4792 -0.3608
35594SOL    HW113387   4.653   8.057   7.668 -1.0434  0.9153  0.2309
35594SOL    HW213388   4.684   8.127   7.799  0.4079 -1.1145  1.0151
35595SOL     OW13389   8.293   6.503  10.007 -0.4714  0.2506 -0.3434
35595SOL    HW113390   8.232   6.500   9.933 -0.7838 -2.7340 -0.1021
35595SOL    HW213391   8.376   6.472   9.970 -0.4415 -0.5387  0.3605
35596SOL     OW13392  11.001   3.840   3.759 -0.2580  0.3572 -0.3041
35596SOL    HW113393  11.039   3.752   3.756 -3.8777 -1.5196  2.0134
35596SOL    HW213394  11.053   3.885   3.826 -0.7287 -1.4188  1.3499
35597SOL     OW13395  12.480   1.294  12.131 -0.6760  0.0782 -0.1385
35597SOL    HW113396  12.392   1.272  12.100 -1.1011  2.3929 -0.7632
35597SOL    HW213397  12.484   1.259  12.220 -1.5803 -1.5343 -0.6908
35598SOL     OW13398   3.499  11.229   9.144 -0.3562 -0.7942 -0.8708
35598SOL    HW113399   3.409  11.207   9.169  0.2343 -3.4494 -0.8191
35598SOL    HW213400   3.553  11.191   9.213  0.8352  1.5738 -0.4080
35599SOL     OW13401  12.128   3.441   9.700 -0.0623  0.4326 -0.2182
35599SOL    HW113402  12.078   3.363   9.675 -0.6400  1.1339 -1.3355
35599SOL    HW213403  12.078   3.514   9.664  2.0571  1.1435 -1.9083
35600SOL     OW13404  10.149   7.462   1.312 -0.1095 -0.0638  0.0726
35600SOL    HW113405  10.241   7.458   1.287  0.2875  0.3778  1.3845
35600SOL    HW213406  10.118   7.545   1.276 -0.4668 -0.9121 -1.7420
35601SOL     OW13407  10.491   7.833   6.607 -0.4676 -0.2128 -0.3256
35601SOL    HW113408  10.499   7.928   6.619  0.2479 -0.4404  1.1318
35601SOL    HW213409  10.399   7.819   6.585 -0.9541  0.6654  1.0681
35602SOL     OW13410   1.902   9.751   9.152  0.0704 -0.2215  0.1159
35602SOL    HW113411   1.984   9.783   9.191 -0.6950 -0.8060  2.3349
35602SOL    HW213412   1.930   9.679   9.095  1.0979 -0.8144  1.2982
35603SOL     OW13413   8.669   6.594   4.863  0.2865 -0.3542 -1.1340
35603SOL    HW113414   8.636   6.509   4.892 -1.0505 -0.2664 -2.2589
35603SOL    HW213415   8.591   6.651   4.863  0.9186  0.5376 -1.5498
35604SOL     OW13416   2.958   9.117   3.847 -0.4128  0.0006 -0.3578
35604SOL    HW113417   2.889   9.108   3.782 -0.4472 -1.3075 -0.1680
35604SOL    HW213418   2.972   9.028   3.879  0.2189  0.4970  0.7886
35605SOL     OW13419  11.683  11.670   3.617 -0.3338  0.1563  0.6749
35605SOL    HW113420  11.715  11.619   3.542 -0.6414 -0.7564  1.1470
35605SOL    HW213421  11.739  11.748   3.619  0.7049 -0.5630  0.4376
35606SOL     OW13422   2.904   9.468   8.864 -0.5676  0.0152  0.0404
35606SOL    HW113423   2.936   9.401   8.804 -2.1121 -0.8525  0.1200
35606SOL    HW213424   2.884   9.422   8.945  2.2699  1.3114  1.6127
35607SOL     OW13425   3.643   1.401   0.434  0.3556 -0.3970 -0.2266
35607SOL    HW113426   3.731   1.379   0.464  0.9844  1.5640 -0.5243
35607SOL    HW213427   3.639   1.367   0.344 -0.1959 -2.8625  0.6358
35608SOL     OW13428   3.953   6.542   7.615 -0.1553  0.3623 -0.3229
35608SOL    HW113429   3.896   6.466   7.603 -1.0384  1.2437 -2.2358
35608SOL    HW213430   3.951   6.559   7.709 -0.2653 -1.6955  0.0916
35609SOL     OW13431  10.499   1.144   7.168 -0.3642 -0.4206  0.3216
35609SOL    HW113432  10.512   1.238   7.160 -0.9609 -0.4772 -2.1532
35609SOL    HW213433  10.588   1.107   7.165  0.0540  0.0856  3.4667
35610SOL     OW13434   8.823   9.753   3.388  0.0279  0.0464  0.4438
35610SOL    HW113435   8.817   9.689   3.458  2.0530 -0.5168  0.1870
35610SOL    HW213436   8.910   9.738   3.350 -0.1453  1.7873 -0.7608
35611SOL     OW13437   2.103   2.948   9.108  0.5079 -0.3738  0.5936
35611SOL    HW113438   2.036   2.980   9.168  1.6520  0.5465  1.4172
35611SOL    HW213439   2.162   3.023   9.096  0.5426 -0.6633 -1.3588
35612SOL     OW13440   1.888   8.417   3.219  0.0881  0.2700 -0.1234
35612SOL    HW113441   1.854   8.458   3.140 -0.3367  2.0293  0.9138
35612SOL    HW213442   1.831   8.342   3.234  1.4346 -1.3351 -2.5753
35613SOL     OW13443   4.666   3.922  10.448  0.2596  0.1573  0.4009
35613SOL    HW113444   4.609   3.880  10.512 -0.0415  0.2030  0.1627
35613SOL    HW213445   4.699   3.850  10.394 -0.6595  0.2559 -0.3363
35614SOL     OW13446  11.099   0.470   9.406  0.5218  0.1516 -0.2730
35614SOL    HW113447  11.056   0.396   9.364 -0.3725  0.2841  0.3792
35614SOL    HW213448  11.192   0.447   9.406  0.4785 -0.1401 -1.7050
35615SOL     OW13449   8.409   0.267   2.953 -0.0764 -0.3678  0.4078
35615SOL    HW113450   8.425   0.345   3.005  0.8404  0.1219 -0.5582
35615SOL    HW213451   8.490   0.216   2.958 -0.8779 -1.6080  1.5524
35616SOL     OW13452   6.002   4.961   4.471  0.4425 -0.8219  0.1471
35616SOL    HW113453   6.049   4.879   4.454 -1.6012 -2.1646  0.5761
35616SOL    HW213454   6.007   5.009   4.389  0.3596 -2.0899 -0.6295
35617SOL     OW13455   3.397   1.532  11.610 -0.3140 -0.3971 -0.5454
35617SOL    HW113456   3.365   1.527  11.700  0.3123  0.4132 -0.2646
35617SOL    HW213457   3.357   1.458  11.566 -2.2003  0.2873 -0.0835
35618SOL     OW13458   6.175   9.118   7.388  0.0958  0.3900 -0.1343
35618SOL    HW113459   6.242   9.176   7.352  1.4877 -0.7607  0.4798
35618SOL    HW213460   6.224   9.043   7.421 -1.2286  0.6814  2.7728
35619SOL     OW13461  12.234   5.049   9.119 -0.8355 -0.2031 -0.2542
35619SOL    HW113462  12.287   4.970   9.108  0.8170  0.8716 -0.4247
35619SOL    HW213463  12.276   5.096   9.192 -2.5804 -0.0739  0.7328
35620SOL     OW13464   6.072   3.964   8.623  0.0452 -0.1512  0.1606
35620SOL    HW113465   6.047   3.891   8.679 -0.9505 -0.0575 -0.1472
35620SOL    HW213466   6.145   3.930   8.571  1.9593  0.2061  2.4636
35621SOL     OW13467   7.630   5.798   9.652  0.1607  0.6913 -0.7363
35621SOL    HW113468   7.699   5.847   9.607  0.4422 -0.2441 -1.3823
35621SOL    HW213469   7.548   5.831   9.615  0.2816  1.4194 -0.3701
35622SOL     OW13470  11.734   8.793   1.362  0.1219 -0.2954  0.2849
35622SOL    HW113471  11.686   8.728   1.310  1.9766 -1.5259  0.0317
35622SOL    HW213472  11.800   8.742   1.408  2.2372  1.4914 -0.6161
35623SOL     OW13473   5.868   3.630   5.055  0.0459 -0.5249 -0.1589
35623SOL    HW113474   5.953   3.644   5.095  0.7004 -0.3593 -1.5485
35623SOL    HW213475   5.872   3.677   4.972 -1.9362  0.7497  0.3762
35624SOL     OW13476   9.771   8.562   0.907 -0.2522 -0.1823 -0.2951
35624SOL    HW113477   9.687   8.543   0.950 -0.4533  0.9006 -0.1783
35624SOL    HW213478   9.827   8.489   0.931  0.4542  1.4616  3.9377
35625SOL     OW13479   8.133  12.242   6.787  0.0510 -0.4685  0.0571
35625SOL    HW113480   8.163  12.174   6.727  2.0258 -1.8775  2.4195
35625SOL    HW213481   8.153  12.324   6.742  0.0297 -1.4257 -1.8086
35626SOL     OW13482   8.818   6.204   5.190 -0.2599 -0.6780  0.3362
35626SOL    HW113483   8.723   6.200   5.192 -0.3184  0.4788  0.9623
35626SOL    HW213484   8.846   6.124   5.235 -0.9658 -0.4160  1.2798
35627SOL     OW13485   2.081  10.854   7.742  0.1727  0.2501  0.1385
35627SOL    HW113486   2.006  10.814   7.786 -1.5661  1.3929 -1.6194
35627SOL    HW213487   2.146  10.784   7.738 -1.4277 -1.3206  0.2374
35628SOL     OW13488  11.084  12.480  11.985 -0.1256 -0.2685  0.1520
35628SOL    HW113489  11.141  12.545  12.025  2.1495 -2.2437  0.3200
35628SOL    HW213490  11.120  12.466  11.897 -0.0540 -1.8249  0.3937
35629SOL     OW13491   4.570  11.867   7.661 -0.1378  0.2642 -0.7633
35629SOL    HW113492   4.642  11.921   7.692 -0.5433  1.4677 -1.8014
35629SOL    HW213493   4.593  11.846   7.570 -0.0643 -1.2069 -0.4259
35630SOL     OW13494   2.690   0.757   4.487 -0.3818 -0.1172  0.2911
35630SOL    HW113495   2.746   0.752   4.564 -0.1003  0.0070  0.0974
35630SOL    HW213496   2.633   0.832   4.504 -0.1907  0.0293  0.2946
35631SOL     OW13497   1.474   3.088   7.118  0.6812 -0.2687  0.1825
35631SOL    HW113498   1.424   3.112   7.196 -1.1798 -1.3451 -0.6084
35631SOL    HW213499   1.430   3.132   7.046  1.0934 -0.9658 -0.5100
35632SOL     OW13500   2.857  10.569   1.915 -0.0907  0.1031 -0.1562
35632SOL    HW113501   2.859  10.638   1.981 -1.3714 -0.7666  0.8554
35632SOL    HW213502   2.769  10.575   1.876 -0.2653 -0.9849  0.0143
35633SOL     OW13503   8.003   8.636   7.007 -0.0643  0.1194  0.2059
35633SOL    HW113504   8.013   8.644   7.102  0.1313  0.1193  0.1865
35633SOL    HW213505   7.928   8.692   6.985  0.0131  0.2756  0.3356
35634SOL     OW13506   5.466   8.403  11.556 -0.0126  0.4563 -0.4220
35634SOL    HW113507   5.386   8.365  11.519  1.6870 -2.1716 -1.7661
35634SOL    HW213508   5.494   8.338  11.621  1.0952  1.2531 -0.0908
35635SOL     OW13509  11.902   9.986   6.927  0.3324 -0.2278  0.0865
35635SOL    HW113510  11.952  10.034   6.993 -2.0409  0.6289  1.4055
35635SOL    HW213511  11.968   9.943   6.873  2.4125 -1.1539  3.1240
35636SOL     OW13512   8.971   5.414  11.958 -0.4916  0.1834  0.1755
35636SOL    HW113513   8.961   5.499  11.916 -0.0564  0.3715  0.4372
35636SOL    HW213514   9.015   5.360  11.892 -0.5156  0.2474  0.1068
35637SOL     OW13515   7.857   4.558   1.518 -0.3300 -0.4381  0.0370
35637SOL    HW113516   7.776   4.511   1.499 -0.6318  0.2365 -0.3793
35637SOL    HW213517   7.916   4.491   1.552 -1.6321 -0.6456  2.0750
35638SOL     OW13518   7.575   8.135   7.745 -0.0549  0.3416  0.0457
35638SOL    HW113519   7.565   8.057   7.690 -1.5147  1.0102 -0.6956
35638SOL    HW213520   7.615   8.200   7.688  1.8962 -0.0632  0.8920
35639SOL     OW13521   2.584   6.320   9.796  0.3663  0.8212  0.2384
35639SOL    HW113522   2.543   6.253   9.740  1.0519  0.8789 -0.3463
35639SOL    HW213523   2.519   6.390   9.801  1.0127  1.7032 -2.1406
35640SOL     OW13524   9.017  12.401  10.104 -0.6233 -0.4191 -0.0942
35640SOL    HW113525   9.024  12.325  10.162  0.1735 -0.4566 -0.2227
35640SOL    HW213526   9.068  12.469  10.148  0.0485 -0.4670 -0.7720
35641SOL     OW13527   5.454   7.543   2.656 -0.1928  0.2527 -0.2543
35641SOL    HW113528   5.413   7.460   2.677 -0.8644 -0.2442 -3.1375
35641SOL    HW213529   5.382   7.606   2.654 -0.1040  0.3436 -0.7138
35642SOL     OW13530   9.060   5.939  10.919  0.3053 -0.1705 -0.1170
35642SOL    HW113531   9.044   5.845  10.911 -0.9444  0.0162 -0.0525
35642SOL    HW213532   9.115   5.947  10.997 -0.9090 -0.7521  0.8404
35643SOL     OW13533  10.328   7.024   2.842  0.6470 -0.0193 -0.0973
35643SOL    HW113534  10.294   7.094   2.898  1.0523  0.3904 -0.3546
35643SOL    HW213535  10.273   7.027   2.764  1.9935  1.4455 -1.0422
35644SOL     OW13536   3.739   2.589   3.114 -0.8654  0.0395 -0.4561
35644SOL    HW113537   3.787   2.659   3.157 -0.0528 -0.9133  0.2186
35644SOL    HW213538   3.652   2.590   3.155 -0.1116 -0.8490  1.2422
35645SOL     OW13539   0.895  12.425   1.373  0.0277  0.1997 -0.0961
35645SOL    HW113540   0.944  12.384   1.444  0.3809  1.7828  0.6162
35645SOL    HW213541   0.870  12.511   1.407  0.6565  1.2292 -2.0438
35646SOL     OW13542   8.519   7.502  12.108 -0.1900  0.4865 -0.6230
35646SOL    HW113543   8.575   7.480  12.182 -2.2278  0.1419  0.8856
35646SOL    HW213544   8.538   7.434  12.043 -1.6274 -2.0293  1.4021
35647SOL     OW13545   7.431  11.515  12.607  0.2038 -0.2988  0.0057
35647SOL    HW113546   7.401  11.519  12.516  1.9136  1.9159 -0.5613
35647SOL    HW213547   7.473  11.600  12.622 -0.5954 -0.3244  3.1111
35648SOL     OW13548   1.535   5.667   3.981 -0.2140  0.1167  0.4998
35648SOL    HW113549   1.463   5.607   3.996 -0.7085  0.7877  0.8523
35648SOL    HW213550   1.589   5.624   3.915 -1.3468 -0.0454 -0.3528
35649SOL     OW13551   7.527   7.007   2.337 -0.6644  0.0934  0.5212
35649SOL    HW113552   7.607   7.018   2.389  0.7154 -0.5856 -1.3250
35649SOL    HW213553   7.458   7.043   2.391  0.9044  0.7590  2.1853
35650SOL     OW13554   6.247  11.499  10.743 -0.7180 -0.4645 -0.3974
35650SOL    HW113555   6.167  11.546  10.765 -0.1455  0.7701 -0.8768
35650SOL    HW213556   6.267  11.524  10.653  0.5437 -0.2231 -0.0815
35651SOL     OW13557   4.759   0.470   9.775 -0.2094  0.2148 -0.3724
35651SOL    HW113558   4.749   0.436   9.687 -0.7206 -0.0718 -0.2046
35651SOL    HW213559   4.736   0.397   9.833 -0.2844  0.5224 -0.0075
35652SOL     OW13560   2.305   6.280   3.478 -0.5561 -0.3189  0.5104
35652SOL    HW113561   2.351   6.204   3.441 -0.0689 -0.6693  1.7769
35652SOL    HW213562   2.245   6.242   3.542 -1.6042  0.2543 -0.1064
35653SOL     OW13563   5.977  12.135   9.836  0.1433  0.8950 -0.1736
35653SOL    HW113564   5.932  12.055   9.862 -1.3643  2.2714  1.7394
35653SOL    HW213565   6.070  12.116   9.847 -0.2471 -0.1792  1.5342
35654SOL     OW13566   4.012   4.983   5.376  0.0664  0.1290  0.1726
35654SOL    HW113567   4.087   4.992   5.435  1.0825  2.0731 -1.2738
35654SOL    HW213568   3.946   5.042   5.412  0.6896  1.3204 -0.5540
35655SOL     OW13569   7.455   6.230  11.868  0.5743 -0.6427 -0.5265
35655SOL    HW113570   7.378   6.196  11.823  0.8166 -0.1479 -1.3373
35655SOL    HW213571   7.432   6.320  11.890  0.9066 -0.5043 -0.7390
35656SOL     OW13572   0.733  10.638   4.815  0.0285 -0.2203 -0.5803
35656SOL    HW113573   0.824  10.611   4.811 -0.3282 -1.3092 -2.3668
35656SOL    HW213574   0.732  10.727   4.780  0.5802  0.4226  0.9530
35657SOL     OW13575   8.133   5.809  11.735  0.0019 -0.0257 -0.2297
35657SOL    HW113576   8.149   5.867  11.809  0.2602 -0.0836 -0.2397
35657SOL    HW213577   8.172   5.854  11.660 -1.4254  0.6835 -0.5951
35658SOL     OW13578   4.420  10.445  11.841  0.0161  0.4951  0.5532
35658SOL    HW113579   4.512  10.435  11.863 -0.0090 -0.4476  0.2714
35658SOL    HW213580   4.373  10.395  11.908 -0.4112  2.3996  1.7306
35659SOL     OW13581   1.458   9.519   0.075 -0.0198  0.4359 -0.4392
35659SOL    HW113582   1.414   9.604   0.073  0.3842  0.6465 -0.4957
35659SOL    HW213583   1.418   9.473   0.149  0.5442  1.1181  0.3229
35660SOL     OW13584   0.177   9.187   6.171 -0.2200  0.0548  0.1209
35660SOL    HW113585   0.192   9.265   6.118 -0.5180  1.2292  1.7150
35660SOL    HW213586   0.254   9.181   6.227  0.5313 -1.7070 -0.9944
35661SOL     OW13587   7.197   9.049   8.346 -0.3972 -0.0275  0.0680
35661SOL    HW113588   7.198   9.034   8.251 -0.7206  1.6913 -0.2269
35661SOL    HW213589   7.256   8.982   8.381  0.7769  0.1468 -1.4755
35662SOL     OW13590   8.367   0.987   9.135 -0.1379 -0.3217  0.1419
35662SOL    HW113591   8.421   0.947   9.203  0.6276  0.8069  0.2133
35662SOL    HW213592   8.333   1.067   9.174  1.2032  0.9277 -1.1263
35663SOL     OW13593   1.084   4.033   6.719 -0.2055 -0.3456  0.3052
35663SOL    HW113594   1.034   4.115   6.721  2.5684  1.4801  0.2332
35663SOL    HW213595   1.127   4.029   6.805  1.0992 -0.7608 -0.3470
35664SOL     OW13596   9.335   6.954   4.793 -0.2314  0.4752 -0.2436
35664SOL    HW113597   9.263   6.937   4.732 -1.0324  0.2237  0.7367
35664SOL    HW213598   9.304   7.028   4.846 -0.1483 -0.1910  0.7553
35665SOL     OW13599   3.717   4.660   9.260  0.3283 -0.7412  0.1784
35665SOL    HW113600   3.783   4.611   9.211 -0.4504 -0.5385 -1.1261
35665SOL    HW213601   3.647   4.675   9.197  0.1649  1.3071  0.7876
35666SOL     OW13602   8.069   3.401   4.557 -0.1004  0.2699  0.4271
35666SOL    HW113603   7.985   3.382   4.598 -0.4719 -1.2168 -0.9209
35666SOL    HW213604   8.054   3.388   4.463  1.8265 -0.9218  0.2219
35667SOL     OW13605   6.458  12.505   7.620  0.1019 -0.2454  0.2959
35667SOL    HW113606   6.544  12.540   7.599  0.6350 -1.0066  1.1090
35667SOL    HW213607   6.409  12.580   7.653 -0.5781  0.8546 -2.9111
35668SOL     OW13608   4.357   6.259   1.099 -0.3128  0.0087  0.3072
35668SOL    HW113609   4.396   6.302   1.023  1.6695 -0.4168  1.0258
35668SOL    HW213610   4.383   6.312   1.174 -1.3362 -0.1760  0.8196
35669SOL     OW13611   3.175   3.466  12.367  0.3750  0.1952 -0.3845
35669SOL    HW113612   3.106   3.533  12.367  1.8063  1.7785  1.1512
35669SOL    HW213613   3.176   3.433  12.277 -2.1261  0.3416 -0.5335
35670SOL     OW13614  11.348   3.600  12.013 -0.3838  0.0468 -0.0971
35670SOL    HW113615  11.398   3.647  11.947 -0.8953 -1.3437 -1.5372
35670SOL    HW213616  11.264   3.644  12.017 -0.2076  0.3815 -0.0783
35671SOL     OW13617   2.977   2.500   4.605  0.3859 -0.4010  0.5338
35671SOL    HW113618   3.001   2.426   4.549  0.8512 -0.3344  0.6397
35671SOL    HW213619   3.058   2.551   4.614 -0.6645  2.0935 -2.4383
35672SOL     OW13620   4.782   1.227   4.589  0.5026  0.3684  0.1205
35672SOL    HW113621   4.757   1.214   4.680 -0.6251  0.1895 -0.2007
35672SOL    HW213622   4.733   1.160   4.541 -1.3703  2.3764 -0.9696
35673SOL     OW13623   7.607   9.279  12.478 -0.0198 -0.4309  0.1556
35673SOL    HW113624   7.655   9.202  12.446 -1.4983 -1.0603 -0.6679
35673SOL    HW213625   7.665   9.317  12.544  1.3068 -1.5212 -0.3179
35674SOL     OW13626  12.374   8.752   9.829  0.5563 -0.2033  0.7369
35674SOL    HW113627  12.467   8.751   9.851  1.0383  2.4672 -0.7614
35674SOL    HW213628  12.329   8.755   9.913  1.7539 -1.7067  1.4869
35675SOL     OW13629   7.952   8.426   9.209  0.3577 -0.1420 -0.1062
35675SOL    HW113630   7.952   8.332   9.224  1.2955 -0.1176  0.0620
35675SOL    HW213631   7.866   8.455   9.241  0.1788 -0.8886  0.1125
35676SOL     OW13632   5.154   1.306  11.862  0.3605 -0.4659  0.1965
35676SOL    HW113633   5.211   1.378  11.837 -0.0288  0.1173  0.9515
35676SOL    HW213634   5.135   1.321  11.954  0.0362 -1.3770  0.2920
35677SOL     OW13635   1.619  10.949   4.575  0.1201  0.1628 -0.1846
35677SOL    HW113636   1.626  10.886   4.647  1.9894  2.3042  1.6640
35677SOL    HW213637   1.525  10.969   4.570 -0.5496 -2.6567 -0.8717
35678SOL     OW13638   0.511  11.833   2.332 -0.1112  0.8872 -0.5383
35678SOL    HW113639   0.584  11.786   2.372 -1.6010  0.0265  1.3010
35678SOL    HW213640   0.501  11.795   2.245  2.0213  1.5016 -1.1065
35679SOL     OW13641   1.318   5.043  11.143  0.0426  0.7367 -0.0941
35679SOL    HW113642   1.340   5.099  11.069 -0.3125  0.4706 -0.4076
35679SOL    HW213643   1.222   5.034  11.137 -0.1953  1.9477  1.2763
35680SOL     OW13644   8.169   0.393  12.412  0.1844 -0.0061 -0.4624
35680SOL    HW113645   8.205   0.306  12.430 -0.6319 -0.3762 -0.5971
35680SOL    HW213646   8.092   0.377  12.358 -1.0203  0.6593  0.9642
35681SOL     OW13647   7.469   3.434   0.727  0.2191  0.4664  0.5073
35681SOL    HW113648   7.419   3.371   0.674  0.5489  0.1322  0.5946
35681SOL    HW213649   7.552   3.444   0.681  0.6417 -0.0861  1.1447
35682SOL     OW13650   9.561   4.085   1.069  0.0296  0.1745  0.5069
35682SOL    HW113651   9.593   4.175   1.060  0.3765  0.1026  0.9551
35682SOL    HW213652   9.504   4.071   0.993  3.8037 -0.8798 -2.4403
35683SOL     OW13653  11.309  10.532  12.637  0.2461  0.2128  0.1201
35683SOL    HW113654  11.217  10.517  12.614 -0.0623  1.3341  0.5520
35683SOL    HW213655  11.357  10.514  12.556 -0.4499  0.5842 -0.3856
35684SOL     OW13656  10.649   6.750   3.329  0.2521  0.5553  0.1889
35684SOL    HW113657  10.604   6.721   3.250  0.7415 -0.5531  0.2983
35684SOL    HW213658  10.739   6.721   3.317  0.3555  0.4750  1.1069
35685SOL     OW13659   5.527   6.548   0.121  0.1226 -0.2180  0.9835
35685SOL    HW113660   5.579   6.467   0.130 -0.5834 -0.8000 -0.0770
35685SOL    HW213661   5.559   6.589   0.041  0.8634  0.8664  1.8055
35686SOL     OW13662   3.751   3.783   8.493 -0.3302  0.4296  0.6789
35686SOL    HW113663   3.696   3.728   8.437  0.2299 -1.6903  2.1021
35686SOL    HW213664   3.829   3.730   8.511  0.0640  1.5103  2.4404
35687SOL     OW13665   0.896  10.633   3.883  0.1713 -0.1827  0.0946
35687SOL    HW113666   0.900  10.642   3.788 -2.0895  1.5649  0.0646
35687SOL    HW213667   0.824  10.690   3.909  0.3433 -1.0615  2.8186
35688SOL     OW13668  11.348   2.826   9.587 -0.4762 -0.5007  0.9155
35688SOL    HW113669  11.407   2.759   9.552  0.1512  0.5112 -0.0484
35688SOL    HW213670  11.264   2.808   9.545  0.2772  0.7185 -1.2848
35689SOL     OW13671   7.042  10.059   5.164 -0.0488 -0.0403  0.4346
35689SOL    HW113672   7.125  10.097   5.136  0.7027 -0.6393  1.7836
35689SOL    HW213673   7.065   9.997   5.233 -1.7995  1.6967  2.7642
35690SOL     OW13674   7.083   8.614   6.435  0.2523 -0.0553 -0.5263
35690SOL    HW113675   7.054   8.700   6.465  1.2580  0.3868 -0.7951
35690SOL    HW213676   7.006   8.558   6.446 -0.6345  1.0230 -0.9963
35691SOL     OW13677   1.898   9.874   9.744 -0.5060 -0.2802  0.0127
35691SOL    HW113678   1.889   9.851   9.652  0.1405  0.3251 -0.2127
35691SOL    HW213679   1.830   9.940   9.759 -1.1226 -0.9468  0.1739
35692SOL     OW13680  10.678   3.198   5.133 -0.3496  0.0707  0.0324
35692SOL    HW113681  10.597   3.185   5.084 -0.1673 -1.4878  0.1085
35692SOL    HW213682  10.746   3.201   5.066 -0.3302  0.1689  0.0548
35693SOL     OW13683   2.954   8.903   1.215 -0.4661 -0.8089 -0.8365
35693SOL    HW113684   2.939   8.995   1.195 -0.3043 -0.8537 -1.1585
35693SOL    HW213685   2.872   8.859   1.192 -1.4503 -0.4026  1.5843
35694SOL     OW13686   2.307   9.032   1.320 -0.0317 -0.0817 -0.4621
35694SOL    HW113687   2.327   9.100   1.385  2.1514  0.6545 -1.8288
35694SOL    HW213688   2.211   9.024   1.324 -0.0215 -0.1219  2.8394
35695SOL     OW13689   7.927   3.682   8.039 -0.1067  0.6923 -0.4707
35695SOL    HW113690   7.954   3.594   8.011  1.2798  0.4332  1.4574
35695SOL    HW213691   7.839   3.671   8.073 -0.1641  0.1680 -0.7842
35696SOL     OW13692   6.133   2.674   0.888  0.2868  0.4883  0.0827
35696SOL    HW113693   6.053   2.710   0.848  0.4404  1.7729  0.8591
35696SOL    HW213694   6.101   2.610   0.952 -0.3474  2.7443  2.1877
35697SOL     OW13695   2.662  11.435   7.205 -0.0776  0.0308  0.3002
35697SOL    HW113696   2.603  11.491   7.154  1.3958  0.7871 -0.6568
35697SOL    HW213697   2.742  11.432   7.153  0.9213 -0.5177  1.8266
35698SOL     OW13698   4.217   1.739  12.340 -0.5107  0.4347 -0.2857
35698SOL    HW113699   4.136   1.751  12.290 -0.6312  1.5355  0.1402
35698SOL    HW213700   4.276   1.806  12.305  0.2346 -0.3845 -0.6147
35699SOL     OW13701   9.482   6.215  11.759  0.4034  0.2178 -0.0186
35699SOL    HW113702   9.395   6.180  11.777  0.7148 -0.0972  0.9175
35699SOL    HW213703   9.478   6.305  11.790  0.8687 -0.2562  1.4894
35700SOL     OW13704  10.854   8.361   9.476 -0.7795 -0.0496 -0.3236
35700SOL    HW113705  10.796   8.388   9.405 -2.0470  0.1308  0.7408
35700SOL    HW213706  10.811   8.392   9.555  0.8067  0.1106  0.5163
35701SOL     OW13707  11.560   2.953   9.216 -0.7107 -0.1564 -0.0711
35701SOL    HW113708  11.579   3.043   9.189  2.0802 -0.8084 -0.5257
35701SOL    HW213709  11.611   2.898   9.157 -2.5871 -2.0995 -0.0013
35702SOL     OW13710  11.495   6.915  12.552 -0.2824 -0.2030 -0.2674
35702SOL    HW113711  11.443   6.837  12.572 -1.4073  1.0473  1.9489
35702SOL    HW213712  11.558   6.922  12.624 -0.0676  0.8241 -0.5341
35703SOL     OW13713  11.782   3.172   6.421 -0.0848 -0.0069 -0.2175
35703SOL    HW113714  11.834   3.093   6.438  0.0827 -0.2300 -1.6477
35703SOL    HW213715  11.804   3.231   6.494  1.2993 -0.5362 -0.1746
35704SOL     OW13716   4.973   8.579   7.782  0.2036  0.6392  0.3377
35704SOL    HW113717   4.956   8.563   7.875  0.9234 -1.2241  0.1897
35704SOL    HW213718   4.922   8.512   7.736  1.8846 -0.2029 -0.4379
35705SOL     OW13719   1.673   7.947   0.125 -0.5234  0.0945  0.1472
35705SOL    HW113720   1.665   7.911   0.214  1.3482 -0.4994  0.1348
35705SOL    HW213721   1.622   7.888   0.070 -1.2421  0.1448  0.7424
35706SOL     OW13722   0.582   1.410   3.957 -0.9138  0.2070  0.2130
35706SOL    HW113723   0.522   1.415   4.032 -0.7357 -1.3904  0.4896
35706SOL    HW213724   0.569   1.493   3.911 -1.4603  0.9788  1.6740
35707SOL     OW13725  12.777   4.533   9.116 -0.1864 -0.2082  0.4073
35707SOL    HW113726  12.808   4.530   9.025  0.1219 -0.2677  0.5124
35707SOL    HW213727  12.847   4.490   9.166  0.4498  1.3497  0.8939
35708SOL     OW13728  12.736   9.601   5.746  0.6125  0.5427 -0.6005
35708SOL    HW113729  12.750   9.695   5.760 -1.3230  0.7377  0.3168
35708SOL    HW213730  12.810   9.574   5.693  1.5441  2.4661 -0.3718
35709SOL     OW13731   7.265   8.220  11.106  0.4834 -0.3759 -0.1205
35709SOL    HW113732   7.196   8.194  11.168 -0.3164  1.6432 -0.1038
35709SOL    HW213733   7.260   8.315  11.103  3.2304 -0.1692 -0.2125
35710SOL     OW13734  10.399   9.759   0.136 -0.2222  0.2555  0.0634
35710SOL    HW113735  10.468   9.773   0.201  0.9092 -1.7451 -0.6219
35710SOL    HW213736  10.432   9.800   0.057  0.0863 -0.4398 -0.1822
35711SOL     OW13737  11.175  10.233   4.782 -0.0968  0.1978  0.0694
35711SOL    HW113738  11.118  10.305   4.810 -0.5657  0.1375 -0.7137
35711SOL    HW213739  11.170  10.170   4.854 -0.0044  0.7638  0.5792
35712SOL     OW13740   7.120  10.384   9.551  0.5319 -0.0631 -0.2653
35712SOL    HW113741   7.106  10.343   9.637 -0.4244  2.6783  0.9795
35712SOL    HW213742   7.144  10.474   9.571  0.7882  0.5273 -2.9123
35713SOL     OW13743   8.091   1.301   0.766  0.3344 -0.3915  0.0323
35713SOL    HW113744   8.027   1.234   0.743 -0.6844  0.5060  0.1818
35713SOL    HW213745   8.162   1.290   0.702 -0.6103 -0.5086 -1.0125
35714SOL     OW13746   2.909   6.832   3.645 -0.4487 -0.2606  0.1970
35714SOL    HW113747   2.876   6.922   3.654 -2.0389 -0.8729  0.7954
35714SOL    HW213748   2.831   6.780   3.625  0.4222 -1.5515  0.0816
35715SOL     OW13749   6.457   0.133   4.642  0.4189  0.0069  0.3859
35715SOL    HW113750   6.417   0.216   4.615 -0.4142 -0.5049  0.0094
35715SOL    HW213751   6.526   0.117   4.578 -0.0600 -0.0652 -0.1255
35716SOL     OW13752   3.874   0.061  11.643  0.1868  0.4308  0.1098
35716SOL    HW113753   3.878   0.057  11.739  0.6430  1.0417  0.1221
35716SOL    HW213754   3.933  -0.009  11.614  1.2053  1.1891  0.2902
35717SOL     OW13755   9.808  12.565   2.101  0.2733  0.2350  0.4768
35717SOL    HW113756   9.877  12.615   2.145  0.0301 -0.3654  1.5692
35717SOL    HW213757   9.758  12.525   2.172 -1.4425  0.9401 -0.2723
35718SOL     OW13758  12.198   0.745  11.094 -0.1148 -0.4398  0.3849
35718SOL    HW113759  12.144   0.678  11.134 -1.7382 -0.2844 -1.3953
35718SOL    HW213760  12.151   0.770  11.014  1.2540  1.6311  0.1265
35719SOL     OW13761   0.006   9.318   2.238 -0.5487 -0.0795  0.4046
35719SOL    HW113762   0.030   9.383   2.171 -0.4855  1.0125  1.4542
35719SOL    HW213763   0.082   9.312   2.295 -0.9436 -0.2904  0.9226
35720SOL     OW13764  10.599  12.753   1.705 -0.0432 -0.3215 -0.8505
35720SOL    HW113765  10.539  12.694   1.660 -1.0855  0.6510 -0.7727
35720SOL    HW213766  10.601  12.832   1.651 -0.2509  0.3380  0.0860
35721SOL     OW13767   2.336   3.402  10.352 -0.0537  0.0948  0.3706
35721SOL    HW113768   2.295   3.441  10.430 -0.0664 -0.3668  0.6034
35721SOL    HW213769   2.265   3.396  10.288  0.3074  1.9564 -0.2718
35722SOL     OW13770   4.899   6.038   4.315 -0.3286  0.2699  0.3607
35722SOL    HW113771   4.989   6.064   4.292 -0.1329 -1.0017 -0.3859
35722SOL    HW213772   4.881   6.085   4.396  0.5288  1.5698 -0.1653
35723SOL     OW13773  10.923  10.561   1.114  0.4217  0.5410  0.2048
35723SOL    HW113774  10.914  10.472   1.081 -0.8502 -0.6031  3.2562
35723SOL    HW213775  10.834  10.587   1.137  0.9313  2.1004  0.5405
35724SOL     OW13776   2.504  11.199   2.315 -0.5225 -0.1365  0.1659
35724SOL    HW113777   2.445  11.178   2.242 -2.2865  0.2762  1.4201
35724SOL    HW213778   2.528  11.290   2.301 -1.3888  0.1427  0.4380
35725SOL     OW13779   6.324   7.596   7.155 -0.0097 -0.0629 -0.2109
35725SOL    HW113780   6.410   7.586   7.195  0.0017 -0.4846 -0.3399
35725SOL    HW213781   6.262   7.579   7.226  0.0050 -1.4680 -0.5172
35726SOL     OW13782   3.162   9.785  10.674 -0.2926 -0.2575  0.3518
35726SOL    HW113783   3.169   9.690  10.666  0.7376 -0.2201  0.7635
35726SOL    HW213784   3.146   9.800  10.767 -1.9619 -0.0885  0.0808
35727SOL     OW13785   1.849   1.900   5.714  0.2350  0.1140 -0.1102
35727SOL    HW113786   1.900   1.830   5.675 -0.0141  0.0051 -0.2432
35727SOL    HW213787   1.887   1.981   5.679  1.9657  0.1678  1.7353
35728SOL     OW13788   3.437   4.749   5.654 -0.0257  0.4535 -0.1510
35728SOL    HW113789   3.492   4.748   5.733  0.1947  2.1947 -0.2319
35728SOL    HW213790   3.464   4.829   5.608 -0.5875 -0.2143 -1.6828
35729SOL     OW13791  11.442   1.722  12.490  0.6795  0.2949  0.4480
35729SOL    HW113792  11.473   1.702  12.401  0.1279  1.0031  0.0906
35729SOL    HW213793  11.447   1.817  12.496 -2.9232  0.6750 -0.2304
35730SOL     OW13794   1.164   9.861   5.108 -0.2356 -0.4073 -0.0682
35730SOL    HW113795   1.203   9.804   5.042 -1.1420  0.3481 -1.3073
35730SOL    HW213796   1.124   9.932   5.057  1.9262  2.0580  1.4255
35731SOL     OW13797   5.518   4.403  12.057  0.3807 -0.3645 -0.3762
35731SOL    HW113798   5.598   4.412  12.005  1.5368  0.1673  1.4109
35731SOL    HW213799   5.542   4.437  12.144 -0.8384 -3.0040  1.1193
35732SOL     OW13800   2.264   5.851   9.777  0.2918  0.4262 -0.2934
35732SOL    HW113801   2.293   5.906   9.850 -1.2122  0.8537  0.0099
35732SOL    HW213802   2.306   5.890   9.700  3.1297 -0.9209  0.4252
35733SOL     OW13803   6.659  12.197  11.018 -0.4573  0.1412 -0.0763
35733SOL    HW113804   6.737  12.146  10.994  1.0325  2.2579 -0.1119
35733SOL    HW213805   6.601  12.135  11.060  1.8603 -1.3131  1.2165
35734SOL     OW13806  12.065   8.339  10.204  0.3973  0.0445 -0.0513
35734SOL    HW113807  11.988   8.395  10.188 -1.3027 -2.0894  0.2551
35734SOL    HW213808  12.081   8.297  10.119  0.3812 -0.5337  0.2349
35735SOL     OW13809  12.014  12.231  12.027 -0.4207 -0.3091 -0.1319
35735SOL    HW113810  11.983  12.152  12.071  0.8935 -1.5880 -1.3882
35735SOL    HW213811  12.086  12.262  12.082 -1.7956  0.8725  1.1023
35736SOL     OW13812   2.686  11.126  10.542 -0.1142 -0.2100 -0.0473
35736SOL    HW113813   2.665  11.146  10.451 -0.4151 -1.0292 -0.1635
35736SOL    HW213814   2.688  11.031  10.546  0.8196 -0.1729  0.6011
35737SOL     OW13815   7.202   4.494  10.698 -0.1576  0.0698  0.0227
35737SOL    HW113816   7.265   4.563  10.720  1.0571 -1.0744  0.2749
35737SOL    HW213817   7.124   4.515  10.749  1.4228 -0.6668  2.9504
35738SOL     OW13818   4.690   8.245   2.432 -0.4590 -0.2613  0.1289
35738SOL    HW113819   4.647   8.260   2.349 -0.2948 -0.0689  0.0773
35738SOL    HW213820   4.721   8.332   2.460 -0.3798 -0.3463  0.3141
35739SOL     OW13821   1.539   1.223   1.238 -0.0226 -0.4113  0.1652
35739SOL    HW113822   1.535   1.132   1.206 -1.3093 -0.4543  0.3884
35739SOL    HW213823   1.589   1.218   1.319  0.2769 -0.8483 -0.0413
35740SOL     OW13824   3.837  11.476   3.334 -0.2100  0.4588 -0.2177
35740SOL    HW113825   3.815  11.500   3.244  1.7168 -0.8654 -1.0950
35740SOL    HW213826   3.892  11.548   3.365  1.4727 -0.3812 -1.1307
35741SOL     OW13827   3.803   7.352   3.777 -0.0085  0.4545 -0.2050
35741SOL    HW113828   3.760   7.286   3.831 -1.9232  2.2930  0.6788
35741SOL    HW213829   3.755   7.349   3.694 -0.4163  1.0543  0.0085
35742SOL     OW13830   2.901   0.006   8.241 -0.7598 -0.7188  0.1861
35742SOL    HW113831   2.874  -0.082   8.267 -0.6095 -0.9113 -0.3027
35742SOL    HW213832   2.851   0.023   8.161  0.8387 -1.2499 -0.9734
35743SOL     OW13833   6.930   1.809   3.575  0.3948  0.1435  0.0430
35743SOL    HW113834   6.930   1.894   3.620 -1.0727 -0.5749  1.5133
35743SOL    HW213835   7.008   1.811   3.520  0.5527  2.3272  0.2489
35744SOL     OW13836   1.889   6.745  10.383  0.4445  0.1530  0.6523
35744SOL    HW113837   1.925   6.704  10.304 -1.0820  1.9992 -1.0949
35744SOL    HW213838   1.931   6.831  10.386  1.3035 -0.2900  2.5307
35745SOL     OW13839  11.062   9.408  10.272  0.0678  0.3999  0.3921
35745SOL    HW113840  11.096   9.328  10.231  0.3909  0.1879  1.0460
35745SOL    HW213841  11.132   9.436  10.331 -0.8372  0.0181  1.6883
35746SOL     OW13842   3.882   1.982  11.054  0.0672 -0.0460  0.1472
35746SOL    HW113843   3.876   1.903  11.001  1.0682 -1.9232  2.6171
35746SOL    HW213844   3.791   2.001  11.078 -0.1460 -0.7623 -0.0598
35747SOL     OW13845   5.538   2.093  11.331 -0.3484 -0.0896 -0.3417
35747SOL    HW113846   5.496   2.160  11.277 -1.0792 -1.3041 -1.3204
35747SOL    HW213847   5.466   2.035  11.358 -0.0671  0.5911  2.1667
35748SOL     OW13848   3.530  10.663   9.563 -0.1009  0.0375  0.2263
35748SOL    HW113849   3.580  10.744   9.553  0.2171 -0.0148  1.2228
35748SOL    HW213850   3.448  10.691   9.604  0.2998 -0.2092  1.2324
35749SOL     OW13851   4.382   5.128   1.127 -0.3003 -0.6602  0.1766
35749SOL    HW113852   4.311   5.191   1.127 -1.2091 -1.6590 -0.1772
35749SOL    HW213853   4.437   5.153   1.202  0.0203  1.2371 -0.6498
35750SOL     OW13854   9.660   2.399   3.675  0.2589  0.3332 -0.2963
35750SOL    HW113855   9.650   2.475   3.732  1.0168  0.2817 -0.0867
35750SOL    HW213856   9.692   2.330   3.734 -0.1185 -0.0559 -0.5462
35751SOL     OW13857  11.728   7.041  10.544  0.8031  0.0464 -0.0582
35751SOL    HW113858  11.652   6.998  10.584  1.0505  0.4073  0.8185
35751SOL    HW213859  11.691   7.099  10.478  0.2562  0.6770  0.7810
35752SOL     OW13860  11.176   7.875  10.620  0.1908  1.0112 -0.1342
35752SOL    HW113861  11.234   7.892  10.546  0.6379  0.2102  0.0299
35752SOL    HW213862  11.181   7.780  10.634 -0.7995  0.9935  0.1719
35753SOL     OW13863   3.156  11.119  10.885  0.3122  0.4642 -0.1799
35753SOL    HW113864   3.205  11.043  10.855 -0.8304 -0.0886 -0.7212
35753SOL    HW213865   3.093  11.136  10.815 -3.5077 -1.7902  2.3442
35754SOL     OW13866   6.886  11.402   0.703 -0.2714  0.0399  0.0565
35754SOL    HW113867   6.897  11.426   0.611  2.6357 -0.0399  0.2901
35754SOL    HW213868   6.943  11.463   0.751 -0.0990 -1.2475  1.5921
35755SOL     OW13869   2.780   7.863  11.615 -0.1234  0.1011  0.0863
35755SOL    HW113870   2.775   7.775  11.580 -0.5919  0.0971  0.1562
35755SOL    HW213871   2.713   7.912  11.568  1.7019  1.0458 -1.6761
35756SOL     OW13872   6.018   7.282   6.529  0.0254 -0.1187 -0.0571
35756SOL    HW113873   6.070   7.271   6.609 -1.2090 -0.0103  0.7834
35756SOL    HW213874   5.956   7.352   6.551 -1.3248 -1.1200 -0.5948
35757SOL     OW13875   7.686   7.626   3.864 -0.2963  0.0505 -0.0320
35757SOL    HW113876   7.772   7.587   3.847 -0.0638  0.7073 -0.3945
35757SOL    HW213877   7.679   7.697   3.800 -1.2999 -0.2806 -0.3097
35758SOL     OW13878   0.796   9.754   0.242  0.3831 -0.1909 -0.1033
35758SOL    HW113879   0.756   9.677   0.282  1.2497 -1.3597 -1.4204
35758SOL    HW213880   0.734   9.780   0.174  0.3479 -0.0469 -0.0168
35759SOL     OW13881   7.876   4.777  11.586 -0.4413  0.4057 -0.7719
35759SOL    HW113882   7.935   4.774  11.661 -2.7710  0.9174  1.1847
35759SOL    HW213883   7.844   4.687  11.577 -1.1329  0.6056 -0.3314
35760SOL     OW13884   0.060   7.193  11.151 -0.2879  0.1250  0.0967
35760SOL    HW113885   0.047   7.287  11.138  0.5683  0.1033 -1.0667
35760SOL    HW213886   0.090   7.161  11.066 -1.2277 -1.3352  0.2796
35761SOL     OW13887   3.830   1.062  12.162 -0.1537  0.3215  0.2639
35761SOL    HW113888   3.771   1.081  12.235 -1.1625 -1.0042 -0.1695
35761SOL    HW213889   3.866   0.976  12.182 -0.2400  0.0547 -0.6536
35762SOL     OW13890  10.203  10.718  10.169 -0.0508  0.1426  0.2454
35762SOL    HW113891  10.272  10.652  10.159  0.0296  0.1232  0.8608
35762SOL    HW213892  10.232  10.791  10.115  0.1513 -0.0993  0.0239
35763SOL     OW13893   7.662   0.499   3.694  0.7777  0.6906  0.5845
35763SOL    HW113894   7.659   0.437   3.766  2.6845 -0.6675 -0.3949
35763SOL    HW213895   7.723   0.460   3.631 -1.3535  1.3889 -2.1524
35764SOL     OW13896   4.509   4.718   3.284 -0.0240  0.0883 -0.0914
35764SOL    HW113897   4.496   4.791   3.345 -0.7815  0.1380 -0.3041
35764SOL    HW213898   4.533   4.760   3.201 -1.1633  0.1548 -0.4081
35765SOL     OW13899   5.816   9.610   3.127  0.1824  0.1712 -0.1948
35765SOL    HW113900   5.856   9.533   3.169  0.3378  0.5286  0.3204
35765SOL    HW213901   5.887   9.647   3.074  0.0978 -0.0551 -0.4699
35766SOL     OW13902   8.331   2.327   9.422 -0.3662 -0.6182  0.1246
35766SOL    HW113903   8.397   2.328   9.491  2.4618  0.9063 -2.3860
35766SOL    HW213904   8.266   2.264   9.453  3.0171 -3.5432  2.0818
35767SOL     OW13905   6.424   5.309   3.991  0.3998  0.0901 -0.3235
35767SOL    HW113906   6.475   5.390   3.989  0.3496  0.1257 -0.1432
35767SOL    HW213907   6.488   5.239   3.978  0.7057  0.0281  1.3262
35768SOL     OW13908   3.924   1.791   5.106 -0.2721 -0.3655  0.4857
35768SOL    HW113909   3.916   1.874   5.060  0.1730 -0.8274 -0.4678
35768SOL    HW213910   3.992   1.743   5.058 -0.8877 -1.4907  0.6849
35769SOL     OW13911   0.479   2.785   7.947 -1.2702 -0.0555  0.4167
35769SOL    HW113912   0.399   2.755   7.989  0.9022 -4.3511  2.1764
35769SOL    HW213913   0.473   2.752   7.857 -2.0928  1.0625  0.0481
35770SOL     OW13914   4.061   7.622   6.492 -0.0622  0.3942  0.0700
35770SOL    HW113915   4.110   7.699   6.522  0.1704  0.2228  0.1339
35770SOL    HW213916   4.124   7.550   6.498  0.2656  0.4857 -1.6215
35771SOL     OW13917   1.376   4.899   4.574  0.1393  0.2109 -0.2077
35771SOL    HW113918   1.307   4.835   4.561  0.6610 -0.2787 -0.6050
35771SOL    HW213919   1.412   4.879   4.660 -0.2552  0.5176  0.0347
35772SOL     OW13920   5.024   9.655  12.032  0.0572  0.1591 -0.1417
35772SOL    HW113921   4.953   9.592  12.021 -1.1521  1.6230 -1.0342
35772SOL    HW213922   4.980   9.737  12.055  1.4123  1.2136 -1.1688
35773SOL     OW13923   5.644  12.643   9.480 -0.6925  0.1049 -0.5056
35773SOL    HW113924   5.684  12.700   9.545 -0.9949  0.0188 -0.2415
35773SOL    HW213925   5.713  12.628   9.415  0.2190 -1.2936  0.7159
35774SOL     OW13926   2.005   8.379  11.465 -0.6022  0.6639  0.1857
35774SOL    HW113927   2.075   8.353  11.404 -1.5416  0.3384 -0.7973
35774SOL    HW213928   1.925   8.348  11.423 -1.4412  1.9395  0.7829
35775SOL     OW13929   8.670  10.882   8.506  0.1466  0.2329  0.6152
35775SOL    HW113930   8.683  10.962   8.557 -3.0590  0.3758  1.4525
35775SOL    HW213931   8.667  10.813   8.572 -1.6150  0.1008  0.4487
35776SOL     OW13932   2.816   1.301   7.614 -0.3989 -0.4920 -0.1735
35776SOL    HW113933   2.826   1.383   7.565 -1.1404 -0.2627  0.0421
35776SOL    HW213934   2.734   1.263   7.581 -0.4489 -0.7694  0.2612
35777SOL     OW13935   5.954   5.196   1.014  0.4810  0.4846 -0.0798
35777SOL    HW113936   6.030   5.239   1.052  1.1742 -2.1887  1.8876
35777SOL    HW213937   5.885   5.263   1.017  2.0633  2.1809  0.4796
35778SOL     OW13938   5.426  11.962   3.518  0.5843  0.7349 -0.0530
35778SOL    HW113939   5.451  11.930   3.605  1.5369  2.0330  0.1729
35778SOL    HW213940   5.344  12.010   3.533 -1.9671 -2.9835 -0.6935
35779SOL     OW13941  11.872  12.200   8.704  0.3024  0.3149 -0.7498
35779SOL    HW113942  11.808  12.133   8.731  0.2155 -0.1199 -1.9828
35779SOL    HW213943  11.837  12.282   8.740 -0.6032 -0.0182 -0.8260
35780SOL     OW13944   4.712   6.028   5.842  0.2528 -0.1113  0.0802
35780SOL    HW113945   4.723   6.025   5.747  0.4997 -1.7150  0.1420
35780SOL    HW213946   4.798   6.004   5.878 -0.2932 -1.2567  0.6737
35781SOL     OW13947   1.327   4.722   4.922 -0.1977 -0.3155  0.6501
35781SOL    HW113948   1.387   4.652   4.899  1.3745  0.8207  1.1262
35781SOL    HW213949   1.380   4.802   4.916 -1.7475  0.7660  0.7823
35782SOL     OW13950   3.704   5.596  12.099  0.1186 -0.7003  0.0799
35782SOL    HW113951   3.789   5.611  12.058  0.5184 -1.2133  0.7075
35782SOL    HW213952   3.641   5.597  12.026  0.2442  2.5058 -0.1550
35783SOL     OW13953   5.776   1.267   8.678  0.2181 -0.3297 -0.0520
35783SOL    HW113954   5.738   1.333   8.736 -0.1574 -0.4899 -0.1106
35783SOL    HW213955   5.734   1.186   8.704 -1.4531 -0.1074 -1.8315
35784SOL     OW13956   2.277   7.552  11.330 -0.3504 -0.1689 -0.5086
35784SOL    HW113957   2.355   7.592  11.292 -0.6936  0.0529 -0.9966
35784SOL    HW213958   2.234   7.623  11.378  0.8753 -0.7969  1.6380
35785SOL     OW13959   3.359   3.412   9.963  0.0674 -0.2710 -0.8057
35785SOL    HW113960   3.360   3.353   9.887  1.0580 -1.3579  0.0118
35785SOL    HW213961   3.441   3.460   9.958 -0.8643  1.3099 -1.6249
35786SOL     OW13962   8.536   4.609   9.809 -0.4340  0.1662 -0.4811
35786SOL    HW113963   8.482   4.581   9.735 -0.4627 -1.1927  0.0247
35786SOL    HW213964   8.477   4.660   9.863 -1.6707 -2.3265  0.7015
35787SOL     OW13965   9.193   4.466   2.395  0.0761 -0.2207 -0.2100
35787SOL    HW113966   9.281   4.450   2.430 -0.3756  2.4399  2.5717
35787SOL    HW213967   9.207   4.494   2.305  1.8887 -1.4212 -0.3445
35788SOL     OW13968   6.970   3.270   0.430  0.0529 -0.4153  0.4610
35788SOL    HW113969   6.877   3.287   0.447  0.5618  4.1274 -0.1076
35788SOL    HW213970   7.014   3.287   0.513  0.5294 -1.1492  0.3709
35789SOL     OW13971   6.176   0.286   2.353 -0.3558  0.0761  0.3439
35789SOL    HW113972   6.150   0.255   2.267 -0.2477  0.4694  0.1704
35789SOL    HW213973   6.093   0.303   2.398 -0.4681 -1.9646  1.0038
35790SOL     OW13974   2.481   6.715   5.156 -0.2190 -0.3565 -0.0328
35790SOL    HW113975   2.394   6.738   5.190 -0.8258  0.1407 -1.8143
35790SOL    HW213976   2.527   6.798   5.152 -0.7342 -0.1081 -1.8939
35791SOL     OW13977   0.629   6.386   5.924 -0.0322  0.2567  0.0769
35791SOL    HW113978   0.602   6.297   5.901 -1.0545  0.7873 -0.8426
35791SOL    HW213979   0.586   6.404   6.007 -0.9328  0.3747 -0.4064
35792SOL     OW13980   0.170   8.316  10.175 -0.0839 -0.0448  0.8736
35792SOL    HW113981   0.168   8.321  10.270 -1.5175 -1.2114  0.9383
35792SOL    HW213982   0.099   8.257  10.152 -2.1612  2.9400 -1.1284
35793SOL     OW13983   0.460   5.397  12.694  0.0665 -0.7199  0.4011
35793SOL    HW113984   0.475   5.435  12.608 -0.0880 -1.4323  0.0588
35793SOL    HW213985   0.437   5.306  12.677 -1.0143 -0.6085  1.1218
35794SOL     OW13986   2.851  11.621  11.950 -0.4674 -0.5514 -0.2187
35794SOL    HW113987   2.855  11.624  12.046 -0.7939 -0.6639 -0.2016
35794SOL    HW213988   2.802  11.541  11.931 -2.8830  0.8702 -0.4062
35795SOL     OW13989  10.273   8.967   6.928 -0.6584  0.2533  0.1427
35795SOL    HW113990  10.310   8.931   7.009  0.4530  0.0743 -0.4264
35795SOL    HW213991  10.343   9.022   6.892 -1.0166  0.0652 -0.8698
35796SOL     OW13992   6.890   6.684   2.843 -0.0378 -0.2812 -0.6554
35796SOL    HW113993   6.862   6.752   2.783  2.1642  1.3301  0.0260
35796SOL    HW213994   6.937   6.621   2.788 -0.3990 -0.2522 -1.0016
35797SOL     OW13995   2.498   0.794   8.280 -0.3581 -0.0441  0.4459
35797SOL    HW113996   2.453   0.801   8.196  2.5138 -0.9630 -1.2999
35797SOL    HW213997   2.544   0.877   8.291  0.7567 -0.5925  0.1283
35798SOL     OW13998  11.870   6.936  12.373 -0.9046 -0.2103 -0.1750
35798SOL    HW113999  11.853   6.844  12.391 -0.6315 -0.3572 -0.6529
35798SOL    HW214000  11.804   6.983  12.423 -1.5832 -0.7021 -0.5974
35799SOL     OW14001   6.001  12.266   5.172  0.0942 -0.1658  0.0600
35799SOL    HW114002   5.989  12.215   5.092 -0.9205  1.2673 -0.7467
35799SOL    HW214003   5.930  12.238   5.230  0.3716 -0.6521  0.1699
35800SOL     OW14004   2.830   9.395   1.513  0.3600  0.1727 -0.0872
35800SOL    HW114005   2.900   9.423   1.454  0.7654  1.0538  0.7743
35800SOL    HW214006   2.789   9.476   1.542 -0.0918 -0.2666  0.5341
35801SOL     OW14007   4.052   4.562   9.375 -0.3078  0.2402  0.6142
35801SOL    HW114008   4.066   4.631   9.439  0.3571  1.3650 -0.6911
35801SOL    HW214009   4.055   4.481   9.426  0.8548  1.0481  1.9018
35802SOL     OW14010  12.706  12.003   0.573  0.0687 -0.0391  0.2088
35802SOL    HW114011  12.740  12.022   0.661 -0.8248  1.3968  0.2627
35802SOL    HW214012  12.649  12.076   0.553  1.1712  0.2788 -2.0851
35803SOL     OW14013   6.999   2.625   8.857  0.1128  0.2006  0.0049
35803SOL    HW114014   6.930   2.689   8.872  1.1049  1.3720 -0.2179
35803SOL    HW214015   6.960   2.541   8.879 -0.5700  1.0941  2.4786
35804SOL     OW14016   0.616   5.444   7.385 -0.1851  0.2025  0.2086
35804SOL    HW114017   0.551   5.401   7.441 -0.6899 -0.6928 -1.0086
35804SOL    HW214018   0.690   5.462   7.443 -0.3518 -1.4587  0.9966
35805SOL     OW14019   8.714  10.457   2.563 -0.3203  0.1440 -0.1344
35805SOL    HW114020   8.695  10.415   2.480 -0.5188 -0.4123  0.1894
35805SOL    HW214021   8.643  10.430   2.621 -0.5558  1.0797  0.0256
35806SOL     OW14022  10.243   0.824   3.782 -0.1005 -1.0742  0.0971
35806SOL    HW114023  10.297   0.763   3.732 -0.0712  0.5816 -2.0334
35806SOL    HW214024  10.301   0.897   3.802 -1.3367  0.5207 -1.8164
35807SOL     OW14025  11.635  11.375   9.078  0.4170 -0.0014  0.1513
35807SOL    HW114026  11.553  11.388   9.125  0.6223  0.8308  0.2961
35807SOL    HW214027  11.695  11.338   9.143  1.2931  2.9431  1.1777
35808SOL     OW14028   4.268   9.251   3.791  0.1346 -0.1762 -0.4980
35808SOL    HW114029   4.267   9.258   3.696  0.5728 -0.8034 -0.5551
35808SOL    HW214030   4.335   9.314   3.819 -0.1276  0.1463 -0.5840
35809SOL     OW14031   9.521  12.066  10.952  0.4453  0.6586 -0.3135
35809SOL    HW114032   9.442  12.108  10.917 -0.1678  0.6442  0.9868
35809SOL    HW214033   9.577  12.139  10.978 -0.3388  0.7086  1.3309
35810SOL     OW14034   8.529   2.537   4.467 -0.0376 -0.0995 -0.1191
35810SOL    HW114035   8.549   2.473   4.399  0.9191  0.8394 -0.7661
35810SOL    HW214036   8.452   2.584   4.433 -1.0091 -1.1522  0.5566
35811SOL     OW14037   5.988   2.073   7.121  0.5835 -0.4679 -0.2275
35811SOL    HW114038   5.926   2.059   7.193  0.3351 -0.1748 -0.3841
35811SOL    HW214039   5.948   2.030   7.046  0.8500 -0.7852 -0.1934
35812SOL     OW14040   4.612   7.974   5.759  0.2524  0.2184  0.1175
35812SOL    HW114041   4.549   7.914   5.720  1.6320 -1.7334  0.7476
35812SOL    HW214042   4.657   8.014   5.684 -0.6413  0.4670 -0.3039
35813SOL     OW14043   1.731   9.200   9.240  0.0151 -1.1399  0.1964
35813SOL    HW114044   1.777   9.228   9.319  1.0909 -0.4873 -0.6309
35813SOL    HW214045   1.739   9.274   9.180 -2.8204 -0.6824  0.2624
35814SOL     OW14046   2.255   4.734   2.194 -0.8392 -0.1296  0.0447
35814SOL    HW114047   2.308   4.657   2.216 -1.3747 -0.0177  1.8222
35814SOL    HW214048   2.318   4.806   2.192 -0.3169 -0.5859 -1.7331
35815SOL     OW14049   0.230   2.722   4.815 -0.2997 -0.1279 -0.4595
35815SOL    HW114050   0.240   2.793   4.752 -1.6180 -0.3610 -0.9559
35815SOL    HW214051   0.165   2.754   4.877  0.0790 -0.3882  0.0793
35816SOL     OW14052   3.168   2.472   1.014 -0.1901  0.4993 -0.1043
35816SOL    HW114053   3.078   2.459   0.987  0.2126 -2.1428 -0.4327
35816SOL    HW214054   3.207   2.526   0.944 -1.4087  1.4572 -0.0690
35817SOL     OW14055  12.520   3.908   1.080 -0.7159 -0.1794 -0.2829
35817SOL    HW114056  12.534   3.837   1.018 -0.2692 -0.6020  0.2965
35817SOL    HW214057  12.567   3.983   1.041  2.2431 -1.2189  0.9795
35818SOL     OW14058   6.837   0.312  12.232 -0.0147  0.2534 -0.1347
35818SOL    HW114059   6.874   0.256  12.164  2.3464  0.2008  1.0994
35818SOL    HW214060   6.883   0.396  12.223 -1.1171  0.9168  0.1441
35819SOL     OW14061  11.219   7.258   0.578 -0.3040 -0.7004 -0.0882
35819SOL    HW114062  11.234   7.168   0.607 -1.4031 -1.1384 -0.8252
35819SOL    HW214063  11.199   7.305   0.659 -0.5783 -1.3068  0.2064
35820SOL     OW14064   5.954   0.887   4.761  0.5539 -0.1718  0.3325
35820SOL    HW114065   5.964   0.827   4.835  2.0708  0.9722  1.1059
35820SOL    HW214066   6.026   0.949   4.770 -0.5276  1.3477 -0.8565
35821SOL     OW14067  12.646   0.028  12.273 -0.4285  0.4415  0.9263
35821SOL    HW114068  12.712   0.084  12.314  0.8602 -0.2436 -0.1400
35821SOL    HW214069  12.573   0.087  12.255  1.1303  2.0137 -0.7779
35822SOL     OW14070  11.332  11.100  11.074 -0.5782 -0.5082  0.1493
35822SOL    HW114071  11.300  11.048  11.001  0.0620  0.7781 -1.0905
35822SOL    HW214072  11.421  11.069  11.089 -0.1694  0.2583 -0.6408
35823SOL     OW14073  11.936   9.265   2.165  0.2777  0.4591  0.0549
35823SOL    HW114074  11.944   9.358   2.188  0.3048  0.3651  0.4246
35823SOL    HW214075  11.843   9.245   2.180  0.6069 -0.0058  1.6148
35824SOL     OW14076   8.670   9.589   3.128  0.2880  0.5463  0.0935
35824SOL    HW114077   8.719   9.508   3.113 -0.5160 -0.2486  1.5663
35824SOL    HW214078   8.709   9.626   3.207 -0.9263  0.3383  0.8039
35825SOL     OW14079   0.432   8.548   1.401  0.4926  0.2129  0.6051
35825SOL    HW114080   0.455   8.630   1.357 -0.4031  0.8273  1.2337
35825SOL    HW214081   0.408   8.575   1.490  1.8465 -0.9538  1.3423
35826SOL     OW14082   8.454  12.586  11.738  0.3783 -0.0307  1.0466
35826SOL    HW114083   8.462  12.670  11.783 -0.3251 -1.2107  3.5884
35826SOL    HW214084   8.368  12.590  11.696  0.5018  0.6430  0.8425
35827SOL     OW14085  12.420   6.033   8.537  0.7315  0.0246  0.5228
35827SOL    HW114086  12.460   6.073   8.615  0.8436 -1.1726  1.1076
35827SOL    HW214087  12.469   5.952   8.524  1.3013  0.6173 -1.3520
35828SOL     OW14088   9.672  10.734   0.429  0.0563  0.0626  0.1898
35828SOL    HW114089   9.677  10.666   0.362  0.9768 -0.3288  0.6342
35828SOL    HW214090   9.669  10.686   0.511 -1.0939  0.5399  0.4446
35829SOL     OW14091   4.274  11.161   5.486 -0.0466 -0.4611 -0.5515
35829SOL    HW114092   4.320  11.167   5.402 -2.1135 -0.0214 -1.7303
35829SOL    HW214093   4.210  11.092   5.473 -0.1822 -0.6078  0.7966
35830SOL     OW14094   4.889   3.273   8.500  0.1307  0.2660  0.2628
35830SOL    HW114095   4.981   3.257   8.484  0.2584  1.5510 -0.4025
35830SOL    HW214096   4.883   3.283   8.596  0.3398 -1.6104  0.5132
35831SOL     OW14097   9.619   0.373   5.917 -0.1503  0.1734 -0.7787
35831SOL    HW114098   9.634   0.412   6.003  1.6554 -0.2416 -0.8666
35831SOL    HW214099   9.524   0.383   5.902 -0.3886  0.8298  0.9515
35832SOL     OW14100   6.658   5.882   3.666  0.3055 -0.1639 -0.0498
35832SOL    HW114101   6.735   5.931   3.638 -0.0205  0.1844 -0.3374
35832SOL    HW214102   6.624   5.931   3.741  0.3275 -0.2877  0.0430
35833SOL     OW14103   9.522   8.366   4.820 -0.2835 -0.0493 -0.0321
35833SOL    HW114104   9.493   8.279   4.845  1.1276 -0.3640  0.5977
35833SOL    HW214105   9.529   8.362   4.725 -2.3051  0.0763 -0.2333
35834SOL     OW14106   3.272   3.256   9.742  0.3364 -0.1584  0.3017
35834SOL    HW114107   3.282   3.192   9.672 -0.4370  0.8919 -0.8004
35834SOL    HW214108   3.281   3.340   9.699 -0.9564  0.5373  1.3223
35835SOL     OW14109   5.314   1.495   2.775 -0.2769  0.3180 -0.1392
35835SOL    HW114110   5.396   1.503   2.824  0.4402  0.7061 -1.3652
35835SOL    HW214111   5.338   1.511   2.684 -1.5138 -0.6916 -0.6883
35836SOL     OW14112   0.958  12.330   1.046  0.4799 -0.2591 -0.2361
35836SOL    HW114113   1.035  12.284   1.012 -0.8207 -1.0230 -2.3320
35836SOL    HW214114   0.957  12.413   0.999  1.6550  1.1395  2.0319
35837SOL     OW14115  12.595   5.930   8.164  0.1232 -0.0895 -0.6442
35837SOL    HW114116  12.559   5.874   8.095  1.0964 -1.3647 -0.1692
35837SOL    HW214117  12.629   6.007   8.117  1.5975 -1.3455 -1.7580
35838SOL     OW14118  11.089   8.965   1.939  0.1365  0.4635 -0.1634
35838SOL    HW114119  11.001   8.971   1.977  0.3569  1.4199  0.2372
35838SOL    HW214120  11.147   8.947   2.013  0.9462  5.0828  0.6587
35839SOL     OW14121   6.724   7.488   0.995  0.4521  0.4725 -0.2928
35839SOL    HW114122   6.743   7.436   0.917  0.0216 -0.3603  0.1379
35839SOL    HW214123   6.638   7.456   1.023  0.2916  1.2598  0.1210
35840SOL     OW14124   9.773  10.652   9.882 -0.2486  0.2284 -0.0780
35840SOL    HW114125   9.867  10.642   9.864  0.0659  2.3164  0.1884
35840SOL    HW214126   9.767  10.654   9.978 -0.9368 -2.4642  0.0296
35841SOL     OW14127  12.053   9.781  10.903  0.1812  0.0263  0.3098
35841SOL    HW114128  11.967   9.753  10.934  0.2386 -1.5698 -0.8782
35841SOL    HW214129  12.040   9.873  10.880 -1.1156 -0.0889  0.4821
35842SOL     OW14130  10.390   1.411   7.618 -0.0556  0.3827  0.4302
35842SOL    HW114131  10.388   1.439   7.527  0.8689  2.5991  1.0383
35842SOL    HW214132  10.482   1.394   7.636 -0.1757  0.4012  1.0891
35843SOL     OW14133   1.669   1.067   4.234 -0.1569  0.2999  0.3751
35843SOL    HW114134   1.622   0.991   4.270  1.9090 -1.2649 -0.0197
35843SOL    HW214135   1.675   1.128   4.308 -4.0259  1.3078  0.0431
35844SOL     OW14136   1.095   7.780   8.985 -0.3272 -0.0270  0.5184
35844SOL    HW114137   1.069   7.865   8.952 -0.3673 -0.5882 -0.9477
35844SOL    HW214138   1.051   7.717   8.928  1.1499 -1.0116  0.4100
35845SOL     OW14139   7.442   4.589  11.354  0.0787  0.1596 -0.1807
35845SOL    HW114140   7.478   4.518  11.302  3.1399  0.7520  0.8954
35845SOL    HW214141   7.447   4.666  11.296 -2.7303 -0.2955 -1.1600
35846SOL     OW14142   4.711   0.319   7.920  0.2980 -0.8166 -0.0075
35846SOL    HW114143   4.621   0.312   7.888  0.0129  1.9720 -0.0990
35846SOL    HW214144   4.705   0.299   8.013 -0.4296 -0.6768 -0.0154
35847SOL     OW14145  10.562   0.650   0.824 -0.3808 -0.4779 -0.1137
35847SOL    HW114146  10.473   0.684   0.817  0.7136  2.5610 -1.3320
35847SOL    HW214147  10.586   0.662   0.916 -1.3561 -1.8303  0.3425
35848SOL     OW14148   1.082   3.977   4.389  0.2484  0.0228  0.8180
35848SOL    HW114149   1.040   4.064   4.392 -0.2249 -0.1021 -0.9620
35848SOL    HW214150   1.008   3.916   4.385  0.5301 -0.2708 -0.9268
35849SOL     OW14151   1.284   0.293  12.004  0.0196  0.5560 -0.5163
35849SOL    HW114152   1.366   0.334  12.033  0.8040 -1.9183  1.1532
35849SOL    HW214153   1.222   0.309  12.075  0.1316 -0.4805 -0.1682
35850SOL     OW14154   3.298   6.218   4.412  0.0803  0.2161  0.7057
35850SOL    HW114155   3.285   6.281   4.341 -0.4913 -2.0780 -1.3477
35850SOL    HW214156   3.212   6.211   4.454 -1.3010 -2.5852 -2.1682
35851SOL     OW14157   7.912   7.712   2.730  0.3567 -0.0372  0.5195
35851SOL    HW114158   7.857   7.786   2.703  2.0460  1.1597  0.2162
35851SOL    HW214159   7.865   7.675   2.805 -1.3517  0.3056 -0.3177
35852SOL     OW14160  11.477   9.977   8.101  0.1688 -0.2813 -0.5577
35852SOL    HW114161  11.506   9.906   8.158 -0.7367 -0.9848 -0.9411
35852SOL    HW214162  11.538   9.977   8.028  0.5037 -0.2998 -0.2788
35853SOL     OW14163   2.348   0.852   2.125 -0.1106  0.3081 -0.4446
35853SOL    HW114164   2.276   0.866   2.187 -0.1991 -0.1659 -0.4433
35853SOL    HW214165   2.387   0.769   2.151  2.1648  1.7539  1.2847
35854SOL     OW14166   2.154   3.265  11.823  0.5530 -0.2856 -0.5366
35854SOL    HW114167   2.084   3.242  11.885  1.1647 -0.0312  0.2640
35854SOL    HW214168   2.212   3.189  11.824  0.7355 -0.1464 -0.5474
35855SOL     OW14169   5.762   6.481   1.713 -0.2692 -0.4499  0.2906
35855SOL    HW114170   5.818   6.539   1.763 -1.1376 -1.2272  2.2763
35855SOL    HW214171   5.763   6.516   1.624  1.2611  1.0446  0.8623
35856SOL     OW14172   2.631   5.964   0.071 -0.1465 -0.1915  0.5458
35856SOL    HW114173   2.624   6.046   0.023 -2.1469 -0.8788 -0.4543
35856SOL    HW214174   2.579   5.977   0.150 -2.2543 -1.0917 -0.6079
35857SOL     OW14175   2.904   3.133  11.489  0.1114 -0.0148 -0.0704
35857SOL    HW114176   2.839   3.198  11.462  0.7089  0.7805  0.3868
35857SOL    HW214177   2.985   3.160  11.447  0.0540 -1.3292 -1.1054
35858SOL     OW14178   6.714   4.558   2.750  0.5803 -0.0148  0.2741
35858SOL    HW114179   6.636   4.537   2.699 -1.2389  2.5623  1.7241
35858SOL    HW214180   6.761   4.622   2.696 -0.6804  1.7412  1.1512
35859SOL     OW14181  12.425   8.293  11.526 -0.1521 -0.7419 -0.1345
35859SOL    HW114182  12.411   8.378  11.485  0.5927 -0.3662  0.3825
35859SOL    HW214183  12.423   8.231  11.453  3.2569  0.1019 -1.1134
35860SOL     OW14184   6.942  11.649   7.828 -0.1353  0.0497  0.0945
35860SOL    HW114185   6.941  11.677   7.736  0.4623 -0.2712 -0.0148
35860SOL    HW214186   6.887  11.571   7.829  0.2650 -0.2419 -0.0962
35861SOL     OW14187   4.809   8.826  11.210 -0.0375 -0.3147  0.7205
35861SOL    HW114188   4.765   8.886  11.270 -1.1488  2.0369 -2.1726
35861SOL    HW214189   4.742   8.762  11.185 -0.0485 -0.3356  0.8055
35862SOL     OW14190   4.694   0.997   7.822  0.1489  0.2045  0.0251
35862SOL    HW114191   4.674   0.947   7.901 -0.8740  0.3162 -0.1525
35862SOL    HW214192   4.712   0.931   7.755 -1.0438  0.0590 -0.1694
35863SOL     OW14193  10.258   3.712   1.047 -0.5264 -0.1246  0.1417
35863SOL    HW114194  10.173   3.757   1.038 -0.3517  0.6236  1.7610
35863SOL    HW214195  10.247   3.657   1.125  0.0798 -1.0071 -0.3859
35864SOL     OW14196   6.587   3.429   2.957 -0.1750  0.1387 -0.7251
35864SOL    HW114197   6.626   3.342   2.971 -2.0780 -0.3684  2.1683
35864SOL    HW214198   6.658   3.480   2.918  2.5855 -1.4041  1.8239
35865SOL     OW14199   7.029  10.589   2.538  0.0494  0.1580 -0.3512
35865SOL    HW114200   6.972  10.623   2.469 -0.9708 -2.5958 -0.9892
35865SOL    HW214201   6.990  10.505   2.562  2.1098 -0.3783  1.4493
35866SOL     OW14202   5.474   9.909   9.810  0.1772  0.4164 -0.9281
35866SOL    HW114203   5.424   9.943   9.736 -0.6109  1.1823 -0.0713
35866SOL    HW214204   5.565   9.923   9.786  0.0581 -1.5362 -2.7676
35867SOL     OW14205   4.372   5.754   9.558 -0.1669  0.2468 -0.0180
35867SOL    HW114206   4.292   5.705   9.573 -0.7836  0.9846 -0.7989
35867SOL    HW214207   4.342   5.841   9.530  0.8675  1.1633  1.5082
35868SOL     OW14208   1.533   4.038   5.669  0.4053  0.1160  0.7048
35868SOL    HW114209   1.545   3.991   5.586 -2.4452 -1.2302  0.9573
35868SOL    HW214210   1.585   3.988   5.732  0.5080 -0.3907  0.2317
35869SOL     OW14211   6.060   2.322   7.115 -0.0428 -0.4062 -0.6770
35869SOL    HW114212   6.048   2.343   7.022 -2.0577 -2.1151 -0.8773
35869SOL    HW214213   6.027   2.233   7.124  1.6778 -0.9316  1.4044
35870SOL     OW14214   9.971   8.180   6.375  0.2647  0.1514 -0.5357
35870SOL    HW114215   9.876   8.188   6.371  0.0430 -1.6185  0.2676
35870SOL    HW214216   9.993   8.124   6.300  0.3526 -1.5346  0.6963
35871SOL     OW14217  12.316   9.726   3.928  0.7162  0.4321 -0.3370
35871SOL    HW114218  12.296   9.649   3.981 -1.1612  0.8734 -0.3123
35871SOL    HW214219  12.278   9.799   3.978  0.2874  1.0466 -1.5227
35872SOL     OW14220  11.563  12.323   2.912  0.1184  0.4485  0.3068
35872SOL    HW114221  11.600  12.298   2.996 -2.1392 -1.4005  0.8408
35872SOL    HW214222  11.630  12.299   2.848  0.7848 -0.6181  1.3793
35873SOL     OW14223   5.570   7.385  11.230 -0.3454  0.5693 -0.0602
35873SOL    HW114224   5.648   7.414  11.278  0.4720 -0.4500 -0.7249
35873SOL    HW214225   5.550   7.456  11.170  0.1003  0.8169  0.0829
35874SOL     OW14226   1.297  12.622   2.432 -0.0327 -0.5826 -1.1106
35874SOL    HW114227   1.391  12.635   2.446 -0.1621 -0.1631 -0.5965
35874SOL    HW214228   1.256  12.659   2.510 -0.7308  0.8013 -2.0853
35875SOL     OW14229   2.046   0.227   5.582  0.0085  0.0383 -0.1609
35875SOL    HW114230   2.115   0.284   5.545 -0.3758 -0.2404 -1.3599
35875SOL    HW214231   2.061   0.142   5.540 -0.9404 -0.0745 -0.2849
35876SOL     OW14232  12.024   8.807   6.045 -0.9554 -0.4215  1.0571
35876SOL    HW114233  12.093   8.763   5.995 -0.6094 -1.7979  2.6319
35876SOL    HW214234  11.980   8.863   5.982  1.8005  0.7788  0.0482
35877SOL     OW14235   2.506   1.797   6.842  0.3780  0.0508  0.5039
35877SOL    HW114236   2.432   1.855   6.824  1.6234  0.8739 -2.8820
35877SOL    HW214237   2.467   1.710   6.852 -1.1992  0.8070  1.1207
35878SOL     OW14238   1.913   7.352   1.618  0.3787  0.3832  0.1455
35878SOL    HW114239   1.839   7.369   1.675 -0.4174  1.8168 -1.2287
35878SOL    HW214240   1.988   7.388   1.665  0.2721 -1.1935  1.6014
35879SOL     OW14241   7.602   8.740   4.659 -0.2903 -0.2735  0.3387
35879SOL    HW114242   7.686   8.714   4.621 -0.3876 -0.0189 -0.0555
35879SOL    HW214243   7.625   8.798   4.731 -0.1399  0.3386 -0.1881
35880SOL     OW14244   8.435   0.026  11.874  0.3769  0.4583 -0.0030
35880SOL    HW114245   8.372   0.091  11.905 -0.7796 -1.0633  0.9266
35880SOL    HW214246   8.514   0.044  11.925  0.0713  1.1066  0.2611
35881SOL     OW14247   9.815   8.648   3.343  0.4758  0.2294 -0.2438
35881SOL    HW114248   9.792   8.591   3.269 -0.0583  0.4980 -0.2857
35881SOL    HW214249   9.840   8.587   3.413  0.3965 -0.0429 -0.4524
35882SOL     OW14250   7.696   5.276   8.625 -0.0839 -0.7019 -0.3185
35882SOL    HW114251   7.786   5.245   8.629  1.3268  2.9401  0.8062
35882SOL    HW214252   7.673   5.272   8.532  1.5348 -0.9646 -0.7388
35883SOL     OW14253   2.589  12.646   5.997 -0.4499  0.1574 -0.0229
35883SOL    HW114254   2.637  12.677   6.074  0.0224  0.8914 -0.6001
35883SOL    HW214255   2.649  12.586   5.954 -0.0776  0.9955 -0.6894
35884SOL     OW14256   5.919   2.093  10.146  0.2549  0.1648 -0.3167
35884SOL    HW114257   5.964   2.070  10.227 -1.1866 -0.9880  0.1851
35884SOL    HW214258   5.826   2.080  10.165 -0.0546 -1.4011 -2.5278
35885SOL     OW14259   9.065   9.251  12.016 -0.3245 -0.2223  0.0465
35885SOL    HW114260   9.072   9.287  11.927 -0.8663  0.4192  0.2519
35885SOL    HW214261   8.980   9.283  12.047 -0.8186 -1.6846  0.2523
35886SOL     OW14262   5.292  10.647   4.680  0.0874  0.0326  0.4313
35886SOL    HW114263   5.200  10.665   4.697 -0.4349 -0.2296 -1.8588
35886SOL    HW214264   5.304  10.557   4.711 -0.6572 -0.2478 -0.0768
35887SOL     OW14265   4.566   9.809   7.590  0.1033 -0.3825  0.1741
35887SOL    HW114266   4.516   9.730   7.610 -1.5486  0.1805 -1.4093
35887SOL    HW214267   4.533   9.875   7.651  1.3967 -0.8347  1.4141
35888SOL     OW14268   4.063   5.668   6.817  0.5595  0.3492 -0.2497
35888SOL    HW114269   3.979   5.709   6.797  0.4161  0.3020  0.2278
35888SOL    HW214270   4.064   5.662   6.913  1.5654  1.3329 -0.1813
35889SOL     OW14271   1.684   4.364   5.979 -0.2923 -0.5459  0.6474
35889SOL    HW114272   1.616   4.307   5.942  0.8400 -0.9715 -0.8445
35889SOL    HW214273   1.659   4.374   6.071 -2.6494 -0.2786  0.0430
35890SOL     OW14274   0.516   2.516   7.097 -0.1286 -0.2805  0.4717
35890SOL    HW114275   0.436   2.469   7.075 -0.4689  0.6149 -0.2526
35890SOL    HW214276   0.531   2.575   7.023 -0.0878  1.2285  1.6338
35891SOL     OW14277  12.279  10.223   6.987  0.0808 -0.0057 -0.5935
35891SOL    HW114278  12.296  10.151   7.048  1.5578  0.8885  0.0932
35891SOL    HW214279  12.351  10.219   6.925  0.5453  1.2845 -0.1577
35892SOL     OW14280  12.550   4.506  12.066  0.0287 -0.6961  0.7562
35892SOL    HW114281  12.508   4.590  12.050  0.0841 -0.4002  2.0737
35892SOL    HW214282  12.549   4.462  11.981 -0.5488  0.3817  0.1904
35893SOL     OW14283  10.691   9.001   6.271 -0.4023 -0.1465  0.3247
35893SOL    HW114284  10.660   9.027   6.184 -3.0290 -0.7371  0.9868
35893SOL    HW214285  10.676   8.907   6.275 -0.8360 -0.0507  1.5842
35894SOL     OW14286   1.260   9.252  11.315  0.3492  0.7937 -0.3259
35894SOL    HW114287   1.196   9.320  11.294  0.9870  2.1484  1.8372
35894SOL    HW214288   1.224   9.173  11.275 -1.7456  1.8724 -0.7338
35895SOL     OW14289   6.674   3.574   6.565 -0.3637  0.4742 -0.3252
35895SOL    HW114290   6.581   3.553   6.563 -0.3730  0.5273 -0.4468
35895SOL    HW214291   6.718   3.489   6.568 -0.3768  0.4038 -1.6192
35896SOL     OW14292   6.317   1.923   6.449 -0.2538  0.0636 -0.0406
35896SOL    HW114293   6.291   2.010   6.419  1.6873  0.7443  0.1099
35896SOL    HW214294   6.356   1.938   6.535  2.8471 -0.4510 -1.2414
35897SOL     OW14295  11.272   3.781   0.699  0.4375 -0.5481  0.6175
35897SOL    HW114296  11.340   3.741   0.753  0.5416  0.2797  1.1208
35897SOL    HW214297  11.308   3.867   0.675 -0.5195  0.0188  1.1280
35898SOL     OW14298  11.518  11.028   5.085 -0.1498 -0.0217  0.2369
35898SOL    HW114299  11.427  11.042   5.111 -0.3881 -1.4932  0.2671
35898SOL    HW214300  11.569  11.069   5.155 -0.7793  0.2683  0.5400
35899SOL     OW14301   2.758   0.170   3.873  0.3103 -0.6256  0.2724
35899SOL    HW114302   2.687   0.144   3.932  0.1794  0.3808  0.5860
35899SOL    HW214303   2.835   0.175   3.929 -0.0406  1.4791  0.6652
35900SOL     OW14304   5.280   2.763   9.400  0.4783 -0.2984 -0.8099
35900SOL    HW114305   5.269   2.705   9.325 -0.5046  0.0996 -0.9860
35900SOL    HW214306   5.317   2.707   9.468  3.1294 -0.2808 -2.0872
35901SOL     OW14307   7.098   0.581   7.358 -0.7758  0.2877  1.0141
35901SOL    HW114308   7.073   0.584   7.450 -2.0503 -0.9398  0.7475
35901SOL    HW214309   7.049   0.652   7.317 -1.1286  0.0945  1.0960
35902SOL     OW14310  11.413   3.233   2.151 -0.3639  0.3271  0.5884
35902SOL    HW114311  11.363   3.305   2.188 -1.2483  0.4783 -0.8118
35902SOL    HW214312  11.505   3.259   2.162 -0.6598  2.1285 -0.6897
35903SOL     OW14313   8.935   9.049   3.249 -0.3548  0.2741  0.3263
35903SOL    HW114314   8.906   8.987   3.316 -1.6139 -0.4225 -0.8211
35903SOL    HW214315   8.857   9.099   3.228  0.4645  1.7445  0.6556
35904SOL     OW14316   1.970   8.558  10.847 -0.4115 -0.0648  0.3930
35904SOL    HW114317   1.896   8.618  10.837 -1.1644 -0.9044  0.7676
35904SOL    HW214318   2.034   8.606  10.899 -0.4359  0.8875 -0.4268
35905SOL     OW14319  10.461   2.011   5.735 -0.3155  0.4974  0.1403
35905SOL    HW114320  10.469   1.924   5.775 -2.2309  0.1852 -0.0386
35905SOL    HW214321  10.550   2.046   5.734  0.7509 -2.0154 -1.0730
35906SOL     OW14322   4.348   9.382   6.186  0.0640  0.2111 -0.4301
35906SOL    HW114323   4.435   9.382   6.227 -0.6599  0.7725  1.1924
35906SOL    HW214324   4.358   9.439   6.109  0.6137  2.1312  0.9933
35907SOL     OW14325  10.667   2.319   0.721  0.6471  0.1096  0.3640
35907SOL    HW114326  10.589   2.273   0.751 -1.5471  3.5542  0.5564
35907SOL    HW214327  10.661   2.318   0.626 -0.9985  2.1813  0.3610
35908SOL     OW14328   2.815   9.406   9.681 -0.3562 -0.0573 -0.0515
35908SOL    HW114329   2.852   9.397   9.593  0.0716  1.5437 -0.0688
35908SOL    HW214330   2.780   9.496   9.682 -2.0024 -0.6705  0.8061
35909SOL     OW14331  10.969   7.675   8.960  0.4144 -0.2541  0.6299
35909SOL    HW114332  10.878   7.672   8.930  0.1802  1.1706  1.1086
35909SOL    HW214333  10.998   7.584   8.959 -0.3180 -0.5199 -1.6145
35910SOL     OW14334   3.800   5.148   2.755  0.3063 -0.5991  0.4023
35910SOL    HW114335   3.802   5.237   2.721 -0.4086 -1.5312 -2.3127
35910SOL    HW214336   3.723   5.145   2.811  0.9815  0.7580  1.4544
35911SOL     OW14337  12.462   8.517   5.413  0.3024  0.4469 -0.5088
35911SOL    HW114338  12.489   8.557   5.331 -0.9578 -0.0987 -1.2179
35911SOL    HW214339  12.381   8.563   5.436  0.7407  0.7350  0.5525
35912SOL     OW14340   6.000  12.052   7.327 -1.0975 -0.5471  0.5239
35912SOL    HW114341   6.027  12.016   7.242  1.3703 -1.1860  1.5137
35912SOL    HW214342   6.081  12.081   7.368 -2.4786  1.8219  1.7888
35913SOL     OW14343   1.931   0.406   8.082 -0.3007 -0.7196 -1.3509
35913SOL    HW114344   1.980   0.324   8.069  0.4119 -0.3854 -0.7861
35913SOL    HW214345   1.948   0.430   8.172 -1.4394 -0.5352 -1.1717
35914SOL     OW14346   2.168  10.625  11.400 -0.3970 -0.1536 -0.7214
35914SOL    HW114347   2.213  10.551  11.359 -0.2203 -1.3854  1.5322
35914SOL    HW214348   2.078  10.620  11.367  0.0818 -0.1123 -2.1282
35915SOL     OW14349   6.891   0.980   5.806 -0.4325 -0.5479  0.1507
35915SOL    HW114350   6.943   1.052   5.841 -1.0635  0.2950 -0.5843
35915SOL    HW214351   6.921   0.903   5.853  4.1801 -0.8895 -2.7983
35916SOL     OW14352   9.738   4.490  10.929 -0.0003 -0.5629  0.2710
35916SOL    HW114353   9.732   4.396  10.913 -2.7920 -0.3946 -0.0801
35916SOL    HW214354   9.726   4.530  10.843  3.0137  0.1863  0.0884
35917SOL     OW14355   6.501   4.911  10.067 -0.0038 -0.2150 -0.2705
35917SOL    HW114356   6.554   4.986  10.096 -1.5130  1.1274 -0.7981
35917SOL    HW214357   6.435   4.900  10.135  1.2351 -2.2440  0.6692
35918SOL     OW14358   5.265   5.173   6.160 -0.5797  0.1076 -0.2692
35918SOL    HW114359   5.310   5.216   6.233 -0.9110  0.4916 -0.2882
35918SOL    HW214360   5.241   5.245   6.101 -1.3509 -0.0693 -0.1860
35919SOL     OW14361   0.230   5.067  12.415 -0.6789 -0.3642  0.6037
35919SOL    HW114362   0.278   5.150  12.412 -1.4653  0.0709 -0.6691
35919SOL    HW214363   0.281   5.009  12.358 -0.6672 -0.4677  0.7185
35920SOL     OW14364   8.099   1.417   5.475  0.3219  0.4745 -0.2019
35920SOL    HW114365   8.085   1.344   5.534 -0.6850  0.5724 -0.2876
35920SOL    HW214366   8.096   1.379   5.387 -0.0269  0.5853 -0.2409
35921SOL     OW14367   9.677  11.927  10.694 -0.1151 -0.0477  0.4483
35921SOL    HW114368   9.608  11.938  10.759 -1.0416 -0.0537 -0.5189
35921SOL    HW214369   9.758  11.933  10.744 -0.7744  1.3908  1.3996
35922SOL     OW14370   0.734   6.550   2.771 -0.1013 -0.1420  0.0671
35922SOL    HW114371   0.733   6.477   2.833  1.6174  0.7438  1.2350
35922SOL    HW214372   0.717   6.510   2.686  1.6068 -2.0846  0.5590
35923SOL     OW14373  11.423  11.288  12.078  0.1177  0.3275  0.1507
35923SOL    HW114374  11.496  11.241  12.118  0.4320  0.4397 -0.2917
35923SOL    HW214375  11.411  11.365  12.135 -0.2141 -0.1309  0.7112
35924SOL     OW14376   8.434  10.000   0.864 -0.2336 -0.1359 -0.3158
35924SOL    HW114377   8.421  10.076   0.806 -1.6044 -0.1122 -0.0069
35924SOL    HW214378   8.396  10.027   0.947 -0.1733 -0.9484 -0.0228
35925SOL     OW14379   0.949   8.705   9.323  0.0520  0.3089  0.6201
35925SOL    HW114380   0.861   8.702   9.360  0.2717 -1.7294  1.1180
35925SOL    HW214381   0.989   8.782   9.362 -1.7311  1.7552 -0.2431
35926SOL     OW14382   4.592   9.182   6.611  0.2686  0.0179  0.2333
35926SOL    HW114383   4.586   9.272   6.643 -0.6356  0.2061 -0.4076
35926SOL    HW214384   4.514   9.139   6.647 -0.1801 -0.0556 -0.7821
35927SOL     OW14385   2.510   9.647   5.542  0.2652  0.3194 -0.6519
35927SOL    HW114386   2.457   9.724   5.521  0.3189  0.4785 -0.2187
35927SOL    HW214387   2.479   9.580   5.482 -1.2038  0.0967  0.3026
35928SOL     OW14388   9.735   6.080   2.072 -0.4262  0.2657  0.8571
35928SOL    HW114389   9.695   6.155   2.117 -0.5480  0.4389  0.4646
35928SOL    HW214390   9.664   6.016   2.067 -0.4930  0.3562  0.6577
35929SOL     OW14391   6.248   5.716  12.230 -0.4490  0.3318  0.3707
35929SOL    HW114392   6.288   5.691  12.313  2.3201  0.4869 -0.7866
35929SOL    HW214393   6.177   5.775  12.253 -1.2890 -1.4512  2.7010
35930SOL     OW14394   4.574   7.223   8.441 -0.5599 -0.2328  0.0679
35930SOL    HW114395   4.610   7.216   8.529 -1.1274  0.3304  0.3589
35930SOL    HW214396   4.515   7.299   8.445 -0.0117  0.2764 -0.9946
35931SOL     OW14397   5.448   3.844   1.505 -0.0062  0.2726  0.5482
35931SOL    HW114398   5.357   3.833   1.478  0.1246  1.8609 -0.6641
35931SOL    HW214399   5.499   3.810   1.432  0.3931  0.1423  0.8808
35932SOL     OW14400   0.696   0.778   0.751  0.8247 -0.7629 -0.5121
35932SOL    HW114401   0.722   0.687   0.764  4.7796  0.3223  0.6152
35932SOL    HW214402   0.685   0.786   0.656  2.5917 -1.9878 -0.8680
35933SOL     OW14403   4.115  12.682   6.864  0.3023 -0.5411  0.3953
35933SOL    HW114404   4.099  12.609   6.924 -0.9805  0.3415  1.1755
35933SOL    HW214405   4.047  12.673   6.797  1.2241 -1.0466 -0.5053
35934SOL     OW14406   2.273   2.291   3.543  0.2499 -1.3148 -0.4856
35934SOL    HW114407   2.220   2.366   3.514  1.5592  0.1900  0.7725
35934SOL    HW214408   2.346   2.289   3.482  0.1502 -1.6613 -0.5942
35935SOL     OW14409   9.168  12.074  12.774 -0.5746  0.3071 -0.0493
35935SOL    HW114410   9.223  12.148  12.799 -0.0494 -0.7414  2.2084
35935SOL    HW214411   9.192  12.055  12.683 -0.9210  2.9986 -0.7956
35936SOL     OW14412  11.066   7.959   5.023  0.6630  0.3864 -0.1186
35936SOL    HW114413  11.125   7.883   5.016  1.3668  0.5159  2.8453
35936SOL    HW214414  11.000   7.945   4.956  0.7089 -2.9477  0.3603
35937SOL     OW14415   0.037  12.005   9.766  0.0232  0.0676 -0.0421
35937SOL    HW114416   0.097  11.953   9.820  0.6615  1.3725  0.5466
35937SOL    HW214417  -0.020  11.940   9.724  1.1413 -1.1282  0.2406
35938SOL     OW14418   8.079   2.915   0.223  0.4026  0.2047 -0.1693
35938SOL    HW114419   8.083   2.984   0.156 -0.7814 -0.5025 -0.9991
35938SOL    HW214420   8.084   2.963   0.306 -0.4305  1.3062 -0.7259
35939SOL     OW14421   9.186   8.990   6.412  0.5987 -0.0714 -0.0830
35939SOL    HW114422   9.135   9.010   6.333  0.4427  2.3520  0.5599
35939SOL    HW214423   9.156   8.904   6.439 -2.3748  0.7684 -0.3717
35940SOL     OW14424   4.827   3.005   8.616 -0.0747  0.0728 -0.2250
35940SOL    HW114425   4.908   2.955   8.607 -0.7317 -0.6685 -2.7583
35940SOL    HW214426   4.800   3.023   8.527 -2.1118  1.3243  0.5803
35941SOL     OW14427   3.440   6.464   6.901 -0.5079  0.4618  0.4034
35941SOL    HW114428   3.421   6.452   6.994  1.4783 -0.4760  0.7277
35941SOL    HW214429   3.381   6.535   6.874 -0.6255  1.2482  2.5306
35942SOL     OW14430   0.673   7.490   4.961  0.1530  0.2993  0.8006
35942SOL    HW114431   0.743   7.460   4.904 -0.7162 -2.1423  0.9224
35942SOL    HW214432   0.641   7.411   5.004 -2.3341  1.3938  1.1376
35943SOL     OW14433   2.879   3.842   7.973 -0.3384  0.1281 -0.0998
35943SOL    HW114434   2.813   3.849   8.042 -0.0031  1.2695  0.1340
35943SOL    HW214435   2.921   3.928   7.972  1.9542 -0.9182  0.5454
35944SOL     OW14436   2.654   6.243   2.547  0.4663  0.0482  0.7384
35944SOL    HW114437   2.672   6.336   2.532  0.3796 -0.1715 -1.0089
35944SOL    HW214438   2.735   6.199   2.523  0.3293 -0.3630  1.0328
35945SOL     OW14439   3.505   7.008   2.946  0.1171 -0.2858 -0.5037
35945SOL    HW114440   3.451   7.073   2.990 -0.7250 -2.0601  1.2538
35945SOL    HW214441   3.450   6.973   2.876 -0.0495 -0.2800 -0.3746
35946SOL     OW14442   8.406  10.741  12.038  0.7476 -0.0557  1.4083
35946SOL    HW114443   8.312  10.732  12.057  0.8623 -1.6003  1.4024
35946SOL    HW214444   8.428  10.829  12.068 -1.3623  1.6329 -1.4593
35947SOL     OW14445   5.763   7.160  11.335  0.3588  0.1142  0.1174
35947SOL    HW114446   5.717   7.082  11.305 -0.1663  0.3732  0.2417
35947SOL    HW214447   5.823   7.181  11.263 -0.0799  0.0695 -0.2709
35948SOL     OW14448   4.491   0.568   3.087  0.3204  0.3260 -0.3339
35948SOL    HW114449   4.461   0.478   3.099 -0.7617  0.8769  1.5452
35948SOL    HW214450   4.517   0.573   2.995 -1.4403 -1.3631 -0.9874
35949SOL     OW14451   3.890   4.530   1.410  0.4579 -0.0551  0.1971
35949SOL    HW114452   3.890   4.450   1.358 -1.0030 -0.6151  1.0082
35949SOL    HW214453   3.822   4.516   1.476  0.1326  1.8696  0.3329
35950SOL     OW14454   2.826   0.058  12.049 -0.7337  0.5790 -0.6252
35950SOL    HW114455   2.814  -0.005  12.120 -0.8492  1.9520  0.6119
35950SOL    HW214456   2.920   0.053  12.029 -0.8582 -0.4679 -1.0345
35951SOL     OW14457  10.372  10.913  11.786  0.0091 -0.6775  0.2484
35951SOL    HW114458  10.329  10.831  11.813 -0.7734 -0.2170  0.4461
35951SOL    HW214459  10.374  10.908  11.690  0.7619 -1.3144  0.2872
35952SOL     OW14460  10.488   7.922   7.369 -0.1718  0.2949 -0.5779
35952SOL    HW114461  10.435   7.846   7.345  1.7218 -0.8889 -1.2561
35952SOL    HW214462  10.575   7.886   7.388  0.5986  2.2170 -0.1892
35953SOL     OW14463   7.428  10.861  10.545 -0.3992 -0.0258 -0.3238
35953SOL    HW114464   7.479  10.784  10.570  0.8248  0.8784  0.0646
35953SOL    HW214465   7.355  10.826  10.494  0.2299 -1.4231 -0.3165
35954SOL     OW14466   8.593   1.521   8.067 -0.0332 -0.2434 -0.2601
35954SOL    HW114467   8.619   1.515   8.159 -1.3082  0.8273  0.2016
35954SOL    HW214468   8.590   1.430   8.037 -0.2838 -0.6652  0.9664
35955SOL     OW14469   5.152   2.043   7.022 -0.0038  0.0928 -0.5815
35955SOL    HW114470   5.151   1.954   6.987  1.1197 -0.0365 -0.3199
35955SOL    HW214471   5.210   2.091   6.964 -2.2157  1.2323 -1.9891
35956SOL     OW14472   4.444   0.443   5.307 -0.2572  0.1638 -0.4741
35956SOL    HW114473   4.454   0.417   5.399 -2.2926 -0.3642 -0.3673
35956SOL    HW214474   4.397   0.526   5.311 -0.2876  0.1729 -1.0401
35957SOL     OW14475   1.001   7.777   2.142 -0.2631  0.1406  0.1557
35957SOL    HW114476   0.961   7.735   2.217 -0.5809  2.4988  1.4065
35957SOL    HW214477   0.932   7.832   2.105  0.1467 -0.2860 -1.3520
35958SOL     OW14478   0.316  11.144   6.163  0.4987  0.2599  0.2727
35958SOL    HW114479   0.285  11.221   6.211  0.8663  0.2294  0.5618
35958SOL    HW214480   0.241  11.117   6.110  0.0338  0.2020  0.9452
35959SOL     OW14481   3.472   2.604   6.235  0.2821 -0.4577 -0.7718
35959SOL    HW114482   3.498   2.565   6.151  0.8793 -1.6035 -0.0805
35959SOL    HW214483   3.501   2.540   6.301 -1.0711 -0.0544  0.2485
35960SOL     OW14484   4.720  11.849   3.298  0.2795  0.8003  0.3588
35960SOL    HW114485   4.692  11.911   3.230 -1.1586  1.2647  1.3320
35960SOL    HW214486   4.674  11.768   3.277 -2.9202  1.8467  2.5452
35961SOL     OW14487   1.240   2.478  10.026 -0.2341  0.3556  0.0477
35961SOL    HW114488   1.273   2.388  10.038  0.5685  0.7205  0.7077
35961SOL    HW214489   1.144   2.469  10.029 -0.1575 -0.4243  0.6340
35962SOL     OW14490   9.355   9.855  11.814  0.1158 -0.3194  0.2099
35962SOL    HW114491   9.346   9.937  11.765 -0.8037  1.4843  3.0841
35962SOL    HW214492   9.293   9.795  11.773 -1.1213  1.3075 -0.4047
35963SOL     OW14493   5.455  11.615  12.188  0.1060 -0.1580  0.2753
35963SOL    HW114494   5.493  11.598  12.102 -1.2241  1.5974 -0.7322
35963SOL    HW214495   5.380  11.556  12.194 -0.6940  0.7515 -0.4531
35964SOL     OW14496   8.996   1.022   5.920 -0.3374  0.0867  0.1646
35964SOL    HW114497   9.008   1.080   5.845 -1.0081  0.6945  0.5152
35964SOL    HW214498   9.037   1.067   5.993 -1.6156  0.5621  0.6268
35965SOL     OW14499   7.306   7.634   8.929  0.1754 -0.4948  0.0089
35965SOL    HW114500   7.369   7.683   8.982  0.0685  1.7521 -1.7921
35965SOL    HW214501   7.350   7.621   8.845 -1.1701 -0.2843 -0.7515
35966SOL     OW14502   2.313   5.795   2.442 -0.1936  0.0303 -0.0670
35966SOL    HW114503   2.304   5.826   2.352 -0.1262  1.9654  0.5425
35966SOL    HW214504   2.342   5.872   2.491 -0.8172 -0.8207  1.7264
35967SOL     OW14505   0.692  12.594  10.420  0.1992  0.3155 -0.3049
35967SOL    HW114506   0.684  12.657  10.348  2.3663 -0.0641 -0.9694
35967SOL    HW214507   0.725  12.515  10.378  0.5855 -0.2193  0.9759
35968SOL     OW14508  11.993   9.538   2.069  0.8182 -0.0070 -0.0973
35968SOL    HW114509  12.078   9.581   2.080  1.3630 -0.6595 -1.4368
35968SOL    HW214510  11.936   9.607   2.034  0.8084  0.4093  0.7190
35969SOL     OW14511  11.524  11.363  12.700 -0.6621  0.1780 -0.2355
35969SOL    HW114512  11.428  11.368  12.703 -0.6168  1.6071 -0.5326
35969SOL    HW214513  11.553  11.414  12.776 -0.1285  0.7902 -0.8390
35970SOL     OW14514  12.334   8.754   9.520  0.5525 -0.3704  0.5067
35970SOL    HW114515  12.314   8.754   9.614  0.1842 -0.4087  0.4307
35970SOL    HW214516  12.425   8.726   9.515  0.7604  0.2167  0.8893
35971SOL     OW14517   2.834  12.734   1.151 -0.5422  0.1757 -0.3088
35971SOL    HW114518   2.791  12.756   1.069 -0.7547  0.9155 -0.0134
35971SOL    HW214519   2.844  12.819   1.196  1.3324  0.0556 -0.4266
35972SOL     OW14520   7.359  11.322  11.990 -0.7938  0.6878  0.1805
35972SOL    HW114521   7.301  11.247  12.004 -0.3590  0.4072  0.5081
35972SOL    HW214522   7.300  11.394  11.968 -1.3304  0.5620  1.1538
35973SOL     OW14523   2.493   8.850  12.597 -0.6350  0.4524  0.0417
35973SOL    HW114524   2.473   8.826  12.507  0.2657 -0.1237 -0.0157
35973SOL    HW214525   2.513   8.768  12.641 -2.3224  0.5696  1.1245
35974SOL     OW14526   0.506   4.528   7.868 -0.1687 -0.4908 -0.0548
35974SOL    HW114527   0.557   4.588   7.922  1.0276 -0.1864 -1.4499
35974SOL    HW214528   0.551   4.444   7.878 -0.6000 -0.6923  0.2537
35975SOL     OW14529   0.319   7.881   8.233 -0.2934 -0.8935  0.5086
35975SOL    HW114530   0.301   7.964   8.190  0.2247 -0.8204  0.4265
35975SOL    HW214531   0.261   7.880   8.309 -0.7744 -0.7527  0.1471
35976SOL     OW14532   1.108   5.317  10.752  0.1469  0.1992  0.1421
35976SOL    HW114533   1.034   5.258  10.737  0.0002  1.0231 -3.0008
35976SOL    HW214534   1.175   5.287  10.692  1.3336  1.2157  0.9120
35977SOL     OW14535  10.625  10.586   8.613  0.0203 -0.3857  0.2231
35977SOL    HW114536  10.587  10.586   8.701 -0.8585  1.1567 -0.1268
35977SOL    HW214537  10.554  10.556   8.556  0.1713 -0.0966 -0.1216
35978SOL     OW14538   2.470  10.593   4.489 -0.3663  0.4372 -0.0699
35978SOL    HW114539   2.546  10.603   4.547  0.0076 -1.6568 -0.0975
35978SOL    HW214540   2.407  10.543   4.541 -1.4028  1.4020 -0.3582
35979SOL     OW14541  12.787   6.402   6.988 -0.1277 -0.5007  0.0960
35979SOL    HW114542  12.759   6.401   7.080 -0.7487 -0.9251 -0.0938
35979SOL    HW214543  12.734   6.471   6.948  0.4003 -0.0696  0.1301
35980SOL     OW14544   2.418  11.479   9.589  0.2888  0.9125  0.0285
35980SOL    HW114545   2.353  11.483   9.659  0.6160 -0.0809  0.4044
35980SOL    HW214546   2.370  11.445   9.513 -0.2838  2.8343 -0.5229
35981SOL     OW14547   2.123   0.491   3.079  0.2517 -0.4617  0.4273
35981SOL    HW114548   2.176   0.429   3.130  0.6368 -0.5636 -0.0893
35981SOL    HW214549   2.116   0.568   3.135  2.4957  0.2626 -0.2155
35982SOL     OW14550   7.301   9.954  12.620  0.2482  0.2627 -0.0792
35982SOL    HW114551   7.230  10.009  12.586 -1.4387 -1.8005 -0.0965
35982SOL    HW214552   7.286   9.869  12.580  3.2499 -0.0723 -0.6814
35983SOL     OW14553   9.102   5.720   0.095 -0.3440  0.0172 -0.2351
35983SOL    HW114554   9.184   5.674   0.078 -0.4579  0.6852 -3.0630
35983SOL    HW214555   9.115   5.807   0.057 -1.6128  0.9224  1.2688
35984SOL     OW14556  10.869   7.433  10.473 -0.1111 -0.5972  0.0067
35984SOL    HW114557  10.930   7.498  10.505  0.2351 -1.1857  0.5661
35984SOL    HW214558  10.832   7.471  10.393  0.3871  0.0959  0.1039
35985SOL     OW14559   2.756   6.889   4.151  0.1516 -0.1580 -0.6168
35985SOL    HW114560   2.744   6.980   4.180  2.1668 -0.5521  1.7386
35985SOL    HW214561   2.815   6.897   4.075  2.0333  0.4618  0.8271
35986SOL     OW14562  11.910   9.639   0.602  0.2750  0.0588  0.9887
35986SOL    HW114563  11.990   9.655   0.551 -0.6197 -0.7053 -0.7444
35986SOL    HW214564  11.842   9.626   0.536 -1.1557 -0.0059  2.4167
35987SOL     OW14565   3.937   5.323   6.901 -0.1749 -0.1922 -0.3038
35987SOL    HW114566   3.873   5.313   6.830 -0.7860 -0.4085  0.2732
35987SOL    HW214567   4.001   5.253   6.885  0.2372  0.3602 -1.1942
35988SOL     OW14568   5.264   4.486   8.347 -0.4024  0.0520  0.4012
35988SOL    HW114569   5.357   4.463   8.352  0.4777  2.4091 -2.5630
35988SOL    HW214570   5.254   4.556   8.412 -0.3144 -0.7087  1.2495
35989SOL     OW14571   1.349  11.034   5.163 -0.2904 -0.5514  0.5063
35989SOL    HW114572   1.314  11.029   5.075 -0.5820  1.3101  0.4699
35989SOL    HW214573   1.391  11.120   5.167  0.9197 -1.1545  1.7634
35990SOL     OW14574   1.006  11.927   2.775 -0.0968  0.9109  0.5013
35990SOL    HW114575   1.022  11.952   2.684 -0.8347  1.5165  0.5267
35990SOL    HW214576   1.023  12.006   2.825 -0.9103  0.9314  0.7552
35991SOL     OW14577   3.394   9.434   5.446  0.3076  0.3511 -0.6094
35991SOL    HW114578   3.418   9.477   5.529 -1.1005  1.1686 -0.5872
35991SOL    HW214579   3.366   9.506   5.390  0.2536 -0.3101 -1.4439
35992SOL     OW14580   3.478  10.716  11.248 -0.2526 -0.2408 -0.2504
35992SOL    HW114581   3.400  10.747  11.202  0.9472  0.5830 -1.8294
35992SOL    HW214582   3.445  10.648  11.306 -2.1397  0.0423 -0.8952
35993SOL     OW14583   2.376   4.146   8.036  0.1189  0.1069  0.1881
35993SOL    HW114584   2.331   4.068   8.067  0.0783  0.1136  0.1458
35993SOL    HW214585   2.383   4.203   8.113  1.1976 -0.4282  0.5139
35994SOL     OW14586   9.889  10.074   5.733 -0.0488  0.1555  0.8669
35994SOL    HW114587   9.932  10.030   5.806 -2.8438 -1.1304  1.8583
35994SOL    HW214588   9.841  10.146   5.773 -1.7026 -0.6273  0.3599
35995SOL     OW14589   6.516  10.443  10.292 -0.2541  0.8411 -0.4997
35995SOL    HW114590   6.534  10.386  10.366 -3.0952 -0.7748 -0.9064
35995SOL    HW214591   6.512  10.531  10.329 -2.2886  0.0034  1.4763
35996SOL     OW14592  12.124  11.615   2.462  0.0129 -0.3212  0.0307
35996SOL    HW114593  12.141  11.524   2.437 -0.3336  0.1813 -2.1825
35996SOL    HW214594  12.030  11.620   2.474  0.0821 -0.3411  0.6417
35997SOL     OW14595   6.822   0.281   3.513 -0.2996  0.1142 -0.8045
35997SOL    HW114596   6.903   0.235   3.534 -1.1884 -1.0634  0.1849
35997SOL    HW214597   6.759   0.211   3.495 -2.3316  0.7349  3.0263
35998SOL     OW14598   7.353   2.776   1.295 -0.1621  0.0627 -0.1327
35998SOL    HW114599   7.414   2.704   1.309  1.4408  1.5687  1.0903
35998SOL    HW214600   7.407   2.846   1.257 -1.0320  1.5230  1.2136
35999SOL     OW14601   3.365   4.643   2.372 -0.7827 -0.1412  0.3560
35999SOL    HW114602   3.325   4.713   2.321 -0.4725 -0.4741 -0.3588
35999SOL    HW214603   3.296   4.577   2.380 -0.8302 -0.0908  0.3615
36000SOL     OW14604   6.784   2.220   5.566 -0.4837 -0.2847 -0.3948
36000SOL    HW114605   6.758   2.195   5.655  1.6506  0.5693  0.5513
36000SOL    HW214606   6.727   2.168   5.509 -2.8887  0.1421  1.4196
36001SOL     OW14607   1.089   8.526   5.110 -0.0384  0.0198  0.1097
36001SOL    HW114608   1.007   8.533   5.062  0.2029 -1.5889 -0.6027
36001SOL    HW214609   1.150   8.583   5.062 -0.5653  0.7470  0.2874
36002SOL     OW14610   5.055   5.816   1.838  0.2506 -0.0347 -0.1350
36002SOL    HW114611   5.127   5.880   1.843  0.6275 -0.4265 -0.5049
36002SOL    HW214612   5.051   5.791   1.746 -2.1852  2.0440 -0.7069
36003SOL     OW14613   2.762   1.679   6.412  0.2577 -0.1452  0.4604
36003SOL    HW114614   2.674   1.711   6.435  0.4589 -0.7917  2.3627
36003SOL    HW214615   2.785   1.726   6.332 -0.8974  1.7592  1.1760
36004SOL     OW14616   0.224   4.663   8.380  0.3720 -0.7256  0.8554
36004SOL    HW114617   0.150   4.723   8.381 -0.5625 -1.8216  0.0947
36004SOL    HW214618   0.186   4.578   8.400  1.7505 -1.0067  2.4982
36005SOL     OW14619  11.988   4.846  10.225 -0.2677  0.0477  0.6038
36005SOL    HW114620  11.952   4.827  10.139  1.9337 -0.3458 -0.2907
36005SOL    HW214621  11.919   4.820  10.286 -1.4607 -0.6828 -0.9882
36006SOL     OW14622   4.842   1.719  10.296 -0.1852 -0.6100 -0.1537
36006SOL    HW114623   4.768   1.674  10.254 -0.3512  0.7558 -1.3925
36006SOL    HW214624   4.861   1.793  10.239 -1.7203  2.6196  3.1078
36007SOL     OW14625   1.945   1.985   3.993  0.4288 -0.3005  0.2605
36007SOL    HW114626   1.949   2.079   4.010 -0.0573 -0.4261  1.1402
36007SOL    HW214627   1.952   1.945   4.079 -0.8937 -1.0256  0.0558
36008SOL     OW14628  11.760  10.553   5.974  0.3680  0.5406  0.9287
36008SOL    HW114629  11.797  10.563   6.062  2.8016 -0.1011  0.0430
36008SOL    HW214630  11.816  10.608   5.919 -0.5650  0.2152 -0.3692
36009SOL     OW14631  11.113  10.042   9.498 -0.3673 -0.0466 -0.3227
36009SOL    HW114632  11.058   9.991   9.439  0.6776  0.3335 -1.6825
36009SOL    HW214633  11.203  10.020   9.471  0.1262  0.7929  0.5746
36010SOL     OW14634   7.032   8.560  11.459  0.0455  0.6485  0.0978
36010SOL    HW114635   7.125   8.567  11.481 -0.3469  2.0178  1.4878
36010SOL    HW214636   6.999   8.491  11.516  0.3666 -0.5183 -1.0786
36011SOL     OW14637   4.259   5.350  10.388 -0.1319 -0.0121 -0.6833
36011SOL    HW114638   4.331   5.402  10.353 -0.7472  0.7838 -0.8027
36011SOL    HW214639   4.249   5.277  10.327  0.4544 -0.0287 -0.7578
36012SOL     OW14640   4.934   0.976   5.482  0.5724 -0.5648 -0.1002
36012SOL    HW114641   4.972   1.063   5.496 -0.4210 -0.4414  2.4008
36012SOL    HW214642   4.943   0.961   5.388  1.2183  2.0232 -0.5457
36013SOL     OW14643  11.432   6.836   7.839 -0.1596  0.4527  0.0774
36013SOL    HW114644  11.413   6.850   7.746 -0.5346 -1.1466 -0.1161
36013SOL    HW214645  11.411   6.744   7.854  0.4025  0.5507  1.6319
36014SOL     OW14646  10.387   2.459   7.765 -0.3733 -0.6240  0.2480
36014SOL    HW114647  10.466   2.513   7.768 -1.0053  0.2843  1.8075
36014SOL    HW214648  10.346   2.479   7.681  0.4901 -0.2965 -0.1032
36015SOL     OW14649   5.702   0.490   3.485 -0.2979  0.2590 -0.4006
36015SOL    HW114650   5.687   0.430   3.558  0.5680  0.9794  0.4029
36015SOL    HW214651   5.695   0.436   3.407 -0.1134 -0.7641  0.2717
36016SOL     OW14652  12.755   7.032   9.238 -0.2200  0.0744 -0.0950
36016SOL    HW114653  12.746   7.113   9.287 -0.1749  0.5639 -0.8837
36016SOL    HW214654  12.761   6.964   9.306 -2.1385  0.5048  0.5876
36017SOL     OW14655   7.328   1.441   2.528 -0.0278  0.5505 -0.3496
36017SOL    HW114656   7.411   1.442   2.576 -0.7824  1.1923  0.9579
36017SOL    HW214657   7.275   1.510   2.567 -1.8667 -1.0109  0.0583
36018SOL     OW14658   2.257   7.165   6.590 -0.0551  0.2672  0.2675
36018SOL    HW114659   2.225   7.254   6.577  0.1377  0.6581  2.1509
36018SOL    HW214660   2.177   7.111   6.592 -0.1453  0.3048 -1.2981
36019SOL     OW14661   7.342   8.828   6.051 -0.3813 -0.1311  0.0215
36019SOL    HW114662   7.352   8.852   5.959  1.5068 -1.3648 -0.1572
36019SOL    HW214663   7.312   8.737   6.049 -1.0228  0.0517  0.6436
36020SOL     OW14664   7.789   3.886   1.676 -0.3475 -0.3800  0.2285
36020SOL    HW114665   7.705   3.869   1.718  0.5553 -2.0829  1.4394
36020SOL    HW214666   7.812   3.976   1.702  0.5761 -1.5948  4.2704
36021SOL     OW14667   9.314   9.467   6.443 -0.0163 -0.5253  0.4045
36021SOL    HW114668   9.334   9.442   6.353 -3.1590  0.7182 -0.7699
36021SOL    HW214669   9.249   9.402   6.471 -0.9113  0.5400  0.8427
36022SOL     OW14670   9.623  11.917  11.145  0.7110  0.2551  0.1211
36022SOL    HW114671   9.668  11.843  11.104 -1.7832 -2.2362  1.5931
36022SOL    HW214672   9.594  11.970  11.071  1.5610 -0.8386 -1.0471
36023SOL     OW14673   7.199  11.094  12.005 -0.2265  0.3861 -0.2790
36023SOL    HW114674   7.262  11.027  12.033 -0.9668 -0.6791 -1.0607
36023SOL    HW214675   7.184  11.074  11.912 -0.3936  1.7175 -0.5572
36024SOL     OW14676   1.448   8.673   5.507  0.1724 -0.1374  0.4722
36024SOL    HW114677   1.499   8.702   5.431  0.1838 -1.1451  0.0749
36024SOL    HW214678   1.504   8.609   5.551  0.1527  0.4215  1.3341
36025SOL     OW14679  11.285  11.330  11.198  0.3748 -0.4023 -0.1812
36025SOL    HW114680  11.302  11.250  11.148 -0.4830 -0.9396  0.3666
36025SOL    HW214681  11.210  11.308  11.254 -0.1591  0.9142 -0.3366
36026SOL     OW14682   1.312   0.766   8.515  0.1368 -0.0248 -0.3802
36026SOL    HW114683   1.367   0.717   8.454  0.5950  0.2241 -0.1705
36026SOL    HW214684   1.325   0.722   8.599 -1.2993 -1.0247 -0.6393
36027SOL     OW14685   5.696  10.418   0.111  0.0988  0.0589  0.4643
36027SOL    HW114686   5.657  10.408   0.198  0.0760  0.2037  0.4701
36027SOL    HW214687   5.741  10.335   0.095 -0.3376 -0.1707  0.3974
36028SOL     OW14688  11.611   9.716   2.174 -0.0516  0.2042  0.1544
36028SOL    HW114689  11.653   9.695   2.258 -0.0377  0.7512  0.2894
36028SOL    HW214690  11.586   9.632   2.138  0.9086 -0.1080  0.2102
36029SOL     OW14691   7.848  12.604   3.812  0.4294 -0.2321 -0.3067
36029SOL    HW114692   7.913  12.559   3.865 -0.4367 -1.4737 -0.2459
36029SOL    HW214693   7.893  12.682   3.779  1.7208 -0.7103  0.2653
36030SOL     OW14694   4.548  12.554   8.026 -0.3205  0.0243  0.2247
36030SOL    HW114695   4.486  12.483   8.045 -0.4484  0.7633  2.9817
36030SOL    HW214696   4.622  12.536   8.083  0.8581  0.6329 -1.0726
36031SOL     OW14697   5.085   7.349   7.927  0.3219 -0.1804 -0.6317
36031SOL    HW114698   5.076   7.362   7.833  1.5192 -0.1557 -0.7561
36031SOL    HW214699   5.096   7.438   7.962  1.2179 -0.2847 -0.6326
36032SOL     OW14700   6.655   7.252   3.710 -0.0797  0.0193  0.2252
36032SOL    HW114701   6.681   7.343   3.726 -1.2766  0.1139  2.0053
36032SOL    HW214702   6.567   7.246   3.747  0.5093 -2.2016  1.4627
36033SOL     OW14703   3.010   7.235   4.900 -0.0495 -0.3606  0.5319
36033SOL    HW114704   2.933   7.286   4.925 -0.6126 -1.5681  1.3285
36033SOL    HW214705   3.036   7.188   4.979  0.7208 -0.9836 -0.0644
36034SOL     OW14706   4.673  11.424   8.234 -0.0197  0.2983 -0.3721
36034SOL    HW114707   4.660  11.447   8.142  0.2006  0.2620 -0.4144
36034SOL    HW214708   4.747  11.363   8.233  1.3765  1.8999  0.0143
36035SOL     OW14709   3.729   8.190   9.110  0.0214 -0.0863 -0.1843
36035SOL    HW114710   3.726   8.111   9.056 -1.3384 -0.2141  0.0363
36035SOL    HW214711   3.732   8.262   9.046 -0.0440 -0.2791 -0.4077
36036SOL     OW14712   9.182   0.284   8.309  0.4211 -0.3306  0.3726
36036SOL    HW114713   9.095   0.277   8.271 -0.8643  0.6208  2.9272
36036SOL    HW214714   9.205   0.376   8.300  0.2871 -0.1848  1.4668
36037SOL     OW14715   9.221  12.212   6.036  0.4217 -0.0954  0.2864
36037SOL    HW114716   9.266  12.152   6.095 -0.3925 -0.6113  0.3886
36037SOL    HW214717   9.204  12.161   5.957 -1.1703 -0.3386  0.7473
36038SOL     OW14718  10.974   3.338  11.813 -0.4736 -0.2292 -0.0869
36038SOL    HW114719  10.916   3.315  11.886 -0.5920 -0.3520 -0.2195
36038SOL    HW214720  10.914   3.353  11.739 -0.4413  0.9192  0.0964
36039SOL     OW14721  11.902  11.592   9.568  0.6325  0.0090  0.2687
36039SOL    HW114722  11.889  11.528   9.638  0.5649 -0.8484 -0.5083
36039SOL    HW214723  11.996  11.591   9.551  0.6058 -0.0181  0.1254
36040SOL     OW14724   0.995   2.480   6.233 -1.0378  0.2254 -0.0581
36040SOL    HW114725   1.009   2.498   6.326  3.1324 -0.7446 -0.2926
36040SOL    HW214726   0.937   2.404   6.232  1.4599 -1.9183  2.0481
36041SOL     OW14727   0.438   4.165   7.116 -0.3653 -0.2556 -0.2810
36041SOL    HW114728   0.509   4.104   7.137 -0.8954 -1.3628 -1.5749
36041SOL    HW214729   0.483   4.240   7.076  0.3541  0.5710  1.8882
36042SOL     OW14730   1.464   5.833  12.291 -0.1691 -0.1223  0.1789
36042SOL    HW114731   1.430   5.744  12.297  2.8163 -1.2942  2.1387
36042SOL    HW214732   1.532   5.828  12.224 -0.5694  0.9461 -0.3290
36043SOL     OW14733   7.683   2.346   4.977  0.2967  0.3514  0.3146
36043SOL    HW114734   7.616   2.342   5.045 -0.1302 -0.4991 -0.1454
36043SOL    HW214735   7.643   2.307   4.900  0.3069  2.4858 -0.8706
36044SOL     OW14736   4.710   7.284   5.675  0.2138 -0.4219  0.8513
36044SOL    HW114737   4.735   7.360   5.728  0.1166 -0.4221  0.8967
36044SOL    HW214738   4.641   7.316   5.617  0.9310 -0.1873  0.1041
36045SOL     OW14739  11.393   6.853   8.098  0.1925 -0.7495 -0.4252
36045SOL    HW114740  11.380   6.945   8.120 -2.2855 -0.6052 -2.0072
36045SOL    HW214741  11.402   6.853   8.003  0.1383 -2.1373 -0.4442
36046SOL     OW14742   3.805   3.217   0.061 -0.3007 -0.3292 -0.1853
36046SOL    HW114743   3.711   3.205   0.049 -0.1603 -2.1443  0.2441
36046SOL    HW214744   3.843   3.197  -0.024 -0.2762  0.3699 -0.3494
36047SOL     OW14745   6.138   4.109   9.538  0.1055  0.4208  0.1192
36047SOL    HW114746   6.175   4.177   9.595 -2.0090  0.7391  1.1876
36047SOL    HW214747   6.215   4.071   9.494  1.8815  0.0484  3.2552
36048SOL     OW14748   1.520   5.383   4.984  0.1251 -0.7728 -0.2773
36048SOL    HW114749   1.591   5.334   5.027 -0.5778 -1.7331 -0.1746
36048SOL    HW214750   1.447   5.321   4.981 -0.9483  0.4276  0.2523
36049SOL     OW14751   3.129   7.191   8.956 -0.4266 -0.5361  0.1132
36049SOL    HW114752   3.197   7.166   9.019  0.0377  1.0103  0.2602
36049SOL    HW214753   3.116   7.113   8.903  1.3617 -0.9237  0.1930
36050SOL     OW14754  11.415   8.305   0.842 -0.5975  0.2843 -0.6818
36050SOL    HW114755  11.454   8.299   0.755  0.6570  1.1650 -0.2044
36050SOL    HW214756  11.419   8.398   0.864 -1.4221  0.1539  0.0910
36051SOL     OW14757  12.281   3.985   0.933  0.3813  0.0803 -0.2598
36051SOL    HW114758  12.267   4.060   0.875 -2.1105 -0.6445 -0.6884
36051SOL    HW214759  12.326   3.921   0.878  2.3291  1.0928  0.0469
36052SOL     OW14760  10.195   2.093  11.741 -0.1207 -0.6676 -0.2853
36052SOL    HW114761  10.173   2.176  11.698 -1.1055 -1.1584 -0.7640
36052SOL    HW214762  10.111   2.058  11.770  0.3145 -1.3758  0.1479
36053SOL     OW14763   4.351   6.468   5.961  0.3587  0.5986 -0.9247
36053SOL    HW114764   4.329   6.375   5.971 -0.9063  0.9735  0.1061
36053SOL    HW214765   4.269   6.508   5.931  1.0622  1.2998 -1.9602
36054SOL     OW14766   9.370   5.479   0.774  0.8308 -0.2049  0.4162
36054SOL    HW114767   9.311   5.530   0.718  0.0856 -0.6827  0.7452
36054SOL    HW214768   9.371   5.392   0.733 -0.0858 -0.6933  1.3757
36055SOL     OW14769   5.793   9.641  12.115 -0.7474  0.3099 -0.0363
36055SOL    HW114770   5.847   9.591  12.177 -1.4429 -1.9547 -1.1367
36055SOL    HW214771   5.804   9.732  12.142  0.5772 -0.4006  2.1292
36056SOL     OW14772  12.607   4.197   7.848  0.2342  0.2450  0.2211
36056SOL    HW114773  12.689   4.241   7.869  0.0240  0.8937 -0.2680
36056SOL    HW214774  12.540   4.265   7.859 -0.1370 -0.0441 -0.2301
36057SOL     OW14775   4.283   4.741   1.948 -0.1542 -0.2823  0.1269
36057SOL    HW114776   4.277   4.837   1.952  2.8422 -0.0023 -0.0277
36057SOL    HW214777   4.289   4.714   2.039 -1.0095 -0.3600  0.1710
36058SOL     OW14778   7.940   7.516   4.917  0.7933 -0.4462 -0.1286
36058SOL    HW114779   8.024   7.479   4.890  0.6299  1.0607 -3.1466
36058SOL    HW214780   7.876   7.449   4.893  0.9987 -1.4347  1.8301
36059SOL     OW14781   4.289   8.862   8.872 -0.7496 -0.1012  0.0890
36059SOL    HW114782   4.332   8.778   8.888 -2.5350 -0.7250  2.1740
36059SOL    HW214783   4.340   8.903   8.802  1.2107 -2.1474  0.2210
36060SOL     OW14784   0.008   0.551  11.285  0.2004  0.4761 -0.3447
36060SOL    HW114785   0.036   0.525  11.197  0.6113 -2.1906  0.4766
36060SOL    HW214786  -0.016   0.643  11.276  0.6592  0.4243 -3.1330
36061SOL     OW14787   8.385   9.227   4.264 -0.4354 -0.5592  0.2726
36061SOL    HW114788   8.440   9.149   4.265  1.7749  0.9147  1.3521
36061SOL    HW214789   8.383   9.255   4.173  2.2277  0.3816  0.4415
36062SOL     OW14790   1.186   1.872  10.442 -0.6573 -0.2597  0.0728
36062SOL    HW114791   1.166   1.833  10.357 -1.0507 -1.5376  0.7198
36062SOL    HW214792   1.279   1.854  10.455 -0.3497  0.8128 -0.5004
36063SOL     OW14793   3.885   5.665   2.398  0.4778 -0.2342 -0.1446
36063SOL    HW114794   3.946   5.732   2.431  1.2710 -0.2589 -1.5105
36063SOL    HW214795   3.804   5.682   2.447  1.4123  0.0980  1.3728
36064SOL     OW14796   2.502   4.103   3.961  0.6892 -0.0113 -0.2159
36064SOL    HW114797   2.427   4.065   3.916  1.9480 -0.4354 -2.1199
36064SOL    HW214798   2.578   4.063   3.918  2.0148  0.2766  1.7296
36065SOL     OW14799   8.384   8.399  11.763  0.0609 -0.2581  0.3439
36065SOL    HW114800   8.300   8.400  11.717  0.9332 -0.1703 -1.2848
36065SOL    HW214801   8.447   8.366  11.699  1.4655  0.6645  1.1944
36066SOL     OW14802  11.273   3.574   0.478 -0.3985  0.2051  0.2405
36066SOL    HW114803  11.254   3.645   0.539 -0.1950 -1.5160  2.4447
36066SOL    HW214804  11.243   3.495   0.523 -1.6844 -1.0606 -2.5870
36067SOL     OW14805   8.952   8.658   0.163 -0.1469  0.4012 -0.5050
36067SOL    HW114806   8.979   8.621   0.079 -1.3836 -2.8264  0.3766
36067SOL    HW214807   8.869   8.702   0.144 -1.0891 -1.4329 -0.8112
36068SOL     OW14808   5.866   0.921   8.553  0.1957  0.0230 -0.0921
36068SOL    HW114809   5.777   0.948   8.578  0.8522  0.1115  2.4611
36068SOL    HW214810   5.853   0.851   8.489 -1.6245  2.2875 -2.4400
36069SOL     OW14811   9.149  10.563   0.229  0.8353  0.0786 -0.3606
36069SOL    HW114812   9.130  10.491   0.289  0.7708  0.5959  0.2575
36069SOL    HW214813   9.173  10.636   0.287 -1.0080  1.1271 -0.8486
36070SOL     OW14814   5.919   9.560   5.715  0.2433  0.0396  0.4847
36070SOL    HW114815   5.984   9.629   5.709 -0.1596  0.3158 -1.1766
36070SOL    HW214816   5.969   9.479   5.719  0.7542  0.1629 -1.9129
36071SOL     OW14817   8.191  11.995   3.048 -0.5417  0.0922 -0.0770
36071SOL    HW114818   8.196  12.058   2.976  0.6826  1.6119  1.2531
36071SOL    HW214819   8.281  11.989   3.081 -1.4438  1.9218  3.2677
36072SOL     OW14820   1.241   2.647  12.758 -0.5461 -0.3119  0.3625
36072SOL    HW114821   1.156   2.692  12.758  0.0272  0.8069  1.6762
36072SOL    HW214822   1.288   2.682  12.833  1.3392 -0.4731 -0.6797
36073SOL     OW14823   8.012  10.722  12.562  0.0156  0.0763  0.2091
36073SOL    HW114824   8.066  10.728  12.483 -0.8369 -0.2931 -0.4152
36073SOL    HW214825   8.035  10.800  12.612  1.1292 -0.0727 -0.0318
36074SOL     OW14826  10.962   4.049   2.495 -0.1516  0.0532 -0.1250
36074SOL    HW114827  10.958   4.139   2.463  1.6001  0.2045  0.0106
36074SOL    HW214828  10.897   4.046   2.566 -0.3973  1.1313 -0.2856
36075SOL     OW14829   2.809   1.370   4.800  0.6616 -0.0115  0.0128
36075SOL    HW114830   2.822   1.463   4.817  0.7881 -0.0378  0.0586
36075SOL    HW214831   2.796   1.365   4.705  0.6037  0.0584  0.0171
36076SOL     OW14832  11.078  12.465   4.594  0.0757 -0.0011  0.4671
36076SOL    HW114833  11.141  12.416   4.647 -1.0564 -1.5398  0.4555
36076SOL    HW214834  11.104  12.556   4.605  1.9128 -0.5356  0.9576
36077SOL     OW14835   1.682   8.779   8.017 -0.0225  0.1851 -0.2963
36077SOL    HW114836   1.682   8.874   8.005 -1.3614  0.1145 -1.0663
36077SOL    HW214837   1.611   8.762   8.078  2.2286 -0.1065  2.4542
36078SOL     OW14838   2.676   2.674   9.874 -0.8724  0.2586 -0.5119
36078SOL    HW114839   2.697   2.625   9.954 -3.0087  1.4861  0.9346
36078SOL    HW214840   2.731   2.752   9.879 -3.0074  1.8091  1.4777
36079SOL     OW14841  11.030  10.011   1.276  0.1851  0.1103 -0.4095
36079SOL    HW114842  11.089  10.017   1.350  0.8586  0.8522 -0.9860
36079SOL    HW214843  11.071   9.948   1.217 -0.3886 -0.5396 -0.1121
36080SOL     OW14844   3.155   5.889   6.609  0.3231  0.2941  0.1576
36080SOL    HW114845   3.133   5.960   6.669  1.0548  1.4059 -0.8433
36080SOL    HW214846   3.091   5.896   6.539  0.7191  0.3074 -0.2084
36081SOL     OW14847   1.752   7.894   0.941  0.3583  0.2658  0.3282
36081SOL    HW114848   1.842   7.891   0.974  0.9409  0.0400 -1.1852
36081SOL    HW214849   1.761   7.878   0.847 -1.2245  0.7758  0.0677
36082SOL     OW14850  12.178   4.100  10.454 -0.1395 -0.3346  0.2653
36082SOL    HW114851  12.107   4.117  10.516 -0.0663  1.8506 -0.1849
36082SOL    HW214852  12.258   4.119  10.503 -0.0228  0.1850 -0.1188
36083SOL     OW14853   3.275   9.581   3.736 -0.5111  0.5287 -0.0578
36083SOL    HW114854   3.265   9.504   3.793 -1.7102 -0.0194 -0.9641
36083SOL    HW214855   3.191   9.626   3.742 -0.9934 -0.0073 -2.0181
36084SOL     OW14856   6.000  10.376   4.534 -0.2391  0.1210  0.0940
36084SOL    HW114857   6.030  10.456   4.491  1.6721 -0.2933  0.5556
36084SOL    HW214858   5.986  10.401   4.625 -1.0442  0.2309 -0.0486
36085SOL     OW14859   8.593  10.082   2.771 -0.1869 -0.1726  0.0688
36085SOL    HW114860   8.554  10.055   2.854 -1.6315  0.1549 -0.4742
36085SOL    HW214861   8.610  10.175   2.782  0.5601 -0.3372  0.3420
36086SOL     OW14862   6.592  12.448  12.773  0.2381 -0.1763 -0.2706
36086SOL    HW114863   6.578  12.521  12.833  1.3652 -0.3642  0.2300
36086SOL    HW214864   6.592  12.489  12.686  0.4628  0.3694 -0.0187
36087SOL     OW14865  11.586   3.552   0.205 -0.4740  0.0047  0.2756
36087SOL    HW114866  11.634   3.473   0.230 -2.6841 -0.5811  3.2234
36087SOL    HW214867  11.542   3.528   0.123  1.6885 -0.4607 -0.8334
36088SOL     OW14868   2.323   6.708   1.099  0.5023  0.1252 -0.1456
36088SOL    HW114869   2.306   6.790   1.054 -1.1847 -0.3276 -0.4150
36088SOL    HW214870   2.328   6.731   1.192  1.2471  0.6828 -0.3203
36089SOL     OW14871  10.511   3.056   9.788  0.0124 -0.2591  0.2711
36089SOL    HW114872  10.526   3.058   9.882 -0.5749  1.5614  0.3803
36089SOL    HW214873  10.423   3.019   9.778 -1.4196  2.6966  0.7728
36090SOL     OW14874   1.490   6.165   3.779  0.0823 -0.2063  0.6033
36090SOL    HW114875   1.470   6.144   3.871  1.3939 -1.8445  0.5510
36090SOL    HW214876   1.490   6.080   3.734  0.1474  0.5033 -0.7811
36091SOL     OW14877   7.849   0.531  12.017 -0.8767  0.3801 -0.3850
36091SOL    HW114878   7.927   0.575  12.052 -1.2330  0.9002 -0.2504
36091SOL    HW214879   7.776   0.589  12.039 -1.3921 -0.4262  0.0779
36092SOL     OW14880   2.199   5.879  12.508 -0.2668  0.1849 -0.4477
36092SOL    HW114881   2.202   5.884  12.604 -1.1866 -1.4794 -0.2926
36092SOL    HW214882   2.288   5.854  12.484  0.0546  0.9166 -0.0734
36093SOL     OW14883   0.508  12.602   3.954 -0.7852  0.2064 -0.4613
36093SOL    HW114884   0.444  12.567   3.892  0.9415 -2.9931 -0.6521
36093SOL    HW214885   0.500  12.697   3.945 -4.2273 -0.0452 -1.7004
36094SOL     OW14886   6.029  11.017   0.494  0.4027  0.0661  0.2570
36094SOL    HW114887   6.050  11.051   0.407 -2.1589  1.7947  0.1983
36094SOL    HW214888   5.941  10.979   0.484 -0.2100  0.8780  2.2025
36095SOL     OW14889   2.447   1.914   0.197  0.2640  0.2040 -0.1159
36095SOL    HW114890   2.384   1.899   0.127  1.1458  1.2289 -1.1638
36095SOL    HW214891   2.395   1.951   0.269 -0.1034  3.0509 -1.6843
36096SOL     OW14892   7.989  10.876   9.353  0.3904  0.9780  0.3488
36096SOL    HW114893   8.032  10.946   9.402  0.7522  1.1633 -0.2284
36096SOL    HW214894   7.968  10.810   9.419  3.3413 -0.0456  0.4049
36097SOL     OW14895   7.982   8.990   8.955 -0.1497 -0.4739  0.4753
36097SOL    HW114896   7.912   9.034   8.907  0.0784 -1.7111 -1.0967
36097SOL    HW214897   7.972   9.020   9.045 -0.0880  2.6251 -0.4264
36098SOL     OW14898   2.460  10.637   9.279  0.6705  0.3493  1.2777
36098SOL    HW114899   2.432  10.713   9.228 -1.3153 -0.9505  0.3313
36098SOL    HW214900   2.480  10.570   9.214 -2.4257 -1.5315  2.0755
36099SOL     OW14901   3.809   3.167  11.688  0.3374 -0.0642  0.3777
36099SOL    HW114902   3.791   3.226  11.761  0.7042  0.3787  0.1090
36099SOL    HW214903   3.768   3.208  11.612 -1.5264 -1.3434  0.6154
36100SOL     OW14904   5.149  11.459   9.187 -0.0309  0.4496 -0.4322
36100SOL    HW114905   5.168  11.550   9.211 -1.7271  0.7982 -0.2898
36100SOL    HW214906   5.234  11.416   9.190  0.7819  1.9682 -0.2455
36101SOL     OW14907   2.622   0.867   6.201 -0.2352  0.4747  0.1455
36101SOL    HW114908   2.697   0.895   6.149  0.9301 -0.2660  1.3394
36101SOL    HW214909   2.569   0.813   6.142  1.5422 -1.1404 -0.0756
36102SOL     OW14910   5.320  10.664  10.170  0.1973  0.4960  0.5262
36102SOL    HW114911   5.391  10.728  10.168 -1.5391  2.5131 -0.6795
36102SOL    HW214912   5.362  10.581  10.148  1.8699  1.9958 -2.5532
36103SOL     OW14913  11.857   0.551   7.978 -0.2040 -0.3278 -0.2014
36103SOL    HW114914  11.808   0.630   7.955 -0.8164 -0.5780  0.2108
36103SOL    HW214915  11.791   0.492   8.015  0.0791 -1.3649 -1.2769
36104SOL     OW14916  12.396   2.682   3.574  0.4739  0.0565 -0.3939
36104SOL    HW114917  12.438   2.696   3.490  0.7289  0.7771 -0.1595
36104SOL    HW214918  12.302   2.687   3.556  0.3771 -3.0579 -1.1822
36105SOL     OW14919  12.776   6.216   1.742  0.5958 -0.3048 -0.2719
36105SOL    HW114920  12.819   6.167   1.673  2.8081  1.7713 -0.5013
36105SOL    HW214921  12.847   6.255   1.792 -1.0023  0.5256  1.4694
36106SOL     OW14922  12.143   4.423  12.202  0.5698 -0.4386  0.6418
36106SOL    HW114923  12.157   4.512  12.171  1.6138 -0.8719 -0.2098
36106SOL    HW214924  12.089   4.382  12.134 -0.1399 -0.3888  1.1649
36107SOL     OW14925   2.570   9.322   2.123 -0.4702  0.3583 -0.6593
36107SOL    HW114926   2.496   9.274   2.160 -1.1212  1.4138 -0.5660
36107SOL    HW214927   2.562   9.411   2.159  1.0965  0.3896 -0.2861
36108SOL     OW14928   7.981   6.739   3.009  0.0176 -0.0296 -0.2061
36108SOL    HW114929   7.908   6.692   2.968  0.5589  0.1699 -1.4206
36108SOL    HW214930   7.974   6.829   2.975 -0.3333  0.5126  1.2158
36109SOL     OW14931   0.258   3.587  11.356 -0.2311 -0.3781 -0.4704
36109SOL    HW114932   0.248   3.594  11.261 -2.2298  0.8648 -0.2276
36109SOL    HW214933   0.327   3.650  11.378 -0.6165  0.2362 -0.9916
36110SOL     OW14934   1.970   1.613  12.189 -0.1959 -0.1549  0.4873
36110SOL    HW114935   1.962   1.704  12.159 -0.0636 -0.6814 -1.2611
36110SOL    HW214936   2.062   1.605  12.214 -0.5043  0.5363  1.9159
36111SOL     OW14937   6.219  10.241   4.455  0.7045  0.1489 -0.0790
36111SOL    HW114938   6.222  10.243   4.359  0.5984 -2.4086 -0.1918
36111SOL    HW214939   6.130  10.268   4.477 -0.3462 -2.3293 -0.9359
36112SOL     OW14940   5.211   2.368  11.113 -0.1694  0.8086  0.4416
36112SOL    HW114941   5.194   2.301  11.179 -0.6785 -0.2465 -0.7076
36112SOL    HW214942   5.298   2.346  11.079  0.3609  1.7226  1.1716
36113SOL     OW14943   4.885   6.401   7.294 -0.1840 -0.2111 -0.4664
36113SOL    HW114944   4.892   6.306   7.295 -0.1919 -0.2086 -0.1360
36113SOL    HW214945   4.795   6.418   7.266 -0.8335 -0.3411  1.4081
36114SOL     OW14946   6.809   7.014   2.077  0.1056 -0.2876 -0.7207
36114SOL    HW114947   6.886   7.020   2.021  0.8047  0.5623  0.2867
36114SOL    HW214948   6.747   7.077   2.040  0.6313  0.3982 -0.4576
36115SOL     OW14949   9.530   8.949   4.827  0.2079  0.8968  0.2328
36115SOL    HW114950   9.482   8.943   4.909  1.0272 -0.0019  0.6653
36115SOL    HW214951   9.528   8.861   4.791  0.9141  1.0034 -0.0899
36116SOL     OW14952   8.963   8.306   1.755 -0.2497  0.0741 -0.3052
36116SOL    HW114953   8.961   8.362   1.678  0.0773  0.9845  0.3359
36116SOL    HW214954   8.871   8.299   1.782 -0.2899  0.3002 -0.3824
36117SOL     OW14955   7.761   1.664  11.154 -0.3358 -0.1820  0.5015
36117SOL    HW114956   7.832   1.613  11.193 -0.8536 -0.2405  1.4163
36117SOL    HW214957   7.732   1.611  11.079  0.0446 -0.5548  0.6118
36118SOL     OW14958   6.139  12.738   0.646 -0.5610  0.3290  0.2104
36118SOL    HW114959   6.128  12.765   0.737 -0.4186  0.6487  0.1358
36118SOL    HW214960   6.228  12.764   0.624 -0.5229  0.0592  0.0439
36119SOL     OW14961   1.246   2.905  12.046  0.0327  0.2845 -0.2872
36119SOL    HW114962   1.249   2.846  12.121  2.6934 -0.1162 -0.6067
36119SOL    HW214963   1.287   2.986  12.077 -0.1378  0.6166 -0.9085
36120SOL     OW14964   2.624   3.106   1.802  0.0748 -0.6066 -0.0340
36120SOL    HW114965   2.591   3.057   1.878  2.1566 -1.7915  0.1744
36120SOL    HW214966   2.693   3.161   1.837 -0.4357  0.5007 -0.7327
36121SOL     OW14967   8.916   9.285   0.415 -0.2113 -0.0882 -0.2705
36121SOL    HW114968   8.991   9.313   0.362 -0.4585  1.5507  0.2010
36121SOL    HW214969   8.840   9.319   0.369 -0.5954 -0.7721 -0.1505
36122SOL     OW14970   3.799  10.617  12.261 -0.6143  0.6809  0.1038
36122SOL    HW114971   3.873  10.673  12.283 -1.5684  1.7040  0.8273
36122SOL    HW214972   3.782  10.635  12.168  0.2630  0.1326 -0.1826
36123SOL     OW14973   0.923  11.188  10.093  0.2366  0.4305 -0.0997
36123SOL    HW114974   0.860  11.234  10.037 -1.4672  0.7096  1.9234
36123SOL    HW214975   0.999  11.175  10.037 -1.2425  0.9329 -2.3801
36124SOL     OW14976   0.217   8.642  11.502  0.1698  0.1827  0.6838
36124SOL    HW114977   0.187   8.551  11.505 -0.8586  0.5264  1.5681
36124SOL    HW214978   0.160   8.685  11.438  0.7610  0.1750  0.1459
36125SOL     OW14979   3.880   2.668   6.198 -0.6658  0.0643  0.2862
36125SOL    HW114980   3.822   2.726   6.247  0.0907  1.5602 -0.5154
36125SOL    HW214981   3.968   2.698   6.221 -0.2250  2.2114 -3.3990
36126SOL     OW14982  11.891   2.181   0.529  0.1433  0.1717 -0.7552
36126SOL    HW114983  11.955   2.155   0.463  1.0763 -0.3963  0.3468
36126SOL    HW214984  11.821   2.116   0.521  0.6316 -0.3714 -0.6448
36127SOL     OW14985  10.880  10.227   4.714  0.0539  0.7411  0.4991
36127SOL    HW114986  10.927  10.308   4.737 -0.4753  0.9369  0.9212
36127SOL    HW214987  10.842  10.197   4.797 -0.1749  0.3342  0.2494
36128SOL     OW14988   6.113   7.739   1.579 -0.0155 -0.0591 -0.1931
36128SOL    HW114989   6.074   7.711   1.662  0.7751 -1.6579 -0.3240
36128SOL    HW214990   6.130   7.658   1.532  0.2641  0.7827 -1.6108
36129SOL     OW14991  12.609   5.820   0.292 -0.2758  0.3833 -0.0104
36129SOL    HW114992  12.659   5.740   0.303 -0.2061  0.5618  1.0994
36129SOL    HW214993  12.642   5.858   0.211 -0.0445 -0.5098 -0.3511
36130SOL     OW14994   2.740  12.227   8.322  0.2058 -0.6712  0.4545
36130SOL    HW114995   2.672  12.285   8.355  0.3533 -0.2831  0.0864
36130SOL    HW214996   2.803  12.220   8.394  0.1031 -0.5103  0.5594
36131SOL     OW14997   1.275   1.885   6.669  0.4299  0.1080  0.1236
36131SOL    HW114998   1.267   1.907   6.576  0.7962 -0.6353 -0.0955
36131SOL    HW214999   1.263   1.790   6.671  0.4913  0.1150  0.8329
36132SOL     OW15000   5.059   5.375   3.244  0.3834 -0.3004 -0.3324
36132SOL    HW115001   5.125   5.308   3.260  0.7520 -0.3924 -2.0257
36132SOL    HW215002   5.105   5.443   3.195 -0.5282  0.1208 -0.6271
36133SOL     OW15003   6.850   6.183   0.590  0.1532 -0.1451  0.1234
36133SOL    HW115004   6.941   6.203   0.565  1.2388 -0.5712  3.2128
36133SOL    HW215005   6.825   6.257   0.646 -1.9061  0.5478 -1.6094
36134SOL     OW15006  10.326   5.474  12.403  0.1655 -0.3085 -0.5428
36134SOL    HW115007  10.366   5.402  12.354  1.8302 -0.1392  0.4825
36134SOL    HW215008  10.316   5.440  12.492  1.5468  0.8685  0.1093
36135SOL     OW15009   8.230   9.915   6.332 -0.0396 -0.0807  0.3434
36135SOL    HW115010   8.236   9.935   6.238  0.0984  1.0691  0.5801
36135SOL    HW215011   8.321   9.907   6.360 -0.0682  0.0396  0.4704
36136SOL     OW15012  10.789  11.667   4.233  0.0872 -0.1429 -0.0962
36136SOL    HW115013  10.809  11.610   4.159 -0.6261  1.3644 -1.4959
36136SOL    HW215014  10.695  11.685   4.226 -0.1362 -0.4588  1.5592
36137SOL     OW15015   4.310   5.738   1.951 -0.0687 -0.4564  0.0547
36137SOL    HW115016   4.321   5.811   2.012 -2.6120 -0.0389  0.1226
36137SOL    HW215017   4.347   5.769   1.869  0.8643  0.0332  0.6386
36138SOL     OW15018   0.578   1.660   3.815 -0.4944 -0.3365  0.0489
36138SOL    HW115019   0.576   1.705   3.900 -0.7981 -1.8922  0.9007
36138SOL    HW215020   0.591   1.730   3.751 -2.4722  1.1664  1.1658
36139SOL     OW15021  11.592   4.644   0.933 -0.2541  0.0572 -0.1016
36139SOL    HW115022  11.674   4.671   0.892 -0.2044  0.0418 -0.0124
36139SOL    HW215023  11.553   4.581   0.872  0.7949 -1.5293  0.8056
36140SOL     OW15024  10.821   9.572   4.584  0.1822 -0.0310 -0.1963
36140SOL    HW115025  10.824   9.636   4.513 -0.4182  0.1146 -0.0938
36140SOL    HW215026  10.728   9.562   4.603  0.1238 -2.2898 -1.4288
36141SOL     OW15027   9.637   6.382   0.462  0.5301 -1.0964  0.2039
36141SOL    HW115028   9.546   6.360   0.443  0.4020 -1.3408  1.0729
36141SOL    HW215029   9.661   6.444   0.393 -0.1122 -1.4708 -0.3641
36142SOL     OW15030   5.512   9.001   9.273  0.1476 -0.5476  0.1562
36142SOL    HW115031   5.509   9.062   9.347  1.0187 -0.3604  0.0503
36142SOL    HW215032   5.518   8.914   9.313 -1.7566 -0.6472  0.3192
36143SOL     OW15033   2.254  10.203  11.501  0.1127 -0.3004  0.0388
36143SOL    HW115034   2.263  10.242  11.588 -0.8459 -0.1190  0.0668
36143SOL    HW215035   2.320  10.133  11.500 -0.4083 -0.8384  1.2168
36144SOL     OW15036   8.411   4.166   3.967  0.0261 -0.2499  0.7833
36144SOL    HW115037   8.439   4.253   3.940 -0.9382  0.0673  0.7934
36144SOL    HW215038   8.486   4.110   3.947  0.4895  0.5008  0.3667
36145SOL     OW15039  12.540   6.344   8.261  0.1032 -0.3268 -0.1364
36145SOL    HW115040  12.536   6.302   8.175  1.6066 -0.8804  0.0443
36145SOL    HW215041  12.475   6.296   8.314  0.5776 -1.2990 -0.4139
36146SOL     OW15042  12.700   9.448   8.705 -0.1908  0.3708 -0.3122
36146SOL    HW115043  12.683   9.367   8.657 -0.2372  0.4335 -0.4025
36146SOL    HW215044  12.625   9.456   8.765 -0.5723  0.7405 -0.8346
36147SOL     OW15045  10.972   2.440   7.058  0.5810 -0.0271  0.1450
36147SOL    HW115046  10.904   2.454   6.992 -0.0716 -0.6053  0.6809
36147SOL    HW215047  11.055   2.448   7.010  0.1651  1.5393 -0.3472
36148SOL     OW15048   6.715   3.016  10.278  0.3096 -0.3016 -0.2626
36148SOL    HW115049   6.693   3.108  10.292  1.1671  0.1660 -1.7879
36148SOL    HW215050   6.681   2.972  10.355 -1.6009  1.0509 -0.2570
36149SOL     OW15051   8.436   1.934   5.222  0.0019  0.3802  0.6351
36149SOL    HW115052   8.364   1.990   5.194 -1.0001 -1.1145  0.1251
36149SOL    HW215053   8.490   1.923   5.143  0.7863  1.4390  0.9982
36150SOL     OW15054   2.901   6.907  10.999  0.9227  0.1709 -0.2462
36150SOL    HW115055   2.890   7.001  10.987 -0.3337  0.4402  2.4043
36150SOL    HW215056   2.814   6.870  10.982  0.6915 -0.1332  1.4578
36151SOL     OW15057  10.345   4.217   4.133  0.8054  0.0436 -0.0348
36151SOL    HW115058  10.362   4.235   4.225 -0.6659  0.7812  0.1178
36151SOL    HW215059  10.310   4.298   4.098 -0.5469 -0.8052 -0.7403
36152SOL     OW15060   3.216  10.473   1.305  0.1901 -0.1049  0.5054
36152SOL    HW115061   3.228  10.559   1.264 -0.5242  0.3128  1.1465
36152SOL    HW215062   3.273  10.415   1.255 -1.3194  0.1852 -1.7153
36153SOL     OW15063   2.212   2.189   8.919 -0.1028 -0.3268  0.2618
36153SOL    HW115064   2.217   2.265   8.978  0.7378  1.3335 -1.8106
36153SOL    HW215065   2.298   2.186   8.876 -1.5368  0.4221 -2.9878
36154SOL     OW15066  10.347  12.317   5.652 -0.4223  0.0583 -0.6664
36154SOL    HW115067  10.283  12.356   5.592  1.0636  3.1339 -0.4711
36154SOL    HW215068  10.308  12.326   5.738 -0.8948 -0.7569 -0.7802
36155SOL     OW15069   5.775  12.496  11.264 -0.1815 -0.2820  0.3091
36155SOL    HW115070   5.724  12.562  11.310 -0.3468  0.7916 -1.3438
36155SOL    HW215071   5.710  12.432  11.235 -0.1071 -0.8232  1.2697
36156SOL     OW15072  11.677   7.625   6.167  0.5084  0.3069  0.2668
36156SOL    HW115073  11.698   7.650   6.257 -0.4722 -1.6399  1.0927
36156SOL    HW215074  11.590   7.662   6.152 -0.7929 -2.0651  1.3683
36157SOL     OW15075   3.099  10.001  12.008  0.3552  0.4415  0.3555
36157SOL    HW115076   3.187  10.039  12.006 -0.2305  1.8849  1.0624
36157SOL    HW215077   3.094   9.947  11.928  2.1797 -0.4115  0.7682
36158SOL     OW15078   6.194   1.085   3.005 -0.5658 -0.7619 -0.0408
36158SOL    HW115079   6.156   1.061   3.090 -1.5103  1.6091  0.2901
36158SOL    HW215080   6.120   1.086   2.945 -0.7378  1.6735  0.0996
36159SOL     OW15081   5.584   9.037   7.999 -0.1322  0.4582  0.4095
36159SOL    HW115082   5.665   9.087   7.988 -0.4290  1.0432  0.8508
36159SOL    HW215083   5.521   9.080   7.940 -0.0464 -0.1685 -0.1436
36160SOL     OW15084   7.532   1.098   6.789 -0.0460 -0.5321 -1.0504
36160SOL    HW115085   7.552   1.172   6.731  1.3959  0.0149  0.0802
36160SOL    HW215086   7.600   1.034   6.770 -0.0823 -0.7130 -0.5741
36161SOL     OW15087   0.585   2.433   2.806  0.3069 -0.1297 -0.4762
36161SOL    HW115088   0.582   2.340   2.826  1.9234 -0.2816 -0.8346
36161SOL    HW215089   0.496   2.455   2.780 -0.6427 -1.0733  1.6975
36162SOL     OW15090   4.130   1.349   7.622  0.1774  0.1886 -0.0737
36162SOL    HW115091   4.097   1.322   7.537 -0.3075  1.3981 -0.2882
36162SOL    HW215092   4.152   1.442   7.612  1.0831  0.0974  0.8345
36163SOL     OW15093  10.758   4.759  12.472  0.0048 -0.6716 -0.2353
36163SOL    HW115094  10.716   4.709  12.402 -0.0415 -2.0939  0.7666
36163SOL    HW215095  10.710   4.842  12.475  0.8842  0.0288 -2.7879
36164SOL     OW15096   8.853  10.668   0.777  0.1758  0.3807  0.0442
36164SOL    HW115097   8.820  10.724   0.847  0.9460  2.4287 -1.1098
36164SOL    HW215098   8.949  10.675   0.784  0.2719  1.0812 -1.4760
36165SOL     OW15099   6.424   2.952   4.504  0.1984  0.3307 -0.1580
36165SOL    HW115100   6.329   2.940   4.501  0.1052  0.3320  1.5819
36165SOL    HW215101   6.438   3.013   4.577  1.6222 -0.8574  0.6130
36166SOL     OW15102   6.682   7.329   6.114  0.2632  0.4793 -0.2784
36166SOL    HW115103   6.652   7.374   6.035  2.2697 -1.1842 -2.0917
36166SOL    HW215104   6.602   7.293   6.153 -0.5125 -2.2925 -3.9293
36167SOL     OW15105   5.698   4.580   3.381 -0.2602  0.5013 -0.5632
36167SOL    HW115106   5.773   4.534   3.420 -1.5475  0.4378  2.0046
36167SOL    HW215107   5.622   4.527   3.406 -1.4982  2.4120 -0.1270
36168SOL     OW15108   3.660   8.644   6.253 -0.5346 -0.2798  0.0405
36168SOL    HW115109   3.615   8.728   6.246  0.1715  0.0442 -0.8361
36168SOL    HW215110   3.718   8.642   6.177  0.0543 -1.2022  0.5016
36169SOL     OW15111   6.389   9.645   4.590 -0.5223  0.0244  1.0852
36169SOL    HW115112   6.308   9.686   4.620 -1.3319  0.2847 -1.2705
36169SOL    HW215113   6.364   9.556   4.567 -0.8697  0.8608 -2.2164
36170SOL     OW15114   3.993  10.124   9.058 -0.0044 -0.1592  0.0047
36170SOL    HW115115   4.070  10.181   9.050 -0.1411 -0.0164 -0.3622
36170SOL    HW215116   3.943  10.141   8.977 -0.5852 -0.0050  0.3877
36171SOL     OW15117   1.128   8.526   9.667  0.7397 -0.9700 -0.4607
36171SOL    HW115118   1.100   8.449   9.717 -1.4357 -0.0304 -0.1038
36171SOL    HW215119   1.095   8.600   9.718 -0.4936  0.0763 -2.6389
36172SOL     OW15120   6.537  11.473  11.324  0.6734 -0.5043 -0.4414
36172SOL    HW115121   6.505  11.434  11.242 -2.3541  1.3041 -0.2634
36172SOL    HW215122   6.589  11.404  11.364 -2.3454 -3.5855 -1.2905
36173SOL     OW15123   0.178   4.238   7.296  0.4672 -0.2474  0.3609
36173SOL    HW115124   0.239   4.312   7.305 -2.1489  2.1452 -0.0988
36173SOL    HW215125   0.193   4.185   7.374  1.1303  1.8383  1.7551
36174SOL     OW15126   4.477   4.407  11.703  0.1988  0.3817 -0.2225
36174SOL    HW115127   4.408   4.459  11.745  1.4411  1.5009  0.5311
36174SOL    HW215128   4.430   4.342  11.652 -1.4245  1.5118 -0.2613
36175SOL     OW15129   5.999   2.760   4.742 -0.0605  0.2409  0.1649
36175SOL    HW115130   6.073   2.821   4.741 -0.8357  1.3437 -3.2116
36175SOL    HW215131   5.923   2.813   4.764 -0.5615  0.3333 -1.6162
36176SOL     OW15132  10.814   9.827   8.910 -0.5488  0.4276 -0.2453
36176SOL    HW115133  10.874   9.784   8.849 -0.2407  0.5487 -0.0323
36176SOL    HW215134  10.745   9.863   8.855 -0.0020  0.9797 -0.5693
36177SOL     OW15135   4.688   8.417   9.988 -0.0843  0.4361 -0.1586
36177SOL    HW115136   4.642   8.371  10.057 -0.3620  0.1652 -0.5168
36177SOL    HW215137   4.696   8.507  10.019 -0.4312  0.3717  0.1140
36178SOL     OW15138   7.292   3.162   3.907 -0.3686  0.4210 -0.5345
36178SOL    HW115139   7.249   3.245   3.887 -0.4814  0.4788 -0.0727
36178SOL    HW215140   7.381   3.171   3.874 -0.1182  1.0571  0.2725
36179SOL     OW15141   4.906   6.800   4.850  0.1335  0.2742  0.0228
36179SOL    HW115142   4.946   6.867   4.905  1.5169 -0.7258  0.2740
36179SOL    HW215143   4.819   6.786   4.889  0.1566  1.3122  0.4686
36180SOL     OW15144   6.933   4.937   2.759 -0.0353 -0.1553 -1.0435
36180SOL    HW115145   7.004   4.896   2.808 -0.3184  2.4488  1.9038
36180SOL    HW215146   6.857   4.930   2.817 -0.5880  2.4986 -1.3160
36181SOL     OW15147   1.347  10.114  11.660  0.1913 -0.1686 -0.1898
36181SOL    HW115148   1.376  10.139  11.572 -0.2637  1.4088  0.0876
36181SOL    HW215149   1.428  10.110  11.711  0.5532 -1.8719 -0.8280
36182SOL     OW15150   3.212   2.974  11.196 -0.3855  0.6317 -0.0064
36182SOL    HW115151   3.171   3.041  11.250 -1.8755  0.9608 -1.4566
36182SOL    HW215152   3.241   3.020  11.118  0.4696 -0.0732 -0.1221
36183SOL     OW15153   8.462   1.278  10.275  0.4377 -0.1060 -0.7476
36183SOL    HW115154   8.500   1.191  10.268 -0.1028 -0.4737  0.6113
36183SOL    HW215155   8.373   1.263  10.305  0.0238  0.8785 -1.4274
36184SOL     OW15156   5.182  10.569   6.204  0.6866 -0.4706 -0.5857
36184SOL    HW115157   5.239  10.645   6.196 -0.6030  0.5589 -0.2610
36184SOL    HW215158   5.184  10.546   6.297  1.2409 -0.9906 -0.7156
36185SOL     OW15159   3.918   1.246  10.485 -0.3552  0.3873 -0.1311
36185SOL    HW115160   3.847   1.198  10.444 -0.0788 -0.6596  0.5671
36185SOL    HW215161   3.875   1.302  10.551 -0.6045  0.4666 -0.3625
36186SOL     OW15162   5.224   3.047   1.665  0.0734 -0.2562  0.3137
36186SOL    HW115163   5.304   3.071   1.711  0.6769 -0.6044 -0.5282
36186SOL    HW215164   5.208   3.121   1.606  0.3900 -0.6766 -0.3018
36187SOL     OW15165   2.972  10.920   0.386  0.2559 -0.2834 -0.0272
36187SOL    HW115166   2.977  10.969   0.468 -0.3162  1.3080 -0.8883
36187SOL    HW215167   3.048  10.950   0.335 -0.5765  0.4151 -0.9087
36188SOL     OW15168   3.441   3.623   9.556  0.4309  0.6897  0.7285
36188SOL    HW115169   3.395   3.675   9.622  1.9483  0.5912  1.9340
36188SOL    HW215170   3.467   3.543   9.603  1.4832  0.5866 -0.0104
36189SOL     OW15171  10.045   6.659   0.031  0.2048  0.0335 -0.0799
36189SOL    HW115172  10.005   6.611  -0.042  1.4317 -2.4258  0.7677
36189SOL    HW215173  10.073   6.742  -0.009  0.0425 -0.8499 -2.1856
36190SOL     OW15174  12.371   9.974   7.079  0.7371 -0.3820 -0.0622
36190SOL    HW115175  12.380   9.931   6.994  2.1334 -0.2568 -0.0020
36190SOL    HW215176  12.317   9.914   7.131 -0.2761 -0.3885 -1.0591
36191SOL     OW15177  10.926   2.001   8.458  0.2926  0.4608 -0.3369
36191SOL    HW115178  10.844   1.999   8.508  0.8915  0.5101  0.6655
36191SOL    HW215179  10.980   2.066   8.503  0.8333  0.5519 -1.0948
36192SOL     OW15180   2.191  11.990  10.144 -0.7213  0.2834 -0.6380
36192SOL    HW115181   2.242  11.912  10.166 -1.1301  0.1954  0.0406
36192SOL    HW215182   2.256  12.059  10.130 -0.4245  0.2263  0.4209
36193SOL     OW15183   7.050   7.776   7.733  0.5337 -0.1935 -0.0877
36193SOL    HW115184   6.971   7.761   7.680  1.1513 -2.4942 -0.4516
36193SOL    HW215185   7.030   7.855   7.783 -1.3579  0.2038 -1.3531
36194SOL     OW15186   5.043  11.460   8.311 -0.1509 -0.5356 -0.1048
36194SOL    HW115187   5.028  11.503   8.227  0.0461 -0.3480 -0.0443
36194SOL    HW215188   4.989  11.381   8.308 -0.2504 -0.4568 -0.3515
36195SOL     OW15189   5.534   2.525   2.789 -0.0258 -0.0047  0.5687
36195SOL    HW115190   5.505   2.613   2.813 -1.2188  0.4406 -2.1822
36195SOL    HW215191   5.465   2.468   2.824  0.4319  0.1572  1.8085
36196SOL     OW15192   4.812   5.084   0.911 -0.8332  0.5490  0.8875
36196SOL    HW115193   4.821   5.165   0.962 -0.7188  1.6873 -0.8816
36196SOL    HW215194   4.726   5.092   0.869 -1.2121 -0.6851  1.3738
36197SOL     OW15195  11.940   4.532  10.231  0.7870 -0.2436  0.2366
36197SOL    HW115196  11.958   4.480  10.309  0.3586  1.1938  1.3210
36197SOL    HW215197  12.010   4.597  10.229 -0.5970  1.3127  0.8648
36198SOL     OW15198  12.079   6.971   1.544  0.7071 -0.1577  0.1385
36198SOL    HW115199  12.112   6.953   1.456  0.2408 -1.1076  0.1446
36198SOL    HW215200  12.149   6.940   1.602  0.0708 -1.7017  0.1382
36199SOL     OW15201  12.631   0.097   0.921 -0.1899 -0.3647 -0.1083
36199SOL    HW115202  12.638   0.099   0.825  0.0003 -1.9151 -0.1637
36199SOL    HW215203  12.543   0.130   0.940  0.0392  0.6453 -0.7651
36200SOL     OW15204   2.075   7.830   2.969 -0.8209 -0.3652  0.1479
36200SOL    HW115205   2.002   7.802   3.025 -0.1720 -1.7492  0.3577
36200SOL    HW215206   2.152   7.822   3.026 -0.0096 -2.7574 -1.1268
36201SOL     OW15207   2.893   6.695   2.123 -0.0665 -0.0234 -0.4421
36201SOL    HW115208   2.931   6.676   2.037 -1.4923 -1.2748 -0.8255
36201SOL    HW215209   2.812   6.742   2.103 -0.3895 -0.2932  0.2254
36202SOL     OW15210  11.294   1.793   1.462 -0.0690 -0.2639  0.0793
36202SOL    HW115211  11.234   1.862   1.436 -0.8843  0.3449  3.1009
36202SOL    HW215212  11.245   1.712   1.446 -1.5169  0.1960  1.8335
36203SOL     OW15213  12.280   7.689   0.479 -0.3113  0.3051 -0.0334
36203SOL    HW115214  12.293   7.755   0.547 -0.6204 -0.5247  0.8602
36203SOL    HW215215  12.237   7.736   0.407 -0.0976  1.1665  0.3923
36204SOL     OW15216   3.521   7.692   5.395  0.1915 -0.1412  0.4297
36204SOL    HW115217   3.461   7.759   5.364  0.5861  0.3925  0.8121
36204SOL    HW215218   3.573   7.668   5.319 -0.2919 -0.3875  0.1700
36205SOL     OW15219   0.065   7.802   0.942  0.6345  0.3432 -0.0382
36205SOL    HW115220  -0.004   7.856   0.904  0.8514  0.9869  0.4740
36205SOL    HW215221   0.140   7.813   0.884  0.2964 -0.4075 -0.6317
36206SOL     OW15222  12.089   9.789   7.183 -0.7457 -0.1168  0.5297
36206SOL    HW115223  12.038   9.709   7.170 -1.7691  0.6090 -0.0794
36206SOL    HW215224  12.140   9.797   7.102 -2.0208  0.7958 -0.2149
36207SOL     OW15225   7.403   2.708   1.642  0.0531  0.1901  0.4654
36207SOL    HW115226   7.472   2.774   1.643  1.2774 -0.9156 -2.1250
36207SOL    HW215227   7.450   2.624   1.648 -1.1766 -0.5498  0.1085
36208SOL     OW15228   4.990   1.187  11.647  0.6799 -0.2564  0.7806
36208SOL    HW115229   5.038   1.222  11.722 -1.6319  1.1320  1.7284
36208SOL    HW215230   4.932   1.121  11.684 -0.1684  0.1197  0.1505
36209SOL     OW15231  10.346   7.646   8.483 -0.7128  0.0424 -0.4287
36209SOL    HW115232  10.326   7.568   8.534  0.2211  0.0875  0.0310
36209SOL    HW215233  10.381   7.613   8.401 -0.6201 -0.0291 -0.3606
36210SOL     OW15234   0.787  10.136   6.186 -0.3725  0.6562 -0.7077
36210SOL    HW115235   0.860  10.105   6.133 -0.3928 -0.5243 -0.0856
36210SOL    HW215236   0.822  10.137   6.275 -1.0735  0.1688 -0.4187
36211SOL     OW15237   4.158   8.704   4.743  0.2218  0.2977  0.4402
36211SOL    HW115238   4.246   8.742   4.733  0.7477 -0.5540  1.6347
36211SOL    HW215239   4.100   8.769   4.704  1.3211  1.1766  0.1998
36212SOL     OW15240  12.555   4.725   7.194 -0.4812 -0.1713 -0.5237
36212SOL    HW115241  12.482   4.783   7.216 -1.5519 -2.2847  2.0951
36212SOL    HW215242  12.514   4.640   7.176  1.2518 -1.2211  0.2214
36213SOL     OW15243   8.501   1.289   6.884 -0.3730 -0.0499  0.2006
36213SOL    HW115244   8.570   1.254   6.940 -0.6942 -1.9581 -0.5189
36213SOL    HW215245   8.425   1.299   6.941  0.2280  1.2643  0.8097
36214SOL     OW15246   5.503   6.819   1.733  0.4138  0.6197 -0.2462
36214SOL    HW115247   5.542   6.827   1.820 -0.3179 -0.2396  0.1802
36214SOL    HW215248   5.577   6.828   1.673  1.4750 -1.7092  0.5620
36215SOL     OW15249   3.447   4.734  11.593  0.5049  0.1512  0.1457
36215SOL    HW115250   3.484   4.671  11.532  1.4006  2.1428 -1.4983
36215SOL    HW215251   3.362   4.697  11.618  0.1087 -0.7769 -2.3219
36216SOL     OW15252   9.226   0.163  10.156 -0.5676  0.4559 -0.4774
36216SOL    HW115253   9.193   0.090  10.208 -0.0016 -0.1857 -0.9959
36216SOL    HW215254   9.151   0.189  10.101 -0.1236 -1.3352 -2.0303
36217SOL     OW15255   9.249   4.505   6.010 -0.3233 -0.1694  0.0953
36217SOL    HW115256   9.335   4.539   5.985  0.2495 -0.5250  1.5381
36217SOL    HW215257   9.246   4.417   5.972  0.6798 -0.8372  1.4968
36218SOL     OW15258   0.350  12.509   5.754 -0.6846  0.5640  0.0905
36218SOL    HW115259   0.274  12.505   5.695 -0.7105  0.7012  0.1146
36218SOL    HW215260   0.363  12.418   5.781 -2.5590  0.8395  2.2469
36219SOL     OW15261  10.311   3.226   2.381 -0.0789  0.1583 -0.5644
36219SOL    HW115262  10.361   3.167   2.437 -0.9896  0.4827  0.6330
36219SOL    HW215263  10.267   3.169   2.318 -0.2528 -0.3664  0.0225
36220SOL     OW15264   3.611   3.165   9.930 -0.0565 -0.5576  0.3545
36220SOL    HW115265   3.687   3.164   9.873 -0.0290  0.2624  0.3562
36220SOL    HW215266   3.575   3.077   9.925  0.9577 -0.9816  0.4485
36221SOL     OW15267   3.124   2.075   9.752 -0.7195  0.7693 -0.3706
36221SOL    HW115268   3.050   2.072   9.813 -0.8143  0.2889 -0.5048
36221SOL    HW215269   3.178   2.147   9.783 -1.1214  0.9718 -0.1273
36222SOL     OW15270   8.386   7.933  10.246 -0.1733 -0.0845  0.7116
36222SOL    HW115271   8.442   7.941  10.169  0.1333 -2.2492  0.6442
36222SOL    HW215272   8.387   8.020  10.286 -1.4075  1.5081 -2.4018
36223SOL     OW15273   8.294   4.227   0.798 -0.7512  0.5727  0.1286
36223SOL    HW115274   8.299   4.319   0.824  0.7274  0.4528  0.3462
36223SOL    HW215275   8.374   4.188   0.832 -1.0792 -0.6774 -0.4696
36224SOL     OW15276   0.682   2.951   0.392 -0.1566  0.0738 -0.3081
36224SOL    HW115277   0.604   2.977   0.343  0.9855  1.6413 -1.4250
36224SOL    HW215278   0.649   2.913   0.473 -2.0745 -0.0757 -1.1132
36225SOL     OW15279   3.591   2.723   7.566 -0.0996  0.4556 -0.3384
36225SOL    HW115280   3.527   2.789   7.539 -0.9387 -0.7697 -1.4288
36225SOL    HW215281   3.560   2.642   7.526  1.4657 -0.4094  0.1467
36226SOL     OW15282   6.485   5.936   4.083 -0.7077 -0.5326  0.3000
36226SOL    HW115283   6.476   5.995   4.158  1.3550  1.4097 -0.8613
36226SOL    HW215284   6.544   5.867   4.113  0.1264  0.2468  0.5061
36227SOL     OW15285   6.684  10.076   5.966 -0.0514  0.2567  0.5856
36227SOL    HW115286   6.754  10.014   5.988  0.1798  0.1160 -0.4713
36227SOL    HW215287   6.667  10.060   5.873 -0.2926  1.4737  0.4051
36228SOL     OW15288  10.435   9.384   3.833 -0.5644 -0.1910  0.3881
36228SOL    HW115289  10.527   9.364   3.818 -0.9806 -1.3842 -0.8259
36228SOL    HW215290  10.416   9.347   3.919  0.5409  1.8176  1.5524
36229SOL     OW15291   7.989  10.380   9.465  0.1503  0.1113 -0.4679
36229SOL    HW115292   7.912  10.426   9.498  0.7057  0.2588  0.6773
36229SOL    HW215293   7.954  10.315   9.404 -0.7769  0.9289 -0.8310
36230SOL     OW15294  12.286   0.272   3.390  0.4431 -0.3245 -0.1048
36230SOL    HW115295  12.277   0.196   3.447  0.8201 -1.9940 -2.1466
36230SOL    HW215296  12.370   0.311   3.416  0.9260 -1.4336  0.0684
36231SOL     OW15297  10.383   8.975   1.879  0.0816 -0.1958  0.2059
36231SOL    HW115298  10.393   8.926   1.798  0.1941  0.2976 -0.0835
36231SOL    HW215299  10.289   8.990   1.887  0.2165  1.5624 -0.9421
36232SOL     OW15300  10.721   4.302   9.881  0.1771  0.1436  0.1545
36232SOL    HW115301  10.651   4.237   9.879 -0.4699  0.8230  0.1346
36232SOL    HW215302  10.798   4.256   9.846 -0.8303  0.0289 -2.0522
36233SOL     OW15303  11.644  10.660   7.307  0.3288 -0.2961  0.4123
36233SOL    HW115304  11.574  10.704   7.356  0.4101 -0.5258  0.7364
36233SOL    HW215305  11.639  10.569   7.335  1.1520 -0.1993  0.9005
36234SOL     OW15306   2.617   9.103   8.864  0.5011 -0.7197 -0.3036
36234SOL    HW115307   2.594   9.043   8.935  0.6176 -1.3592 -0.8031
36234SOL    HW215308   2.688   9.157   8.899  1.1250 -1.5872 -0.2117
36235SOL     OW15309  10.766   7.981   0.982  0.2289  0.6680 -0.6853
36235SOL    HW115310  10.809   7.945   1.060 -0.5692  3.5675  1.2781
36235SOL    HW215311  10.834   7.980   0.915  1.7990  0.4694  0.8231
36236SOL     OW15312   1.912  10.403   2.584  0.3717  0.0331 -0.0566
36236SOL    HW115313   1.970  10.469   2.623  0.3341 -0.1264  0.2782
36236SOL    HW215314   1.965  10.323   2.582 -0.3264 -0.5278  1.7284
36237SOL     OW15315   2.169   8.887  11.347  0.0814 -0.5678  0.2609
36237SOL    HW115316   2.098   8.823  11.351  1.3446 -2.3366 -2.6266
36237SOL    HW215317   2.143   8.949  11.278  0.3978  0.0168  0.6543
36238SOL     OW15318   3.531   2.718  11.211  0.4707  0.5362 -0.2392
36238SOL    HW115319   3.615   2.751  11.245  0.5203  0.0606  0.1046
36238SOL    HW215320   3.489   2.677  11.286 -0.1091  0.8295 -0.3941
36239SOL     OW15321   0.334   4.884  11.271  0.1686  0.0898 -0.6762
36239SOL    HW115322   0.338   4.837  11.354  0.7925 -1.8337 -1.7278
36239SOL    HW215323   0.248   4.926  11.271  0.4253  0.6966  1.2026
36240SOL     OW15324   4.011   8.041   4.120 -0.1284  0.7251 -0.0152
36240SOL    HW115325   4.011   7.992   4.037 -2.9825  0.3149  0.0933
36240SOL    HW215326   4.007   8.133   4.093  0.7617  0.6817 -0.3044
36241SOL     OW15327   9.412   1.777   3.721 -0.3812 -0.1122 -0.1145
36241SOL    HW115328   9.445   1.816   3.802 -1.9478 -1.9257  1.5044
36241SOL    HW215329   9.323   1.811   3.712 -1.1900 -1.8985  0.4624
36242SOL     OW15330   6.555   9.775   1.496 -0.0320 -0.1610 -0.7401
36242SOL    HW115331   6.562   9.746   1.587 -2.7698  0.0531 -0.3859
36242SOL    HW215332   6.464   9.803   1.486 -0.5299 -2.4161 -4.1996
36243SOL     OW15333  10.680   8.273   0.617 -0.4329 -0.4505 -0.2673
36243SOL    HW115334  10.771   8.256   0.643 -1.0527 -1.6381  1.2973
36243SOL    HW215335  10.642   8.187   0.602 -2.2409 -0.3217  2.7042
36244SOL     OW15336   9.070  10.049   8.960  0.0094  0.3607 -0.3577
36244SOL    HW115337   9.116   9.968   8.940 -0.4191 -0.2694  1.0632
36244SOL    HW215338   9.136  10.106   8.999 -0.1933 -0.2311  0.8982
36245SOL     OW15339   4.624   0.726   9.723 -0.4468  0.3041  0.3850
36245SOL    HW115340   4.655   0.636   9.735 -1.1332 -0.0123 -0.1720
36245SOL    HW215341   4.618   0.761   9.812  1.0146  0.2225  0.5487
36246SOL     OW15342   6.283   7.834  11.745 -0.2025  0.1003 -0.2863
36246SOL    HW115343   6.346   7.832  11.817  1.1876 -1.6844 -1.4895
36246SOL    HW215344   6.325   7.887  11.678 -0.5823  0.0142 -0.5913
36247SOL     OW15345   9.316   4.172  10.875  0.4843 -0.1893  0.1713
36247SOL    HW115346   9.293   4.106  10.941  0.7215  1.0823  1.5914
36247SOL    HW215347   9.234   4.194  10.833  0.3051 -0.9245  0.1125
36248SOL     OW15348  11.701   8.941  11.530  0.5656  0.0180 -0.2533
36248SOL    HW115349  11.614   8.969  11.502  0.2538 -0.3399  0.3502
36248SOL    HW215350  11.710   8.976  11.618  0.7935 -0.4505 -0.0889
36249SOL     OW15351  12.640  10.792   7.432  0.2531  0.5036  0.4906
36249SOL    HW115352  12.659  10.789   7.526  0.3417  0.6464  0.4777
36249SOL    HW215353  12.593  10.711   7.414 -2.7945  1.9431  1.3097
36250SOL     OW15354   6.515  11.042  12.784  0.1470  0.3186  0.3475
36250SOL    HW115355   6.575  11.105  12.824 -0.1501  0.9253 -0.1357
36250SOL    HW215356   6.443  11.096  12.750  0.7110 -0.0510 -1.5907
36251SOL     OW15357   3.166   4.821   4.664 -0.2508 -0.0592  1.2963
36251SOL    HW115358   3.196   4.740   4.707  1.9871 -0.8717 -1.4952
36251SOL    HW215359   3.242   4.878   4.665 -0.7409  0.6484  0.1971
36252SOL     OW15360   0.209   2.740   1.260 -0.0757 -0.1346 -0.0737
36252SOL    HW115361   0.135   2.680   1.252 -1.4223  1.3422  0.8703
36252SOL    HW215362   0.243   2.748   1.171 -2.2398  0.5873 -0.8883
36253SOL     OW15363   1.282  11.828  12.140 -0.5539  0.5331 -0.4853
36253SOL    HW115364   1.300  11.876  12.059 -0.8531  0.5069 -0.5654
36253SOL    HW215365   1.365  11.785  12.161 -0.5526  0.3199 -0.9241
36254SOL     OW15366   6.096   2.331   6.563  0.7583 -0.2722 -0.0208
36254SOL    HW115367   6.063   2.314   6.652  0.9459  0.8209  0.2703
36254SOL    HW215368   6.114   2.244   6.527 -3.8023 -1.1340 -0.7598
36255SOL     OW15369   5.317   3.432   3.549  0.5347 -0.1136 -0.1571
36255SOL    HW115370   5.311   3.424   3.644  0.5538  0.7064 -0.0847
36255SOL    HW215371   5.281   3.518   3.529 -1.8666 -1.2396 -1.1498
36256SOL     OW15372   0.773   5.317   4.980 -0.4064  0.9498  0.3641
36256SOL    HW115373   0.691   5.317   5.030  0.0923  1.0340  1.2088
36256SOL    HW215374   0.746   5.323   4.889 -1.3870 -0.3455  0.5449
36257SOL     OW15375   1.092   1.639   8.818 -0.0505  0.1420 -0.4866
36257SOL    HW115376   1.183   1.623   8.843  0.1454  0.7885 -0.7743
36257SOL    HW215377   1.064   1.557   8.777 -0.2098 -0.7595  1.2989
36258SOL     OW15378  11.186  12.179   6.023  0.3881  0.0418 -0.1576
36258SOL    HW115379  11.145  12.102   6.062 -0.5371  0.4024 -0.3726
36258SOL    HW215380  11.113  12.224   5.979  0.6741  1.6664  0.9586
36259SOL     OW15381   6.613   9.006  10.947  0.5338  0.1215 -0.6294
36259SOL    HW115382   6.533   9.057  10.937  0.4599  0.0881 -0.2523
36259SOL    HW215383   6.673   9.041  10.882 -0.4419 -1.1635 -2.3027
36260SOL     OW15384   1.748   3.738   9.800 -0.7774  0.6340  0.4554
36260SOL    HW115385   1.813   3.703   9.739 -1.1360  0.7128  0.0221
36260SOL    HW215386   1.727   3.825   9.765 -0.6559  0.8644  0.9430
36261SOL     OW15387  11.061   9.767   3.369  0.4059 -0.2555  0.5423
36261SOL    HW115388  11.010   9.789   3.447 -1.5131 -2.7621  0.1262
36261SOL    HW215389  11.142   9.730   3.403  0.8241  1.2508  1.2620
36262SOL     OW15390   8.243   0.828   6.702  0.3967 -0.0318  0.4497
36262SOL    HW115391   8.334   0.851   6.681  0.4241 -1.9060 -1.9120
36262SOL    HW215392   8.191   0.900   6.666  0.8823  1.2540  2.1657
36263SOL     OW15393   0.949   9.724  12.646  0.0162  0.0558  0.5233
36263SOL    HW115394   0.868   9.768  12.620  0.7965  1.4051  0.2509
36263SOL    HW215395   0.958   9.652  12.584 -0.4187  0.5497 -0.1262
36264SOL     OW15396   5.168   2.316   9.095  0.0174  0.1872  0.5336
36264SOL    HW115397   5.140   2.338   9.184  0.2233  1.2606  0.3465
36264SOL    HW215398   5.150   2.222   9.087 -0.7821  0.2482  1.4157
36265SOL     OW15399  11.207   3.067  12.498  0.6498  0.1375 -0.0942
36265SOL    HW115400  11.263   3.034  12.428  2.6121  0.6404  1.1501
36265SOL    HW215401  11.265   3.123  12.550 -1.0934  0.8613  1.1583
36266SOL     OW15402   2.692   7.649   4.259 -0.0446  0.0706  0.4413
36266SOL    HW115403   2.636   7.723   4.278 -1.2724 -0.2834 -1.4493
36266SOL    HW215404   2.696   7.647   4.163  0.6190 -1.7960  0.4700
36267SOL     OW15405   2.509  11.242   3.141 -0.2366 -0.0086 -0.2014
36267SOL    HW115406   2.462  11.229   3.058 -1.5386 -1.7337  0.7348
36267SOL    HW215407   2.439  11.244   3.207  0.8766 -0.1328  1.0068
36268SOL     OW15408   5.659   4.198   5.668 -0.3215  0.0651  0.0118
36268SOL    HW115409   5.660   4.289   5.696 -0.0707 -0.3520  1.4478
36268SOL    HW215410   5.621   4.200   5.580  2.0682  1.8264 -1.0612
36269SOL     OW15411  10.781  11.586   8.790  0.5751  0.0266 -0.4633
36269SOL    HW115412  10.757  11.500   8.823 -1.0172  0.2217 -1.0581
36269SOL    HW215413  10.777  11.643   8.867 -1.3629  0.1323 -0.6052
36270SOL     OW15414   7.629   5.073   0.325  0.0814  0.5153  0.0265
36270SOL    HW115415   7.572   5.022   0.382 -0.9086 -0.5887 -1.8598
36270SOL    HW215416   7.716   5.061   0.361 -0.1267 -2.4929 -0.2797
36271SOL     OW15417   1.366  10.429   4.160  0.1256 -0.6402  0.0972
36271SOL    HW115418   1.418  10.352   4.140  0.3163 -0.2356 -1.0281
36271SOL    HW215419   1.346  10.421   4.254  0.5464 -1.7926  0.1027
36272SOL     OW15420   1.999   0.147  12.502 -0.2772  0.1449  0.9758
36272SOL    HW115421   2.023   0.202  12.577 -1.0079 -1.3832  2.4061
36272SOL    HW215422   1.904   0.160  12.492 -0.0634  0.9566 -0.2484
36273SOL     OW15423   8.536   1.282   2.645 -0.2306 -0.1669 -0.3106
36273SOL    HW115424   8.462   1.264   2.587  0.1172  0.9383 -1.1310
36273SOL    HW215425   8.613   1.263   2.592  0.0830 -0.6338  0.3077
36274SOL     OW15426   7.053   7.535  12.188 -0.2169  0.0636  0.0349
36274SOL    HW115427   6.990   7.483  12.239  0.6596  2.1899  3.6116
36274SOL    HW215428   6.999   7.599  12.142 -0.8674  0.0200  0.7218
36275SOL     OW15429   1.931   2.695   1.171 -0.0442  0.5298 -0.0635
36275SOL    HW115430   1.901   2.729   1.255 -0.9068 -0.2402 -0.0525
36275SOL    HW215431   1.966   2.772   1.126  0.5062  0.9418  1.0138
36276SOL     OW15432   9.828   8.489   5.526  0.1147 -0.2511  0.2452
36276SOL    HW115433   9.851   8.506   5.435 -0.4111  0.3886  0.2265
36276SOL    HW215434   9.897   8.532   5.577  2.3131 -3.3429  0.1760
36277SOL     OW15435  10.432  11.404   8.989 -0.1731  0.6023  0.7968
36277SOL    HW115436  10.420  11.317   8.951 -1.0300  0.6757  0.8593
36277SOL    HW215437  10.362  11.456   8.950  2.2760  2.1863 -1.8005
36278SOL     OW15438   1.510  11.439   8.259  0.1481 -0.0133  0.5025
36278SOL    HW115439   1.519  11.534   8.262 -2.8776  0.4594 -1.2159
36278SOL    HW215440   1.439  11.420   8.320  0.4420 -1.1397  0.5119
36279SOL     OW15441   0.682  12.192  12.212 -0.8092  0.1275  0.0596
36279SOL    HW115442   0.665  12.225  12.300 -0.4587  0.9733 -0.1828
36279SOL    HW215443   0.774  12.214  12.195 -0.4784 -1.2202 -0.0073
36280SOL     OW15444   4.476   1.755  12.467  0.0093 -0.4687 -0.5233
36280SOL    HW115445   4.495   1.697  12.541  0.8249  0.4829  0.0472
36280SOL    HW215446   4.380   1.755  12.461 -0.2578  1.2098  2.0591
36281SOL     OW15447   7.804   3.082   9.819  0.1630 -0.1337  0.0891
36281SOL    HW115448   7.767   3.007   9.773 -4.3771  0.6468  1.9100
36281SOL    HW215449   7.813   3.149   9.751 -2.1504 -0.3722 -0.5596
36282SOL     OW15450   3.222   0.366  11.611 -0.0612  0.0829 -0.1356
36282SOL    HW115451   3.243   0.325  11.527 -0.8930 -2.8992  0.9901
36282SOL    HW215452   3.128   0.383  11.606 -0.8688 -3.1830  1.2371
36283SOL     OW15453   3.942   6.675   7.379  0.4780 -0.0473 -0.0868
36283SOL    HW115454   3.954   6.663   7.473  0.2612  2.1282  0.2641
36283SOL    HW215455   4.025   6.712   7.349  0.4173 -0.3967 -0.7135
36284SOL     OW15456   8.229   7.329   2.676  0.5955 -0.3709  0.6736
36284SOL    HW115457   8.231   7.394   2.746  0.0189 -0.9518  1.2310
36284SOL    HW215458   8.153   7.353   2.623  0.7165 -0.2573  0.5492
36285SOL     OW15459   1.310  12.324  10.533 -0.1780 -0.4612 -0.0152
36285SOL    HW115460   1.241  12.387  10.513  0.1039 -0.3668 -0.7134
36285SOL    HW215461   1.287  12.290  10.619 -0.3984  0.5126  0.3257
36286SOL     OW15462   8.056   4.249   0.946 -0.2227 -0.4398  0.0729
36286SOL    HW115463   8.041   4.195   1.024  0.3429 -0.1846  0.3650
36286SOL    HW215464   8.128   4.205   0.901  0.7729  0.4780  0.7180
36287SOL     OW15465   2.272   5.327  11.729  0.1210 -0.1446  0.2221
36287SOL    HW115466   2.213   5.316  11.804 -1.4949 -0.4744 -1.0435
36287SOL    HW215467   2.275   5.240  11.688  2.2560 -0.3784  0.7603
36288SOL     OW15468  12.435   6.375   5.106  0.0194  0.2896  0.1297
36288SOL    HW115469  12.451   6.457   5.154 -1.5252  1.0797 -0.6184
36288SOL    HW215470  12.445   6.399   5.014  2.8845 -1.1934 -0.0481
36289SOL     OW15471   5.309   3.273  12.073  0.5438  0.2919  0.5223
36289SOL    HW115472   5.354   3.190  12.084  2.0206  0.9777 -0.0829
36289SOL    HW215473   5.351   3.314  11.997 -0.7171  1.2293  0.2898
36290SOL     OW15474   2.303   6.473  11.232  0.2587 -0.2410  0.3929
36290SOL    HW115475   2.264   6.552  11.269 -0.0536 -1.2460  2.3509
36290SOL    HW215476   2.377   6.505  11.180  0.1655  1.3444  1.1695
36291SOL     OW15477   7.383   1.854   3.861 -0.3816  0.5557  0.0429
36291SOL    HW115478   7.437   1.777   3.843 -0.3811  0.6166 -0.2315
36291SOL    HW215479   7.329   1.830   3.936 -0.8130  0.0724 -0.4146
36292SOL     OW15480   0.870   1.222   5.250 -0.0454  0.2393  0.2666
36292SOL    HW115481   0.787   1.222   5.202  0.0863  1.6437 -0.0136
36292SOL    HW215482   0.852   1.170   5.329 -1.6199  1.5907  0.8697
36293SOL     OW15483   7.590   8.333   3.589  0.0902 -0.7918 -0.3462
36293SOL    HW115484   7.567   8.287   3.509  0.3938 -1.2694 -0.1616
36293SOL    HW215485   7.513   8.388   3.608 -0.0615 -0.8280 -0.8491
36294SOL     OW15486  12.278   5.610   4.342 -0.1266  0.5941  0.1796
36294SOL    HW115487  12.216   5.682   4.356 -0.6885  0.3234 -0.7872
36294SOL    HW215488  12.294   5.611   4.247  2.4749  1.5385  0.5635
36295SOL     OW15489   3.500   2.279   4.981 -0.2647  0.7436  0.1394
36295SOL    HW115490   3.544   2.287   4.896  0.1107  2.7219  0.4586
36295SOL    HW215491   3.426   2.340   4.975 -2.5764 -1.8565 -0.0672
36296SOL     OW15492  11.527   0.708   5.753 -0.2582 -0.5253  0.1535
36296SOL    HW115493  11.521   0.643   5.683  1.2444 -3.1152  2.2301
36296SOL    HW215494  11.471   0.674   5.823  0.9239  0.1394  1.4812
36297SOL     OW15495   1.303   2.639   2.933 -0.2789  0.0883 -1.0512
36297SOL    HW115496   1.396   2.633   2.954 -0.7395  1.2353  1.7393
36297SOL    HW215497   1.262   2.573   2.989 -1.4146  1.9233  0.3899
36298SOL     OW15498   8.796   9.197   0.677 -0.1848  0.4119  0.2547
36298SOL    HW115499   8.820   9.283   0.642 -1.1255  0.2435 -0.8700
36298SOL    HW215500   8.833   9.135   0.614  0.9364 -0.0553  1.3301
36299SOL     OW15501   2.637   4.082   1.899 -0.2124 -0.4526 -0.5685
36299SOL    HW115502   2.602   4.068   1.987 -1.9163 -0.5985 -1.2290
36299SOL    HW215503   2.609   4.171   1.877  0.5504 -0.2707 -0.8072
36300SOL     OW15504  12.153   1.720   5.763  0.1330 -0.0945 -0.2457
36300SOL    HW115505  12.219   1.749   5.701  0.4292  1.0800  0.5856
36300SOL    HW215506  12.177   1.761   5.846  0.0656 -2.0578  0.8134
36301SOL     OW15507   8.774  11.535   7.612  0.0761  0.6408  0.2692
36301SOL    HW115508   8.792  11.486   7.533 -2.9158  0.1956 -0.2626
36301SOL    HW215509   8.783  11.627   7.586  1.6614  0.4932  0.1790
36302SOL     OW15510   7.451   1.303   6.168 -0.2354 -0.2336  0.0403
36302SOL    HW115511   7.466   1.223   6.119  1.8996  0.0536  0.0984
36302SOL    HW215512   7.404   1.275   6.247  1.3601 -1.6223  0.5560
36303SOL     OW15513   5.816  10.364   2.788 -0.8205 -0.3771  0.0253
36303SOL    HW115514   5.809  10.443   2.842 -0.8283  0.3827 -1.0398
36303SOL    HW215515   5.822  10.292   2.851 -1.6002  0.3942  1.0242
36304SOL     OW15516   4.187  12.387  11.349  0.0602 -0.0335 -0.0868
36304SOL    HW115517   4.158  12.448  11.281  0.4575 -0.4666 -0.6513
36304SOL    HW215518   4.270  12.425  11.380 -0.0478  0.0859  0.0578
36305SOL     OW15519  12.300   1.531  12.585  0.2604  0.6331  0.1933
36305SOL    HW115520  12.233   1.599  12.579 -0.0096  0.2149 -2.1288
36305SOL    HW215521  12.302   1.490  12.499  1.9095 -0.9134  0.8913
36306SOL     OW15522  12.233  10.122   1.036  0.0847 -0.5299 -0.0387
36306SOL    HW115523  12.266  10.035   1.060  1.4368 -0.1580 -0.4384
36306SOL    HW215524  12.295  10.153   0.970 -1.3221  0.0739 -1.1180
36307SOL     OW15525   1.981   2.404   4.230 -0.2037 -0.0003  0.2042
36307SOL    HW115526   1.973   2.315   4.264 -0.5563 -0.0853 -0.1009
36307SOL    HW215527   1.920   2.407   4.156  0.8563  0.0448 -0.7043
36308SOL     OW15528  11.556   5.601  12.647 -0.3201 -0.3022  0.0766
36308SOL    HW115529  11.520   5.685  12.675 -2.2591 -0.7971 -0.7684
36308SOL    HW215530  11.506   5.536  12.696 -0.5122 -1.0095 -1.0211
36309SOL     OW15531   3.042   1.126   7.714 -0.3936 -0.6053  0.1984
36309SOL    HW115532   3.101   1.067   7.668  1.3821  1.4605 -0.3728
36309SOL    HW215533   2.995   1.172   7.645 -0.9542 -0.5627  0.5973
36310SOL     OW15534   4.276  10.505  10.884  1.0336  0.6821  0.0082
36310SOL    HW115535   4.353  10.559  10.902  1.9473 -0.9833  1.3075
36310SOL    HW215536   4.311  10.418  10.868 -0.6139 -0.3085  1.4844
36311SOL     OW15537  11.218  11.285   0.140  0.3421 -0.2398 -0.2123
36311SOL    HW115538  11.239  11.376   0.164 -0.3032  0.6053 -2.5015
36311SOL    HW215539  11.126  11.274   0.165  0.3896 -0.2152 -0.0273
36312SOL     OW15540   8.787   0.434   9.539  0.6667 -0.0256  0.0481
36312SOL    HW115541   8.828   0.414   9.455  1.5240 -2.3297  0.9277
36312SOL    HW215542   8.724   0.363   9.552 -1.3141  1.6941  0.2241
36313SOL     OW15543  11.942   1.621  10.924  0.4240 -0.5628  0.4389
36313SOL    HW115544  11.948   1.542  10.978 -0.5656  0.1797  1.6825
36313SOL    HW215545  12.031   1.634  10.891  0.4833 -2.5153 -0.2878
36314SOL     OW15546   1.588   1.637  10.944  0.0277 -0.0945  0.2815
36314SOL    HW115547   1.591   1.622  10.850 -0.6642 -1.2871  0.4386
36314SOL    HW215548   1.679   1.659  10.967 -0.0948  1.9361 -0.9012
36315SOL     OW15549   4.469   4.781   3.659  0.3901  0.4045  0.1814
36315SOL    HW115550   4.379   4.795   3.687  0.5239  0.3060  0.6591
36315SOL    HW215551   4.486   4.852   3.597  0.1854  0.7689  0.5413
36316SOL     OW15552   5.996   7.857   2.859 -0.8501 -0.4186  0.2907
36316SOL    HW115553   6.085   7.889   2.872 -0.3088 -1.7385  0.0073
36316SOL    HW215554   5.973   7.816   2.943 -1.2779  0.1302  0.4399
36317SOL     OW15555   5.738   1.005   5.162 -0.1577 -0.1953 -0.6920
36317SOL    HW115556   5.831   1.023   5.145  0.5283 -0.1751  2.4934
36317SOL    HW215557   5.711   0.949   5.089  2.2574  0.0339 -1.8793
36318SOL     OW15558   0.534  11.307   8.820 -0.8285 -0.5466  0.3269
36318SOL    HW115559   0.628  11.293   8.807 -0.5333  0.2880  1.4004
36318SOL    HW215560   0.496  11.219   8.818 -0.2251 -0.8023 -1.4199
36319SOL     OW15561   2.039   1.060   7.758 -0.1639  0.5374  0.3232
36319SOL    HW115562   2.078   1.016   7.683 -2.8112 -0.0277 -0.8350
36319SOL    HW215563   1.997   0.989   7.808 -2.8442  1.3970 -0.5390
36320SOL     OW15564   3.582   2.424   5.613 -0.0626  0.1840  0.3835
36320SOL    HW115565   3.596   2.337   5.650  0.6658  0.8089  1.6489
36320SOL    HW215566   3.643   2.480   5.661  1.9651  0.8509 -2.6962
36321SOL     OW15567   7.918   7.355  11.628 -0.1476 -0.2658 -0.6449
36321SOL    HW115568   7.871   7.305  11.561 -1.5473  0.1743 -0.0350
36321SOL    HW215569   7.963   7.424  11.579 -2.0587  0.7413 -1.1013
36322SOL     OW15570  10.943   6.631   7.488 -0.4469  0.6914  0.0887
36322SOL    HW115571  10.887   6.586   7.425  0.5823 -1.0811  0.3846
36322SOL    HW215572  11.029   6.591   7.478 -0.4488 -0.4360  3.2869
36323SOL     OW15573   4.684   9.015   2.043  0.1887  0.0053 -1.1269
36323SOL    HW115574   4.771   9.037   2.076  0.4152  1.0858 -2.3313
36323SOL    HW215575   4.679   8.920   2.049  1.4900 -0.0837 -1.0818
36324SOL     OW15576   0.227   4.762  12.062  0.2133  0.0327  0.2781
36324SOL    HW115577   0.152   4.716  12.023  1.1513  0.4291 -2.1167
36324SOL    HW215578   0.267   4.696  12.120  0.1795 -1.4638 -1.3137
36325SOL     OW15579   8.044   1.825   9.622  0.1066  0.1985  0.1280
36325SOL    HW115580   7.973   1.865   9.573  1.7332  0.9015 -1.7868
36325SOL    HW215581   8.040   1.732   9.599 -1.8077 -0.3267  2.2104
36326SOL     OW15582   5.439   9.357   0.965  0.4651 -0.2128 -0.1485
36326SOL    HW115583   5.490   9.331   0.888  2.4178  1.1379  0.6081
36326SOL    HW215584   5.488   9.431   1.003 -0.6891 -0.5106  2.1134
36327SOL     OW15585   2.934   5.922   5.550 -0.2960 -0.2388 -0.3279
36327SOL    HW115586   2.951   5.879   5.466  0.5916 -0.9075  0.1769
36327SOL    HW215587   2.842   5.905   5.568 -0.3265 -0.6549 -0.8528
36328SOL     OW15588   1.783   8.773  10.873  0.8327 -0.3021  0.1808
36328SOL    HW115589   1.716   8.790  10.807 -1.2474 -0.7640  2.0420
36328SOL    HW215590   1.806   8.859  10.908 -0.0719 -0.2446  0.6713
36329SOL     OW15591   8.825  10.884   8.828 -0.2581 -0.3195  0.1852
36329SOL    HW115592   8.769  10.810   8.803 -1.4725  0.2185  1.2062
36329SOL    HW215593   8.778  10.926   8.900  0.0634  1.8473 -0.7969
36330SOL     OW15594   6.300  11.204   3.993  0.1420 -0.9062 -0.1926
36330SOL    HW115595   6.303  11.298   4.014  0.7823 -1.1492  0.9412
36330SOL    HW215596   6.323  11.161   4.076 -1.6643 -2.1275 -0.2722
36331SOL     OW15597  10.673   5.615   4.208 -0.3105  0.0177 -0.1909
36331SOL    HW115598  10.600   5.633   4.149 -1.4272 -0.7422  0.9416
36331SOL    HW215599  10.635   5.569   4.282  1.3867 -0.7701  0.2436
36332SOL     OW15600  10.396  10.746   9.092  0.0050  0.1028 -0.8046
36332SOL    HW115601  10.335  10.703   9.152  1.3168 -2.4821 -1.1671
36332SOL    HW215602  10.474  10.762   9.146  0.9489 -1.6288 -1.5971
36333SOL     OW15603   8.569   6.175   9.863 -0.2965  0.1466 -0.1871
36333SOL    HW115604   8.632   6.105   9.877  1.2961  1.7274  0.9174
36333SOL    HW215605   8.498   6.133   9.813  0.0133 -2.5257  1.3838
36334SOL     OW15606   0.058   3.491   5.646 -0.1065  0.0353  0.0481
36334SOL    HW115607   0.012   3.558   5.698 -0.0112  0.6896 -0.7010
36334SOL    HW215608   0.105   3.541   5.579 -0.5947 -0.8246 -0.9609
36335SOL     OW15609   3.043   7.438   1.342  0.2135  1.3141 -0.1377
36335SOL    HW115610   3.118   7.497   1.332  1.2532 -0.1361 -1.2907
36335SOL    HW215611   2.985   7.460   1.270  0.4299  1.1907 -0.3526
36336SOL     OW15612   1.031  11.327   2.556 -0.4944 -0.1207 -0.2793
36336SOL    HW115613   0.966  11.257   2.559 -1.3155  0.6327  0.0439
36336SOL    HW215614   1.111  11.286   2.590 -1.1862 -0.6765  0.7651
36337SOL     OW15615   8.804   8.724   9.964  0.4094  0.8189  0.2387
36337SOL    HW115616   8.769   8.808   9.936 -0.4499  0.8884  1.4679
36337SOL    HW215617   8.727   8.669   9.977  0.8609  0.3823  1.1489
36338SOL     OW15618   4.988   8.858   5.661 -0.5137 -0.0188  0.1769
36338SOL    HW115619   4.905   8.824   5.693 -0.0329 -1.4644 -0.0548
36338SOL    HW215620   5.053   8.791   5.685  0.6336  1.1812  0.5686
36339SOL     OW15621   3.479   2.058   9.473  0.0490  0.1280 -0.2745
36339SOL    HW115622   3.414   2.084   9.407 -0.6396  3.0266  1.3227
36339SOL    HW215623   3.426   2.025   9.546  0.7635 -2.5007 -0.8723
36340SOL     OW15624   1.983   5.124  12.420 -0.5743  0.3446 -0.0624
36340SOL    HW115625   2.007   5.042  12.462 -0.3961  0.9983  1.1516
36340SOL    HW215626   2.066   5.171  12.408 -0.8728  1.2430  1.2092
36341SOL     OW15627   2.438   7.836   0.347 -0.8393 -0.2773  0.3590
36341SOL    HW115628   2.518   7.888   0.334 -1.4417  0.7547  0.5917
36341SOL    HW215629   2.410   7.813   0.258  0.2726 -1.5618  0.3139
36342SOL     OW15630   5.459   6.633   8.727 -0.2407  0.1436 -0.7348
36342SOL    HW115631   5.431   6.714   8.685 -1.4171  0.2472  0.2242
36342SOL    HW215632   5.429   6.640   8.817  3.4784  0.5722  0.6574
36343SOL     OW15633   5.871   9.113  10.701 -0.6915  0.7891 -0.3123
36343SOL    HW115634   5.868   9.056  10.624  2.2005 -0.1506  0.1432
36343SOL    HW215635   5.827   9.063  10.770  0.6199 -0.3729 -0.2697
36344SOL     OW15636   3.863   4.451  12.315 -0.0572 -0.4657 -0.0191
36344SOL    HW115637   3.861   4.445  12.411  0.3922 -1.0402 -0.0380
36344SOL    HW215638   3.791   4.510  12.293 -0.2123 -0.3894  0.6689
36345SOL     OW15639   1.231   7.369   0.358  0.7814 -0.0373 -0.1114
36345SOL    HW115640   1.184   7.447   0.390 -0.0425 -0.2941 -0.6545
36345SOL    HW215641   1.208   7.300   0.420  1.6608  0.1811  0.4760
36346SOL     OW15642  11.551   0.519   0.461  0.2167 -0.4184  0.0049
36346SOL    HW115643  11.616   0.590   0.460 -0.6342  0.3941  0.1350
36346SOL    HW215644  11.510   0.525   0.548  0.4463 -1.3708  0.1874
36347SOL     OW15645   4.881   2.600   7.242 -0.5074 -0.0383 -0.6216
36347SOL    HW115646   4.818   2.532   7.220  2.4585 -3.4531  0.4534
36347SOL    HW215647   4.869   2.616   7.336 -1.4262  1.3072 -0.9342
36348SOL     OW15648   7.832   1.676  12.479 -0.4107  0.1729 -0.2068
36348SOL    HW115649   7.771   1.708  12.546  0.9136  1.1092  0.5922
36348SOL    HW215650   7.783   1.684  12.397 -1.2059  1.3742  0.3490
36349SOL     OW15651  10.413  10.117   6.954  0.1961  0.3358 -0.3489
36349SOL    HW115652  10.413  10.054   7.026 -0.0016  1.2561  0.4715
36349SOL    HW215653  10.505  10.129   6.932  0.1964 -1.1044 -1.3169
36350SOL     OW15654   4.757  10.255   1.847  0.0758  0.0710  0.9505
36350SOL    HW115655   4.685  10.192   1.851  1.7621 -2.0608 -0.4247
36350SOL    HW215656   4.801  10.237   1.764  1.5078  2.1328  1.1793
36351SOL     OW15657   4.670   3.335   7.569 -0.0908 -0.0805 -0.5411
36351SOL    HW115658   4.693   3.242   7.563  0.2590 -0.0692  0.4940
36351SOL    HW215659   4.654   3.350   7.662  0.6616  1.0781 -0.5753
36352SOL     OW15660  10.965   2.891   9.663  0.1061  0.6249 -0.4702
36352SOL    HW115661  11.026   2.818   9.658  2.1213  1.9659  1.8197
36352SOL    HW215662  10.893   2.859   9.716  0.6381  0.0717 -0.0684
36353SOL     OW15663   5.946  12.187   2.219  0.1936 -0.0570  0.6822
36353SOL    HW115664   5.885  12.259   2.234  0.1228 -0.4675  2.5953
36353SOL    HW215665   6.029  12.218   2.254 -0.0190 -1.1396  2.2769
36354SOL     OW15666   1.102  11.756   8.410  0.1513 -0.1375 -0.1758
36354SOL    HW115667   1.115  11.750   8.504 -1.2291  0.6692  0.0972
36354SOL    HW215668   1.162  11.825   8.382  0.0348  0.1357  0.2373
36355SOL     OW15669   5.124   2.224   0.644  0.4839 -1.0712 -0.0327
36355SOL    HW115670   5.049   2.201   0.588 -0.9658  1.0330  0.9058
36355SOL    HW215671   5.089   2.220   0.733  0.4811  2.8069  0.3092
36356SOL     OW15672   0.756   4.079  12.659 -0.1993 -0.1265 -0.2500
36356SOL    HW115673   0.782   4.169  12.638  1.0481 -0.2925  0.4884
36356SOL    HW215674   0.661   4.082  12.660 -0.3137  0.5524 -2.9840
36357SOL     OW15675  12.245   0.534   9.835 -0.4393 -0.0518 -0.1632
36357SOL    HW115676  12.170   0.475   9.837 -1.6581  1.4703  0.4060
36357SOL    HW215677  12.307   0.496   9.897 -0.5357 -1.5480 -0.9482
36358SOL     OW15678   6.150  10.678   1.942  0.1884  0.3556  0.3792
36358SOL    HW115679   6.073  10.623   1.933  0.7330 -0.3377 -0.1432
36358SOL    HW215680   6.156  10.696   2.035 -0.2893 -0.0392  0.4898
36359SOL     OW15681   0.737   9.730   6.133  0.0596  0.3041  0.4904
36359SOL    HW115682   0.807   9.778   6.088 -0.1740 -1.2303 -1.6985
36359SOL    HW215683   0.658   9.751   6.084 -1.4654  3.0849  3.7372
36360SOL     OW15684   5.806   1.844   9.001  0.1717  0.2399  0.1561
36360SOL    HW115685   5.779   1.803   9.083  0.8559  0.9148  0.7399
36360SOL    HW215686   5.740   1.817   8.937 -0.4454 -0.1884  0.9606
36361SOL     OW15687  11.948  11.359   4.137  0.7311 -0.2972 -0.3347
36361SOL    HW115688  11.870  11.413   4.122  1.7900  1.1005 -0.9963
36361SOL    HW215689  11.946  11.340   4.231 -0.7093 -0.8098 -0.4333
36362SOL     OW15690  11.487   3.121   8.434 -0.1339 -0.3048  0.1326
36362SOL    HW115691  11.576   3.116   8.399  0.5870 -0.2699  1.8777
36362SOL    HW215692  11.471   3.034   8.471 -0.6499 -0.1566  0.2645
36363SOL     OW15693   9.446   8.497   5.414 -0.3110 -0.1589 -0.1332
36363SOL    HW115694   9.448   8.514   5.509 -0.9785 -0.7879 -0.0016
36363SOL    HW215695   9.477   8.579   5.375  2.6339 -0.7437  0.6831
36364SOL     OW15696  12.073   5.267  11.007  0.0054 -0.5943  0.1753
36364SOL    HW115697  12.096   5.268  10.915 -0.2553 -1.1347  0.1038
36364SOL    HW215698  12.006   5.200  11.015 -1.2617  0.6488  0.4448
36365SOL     OW15699   7.328   6.683  12.318  0.1989 -0.9023 -0.1225
36365SOL    HW115700   7.330   6.710  12.226  1.2721 -0.9894 -0.1350
36365SOL    HW215701   7.291   6.759  12.364 -0.2764 -0.8321 -0.6056
36366SOL     OW15702  10.852   7.433  12.169 -0.1156 -0.1930  0.6959
36366SOL    HW115703  10.845   7.517  12.124  1.3854  0.0899  0.9505
36366SOL    HW215704  10.898   7.376  12.108  2.0450  0.2281  1.8478
36367SOL     OW15705  11.471   1.726  11.800  0.2405  0.0223  0.0531
36367SOL    HW115706  11.462   1.813  11.761 -0.8302 -0.8278 -1.7224
36367SOL    HW215707  11.565   1.716  11.813  0.4612  1.1365 -0.4911
36368SOL     OW15708  11.863  12.614   2.655  0.9748  0.3393  0.0856
36368SOL    HW115709  11.874  12.523   2.628 -1.1102  0.4122 -1.2822
36368SOL    HW215710  11.915  12.622   2.734  0.3322 -2.3784  0.8982
36369SOL     OW15711  10.067  12.032   2.677 -0.0138 -0.0022  0.2031
36369SOL    HW115712  10.018  11.950   2.669  0.5276 -0.1835 -1.7098
36369SOL    HW215713  10.056  12.058   2.768 -3.1532 -0.3445  0.0276
36370SOL     OW15714  10.500  11.324  11.416 -0.0740 -0.1203  0.4547
36370SOL    HW115715  10.440  11.394  11.391 -0.7540 -0.5051  1.0059
36370SOL    HW215716  10.523  11.282  11.333 -0.7594 -0.1243  0.2609
36371SOL     OW15717   5.963  11.926   4.871  0.2536  0.0016 -0.2386
36371SOL    HW115718   5.923  11.873   4.802  1.2051 -0.7779 -0.2215
36371SOL    HW215719   5.905  11.916   4.946  0.7948 -1.6888  0.0059
36372SOL     OW15720   3.713   9.646   2.825 -0.1736  0.4347  0.2760
36372SOL    HW115721   3.646   9.706   2.794  0.4104  0.4144 -1.1180
36372SOL    HW215722   3.671   9.596   2.895 -2.2700 -0.8926 -1.7926
36373SOL     OW15723  10.228   4.462   0.157  0.2092  0.0849  0.5629
36373SOL    HW115724  10.283   4.538   0.172  1.3012 -0.2791 -1.3147
36373SOL    HW215725  10.187   4.477   0.072  1.7279 -2.0862 -0.6586
36374SOL     OW15726   0.151   7.570   1.643 -0.4100 -0.6715  0.1330
36374SOL    HW115727   0.193   7.642   1.597  0.2679 -1.3485 -0.3370
36374SOL    HW215728   0.220   7.534   1.699 -0.3733 -1.7272 -0.5638
36375SOL     OW15729   9.163   6.504   9.573  0.6872  0.1085  0.0429
36375SOL    HW115730   9.135   6.417   9.601 -2.0622  1.0886  0.6702
36375SOL    HW215731   9.186   6.494   9.481  1.1239 -1.3918  0.2935
36376SOL     OW15732  11.009   2.444   8.995  0.0523 -0.4235  0.0723
36376SOL    HW115733  10.963   2.361   9.007 -0.6580  0.2120  2.1829
36376SOL    HW215734  10.941   2.505   8.967  0.3540 -0.2864 -0.3730
36377SOL     OW15735   1.825   7.493   9.248  0.0001  0.0736 -0.0761
36377SOL    HW115736   1.731   7.480   9.260 -0.0569  0.9781  0.5875
36377SOL    HW215737   1.833   7.533   9.161 -0.2143 -0.0915 -0.1729
36378SOL     OW15738   0.966  11.068   3.343  0.1322  0.2203 -0.1881
36378SOL    HW115739   1.026  11.061   3.417  0.8392 -1.8710 -0.8922
36378SOL    HW215740   0.956  11.162   3.329 -0.5766  0.7252  2.9448
36379SOL     OW15741  12.082  12.262  10.241  0.2791  0.3255  0.0161
36379SOL    HW115742  12.105  12.313  10.319 -2.0680  0.1445  0.9341
36379SOL    HW215743  12.047  12.180  10.277 -0.4563  0.0713 -1.2355
36380SOL     OW15744   5.317   1.920  11.406  0.4295  0.1300 -0.2945
36380SOL    HW115745   5.365   1.838  11.395 -1.3073 -0.8420 -1.0765
36380SOL    HW215746   5.271   1.909  11.490  1.2768  0.9042  0.2811
36381SOL     OW15747   8.460   3.923   3.577  0.1868  0.2442  0.0876
36381SOL    HW115748   8.477   3.848   3.521  1.2601 -1.0300  1.9952
36381SOL    HW215749   8.365   3.928   3.583  0.0954 -1.2403  0.2499
36382SOL     OW15750   2.126   1.550   9.471 -0.0286 -0.0740  0.3414
36382SOL    HW115751   2.203   1.497   9.451  0.0623  0.0585  0.3424
36382SOL    HW215752   2.052   1.498   9.440  0.0592 -0.2157  0.3691
36383SOL     OW15753   1.554   6.447   5.673  0.2120 -0.6860  0.7112
36383SOL    HW115754   1.521   6.523   5.626  1.5510 -0.0380  0.7778
36383SOL    HW215755   1.497   6.375   5.645 -0.6740  0.1992  0.1625
36384SOL     OW15756   2.396   7.819   6.881  1.4527  0.0457  0.4676
36384SOL    HW115757   2.363   7.894   6.831  0.8926 -0.1655  0.5203
36384SOL    HW215758   2.363   7.832   6.970 -0.1043 -1.1422  0.0989
36385SOL     OW15759   1.324   5.809   1.217 -0.3702 -0.0417 -0.3021
36385SOL    HW115760   1.229   5.807   1.225 -0.5003 -1.4970 -1.6789
36385SOL    HW215761   1.357   5.799   1.306 -1.5458 -3.0109 -0.0939
36386SOL     OW15762   5.284   5.182   2.556 -0.0330  0.1128  0.1147
36386SOL    HW115763   5.267   5.250   2.490  0.8939  0.1114 -0.1354
36386SOL    HW215764   5.279   5.228   2.639 -0.4204  0.2753  0.0058
36387SOL     OW15765  12.053  11.599  10.661 -0.3532 -0.0510 -0.6556
36387SOL    HW115766  11.974  11.585  10.714  0.6000  1.9471  1.4654
36387SOL    HW215767  12.054  11.693  10.645  2.8173  0.4250  1.5177
36388SOL     OW15768   4.300   5.194   8.970 -0.2122 -0.2282  0.7812
36388SOL    HW115769   4.331   5.278   8.936 -1.8016  0.1874  0.2537
36388SOL    HW215770   4.342   5.186   9.055  3.8122 -1.2351 -1.0443
36389SOL     OW15771   5.072  12.238   4.391  0.1471  0.4120  0.3333
36389SOL    HW115772   5.153  12.189   4.372 -0.1322  0.2046 -0.3772
36389SOL    HW215773   5.097  12.301   4.458  0.3651 -1.1494  1.8044
36390SOL     OW15774   8.580   9.350   5.722 -0.1676  0.0210  0.2043
36390SOL    HW115775   8.664   9.305   5.724 -1.1867 -2.2079 -1.8950
36390SOL    HW215776   8.517   9.285   5.755 -1.3296  0.8488 -0.2861
36391SOL     OW15777   5.469  12.318   6.213  0.4370  0.2304  0.5270
36391SOL    HW115778   5.394  12.341   6.269  0.2706 -1.5357  1.0795
36391SOL    HW215779   5.513  12.247   6.260  0.3779 -1.2127 -1.5044
36392SOL     OW15780   6.377   5.732  10.465 -0.0998  0.3211 -0.3912
36392SOL    HW115781   6.321   5.656  10.480  0.2102 -0.1962 -1.6933
36392SOL    HW215782   6.320   5.796  10.422  0.0479  0.1823 -0.7992
36393SOL     OW15783  12.242   4.495   9.159 -0.0881  0.2399 -0.1238
36393SOL    HW115784  12.153   4.483   9.125 -0.3136 -0.8697  0.7914
36393SOL    HW215785  12.240   4.582   9.200 -0.3459  0.7882 -1.2817
36394SOL     OW15786   2.833   9.400   0.195  0.1177 -0.3067 -0.4095
36394SOL    HW115787   2.824   9.444   0.110 -1.4624  0.8122  0.2959
36394SOL    HW215788   2.786   9.318   0.185  0.5944 -0.5386 -0.8282
36395SOL     OW15789   1.928   5.179  10.621  0.2023 -0.5545  0.6919
36395SOL    HW115790   1.891   5.097  10.589  0.7366 -0.4751 -0.1675
36395SOL    HW215791   2.008   5.153  10.666  1.6784 -0.3517 -1.6576
36396SOL     OW15792   0.853   9.347   3.972 -0.2706  0.3353  0.1694
36396SOL    HW115793   0.918   9.391   4.028  2.0070 -1.0429 -1.2432
36396SOL    HW215794   0.835   9.265   4.017 -0.5932  0.4497  0.2525
36397SOL     OW15795   2.940   5.887   5.240  0.1806 -0.0132 -0.2032
36397SOL    HW115796   3.006   5.921   5.179  0.0098 -0.7039 -0.7886
36397SOL    HW215797   2.982   5.811   5.280 -0.0463 -0.1114 -0.1511
36398SOL     OW15798   1.155   3.735  11.382  0.0704  0.3980 -0.1849
36398SOL    HW115799   1.106   3.804  11.426 -1.6308  0.3618 -1.8711
36398SOL    HW215800   1.114   3.728  11.295  2.0376 -0.7829 -1.0992
36399SOL     OW15801   7.926   2.019  12.532 -0.0630  0.6346 -0.0949
36399SOL    HW115802   7.845   1.973  12.511 -0.8991  1.9409  0.1299
36399SOL    HW215803   7.906   2.065  12.614  1.3323 -0.0303  0.6480
36400SOL     OW15804   7.960  10.043   4.321 -0.7802 -0.2687 -0.0934
36400SOL    HW115805   7.903   9.996   4.260 -0.4390  0.6107 -1.1200
36400SOL    HW215806   7.924  10.132   4.323  0.7645  0.4075 -1.0586
36401SOL     OW15807   9.398   9.628   9.494 -0.2068  0.3606  0.1352
36401SOL    HW115808   9.307   9.640   9.519  0.2673  1.1364  1.5695
36401SOL    HW215809   9.443   9.604   9.575  0.9144  0.2168 -0.5043
36402SOL     OW15810   0.829   5.539   2.785 -0.2250 -0.0665 -0.0055
36402SOL    HW115811   0.786   5.461   2.821 -2.3809  0.7056 -0.7221
36402SOL    HW215812   0.786   5.612   2.830 -0.4982  0.7857 -1.5804
36403SOL     OW15813   2.518   7.177   2.376  0.1308  0.3291  0.1722
36403SOL    HW115814   2.520   7.084   2.399  1.1376  0.8632  2.4958
36403SOL    HW215815   2.425   7.197   2.369 -0.1070 -0.9503 -1.0386
36404SOL     OW15816  11.764   2.325   1.905 -0.3056 -0.2560  0.6608
36404SOL    HW115817  11.673   2.340   1.930 -0.5363 -0.5246  0.0109
36404SOL    HW215818  11.784   2.237   1.936 -0.2969 -0.2365  0.7114
36405SOL     OW15819   0.578   0.463   1.776  0.1618  0.4658  0.4380
36405SOL    HW115820   0.599   0.414   1.856  1.1939  0.1811  0.0243
36405SOL    HW215821   0.500   0.420   1.742 -0.1660  0.4557  1.1873
36406SOL     OW15822   3.558   8.741   7.145  0.0708 -0.4313 -0.2717
36406SOL    HW115823   3.622   8.711   7.080  0.8161  0.4754  0.0194
36406SOL    HW215824   3.530   8.661   7.190  1.0220 -0.8457 -0.3917
36407SOL     OW15825   6.707   0.522  11.840  0.1138  0.0513 -0.3257
36407SOL    HW115826   6.646   0.451  11.819 -0.2808  0.5574 -0.9282
36407SOL    HW215827   6.658   0.579  11.899 -0.4290  1.0555 -1.6967
36408SOL     OW15828   9.546  12.448   3.390  0.1323 -0.2951  0.3036
36408SOL    HW115829   9.473  12.462   3.451 -0.0898 -0.4454  0.0768
36408SOL    HW215830   9.595  12.530   3.391 -0.5677  0.1459 -0.2320
36409SOL     OW15831   0.719   5.453   8.492  0.1676  0.1387 -0.6357
36409SOL    HW115832   0.736   5.531   8.439  2.3719  0.1650  0.0129
36409SOL    HW215833   0.806   5.421   8.516 -0.7270 -1.3633  0.8027
36410SOL     OW15834   3.161   2.092   4.014 -0.0526 -0.7105 -0.1951
36410SOL    HW115835   3.109   2.014   4.030  1.2270 -1.8952 -1.5340
36410SOL    HW215836   3.208   2.073   3.933 -0.1718  1.6992 -0.9088
36411SOL     OW15837  10.822   1.695   8.076 -0.0507 -0.4200  0.4999
36411SOL    HW115838  10.856   1.613   8.112  0.1758 -0.1100  1.0148
36411SOL    HW215839  10.852   1.762   8.138 -0.6207 -0.0024  0.3327
36412SOL     OW15840  12.720   1.847   9.144 -0.3944 -0.5121 -0.5351
36412SOL    HW115841  12.798   1.869   9.094  0.2642  0.8506  0.9795
36412SOL    HW215842  12.658   1.918   9.125 -0.6306 -0.6804 -0.4088
36413SOL     OW15843   0.544   9.045  10.694 -0.1060  0.2207  0.2923
36413SOL    HW115844   0.512   8.982  10.760 -0.6693  1.6327  1.4153
36413SOL    HW215845   0.465   9.084  10.657  0.1989 -0.6405 -1.3772
36414SOL     OW15846   7.565  10.486   9.523 -0.3071 -0.0781 -0.3705
36414SOL    HW115847   7.501  10.448   9.584 -0.2633  1.2633  0.5730
36414SOL    HW215848   7.521  10.564   9.489  0.4718  0.3413 -0.4265
36415SOL     OW15849   4.943   7.957  10.976 -0.5465 -1.0094  0.1028
36415SOL    HW115850   4.848   7.961  10.975 -0.5383  0.4448  1.1933
36415SOL    HW215851   4.966   7.953  11.069  0.4637 -0.0925 -0.0786
36416SOL     OW15852   4.737   7.072   8.220  0.0234  0.1189  0.3160
36416SOL    HW115853   4.723   7.162   8.188 -0.8914 -0.4877 -1.1196
36416SOL    HW215854   4.649   7.041   8.240  0.5063  0.2028  2.8389
36417SOL     OW15855  10.212   6.693   8.695 -0.2633  0.0109 -0.2085
36417SOL    HW115856  10.205   6.611   8.645 -1.0167 -1.7387  2.5282
36417SOL    HW215857  10.152   6.753   8.651 -1.5383 -1.7145 -0.9423
36418SOL     OW15858   5.559  12.755   6.117 -0.2648  0.3525 -0.1135
36418SOL    HW115859   5.513  12.783   6.196 -0.7866  0.4988 -0.4605
36418SOL    HW215860   5.503  12.687   6.079 -0.5924  1.0663 -0.9473
36419SOL     OW15861  12.746   3.850   8.996 -0.0509  0.2141  0.1399
36419SOL    HW115862  12.840   3.865   8.981 -0.4983  2.5535 -0.7790
36419SOL    HW215863  12.727   3.895   9.078 -0.3719 -0.2220  0.3055
36420SOL     OW15864  12.376   2.245  12.413 -0.7194  0.1246 -0.5929
36420SOL    HW115865  12.369   2.317  12.476  0.7880 -0.9779  0.9097
36420SOL    HW215866  12.456   2.199  12.437 -1.3085 -1.7122 -1.8919
36421SOL     OW15867   3.135   3.007   4.600  0.2578  0.4934 -0.1733
36421SOL    HW115868   3.122   2.978   4.691  1.6754 -0.5336 -0.2699
36421SOL    HW215869   3.170   3.096   4.608 -0.3610  0.7085  0.2501
36422SOL     OW15870  10.988   9.953  11.433  0.1502 -0.0303 -0.6738
36422SOL    HW115871  10.906   9.904  11.423 -0.1822  0.6476 -1.4302
36422SOL    HW215872  10.979   9.998  11.517 -0.2692  0.0565 -0.7610
36423SOL     OW15873   8.223   5.922   2.006 -0.3814  0.4422 -0.2295
36423SOL    HW115874   8.313   5.892   2.020  0.3380  2.6154  0.1959
36423SOL    HW215875   8.196   5.879   1.924  0.8051 -0.6927 -0.0676
36424SOL     OW15876   0.809   6.097   6.242 -0.4009  0.2157  0.1935
36424SOL    HW115877   0.814   6.082   6.148  0.1159  0.4354  0.1852
36424SOL    HW215878   0.717   6.119   6.258 -0.8659 -1.4232 -0.0165
36425SOL     OW15879   6.997   5.776   3.674 -0.6443  0.0432 -0.5288
36425SOL    HW115880   6.969   5.796   3.585  0.3056  1.9701 -0.4575
36425SOL    HW215881   6.951   5.840   3.729  1.7197  1.5578 -0.1402
36426SOL     OW15882   3.001   6.934   5.907 -0.0804  0.4575 -0.2733
36426SOL    HW115883   3.092   6.927   5.935 -0.1061  3.2748  0.8413
36426SOL    HW215884   2.993   6.872   5.835  2.7835  0.3403 -0.6018
36427SOL     OW15885   5.835   9.884  11.968 -0.3848  0.6073 -0.0905
36427SOL    HW115886   5.754   9.910  11.925  0.1787 -0.5416 -1.9397
36427SOL    HW215887   5.893   9.855  11.897  1.6860  1.4219  1.1550
36428SOL     OW15888   1.579   2.939   3.107 -0.0791  0.6134  0.5614
36428SOL    HW115889   1.618   2.996   3.041  1.6403  0.5643  1.4762
36428SOL    HW215890   1.572   2.994   3.185  2.7366 -0.6176  1.8246
36429SOL     OW15891  10.671   6.861  11.437  0.1564 -0.8119 -0.6896
36429SOL    HW115892  10.712   6.933  11.484  1.1152 -2.3102  0.8618
36429SOL    HW215893  10.741   6.827  11.381 -0.4914 -0.1509 -1.9486
36430SOL     OW15894   0.230   2.685  10.062 -0.9227  0.4686  0.2197
36430SOL    HW115895   0.261   2.649  10.145  1.3654  3.2824  0.7322
36430SOL    HW215896   0.171   2.757  10.087 -2.9716 -0.7717 -0.7352
36431SOL     OW15897   7.937   1.638  10.512  0.2950 -0.1595  0.1319
36431SOL    HW115898   7.888   1.631  10.594  1.2228  0.3270  0.7502
36431SOL    HW215899   7.876   1.678  10.451 -0.4273 -0.5658  0.5662
36432SOL     OW15900   4.067  10.730   2.532 -0.2110 -0.2221  0.9820
36432SOL    HW115901   4.115  10.736   2.449  2.0517  0.9474  2.2637
36432SOL    HW215902   3.977  10.712   2.507  0.3964  0.1013 -1.7279
36433SOL     OW15903   7.316  10.413   1.010 -0.3129 -0.5142 -0.0489
36433SOL    HW115904   7.397  10.393   0.962  1.1886  1.4312  1.5029
36433SOL    HW215905   7.246  10.395   0.948  1.4843  1.8291 -3.0418
36434SOL     OW15906  12.644  10.787   2.862  0.1362 -0.8150 -0.1588
36434SOL    HW115907  12.644  10.730   2.938  2.1431 -0.1353  0.4023
36434SOL    HW215908  12.709  10.855   2.883  0.1769 -0.1868 -2.1506
36435SOL     OW15909   0.300  11.400  11.070  0.4049  0.0487  0.0046
36435SOL    HW115910   0.371  11.455  11.102  0.5184  0.7430 -1.3571
36435SOL    HW215911   0.317  11.392  10.976 -1.0114 -0.2337 -0.2443
36436SOL     OW15912   1.258   2.011   1.035 -0.8372  0.1119  0.8906
36436SOL    HW115913   1.271   1.920   1.009  1.9138  1.0516 -1.6276
36436SOL    HW215914   1.205   2.049   0.965  0.1081  0.9699  0.6153
36437SOL     OW15915   2.889   1.805   8.112 -0.1382  0.1353 -0.1613
36437SOL    HW115916   2.903   1.876   8.174 -2.3123  0.3534  0.1504
36437SOL    HW215917   2.913   1.843   8.027  1.2018  0.3781  0.2981
36438SOL     OW15918   9.754   8.435  12.786 -0.5005  0.2292 -0.2380
36438SOL    HW115919   9.768   8.529  12.771  0.5632  0.1207 -0.0486
36438SOL    HW215920   9.762   8.396  12.699 -0.0250  0.2173 -0.1903
36439SOL     OW15921   1.623   4.965  12.463 -0.5898  0.2979  0.2642
36439SOL    HW115922   1.540   4.964  12.510 -0.7848  2.5175  0.0910
36439SOL    HW215923   1.689   4.983  12.531 -0.5390  0.6997  0.1171
36440SOL     OW15924   8.146   0.984   9.611  0.2682  0.0411  0.7194
36440SOL    HW115925   8.084   1.014   9.544 -2.5327 -0.5624  2.8701
36440SOL    HW215926   8.134   0.889   9.613  2.1270 -0.2339  0.4634
36441SOL     OW15927   1.005   3.316   0.255 -0.9443  0.4769 -0.1824
36441SOL    HW115928   1.087   3.274   0.283 -2.0945 -1.3097  0.6716
36441SOL    HW215929   0.964   3.253   0.197 -0.8315  2.2105 -2.2722
36442SOL     OW15930   2.409  11.207   8.729 -0.0382 -0.3693 -0.0247
36442SOL    HW115931   2.449  11.293   8.740  1.5855 -0.7679 -2.0952
36442SOL    HW215932   2.357  11.194   8.808  0.0899  2.2662  0.5867
36443SOL     OW15933   4.492   2.798   2.573  0.2949 -0.1838 -0.2420
36443SOL    HW115934   4.529   2.715   2.543  0.0915  0.0549 -1.1648
36443SOL    HW215935   4.399   2.793   2.552  0.2066  0.1256  0.0567
36444SOL     OW15936   0.408  10.838  11.265 -0.1856  0.1595  0.3123
36444SOL    HW115937   0.366  10.911  11.220 -3.6763 -1.1089  1.1773
36444SOL    HW215938   0.428  10.775  11.196  0.7576  0.9727 -0.1750
36445SOL     OW15939   2.224   7.627   9.493 -0.1007 -0.0343  0.9257
36445SOL    HW115940   2.280   7.598   9.422 -1.9392 -0.2495 -0.4921
36445SOL    HW215941   2.174   7.700   9.457 -2.3442 -1.2490  1.3415
36446SOL     OW15942   4.190   1.848   4.747 -0.1055  0.1612  0.0971
36446SOL    HW115943   4.281   1.821   4.761 -0.3890 -1.4941 -0.9814
36446SOL    HW215944   4.169   1.817   4.659 -1.3563  1.6098 -0.1685
36447SOL     OW15945   3.504   3.899   8.050 -0.0147  0.4295  0.7423
36447SOL    HW115946   3.541   3.944   7.974 -0.2527 -0.1686  0.2531
36447SOL    HW215947   3.431   3.848   8.013  0.2842 -0.3849  1.2566
36448SOL     OW15948   4.439   9.607   1.489 -0.1056  0.1383  0.1904
36448SOL    HW115949   4.472   9.692   1.461 -1.0209  0.6116  0.5343
36448SOL    HW215950   4.347   9.621   1.509 -0.8697 -1.4293 -1.8648
36449SOL     OW15951   0.025   1.247   2.585 -0.2608  0.1009  0.0700
36449SOL    HW115952  -0.005   1.333   2.555  0.9036  0.3138 -0.5566
36449SOL    HW215953   0.119   1.246   2.565  0.5239  0.0163  3.1581
36450SOL     OW15954  10.028   7.180   6.002 -0.1285  0.0782  0.2563
36450SOL    HW115955  10.025   7.274   5.985 -3.9518  0.1333  0.2507
36450SOL    HW215956   9.947   7.162   6.050 -0.4964 -3.4464 -1.3495
36451SOL     OW15957   0.722   3.932   8.753  0.3793 -0.1113 -0.8512
36451SOL    HW115958   0.727   3.992   8.827 -0.6255 -0.2358 -0.6698
36451SOL    HW215959   0.636   3.891   8.761  0.9887 -1.4994 -1.0280
36452SOL     OW15960   5.028   1.288  11.370 -0.1373 -0.4356  0.2169
36452SOL    HW115961   4.986   1.373  11.386 -0.3266 -0.2586 -1.1748
36452SOL    HW215962   5.023   1.243  11.455  0.4674  1.1399  1.1385
36453SOL     OW15963   2.014   3.363   7.828  0.1838  0.1184 -0.3004
36453SOL    HW115964   2.103   3.340   7.799  0.5338  1.3060 -0.2184
36453SOL    HW215965   1.982   3.423   7.761  0.1765  1.1785  0.6181
36454SOL     OW15966   9.330   4.161   9.123 -0.1112  0.7383 -0.1156
36454SOL    HW115967   9.288   4.094   9.068 -1.1699 -0.0105  1.5086
36454SOL    HW215968   9.332   4.239   9.068  0.6250 -0.4530 -1.8652
36455SOL     OW15969   6.012   3.467  10.588  0.3849  0.1881  0.1812
36455SOL    HW115970   6.044   3.548  10.548  1.4658 -0.8618 -1.1606
36455SOL    HW215971   6.088   3.410  10.591 -0.1374 -0.4846  1.9971
36456SOL     OW15972   2.863   6.952   0.366  0.2434 -0.6141 -0.4078
36456SOL    HW115973   2.896   6.987   0.449  0.5888  0.4800 -0.9860
36456SOL    HW215974   2.877   6.857   0.373 -0.8810 -0.6976  1.2740
36457SOL     OW15975   4.192   1.301   3.420  0.1623 -0.3690  0.2363
36457SOL    HW115976   4.102   1.324   3.444  0.1875 -1.5955  1.6755
36457SOL    HW215977   4.185   1.257   3.336 -0.1852  2.3235 -1.2439
36458SOL     OW15978  10.594   0.308   8.766  0.2021  0.5238  0.2772
36458SOL    HW115979  10.597   0.338   8.675 -0.2613  1.2418  0.4838
36458SOL    HW215980  10.506   0.271   8.776 -0.3233  1.8559  0.8354
36459SOL     OW15981   4.084   4.492   6.698 -0.5131 -0.0079 -0.8174
36459SOL    HW115982   4.066   4.548   6.623  0.8225 -1.4875 -2.3225
36459SOL    HW215983   3.999   4.455   6.721 -1.2092  1.6919 -0.5231
36460SOL     OW15984   6.569   3.952  10.242 -0.1757 -0.2623  0.7228
36460SOL    HW115985   6.481   3.940  10.278 -0.1963 -0.5966  0.5593
36460SOL    HW215986   6.597   4.036  10.278  0.4204 -1.2924  2.7913
36461SOL     OW15987   2.061   7.199   0.434 -0.2501 -0.0106  0.4941
36461SOL    HW115988   1.969   7.193   0.460 -0.6794  1.1367 -0.6369
36461SOL    HW215989   2.082   7.292   0.443  0.9753 -0.3362  1.2413
36462SOL     OW15990   8.345   9.407   2.602 -0.0978 -0.0869  0.3808
36462SOL    HW115991   8.433   9.406   2.567  0.0123 -0.2212  0.6588
36462SOL    HW215992   8.348   9.473   2.672 -0.6779  1.2178 -0.7897
36463SOL     OW15993  11.292  12.636   2.386  0.0790  0.1282  0.6712
36463SOL    HW115994  11.217  12.694   2.393  0.3517  0.5377  0.2842
36463SOL    HW215995  11.301  12.621   2.292  1.5587  1.5420  0.5398
36464SOL     OW15996   3.663   0.717   9.224  0.1271 -0.1326  0.0209
36464SOL    HW115997   3.586   0.661   9.218  0.8151 -0.9955 -1.1135
36464SOL    HW215998   3.656   0.758   9.310 -1.6144 -0.1510 -0.0816
36465SOL     OW15999  11.330  10.804   8.348  0.3164  0.0305  0.2243
36465SOL    HW116000  11.239  10.774   8.343  0.6593 -0.8167 -2.0425
36465SOL    HW216001  11.365  10.760   8.425 -0.3997 -2.0718 -0.5674
36466SOL     OW16002   9.661   1.242   7.428 -0.1046 -0.0568  0.1019
36466SOL    HW116003   9.750   1.253   7.461 -1.3575  1.0864  3.5286
36466SOL    HW216004   9.655   1.301   7.353  2.0264 -0.2998 -0.3184
36467SOL     OW16005   6.359  11.481   5.615 -0.7379 -0.0566 -0.1176
36467SOL    HW116006   6.423  11.461   5.548 -0.1009 -3.0617  1.2262
36467SOL    HW216007   6.409  11.484   5.697 -2.0104 -0.5484  0.7239
36468SOL     OW16008   5.935   3.580   5.646 -0.1524 -0.1466 -0.3287
36468SOL    HW116009   5.893   3.653   5.601 -0.0963  1.6098  2.2686
36468SOL    HW216010   5.863   3.523   5.672 -0.3548 -0.1452 -0.8653
36469SOL     OW16011   4.771   0.023   7.103  0.1505  0.1835  0.3025
36469SOL    HW116012   4.696   0.079   7.083 -1.9424 -2.3381  0.5002
36469SOL    HW216013   4.734  -0.048   7.156  2.2023 -2.4325 -1.5057
36470SOL     OW16014   0.828   2.164   1.194 -0.1421 -0.0406 -0.8332
36470SOL    HW116015   0.888   2.161   1.119  0.9970  1.2823 -0.0327
36470SOL    HW216016   0.885   2.162   1.270 -1.3613 -3.0500  0.1115
36471SOL     OW16017   7.642   0.805   4.173  0.5869  0.5203  0.1438
36471SOL    HW116018   7.694   0.885   4.185  0.9749  0.1957  0.6748
36471SOL    HW216019   7.562   0.821   4.223  1.3987 -0.0831  1.7172
36472SOL     OW16020  10.131  12.448   2.611 -0.0462 -0.0667  0.0352
36472SOL    HW116021  10.100  12.532   2.577  2.2652  1.0162  0.4324
36472SOL    HW216022  10.196  12.419   2.547 -0.3870 -1.2808  0.2189
36473SOL     OW16023   1.299   2.292   0.775  0.5432  0.3592  0.0902
36473SOL    HW116024   1.273   2.377   0.742  0.0171  0.2925  0.3221
36473SOL    HW216025   1.327   2.309   0.865 -0.5617  0.1388  0.4965
36474SOL     OW16026   3.174   0.211   3.034  0.0991 -0.0785  0.3476
36474SOL    HW116027   3.137   0.219   2.947  2.5277  2.3290 -0.6201
36474SOL    HW216028   3.247   0.149   3.024 -0.0895 -0.3953  0.8723
36475SOL     OW16029   7.349   1.668   8.681 -0.4646  0.4692  0.3412
36475SOL    HW116030   7.348   1.694   8.773 -0.0229  1.6416  0.0279
36475SOL    HW216031   7.431   1.619   8.671  0.2354  1.6291  0.2462
36476SOL     OW16032  10.342   3.856   0.212 -0.1315  0.0328 -0.1837
36476SOL    HW116033  10.427   3.896   0.193 -0.0323 -0.3293 -0.5017
36476SOL    HW216034  10.363   3.771   0.251 -0.3514 -0.1245 -0.4066
36477SOL     OW16035   0.163   0.707   1.201 -0.0051 -0.5089  0.6659
36477SOL    HW116036   0.165   0.783   1.259 -0.5863  0.1107 -0.1039
36477SOL    HW216037   0.119   0.639   1.251 -0.7490  0.1042  0.8577
36478SOL     OW16038  10.766   0.923   7.573 -0.3017  0.6726  0.2087
36478SOL    HW116039  10.817   0.854   7.615 -1.4556  0.5031  1.3880
36478SOL    HW216040  10.832   0.987   7.544  0.5770  0.8601  2.4136
36479SOL     OW16041  11.005   1.557   5.785 -0.1250  0.3876  0.0979
36479SOL    HW116042  10.975   1.604   5.863  1.3371  1.4653  0.0638
36479SOL    HW216043  10.998   1.621   5.714 -0.7298 -0.3447 -0.5133
36480SOL     OW16044  11.568   1.942  10.527 -0.0585  0.1940 -0.9528
36480SOL    HW116045  11.612   1.941  10.612  0.7945 -0.3697 -1.3882
36480SOL    HW216046  11.477   1.921  10.548  0.1908 -0.1859 -0.1925
36481SOL     OW16047   7.722   1.070   3.009 -0.3359  0.3090  0.0905
36481SOL    HW116048   7.767   1.149   2.978 -2.3187  1.3464 -0.3772
36481SOL    HW216049   7.673   1.100   3.087 -1.0677 -0.4533 -0.0650
36482SOL     OW16050  11.210   7.576   9.591 -0.0303  0.0046 -0.4704
36482SOL    HW116051  11.275   7.507   9.596  0.1677  0.1795 -0.6330
36482SOL    HW216052  11.138   7.545   9.646  0.1227 -0.2581 -0.4167
36483SOL     OW16053   3.829   3.442   2.291  0.6979  0.1140  0.1215
36483SOL    HW116054   3.786   3.526   2.311  0.7436  0.1201  0.1960
36483SOL    HW216055   3.757   3.378   2.291  0.8604 -0.1262  1.7071
36484SOL     OW16056  12.676   3.099  11.048 -0.4690 -0.4564  0.3447
36484SOL    HW116057  12.679   3.036  10.975 -0.1365 -0.2163  0.1491
36484SOL    HW216058  12.751   3.155  11.034  0.6867 -1.5236  1.8807
36485SOL     OW16059   3.828   2.197   7.369 -0.0878 -0.1750  0.5437
36485SOL    HW116060   3.741   2.187   7.331 -0.3771  3.4236 -0.0211
36485SOL    HW216061   3.821   2.156   7.456 -2.3528  0.0202  0.5117
36486SOL     OW16062   1.005   7.461   9.970 -0.3841  0.3533 -0.0398
36486SOL    HW116063   1.016   7.549   9.934  2.1646 -0.6364 -2.0294
36486SOL    HW216064   0.955   7.414   9.902 -1.4304  0.1375  0.8511
36487SOL     OW16065   6.650   5.712   1.041  0.2043 -0.0380  0.0726
36487SOL    HW116066   6.645   5.807   1.028 -0.4254 -0.2494 -1.4705
36487SOL    HW216067   6.679   5.702   1.131  1.7474  1.6261 -0.1731
36488SOL     OW16068  12.654   2.944   7.373 -0.1361  0.3060  0.4666
36488SOL    HW116069  12.701   2.864   7.350 -0.4654  0.1128  0.4517
36488SOL    HW216070  12.574   2.913   7.416 -0.1246  0.6336  0.7301
36489SOL     OW16071  11.759   4.148  11.210 -0.0109  0.1714 -0.2217
36489SOL    HW116072  11.749   4.230  11.163  1.4268  0.0244 -0.8465
36489SOL    HW216073  11.708   4.159  11.290  0.8626  2.0156  0.1358
36490SOL     OW16074   9.760   0.876   1.050  0.5706  0.0029  0.2144
36490SOL    HW116075   9.728   0.787   1.064 -1.3883  0.4792 -0.7586
36490SOL    HW216076   9.756   0.917   1.136  1.2961 -0.7757  0.6335
36491SOL     OW16077   3.826   9.013   6.138  0.6179  0.4393  0.2808
36491SOL    HW116078   3.741   8.977   6.164  1.3318 -0.8741  0.8354
36491SOL    HW216079   3.877   9.017   6.219  1.5897 -0.1832 -0.2791
36492SOL     OW16080   3.053   2.376   2.472  0.5083  0.0518  1.0678
36492SOL    HW116081   3.147   2.370   2.457  0.4241  1.1336 -0.0350
36492SOL    HW216082   3.013   2.339   2.394  0.0411  1.2558  0.7143
36493SOL     OW16083  12.199   1.299   1.484 -0.1613  0.0242 -0.7787
36493SOL    HW116084  12.274   1.340   1.441  0.1047  0.6244  0.2220
36493SOL    HW216085  12.132   1.368   1.488  0.5674  0.7104  1.6323
36494SOL     OW16086   8.016   8.650   2.632 -0.1691 -0.1993 -0.3699
36494SOL    HW116087   7.930   8.691   2.622 -0.4749 -0.7679 -0.1285
36494SOL    HW216088   8.068   8.714   2.679 -0.7843 -0.2770  0.4280
36495SOL     OW16089  12.672  12.524   9.576  0.0805  0.2402  0.3236
36495SOL    HW116090  12.645  12.611   9.545  1.2461  0.7748  0.7746
36495SOL    HW216091  12.741  12.541   9.640  0.6033 -1.0414  0.1311
36496SOL     OW16092   1.088   0.318   3.828 -0.5091  0.0445 -0.1494
36496SOL    HW116093   1.040   0.345   3.907 -1.5185 -1.4179 -0.2280
36496SOL    HW216094   1.134   0.239   3.854 -0.7390 -0.3696 -0.9783
36497SOL     OW16095  12.260   0.871   1.070  0.4135 -0.1114 -0.1996
36497SOL    HW116096  12.284   0.904   1.157 -1.1254  0.9482 -0.1247
36497SOL    HW216097  12.336   0.889   1.016  0.4643  1.6082  0.3684
36498SOL     OW16098   3.395   2.890   1.005 -0.1053 -0.0921  0.0350
36498SOL    HW116099   3.410   2.964   1.064  2.0918  0.0901 -0.6853
36498SOL    HW216100   3.363   2.930   0.924  1.4555  0.1749 -0.4908
36499SOL     OW16101   6.169  10.902   3.321 -0.0246  0.5453  0.1590
36499SOL    HW116102   6.204  10.813   3.327  0.8410  0.5898 -2.7692
36499SOL    HW216103   6.082  10.896   3.362 -0.0305 -1.6616 -0.0504
36500SOL     OW16104  11.293   7.664   4.587 -0.3666 -0.2352 -0.0058
36500SOL    HW116105  11.316   7.673   4.679  2.3185  0.9338 -0.6941
36500SOL    HW216106  11.222   7.727   4.573 -0.5456 -0.1599  1.1380
36501SOL     OW16107   8.086   2.986   5.300 -0.1903  0.0993 -0.3071
36501SOL    HW116108   8.105   2.896   5.326  0.5550  0.2215 -0.4147
36501SOL    HW216109   8.100   3.038   5.380  0.3072  0.2404 -0.4854
36502SOL     OW16110   9.294  12.437   2.846  0.3419  0.0571  0.8279
36502SOL    HW116111   9.285  12.469   2.936  0.7965 -1.0654  1.3040
36502SOL    HW216112   9.302  12.342   2.856 -2.9612 -0.5070 -0.6283
36503SOL     OW16113   3.598   4.402   2.978 -0.3122  0.0681  0.3420
36503SOL    HW116114   3.561   4.346   2.910  0.3203  0.9816 -0.8062
36503SOL    HW216115   3.543   4.481   2.977  0.1167  0.3731  0.4063
36504SOL     OW16116  10.694   1.492   3.832 -0.4698  0.6400 -0.1787
36504SOL    HW116117  10.702   1.577   3.788  0.1052  0.3350 -0.6913
36504SOL    HW216118  10.785   1.463   3.844 -0.6600 -0.2284 -0.6800
36505SOL     OW16119  11.392  11.223   3.213  0.5584  0.0496  0.2522
36505SOL    HW116120  11.444  11.160   3.162  1.1916 -0.2210  1.1827
36505SOL    HW216121  11.458  11.282   3.251  0.1139  0.2016  0.7952
36506SOL     OW16122  12.613   8.070   9.140 -0.5489  0.0850 -0.0646
36506SOL    HW116123  12.696   8.050   9.098 -1.3103 -1.5016 -0.8943
36506SOL    HW216124  12.547   8.035   9.080 -1.9004  2.5379 -0.1139
36507SOL     OW16125  12.376   3.998   0.223  0.5151 -0.5113  0.1365
36507SOL    HW116126  12.470   3.999   0.209  0.8390 -1.5037  1.8470
36507SOL    HW216127  12.350   3.909   0.200  0.3391 -0.8046  1.3840
36508SOL     OW16128  10.792   8.204   5.236 -0.0949 -0.3160 -0.2774
36508SOL    HW116129  10.707   8.178   5.271  0.0256  0.4841  0.6491
36508SOL    HW216130  10.855   8.147   5.279 -0.1610 -0.9594 -1.0200
36509SOL     OW16131  11.206   8.320   7.743  0.6131  0.0889 -0.0231
36509SOL    HW116132  11.158   8.277   7.814  1.9872  0.6412  1.2989
36509SOL    HW216133  11.294   8.284   7.748  0.8066  0.3452 -1.2864
36510SOL     OW16134   6.449   2.770  12.535  0.0886 -0.2605  0.0622
36510SOL    HW116135   6.532   2.752  12.491  1.0211  0.5823  1.3783
36510SOL    HW216136   6.384   2.720  12.486  1.0148  0.7455 -2.3268
36511SOL     OW16137  10.743   0.334  12.387  0.0492 -0.0381  0.0938
36511SOL    HW116138  10.791   0.404  12.342 -0.3872  0.2481  0.0619
36511SOL    HW216139  10.659   0.375  12.411  0.6941  0.1729  2.1748
36512SOL     OW16140  11.154   7.531   4.257  0.2475 -0.2283 -0.0951
36512SOL    HW116141  11.061   7.520   4.237  0.4817 -0.7900 -0.9572
36512SOL    HW216142  11.186   7.442   4.271  0.8973 -0.1488 -1.0022
36513SOL     OW16143   7.869  10.885   2.239  0.4663 -0.2021  0.1661
36513SOL    HW116144   7.877  10.791   2.219  1.2511 -0.0022 -0.5589
36513SOL    HW216145   7.857  10.926   2.153  0.1895  0.3661  0.4742
36514SOL     OW16146   6.744   2.808   8.391 -0.2546 -0.6226 -0.3285
36514SOL    HW116147   6.802   2.812   8.467 -1.1072 -0.6055  0.3275
36514SOL    HW216148   6.782   2.739   8.336  1.7538  0.9612 -1.0785
36515SOL     OW16149   3.847  11.801   5.992 -0.2064 -0.2833 -0.0167
36515SOL    HW116150   3.924  11.850   5.962 -0.4499 -0.0952 -0.3381
36515SOL    HW216151   3.807  11.767   5.912 -1.3501  0.9505 -0.0061
36516SOL     OW16152   0.654   2.251   5.689  0.1639  0.1685  0.2942
36516SOL    HW116153   0.732   2.203   5.662  1.4144  0.5239  2.9924
36516SOL    HW216154   0.649   2.238   5.784 -1.9393  1.8035  0.4851
36517SOL     OW16155  11.418  10.530  10.692 -0.3507 -0.4511  0.3530
36517SOL    HW116156  11.395  10.597  10.627  0.3607 -0.8105 -0.2891
36517SOL    HW216157  11.378  10.561  10.773  1.3619  1.6524  0.4994
36518SOL     OW16158   9.158   7.223   5.543 -0.0915  0.1699 -0.4600
36518SOL    HW116159   9.185   7.179   5.623 -0.5543 -1.7193 -1.2853
36518SOL    HW216160   9.067   7.247   5.558 -0.3399 -0.6617 -0.5912
36519SOL     OW16161  11.527   1.684   7.098  0.1481  0.1384  0.4391
36519SOL    HW116162  11.519   1.613   7.162 -0.7954 -1.3590 -1.2446
36519SOL    HW216163  11.439   1.692   7.061  0.4882  1.5205 -0.0981
36520SOL     OW16164   4.667   2.204   5.382  0.1016  0.2945 -0.3574
36520SOL    HW116165   4.626   2.119   5.367 -0.2416  0.6836 -1.6641
36520SOL    HW216166   4.594   2.263   5.400  0.3758  0.2236  1.1383
36521SOL     OW16167   6.657   7.137   0.849 -0.2222  0.4287  0.4594
36521SOL    HW116168   6.704   7.214   0.817  0.4501 -0.1836 -0.0629
36521SOL    HW216169   6.578   7.134   0.795  0.9771 -0.6830 -1.3447
36522SOL     OW16170   5.270   3.985  12.421 -0.1998  0.2018 -0.2100
36522SOL    HW116171   5.197   3.931  12.389 -0.0399 -0.2051  0.1050
36522SOL    HW216172   5.233   4.073  12.429 -0.7727 -0.0813  0.3443
36523SOL     OW16173   5.016  12.685  11.322  0.3420 -0.2675  0.0147
36523SOL    HW116174   4.993  12.724  11.406 -3.4564  1.5751 -1.6607
36523SOL    HW216175   5.018  12.758  11.261  0.9898 -1.7952 -1.8986
36524SOL     OW16176   7.865   7.053   6.348  0.3425 -0.2119 -0.0622
36524SOL    HW116177   7.848   6.960   6.339 -1.7312 -0.1106  1.8734
36524SOL    HW216178   7.825   7.077   6.432  0.0118  2.5711 -0.8946
36525SOL     OW16179   3.681   8.598   5.976  0.5051 -0.0700 -0.4118
36525SOL    HW116180   3.727   8.634   5.900 -0.8492 -1.1835 -1.8160
36525SOL    HW216181   3.591   8.628   5.967 -0.0911 -1.7070 -0.2543
36526SOL     OW16182   9.720  10.645   5.418  0.8103 -0.0996  0.1101
36526SOL    HW116183   9.630  10.676   5.431  0.6034 -0.3520 -0.6717
36526SOL    HW216184   9.711  10.571   5.358  1.6182  0.4205 -0.6847
36527SOL     OW16185   5.491   8.262   0.825 -0.7851  0.5731  0.0087
36527SOL    HW116186   5.558   8.224   0.769  1.3161  1.5746  1.7087
36527SOL    HW216187   5.515   8.235   0.913 -1.8182  2.1048  0.8083
36528SOL     OW16188  10.089   8.150   1.037 -0.0266  0.0698 -0.1681
36528SOL    HW116189  10.051   8.098   0.967 -2.2200  1.9371 -0.4917
36528SOL    HW216190  10.162   8.098   1.069 -0.4588 -1.9346 -2.2027
36529SOL     OW16191   2.808   8.957   0.593  0.0019 -0.6670  0.4633
36529SOL    HW116192   2.903   8.952   0.584  0.1009  0.9052  0.3167
36529SOL    HW216193   2.776   8.974   0.504 -0.6595 -3.4895  0.0766
36530SOL     OW16194   8.168   9.908   1.189 -0.4825  0.3804 -0.0595
36530SOL    HW116195   8.080   9.877   1.166 -1.0884  2.2645 -0.5102
36530SOL    HW216196   8.206   9.936   1.105 -0.3843  1.7339  0.4032
36531SOL     OW16197  12.373   8.766   0.673  0.1862  0.2151 -0.1876
36531SOL    HW116198  12.456   8.775   0.720 -0.2343  0.5269  0.5029
36531SOL    HW216199  12.343   8.856   0.660  0.4883  0.1552 -1.4158
36532SOL     OW16200   5.067   1.326  12.559 -0.1976  0.0691 -0.5197
36532SOL    HW116201   5.135   1.271  12.599 -1.1641 -0.7424  0.0456
36532SOL    HW216202   4.989   1.311  12.612 -0.5184  1.9646 -0.3840
36533SOL     OW16203   0.719   5.319   9.222 -0.6165 -0.3106  0.5130
36533SOL    HW116204   0.676   5.391   9.268 -1.3533 -0.5096  0.1639
36533SOL    HW216205   0.798   5.301   9.272 -1.1338 -0.1754  1.3969
36534SOL     OW16206  12.772   1.955   2.309  0.1317  0.0037  0.4435
36534SOL    HW116207  12.792   2.042   2.345  0.9869 -0.8489  2.1641
36534SOL    HW216208  12.730   1.909   2.381 -1.3794 -0.6729 -0.8148
36535SOL     OW16209  12.227   3.024   1.682 -0.1665 -0.1728  0.1909
36535SOL    HW116210  12.158   3.090   1.676  0.6553  0.7607  0.7982
36535SOL    HW216211  12.182   2.946   1.715 -0.7536  0.7435  1.6539
36536SOL     OW16212   4.073   6.649   3.585  0.0114  0.0806  0.2759
36536SOL    HW116213   4.163   6.635   3.555 -0.7783 -2.7850 -1.1004
36536SOL    HW216214   4.060   6.583   3.653 -1.1401  0.2029  0.1977
36537SOL     OW16215   8.528   3.662  10.924  0.2867  0.6052  0.4126
36537SOL    HW116216   8.578   3.624  10.851 -0.6881  0.2421 -0.0831
36537SOL    HW216217   8.510   3.752  10.896 -0.5457  0.3054 -0.0476
36538SOL     OW16218   2.306   8.667   1.945  0.0585  0.1178  0.1207
36538SOL    HW116219   2.371   8.661   2.015 -0.4154  1.2547  0.6820
36538SOL    HW216220   2.235   8.719   1.983 -0.6540 -0.0985 -0.8811
36539SOL     OW16221   6.221   7.977   5.015  0.1385  0.0688 -0.1264
36539SOL    HW116222   6.217   8.056   4.961  0.7312  0.7896  0.8507
36539SOL    HW216223   6.164   7.996   5.089 -1.5961 -1.3664 -1.0114
36540SOL     OW16224   6.377   9.815   2.381  0.2114 -0.6476 -0.2503
36540SOL    HW116225   6.469   9.790   2.393  0.8618  1.4352 -0.4058
36540SOL    HW216226   6.354   9.858   2.464 -0.9994 -2.0984  0.2041
36541SOL     OW16227  11.401  11.618   8.054 -0.4531  0.8032  0.0826
36541SOL    HW116228  11.345  11.593   8.127 -0.1066  0.9332  0.3966
36541SOL    HW216229  11.482  11.649   8.095  0.3814 -0.6625 -0.3988
36542SOL     OW16230   3.321   2.607   0.806 -0.3879  0.6768 -0.5071
36542SOL    HW116231   3.383   2.676   0.829  0.4608 -0.2785  0.1846
36542SOL    HW216232   3.370   2.551   0.746 -0.9837  0.5476 -0.8757
36543SOL     OW16233   9.492   5.011   1.506 -0.1512  0.2977  0.2880
36543SOL    HW116234   9.404   5.014   1.544 -0.3175 -0.7673  0.0113
36543SOL    HW216235   9.495   5.086   1.447 -0.2273  1.4076  1.6317
36544SOL     OW16236  10.071   2.640   4.913 -0.5957  0.3722  0.2881
36544SOL    HW116237  10.017   2.594   4.978 -3.3745  1.6879 -0.9285
36544SOL    HW216238  10.104   2.717   4.959 -1.8630  0.8631  0.3963
36545SOL     OW16239   1.698  10.627   9.688 -0.0143 -0.1586  0.0924
36545SOL    HW116240   1.661  10.567   9.623  1.1862 -0.9266  0.0642
36545SOL    HW216241   1.685  10.714   9.651 -1.1392 -0.4513 -0.2194
36546SOL     OW16242   1.435  11.805   5.966  0.2934 -0.5174  0.0920
36546SOL    HW116243   1.340  11.811   5.956  0.3803 -1.1292 -1.4166
36546SOL    HW216244   1.469  11.873   5.906  0.8202 -1.8895 -1.2282
36547SOL     OW16245  10.388   1.282   6.772 -0.0422 -0.0009 -0.3350
36547SOL    HW116246  10.419   1.195   6.798  0.3562  0.2283 -0.0343
36547SOL    HW216247  10.300   1.288   6.808  0.6611  0.4858  1.4094
36548SOL     OW16248   6.887   1.737   1.780  0.4007 -0.2193 -0.3092
36548SOL    HW116249   6.978   1.765   1.768  0.1776  1.1902  0.9746
36548SOL    HW216250   6.854   1.793   1.851 -2.2171  1.1199 -2.4132
36549SOL     OW16251   2.881   4.753   0.305  0.0148 -1.0234 -1.0080
36549SOL    HW116252   2.843   4.743   0.218  0.3622  0.2238 -1.3180
36549SOL    HW216253   2.814   4.799   0.355 -0.2201 -1.8177 -0.5777
36550SOL     OW16254   4.383   0.278   1.617  0.3918  0.1655 -0.3593
36550SOL    HW116255   4.470   0.300   1.584  0.2586  0.5201 -0.4772
36550SOL    HW216256   4.353   0.358   1.660  2.0918 -1.2294  4.0828
36551SOL     OW16257   6.196   8.130   9.712 -0.1968 -0.2294 -0.2624
36551SOL    HW116258   6.253   8.131   9.635 -0.9635  0.7199 -0.8503
36551SOL    HW216259   6.255   8.113   9.785  0.2965 -3.2272 -1.2113
36552SOL     OW16260   9.328   9.763   4.544 -0.1259 -0.3092 -0.0045
36552SOL    HW116261   9.315   9.845   4.591 -0.3350 -0.3251 -0.0376
36552SOL    HW216262   9.334   9.697   4.614 -2.8206 -0.6904 -0.0491
36553SOL     OW16263   3.361   2.087   8.394  0.0604 -0.4827  0.2323
36553SOL    HW116264   3.341   2.076   8.300  1.4567  3.2465 -0.6890
36553SOL    HW216265   3.455   2.071   8.401  0.2787  0.8434  0.6195
36554SOL     OW16266  10.365   8.319   0.120 -0.2280 -0.0853 -0.3650
36554SOL    HW116267  10.298   8.266   0.077 -0.6169 -0.4648  0.6610
36554SOL    HW216268  10.361   8.292   0.212  3.3804 -2.3245 -0.6704
36555SOL     OW16269   4.214   9.178   7.270  0.4532 -0.2916  0.3523
36555SOL    HW116270   4.213   9.268   7.239  0.6733 -0.2423  0.4921
36555SOL    HW216271   4.303   9.148   7.255  1.1444  0.3515  2.7447
36556SOL     OW16272  11.320  10.827  12.259 -0.3660 -0.0894 -0.0500
36556SOL    HW116273  11.290  10.918  12.259  0.1284  0.1378 -2.1019
36556SOL    HW216274  11.362  10.815  12.344  0.7207  2.0358 -0.2138
36557SOL     OW16275   1.195   4.810   2.367  0.0121  0.0726  0.0746
36557SOL    HW116276   1.222   4.848   2.451  0.7064 -0.6083  0.1666
36557SOL    HW216277   1.116   4.859   2.343  1.3581  2.1821 -0.2531
36558SOL     OW16278   8.507   9.998   3.025  0.1281 -0.5398 -0.0227
36558SOL    HW116279   8.448   9.933   3.063  1.7005 -1.2574  1.3716
36558SOL    HW216280   8.586   9.993   3.080  0.5678  2.1007 -0.2806
36559SOL     OW16281  12.108   6.647  11.733  0.1566  0.6368 -0.2165
36559SOL    HW116282  12.058   6.701  11.794  0.5608  0.1884  0.5100
36559SOL    HW216283  12.041   6.599  11.684 -0.1397 -0.4664  1.2129
36560SOL     OW16284   8.779   5.911   2.840  0.2156 -0.2420 -0.0675
36560SOL    HW116285   8.803   5.891   2.749 -2.1859  1.0364 -1.0895
36560SOL    HW216286   8.851   5.965   2.872  0.8291 -0.1937 -1.4302
36561SOL     OW16287   9.632  11.109   6.993 -0.1142  0.1543 -0.3416
36561SOL    HW116288   9.560  11.053   6.962 -0.4490  1.0828 -1.3034
36561SOL    HW216289   9.616  11.193   6.951  1.0495  0.6320  0.1467
36562SOL     OW16290   7.065   1.265   9.021 -0.1659 -0.4206  0.4952
36562SOL    HW116291   7.024   1.212   9.090  0.8530  0.4728  1.8201
36562SOL    HW216292   7.074   1.352   9.059 -0.3760  0.3382 -1.0976
36563SOL     OW16293   2.383   2.119   8.091 -0.0484  0.3295  0.5545
36563SOL    HW116294   2.325   2.195   8.087  1.7284  1.7641  0.6958
36563SOL    HW216295   2.437   2.134   8.168  0.6898 -0.8336  0.2817
36564SOL     OW16296   5.866  10.730   4.044 -0.2583  0.0224  0.1100
36564SOL    HW116297   5.920  10.788   4.098  0.6601  0.5328 -1.2852
36564SOL    HW216298   5.848  10.655   4.100 -0.9318  1.3457  1.7462
36565SOL     OW16299  12.600   4.191   4.489 -0.0554 -0.2874 -0.1623
36565SOL    HW116300  12.622   4.108   4.530  1.1255  0.4729  0.8086
36565SOL    HW216301  12.670   4.207   4.427  0.2236  0.4152  0.3208
36566SOL     OW16302  11.826  12.578  10.865 -0.0032 -0.1523 -0.2878
36566SOL    HW116303  11.791  12.640  10.930  0.2845 -0.3506  0.0627
36566SOL    HW216304  11.889  12.526  10.915  0.0119 -0.4931 -0.6673
36567SOL     OW16305  12.002   4.167   5.580  0.1462  0.0839 -0.5809
36567SOL    HW116306  12.077   4.108   5.592 -1.4433 -2.1126 -0.8832
36567SOL    HW216307  11.958   4.135   5.502 -2.3463 -0.1402  0.8092
36568SOL     OW16308   6.065   0.173   6.140  0.6345 -0.3514 -0.2435
36568SOL    HW116309   6.002   0.242   6.118  0.1164 -1.1068 -1.2392
36568SOL    HW216310   6.144   0.196   6.092  0.4905 -0.4040 -0.5070
36569SOL     OW16311   1.142   6.126  10.578  0.0916 -0.2625  0.1417
36569SOL    HW116312   1.083   6.063  10.618  1.5053 -0.0429  2.8432
36569SOL    HW216313   1.223   6.119  10.629  1.3664  1.5673 -1.4498
36570SOL     OW16314   2.892   9.156   6.868 -0.3669  0.2627  0.2169
36570SOL    HW116315   2.982   9.132   6.889 -0.1986  1.1636  0.6018
36570SOL    HW216316   2.890   9.252   6.876 -1.1389  0.3439 -0.6561
36571SOL     OW16317   6.446   9.358   3.643 -0.3185  0.1373  0.6311
36571SOL    HW116318   6.514   9.392   3.700 -0.9422  1.2370  0.7369
36571SOL    HW216319   6.467   9.395   3.557 -0.8552  0.5958  0.6942
36572SOL     OW16320   0.251   1.954   3.463  0.4157 -0.3071  0.2017
36572SOL    HW116321   0.331   1.907   3.487  1.1844  0.3162 -1.0724
36572SOL    HW216322   0.273   2.046   3.476 -1.0646 -0.2081  2.6394
36573SOL     OW16323   4.488   1.693   7.495 -0.2253 -0.3611  0.4544
36573SOL    HW116324   4.559   1.651   7.544 -0.0081  0.0388  0.4854
36573SOL    HW216325   4.500   1.787   7.512 -1.9669 -0.3893  2.1370
36574SOL     OW16326  12.495   2.529  12.354  0.1428  0.0862  0.0716
36574SOL    HW116327  12.470   2.461  12.292  1.2692 -0.9605  0.7100
36574SOL    HW216328  12.486   2.611  12.305  0.6252 -0.6742 -1.3475
36575SOL     OW16329   9.523   0.419  11.984 -0.6491 -0.2775 -0.3439
36575SOL    HW116330   9.455   0.353  11.999 -0.9582  0.2367  0.6389
36575SOL    HW216331   9.604   0.370  11.980 -1.0070 -0.8392 -0.8870
36576SOL     OW16332   8.780   7.543   4.635 -0.2473 -0.1109 -0.0960
36576SOL    HW116333   8.718   7.482   4.596 -0.0009 -0.0886 -0.5271
36576SOL    HW216334   8.802   7.503   4.720  1.8271 -1.9568 -1.3825
36577SOL     OW16335   5.766   1.998  12.065 -0.0975  0.5402 -0.7148
36577SOL    HW116336   5.833   2.001  12.133  0.1441  0.9881 -0.9691
36577SOL    HW216337   5.816   1.993  11.983 -0.3731  0.6871 -0.8925
36578SOL     OW16338   5.764   5.664   4.754 -0.2245  0.5817 -0.0700
36578SOL    HW116339   5.852   5.701   4.746  0.0688 -0.2798 -1.0174
36578SOL    HW216340   5.707   5.726   4.707 -0.6072  2.5507  2.7249
36579SOL     OW16341   5.823   5.234   5.370  0.0546  0.2395  0.1546
36579SOL    HW116342   5.828   5.179   5.292 -0.5567  0.3714  0.0211
36579SOL    HW216343   5.903   5.212   5.419  0.1496 -0.2754 -0.2152
36580SOL     OW16344   4.526   6.369  10.868  0.4757 -0.1969 -0.6102
36580SOL    HW116345   4.534   6.453  10.821 -1.2159 -0.5967 -1.7206
36580SOL    HW216346   4.595   6.314  10.830  1.3802  0.5664 -0.1110
36581SOL     OW16347   3.811  10.585   8.208 -0.1129 -0.3082 -0.0068
36581SOL    HW116348   3.734  10.595   8.264 -0.4400 -1.9738 -0.1254
36581SOL    HW216349   3.875  10.540   8.263 -0.0784 -1.0630 -0.6569
36582SOL     OW16350   3.382   6.908  10.330  0.1676 -0.2681 -0.0068
36582SOL    HW116351   3.386   6.835  10.391 -0.7131 -0.7542 -0.5054
36582SOL    HW216352   3.294   6.903  10.292  0.5659  0.2308 -1.0479
36583SOL     OW16353   9.536   7.143  10.898 -0.5850  0.1507 -0.1773
36583SOL    HW116354   9.516   7.076  10.964 -0.0064  1.4317  1.3781
36583SOL    HW216355   9.542   7.095  10.816  2.6782 -2.2759  1.2406
36584SOL     OW16356   9.412   1.155   6.944  0.2489 -0.2265 -0.1547
36584SOL    HW116357   9.428   1.239   6.902 -0.1022  0.3449  0.8059
36584SOL    HW216358   9.453   1.090   6.887 -0.9318  0.4144 -1.8082
36585SOL     OW16359   1.472  10.541   2.584  0.4552  0.0128 -0.3053
36585SOL    HW116360   1.509  10.477   2.524  0.0503  0.0666 -0.6132
36585SOL    HW216361   1.502  10.625   2.551  2.9117 -0.0706  1.3817
36586SOL     OW16362   6.272   1.026   7.452  0.0597  0.0960 -0.1585
36586SOL    HW116363   6.340   0.990   7.395  1.8214 -1.4355  2.6315
36586SOL    HW216364   6.296   1.119   7.461  0.6374  0.0084 -0.7069
36587SOL     OW16365   0.540   6.631   1.912 -0.4661 -0.2153 -0.5150
36587SOL    HW116366   0.538   6.645   1.818 -1.0964  0.5134 -0.3951
36587SOL    HW216367   0.538   6.719   1.950 -1.1023 -0.5286  0.1949
36588SOL     OW16368   8.428  11.232   9.915  0.1884 -0.0243 -0.0967
36588SOL    HW116369   8.475  11.305   9.956 -0.2115 -0.1119  0.5336
36588SOL    HW216370   8.362  11.272   9.859  1.6107  0.1243 -1.7672
36589SOL     OW16371   3.784  11.117   9.152  0.3423  0.0794 -0.0761
36589SOL    HW116372   3.868  11.110   9.198  0.1801  2.3666  0.7037
36589SOL    HW216373   3.807  11.155   9.067  0.0569  1.8870  0.5958
36590SOL     OW16374   3.813   5.530   3.502 -0.0716 -0.6637 -0.5786
36590SOL    HW116375   3.749   5.514   3.572  0.5332  0.8874  0.4061
36590SOL    HW216376   3.813   5.451   3.450  0.0038 -2.2202  1.6389
36591SOL     OW16377   4.912  11.394  12.111 -0.2220  0.6158 -0.5298
36591SOL    HW116378   5.003  11.367  12.104 -0.7145 -1.4897  0.3796
36591SOL    HW216379   4.916  11.488  12.132  1.7607  0.3887  0.3621
36592SOL     OW16380   2.839   4.443   6.244 -0.3868 -0.3193  0.0994
36592SOL    HW116381   2.768   4.406   6.193 -2.3699 -0.1455  2.5106
36592SOL    HW216382   2.805   4.445   6.334  2.0070  1.4530  1.0776
36593SOL     OW16383  10.448  12.450   9.483 -0.2273  0.7345 -0.4420
36593SOL    HW116384  10.503  12.380   9.518  0.0571  0.8649 -0.6271
36593SOL    HW216385  10.374  12.454   9.544  1.3447  2.4752  1.5286
36594SOL     OW16386   2.362   8.346   6.521 -0.4824 -0.1150  0.2528
36594SOL    HW116387   2.343   8.410   6.453 -3.1031  0.3052  1.2637
36594SOL    HW216388   2.280   8.299   6.534  0.8194 -2.3806  0.9364
36595SOL     OW16389   4.402   3.311   6.170 -1.0346 -0.3763  0.0829
36595SOL    HW116390   4.469   3.357   6.119 -0.5934  2.2163  2.7125
36595SOL    HW216391   4.444   3.292   6.254 -3.1467  0.1753  1.3534
36596SOL     OW16392   0.429   8.438   8.796  0.0006 -0.0761  0.2053
36596SOL    HW116393   0.470   8.503   8.739  2.2703 -0.9927  0.6700
36596SOL    HW216394   0.374   8.489   8.855  0.7404  1.2985 -0.2427
36597SOL     OW16395   4.879   6.026   5.044 -0.8044 -0.2571 -0.5926
36597SOL    HW116396   4.921   6.080   4.977 -0.9383 -1.0284 -1.2986
36597SOL    HW216397   4.811   6.083   5.081  1.7266  1.6131  1.6508
36598SOL     OW16398   1.591   2.566   5.941 -0.0830 -0.0575 -0.1884
36598SOL    HW116399   1.585   2.473   5.920  0.0832  0.0254 -0.6072
36598SOL    HW216400   1.523   2.580   6.007 -1.1669 -0.1578 -1.2462
36599SOL     OW16401   2.493   0.726   0.850  0.2529  0.1083 -0.0920
36599SOL    HW116402   2.472   0.648   0.798  2.0673 -0.5184  0.0363
36599SOL    HW216403   2.586   0.715   0.872 -0.4037  0.3408  3.2568
36600SOL     OW16404   5.356   1.357   6.640  0.1702 -0.2455  0.4177
36600SOL    HW116405   5.442   1.396   6.650 -0.6573  1.3888  1.6947
36600SOL    HW216406   5.297   1.418   6.684 -2.1046  0.4051 -3.0928
36601SOL     OW16407   7.609   7.206   5.910  0.0163  0.0693 -0.5333
36601SOL    HW116408   7.591   7.299   5.899 -1.1734 -0.0346  0.3731
36601SOL    HW216409   7.703   7.198   5.895  0.5376  1.7524  1.4525
36602SOL     OW16410  11.543   7.075   3.213  0.0764  0.2085 -0.3271
36602SOL    HW116411  11.470   7.075   3.275  0.1903  0.1953 -0.1907
36602SOL    HW216412  11.594   6.997   3.236  1.1824  1.2264  0.8328
36603SOL     OW16413  11.770   5.614   7.934  0.7268  0.1468 -0.1785
36603SOL    HW116414  11.684   5.640   7.966 -1.0889 -0.6388 -3.8083
36603SOL    HW216415  11.800   5.547   7.995 -1.0508  0.6757  1.3619
36604SOL     OW16416   9.323   9.065  10.208 -0.0046  0.1795 -0.4010
36604SOL    HW116417   9.409   9.090  10.175 -0.3452 -0.5968 -1.9571
36604SOL    HW216418   9.274   9.147  10.213  0.5108  0.4951 -0.4476
36605SOL     OW16419   4.667   6.754   3.148  0.4963 -0.2288 -0.0672
36605SOL    HW116420   4.604   6.708   3.092  0.2326  0.6372 -0.4978
36605SOL    HW216421   4.732   6.789   3.087  1.2915 -0.9246  0.3523
36606SOL     OW16422   8.460   8.781   8.928  0.4279 -0.2526  0.1331
36606SOL    HW116423   8.431   8.790   8.837  1.5606 -0.7399 -0.2972
36606SOL    HW216424   8.389   8.734   8.971 -1.1901  1.9937  0.0978
36607SOL     OW16425  11.972   5.973   0.283  0.1144 -0.2350 -0.0088
36607SOL    HW116426  11.882   5.994   0.260  0.4224 -0.3671 -1.4029
36607SOL    HW216427  12.026   6.020   0.219  1.0258 -0.4153  0.6010
36608SOL     OW16428   8.765  11.667   6.212  0.0382  0.0659  0.3420
36608SOL    HW116429   8.780  11.643   6.121 -4.8823  0.6204 -0.9444
36608SOL    HW216430   8.704  11.601   6.244  1.1907  0.2196  3.1396
36609SOL     OW16431   4.719   2.430   9.266  0.5974  0.0461 -0.3979
36609SOL    HW116432   4.693   2.388   9.184 -0.4605  0.9989 -0.5644
36609SOL    HW216433   4.650   2.494   9.284  0.6789 -0.3011  1.3594
36610SOL     OW16434   2.871   1.784  11.230  0.3970  0.0268 -0.2972
36610SOL    HW116435   2.944   1.830  11.270  0.3747 -1.0196  1.0432
36610SOL    HW216436   2.814   1.760  11.304 -0.4426 -0.6309 -1.1237
36611SOL     OW16437   3.445   8.489  10.491 -0.4284  0.4208 -0.0860
36611SOL    HW116438   3.483   8.487  10.403 -1.2229 -1.7096 -0.4461
36611SOL    HW216439   3.521   8.487  10.549  0.1051  1.7819 -0.6818
36612SOL     OW16440  11.063   2.836   8.273 -0.2235 -0.1394 -0.0090
36612SOL    HW116441  11.061   2.932   8.270 -1.5159 -0.1607 -0.5334
36612SOL    HW216442  11.000   2.813   8.341  0.8511 -0.6096  0.8427
36613SOL     OW16443   1.916   1.947  10.078  0.1111  0.0363  0.3786
36613SOL    HW116444   1.870   1.983  10.002  1.3206 -1.7104 -1.2798
36613SOL    HW216445   1.904   1.853  10.071  1.4198 -0.2601  1.5893
36614SOL     OW16446  12.194   1.094  10.843  0.5225 -0.4451 -0.3056
36614SOL    HW116447  12.164   1.167  10.789  0.1589  0.6172  1.2845
36614SOL    HW216448  12.120   1.034  10.846  0.0274  0.1724  0.1527
36615SOL     OW16449  10.067  10.962   4.436  0.4672  0.5672 -0.1344
36615SOL    HW116450  10.013  11.030   4.477 -1.4418 -0.7593 -0.3140
36615SOL    HW216451  10.011  10.926   4.367  2.0312 -0.1304 -1.0731
36616SOL     OW16452   8.606  11.516   8.685 -0.1626  0.0112  0.6019
36616SOL    HW116453   8.653  11.515   8.601  1.8223 -0.2411  1.6573
36616SOL    HW216454   8.515  11.530   8.661 -0.1624 -3.0809 -1.8407
36617SOL     OW16455   9.287  12.530   7.081 -0.2263 -0.3017  0.3915
36617SOL    HW116456   9.230  12.491   7.015  0.9375 -0.8548 -0.3352
36617SOL    HW216457   9.283  12.624   7.064  0.6293 -0.4818 -0.9998
36618SOL     OW16458  10.688   6.426   9.287 -0.1220  0.0359 -0.3527
36618SOL    HW116459  10.649   6.438   9.373 -0.8602  1.7211 -0.8924
36618SOL    HW216460  10.778   6.397   9.305 -1.0704 -2.3521  0.9168
36619SOL     OW16461  12.091   9.038   2.061  0.0098  0.1844 -0.0024
36619SOL    HW116462  12.178   9.010   2.036 -0.1891 -1.4920  1.0640
36619SOL    HW216463  12.100   9.069   2.151  0.1438  3.3737 -1.0001
36620SOL     OW16464   3.234   8.927  11.388 -0.0549  0.4233  0.1102
36620SOL    HW116465   3.204   8.836  11.392 -2.5675  1.2326  3.0682
36620SOL    HW216466   3.310   8.929  11.447 -0.9543  0.5245  1.2855
36621SOL     OW16467  11.584   0.439   5.174  0.3407 -0.3365  0.2356
36621SOL    HW116468  11.677   0.462   5.174  0.4087 -0.4695 -1.8225
36621SOL    HW216469  11.540   0.521   5.196  0.8975  0.0358  0.0103
36622SOL     OW16470  10.621  12.712   4.948 -0.6195  0.3812 -0.2055
36622SOL    HW116471  10.677  12.774   4.996 -0.9764 -0.5439  1.4721
36622SOL    HW216472  10.668  12.629   4.954 -1.0873  0.0781 -0.7666
36623SOL     OW16473   0.519   1.169  10.529  0.3181  0.0657  0.0581
36623SOL    HW116474   0.460   1.242  10.509  1.4241  1.0915  0.4529
36623SOL    HW216475   0.519   1.163  10.625 -0.5168 -1.1019  0.0017
36624SOL     OW16476   7.329   8.454   1.354  0.0976 -0.3617 -0.3101
36624SOL    HW116477   7.309   8.503   1.275  1.9177  0.8037 -0.1047
36624SOL    HW216478   7.419   8.480   1.377 -0.5138 -0.3149  2.3722
36625SOL     OW16479   1.948   4.909   4.996  0.0424 -0.0833 -0.3547
36625SOL    HW116480   2.008   4.841   5.028  0.2874  0.3410  0.1169
36625SOL    HW216481   2.006   4.980   4.968 -0.1261 -0.6951 -2.4231
36626SOL     OW16482   7.788   5.398  11.476 -0.3406  0.5061 -0.0316
36626SOL    HW116483   7.858   5.333  11.489  0.1186  0.9548 -0.2128
36626SOL    HW216484   7.731   5.387  11.552 -0.6883 -0.6263 -0.4352
36627SOL     OW16485   7.643   9.631   3.813  0.5053  0.0012 -0.4283
36627SOL    HW116486   7.714   9.669   3.761  0.5382 -0.6542 -0.8740
36627SOL    HW216487   7.600   9.569   3.754 -1.8980  2.0027 -0.9256
36628SOL     OW16488  12.495   6.342   6.850  0.2162 -0.1802  0.0357
36628SOL    HW116489  12.488   6.431   6.817 -1.2904 -0.0294  0.6429
36628SOL    HW216490  12.472   6.349   6.943  2.0035 -0.9329  0.5609
36629SOL     OW16491  12.023  12.754   4.423  0.4236  0.5331 -0.6254
36629SOL    HW116492  11.948  12.710   4.383  1.5523 -0.9891 -1.1704
36629SOL    HW216493  12.036  12.708   4.506  2.0210 -0.7249 -1.4939
36630SOL     OW16494   0.080   3.353   7.772  0.0791 -0.6675 -0.2829
36630SOL    HW116495  -0.013   3.373   7.773 -0.2000 -1.9177  0.3855
36630SOL    HW216496   0.106   3.362   7.680 -0.5220  0.3697 -0.3686
36631SOL     OW16497   6.009  11.907   0.211 -0.0467 -0.2673 -0.1975
36631SOL    HW116498   6.063  11.836   0.245  1.1192 -0.1346 -1.6957
36631SOL    HW216499   5.922  11.867   0.199 -0.4629 -0.3874  2.5648
36632SOL     OW16500  12.469   3.504   5.435  0.5511  0.1866  0.1410
36632SOL    HW116501  12.476   3.413   5.408 -0.3862  1.0858 -3.7524
36632SOL    HW216502  12.423   3.501   5.519  0.3383 -2.8787  0.0130
36633SOL     OW16503   7.606  12.787   5.648 -0.2684  0.5007  0.0331
36633SOL    HW116504   7.604  12.734   5.727  0.9597 -0.5052 -0.5564
36633SOL    HW216505   7.699  12.808   5.635 -0.4631  0.8187 -1.0134
36634SOL     OW16506   1.425   4.168   4.271 -0.1710 -0.2035  0.3189
36634SOL    HW116507   1.391   4.084   4.299  0.1665 -0.7505 -0.8495
36634SOL    HW216508   1.399   4.176   4.179 -0.3893  1.0659  0.4699
36635SOL     OW16509   1.512   0.121  12.199 -0.1121 -0.8077  0.4397
36635SOL    HW116510   1.559   0.182  12.143 -0.2326 -1.2285 -0.1326
36635SOL    HW216511   1.513   0.161  12.285 -1.0324  0.4807 -0.1223
36636SOL     OW16512   0.319  10.746   6.099  0.4293 -0.1429  0.0440
36636SOL    HW116513   0.264  10.791   6.035  1.8070  1.5630 -0.0155
36636SOL    HW216514   0.409  10.765   6.071  1.0685 -1.3818  1.1267
36637SOL     OW16515   7.120   7.672  10.446 -0.3686 -0.4424  0.4855
36637SOL    HW116516   7.164   7.734  10.388 -3.2151  0.7588 -0.5661
36637SOL    HW216517   7.089   7.725  10.519 -0.2530 -1.2379  1.1395
36638SOL     OW16518   4.500   8.188   8.019 -0.2735  0.3075  0.2002
36638SOL    HW116519   4.427   8.236   7.981  0.9144  0.6570 -1.7916
36638SOL    HW216520   4.575   8.209   7.963  0.7849 -2.1281  0.5583
36639SOL     OW16521   5.254   1.093   3.875  0.3714  0.3157  0.0434
36639SOL    HW116522   5.257   1.090   3.971  0.8158  1.5502  0.0939
36639SOL    HW216523   5.226   1.183   3.856 -0.0152 -0.0162 -0.9848
36640SOL     OW16524   8.132   3.779   3.440 -0.0745  0.0126  0.7891
36640SOL    HW116525   8.078   3.856   3.425  0.5629  0.2813 -0.2036
36640SOL    HW216526   8.128   3.730   3.359  0.9966 -0.0608  0.7654
36641SOL     OW16527   0.123   9.911   3.622 -0.0972  0.5151  0.2731
36641SOL    HW116528   0.063   9.972   3.665 -1.2496 -0.9284  0.7899
36641SOL    HW216529   0.089   9.903   3.533  0.1062  0.6741  0.1787
36642SOL     OW16530  11.736   6.521   4.400  0.3657 -0.2720 -0.6443
36642SOL    HW116531  11.754   6.469   4.322  1.1704 -2.4499  0.8928
36642SOL    HW216532  11.651   6.490   4.430 -0.4795  1.3639 -1.2093
36643SOL     OW16533   1.588   6.326  10.553 -0.0478 -0.6817  0.4662
36643SOL    HW116534   1.571   6.392  10.621 -0.0282  0.7454 -0.8704
36643SOL    HW216535   1.601   6.377  10.473 -1.2619 -2.3830 -0.8723
36644SOL     OW16536   7.572   6.431  11.277 -0.3207  0.3971 -0.0676
36644SOL    HW116537   7.486   6.469  11.259 -0.7751  0.2097  1.5577
36644SOL    HW216538   7.554   6.342  11.307  0.4856  0.1700 -0.2310
36645SOL     OW16539  10.046   3.557   0.306 -0.3063 -0.1339  0.1598
36645SOL    HW116540   9.999   3.583   0.384 -0.5370  0.5139 -0.1847
36645SOL    HW216541  10.124   3.513   0.338 -1.2302 -1.4005  0.7328
36646SOL     OW16542  10.825   0.585  12.580  0.2968 -0.4931 -0.5800
36646SOL    HW116543  10.787   0.588  12.667  0.7838 -1.4664 -0.3191
36646SOL    HW216544  10.848   0.676  12.560 -1.7448  0.0591 -0.5902
36647SOL     OW16545   2.666   2.908   5.852  0.4095  0.1852 -0.2745
36647SOL    HW116546   2.592   2.880   5.906 -0.5902  0.6163 -1.3701
36647SOL    HW216547   2.632   2.906   5.763  1.0376  2.4325 -0.6409
36648SOL     OW16548   3.242   6.577  12.065 -0.0654 -0.5062 -0.3409
36648SOL    HW116549   3.150   6.554  12.080  0.4591 -2.2309  0.4145
36648SOL    HW216550   3.254   6.659  12.114 -0.8329 -1.0489  0.7890
36649SOL     OW16551   3.996   8.553   5.142  0.3785 -0.3058  0.0337
36649SOL    HW116552   4.016   8.460   5.139  1.5273 -0.0692  0.0124
36649SOL    HW216553   4.070   8.595   5.098 -1.3771  0.4596 -2.3838
36650SOL     OW16554   6.905   4.562   2.971  0.2857 -0.2292 -0.8792
36650SOL    HW116555   6.836   4.534   3.032  0.9215 -0.8288 -0.4231
36650SOL    HW216556   6.858   4.586   2.891 -0.3060 -2.4772 -1.2596
36651SOL     OW16557  10.687   2.523   4.730 -0.2643  0.5981  0.0544
36651SOL    HW116558  10.732   2.536   4.647  1.0059  1.7878  0.8957
36651SOL    HW216559  10.661   2.431   4.729  2.0061 -0.1007 -0.5799
36652SOL     OW16560   0.522   2.141  10.012  0.0675 -0.0076  0.5075
36652SOL    HW116561   0.463   2.110   9.944 -0.8146  0.4810  1.0264
36652SOL    HW216562   0.543   2.063  10.063  2.0304 -0.7145 -1.2141
36653SOL     OW16563   4.838   5.427   8.151 -0.6636  0.2540  0.1275
36653SOL    HW116564   4.784   5.502   8.178 -1.3246  0.0318 -0.5333
36653SOL    HW216565   4.914   5.431   8.208 -0.5889  1.5559 -0.0173
36654SOL     OW16566   3.954   7.004   5.832 -0.2555  0.2784  0.0022
36654SOL    HW116567   3.873   6.965   5.865  0.0760 -1.1501 -0.7723
36654SOL    HW216568   3.962   6.970   5.743  1.5132 -0.1110  0.2731
36655SOL     OW16569   6.236   3.932   6.297  0.2207 -0.3882  0.3823
36655SOL    HW116570   6.226   3.850   6.249  3.9829 -0.0190 -1.4300
36655SOL    HW216571   6.319   3.923   6.343 -0.3128  1.6427  1.9046
36656SOL     OW16572   6.547   7.514   8.595 -0.1166 -0.0055  0.1913
36656SOL    HW116573   6.622   7.465   8.629 -0.2869 -1.9078 -1.9129
36656SOL    HW216574   6.474   7.453   8.599 -0.7511  0.6326 -0.9391
36657SOL     OW16575   4.358   5.082   8.681 -0.7574  0.3887 -0.2561
36657SOL    HW116576   4.298   5.128   8.622 -0.1654  0.7300 -0.5992
36657SOL    HW216577   4.343   5.123   8.766 -2.3561 -0.7949  0.0845
36658SOL     OW16578  12.622   3.238  10.239 -0.2265  0.1472  0.2214
36658SOL    HW116579  12.559   3.190  10.292 -2.2432  2.2323 -0.1276
36658SOL    HW216580  12.657   3.172  10.178 -2.0858 -1.1027  0.4191
36659SOL     OW16581   2.493   4.859   9.731 -0.2243 -0.0471 -0.4376
36659SOL    HW116582   2.429   4.789   9.719  1.2160 -1.8036  1.4568
36659SOL    HW216583   2.445   4.927   9.777 -1.3053 -0.3352 -1.1024
36660SOL     OW16584   5.208   4.168   4.898 -0.2627  0.2708 -0.0341
36660SOL    HW116585   5.221   4.178   4.803 -0.1499  0.1020 -0.0371
36660SOL    HW216586   5.244   4.248   4.936 -0.7273  0.5499 -0.1673
36661SOL     OW16587  10.095   6.465   3.882  0.3859 -0.3480 -0.7630
36661SOL    HW116588  10.173   6.422   3.849  0.9102  0.7260 -0.9748
36661SOL    HW216589  10.122   6.506   3.964  0.0813  0.1039 -0.8791
36662SOL     OW16590   4.544   5.913  12.653  0.6653  0.4005 -0.3390
36662SOL    HW116591   4.634   5.945  12.656  0.4855  0.9229 -0.4257
36662SOL    HW216592   4.491   5.991  12.636  0.2283  0.0435 -0.6541
36663SOL     OW16593   4.225  10.751   1.183 -0.1770  0.1823  0.5559
36663SOL    HW116594   4.234  10.822   1.119 -1.0571  0.6266  0.9257
36663SOL    HW216595   4.183  10.680   1.134  0.3203  0.0562  0.3022
36664SOL     OW16596   0.344   4.745   2.795  0.0316  0.2694  0.4118
36664SOL    HW116597   0.252   4.745   2.823  0.4494  0.9615  1.9053
36664SOL    HW216598   0.388   4.688   2.858  0.6815  0.1962 -0.1037
36665SOL     OW16599   8.422   9.416   4.558  0.2743 -0.0723  0.2579
36665SOL    HW116600   8.412   9.508   4.581 -0.4465 -0.0895  0.0442
36665SOL    HW216601   8.444   9.373   4.640  0.9694  0.3393  0.2936
36666SOL     OW16602   7.201   4.046   5.081  0.7990  0.1231 -0.4112
36666SOL    HW116603   7.243   3.989   5.146  0.4800 -0.6533 -0.8640
36666SOL    HW216604   7.230   4.012   4.997 -1.1798 -0.8557 -0.7640
36667SOL     OW16605   8.970   0.104  10.071 -0.0748 -0.0708 -0.0718
36667SOL    HW116606   8.936   0.082  10.157 -1.5690  0.2732 -0.5383
36667SOL    HW216607   8.899   0.153  10.029  0.6381 -0.1852 -1.4763
36668SOL     OW16608  10.772   2.421   9.958 -0.2409  0.2746  0.1406
36668SOL    HW116609  10.808   2.501   9.918  2.1534 -0.4868  0.6247
36668SOL    HW216610  10.834   2.399  10.027 -0.6835 -2.1771 -0.1671
36669SOL     OW16611   8.836   0.739   4.980 -0.5349  0.3075  0.7055
36669SOL    HW116612   8.824   0.775   5.068 -0.5046 -0.7676  1.1704
36669SOL    HW216613   8.897   0.666   4.992 -0.6654  0.0379 -0.1811
36670SOL     OW16614   9.556   2.320   1.739  0.4390  0.3876 -0.2090
36670SOL    HW116615   9.482   2.377   1.758  0.0320 -0.4359  0.8000
36670SOL    HW216616   9.627   2.352   1.794  0.6640  0.8156 -0.7402
36671SOL     OW16617  11.257   8.898   2.144  0.3765  0.1777  0.0235
36671SOL    HW116618  11.333   8.841   2.156  0.0067 -0.2280  0.4841
36671SOL    HW216619  11.251   8.947   2.226  1.0380  1.3163 -0.5886
36672SOL     OW16620   9.146  12.757   3.107 -0.0315 -0.0857 -0.3218
36672SOL    HW116621   9.222  12.749   3.049 -0.7077  1.4728 -1.5378
36672SOL    HW216622   9.086  12.815   3.059 -0.7538  1.0731  1.8328
36673SOL     OW16623   7.949  10.382   5.930 -0.7545  0.0884 -0.7054
36673SOL    HW116624   8.044  10.375   5.919 -0.9520 -2.1901 -1.4875
36673SOL    HW216625   7.933  10.475   5.943  1.4491  0.6905 -1.8561
36674SOL     OW16626  10.144   6.786   2.338 -0.0442 -0.0840  0.5636
36674SOL    HW116627  10.233   6.758   2.361 -0.0739  0.3048  1.1493
36674SOL    HW216628  10.102   6.705   2.307  0.6023 -0.2091 -0.0160
36675SOL     OW16629  10.958   2.392  10.967  0.2259 -0.4955  0.0264
36675SOL    HW116630  10.869   2.385  10.933  0.4178 -1.6266 -0.2902
36675SOL    HW216631  10.947   2.412  11.060 -0.3214  1.4629 -0.4243
36676SOL     OW16632  10.850   4.134   0.690  0.4285 -0.1077  0.8134
36676SOL    HW116633  10.807   4.187   0.757  0.9453  0.9880  0.3142
36676SOL    HW216634  10.938   4.172   0.683  0.7161 -0.8537  0.2330
36677SOL     OW16635   9.150   6.689   1.498  0.0016 -0.0482 -0.2814
36677SOL    HW116636   9.141   6.717   1.407 -3.3538 -0.3923 -0.1895
36677SOL    HW216637   9.142   6.594   1.494  0.9649 -0.1668  0.3139
36678SOL     OW16638   9.594   8.700   2.481  0.4637 -0.3127 -0.4137
36678SOL    HW116639   9.676   8.716   2.436  0.1336  0.9642 -0.6135
36678SOL    HW216640   9.597   8.756   2.559 -0.4971  0.2936 -0.7889
36679SOL     OW16641  11.303  12.768   8.746  0.3660 -0.0790  0.3897
36679SOL    HW116642  11.364  12.833   8.713  1.1185 -1.8828 -2.0149
36679SOL    HW216643  11.219  12.815   8.751  0.8520  1.0680 -1.3359
36680SOL     OW16644   5.738   4.727  12.386 -0.0269 -0.1618 -0.2192
36680SOL    HW116645   5.725   4.821  12.396 -0.6996 -0.1419 -1.1212
36680SOL    HW216646   5.833   4.716  12.387  0.0413  0.4478  0.5117
36681SOL     OW16647   6.801  11.501   3.303 -0.2373 -0.5306  0.6853
36681SOL    HW116648   6.895  11.479   3.297 -0.2829 -0.4780 -0.4022
36681SOL    HW216649   6.799  11.584   3.349  0.4739  0.8245 -1.5517
36682SOL     OW16650   6.876   6.502  12.506 -0.1893  0.3066 -0.3277
36682SOL    HW116651   6.829   6.419  12.506  2.2824 -1.1885  0.4279
36682SOL    HW216652   6.822   6.560  12.453 -3.3400 -0.9526  1.1971
36683SOL     OW16653   6.383   4.567   8.153  0.8189 -0.4766  0.1299
36683SOL    HW116654   6.382   4.658   8.183  0.1882  0.0351 -1.3618
36683SOL    HW216655   6.476   4.544   8.150  1.0761  0.5429 -0.6348
36684SOL     OW16656   8.392   9.118   3.356 -0.2710  0.0364  0.3953
36684SOL    HW116657   8.445   9.048   3.394 -0.2701 -0.2341 -0.1064
36684SOL    HW216658   8.418   9.121   3.264  0.5564  1.4502  0.6475
36685SOL     OW16659   1.577   4.683   3.764  0.6592 -0.0435  0.2069
36685SOL    HW116660   1.567   4.624   3.689 -1.3087 -0.6516  0.8981
36685SOL    HW216661   1.642   4.640   3.820  0.0839 -0.9977  0.1584
36686SOL     OW16662   1.695   2.981   5.806 -0.3836 -0.0902  0.0626
36686SOL    HW116663   1.737   2.928   5.874  0.1637  0.4769  0.1793
36686SOL    HW216664   1.760   2.985   5.736 -0.2031  0.8514  0.2698
36687SOL     OW16665   2.954   2.416  12.628  0.4103  0.4782  0.2270
36687SOL    HW116666   2.897   2.369  12.566 -0.6161 -0.1941  1.6106
36687SOL    HW216667   2.998   2.482  12.576 -0.5810  0.0695 -1.1728
36688SOL     OW16668   8.053   5.361   7.917  0.4145  0.2069 -0.3472
36688SOL    HW116669   8.000   5.427   7.961  1.4420  1.6753 -1.2252
36688SOL    HW216670   8.090   5.308   7.988 -1.0700  0.0395  0.3262
36689SOL     OW16671   7.334   3.486   9.407 -0.5046  0.1224  0.2023
36689SOL    HW116672   7.351   3.578   9.384 -0.3651  0.1535  0.4226
36689SOL    HW216673   7.401   3.437   9.360  0.9085  0.3299  1.8753
36690SOL     OW16674  10.807   9.566   9.113  0.2295 -0.3412 -0.0564
36690SOL    HW116675  10.822   9.536   9.203 -1.1031 -2.3377 -0.4435
36690SOL    HW216676  10.821   9.489   9.059 -1.8022  0.0804 -1.2793
36691SOL     OW16677   5.712   4.825   5.285  0.1542  0.1298  0.5479
36691SOL    HW116678   5.708   4.894   5.220 -0.9724  2.1485  2.5966
36691SOL    HW216679   5.806   4.814   5.303  0.3648  0.9556  0.0124
36692SOL     OW16680   9.454   1.464  10.877  0.0652  0.4857 -0.1631
36692SOL    HW116681   9.458   1.370  10.890 -2.8812  0.1186 -1.3087
36692SOL    HW216682   9.432   1.475  10.785  0.5168  2.3258 -0.0964
36693SOL     OW16683   7.343  11.338  10.685  0.1653  0.5400 -0.6840
36693SOL    HW116684   7.374  11.339  10.775 -0.8962 -1.6411 -0.2291
36693SOL    HW216685   7.398  11.274  10.641 -0.6207  0.0846 -1.0363
36694SOL     OW16686   0.791   5.523   0.607 -0.4112 -0.3479  0.1480
36694SOL    HW116687   0.695   5.514   0.611 -0.5320  1.0191  2.3622
36694SOL    HW216688   0.806   5.588   0.539 -1.1137 -0.1269  0.1951
36695SOL     OW16689   2.600   8.455   9.340  0.3401  0.1720 -0.1573
36695SOL    HW116690   2.534   8.483   9.278 -0.2675  1.6436  1.0648
36695SOL    HW216691   2.678   8.438   9.287 -0.3326  0.7516 -1.3664
36696SOL     OW16692  12.761   0.091   9.789 -0.8563 -0.2024  0.0836
36696SOL    HW116693  12.816   0.161   9.824  0.2331 -0.7360 -0.4962
36696SOL    HW216694  12.731   0.043   9.867 -2.2249  1.3158  0.5303
36697SOL     OW16695   1.920   3.472   6.442  0.0107  0.0823  0.3301
36697SOL    HW116696   1.895   3.482   6.350 -0.5548  1.8111  0.6259
36697SOL    HW216697   2.015   3.469   6.440  0.0851  1.7658 -0.2219
36698SOL     OW16698   0.751   5.845   3.157  0.1606 -0.1414 -0.4045
36698SOL    HW116699   0.790   5.840   3.244 -0.6636 -1.1384 -0.0772
36698SOL    HW216700   0.778   5.931   3.124 -0.0885  0.5547  1.1109
36699SOL     OW16701   2.283  11.161   6.286  0.0125 -0.2715  0.2975
36699SOL    HW116702   2.283  11.068   6.307  1.2166 -0.5237 -0.7446
36699SOL    HW216703   2.199  11.176   6.243  0.3475 -1.1546 -0.6783
36700SOL     OW16704   3.856   6.502   4.837 -0.0496 -0.1076 -0.3303
36700SOL    HW116705   3.772   6.465   4.864 -0.9106  1.1145 -1.2314
36700SOL    HW216706   3.853   6.593   4.867  2.5590 -0.9197  3.0415
36701SOL     OW16707   0.011   2.404   6.024  0.6699 -0.0268  0.5005
36701SOL    HW116708  -0.061   2.404   6.087  1.3382 -0.8286  1.2877
36701SOL    HW216709   0.090   2.418   6.077  1.2359 -0.6062 -0.1634
36702SOL     OW16710   8.261   2.503   2.974  0.4527 -0.4835  0.3145
36702SOL    HW116711   8.236   2.413   2.993  1.4850 -0.8142  0.1678
36702SOL    HW216712   8.192   2.536   2.916  0.7087 -1.5948 -0.6530
36703SOL     OW16713   6.385   9.160   3.362  0.3194  0.0180  1.4106
36703SOL    HW116714   6.397   9.124   3.274  0.6151 -1.3408  1.9867
36703SOL    HW216715   6.294   9.190   3.363  0.6034  1.0053  0.3241
36704SOL     OW16716   9.384   6.412  10.546 -0.1534 -0.0968 -0.3152
36704SOL    HW116717   9.290   6.427  10.541 -0.4246 -1.6402 -0.2806
36704SOL    HW216718   9.401   6.346  10.478  0.7570 -0.4140  0.2038
36705SOL     OW16719   8.542   8.992   0.745  0.2689 -0.0724  0.1873
36705SOL    HW116720   8.498   9.062   0.697  0.3734 -1.4205 -2.0051
36705SOL    HW216721   8.473   8.928   0.763  0.5185 -0.2517  0.5145
36706SOL     OW16722   5.921   5.803   2.295  0.2272 -0.3323  0.0406
36706SOL    HW116723   5.895   5.865   2.364  2.2191 -0.6366  1.1387
36706SOL    HW216724   5.896   5.846   2.214 -0.5467  0.8572  0.8638
36707SOL     OW16725   0.572  11.561   9.981  0.2909 -0.3642 -0.1646
36707SOL    HW116726   0.525  11.644   9.983 -0.7311 -0.8680 -1.6506
36707SOL    HW216727   0.526  11.505  10.043  1.4601  0.3740  1.4376
36708SOL     OW16728   1.100   0.718   3.664  0.3327 -0.0098 -0.2891
36708SOL    HW116729   1.111   0.758   3.751  0.2848 -0.1180 -0.2324
36708SOL    HW216730   1.012   0.744   3.637  0.4760  0.3092 -0.4554
36709SOL     OW16731   3.661  10.398   2.361  0.0574  0.1853  0.2902
36709SOL    HW116732   3.730  10.341   2.395  0.0063  0.4235  0.8100
36709SOL    HW216733   3.622  10.348   2.289  1.0618  0.2352 -0.3114
36710SOL     OW16734  10.527   8.893  10.251  0.5262  0.2714  0.7206
36710SOL    HW116735  10.580   8.834  10.197  1.3791  1.3011  0.3925
36710SOL    HW216736  10.444   8.901  10.204  0.5489 -0.3465  0.5677
36711SOL     OW16737   1.436   3.870   2.726  0.1838  0.1536 -0.4789
36711SOL    HW116738   1.379   3.793   2.727  0.8375 -0.3542 -1.1861
36711SOL    HW216739   1.503   3.851   2.791 -0.0990  0.4809 -0.0873
36712SOL     OW16740   6.408  12.473   1.311 -0.2187  0.5960 -0.3954
36712SOL    HW116741   6.344  12.436   1.250 -0.7644  0.2293  0.3762
36712SOL    HW216742   6.369  12.459   1.397 -0.0278  2.1593 -0.0127
36713SOL     OW16743   5.856   6.303   4.118 -0.0033 -0.4884  0.4108
36713SOL    HW116744   5.933   6.271   4.165  0.8501  0.2639 -0.4477
36713SOL    HW216745   5.811   6.223   4.091  0.8753 -0.9492  0.2697
36714SOL     OW16746   8.968   9.909   1.066  0.1412  0.3414  0.2891
36714SOL    HW116747   8.994   9.994   1.030 -1.2797  0.9635  0.6222
36714SOL    HW216748   8.905   9.875   1.002  0.8471 -0.5559  0.0671
36715SOL     OW16749   5.159   5.511   2.680  0.0789 -0.2325 -0.8943
36715SOL    HW116750   5.187   5.596   2.716 -0.0612 -0.1103 -1.0715
36715SOL    HW216751   5.064   5.517   2.678  0.0137 -0.7849  0.0536
36716SOL     OW16752   1.843   5.660   9.217 -0.3077  0.6045 -0.4924
36716SOL    HW116753   1.779   5.668   9.287 -1.7297  0.7212 -1.7452
36716SOL    HW216754   1.806   5.592   9.160  2.1912 -1.5713  0.2703
36717SOL     OW16755  11.741  11.933  10.160 -0.0432  0.2748  0.2460
36717SOL    HW116756  11.829  11.946  10.124 -0.2743  0.7030 -0.1669
36717SOL    HW216757  11.710  11.853  10.118  1.1888 -1.4684  2.4316
36718SOL     OW16758   4.264  12.155   4.591  0.5183  0.0502  0.5320
36718SOL    HW116759   4.277  12.097   4.666  0.4980  0.1104  0.5829
36718SOL    HW216760   4.347  12.202   4.582  0.7766 -0.4961  0.0498
36719SOL     OW16761   3.369   1.213   5.561  0.8188  0.3082 -0.0515
36719SOL    HW116762   3.312   1.152   5.514  0.5689 -0.7908  1.5611
36719SOL    HW216763   3.454   1.206   5.519  0.5647 -0.5169 -0.4340
36720SOL     OW16764   7.958   7.880   8.681 -0.4768 -0.2343 -0.4652
36720SOL    HW116765   7.903   7.953   8.711 -0.1809 -0.1870 -0.0309
36720SOL    HW216766   7.900   7.827   8.627 -1.2136 -0.6668  0.6964
36721SOL     OW16767   1.798  10.909  10.563  0.2294  0.1302  0.0115
36721SOL    HW116768   1.793  10.818  10.594  0.2698 -0.3503 -1.3511
36721SOL    HW216769   1.758  10.960  10.633  0.3378 -0.9174  0.8640
36722SOL     OW16770   8.420   9.444   3.271  0.1139 -0.0832 -0.4853
36722SOL    HW116771   8.494   9.494   3.305 -0.3677  0.4968 -0.2652
36722SOL    HW216772   8.431   9.357   3.309 -0.2255  0.4513  0.9177
36723SOL     OW16773   2.332   0.433   9.793 -0.0563  0.2019  0.1433
36723SOL    HW116774   2.310   0.449   9.885 -0.2183 -0.2950  0.1931
36723SOL    HW216775   2.309   0.514   9.748  1.9219  1.2227  0.8493
36724SOL     OW16776   0.754   6.641  11.774  0.3335 -0.5600 -0.4588
36724SOL    HW116777   0.701   6.595  11.709  0.3595  0.7000 -1.4227
36724SOL    HW216778   0.828   6.675  11.724 -0.7524  2.3262 -0.3075
36725SOL     OW16779   1.561   6.394   3.624  0.0458 -0.7338 -0.6371
36725SOL    HW116780   1.547   6.299   3.629 -1.9750 -0.4873 -0.9498
36725SOL    HW216781   1.614   6.414   3.702  2.3289 -2.3669 -1.6568
36726SOL     OW16782   0.699   4.021   7.480  0.2259 -0.1353 -0.8723
36726SOL    HW116783   0.686   4.070   7.560  1.2338  1.5683 -1.6995
36726SOL    HW216784   0.670   3.932   7.501 -0.1484  0.4252  1.1479
36727SOL     OW16785   1.681  11.347   9.060  0.3796 -0.2956  0.4724
36727SOL    HW116786   1.670  11.281   9.128  0.4888 -1.4716 -0.6370
36727SOL    HW216787   1.774  11.343   9.037  0.8105  1.5518  1.6735
36728SOL     OW16788   9.999   2.474   5.158  0.2759 -0.4415 -0.5593
36728SOL    HW116789  10.079   2.442   5.118  2.1806  0.4655  2.2344
36728SOL    HW216790   9.979   2.411   5.227 -0.0997  0.4975  0.2196
36729SOL     OW16791   3.988   4.012  11.372 -0.2884  0.2373  0.2100
36729SOL    HW116792   3.941   3.988  11.451  0.5585 -1.3200  0.2870
36729SOL    HW216793   4.077   4.032  11.402  0.0092 -0.2572 -0.3082
36730SOL     OW16794   4.889  11.957   9.877 -0.3081  0.8223  0.4905
36730SOL    HW116795   4.943  11.982   9.802 -1.7220 -1.0923 -1.2695
36730SOL    HW216796   4.882  11.862   9.870 -1.9261  0.7827  2.0703
36731SOL     OW16797   8.297   6.736   2.516  0.4691 -0.1351 -0.3467
36731SOL    HW116798   8.356   6.667   2.486 -0.2962 -0.6054 -0.8335
36731SOL    HW216799   8.231   6.689   2.568 -1.7750 -0.3032 -3.0808
36732SOL     OW16800   0.342  10.084   0.741  0.1090  0.0404  0.0865
36732SOL    HW116801   0.264  10.122   0.782  0.8667  0.8853  0.7673
36732SOL    HW216802   0.335   9.990   0.761 -1.9489 -0.3257 -1.9071
36733SOL     OW16803  12.157   5.500   3.639  0.0095 -0.0823 -0.1884
36733SOL    HW116804  12.092   5.570   3.634  0.2354  0.0334 -2.3213
36733SOL    HW216805  12.105   5.420   3.655 -0.7305 -0.0247 -2.0643
36734SOL     OW16806   9.716   5.790   9.595 -0.3817  0.0473 -0.2642
36734SOL    HW116807   9.771   5.867   9.608 -1.7109  1.2928 -1.6289
36734SOL    HW216808   9.778   5.719   9.578  0.8819  0.7554  1.0879
36735SOL     OW16809   8.595   9.914   1.734 -0.5181 -0.4992 -0.1438
36735SOL    HW116810   8.633   9.915   1.822 -2.9798 -1.2538  1.0080
36735SOL    HW216811   8.656   9.965   1.681  0.4892  0.9155  2.2319
36736SOL     OW16812   1.108  11.722   1.272 -0.2385  0.0951  0.7466
36736SOL    HW116813   1.135  11.642   1.228 -0.3395 -0.1562  1.1359
36736SOL    HW216814   1.086  11.694   1.361  0.5209  0.6810  1.1344
36737SOL     OW16815  11.845   8.938   3.905  0.0533 -0.3159  0.0819
36737SOL    HW116816  11.821   8.861   3.957 -2.3611 -0.6397 -1.3142
36737SOL    HW216817  11.837   9.012   3.965  1.1474 -1.0092  1.1115
36738SOL     OW16818   2.602  10.087   2.196 -0.2160 -0.4282  0.3260
36738SOL    HW116819   2.579   9.995   2.209 -1.4163 -0.1388  0.3226
36738SOL    HW216820   2.647  10.112   2.277  0.4379 -1.1021  0.1826
36739SOL     OW16821   7.914  11.645  10.409  0.4065 -0.0742 -0.2656
36739SOL    HW116822   7.868  11.726  10.430  1.1141  0.1969  0.2937
36739SOL    HW216823   8.006  11.665  10.425  0.6333 -0.8649 -0.5221
36740SOL     OW16824   2.064   5.370   2.232 -0.0186 -0.5927 -0.0802
36740SOL    HW116825   2.052   5.288   2.280  1.0851 -0.5746  0.2602
36740SOL    HW216826   2.033   5.350   2.143 -1.7694 -0.7212  0.5212
36741SOL     OW16827   8.115   9.701   7.815  0.3095 -0.0749  0.0393
36741SOL    HW116828   8.151   9.615   7.793  0.2008 -0.7562  2.3302
36741SOL    HW216829   8.175   9.763   7.773 -0.2104 -1.1972 -2.5745
36742SOL     OW16830   8.737  11.209   2.711  0.2625 -0.0251  0.5015
36742SOL    HW116831   8.657  11.178   2.754  0.4045 -0.8458  0.1874
36742SOL    HW216832   8.709  11.285   2.660 -0.1589  0.1767  1.0300
36743SOL     OW16833   7.882   8.881  10.915  0.2850  0.1376  0.3101
36743SOL    HW116834   7.874   8.794  10.875 -1.3634  0.3895 -0.0125
36743SOL    HW216835   7.823   8.878  10.990 -0.1569  1.0965  0.0220
36744SOL     OW16836   1.112   2.771   1.362 -0.1202 -0.3808 -0.2831
36744SOL    HW116837   1.207   2.769   1.379  0.0853  2.3882 -0.7460
36744SOL    HW216838   1.083   2.855   1.395 -2.4827 -1.1679 -0.1652
36745SOL     OW16839   6.494   8.291   2.347  0.3834  0.3795  0.1619
36745SOL    HW116840   6.421   8.353   2.340  0.3197  0.0886 -2.6953
36745SOL    HW216841   6.452   8.209   2.375 -0.5011  0.1462 -1.7037
36746SOL     OW16842  10.527  12.408   5.121 -0.9640 -0.3746 -0.4027
36746SOL    HW116843  10.494  12.440   5.037 -0.5255 -2.4125 -1.4221
36746SOL    HW216844  10.585  12.336   5.098 -0.0418 -0.3496  1.6268
36747SOL     OW16845   3.134   0.189   1.120  0.0436 -0.2449 -0.1751
36747SOL    HW116846   3.101   0.123   1.058  0.5022 -0.7060  0.0655
36747SOL    HW216847   3.064   0.197   1.185  0.1612 -0.8068  0.0268
36748SOL     OW16848   5.074   2.397   8.411  0.0951  0.0476 -0.0502
36748SOL    HW116849   5.025   2.316   8.393  0.7849 -0.0631 -1.5413
36748SOL    HW216850   5.159   2.367   8.442  0.2195  0.2055 -0.2371
36749SOL     OW16851   7.221   2.565   9.233  0.0762 -0.3989  0.1629
36749SOL    HW116852   7.222   2.526   9.146 -0.6087 -0.9313  0.3921
36749SOL    HW216853   7.188   2.496   9.291  0.1400  0.0790  0.7853
36750SOL     OW16854   2.326   8.700   8.133  0.5912 -0.0782 -0.1563
36750SOL    HW116855   2.413   8.695   8.174  0.8165 -1.1347 -0.7289
36750SOL    HW216856   2.342   8.747   8.051  0.3304  1.0673  0.4177
36751SOL     OW16857   4.714   0.284   4.208  0.3325 -0.0588  0.3366
36751SOL    HW116858   4.777   0.356   4.210  2.1940 -1.6149  0.7677
36751SOL    HW216859   4.760   0.214   4.163 -2.7013  0.0629 -3.4406
36752SOL     OW16860   7.884  10.347  11.540 -0.9628  0.2340  0.1112
36752SOL    HW116861   7.927  10.339  11.625 -0.3788 -1.1666 -0.2915
36752SOL    HW216862   7.846  10.435  11.541 -0.4375  0.4768  1.5646
36753SOL     OW16863   4.296   5.635  10.702 -0.7476  0.3556  0.0859
36753SOL    HW116864   4.274   5.556  10.751 -0.8074 -1.8680 -3.2302
36753SOL    HW216865   4.390   5.630  10.690 -0.7134  0.9619  0.0900
36754SOL     OW16866  10.698   7.296   0.005  0.2274  0.7383  0.6170
36754SOL    HW116867  10.715   7.390   0.015  1.4134  0.7547 -1.1394
36754SOL    HW216868  10.610   7.291  -0.032 -0.8357  0.9951  2.9204
36755SOL     OW16869   6.138   1.809   6.917  0.7109 -0.5681  0.0552
36755SOL    HW116870   6.067   1.842   6.971  1.1583  1.7141 -0.5925
36755SOL    HW216871   6.095   1.768   6.842  0.0952 -0.8628  0.5661
36756SOL     OW16872  12.511   3.777  12.172 -0.4857  0.2050  0.2319
36756SOL    HW116873  12.530   3.805  12.082  2.0697 -0.8806  0.3368
36756SOL    HW216874  12.538   3.852  12.226 -1.3132  0.5751  0.1359
36757SOL     OW16875   8.019   2.726   1.332 -0.2219 -0.1147  0.1316
36757SOL    HW116876   8.078   2.761   1.399  1.1995 -1.2088 -0.4852
36757SOL    HW216877   8.057   2.641   1.309 -1.5863 -0.4776 -0.9111
36758SOL     OW16878   7.452  12.277   3.683  0.3615 -0.2618 -0.6134
36758SOL    HW116879   7.379  12.216   3.680  0.7432 -0.8743  1.1464
36758SOL    HW216880   7.522  12.234   3.633 -0.4702  0.3970 -2.4362
36759SOL     OW16881   3.169  11.476   8.030  0.4402 -0.0707 -0.1561
36759SOL    HW116882   3.127  11.418   7.966  1.2270 -0.0759 -0.6868
36759SOL    HW216883   3.098  11.504   8.087 -0.1486 -0.6704 -0.5751
36760SOL     OW16884   2.420   9.401   9.457 -0.3729  0.0141 -0.0992
36760SOL    HW116885   2.339   9.399   9.407 -0.8479 -0.3637  0.6678
36760SOL    HW216886   2.487   9.426   9.393 -1.1210  0.5646 -0.6869
36761SOL     OW16887   4.966   6.618   5.713  0.1161  0.1837  0.3888
36761SOL    HW116888   4.950   6.677   5.640  0.1941  0.6883  0.7770
36761SOL    HW216889   4.889   6.626   5.769  0.6837  0.8893  1.0917
36762SOL     OW16890   6.869   7.609  10.352  0.1189 -0.3157 -0.4332
36762SOL    HW116891   6.956   7.611  10.391 -0.0920 -1.3314  0.1280
36762SOL    HW216892   6.861   7.521  10.316 -0.4691 -0.0514 -0.9694
36763SOL     OW16893   3.097  11.241   8.402 -0.3842 -0.5762  0.0185
36763SOL    HW116894   3.188  11.225   8.428 -0.2801 -0.4805 -0.2854
36763SOL    HW216895   3.095  11.226   8.308 -0.5877 -0.1627 -0.0492
36764SOL     OW16896   2.783  12.589  11.178  0.4593  0.1616  0.5603
36764SOL    HW116897   2.755  12.533  11.250 -1.0446 -0.1755 -0.2240
36764SOL    HW216898   2.744  12.674  11.196 -0.3110 -0.0437 -0.0419
36765SOL     OW16899   7.462  12.675   9.710 -0.9547  0.3289 -0.3850
36765SOL    HW116900   7.506  12.633   9.636  1.9303 -1.2271  1.9761
36765SOL    HW216901   7.515  12.752   9.728 -1.3347  0.4256  0.3299
36766SOL     OW16902   9.783   0.743   3.013 -0.0019  0.0084  0.4940
36766SOL    HW116903   9.856   0.683   3.028 -2.7354 -4.4232 -1.7913
36766SOL    HW216904   9.732   0.740   3.094 -0.2378 -1.0223  0.3180
36767SOL     OW16905   8.255   9.012   0.470 -0.4354  0.0907 -0.2858
36767SOL    HW116906   8.344   9.029   0.501 -0.3871 -0.3207 -0.1989
36767SOL    HW216907   8.217   8.953   0.536 -0.4243 -0.5667 -0.8547
36768SOL     OW16908   8.158   9.377   3.689  0.4760  0.1830 -0.0666
36768SOL    HW116909   8.164   9.338   3.776  1.7807  0.8949  0.2026
36768SOL    HW216910   8.067   9.406   3.682  0.1528 -0.5904  0.7439
36769SOL     OW16911   7.940   0.845   7.736 -0.0019 -0.1669 -0.3823
36769SOL    HW116912   7.958   0.783   7.806 -0.8293 -1.1569 -1.0271
36769SOL    HW216913   8.019   0.899   7.731 -0.2911  0.6214  1.9954
36770SOL     OW16914   3.592   2.498   6.904  0.3813 -0.2765 -0.0433
36770SOL    HW116915   3.589   2.587   6.941 -1.2912 -0.5885  0.6467
36770SOL    HW216916   3.547   2.505   6.820 -0.0009 -0.5355  0.1420
36771SOL     OW16917  10.624   8.823   4.825  0.1177 -0.0842 -0.0967
36771SOL    HW116918  10.544   8.834   4.775  0.8848  1.2299 -1.1050
36771SOL    HW216919  10.693   8.810   4.759  1.0414  0.9063  0.6325
36772SOL     OW16920   0.075   2.863   8.907  0.2861 -0.0096  0.0439
36772SOL    HW116921   0.160   2.885   8.868  0.1166 -2.4625 -1.9519
36772SOL    HW216922   0.011   2.911   8.853  0.2956  1.6342  1.3903
36773SOL     OW16923   9.894   4.447   3.656 -0.0730 -0.6638 -0.4966
36773SOL    HW116924   9.909   4.386   3.728 -2.1920 -1.5489 -0.7575
36773SOL    HW216925   9.818   4.413   3.609 -1.0265  1.8514 -0.9869
36774SOL     OW16926  10.542   9.876   2.190  0.2785  0.4841 -0.6377
36774SOL    HW116927  10.595   9.920   2.256  0.1747  0.3969 -0.4952
36774SOL    HW216928  10.520   9.945   2.127 -0.3715  0.7750 -0.1085
36775SOL     OW16929   2.236   9.736   4.032  0.2784  0.0359  0.2230
36775SOL    HW116930   2.218   9.764   3.942 -1.2182  2.2592  1.1054
36775SOL    HW216931   2.285   9.809   4.070 -1.0796  0.2012  1.7991
36776SOL     OW16932   7.741   3.997   9.649  0.4416 -0.1102  0.0076
36776SOL    HW116933   7.714   3.906   9.664 -1.0416  0.4342  0.7722
36776SOL    HW216934   7.677   4.050   9.697  1.4919  1.3389 -0.1179
36777SOL     OW16935   6.690   1.355   4.785  0.0241  0.7854 -0.0681
36777SOL    HW116936   6.732   1.271   4.771 -1.1604 -0.2243  1.9318
36777SOL    HW216937   6.755   1.420   4.757  1.1566 -0.7707 -1.1502
36778SOL     OW16938  11.181   8.643   1.741 -0.4592  0.3435 -0.2457
36778SOL    HW116939  11.229   8.718   1.705 -0.3392  0.4780  0.1761
36778SOL    HW216940  11.196   8.650   1.836  2.4534 -2.1305 -0.3698
36779SOL     OW16941  11.631   9.565   5.700  0.0743 -0.7739  0.2691
36779SOL    HW116942  11.601   9.626   5.632 -0.3473 -0.4808  0.7074
36779SOL    HW216943  11.702   9.516   5.658 -0.6978 -1.1545 -0.6448
36780SOL     OW16944   1.715   6.486   7.642  0.1955 -0.4849  0.4058
36780SOL    HW116945   1.686   6.431   7.715 -0.4011 -1.1036 -0.2853
36780SOL    HW216946   1.765   6.427   7.585  0.9458  0.0661  0.4676
36781SOL     OW16947   3.120   7.992   5.468  0.4715 -0.3515 -0.0862
36781SOL    HW116948   3.141   8.085   5.469  2.2453 -0.7152  0.1630
36781SOL    HW216949   3.043   7.985   5.412  0.5393  1.2164 -0.4089
36782SOL     OW16950   7.442   9.780   1.872 -0.0779 -0.6020 -0.5740
36782SOL    HW116951   7.499   9.796   1.948  2.0324 -1.5271 -1.8684
36782SOL    HW216952   7.473   9.843   1.806 -0.4677 -1.2169 -1.3558
36783SOL     OW16953   6.898  10.120   4.206  0.0653 -0.2664  0.1901
36783SOL    HW116954   6.938  10.168   4.133 -0.3791  2.0791  1.3840
36783SOL    HW216955   6.804  10.135   4.195 -0.2195 -2.0689 -0.1403
36784SOL     OW16956   5.229   4.804   1.414  0.0940  0.2301 -0.3589
36784SOL    HW116957   5.220   4.718   1.373  0.8725 -0.1287  0.2059
36784SOL    HW216958   5.314   4.802   1.457  1.0153  1.9665 -1.9357
36785SOL     OW16959   0.377   0.330   1.712 -0.3431  0.5628 -0.0261
36785SOL    HW116960   0.391   0.238   1.691 -1.0398 -0.6949  4.1247
36785SOL    HW216961   0.302   0.356   1.659 -0.8646 -1.6156 -0.4555
36786SOL     OW16962   4.009   8.383  11.634  0.4000  0.0447 -0.2850
36786SOL    HW116963   4.087   8.353  11.680 -0.5925 -0.8720  0.8500
36786SOL    HW216964   4.000   8.475  11.659  0.3064 -0.2410  0.7519
36787SOL     OW16965   5.756   5.822   8.170  0.5054 -0.6742  0.4828
36787SOL    HW116966   5.698   5.822   8.094  2.3114  1.0101 -0.9858
36787SOL    HW216967   5.706   5.777   8.238 -1.9962 -0.4259 -1.0705
36788SOL     OW16968   2.247   4.145  10.429  0.2114 -0.1128  0.0373
36788SOL    HW116969   2.198   4.188  10.499  0.9911 -0.2314  0.6833
36788SOL    HW216970   2.335   4.133  10.466  0.1833 -1.6976 -0.3426
36789SOL     OW16971   3.488  11.121  10.236 -0.1418  0.1086  0.4295
36789SOL    HW116972   3.393  11.118  10.238 -0.1214 -0.9820  2.4453
36789SOL    HW216973   3.510  11.205  10.277 -0.2247  0.4310 -0.1785
36790SOL     OW16974   9.756   2.389  10.627  0.3477 -0.2113  0.5242
36790SOL    HW116975   9.674   2.439  10.619  0.0004 -0.4087  2.2711
36790SOL    HW216976   9.728   2.298  10.629  0.7417 -0.3517 -0.0687
36791SOL     OW16977  12.727   8.064   7.031 -0.2707  0.2245  0.3851
36791SOL    HW116978  12.734   8.144   6.979  0.8118  0.1750  0.4205
36791SOL    HW216979  12.643   8.026   7.006  1.3195 -1.2298 -3.4624
36792SOL     OW16980  12.639   2.503   1.855 -0.3805 -0.0300  0.3012
36792SOL    HW116981  12.664   2.464   1.771 -1.6229  0.1918 -0.1930
36792SOL    HW216982  12.598   2.431   1.903  0.7191 -0.2666  0.9009
36793SOL     OW16983   3.678  11.580  12.696 -0.3885 -0.3847 -0.1629
36793SOL    HW116984   3.715  11.520  12.632 -1.8590 -1.7282  0.1721
36793SOL    HW216985   3.589  11.547  12.711 -1.1883  1.7804  0.1829
36794SOL     OW16986  10.003   0.942   2.317  0.1160  0.2814  0.1170
36794SOL    HW116987   9.978   1.023   2.272 -0.6280 -0.5836 -1.0837
36794SOL    HW216988   9.988   0.961   2.410 -2.0715  0.8573 -0.3013
36795SOL     OW16989  10.353   2.573   0.186  0.2738  0.8225 -0.1995
36795SOL    HW116990  10.427   2.590   0.244  1.1821 -0.5924 -0.8886
36795SOL    HW216991  10.362   2.481   0.162 -0.7971  1.0486 -1.5845
36796SOL     OW16992  10.216   2.473   6.653  0.3979  0.6210 -0.1429
36796SOL    HW116993  10.132   2.489   6.609  0.6839  1.4047 -0.4017
36796SOL    HW216994  10.195   2.478   6.746 -0.4080 -1.9585 -0.0768
36797SOL     OW16995   5.941   0.808   5.974 -0.3586 -0.2692 -0.5685
36797SOL    HW116996   5.909   0.830   5.886 -0.2625  0.2754 -0.4746
36797SOL    HW216997   6.023   0.761   5.959  0.3588  0.9862 -0.7601
36798SOL     OW16998  11.797   6.206   2.502  0.1512 -0.1971  0.0358
36798SOL    HW116999  11.884   6.235   2.478 -0.0738 -0.2564 -0.8741
36798SOL    HW217000  11.811   6.127   2.555  0.6477 -0.2431 -0.1651
36799SOL     OW17001   5.280  10.689   8.414 -0.3025 -0.3076  0.3095
36799SOL    HW117002   5.259  10.715   8.504  0.6317 -1.0014  0.7432
36799SOL    HW217003   5.281  10.771   8.365 -1.9231 -0.0304  0.6801
36800SOL     OW17004   9.280   8.408   6.330 -0.1317 -0.1075 -0.1209
36800SOL    HW117005   9.277   8.497   6.366  0.3399  0.1460 -0.6963
36800SOL    HW217006   9.355   8.368   6.373 -0.4120 -0.2733  0.2236
36801SOL     OW17007   6.737   9.972   4.804  0.3143  0.2407 -0.1542
36801SOL    HW117008   6.812   9.973   4.744 -0.7002 -1.3765 -1.5271
36801SOL    HW217009   6.679  10.041   4.772  1.1043  1.4303  0.8534
36802SOL     OW17010   2.892   4.125   1.418 -0.0421 -0.1503  0.4079
36802SOL    HW117011   2.920   4.144   1.508 -1.5761 -1.8704  1.3411
36802SOL    HW217012   2.927   4.037   1.400 -2.5066 -1.2768  0.6753
36803SOL     OW17013   7.409   4.365   8.364  0.5914 -0.5853 -0.7762
36803SOL    HW117014   7.355   4.401   8.434  0.3540  1.0680 -1.7545
36803SOL    HW217015   7.410   4.271   8.381  0.0845 -0.3061  1.1071
36804SOL     OW17016   0.452   2.722   0.485 -0.1399  0.2069 -0.4029
36804SOL    HW117017   0.500   2.686   0.410  0.1418 -0.4726  0.0942
36804SOL    HW217018   0.508   2.791   0.519 -0.8592  1.4426 -1.6052
36805SOL     OW17019   0.186  11.290   2.544 -0.4034 -0.2365 -0.3873
36805SOL    HW117020   0.222  11.209   2.508 -0.9570 -2.0102  2.6266
36805SOL    HW217021   0.262  11.342   2.569  0.0989 -1.5108  0.9081
36806SOL     OW17022   4.496   4.169   8.495  0.7104  0.2621  0.3638
36806SOL    HW117023   4.516   4.078   8.517  0.0917 -0.0188 -0.2079
36806SOL    HW217024   4.457   4.204   8.575 -3.0770 -1.2286 -0.5778
36807SOL     OW17025   7.150   2.287   0.435 -0.0463  0.2830  0.1002
36807SOL    HW117026   7.122   2.205   0.476  0.1515  0.7903  1.2899
36807SOL    HW217027   7.084   2.351   0.463 -0.6447  0.3930 -1.4609
36808SOL     OW17028   0.400   5.762   6.840  0.3424  0.4671  0.7030
36808SOL    HW117029   0.356   5.847   6.843 -1.9253 -0.6144  0.4781
36808SOL    HW217030   0.417   5.740   6.931 -1.0268  0.2558  0.9331
36809SOL     OW17031   6.090   2.566   4.923  0.2564  0.0851  0.3073
36809SOL    HW117032   6.064   2.646   4.878 -1.8484 -0.6722  0.0675
36809SOL    HW217033   6.157   2.594   4.985  1.7212  1.5002 -1.7790
36810SOL     OW17034   4.349   4.133   1.813  0.3185  0.3527 -0.3790
36810SOL    HW117035   4.420   4.158   1.754  1.4567  1.4986  1.3993
36810SOL    HW217036   4.310   4.216   1.841 -0.7246 -0.2006 -0.1392
36811SOL     OW17037   6.829   6.940  11.540  0.6588 -0.0214  0.1112
36811SOL    HW117038   6.774   7.018  11.552 -0.5404 -0.4186 -2.2459
36811SOL    HW217039   6.871   6.928  11.625 -2.2690  0.8195  1.8506
36812SOL     OW17040   6.374  10.772  12.115 -0.2834  0.2141 -0.0332
36812SOL    HW117041   6.383  10.678  12.099  0.4814  0.2534  0.1339
36812SOL    HW217042   6.463  10.803  12.131 -0.2758  1.2940 -1.8596
36813SOL     OW17043   7.871   3.957   8.031 -0.4810  0.1421 -0.3595
36813SOL    HW117044   7.918   4.023   7.979 -1.2328  0.8291 -0.1860
36813SOL    HW217045   7.929   3.881   8.031  1.8427  1.7044  1.8510
36814SOL     OW17046   4.371   2.245   2.229  0.5577 -0.9652  0.4936
36814SOL    HW117047   4.294   2.226   2.175  0.2680 -1.0627  0.9367
36814SOL    HW217048   4.410   2.323   2.188 -0.0229 -0.6553  0.5208
36815SOL     OW17049  12.571  11.091   4.307  0.4591 -0.5297 -0.5761
36815SOL    HW117050  12.553  11.175   4.264 -0.3026 -0.1760  0.3672
36815SOL    HW217051  12.495  11.037   4.286  1.0956 -1.1029 -1.4379
36816SOL     OW17052   0.945   9.218   6.589 -0.3054  0.3449  0.1400
36816SOL    HW117053   0.880   9.247   6.526  1.3917 -0.3267 -2.0259
36816SOL    HW217054   1.025   9.206   6.539  0.7884 -1.6371  2.1210
36817SOL     OW17055   1.922   7.819   7.771  0.0662 -0.0900 -0.3264
36817SOL    HW117056   1.881   7.832   7.857 -1.2626  1.5582 -1.1560
36817SOL    HW217057   1.880   7.741   7.736  1.1591 -1.2234  0.7876
36818SOL     OW17058  12.131   0.636   2.309  0.3819  0.1701  0.5764
36818SOL    HW117059  12.074   0.695   2.359 -0.3679  0.8109 -0.9918
36818SOL    HW217060  12.161   0.688   2.235  0.4690 -1.1419 -0.3384
36819SOL     OW17061   8.058  11.627   3.838 -0.1142 -0.2151 -0.3304
36819SOL    HW117062   8.066  11.689   3.910  0.5045 -0.5667 -0.0927
36819SOL    HW217063   8.147  11.616   3.805 -0.1896 -1.1017 -0.2643
36820SOL     OW17064  11.002   9.380   1.227  0.1834  0.3624  0.1260
36820SOL    HW117065  10.926   9.359   1.172 -0.5794  0.4629  1.1007
36820SOL    HW217066  10.964   9.400   1.313  1.2116  1.7524  0.2798
36821SOL     OW17067   4.718   1.902  12.511 -0.8591  0.5251 -0.0713
36821SOL    HW117068   4.747   1.972  12.453 -0.3319  0.3226 -0.0578
36821SOL    HW217069   4.626   1.889  12.489 -0.7027  0.5505 -0.7661
36822SOL     OW17070   9.430   9.512  10.638 -0.6475  0.0639 -0.4113
36822SOL    HW117071   9.414   9.429  10.594 -0.3637 -1.0739  1.5369
36822SOL    HW217072   9.360   9.518  10.703 -0.3928  1.1253 -0.2190
36823SOL     OW17073   2.424   5.073   3.049 -0.2554 -0.2684  0.1512
36823SOL    HW117074   2.507   5.072   3.001 -0.4206  1.2840 -0.2170
36823SOL    HW217075   2.368   5.011   3.001  0.3016 -0.4290 -0.3088
36824SOL     OW17076   5.146   2.320   4.125  0.6376 -0.5224 -0.3157
36824SOL    HW117077   5.214   2.347   4.063 -0.9177 -0.9897 -2.3177
36824SOL    HW217078   5.097   2.401   4.143  1.6912 -0.1833  1.1345
36825SOL     OW17079   9.379   7.686   6.116 -0.3472 -0.1360  0.0487
36825SOL    HW117080   9.296   7.689   6.162  1.8027  1.5377  4.3287
36825SOL    HW217081   9.383   7.769   6.069 -1.3362 -0.5776 -0.8719
36826SOL     OW17082   5.749  11.866  12.601 -0.0654 -0.0794  0.7608
36826SOL    HW117083   5.684  11.851  12.669 -1.0296  2.1586  0.4205
36826SOL    HW217084   5.811  11.928  12.639  1.4254 -1.5241  0.7775
36827SOL     OW17085   0.910   9.930  12.278  0.1057  0.2806 -0.4402
36827SOL    HW117086   0.906  10.005  12.219 -0.2238  1.5449  1.1335
36827SOL    HW217087   0.838   9.873  12.249 -0.8691  1.4923 -0.4589
36828SOL     OW17088   1.252   3.247   3.362 -0.2754 -0.1061 -0.2844
36828SOL    HW117089   1.214   3.208   3.441  0.9604 -0.7222  0.0288
36828SOL    HW217090   1.200   3.326   3.347  0.1898  0.6478  1.7983
36829SOL     OW17091   0.447   1.938  12.360 -0.0572 -0.4615 -0.2914
36829SOL    HW117092   0.396   1.892  12.427  0.4905 -2.3325 -1.0897
36829SOL    HW217093   0.498   2.002  12.408  1.2443 -2.5631  1.2909
36830SOL     OW17094   7.663   4.849   9.259 -0.1767 -0.4577  0.0068
36830SOL    HW117095   7.702   4.761   9.261  2.1391  0.5231  0.8300
36830SOL    HW217096   7.647   4.866   9.166  0.1639 -1.4051 -0.2391
36831SOL     OW17097   9.105   6.038   1.451  0.4000 -0.3267  0.4850
36831SOL    HW117098   9.096   5.949   1.419  1.7645 -0.6168  0.8373
36831SOL    HW217099   9.155   6.084   1.383  1.6110 -0.4346  1.2600
36832SOL     OW17100   4.314   6.681   5.447  0.0540  0.2849  0.2082
36832SOL    HW117101   4.372   6.702   5.521  1.6765  0.7432 -1.1209
36832SOL    HW217102   4.259   6.759   5.437  0.7345  0.7683  0.1286
36833SOL     OW17103  12.669   7.497   0.693 -0.1254 -0.8869  0.2850
36833SOL    HW117104  12.707   7.485   0.781  0.1009  1.1644  0.5246
36833SOL    HW217105  12.609   7.571   0.703  1.8058  1.1501 -1.7686
36834SOL     OW17106   1.405   2.975  11.640 -0.1877  0.1697  0.2184
36834SOL    HW117107   1.464   2.924  11.584 -1.4621 -1.0938 -0.0617
36834SOL    HW217108   1.414   3.065  11.609 -0.4500 -0.4107 -1.7085
36835SOL     OW17109  11.501   6.336   2.318 -0.0352  0.3817 -0.2856
36835SOL    HW117110  11.549   6.359   2.397 -2.3272  0.6060  1.1507
36835SOL    HW217111  11.488   6.420   2.273 -1.2865  0.7683  0.7081
36836SOL     OW17112   7.128  12.443   5.866  0.3875 -0.2964 -0.3399
36836SOL    HW117113   7.118  12.365   5.811 -1.0417 -1.2169  1.1222
36836SOL    HW217114   7.201  12.490   5.828  1.6484 -2.6294 -0.9849
36837SOL     OW17115  10.359   7.224   1.507 -0.4123 -0.2556  0.2350
36837SOL    HW117116  10.371   7.298   1.567 -1.3415 -0.2806  0.4620
36837SOL    HW217117  10.447   7.190   1.495 -0.2004 -0.3034  1.6662
36838SOL     OW17118   0.129  11.862  11.172  0.3695  0.0019 -0.0665
36838SOL    HW117119   0.145  11.923  11.100  0.7347  2.0089  1.6325
36838SOL    HW217120   0.193  11.793  11.160 -0.1505 -0.1756 -2.1369
36839SOL     OW17121  11.108   8.429   1.307  0.0612  0.1806  0.2514
36839SOL    HW117122  11.033   8.458   1.255  0.5354 -0.3812 -0.7673
36839SOL    HW217123  11.160   8.509   1.322 -0.9724  0.6714  1.4044
36840SOL     OW17124   7.448   3.317   6.649  0.0989 -0.1197 -0.5512
36840SOL    HW117125   7.458   3.392   6.590  1.0752 -0.7735 -1.2290
36840SOL    HW217126   7.525   3.263   6.633  0.4081 -0.3034  1.3490
36841SOL     OW17127  11.430   0.049   2.261 -0.2693  0.2874 -0.4411
36841SOL    HW117128  11.499   0.103   2.300 -1.7870  2.6765 -0.8484
36841SOL    HW217129  11.418  -0.023   2.323  0.1349  1.7889  1.4990
36842SOL     OW17130   5.341   8.536  11.239  0.5933 -0.1624 -0.6552
36842SOL    HW117131   5.314   8.621  11.203  1.3580 -0.0463 -0.9667
36842SOL    HW217132   5.264   8.480  11.226  0.1328  0.4348 -0.5818
36843SOL     OW17133   5.409   3.694   4.526 -0.0535 -0.4987 -0.1588
36843SOL    HW117134   5.457   3.773   4.497  0.6947 -1.2859 -1.1341
36843SOL    HW217135   5.408   3.701   4.621  0.5321  0.4017 -0.2035
36844SOL     OW17136  11.211  11.017  12.547 -0.0872 -0.4554  0.2772
36844SOL    HW117137  11.252  10.930  12.539 -0.9969 -0.7710 -1.4964
36844SOL    HW217138  11.224  11.057  12.461 -1.9110  0.1212  0.2291
36845SOL     OW17139   8.062  11.172   6.485  0.4334 -0.2159  0.6815
36845SOL    HW117140   8.090  11.084   6.459 -1.5005 -0.9539  0.8797
36845SOL    HW217141   7.996  11.156   6.552  0.7784  1.4479  1.4473
36846SOL     OW17142   8.884  11.889   3.296  0.0497 -0.3292  0.3578
36846SOL    HW117143   8.817  11.825   3.273 -0.6888 -0.3097  2.2253
36846SOL    HW217144   8.930  11.850   3.370  2.4331 -0.5079 -1.1333
36847SOL     OW17145   1.779   9.041   8.506 -0.2003 -0.3630 -0.1839
36847SOL    HW117146   1.799   9.132   8.483 -0.2135  0.1395  1.6118
36847SOL    HW217147   1.863   9.005   8.536 -0.7271 -0.0054  1.8953
36848SOL     OW17148  11.722   4.305   4.094  0.0791  0.1282 -0.1838
36848SOL    HW117149  11.737   4.398   4.109  0.0847  0.6924 -3.0326
36848SOL    HW217150  11.627   4.296   4.087  0.1270  0.7012 -3.2896
36849SOL     OW17151  12.353   9.636   1.330 -0.0476  0.1268  0.5761
36849SOL    HW117152  12.356   9.557   1.383 -0.0464  0.0489  0.4617
36849SOL    HW217153  12.439   9.639   1.287 -1.0232 -1.3783 -1.6665
36850SOL     OW17154   4.370   9.232   0.389  0.3767  0.2037  0.4616
36850SOL    HW117155   4.351   9.145   0.426 -0.2987  1.0568  2.2747
36850SOL    HW217156   4.350   9.223   0.296  1.0823 -1.7925  0.4422
36851SOL     OW17157   7.221   3.647   0.364 -0.0366  0.4970 -0.3065
36851SOL    HW117158   7.182   3.646   0.276  2.0743 -0.1436 -1.3122
36851SOL    HW217159   7.307   3.688   0.351  1.0379 -1.1536  1.0938
36852SOL     OW17160   5.686   8.335   7.531  0.0950  0.2060  0.6428
36852SOL    HW117161   5.647   8.287   7.603  0.5683 -1.5519 -0.2230
36852SOL    HW217162   5.745   8.397   7.572 -0.4585 -0.0055  1.7931
36853SOL     OW17163   0.008   6.573   9.673 -0.2350 -0.2857 -0.0359
36853SOL    HW117164  -0.003   6.480   9.694 -0.5247 -0.7636 -2.1039
36853SOL    HW217165   0.059   6.573   9.592  1.5525  1.4466  1.0097
36854SOL     OW17166   9.681   3.434   1.895  0.0911 -0.1300 -0.1783
36854SOL    HW117167   9.605   3.485   1.922 -0.2418 -0.4599 -0.4699
36854SOL    HW217168   9.663   3.412   1.803  0.6841  0.0512 -0.3383
36855SOL     OW17169   4.190   6.319   8.735 -0.3932 -0.3816 -0.2409
36855SOL    HW117170   4.150   6.239   8.699 -0.3018 -0.7730  0.4989
36855SOL    HW217171   4.280   6.294   8.755 -0.1119  0.1658 -0.8243
36856SOL     OW17172   0.088   4.296   7.607 -0.2102 -0.3994  0.3637
36856SOL    HW117173   0.021   4.355   7.572 -1.6481 -1.8845  0.4597
36856SOL    HW217174   0.122   4.341   7.684  0.2054  1.1752 -0.7010
36857SOL     OW17175   6.205   8.643   0.146  0.6427 -0.0494 -0.8765
36857SOL    HW117176   6.187   8.690   0.227  0.6723 -1.0918 -0.2472
36857SOL    HW217177   6.129   8.660   0.091 -0.9324 -1.8389  0.5659
36858SOL     OW17178   3.461   2.973   4.578 -0.4304  0.6854  0.3045
36858SOL    HW117179   3.541   3.024   4.592  0.0527  0.0712 -0.1658
36858SOL    HW217180   3.412   3.022   4.513 -0.7591  1.4138  1.0818
36859SOL     OW17181  10.416   9.711  11.480 -0.4546 -0.2629  0.1101
36859SOL    HW117182  10.323   9.725  11.460 -0.1959 -1.1017 -2.0034
36859SOL    HW217183  10.453   9.799  11.486 -1.1589  0.0803 -0.3744
36860SOL     OW17184   6.538   0.053  12.403 -0.6594  0.1144  0.0595
36860SOL    HW117185   6.449   0.044  12.436 -1.0923 -2.0484 -1.4743
36860SOL    HW217186   6.538   0.138  12.358 -2.0468  0.0084 -0.1887
36861SOL     OW17187   2.179   2.481   4.986 -0.0254 -0.1154  0.2811
36861SOL    HW117188   2.188   2.398   5.033  1.1672 -0.1730 -0.0150
36861SOL    HW217189   2.125   2.459   4.910 -0.4328 -0.4266  0.6541
36862SOL     OW17190   6.862   0.205   1.608 -0.5896 -0.2868  0.0260
36862SOL    HW117191   6.835   0.295   1.627 -0.4919 -0.0142 -1.0847
36862SOL    HW217192   6.905   0.175   1.689 -0.2084  0.8244  0.2514
36863SOL     OW17193   9.939   8.556   8.854 -0.0888  0.6126 -0.1018
36863SOL    HW117194   9.919   8.483   8.913 -1.1093  1.5646  0.7663
36863SOL    HW217195  10.023   8.532   8.815 -0.6011 -1.2256 -0.1726
36864SOL     OW17196   9.909   6.751   8.835  0.3828 -0.3736 -0.1613
36864SOL    HW117197   9.815   6.772   8.841  0.8363  1.6425  0.8368
36864SOL    HW217198   9.952   6.828   8.873  2.4052 -1.7415  0.4250
36865SOL     OW17199   1.657   4.537   8.832 -0.0980 -0.0796  0.9258
36865SOL    HW117200   1.704   4.489   8.763 -2.0407 -0.1231 -0.4629
36865SOL    HW217201   1.706   4.618   8.842 -0.3730  0.4681 -1.4315
36866SOL     OW17202   9.689   9.222   5.723 -0.0886  0.0022 -1.2513
36866SOL    HW117203   9.707   9.285   5.653 -0.6786 -0.0018 -1.4148
36866SOL    HW217204   9.688   9.137   5.679  0.4344 -0.0953 -1.0778
36867SOL     OW17205  10.505   1.330  11.237 -0.0052  0.7898 -0.0686
36867SOL    HW117206  10.447   1.397  11.200 -0.3573  0.0833 -0.8169
36867SOL    HW217207  10.492   1.336  11.332  1.2938  2.9833  0.0470
36868SOL     OW17208   0.467   0.933   9.410 -0.7959  0.1740  0.6634
36868SOL    HW117209   0.480   0.845   9.374  0.0950 -0.5451  2.6028
36868SOL    HW217210   0.527   0.989   9.360 -0.7743 -0.4691 -0.0441
36869SOL     OW17211   5.370   0.121   8.764 -0.4842  0.1167  0.4660
36869SOL    HW117212   5.376   0.030   8.791  0.7348  0.2958  0.8706
36869SOL    HW217213   5.460   0.153   8.768 -0.8045  1.1580 -0.3003
36870SOL     OW17214   3.647   8.962   7.718  0.1192 -0.1851  0.9772
36870SOL    HW117215   3.687   9.047   7.740  1.2438 -0.4701  0.1226
36870SOL    HW217216   3.652   8.958   7.623 -0.1077 -1.1343  1.0015
36871SOL     OW17217   8.914   9.995  10.116 -0.3526  0.0621  0.1384
36871SOL    HW117218   8.918   9.946  10.033  0.8480 -0.9281  0.7408
36871SOL    HW217219   8.974  10.069  10.103  0.7940 -0.7725  0.5134
36872SOL     OW17220   9.755   4.629  11.753 -0.4794 -0.0064 -0.1038
36872SOL    HW117221   9.745   4.625  11.658 -1.7123 -0.4488  0.0316
36872SOL    HW217222   9.759   4.537  11.781 -1.1568  0.0983  0.3628
36873SOL     OW17223   2.841  10.944   9.168  0.3480  0.8507 -0.5229
36873SOL    HW117224   2.795  10.863   9.190 -0.0258  0.7471 -1.5995
36873SOL    HW217225   2.859  10.936   9.074  2.9061  0.7208 -0.0903
36874SOL     OW17226  11.676   0.210   3.086 -0.1744 -0.4415 -0.4207
36874SOL    HW117227  11.602   0.239   3.033 -0.6249  0.3328  0.5938
36874SOL    HW217228  11.716   0.291   3.117 -2.2394 -0.7167  3.5656
36875SOL     OW17229   5.127   1.347   9.136 -0.1810 -0.2356  0.3364
36875SOL    HW117230   5.100   1.255   9.128  2.1510 -0.9190 -0.5769
36875SOL    HW217231   5.184   1.348   9.212  2.0597 -0.2253 -1.2399
36876SOL     OW17232   7.624  12.072   3.240 -0.0463  0.2242 -0.1995
36876SOL    HW117233   7.560  12.137   3.210  0.9522  0.4976 -1.8354
36876SOL    HW217234   7.598  11.992   3.195  1.0637  0.4698 -1.3086
36877SOL     OW17235  10.983   3.163   2.472 -0.8960  0.3404 -0.7242
36877SOL    HW117236  10.952   3.213   2.396 -1.2775  0.4920 -0.4722
36877SOL    HW217237  11.022   3.084   2.434  1.3973  1.6328 -1.2565
36878SOL     OW17238   5.792   0.803  12.371 -0.2333 -0.4376  0.2135
36878SOL    HW117239   5.780   0.856  12.450  1.8258 -0.8029  0.8313
36878SOL    HW217240   5.711   0.815  12.321 -0.5727  1.7849  1.1986
36879SOL     OW17241   6.922   9.087   9.262 -0.1415 -0.4776  0.1464
36879SOL    HW117242   6.946   9.000   9.228 -2.2636 -0.3300 -1.9559
36879SOL    HW217243   6.985   9.146   9.222 -0.0203 -0.7932 -0.1339
36880SOL     OW17244   8.507  11.804   5.024  0.1365 -0.3287  0.0726
36880SOL    HW117245   8.598  11.791   5.051 -0.3713 -0.3425  1.9413
36880SOL    HW217246   8.505  11.893   4.989  0.8703 -0.3629 -0.0788
36881SOL     OW17247   9.306  10.690   4.906 -0.0286  0.0840 -0.3600
36881SOL    HW117248   9.311  10.756   4.836 -0.5933 -0.4124 -0.8840
36881SOL    HW217249   9.374  10.626   4.882  2.1609  1.5816  1.3897
36882SOL     OW17250   9.409   6.622   9.191 -0.3339 -0.0507  0.3944
36882SOL    HW117251   9.467   6.679   9.241 -0.8980  0.8759  0.0028
36882SOL    HW217252   9.468   6.562   9.145  0.3160  0.8377  0.0574
36883SOL     OW17253   7.237   6.163  10.010  0.1623  0.6556  0.4461
36883SOL    HW117254   7.263   6.190   9.923 -0.3611 -0.6562 -0.1457
36883SOL    HW217255   7.173   6.093   9.996  0.3090  0.1915  1.8640
36884SOL     OW17256  11.949   5.321   3.875 -0.0679 -0.0700 -0.0468
36884SOL    HW117257  11.939   5.228   3.854  0.4481 -0.2063  0.3017
36884SOL    HW217258  11.993   5.322   3.960 -0.0286  0.4946 -0.0711
36885SOL     OW17259   6.325   1.601   1.017  0.0164 -0.2700 -0.7214
36885SOL    HW117260   6.277   1.662   1.073  0.4621  0.7822 -1.4391
36885SOL    HW217261   6.365   1.657   0.950  0.7227 -1.3225 -1.2100
36886SOL     OW17262   8.377   4.051   2.909  0.3014 -0.6092 -0.0325
36886SOL    HW117263   8.382   3.969   2.958  0.5852 -0.7024 -0.2189
36886SOL    HW217264   8.464   4.063   2.872  0.1501 -0.4261 -0.3358
36887SOL     OW17265   9.015   6.610   2.656  0.1066 -0.8790  0.1512
36887SOL    HW117266   9.010   6.702   2.680  5.6097 -0.0775 -0.2810
36887SOL    HW217267   9.014   6.564   2.740 -1.2824 -0.3388  0.4575
36888SOL     OW17268   2.590   4.124  12.130  0.1724  0.2246  0.0965
36888SOL    HW117269   2.676   4.166  12.141 -1.8277  4.4743  1.7547
36888SOL    HW217270   2.539   4.189  12.081 -2.5327 -1.5226  0.4328
36889SOL     OW17271   6.115   7.770   6.801  0.0705 -0.6401 -0.0267
36889SOL    HW117272   6.088   7.760   6.892 -0.5955  2.2017  0.2030
36889SOL    HW217273   6.208   7.751   6.800 -0.2816 -2.5818  0.8237
36890SOL     OW17274   0.713   4.928  11.293  0.4884  0.0409 -0.0094
36890SOL    HW117275   0.701   4.889  11.379  0.2604 -0.6084 -0.3237
36890SOL    HW217276   0.645   4.996  11.287 -0.7023 -1.1311 -0.3570
36891SOL     OW17277   1.196  11.332   1.961 -0.0423 -0.4838  0.2367
36891SOL    HW117278   1.137  11.406   1.959 -0.5804 -0.8915  0.7664
36891SOL    HW217279   1.250  11.342   1.882 -1.3433 -0.5374 -0.6849
36892SOL     OW17280  10.645   1.720   0.196 -0.3963  0.3699 -0.0274
36892SOL    HW117281  10.642   1.768   0.114 -0.6564 -0.2252 -0.3756
36892SOL    HW217282  10.573   1.755   0.248 -3.0695 -2.1335 -1.7151
36893SOL     OW17283  10.607   7.161  10.687  0.0324  0.6771  0.0063
36893SOL    HW117284  10.572   7.251  10.687 -1.3069  0.1977  1.1695
36893SOL    HW217285  10.599   7.132  10.596  1.7070  2.1451 -0.6728
36894SOL     OW17286   3.846  11.067   5.680  0.3046 -0.4243  0.5237
36894SOL    HW117287   3.807  11.153   5.662  0.1334 -0.5420  0.3267
36894SOL    HW217288   3.891  11.044   5.598  0.4060 -0.4916  0.5987
36895SOL     OW17289   4.363   9.858   2.980 -0.3375  0.1932 -0.6792
36895SOL    HW117290   4.295   9.815   2.928  0.2298 -0.9464 -0.5139
36895SOL    HW217291   4.410   9.913   2.917 -1.0714  0.5877 -0.8975
36896SOL     OW17292   2.648   0.827  11.551  0.3743  0.1078  0.1322
36896SOL    HW117293   2.643   0.772  11.472  1.5679 -0.0219  0.1304
36896SOL    HW217294   2.560   0.863  11.560 -0.1750 -1.0267 -0.4300
36897SOL     OW17295  10.347   4.307   9.040 -0.0418 -0.5596  0.4856
36897SOL    HW117296  10.299   4.333   9.119 -0.0099 -2.0444  1.0182
36897SOL    HW217297  10.436   4.287   9.072 -0.5991 -3.3550  0.5314
36898SOL     OW17298   3.630   0.822   9.770  0.3599  0.3528 -0.6102
36898SOL    HW117299   3.574   0.748   9.792  0.0724  1.1505  1.5680
36898SOL    HW217300   3.712   0.805   9.816  0.3154  1.3460 -0.1488
36899SOL     OW17301  10.995   2.089  10.993  0.1410 -0.0244  0.1263
36899SOL    HW117302  11.008   2.055  10.905  1.9154 -0.5179  0.5284
36899SOL    HW217303  10.967   2.180  10.981  3.0669  0.8265 -0.9879
36900SOL     OW17304   4.520   9.092   2.666 -0.1553 -0.1957  0.2930
36900SOL    HW117305   4.460   9.145   2.614 -0.3860  0.0021  0.7561
36900SOL    HW217306   4.562   9.034   2.603 -0.1113  0.3418 -0.1802
36901SOL     OW17307   5.885   7.502   2.291  0.4559 -0.3076  0.1215
36901SOL    HW117308   5.947   7.450   2.342  1.8596  0.9863 -0.1921
36901SOL    HW217309   5.821   7.532   2.356 -0.3958 -2.3515  0.3086
36902SOL     OW17310  12.153   7.042   3.081 -0.0275  0.0713 -0.0266
36902SOL    HW117311  12.121   7.091   3.156 -0.6911  0.2870 -0.4452
36902SOL    HW217312  12.076   6.998   3.045 -0.1584  1.6925 -1.8698
36903SOL     OW17313  11.906   3.682   1.077  0.2599 -0.5740 -0.5566
36903SOL    HW117314  11.985   3.731   1.101 -0.3743 -0.2018  0.8871
36903SOL    HW217315  11.835   3.747   1.082 -0.5570 -1.5377  1.1312
36904SOL     OW17316   9.228   5.142   9.288  0.9480  0.0936  0.2919
36904SOL    HW117317   9.186   5.145   9.202 -1.0279 -1.1764  1.1393
36904SOL    HW217318   9.320   5.164   9.271  0.4230  0.7979 -1.9813
36905SOL     OW17319   8.033   3.885   3.826  0.1413 -0.5585 -0.2136
36905SOL    HW117320   8.037   3.834   3.907  0.9277 -1.2676 -0.6788
36905SOL    HW217321   7.940   3.897   3.810 -0.1109 -2.5343 -0.4846
36906SOL     OW17322   5.890  10.618   6.058  0.1966  0.5474 -0.3700
36906SOL    HW117323   5.898  10.673   5.980 -0.2333  0.0930 -0.7396
36906SOL    HW217324   5.961  10.555   6.051  1.3612  1.7067  0.6028
36907SOL     OW17325   8.531  10.169   5.872  0.3468 -0.5286 -0.9091
36907SOL    HW117326   8.622  10.152   5.850  0.7507  1.9514 -1.4169
36907SOL    HW217327   8.535  10.233   5.943 -0.9677  0.2387 -1.4842
36908SOL     OW17328   0.504  10.980   0.764  0.0038 -0.4531  0.3223
36908SOL    HW117329   0.538  10.905   0.715  0.5247  0.2399 -0.4055
36908SOL    HW217330   0.435  10.943   0.819  0.6201 -1.5632  0.3918
36909SOL     OW17331  11.088   8.196   1.463  0.3117 -0.0906 -0.0852
36909SOL    HW117332  11.075   8.261   1.394  1.6214  2.1848  1.6598
36909SOL    HW217333  11.135   8.244   1.532  0.5465 -2.6859  1.6861
36910SOL     OW17334   5.532   1.265   6.333 -0.3451 -0.6000 -0.1269
36910SOL    HW117335   5.541   1.347   6.382  0.9466 -0.4866 -0.5243
36910SOL    HW217336   5.544   1.291   6.242 -2.1237 -0.9049 -0.4842
36911SOL     OW17337   0.547  10.946   5.087 -0.0861  0.1057 -0.0365
36911SOL    HW117338   0.606  11.021   5.083  0.3419 -0.2581 -0.7108
36911SOL    HW217339   0.555  10.914   5.177  0.6296  0.1589 -0.0757
36912SOL     OW17340   0.870  11.945  12.094 -0.0352 -0.0024 -0.1272
36912SOL    HW117341   0.820  12.025  12.081 -0.7817 -0.3957  0.2363
36912SOL    HW217342   0.958  11.965  12.062  0.1318  1.3496  1.1246
36913SOL     OW17343  12.653   8.892   8.128 -0.1036 -0.3955  0.5173
36913SOL    HW117344  12.568   8.855   8.152  0.1095  0.1611  2.3014
36913SOL    HW217345  12.633   8.981   8.097 -0.2399 -0.5106  0.2784
36914SOL     OW17346   5.355   6.437   0.944 -0.5978  0.3288 -0.5079
36914SOL    HW117347   5.368   6.438   1.039  0.7158  2.4547 -0.6593
36914SOL    HW217348   5.290   6.505   0.927 -2.5750 -1.5738 -0.9916
36915SOL     OW17349   1.721   5.074   1.862  0.0804  0.5758 -0.0639
36915SOL    HW117350   1.679   5.101   1.944  2.8262  0.8059  1.4096
36915SOL    HW217351   1.788   5.140   1.847 -0.0388  0.2574 -2.2765
36916SOL     OW17352   5.135   3.789   4.068 -0.3053 -0.9233 -0.4313
36916SOL    HW117353   5.213   3.772   4.121 -0.9967  0.2118  1.0145
36916SOL    HW217354   5.170   3.810   3.981  1.1783  1.3603  0.6099
36917SOL     OW17355   5.420   0.889   1.303  0.3449 -0.4282  0.0253
36917SOL    HW117356   5.350   0.942   1.266 -1.7416 -2.0550  1.3689
36917SOL    HW217357   5.417   0.807   1.252 -0.3028 -1.3734  1.5182
36918SOL     OW17358   0.307  10.090   4.636 -0.1237 -0.7057 -0.1300
36918SOL    HW117359   0.224  10.115   4.676 -0.2559  0.5553 -1.1172
36918SOL    HW217360   0.364  10.166   4.649  1.3486 -2.0153  1.6590
36919SOL     OW17361   4.927   7.980   4.717 -0.3009 -0.3886  0.1160
36919SOL    HW117362   4.979   7.930   4.654 -1.3543 -0.7101 -0.5175
36919SOL    HW217363   4.875   7.915   4.763 -0.9808  0.0273 -0.0481
36920SOL     OW17364   2.946   1.596   7.439  0.1241  0.2163  0.3251
36920SOL    HW117365   3.021   1.602   7.498  0.6878 -1.9650 -0.0622
36920SOL    HW217366   2.966   1.521   7.383 -1.7077  0.4644 -0.7428
36921SOL     OW17367   3.391   4.339   4.793 -0.2527 -0.2566 -0.5016
36921SOL    HW117368   3.444   4.273   4.748 -0.3768  0.5960 -1.9344
36921SOL    HW217369   3.390   4.414   4.734 -0.1149  1.0591  1.1009
36922SOL     OW17370   7.923  11.495   8.036  0.0789 -0.4462  0.0833
36922SOL    HW117371   7.888  11.569   7.987 -0.2434 -0.9364 -0.4444
36922SOL    HW217372   8.018  11.506   8.032  0.0190  0.8540  1.4703
36923SOL     OW17373   9.094   5.141   8.316 -0.4843  0.1471 -0.0766
36923SOL    HW117374   9.052   5.112   8.397  0.1764  0.4995  0.3964
36923SOL    HW217375   9.168   5.194   8.344 -1.6965  2.4523 -0.8688
36924SOL     OW17376   2.533   6.108   7.740  0.4292  0.3645 -0.1063
36924SOL    HW117377   2.566   6.115   7.829  0.5418 -0.2996 -0.0884
36924SOL    HW217378   2.448   6.065   7.749  0.6899 -0.2195 -0.3571
36925SOL     OW17379   1.595   4.953   3.797 -0.3143 -0.1263  0.0525
36925SOL    HW117380   1.589   4.858   3.796 -1.8234 -0.0633  0.6117
36925SOL    HW217381   1.635   4.976   3.713 -0.9416 -1.1941 -0.5606
36926SOL     OW17382   3.325   5.849   8.707 -0.2108  0.4038  0.1643
36926SOL    HW117383   3.369   5.764   8.704  1.1107  1.0237  0.8871
36926SOL    HW217384   3.276   5.849   8.789  0.8646  0.8015  0.8403
36927SOL     OW17385   7.989   3.300   4.307 -0.2503  0.2189 -0.1424
36927SOL    HW117386   7.916   3.276   4.249 -1.4699  1.3755  0.8758
36927SOL    HW217387   8.062   3.245   4.277 -1.4098 -0.6619 -1.4570
36928SOL     OW17388   6.200   1.269   8.593  0.0104  0.5673  0.3607
36928SOL    HW117389   6.179   1.310   8.677  1.0911  2.0725 -0.0373
36928SOL    HW217390   6.118   1.268   8.544 -0.0186  2.6783  0.2687
36929SOL     OW17391  11.988   4.225  10.654  0.1727 -0.9498  0.4304
36929SOL    HW117392  12.034   4.307  10.669 -1.0131  0.1670 -1.5893
36929SOL    HW217393  11.977   4.187  10.741  3.3453 -0.4712  1.1541
36930SOL     OW17394   9.982  11.822   1.116  0.1967 -0.0110  0.0032
36930SOL    HW117395  10.025  11.829   1.031 -2.2972 -2.0517 -1.6174
36930SOL    HW217396   9.940  11.906   1.129  1.2966  0.6100 -0.3479
36931SOL     OW17397   6.154   8.910   5.280  0.5583  0.0919 -0.0164
36931SOL    HW117398   6.190   8.822   5.289  1.2541  0.2769 -0.8803
36931SOL    HW217399   6.073   8.908   5.331  0.6590 -0.9929  0.1229
36932SOL     OW17400   9.617   6.354   2.210 -0.1828  0.3434  0.0100
36932SOL    HW117401   9.524   6.362   2.229  0.2053  3.2585  1.3291
36932SOL    HW217402   9.659   6.355   2.296  1.1125  0.6742 -0.5969
36933SOL     OW17403   1.405  10.891   6.228 -0.2759  0.2342 -0.1993
36933SOL    HW117404   1.421  10.873   6.321  0.0350  0.3579 -0.2283
36933SOL    HW217405   1.310  10.891   6.220 -0.3009 -0.4559 -0.0105
36934SOL     OW17406  12.524   7.755   9.287 -0.2802 -0.0506  0.3494
36934SOL    HW117407  12.490   7.666   9.298  1.1836 -0.6416  0.2502
36934SOL    HW217408  12.552   7.759   9.196  1.0087 -0.0029  0.7205
36935SOL     OW17409   6.135  11.189   0.982 -0.2774 -0.8208  0.0325
36935SOL    HW117410   6.133  11.217   0.891  0.2909 -0.2901  0.1715
36935SOL    HW217411   6.101  11.265   1.031  1.0441 -0.4345  0.3986
36936SOL     OW17412   8.057   1.286   1.071  0.1328 -0.6034  0.2372
36936SOL    HW117413   8.074   1.245   0.986  0.6093 -0.0326  0.0450
36936SOL    HW217414   8.105   1.232   1.134 -0.2767 -1.0662  0.1561
36937SOL     OW17415   5.533   2.603   1.314 -0.2167 -0.3716 -0.2699
36937SOL    HW117416   5.589   2.680   1.313 -0.4423 -0.0703  2.4469
36937SOL    HW217417   5.445   2.639   1.328 -0.2605 -1.0894  1.5137
36938SOL     OW17418   3.546   4.953   0.751 -0.4751 -0.4474  0.3115
36938SOL    HW117419   3.627   4.981   0.796  0.1813 -0.2319 -0.9478
36938SOL    HW217420   3.476   4.981   0.809  0.3520 -0.5237  1.3838
36939SOL     OW17421   0.431   6.963   9.610 -0.0223 -0.2123 -0.4619
36939SOL    HW117422   0.358   6.902   9.615  1.0753 -1.4929  1.2670
36939SOL    HW217423   0.463   6.969   9.700  0.9369  1.6732 -0.8736
36940SOL     OW17424  11.223  12.115   4.603 -1.0502  0.3401 -0.1816
36940SOL    HW117425  11.135  12.151   4.593 -0.9780  0.3748 -0.7236
36940SOL    HW217426  11.247  12.084   4.515  0.8481  3.4743 -0.9570
36941SOL     OW17427   9.456   8.908   8.936 -0.4453  0.1698  0.7507
36941SOL    HW117428   9.376   8.956   8.920 -1.1388 -1.3478 -0.6159
36941SOL    HW217429   9.446   8.873   9.025 -0.8324  0.8282  0.9685
36942SOL     OW17430  10.371   8.350  10.492 -0.7854 -0.0212  0.0813
36942SOL    HW117431  10.306   8.335  10.560 -0.8602  0.7099  0.1791
36942SOL    HW217432  10.446   8.297  10.518 -1.1347 -0.4384  0.2578
36943SOL     OW17433   1.147  10.734   7.326 -0.2611 -0.0158 -0.3651
36943SOL    HW117434   1.104  10.804   7.376  0.0734  0.2853 -0.4945
36943SOL    HW217435   1.230  10.720   7.371 -0.2530 -0.2088 -0.4408
36944SOL     OW17436   3.521   6.364   4.592 -0.4172 -0.6952  0.6471
36944SOL    HW117437   3.461   6.368   4.518  1.0709  1.5076 -0.5724
36944SOL    HW217438   3.604   6.334   4.554  0.3515  0.3992  1.4011
36945SOL     OW17439  10.689   2.895   1.657  0.3846 -0.0768  0.3446
36945SOL    HW117440  10.743   2.829   1.702 -1.5995 -1.6453  0.5759
36945SOL    HW217441  10.674   2.858   1.570 -0.7576  0.0569  0.4798
36946SOL     OW17442   4.389  11.775   6.901 -0.3880 -0.5438  0.1597
36946SOL    HW117443   4.311  11.749   6.948 -1.4937  0.4452 -1.0466
36946SOL    HW217444   4.389  11.721   6.822 -0.3429  0.0642 -0.2645
36947SOL     OW17445   8.432   0.644   1.894 -0.4636 -0.5621 -0.1009
36947SOL    HW117446   8.418   0.579   1.964  1.0912 -1.5677 -0.6735
36947SOL    HW217447   8.426   0.594   1.813  2.8350 -0.5293 -0.5193
36948SOL     OW17448   6.762   1.440  10.828 -0.3197 -0.2148  0.0001
36948SOL    HW117449   6.773   1.409  10.918 -0.0821 -1.6590 -0.5018
36948SOL    HW217450   6.778   1.534  10.833 -1.6660 -0.0287  1.6984
36949SOL     OW17451  10.544   4.050  10.053 -0.1255  0.7098 -0.0073
36949SOL    HW117452  10.630   4.040  10.094  0.1762  0.7239 -0.6339
36949SOL    HW217453  10.500   4.117  10.105 -0.5037 -0.6696  1.5327
36950SOL     OW17454   6.394   0.490   1.329  0.0124 -0.2151  0.0667
36950SOL    HW117455   6.377   0.550   1.402 -0.7019  0.4547 -0.6253
36950SOL    HW217456   6.329   0.514   1.263  0.8177 -0.6284 -0.9022
36951SOL     OW17457   0.980   8.319   2.646  0.3378  0.6913  0.0601
36951SOL    HW117458   0.990   8.362   2.731  2.4999  0.2034  0.1096
36951SOL    HW217459   1.008   8.385   2.583  0.1714  0.5566 -0.1526
36952SOL     OW17460   3.732  10.849   8.205 -0.1738 -0.4686  0.6355
36952SOL    HW117461   3.637  10.850   8.193 -0.2373 -0.5460  1.1053
36952SOL    HW217462   3.759  10.761   8.179 -0.3259 -0.6792  1.1763
36953SOL     OW17463   7.913  12.481   8.318 -0.2126  0.4431 -0.5286
36953SOL    HW117464   7.915  12.446   8.407  0.3737  1.9570  0.0898
36953SOL    HW217465   7.934  12.574   8.328 -0.8133  0.7975 -2.1827
36954SOL     OW17466   8.793   6.516   4.105 -0.2159  0.3183  0.2270
36954SOL    HW117467   8.775   6.607   4.081  2.1660  0.5433 -0.9363
36954SOL    HW217468   8.771   6.466   4.027 -2.2924 -0.2934  1.1183
36955SOL     OW17469   6.797   8.704   8.710  0.4317  0.4445  0.1884
36955SOL    HW117470   6.746   8.754   8.774  1.7567  1.7230  0.3134
36955SOL    HW217471   6.766   8.736   8.625  0.7975  1.0086  0.2592
36956SOL     OW17472   0.851   1.949   0.715 -0.0565 -0.5179  0.0792
36956SOL    HW117473   0.804   1.997   0.783 -1.6691  0.2234 -1.5049
36956SOL    HW217474   0.944   1.964   0.735 -0.4148  4.0028 -0.7993
36957SOL     OW17475   8.887   4.357  11.151  0.5659 -0.9070  0.4202
36957SOL    HW117476   8.793   4.355  11.134  0.3754  0.1386  1.2301
36957SOL    HW217477   8.897   4.421  11.222  1.9672 -0.4032 -0.1943
36958SOL     OW17478  12.744   3.928  10.281 -0.1881 -0.6107 -0.7387
36958SOL    HW117479  12.717   3.915  10.190  0.3401  1.1564 -1.1898
36958SOL    HW217480  12.822   3.875  10.291 -0.6751 -1.4094 -1.0818
36959SOL     OW17481   4.919   3.122   6.717  0.2195  0.0797  0.2289
36959SOL    HW117482   4.840   3.167   6.748  0.2854  0.8576 -0.6902
36959SOL    HW217483   4.913   3.034   6.755  0.5639  1.0972  2.8698
36960SOL     OW17484  11.934   5.029   0.535 -0.2469 -0.1995  0.4058
36960SOL    HW117485  11.920   4.955   0.476  2.2080 -0.7252  0.3706
36960SOL    HW217486  11.896   5.104   0.490  0.1754 -0.8633 -1.1251
36961SOL     OW17487  11.289   8.500   4.159 -0.6464  0.4563  0.3150
36961SOL    HW117488  11.262   8.411   4.135 -1.5226  0.8594 -0.2593
36961SOL    HW217489  11.382   8.492   4.180 -0.4915 -0.4339 -0.6051
36962SOL     OW17490   9.439   9.017   6.168 -0.1938  0.0724  0.4655
36962SOL    HW117491   9.463   8.959   6.241 -0.6202 -1.2546 -0.4313
36962SOL    HW217492   9.344   9.026   6.175 -0.2244  0.0075  0.1075
36963SOL     OW17493  12.751   5.526   5.711 -0.1224  0.1409 -0.2001
36963SOL    HW117494  12.664   5.486   5.715  1.0508 -2.7542 -1.2840
36963SOL    HW217495  12.785   5.517   5.800  0.1231 -1.3572 -0.4279
36964SOL     OW17496   2.698   5.269   4.796  0.4531  0.1895 -0.4242
36964SOL    HW117497   2.706   5.343   4.855 -0.6136  1.2680 -1.5564
36964SOL    HW217498   2.713   5.306   4.709  0.3937 -1.0320 -0.9829
36965SOL     OW17499   6.759   9.637   4.316  0.7868 -0.2902 -0.0696
36965SOL    HW117500   6.731   9.641   4.225 -0.8869 -0.2135  0.4161
36965SOL    HW217501   6.790   9.547   4.328  0.9840 -0.3067 -0.6865
36966SOL     OW17502   5.953   3.875   4.428 -0.8330  0.3382 -0.0580
36966SOL    HW117503   6.027   3.928   4.456  1.6992 -2.6194 -0.5363
36966SOL    HW217504   5.918   3.839   4.510 -0.3909  0.1350  0.0459
36967SOL     OW17505   2.458   9.720   3.804 -0.3242 -0.1341  0.2430
36967SOL    HW117506   2.424   9.745   3.718  0.9874 -0.8438 -0.5161
36967SOL    HW217507   2.399   9.651   3.834  0.4714 -1.4671 -1.1224
36968SOL     OW17508   9.011   9.261   8.346 -0.0279 -0.5489 -0.3726
36968SOL    HW117509   8.945   9.331   8.350  1.4733  0.9308 -0.5106
36968SOL    HW217510   8.966   9.188   8.302 -2.3224 -0.5120  1.7215
36969SOL     OW17511  10.100  11.515   3.413 -0.5807  0.1656  0.1818
36969SOL    HW117512  10.180  11.467   3.390 -0.5840  0.1777  0.1453
36969SOL    HW217513  10.030  11.465   3.371 -0.6314 -0.0689  0.5417
36970SOL     OW17514  12.512  10.175   3.359 -0.1469  0.7335 -0.3246
36970SOL    HW117515  12.532  10.083   3.376  0.0507  0.7571 -0.4391
36970SOL    HW217516  12.427  10.172   3.314 -0.0905  0.6019 -0.4258
36971SOL     OW17517   3.359   4.639   3.348  0.2906 -0.2186  0.0271
36971SOL    HW117518   3.422   4.591   3.401 -0.8752 -0.6067  1.0993
36971SOL    HW217519   3.356   4.590   3.265  0.4782 -0.9187  0.4219
36972SOL     OW17520   6.471   2.390   9.132 -0.1662  0.5678 -0.0402
36972SOL    HW117521   6.499   2.358   9.218  0.3791  1.9347  0.3124
36972SOL    HW217522   6.447   2.482   9.147  0.3577  0.9504 -1.4299
36973SOL     OW17523  11.921  10.067   6.234 -0.1963  0.4540  0.1227
36973SOL    HW117524  11.953  10.020   6.158 -0.1239 -2.1628  1.6487
36973SOL    HW217525  11.889  10.151   6.200  1.4222  0.1123 -2.4767
36974SOL     OW17526   8.059   1.361   2.029 -0.0998 -0.0303 -0.2503
36974SOL    HW117527   7.971   1.379   2.062 -0.0261 -1.4571  0.7910
36974SOL    HW217528   8.064   1.412   1.948 -1.3938  1.1290  0.3428
36975SOL     OW17529   2.364  12.474   3.519 -0.1373 -0.2941 -0.5537
36975SOL    HW117530   2.434  12.464   3.584  0.2862  2.0027 -0.5987
36975SOL    HW217531   2.324  12.387   3.514  0.1905 -0.7094  2.3319
36976SOL     OW17532   0.366   6.240   9.893 -0.2357 -0.2100  0.9231
36976SOL    HW117533   0.458   6.258   9.876 -0.5774  0.6751 -0.0899
36976SOL    HW217534   0.362   6.226   9.988  0.7280  1.0434  1.1762
36977SOL     OW17535   6.902   9.493  12.109  0.1751 -0.5696  0.3211
36977SOL    HW117536   6.973   9.436  12.137  0.9757 -0.4662 -1.3769
36977SOL    HW217537   6.826   9.464  12.158  1.3119 -0.8814  1.9670
36978SOL     OW17538   2.746   5.975   3.181  0.8636  0.1226  0.6111
36978SOL    HW117539   2.684   5.994   3.251 -1.7576  2.2482 -1.9957
36978SOL    HW217540   2.801   6.053   3.175  2.9498 -1.1648  1.9584
36979SOL     OW17541  10.543  11.652   0.869  0.3717 -0.0960 -0.5257
36979SOL    HW117542  10.541  11.685   0.779 -1.1639  0.5717 -0.2907
36979SOL    HW217543  10.458  11.678   0.905  0.8483 -0.5996  1.0303
36980SOL     OW17544   7.066   1.655   3.761  0.0131  0.0928  0.2828
36980SOL    HW117545   7.056   1.565   3.728 -2.0067 -0.2132  1.5552
36980SOL    HW217546   7.028   1.709   3.692 -1.0481 -0.2622  0.5697
36981SOL     OW17547   3.371   2.393   3.354 -0.3306  0.2501  0.1234
36981SOL    HW117548   3.349   2.307   3.391 -1.3449  0.6343  0.4520
36981SOL    HW217549   3.347   2.455   3.423 -0.7146  0.8691 -0.5574
36982SOL     OW17550   5.862   0.789   8.263 -0.1417  0.4223 -0.3093
36982SOL    HW117551   5.886   0.881   8.272  0.3617  0.3775 -1.0502
36982SOL    HW217552   5.871   0.771   8.169 -2.5366  0.2373 -0.5544
36983SOL     OW17553   5.699   2.042   4.508  0.5740 -0.2552  0.2798
36983SOL    HW117554   5.728   1.962   4.552  2.2938  0.3934  0.4062
36983SOL    HW217555   5.750   2.045   4.428 -0.9300 -0.2777 -0.7182
36984SOL     OW17556   1.451   9.352   7.263  0.1344  0.0200 -0.6982
36984SOL    HW117557   1.441   9.433   7.213  2.3619  2.3876  2.2905
36984SOL    HW217558   1.408   9.371   7.347 -0.4782 -2.4905 -0.3565
36985SOL     OW17559   9.845   4.557  12.754 -0.3544  0.0904 -0.0241
36985SOL    HW117560   9.799   4.499  12.814 -1.9980  1.0560 -0.2924
36985SOL    HW217561   9.832   4.645  12.790 -0.7794  0.6194 -1.4068
36986SOL     OW17562   3.763   8.821  12.034  0.1517 -0.1947  0.4147
36986SOL    HW117563   3.834   8.872  11.994 -0.1990  0.3174  0.4265
36986SOL    HW217564   3.685   8.846  11.983  0.0195 -0.9377  0.2441
36987SOL     OW17565   3.128  11.102   9.572  0.1627 -0.8052 -0.1348
36987SOL    HW117566   3.190  11.040   9.535  0.7647  0.6122 -1.6406
36987SOL    HW217567   3.181  11.180   9.591 -0.9717  0.0800 -0.5240
36988SOL     OW17568   5.154   0.258   7.138  0.0122 -0.1705 -0.4058
36988SOL    HW117569   5.076   0.305   7.168  0.8321  1.2749 -0.4363
36988SOL    HW217570   5.121   0.196   7.073 -1.3133 -0.8028  0.8245
36989SOL     OW17571   9.129  11.448  11.801  0.9862 -0.1724 -0.1128
36989SOL    HW117572   9.090  11.533  11.783 -0.3662 -0.9873 -1.2292
36989SOL    HW217573   9.117  11.398  11.721  2.6271 -1.1267  0.1827
36990SOL     OW17574  11.073   3.145   0.364 -0.1282 -0.3466  0.3626
36990SOL    HW117575  11.020   3.076   0.324 -2.0298 -0.1448  2.3767
36990SOL    HW217576  11.020   3.224   0.357  1.7273  0.8515 -1.2655
36991SOL     OW17577   0.056   8.734   8.064 -0.4077 -0.0674  0.0861
36991SOL    HW117578  -0.001   8.797   8.109  1.0533  0.0360  1.9514
36991SOL    HW217579  -0.004   8.679   8.013 -2.0208  0.8605  0.8947
36992SOL     OW17580   2.691   8.389  12.218  0.6824 -0.1267  0.5999
36992SOL    HW117581   2.672   8.336  12.140  1.1419  0.2343  0.2397
36992SOL    HW217582   2.711   8.325  12.286 -0.5786 -0.4800  0.6681
36993SOL     OW17583   1.650  12.575  11.036  0.3813  0.3189 -0.7512
36993SOL    HW117584   1.566  12.615  11.061 -0.5731 -1.9756 -0.0323
36993SOL    HW217585   1.685  12.542  11.119  0.2624 -1.8167 -1.5021
36994SOL     OW17586  11.486   1.216   4.900 -0.0276  0.3248  0.0787
36994SOL    HW117587  11.494   1.227   4.805  0.4869 -0.4603  0.0192
36994SOL    HW217588  11.393   1.197   4.914  0.3512 -2.6423 -0.6578
36995SOL     OW17589   6.797   4.149  11.792  0.3247  0.5949 -0.0634
36995SOL    HW117590   6.709   4.162  11.757  0.5563  1.1319 -0.4636
36995SOL    HW217591   6.819   4.059  11.769  0.1366  0.6688 -0.5473
36996SOL     OW17592  10.323   9.790  12.510 -0.7216  0.4178 -0.5178
36996SOL    HW117593  10.366   9.823  12.589 -0.6650 -0.8034 -0.0231
36996SOL    HW217594  10.384   9.812  12.439 -0.1889  0.4384 -0.0644
36997SOL     OW17595   8.308  10.281   1.325 -0.4662 -0.2240  0.3515
36997SOL    HW117596   8.239  10.215   1.316 -0.3493 -0.2971 -0.0101
36997SOL    HW217597   8.263  10.357   1.362 -0.9413  0.0385 -0.7116
36998SOL     OW17598  11.054  12.019  12.608  0.2262 -0.0652  0.4912
36998SOL    HW117599  10.962  12.024  12.581  0.3399 -0.4984  0.0046
36998SOL    HW217600  11.063  11.932  12.646  0.2976  0.1964  1.0912
36999SOL     OW17601  11.653  11.857   2.065 -0.0543  0.4759  0.2534
36999SOL    HW117602  11.641  11.798   1.991  0.0853 -0.3407  0.8667
36999SOL    HW217603  11.742  11.838   2.096 -0.1397  0.7594  0.6789
37000SOL     OW17604  10.336   1.514  12.625  0.5392  0.2362 -0.7388
37000SOL    HW117605  10.310   1.586  12.567 -0.5388  1.2015  0.8650
37000SOL    HW217606  10.260   1.500  12.681  1.3202 -1.0832  0.0325
37001SOL     OW17607   9.413   6.770  12.689  0.1980  0.3170 -0.1540
37001SOL    HW117608   9.392   6.819  12.768  2.1127 -1.1709  1.3793
37001SOL    HW217609   9.388   6.680  12.708  1.2415 -0.1766 -0.9817
37002SOL     OW17610   9.837  10.975   9.688 -0.4294  0.4779 -0.2071
37002SOL    HW117611   9.807  11.009   9.771  0.5611  0.3881  0.2010
37002SOL    HW217612   9.913  11.029   9.665 -0.7039  0.5206 -1.0645
37003SOL     OW17613  11.935   1.796   2.664  0.3550 -0.2261 -0.0087
37003SOL    HW117614  11.865   1.731   2.666 -0.6386  0.8387  1.1352
37003SOL    HW217615  11.992   1.772   2.736 -0.5448  0.6995  1.0461
37004SOL     OW17616  11.306  11.892  10.416 -0.1009  0.2674  0.2379
37004SOL    HW117617  11.262  11.828  10.361 -0.1140 -0.4504  1.0545
37004SOL    HW217618  11.256  11.891  10.498 -1.0546  2.4787 -0.2545
37005SOL     OW17619   9.329   7.192   9.752 -0.4017 -0.5491 -0.2313
37005SOL    HW117620   9.302   7.275   9.714 -0.9486 -1.2126 -1.3328
37005SOL    HW217621   9.340   7.134   9.677 -2.5174 -2.2070  0.6540
37006SOL     OW17622   1.951   0.566   9.597 -0.2617 -0.8254  0.9367
37006SOL    HW117623   1.908   0.486   9.627 -1.8562 -0.2121  0.4342
37006SOL    HW217624   1.938   0.567   9.502  0.2721 -0.2715  0.8612
37007SOL     OW17625  10.021   2.948  12.074  0.0710  0.7085  0.1134
37007SOL    HW117626   9.978   2.943  11.988  0.7582 -0.9863 -0.1760
37007SOL    HW217627   9.960   2.996  12.129 -1.0308  0.5826 -0.9610
37008SOL     OW17628   4.233   9.565   2.073 -0.4456  0.1593  0.5684
37008SOL    HW117629   4.147   9.560   2.030  0.1690  0.3149 -0.7167
37008SOL    HW217630   4.288   9.505   2.024  0.7785  1.7359 -0.0791
37009SOL     OW17631   7.151   0.157   2.036 -0.4060 -0.2460  0.2595
37009SOL    HW117632   7.162   0.072   2.078  0.6120 -0.8226 -1.1108
37009SOL    HW217633   7.090   0.141   1.965 -2.2515  0.7599  1.5304
37010SOL     OW17634   6.788   2.529  10.126 -0.0287 -0.1996 -0.4211
37010SOL    HW117635   6.866   2.482  10.098  0.6611  0.6236  0.0701
37010SOL    HW217636   6.723   2.461  10.141 -0.0676 -0.7718 -2.8100
37011SOL     OW17637   2.336   0.555   8.022 -0.1016  0.3807  0.1053
37011SOL    HW117638   2.376   0.471   8.044 -1.1479 -0.2305 -0.2652
37011SOL    HW217639   2.399   0.596   7.962 -0.0261 -0.5852 -0.5070
37012SOL     OW17640   8.984   9.873   9.867 -0.0433  0.5657  0.9911
37012SOL    HW117641   8.904   9.832   9.834 -0.7535  0.4528  2.7230
37012SOL    HW217642   9.017   9.926   9.794 -0.3376 -1.2815 -0.5658
37013SOL     OW17643   6.830   9.244   1.978 -0.3326 -0.1251 -0.3432
37013SOL    HW117644   6.743   9.217   2.010 -0.3249  0.8368  0.5334
37013SOL    HW217645   6.866   9.297   2.049  0.2846  0.8875 -1.3926
37014SOL     OW17646  11.930   0.794   2.492 -0.0441  0.1078 -0.1228
37014SOL    HW117647  11.928   0.806   2.587  0.8399 -0.6750  0.0136
37014SOL    HW217648  11.853   0.841   2.460 -0.9708 -0.5255  1.0818
37015SOL     OW17649   6.007   6.581   5.953  0.0003 -0.1377 -0.0871
37015SOL    HW117650   5.944   6.590   6.025  0.5964  0.9507  0.3280
37015SOL    HW217651   6.081   6.533   5.991 -0.4679 -1.2245 -0.5136
37016SOL     OW17652   5.794   7.849   4.367  0.2917 -0.2032  0.4010
37016SOL    HW117653   5.780   7.842   4.272  0.0504  1.3706  0.2818
37016SOL    HW217654   5.887   7.830   4.379  1.0472  2.4534 -0.5801
37017SOL     OW17655   1.387  12.086   0.533 -0.2421 -0.3741 -0.1357
37017SOL    HW117656   1.482  12.086   0.545  0.2189  2.5612 -2.6198
37017SOL    HW217657   1.372  12.019   0.466  0.7549  1.8827 -2.8042
37018SOL     OW17658   9.790   6.392  11.992  0.5835 -0.0871 -0.2553
37018SOL    HW117659   9.699   6.421  12.003  0.4255  0.7949 -3.1651
37018SOL    HW217660   9.843   6.469  12.012  0.3940  0.8228 -2.8304
37019SOL     OW17661   9.941   7.268   7.426  0.1360  0.0838 -0.2153
37019SOL    HW117662   9.881   7.235   7.359 -1.0654 -0.3332  1.0133
37019SOL    HW217663  10.001   7.196   7.443  1.0555  0.5250 -1.5016
37020SOL     OW17664   5.174   0.130  12.539  0.2057 -0.3561  0.4694
37020SOL    HW117665   5.186   0.189  12.613  0.6038  1.0238 -0.6376
37020SOL    HW217666   5.252   0.145  12.484 -0.2879 -1.0162 -0.4359
37021SOL     OW17667   1.776  11.845  11.044  0.1801  0.3650  0.3943
37021SOL    HW117668   1.808  11.808  11.126  0.8359 -0.0128 -0.0197
37021SOL    HW217669   1.683  11.822  11.042  0.3600 -0.4208  0.6060
37022SOL     OW17670   7.921   6.967  10.993  0.1775 -0.0088 -0.4665
37022SOL    HW117671   7.838   6.922  11.007  0.3921 -0.5563 -0.9392
37022SOL    HW217672   7.923   7.035  11.061 -0.0185 -0.8870  0.4440
37023SOL     OW17673   7.751  10.078   6.579  0.4753  0.3186 -0.3496
37023SOL    HW117674   7.753   9.999   6.525  2.7485  1.3298 -1.8787
37023SOL    HW217675   7.783  10.049   6.664  2.1296 -0.3083 -1.1289
37024SOL     OW17676   0.029   6.469   6.326 -0.2348  0.2166  0.3843
37024SOL    HW117677   0.043   6.443   6.417 -0.3490 -1.3219 -0.0145
37024SOL    HW217678  -0.058   6.437   6.304  0.2805 -0.5532 -0.6301
37025SOL     OW17679   1.655   8.918   4.048 -0.0259  0.3345 -0.1522
37025SOL    HW117680   1.621   8.838   4.087  1.1340 -0.0229  0.1564
37025SOL    HW217681   1.662   8.980   4.121 -0.7757  0.6809 -0.3632
37026SOL     OW17682   6.973  11.847   4.526 -0.2508 -0.6531 -0.0911
37026SOL    HW117683   6.991  11.914   4.460 -1.2354  0.3380  0.5970
37026SOL    HW217684   6.986  11.764   4.481  1.2153 -0.0113 -0.9124
37027SOL     OW17685   7.846  10.614   5.710  0.3708  0.2217 -0.2405
37027SOL    HW117686   7.881  10.698   5.678  2.0966  0.1872  1.4034
37027SOL    HW217687   7.869  10.612   5.802 -1.2629 -1.2860  0.1853
37028SOL     OW17688  10.763  10.339  10.286 -0.6605 -0.3379 -0.1557
37028SOL    HW117689  10.824  10.409  10.262 -0.1689 -0.7388 -0.0793
37028SOL    HW217690  10.704  10.380  10.350  0.8269 -0.5141  1.4029
37029SOL     OW17691   9.653   9.779   7.063  0.0079  0.2319 -0.3243
37029SOL    HW117692   9.592   9.850   7.043 -0.7879 -0.5728 -0.8393
37029SOL    HW217693   9.696   9.761   6.979 -0.9349 -0.9306 -0.5853
37030SOL     OW17694   4.148   2.140  12.179  0.4369  0.3865  0.5058
37030SOL    HW117695   4.170   2.085  12.104 -1.6267 -2.0358  1.4917
37030SOL    HW217696   4.206   2.215  12.172  1.9994 -0.9089 -2.1349
37031SOL     OW17697   3.931   7.480   1.550 -0.4974 -0.2263  0.6401
37031SOL    HW117698   3.940   7.387   1.528  1.3184  0.3802 -1.5771
37031SOL    HW217699   4.019   7.506   1.576 -0.8195  1.0655  0.4741
37032SOL     OW17700   4.795   8.133  12.485 -0.4425  0.2972 -0.5920
37032SOL    HW117701   4.839   8.194  12.544 -0.2369  0.5761 -1.0266
37032SOL    HW217702   4.850   8.055  12.486 -2.1035 -0.9789  2.0796
37033SOL     OW17703   0.169   2.872  10.942 -0.6781 -0.7173  0.0474
37033SOL    HW117704   0.167   2.777  10.928  0.1736 -0.7286 -0.0781
37033SOL    HW217705   0.086   2.904  10.908 -2.0766 -1.7055  2.2784
37034SOL     OW17706   1.416   1.843  10.996  0.2813 -0.0170 -0.3363
37034SOL    HW117707   1.414   1.871  11.088  0.7959 -3.3036  0.8024
37034SOL    HW217708   1.477   1.769  10.995  0.8584  0.3741 -3.5178
37035SOL     OW17709   6.917   8.462   3.104  0.4009 -0.1030  0.1316
37035SOL    HW117710   6.825   8.445   3.082 -0.8044  0.3727  4.0409
37035SOL    HW217711   6.958   8.376   3.104 -0.2562 -0.4295 -0.7275
37036SOL     OW17712   8.732   5.541  10.356  0.4800  0.5213 -0.0958
37036SOL    HW117713   8.745   5.459  10.309 -0.7924  0.4246 -0.2997
37036SOL    HW217714   8.818   5.560  10.394  0.7415 -1.0188  0.1511
37037SOL     OW17715   5.946   5.557   8.763  0.6357 -0.1942  0.3261
37037SOL    HW117716   5.919   5.478   8.809  1.1527  0.8680  2.5941
37037SOL    HW217717   6.028   5.533   8.719 -0.7964 -1.7386 -1.6563
37038SOL     OW17718   6.105   4.867   0.858 -0.2523 -0.3602  0.1195
37038SOL    HW117719   6.020   4.866   0.813 -0.5083 -0.6736  0.6039
37038SOL    HW217720   6.084   4.850   0.949  0.4538 -1.6453  0.0596
37039SOL     OW17721   5.512   6.736   3.601 -0.2009  0.2016 -0.0342
37039SOL    HW117722   5.596   6.696   3.576 -0.0107  0.7156 -0.2397
37039SOL    HW217723   5.520   6.750   3.695 -0.6734 -1.1714  0.2360
37040SOL     OW17724   3.105   9.661   8.741 -0.2422  0.0716  0.4925
37040SOL    HW117725   3.046   9.592   8.774 -2.2846  2.1988  1.6040
37040SOL    HW217726   3.087   9.665   8.647 -1.6789  0.4295  0.7544
37041SOL     OW17727   7.237   8.572   1.119 -0.5980 -0.2755 -0.0950
37041SOL    HW117728   7.178   8.501   1.146  0.1644 -0.8531  0.0822
37041SOL    HW217729   7.220   8.583   1.026 -0.2462 -1.1645 -0.2740
37042SOL     OW17730  12.110   7.471   8.563 -0.0986 -0.7101  0.1470
37042SOL    HW117731  12.152   7.492   8.647 -0.2230 -0.5475  0.1694
37042SOL    HW217732  12.176   7.420   8.516 -0.4973 -1.9237  0.8583
37043SOL     OW17733   5.390   3.130   3.845 -0.0558  0.2177 -0.1298
37043SOL    HW117734   5.317   3.143   3.905 -0.4062 -1.1065 -0.2342
37043SOL    HW217735   5.467   3.161   3.893 -0.0892 -2.1728  1.6563
37044SOL     OW17736  10.455   2.858  12.581 -0.2804 -0.8239 -0.2851
37044SOL    HW117737  10.379   2.819  12.624  0.6637 -3.5720 -0.9341
37044SOL    HW217738  10.453   2.822  12.492  1.7922 -1.0160 -0.2994
37045SOL     OW17739   0.202  12.560   4.128  0.1360 -0.0466  0.6579
37045SOL    HW117740   0.120  12.543   4.175  0.6035 -0.9052  1.1845
37045SOL    HW217741   0.235  12.641   4.167 -0.0249 -0.1714  1.0651
37046SOL     OW17742  11.385   1.735   9.394  0.2518  0.1225 -0.1738
37046SOL    HW117743  11.430   1.807   9.350  1.0873 -0.0754  0.3437
37046SOL    HW217744  11.301   1.727   9.347  0.6038  0.7167 -0.9225
37047SOL     OW17745  10.483   0.146  11.450 -0.3407  0.4960  0.1507
37047SOL    HW117746  10.451   0.193  11.373 -0.7047  0.8576  0.5131
37047SOL    HW217747  10.476   0.210  11.521 -0.1348  0.1252  0.5084
37048SOL     OW17748  11.504   1.385   3.529 -0.4680  0.4307  0.4197
37048SOL    HW117749  11.553   1.305   3.545  0.6721  1.4688  2.5974
37048SOL    HW217750  11.420   1.371   3.573 -0.5446  0.1657  0.1904
37049SOL     OW17751   8.914   0.984   0.327 -0.0230  0.1352  0.2015
37049SOL    HW117752   8.857   0.954   0.399  0.1232 -0.7087 -0.0274
37049SOL    HW217753   8.906   1.080   0.330 -1.5009  0.0507  0.1530
37050SOL     OW17754   1.896  10.190   7.201 -0.7154  0.1720 -0.6911
37050SOL    HW117755   1.922  10.139   7.123  1.2396  0.8321 -0.5273
37050SOL    HW217756   1.885  10.279   7.168 -1.3406  0.1810 -0.4636
37051SOL     OW17757   6.720   6.702   1.647  0.0532  0.4682 -0.6433
37051SOL    HW117758   6.695   6.629   1.591  0.9466  0.4555 -1.0336
37051SOL    HW217759   6.787   6.749   1.598 -0.0519  1.1822 -0.1245
37052SOL     OW17760   2.307   1.382   4.952  0.3180  0.0284 -1.0337
37052SOL    HW117761   2.353   1.406   5.033  0.5835 -0.8376 -0.9123
37052SOL    HW217762   2.357   1.425   4.883 -1.7777  3.5476 -0.5905
37053SOL     OW17763   5.820   7.514  11.354 -0.2971 -0.0450  0.2622
37053SOL    HW117764   5.827   7.431  11.401 -0.3399 -0.6431 -0.7472
37053SOL    HW217765   5.824   7.581  11.422  0.1139 -0.8608  1.0616
37054SOL     OW17766   0.736   0.440  11.110 -0.2360  0.0640  0.1597
37054SOL    HW117767   0.822   0.479  11.125 -0.9280  1.1407  1.5618
37054SOL    HW217768   0.688   0.454  11.192 -1.2651 -1.8557 -0.0354
37055SOL     OW17769   2.296   2.137   9.461 -0.0670  0.1289 -0.6616
37055SOL    HW117770   2.275   2.078   9.389 -2.1880 -1.1129  0.8787
37055SOL    HW217771   2.311   2.079   9.536  4.2782  1.1983 -0.3962
37056SOL     OW17772   0.060  12.001   5.303 -0.8518  0.4527 -0.0284
37056SOL    HW117773  -0.023  11.968   5.337 -0.9347  0.0760 -0.5728
37056SOL    HW217774   0.034  12.068   5.239 -0.9213 -1.8054 -2.5557
37057SOL     OW17775   4.541   2.798  10.134 -0.0856 -0.0691 -0.1006
37057SOL    HW117776   4.598   2.744  10.079  0.4119 -1.0535  1.3452
37057SOL    HW217777   4.576   2.887  10.124 -0.1416 -0.1827 -1.5238
37058SOL     OW17778  12.067   9.902   7.408  0.9663 -0.0367  0.1626
37058SOL    HW117779  11.974   9.899   7.432  1.0429 -0.6619  0.3777
37058SOL    HW217780  12.070   9.863   7.320  1.2545 -1.6204  0.8566
37059SOL     OW17781   6.393   3.852  12.106 -0.1879  0.7053 -0.0211
37059SOL    HW117782   6.431   3.856  12.018 -1.3969  0.1675 -0.5871
37059SOL    HW217783   6.317   3.910  12.102 -1.1606 -0.5173  0.1879
37060SOL     OW17784   7.090   1.139  11.465  0.3942  0.3714  1.3807
37060SOL    HW117785   7.039   1.202  11.516 -1.4193 -0.4876  0.7122
37060SOL    HW217786   7.045   1.055  11.479  1.1574 -0.2827  0.1000
37061SOL     OW17787  10.858   3.628   0.165 -0.5804  0.6115 -0.4088
37061SOL    HW117788  10.822   3.666   0.245  0.9930  2.0168 -0.2926
37061SOL    HW217789  10.807   3.668   0.094 -2.0246 -0.6944 -0.1437
37062SOL     OW17790   8.752   7.927   5.177 -0.4356 -0.1189 -0.4522
37062SOL    HW117791   8.719   7.886   5.097 -0.0959 -1.6203  0.1268
37062SOL    HW217792   8.838   7.960   5.154 -0.0316 -1.1919 -0.5466
37063SOL     OW17793   9.886   0.355   2.212  0.2314  0.1894  0.3587
37063SOL    HW117794   9.908   0.328   2.301  2.1636 -0.7718 -0.3445
37063SOL    HW217795   9.815   0.418   2.222 -2.3457 -2.7327  2.3521
37064SOL     OW17796   0.260  10.520   6.925 -0.1157 -0.2371 -0.0961
37064SOL    HW117797   0.191  10.454   6.915 -0.0673 -0.2265 -0.5497
37064SOL    HW217798   0.283  10.517   7.018 -1.3210  0.3670  0.2430
37065SOL     OW17799   2.941   6.413  11.776 -0.3044 -0.2200 -0.6659
37065SOL    HW117800   2.923   6.319  11.779  0.9385 -0.4500  1.4529
37065SOL    HW217801   3.027   6.419  11.733  0.6454 -0.2847  1.1441
37066SOL     OW17802   0.512   4.247   7.905  0.1592 -0.4926  0.5551
37066SOL    HW117803   0.436   4.255   7.848  0.0334 -1.8816  0.4862
37066SOL    HW217804   0.485   4.186   7.974 -0.0968  2.0444  2.8465
37067SOL     OW17805   7.049   0.182   7.997 -0.3750  0.2063  0.8117
37067SOL    HW117806   6.984   0.113   8.013  1.1326 -1.4519  0.1232
37067SOL    HW217807   7.132   0.141   8.020  0.5388  1.9240  0.6480
37068SOL     OW17808  10.818   3.746   4.174  0.4231 -0.1038  0.6792
37068SOL    HW117809  10.910   3.733   4.196  0.8211  1.2227 -0.1065
37068SOL    HW217810  10.775   3.761   4.259  1.2499  1.0114  0.9257
37069SOL     OW17811   7.157   6.089   2.135 -0.7360  0.1051 -0.2188
37069SOL    HW117812   7.180   6.079   2.043  0.6417  2.2703 -0.1746
37069SOL    HW217813   7.241   6.100   2.180 -1.4824  2.9445  0.7132
37070SOL     OW17814   3.163   6.015   8.037  0.2483  0.1032 -0.0469
37070SOL    HW117815   3.142   5.970   8.119 -0.6587  0.4735 -0.0521
37070SOL    HW217816   3.229   6.080   8.061  0.2743 -0.0542  0.3101
37071SOL     OW17817   1.323   4.040   3.666  0.4160 -0.0631  0.1110
37071SOL    HW117818   1.310   3.974   3.734  1.8625 -0.2233  0.2632
37071SOL    HW217819   1.240   4.043   3.619 -0.7096  0.2005  2.0097
37072SOL     OW17820   6.943  12.037  10.922  0.5422  0.0892 -0.6354
37072SOL    HW117821   6.975  12.122  10.952 -1.5781  1.0812 -1.0134
37072SOL    HW217822   6.930  11.986  11.002 -1.0334  1.2126 -0.1415
37073SOL     OW17823   0.623   6.233   5.412 -0.3420  0.2849 -0.4183
37073SOL    HW117824   0.664   6.157   5.371  0.1116  0.0725  0.3962
37073SOL    HW217825   0.695   6.295   5.423 -0.8085  1.0419 -1.5272
37074SOL     OW17826   1.917   7.923   6.890 -0.5053  0.1499  0.1651
37074SOL    HW117827   1.934   7.854   6.827 -0.9667 -0.6980  0.9515
37074SOL    HW217828   1.885   7.997   6.837  0.5623 -0.0077 -0.7440
37075SOL     OW17829   3.623   9.343  10.023  0.0231 -0.3000  0.0761
37075SOL    HW117830   3.595   9.406  10.090  0.4257  0.6804 -0.6404
37075SOL    HW217831   3.698   9.299  10.061  2.2190  2.3870 -0.7756
37076SOL     OW17832   1.735  12.580  11.302 -0.1204  0.5634  0.1649
37076SOL    HW117833   1.797  12.567  11.374  0.4569 -0.5714 -0.5133
37076SOL    HW217834   1.651  12.548  11.336 -0.2147  1.5337  0.8758
37077SOL     OW17835   1.164  10.364   8.739  0.0609 -0.0421  0.0591
37077SOL    HW117836   1.175  10.434   8.804  1.3799 -1.1554  1.1223
37077SOL    HW217837   1.134  10.289   8.790  0.9959 -0.9127 -0.6232
37078SOL     OW17838  10.456   7.099   9.460 -0.0501  0.5109 -0.4259
37078SOL    HW117839  10.500   7.076   9.542 -0.6981  0.8223  0.0194
37078SOL    HW217840  10.517   7.157   9.415  0.5770 -0.1592 -0.4548
37079SOL     OW17841  10.040   0.741  12.085  0.0244  0.0132 -0.5486
37079SOL    HW117842  10.124   0.722  12.044  0.4027  1.3880 -0.4729
37079SOL    HW217843  10.038   0.686  12.164 -0.1635 -1.7050 -1.7076
37080SOL     OW17844   0.922  12.022  11.470  0.0716  0.3611  0.6252
37080SOL    HW117845   0.958  11.974  11.545 -0.7985 -1.5612 -0.1117
37080SOL    HW217846   0.839  11.979  11.453  0.1595  0.8940 -1.3218
37081SOL     OW17847   5.713  12.504  12.395 -0.8099 -0.3007 -0.4618
37081SOL    HW117848   5.735  12.412  12.386 -1.7168 -0.8205  1.9394
37081SOL    HW217849   5.719  12.522  12.488  0.7281  2.4874 -0.9779
37082SOL     OW17850   0.173   6.605   7.146 -0.4238 -0.7052  0.0280
37082SOL    HW117851   0.218   6.664   7.206  0.4349 -1.2751 -0.0421
37082SOL    HW217852   0.155   6.527   7.198 -3.8388  0.4815  0.8914
37083SOL     OW17853   5.734   7.742   1.900 -0.6411  0.6776 -0.1557
37083SOL    HW117854   5.746   7.802   1.975 -0.1253  0.3834  0.0018
37083SOL    HW217855   5.810   7.759   1.844  1.1406 -1.8535  1.2933
37084SOL     OW17856  10.842   8.124   4.924 -0.1722 -0.2205  0.4130
37084SOL    HW117857  10.833   8.106   5.018 -0.3358  0.5210  0.5476
37084SOL    HW217858  10.850   8.220   4.919 -2.3503 -0.0230 -0.4841
37085SOL     OW17859   0.731  11.659   1.984 -0.4896  0.1480 -0.1470
37085SOL    HW117860   0.705  11.603   1.911 -0.1094 -0.4530  0.1677
37085SOL    HW217861   0.722  11.603   2.061 -1.4201  0.9431  0.3375
37086SOL     OW17862   2.254   5.798   0.331  0.6946  0.0683  0.2870
37086SOL    HW117863   2.195   5.873   0.334 -0.9578 -1.1352 -0.0531
37086SOL    HW217864   2.196   5.723   0.314  2.1219 -1.4305  1.6145
37087SOL     OW17865  11.715   0.324   9.718 -0.2851 -0.3058 -0.8734
37087SOL    HW117866  11.693   0.388   9.785 -0.9453  0.7689 -2.0707
37087SOL    HW217867  11.687   0.240   9.754  0.6034  0.0349  0.7302
37088SOL     OW17868   3.634   0.032  12.398 -0.1462  0.5653  0.0645
37088SOL    HW117869   3.585  -0.018  12.463 -0.1704  1.1196  0.4868
37088SOL    HW217870   3.597   0.005  12.314 -0.1574 -0.1176  0.2823
37089SOL     OW17871   4.437   3.152   9.664  0.2502  0.6472 -0.0870
37089SOL    HW117872   4.496   3.149   9.588  0.6152  1.5113  0.1468
37089SOL    HW217873   4.485   3.204   9.729  0.1887 -0.5726  0.9646
37090SOL     OW17874  11.943   9.062   7.411  0.5872  0.2510 -0.1349
37090SOL    HW117875  11.885   9.003   7.460 -0.9352  0.1678 -1.9143
37090SOL    HW217876  11.914   9.150   7.435  0.5664  0.2305 -0.0851
37091SOL     OW17877   6.943   3.231   2.795 -0.2094  0.2184  0.0103
37091SOL    HW117878   7.016   3.290   2.781  0.4111 -0.4206  0.5028
37091SOL    HW217879   6.977   3.145   2.769 -1.8192  0.3789 -3.0843
37092SOL     OW17880   9.431   0.790  10.536  0.5665  0.5295  0.4754
37092SOL    HW117881   9.481   0.714  10.566 -0.6993  0.3738  2.3749
37092SOL    HW217882   9.379   0.816  10.612 -1.3909  1.3641 -1.0595
37093SOL     OW17883  11.726   8.287  10.139 -0.0102 -0.1222 -0.2833
37093SOL    HW117884  11.771   8.368  10.115 -0.3298  0.0069 -0.4579
37093SOL    HW217885  11.768   8.220  10.085 -0.5760  0.1333 -1.0560
37094SOL     OW17886  12.377   3.878   1.823  0.2668 -0.1226  0.3632
37094SOL    HW117887  12.457   3.877   1.875 -0.1937  1.6501  1.1952
37094SOL    HW217888  12.310   3.843   1.881  0.1302 -0.0336  0.2612
37095SOL     OW17889   4.175  12.465   5.860 -0.0006 -0.1086 -0.2600
37095SOL    HW117890   4.210  12.526   5.925  2.0199 -1.9396  0.4876
37095SOL    HW217891   4.201  12.378   5.892 -2.4719 -1.3923 -1.4298
37096SOL     OW17892  11.421   0.982   9.080  0.4764  0.3871  0.1517
37096SOL    HW117893  11.497   0.926   9.070 -0.3133 -1.0792  1.8265
37096SOL    HW217894  11.437   1.031   9.161 -1.2231 -1.5468  1.7800
37097SOL     OW17895  10.985  10.953  11.278  0.3587 -0.1924 -0.4923
37097SOL    HW117896  10.926  10.985  11.210  0.4851  0.8231 -0.1393
37097SOL    HW217897  11.043  11.027  11.297  1.2654 -0.9242 -0.2966
37098SOL     OW17898   0.159  11.031   8.179 -0.2868  0.0319 -0.2009
37098SOL    HW117899   0.170  11.028   8.274  2.2137  3.3741 -0.2003
37098SOL    HW217900   0.240  10.993   8.144 -0.8779 -0.5066 -1.0332
37099SOL     OW17901   1.081   8.034  10.351  0.4615 -0.6338  0.3900
37099SOL    HW117902   1.054   7.979  10.424  0.2496 -3.1993 -1.4685
37099SOL    HW217903   1.176   8.034  10.354  0.4687 -1.2794  0.3166
37100SOL     OW17904   7.191   5.885   3.890  0.3800  0.5440 -0.4174
37100SOL    HW117905   7.118   5.885   3.952  2.3816 -1.1430  2.1407
37100SOL    HW217906   7.161   5.831   3.817 -1.1787  0.5062  0.2159
37101SOL     OW17907   6.324   4.209   3.628  0.7936  1.0443 -0.0988
37101SOL    HW117908   6.411   4.196   3.665 -0.2676 -1.0487  1.8644
37101SOL    HW217909   6.319   4.147   3.555  1.4805  2.3831 -1.3459
37102SOL     OW17910  11.631   0.723   4.378  0.0479 -0.3516 -0.1460
37102SOL    HW117911  11.678   0.740   4.296 -0.9547  1.5493 -0.3717
37102SOL    HW217912  11.578   0.646   4.359  0.0669 -0.1295 -1.1770
37103SOL     OW17913   7.957  12.135   5.464  0.0699  0.5054 -0.1798
37103SOL    HW117914   7.981  12.107   5.376 -0.0052 -0.8991  0.2214
37103SOL    HW217915   7.968  12.230   5.463  2.7651  0.2634 -0.8910
37104SOL     OW17916   7.415   5.239   1.303 -0.1200 -0.0533  0.1194
37104SOL    HW117917   7.406   5.284   1.387  0.8620  0.7540 -0.1840
37104SOL    HW217918   7.350   5.282   1.247 -1.1164 -0.9224  0.5769
37105SOL     OW17919   4.986   2.577  11.797 -0.1117  0.6604  0.5744
37105SOL    HW117920   5.015   2.623  11.718  1.0447  0.0094  0.6092
37105SOL    HW217921   4.993   2.642  11.867 -0.5257  1.0485  0.2651
37106SOL     OW17922   2.930   0.462   2.482  0.2290 -0.1309 -0.3276
37106SOL    HW117923   3.015   0.506   2.491 -0.5160  1.2501  0.1250
37106SOL    HW217924   2.913   0.461   2.388  0.0426  0.9983 -0.3195
37107SOL     OW17925  11.294   9.754   3.699  0.4210  0.2645 -0.2212
37107SOL    HW117926  11.204   9.728   3.683  0.5393 -0.6283  0.4147
37107SOL    HW217927  11.339   9.741   3.615 -0.1071  1.0593 -0.6318
37108SOL     OW17928  10.543   3.020   1.273 -0.3677  0.2029 -0.3141
37108SOL    HW117929  10.621   3.068   1.300 -1.0126  0.6720  0.7736
37108SOL    HW217930  10.544   3.024   1.177  1.1479 -0.1548 -0.3263
37109SOL     OW17931   2.986   9.342   2.586 -0.3381 -0.3234 -0.0352
37109SOL    HW117932   3.033   9.302   2.659  1.6852  0.8538 -0.6372
37109SOL    HW217933   3.020   9.431   2.580 -1.3909  0.0205 -1.6175
37110SOL     OW17934   8.110   8.627  10.023 -0.1973 -0.5714 -0.0694
37110SOL    HW117935   8.041   8.689  10.044 -2.6403 -2.8929 -0.6718
37110SOL    HW217936   8.127   8.641   9.930  0.4296  0.2365  0.1572
37111SOL     OW17937  11.482   8.324  11.479  0.3641  0.2148  0.5065
37111SOL    HW117938  11.441   8.388  11.422  0.0456 -0.0079  0.4805
37111SOL    HW217939  11.502   8.250  11.422  1.6693  0.6885  0.3232
37112SOL     OW17940   5.193   7.297   4.272 -0.2738 -0.7607 -0.0985
37112SOL    HW117941   5.149   7.257   4.197 -1.0004 -2.5851  1.2321
37112SOL    HW217942   5.284   7.306   4.245 -0.2902 -2.4472 -0.8113
37113SOL     OW17943   7.364   5.045  12.403  0.6503  0.1586  0.0527
37113SOL    HW117944   7.393   5.058  12.312 -1.5806  1.1979 -0.5630
37113SOL    HW217945   7.404   5.118  12.451  0.3459  0.6693 -0.4607
37114SOL     OW17946  11.710   8.844   7.948  0.4273 -0.5595  0.5330
37114SOL    HW117947  11.713   8.748   7.956  0.8635 -0.6319 -0.4407
37114SOL    HW217948  11.655   8.860   7.872 -0.0234 -0.0104  0.9676
37115SOL     OW17949   7.058   5.255   1.639 -0.6247 -0.1188  0.2205
37115SOL    HW117950   7.023   5.180   1.591 -0.6729 -0.8046  1.2836
37115SOL    HW217951   7.123   5.217   1.699 -0.1561  0.7764  0.2934
37116SOL     OW17952   4.351   2.615  11.127  0.1872  0.0210 -0.3022
37116SOL    HW117953   4.299   2.617  11.046  0.0560  0.7811 -0.2069
37116SOL    HW217954   4.306   2.676  11.185  0.4420 -0.3116  0.2488
37117SOL     OW17955   0.643   9.156  11.739 -0.2556 -0.2070 -0.0279
37117SOL    HW117956   0.556   9.125  11.766 -0.3287  0.1087  0.1077
37117SOL    HW217957   0.640   9.154  11.643 -0.6205  0.3552 -0.0339
37118SOL     OW17958   4.541   7.922   4.018 -0.8364  0.3045 -0.3895
37118SOL    HW117959   4.628   7.923   4.057 -0.5696  2.1578 -0.9414
37118SOL    HW217960   4.530   7.832   3.986  0.7649 -0.0235 -0.1060
37119SOL     OW17961   9.961   1.829  11.958  0.3603  0.0293 -0.1426
37119SOL    HW117962   9.876   1.786  11.966  0.3249 -0.0798 -1.0133
37119SOL    HW217963   9.940   1.919  11.933  0.4243  0.6550  1.8551
37120SOL     OW17964  10.606   9.340   4.847  0.3648 -0.0822  0.1088
37120SOL    HW117965  10.560   9.422   4.829  0.8062  0.0069 -0.6175
37120SOL    HW217966  10.640   9.350   4.936 -0.9958 -0.1405  0.6567
37121SOL     OW17967   5.695   6.929   1.570 -0.2020 -0.3188 -0.2899
37121SOL    HW117968   5.669   6.980   1.493 -0.2650  0.4999  0.2628
37121SOL    HW217969   5.753   6.988   1.618 -0.1254 -0.8471  0.2664
37122SOL     OW17970   3.620  10.104   9.649 -0.7080  0.0383 -0.0665
37122SOL    HW117971   3.607  10.113   9.555  0.1393  0.5499 -0.1472
37122SOL    HW217972   3.595  10.190   9.685  1.5416  0.7923 -0.1450
37123SOL     OW17973   6.886   6.713   0.802  0.6153 -0.3064 -0.7561
37123SOL    HW117974   6.857   6.725   0.712  0.1966 -0.1840 -0.6075
37123SOL    HW217975   6.964   6.658   0.796  0.1689 -0.8925 -1.1354
37124SOL     OW17976   7.438  12.097   8.005  0.2923  0.3643  0.2585
37124SOL    HW117977   7.404  12.052   7.927  3.0150 -1.5197  0.0277
37124SOL    HW217978   7.389  12.059   8.078  1.8124 -2.3909 -0.0433
37125SOL     OW17979   8.408   9.063   9.302  0.1382 -0.9171  0.1366
37125SOL    HW117980   8.318   9.029   9.300 -0.5806  0.8287  1.1174
37125SOL    HW217981   8.441   9.048   9.213 -0.7172 -2.5500  0.0427
37126SOL     OW17982  11.128  12.281   0.289  0.4776 -0.4310 -0.5354
37126SOL    HW117983  11.117  12.275   0.194  0.8647 -1.6406 -0.5135
37126SOL    HW217984  11.063  12.346   0.316  0.0926 -0.3596 -1.5801
37127SOL     OW17985   6.526   3.482   8.200  0.4092  0.1067  0.2658
37127SOL    HW117986   6.578   3.514   8.274  0.1235 -0.6424  0.7922
37127SOL    HW217987   6.471   3.556   8.176  1.8206  0.9868 -0.4134
37128SOL     OW17988  10.716   7.847   1.417  0.6920  0.1760 -0.2718
37128SOL    HW117989  10.712   7.753   1.402 -0.7529  0.5562 -2.7897
37128SOL    HW217990  10.626   7.878   1.404  1.4565  2.1192 -1.3604
37129SOL     OW17991  12.635   6.306  10.682 -0.1326 -0.1107 -0.3856
37129SOL    HW117992  12.595   6.236  10.733 -0.7083  1.2067  1.0342
37129SOL    HW217993  12.656   6.265  10.598 -0.9231 -1.8375  0.2152
37130SOL     OW17994   4.174   1.169  11.899 -0.0701  0.5062 -0.3869
37130SOL    HW117995   4.223   1.225  11.959  1.6744 -0.7332 -0.5744
37130SOL    HW217996   4.220   1.177  11.815  1.1202 -2.1693 -0.1043
37131SOL     OW17997   7.402  10.794   9.160 -0.3516 -0.6531  0.2621
37131SOL    HW117998   7.336  10.773   9.094  1.1614 -0.2626 -1.4427
37131SOL    HW217999   7.482  10.752   9.129  1.0227  1.6289  0.4469
37132SOL     OW18000   6.671  10.802  11.348 -0.2906 -0.2901 -0.0619
37132SOL    HW118001   6.669  10.887  11.303  0.5296  0.8365  1.9223
37132SOL    HW218002   6.584  10.794  11.388 -0.8331 -1.0449 -1.3253
37133SOL     OW18003   0.375   6.682   9.369  0.5953  0.1005 -0.4344
37133SOL    HW118004   0.316   6.749   9.332  0.9013  1.7642  1.8732
37133SOL    HW218005   0.460   6.725   9.374  1.4019 -1.3364 -1.1130
37134SOL     OW18006  10.077  11.304  10.536 -0.1964 -0.3251  0.1835
37134SOL    HW118007   9.982  11.310  10.540 -0.3001  0.5046 -1.8446
37134SOL    HW218008  10.107  11.336  10.621 -1.7203 -1.3084  1.1342
37135SOL     OW18009   2.501   6.940   0.178  0.3267  0.1240 -0.2643
37135SOL    HW118010   2.414   6.924   0.216  0.5153  1.0815  0.6228
37135SOL    HW218011   2.489   6.926   0.084 -0.5026 -0.9002 -0.0177
37136SOL     OW18012   1.288  12.382   8.735 -0.3015  0.4703 -0.2696
37136SOL    HW118013   1.334  12.340   8.807 -1.0839 -0.1646 -0.1182
37136SOL    HW218014   1.203  12.407   8.772 -0.3642  0.9577 -0.7284
37137SOL     OW18015   5.428  11.735   4.848 -0.4326 -0.4244  0.2560
37137SOL    HW118016   5.479  11.714   4.925 -0.6069  2.9011  1.4216
37137SOL    HW218017   5.449  11.665   4.785  1.6165 -1.8596  2.3843
37138SOL     OW18018   8.296   8.337   1.566  0.1338 -0.2029  0.2040
37138SOL    HW118019   8.201   8.338   1.576  0.3445 -0.3293  2.8605
37138SOL    HW218020   8.329   8.316   1.653  2.6157 -0.2238 -0.6704
37139SOL     OW18021  11.828   5.850   9.013 -0.0796 -1.0761  0.0977
37139SOL    HW118022  11.816   5.927   8.958  1.7926  0.0047  1.1201
37139SOL    HW218023  11.798   5.877   9.099  0.3374 -1.5836  0.4041
37140SOL     OW18024   2.910   1.558   6.756 -0.3587  0.4032  0.5433
37140SOL    HW118025   2.906   1.651   6.736  0.6879  0.2717 -0.3753
37140SOL    HW218026   2.997   1.545   6.794 -0.1419 -0.3378 -0.1712
37141SOL     OW18027   7.365   3.075   1.938  0.5520  0.0168  0.4383
37141SOL    HW118028   7.460   3.063   1.940  0.6784 -0.6640 -3.3110
37141SOL    HW218029   7.343   3.084   1.845 -3.1944 -0.8458  1.0754
37142SOL     OW18030   5.612  12.420   3.128  0.2642 -0.2136 -0.1260
37142SOL    HW118031   5.565  12.501   3.108  0.0061 -0.1294  0.7449
37142SOL    HW218032   5.554  12.373   3.188  0.9902 -0.4227  0.4266
37143SOL     OW18033   6.373   2.058   8.384  0.0072  0.1650  0.3490
37143SOL    HW118034   6.374   2.020   8.472 -1.0277 -1.6204 -0.3566
37143SOL    HW218035   6.299   2.120   8.386  1.0407  1.4357  1.1894
37144SOL     OW18036   2.651  11.366  12.267 -0.5117  0.3169 -0.0317
37144SOL    HW118037   2.603  11.374  12.185 -0.2159  0.7642 -0.1633
37144SOL    HW218038   2.693  11.280  12.263  0.0885  0.6322 -0.6657
37145SOL     OW18039  11.771  12.517   5.950 -0.2855  0.3296 -0.3078
37145SOL    HW118040  11.819  12.471   6.019  1.5472 -0.2566 -1.8913
37145SOL    HW218041  11.716  12.449   5.910 -0.7126  0.4806  0.0132
37146SOL     OW18042   5.867  10.358   6.934 -0.7920 -0.0368 -0.7149
37146SOL    HW118043   5.873  10.444   6.894  0.8362 -1.5577 -4.0746
37146SOL    HW218044   5.944  10.351   6.991 -1.9337  1.3094  1.1080
37147SOL     OW18045   4.406   1.951  12.218  0.3313 -0.2325  0.2203
37147SOL    HW118046   4.440   2.040  12.227 -2.3033  1.0062 -0.8771
37147SOL    HW218047   4.469   1.906  12.162  1.6162  0.9667  0.6454
37148SOL     OW18048   2.924  10.816   5.666 -0.0513 -0.0166 -0.3137
37148SOL    HW118049   2.952  10.760   5.737 -1.2391 -0.8943 -0.5165
37148SOL    HW218050   2.856  10.871   5.704 -0.7853 -0.5819 -0.7922
37149SOL     OW18051   9.160   7.656   6.329 -0.6831  0.5558  0.4181
37149SOL    HW118052   9.117   7.689   6.408  0.3441 -1.0877  1.7553
37149SOL    HW218053   9.110   7.578   6.305  0.0669  0.0241  0.5394
37150SOL     OW18054   5.983   3.484   0.984 -0.1771  0.1664 -0.3036
37150SOL    HW118055   6.016   3.568   1.015  0.5872 -0.2423  0.0227
37150SOL    HW218056   5.908   3.465   1.042  0.2702  0.1494  0.2823
37151SOL     OW18057   0.774   5.673   8.367 -0.4576  0.7180 -0.0670
37151SOL    HW118058   0.703   5.729   8.336 -0.4074  1.5889  1.2882
37151SOL    HW218059   0.852   5.728   8.362 -0.2694  0.5175  0.5406
37152SOL     OW18060   3.499  11.582  12.013 -0.3977 -0.3099  0.0556
37152SOL    HW118061   3.470  11.495  11.987 -0.6069 -0.2027 -0.0791
37152SOL    HW218062   3.432  11.641  11.976 -1.5173 -0.2514  2.0503
37153SOL     OW18063   0.709   8.088  11.108  0.1500  0.3253  0.6073
37153SOL    HW118064   0.655   8.161  11.139 -0.4892 -0.3866  1.2284
37153SOL    HW218065   0.797   8.107  11.140 -0.0299  0.7779  0.8380
37154SOL     OW18066   6.291   8.265   1.975 -0.4340  0.3066  0.4766
37154SOL    HW118067   6.272   8.337   2.036 -0.6643 -0.9453  1.9605
37154SOL    HW218068   6.366   8.221   2.014 -0.0784 -0.0563 -0.5998
37155SOL     OW18069   5.190   2.365   6.940 -0.1636 -0.4173  0.1561
37155SOL    HW118070   5.203   2.404   6.854 -0.8194 -1.5536 -0.4887
37155SOL    HW218071   5.237   2.422   7.000  0.0543  0.5623 -0.9168
37156SOL     OW18072  11.632   2.364  12.659  0.0364  0.3375 -0.0136
37156SOL    HW118073  11.567   2.293  12.658  0.3244  0.0659 -0.7679
37156SOL    HW218074  11.707   2.326  12.705 -1.0926  1.3909  2.8710
37157SOL     OW18075  10.010   2.880   9.818 -0.2166 -0.4427 -0.1730
37157SOL    HW118076   9.954   2.916   9.749 -0.1872 -0.3459 -0.1464
37157SOL    HW218077   9.955   2.878   9.896  0.7171  2.7242  0.7134
37158SOL     OW18078   3.603   5.470   0.750  0.3237 -0.0932 -0.1132
37158SOL    HW118079   3.622   5.457   0.657 -0.5432 -3.1657  0.0541
37158SOL    HW218080   3.650   5.400   0.794 -0.6755  0.2595  1.5990
37159SOL     OW18081   0.856   0.633  11.993 -0.2255 -1.0677 -0.2915
37159SOL    HW118082   0.770   0.592  12.000  0.0658 -1.7634 -0.7335
37159SOL    HW218083   0.838   0.722  11.963 -0.7242 -1.5346 -1.4070
37160SOL     OW18084   1.006   0.443   4.791  0.0673 -0.3151 -0.0169
37160SOL    HW118085   1.085   0.489   4.764  0.5921 -0.8709  0.5297
37160SOL    HW218086   1.033   0.351   4.799 -0.9745 -0.7645 -1.1914
37161SOL     OW18087   5.495   9.824   1.697  0.2028  0.0841  0.6194
37161SOL    HW118088   5.580   9.811   1.655  0.1867 -0.2516  0.6910
37161SOL    HW218089   5.453   9.738   1.694 -0.2291  0.2976  0.3806
37162SOL     OW18090   9.755  12.465   1.656 -0.1989 -0.1928 -0.3208
37162SOL    HW118091   9.809  12.438   1.730  1.2684  1.7206 -0.6247
37162SOL    HW218092   9.678  12.506   1.696  1.0347  1.7020  0.2200
37163SOL     OW18093   2.055   0.648   8.026 -0.0094  0.3355  0.2644
37163SOL    HW118094   2.018   0.568   8.063 -0.1265 -0.2567 -1.0716
37163SOL    HW218095   2.147   0.626   8.010 -0.3579 -0.0311 -1.3918
37164SOL     OW18096   6.652   5.990   1.056 -0.3226 -0.2637  0.2381
37164SOL    HW118097   6.714   6.013   0.987 -1.4021  3.0317  0.2034
37164SOL    HW218098   6.588   6.062   1.056 -2.3429 -1.9032  2.3781
37165SOL     OW18099   7.225   8.870  11.053 -0.0518  0.0297  0.3065
37165SOL    HW118100   7.277   8.801  11.012  2.1235  1.7458  0.0255
37165SOL    HW218101   7.224   8.941  10.989  0.6723  1.5432  1.9112
37166SOL     OW18102   1.560  12.335  12.057  0.2723  0.0187 -0.3629
37166SOL    HW118103   1.642  12.383  12.046  2.1019 -2.7697 -0.1054
37166SOL    HW218104   1.521  12.335  11.969  0.9196  0.7627 -0.6677
37167SOL     OW18105   8.724  11.738   0.979 -0.2566 -0.2924 -1.0062
37167SOL    HW118106   8.653  11.703   1.032  0.2601  1.7957  1.2313
37167SOL    HW218107   8.682  11.804   0.924 -0.4415 -0.9409 -1.6593
37168SOL     OW18108   0.933   3.112   7.631  0.1613  0.0877 -0.6504
37168SOL    HW118109   0.989   3.159   7.692  1.2661 -0.6521 -1.0650
37168SOL    HW218110   0.856   3.168   7.621  0.8528  1.1636 -0.1181
37169SOL     OW18111   7.344  11.038  11.403 -0.1508 -0.0218 -0.2374
37169SOL    HW118112   7.299  11.097  11.343 -0.3997  0.5873  0.5320
37169SOL    HW218113   7.333  11.078  11.489 -0.1602 -1.0903  0.2795
37170SOL     OW18114   6.340   0.330   9.486  0.1100 -0.4173  0.0882
37170SOL    HW118115   6.289   0.339   9.567 -1.8942  1.2450 -1.2400
37170SOL    HW218116   6.373   0.418   9.469  0.8042 -0.8239 -0.7150
37171SOL     OW18117   6.857   0.163  11.974 -0.2897 -0.2176 -1.1667
37171SOL    HW118118   6.849   0.068  11.980 -1.3254 -0.0881 -0.0305
37171SOL    HW218119   6.920   0.178  11.904  0.1463 -1.7446 -1.1243
37172SOL     OW18120   9.766  10.879   6.315 -0.0536 -0.6837 -0.5324
37172SOL    HW118121   9.826  10.946   6.282  1.4739 -2.3789 -1.3972
37172SOL    HW218122   9.823  10.808   6.343 -1.6366 -1.8730 -0.1892
37173SOL     OW18123   1.782   9.424   9.037  0.0273  0.2954  0.5587
37173SOL    HW118124   1.761   9.452   8.948  1.1994  0.6940  0.3935
37173SOL    HW218125   1.876   9.407   9.036  0.1235  0.6323  1.8054
37174SOL     OW18126   7.180   7.763   9.605  0.2452  0.2664 -0.7005
37174SOL    HW118127   7.095   7.774   9.648  0.1618 -0.2825 -0.7122
37174SOL    HW218128   7.178   7.674   9.571  0.4694  0.5584 -1.5040
37175SOL     OW18129  10.396   6.734   6.220  0.0601  0.5374 -0.2818
37175SOL    HW118130  10.324   6.746   6.282  0.5980  1.9854  0.1175
37175SOL    HW218131  10.366   6.777   6.140  0.2002  0.5293 -0.3392
37176SOL     OW18132   4.344   3.850  12.448 -0.5593  0.6362 -0.4098
37176SOL    HW118133   4.254   3.819  12.445 -0.8627  1.3280  0.7546
37176SOL    HW218134   4.341   3.928  12.504  0.7416  0.7340 -0.4281
37177SOL     OW18135   9.888   1.137   3.272 -0.5331 -0.2249 -0.0205
37177SOL    HW118136   9.808   1.167   3.230 -0.3544 -0.1360 -0.3001
37177SOL    HW218137   9.928   1.217   3.307 -0.7028 -0.3039  0.3539
37178SOL     OW18138   8.872   8.100   2.980  0.1082 -0.4565 -0.1967
37178SOL    HW118139   8.883   8.009   2.951 -0.4300 -0.3576 -0.7403
37178SOL    HW218140   8.788   8.127   2.942 -0.1032  0.0245  0.5932
37179SOL     OW18141   3.421   8.755  11.976  0.0702  0.1902 -0.0205
37179SOL    HW118142   3.455   8.683  11.924 -2.5326 -0.2130 -1.3719
37179SOL    HW218143   3.408   8.826  11.913  3.6490  2.3982  1.4686
37180SOL     OW18144   9.218  11.769   6.598 -0.0048 -0.5298  0.4667
37180SOL    HW118145   9.147  11.792   6.537  1.4017  1.5097 -0.5153
37180SOL    HW218146   9.228  11.847   6.653  1.7072 -0.6046  0.3092
37181SOL     OW18147  10.667   2.512   1.104  0.0246 -0.0318  0.3458
37181SOL    HW118148  10.728   2.481   1.037 -0.0079  1.0213 -0.1819
37181SOL    HW218149  10.581   2.493   1.069  0.0218 -0.2549  0.4724
37182SOL     OW18150  10.974   4.638   9.788  0.4875  0.4229 -0.2816
37182SOL    HW118151  10.955   4.727   9.818  0.1405 -0.1248  1.2314
37182SOL    HW218152  10.895   4.611   9.740  0.2872  0.6794 -0.0980
37183SOL     OW18153  12.532   4.574   1.863  0.4251  0.0406 -0.2645
37183SOL    HW118154  12.592   4.575   1.789 -1.0226 -1.2100 -1.5328
37183SOL    HW218155  12.503   4.483   1.871 -1.0486  0.5237  0.4776
37184SOL     OW18156   5.221  10.890  11.146 -0.1129 -0.3975 -0.0099
37184SOL    HW118157   5.309  10.900  11.182  0.2428 -0.1609 -0.9231
37184SOL    HW218158   5.206  10.795  11.146 -0.7716 -0.3575  2.2343
37185SOL     OW18159   3.207  11.146   6.547  0.7064 -0.4932 -0.1046
37185SOL    HW118160   3.258  11.066   6.531  2.8719  0.5708  0.9993
37185SOL    HW218161   3.273  11.215   6.551 -0.8733  1.0054  1.3332
37186SOL     OW18162   0.801   4.964   0.109  0.7145 -0.2492 -0.3551
37186SOL    HW118163   0.739   4.918   0.053  0.8633 -1.7847  0.6862
37186SOL    HW218164   0.756   5.045   0.132 -0.5505 -0.9286 -0.3546
37187SOL     OW18165   4.276   7.195   5.580  0.7195  0.0407  0.0052
37187SOL    HW118166   4.317   7.209   5.665  0.8220 -0.6026  0.0662
37187SOL    HW218167   4.268   7.100   5.573  0.9242  0.0815 -0.8063
37188SOL     OW18168   9.372   8.539  11.096  0.1590  0.1377 -0.2835
37188SOL    HW118169   9.334   8.598  11.161 -0.5086 -0.6220  0.0483
37188SOL    HW218170   9.361   8.584  11.013 -1.4365  0.0021 -0.1911
37189SOL     OW18171  12.739  11.814   4.353  0.4239 -0.3791  0.0848
37189SOL    HW118172  12.658  11.788   4.397 -0.8175 -0.0163 -1.8303
37189SOL    HW218173  12.755  11.745   4.289  1.0719  0.0580 -0.2333
37190SOL     OW18174   3.944  12.064   0.251 -0.1058  0.7304 -0.4504
37190SOL    HW118175   3.899  11.979   0.251 -1.8812  1.5781 -2.4132
37190SOL    HW218176   4.037  12.042   0.253 -0.5208 -1.2935 -1.3668
37191SOL     OW18177   3.793   9.403   4.120  0.5759 -0.2447  0.1251
37191SOL    HW118178   3.702   9.404   4.091  0.2553 -0.6681  1.0562
37191SOL    HW218179   3.843   9.435   4.045 -0.2819 -0.5340 -0.5876
37192SOL     OW18180   1.537  12.523   4.584  0.3046 -0.2819 -0.5151
37192SOL    HW118181   1.520  12.609   4.624  2.0451  0.1067 -0.5184
37192SOL    HW218182   1.526  12.461   4.656 -1.4527 -0.1367 -0.6224
37193SOL     OW18183   8.572  10.839  11.002  0.5690  0.3914  0.3220
37193SOL    HW118184   8.550  10.905  10.937 -0.0449  0.0122  0.1391
37193SOL    HW218185   8.656  10.803  10.972 -0.5539 -1.0208 -1.2694
37194SOL     OW18186   7.371   2.288   8.804 -0.2361  0.0242 -0.3136
37194SOL    HW118187   7.465   2.273   8.807 -0.5545 -2.3414  0.3145
37194SOL    HW218188   7.350   2.293   8.710  0.3835 -0.7351 -0.5080
37195SOL     OW18189   5.614   6.617   1.112 -0.4956 -0.7914 -0.1918
37195SOL    HW118190   5.570   6.686   1.162 -1.7934 -2.1849  0.6884
37195SOL    HW218191   5.551   6.545   1.111  0.9024 -2.0479 -0.8853
37196SOL     OW18192  10.152   9.798   2.222 -0.6265  0.3949 -0.2288
37196SOL    HW118193  10.163   9.719   2.170 -1.6748  0.8478 -1.2001
37196SOL    HW218194  10.196   9.780   2.304  0.9128 -0.4372 -1.1865
37197SOL     OW18195   7.620   8.752   1.873 -0.9531 -0.5632 -0.7551
37197SOL    HW118196   7.655   8.702   1.946 -0.6467  0.5329 -0.1271
37197SOL    HW218197   7.692   8.758   1.811  0.1146  1.7617  0.5732
37198SOL     OW18198   9.565   5.381   1.116  0.4805 -0.0812 -0.0455
37198SOL    HW118199   9.585   5.366   1.209 -0.4524 -0.3538  0.1162
37198SOL    HW218200   9.522   5.301   1.087 -2.0086  1.1230  0.0929
37199SOL     OW18201  11.175   0.397   0.921  0.4762  0.0813  0.0112
37199SOL    HW118202  11.119   0.471   0.944  2.4002  1.9242 -0.9189
37199SOL    HW218203  11.190   0.351   1.004  0.2158  1.4393  0.8338
37200SOL     OW18204  12.015   4.061   1.586  0.4262  0.1120 -0.2444
37200SOL    HW118205  12.045   4.138   1.634  0.2981 -0.4207  0.7237
37200SOL    HW218206  11.987   4.094   1.501 -0.9351  1.3323  0.6508
37201SOL     OW18207   6.683   5.588   4.706 -0.0841 -0.4158 -0.4171
37201SOL    HW118208   6.739   5.552   4.637 -1.0290  0.0323 -1.4593
37201SOL    HW218209   6.594   5.571   4.676 -0.5440  1.4165 -0.2315
37202SOL     OW18210   1.587   8.488   1.287 -0.1756 -0.0561 -0.3169
37202SOL    HW118211   1.552   8.531   1.365  1.6121  1.3245 -0.2129
37202SOL    HW218212   1.653   8.427   1.320 -0.1445 -0.2361 -0.7030
37203SOL     OW18213   3.847   6.374   1.757  0.2464 -0.9772 -0.5753
37203SOL    HW118214   3.896   6.318   1.697  3.9833  0.5208  0.7284
37203SOL    HW218215   3.800   6.435   1.700 -0.2274 -2.5559 -1.9404
37204SOL     OW18216   5.143   6.929   9.820  0.0021  0.0044 -0.1425
37204SOL    HW118217   5.109   6.889   9.900 -1.0528 -0.9864 -1.0599
37204SOL    HW218218   5.103   7.016   9.817 -0.5655 -0.2508  0.0064
37205SOL     OW18219   3.778   6.899  11.477  0.2576  0.2074 -0.0516
37205SOL    HW118220   3.686   6.907  11.505  0.4670  1.7262  0.2554
37205SOL    HW218221   3.776   6.916  11.383 -0.1779 -3.0039 -0.7421
37206SOL     OW18222   5.184   9.235   7.639 -0.1467  1.0416 -0.0586
37206SOL    HW118223   5.264   9.183   7.646  0.3488  1.7395 -0.4468
37206SOL    HW218224   5.174   9.276   7.725  0.6843  2.0418 -0.4169
37207SOL     OW18225   3.998   8.118   4.510  0.1866 -0.0403  0.1538
37207SOL    HW118226   3.924   8.141   4.567 -1.0387 -1.8549 -0.6383
37207SOL    HW218227   4.020   8.028   4.534  1.6734  0.2112 -0.1534
37208SOL     OW18228   3.609   6.435   2.180 -0.4261 -0.1071  0.0367
37208SOL    HW118229   3.546   6.381   2.132  1.2487 -2.6105  0.4674
37208SOL    HW218230   3.694   6.394   2.162  0.7734  1.5511  1.5934
37209SOL     OW18231   9.439  10.325   8.596  0.2544 -0.4198 -0.0179
37209SOL    HW118232   9.424  10.382   8.520 -1.7313  0.4068  0.9445
37209SOL    HW218233   9.535  10.326   8.607  0.4400  0.8992 -1.3994
37210SOL     OW18234   3.692   9.076   5.905 -0.4897  0.1992  0.5346
37210SOL    HW118235   3.617   9.022   5.882  0.0740 -0.5630  0.4614
37210SOL    HW218236   3.722   9.042   5.989 -0.3495  0.6404  0.6693
37211SOL     OW18237   1.398   6.063   6.210  0.3171  0.1075  0.4830
37211SOL    HW118238   1.380   6.014   6.290  0.6046 -0.3992  0.2484
37211SOL    HW218239   1.313   6.094   6.180  0.0935 -0.4703  0.5050
37212SOL     OW18240   1.716   7.162   9.279 -0.2459 -0.4268  0.3096
37212SOL    HW118241   1.804   7.199   9.268 -0.7032  0.6149  0.0387
37212SOL    HW218242   1.687   7.196   9.364 -0.6106 -0.3033  0.1349
37213SOL     OW18243   6.389  10.872   3.964  0.0552  0.0202  0.0447
37213SOL    HW118244   6.351  10.824   3.891  0.4293 -1.5384  0.8246
37213SOL    HW218245   6.483  10.876   3.945  0.4164 -1.8246  1.1367
37214SOL     OW18246   5.233   0.887   4.536  0.3312  0.1082  0.0471
37214SOL    HW118247   5.211   0.885   4.443  0.1353  0.4131  0.0875
37214SOL    HW218248   5.207   0.974   4.566  0.5483  0.0715  0.3500
37215SOL     OW18249  11.879   0.272   0.221  0.2668 -0.0128 -0.0950
37215SOL    HW118250  11.937   0.280   0.297  0.0915 -0.3257  0.0770
37215SOL    HW218251  11.800   0.230   0.256 -1.2163  2.8632  0.2698
37216SOL     OW18252   0.560   2.956  12.036  0.1352  0.3524  0.0880
37216SOL    HW118253   0.489   2.919  11.984 -0.0882 -1.3517  1.5089
37216SOL    HW218254   0.582   3.039  11.992 -0.4107 -0.7088 -2.3329
37217SOL     OW18255  10.684   3.760  12.784 -0.3278  0.4060  0.0281
37217SOL    HW118256  10.651   3.814  12.713  1.3806 -0.5789 -1.6313
37217SOL    HW218257  10.663   3.670  12.757  1.2558 -0.0487  0.2105
37218SOL     OW18258  11.180   5.638   3.840  0.0545 -0.3916  0.1416
37218SOL    HW118259  11.096   5.644   3.793  0.3447  0.0420 -0.3352
37218SOL    HW218260  11.241   5.689   3.786  1.0900 -2.2476 -0.5411
37219SOL     OW18261   6.202  11.680   1.180 -0.3508 -0.0934  0.4025
37219SOL    HW118262   6.251  11.598   1.168 -2.4714 -1.3134 -0.5991
37219SOL    HW218263   6.189  11.713   1.091  0.4940  1.4080  0.7966
37220SOL     OW18264  12.438   5.700  11.412  0.1186 -0.2356  0.3530
37220SOL    HW118265  12.373   5.736  11.473 -0.3694 -1.6551  0.7151
37220SOL    HW218266  12.451   5.610  11.441  1.1192 -0.4396 -0.6555
37221SOL     OW18267   2.143   7.064   1.146 -0.9032  0.5275  0.5127
37221SOL    HW118268   2.179   7.000   1.084 -1.7157  0.3950  0.1521
37221SOL    HW218269   2.098   7.011   1.212 -0.9452  0.7021  0.6250
37222SOL     OW18270   1.900   5.266   0.270 -0.3488 -0.0892  0.0185
37222SOL    HW118271   1.909   5.171   0.264 -0.6641 -0.0994 -0.3007
37222SOL    HW218272   1.857   5.292   0.188  2.0120  0.6310 -1.0701
37223SOL     OW18273   0.133   4.920   9.415  0.0123  0.0348 -0.0896
37223SOL    HW118274   0.083   4.870   9.351 -1.0648 -2.1661  2.2775
37223SOL    HW218275   0.070   4.940   9.485  1.0161  2.7252  0.1898
37224SOL     OW18276   6.446   3.544   6.180  0.1997 -0.1884 -0.0734
37224SOL    HW118277   6.478   3.626   6.143  0.0495 -0.4842 -0.8831
37224SOL    HW218278   6.502   3.476   6.142 -0.1795 -0.5316 -0.0294
37225SOL     OW18279   0.708   4.311   5.775 -0.6500 -0.0784  0.2703
37225SOL    HW118280   0.799   4.334   5.755 -0.2087 -0.3261  1.8820
37225SOL    HW218281   0.710   4.216   5.789 -0.8869  0.0869  1.5681
37226SOL     OW18282   0.576   2.030  11.242  0.2697 -0.9124 -0.1277
37226SOL    HW118283   0.580   2.011  11.149  0.6541 -1.3091 -0.0332
37226SOL    HW218284   0.652   2.086  11.259 -1.2193  1.3555 -0.5312
37227SOL     OW18285   0.877  12.516   3.123 -0.0376 -0.0395  0.0472
37227SOL    HW118286   0.818  12.473   3.184  0.3886 -1.5031 -0.5136
37227SOL    HW218287   0.833  12.512   3.038 -0.1518  1.0007  0.0380
37228SOL     OW18288   0.213  11.931  12.310 -0.1112  0.4954  0.2301
37228SOL    HW118289   0.124  11.949  12.283 -0.1737 -1.8922 -1.4735
37228SOL    HW218290   0.266  11.999  12.268 -0.7418 -0.3876 -2.0955
37229SOL     OW18291   2.516  11.101   4.821  0.3538 -0.7127 -0.4809
37229SOL    HW118292   2.489  11.011   4.804  2.7970 -1.4036 -1.0204
37229SOL    HW218293   2.576  11.123   4.750  1.1762  0.7178  0.5830
37230SOL     OW18294   1.882  12.779   4.142  0.2484 -0.2659  0.2104
37230SOL    HW118295   1.941  12.800   4.069  0.0711 -0.9685 -0.1384
37230SOL    HW218296   1.918  12.829   4.216  0.2456  0.6995 -0.4237
37231SOL     OW18297   5.183   9.441   2.251  0.2066 -0.6887  0.0407
37231SOL    HW118298   5.115   9.486   2.202  0.6427 -0.5759 -0.4723
37231SOL    HW218299   5.207   9.367   2.196  0.2103 -0.9660  0.4087
37232SOL     OW18300   1.441   7.976  10.818 -0.0767 -0.6098  0.2846
37232SOL    HW118301   1.497   8.047  10.848 -0.4033 -0.1428 -0.1724
37232SOL    HW218302   1.361   7.984  10.870 -1.0586  0.8471 -1.3516
37233SOL     OW18303   5.790   2.898   4.885 -0.2270  0.4884 -0.2606
37233SOL    HW118304   5.777   2.991   4.872  0.0740  0.7200  0.9640
37233SOL    HW218305   5.703   2.863   4.904 -0.3264  0.5257 -0.6392
37234SOL     OW18306   4.273  12.243  11.000 -0.6160 -0.2109 -0.2368
37234SOL    HW118307   4.262  12.335  10.975 -1.4440  0.0957  1.1957
37234SOL    HW218308   4.200  12.224  11.058  0.5980 -1.2182  1.0542
37235SOL     OW18309   4.036  10.960   6.857 -0.3957 -0.1988 -0.1122
37235SOL    HW118310   4.065  10.909   6.932 -0.5207 -1.8329 -1.1151
37235SOL    HW218311   3.945  10.982   6.876 -1.0603 -2.3093 -0.5976
37236SOL     OW18312   4.916   6.272  11.903  0.1749  0.3179  0.0371
37236SOL    HW118313   4.907   6.325  11.824 -0.4760 -1.2828 -1.0114
37236SOL    HW218314   4.971   6.198  11.877 -0.2526 -0.3680  1.0087
37237SOL     OW18315   2.862   8.537   0.857  0.3229  0.0421 -0.3036
37237SOL    HW118316   2.898   8.541   0.946  0.0065 -1.4526 -0.0777
37237SOL    HW218317   2.805   8.614   0.850 -2.6305 -1.6681  2.1770
37238SOL     OW18318   2.846   7.337   5.984  0.1255 -0.1526  0.2375
37238SOL    HW118319   2.804   7.266   5.936 -0.9446  1.1448 -0.8097
37238SOL    HW218320   2.903   7.293   6.047 -0.5618 -1.9267 -0.3316
37239SOL     OW18321  12.459   7.911   7.255  0.1265 -0.3755 -0.3309
37239SOL    HW118322  12.385   7.971   7.265  0.5072  0.0600 -0.0655
37239SOL    HW218323  12.489   7.924   7.165  0.7731  0.5051  0.0019
37240SOL     OW18324   4.786   5.661   3.788  0.0275  0.1475 -1.2830
37240SOL    HW118325   4.855   5.627   3.846 -1.7343 -1.4883 -0.0300
37240SOL    HW218326   4.834   5.708   3.720  2.3753 -0.7064 -0.3400
37241SOL     OW18327   8.210  11.087   4.542 -0.1823  0.0340  0.1600
37241SOL    HW118328   8.132  11.121   4.586 -0.7101 -1.3392  0.3311
37241SOL    HW218329   8.199  10.992   4.544  0.5612 -0.1128 -1.5485
37242SOL     OW18330   3.371   0.028   5.025  0.4387 -0.7650  0.1516
37242SOL    HW118331   3.304  -0.039   5.009  0.7960 -0.8375 -1.2133
37242SOL    HW218332   3.390   0.021   5.118  1.0733 -3.1667 -0.0706
37243SOL     OW18333  10.907  10.339   0.742 -0.3325 -0.9882 -0.4422
37243SOL    HW118334  10.881  10.266   0.797  0.9342 -1.3723 -0.3276
37243SOL    HW218335  10.825  10.370   0.703 -1.0496 -1.6310  0.5142
37244SOL     OW18336   9.847   9.043   2.912 -0.2523 -0.4475  0.1831
37244SOL    HW118337   9.897   9.033   2.831  1.0869  0.2129  0.8904
37244SOL    HW218338   9.892   8.986   2.975  0.5180  1.2196  1.2043
37245SOL     OW18339   0.846  12.078   5.245 -0.3837  0.5078  0.5222
37245SOL    HW118340   0.761  12.120   5.231 -1.5362 -1.5077  0.9580
37245SOL    HW218341   0.860  12.027   5.164  1.2560  2.1007 -0.2503
37246SOL     OW18342   3.534   4.678   4.822  0.1284 -0.3545  0.4745
37246SOL    HW118343   3.528   4.710   4.912  1.6880  2.4005 -0.2872
37246SOL    HW218344   3.625   4.651   4.813  0.3783  0.8029 -0.6628
37247SOL     OW18345  10.357   6.594   3.853  0.2738  0.0716  0.3968
37247SOL    HW118346  10.334   6.563   3.940 -0.9636 -0.4838 -0.1033
37247SOL    HW218347  10.327   6.684   3.850  0.6474  0.2089  0.6531
37248SOL     OW18348   7.874  11.878   1.620  0.2003  0.1676 -0.1893
37248SOL    HW118349   7.929  11.924   1.556  0.8122  0.6159  0.6413
37248SOL    HW218350   7.933  11.817   1.663 -0.0847  0.2484  0.3207
37249SOL     OW18351   1.227   9.028   8.877  0.0170 -0.6929 -0.2582
37249SOL    HW118352   1.150   9.017   8.933  0.9493  2.3012  1.8502
37249SOL    HW218353   1.242   8.941   8.839 -2.0538 -2.3293  2.3456
37250SOL     OW18354   0.417   6.431   8.470  0.0808 -0.3185  0.4250
37250SOL    HW118355   0.496   6.472   8.435  0.1415 -1.2477 -0.5718
37250SOL    HW218356   0.448   6.382   8.546  0.3631 -0.2425  0.3611
37251SOL     OW18357   5.631   0.747   0.536 -0.2972 -0.3082 -0.2254
37251SOL    HW118358   5.580   0.672   0.508  1.1187 -0.6003 -2.1965
37251SOL    HW218359   5.683   0.772   0.459 -0.5547  2.5535  0.4060
37252SOL     OW18360   3.429   3.595   2.257  0.5403 -0.5902 -0.0368
37252SOL    HW118361   3.370   3.536   2.210  0.1120 -0.3674  0.2087
37252SOL    HW218362   3.463   3.543   2.330 -1.0878 -0.0893  1.1354
37253SOL     OW18363   1.120  10.518   0.629 -0.2334 -0.4255 -0.4744
37253SOL    HW118364   1.039  10.482   0.595 -0.7456  0.3192 -0.0626
37253SOL    HW218365   1.119  10.498   0.722  0.4069 -1.0425 -0.5850
37254SOL     OW18366   7.965   9.228   0.690  0.0055  0.0086  0.4671
37254SOL    HW118367   7.889   9.172   0.678  0.6091 -0.6182 -0.6871
37254SOL    HW218368   7.966   9.284   0.612 -0.4969  1.5473  1.5248
37255SOL     OW18369   5.719   8.816   1.250 -0.1991 -0.2936 -0.0091
37255SOL    HW118370   5.723   8.754   1.323  0.8305 -1.8316 -1.2944
37255SOL    HW218371   5.709   8.761   1.172  3.8580  0.7613 -1.5481
37256SOL     OW18372   7.769   4.644  11.296 -0.3306  0.0566  0.5383
37256SOL    HW118373   7.741   4.648  11.387 -0.6623  1.9277  0.3912
37256SOL    HW218374   7.718   4.572  11.258  0.7076 -1.5474  2.0834
37257SOL     OW18375  10.103   7.047  11.627  0.4947 -0.2316  0.0396
37257SOL    HW118376  10.109   7.056  11.532 -1.4888 -0.6949 -0.1840
37257SOL    HW218377  10.054   6.966  11.641 -1.0806  0.8567  1.3613
37258SOL     OW18378   6.379   7.981   3.585 -0.2092  0.7527 -0.3493
37258SOL    HW118379   6.287   8.002   3.599 -0.2256  1.0221 -0.8653
37258SOL    HW218380   6.378   7.910   3.521 -0.1939 -1.3572  1.8360
37259SOL     OW18381   1.054   4.955   7.408  0.4445 -0.3240 -0.4108
37259SOL    HW118382   1.072   4.884   7.470 -1.2392  0.2931  0.8680
37259SOL    HW218383   0.974   4.928   7.363 -0.7480  1.0862  0.7384
37260SOL     OW18384   0.058   4.611   5.508  0.1425 -0.2823 -0.1514
37260SOL    HW118385   0.027   4.642   5.593  4.4656 -0.4863  1.7682
37260SOL    HW218386   0.124   4.675   5.482 -0.3467 -0.7772 -2.9905
37261SOL     OW18387   6.727   9.396   5.435  0.4061 -0.2919 -0.8322
37261SOL    HW118388   6.752   9.373   5.525 -1.2358 -0.0873 -0.2907
37261SOL    HW218389   6.709   9.490   5.438  1.0686 -0.1323 -1.5684
37262SOL     OW18390   9.776  12.742   2.469  1.1108  0.2929 -0.5876
37262SOL    HW118391   9.704  12.793   2.506  2.3421  1.1417  0.7828
37262SOL    HW218392   9.734  12.665   2.431 -0.5310  0.8666 -0.0296
37263SOL     OW18393  10.867   9.213  12.600 -0.9747 -0.5376  0.7239
37263SOL    HW118394  10.869   9.303  12.567 -1.0784 -1.0860 -0.8778
37263SOL    HW218395  10.933   9.212  12.669  0.5618  0.2745 -0.6421
37264SOL     OW18396  11.930   3.391  11.171 -0.1762 -0.1423  0.0629
37264SOL    HW118397  11.914   3.303  11.136 -0.2910  0.3805 -1.2878
37264SOL    HW218398  11.899   3.450  11.101  1.5348  0.9498  0.1683
37265SOL     OW18399   7.859   0.415  10.801  0.1887 -0.1353 -0.1583
37265SOL    HW118400   7.891   0.357  10.870  2.3791  0.6611 -0.4507
37265SOL    HW218401   7.902   0.384  10.721  0.0640  0.8525 -0.6225
37266SOL     OW18402   3.816   6.256   1.006  0.2740 -0.5907  0.1932
37266SOL    HW118403   3.839   6.252   0.913  0.6680 -3.3876  0.3206
37266SOL    HW218404   3.897   6.282   1.050 -0.5911  3.8008 -0.2936
37267SOL     OW18405   0.449   6.598   2.534  0.0598  0.2932  0.0519
37267SOL    HW118406   0.455   6.515   2.487  1.0137 -0.0145  0.6842
37267SOL    HW218407   0.375   6.587   2.593 -1.2268  0.7267 -1.4111
37268SOL     OW18408   2.017  11.198   6.738 -0.6285 -0.8007  0.4117
37268SOL    HW118409   2.025  11.265   6.807  0.2478  0.5625 -0.9418
37268SOL    HW218410   2.099  11.150   6.742 -0.4562 -0.5317  0.1408
37269SOL     OW18411   7.353   6.814   4.191  0.1834 -0.2227 -0.5760
37269SOL    HW118412   7.374   6.724   4.166 -0.4111 -0.6617  0.4358
37269SOL    HW218413   7.278   6.838   4.135 -1.7499 -1.5261  1.2924
37270SOL     OW18414   7.370  11.236   3.832  0.4697 -0.4194 -0.2857
37270SOL    HW118415   7.281  11.207   3.853  0.4725 -1.0217 -1.0714
37270SOL    HW218416   7.402  11.276   3.913 -1.5329  2.4624 -0.7440
37271SOL     OW18417   5.650   5.918   1.272  0.0701 -0.2454 -0.5693
37271SOL    HW118418   5.721   5.853   1.277  1.5524  1.2806 -0.6550
37271SOL    HW218419   5.627   5.921   1.180  0.7841  0.1004 -0.7509
37272SOL     OW18420   7.191   3.358   4.407 -0.5246  0.2985 -0.0245
37272SOL    HW118421   7.219   3.267   4.415  1.0756  0.8238  0.8208
37272SOL    HW218422   7.106   3.361   4.450  1.2421 -0.0243  3.9576
37273SOL     OW18423   4.962   1.180   1.967 -0.0243 -0.2533  0.1701
37273SOL    HW118424   4.952   1.107   2.029  1.9690 -0.6104  0.1413
37273SOL    HW218425   4.934   1.143   1.883 -1.2751 -0.2350  0.5568
37274SOL     OW18426   3.256   3.214   1.421 -0.1340  0.3771 -0.2335
37274SOL    HW118427   3.328   3.235   1.480  0.3285 -1.7318  0.0159
37274SOL    HW218428   3.181   3.261   1.457  0.0636 -1.0668  2.2380
37275SOL     OW18429   7.675   7.798  12.349 -0.2799  0.5213 -0.2938
37275SOL    HW118430   7.675   7.824  12.257  0.7506 -0.6222 -0.6393
37275SOL    HW218431   7.705   7.707  12.349 -0.9264  0.2750  1.1176
37276SOL     OW18432   0.809   5.349   6.394 -0.2181 -0.0387  0.4243
37276SOL    HW118433   0.875   5.281   6.411 -0.7273 -1.1464 -1.7257
37276SOL    HW218434   0.735   5.301   6.356 -1.6997  1.3922  1.3591
37277SOL     OW18435  10.118   9.719   1.589 -0.2514  0.4373 -0.1733
37277SOL    HW118436  10.133   9.636   1.635 -2.0467  1.2453  2.0072
37277SOL    HW218437  10.165   9.784   1.641 -2.4066  1.3869  0.7075
37278SOL     OW18438   0.840  10.587   3.289  0.1953  0.3969 -0.0557
37278SOL    HW118439   0.803  10.553   3.208  1.9323  2.5047 -1.8519
37278SOL    HW218440   0.904  10.520   3.316 -1.3670 -0.9679  0.4203
37279SOL     OW18441   4.710   9.494  12.302 -0.3033  0.3298 -0.3533
37279SOL    HW118442   4.763   9.502  12.381  0.0630  0.5123 -0.6137
37279SOL    HW218443   4.774   9.480  12.232 -0.7247 -1.9034 -0.3520
37280SOL     OW18444   3.669  12.246   6.461  0.1490  0.2478 -0.0583
37280SOL    HW118445   3.743  12.267   6.404  0.3010 -0.5112 -0.1528
37280SOL    HW218446   3.688  12.290   6.544  0.8049 -0.0978 -0.0187
37281SOL     OW18447   0.690   2.214   2.001 -0.1816 -0.3186  0.4450
37281SOL    HW118448   0.664   2.192   2.091 -0.4762  1.3303  0.8095
37281SOL    HW218449   0.608   2.218   1.952  0.0023 -1.4738  0.0248
37282SOL     OW18450   2.927   3.385   5.221  0.1839 -0.4680 -0.5846
37282SOL    HW118451   2.889   3.378   5.134 -1.4454 -2.3444  0.1981
37282SOL    HW218452   2.900   3.472   5.252 -0.9791 -0.5872 -1.1910
37283SOL     OW18453   1.719  11.237   8.062 -0.7042  0.6286 -0.2538
37283SOL    HW118454   1.653  11.303   8.040 -0.6089  1.2491  1.2440
37283SOL    HW218455   1.775  11.280   8.126  0.5072 -0.2745 -0.6709
37284SOL     OW18456   0.986   6.330   6.617  0.0518  0.1591  0.4563
37284SOL    HW118457   0.904   6.337   6.667 -0.5041 -0.4335 -0.3499
37284SOL    HW218458   1.015   6.240   6.632  1.2899  0.7557  1.8279
37285SOL     OW18459   9.300   1.743   0.629  0.1405 -0.3554 -0.2771
37285SOL    HW118460   9.349   1.812   0.585  1.1913 -0.2917  0.9460
37285SOL    HW218461   9.209   1.771   0.625  0.5901  1.3707  0.6250
37286SOL     OW18462   9.216   8.772   9.077 -0.3036  0.6002  0.4876
37286SOL    HW118463   9.223   8.764   9.172 -1.7149  0.4557  0.6095
37286SOL    HW218464   9.152   8.705   9.052  0.7833 -0.0503 -0.7100
37287SOL     OW18465   8.831   1.341  12.149  0.0345  0.8928  0.2949
37287SOL    HW118466   8.775   1.415  12.175  0.5610  1.5061 -0.2690
37287SOL    HW218467   8.911   1.353  12.200  0.3095  0.9938 -0.1508
37288SOL     OW18468   7.183   4.592   3.700 -0.4274 -0.3122 -0.2262
37288SOL    HW118469   7.169   4.555   3.612 -0.8367 -0.2171 -0.2007
37288SOL    HW218470   7.153   4.523   3.760  0.1554 -0.5062 -0.1529
37289SOL     OW18471  11.046   0.857   3.803 -0.3633  0.3021  0.5602
37289SOL    HW118472  11.057   0.794   3.732 -0.5064  2.2938 -1.3321
37289SOL    HW218473  11.003   0.807   3.873 -1.7422 -1.3693 -1.3617
37290SOL     OW18474   0.023  11.241   4.357 -0.1246 -0.2152  0.1111
37290SOL    HW118475  -0.034  11.165   4.353 -1.0559  0.3430  1.6688
37290SOL    HW218476  -0.034  11.315   4.338  0.3256  0.2452  0.5127
37291SOL     OW18477   6.346  10.099   4.986 -0.2344 -0.1382 -0.0233
37291SOL    HW118478   6.260  10.134   5.011 -0.4235 -0.0996 -0.6980
37291SOL    HW218479   6.336  10.075   4.894 -0.7888 -3.9749  0.8680
37292SOL     OW18480   5.585   0.447   0.310  0.0170  0.1378 -0.9798
37292SOL    HW118481   5.650   0.377   0.312  2.1087  1.9670  0.9221
37292SOL    HW218482   5.613   0.503   0.238 -0.3728  0.1594 -1.1173
37293SOL     OW18483   4.836   3.355   2.291  0.2993 -0.4857 -0.0137
37293SOL    HW118484   4.895   3.416   2.247  0.7850  0.0646  1.3514
37293SOL    HW218485   4.854   3.270   2.249  1.4731 -0.1744 -0.1792
37294SOL     OW18486  12.556  11.150   2.015 -0.5205  0.3165  0.4313
37294SOL    HW118487  12.509  11.182   1.938 -1.0185  0.7590  0.9154
37294SOL    HW218488  12.490  11.146   2.084 -0.6489 -2.3360  0.2716
37295SOL     OW18489   0.563   6.437   6.206  0.5170  0.1405 -0.1281
37295SOL    HW118490   0.580   6.529   6.225 -0.0165  0.0879  0.6470
37295SOL    HW218491   0.469   6.432   6.191  0.4458 -0.3745  0.4363
37296SOL     OW18492  10.554   4.466   2.758 -0.2471  0.0447 -0.5797
37296SOL    HW118493  10.633   4.439   2.806 -0.3693  0.4709 -0.1443
37296SOL    HW218494  10.571   4.437   2.668 -0.0388 -0.7919 -0.2809
37297SOL     OW18495   6.898   4.138   5.316  0.2450 -0.3340  1.2464
37297SOL    HW118496   6.891   4.200   5.243  0.8325 -0.6352  0.9281
37297SOL    HW218497   6.854   4.182   5.388 -0.6890 -0.1978  0.6095
37298SOL     OW18498   2.854   8.780   4.735  0.0248 -0.1979  0.5558
37298SOL    HW118499   2.937   8.770   4.688  1.1226 -0.8639  2.5071
37298SOL    HW218500   2.858   8.868   4.773 -1.4597  0.8762 -1.5933
37299SOL     OW18501   8.105   0.942  12.416 -0.1090 -0.1971  0.6256
37299SOL    HW118502   8.015   0.913  12.402  0.1881 -0.7148 -0.3049
37299SOL    HW218503   8.127   0.910  12.504  0.0782 -2.5316 -0.2051
37300SOL     OW18504   7.186   0.650   2.363 -0.7153 -0.6366  0.2301
37300SOL    HW118505   7.272   0.626   2.398  0.3767  0.1606 -1.7738
37300SOL    HW218506   7.155   0.571   2.318 -0.1716 -0.3588 -0.6419
37301SOL     OW18507   2.789   1.087  12.748  0.1677  0.1929 -0.0742
37301SOL    HW118508   2.809   1.177  12.774 -0.0657  0.3007 -0.2649
37301SOL    HW218509   2.785   1.039  12.831  0.1568  0.3858  0.0379
37302SOL     OW18510  11.816   4.941  11.467 -0.0903 -0.5954  0.0478
37302SOL    HW118511  11.886   4.879  11.447  0.6170  0.4492 -0.9033
37302SOL    HW218512  11.781   4.913  11.551  2.0486 -0.6656  0.9802
37303SOL     OW18513   1.939   5.167   2.714  0.2380 -0.5782  0.1048
37303SOL    HW118514   1.983   5.083   2.728 -0.4872 -0.6290  2.6002
37303SOL    HW218515   1.996   5.231   2.756 -0.1943 -0.0919 -0.0361
37304SOL     OW18516   8.958   3.360   2.088 -0.3298  0.3036  0.1318
37304SOL    HW118517   9.045   3.365   2.127 -1.1008 -2.0857  2.4477
37304SOL    HW218518   8.902   3.405   2.151 -1.0786 -0.1784 -0.1832
37305SOL     OW18519   7.592  10.368   5.020  0.1600 -0.2644 -0.0595
37305SOL    HW118520   7.522  10.416   5.064 -1.4980 -1.7711 -0.9200
37305SOL    HW218521   7.626  10.430   4.956  0.8948  1.0967  1.5657
37306SOL     OW18522   3.942   7.799   5.183 -0.5169 -0.5666  0.5765
37306SOL    HW118523   3.899   7.830   5.263 -0.8541 -3.8957  1.8452
37306SOL    HW218524   3.870   7.781   5.123 -0.2700  1.7745 -0.5447
37307SOL     OW18525   9.092   8.549  11.516 -0.2483  0.3687 -0.1588
37307SOL    HW118526   9.066   8.459  11.533  1.2787 -0.3165 -1.2469
37307SOL    HW218527   9.133   8.578  11.597 -0.0942 -0.1590 -0.0455
37308SOL     OW18528   3.070   7.216   3.535  0.0599  0.3210  0.8054
37308SOL    HW118529   3.094   7.280   3.469  0.7619 -1.1222 -0.4118
37308SOL    HW218530   3.071   7.132   3.488 -0.0785 -0.6729  2.4937
37309SOL     OW18531   4.035   7.335   0.592 -0.2504 -0.1299 -0.4419
37309SOL    HW118532   4.042   7.415   0.645  3.8061 -0.3039 -0.4107
37309SOL    HW218533   4.020   7.366   0.503 -0.4526  0.5663 -0.1687
37310SOL     OW18534   4.146   1.507   4.632  0.0015 -0.6889  0.2268
37310SOL    HW118535   4.062   1.552   4.626  0.9098  0.9371 -1.2402
37310SOL    HW218536   4.125   1.415   4.616 -1.5525 -0.3837  0.3727
37311SOL     OW18537   9.270   3.640   2.139  0.0516  0.1933 -0.0459
37311SOL    HW118538   9.247   3.548   2.134  0.4206  0.0272  1.1609
37311SOL    HW218539   9.198   3.681   2.186 -0.8309  0.8119 -1.8332
37312SOL     OW18540   1.369   6.663   9.294  0.5151  0.7435 -0.2282
37312SOL    HW118541   1.307   6.591   9.305 -0.3461  1.1312 -2.1344
37312SOL    HW218542   1.410   6.673   9.380  2.3259 -3.4673 -0.3698
37313SOL     OW18543   7.527   4.857   2.760  0.3010 -0.0093 -0.1069
37313SOL    HW118544   7.599   4.912   2.728  0.0704  0.9631  0.9611
37313SOL    HW218545   7.561   4.768   2.757  2.0974  0.5504  1.6828
37314SOL     OW18546  12.072  10.212   8.159 -0.5582 -0.2548  0.6681
37314SOL    HW118547  12.128  10.139   8.185  0.9255  0.8508  0.6734
37314SOL    HW218548  12.132  10.284   8.142 -1.9127  0.7040 -0.2888
37315SOL     OW18549   0.159  10.639   9.198 -0.4203 -0.5415 -0.6304
37315SOL    HW118550   0.253  10.623   9.206 -0.2624  0.4758 -0.3891
37315SOL    HW218551   0.137  10.696   9.271 -0.8664  0.7615 -1.7438
37316SOL     OW18552   3.971   7.510   6.253 -0.4150  1.1161 -0.5642
37316SOL    HW118553   4.031   7.521   6.179 -0.8003 -0.7822 -1.2236
37316SOL    HW218554   4.005   7.568   6.321  1.8277  0.5559 -1.1336
37317SOL     OW18555   7.854  11.056   6.624 -0.1111 -0.1368  0.1581
37317SOL    HW118556   7.829  10.986   6.564 -0.5629 -0.1891  0.4050
37317SOL    HW218557   7.826  11.026   6.711  3.4247 -1.5278  0.9575
37318SOL     OW18558   3.809   2.523  11.102 -0.1951 -0.5843  0.2569
37318SOL    HW118559   3.860   2.459  11.052  0.3179  1.0431 -1.4336
37318SOL    HW218560   3.784   2.478  11.182  1.6878 -2.2835 -0.0570
37319SOL     OW18561   1.134   3.622   6.604  0.1507 -0.6366  0.1068
37319SOL    HW118562   1.116   3.531   6.627 -0.6817 -0.3211  0.7987
37319SOL    HW218563   1.155   3.664   6.688 -1.3808  0.2024  0.1133
37320SOL     OW18564   1.238   3.358   8.878 -0.3244 -0.1796  0.1847
37320SOL    HW118565   1.216   3.419   8.948  2.2616  1.9656 -0.6967
37320SOL    HW218566   1.330   3.334   8.894  0.2450  0.0858 -2.2074
37321SOL     OW18567  12.044  10.418   5.532  0.1032 -0.1381  0.1384
37321SOL    HW118568  12.048  10.446   5.624 -0.1331  1.5541 -0.3345
37321SOL    HW218569  12.117  10.463   5.490  1.1083 -2.0151 -0.2809
37322SOL     OW18570   2.922   1.835   7.839  0.3002  0.8799 -0.2555
37322SOL    HW118571   2.929   1.743   7.812 -0.6173  0.5892  0.4161
37322SOL    HW218572   2.977   1.883   7.778  1.0115 -0.1551 -0.4462
37323SOL     OW18573  12.018   6.798   0.551 -0.1253  1.0500 -0.4042
37323SOL    HW118574  12.110   6.795   0.575 -0.3373  1.7852  0.5450
37323SOL    HW218575  11.976   6.735   0.609 -0.2961  1.0924 -0.4801
37324SOL     OW18576   8.464   8.197   2.369  0.0517 -0.3091  0.4035
37324SOL    HW118577   8.452   8.117   2.317 -0.4482 -0.8415  1.3129
37324SOL    HW218578   8.554   8.224   2.352 -0.4883  0.2938 -1.7739
37325SOL     OW18579   2.732   0.706   3.900 -0.4325 -0.6608  0.6591
37325SOL    HW118580   2.687   0.749   3.973  0.8546 -0.5389  1.4227
37325SOL    HW218581   2.817   0.751   3.895 -0.8483  0.0223 -1.5854
37326SOL     OW18582   9.497   1.807  10.066  0.1127 -0.0695 -0.0909
37326SOL    HW118583   9.495   1.830  10.159  0.0674 -1.9708  0.4292
37326SOL    HW218584   9.447   1.725  10.061 -1.2045  0.7866 -2.0558
37327SOL     OW18585   9.446  10.807   2.814  0.0870 -0.1680 -0.1318
37327SOL    HW118586   9.529  10.825   2.858  0.1098  2.3931 -1.0734
37327SOL    HW218587   9.470  10.752   2.740  0.9220  0.3938 -0.2860
37328SOL     OW18588   9.822   9.331   4.121 -0.0869 -0.0867 -0.8598
37328SOL    HW118589   9.901   9.298   4.164 -1.1317 -0.2138  1.0874
37328SOL    HW218590   9.773   9.375   4.191 -0.9769  1.4318 -2.3669
37329SOL     OW18591  12.355   9.927   4.825 -0.5024  0.0627 -0.2026
37329SOL    HW118592  12.327   9.928   4.733  1.9358 -2.2137 -1.0739
37329SOL    HW218593  12.277   9.900   4.873 -0.9686 -2.1085 -2.0263
37330SOL     OW18594   3.323   0.607   0.208  0.4518  0.1305 -0.0066
37330SOL    HW118595   3.329   0.551   0.285  1.0004  1.7838  1.2116
37330SOL    HW218596   3.231   0.601   0.181  0.1744 -0.2481  0.9585
37331SOL     OW18597   0.948   6.020   7.539 -0.0137  0.2224  0.3122
37331SOL    HW118598   1.034   6.060   7.527  0.1410  0.8999  2.9458
37331SOL    HW218599   0.912   6.063   7.617 -1.7032 -1.7387  0.7202
37332SOL     OW18600   9.262   0.050   4.156 -0.2060 -0.4986  0.0977
37332SOL    HW118601   9.239  -0.027   4.104 -0.2224 -1.7828  1.9146
37332SOL    HW218602   9.337   0.087   4.111 -1.0919 -0.6803 -1.6498
37333SOL     OW18603   2.380   8.808   8.728  0.0370  0.3753 -0.2887
37333SOL    HW118604   2.456   8.820   8.786  1.7737  0.1960 -2.4298
37333SOL    HW218605   2.417   8.786   8.643 -2.5084 -1.6605 -0.9865
37334SOL     OW18606   9.676   1.889   1.578  0.5799  0.1391  0.4877
37334SOL    HW118607   9.709   1.809   1.619 -0.5944 -0.9135 -0.5132
37334SOL    HW218608   9.639   1.940   1.650 -1.7589 -1.8121  0.8258
37335SOL     OW18609   9.872   1.265   4.210  0.1126  0.2031 -0.0076
37335SOL    HW118610   9.891   1.314   4.129 -2.0307 -0.3494 -0.9154
37335SOL    HW218611   9.828   1.328   4.266 -1.1009 -0.1842 -0.4959
37336SOL     OW18612   0.834   7.647   2.463 -0.1620  0.4186  0.4992
37336SOL    HW118613   0.806   7.738   2.471  1.4934  1.2000 -1.5035
37336SOL    HW218614   0.926   7.648   2.489  0.2650 -0.3640 -0.8504
37337SOL     OW18615   2.246   6.194   2.963 -0.0357 -0.0849 -0.1863
37337SOL    HW118616   2.300   6.143   3.024 -0.5402  0.5268  0.8042
37337SOL    HW218617   2.303   6.211   2.889  0.9363  0.0040  0.5555
37338SOL     OW18618   2.838   8.750   8.325  0.3630  0.0636  0.0709
37338SOL    HW118619   2.917   8.750   8.272 -0.2474 -1.5994 -0.8856
37338SOL    HW218620   2.854   8.685   8.393  1.1755  2.2334  2.1143
37339SOL     OW18621   7.989  10.671   8.601  0.2246 -0.0249 -0.5650
37339SOL    HW118622   7.992  10.766   8.586 -1.1203 -0.0059 -0.8852
37339SOL    HW218623   7.915  10.660   8.662 -0.0700 -0.9240 -1.0805
37340SOL     OW18624   6.018   7.115  12.009  0.3648  0.3995  0.0507
37340SOL    HW118625   6.092   7.079  12.058 -0.1253 -0.1061  0.4310
37340SOL    HW218626   5.970   7.038  11.977  0.0768  0.7216 -0.3113
37341SOL     OW18627   7.495  12.522   0.640 -0.2656 -0.2362 -0.5887
37341SOL    HW118628   7.419  12.494   0.690  0.4745 -0.3129  0.5376
37341SOL    HW218629   7.528  12.598   0.688  0.9386 -0.8006 -0.4906
37342SOL     OW18630   5.775  11.754   5.310  0.2448  0.2064 -0.3141
37342SOL    HW118631   5.737  11.685   5.364 -0.4701  2.3459  2.1421
37342SOL    HW218632   5.712  11.764   5.238  0.0666 -1.2681 -0.3972
37343SOL     OW18633  12.054   9.204   3.978 -1.1693 -0.0736 -0.8637
37343SOL    HW118634  12.139   9.241   3.953 -0.1583  0.1287  2.4689
37343SOL    HW218635  12.033   9.144   3.906  1.7170  0.0080 -1.9219
37344SOL     OW18636   7.448   3.400   5.653 -0.5717 -0.1664  0.0713
37344SOL    HW118637   7.456   3.398   5.557 -0.1188  0.4251  0.0869
37344SOL    HW218638   7.468   3.491   5.676 -1.6832 -0.0589  0.6459
37345SOL     OW18639   1.216   6.182   6.817  0.2042 -0.2066  0.3591
37345SOL    HW118640   1.140   6.123   6.825 -1.9425  2.2596 -0.3171
37345SOL    HW218641   1.221   6.199   6.723 -0.4131  2.0234  0.6820
37346SOL     OW18642   8.933   3.179   3.236 -0.3647 -0.2804 -0.2040
37346SOL    HW118643   8.992   3.174   3.311 -3.6381 -0.2412  2.6273
37346SOL    HW218644   8.989   3.165   3.160  2.8615 -2.5442  2.3230
37347SOL     OW18645   3.189   9.823   0.243 -0.2193  0.9419  0.2666
37347SOL    HW118646   3.094   9.827   0.255 -0.2407  0.3263  0.3277
37347SOL    HW218647   3.217   9.751   0.299 -0.0367 -0.6089 -1.7002
37348SOL     OW18648  10.603   1.744   3.982  0.0334  0.2032 -0.4860
37348SOL    HW118649  10.630   1.768   3.893  1.1029 -0.9526 -0.5045
37348SOL    HW218650  10.678   1.696   4.018  0.4707  2.3882  1.8331
37349SOL     OW18651  10.836   2.085   3.540  0.7558  0.2163 -0.4288
37349SOL    HW118652  10.918   2.130   3.518  0.7600  0.0535 -0.7541
37349SOL    HW218653  10.844   1.998   3.501  1.0006 -0.2951  0.7186
37350SOL     OW18654   9.973   0.333  12.480  0.0490  0.3167  0.4739
37350SOL    HW118655   9.962   0.274  12.555 -0.0103  1.2461  1.2277
37350SOL    HW218656  10.039   0.291  12.426  0.9626  0.1596  1.6516
37351SOL     OW18657   9.442   7.404   4.552  0.5538  0.2674  0.2436
37351SOL    HW118658   9.486   7.475   4.506 -0.5957 -0.6210 -2.4372
37351SOL    HW218659   9.352   7.407   4.519 -0.0729 -1.0978  1.7220
37352SOL     OW18660  11.247   7.850   9.635  0.2192  0.0593 -0.5177
37352SOL    HW118661  11.234   7.757   9.618  0.2125 -0.0572  0.0778
37352SOL    HW218662  11.277   7.853   9.726 -2.9960  0.8644  0.6454
37353SOL     OW18663   5.716   0.605   0.959 -0.3579  0.1200  0.0040
37353SOL    HW118664   5.719   0.700   0.949 -1.4148  0.0300 -1.3730
37353SOL    HW218665   5.623   0.583   0.961 -0.1268 -0.9211 -0.0658
37354SOL     OW18666  10.098  12.063   5.475 -0.6677  0.4714  0.0946
37354SOL    HW118667  10.044  12.141   5.468 -1.4215 -0.1414 -1.1809
37354SOL    HW218668  10.050  11.995   5.428  1.1978 -0.0939 -1.1253
37355SOL     OW18669   8.098   6.282  11.264 -0.3829  0.3394  0.1107
37355SOL    HW118670   8.091   6.195  11.225 -0.3843  0.4549 -0.1485
37355SOL    HW218671   8.118   6.265  11.356 -0.7753  0.0611  0.1448
37356SOL     OW18672   3.211   3.419   4.938 -0.1447  0.1922 -0.0136
37356SOL    HW118673   3.238   3.483   5.005 -0.8089 -0.9269  1.3854
37356SOL    HW218674   3.208   3.469   4.857 -0.0455  1.7988  0.9270
37357SOL     OW18675   8.576  10.951  12.117 -0.0281 -0.5460  0.5165
37357SOL    HW118676   8.589  10.906  12.033 -0.5326  1.0386 -0.4576
37357SOL    HW218677   8.661  10.990  12.136 -0.6830  1.8328 -0.9918
37358SOL     OW18678   3.315   8.695  11.198 -0.1060  0.3847  0.6413
37358SOL    HW118679   3.258   8.624  11.227 -0.5577  0.9690  1.2168
37358SOL    HW218680   3.256   8.755  11.152  0.4201 -0.0282 -0.6281
37359SOL     OW18681   3.986   4.791   0.781 -0.2681 -0.2665  0.3623
37359SOL    HW118682   3.981   4.702   0.747  1.8404  0.2542 -1.5574
37359SOL    HW218683   4.053   4.786   0.850 -0.3201 -0.2066  0.4174
37360SOL     OW18684   5.890   7.023   5.194 -0.1155  0.4320 -0.1496
37360SOL    HW118685   5.985   7.038   5.199 -0.0435 -0.2339  0.8652
37360SOL    HW218686   5.862   7.070   5.116  1.4941 -1.5499 -2.0458
37361SOL     OW18687   7.171   0.959   9.070 -0.0300  0.1238  0.0154
37361SOL    HW118688   7.224   0.883   9.045  1.9548  0.5528  2.5231
37361SOL    HW218689   7.086   0.943   9.029  1.1788 -1.9969 -1.8931
37362SOL     OW18690   4.816   7.462  10.436 -0.1862  0.8803 -0.1377
37362SOL    HW118691   4.729   7.440  10.469 -0.7915  2.2594 -0.7500
37362SOL    HW218692   4.839   7.389  10.379 -0.6130  0.1526  0.5918
37363SOL     OW18693   2.416   5.937   1.137  0.2267 -0.3946  0.1450
37363SOL    HW118694   2.473   6.008   1.165  0.2940 -0.5371  0.3811
37363SOL    HW218695   2.458   5.900   1.059 -0.0660  0.1373 -0.2670
37364SOL     OW18696  10.468   5.101  11.592  0.5353 -0.2192 -0.2302
37364SOL    HW118697  10.406   5.054  11.648  0.2681  0.3619 -0.0342
37364SOL    HW218698  10.539   5.126  11.651  1.2217 -1.3318 -0.5556
37365SOL     OW18699   9.288   4.412   2.877  0.0652 -0.0626  0.1512
37365SOL    HW118700   9.198   4.396   2.849 -0.1690  0.4909  0.5566
37365SOL    HW218701   9.311   4.336   2.930  0.0970 -0.5501 -0.5544
37366SOL     OW18702   6.695   0.237   2.613 -0.0414 -0.0911 -0.3292
37366SOL    HW118703   6.600   0.225   2.616 -0.0570  0.1632  0.4232
37366SOL    HW218704   6.711   0.285   2.532 -0.9290  2.9270  1.1493
37367SOL     OW18705   1.313  10.317  10.814 -0.3873 -0.5534  0.3191
37367SOL    HW118706   1.330  10.365  10.895  0.7529  0.8417 -0.6995
37367SOL    HW218707   1.234  10.267  10.832 -2.9598  3.3046  0.8123
37368SOL     OW18708  12.722   7.537  10.586  0.4514 -0.0904  0.2142
37368SOL    HW118709  12.669   7.589  10.525  0.9690 -0.4293 -0.5321
37368SOL    HW218710  12.806   7.526  10.542 -0.3670 -3.6223 -0.7981
37369SOL     OW18711   5.777   6.502   5.750 -0.4309  0.0692  0.2610
37369SOL    HW118712   5.682   6.517   5.755 -0.2501  1.6504 -0.4668
37369SOL    HW218713   5.814   6.564   5.812  0.2062  0.5201 -0.5553
37370SOL     OW18714   3.018   1.983  12.783 -0.4312  0.2803  0.2011
37370SOL    HW118715   3.013   2.056  12.721 -0.2579 -0.3652 -0.6003
37370SOL    HW218716   2.934   1.986  12.830 -1.0056  0.1929 -0.7731
37371SOL     OW18717   1.828   9.466   7.938 -0.4840  0.8389  0.0544
37371SOL    HW118718   1.821   9.549   7.890  0.1669  0.1389 -1.3107
37371SOL    HW218719   1.744   9.423   7.923 -0.4026  0.7631 -0.1905
37372SOL     OW18720   0.721  10.173   9.408  0.0344  0.8636  0.0850
37372SOL    HW118721   0.718  10.256   9.361 -3.3022  0.7149 -0.1988
37372SOL    HW218722   0.669  10.113   9.355 -0.4473 -0.4430  1.9243
37373SOL     OW18723  12.457   6.569   9.156 -0.8978  0.3797 -0.2030
37373SOL    HW118724  12.546   6.589   9.126 -0.6501  1.2746  1.0692
37373SOL    HW218725  12.436   6.639   9.218 -1.2144 -1.5367  2.0044
37374SOL     OW18726   8.665  11.325  12.398 -0.4620 -0.2378  0.2810
37374SOL    HW118727   8.597  11.314  12.331 -0.9813  0.9420  0.5807
37374SOL    HW218728   8.621  11.372  12.469  0.7985  1.1214  0.2247
37375SOL     OW18729   3.710   8.013   3.927  0.7912 -0.0415  0.2357
37375SOL    HW118730   3.772   7.940   3.920  0.1878 -0.4188 -2.0428
37375SOL    HW218731   3.654   7.990   4.001  1.6352 -1.0668  0.5881
37376SOL     OW18732   0.356   9.608   3.061 -0.1994 -0.1875 -0.2790
37376SOL    HW118733   0.329   9.685   3.012 -0.5423  1.5900  2.4629
37376SOL    HW218734   0.448   9.594   3.038 -0.6804 -0.2245 -2.2871
37377SOL     OW18735   7.522   3.692   1.589 -0.2232 -0.2957  0.8249
37377SOL    HW118736   7.554   3.723   1.674 -0.1141 -0.3882  0.8181
37377SOL    HW218737   7.514   3.772   1.536 -1.2157 -0.1206  1.2180
37378SOL     OW18738   9.098  10.813   2.684 -0.2793  0.3247  0.0712
37378SOL    HW118739   9.138  10.862   2.757  0.0315  0.5003 -0.2136
37378SOL    HW218740   9.016  10.859   2.666  0.3589  1.2078 -0.6873
37379SOL     OW18741   5.449  10.063  12.766 -0.5687 -0.0044  0.3865
37379SOL    HW118742   5.382   9.997  12.785 -1.8967  1.3405  0.5800
37379SOL    HW218743   5.525  10.013  12.739 -2.6371 -1.5827 -3.1621
37380SOL     OW18744   6.357   1.392  11.697 -0.2660  0.1515 -0.0942
37380SOL    HW118745   6.279   1.351  11.734 -0.4092 -0.1916 -0.7530
37380SOL    HW218746   6.400   1.321  11.648  0.1143  0.4953 -0.2672
37381SOL     OW18747   0.480   5.759   7.785 -0.7136  0.3402  0.3096
37381SOL    HW118748   0.455   5.713   7.705 -0.4794 -0.0945  0.4785
37381SOL    HW218749   0.563   5.718   7.811 -0.5962  0.7382  0.5645
37382SOL     OW18750  12.640   6.920   5.202 -0.8539 -0.3700 -0.3457
37382SOL    HW118751  12.652   6.968   5.120  0.4121  0.1103  0.0922
37382SOL    HW218752  12.559   6.955   5.238 -0.1370  1.2296 -0.2043
37383SOL     OW18753  12.139  10.409   1.832  0.2210 -0.0536  0.0439
37383SOL    HW118754  12.163  10.347   1.901  0.4266  0.6017  0.5758
37383SOL    HW218755  12.222  10.445   1.801  0.1044 -0.0491 -0.2679
37384SOL     OW18756   4.448   5.582   0.386 -0.5451  0.3227 -0.3190
37384SOL    HW118757   4.385   5.638   0.431 -1.8174  0.4587 -2.1494
37384SOL    HW218758   4.431   5.494   0.420  0.4375  0.7599  1.4503
37385SOL     OW18759   0.483   1.899   2.296  0.7347  0.1782  0.0167
37385SOL    HW118760   0.412   1.881   2.358 -0.0691  1.2758 -0.5452
37385SOL    HW218761   0.519   1.814   2.275  0.4659 -0.2868  1.3557
37386SOL     OW18762   6.290   5.722   5.829  0.4000 -0.0100  0.0008
37386SOL    HW118763   6.275   5.812   5.802  0.0428  0.1902  0.8368
37386SOL    HW218764   6.214   5.674   5.797  2.1555 -0.7669 -3.5653
37387SOL     OW18765   1.646   7.681  10.800  0.5389  0.7498 -0.2225
37387SOL    HW118766   1.715   7.674  10.734  1.1482 -0.4787  0.5176
37387SOL    HW218767   1.669   7.759  10.851  1.6381  0.1125  0.2860
37388SOL     OW18768   3.671   6.687   2.044  0.5138 -0.1044  0.3106
37388SOL    HW118769   3.697   6.604   2.083  0.2620 -0.1563  0.3662
37388SOL    HW218770   3.577   6.695   2.063  0.3265 -0.2608 -0.5183
37389SOL     OW18771   0.485   3.260  10.976  0.6684  0.1632  0.3140
37389SOL    HW118772   0.443   3.174  10.965  0.0078  0.6658 -1.4738
37389SOL    HW218773   0.531   3.274  10.893  1.9783  0.9157  1.1473
37390SOL     OW18774  11.491   1.038   6.237 -0.1350 -0.6399  0.8212
37390SOL    HW118775  11.568   0.982   6.233 -0.1124 -0.5485 -0.7299
37390SOL    HW218776  11.511   1.110   6.177 -2.2422 -1.7548 -1.4281
37391SOL     OW18777  11.356  12.255   2.654 -0.1139 -0.1217 -0.6051
37391SOL    HW118778  11.410  12.298   2.720 -0.3721  0.6217 -0.8782
37391SOL    HW218779  11.321  12.178   2.700 -0.9651  0.8328  0.4066
37392SOL     OW18780   1.231  10.266   6.026  0.5370 -0.4615  0.1491
37392SOL    HW118781   1.306  10.211   6.001  0.5181  0.0498 -1.1524
37392SOL    HW218782   1.255  10.304   6.110  3.1480  2.0229 -1.5045
37393SOL     OW18783   1.524   7.235   2.315 -0.4750 -0.1065 -0.7758
37393SOL    HW118784   1.554   7.239   2.224  0.6488 -2.1410 -0.5432
37393SOL    HW218785   1.594   7.190   2.362 -0.5858  1.7232  1.3268
37394SOL     OW18786   0.712   3.772   7.260  0.2124  0.4518 -0.2021
37394SOL    HW118787   0.707   3.763   7.355  1.6871 -0.6810 -0.2005
37394SOL    HW218788   0.631   3.817   7.236 -1.2697 -1.2159  1.3621
37395SOL     OW18789   9.687   4.065  10.152  0.5908 -0.1170  0.4498
37395SOL    HW118790   9.704   4.125  10.225  1.7771 -0.4315  0.4561
37395SOL    HW218791   9.611   4.102  10.107 -0.1957  0.0749  1.8493
37396SOL     OW18792  11.870   8.791   5.025  0.5711 -0.2840 -0.4076
37396SOL    HW118793  11.867   8.748   4.939 -1.2310  0.6184 -0.8396
37396SOL    HW218794  11.785   8.771   5.065  1.9287 -1.9630  1.8745
37397SOL     OW18795   0.735  10.759   7.357 -0.3690  0.2231 -0.4206
37397SOL    HW118796   0.801  10.762   7.426  0.3888  1.4093 -1.1746
37397SOL    HW218797   0.656  10.797   7.397 -0.0422  0.5713 -0.1062
37398SOL     OW18798  10.334  11.840   9.073 -0.3571  0.6354  0.0157
37398SOL    HW118799  10.340  11.773   9.141  0.7930  0.8807  0.1752
37398SOL    HW218800  10.306  11.792   8.994 -1.5807  0.3319  0.6149
37399SOL     OW18801   5.645   3.649   9.555 -0.3379 -0.2960 -0.7230
37399SOL    HW118802   5.592   3.590   9.501 -0.7175 -1.0429  0.4328
37399SOL    HW218803   5.607   3.736   9.540  0.6302 -0.1960 -2.9407
37400SOL     OW18804  12.549   3.681   7.716 -1.0004  0.8908 -0.0460
37400SOL    HW118805  12.518   3.769   7.697 -0.6338  1.3711  1.3861
37400SOL    HW218806  12.528   3.668   7.809  0.9785  0.3778  0.3833
37401SOL     OW18807   0.710   7.952   4.001 -0.3852 -0.2697 -0.3921
37401SOL    HW118808   0.691   8.043   3.978 -0.9535 -0.1695  0.3998
37401SOL    HW218809   0.711   7.951   4.097 -0.5051 -1.1145 -0.3846
37402SOL     OW18810   8.843   7.450  10.992 -0.0949 -0.3991 -0.3530
37402SOL    HW118811   8.866   7.542  10.987  0.3561 -0.4917 -0.0125
37402SOL    HW218812   8.779   7.445  11.064  2.6225 -0.8623  2.2229
37403SOL     OW18813   8.905   1.220   9.340 -0.1860  0.0519 -0.1839
37403SOL    HW118814   8.974   1.171   9.383 -0.2653 -0.4360 -0.6054
37403SOL    HW218815   8.939   1.239   9.253  0.1938  1.5107  0.2477
37404SOL     OW18816  11.159   2.168   9.163  0.0306 -0.2943 -0.1825
37404SOL    HW118817  11.202   2.194   9.245 -0.9170 -0.0796  0.2518
37404SOL    HW218818  11.069   2.199   9.171 -0.4264 -1.4028 -0.7680
37405SOL     OW18819   2.436   8.929   4.207 -0.4239 -0.4521  0.1443
37405SOL    HW118820   2.353   8.958   4.168 -0.6517 -2.1713 -0.7583
37405SOL    HW218821   2.416   8.920   4.301 -0.3827  1.9607  0.4563
37406SOL     OW18822  10.126  12.075  11.891  0.3436 -0.4769  0.4216
37406SOL    HW118823  10.044  12.116  11.918 -0.2291 -0.9989 -0.4717
37406SOL    HW218824  10.117  11.984  11.922  0.5523 -0.5516  0.2584
37407SOL     OW18825   7.616   2.277   8.917  0.2209  0.1855 -0.0470
37407SOL    HW118826   7.591   2.325   8.995 -1.2354  0.5757 -0.7242
37407SOL    HW218827   7.709   2.298   8.905  0.6579 -0.4274  1.9305
37408SOL     OW18828   0.038   2.996   1.867  0.6773  0.1751 -0.9187
37408SOL    HW118829   0.022   2.902   1.868 -3.4258  0.7095 -0.1484
37408SOL    HW218830  -0.015   3.029   1.795  2.0632  1.9762 -1.2064
37409SOL     OW18831   4.458   3.030   0.455  1.0078 -0.3007  0.0638
37409SOL    HW118832   4.520   3.046   0.527  2.1950 -0.5346 -0.8687
37409SOL    HW218833   4.512   3.034   0.376 -0.0908 -1.0236 -0.7516
37410SOL     OW18834   7.226   8.720   6.935 -0.4726 -0.3495  0.2653
37410SOL    HW118835   7.207   8.770   7.015  0.6448  0.3217  0.1365
37410SOL    HW218836   7.205   8.630   6.958  2.0393 -0.5710  2.1654
37411SOL     OW18837   9.587   8.630   8.271  0.7142 -0.7852  0.4143
37411SOL    HW118838   9.511   8.677   8.307  1.2657  1.9132 -1.5765
37411SOL    HW218839   9.609   8.565   8.337 -1.9610 -0.1924  2.0556
37412SOL     OW18840   3.839  10.000   7.663 -0.5878  0.0324 -0.3826
37412SOL    HW118841   3.807  10.073   7.611 -0.6216  0.5479  0.3395
37412SOL    HW218842   3.866   9.934   7.599  1.6598  1.5682 -1.1571
37413SOL     OW18843   6.024   8.815   2.288 -0.3616 -0.3139 -0.3858
37413SOL    HW118844   6.083   8.888   2.307 -1.7621  0.9468 -0.7460
37413SOL    HW218845   5.955   8.822   2.354 -0.0916 -1.8681  0.1225
37414SOL     OW18846   6.000   4.206   1.353  0.5341 -0.6476 -0.1179
37414SOL    HW118847   5.962   4.289   1.382  1.5475  0.6705 -2.3231
37414SOL    HW218848   6.047   4.173   1.430 -2.4587 -0.8785  1.8001
37415SOL     OW18849   8.882   4.578   0.199  0.4551 -0.6267 -0.0558
37415SOL    HW118850   8.819   4.645   0.170 -0.8844 -0.5485  2.6910
37415SOL    HW218851   8.931   4.556   0.120 -2.1199  0.2904 -2.0723
37416SOL     OW18852   4.481   8.374   0.715 -0.2178 -0.3274  0.2093
37416SOL    HW118853   4.481   8.300   0.653 -0.0821 -0.6957  0.6424
37416SOL    HW218854   4.553   8.430   0.685 -0.5895 -0.1504 -0.3745
37417SOL     OW18855   6.399   2.366   5.530  0.3255  0.1626 -0.2725
37417SOL    HW118856   6.347   2.435   5.490  0.1234  0.3442  0.2901
37417SOL    HW218857   6.438   2.319   5.457 -2.2106 -1.2445 -0.8393
37418SOL     OW18858  11.673   7.342   4.369  0.2738 -0.9892  0.3717
37418SOL    HW118859  11.596   7.312   4.417  0.6174  1.6283  2.8470
37418SOL    HW218860  11.639   7.365   4.282 -2.3870  2.0032  1.9644
37419SOL     OW18861  11.228   8.627   2.005  0.3305  0.6259  0.8190
37419SOL    HW118862  11.319   8.655   2.011  0.6341 -0.2564  0.4775
37419SOL    HW218863  11.181   8.685   2.065  0.9950  1.5606  0.4523
37420SOL     OW18864   1.101  11.555   3.168 -0.3852 -0.1738 -0.2601
37420SOL    HW118865   1.188  11.558   3.129  0.7070  0.9494  2.0755
37420SOL    HW218866   1.062  11.475   3.133  2.4282 -1.9054  0.2516
37421SOL     OW18867  12.276   2.997   9.999  0.1575 -0.1478 -0.2635
37421SOL    HW118868  12.360   3.011  10.043 -0.2250 -1.0767  0.8110
37421SOL    HW218869  12.219   3.066  10.035  0.0674 -0.4095  0.1033
37422SOL     OW18870   4.040  10.150   1.203  0.1652 -0.3988  0.1610
37422SOL    HW118871   4.103  10.083   1.231  0.7941  0.5702  1.1641
37422SOL    HW218872   4.063  10.227   1.256 -2.0356 -0.0800  0.7405
37423SOL     OW18873   2.264   1.276   2.908  0.1781 -0.0988 -0.4532
37423SOL    HW118874   2.280   1.337   2.837  1.3491  0.0907 -0.0461
37423SOL    HW218875   2.336   1.214   2.904  2.7572  2.2884  3.0151
37424SOL     OW18876   6.892   0.979  12.237 -0.3251  0.4719  0.1368
37424SOL    HW118877   6.816   0.925  12.260 -0.9977  1.4704  0.3130
37424SOL    HW218878   6.910   0.957  12.146  0.8866 -1.7705  0.8221
37425SOL     OW18879  12.417   0.255   2.657 -0.4298 -0.8965 -0.6614
37425SOL    HW118880  12.477   0.316   2.613 -1.1055  0.7695  0.6383
37425SOL    HW218881  12.360   0.223   2.587 -0.4025  0.3919 -1.3095
37426SOL     OW18882   6.514   7.442   1.172  0.3234  0.1289  0.3568
37426SOL    HW118883   6.470   7.524   1.193  0.6006  0.0823  1.1303
37426SOL    HW218884   6.562   7.418   1.251  0.6014 -0.5561 -0.0020
37427SOL     OW18885   8.786   7.762   1.398 -0.6314 -0.0625  0.5509
37427SOL    HW118886   8.863   7.733   1.447  0.5445  0.8937 -0.6519
37427SOL    HW218887   8.786   7.857   1.408 -1.6700 -0.0546  0.5467
37428SOL     OW18888   5.517   0.228   7.828 -0.4372 -0.8552  0.1467
37428SOL    HW118889   5.475   0.295   7.774 -0.0092 -0.7900 -0.1097
37428SOL    HW218890   5.574   0.277   7.887  0.8394 -1.0495 -0.8821
37429SOL     OW18891  11.842   3.137  10.275  0.2250  0.3255  0.1139
37429SOL    HW118892  11.817   3.099  10.191  1.0575 -0.0124  0.0072
37429SOL    HW218893  11.761   3.175  10.309 -0.7775 -1.9709  0.4767
37430SOL     OW18894   7.520   3.994   3.530 -0.1428  0.3932  1.0684
37430SOL    HW118895   7.449   4.017   3.471  0.0700  2.7327  1.6256
37430SOL    HW218896   7.581   3.943   3.476 -1.0365  0.5071 -0.0835
37431SOL     OW18897  12.282   7.321   3.892 -0.1554  0.1700  0.6095
37431SOL    HW118898  12.269   7.227   3.877 -0.4561  0.3445 -0.2442
37431SOL    HW218899  12.374   7.337   3.872  0.5622 -0.3626  3.0547
37432SOL     OW18900   4.977   8.006  12.213  0.2033  0.2456  0.2836
37432SOL    HW118901   4.904   7.983  12.270  0.8938 -0.7852  0.7652
37432SOL    HW218902   5.028   7.926  12.204 -0.1679  0.1957 -2.2400
37433SOL     OW18903   0.010  12.262   0.222  0.4599 -0.2597  0.0530
37433SOL    HW118904   0.086  12.318   0.234 -0.3751  0.8933  0.1586
37433SOL    HW218905  -0.007  12.226   0.310  0.9714 -0.6496 -0.0057
37434SOL     OW18906   1.533   1.038   9.575 -0.2570 -0.6592 -0.1762
37434SOL    HW118907   1.450   1.079   9.550 -0.5246 -1.6309 -0.9240
37434SOL    HW218908   1.508   0.969   9.637  0.0549 -0.5619  0.0600
37435SOL     OW18909  12.029   3.474   3.595  0.5215  0.1045 -0.2985
37435SOL    HW118910  12.078   3.395   3.618  2.2705  0.7167 -1.6707
37435SOL    HW218911  11.969   3.446   3.526  0.6000 -0.1741 -0.2549
37436SOL     OW18912   5.587   7.686  11.629 -0.0453  0.4813  0.1981
37436SOL    HW118913   5.525   7.667  11.558  0.9381  1.6251 -1.0191
37436SOL    HW218914   5.610   7.600  11.665 -1.9451  0.0007  0.3699
37437SOL     OW18915   2.959   0.271   8.265  0.0021 -0.4725 -0.1577
37437SOL    HW118916   2.962   0.176   8.260 -1.8300 -0.5054 -2.2238
37437SOL    HW218917   2.877   0.290   8.312 -0.1767  0.0597 -0.6682
37438SOL     OW18918   4.549   4.468   2.764  0.2208  0.2249 -0.1282
37438SOL    HW118919   4.581   4.558   2.759 -0.2645  0.3661 -0.9610
37438SOL    HW218920   4.575   4.429   2.681  1.0875 -0.6439  0.5318
37439SOL     OW18921   6.137   5.088   4.681 -0.3732 -0.0945 -0.6465
37439SOL    HW118922   6.083   5.037   4.620  0.6793 -1.8856 -0.1439
37439SOL    HW218923   6.220   5.099   4.636 -0.1040 -0.1031 -0.1542
37440SOL     OW18924  10.670   5.361   0.891  0.4561  0.7418  0.0363
37440SOL    HW118925  10.617   5.375   0.970  0.5308  4.2457 -0.3663
37440SOL    HW218926  10.754   5.330   0.923 -0.3115 -0.3584  1.0743
37441SOL     OW18927   1.005   1.090   3.626  0.6314  0.0446 -0.3031
37441SOL    HW118928   0.968   1.162   3.575 -0.2460 -0.4797 -0.4377
37441SOL    HW218929   1.046   1.132   3.702 -0.1370  0.6737 -0.2240
37442SOL     OW18930   3.681   5.073   1.258 -0.3086  0.3389  0.1560
37442SOL    HW118931   3.635   4.995   1.288  0.1386  0.2157  0.5399
37442SOL    HW218932   3.774   5.051   1.267 -0.1716  0.6052 -0.5417
37443SOL     OW18933  11.771   0.681   4.739 -0.0466  0.5477  0.0166
37443SOL    HW118934  11.845   0.680   4.800  1.1190  0.7393 -1.3183
37443SOL    HW218935  11.756   0.774   4.721 -0.7375  0.5173  0.4124
37444SOL     OW18936   1.012   0.680   0.843  0.6770  0.3491  0.2874
37444SOL    HW118937   0.951   0.606   0.844  1.4252 -0.3220 -1.1114
37444SOL    HW218938   0.995   0.726   0.926 -0.9438 -0.4358  0.4297
37445SOL     OW18939  12.690  12.730   1.146  0.0718  0.0076  0.2084
37445SOL    HW118940  12.690  12.772   1.060  1.3347  0.3011  0.3302
37445SOL    HW218941  12.662  12.799   1.206  1.5890  0.5531  0.3328
37446SOL     OW18942   5.817   8.587  11.926 -0.7666  0.6054  0.8209
37446SOL    HW118943   5.770   8.659  11.967 -0.4450  2.0250 -1.1704
37446SOL    HW218944   5.875   8.554  11.996 -2.9497  0.3145  2.6163
37447SOL     OW18945   2.139   0.176   8.075  0.0978  0.7571 -0.3971
37447SOL    HW118946   2.052   0.136   8.084  0.3456  0.2004 -0.4765
37447SOL    HW218947   2.183   0.124   8.009  0.9525  0.2451  0.5488
37448SOL     OW18948   7.488   8.357   0.607  0.2028  0.3049 -0.1252
37448SOL    HW118949   7.542   8.284   0.576  0.3032 -0.3625  1.5233
37448SOL    HW218950   7.411   8.314   0.645  0.5065  1.0187  1.3450
37449SOL     OW18951   5.762   6.990   2.313 -0.2231 -0.3126 -0.3235
37449SOL    HW118952   5.682   6.994   2.365 -0.3602  1.3947 -0.6178
37449SOL    HW218953   5.731   6.987   2.222  0.0226  0.9788 -0.4662
37450SOL     OW18954   1.311   8.896   9.293  0.0521  0.5630 -0.5364
37450SOL    HW118955   1.242   8.899   9.359  0.5552 -0.6339  0.0729
37450SOL    HW218956   1.343   8.986   9.287 -0.4933  0.8246  0.3102
37451SOL     OW18957  10.183   8.129   5.948 -0.3959 -0.3351 -0.1917
37451SOL    HW118958  10.109   8.109   6.004 -0.0453 -0.5561  0.1973
37451SOL    HW218959  10.203   8.221   5.965 -0.4980 -0.3101 -0.2067
37452SOL     OW18960   1.330   0.155   7.927  0.3844  0.1618 -0.0797
37452SOL    HW118961   1.283   0.075   7.900  1.7633 -0.1919 -1.6056
37452SOL    HW218962   1.301   0.221   7.864  0.3534  0.4777  0.2683
37453SOL     OW18963   9.958   8.049   6.120  0.0149 -0.5018  0.6481
37453SOL    HW118964   9.921   7.963   6.101  1.2274 -0.5460 -1.8284
37453SOL    HW218965   9.919   8.108   6.055  1.7861  0.0884  0.0699
37454SOL     OW18966   1.261   9.252   2.746  0.4416  0.0127  0.0853
37454SOL    HW118967   1.276   9.274   2.654  0.6596 -1.4394 -0.2458
37454SOL    HW218968   1.347   9.263   2.787  0.3383  0.6893  0.1379
37455SOL     OW18969   9.061   6.895   8.157 -0.4804 -0.5703  0.1543
37455SOL    HW118970   9.128   6.862   8.098 -1.1659 -0.2651 -0.8107
37455SOL    HW218971   9.082   6.855   8.242  2.4111  1.4971  0.5245
37456SOL     OW18972   6.881   6.758   3.287 -0.1992 -0.0372  0.0804
37456SOL    HW118973   6.887   6.670   3.322 -2.2726 -0.0222  0.5949
37456SOL    HW218974   6.848   6.746   3.197 -0.4978  0.1879  0.1552
37457SOL     OW18975   8.236  11.775   4.666  0.3774  0.0319  0.1727
37457SOL    HW118976   8.142  11.785   4.682  0.2958 -0.0386 -0.2426
37457SOL    HW218977   8.265  11.712   4.731 -0.3551 -1.8692 -1.2539
37458SOL     OW18978   6.186   2.968   3.604  0.0236  0.3957 -0.3988
37458SOL    HW118979   6.240   3.046   3.601  1.7576 -0.5940  2.0782
37458SOL    HW218980   6.152   2.965   3.693 -1.0796 -0.9779 -0.8263
37459SOL     OW18981  10.425   0.221   2.485 -0.2636  0.9146  0.2879
37459SOL    HW118982  10.408   0.203   2.392 -0.1750 -1.7811  0.7187
37459SOL    HW218983  10.340   0.215   2.527 -0.0168 -0.1668  0.6733
37460SOL     OW18984   0.835   0.507   4.590 -0.1205 -0.0480  0.2293
37460SOL    HW118985   0.879   0.576   4.541 -0.0597 -1.0486 -1.1749
37460SOL    HW218986   0.886   0.498   4.671  0.7468  0.5352 -0.2474
37461SOL     OW18987   1.442   6.015  10.059  0.7860 -0.6193 -0.2195
37461SOL    HW118988   1.484   6.093  10.097  0.7358 -0.3092 -0.7887
37461SOL    HW218989   1.356   6.045  10.031  1.1520 -0.6006 -1.4041
37462SOL     OW18990   1.285   7.608  11.800 -0.2479 -0.0089  0.0451
37462SOL    HW118991   1.275   7.656  11.882 -1.3912  1.1620 -0.7493
37462SOL    HW218992   1.221   7.647  11.741 -0.5737 -1.8845 -0.9370
37463SOL     OW18993   1.459   7.858   3.005  0.6425  0.2089  0.0866
37463SOL    HW118994   1.368   7.845   3.034 -0.1282 -0.2647 -2.3086
37463SOL    HW218995   1.475   7.951   3.021 -0.4569  0.4203  0.0833
37464SOL     OW18996   2.218   9.474  11.029  0.4437  0.1911  0.1757
37464SOL    HW118997   2.206   9.500  11.121 -0.0519 -0.3131  0.2577
37464SOL    HW218998   2.130   9.463  10.995  0.6188 -0.8178 -0.0069
37465SOL     OW18999   9.077   2.781  11.983 -0.1400  0.6326  0.0197
37465SOL    HW119000   9.006   2.726  11.949  2.1257 -1.8545 -1.0280
37465SOL    HW219001   9.079   2.762  12.077 -0.0136 -0.3762 -0.1709
37466SOL     OW19002  11.348   8.501  11.318 -0.4606 -0.3168  0.2025
37466SOL    HW119003  11.390   8.584  11.293  0.1636 -0.5585  0.4127
37466SOL    HW219004  11.257   8.524  11.332 -0.3356  0.3010  0.0790
37467SOL     OW19005  11.016   8.512   0.128  0.5540  0.3800 -0.0259
37467SOL    HW119006  11.045   8.561   0.051  2.4899  0.6989  0.8380
37467SOL    HW219007  10.994   8.425   0.094  2.9507 -0.0007 -0.7834
37468SOL     OW19008   7.406   4.037  11.335 -0.1593 -0.0047  0.3754
37468SOL    HW119009   7.469   3.982  11.288 -1.8713 -1.6426 -0.1195
37468SOL    HW219010   7.330   3.980  11.349 -0.5624  1.0694  3.2579
37469SOL     OW19011  10.709  11.891   6.174  0.0363  0.3354  0.5730
37469SOL    HW119012  10.756  11.879   6.257 -0.9679  2.3427  1.4865
37469SOL    HW219013  10.778  11.913   6.111  0.8447 -1.5010  0.7634
37470SOL     OW19014   9.738  10.145  11.562  0.4641 -0.0999  0.1331
37470SOL    HW119015   9.804  10.076  11.576  0.7977 -0.1588 -1.5653
37470SOL    HW219016   9.771  10.220  11.612  1.7022 -0.2083 -0.4852
37471SOL     OW19017   7.660   3.824   1.203  0.1091  0.4593 -0.6908
37471SOL    HW119018   7.685   3.870   1.123  1.9606  2.0388  0.7077
37471SOL    HW219019   7.569   3.800   1.189 -0.1649  2.2954 -2.5593
37472SOL     OW19020   9.151   8.999   0.765  0.0691 -0.3316 -0.0307
37472SOL    HW119021   9.132   9.045   0.683  0.6945  0.2312  0.1295
37472SOL    HW219022   9.219   8.936   0.742  0.1312 -0.2832  0.0199
37473SOL     OW19023   0.346   1.010   5.639  0.5290  0.6785 -0.3736
37473SOL    HW119024   0.323   1.099   5.665 -0.9190 -0.1483  1.3807
37473SOL    HW219025   0.441   1.012   5.626  0.3635  2.7424 -1.6287
37474SOL     OW19026   5.262  10.418   0.613  0.3249  0.3397 -0.1728
37474SOL    HW119027   5.269  10.507   0.577  0.3395 -0.5376 -2.5586
37474SOL    HW219028   5.348  10.379   0.596  0.0169 -0.4108 -0.0351
37475SOL     OW19029   8.431   9.166   1.085  0.1254 -0.2642 -0.2159
37475SOL    HW119030   8.390   9.224   1.020  0.3341 -0.3624 -0.4373
37475SOL    HW219031   8.463   9.225   1.153 -1.9098 -0.2974  0.8436
37476SOL     OW19032  11.528  10.496   9.327 -0.0660 -0.1883 -0.3214
37476SOL    HW119033  11.585  10.552   9.380 -0.4724 -0.1378  0.0766
37476SOL    HW219034  11.566  10.409   9.334  0.0621 -0.1225 -0.2030
37477SOL     OW19035   0.919   8.516   5.737  0.4041 -0.1842 -0.4697
37477SOL    HW119036   0.829   8.545   5.724  0.2438 -0.8141 -0.7790
37477SOL    HW219037   0.944   8.475   5.654  0.8286 -0.3947 -0.2424
37478SOL     OW19038   8.719   0.072   3.571  0.3225 -0.3390  0.2271
37478SOL    HW119039   8.795   0.066   3.628  0.6403 -0.0173 -0.1622
37478SOL    HW219040   8.690   0.163   3.580  1.2794  0.1421 -1.2771
37479SOL     OW19041   4.569   7.786   7.488 -0.4414  0.5533 -0.3769
37479SOL    HW119042   4.664   7.777   7.473 -0.4483 -1.5099  0.4350
37479SOL    HW219043   4.529   7.754   7.407 -0.4426  1.0636 -0.5772
37480SOL     OW19044   9.841   1.093  12.670  0.4242 -0.3756 -0.1113
37480SOL    HW119045   9.872   1.168  12.619 -0.3858 -0.2861 -0.4841
37480SOL    HW219046   9.765   1.126  12.717 -0.7423 -1.2789 -1.2677
37481SOL     OW19047  11.475   7.101  10.112  0.3812 -0.2640 -0.3297
37481SOL    HW119048  11.389   7.131  10.083 -0.2215 -0.3710  1.2308
37481SOL    HW219049  11.461   7.010  10.138  0.8403 -0.1457  0.3591
37482SOL     OW19050   9.945   7.994   5.513 -0.5715 -0.1292  0.8641
37482SOL    HW119051   9.874   8.052   5.543 -0.2181 -0.1410  1.7768
37482SOL    HW219052  10.019   8.016   5.570  0.1120 -0.2374  0.0347
37483SOL     OW19053   3.606   7.719  12.537  0.0444 -0.2933  0.1349
37483SOL    HW119054   3.648   7.633  12.542 -0.0685 -0.2961  1.1701
37483SOL    HW219055   3.540   7.718  12.606  0.0579  0.6386  0.1792
37484SOL     OW19056   2.454  11.649   8.244  0.1004  0.3660 -0.2298
37484SOL    HW119057   2.434  11.557   8.261  1.6523  0.1441  0.6001
37484SOL    HW219058   2.381  11.698   8.282 -1.1284 -0.5251 -1.3536
37485SOL     OW19059   1.368  10.375   9.049  0.0288 -0.1881 -0.5478
37485SOL    HW119060   1.361  10.290   9.092  2.4242 -0.4251 -0.5152
37485SOL    HW219061   1.286  10.383   9.000 -0.6745 -2.0505  0.2081
37486SOL     OW19062  11.368   9.588  10.259 -0.1807  0.0648  0.2923
37486SOL    HW119063  11.410   9.572  10.175 -1.1949 -0.2448 -0.1644
37486SOL    HW219064  11.378   9.682  10.273 -0.8644  0.2878 -0.6470
37487SOL     OW19065   5.364   1.578   2.533  0.1195 -0.7295  0.4728
37487SOL    HW119066   5.402   1.662   2.506  1.1481 -1.0274  0.9562
37487SOL    HW219067   5.295   1.562   2.469  0.7176 -0.0977 -0.3571
37488SOL     OW19068   6.480   5.554   8.559  0.0045 -0.0194 -0.4034
37488SOL    HW119069   6.512   5.500   8.631 -2.6552 -1.0988  0.0806
37488SOL    HW219070   6.496   5.502   8.480  0.1282 -0.2152 -0.2483
37489SOL     OW19071  11.428   5.102   1.685  0.2255 -0.4713  0.4345
37489SOL    HW119072  11.425   5.117   1.591 -2.0082 -3.2218 -0.0535
37489SOL    HW219073  11.423   5.190   1.723 -0.0772  0.6544 -2.0025
37490SOL     OW19074   2.548   2.624  10.191 -0.3375 -0.0065 -0.3666
37490SOL    HW119075   2.460   2.650  10.217 -0.4531  0.5011 -1.2035
37490SOL    HW219076   2.592   2.707  10.171  1.2806  0.0451  2.7407
37491SOL     OW19077   2.153   8.125   4.357  0.2738 -0.3336 -0.2002
37491SOL    HW119078   2.164   8.204   4.410  0.2046 -0.3468 -0.1654
37491SOL    HW219079   2.148   8.157   4.267  1.0054 -0.3625 -0.2555
37492SOL     OW19080   5.420   0.456   8.620 -0.0587  0.0325 -0.0017
37492SOL    HW119081   5.454   0.461   8.530  1.4240 -2.7870  0.2787
37492SOL    HW219082   5.325   0.452   8.610  0.0736  0.0633 -1.4342
37493SOL     OW19083   5.571   2.487   1.808 -0.3040 -0.0510  0.1997
37493SOL    HW119084   5.612   2.433   1.875  1.3163  0.7272 -0.1160
37493SOL    HW219085   5.633   2.558   1.793 -0.4309 -0.3872 -2.3871
37494SOL     OW19086   6.769   2.043   1.162 -0.0118 -0.3818 -0.4371
37494SOL    HW119087   6.823   2.060   1.238  0.4502 -0.6832 -0.6919
37494SOL    HW219088   6.757   1.948   1.162  0.6511 -0.4786 -1.1742
37495SOL     OW19089   1.030  10.332   8.070  0.3492  0.3251 -0.9718
37495SOL    HW119090   1.123  10.357   8.071  0.3190  0.4679  0.2208
37495SOL    HW219091   0.993  10.376   8.146  0.2097 -3.0318  1.0898
37496SOL     OW19092   7.210   6.687   0.509 -0.0517 -0.3416  0.0950
37496SOL    HW119093   7.295   6.702   0.550 -1.5225 -0.6143  3.5855
37496SOL    HW219094   7.173   6.775   0.498  0.1907 -0.2927 -0.3792
37497SOL     OW19095   9.934  11.932   2.280  0.1043  0.1776 -1.2030
37497SOL    HW119096   9.895  11.991   2.345  0.7509  0.0263 -0.6683
37497SOL    HW219097  10.002  11.984   2.238  2.8296 -0.9815  1.3708
37498SOL     OW19098   9.736   6.744   4.623 -0.1272  0.3179  0.7330
37498SOL    HW119099   9.708   6.835   4.610  1.3941  0.5825 -1.0972
37498SOL    HW219100   9.782   6.745   4.707  1.4274  1.6782 -0.0815
37499SOL     OW19101  10.119   2.640   2.497 -0.1872  0.3996  0.4462
37499SOL    HW119102  10.137   2.689   2.416  2.2556  0.5114  0.9777
37499SOL    HW219103  10.044   2.585   2.475  1.7763 -1.3289 -2.7218
37500SOL     OW19104   5.186  12.596   2.430 -0.0411  0.4290  0.0238
37500SOL    HW119105   5.127  12.607   2.355  2.0566  0.6080 -1.6866
37500SOL    HW219106   5.249  12.530   2.401  1.4560  1.2651  1.2471
37501SOL     OW19107   6.971  10.109   5.764  0.5457  0.1106 -0.2171
37501SOL    HW119108   6.935  10.035   5.814  0.8055 -0.1110 -0.3552
37501SOL    HW219109   6.924  10.186   5.798  1.3683  0.0942  1.0253
37502SOL     OW19110   7.783   2.582  11.533 -0.7718 -0.1715  0.0028
37502SOL    HW119111   7.854   2.598  11.471  0.3727  0.3609  1.3778
37502SOL    HW219112   7.827   2.568  11.617 -2.2945  0.1343  0.9016
37503SOL     OW19113   9.855   6.155   7.557  0.3384  0.4114 -0.2808
37503SOL    HW119114   9.925   6.095   7.580 -0.7313 -1.4973 -1.7213
37503SOL    HW219115   9.898   6.224   7.506  1.2399 -0.4969 -0.7748
37504SOL     OW19116   6.799   5.230   9.148 -0.5923  0.4482  0.2714
37504SOL    HW119117   6.841   5.193   9.226 -0.0482  0.9725  0.2350
37504SOL    HW219118   6.785   5.155   9.091  0.8537  0.3192  0.0301
37505SOL     OW19119  10.423   2.757  11.020 -0.1282 -0.5019  0.6989
37505SOL    HW119120  10.450   2.684  10.964 -0.0524  0.5315 -0.6400
37505SOL    HW219121  10.503   2.808  11.034 -0.5471  0.3616  0.0413
37506SOL     OW19122   4.298   6.210  10.840  0.1603 -0.7716 -0.0898
37506SOL    HW119123   4.386   6.248  10.839 -0.2431  0.2213  0.4003
37506SOL    HW219124   4.248   6.265  10.778 -0.7253  0.2604  1.4793
37507SOL     OW19125   9.544   6.875  11.072  0.3595  0.3329 -0.3495
37507SOL    HW119126   9.582   6.787  11.078 -0.7639 -0.1315  0.0789
37507SOL    HW219127   9.451   6.863  11.091  0.4536  1.8447  1.3481
37508SOL     OW19128   0.142   8.895  10.461 -0.0128  0.0720 -0.4274
37508SOL    HW119129   0.093   8.853  10.531  0.0935 -0.0340 -0.4161
37508SOL    HW219130   0.090   8.880  10.383 -0.5109  0.8366 -0.2532
37509SOL     OW19131  10.873  11.776   0.182  0.7539  0.7342  0.6300
37509SOL    HW119132  10.873  11.681   0.168  0.9231  0.9908 -1.4134
37509SOL    HW219133  10.886  11.786   0.276  1.8264 -1.2550  0.7511
37510SOL     OW19134   1.241  12.186   6.050 -0.4075  0.3112 -0.5746
37510SOL    HW119135   1.234  12.092   6.067 -1.8991  0.9607  3.4521
37510SOL    HW219136   1.150  12.216   6.043  0.0405  1.5074 -1.6389
37511SOL     OW19137   0.800  11.378   7.692 -0.1350 -0.7064  0.6717
37511SOL    HW119138   0.722  11.347   7.737 -0.8885 -1.0050 -0.7749
37511SOL    HW219139   0.861  11.305   7.695 -0.9474 -1.4648 -0.5186
37512SOL     OW19140   5.504   6.387   7.758  0.3798  0.1418 -0.2057
37512SOL    HW119141   5.434   6.446   7.786  1.4504  1.3813 -0.0266
37512SOL    HW219142   5.464   6.332   7.690 -0.9039  0.4310  0.2853
37513SOL     OW19143   5.860   2.596   8.468  0.3368  0.5950 -0.3940
37513SOL    HW119144   5.779   2.642   8.447  0.7866  1.7391  0.2586
37513SOL    HW219145   5.912   2.601   8.388 -0.6683 -1.1742 -1.2062
37514SOL     OW19146   8.335  11.507   3.237  0.4442  0.1351 -0.7572
37514SOL    HW119147   8.298  11.489   3.151  0.1793  1.8055 -1.0208
37514SOL    HW219148   8.265  11.485   3.299 -0.2415  1.1760 -1.1293
37515SOL     OW19149   9.551   9.621  10.431 -0.0007  0.0639 -0.7808
37515SOL    HW119150   9.508   9.601  10.514 -0.2745  4.5186  0.4055
37515SOL    HW219151   9.480   9.624  10.367 -0.5923  1.4696 -0.0903
37516SOL     OW19152   6.263   4.412   8.386  0.6009  0.1682  0.4598
37516SOL    HW119153   6.349   4.371   8.397  2.1599  2.9003 -0.5688
37516SOL    HW219154   6.243   4.450   8.471  0.5327 -0.2516  0.6310
37517SOL     OW19155   3.275   1.569   3.495  0.9449  0.3624  0.0692
37517SOL    HW119156   3.302   1.518   3.419  0.9530  2.7423 -1.6514
37517SOL    HW219157   3.188   1.535   3.517  1.2454 -0.8462 -0.5541
37518SOL     OW19158   8.464   7.353   4.196 -0.1803  0.7158  0.2252
37518SOL    HW119159   8.424   7.321   4.115  0.4947  2.7450 -0.9709
37518SOL    HW219160   8.397   7.339   4.263 -1.4344  0.5948 -1.0162
37519SOL     OW19161   0.909  10.480   5.752  0.2951  0.1765 -0.1170
37519SOL    HW119162   0.992  10.514   5.717 -0.1422  0.3701 -1.0075
37519SOL    HW219163   0.845  10.548   5.731 -0.0833  0.0468  0.6100
37520SOL     OW19164  12.170  10.941   7.902  0.1931 -0.1117  0.1996
37520SOL    HW119165  12.080  10.942   7.870  0.1299 -1.9797  0.2228
37520SOL    HW219166  12.200  11.032   7.893 -1.3523  0.3374 -0.7347
37521SOL     OW19167  11.317   5.726   2.471  0.4284  0.5434 -0.4852
37521SOL    HW119168  11.355   5.813   2.459 -0.6635  1.5130  2.3719
37521SOL    HW219169  11.235   5.729   2.422 -0.3891  1.7509  0.8896
37522SOL     OW19170   9.507   9.847  11.109  0.1364  0.2494  0.8982
37522SOL    HW119171   9.559   9.888  11.039 -0.4920  1.6159  1.1935
37522SOL    HW219172   9.522   9.753  11.098  1.3342  0.5215 -0.0571
37523SOL     OW19173   8.407   3.886  10.818  0.3486 -0.3245  0.1554
37523SOL    HW119174   8.396   3.941  10.740 -0.9011  0.8682  1.1051
37523SOL    HW219175   8.341   3.919  10.879  0.2078 -2.2849  1.1364
37524SOL     OW19176   2.903   3.477   9.969  0.1514 -0.1592 -0.7186
37524SOL    HW119177   2.988   3.496  10.009  0.6205  0.8825 -2.1374
37524SOL    HW219178   2.852   3.437  10.039  1.7447 -0.6440  0.2180
37525SOL     OW19179   3.673  11.229   1.715 -0.1494 -0.2033 -0.7163
37525SOL    HW119180   3.706  11.261   1.631  2.6035  0.7528  0.6008
37525SOL    HW219181   3.739  11.167   1.745  0.7042  1.8941  2.1448
37526SOL     OW19182   9.430   0.805   3.821 -0.3990 -0.3796  0.0965
37526SOL    HW119183   9.413   0.750   3.897 -1.0501 -0.9516 -0.4498
37526SOL    HW219184   9.437   0.894   3.856 -1.9970 -0.4524  0.6798
37527SOL     OW19185   4.964  10.501   8.234  0.4840  0.4478  0.2297
37527SOL    HW119186   4.935  10.537   8.150 -0.5507 -0.0540  0.3484
37527SOL    HW219187   4.938  10.567   8.298 -0.3436  0.0544  0.3225
37528SOL     OW19188   3.380   4.769   6.553  0.0046  0.0143  0.3912
37528SOL    HW119189   3.464   4.726   6.573  0.2806 -0.4120 -1.4804
37528SOL    HW219190   3.378   4.775   6.457 -1.5213  1.2369  0.4523
37529SOL     OW19191   8.614   6.382   0.710 -0.5756 -0.2419 -0.6304
37529SOL    HW119192   8.538   6.329   0.735  0.0937 -0.5995  0.7569
37529SOL    HW219193   8.689   6.335   0.748  0.7438 -1.4804 -4.3343
37530SOL     OW19194   1.694   7.883   5.813  0.4955  0.3316 -0.0769
37530SOL    HW119195   1.692   7.903   5.719 -0.7783  0.0333 -0.1388
37530SOL    HW219196   1.660   7.794   5.819 -2.0702  1.2874  0.8465
37531SOL     OW19197   9.478   3.209   5.949 -0.2084 -0.3875  0.8904
37531SOL    HW119198   9.385   3.219   5.930 -0.0820 -1.8499 -0.7138
37531SOL    HW219199   9.521   3.266   5.885  0.0958 -2.8535 -1.2545
37532SOL     OW19200  11.345   0.621   9.650 -0.3032  0.0595 -0.2165
37532SOL    HW119201  11.433   0.584   9.641 -0.0061  0.8199 -0.5009
37532SOL    HW219202  11.286   0.549   9.626  0.2264 -0.5545  0.2906
37533SOL     OW19203  10.341   0.415   4.525 -0.6350 -0.0042 -0.7390
37533SOL    HW119204  10.338   0.319   4.522 -0.2339  0.0028 -2.1998
37533SOL    HW219205  10.255   0.440   4.560 -0.2379 -0.9070  0.9699
37534SOL     OW19206   5.695  10.817   7.020  0.0787  0.7198  0.1037
37534SOL    HW119207   5.671  10.906   7.045 -0.8236  0.6531 -0.4836
37534SOL    HW219208   5.761  10.829   6.952 -0.7548  0.9661 -0.6790
37535SOL     OW19209   3.690   7.346  11.086 -0.0060  0.2933 -0.5393
37535SOL    HW119210   3.727   7.431  11.064  0.7457  0.9797  2.8362
37535SOL    HW219211   3.683   7.346  11.182 -1.0369 -3.0281 -0.4613
37536SOL     OW19212  11.225  12.676   0.775 -0.0248 -0.0378  0.8167
37536SOL    HW119213  11.175  12.645   0.700  1.4193  0.0484 -0.2305
37536SOL    HW219214  11.232  12.771   0.762  0.9047 -0.1210  0.5946
37537SOL     OW19215   4.767   4.814   3.985  0.3189 -0.1204  0.6371
37537SOL    HW119216   4.698   4.756   4.017 -0.6005  1.2199  1.2156
37537SOL    HW219217   4.722   4.897   3.969  1.2982  0.0497 -1.5398
37538SOL     OW19218   8.692   4.928   4.748 -0.3432 -0.5724 -0.1012
37538SOL    HW119219   8.657   4.932   4.836  0.8444  1.2062  0.3451
37538SOL    HW219220   8.619   4.954   4.691 -0.3037  1.3353  0.6519
37539SOL     OW19221   3.634   3.591   7.533 -0.3501 -0.1923  0.2491
37539SOL    HW119222   3.643   3.499   7.559 -1.6030 -0.2360  0.6147
37539SOL    HW219223   3.539   3.604   7.525 -0.2133  1.1739  0.5911
37540SOL     OW19224   6.209  11.908   2.107 -0.2969 -0.1561  0.6161
37540SOL    HW119225   6.282  11.888   2.165 -0.0722  2.1704  1.2432
37540SOL    HW219226   6.131  11.891   2.161 -0.0909  2.0000  1.7021
37541SOL     OW19227   3.131   6.791  11.660 -0.0649 -0.1241 -0.9186
37541SOL    HW119228   3.158   6.838  11.739 -0.2840 -0.0047 -0.9112
37541SOL    HW219229   3.082   6.856  11.610 -0.3226 -0.3271 -0.9351
37542SOL     OW19230  11.322   5.912   2.911 -0.3053  0.5964 -0.2241
37542SOL    HW119231  11.366   5.889   2.993  0.6709  2.8735 -0.0418
37542SOL    HW219232  11.229   5.897   2.928  0.0743 -1.3804  0.4104
37543SOL     OW19233   5.943   2.932  11.881  0.4490 -0.3166 -0.2759
37543SOL    HW119234   5.910   2.884  11.804 -2.3406  0.4936  0.3144
37543SOL    HW219235   5.979   2.864  11.937 -0.7481 -1.3883 -0.7494
37544SOL     OW19236  10.387   8.340   6.597 -0.4076 -0.2156  0.0917
37544SOL    HW119237  10.481   8.335   6.578 -0.5422  0.0936 -0.6911
37544SOL    HW219238  10.356   8.250   6.593 -0.4992 -0.1357 -1.5724
37545SOL     OW19239   8.573   8.036   5.367 -0.1398  0.3511 -0.3976
37545SOL    HW119240   8.585   8.131   5.360  0.9443  0.6956  3.6465
37545SOL    HW219241   8.637   7.999   5.305 -0.1577  2.2146 -1.6106
37546SOL     OW19242   8.686   7.302   5.053  0.1868  0.1198 -0.4771
37546SOL    HW119243   8.691   7.396   5.033  1.7629  0.1735  0.0434
37546SOL    HW219244   8.729   7.259   4.979  1.7021  0.0071  0.4210
37547SOL     OW19245   1.085   0.742   9.620 -0.6930  0.4336  0.0663
37547SOL    HW119246   1.165   0.789   9.646 -0.1730 -0.3136 -0.1534
37547SOL    HW219247   1.112   0.691   9.544 -1.0113 -0.9352  0.8552
37548SOL     OW19248  10.150   6.728   5.036 -0.9095 -0.2281  0.5976
37548SOL    HW119249  10.213   6.678   5.089  0.5187  0.6229 -0.2331
37548SOL    HW219250  10.065   6.693   5.062 -0.1205 -1.3610  1.8397
37549SOL     OW19251   9.909   8.185   9.552 -0.3814  0.0906  0.1516
37549SOL    HW119252   9.911   8.144   9.466 -0.3988 -0.1240  0.2534
37549SOL    HW219253   9.821   8.224   9.558 -0.5983 -0.4126  0.3094
37550SOL     OW19254   1.830   3.695  10.084 -0.5535 -0.2799 -0.1001
37550SOL    HW119255   1.875   3.617  10.050 -1.2798 -1.6303  1.8329
37550SOL    HW219256   1.795   3.738  10.006  1.5038 -0.8016 -1.3996
37551SOL     OW19257   0.289  10.303   2.160  0.2236  0.5853 -0.9201
37551SOL    HW119258   0.195  10.290   2.148  0.6111 -1.3982 -2.0891
37551SOL    HW219259   0.297  10.397   2.179 -1.8069  1.2444 -2.8205
37552SOL     OW19260   2.543  11.245   9.677  0.2342  0.4010  0.2660
37552SOL    HW119261   2.498  11.176   9.627 -0.1747  0.9342 -0.1137
37552SOL    HW219262   2.501  11.326   9.648 -0.3128  0.6889  1.8067
37553SOL     OW19263   7.974   1.637   8.318  0.1621 -0.0635  0.1250
37553SOL    HW119264   8.069   1.633   8.329  0.4374 -0.1881 -1.8497
37553SOL    HW219265   7.954   1.731   8.319  0.0125 -0.0697  2.2853
37554SOL     OW19266   6.282   0.470  12.307  0.4444  0.2881 -0.1769
37554SOL    HW119267   6.201   0.520  12.299 -0.0292 -0.5675 -0.9758
37554SOL    HW219268   6.295   0.459  12.401 -0.2543  0.6116 -0.0357
37555SOL     OW19269   8.147   7.175   8.452 -0.1642  0.3213 -0.4495
37555SOL    HW119270   8.144   7.086   8.489  2.8263  0.7067  0.9827
37555SOL    HW219271   8.183   7.163   8.365  0.4641  0.1246 -0.1695
37556SOL     OW19272   3.995  10.867   9.868  0.2183 -0.5320 -0.2592
37556SOL    HW119273   3.908  10.902   9.889  1.0059  1.6081 -0.3873
37556SOL    HW219274   4.052  10.944   9.865  1.9109 -1.7723 -1.2949
37557SOL     OW19275   4.808   4.231  11.840  0.4583 -0.1007 -0.0062
37557SOL    HW119276   4.902   4.218  11.856  0.7735  0.0155 -1.6715
37557SOL    HW219277   4.766   4.187  11.914  1.7011 -3.6249 -1.1995
37558SOL     OW19278  11.381  10.706   8.791 -0.6103  0.1237 -0.2148
37558SOL    HW119279  11.417  10.736   8.874 -1.2255 -0.1785  0.1612
37558SOL    HW219280  11.308  10.649   8.815 -0.5478 -0.2773 -0.9537
37559SOL     OW19281   3.504  11.637   8.815  0.3178 -0.3029 -0.1857
37559SOL    HW119282   3.419  11.677   8.834  1.1129  0.7361  1.4500
37559SOL    HW219283   3.524  11.584   8.892  1.0413 -0.7233 -0.6465
37560SOL     OW19284  10.159   1.423   2.521  0.0682 -0.0630 -0.1994
37560SOL    HW119285  10.158   1.403   2.427 -0.1642  1.0468 -0.4564
37560SOL    HW219286  10.139   1.517   2.525  1.1209  0.1311  0.9032
37561SOL     OW19287  11.017   0.368   5.399  0.5074 -0.1853  0.1308
37561SOL    HW119288  11.083   0.406   5.341 -0.6127  0.2140 -0.8933
37561SOL    HW219289  10.960   0.318   5.342  0.0519 -0.7354  1.0470
37562SOL     OW19290   5.788  11.107   2.882  0.1782 -0.4316 -0.3861
37562SOL    HW119291   5.781  11.084   2.975 -0.3344  0.6946 -0.1239
37562SOL    HW219292   5.697  11.112   2.852  0.3070  0.0754 -0.7073
37563SOL     OW19293   9.485   3.269   0.380 -0.7191  0.0450 -0.5036
37563SOL    HW119294   9.565   3.249   0.331  0.4441 -0.2039  1.3756
37563SOL    HW219295   9.439   3.185   0.386 -0.7268  0.0188 -0.8895
37564SOL     OW19296   7.868   7.175   1.170 -0.0763  0.4328  0.8129
37564SOL    HW119297   7.928   7.165   1.243 -0.4736 -0.7811  0.9957
37564SOL    HW219298   7.804   7.239   1.201 -0.9536 -0.9650  2.0543
37565SOL     OW19299  11.798   4.192   1.871 -0.9638  0.2722  0.0000
37565SOL    HW119300  11.771   4.133   1.801  0.5145 -0.0212 -0.3545
37565SOL    HW219301  11.840   4.135   1.936 -1.2666  0.6919  0.5730
37566SOL     OW19302   0.204   2.454   5.516  0.2077  0.3370 -0.3629
37566SOL    HW119303   0.109   2.465   5.506  0.1364  1.0384  0.8968
37566SOL    HW219304   0.242   2.516   5.453 -0.1825  0.7450 -0.2046
37567SOL     OW19305   1.719   9.108   8.213  0.2221  0.1272  0.0177
37567SOL    HW119306   1.669   9.036   8.251  0.3975  0.4282  0.8525
37567SOL    HW219307   1.804   9.069   8.191  0.0949 -0.0676 -0.1330
37568SOL     OW19308   1.050   6.022   4.136  0.3220  0.0010  0.4061
37568SOL    HW119309   1.004   6.104   4.155  1.4579  0.7294  0.0781
37568SOL    HW219310   1.094   6.000   4.218 -1.1048 -1.0628  0.9332
37569SOL     OW19311   6.494   9.567   2.137 -0.4012 -0.0453  0.2981
37569SOL    HW119312   6.427   9.544   2.201 -0.8720  1.0130  0.1919
37569SOL    HW219313   6.471   9.517   2.059 -1.2244  0.5166  0.1744
37570SOL     OW19314  11.207  10.142   5.046 -0.3245  0.2038  0.3011
37570SOL    HW119315  11.153  10.214   5.078  0.7853 -0.0639  3.0789
37570SOL    HW219316  11.297  10.168   5.070  0.0599 -2.2549  1.8702
37571SOL     OW19317   7.495  10.154   6.590  0.0836  0.1230 -0.1589
37571SOL    HW119318   7.589  10.134   6.583 -0.0490 -0.0166 -2.1770
37571SOL    HW219319   7.491  10.232   6.645  1.3047 -0.3934  0.7114
37572SOL     OW19320   2.269   3.276   9.318  0.1697  0.1214 -0.1536
37572SOL    HW119321   2.356   3.243   9.296  0.0238 -0.2535 -0.1816
37572SOL    HW219322   2.235   3.213   9.382 -0.0426  0.3156 -0.0745
37573SOL     OW19323   6.081  10.856  11.319 -0.0864  0.3621  0.0308
37573SOL    HW119324   6.125  10.922  11.265 -0.3396 -0.8204 -1.6935
37573SOL    HW219325   6.013  10.905  11.365 -1.3012  1.1480 -2.3980
37574SOL     OW19326   3.275   9.667   6.854 -0.3857 -0.3593 -0.1754
37574SOL    HW119327   3.223   9.635   6.780 -0.5163 -1.7457  0.4843
37574SOL    HW219328   3.328   9.737   6.817 -1.5391 -0.0049 -1.2379
37575SOL     OW19329   0.020   6.797   2.927 -0.2708 -0.1724 -0.6856
37575SOL    HW119330  -0.042   6.814   2.856 -1.3588 -0.4966  0.1535
37575SOL    HW219331   0.038   6.883   2.965  0.5243  0.0355 -1.5026
37576SOL     OW19332  11.948   0.380   8.376 -0.2080  0.0838 -0.1822
37576SOL    HW119333  11.935   0.295   8.334 -0.5341 -1.5370  2.9373
37576SOL    HW219334  11.885   0.382   8.448  1.6894  1.7162  1.5882
37577SOL     OW19335  10.130  11.391   2.925  0.5218 -0.2291 -0.1930
37577SOL    HW119336  10.174  11.411   3.008 -0.4346 -1.8194  0.7334
37577SOL    HW219337  10.037  11.396   2.945  0.2520 -2.2550 -0.7016
37578SOL     OW19338   1.094   6.693   1.354 -0.6531  0.0370  0.6272
37578SOL    HW119339   1.179   6.650   1.347 -0.6131  0.2094  0.0003
37578SOL    HW219340   1.046   6.665   1.276 -0.1944  2.0349 -0.4639
37579SOL     OW19341  11.866   7.033   9.911 -0.3820  0.2655 -0.4576
37579SOL    HW119342  11.807   7.099   9.948 -0.0813  1.5108 -2.0810
37579SOL    HW219343  11.809   6.977   9.859 -0.4248  0.1864 -0.3259
37580SOL     OW19344  11.196  11.534   1.268 -0.2873  0.2765  0.0068
37580SOL    HW119345  11.159  11.494   1.189 -2.1095  0.3267  0.7914
37580SOL    HW219346  11.128  11.595   1.298 -0.1561 -0.5910  2.2577
37581SOL     OW19347   7.180   1.000  11.227  0.2371  0.1041  0.2274
37581SOL    HW119348   7.202   1.084  11.187  0.7913 -0.1413  0.0056
37581SOL    HW219349   7.135   1.023  11.308 -3.6174  0.6519 -1.8481
37582SOL     OW19350   5.899   3.515   0.717  0.1632  0.3927 -0.2805
37582SOL    HW119351   5.915   3.522   0.812  1.9082 -0.9951 -0.4355
37582SOL    HW219352   5.921   3.602   0.683  1.4541  0.3374  0.3552
37583SOL     OW19353   2.379   7.766   1.842 -0.1700  0.3279 -0.1387
37583SOL    HW119354   2.438   7.794   1.912 -1.2441 -0.8774  1.3391
37583SOL    HW219355   2.433   7.713   1.784  0.5256  0.4915  0.3467
37584SOL     OW19356   5.388   4.800   2.253  0.1240  0.3319 -0.0172
37584SOL    HW119357   5.304   4.790   2.299  0.2835 -1.2125 -0.0190
37584SOL    HW219358   5.414   4.891   2.271 -0.1045 -0.0291  2.4937
37585SOL     OW19359  10.425  12.732   0.393  0.0119  0.0743 -0.1908
37585SOL    HW119360  10.442  12.691   0.308 -0.5356  2.3712 -1.4838
37585SOL    HW219361  10.511  12.737   0.435  0.3161 -0.9071 -0.6559
37586SOL     OW19362  12.287   1.315  12.399 -0.1521  0.9646 -0.2319
37586SOL    HW119363  12.283   1.346  12.308  1.4053  0.5627 -0.4770
37586SOL    HW219364  12.236   1.235  12.399 -0.5401  1.2052 -0.6489
37587SOL     OW19365   7.296   5.641   3.667  0.0999 -0.1511  0.3459
37587SOL    HW119366   7.339   5.569   3.715  0.9870 -0.2182 -0.5258
37587SOL    HW219367   7.227   5.599   3.617 -1.4761  0.0349  2.2412
37588SOL     OW19368   3.180  12.002   9.888  0.2583 -0.1207  0.2794
37588SOL    HW119369   3.154  12.028   9.800  0.7242 -0.3754  0.0640
37588SOL    HW219370   3.233  11.924   9.876 -0.9836 -1.1037  0.9116
37589SOL     OW19371  11.265   4.820   0.816  0.4248 -0.0681  0.1788
37589SOL    HW119372  11.179   4.844   0.848  0.1861 -1.7929  0.9797
37589SOL    HW219373  11.261   4.724   0.805  2.5234 -0.3400  1.1903
37590SOL     OW19374   9.328  10.678   4.623  0.5590 -0.4928  0.1377
37590SOL    HW119375   9.356  10.589   4.644  0.5778 -0.7938 -1.0754
37590SOL    HW219376   9.234  10.679   4.642  0.5581 -0.7732  0.1426
37591SOL     OW19377   6.158  11.098   7.884  0.1542 -0.0931  0.0706
37591SOL    HW119378   6.129  11.091   7.975 -1.0038  0.5162 -0.2349
37591SOL    HW219379   6.089  11.148   7.840  0.6010 -0.5334 -1.1869
37592SOL     OW19380   7.794   3.317   9.310  0.3467  0.4121  0.5385
37592SOL    HW119381   7.753   3.232   9.327  0.6393  0.4003  1.1789
37592SOL    HW219382   7.877   3.296   9.268  0.2121  0.4018  0.2725
37593SOL     OW19383  10.738   3.854   1.233  0.4967 -0.3274  0.6089
37593SOL    HW119384  10.660   3.892   1.273  1.3418  1.5984  0.5299
37593SOL    HW219385  10.731   3.876   1.140 -0.2666 -2.6979  0.0300
37594SOL     OW19386   7.346   5.968   2.780 -0.2359  0.3649  0.1283
37594SOL    HW119387   7.341   5.873   2.771  2.2360  0.1423  0.3885
37594SOL    HW219388   7.404   5.996   2.708 -0.4853  1.6034  0.3862
37595SOL     OW19389   6.028   4.986  11.585 -0.1074 -0.5944  0.0339
37595SOL    HW119390   6.080   5.059  11.618  0.6585 -1.3195  0.4535
37595SOL    HW219391   6.005   5.012  11.495 -0.0197  0.2407  0.2401
37596SOL     OW19392   1.490  11.164   2.950  0.4196 -0.6543 -0.0242
37596SOL    HW119393   1.552  11.194   2.884  0.4396 -2.6149 -0.9559
37596SOL    HW219394   1.468  11.075   2.924 -1.8271 -0.4636  1.0084
37597SOL     OW19395   1.521   6.476   6.343  0.6799 -0.0523  0.5447
37597SOL    HW119396   1.431   6.466   6.373  0.1694  0.7375 -0.6106
37597SOL    HW219397   1.519   6.446   6.252  2.0790 -2.0431  1.0946
37598SOL     OW19398   3.648  12.133  11.250 -0.1190  0.2680  0.1911
37598SOL    HW119399   3.647  12.175  11.337  1.7200  2.6871 -0.8291
37598SOL    HW219400   3.739  12.108  11.237  0.2617  2.3916 -2.0085
37599SOL     OW19401   4.337   6.815  12.727 -0.2791 -0.0870  0.6369
37599SOL    HW119402   4.277   6.865  12.671 -0.7465 -0.3595  0.8861
37599SOL    HW219403   4.287   6.737  12.752  0.5517 -0.8468  0.0014
37600SOL     OW19404   1.488   0.354   2.031  0.1307 -0.0664 -0.5949
37600SOL    HW119405   1.458   0.302   1.956 -0.3966  1.6593 -1.6160
37600SOL    HW219406   1.583   0.346   2.028  0.2639  1.4789 -2.6351
37601SOL     OW19407   8.911   9.417   3.194 -0.3485 -0.2590  0.0309
37601SOL    HW119408   8.950   9.500   3.167 -0.5524 -0.4727 -0.9942
37601SOL    HW219409   8.944   9.353   3.130 -1.1936 -0.7120  0.0276
37602SOL     OW19410   2.807   6.755   6.221 -0.0980  0.9927  0.5523
37602SOL    HW119411   2.736   6.727   6.280  0.6450 -0.8492  0.6451
37602SOL    HW219412   2.761   6.791   6.145 -1.2300 -0.9494  0.2206
37603SOL     OW19413  11.062   7.812   6.355  0.3854 -0.0929 -0.3826
37603SOL    HW119414  11.155   7.825   6.375  0.6104  1.2808 -2.1403
37603SOL    HW219415  11.019   7.816   6.440  1.8683 -0.2303  0.4121
37604SOL     OW19416   7.060  11.446   9.984  0.1348 -0.2773  0.1701
37604SOL    HW119417   7.021  11.471  10.068 -0.7049  2.7411 -0.9771
37604SOL    HW219418   7.140  11.499   9.977  0.3075 -0.6347 -0.8378
37605SOL     OW19419   7.442   7.533   3.817  0.0254  0.5742 -0.8266
37605SOL    HW119420   7.453   7.440   3.794  0.3901  0.4937 -0.3324
37605SOL    HW219421   7.525   7.557   3.858 -0.1521  1.0660 -0.7545
37606SOL     OW19422   6.146   8.688   1.122 -0.0240 -0.2355 -0.2645
37606SOL    HW119423   6.196   8.609   1.104  0.4597  0.0111 -0.0378
37606SOL    HW219424   6.086   8.664   1.193 -2.9778 -1.6367 -3.0316
37607SOL     OW19425  12.245   2.620   0.590  0.2390 -0.0002 -0.2484
37607SOL    HW119426  12.213   2.701   0.551 -0.1061 -0.2524 -0.4965
37607SOL    HW219427  12.199   2.614   0.674 -0.3887 -0.3739 -0.6144
37608SOL     OW19428   6.442  10.471   6.305 -0.4887 -0.0824  0.0928
37608SOL    HW119429   6.357  10.504   6.334 -1.0422 -0.4069 -1.0698
37608SOL    HW219430   6.447  10.497   6.213  1.1122  0.7655  0.3793
37609SOL     OW19431   4.736   9.155   4.530  0.5115  0.6143 -0.0339
37609SOL    HW119432   4.791   9.085   4.566  0.3652  0.2945 -0.4234
37609SOL    HW219433   4.654   9.111   4.508 -0.7131  1.4649  2.4721
37610SOL     OW19434   5.496  12.081   7.610 -0.3467 -0.1943  0.1094
37610SOL    HW119435   5.417  12.106   7.563 -0.8726 -0.2889  0.9257
37610SOL    HW219436   5.511  11.989   7.586 -0.7992 -0.3408  0.3825
37611SOL     OW19437  10.710  10.781   9.582  0.0882 -0.2784  0.2558
37611SOL    HW119438  10.698  10.875   9.597 -1.2916 -0.1351 -1.3922
37611SOL    HW219439  10.699  10.771   9.487 -2.2198 -2.4049  0.6612
37612SOL     OW19440   4.610   9.817  10.528  0.0608  0.3625 -0.3717
37612SOL    HW119441   4.612   9.738  10.473  1.3134  0.1093 -0.0001
37612SOL    HW219442   4.565   9.789  10.608  0.0562  0.1671 -0.4416
37613SOL     OW19443   1.069   4.095   1.918 -0.2712  0.3564 -0.3785
37613SOL    HW119444   1.126   4.101   1.841 -1.0316  0.4940 -0.9512
37613SOL    HW219445   1.041   4.004   1.920  1.8619 -0.3577  1.3449
37614SOL     OW19446   5.402  12.632   8.855 -0.5801 -0.6928 -0.5377
37614SOL    HW119447   5.327  12.635   8.915  0.1414  0.3430  0.3616
37614SOL    HW219448   5.467  12.579   8.901 -0.1706 -0.2258 -0.5680
37615SOL     OW19449   8.088  11.078   9.531 -0.5988 -0.0285 -0.3674
37615SOL    HW119450   8.164  11.032   9.567 -1.1306 -0.5872  0.0571
37615SOL    HW219451   8.080  11.156   9.586  0.1170  0.4402 -0.8962
37616SOL     OW19452   8.201  11.035  10.223 -0.3180  0.1089  0.4151
37616SOL    HW119453   8.171  10.947  10.245 -0.0992 -0.3154 -0.8804
37616SOL    HW219454   8.187  11.042  10.128 -3.3022  2.6127  0.8803
37617SOL     OW19455   0.631   3.666   4.211  0.0068 -0.6324  0.1073
37617SOL    HW119456   0.629   3.700   4.122 -0.9685 -1.2310 -0.1093
37617SOL    HW219457   0.700   3.598   4.209 -1.2499 -1.9420 -0.6978
37618SOL     OW19458   7.905  12.633  10.978  0.3581  0.8066 -0.5572
37618SOL    HW119459   7.830  12.668  11.027 -0.4746 -0.5240 -0.8477
37618SOL    HW219460   7.915  12.693  10.904 -0.3297  1.0903 -0.4312
37619SOL     OW19461   0.772   0.498   0.756 -0.1427  0.1236 -0.2170
37619SOL    HW119462   0.774   0.431   0.824 -0.2900  0.2346 -0.1014
37619SOL    HW219463   0.775   0.449   0.674  0.0403 -0.0109 -0.1308
37620SOL     OW19464   5.073   0.529  11.546 -0.0862 -0.0963  0.0541
37620SOL    HW119465   5.137   0.546  11.476  0.3502  1.5029  0.7830
37620SOL    HW219466   5.127   0.502  11.620 -0.5766 -2.1221 -0.2826
37621SOL     OW19467   1.832  12.520   9.697  0.2868  0.7887 -0.0954
37621SOL    HW119468   1.902  12.472   9.740  0.0896  0.5962  0.0115
37621SOL    HW219469   1.875  12.569   9.628  0.4342  0.1499 -0.4618
37622SOL     OW19470  10.540   2.464   4.397 -0.1735  0.2033  0.1648
37622SOL    HW119471  10.536   2.389   4.337 -1.0378 -0.0706  0.5462
37622SOL    HW219472  10.483   2.439   4.469 -1.0530  1.5349 -0.0412
37623SOL     OW19473   6.092   8.555   6.099  0.3550 -0.4292  0.1426
37623SOL    HW119474   6.085   8.615   6.173 -1.6216 -0.7372  0.2629
37623SOL    HW219475   6.096   8.611   6.022  1.1037 -0.1339  0.3854
37624SOL     OW19476   2.789   1.084   5.344 -0.2279 -0.7266  0.7783
37624SOL    HW119477   2.736   1.131   5.409 -0.1851  2.4114 -1.2918
37624SOL    HW219478   2.850   1.149   5.311  1.8685 -3.0615 -0.2470
37625SOL     OW19479   1.101   3.310   5.671  0.2196  0.0825  0.0117
37625SOL    HW119480   1.067   3.398   5.655 -0.1468 -0.0121  0.2647
37625SOL    HW219481   1.065   3.257   5.600 -1.1970 -0.2829  0.9745
37626SOL     OW19482   7.983   0.395   8.065 -0.1120 -0.1239  0.3061
37626SOL    HW119483   7.888   0.410   8.062  0.2585  3.0576  0.4056
37626SOL    HW219484   8.006   0.410   8.156  0.3832 -2.1128  0.5397
37627SOL     OW19485   0.433   6.001   1.145  0.2061  0.3295 -0.0484
37627SOL    HW119486   0.343   6.029   1.128 -0.3209 -1.3983 -0.3179
37627SOL    HW219487   0.474   6.077   1.186 -1.5991  0.9037  0.8163
37628SOL     OW19488  11.347   8.548   9.103 -0.0331  0.0733 -0.5878
37628SOL    HW119489  11.295   8.485   9.153  1.1258  0.1745  0.8006
37628SOL    HW219490  11.307   8.632   9.121 -1.0624 -0.1428 -1.7617
37629SOL     OW19491   6.726   8.192   0.556 -0.2667 -0.2726 -0.1556
37629SOL    HW119492   6.696   8.202   0.646  0.8140 -0.6860  0.2612
37629SOL    HW219493   6.647   8.171   0.507 -0.5391 -2.5135  1.0987
37630SOL     OW19494  11.017  12.143   2.931  0.1251 -0.2546  0.3818
37630SOL    HW119495  11.020  12.200   2.855 -0.5452 -0.2418  0.3544
37630SOL    HW219496  10.931  12.101   2.926  0.5182 -1.1151  0.5131
37631SOL     OW19497  10.722  10.894   5.690 -0.0369 -0.0103  0.5086
37631SOL    HW119498  10.706  10.988   5.694 -2.6435 -0.3307 -0.3864
37631SOL    HW219499  10.683  10.867   5.607 -1.4520 -2.2019  1.7888
37632SOL     OW19500   2.916   5.291   2.773 -0.2661 -0.1793  0.0795
37632SOL    HW119501   2.940   5.203   2.745 -2.7000 -1.7689  2.5313
37632SOL    HW219502   2.826   5.302   2.744 -0.3563  1.0847  0.7615
37633SOL     OW19503   9.007  11.296   1.182 -0.7125 -0.6529  0.3607
37633SOL    HW119504   8.993  11.324   1.273 -1.5110  0.3124 -0.0441
37633SOL    HW219505   9.048  11.371   1.140  1.1229 -1.6331  0.2630
37634SOL     OW19506  12.339   3.617   2.897  0.4576  0.1323 -0.1681
37634SOL    HW119507  12.331   3.619   2.992  0.5196 -0.8605 -0.1301
37634SOL    HW219508  12.374   3.703   2.874 -2.2867  1.5156  0.4061
37635SOL     OW19509   6.027   2.217   8.638  0.5309  0.0888  0.4848
37635SOL    HW119510   6.019   2.306   8.673 -1.6170  0.4013 -0.5973
37635SOL    HW219511   5.953   2.170   8.677  1.7380 -1.3032  1.1773
37636SOL     OW19512   9.856   9.837   1.185 -0.0469 -0.0280 -0.0059
37636SOL    HW119513   9.920   9.908   1.175  0.7975 -0.9441 -1.4977
37636SOL    HW219514   9.792   9.870   1.248  1.6277  1.1227  1.1634
37637SOL     OW19515   4.677   6.167  10.742  0.0870  0.3258 -0.1185
37637SOL    HW119516   4.605   6.178  10.680  1.1522  2.3471 -1.0896
37637SOL    HW219517   4.755   6.192  10.693  1.1064  0.8957  1.6931
37638SOL     OW19518   6.906   5.063   3.887 -0.0135  0.0464 -0.0459
37638SOL    HW119519   6.861   5.006   3.825  0.8572  0.4898 -1.1162
37638SOL    HW219520   6.955   5.124   3.833  0.1814  0.9366  1.0846
37639SOL     OW19521   1.021   5.025  11.314 -0.5896  0.4866  0.2068
37639SOL    HW119522   1.059   5.109  11.341  1.9956 -0.3136 -0.6677
37639SOL    HW219523   0.957   5.048  11.247  1.0273  1.7262 -0.9828
37640SOL     OW19524  11.568   8.625   4.424 -0.1918 -0.3992 -0.4111
37640SOL    HW119525  11.590   8.533   4.407  1.4223 -0.3968  1.3773
37640SOL    HW219526  11.649   8.673   4.404  1.2007 -0.1599  4.5175
37641SOL     OW19527   3.769   3.405   2.707 -0.2004  0.5101  0.0600
37641SOL    HW119528   3.765   3.325   2.656  3.3902 -0.0368  0.4153
37641SOL    HW219529   3.742   3.379   2.795 -2.0933  0.4862 -0.4737
37642SOL     OW19530   2.667   7.964   0.342  0.2571 -0.5177 -0.0164
37642SOL    HW119531   2.762   7.972   0.350  0.2225 -0.3601  0.2280
37642SOL    HW219532   2.637   8.053   0.320  0.1139 -0.4563  0.4157
37643SOL     OW19533   0.593   2.456   7.980 -0.3412  0.5550  0.3568
37643SOL    HW119534   0.502   2.483   7.990 -0.9666 -0.5714 -1.7354
37643SOL    HW219535   0.588   2.363   7.957  1.3271  0.5651 -0.1927
37644SOL     OW19536   7.066   7.427   8.986  0.2736 -0.2467  0.1808
37644SOL    HW119537   7.046   7.341   8.949  1.8056 -0.6146  0.1451
37644SOL    HW219538   7.033   7.490   8.922  1.2671 -0.8476 -0.9448
37645SOL     OW19539   8.514   1.895  12.304  0.1542 -0.3813  0.1915
37645SOL    HW119540   8.444   1.949  12.341 -0.1043 -0.8794  0.4436
37645SOL    HW219541   8.570   1.957  12.256 -1.8126 -0.2995 -2.1545
37646SOL     OW19542   2.185   8.807   6.199  0.6155  0.0872 -0.0604
37646SOL    HW119543   2.173   8.804   6.104 -0.9872  1.1005  0.0792
37646SOL    HW219544   2.243   8.881   6.213  1.7888 -0.7546 -0.2948
37647SOL     OW19545   4.021  10.895   4.570  0.9642  0.3240  0.0614
37647SOL    HW119546   3.996  10.982   4.540 -0.2501  0.0213  0.1107
37647SOL    HW219547   4.045  10.907   4.662 -0.9014  0.3769  0.6009
37648SOL     OW19548   1.924   6.285  10.199 -0.4678 -0.6795  0.8794
37648SOL    HW119549   1.900   6.292  10.106 -1.6157  0.0972  1.2137
37648SOL    HW219550   1.927   6.190  10.215 -0.9837 -0.8205  0.2153
37649SOL     OW19551  11.108   8.220   5.030 -0.1878  0.5911 -0.2805
37649SOL    HW119552  11.036   8.258   4.980 -0.5660  0.2650  0.0071
37649SOL    HW219553  11.090   8.126   5.029  0.2238  0.5084 -0.1872
37650SOL     OW19554   8.400  12.465   2.553 -0.4986 -0.1404 -0.3467
37650SOL    HW119555   8.477  12.443   2.606  0.2418  0.8431 -0.9874
37650SOL    HW219556   8.435  12.488   2.468 -1.5448  0.0163 -0.7482
37651SOL     OW19557   0.387   0.668  10.118  0.3359 -0.3671 -0.6467
37651SOL    HW119558   0.326   0.732  10.082  0.1457 -0.1441  0.0606
37651SOL    HW219559   0.350   0.583  10.095 -2.1736 -0.3964  2.6494
37652SOL     OW19560   4.968   8.207   5.392  0.1570  0.2628  1.3668
37652SOL    HW119561   5.051   8.238   5.355 -0.3126 -0.3188 -0.2750
37652SOL    HW219562   4.984   8.202   5.486  2.7726 -1.9495  0.9588
37653SOL     OW19563   0.096   9.772   4.209  0.1482  0.8737 -0.6673
37653SOL    HW119564   0.084   9.727   4.125 -1.6858  0.1101 -0.0495
37653SOL    HW219565   0.089   9.703   4.274 -0.1171  1.6977  0.1992
37654SOL     OW19566   4.568   4.069   7.017 -0.6730 -0.2921 -0.3854
37654SOL    HW119567   4.487   4.120   7.028 -0.9724 -0.5181 -1.4153
37654SOL    HW219568   4.626   4.100   7.086 -2.1009 -1.0553  1.2508
37655SOL     OW19569  12.057   8.950  10.890  0.0388  0.9729  0.1694
37655SOL    HW119570  12.015   8.904  10.963  1.7813 -0.1161  0.5654
37655SOL    HW219571  12.043   9.043  10.909 -1.7152  0.6687  0.5208
37656SOL     OW19572   5.455   4.862   7.301  0.0778 -0.3710  0.2031
37656SOL    HW119573   5.401   4.855   7.380  1.2877  2.7605  1.4776
37656SOL    HW219574   5.540   4.894   7.333  0.8050  0.3989 -2.3090
37657SOL     OW19575   3.910   7.273   5.112 -0.1141 -0.1504  0.6092
37657SOL    HW119576   3.939   7.362   5.131 -0.3371 -0.0165  0.3430
37657SOL    HW219577   3.881   7.239   5.197 -0.5886  0.2441  0.6181
37658SOL     OW19578   4.271   2.685   7.449  0.4200 -0.4908  0.0092
37658SOL    HW119579   4.234   2.731   7.524 -0.5036  1.4652 -1.5607
37658SOL    HW219580   4.197   2.634   7.414 -0.2457  1.4813 -1.6625
37659SOL     OW19581   4.758   3.034   9.156 -0.2674  0.1068 -0.0038
37659SOL    HW119582   4.776   3.010   9.065 -1.1549  0.6483 -0.3398
37659SOL    HW219583   4.834   3.086   9.183  1.0156 -1.8170  0.2817
37660SOL     OW19584   6.554   3.959   1.663  0.1826 -0.3869 -0.3616
37660SOL    HW119585   6.598   4.004   1.591  1.0233 -0.0006  0.3814
37660SOL    HW219586   6.601   3.987   1.742 -1.2223 -0.1687  0.4332
37661SOL     OW19587   4.757   1.432   5.584 -0.3708 -0.2500  0.3198
37661SOL    HW119588   4.846   1.397   5.584  0.8186  2.4843  0.4531
37661SOL    HW219589   4.764   1.515   5.537 -3.0903 -0.4225 -0.5300
37662SOL     OW19590   6.348  10.630  10.456 -0.3447 -0.1962  0.2815
37662SOL    HW119591   6.291  10.554  10.443  0.1089 -0.7845  1.6274
37662SOL    HW219592   6.290  10.706  10.445 -1.5058 -0.7822  2.0375
37663SOL     OW19593   3.889  10.230   5.522 -0.4504  0.4273  0.1666
37663SOL    HW119594   3.804  10.272   5.510 -1.1518 -1.0081 -0.0582
37663SOL    HW219595   3.906  10.185   5.439  0.4167  0.4940  0.2984
37664SOL     OW19596   2.785   7.169   9.659  0.1843  0.1919 -0.2375
37664SOL    HW119597   2.740   7.252   9.672  0.3601  0.4531 -1.1884
37664SOL    HW219598   2.870   7.193   9.622 -0.4999 -0.4731 -2.3751
37665SOL     OW19599   2.395   8.177   1.812  0.1188 -0.7745 -0.0472
37665SOL    HW119600   2.461   8.196   1.879 -0.9148  0.1222  0.7393
37665SOL    HW219601   2.442   8.186   1.729  1.2221 -1.1114  0.5154
37666SOL     OW19602   5.603  10.302   9.367  0.0838  0.5897  0.8655
37666SOL    HW119603   5.618  10.248   9.444 -1.2638  0.6064  1.1669
37666SOL    HW219604   5.507  10.306   9.358 -0.0578  4.4111  2.0050
37667SOL     OW19605   2.120   2.109  12.167  0.1593 -0.0482 -0.0277
37667SOL    HW119606   2.183   2.100  12.239  1.5657  1.5384 -0.9547
37667SOL    HW219607   2.101   2.203  12.165  0.4401  0.0045 -1.9117
37668SOL     OW19608   9.799   7.689   1.500  1.3395  0.1649 -0.4971
37668SOL    HW119609   9.781   7.715   1.590  1.0360  1.5885 -0.9461
37668SOL    HW219610   9.774   7.597   1.497  1.6927 -0.0058  0.9580
37669SOL     OW19611   1.543   8.230   1.476 -0.0953  0.0795  0.7582
37669SOL    HW119612   1.556   8.201   1.386  0.1267  1.5812  0.2920
37669SOL    HW219613   1.463   8.283   1.473  0.8372  1.5534  1.0808
37670SOL     OW19614   6.667   8.091   1.558 -0.2293 -0.1017  0.0131
37670SOL    HW119615   6.677   8.046   1.475 -0.2385  1.3089 -0.7857
37670SOL    HW219616   6.756   8.119   1.582 -0.4982  1.5469 -0.7560
37671SOL     OW19617  11.850   8.208   3.666  0.5018  0.0792  0.0796
37671SOL    HW119618  11.796   8.246   3.597 -1.5685 -1.8111  0.5655
37671SOL    HW219619  11.790   8.196   3.739  1.8042 -1.2840  0.9763
37672SOL     OW19620   4.979  11.538   9.656  0.2349  0.6563 -0.2672
37672SOL    HW119621   4.896  11.585   9.668 -1.1532 -1.5432 -0.7597
37672SOL    HW219622   4.993  11.539   9.562  0.4326  0.4585 -0.2389
37673SOL     OW19623   0.122  12.450   7.393  0.1615  0.2472  0.1367
37673SOL    HW119624   0.083  12.535   7.372 -0.7026 -0.0202  0.5872
37673SOL    HW219625   0.209  12.452   7.353 -0.3637  0.8147 -1.0158
37674SOL     OW19626   1.595   6.387   1.007 -0.6512 -1.0588 -0.9637
37674SOL    HW119627   1.687   6.411   1.023 -0.1055 -1.2317 -3.4995
37674SOL    HW219628   1.578   6.316   1.070  0.8334 -0.8213 -0.2450
37675SOL     OW19629   9.939   7.513   3.392 -1.0827  0.0036  0.2256
37675SOL    HW119630   9.907   7.536   3.304 -0.8482  0.1053  0.1667
37675SOL    HW219631   9.949   7.418   3.389 -0.1548  0.1069 -0.1700
37676SOL     OW19632   2.897   3.739   8.960 -0.3674 -0.4229 -0.0223
37676SOL    HW119633   2.914   3.745   8.866 -0.3333 -1.3594 -0.0838
37676SOL    HW219634   2.980   3.761   9.001 -0.8060  1.7168 -0.1404
37677SOL     OW19635   0.312   4.139   7.723  0.1484 -0.2047 -0.3435
37677SOL    HW119636   0.315   4.058   7.671 -1.4612 -0.7371  0.3313
37677SOL    HW219637   0.282   4.206   7.662  2.0815  0.0640 -1.0666
37678SOL     OW19638  11.121   9.771   2.638 -0.0540  0.3316 -0.1986
37678SOL    HW119639  11.071   9.852   2.633 -0.1359  0.2984  0.0609
37678SOL    HW219640  11.059   9.703   2.609 -0.0828  0.3235 -0.1207
37679SOL     OW19641   2.080   7.213  12.289 -0.0681  0.1397  0.1099
37679SOL    HW119642   2.007   7.248  12.238  0.3236  1.0590  0.1487
37679SOL    HW219643   2.083   7.267  12.367  1.6359  1.2233 -0.6291
37680SOL     OW19644   5.000   4.227  11.443 -0.2287  0.1948 -0.3786
37680SOL    HW119645   4.928   4.259  11.497 -0.7988 -1.2424 -0.2405
37680SOL    HW219646   5.076   4.280  11.470 -1.0607  1.2348 -0.0168
37681SOL     OW19647  12.661   7.170   6.414 -0.8418  0.1113  0.2078
37681SOL    HW119648  12.660   7.227   6.491 -1.5657  1.6817 -0.8908
37681SOL    HW219649  12.732   7.205   6.360 -0.2918 -1.0170  0.1940
37682SOL     OW19650  11.816   6.784   3.834 -0.0266  0.2097  0.0356
37682SOL    HW119651  11.853   6.794   3.921 -0.1161 -0.0672  0.1075
37682SOL    HW219652  11.790   6.872   3.808  0.0962  0.3073  0.2451
37683SOL     OW19653   3.908   6.060   7.814 -0.4808  0.1217  0.8436
37683SOL    HW119654   3.909   6.155   7.801 -1.5569  0.2804  1.7163
37683SOL    HW219655   3.987   6.042   7.865 -1.4335  0.9267  2.7243
37684SOL     OW19656   6.305   4.463  10.339  0.1867  0.0224 -0.8406
37684SOL    HW119657   6.342   4.515  10.267 -3.0972  0.4265 -2.4385
37684SOL    HW219658   6.217   4.498  10.351 -0.2162 -1.6118  1.8467
37685SOL     OW19659   9.809   8.594   4.625 -0.2400  0.3707 -0.1328
37685SOL    HW119660   9.797   8.586   4.530 -1.0774 -0.9615  0.0560
37685SOL    HW219661   9.904   8.589   4.637 -0.0674  1.3417 -0.9535
37686SOL     OW19662   1.966  11.692   9.969 -0.2480  0.3462  0.3087
37686SOL    HW119663   1.944  11.666   9.880 -0.5264 -0.2575  0.5469
37686SOL    HW219664   2.061  11.708   9.966  0.0403 -1.2018  0.2474
37687SOL     OW19665  11.459  12.753  12.077 -0.1863  0.9257  0.0922
37687SOL    HW119666  11.548  12.722  12.060  0.2841  1.5465  1.3553
37687SOL    HW219667  11.465  12.848  12.071 -0.2702  1.1178  2.2221
37688SOL     OW19668  10.409   1.268   4.641 -0.1606  0.1575  0.5151
37688SOL    HW119669  10.484   1.255   4.583 -0.1610 -0.9908  0.7536
37688SOL    HW219670  10.446   1.302   4.722 -0.2018  2.1480 -0.2627
37689SOL     OW19671   9.697   7.801   8.892 -0.2685  0.2364 -0.3155
37689SOL    HW119672   9.718   7.844   8.809  2.4401  0.5326  0.4241
37689SOL    HW219673   9.779   7.759   8.919 -1.8329 -2.2876  0.8411
37690SOL     OW19674   6.972  11.675   5.776  0.6617 -0.9102  0.2166
37690SOL    HW119675   6.899  11.646   5.723  1.1719  1.9354 -2.3208
37690SOL    HW219676   6.931  11.723   5.849  0.0010 -2.1415  0.6791
37691SOL     OW19677   9.320   6.544   4.571 -0.0347 -0.2004  0.3682
37691SOL    HW119678   9.389   6.478   4.579  2.1633  2.0669  1.4020
37691SOL    HW219679   9.337   6.587   4.487 -1.5252 -0.9588 -0.3621
37692SOL     OW19680  10.290   6.723   8.966 -0.2061 -0.6381  0.0523
37692SOL    HW119681  10.267   6.731   8.873 -0.3887  0.1470  0.1537
37692SOL    HW219682  10.342   6.802   8.984  0.4555 -1.1556  0.4391
37693SOL     OW19683   0.352   5.559   9.574 -0.1072  0.3718 -0.0875
37693SOL    HW119684   0.434   5.511   9.561 -0.3777  0.0401 -0.5914
37693SOL    HW219685   0.286   5.491   9.586 -0.1810  0.6370  1.2122
37694SOL     OW19686   2.696   2.180  11.736  0.1731  0.2798 -0.1813
37694SOL    HW119687   2.725   2.266  11.766  0.5810  0.9541 -2.3297
37694SOL    HW219688   2.748   2.118  11.788  0.2265  1.3074  1.0516
37695SOL     OW19689   5.096   0.076   9.998 -1.2996 -0.1821 -0.2220
37695SOL    HW119690   5.016   0.062   9.948 -1.3618  2.0249 -0.8510
37695SOL    HW219691   5.157   0.114   9.934  0.3445 -1.9668  0.1930
37696SOL     OW19692   6.101   9.762   7.181  0.0600 -0.7444  0.2863
37696SOL    HW119693   6.175   9.743   7.238  0.2185 -2.4857 -0.4169
37696SOL    HW219694   6.031   9.705   7.213 -0.8508  0.5684  0.6747
37697SOL     OW19695  11.483  12.660   3.373 -0.7030  0.3749 -0.5694
37697SOL    HW119696  11.466  12.652   3.279 -1.0491  1.3880 -0.6052
37697SOL    HW219697  11.565  12.708   3.379 -1.7605  2.2686 -0.3768
37698SOL     OW19698   6.338  12.725   7.721  0.6420 -0.1928 -0.4198
37698SOL    HW119699   6.352  12.819   7.711  1.6053 -0.2310  0.4020
37698SOL    HW219700   6.249  12.717   7.756 -0.5484  0.2317 -3.1182
37699SOL     OW19701   1.111  11.787   5.480 -0.1131 -0.0655 -0.1263
37699SOL    HW119702   1.026  11.830   5.480  0.2388  0.6464  0.6791
37699SOL    HW219703   1.106  11.725   5.407 -1.0575  0.4713 -0.5371
37700SOL     OW19704  11.458   1.130   9.990  0.1329 -0.2661 -0.5324
37700SOL    HW119705  11.365   1.126   9.966 -0.0471 -1.9570  0.3205
37700SOL    HW219706  11.497   1.055   9.945  0.9678  0.0563 -0.3588
37701SOL     OW19707  10.399   2.453   1.010  0.1028  0.4525 -0.1807
37701SOL    HW119708  10.398   2.424   0.918 -0.0691  1.3764 -0.4755
37701SOL    HW219709  10.309   2.441   1.039  0.4263 -1.0996  0.2892
37702SOL     OW19710   5.971   3.564   7.803  0.6564  0.7347  0.7804
37702SOL    HW119711   6.011   3.532   7.884  0.2432 -1.8013  0.0810
37702SOL    HW219712   6.026   3.527   7.734 -1.1670 -0.4257 -0.1316
37703SOL     OW19713  10.078   6.802   4.473 -0.4211  0.1998  0.4751
37703SOL    HW119714  10.058   6.882   4.522  0.9314  1.2127 -0.5596
37703SOL    HW219715  10.002   6.789   4.417 -0.6301  0.7896  0.6077
37704SOL     OW19716   2.672  12.000   7.721 -0.0140  0.0988  0.7371
37704SOL    HW119717   2.654  11.912   7.687 -3.2213  0.3018  1.6104
37704SOL    HW219718   2.735  11.986   7.792  0.0740 -1.3633  0.4083
37705SOL     OW19719   1.120   5.275   7.778 -0.5308 -0.3499 -0.2713
37705SOL    HW119720   1.158   5.321   7.703 -1.8313 -0.4745 -1.0270
37705SOL    HW219721   1.092   5.190   7.743  0.6820 -1.2421  0.8228
37706SOL     OW19722  10.587  12.022   4.750 -0.9534 -0.7503  0.7160
37706SOL    HW119723  10.497  12.001   4.773 -0.9788  0.1318  1.4938
37706SOL    HW219724  10.626  12.054   4.832 -0.3559  0.2686  0.0529
37707SOL     OW19725   9.925   6.616   0.990  0.0201  0.5754  0.0306
37707SOL    HW119726  10.015   6.584   0.988  0.9166  2.9401 -0.3492
37707SOL    HW219727   9.908   6.633   1.083  1.5126  3.9313 -0.1742
37708SOL     OW19728   6.250   2.187   7.349 -0.0828  0.1268 -0.1759
37708SOL    HW119729   6.254   2.169   7.255 -1.4713 -0.1648 -0.1952
37708SOL    HW219730   6.172   2.241   7.359 -0.6479 -0.8704  0.9606
37709SOL     OW19731  11.622   8.034   3.806 -0.0454 -0.4422 -0.0597
37709SOL    HW119732  11.693   7.971   3.794 -0.3117 -0.5003 -1.4335
37709SOL    HW219733  11.548   7.980   3.834 -0.6205 -0.9686 -2.4138
37710SOL     OW19734  10.882   2.076   0.740  0.7301 -0.0134 -0.6867
37710SOL    HW119735  10.953   2.083   0.804  1.6566 -0.1742 -1.6542
37710SOL    HW219736  10.904   2.142   0.674  0.6794 -0.9433 -1.6515
37711SOL     OW19737   1.907   0.049   2.824 -0.0875 -0.1772 -0.4917
37711SOL    HW119738   1.852   0.092   2.890  1.5042  1.0106  0.1102
37711SOL    HW219739   1.899   0.105   2.747  0.1641 -0.0741 -0.4440
37712SOL     OW19740   0.936   4.821   0.365 -0.2074 -0.0103  0.0547
37712SOL    HW119741   0.841   4.808   0.370 -0.2077  0.0584  0.2029
37712SOL    HW219742   0.946   4.896   0.306 -0.1940 -0.8810 -1.0975
37713SOL     OW19743   4.000   0.888   0.264  0.2186 -0.4015  0.4578
37713SOL    HW119744   4.065   0.841   0.317  0.1989 -0.1351  0.7211
37713SOL    HW219745   4.033   0.978   0.260  0.5627 -0.5524 -0.5292
37714SOL     OW19746   1.573   2.966   5.100  0.7781 -0.7126 -0.1046
37714SOL    HW119747   1.487   2.961   5.059  1.7574  0.7421 -2.5099
37714SOL    HW219748   1.617   2.885   5.074  0.3461 -1.2226  0.7089
37715SOL     OW19749   6.928   6.555   6.518  0.1994 -0.2836  0.8031
37715SOL    HW119750   7.000   6.588   6.464  0.0900 -2.1354 -0.5250
37715SOL    HW219751   6.867   6.628   6.522  1.3108  0.7076  0.4652
37716SOL     OW19752  11.107   9.448   2.913  0.0993 -0.2626  0.1302
37716SOL    HW119753  11.151   9.474   2.994  1.5074  0.8161 -0.9426
37716SOL    HW219754  11.017   9.480   2.924  0.2406 -0.2078  1.2891
37717SOL     OW19755   5.568   7.659   3.449 -0.0043 -0.3286  0.5761
37717SOL    HW119756   5.580   7.709   3.529  0.0008  0.5348  0.0465
37717SOL    HW219757   5.497   7.598   3.469  1.0500 -1.2480  1.7465
37718SOL     OW19758   3.251  10.772   3.598  0.4582 -0.0604  0.0333
37718SOL    HW119759   3.204  10.691   3.616  0.7772  0.0480  1.4826
37718SOL    HW219760   3.275  10.765   3.505  0.2316 -1.4889  0.0470
37719SOL     OW19761   7.918  12.264  11.474 -0.2466  0.2633 -0.0793
37719SOL    HW119762   7.847  12.240  11.533 -0.3493 -1.1442 -0.7351
37719SOL    HW219763   7.997  12.227  11.515 -0.3796 -1.1368 -0.9980
37720SOL     OW19764   8.124  10.067  11.234  0.1692  0.2337  0.0404
37720SOL    HW119765   8.207  10.089  11.191  0.5899  0.2448  0.8508
37720SOL    HW219766   8.073  10.148  11.231  0.6905  0.5882  0.6851
37721SOL     OW19767   4.276  11.499  12.588  0.0682  0.5020 -0.0188
37721SOL    HW119768   4.344  11.485  12.522  0.2465 -1.3097  0.5037
37721SOL    HW219769   4.240  11.412  12.604 -2.5403  1.4361 -0.4206
37722SOL     OW19770  12.498   2.139   7.543  0.1936  0.4178  0.2141
37722SOL    HW119771  12.505   2.198   7.468 -0.0343  0.6999  0.4130
37722SOL    HW219772  12.548   2.182   7.612  1.9328 -0.6893 -0.2835
37723SOL     OW19773  11.987   1.396  12.262  0.5351  0.8192 -0.5748
37723SOL    HW119774  12.066   1.448  12.271  1.0087  0.1394 -0.6591
37723SOL    HW219775  11.945   1.399  12.348  0.3392  1.6577 -0.6906
37724SOL     OW19776   8.805   5.212   8.824  0.3980 -0.3556  0.3984
37724SOL    HW119777   8.791   5.285   8.764  0.3953 -0.4605  0.2710
37724SOL    HW219778   8.899   5.193   8.819  0.7122  0.7301  1.6922
37725SOL     OW19779   4.903   3.234  10.801  0.4746 -0.5180  0.6554
37725SOL    HW119780   4.860   3.202  10.880  1.2475  0.3794  1.4626
37725SOL    HW219781   4.835   3.230  10.733  0.0612 -2.1714  1.1184
37726SOL     OW19782  12.277   9.127  11.291  0.0593  0.0010 -0.6161
37726SOL    HW119783  12.251   9.219  11.291  0.9850  0.2945  1.1314
37726SOL    HW219784  12.371   9.128  11.275  0.0695 -0.6440 -0.6200
37727SOL     OW19785   7.426   5.072  12.140 -0.2032 -0.1814 -0.4675
37727SOL    HW119786   7.366   5.035  12.076 -0.5509  0.7102 -0.6733
37727SOL    HW219787   7.456   5.155  12.101 -0.0531  0.1441  0.3062
37728SOL     OW19788   7.638   0.306  11.086 -0.8093  0.5551 -0.0386
37728SOL    HW119789   7.578   0.347  11.148  0.5299  1.8983  0.4231
37728SOL    HW219790   7.725   0.336  11.113  0.3671 -2.9073  0.6030
37729SOL     OW19791   2.843   6.419   3.878 -0.1469  0.2140 -0.0285
37729SOL    HW119792   2.934   6.431   3.906 -0.1852  0.3961  0.0261
37729SOL    HW219793   2.844   6.341   3.824 -0.0420 -0.0668  0.3732
37730SOL     OW19794   2.673   8.807   6.626 -0.0347 -0.6023 -0.7074
37730SOL    HW119795   2.759   8.834   6.596 -0.5633 -0.5446 -2.2738
37730SOL    HW219796   2.654   8.727   6.576 -0.2193 -1.5703  0.8322
37731SOL     OW19797   5.817   0.577   5.692 -0.4212  0.3642 -0.2481
37731SOL    HW119798   5.908   0.549   5.686 -0.7400 -0.8556  0.3325
37731SOL    HW219799   5.820   0.671   5.675  0.8550  0.2294 -0.8924
37732SOL     OW19800   3.948  10.317  11.156  0.1331  0.0322  0.4385
37732SOL    HW119801   3.856  10.311  11.182  0.6060  0.3783  2.2913
37732SOL    HW219802   3.945  10.362  11.071 -1.5127 -1.8123 -0.5907
37733SOL     OW19803   3.824   9.238  10.187  0.4806 -0.3419  0.7813
37733SOL    HW119804   3.904   9.289  10.175  0.4915 -0.4683  0.3019
37733SOL    HW219805   3.772   9.289  10.249  0.0657  0.7728 -0.4308
37734SOL     OW19806   3.415   8.280  10.137 -0.2189  0.0979 -0.2713
37734SOL    HW119807   3.451   8.353  10.186  0.2900 -0.2575 -0.1043
37734SOL    HW219808   3.427   8.303  10.045  1.0108 -0.2831 -0.2223
37735SOL     OW19809   0.701   4.695  10.613 -0.1207  0.3074  0.5255
37735SOL    HW119810   0.642   4.727  10.545 -0.1255  1.2061  0.9372
37735SOL    HW219811   0.733   4.611  10.579 -0.7095  0.3763 -0.2349
37736SOL     OW19812   4.267   6.080   3.630  0.8292  0.0526  0.8704
37736SOL    HW119813   4.269   6.080   3.725  0.6829 -1.9144  0.9207
37736SOL    HW219814   4.331   6.013   3.605  0.7507  0.4309 -0.4137
37737SOL     OW19815   1.979  10.835   2.242 -0.2743 -0.2470  0.0768
37737SOL    HW119816   2.035  10.872   2.310 -0.1415 -0.9239  0.3401
37737SOL    HW219817   2.037  10.820   2.168 -0.8083  2.5190 -1.0109
37738SOL     OW19818   8.088  11.163   0.822  0.0795  0.0990 -0.0636
37738SOL    HW119819   8.144  11.228   0.864 -3.0346  2.5135  0.7318
37738SOL    HW219820   8.050  11.114   0.895 -0.1710 -0.3458 -0.4887
37739SOL     OW19821   8.711   8.171   7.464  0.7171 -0.0858  0.6147
37739SOL    HW119822   8.630   8.125   7.487  0.7105  0.5118  1.9086
37739SOL    HW219823   8.766   8.104   7.424 -0.0357 -0.7395  0.6456
37740SOL     OW19824   0.758   2.110   3.495  0.0291 -0.1623 -0.1730
37740SOL    HW119825   0.717   2.050   3.558 -1.3110  1.1423  0.2812
37740SOL    HW219826   0.693   2.120   3.426  0.1771  0.7936 -0.1957
37741SOL     OW19827   8.760   2.933   8.048  0.6448 -0.6892  0.1954
37741SOL    HW119828   8.693   2.920   7.980  0.6669  0.5919 -0.0980
37741SOL    HW219829   8.755   2.853   8.101  0.9331 -1.9528 -1.5610
37742SOL     OW19830   1.057  12.325  11.126 -0.2736 -0.0814  0.0359
37742SOL    HW119831   1.033  12.283  11.209  0.5057  0.3374  0.4872
37742SOL    HW219832   1.081  12.414  11.151  2.5817 -0.6815 -0.2132
37743SOL     OW19833  10.600  11.998  11.657 -0.4711 -0.0097  0.0353
37743SOL    HW119834  10.566  12.054  11.727  0.0200  0.8581 -0.4028
37743SOL    HW219835  10.685  11.968  11.690 -0.2575  0.3673 -0.1640
37744SOL     OW19836  12.133   0.502   6.732  0.0272 -0.2507 -0.7298
37744SOL    HW119837  12.157   0.530   6.820  1.7633  0.5165 -1.3930
37744SOL    HW219838  12.214   0.512   6.681 -0.7868 -1.1942 -2.2854
37745SOL     OW19839  10.319   7.497   1.602 -0.0459 -0.7664 -0.2026
37745SOL    HW119840  10.336   7.492   1.696  1.0595 -0.1877 -0.3589
37745SOL    HW219841  10.256   7.568   1.593 -0.6430 -1.2390  0.1487
37746SOL     OW19842   3.099   7.872   8.975 -0.3293 -0.2037 -0.2026
37746SOL    HW119843   3.143   7.807   8.921 -0.0656 -0.0832 -0.1323
37746SOL    HW219844   3.106   7.954   8.925 -1.9697 -0.5149 -1.0145
37747SOL     OW19845   8.754   4.342   2.757 -0.7647 -0.2872 -0.6969
37747SOL    HW119846   8.771   4.436   2.760 -0.9770 -0.2572 -0.4144
37747SOL    HW219847   8.720   4.328   2.668 -3.1973  0.3498  0.0569
37748SOL     OW19848  12.502   1.472   1.917 -0.2953 -0.1453  0.0594
37748SOL    HW119849  12.584   1.423   1.910  1.0533  1.9933  0.1416
37748SOL    HW219850  12.445   1.416   1.970  1.7277 -0.8996  1.5325
37749SOL     OW19851   5.026   7.420   4.836 -0.1951 -0.0766  0.6137
37749SOL    HW119852   4.937   7.385   4.832 -0.1386 -0.0933 -1.9230
37749SOL    HW219853   5.080   7.345   4.859 -0.7339 -0.2349  1.4193
37750SOL     OW19854  10.973  11.285   6.846  0.1277 -0.1888  0.5204
37750SOL    HW119855  10.974  11.192   6.822 -2.7875 -0.2884  0.4678
37750SOL    HW219856  11.007  11.287   6.936 -0.2930 -1.3840  0.7235
37751SOL     OW19857   0.118   2.198   5.660 -0.2091  0.2830  0.5202
37751SOL    HW119858   0.031   2.223   5.689 -0.9448 -0.0430 -1.2818
37751SOL    HW219859   0.144   2.127   5.719 -1.6591 -0.4166  0.3401
37752SOL     OW19860   3.545   6.359  11.044 -0.2472 -0.0357  0.0164
37752SOL    HW119861   3.617   6.409  11.081  0.7911  0.7870 -2.8780
37752SOL    HW219862   3.492   6.334  11.119  3.2546 -1.0914  2.3808
37753SOL     OW19863   0.189  11.787  11.918 -0.5975  0.3596 -0.1411
37753SOL    HW119864   0.118  11.812  11.977 -0.4694  0.7318 -0.1420
37753SOL    HW219865   0.145  11.754  11.840 -0.7665  0.3081 -0.0254
37754SOL     OW19866   4.393   8.972   3.817  0.1321  0.1057 -0.1195
37754SOL    HW119867   4.363   9.019   3.894 -2.3141 -1.0521 -0.2765
37754SOL    HW219868   4.436   8.894   3.852 -1.3046 -0.6115  0.1356
37755SOL     OW19869   9.047   5.652  11.766  0.0030  0.7287 -0.3005
37755SOL    HW119870   8.966   5.615  11.732 -0.4127 -0.6459  1.9487
37755SOL    HW219871   9.111   5.639  11.696 -0.9219 -1.3646 -0.8246
37756SOL     OW19872   4.712   4.648  12.050 -0.1506 -0.5741 -0.5474
37756SOL    HW119873   4.748   4.610  11.971 -1.3730 -2.9361 -0.0598
37756SOL    HW219874   4.686   4.737  12.025 -0.3680 -1.2108 -2.7230
37757SOL     OW19875   6.300  11.562   7.523  0.0368 -0.4919  0.5227
37757SOL    HW119876   6.333  11.606   7.601  1.1644 -0.2916 -0.0329
37757SOL    HW219877   6.377  11.554   7.466 -0.9072  0.1690 -0.9316
37758SOL     OW19878   0.760   4.344   7.956  0.1117  0.5767 -0.4893
37758SOL    HW119879   0.676   4.305   7.931  0.3458 -1.0635  1.1167
37758SOL    HW219880   0.762   4.340   8.051  2.4980 -0.5255 -0.5027
37759SOL     OW19881   0.979   2.933  10.905 -0.4394  0.0348 -0.2812
37759SOL    HW119882   1.018   3.001  10.960  0.3076 -0.3058 -0.3775
37759SOL    HW219883   0.885   2.947  10.912 -0.3301  0.3950  0.5777
37760SOL     OW19884   5.580   0.167   7.563 -0.1237 -0.2971 -0.6943
37760SOL    HW119885   5.515   0.236   7.577 -0.2270 -0.5018 -0.1457
37760SOL    HW219886   5.630   0.164   7.644 -0.9598 -1.7338 -0.1905
37761SOL     OW19887  10.180   3.497  12.403 -0.1864  0.2323  0.5970
37761SOL    HW119888  10.115   3.474  12.336 -0.0991  1.5836  0.0089
37761SOL    HW219889  10.128   3.532  12.476 -0.2061 -0.0391  0.7135
37762SOL     OW19890   7.025   6.523   0.391 -0.0506 -0.2756  0.8377
37762SOL    HW119891   7.049   6.433   0.415  0.7103 -0.4472 -0.4832
37762SOL    HW219892   7.090   6.578   0.434  0.5477 -0.4980  0.2475
37763SOL     OW19893   9.261   8.652   5.883 -0.4863  0.1072  0.1258
37763SOL    HW119894   9.316   8.594   5.937  0.4084  0.4070 -0.4508
37763SOL    HW219895   9.173   8.641   5.920 -0.5401 -2.3180 -0.5124
37764SOL     OW19896   2.712   2.838   3.208  0.1159 -0.1880  0.4136
37764SOL    HW119897   2.678   2.922   3.238 -1.0582 -0.3925 -0.2500
37764SOL    HW219898   2.699   2.779   3.282  2.0806  0.4696  1.3171
37765SOL     OW19899   1.038   2.113   8.976 -0.1103  0.0148  0.1887
37765SOL    HW119900   0.957   2.152   8.944 -1.0626  0.7314  3.1298
37765SOL    HW219901   1.088   2.187   9.010  1.4970 -0.5121 -0.9326
37766SOL     OW19902   8.494   6.838   1.666 -0.1463  0.0704 -0.0778
37766SOL    HW119903   8.465   6.897   1.737  0.1306 -0.1862  0.2531
37766SOL    HW219904   8.485   6.891   1.587 -2.2613 -0.2423 -0.0964
37767SOL     OW19905   1.251  11.299  12.126 -0.0622  0.1677  0.2707
37767SOL    HW119906   1.323  11.356  12.153  1.4434 -2.3791  2.0088
37767SOL    HW219907   1.294  11.228  12.077 -1.5764 -0.6637  0.1024
37768SOL     OW19908  10.659   6.464  10.995 -0.1477  0.5625  0.3826
37768SOL    HW119909  10.639   6.499  10.908  0.7550 -1.5988 -0.7687
37768SOL    HW219910  10.723   6.525  11.032  0.5266  0.7475 -1.0464
37769SOL     OW19911  12.527   2.755   0.982 -0.4596 -0.3642  0.4863
37769SOL    HW119912  12.467   2.818   0.942  1.5154  0.7813 -0.8770
37769SOL    HW219913  12.532   2.683   0.920  1.3140  0.6414 -0.6273
37770SOL     OW19914   0.084   5.865  12.383 -0.7649  0.1986  0.1986
37770SOL    HW119915   0.089   5.780  12.427 -1.9354  0.1697  0.2937
37770SOL    HW219916   0.156   5.916  12.421 -0.0526 -0.7339  0.1383
37771SOL     OW19917   8.752   0.282   2.851 -0.3308 -0.0485 -0.2606
37771SOL    HW119918   8.711   0.232   2.921  0.5759  0.8803  0.9728
37771SOL    HW219919   8.682   0.337   2.816 -0.7443 -0.3680  0.0606
37772SOL     OW19920   1.618   5.353   6.800 -0.6553 -0.0379 -0.2390
37772SOL    HW119921   1.585   5.271   6.836 -2.7833  1.1909  0.8408
37772SOL    HW219922   1.540   5.407   6.788  0.8116  2.7939  1.6952
37773SOL     OW19923   3.223   4.781  11.864 -0.8010  0.0460 -0.1644
37773SOL    HW119924   3.241   4.710  11.804 -0.4254 -2.0960  2.2943
37773SOL    HW219925   3.146   4.825  11.828  0.2011 -0.2235 -2.8401
37774SOL     OW19926   8.699   8.216   8.699 -0.4435  0.0947  0.0008
37774SOL    HW119927   8.748   8.250   8.774  0.5230  0.4404 -0.7633
37774SOL    HW219928   8.719   8.277   8.628  0.4061 -1.3992 -1.1017
37775SOL     OW19929   1.319   7.747   8.841 -0.1509  0.1637 -0.4801
37775SOL    HW119930   1.277   7.722   8.758  0.8694 -0.6922 -0.7497
37775SOL    HW219931   1.246   7.778   8.896 -0.5650  3.6206 -2.6603
37776SOL     OW19932   4.077  10.391   7.222 -0.0200 -0.3673  0.7132
37776SOL    HW119933   4.170  10.370   7.224 -0.1422 -0.9616  0.3206
37776SOL    HW219934   4.070  10.474   7.270  0.8347  0.1520 -0.0153
37777SOL     OW19935   5.072   7.121   3.259  0.4333  0.2372 -0.6162
37777SOL    HW119936   5.130   7.074   3.318  0.4262  1.3365  0.3142
37777SOL    HW219937   5.128   7.149   3.187  1.0973  1.2722  0.2613
37778SOL     OW19938   9.307   7.011   2.049  0.4267 -0.3841  0.2701
37778SOL    HW119939   9.266   7.041   1.968 -1.6613 -0.3885  1.2677
37778SOL    HW219940   9.389   6.970   2.021  0.2567  0.5403 -1.7185
37779SOL     OW19941   0.829   9.096   7.800  0.2353  0.5713  0.4930
37779SOL    HW119942   0.912   9.063   7.834 -0.1745 -0.0099  0.9459
37779SOL    HW219943   0.854   9.165   7.738  1.0564  0.3259  0.5409
37780SOL     OW19944   1.457   8.649   1.452  0.0078  0.0571 -0.4988
37780SOL    HW119945   1.504   8.717   1.404 -0.0667 -1.0593 -2.2370
37780SOL    HW219946   1.385   8.695   1.494  0.8587  1.2939 -0.3254
37781SOL     OW19947   1.556  12.087   2.300  0.6175 -0.2695 -1.0158
37781SOL    HW119948   1.607  12.081   2.219  0.4711 -0.6685 -1.0823
37781SOL    HW219949   1.622  12.102   2.368  1.1648 -3.1890 -0.7522
37782SOL     OW19950   0.655   9.700   9.588 -0.0839 -0.2857 -0.0829
37782SOL    HW119951   0.584   9.736   9.641  0.4569 -0.8484  1.0428
37782SOL    HW219952   0.724   9.766   9.594  0.1259 -0.5338  0.2502
37783SOL     OW19953   0.947   7.073   5.001  0.1824  0.0472 -0.3259
37783SOL    HW119954   0.892   7.084   4.924  0.2081  0.0570 -0.3429
37783SOL    HW219955   0.948   7.159   5.042  0.8322  0.2562 -0.7611
37784SOL     OW19956   3.147   6.660   9.188  0.1816 -0.1325 -0.0587
37784SOL    HW119957   3.153   6.746   9.147 -1.5543  0.9755  1.8165
37784SOL    HW219958   3.216   6.660   9.254  0.2202 -0.2123 -0.0989
37785SOL     OW19959   2.170  11.841  10.884  0.3749 -0.6452  0.1043
37785SOL    HW119960   2.097  11.794  10.843 -0.4658  2.2129 -2.0025
37785SOL    HW219961   2.231  11.858  10.813  0.5634  1.5081  0.7210
37786SOL     OW19962   3.148   0.362   9.547  0.5229 -0.2566 -0.2909
37786SOL    HW119963   3.126   0.401   9.631 -2.9460 -3.5660  0.5698
37786SOL    HW219964   3.104   0.418   9.482 -0.1480  0.0485  0.4178
37787SOL     OW19965  10.314   5.961   9.922 -0.0212  0.4405 -0.8831
37787SOL    HW119966  10.369   5.921   9.989  0.1067  2.1132  0.0764
37787SOL    HW219967  10.269   5.887   9.880  0.4374 -0.7086  0.5646
37788SOL     OW19968   2.417   0.277   3.785 -0.9447  0.0833 -0.2866
37788SOL    HW119969   2.363   0.198   3.779 -1.0719  0.0099  1.4400
37788SOL    HW219970   2.448   0.278   3.875 -0.4889  1.7152 -0.4377
37789SOL     OW19971  11.714   1.995  10.766 -0.5223 -0.3635  0.4818
37789SOL    HW119972  11.774   2.009  10.693  0.8145  1.2855  1.7998
37789SOL    HW219973  11.771   1.974  10.840 -1.4660  1.7228  1.9047
37790SOL     OW19974   4.356  10.115   6.521  0.7921  0.4482  0.9047
37790SOL    HW119975   4.352  10.173   6.445 -0.8133 -0.9459 -0.1359
37790SOL    HW219976   4.286  10.145   6.578 -2.3452 -2.3224 -1.1477
37791SOL     OW19977  12.340  12.533  10.944 -0.1823 -0.0354  0.2581
37791SOL    HW119978  12.385  12.537  10.860 -2.6459 -2.0958 -1.3042
37791SOL    HW219979  12.396  12.478  11.000  0.9600  0.4857 -0.3432
37792SOL     OW19980  10.711  11.461   2.325  0.7050 -0.0469 -0.2712
37792SOL    HW119981  10.767  11.538   2.341  0.2533  0.1829  0.1999
37792SOL    HW219982  10.675  11.476   2.237 -1.7444  1.7950  0.9381
37793SOL     OW19983   6.888   9.414   3.998 -0.3456 -0.5531  0.0305
37793SOL    HW119984   6.944   9.346   4.036  0.9041  0.6207  0.3644
37793SOL    HW219985   6.822   9.430   4.066 -0.1633 -0.8519  0.2834
37794SOL     OW19986   6.478  12.071   2.948 -0.3713  0.0751  0.1614
37794SOL    HW119987   6.405  12.130   2.926 -1.1376 -1.4482 -1.6840
37794SOL    HW219988   6.439  11.983   2.946  0.7512 -0.5765  2.7708
37795SOL     OW19989   2.293   8.959   9.414 -0.1261 -0.1276 -0.3553
37795SOL    HW119990   2.289   8.872   9.454 -2.7807  0.1559  0.2277
37795SOL    HW219991   2.355   9.007   9.469  0.3383 -1.2604  0.1526
37796SOL     OW19992   8.415   5.269   0.518 -0.1409  0.4565  0.1665
37796SOL    HW119993   8.499   5.259   0.562 -0.3845  0.4351  0.6335
37796SOL    HW219994   8.387   5.358   0.539  0.0066  0.6485 -0.4222
37797SOL     OW19995  12.699   6.770   3.383 -0.2345 -0.0542 -0.3012
37797SOL    HW119996  12.685   6.856   3.344  0.1833  0.0099 -0.3111
37797SOL    HW219997  12.772   6.733   3.333  1.3143  0.6235  1.3653
37798SOL     OW19998   1.597  12.596   4.187  0.0774 -0.0726 -0.0095
37798SOL    HW119999   1.611  12.547   4.268 -0.3053  0.2885  0.2796
37798SOL    HW220000   1.648  12.549   4.121 -0.3100 -0.8770  0.2553
37799SOL     OW20001   8.955   5.940   0.524  0.0236 -0.4032  0.2145
37799SOL    HW120002   8.964   6.025   0.566 -0.3125 -0.9060  1.3465
37799SOL    HW220003   9.029   5.934   0.464  0.4270  0.3984  0.6282
37800SOL     OW20004   4.283   4.960   4.821  0.2905 -0.3270 -0.4802
37800SOL    HW120005   4.270   5.050   4.790  0.2976 -0.2861 -0.3636
37800SOL    HW220006   4.199   4.936   4.859  1.5874  1.4170  4.1379
37801SOL     OW20007   1.864   7.961   9.482  0.9496 -0.0902 -0.0707
37801SOL    HW120008   1.905   8.039   9.520  1.9594 -1.3126  1.4932
37801SOL    HW220009   1.779   7.955   9.525  0.8562  0.1660 -0.2181
37802SOL     OW20010   9.203   9.130   0.112 -0.4164 -0.7170  0.4011
37802SOL    HW120011   9.225   9.107   0.203  0.3905  0.7799  0.6244
37802SOL    HW220012   9.285   9.163   0.076 -0.8401 -0.8940 -0.7440
37803SOL     OW20013   7.663   7.801   1.606 -0.3426  0.3692 -0.2083
37803SOL    HW120014   7.648   7.710   1.583 -1.4531  0.5061 -0.0609
37803SOL    HW220015   7.695   7.841   1.524 -0.7665  0.0535 -0.5314
37804SOL     OW20016  10.574   9.880   1.204  0.6405  0.2866  0.6472
37804SOL    HW120017  10.636   9.907   1.137  1.4416 -0.9058  0.8746
37804SOL    HW220018  10.593   9.788   1.219 -1.1050 -0.0765  0.8336
37805SOL     OW20019   2.618   8.994  11.002  0.2834  0.5608  0.5796
37805SOL    HW120020   2.528   9.011  10.974  1.0163 -0.9802 -3.4240
37805SOL    HW220021   2.622   8.899  11.014  1.3969  0.5762  0.4900
37806SOL     OW20022   9.369  12.650   0.616 -0.2796  0.5522  0.0127
37806SOL    HW120023   9.385  12.590   0.543 -0.2821  2.3729 -1.5982
37806SOL    HW220024   9.275  12.647   0.630 -0.1965 -0.3433  0.4705
37807SOL     OW20025   6.237   2.010   4.809  1.0869  0.0933  0.1819
37807SOL    HW120026   6.191   1.927   4.810  0.9024  0.1962  0.2106
37807SOL    HW220027   6.168   2.076   4.814  1.2630  0.2349  0.8500
37808SOL     OW20028   5.577  12.273   2.315  0.7392 -0.1089 -0.1528
37808SOL    HW120029   5.647  12.312   2.368 -0.4345  0.1709  1.2377
37808SOL    HW220030   5.501  12.271   2.373 -0.0254 -1.7842 -1.1365
37809SOL     OW20031   2.438  12.485   2.902 -0.1762  0.5419  0.1120
37809SOL    HW120032   2.483  12.569   2.891 -0.4917  0.5599 -1.0918
37809SOL    HW220033   2.432  12.475   2.997 -0.8100  2.2462  0.2995
37810SOL     OW20034   5.241   1.102   1.011 -0.2028  0.0128 -0.3111
37810SOL    HW120035   5.228   1.176   0.951 -3.5354 -0.8549 -0.8654
37810SOL    HW220036   5.211   1.026   0.962 -0.9247 -1.0641  1.6925
37811SOL     OW20037  11.978   2.274  10.453 -0.1704  0.0214  0.2203
37811SOL    HW120038  11.921   2.324  10.511  0.9236  0.4516  0.9596
37811SOL    HW220039  11.976   2.185  10.488  2.8700  0.8306  2.9683
37812SOL     OW20040  11.691   0.440   1.792  0.0870  0.0880  0.2482
37812SOL    HW120041  11.671   0.363   1.846  1.2341 -0.4855 -0.1205
37812SOL    HW220042  11.613   0.494   1.799 -0.4960 -0.8132  1.0337
37813SOL     OW20043   1.596   9.829   4.800 -0.3734  0.3186  0.3110
37813SOL    HW120044   1.669   9.798   4.748 -0.4226  1.5054 -0.5081
37813SOL    HW220045   1.519   9.812   4.746 -0.4031  1.7762 -0.1499
37814SOL     OW20046  11.161  12.042   1.395  0.1260 -0.9112 -0.4016
37814SOL    HW120047  11.236  11.982   1.401  1.1167  0.3021 -0.3357
37814SOL    HW220048  11.197  12.122   1.356 -1.2726 -0.5063 -0.9304
37815SOL     OW20049   5.786   4.747  11.287 -0.1406  0.2331  0.2152
37815SOL    HW120050   5.785   4.807  11.361 -0.5978 -0.9216  1.1843
37815SOL    HW220051   5.702   4.760  11.243  0.8169  2.1655 -1.2010
37816SOL     OW20052   1.601   9.781   4.312  0.0664 -0.3609 -0.1687
37816SOL    HW120053   1.665   9.848   4.287 -0.2388  0.0899  0.2649
37816SOL    HW220054   1.516   9.824   4.306 -0.1771 -0.8560 -0.3893
37817SOL     OW20055  11.830  11.569  10.816 -0.2527  0.7150  0.1095
37817SOL    HW120056  11.830  11.609  10.903  0.3132  1.9893 -0.4515
37817SOL    HW220057  11.793  11.482  10.830  0.5832  0.5728  1.7687
37818SOL     OW20058   6.550   9.082  11.917 -0.1970 -0.1727  0.7084
37818SOL    HW120059   6.619   9.133  11.874  0.3076 -0.5832  1.0258
37818SOL    HW220060   6.493   9.053  11.845 -0.0802  0.2219  0.4522
37819SOL     OW20061  12.151   6.171  11.476  0.4607  0.1294  0.5369
37819SOL    HW120062  12.107   6.163  11.391  0.3643 -1.1995  0.6860
37819SOL    HW220063  12.116   6.097  11.528  1.6081  0.0499  1.2275
37820SOL     OW20064   7.407   4.592   2.351  0.3217 -0.0589 -0.2009
37820SOL    HW120065   7.369   4.579   2.438 -0.0795  1.1429 -0.1886
37820SOL    HW220066   7.462   4.515   2.338  3.3880  1.4060  2.6906
37821SOL     OW20067   6.718   2.329  11.193 -0.2284 -0.1793  0.0597
37821SOL    HW120068   6.795   2.300  11.243 -0.0753 -1.4483 -0.8488
37821SOL    HW220069   6.707   2.262  11.126 -1.1946  0.8122 -0.8124
37822SOL     OW20070   5.392   6.736   2.515 -0.6491 -0.0872  0.5580
37822SOL    HW120071   5.360   6.658   2.469  1.9692 -0.2802 -1.1684
37822SOL    HW220072   5.449   6.701   2.584  1.6040  0.1575 -1.0494
37823SOL     OW20073   4.724   1.247   6.114 -0.1391  0.6631  0.0615
37823SOL    HW120074   4.649   1.201   6.152  0.9788 -0.4076  1.0489
37823SOL    HW220075   4.785   1.259   6.187  1.3260  0.0951 -1.0266
37824SOL     OW20076   4.759   0.064   7.784 -0.2563  0.9352  0.7712
37824SOL    HW120077   4.766   0.075   7.878  4.2311  0.8623  0.6709
37824SOL    HW220078   4.771   0.151   7.748 -0.3907  0.7420  0.2435
37825SOL     OW20079   0.413  10.823  12.276  0.2754  0.4609 -0.3194
37825SOL    HW120080   0.443  10.734  12.254 -0.3131 -0.4273  2.1397
37825SOL    HW220081   0.494  10.872  12.291  0.5991 -0.1911  0.1407
37826SOL     OW20082   1.769   1.787  11.734  0.3318 -0.2818  0.3566
37826SOL    HW120083   1.854   1.811  11.771  0.0574  1.5369 -0.0698
37826SOL    HW220084   1.791   1.737  11.655  1.0042 -0.2227  0.4994
37827SOL     OW20085  12.245   3.779   5.681 -0.4137  0.4623  0.2116
37827SOL    HW120086  12.179   3.769   5.749 -0.0825 -0.8889  0.3717
37827SOL    HW220087  12.327   3.753   5.723 -0.0327  0.6519 -0.4009
37828SOL     OW20088   5.114   9.745   3.959  0.4785  0.5224 -0.0099
37828SOL    HW120089   5.187   9.802   3.983  1.3688  0.2924 -2.0124
37828SOL    HW220090   5.122   9.734   3.865 -1.9735  0.2149 -0.2462
37829SOL     OW20091   7.022   2.284   3.463 -0.1746 -0.1307 -0.2789
37829SOL    HW120092   7.057   2.298   3.375 -2.1766 -2.2890 -1.5107
37829SOL    HW220093   6.961   2.357   3.476  1.4201  1.2018  0.1281
37830SOL     OW20094   6.039   1.697   6.680 -0.3227  0.0041 -0.5238
37830SOL    HW120095   6.044   1.602   6.685  0.3726 -0.0480 -1.6166
37830SOL    HW220096   6.086   1.718   6.598  0.1274  1.3205  0.0503
37831SOL     OW20097   5.324  11.220   9.924 -0.3859  0.7350 -0.0370
37831SOL    HW120098   5.250  11.217   9.985 -1.0129 -3.3668 -0.7364
37831SOL    HW220099   5.283  11.218   9.837  0.5415  0.3410 -0.4731
37832SOL     OW20100  11.698  10.737   4.551 -0.2722 -0.1485 -0.2893
37832SOL    HW120101  11.671  10.827   4.533 -0.6234 -0.1469  0.2195
37832SOL    HW220102  11.617  10.693   4.578 -0.0555 -0.5534 -0.2907
37833SOL     OW20103   3.055   1.034   2.511  0.5471  0.0225  0.1767
37833SOL    HW120104   3.069   1.127   2.493 -1.2143  0.1110 -0.9180
37833SOL    HW220105   3.087   1.022   2.601  2.9956  1.1327 -0.4538
37834SOL     OW20106   0.170  10.242   3.638  0.0769  0.2163 -0.0828
37834SOL    HW120107   0.250  10.246   3.585  0.2076  0.0612  0.1052
37834SOL    HW220108   0.201  10.222   3.726 -0.1788  0.0650 -0.0291
37835SOL     OW20109   7.552   4.683  10.683 -0.2191 -0.0627 -0.3922
37835SOL    HW120110   7.591   4.665  10.768 -0.6914  1.2553  0.1207
37835SOL    HW220111   7.571   4.605  10.631  2.5560  0.2466  0.0030
37836SOL     OW20112   9.896   5.894  11.564  0.3102  0.1481  0.4841
37836SOL    HW120113   9.921   5.802  11.557 -0.0464  0.0411  0.5766
37836SOL    HW220114   9.953   5.929  11.633 -0.4040 -0.3189  1.3368
37837SOL     OW20115  11.551   6.032   0.866 -0.1566 -0.5064  0.3728
37837SOL    HW120116  11.500   5.952   0.856 -1.4802  0.1505  1.5189
37837SOL    HW220117  11.605   6.036   0.787 -1.8967 -1.2482 -0.9325
37838SOL     OW20118   6.225   0.312   4.253  0.0280 -0.3657 -0.4494
37838SOL    HW120119   6.147   0.256   4.245 -0.4861  0.3693 -0.7420
37838SOL    HW220120   6.284   0.280   4.184  0.5723 -1.8051  0.6345
37839SOL     OW20121  11.996   2.923  11.978 -0.3423 -0.2145 -0.3846
37839SOL    HW120122  12.004   2.874  12.059 -0.8652 -0.5638 -0.5443
37839SOL    HW220123  12.020   3.013  12.002  0.2597 -0.4674 -0.0183
37840SOL     OW20124   8.202   8.446   2.616 -0.1893 -0.8726 -0.5765
37840SOL    HW120125   8.167   8.360   2.593 -0.5469 -0.9184  0.0937
37840SOL    HW220126   8.126   8.504   2.610  0.3020 -0.3503 -2.2449
37841SOL     OW20127   5.476   8.645   7.695 -0.0956  0.0727 -0.3222
37841SOL    HW120128   5.517   8.608   7.617 -0.4939 -1.8854  0.3360
37841SOL    HW220129   5.382   8.642   7.677 -0.1379  1.0258 -0.3351
37842SOL     OW20130   6.995   8.670  10.101 -0.5484 -0.1696  0.4458
37842SOL    HW120131   6.942   8.727  10.156 -0.3149  2.0176 -1.4379
37842SOL    HW220132   7.086   8.694  10.123 -0.4528  1.3218 -1.3521
37843SOL     OW20133   7.393   5.632   4.666  0.0461  0.1930 -0.2503
37843SOL    HW120134   7.408   5.541   4.690  2.3467  0.0273 -1.9612
37843SOL    HW220135   7.447   5.683   4.726  1.3068  0.1506 -1.2923
37844SOL     OW20136   1.099   9.430   1.495  0.1740  0.6693 -0.2006
37844SOL    HW120137   1.103   9.370   1.570 -0.2745  1.7565  0.7272
37844SOL    HW220138   1.122   9.516   1.531 -1.0999  1.4198 -1.0708
37845SOL     OW20139   2.305   3.554  11.503  0.0937  0.2822 -0.0260
37845SOL    HW120140   2.312   3.560  11.407 -0.0402  0.1377 -0.0447
37845SOL    HW220141   2.285   3.462  11.520  0.4367  0.2387  0.1598
37846SOL     OW20142   8.473  11.442   0.302 -0.5207  0.0629  0.1657
37846SOL    HW120143   8.443  11.508   0.239 -0.5335 -0.1463 -0.0457
37846SOL    HW220144   8.404  11.440   0.368 -0.5333  0.2426  0.1596
37847SOL     OW20145  10.296   8.096   4.960  0.4531  0.1833  0.0515
37847SOL    HW120146  10.304   8.088   5.055  0.5107 -1.7069 -0.0826
37847SOL    HW220147  10.275   8.189   4.946  1.2947  0.6960  1.8306
37848SOL     OW20148   4.793  12.067   5.114 -0.5484  0.0413  0.1377
37848SOL    HW120149   4.874  12.016   5.125 -0.2580 -0.1486 -2.2862
37848SOL    HW220150   4.744  12.053   5.195  1.3221 -0.7952  1.1854
37849SOL     OW20151   4.633   0.705   9.447  0.4088 -0.1736 -0.7673
37849SOL    HW120152   4.629   0.742   9.535 -2.0338  1.6099 -1.5207
37849SOL    HW220153   4.592   0.619   9.455 -0.4811  0.2901 -0.2927
37850SOL     OW20154   0.157   9.975   1.053  0.4524  0.3692 -0.2818
37850SOL    HW120155   0.156  10.060   1.007 -2.7288  1.8506  2.1651
37850SOL    HW220156   0.114   9.915   0.993  0.4192  1.1115 -1.0270
37851SOL     OW20157   2.596   8.543   6.553  0.1997  0.0828  0.3560
37851SOL    HW120158   2.502   8.533   6.533 -0.1067 -2.0446  2.4163
37851SOL    HW220159   2.608   8.497   6.636  2.8428  1.5362  0.8871
37852SOL     OW20160  10.293   3.456   3.856  0.5907  0.7890 -0.3063
37852SOL    HW120161  10.349   3.531   3.875  1.2416  0.1790  0.2449
37852SOL    HW220162  10.351   3.395   3.809  0.6150 -0.1673  0.9380
37853SOL     OW20163   1.843   6.769   1.723  0.9503 -0.5121  0.0496
37853SOL    HW120164   1.897   6.838   1.684  0.6177  0.4334  1.1934
37853SOL    HW220165   1.894   6.740   1.799  1.3815 -2.0000 -0.7746
37854SOL     OW20166   6.741   0.937   2.169 -0.1530 -0.5291 -0.0199
37854SOL    HW120167   6.833   0.913   2.158  0.1837  1.5452 -2.9406
37854SOL    HW220168   6.743   1.024   2.209 -0.3997  1.5478 -3.9454
37855SOL     OW20169   3.443   2.195   7.732 -0.2263 -0.1247 -0.2405
37855SOL    HW120170   3.486   2.270   7.774 -1.1279  0.1296  0.2533
37855SOL    HW220171   3.441   2.128   7.800  2.4173 -1.3877 -1.2751
37856SOL     OW20172   7.992   7.175   3.887 -0.0584 -0.1749  0.8808
37856SOL    HW120173   7.942   7.095   3.873 -1.0151  0.6369 -0.6055
37856SOL    HW220174   7.932   7.233   3.935  0.4476 -0.1574  1.5051
37857SOL     OW20175   3.349  10.900   4.654  0.1432 -0.2796  0.0841
37857SOL    HW120176   3.285  10.951   4.605 -0.2240 -0.4346  0.3999
37857SOL    HW220177   3.298  10.853   4.719  0.8048  1.3747  1.8857
37858SOL     OW20178   9.149   0.135  12.138  0.2479 -0.2049 -0.1827
37858SOL    HW120179   9.177   0.120  12.229 -0.2081  0.7324  0.1170
37858SOL    HW220180   9.058   0.161  12.145  0.0691 -0.6118 -0.9613
37859SOL     OW20181  12.636   4.410   0.478  0.4088 -0.2750 -0.4683
37859SOL    HW120182  12.605   4.429   0.566  2.1163 -0.3839  0.1991
37859SOL    HW220183  12.632   4.494   0.432  4.2518  1.0879  1.2946
37860SOL     OW20184  11.042   1.023   5.895  0.1562  0.3043 -0.3390
37860SOL    HW120185  11.048   1.017   5.990 -0.0854  0.5819 -0.3059
37860SOL    HW220186  11.015   1.113   5.878 -0.8332 -0.0289 -0.6219
37861SOL     OW20187   2.804   6.301   5.479  0.0120  0.1487 -0.4663
37861SOL    HW120188   2.743   6.259   5.540  0.7910 -0.6601 -0.2326
37861SOL    HW220189   2.799   6.247   5.400 -0.9560  1.1628 -1.1376
37862SOL     OW20190   7.447   9.101   7.923 -0.2874  0.2137 -0.4087
37862SOL    HW120191   7.385   9.151   7.976  1.7384  1.7712  0.6459
37862SOL    HW220192   7.504   9.057   7.986  1.4305  1.1359 -1.2414
37863SOL     OW20193   0.373   1.803   9.375  0.3203  0.4451  0.0470
37863SOL    HW120194   0.279   1.817   9.364  0.0265 -1.6602 -0.7171
37863SOL    HW220195   0.393   1.836   9.463 -1.1341  0.9055  0.2237
37864SOL     OW20196   6.928   5.584  10.012  0.0592 -0.2943  0.2927
37864SOL    HW120197   6.863   5.571  10.082  0.5786  0.8380  1.0175
37864SOL    HW220198   6.959   5.673  10.025 -0.8094  0.4750 -2.2582
37865SOL     OW20199   1.196   1.032   2.590 -1.0070  0.1430  0.0185
37865SOL    HW120200   1.247   0.975   2.533  0.1897 -0.9353  2.0458
37865SOL    HW220201   1.117   1.053   2.540  0.4172  0.0844 -2.3700
37866SOL     OW20202   5.649   2.509  12.509 -0.4417  0.0926 -0.1594
37866SOL    HW120203   5.684   2.449  12.575 -2.1433 -0.0500  0.6458
37866SOL    HW220204   5.658   2.461  12.427  1.5320  0.1988 -0.0671
37867SOL     OW20205   3.033   2.787   3.204  0.2854  0.4410 -0.2772
37867SOL    HW120206   3.113   2.805   3.155  0.0638  0.4375 -0.6491
37867SOL    HW220207   3.039   2.695   3.229  0.4450  0.4697 -0.2105
37868SOL     OW20208   6.826   9.936   3.388  0.9024  0.0406  0.2714
37868SOL    HW120209   6.781   9.851   3.397  0.0234  0.3804 -0.6654
37868SOL    HW220210   6.918   9.913   3.373  0.5605 -0.7829 -0.6560
37869SOL     OW20211   4.207   5.169  10.186 -0.3824  0.1266 -1.0311
37869SOL    HW120212   4.183   5.252  10.146 -0.3884 -0.0508 -1.4077
37869SOL    HW220213   4.207   5.107  10.113  2.6013  0.3811 -1.3676
37870SOL     OW20214  10.826   6.217   8.476 -0.6408  0.3601 -0.1173
37870SOL    HW120215  10.809   6.310   8.463 -0.4155  0.2686 -1.1041
37870SOL    HW220216  10.878   6.214   8.557  1.2520  1.3096 -1.2321
37871SOL     OW20217   6.622   6.475  10.443  0.5096 -0.2665 -0.4995
37871SOL    HW120218   6.586   6.429  10.367 -1.1179  1.0889 -0.6100
37871SOL    HW220219   6.568   6.554  10.450  1.2229  0.0774  1.5314
37872SOL     OW20220  10.757   4.955  10.360  0.2580  0.4397 -0.1634
37872SOL    HW120221  10.720   4.903  10.289  1.4939  0.6936 -1.0254
37872SOL    HW220222  10.784   4.890  10.425  1.6909 -0.0336 -1.1803
37873SOL     OW20223  11.033  11.412   1.044 -0.2982  0.0669  0.2987
37873SOL    HW120224  11.037  11.390   0.951 -0.4289 -0.4780  0.4166
37873SOL    HW220225  10.985  11.339   1.084 -0.3226  0.3410  0.7783
37874SOL     OW20226   0.165  11.748  11.499 -0.6295  0.1187  0.5194
37874SOL    HW120227   0.111  11.820  11.467 -0.5796 -0.4596 -0.9132
37874SOL    HW220228   0.252  11.786  11.511 -0.5864  0.2847 -0.2987
37875SOL     OW20229  11.100  10.678  12.195  0.3779  0.4406 -0.2766
37875SOL    HW120230  11.175  10.732  12.218 -1.2519  2.7916 -0.1274
37875SOL    HW220231  11.063  10.652  12.280  0.9792 -0.7169 -0.3496
37876SOL     OW20232  10.201   7.485   5.231  0.6626  0.2854  0.3247
37876SOL    HW120233  10.266   7.476   5.300 -0.1977 -0.8221  1.0100
37876SOL    HW220234  10.139   7.551   5.264  1.6019  1.6350 -0.4938
37877SOL     OW20235   3.177  11.269   1.528  0.2499 -0.0626  0.2608
37877SOL    HW120236   3.082  11.277   1.521  0.1425  1.5097  2.2899
37877SOL    HW220237   3.210  11.354   1.498  1.0516 -0.6694 -0.6308
37878SOL     OW20238   5.195  12.072   4.662  0.2849  0.0095 -0.0873
37878SOL    HW120239   5.128  12.105   4.603  0.4723  0.3915 -0.0900
37878SOL    HW220240   5.157  11.993   4.701  0.0385 -0.0642 -0.4760
37879SOL     OW20241   0.937  10.318   0.457 -0.2187  0.2367 -0.0580
37879SOL    HW120242   0.904  10.325   0.546 -0.7911  1.0671 -0.3224
37879SOL    HW220243   0.926  10.226   0.434  0.2030 -0.0374  0.8273
37880SOL     OW20244   0.118   5.927  11.522 -0.2582  0.2385 -0.0900
37880SOL    HW120245   0.174   5.878  11.582 -0.4950 -1.4167 -1.1494
37880SOL    HW220246   0.030   5.895  11.540 -0.5342  0.9125 -0.2188
37881SOL     OW20247   5.445  12.631   3.052 -0.2969  0.2192 -0.1554
37881SOL    HW120248   5.420  12.614   2.961  0.2759  0.5971 -0.3891
37881SOL    HW220249   5.435  12.725   3.063  2.0304  0.5907 -0.6002
37882SOL     OW20250   3.604   5.865   1.530 -0.0680  0.3489 -0.9747
37882SOL    HW120251   3.598   5.909   1.445 -0.5337  0.6487 -0.7911
37882SOL    HW220252   3.693   5.883   1.560 -0.1646  0.9535 -1.0263
37883SOL     OW20253  11.908   5.689  10.291 -0.1713  0.2223  0.4801
37883SOL    HW120254  11.927   5.729  10.376 -1.6998  1.0196  0.4773
37883SOL    HW220255  11.952   5.746  10.227 -0.1033  0.3666  0.6549
37884SOL     OW20256   9.135  12.759   4.402  0.6333 -0.3256 -0.1648
37884SOL    HW120257   9.204  12.717   4.454  0.6413  0.3717  0.3997
37884SOL    HW220258   9.171  12.762   4.313  1.0162 -0.6542 -0.0249
37885SOL     OW20259   4.116   8.144   0.613 -0.1454  0.1322  0.0141
37885SOL    HW120260   4.166   8.164   0.692  0.2186  0.9697 -0.4173
37885SOL    HW220261   4.179   8.102   0.554 -0.2359  0.1617 -0.1050
37886SOL     OW20262   6.373   7.645   0.744 -0.1031  0.3875 -0.2173
37886SOL    HW120263   6.401   7.576   0.684  0.4453 -0.9057  1.4526
37886SOL    HW220264   6.454   7.690   0.767 -0.3613  1.1247 -0.6960
37887SOL     OW20265   5.952   9.835   5.421 -0.4660 -0.0835 -0.0915
37887SOL    HW120266   6.034   9.829   5.470 -1.4079 -0.2363  1.5446
37887SOL    HW220267   5.936   9.747   5.389 -1.3320 -0.7261  1.9441
37888SOL     OW20268  10.423   5.706   4.048  0.3528 -0.1177  0.2796
37888SOL    HW120269  10.384   5.758   4.119  0.3826  0.3211 -0.0153
37888SOL    HW220270  10.349   5.683   3.992  0.5051  0.7725 -0.3169
37889SOL     OW20271   1.766   2.512   7.196  0.1883  0.3156 -0.0191
37889SOL    HW120272   1.804   2.492   7.111  0.3102  0.4145  0.0119
37889SOL    HW220273   1.718   2.432   7.220  3.3076 -1.2633  1.5982
37890SOL     OW20274   4.361  10.508   8.657 -0.1637 -0.0755  0.2585
37890SOL    HW120275   4.355  10.604   8.665  0.6394 -0.1238  1.9447
37890SOL    HW220276   4.455  10.490   8.665 -0.1936 -0.9401 -1.1692
37891SOL     OW20277   7.155   8.668   7.850 -0.0430 -0.0191 -0.4239
37891SOL    HW120278   7.076   8.670   7.904  1.5546 -0.1074  2.1063
37891SOL    HW220279   7.176   8.759   7.834  0.8617  0.1320  1.3979
37892SOL     OW20280   4.494  10.868   9.714 -0.0291  0.2722 -0.3240
37892SOL    HW120281   4.483  10.774   9.705 -1.0377  0.4701 -1.4235
37892SOL    HW220282   4.529  10.880   9.803 -1.3309 -1.0218  0.3995
37893SOL     OW20283   6.619   9.656   3.043 -0.0572  0.6264 -0.2306
37893SOL    HW120284   6.572   9.575   3.065 -1.6035  1.7267  0.7269
37893SOL    HW220285   6.691   9.661   3.106  0.2707 -0.1709 -0.5304
37894SOL     OW20286   9.670   5.560   3.695 -0.0718 -0.0060  0.5990
37894SOL    HW120287   9.591   5.588   3.647  0.2047 -0.4074 -0.1196
37894SOL    HW220288   9.731   5.633   3.686 -0.6563  0.6641  1.8961
37895SOL     OW20289   9.987   1.322   6.828  0.1484  0.4681  0.3604
37895SOL    HW120290   9.985   1.228   6.848 -0.6539  0.1291 -1.1785
37895SOL    HW220291  10.062   1.355   6.878 -0.6017 -0.6325  2.3267
37896SOL     OW20292   4.284   8.085   8.403 -0.1576 -0.0405  0.0968
37896SOL    HW120293   4.296   8.104   8.496 -0.0879  0.5243 -0.0219
37896SOL    HW220294   4.190   8.077   8.391 -0.1148 -1.2651  0.4247
37897SOL     OW20295  10.506  12.267   5.346 -0.8429  0.0130 -0.6073
37897SOL    HW120296  10.457  12.314   5.279 -0.4541 -2.3779 -2.7185
37897SOL    HW220297  10.459  12.184   5.356  0.0821 -0.3823  0.8912
37898SOL     OW20298   2.466   7.197   1.668  0.4840 -0.5933 -0.0682
37898SOL    HW120299   2.542   7.146   1.697  0.6485 -0.0154  0.5322
37898SOL    HW220300   2.398   7.178   1.733 -0.0148 -1.3762 -0.7888
37899SOL     OW20301   3.740   9.010   3.631  0.1123 -0.2009  0.5216
37899SOL    HW120302   3.737   9.069   3.707 -1.1248 -0.9147  1.0458
37899SOL    HW220303   3.821   8.960   3.643 -0.1937 -0.4777  1.4989
37900SOL     OW20304   6.357   8.623   6.548 -0.6129 -0.1672  0.1617
37900SOL    HW120305   6.385   8.694   6.605  0.9811 -0.1093 -0.6388
37900SOL    HW220306   6.305   8.666   6.479 -0.9497  0.0044  0.5188
37901SOL     OW20307   1.961  12.365   8.581  0.6043  0.8448 -0.0220
37901SOL    HW120308   1.961  12.304   8.655  3.1896  1.5244  0.6776
37901SOL    HW220309   1.877  12.353   8.539  0.1472 -1.5818  1.4067
37902SOL     OW20310   5.998   4.975  11.301 -0.2647  0.5056  0.1628
37902SOL    HW120311   6.020   4.882  11.300  0.9988  0.7304 -2.8021
37902SOL    HW220312   5.915   4.981  11.254 -0.8032  0.8085  1.1291
37903SOL     OW20313   7.694  10.321   4.656 -0.1808 -0.4046  0.4636
37903SOL    HW120314   7.780  10.318   4.699 -0.1474 -0.0400  0.4234
37903SOL    HW220315   7.639  10.264   4.710  0.6866 -2.6193 -0.8794
37904SOL     OW20316   8.834  10.915  10.192 -0.0198 -0.1952  0.2314
37904SOL    HW120317   8.845  10.998  10.239 -0.1720 -0.6215  1.0489
37904SOL    HW220318   8.859  10.934  10.102 -1.9083  1.2489 -0.0620
37905SOL     OW20319   7.100   3.534   7.495  0.2254 -0.2389  0.1481
37905SOL    HW120320   7.060   3.455   7.461  1.3306 -0.6827 -0.1568
37905SOL    HW220321   7.085   3.530   7.590 -0.1515 -0.5564  0.0767
37906SOL     OW20322   0.343  10.891  10.102 -0.7192  0.5019 -0.3387
37906SOL    HW120323   0.324  10.850  10.186 -0.9237 -1.6456 -1.3611
37906SOL    HW220324   0.427  10.854  10.075 -1.2112  0.2142 -1.5893
37907SOL     OW20325   6.528   8.054  12.454  0.5902 -0.1919 -0.2027
37907SOL    HW120326   6.599   8.023  12.398  1.5924 -0.3589  1.0967
37907SOL    HW220327   6.524   8.148  12.438  0.3801 -0.3437 -1.0704
37908SOL     OW20328  12.169   5.335   7.635 -0.0366 -0.2898  0.0421
37908SOL    HW120329  12.158   5.383   7.717 -1.8323  0.7613 -0.7630
37908SOL    HW220330  12.183   5.244   7.663 -1.9958 -0.2088  1.5255
37909SOL     OW20331  12.327   3.703   6.876  0.5464 -0.1305 -0.5625
37909SOL    HW120332  12.353   3.659   6.956 -2.0276 -0.2012  0.3300
37909SOL    HW220333  12.279   3.636   6.827 -1.2389  0.9278 -0.3388
37910SOL     OW20334   4.155   5.558   9.665 -0.3810  0.1499  0.3197
37910SOL    HW120335   4.190   5.573   9.753 -0.4578  1.8781  0.0886
37910SOL    HW220336   4.161   5.463   9.652  0.3100 -0.0436  1.8964
37911SOL     OW20337   3.703   7.045   4.930 -0.0962 -0.2860  0.5134
37911SOL    HW120338   3.626   7.038   4.873  0.4877 -0.0452 -0.3221
37911SOL    HW220339   3.716   7.139   4.941  0.1861 -0.3239  0.5038
37912SOL     OW20340   7.083   2.432   6.268 -0.4858 -0.1171  0.4985
37912SOL    HW120341   7.046   2.467   6.187 -1.8350 -2.1582  0.1672
37912SOL    HW220342   7.077   2.504   6.330  1.1391  1.7042 -1.3034
37913SOL     OW20343   7.357  11.071   9.049 -0.1438 -0.2943 -0.6433
37913SOL    HW120344   7.391  11.007   9.112 -0.5341  1.1683  1.1408
37913SOL    HW220345   7.284  11.112   9.095 -0.8924  0.3484 -2.3544
37914SOL     OW20346  10.452   2.198  10.800  0.1678  0.2280  0.0365
37914SOL    HW120347  10.400   2.228  10.725  1.8948  0.4757 -1.1231
37914SOL    HW220348  10.465   2.104  10.784  0.7099  0.3221 -0.0815
37915SOL     OW20349   6.546   3.907   5.340  0.3580 -0.4232 -0.3035
37915SOL    HW120350   6.621   3.869   5.293  0.4568  0.1535 -0.6315
37915SOL    HW220351   6.487   3.834   5.356  1.9002 -1.3013  1.7622
37916SOL     OW20352   5.965  11.333   8.055  0.6051 -0.2369 -0.3399
37916SOL    HW120353   5.956  11.242   8.024 -0.7185 -0.0177 -0.6702
37916SOL    HW220354   6.010  11.378   7.983  0.6543 -0.4778 -0.4634
37917SOL     OW20355   9.161   3.956  10.195 -0.1345  0.0455 -0.2107
37917SOL    HW120356   9.187   4.028  10.252  0.3023  0.5209 -0.9806
37917SOL    HW220357   9.077   3.927  10.228 -0.7247  1.4746 -0.3872
37918SOL     OW20358   2.740   8.850   9.340 -0.6755  0.1131  0.3747
37918SOL    HW120359   2.790   8.778   9.300 -0.1876 -0.3124  1.6915
37918SOL    HW220360   2.750   8.836   9.434  1.0436  2.9515  0.7499
37919SOL     OW20361   7.073   3.637   4.888 -0.4253 -0.6127 -0.2233
37919SOL    HW120362   7.052   3.551   4.851 -1.6320 -1.0976  1.4771
37919SOL    HW220363   6.990   3.685   4.885  0.4578  0.9473 -2.1338
37920SOL     OW20364  10.533   9.460  11.524 -0.3453 -0.1448 -0.1403
37920SOL    HW120365  10.502   9.550  11.516  0.0868 -0.1079 -1.6724
37920SOL    HW220366  10.470   9.418  11.583 -1.6148  0.6899 -0.8525
37921SOL     OW20367  12.545  12.214   0.567 -0.3580  0.2515  0.0335
37921SOL    HW120368  12.507  12.194   0.652  0.4325  0.5920  0.4837
37921SOL    HW220369  12.478  12.264   0.521 -0.3712  1.0470  0.8966
37922SOL     OW20370   0.494   2.227   7.837  0.4065 -0.0869  0.1390
37922SOL    HW120371   0.566   2.169   7.813 -0.5979 -1.7358  0.9206
37922SOL    HW220372   0.419   2.168   7.850 -0.9395  1.4966 -0.0599
37923SOL     OW20373   6.724   0.405   0.329  0.2251  0.1144 -0.2419
37923SOL    HW120374   6.631   0.421   0.320  0.4767  1.1919 -1.1407
37923SOL    HW220375   6.734   0.311   0.314 -0.7220 -0.0291  0.0012
37924SOL     OW20376   0.511   7.365   4.200 -0.0045 -0.2805  0.9612
37924SOL    HW120377   0.581   7.324   4.148 -0.3968 -0.3822  0.5000
37924SOL    HW220378   0.502   7.308   4.276  0.7046 -0.0288  1.2448
37925SOL     OW20379  12.618   0.872   2.833 -0.9495 -0.1749  0.1736
37925SOL    HW120380  12.671   0.798   2.864  1.3556  1.0454 -0.6143
37925SOL    HW220381  12.603   0.925   2.912  1.1423  0.6858  0.0497
37926SOL     OW20382  12.461   2.425   4.177 -0.1276 -0.1668  0.7597
37926SOL    HW120383  12.479   2.414   4.270  0.2316 -2.3456  0.4987
37926SOL    HW220384  12.370   2.398   4.167 -0.2388  0.2958  0.5111
37927SOL     OW20385   3.809   0.288   8.053  0.5903  0.3886 -0.2016
37927SOL    HW120386   3.898   0.288   8.017  0.0649  0.3768 -1.5564
37927SOL    HW220387   3.777   0.376   8.038  0.2343  0.2840 -0.0678
37928SOL     OW20388  10.758   9.359   9.645 -0.1663  0.6286  0.2290
37928SOL    HW120389  10.696   9.357   9.718  0.0782  0.0887  0.4314
37928SOL    HW220390  10.836   9.402   9.681 -0.2210  0.8048  0.1397
37929SOL     OW20391   3.873   2.018   6.978 -0.3290  0.1305  0.1007
37929SOL    HW120392   3.860   1.984   7.067 -1.8548  0.5687  0.0759
37929SOL    HW220393   3.907   2.106   6.990 -0.6992  0.2534  0.2693
37930SOL     OW20394  10.866  11.579  12.092  0.0620 -1.0849 -0.4352
37930SOL    HW120395  10.866  11.484  12.103  0.7529 -1.0206  0.1870
37930SOL    HW220396  10.804  11.611  12.157  1.7876 -0.9401  1.2340
37931SOL     OW20397   6.900   9.457   6.580 -0.0632  0.1854  0.4667
37931SOL    HW120398   6.808   9.436   6.566 -0.4249  0.7038  1.9703
37931SOL    HW220399   6.944   9.422   6.502 -1.2599 -1.7431  0.5785
37932SOL     OW20400   0.936   6.513  11.136  0.2316 -0.6957 -0.2283
37932SOL    HW120401   0.859   6.463  11.162 -0.3914  0.0546 -0.5827
37932SOL    HW220402   1.010   6.469  11.179 -0.7662  0.8252  3.3622
37933SOL     OW20403  11.761   5.941   3.932  0.2925  0.0884  0.2676
37933SOL    HW120404  11.802   5.863   3.895 -0.7260 -0.6947  0.7430
37933SOL    HW220405  11.685   5.908   3.981 -0.2466  1.3877  0.3584
37934SOL     OW20406   3.010   1.183  10.178  0.1617 -0.0790  0.0614
37934SOL    HW120407   3.085   1.191  10.120  1.0446 -2.9286  0.6067
37934SOL    HW220408   3.028   1.244  10.250  1.2893  0.2645 -0.4945
37935SOL     OW20409   8.876  10.509   7.237  0.0301  0.0840  0.1904
37935SOL    HW120410   8.899  10.418   7.254  0.1037 -0.4669 -2.4552
37935SOL    HW220411   8.954  10.559   7.263 -0.1379 -0.5063  1.9960
37936SOL     OW20412   3.195   6.880   9.001  0.3473 -0.8577 -0.3854
37936SOL    HW120413   3.286   6.855   9.015  0.8282  0.1104 -1.5893
37936SOL    HW220414   3.183   6.874   8.906 -0.5936 -0.1316 -0.3289
37937SOL     OW20415  10.318   3.226  12.452  0.1163 -0.2204 -0.2656
37937SOL    HW120416  10.291   3.182  12.533  1.6897  0.8846  0.9329
37937SOL    HW220417  10.260   3.302  12.446  1.2541  0.8091  0.9828
37938SOL     OW20418   1.417   7.419   0.625 -0.0546  0.0503  0.2201
37938SOL    HW120419   1.455   7.506   0.635  1.0850 -0.3136 -0.7874
37938SOL    HW220420   1.361   7.409   0.702 -1.8436  2.4760 -0.6349
37939SOL     OW20421  11.782   3.180   3.839  0.5017 -0.1208  0.2205
37939SOL    HW120422  11.835   3.197   3.761  0.1378  1.5243  0.2997
37939SOL    HW220423  11.700   3.227   3.823 -0.3175 -1.2961  0.7994
37940SOL     OW20424  10.026   4.148  12.086  0.1125 -0.2882  0.1916
37940SOL    HW120425   9.998   4.071  12.037  1.7299 -1.8427  1.5761
37940SOL    HW220426   9.996   4.131  12.175 -1.0409  1.5479  0.2025
37941SOL     OW20427   2.866   2.903   9.420 -0.4254 -0.1067 -0.0648
37941SOL    HW120428   2.919   2.970   9.464 -0.1149  0.6816 -1.5982
37941SOL    HW220429   2.880   2.824   9.473  1.4885  0.3292  0.1421
37942SOL     OW20430  12.648   9.330   0.269  0.5323  0.8854 -0.3409
37942SOL    HW120431  12.630   9.410   0.220 -0.4087  0.7732 -0.2014
37942SOL    HW220432  12.595   9.263   0.227  0.5060  0.5633  0.1884
37943SOL     OW20433   1.376   4.311   5.488 -0.0643  0.9316  0.3001
37943SOL    HW120434   1.350   4.233   5.440 -0.4295  0.9878  0.4057
37943SOL    HW220435   1.467   4.326   5.461  0.4787 -0.3244  1.3411
37944SOL     OW20436   1.010   7.566   7.902  0.2222 -0.0188 -0.6633
37944SOL    HW120437   1.062   7.642   7.928  1.4419 -1.1808  0.4392
37944SOL    HW220438   1.066   7.518   7.840 -0.5835  0.0336 -1.4529
37945SOL     OW20439  12.440   6.747   5.611  0.0135  0.2421 -0.2189
37945SOL    HW120440  12.516   6.799   5.637  1.1945 -1.6010  0.1992
37945SOL    HW220441  12.372   6.773   5.673  1.0617  0.1392  1.0351
37946SOL     OW20442   8.662   3.564   9.798 -0.3905  0.7388  0.3234
37946SOL    HW120443   8.719   3.586   9.725  0.8592  1.4558  1.4890
37946SOL    HW220444   8.600   3.501   9.761  2.1055 -1.3439 -0.6350
37947SOL     OW20445   0.497  10.440   3.336 -0.1946 -0.0774  0.1442
37947SOL    HW120446   0.434  10.398   3.277  0.6255 -0.5664 -0.3922
37947SOL    HW220447   0.568  10.377   3.345  0.4981  0.7015  0.2740
37948SOL     OW20448  11.974   7.059   6.093 -0.3958  0.6063 -0.1056
37948SOL    HW120449  11.894   7.085   6.048 -0.9812  0.7395  0.9740
37948SOL    HW220450  11.989   6.968   6.066 -1.2320  0.3986  0.1191
37949SOL     OW20451   4.168   3.957   9.607 -0.5174 -0.3281  0.6644
37949SOL    HW120452   4.088   3.913   9.638  0.0865 -1.7209  0.2857
37949SOL    HW220453   4.213   3.892   9.554  1.1603  0.2583  1.3089
37950SOL     OW20454   1.435   9.968   8.151  0.0422  0.3755 -0.2863
37950SOL    HW120455   1.372   9.904   8.184  2.4716 -1.8728  0.3522
37950SOL    HW220456   1.393  10.005   8.074 -1.6315 -1.7773 -0.5267
37951SOL     OW20457  11.970   3.367   0.007 -0.0526  0.1367 -0.1581
37951SOL    HW120458  12.009   3.293   0.054  0.8254  0.0408 -0.9955
37951SOL    HW220459  11.885   3.334  -0.023  0.6305 -0.8091 -1.1494
37952SOL     OW20460  10.257  11.802   6.946  0.3232 -0.3013  0.2572
37952SOL    HW120461  10.230  11.719   6.985  1.1021 -0.5226  0.3326
37952SOL    HW220462  10.192  11.818   6.878 -0.4890 -0.3996  0.9870
37953SOL     OW20463  10.328  10.887   2.892 -0.3362  0.3583 -0.2136
37953SOL    HW120464  10.385  10.936   2.952  1.1787 -3.1830  1.5568
37953SOL    HW220465  10.371  10.802   2.882 -3.4925 -1.2447 -1.7915
37954SOL     OW20466  11.130   7.534   3.887  0.1322  0.1379  0.3053
37954SOL    HW120467  11.125   7.622   3.851 -0.6710 -0.7273 -1.8781
37954SOL    HW220468  11.220   7.525   3.918 -0.2488  2.2858  2.2289
37955SOL     OW20469   3.901  12.694   7.169 -0.2418  0.5426 -0.1836
37955SOL    HW120470   3.942  12.608   7.174 -0.9689  0.1758 -0.3806
37955SOL    HW220471   3.945  12.746   7.236 -0.0442 -0.0872  0.1816
37956SOL     OW20472   3.201   4.910   6.683  0.2722 -0.5570  0.1661
37956SOL    HW120473   3.122   4.893   6.632 -0.3589  0.2345  0.8505
37956SOL    HW220474   3.269   4.858   6.640 -0.3283 -0.2443 -1.2115
37957SOL     OW20475   4.009   9.105   7.621  0.1780  0.1738  0.4930
37957SOL    HW120476   4.097   9.138   7.636  0.5646 -0.9708  0.8756
37957SOL    HW220477   4.021   9.013   7.598 -0.7190  0.6501 -2.3026
37958SOL     OW20478   8.688  11.374  11.765  0.1427 -0.3100  0.1332
37958SOL    HW120479   8.627  11.301  11.756  1.8206 -1.5110 -3.6843
37958SOL    HW220480   8.759  11.339  11.820 -0.9029 -0.0659  1.7056
37959SOL     OW20481   8.104   7.880   5.429 -0.2833  0.0525 -0.4531
37959SOL    HW120482   8.106   7.962   5.378 -0.4464  0.9166  0.8854
37959SOL    HW220483   8.027   7.889   5.485 -0.3619 -1.0793 -0.3593
37960SOL     OW20484   2.667   0.066   7.359  0.1615 -0.2819  0.4245
37960SOL    HW120485   2.643  -0.025   7.338  2.7776 -1.1494  0.8831
37960SOL    HW220486   2.641   0.115   7.281  0.2798 -1.7221 -0.5711
37961SOL     OW20487  11.807   4.388  10.022  0.0247  0.0704  0.1696
37961SOL    HW120488  11.863   4.355   9.952  0.7675 -0.2296  0.8883
37961SOL    HW220489  11.868   4.415  10.091 -0.7171 -0.4484  1.0568
37962SOL     OW20490   7.100   4.788   1.000 -0.3765  0.5127 -0.1656
37962SOL    HW120491   7.018   4.742   1.020 -0.5441  1.0443  0.3976
37962SOL    HW220492   7.158   4.764   1.072  0.4453 -0.9837 -1.2770
37963SOL     OW20493   3.911   7.312  12.069 -0.2637  0.2613  0.1240
37963SOL    HW120494   3.940   7.314  11.977  0.2857 -0.3020  0.2812
37963SOL    HW220495   3.927   7.223  12.098 -0.2684  0.4808  0.8256
37964SOL     OW20496   2.967   0.372   0.872 -0.0484  0.1020  0.0214
37964SOL    HW120497   2.898   0.326   0.920  3.4736 -1.6222  4.1082
37964SOL    HW220498   2.979   0.454   0.921  0.6769  0.4641 -0.7529
37965SOL     OW20499   9.204  11.824   9.427  0.0195  0.6757 -0.1569
37965SOL    HW120500   9.205  11.889   9.357 -2.8301 -1.5945 -2.5806
37965SOL    HW220501   9.113  11.822   9.457  0.4235 -0.8956  1.1288
37966SOL     OW20502   2.117   3.588   1.361  0.5346  0.3371  0.1859
37966SOL    HW120503   2.207   3.602   1.392  0.6015 -0.4855  0.3835
37966SOL    HW220504   2.104   3.494   1.366 -0.5082  0.4873  0.6156
37967SOL     OW20505  12.084   8.183  11.907  0.3344 -0.0105 -0.2367
37967SOL    HW120506  12.043   8.228  11.833 -0.6889  1.2455  1.0455
37967SOL    HW220507  12.176   8.177  11.884  0.4007  2.2197 -0.7265
37968SOL     OW20508   8.557   7.697  10.564 -0.6443  0.5739 -0.6475
37968SOL    HW120509   8.582   7.717  10.654  0.0949 -0.1147 -0.6917
37968SOL    HW220510   8.492   7.627  10.573  0.0491 -0.0857 -0.6729
37969SOL     OW20511   3.604  12.706  10.906  0.4249  0.2467 -0.4467
37969SOL    HW120512   3.591  12.611  10.902  0.8650  0.2026 -0.8125
37969SOL    HW220513   3.516  12.741  10.923 -0.0773 -0.1021 -2.1508
37970SOL     OW20514   6.678   4.148   3.359  0.2200 -0.2233  0.3512
37970SOL    HW120515   6.761   4.101   3.362 -0.0198 -0.6385  0.4674
37970SOL    HW220516   6.640   4.125   3.274  0.9203  1.1723 -0.3794
37971SOL     OW20517   2.686   1.319  11.993 -0.1072 -0.0613 -0.2377
37971SOL    HW120518   2.649   1.380  11.929  0.6554  0.8253  0.1424
37971SOL    HW220519   2.676   1.233  11.953 -0.5402  0.3818 -1.1118
37972SOL     OW20520  12.650   3.182  10.632 -0.3428  0.1764  0.3142
37972SOL    HW120521  12.579   3.123  10.609 -0.4404  0.8012 -1.0629
37972SOL    HW220522  12.608   3.252  10.681 -0.5706  0.1937  0.0930
37973SOL     OW20523   7.456  12.621   7.977  0.3154  0.0671 -0.1738
37973SOL    HW120524   7.521  12.621   7.907 -0.6551  0.3185 -1.0886
37973SOL    HW220525   7.404  12.543   7.963 -0.2255  0.4011 -0.0540
37974SOL     OW20526   6.322   5.024  11.387  0.0740  0.6626  0.0383
37974SOL    HW120527   6.336   5.021  11.482  1.0054 -2.1510 -0.1116
37974SOL    HW220528   6.335   5.116  11.364  0.6497  1.2703  2.5001
37975SOL     OW20529   2.980   3.900   5.167 -0.2147  0.3673 -0.2619
37975SOL    HW120530   2.961   3.917   5.075  2.6983  2.0065 -0.6548
37975SOL    HW220531   2.988   3.987   5.207  1.8130 -0.2391  0.7647
37976SOL     OW20532  10.313   9.323   3.588 -0.1952  1.0092  0.7604
37976SOL    HW120533  10.381   9.256   3.584  0.1263  1.3848 -0.5056
37976SOL    HW220534  10.307   9.345   3.681  1.1578  0.6968  0.9488
37977SOL     OW20535   1.323  12.204   9.936  0.1596  0.5570 -0.0620
37977SOL    HW120536   1.244  12.230   9.888  1.5379 -0.5954 -3.2221
37977SOL    HW220537   1.300  12.122   9.979 -0.6755  0.8225  0.0181
37978SOL     OW20538   4.196   0.754   1.501 -0.1640  0.2835 -0.4632
37978SOL    HW120539   4.233   0.723   1.418 -0.9593  0.9483 -1.0842
37978SOL    HW220540   4.229   0.693   1.566  0.3127 -0.3773 -1.3017
37979SOL     OW20541   0.550  10.243   1.014  0.0819 -1.1048 -0.0451
37979SOL    HW120542   0.570  10.223   0.922  0.5236 -1.2916  0.0877
37979SOL    HW220543   0.458  10.219   1.024 -0.7213  1.2829 -1.0938
37980SOL     OW20544   5.865   9.241   6.968 -0.2649  0.0933 -0.1812
37980SOL    HW120545   5.950   9.205   6.943  0.5102  1.3233  0.5580
37980SOL    HW220546   5.805   9.211   6.900  0.8405 -0.4636 -0.9423
37981SOL     OW20547  10.063   1.461   0.478  0.3923 -0.3162  0.1375
37981SOL    HW120548  10.121   1.400   0.524  0.2516  0.2036  1.0350
37981SOL    HW220549  10.121   1.515   0.425  0.9462  1.1795  2.1489
37982SOL     OW20550   3.748   9.425   8.266  0.0699  0.5368 -0.1038
37982SOL    HW120551   3.717   9.417   8.356  1.1720  0.3422  0.2768
37982SOL    HW220552   3.678   9.471   8.220  0.0436  1.8375  1.1656
37983SOL     OW20553   5.936   6.367  11.430  0.7325  0.1577 -0.0269
37983SOL    HW120554   5.925   6.369  11.335  0.9446  1.2219 -0.0373
37983SOL    HW220555   5.958   6.457  11.454  0.7267 -0.1070  1.0276
37984SOL     OW20556   2.121  11.956   6.845 -0.3093  0.1008 -0.1803
37984SOL    HW120557   2.032  11.922   6.853 -0.1170 -0.3668 -0.0348
37984SOL    HW220558   2.112  12.050   6.858 -0.8292  0.0978 -0.4967
37985SOL     OW20559   0.045   8.012   1.721  0.3534 -0.6562  0.4956
37985SOL    HW120560   0.115   8.065   1.759  1.2555  0.6922 -2.6852
37985SOL    HW220561  -0.032   8.070   1.721 -0.8415 -2.0004  3.6199
37986SOL     OW20562   5.014  10.288  10.864  0.0491  0.3472 -0.4032
37986SOL    HW120563   4.995  10.205  10.820  0.8771  0.2689 -0.6283
37986SOL    HW220564   5.107  10.304  10.847 -0.3438  1.9181 -1.3756
37987SOL     OW20565  10.944   0.845  11.473 -0.4393  0.7256 -0.0484
37987SOL    HW120566  10.996   0.883  11.402  0.3991  0.8493  0.6164
37987SOL    HW220567  10.941   0.751  11.453 -1.4308  0.9545 -1.0088
37988SOL     OW20568   6.573   8.234  11.481 -0.2552  0.3955 -0.0332
37988SOL    HW120569   6.492   8.183  11.474 -0.2853  0.6515 -1.9219
37988SOL    HW220570   6.593   8.233  11.575 -2.0369 -0.2941  0.3867
37989SOL     OW20571   0.256   3.603  11.072 -0.3349  0.3662  0.3758
37989SOL    HW120572   0.179   3.595  11.016 -2.4506 -0.9675  3.2462
37989SOL    HW220573   0.326   3.560  11.023 -1.7799  0.1804 -1.6347
37990SOL     OW20574   0.515  11.886  10.929 -0.1974  0.0170  0.3409
37990SOL    HW120575   0.467  11.815  10.887  0.2213 -0.1186  0.0806
37990SOL    HW220576   0.557  11.844  11.005  0.8708 -0.2576 -0.3768
37991SOL     OW20577   0.519  11.614   6.695 -0.3932 -0.0314  0.1799
37991SOL    HW120578   0.513  11.671   6.772  0.1380  0.5723 -0.2216
37991SOL    HW220579   0.513  11.673   6.620 -0.9496 -0.6224 -0.2550
37992SOL     OW20580  10.147  10.706   9.233 -0.5287  0.6785  0.1429
37992SOL    HW120581  10.055  10.697   9.257 -0.4157  1.0725  0.7471
37992SOL    HW220582  10.189  10.745   9.310 -0.0367  1.3893 -0.4563
37993SOL     OW20583  11.046   6.000   0.037  0.1698 -0.0646  0.5320
37993SOL    HW120584  11.126   6.017  -0.012  0.7345 -1.3185  0.9767
37993SOL    HW220585  10.998   6.082   0.034  1.1347  0.4925 -0.3607
37994SOL     OW20586   2.601   2.509   7.964 -0.1885 -0.0508 -0.0359
37994SOL    HW120587   2.571   2.568   8.033  0.4122  1.8564 -1.3085
37994SOL    HW220588   2.543   2.527   7.890  1.3828  0.6498 -1.1657
37995SOL     OW20589  11.235   7.279   2.966 -0.2470 -0.0163  0.3144
37995SOL    HW120590  11.300   7.328   3.017 -0.4466 -2.1216  2.8203
37995SOL    HW220591  11.285   7.238   2.896  0.7474  0.1250  0.9251
37996SOL     OW20592   8.131   0.316   3.577 -0.1599  0.1476  0.2004
37996SOL    HW120593   8.181   0.236   3.564 -0.0050  0.1098  0.9652
37996SOL    HW220594   8.088   0.332   3.493 -0.2883 -0.8027  0.0783
37997SOL     OW20595   3.347   8.635   5.959  0.0607 -0.3226  0.1473
37997SOL    HW120596   3.272   8.633   6.018 -0.0483  1.0570  0.0865
37997SOL    HW220597   3.344   8.551   5.914 -0.4699 -0.9595  1.3324
37998SOL     OW20598   2.781   2.607   4.998 -0.3241 -0.1721 -0.4504
37998SOL    HW120599   2.768   2.567   4.912 -1.9502 -0.8193  0.0461
37998SOL    HW220600   2.716   2.678   5.001 -0.7811 -0.6152  0.4976
37999SOL     OW20601   0.103   4.391   4.923 -0.1132  0.3382  0.4965
37999SOL    HW120602   0.021   4.344   4.941 -0.7133  0.2386 -2.0655
37999SOL    HW220603   0.098   4.413   4.830  3.9809 -2.0946 -0.5544
38000SOL     OW20604   6.581   2.951   2.612  0.4563 -0.4168  0.3308
38000SOL    HW120605   6.671   2.923   2.596  0.3738  0.6053 -2.5053
38000SOL    HW220606   6.530   2.909   2.543 -0.5524  2.0725 -0.5607
38001SOL     OW20607   9.159   2.342   4.768 -0.4769 -0.0306  0.3106
38001SOL    HW120608   9.140   2.311   4.856 -0.5490 -0.6374  0.0893
38001SOL    HW220609   9.252   2.323   4.755 -0.4520  0.1127  0.2787
38002SOL     OW20610   5.466   4.728   8.680  0.3438  0.1467 -0.0932
38002SOL    HW120611   5.538   4.669   8.656  0.2708  0.5664 -1.4109
38002SOL    HW220612   5.393   4.700   8.626  0.1652  1.1167 -0.3711
38003SOL     OW20613   6.374  12.110   1.498 -0.2429 -0.1864  0.0639
38003SOL    HW120614   6.453  12.067   1.466 -0.1508 -0.7443  0.9864
38003SOL    HW220615   6.304  12.046   1.483 -0.9617  1.1073 -2.7157
38004SOL     OW20616   4.302   2.671   9.139  0.2895  0.0478 -0.0625
38004SOL    HW120617   4.246   2.748   9.130  0.5630  0.3397  0.6088
38004SOL    HW220618   4.360   2.693   9.213 -0.1910 -1.1309  0.6801
38005SOL     OW20619   3.779   9.721   9.943  0.1551 -0.3485 -0.4944
38005SOL    HW120620   3.699   9.688   9.902 -2.1277  0.9313  2.4876
38005SOL    HW220621   3.762   9.815   9.956  2.4229  0.0878 -0.2941
38006SOL     OW20622  10.076  11.008   1.615 -0.0685 -0.1994 -0.2726
38006SOL    HW120623  10.148  10.945   1.621  0.5777  0.5151 -0.4444
38006SOL    HW220624  10.117  11.088   1.584 -0.6197  0.7577  1.3673
38007SOL     OW20625   4.291   1.607   8.252 -0.0650 -0.4692 -0.1773
38007SOL    HW120626   4.262   1.520   8.279  2.7981 -2.1110 -1.8082
38007SOL    HW220627   4.362   1.629   8.312  0.8769 -0.4404 -1.2522
38008SOL     OW20628   4.926   3.101   6.239  0.1916 -0.2168  0.3970
38008SOL    HW120629   4.859   3.033   6.243  0.7912 -0.8206  0.3483
38008SOL    HW220630   5.009   3.053   6.235  0.5676  0.4923 -1.0157
38009SOL     OW20631   3.765   2.814   2.893 -0.6302  0.0124  0.1871
38009SOL    HW120632   3.670   2.809   2.877 -0.9682  3.8751  0.1687
38009SOL    HW220633   3.803   2.762   2.822 -2.6880 -0.8703 -0.3618
38010SOL     OW20634   0.865   7.979   3.416  0.3990  0.2560  0.3212
38010SOL    HW120635   0.913   7.959   3.497  1.4503  1.4844  0.0307
38010SOL    HW220636   0.852   7.893   3.375  0.2445 -0.3375  1.5661
38011SOL     OW20637  12.097   2.303   0.194 -0.1355 -0.3790 -0.2608
38011SOL    HW120638  12.042   2.364   0.145 -0.3478  0.2270  0.6960
38011SOL    HW220639  12.171   2.356   0.225 -0.1226 -0.6888  0.2583
38012SOL     OW20640   5.963   7.114   3.234  0.4774  0.2473 -0.1070
38012SOL    HW120641   5.950   7.199   3.276  1.1061  0.1599  0.2787
38012SOL    HW220642   5.879   7.069   3.245  0.9403 -0.1819  2.0142
38013SOL     OW20643   8.197  11.368   9.182 -0.0910  0.2434 -0.2206
38013SOL    HW120644   8.254  11.370   9.106 -0.2804  0.0651 -0.3668
38013SOL    HW220645   8.119  11.320   9.154 -0.7294  1.3001 -0.3196
38014SOL     OW20646  10.966   3.048   0.937  0.4571 -0.1944 -0.0449
38014SOL    HW120647  10.980   3.043   1.032 -1.2064  0.6605  0.2977
38014SOL    HW220648  10.883   3.096   0.929  0.8061  0.1355 -1.9532
38015SOL     OW20649   5.961   7.565   4.358  0.4931 -0.1173  0.2792
38015SOL    HW120650   5.941   7.620   4.434  0.6168  0.4062 -0.0601
38015SOL    HW220651   6.000   7.486   4.395  2.9314  1.1892  0.6491
38016SOL     OW20652  10.257   0.973   2.538  0.1728 -0.1037 -0.3512
38016SOL    HW120653  10.167   0.964   2.569 -0.2470  0.3455 -1.4046
38016SOL    HW220654  10.277   0.887   2.499  0.0515 -0.0667 -0.4958
38017SOL     OW20655   5.767   4.549  12.674  0.0093 -0.7441  0.2931
38017SOL    HW120656   5.720   4.498  12.608  0.2157  0.3705 -0.7719
38017SOL    HW220657   5.712   4.626  12.687  0.6569 -0.2897  0.3657
38018SOL     OW20658   5.340   5.986   4.057 -0.3252 -0.5259 -0.2955
38018SOL    HW120659   5.305   6.033   4.133  0.3089  1.4069 -1.1485
38018SOL    HW220660   5.408   5.930   4.094  1.0693  1.5275  0.4506
38019SOL     OW20661   9.723   0.957  11.991  0.2342  0.2941 -0.1623
38019SOL    HW120662   9.756   0.972  12.079 -2.7835  1.1776  0.9067
38019SOL    HW220663   9.739   0.864  11.975  1.3192  0.2401  1.0472
38020SOL     OW20664   6.083  11.661  12.154  0.3966  0.5132  0.0773
38020SOL    HW120665   6.054  11.723  12.087 -2.2929 -0.9125 -0.2202
38020SOL    HW220666   6.110  11.716  12.227  0.0147  2.0511 -0.8904
38021SOL     OW20667   9.698   0.621  11.438 -0.3737  0.1422  0.0899
38021SOL    HW120668   9.712   0.653  11.527 -0.6894  1.5324 -0.3450
38021SOL    HW220669   9.746   0.538  11.435  0.7171  0.7113  1.1454
38022SOL     OW20670   5.171  10.889   9.913  0.1787  0.1463  0.6684
38022SOL    HW120671   5.118  10.842   9.978 -1.7099  0.1272 -0.8055
38022SOL    HW220672   5.109  10.948   9.871  0.6606 -1.6300 -2.8617
38023SOL     OW20673   8.210  11.055  11.738 -0.2979 -0.9114 -0.2802
38023SOL    HW120674   8.168  11.119  11.795 -1.4275 -3.6330  2.1821
38023SOL    HW220675   8.303  11.060  11.759 -0.4666 -0.5137  0.3701
38024SOL     OW20676   7.949   1.600   9.873  0.5861  0.3410 -0.3379
38024SOL    HW120677   7.855   1.603   9.890  0.8088 -3.1123  2.6517
38024SOL    HW220678   7.961   1.523   9.818  1.7103  0.4022 -0.1980
38025SOL     OW20679   2.245   1.125   5.515  0.5889  0.0979 -0.6647
38025SOL    HW120680   2.166   1.072   5.501  0.4393  0.3012 -0.6061
38025SOL    HW220681   2.273   1.148   5.427 -0.1314  1.0529 -0.6615
38026SOL     OW20682   6.653  11.842   3.057 -0.0575  0.2142  0.1195
38026SOL    HW120683   6.680  11.917   3.110 -0.1823 -0.0719  0.5951
38026SOL    HW220684   6.559  11.832   3.075 -0.1419  0.2253 -0.2976
38027SOL     OW20685  10.586  12.163   6.618  0.3183  0.1325 -0.6910
38027SOL    HW120686  10.580  12.146   6.524  1.4553  0.9282 -0.9393
38027SOL    HW220687  10.656  12.228   6.625 -1.3789  1.9307  0.4792
38028SOL     OW20688  11.319   1.638  10.880  0.0676  0.2194 -0.0922
38028SOL    HW120689  11.334   1.728  10.908  0.5403  0.3564 -0.7624
38028SOL    HW220690  11.382   1.586  10.930  1.1997  0.5120 -1.1401
38029SOL     OW20691   4.846   9.001   5.869  0.6397 -0.4113  0.1449
38029SOL    HW120692   4.898   8.947   5.810  2.9041  1.1086  0.5982
38029SOL    HW220693   4.826   9.080   5.818  1.6789  0.4359  0.9896
38030SOL     OW20694   8.485   4.873   0.952  0.7433 -0.1081  0.1385
38030SOL    HW120695   8.561   4.859   1.008  1.0976  1.1246 -0.0058
38030SOL    HW220696   8.410   4.864   1.010  1.0382 -0.4529  0.4684
38031SOL     OW20697   3.227   2.872   2.582  0.5557 -0.0747 -0.6533
38031SOL    HW120698   3.146   2.856   2.532  0.1234  2.2633 -0.7858
38031SOL    HW220699   3.284   2.920   2.522  0.8134  1.0081  0.4181
38032SOL     OW20700   8.784   6.782  10.691  0.1977  0.4603  0.3177
38032SOL    HW120701   8.770   6.691  10.715 -1.2172  0.5525 -0.0800
38032SOL    HW220702   8.860   6.780  10.632  0.7347 -0.3341  1.0188
38033SOL     OW20703   0.034   9.869   2.022  0.2716  0.5634 -0.6190
38033SOL    HW120704   0.092   9.897   2.092  0.1553 -1.3841  0.3447
38033SOL    HW220705   0.089   9.814   1.966 -0.2562 -0.0662 -0.5365
38034SOL     OW20706   4.166   4.133   5.154  0.3055  0.1431 -0.6048
38034SOL    HW120707   4.207   4.082   5.084 -0.5683 -4.2713  1.7629
38034SOL    HW220708   4.074   4.106   5.153  0.0344  0.8174  1.4856
38035SOL     OW20709   5.934   2.970   7.678 -0.1732 -1.1471  0.0222
38035SOL    HW120710   5.989   2.893   7.692 -0.3102 -1.3445 -0.5132
38035SOL    HW220711   5.990   3.044   7.704  0.3083 -1.3507 -0.4229
38036SOL     OW20712   2.450   8.285   3.949  0.4382  0.2897  0.2087
38036SOL    HW120713   2.387   8.228   3.904  0.8217 -0.3983  0.5322
38036SOL    HW220714   2.409   8.372   3.948  0.1968  0.1810 -0.9945
38037SOL     OW20715   1.729  12.074   7.477 -0.0506 -0.4317  0.1998
38037SOL    HW120716   1.644  12.115   7.495 -0.2222 -0.4188 -0.6252
38037SOL    HW220717   1.793  12.144   7.493  0.0019 -0.9770  2.7976
38038SOL     OW20718   8.643   1.700  12.497  0.2111 -0.1499 -0.5481
38038SOL    HW120719   8.562   1.651  12.510  1.0541 -1.0821  1.5727
38038SOL    HW220720   8.615   1.783  12.459 -1.7112 -0.5105 -0.0097
38039SOL     OW20721   4.555   1.753   6.916  0.2265 -0.3321  0.4331
38039SOL    HW120722   4.508   1.811   6.857  0.7649  0.5348  0.8449
38039SOL    HW220723   4.647   1.763   6.892  0.4388 -0.0529  1.3367
38040SOL     OW20724  10.827   2.756  12.041  0.5021 -0.7128 -0.3601
38040SOL    HW120725  10.912   2.724  12.070 -0.2841 -2.2745  0.3443
38040SOL    HW220726  10.844   2.845  12.009  2.7218 -1.6435 -2.0019
38041SOL     OW20727  12.610  12.470   5.122 -0.2905 -0.0758  0.4972
38041SOL    HW120728  12.559  12.389   5.124 -0.0714 -0.2603  3.6526
38041SOL    HW220729  12.673  12.457   5.051 -2.5434 -1.0958 -1.4662
38042SOL     OW20730   5.918   6.712   5.359  0.2373  0.2071 -0.6551
38042SOL    HW120731   5.948   6.781   5.418  2.0028 -0.1293 -1.0806
38042SOL    HW220732   5.981   6.640   5.374 -0.2374 -0.4644 -1.7944
38043SOL     OW20733   3.186   1.758   5.827  0.1464  0.0747  0.5170
38043SOL    HW120734   3.215   1.820   5.761  0.4547 -0.5823  0.0290
38043SOL    HW220735   3.164   1.813   5.903  0.9425  0.7266  0.2903
38044SOL     OW20736   4.406  12.198   9.796 -0.5069 -0.2461  0.0966
38044SOL    HW120737   4.491  12.163   9.822 -0.2258  0.5655  0.2914
38044SOL    HW220738   4.368  12.129   9.741  0.1225 -0.7603  0.2900
38045SOL     OW20739   7.894   8.903   9.445 -0.6000 -0.5302  0.2108
38045SOL    HW120740   7.846   8.982   9.470 -0.8413 -0.6886  0.2558
38045SOL    HW220741   7.827   8.844   9.409 -0.1855 -0.1248 -1.2853
38046SOL     OW20742   4.906   4.912   3.002 -0.0098 -0.2695  0.2059
38046SOL    HW120743   4.900   4.997   3.046 -1.2672 -0.7662  1.0521
38046SOL    HW220744   4.998   4.905   2.977 -0.1402  1.9570 -1.1601
38047SOL     OW20745   8.667   7.484   4.087  0.0770 -0.0285  0.2613
38047SOL    HW120746   8.586   7.450   4.124 -0.8637  1.9418  0.1621
38047SOL    HW220747   8.685   7.428   4.012 -1.8322  0.1580 -0.3933
38048SOL     OW20748   9.896   6.849  11.949 -0.1900  0.5305 -0.0845
38048SOL    HW120749   9.926   6.937  11.970  2.6514 -0.0871 -1.1596
38048SOL    HW220750   9.910   6.798  12.029 -0.8718  0.8130  0.2193
38049SOL     OW20751   1.320   6.547   3.815  0.6870 -0.0162 -0.3302
38049SOL    HW120752   1.325   6.541   3.910  0.3431  1.0100 -0.2379
38049SOL    HW220753   1.227   6.541   3.795  0.7357  0.0486 -0.5810
38050SOL     OW20754   3.113   0.543   2.997 -0.0024 -0.1444  0.0371
38050SOL    HW120755   3.168   0.469   3.024 -0.0138  0.2490  1.1600
38050SOL    HW220756   3.173   0.602   2.952  0.3041 -0.1415  0.4498
38051SOL     OW20757   5.562   3.932   9.529  0.2772 -0.3683  0.9764
38051SOL    HW120758   5.576   3.966   9.617  1.1085  0.1429  0.6526
38051SOL    HW220759   5.474   3.962   9.505 -0.5153 -1.6488  2.1376
38052SOL     OW20760  12.722   2.484   0.589  0.3456 -0.0222  0.2308
38052SOL    HW120761  12.775   2.421   0.541  0.9348 -0.2694  1.1765
38052SOL    HW220762  12.644   2.495   0.536  1.2449  0.1815 -1.0800
38053SOL     OW20763   7.143   8.157   0.493 -0.5186 -0.1167  0.4355
38053SOL    HW120764   7.075   8.224   0.495  1.0296  1.5979 -0.7282
38053SOL    HW220765   7.198   8.177   0.568  0.1287  0.1479 -0.0980
38054SOL     OW20766   9.012   6.135   9.929 -0.0894 -0.6231  0.4238
38054SOL    HW120767   9.003   6.110   9.837 -1.7440 -1.7377  0.8620
38054SOL    HW220768   8.975   6.223   9.934 -0.2553 -0.6728  0.0755
38055SOL     OW20769  11.134   3.754   1.134  0.6705 -0.0667  0.2731
38055SOL    HW120770  11.103   3.783   1.048  1.7201 -0.1991 -0.1727
38055SOL    HW220771  11.070   3.689   1.163 -0.5091  1.0857  0.2895
38056SOL     OW20772  12.086   8.482   5.741 -0.3291  0.0952 -0.2841
38056SOL    HW120773  12.130   8.426   5.805 -2.2055 -1.3817 -0.1923
38056SOL    HW220774  12.106   8.442   5.656 -2.6570 -1.5722 -0.1408
38057SOL     OW20775   8.907   1.250   0.012  0.1096 -0.4539  0.1085
38057SOL    HW120776   8.834   1.311   0.027  1.1085  0.4675  1.6020
38057SOL    HW220777   8.963   1.295  -0.051  0.2473 -0.3595  0.2961
38058SOL     OW20778  12.762   5.505  11.803 -0.4968 -0.2607 -0.3658
38058SOL    HW120779  12.768   5.588  11.850  0.1292 -1.3848  1.6823
38058SOL    HW220780  12.804   5.521  11.718 -1.5052  1.8108 -0.5198
38059SOL     OW20781   9.422   1.347  12.296 -0.3646  0.0454  0.1890
38059SOL    HW120782   9.487   1.342  12.226 -2.3322 -0.4715 -1.6855
38059SOL    HW220783   9.388   1.436  12.290 -1.8229 -0.5405 -0.7852
38060SOL     OW20784   6.004   9.086   2.795  0.1720  0.2546  0.0663
38060SOL    HW120785   5.986   9.038   2.877  2.4824 -0.1443  0.4275
38060SOL    HW220786   5.919   9.095   2.753 -0.9539 -0.3952  2.0540
38061SOL     OW20787   7.440   8.104   8.485  0.4872  0.1823  0.2476
38061SOL    HW120788   7.478   8.116   8.398  0.0761 -3.9139 -0.7001
38061SOL    HW220789   7.515   8.110   8.545  1.1373  0.8620 -0.6116
38062SOL     OW20790   4.900   5.659  10.294 -0.6290  0.0753 -0.0393
38062SOL    HW120791   4.876   5.690  10.381  1.7958  0.6894  0.4891
38062SOL    HW220792   4.829   5.689  10.237 -0.8674  2.1999  1.2739
38063SOL     OW20793   6.457   2.958  12.226  0.6631  0.4963  0.3420
38063SOL    HW120794   6.406   2.998  12.296 -0.0400 -0.3340  0.3194
38063SOL    HW220795   6.422   2.997  12.146  0.3242  0.2361  0.3557
38064SOL     OW20796   1.848   7.827   3.703 -0.7365  0.1832  0.5792
38064SOL    HW120797   1.760   7.862   3.713 -0.0906  1.6225  1.6584
38064SOL    HW220798   1.844   7.741   3.746 -0.8458  1.6481  3.8643
38065SOL     OW20799   0.981   2.952   6.213  0.2010  0.4006  0.0689
38065SOL    HW120800   1.060   2.899   6.209 -0.4539 -0.7182  1.0579
38065SOL    HW220801   0.913   2.896   6.173 -0.7314 -0.0237  2.1225
38066SOL     OW20802  11.418   6.322   8.617  0.2207  0.0525 -0.0340
38066SOL    HW120803  11.337   6.271   8.612  0.5902 -0.6542  0.9337
38066SOL    HW220804  11.469   6.293   8.541 -0.4613  0.5841 -0.7132
38067SOL     OW20805  12.245   1.638  11.003  0.5690 -0.0345  0.6855
38067SOL    HW120806  12.310   1.676  11.061  0.2940 -0.6353  1.4111
38067SOL    HW220807  12.243   1.545  11.026  1.7476 -0.6774 -1.5380
38068SOL     OW20808  11.270   6.221   1.984  0.4943  0.4620 -0.0256
38068SOL    HW120809  11.310   6.179   1.908 -2.0339 -1.8246 -0.2511
38068SOL    HW220810  11.262   6.313   1.958  0.8596 -0.0090 -2.0035
38069SOL     OW20811  11.179   8.406   9.723  0.1032 -0.2083  0.4668
38069SOL    HW120812  11.096   8.452   9.731  0.3817  0.1541  1.3478
38069SOL    HW220813  11.155   8.321   9.685 -0.5025  0.3487 -0.4567
38070SOL     OW20814   2.770   1.165   1.795 -0.6098 -0.7139 -0.0385
38070SOL    HW120815   2.732   1.252   1.784  0.7759 -0.1604 -0.5886
38070SOL    HW220816   2.724   1.111   1.730 -0.4151 -0.0383 -0.7599
38071SOL     OW20817   4.325   0.894   1.205 -0.4295 -0.5230  0.1981
38071SOL    HW120818   4.261   0.964   1.190 -0.7750 -0.7899  0.4454
38071SOL    HW220819   4.396   0.914   1.143 -1.9980 -1.8142 -2.1660
38072SOL     OW20820   0.862   5.341   1.101  0.2582  0.3202  0.1609
38072SOL    HW120821   0.867   5.432   1.073 -1.4278  0.6538  0.8017
38072SOL    HW220822   0.864   5.346   1.197 -1.0688 -0.1841  0.2373
38073SOL     OW20823   8.271   3.718   0.958  0.0851 -0.2520  0.0132
38073SOL    HW120824   8.180   3.748   0.968  0.0260 -0.4109 -0.0273
38073SOL    HW220825   8.264   3.622   0.965  0.3695 -0.2099  0.8986
38074SOL     OW20826   5.563   2.368   2.545 -0.8278  0.7917 -0.2784
38074SOL    HW120827   5.559   2.413   2.630 -2.5786 -1.2386  0.8328
38074SOL    HW220828   5.473   2.339   2.530  0.0701 -1.8154 -1.1477
38075SOL     OW20829   1.539   8.847   0.056 -0.1272  0.1383 -0.1499
38075SOL    HW120830   1.467   8.905   0.031 -0.3814 -0.0294  0.1930
38075SOL    HW220831   1.516   8.816   0.143 -0.1720 -0.7564 -0.4714
38076SOL     OW20832  12.644   5.948  12.253  1.2146  0.1186 -0.8869
38076SOL    HW120833  12.717   5.941  12.314 -0.6848 -1.1413  1.4300
38076SOL    HW220834  12.581   6.005  12.298  0.1071 -0.1358 -2.0727
38077SOL     OW20835  12.274   0.099   6.023  0.1447 -0.0897 -0.1422
38077SOL    HW120836  12.330   0.146   5.962 -0.9591  0.3664 -0.8289
38077SOL    HW220837  12.189   0.143   6.017 -0.4350 -1.0794  0.4868
38078SOL     OW20838   3.161   6.921   3.327 -0.6811  0.4003 -0.3578
38078SOL    HW120839   3.111   6.839   3.323  0.6954 -0.4343 -1.2375
38078SOL    HW220840   3.183   6.931   3.420 -1.3820  0.1168 -0.1544
38079SOL     OW20841   2.902   7.557   9.719 -0.2892 -0.0935  0.0349
38079SOL    HW120842   2.824   7.533   9.669  1.1226  0.7986 -2.7979
38079SOL    HW220843   2.956   7.605   9.657  2.0406  0.2906  2.2220
38080SOL     OW20844   8.735  10.657  10.630  0.0942 -0.0856 -0.4261
38080SOL    HW120845   8.736  10.647  10.535  2.1279 -0.5402 -0.4005
38080SOL    HW220846   8.743  10.568  10.664  2.8066  0.2334  0.0486
38081SOL     OW20847   4.218   6.545   7.672 -0.6611 -0.7442  0.2717
38081SOL    HW120848   4.269   6.529   7.593 -0.0564  1.3196  0.1673
38081SOL    HW220849   4.127   6.553   7.641 -0.8042 -2.4332  0.1779
38082SOL     OW20850  10.357  11.576  10.023 -0.2496 -0.9783 -0.1468
38082SOL    HW120851  10.333  11.626   9.944  1.1646  1.3891  0.8037
38082SOL    HW220852  10.281  11.586  10.081 -0.6435 -1.3409 -0.5963
38083SOL     OW20853   6.487   4.654   3.408  0.1162  0.3008 -0.5686
38083SOL    HW120854   6.488   4.561   3.386  1.5505 -0.1572  1.1434
38083SOL    HW220855   6.441   4.658   3.492  1.1673  0.9353  0.0043
38084SOL     OW20856  10.953   4.333   4.551  0.4207 -0.3248 -0.4372
38084SOL    HW120857  10.957   4.421   4.512 -2.9341  1.6165  2.8674
38084SOL    HW220858  10.938   4.275   4.476  4.8776  1.3506 -3.0601
38085SOL     OW20859   6.054   8.506   6.477  0.6913  0.1601 -0.7174
38085SOL    HW120860   6.106   8.523   6.555  1.5490 -1.2785 -0.9352
38085SOL    HW220861   6.086   8.422   6.444 -0.3366  0.2459 -2.0567
38086SOL     OW20862  10.360   8.659   0.419 -0.6661  0.4104 -0.6037
38086SOL    HW120863  10.347   8.669   0.324  0.9498  1.2393 -0.7688
38086SOL    HW220864  10.445   8.700   0.436 -2.1906  2.9685  1.6673
38087SOL     OW20865   4.017   3.116  11.077 -0.5550 -0.6737  0.0313
38087SOL    HW120866   3.997   3.028  11.046 -2.0585 -0.6237  0.7882
38087SOL    HW220867   3.942   3.169  11.049 -0.5389 -0.0170  1.1655
38088SOL     OW20868  10.538   8.905  11.958  0.1391 -0.0615  0.1419
38088SOL    HW120869  10.487   8.865  12.028 -0.6367 -0.0182 -0.3815
38088SOL    HW220870  10.627   8.872  11.970 -0.5823 -2.5735 -0.6950
38089SOL     OW20871   7.516  11.844  10.819  0.3913  0.7358  0.2301
38089SOL    HW120872   7.434  11.811  10.855  0.9541 -1.7081 -0.5075
38089SOL    HW220873   7.498  11.935  10.797 -1.6593  0.6817  1.4093
38090SOL     OW20874   5.423   6.599   9.016 -0.8934 -0.0565  0.7871
38090SOL    HW120875   5.387   6.685   8.997  0.6937  0.4992  0.2023
38090SOL    HW220876   5.506   6.616   9.060 -0.7806 -1.3011  1.1051
38091SOL     OW20877  12.478  12.373   3.934  0.3199 -0.4503 -0.6092
38091SOL    HW120878  12.540  12.414   3.994  0.1829  0.0949 -0.8383
38091SOL    HW220879  12.530  12.309   3.886  0.8875  0.5174 -1.3248
38092SOL     OW20880   7.381   1.996   1.782 -0.5199 -0.2505  0.2048
38092SOL    HW120881   7.423   2.079   1.805  0.7626 -0.9215  0.3812
38092SOL    HW220882   7.328   1.974   1.859 -2.2155  1.1780 -0.4620
38093SOL     OW20883   7.894   2.937  11.806 -0.1599  0.1127 -0.1659
38093SOL    HW120884   7.957   2.961  11.874 -1.6706 -1.7447  2.0251
38093SOL    HW220885   7.819   2.995  11.822 -0.4559 -0.2066 -0.3951
38094SOL     OW20886  12.445  12.200  11.229 -0.0434  0.5960 -0.2591
38094SOL    HW120887  12.496  12.147  11.169 -0.1626 -0.0521  0.2019
38094SOL    HW220888  12.456  12.290  11.198  1.3765  0.4695 -0.1604
38095SOL     OW20889   4.236   4.536   8.382  0.2754 -0.1074  0.1866
38095SOL    HW120890   4.149   4.496   8.381  1.5570 -3.1756  0.4876
38095SOL    HW220891   4.252   4.556   8.474 -0.1719  0.6970  0.1005
38096SOL     OW20892  10.612   3.195   4.719  0.3234 -0.5934 -0.4939
38096SOL    HW120893  10.662   3.266   4.679  0.1890 -0.5090 -0.5123
38096SOL    HW220894  10.521   3.224   4.714  0.2165 -1.0043 -0.9839
38097SOL     OW20895  11.233   4.524  12.531 -0.3644 -0.1086  0.4010
38097SOL    HW120896  11.319   4.564  12.541 -0.0721 -0.4485 -0.6693
38097SOL    HW220897  11.192   4.573  12.459 -0.2998 -1.2175 -0.4042
38098SOL     OW20898   5.521   6.001   9.479  0.2561  0.3194  0.2842
38098SOL    HW120899   5.459   6.073   9.490  1.0743  1.7110 -2.9523
38098SOL    HW220900   5.599   6.030   9.526 -0.6476 -0.3089  2.2672
38099SOL     OW20901   3.204   4.866   0.050 -0.3171 -0.5688 -0.2482
38099SOL    HW120902   3.128   4.923   0.036  0.4230  0.6790  0.6475
38099SOL    HW220903   3.246   4.860  -0.035 -0.9897 -0.6576 -0.5831
38100SOL     OW20904   3.196  11.739  10.869  0.1797 -0.4020  0.3847
38100SOL    HW120905   3.142  11.816  10.852 -0.5857 -0.0557  3.6586
38100SOL    HW220906   3.151  11.693  10.940  1.2888 -3.2076 -0.5937
38101SOL     OW20907  12.687   5.665  10.471  0.1954  0.1855  0.3029
38101SOL    HW120908  12.670   5.674  10.377  0.6132 -2.0139 -0.0344
38101SOL    HW220909  12.747   5.737  10.492 -0.5074  1.1700 -0.9164
38102SOL     OW20910   4.378   5.461  12.608 -0.0599 -0.5090  0.2885
38102SOL    HW120911   4.454   5.414  12.572 -0.8873 -0.6024 -1.4377
38102SOL    HW220912   4.404   5.553  12.604  0.9048 -0.6640  2.0797
38103SOL     OW20913   2.932  10.156   8.366  0.1734  0.6389  0.4238
38103SOL    HW120914   3.001  10.223   8.363  1.9003 -1.0701 -1.6254
38103SOL    HW220915   2.957  10.100   8.440  0.8240  0.2012 -0.1207
38104SOL     OW20916   2.574  11.864   5.669 -0.4477 -0.1628  0.0453
38104SOL    HW120917   2.556  11.842   5.760  0.4899  1.1495  0.5842
38104SOL    HW220918   2.668  11.882   5.667  0.0273 -2.3188 -1.6681
38105SOL     OW20919  12.776   9.650   2.557 -0.7084  0.5141 -0.0323
38105SOL    HW120920  12.814   9.612   2.636 -0.8505  1.4141  0.4762
38105SOL    HW220921  12.847   9.645   2.492 -0.6432 -0.3639  0.0884
38106SOL     OW20922   7.131   8.126   7.891  0.2080 -0.0433 -0.4661
38106SOL    HW120923   7.107   8.202   7.944  0.5982  0.4370 -0.9787
38106SOL    HW220924   7.216   8.099   7.925  0.4055  0.1950 -0.7682
38107SOL     OW20925   7.529   0.792  11.088  0.3679  0.5840  0.2522
38107SOL    HW120926   7.470   0.855  11.047  0.3684  0.2127 -0.3511
38107SOL    HW220927   7.593   0.772  11.019  0.3169 -0.1260  0.3997
38108SOL     OW20928   2.976   0.200   9.264 -0.0120  0.3364 -0.1050
38108SOL    HW120929   3.071   0.212   9.257 -0.1678  1.2331 -0.8387
38108SOL    HW220930   2.966   0.118   9.313  1.1339  0.5776  0.5780
38109SOL     OW20931  10.442   6.352   6.577 -0.0799  1.1702 -0.0791
38109SOL    HW120932  10.348   6.333   6.581 -0.4795  2.9926 -0.0399
38109SOL    HW220933  10.474   6.329   6.664 -0.3739  0.0395 -0.2556
38110SOL     OW20934   7.065   2.536   3.681  0.4624  0.3860 -0.5292
38110SOL    HW120935   7.065   2.505   3.772 -0.8415  0.0595 -0.6199
38110SOL    HW220936   6.989   2.494   3.642  0.2345  1.5790 -1.4162
38111SOL     OW20937   1.528   4.846   9.523  0.2570  0.2232  0.2557
38111SOL    HW120938   1.455   4.823   9.580 -0.2378 -0.5614 -0.6811
38111SOL    HW220939   1.605   4.842   9.580 -0.2107 -0.7228  0.8386
38112SOL     OW20940   3.165   2.874   6.776  0.5518 -0.1240 -0.4544
38112SOL    HW120941   3.199   2.956   6.740  0.1617  0.1429 -0.2281
38112SOL    HW220942   3.070   2.884   6.772  0.4998 -0.7196 -0.7611
38113SOL     OW20943   4.593  11.579  12.520  0.1857 -0.0502 -0.2649
38113SOL    HW120944   4.589  11.486  12.496 -2.8031  0.3265 -1.7245
38113SOL    HW220945   4.640  11.581  12.603 -0.8729 -3.0604  0.5258
38114SOL     OW20946   8.113   2.483   2.443  0.3528  0.0439  0.0834
38114SOL    HW120947   8.105   2.578   2.455 -0.6923 -0.1460  1.0385
38114SOL    HW220948   8.185   2.473   2.380 -0.8617  1.5702 -1.6824
38115SOL     OW20949   8.229   8.277   0.944  0.0575 -0.1592 -0.6356
38115SOL    HW120950   8.221   8.343   1.012 -0.1321 -0.1310 -0.6861
38115SOL    HW220951   8.140   8.263   0.912  0.4697  2.4965 -3.4198
38116SOL     OW20952   1.685   7.276  10.155 -0.0214  0.3400 -0.5002
38116SOL    HW120953   1.656   7.231  10.075 -1.7509 -0.3943  0.4902
38116SOL    HW220954   1.605   7.311  10.193  0.4276 -1.0986  1.9893
38117SOL     OW20955   9.446   0.345   6.808  0.1306 -0.5083 -0.3082
38117SOL    HW120956   9.492   0.265   6.783  2.4235  0.7490 -0.3246
38117SOL    HW220957   9.428   0.389   6.724 -1.1720 -0.9647 -0.3028
38118SOL     OW20958   7.843   1.367   0.410  0.0899  0.0706 -0.3104
38118SOL    HW120959   7.818   1.444   0.460 -0.2410  0.4986 -1.1092
38118SOL    HW220960   7.761   1.331   0.377  0.2833 -0.3167 -0.3825
38119SOL     OW20961   9.091   2.130   0.174 -0.4315  0.4123 -0.3632
38119SOL    HW120962   9.120   2.123   0.083  0.1607  0.9560 -0.2209
38119SOL    HW220963   9.044   2.213   0.178 -1.5341 -0.1897 -0.4542
38120SOL     OW20964   8.791  11.522   4.526  0.1393 -0.1166  0.2236
38120SOL    HW120965   8.826  11.544   4.440 -2.1722 -0.9932 -1.0386
38120SOL    HW220966   8.852  11.457   4.561  2.7893  2.4187  0.6678
38121SOL     OW20967  11.050   3.910  10.432 -0.3150 -0.4728 -0.3555
38121SOL    HW120968  11.068   3.838  10.493  0.3359 -0.2218 -0.2450
38121SOL    HW220969  10.957   3.926  10.441 -0.2326 -0.4621  0.5572
38122SOL     OW20970   0.861   6.373   5.518 -0.4539  0.8510  0.6616
38122SOL    HW120971   0.878   6.315   5.592  0.9532  1.4759  0.8595
38122SOL    HW220972   0.849   6.459   5.558  0.0795  1.1497  0.1879
38123SOL     OW20973   6.075   6.820   3.859 -0.4954  0.0742 -0.5526
38123SOL    HW120974   6.068   6.861   3.772  0.3480 -2.4179 -1.8885
38123SOL    HW220975   6.164   6.787   3.862 -1.4415 -2.6191 -0.0654
38124SOL     OW20976   4.486   2.999   6.589  0.2595 -0.1048  0.6719
38124SOL    HW120977   4.416   3.040   6.539 -1.7251 -1.6339  2.0448
38124SOL    HW220978   4.459   3.010   6.681  2.0862 -0.3230  1.2775
38125SOL     OW20979   0.491   5.364   6.807  0.0730  0.1726 -0.2428
38125SOL    HW120980   0.572   5.337   6.762 -0.0817 -0.4992 -0.1290
38125SOL    HW220981   0.510   5.352   6.900 -0.4756 -0.9390 -0.2543
38126SOL     OW20982   0.665   8.582   3.402 -0.3579 -0.7878  0.1019
38126SOL    HW120983   0.644   8.547   3.316  0.0390  1.2217 -0.8520
38126SOL    HW220984   0.686   8.504   3.455 -0.0745 -2.0140 -1.7339
38127SOL     OW20985   5.904  12.565   7.750 -0.0777  0.1397 -0.4186
38127SOL    HW120986   5.889  12.514   7.670 -0.8831  0.8876 -0.7631
38127SOL    HW220987   5.830  12.626   7.754 -0.7849 -0.7734  1.6151
38128SOL     OW20988   6.403   0.840   8.261  0.4534 -0.1117  0.1075
38128SOL    HW120989   6.479   0.825   8.318  0.5082 -0.4238 -0.0473
38128SOL    HW220990   6.343   0.892   8.315  0.2585 -0.8837  0.6528
38129SOL     OW20991   4.032  11.512   6.813 -0.1802 -0.9423  0.3353
38129SOL    HW120992   4.012  11.421   6.793 -1.6366 -0.8637  1.2808
38129SOL    HW220993   4.000  11.562   6.738  2.0910 -1.2864 -0.9470
38130SOL     OW20994   4.142  10.230   6.622  0.1512  0.4189 -0.2992
38130SOL    HW120995   4.052  10.214   6.594 -0.2000  0.7144  0.6300
38130SOL    HW220996   4.138  10.312   6.670  0.8204  0.1699  0.2005
38131SOL     OW20997   5.790   5.054   5.112 -0.3458 -0.1199 -0.3982
38131SOL    HW120998   5.737   5.106   5.052  0.1769  1.2503  0.2727
38131SOL    HW220999   5.880   5.071   5.085 -0.1163  0.3053  0.5838
38132SOL     OW21000   7.971   1.681   6.012  0.1764  0.2711 -0.1537
38132SOL    HW121001   7.889   1.690   5.963 -0.4836 -3.2015  0.0492
38132SOL    HW221002   7.997   1.771   6.032 -4.4788  1.5872  1.2351
38133SOL     OW21003  12.004   9.564   9.054 -0.4634  0.3195  0.3442
38133SOL    HW121004  11.995   9.487   9.110  0.8306 -1.0682 -1.2377
38133SOL    HW221005  12.098   9.584   9.057  0.0736 -1.0746 -2.7995
38134SOL     OW21006   5.224  11.559   5.313 -0.4929  0.0088 -0.3358
38134SOL    HW121007   5.200  11.594   5.228 -1.6136  0.8601  0.2972
38134SOL    HW221008   5.298  11.500   5.296 -0.7908  0.0607 -1.8904
38135SOL     OW21009   0.546   4.787  10.859  0.4534  0.4518 -0.2996
38135SOL    HW121010   0.593   4.757  10.937  1.3022  1.7679 -0.2694
38135SOL    HW221011   0.611   4.781  10.789 -0.0572  0.0614 -0.7428
38136SOL     OW21012  11.976  11.583   5.202  0.6211  0.4145  0.0693
38136SOL    HW121013  11.885  11.583   5.230  0.6370  1.5805  0.2004
38136SOL    HW221014  11.981  11.652   5.136  1.4495  0.5183  0.2234
38137SOL     OW21015   8.927   4.802   2.574  0.2011  0.3549 -0.4388
38137SOL    HW121016   8.961   4.795   2.485  0.5236  0.0189 -0.2896
38137SOL    HW221017   9.004   4.792   2.630 -0.1581 -0.5453 -0.0920
38138SOL     OW21018  10.849  11.950  10.947 -0.0189  0.2063  0.9189
38138SOL    HW121019  10.823  11.946  11.039 -0.4803  2.2307  0.9417
38138SOL    HW221020  10.768  11.938  10.898 -0.5859  3.2117  0.9256
38139SOL     OW21021   2.314   4.756   4.619 -0.0237  0.5359  0.0166
38139SOL    HW121022   2.325   4.720   4.707  0.2288 -1.0294 -0.6194
38139SOL    HW221023   2.248   4.824   4.630 -1.0831 -0.6034  1.1953
38140SOL     OW21024  11.797   0.609   9.385  0.2012 -0.5955  0.8339
38140SOL    HW121025  11.855   0.682   9.407 -0.0911  0.1246 -0.6799
38140SOL    HW221026  11.772   0.572   9.470  0.9199  0.6076  1.5983
38141SOL     OW21027   6.980   2.846   9.755  0.0481  0.0292  0.1530
38141SOL    HW121028   6.966   2.834   9.849 -2.2231 -1.7148 -0.3226
38141SOL    HW221029   6.919   2.915   9.730  0.6866  0.5288 -0.0334
38142SOL     OW21030   8.247   0.396   5.140 -0.4861  0.2924 -0.6398
38142SOL    HW121031   8.338   0.402   5.112  0.3902  0.5434  1.9924
38142SOL    HW221032   8.241   0.453   5.217 -1.8836 -2.4503  1.4894
38143SOL     OW21033   8.621  10.350  10.716  0.0511  0.0771  0.1899
38143SOL    HW121034   8.613  10.255  10.723 -0.4353  0.2449  2.6325
38143SOL    HW221035   8.542  10.378  10.670  0.4647 -0.7115 -1.0466
38144SOL     OW21036   6.985  11.333  12.496 -0.5354  0.1560 -0.1396
38144SOL    HW121037   7.028  11.391  12.559 -1.1242  0.3246  0.1176
38144SOL    HW221038   7.007  11.369  12.410 -2.0912  1.6554  0.0399
38145SOL     OW21039   8.981   6.944   7.851  0.1701 -0.0785  0.1673
38145SOL    HW121040   8.908   6.918   7.907 -0.1434 -0.8382 -0.5732
38145SOL    HW221041   9.000   7.034   7.878  0.3172 -0.5556  1.7741
38146SOL     OW21042   7.479   5.572   2.024 -0.4231 -0.0419  0.7645
38146SOL    HW121043   7.447   5.544   2.109 -1.1033  0.0258  0.5326
38146SOL    HW221044   7.422   5.644   1.999 -0.2375 -0.0708  0.2450
38147SOL     OW21045   4.825   6.737   6.383 -0.3503 -0.3534  0.3578
38147SOL    HW121046   4.860   6.692   6.306  0.1418 -1.5438  1.2434
38147SOL    HW221047   4.830   6.830   6.360 -0.1721 -0.6764 -1.0195
38148SOL     OW21048   6.621   7.973   9.855  0.6012 -0.4299  0.2060
38148SOL    HW121049   6.704   7.929   9.836  0.6821 -0.0387 -0.3825
38148SOL    HW221050   6.643   8.066   9.856  0.2240 -0.3423  0.3400
38149SOL     OW21051   1.576   1.741  12.726  0.4970  0.0388 -0.2521
38149SOL    HW121052   1.574   1.652  12.762  1.2922 -0.1505 -0.6535
38149SOL    HW221053   1.499   1.746  12.670 -0.9736  0.4488  1.6740
38150SOL     OW21054   4.422  12.545  11.406  0.2008 -0.4036 -0.5166
38150SOL    HW121055   4.450  12.627  11.447 -1.9052  0.2571 -0.3045
38150SOL    HW221056   4.440  12.558  11.313 -0.5811  0.5399 -0.5557
38151SOL     OW21057   9.042   9.949  10.363  0.0892  0.0769 -0.2210
38151SOL    HW121058   9.008   9.942  10.274 -1.7609  2.0135  0.2456
38151SOL    HW221059   9.118   9.892  10.364 -0.3793 -0.7295 -2.7647
38152SOL     OW21060   6.357  11.351   6.748  0.1888 -0.2951  0.1358
38152SOL    HW121061   6.444  11.328   6.715  0.2926 -0.0255  0.2125
38152SOL    HW221062   6.300  11.341   6.672  0.2525 -0.6672  0.1352
38153SOL     OW21063   7.356   9.411  11.798 -0.3989  0.0356  0.3550
38153SOL    HW121064   7.400   9.484  11.754  1.1304 -1.8585 -1.4169
38153SOL    HW221065   7.417   9.384  11.866 -0.8826  0.2887  0.8907
38154SOL     OW21066   1.358  11.804   5.605 -0.0545  0.4624  0.2809
38154SOL    HW121067   1.330  11.876   5.662 -1.0237 -1.0027  1.7271
38154SOL    HW221068   1.283  11.789   5.547 -0.3107 -0.1269  0.7566
38155SOL     OW21069   1.606   0.452   3.531 -0.2993 -0.0272  0.0188
38155SOL    HW121070   1.665   0.526   3.512  1.1088 -0.7619  1.3272
38155SOL    HW221071   1.530   0.468   3.475 -0.2741  2.6688  0.6141
38156SOL     OW21072   4.265   7.185   4.271  0.2715  0.2572 -0.2220
38156SOL    HW121073   4.313   7.154   4.347  0.3851  0.1736 -0.3272
38156SOL    HW221074   4.210   7.111   4.245  0.7117  0.0611 -0.6117
38157SOL     OW21075   2.456   7.345   4.128  0.2667 -0.4017  0.1155
38157SOL    HW121076   2.528   7.366   4.187 -0.6572 -1.0088  1.5219
38157SOL    HW221077   2.383   7.325   4.186 -1.2464  0.8296 -1.2692
38158SOL     OW21078   5.139   5.598   7.281  0.1809  0.3494  0.4924
38158SOL    HW121079   5.050   5.633   7.290  0.0336 -0.1929  1.2530
38158SOL    HW221080   5.195   5.665   7.320  0.1961  1.0539 -0.6985
38159SOL     OW21081   4.993   3.072   5.250 -0.0069  0.4222  0.4384
38159SOL    HW121082   5.036   3.046   5.168 -1.6063 -2.0374  0.2428
38159SOL    HW221083   4.934   3.143   5.225  1.0652  1.1471 -0.0818
38160SOL     OW21084  12.772   5.137   1.601  0.5067  0.1244  0.5939
38160SOL    HW121085  12.680   5.144   1.577  0.2892  1.6997  1.6780
38160SOL    HW221086  12.816   5.200   1.543  0.7158  0.2136  0.8469
38161SOL     OW21087  11.058  11.126   4.849 -0.5779 -0.6658 -0.1188
38161SOL    HW121088  11.132  11.155   4.902 -0.2471 -0.3308 -0.7524
38161SOL    HW221089  11.059  11.184   4.773 -1.6735 -0.4687  0.0067
38162SOL     OW21090   8.160  10.231   2.580  0.4416  0.5970  0.1714
38162SOL    HW121091   8.224  10.174   2.623  0.5929  0.5488 -0.1144
38162SOL    HW221092   8.075  10.199   2.610  0.5307  0.2978  0.1062
38163SOL     OW21093   8.178   1.406  10.047  0.2182 -0.0797 -0.0896
38163SOL    HW121094   8.148   1.429  10.135 -1.0879 -2.3846  0.1415
38163SOL    HW221095   8.215   1.318  10.057 -0.9124 -0.8275 -2.0000
38164SOL     OW21096  11.246  10.612   0.263 -0.3548 -0.0174 -0.1730
38164SOL    HW121097  11.310  10.542   0.276 -1.1958 -0.7799 -0.0297
38164SOL    HW221098  11.179  10.573   0.208 -0.8998  0.6364  0.0159
38165SOL     OW21099   8.734   3.979   3.224 -0.4457  0.5525 -0.2674
38165SOL    HW121100   8.824   3.996   3.252 -0.6163  1.5371 -0.2873
38165SOL    HW221101   8.686   4.058   3.247 -1.5074 -0.2995  0.5458
38166SOL     OW21102  10.478  12.777  11.782 -0.0269  0.4329  0.6071
38166SOL    HW121103  10.495  12.797  11.874 -1.1242 -1.0419  1.1689
38166SOL    HW221104  10.452  12.861  11.744 -0.0217  0.9786  1.7413
38167SOL     OW21105   8.309   3.194   0.233  0.5426 -1.1295  0.2692
38167SOL    HW121106   8.376   3.146   0.283  0.0048  0.0982  2.2671
38167SOL    HW221107   8.350   3.277   0.211  0.0554 -0.8048  0.5622
38168SOL     OW21108   4.527  11.969   5.588  0.1511  0.4849 -0.4378
38168SOL    HW121109   4.520  11.908   5.515 -1.7716 -0.0802  0.1552
38168SOL    HW221110   4.608  11.944   5.633  0.6429 -0.0278 -1.5803
38169SOL     OW21111   6.587   7.850   9.276  0.6691 -0.2415 -0.9079
38169SOL    HW121112   6.536   7.841   9.195  1.8343  0.3449 -1.7342
38169SOL    HW221113   6.637   7.769   9.282 -0.1937 -0.7328 -0.2011
38170SOL     OW21114   1.692   3.758  10.711  0.0586 -0.1238 -0.0597
38170SOL    HW121115   1.641   3.839  10.714 -0.4553 -0.4567  0.4571
38170SOL    HW221116   1.645   3.703  10.649  1.7809  0.8484 -2.3775
38171SOL     OW21117  10.958   8.954   5.453  0.1978 -0.6124 -0.2171
38171SOL    HW121118  10.993   8.915   5.532  1.4885  1.0847  0.1015
38171SOL    HW221119  10.983   8.894   5.383 -0.8709 -2.0740  0.6064
38172SOL     OW21120   8.830   3.892  10.827  0.1121 -0.6616  0.1232
38172SOL    HW121121   8.874   3.869  10.745 -0.5432  0.7805 -0.6760
38172SOL    HW221122   8.739   3.910  10.801  0.0656  0.5194  1.0346
38173SOL     OW21123  12.396   7.808   0.034 -0.0856  0.1545 -0.2487
38173SOL    HW121124  12.344   7.825  -0.045 -1.2976  0.5226  0.6016
38173SOL    HW221125  12.430   7.894   0.059 -0.6098  0.2185  0.2452
38174SOL     OW21126   3.097   3.780  10.016  0.4762 -0.5675 -0.2412
38174SOL    HW121127   3.150   3.781   9.937  1.7815 -0.9279  0.6071
38174SOL    HW221128   3.089   3.687  10.039 -0.4203 -0.5099 -0.2820
38175SOL     OW21129   0.811   3.611   8.067 -0.1226  0.3585  0.3031
38175SOL    HW121130   0.837   3.649   7.983  0.6737  0.4548  0.5820
38175SOL    HW221131   0.877   3.543   8.084 -1.4491 -1.1046 -0.1331
38176SOL     OW21132  12.741   0.899   9.652 -0.2557  0.3005 -0.3649
38176SOL    HW121133  12.684   0.846   9.708 -0.6353  0.1690 -0.8723
38176SOL    HW221134  12.704   0.890   9.564  1.1096 -0.5765 -0.8735
38177SOL     OW21135  12.158   8.140   4.725  0.0668  0.8114  0.5436
38177SOL    HW121136  12.116   8.161   4.642  0.7716 -1.0993 -0.3584
38177SOL    HW221137  12.240   8.189   4.723 -0.6340  2.0276  0.8627
38178SOL     OW21138   1.768   6.255   9.929  0.3727 -0.6399 -0.2333
38178SOL    HW121139   1.834   6.187   9.932  2.6301  1.2757 -2.5446
38178SOL    HW221140   1.727   6.246   9.843  0.6633  0.8464 -0.5488
38179SOL     OW21141  11.941  12.397  11.441 -0.0182 -0.0801  0.1956
38179SOL    HW121142  12.030  12.367  11.458  0.6305  1.7576  0.2643
38179SOL    HW221143  11.913  12.436  11.524 -0.6982 -0.1867  0.0207
38180SOL     OW21144   7.904  10.948   8.338  0.2750  0.4263  0.0030
38180SOL    HW121145   7.853  10.868   8.346 -0.6361  0.9097 -0.8066
38180SOL    HW221146   7.841  11.014   8.306  1.3543  1.0786 -0.8439
38181SOL     OW21147   5.254   6.811   8.968 -0.3639  0.0460  0.0488
38181SOL    HW121148   5.171   6.813   8.920 -0.9073 -0.8171  0.9233
38181SOL    HW221149   5.230   6.822   9.059  0.5346  0.2760  0.2653
38182SOL     OW21150  10.615   7.358   5.504  0.3037  0.5782  0.4521
38182SOL    HW121151  10.696   7.371   5.456  0.4643 -0.9634  0.2752
38182SOL    HW221152  10.637   7.299   5.575 -1.0820 -1.8473 -0.9794
38183SOL     OW21153   8.764   1.480  10.222  0.0725 -0.6268 -0.1274
38183SOL    HW121154   8.680   1.466  10.178 -0.3090 -0.5537  0.5706
38183SOL    HW221155   8.747   1.459  10.314  0.4440  0.8074  0.2913
38184SOL     OW21156   0.998   9.424   0.963  0.3688  0.4512  0.7273
38184SOL    HW121157   0.995   9.352   0.900  1.0907  0.6670  0.4344
38184SOL    HW221158   1.041   9.388   1.040 -0.6993  0.1288  1.1938
38185SOL     OW21159  12.125   4.765   4.521  0.8099 -0.4784  0.1419
38185SOL    HW121160  12.151   4.736   4.434 -0.1446  0.7463 -0.5760
38185SOL    HW221161  12.193   4.729   4.579  1.2632 -1.6054 -1.0396
38186SOL     OW21162  11.520  10.499   3.065  0.5306  0.1926  0.0836
38186SOL    HW121163  11.436  10.456   3.076  0.1625  1.0658  0.8228
38186SOL    HW221164  11.499  10.591   3.050  1.3655  0.6592  1.5629
38187SOL     OW21165   5.770   0.934   6.394  0.0093 -0.0342  0.3205
38187SOL    HW121166   5.676   0.951   6.398  0.0567 -0.0463  2.4282
38187SOL    HW221167   5.780   0.872   6.321 -1.5838  0.0846 -0.0285
38188SOL     OW21168   7.331   8.474   5.004  0.1613  0.2499 -0.0983
38188SOL    HW121169   7.383   8.455   4.926  1.2955  0.9538  0.4494
38188SOL    HW221170   7.386   8.534   5.055 -0.5551 -0.1842  1.2348
38189SOL     OW21171  10.275   3.544   1.997  0.5474  0.0765  0.7407
38189SOL    HW121172  10.298   3.609   1.931  1.4324 -0.1026  0.8638
38189SOL    HW221173  10.347   3.546   2.060 -0.5168  0.5926  1.9826
38190SOL     OW21174   6.800   1.254   8.586 -0.4082 -0.5488 -0.4060
38190SOL    HW121175   6.773   1.192   8.654  1.1300 -0.0737  0.6902
38190SOL    HW221176   6.883   1.289   8.617 -2.2397  3.8736  0.2437
38191SOL     OW21177   9.665  11.357   3.908 -0.5708 -0.3231 -0.3653
38191SOL    HW121178   9.660  11.440   3.862  0.5152  0.6525  1.1965
38191SOL    HW221179   9.758  11.338   3.913 -0.6363 -0.2499  1.6532
38192SOL     OW21180  11.929   4.079  12.637 -0.1469 -0.0351  0.1469
38192SOL    HW121181  11.994   4.074  12.707  0.6000 -1.2500 -0.6021
38192SOL    HW221182  11.936   4.170  12.605  0.0715  0.2955  1.0983
38193SOL     OW21183  11.258   4.619  11.241 -0.1827  0.4859 -0.1202
38193SOL    HW121184  11.167   4.642  11.225  0.2114  1.7840 -0.6952
38193SOL    HW221185  11.266   4.528  11.212 -1.5926 -0.1052  1.2568
38194SOL     OW21186  11.760   8.572  12.404  0.8185 -0.0316  0.4084
38194SOL    HW121187  11.850   8.538  12.404  0.3133 -1.4609  0.6338
38194SOL    HW221188  11.719   8.533  12.481 -0.2331 -0.1028 -0.1604
38195SOL     OW21189   3.393   7.813  10.101 -0.7634  0.0818  0.0457
38195SOL    HW121190   3.327   7.883  10.105 -0.3605  0.6798 -2.4980
38195SOL    HW221191   3.476   7.859  10.092 -0.3822 -0.7123 -0.5868
38196SOL     OW21192   3.063   8.812   4.983  0.3252 -0.3241 -0.1394
38196SOL    HW121193   3.097   8.870   5.051 -1.8447  0.4057  0.3994
38196SOL    HW221194   3.137   8.756   4.960  2.1002  1.7192  0.3145
38197SOL     OW21195  11.592   6.309   7.641 -0.0404 -0.5529  0.7828
38197SOL    HW121196  11.584   6.295   7.547  2.0681 -0.3970  0.5499
38197SOL    HW221197  11.537   6.240   7.680  1.1279 -2.2934 -0.5144
38198SOL     OW21198  11.650   2.237   7.799 -0.0083  0.0891 -0.0616
38198SOL    HW121199  11.568   2.287   7.802 -0.1051 -0.1034  1.0818
38198SOL    HW221200  11.621   2.146   7.795  0.1678  0.0704 -1.4306
38199SOL     OW21201  11.457   6.506   3.085 -0.0798 -0.4941  0.3618
38199SOL    HW121202  11.389   6.467   3.030 -1.7105  1.1332  1.1076
38199SOL    HW221203  11.530   6.523   3.026 -1.7142  1.0379 -1.3332
38200SOL     OW21204   8.889   8.912  12.637  0.0765 -0.0555 -0.8692
38200SOL    HW121205   8.923   8.862  12.563  0.6296 -0.6682 -0.2147
38200SOL    HW221206   8.958   8.907  12.703 -0.0954  1.1083 -0.5820
38201SOL     OW21207   7.684   6.830   9.956  0.1926  0.2093  0.0019
38201SOL    HW121208   7.589   6.830   9.944 -0.1211  1.9562  1.9571
38201SOL    HW221209   7.706   6.737   9.968 -1.3523 -0.1909  0.0480
38202SOL     OW21210   9.843  11.448  10.504  0.8215  0.3378 -0.4391
38202SOL    HW121211   9.785  11.410  10.438  0.8416 -0.9131  0.2355
38202SOL    HW221212   9.786  11.502  10.559  0.9860  2.3423 -2.1160
38203SOL     OW21213   9.926   4.698   3.531  0.3855  0.3384 -0.8002
38203SOL    HW121214   9.892   4.617   3.570  1.7656  0.6241  1.1819
38203SOL    HW221215   9.866   4.718   3.459  0.2803 -2.7074 -1.7004
38204SOL     OW21216  10.420   4.866   9.723 -0.8211 -0.0314  0.2582
38204SOL    HW121217  10.481   4.814   9.775 -0.9801 -0.6280 -0.1320
38204SOL    HW221218  10.467   4.946   9.703  0.2664 -0.9218 -0.9555
38205SOL     OW21219   9.827   6.190   5.463 -0.0918  0.0585 -0.6807
38205SOL    HW121220   9.911   6.210   5.423 -0.4346 -0.9662 -1.9578
38205SOL    HW221221   9.778   6.143   5.395 -1.3875 -0.0892  0.3155
38206SOL     OW21222   3.388   9.498   1.921  0.1061 -0.1085 -0.1752
38206SOL    HW121223   3.409   9.432   1.855  0.2635 -0.8412  0.5875
38206SOL    HW221224   3.296   9.518   1.907  0.7043  1.5303 -2.1556
38207SOL     OW21225   7.590   9.776   5.923 -0.3942  0.0147 -0.3727
38207SOL    HW121226   7.550   9.795   6.008  0.3466  1.5931 -0.3478
38207SOL    HW221227   7.576   9.855   5.871  1.0291 -0.1124 -0.9948
38208SOL     OW21228   2.949   5.033   8.563 -0.3124 -0.2949  0.5048
38208SOL    HW121229   3.009   5.085   8.510 -0.0083 -0.1890  0.9447
38208SOL    HW221230   2.905   4.976   8.501 -0.9379  0.7577 -0.0406
38209SOL     OW21231  11.081  10.487   0.080  0.0202 -0.1701 -0.2110
38209SOL    HW121232  11.149  10.427   0.049  2.1006  1.2540  1.3635
38209SOL    HW221233  11.042  10.522  -0.000  0.6120 -1.5729 -1.1546
38210SOL     OW21234   0.030  10.093   4.169  0.7676 -0.4564  0.0466
38210SOL    HW121235   0.042  10.128   4.257  0.7307 -0.7537  0.1690
38210SOL    HW221236  -0.022  10.160   4.124 -0.0323 -0.7372  0.5314
38211SOL     OW21237   5.500   0.535   4.788  0.0493  0.5190 -0.0668
38211SOL    HW121238   5.493   0.440   4.799  0.1489  0.3971 -0.9557
38211SOL    HW221239   5.424   0.557   4.733  0.3396  0.8714 -0.3242
38212SOL     OW21240   7.176  11.911   8.556  0.3905 -0.1141  0.5536
38212SOL    HW121241   7.113  11.909   8.628 -0.5775  0.9263 -0.2132
38212SOL    HW221242   7.234  11.838   8.572 -0.0427 -0.1359  2.1788
38213SOL     OW21243  12.157   9.344   5.818  0.3746 -0.5366 -0.2233
38213SOL    HW121244  12.244   9.364   5.853  0.5604 -0.9401 -0.4509
38213SOL    HW221245  12.161   9.373   5.726  0.2272 -0.4413 -0.1999
38214SOL     OW21246  10.173   1.436   4.297 -0.3366 -0.6359 -0.4726
38214SOL    HW121247  10.137   1.476   4.375 -0.4910 -2.7941  0.6439
38214SOL    HW221248  10.144   1.492   4.225 -1.4919  0.5556  0.8693
38215SOL     OW21249  12.522   5.093   3.542  0.6820 -0.6316  0.0477
38215SOL    HW121250  12.461   5.167   3.539 -0.0765 -1.2535 -0.3459
38215SOL    HW221251  12.592   5.122   3.600  0.7283  0.6337 -0.6228
38216SOL     OW21252   0.103   0.340   6.934 -0.1550  0.3884 -0.4477
38216SOL    HW121253   0.095   0.384   7.019 -1.4753 -0.9407  0.1616
38216SOL    HW221254   0.157   0.263   6.952 -1.8084 -0.8193 -0.3789
38217SOL     OW21255   1.290   5.793  12.609  0.3910  0.0777  0.0835
38217SOL    HW121256   1.260   5.878  12.578  0.0348 -0.0209  0.1510
38217SOL    HW221257   1.381   5.807  12.636  1.0482 -0.0299 -1.8787
38218SOL     OW21258   4.187  12.018   6.452 -0.4160  0.0541  0.4937
38218SOL    HW121259   4.161  11.943   6.505  0.9526  0.1942  1.4367
38218SOL    HW221260   4.174  11.989   6.362  0.9459 -1.7188  0.7888
38219SOL     OW21261   7.577   2.415  11.527 -0.5397  0.0827  0.6823
38219SOL    HW121262   7.666   2.445  11.544 -0.2222  1.5046 -2.7166
38219SOL    HW221263   7.582   2.319  11.532  1.4233  0.0943 -0.3072
38220SOL     OW21264  11.437  10.122   0.445  0.0666  0.0802  0.0965
38220SOL    HW121265  11.517  10.078   0.415  0.1506  0.6561 -0.5299
38220SOL    HW221266  11.367  10.059   0.427  0.3297 -0.2773  0.3069
38221SOL     OW21267  11.997  12.424   1.803  0.2812  0.2953 -0.2148
38221SOL    HW121268  12.000  12.520   1.802  2.1510  0.2912  0.9480
38221SOL    HW221269  12.062  12.399   1.868 -0.9030 -1.7666  0.2417
38222SOL     OW21270  10.519   5.496   6.675  0.3677 -0.0478 -0.0411
38222SOL    HW121271  10.550   5.405   6.669  1.3489  0.2740  0.0121
38222SOL    HW221272  10.598   5.549   6.663 -0.1300  0.7991  0.3562
38223SOL     OW21273  12.352   2.850   4.816 -0.1212 -0.2778  0.2116
38223SOL    HW121274  12.357   2.755   4.828  0.6997 -0.2271  0.3328
38223SOL    HW221275  12.304   2.880   4.893  0.0063 -0.5565  0.4066
38224SOL     OW21276   2.551   8.444   0.810  0.2982 -0.1242  0.2102
38224SOL    HW121277   2.577   8.529   0.846  0.0937  0.2997 -0.6336
38224SOL    HW221278   2.516   8.396   0.886 -2.7177  1.7545  0.1838
38225SOL     OW21279   5.400   5.888   5.085  0.3206  0.2215 -0.4737
38225SOL    HW121280   5.324   5.848   5.127  0.3309 -0.6815 -1.2888
38225SOL    HW221281   5.434   5.820   5.027 -0.6464  1.9005 -3.2085
38226SOL     OW21282   5.698  11.213   9.670 -0.3300  0.4724  0.3984
38226SOL    HW121283   5.759  11.270   9.716  2.8269 -2.6461  0.4858
38226SOL    HW221284   5.657  11.159   9.738  0.9217 -1.0345  0.0267
38227SOL     OW21285  11.492   2.864  10.001  0.5224  0.0019  0.2389
38227SOL    HW121286  11.567   2.832   9.951  0.0095 -1.7003  0.5166
38227SOL    HW221287  11.417   2.851   9.943  0.3517  1.2207  0.1604
38228SOL     OW21288   9.492  11.534   8.660 -0.1444 -0.1371 -0.3320
38228SOL    HW121289   9.476  11.472   8.731  1.5801 -1.7717 -1.2847
38228SOL    HW221290   9.569  11.499   8.614  1.3743  3.0707 -0.5230
38229SOL     OW21291   5.399   3.417   4.642  0.1458 -0.1777 -0.3662
38229SOL    HW121292   5.328   3.353   4.641  0.6078 -0.6978 -2.0156
38229SOL    HW221293   5.363   3.493   4.595 -0.4840  0.9584  1.7657
38230SOL     OW21294   6.021   2.830   4.192  0.0306  0.2539 -0.0089
38230SOL    HW121295   5.967   2.859   4.265  1.9033  1.6269  0.8986
38230SOL    HW221296   6.095   2.784   4.233  2.3654  3.0506 -0.7291
38231SOL     OW21297   7.380  12.125  11.940  0.1470 -0.2222  0.7855
38231SOL    HW121298   7.448  12.192  11.930 -0.5652  0.4627  0.4767
38231SOL    HW221299   7.317  12.143  11.870  0.2061 -1.5463  0.3609
38232SOL     OW21300   1.121   0.997   9.870  0.2744  0.6185  0.6335
38232SOL    HW121301   1.084   1.052   9.801 -0.2917  0.1266  0.5383
38232SOL    HW221302   1.214   1.021   9.872  0.0030  1.7182  0.7390
38233SOL     OW21303   0.668   7.276   9.607 -0.0582 -0.3712 -0.0663
38233SOL    HW121304   0.577   7.267   9.634  0.1717  0.4146  1.0622
38233SOL    HW221305   0.670   7.358   9.557 -0.0092 -0.5018 -0.2800
38234SOL     OW21306   2.640  12.739   9.527 -0.0430  0.7438  0.2628
38234SOL    HW121307   2.613  12.675   9.462 -0.6705  0.4183  0.8215
38234SOL    HW221308   2.622  12.824   9.487  1.6161  0.6145 -0.8320
38235SOL     OW21309   7.079   4.622  12.301  0.0027 -0.2453  0.2385
38235SOL    HW121310   7.143   4.656  12.363  1.3456 -2.5284  0.2299
38235SOL    HW221311   7.033   4.554  12.349 -1.1895  0.1330 -0.3243
38236SOL     OW21312  12.238  12.334   6.194  0.0776  0.5707  0.3242
38236SOL    HW121313  12.194  12.269   6.139  0.8986  1.2488 -1.1844
38236SOL    HW221314  12.166  12.384   6.233 -0.5552 -0.9093  1.1501
38237SOL     OW21315   2.386  10.327   8.787 -0.5318  0.7696 -0.2292
38237SOL    HW121316   2.444  10.322   8.863 -0.0758  2.2654 -0.4514
38237SOL    HW221317   2.314  10.383   8.815 -0.0332  1.8722 -1.0688
38238SOL     OW21318   0.083   4.443  12.235 -0.2662  0.8516 -0.1253
38238SOL    HW121319   0.156   4.398  12.193  0.4908  0.1833  1.8067
38238SOL    HW221320   0.078   4.527  12.190  0.2497  0.0449 -1.7693
38239SOL     OW21321   7.901   6.994   9.887 -0.5382  0.2996 -0.1625
38239SOL    HW121322   7.816   6.953   9.902 -0.4226  0.3198  0.5804
38239SOL    HW221323   7.935   7.013   9.975 -0.4356  1.6748 -0.4675
38240SOL     OW21324   6.590   9.995  10.036  0.4775 -0.5039  0.3459
38240SOL    HW121325   6.606   9.945  10.116  1.4185 -0.3940  0.2327
38240SOL    HW221326   6.533   9.938   9.983 -1.7187  0.1684  1.8330
38241SOL     OW21327   1.077   7.460   0.039  0.1727 -0.0057  0.4996
38241SOL    HW121328   1.015   7.433  -0.029  0.1105 -1.1506  0.9792
38241SOL    HW221329   1.064   7.396   0.110 -1.3134  2.4122  2.5475
38242SOL     OW21330   4.972   7.862   8.267  0.3517  0.0476  0.6788
38242SOL    HW121331   5.048   7.886   8.213  1.2287 -0.3348  1.7137
38242SOL    HW221332   4.897   7.887   8.214  1.1873 -0.0305 -0.6029
38243SOL     OW21333   9.386  10.739   8.214  0.3026  0.3399  0.6888
38243SOL    HW121334   9.468  10.697   8.186 -0.0228 -0.6588  1.2024
38243SOL    HW221335   9.366  10.801   8.144 -0.9176 -2.6053 -1.7693
38244SOL     OW21336  11.693   8.002   7.957 -0.1272  0.4087  0.1505
38244SOL    HW121337  11.687   7.996   8.053 -0.6173  0.2684  0.1143
38244SOL    HW221338  11.719   7.915   7.929  2.2050  0.9801  0.2971
38245SOL     OW21339   6.583  12.155   5.977  0.2035  0.5426 -0.1226
38245SOL    HW121340   6.512  12.195   5.926  0.0667  1.5545  0.8407
38245SOL    HW221341   6.657  12.215   5.966  0.6300 -0.0223 -0.3579
38246SOL     OW21342   6.924   7.746   9.739 -0.2964  0.2943  0.3167
38246SOL    HW121343   6.933   7.750   9.835  0.1872  0.6118  0.2654
38246SOL    HW221344   6.853   7.685   9.724 -0.3008  0.1524  0.8823
38247SOL     OW21345   4.208   8.206   0.864 -0.0722 -0.1160  0.6858
38247SOL    HW121346   4.279   8.149   0.894  1.2820  0.9502 -0.3728
38247SOL    HW221347   4.236   8.294   0.889 -0.5900  0.4119 -0.5331
38248SOL     OW21348   0.569  11.819   1.707 -0.1641 -0.3782  0.0870
38248SOL    HW121349   0.581  11.883   1.778 -0.8325 -0.4149  0.2399
38248SOL    HW221350   0.554  11.873   1.629  1.2576 -0.3216 -0.1832
38249SOL     OW21351   3.168  10.751   6.635  0.7934 -0.4765 -0.2177
38249SOL    HW121352   3.229  10.794   6.574 -0.2475  0.8031 -0.3982
38249SOL    HW221353   3.217  10.746   6.718  2.0062 -1.7010 -0.9636
38250SOL     OW21354   4.571  10.960  10.764  0.1988 -0.2083  0.1846
38250SOL    HW121355   4.514  10.941  10.838 -0.6610 -0.9399 -0.6451
38250SOL    HW221356   4.651  10.995  10.804  0.0186 -1.2191  1.4986
38251SOL     OW21357   1.334   4.438   0.227  0.1608  0.2958 -0.1092
38251SOL    HW121358   1.412   4.402   0.269 -0.2820  0.2186  0.6604
38251SOL    HW221359   1.289   4.362   0.191 -0.9790 -0.0260  1.8577
38252SOL     OW21360  11.079   7.606   9.832  0.0554  0.3571 -0.1553
38252SOL    HW121361  11.081   7.535   9.896  2.6097  0.4349 -0.0598
38252SOL    HW221362  11.041   7.680   9.879 -1.2181 -0.4871  0.1996
38253SOL     OW21363   5.951   2.807  10.933 -0.2005  0.1715  0.6577
38253SOL    HW121364   6.021   2.847  10.986 -1.0817  2.0735  0.4530
38253SOL    HW221365   5.964   2.844  10.845 -1.0421 -0.0088  0.4556
38254SOL     OW21366   8.833   2.026   4.222  1.0010 -0.0040 -0.0275
38254SOL    HW121367   8.771   2.066   4.161  1.5937 -0.3667 -0.8990
38254SOL    HW221368   8.785   1.952   4.260 -0.1122  1.4873  1.6273
38255SOL     OW21369   1.682   4.615  10.919  0.2039 -0.1977 -0.3496
38255SOL    HW121370   1.651   4.698  10.955 -0.7314  0.7825 -3.1691
38255SOL    HW221371   1.765   4.637  10.876  0.0288 -0.7568 -0.9898
38256SOL     OW21372   9.045   4.602  11.051 -0.1480  0.8709 -0.0360
38256SOL    HW121373   9.104   4.572  10.982  0.7394  0.3261  0.9326
38256SOL    HW221374   9.016   4.521  11.094 -3.6060  0.8513 -1.9962
38257SOL     OW21375   7.817   0.809   8.557  0.4449 -0.7055 -0.3917
38257SOL    HW121376   7.874   0.762   8.619  0.8354 -1.0624 -1.0119
38257SOL    HW221377   7.849   0.784   8.471 -0.2669 -0.4169 -0.7498
38258SOL     OW21378  12.003   7.241   5.689  0.4702 -0.3418  0.2788
38258SOL    HW121379  12.013   7.335   5.672  1.3453  0.1030  2.9062
38258SOL    HW221380  11.985   7.235   5.783 -0.5044 -2.7706  0.0085
38259SOL     OW21381   6.405   7.905   5.534  0.6442 -0.2262 -0.8488
38259SOL    HW121382   6.331   7.930   5.589 -0.1279  0.3265 -2.1110
38259SOL    HW221383   6.449   7.836   5.584 -0.6073 -0.4500 -0.0006
38260SOL     OW21384   0.122   2.332  11.344  0.5875 -0.0212  0.3806
38260SOL    HW121385   0.118   2.329  11.248  1.6967  0.4136  0.3042
38260SOL    HW221386   0.158   2.247  11.368 -0.6215 -0.5174  0.4887
38261SOL     OW21387  12.508  10.990   0.415  0.5547  0.1882 -0.4307
38261SOL    HW121388  12.518  11.040   0.497  3.4744  1.2441 -1.2962
38261SOL    HW221389  12.467  11.052   0.355 -0.8411 -0.3246 -0.0524
38262SOL     OW21390   0.806   9.239   9.949 -0.3043 -0.0336  0.2851
38262SOL    HW121391   0.724   9.190   9.960 -0.4582  0.2140  0.2604
38262SOL    HW221392   0.875   9.174   9.962 -0.5110 -0.4681 -0.6941
38263SOL     OW21393   4.120   5.869  12.626  1.0219  0.4093 -0.0418
38263SOL    HW121394   4.105   5.784  12.669 -0.2091  0.0840 -1.0555
38263SOL    HW221395   4.080   5.933  12.685 -3.1368 -0.2647 -1.7849
38264SOL     OW21396  11.798   3.010   2.100  0.3125 -0.3070  0.8900
38264SOL    HW121397  11.779   3.091   2.147  1.0075  0.2975  0.1648
38264SOL    HW221398  11.857   3.037   2.030  0.1797 -1.3716  0.3533
38265SOL     OW21399  11.715   3.452   0.925  0.1368 -0.2041 -0.8046
38265SOL    HW121400  11.671   3.400   0.992  0.2276 -1.2851 -1.5395
38265SOL    HW221401  11.745   3.531   0.970  1.4192 -1.5203  0.7698
38266SOL     OW21402  11.050   2.411   0.720  0.6178 -0.1303  0.2235
38266SOL    HW121403  11.054   2.347   0.649  2.1679  0.3976 -0.1984
38266SOL    HW221404  11.096   2.487   0.686  2.7867 -0.4076  2.3211
38267SOL     OW21405   9.541   5.359   1.779 -0.0895 -0.4346 -0.3637
38267SOL    HW121406   9.607   5.304   1.738  0.6479  0.0455  0.1351
38267SOL    HW221407   9.460   5.309   1.772  0.2330 -0.8462 -1.3775
38268SOL     OW21408   7.699  11.849   6.715  0.1694  0.3164 -0.0172
38268SOL    HW121409   7.636  11.917   6.690 -0.0893  0.1657  0.2197
38268SOL    HW221410   7.755  11.892   6.781  0.5589  0.5674 -0.4997
38269SOL     OW21411   5.736  11.559  10.597  0.2956  0.3651 -0.2670
38269SOL    HW121412   5.792  11.488  10.566  0.2325  0.2381 -0.1007
38269SOL    HW221413   5.665  11.514  10.643  0.2867  0.5395 -0.1086
38270SOL     OW21414   2.011   0.519  11.986  0.1713  0.1164  0.1856
38270SOL    HW121415   2.052   0.555  11.907  0.3910  0.4117  0.4309
38270SOL    HW221416   2.067   0.446  12.011  0.6681  0.6368  0.6283
38271SOL     OW21417   7.800  11.274   0.006  0.0585  0.5971 -0.7979
38271SOL    HW121418   7.731  11.243  -0.053 -1.3764 -1.0534  1.5569
38271SOL    HW221419   7.764  11.353   0.045 -1.0987 -0.8456  1.2346
38272SOL     OW21420   7.430   7.683  10.501  0.8463  0.0030  0.2091
38272SOL    HW121421   7.408   7.749  10.568  0.6156 -1.2649  1.4378
38272SOL    HW221422   7.406   7.600  10.542  2.4608 -0.9713 -0.7454
38273SOL     OW21423  11.582   8.511  12.204 -0.1312  0.0406  0.9866
38273SOL    HW121424  11.632   8.512  12.285  1.5473  0.4032 -0.0102
38273SOL    HW221425  11.506   8.456  12.224  0.8107 -0.8118  2.4632
38274SOL     OW21426   5.432   1.263   0.119 -0.2004 -0.3067 -0.5400
38274SOL    HW121427   5.393   1.348   0.136  0.3876  0.5230 -2.9087
38274SOL    HW221428   5.520   1.268   0.156  0.1147  0.4326 -1.3653
38275SOL     OW21429  10.122  11.428   4.545  0.6801  0.1395  0.0829
38275SOL    HW121430  10.189  11.491   4.570  0.3563 -0.1623  1.8383
38275SOL    HW221431  10.142  11.350   4.598 -0.4055 -0.3316 -0.1805
38276SOL     OW21432   5.692   9.410  10.721 -0.0151  0.6911 -0.6094
38276SOL    HW121433   5.620   9.473  10.721 -0.7043 -0.0889 -0.0474
38276SOL    HW221434   5.650   9.325  10.722  0.8971  0.2149  1.5155
38277SOL     OW21435   4.856   1.601  12.772  0.3368  0.6380 -0.5375
38277SOL    HW121436   4.895   1.525  12.814  0.3704  0.3211 -1.1336
38277SOL    HW221437   4.879   1.675  12.828  0.3704  0.2195 -0.0001
38278SOL     OW21438   6.198   1.941   7.685  0.0691 -0.5204  0.0989
38278SOL    HW121439   6.233   1.930   7.596 -0.5158 -1.3067 -0.0486
38278SOL    HW221440   6.134   2.012   7.677  0.6072 -0.0348  0.0698
38279SOL     OW21441  10.783   2.985   3.006  0.2122 -0.4969  0.0408
38279SOL    HW121442  10.757   2.946   2.923  0.7511  0.6169 -0.6714
38279SOL    HW221443  10.785   3.080   2.989 -0.2283 -0.2010  1.4750
38280SOL     OW21444   7.357  11.651   6.158  0.4246  0.3365 -0.0945
38280SOL    HW121445   7.451  11.661   6.142  0.9405 -1.7582  1.3176
38280SOL    HW221446   7.334  11.569   6.114 -1.0329  1.3539 -1.3466
38281SOL     OW21447   6.728   6.408   4.466  0.1777 -0.4690 -0.0997
38281SOL    HW121448   6.774   6.472   4.519 -2.7162  1.0647  0.7849
38281SOL    HW221449   6.642   6.447   4.450 -0.3458 -2.4409 -2.9335
38282SOL     OW21450   8.154   3.693   5.185 -0.1253 -0.3140 -0.0084
38282SOL    HW121451   8.129   3.785   5.171 -0.2338 -0.3946 -0.3569
38282SOL    HW221452   8.248   3.696   5.201  0.2552 -0.3254 -2.0298
38283SOL     OW21453   7.755   9.949   8.845 -0.2489  0.1175 -0.2960
38283SOL    HW121454   7.730   9.866   8.885 -2.2239  0.6677 -0.2610
38283SOL    HW221455   7.829   9.927   8.788 -1.4788 -1.9286 -1.2404
38284SOL     OW21456   6.896  12.462   5.575  0.1255  0.1033 -0.0423
38284SOL    HW121457   6.880  12.367   5.572 -0.4450  0.0228  2.8044
38284SOL    HW221458   6.992  12.469   5.579  0.1944 -0.3137 -0.7803
38285SOL     OW21459   7.073   1.458  12.288 -0.4168 -0.2256 -0.2829
38285SOL    HW121460   7.064   1.363  12.295 -1.4307 -0.2289 -1.3482
38285SOL    HW221461   7.074   1.476  12.194  0.5636  0.7615 -0.1115
38286SOL     OW21462  10.505   1.779   5.876  0.3670  0.0905 -0.1557
38286SOL    HW121463  10.430   1.758   5.933 -0.7881 -2.0605 -2.2785
38286SOL    HW221464  10.579   1.787   5.935 -1.2075  0.5426  1.8665
38287SOL     OW21465   3.959   8.621   2.637  0.3683 -0.1908 -0.6840
38287SOL    HW121466   3.897   8.550   2.620  1.4316 -0.9836 -1.3428
38287SOL    HW221467   3.933   8.655   2.723 -3.0693  1.7222 -2.2532
38288SOL     OW21468   4.716   5.460  12.750  0.0242  0.4513  0.2110
38288SOL    HW121469   4.681   5.499  12.670  0.3508 -0.0340 -0.1706
38288SOL    HW221470   4.645   5.469  12.813 -0.6137 -0.0775 -0.4174
38289SOL     OW21471  12.568   1.586   8.489 -0.0833  0.6141  0.0078
38289SOL    HW121472  12.545   1.602   8.398 -0.8450 -0.8300 -0.0725
38289SOL    HW221473  12.493   1.540   8.526  0.9597 -0.4857  0.8595
38290SOL     OW21474   5.701   6.569   3.085 -0.2366 -0.2348 -0.4044
38290SOL    HW121475   5.744   6.515   3.019 -0.4595 -0.1435 -0.6258
38290SOL    HW221476   5.679   6.509   3.156 -0.6827 -0.4737 -0.7468
38291SOL     OW21477  11.063   2.801   8.757 -0.4256 -0.3331  0.4451
38291SOL    HW121478  10.993   2.864   8.772  0.9377  2.3933 -3.2005
38291SOL    HW221479  11.049   2.769   8.668  1.6417 -1.5035  0.4685
38292SOL     OW21480   4.047  12.446   4.098  0.0391 -0.2140 -0.3156
38292SOL    HW121481   4.070  12.397   4.177  0.3007  0.8099  0.2619
38292SOL    HW221482   4.097  12.403   4.029  1.7719  0.3774  0.4966
38293SOL     OW21483   5.936  10.972  12.321 -0.3238  0.1924  0.1897
38293SOL    HW121484   5.998  10.907  12.353  0.7595  1.1426  0.0792
38293SOL    HW221485   5.955  10.979  12.227 -2.7470 -1.7835 -0.5690
38294SOL     OW21486   8.329  10.595  12.785 -0.2301  0.1235 -0.2122
38294SOL    HW121487   8.337  10.630  12.697  1.7585 -1.6904 -0.8546
38294SOL    HW221488   8.264  10.525  12.777  0.4692 -0.5164 -0.4444
38295SOL     OW21489   6.083  10.020   0.961  0.1762  0.0053 -0.2027
38295SOL    HW121490   6.018  10.039   0.893 -0.1545  0.4381  0.2301
38295SOL    HW221491   6.032   9.995   1.037  0.5749 -1.8605 -0.4953
38296SOL     OW21492   6.953   1.443   8.097 -0.4840  0.4496  0.3015
38296SOL    HW121493   6.928   1.382   8.167 -2.0680 -0.6109 -1.0874
38296SOL    HW221494   6.923   1.400   8.017  4.0749  0.0708 -1.4645
38297SOL     OW21495   3.122   4.596   7.579 -0.2006 -0.1764 -0.2431
38297SOL    HW121496   3.107   4.573   7.671  1.7260  0.7190  0.3515
38297SOL    HW221497   3.158   4.516   7.540  0.8484  0.0076  0.3077
38298SOL     OW21498   7.565   8.567   1.424  0.2615  0.5213  0.0859
38298SOL    HW121499   7.538   8.659   1.420  0.4318  0.8154  3.1919
38298SOL    HW221500   7.660   8.569   1.414  0.2243  0.6469 -0.2350
38299SOL     OW21501   8.366   2.981   4.191  0.1426 -0.0527 -0.6574
38299SOL    HW121502   8.416   3.033   4.128  1.4274 -0.6076 -0.1365
38299SOL    HW221503   8.367   2.893   4.155  0.8536 -0.3642  0.0905
38300SOL     OW21504  12.215   1.462   7.619 -0.3193  0.0293 -0.3358
38300SOL    HW121505  12.211   1.496   7.530  0.4694  0.1591 -0.3304
38300SOL    HW221506  12.213   1.540   7.674 -2.2737 -0.0916 -0.1536
38301SOL     OW21507   1.082   5.305  11.327 -0.6742  0.4578 -0.1127
38301SOL    HW121508   1.102   5.354  11.247  0.6107  2.1613  1.1633
38301SOL    HW221509   0.986   5.309  11.334 -0.8617 -0.2100 -1.8078
38302SOL     OW21510   7.037   5.166   8.882  0.5641  0.0529  0.2352
38302SOL    HW121511   7.072   5.133   8.800 -2.5607  0.9298 -1.6339
38302SOL    HW221512   7.070   5.106   8.949 -0.3915 -3.5715 -2.2523
38303SOL     OW21513   8.910   2.353  10.409  0.0666  0.2673 -0.6192
38303SOL    HW121514   8.873   2.365  10.322 -1.4509  0.1062 -0.0173
38303SOL    HW221515   8.837   2.322  10.463  0.9679  0.3786  0.7206
38304SOL     OW21516   6.650   2.625   4.751  0.2367  0.4869 -0.2608
38304SOL    HW121517   6.634   2.714   4.783  1.3067  1.0772 -1.2759
38304SOL    HW221518   6.742   2.608   4.773 -0.1781 -0.7130  0.6646
38305SOL     OW21519   2.227   5.697   3.563  0.2082  0.5394  0.1493
38305SOL    HW121520   2.309   5.651   3.546  0.5120  1.4283 -0.9372
38305SOL    HW221521   2.231   5.721   3.656 -0.3424 -2.2934  0.9905
38306SOL     OW21522  10.878  12.412  12.154  0.1561 -0.1053  0.1999
38306SOL    HW121523  10.812  12.482  12.153 -0.5295 -0.7153  0.9794
38306SOL    HW221524  10.937  12.434  12.082 -1.0583  0.3010 -0.7078
38307SOL     OW21525  11.792   8.112  10.502  0.2654  0.0335  0.6098
38307SOL    HW121526  11.806   8.109  10.407  0.8221  1.5407  0.6316
38307SOL    HW221527  11.840   8.035  10.535  1.8121  0.6200 -0.1471
38308SOL     OW21528   7.682   8.081   0.040 -1.3591 -0.3850  0.1353
38308SOL    HW121529   7.709   8.170   0.015  1.0999 -0.9223  0.5514
38308SOL    HW221530   7.654   8.040  -0.042 -0.9594  0.2945 -0.3565
38309SOL     OW21531  11.058   2.735   3.842 -0.1014  0.3555 -0.0633
38309SOL    HW121532  11.028   2.659   3.891 -0.3594 -2.3718 -4.0197
38309SOL    HW221533  11.153   2.735   3.854 -0.2141  0.1218  0.8860
38310SOL     OW21534   2.106   0.812  12.629 -0.3192 -0.1792 -0.2589
38310SOL    HW121535   2.170   0.870  12.670 -1.3689  0.3944  0.6113
38310SOL    HW221536   2.021   0.848  12.655 -1.0003 -0.9374 -1.3700
38311SOL     OW21537   0.949  10.037   1.804 -0.3584  0.0408 -0.3843
38311SOL    HW121538   0.885  10.107   1.818 -0.2067  0.4445 -1.5376
38311SOL    HW221539   0.911   9.960   1.844 -1.7089  0.2092 -1.2863
38312SOL     OW21540  12.739   0.517   4.517 -0.1186  0.1558 -0.2881
38312SOL    HW121541  12.728   0.579   4.445 -0.1928 -1.2997 -1.5743
38312SOL    HW221542  12.834   0.502   4.520 -0.1283  0.1231 -0.1497
38313SOL     OW21543   7.768   8.933   8.415  1.3603 -0.7121 -0.4550
38313SOL    HW121544   7.694   8.991   8.432  0.7561 -1.9218  1.3391
38313SOL    HW221545   7.823   8.982   8.354 -0.5334  0.5256 -1.2840
38314SOL     OW21546   0.358   3.325   6.463  0.5774 -0.1211 -0.5821
38314SOL    HW121547   0.282   3.282   6.425 -0.8161  1.1547  0.6462
38314SOL    HW221548   0.340   3.419   6.453  1.0200  0.2301  1.5189
38315SOL     OW21549   7.384  10.507   4.421 -0.1932  0.5458 -0.2196
38315SOL    HW121550   7.336  10.491   4.340  0.3794 -0.4775 -0.3712
38315SOL    HW221551   7.324  10.481   4.490 -0.1109 -0.1048 -0.3859
38316SOL     OW21552   5.589   8.290   9.418 -0.5238 -0.0676 -0.1841
38316SOL    HW121553   5.523   8.221   9.413 -1.2233  0.5882 -0.2547
38316SOL    HW221554   5.598   8.322   9.328 -0.1390 -0.1261 -0.1673
38317SOL     OW21555   5.264   1.884   1.423 -0.3902  0.1516 -0.5440
38317SOL    HW121556   5.274   1.978   1.433  0.1024  0.1116 -0.6159
38317SOL    HW221557   5.244   1.852   1.511  2.8655 -0.0742  0.2255
38318SOL     OW21558   3.685   2.846   4.849 -0.2809  0.2731 -0.5766
38318SOL    HW121559   3.617   2.871   4.912 -0.1900  0.4739 -0.5583
38318SOL    HW221560   3.763   2.830   4.902  0.2611  2.0445 -0.7613
38319SOL     OW21561   1.213   1.593  12.172  0.3913 -0.2200  0.0066
38319SOL    HW121562   1.237   1.670  12.120 -0.5657  0.9791  1.2852
38319SOL    HW221563   1.145   1.624  12.231  0.7764 -1.7853  1.3392
38320SOL     OW21564  10.985   9.424   5.611 -0.0969 -0.1609 -0.5200
38320SOL    HW121565  10.985   9.437   5.516 -1.8428 -1.5283 -0.7830
38320SOL    HW221566  10.920   9.486   5.644  0.5012  0.3068 -0.2095
38321SOL     OW21567   0.293   8.091   0.251 -0.0247 -0.1112  0.2696
38321SOL    HW121568   0.204   8.085   0.216 -0.1189  1.9559  0.0720
38321SOL    HW221569   0.281   8.108   0.344  0.2127 -1.5194  0.5855
38322SOL     OW21570   0.587   8.783  12.369 -0.1267  0.2027  0.0545
38322SOL    HW121571   0.601   8.713  12.305  2.4456 -0.6774  1.4606
38322SOL    HW221572   0.518   8.750  12.426  0.6231 -0.9519  0.3236
38323SOL     OW21573   2.352   3.066  11.816 -0.2562 -0.1300 -0.2710
38323SOL    HW121574   2.446   3.085  11.814 -0.1873 -0.4917 -0.4337
38323SOL    HW221575   2.344   2.979  11.778 -0.6989  0.0479 -0.5886
38324SOL     OW21576  11.757   6.258   0.664  0.0238 -0.2577 -0.3671
38324SOL    HW121577  11.752   6.245   0.758  1.7578  0.5511 -0.1237
38324SOL    HW221578  11.831   6.205   0.635 -0.5708 -0.6124 -1.3089
38325SOL     OW21579   0.200   6.906   3.543  0.3027 -0.2517 -0.3729
38325SOL    HW121580   0.157   6.858   3.473 -0.6898 -0.2164  0.2010
38325SOL    HW221581   0.260   6.842   3.582 -0.7930 -0.9713  0.1933
38326SOL     OW21582   4.658   5.263   0.586 -0.7715 -0.4013  1.0569
38326SOL    HW121583   4.629   5.271   0.495  1.7775 -3.8473 -0.2714
38326SOL    HW221584   4.732   5.323   0.593 -0.6369 -0.5168  0.6661
38327SOL     OW21585  12.146   7.221   3.525 -0.3172 -0.3007 -0.1581
38327SOL    HW121586  12.178   7.310   3.511 -1.5394  0.7395  2.8925
38327SOL    HW221587  12.073   7.212   3.463 -0.5348  1.0314 -0.1136
38328SOL     OW21588  10.307   1.627   7.776 -0.4384 -0.0466  0.0967
38328SOL    HW121589  10.347   1.549   7.736  0.3083  0.5660 -0.3648
38328SOL    HW221590  10.284   1.599   7.865 -0.9260 -1.0372 -0.3270
38329SOL     OW21591   7.422   4.204  11.728 -0.4103 -0.0304  0.0753
38329SOL    HW121592   7.375   4.192  11.810  0.1263  0.4577  0.4599
38329SOL    HW221593   7.367   4.264  11.677  0.0603  1.0362  0.7714
38330SOL     OW21594   9.438   1.926   9.405  0.2359 -0.0922 -0.0040
38330SOL    HW121595   9.505   1.896   9.344  1.3157  0.4324  0.8948
38330SOL    HW221596   9.380   1.851   9.417  0.9563 -0.7184 -0.3951
38331SOL     OW21597   2.492   2.056   0.920  0.2002  0.0275  0.1499
38331SOL    HW121598   2.433   1.981   0.925 -0.4896  0.5484 -0.1076
38331SOL    HW221599   2.447   2.119   0.865  0.3728  1.0030  1.0829
38332SOL     OW21600  10.789   6.450   6.154 -0.7907  0.5524 -0.5687
38332SOL    HW121601  10.741   6.532   6.139 -0.0267  0.9704 -0.7820
38332SOL    HW221602  10.751   6.415   6.234 -0.2731  1.7766  0.2497
38333SOL     OW21603  12.546   9.560   1.966  0.4103 -0.4417 -0.0018
38333SOL    HW121604  12.627   9.511   1.951  1.1807  1.1084 -1.2399
38333SOL    HW221605  12.571   9.628   2.029 -0.2458 -0.6630  0.5080
38334SOL     OW21606   5.957  10.070   2.120  0.0097 -0.0588 -0.0394
38334SOL    HW121607   6.017  10.010   2.164  0.1366 -0.7778 -1.1497
38334SOL    HW221608   6.013  10.137   2.081 -0.0750  0.3806  0.5832
38335SOL     OW21609   5.804   3.894  11.542 -0.1413 -0.0377  0.4739
38335SOL    HW121610   5.731   3.842  11.576  0.5161 -0.6305  1.0280
38335SOL    HW221611   5.867   3.895  11.614  0.3370  0.5887  0.0535
38336SOL     OW21612   3.826   8.121   9.354  0.2046 -0.3470 -0.1134
38336SOL    HW121613   3.763   8.101   9.286 -0.5604  1.3528  0.0323
38336SOL    HW221614   3.823   8.217   9.362 -0.0036 -0.4865  2.5337
38337SOL     OW21615   7.899  11.099   9.804 -0.3013  0.4007  0.0870
38337SOL    HW121616   7.867  11.184   9.835 -1.2800  0.3521 -0.7452
38337SOL    HW221617   7.971  11.077   9.863 -2.8830 -0.3254  3.2081
38338SOL     OW21618  11.291   5.302   1.818  0.3208  0.5754  0.0470
38338SOL    HW121619  11.248   5.238   1.874  0.4230  1.0808  0.7069
38338SOL    HW221620  11.241   5.382   1.828  2.2314  1.6280  2.0310
38339SOL     OW21621   5.491   6.863   0.793 -0.3023  0.6781  0.3005
38339SOL    HW121622   5.456   6.925   0.729 -0.8228  0.0252 -0.0564
38339SOL    HW221623   5.526   6.791   0.740 -0.0159  0.5044  0.7224
38340SOL     OW21624   4.292   1.725   0.723  0.0479  0.6796 -0.3588
38340SOL    HW121625   4.281   1.637   0.688  1.5274  0.6465 -0.7886
38340SOL    HW221626   4.297   1.714   0.818  0.7802  0.2440 -0.4496
38341SOL     OW21627   0.357  11.533   1.972 -0.0765 -0.8946  0.0277
38341SOL    HW121628   0.331  11.467   2.036 -2.5017 -0.6910 -0.6488
38341SOL    HW221629   0.376  11.483   1.892  1.1555 -0.9939  0.3636
38342SOL     OW21630   2.156  11.505  12.727  0.1194 -0.3451 -0.4825
38342SOL    HW121631   2.144  11.539  12.638 -1.0173 -0.4774 -0.3908
38342SOL    HW221632   2.090  11.437  12.736 -0.0929 -0.0155  0.6256
38343SOL     OW21633   4.767   1.406  12.120 -0.3775 -0.6885 -0.1393
38343SOL    HW121634   4.735   1.318  12.140 -0.0049 -1.1332 -1.3938
38343SOL    HW221635   4.743   1.419  12.028 -1.0403  0.8064  0.2211
38344SOL     OW21636   7.529   8.421   4.184 -0.6040  0.3519  0.0217
38344SOL    HW121637   7.515   8.402   4.091 -0.6362 -1.0334  0.2888
38344SOL    HW221638   7.623   8.407   4.197 -0.8648 -1.0726  0.5235
38345SOL     OW21639  10.493  12.057  12.102  0.2586 -0.1810  0.6879
38345SOL    HW121640  10.579  12.026  12.129 -1.0168 -3.3230  1.5650
38345SOL    HW221641  10.473  12.129  12.163  1.2052 -1.1761  2.2402
38346SOL     OW21642   3.226   6.724   0.384  0.0783 -0.0566 -0.5466
38346SOL    HW121643   3.174   6.755   0.459 -0.4921  1.9358 -1.6901
38346SOL    HW221644   3.309   6.696   0.423 -0.9906 -1.1943  1.0634
38347SOL     OW21645   8.954   9.688   6.377 -0.3991  0.1185  0.6091
38347SOL    HW121646   8.885   9.729   6.326 -0.3942 -0.7343 -0.1067
38347SOL    HW221647   9.027   9.680   6.316 -0.0590 -0.0384  1.0299
38348SOL     OW21648   9.701   6.091   2.996 -0.3929 -0.3590  0.1630
38348SOL    HW121649   9.609   6.066   2.995 -0.6629  0.6283  0.0160
38348SOL    HW221650   9.722   6.109   2.905 -0.7439  1.8524  0.4730
38349SOL     OW21651   3.660   6.500  11.251 -0.5930  0.5499 -0.4520
38349SOL    HW121652   3.570   6.529  11.268 -0.9763  0.7414 -2.5854
38349SOL    HW221653   3.714   6.568  11.292 -1.3811  0.3089  1.0654
38350SOL     OW21654  11.237   0.774   2.684 -0.0340 -0.2663  0.0488
38350SOL    HW121655  11.149   0.798   2.714  0.0990  0.4079 -0.0966
38350SOL    HW221656  11.234   0.678   2.675 -0.2748 -0.4291  1.5819
38351SOL     OW21657   5.049  12.208   1.479  0.5284  0.5103  0.6892
38351SOL    HW121658   5.021  12.183   1.567 -1.1390 -1.5291 -0.3241
38351SOL    HW221659   5.084  12.127   1.442 -0.2300  0.9339 -1.0215
38352SOL     OW21660   3.088   6.647  10.463 -0.1010  0.1321  0.2175
38352SOL    HW121661   3.053   6.720  10.412 -0.4309  0.1752  0.5016
38352SOL    HW221662   3.067   6.669  10.554  0.2830 -0.0541  0.3523
38353SOL     OW21663   0.760   8.097   4.597  0.2848 -0.5801 -0.0024
38353SOL    HW121664   0.702   8.152   4.544  0.7982 -0.4438 -0.4335
38353SOL    HW221665   0.779   8.150   4.675  0.2040 -0.4391 -0.0783
38354SOL     OW21666   1.652   4.635   8.481  0.2708 -0.1130  0.0819
38354SOL    HW121667   1.605   4.585   8.415 -0.9085  1.7746 -0.5788
38354SOL    HW221668   1.702   4.569   8.530  0.2476 -1.6931 -1.9001
38355SOL     OW21669   0.785  12.353   3.431  0.0287 -0.1980 -0.2255
38355SOL    HW121670   0.819  12.373   3.518 -0.7592  1.8473 -0.3288
38355SOL    HW221671   0.853  12.298   3.391  1.7883  1.1773  0.6807
38356SOL     OW21672  12.446   5.204   8.502 -0.1514  0.4522  0.2514
38356SOL    HW121673  12.402   5.193   8.418  0.6074  0.8365 -0.2130
38356SOL    HW221674  12.485   5.292   8.497 -0.3061  0.5788  1.1034
38357SOL     OW21675   7.907  10.030   1.960  0.0034  0.0370  0.1494
38357SOL    HW121676   7.988  10.028   1.909  0.5822 -0.7484  1.0630
38357SOL    HW221677   7.935  10.044   2.051 -0.7630 -1.4431  0.6599
38358SOL     OW21678   5.138   6.935   7.449 -0.0985 -0.1576 -0.0224
38358SOL    HW121679   5.122   6.993   7.524 -0.0634  0.3486 -0.4026
38358SOL    HW221680   5.159   6.994   7.377  0.3701 -0.6623 -0.3105
38359SOL     OW21681   9.966   0.235   3.035 -0.4470  0.0097 -0.1441
38359SOL    HW121682   9.955   0.142   3.058  2.1531 -0.6885 -1.3247
38359SOL    HW221683   9.920   0.245   2.952 -0.1559 -0.4148 -0.3611
38360SOL     OW21684   4.601   0.691  11.050 -0.0473 -0.0918  0.3195
38360SOL    HW121685   4.667   0.731  11.106 -1.6139  0.6148  1.7544
38360SOL    HW221686   4.583   0.606  11.091  1.2214 -1.1060 -1.1032
38361SOL     OW21687  11.055   7.362  10.016  0.0474 -0.0596 -0.2945
38361SOL    HW121688  11.064   7.302   9.942  1.0695 -0.6567  0.2937
38361SOL    HW221689  11.029   7.306  10.089 -0.3753  0.4337 -0.0658
38362SOL     OW21690   3.002   0.672  11.450  0.2918  0.3591 -0.1523
38362SOL    HW121691   2.984   0.599  11.509  2.0244 -0.3655 -0.4427
38362SOL    HW221692   2.977   0.750  11.499  1.7083 -0.2194  1.5764
38363SOL     OW21693   7.855   0.399   4.390  0.2350 -0.0991 -0.1279
38363SOL    HW121694   7.924   0.365   4.332  0.1775  0.7105 -0.6889
38363SOL    HW221695   7.895   0.400   4.477  1.4846  1.8239 -0.6756
38364SOL     OW21696  10.697   5.894  11.095 -0.0662 -0.1501  0.1523
38364SOL    HW121697  10.713   5.955  11.022  1.5464 -1.1776 -0.4178
38364SOL    HW221698  10.738   5.812  11.067 -2.2748 -1.5588  0.8589
38365SOL     OW21699  11.760  11.327  11.416  0.0465  0.2942 -0.2595
38365SOL    HW121700  11.669  11.331  11.445 -0.0119  0.8233 -0.5005
38365SOL    HW221701  11.755  11.336  11.320  0.2469 -1.1998 -0.4405
38366SOL     OW21702   2.345   6.901   6.586  0.0507  0.0927  0.0841
38366SOL    HW121703   2.380   6.890   6.674  0.5716  0.6652 -0.0462
38366SOL    HW221704   2.356   6.994   6.567 -2.4209  0.5055  0.4042
38367SOL     OW21705  11.483  12.211  12.601 -0.0854  0.3475 -0.3807
38367SOL    HW121706  11.402  12.220  12.651  0.6996  1.4710  0.7704
38367SOL    HW221707  11.507  12.119  12.610 -0.8452  0.1697 -0.1156
38368SOL     OW21708  11.402   7.471   3.034 -0.2681  0.2429  0.3340
38368SOL    HW121709  11.398   7.524   2.954 -2.1312  0.5859  0.6200
38368SOL    HW221710  11.369   7.529   3.103 -0.0492 -0.5272  1.1060
38369SOL     OW21711  11.270   7.745   2.608 -0.2686 -0.1260 -0.3884
38369SOL    HW121712  11.339   7.769   2.546  0.0531 -0.6388 -0.2329
38369SOL    HW221713  11.250   7.827   2.655  0.0115  0.0939 -0.6488
38370SOL     OW21714   9.942  10.095   4.932 -0.1477 -0.3275 -0.1804
38370SOL    HW121715   9.862  10.047   4.949 -0.5268  0.4404  0.2602
38370SOL    HW221716   9.986  10.100   5.016  0.0552 -0.2050 -0.2921
38371SOL     OW21717   2.805   8.926  11.285 -0.3163  0.1568  0.0845
38371SOL    HW121718   2.875   8.987  11.260  1.1376 -0.0646  3.1469
38371SOL    HW221719   2.725   8.980  11.282 -0.0698  0.5336 -3.0204
38372SOL     OW21720   6.121   7.477   3.287 -0.0576  0.0206  0.3040
38372SOL    HW121721   6.174   7.440   3.357 -0.5152 -1.5103 -0.1166
38372SOL    HW221722   6.037   7.431   3.293 -0.3954  0.4655 -0.7117
38373SOL     OW21723   7.914   2.131   2.709  0.5810  0.1574  0.6407
38373SOL    HW121724   7.953   2.217   2.695 -0.0741  0.2277 -0.8739
38373SOL    HW221725   7.927   2.085   2.626 -2.0382 -0.0113  0.2347
38374SOL     OW21726   3.182   4.109  11.619 -0.0561 -0.2193  0.3919
38374SOL    HW121727   3.106   4.067  11.660 -0.5665  1.9656  1.8523
38374SOL    HW221728   3.256   4.083  11.673 -0.2433  0.0949  0.8053
38375SOL     OW21729  12.424   6.595   8.257 -0.3874 -0.5078  0.1306
38375SOL    HW121730  12.402   6.577   8.166  0.8383  0.4121 -0.3739
38375SOL    HW221731  12.466   6.515   8.288  0.7142 -0.2421 -0.6354
38376SOL     OW21732  11.387   0.016  10.723 -0.6118 -0.0581  0.1559
38376SOL    HW121733  11.332   0.048  10.794 -0.6309 -1.1521  0.6621
38376SOL    HW221734  11.370   0.076  10.650 -0.5539  1.0972  1.0803
38377SOL     OW21735   9.738   0.766   9.385  0.0127 -0.5686 -0.2710
38377SOL    HW121736   9.791   0.689   9.404  1.2976  0.5589  0.9259
38377SOL    HW221737   9.794   0.821   9.331  0.4659  0.9909  1.6505
38378SOL     OW21738   8.436   5.923   4.251  0.8585  0.1487  0.1465
38378SOL    HW121739   8.528   5.900   4.240  1.1178  0.6236  1.1859
38378SOL    HW221740   8.412   5.964   4.168  1.4302 -0.4632 -0.3293
38379SOL     OW21741   2.899   1.985  11.589  0.5364  0.3607 -0.4572
38379SOL    HW121742   2.875   2.062  11.640  2.5147  0.2909  0.6842
38379SOL    HW221743   2.868   1.911  11.641  0.9512  0.3308 -0.2516
38380SOL     OW21744   4.425   5.909  10.273 -0.1258 -0.0218  0.2529
38380SOL    HW121745   4.337   5.933  10.245 -0.1630 -1.7928 -1.3390
38380SOL    HW221746   4.462   5.991  10.307 -1.5922  1.2932 -1.1286
38381SOL     OW21747  10.111   4.885  10.635  0.5939 -0.4371 -0.4636
38381SOL    HW121748  10.159   4.809  10.602  0.8216 -1.1122  1.2806
38381SOL    HW221749  10.135   4.889  10.728 -1.6059  0.0729  0.1281
38382SOL     OW21750   5.100   2.058   4.150  0.1577  0.0844  0.3680
38382SOL    HW121751   5.005   2.054   4.151  0.0221  1.7514 -1.4165
38382SOL    HW221752   5.121   2.151   4.143  1.9029 -0.3080 -0.2172
38383SOL     OW21753   0.137   0.440   8.775  0.1108 -0.2544  0.1131
38383SOL    HW121754   0.179   0.443   8.861  0.5173  0.0117 -0.0884
38383SOL    HW221755   0.199   0.392   8.720  0.2447  0.2979 -0.2319
38384SOL     OW21756   2.842   0.648   6.285 -0.2050 -0.4470  0.2219
38384SOL    HW121757   2.769   0.597   6.320 -1.6930  0.6667 -1.0990
38384SOL    HW221758   2.825   0.652   6.191 -0.4608  2.8398  0.2973
38385SOL     OW21759   1.972   5.814  12.060  0.1141 -0.3319 -0.1935
38385SOL    HW121760   1.895   5.827  12.004 -0.5220 -2.2369  0.1493
38385SOL    HW221761   2.034   5.769  12.003  0.2069 -0.5310  0.0620
38386SOL     OW21762   6.286   1.966   8.627  0.6694 -0.5954  0.3720
38386SOL    HW121763   6.322   1.947   8.713  0.1621 -1.8631  0.3294
38386SOL    HW221764   6.192   1.948   8.635  0.5578 -0.3894 -0.3475
38387SOL     OW21765   8.205   6.919   2.020  0.6626 -0.5890 -0.2089
38387SOL    HW121766   8.191   6.850   2.084 -2.1587 -0.3083 -0.3943
38387SOL    HW221767   8.175   6.881   1.937 -1.3093  0.9111 -0.2423
38388SOL     OW21768   1.643   5.999   1.816 -0.6925 -0.2188  0.1060
38388SOL    HW121769   1.623   6.092   1.811 -1.6971 -0.4403 -0.1441
38388SOL    HW221770   1.600   5.969   1.897  1.6716  0.0028  1.5449
38389SOL     OW21771   0.452   6.138   0.870  0.0513 -0.3422 -1.0611
38389SOL    HW121772   0.440   6.050   0.904  0.7253  0.0964  0.3925
38389SOL    HW221773   0.495   6.125   0.785  1.0301 -1.3897 -0.4275
38390SOL     OW21774   7.189   0.869  12.200  0.3580 -0.2513 -0.1631
38390SOL    HW121775   7.104   0.911  12.188  0.5139  0.5056  1.2215
38390SOL    HW221776   7.219   0.899  12.286  1.6401 -1.1850 -0.2575
38391SOL     OW21777   8.040   5.571  11.976  0.2794  0.0467 -0.1673
38391SOL    HW121778   8.010   5.654  12.012  1.1478  0.0066  0.7003
38391SOL    HW221779   7.992   5.561  11.893  0.3385  1.5147 -0.3964
38392SOL     OW21780   4.387   8.866   0.548  0.2063 -0.5598 -0.0716
38392SOL    HW121781   4.457   8.928   0.568  1.1498 -0.9435 -2.0009
38392SOL    HW221782   4.430   8.794   0.503 -1.6211  0.1087 -3.1893
38393SOL     OW21783   6.407   6.294  10.365 -0.3064 -0.3534 -0.1350
38393SOL    HW121784   6.356   6.284  10.285  1.0625 -0.5750 -0.9983
38393SOL    HW221785   6.341   6.296  10.435 -1.4462 -1.3550 -1.1418
38394SOL     OW21786   5.045   9.895   3.122 -0.2396  0.3757  0.0794
38394SOL    HW121787   4.959   9.938   3.125 -0.2571  0.3102  1.3959
38394SOL    HW221788   5.081   9.909   3.210  1.1064  0.4099 -0.4567
38395SOL     OW21789   3.156   5.760   1.841  0.1252  0.0149  0.6403
38395SOL    HW121790   3.247   5.752   1.867 -0.2577 -0.4271  1.8970
38395SOL    HW221791   3.128   5.671   1.819 -0.4322 -0.1163  1.8076
38396SOL     OW21792   1.711  10.884  12.616  0.0054 -0.1968 -0.2496
38396SOL    HW121793   1.758  10.840  12.687 -1.3778 -1.1090  0.1339
38396SOL    HW221794   1.713  10.821  12.544 -0.9816 -0.4210 -0.0868
38397SOL     OW21795   8.247  10.094  10.154 -0.4767  0.2603 -0.1639
38397SOL    HW121796   8.332  10.091  10.110 -0.4236  0.8110 -0.0971
38397SOL    HW221797   8.269  10.111  10.246 -0.6515  0.2643 -0.1233
38398SOL     OW21798   3.380   6.424   3.948 -0.1259  0.3444  0.4906
38398SOL    HW121799   3.395   6.500   3.892 -0.4887  0.2538  0.2678
38398SOL    HW221800   3.459   6.370   3.935  0.5152  1.0672  1.2995
38399SOL     OW21801   1.671  11.426   5.927  0.1644 -0.4378 -0.2869
38399SOL    HW121802   1.638  11.386   5.846 -1.8301  1.2741 -0.4327
38399SOL    HW221803   1.648  11.365   5.996 -0.5312 -0.7119 -0.7545
38400SOL     OW21804   8.757  11.792   5.094  0.2851  0.2035 -0.1671
38400SOL    HW121805   8.817  11.786   5.020 -0.7067 -0.4874 -0.9374
38400SOL    HW221806   8.799  11.739   5.162  0.5896 -0.2198 -0.6729
38401SOL     OW21807   6.405  12.274   0.083 -0.2029  0.0887 -0.1080
38401SOL    HW121808   6.469  12.332   0.042  1.3567 -0.3145  1.6423
38401SOL    HW221809   6.450  12.239   0.160 -1.3569 -2.8535 -0.6644
38402SOL     OW21810   3.811   3.175   4.102  0.5215 -0.3131 -0.3511
38402SOL    HW121811   3.894   3.221   4.097 -0.7235  2.0333 -0.8469
38402SOL    HW221812   3.783   3.185   4.193 -0.4951  1.3875 -0.8174
38403SOL     OW21813  12.128   7.272   5.985 -0.0925 -0.2477  0.0179
38403SOL    HW121814  12.076   7.196   6.010 -1.4690  0.8918  0.7812
38403SOL    HW221815  12.104   7.339   6.049  2.0359  0.4653  0.1502
38404SOL     OW21816   4.730   9.614  11.923 -0.3159  0.1495  0.2260
38404SOL    HW121817   4.664   9.545  11.915 -2.4410  2.0557  0.3108
38404SOL    HW221818   4.784   9.606  11.844 -2.3232  0.1437 -1.2034
38405SOL     OW21819   2.782   3.496   0.303 -0.3240  0.0587  0.1733
38405SOL    HW121820   2.870   3.531   0.289 -0.1475  0.3747  1.8140
38405SOL    HW221821   2.765   3.442   0.226  1.6234 -0.6643  0.1911
38406SOL     OW21822   9.758   3.187   6.450  0.4855  0.2736  0.2011
38406SOL    HW121823   9.763   3.183   6.355  2.1194 -0.9531  0.2941
38406SOL    HW221824   9.850   3.195   6.478  0.0942 -0.2469  1.6967
38407SOL     OW21825   3.638   1.258  12.029  0.0452 -0.3099 -0.7549
38407SOL    HW121826   3.720   1.224  11.992 -0.3999 -1.2814 -0.8780
38407SOL    HW221827   3.651   1.251  12.124 -0.2683 -1.4517 -0.7740
38408SOL     OW21828  12.659   4.679   8.565  0.0375  0.4791 -0.1916
38408SOL    HW121829  12.618   4.758   8.529 -0.1205  0.5710  0.1788
38408SOL    HW221830  12.686   4.629   8.489  2.1690  1.9297 -0.4555
38409SOL     OW21831   1.601   9.567   3.330  0.2096  0.2828 -0.0147
38409SOL    HW121832   1.635   9.481   3.304  1.7207  0.2254  1.9619
38409SOL    HW221833   1.525   9.547   3.384 -1.3490  0.3443 -2.0466
38410SOL     OW21834   1.584  10.001   9.087 -0.3655  0.2147  0.0867
38410SOL    HW121835   1.648  10.001   9.015 -0.0797  4.0825  0.1629
38410SOL    HW221836   1.638  10.000   9.167 -0.4412  1.2677  0.1638
38411SOL     OW21837   9.119   0.078   1.337 -0.0480  0.2396 -0.2262
38411SOL    HW121838   9.115   0.155   1.393 -0.4885 -0.0042  0.0907
38411SOL    HW221839   9.117   0.004   1.398 -0.0045 -0.0226 -0.5391
38412SOL     OW21840   0.318   3.553   0.214  0.3874 -0.7915 -0.0360
38412SOL    HW121841   0.262   3.476   0.220  0.9989 -1.1281  2.9491
38412SOL    HW221842   0.385   3.529   0.150 -1.5993 -1.1482 -2.1348
38413SOL     OW21843   5.216   0.649   2.097 -0.2266 -0.2405  0.6403
38413SOL    HW121844   5.181   0.718   2.040  1.4143  0.9609  1.0394
38413SOL    HW221845   5.199   0.568   2.049  0.1397  0.6517 -1.0689
38414SOL     OW21846   6.925   2.928   8.112 -0.3803 -1.1964 -0.0700
38414SOL    HW121847   6.900   3.010   8.153 -0.5547 -1.4710  0.3760
38414SOL    HW221848   6.995   2.893   8.168  0.0395 -1.1125 -0.5316
38415SOL     OW21849  10.807   9.349   0.110 -0.2320 -0.3247  0.0902
38415SOL    HW121850  10.756   9.361   0.190  0.6382  1.0000  0.4907
38415SOL    HW221851  10.883   9.298   0.138 -0.4383 -0.7462 -0.1168
38416SOL     OW21852   9.615   5.651   0.799 -0.2263 -0.5501  0.3297
38416SOL    HW121853   9.597   5.660   0.893 -1.0459  0.0954  0.1183
38416SOL    HW221854   9.567   5.573   0.773 -0.4303 -0.4244  0.3327
38417SOL     OW21855   2.681  11.019   6.269  0.0094 -0.0756 -0.3665
38417SOL    HW121856   2.739  10.961   6.318  2.1087  1.6492 -0.6502
38417SOL    HW221857   2.627  11.061   6.336 -0.2250 -0.9459  0.0068
38418SOL     OW21858   8.170   3.852  10.078  0.0955 -0.3425  0.4146
38418SOL    HW121859   8.228   3.911  10.030  0.1172 -0.0318  0.8154
38418SOL    HW221860   8.161   3.893  10.165  0.6632 -1.2748  0.9324
38419SOL     OW21861   3.636   5.299   6.025  0.1667  0.5192 -0.0120
38419SOL    HW121862   3.609   5.305   6.116  0.2008 -0.7782  0.0968
38419SOL    HW221863   3.710   5.238   6.025  2.7443  3.3627 -0.3933
38420SOL     OW21864   5.192   8.638   9.886 -0.1418  0.2279  0.8998
38420SOL    HW121865   5.127   8.588   9.936  2.5260 -2.2644  2.1953
38420SOL    HW221866   5.212   8.583   9.811 -1.0553  2.0207 -0.7305
38421SOL     OW21867   1.249   4.181   0.163  0.6424 -0.6776  0.1071
38421SOL    HW121868   1.208   4.141   0.086  0.3130 -1.0518  0.4709
38421SOL    HW221869   1.313   4.116   0.193  1.0527 -0.3633 -0.0862
38422SOL     OW21870   8.601   2.388   0.512 -0.3753  0.1414 -0.0066
38422SOL    HW121871   8.526   2.331   0.529 -0.9359  0.5075 -1.1985
38422SOL    HW221872   8.598   2.406   0.418  0.4481  1.2248  0.1486
38423SOL     OW21873   2.348  10.298   6.805  0.0995  0.2860 -0.8783
38423SOL    HW121874   2.323  10.311   6.897  0.9478 -0.0249 -0.6012
38423SOL    HW221875   2.402  10.219   6.806  2.7970  2.0081 -1.1354
38424SOL     OW21876  10.092   7.493  10.407  0.5963 -0.8821  0.1016
38424SOL    HW121877  10.153   7.447  10.465  0.4007 -1.7398 -0.3523
38424SOL    HW221878  10.046   7.423  10.361 -0.7993 -0.2400  0.4933
38425SOL     OW21879   6.902  10.946   6.722 -0.3517  0.0951 -0.0889
38425SOL    HW121880   6.894  10.954   6.627 -1.2245  1.2403  0.0606
38425SOL    HW221881   6.957  11.021   6.747 -1.6679  0.9011  0.4874
38426SOL     OW21882   7.019   1.337   8.705  0.2371 -0.0294  0.2436
38426SOL    HW121883   7.066   1.313   8.784 -0.1060  1.4782  0.9503
38426SOL    HW221884   7.065   1.414   8.672 -0.0064 -0.2650 -0.6799
38427SOL     OW21885  10.295   5.471   1.580 -0.4544  0.2469 -0.5383
38427SOL    HW121886  10.326   5.484   1.490 -0.5662  0.1493 -0.5904
38427SOL    HW221887  10.360   5.412   1.619 -0.8817 -0.4236 -0.8206
38428SOL     OW21888   0.698   8.854   2.904 -0.3211 -0.3208  0.1043
38428SOL    HW121889   0.667   8.923   2.962 -0.1069 -0.5457  0.4875
38428SOL    HW221890   0.760   8.803   2.957  1.4101  0.6486 -0.8855
38429SOL     OW21891  12.007   2.452  12.426 -0.2401 -0.6614  0.1084
38429SOL    HW121892  11.940   2.385  12.420  0.9337 -1.8211 -0.5725
38429SOL    HW221893  12.034   2.452  12.517 -0.5494 -0.7866  0.2004
38430SOL     OW21894   3.266   9.634   2.250  0.5112 -0.7224 -0.0727
38430SOL    HW121895   3.224   9.649   2.335 -2.7279 -1.6393 -1.3640
38430SOL    HW221896   3.289   9.542   2.251  0.9738 -0.6068  0.0054
38431SOL     OW21897   9.972   0.416   6.856 -0.7629 -0.5098  0.1619
38431SOL    HW121898  10.018   0.358   6.917  0.3283 -0.8329 -0.9315
38431SOL    HW221899   9.914   0.357   6.807 -1.6099 -0.2569  0.8380
38432SOL     OW21900   8.958   1.005   4.810 -0.6813  0.0927  0.3742
38432SOL    HW121901   9.040   1.052   4.826 -0.7021  0.0388  0.6367
38432SOL    HW221902   8.894   1.049   4.867 -0.5620 -0.6685  1.1083
38433SOL     OW21903  11.596  11.113   9.471  0.2613 -0.2073 -0.1148
38433SOL    HW121904  11.501  11.106   9.484 -0.0043  1.0272 -1.1319
38433SOL    HW221905  11.632  11.118   9.559 -0.5306 -1.4814  0.3080
38434SOL     OW21906   8.523   5.234   4.452 -0.2280  0.2884 -0.1183
38434SOL    HW121907   8.526   5.229   4.547 -0.5862  0.6873 -0.0857
38434SOL    HW221908   8.614   5.233   4.425 -0.1082 -1.9515  0.1103
38435SOL     OW21909   1.561   5.726   5.903  0.1046 -0.2496  0.3853
38435SOL    HW121910   1.527   5.730   5.992 -0.0115 -1.2983  0.4056
38435SOL    HW221911   1.499   5.670   5.857 -0.0406  0.5837 -0.4589
38436SOL     OW21912   5.654  10.268   5.001  0.1954 -0.0871 -0.0389
38436SOL    HW121913   5.668  10.273   4.907 -1.2416  1.9669 -0.2239
38436SOL    HW221914   5.741  10.253   5.038  0.7859 -0.8531 -1.6703
38437SOL     OW21915   5.906   6.900   6.943  0.3134 -0.6799  0.4415
38437SOL    HW121916   5.906   6.990   6.911  1.0257 -0.4991  0.9223
38437SOL    HW221917   5.832   6.858   6.898  0.0553  0.1051  0.1221
38438SOL     OW21918   3.609  10.922   7.357  0.1534  0.2525  0.6092
38438SOL    HW121919   3.546  10.966   7.414  0.6824  0.3611  1.1173
38438SOL    HW221920   3.666  10.875   7.417  2.9624  3.1841  0.5056
38439SOL     OW21921  10.050   0.502  10.143 -0.1739  0.6978 -0.5006
38439SOL    HW121922  10.100   0.581  10.122  2.4159 -0.3985  1.0468
38439SOL    HW221923  10.011   0.520  10.229  0.1989  0.4106 -0.2679
38440SOL     OW21924   1.581   8.937   9.803  0.0975  0.0909  0.1274
38440SOL    HW121925   1.569   8.862   9.861  1.6958 -0.1986  0.1379
38440SOL    HW221926   1.638   8.996   9.852  1.2060 -0.0146 -0.9760
38441SOL     OW21927  10.295   7.448   4.474 -0.7945  0.4767 -0.1661
38441SOL    HW121928  10.231   7.475   4.409  0.2539 -2.7190 -2.8637
38441SOL    HW221929  10.360   7.518   4.476 -2.6521  2.2670  0.2287
38442SOL     OW21930   5.223   7.983   3.505  0.2838 -0.0225  0.3076
38442SOL    HW121931   5.144   7.965   3.455 -0.2613  2.6583  0.0610
38442SOL    HW221932   5.295   7.963   3.445 -0.2937  0.6331 -0.6126
38443SOL     OW21933   5.629  11.329  11.403 -0.3934 -0.1164 -0.2824
38443SOL    HW121934   5.584  11.409  11.429  0.6980  0.3814  0.1371
38443SOL    HW221935   5.713  11.358  11.369  0.2319 -1.1133  0.3545
38444SOL     OW21936   9.063   2.154   1.294 -0.7626  0.2728 -0.2626
38444SOL    HW121937   9.127   2.224   1.285  0.9842 -1.2107  0.1199
38444SOL    HW221938   9.021   2.149   1.208  0.3704  0.6050 -0.8549
38445SOL     OW21939   4.891   4.722   9.685 -0.0682 -0.3990 -0.4128
38445SOL    HW121940   4.900   4.719   9.590 -0.7164  0.0398 -0.4980
38445SOL    HW221941   4.907   4.814   9.708 -1.2656 -0.2193 -0.2544
38446SOL     OW21942   6.201   7.069   0.884  0.5689 -0.3336  0.0144
38446SOL    HW121943   6.262   7.107   0.948 -0.0044 -1.0123  1.0042
38446SOL    HW221944   6.244   6.989   0.855  1.5598  0.7567 -1.7116
38447SOL     OW21945   7.510   7.652   7.292 -0.3914 -0.1197  0.2478
38447SOL    HW121946   7.600   7.619   7.300 -0.2548 -0.0506 -0.9249
38447SOL    HW221947   7.484   7.671   7.383  0.7510 -0.1966  0.6092
38448SOL     OW21948   2.392  12.593  11.058  0.0254 -0.0641  0.7001
38448SOL    HW121949   2.405  12.671  11.112 -2.1766  0.9824 -0.1595
38448SOL    HW221950   2.305  12.604  11.020  1.2109 -0.9794 -2.6522
38449SOL     OW21951   1.239   3.397   4.270  0.1002 -0.2906  0.2215
38449SOL    HW121952   1.215   3.473   4.217  0.1919  0.1622  0.8157
38449SOL    HW221953   1.155   3.364   4.303  0.0719 -0.3369  0.0996
38450SOL     OW21954   7.601  11.683   6.446  0.1475  0.2798 -0.8362
38450SOL    HW121955   7.600  11.748   6.517 -1.5307 -2.0024  1.4221
38450SOL    HW221956   7.607  11.735   6.366  0.5652  3.0931  0.8750
38451SOL     OW21957   7.324   5.117   3.276  0.5777  0.3160 -0.2709
38451SOL    HW121958   7.346   5.209   3.264  0.7262  0.5347  1.4475
38451SOL    HW221959   7.408   5.071   3.275  0.6467  0.4156  0.4950
38452SOL     OW21960   8.215   4.061  11.530  0.0788  0.0940 -0.8549
38452SOL    HW121961   8.300   4.068  11.575  0.1345  1.4476 -1.1350
38452SOL    HW221962   8.227   3.989  11.468  0.0263 -1.7662  1.1874
38453SOL     OW21963  12.637   1.385   4.241 -0.2170  0.2329  0.0752
38453SOL    HW121964  12.616   1.324   4.170  0.0967  2.2248 -1.8396
38453SOL    HW221965  12.732   1.381   4.250 -0.1699  0.6135 -0.2337
38454SOL     OW21966   3.397  11.902   7.857 -0.0518 -0.2853  0.3054
38454SOL    HW121967   3.329  11.941   7.913 -1.2595  1.1469 -2.0012
38454SOL    HW221968   3.450  11.977   7.829  0.3018 -0.9040 -0.7228
38455SOL     OW21969   5.914   6.402  11.169  0.0707  0.1590  0.2313
38455SOL    HW121970   5.866   6.464  11.115 -1.2254 -1.7987 -0.9827
38455SOL    HW221971   5.990   6.377  11.116 -1.8448 -2.7135 -1.4754
38456SOL     OW21972   4.141  11.270   4.210 -0.4323 -0.6971 -0.0470
38456SOL    HW121973   4.183  11.205   4.265 -0.1651  1.2589  2.2240
38456SOL    HW221974   4.095  11.220   4.143  1.4460 -3.0877  0.3304
38457SOL     OW21975   4.339   0.814   2.335 -0.0765  0.0652 -0.1363
38457SOL    HW121976   4.254   0.786   2.302 -0.2408 -1.4617  1.4201
38457SOL    HW221977   4.401   0.782   2.270 -0.6448  1.0260 -1.1879
38458SOL     OW21978   5.257   6.929   2.657 -0.3013  0.0817 -0.2626
38458SOL    HW121979   5.330   6.961   2.710 -1.7568 -1.3381  2.8876
38458SOL    HW221980   5.297   6.867   2.596  1.3927  1.3325 -0.5089
38459SOL     OW21981  11.868  10.276   3.614  0.1753  0.1410 -0.0604
38459SOL    HW121982  11.957  10.293   3.643 -0.1283  1.9288 -0.0696
38459SOL    HW221983  11.874  10.195   3.563  1.4501 -0.7637  1.4350
38460SOL     OW21984   5.361  12.599   1.704  0.2603 -0.5571 -0.1112
38460SOL    HW121985   5.278  12.563   1.672 -0.1249 -1.2520  1.5416
38460SOL    HW221986   5.376  12.554   1.787  0.9879  1.4244  0.8871
38461SOL     OW21987  11.103   6.882   6.890  0.3186  0.1771 -0.5749
38461SOL    HW121988  11.157   6.941   6.837  0.3363 -0.4927 -1.3020
38461SOL    HW221989  11.085   6.807   6.834 -0.2457 -0.2299  0.1254
38462SOL     OW21990   2.008   1.779   6.824  0.0931 -0.4827  0.0965
38462SOL    HW121991   2.050   1.862   6.846 -0.7435  0.6328 -2.1524
38462SOL    HW221992   2.074   1.713   6.843  1.1704  0.7846  0.9604
38463SOL     OW21993   2.870   5.491  10.598 -0.0230  0.1362  0.5699
38463SOL    HW121994   2.960   5.461  10.607  1.3771  3.7919  0.3534
38463SOL    HW221995   2.866   5.530  10.512 -2.1352 -0.6232  0.2468
38464SOL     OW21996  12.382   1.461   1.668 -0.1982  0.2901 -0.1135
38464SOL    HW121997  12.293   1.426   1.679 -0.3654  0.5638 -0.6023
38464SOL    HW221998  12.418   1.462   1.757 -0.3051 -0.8221 -0.0459
38465SOL     OW21999   7.148   3.556   0.900 -0.2194  0.2590 -0.1412
38465SOL    HW122000   7.157   3.589   0.810  0.8832  3.2196  0.9208
38465SOL    HW222001   7.057   3.527   0.905 -0.3611  0.1827 -2.1510
38466SOL     OW22002   4.219   1.911   5.756 -0.5470 -0.3361  0.2232
38466SOL    HW122003   4.185   1.846   5.694 -1.2097  0.2710 -0.0578
38466SOL    HW222004   4.156   1.983   5.752  0.4092  0.5207  0.2012
38467SOL     OW22005   8.683   0.298   8.348  0.4306  0.2266 -0.0713
38467SOL    HW122006   8.657   0.324   8.259  1.0242 -1.9183 -0.9609
38467SOL    HW222007   8.634   0.217   8.363  1.8497 -0.5246  0.7140
38468SOL     OW22008   0.880   5.587   1.399 -0.4507  0.0807 -0.3157
38468SOL    HW122009   0.846   5.655   1.457 -0.5706 -1.6471  1.7587
38468SOL    HW222010   0.803   5.542   1.366 -0.3349 -0.1231 -0.3119
38469SOL     OW22011   9.750   6.417   1.649  0.4994 -0.4825  0.0062
38469SOL    HW122012   9.692   6.348   1.616  1.6509 -1.1221 -0.7178
38469SOL    HW222013   9.802   6.443   1.573  0.6162  0.6581  0.4563
38470SOL     OW22014   7.716   8.911   2.360  0.6655 -0.2165  0.6653
38470SOL    HW122015   7.775   8.950   2.296  1.9267  0.1038  1.9693
38470SOL    HW222016   7.709   8.819   2.334  1.3710 -0.1525  0.2181
38471SOL     OW22017   6.277   8.939  10.867  0.0568  0.7709 -0.1428
38471SOL    HW122018   6.294   8.852  10.902 -1.4092  0.0386 -1.1509
38471SOL    HW222019   6.226   8.924  10.788 -2.1930  2.6016  0.8265
38472SOL     OW22020   4.917  12.351   2.074 -0.4179 -0.3943  0.2859
38472SOL    HW122021   4.904  12.304   1.992 -2.0714 -1.5366  1.1371
38472SOL    HW222022   4.831  12.390   2.093  0.0409  0.1717  1.2683
38473SOL     OW22023   1.107   0.184  11.580 -0.0683 -0.1212  0.6256
38473SOL    HW122024   1.058   0.120  11.633  0.7654 -1.3667 -0.0393
38473SOL    HW222025   1.042   0.221  11.521 -0.3779 -1.2115  0.2540
38474SOL     OW22026   4.255   7.869   4.114  0.1042 -0.3343  0.7041
38474SOL    HW122027   4.330   7.925   4.094  0.8553 -1.2860  0.8152
38474SOL    HW222028   4.179   7.925   4.099  0.8373  0.6953  0.7548
38475SOL     OW22029   4.758   7.085   3.732  0.0829 -0.1664 -0.2552
38475SOL    HW122030   4.781   7.054   3.644  1.3635  0.9644 -0.3450
38475SOL    HW222031   4.702   7.162   3.717 -0.1588 -0.3016 -0.0628
38476SOL     OW22032   7.584   0.801  10.717 -0.1835 -0.3201  0.0838
38476SOL    HW122033   7.500   0.773  10.755 -0.6439  0.7900 -0.0830
38476SOL    HW222034   7.650   0.761  10.774 -0.7920 -1.6509 -0.0905
38477SOL     OW22035  11.743   9.254   6.754 -0.2437  0.3084  0.3099
38477SOL    HW122036  11.698   9.286   6.832  1.3878  1.0030  1.0122
38477SOL    HW222037  11.813   9.198   6.788  1.7620  2.1917 -0.5053
38478SOL     OW22038   1.415  12.712  11.150  0.3609  0.0802 -0.4151
38478SOL    HW122039   1.361  12.650  11.199  0.4677 -0.6308 -1.1783
38478SOL    HW222040   1.353  12.760  11.095  0.5202 -1.1265 -1.7142
38479SOL     OW22041   5.907   5.229   9.717 -0.1425  0.3880  0.4942
38479SOL    HW122042   5.830   5.217   9.661  0.3110 -1.2522  0.1576
38479SOL    HW222043   5.923   5.142   9.753  1.6417  0.6699  0.4494
38480SOL     OW22044   6.715   1.072  10.779  0.4188  0.1839 -0.5662
38480SOL    HW122045   6.632   1.073  10.827  0.0434  1.9428 -1.1716
38480SOL    HW222046   6.692   1.045  10.690  0.7869 -0.9689 -0.3340
38481SOL     OW22047   2.496   6.181   3.867 -0.1261 -0.3650 -0.5423
38481SOL    HW122048   2.525   6.222   3.949  0.0181  1.6521 -1.5309
38481SOL    HW222049   2.424   6.124   3.893 -0.1104  0.2658  1.0017
38482SOL     OW22050   0.947   3.633   7.450  0.9451  0.0621 -0.2253
38482SOL    HW122051   0.915   3.573   7.518 -1.7296  0.2361 -1.2168
38482SOL    HW222052   0.918   3.595   7.368 -0.4623  2.4072 -0.9178
38483SOL     OW22053  10.936  11.100   3.019 -0.0642  0.5288  0.3409
38483SOL    HW122054  10.988  11.093   3.099 -0.0926  2.1400  0.5349
38483SOL    HW222055  11.000  11.122   2.951 -0.1255 -0.2234  0.0363
38484SOL     OW22056   2.344   6.748   3.926  0.1701 -0.1853  0.0939
38484SOL    HW122057   2.431   6.714   3.903  0.2316 -0.5743  0.8574
38484SOL    HW222058   2.357   6.791   4.011 -0.5864 -1.1852  0.7360
38485SOL     OW22059   0.657  10.405   1.766 -0.3695  0.3370 -0.0826
38485SOL    HW122060   0.578  10.362   1.734  0.9018 -1.2685 -1.2876
38485SOL    HW222061   0.678  10.471   1.700 -0.3267  0.2605 -0.1464
38486SOL     OW22062  12.122   2.054   5.686 -0.2769 -0.5423 -0.2331
38486SOL    HW122063  12.097   1.980   5.630  1.3593 -1.0052 -0.3882
38486SOL    HW222064  12.135   2.015   5.773  0.9108 -0.5205 -0.3853
38487SOL     OW22065   6.929   2.645   6.080  1.0857 -0.3672  0.0437
38487SOL    HW122066   6.976   2.645   5.996 -1.3569 -1.0155 -1.4437
38487SOL    HW222067   6.842   2.609   6.058  0.1012  0.1762  2.7228
38488SOL     OW22068   5.735  10.637   0.794 -0.0360 -0.4439 -0.2289
38488SOL    HW122069   5.765  10.638   0.703  1.5465 -0.0081  0.2735
38488SOL    HW222070   5.809  10.602   0.843 -0.2811  0.8065  1.0770
38489SOL     OW22071   3.870   3.212   6.936 -0.5833 -0.4351 -0.9114
38489SOL    HW122072   3.941   3.172   6.985 -0.2584  0.8913 -0.2765
38489SOL    HW222073   3.827   3.271   6.998 -0.9081  0.3799 -1.8767
38490SOL     OW22074   0.092   1.084  10.911 -0.1481 -0.5243 -0.2835
38490SOL    HW122075   0.172   1.091  10.859 -0.0486  0.2886 -0.0276
38490SOL    HW222076   0.114   1.123  10.995 -0.8871 -0.0657 -0.2954
38491SOL     OW22077  12.374   9.775   7.545 -0.6556  1.0207 -0.6566
38491SOL    HW122078  12.356   9.839   7.613 -0.9651  0.3591 -0.1026
38491SOL    HW222079  12.374   9.825   7.463  3.5130  2.5849  0.0465
38492SOL     OW22080  11.764   8.794   2.865  0.2822 -0.5230  0.3599
38492SOL    HW122081  11.756   8.882   2.829  1.0791 -0.2903  0.7056
38492SOL    HW222082  11.858   8.784   2.883  0.1050 -1.1674  1.0047
38493SOL     OW22083  10.555  10.327   2.871  0.5967 -0.3152  0.3719
38493SOL    HW122084  10.523  10.389   2.936  0.2406 -2.0022  1.9152
38493SOL    HW222085  10.619  10.274   2.919 -1.0233 -2.8202 -0.0341
38494SOL     OW22086   7.084   8.716   3.393  0.2411 -0.2928  0.1691
38494SOL    HW122087   7.037   8.795   3.365 -0.2488 -0.8367 -0.5567
38494SOL    HW222088   7.084   8.722   3.489  0.2602  0.6175  0.1242
38495SOL     OW22089   6.466   6.650   9.381  0.5570  0.4810 -0.1097
38495SOL    HW122090   6.446   6.661   9.288  1.1484 -0.0935 -0.3102
38495SOL    HW222091   6.476   6.740   9.413 -0.5498  0.7218 -0.3853
38496SOL     OW22092  11.158   6.975   0.372 -0.1443 -0.0748 -0.3752
38496SOL    HW122093  11.123   7.063   0.367  2.0483  0.8179 -1.9991
38496SOL    HW222094  11.213   6.975   0.450  1.6817  0.8293 -1.5821
38497SOL     OW22095   4.794   8.982   7.324 -0.4056  0.0552  0.5907
38497SOL    HW122096   4.809   9.067   7.282 -1.1058  0.1914  0.6114
38497SOL    HW222097   4.815   8.997   7.416 -0.2545  0.1270  0.5456
38498SOL     OW22098   8.446  10.200   1.948 -0.0617 -0.3138  0.4084
38498SOL    HW122099   8.440  10.266   1.878 -0.5536 -1.5551 -0.7613
38498SOL    HW222100   8.539  10.199   1.971 -0.0093  0.6208  0.2882
38499SOL     OW22101  10.477  11.471   8.013  0.2159 -0.5972 -0.1303
38499SOL    HW122102  10.420  11.432   7.947 -1.0668  0.0536  0.5579
38499SOL    HW222103  10.500  11.557   7.977 -0.1449 -0.4115  0.0789
38500SOL     OW22104   9.522  10.780   2.426 -0.5459 -0.2776 -0.2396
38500SOL    HW122105   9.432  10.796   2.399 -1.1250 -0.3828  1.5074
38500SOL    HW222106   9.515  10.733   2.509  1.0928  0.4917  0.4029
38501SOL     OW22107   6.865   1.520   6.353 -0.1615 -0.3538 -0.2339
38501SOL    HW122108   6.845   1.613   6.357 -0.4059 -0.4216  0.1065
38501SOL    HW222109   6.884   1.504   6.260  5.7274  1.2358  0.3077
38502SOL     OW22110   9.342   3.175  11.798  0.5153 -0.0448 -0.0534
38502SOL    HW122111   9.341   3.207  11.708  0.1844 -2.5206 -1.0278
38502SOL    HW222112   9.249   3.162  11.820  0.6574 -1.0657 -0.0166
38503SOL     OW22113   9.659   7.190   4.059 -0.5463  0.7656 -0.0478
38503SOL    HW122114   9.627   7.224   4.142 -2.1232 -1.1710  0.2126
38503SOL    HW222115   9.737   7.242   4.039  0.0232  1.1163  2.7548
38504SOL     OW22116  10.202   3.281   9.557 -0.4742 -0.0054 -0.0458
38504SOL    HW122117  10.117   3.260   9.518 -0.5556  1.4135 -0.6803
38504SOL    HW222118  10.182   3.341   9.629 -0.0775 -0.4052  0.4050
38505SOL     OW22119   8.150   2.482   0.075 -0.0052 -0.4705 -0.2377
38505SOL    HW122120   8.172   2.541   0.146  1.3915  0.0076 -1.0425
38505SOL    HW222121   8.233   2.442   0.049 -0.0141  1.1200 -3.1348
38506SOL     OW22122   0.392  10.218  12.150 -0.8119  0.0034 -0.3941
38506SOL    HW122123   0.389  10.313  12.136  1.0410  0.1108 -0.3119
38506SOL    HW222124   0.380  10.207  12.244 -4.6156 -0.1484 -0.7533
38507SOL     OW22125   0.425   5.166  10.366  0.1918  0.0269  0.3355
38507SOL    HW122126   0.368   5.218  10.308 -0.9499 -1.9354 -0.4005
38507SOL    HW222127   0.365   5.133  10.433  0.9093 -0.2803  0.8273
38508SOL     OW22128  10.091   6.856   9.900 -0.0065 -0.4866  0.1405
38508SOL    HW122129  10.050   6.775   9.869 -1.3939  0.0721  0.4396
38508SOL    HW222130  10.103   6.844   9.994 -3.5572  0.9266  0.9238
38509SOL     OW22131  12.020   1.242  11.596 -0.1419 -0.2425 -0.6959
38509SOL    HW122132  11.963   1.314  11.571  1.5014  0.7809 -1.7186
38509SOL    HW222133  12.025   1.187  11.518 -2.4224 -2.2929  0.4679
38510SOL     OW22134   9.872   9.967  12.076 -0.2407  1.3133  0.3889
38510SOL    HW122135   9.851   9.888  12.127  0.1090  1.2014  0.3610
38510SOL    HW222136   9.787   9.999  12.046 -0.2954  0.1455 -0.7949
38511SOL     OW22137   9.588   2.695   5.737 -0.3935 -0.3275  0.4589
38511SOL    HW122138   9.532   2.746   5.796 -1.6636 -0.5643 -0.4896
38511SOL    HW222139   9.535   2.619   5.712  0.4688 -0.7307 -0.2299
38512SOL     OW22140   0.849   0.141   5.906 -0.2883  0.7337 -0.9222
38512SOL    HW122141   0.767   0.098   5.883  0.0042 -0.8291  0.6944
38512SOL    HW222142   0.915   0.097   5.852 -0.0609 -0.5615  0.3589
38513SOL     OW22143   5.680  12.477   8.611 -0.3785 -0.1996 -0.1139
38513SOL    HW122144   5.597  12.447   8.575 -0.5237 -1.1038  0.9275
38513SOL    HW222145   5.697  12.560   8.567 -2.4068  0.5987  0.5184
38514SOL     OW22146   4.418   5.319   2.361 -0.2783  0.7903 -0.1709
38514SOL    HW122147   4.415   5.242   2.417  1.4125  1.3692  0.8344
38514SOL    HW222148   4.331   5.327   2.324 -0.8130 -0.9013  0.6544
38515SOL     OW22149   8.111  10.702   0.296 -0.5487  0.0259  0.0882
38515SOL    HW122150   8.195  10.658   0.310  0.2040  1.5618  0.6845
38515SOL    HW222151   8.079  10.666   0.213  0.8522 -0.3690 -0.3151
38516SOL     OW22152   8.632  10.911  10.434  0.1275 -0.2176  0.3533
38516SOL    HW122153   8.623  10.989  10.379  2.1070 -0.3853 -0.2921
38516SOL    HW222154   8.705  10.863  10.395  3.6944  1.0145  4.6237
38517SOL     OW22155  10.190   8.668   7.077  0.3337  0.2688 -0.5791
38517SOL    HW122156  10.150   8.736   7.131  1.5917  0.3310  0.3532
38517SOL    HW222157  10.136   8.591   7.090  2.0047 -0.5062  3.0458
38518SOL     OW22158  10.958   8.223  11.342 -0.6286  0.1003 -0.5979
38518SOL    HW122159  10.937   8.139  11.383 -2.4133  1.5096  1.6404
38518SOL    HW222160  10.874   8.267  11.334  0.4121  2.3565 -0.0096
38519SOL     OW22161  12.462   6.585   4.337  0.1567 -0.0667 -0.2022
38519SOL    HW122162  12.502   6.660   4.381 -0.2627  0.0690 -0.0494
38519SOL    HW222163  12.531   6.518   4.335  0.3103  0.0745  0.2891
38520SOL     OW22164   9.702   3.637   0.631 -0.2426  0.0587  0.4824
38520SOL    HW122165   9.650   3.624   0.552  0.7988 -0.3883 -0.1592
38520SOL    HW222166   9.639   3.666   0.697 -1.2766 -0.4179 -0.2655
38521SOL     OW22167   0.307   6.648   5.992 -0.5041  0.0977 -0.4137
38521SOL    HW122168   0.370   6.689   5.934 -1.0968 -0.2065 -1.2863
38521SOL    HW222169   0.281   6.567   5.948 -2.4179  0.7990 -0.6965
38522SOL     OW22170   0.312   7.324   2.732  0.1543  0.3591  0.0520
38522SOL    HW122171   0.340   7.248   2.784 -0.7469 -0.2289 -0.2953
38522SOL    HW222172   0.392   7.374   2.718  1.1574 -1.5074 -1.3163
38523SOL     OW22173   5.088   9.174  12.594  0.2963  0.4092  0.8813
38523SOL    HW122174   5.162   9.218  12.551 -0.7769  1.2203 -0.2185
38523SOL    HW222175   5.072   9.225  12.673  1.2419 -0.1045  1.4237
38524SOL     OW22176   6.214   7.147   3.773  0.0329 -0.4178  0.0232
38524SOL    HW122177   6.160   7.110   3.843  1.3132  0.5749  1.6274
38524SOL    HW222178   6.201   7.088   3.699 -0.8782 -1.9050  1.3004
38525SOL     OW22179   0.679   0.934   7.663  0.4453 -0.1819 -0.2226
38525SOL    HW122180   0.613   0.867   7.681  2.0238 -1.5002  1.0027
38525SOL    HW222181   0.737   0.894   7.598  0.0739  0.9522 -1.2814
38526SOL     OW22182   6.299   8.400   2.994  0.0896  0.5804 -0.0123
38526SOL    HW122183   6.217   8.354   2.979  0.7166 -0.3879 -0.5948
38526SOL    HW222184   6.344   8.349   3.062  1.7309 -1.0170 -2.1494
38527SOL     OW22185   6.202  11.420   8.635  0.6800 -0.4046 -0.4475
38527SOL    HW122186   6.198  11.450   8.726 -0.3445  0.7270 -0.8437
38527SOL    HW222187   6.290  11.384   8.625  1.0240  0.0545  0.8088
38528SOL     OW22188   4.464   3.439   0.925  0.0114  0.2596 -0.1499
38528SOL    HW122189   4.483   3.529   0.901 -0.3356 -0.0749 -1.7600
38528SOL    HW222190   4.394   3.412   0.866  1.3472 -1.6320 -0.9635
38529SOL     OW22191  12.683   9.422   0.913 -0.4282 -0.5008 -0.0886
38529SOL    HW122192  12.715   9.418   0.823  0.9326 -0.5583  0.3617
38529SOL    HW222193  12.614   9.488   0.912  0.1001  0.0579 -1.0233
38530SOL     OW22194   8.760   3.380   6.244  0.2881 -0.3191 -0.0974
38530SOL    HW122195   8.720   3.465   6.224  2.7877  0.7025 -1.2378
38530SOL    HW222196   8.757   3.332   6.161  1.4474 -0.1692 -0.2449
38531SOL     OW22197   0.339   9.637  12.782 -0.2165 -0.0035 -0.3207
38531SOL    HW122198   0.294   9.553  12.777 -2.2318  1.0134 -0.0270
38531SOL    HW222199   0.271   9.702  12.763  1.2442  1.5835 -0.3422
38532SOL     OW22200   0.827   9.538   9.287 -0.1153 -0.1237 -0.1166
38532SOL    HW122201   0.892   9.581   9.342  1.1362  0.3843 -1.9187
38532SOL    HW222202   0.844   9.444   9.298 -0.4881 -0.0662  1.0416
38533SOL     OW22203   8.142   8.312  12.442  0.5895 -0.3371 -0.1847
38533SOL    HW122204   8.118   8.323  12.533 -1.6221 -0.1365 -0.7321
38533SOL    HW222205   8.205   8.381  12.425 -0.5319  0.9642  0.6905
38534SOL     OW22206   0.937   1.666   6.441 -0.1024 -0.3476  0.2617
38534SOL    HW122207   0.894   1.673   6.526 -1.5097  1.6969 -0.5195
38534SOL    HW222208   0.930   1.574   6.417 -0.4955 -0.7818  1.9462
38535SOL     OW22209   6.447   6.917   6.405  0.5656 -0.5420 -0.1000
38535SOL    HW122210   6.436   6.825   6.381 -2.6152  0.1864 -1.9745
38535SOL    HW222211   6.495   6.954   6.332 -1.6197 -0.0256 -1.3596
38536SOL     OW22212   3.404   7.605  11.079 -0.0084 -0.1969 -0.1030
38536SOL    HW122213   3.466   7.640  11.143 -0.3520  2.4023 -1.0704
38536SOL    HW222214   3.323   7.653  11.095 -0.3827 -0.1886 -1.8184
38537SOL     OW22215   7.551  11.763   3.959 -0.3776  0.2106 -0.2128
38537SOL    HW122216   7.461  11.730   3.961 -0.5668  0.6644 -1.0224
38537SOL    HW222217   7.543  11.857   3.948  0.1877  0.4317  1.0339
38538SOL     OW22218   7.482  10.798   0.331  0.4146  0.2598 -0.2956
38538SOL    HW122219   7.571  10.776   0.358  0.1903 -0.0175  0.2261
38538SOL    HW222220   7.483  10.893   0.317  0.1769  0.6714  2.1132
38539SOL     OW22221   5.794   5.212   5.808  0.5709 -0.2064 -0.4171
38539SOL    HW122222   5.886   5.229   5.790  1.0340 -1.3348  0.7447
38539SOL    HW222223   5.770   5.141   5.748  0.3166  0.3941 -1.0379
38540SOL     OW22224   4.620  12.599   0.642 -0.1996  0.1923  0.3603
38540SOL    HW122225   4.563  12.661   0.688 -0.2116  0.4046  0.0588
38540SOL    HW222226   4.706  12.640   0.645 -0.5200  1.1087 -1.4068
38541SOL     OW22227   9.662   1.315  11.308  0.3003  0.0804 -0.2802
38541SOL    HW122228   9.653   1.398  11.260 -0.8832  1.6027  2.3298
38541SOL    HW222229   9.598   1.257  11.268 -0.5565  1.2483 -0.6738
38542SOL     OW22230   3.877  11.647   3.666  0.2026  0.2168  0.1824
38542SOL    HW122231   3.919  11.691   3.592  0.5892 -1.3698 -0.5933
38542SOL    HW222232   3.935  11.665   3.740  1.1108 -0.1073 -0.4201
38543SOL     OW22233  12.382   1.580   3.485 -0.6164  0.6758  0.1555
38543SOL    HW122234  12.439   1.507   3.510 -0.3814  0.7201 -0.2404
38543SOL    HW222235  12.439   1.639   3.436 -0.5560  1.6423  1.3710
38544SOL     OW22236  12.165   5.175   5.752 -0.0660 -0.2566 -0.4853
38544SOL    HW122237  12.153   5.236   5.680 -1.3200  0.7629  0.5344
38544SOL    HW222238  12.181   5.231   5.829  0.5057 -1.2789  0.1676
38545SOL     OW22239   1.247  10.722   3.390  0.3206  0.0363 -0.3608
38545SOL    HW122240   1.234  10.767   3.307  0.8158  0.7569 -0.0512
38545SOL    HW222241   1.336  10.687   3.384  1.2636  2.1096  0.7917
38546SOL     OW22242  10.607   0.119  10.992 -0.3037  0.2537  0.3416
38546SOL    HW122243  10.692   0.101  10.953  0.0106 -0.5955  1.3889
38546SOL    HW222244  10.627   0.145  11.082 -1.1422  0.2263  0.5418
38547SOL     OW22245   7.307   0.874   2.946 -0.2261 -0.4099  0.5857
38547SOL    HW122246   7.239   0.916   2.893  0.6798 -0.1192 -0.3712
38547SOL    HW222247   7.385   0.927   2.931  0.4323 -1.2470  0.9875
38548SOL     OW22248  12.305  11.139   2.507 -0.2520 -0.2921  0.4304
38548SOL    HW122249  12.356  11.058   2.509 -0.9175 -0.7890 -0.8489
38548SOL    HW222250  12.333  11.188   2.584  0.4236 -1.5861  1.0351
38549SOL     OW22251   3.727   9.987   6.688 -0.5792 -0.4764  0.0806
38549SOL    HW122252   3.673  10.063   6.667  2.5753  1.7753 -0.4693
38549SOL    HW222253   3.743   9.993   6.782 -1.2757 -1.1867  0.2586
38550SOL     OW22254   0.028  11.089  10.071  0.9239  0.5044 -0.4240
38550SOL    HW122255   0.089  11.060  10.138  0.0710  1.1718  0.6704
38550SOL    HW222256   0.016  11.012  10.015  1.3273 -0.1974  0.4326
38551SOL     OW22257  11.437   7.166  10.501  0.0881  0.5318  0.5996
38551SOL    HW122258  11.432   7.145  10.595  0.2173 -2.1812  0.0701
38551SOL    HW222259  11.357   7.130  10.464 -0.6675  2.8634 -0.1866
38552SOL     OW22260   8.096   1.584   3.326 -0.3650  0.3121 -0.0032
38552SOL    HW122261   8.110   1.609   3.235 -0.1931  0.6528  0.1157
38552SOL    HW222262   8.184   1.570   3.361 -0.4456 -0.1982  0.0090
38553SOL     OW22263   6.910  11.224   9.008  0.6200  0.2477  0.7432
38553SOL    HW122264   6.927  11.171   9.087 -1.1900 -1.6732 -0.0603
38553SOL    HW222265   6.853  11.170   8.955  1.5072  1.6368 -1.7986
38554SOL     OW22266   2.938   8.583   6.184 -0.3271  0.4828  0.0085
38554SOL    HW122267   2.863   8.543   6.228 -0.9306 -0.9034 -2.1083
38554SOL    HW222268   2.907   8.670   6.158 -0.5747  0.6163  0.7427
38555SOL     OW22269   5.247   1.145   6.504  0.1001 -0.1403 -0.5808
38555SOL    HW122270   5.309   1.112   6.439  1.4204 -1.0840  1.0729
38555SOL    HW222271   5.297   1.209   6.555 -0.8457  0.4395 -0.3559
38556SOL     OW22272   9.206   7.815  10.646  0.4278  0.1399 -0.0879
38556SOL    HW122273   9.221   7.841  10.737 -2.9589  1.5091  0.2389
38556SOL    HW222274   9.222   7.895  10.596 -1.0255  0.3919 -0.2050
38557SOL     OW22275  12.279   2.730   9.341  0.5132  0.3600 -0.5319
38557SOL    HW122276  12.210   2.781   9.385 -0.1949 -1.4501  0.5832
38557SOL    HW222277  12.347   2.795   9.320 -0.9499  1.9857 -0.5078
38558SOL     OW22278   8.331   0.772   4.768  0.1945  0.3830  0.0142
38558SOL    HW122279   8.394   0.780   4.840 -0.1640 -1.8793  0.6475
38558SOL    HW222280   8.380   0.729   4.698 -0.4841 -1.0555  0.3811
38559SOL     OW22281  10.042   4.730   9.344  0.6535  0.6585 -0.3482
38559SOL    HW122282  10.118   4.755   9.396  0.5500 -2.4953  1.5288
38559SOL    HW222283  10.078   4.714   9.256  1.5119  2.2853 -0.3433
38560SOL     OW22284   6.945   9.051   5.103 -0.2655  0.7371 -0.3331
38560SOL    HW122285   6.898   9.063   5.186  0.0273  2.7477 -0.4170
38560SOL    HW222286   6.967   8.958   5.102 -1.3218  0.4247  1.2783
38561SOL     OW22287   7.434   8.339   4.766 -0.1330  0.1213  0.7381
38561SOL    HW122288   7.481   8.323   4.684 -0.1335  0.1463  0.7326
38561SOL    HW222289   7.398   8.254   4.790  0.9239 -0.1710  1.3674
38562SOL     OW22290   1.774   8.805   0.844  0.6465 -0.0705  0.1707
38562SOL    HW122291   1.838   8.873   0.824 -0.2853  0.7510 -0.0730
38562SOL    HW222292   1.799   8.775   0.932  0.8442  0.8536  0.4452
38563SOL     OW22293   7.538   7.670   3.140 -0.4788 -0.2902 -0.0167
38563SOL    HW122294   7.626   7.708   3.147 -1.3013  1.6909  0.5553
38563SOL    HW222295   7.546   7.584   3.180  0.8542  0.5212  1.6338
38564SOL     OW22296   2.578   0.160   7.095  0.3849  0.0210 -0.6374
38564SOL    HW122297   2.604   0.250   7.075 -1.2709  0.6617 -0.1238
38564SOL    HW222298   2.483   0.160   7.084  0.5364 -2.2386 -2.7000
38565SOL     OW22299   6.639   9.265   4.807  0.0550 -0.7522 -0.1669
38565SOL    HW122300   6.730   9.238   4.822  0.7730  0.7389 -1.5434
38565SOL    HW222301   6.620   9.325   4.879  0.7263  0.1692 -0.7393
38566SOL     OW22302   9.860   5.633   7.898  0.2069  0.5258  0.5657
38566SOL    HW122303   9.827   5.557   7.946 -0.9566  0.6481 -0.0020
38566SOL    HW222304   9.952   5.615   7.883 -0.5300 -1.9348 -1.7000
38567SOL     OW22305  12.653   1.849   5.036  0.2496 -0.1165  0.8806
38567SOL    HW122306  12.628   1.821   4.948  2.1121 -0.2384  0.3535
38567SOL    HW222307  12.570   1.851   5.084 -0.9214  0.6817 -1.0478
38568SOL     OW22308   5.889   2.587   2.134  0.3496  0.3713  0.3554
38568SOL    HW122309   5.851   2.641   2.203 -1.0227  0.3514 -0.3568
38568SOL    HW222310   5.965   2.545   2.176  0.5613  1.6717  1.3391
38569SOL     OW22311  12.063   0.178   6.425  0.0041 -0.1128  0.3577
38569SOL    HW122312  12.098   0.219   6.504  0.6106 -1.5594  0.8578
38569SOL    HW222313  12.138   0.173   6.365  0.4161 -2.1500  0.9957
38570SOL     OW22314   9.021  10.868   6.456 -0.2033 -0.4631 -0.5541
38570SOL    HW122315   9.051  10.937   6.516  0.2494 -0.2264 -1.0501
38570SOL    HW222316   9.100  10.836   6.414 -0.3296 -1.7850  0.1735
38571SOL     OW22317   3.719   6.738   9.857 -0.2458  0.5774 -0.1425
38571SOL    HW122318   3.692   6.726   9.948 -1.6758  0.4101 -0.5561
38571SOL    HW222319   3.745   6.650   9.828 -0.1125  0.5654  0.0156
38572SOL     OW22320  12.381  10.579   2.975  0.6327  0.1476  0.2166
38572SOL    HW122321  12.448  10.566   2.909 -0.7904 -1.1741 -1.0519
38572SOL    HW222322  12.355  10.671   2.967  2.1597  0.6435  0.6545
38573SOL     OW22323   5.064   4.626  12.437  0.2146 -0.1275  0.6728
38573SOL    HW122324   5.018   4.650  12.356  2.0775  1.2453 -0.0499
38573SOL    HW222325   5.133   4.567  12.410  3.0886  2.9801  0.5495
38574SOL     OW22326   5.416   8.234   6.882 -0.1526 -0.1252  0.1602
38574SOL    HW122327   5.429   8.294   6.809 -1.5541 -0.1512 -0.1288
38574SOL    HW222328   5.475   8.161   6.863  1.2333  0.9120  0.2845
38575SOL     OW22329   2.881  12.135  11.153 -0.0560 -0.1376  0.7489
38575SOL    HW122330   2.910  12.059  11.203  1.5884 -1.1866 -1.6042
38575SOL    HW222331   2.947  12.202  11.169  0.9675 -0.7799 -0.6366
38576SOL     OW22332   0.843   7.111   1.817  0.2865 -0.2419  0.5242
38576SOL    HW122333   0.773   7.051   1.844 -0.1532  0.9702  2.2544
38576SOL    HW222334   0.804   7.167   1.751 -0.3507  0.3147  1.3549
38577SOL     OW22335   1.506   8.295  12.288  0.2854 -0.1194  0.3429
38577SOL    HW122336   1.423   8.339  12.270 -0.5503 -1.4623  0.8193
38577SOL    HW222337   1.511   8.288  12.383  0.2275 -1.3585  0.2708
38578SOL     OW22338  11.193   9.862   5.934  0.2646  0.1669  0.3395
38578SOL    HW122339  11.147   9.940   5.964 -0.9216 -0.6459  0.6774
38578SOL    HW222340  11.284   9.875   5.963 -0.1420  0.9433  1.3181
38579SOL     OW22341   2.542   0.159   8.322  0.0189  0.5026  0.6371
38579SOL    HW122342   2.542   0.079   8.269 -3.0412  0.1526  0.9856
38579SOL    HW222343   2.479   0.216   8.279  0.6284  1.9348  1.5591
38580SOL     OW22344   6.988  10.448   9.268  0.4309 -0.4458  0.7091
38580SOL    HW122345   7.028  10.506   9.332 -1.3573 -0.4815  1.9347
38580SOL    HW222346   7.059  10.391   9.239  1.8075  1.1616  0.8370
38581SOL     OW22347   9.345   1.090   8.694  0.0287 -0.6012 -0.4678
38581SOL    HW122348   9.295   1.151   8.748  1.0291  0.2876 -0.5199
38581SOL    HW222349   9.367   1.018   8.754 -1.0836 -0.9095 -0.3862
38582SOL     OW22350   2.836   9.971   9.546 -0.3971 -0.0409 -0.0032
38582SOL    HW122351   2.783   9.916   9.604 -0.4795  1.2499  1.2051
38582SOL    HW222352   2.842  10.055   9.592 -0.8944  1.2146 -2.1096
38583SOL     OW22353   3.535   3.948   8.340 -0.2551  0.2025 -0.6403
38583SOL    HW122354   3.628   3.936   8.362 -0.2851  1.0228 -0.0385
38583SOL    HW222355   3.519   3.885   8.270  0.4294 -0.8815  0.1440
38584SOL     OW22356   4.843   7.735  10.490  0.5086  0.1720 -0.2228
38584SOL    HW122357   4.830   7.641  10.477  0.7269  0.3744 -2.4281
38584SOL    HW222358   4.755   7.771  10.494  0.4062 -0.0308 -0.5395
38585SOL     OW22359   0.709   7.479  12.563 -0.1614  0.0643 -0.0531
38585SOL    HW122360   0.644   7.474  12.493 -0.8029 -0.4719  0.5646
38585SOL    HW222361   0.730   7.572  12.570 -0.4177  0.1703 -0.6626
38586SOL     OW22362   1.016   6.981   8.347  0.2886 -0.4409 -0.4937
38586SOL    HW122363   0.954   7.047   8.377  1.4788  0.4758  0.0414
38586SOL    HW222364   1.017   6.991   8.251 -0.0260 -0.1308 -0.4679
38587SOL     OW22365   7.333   3.033   9.907  0.0844 -0.4494  0.5474
38587SOL    HW122366   7.345   3.106   9.846 -0.2702 -0.9942 -0.2060
38587SOL    HW222367   7.259   3.059   9.962 -0.7120 -0.6515 -0.3944
38588SOL     OW22368   1.081   6.772   6.609  0.0835 -0.4988  0.5965
38588SOL    HW122369   1.172   6.764   6.580  0.1110  2.0255 -0.2972
38588SOL    HW222370   1.078   6.857   6.654 -2.5620  1.4629 -2.7852
38589SOL     OW22371  10.035   6.377   9.399 -0.2531 -0.2372 -0.2871
38589SOL    HW122372   9.987   6.317   9.341 -1.5656  0.1637  0.3525
38589SOL    HW222373  10.056   6.452   9.343 -1.7955  0.2936 -0.2058
38590SOL     OW22374  12.293   0.288   2.419 -0.1215 -0.5677  0.4542
38590SOL    HW122375  12.220   0.334   2.461 -1.8381 -3.0948  0.4940
38590SOL    HW222376  12.265   0.276   2.328  0.4206 -1.2125  0.3626
38591SOL     OW22377  10.696   2.418   5.601  0.0278 -0.1662 -0.1627
38591SOL    HW122378  10.764   2.366   5.645  0.7501 -0.3033 -1.4086
38591SOL    HW222379  10.700   2.503   5.644  0.8017 -0.2561 -0.0303
38592SOL     OW22380  12.454   7.655   9.770  0.2617 -0.1268 -0.8676
38592SOL    HW122381  12.524   7.605   9.811  1.1598 -0.6377 -2.8652
38592SOL    HW222382  12.498   7.709   9.705 -0.8938  1.9489 -0.0250
38593SOL     OW22383   5.936   7.170   1.475 -0.3380  0.3593  0.1474
38593SOL    HW122384   5.899   7.176   1.563  0.5947  0.0862  0.5716
38593SOL    HW222385   5.905   7.248   1.430 -1.0983  0.3282  0.6133
38594SOL     OW22386   7.814   1.955   8.936  0.5778 -0.0451 -0.4056
38594SOL    HW122387   7.793   1.871   8.976 -0.6196  0.8210  0.8488
38594SOL    HW222388   7.903   1.943   8.901  0.4857 -1.7698 -0.1387
38595SOL     OW22389   6.442   6.271   1.334  0.0706 -0.2072  0.4634
38595SOL    HW122390   6.426   6.329   1.409 -0.5181  0.1426  0.0708
38595SOL    HW222391   6.373   6.205   1.339  0.0695 -0.2207  0.2582
38596SOL     OW22392  12.147   5.699   8.910 -0.0689  0.7638 -0.0016
38596SOL    HW122393  12.237   5.666   8.908  0.3183  1.7775  0.0538
38596SOL    HW222394  12.105   5.649   8.980  0.6105  0.6671  0.3493
38597SOL     OW22395   5.558   2.567   5.975 -0.2698  0.0591 -0.5193
38597SOL    HW122396   5.652   2.571   5.992 -0.4623  0.3342  0.5550
38597SOL    HW222397   5.519   2.620   6.045 -1.2084  0.0914 -1.0557
38598SOL     OW22398   1.885   8.330   6.781  0.4698 -0.0070 -0.1333
38598SOL    HW122399   1.872   8.289   6.866  0.5038 -2.9403 -1.4203
38598SOL    HW222400   1.839   8.273   6.719  1.2306  1.4861 -2.2124
38599SOL     OW22401   1.126   5.660   8.127  0.3122 -0.6822  0.5108
38599SOL    HW122402   1.091   5.721   8.192  0.0337 -0.8853  0.5501
38599SOL    HW222403   1.157   5.716   8.056  1.4478 -0.3870  1.2011
38600SOL     OW22404   7.727  12.008   2.631 -0.0462  0.3577  0.0582
38600SOL    HW122405   7.747  12.015   2.538 -1.3646  2.4855 -0.1309
38600SOL    HW222406   7.782  12.075   2.672  2.3506 -2.1311  1.2354
38601SOL     OW22407   5.201   6.252   2.573 -0.0265 -0.8413 -0.0412
38601SOL    HW122408   5.177   6.327   2.627  0.2871 -1.1171  0.4874
38601SOL    HW222409   5.240   6.189   2.634 -0.3946 -1.4878 -0.4531
38602SOL     OW22410   2.071   9.291   0.128  0.6637 -0.1124  0.1249
38602SOL    HW122411   1.991   9.278   0.180  0.1758 -0.6274 -0.7286
38602SOL    HW222412   2.089   9.205   0.091  1.7789 -0.0584  0.5101
38603SOL     OW22413   9.642   7.448   1.451 -0.3077 -0.1420 -0.4246
38603SOL    HW122414   9.671   7.484   1.367  1.2660 -0.5528 -0.0919
38603SOL    HW222415   9.666   7.355   1.447 -0.7101 -0.2835  0.2704
38604SOL     OW22416   2.383   4.640   1.780 -0.2381 -0.1522 -1.0331
38604SOL    HW122417   2.409   4.575   1.714 -2.7054 -0.9015 -1.3518
38604SOL    HW222418   2.337   4.589   1.846 -0.2005  0.9917 -0.1026
38605SOL     OW22419   8.409   3.136   8.977 -0.0149  0.0561  0.5618
38605SOL    HW122420   8.504   3.139   8.978 -0.0183  0.8124 -0.2645
38605SOL    HW222421   8.387   3.068   8.913  0.0035  2.4596 -2.2030
38606SOL     OW22422   5.423   2.998   0.804 -0.2553  0.4223  0.1043
38606SOL    HW122423   5.439   2.914   0.760  0.0880  1.4790 -1.9522
38606SOL    HW222424   5.511   3.032   0.820 -0.3736  1.1174 -0.6465
38607SOL     OW22425   0.620   3.765   7.528 -0.5409  0.0403 -0.4600
38607SOL    HW122426   0.562   3.740   7.457  1.2225 -3.1352 -0.9676
38607SOL    HW222427   0.610   3.695   7.593 -0.2573  1.5568  1.3034
38608SOL     OW22428   9.781   2.935   8.593 -0.1871 -0.5732 -0.6298
38608SOL    HW122429   9.765   2.987   8.514 -3.3239 -0.7579 -0.2530
38608SOL    HW222430   9.756   2.846   8.569  1.4320 -1.2027 -0.1469
38609SOL     OW22431   1.055   8.502   4.357  0.4719 -0.5078 -0.3327
38609SOL    HW122432   1.140   8.470   4.325  0.9072  0.1171  0.1727
38609SOL    HW222433   1.074   8.589   4.391  0.1097 -1.2577  1.9350
38610SOL     OW22434   5.629   3.438   4.816 -0.3384 -0.4314  0.0731
38610SOL    HW122435   5.708   3.482   4.783 -0.4721  0.6540  1.1200
38610SOL    HW222436   5.563   3.451   4.748 -0.4294  1.2096  0.4354
38611SOL     OW22437   4.938   0.451  12.123  0.0958 -0.3355 -0.3621
38611SOL    HW122438   4.988   0.485  12.198  0.6397 -2.4769  0.3471
38611SOL    HW222439   4.964   0.359  12.118 -0.3172 -0.3818 -2.9083
38612SOL     OW22440  11.036  11.352   2.204 -0.7203 -0.0709  0.0243
38612SOL    HW122441  10.974  11.328   2.135 -0.2462 -0.3931 -0.3027
38612SOL    HW222442  10.986  11.407   2.263 -0.2184  3.5474 -2.5644
38613SOL     OW22443  11.987   8.119   1.970 -0.1497  0.0694 -0.0907
38613SOL    HW122444  12.080   8.105   1.990  0.0345  1.3299  0.0204
38613SOL    HW222445  11.988   8.163   1.885 -0.5746  1.0744  0.4103
38614SOL     OW22446  11.320   4.882  12.552  0.9423  0.2845 -0.3105
38614SOL    HW122447  11.268   4.905  12.628  0.2197  2.1168 -1.3093
38614SOL    HW222448  11.256   4.850  12.488  1.2599  0.7396 -0.8669
38615SOL     OW22449   7.255   3.984   1.034 -0.3195  0.1332 -0.3539
38615SOL    HW122450   7.220   3.901   1.067 -0.2217 -1.2133 -3.3179
38615SOL    HW222451   7.348   3.981   1.058 -0.5427 -0.0666  0.5303
38616SOL     OW22452  11.889  10.204   0.741  0.4212  0.8213  0.2191
38616SOL    HW122453  11.806  10.252   0.745  0.1256  0.2755  1.3973
38616SOL    HW222454  11.956  10.271   0.744  0.0187  1.2052  1.9278
38617SOL     OW22455  12.738   0.709   3.227  0.1845  0.0495  0.2860
38617SOL    HW122456  12.748   0.773   3.297  0.0436 -0.0784  0.4266
38617SOL    HW222457  12.810   0.726   3.167  0.1456  0.3401  0.3207
38618SOL     OW22458   2.926  12.158  12.032  0.1696  0.3216  0.0994
38618SOL    HW122459   2.978  12.078  12.041  1.1571  0.8479 -0.6405
38618SOL    HW222460   2.885  12.171  12.117 -1.5917 -2.0104 -0.2982
38619SOL     OW22461  12.279   7.276  12.270 -0.5167  0.2438 -0.1399
38619SOL    HW122462  12.286   7.182  12.253  0.1697  0.1227  0.7203
38619SOL    HW222463  12.270   7.316  12.184 -1.9883 -0.6922 -0.4536
38620SOL     OW22464  10.308   8.008   6.260 -0.1751  0.2248 -0.0613
38620SOL    HW122465  10.248   7.934   6.268  0.6587 -0.3245  1.6500
38620SOL    HW222466  10.371   7.981   6.193  0.3778 -0.8439  0.8475
38621SOL     OW22467   9.857  10.172   7.326  0.4452  0.2401  0.3132
38621SOL    HW122468   9.871  10.155   7.232  0.5318 -0.8294  0.5118
38621SOL    HW222469   9.887  10.093   7.370  0.1463  0.6228  1.2346
38622SOL     OW22470   4.025  10.962   6.477  1.0334  0.2544  0.2718
38622SOL    HW122471   4.019  10.951   6.572  1.9631 -1.3740  0.1808
38622SOL    HW222472   3.976  11.042   6.459 -0.7917 -0.4053  1.9079
38623SOL     OW22473   9.637   8.007   2.422  0.1998  0.2563  0.1256
38623SOL    HW122474   9.702   7.951   2.463  0.5284  0.1357 -0.5458
38623SOL    HW222475   9.672   8.095   2.431 -0.4549  0.4051  1.4410
38624SOL     OW22476   2.111   1.570   3.039  0.3390  0.3524 -0.0280
38624SOL    HW122477   2.195   1.572   3.084  0.8851  0.1744 -1.0292
38624SOL    HW222478   2.056   1.514   3.094  0.5705  1.2047  1.1247
38625SOL     OW22479   5.331   3.274  10.836 -0.0933  0.2450  0.4641
38625SOL    HW122480   5.419   3.308  10.850  0.5469 -0.9009 -0.5872
38625SOL    HW222481   5.288   3.338  10.780  0.6675 -0.0453 -0.4594
38626SOL     OW22482   7.524  12.130  12.735  0.0531 -0.1374 -0.6672
38626SOL    HW122483   7.519  12.056  12.674  3.1595  0.6794 -2.0507
38626SOL    HW222484   7.525  12.088  12.822 -3.1351 -1.3640 -1.0559
38627SOL     OW22485  12.623   2.513   9.596  0.2714  0.3755  0.0891
38627SOL    HW122486  12.610   2.447   9.527  1.3840 -0.0796  0.2859
38627SOL    HW222487  12.537   2.554   9.607  0.3206  1.3929 -2.5108
38628SOL     OW22488   5.164  12.158  12.400  0.8306 -0.4354  0.0365
38628SOL    HW122489   5.238  12.179  12.343  0.2353  1.2656 -0.1695
38628SOL    HW222490   5.159  12.231  12.462 -0.7022 -0.4873  0.0161
38629SOL     OW22491   2.931   7.472   7.341  0.1480 -0.6386  0.0672
38629SOL    HW122492   2.921   7.567   7.351 -0.1113 -0.7671  1.1024
38629SOL    HW222493   2.846   7.436   7.364  0.2833 -1.1305 -0.1998
38630SOL     OW22494   1.907   8.989   4.418 -0.0121 -0.1868  0.0537
38630SOL    HW122495   1.943   8.971   4.331  2.0711 -2.3960  1.2441
38630SOL    HW222496   1.983   9.009   4.472 -1.0522 -0.6230  1.7698
38631SOL     OW22497   7.010   3.107   5.359  0.1503 -0.1071  0.1696
38631SOL    HW122498   6.954   3.117   5.282  2.4354  1.2191 -1.4615
38631SOL    HW222499   6.997   3.017   5.387 -2.9488  0.2072  0.1035
38632SOL     OW22500   8.320   2.985   5.771 -0.2917 -0.2887  0.4179
38632SOL    HW122501   8.294   3.076   5.780 -0.5795 -0.2572 -0.5570
38632SOL    HW222502   8.289   2.942   5.851  1.4510  0.8073  1.7444
38633SOL     OW22503   7.812   8.875   7.275  0.0478  0.0826  0.5138
38633SOL    HW122504   7.734   8.852   7.223  0.4656  1.9653 -1.0579
38633SOL    HW222505   7.782   8.870   7.366 -1.9987  0.9933 -0.0541
38634SOL     OW22506  11.916   9.903   0.336 -0.6411 -0.1451 -0.0550
38634SOL    HW122507  11.930   9.962   0.262  0.1702  2.2831  1.8791
38634SOL    HW222508  11.957   9.820   0.309  2.0630  1.4711 -1.3126
38635SOL     OW22509   2.320   9.626   9.122 -0.5835  0.6498  0.0116
38635SOL    HW122510   2.339   9.712   9.085 -0.1938  0.5321 -0.0709
38635SOL    HW222511   2.406   9.590   9.144 -0.5891 -0.4342 -1.5712
38636SOL     OW22512   4.445   1.471   1.934  0.0791 -0.3694 -0.8267
38636SOL    HW122513   4.524   1.420   1.915  0.0061 -0.9200  0.2460
38636SOL    HW222514   4.425   1.516   1.852 -0.0826 -2.3797 -1.9560
38637SOL     OW22515   6.023  10.979   8.183 -0.2641  0.5528  0.1730
38637SOL    HW122516   6.092  11.032   8.224  0.1709  1.0703 -1.1852
38637SOL    HW222517   6.065  10.895   8.164 -0.2541  0.5677  0.1297
38638SOL     OW22518  12.293   7.093   1.079 -0.2564  0.1552 -0.1281
38638SOL    HW122519  12.336   7.101   1.164  0.0937  0.5376 -0.3343
38638SOL    HW222520  12.263   7.182   1.059 -1.4170 -0.1641  0.1500
38639SOL     OW22521   7.377   0.459  12.585  0.1242  0.1297 -0.2892
38639SOL    HW122522   7.396   0.409  12.505  1.3744 -1.1119  0.7341
38639SOL    HW222523   7.461   0.497  12.610 -0.8762  3.2796 -1.2974
38640SOL     OW22524   0.303  12.468   8.227  0.4380  0.5929  0.8029
38640SOL    HW122525   0.310  12.409   8.303 -0.4526  2.2024  2.2209
38640SOL    HW222526   0.214  12.503   8.233  0.5750  1.2367 -0.6508
38641SOL     OW22527   1.579  10.651   1.475 -0.4352 -0.1201  0.1472
38641SOL    HW122528   1.654  10.591   1.482  0.9267  1.5189  0.2687
38641SOL    HW222529   1.613  10.726   1.426 -2.1623  0.4701 -0.2190
38642SOL     OW22530   4.559   4.478   3.482 -0.2340 -0.3830 -0.2978
38642SOL    HW122531   4.534   4.560   3.439  0.7509 -0.9998 -2.1797
38642SOL    HW222532   4.644   4.497   3.522  0.5977 -0.7715 -1.7987
38643SOL     OW22533   2.668   1.456   1.739 -0.1553 -0.5223 -0.2491
38643SOL    HW122534   2.714   1.468   1.655 -0.0432  0.1774 -0.0947
38643SOL    HW222535   2.575   1.461   1.716 -0.2245  3.8948  0.1399
38644SOL     OW22536  10.572  12.275   1.325  0.2603  0.2122  0.1273
38644SOL    HW122537  10.621  12.197   1.296  1.8216  1.3615 -0.4383
38644SOL    HW222538  10.593  12.283   1.418 -1.4415 -1.0838  0.6908
38645SOL     OW22539  10.367   4.561  12.000 -0.1958 -0.3697 -0.2107
38645SOL    HW122540  10.427   4.490  11.977 -1.5512 -1.6396  0.0312
38645SOL    HW222541  10.398   4.636  11.950  0.1605 -1.6183 -1.9445
38646SOL     OW22542   8.804   0.260   9.919  0.7733 -0.5358 -0.0563
38646SOL    HW122543   8.792   0.352   9.943 -0.4729 -0.5865 -0.4311
38646SOL    HW222544   8.886   0.258   9.871  1.7447  0.0781  1.4956
38647SOL     OW22545   9.951   0.764   8.958 -0.1966  0.3086  0.0863
38647SOL    HW122546  10.043   0.764   8.932  0.3239 -0.4986  1.8024
38647SOL    HW222547   9.904   0.797   8.880  1.3264 -1.0223 -1.4723
38648SOL     OW22548  11.098   9.667  10.682  0.0546 -0.4375 -0.2587
38648SOL    HW122549  11.122   9.662  10.775 -1.7303 -0.2786  0.2461
38648SOL    HW222550  11.155   9.735  10.646 -0.1513  0.4589  1.0366
38649SOL     OW22551   9.066   5.783   1.359 -0.0715  0.4192  0.1957
38649SOL    HW122552   9.084   5.778   1.265  0.2401  1.2471  0.2076
38649SOL    HW222553   9.129   5.723   1.398  1.0629  1.4792  0.0276
38650SOL     OW22554   9.060  11.227  11.113 -0.6218  0.1897  0.2868
38650SOL    HW122555   9.022  11.151  11.068 -0.7503  0.1671  0.4310
38650SOL    HW222556   9.131  11.191  11.166 -1.4753 -0.0181  1.3247
38651SOL     OW22557   8.687   9.264  12.583  0.1326  0.7184  0.1023
38651SOL    HW122558   8.693   9.357  12.604 -1.1466  0.8742 -0.1109
38651SOL    HW222559   8.731   9.254  12.499  1.0164  0.9704  0.5297
38652SOL     OW22560   6.887   2.620   2.083 -0.0766 -0.0946  0.2152
38652SOL    HW122561   6.865   2.568   2.160 -0.2445 -0.1858  0.1063
38652SOL    HW222562   6.983   2.619   2.080 -0.0868 -1.0246 -0.2135
38653SOL     OW22563  12.300   9.583   2.355  0.2283  0.1305 -0.3519
38653SOL    HW122564  12.395   9.592   2.349  0.0651  2.0628 -0.6782
38653SOL    HW222565  12.278   9.512   2.294  1.5524 -1.1961  0.6643
38654SOL     OW22566   7.884  10.512   1.459 -0.3192 -0.4498 -0.0440
38654SOL    HW122567   7.827  10.540   1.387  0.0749 -0.7741 -0.4919
38654SOL    HW222568   7.850  10.425   1.483 -1.0292  0.0455  0.7927
38655SOL     OW22569  12.062   9.637   0.293 -0.8002  0.0278 -0.1275
38655SOL    HW122570  12.055   9.660   0.200 -0.1831 -1.2654 -0.5135
38655SOL    HW222571  12.022   9.550   0.299  0.7841 -0.6848  0.4750
38656SOL     OW22572   2.655   2.773  12.416  0.5287 -0.1647 -0.0574
38656SOL    HW122573   2.734   2.826  12.425  0.5242 -0.0569 -0.5776
38656SOL    HW222574   2.583   2.835  12.420  0.3509 -0.4478  2.1884
38657SOL     OW22575   6.110  11.549   9.997 -0.3587 -0.1486 -0.1240
38657SOL    HW122576   6.076  11.494   9.926 -1.0779  1.3213 -0.9721
38657SOL    HW222577   6.191  11.507  10.024 -0.0405 -0.7240 -1.8758
38658SOL     OW22578   7.547   4.941  11.380  0.5700 -0.0466  0.0383
38658SOL    HW122579   7.583   4.855  11.400  0.1607 -0.1153  0.4763
38658SOL    HW222580   7.606   4.977  11.313  0.8647 -0.5737  0.0168
38659SOL     OW22581  10.872   7.019   1.047 -0.0858 -0.4047  0.2308
38659SOL    HW122582  10.790   6.976   1.071  0.8174 -2.4153 -0.1004
38659SOL    HW222583  10.927   6.949   1.013  1.6750  0.9475  0.1516
38660SOL     OW22584   8.540   8.879   3.717 -0.4286  0.2490 -0.2431
38660SOL    HW122585   8.555   8.912   3.629  0.7838 -2.0825 -1.0079
38660SOL    HW222586   8.627   8.860   3.752 -0.9642 -2.3756 -0.0683
38661SOL     OW22587   1.877   1.618   6.624 -0.0553 -0.4684  0.1407
38661SOL    HW122588   1.968   1.601   6.601  0.2180  1.9678 -0.9050
38661SOL    HW222589   1.881   1.681   6.695 -0.8299  1.3400 -1.3148
38662SOL     OW22590   0.461   0.394   8.422 -0.4573 -0.0673 -0.1005
38662SOL    HW122591   0.553   0.418   8.436  0.4693 -4.4157  3.5408
38662SOL    HW222592   0.461   0.349   8.338  0.8172 -0.1903 -0.0543
38663SOL     OW22593   3.619   6.218   9.831 -0.4463 -0.3573  0.3895
38663SOL    HW122594   3.554   6.166   9.878 -1.5365 -0.2079 -0.8944
38663SOL    HW222595   3.628   6.175   9.746  0.0885  0.4443  0.0231
38664SOL     OW22596   2.371   1.937   5.672  0.7097 -0.1047  0.0564
38664SOL    HW122597   2.335   1.994   5.740  1.0318  0.7362 -0.4617
38664SOL    HW222598   2.408   1.863   5.720 -0.1007 -0.1010  0.7139
38665SOL     OW22599   5.590   2.793  10.630  0.1980  0.2249  0.4528
38665SOL    HW122600   5.664   2.779  10.571 -0.7175  0.8218 -0.8853
38665SOL    HW222601   5.630   2.817  10.714  1.5889 -2.6090  0.7161
38666SOL     OW22602  12.679   4.381   6.299  0.1911 -0.4566 -0.3475
38666SOL    HW122603  12.742   4.336   6.243  0.9295 -1.3362  1.1098
38666SOL    HW222604  12.731   4.407   6.376 -0.3806  2.2751 -0.8073
38667SOL     OW22605   0.739   7.171   0.277  0.5878  0.6100  0.1048
38667SOL    HW122606   0.739   7.141   0.368  0.1319 -0.0168 -0.0959
38667SOL    HW222607   0.830   7.160   0.248  0.6815  0.5799  0.4086
38668SOL     OW22608   1.670   5.269   2.578 -0.2934  0.1320 -0.5389
38668SOL    HW122609   1.613   5.237   2.508 -1.7483 -1.1851  1.1312
38668SOL    HW222610   1.699   5.189   2.623  0.1411  0.9545  0.6934
38669SOL     OW22611   3.100   8.397  10.071  0.1114 -0.2197  0.5827
38669SOL    HW122612   3.137   8.464  10.014  0.2087  0.9774  2.0026
38669SOL    HW222613   3.070   8.329  10.011  0.6147  0.7788 -0.8618
38670SOL     OW22614   2.944   6.131   0.523 -0.0207 -0.3262  0.1956
38670SOL    HW122615   2.875   6.197   0.510  2.6690  2.3008 -2.6107
38670SOL    HW222616   2.930   6.067   0.453 -1.6905 -2.0029  1.9514
38671SOL     OW22617   3.172   4.959   0.300  0.7719  0.3122 -0.3011
38671SOL    HW122618   3.122   4.890   0.343 -0.9720 -0.8559 -3.8223
38671SOL    HW222619   3.209   4.917   0.222  1.0876  2.9124 -1.6649
38672SOL     OW22620  10.458   9.245  10.008  0.0063  0.2476  0.0753
38672SOL    HW122621  10.526   9.312  10.005  0.5546 -0.3040 -0.1645
38672SOL    HW222622  10.448   9.223  10.100 -0.2645  0.7403  0.1663
38673SOL     OW22623   2.652   9.395   0.620  0.2486 -0.4241 -0.2556
38673SOL    HW122624   2.634   9.309   0.583  0.3414 -0.2488 -0.7150
38673SOL    HW222625   2.746   9.396   0.635  0.7728  0.6526 -3.0434
38674SOL     OW22626   5.686   8.519   2.196 -0.9607  0.0240 -0.0724
38674SOL    HW122627   5.628   8.531   2.121  0.6033 -0.3988 -1.4128
38674SOL    HW222628   5.657   8.583   2.260 -2.8406 -0.1325 -0.7152
38675SOL     OW22629   5.747   2.173   2.407 -0.2473  0.0332 -0.0789
38675SOL    HW122630   5.823   2.230   2.396  0.9286 -1.2396  1.0211
38675SOL    HW222631   5.694   2.217   2.474  0.4962  0.0237  0.5369
38676SOL     OW22632   0.323   9.399  11.759  0.2509  0.1387 -0.0179
38676SOL    HW122633   0.395   9.423  11.701  0.9983  2.0522  1.6176
38676SOL    HW222634   0.260   9.472  11.750 -0.8372 -0.8047 -0.3333
38677SOL     OW22635   3.086  10.050   2.882 -0.1791  0.2123  0.0384
38677SOL    HW122636   3.159  10.109   2.897 -0.1176  0.3321 -0.6818
38677SOL    HW222637   3.014  10.085   2.935 -0.7033  1.9980 -1.7487
38678SOL     OW22638  11.371   7.287   8.968  0.1717 -0.0638  0.2024
38678SOL    HW122639  11.430   7.270   8.894 -0.4966  0.7070 -0.5348
38678SOL    HW222640  11.403   7.369   9.006  0.6932 -0.6113  0.9745
38679SOL     OW22641   6.340  11.236  10.757  0.4232 -0.0165 -0.1982
38679SOL    HW122642   6.416  11.247  10.814 -0.3263  0.3273  0.7710
38679SOL    HW222643   6.300  11.323  10.752 -0.8008 -0.4927  0.6328
38680SOL     OW22644   8.807   0.092   1.757 -0.2564 -0.2940  0.7275
38680SOL    HW122645   8.747   0.022   1.786 -0.1555 -0.7670 -0.1685
38680SOL    HW222646   8.826   0.070   1.666  0.6617  0.2933  0.7711
38681SOL     OW22647  11.254   0.184   0.775  0.2196  0.7226  0.1564
38681SOL    HW122648  11.211   0.237   0.842  1.1209  0.3704  1.0387
38681SOL    HW222649  11.347   0.189   0.796  0.4662  0.0894 -0.7032
38682SOL     OW22650   3.097   2.134   6.405  0.1918  0.3256  0.6386
38682SOL    HW122651   3.109   2.054   6.455 -1.8040 -0.5570 -0.1713
38682SOL    HW222652   3.183   2.155   6.370  0.8155 -1.2575  1.1703
38683SOL     OW22653  11.246   4.666   9.685 -0.1143 -0.3509 -0.2358
38683SOL    HW122654  11.152   4.666   9.705  0.2611 -1.0028  1.6698
38683SOL    HW222655  11.278   4.584   9.722  1.2606 -0.0128 -0.6408
38684SOL     OW22656   1.858   4.209   6.670  0.5489 -0.3051 -0.1978
38684SOL    HW122657   1.870   4.124   6.629  0.2106 -0.8944  0.8996
38684SOL    HW222658   1.815   4.191   6.754  0.3770  0.9459  0.0139
38685SOL     OW22659   4.033   0.895   4.969 -0.1366  0.1455  0.1569
38685SOL    HW122660   4.051   0.886   5.063 -0.2436 -0.8143  0.1002
38685SOL    HW222661   3.977   0.819   4.948 -2.0047  1.5624 -0.2331
38686SOL     OW22662  11.151   9.471  11.083  0.0148  0.0064  0.6903
38686SOL    HW122663  11.070   9.521  11.094 -0.6321 -0.7473 -0.4922
38686SOL    HW222664  11.166   9.429  11.168  0.7309  2.3552  1.8270
38687SOL     OW22665  11.680  11.667   5.479 -0.4016  0.1683  0.3537
38687SOL    HW122666  11.608  11.707   5.528 -0.9085 -2.9082  2.4503
38687SOL    HW222667  11.755  11.672   5.537 -0.2556 -0.9872  0.2999
38688SOL     OW22668  11.812   9.067   1.799  0.1202 -0.0713 -0.2496
38688SOL    HW122669  11.850   8.983   1.823 -1.7669 -0.6106  1.0588
38688SOL    HW222670  11.735   9.077   1.855  1.5632  3.6731  1.4307
38689SOL     OW22671  10.019   2.827   0.909 -0.0042 -0.3066  0.1136
38689SOL    HW122672  10.092   2.765   0.902  0.2292 -0.2084  1.4260
38689SOL    HW222673   9.941   2.773   0.906  0.0901 -0.4023 -1.4477
38690SOL     OW22674  10.150   7.300  12.186 -0.2159  0.2718  0.0591
38690SOL    HW122675  10.240   7.288  12.216 -0.1175  0.3443 -0.2084
38690SOL    HW222676  10.107   7.349  12.256  0.0696  0.6301 -0.0164
38691SOL     OW22677   3.383   0.897   4.790  0.0590  0.6471  0.6519
38691SOL    HW122678   3.447   0.967   4.775 -1.2329  1.3361 -2.7840
38691SOL    HW222679   3.423   0.819   4.750 -1.3718  1.2617 -2.2396
38692SOL     OW22680   1.910   4.776   4.035 -0.3586  0.4382 -0.4649
38692SOL    HW122681   1.952   4.729   4.107 -1.1442  0.4942  0.0377
38692SOL    HW222682   1.966   4.852   4.022  0.8009 -0.4846 -1.1333
38693SOL     OW22683   0.713   1.466  12.249  0.5752 -1.0479 -0.3739
38693SOL    HW122684   0.672   1.386  12.280  0.2599 -0.1376  1.8185
38693SOL    HW222685   0.641   1.519  12.216  0.3499 -0.6249  0.7322
38694SOL     OW22686   8.048   8.306   5.994  0.3289  0.0316  0.0321
38694SOL    HW122687   7.975   8.265   5.949 -0.2561  1.5002 -0.4156
38694SOL    HW222688   8.020   8.313   6.086  0.6755 -1.0669  0.2344
38695SOL     OW22689   2.977   5.163   3.025 -0.1348 -0.2346 -0.0103
38695SOL    HW122690   2.912   5.096   3.047 -1.0487 -0.2075 -2.3402
38695SOL    HW222691   3.019   5.131   2.945  2.2919  0.0946  1.0307
38696SOL     OW22692   0.921   3.684   5.766 -0.7933  0.3243 -0.6523
38696SOL    HW122693   0.888   3.611   5.714  0.3793 -0.1189 -0.8163
38696SOL    HW222694   1.008   3.656   5.794 -1.3967  0.4918  1.6490
38697SOL     OW22695   4.946  12.135   6.140 -0.2579  0.3592 -0.4144
38697SOL    HW122696   4.898  12.077   6.199  0.5793  0.6938  0.6202
38697SOL    HW222697   4.895  12.217   6.140  0.1543  0.6239  0.4687
38698SOL     OW22698   5.150  10.129   1.207 -0.1389  0.2833  0.5701
38698SOL    HW122699   5.065  10.093   1.182  0.4924  0.0381 -1.3656
38698SOL    HW222700   5.151  10.217   1.169 -0.2621  1.0430  2.2431
38699SOL     OW22701   0.179   1.433   5.879 -0.2531  0.4962 -0.9200
38699SOL    HW122702   0.140   1.347   5.897  0.9737  0.3638  1.4865
38699SOL    HW222703   0.139   1.491   5.944  3.0150  0.4537  1.3253
38700SOL     OW22704   1.206   2.025  10.124 -0.5591  0.2183  0.0001
38700SOL    HW122705   1.202   2.098  10.062 -2.1078  0.7560  0.6991
38700SOL    HW222706   1.295   2.029  10.158  1.2325 -1.5479 -3.8362
38701SOL     OW22707  10.129   5.720  10.708  0.2901 -0.6607 -0.3824
38701SOL    HW122708  10.053   5.744  10.657 -0.5520 -1.5776  0.3953
38701SOL    HW222709  10.195   5.696  10.644  1.1249  3.2097 -1.2405
38702SOL     OW22710   5.964   5.490   1.732  0.0059 -0.6551 -0.1796
38702SOL    HW122711   6.018   5.507   1.810  0.6401 -0.1768 -0.7101
38702SOL    HW222712   5.958   5.575   1.688  0.0601 -1.0208 -0.9025
38703SOL     OW22713  11.006   4.766   4.162 -0.4915 -0.4482 -0.5612
38703SOL    HW122714  10.943   4.808   4.104  0.4172  0.8499 -0.6561
38703SOL    HW222715  11.050   4.839   4.205  0.3535 -1.3499  0.1272
38704SOL     OW22716  11.891   6.819   1.708 -0.0851 -0.3656  0.7617
38704SOL    HW122717  11.873   6.876   1.782  2.0617 -0.2495  1.2576
38704SOL    HW222718  11.927   6.877   1.641 -2.3459 -0.4046 -0.5788
38705SOL     OW22719   9.811   3.990   1.824 -0.0958 -0.1905  0.2948
38705SOL    HW122720   9.848   4.035   1.749 -0.0627  0.3540  0.6318
38705SOL    HW222721   9.879   3.927   1.850  0.2778  0.2647  0.4343
38706SOL     OW22722  12.075   7.568   0.253  0.1496  0.0104 -0.0783
38706SOL    HW122723  12.059   7.493   0.196  0.9915  0.0526 -0.3784
38706SOL    HW222724  12.144   7.539   0.312 -0.0930  0.2761  0.3398
38707SOL     OW22725   7.022  11.273   0.090  0.2137  0.2619  0.0328
38707SOL    HW122726   7.025  11.199   0.029  0.0802 -0.4091  0.8207
38707SOL    HW222727   7.100  11.262   0.145 -0.1004  0.3915  0.5078
38708SOL     OW22728   9.130   4.064   2.337  0.4384 -0.3487 -0.2500
38708SOL    HW122729   9.217   4.094   2.363  0.7497 -1.4619  0.0585
38708SOL    HW222730   9.077   4.073   2.416  0.3262  0.1124 -0.3748
38709SOL     OW22731   9.290   6.520  10.128  0.7251  0.3500 -0.0931
38709SOL    HW122732   9.359   6.492  10.067  0.9826 -0.0445  0.3707
38709SOL    HW222733   9.236   6.442  10.141 -0.4337  0.9189 -1.2447
38710SOL     OW22734  12.343   6.479   6.319 -0.0794 -0.0089 -0.3245
38710SOL    HW122735  12.331   6.537   6.244 -1.0819 -0.3845 -0.4705
38710SOL    HW222736  12.263   6.489   6.371  1.1864  1.3402  1.4993
38711SOL     OW22737   1.454   6.692  10.892 -0.3088  0.2238 -0.3621
38711SOL    HW122738   1.460   6.777  10.934  0.4411 -0.1846  0.4000
38711SOL    HW222739   1.379   6.698  10.834  0.4963  1.8277 -1.2956
38712SOL     OW22740  11.861  12.693   7.308 -0.2390 -0.6018 -0.2471
38712SOL    HW122741  11.916  12.680   7.230  0.2786 -0.5661  0.1078
38712SOL    HW222742  11.842  12.604   7.338  0.5228 -0.6028  0.2488
38713SOL     OW22743   9.198   2.094   4.992  0.0768 -0.4478 -0.2713
38713SOL    HW122744   9.267   2.034   5.019  0.4187 -0.4206 -1.0605
38713SOL    HW222745   9.174   2.065   4.904 -0.2697  0.1093 -0.3655
38714SOL     OW22746  12.692   6.616  12.337 -0.3174  0.0627  0.5142
38714SOL    HW122747  12.645   6.686  12.383 -0.4696 -0.4602  1.1613
38714SOL    HW222748  12.622   6.560  12.303 -0.1779 -0.3719  0.9379
38715SOL     OW22749   2.097   3.090   5.442  0.6983 -0.6371  0.1205
38715SOL    HW122750   2.166   3.155   5.432  0.8036 -0.9627 -1.8448
38715SOL    HW222751   2.140   3.006   5.422  0.1375 -1.0680  0.6640
38716SOL     OW22752   8.981   7.141   2.664 -0.1898  0.6333  0.2483
38716SOL    HW122753   9.071   7.146   2.633  0.0523 -1.6971  0.4449
38716SOL    HW222754   8.964   7.228   2.702  1.5550  1.4845 -0.8039
38717SOL     OW22755   4.941   7.921  10.669 -0.0253  0.2364 -0.4615
38717SOL    HW122756   4.907   7.851  10.612  0.2903  0.0878 -0.4668
38717SOL    HW222757   4.886   7.918  10.747 -0.5919  0.5691 -0.8381
38718SOL     OW22758   3.940   6.689   3.947 -0.4386 -0.3118  0.0437
38718SOL    HW122759   4.024   6.706   3.904 -0.2972 -0.4475  0.2637
38718SOL    HW222760   3.962   6.678   4.039 -0.6875 -0.4467  0.0888
38719SOL     OW22761  10.357   2.648   9.273  0.3345 -0.1835  0.3500
38719SOL    HW122762  10.319   2.712   9.333  0.2140  0.2193 -0.1493
38719SOL    HW222763  10.421   2.601   9.325 -1.1130 -1.1502  1.3363
38720SOL     OW22764   0.357   9.982   3.397 -0.4724  0.0526  0.6022
38720SOL    HW122765   0.391  10.061   3.439  0.1817  0.0367  0.1255
38720SOL    HW222766   0.282  10.013   3.346  0.4164  0.5730 -0.4267
38721SOL     OW22767   4.404   1.810   6.515 -0.0115  0.2705  0.1235
38721SOL    HW122768   4.385   1.884   6.458 -1.4615  0.0563  0.3041
38721SOL    HW222769   4.478   1.766   6.473 -0.0451  1.0091 -0.7383
38722SOL     OW22770   5.744   0.162   9.942 -0.2660 -0.1374 -0.3371
38722SOL    HW122771   5.704   0.119  10.018 -1.0077  0.4858 -0.3629
38722SOL    HW222772   5.838   0.149   9.954 -0.4792 -2.2322 -0.6333
38723SOL     OW22773   3.449   3.305   3.063  0.0053  0.2950 -0.6206
38723SOL    HW122774   3.363   3.264   3.057 -1.6574  3.1311  1.3762
38723SOL    HW222775   3.434   3.397   3.041  2.6832  0.7955 -0.7783
38724SOL     OW22776   1.336  12.299   6.661 -0.1149 -0.2071 -0.5015
38724SOL    HW122777   1.311  12.213   6.696 -1.3254 -0.1439 -1.1265
38724SOL    HW222778   1.278  12.361   6.706  0.2306  0.1866 -0.5940
38725SOL     OW22779   6.366   8.634   9.553 -0.2097  0.1568  0.1248
38725SOL    HW122780   6.386   8.716   9.509 -1.1336  0.1170 -0.3946
38725SOL    HW222781   6.438   8.575   9.530  0.4760  0.8159  0.5268
38726SOL     OW22782   4.269   1.848   5.229 -0.0454 -0.3993 -0.2117
38726SOL    HW122783   4.293   1.758   5.205 -0.3771 -0.7314  0.6714
38726SOL    HW222784   4.222   1.881   5.153 -1.6749 -1.6657  0.1771
38727SOL     OW22785   8.878  12.250  12.755  0.2328  0.3604  0.1378
38727SOL    HW122786   8.878  12.243  12.851 -0.3025 -0.8729  0.0622
38727SOL    HW222787   8.804  12.308  12.736  0.2711  0.5224  0.4744
38728SOL     OW22788   4.510   4.950   0.950 -0.3046  0.0419  0.2428
38728SOL    HW122789   4.493   5.001   0.871 -0.8350 -0.6085 -0.0758
38728SOL    HW222790   4.476   5.005   1.021  0.6774  0.8695  0.0871
38729SOL     OW22791   0.228  10.536   8.557 -0.5111 -0.0818 -0.2003
38729SOL    HW122792   0.153  10.506   8.506 -1.4483  3.0829 -0.9065
38729SOL    HW222793   0.200  10.619   8.596  1.6502 -0.2571  2.0032
38730SOL     OW22794   7.950   1.812   3.086  0.0370 -0.1811 -0.4481
38730SOL    HW122795   8.019   1.746   3.071  1.4256  1.1872 -0.3212
38730SOL    HW222796   7.874   1.761   3.114  1.5564 -1.6343  1.2971
38731SOL     OW22797   1.614   3.348   9.479  0.0038 -0.2750 -0.2786
38731SOL    HW122798   1.584   3.372   9.567  0.6684  0.0876 -0.1498
38731SOL    HW222799   1.673   3.418   9.453  0.1679 -0.6105 -0.8336
38732SOL     OW22800  11.836   5.090  12.409  0.1240 -0.1330  0.4263
38732SOL    HW122801  11.823   5.158  12.475 -0.7313  1.6561 -1.4819
38732SOL    HW222802  11.913   5.118  12.360 -0.7969  0.0323 -0.9844
38733SOL     OW22803   0.148   6.638   8.700  0.0771  0.0580 -0.3242
38733SOL    HW122804   0.232   6.671   8.732  0.1189  0.9652 -1.3354
38733SOL    HW222805   0.085   6.707   8.719 -0.8413 -1.3024  2.0157
38734SOL     OW22806   0.049   6.296   7.799  0.2566 -0.5918  0.1093
38734SOL    HW122807  -0.040   6.331   7.800  0.4390 -0.1203  0.2667
38734SOL    HW222808   0.086   6.326   7.716 -0.2796 -2.2138 -0.7389
38735SOL     OW22809   9.210   7.440   4.386  0.3776 -1.3813  0.0827
38735SOL    HW122810   9.126   7.484   4.386  0.6706 -0.8125  0.1405
38735SOL    HW222811   9.213   7.391   4.304 -0.3127 -2.0027  0.4199
38736SOL     OW22812   1.055   0.435   1.578 -0.0392 -0.0812  0.1580
38736SOL    HW122813   1.114   0.362   1.597 -0.6208 -0.6669 -0.2446
38736SOL    HW222814   0.992   0.434   1.650 -0.5977 -0.5690 -0.3256
38737SOL     OW22815   9.952   4.565   9.551  0.1584 -0.4621 -0.2539
38737SOL    HW122816   9.977   4.632   9.488 -0.6880  1.4672  1.3361
38737SOL    HW222817   9.906   4.498   9.499  0.1179  0.6831 -1.7482
38738SOL     OW22818   3.105  12.457   3.052  0.2262 -0.2206 -0.9496
38738SOL    HW122819   3.163  12.533   3.042 -0.3773  0.2150 -1.1867
38738SOL    HW222820   3.132  12.397   2.983 -0.5524  0.6004 -2.0002
38739SOL     OW22821   2.433   1.156   4.312  0.5383 -0.0823  0.7842
38739SOL    HW122822   2.376   1.120   4.244  1.4207 -2.9585  1.3902
38739SOL    HW222823   2.374   1.196   4.375 -0.6477 -1.0302  0.3183
38740SOL     OW22824   9.590  10.762   9.713  0.1951  0.8568 -0.2628
38740SOL    HW122825   9.588  10.851   9.749 -0.1623  0.2359  1.3708
38740SOL    HW222826   9.666  10.721   9.755 -0.7300 -0.1613  0.4684
38741SOL     OW22827   2.574   9.315   5.171 -0.4395 -0.0588 -0.9091
38741SOL    HW122828   2.569   9.283   5.081  0.6841 -0.9853 -0.6756
38741SOL    HW222829   2.594   9.236   5.222 -0.7652  0.5117  0.1140
38742SOL     OW22830  10.865   6.944   7.166  0.1732  0.3825 -0.3536
38742SOL    HW122831  10.932   7.005   7.135  0.6667  0.2712  0.4786
38742SOL    HW222832  10.892   6.922   7.255  0.0895 -1.1747 -0.6923
38743SOL     OW22833   1.028   7.294   4.368 -1.2228  0.0354 -0.1805
38743SOL    HW122834   1.062   7.235   4.435 -3.3432 -1.5213 -0.3485
38743SOL    HW222835   1.052   7.381   4.397  3.3807 -0.8243 -0.6653
38744SOL     OW22836   1.568  11.817  12.631  0.4310  0.0843  0.6352
38744SOL    HW122837   1.597  11.870  12.706  2.2370 -0.4366  0.3580
38744SOL    HW222838   1.627  11.742  12.632 -0.7893 -0.9054 -0.1782
38745SOL     OW22839   2.316  11.728   3.625  0.2020 -0.4682  0.0956
38745SOL    HW122840   2.221  11.738   3.620  0.0736 -0.9507  1.3199
38745SOL    HW222841   2.342  11.784   3.697  0.8655 -0.2865 -0.2782
38746SOL     OW22842   8.385   2.972   1.301 -0.8509 -0.1398 -0.0791
38746SOL    HW122843   8.392   2.998   1.393  1.7536 -1.0754  0.0641
38746SOL    HW222844   8.394   2.877   1.302  2.1413  0.0305 -1.4445
38747SOL     OW22845  11.010   5.509  10.034 -0.5643  0.0605  0.0229
38747SOL    HW122846  11.006   5.534   9.942 -0.0932 -0.4398 -0.1331
38747SOL    HW222847  10.928   5.462  10.050 -1.7806  2.1889  0.4834
38748SOL     OW22848   5.792   4.957   7.124 -0.4545 -0.0893 -0.1020
38748SOL    HW122849   5.720   5.019   7.113  0.0568  0.6233  0.4459
38748SOL    HW222850   5.766   4.902   7.197  0.6871  1.8997  1.9192
38749SOL     OW22851   5.070   2.297   7.237 -0.4845 -0.7005 -0.4400
38749SOL    HW122852   5.041   2.209   7.213 -1.5977 -0.5477  0.2311
38749SOL    HW222853   5.163   2.299   7.216 -0.5454 -1.8842 -0.8881
38750SOL     OW22854   1.250  10.591   6.706 -0.2677 -0.0290 -0.3484
38750SOL    HW122855   1.294  10.506   6.708 -0.0800  0.0805  0.3406
38750SOL    HW222856   1.243  10.617   6.798 -0.7086  0.5044 -0.5273
38751SOL     OW22857   8.127  11.120   2.785  0.1530 -0.5131 -0.1616
38751SOL    HW122858   8.134  11.208   2.822 -0.8726 -0.4890  0.0050
38751SOL    HW222859   8.041  11.090   2.811  1.0274 -2.1525  0.9986
38752SOL     OW22860   3.798  10.906   6.055 -0.6392 -0.4530  0.3955
38752SOL    HW122861   3.845  10.988   6.038 -0.4276 -0.7260 -0.4028
38752SOL    HW222862   3.855  10.857   6.114 -0.3321 -0.4096  0.1385
38753SOL     OW22863   5.686   7.764   7.910  0.1008 -0.7301  0.2818
38753SOL    HW122864   5.657   7.774   7.819  0.9839  2.6148  0.2581
38753SOL    HW222865   5.615   7.801   7.962 -0.1862 -2.1840  0.9801
38754SOL     OW22866  10.677   2.178   0.447  0.3650  0.2597  0.1338
38754SOL    HW122867  10.665   2.107   0.510  1.4426  0.9939  1.2015
38754SOL    HW222868  10.678   2.134   0.361  0.9007 -0.9931  0.7597
38755SOL     OW22869  11.158   2.201  10.642  0.0822  0.0826  0.3063
38755SOL    HW122870  11.225   2.266  10.664 -0.3321 -0.2653  2.9925
38755SOL    HW222871  11.112   2.237  10.567  0.9181  2.1145  0.7146
38756SOL     OW22872   8.895   9.507  10.704  0.4583 -0.5865  0.1332
38756SOL    HW122873   8.860   9.529  10.790 -1.6842 -1.7063 -0.3680
38756SOL    HW222874   8.856   9.572  10.645  1.4452 -0.1816 -0.0867
38757SOL     OW22875   2.236   5.391   1.859 -0.3819  0.2428 -0.3185
38757SOL    HW122876   2.250   5.477   1.897  0.7533  0.6125 -1.5069
38757SOL    HW222877   2.167   5.405   1.793 -0.6000  0.1155 -0.1196
38758SOL     OW22878   5.952  10.989   9.698 -0.0291  0.0592  0.2537
38758SOL    HW122879   5.877  10.930   9.709  1.3043 -1.7328  0.0934
38758SOL    HW222880   5.936  11.059   9.762 -0.9828 -1.1935  1.4582
38759SOL     OW22881   3.744   6.626   3.233  0.1965 -0.2077  0.1456
38759SOL    HW122882   3.825   6.653   3.191 -0.2018  0.3179 -0.3080
38759SOL    HW222883   3.675   6.672   3.184 -0.2987  0.3045  1.2905
38760SOL     OW22884   0.510   4.901   5.830 -0.0185 -0.3484  0.2001
38760SOL    HW122885   0.536   4.955   5.905  0.8409 -0.1133 -0.2587
38760SOL    HW222886   0.589   4.894   5.777 -1.2190  1.7558 -2.0796
38761SOL     OW22887   0.356  11.495   2.647  0.0594 -0.4493  0.1494
38761SOL    HW122888   0.310  11.493   2.731 -0.4730 -2.8810 -0.1259
38761SOL    HW222889   0.320  11.571   2.602 -0.8701 -0.0663  1.4752
38762SOL     OW22890   3.299   0.323   6.623  0.4938 -0.1678 -0.8340
38762SOL    HW122891   3.256   0.333   6.538 -1.8849  0.2144  0.3435
38762SOL    HW222892   3.356   0.399   6.630  0.9674 -0.3695 -2.1958
38763SOL     OW22893   6.337   7.190   2.347  0.7069  0.3023  0.1072
38763SOL    HW122894   6.362   7.115   2.401 -1.0129 -0.0514  0.4697
38763SOL    HW222895   6.329   7.154   2.259 -0.5515 -0.0699  0.3556
38764SOL     OW22896   3.660   5.934   0.468 -0.2778  0.4009  0.3474
38764SOL    HW122897   3.592   5.946   0.403 -0.3909 -0.2838  0.3353
38764SOL    HW222898   3.650   5.844   0.498 -0.8045  0.9631  1.9579
38765SOL     OW22899   6.836  10.078   9.247 -0.3159 -0.7348 -0.2869
38765SOL    HW122900   6.884  10.150   9.207 -0.0464 -1.2202 -0.8287
38765SOL    HW222901   6.800  10.028   9.174 -0.3120 -1.2874  0.0829
38766SOL     OW22902   4.694  10.199   6.449 -0.0801  0.4304  0.1199
38766SOL    HW122903   4.674  10.171   6.360  3.3844  0.0323 -0.6814
38766SOL    HW222904   4.662  10.127   6.505 -1.5897  0.3269 -0.8469
38767SOL     OW22905   4.934   1.117   3.846  0.4900  0.6018 -0.1168
38767SOL    HW122906   4.975   1.031   3.843  0.6187  0.6500  0.2500
38767SOL    HW222907   4.910   1.136   3.755 -0.2011 -0.1422 -0.1036
38768SOL     OW22908  10.665   1.634   9.141  0.4658 -0.0586  0.0176
38768SOL    HW122909  10.668   1.540   9.126 -0.1769 -0.1062  0.1520
38768SOL    HW222910  10.756   1.661   9.146  0.6721 -0.5398 -0.8769
38769SOL     OW22911  11.197   7.507   8.319 -0.1495  0.6031  0.6412
38769SOL    HW122912  11.205   7.445   8.392 -0.8924  1.0622  1.1150
38769SOL    HW222913  11.206   7.452   8.241 -2.8914 -0.5061  0.9812
38770SOL     OW22914   6.851   9.758  10.442 -0.3279 -0.7985 -0.3684
38770SOL    HW122915   6.804   9.708  10.509  0.2985 -1.3755 -0.3534
38770SOL    HW222916   6.873   9.841  10.486 -0.9437 -0.7004 -0.2390
38771SOL     OW22917   6.527   8.054  10.863  0.0281  0.2740 -0.4191
38771SOL    HW122918   6.546   8.109  10.787  1.0621 -0.2679 -0.5640
38771SOL    HW222919   6.609   8.051  10.912 -0.2741 -0.4078  0.0601
38772SOL     OW22920  10.873   8.075   5.607 -0.3553 -0.1087  0.1648
38772SOL    HW122921  10.949   8.126   5.633  1.3870 -2.0278 -0.8198
38772SOL    HW222922  10.801   8.137   5.606  1.7408  2.5244 -1.7243
38773SOL     OW22923   2.233   2.628   9.261 -0.2980  0.0707  0.0824
38773SOL    HW122924   2.296   2.598   9.326 -1.3024 -1.5511  0.3654
38773SOL    HW222925   2.149   2.626   9.306 -0.5981  2.2050 -0.2860
38774SOL     OW22926   4.842   9.427  11.413 -0.3071 -0.0348 -0.0276
38774SOL    HW122927   4.922   9.458  11.456  0.3585 -0.5106 -0.8773
38774SOL    HW222928   4.870   9.403  11.325 -1.0496 -1.7516  0.1589
38775SOL     OW22929   1.633  11.591   6.795  0.1565 -0.4322 -0.2834
38775SOL    HW122930   1.683  11.598   6.876  0.4124 -0.0689 -0.4738
38775SOL    HW222931   1.619  11.497   6.785  2.3203 -0.7223 -1.1394
38776SOL     OW22932   5.595  10.015   7.244  0.1489  0.1372  0.3860
38776SOL    HW122933   5.509  10.031   7.206 -0.3887  0.3671  1.6421
38776SOL    HW222934   5.585   9.932   7.291  1.3519 -1.1569 -1.5349
38777SOL     OW22935   9.698   7.172   1.430  0.0018 -0.1340 -0.7431
38777SOL    HW122936   9.683   7.111   1.357 -1.2902 -0.5529 -0.1603
38777SOL    HW222937   9.716   7.115   1.505 -0.8388  0.2107 -0.2763
38778SOL     OW22938   8.480   5.151   0.274  0.3131 -0.3225 -0.1760
38778SOL    HW122939   8.564   5.195   0.262 -0.0499  0.3490 -0.3118
38778SOL    HW222940   8.440   5.195   0.349 -0.5069  0.2936 -0.9531
38779SOL     OW22941   7.884   9.538  10.745 -1.0032 -0.1113  0.3105
38779SOL    HW122942   7.799   9.583  10.741 -0.5296  0.7120 -1.3399
38779SOL    HW222943   7.878   9.483  10.824 -3.3429 -0.6429 -0.1535
38780SOL     OW22944   9.681  12.209   1.906 -0.2828 -0.1449 -0.2222
38780SOL    HW122945   9.647  12.205   1.817  0.4067  0.0557 -0.5002
38780SOL    HW222946   9.735  12.130   1.915  0.6046  0.4188 -0.3975
38781SOL     OW22947   4.010   6.104  12.784 -0.2626 -0.5934  0.1141
38781SOL    HW122948   3.990   6.194  12.761 -1.7950 -0.7708  0.6312
38781SOL    HW222949   4.090   6.110  12.837 -0.6978  0.5275  0.6733
38782SOL     OW22950   7.748   8.225   9.819  0.0218 -0.6972  0.1922
38782SOL    HW122951   7.779   8.222   9.910  0.4361 -1.6258  0.0320
38782SOL    HW222952   7.819   8.265   9.771  0.2749 -1.2546  0.0983
38783SOL     OW22953  11.404   5.576   9.965  0.5531 -0.1327  0.4928
38783SOL    HW122954  11.359   5.554  10.047  0.1463  0.7851  0.5281
38783SOL    HW222955  11.414   5.671   9.968  2.3767 -0.2935  0.4094
38784SOL     OW22956   5.466   9.017   4.872 -0.1056  0.1721 -0.4713
38784SOL    HW122957   5.426   8.933   4.896 -0.2363  0.5159  0.5730
38784SOL    HW222958   5.555   9.012   4.908  0.5436 -0.2493 -2.0461
38785SOL     OW22959   3.642  11.815  10.886  0.1720 -0.2542  0.0930
38785SOL    HW122960   3.685  11.895  10.917 -3.0849  1.2068  1.3194
38785SOL    HW222961   3.672  11.805  10.796  0.4214  2.6055 -0.2358
38786SOL     OW22962   8.415  10.739  12.554  0.0464  0.1836 -0.6738
38786SOL    HW122963   8.381  10.780  12.475 -1.0634  0.7177  0.0476
38786SOL    HW222964   8.487  10.795  12.582 -0.8661  1.1634 -0.2059
38787SOL     OW22965  11.845   2.882   8.606  0.1294 -0.4247 -0.1910
38787SOL    HW122966  11.848   2.975   8.585 -3.0484  0.0870  1.0807
38787SOL    HW222967  11.885   2.876   8.693  0.5684 -0.2987 -0.3819
38788SOL     OW22968   5.634   5.599   3.473 -0.4413  0.3930 -0.3115
38788SOL    HW122969   5.659   5.682   3.432  0.0499  0.5458  0.2656
38788SOL    HW222970   5.562   5.566   3.420  1.1884 -0.2222 -2.2522
38789SOL     OW22971  10.578   1.512   8.025 -0.3220 -0.4923 -0.1894
38789SOL    HW122972  10.574   1.553   7.939 -1.2251  0.6189  0.3609
38789SOL    HW222973  10.663   1.539   8.061 -0.0353 -0.7883 -0.6357
38790SOL     OW22974   1.305   2.079   1.410  0.0608 -0.2564  0.2618
38790SOL    HW122975   1.210   2.087   1.411 -0.0010 -0.8708 -0.2827
38790SOL    HW222976   1.333   2.133   1.336  0.1896  0.4081  0.7869
38791SOL     OW22977  12.050   7.089   6.340 -0.8500 -0.0741  0.4113
38791SOL    HW122978  12.009   7.065   6.256 -1.9143  1.1697  0.5414
38791SOL    HW222979  12.072   7.182   6.330 -0.5612 -0.0332  1.3425
38792SOL     OW22980  11.030   5.837  10.488  0.1612  0.6289  0.2589
38792SOL    HW122981  10.956   5.896  10.497 -0.6988 -0.5937  1.4583
38792SOL    HW222982  10.994   5.750  10.503  1.5919 -0.1171 -0.4521
38793SOL     OW22983   5.585   7.237  12.763 -0.0531 -0.0620  0.1786
38793SOL    HW122984   5.575   7.166  12.700 -2.6811  1.5921 -1.4990
38793SOL    HW222985   5.597   7.315  12.709 -0.5693  1.1890  1.7846
38794SOL     OW22986   1.324  12.572   0.730  0.0361  0.3019  0.0024
38794SOL    HW122987   1.243  12.584   0.680 -0.3702 -2.1472 -0.0393
38794SOL    HW222988   1.371  12.655   0.719  0.0349 -0.0347 -4.5598
38795SOL     OW22989   6.010   8.203   4.393 -0.1488  0.5112  0.2476
38795SOL    HW122990   5.927   8.245   4.414  0.4893  2.6885 -1.2094
38795SOL    HW222991   5.996   8.164   4.306  0.1398  0.2259  0.3257
38796SOL     OW22992   6.807   9.838   0.347 -0.2115 -0.9251 -0.5749
38796SOL    HW122993   6.817   9.821   0.441 -0.8347 -1.0863 -0.5357
38796SOL    HW222994   6.894   9.867   0.319 -0.5131  1.1663  0.4531
38797SOL     OW22995   1.920  11.081   9.106 -0.5640  0.0932 -0.6368
38797SOL    HW122996   2.010  11.054   9.125  0.4311  3.6331  0.3935
38797SOL    HW222997   1.918  11.090   9.011 -0.8355 -2.8165 -1.0027
38798SOL     OW22998   7.097   6.263   0.495 -0.4197  0.1481  0.1000
38798SOL    HW122999   7.091   6.236   0.404  1.5483  1.3535 -0.4309
38798SOL    HW223000   7.190   6.280   0.510 -0.9178  1.7950  1.7623
38799SOL     OW23001   6.039   8.417   6.764  0.1466  0.1858 -0.0576
38799SOL    HW123002   6.126   8.401   6.728  0.4324  0.8085  0.3387
38799SOL    HW223003   6.016   8.334   6.807  1.3508  0.5815  1.4437
38800SOL     OW23004   0.901   0.696   5.845 -0.8431  0.1472 -0.2928
38800SOL    HW123005   0.994   0.683   5.829 -1.1593  1.2366 -3.6807
38800SOL    HW223006   0.878   0.627   5.908  1.9297 -1.0720 -0.4876
38801SOL     OW23007  12.299   9.726   0.606 -0.0024  0.2496 -0.1955
38801SOL    HW123008  12.234   9.794   0.590  0.7883  1.3163  1.0379
38801SOL    HW223009  12.248   9.652   0.640 -0.6720  0.8007  0.0188
38802SOL     OW23010   6.764  12.599  10.948  0.1916  0.2949 -0.2942
38802SOL    HW123011   6.729  12.688  10.959  0.4083  0.2228  1.1471
38802SOL    HW223012   6.755  12.559  11.035  2.4635 -0.2342 -0.2514
38803SOL     OW23013   5.566  11.633   3.463  0.0927  0.3824  0.1936
38803SOL    HW123014   5.481  11.673   3.441  0.3245  1.2349  0.8023
38803SOL    HW223015   5.544  11.569   3.531 -0.1394  0.1763 -0.0684
38804SOL     OW23016   8.135  10.690  12.039 -0.4771  0.0416  0.2398
38804SOL    HW123017   8.080  10.732  11.972  1.6110  1.7100 -0.5245
38804SOL    HW223018   8.144  10.600  12.008 -2.4002 -0.1740  0.1772
38805SOL     OW23019   7.326   3.975   2.879  0.2897 -0.1143 -0.0975
38805SOL    HW123020   7.393   3.907   2.887 -1.0128 -1.5245 -0.7814
38805SOL    HW223021   7.374   4.057   2.893  1.9333 -1.1395  0.5837
38806SOL     OW23022   9.297   4.667   8.961  0.4800  0.3328  0.5122
38806SOL    HW123023   9.252   4.750   8.977 -0.1993  0.0323  0.2078
38806SOL    HW223024   9.378   4.692   8.917  0.1043  0.8145  0.0730
38807SOL     OW23025   6.904  11.920   2.307 -0.0452  0.1171 -0.8223
38807SOL    HW123026   6.940  11.897   2.393  2.3783 -0.6273 -1.9507
38807SOL    HW223027   6.887  12.015   2.312 -3.5834 -0.4503  1.6183
38808SOL     OW23028   0.740   6.289   0.844 -0.4830  0.1440  0.2102
38808SOL    HW123029   0.731   6.243   0.927 -1.2882 -2.5873 -1.2470
38808SOL    HW223030   0.834   6.302   0.833 -0.4264  1.7299  2.0520
38809SOL     OW23031   2.241   5.969   0.003  0.7998 -0.0880  0.3070
38809SOL    HW123032   2.176   5.941   0.068  0.6910 -1.1465 -0.2220
38809SOL    HW223033   2.236   6.064   0.003 -2.1750 -0.1197 -1.0674
38810SOL     OW23034   6.675   5.969   8.060 -0.2614  0.1582  0.2461
38810SOL    HW123035   6.670   5.897   7.997  0.5955 -1.0938  1.5515
38810SOL    HW223036   6.746   6.025   8.026 -0.7413  0.2665 -0.6206
38811SOL     OW23037   2.083   2.235   7.827  0.6189  0.4458 -0.3070
38811SOL    HW123038   2.063   2.178   7.902 -0.8578 -0.0562 -1.0467
38811SOL    HW223039   2.004   2.287   7.814  0.0006 -0.9278 -2.7542
38812SOL     OW23040  12.430   8.709   6.662 -0.1611  0.0215  0.2071
38812SOL    HW123041  12.440   8.623   6.620 -1.4732 -0.1754  0.2443
38812SOL    HW223042  12.452   8.693   6.754 -0.1778 -0.2302  0.1697
38813SOL     OW23043  11.110  12.589   0.084  0.1187  0.0608 -0.1587
38813SOL    HW123044  11.076  12.504   0.055  0.0171 -0.0979  0.4026
38813SOL    HW223045  11.086  12.650   0.015 -0.2519 -0.2782 -0.3296
38814SOL     OW23046   6.367   2.812   1.304 -0.1945 -0.0159 -0.4317
38814SOL    HW123047   6.385   2.878   1.372 -2.1291  0.0515  0.0907
38814SOL    HW223048   6.301   2.755   1.344 -1.4128  0.0503 -2.2731
38815SOL     OW23049   1.674   8.797   2.001 -0.2166 -0.0428 -0.4144
38815SOL    HW123050   1.665   8.835   1.914  0.0360 -0.8953 -0.8267
38815SOL    HW223051   1.642   8.707   1.992  1.5348 -0.7408 -0.1036
38816SOL     OW23052   6.847   6.109  11.088 -0.5303  0.0235 -0.4202
38816SOL    HW123053   6.794   6.035  11.119 -0.2082  0.6374  1.6874
38816SOL    HW223054   6.825   6.115  10.994 -2.9842 -0.7474  0.0203
38817SOL     OW23055   4.740   2.659  12.298 -0.2719  0.4099  0.5668
38817SOL    HW123056   4.802   2.597  12.261 -0.2529 -0.2375  1.6124
38817SOL    HW223057   4.665   2.657  12.239 -0.3899 -0.8543  0.7390
38818SOL     OW23058  10.674   5.213   0.645 -0.8309  0.3933 -0.0267
38818SOL    HW123059  10.672   5.245   0.735  1.6876 -2.7755  1.3635
38818SOL    HW223060  10.620   5.134   0.646 -0.0632 -0.1739 -1.0177
38819SOL     OW23061  12.634   4.289   2.318 -0.0074  0.1566  0.1458
38819SOL    HW123062  12.542   4.275   2.340  0.4317 -0.3458  1.7775
38819SOL    HW223063  12.648   4.382   2.335 -0.0938  0.1376  0.3208
38820SOL     OW23064   1.963   3.315   0.509 -0.0369  0.1048  0.1780
38820SOL    HW123065   1.960   3.340   0.602 -1.4181  0.6314  0.0223
38820SOL    HW223066   1.913   3.384   0.465  0.1988 -0.4020 -0.8958
38821SOL     OW23067   6.651   2.786   9.779 -0.2375 -0.3515 -0.3138
38821SOL    HW123068   6.641   2.777   9.684  1.3229 -1.3093 -0.4410
38821SOL    HW223069   6.703   2.865   9.790 -1.6325  0.5683 -0.1383
38822SOL     OW23070   2.704  12.686  10.320  0.0272  0.1742  0.3573
38822SOL    HW123071   2.773  12.691  10.254  1.3766 -0.6667  1.6317
38822SOL    HW223072   2.730  12.751  10.386 -0.6749  0.1957  0.6156
38823SOL     OW23073   8.138  10.493  11.614 -0.0186 -0.4560  0.5416
38823SOL    HW123074   8.147  10.433  11.688 -0.3735 -2.0733 -0.6674
38823SOL    HW223075   8.209  10.555  11.624  0.8214 -1.5280  1.4616
38824SOL     OW23076   7.743   7.695  11.852  0.3898  0.3025  0.2959
38824SOL    HW123077   7.750   7.701  11.757 -1.6383 -0.7228  0.0297
38824SOL    HW223078   7.815   7.637  11.878 -0.5288 -1.4744 -0.9458
38825SOL     OW23079  12.663  11.310   2.353 -0.2527  0.6385 -0.1067
38825SOL    HW123080  12.612  11.359   2.290  0.0027  0.1533 -0.6984
38825SOL    HW223081  12.733  11.269   2.302 -2.2341 -2.9352 -0.2963
38826SOL     OW23082   9.283   9.053   3.366  0.2518 -0.1104  0.2055
38826SOL    HW123083   9.212   9.057   3.429  0.2412  1.1745  0.1249
38826SOL    HW223084   9.362   9.070   3.417  0.2573  0.7834 -0.0805
38827SOL     OW23085   3.669   7.963   0.607 -0.4808 -0.3327 -1.2519
38827SOL    HW123086   3.615   7.884   0.593 -1.4816 -0.3813  2.1018
38827SOL    HW223087   3.605   8.034   0.613 -0.0251 -0.0269  0.3649
38828SOL     OW23088   6.652   4.933   6.554 -0.1073  0.7927  0.0420
38828SOL    HW123089   6.642   4.989   6.631  0.5738  1.8398 -0.5968
38828SOL    HW223090   6.564   4.926   6.518 -0.6933 -0.8565  1.6530
38829SOL     OW23091   4.425   7.214   4.869  0.2033  0.6711 -0.1299
38829SOL    HW123092   4.443   7.162   4.948  0.8771  2.7659  1.1793
38829SOL    HW223093   4.475   7.171   4.800 -0.6171 -1.3733  0.4784
38830SOL     OW23094   4.924   8.545   0.937  0.4683 -0.1279  0.5421
38830SOL    HW123095   4.917   8.626   0.988  1.1295 -0.0916  0.5852
38830SOL    HW223096   4.987   8.566   0.868 -1.2396  0.1852 -1.0041
38831SOL     OW23097  11.809   1.076   7.711  0.2828 -0.6729 -0.2682
38831SOL    HW123098  11.790   1.169   7.715  1.3762 -0.4567  0.3832
38831SOL    HW223099  11.904   1.071   7.718  0.3475 -1.7711 -1.5577
38832SOL     OW23100   8.635  10.297  10.148  0.2941  0.6777 -0.0270
38832SOL    HW123101   8.634  10.392  10.137  2.3174  0.6934 -0.5340
38832SOL    HW223102   8.727  10.272  10.132 -0.5513 -1.5950 -1.8980
38833SOL     OW23103   4.462   0.570   8.390 -0.1226  0.2232 -0.7396
38833SOL    HW123104   4.475   0.598   8.480 -2.0471  0.1444 -0.3964
38833SOL    HW223105   4.485   0.646   8.337 -1.7889  1.2887 -0.0072
38834SOL     OW23106   3.792   8.590   3.608  0.2870  0.9262 -0.2842
38834SOL    HW123107   3.827   8.614   3.522  1.1144 -1.2094 -0.6094
38834SOL    HW223108   3.697   8.583   3.594  0.1550  2.7331 -0.4454
38835SOL     OW23109   8.244  12.767   5.632 -0.7664  0.0111  0.0265
38835SOL    HW123110   8.214  12.785   5.543 -1.4928 -0.9211  0.0708
38835SOL    HW223111   8.340  12.776   5.628 -0.7817 -0.2099 -0.8883
38836SOL     OW23112   9.538   0.524  11.236  0.9184 -0.2118 -0.2299
38836SOL    HW123113   9.583   0.569  11.308  1.0132 -0.4002 -0.1688
38836SOL    HW223114   9.445   0.530  11.259  0.9706 -0.5672  0.0842
38837SOL     OW23115  11.196   1.062   3.158  0.1167 -0.1478 -0.1201
38837SOL    HW123116  11.197   0.977   3.202  0.5818 -0.4675 -0.7174
38837SOL    HW223117  11.283   1.069   3.119 -0.2259  0.2023 -0.8364
38838SOL     OW23118   2.084  12.501   4.548  0.0374 -0.0710 -0.2018
38838SOL    HW123119   2.136  12.580   4.537 -0.0591 -0.2934 -3.1489
38838SOL    HW223120   1.996  12.533   4.568  0.0899  0.5838 -0.9559
38839SOL     OW23121   9.148   7.832   5.716  0.2080 -0.3144 -0.3746
38839SOL    HW123122   9.117   7.876   5.638  0.1542 -1.3110 -0.9320
38839SOL    HW223123   9.148   7.900   5.784 -2.0881  0.0027 -0.6097
38840SOL     OW23124   4.090  10.521   1.543  0.1784 -0.4803  0.3129
38840SOL    HW123125   4.162  10.579   1.519 -0.9835  0.0026 -2.3559
38840SOL    HW223126   4.027  10.577   1.589 -0.6461  0.3318 -1.6866
38841SOL     OW23127  12.324  11.148   1.432  0.2906 -0.3209  0.4089
38841SOL    HW123128  12.249  11.092   1.447  0.2071  0.1770  2.0481
38841SOL    HW223129  12.296  11.234   1.463  1.5399 -0.1351  1.0712
38842SOL     OW23130  12.359   0.610   7.523  0.1235  0.0101  0.9332
38842SOL    HW123131  12.333   0.572   7.607  0.2720 -1.7535  0.2371
38842SOL    HW223132  12.441   0.654   7.540 -0.3769  0.5746  1.9296
38843SOL     OW23133   6.298   0.500   2.420 -0.1241  0.1601  0.3183
38843SOL    HW123134   6.284   0.551   2.341 -0.4217 -0.1469  0.1742
38843SOL    HW223135   6.261   0.414   2.401 -0.6281  0.2274  0.9569
38844SOL     OW23136   5.531   1.696   4.484  0.0058  0.0811 -0.2082
38844SOL    HW123137   5.623   1.698   4.459  0.1597  0.0707  0.3584
38844SOL    HW223138   5.487   1.657   4.408  0.3229  1.0768 -0.9267
38845SOL     OW23139   8.680   0.713   1.644  0.5606 -0.2477  0.7850
38845SOL    HW123140   8.618   0.712   1.572  0.5752  1.1465  0.7358
38845SOL    HW223141   8.677   0.624   1.679  2.2390 -1.6928 -2.3225
38846SOL     OW23142   3.136  12.629   2.267  0.2145  0.1326 -0.6445
38846SOL    HW123143   3.070  12.660   2.205  0.4379 -0.4177 -1.1695
38846SOL    HW223144   3.219  12.663   2.233  0.4116 -0.6587 -0.9969
38847SOL     OW23145  12.116   2.749  10.461  0.1200 -0.1485  0.2503
38847SOL    HW123146  12.099   2.748  10.555  0.2731  1.0058  0.3048
38847SOL    HW223147  12.097   2.838  10.434 -0.6274 -0.6511 -0.9617
38848SOL     OW23148   2.522  11.733   8.621  0.5202  0.0090  0.5334
38848SOL    HW123149   2.573  11.724   8.540  0.6224  0.2425  0.5703
38848SOL    HW223150   2.460  11.804   8.602 -0.5028 -0.9554  0.1282
38849SOL     OW23151   7.908   7.401   9.814 -0.5608 -0.2971  0.0502
38849SOL    HW123152   7.849   7.459   9.765 -1.0209 -0.9657 -0.2045
38849SOL    HW223153   7.915   7.323   9.759 -0.3025 -0.6610  0.6019
38850SOL     OW23154  10.991   0.704   4.471 -0.1245  0.0291  0.8231
38850SOL    HW123155  10.996   0.798   4.488  2.1823  0.0133  0.5167
38850SOL    HW223156  11.003   0.663   4.556  1.9621  0.0297  0.5726
38851SOL     OW23157  11.593   5.975   2.166  0.1740 -0.0844  0.4446
38851SOL    HW123158  11.564   5.895   2.122  0.5823 -0.5389  0.9878
38851SOL    HW223159  11.516   6.032   2.166  0.6856  0.8517 -2.8017
38852SOL     OW23160   8.153   7.708   5.646 -0.5163 -0.2664 -0.2432
38852SOL    HW123161   8.136   7.748   5.561 -0.4432  1.5549  0.5584
38852SOL    HW223162   8.246   7.720   5.661 -0.3956 -1.1873 -0.1778
38853SOL     OW23163   5.653   1.189   3.452 -0.2720 -0.2250  0.0060
38853SOL    HW123164   5.673   1.234   3.535 -1.2919  0.8719 -0.3157
38853SOL    HW223165   5.662   1.257   3.385  1.6531 -1.3606 -0.9609
38854SOL     OW23166   7.836   2.241   2.317  0.2969 -0.1787 -0.3696
38854SOL    HW123167   7.925   2.274   2.314 -0.6981  2.9159  0.8652
38854SOL    HW223168   7.813   2.240   2.410 -1.4735  0.6577 -0.7515
38855SOL     OW23169   6.274  10.015   9.347  0.2848  0.3253 -0.3599
38855SOL    HW123170   6.188  10.030   9.387  0.1580  1.5769 -1.0499
38855SOL    HW223171   6.319   9.957   9.408 -0.8245  0.1610  0.3286
38856SOL     OW23172  10.583   2.339   3.940 -0.4167  0.0262 -0.3314
38856SOL    HW123173  10.640   2.335   3.863 -0.6836 -2.8055 -0.4663
38856SOL    HW223174  10.495   2.325   3.906 -0.4588 -2.0777  0.5040
38857SOL     OW23175   3.476   9.746   5.563 -0.6851  0.4992 -0.3464
38857SOL    HW123176   3.561   9.784   5.541 -0.6948 -0.4028 -2.2101
38857SOL    HW223177   3.498   9.665   5.610 -0.6008  1.4587  1.3090
38858SOL     OW23178   6.383   7.777   3.418  0.6659 -0.4037 -0.4142
38858SOL    HW123179   6.359   7.705   3.476 -0.2467  0.9821  1.0008
38858SOL    HW223180   6.452   7.740   3.362  1.8916 -1.7112  1.7942
38859SOL     OW23181   6.793   9.835   0.878 -0.0771  0.4705 -0.3129
38859SOL    HW123182   6.719   9.849   0.937  0.9094 -0.2460  1.1268
38859SOL    HW223183   6.811   9.922   0.842 -2.6923  0.3943 -2.0804
38860SOL     OW23184   8.531   7.828   1.786 -0.6078 -0.1340  0.4695
38860SOL    HW123185   8.600   7.800   1.846 -0.8839  0.0973  0.8982
38860SOL    HW223186   8.566   7.908   1.747 -0.4340 -0.2767  0.3308
38861SOL     OW23187   9.890   5.212  10.643  0.5763 -0.4133  0.1447
38861SOL    HW123188   9.983   5.189  10.647  0.7121  0.1598  0.2715
38861SOL    HW223189   9.871   5.252  10.727  0.6506  1.0981 -0.5321
38862SOL     OW23190   7.163   5.594   9.482 -0.1250  0.3680 -0.5311
38862SOL    HW123191   7.184   5.673   9.433  2.9696  0.1763  0.2913
38862SOL    HW223192   7.221   5.527   9.445 -1.5109 -1.1380 -0.1121
38863SOL     OW23193   2.506  12.681   7.620  0.0270 -0.1648  0.0869
38863SOL    HW123194   2.523  12.595   7.659  0.1795 -0.9551 -1.6349
38863SOL    HW223195   2.546  12.677   7.533 -2.7506  0.4510 -1.3426
38864SOL     OW23196   1.402   3.477   4.536 -0.0093  0.1298 -0.1057
38864SOL    HW123197   1.490   3.441   4.524 -0.8213 -1.9715 -0.1592
38864SOL    HW223198   1.350   3.436   4.467 -1.3415  0.1302  0.8603
38865SOL     OW23199   0.483   5.094  11.301  0.3202 -0.4687 -0.1016
38865SOL    HW123200   0.450   5.153  11.233  2.8112  0.5489 -0.5273
38865SOL    HW223201   0.421   5.021  11.302 -0.7955  0.3688 -2.1658
38866SOL     OW23202   5.642   4.038  10.537 -0.1896 -0.1015 -0.4675
38866SOL    HW123203   5.704   3.995  10.594  0.6162  1.3947 -0.1549
38866SOL    HW223204   5.684   4.121  10.513 -0.7389 -0.4084 -2.7643
38867SOL     OW23205   8.295   3.467   0.182 -0.2252  0.1305 -0.3312
38867SOL    HW123206   8.254   3.544   0.220  0.1822  0.2418 -0.1138
38867SOL    HW223207   8.272   3.472   0.089  1.2758  1.5002 -0.6838
38868SOL     OW23208   8.886   7.548   7.292 -0.2058  0.7668  0.0706
38868SOL    HW123209   8.836   7.467   7.299 -0.3188  0.8959  0.7962
38868SOL    HW223210   8.959   7.536   7.353  0.9433  0.3833 -1.3007
38869SOL     OW23211   0.634   4.144  10.959 -0.1653 -0.1477  0.2917
38869SOL    HW123212   0.568   4.161  11.027 -0.4543  2.5912 -0.5816
38869SOL    HW223213   0.694   4.218  10.964 -0.9543  0.9315 -3.2442
38870SOL     OW23214   4.248   4.303   7.684  0.9498 -0.0697  0.4234
38870SOL    HW123215   4.186   4.247   7.637  0.3359  0.9684 -0.0371
38870SOL    HW223216   4.194   4.356   7.742  1.4286  0.5539  0.3201
38871SOL     OW23217   2.877   1.825   0.938  0.1171  0.3979 -0.2833
38871SOL    HW123218   2.790   1.836   0.975  0.5444  1.5748  0.4255
38871SOL    HW223219   2.879   1.886   0.864  0.3397  0.3492 -0.3176
38872SOL     OW23220   0.696   8.847   9.996 -0.2530  0.0112  0.9793
38872SOL    HW123221   0.674   8.940   9.998  2.7784  0.9544 -1.3157
38872SOL    HW223222   0.746   8.833  10.077  1.7700  1.2314  0.0246
38873SOL     OW23223   3.088   4.651   3.246 -0.2121  0.0286 -0.1821
38873SOL    HW123224   3.180   4.623   3.247 -0.0251  0.5291 -1.3894
38873SOL    HW223225   3.081   4.712   3.320 -0.1792 -1.7700  1.3554
38874SOL     OW23226  11.318  11.043   2.096 -0.1539 -0.5382 -0.5692
38874SOL    HW123227  11.315  10.972   2.032 -1.1319 -0.5208 -0.5610
38874SOL    HW223228  11.274  11.007   2.173 -0.2617 -0.0689 -0.4098
38875SOL     OW23229   5.707   0.376   1.212  0.1235  0.0140 -0.3773
38875SOL    HW123230   5.712   0.321   1.290 -1.6628 -0.0969 -0.2955
38875SOL    HW223231   5.664   0.321   1.146  0.8844  0.3783 -1.2058
38876SOL     OW23232   3.803   0.003   3.835 -0.2356  0.4286  0.6657
38876SOL    HW123233   3.747  -0.074   3.844  0.1058  0.3140  1.9695
38876SOL    HW223234   3.890  -0.029   3.859  0.0447  1.0481  0.4799
38877SOL     OW23235  11.049   4.964  10.363 -0.1459  0.1252 -0.2197
38877SOL    HW123236  11.071   4.895  10.302 -0.4712  0.2190 -0.4442
38877SOL    HW223237  10.997   5.026  10.312  0.6346  0.8311 -0.1766
38878SOL     OW23238   6.016  10.581   3.414 -0.5220  0.0012  0.2333
38878SOL    HW123239   5.970  10.541   3.488  1.3414  0.1153  1.5094
38878SOL    HW223240   6.070  10.649   3.453  1.7529 -1.0014 -0.9621
38879SOL     OW23241   6.882   5.999   0.387 -0.4955  0.1512  0.4131
38879SOL    HW123242   6.808   5.938   0.384 -1.3761  1.2068 -1.9505
38879SOL    HW223243   6.848   6.077   0.430 -0.0183 -0.1968  1.4522
38880SOL     OW23244  11.493  11.419   1.534 -0.4739  0.0120  0.5420
38880SOL    HW123245  11.471  11.482   1.466 -0.3648 -0.9923 -0.4541
38880SOL    HW223246  11.409  11.377   1.556 -0.3855 -0.1893  0.4928
38881SOL     OW23247   8.224   9.279   7.227  1.0785  0.2994  0.1976
38881SOL    HW123248   8.301   9.312   7.181  1.2077 -0.3030 -0.0362
38881SOL    HW223249   8.156   9.277   7.160  1.4541 -1.2587 -0.1897
38882SOL     OW23250   2.482   7.387   7.809  1.0389  0.0298  0.2629
38882SOL    HW123251   2.391   7.375   7.781  1.2513  1.0093 -0.9032
38882SOL    HW223252   2.482   7.358   7.901 -0.2944 -0.5983  0.0996
38883SOL     OW23253  10.802   9.931   9.429  0.2878  0.1327 -0.4992
38883SOL    HW123254  10.838   9.978   9.505  0.2651  0.9054 -0.9621
38883SOL    HW223255  10.711   9.916   9.452  0.5337 -0.5604  0.0666
38884SOL     OW23256   8.133   3.334   1.406 -0.3811 -0.1883 -0.9690
38884SOL    HW123257   8.057   3.323   1.463 -0.9897  0.8604 -1.5557
38884SOL    HW223258   8.144   3.249   1.364  0.8006 -1.3842  1.5206
38885SOL     OW23259  10.636  10.853   8.897  0.0917  0.4354  0.2458
38885SOL    HW123260  10.607  10.762   8.903  1.6944 -0.0611  1.0180
38885SOL    HW223261  10.731  10.849   8.911  0.2456  2.1885 -0.0879
38886SOL     OW23262   5.273   5.725   6.092  0.1756 -0.2425 -0.4652
38886SOL    HW123263   5.233   5.642   6.067 -0.6886  0.2701 -0.7894
38886SOL    HW223264   5.325   5.751   6.016  0.2157 -0.3419 -0.4720
38887SOL     OW23265  10.453   6.269   9.374  0.1724 -0.2334  0.0689
38887SOL    HW123266  10.391   6.207   9.414  0.2476  1.3340  2.8223
38887SOL    HW223267  10.464   6.338   9.439  2.4651  1.1452 -1.6247
38888SOL     OW23268  12.355   0.562   6.546  0.6214 -0.4712  0.5447
38888SOL    HW123269  12.334   0.594   6.458 -1.4503  2.0951  1.8118
38888SOL    HW223270  12.440   0.601   6.566  0.7071 -0.3561 -0.0225
38889SOL     OW23271   7.687   0.933   5.640  0.0455 -0.3183 -0.1972
38889SOL    HW123272   7.638   0.985   5.577 -1.6128 -2.1624 -0.5486
38889SOL    HW223273   7.743   0.876   5.587 -0.0695 -0.6617  0.0400
38890SOL     OW23274   3.445   0.863   3.236 -0.0971  0.4468 -0.2578
38890SOL    HW123275   3.509   0.850   3.166 -1.1487 -1.2135 -0.9671
38890SOL    HW223276   3.393   0.783   3.236 -0.8201  0.8670  1.7233
38891SOL     OW23277   0.421  12.019   1.199 -0.7240  0.1045 -0.3646
38891SOL    HW123278   0.368  11.943   1.179 -2.2885  0.2052  2.7616
38891SOL    HW223279   0.482  11.988   1.267  0.2128  1.0853 -0.7278
38892SOL     OW23280   9.915   1.389   5.545  0.1873 -0.4328 -0.4232
38892SOL    HW123281   9.877   1.302   5.532 -0.8998  0.0023 -0.2961
38892SOL    HW223282   9.865   1.446   5.486  0.7932  0.1268 -0.4061
38893SOL     OW23283  12.643   5.257   7.774 -0.2913 -0.4452 -0.2770
38893SOL    HW123284  12.727   5.270   7.819 -1.4171  0.4367  1.6598
38893SOL    HW223285  12.655   5.299   7.689  0.4219  2.0422  0.9613
38894SOL     OW23286   3.667   1.606  11.820  0.1672  0.3990 -0.3008
38894SOL    HW123287   3.645   1.695  11.849 -1.1428 -0.1198  0.3633
38894SOL    HW223288   3.603   1.550  11.864 -0.5129 -0.6496 -2.5107
38895SOL     OW23289   5.833   4.922   3.324  0.4204  0.0770 -0.5542
38895SOL    HW123290   5.801   5.012   3.314  1.6324  0.4902 -0.8083
38895SOL    HW223291   5.778   4.870   3.265 -2.6652  0.0130  2.1107
38896SOL     OW23292  11.038   7.780   2.448  0.0413  0.1694  0.4820
38896SOL    HW123293  11.089   7.857   2.473 -1.5720  1.0175  1.2482
38896SOL    HW223294  11.041   7.723   2.525 -0.2435  0.2551  0.5555
38897SOL     OW23295   0.463   7.280   8.070 -0.4451  0.8508 -0.1949
38897SOL    HW123296   0.411   7.329   8.133 -1.9772 -0.0675 -0.7120
38897SOL    HW223297   0.433   7.312   7.984 -0.4444  0.0307 -0.5045
38898SOL     OW23298   6.708  11.357   6.980  0.2203 -0.2914 -0.1080
38898SOL    HW123299   6.634  11.303   7.008 -0.5437  0.4330 -0.6631
38898SOL    HW223300   6.674  11.408   6.906  1.4072 -0.2508 -0.6520
38899SOL     OW23301   5.246   8.392   7.699  0.2328  0.5021 -0.5468
38899SOL    HW123302   5.310   8.420   7.764  0.9589 -0.8530 -0.6332
38899SOL    HW223303   5.168   8.446   7.716  0.3873  0.1530  1.4510
38900SOL     OW23304   3.888   6.402  10.272  0.2923  0.7126  0.6377
38900SOL    HW123305   3.982   6.394  10.258  0.0395 -2.6969 -0.1296
38900SOL    HW223306   3.874   6.364  10.359 -0.4299  0.3330  0.3629
38901SOL     OW23307  12.308  12.734   4.015 -0.3515  0.6164 -0.0485
38901SOL    HW123308  12.309  12.727   4.111  1.7111  1.3326  0.0335
38901SOL    HW223309  12.296  12.828   3.998  0.7458  0.6914 -0.4480
38902SOL     OW23310   4.843   3.844  11.290  0.0635  0.2445 -0.5156
38902SOL    HW123311   4.752   3.823  11.271  0.0353 -1.5950  1.3552
38902SOL    HW223312   4.890   3.762  11.276  1.2688  0.8820 -0.3810
38903SOL     OW23313   9.917   9.800   6.406  0.1126 -0.3184  0.2551
38903SOL    HW123314  10.000   9.819   6.449  0.4603  1.8859 -1.2508
38903SOL    HW223315   9.940   9.743   6.333  0.2277 -0.1188  0.1356
38904SOL     OW23316  10.637  12.503  11.077  0.0412  0.2113 -0.7786
38904SOL    HW123317  10.616  12.410  11.087  1.4048 -0.0611 -0.0930
38904SOL    HW223318  10.616  12.541  11.162  0.2602  0.3584 -0.7895
38905SOL     OW23319  12.740  11.302   8.134 -0.1393 -0.0476 -0.3388
38905SOL    HW123320  12.667  11.279   8.191 -0.0003  2.7655  1.1737
38905SOL    HW223321  12.818  11.271   8.181 -0.2213 -1.3015 -1.0004
38906SOL     OW23322   2.804   4.896   9.861 -0.4537 -0.0273  0.3613
38906SOL    HW123323   2.748   4.840   9.915 -0.1249 -0.3007  0.4237
38906SOL    HW223324   2.784   4.871   9.771  0.6064 -1.1524  0.4188
38907SOL     OW23325  11.760  12.230  10.007  0.3521  0.4267  0.7691
38907SOL    HW123326  11.754  12.156  10.067 -0.2765  0.5624  0.8853
38907SOL    HW223327  11.686  12.286  10.031 -0.2326  0.2185 -0.4816
38908SOL     OW23328   7.596  12.001  10.009  0.5586 -0.0649  0.1542
38908SOL    HW123329   7.502  11.983  10.008  0.3972  0.1828  2.6728
38908SOL    HW223330   7.630  11.942  10.077  1.4471  2.8106  2.3956
38909SOL     OW23331  11.362   8.027   4.272 -0.7328  0.1322  0.2661
38909SOL    HW123332  11.320   8.042   4.357  0.1898  0.6511  0.6443
38909SOL    HW223333  11.347   7.934   4.254 -0.0454 -0.2484  1.5125
38910SOL     OW23334   7.169   8.648   7.343 -0.0693 -0.3619  0.2460
38910SOL    HW123335   7.094   8.596   7.370  0.3761 -1.1967 -0.0777
38910SOL    HW223336   7.151   8.736   7.376 -1.1727 -0.5511  0.1857
38911SOL     OW23337   7.961   9.836   8.271 -0.2694 -0.5095  0.2087
38911SOL    HW123338   8.054   9.832   8.297 -0.3557  1.1687  0.9016
38911SOL    HW223339   7.917   9.871   8.348 -1.1944  0.4813 -0.7413
38912SOL     OW23340  10.660   1.574   2.488 -0.3297 -0.2877 -0.8950
38912SOL    HW123341  10.619   1.638   2.548 -0.8001  0.5626 -2.0821
38912SOL    HW223342  10.701   1.511   2.546 -0.1997  0.8727  0.3407
38913SOL     OW23343   7.628   3.476  10.939  0.3899  0.3923  0.0061
38913SOL    HW123344   7.571   3.502  11.012  0.6836 -0.9782  0.7729
38913SOL    HW223345   7.568   3.438  10.875  0.2023  1.0058 -0.1879
38914SOL     OW23346   5.794   1.579   4.336  0.2049  0.5574 -0.5702
38914SOL    HW123347   5.811   1.652   4.278  2.2587 -0.6034 -1.5225
38914SOL    HW223348   5.824   1.609   4.422 -0.3673  1.3204 -0.6199
38915SOL     OW23349   7.927   0.727   4.010  0.2335 -0.0068 -0.3056
38915SOL    HW123350   7.985   0.775   4.069 -0.4589  1.2967 -0.6547
38915SOL    HW223351   7.949   0.635   4.025  2.3974  0.4396 -0.4632
38916SOL     OW23352   6.141  10.685   2.579  0.4271 -0.4603  0.6827
38916SOL    HW123353   6.139  10.593   2.552  0.7233 -0.1165 -0.5819
38916SOL    HW223354   6.221  10.720   2.539 -0.6835  0.8179 -0.5176
38917SOL     OW23355  12.548   0.549  10.216  0.5208 -0.4245  0.1309
38917SOL    HW123356  12.602   0.628  10.222  0.8929 -0.6461 -0.2417
38917SOL    HW223357  12.472   0.568  10.271  0.4885  0.2872 -0.1539
38918SOL     OW23358   3.256   8.141  10.386  0.3903 -0.0269 -0.3279
38918SOL    HW123359   3.194   8.193  10.436  1.1541  0.0963  0.5050
38918SOL    HW223360   3.300   8.204  10.328  0.2007 -0.0134 -0.4593
38919SOL     OW23361  11.644   0.667  11.167 -0.1747  0.0803 -1.2200
38919SOL    HW123362  11.578   0.722  11.124 -0.3237 -0.8779 -2.2519
38919SOL    HW223363  11.611   0.656  11.257  0.0606  1.9750 -0.8477
38920SOL     OW23364  10.254   4.132   2.585  0.2786 -0.3236 -0.2516
38920SOL    HW123365  10.164   4.149   2.612  0.6389 -0.5528  1.1543
38920SOL    HW223366  10.291   4.219   2.570  0.3297 -0.1198  0.9389
38921SOL     OW23367   9.750   0.654   6.051  0.0542 -0.2947 -0.1069
38921SOL    HW123368   9.655   0.665   6.048  0.0684  0.0162  0.4300
38921SOL    HW223369   9.779   0.666   5.961 -0.3821 -0.0473 -0.2152
38922SOL     OW23370   8.673  11.594  12.165  0.2891 -0.5866  0.2410
38922SOL    HW123371   8.620  11.521  12.195 -0.3159 -0.0551  0.4860
38922SOL    HW223372   8.646  11.607  12.074 -2.3207  1.6281  1.1821
38923SOL     OW23373   1.065   2.303   8.468 -0.4637  0.2293 -0.0089
38923SOL    HW123374   1.069   2.369   8.537 -0.0330 -2.0280  2.2344
38923SOL    HW223375   0.972   2.280   8.463 -0.0462 -3.1482  3.5528
38924SOL     OW23376   8.278   8.095  10.664  0.0025  0.2699  0.4641
38924SOL    HW123377   8.349   8.051  10.616 -0.7398  0.0140 -0.4243
38924SOL    HW223378   8.323   8.143  10.733  1.2518  1.7143 -1.2582
38925SOL     OW23379   0.271   6.962   8.544 -0.6985  0.0192  0.3635
38925SOL    HW123380   0.341   6.942   8.482 -2.3162 -1.5107 -1.1063
38925SOL    HW223381   0.296   6.918   8.625  0.8006  0.8924  0.4062
38926SOL     OW23382   4.575   5.712   9.767 -0.7897 -0.1157 -0.1961
38926SOL    HW123383   4.496   5.708   9.713 -0.2158  1.9725 -1.3229
38926SOL    HW223384   4.578   5.803   9.796  0.8712 -0.3219  0.3493
38927SOL     OW23385   5.385   7.801   0.083  0.2432  0.2960  0.1380
38927SOL    HW123386   5.307   7.831   0.038  0.9781  2.0723 -0.0184
38927SOL    HW223387   5.426   7.880   0.116  1.9784 -0.5817  0.2172
38928SOL     OW23388  11.878  10.955   7.783 -0.1775  0.0061 -0.7098
38928SOL    HW123389  11.908  11.010   7.711 -2.7366  0.5782 -1.4365
38928SOL    HW223390  11.817  11.010   7.832 -0.0993 -1.0576  0.6719
38929SOL     OW23391  12.027   7.947   7.944  0.2141 -0.0419  0.2095
38929SOL    HW123392  12.042   8.040   7.930  3.0310 -0.4025  0.2165
38929SOL    HW223393  12.112   7.912   7.970 -0.6802 -2.6773 -0.0374
38930SOL     OW23394   8.296   6.710   1.383  0.2413  0.1281 -0.2479
38930SOL    HW123395   8.346   6.632   1.406 -2.1336 -2.0019 -1.7225
38930SOL    HW223396   8.332   6.738   1.298 -0.9885 -1.4732 -1.3676
38931SOL     OW23397  12.253   2.952  10.949  0.0670  0.1092 -0.7359
38931SOL    HW123398  12.253   3.040  10.913  0.3000 -0.2826 -1.7148
38931SOL    HW223399  12.167   2.943  10.991  0.2138  0.9475 -0.2397
38932SOL     OW23400   3.418   6.570   2.375 -0.5489  0.6254  0.3254
38932SOL    HW123401   3.484   6.541   2.312 -0.8289 -0.2997  0.4461
38932SOL    HW223402   3.337   6.527   2.346 -0.7527  0.4709  1.1141
38933SOL     OW23403   5.071  10.739   6.579  0.2741 -0.1422  0.4980
38933SOL    HW123404   4.994  10.731   6.522  0.9262 -1.1170 -0.2732
38933SOL    HW223405   5.084  10.834   6.589 -1.3133  0.0533  1.0635
38934SOL     OW23406   1.516  12.612   2.814  0.1156  0.6100  0.5164
38934SOL    HW123407   1.577  12.612   2.740  0.2791  1.0204  0.6499
38934SOL    HW223408   1.567  12.576   2.886 -0.0611  0.1561  0.4194
38935SOL     OW23409   2.096   8.893   5.925  0.0063 -0.2405  0.5518
38935SOL    HW123410   2.059   8.834   5.860 -1.5066  0.8109  0.4061
38935SOL    HW223411   2.167   8.937   5.879  0.4119 -1.1198  0.3194
38936SOL     OW23412  11.449   7.155   2.751 -0.1740 -0.3393 -0.3308
38936SOL    HW123413  11.528   7.207   2.768  0.5757 -1.4697 -0.3135
38936SOL    HW223414  11.479   7.082   2.698 -1.3574 -0.3739 -0.9908
38937SOL     OW23415   5.407   9.824   8.727  0.2543 -0.7982 -0.6026
38937SOL    HW123416   5.358   9.752   8.768  3.3821 -2.2036  1.0648
38937SOL    HW223417   5.426   9.884   8.799 -0.5404  0.6757 -1.5834
38938SOL     OW23418   1.811   4.268   5.314 -0.5847  0.1358  0.2715
38938SOL    HW123419   1.724   4.307   5.318 -0.6984 -0.1612  0.7992
38938SOL    HW223420   1.871   4.341   5.331 -0.7526  0.2384  0.4227
38939SOL     OW23421   8.998  10.794   3.226  0.0649 -0.6814  0.2829
38939SOL    HW123422   8.968  10.759   3.142 -1.4726  0.2432  0.4032
38939SOL    HW223423   8.917  10.820   3.271  0.9734  4.8883 -0.6326
38940SOL     OW23424  11.829   2.657   0.824 -0.4703 -0.9941  0.0565
38940SOL    HW123425  11.799   2.584   0.770  0.3361 -0.4681 -1.1486
38940SOL    HW223426  11.833   2.731   0.764  0.7902 -0.4705  0.7402
38941SOL     OW23427  10.246  10.405   2.700 -0.1733 -0.1167 -0.1289
38941SOL    HW123428  10.289  10.322   2.721  1.8994  0.9676  0.0817
38941SOL    HW223429  10.271  10.423   2.610  2.6177  2.0590  0.9265
38942SOL     OW23430   1.790   4.188   0.374  0.2387  0.6333  0.6541
38942SOL    HW123431   1.772   4.117   0.312  0.9552  0.4434  0.6521
38942SOL    HW223432   1.885   4.187   0.384  0.2562  1.5782  0.6757
38943SOL     OW23433  12.030   2.438   6.951  0.0545 -0.0001 -0.4504
38943SOL    HW123434  12.016   2.467   6.861 -1.8685 -1.9221 -0.8519
38943SOL    HW223435  12.121   2.410   6.954  0.2997  0.6079 -1.6128
38944SOL     OW23436  10.782  12.775   2.393 -0.2151  0.3265 -0.1702
38944SOL    HW123437  10.715  12.723   2.348  0.4746  0.3739 -1.2853
38944SOL    HW223438  10.741  12.799   2.476 -0.9805 -0.9875 -0.1417
38945SOL     OW23439   8.802  11.837  12.009  0.0788  0.0385  0.4276
38945SOL    HW123440   8.771  11.749  12.033  1.0575 -1.1774 -2.3959
38945SOL    HW223441   8.896  11.835  12.028  0.8725 -0.9420 -3.0167
38946SOL     OW23442   8.357   5.155   0.020  0.5561  0.1222  0.0734
38946SOL    HW123443   8.398   5.143   0.106 -0.0713  3.2132  0.9460
38946SOL    HW223444   8.266   5.129   0.032  0.7464 -0.5970 -0.0163
38947SOL     OW23445  12.754  11.140  12.296  0.1022  0.5038 -0.7808
38947SOL    HW123446  12.787  11.222  12.260  0.6153 -0.4155 -2.5346
38947SOL    HW223447  12.832  11.085  12.307  0.0138  0.7947  2.0800
38948SOL     OW23448  11.399   8.206  11.047 -0.1236  0.0313 -0.3298
38948SOL    HW123449  11.472   8.152  11.079  1.3157  1.6714 -0.7143
38948SOL    HW223450  11.333   8.199  11.117  2.0167  1.6791  2.0412
38949SOL     OW23451   4.161   6.832  11.293 -0.0204 -0.1507 -0.5314
38949SOL    HW123452   4.237   6.783  11.325  0.9721 -0.2812 -2.8882
38949SOL    HW223453   4.087   6.795  11.341  1.4156  0.3370  2.2130
38950SOL     OW23454   2.203   2.835   9.499  0.2497 -0.6650  0.2409
38950SOL    HW123455   2.117   2.816   9.460 -0.7643  0.8522  1.5731
38950SOL    HW223456   2.226   2.757   9.548 -0.8196 -0.7655  0.6030
38951SOL     OW23457  12.688   3.718   9.745  0.1296 -0.5649  0.3585
38951SOL    HW123458  12.597   3.744   9.753 -0.2926 -0.9244 -2.3722
38951SOL    HW223459  12.711   3.682   9.831 -1.0955  2.9465  2.3118
38952SOL     OW23460   6.742   4.805   5.153  0.0093  0.2852  0.4249
38952SOL    HW123461   6.780   4.755   5.081  0.8996  0.4227  0.7737
38952SOL    HW223462   6.656   4.766   5.167  0.0786 -0.1473 -0.3032
38953SOL     OW23463   8.004  12.094   0.308 -0.4448 -0.5245  0.2803
38953SOL    HW123464   8.090  12.115   0.345 -1.0779  0.2033  1.3746
38953SOL    HW223465   8.023  12.070   0.217  0.7763  0.9014  0.1156
38954SOL     OW23466  10.116   0.466   4.698 -0.5206 -0.2222 -0.0184
38954SOL    HW123467  10.092   0.381   4.733 -0.3868 -0.5481 -0.7111
38954SOL    HW223468  10.106   0.526   4.772  0.0341 -0.9476  0.6589
38955SOL     OW23469   7.400   9.902   0.756 -0.0206  0.0265  0.3728
38955SOL    HW123470   7.330   9.841   0.734 -0.0852 -0.2569  1.3387
38955SOL    HW223471   7.425   9.941   0.672  0.1940 -1.5071 -0.3114
38956SOL     OW23472   6.280   0.162   8.528 -0.0033  0.2591 -0.1926
38956SOL    HW123473   6.347   0.228   8.507 -0.0125  0.7435  1.1962
38956SOL    HW223474   6.206   0.212   8.561  0.3050 -0.4495  1.7243
38957SOL     OW23475  10.230  10.383   9.953 -0.0712  0.1438 -0.3136
38957SOL    HW123476  10.273  10.457   9.911 -1.0672  1.5347  1.0222
38957SOL    HW223477  10.145  10.417   9.981 -1.0629 -1.8457 -0.7346
38958SOL     OW23478  10.482   0.927   8.821 -1.0662  0.5338 -0.5684
38958SOL    HW123479  10.502   0.842   8.783 -0.3892  0.8632 -0.9738
38958SOL    HW223480  10.442   0.977   8.750 -2.1338  0.3294 -0.1333
38959SOL     OW23481   1.736   2.451   5.082 -0.1589  0.0584 -1.0513
38959SOL    HW123482   1.809   2.406   5.039  0.9868 -0.4686  1.3223
38959SOL    HW223483   1.688   2.383   5.127 -1.1261  0.6399 -1.1780
38960SOL     OW23484   3.858   7.199   1.288  0.1794  0.4188  0.0473
38960SOL    HW123485   3.934   7.204   1.347 -0.4246  0.8844  0.8080
38960SOL    HW223486   3.783   7.203   1.347 -0.4564 -1.5977 -0.5673
38961SOL     OW23487  11.754   9.863   8.852  0.2749  0.3276  0.0864
38961SOL    HW123488  11.669   9.884   8.812  0.6127  1.6606  0.0410
38961SOL    HW223489  11.734   9.792   8.913 -1.4936  2.5287  2.2965
38962SOL     OW23490   8.302   0.910  10.146 -0.3281  0.4056  0.1173
38962SOL    HW123491   8.371   0.844  10.155  0.3328  0.8651 -1.1968
38962SOL    HW223492   8.273   0.928  10.235  0.8605 -0.2129  0.6488
38963SOL     OW23493  12.653   5.076  11.039 -0.3560  0.2228  0.3720
38963SOL    HW123494  12.620   4.987  11.054  1.0510 -0.2696  0.6739
38963SOL    HW223495  12.710   5.093  11.114  0.7833  0.6736 -0.5703
38964SOL     OW23496   2.074  10.207   2.750  0.1486 -0.0124 -0.0558
38964SOL    HW123497   2.084  10.290   2.797  0.5517 -0.9662  1.6233
38964SOL    HW223498   2.008  10.158   2.800  0.9690 -1.2752 -0.1492
38965SOL     OW23499   7.302   4.086   6.685  0.2510  0.0077 -0.8396
38965SOL    HW123500   7.304   4.017   6.751  1.4308  0.9433  0.1435
38965SOL    HW223501   7.222   4.136   6.703  0.3515  0.0024 -0.3846
38966SOL     OW23502  10.799   5.977   3.795  0.5192 -0.6414  0.7192
38966SOL    HW123503  10.759   5.894   3.819  1.7928 -0.8384  2.3533
38966SOL    HW223504  10.858   5.956   3.722 -2.8190 -0.1782 -2.3924
38967SOL     OW23505   0.904  11.437   2.067 -0.2892  0.3161  0.4032
38967SOL    HW123506   0.813  11.423   2.039 -1.2170  4.9585  0.2894
38967SOL    HW223507   0.914  11.383   2.145 -2.5550 -1.5977 -0.5038
38968SOL     OW23508   4.675   3.445   4.348 -0.4778  0.5164 -0.6262
38968SOL    HW123509   4.670   3.488   4.263  0.6903 -3.5832 -3.0151
38968SOL    HW223510   4.596   3.392   4.354 -1.0549  1.4916  1.4111
38969SOL     OW23511  10.151   1.154   4.260  1.3721 -0.0444 -0.4370
38969SOL    HW123512  10.075   1.101   4.237  0.1101  1.0440  1.0190
38969SOL    HW223513  10.117   1.243   4.267  3.3252  0.9490 -2.3121
38970SOL     OW23514   0.693   6.081  12.539 -0.0002 -0.2122  0.9124
38970SOL    HW123515   0.755   6.154  12.536  0.4879 -0.6428  0.4601
38970SOL    HW223516   0.737   6.015  12.593  1.0716 -1.5363 -1.4327
38971SOL     OW23517   2.536   3.557  10.252 -0.1954  0.3111  0.5071
38971SOL    HW123518   2.485   3.589  10.177 -2.0289 -2.8387  0.2422
38971SOL    HW223519   2.483   3.487  10.289  2.4192 -0.8138  2.4553
38972SOL     OW23520   5.722  10.979   9.188  0.5766 -0.1654  0.3794
38972SOL    HW123521   5.715  11.004   9.280  0.3092  1.0450  0.0441
38972SOL    HW223522   5.797  10.920   9.185  1.5801  1.0247  1.1311
38973SOL     OW23523   2.003   9.145   3.630  0.1098 -0.4693 -0.5092
38973SOL    HW123524   2.032   9.062   3.592 -1.2874 -1.2236 -0.0053
38973SOL    HW223525   2.070   9.166   3.695  0.1496 -1.5665 -0.1731
38974SOL     OW23526   7.611   3.890   0.337  0.6163 -0.2942  0.3504
38974SOL    HW123527   7.700   3.918   0.359 -0.0735  1.1014  1.4587
38974SOL    HW223528   7.602   3.805   0.379  2.2043 -1.6422 -1.7851
38975SOL     OW23529  12.053  10.960  10.425 -0.4960  0.5922  1.2703
38975SOL    HW123530  11.960  10.965  10.403 -0.2127 -0.2762 -0.3143
38975SOL    HW223531  12.070  11.038  10.478 -2.0996  0.8062  1.5063
38976SOL     OW23532   7.278   3.818   1.998 -0.2550  0.6832  0.1852
38976SOL    HW123533   7.279   3.817   1.902 -2.5754  3.1557  0.0064
38976SOL    HW223534   7.368   3.840   2.023 -0.0146  1.9096 -1.5518
38977SOL     OW23535   6.652   0.164   4.441 -0.3000  0.0766  0.1541
38977SOL    HW123536   6.709   0.124   4.376 -0.7140 -1.3855  0.6570
38977SOL    HW223537   6.590   0.216   4.390 -1.2478 -1.8300 -0.7264
38978SOL     OW23538   6.208   2.809   6.265 -0.0955 -0.4539  0.2174
38978SOL    HW123539   6.168   2.730   6.229  0.5860 -0.9257  0.4833
38978SOL    HW223540   6.292   2.780   6.298  0.8622  0.6788 -1.1072
38979SOL     OW23541   1.934  10.115   2.537  0.0807 -0.0383  0.4449
38979SOL    HW123542   1.860  10.097   2.595  0.5383  0.0148  1.0527
38979SOL    HW223543   2.011  10.091   2.588  0.4956  0.0583 -0.1250
38980SOL     OW23544   5.905   0.037   3.885 -0.6667 -0.9435 -0.0405
38980SOL    HW123545   5.841  -0.016   3.838  1.9183 -2.7739 -1.7796
38980SOL    HW223546   5.950  -0.025   3.943  0.9141 -0.2368 -0.4438
38981SOL     OW23547   8.594   9.565  12.458 -0.7843 -0.2421 -0.2208
38981SOL    HW123548   8.683   9.533  12.442 -1.1783 -1.2587 -0.4716
38981SOL    HW223549   8.548   9.548  12.376 -0.8491  1.6270 -0.6044
38982SOL     OW23550   6.625   4.310   6.992 -0.0916  0.1309  1.0655
38982SOL    HW123551   6.672   4.251   6.934 -0.4959  0.9584 -0.1404
38982SOL    HW223552   6.563   4.254   7.038 -2.1453 -0.1555 -1.7827
38983SOL     OW23553  12.364  11.843   7.529 -0.2590 -0.2498  0.4169
38983SOL    HW123554  12.348  11.867   7.620  0.2152  2.6264 -0.1652
38983SOL    HW223555  12.453  11.873   7.512 -0.5209 -0.2644 -1.1378
38984SOL     OW23556   3.751  11.450   8.222  0.0140 -0.5971  0.6855
38984SOL    HW123557   3.744  11.541   8.251 -1.5891 -0.9467  1.4735
38984SOL    HW223558   3.812  11.454   8.148  0.1490  1.0716  0.8365
38985SOL     OW23559  10.616   0.464   3.000 -0.4041  0.0439 -0.4946
38985SOL    HW123560  10.601   0.407   2.924 -2.0097 -0.8430  0.4233
38985SOL    HW223561  10.600   0.552   2.967 -1.3976 -0.3536 -1.1342
38986SOL     OW23562   9.572   6.814   9.305  0.1572  0.8517 -0.0264
38986SOL    HW123563   9.569   6.794   9.399  0.7913  2.3942  0.3461
38986SOL    HW223564   9.641   6.880   9.296 -1.2080  2.1840 -1.2891
38987SOL     OW23565   9.188   1.350   2.051 -0.1112 -0.0636  0.5340
38987SOL    HW123566   9.255   1.408   2.014 -0.6412  0.1953 -0.0498
38987SOL    HW223567   9.227   1.263   2.048  0.5362  0.2001  1.0245
38988SOL     OW23568  12.779   7.462   2.303 -0.0250  0.0170 -0.0184
38988SOL    HW123569  12.792   7.541   2.250 -0.3913  1.6586  2.1779
38988SOL    HW223570  12.853   7.460   2.363  1.2828 -2.7374 -1.5530
38989SOL     OW23571   6.999  11.282  10.982 -0.0867  0.2357  0.1661
38989SOL    HW123572   6.931  11.317  11.040 -0.4716  0.3785 -0.3592
38989SOL    HW223573   6.950  11.241  10.911  0.3727 -0.3761  0.1946
38990SOL     OW23574  10.488   3.008   0.996 -0.7957  0.0639  0.3107
38990SOL    HW123575  10.447   2.921   1.004 -0.6381  0.0800  1.4177
38990SOL    HW223576  10.418   3.064   0.963 -0.2118 -1.0009 -3.0682
38991SOL     OW23577   3.746  11.500   7.551  0.0289  0.2566 -0.2036
38991SOL    HW123578   3.701  11.582   7.570 -1.7203 -0.5039 -0.8262
38991SOL    HW223579   3.749  11.497   7.455  2.3619  0.7434 -0.1891
38992SOL     OW23580   5.088   4.364   5.862  0.0947 -0.2055 -0.1780
38992SOL    HW123581   5.153   4.322   5.918 -0.6268 -0.5622  0.4149
38992SOL    HW223582   5.019   4.391   5.923 -0.9587 -1.0782 -0.9448
38993SOL     OW23583   6.512   3.192   6.497  0.4562 -0.6124  0.1277
38993SOL    HW123584   6.486   3.105   6.465  0.1102 -0.4450 -0.0562
38993SOL    HW223585   6.432   3.244   6.489 -0.0211 -0.8841  2.4601
38994SOL     OW23586   1.077  11.323   1.125 -0.0316  0.1352  0.0939
38994SOL    HW123587   0.989  11.360   1.121  0.4850  1.4070  0.2277
38994SOL    HW223588   1.136  11.398   1.117  1.0457 -0.5601  1.1287
38995SOL     OW23589   1.501   8.234  12.657 -0.0195 -0.2900 -0.5182
38995SOL    HW123590   1.418   8.278  12.637 -0.4848 -1.6610 -1.7856
38995SOL    HW223591   1.568   8.297  12.630 -0.6138  0.7701  0.3672
38996SOL     OW23592  10.896  10.056  10.068 -0.5048 -0.1492 -0.1739
38996SOL    HW123593  10.839  10.039  10.143  0.0043  0.0234  0.2599
38996SOL    HW223594  10.968   9.994  10.079  0.8561  1.4960  0.8697
38997SOL     OW23595   3.162  12.286   5.874  0.6493  0.5322 -0.4414
38997SOL    HW123596   3.119  12.242   5.947 -0.4565  2.0464 -0.1262
38997SOL    HW223597   3.172  12.218   5.807  0.3264 -0.5184  0.5579
38998SOL     OW23598   8.440  12.360   1.574 -0.1814 -0.1633 -0.0265
38998SOL    HW123599   8.404  12.448   1.569 -0.3214 -0.2965 -2.1765
38998SOL    HW223600   8.408  12.316   1.495  1.0850 -1.6863  0.2553
38999SOL     OW23601   3.997  10.574   5.449 -0.0094  0.1409 -0.2553
38999SOL    HW123602   3.944  10.564   5.529  1.0827  0.2596  0.5103
38999SOL    HW223603   3.948  10.636   5.396 -0.9562 -0.2400  0.1427
39000SOL     OW23604  12.238   9.419  11.507  0.8531  0.0558 -0.3116
39000SOL    HW123605  12.171   9.363  11.548  1.8698 -1.7228 -0.9441
39000SOL    HW223606  12.223   9.506  11.544 -0.7456 -0.6498  0.8121
39001SOL     OW23607   7.791   4.050  12.637 -0.8259  0.7713  0.5278
39001SOL    HW123608   7.722   4.002  12.683 -2.3261  1.5891 -0.7530
39001SOL    HW223609   7.770   4.037  12.544  0.4310  1.5006  0.1259
39002SOL     OW23610   0.460   2.612   3.320 -0.1456 -0.1460  0.0058
39002SOL    HW123611   0.543   2.622   3.273 -0.0489 -0.4361  0.1108
39002SOL    HW223612   0.483   2.620   3.412 -0.0103 -1.5800  0.1141
39003SOL     OW23613   1.960   3.223  11.422  0.3454  0.1876  0.0923
39003SOL    HW123614   1.944   3.131  11.441 -0.0324  0.4532  1.1214
39003SOL    HW223615   1.904   3.243  11.347  0.8829 -0.5612 -0.5220
39004SOL     OW23616   5.088  12.543   7.368 -0.1464 -0.5542  0.3231
39004SOL    HW123617   5.174  12.526   7.329 -0.5666 -1.1484 -0.3540
39004SOL    HW223618   5.062  12.461   7.408 -0.5904 -0.4995  0.1556
39005SOL     OW23619   6.662   3.928   4.751 -0.8029  0.2417  0.6991
39005SOL    HW123620   6.656   3.996   4.684 -1.2699 -0.6178 -0.1597
39005SOL    HW223621   6.701   3.972   4.826  1.3859  0.8554 -0.6782
39006SOL     OW23622   7.453   4.821   9.457  0.1151 -0.0592 -0.0914
39006SOL    HW123623   7.520   4.869   9.409 -0.5555 -0.8341 -1.8886
39006SOL    HW223624   7.391   4.888   9.486 -1.2700  0.2233 -3.2857
39007SOL     OW23625   1.088  11.399   8.479  0.1847 -0.5692 -0.1466
39007SOL    HW123626   0.995  11.418   8.488  0.2909 -0.1712  0.1430
39007SOL    HW223627   1.108  11.341   8.552  0.5212  0.7140  0.8287
39008SOL     OW23628   9.538   5.798   3.095 -0.1664  0.2158  0.6458
39008SOL    HW123629   9.503   5.876   3.054  0.2676  0.6399  1.0631
39008SOL    HW223630   9.469   5.732   3.085  0.2432  0.0409 -1.4924
39009SOL     OW23631   7.290   0.962  10.670 -0.2825  0.3489 -0.2144
39009SOL    HW123632   7.317   1.027  10.605 -0.4280 -1.3515 -2.0817
39009SOL    HW223633   7.195   0.957  10.660 -0.2015 -0.6104 -0.5793
39010SOL     OW23634   8.748   4.547  10.904 -0.2471  0.0208 -0.3745
39010SOL    HW123635   8.653   4.541  10.918 -0.5215  0.3265 -1.9514
39010SOL    HW223636   8.771   4.634  10.937 -0.5737  0.0777 -0.2930
39011SOL     OW23637   2.784  11.131   0.013 -0.2729 -0.1264 -0.2637
39011SOL    HW123638   2.732  11.052   0.002  0.8806 -0.9074 -0.3220
39011SOL    HW223639   2.745  11.175   0.088 -0.4554 -1.1516  0.2608
39012SOL     OW23640   6.453   5.516   4.622  0.1392 -0.0470 -0.1483
39012SOL    HW123641   6.415   5.604   4.614 -1.9354 -0.7583  1.1438
39012SOL    HW223642   6.394   5.460   4.571  1.0784 -0.8039 -0.4314
39013SOL     OW23643   5.345   4.116  11.358  0.5279  0.2832 -0.0499
39013SOL    HW123644   5.298   4.068  11.427  1.2911 -0.3756  0.0298
39013SOL    HW223645   5.325   4.067  11.278 -1.4113  1.7846 -0.5585
39014SOL     OW23646   1.986   9.734   4.189 -0.0957  1.0719  0.7392
39014SOL    HW123647   2.078   9.755   4.170  0.0989 -0.8533 -0.7554
39014SOL    HW223648   1.958   9.803   4.249  2.4436  1.4962  1.5743
39015SOL     OW23649  11.513   1.129   7.482  0.2707 -0.1101 -0.3538
39015SOL    HW123650  11.608   1.123   7.478  0.3005  0.7053 -1.2132
39015SOL    HW223651  11.482   1.047   7.445  0.5998 -1.8322  2.8828
39016SOL     OW23652  10.438   8.855   7.114 -0.0352  0.2541  0.1988
39016SOL    HW123653  10.523   8.812   7.103 -0.0173  0.4829 -0.5759
39016SOL    HW223654  10.417   8.841   7.207 -0.1905 -1.7301 -0.0875
39017SOL     OW23655  11.271  12.594   3.079  0.2701  0.6005 -0.2606
39017SOL    HW123656  11.366  12.609   3.076  0.4631 -0.6691 -1.6007
39017SOL    HW223657  11.262  12.502   3.104 -0.5417  0.2431 -1.7734
39018SOL     OW23658   0.581  11.132   1.838 -0.2666  0.4533 -0.1544
39018SOL    HW123659   0.551  11.092   1.756 -0.0453 -0.8254  0.3633
39018SOL    HW223660   0.676  11.124   1.836 -0.2649  0.3384  0.2583
39019SOL     OW23661   0.237  10.756  11.880  0.4563  0.4900 -0.8063
39019SOL    HW123662   0.157  10.745  11.932  0.0740 -0.1581 -1.5020
39019SOL    HW223663   0.263  10.666  11.858  0.9575  0.7324 -1.2116
39020SOL     OW23664  10.774   8.519   4.301 -0.0947  0.3114  0.4181
39020SOL    HW123665  10.748   8.438   4.259  1.0673 -0.0059  0.2732
39020SOL    HW223666  10.777   8.497   4.395 -0.3707  0.3658  0.4427
39021SOL     OW23667   0.383   8.891   4.447 -0.7812 -0.6622  0.0152
39021SOL    HW123668   0.393   8.954   4.376  1.3662 -1.1352 -0.1684
39021SOL    HW223669   0.342   8.942   4.517 -0.3866  0.5828 -0.6158
39022SOL     OW23670  11.834   8.629   0.126  0.2705  0.5314  0.3879
39022SOL    HW123671  11.886   8.672   0.058  1.0742 -0.2349  0.5042
39022SOL    HW223672  11.769   8.695   0.152  0.9000  1.3505 -0.0710
39023SOL     OW23673  12.735  10.316   2.373  0.3604 -0.7100  0.4454
39023SOL    HW123674  12.718  10.410   2.384 -0.4119 -0.9438  1.3712
39023SOL    HW223675  12.770  10.308   2.284 -1.7274  0.1698 -0.5128
39024SOL     OW23676   0.910   8.453  12.753  0.2262  0.0054  0.1712
39024SOL    HW123677   0.961   8.523  12.795 -2.1325  0.8382  1.8647
39024SOL    HW223678   0.891   8.487  12.666  3.0341 -0.6485 -0.8152
39025SOL     OW23679   6.827   2.064   9.753  0.4037 -0.4321 -0.1881
39025SOL    HW123680   6.875   2.115   9.819 -1.3815  0.4171  0.5517
39025SOL    HW223681   6.814   1.978   9.794 -1.7707  0.4695  1.2102
39026SOL     OW23682   6.371   0.977   4.211  0.0143 -0.0800 -0.0446
39026SOL    HW123683   6.277   0.996   4.216 -0.5963 -2.8035  0.7740
39026SOL    HW223684   6.381   0.895   4.258  2.6870 -0.3527 -0.9200
39027SOL     OW23685   1.698  12.177  12.702  0.0415 -0.8100  0.4356
39027SOL    HW123686   1.685  12.255  12.649  0.6356 -1.3525 -0.5586
39027SOL    HW223687   1.761  12.203  12.769  0.8358 -0.6132 -0.3590
39028SOL     OW23688   8.180   0.461  10.962 -0.1288 -0.1184 -0.4720
39028SOL    HW123689   8.197   0.404  10.887 -0.5813  0.6731 -1.1962
39028SOL    HW223690   8.102   0.423  11.003  0.7004 -1.1367  0.2096
39029SOL     OW23691   7.752   0.177  12.394  0.1260  0.1496  0.3099
39029SOL    HW123692   7.687   0.168  12.464  0.4628 -1.3165  0.4908
39029SOL    HW223693   7.705   0.156  12.314 -0.0458  0.9259  0.2034
39030SOL     OW23694   7.945   2.679   1.037 -0.2746 -0.5935 -0.1355
39030SOL    HW123695   7.913   2.710   1.122  0.3603 -0.7255  0.1585
39030SOL    HW223696   7.890   2.724   0.973 -1.2623 -1.0745  0.3629
39031SOL     OW23697   8.898   5.587  12.728  0.8017 -0.4013  1.3031
39031SOL    HW123698   8.985   5.619  12.756  0.7196  2.0139 -0.8400
39031SOL    HW223699   8.915   5.543  12.645 -0.2106  2.1060 -0.3276
39032SOL     OW23700   4.743   3.980   5.249 -0.3253  0.7506  0.0319
39032SOL    HW123701   4.836   3.998   5.230 -0.5024  1.9793  0.2166
39032SOL    HW223702   4.744   3.918   5.321  0.3591 -1.8890 -2.0715
39033SOL     OW23703   3.601   4.352   2.043  0.2190  0.0001  0.3167
39033SOL    HW123704   3.614   4.342   2.137 -0.5594 -0.7694  0.3513
39033SOL    HW223705   3.636   4.439   2.023 -1.2044  0.9224  1.6359
39034SOL     OW23706   1.604   6.671  11.746 -0.2053 -0.8765  0.5375
39034SOL    HW123707   1.580   6.618  11.821 -0.9980 -1.5339 -0.1580
39034SOL    HW223708   1.617   6.608  11.675  0.8287 -0.2987  0.1857
39035SOL     OW23709   6.388  11.810   3.154  0.1018 -0.6573  0.1369
39035SOL    HW123710   6.374  11.833   3.062  0.5752  1.6878  0.5638
39035SOL    HW223711   6.364  11.890   3.201  2.6752 -0.7613  1.7934
39036SOL     OW23712  12.005   0.674   3.873 -0.2653  1.1074  0.1829
39036SOL    HW123713  11.910   0.674   3.862 -0.1624 -0.0734 -0.8348
39036SOL    HW223714  12.018   0.706   3.963 -1.7418 -0.9590  1.2238
39037SOL     OW23715  11.469   3.021   5.666 -0.4268  0.1537 -0.0138
39037SOL    HW123716  11.428   2.965   5.732 -0.7104  0.1291 -0.2106
39037SOL    HW223717  11.414   3.099   5.662 -0.5143  0.0786 -0.3468
39038SOL     OW23718   9.681  11.765   5.304  0.4273 -0.0322 -0.2098
39038SOL    HW123719   9.659  11.808   5.222  0.5853  1.1705  0.3639
39038SOL    HW223720   9.639  11.679   5.299 -0.7446  0.5781 -0.9429
39039SOL     OW23721  11.401   7.442   0.963 -0.1356  0.1502 -0.2358
39039SOL    HW123722  11.415   7.488   1.047 -1.4206 -0.5726  0.4045
39039SOL    HW223723  11.325   7.486   0.925  0.0313  0.0253 -0.7092
39040SOL     OW23724   8.294   7.854  12.023 -0.3450 -0.0887 -0.3555
39040SOL    HW123725   8.304   7.943  11.991  1.6689 -0.3254 -0.5003
39040SOL    HW223726   8.383   7.821  12.033 -0.9607 -1.3966  1.6556
39041SOL     OW23727   1.641   0.688   0.156 -0.1926 -0.2728 -0.5018
39041SOL    HW123728   1.647   0.781   0.177  1.0790 -0.4028 -0.2609
39041SOL    HW223729   1.720   0.649   0.193 -1.0597 -1.5849  0.0460
39042SOL     OW23730   7.615   3.993   8.328 -0.0812  0.2491  0.3563
39042SOL    HW123731   7.527   4.014   8.361 -1.0747  0.9522 -2.4394
39042SOL    HW223732   7.636   4.066   8.270  0.9062 -1.5014 -1.6025
39043SOL     OW23733  11.514   1.299   0.472  0.1924 -0.4112  0.0578
39043SOL    HW123734  11.496   1.290   0.379 -1.8612 -0.0266  0.3734
39043SOL    HW223735  11.482   1.217   0.511  0.6227 -0.3840  0.4856
39044SOL     OW23736   0.161   5.401   8.589  0.2084 -0.0294 -0.2549
39044SOL    HW123737   0.106   5.439   8.520 -1.1150 -0.5993  0.4361
39044SOL    HW223738   0.110   5.327   8.621  1.8635 -1.1953 -0.2466
39045SOL     OW23739   6.966   2.081  12.476 -0.0182  0.2807 -0.2068
39045SOL    HW123740   6.988   2.011  12.538 -0.4680 -0.7966 -1.2169
39045SOL    HW223741   6.922   2.035  12.404 -0.5161  1.6471 -0.7942
39046SOL     OW23742  11.646   2.906   7.768 -0.3245  0.2856 -0.5179
39046SOL    HW123743  11.614   2.986   7.809 -1.2849  1.0812 -2.6459
39046SOL    HW223744  11.594   2.898   7.688  1.1893 -1.3254 -1.4116
39047SOL     OW23745   0.648   7.208   0.710 -0.0626  0.4831 -0.0926
39047SOL    HW123746   0.641   7.303   0.695  1.6519  0.4506 -1.5321
39047SOL    HW223747   0.662   7.200   0.804 -1.4784  1.5472  0.2472
39048SOL     OW23748  10.269  12.680   3.859  0.3880  0.3254  0.6926
39048SOL    HW123749  10.284  12.774   3.843  0.5834  0.1173 -0.4780
39048SOL    HW223750  10.174  12.671   3.860  0.3647  0.4290  0.0130
39049SOL     OW23751  11.821   7.108   2.165  0.8567 -0.3299 -0.6522
39049SOL    HW123752  11.871   7.103   2.247  1.0234  0.0454 -0.7271
39049SOL    HW223753  11.789   7.199   2.163  1.3537 -0.1598 -1.2962
39050SOL     OW23754   8.612   9.582   6.752 -0.2676  0.4658  0.5131
39050SOL    HW123755   8.540   9.643   6.766  1.0641  1.9094  1.4609
39050SOL    HW223756   8.674   9.630   6.697  1.0644  0.2492  1.7489
39051SOL     OW23757   7.120   9.112   9.929  0.0361  0.6982 -0.2110
39051SOL    HW123758   7.165   9.190   9.962 -0.0628  1.2697 -1.3546
39051SOL    HW223759   7.042   9.103   9.984  1.0496  0.2447  1.1890
39052SOL     OW23760   0.934   4.478   9.722  0.5061  0.9313 -0.2286
39052SOL    HW123761   0.877   4.423   9.775 -0.3033  1.3358 -0.6620
39052SOL    HW223762   0.970   4.543   9.783  3.0873 -1.2116  0.7466
39053SOL     OW23763   5.766   6.131   5.717 -0.1036 -0.4584  0.0813
39053SOL    HW123764   5.759   6.098   5.627  1.4186  0.0041 -0.2387
39053SOL    HW223765   5.676   6.146   5.744 -0.5675  0.2498 -1.7075
39054SOL     OW23766   8.591   0.373   1.099 -0.1008  0.2417  0.1090
39054SOL    HW123767   8.581   0.422   1.181  1.9497  0.8708  0.0571
39054SOL    HW223768   8.615   0.284   1.128 -1.7772 -0.2293  0.1735
39055SOL     OW23769   2.219   9.064   2.118 -0.0014  0.2709 -0.0690
39055SOL    HW123770   2.282   9.129   2.150  1.0022  0.1982 -1.7585
39055SOL    HW223771   2.220   9.075   2.023 -2.3282  0.0278 -0.1775
39056SOL     OW23772   6.870  11.728  12.061 -0.4113 -0.1072  0.1255
39056SOL    HW123773   6.811  11.772  12.123 -0.2714 -1.1606  1.0465
39056SOL    HW223774   6.955  11.768  12.078 -0.4683 -0.0374  0.2567
39057SOL     OW23775   7.478  11.743  11.705 -0.2474  0.2588 -0.6881
39057SOL    HW123776   7.542  11.681  11.738 -0.0504 -0.8244 -2.9121
39057SOL    HW223777   7.527  11.824  11.692  0.3668 -0.1627 -1.0714
39058SOL     OW23778   0.122   4.791   5.289  0.5831 -0.2839  0.2283
39058SOL    HW123779   0.121   4.840   5.207  0.5260  0.1630  0.4928
39058SOL    HW223780   0.153   4.853   5.354 -0.0264 -0.4297  0.6733
39059SOL     OW23781   7.226  11.101   1.423  0.1424  0.5656 -0.1059
39059SOL    HW123782   7.265  11.074   1.506  1.3206  0.9561 -0.5181
39059SOL    HW223783   7.299  11.138   1.373 -0.6435  0.7584 -1.1353
39060SOL     OW23784   9.305  11.977  11.932 -0.1844 -0.4014 -0.0323
39060SOL    HW123785   9.287  12.044  11.867 -2.0927 -0.0490  0.8085
39060SOL    HW223786   9.277  11.895  11.890  0.6026 -0.4824 -0.4293
39061SOL     OW23787   0.956   2.124   7.003  0.1643  0.8035 -0.0934
39061SOL    HW123788   1.041   2.118   7.047  0.1051 -1.2424 -0.1788
39061SOL    HW223789   0.895   2.151   7.072 -0.6055 -5.4829  2.3537
39062SOL     OW23790   7.198   5.669  12.212  0.1120 -0.3339  0.2405
39062SOL    HW123791   7.236   5.716  12.286 -2.6380 -0.1957  1.7246
39062SOL    HW223792   7.180   5.736  12.147  0.4122 -0.0788  0.4217
39063SOL     OW23793   3.401  12.350   8.246 -0.3881 -0.1580  0.0905
39063SOL    HW123794   3.464  12.321   8.180  0.8300  1.4278  0.4983
39063SOL    HW223795   3.430  12.438   8.270 -2.4380  0.3974  0.7246
39064SOL     OW23796   0.511   7.256   2.414  0.3532  0.3707 -0.3031
39064SOL    HW123797   0.530   7.165   2.434  1.8588  0.5478 -0.8440
39064SOL    HW223798   0.549   7.271   2.328  0.3039  1.5640 -0.1377
39065SOL     OW23799   5.151   5.945   6.161  0.0065  0.5224  0.5909
39065SOL    HW123800   5.208   5.872   6.137 -0.2092 -0.5005  2.9199
39065SOL    HW223801   5.211   6.017   6.180  0.4653 -0.0769  1.4909
39066SOL     OW23802   3.264   0.130   6.796 -0.2179  0.4108  0.8353
39066SOL    HW123803   3.340   0.072   6.798  0.0210  0.7171  2.1388
39066SOL    HW223804   3.289   0.200   6.736  0.1515  0.0258  0.5290
39067SOL     OW23805   1.909  10.698   0.892 -0.1100 -0.0845  0.0582
39067SOL    HW123806   1.929  10.734   0.806 -1.5816  0.1376 -0.2058
39067SOL    HW223807   1.820  10.664   0.885 -0.5713  0.6646  1.7093
39068SOL     OW23808  12.668   8.679  10.938  0.1818 -0.1001 -0.7381
39068SOL    HW123809  12.605   8.617  10.975  0.5939  0.0449  0.2386
39068SOL    HW223810  12.754   8.639  10.955  0.4254  0.4865 -0.5674
39069SOL     OW23811   1.526   3.581   7.409 -0.0093  0.9580  0.0368
39069SOL    HW123812   1.481   3.628   7.339  0.2023  3.2479  1.3438
39069SOL    HW223813   1.463   3.582   7.482  1.1366  1.9690  1.0620
39070SOL     OW23814  12.650   9.068  10.488  0.3618 -0.0869 -0.8306
39070SOL    HW123815  12.646   8.973  10.484 -0.3067 -0.0257 -2.9236
39070SOL    HW223816  12.577   9.093  10.544  0.2902 -0.7948 -0.5970
39071SOL     OW23817  10.294   8.082   4.506 -0.2011 -0.0827 -0.3051
39071SOL    HW123818  10.218   8.085   4.564  1.3064  1.9670  1.7300
39071SOL    HW223819  10.273   8.145   4.436 -1.3874 -1.4391 -1.2210
39072SOL     OW23820  10.432  10.556  10.202 -0.0694 -0.1905 -0.1368
39072SOL    HW123821  10.519  10.596  10.195  0.1742 -0.5737  0.5712
39072SOL    HW223822  10.419  10.544  10.296 -1.2005  0.5149 -0.1952
39073SOL     OW23823   6.609   3.903   3.491 -0.2523 -0.1038  0.1790
39073SOL    HW123824   6.606   3.814   3.457 -2.6239 -0.3387  0.8384
39073SOL    HW223825   6.646   3.955   3.420 -0.6281 -1.3121 -0.9335
39074SOL     OW23826  10.887   6.168  10.356  0.0132  0.0500 -0.2768
39074SOL    HW123827  10.808   6.169  10.302  1.0631 -0.8474 -1.9266
39074SOL    HW223828  10.871   6.101  10.422  0.3095 -1.9968 -2.1661
39075SOL     OW23829  11.197   4.926  10.923  0.8009 -0.5246 -0.1187
39075SOL    HW123830  11.284   4.920  10.883  1.8155 -0.8855  1.9730
39075SOL    HW223831  11.207   4.992  10.992 -0.2380 -1.4571  0.9659
39076SOL     OW23832   3.369   5.411  11.948 -0.3237  0.1855 -0.2972
39076SOL    HW123833   3.367   5.417  11.852 -2.0008 -2.5064 -0.5186
39076SOL    HW223834   3.423   5.334  11.966 -0.4146  0.3911  0.9154
39077SOL     OW23835   7.704   6.294  10.274 -0.1900  0.1289 -0.1949
39077SOL    HW123836   7.648   6.273  10.349 -0.3702 -0.1969 -0.4192
39077SOL    HW223837   7.787   6.249  10.292 -0.2897 -0.0837 -0.2731
39078SOL     OW23838   2.576   5.381  10.613 -0.2602  0.1572  0.1344
39078SOL    HW123839   2.543   5.432  10.539  0.6203  6.0653  3.1925
39078SOL    HW223840   2.671   5.387  10.606  0.0103 -3.1134 -0.3865
39079SOL     OW23841   1.103   6.161   1.659  0.4160  0.2999  0.2412
39079SOL    HW123842   1.191   6.167   1.622 -0.3428  2.1038 -1.4087
39079SOL    HW223843   1.100   6.230   1.725  0.4478 -0.2335  0.8108
39080SOL     OW23844   1.547   3.849   0.856  0.7400 -0.0113 -0.2926
39080SOL    HW123845   1.466   3.876   0.900  0.5990 -0.9641  0.0602
39080SOL    HW223846   1.547   3.898   0.774  0.1128  0.4517 -0.0269
39081SOL     OW23847   1.715   8.944  12.436  0.0742  0.1553 -0.2736
39081SOL    HW123848   1.778   9.006  12.472  1.9793 -2.1160  0.5240
39081SOL    HW223849   1.700   8.974  12.346  0.0622  2.3290  0.3959
39082SOL     OW23850   0.926   3.078   0.128  0.3292  0.2973  0.3115
39082SOL    HW123851   0.927   3.085   0.033 -2.0547  0.9970  0.2690
39082SOL    HW223852   0.850   3.023   0.148 -0.1813  1.4619  1.8150
39083SOL     OW23853   5.316   9.238   1.409 -0.5323 -1.1730  0.1930
39083SOL    HW123854   5.338   9.327   1.381 -0.4850 -0.9190  1.0294
39083SOL    HW223855   5.300   9.191   1.327  0.3891 -0.6464 -0.3056
39084SOL     OW23856   4.927   2.594   2.686  0.3099 -0.1868 -0.2810
39084SOL    HW123857   4.923   2.566   2.777  0.3956 -0.5616 -0.3921
39084SOL    HW223858   4.950   2.515   2.637  1.1421  0.1864 -0.5262
39085SOL     OW23859   2.140  10.572   9.129  0.1169 -0.6618  0.4329
39085SOL    HW123860   2.167  10.482   9.150  0.0390 -0.8885 -0.3922
39085SOL    HW223861   2.218  10.611   9.089 -0.3703 -0.9233 -0.8159
39086SOL     OW23862   1.453   5.758   9.981 -0.2657  0.0765  0.5039
39086SOL    HW123863   1.476   5.746  10.074  1.3103  1.1010  0.2768
39086SOL    HW223864   1.439   5.852   9.972  0.7156  0.1375 -0.5349
39087SOL     OW23865   5.906   0.310   7.671  0.0937  1.1282 -0.5016
39087SOL    HW123866   5.949   0.230   7.641  1.4189  1.6859 -0.1605
39087SOL    HW223867   5.899   0.300   7.766 -0.6450  1.0019 -0.5625
39088SOL     OW23868   4.498   2.293  10.935 -0.2548 -0.0112  0.5164
39088SOL    HW123869   4.537   2.284  11.022  0.0161  0.3509  0.4352
39088SOL    HW223870   4.559   2.248  10.877 -0.1930  0.1582  0.4495
39089SOL     OW23871   6.282   8.433  11.418 -0.0534  0.2583 -0.3813
39089SOL    HW123872   6.190   8.444  11.443 -0.1380  3.1907 -1.5249
39089SOL    HW223873   6.330   8.463  11.495 -0.0789 -0.2131 -0.1805
39090SOL     OW23874   8.016   4.244   9.044 -0.2431  0.9228  0.1568
39090SOL    HW123875   8.060   4.247   9.129 -1.9623  2.3142  1.0767
39090SOL    HW223876   7.937   4.193   9.060  0.9352 -1.5719 -1.4729
39091SOL     OW23877   9.375  11.923   4.273 -0.0595 -0.4902 -0.2362
39091SOL    HW123878   9.336  11.997   4.226 -0.0589 -1.5458 -2.0215
39091SOL    HW223879   9.359  11.848   4.215  0.2983 -1.8207  1.3237
39092SOL     OW23880   6.967   2.653   4.781  0.0283  0.3049 -0.1606
39092SOL    HW123881   6.940   2.717   4.847 -0.8790  2.0689 -2.1110
39092SOL    HW223882   7.060   2.668   4.769  0.0455  0.4812  0.2072
39093SOL     OW23883   4.123   1.801   6.924 -0.0255 -0.9022  0.4951
39093SOL    HW123884   4.105   1.707   6.923  2.1983 -1.3823  0.4170
39093SOL    HW223885   4.056   1.838   6.866  0.8391 -2.8294 -1.9229
39094SOL     OW23886   4.496   9.358   5.489  0.1372  0.3408 -0.4399
39094SOL    HW123887   4.545   9.288   5.532 -1.2370  0.7720  2.0131
39094SOL    HW223888   4.546   9.437   5.508 -0.8574  0.6344  1.1310
39095SOL     OW23889   2.763  12.494   5.791  0.0042  0.0262 -0.0484
39095SOL    HW123890   2.784  12.414   5.742  1.7258  0.8418 -0.7097
39095SOL    HW223891   2.845  12.518   5.833 -0.2365  1.9710 -0.6207
39096SOL     OW23892   0.181   6.522   2.599 -0.3133 -0.6252  0.4069
39096SOL    HW123893   0.141   6.436   2.589 -0.1596 -0.5278 -1.2324
39096SOL    HW223894   0.169   6.565   2.514  1.0460  0.3592  0.6722
39097SOL     OW23895   2.369   8.171   5.494  0.2896 -0.2886  0.3009
39097SOL    HW123896   2.441   8.201   5.438 -0.8952 -0.9619 -1.6776
39097SOL    HW223897   2.395   8.083   5.521  0.0315 -0.7217 -0.8061
39098SOL     OW23898   7.099  10.198   8.669  0.4290 -0.1064 -0.1869
39098SOL    HW123899   7.164  10.136   8.636  0.8955 -0.3888  1.1858
39098SOL    HW223900   7.021  10.145   8.685  0.5713 -0.1879  0.2392
39099SOL     OW23901   0.164   0.683   7.893  0.1436  0.2514  0.2574
39099SOL    HW123902   0.195   0.759   7.843  0.1376 -0.1025 -0.2774
39099SOL    HW223903   0.096   0.719   7.951 -1.3726  0.2909 -1.4759
39100SOL     OW23904   5.498   5.742   5.923  0.5076 -0.3913 -0.1116
39100SOL    HW123905   5.572   5.682   5.930  1.1997  0.4100 -0.3801
39100SOL    HW223906   5.451   5.713   5.845 -0.8147 -2.3487  1.3479
39101SOL     OW23907   0.180  11.856   2.982 -0.1596 -0.4488 -0.0758
39101SOL    HW123908   0.258  11.878   3.034 -1.9191  0.2982  2.4040
39101SOL    HW223909   0.138  11.940   2.965 -1.5651 -0.9945  0.5413
39102SOL     OW23910   4.061   9.590   7.047 -0.4441  0.1041 -0.2283
39102SOL    HW123911   4.112   9.524   7.000  0.3247  0.2849  0.3273
39102SOL    HW223912   3.990   9.541   7.088 -0.3720 -0.2486 -0.5155
39103SOL     OW23913  10.232   6.983  10.500  0.3881  0.4018  0.5269
39103SOL    HW123914  10.288   6.968  10.576 -0.4565  1.8463  1.4886
39103SOL    HW223915  10.146   6.948  10.526  0.7508 -1.7688 -0.9184
39104SOL     OW23916   6.259   5.236   6.349 -0.6135  0.3479 -0.0306
39104SOL    HW123917   6.332   5.298   6.358  0.2706 -0.5189 -0.8929
39104SOL    HW223918   6.244   5.231   6.255  0.0423 -1.5074 -0.0746
39105SOL     OW23919  10.420   4.363   3.829 -0.1488 -0.1931 -0.1628
39105SOL    HW123920  10.382   4.318   3.753  0.5592  0.3698 -0.8597
39105SOL    HW223921  10.455   4.444   3.794  1.0665 -0.3683  0.5885
39106SOL     OW23922   3.392   4.057  10.523 -0.6341  0.1963 -0.0310
39106SOL    HW123923   3.333   4.133  10.514 -0.2247  0.5673  0.3852
39106SOL    HW223924   3.479   4.096  10.532 -0.4314 -0.3297  0.2781
39107SOL     OW23925   8.508  12.318  11.816 -0.5881  0.0843  0.0133
39107SOL    HW123926   8.492  12.410  11.796  1.0717 -0.0233 -2.1696
39107SOL    HW223927   8.602  12.306  11.802 -1.0418 -2.3116 -1.6001
39108SOL     OW23928   0.894  12.647   2.194 -0.8787  0.4198  0.7375
39108SOL    HW123929   0.851  12.613   2.116  3.7286  0.8237 -2.3603
39108SOL    HW223930   0.866  12.738   2.199  0.0215  0.8813 -1.5649
39109SOL     OW23931  11.835   5.050   1.328 -0.2930 -0.3719 -0.2226
39109SOL    HW123932  11.814   5.105   1.253  0.1579  0.7972  0.4777
39109SOL    HW223933  11.790   5.093   1.402 -0.2094 -1.1381  0.2813
39110SOL     OW23934  11.315   1.540   1.163 -0.7621 -0.1856 -0.0397
39110SOL    HW123935  11.376   1.502   1.227 -0.8087 -1.1988 -0.5813
39110SOL    HW223936  11.357   1.622   1.137 -1.1195  0.6564  1.8610
39111SOL     OW23937   8.149   1.568   5.792  0.1376 -0.3529  0.5629
39111SOL    HW123938   8.074   1.616   5.829  1.3651  1.1765  1.1698
39111SOL    HW223939   8.141   1.480   5.828 -1.1252 -0.0949  0.9616
39112SOL     OW23940   4.324  10.487   3.983  0.4766  0.0747 -0.2605
39112SOL    HW123941   4.262  10.440   4.038  1.1294  0.3810  0.7757
39112SOL    HW223942   4.310  10.452   3.895 -1.4231  0.4161 -0.1366
39113SOL     OW23943   3.465  10.131   5.537 -0.1688 -0.6455  0.5421
39113SOL    HW123944   3.455  10.036   5.528 -1.5440 -0.5314  0.6284
39113SOL    HW223945   3.383  10.160   5.577 -0.3223  0.7531 -0.7063
39114SOL     OW23946   2.762   8.476   7.344  0.5117 -0.2159  0.5865
39114SOL    HW123947   2.740   8.552   7.290 -0.8801 -0.2628  1.0570
39114SOL    HW223948   2.850   8.494   7.376 -0.1004  1.5966  1.3629
39115SOL     OW23949   0.256   5.040   5.905 -0.0538 -0.2394  0.1860
39115SOL    HW123950   0.285   5.071   5.991 -0.3999  1.0151 -0.1309
39115SOL    HW223951   0.336   5.013   5.861  0.2746  0.2796  0.4561
39116SOL     OW23952  10.529  10.428   6.448  0.2433 -0.2854 -0.6598
39116SOL    HW123953  10.600  10.378   6.406  0.0834 -0.2125 -1.0227
39116SOL    HW223954  10.574  10.501   6.490  0.5021 -0.8393  0.0522
39117SOL     OW23955   5.601   8.344   5.537  0.2834  0.3861  0.0745
39117SOL    HW123956   5.644   8.271   5.582 -1.5456  0.0004  1.3261
39117SOL    HW223957   5.621   8.420   5.591 -0.1934  0.2822  0.4080
39118SOL     OW23958  10.129   0.715   3.319  0.0646 -0.1720 -0.0218
39118SOL    HW123959  10.207   0.671   3.352 -0.3296 -1.7317 -1.0359
39118SOL    HW223960  10.104   0.777   3.387  2.6333  0.9573 -0.0069
39119SOL     OW23961  11.927   0.472   9.118  0.0606 -0.3460  0.8853
39119SOL    HW123962  12.011   0.433   9.095 -0.3515  0.2263 -1.8868
39119SOL    HW223963  11.863   0.423   9.067 -0.7056  2.4031 -1.0084
39120SOL     OW23964   5.823   6.192  10.148  0.2594 -0.0431 -0.4244
39120SOL    HW123965   5.877   6.136  10.093  1.0910  0.9454 -0.6297
39120SOL    HW223966   5.733   6.168  10.126  0.5935 -1.4746 -0.3114
39121SOL     OW23967   7.655  12.534   4.569 -0.5040  0.3597  0.5474
39121SOL    HW123968   7.612  12.451   4.589 -2.0190  0.9297 -0.2182
39121SOL    HW223969   7.601  12.601   4.611  1.1747  0.9582  1.9181
39122SOL     OW23970   3.476   7.015   4.791  0.0408 -0.1903 -0.1450
39122SOL    HW123971   3.481   6.941   4.730  0.0468  0.2734 -0.7095
39122SOL    HW223972   3.501   7.091   4.739  0.4042  0.1599  0.5346
39123SOL     OW23973   2.242   8.096   6.151 -0.3273  0.1123  0.0968
39123SOL    HW123974   2.269   8.078   6.241 -1.5236 -0.3981  0.3626
39123SOL    HW223975   2.283   8.026   6.100 -0.0583  0.1136  0.3091
39124SOL     OW23976   4.915   8.362   7.419  0.3002 -0.6244 -0.0494
39124SOL    HW123977   4.855   8.288   7.412  1.6415 -1.7553  0.2134
39124SOL    HW223978   4.879   8.415   7.490 -1.9400  0.2240 -1.7026
39125SOL     OW23979   6.880  10.374  10.357  0.4282 -0.4964  0.5135
39125SOL    HW123980   6.784  10.372  10.359  0.3738  0.4642 -0.3614
39125SOL    HW223981   6.907  10.326  10.435 -0.7719  0.1404  1.3445
39126SOL     OW23982   4.929  11.711   1.842 -0.3591 -0.0828  0.4041
39126SOL    HW123983   4.841  11.685   1.814 -0.8402  2.9236 -1.3269
39126SOL    HW223984   4.917  11.746   1.930 -0.6838 -0.5835  0.5638
39127SOL     OW23985   0.299   4.958   0.487 -0.3023  0.2485 -0.4882
39127SOL    HW123986   0.297   4.874   0.442  0.2829  0.4110 -0.8310
39127SOL    HW223987   0.305   5.023   0.417  1.5527  0.4680 -0.1803
39128SOL     OW23988   7.073   8.445   5.000  0.0213  0.0115  0.6351
39128SOL    HW123989   7.044   8.489   4.921  0.3999 -0.8019  0.0293
39128SOL    HW223990   7.169   8.448   4.996  0.1457 -2.5462 -0.4511
39129SOL     OW23991   2.636   6.122   8.240  0.2730  0.0875 -0.0769
39129SOL    HW123992   2.606   6.192   8.297  0.3859 -0.4988  0.7168
39129SOL    HW223993   2.593   6.139   8.156 -0.6379  0.4230  0.4516
39130SOL     OW23994   7.576  12.043   0.889 -0.1167 -0.2364 -0.3979
39130SOL    HW123995   7.646  12.107   0.877  0.8090 -1.3869 -1.3863
39130SOL    HW223996   7.558  12.010   0.801 -1.0979 -0.7912 -0.0061
39131SOL     OW23997   9.412  10.940  10.333 -0.5762 -0.2162 -0.4736
39131SOL    HW123998   9.328  10.922  10.291 -0.3560 -0.5478 -0.7674
39131SOL    HW223999   9.396  10.924  10.426 -0.7607 -0.5492 -0.5634
39132SOL     OW24000   1.202   1.520   2.802 -0.3958  0.3335 -0.0821
39132SOL    HW124001   1.179   1.597   2.751 -0.6632  0.2497 -0.0904
39132SOL    HW224002   1.296   1.529   2.819 -0.3773  0.5344 -0.2934
39133SOL     OW24003   9.275   7.111   6.907  0.2799  0.7817  0.3254
39133SOL    HW124004   9.206   7.047   6.893 -0.5287  1.8797 -1.0469
39133SOL    HW224005   9.279   7.159   6.824  0.5842  2.7228  1.4080
39134SOL     OW24006   9.392   7.067  11.530  0.3434 -0.2341  0.2474
39134SOL    HW124007   9.360   7.125  11.460 -0.7331 -1.2156 -0.1117
39134SOL    HW224008   9.402   6.981  11.487 -0.7690 -0.9629  1.3776
39135SOL     OW24009   4.085  10.544   4.358  0.2812 -0.3759  0.1175
39135SOL    HW124010   4.165  10.491   4.354  0.5289 -0.0777  0.8745
39135SOL    HW224011   4.016  10.482   4.380  0.7530 -0.2532  2.1526
39136SOL     OW24012   6.004   8.708   8.870 -0.4859 -0.0089  0.1092
39136SOL    HW124013   5.939   8.757   8.820 -0.6612 -0.4593 -0.1047
39136SOL    HW224014   5.974   8.714   8.961  0.2849  1.5301  0.3042
39137SOL     OW24015   7.306   1.673   2.299 -1.0385 -0.5503  0.2142
39137SOL    HW124016   7.322   1.726   2.377 -1.0928 -3.6011  2.4790
39137SOL    HW224017   7.390   1.671   2.253 -0.3556 -0.5036  1.4277
39138SOL     OW24018   6.421   9.236  12.345 -0.2195 -0.3862  0.3429
39138SOL    HW124019   6.418   9.325  12.309  1.5727  0.1764  1.4309
39138SOL    HW224020   6.344   9.231  12.403 -0.0139  0.6896  0.7354
39139SOL     OW24021  11.497   3.478   1.363 -0.4792  0.4403  0.2414
39139SOL    HW124022  11.448   3.496   1.443 -0.7494  1.8116 -0.2164
39139SOL    HW224023  11.587   3.466   1.392 -0.6536  0.4679  0.8009
39140SOL     OW24024   8.686  12.012   5.208 -0.5832  0.7986 -0.7836
39140SOL    HW124025   8.771  12.056   5.219 -0.6160  0.3996  1.5850
39140SOL    HW224026   8.709  11.922   5.187 -0.4611  1.0096 -1.5894
39141SOL     OW24027   4.059   5.000  10.337  0.2899  0.4102 -0.7079
39141SOL    HW124028   4.135   5.044  10.299  1.1783 -1.5695 -1.3916
39141SOL    HW224029   4.094   4.915  10.367 -1.0226  0.6659  1.7973
39142SOL     OW24030  11.183  11.422   7.568  0.3556 -0.4400 -1.1143
39142SOL    HW124031  11.265  11.421   7.617  0.6245  2.1102 -1.3459
39142SOL    HW224032  11.119  11.458   7.629 -0.1062 -0.4719 -1.5709
39143SOL     OW24033   2.907   5.359   3.821 -0.2189 -0.6596  0.2393
39143SOL    HW124034   2.832   5.409   3.788 -0.1124 -0.4171  0.3580
39143SOL    HW224035   2.955   5.332   3.742  1.4461  2.0628  0.1693
39144SOL     OW24036   6.280   9.970   2.624 -0.4048  0.3439  0.1048
39144SOL    HW124037   6.194  10.013   2.626  0.0416  1.2716  1.6341
39144SOL    HW224038   6.281   9.915   2.703 -0.1365 -0.8183 -0.6861
39145SOL     OW24039   4.859   0.502   9.131  0.3906  0.2602 -0.6757
39145SOL    HW124040   4.765   0.515   9.122  0.3435 -0.5535 -1.5908
39145SOL    HW224041   4.867   0.418   9.177  0.6622  0.3101 -0.6297
39146SOL     OW24042   7.930   9.613   8.597 -0.3983  0.2530 -0.1746
39146SOL    HW124043   7.930   9.530   8.551 -0.1812  1.0690 -1.7085
39146SOL    HW224044   7.837   9.637   8.604 -0.4043  1.8009 -3.4879
39147SOL     OW24045   6.041   1.147   7.308 -0.6750  0.3225 -0.0480
39147SOL    HW124046   6.039   1.132   7.214 -0.0733  2.0885 -0.3808
39147SOL    HW224047   6.119   1.100   7.338 -0.8509 -0.2221 -0.4292
39148SOL     OW24048   4.598   4.477   6.040 -0.2440  0.4118  0.5709
39148SOL    HW124049   4.674   4.456   5.986 -1.1950  0.6566 -0.9466
39148SOL    HW224050   4.595   4.409   6.107  0.4722 -0.4399 -0.2474
39149SOL     OW24051   4.058   8.457   8.449  0.3901  0.3843 -0.1613
39149SOL    HW124052   4.036   8.371   8.414 -0.0921  1.1091 -1.7380
39149SOL    HW224053   4.066   8.443   8.543 -4.4180 -0.4893  0.3827
39150SOL     OW24054   9.863   6.948   3.387  0.0550  0.3743 -0.4867
39150SOL    HW124055   9.919   6.885   3.341 -0.0352  0.6150 -0.9342
39150SOL    HW224056   9.777   6.938   3.346 -0.4451 -0.5368  0.7103
39151SOL     OW24057  10.376  11.854   4.669  0.0553 -0.1605  0.0326
39151SOL    HW124058  10.327  11.879   4.591  0.1612 -0.5603 -0.1656
39151SOL    HW224059  10.329  11.895   4.742 -0.8183 -0.8784 -0.1111
39152SOL     OW24060   7.009   1.486   9.855 -0.1223  0.5086  0.1637
39152SOL    HW124061   6.923   1.516   9.882 -0.5539  0.9920 -1.6074
39152SOL    HW224062   7.001   1.391   9.847 -0.6217  0.5928 -0.3876
39153SOL     OW24063   4.225   2.632   4.897 -0.3684 -0.0568 -0.9957
39153SOL    HW124064   4.253   2.541   4.890  2.0115  0.5510 -0.1901
39153SOL    HW224065   4.139   2.634   4.855 -0.8027 -2.7899 -0.4076
39154SOL     OW24066   6.570  10.657   4.173  0.3852  0.6894 -0.0946
39154SOL    HW124067   6.658  10.629   4.196  0.4172  0.4136 -0.5269
39154SOL    HW224068   6.573  10.752   4.176 -0.2257  0.7256  3.2684
39155SOL     OW24069   2.945   1.251  11.241 -0.1865 -0.0431  0.3568
39155SOL    HW124070   3.028   1.296  11.249 -0.8129  1.6107 -1.5937
39155SOL    HW224071   2.886   1.297  11.301 -0.4329  0.8045 -0.5075
39156SOL     OW24072   5.762  11.031   8.269 -0.2725  0.0299 -0.4662
39156SOL    HW124073   5.770  11.013   8.363 -0.9111  0.2720 -0.3577
39156SOL    HW224074   5.852  11.034   8.237 -0.0549 -0.2132  0.1097
39157SOL     OW24075   4.441   0.193   3.531  0.2331  0.2016  0.1534
39157SOL    HW124076   4.521   0.169   3.579 -0.0049  1.3009  1.1375
39157SOL    HW224077   4.458   0.281   3.498 -0.3665  0.2326 -0.0889
39158SOL     OW24078   4.659   1.950   9.001  0.0264  0.5995 -0.3231
39158SOL    HW124079   4.585   2.004   9.027  1.2382  1.5970  1.2344
39158SOL    HW224080   4.723   1.961   9.071  1.1963 -1.1681 -1.0272
39159SOL     OW24081   5.633   4.765  11.958 -0.1930 -0.1564 -0.1260
39159SOL    HW124082   5.711   4.815  11.936 -0.4563  0.1643 -0.3410
39159SOL    HW224083   5.665   4.676  11.973  0.2391  0.0142 -0.0162
39160SOL     OW24084   6.079   4.114  12.509 -0.2859  0.1938  0.0186
39160SOL    HW124085   5.995   4.139  12.547 -0.1818 -0.8011  0.9632
39160SOL    HW224086   6.081   4.018  12.516  0.4242  0.1058 -1.0721
39161SOL     OW24087  10.894  12.482   6.209  0.2277 -0.3397 -0.0004
39161SOL    HW124088  10.957  12.527   6.266 -1.3095  0.6833  0.9827
39161SOL    HW224089  10.907  12.389   6.227  0.4854 -0.0739  1.2842
39162SOL     OW24090  10.768  11.304   7.696 -0.0638 -0.0764 -0.3027
39162SOL    HW124091  10.765  11.387   7.649 -0.1527  0.4043  0.5299
39162SOL    HW224092  10.843  11.313   7.755  0.6840 -1.0688 -1.0661
39163SOL     OW24093   6.494   2.579  10.440  0.5349 -0.4631 -0.2159
39163SOL    HW124094   6.585   2.550  10.439  1.5998  2.4749 -0.1033
39163SOL    HW224095   6.477   2.601  10.532  0.0472 -0.1244 -0.3832
39164SOL     OW24096   2.443   9.465  10.497 -0.4262 -0.4719 -0.5966
39164SOL    HW124097   2.486   9.550  10.485 -0.9905 -0.2148 -0.8222
39164SOL    HW224098   2.488   9.426  10.572 -0.5098  0.2557 -0.1581
39165SOL     OW24099   0.382   7.013   6.888 -0.6212 -0.2063  0.2639
39165SOL    HW124100   0.431   7.089   6.857  0.2975 -1.1747 -0.7531
39165SOL    HW224101   0.303   7.012   6.833  1.4700 -2.5033 -3.0767
39166SOL     OW24102   3.453  10.122  11.363  0.3273  0.1355 -0.2924
39166SOL    HW124103   3.410  10.173  11.432  2.0814  1.1738  0.1080
39166SOL    HW224104   3.402  10.139  11.284 -1.2160 -0.3829  0.5632
39167SOL     OW24105   1.862   5.899   0.878  0.7400 -0.1563 -0.2190
39167SOL    HW124106   1.813   5.860   0.806 -1.0599  0.3235  0.6690
39167SOL    HW224107   1.911   5.827   0.916 -0.6526 -1.0644 -0.0881
39168SOL     OW24108   8.649   6.607   3.699 -0.6594  0.2990 -0.4650
39168SOL    HW124109   8.713   6.637   3.764 -0.6076 -0.4738 -0.1465
39168SOL    HW224110   8.622   6.521   3.731 -0.7473 -0.0246 -1.4025
39169SOL     OW24111   0.921   8.800  10.167  0.0204  0.8412 -0.1612
39169SOL    HW124112   0.874   8.791  10.250 -0.7174 -0.0508 -0.6551
39169SOL    HW224113   0.989   8.733  10.170 -0.8604 -0.1072 -0.8189
39170SOL     OW24114   5.834   9.077   6.131 -0.2847 -0.5984  0.6456
39170SOL    HW124115   5.739   9.065   6.134 -0.1469 -2.5504 -0.6166
39170SOL    HW224116   5.862   9.069   6.222 -1.2582 -0.8510  0.9344
39171SOL     OW24117  12.094   8.476   9.525 -0.5693 -0.7632  0.5378
39171SOL    HW124118  12.179   8.450   9.491 -0.1894  1.0539 -0.0098
39171SOL    HW224119  12.107   8.483   9.620 -0.2685 -1.0378  0.5183
39172SOL     OW24120   7.434   4.244   2.904  0.4960  0.0893  0.1707
39172SOL    HW124121   7.489   4.267   2.830 -1.3557  1.9947 -0.7367
39172SOL    HW224122   7.477   4.284   2.980  0.8740  0.7428 -0.3757
39173SOL     OW24123   2.583   4.747   9.062  0.3069  0.1726 -0.0495
39173SOL    HW124124   2.627   4.662   9.062 -0.1275 -0.0595  0.1327
39173SOL    HW224125   2.622   4.795   8.988  0.3420 -0.3036 -0.3449
39174SOL     OW24126  10.629   7.775   9.415  0.3967 -0.0188  0.0816
39174SOL    HW124127  10.683   7.854   9.413 -1.2521  1.1557 -0.6378
39174SOL    HW224128  10.627   7.745   9.324  0.0122 -0.1614  0.1350
39175SOL     OW24129   4.783   1.086   2.398 -1.0188  0.2070  0.0810
39175SOL    HW124130   4.706   1.080   2.341 -1.7058  0.5349  0.9521
39175SOL    HW224131   4.774   1.013   2.459 -0.6986  0.3150  0.2626
39176SOL     OW24132   4.642   8.565   7.862  0.5945 -0.4145 -0.0524
39176SOL    HW124133   4.554   8.603   7.857  0.2090 -0.9299  1.8136
39176SOL    HW224134   4.701   8.640   7.856  0.0498 -0.0714 -1.4177
39177SOL     OW24135  12.518   9.671   1.700 -0.3631  0.3807  0.3218
39177SOL    HW124136  12.531   9.652   1.793  2.2073  1.4374  0.2723
39177SOL    HW224137  12.556   9.596   1.654  1.7711  1.4818  0.1732
39178SOL     OW24138   8.649   8.744   2.055 -0.1048 -0.4993  0.6050
39178SOL    HW124139   8.625   8.777   2.142  1.7231  0.0129  0.9573
39178SOL    HW224140   8.741   8.718   2.064 -0.1817 -1.3858 -0.9152
39179SOL     OW24141   3.303   7.158   7.730  0.0399  0.4530 -0.3539
39179SOL    HW124142   3.356   7.077   7.731  1.1621  1.1593  0.9692
39179SOL    HW224143   3.216   7.129   7.706 -0.3693 -1.7250  3.0252
39180SOL     OW24144  10.863  10.306   1.049  0.1983 -0.0240 -0.5718
39180SOL    HW124145  10.910  10.235   1.004 -0.1850 -0.6603  0.0247
39180SOL    HW224146  10.864  10.281   1.141 -3.6341 -1.4950 -0.7405
39181SOL     OW24147   2.919   1.966   1.614 -0.0003  0.0841 -0.4038
39181SOL    HW124148   2.968   1.886   1.634  0.8531  0.6829 -0.0101
39181SOL    HW224149   2.987   2.033   1.603 -0.7409  1.0158  0.4542
39182SOL     OW24150  12.615   6.653   0.374 -0.2076 -0.4346 -0.7293
39182SOL    HW124151  12.616   6.569   0.328 -0.9297 -1.5291  1.1358
39182SOL    HW224152  12.522   6.678   0.375 -0.2873 -0.7185  0.5740
39183SOL     OW24153  12.147   5.241   2.469  0.3631 -0.1986 -0.7096
39183SOL    HW124154  12.098   5.323   2.464 -1.6194 -1.3467 -0.8284
39183SOL    HW224155  12.147   5.207   2.380 -0.1682 -1.0820 -0.3770
39184SOL     OW24156   1.473   4.214   3.516  0.0103 -0.1186 -0.2210
39184SOL    HW124157   1.423   4.140   3.551 -0.4882  0.0057 -0.6419
39184SOL    HW224158   1.406   4.271   3.479  0.4112  0.4426 -0.0822
39185SOL     OW24159   5.420   5.182   8.448  0.3380 -0.0393  0.1398
39185SOL    HW124160   5.436   5.095   8.485  1.3156  0.0824  0.0332
39185SOL    HW224161   5.492   5.236   8.482 -0.4543  0.8187  0.4972
39186SOL     OW24162   9.275   6.356  10.868  0.0976 -0.2509  0.4079
39186SOL    HW124163   9.252   6.449  10.865 -1.5997 -0.6557 -1.6668
39186SOL    HW224164   9.287   6.332  10.776 -1.2139 -2.4586  0.7519
39187SOL     OW24165   1.439  10.221   4.643  0.5783 -0.0458 -0.0947
39187SOL    HW124166   1.490  10.210   4.562  0.9282  0.4331  0.0550
39187SOL    HW224167   1.451  10.313   4.666 -1.2111  0.3632 -0.6223
39188SOL     OW24168   3.398   0.646   6.428 -0.2505  0.5820  0.1776
39188SOL    HW124169   3.329   0.706   6.455 -0.0588  1.5579 -1.3946
39188SOL    HW224170   3.477   0.700   6.425  0.2260 -0.1018  0.1904
39189SOL     OW24171  11.709   9.837   5.863 -0.1670 -0.2325  0.0768
39189SOL    HW124172  11.769   9.779   5.816 -0.3763 -1.7469  1.6115
39189SOL    HW224173  11.764   9.911   5.889  0.2722 -0.0515 -1.2638
39190SOL     OW24174  11.314   9.513   9.641 -0.2607  0.1327 -0.2918
39190SOL    HW124175  11.263   9.438   9.610 -2.4890  1.0215  1.0305
39190SOL    HW224176  11.396   9.474   9.673 -0.7113 -1.5268 -1.0595
39191SOL     OW24177   3.302   5.784   9.044  0.3041  0.4634 -0.2849
39191SOL    HW124178   3.271   5.712   8.989  1.8123  0.4568 -1.1830
39191SOL    HW224179   3.244   5.857   9.023 -0.2142 -0.0367 -0.5994
39192SOL     OW24180   9.633   0.824   6.998 -0.2376 -0.3056  0.3850
39192SOL    HW124181   9.692   0.896   7.022  0.0524 -0.2459 -0.4598
39192SOL    HW224182   9.690   0.758   6.959 -0.8924  0.6692 -2.5311
39193SOL     OW24183   4.001  11.982   7.380 -0.2365  0.7678  0.0030
39193SOL    HW124184   4.096  11.967   7.381 -0.2278  0.6672 -1.2580
39193SOL    HW224185   3.992  12.076   7.362 -0.3727  1.2550  2.3263
39194SOL     OW24186   9.916   1.016   4.144  0.3609 -0.2822 -0.3220
39194SOL    HW124187   9.833   0.968   4.146  0.2360 -0.0568 -0.1445
39194SOL    HW224188   9.894   1.104   4.173  1.1344 -0.9162  2.4448
39195SOL     OW24189   1.733  11.017  11.083  0.1305 -0.1562  0.4543
39195SOL    HW124190   1.712  10.929  11.115  1.9639 -0.8239 -0.0967
39195SOL    HW224191   1.707  11.016  10.990  1.2691 -0.5364  0.1277
39196SOL     OW24192   0.137   6.551  10.400  0.3810  0.5091  0.0170
39196SOL    HW124193   0.182   6.474  10.365 -0.5833 -0.6306  1.2115
39196SOL    HW224194   0.120   6.529  10.492 -0.8543  1.7090  0.1016
39197SOL     OW24195   8.215   4.717  12.254 -0.0602 -0.0444  0.2151
39197SOL    HW124196   8.189   4.714  12.162  0.6948  1.3556 -0.0783
39197SOL    HW224197   8.137   4.690  12.303 -1.0093  0.8045 -0.7718
39198SOL     OW24198   0.315   0.048   8.139  0.2151 -0.4682 -0.0425
39198SOL    HW124199   0.274  -0.038   8.137 -0.7449 -0.0012 -1.8011
39198SOL    HW224200   0.348   0.056   8.229 -1.0858 -1.9940  0.6207
39199SOL     OW24201   6.104  12.053   5.561  0.2569  0.6703 -0.7005
39199SOL    HW124202   6.153  11.981   5.603  1.0821  2.5463  1.7726
39199SOL    HW224203   6.172  12.103   5.515  0.0056  1.0492 -0.6545
39200SOL     OW24204   6.444   2.477   4.352 -0.1505 -0.5563  0.5735
39200SOL    HW124205   6.442   2.555   4.408  0.8000  0.2258 -0.4262
39200SOL    HW224206   6.514   2.423   4.389  1.4727  0.6095 -0.5936
39201SOL     OW24207  10.345  11.805   9.790  0.4576  0.2755 -0.2822
39201SOL    HW124208  10.412  11.864   9.826  1.3467 -2.3667  2.8700
39201SOL    HW224209  10.393  11.746   9.733  0.4651 -0.3327  0.3439
39202SOL     OW24210   2.488  12.536  11.848  0.1079  0.1668 -0.1381
39202SOL    HW124211   2.439  12.520  11.767 -2.1158  1.2921  0.8903
39202SOL    HW224212   2.552  12.604  11.824 -1.3568  1.4054 -0.7139
39203SOL     OW24213   3.953   8.513   4.631 -0.2750 -0.7591 -0.5927
39203SOL    HW124214   3.995   8.581   4.684 -2.6587 -0.3586  0.9546
39203SOL    HW224215   4.013   8.439   4.636  1.4585  0.5566 -0.6956
39204SOL     OW24216   9.580  11.111   9.162 -0.4680 -0.1964 -0.5947
39204SOL    HW124217   9.593  11.030   9.113  1.1664  0.0487 -0.6316
39204SOL    HW224218   9.605  11.181   9.102 -0.2355  0.2214 -0.0335
39205SOL     OW24219   4.126  11.939   9.393  0.3685 -0.1804 -0.2396
39205SOL    HW124220   4.041  11.937   9.349  0.4514 -1.9591 -0.3724
39205SOL    HW224221   4.189  11.955   9.323  0.3990 -1.9431 -0.6593
39206SOL     OW24222  12.113   4.388   3.332 -0.3447 -0.0100 -0.2246
39206SOL    HW124223  12.119   4.453   3.263  0.4138 -1.1514 -1.2761
39206SOL    HW224224  12.069   4.433   3.404 -1.4926  1.0951 -1.5658
39207SOL     OW24225   1.032  11.923   4.823 -0.2926  0.9244  0.0370
39207SOL    HW124226   1.007  12.000   4.773 -2.0331  0.0949 -0.4389
39207SOL    HW224227   1.088  11.873   4.764 -2.3278 -0.0451 -1.1447
39208SOL     OW24228  12.786   5.763   5.940  0.0907  0.3022  0.1206
39208SOL    HW124229  12.818   5.818   5.868  0.8570  0.2850  0.4407
39208SOL    HW224230  12.817   5.807   6.019 -1.7087  0.9529  0.5173
39209SOL     OW24231   0.835   4.574   8.912  0.2631  0.2115 -0.3591
39209SOL    HW124232   0.802   4.555   8.825 -0.9471  1.1511 -0.1377
39209SOL    HW224233   0.789   4.654   8.938 -1.6924 -1.5912  2.2929
39210SOL     OW24234   1.971   0.550   5.063  0.2858  0.4661  0.0907
39210SOL    HW124235   1.915   0.622   5.036  1.2155  1.2495  0.1891
39210SOL    HW224236   2.056   0.569   5.022  1.6811  1.5489  3.1713
39211SOL     OW24237   6.355   9.216   9.800 -0.1882 -0.2456 -0.3087
39211SOL    HW124238   6.405   9.285   9.757  0.3554 -0.8508 -0.6862
39211SOL    HW224239   6.418   9.176   9.861  0.0938 -1.6112 -1.4461
39212SOL     OW24240   9.439  11.093   2.508  0.1518 -0.1879  0.0556
39212SOL    HW124241   9.514  11.034   2.511  1.0050  0.8609 -0.3343
39212SOL    HW224242   9.423  11.116   2.599 -0.9635 -1.9471  0.3496
39213SOL     OW24243   7.749   8.672   8.046  1.0815  0.6330 -0.3337
39213SOL    HW124244   7.838   8.636   8.057  0.9421  0.3879  0.0048
39213SOL    HW224245   7.701   8.603   8.001  0.3783 -0.2983  1.7058
39214SOL     OW24246  12.274   3.266   3.603 -0.0720  0.1080  0.6395
39214SOL    HW124247  12.337   3.195   3.610  1.5026  1.2671 -0.7652
39214SOL    HW224248  12.190   3.223   3.585  1.2056 -1.3990 -2.3600
39215SOL     OW24249   5.588   2.301   5.846 -0.0273 -0.0383  0.3035
39215SOL    HW124250   5.648   2.319   5.918 -1.2935  0.0591  1.3530
39215SOL    HW224251   5.524   2.372   5.848  0.2071  0.2642 -1.2601
39216SOL     OW24252   5.435  10.523  11.656 -0.4431 -0.1053 -0.5152
39216SOL    HW124253   5.452  10.556  11.745  1.1953 -2.5915  0.1747
39216SOL    HW224254   5.339  10.526  11.648 -0.6677 -0.3453  1.5506
39217SOL     OW24255   6.814  11.253   6.256  0.0040  0.4652 -0.0822
39217SOL    HW124256   6.836  11.274   6.165  0.5908 -0.2330 -0.1096
39217SOL    HW224257   6.802  11.158   6.256 -1.8648  0.6651  0.1902
39218SOL     OW24258   3.882   9.769   6.879  0.3153  0.0621 -0.0710
39218SOL    HW124259   3.922   9.701   6.933  0.1882 -0.1155 -0.2019
39218SOL    HW224260   3.863   9.727   6.796 -1.0528 -0.1405  0.3191
39219SOL     OW24261   9.075   4.211   0.404 -0.1242 -0.0618  0.4013
39219SOL    HW124262   9.083   4.285   0.465  0.3666 -1.2709  1.8467
39219SOL    HW224263   9.099   4.134   0.455 -0.2679 -1.2076 -1.1733
39220SOL     OW24264   2.248   8.183  11.099 -0.1481  0.0466 -0.1800
39220SOL    HW124265   2.264   8.103  11.149  0.1956  0.6828  0.7509
39220SOL    HW224266   2.326   8.237  11.113 -0.5929  0.7619 -0.3784
39221SOL     OW24267   9.411   6.817   4.157 -0.4644  0.2766  0.0462
39221SOL    HW124268   9.339   6.836   4.097 -0.2799  2.2136  0.3685
39221SOL    HW224269   9.473   6.889   4.143 -0.1036  0.4117  2.0533
39222SOL     OW24270   6.562   7.076   4.122  0.3440  0.1633  0.4662
39222SOL    HW124271   6.501   7.108   4.056  0.2751  0.7890  0.8269
39222SOL    HW224272   6.541   6.983   4.131  2.1977 -0.6752 -2.4134
39223SOL     OW24273   5.348  10.028   9.272  0.0902 -0.2349  0.2777
39223SOL    HW124274   5.264   9.982   9.273  1.1249 -2.2342  0.6510
39223SOL    HW224275   5.324  10.120   9.267 -2.0953 -0.7884 -0.9076
39224SOL     OW24276  11.316  12.104   3.257 -0.1469 -0.2258  0.1443
39224SOL    HW124277  11.224  12.085   3.237 -0.9225  0.4998  2.5921
39224SOL    HW224278  11.329  12.066   3.344  0.7347  2.8045  1.4654
39225SOL     OW24279   7.048   7.947  10.241  0.0519 -0.8038  0.1247
39225SOL    HW124280   7.142   7.934  10.247  0.0068 -0.8434  0.7820
39225SOL    HW224281   7.032   8.029  10.287 -0.1919 -0.5889 -0.3296
39226SOL     OW24282   5.607   8.860   8.936  0.8162  0.5650 -0.2442
39226SOL    HW124283   5.634   8.945   8.903  0.1795  2.0545  2.7203
39226SOL    HW224284   5.520   8.875   8.974 -0.0686 -1.8386 -1.0850
39227SOL     OW24285   2.493   4.989   5.457 -0.0568 -0.0436 -0.1738
39227SOL    HW124286   2.458   4.949   5.536 -0.6207 -0.5182 -0.6510
39227SOL    HW224287   2.568   5.041   5.487 -0.8305  0.5572  0.8047
39228SOL     OW24288   2.688   7.124  11.719 -0.2057 -0.1960 -0.3584
39228SOL    HW124289   2.728   7.056  11.772  1.1023  0.3363 -0.6255
39228SOL    HW224290   2.669   7.195  11.781 -0.7245 -0.4422 -0.2343
39229SOL     OW24291   2.923   1.567   0.851 -0.0099 -0.0951 -0.1546
39229SOL    HW124292   2.928   1.649   0.900 -0.6674  1.6839 -2.8181
39229SOL    HW224293   2.976   1.582   0.773 -0.3711 -2.1079 -0.8499
39230SOL     OW24294   1.905   9.488   7.568 -0.0268 -0.4148 -0.1962
39230SOL    HW124295   1.916   9.582   7.581 -0.4149 -0.6178  2.2272
39230SOL    HW224296   1.991   9.456   7.543  1.2160  0.1090  2.9556
39231SOL     OW24297   2.168   9.623   9.667 -0.2598 -0.1143 -0.7925
39231SOL    HW124298   2.106   9.555   9.695  1.1714 -0.4075  1.9874
39231SOL    HW224299   2.254   9.584   9.682  0.6051  2.3001  0.9318
39232SOL     OW24300  12.775   3.631   4.199  0.0311 -0.3050 -0.0224
39232SOL    HW124301  12.699   3.616   4.255  0.1391  1.1426  0.5751
39232SOL    HW224302  12.742   3.682   4.126  0.0615 -1.4357 -0.8415
39233SOL     OW24303   1.941   9.003   3.251  0.5460 -0.1104 -0.0734
39233SOL    HW124304   1.861   8.986   3.301 -0.1145  1.4590 -0.5074
39233SOL    HW224305   2.012   8.986   3.312 -0.1847  0.1522  0.8761
39234SOL     OW24306  10.467   2.694   2.477 -0.1313 -0.4070  0.0307
39234SOL    HW124307  10.523   2.735   2.411  0.5037  1.4881  1.6347
39234SOL    HW224308  10.378   2.705   2.444  0.2148 -0.3707 -0.9322
39235SOL     OW24309   0.892   1.918  10.432 -0.0245 -0.3467 -0.0414
39235SOL    HW124310   0.848   1.838  10.402 -1.5588  0.4395  0.0305
39235SOL    HW224311   0.982   1.891  10.448 -1.0619 -2.7415  2.6338
39236SOL     OW24312   8.049   5.476   5.079  0.7093 -0.3152  0.5441
39236SOL    HW124313   7.965   5.510   5.048  1.0827 -1.1790 -1.5542
39236SOL    HW224314   8.114   5.539   5.048  1.1083 -1.2872 -0.6857
39237SOL     OW24315   0.461   5.160   0.954  0.0609  0.1837 -0.7435
39237SOL    HW124316   0.517   5.204   1.018  0.3713  0.7981 -1.4191
39237SOL    HW224317   0.489   5.069   0.956  1.1096  0.4900 -1.0820
39238SOL     OW24318   3.076   4.748   5.080 -0.3999  0.0347  0.1290
39238SOL    HW124319   3.141   4.687   5.115  0.8044  1.5269  0.6129
39238SOL    HW224320   2.996   4.730   5.130  0.3277 -0.2026  1.2263
39239SOL     OW24321   2.161   1.573   2.069  0.1417 -0.8362  0.0268
39239SOL    HW124322   2.182   1.588   2.162 -0.1897 -0.8131  0.0976
39239SOL    HW224323   2.242   1.539   2.032  0.6098  0.1597  0.0943
39240SOL     OW24324   2.666   0.464   9.343  0.5840  0.0028  0.3371
39240SOL    HW124325   2.573   0.483   9.329  0.7360  0.2108 -0.4414
39240SOL    HW224326   2.691   0.521   9.416 -0.5622 -2.0792  2.5181
39241SOL     OW24327   0.665   7.380   8.446 -0.3055  0.0831  0.1742
39241SOL    HW124328   0.730   7.361   8.514  0.6860 -2.5179 -1.3390
39241SOL    HW224329   0.603   7.308   8.453  0.3185 -0.7651 -2.1739
39242SOL     OW24330   9.042   0.647  12.676  0.2215 -0.4050  0.5219
39242SOL    HW124331   9.106   0.578  12.699  0.3763  0.4134  2.8301
39242SOL    HW224332   9.092   0.708  12.622  0.8641 -0.7643  0.6887
39243SOL     OW24333   4.658   2.910   9.603 -0.1537 -0.4637 -0.3682
39243SOL    HW124334   4.654   2.949   9.515  1.6167  0.2597 -0.1867
39243SOL    HW224335   4.728   2.845   9.597  0.6771  0.2933  0.7318
39244SOL     OW24336   9.661   1.163  11.815  0.0812 -0.3331  0.0136
39244SOL    HW124337   9.601   1.136  11.746 -0.4051 -0.0503  0.3170
39244SOL    HW224338   9.705   1.082  11.842  2.7631 -0.0258 -2.8776
39245SOL     OW24339   8.561   2.689   0.985 -0.1531  0.5052 -0.2108
39245SOL    HW124340   8.569   2.771   1.034 -1.1896  0.0297  0.8118
39245SOL    HW224341   8.468   2.668   0.990 -0.6522  1.3196 -3.9002
39246SOL     OW24342   1.629   2.328  10.028 -0.1187  0.5852 -0.6734
39246SOL    HW124343   1.675   2.381  10.093  0.3427  0.1424 -0.6340
39246SOL    HW224344   1.615   2.388   9.954  2.1638  0.2862 -1.4468
39247SOL     OW24345   0.827   5.080  11.906  0.2809  0.0254  0.2140
39247SOL    HW124346   0.788   5.164  11.882  1.4507  0.1338 -1.4943
39247SOL    HW224347   0.893   5.102  11.971 -0.0592  0.2857  0.4777
39248SOL     OW24348   2.822   7.387   0.487 -0.7383  0.4095 -0.4482
39248SOL    HW124349   2.893   7.380   0.552 -1.8930 -1.0958  0.7317
39248SOL    HW224350   2.789   7.476   0.497 -0.8834  0.2165  1.0567
39249SOL     OW24351  10.172   9.530   5.020  0.4021  0.2045  0.0090
39249SOL    HW124352  10.125   9.570   5.094 -0.2837 -0.1717 -0.2164
39249SOL    HW224353  10.194   9.604   4.963 -2.9884  0.1626 -1.6317
39250SOL     OW24354   2.417   5.726  11.882  0.2498  0.2479  0.1792
39250SOL    HW124355   2.391   5.635  11.898 -3.9038  1.2407  0.0184
39250SOL    HW224356   2.477   5.721  11.807  1.8289 -2.4257  1.4584
39251SOL     OW24357   9.342   1.243   3.819  0.0212 -0.2049 -0.1774
39251SOL    HW124358   9.308   1.204   3.738 -0.3334  0.2839 -0.2662
39251SOL    HW224359   9.374   1.329   3.793  5.0493 -1.9384 -0.9824
39252SOL     OW24360  11.247   3.486  11.181 -0.9673 -0.5337  0.0642
39252SOL    HW124361  11.294   3.406  11.157 -0.0921  0.2067 -0.7507
39252SOL    HW224362  11.182   3.497  11.112 -0.6391 -0.1816 -0.1905
39253SOL     OW24363   7.694   4.934   1.067 -0.2610 -0.2132 -0.7904
39253SOL    HW124364   7.703   4.839   1.061  0.5229 -0.2087  0.1257
39253SOL    HW224365   7.784   4.967   1.066 -0.5290  0.5270 -1.1525
39254SOL     OW24366   0.011   3.463  11.221 -0.2380  0.3787  0.6162
39254SOL    HW124367   0.018   3.388  11.162  0.7238  0.3653  0.7369
39254SOL    HW224368   0.100   3.478  11.252 -0.4424  1.4756  0.7173
39255SOL     OW24369   7.753   1.761   4.909  0.2622  0.0329  0.7952
39255SOL    HW124370   7.732   1.854   4.908 -0.2640 -0.0764  1.0880
39255SOL    HW224371   7.732   1.733   4.998 -1.4148 -0.7612  0.1881
39256SOL     OW24372  12.286  12.583   5.106 -0.2570 -0.7019  0.8182
39256SOL    HW124373  12.331  12.542   5.180  1.8974  0.3459  0.1501
39256SOL    HW224374  12.292  12.677   5.123 -1.2127 -0.5019  0.1261
39257SOL     OW24375   4.292  11.016   6.010 -0.3117  0.2517 -0.1213
39257SOL    HW124376   4.276  11.064   5.929 -1.8792  0.4691  0.2745
39257SOL    HW224377   4.293  11.084   6.078 -2.4274 -0.1785  0.4277
39258SOL     OW24378  11.761   0.857  12.398 -0.1683  0.0271  0.4422
39258SOL    HW124379  11.801   0.804  12.329  1.2079  0.1657  1.1071
39258SOL    HW224380  11.791   0.947  12.380 -0.5469  0.2068  0.6902
39259SOL     OW24381   8.030   6.791   4.440  0.2047 -0.2440 -0.2301
39259SOL    HW124382   8.119   6.823   4.457  0.8718 -1.6583 -0.9541
39259SOL    HW224383   7.985   6.866   4.401  1.2689  0.2786 -0.4910
39260SOL     OW24384   6.989   1.167   2.349  0.3737 -0.1828 -0.6767
39260SOL    HW124385   7.007   1.073   2.357  3.3913  0.4420  1.4122
39260SOL    HW224386   7.072   1.204   2.319 -0.2721  2.0012  0.0952
39261SOL     OW24387   2.388   3.084   3.811  0.1990 -0.1261  0.5169
39261SOL    HW124388   2.449   3.021   3.772  0.6348  0.2840  0.5333
39261SOL    HW224389   2.326   3.029   3.860 -0.0089 -0.6080 -0.2684
39262SOL     OW24390   3.388   6.848   0.806 -0.1778 -0.1037 -0.1530
39262SOL    HW124391   3.470   6.856   0.854  0.2080  1.6105 -1.0542
39262SOL    HW224392   3.326   6.814   0.872  0.8662  0.0596  0.9516
39263SOL     OW24393   9.203   8.164   0.436 -0.1255 -0.3477  0.0228
39263SOL    HW124394   9.215   8.069   0.441  2.2925 -0.0396  3.0586
39263SOL    HW224395   9.286   8.197   0.401 -0.0563  0.7568  1.1565
39264SOL     OW24396   7.612   6.043  10.146  0.0034 -0.0695  0.4187
39264SOL    HW124397   7.669   6.106  10.191  0.6061  0.0139 -0.4328
39264SOL    HW224398   7.672   5.991  10.091 -0.6029 -0.7543  0.3811
39265SOL     OW24399  12.414   2.392   3.439  0.5458 -0.3778 -0.2088
39265SOL    HW124400  12.470   2.334   3.491  1.3412 -0.2519 -0.8945
39265SOL    HW224401  12.420   2.358   3.350  0.6380  0.4628 -0.5335
39266SOL     OW24402  11.265   7.713   9.149 -0.3245 -0.4291  0.1011
39266SOL    HW124403  11.215   7.761   9.215  3.4204  1.7462  1.6194
39266SOL    HW224404  11.260   7.767   9.071 -1.1043 -0.7373 -0.0715
39267SOL     OW24405   4.471   2.475   7.487 -0.0989  0.0655 -0.7315
39267SOL    HW124406   4.395   2.532   7.474 -0.2477  0.1714  0.4828
39267SOL    HW224407   4.455   2.432   7.571  0.5857 -0.8779 -1.0601
39268SOL     OW24408   7.925   8.359  11.452  0.6519 -0.3298 -0.3952
39268SOL    HW124409   7.936   8.286  11.391 -1.1233 -1.6605  0.7757
39268SOL    HW224410   7.859   8.415  11.411  0.2498 -0.6595 -0.2059
39269SOL     OW24411   5.545   8.653   3.302  0.5428  0.3656  1.0058
39269SOL    HW124412   5.627   8.651   3.351  0.7642  0.8162  0.6631
39269SOL    HW224413   5.478   8.665   3.369  0.7261 -0.2777  1.3124
39270SOL     OW24414   2.451   1.154  10.678  0.4451 -0.0255 -0.0020
39270SOL    HW124415   2.475   1.246  10.688  0.7176 -0.3520  3.7951
39270SOL    HW224416   2.387   1.153  10.607  2.6273  2.5774 -2.2220
39271SOL     OW24417  11.623   8.245   7.859 -0.0865  0.1430  0.3677
39271SOL    HW124418  11.582   8.298   7.928 -3.1024 -1.4076 -0.0533
39271SOL    HW224419  11.652   8.166   7.904 -1.8215 -0.7560 -0.0260
39272SOL     OW24420   0.421   4.119   1.834 -0.2642 -0.7416 -0.0120
39272SOL    HW124421   0.439   4.110   1.928 -2.4249 -2.6872  0.3049
39272SOL    HW224422   0.371   4.200   1.826  2.0577  0.8158  0.0614
39273SOL     OW24423  12.666   8.685  11.561 -0.4055 -0.4275  0.0308
39273SOL    HW124424  12.604   8.689  11.634 -0.4130 -2.3784  0.1904
39273SOL    HW224425  12.623   8.628  11.497  0.2723  0.0202 -0.8354
39274SOL     OW24426  10.549   9.440   4.449 -0.0155  0.4891  0.1589
39274SOL    HW124427  10.463   9.434   4.490  0.2628  0.2212  0.6999
39274SOL    HW224428  10.575   9.350   4.432 -0.5850  0.6046 -1.5946
39275SOL     OW24429  12.754   2.468  12.514 -0.4854  0.2436  0.0945
39275SOL    HW124430  12.739   2.533  12.582 -1.8399  1.0589 -0.9291
39275SOL    HW224431  12.671   2.464  12.466  0.6545  0.2979 -2.0020
39276SOL     OW24432   4.299   6.787   6.683  0.3005 -0.5699  0.0991
39276SOL    HW124433   4.204   6.784   6.669  0.5216  0.1579 -1.9606
39276SOL    HW224434   4.322   6.879   6.673  1.3231 -0.8538 -0.3015
39277SOL     OW24435   9.554  12.663   2.760  0.0828 -0.0192  0.5655
39277SOL    HW124436   9.634  12.612   2.766 -0.8527 -1.5389  0.5986
39277SOL    HW224437   9.581  12.753   2.778  1.3586 -0.8515  3.2646
39278SOL     OW24438   6.901   3.944  10.060 -0.1539  0.2597  0.7949
39278SOL    HW124439   6.984   3.921  10.019  0.1684  2.5051  0.0427
39278SOL    HW224440   6.838   3.944   9.987 -0.9596 -1.8215  1.4230
39279SOL     OW24441   1.677   6.404  10.311  0.2316  0.0193  0.2085
39279SOL    HW124442   1.677   6.492  10.273 -0.0778  0.2533  0.7314
39279SOL    HW224443   1.766   6.371  10.297  0.0581  0.0127 -0.8960
39280SOL     OW24444   2.241  12.493   2.464  0.1834 -0.5677 -0.9003
39280SOL    HW124445   2.243  12.540   2.547 -1.1458  0.2937 -1.3238
39280SOL    HW224446   2.314  12.431   2.469  0.5625 -0.0262  0.5997
39281SOL     OW24447   0.844   6.066   9.333  0.4545  0.2000 -0.0604
39281SOL    HW124448   0.887   6.053   9.418  0.2532 -3.0347 -0.3532
39281SOL    HW224449   0.910   6.111   9.281  1.8907 -0.7736  0.8250
39282SOL     OW24450   2.253  10.174  12.591  0.0432 -0.4499 -0.7057
39282SOL    HW124451   2.207  10.143  12.670  0.6552 -2.6330 -1.1282
39282SOL    HW224452   2.185  10.219  12.540 -0.6969 -0.2402  0.4141
39283SOL     OW24453  11.108   2.401   1.279 -0.3965 -0.5785 -0.6674
39283SOL    HW124454  11.045   2.376   1.347 -0.6124  1.5139 -0.0296
39283SOL    HW224455  11.061   2.466   1.227  1.0527  0.6676 -0.4685
39284SOL     OW24456   4.992   0.281   9.616 -0.3462 -0.3295 -0.1008
39284SOL    HW124457   4.983   0.190   9.590 -1.5757 -0.6045  1.1850
39284SOL    HW224458   4.903   0.317   9.610  0.4061  1.3481 -2.4740
39285SOL     OW24459   2.955   7.837  12.340 -0.2572  0.3600 -0.0833
39285SOL    HW124460   2.905   7.912  12.374 -0.3998  0.1465  0.1821
39285SOL    HW224461   3.007   7.874  12.269  0.3519  0.8941  0.6277
39286SOL     OW24462  12.482   7.915   2.613 -0.0354  0.2739  0.7502
39286SOL    HW124463  12.498   7.902   2.520  1.9050  1.7677  0.8055
39286SOL    HW224464  12.389   7.935   2.619 -0.4429 -1.0113 -0.6911
39287SOL     OW24465   5.707   8.720   6.493  0.2950 -0.4851 -0.3947
39287SOL    HW124466   5.691   8.680   6.408  0.4622 -0.7376 -0.3117
39287SOL    HW224467   5.667   8.806   6.488 -1.0203 -1.0622 -0.2169
39288SOL     OW24468   3.448   5.189   8.748 -0.1618  0.0909 -0.1671
39288SOL    HW124469   3.465   5.122   8.682  0.6782  0.2058 -0.0786
39288SOL    HW224470   3.370   5.234   8.717 -0.4731 -0.6311 -0.4613
39289SOL     OW24471   2.815   6.440   9.247  0.3790 -0.2944 -0.2445
39289SOL    HW124472   2.803   6.345   9.245 -0.4872 -0.1852 -0.6006
39289SOL    HW224473   2.842   6.459   9.337 -1.2318 -0.6935  0.3620
39290SOL     OW24474   5.106   7.922   0.624 -0.3183 -0.1749 -0.0019
39290SOL    HW124475   5.184   7.957   0.667 -1.2126  0.8286  0.8537
39290SOL    HW224476   5.087   7.841   0.672 -0.8679  0.5454  1.0455
39291SOL     OW24477   6.800  11.884   1.164  0.5485  0.6572 -0.7918
39291SOL    HW124478   6.839  11.968   1.188 -0.4514  1.9911 -3.4121
39291SOL    HW224479   6.742  11.905   1.091 -2.2278 -1.8378  0.5152
39292SOL     OW24480   3.001   7.876   8.625  0.0760  0.1601 -0.2206
39292SOL    HW124481   3.087   7.903   8.658 -0.0110  0.3889 -0.1822
39292SOL    HW224482   3.001   7.780   8.634 -0.3121  0.2830  1.3671
39293SOL     OW24483   3.332  11.789  11.928  0.2590  0.2618  1.1015
39293SOL    HW124484   3.343  11.881  11.902 -0.0809  0.4906  1.7303
39293SOL    HW224485   3.286  11.794  12.012  0.8311 -0.4731  1.4609
39294SOL     OW24486   3.857   7.109  10.844  0.2440 -0.1947  0.3974
39294SOL    HW124487   3.935   7.124  10.792 -0.4061  1.7084 -0.1298
39294SOL    HW224488   3.806   7.045  10.795  0.9179 -0.5346  0.1390
39295SOL     OW24489   3.487   2.773   8.052  0.3001 -0.0822 -0.3392
39295SOL    HW124490   3.462   2.812   8.136  1.1455  1.5100 -0.7868
39295SOL    HW224491   3.415   2.795   7.993 -0.1667 -0.9687 -0.1186
39296SOL     OW24492   7.249   2.828   9.137  0.6354 -0.3724 -0.0898
39296SOL    HW124493   7.242   2.738   9.169  1.0984 -0.4703 -0.2459
39296SOL    HW224494   7.240   2.820   9.042  1.4583 -0.3569 -0.1795
39297SOL     OW24495   4.957   9.364  11.182 -0.1855  0.1091 -0.0126
39297SOL    HW124496   5.042   9.400  11.207 -0.0073 -0.2198 -0.1308
39297SOL    HW224497   4.974   9.320  11.099 -0.3969 -0.2451  0.1285
39298SOL     OW24498   7.529   5.057   0.077 -0.2211 -0.2705  0.4892
39298SOL    HW124499   7.547   5.057   0.171 -0.6490 -0.4752  0.5704
39298SOL    HW224500   7.596   5.115   0.040  2.8615 -3.5659  0.3594
39299SOL     OW24501   7.674  12.465   1.471  0.2070 -0.0001 -0.6838
39299SOL    HW124502   7.604  12.489   1.531  0.4103 -0.2922 -0.3211
39299SOL    HW224503   7.632  12.407   1.407 -0.4144  1.7136 -1.9041
39300SOL     OW24504  12.260   9.815   8.776 -0.0152  0.1082  0.4575
39300SOL    HW124505  12.183   9.766   8.745  0.4047  0.6602 -1.6078
39300SOL    HW224506  12.301   9.847   8.696  0.8554  2.1349  1.6518
39301SOL     OW24507   2.654   7.055  12.450 -0.6420 -0.0673  0.2158
39301SOL    HW124508   2.601   6.996  12.397  0.8896 -1.4470  0.1483
39301SOL    HW224509   2.722   7.087  12.391 -0.5154  0.5359  0.6653
39302SOL     OW24510   2.010   7.321   2.462  0.4888  0.0802 -0.2413
39302SOL    HW124511   1.970   7.395   2.416  0.0024 -0.1537 -0.2056
39302SOL    HW224512   2.036   7.356   2.547 -1.5877 -0.2497  0.5871
39303SOL     OW24513   1.916   1.701   7.253 -1.1161  0.0260 -0.0689
39303SOL    HW124514   1.870   1.699   7.169 -1.7099 -0.2662  0.2521
39303SOL    HW224515   1.877   1.629   7.302  0.6697 -1.1502 -0.2844
39304SOL     OW24516  12.546   3.081   1.042  0.7499 -0.0725 -0.0976
39304SOL    HW124517  12.547   3.055   0.950 -0.4865  1.6236 -0.6454
39304SOL    HW224518  12.465   3.044   1.077  0.1042  1.0808 -0.3070
39305SOL     OW24519  10.277   7.364   8.142  0.1618  0.1384 -0.1876
39305SOL    HW124520  10.300   7.290   8.086  2.4060  1.0409 -0.5443
39305SOL    HW224521  10.188   7.388   8.115  0.0454 -1.3282 -1.2323
39306SOL     OW24522   4.344   5.505   4.639 -0.2130  0.4734  0.1773
39306SOL    HW124523   4.365   5.598   4.630  1.0662  0.1955  0.1375
39306SOL    HW224524   4.299   5.498   4.723 -1.0088  1.2306 -0.1725
39307SOL     OW24525   3.944   1.362  11.874 -0.8306 -0.6922 -0.1106
39307SOL    HW124526   3.889   1.360  11.795  0.5803 -0.2646 -1.1353
39307SOL    HW224527   4.024   1.317  11.848  0.9043  2.0849  0.0947
39308SOL     OW24528   5.875   9.334   7.280  0.2621 -0.4706  0.3447
39308SOL    HW124529   5.904   9.425   7.283 -0.8520 -0.0095 -1.5106
39308SOL    HW224530   5.912   9.294   7.359  0.4528  1.6625  1.3751
39309SOL     OW24531   7.948   7.161  12.127 -0.4285  0.5618  0.0684
39309SOL    HW124532   8.011   7.227  12.156 -0.5918  0.9209 -0.3791
39309SOL    HW224533   7.883   7.210  12.076 -1.9571  0.4617  1.8038
39310SOL     OW24534   4.615   4.963   0.595  0.2528  0.6568  0.1057
39310SOL    HW124535   4.534   4.941   0.549  0.2203 -0.0515  0.4835
39310SOL    HW224536   4.628   5.056   0.578  0.2454  0.4151 -1.3356
39311SOL     OW24537   8.094   9.609  11.126  0.3329  0.1560 -0.0617
39311SOL    HW124538   8.093   9.602  11.222 -0.9259  0.4663 -0.0312
39311SOL    HW224539   8.031   9.678  11.107  0.2780 -0.1819 -1.1386
39312SOL     OW24540   7.449   5.837   8.154  0.7686  0.4509  0.2255
39312SOL    HW124541   7.456   5.886   8.072 -0.9110 -1.8415 -1.4264
39312SOL    HW224542   7.372   5.875   8.198 -0.9589 -0.9753 -1.3744
39313SOL     OW24543   8.071  10.398   6.980 -0.0058  0.2471  0.3948
39313SOL    HW124544   7.992  10.377   7.030  0.3566 -3.3178 -0.2843
39313SOL    HW224545   8.141  10.350   7.025  1.4967  1.9334 -0.0226
39314SOL     OW24546  10.458   6.192  10.884 -0.2834 -0.2180 -0.1022
39314SOL    HW124547  10.425   6.109  10.918 -1.4164 -0.1717 -1.0026
39314SOL    HW224548  10.475   6.245  10.962 -0.0658 -1.1034  0.4616
39315SOL     OW24549   6.831   0.366   7.547 -0.1765 -0.2519 -0.6800
39315SOL    HW124550   6.913   0.380   7.595  0.4400 -1.1214 -1.4380
39315SOL    HW224551   6.801   0.279   7.577 -0.3071 -0.3624 -1.1230
39316SOL     OW24552   0.769   4.173   4.894 -0.5352  0.3452 -0.1609
39316SOL    HW124553   0.747   4.266   4.886 -3.3417 -0.2852 -0.7497
39316SOL    HW224554   0.862   4.169   4.871 -0.3548  2.9689 -0.2251
39317SOL     OW24555   3.881   6.539   1.134  0.0112  0.1735  0.5384
39317SOL    HW124556   3.940   6.464   1.135 -0.8297 -0.5543 -0.8947
39317SOL    HW224557   3.807   6.512   1.187  0.7057  0.8968  1.9217
39318SOL     OW24558   5.516   9.832   6.034 -0.5781 -0.3400  0.7574
39318SOL    HW124559   5.583   9.806   5.972 -1.4289 -2.4855  0.6538
39318SOL    HW224560   5.517   9.928   6.032  1.7179 -0.3200 -0.0014
39319SOL     OW24561  11.746   1.106   8.080 -0.0683 -0.1934  0.1044
39319SOL    HW124562  11.678   1.041   8.063 -1.6035  0.8496  1.8475
39319SOL    HW224563  11.701   1.190   8.076  1.9400  0.8904 -2.4891
39320SOL     OW24564   6.663   1.230   5.478  0.3447  0.3856 -0.4057
39320SOL    HW124565   6.695   1.320   5.485  0.3505  0.3778 -0.3366
39320SOL    HW224566   6.605   1.232   5.401 -0.1089  0.5848 -0.0648
39321SOL     OW24567   8.707   9.760   2.253  0.3495  0.2330 -0.5572
39321SOL    HW124568   8.745   9.848   2.252 -1.3821  1.0248 -0.1954
39321SOL    HW224569   8.652   9.758   2.332  1.6324 -1.7675  0.3756
39322SOL     OW24570   7.008   8.183   4.781 -0.1239  0.5933 -0.5239
39322SOL    HW124571   6.919   8.151   4.796  0.9615 -1.7208  1.9256
39322SOL    HW224572   7.031   8.231   4.860  1.1769  0.1090 -0.5694
39323SOL     OW24573   3.026  11.877  12.026  0.1856  0.0967 -0.0740
39323SOL    HW124574   2.953  11.827  11.988  1.0052 -1.0330 -0.2132
39323SOL    HW224575   3.028  11.851  12.118  1.0108 -0.6316 -0.2891
39324SOL     OW24576   9.381   8.066   8.100  0.0431  0.1264 -0.0941
39324SOL    HW124577   9.359   8.097   8.012 -0.0369  2.2844  0.6524
39324SOL    HW224578   9.305   8.015   8.127 -1.6576  2.6757  0.1978
39325SOL     OW24579   9.216   0.415   0.539  0.4277 -0.3402 -0.2257
39325SOL    HW124580   9.302   0.428   0.580 -0.0626  1.5014  0.3174
39325SOL    HW224581   9.225   0.456   0.452 -0.0614  0.4065  0.0670
39326SOL     OW24582  10.774  12.721  12.753  0.1191  0.5021  0.2297
39326SOL    HW124583  10.714  12.689  12.686  0.9402 -0.9971  0.1591
39326SOL    HW224584  10.861  12.711  12.714  0.7565 -1.9755  2.0353
39327SOL     OW24585   8.925   2.584  11.680 -0.2582  0.1563  0.4147
39327SOL    HW124586   8.855   2.549  11.624  1.1235 -1.1490 -0.5983
39327SOL    HW224587   8.931   2.522  11.752 -1.2190  1.1734  1.3968
39328SOL     OW24588   8.919   0.685   6.416 -0.2420 -0.1854 -0.4838
39328SOL    HW124589   8.996   0.698   6.471 -0.5686  0.0792 -0.0805
39328SOL    HW224590   8.891   0.595   6.435 -0.0707 -0.2584 -0.5796
39329SOL     OW24591   1.276   5.378   4.274  0.1933  0.6828  0.3920
39329SOL    HW124592   1.281   5.294   4.228 -1.2626  1.0295 -0.4950
39329SOL    HW224593   1.186   5.408   4.257  0.1032  1.5532  2.2294
39330SOL     OW24594  10.895  12.766   1.251 -0.3366  0.1004 -0.0680
39330SOL    HW124595  10.862  12.681   1.278  1.6792 -0.6030  0.3279
39330SOL    HW224596  10.886  12.822   1.328 -0.8210 -0.0144 -0.0434
39331SOL     OW24597  12.287   0.777   9.051 -0.2038  0.2130  0.0924
39331SOL    HW124598  12.284   0.821   8.966  2.7649  0.9114  0.2462
39331SOL    HW224599  12.347   0.703   9.039 -0.3630 -0.1631  1.3764
39332SOL     OW24600  10.965  10.063   0.963  0.3034 -0.5518  0.0318
39332SOL    HW124601  11.027  10.021   1.021  0.5589 -0.0677  0.1116
39332SOL    HW224602  11.005  10.055   0.876  0.7960  0.3386  0.1698
39333SOL     OW24603   4.723   7.253  10.607 -0.0787 -0.2684  0.5626
39333SOL    HW124604   4.712   7.212  10.521  1.0447  2.0740 -0.8014
39333SOL    HW224605   4.637   7.245  10.649 -0.2395 -2.7776 -0.1042
39334SOL     OW24606  11.692   8.247   3.378  0.3488  0.0559  0.3156
39334SOL    HW124607  11.747   8.182   3.336  1.9976  0.9871  0.9316
39334SOL    HW224608  11.640   8.198   3.442  0.9461 -0.7621  0.1793
39335SOL     OW24609   0.451   0.928   5.096  0.3053 -0.8134 -0.2013
39335SOL    HW124610   0.453   1.020   5.068  0.5007 -0.0853  2.0530
39335SOL    HW224611   0.382   0.924   5.161 -0.0762 -2.4272 -0.6600
39336SOL     OW24612   1.392  10.070   7.540  0.7597 -0.0044 -0.0295
39336SOL    HW124613   1.476  10.045   7.579  1.2721  0.7434 -0.6177
39336SOL    HW224614   1.359   9.990   7.501  0.5385 -0.6241  1.3532
39337SOL     OW24615  11.449   7.106   7.649  0.1867 -0.0407  0.2583
39337SOL    HW124616  11.468   7.042   7.580 -1.2382 -0.5502  0.3116
39337SOL    HW224617  11.402   7.176   7.604 -1.5947 -0.8129  0.8314
39338SOL     OW24618   1.641   5.774  11.677  0.2684  0.9689  0.3956
39338SOL    HW124619   1.580   5.734  11.615  2.5663 -0.7140 -0.9496
39338SOL    HW224620   1.708   5.814  11.622  1.3643  1.1491  1.8069
39339SOL     OW24621   7.767  11.588  10.080  0.6054  0.0943 -0.6142
39339SOL    HW124622   7.792  11.656  10.142  0.0609 -0.9414  0.7988
39339SOL    HW224623   7.816  11.511  10.109  1.0748 -0.1858 -2.0746
39340SOL     OW24624   3.242   7.510   6.652 -0.1894 -0.2963  0.1197
39340SOL    HW124625   3.216   7.458   6.728 -1.5233  1.2917  0.8206
39340SOL    HW224626   3.160   7.534   6.611  0.3928  0.9768 -0.3520
39341SOL     OW24627  12.628   8.194   1.655  0.3486 -0.2085  0.1077
39341SOL    HW124628  12.534   8.209   1.667  0.3688  0.5320 -0.5727
39341SOL    HW224629  12.646   8.227   1.567  1.3586  0.1744  0.4531
39342SOL     OW24630  12.455   8.440   5.957 -0.1163  0.0790 -0.0152
39342SOL    HW124631  12.444   8.527   5.918 -0.1052  0.1543  0.1470
39342SOL    HW224632  12.543   8.441   5.995 -0.4529  0.3253  0.7930
39343SOL     OW24633   2.072   6.436   7.485 -0.6522 -0.0814  0.0463
39343SOL    HW124634   2.159   6.462   7.455 -1.0753 -0.0149 -1.1677
39343SOL    HW224635   2.064   6.344   7.459 -0.6452 -0.3307  0.8855
39344SOL     OW24636   2.663   0.297  10.428  0.1970 -0.3159 -1.0213
39344SOL    HW124637   2.610   0.314  10.350 -2.7402 -0.2869  0.8039
39344SOL    HW224638   2.751   0.283  10.395 -0.4206  2.0089 -4.1293
39345SOL     OW24639   3.528   3.790   1.831 -0.7506  0.1573 -0.0816
39345SOL    HW124640   3.588   3.761   1.900  0.5437  0.2691 -1.1342
39345SOL    HW224641   3.544   3.731   1.758 -1.5471  0.5265 -0.5701
39346SOL     OW24642   9.300  10.112   8.674  0.1904  0.1971 -0.2857
39346SOL    HW124643   9.361  10.185   8.668  0.4067  0.1023  0.6580
39346SOL    HW224644   9.214  10.152   8.666  0.3498  0.3605 -1.3587
39347SOL     OW24645   7.645  11.423   1.995 -0.4863 -0.2374  0.4061
39347SOL    HW124646   7.694  11.453   1.919  0.6728 -1.9809  0.4001
39347SOL    HW224647   7.708  11.428   2.067  0.4100 -4.0059  0.1041
39348SOL     OW24648   4.891   7.352  10.810 -0.1890  0.2743 -0.0072
39348SOL    HW124649   4.832   7.324  10.741 -1.4934  1.3677  0.6137
39348SOL    HW224650   4.966   7.390  10.764  0.5819 -2.0185 -0.8201
39349SOL     OW24651   1.548   8.299  11.790  0.0413 -0.6655 -0.1325
39349SOL    HW124652   1.602   8.363  11.744 -1.2916  2.2983  2.1499
39349SOL    HW224653   1.573   8.308  11.882 -0.0174 -3.7003  0.2773
39350SOL     OW24654   8.087  11.176   7.430 -0.4118 -0.0811  0.0532
39350SOL    HW124655   8.153  11.204   7.493  0.3983 -0.3120 -0.6773
39350SOL    HW224656   8.061  11.256   7.385 -0.2858 -0.0616  0.0148
39351SOL     OW24657   2.207   2.941   6.409 -0.6093  0.0691  0.0461
39351SOL    HW124658   2.243   2.860   6.373 -0.4189  0.2224 -0.1143
39351SOL    HW224659   2.117   2.919   6.433 -0.9207  0.1115 -1.0297
39352SOL     OW24660   9.452   1.667   3.180  0.2621 -0.1570 -0.1666
39352SOL    HW124661   9.395   1.594   3.157  0.4609 -0.4393  0.2105
39352SOL    HW224662   9.414   1.743   3.136 -1.4096  0.0136  1.4666
39353SOL     OW24663   1.707   5.626  12.682 -0.1241  0.6424 -0.4438
39353SOL    HW124664   1.698   5.722  12.678 -0.3588  0.7729  1.6853
39353SOL    HW224665   1.667   5.603  12.766  0.8909 -1.2231 -0.4394
39354SOL     OW24666  11.418   6.279   8.344  0.2055  0.2354  0.3244
39354SOL    HW124667  11.324   6.294   8.352  0.2763  0.8894  0.0312
39354SOL    HW224668  11.428   6.223   8.268  0.0279 -0.1526  0.5855
39355SOL     OW24669  10.994   2.889   1.828  0.1015  0.8696  0.3074
39355SOL    HW124670  11.023   2.867   1.740 -0.4321  0.2394  0.2813
39355SOL    HW224671  11.067   2.863   1.885 -0.2948 -0.5165  0.2239
39356SOL     OW24672   9.265   3.808  12.674 -0.1617 -0.2560  0.2298
39356SOL    HW124673   9.285   3.901  12.687  2.4271 -0.7814  0.5280
39356SOL    HW224674   9.244   3.776  12.761 -0.5352 -0.0667  0.2113
39357SOL     OW24675   6.398   6.148  11.003  0.0758  0.2474 -0.1758
39357SOL    HW124676   6.364   6.168  10.915  0.7440  1.6594 -0.1502
39357SOL    HW224677   6.326   6.170  11.062  0.8200  3.0707 -0.1349
39358SOL     OW24678   1.966   8.378  10.467  0.0770 -0.0066  0.0792
39358SOL    HW124679   2.046   8.405  10.422  0.6249  0.0439  1.0510
39358SOL    HW224680   1.904   8.450  10.452  0.6115  0.5085  0.3060
39359SOL     OW24681  12.150  10.692   4.024  0.4624  0.3380 -0.2327
39359SOL    HW124682  12.189  10.610   4.053  3.2970  2.2074  1.7901
39359SOL    HW224683  12.085  10.713   4.091 -2.5708 -1.5766 -2.3392
39360SOL     OW24684   1.362   4.856   9.088 -0.0845  0.7348 -0.2072
39360SOL    HW124685   1.373   4.910   9.009  0.9590 -0.3622 -0.8477
39360SOL    HW224686   1.267   4.851   9.101 -0.2122  2.4643 -0.2909
39361SOL     OW24687  10.705   1.930  11.457  0.0629  0.5477  0.3162
39361SOL    HW124688  10.657   1.982  11.392 -0.1908  1.7276  1.3970
39361SOL    HW224689  10.797   1.942  11.434 -0.0175  1.0538  0.2292
39362SOL     OW24690   2.621   5.583  12.496 -0.5685 -0.1762  0.0849
39362SOL    HW124691   2.577   5.660  12.534  1.3788  0.9630  0.1741
39362SOL    HW224692   2.591   5.510  12.550 -0.9134  0.8251  1.3060
39363SOL     OW24693   2.680   7.584   5.904  0.1144  0.1533 -0.1861
39363SOL    HW124694   2.694   7.564   5.811 -0.7322 -2.0673  0.1221
39363SOL    HW224695   2.690   7.501   5.949 -2.0619  0.6465  1.4009
39364SOL     OW24696   8.206   9.500   9.554  0.0114  0.1880  0.5671
39364SOL    HW124697   8.143   9.523   9.486 -0.9228  0.0076  1.3387
39364SOL    HW224698   8.192   9.565   9.623 -0.7461 -1.0052  1.5938
39365SOL     OW24699   4.129   8.857  11.533 -0.0241  0.2400  0.0253
39365SOL    HW124700   4.062   8.807  11.579 -0.2785 -0.7046 -1.3290
39365SOL    HW224701   4.212   8.824  11.569 -0.2277 -0.2386  0.0671
39366SOL     OW24702   3.754   3.721  10.680 -0.5597  0.5800  0.1231
39366SOL    HW124703   3.757   3.665  10.602  3.4866  1.2645 -0.4499
39366SOL    HW224704   3.753   3.660  10.753  1.2753 -0.2941 -0.5158
39367SOL     OW24705   2.515   5.159   0.544  0.3261 -0.0255  0.2016
39367SOL    HW124706   2.536   5.240   0.498 -3.7059  1.4502  0.5988
39367SOL    HW224707   2.451   5.115   0.488  0.2260 -1.4639  1.3854
39368SOL     OW24708  12.283   7.632  10.038  0.3269 -0.7204  0.7838
39368SOL    HW124709  12.290   7.722  10.071  2.2553  0.5677 -2.5557
39368SOL    HW224710  12.232   7.641   9.957  0.8370 -2.5469  0.2078
39369SOL     OW24711   5.797   0.547  12.224 -0.1882  0.0442 -0.4676
39369SOL    HW124712   5.788   0.508  12.311 -0.9168 -0.4216 -0.7460
39369SOL    HW224713   5.754   0.633  12.232 -0.3184 -0.0285 -0.3910
39370SOL     OW24714   4.477   2.504   7.916  0.2845 -0.0726 -0.3610
39370SOL    HW124715   4.406   2.506   7.851 -1.3199  2.1821  1.2620
39370SOL    HW224716   4.431   2.499   8.001  2.0226  1.6372  0.7620
39371SOL     OW24717   4.674   5.862  12.351 -0.0919 -0.3595 -0.0537
39371SOL    HW124718   4.596   5.883  12.300  0.0010 -1.6219 -0.7649
39371SOL    HW224719   4.745   5.859  12.286  0.1099 -1.5289  0.1895
39372SOL     OW24720   7.683   9.314   3.490  0.6193 -0.0350  0.2563
39372SOL    HW124721   7.650   9.234   3.449  0.8141 -1.3280  2.4304
39372SOL    HW224722   7.615   9.379   3.476  0.6798 -0.3918 -2.0197
39373SOL     OW24723   6.128   0.051   0.028  0.9902  0.0150 -0.1317
39373SOL    HW124724   6.087   0.124  -0.017  2.4949  0.1858 -1.3247
39373SOL    HW224725   6.221   0.074   0.032  0.9903 -0.1149  2.8996
39374SOL     OW24726  12.226   0.047   3.541  0.1860 -0.3260  0.2034
39374SOL    HW124727  12.303  -0.009   3.544  0.5337  0.1650  0.5856
39374SOL    HW224728  12.167   0.004   3.479  0.5651 -0.9577  0.2781
39375SOL     OW24729  11.352   3.603  10.189  0.2062 -0.1255 -0.0125
39375SOL    HW124730  11.348   3.596  10.284  0.3278  0.6494  0.0612
39375SOL    HW224731  11.379   3.694  10.173  2.4265 -0.8431 -0.7342
39376SOL     OW24732   8.999   3.104  12.474  0.0536 -0.1493 -0.2746
39376SOL    HW124733   9.074   3.112  12.415 -0.1004 -0.6619 -0.5410
39376SOL    HW224734   8.944   3.037  12.434 -0.6715  0.3960 -0.2117
39377SOL     OW24735   8.596   4.029   8.952 -0.2433 -0.0094  0.0351
39377SOL    HW124736   8.510   4.071   8.956  0.1748  0.8994 -0.3178
39377SOL    HW224737   8.614   4.022   8.858 -0.6480 -1.7273  0.0492
39378SOL     OW24738   2.812   8.372   9.110  0.5852 -0.0912 -0.2654
39378SOL    HW124739   2.770   8.291   9.082  1.4540 -0.4997 -0.4172
39378SOL    HW224740   2.902   8.347   9.129  1.1546  1.0413 -1.3401
39379SOL     OW24741   9.840   8.870   7.434 -0.2166  0.4507 -0.3076
39379SOL    HW124742   9.915   8.853   7.491 -0.9707 -0.7227  0.3948
39379SOL    HW224743   9.767   8.884   7.494 -0.9965 -0.6586 -0.9465
39380SOL     OW24744   7.923   7.728   6.456 -0.3707 -0.5245  0.0179
39380SOL    HW124745   7.860   7.758   6.521 -1.2738  1.4762 -1.6620
39380SOL    HW224746   7.876   7.662   6.405 -0.4596 -0.4410 -0.0092
39381SOL     OW24747   3.076   6.596   6.518  0.3487  0.4345  0.3793
39381SOL    HW124748   3.024   6.534   6.467  0.0840  1.9418 -1.2702
39381SOL    HW224749   3.034   6.681   6.504  1.9594  1.3502  0.7615
39382SOL     OW24750   3.255   9.646   7.701  0.2440  0.8609 -0.5848
39382SOL    HW124751   3.327   9.707   7.714  1.3645 -0.5733  0.3298
39382SOL    HW224752   3.292   9.561   7.725 -1.3707 -0.1148 -1.4146
39383SOL     OW24753   8.999   1.128   6.432 -0.1381  0.1193 -0.5319
39383SOL    HW124754   9.014   1.043   6.391  0.8360  0.2365 -0.4505
39383SOL    HW224755   9.084   1.172   6.426 -0.3239  0.6296  0.4733
39384SOL     OW24756   1.120   4.926   3.247  0.0855  0.4929  0.4054
39384SOL    HW124757   1.051   4.875   3.204  0.7542 -1.6409  1.7080
39384SOL    HW224758   1.198   4.870   3.242  1.4128  2.2610  0.1587
39385SOL     OW24759  11.697  11.577   5.220 -0.0740  0.2536  0.0487
39385SOL    HW124760  11.740  11.494   5.241  1.9207  1.0694 -0.6293
39385SOL    HW224761  11.682  11.618   5.306  0.7865  0.0795  0.2894
39386SOL     OW24762  12.133   5.005   4.209  0.4075  0.0558 -0.5047
39386SOL    HW124763  12.094   4.919   4.226 -1.9145  1.2767  0.9931
39386SOL    HW224764  12.109   5.025   4.119 -0.6906 -0.1135 -0.2632
39387SOL     OW24765   0.632  11.368   2.012  0.0412 -0.2534 -0.2779
39387SOL    HW124766   0.643  11.305   1.941  0.9930 -2.2068  1.4835
39387SOL    HW224767   0.556  11.337   2.060  0.8998 -0.5099  0.9857
39388SOL     OW24768   9.110  12.551   5.721  0.4663  0.2799 -0.4248
39388SOL    HW124769   9.148  12.477   5.673  1.7641  0.2283  0.6324
39388SOL    HW224770   9.045  12.587   5.661 -0.4520 -1.9085 -0.8401
39389SOL     OW24771   2.119   9.633  12.686  0.2285 -0.1054  0.0959
39389SOL    HW124772   2.100   9.662  12.775  0.0215  1.8374 -0.5432
39389SOL    HW224773   2.161   9.708  12.644 -1.1741 -0.3575 -1.9195
39390SOL     OW24774   4.739   8.303   4.020 -0.0629 -0.0841 -0.3919
39390SOL    HW124775   4.645   8.316   4.007 -0.0140  0.0723 -0.6062
39390SOL    HW224776   4.779   8.357   3.952  0.2040  0.6828  0.3662
39391SOL     OW24777   1.981   3.265   2.138  0.6081 -0.2807 -0.5255
39391SOL    HW124778   1.929   3.312   2.203  1.8399 -1.4776  1.4481
39391SOL    HW224779   2.015   3.333   2.080 -0.9968  0.7737 -0.2967
39392SOL     OW24780   7.058   0.901   3.802  0.7034 -0.5105  0.2453
39392SOL    HW124781   7.044   0.960   3.876 -0.0672 -1.7511  1.1321
39392SOL    HW224782   7.103   0.826   3.840  1.4414 -0.6215 -0.8060
39393SOL     OW24783   9.424   9.767   7.506  0.3080 -0.0552 -0.7252
39393SOL    HW124784   9.473   9.750   7.587 -0.9871  0.0951  0.1087
39393SOL    HW224785   9.399   9.859   7.512  1.5001  0.4013 -2.0517
39394SOL     OW24786   7.465  12.121   4.844  0.1180  0.2708  0.4414
39394SOL    HW124787   7.508  12.043   4.807  0.7685 -0.1956  2.0904
39394SOL    HW224788   7.382  12.088   4.878 -1.3827  1.0542 -2.1754
39395SOL     OW24789   6.709   8.947   0.152 -0.0073  0.1220 -0.0807
39395SOL    HW124790   6.660   8.929   0.232  0.7481  0.2247  0.4055
39395SOL    HW224791   6.674   8.884   0.089  0.3252 -0.8742  0.7001
39396SOL     OW24792   7.809   9.160   1.044  0.2345  0.6394  0.2566
39396SOL    HW124793   7.788   9.122   0.958 -2.3413  1.5166  0.4213
39396SOL    HW224794   7.826   9.253   1.025  2.3889  0.3277  0.3989
39397SOL     OW24795   1.904  10.534   8.951  0.0688 -0.3930  0.1794
39397SOL    HW124796   1.988  10.550   8.994  0.3176  1.4994 -0.8960
39397SOL    HW224797   1.912  10.445   8.915  2.4230  0.4409 -1.5837
39398SOL     OW24798  10.377   6.331   0.602 -0.0233 -0.0838 -0.1839
39398SOL    HW124799  10.461   6.287   0.587 -0.2090  0.0905 -1.9368
39398SOL    HW224800  10.369   6.393   0.529 -0.9441  1.0548  0.8352
39399SOL     OW24801   4.923   9.902   8.777  0.0823  0.8058  0.3897
39399SOL    HW124802   4.981   9.900   8.701  1.6088 -3.0718  1.4201
39399SOL    HW224803   4.838   9.873   8.743 -0.4997  3.2932 -0.5002
39400SOL     OW24804   8.604   8.882   9.441  0.0973 -0.0053  0.1312
39400SOL    HW124805   8.529   8.825   9.425  0.3292  0.0563 -1.2926
39400SOL    HW224806   8.604   8.943   9.367  1.1660  0.4001  0.4489
39401SOL     OW24807   8.927   3.734  10.049 -0.0099 -0.5695  0.2416
39401SOL    HW124808   8.991   3.758  10.116  1.6267 -1.0945 -1.0803
39401SOL    HW224809   8.913   3.640  10.063  1.3740 -0.9835 -0.9572
39402SOL     OW24810   6.392   4.777  10.305 -0.1505 -0.2843 -0.1908
39402SOL    HW124811   6.487   4.772  10.311 -0.1965 -1.5427 -0.4308
39402SOL    HW224812   6.361   4.744  10.390 -0.4175 -2.5552 -1.1205
39403SOL     OW24813   3.110   8.258   8.072 -0.2049 -0.2865  0.2628
39403SOL    HW124814   3.049   8.187   8.055 -0.8464 -0.1769  1.9520
39403SOL    HW224815   3.193   8.214   8.091 -0.5176 -0.5879  0.9698
39404SOL     OW24816   3.405   6.389  10.788 -0.5840 -0.0667 -0.0329
39404SOL    HW124817   3.369   6.476  10.807 -0.7462 -0.1985  0.2659
39404SOL    HW224818   3.462   6.370  10.863 -1.4877 -0.7362  0.5003
39405SOL     OW24819   2.072   4.329  10.885  0.1336  0.0057 -0.3065
39405SOL    HW124820   1.993   4.330  10.939  0.1192 -1.8584 -0.2250
39405SOL    HW224821   2.101   4.420  10.882 -1.7319  0.6489  0.0700
39406SOL     OW24822   2.266   0.824   3.497  0.2493  0.2621  0.2275
39406SOL    HW124823   2.224   0.908   3.517 -0.7266  0.0034 -0.6629
39406SOL    HW224824   2.345   0.848   3.448 -0.6432  0.6559 -1.0940
39407SOL     OW24825   0.643   4.864   1.931 -0.1338  0.0578  0.1905
39407SOL    HW124826   0.686   4.935   1.883  1.0016  0.2748  1.4891
39407SOL    HW224827   0.690   4.785   1.903  0.0116  0.0832  0.3676
39408SOL     OW24828  10.008   2.865   3.066 -0.4705 -0.4751  0.2966
39408SOL    HW124829   9.988   2.786   3.017 -1.9938  0.3283 -0.4458
39408SOL    HW224830  10.051   2.923   3.003  0.1524 -0.4885  0.6949
39409SOL     OW24831   8.674   0.084   3.943 -0.1686  0.1981  0.6823
39409SOL    HW124832   8.759   0.101   3.983  0.6494 -4.1634  1.2454
39409SOL    HW224833   8.694   0.069   3.850 -0.6810  1.1241  0.4076
39410SOL     OW24834   3.408  10.852  12.001 -0.2726 -0.1481  0.4200
39410SOL    HW124835   3.326  10.811  11.976 -0.0170 -0.4089 -0.0070
39410SOL    HW224836   3.407  10.938  11.959 -1.0047  0.4844  1.6732
39411SOL     OW24837   0.239   5.094   6.170  0.3282 -0.2629  0.1341
39411SOL    HW124838   0.164   5.057   6.217  0.9931 -0.0124  1.4198
39411SOL    HW224839   0.233   5.188   6.185  0.3608 -0.1352 -0.5925
39412SOL     OW24840   8.217   6.789   0.492  0.3113  0.3028 -0.2061
39412SOL    HW124841   8.212   6.711   0.547  1.9515  0.9833  0.9888
39412SOL    HW224842   8.231   6.755   0.404 -2.0167 -0.7966 -0.2430
39413SOL     OW24843   8.620   0.229   9.591 -0.4763 -0.0754 -0.1280
39413SOL    HW124844   8.591   0.139   9.607 -0.2725  0.2895  2.6762
39413SOL    HW224845   8.567   0.282   9.650  1.6385  1.2711  0.6812
39414SOL     OW24846   1.392   0.875   0.839  0.5641 -0.1252 -0.2240
39414SOL    HW124847   1.384   0.844   0.749  3.4024  0.7270 -0.8614
39414SOL    HW224848   1.301   0.892   0.867 -0.4370 -1.1204 -2.6248
39415SOL     OW24849   8.595  12.319   8.237  0.1628  0.3875 -0.6135
39415SOL    HW124850   8.630  12.304   8.325 -0.4645 -0.6400 -0.5186
39415SOL    HW224851   8.501  12.332   8.251 -0.2368 -1.5194 -1.2666
39416SOL     OW24852   7.233   9.350   4.804 -0.1974  0.1349 -0.1541
39416SOL    HW124853   7.159   9.397   4.841  0.2999 -0.0679  1.1387
39416SOL    HW224854   7.274   9.413   4.745 -1.1331  0.3901 -0.5553
39417SOL     OW24855   0.214   1.963   5.754  0.0506 -0.5716  0.2251
39417SOL    HW124856   0.282   2.001   5.699 -0.0326 -1.3525 -0.4388
39417SOL    HW224857   0.246   1.875   5.775 -0.1274 -0.4442  1.0571
39418SOL     OW24858   5.815   0.398   2.780 -0.3273 -0.3932 -0.5394
39418SOL    HW124859   5.910   0.384   2.771 -0.6023 -1.6093 -1.9612
39418SOL    HW224860   5.799   0.484   2.742  0.3951  0.6171  1.2941
39419SOL     OW24861   3.572   1.096   4.714  0.6748  0.0435 -0.1448
39419SOL    HW124862   3.527   1.160   4.659 -0.4230 -1.1423 -0.6780
39419SOL    HW224863   3.628   1.149   4.771  0.9613  1.3882 -1.5777
39420SOL     OW24864   5.944   4.187  10.719 -0.1852  0.1243  0.5571
39420SOL    HW124865   5.977   4.207  10.806  0.6412  2.1701 -0.1568
39420SOL    HW224866   5.945   4.272  10.673 -0.0272 -0.9796 -1.6115
39421SOL     OW24867   9.117   9.824   6.923 -0.6531  0.1809  0.2975
39421SOL    HW124868   9.193   9.843   6.868  0.0517 -0.2183  1.1067
39421SOL    HW224869   9.073   9.752   6.879 -0.3543  0.1709  0.0121
39422SOL     OW24870   2.797  12.435   3.119  0.1465 -0.1414 -0.0396
39422SOL    HW124871   2.887  12.403   3.111  0.2896  0.5403 -1.7250
39422SOL    HW224872   2.742  12.357   3.115  0.5629 -0.3723 -2.1056
39423SOL     OW24873   4.184  11.294   4.624 -0.3169  0.2812 -0.3850
39423SOL    HW124874   4.195  11.365   4.688  1.6242  1.8491 -2.2786
39423SOL    HW224875   4.222  11.218   4.667  0.4919  1.1661  0.5364
39424SOL     OW24876  10.326   9.294   6.103 -0.6487 -0.4333 -0.3172
39424SOL    HW124877  10.342   9.322   6.013  0.9933 -0.1366  0.0205
39424SOL    HW224878  10.400   9.236   6.122 -1.1480 -0.7331  0.7332
39425SOL     OW24879   3.009  10.204  12.488  0.4982  0.0683 -0.3433
39425SOL    HW124880   3.070  10.180  12.418  0.5374 -0.4154 -0.1416
39425SOL    HW224881   2.935  10.145  12.477 -0.0218  0.7673 -0.6917
39426SOL     OW24882   4.023  11.480   5.396 -0.4638  0.0354 -0.1569
39426SOL    HW124883   3.946  11.525   5.362 -1.0203  0.0274  1.0509
39426SOL    HW224884   3.989  11.400   5.435  0.0149  0.4561  1.1791
39427SOL     OW24885  10.938   6.753   3.752  0.8531  0.1763  0.1587
39427SOL    HW124886  10.895   6.788   3.674  1.7709 -0.6300 -0.7316
39427SOL    HW224887  10.911   6.813   3.823  1.8819  2.3464 -1.1798
39428SOL     OW24888   8.261   1.655  11.874  0.8337 -0.2818  0.3081
39428SOL    HW124889   8.255   1.652  11.970  0.5359 -0.7721  0.2789
39428SOL    HW224890   8.345   1.614  11.854  0.8990 -0.1748  0.3551
39429SOL     OW24891   6.298   7.842  10.644  0.3663  0.6134  0.7466
39429SOL    HW124892   6.379   7.873  10.602 -0.3497  0.0632 -1.1260
39429SOL    HW224893   6.323   7.761  10.688  0.4575 -0.7029 -1.5850
39430SOL     OW24894  11.747  10.662   3.597 -0.1197  0.0467 -0.3185
39430SOL    HW124895  11.722  10.611   3.674 -2.3936 -0.2854 -1.1750
39430SOL    HW224896  11.819  10.612   3.558  0.5317 -0.2000  1.1361
39431SOL     OW24897   4.823   1.210   0.359  0.7258  0.1015 -0.6268
39431SOL    HW124898   4.773   1.154   0.300  1.0285  0.2836 -1.0683
39431SOL    HW224899   4.835   1.158   0.438 -2.3773  0.9529  0.5644
39432SOL     OW24900  10.717   4.918   1.329 -0.6478 -0.5678 -0.2388
39432SOL    HW124901  10.747   4.833   1.296 -0.3988 -0.1632 -1.0930
39432SOL    HW224902  10.627   4.903   1.357 -0.8900 -0.9189 -1.1751
39433SOL     OW24903   8.208   9.290   4.460 -0.5095  0.1946 -0.3618
39433SOL    HW124904   8.253   9.251   4.385 -0.4314 -1.1411  0.3446
39433SOL    HW224905   8.272   9.351   4.497  0.2799 -0.7751 -0.0958
39434SOL     OW24906   3.899  10.967  12.035 -0.6391  0.2096 -0.8241
39434SOL    HW124907   3.946  10.918  11.967  1.7374  1.3615 -0.1293
39434SOL    HW224908   3.960  10.970  12.109 -0.5227  4.1720 -0.8307
39435SOL     OW24909  11.106   4.301   8.558 -0.7332 -0.2460  0.1086
39435SOL    HW124910  11.115   4.251   8.477  0.3283 -2.6859  1.6152
39435SOL    HW224911  11.196   4.318   8.585 -1.0493 -0.4511  1.3335
39436SOL     OW24912  12.096   7.213   0.735  0.4529  0.2991  0.0649
39436SOL    HW124913  12.074   7.140   0.677  0.9905  0.9549 -0.9912
39436SOL    HW224914  12.080   7.291   0.682 -0.9159  1.0070  1.4530
39437SOL     OW24915   7.991   4.388   4.229 -0.0562 -0.6278 -0.3920
39437SOL    HW124916   7.934   4.454   4.188  0.6077  0.2355  0.0462
39437SOL    HW224917   8.024   4.430   4.308  0.5109 -1.4375 -0.1853
39438SOL     OW24918   2.413   2.980   2.548  0.1747 -0.0693  0.3490
39438SOL    HW124919   2.341   2.942   2.598  1.3634 -1.3869  1.1463
39438SOL    HW224920   2.452   3.045   2.606  0.6482 -0.5502  0.5764
39439SOL     OW24921   5.498   5.191  11.874  0.0074 -0.6619  0.0789
39439SOL    HW124922   5.406   5.206  11.894  0.0488  1.3435 -0.9815
39439SOL    HW224923   5.522   5.262  11.815  2.1632 -1.3247  0.0531
39440SOL     OW24924   4.723   1.046   1.911  0.0350 -1.1605 -0.4960
39440SOL    HW124925   4.760   0.985   1.848 -2.2738 -1.4928 -1.6206
39440SOL    HW224926   4.726   0.999   1.995 -0.1664 -2.1422 -1.0280
39441SOL     OW24927  10.716   1.556   5.545 -0.2685  0.4812 -0.0422
39441SOL    HW124928  10.797   1.536   5.498  0.4624  1.8394  0.5824
39441SOL    HW224929  10.727   1.517   5.631 -1.0991 -0.9462 -0.5352
39442SOL     OW24930   5.790   9.896   1.422 -0.1804 -0.3530 -0.1654
39442SOL    HW124931   5.773   9.816   1.472 -1.8942 -0.9510 -1.5891
39442SOL    HW224932   5.866   9.874   1.368  0.6884 -0.2504  0.9792
39443SOL     OW24933   7.410   9.360   7.479 -0.4806 -0.0414  0.5609
39443SOL    HW124934   7.339   9.305   7.448 -1.0566  0.3310  1.1775
39443SOL    HW224935   7.485   9.302   7.486 -0.6150 -0.3466 -0.4954
39444SOL     OW24936   6.071  12.561  10.367  0.0907  0.2380 -0.4159
39444SOL    HW124937   6.070  12.622  10.293 -0.0587  1.1996  0.3517
39444SOL    HW224938   5.979  12.554  10.393  0.1682  0.0989 -0.1734
39445SOL     OW24939   0.856   8.598   4.987  0.2403 -0.5796  0.3218
39445SOL    HW124940   0.794   8.580   4.917 -1.4705 -1.4703  1.9654
39445SOL    HW224941   0.870   8.693   4.983 -0.7804 -0.4437 -0.4663
39446SOL     OW24942   9.025  12.546  10.569  0.3114 -0.4754 -0.0096
39446SOL    HW124943   8.937  12.571  10.539  0.5223 -0.7192 -0.8600
39446SOL    HW224944   9.055  12.622  10.619  0.6410  0.7250 -1.9182
39447SOL     OW24945   2.243   7.674  12.336  0.1627  0.4456  0.1871
39447SOL    HW124946   2.150   7.687  12.318 -0.4281 -2.1772  0.9268
39447SOL    HW224947   2.272   7.612  12.269  1.2934  0.8656  0.2634
39448SOL     OW24948   3.878   8.397   5.338  0.1269  0.0901  0.1813
39448SOL    HW124949   3.787   8.374   5.319  0.7139 -2.1517 -0.1919
39448SOL    HW224950   3.899   8.466   5.276 -0.8603 -0.4600 -0.7963
39449SOL     OW24951   8.901   9.734   2.031  0.3823  0.5183  0.2087
39449SOL    HW124952   8.831   9.734   2.096 -0.2020 -0.8800 -0.3701
39449SOL    HW224953   8.982   9.736   2.082 -0.0684  0.3127  0.9486
39450SOL     OW24954   7.884  12.678  12.082  0.1924 -0.3452 -0.3721
39450SOL    HW124955   7.913  12.639  12.164  1.0700  0.4173 -0.2990
39450SOL    HW224956   7.834  12.756  12.110  0.9543  0.2214 -0.5526
39451SOL     OW24957   1.735  12.002   5.701  0.1045 -0.0152 -0.0248
39451SOL    HW124958   1.703  12.089   5.680 -0.9264 -0.7406 -1.6047
39451SOL    HW224959   1.746  11.959   5.617  3.0983 -0.6124  0.5573
39452SOL     OW24960   7.496   2.248   1.840  0.2323 -0.2434 -0.2790
39452SOL    HW124961   7.426   2.310   1.861  0.3395 -0.0131 -0.5985
39452SOL    HW224962   7.568   2.273   1.898 -0.3820 -1.2961  0.9824
39453SOL     OW24963   1.921   4.307   4.511  0.5092  0.0230  0.5711
39453SOL    HW124964   1.933   4.290   4.418  1.4700  0.6820  0.5557
39453SOL    HW224965   1.831   4.280   4.529  0.1963  0.1989 -0.6157
39454SOL     OW24966   5.076   4.992   1.663 -0.2209  0.4629 -0.0230
39454SOL    HW124967   5.110   4.903   1.652  0.5129  0.5812  1.0843
39454SOL    HW224968   4.998   4.995   1.608 -0.8904 -1.2160  0.7718
39455SOL     OW24969   3.547   0.820  12.314 -0.0865  0.7259  0.1152
39455SOL    HW124970   3.592   0.848  12.394  0.8267 -0.2499 -0.0399
39455SOL    HW224971   3.601   0.749  12.280 -0.9414  0.5502 -0.9074
39456SOL     OW24972  11.230   2.558  12.517 -0.2071 -0.3749 -0.3881
39456SOL    HW124973  11.271   2.615  12.581  0.8020  0.4501 -1.7146
39456SOL    HW224974  11.241   2.603  12.433 -2.5350 -0.8405 -1.0263
39457SOL     OW24975   2.734  10.634   5.794  0.1298  0.3043 -0.2221
39457SOL    HW124976   2.755  10.596   5.709  1.1352 -0.1190  0.2078
39457SOL    HW224977   2.819  10.651   5.835 -0.3451 -0.3382  1.0677
39458SOL     OW24978   9.542   8.458  10.828 -0.3045  0.3096 -0.0079
39458SOL    HW124979   9.619   8.510  10.850  0.6973 -1.3753  0.6402
39458SOL    HW224980   9.468   8.517  10.843  0.7172  1.2283  1.7413
39459SOL     OW24981   6.217   1.417   7.599  0.3233 -0.5096  0.1666
39459SOL    HW124982   6.292   1.359   7.586  1.1341  0.6070 -0.2460
39459SOL    HW224983   6.239   1.469   7.677 -0.4914 -0.8812  0.6624
39460SOL     OW24984   0.540  10.679   0.254  0.3248 -0.2548 -0.1328
39460SOL    HW124985   0.473  10.656   0.318 -0.4725  1.8388 -0.1232
39460SOL    HW224986   0.619  10.633   0.283 -0.4871 -0.8160  1.2738
39461SOL     OW24987   6.429   2.919   1.549 -0.2730  0.4603  0.4198
39461SOL    HW124988   6.393   2.912   1.637 -0.3357  1.8453  0.5391
39461SOL    HW224989   6.519   2.890   1.557 -0.2459  0.6849  0.9774
39462SOL     OW24990   7.960  10.708   5.039  0.2836 -0.3584  0.0625
39462SOL    HW124991   7.952  10.658   4.958  0.4125 -1.7920  0.9116
39462SOL    HW224992   7.936  10.647   5.108 -1.7335  1.3670  1.0079
39463SOL     OW24993   1.399   8.797   0.792  0.2244  0.3324  0.6608
39463SOL    HW124994   1.401   8.704   0.772  1.9442 -0.1686  2.8262
39463SOL    HW224995   1.322   8.830   0.745  0.2086 -1.9191 -1.0537
39464SOL     OW24996   5.745   2.399   1.021 -0.1294  0.1885 -0.0328
39464SOL    HW124997   5.650   2.389   1.027 -0.0863 -0.0953  0.1780
39464SOL    HW224998   5.779   2.311   1.038  0.1351  0.0890 -1.0003
39465SOL     OW24999   5.002   6.793  11.445  0.5438 -0.1303 -0.0258
39465SOL    HW125000   5.014   6.806  11.539  0.7398  0.0661 -0.0774
39465SOL    HW225001   5.018   6.880  11.407 -2.1281  0.4875 -0.0031
39466SOL     OW25002   7.784  11.134   0.229 -0.1566  0.2730  0.3240
39466SOL    HW125003   7.857  11.073   0.239 -0.6644 -0.7468 -1.6338
39466SOL    HW225004   7.789  11.163   0.138 -3.4129 -1.5943 -0.6486
39467SOL     OW25005   4.333  10.766   2.596 -0.1969 -0.1536 -0.2940
39467SOL    HW125006   4.276  10.840   2.615 -1.3509 -1.5783  2.4482
39467SOL    HW225007   4.285  10.714   2.531 -0.4671  0.3207 -0.4751
39468SOL     OW25008   6.761   1.725   4.128  0.0215  0.0606 -0.2254
39468SOL    HW125009   6.710   1.670   4.188  1.4323 -0.1277  0.8573
39468SOL    HW225010   6.851   1.694   4.138  0.6019  1.4724 -0.8504
39469SOL     OW25011   3.651   6.118   3.071  0.0906  0.4547 -0.2460
39469SOL    HW125012   3.650   6.204   3.113  3.0749  0.0671  0.8236
39469SOL    HW225013   3.673   6.057   3.141 -0.7672 -1.0551 -1.2420
39470SOL     OW25014   3.824   8.046   9.911 -0.0053  0.3414 -0.6357
39470SOL    HW125015   3.917   8.067   9.915 -0.1120  0.9664 -1.4228
39470SOL    HW225016   3.808   8.023   9.820 -0.5742 -0.0276 -0.4487
39471SOL     OW25017   6.360   8.781  10.510 -0.3017  0.2936  0.0311
39471SOL    HW125018   6.424   8.743  10.450 -2.0514  1.9911 -3.1661
39471SOL    HW225019   6.310   8.706  10.542  0.9118 -0.7069 -0.3237
39472SOL     OW25020   7.720   0.344   2.613  0.1985  0.5983  0.0555
39472SOL    HW125021   7.717   0.300   2.527  1.9626  1.1850 -0.3599
39472SOL    HW225022   7.719   0.273   2.676  0.6916  0.0448 -0.5364
39473SOL     OW25023   8.787   9.703   4.854 -0.2599  0.2077 -0.2375
39473SOL    HW125024   8.803   9.635   4.919 -0.0231 -0.2178 -0.7329
39473SOL    HW225025   8.772   9.655   4.772  0.2496  0.7611 -0.6634
39474SOL     OW25026   4.993   8.625  12.162  0.1968 -0.0402  0.1138
39474SOL    HW125027   5.057   8.628  12.233  0.2503  0.2706  0.0567
39474SOL    HW225028   4.961   8.715  12.155 -0.3243 -0.2144  0.2095
39475SOL     OW25029   3.886   9.984  11.971 -0.6925  0.0111  0.0927
39475SOL    HW125030   3.797   9.949  11.965  0.0636 -2.0535  0.3418
39475SOL    HW225031   3.873  10.079  11.976 -2.8722 -0.2288  0.1959
39476SOL     OW25032   4.744   4.372   5.054  0.0499  0.1791 -0.4772
39476SOL    HW125033   4.770   4.286   5.020  1.8463 -0.7210  2.7789
39476SOL    HW225034   4.801   4.434   5.009  2.3060 -0.9432  0.6637
39477SOL     OW25035   9.267   1.747   8.342  0.0318  0.0238 -0.1412
39477SOL    HW125036   9.341   1.807   8.351  0.4025 -0.5310  0.5294
39477SOL    HW225037   9.199   1.783   8.399 -0.0099  0.2017 -0.3003
39478SOL     OW25038   3.674  12.216   1.331  0.1442  0.1568 -0.2260
39478SOL    HW125039   3.602  12.166   1.369 -0.6009  1.4916  0.1946
39478SOL    HW225040   3.631  12.285   1.281  1.0997  1.4271  0.6284
39479SOL     OW25041   6.943  10.463   7.004 -0.3516 -0.5225 -0.6651
39479SOL    HW125042   6.921  10.441   6.914 -2.1639 -0.9970 -0.1640
39479SOL    HW225043   6.929  10.557   7.010  0.8764 -0.2917 -1.1350
39480SOL     OW25044   2.461   0.533   7.265  0.2554 -0.3706  0.0934
39480SOL    HW125045   2.541   0.560   7.310  0.7622 -0.0263 -0.9853
39480SOL    HW225046   2.490   0.505   7.178 -0.9027  0.8074 -0.7206
39481SOL     OW25047   4.406  10.347   5.597 -0.1043  0.1236 -0.0201
39481SOL    HW125048   4.460  10.423   5.617 -1.3130  0.9275  0.2952
39481SOL    HW225049   4.346  10.376   5.528  0.2033 -0.9100 -0.7553
39482SOL     OW25050   3.318  11.599   6.177 -0.3539 -0.3636 -0.3206
39482SOL    HW125051   3.281  11.687   6.180  0.2271 -0.0539 -1.6572
39482SOL    HW225052   3.254  11.545   6.223 -0.9365  0.6729  0.1244
39483SOL     OW25053   4.494   0.062  12.486 -0.2220  0.2219 -0.4278
39483SOL    HW125054   4.587   0.050  12.503 -0.1392 -0.2300 -1.1598
39483SOL    HW225055   4.479   0.156  12.498  0.5690  0.4946 -1.4001
39484SOL     OW25056   2.087   2.836   4.463  1.1537  0.5468  0.0446
39484SOL    HW125057   2.065   2.928   4.481  0.3761  0.4544 -0.3831
39484SOL    HW225058   2.040   2.816   4.382  0.6170 -0.4817  0.5905
39485SOL     OW25059   1.422  12.741  10.861 -0.2533  0.2367  0.9184
39485SOL    HW125060   1.399  12.689  10.784  1.2542 -0.3469  0.8137
39485SOL    HW225061   1.340  12.779  10.890 -0.7676  1.1168 -1.4381
39486SOL     OW25062   9.463   9.750  12.743 -0.4538  0.4618 -0.4559
39486SOL    HW125063   9.542   9.722  12.697  0.3083 -0.1204  1.1523
39486SOL    HW225064   9.492   9.766  12.833 -1.0472  5.1684 -0.8405
39487SOL     OW25065  11.826  11.449   1.858 -0.2251  0.0521 -0.1302
39487SOL    HW125066  11.811  11.404   1.775  1.3460  1.0869 -1.0255
39487SOL    HW225067  11.807  11.384   1.925 -1.6736 -0.7543 -1.2868
39488SOL     OW25068   3.143  11.968   3.037  0.2237 -0.2544 -0.4143
39488SOL    HW125069   3.135  12.045   3.094  0.1901  1.1149 -2.1796
39488SOL    HW225070   3.059  11.963   2.992  1.1686  0.4236 -2.3667
39489SOL     OW25071  10.592   5.665  10.861 -0.3018 -0.1965  0.7820
39489SOL    HW125072  10.554   5.610  10.793  0.2397 -1.4813  1.4671
39489SOL    HW225073  10.658   5.609  10.903  0.5132  1.1028  1.2960
39490SOL     OW25074   4.837   7.529   5.747  0.5579 -0.2530  0.1621
39490SOL    HW125075   4.841   7.600   5.683 -1.5474  0.5812  0.8743
39490SOL    HW225076   4.914   7.542   5.803 -0.2538  2.0610  0.8363
39491SOL     OW25077   3.711  10.672  10.063 -0.2121 -0.2593  0.8203
39491SOL    HW125078   3.734  10.618  10.138 -0.2631 -0.3661  0.7587
39491SOL    HW225079   3.671  10.611  10.001 -0.7196 -0.0603  0.9508
39492SOL     OW25080   7.125   2.771  12.226 -0.5127 -0.0383  0.2752
39492SOL    HW125081   7.098   2.725  12.305  0.0817 -1.1194 -0.1322
39492SOL    HW225082   7.158   2.702  12.168  2.0048  1.0632  0.2871
39493SOL     OW25083   8.831   3.503   2.263  0.0973  0.3052  0.5820
39493SOL    HW125084   8.857   3.503   2.355  0.3743  0.2155  0.5051
39493SOL    HW225085   8.743   3.542   2.263  0.5362  1.3296  0.7604
39494SOL     OW25086   4.259   5.102   3.446  0.4237 -0.6608 -0.1838
39494SOL    HW125087   4.270   5.176   3.387 -1.6405 -0.2479 -0.1141
39494SOL    HW225088   4.261   5.141   3.534  0.5533 -0.8709 -0.0914
39495SOL     OW25089   9.888   4.209   9.062 -0.1636  0.8182  0.3865
39495SOL    HW125090   9.826   4.177   9.127  0.3753 -1.6808 -0.2331
39495SOL    HW225091   9.901   4.136   9.002  2.5430  1.6142 -0.1518
39496SOL     OW25092   2.209   8.268  10.599 -0.1300  0.6839  0.4919
39496SOL    HW125093   2.153   8.195  10.575  1.8562 -0.0211 -2.6428
39496SOL    HW225094   2.280   8.229  10.650  0.5166  0.5077 -0.5142
39497SOL     OW25095  11.486   2.989   2.889  0.3722  0.0842 -0.7987
39497SOL    HW125096  11.527   2.955   2.969  1.0338  1.2937 -0.5959
39497SOL    HW225097  11.560   3.013   2.833 -0.0868 -0.2568 -1.5523
39498SOL     OW25098   5.688   5.395   2.845 -0.5728 -0.2215  0.0121
39498SOL    HW125099   5.672   5.456   2.917  1.5479 -2.3040  2.4867
39498SOL    HW225100   5.615   5.410   2.784 -2.2052  2.0673  2.2853
39499SOL     OW25101   8.406   6.861   1.161 -0.2462  0.7166 -0.1929
39499SOL    HW125102   8.402   6.845   1.067 -0.1870 -1.9169  0.1733
39499SOL    HW225103   8.485   6.816   1.190 -0.8271  0.5543  1.2543
39500SOL     OW25104   9.985   9.973   0.758 -0.0928  0.5028 -1.1319
39500SOL    HW125105  10.056   9.910   0.750  0.1246  0.4778  0.6735
39500SOL    HW225106  10.029  10.057   0.771 -0.3475  0.4224  0.4655
39501SOL     OW25107   3.782   5.064   9.297  0.4917  0.5983 -0.2434
39501SOL    HW125108   3.692   5.044   9.324  0.6817 -1.4928 -0.9761
39501SOL    HW225109   3.808   5.138   9.353 -1.5953  1.1309  0.1084
39502SOL     OW25110   2.610   5.828   1.366  0.4356  0.0268  0.4427
39502SOL    HW125111   2.552   5.871   1.429 -0.2769 -0.3859  0.0914
39502SOL    HW225112   2.569   5.847   1.281 -0.4253 -2.0747  0.3308
39503SOL     OW25113  11.284   4.596   3.666 -0.4899  0.5776 -0.4541
39503SOL    HW125114  11.252   4.614   3.754  1.5351  0.0810  0.4378
39503SOL    HW225115  11.335   4.673   3.642  1.7539 -0.6120  0.2314
39504SOL     OW25116   7.154   4.007   0.331 -0.0196  0.0344  0.1033
39504SOL    HW125117   7.203   3.949   0.275 -0.0358 -0.7574  0.8925
39504SOL    HW225118   7.169   3.975   0.420 -2.6195 -0.8079  0.3440
39505SOL     OW25119   5.754   4.502  11.883  0.7911 -0.4973  0.0106
39505SOL    HW125120   5.832   4.465  11.922  2.1996 -0.4355 -2.5425
39505SOL    HW225121   5.769   4.497  11.789 -2.5059 -0.9523 -0.6320
39506SOL     OW25122  11.511  11.723  10.984 -0.1453  0.2545  0.1620
39506SOL    HW125123  11.585  11.780  10.962  0.4899 -0.3665  0.6420
39506SOL    HW225124  11.537  11.681  11.065 -1.2137  0.3326  0.5576
39507SOL     OW25125   6.437   4.162   7.156  0.3610  0.4239 -0.3968
39507SOL    HW125126   6.342   4.168   7.157  0.0578 -2.7628  0.1988
39507SOL    HW225127   6.456   4.095   7.090  2.4417  2.6898 -2.3216
39508SOL     OW25128   7.808   0.726   4.382 -0.1605 -0.4048 -0.4065
39508SOL    HW125129   7.725   0.684   4.404 -1.1321  1.3081 -0.6596
39508SOL    HW225130   7.813   0.720   4.286 -1.0029  1.2096 -0.5925
39509SOL     OW25131   3.409   6.641   3.799  0.4034 -0.7621 -0.4090
39509SOL    HW125132   3.499   6.666   3.779  1.5624 -1.8847  2.7954
39509SOL    HW225133   3.379   6.706   3.862  0.6513 -2.7698  1.9272
39510SOL     OW25134   3.338  10.404   4.592  0.0794  0.3622  0.2232
39510SOL    HW125135   3.404  10.352   4.636  0.2005 -0.0095 -0.3885
39510SOL    HW225136   3.381  10.487   4.572  0.5814 -0.1114 -0.7494
39511SOL     OW25137   1.513   4.584   8.120 -0.1409  0.5636  0.5534
39511SOL    HW125138   1.458   4.656   8.150 -1.8754 -0.5949  0.3105
39511SOL    HW225139   1.572   4.624   8.056 -3.2113  1.3072 -2.1045
39512SOL     OW25140   8.208   4.681   0.245  0.2741  0.3455 -0.3479
39512SOL    HW125141   8.256   4.733   0.309  0.5044 -0.7089  0.3715
39512SOL    HW225142   8.249   4.702   0.161 -0.3331  2.0872 -0.2333
39513SOL     OW25143   5.361  10.009   5.775  0.2644 -0.1857 -0.0868
39513SOL    HW125144   5.284   9.960   5.745  0.8462 -1.0906 -0.1497
39513SOL    HW225145   5.346  10.022   5.868 -0.0778 -0.1427 -0.1456
39514SOL     OW25146   1.813   8.248   2.950  0.0915 -0.4274  0.1809
39514SOL    HW125147   1.740   8.237   2.888  0.2488  2.8636 -0.7912
39514SOL    HW225148   1.803   8.337   2.983  1.6989 -1.0847  2.7961
39515SOL     OW25149   0.663  11.447   9.710 -0.1129 -0.3717 -0.3087
39515SOL    HW125150   0.618  11.464   9.792  0.5629  0.1284 -0.0362
39515SOL    HW225151   0.652  11.528   9.660  0.3182 -0.3178 -0.3162
39516SOL     OW25152   6.357  11.193  12.576  0.0995 -0.0139  0.2264
39516SOL    HW125153   6.396  11.137  12.508 -0.8694 -0.9947  0.4516
39516SOL    HW225154   6.264  11.197  12.554  0.2054  1.9057 -0.0307
39517SOL     OW25155   1.119  10.946   6.244  0.7007 -0.1427 -0.4011
39517SOL    HW125156   1.139  11.029   6.288 -0.4712 -0.5513  0.9785
39517SOL    HW225157   1.092  10.971   6.156  0.9410  0.8911 -0.1908
39518SOL     OW25158   2.590   2.146   3.762  0.2933  0.1183  0.7163
39518SOL    HW125159   2.512   2.111   3.805  0.8166 -0.5597  1.1236
39518SOL    HW225160   2.601   2.233   3.799 -1.2810  0.9626 -0.6352
39519SOL     OW25161   3.211   7.475   0.242 -0.2674  0.1064  0.1340
39519SOL    HW125162   3.226   7.386   0.211  0.5198 -0.0430  0.9209
39519SOL    HW225163   3.254   7.530   0.177  0.7715 -0.1764  0.5660
39520SOL     OW25164  10.974   2.594   5.810 -0.8973  0.6745  0.2297
39520SOL    HW125165  11.047   2.613   5.751 -1.3295  1.0764 -0.1848
39520SOL    HW225166  10.944   2.507   5.785 -2.3626  1.6138 -1.5373
39521SOL     OW25167   4.510   1.183  12.407  0.5054  0.0415  0.1086
39521SOL    HW125168   4.493   1.267  12.365 -1.4228  0.0002  0.7032
39521SOL    HW225169   4.434   1.129  12.385  1.3116 -1.2796  0.4240
39522SOL     OW25170   8.486   7.367   5.359  0.2360  0.5744 -0.1851
39522SOL    HW125171   8.529   7.374   5.444  1.1345  0.6372 -0.6326
39522SOL    HW225172   8.537   7.424   5.301 -1.1417  1.5851 -0.4763
39523SOL     OW25173   2.974   5.582   6.865  0.5501  0.2940 -0.0959
39523SOL    HW125174   3.067   5.604   6.872  0.8184 -0.6999 -0.4420
39523SOL    HW225175   2.951   5.606   6.775  0.8794 -0.9286 -0.5204
39524SOL     OW25176   9.421   5.576  10.189  0.1652  0.0559 -0.0597
39524SOL    HW125177   9.355   5.583  10.121  0.3525 -0.7519 -0.3476
39524SOL    HW225178   9.383   5.516  10.253 -0.2075  1.1920  0.8030
39525SOL     OW25179  12.001   7.648  12.310  0.2376  0.1042 -0.6350
39525SOL    HW125180  12.032   7.617  12.395  0.9810 -0.8186 -1.2275
39525SOL    HW225181  12.062   7.718  12.286  1.1075 -0.8231 -1.1973
39526SOL     OW25182   0.176   9.226   5.568  0.2540  0.2685 -0.6724
39526SOL    HW125183   0.114   9.161   5.534 -0.6694  0.3609  0.7452
39526SOL    HW225184   0.258   9.207   5.523 -0.2366 -1.2760 -0.9684
39527SOL     OW25185  10.940   3.301  11.471  0.5510  0.1434  0.4552
39527SOL    HW125186  10.862   3.295  11.416  0.3486 -0.8451  0.8320
39527SOL    HW225187  10.984   3.381  11.441 -0.4323  0.5465  0.0237
39528SOL     OW25188   6.467   6.944   8.613  0.4490 -0.1580  0.4418
39528SOL    HW125189   6.456   6.939   8.708  0.3221 -1.5399  0.3679
39528SOL    HW225190   6.402   6.884   8.578  1.1400 -0.3916 -0.4772
39529SOL     OW25191   8.000   1.042   5.193 -0.2531  0.1432  0.1461
39529SOL    HW125192   8.002   1.128   5.234  1.3151 -0.3236  1.1986
39529SOL    HW225193   7.976   1.058   5.102  0.6061  1.7667  0.1712
39530SOL     OW25194   2.700   1.724   3.057 -0.4623 -0.4635 -0.6540
39530SOL    HW125195   2.711   1.630   3.073  0.7858 -0.3919 -0.9928
39530SOL    HW225196   2.750   1.766   3.127 -1.6732 -0.0144 -0.0256
39531SOL     OW25197   6.525   7.694   5.687 -0.0762 -0.4295  0.7159
39531SOL    HW125198   6.618   7.718   5.686 -0.1924  0.4213  3.2474
39531SOL    HW225199   6.524   7.601   5.667  1.1412 -0.0862 -1.1538
39532SOL     OW25200   6.759   8.240   9.872  0.0202  0.0860  0.2542
39532SOL    HW125201   6.777   8.292   9.950 -2.0754  0.4660  0.5486
39532SOL    HW225202   6.814   8.278   9.804 -0.8317  2.1914  0.6636
39533SOL     OW25203   6.415   1.809   1.310  0.7753 -0.1164 -0.1719
39533SOL    HW125204   6.347   1.821   1.244  0.7050 -1.7617 -0.4388
39533SOL    HW225205   6.395   1.874   1.378  0.4886  1.1834 -1.4418
39534SOL     OW25206   1.053  11.692   1.543  0.5062 -0.1536 -0.5746
39534SOL    HW125207   1.110  11.708   1.618 -0.1006 -0.9499  0.0866
39534SOL    HW225208   0.983  11.757   1.551  0.1288 -0.6006 -0.0942
39535SOL     OW25209   8.522  11.090   6.059 -0.1895 -0.1590  0.2393
39535SOL    HW125210   8.482  11.140   6.129  2.7697  1.1203  1.1604
39535SOL    HW225211   8.544  11.155   5.992  0.4246 -0.7813 -0.1785
39536SOL     OW25212   8.856   2.369   0.974  0.4338 -0.2018  0.0866
39536SOL    HW125213   8.917   2.300   0.951  3.4789  2.3300 -0.1157
39536SOL    HW225214   8.802   2.381   0.896  2.7861  0.4572 -1.5309
39537SOL     OW25215  11.146   0.036   9.879  0.3566  0.0830 -0.4222
39537SOL    HW125216  11.104  -0.047   9.857 -0.4986 -0.0072  1.3861
39537SOL    HW225217  11.083   0.081   9.935  1.6401  1.0674  0.2832
39538SOL     OW25218  11.745  10.642   2.306 -0.0511  0.3257 -0.5010
39538SOL    HW125219  11.776  10.559   2.269 -0.5655 -0.4918  0.8144
39538SOL    HW225220  11.824  10.696   2.314  0.1684  0.2835 -2.1089
39539SOL     OW25221   1.562  12.259   3.118  0.2483 -0.2643 -0.1058
39539SOL    HW125222   1.539  12.263   3.026  0.1917 -0.0944 -0.0840
39539SOL    HW225223   1.651  12.295   3.123  0.5833 -1.0568 -0.2102
39540SOL     OW25224   7.578  11.987  10.397  0.0016 -0.1190  0.3072
39540SOL    HW125225   7.594  12.054  10.331 -0.6932  0.6775  0.9192
39540SOL    HW225226   7.501  11.940  10.366 -0.3791  0.3141  0.5872
39541SOL     OW25227  11.159  12.774   6.185  0.1206  0.0841  0.2407
39541SOL    HW125228  11.146  12.699   6.242  1.2947 -0.1014  0.2842
39541SOL    HW225229  11.148  12.850   6.242  1.6564 -0.1042  0.8258
39542SOL     OW25230  12.746   4.837   0.450  0.2426  0.3059 -0.2793
39542SOL    HW125231  12.784   4.861   0.534  1.5808 -1.9939 -0.1228
39542SOL    HW225232  12.672   4.781   0.473  0.5927 -0.3002 -0.5752
39543SOL     OW25233   4.608   0.587   4.246  0.3811  0.1073 -0.1460
39543SOL    HW125234   4.545   0.515   4.237  0.5802 -0.0052 -0.7522
39543SOL    HW225235   4.682   0.559   4.192  0.4489  0.7762 -0.4003
39544SOL     OW25236   1.880   0.638   1.486  0.1093 -0.0202 -0.0863
39544SOL    HW125237   1.885   0.690   1.566  0.3935 -0.9008  0.4827
39544SOL    HW225238   1.790   0.651   1.455  0.2125  0.8982 -0.0306
39545SOL     OW25239   6.522   1.123   8.544 -0.4582  0.3959  0.1295
39545SOL    HW125240   6.575   1.062   8.493 -2.3285 -0.4775 -0.8642
39545SOL    HW225241   6.511   1.082   8.629  1.4977  1.2035  0.8266
39546SOL     OW25242   1.788   5.792   7.495 -0.5590  0.3630 -0.0664
39546SOL    HW125243   1.763   5.841   7.573  2.0088 -0.0307  1.0916
39546SOL    HW225244   1.830   5.713   7.528  0.4351  0.0811 -1.8351
39547SOL     OW25245  10.806   8.633   3.411  0.5105  0.1241 -0.5737
39547SOL    HW125246  10.886   8.645   3.360 -0.7166 -1.2719 -3.0078
39547SOL    HW225247  10.825   8.560   3.470  1.4290  0.7062 -0.1265
39548SOL     OW25248   4.964   3.026   4.702 -0.5249 -0.0940 -0.3563
39548SOL    HW125249   4.917   2.970   4.764 -1.6862 -2.0593 -2.8167
39548SOL    HW225250   4.909   3.103   4.693 -1.5237 -0.8038 -0.5496
39549SOL     OW25251  10.652   5.928   0.503 -0.2325  0.7272  0.6399
39549SOL    HW125252  10.715   5.879   0.557 -0.9476 -0.5261  0.3794
39549SOL    HW225253  10.630   5.867   0.432 -1.7142  1.1590  0.7154
39550SOL     OW25254   0.386   4.189   3.081 -0.6220  0.6745 -0.6628
39550SOL    HW125255   0.439   4.266   3.062  0.8779  0.2624  1.5372
39550SOL    HW225256   0.334   4.214   3.157 -0.3823 -0.3509 -0.1453
39551SOL     OW25257   6.156  12.355  10.727  0.2288  0.2803  0.0993
39551SOL    HW125258   6.215  12.358  10.652  0.3643  1.7184  0.2363
39551SOL    HW225259   6.164  12.265  10.760 -0.2088 -0.5549 -1.8833
39552SOL     OW25260   2.429  11.516   5.754 -0.5606 -0.0674 -0.0906
39552SOL    HW125261   2.362  11.533   5.688 -0.2663 -1.4364 -0.7816
39552SOL    HW225262   2.391  11.447   5.809  0.7893 -1.9662 -1.3918
39553SOL     OW25263  10.154   7.377   5.709  0.6206  0.0854 -1.5923
39553SOL    HW125264  10.248   7.369   5.727  0.4010  0.4557 -0.1778
39553SOL    HW225265  10.124   7.287   5.698  0.8256 -0.1696 -0.2582
39554SOL     OW25266  12.280   8.864  10.747  0.1816 -0.6893 -0.0444
39554SOL    HW125267  12.190   8.894  10.763 -0.0959 -1.0912 -0.7825
39554SOL    HW225268  12.331   8.944  10.739  0.0272 -0.4612  1.0939
39555SOL     OW25269   4.133   2.365   9.952 -0.5967  0.6618  0.4482
39555SOL    HW125270   4.202   2.382  10.016 -0.7738  0.3471  0.7231
39555SOL    HW225271   4.077   2.300   9.994 -0.1793 -0.2778 -0.4130
39556SOL     OW25272  11.519   6.666  10.435  0.6337 -0.1267 -0.4465
39556SOL    HW125273  11.610   6.660  10.463  1.2709  0.2646 -2.3275
39556SOL    HW225274  11.471   6.686  10.515  2.1237 -0.7896  0.6649
39557SOL     OW25275  10.352  10.505  10.468  0.0326 -0.1399 -0.5618
39557SOL    HW125276  10.279  10.447  10.491  0.0511 -0.2142 -0.6908
39557SOL    HW225277  10.323  10.592  10.497  1.1597 -0.5918  2.2510
39558SOL     OW25278  10.061  12.777   0.332  0.2382 -0.4204  0.0496
39558SOL    HW125279  10.094  12.688   0.346  1.2356  0.0641  0.9542
39558SOL    HW225280  10.138  12.833   0.341 -0.2354  0.4956 -1.2576
39559SOL     OW25281   8.202  10.839   6.713  0.4503 -0.4532 -0.2249
39559SOL    HW125282   8.143  10.911   6.690  1.3962  0.7608  0.9754
39559SOL    HW225283   8.194  10.831   6.808  2.7809  0.3350  0.1100
39560SOL     OW25284   0.889   0.605   3.948 -0.0895  0.5636 -0.3107
39560SOL    HW125285   0.807   0.646   3.975 -0.6194 -1.2166  1.0467
39560SOL    HW225286   0.949   0.678   3.931 -1.9629  1.9062 -1.4430
39561SOL     OW25287   1.738  11.006   5.675  0.1003  0.2436  0.0695
39561SOL    HW125288   1.808  11.001   5.610  0.0588 -0.4863  0.0712
39561SOL    HW225289   1.669  10.950   5.639  0.9631 -2.1113  1.7958
39562SOL     OW25290   1.082   9.090   4.549 -0.4408  0.0485 -0.3152
39562SOL    HW125291   1.013   9.054   4.605  0.3586  0.3394  0.8950
39562SOL    HW225292   1.157   9.033   4.565 -0.6862 -1.0383 -2.5590
39563SOL     OW25293   6.626   0.681   0.410 -0.1322 -0.0363  0.6139
39563SOL    HW125294   6.683   0.614   0.370  0.5829  0.2765  1.0937
39563SOL    HW225295   6.674   0.763   0.400 -1.3968  0.5896 -0.7694
39564SOL     OW25296   5.232   1.864   7.762  0.3775  0.0174 -0.2095
39564SOL    HW125297   5.152   1.907   7.730  0.0965 -1.2585 -1.3093
39564SOL    HW225298   5.209   1.771   7.765  2.1006 -0.4908 -1.4760
39565SOL     OW25299   5.836   4.518   2.965 -0.0396  0.1898  0.0479
39565SOL    HW125300   5.875   4.551   3.046 -0.1132 -0.4422  0.3494
39565SOL    HW225301   5.748   4.556   2.963 -0.4033 -0.5728  0.7813
39566SOL     OW25302   5.450  11.131   5.848 -0.1097 -0.1699 -0.2111
39566SOL    HW125303   5.366  11.168   5.875 -0.5599 -1.9064  1.0061
39566SOL    HW225304   5.516  11.182   5.896 -0.6882 -0.7204  1.2331
39567SOL     OW25305   8.152  12.664  11.679  0.1056  0.1942  0.1922
39567SOL    HW125306   8.166  12.674  11.585  0.4730  1.1582  0.3315
39567SOL    HW225307   8.082  12.600  11.687  0.6528 -0.5458 -0.7149
39568SOL     OW25308   5.678   3.169  11.564 -0.4626  0.0036  0.1557
39568SOL    HW125309   5.707   3.137  11.649  0.0745  0.7492  0.2660
39568SOL    HW225310   5.758   3.199  11.521 -0.3445 -2.4628 -1.5758
39569SOL     OW25311   7.061  12.678  10.843 -0.2630  0.1458  0.0366
39569SOL    HW125312   7.014  12.761  10.847 -1.3677 -0.4054 -0.9545
39569SOL    HW225313   7.039  12.642  10.757  1.1102 -0.6531 -0.0136
39570SOL     OW25314   4.254   6.141   6.367  0.7676 -0.3775 -0.3597
39570SOL    HW125315   4.192   6.205   6.331  0.3070 -0.3834  0.3993
39570SOL    HW225316   4.279   6.178   6.452  0.9165 -0.9414 -0.1546
39571SOL     OW25317   7.690   6.785  12.099 -0.2110  0.0398 -0.6690
39571SOL    HW125318   7.605   6.764  12.061 -0.6694  0.3091  0.1692
39571SOL    HW225319   7.689   6.881  12.108 -0.2597 -0.0471  0.3321
39572SOL     OW25320   6.869  12.553   9.680 -0.3913 -0.4714  0.1022
39572SOL    HW125321   6.838  12.634   9.638  1.3301  0.4607  0.5135
39572SOL    HW225322   6.900  12.499   9.608 -2.7548 -1.3998 -0.3124
39573SOL     OW25323  11.975   5.716   0.247  1.0325 -0.0908 -0.3981
39573SOL    HW125324  11.976   5.810   0.265 -1.0092 -0.2050  0.5872
39573SOL    HW225325  12.042   5.680   0.304  0.5275  0.5734  0.6409
39574SOL     OW25326   2.162   6.993   3.027 -0.0045 -0.1699 -0.3832
39574SOL    HW125327   2.202   6.913   3.060 -0.7950 -0.6378 -0.5348
39574SOL    HW225328   2.216   7.064   3.063  1.5353 -0.7938 -1.3447
39575SOL     OW25329   3.671  12.418   5.987 -0.4556  0.7549 -0.5286
39575SOL    HW125330   3.604  12.353   6.005 -1.0029  1.4678  0.0836
39575SOL    HW225331   3.665  12.433   5.893 -1.6598  1.3232 -0.3849
39576SOL     OW25332   1.250   2.188  11.328 -0.1301 -0.0661  0.0473
39576SOL    HW125333   1.186   2.161  11.263  0.9904 -1.1884 -0.6225
39576SOL    HW225334   1.233   2.282  11.341 -3.1491 -0.6455  1.3310
39577SOL     OW25335   0.320   8.332  12.691 -0.1688  0.2173  0.2062
39577SOL    HW125336   0.314   8.243  12.727 -0.6117  0.1728  0.0294
39577SOL    HW225337   0.401   8.367  12.728 -0.7678  0.2955  1.5263
39578SOL     OW25338  12.726  12.366   1.692 -0.4209  0.3788  0.0779
39578SOL    HW125339  12.692  12.321   1.769  0.5864 -0.0777  0.2761
39578SOL    HW225340  12.791  12.306   1.656  0.9414  1.6466  0.3341
39579SOL     OW25341   6.163   4.373   3.216 -0.1771 -0.3509 -0.3252
39579SOL    HW125342   6.236   4.361   3.156  0.5142 -2.3935  0.8451
39579SOL    HW225343   6.105   4.299   3.199 -0.5359 -0.3254  0.7220
39580SOL     OW25344   5.832  10.150   7.170  0.0485 -0.1279 -0.2187
39580SOL    HW125345   5.747  10.107   7.178  0.5692 -1.5934 -1.9447
39580SOL    HW225346   5.811  10.243   7.162 -1.3463 -0.3983  0.0535
39581SOL     OW25347   1.573  10.679   8.947  0.4360  0.5852 -0.3861
39581SOL    HW125348   1.634  10.741   8.986  2.4243 -1.6081  0.2324
39581SOL    HW225349   1.567  10.608   9.012 -0.9288 -0.3480 -1.4839
39582SOL     OW25350  10.711   2.619  12.351  0.5130 -0.5510 -0.2167
39582SOL    HW125351  10.803   2.613  12.375  0.5579  0.6655 -0.0160
39582SOL    HW225352  10.706   2.575  12.266  1.9418  2.0328 -1.7978
39583SOL     OW25353   2.202   6.205  11.598  0.3702 -0.0493 -0.0885
39583SOL    HW125354   2.247   6.181  11.517  2.0618 -1.2571  1.1107
39583SOL    HW225355   2.216   6.129  11.656  0.6124  1.3976  1.8491
39584SOL     OW25356   3.867   8.559   0.003  1.3433  0.0206 -0.4939
39584SOL    HW125357   3.935   8.521   0.059  0.9744  0.0050 -0.0482
39584SOL    HW225358   3.852   8.493  -0.065 -0.9386 -1.7958  1.5539
39585SOL     OW25359  11.445   0.500   5.485 -0.4247 -0.3622  0.2147
39585SOL    HW125360  11.366   0.528   5.531 -0.6676 -1.4726  0.4989
39585SOL    HW225361  11.510   0.488   5.553  0.0200  0.6214 -0.0283
39586SOL     OW25362  10.955  10.092  12.125  0.4489 -0.4250 -0.1372
39586SOL    HW125363  11.029  10.153  12.117  0.7587 -0.9413 -1.2866
39586SOL    HW225364  10.888  10.128  12.067  0.0724 -0.3887  0.3113
39587SOL     OW25365   2.492   7.131   1.407  0.8458  0.0834  0.0737
39587SOL    HW125366   2.463   7.161   1.494 -0.5829 -0.1720 -0.2882
39587SOL    HW225367   2.428   7.168   1.347  1.8989  0.3671 -0.9137
39588SOL     OW25368   7.890  12.169  10.320  0.2750 -0.1306 -0.5943
39588SOL    HW125369   7.930  12.240  10.270 -1.3091  0.7070 -0.7361
39588SOL    HW225370   7.906  12.191  10.412 -1.4426  1.2592 -0.5634
39589SOL     OW25371   7.870  11.316   7.077  0.3699  0.2309  0.6144
39589SOL    HW125372   7.788  11.268   7.092  0.1998  0.4871  0.5022
39589SOL    HW225373   7.874  11.328   6.982  0.0403  1.0896  0.6985
39590SOL     OW25374   8.070   1.115   8.092  0.3457  0.4419 -0.0199
39590SOL    HW125375   8.022   1.034   8.075  2.4269 -1.3352  1.9215
39590SOL    HW225376   8.017   1.160   8.158 -0.9653  0.8625 -1.3078
39591SOL     OW25377  12.285   3.746   0.169  0.0925 -0.2686  0.1151
39591SOL    HW125378  12.329   3.690   0.106 -0.0802 -0.0477 -0.2078
39591SOL    HW225379  12.194   3.714   0.171 -0.2115  0.5005 -0.6796
39592SOL     OW25380   5.143   5.640   1.201  0.0222  0.2927  0.3176
39592SOL    HW125381   5.163   5.571   1.138  1.1583  0.3109  0.6452
39592SOL    HW225382   5.108   5.594   1.277 -1.7613  0.2977 -0.4331
39593SOL     OW25383   4.364   7.549   9.818 -0.5551 -0.3508 -0.0312
39593SOL    HW125384   4.380   7.637   9.784  1.1907 -0.7904 -0.4518
39593SOL    HW225385   4.295   7.513   9.761 -0.6072  0.3955 -0.4475
39594SOL     OW25386   9.021   5.962  11.513  0.2375 -0.1637 -0.0123
39594SOL    HW125387   8.962   5.935  11.584  0.5827 -1.6077 -0.2442
39594SOL    HW225388   9.095   5.902  11.520  0.7407  0.3256 -0.9776
39595SOL     OW25389   1.627   2.028  11.650 -0.2063 -0.3657 -0.2300
39595SOL    HW125390   1.555   2.032  11.713  0.5760 -0.0806  0.6848
39595SOL    HW225391   1.696   1.979  11.695  0.6576  0.5038 -0.5485
39596SOL     OW25392   2.043   3.518   2.760  0.0078  0.1047 -0.0440
39596SOL    HW125393   2.001   3.555   2.837  1.9674  0.9898  0.6856
39596SOL    HW225394   2.072   3.594   2.709  0.3270 -0.4543 -0.7236
39597SOL     OW25395  12.578   8.764   4.728 -0.0647  0.1888 -0.2390
39597SOL    HW125396  12.516   8.694   4.750 -1.7664  1.4921 -0.7064
39597SOL    HW225397  12.594   8.754   4.634 -2.0672  1.7037 -0.8004
39598SOL     OW25398   4.513   6.363   3.047  0.0908 -0.4607 -0.1702
39598SOL    HW125399   4.527   6.458   3.047  0.7280 -0.5476 -0.5331
39598SOL    HW225400   4.446   6.349   2.981  0.6522 -0.3391 -0.7831
39599SOL     OW25401  10.499   2.465   2.328  0.4797 -0.3154 -0.0782
39599SOL    HW125402  10.532   2.523   2.397  1.5138  0.0858 -0.8885
39599SOL    HW225403  10.557   2.390   2.331  0.7088 -0.1662 -0.6970
39600SOL     OW25404   8.888   0.141  11.123  0.0052  0.0788  0.1030
39600SOL    HW125405   8.970   0.143  11.174 -0.6330 -0.4013  1.1973
39600SOL    HW225406   8.899   0.065  11.065  0.1622 -0.2659  0.5715
39601SOL     OW25407  12.511   1.905   5.698  0.1374 -0.0386 -0.6137
39601SOL    HW125408  12.440   1.867   5.647  0.0782  0.4062 -0.8653
39601SOL    HW225409  12.498   1.999   5.691 -0.1726  0.0213  0.6653
39602SOL     OW25410   8.733  10.826   6.607 -0.4449  0.1283  0.1722
39602SOL    HW125411   8.653  10.810   6.657 -1.0920 -3.8672 -1.7485
39602SOL    HW225412   8.799  10.770   6.648 -0.3667 -1.3528 -1.8318
39603SOL     OW25413   6.253  11.746  12.703  0.3054  0.2481 -0.3442
39603SOL    HW125414   6.173  11.721  12.658  0.7610  0.5775 -1.3632
39603SOL    HW225415   6.276  11.669  12.756 -0.3157 -0.0927 -0.5673
39604SOL     OW25416   0.242   0.314   2.480 -0.4325 -0.8068 -0.3549
39604SOL    HW125417   0.226   0.220   2.471 -0.8591 -0.9641  1.6554
39604SOL    HW225418   0.209   0.351   2.398 -1.6286 -2.2516 -0.5814
39605SOL     OW25419   1.757   3.826   4.110  0.8574  0.9495 -0.1119
39605SOL    HW125420   1.672   3.784   4.097  0.6944  0.5869  1.8063
39605SOL    HW225421   1.813   3.789   4.042 -0.6878  1.7990 -1.9266
39606SOL     OW25422  10.205   2.214   2.793  0.0944 -0.7096 -0.1268
39606SOL    HW125423  10.185   2.306   2.774 -0.3499 -1.1525 -1.9371
39606SOL    HW225424  10.147   2.164   2.736  0.4102 -2.1367  0.7517
39607SOL     OW25425   5.894  12.746   1.509  0.5683  0.2001 -0.2606
39607SOL    HW125426   5.952  12.797   1.565  3.3974 -1.5794 -1.3401
39607SOL    HW225427   5.882  12.799   1.430  3.7361 -0.7016 -1.5120
39608SOL     OW25428   5.618   8.839   3.105  0.3009  0.6913  0.0697
39608SOL    HW125429   5.599   8.749   3.135  1.8048 -0.7286 -2.8591
39608SOL    HW225430   5.646   8.885   3.184  0.9364 -1.8507  1.4303
39609SOL     OW25431   5.918  12.414   9.797  0.1228 -0.2012 -0.1651
39609SOL    HW125432   5.903  12.440   9.888 -0.1019  0.8973 -0.4990
39609SOL    HW225433   5.946  12.323   9.802 -2.6830 -1.0930  0.8080
39610SOL     OW25434   8.075  11.071  10.694 -0.0993  0.8352 -0.3314
39610SOL    HW125435   7.998  11.116  10.660 -0.5460  0.8293  0.6528
39610SOL    HW225436   8.130  11.055  10.617 -0.3221  2.3138 -0.8244
39611SOL     OW25437  10.996   0.186   2.910  0.1776 -0.0967 -0.1111
39611SOL    HW125438  10.904   0.180   2.937  0.0736 -1.4612 -0.7007
39611SOL    HW225439  11.043   0.212   2.990 -0.5687 -0.5542  0.4804
39612SOL     OW25440   0.928   7.172   3.106  0.0335 -1.2186 -0.1867
39612SOL    HW125441   0.926   7.264   3.131  1.6872 -1.1733 -0.0865
39612SOL    HW225442   0.967   7.172   3.018 -1.6987 -1.7017 -0.9908
39613SOL     OW25443   3.460   6.825   6.119  0.4419  0.6396  0.1090
39613SOL    HW125444   3.492   6.907   6.156 -0.4164  1.3598 -0.7097
39613SOL    HW225445   3.531   6.762   6.136  1.8762  1.9509 -0.7983
39614SOL     OW25446   0.474   6.017   7.389 -0.2581 -0.3182  0.3084
39614SOL    HW125447   0.495   6.021   7.482  1.0114  0.3919  0.0264
39614SOL    HW225448   0.559   6.022   7.345 -0.8821  0.2311 -0.9026
39615SOL     OW25449   8.302   8.359   9.685 -0.4382  0.4611 -0.3837
39615SOL    HW125450   8.237   8.407   9.635 -2.7290 -1.5438  0.4561
39615SOL    HW225451   8.364   8.327   9.620 -0.9933  1.3693 -1.3825
39616SOL     OW25452   9.514   3.711   9.289  0.0230 -0.3116  0.6936
39616SOL    HW125453   9.525   3.731   9.196 -0.4391  0.8448  0.8697
39616SOL    HW225454   9.503   3.797   9.331  0.5451 -0.7938  1.8627
39617SOL     OW25455   1.890   9.205   0.525 -0.3660 -0.1695  0.3850
39617SOL    HW125456   1.833   9.215   0.601  0.1242  0.1757  0.7116
39617SOL    HW225457   1.871   9.117   0.492 -0.8278 -0.1936  0.6958
39618SOL     OW25458   3.406  10.377   6.555 -0.3619  0.3732  0.1760
39618SOL    HW125459   3.479  10.343   6.503  0.5458  0.3901  1.4027
39618SOL    HW225460   3.343  10.408   6.490 -0.1710 -1.4358 -0.9520
39619SOL     OW25461   5.258   8.697  11.460  0.0040  0.4410 -0.0219
39619SOL    HW125462   5.203   8.745  11.399 -2.2225 -2.9107 -0.9523
39619SOL    HW225463   5.301   8.630  11.406  0.3256 -0.7406  1.6169
39620SOL     OW25464  12.051   0.250   6.073  0.0957  0.2273 -0.3228
39620SOL    HW125465  12.057   0.338   6.110  1.2767  0.7575 -1.7001
39620SOL    HW225466  11.959   0.238   6.052 -0.0821  1.0852 -0.0481
39621SOL     OW25467   5.163   2.742   7.821  0.0538  0.6059 -0.1635
39621SOL    HW125468   5.164   2.649   7.844 -0.4583  0.7536  0.5228
39621SOL    HW225469   5.151   2.743   7.726 -2.0673 -0.0440  0.0303
39622SOL     OW25470   0.966   9.157   9.475 -0.0209 -0.0339 -0.1328
39622SOL    HW125471   0.967   9.215   9.399 -0.3722  0.1643  0.0121
39622SOL    HW225472   0.963   9.216   9.550  0.7507 -0.2206  0.0550
39623SOL     OW25473   2.405   4.615  10.812 -0.1137  0.1552 -0.2925
39623SOL    HW125474   2.463   4.554  10.859  0.4367  0.8580 -0.0413
39623SOL    HW225475   2.392   4.573  10.727 -0.4281 -0.7191  0.1704
39624SOL     OW25476   9.265  10.185   9.523  0.9050  0.0812  0.0948
39624SOL    HW125477   9.292  10.158   9.610  0.9838 -1.7646 -0.4640
39624SOL    HW225478   9.225  10.271   9.536  2.4824  0.6470  1.6720
39625SOL     OW25479   9.769   9.271   0.309 -0.1208 -0.0154  0.6932
39625SOL    HW125480   9.746   9.304   0.223  0.6549 -1.0561  0.0636
39625SOL    HW225481   9.686   9.245   0.348 -0.4873  0.5431  0.2968
39626SOL     OW25482   7.093   7.328  10.717  0.1669  0.1641 -0.3926
39626SOL    HW125483   7.143   7.378  10.781 -0.0099 -1.0242  0.7074
39626SOL    HW225484   7.039   7.269  10.770 -0.7802 -0.0936 -1.6135
39627SOL     OW25485   5.811   5.118   2.156 -0.0229  0.2662 -0.1899
39627SOL    HW125486   5.770   5.204   2.162  0.7898  0.6498  0.0397
39627SOL    HW225487   5.894   5.134   2.112 -0.6716 -0.7031 -1.8545
39628SOL     OW25488  11.315  11.266   8.171 -0.1373 -0.0694  0.4795
39628SOL    HW125489  11.238  11.212   8.150  0.7949 -1.5492  0.7004
39628SOL    HW225490  11.375  11.206   8.215  2.6670 -0.0287 -2.8484
39629SOL     OW25491   8.275  12.547   8.378  0.1642  0.2795 -0.2851
39629SOL    HW125492   8.291  12.463   8.334  0.3315  0.9234 -1.4744
39629SOL    HW225493   8.298  12.613   8.314 -0.7048  1.2503  0.3687
39630SOL     OW25494   4.860   8.769   9.743 -0.1753  0.0358 -0.0584
39630SOL    HW125495   4.831   8.714   9.816  0.8879 -0.8857 -0.2878
39630SOL    HW225496   4.822   8.855   9.760 -2.3012 -0.8728  0.0657
39631SOL     OW25497   1.782   4.520  11.442 -0.3985  0.4935 -0.7548
39631SOL    HW125498   1.743   4.592  11.491 -2.2549 -1.0636  0.2007
39631SOL    HW225499   1.734   4.520  11.358 -1.2155 -0.2692 -0.3108
39632SOL     OW25500   1.787   8.863   7.192 -0.2204  0.0716  0.1142
39632SOL    HW125501   1.742   8.911   7.261  0.9448 -1.4693  2.0620
39632SOL    HW225502   1.865   8.916   7.174 -0.3819  0.3364  0.1887
39633SOL     OW25503   4.657   2.338  12.167  0.2826  0.4309  0.0772
39633SOL    HW125504   4.741   2.380  12.149  0.9208 -0.3472  1.1320
39633SOL    HW225505   4.593   2.409  12.159  1.1616  1.2785  0.3425
39634SOL     OW25506   4.758   7.441   1.314 -0.3642 -0.1929  0.3471
39634SOL    HW125507   4.712   7.431   1.397 -0.3168  0.0930  0.4081
39634SOL    HW225508   4.736   7.529   1.284  0.0983 -0.0746  0.3491
39635SOL     OW25509   0.130  10.976   1.536 -0.0851 -0.2693 -0.0780
39635SOL    HW125510   0.219  10.942   1.528  0.4621  1.0941 -0.0266
39635SOL    HW225511   0.074  10.900   1.520  1.0744 -0.9922 -0.8548
39636SOL     OW25512   4.998  11.630  10.110  0.2089 -0.5028 -0.2629
39636SOL    HW125513   4.939  11.668  10.046  0.6324 -1.3170 -1.1628
39636SOL    HW225514   4.972  11.670  10.193 -0.6692  0.2017 -0.8546
39637SOL     OW25515   6.814   9.463   0.528 -0.3500 -0.3097  0.3883
39637SOL    HW125516   6.749   9.527   0.555  0.8845  1.0724  0.1712
39637SOL    HW225517   6.783   9.430   0.444 -0.4284  0.8411 -0.0395
39638SOL     OW25518  10.459   1.078   1.990  0.0246 -0.1419  0.0418
39638SOL    HW125519  10.520   1.004   1.995 -2.1383 -2.1718 -1.2701
39638SOL    HW225520  10.392   1.057   2.055 -1.3853 -0.1627 -1.3543
39639SOL     OW25521   8.053   7.019   1.677  0.2694  0.2584 -0.6007
39639SOL    HW125522   8.073   6.942   1.624  1.4902  0.0469  0.1440
39639SOL    HW225523   7.959   7.011   1.696 -0.0107 -0.0789 -2.0248
39640SOL     OW25524   6.686  11.360   4.372 -0.5833 -0.3763  0.2230
39640SOL    HW125525   6.750  11.365   4.300 -0.9126  0.7462 -0.0147
39640SOL    HW225526   6.736  11.383   4.450  0.1017 -2.9012  0.6260
39641SOL     OW25527  12.431  12.192  11.501 -0.7319 -0.0055 -0.7941
39641SOL    HW125528  12.446  12.103  11.534  0.3221  0.8826  1.2414
39641SOL    HW225529  12.442  12.183  11.406  3.3756 -1.3629 -0.3799
39642SOL     OW25530   3.688   0.839   2.466  0.6921  0.0162  0.6367
39642SOL    HW125531   3.762   0.779   2.452  0.5683 -0.0721  0.3517
39642SOL    HW225532   3.613   0.794   2.426  0.6393  0.4528  0.2432
39643SOL     OW25533   1.536   7.948  11.586 -0.1863  0.0300 -0.2316
39643SOL    HW125534   1.584   8.030  11.599 -1.6447  0.6121  2.1542
39643SOL    HW225535   1.587   7.882  11.633 -0.7231  0.2770  0.7208
39644SOL     OW25536   6.371   3.430  12.663  0.2508 -0.0493  0.3611
39644SOL    HW125537   6.305   3.414  12.596  0.6824  2.8998 -0.9201
39644SOL    HW225538   6.447   3.379  12.635  0.2116  0.6572 -1.0717
39645SOL     OW25539   2.613   3.663   4.467  0.0042 -0.1591  0.1977
39645SOL    HW125540   2.524   3.661   4.501  0.3724  2.3228  1.5373
39645SOL    HW225541   2.663   3.609   4.529 -0.2214  0.1542  0.6613
39646SOL     OW25542   5.832   0.682   9.759  0.3956 -0.0247  0.5443
39646SOL    HW125543   5.748   0.643   9.736  0.6612 -0.9023  1.0448
39646SOL    HW225544   5.882   0.679   9.677  0.9133 -2.0599  0.8778
39647SOL     OW25545  10.832   7.022   4.679 -0.2443  0.0435  0.1832
39647SOL    HW125546  10.905   7.000   4.737 -0.2085 -0.3260  0.0055
39647SOL    HW225547  10.777   7.081   4.730  0.7425  1.2044 -0.0738
39648SOL     OW25548   9.346   9.143   1.169  0.3621 -0.6899  0.2999
39648SOL    HW125549   9.298   9.183   1.097  0.7338 -0.0363  0.4052
39648SOL    HW225550   9.311   9.054   1.175 -0.0511 -0.5759 -0.3319
39649SOL     OW25551   5.513   9.106   5.764 -0.8935 -0.7923  0.6849
39649SOL    HW125552   5.453   9.128   5.693 -0.9565 -2.0202  0.3324
39649SOL    HW225553   5.474   9.145   5.841 -1.3726 -0.3187  0.2111
39650SOL     OW25554   4.787   9.608   7.253 -0.8111 -0.4972 -0.2901
39650SOL    HW125555   4.757   9.572   7.336  0.1810 -0.8056 -0.0609
39650SOL    HW225556   4.876   9.576   7.243 -0.4508  0.6269 -0.8290
39651SOL     OW25557  10.340   3.768   9.670 -0.0126  0.3562 -0.2802
39651SOL    HW125558  10.254   3.728   9.657  0.3113 -0.2153 -0.7225
39651SOL    HW225559  10.389   3.746   9.591 -0.1925  2.6737 -1.1282
39652SOL     OW25560  10.810   8.793   4.291  0.3354  0.1260  0.1140
39652SOL    HW125561  10.788   8.704   4.319 -0.1222  0.6378  1.4385
39652SOL    HW225562  10.890   8.783   4.239 -0.5651 -1.2397 -1.0728
39653SOL     OW25563   0.109   0.748   8.698  0.1587  0.0737 -0.2142
39653SOL    HW125564   0.092   0.769   8.790 -0.2671  0.3934 -0.3586
39653SOL    HW225565   0.192   0.791   8.678  0.4570 -0.3421  0.1326
39654SOL     OW25566   6.718   8.265   0.843 -0.0327  0.7331  0.0907
39654SOL    HW125567   6.804   8.226   0.832  0.0453  0.6245  0.9764
39654SOL    HW225568   6.735   8.355   0.869 -0.2075  1.1218 -1.0920
39655SOL     OW25569  12.530  10.625   3.525  0.3120 -0.9638  0.1010
39655SOL    HW125570  12.520  10.564   3.452  1.4905 -1.2710  0.1755
39655SOL    HW225571  12.589  10.692   3.493  0.3361 -0.7541  0.5637
39656SOL     OW25572  12.548  11.541  11.314 -0.0678  0.0441  0.1290
39656SOL    HW125573  12.594  11.581  11.240 -0.2334 -0.3032 -0.1659
39656SOL    HW225574  12.455  11.545  11.289 -0.1510  0.1880  0.4500
39657SOL     OW25575   4.883   0.969   1.172  0.1768  0.3654 -0.0716
39657SOL    HW125576   4.926   1.035   1.118 -0.2306  0.9590  0.3296
39657SOL    HW225577   4.904   0.886   1.128  2.6813  0.4905  0.6970
39658SOL     OW25578   1.286   8.720   9.047  0.1464  0.4661  0.7337
39658SOL    HW125579   1.369   8.679   9.073  0.0417  0.1690  0.6059
39658SOL    HW225580   1.299   8.813   9.064  1.6031  0.8657 -1.9459
39659SOL     OW25581   4.754   6.990   6.284  0.6123  0.2334  0.1681
39659SOL    HW125582   4.698   6.914   6.296  1.0212 -0.1525 -0.3199
39659SOL    HW225583   4.705   7.047   6.225  0.4753  0.1742  0.2239
39660SOL     OW25584  12.471   3.735  12.672  0.0620  0.4256  0.7619
39660SOL    HW125585  12.493   3.699  12.758 -1.1359  0.5780  1.1444
39660SOL    HW225586  12.456   3.658  12.617 -0.8263  0.3151  1.1396
39661SOL     OW25587  12.051   1.221   4.403 -0.0540 -0.3550  0.0987
39661SOL    HW125588  12.118   1.156   4.421  1.4139  0.9931 -0.2904
39661SOL    HW225589  12.019   1.200   4.316  0.5265 -0.4502 -0.0898
39662SOL     OW25590  11.861   1.911  11.466  0.6580 -0.1617  0.6781
39662SOL    HW125591  11.931   1.845  11.463  1.9735  1.2143 -0.2923
39662SOL    HW225592  11.825   1.910  11.377  0.0919 -0.1917  0.9086
39663SOL     OW25593   3.989   0.105  12.558  0.3880  0.3156  0.4264
39663SOL    HW125594   4.013   0.022  12.600 -1.0263  0.2547  1.1508
39663SOL    HW225595   4.021   0.172  12.619  0.5708  0.2873  0.3638
39664SOL     OW25596   9.710   0.928  10.424 -0.1634  0.4289  0.1673
39664SOL    HW125597   9.623   0.900  10.399  0.3476 -2.4592  1.2710
39664SOL    HW225598   9.769   0.872  10.374  1.0091  0.8125  1.0556
39665SOL     OW25599   9.106  10.520   8.839 -0.3928 -0.4624 -0.7540
39665SOL    HW125600   9.178  10.457   8.841 -0.7887 -0.9822  2.0362
39665SOL    HW225601   9.133  10.586   8.776  1.9149 -1.3442 -0.7768
39666SOL     OW25602  10.690   4.722   3.568  0.4793  0.5058 -0.2694
39666SOL    HW125603  10.632   4.726   3.492  0.5609  0.2547 -0.3462
39666SOL    HW225604  10.770   4.765   3.540 -0.1229  2.0745  0.2613
39667SOL     OW25605   6.684   7.785   2.759 -0.4370 -0.2844 -0.0517
39667SOL    HW125606   6.751   7.784   2.690  0.4325 -1.6356  0.7600
39667SOL    HW225607   6.627   7.858   2.736  2.2717  2.1040  0.1035
39668SOL     OW25608   1.589   5.889   4.430 -0.1254 -0.4032  0.4659
39668SOL    HW125609   1.632   5.865   4.348  1.2688 -0.5439  1.2155
39668SOL    HW225610   1.496   5.870   4.414  0.1694 -0.8142 -0.9302
39669SOL     OW25611   2.945   9.195   1.195  0.0676 -0.0463  0.0583
39669SOL    HW125612   2.863   9.207   1.147  0.7839 -0.1694 -1.2185
39669SOL    HW225613   2.962   9.279   1.236  0.4594  0.6920 -1.5435
39670SOL     OW25614   9.290  11.574  10.623 -0.0966 -0.2371 -0.2415
39670SOL    HW125615   9.197  11.548  10.624  0.1855 -1.3534  1.4053
39670SOL    HW225616   9.330  11.519  10.556 -0.5818  0.0987 -0.8133
39671SOL     OW25617   1.004   4.116  11.711 -0.3402 -0.2895 -0.2171
39671SOL    HW125618   1.003   4.141  11.803 -0.9684 -0.8011 -0.0798
39671SOL    HW225619   1.085   4.153  11.677 -0.3501  0.3350  0.4177
39672SOL     OW25620   1.686  11.231  12.005  0.0205  0.1351  0.3890
39672SOL    HW125621   1.686  11.248  11.911  0.6250 -2.1957 -0.1067
39672SOL    HW225622   1.647  11.144  12.014 -0.5435  0.5384  2.3699
39673SOL     OW25623   8.053   4.374   1.600  0.5944 -0.2420  0.3678
39673SOL    HW125624   8.101   4.408   1.676  1.3371 -1.0894  0.2913
39673SOL    HW225625   8.041   4.281   1.619 -0.1804 -0.2364 -0.0665
39674SOL     OW25626   4.259  11.938   7.188 -0.0879 -0.4461  0.4621
39674SOL    HW125627   4.290  11.909   7.102 -1.4775 -1.1585  0.1728
39674SOL    HW225628   4.270  12.033   7.186 -0.1735 -0.4397 -0.5424
39675SOL     OW25629  12.700   6.693   2.031  0.6500  0.0683 -0.0443
39675SOL    HW125630  12.718   6.780   2.067 -1.5996  0.1020  1.1799
39675SOL    HW225631  12.674   6.709   1.940 -0.0572  0.7363  0.2654
39676SOL     OW25632   1.819   2.995   3.996 -0.4149  0.5767  0.0504
39676SOL    HW125633   1.906   2.996   4.036 -0.0397 -3.1716 -0.2747
39676SOL    HW225634   1.759   3.017   4.067  0.5943 -0.7018  1.3690
39677SOL     OW25635  12.506   5.494   1.983  0.3702 -0.3960 -0.3586
39677SOL    HW125636  12.454   5.438   2.040  0.2052  0.2045  0.0956
39677SOL    HW225637  12.573   5.437   1.947  1.0536 -0.5945  1.1609
39678SOL     OW25638   3.516  12.394  10.579 -0.1666  0.7419  0.0879
39678SOL    HW125639   3.467  12.330  10.631  0.9311  2.0392  2.9795
39678SOL    HW225640   3.451  12.458  10.552 -0.8452 -0.2050 -0.5772
39679SOL     OW25641   0.409  11.609   1.588  0.2011  0.3848 -0.1353
39679SOL    HW125642   0.462  11.681   1.621 -0.1962  0.1528  1.0501
39679SOL    HW225643   0.429  11.535   1.646 -0.9235  0.1179 -0.0625
39680SOL     OW25644   8.351   4.695   2.174 -0.0366 -0.0498  0.0434
39680SOL    HW125645   8.316   4.609   2.150  0.9460 -0.2597 -0.7218
39680SOL    HW225646   8.326   4.752   2.102 -0.4398  0.2418  0.4140
39681SOL     OW25647   7.374   0.301   7.893 -0.1899  0.6875 -0.0456
39681SOL    HW125648   7.394   0.271   7.982  0.7254 -1.6951 -0.9779
39681SOL    HW225649   7.279   0.316   7.894 -0.6422 -1.6887  0.7554
39682SOL     OW25650   5.216   2.497   5.452 -0.1711  0.2360 -0.6554
39682SOL    HW125651   5.153   2.498   5.380 -0.2205  0.5032 -0.6060
39682SOL    HW225652   5.181   2.558   5.516 -0.0304  0.1366 -0.4827
39683SOL     OW25653   2.341   9.269   3.116 -0.1292  0.2517  0.2101
39683SOL    HW125654   2.403   9.302   3.180 -0.7994  0.4341  0.7754
39683SOL    HW225655   2.279   9.341   3.102  0.0409  0.2372 -0.6926
39684SOL     OW25656   3.599   3.076   1.143 -0.3183 -0.3152  0.0805
39684SOL    HW125657   3.638   2.990   1.131  0.2023 -0.0008 -0.5179
39684SOL    HW225658   3.514   3.058   1.184 -0.1363 -1.0933  0.1327
39685SOL     OW25659   2.506   9.515  11.055 -0.0543  0.3138 -0.0950
39685SOL    HW125660   2.548   9.431  11.068  0.1220  0.6409  1.7335
39685SOL    HW225661   2.413   9.496  11.053  0.0498 -0.2185 -2.5403
39686SOL     OW25662   9.106   3.362   1.475 -0.1851  0.3038 -0.7481
39686SOL    HW125663   9.050   3.424   1.522  0.1255 -0.4226  0.6399
39686SOL    HW225664   9.045   3.302   1.432 -0.5209 -0.5765  0.8794
39687SOL     OW25665   9.323  12.135  11.678 -0.1849  0.4126  0.3300
39687SOL    HW125666   9.381  12.201  11.716  1.0596 -0.8330  0.6780
39687SOL    HW225667   9.382  12.075  11.632 -1.3501 -0.0502 -0.6179
39688SOL     OW25668   4.153   1.691  11.196 -0.0243 -0.0533  0.2543
39688SOL    HW125669   4.203   1.663  11.119  2.5335  5.5136 -0.5837
39688SOL    HW225670   4.062   1.672  11.173  0.9206 -1.8786 -2.5144
39689SOL     OW25671  12.629   7.268   6.976  0.5289  0.1361  0.4621
39689SOL    HW125672  12.546   7.237   7.012  0.2830  1.5387  1.1957
39689SOL    HW225673  12.682   7.288   7.053  0.4101  2.1157  0.0846
39690SOL     OW25674   5.194   0.243   8.962  0.2961 -0.2346  0.5551
39690SOL    HW125675   5.114   0.236   8.909  0.1206 -1.1742  0.9145
39690SOL    HW225676   5.260   0.195   8.912 -0.2483 -2.4763  1.8387
39691SOL     OW25677   0.324   9.169   8.876  0.0829 -0.0097 -0.5538
39691SOL    HW125678   0.311   9.108   8.948  0.8164  0.2554 -0.1913
39691SOL    HW225679   0.283   9.125   8.801 -0.0573 -0.6095 -0.1389
39692SOL     OW25680  12.369   4.702   3.971  1.1185  0.4725 -0.5643
39692SOL    HW125681  12.368   4.611   3.942  0.5158  0.1041  0.5484
39692SOL    HW225682  12.334   4.751   3.896 -2.9600 -0.7391  0.2867
39693SOL     OW25683   0.899   6.839   8.976 -0.1373 -0.0640  0.5137
39693SOL    HW125684   0.838   6.823   9.048  1.9530 -1.6836  2.0259
39693SOL    HW225685   0.940   6.923   8.998  0.3082 -0.4267  1.0626
39694SOL     OW25686   4.683   0.311   0.384 -0.2462 -0.0857 -0.4095
39694SOL    HW125687   4.692   0.252   0.459  0.7353  1.1971  0.5148
39694SOL    HW225688   4.759   0.293   0.329  1.0442  1.5008  0.7672
39695SOL     OW25689  10.002  10.172  11.356  0.5001 -0.4372  0.6542
39695SOL    HW125690   9.975  10.117  11.430  1.1909 -1.4388  0.1787
39695SOL    HW225691   9.936  10.155  11.288 -0.7319  1.2639  1.3479
39696SOL     OW25692   5.808  10.429   7.556 -0.9305 -0.8946 -0.4420
39696SOL    HW125693   5.870  10.443   7.485 -1.4924 -0.0428 -0.7830
39696SOL    HW225694   5.728  10.398   7.513 -1.5071  0.3206 -0.2701
39697SOL     OW25695   2.219  10.286   8.018 -0.6457  0.1000  0.0026
39697SOL    HW125696   2.279  10.270   8.091 -0.4604  0.1397 -0.1405
39697SOL    HW225697   2.270  10.336   7.955 -0.2530 -1.4041 -0.9225
39698SOL     OW25698  12.731   6.020   0.472  0.7605 -0.2213  0.2475
39698SOL    HW125699  12.746   5.978   0.557  0.7252 -0.3157  0.2073
39698SOL    HW225700  12.698   5.950   0.416  4.7044 -1.2961 -1.1127
39699SOL     OW25701   6.659   6.947  10.621  0.3755 -0.1791  0.1754
39699SOL    HW125702   6.602   7.024  10.614 -1.4666 -1.1619  2.7244
39699SOL    HW225703   6.598   6.874  10.631  1.9478 -1.2322  3.6869
39700SOL     OW25704   7.127  11.290   3.018 -0.3844 -0.7056  0.2231
39700SOL    HW125705   7.052  11.265   2.965 -0.4038 -0.3349  0.0774
39700SOL    HW225706   7.099  11.274   3.108 -0.4069 -1.1858  0.1321
39701SOL     OW25707   8.769   2.885   2.673  0.3093  0.0384 -0.3309
39701SOL    HW125708   8.790   2.946   2.601  0.1043  0.6565  0.1243
39701SOL    HW225709   8.781   2.798   2.635 -1.0956  0.3296 -1.5230
39702SOL     OW25710   7.925   7.610   5.387 -0.3698  0.4321  0.5570
39702SOL    HW125711   8.003   7.657   5.357 -0.1407 -0.8657 -1.1026
39702SOL    HW225712   7.854   7.642   5.331 -0.5838  0.1672  0.6712
39703SOL     OW25713   6.879   2.648   0.727  0.0927 -0.0167  0.6716
39703SOL    HW125714   6.945   2.624   0.792 -0.9002 -1.1273  1.3258
39703SOL    HW225715   6.829   2.718   0.768  0.8093  0.7735  0.2064
39704SOL     OW25716  10.031   7.425   0.704 -0.3355 -0.2279  0.1925
39704SOL    HW125717  10.125   7.408   0.705 -0.0203  1.3104  1.8689
39704SOL    HW225718   9.991   7.345   0.737  0.3481 -0.9274 -0.6216
39705SOL     OW25719   7.017   7.507  12.597  0.3581 -0.4191  0.0316
39705SOL    HW125720   6.969   7.576  12.642 -0.8325  0.1174 -1.9225
39705SOL    HW225721   6.959   7.480  12.527  1.8993 -1.5611 -0.8657
39706SOL     OW25722   1.112   2.188   2.906  0.0553  0.0197 -0.3073
39706SOL    HW125723   1.019   2.196   2.885  0.0218  0.1248 -0.1227
39706SOL    HW225724   1.131   2.265   2.960 -0.0061 -0.5614  0.5565
39707SOL     OW25725  12.503   9.424   3.067  0.3642 -0.2645 -0.7594
39707SOL    HW125726  12.453   9.359   3.018  0.6019 -0.3044 -0.9523
39707SOL    HW225727  12.440   9.493   3.086  0.1654 -0.4459 -0.7509
39708SOL     OW25728   3.571  12.429   9.378  0.4823  0.8585  0.5235
39708SOL    HW125729   3.488  12.389   9.351  1.0087  0.3872 -0.4297
39708SOL    HW225730   3.564  12.436   9.473 -0.2333 -0.1479  0.5626
39709SOL     OW25731   0.994   0.792   1.108 -0.3995  0.0259  0.4483
39709SOL    HW125732   0.947   0.709   1.111 -0.7565  0.1459 -1.2261
39709SOL    HW225733   0.926   0.859   1.109 -0.2405  0.2249 -0.8134
39710SOL     OW25734  11.578   0.768   1.161  0.4253  0.2112 -0.3326
39710SOL    HW125735  11.504   0.796   1.107  0.3984 -0.4608 -0.6469
39710SOL    HW225736  11.654   0.776   1.104  1.1410  3.8461  0.8392
39711SOL     OW25737   4.118   0.797   3.776 -0.1483  0.0687 -0.2770
39711SOL    HW125738   4.128   0.839   3.861  1.8955  0.4841 -0.6753
39711SOL    HW225739   4.042   0.841   3.737 -1.6514 -0.7045  1.6022
39712SOL     OW25740  10.100   6.768  11.070 -0.2367  0.1554  1.0043
39712SOL    HW125741  10.059   6.796  10.988  0.4574  0.4161  0.7406
39712SOL    HW225742  10.028   6.765  11.133 -0.3107  2.9006  1.1648
39713SOL     OW25743   3.661   2.013   4.163 -0.2022  0.3979  0.4449
39713SOL    HW125744   3.698   1.959   4.233 -0.0930 -0.0039  0.0813
39713SOL    HW225745   3.699   1.977   4.083 -1.8479 -0.4391 -0.0080
39714SOL     OW25746  10.723  12.336   3.924 -0.3207  0.4077  0.7063
39714SOL    HW125747  10.793  12.376   3.976 -0.8143  0.9662  0.9503
39714SOL    HW225748  10.648  12.334   3.983 -0.4622 -0.3793  0.5138
39715SOL     OW25749   9.619  12.495   4.948 -0.4229 -0.0931  0.5794
39715SOL    HW125750   9.529  12.522   4.967 -0.9395 -2.1315  1.1965
39715SOL    HW225751   9.666  12.512   5.030 -0.4621  0.0163  0.5809
39716SOL     OW25752   8.765   9.790   8.317  0.2315 -0.2274 -0.1401
39716SOL    HW125753   8.691   9.759   8.265  0.6016 -0.6236 -0.4476
39716SOL    HW225754   8.748   9.883   8.330 -0.1980 -0.2636 -0.4124
39717SOL     OW25755   2.272  11.202  10.343 -0.0217 -0.0051  0.4383
39717SOL    HW125756   2.234  11.176  10.427 -1.1488  0.5342  0.1116
39717SOL    HW225757   2.243  11.292  10.330 -1.3837 -0.6368 -1.3528
39718SOL     OW25758   8.478   5.892   4.512 -0.2681  0.1065 -0.6976
39718SOL    HW125759   8.460   5.911   4.420 -3.0134  0.8965 -0.0697
39718SOL    HW225760   8.492   5.978   4.552  2.2205 -0.2836 -0.5125
39719SOL     OW25761  11.312   3.471   8.893 -0.0190 -0.4355  0.7788
39719SOL    HW125762  11.368   3.528   8.945 -0.1174 -0.3124  0.7516
39719SOL    HW225763  11.237   3.451   8.950 -0.6549  0.5611  0.3267
39720SOL     OW25764   2.001  12.193   7.932 -0.4134  0.2481  0.1255
39720SOL    HW125765   2.050  12.155   7.859 -2.6842 -0.3987 -1.1442
39720SOL    HW225766   1.911  12.166   7.917 -1.2649  1.7547  2.1267
39721SOL     OW25767   8.650   5.743  10.207 -0.0383 -0.1190 -0.2103
39721SOL    HW125768   8.563   5.713  10.179 -0.5886  0.5249  0.7761
39721SOL    HW225769   8.696   5.662  10.229 -0.7612 -0.4151  0.2864
39722SOL     OW25770   6.142  11.951   8.551 -0.0513  0.1757  0.1536
39722SOL    HW125771   6.217  11.943   8.492 -0.6320 -0.6272 -0.4909
39722SOL    HW225772   6.078  11.889   8.518 -0.6737  0.2169  1.2186
39723SOL     OW25773   1.933   9.753   3.091  0.0193 -0.1166  0.0761
39723SOL    HW125774   1.846   9.793   3.082  0.8451  1.6157 -0.6956
39723SOL    HW225775   1.929   9.705   3.174 -2.3278 -1.8791 -0.9430
39724SOL     OW25776   5.453   0.262  12.026 -0.3441  0.1563  0.0859
39724SOL    HW125777   5.415   0.194  11.970 -1.1850 -1.7310  2.7532
39724SOL    HW225778   5.548   0.247  12.020 -0.3503  0.5682 -1.4536
39725SOL     OW25779   8.506   3.142   1.136 -0.3715 -0.2876  0.4908
39725SOL    HW125780   8.432   3.167   1.081 -1.6751 -0.0340  2.2757
39725SOL    HW225781   8.467   3.092   1.208  1.4721 -2.1586  0.2830
39726SOL     OW25782   4.512   2.498  10.332  0.1078 -0.1736  0.5304
39726SOL    HW125783   4.593   2.451  10.352  0.1177 -1.2956 -1.8123
39726SOL    HW225784   4.531   2.589  10.356  2.6853 -0.0929 -1.4179
39727SOL     OW25785   2.928  12.626   7.377 -0.4294  0.1354 -0.5383
39727SOL    HW125786   2.832  12.620   7.377 -0.3581 -1.3970 -0.6356
39727SOL    HW225787   2.950  12.664   7.292 -0.9260 -0.2894 -0.8631
39728SOL     OW25788   9.088   4.248  11.860 -0.0521  0.7391 -0.0815
39728SOL    HW125789   9.183   4.257  11.874 -0.0559  0.5072  0.0915
39728SOL    HW225790   9.050   4.324  11.905 -0.1101 -0.2808  1.7018
39729SOL     OW25791   6.711   3.748  12.205 -0.2086  0.0814 -0.0883
39729SOL    HW125792   6.669   3.703  12.132  0.8833 -0.6974 -0.2600
39729SOL    HW225793   6.728   3.679  12.269 -0.8404  0.6982  0.7608
39730SOL     OW25794   8.045   0.087  10.847 -0.6599 -0.4399 -0.2161
39730SOL    HW125795   8.057   0.065  10.754 -2.1580  1.2797 -0.8736
39730SOL    HW225796   8.134   0.106  10.878 -0.2169 -0.3108 -1.4981
39731SOL     OW25797   3.893   8.620   4.327 -0.4559 -0.0686 -0.1546
39731SOL    HW125798   3.799   8.631   4.314 -0.2197  0.6176 -1.3741
39731SOL    HW225799   3.919   8.696   4.379 -0.0801  1.4064 -2.3992
39732SOL     OW25800   0.542  11.966   6.105  0.1515  0.1742  0.7967
39732SOL    HW125801   0.549  12.041   6.046  1.0368  0.2946  1.0452
39732SOL    HW225802   0.488  11.903   6.058  1.7282 -0.1753 -0.5905
39733SOL     OW25803   7.283   1.346   4.817  0.7587 -0.2269  0.0163
39733SOL    HW125804   7.281   1.262   4.861 -0.9459 -1.3714 -2.0631
39733SOL    HW225805   7.324   1.328   4.732 -0.3209  0.8568 -0.7614
39734SOL     OW25806   2.010   0.662  11.042  0.0311  0.2480 -0.0191
39734SOL    HW125807   1.961   0.739  11.070 -1.0370 -0.5822  0.4716
39734SOL    HW225808   2.011   0.605  11.119  1.6071  0.1510 -0.0832
39735SOL     OW25809   7.865   4.413   1.894 -0.1385 -0.8739 -0.2692
39735SOL    HW125810   7.943   4.456   1.860  0.2731 -1.5516 -0.1916
39735SOL    HW225811   7.810   4.485   1.925  1.5749 -0.4821  2.1098
39736SOL     OW25812   0.871  12.602   4.218 -0.7509 -0.1161  0.5194
39736SOL    HW125813   0.795  12.543   4.214 -1.3951  0.7404 -0.3812
39736SOL    HW225814   0.834  12.689   4.202  0.4738  0.2803 -0.2429
39737SOL     OW25815   5.291  12.301   3.050  0.5165 -0.3148  0.0081
39737SOL    HW125816   5.205  12.310   3.090 -0.0069 -0.6287 -1.0084
39737SOL    HW225817   5.320  12.391   3.035  0.8426 -0.1845  1.2909
39738SOL     OW25818   8.531   6.470   7.373  0.5719  0.3085 -0.0079
39738SOL    HW125819   8.515   6.386   7.416  0.7506  0.7910  1.0192
39738SOL    HW225820   8.446   6.513   7.372  0.7492  0.6938  0.7436
39739SOL     OW25821  10.741   0.222  11.918  0.2691  0.2596  0.6600
39739SOL    HW125822  10.785   0.264  11.992  0.0079  0.7834  0.5247
39739SOL    HW225823  10.781   0.263  11.841  0.6014 -0.3418  0.5062
39740SOL     OW25824  11.198  11.031   4.456  0.8412  0.4747 -0.0014
39740SOL    HW125825  11.247  10.997   4.381 -1.2317  0.4542 -1.4365
39740SOL    HW225826  11.245  11.111   4.481  0.2480  1.9612 -3.0408
39741SOL     OW25827   0.836   4.992   3.568 -0.2069 -0.5087 -0.0829
39741SOL    HW125828   0.827   4.918   3.508 -1.1030 -0.0758 -0.5071
39741SOL    HW225829   0.775   5.058   3.535 -0.2119  0.0133  0.9027
39742SOL     OW25830  10.960   9.447   1.494 -0.5845 -0.1098 -0.8228
39742SOL    HW125831  11.034   9.473   1.550 -1.7515 -0.5403  1.0262
39742SOL    HW225832  10.889   9.507   1.519 -1.7271 -1.5914 -0.3657
39743SOL     OW25833   5.044   3.678  12.050  0.2833  0.0785 -0.5534
39743SOL    HW125834   5.062   3.737  11.978 -0.2300 -0.2304 -0.9416
39743SOL    HW225835   5.028   3.593  12.009 -1.5878  0.2276 -0.2154
39744SOL     OW25836   8.081   7.345   7.159 -0.3018 -0.5014  0.2923
39744SOL    HW125837   8.044   7.294   7.087  1.3449 -1.8251  0.3187
39744SOL    HW225838   8.148   7.288   7.196  0.3605  1.0073  1.5074
39745SOL     OW25839   2.465   0.022   4.403 -0.4052 -0.1024 -0.2594
39745SOL    HW125840   2.541  -0.035   4.413 -0.9861 -0.5692  1.9037
39745SOL    HW225841   2.492   0.085   4.336  2.5580  0.7432  1.4984
39746SOL     OW25842   0.929   2.794   4.185  0.2704 -0.4282 -0.5328
39746SOL    HW125843   0.950   2.880   4.222  0.5704 -0.5385 -0.4388
39746SOL    HW225844   1.013   2.748   4.182  0.2031 -0.5124 -1.1244
39747SOL     OW25845   5.302   7.330   1.909 -0.3951  0.5232 -0.6548
39747SOL    HW125846   5.303   7.426   1.909 -2.7583  0.6112 -0.9439
39747SOL    HW225847   5.225   7.307   1.962  0.6601 -1.2711  0.2068
39748SOL     OW25848   6.329   1.836  12.603  0.0337  0.4094  0.7966
39748SOL    HW125849   6.335   1.838  12.507  1.9387 -0.6868  0.8305
39748SOL    HW225850   6.348   1.926  12.630 -1.1560  0.8780  0.1557
39749SOL     OW25851   8.126   4.437  10.675 -0.4976  0.3005  0.2555
39749SOL    HW125852   8.164   4.517  10.637 -1.2606  1.6371  2.1260
39749SOL    HW225853   8.075   4.469  10.750 -1.3739 -1.9088  0.6571
39750SOL     OW25854   8.061   7.042  10.786  0.3423 -0.0909  0.2259
39750SOL    HW125855   8.143   7.026  10.832  0.7250 -0.5348 -0.5828
39750SOL    HW225856   7.993   7.011  10.846  0.7511  0.4604  0.9828
39751SOL     OW25857   6.225   8.584   2.586  0.0064 -0.9488 -0.2187
39751SOL    HW125858   6.273   8.580   2.668  1.2126  1.7725 -0.6621
39751SOL    HW225859   6.173   8.664   2.593  0.5707 -0.3395 -2.2743
39752SOL     OW25860   8.875   5.967   5.358  0.3739  0.4622 -0.3081
39752SOL    HW125861   8.942   5.906   5.389 -1.4588 -1.9637 -0.8490
39752SOL    HW225862   8.809   5.912   5.317 -0.8083  2.9603 -2.0174
39753SOL     OW25863   5.001  11.612  11.785  0.1955  0.2178 -0.1578
39753SOL    HW125864   5.096  11.622  11.789  0.2246  0.9077 -1.7397
39753SOL    HW225865   4.984  11.526  11.823  1.3270  0.5211  1.1261
39754SOL     OW25866   5.119   1.402   7.049 -0.4822 -0.0058 -0.2689
39754SOL    HW125867   5.146   1.345   7.121 -0.7030  1.7080  1.2395
39754SOL    HW225868   5.198   1.450   7.026 -0.8915  1.0075  0.3523
39755SOL     OW25869   4.063  12.427   9.589 -0.0165  0.2222 -1.0767
39755SOL    HW125870   4.088  12.500   9.646 -1.7769  1.8619 -2.2695
39755SOL    HW225871   4.103  12.448   9.505 -1.6330  0.5675 -1.7924
39756SOL     OW25872   3.427  12.544   8.811 -0.3421  0.1863  0.1815
39756SOL    HW125873   3.357  12.512   8.867  0.2802 -0.5878  0.5436
39756SOL    HW225874   3.463  12.620   8.858 -0.5578  0.2278  0.2776
39757SOL     OW25875  11.274   6.168   1.450  0.1008  0.4792  0.5488
39757SOL    HW125876  11.330   6.090   1.458  0.5449  0.9335  2.4760
39757SOL    HW225877  11.202   6.151   1.511 -1.0950  0.5504 -0.8127
39758SOL     OW25878   9.326   0.686   1.106 -0.2568 -0.5087 -0.1053
39758SOL    HW125879   9.378   0.606   1.095  0.6989  0.0475  0.2804
39758SOL    HW225880   9.241   0.655   1.136  0.2018 -1.3633  0.3430
39759SOL     OW25881   9.612   7.873   8.358  0.3937 -0.2124  0.0389
39759SOL    HW125882   9.561   7.954   8.361  0.9404  0.1308  0.3914
39759SOL    HW225883   9.548   7.804   8.346 -0.1373  0.2270  0.3075
39760SOL     OW25884   0.583  11.172   5.366  0.0773 -0.2093  0.2696
39760SOL    HW125885   0.592  11.085   5.328  0.1779 -0.3683  0.6564
39760SOL    HW225886   0.663  11.185   5.417 -0.2796 -0.2034  0.8398
39761SOL     OW25887   6.982   8.861   4.883  0.1693 -0.3002  0.0432
39761SOL    HW125888   6.945   8.945   4.910  1.2321  0.4231 -0.6990
39761SOL    HW225889   6.917   8.796   4.912 -1.7335  0.8965 -1.3091
39762SOL     OW25890   7.731   0.204   2.377 -0.1722 -0.4711 -0.2628
39762SOL    HW125891   7.671   0.156   2.320 -0.5988 -0.5652  0.2608
39762SOL    HW225892   7.784   0.257   2.317 -0.1050 -1.1351 -0.7990
39763SOL     OW25893   0.134  10.331  12.082 -0.0907  0.1344  0.0006
39763SOL    HW125894   0.180  10.414  12.072  0.2908 -0.1997 -1.0916
39763SOL    HW225895   0.160  10.299  12.168  0.4097  0.7445  0.0787
39764SOL     OW25896   9.217   9.884  11.146 -0.1042  0.0792 -0.3964
39764SOL    HW125897   9.251   9.967  11.113  1.4855 -0.2365  0.3102
39764SOL    HW225898   9.289   9.849  11.200 -1.4873 -0.7999  0.9551
39765SOL     OW25899   9.983  12.229   4.607  0.3563 -0.1112 -0.0001
39765SOL    HW125900  10.000  12.138   4.631  1.3615 -0.1391 -0.7342
39765SOL    HW225901  10.070  12.270   4.609  0.3759  0.1281 -2.4839
39766SOL     OW25902   3.507   5.897   1.814 -0.1079  0.1492  0.0035
39766SOL    HW125903   3.473   5.824   1.864 -1.1156 -1.3503 -2.6431
39766SOL    HW225904   3.588   5.865   1.775 -0.1762  0.6774 -0.6079
39767SOL     OW25905   6.070   9.801  10.366  0.2908 -0.3071  0.5685
39767SOL    HW125906   6.074   9.808  10.270  0.3984 -0.0002  0.5935
39767SOL    HW225907   6.123   9.875  10.397 -0.6192  0.2345  0.8694
39768SOL     OW25908   3.247  11.438   5.755  0.3373  0.1228  0.5708
39768SOL    HW125909   3.185  11.371   5.784 -1.5829  1.2054 -0.8084
39768SOL    HW225910   3.240  11.507   5.820 -0.9752  0.8284 -0.2848
39769SOL     OW25911   6.565   0.288  12.265  0.0111 -0.1186  0.6552
39769SOL    HW125912   6.542   0.373  12.302  0.3508 -0.0681  0.7540
39769SOL    HW225913   6.660   0.291  12.256 -0.1071  0.0578 -0.6818
39770SOL     OW25914   2.158   9.267   6.285 -0.7787  0.1241 -0.1969
39770SOL    HW125915   2.157   9.232   6.196  2.7045 -1.3498  0.1865
39770SOL    HW225916   2.250   9.264   6.311 -1.4301  2.1536  2.8655
39771SOL     OW25917   7.613   1.064  11.476  0.0202  0.5912  0.0698
39771SOL    HW125918   7.534   1.116  11.490  0.5944  0.9347  2.6049
39771SOL    HW225919   7.596   0.981  11.521  0.9522  0.5582  0.3839
39772SOL     OW25920   0.444   8.821   2.544 -0.4746 -0.3379  0.3662
39772SOL    HW125921   0.399   8.788   2.622 -0.2225 -1.9125 -0.1187
39772SOL    HW225922   0.535   8.834   2.573  0.0707 -2.7378 -0.0880
39773SOL     OW25923  11.607   1.729   7.910  0.0348 -0.6376 -0.4284
39773SOL    HW125924  11.690   1.683   7.927  1.1935  1.3143 -0.5196
39773SOL    HW225925  11.554   1.712   7.988  1.0229 -0.8656  0.2162
39774SOL     OW25926  10.803   0.105   3.893  0.1448  0.7998 -0.0286
39774SOL    HW125927  10.761   0.039   3.949 -1.2003  1.2579 -0.4501
39774SOL    HW225928  10.897   0.091   3.905 -0.1122 -0.9094  0.2168
39775SOL     OW25929   1.092  11.058   5.660 -0.6155  0.0004  0.6289
39775SOL    HW125930   1.000  11.082   5.652 -0.4472  1.2980  2.1894
39775SOL    HW225931   1.139  11.128   5.614 -0.3909 -0.4324  0.1979
39776SOL     OW25932   6.912   0.315   9.808 -0.6661 -0.1658 -0.7103
39776SOL    HW125933   6.900   0.231   9.763 -0.7234  0.3405 -1.6723
39776SOL    HW225934   6.972   0.364   9.752  0.7933 -0.2252  0.7556
39777SOL     OW25935   6.685   5.545   2.795 -0.1340 -0.5024  0.0764
39777SOL    HW125936   6.712   5.618   2.851 -0.3924 -0.7151  0.4812
39777SOL    HW225937   6.642   5.586   2.720  2.6389 -0.0385 -1.4023
39778SOL     OW25938   3.758   0.910   8.394 -0.8101 -0.3574  0.2254
39778SOL    HW125939   3.781   0.972   8.463  0.6667  0.6342 -1.0875
39778SOL    HW225940   3.838   0.903   8.341 -2.6242  1.0901 -2.9866
39779SOL     OW25941   2.055   1.557  10.295  0.1692  0.3414 -0.1554
39779SOL    HW125942   2.084   1.513  10.375 -0.9786  0.4131  0.3298
39779SOL    HW225943   1.976   1.508  10.269  1.0377 -0.2567 -1.7741
39780SOL     OW25944   0.885  11.177  12.326 -0.2425  0.5463  0.0974
39780SOL    HW125945   0.960  11.126  12.295  0.2500  1.5808 -0.4602
39780SOL    HW225946   0.917  11.225  12.402 -0.9917 -0.7221  1.2430
39781SOL     OW25947   5.025   6.795  11.712  0.2463  0.2647 -0.6726
39781SOL    HW125948   5.088   6.864  11.735  0.6318 -0.1237 -0.5374
39781SOL    HW225949   5.027   6.736  11.787 -1.2672  0.9300 -0.0828
39782SOL     OW25950   2.336   6.223  10.147  0.3001 -0.2148 -0.4266
39782SOL    HW125951   2.312   6.289  10.083  0.6979  0.2854 -0.0672
39782SOL    HW225952   2.399   6.267  10.205  1.3333 -1.1955 -0.7700
39783SOL     OW25953   6.638   0.669   2.190  0.1416  0.0681 -0.2162
39783SOL    HW125954   6.586   0.645   2.112 -1.6867 -0.0795  0.9746
39783SOL    HW225955   6.657   0.762   2.178 -0.8374  0.2478 -0.4726
39784SOL     OW25956   4.599   7.430   1.529 -0.7575  0.1509 -0.2775
39784SOL    HW125957   4.521   7.388   1.493 -1.8770  1.0659  1.0095
39784SOL    HW225958   4.584   7.434   1.623  0.4292  1.1974 -0.0995
39785SOL     OW25959   9.071  12.266   8.153 -0.1517  0.4723  0.5071
39785SOL    HW125960   9.066  12.280   8.248  0.1247 -0.8411  0.7411
39785SOL    HW225961   9.058  12.172   8.142 -1.0323  0.7266 -0.8393
39786SOL     OW25962   1.488   0.389  10.468  0.1021 -0.3237 -0.1107
39786SOL    HW125963   1.539   0.397  10.548 -2.2001  0.6219  1.3947
39786SOL    HW225964   1.480   0.295  10.452  0.1632 -0.5335  1.0693
39787SOL     OW25965   4.915  11.523   1.499  0.2182  0.2267 -0.4523
39787SOL    HW125966   4.983  11.480   1.447 -0.5219 -1.3884 -0.1404
39787SOL    HW225967   4.866  11.451   1.539 -1.8182  1.3311 -0.8374
39788SOL     OW25968   7.595   6.284  11.639  0.0343 -0.0734 -0.1674
39788SOL    HW125969   7.521   6.256  11.693  0.7165  0.3526  1.0066
39788SOL    HW225970   7.569   6.261  11.550 -1.9617  1.0027  0.0885
39789SOL     OW25971   3.879  12.238   4.528  0.4000  0.1332 -0.2436
39789SOL    HW125972   3.798  12.275   4.563  0.0236  0.4796 -1.3987
39789SOL    HW225973   3.948  12.273   4.584 -0.2829 -0.6265  1.1071
39790SOL     OW25974   7.543   5.842   4.790  0.1119 -0.0822 -0.8410
39790SOL    HW125975   7.529   5.922   4.740 -0.2553  1.6442  1.8334
39790SOL    HW225976   7.638   5.838   4.801 -0.0012  1.5030  1.1960
39791SOL     OW25977   1.805   2.378   3.972 -0.2361 -0.4782  0.3254
39791SOL    HW125978   1.808   2.398   3.879 -0.0726  0.0036  0.4280
39791SOL    HW225979   1.712   2.365   3.992 -0.4371  0.8735  0.3814
39792SOL     OW25980   6.808  11.858   0.263 -0.1291 -0.2908  0.1621
39792SOL    HW125981   6.753  11.798   0.213  0.3449  1.4421 -2.7094
39792SOL    HW225982   6.893  11.856   0.218  0.0961  1.9654  0.3324
39793SOL     OW25983  10.444   3.242   0.098  0.6570  0.2713 -0.1061
39793SOL    HW125984  10.434   3.337   0.088 -1.7052  0.2837  1.5576
39793SOL    HW225985  10.457   3.229   0.192  3.3949 -0.9673 -0.5611
39794SOL     OW25986   4.869  10.507   6.290  0.6440  0.0380  0.2199
39794SOL    HW125987   4.882  10.458   6.371  1.9651  1.1325  0.6949
39794SOL    HW225988   4.914  10.455   6.224 -1.4592 -1.4977 -0.1140
39795SOL     OW25989   1.243   1.074   6.801 -0.4984  0.0730  0.5960
39795SOL    HW125990   1.323   1.107   6.843  1.1843 -2.9019  0.0203
39795SOL    HW225991   1.273   1.000   6.748 -3.7417 -1.6019  0.8713
39796SOL     OW25992   2.263   6.178   1.178 -0.0689  0.8594 -0.1227
39796SOL    HW125993   2.296   6.198   1.266  0.5027  1.7721 -0.5170
39796SOL    HW225994   2.334   6.128   1.137 -0.0485  1.0052 -0.2705
39797SOL     OW25995  11.089  11.024   5.481  0.8415  0.0484  0.1279
39797SOL    HW125996  11.180  10.993   5.477  0.7554 -0.0939 -1.7468
39797SOL    HW225997  11.047  10.968   5.546  2.0983  0.1996  1.1225
39798SOL     OW25998  12.431   2.405   0.585 -0.6512  0.5188  0.5346
39798SOL    HW125999  12.373   2.479   0.603 -0.1405  1.0529  0.0203
39798SOL    HW226000  12.373   2.330   0.574 -1.1747  0.8516  1.0308
39799SOL     OW26001   3.039   7.199   7.094 -0.1857 -0.7261 -0.5580
39799SOL    HW126002   2.962   7.252   7.111 -0.4558 -1.0682 -0.7149
39799SOL    HW226003   3.074   7.232   7.011 -0.1525 -0.5624 -0.4790
39800SOL     OW26004   2.641   0.141   5.841  0.2925 -0.4106 -0.5768
39800SOL    HW126005   2.621   0.048   5.827 -2.0572 -0.1861  0.7678
39800SOL    HW226006   2.699   0.142   5.916  0.3646 -0.7908 -0.6230
39801SOL     OW26007   1.924   2.005   2.630 -0.2833 -0.0901 -0.4253
39801SOL    HW126008   1.964   1.944   2.692 -1.0351  0.1415  0.3040
39801SOL    HW226009   1.842   2.031   2.672  0.9481  3.0388  0.2845
39802SOL     OW26010   3.994  10.282   1.762 -0.2859 -0.1238 -0.4404
39802SOL    HW126011   3.979  10.259   1.670  0.9829  1.6493 -1.1493
39802SOL    HW226012   3.919  10.336   1.786  0.4720  1.3454 -1.2097
39803SOL     OW26013   1.758   4.029   0.964  0.3920 -0.2690 -0.2007
39803SOL    HW126014   1.683   3.978   0.934  0.0871 -0.2752  0.5448
39803SOL    HW226015   1.746   4.035   1.059  1.1576  0.0161 -0.1160
39804SOL     OW26016   3.595   9.113   0.271 -0.1032 -0.7219  0.5460
39804SOL    HW126017   3.585   9.208   0.271  2.3159 -0.4169 -0.4004
39804SOL    HW226018   3.612   9.091   0.363 -0.0517 -0.1690  0.6700
39805SOL     OW26019   5.222   4.306   9.948  0.6732 -0.0850 -0.5124
39805SOL    HW126020   5.247   4.380   9.893  2.9378 -0.7493 -0.4387
39805SOL    HW226021   5.126   4.303   9.942  0.5896  2.3254 -1.1558
39806SOL     OW26022   4.910   2.215  12.498  0.3806  0.2999 -0.1311
39806SOL    HW126023   4.910   2.296  12.549  0.8037 -0.0820  0.4919
39806SOL    HW226024   5.002   2.191  12.491  0.1916 -0.7357  0.6872
39807SOL     OW26025   3.013   9.102  11.200  0.0835 -0.3599 -0.1083
39807SOL    HW126026   3.006   9.153  11.120 -1.1224 -0.1609  0.1043
39807SOL    HW226027   3.073   9.151  11.256 -0.0999  0.1883 -0.3899
39808SOL     OW26028   8.356   4.480  11.987  0.5104 -0.2820 -0.2394
39808SOL    HW126029   8.379   4.434  12.068 -0.1432 -1.7576 -0.8359
39808SOL    HW226030   8.375   4.416  11.918 -2.9483 -0.7652 -0.9315
39809SOL     OW26031   0.022   2.727   7.291  0.1423 -0.0897 -0.5827
39809SOL    HW126032   0.047   2.636   7.311 -2.5061 -0.6064  0.7812
39809SOL    HW226033   0.099   2.763   7.246  0.8143 -3.3640 -2.3714
39810SOL     OW26034   4.172   2.326   5.415 -0.1261  0.1427  0.0050
39810SOL    HW126035   4.099   2.387   5.404 -1.0599 -0.8834  0.3031
39810SOL    HW226036   4.156   2.258   5.348  1.4559  0.7286 -1.0249
39811SOL     OW26037   3.285   8.922   6.598  0.1174 -0.2236  0.0278
39811SOL    HW126038   3.252   8.847   6.549 -2.6841 -0.3561  1.8965
39811SOL    HW226039   3.363   8.890   6.642 -0.0185 -1.4905 -0.6090
39812SOL     OW26040   5.115   2.693  12.048  0.1580 -0.8608 -0.4730
39812SOL    HW126041   5.140   2.658  12.133 -0.8575 -0.6644 -0.0870
39812SOL    HW226042   5.145   2.784  12.049  0.8988 -1.0961 -0.6602
39813SOL     OW26043   8.940  10.134   3.465 -0.4839 -0.0034 -0.0893
39813SOL    HW126044   8.977  10.136   3.554  0.4290 -0.1047 -0.4570
39813SOL    HW226045   8.950  10.223   3.433  0.3233 -0.2395 -0.5307
39814SOL     OW26046   6.579   8.618   4.240 -0.2998  0.1215 -0.5242
39814SOL    HW126047   6.592   8.591   4.331 -1.0522  0.9740 -0.1483
39814SOL    HW226048   6.667   8.631   4.206 -0.0191  0.2231  0.2212
39815SOL     OW26049   9.069   5.334   9.489 -0.6943 -0.1609  0.1734
39815SOL    HW126050   9.029   5.274   9.426 -1.5459  0.1907  0.3655
39815SOL    HW226051   9.014   5.327   9.567  0.5429 -0.8454  1.0133
39816SOL     OW26052  11.715   6.191   2.933 -0.1663  0.2271  0.1427
39816SOL    HW126053  11.620   6.199   2.943 -0.1174 -0.1195  0.9814
39816SOL    HW226054  11.751   6.243   3.005  0.2551 -0.8027  0.6916
39817SOL     OW26055   4.743   2.494   8.439 -0.1017  0.0140 -0.1917
39817SOL    HW126056   4.836   2.479   8.424  0.0948 -0.7916  1.6597
39817SOL    HW226057   4.700   2.414   8.409 -0.2613  0.4648 -1.2401
39818SOL     OW26058   4.161  10.924  11.149  0.1061  0.4057  1.0224
39818SOL    HW126059   4.212  10.893  11.223 -0.1218 -0.2286  0.9211
39818SOL    HW226060   4.096  10.855  11.133  0.5063  0.2691 -0.1212
39819SOL     OW26061  10.644   0.790   1.868  0.2031 -0.2022 -0.2981
39819SOL    HW126062  10.566   0.735   1.869  1.3960 -1.9624 -0.1627
39819SOL    HW226063  10.662   0.805   1.775  0.3540 -0.7572 -0.3591
39820SOL     OW26064  10.094   5.913   1.442 -0.3802  0.6971 -0.2906
39820SOL    HW126065  10.002   5.934   1.457 -0.7637 -2.3464  2.9029
39820SOL    HW226066  10.135   5.924   1.528  1.4747 -1.1606 -0.8713
39821SOL     OW26067   9.385   8.831   5.698 -0.2596  0.2868 -0.0145
39821SOL    HW126068   9.316   8.889   5.666 -0.4455  0.6797  1.0494
39821SOL    HW226069   9.349   8.793   5.778  0.0115 -1.0222 -0.5016
39822SOL     OW26070   5.431   6.214   9.715 -0.1817 -0.1771 -0.2597
39822SOL    HW126071   5.432   6.241   9.623 -0.2069  1.2789  0.1422
39822SOL    HW226072   5.358   6.152   9.721  0.4037 -1.0215 -1.3926
39823SOL     OW26073   6.498   9.689  10.893 -0.0098  0.1708 -0.6504
39823SOL    HW126074   6.526   9.598  10.907 -0.9709 -0.1397 -0.6992
39823SOL    HW226075   6.472   9.692  10.801 -1.3189  0.1140 -0.3039
39824SOL     OW26076   5.624   9.779   6.546  0.4146  0.0705  0.3416
39824SOL    HW126077   5.612   9.829   6.627 -0.9136 -1.6241  1.2397
39824SOL    HW226078   5.546   9.798   6.494  1.3896  1.3720 -0.7253
39825SOL     OW26079   6.315   0.251   3.633  0.0279 -0.5139 -0.6810
39825SOL    HW126080   6.230   0.218   3.662  1.4041 -0.9438  3.5481
39825SOL    HW226081   6.300   0.344   3.615 -1.6380 -0.9444 -1.6772
39826SOL     OW26082  12.614   9.948   1.064  0.1263  0.6035 -0.6887
39826SOL    HW126083  12.694   9.909   1.028  0.0529 -0.7489  0.5282
39826SOL    HW226084  12.551   9.876   1.065 -0.7159  1.3339 -0.4554
39827SOL     OW26085   4.936  10.887   1.017 -0.5283  0.2200 -0.3858
39827SOL    HW126086   5.028  10.877   0.994 -0.0251  1.1774  1.0495
39827SOL    HW226087   4.922  10.982   1.020 -1.6559  0.0857 -0.9229
39828SOL     OW26088   9.207  10.702   8.637  0.3887  0.0803 -0.7052
39828SOL    HW126089   9.176  10.784   8.676 -0.9776 -0.3119 -0.9086
39828SOL    HW226090   9.280  10.728   8.580  0.7755  0.9829  0.1619
39829SOL     OW26091  11.158   4.533   5.344  0.0331  0.0532 -0.5363
39829SOL    HW126092  11.095   4.509   5.413  0.2652 -0.0818 -0.3684
39829SOL    HW226093  11.240   4.492   5.372  0.1216 -0.0208 -0.9104
39830SOL     OW26094  12.221   7.549   6.138  0.5974  0.0497  0.1901
39830SOL    HW126095  12.137   7.574   6.100 -0.4248  0.3785  2.5067
39830SOL    HW226096  12.258   7.630   6.171  0.3808 -0.5013  1.8599
39831SOL     OW26097   3.815  11.788   2.325  0.0016 -0.0085  0.3311
39831SOL    HW126098   3.744  11.751   2.273 -1.0582  1.6490  0.5201
39831SOL    HW226099   3.771  11.830   2.399  1.1636  1.0827  0.4415
39832SOL     OW26100   2.288   6.858   8.013 -0.4234 -0.0620 -0.7417
39832SOL    HW126101   2.366   6.811   8.041 -0.2108  0.0324 -1.1818
39832SOL    HW226102   2.318   6.918   7.945 -0.8228  0.1972 -0.6965
39833SOL     OW26103  11.519   6.430   6.135 -0.1089  0.6674  0.5389
39833SOL    HW126104  11.609   6.420   6.105 -0.7660 -0.0867 -1.3717
39833SOL    HW226105  11.495   6.344   6.168 -0.0507  0.9383  1.2916
39834SOL     OW26106  10.051   8.532   9.262 -0.2074 -0.1456  0.3269
39834SOL    HW126107  10.114   8.466   9.291  0.3871 -0.2607 -1.1427
39834SOL    HW226108  10.090   8.571   9.184 -1.7755  0.0436 -0.4128
39835SOL     OW26109   7.808   8.992   2.776  0.3410 -0.7685 -0.1840
39835SOL    HW126110   7.778   9.082   2.793 -2.1351 -0.9499 -2.7565
39835SOL    HW226111   7.838   8.960   2.861 -0.0114  2.0265  1.1127
39836SOL     OW26112  10.458   4.786  12.554  0.2631 -0.2331 -0.9628
39836SOL    HW126113  10.427   4.758  12.468  1.0103 -0.9006 -1.0206
39836SOL    HW226114  10.469   4.706  12.604 -0.8758  0.1935  0.0241
39837SOL     OW26115  10.979   2.341  12.571 -0.0837  0.2799  0.0343
39837SOL    HW126116  10.926   2.348  12.651  1.9225  2.0714  1.3230
39837SOL    HW226117  10.962   2.422  12.524 -0.3671 -0.2523 -0.7915
39838SOL     OW26118   1.996   3.514   3.722 -0.2719 -0.1852 -0.6804
39838SOL    HW126119   2.022   3.491   3.812 -0.9936 -1.1134 -0.6912
39838SOL    HW226120   1.962   3.432   3.686  0.1092  0.1605 -1.8453
39839SOL     OW26121   2.475   0.514   4.536 -0.6197 -0.4023  0.1835
39839SOL    HW126122   2.552   0.481   4.581  0.3045  0.4936 -0.6902
39839SOL    HW226123   2.490   0.608   4.528 -1.2191 -0.3825 -1.0683
39840SOL     OW26124   1.226   4.830   0.696  0.1705 -0.1060 -0.4173
39840SOL    HW126125   1.152   4.782   0.660  0.0095  0.0350 -0.2770
39840SOL    HW226126   1.267   4.871   0.619  0.3391 -0.5047 -0.5424
39841SOL     OW26127   9.356  10.412  11.563 -0.1657 -0.2906 -0.1206
39841SOL    HW126128   9.355  10.328  11.610  0.5544 -1.2333 -1.7040
39841SOL    HW226129   9.268  10.448  11.576  0.3562  0.1596  2.9977
39842SOL     OW26130   7.204   1.797  11.151 -0.0637  0.0133 -0.5567
39842SOL    HW126131   7.126   1.843  11.122 -1.4802 -1.2776  0.9733
39842SOL    HW226132   7.224   1.835  11.237 -1.9649 -2.7658  1.3015
39843SOL     OW26133   8.712   5.416   1.493  0.4199 -0.3593  0.0845
39843SOL    HW126134   8.658   5.340   1.514  0.8161 -0.6095  0.2081
39843SOL    HW226135   8.673   5.487   1.545  0.4439 -0.6238  0.4682
39844SOL     OW26136  12.392   4.336   5.346 -0.4617  0.0134  0.7258
39844SOL    HW126137  12.333   4.411   5.335 -0.4950 -0.0143  0.7211
39844SOL    HW226138  12.470   4.374   5.387  0.7074  0.6141 -1.8258
39845SOL     OW26139   4.411  11.895   2.031 -0.5462 -0.0242  0.7778
39845SOL    HW126140   4.382  11.804   2.025  1.5311 -0.7489  1.0461
39845SOL    HW226141   4.371  11.928   2.112 -0.6980 -0.9329  1.0846
39846SOL     OW26142   2.425   2.101   2.502  0.6644 -0.2979 -0.0719
39846SOL    HW126143   2.343   2.091   2.453 -0.8386 -0.1946  2.2833
39846SOL    HW226144   2.479   2.158   2.447 -1.1661  0.3448 -1.2889
39847SOL     OW26145   0.717   4.213   4.159  0.1943 -0.3229 -0.0389
39847SOL    HW126146   0.811   4.223   4.173  0.2414  2.7595 -1.8415
39847SOL    HW226147   0.686   4.169   4.239  3.1280 -1.6517  0.5026
39848SOL     OW26148   3.061   5.695   7.888  0.2164 -0.5337 -0.1353
39848SOL    HW126149   3.037   5.755   7.818 -0.1548 -1.0375 -0.4454
39848SOL    HW226150   3.116   5.629   7.845  1.4107  0.0917  0.3843
39849SOL     OW26151   5.810  10.401  11.926  0.3874  0.0778  0.0222
39849SOL    HW126152   5.816  10.421  11.832 -0.8820 -1.5164 -0.4343
39849SOL    HW226153   5.719  10.374  11.939  1.0637 -1.7930  1.2738
39850SOL     OW26154   1.808   5.044   9.387  0.3302 -0.3487  0.1674
39850SOL    HW126155   1.804   4.966   9.442  2.6440  0.3627  1.4922
39850SOL    HW226156   1.830   5.115   9.447  1.7655  0.6893 -1.4671
39851SOL     OW26157  12.334   8.991   9.404  0.3619  0.1520 -0.3123
39851SOL    HW126158  12.329   8.899   9.429  1.0532  0.4494  1.0066
39851SOL    HW226159  12.411   8.997   9.347  0.5045 -0.0347 -0.1389
39852SOL     OW26160  11.914   9.296  12.439 -0.8014 -0.8512 -0.2117
39852SOL    HW126161  11.889   9.347  12.516  0.2410 -0.6034 -0.0175
39852SOL    HW226162  11.941   9.362  12.374  0.9652 -1.1226  0.1904
39853SOL     OW26163   0.290   2.729  12.377  0.6545 -0.5254  0.4273
39853SOL    HW126164   0.218   2.676  12.342  0.9508 -0.7646  0.1805
39853SOL    HW226165   0.360   2.721  12.313  0.0036  1.8545 -0.7083
39854SOL     OW26166   3.316  11.729   2.464 -0.1205  0.1122 -0.3089
39854SOL    HW126167   3.277  11.721   2.551 -0.2387 -0.4481 -0.4081
39854SOL    HW226168   3.248  11.773   2.412  0.0072  0.5803 -0.0899
39855SOL     OW26169   8.239   1.463  11.489  0.3634 -0.0285 -0.0460
39855SOL    HW126170   8.169   1.475  11.553 -1.0941  0.2466 -1.6188
39855SOL    HW226171   8.293   1.392  11.524  0.2650  0.8498  1.9950
39856SOL     OW26172   7.036   8.940   3.626  0.0814  0.0128  1.0136
39856SOL    HW126173   7.097   9.013   3.629 -0.1006  0.1118  2.6109
39856SOL    HW226174   6.953   8.975   3.658 -0.8079 -0.1851 -0.8986
39857SOL     OW26175  10.027   5.244   0.087  0.5967  0.4826  0.2213
39857SOL    HW126176   9.994   5.248  -0.003 -0.3692 -0.6234  0.4903
39857SOL    HW226177  10.024   5.334   0.118 -0.8700  0.6335 -0.2558
39858SOL     OW26178  12.014   8.936   6.479  0.0197  0.0768 -0.4762
39858SOL    HW126179  12.105   8.910   6.466 -0.1967 -0.2283 -1.4667
39858SOL    HW226180  11.987   8.974   6.395 -1.5291 -2.1897 -1.0832
39859SOL     OW26181   9.679   1.099   0.888 -0.0901  0.2216 -0.4183
39859SOL    HW126182   9.654   1.014   0.853  1.9059 -0.3335 -0.6231
39859SOL    HW226183   9.771   1.088   0.915 -0.2559  1.8608  1.0024
39860SOL     OW26184   9.633   4.359   1.860  0.2850  0.3937  1.0587
39860SOL    HW126185   9.557   4.336   1.913 -0.4297  2.6170  1.1058
39860SOL    HW226186   9.653   4.450   1.884  0.9609  0.9369 -1.2719
39861SOL     OW26187  10.027  11.121   1.867  0.2147 -0.6199 -0.0465
39861SOL    HW126188  10.102  11.167   1.828  0.8943 -1.6169  0.0702
39861SOL    HW226189   9.971  11.099   1.792  0.7975 -1.2306 -0.3118
39862SOL     OW26190   4.648   7.246   8.802  0.3126 -0.0243  0.0032
39862SOL    HW126191   4.607   7.188   8.866 -1.5839  1.0711 -0.1721
39862SOL    HW226192   4.702   7.187   8.748 -2.5324 -1.9291 -0.9922
39863SOL     OW26193   0.170   4.667   7.137  0.0143 -0.4554  0.6892
39863SOL    HW126194   0.226   4.738   7.166  0.0662 -0.1836 -0.0379
39863SOL    HW226195   0.103   4.709   7.082  0.2195 -0.9877  0.0034
39864SOL     OW26196   7.913   9.314   4.932  0.2965 -0.2237  0.0899
39864SOL    HW126197   7.958   9.251   4.876  0.3250  0.2366 -0.4121
39864SOL    HW226198   7.820   9.298   4.915  0.3174  0.4803 -0.7322
39865SOL     OW26199   4.605   5.720  10.240 -0.0273  0.1372 -0.1355
39865SOL    HW126200   4.643   5.725  10.153  0.4415  2.2616  0.1191
39865SOL    HW226201   4.545   5.795  10.244 -0.9966 -0.6437  0.9537
39866SOL     OW26202   8.926   0.944   5.548  0.3358  0.1015  0.2633
39866SOL    HW126203   8.882   0.859   5.552  0.4497  0.0179 -0.2302
39866SOL    HW226204   8.855   1.008   5.556  0.2951 -0.0351  1.1193
39867SOL     OW26205   5.305   9.692   6.451  0.3118  0.1833  0.5854
39867SOL    HW126206   5.238   9.743   6.496  1.6726  1.2793  1.4080
39867SOL    HW226207   5.344   9.637   6.519  0.2826 -0.4429  0.1133
39868SOL     OW26208   5.456   3.200   9.559 -0.2028 -0.1169  0.1639
39868SOL    HW126209   5.407   3.245   9.628  1.3051 -0.0218  1.2179
39868SOL    HW226210   5.539   3.176   9.600 -0.1563 -2.1037 -0.9572
39869SOL     OW26211   9.899   3.234   5.294  0.8085  0.3438  0.5477
39869SOL    HW126212   9.914   3.191   5.378 -0.1354 -0.3332  0.3840
39869SOL    HW226213   9.812   3.273   5.302  1.6366  2.2812  0.6934
39870SOL     OW26214   9.920   7.990  12.370 -0.0009  0.1634  0.7242
39870SOL    HW126215   9.828   7.996  12.347 -0.9638 -2.1255  3.4344
39870SOL    HW226216   9.937   7.896  12.380  2.4077  0.5597  1.1199
39871SOL     OW26217  11.534   9.766   5.465  0.2392  0.1304 -0.1951
39871SOL    HW126218  11.594   9.830   5.503 -1.0361  1.0519  0.3311
39871SOL    HW226219  11.450   9.782   5.509 -0.5499 -0.7271 -1.3227
39872SOL     OW26220   5.344   8.841   6.315 -0.3975 -0.4829 -0.0324
39872SOL    HW126221   5.411   8.906   6.336 -1.2319 -0.0146  1.3574
39872SOL    HW226222   5.281   8.888   6.260 -0.1814 -0.5813 -0.3636
39873SOL     OW26223   0.858   3.045   4.290  0.2083  0.4438  0.3651
39873SOL    HW126224   0.803   3.124   4.286  1.9087  1.6665 -0.3413
39873SOL    HW226225   0.813   2.988   4.352 -1.4234  1.7044  0.4270
39874SOL     OW26226   2.336   6.376   7.856 -0.6799  0.2515  0.2488
39874SOL    HW126227   2.283   6.454   7.837 -0.3361 -0.0200 -2.1050
39874SOL    HW226228   2.276   6.317   7.902 -2.0903  0.4642 -1.2108
39875SOL     OW26229  11.203  10.023   3.856  0.0086  0.9382  0.2062
39875SOL    HW126230  11.206   9.937   3.815  0.6762  1.2085 -0.3248
39875SOL    HW226231  11.288  10.063   3.836 -0.7442  2.2039 -0.6218
39876SOL     OW26232   0.152   7.839  12.731  0.3199  0.0823  0.3656
39876SOL    HW126233   0.144   7.775  12.660  3.8029  0.5009 -0.5685
39876SOL    HW226234   0.112   7.795  12.807 -0.9366 -1.5189 -1.1375
39877SOL     OW26235   4.745   0.892  11.931 -0.2893 -0.1890 -0.1111
39877SOL    HW126236   4.817   0.867  11.988  0.5959 -2.5110 -2.0476
39877SOL    HW226237   4.774   0.974  11.890 -0.8231  1.3467  2.4011
39878SOL     OW26238   4.567  12.652   6.819  0.2560 -0.2009  0.0112
39878SOL    HW126239   4.518  12.577   6.786  0.5790 -0.9992  1.2762
39878SOL    HW226240   4.501  12.719   6.833 -0.0650 -0.2976 -0.9336
39879SOL     OW26241   0.703   5.359   5.370  0.7505  0.0541  0.5430
39879SOL    HW126242   0.714   5.434   5.311  1.0247 -1.7165 -1.7858
39879SOL    HW226243   0.669   5.289   5.314  0.6889 -1.6534  2.5843
39880SOL     OW26244   7.891   0.248  11.959  0.1998 -0.0696  0.2056
39880SOL    HW126245   7.963   0.224  11.902  0.7513 -0.2332  0.9560
39880SOL    HW226246   7.885   0.343  11.953 -0.2809 -0.1521 -0.7440
39881SOL     OW26247   8.021   6.283  11.651  0.2832  0.7161  0.3200
39881SOL    HW126248   7.934   6.246  11.640  0.4856  0.6556 -1.2443
39881SOL    HW226249   8.079   6.224  11.603  0.7845  2.3047 -1.1247
39882SOL     OW26250   3.816   6.576  12.688  0.4803  0.4441  0.2875
39882SOL    HW126251   3.731   6.562  12.647  1.2990  0.4770 -1.5096
39882SOL    HW226252   3.798   6.637  12.760 -0.9675  0.6468 -0.2122
39883SOL     OW26253   5.901   4.870   1.901 -0.2224 -0.0448 -0.4122
39883SOL    HW126254   5.921   4.778   1.916  0.1629  0.2161  0.7981
39883SOL    HW226255   5.807   4.878   1.917 -0.0036  0.0244  0.9696
39884SOL     OW26256   6.228   7.111   4.540 -0.3081 -0.5098  0.1244
39884SOL    HW126257   6.190   7.180   4.594 -1.7508 -0.8263 -0.4342
39884SOL    HW226258   6.261   7.047   4.603 -1.6603 -0.7104  0.6828
39885SOL     OW26259   1.357   8.005   4.001  0.3066  0.4707  0.4474
39885SOL    HW126260   1.274   7.970   4.034 -0.5535  0.4843 -1.5248
39885SOL    HW226261   1.404   7.928   3.969 -0.7969  0.7978 -2.2133
39886SOL     OW26262   0.749   1.365   4.249  0.1083 -0.1894  0.4427
39886SOL    HW126263   0.655   1.382   4.238  0.1402 -0.0050  0.4365
39886SOL    HW226264   0.779   1.338   4.163 -0.1065 -1.0915  0.6493
39887SOL     OW26265   3.321   8.753   8.530  0.5827 -0.1896  0.0726
39887SOL    HW126266   3.386   8.685   8.548  0.1188 -1.0798 -1.4801
39887SOL    HW226267   3.239   8.705   8.517 -0.1361  0.8231  0.7080
39888SOL     OW26268  12.594   7.885   4.729 -0.1400 -0.0032  0.4026
39888SOL    HW126269  12.518   7.913   4.781 -2.0276 -0.6360 -1.8434
39888SOL    HW226270  12.632   7.813   4.780 -0.3244  1.0423  2.1132
39889SOL     OW26271   2.364   1.919   6.455  0.1064 -0.1269  0.2480
39889SOL    HW126272   2.450   1.961   6.447 -0.5327  1.5813  1.7975
39889SOL    HW226273   2.385   1.828   6.476  1.5143 -0.3059 -1.6259
39890SOL     OW26274   8.917   8.836   4.852  0.1709 -0.0702  0.0890
39890SOL    HW126275   8.855   8.765   4.867  2.0495 -1.6522  0.6459
39890SOL    HW226276   9.003   8.794   4.850  1.0839  1.5128 -4.0583
39891SOL     OW26277   2.882   2.321   2.932  0.4947 -0.0542  0.1441
39891SOL    HW126278   2.901   2.244   2.986  0.5055 -0.9929 -1.1777
39891SOL    HW226279   2.944   2.316   2.860 -0.3914  0.4647 -0.6779
39892SOL     OW26280   2.643  10.881   0.011  0.0442 -0.0949  0.0817
39892SOL    HW126281   2.674  10.835   0.089 -1.7420 -1.8660 -0.1672
39892SOL    HW226282   2.687  10.837  -0.062  0.9459  0.9013 -0.0003
39893SOL     OW26283   1.919   6.452   4.258 -0.3701 -0.3377 -0.5523
39893SOL    HW126284   1.858   6.402   4.312 -0.0606 -0.0099  0.1252
39893SOL    HW226285   1.993   6.393   4.244 -1.0196 -0.8886 -1.7410
39894SOL     OW26286   8.892   3.686   5.932  0.3297  0.1695  0.2996
39894SOL    HW126287   8.916   3.746   6.003  0.1189  0.3913  0.1870
39894SOL    HW226288   8.867   3.744   5.860  0.9369 -0.0576 -0.0920
39895SOL     OW26289   5.520  11.456   7.925 -0.8281  0.1362 -0.0860
39895SOL    HW126290   5.606  11.498   7.925 -0.8187  0.1215  0.1369
39895SOL    HW226291   5.523  11.395   7.999 -0.4464 -1.0824 -1.0833
39896SOL     OW26292  10.608   4.531   0.170  0.5762 -0.2074 -0.1502
39896SOL    HW126293  10.574   4.613   0.203 -0.9477 -1.2257  0.9124
39896SOL    HW226294  10.694   4.554   0.134  0.8440  1.5584  1.4680
39897SOL     OW26295   1.668   0.917   7.515 -0.3000  0.6571  0.0642
39897SOL    HW126296   1.635   0.880   7.597 -1.5645  0.4965 -0.5066
39897SOL    HW226297   1.703   0.842   7.467  0.0364  0.6867  0.2585
39898SOL     OW26298   9.402   4.746  10.075  0.2172  0.0039  0.2408
39898SOL    HW126299   9.469   4.693  10.118  0.6349  0.8910  0.7057
39898SOL    HW226300   9.337   4.762  10.143  1.2830  2.1041  0.8369
39899SOL     OW26301   5.888  11.863   6.774  0.5129  0.2476 -0.1769
39899SOL    HW126302   5.905  11.950   6.809  0.4106 -0.0056  0.5240
39899SOL    HW226303   5.933  11.861   6.690  1.5458  0.5679  0.3498
39900SOL     OW26304   7.342   2.676   4.675  0.3657  0.4667  0.0080
39900SOL    HW126305   7.266   2.720   4.636 -0.9258 -0.7644  1.0007
39900SOL    HW226306   7.355   2.721   4.759  1.3353  1.2562 -0.5420
39901SOL     OW26307   0.215   2.305   6.621  0.1611  0.0286  0.4081
39901SOL    HW126308   0.233   2.291   6.714 -4.0770 -0.2404  1.3721
39901SOL    HW226309   0.167   2.227   6.593 -1.4822  1.4951 -1.1035
39902SOL     OW26310  10.824   3.685   7.689 -0.3216  0.3556  0.0514
39902SOL    HW126311  10.914   3.709   7.669 -0.3144  0.8769  0.6502
39902SOL    HW226312  10.830   3.598   7.728  0.0947  0.9390  1.3604
39903SOL     OW26313   9.486   6.932   2.970 -0.1891  0.3573  0.3820
39903SOL    HW126314   9.454   7.022   2.964 -0.5594  0.1622 -1.0826
39903SOL    HW226315   9.414   6.879   2.936  0.7920 -0.3046 -0.7481
39904SOL     OW26316  10.501   0.312   0.276 -0.5426 -1.0083  0.0972
39904SOL    HW126317  10.471   0.394   0.237  2.2340  0.3758  0.6305
39904SOL    HW226318  10.555   0.271   0.208 -0.2896 -1.3946  0.5216
39905SOL     OW26319   7.370   7.682   2.790  0.1731  0.1946 -0.0295
39905SOL    HW126320   7.304   7.665   2.858 -0.2232  0.0659 -0.4406
39905SOL    HW226321   7.438   7.731   2.835 -1.3852  2.6172 -0.1464
39906SOL     OW26322   3.252  11.326   7.203  0.1984 -0.3327  0.1042
39906SOL    HW126323   3.321  11.345   7.139 -0.1529 -2.3118 -0.9777
39906SOL    HW226324   3.282  11.365   7.285  1.7004  0.4197 -0.7693
39907SOL     OW26325   5.163   3.420   5.824  0.3338  0.2419  0.1629
39907SOL    HW126326   5.241   3.437   5.771  1.4788 -0.2273  1.6271
39907SOL    HW226327   5.154   3.499   5.878 -0.2327  0.2949 -0.0011
39908SOL     OW26328   0.074   8.835   2.675  0.4934  0.3884 -0.4445
39908SOL    HW126329   0.143   8.773   2.699 -1.0308 -0.8429  1.0096
39908SOL    HW226330   0.041   8.867   2.759 -0.0730  1.6958 -1.1424
39909SOL     OW26331   2.999   7.599   8.591  0.4713  0.6283  0.2985
39909SOL    HW126332   3.004   7.504   8.583 -0.8782  0.4934  0.7265
39909SOL    HW226333   3.041   7.633   8.512 -0.5226 -0.3594 -0.6773
39910SOL     OW26334   1.644   0.605   3.074 -0.8510 -0.6647  0.1877
39910SOL    HW126335   1.696   0.640   3.002 -0.3887  1.3066  1.4114
39910SOL    HW226336   1.683   0.520   3.093 -0.1414 -0.6265 -1.0213
39911SOL     OW26337   6.794  11.941  11.157  0.0750 -0.4666  0.1060
39911SOL    HW126338   6.824  11.851  11.162  0.3424 -0.3671  0.3269
39911SOL    HW226339   6.773  11.964  11.247  0.2677 -0.2239  0.0921
39912SOL     OW26340   0.260   9.793   1.224 -0.2467 -0.4426 -0.0876
39912SOL    HW126341   0.234   9.855   1.157  5.0093 -0.4107 -2.5971
39912SOL    HW226342   0.309   9.845   1.288 -1.6196 -1.1323  1.6131
39913SOL     OW26343   4.113  11.650   0.231 -0.1867 -0.0050  0.1751
39913SOL    HW126344   4.072  11.570   0.265 -2.0149  0.4813 -0.7819
39913SOL    HW226345   4.044  11.694   0.183  1.0437  1.7197 -0.1037
39914SOL     OW26346   8.188  11.187   3.228  0.5186  0.7794 -0.0763
39914SOL    HW126347   8.143  11.257   3.275 -0.3144  0.2956 -0.1281
39914SOL    HW226348   8.280  11.197   3.253  1.0243  3.9046 -2.6255
39915SOL     OW26349   8.581   8.921   5.025 -0.5569  0.6484 -0.2623
39915SOL    HW126350   8.608   8.975   4.951 -1.3952 -0.4031 -1.3659
39915SOL    HW226351   8.558   8.984   5.093  2.5654  1.6215  0.0413
39916SOL     OW26352   4.504  10.764   1.215 -0.1566  0.1642  0.3115
39916SOL    HW126353   4.534  10.813   1.138 -0.1274 -0.3877 -0.0314
39916SOL    HW226354   4.410  10.784   1.220 -0.1000  0.4410  0.3120
39917SOL     OW26355   1.414   3.034   1.299 -0.3480 -0.2472 -0.4831
39917SOL    HW126356   1.328   3.067   1.274 -0.4874  0.2845  0.6503
39917SOL    HW226357   1.398   2.977   1.374  0.3705  0.4978  0.2584
39918SOL     OW26358  12.022   1.574   8.816 -0.0263 -0.3141  0.1338
39918SOL    HW126359  12.087   1.544   8.880 -0.7876 -2.6611 -0.0919
39918SOL    HW226360  11.992   1.658   8.850  1.8996  0.0222  1.1339
39919SOL     OW26361   0.573   7.776   5.434  0.0898  0.3379 -0.2663
39919SOL    HW126362   0.523   7.850   5.400  1.1752  1.5992  0.7955
39919SOL    HW226363   0.594   7.723   5.357 -0.7137  1.1193 -1.0336
39920SOL     OW26364  11.818   3.487  11.531  0.2708  0.0654  0.4763
39920SOL    HW126365  11.884   3.438  11.482  0.7977 -1.0021  2.1700
39920SOL    HW226366  11.856   3.496  11.619 -0.7736  1.6220  0.8018
39921SOL     OW26367   8.465   9.243  11.417  0.9333 -0.5595 -0.2981
39921SOL    HW126368   8.398   9.260  11.482  0.0833  1.4674 -1.5941
39921SOL    HW226369   8.539   9.298  11.443  0.8199 -0.2107 -0.6976
39922SOL     OW26370   4.939   7.300   8.765  0.1345  0.4878 -0.3696
39922SOL    HW126371   4.948   7.379   8.713 -0.6041  0.7398 -0.1217
39922SOL    HW226372   4.846   7.293   8.784  0.2067 -0.3553 -0.2523
39923SOL     OW26373  11.392   9.977   2.702 -0.2131  0.2925  0.1105
39923SOL    HW126374  11.314   9.989   2.648 -0.5391  0.2683  0.5647
39923SOL    HW226375  11.465  10.005   2.647 -0.3789 -1.0558 -0.8466
39924SOL     OW26376   1.869   5.348   7.419 -0.1687 -0.0588 -0.3497
39924SOL    HW126377   1.814   5.339   7.341 -0.4751  0.2542 -0.1720
39924SOL    HW226378   1.881   5.258   7.451 -1.6679 -0.0447  0.3575
39925SOL     OW26379  12.702  12.501   3.673  0.2970 -0.3061 -0.0719
39925SOL    HW126380  12.750  12.530   3.751  0.0382  0.1460 -0.0784
39925SOL    HW226381  12.639  12.570   3.657 -1.7958 -1.8249  1.1475
39926SOL     OW26382   9.786   1.920   5.144 -0.2723 -0.5273 -0.1463
39926SOL    HW126383   9.730   1.842   5.151 -0.1739 -0.6998 -1.1083
39926SOL    HW226384   9.799   1.948   5.234 -1.0589 -1.0955  0.1586
39927SOL     OW26385   5.118   1.114   9.869  1.0338 -0.7774 -0.5491
39927SOL    HW126386   5.066   1.089   9.793 -2.3058  0.5405  1.1014
39927SOL    HW226387   5.089   1.203   9.890  2.8242 -0.5830  1.4667
39928SOL     OW26388   8.645   0.439   0.050 -0.0216  0.3056 -0.0341
39928SOL    HW126389   8.721   0.406   0.002  2.1212  1.5644  2.2509
39928SOL    HW226390   8.607   0.505  -0.007  1.2484  0.3882 -0.8234
39929SOL     OW26391  10.814   7.903  10.113  0.4169  0.2465 -0.4122
39929SOL    HW126392  10.793   7.878  10.023 -2.2462 -1.8492  0.6326
39929SOL    HW226393  10.865   7.830  10.147 -1.4676 -0.6703  0.6549
39930SOL     OW26394   2.784  10.645  10.343 -0.1680 -0.3661 -0.0343
39930SOL    HW126395   2.772  10.707  10.415 -1.5641 -1.6566  0.9175
39930SOL    HW226396   2.844  10.689  10.283  1.1558  0.7187  1.9562
39931SOL     OW26397  10.202   5.948  11.574 -0.1271 -0.1086 -0.1159
39931SOL    HW126398  10.226   5.872  11.521 -0.0634 -0.5812  0.5820
39931SOL    HW226399  10.259   5.942  11.651 -0.9696 -0.0270  0.5207
39932SOL     OW26400   2.593   4.530   2.758 -0.0296 -0.3963 -0.2866
39932SOL    HW126401   2.602   4.625   2.756 -0.7700 -0.2798  0.8932
39932SOL    HW226402   2.521   4.514   2.819 -0.3879 -1.6916 -1.0138
39933SOL     OW26403   3.337   7.243   5.449 -0.1505 -0.0022  0.1584
39933SOL    HW126404   3.423   7.244   5.406  0.4911  0.3877  1.3761
39933SOL    HW226405   3.311   7.335   5.454 -0.0315  0.0030  0.9059
39934SOL     OW26406  10.632   6.678   6.096 -0.5410 -0.6772  0.3024
39934SOL    HW126407  10.553   6.703   6.144 -0.2897  0.5731  0.1006
39934SOL    HW226408  10.688   6.756   6.099 -0.2176 -0.8083 -1.3978
39935SOL     OW26409   2.985   5.558  11.300  0.3154  0.3857  0.1201
39935SOL    HW126410   2.933   5.571  11.379 -0.4514  1.2269 -0.4983
39935SOL    HW226411   3.047   5.631  11.299 -0.1857  0.8139 -0.4356
39936SOL     OW26412   5.692   0.265   3.689 -0.3898 -0.1386 -0.0595
39936SOL    HW126413   5.638   0.191   3.716  0.5361 -0.9211 -0.2808
39936SOL    HW226414   5.732   0.296   3.771 -1.2697  0.5277  0.1227
39937SOL     OW26415   7.154  10.670   5.344 -0.5010 -0.2101  0.0738
39937SOL    HW126416   7.124  10.727   5.273 -0.1392  0.3507  0.3654
39937SOL    HW226417   7.084  10.606   5.354 -0.3201 -0.6250 -1.1470
39938SOL     OW26418   1.670   1.132   7.158  0.2907 -0.6838 -0.3229
39938SOL    HW126419   1.579   1.161   7.170  0.9580  1.7669 -0.5913
39938SOL    HW226420   1.670   1.088   7.073 -0.2526  1.3399 -1.4364
39939SOL     OW26421   2.607   0.296   4.839  0.3224 -0.0592  0.7179
39939SOL    HW126422   2.516   0.279   4.864 -0.1377  1.9910  0.5980
39939SOL    HW226423   2.657   0.227   4.883 -1.3666 -1.9783 -0.2013
39940SOL     OW26424   6.336  12.510  10.419  0.2942  0.7472 -0.7975
39940SOL    HW126425   6.353  12.423  10.453  2.5205  1.0173 -1.0893
39940SOL    HW226426   6.244  12.507  10.391 -0.3411 -0.7755  1.2232
39941SOL     OW26427   2.988   6.220   4.737  0.1808  0.0300 -0.4664
39941SOL    HW126428   3.008   6.194   4.647 -0.7770 -1.2345 -0.3471
39941SOL    HW226429   2.893   6.236   4.737 -0.1375 -1.5405  0.6351
39942SOL     OW26430   0.088   7.490   3.874 -0.1712 -0.3942  0.1006
39942SOL    HW126431   0.038   7.535   3.942  1.2239  2.2208 -0.4595
39942SOL    HW226432   0.160   7.449   3.920  0.3613  0.7559  0.3251
39943SOL     OW26433   0.594   8.501  10.196  0.2349 -0.1827 -0.4384
39943SOL    HW126434   0.620   8.529  10.108 -0.3040 -1.2879 -0.9663
39943SOL    HW226435   0.529   8.433  10.181 -0.5849  0.2836  0.8332
39944SOL     OW26436   8.536   1.907  11.368  0.1612 -0.4273  0.5097
39944SOL    HW126437   8.548   1.874  11.278  1.4568 -1.6651  1.1026
39944SOL    HW226438   8.625   1.917  11.402 -0.2987  0.7545  1.4171
39945SOL     OW26439   3.539  12.632  12.217  0.0444  0.4486 -0.7046
39945SOL    HW126440   3.615  12.610  12.163  0.8666  1.7329 -0.1403
39945SOL    HW226441   3.549  12.578  12.295  1.5866  2.0593  0.3028
39946SOL     OW26442   8.504   4.385   8.396  0.1359 -0.1597  0.0727
39946SOL    HW126443   8.410   4.389   8.378  0.0537  0.3066  0.5580
39946SOL    HW226444   8.533   4.305   8.354 -0.5437 -0.4707  0.1748
39947SOL     OW26445   1.513   3.825   1.474 -0.3576 -0.0623 -0.5222
39947SOL    HW126446   1.486   3.856   1.388  0.4845  1.4767 -0.2748
39947SOL    HW226447   1.609   3.835   1.474 -0.3703  0.2434  0.6783
39948SOL     OW26448   3.846   7.950   4.318 -0.1954 -0.5412  0.1773
39948SOL    HW126449   3.906   7.999   4.262  0.4427 -0.1045  1.2075
39948SOL    HW226450   3.868   7.858   4.303 -0.2132 -0.4425 -0.4705
39949SOL     OW26451   6.269  10.462  10.983  0.0113  0.4915  0.4077
39949SOL    HW126452   6.245  10.535  11.040 -1.1355  0.5852 -0.1607
39949SOL    HW226453   6.295  10.502  10.901  1.3755  0.3409  0.7509
39950SOL     OW26454   2.877   0.132   1.949  0.2738 -0.8400  0.3146
39950SOL    HW126455   2.808   0.128   1.883  0.5400 -2.0567  0.0745
39950SOL    HW226456   2.834   0.164   2.028  0.1465  1.5836 -0.6555
39951SOL     OW26457   8.966   5.842   1.838 -0.1414  0.5427 -0.2570
39951SOL    HW126458   8.940   5.751   1.823  1.7932 -0.4062  1.7356
39951SOL    HW226459   8.926   5.865   1.921  0.2049  1.1872 -0.2654
39952SOL     OW26460  12.712   9.874   9.611 -0.0670 -0.4155  0.1303
39952SOL    HW126461  12.775   9.918   9.554  0.2848 -1.0783  0.0038
39952SOL    HW226462  12.627   9.891   9.571  0.2966 -2.3285 -1.6246
39953SOL     OW26463   4.878   6.552   0.228  0.9521  0.3815 -0.9599
39953SOL    HW126464   4.818   6.537   0.302  0.6922  0.0587 -1.2308
39953SOL    HW226465   4.848   6.634   0.189  1.4775  0.8776 -0.3372
39954SOL     OW26466   5.769  12.282   9.597 -0.0739 -0.2315 -0.1880
39954SOL    HW126467   5.765  12.327   9.681  0.6243  2.1043 -1.3253
39954SOL    HW226468   5.861  12.289   9.570 -0.4290 -0.2661 -1.4817
39955SOL     OW26469  11.310   0.438   9.933 -0.0523  0.1547 -0.1065
39955SOL    HW126470  11.387   0.492   9.916 -0.0970  0.2595  0.0362
39955SOL    HW226471  11.238   0.500   9.943  0.1039  0.1387  1.2405
39956SOL     OW26472   0.912   0.623   2.937 -0.5533 -0.3148 -0.0346
39956SOL    HW126473   0.998   0.628   2.980 -0.3813 -0.8599 -0.3048
39956SOL    HW226474   0.912   0.697   2.875 -0.6779  0.2797  0.6661
39957SOL     OW26475   6.613   5.161  11.322 -0.4261  0.0592 -0.1757
39957SOL    HW126476   6.610   5.128  11.412 -0.6934  1.3962  0.3270
39957SOL    HW226477   6.535   5.216  11.314  0.1241  0.7528 -0.9036
39958SOL     OW26478   6.705   5.298   3.933 -0.5324 -0.6504  0.5287
39958SOL    HW126479   6.696   5.352   3.855 -0.4683  1.8336  2.1168
39958SOL    HW226480   6.755   5.222   3.904  1.8241  1.4088 -1.3638
39959SOL     OW26481  12.415   5.425   9.129 -0.2648  0.1769 -0.2720
39959SOL    HW126482  12.328   5.385   9.132  0.4833 -1.6092 -0.8660
39959SOL    HW226483  12.400   5.516   9.154 -2.1047 -0.3974  0.9763
39960SOL     OW26484  12.684   6.087   2.657 -0.1507 -0.6087 -0.2559
39960SOL    HW126485  12.719   6.033   2.728  0.7480 -1.1389 -1.0683
39960SOL    HW226486  12.670   6.026   2.585  1.8115  0.3157 -1.5283
39961SOL     OW26487   3.934   7.415   4.470 -0.4234 -0.3749  0.0175
39961SOL    HW126488   3.840   7.414   4.487 -0.3989 -0.4602  0.1418
39961SOL    HW226489   3.944   7.481   4.401 -0.4529  0.3591  0.7001
39962SOL     OW26490   4.545   1.108   9.144 -0.4916 -0.5399 -0.1827
39962SOL    HW126491   4.527   1.184   9.199  0.1420 -0.3558 -0.2244
39962SOL    HW226492   4.459   1.068   9.129 -0.6532 -0.7465  1.1681
39963SOL     OW26493   8.550  10.100  12.776  0.4301  0.0523  0.7703
39963SOL    HW126494   8.615  10.117  12.843 -0.1377  1.7473  0.9230
39963SOL    HW226495   8.540  10.183  12.729  0.0409 -0.7973 -0.7322
39964SOL     OW26496   2.991   1.329   3.290  0.2296 -0.1378 -0.0779
39964SOL    HW126497   2.934   1.373   3.353  2.4024  0.9690  1.2108
39964SOL    HW226498   3.028   1.255   3.338  0.0496 -0.7522 -0.8580
39965SOL     OW26499   9.052   7.112  11.583 -0.0475 -0.0647  0.6180
39965SOL    HW126500   8.956   7.115  11.589 -0.1018 -0.1560 -0.1550
39965SOL    HW226501   9.069   7.071  11.499  0.6731  1.2501  0.1047
39966SOL     OW26502   9.265   8.545   8.053 -0.5462 -0.4656  0.2635
39966SOL    HW126503   9.352   8.508   8.042 -1.0458 -1.9218  0.8590
39966SOL    HW226504   9.206   8.469   8.047 -1.7054  0.3736  0.5928
39967SOL     OW26505   4.036   2.285   3.439  0.2540 -0.2818  0.1417
39967SOL    HW126506   3.963   2.333   3.476  1.7256  0.6890  1.9689
39967SOL    HW226507   4.080   2.349   3.382  0.5567 -0.3700  0.2746
39968SOL     OW26508  11.079   9.486   6.681 -0.0216 -0.1692  0.3486
39968SOL    HW126509  11.138   9.547   6.636  0.0178 -0.2887  0.2405
39968SOL    HW226510  11.065   9.415   6.619  1.3307 -1.1591  1.1331
39969SOL     OW26511   3.444   6.072   9.979 -0.1886 -0.2252  0.1406
39969SOL    HW126512   3.371   6.131   9.959  0.3279 -0.2233 -1.9929
39969SOL    HW226513   3.407   5.984   9.967 -0.4857 -0.3156  1.5723
39970SOL     OW26514   5.438   0.158  11.381  0.2367  0.0615  0.2813
39970SOL    HW126515   5.528   0.166  11.349  0.4844  0.2589  1.0286
39970SOL    HW226516   5.399   0.090  11.325  0.4909  0.7856 -0.8175
39971SOL     OW26517   1.230   5.465   3.455  0.1756 -0.2580 -0.2917
39971SOL    HW126518   1.255   5.471   3.363 -0.7596 -0.4068 -0.5659
39971SOL    HW226519   1.296   5.407   3.493  0.6267 -0.1244 -0.8359
39972SOL     OW26520   8.693  12.203   7.836  0.1428 -0.1566 -0.0477
39972SOL    HW126521   8.733  12.210   7.749 -0.2743  0.1834 -0.2143
39972SOL    HW226522   8.712  12.114   7.864  2.0401  0.3159  0.3757
39973SOL     OW26523   8.275  12.777   8.529  0.1351  0.3152 -0.6872
39973SOL    HW126524   8.252  12.740   8.615 -0.0544  2.0282  0.0538
39973SOL    HW226525   8.229  12.722   8.466 -0.5893 -0.3521  0.3853
39974SOL     OW26526   3.054   9.620  11.659  0.7292 -0.2381 -0.3008
39974SOL    HW126527   3.027   9.663  11.577  0.4360 -1.4701 -0.8838
39974SOL    HW226528   3.134   9.573  11.636  0.2079 -1.2579 -0.1247
39975SOL     OW26529   0.114   6.576  11.588  0.4849 -0.2669 -0.1419
39975SOL    HW126530   0.047   6.555  11.652  0.1479  0.4882 -0.2360
39975SOL    HW226531   0.197   6.570  11.636  0.2015  0.7813  0.4960
39976SOL     OW26532   9.302  12.188  10.826 -0.1894 -0.3490  0.4871
39976SOL    HW126533   9.273  12.265  10.874 -0.3275  0.8394 -1.3829
39976SOL    HW226534   9.221  12.144  10.801 -0.2007  0.0624 -0.2222
39977SOL     OW26535   3.194   2.840  11.610  0.5092 -0.1765  0.0954
39977SOL    HW126536   3.259   2.771  11.619  1.8204  0.8874 -0.9108
39977SOL    HW226537   3.164   2.833  11.519  0.1373  0.1423  0.1908
39978SOL     OW26538   2.630   1.496   2.190 -0.2084  0.0295  0.5092
39978SOL    HW126539   2.636   1.408   2.228 -3.7657  0.4619  2.5501
39978SOL    HW226540   2.685   1.550   2.247  0.7269 -0.5822  0.2109
39979SOL     OW26541   9.771   9.049   5.221  0.3840  0.0025 -0.2298
39979SOL    HW126542   9.850   9.094   5.192 -0.1374  0.2285 -1.3524
39979SOL    HW226543   9.746   8.994   5.148 -0.1249 -0.5864  0.3698
39980SOL     OW26544  11.030  11.327   8.971  0.0157  0.1295 -0.3934
39980SOL    HW126545  11.080  11.403   9.001  1.6936 -0.5717 -1.3159
39980SOL    HW226546  11.016  11.343   8.878  1.1622 -1.0585 -0.8063
39981SOL     OW26547   5.132   6.588   8.157 -0.1683 -0.0463 -0.2114
39981SOL    HW126548   5.113   6.630   8.073 -0.1251  0.5519  0.0703
39981SOL    HW226549   5.226   6.570   8.154  0.3165  2.0553  0.5927
39982SOL     OW26550  10.165   1.934   1.022  0.3430  0.4918  0.3258
39982SOL    HW126551  10.225   1.870   1.061  0.6031  0.7181  0.2961
39982SOL    HW226552  10.208   2.018   1.035 -0.6145  0.8219  1.5841
39983SOL     OW26553   7.790   0.840   9.642  0.1188  0.3595  0.2909
39983SOL    HW126554   7.790   0.792   9.560 -0.0265  1.2741 -0.2544
39983SOL    HW226555   7.789   0.772   9.710  2.5472 -0.4839 -0.4025
39984SOL     OW26556   1.926   3.171  11.977 -0.3716  0.4721  0.1486
39984SOL    HW126557   1.895   3.081  11.966 -0.5963  0.5730 -0.0538
39984SOL    HW226558   1.943   3.179  12.071 -2.3253  0.8466  0.5177
39985SOL     OW26559   3.239  10.212   5.668  0.3924 -0.2245  0.2250
39985SOL    HW126560   3.202  10.286   5.716  1.8872  0.5808  0.1891
39985SOL    HW226561   3.174  10.142   5.679 -1.0401  1.0501  0.3011
39986SOL     OW26562   1.222   0.089  11.072 -0.3462  0.0755 -0.0974
39986SOL    HW126563   1.151   0.042  11.115  0.0718  1.0502  1.7427
39986SOL    HW226564   1.197   0.181  11.078  0.8236  0.3933  0.0987
39987SOL     OW26565   8.524  11.387   1.989 -0.1404 -0.0487 -0.1518
39987SOL    HW126566   8.570  11.304   2.000 -0.6537 -0.2035  0.8631
39987SOL    HW226567   8.595  11.452   1.980  0.2661 -0.4286  0.2720
39988SOL     OW26568   6.890   6.637   9.656 -0.2997  0.1054 -0.1489
39988SOL    HW126569   6.803   6.608   9.628 -0.3068 -0.0220  0.0072
39988SOL    HW226570   6.899   6.605   9.745 -0.3628  0.6997  0.0769
39989SOL     OW26571   0.329  10.530   2.341  0.0874  0.0087  0.0224
39989SOL    HW126572   0.335  10.626   2.340  0.5028  0.1388  3.3546
39989SOL    HW226573   0.235  10.512   2.343  0.0105  0.3717 -0.2664
39990SOL     OW26574   3.318  11.719  12.217 -0.0093 -0.6816 -0.1739
39990SOL    HW126575   3.251  11.773  12.260  1.5022  0.3331  1.0121
39990SOL    HW226576   3.273  11.636  12.199 -1.9850  0.4498 -0.7593
39991SOL     OW26577   2.257  10.267   0.717  0.4498  0.5386  0.3994
39991SOL    HW126578   2.228  10.214   0.792  0.5713  0.5297  0.4396
39991SOL    HW226579   2.338  10.308   0.747  0.0190  1.2547  0.5994
39992SOL     OW26580  12.024   6.400   8.491 -0.3675  0.3703  0.4243
39992SOL    HW126581  11.987   6.482   8.524 -1.7945  0.5475 -1.4364
39992SOL    HW226582  12.085   6.372   8.559 -0.2557  2.6737  1.3518
39993SOL     OW26583   7.259   5.332   1.031 -0.2262  0.3421 -0.0702
39993SOL    HW126584   7.329   5.268   1.019 -1.0397 -0.5678 -0.1041
39993SOL    HW226585   7.199   5.314   0.959 -2.5552 -1.6763  2.1539
39994SOL     OW26586   2.051   5.144   8.565 -0.4081 -0.0217 -0.9729
39994SOL    HW126587   2.116   5.211   8.586 -0.0609 -1.1775  2.1276
39994SOL    HW226588   2.102   5.067   8.542 -0.4607 -1.1537  2.1690
39995SOL     OW26589   2.155   0.101   2.720 -0.3853  0.2331  0.0809
39995SOL    HW126590   2.076   0.046   2.724 -0.4515  0.2508 -0.8817
39995SOL    HW226591   2.132   0.178   2.772 -1.0925  0.3359 -0.3636
39996SOL     OW26592   0.383   9.165   7.085 -0.4424  0.0604  0.0909
39996SOL    HW126593   0.438   9.208   7.020 -0.4233 -1.1160 -0.7182
39996SOL    HW226594   0.305   9.219   7.090 -0.4050  0.2229 -0.8629
39997SOL     OW26595  11.774   4.445   8.634  0.5246 -0.3458 -0.3213
39997SOL    HW126596  11.712   4.400   8.692 -0.4890  1.6107  0.2072
39997SOL    HW226597  11.732   4.441   8.547  0.2938 -0.1897 -0.2188
39998SOL     OW26598   6.436   7.303   3.871 -0.8196 -0.0172  0.3470
39998SOL    HW126599   6.350   7.266   3.853 -0.1257 -0.9244 -1.3106
39998SOL    HW226600   6.420   7.397   3.881 -2.0873 -0.2717  0.8432
39999SOL     OW26601  12.187   5.381   3.096 -0.0519 -0.5592  0.7849
39999SOL    HW126602  12.152   5.466   3.067  0.5540 -0.0319  1.5378
39999SOL    HW226603  12.194   5.329   3.016 -2.0734 -0.5248  0.5498
40000SOL     OW26604  11.786   9.739   0.845  0.0599  0.4018  0.1878
40000SOL    HW126605  11.734   9.659   0.857 -1.5547  1.2423 -0.8978
40000SOL    HW226606  11.856   9.713   0.785 -0.4812 -0.1751 -0.1986
40001SOL     OW26607   5.725  11.399   6.847  0.0569  0.2098 -0.5862
40001SOL    HW126608   5.771  11.455   6.910 -2.0318  2.0816 -0.5861
40001SOL    HW226609   5.785  11.393   6.772  1.6396 -0.2092  0.6465
40002SOL     OW26610   2.090   8.516   8.751  0.0584 -0.2033 -0.2679
40002SOL    HW126611   2.099   8.598   8.799  0.8343  0.6607 -1.8488
40002SOL    HW226612   2.037   8.538   8.675  0.2677 -1.1802 -0.7106
40003SOL     OW26613   2.982   7.165  10.705  0.3722  0.0940  0.5446
40003SOL    HW126614   3.046   7.204  10.765  0.8202 -0.5226  0.4727
40003SOL    HW226615   2.915   7.127  10.761 -0.1865  1.1433  0.6151
40004SOL     OW26616  11.856  11.994   4.048 -0.3789  0.3383  0.1785
40004SOL    HW126617  11.866  12.047   4.127  2.0860 -0.9831  0.8431
40004SOL    HW226618  11.937  12.007   4.000 -0.5418 -1.2696 -0.6071
40005SOL     OW26619  10.072   2.248   5.585 -0.3640  0.0062 -0.2736
40005SOL    HW126620  10.128   2.185   5.632 -0.9629  1.2451  2.2626
40005SOL    HW226621   9.983   2.221   5.607 -0.6536  0.8655 -0.3729
40006SOL     OW26622   5.529   7.090   4.095 -0.1112  0.2016  0.6822
40006SOL    HW126623   5.616   7.075   4.133  0.3444 -0.0207 -0.3946
40006SOL    HW226624   5.519   7.185   4.095  0.7794  0.3362 -0.4892
40007SOL     OW26625  10.848   3.592   9.717 -0.5236  0.2332  0.2623
40007SOL    HW126626  10.870   3.674   9.674 -0.9636  0.5628  0.6602
40007SOL    HW226627  10.823   3.533   9.645  2.2211 -0.3797 -0.2845
40008SOL     OW26628   1.190   8.548   5.454 -0.0040  0.0861  0.2556
40008SOL    HW126629   1.280   8.557   5.484 -0.1160  0.8508  0.3660
40008SOL    HW226630   1.157   8.637   5.447 -0.8719 -0.1973  0.5785
40009SOL     OW26631  12.408   1.632   9.463 -0.2075 -0.1348  0.2454
40009SOL    HW126632  12.419   1.726   9.450  0.6240 -0.4114 -1.2916
40009SOL    HW226633  12.336   1.625   9.525 -0.4767  1.5062  0.1672
40010SOL     OW26634   8.894  10.257   3.985  0.1050  0.0867  0.0450
40010SOL    HW126635   8.876  10.316   3.911 -0.0296  1.9051  1.4420
40010SOL    HW226636   8.901  10.316   4.060 -1.1113 -1.8176  1.7195
40011SOL     OW26637   9.690   6.588   0.264  0.4921 -0.1748 -0.1869
40011SOL    HW126638   9.691   6.543   0.180 -0.4760  1.3774 -1.0760
40011SOL    HW226639   9.765   6.648   0.260  1.4689 -1.2908  0.7793
40012SOL     OW26640   3.291   9.911   3.945 -0.3663 -0.7011  0.1760
40012SOL    HW126641   3.212   9.863   3.917  0.1555 -1.9098  0.6823
40012SOL    HW226642   3.309   9.971   3.873 -0.4450 -2.0230 -1.0025
40013SOL     OW26643   3.611  11.713  10.092 -0.2303  0.1844  0.1606
40013SOL    HW126644   3.569  11.772  10.155  0.6799  0.1432  0.8228
40013SOL    HW226645   3.538  11.672  10.046 -0.9434  3.3364 -1.8276
40014SOL     OW26646   5.830   7.849  11.098 -0.2867 -0.2754  0.4392
40014SOL    HW126647   5.826   7.923  11.037  0.9908  0.9387  1.7549
40014SOL    HW226648   5.758   7.866  11.160  0.0092 -0.1303  0.7434
40015SOL     OW26649   0.435   0.168   1.407 -0.3213 -0.3789  0.2608
40015SOL    HW126650   0.342   0.152   1.395 -0.6700 -0.7018  2.8315
40015SOL    HW226651   0.453   0.247   1.355 -1.4166 -1.6644 -2.2279
40016SOL     OW26652   9.887   5.724   2.288  0.1124 -0.2533  0.1218
40016SOL    HW126653   9.904   5.707   2.380  1.0119  0.0025  0.0232
40016SOL    HW226654   9.953   5.672   2.242 -0.4788 -0.5605 -0.3839
40017SOL     OW26655   5.248   3.858   9.795 -0.3431 -0.0449 -0.4094
40017SOL    HW126656   5.220   3.924   9.858  1.7206 -1.0733  1.7238
40017SOL    HW226657   5.266   3.780   9.847  3.1400 -0.4466 -1.9206
40018SOL     OW26658   1.479   2.567  12.413  1.0747 -0.6851  0.1073
40018SOL    HW126659   1.506   2.596  12.500  1.0913 -2.3876  0.7207
40018SOL    HW226660   1.532   2.618  12.352  0.7493  0.8659  1.0530
40019SOL     OW26661   6.986   6.158  11.888 -0.0436  0.3456 -0.0443
40019SOL    HW126662   6.922   6.087  11.880  0.9648 -0.6480  0.3975
40019SOL    HW226663   7.039   6.134  11.964  1.9684  0.2279 -1.4091
40020SOL     OW26664   8.105   1.083   6.039 -0.5492 -0.5917 -0.1630
40020SOL    HW126665   8.177   1.109   6.097 -0.9025 -2.1185  1.0388
40020SOL    HW226666   8.131   0.997   6.006 -2.2615 -1.7239  1.2217
40021SOL     OW26667   3.745   8.160   4.641  0.3847  0.3068 -0.0780
40021SOL    HW126668   3.731   8.224   4.572  1.2874 -0.4014 -0.9598
40021SOL    HW226669   3.673   8.098   4.631  0.7371 -0.0188 -0.6673
40022SOL     OW26670   0.965   7.173   6.972 -0.0161 -0.4838 -0.3673
40022SOL    HW126671   0.927   7.229   7.040  2.1040 -0.3067  0.7685
40022SOL    HW226672   1.019   7.232   6.920 -0.1118 -0.9579 -1.0096
40023SOL     OW26673  12.543  10.590  11.344  0.0799 -0.2056  0.1862
40023SOL    HW126674  12.553  10.595  11.439 -1.0527  0.2162  0.2982
40023SOL    HW226675  12.467  10.533  11.331 -0.1440  0.2198 -0.4377
40024SOL     OW26676   6.478   9.426   2.757  0.0486 -0.4612  0.0938
40024SOL    HW126677   6.501   9.511   2.719  0.4005 -1.0504 -1.0661
40024SOL    HW226678   6.527   9.363   2.704 -1.3916 -1.4987 -0.0521
40025SOL     OW26679   1.645   6.980   0.832  0.8321  0.0816  0.0729
40025SOL    HW126680   1.728   6.987   0.880  0.7424  1.5996  0.0518
40025SOL    HW226681   1.598   7.061   0.853 -1.1540 -1.2166  0.9774
40026SOL     OW26682   0.336   7.464   7.441  0.1234 -0.6008  0.3236
40026SOL    HW126683   0.252   7.482   7.399 -0.1852 -3.1418 -0.3498
40026SOL    HW226684   0.324   7.490   7.532 -1.2108 -0.3911  0.1057
40027SOL     OW26685   6.682   3.728   3.717  0.3778 -0.2966  0.0594
40027SOL    HW126686   6.686   3.823   3.729 -1.1703 -0.0378 -1.2042
40027SOL    HW226687   6.619   3.698   3.783 -1.4175 -0.0105 -1.4438
40028SOL     OW26688   8.892   3.339   4.916 -0.8626 -0.0196  0.2305
40028SOL    HW126689   8.894   3.356   4.822 -3.3075  1.0632  0.2797
40028SOL    HW226690   8.900   3.426   4.956 -1.2510 -0.3033  0.9473
40029SOL     OW26691   0.869  11.781  11.851  0.3540 -0.8071 -0.3153
40029SOL    HW126692   0.801  11.803  11.915  1.2592  0.9355  0.1223
40029SOL    HW226693   0.937  11.738  11.903  0.7884 -0.0120 -0.2097
40030SOL     OW26694   4.789   8.556   7.192  0.5416 -0.0809 -0.3252
40030SOL    HW126695   4.805   8.604   7.274 -0.7279  1.0902 -0.7072
40030SOL    HW226696   4.876   8.530   7.162  1.4921  3.0206 -0.6628
40031SOL     OW26697   7.318   9.809   7.776  0.7063  0.1194 -0.1628
40031SOL    HW126698   7.282   9.880   7.829  1.5618  1.1123 -0.8653
40031SOL    HW226699   7.245   9.777   7.724  0.1058 -0.1385  0.8200
40032SOL     OW26700   0.828  12.446  12.519  0.6813  0.8615 -0.6713
40032SOL    HW126701   0.788  12.376  12.468  1.6793  0.3207 -0.7300
40032SOL    HW226702   0.755  12.486  12.566  0.4303 -2.7940  2.5485
40033SOL     OW26703   8.115   0.671  10.222  0.2231 -0.6256  0.7829
40033SOL    HW126704   8.139   0.595  10.169  0.5818  0.0866 -0.0990
40033SOL    HW226705   8.160   0.744  10.181 -0.9244  0.2396  0.9984
40034SOL     OW26706   2.906   3.749  11.756 -0.6402 -0.0110  0.7085
40034SOL    HW126707   2.928   3.671  11.704  1.3329 -0.0603  1.5575
40034SOL    HW226708   2.828   3.723  11.805  0.1846 -1.6263  1.2512
40035SOL     OW26709   5.078   2.760   7.562  0.3810 -0.3739  0.3750
40035SOL    HW126710   5.070   2.677   7.514 -1.5537 -0.3200  0.5518
40035SOL    HW226711   5.093   2.825   7.494 -2.9906 -0.1992 -0.3785
40036SOL     OW26712  11.399   5.852   7.770  0.2636 -0.3727  0.0335
40036SOL    HW126713  11.394   5.865   7.864  0.6308  1.7888 -0.2129
40036SOL    HW226714  11.475   5.796   7.757  0.1762 -0.7321  0.9991
40037SOL     OW26715   0.387   6.894   1.430  0.6639 -1.1873  0.2628
40037SOL    HW126716   0.433   6.967   1.388  1.0771 -1.0239  0.9768
40037SOL    HW226717   0.344   6.848   1.358 -1.4321  0.9911  0.0106
40038SOL     OW26718  12.616  11.193   9.491  0.5071 -0.2286  0.1142
40038SOL    HW126719  12.636  11.271   9.439  1.1149  1.1433  2.2660
40038SOL    HW226720  12.691  11.183   9.549 -1.0247 -0.3642  2.1886
40039SOL     OW26721   3.122   1.603  12.033 -0.7288  0.0071  0.2519
40039SOL    HW126722   3.114   1.513  12.002  1.0604  0.0579 -0.4391
40039SOL    HW226723   3.101   1.598  12.126 -0.4190 -1.1592  0.2726
40040SOL     OW26724  10.818   0.530   2.803  0.2059  0.7227 -0.2640
40040SOL    HW126725  10.813   0.531   2.899  1.7497 -0.0578 -0.1503
40040SOL    HW226726  10.876   0.603   2.781 -0.9520  1.5554 -0.7089
40041SOL     OW26727   2.337  10.440  12.400  0.2396 -0.0720  0.0847
40041SOL    HW126728   2.429  10.464  12.412  0.3028  0.1753 -0.8322
40041SOL    HW226729   2.301  10.437  12.489  0.1366  3.8079  0.3569
40042SOL     OW26730  12.719   8.519   7.345  0.3728 -0.4824 -0.7695
40042SOL    HW126731  12.646   8.460   7.362  1.0520 -0.7706  1.4404
40042SOL    HW226732  12.695   8.600   7.390  1.9222 -1.0103  1.1449
40043SOL     OW26733   5.763   6.803   4.294 -0.2014 -0.4884 -0.1671
40043SOL    HW126734   5.788   6.721   4.251  1.6237 -0.2589  0.3781
40043SOL    HW226735   5.801   6.796   4.382  0.6236  1.2292 -0.3422
40044SOL     OW26736   8.908   2.793   8.291 -0.0810 -0.6297  0.5559
40044SOL    HW126737   8.844   2.854   8.327 -0.0028  0.0053 -0.3764
40044SOL    HW226738   8.993   2.835   8.305 -0.0061 -0.6405  0.1449
40045SOL     OW26739   2.330  11.935  12.681  0.3873 -0.1439 -0.2278
40045SOL    HW126740   2.271  12.010  12.689  2.0179  1.1553  0.3242
40045SOL    HW226741   2.276  11.859  12.700 -1.0953  0.9774  0.2023
40046SOL     OW26742   4.816   8.160   1.492 -0.4404  0.3285 -0.0725
40046SOL    HW126743   4.909   8.138   1.500 -0.4345  0.0237 -0.8970
40046SOL    HW226744   4.796   8.206   1.573  0.5190  0.7014 -0.0274
40047SOL     OW26745   9.963   2.279   3.655  0.1149  0.0713  0.5876
40047SOL    HW126746   9.885   2.249   3.701 -0.3465 -0.3158 -0.4140
40047SOL    HW226747  10.022   2.203   3.655 -0.9952 -0.9144 -1.8217
40048SOL     OW26748   2.871   3.421   4.270  0.3606  0.9087 -0.3116
40048SOL    HW126749   2.778   3.431   4.251 -0.0833  1.4532  1.9218
40048SOL    HW226750   2.898   3.507   4.303  1.2451  0.3006  0.6092
40049SOL     OW26751   6.920   9.924   5.985 -0.2876  0.4301 -0.7905
40049SOL    HW126752   6.895   9.832   5.983  0.7665  0.1267 -0.8360
40049SOL    HW226753   7.004   9.925   6.032  0.4064  1.1951 -1.9814
40050SOL     OW26754  11.326  10.560   0.737 -0.0568  0.2435 -0.3933
40050SOL    HW126755  11.370  10.521   0.661 -2.8763 -2.7388 -0.6988
40050SOL    HW226756  11.260  10.618   0.699 -1.3377 -1.0996 -0.2942
40051SOL     OW26757  10.880   3.239   2.968  0.5658 -0.3226  0.3264
40051SOL    HW126758  10.920   3.276   2.890  1.0872 -1.3620  0.0874
40051SOL    HW226759  10.890   3.307   3.035  0.8737  0.2373 -0.2779
40052SOL     OW26760   7.417   9.579   9.139  0.0753 -0.3880 -0.4756
40052SOL    HW126761   7.352   9.616   9.199 -0.1367 -0.3576 -0.7266
40052SOL    HW226762   7.395   9.616   9.054  0.8499  0.1965 -0.4440
40053SOL     OW26763   3.630   5.094   8.098  0.2926  0.3339 -0.3412
40053SOL    HW126764   3.628   5.116   8.192  1.2500  0.5972 -0.3725
40053SOL    HW226765   3.689   5.019   8.092 -1.1710 -0.8557 -0.5298
40054SOL     OW26766  10.565  11.187  11.692  0.0622 -0.4477  0.1421
40054SOL    HW126767  10.655  11.195  11.721  0.0259 -0.6179  0.3058
40054SOL    HW226768  10.559  11.244  11.615  0.2185 -0.1778  0.3307
40055SOL     OW26769   5.266   3.230   3.261  0.1635  0.1359  0.2927
40055SOL    HW126770   5.352   3.266   3.240 -0.0498  0.7555  0.4496
40055SOL    HW226771   5.268   3.141   3.227  0.2511  0.7126 -1.2865
40056SOL     OW26772  11.971   1.586   8.403  0.2872  0.1195 -0.1187
40056SOL    HW126773  12.017   1.662   8.441 -0.7912  1.0149 -0.5611
40056SOL    HW226774  11.946   1.533   8.479  0.5573  0.4878  0.2324
40057SOL     OW26775   7.091   8.346   5.490 -0.4002  0.1733  0.2962
40057SOL    HW126776   7.169   8.305   5.527 -0.5268 -0.8626 -0.5178
40057SOL    HW226777   7.113   8.439   5.482  1.5804 -0.3787 -1.8193
40058SOL     OW26778   2.406  11.413   0.211  0.0185 -0.1951 -0.0490
40058SOL    HW126779   2.317  11.388   0.185 -0.3646  2.3394 -1.5051
40058SOL    HW226780   2.442  11.455   0.133  2.3691 -0.7341  0.6746
40059SOL     OW26781  11.912   7.555   5.466  0.3558  0.6473 -0.2445
40059SOL    HW126782  11.960   7.585   5.389  1.6987  2.3022  1.1556
40059SOL    HW226783  11.865   7.633   5.497 -1.3865 -0.3546 -0.1973
40060SOL     OW26784   9.041  10.176   9.910  0.1589  0.0533  0.1073
40060SOL    HW126785   9.110  10.132   9.860  0.6077  0.8194  0.0416
40060SOL    HW226786   9.071  10.266   9.918 -0.9425  0.4546 -0.1148
40061SOL     OW26787   9.487   6.314   3.045  0.0621  0.0179  0.0047
40061SOL    HW126788   9.539   6.392   3.026 -0.6719  1.1056  2.0637
40061SOL    HW226789   9.534   6.242   3.004  1.0069  1.4771 -1.5892
40062SOL     OW26790   7.096   9.892   3.368 -0.3214  0.0188  0.3650
40062SOL    HW126791   7.137   9.832   3.305  0.5906  0.6572  0.3419
40062SOL    HW226792   7.109   9.979   3.331 -0.0463  0.3799  1.2819
40063SOL     OW26793   3.910   6.846  10.296  0.2119  0.3029 -0.2538
40063SOL    HW126794   3.991   6.800  10.318 -0.1583 -0.5419 -0.6114
40063SOL    HW226795   3.898   6.829  10.203 -0.6887 -0.0920 -0.0734
40064SOL     OW26796   2.884   2.697   6.527  0.4292  0.3878 -0.1445
40064SOL    HW126797   2.886   2.662   6.438  1.9915 -1.6506  0.6195
40064SOL    HW226798   2.962   2.661   6.570  0.3955  2.2948  1.7188
40065SOL     OW26799  11.510  10.095   6.826  0.3219 -0.0825  0.3318
40065SOL    HW126800  11.547  10.178   6.796 -2.2788  0.7246 -1.0310
40065SOL    HW226801  11.415  10.110   6.824 -0.2515 -3.1811 -0.2490
40066SOL     OW26802   6.517   9.288   2.296  0.5536 -0.8485 -0.1799
40066SOL    HW126803   6.542   9.247   2.213  0.0297 -0.4482 -0.5489
40066SOL    HW226804   6.421   9.292   2.293  0.6055  0.9988 -0.4786
40067SOL     OW26805   2.054   2.778   2.848  0.1893  0.0290  0.0937
40067SOL    HW126806   2.014   2.720   2.912 -0.9853  2.1390  1.3884
40067SOL    HW226807   2.146   2.751   2.846  0.4419  0.2564  3.2038
40068SOL     OW26808  10.157  10.947  10.973 -0.2156 -0.2789 -0.2421
40068SOL    HW126809  10.135  10.916  11.061 -0.7011  0.7996  0.0338
40068SOL    HW226810  10.096  10.900  10.915 -0.4951 -0.3189  0.0865
40069SOL     OW26811  11.545   4.256   7.146  0.1997  0.1317 -0.3850
40069SOL    HW126812  11.551   4.309   7.225 -0.2931  0.2143 -0.4040
40069SOL    HW226813  11.635   4.229   7.129  0.7095  2.1870 -1.2237
40070SOL     OW26814   1.848   0.912   0.560 -0.0875  0.1239  0.5809
40070SOL    HW126815   1.755   0.931   0.550  0.1852  1.8041  0.9042
40070SOL    HW226816   1.857   0.878   0.648 -0.2438  1.2838  1.0673
40071SOL     OW26817   4.867   0.263   7.334  0.5199 -0.6183 -0.0683
40071SOL    HW126818   4.773   0.267   7.354  0.5548 -0.9449  0.1776
40071SOL    HW226819   4.893   0.175   7.362  0.8393 -0.6333 -0.4070
40072SOL     OW26820   9.238   9.712   0.580  0.4564 -0.1355 -0.2475
40072SOL    HW126821   9.286   9.629   0.570 -0.5442 -0.8643  0.7263
40072SOL    HW226822   9.250   9.735   0.672 -0.4292  0.0523 -0.1726
40073SOL     OW26823   2.698   5.940   7.967 -0.0633  0.2366 -0.2247
40073SOL    HW126824   2.720   6.025   8.004  0.4451 -0.6490  1.6199
40073SOL    HW226825   2.605   5.929   7.985  0.0497  0.0727  0.2879
40074SOL     OW26826   3.008   3.564  11.594 -0.4426  0.3326 -0.2443
40074SOL    HW126827   2.940   3.508  11.556 -1.0088  0.8291  0.0177
40074SOL    HW226828   3.067   3.583  11.521  0.1413 -1.1602 -0.1812
40075SOL     OW26829   3.886   1.636   4.678 -0.6483 -0.2145  0.1023
40075SOL    HW126830   3.858   1.632   4.770 -1.3110  0.0582 -0.0793
40075SOL    HW226831   3.820   1.586   4.631 -0.3262 -0.3248 -0.2320
40076SOL     OW26832   4.018  12.611   8.392 -0.3913  0.4548  0.4603
40076SOL    HW126833   4.073  12.650   8.324 -0.5973  0.1885  0.1373
40076SOL    HW226834   3.933  12.654   8.382 -1.2783 -1.4978 -1.2863
40077SOL     OW26835  10.667   2.502  12.068 -0.0672 -0.0140  0.1361
40077SOL    HW126836  10.708   2.444  12.004 -0.2986 -0.2846  0.2289
40077SOL    HW226837  10.728   2.575  12.078 -0.4593  0.5110 -1.1027
40078SOL     OW26838   0.606   4.140   3.531  0.0604 -0.5171  0.0844
40078SOL    HW126839   0.540   4.146   3.462 -0.1702 -2.7994  0.0325
40078SOL    HW226840   0.569   4.190   3.604  0.5888  2.4866 -1.5339
40079SOL     OW26841   8.190   1.599   6.351 -0.1271 -0.5276 -0.1601
40079SOL    HW126842   8.103   1.634   6.370 -0.0983 -0.1462 -0.7184
40079SOL    HW226843   8.225   1.656   6.283  0.0136 -1.4951 -0.9311
40080SOL     OW26844  11.986   0.148   2.739 -0.5172  0.1705  0.2880
40080SOL    HW126845  11.969   0.096   2.818 -1.1747 -0.3077 -0.1584
40080SOL    HW226846  11.905   0.196   2.724  0.3221  1.9396  1.1123
40081SOL     OW26847   5.396  10.203   3.632 -0.2339 -0.6558 -0.6086
40081SOL    HW126848   5.355  10.275   3.679  2.8496  0.7438  0.1351
40081SOL    HW226849   5.359  10.207   3.544 -0.7036  1.3408 -0.3515
40082SOL     OW26850  11.783   1.102   0.051 -0.0260 -0.5243 -0.0991
40082SOL    HW126851  11.853   1.147   0.004 -0.2812 -0.0694 -0.0508
40082SOL    HW226852  11.817   1.090   0.139 -0.3405  0.4961  0.1730
40083SOL     OW26853   1.584   8.033   2.170  0.1522  0.0666 -1.1052
40083SOL    HW126854   1.627   7.966   2.117  1.3211 -0.6025  0.5710
40083SOL    HW226855   1.640   8.041   2.248  0.6365  3.7511 -1.6479
40084SOL     OW26856   7.443   3.312   7.923  0.4093 -0.2463  0.4521
40084SOL    HW126857   7.371   3.370   7.946  0.2112  0.0649 -0.8326
40084SOL    HW226858   7.522   3.362   7.942  0.2415  0.3660 -0.3812
40085SOL     OW26859   6.077  11.785   2.815  0.0154  0.2140 -0.2323
40085SOL    HW126860   6.080  11.695   2.848 -0.6504  1.0326  2.2934
40085SOL    HW226861   5.991  11.793   2.775 -0.4776  0.1117  0.7922
40086SOL     OW26862   8.916  12.608   3.203  0.3658  0.6853  0.3955
40086SOL    HW126863   8.972  12.677   3.167 -2.0180  1.8489 -1.2965
40086SOL    HW226864   8.860  12.653   3.266 -1.2484  0.3864 -0.7597
40087SOL     OW26865   2.390   7.958   3.414  0.2414 -0.0807 -0.5516
40087SOL    HW126866   2.482   7.941   3.435 -0.2129 -3.5894 -0.8782
40087SOL    HW226867   2.394   8.016   3.337  2.1013  0.8960  0.2118
40088SOL     OW26868   3.882   4.811   0.223  0.2660 -0.0322 -0.4414
40088SOL    HW126869   3.965   4.783   0.259  0.0793 -1.0103 -0.7373
40088SOL    HW226870   3.817   4.756   0.267 -0.1540  0.2609 -0.6887
40089SOL     OW26871   5.230   4.502   1.596  0.1418 -0.2272  0.0125
40089SOL    HW126872   5.193   4.579   1.639  0.2022 -1.2742  2.0590
40089SOL    HW226873   5.164   4.434   1.608  1.0814 -1.1047  0.2980
40090SOL     OW26874   3.369  11.316  10.921 -0.7065  0.0014 -0.2661
40090SOL    HW126875   3.424  11.308  10.999  1.0149 -0.4001 -1.4386
40090SOL    HW226876   3.310  11.241  10.924 -0.9673  0.2363  0.8489
40091SOL     OW26877  11.656  11.596   7.886  0.2862  0.0287  0.1406
40091SOL    HW126878  11.673  11.557   7.800 -0.4862 -0.5254  0.2297
40091SOL    HW226879  11.589  11.540   7.925 -0.6556  1.2790  0.3895
40092SOL     OW26880   9.566  11.994  11.540  0.0194 -0.1321  0.6183
40092SOL    HW126881   9.511  12.000  11.462  0.9861 -1.2433 -0.2046
40092SOL    HW226882   9.630  12.064  11.530 -0.7071  0.6243  1.1495
40093SOL     OW26883   0.251   0.201  11.410 -0.0509  0.1301 -0.0818
40093SOL    HW126884   0.177   0.191  11.469 -0.4617 -0.0073 -0.6207
40093SOL    HW226885   0.213   0.229  11.327  0.3861 -0.9916 -0.6806
40094SOL     OW26886   6.651   8.047   7.248 -0.1317  0.1538 -0.6872
40094SOL    HW126887   6.689   8.014   7.167  2.3582  2.4360 -0.5832
40094SOL    HW226888   6.562   8.071   7.225  0.7066  1.3524 -2.9909
40095SOL     OW26889  11.914   6.615   0.894 -0.2183  0.5263  0.6874
40095SOL    HW126890  11.953   6.702   0.880 -0.3417  0.3801 -0.6693
40095SOL    HW226891  11.850   6.629   0.964  1.6137  0.9551  2.3772
40096SOL     OW26892   7.427   8.878   0.448 -0.3087  0.1873 -0.5678
40096SOL    HW126893   7.421   8.872   0.353  1.4880  0.0617 -0.7090
40096SOL    HW226894   7.516   8.849   0.469 -0.3613  1.0547  1.0731
40097SOL     OW26895   2.565   6.916   1.257 -0.5962  0.2380 -0.1313
40097SOL    HW126896   2.548   6.976   1.329 -1.3894 -2.4681  2.1549
40097SOL    HW226897   2.596   6.836   1.299 -1.7462 -1.7425 -2.7049
40098SOL     OW26898   4.587  10.752   4.279  0.2855 -0.6714 -0.2861
40098SOL    HW126899   4.514  10.734   4.220  0.8900 -1.4831 -0.8112
40098SOL    HW226900   4.575  10.689   4.350  0.2204 -0.4902 -0.1349
40099SOL     OW26901  10.789   1.620   7.535 -0.1461  0.4403 -0.0123
40099SOL    HW126902  10.874   1.581   7.555  0.1679  1.9748  1.8869
40099SOL    HW226903  10.793   1.638   7.441  1.2592 -0.3526 -0.1297
40100SOL     OW26904   7.914   9.266   1.600 -0.2592  0.0813  0.0525
40100SOL    HW126905   7.888   9.316   1.678 -1.1300  0.3373 -0.3946
40100SOL    HW226906   7.990   9.314   1.565  0.0431  0.0516  0.6454
40101SOL     OW26907   2.157   9.811  10.539 -0.5314  0.2230  0.3502
40101SOL    HW126908   2.215   9.748  10.582 -1.1698 -0.7448 -0.1650
40101SOL    HW226909   2.216   9.879  10.505  0.1276  0.1311  1.2752
40102SOL     OW26910  11.480  10.828  11.667 -0.3382  0.1217 -0.3509
40102SOL    HW126911  11.504  10.738  11.648 -2.0318 -0.3503 -0.3601
40102SOL    HW226912  11.427  10.855  11.593  0.7415  1.3960 -0.7037
40103SOL     OW26913   6.405   6.420   3.135  0.3647 -0.2712  0.1879
40103SOL    HW126914   6.427   6.422   3.042  1.4599 -1.0354  0.4040
40103SOL    HW226915   6.403   6.512   3.162  2.5135 -0.0916 -0.0756
40104SOL     OW26916   6.679   7.088   3.101  0.3085  0.2045 -0.2303
40104SOL    HW126917   6.735   7.142   3.157 -1.2126  1.0281  0.5687
40104SOL    HW226918   6.590   7.104   3.134 -0.5319 -0.0674 -2.2559
40105SOL     OW26919  12.154   9.443   7.309  0.2486 -0.3714  0.1319
40105SOL    HW126920  12.192   9.425   7.223  1.1242  0.7700  0.2442
40105SOL    HW226921  12.230   9.457   7.366 -0.3315 -0.0326  0.8360
40106SOL     OW26922   9.820   0.702   4.515 -0.2823  0.0451 -0.0648
40106SOL    HW126923   9.764   0.625   4.522 -1.4159  0.6485 -1.7701
40106SOL    HW226924   9.905   0.667   4.487 -0.5399 -0.6684  0.0132
40107SOL     OW26925   3.117  11.846   2.340  0.4031 -0.3318  0.2684
40107SOL    HW126926   3.095  11.842   2.247  0.9846 -0.0488  0.1142
40107SOL    HW226927   3.037  11.877   2.382  0.3419  0.2012 -0.2215
40108SOL     OW26928   1.937   5.460   3.042 -0.3876  0.1003 -0.2934
40108SOL    HW126929   2.011   5.455   2.982 -0.2520 -1.4805 -0.0470
40108SOL    HW226930   1.974   5.496   3.123 -0.2164  0.6912 -0.6283
40109SOL     OW26931  12.010   9.333   1.283  0.1520 -0.3001  0.4803
40109SOL    HW126932  11.969   9.419   1.279 -0.2105 -0.5276 -1.1963
40109SOL    HW226933  12.061   9.335   1.364 -2.7351  0.1603  2.4336
40110SOL     OW26934   7.552   1.912  10.415  0.1029 -0.3943  0.6373
40110SOL    HW126935   7.597   1.832  10.443  0.2776 -0.5707 -0.1236
40110SOL    HW226936   7.505   1.887  10.335 -0.0060  0.2076  0.5069
40111SOL     OW26937  11.643   7.265   9.620 -0.1361 -0.2002 -0.1092
40111SOL    HW126938  11.624   7.231   9.707  0.5388 -1.0821 -0.2886
40111SOL    HW226939  11.631   7.360   9.628 -0.3274 -0.2943  0.8726
40112SOL     OW26940   3.186   4.181  11.070 -0.0052 -0.3878  0.2334
40112SOL    HW126941   3.147   4.263  11.041 -1.3908 -0.1650  2.4660
40112SOL    HW226942   3.175   4.121  10.996 -1.0904  0.7771 -0.5812
40113SOL     OW26943   0.540  11.533  11.184  0.2046  0.1947 -0.6204
40113SOL    HW126944   0.634  11.551  11.193  0.3960 -0.7694 -0.5807
40113SOL    HW226945   0.501  11.569  11.264  0.5665  0.3876 -0.5249
40114SOL     OW26946   9.085   7.882  12.472 -0.0537  0.5980 -0.0108
40114SOL    HW126947   9.070   7.790  12.491 -0.6744  0.8697  0.8455
40114SOL    HW226948   9.154   7.881  12.405 -0.7544 -0.5149 -0.7582
40115SOL     OW26949   2.270   6.568  12.495 -0.5977 -0.0344 -0.1791
40115SOL    HW126950   2.216   6.611  12.428 -1.1504  0.1158  0.3543
40115SOL    HW226951   2.242   6.477  12.493 -1.4564  0.1911  0.6381
40116SOL     OW26952   4.174   1.097  11.041 -0.1858  0.0895 -0.3482
40116SOL    HW126953   4.150   1.089  11.134 -1.3002  1.1201 -0.5145
40116SOL    HW226954   4.269   1.109  11.041 -0.0614 -0.7677  0.5942
40117SOL     OW26955   6.516  10.825   8.435  0.1622  0.1936  0.1758
40117SOL    HW126956   6.589  10.764   8.420  0.5484  0.7215 -0.1399
40117SOL    HW226957   6.556  10.900   8.478 -0.2083  0.4578  0.0662
40118SOL     OW26958   9.122   0.206   0.704  0.0935  0.9593  0.3170
40118SOL    HW126959   9.060   0.270   0.740 -0.0283  0.6588  0.6525
40118SOL    HW226960   9.161   0.250   0.629 -1.4024  0.7416 -0.6506
40119SOL     OW26961   5.351   7.337   7.563 -0.2130 -0.2570 -0.1442
40119SOL    HW126962   5.289   7.348   7.490 -0.6091 -0.3234  0.1769
40119SOL    HW226963   5.336   7.414   7.618  0.6324  0.1965 -0.5212
40120SOL     OW26964   2.238   3.621   5.306 -0.1229 -0.0704  0.0940
40120SOL    HW126965   2.155   3.589   5.342 -0.2323 -0.2052 -0.2680
40120SOL    HW226966   2.214   3.659   5.221  0.3639 -1.2238 -0.5795
40121SOL     OW26967   7.844   1.587   7.192  0.1783  0.3307  0.1747
40121SOL    HW126968   7.907   1.516   7.184 -0.4229 -0.4809  2.1560
40121SOL    HW226969   7.762   1.551   7.157 -0.3836 -0.3771  2.0831
40122SOL     OW26970  12.699  12.441   8.151 -0.4617 -0.0534 -0.0045
40122SOL    HW126971  12.613  12.481   8.166 -0.9208 -1.2209  0.5545
40122SOL    HW226972  12.681  12.348   8.138  0.7648 -0.4234  0.7421
40123SOL     OW26973  10.893  11.301   4.151  0.1150  0.2914  0.4727
40123SOL    HW126974  10.965  11.248   4.185  0.0976 -0.3937 -0.5426
40123SOL    HW226975  10.835  11.239   4.108 -1.0082  0.8574  1.0987
40124SOL     OW26976   9.526   0.992   2.221 -0.1915 -0.5982  0.6150
40124SOL    HW126977   9.551   1.022   2.308  0.9265 -0.5535  0.2943
40124SOL    HW226978   9.526   1.072   2.168  1.3245 -0.9134  0.0924
40125SOL     OW26979   6.281  11.577  11.919  0.3553 -0.1548  0.3496
40125SOL    HW126980   6.251  11.573  12.010 -1.9546  2.0219 -0.2003
40125SOL    HW226981   6.341  11.651  11.918  0.4439 -0.2308  0.1234
40126SOL     OW26982   9.698   9.988   5.205  0.1912  0.5894 -0.0691
40126SOL    HW126983   9.629   9.939   5.160 -1.9519  2.4620  1.0148
40126SOL    HW226984   9.780   9.951   5.170 -1.2880  0.2968 -3.6525
40127SOL     OW26985   0.602   8.287  12.510 -0.1557 -0.6385 -0.1826
40127SOL    HW126986   0.685   8.265  12.468  1.7171  0.7478  2.4636
40127SOL    HW226987   0.586   8.216  12.572 -0.0656 -0.1220  0.4463
40128SOL     OW26988  10.082   0.367  11.982  1.2027 -0.1245 -0.2189
40128SOL    HW126989  10.095   0.275  12.005 -1.7142 -0.5279  0.1970
40128SOL    HW226990  10.109   0.416  12.060 -0.8821 -0.9563  1.1182
40129SOL     OW26991   3.127   0.014  10.440  0.4344  0.2612  0.6113
40129SOL    HW126992   3.093  -0.018  10.356  0.7266  0.0206  0.5810
40129SOL    HW226993   3.187  -0.055  10.469  2.1043  1.3429 -0.1033
40130SOL     OW26994   8.401   7.566   6.949 -0.0356 -0.3257 -0.3755
40130SOL    HW126995   8.357   7.501   6.895  0.4191  0.1103 -1.2872
40130SOL    HW226996   8.330   7.610   6.996 -0.5659  0.1351 -1.5666
40131SOL     OW26997   2.824   5.986  10.105  0.0931  0.4770 -0.1639
40131SOL    HW126998   2.763   5.917  10.131  1.4478  0.0811  2.1517
40131SOL    HW226999   2.767   6.061  10.084 -1.2529  0.4674  2.9345
40132SOL     OW27000  12.663  10.482  10.638 -0.0745 -0.0844 -0.3738
40132SOL    HW127001  12.713  10.562  10.653  0.2952 -0.3956  0.1111
40132SOL    HW227002  12.620  10.495  10.554 -2.3604  1.8362  0.9745
40133SOL     OW27003   0.437   4.564  10.760 -0.1832  0.4275  0.3665
40133SOL    HW127004   0.485   4.557  10.678  0.4973 -0.4649  0.8251
40133SOL    HW227005   0.459   4.650  10.794 -0.2831  0.7085 -0.2686
40134SOL     OW27006  10.355  10.012  11.860  0.0571  1.0239 -0.6022
40134SOL    HW127007  10.377   9.997  11.952  0.2662  1.2652 -0.6145
40134SOL    HW227008  10.287   9.947  11.841 -0.1114  1.0896 -0.2298
40135SOL     OW27009  11.944   8.631   2.227 -0.0059  0.3907  0.6974
40135SOL    HW127010  11.992   8.563   2.179  0.1777  0.9803  0.0328
40135SOL    HW227011  12.005   8.659   2.296  0.8730  1.5451 -0.4959
40136SOL     OW27012   8.656   1.873   2.960  0.0458  0.2896 -0.2702
40136SOL    HW127013   8.661   1.934   2.887  1.3596 -0.0891 -0.5252
40136SOL    HW227014   8.628   1.790   2.921  1.8662 -0.2241 -0.5939
40137SOL     OW27015   9.398   9.445   2.584 -0.2315  0.5050 -0.5390
40137SOL    HW127016   9.421   9.463   2.676 -1.0610 -0.0390 -0.2093
40137SOL    HW227017   9.482   9.427   2.542  0.0724 -0.4214  0.3938
40138SOL     OW27018   1.054  10.603  10.800  0.1621  0.1403  0.0701
40138SOL    HW127019   0.961  10.598  10.778  0.0892  0.1107  0.3856
40138SOL    HW227020   1.063  10.552  10.880  0.2725  0.9830  0.6074
40139SOL     OW27021   2.813   5.608  11.119  0.4180  0.1386  0.4388
40139SOL    HW127022   2.884   5.585  11.179  0.0141 -0.3485  0.7397
40139SOL    HW227023   2.785   5.524  11.082  0.1408  0.3521  0.1557
40140SOL     OW27024   0.755   7.040   0.537  0.2678 -0.0913  0.3676
40140SOL    HW127025   0.689   6.971   0.542  0.8897 -0.6514  1.0026
40140SOL    HW227026   0.717   7.113   0.586  0.2832 -0.5502  1.0755
40141SOL     OW27027  10.184   8.806   3.855  0.0430  0.0142 -0.0584
40141SOL    HW127028  10.210   8.898   3.856  1.7200 -0.4167  1.1966
40141SOL    HW227029  10.119   8.798   3.925 -0.2688  0.2768 -0.3151
40142SOL     OW27030   8.102  11.731   0.953  0.1452  0.1346  0.3537
40142SOL    HW127031   8.085  11.666   0.885 -1.0494 -0.5598  1.2619
40142SOL    HW227032   8.197  11.741   0.954  0.2604 -0.7285 -0.6090
40143SOL     OW27033   3.142   3.489  11.817 -0.0157 -0.7011  0.3217
40143SOL    HW127034   3.074   3.532  11.765  1.6806  1.0360 -0.6057
40143SOL    HW227035   3.171   3.415  11.763 -1.3622 -1.6761  0.8869
40144SOL     OW27036   1.351   3.670   3.593  0.5404  0.0360 -0.1218
40144SOL    HW127037   1.364   3.576   3.590 -0.7373 -0.2243  1.4484
40144SOL    HW227038   1.257   3.682   3.576  0.4867  0.9382  0.7436
40145SOL     OW27039  10.964   3.909   7.220  0.6854 -0.2398 -0.0514
40145SOL    HW127040  10.882   3.942   7.258  1.3225 -0.3986  1.5376
40145SOL    HW227041  10.936   3.854   7.147 -0.5433  0.9850 -0.5469
40146SOL     OW27042   4.858  10.765   3.720 -0.1998  0.3742 -0.2759
40146SOL    HW127043   4.912  10.839   3.692 -0.8932  1.1919  0.4404
40146SOL    HW227044   4.909  10.723   3.789 -1.0413  2.0721  1.5046
40147SOL     OW27045   6.581   7.376   9.604 -0.2420 -0.3067 -0.0600
40147SOL    HW127046   6.540   7.307   9.656 -0.8072  0.5735  0.7011
40147SOL    HW227047   6.539   7.370   9.519 -1.2050 -0.1128  0.3827
40148SOL     OW27048   8.396   2.974   9.397 -0.0777  0.0245  0.0806
40148SOL    HW127049   8.334   2.955   9.467 -0.4076 -2.2449 -0.7501
40148SOL    HW227050   8.408   2.891   9.352  1.2896  1.0774 -1.6401
40149SOL     OW27051   8.400  12.695   0.126 -0.4769  0.3349 -0.0589
40149SOL    HW127052   8.315  12.675   0.166  0.5205 -0.3366  1.7944
40149SOL    HW227053   8.399  12.791   0.117 -1.7832  0.2775 -0.9894
40150SOL     OW27054   1.077   6.989   1.315 -0.6151 -0.2020 -0.2291
40150SOL    HW127055   1.049   7.018   1.228  0.6134  0.7705 -0.3264
40150SOL    HW227056   1.127   6.909   1.299  1.5193  1.1483 -0.7197
40151SOL     OW27057   5.141  12.375   1.116 -0.4192  0.0760  0.3589
40151SOL    HW127058   5.123  12.443   1.181 -0.8832 -0.1574  0.4803
40151SOL    HW227059   5.234  12.385   1.096 -0.4895  0.7670  0.3499
40152SOL     OW27060   8.098   4.986   3.934  0.0651 -0.1357  0.6073
40152SOL    HW127061   8.016   4.959   3.894  0.0274  0.8928 -0.0643
40152SOL    HW227062   8.162   4.922   3.904  0.0085  0.5297 -1.0366
40153SOL     OW27063   7.100   7.204   4.013 -0.1403  0.5971 -0.3040
40153SOL    HW127064   7.009   7.173   4.010  0.1249 -0.3756  1.1167
40153SOL    HW227065   7.107   7.262   3.937 -1.5220 -0.4774 -1.3100
40154SOL     OW27066  10.958   8.884   1.281  0.3970 -0.2516 -0.2301
40154SOL    HW127067  11.045   8.923   1.295  0.4648 -0.5573  0.2032
40154SOL    HW227068  10.966   8.795   1.314 -0.4059  0.0692  0.8766
40155SOL     OW27069   8.887   9.224   5.016 -0.1644  0.4346  0.0939
40155SOL    HW127070   8.857   9.165   4.946 -0.8594  0.9248 -0.0313
40155SOL    HW227071   8.935   9.167   5.076 -1.5332 -0.4309  0.4129
40156SOL     OW27072  12.343   4.824   7.965  0.2231 -0.1946 -0.2995
40156SOL    HW127073  12.310   4.905   8.001 -0.2521 -0.0638 -1.0140
40156SOL    HW227074  12.266   4.768   7.954  0.6771 -1.1969  1.2773
40157SOL     OW27075   3.777  12.608   6.517 -0.2576  0.6565  0.6511
40157SOL    HW127076   3.700  12.657   6.489 -0.6626 -0.7037 -0.7590
40157SOL    HW227077   3.834  12.607   6.440  0.3459  0.1064  1.0892
40158SOL     OW27078   1.721   9.945   5.354 -0.3457  0.0795 -0.1454
40158SOL    HW127079   1.713   9.852   5.376  0.8104  0.1956  0.8883
40158SOL    HW227080   1.635   9.982   5.376 -0.7875 -0.7225 -0.4834
40159SOL     OW27081  11.268   4.692   2.066  0.2758  0.1659 -0.4471
40159SOL    HW127082  11.294   4.759   2.003 -0.5290  1.0636  0.1507
40159SOL    HW227083  11.295   4.728   2.151 -0.3407 -0.1824 -0.1010
40160SOL     OW27084   8.013   8.756   8.753 -0.0755  0.3417  0.2332
40160SOL    HW127085   7.918   8.749   8.740 -0.0424 -1.8771  0.7667
40160SOL    HW227086   8.029   8.850   8.764 -2.0869  0.8528 -0.6498
40161SOL     OW27087   5.126   2.777  12.612  0.7598 -0.1371  0.3598
40161SOL    HW127088   5.122   2.873  12.605  2.1065 -0.0112  1.1222
40161SOL    HW227089   5.040   2.748  12.581  0.0065  1.3653  0.9215
40162SOL     OW27090  12.113   3.122   6.291  0.6107  0.0292 -0.0917
40162SOL    HW127091  12.195   3.157   6.254  1.8563 -1.9636  0.6476
40162SOL    HW227092  12.064   3.090   6.215  1.1035  0.0647 -0.4286
40163SOL     OW27093   4.419   7.579   8.559 -0.4248  0.1593  0.1323
40163SOL    HW127094   4.442   7.504   8.503  1.6279  1.0772 -0.3799
40163SOL    HW227095   4.497   7.635   8.556 -1.3681  1.6423  1.6291
40164SOL     OW27096   6.786  10.651   5.828  0.7714 -0.0645 -0.2490
40164SOL    HW127097   6.706  10.689   5.865  1.5395  2.9917 -1.4032
40164SOL    HW227098   6.832  10.614   5.903 -0.3181  0.8896  0.9358
40165SOL     OW27099   1.594  11.713   0.893  0.2165 -0.2505  1.0622
40165SOL    HW127100   1.531  11.743   0.827  2.3891 -0.5517 -1.3100
40165SOL    HW227101   1.649  11.789   0.910  1.7943 -1.0414 -0.1746
40166SOL     OW27102   9.629   3.084   9.069 -0.2955  0.1083  0.1518
40166SOL    HW127103   9.648   2.992   9.049 -1.1691  0.0668 -0.5137
40166SOL    HW227104   9.613   3.085   9.163  0.1458 -0.3390  0.2402
40167SOL     OW27105   9.161   8.765   4.411  0.2283  0.4467 -0.4230
40167SOL    HW127106   9.168   8.712   4.490 -2.5627  0.9334  0.2564
40167SOL    HW227107   9.191   8.852   4.437  0.6115  0.2710 -0.2810
40168SOL     OW27108   2.160   0.750   7.729  0.1860 -0.3636 -0.5375
40168SOL    HW127109   2.069   0.768   7.755  0.0999 -1.6339  0.1305
40168SOL    HW227110   2.183   0.671   7.777  1.3071 -0.6603 -1.5254
40169SOL     OW27111  12.186  12.057   7.477  0.0415 -0.8539 -0.0350
40169SOL    HW127112  12.233  12.010   7.546  2.3404  1.4466  0.1015
40169SOL    HW227113  12.193  12.000   7.400  1.1661 -1.5602  0.5711
40170SOL     OW27114   5.172   7.608   2.172 -0.5792  0.0864  0.1667
40170SOL    HW127115   5.158   7.532   2.229 -1.5113 -0.5496 -0.8751
40170SOL    HW227116   5.095   7.610   2.115 -0.5457  1.8021  0.1395
40171SOL     OW27117  10.960   9.630  11.137  0.2196  0.2204  0.4214
40171SOL    HW127118  10.974   9.717  11.100  0.3786 -0.1309 -0.3551
40171SOL    HW227119  10.900   9.645  11.210  1.5190  1.2076  1.3351
40172SOL     OW27120   8.036   6.488   2.176 -0.0559 -0.1751 -0.1259
40172SOL    HW127121   8.072   6.406   2.209  0.9210  0.6127  0.8477
40172SOL    HW227122   8.109   6.549   2.180 -0.6481  0.6428 -1.2488
40173SOL     OW27123   3.985  12.284  11.506 -0.2236  0.1194  0.0010
40173SOL    HW127124   4.058  12.315  11.452 -0.2121  0.0953  0.0024
40173SOL    HW227125   4.026  12.246  11.583 -0.2894  1.9504  0.9955
40174SOL     OW27126   2.623  10.122   4.073 -0.3385  0.4573  0.3786
40174SOL    HW127127   2.556  10.186   4.049 -0.4463 -0.2300 -1.2976
40174SOL    HW227128   2.700  10.148   4.023 -0.5371 -0.9795 -0.7495
40175SOL     OW27129   2.948   7.660   0.241 -0.6493 -0.7357  0.2842
40175SOL    HW127130   2.991   7.654   0.155 -1.9443 -0.0388 -0.4521
40175SOL    HW227131   3.019   7.675   0.303  0.1515  1.0436 -0.9681
40176SOL     OW27132  12.347   2.692   3.836  0.3340  0.1338 -0.2321
40176SOL    HW127133  12.314   2.778   3.862 -0.9197 -0.2549 -0.4504
40176SOL    HW227134  12.386   2.707   3.750  1.9953  0.8724  0.6259
40177SOL     OW27135   5.011   6.758   6.848 -0.0977 -0.1260 -0.4398
40177SOL    HW127136   4.983   6.713   6.928 -0.5823 -0.0302 -0.5548
40177SOL    HW227137   4.932   6.799   6.814  0.7392  2.8100  0.9071
40178SOL     OW27138   6.722   5.435   3.704 -0.2212 -0.0223  0.5241
40178SOL    HW127139   6.687   5.524   3.699 -1.6119 -0.5713  0.2775
40178SOL    HW227140   6.817   5.448   3.712 -0.5418  1.5482  3.0195
40179SOL     OW27141  12.081   4.453   7.765 -0.4944 -0.2035 -0.9017
40179SOL    HW127142  11.988   4.452   7.743 -0.6887  0.0328 -0.1240
40179SOL    HW227143  12.084   4.485   7.855  0.5076  2.5339 -1.7725
40180SOL     OW27144   9.683   8.052   9.890 -0.8383 -0.4161  0.4603
40180SOL    HW127145   9.678   7.957   9.881 -0.5434 -0.3428 -0.4704
40180SOL    HW227146   9.622   8.086   9.824  0.3482  0.0828 -0.4041
40181SOL     OW27147   8.947   1.365   1.588  0.6014 -0.5161  0.6168
40181SOL    HW127148   8.920   1.327   1.504  1.4847 -0.7081  0.4185
40181SOL    HW227149   8.899   1.448   1.592  2.1046  0.5034 -1.0616
40182SOL     OW27150   2.637   1.717   4.722  0.0369  0.0248  0.4385
40182SOL    HW127151   2.647   1.662   4.644 -0.7647 -0.0471  0.3746
40182SOL    HW227152   2.726   1.728   4.755  0.6035  1.3361 -1.3614
40183SOL     OW27153   0.736  11.416   8.566  0.5771  0.1718 -0.4182
40183SOL    HW127154   0.765  11.489   8.510 -0.3237 -0.4693 -1.7774
40183SOL    HW227155   0.642  11.410   8.550  0.5833 -1.0737 -0.0734
40184SOL     OW27156   4.846   0.022   9.874 -0.7608 -0.5541 -0.6173
40184SOL    HW127157   4.802  -0.057   9.906  2.5514 -2.6006 -0.6250
40184SOL    HW227158   4.875  -0.001   9.786  0.0615  0.7660 -0.7212
40185SOL     OW27159   2.085   2.786   7.004  0.3454 -0.3158 -0.1523
40185SOL    HW127160   2.179   2.770   7.010  0.1850 -0.9891  0.7288
40185SOL    HW227161   2.045   2.719   7.059 -0.5351  1.1145  1.0366
40186SOL     OW27162   2.105   1.406   6.984  0.0912 -0.3003  0.5494
40186SOL    HW127163   2.125   1.349   6.910  0.1794  0.5891 -0.1286
40186SOL    HW227164   2.036   1.360   7.032  0.9881 -1.5324  0.6946
40187SOL     OW27165   3.385   8.301  12.495  0.0870 -0.3594  0.0910
40187SOL    HW127166   3.445   8.310  12.570  0.1006 -0.2931  0.0722
40187SOL    HW227167   3.359   8.391  12.475  1.2662 -0.2315 -0.9521
40188SOL     OW27168   3.542   8.261  12.733  0.1231 -0.6492  0.0853
40188SOL    HW127169   3.582   8.175  12.748  0.3249 -0.3615  1.4044
40188SOL    HW227170   3.518   8.291  12.821  0.2001  0.7029 -0.3295
40189SOL     OW27171  12.131   6.645  10.239 -0.8600 -0.6075 -0.0593
40189SOL    HW127172  12.063   6.604  10.291 -0.6568 -2.0633 -0.8899
40189SOL    HW227173  12.212   6.600  10.265 -0.2808  0.7108  0.5098
40190SOL     OW27174  11.777  11.817  12.723 -0.3306  0.2905  0.5029
40190SOL    HW127175  11.795  11.762  12.647 -0.6872 -0.6429  1.0809
40190SOL    HW227176  11.853  11.805  12.781 -0.0041  1.0882  0.2596
40191SOL     OW27177   0.045   0.722  11.938  0.0023 -0.0278 -0.3065
40191SOL    HW127178   0.069   0.668  12.013 -2.1373  1.0069  1.2325
40191SOL    HW227179  -0.050   0.734  11.946 -0.0044  1.7189 -2.0925
40192SOL     OW27180   3.947  12.030   0.946 -0.4782 -0.0492 -0.7634
40192SOL    HW127181   3.978  12.116   0.919  0.1257 -0.1758 -0.4972
40192SOL    HW227182   3.917  12.042   1.036 -1.0332  0.0300 -0.9564
40193SOL     OW27183   7.781  11.580   7.437 -0.0417 -0.4703 -0.2306
40193SOL    HW127184   7.710  11.623   7.389 -0.1760 -1.6194 -1.1013
40193SOL    HW227185   7.744  11.562   7.523 -0.0174  1.0312  0.1204
40194SOL     OW27186   7.967   7.386   7.396  0.1203  0.1038 -0.0025
40194SOL    HW127187   7.876   7.365   7.418 -0.4339  1.6674 -0.6730
40194SOL    HW227188   7.967   7.394   7.301  1.5454 -2.3228 -0.2872
40195SOL     OW27189   1.073   8.223   4.999  0.6412  0.1773 -0.3229
40195SOL    HW127190   1.106   8.296   5.051  3.0237  0.2350 -1.7891
40195SOL    HW227191   1.015   8.175   5.058  2.1886  0.9778  1.9541
40196SOL     OW27192   6.975   5.968   5.130  0.2709 -0.5056 -0.9330
40196SOL    HW127193   6.901   6.024   5.155  1.0574  0.3101 -0.3716
40196SOL    HW227194   7.008   6.008   5.049  1.4103  0.4461 -0.0410
40197SOL     OW27195   4.031   4.874   4.915  0.6593 -0.1787 -0.3068
40197SOL    HW127196   3.961   4.812   4.895  0.6259  0.1211 -1.1446
40197SOL    HW227197   4.064   4.846   5.001 -0.6512 -0.1676  0.2280
40198SOL     OW27198   7.430   2.087   5.607 -0.3023  0.1167  0.1720
40198SOL    HW127199   7.481   2.168   5.612 -1.3665  0.8369 -0.2581
40198SOL    HW227200   7.349   2.112   5.563 -0.8418 -1.0989  0.4203
40199SOL     OW27201   7.563   0.828   8.848 -0.6184 -0.0919  0.3305
40199SOL    HW127202   7.613   0.758   8.891  0.4956 -0.1022 -0.9168
40199SOL    HW227203   7.586   0.907   8.897 -0.0582 -0.2448  0.3251
40200SOL     OW27204  11.337   8.602   7.797  0.2134  0.4295 -0.1591
40200SOL    HW127205  11.275   8.579   7.866  0.9376  2.4429  1.2657
40200SOL    HW227206  11.326   8.535   7.730 -0.7490 -1.4321  1.7781
40201SOL     OW27207   9.911   9.757   9.517 -0.0358  0.3937 -0.6786
40201SOL    HW127208   9.994   9.801   9.532 -0.3173  1.7005 -2.6115
40201SOL    HW227209   9.935   9.670   9.484  0.5545  0.3696 -0.1866
40202SOL     OW27210   7.476  10.094   0.916  0.2035 -0.4662  0.3135
40202SOL    HW127211   7.429  10.094   0.999 -0.9537  0.1671 -0.3232
40202SOL    HW227212   7.439  10.020   0.867  1.3993 -1.2994  0.6208
40203SOL     OW27213   9.056   5.579   3.244 -0.2787  0.6191 -0.2201
40203SOL    HW127214   9.108   5.658   3.261  1.8305 -0.8014  0.3235
40203SOL    HW227215   9.006   5.566   3.325  0.4699  0.6154  0.2537
40204SOL     OW27216   9.522  11.092   1.131  0.8080 -0.2845  0.0377
40204SOL    HW127217   9.541  11.038   1.208 -2.6808  0.0909  1.3989
40204SOL    HW227218   9.495  11.176   1.168 -2.2321 -0.4902 -1.3467
40205SOL     OW27219  12.501   0.317   8.008 -0.1336  0.0349 -0.3602
40205SOL    HW127220  12.525   0.323   7.915  1.2361 -2.3963 -0.2612
40205SOL    HW227221  12.424   0.260   8.009  0.2729 -0.5172  0.0232
40206SOL     OW27222   2.233   1.591  11.660  0.3166 -0.0678  0.2715
40206SOL    HW127223   2.276   1.602  11.745 -2.7925  3.2584  1.6572
40206SOL    HW227224   2.197   1.502  11.663  0.6969 -0.1927  2.2423
40207SOL     OW27225   2.137   3.927   0.522 -0.4408  0.1050 -0.0983
40207SOL    HW127226   2.186   3.937   0.604  0.1181 -0.7494 -0.3159
40207SOL    HW227227   2.046   3.922   0.549 -0.2572 -0.2168  0.4780
40208SOL     OW27228   9.615   8.729   5.895 -0.2019 -0.0706  0.1683
40208SOL    HW127229   9.580   8.696   5.977  0.3263  0.1798  0.4985
40208SOL    HW227230   9.708   8.706   5.897  0.1344  1.2181  0.3056
40209SOL     OW27231   0.413   0.796   8.704 -0.4425  0.4590 -0.8814
40209SOL    HW127232   0.392   0.781   8.612  0.1998  0.3029 -1.0075
40209SOL    HW227233   0.451   0.714   8.733  1.7014  1.2981 -1.1649
40210SOL     OW27234   6.091   6.733  12.556  0.0040 -0.5926 -1.0721
40210SOL    HW127235   6.103   6.811  12.502  0.1424 -0.8017 -1.3440
40210SOL    HW227236   6.075   6.767  12.644 -0.6838 -0.2403 -1.3296
40211SOL     OW27237   8.298   1.313   8.899  0.1367 -0.1388 -0.1340
40211SOL    HW127238   8.233   1.374   8.863  0.9553  1.3524  0.8298
40211SOL    HW227239   8.264   1.290   8.985  0.6231  0.2455  0.1650
40212SOL     OW27240   6.856   5.110   2.531  0.0343  0.2800 -0.4353
40212SOL    HW127241   6.898   5.058   2.599 -0.0680  1.3535  0.4747
40212SOL    HW227242   6.866   5.200   2.560 -1.7905  0.6511 -0.8168
40213SOL     OW27243   8.016   0.776   3.755 -0.1770 -0.2228  0.1748
40213SOL    HW127244   7.992   0.750   3.844  0.8450 -0.5924  0.3562
40213SOL    HW227245   8.033   0.694   3.709  1.5594  0.0215  0.3074
40214SOL     OW27246  10.153  10.002   6.396 -0.1965 -0.2075 -0.5919
40214SOL    HW127247  10.173   9.933   6.459 -1.8982  0.0038  0.2431
40214SOL    HW227248  10.176  10.084   6.441 -0.7885 -0.0950 -0.4782
40215SOL     OW27249   5.096   5.826  10.118  0.5621  0.1916  0.2632
40215SOL    HW127250   5.073   5.817  10.026  2.2156  2.6196 -0.4636
40215SOL    HW227251   5.021   5.870  10.158 -0.2820 -1.1285  0.1938
40216SOL     OW27252   4.885   3.988   0.906 -0.4064 -0.1012  0.4278
40216SOL    HW127253   4.793   4.010   0.921  0.0007  0.9953  1.5904
40216SOL    HW227254   4.914   3.949   0.989  0.4121  0.4554  0.4163
40217SOL     OW27255   7.075   5.426   2.504  0.0151  0.0502  0.3324
40217SOL    HW127256   7.013   5.390   2.568  0.9617 -0.4509  1.0024
40217SOL    HW227257   7.046   5.516   2.490 -0.6787 -0.0821  0.8613
40218SOL     OW27258   4.384   0.916  10.387 -0.3354 -0.0633 -0.4161
40218SOL    HW127259   4.392   0.846  10.322  1.3030  0.4838 -0.8437
40218SOL    HW227260   4.400   0.996  10.339 -0.2022  0.4527  0.4604
40219SOL     OW27261   0.082   9.382  10.203 -0.3798 -0.4877 -0.0230
40219SOL    HW127262   0.071   9.469  10.242  0.3771 -0.3586 -0.0953
40219SOL    HW227263   0.074   9.321  10.277 -0.7594 -0.3570  0.0508
40220SOL     OW27264   8.299   8.104   0.607  0.0641  0.1120  0.0787
40220SOL    HW127265   8.344   8.100   0.692 -0.6026  3.4816  0.7278
40220SOL    HW227266   8.207   8.089   0.629 -0.0066  0.1888 -0.1678
40221SOL     OW27267  10.642   8.417   1.299 -0.7405 -0.0961  0.2061
40221SOL    HW127268  10.562   8.384   1.338 -0.2172 -1.6869  0.0071
40221SOL    HW227269  10.648   8.373   1.214  1.1739 -1.3856  0.9233
40222SOL     OW27270   3.623   6.708   5.448  0.0902 -0.3737  0.1333
40222SOL    HW127271   3.699   6.663   5.412 -0.4950 -0.7820 -0.6226
40222SOL    HW227272   3.640   6.801   5.432 -0.0501 -0.5282 -1.0270
40223SOL     OW27273   3.748  11.826   1.205  0.0802  0.4485 -0.2218
40223SOL    HW127274   3.780  11.915   1.221  2.4258 -0.1272 -1.3001
40223SOL    HW227275   3.786  11.773   1.275  0.4152 -0.0314 -0.7546
40224SOL     OW27276   1.809   6.500   6.725  0.3206 -0.3955 -0.3781
40224SOL    HW127277   1.847   6.450   6.652  0.0205 -0.1212 -0.7244
40224SOL    HW227278   1.881   6.555   6.755  0.0248  0.6603 -1.5121
40225SOL     OW27279   4.203  12.646   6.078 -0.1511 -0.1144  0.2182
40225SOL    HW127280   4.154  12.585   6.133 -1.0436  0.1412 -0.2701
40225SOL    HW227281   4.201  12.729   6.127 -1.1060  0.1613 -0.2718
40226SOL     OW27282  10.529   1.794   8.359  0.0829  0.5937 -0.4522
40226SOL    HW127283  10.529   1.866   8.295 -1.0621  0.6274 -0.4311
40226SOL    HW227284  10.498   1.718   8.309  3.2527 -0.4486 -1.0341
40227SOL     OW27285   3.036   3.299   5.869 -0.3738 -0.0299 -0.0490
40227SOL    HW127286   3.047   3.394   5.880 -0.8283  0.1173 -0.7588
40227SOL    HW227287   3.011   3.289   5.777 -0.2871 -0.8465  0.0128
40228SOL     OW27288   4.881   7.618  10.959 -0.2657  0.1051  0.0800
40228SOL    HW127289   4.889   7.695  10.903 -1.2396  0.3717  0.2782
40228SOL    HW227290   4.841   7.551  10.903 -0.3018  0.0490  0.1720
40229SOL     OW27291  12.564   3.247   5.348  0.5233 -0.1799 -0.6166
40229SOL    HW127292  12.636   3.271   5.289  2.3929  0.4818  1.7537
40229SOL    HW227293  12.608   3.203   5.422 -1.8868 -2.7367 -0.5530
40230SOL     OW27294   9.936   1.900  11.400  0.0397  0.2115 -0.1815
40230SOL    HW127295   9.954   1.809  11.373 -2.5051 -0.3040 -0.4145
40230SOL    HW227296  10.019   1.945  11.388  0.9769 -1.7310 -1.6272
40231SOL     OW27297  11.531  11.134  10.433 -0.5014  0.0156  0.0396
40231SOL    HW127298  11.610  11.164  10.387 -0.9541  0.8744 -0.2023
40231SOL    HW227299  11.530  11.186  10.513 -0.9099  0.1257 -0.0367
40232SOL     OW27300   8.805   7.223  12.294 -0.3885  0.4789 -0.3021
40232SOL    HW127301   8.891   7.223  12.252 -0.0565  0.0866  0.3615
40232SOL    HW227302   8.824   7.216  12.388 -1.0963  1.7858 -0.0342
40233SOL     OW27303   3.258  12.609  11.839 -0.4561  0.6438 -0.3468
40233SOL    HW127304   3.246  12.687  11.893 -0.4936  0.8319 -0.6261
40233SOL    HW227305   3.170  12.587  11.808 -0.6460 -0.2665  0.7637
40234SOL     OW27306   3.725   0.570   3.305  0.3136 -0.0314 -0.4683
40234SOL    HW127307   3.716   0.475   3.310 -0.6507  0.0686 -0.1822
40234SOL    HW227308   3.811   0.588   3.344 -0.0545 -0.6745  0.6727
40235SOL     OW27309   0.801   0.975   1.136  0.0147  0.3325  0.2265
40235SOL    HW127310   0.756   0.995   1.218  0.2871 -0.9817  0.7070
40235SOL    HW227311   0.735   0.931   1.082 -0.3261  1.6641 -0.4990
40236SOL     OW27312  10.708   3.948   3.350 -0.3557  0.6018 -0.4112
40236SOL    HW127313  10.645   3.913   3.413  0.3811 -1.9072 -0.9592
40236SOL    HW227314  10.779   3.983   3.404 -0.5403  0.0656  0.1966
40237SOL     OW27315   4.776   5.182   3.727  0.0377 -0.6901  0.4540
40237SOL    HW127316   4.813   5.259   3.682  1.2906 -1.0720  0.7805
40237SOL    HW227317   4.850   5.123   3.736 -0.7904 -1.7014  0.7370
40238SOL     OW27318  10.819  11.870  10.592  0.1560 -0.4058 -0.0874
40238SOL    HW127319  10.749  11.894  10.653  2.3350 -0.1744  2.4649
40238SOL    HW227320  10.778  11.806  10.533 -2.4552  0.4895  0.6104
40239SOL     OW27321   4.253   1.855  10.545 -0.1100  0.5154  0.1695
40239SOL    HW127322   4.163   1.873  10.518  0.4343  2.3107 -0.5829
40239SOL    HW227323   4.263   1.898  10.630 -0.4710 -1.2711  1.1678
40240SOL     OW27324   0.283   5.627   5.325 -0.2053  0.3774  0.5707
40240SOL    HW127325   0.204   5.590   5.365 -1.4540  1.6682 -0.6036
40240SOL    HW227326   0.354   5.601   5.385 -1.0807 -2.9784  0.3887
40241SOL     OW27327  12.281   3.461  10.115  0.1130 -0.5410  0.0955
40241SOL    HW127328  12.335   3.472  10.036 -1.1084 -0.0516 -0.7077
40241SOL    HW227329  12.307   3.533  10.172 -0.2909  0.2323 -0.6617
40242SOL     OW27330   6.275   4.436   9.480 -0.1877 -0.7330 -0.4486
40242SOL    HW127331   6.340   4.501   9.505  0.6281 -1.7011  0.0391
40242SOL    HW227332   6.217   4.430   9.556 -0.5464 -0.2297 -0.6840
40243SOL     OW27333   5.138   6.594   4.074 -0.5585 -0.0893 -0.3168
40243SOL    HW127334   5.077   6.551   4.134 -0.3843 -0.0315 -0.0918
40243SOL    HW227335   5.200   6.524   4.050  1.2107  0.5254  1.9860
40244SOL     OW27336   6.614   2.515   9.785 -0.3516  0.1187  0.7225
40244SOL    HW127337   6.623   2.608   9.808  0.5788  0.4332 -0.7185
40244SOL    HW227338   6.704   2.485   9.773 -0.6667 -0.8738  0.8142
40245SOL     OW27339  12.345   1.003   2.210 -0.2760  0.2025 -0.0408
40245SOL    HW127340  12.438   0.993   2.232 -0.6618  1.0150  2.2094
40245SOL    HW227341  12.320   0.920   2.171  1.5127  0.1642 -1.2081
40246SOL     OW27342   6.724  12.359   2.608 -0.0696  0.2024  0.6008
40246SOL    HW127343   6.728  12.267   2.580 -1.3991  0.1697  0.4605
40246SOL    HW227344   6.695  12.406   2.530  0.9949  0.8135  0.5577
40247SOL     OW27345  10.284  11.298   4.286  0.4359  0.0516 -0.1198
40247SOL    HW127346  10.295  11.251   4.369 -0.3523  0.7549  0.4051
40247SOL    HW227347  10.250  11.384   4.312 -0.3362  0.0916 -1.2028
40248SOL     OW27348   0.928   2.712   3.042 -0.3707  0.1906 -0.4947
40248SOL    HW127349   0.968   2.799   3.045  1.0063 -0.4395  0.2344
40248SOL    HW227350   0.906   2.700   2.950 -1.3906  1.6348 -0.4897
40249SOL     OW27351   6.607   6.097   9.292 -0.1166 -0.1902  0.1743
40249SOL    HW127352   6.549   6.138   9.357 -1.3941 -1.7724  0.0815
40249SOL    HW227353   6.599   6.003   9.308  1.1340 -0.5294 -0.9684
40250SOL     OW27354   2.217  10.275   4.465  0.3226 -0.0271  0.5498
40250SOL    HW127355   2.268  10.195   4.479 -0.6262 -0.2389  3.2698
40250SOL    HW227356   2.168  10.258   4.384  3.3858 -0.3687 -1.3998
40251SOL     OW27357   9.728   4.136   9.413 -0.0395 -0.1658  0.2469
40251SOL    HW127358   9.719   4.231   9.417 -1.0973 -0.3020  1.9229
40251SOL    HW227359   9.675   4.110   9.337 -0.2395  0.5172  0.1477
40252SOL     OW27360   9.623   0.130  12.229 -0.3804 -0.0707  0.0392
40252SOL    HW127361   9.577   0.062  12.179  2.8401 -0.8227 -2.2343
40252SOL    HW227362   9.714   0.125  12.198  0.8803  2.5689  2.7969
40253SOL     OW27363   7.949   0.655   7.909 -0.6806  0.1750 -0.0427
40253SOL    HW127364   7.857   0.633   7.922 -1.2724 -0.4091 -3.9809
40253SOL    HW227365   7.996   0.574   7.930 -0.9917  0.3953  1.7151
40254SOL     OW27366   4.928   7.708   4.315 -0.6884  0.3555 -0.1932
40254SOL    HW127367   4.954   7.629   4.361 -0.4796  0.7958  0.4548
40254SOL    HW227368   4.857   7.680   4.258  0.3917 -0.6311 -1.1226
40255SOL     OW27369   2.009   9.274  10.408 -0.4809  0.9399 -0.0418
40255SOL    HW127370   2.096   9.312  10.393  0.0163  0.5305  1.5868
40255SOL    HW227371   2.018   9.183  10.380  0.6227  0.0093  2.9180
40256SOL     OW27372   7.036   6.406  10.853  0.3863  0.7630  0.0722
40256SOL    HW127373   7.103   6.447  10.798  1.2527 -0.6882 -0.0175
40256SOL    HW227374   6.967   6.381  10.793  2.0741 -2.3829 -0.7897
40257SOL     OW27375   2.950   0.556   0.395 -0.1949  0.0989  0.4069
40257SOL    HW127376   2.997   0.546   0.478  0.7447 -0.3022 -0.1565
40257SOL    HW227377   2.903   0.473   0.384 -1.8833  0.8613  1.4497
40258SOL     OW27378  10.411   6.905   9.134  0.1970  0.0630 -0.4946
40258SOL    HW127379  10.430   6.996   9.157 -0.9384  0.9748 -2.8240
40258SOL    HW227380  10.497   6.864   9.123  0.7524  0.2863  2.3694
40259SOL     OW27381   4.692   4.620   3.707 -0.2229 -0.0365  0.3353
40259SOL    HW127382   4.679   4.624   3.802 -0.6569 -0.3600  0.2955
40259SOL    HW227383   4.611   4.656   3.671  0.0918  0.4198  0.0922
40260SOL     OW27384   0.111   9.164   4.324 -0.6748  0.0357  0.1611
40260SOL    HW127385   0.061   9.137   4.247  1.0119  1.8181 -1.6375
40260SOL    HW227386   0.202   9.146   4.302 -0.1146  0.9210  1.6009
40261SOL     OW27387  11.697   3.457   1.697 -0.7399  0.3209  0.3108
40261SOL    HW127388  11.675   3.399   1.623 -0.6801  0.3559  0.2660
40261SOL    HW227389  11.621   3.449   1.756 -0.0727 -1.0097  1.0534
40262SOL     OW27390  12.734   9.181  12.632  0.9941 -0.4785  0.4852
40262SOL    HW127391  12.715   9.128  12.554  2.0661 -2.1819  1.3221
40262SOL    HW227392  12.667   9.157  12.695 -0.6888  1.8912 -0.2702
40263SOL     OW27393   5.825   2.838   3.721  0.0448 -0.2069 -0.2660
40263SOL    HW127394   5.871   2.888   3.654 -0.2075 -0.1922 -0.4307
40263SOL    HW227395   5.797   2.904   3.785 -1.5939  0.0871 -1.2334
40264SOL     OW27396   6.424   9.654   6.722  0.4210  0.4797  0.1404
40264SOL    HW127397   6.415   9.720   6.791 -0.0309  0.3900  0.1666
40264SOL    HW227398   6.476   9.585   6.763  0.7091  0.7196  0.1830
40265SOL     OW27399  12.622  11.312   3.577 -0.5447 -0.1519  0.3558
40265SOL    HW127400  12.553  11.259   3.536 -0.6101  1.2640 -1.5133
40265SOL    HW227401  12.589  11.330   3.665 -1.4707 -1.4471  0.3022
40266SOL     OW27402   4.889   8.992   8.776  0.9429 -0.2501 -0.1361
40266SOL    HW127403   4.898   8.927   8.706  0.7651 -0.0223 -0.3755
40266SOL    HW227404   4.816   8.959   8.829  1.1271 -0.4620 -0.0123
40267SOL     OW27405  10.184   2.008   0.283 -0.1703 -0.4939 -0.1432
40267SOL    HW127406  10.237   1.951   0.339 -0.4880  1.5418  2.4100
40267SOL    HW227407  10.096   2.004   0.320 -0.3023  1.2286 -0.1828
40268SOL     OW27408   5.286   5.465   7.997 -0.1240  0.1803 -0.3735
40268SOL    HW127409   5.219   5.417   7.949  0.2032  1.1294 -1.8677
40268SOL    HW227410   5.237   5.521   8.058 -0.4837 -2.9074  2.4433
40269SOL     OW27411   1.316  10.975   1.055  0.2307 -0.0512 -0.4302
40269SOL    HW127412   1.317  10.906   1.121 -0.2403  0.2783 -0.0717
40269SOL    HW227413   1.312  11.056   1.105 -2.1956  0.1501 -0.8550
40270SOL     OW27414   5.058   3.836  11.809  0.6279 -0.8244  0.0451
40270SOL    HW127415   5.018   3.796  11.732  0.1682 -0.7952  0.2628
40270SOL    HW227416   5.151   3.844  11.787  0.2009  0.9694 -1.2766
40271SOL     OW27417   6.178   8.708   3.961  0.0917  0.1136  0.3671
40271SOL    HW127418   6.107   8.770   3.944  1.5678  1.7440 -0.1516
40271SOL    HW227419   6.147   8.656   4.035 -1.8509  0.4008 -0.1983
40272SOL     OW27420  12.406   9.433   1.501  0.1001  0.1941  0.3183
40272SOL    HW127421  12.415   9.338   1.507 -1.4918  0.0870  1.7327
40272SOL    HW227422  12.434   9.465   1.587  2.3462  1.2050 -0.7272
40273SOL     OW27423   8.538   0.713   4.607 -0.0069  0.0664  0.3645
40273SOL    HW127424   8.624   0.740   4.640  0.2336  0.5492 -0.6288
40273SOL    HW227425   8.548   0.710   4.512 -1.5113  1.6580  0.1087
40274SOL     OW27426   1.716   1.882   2.231 -0.3233  0.4961 -0.2478
40274SOL    HW127427   1.774   1.818   2.189  0.3548 -0.1456  1.5414
40274SOL    HW227428   1.685   1.938   2.160  3.0538  1.3291 -1.2289
40275SOL     OW27429   8.115   2.496   9.313  0.4311  0.1507 -0.4604
40275SOL    HW127430   8.101   2.588   9.333  0.5582  0.3764 -1.3531
40275SOL    HW227431   8.189   2.470   9.368  2.2262  1.3422 -2.1729
40276SOL     OW27432   0.255   4.243  11.725 -0.2268 -0.3147 -0.8593
40276SOL    HW127433   0.201   4.322  11.718  1.3232  0.6899 -1.9559
40276SOL    HW227434   0.278   4.220  11.635 -0.7584 -2.1417 -0.5839
40277SOL     OW27435   4.717  11.340   1.370 -0.4129 -0.2577  0.3489
40277SOL    HW127436   4.683  11.268   1.316  0.8029 -0.4424 -0.1943
40277SOL    HW227437   4.793  11.372   1.322  0.7738 -0.4817  1.9993
40278SOL     OW27438   9.161   8.394  12.219  0.7493  0.0180  0.6939
40278SOL    HW127439   9.211   8.469  12.251  1.1515  0.7949 -1.6328
40278SOL    HW227440   9.103   8.372  12.292  0.6937  2.5105  1.4902
40279SOL     OW27441   8.636   9.440   3.425 -0.6887  0.0499 -0.2330
40279SOL    HW127442   8.729   9.460   3.425 -1.1101  2.2199  0.1290
40279SOL    HW227443   8.598   9.497   3.492 -2.0820 -1.9765  0.8167
40280SOL     OW27444   9.718  11.859   9.925 -0.0151 -0.3623 -0.2467
40280SOL    HW127445   9.811  11.854   9.945 -0.2820 -3.1673  0.7730
40280SOL    HW227446   9.705  11.794   9.856 -1.1946  0.1233 -0.5040
40281SOL     OW27447   6.737   1.689   5.948  0.0091  0.1394  0.7253
40281SOL    HW127448   6.659   1.736   5.918  0.7458  1.9336  1.4605
40281SOL    HW227449   6.781   1.663   5.867 -0.6670  0.2979  0.2950
40282SOL     OW27450  11.036   1.723   5.584  0.1860 -0.6687  0.0106
40282SOL    HW127451  11.003   1.725   5.494  0.8034 -2.5488 -0.2935
40282SOL    HW227452  11.131   1.717   5.575  0.2667 -0.7105  0.7943
40283SOL     OW27453   9.246   4.775   3.284 -0.6906 -0.4353 -0.2139
40283SOL    HW127454   9.210   4.763   3.196 -0.3502 -2.5426 -0.1131
40283SOL    HW227455   9.303   4.699   3.297 -0.2637  0.1588  1.6003
40284SOL     OW27456   3.503   8.950   2.059  0.1453  0.5938 -0.8500
40284SOL    HW127457   3.490   8.901   1.978  0.2632  0.6658 -0.9120
40284SOL    HW227458   3.572   9.013   2.039  1.8270 -0.8980 -0.0464
40285SOL     OW27459   7.538   7.883   7.066 -0.0252  0.0336  0.1379
40285SOL    HW127460   7.562   7.795   7.095  1.3742  0.5310  0.5399
40285SOL    HW227461   7.474   7.913   7.131  0.5276 -0.1657  0.7801
40286SOL     OW27462   4.740  10.584   0.550  0.2553 -0.1264  0.3500
40286SOL    HW127463   4.729  10.491   0.533  2.0311 -0.0917 -1.3928
40286SOL    HW227464   4.788  10.617   0.474 -0.2307  2.2062  0.9570
40287SOL     OW27465   8.319  10.657   4.677 -0.0462  0.0852  0.5550
40287SOL    HW127466   8.359  10.595   4.738  0.1479 -1.4290 -1.0410
40287SOL    HW227467   8.377  10.733   4.678  1.3078 -0.9252  0.4084
40288SOL     OW27468  12.754  11.559   3.442  0.4946 -0.2908 -0.0988
40288SOL    HW127469  12.794  11.595   3.363  0.4294 -1.0379 -0.4721
40288SOL    HW227470  12.790  11.471   3.450  0.2186 -0.3535  0.4985
40289SOL     OW27471   8.483   9.108   2.509  0.0391 -0.6420 -0.5045
40289SOL    HW127472   8.438   9.166   2.447  1.1856 -1.8892 -2.5951
40289SOL    HW227473   8.573   9.106   2.479  0.2917 -2.5543  0.2504
40290SOL     OW27474   0.861  11.616  10.625  0.0352  0.2762  0.4876
40290SOL    HW127475   0.799  11.630  10.553  0.4154  0.6888  0.2359
40290SOL    HW227476   0.808  11.627  10.704 -0.1479  0.9745  0.2805
40291SOL     OW27477   3.265   3.893   5.122 -0.1382 -0.5594 -0.4977
40291SOL    HW127478   3.170   3.889   5.111 -0.3489 -1.7501  1.3171
40291SOL    HW227479   3.277   3.934   5.208  1.1121  2.0375 -1.8065
40292SOL     OW27480   8.984   3.051   3.964 -0.5648  0.5617  0.0419
40292SOL    HW127481   8.938   3.017   3.888 -0.6205  0.3714  0.1602
40292SOL    HW227482   8.917   3.059   4.032 -0.6382  1.3031 -0.1076
40293SOL     OW27483   9.754   6.597   9.612 -0.4728  0.0500 -0.1858
40293SOL    HW127484   9.757   6.507   9.578  1.3344  0.2096 -0.5512
40293SOL    HW227485   9.813   6.646   9.554 -2.4576  1.8037 -0.8479
40294SOL     OW27486   0.008   9.666  11.988  0.7106 -0.2100  0.0568
40294SOL    HW127487   0.035   9.758  11.979  1.4027 -0.2229  1.5827
40294SOL    HW227488  -0.076   9.661  11.942  0.6080  1.2208  0.0418
40295SOL     OW27489   8.722   6.238   6.033  0.0457  0.2677  0.0146
40295SOL    HW127490   8.712   6.289   6.113  1.7689 -0.6652  0.8651
40295SOL    HW227491   8.633   6.230   5.999 -0.6193  1.3513  1.4003
40296SOL     OW27492   3.031   7.524  10.607  0.1719 -0.1578 -0.0774
40296SOL    HW127493   2.939   7.507  10.626  0.4505 -1.5842  0.1435
40296SOL    HW227494   3.078   7.455  10.655  1.2791 -0.1017 -1.0362
40297SOL     OW27495   1.572   3.749   3.719 -0.3298  0.3615 -0.4688
40297SOL    HW127496   1.491   3.723   3.676 -0.5989 -0.3608  0.4405
40297SOL    HW227497   1.624   3.791   3.650 -0.1834 -1.9104 -1.8491
40298SOL     OW27498   6.110   1.884   5.434 -0.7906 -0.2221 -0.4056
40298SOL    HW127499   6.169   1.949   5.471  2.4767 -2.6247 -0.9085
40298SOL    HW227500   6.139   1.874   5.343 -4.6325  1.1766 -1.9887
40299SOL     OW27501   9.773   7.783   5.141  0.3725 -0.1054  0.1518
40299SOL    HW127502   9.701   7.778   5.078 -0.4836  0.6820  1.0301
40299SOL    HW227503   9.844   7.825   5.093  0.1517 -0.6133 -0.6409
40300SOL     OW27504   4.584   0.676   1.261 -0.3685  0.6659 -0.3392
40300SOL    HW127505   4.589   0.683   1.357 -0.1520 -1.1362 -0.1848
40300SOL    HW227506   4.558   0.763   1.232 -2.0746  0.8450  1.4845
40301SOL     OW27507   6.730   7.396   7.024  0.3253  0.3383 -0.3990
40301SOL    HW127508   6.771   7.425   6.942  0.5499 -1.9251 -1.1500
40301SOL    HW227509   6.636   7.392   7.003  0.3625 -0.0486 -0.5107
40302SOL     OW27510   9.835   7.631   3.653  0.3916 -0.6611  0.0564
40302SOL    HW127511   9.876   7.545   3.657 -1.4318 -1.5680  0.3860
40302SOL    HW227512   9.840   7.656   3.561  0.5561 -1.3167 -0.1161
40303SOL     OW27513  10.003   1.846   9.896  0.2838 -0.1974  0.0043
40303SOL    HW127514   9.962   1.824   9.813  0.1873  0.6764 -0.1850
40303SOL    HW227515  10.097   1.848   9.877  0.3681 -1.3226  0.2353
40304SOL     OW27516   3.355   8.864   2.932 -0.1954 -0.5499  0.0521
40304SOL    HW127517   3.379   8.771   2.938 -0.2231 -0.4925  1.1692
40304SOL    HW227518   3.269   8.869   2.974 -0.8658 -0.2481 -1.2826
40305SOL     OW27519  10.621   4.069  12.332  0.1316 -0.3097  0.3754
40305SOL    HW127520  10.632   4.080  12.426 -1.0324  1.3341  0.3685
40305SOL    HW227521  10.671   3.990  12.310 -0.2748 -1.2144  2.4933
40306SOL     OW27522   7.490  10.606  11.122  0.0715 -0.1535  0.0803
40306SOL    HW127523   7.396  10.603  11.142 -0.3229  1.5936 -1.3228
40306SOL    HW227524   7.500  10.546  11.048  0.0893 -0.4040  0.2834
40307SOL     OW27525   9.090  11.312   3.857 -0.1840  0.3709 -0.6750
40307SOL    HW127526   9.036  11.381   3.896 -1.6870 -0.3289 -1.4180
40307SOL    HW227527   9.060  11.308   3.766 -0.0230 -1.1549 -0.6804
40308SOL     OW27528   6.036   1.834   8.627  0.3745 -0.0074 -0.1261
40308SOL    HW127529   5.958   1.851   8.574  1.3601  1.2879 -1.2071
40308SOL    HW227530   6.037   1.738   8.637 -2.7282  0.0703  2.1278
40309SOL     OW27531   5.346  12.579   7.028 -0.1490  0.4370  0.2595
40309SOL    HW127532   5.271  12.555   6.974 -0.1226  2.3953 -0.7575
40309SOL    HW227533   5.351  12.675   7.021  2.1812  0.4093  0.6469
40310SOL     OW27534   1.244  11.198   2.625 -0.4544 -0.4232 -0.7961
40310SOL    HW127535   1.297  11.277   2.637 -0.4528 -0.5260 -0.0396
40310SOL    HW227536   1.260  11.172   2.535  0.0879  0.0515 -0.8475
40311SOL     OW27537   7.456  12.597   2.207 -0.0214 -0.1180 -0.1321
40311SOL    HW127538   7.545  12.605   2.241  0.2102 -2.0480 -0.1915
40311SOL    HW227539   7.450  12.507   2.174 -1.9655 -0.0087 -0.2129
40312SOL     OW27540   2.935   0.058  12.399 -0.2256 -0.3523  0.3113
40312SOL    HW127541   2.916  -0.027  12.439 -0.5541  0.8601  2.9424
40312SOL    HW227542   3.028   0.071  12.414  0.5544 -1.5154 -2.8658
40313SOL     OW27543   4.383   3.814   4.466 -0.1583 -0.2538 -0.3467
40313SOL    HW127544   4.316   3.865   4.512  0.7656  0.6823 -0.0039
40313SOL    HW227545   4.433   3.772   4.535  0.0210 -0.4198 -0.5758
40314SOL     OW27546   2.460   4.073  10.769 -0.0409  0.4645  0.6541
40314SOL    HW127547   2.511   4.021  10.831  0.3312  0.1615  0.0958
40314SOL    HW227548   2.389   4.110  10.822  0.7129  0.8442  1.4277
40315SOL     OW27549   1.318   3.253   8.595 -0.4722  0.2249 -0.1472
40315SOL    HW127550   1.291   3.302   8.673 -1.7835  0.2686 -0.6002
40315SOL    HW227551   1.394   3.301   8.561  2.2118 -1.5141  2.8123
40316SOL     OW27552   4.230   3.395   0.767  0.3850  0.3627 -0.0352
40316SOL    HW127553   4.135   3.399   0.779  0.5181  0.4018  1.0761
40316SOL    HW227554   4.243   3.417   0.675 -0.8172 -1.5405 -0.7187
40317SOL     OW27555   4.335   5.557   6.852 -0.0211 -0.0968  0.6195
40317SOL    HW127556   4.268   5.619   6.881 -2.6752 -2.3579 -0.1765
40317SOL    HW227557   4.387   5.539   6.931  0.9524  3.0668  0.8439
40318SOL     OW27558  11.603  10.387   6.276  0.0570 -0.9064  1.0690
40318SOL    HW127559  11.649  10.455   6.325  0.9333 -1.2128  0.6767
40318SOL    HW227560  11.518  10.381   6.319  0.4266 -0.4377  1.8897
40319SOL     OW27561   5.370  10.511   1.864 -0.4092 -0.0285 -0.5345
40319SOL    HW127562   5.450  10.540   1.819 -0.8459  1.7103 -0.2392
40319SOL    HW227563   5.352  10.425   1.825  2.9561 -1.6969  1.1451
40320SOL     OW27564   5.105   7.567   3.139 -0.0511  0.0144  0.2205
40320SOL    HW127565   5.039   7.625   3.101  1.2950  2.0499  0.8396
40320SOL    HW227566   5.073   7.478   3.119 -1.0861  0.9283 -2.6899
40321SOL     OW27567   7.086   2.770   4.557 -0.2178  0.2539  0.5441
40321SOL    HW127568   7.050   2.849   4.517 -0.3998  0.9548  2.0080
40321SOL    HW227569   7.015   2.705   4.551 -0.2485  0.3543 -0.2157
40322SOL     OW27570   6.110  11.049   1.737  0.5480 -0.0104  0.1526
40322SOL    HW127571   6.128  11.070   1.645  1.3229  2.2871  0.7540
40322SOL    HW227572   6.194  11.066   1.782 -0.0749 -0.1539  1.4200
40323SOL     OW27573   1.009   2.229   0.996  0.3493  0.2156 -0.7902
40323SOL    HW127574   1.060   2.302   1.033  0.3950  0.0072 -0.4306
40323SOL    HW227575   0.924   2.267   0.976  0.1509  0.2158  0.0249
40324SOL     OW27576  10.144   6.783   1.965 -0.3339 -0.2754  0.0038
40324SOL    HW127577  10.120   6.858   1.910  1.5144  0.2375 -0.1522
40324SOL    HW227578  10.223   6.811   2.011  1.0385 -2.4568 -0.8422
40325SOL     OW27579   2.812   2.702   0.254 -0.0916  0.1807  0.1216
40325SOL    HW127580   2.729   2.701   0.303  0.7908  0.1085  1.6598
40325SOL    HW227581   2.785   2.692   0.163 -1.7448 -0.5801  0.6455
40326SOL     OW27582   7.653   1.847   4.354  0.1429 -0.6566 -0.4616
40326SOL    HW127583   7.667   1.865   4.262  0.2229 -1.1782 -0.5544
40326SOL    HW227584   7.678   1.928   4.399  0.0114 -0.3727 -0.9015
40327SOL     OW27585   5.066   5.226  12.185 -0.7709  0.1268  0.0361
40327SOL    HW127586   5.008   5.151  12.200 -0.7193  0.2285  0.8206
40327SOL    HW227587   5.130   5.220  12.256 -0.9425  1.0830  0.2787
40328SOL     OW27588  10.074   6.158  11.463 -0.6024  0.3303 -0.0485
40328SOL    HW127589  10.094   6.087  11.524 -1.0048 -0.4520 -0.7982
40328SOL    HW227590  10.080   6.118  11.377 -2.0730  0.8765 -0.4416
40329SOL     OW27591   0.069   0.309   0.005 -0.4344 -0.2254  0.2591
40329SOL    HW127592   0.122   0.258  -0.057 -0.1071 -1.8906  1.8040
40329SOL    HW227593   0.013   0.363  -0.050  1.6748  0.3646 -1.4531
40330SOL     OW27594   6.768  11.696  10.275  0.1089 -0.2246 -0.2919
40330SOL    HW127595   6.786  11.775  10.326 -0.6791 -0.2752  0.0842
40330SOL    HW227596   6.845  11.684  10.220  0.4501  0.5194  0.0175
40331SOL     OW27597   5.382   9.123   2.034 -0.3731 -0.0286  0.1992
40331SOL    HW127598   5.414   9.069   1.962  0.6370 -0.6419  1.0807
40331SOL    HW227599   5.411   9.212   2.011 -0.8217 -0.0729 -0.5666
40332SOL     OW27600   5.030   5.923   2.237  0.2783 -0.0607 -0.2652
40332SOL    HW127601   5.029   5.835   2.198  1.2121  0.6008 -1.9034
40332SOL    HW227602   5.123   5.941   2.252 -0.0025  0.1275  1.3551
40333SOL     OW27603   4.580   5.927   0.576  0.2098 -0.2223  0.4309
40333SOL    HW127604   4.611   5.875   0.649  0.3527 -0.4774  0.1909
40333SOL    HW227605   4.597   5.873   0.499  1.8737  0.8221  0.0059
40334SOL     OW27606   0.331   8.761  10.779  0.2355 -0.1750  0.4807
40334SOL    HW127607   0.380   8.692  10.824  0.3918 -1.4580 -1.5343
40334SOL    HW227608   0.384   8.782  10.702 -0.9498  0.5361 -0.1723
40335SOL     OW27609   5.856   1.994   6.896  0.2274 -0.1584 -0.1842
40335SOL    HW127610   5.810   1.926   6.945  0.3364 -0.9221 -1.1088
40335SOL    HW227611   5.797   2.069   6.897 -0.4541 -0.6857 -0.2375
40336SOL     OW27612   0.634   8.100   1.479  0.1165  0.5705  0.3092
40336SOL    HW127613   0.689   8.080   1.555 -1.0478 -0.4609  0.9171
40336SOL    HW227614   0.623   8.195   1.481  1.2469  0.7064  0.6030
40337SOL     OW27615   9.160   3.319  12.135  0.1406  0.0018  0.5440
40337SOL    HW127616   9.092   3.261  12.100  1.8557 -2.1940  0.5641
40337SOL    HW227617   9.123   3.354  12.215 -1.4695 -0.0108 -0.1546
40338SOL     OW27618   5.354   2.535  12.406  0.5682 -0.1393  0.2402
40338SOL    HW127619   5.365   2.565  12.496  0.5462 -0.1240  0.2374
40338SOL    HW227620   5.443   2.514  12.377  0.3697 -2.1717  0.9675
40339SOL     OW27621   1.101   6.052   3.303  0.1420  0.1600 -0.0575
40339SOL    HW127622   1.180   6.002   3.281  0.1391 -1.3045  2.8935
40339SOL    HW227623   1.065   6.009   3.380 -2.5152  1.9592 -0.1531
40340SOL     OW27624  12.533   0.043  10.958 -0.1312  0.1504 -0.3134
40340SOL    HW127625  12.576  -0.014  11.022  0.7832  1.1279 -0.0287
40340SOL    HW227626  12.441   0.042  10.983 -0.3222 -2.0107 -0.9476
40341SOL     OW27627   9.272   7.652   1.950  0.2974 -0.3683  0.0031
40341SOL    HW127628   9.252   7.568   1.909  1.1085 -1.0134  0.8850
40341SOL    HW227629   9.349   7.635   2.003 -0.7069  0.4285  1.8048
40342SOL     OW27630   7.121   7.419   5.928 -0.0728 -0.2687  0.4670
40342SOL    HW127631   7.086   7.458   5.848  1.3067  1.0174  0.4313
40342SOL    HW227632   7.054   7.434   5.994  0.4705  2.5332  0.5163
40343SOL     OW27633  10.720   6.842   0.581 -0.1843  0.2419  0.3002
40343SOL    HW127634  10.709   6.927   0.540 -3.4157 -0.3682 -0.3630
40343SOL    HW227635  10.796   6.804   0.537  0.3212  2.1085 -0.5530
40344SOL     OW27636  12.439  10.969   8.799  0.1343  0.2162  0.1747
40344SOL    HW127637  12.499  10.994   8.870  0.1710  1.2678 -0.2169
40344SOL    HW227638  12.481  11.002   8.720 -0.4610  0.0304 -0.2189
40345SOL     OW27639   2.038  10.598   5.251 -0.3320 -0.4293 -0.1751
40345SOL    HW127640   2.006  10.543   5.323 -0.1449  0.4861  0.6362
40345SOL    HW227641   2.114  10.551   5.217  0.7568  0.0097  1.5064
40346SOL     OW27642  11.776  10.350   1.086 -0.3640  0.8471  0.2563
40346SOL    HW127643  11.710  10.280   1.091  1.3814 -0.8746  0.2652
40346SOL    HW227644  11.778  10.387   1.174 -0.8373  0.4693  0.4348
40347SOL     OW27645   1.749  11.973   1.473  0.1083 -0.0901  0.2526
40347SOL    HW127646   1.822  12.009   1.524  0.1466  0.6827 -0.3324
40347SOL    HW227647   1.735  11.887   1.511  1.6310 -0.4532  0.0856
40348SOL     OW27648   9.041   5.095   3.502 -0.2527 -0.3460 -0.3258
40348SOL    HW127649   9.120   5.143   3.479  0.0670 -0.6067  0.2044
40348SOL    HW227650   9.036   5.024   3.437  0.4345 -0.8522  0.1533
40349SOL     OW27651   4.079  11.994   5.268 -0.5434 -0.1021 -0.3639
40349SOL    HW127652   4.161  11.961   5.231  0.5376 -1.5985  3.0261
40349SOL    HW227653   4.084  12.089   5.258  1.8877 -0.1227  0.2422
40350SOL     OW27654   6.850   9.794  10.061  0.3179  0.4326  0.8692
40350SOL    HW127655   6.794   9.819  10.134 -1.4846  1.4581 -0.7579
40350SOL    HW227656   6.931   9.842  10.075 -0.7392  2.2154  1.1923
40351SOL     OW27657   5.388   7.237   3.467 -0.1561 -0.4143  0.3517
40351SOL    HW127658   5.356   7.194   3.388  0.9166 -1.5102  0.4990
40351SOL    HW227659   5.482   7.225   3.465  0.0092  0.5672  1.2209
40352SOL     OW27660   2.230  12.346  11.415 -0.0691  0.2787 -0.3261
40352SOL    HW127661   2.161  12.412  11.420 -2.9236 -2.5357  1.6548
40352SOL    HW227662   2.237  12.324  11.322 -1.3571  1.1408 -0.6376
40353SOL     OW27663   3.397   0.261  11.787  0.0864  0.5164 -0.0206
40353SOL    HW127664   3.328   0.302  11.734  1.1763  2.8032  0.2020
40353SOL    HW227665   3.457   0.225  11.722  0.1516  1.1101 -0.3048
40354SOL     OW27666   9.693   3.765   4.120 -0.2418 -0.0997  0.0974
40354SOL    HW127667   9.693   3.808   4.034 -0.3600 -2.2815 -1.0539
40354SOL    HW227668   9.740   3.827   4.177  0.2739  1.1957 -1.6242
40355SOL     OW27669   7.523   7.815   9.002 -0.6294  0.5024  0.2792
40355SOL    HW127670   7.594   7.772   8.956 -1.3914 -1.3498  0.7403
40355SOL    HW227671   7.554   7.904   9.018  1.5641 -0.2561  0.4608
40356SOL     OW27672   3.685   4.426  11.790 -0.4014 -0.1203 -0.0672
40356SOL    HW127673   3.734   4.459  11.715 -0.9187  3.2575  0.8889
40356SOL    HW227674   3.593   4.425  11.761 -0.5632  0.8603  0.3769
40357SOL     OW27675   5.720  11.177   1.792 -0.4204 -0.3672  0.3153
40357SOL    HW127676   5.628  11.167   1.816 -0.7770 -1.6644 -1.3701
40357SOL    HW227677   5.766  11.114   1.848 -0.7493 -0.7420  0.1660
40358SOL     OW27678   8.952   0.246   9.210  0.2428  0.4944 -0.6070
40358SOL    HW127679   9.000   0.264   9.291 -1.2832  0.4039  0.3697
40358SOL    HW227680   9.018   0.211   9.150  1.2945 -0.1258  0.8428
40359SOL     OW27681   4.734  11.714  10.998  0.3649 -0.5446 -0.0282
40359SOL    HW127682   4.779  11.753  11.072  0.2705 -1.1100  0.3344
40359SOL    HW227683   4.645  11.699  11.029 -0.0990  0.5839 -0.7445
40360SOL     OW27684   1.393  10.704  11.479 -0.5771 -0.1561  0.1683
40360SOL    HW127685   1.369  10.712  11.571  0.0847 -0.3054  0.3599
40360SOL    HW227686   1.437  10.786  11.458  1.4337 -1.0475  0.6673
40361SOL     OW27687  11.087   2.880   3.592 -0.3155 -0.0343  0.2875
40361SOL    HW127688  11.006   2.929   3.579  0.0420  0.1395 -1.7012
40361SOL    HW227689  11.073   2.831   3.673 -2.0035  0.7619  0.5237
40362SOL     OW27690   3.443   5.131   7.028  0.4719 -0.3557  0.1866
40362SOL    HW127691   3.398   5.119   7.112 -0.2085  0.6812 -0.0111
40362SOL    HW227692   3.372   5.142   6.965  0.9735 -1.2561 -0.5676
40363SOL     OW27693  12.081  10.364   6.778  0.3730  0.0688 -0.3083
40363SOL    HW127694  12.125  10.313   6.846  0.2506  1.1413  0.5970
40363SOL    HW227695  12.126  10.340   6.697  0.5638 -1.1807  0.1471
40364SOL     OW27696   7.579  11.872   4.719 -0.3764  0.1869 -0.4903
40364SOL    HW127697   7.650  11.833   4.770 -0.7600  0.2485  0.1038
40364SOL    HW227698   7.551  11.803   4.660 -0.4401 -0.1478 -0.0772
40365SOL     OW27699   7.386   5.921   1.030  0.3881 -0.1029  0.1403
40365SOL    HW127700   7.465   5.905   0.978 -0.0930 -1.7425 -0.1528
40365SOL    HW227701   7.315   5.918   0.966  0.0579  1.3409  0.4072
40366SOL     OW27702  12.171   2.112   7.453 -0.2408 -0.3740 -0.1222
40366SOL    HW127703  12.160   2.164   7.532  2.1049 -1.6077  1.0938
40366SOL    HW227704  12.262   2.124   7.428 -0.7858 -0.4261 -2.3853
40367SOL     OW27705   9.875   3.897   8.146  0.4482 -0.3880  0.5495
40367SOL    HW127706   9.905   3.862   8.231 -0.4431 -2.8836 -0.0620
40367SOL    HW227707   9.956   3.922   8.101  1.1451 -1.2275  1.2743
40368SOL     OW27708   9.184  12.679   8.077  0.0978  0.1650 -0.4618
40368SOL    HW127709   9.254  12.717   8.023  0.2799  0.1675 -0.2243
40368SOL    HW227710   9.108  12.676   8.019  0.0376  1.0296 -0.4406
40369SOL     OW27711   8.799   7.909   0.916  0.6358  0.0365 -0.1532
40369SOL    HW127712   8.760   7.996   0.922  1.8940  0.6227 -0.3174
40369SOL    HW227713   8.799   7.890   0.822 -0.2690 -0.4488 -0.0670
40370SOL     OW27714   5.040   9.563   3.322 -0.5475  0.5985 -0.6388
40370SOL    HW127715   5.100   9.636   3.339 -2.1488  1.7408  0.4783
40370SOL    HW227716   5.059   9.537   3.232  3.0390 -0.5293  0.2891
40371SOL     OW27717  10.072  10.080   2.385  0.4163 -0.0294 -0.0392
40371SOL    HW127718   9.981  10.108   2.371 -0.0307 -0.1056  2.2607
40371SOL    HW227719  10.112  10.084   2.298 -1.2649  1.8605 -0.8129
40372SOL     OW27720   1.839   3.963   9.918 -0.0108  0.0540 -0.4832
40372SOL    HW127721   1.780   3.947   9.844  0.0737 -0.5254 -0.4273
40372SOL    HW227722   1.783   4.002   9.985 -0.3187 -0.4411 -0.4530
40373SOL     OW27723  12.763  12.328   5.513  0.0107 -0.2758 -0.6290
40373SOL    HW127724  12.668  12.334   5.522 -0.2297 -0.4235 -2.4993
40373SOL    HW227725  12.780  12.233   5.508  0.3200 -0.2660  0.1204
40374SOL     OW27726   3.237   5.894   7.338  0.1732  0.4772  0.0092
40374SOL    HW127727   3.238   5.965   7.403  0.1544  0.8367 -0.3808
40374SOL    HW227728   3.145   5.873   7.327  0.1879  0.2779  0.2423
40375SOL     OW27729  11.280   8.818   8.892  0.0761 -0.5862  0.0954
40375SOL    HW127730  11.366   8.827   8.850 -0.5258 -0.1235 -1.0745
40375SOL    HW227731  11.281   8.885   8.961  0.5349 -0.3560 -0.1265
40376SOL     OW27732   1.057   4.715   8.649  0.2901 -0.3988  0.0586
40376SOL    HW127733   1.134   4.731   8.703  1.1207 -1.1520 -0.8593
40376SOL    HW227734   0.992   4.779   8.679  2.5833  3.0976 -1.7782
40377SOL     OW27735   8.120   2.794  10.718 -0.0382 -0.1049  0.0090
40377SOL    HW127736   8.128   2.788  10.622  0.7309 -0.2104  0.0674
40377SOL    HW227737   8.068   2.717  10.743  0.3071 -0.4347 -0.2691
40378SOL     OW27738   5.362   6.003  12.080  0.3643  0.1337  0.4649
40378SOL    HW127739   5.376   6.042  12.166 -1.2070 -1.3134  1.4333
40378SOL    HW227740   5.342   5.911  12.098 -1.2024  0.0555 -1.3342
40379SOL     OW27741  10.460  10.035   8.559 -0.2439  0.1395  0.2401
40379SOL    HW127742  10.465  10.006   8.468 -0.5619 -0.2382  0.3396
40379SOL    HW227743  10.367  10.051   8.574  0.0446  2.4403 -0.1759
40380SOL     OW27744   8.280  12.313   4.362  0.1319 -0.0133  0.6697
40380SOL    HW127745   8.293  12.219   4.363 -2.7580 -0.5025  2.8679
40380SOL    HW227746   8.324  12.345   4.440  0.4386  0.3653  0.3481
40381SOL     OW27747   4.536  12.017   8.307  0.4286  0.2132 -0.6855
40381SOL    HW127748   4.522  11.998   8.399  2.2342  2.2246  0.1015
40381SOL    HW227749   4.548  11.932   8.265  1.5143 -0.6451  1.2900
40382SOL     OW27750   0.878   0.393   1.762 -0.0345 -0.3568 -0.1480
40382SOL    HW127751   0.898   0.312   1.809 -2.0320 -1.2578 -0.7584
40382SOL    HW227752   0.785   0.388   1.743 -0.3791  2.4279  0.3770
40383SOL     OW27753   2.359   1.227  10.339  0.0104 -0.3656  0.1655
40383SOL    HW127754   2.355   1.275  10.256 -0.4494 -0.0599  0.3585
40383SOL    HW227755   2.310   1.146  10.322  1.1635 -0.9869 -0.2921
40384SOL     OW27756   1.269  11.176   1.237  0.1879  0.1388 -0.4686
40384SOL    HW127757   1.186  11.215   1.208  0.1409  0.9601  0.7124
40384SOL    HW227758   1.326  11.251   1.255 -0.0839 -0.2245  2.4040
40385SOL     OW27759   3.775   9.207   7.735  0.0053 -0.2229 -0.1489
40385SOL    HW127760   3.759   9.302   7.731  0.4667 -0.1416 -0.1092
40385SOL    HW227761   3.868   9.198   7.715  0.0579 -0.6326  0.2612
40386SOL     OW27762  11.049   8.203  10.075  0.6881 -0.0156  0.3158
40386SOL    HW127763  11.121   8.142  10.090 -0.9891 -2.2728 -0.1762
40386SOL    HW227764  11.016   8.223  10.162  1.0490 -0.0885  0.4713
40387SOL     OW27765   5.862   9.420   2.305 -0.0377  0.0778  0.1469
40387SOL    HW127766   5.928   9.404   2.372  0.0092 -1.2143 -0.1715
40387SOL    HW227767   5.910   9.415   2.222 -0.7018 -2.4726 -0.1905
40388SOL     OW27768   4.039   1.416   2.294  0.1113 -0.3755 -0.2004
40388SOL    HW127769   3.988   1.496   2.307 -1.0445 -1.2135  0.6555
40388SOL    HW227770   4.097   1.435   2.220  0.0504  1.3318  0.1647
40389SOL     OW27771   1.899   6.888   0.965  0.7673 -0.4242 -0.2931
40389SOL    HW127772   1.958   6.870   0.892  2.6555 -1.9492  1.4690
40389SOL    HW227773   1.950   6.866   1.043 -1.0711  1.3327  1.5391
40390SOL     OW27774   6.523   6.606   2.092 -0.4711  0.3438  0.7733
40390SOL    HW127775   6.451   6.645   2.042  0.0256  0.0434 -0.1877
40390SOL    HW227776   6.566   6.680   2.134 -1.0919  0.5658  1.0268
40391SOL     OW27777   7.209   0.417   2.119  0.1420 -0.9192 -0.2362
40391SOL    HW127778   7.196   0.331   2.079  0.4894 -0.4217 -1.4714
40391SOL    HW227779   7.187   0.480   2.050 -1.8226  0.0417  1.1766
40392SOL     OW27780   3.240   0.078   6.343  0.4080 -0.4353  0.3451
40392SOL    HW127781   3.325   0.042   6.316 -0.1092 -0.6991 -1.0124
40392SOL    HW227782   3.249   0.172   6.333  0.9471 -0.3511  1.4701
40393SOL     OW27783   0.527  11.184   9.572  0.1907 -0.2342  0.3172
40393SOL    HW127784   0.492  11.205   9.658  2.2425 -1.0831  1.4048
40393SOL    HW227785   0.570  11.100   9.582  1.4046  0.1442 -1.2713
40394SOL     OW27786   0.491   3.518   5.839 -0.0406 -0.7942  0.2220
40394SOL    HW127787   0.457   3.569   5.912 -0.7407 -0.6656 -0.1786
40394SOL    HW227788   0.471   3.427   5.862 -2.0675 -0.6345 -0.6715
40395SOL     OW27789   5.064   8.659   6.159  0.1062 -0.7287  0.4064
40395SOL    HW127790   4.971   8.657   6.136 -0.6688  2.1436  2.7313
40395SOL    HW227791   5.068   8.615   6.244  0.4395  1.0227  1.3386
40396SOL     OW27792   2.104   7.456   6.216 -0.4523 -0.3202 -0.0868
40396SOL    HW127793   2.025   7.510   6.212 -1.2925 -1.5491 -0.4801
40396SOL    HW227794   2.102   7.416   6.303  0.2251  0.3343  0.2434
40397SOL     OW27795   0.666   6.814   7.359  0.2085 -0.6344  0.1714
40397SOL    HW127796   0.684   6.774   7.274  2.0591 -0.2624  0.3355
40397SOL    HW227797   0.730   6.886   7.366 -0.8829  0.2854  1.2536
40398SOL     OW27798  11.617   1.789   2.326  0.0817  0.0162 -0.1626
40398SOL    HW127799  11.552   1.761   2.391 -0.3008  1.3871  0.0737
40398SOL    HW227800  11.696   1.808   2.377 -0.0259  0.4971 -0.1731
40399SOL     OW27801  12.248   5.866   3.953 -0.3244  0.1185 -0.2010
40399SOL    HW127802  12.300   5.871   4.034 -0.2009 -0.4786 -0.2425
40399SOL    HW227803  12.190   5.942   3.958 -1.4582 -0.7699  1.2455
40400SOL     OW27804  12.452   1.747   4.554 -0.3198  0.1820  0.1778
40400SOL    HW127805  12.371   1.712   4.593 -0.5245  0.8159  0.3449
40400SOL    HW227806  12.481   1.679   4.494 -1.1475  0.0680 -0.1097
40401SOL     OW27807   1.422   3.375   6.815 -0.0718 -0.0232  0.6207
40401SOL    HW127808   1.376   3.398   6.735  1.1596  1.0542  0.1842
40401SOL    HW227809   1.397   3.443   6.878  0.3833  0.1754  0.5888
40402SOL     OW27810   1.449   9.057  11.713  0.2670  0.0819 -0.5071
40402SOL    HW127811   1.537   9.042  11.747 -0.2652  0.5371  1.1672
40402SOL    HW227812   1.401   9.098  11.786 -2.1252 -2.6304 -0.3579
40403SOL     OW27813   9.907  11.348   3.301  0.3213 -0.0761  0.1277
40403SOL    HW127814   9.892  11.363   3.208  0.2748 -0.6791  0.0317
40403SOL    HW227815   9.945  11.260   3.305 -0.8875 -0.5996  0.7631
40404SOL     OW27816   0.316  12.195   0.280 -0.1922 -0.2957  0.1458
40404SOL    HW127817   0.358  12.113   0.254 -0.1164  0.0908 -0.9921
40404SOL    HW227818   0.358  12.262   0.226 -1.5620  0.2378 -0.3050
40405SOL     OW27819   8.481  12.332   8.736  0.2449  0.0219  0.3834
40405SOL    HW127820   8.528  12.338   8.819 -0.8168  0.6128  0.9761
40405SOL    HW227821   8.409  12.271   8.754 -1.4282  1.9416  0.6881
40406SOL     OW27822  10.659  12.781  10.475 -0.0470  0.5860  0.3676
40406SOL    HW127823  10.563  12.790  10.479 -0.0769  1.8167 -1.9302
40406SOL    HW227824  10.673  12.699  10.429  0.0488  0.1046  1.2246
40407SOL     OW27825   5.643   9.742   4.056 -0.2309  0.4984  0.0375
40407SOL    HW127826   5.669   9.660   4.014 -1.1931  0.6569 -0.9296
40407SOL    HW227827   5.713   9.762   4.117 -0.0906 -1.1778  0.4613
40408SOL     OW27828   2.662   4.354   9.709  0.6640  0.3862 -0.4012
40408SOL    HW127829   2.575   4.316   9.700  0.3450  0.8955  0.3984
40408SOL    HW227830   2.687   4.335   9.800  1.6040 -0.1851 -0.7579
40409SOL     OW27831   2.411   6.745   0.564 -0.3506  0.3189  0.0473
40409SOL    HW127832   2.316   6.735   0.561 -0.3003 -0.1251 -2.4950
40409SOL    HW227833   2.428   6.822   0.510  0.7131  0.6849  0.8822
40410SOL     OW27834   6.564   6.736  10.166 -0.0200 -0.7149 -0.0724
40410SOL    HW127835   6.525   6.789  10.098  2.3652  0.1852 -0.8538
40410SOL    HW227836   6.531   6.648  10.151 -3.3912  0.2730  0.7311
40411SOL     OW27837   3.960   2.919   3.056  0.6319 -0.1768  0.4748
40411SOL    HW127838   3.909   2.883   2.984  0.3531  1.6393 -0.2893
40411SOL    HW227839   3.914   2.891   3.135 -0.1560 -0.5918 -0.1252
40412SOL     OW27840  11.617   3.075  12.270 -0.2027  0.4467  0.3564
40412SOL    HW127841  11.711   3.069  12.291  0.3392  0.4623 -1.7783
40412SOL    HW227842  11.582   3.135  12.336  1.4019  0.8502  0.9003
40413SOL     OW27843   4.679   6.257  12.060 -0.1972 -0.4000  0.0266
40413SOL    HW127844   4.690   6.352  12.062  0.5042 -0.4803  0.9515
40413SOL    HW227845   4.764   6.224  12.031 -0.5708 -0.7288 -0.6949
40414SOL     OW27846  11.672  12.727   9.177  0.3111  0.6423 -0.3240
40414SOL    HW127847  11.588  12.770   9.193  0.6720  1.1964  0.1524
40414SOL    HW227848  11.717  12.731   9.262  1.0827  0.9622 -0.7371
40415SOL     OW27849   5.954   0.994   0.434  0.4411 -0.7223 -0.1288
40415SOL    HW127850   6.031   1.049   0.445  0.7587 -1.1328 -0.2841
40415SOL    HW227851   5.933   1.001   0.341 -1.5253  1.7880  0.3803
40416SOL     OW27852  12.631   0.104   0.652 -0.0286 -0.2001  0.5118
40416SOL    HW127853  12.632   0.199   0.664  0.3347 -0.2536  0.9004
40416SOL    HW227854  12.554   0.088   0.598  0.2220  0.3763 -0.0356
40417SOL     OW27855   1.508   2.481   1.985  0.1985 -0.0415 -0.7557
40417SOL    HW127856   1.476   2.535   1.913 -0.8415 -0.4391 -0.6113
40417SOL    HW227857   1.470   2.395   1.968  0.1293 -0.1934  0.1486
40418SOL     OW27858   9.183  12.059   7.748 -0.1581 -0.2247  0.1044
40418SOL    HW127859   9.250  12.061   7.679  0.4400  0.4998  0.6909
40418SOL    HW227860   9.228  12.025   7.825 -1.4507 -3.5394 -0.4501
40419SOL     OW27861   8.231  11.229   5.216 -0.1830  0.2693 -0.3294
40419SOL    HW127862   8.179  11.152   5.195  0.8915 -0.1044 -1.7713
40419SOL    HW227863   8.222  11.239   5.311 -3.1018  0.4373 -0.5345
40420SOL     OW27864  11.622   3.392   8.383 -0.2258 -0.1095  0.1181
40420SOL    HW127865  11.558   3.330   8.418 -0.1930 -1.0671 -1.4240
40420SOL    HW227866  11.569   3.455   8.334 -0.3002  1.4087  2.0132
40421SOL     OW27867   7.124   8.128   9.684  0.0703  0.0464 -0.8394
40421SOL    HW127868   7.197   8.070   9.661  0.1010  0.2138 -1.1704
40421SOL    HW227869   7.115   8.186   9.609 -0.8847 -0.4528 -1.1314
40422SOL     OW27870   1.290   8.724   5.011  0.1863 -0.1066 -0.1799
40422SOL    HW127871   1.328   8.741   4.925  1.6145  1.3121  0.6859
40422SOL    HW227872   1.364   8.692   5.063 -0.4298  0.0442  0.7980
40423SOL     OW27873   5.967   8.430   8.881 -0.2799  0.2684  0.3122
40423SOL    HW127874   5.957   8.521   8.910  0.9216  1.1609 -1.8310
40423SOL    HW227875   6.038   8.396   8.935 -0.2932  0.8086  0.6833
40424SOL     OW27876   0.252   4.269  10.368 -0.5442  0.1855 -0.6955
40424SOL    HW127877   0.325   4.215  10.399 -0.6254  0.0053 -0.8134
40424SOL    HW227878   0.204   4.294  10.447  0.1480  1.0402 -0.5348
40425SOL     OW27879  11.404  11.079   0.156 -0.0833  0.1450  0.4922
40425SOL    HW127880  11.324  11.132   0.155  0.7795  1.5988  2.5107
40425SOL    HW227881  11.379  10.999   0.201 -0.8018 -0.1747 -0.4395
40426SOL     OW27882  12.282   8.828   7.921  0.4390  0.2312 -0.2097
40426SOL    HW127883  12.242   8.774   7.990  0.8096  0.0671 -0.1177
40426SOL    HW227884  12.210   8.846   7.860  0.7014 -1.9967 -1.2674
40427SOL     OW27885   4.970   6.144   8.797  1.0609 -0.5161 -0.0523
40427SOL    HW127886   4.984   6.162   8.890  0.4124 -0.2046 -0.0086
40427SOL    HW227887   4.922   6.220   8.765 -1.1549 -1.8049 -0.0164
40428SOL     OW27888  12.164   2.920   2.019 -0.1577 -0.6897 -0.3416
40428SOL    HW127889  12.159   2.960   2.105 -0.7827 -2.2242  0.3767
40428SOL    HW227890  12.253   2.885   2.013 -0.8334 -2.7423  0.7438
40429SOL     OW27891   4.273   4.955   8.371  0.4377  0.0717 -0.1903
40429SOL    HW127892   4.257   5.038   8.417  0.8680 -0.2539  0.5725
40429SOL    HW227893   4.357   4.925   8.406  1.0551  0.0842 -1.6208
40430SOL     OW27894  11.552   1.654   6.727  0.4603 -0.0381  0.0129
40430SOL    HW127895  11.585   1.622   6.643  0.6306 -1.7290  0.6940
40430SOL    HW227896  11.509   1.578   6.767  0.1190  0.8142  1.3326
40431SOL     OW27897   2.615   6.025  11.420  0.4218  0.3300  0.7856
40431SOL    HW127898   2.614   6.077  11.339 -0.0780 -0.3173  0.3754
40431SOL    HW227899   2.571   5.944  11.398 -0.3157  0.4092  1.8962
40432SOL     OW27900  10.462   2.540   4.107 -0.1154 -0.1624  0.0513
40432SOL    HW127901  10.381   2.492   4.089  0.0804 -1.2567  1.8087
40432SOL    HW227902  10.522   2.513   4.038 -0.5955 -1.0430 -0.0402
40433SOL     OW27903   6.454   9.313  11.159 -0.3307  0.5156 -0.5711
40433SOL    HW127904   6.366   9.283  11.137 -0.9249 -0.3960  2.6496
40433SOL    HW227905   6.441   9.384  11.222  1.2551  0.9154 -0.6257
40434SOL     OW27906   2.179   2.787  11.921 -0.1927 -0.4448  0.5029
40434SOL    HW127907   2.227   2.721  11.970  1.2828 -0.9791 -1.5459
40434SOL    HW227908   2.221   2.789  11.835 -1.9445  1.2333 -0.3964
40435SOL     OW27909   7.208   2.003   6.945  0.3469  0.2361  0.8078
40435SOL    HW127910   7.264   1.963   6.878  1.6301  0.8322  1.4757
40435SOL    HW227911   7.157   1.931   6.980 -0.5582 -0.0468 -0.9861
40436SOL     OW27912   5.392  10.649   7.693 -0.6704 -0.0435 -0.1299
40436SOL    HW127913   5.450  10.683   7.762 -1.2534  0.4232  0.1398
40436SOL    HW227914   5.437  10.571   7.661  0.2612  0.4769 -0.1408
40437SOL     OW27915   5.364   3.863   3.275  0.1005 -0.4268 -0.2582
40437SOL    HW127916   5.325   3.950   3.261 -0.1979 -0.5013  0.0851
40437SOL    HW227917   5.428   3.853   3.204  0.2402  0.1337 -0.2142
40438SOL     OW27918   1.928   8.647   0.551 -0.3401 -0.3022 -0.4712
40438SOL    HW127919   2.009   8.683   0.515  1.4090 -3.2346  0.1631
40438SOL    HW227920   1.942   8.646   0.646 -0.6019 -1.8086 -0.4151
40439SOL     OW27921  11.115   9.414   8.745 -0.1092  0.0784 -0.2853
40439SOL    HW127922  11.047   9.415   8.678 -0.5396 -0.2227  0.1389
40439SOL    HW227923  11.183   9.358   8.709  0.4900  1.3822 -1.2558
40440SOL     OW27924   5.164   5.616  11.272  0.3536  0.2942  0.0455
40440SOL    HW127925   5.093   5.557  11.249  0.6201 -0.6667  1.5359
40440SOL    HW227926   5.127   5.704  11.260 -0.6000 -0.1775 -0.5932
40441SOL     OW27927   7.295  10.266  12.468 -0.1145 -0.1437  0.0155
40441SOL    HW127928   7.206  10.247  12.500 -0.2650  1.0165  0.3248
40441SOL    HW227929   7.299  10.361  12.463  1.6024 -0.0937  1.4065
40442SOL     OW27930   1.327   9.038   0.333 -0.5642 -0.2775  0.6738
40442SOL    HW127931   1.312   9.079   0.248 -0.7859 -2.5198 -0.4368
40442SOL    HW227932   1.417   9.062   0.356 -0.4788  0.2789 -0.2130
40443SOL     OW27933  10.693   8.150   2.775 -0.1761  0.9675  0.5358
40443SOL    HW127934  10.697   8.062   2.813  2.1658  0.1733 -1.3039
40443SOL    HW227935  10.785   8.178   2.769 -0.8624  3.5770  1.0936
40444SOL     OW27936   3.935   5.540  10.993 -0.1034 -0.9406  0.4596
40444SOL    HW127937   3.914   5.452  11.024  0.8595 -1.0384  0.8554
40444SOL    HW227938   3.924   5.535  10.898 -0.8588 -1.2542  0.5546
40445SOL     OW27939   9.009   3.458   2.468  0.0649 -0.3003  0.0866
40445SOL    HW127940   8.975   3.398   2.535 -0.3653 -0.7096 -0.4860
40445SOL    HW227941   9.043   3.533   2.518 -2.0390  0.3250  0.6922
40446SOL     OW27942   4.231  12.002   1.219 -0.0810 -0.2988  0.0730
40446SOL    HW127943   4.326  12.013   1.214  0.0014 -0.2117  1.3714
40446SOL    HW227944   4.198  12.091   1.233 -0.4218 -0.2411 -1.0255
40447SOL     OW27945   3.470  10.410  12.058  0.2091 -0.0765  0.4528
40447SOL    HW127946   3.441  10.455  12.137 -1.8830 -1.5866  0.6261
40447SOL    HW227947   3.560  10.384  12.076 -0.7387 -1.9217  3.1177
40448SOL     OW27948   7.043   2.553   8.239 -0.4404  0.2353 -0.1209
40448SOL    HW127949   6.957   2.571   8.201 -0.3827  0.7043 -0.0473
40448SOL    HW227950   7.085   2.639   8.243 -0.0269  0.0311 -0.0145
40449SOL     OW27951   7.035   1.643   7.908 -0.5563  0.3566  0.2421
40449SOL    HW127952   7.037   1.573   7.843  1.5668  1.6738 -1.2050
40449SOL    HW227953   7.041   1.597   7.992  1.2257 -1.2274 -0.6709
40450SOL     OW27954  10.841   0.715   9.818 -0.0532  0.0120 -0.2500
40450SOL    HW127955  10.759   0.756   9.788  0.3727 -0.3407 -2.0256
40450SOL    HW227956  10.840   0.628   9.777  0.5977 -0.5013  0.7973
40451SOL     OW27957   7.195   7.233   7.124  0.5528 -0.2398 -0.0442
40451SOL    HW127958   7.174   7.199   7.037  0.7134  1.8346 -0.9475
40451SOL    HW227959   7.110   7.251   7.163  0.4981  0.1052 -0.3172
40452SOL     OW27960   6.980   9.647   0.794  0.4688  0.3619 -0.0638
40452SOL    HW127961   6.922   9.720   0.816 -1.0992 -0.4631 -1.2535
40452SOL    HW227962   7.050   9.687   0.742  0.3234  1.2066  0.3769
40453SOL     OW27963   1.051   3.872   4.673 -0.3582 -0.1173 -0.2626
40453SOL    HW127964   1.032   3.860   4.580 -2.0946 -1.5721  0.2336
40453SOL    HW227965   0.976   3.833   4.718  0.9021 -0.3089  1.7706
40454SOL     OW27966   4.001  11.059  10.965  0.3907  0.1918  0.6920
40454SOL    HW127967   4.069  11.021  11.021 -0.8199 -0.7481  1.5722
40454SOL    HW227968   3.938  11.098  11.026 -0.7952 -0.5766 -0.0065
40455SOL     OW27969   8.126   6.037  10.252  0.2155  0.4924 -1.2176
40455SOL    HW127970   8.058   6.077  10.306 -1.0501  1.2128 -3.2631
40455SOL    HW227971   8.156   6.108  10.195  0.3058 -0.6606 -2.6352
40456SOL     OW27972   9.129   8.147  11.336  0.6660 -0.2662 -0.2504
40456SOL    HW127973   9.083   8.165  11.254 -0.8618 -1.1050  0.3630
40456SOL    HW227974   9.215   8.117  11.310  1.1702  1.9752 -1.4547
40457SOL     OW27975  11.902  12.368   2.553 -0.2636 -0.4393  0.1082
40457SOL    HW127976  11.986  12.333   2.583 -0.5981 -1.3824 -0.0182
40457SOL    HW227977  11.919  12.397   2.464  1.0507  3.4985  1.4548
40458SOL     OW27978  11.469   3.657   9.004  0.1864 -0.2342  0.7174
40458SOL    HW127979  11.400   3.724   9.011 -0.5806 -0.8634 -0.4630
40458SOL    HW227980  11.530   3.693   8.939 -0.0270 -0.5016  0.3653
40459SOL     OW27981  10.203   7.417   6.294 -0.5561 -0.4679  0.0604
40459SOL    HW127982  10.210   7.431   6.199  0.8664  2.7144  0.4912
40459SOL    HW227983  10.122   7.461   6.319 -0.2894 -0.1721  0.4311
40460SOL     OW27984  11.856  11.778  10.414 -0.2587  0.0943  0.0124
40460SOL    HW127985  11.906  11.807  10.490  0.5461 -1.2178  0.0139
40460SOL    HW227986  11.868  11.848  10.350 -1.0898  1.2931  1.1167
40461SOL     OW27987   6.338   5.614   1.072  0.2661  0.1750  0.5358
40461SOL    HW127988   6.290   5.611   0.989 -0.8810  2.1290  1.0489
40461SOL    HW227989   6.419   5.566   1.055 -0.3536 -0.2897 -1.4051
40462SOL     OW27990   2.182   6.547   3.624  1.3083  0.3799 -0.0927
40462SOL    HW127991   2.113   6.609   3.597 -0.2297 -1.3082 -0.2263
40462SOL    HW227992   2.222   6.519   3.543  0.5864 -0.3515 -0.2063
40463SOL     OW27993   1.932  10.139  10.089 -0.8818  0.3205 -0.0435
40463SOL    HW127994   1.856  10.084  10.071 -2.0704  1.8097  0.2066
40463SOL    HW227995   1.985  10.088  10.150 -1.2667 -1.0628 -0.8175
40464SOL     OW27996   5.226   7.647  11.093 -0.2237 -0.3699  0.5298
40464SOL    HW127997   5.219   7.698  11.174  2.7599 -1.3202  1.5318
40464SOL    HW227998   5.165   7.574  11.105 -2.2398  1.2050  0.4125
40465SOL     OW27999   6.562  12.222   5.085  0.2901 -0.0419  0.0502
40465SOL    HW128000   6.597  12.137   5.112  0.5934  0.0588 -0.0279
40465SOL    HW228001   6.599  12.237   4.998  2.0943  1.2208  0.9651
40466SOL     OW28002   6.484   5.895  11.069 -0.2909  0.0691  0.2988
40466SOL    HW128003   6.544   5.928  11.136  1.1648 -1.8931  0.0529
40466SOL    HW228004   6.450   5.974  11.027  0.8043  1.2967  1.5709
40467SOL     OW28005   7.501   0.789   0.371 -0.4907 -0.6543  0.2849
40467SOL    HW128006   7.467   0.711   0.414 -2.1673 -0.5012 -0.6934
40467SOL    HW228007   7.592   0.767   0.351  0.4283 -0.7128  3.8385
40468SOL     OW28008   4.897   7.852   9.805  0.3843  0.0433 -0.4741
40468SOL    HW128009   4.930   7.865   9.716 -1.1903  1.4077 -0.9119
40468SOL    HW228010   4.947   7.914   9.858 -1.3804  2.2118 -1.1577
40469SOL     OW28011   6.079   0.501   5.696 -0.2593 -0.0293  0.2053
40469SOL    HW128012   6.138   0.462   5.761 -0.4886 -0.2159  0.3018
40469SOL    HW228013   6.099   0.455   5.615 -0.4464 -0.2644  0.2931
40470SOL     OW28014  12.515   4.487   4.525 -0.4549  0.5790  0.8980
40470SOL    HW128015  12.590   4.524   4.478 -1.3463  1.3240  0.0270
40470SOL    HW228016  12.476   4.426   4.462  1.4062 -2.5531  2.5311
40471SOL     OW28017   5.226   9.051   3.513 -0.8595  0.5688  0.3903
40471SOL    HW128018   5.251   9.098   3.592 -1.0768 -1.3645  1.6714
40471SOL    HW228019   5.308   9.041   3.465 -0.3632  0.1204  1.3043
40472SOL     OW28020   5.045   5.786   0.401  0.3448  0.2525 -0.0793
40472SOL    HW128021   4.968   5.807   0.348  0.8056  0.1164 -0.8222
40472SOL    HW228022   5.061   5.693   0.383  1.0642  0.4413 -0.4453
40473SOL     OW28023  10.628   2.283   8.718  0.1600 -0.0469  0.1156
40473SOL    HW128024  10.682   2.254   8.791 -2.1088 -1.9024  1.1968
40473SOL    HW228025  10.625   2.208   8.659 -1.8715 -0.3592  0.5336
40474SOL     OW28026   1.539  11.720   7.476 -0.1703 -0.0796 -0.5379
40474SOL    HW128027   1.553  11.762   7.390 -3.0549 -0.6854 -1.4041
40474SOL    HW228028   1.483  11.645   7.457 -0.1983 -0.7184  1.8076
40475SOL     OW28029   5.224   0.107   1.781 -0.4111 -0.7319 -0.0585
40475SOL    HW128030   5.230   0.013   1.798  0.2109 -1.0066 -1.5978
40475SOL    HW228031   5.305   0.143   1.816 -1.0588 -0.5889  1.3779
40476SOL     OW28032   1.661   3.242   0.391  0.0452  0.3457 -0.1179
40476SOL    HW128033   1.638   3.284   0.309 -0.9220 -0.7208 -0.4246
40476SOL    HW228034   1.619   3.296   0.458  2.1458  2.1404 -0.1310
40477SOL     OW28035   6.691   1.539   6.694  0.1568 -0.5722  0.3265
40477SOL    HW128036   6.694   1.533   6.599  0.5508  0.2713  0.2757
40477SOL    HW228037   6.714   1.630   6.713 -1.1985 -0.3648  1.1574
40478SOL     OW28038  10.769   6.605  11.645 -0.3984 -0.3815  0.4127
40478SOL    HW128039  10.697   6.605  11.708 -0.0551 -1.4076  0.8175
40478SOL    HW228040  10.726   6.603  11.559 -0.8520 -0.9782  0.6480
40479SOL     OW28041   0.516  12.257   3.910 -0.1045 -0.7190  0.2756
40479SOL    HW128042   0.448  12.303   3.860  1.5469 -0.4414 -1.8513
40479SOL    HW228043   0.500  12.283   4.001 -1.0500  1.6849 -0.5027
40480SOL     OW28044  10.374   8.781  12.165  0.1062  0.0914 -0.5262
40480SOL    HW128045  10.312   8.771  12.093  0.2777  0.7144 -0.7690
40480SOL    HW228046  10.334   8.846  12.222 -0.3867 -0.9534  0.3478
40481SOL     OW28047   9.917   1.225  12.219 -0.3065 -0.0540  0.0045
40481SOL    HW128048   9.971   1.186  12.150  0.2402  0.4741  0.1206
40481SOL    HW228049   9.861   1.154  12.250  1.1966 -0.9509  0.7518
40482SOL     OW28050   6.270  12.433   5.609  0.0732 -0.0222 -0.1772
40482SOL    HW128051   6.248  12.434   5.516 -0.3465 -1.8836 -0.1359
40482SOL    HW228052   6.186  12.418   5.654  0.4400 -0.3408  0.4205
40483SOL     OW28053   8.578   8.597   3.356 -0.0022  0.3250 -0.2958
40483SOL    HW128054   8.651   8.535   3.346 -0.2507 -0.0540  0.1865
40483SOL    HW228055   8.611   8.679   3.319  0.7692  0.2257  0.1368
40484SOL     OW28056  10.408   5.235  12.291  0.2031 -0.2943  0.3095
40484SOL    HW128057  10.338   5.209  12.350  0.3894 -0.6936  0.3529
40484SOL    HW228058  10.436   5.154  12.249  0.7764 -0.1675  0.4412
40485SOL     OW28059   4.829   2.405   6.745  0.1983 -0.3226 -0.5565
40485SOL    HW128060   4.864   2.364   6.824  0.4297 -0.8647 -0.9365
40485SOL    HW228061   4.873   2.360   6.673  0.2560  0.4144 -0.9918
40486SOL     OW28062  11.677  12.125   0.974 -0.1727 -0.8496  0.1214
40486SOL    HW128063  11.704  12.091   1.059 -1.1639 -3.6652 -0.5839
40486SOL    HW228064  11.756  12.167   0.939  0.2379  0.4413  2.3923
40487SOL     OW28065   1.579  11.647  11.137 -0.4547 -0.0899 -0.1481
40487SOL    HW128066   1.652  11.598  11.099  1.1255  0.9427  1.3617
40487SOL    HW228067   1.511  11.646  11.070  1.1809 -0.5863 -1.8835
40488SOL     OW28068  11.547   9.540   6.626 -0.4539  0.0144  0.6347
40488SOL    HW128069  11.601   9.554   6.704  0.7398 -0.7712 -0.0123
40488SOL    HW228070  11.608   9.549   6.553 -1.7048  1.5880 -0.3008
40489SOL     OW28071   6.797   9.724   9.315  0.1676  0.6060  0.1996
40489SOL    HW128072   6.705   9.719   9.291 -0.3858  1.2875  2.0028
40489SOL    HW228073   6.799   9.700   9.408  1.6505  1.7234  0.4925
40490SOL     OW28074   9.556  10.107   5.445 -0.6407 -0.4379  0.5195
40490SOL    HW128075   9.583  10.061   5.366  0.4217 -1.3318  1.3641
40490SOL    HW228076   9.533  10.038   5.507 -0.5112  0.2080  1.3184
40491SOL     OW28077  12.550   1.650   4.312 -0.6080  0.9692  0.3173
40491SOL    HW128078  12.567   1.560   4.286  1.4651  1.3879  0.0806
40491SOL    HW228079  12.542   1.698   4.229  0.8103  1.4054  0.4088
40492SOL     OW28080   5.675   8.500   7.017 -0.2189  0.1591  0.3752
40492SOL    HW128081   5.610   8.570   7.017 -0.5290 -0.1255 -0.4916
40492SOL    HW228082   5.674   8.467   7.107  0.6134  1.8790  1.0715
40493SOL     OW28083   8.926   7.103   8.294 -0.1700 -0.2141 -0.1253
40493SOL    HW128084   8.955   7.020   8.256  0.0346  0.7419 -2.1521
40493SOL    HW228085   8.907   7.081   8.386 -0.7937 -2.6433 -0.7530
40494SOL     OW28086   3.805  10.649   0.261 -0.3800  0.4653  0.1643
40494SOL    HW128087   3.795  10.703   0.339 -1.3724 -0.3307  0.6236
40494SOL    HW228088   3.724  10.597   0.258  0.1870 -0.3966 -0.7074
40495SOL     OW28089   6.342   1.540   8.891 -0.0286 -0.1315  0.3130
40495SOL    HW128090   6.269   1.599   8.873 -0.2514  0.2679  2.3186
40495SOL    HW228091   6.352   1.543   8.986  1.8633 -1.0756  0.1789
40496SOL     OW28092   6.860   3.876   3.040  0.4817 -0.7663  0.3023
40496SOL    HW128093   6.801   3.904   2.970  0.7303 -0.7372  0.1036
40496SOL    HW228094   6.945   3.864   2.996  0.6158 -0.8321  0.5816
40497SOL     OW28095   8.174   4.545   3.720  0.1236  0.1396  0.0497
40497SOL    HW128096   8.156   4.506   3.805 -0.2595 -0.9917 -0.5216
40497SOL    HW228097   8.166   4.639   3.734  1.0499  0.0412  1.4751
40498SOL     OW28098   2.842   2.026   3.824  0.2417 -0.0997 -0.5257
40498SOL    HW128099   2.758   2.069   3.840 -0.7525 -1.9715 -0.3287
40498SOL    HW228100   2.826   1.974   3.745  1.3473 -0.1698 -0.7102
40499SOL     OW28101   7.025   5.250   5.283  0.3083 -0.0479  0.4995
40499SOL    HW128102   7.106   5.212   5.317  2.5183 -0.3417 -4.2550
40499SOL    HW228103   7.038   5.345   5.292  1.2726 -0.0892 -0.2923
40500SOL     OW28104   6.669  10.072   0.847 -0.3867 -0.1783  0.5289
40500SOL    HW128105   6.578  10.050   0.864 -0.3678 -1.6936 -1.0253
40500SOL    HW228106   6.677  10.071   0.751  1.2598 -0.1363  0.6303
40501SOL     OW28107   8.656   4.114   2.847  1.4305  0.2850  0.5235
40501SOL    HW128108   8.704   4.188   2.809 -0.2615  0.3271 -1.7789
40501SOL    HW228109   8.699   4.037   2.811  1.7075  0.2083  1.0079
40502SOL     OW28110   8.987  12.726   2.194  0.1474  0.3474 -0.1409
40502SOL    HW128111   9.059  12.675   2.230 -0.1798 -0.7162 -0.9266
40502SOL    HW228112   9.011  12.742   2.103 -0.5676  0.0092 -0.4035
40503SOL     OW28113   7.384  12.073   6.877 -0.0336 -0.5972 -0.0287
40503SOL    HW128114   7.356  12.091   6.787 -0.9444 -1.1622  0.1321
40503SOL    HW228115   7.480  12.070   6.872 -0.0115  0.6491 -0.7244
40504SOL     OW28116  10.114   9.554  10.758 -0.0063  0.0284  0.3288
40504SOL    HW128117  10.035   9.505  10.778 -1.7956  1.4133 -2.6507
40504SOL    HW228118  10.129   9.608  10.835 -0.9935 -1.3991  1.5771
40505SOL     OW28119   1.001   1.998  10.851 -0.0569  0.0270  0.1339
40505SOL    HW128120   1.074   2.039  10.804  1.4596  0.1714  2.4924
40505SOL    HW228121   1.027   1.907  10.859 -1.1917 -0.4123 -0.8723
40506SOL     OW28122   4.422   6.847   2.438  0.3739  0.0800  0.2394
40506SOL    HW128123   4.477   6.918   2.469  0.5908  0.3273 -0.7106
40506SOL    HW228124   4.337   6.888   2.420  0.1548 -0.1224  0.7643
40507SOL     OW28125  10.978   8.918  12.512 -0.2264  0.3859 -0.2169
40507SOL    HW128126  10.950   8.976  12.583 -0.0294  1.1980 -0.7875
40507SOL    HW228127  10.989   8.976  12.436  0.2070 -0.3616 -0.7423
40508SOL     OW28128   6.082   0.536  11.267 -0.2733 -0.1222 -0.1558
40508SOL    HW128129   6.020   0.524  11.195  0.3389  1.1778 -0.9364
40508SOL    HW228130   6.096   0.448  11.301  1.3792 -1.2363 -3.3258
40509SOL     OW28131  10.047   1.097   8.845  0.2689  0.4142  0.1355
40509SOL    HW128132  10.086   1.043   8.914 -0.7189 -0.5614 -0.0527
40509SOL    HW228133  10.111   1.095   8.774  1.7610  2.2184  1.3168
40510SOL     OW28134  11.930  12.251   6.020  0.1256 -0.2056  0.1897
40510SOL    HW128135  11.968  12.179   6.070  3.3360  1.5701  0.5375
40510SOL    HW228136  11.940  12.328   6.076 -3.2548  0.6520 -0.1342
40511SOL     OW28137  10.840   2.969   0.307 -0.0929  0.4488 -0.1083
40511SOL    HW128138  10.800   2.888   0.276  0.0261  0.5744 -0.6025
40511SOL    HW228139  10.782   3.038   0.276 -0.0745  0.5638  0.1151
40512SOL     OW28140   9.064   1.615   3.603 -0.3048 -0.3416  0.1902
40512SOL    HW128141   9.002   1.643   3.670 -1.9498 -1.5813 -0.7479
40512SOL    HW228142   9.049   1.521   3.594  0.7287 -0.4155 -1.0772
40513SOL     OW28143  12.787  11.417  12.006  0.3469 -0.3059 -0.1497
40513SOL    HW128144  12.870  11.418  11.960  1.5679 -0.3803  1.9301
40513SOL    HW228145  12.810  11.405  12.098 -2.0711 -2.3047  0.3183
40514SOL     OW28146  12.014   8.555   0.643 -0.5830  0.1880 -0.3890
40514SOL    HW128147  12.064   8.612   0.701 -2.2214 -0.9800  2.4097
40514SOL    HW228148  12.063   8.473   0.641 -0.6344  0.1593 -0.5318
40515SOL     OW28149   8.832   4.801   1.871 -0.1608 -0.0218 -0.1650
40515SOL    HW128150   8.744   4.838   1.867  0.2071  1.0917  1.0487
40515SOL    HW228151   8.819   4.709   1.895 -0.9823  0.3954  1.1050
40516SOL     OW28152   1.308   3.877   1.010  0.1568  0.4099 -0.6357
40516SOL    HW128153   1.286   3.941   0.943  1.6144  2.8709  1.0938
40516SOL    HW228154   1.262   3.907   1.089 -0.5253 -1.7169 -0.1323
40517SOL     OW28155   4.720   0.255   8.203  0.2075  0.6524  0.5500
40517SOL    HW128156   4.779   0.321   8.237 -0.9431  2.4152 -0.7188
40517SOL    HW228157   4.632   0.288   8.221 -0.4587  1.1779 -2.9241
40518SOL     OW28158  10.694   8.309   3.360 -0.1214  0.1404  0.2704
40518SOL    HW128159  10.724   8.384   3.309 -1.9131  0.9132  0.2693
40518SOL    HW228160  10.617   8.277   3.313  1.0896 -2.2750 -0.1963
40519SOL     OW28161   6.695  11.987   6.837 -0.1110  0.2657 -0.7041
40519SOL    HW128162   6.777  11.977   6.789 -0.4568 -1.8453 -0.9424
40519SOL    HW228163   6.627  11.955   6.777 -1.1541  2.0479 -0.5468
40520SOL     OW28164  11.046   4.871   8.705 -0.1805  0.3307 -0.4462
40520SOL    HW128165  11.114   4.861   8.638 -0.9179  1.3991 -1.4008
40520SOL    HW228166  11.043   4.786   8.749  2.4422  0.5472  0.3206
40521SOL     OW28167   2.142   9.874   2.630  0.0386  0.6373 -0.8245
40521SOL    HW128168   2.055   9.845   2.605  0.0101  1.3875 -1.6284
40521SOL    HW228169   2.137   9.887   2.725 -0.6087  0.3261 -0.8106
40522SOL     OW28170   1.090   8.257  11.783  0.3139  0.0172  0.4110
40522SOL    HW128171   0.995   8.258  11.787  0.3455  0.6343  1.3900
40522SOL    HW228172   1.117   8.224  11.869  0.9751 -1.2039 -0.2347
40523SOL     OW28173   9.259   8.399   6.051 -0.1484  0.0507 -0.3998
40523SOL    HW128174   9.303   8.399   6.136 -0.9349 -0.3300  0.0185
40523SOL    HW228175   9.178   8.349   6.066  0.8132 -2.1360 -1.9529
40524SOL     OW28176   9.608   9.324   3.910  0.0633 -0.0533  0.1488
40524SOL    HW128177   9.684   9.341   3.965  0.0065  0.4769  0.0666
40524SOL    HW228178   9.644   9.290   3.828  0.3963  2.3821 -0.7866
40525SOL     OW28179  10.642   7.293   3.799  0.1149 -0.4206 -0.1210
40525SOL    HW128180  10.686   7.366   3.755 -0.2648 -0.8388 -1.2014
40525SOL    HW228181  10.550   7.303   3.776 -0.0235 -0.9081  0.2147
40526SOL     OW28182   0.247  10.932   0.368 -0.3179  0.1899 -0.2232
40526SOL    HW128183   0.206  10.854   0.329  0.3293  0.1926 -0.9389
40526SOL    HW228184   0.192  10.953   0.443 -1.0149 -0.4297 -0.5464
40527SOL     OW28185   2.600   8.273   5.397 -0.2734  0.0675  0.3619
40527SOL    HW128186   2.638   8.280   5.485  1.0049 -1.1773 -0.0584
40527SOL    HW228187   2.639   8.345   5.348  0.1220 -0.1063  0.4235
40528SOL     OW28188   4.021  10.276   6.007 -0.3007 -0.0607  0.0864
40528SOL    HW128189   3.946  10.305   5.954 -0.3927  1.1609  0.8555
40528SOL    HW228190   4.000  10.305   6.096  0.4151 -1.0219  0.5869
40529SOL     OW28191  12.475   9.788   0.792 -0.0676 -0.2920 -0.3558
40529SOL    HW128192  12.421   9.765   0.716  1.6815 -1.5265 -1.3020
40529SOL    HW228193  12.556   9.822   0.754  0.7322 -0.6564  0.9729
40530SOL     OW28194   0.937   0.209  10.304 -0.1911 -0.5390  0.5916
40530SOL    HW128195   0.977   0.251  10.380 -1.4835  1.0923  0.4265
40530SOL    HW228196   0.989   0.239  10.229 -2.0854  2.3233  0.2686
40531SOL     OW28197   0.210   1.861   4.200 -0.5548 -0.8988 -0.7100
40531SOL    HW128198   0.144   1.820   4.256 -0.6918  0.6875  0.3480
40531SOL    HW228199   0.165   1.872   4.116 -0.8005 -2.0493 -0.7522
40532SOL     OW28200  11.225   7.033  10.015 -0.2587  0.1447 -0.6103
40532SOL    HW128201  11.301   7.007   9.963  0.6664 -0.4550  0.9914
40532SOL    HW228202  11.152   7.032   9.952  1.0134  0.6867 -2.1700
40533SOL     OW28203   1.915  10.276   3.970  0.0319 -0.6913 -0.6939
40533SOL    HW128204   1.979  10.347   3.979 -2.1132  1.0694  2.2741
40533SOL    HW228205   1.862  10.301   3.895  0.9634 -0.6795 -1.3782
40534SOL     OW28206   5.922   7.650   3.967 -0.3426 -0.4070 -0.1762
40534SOL    HW128207   5.963   7.588   3.907  1.8628  1.4427 -0.7357
40534SOL    HW228208   5.991   7.672   4.029 -0.8139  1.8761 -0.3570
40535SOL     OW28209  11.890   0.595  12.445  0.2754  0.4880 -0.1161
40535SOL    HW128210  11.838   0.530  12.397  1.4037 -0.9203  0.4912
40535SOL    HW228211  11.908   0.554  12.530  0.5386  1.8474  0.5183
40536SOL     OW28212   1.642  12.111   4.789 -0.5936 -0.2485  0.2085
40536SOL    HW128213   1.710  12.152   4.841  0.3642  0.2621 -1.3820
40536SOL    HW228214   1.572  12.176   4.786  0.6689  1.1167 -1.7875
40537SOL     OW28215  11.234   0.594   5.646  0.0432  0.2496 -0.1074
40537SOL    HW128216  11.168   0.532   5.679  0.9907 -0.6211  0.2173
40537SOL    HW228217  11.190   0.678   5.645 -1.5983 -0.5742 -1.4488
40538SOL     OW28218   3.615   7.967   5.881 -0.0916  0.1887  0.9901
40538SOL    HW128219   3.580   7.883   5.851 -0.5003  1.0911 -1.2426
40538SOL    HW228220   3.691   7.983   5.824  0.8282  0.7031  2.3088
40539SOL     OW28221   8.071   5.674   0.461  0.6970  0.0545  0.0591
40539SOL    HW128222   8.011   5.669   0.387 -0.2535  0.7293  0.7562
40539SOL    HW228223   8.046   5.601   0.517  3.3305 -2.2875 -1.5951
40540SOL     OW28224   6.577   3.147   1.387  0.3532 -0.3502  0.2618
40540SOL    HW128225   6.482   3.145   1.387  0.3283  0.0407 -0.8536
40540SOL    HW228226   6.601   3.186   1.471 -0.3890 -2.4012  1.4834
40541SOL     OW28227   8.805   9.477   5.997  0.3601  0.6170  0.1741
40541SOL    HW128228   8.807   9.469   6.092 -1.0078  0.3712  0.1987
40541SOL    HW228229   8.851   9.399   5.965 -1.3424 -0.6195  0.6202
40542SOL     OW28230   0.172   6.769   1.231  0.4542 -0.3183 -0.1342
40542SOL    HW128231   0.082   6.771   1.198  0.3330  3.3229  0.0195
40542SOL    HW228232   0.223   6.732   1.159 -1.0276 -1.9338 -0.4314
40543SOL     OW28233   2.258   2.912   1.506  0.3093 -0.4158 -0.2132
40543SOL    HW128234   2.307   2.967   1.567  0.3285  1.3759 -1.7589
40543SOL    HW228235   2.180   2.962   1.485 -0.3173 -1.5570 -0.7026
40544SOL     OW28236   5.697  11.963   2.078  0.2593  0.0581  0.1731
40544SOL    HW128237   5.756  12.017   2.026 -1.4267 -0.2170 -2.1714
40544SOL    HW228238   5.616  12.013   2.082 -0.0591 -0.5256  1.4923
40545SOL     OW28239   5.833   3.737  12.563  0.1510  0.2763 -0.9156
40545SOL    HW128240   5.923   3.754  12.535 -0.1715  4.3227 -0.0824
40545SOL    HW228241   5.779   3.789  12.504 -1.4103  0.0536  0.2413
40546SOL     OW28242   3.591   9.077   2.994  0.2980 -0.4172  0.9935
40546SOL    HW128243   3.610   9.068   3.087  3.3357 -0.8546  0.4233
40546SOL    HW228244   3.527   9.009   2.976  2.2681 -2.7270  2.1435
40547SOL     OW28245   6.447   9.544   7.374 -0.0863 -0.1195 -0.3632
40547SOL    HW128246   6.541   9.546   7.354 -0.1097  0.9184 -0.3945
40547SOL    HW228247   6.416   9.631   7.351 -0.8766 -0.1479  0.5763
40548SOL     OW28248   7.890   7.820  10.473  0.1406  0.4478  0.2222
40548SOL    HW128249   7.960   7.876  10.441 -1.3944  2.8128  0.7633
40548SOL    HW228250   7.854   7.780  10.394  1.8761 -0.6403 -0.0797
40549SOL     OW28251   0.281  11.195   2.872 -0.0010 -0.1289  0.1069
40549SOL    HW128252   0.198  11.155   2.899  1.0972 -1.5280  1.5930
40549SOL    HW228253   0.313  11.138   2.802  0.0466  0.0096  0.0145
40550SOL     OW28254   3.475   7.462  10.475  0.8156  0.1175  0.0852
40550SOL    HW128255   3.528   7.496  10.403 -0.7969 -0.6083 -1.5234
40550SOL    HW228256   3.422   7.537  10.503 -0.5347 -0.2094 -1.4076
40551SOL     OW28257  10.543  11.650   4.648  0.5158  0.2483 -0.0714
40551SOL    HW128258  10.582  11.650   4.736 -1.3072 -1.3377  0.8070
40551SOL    HW228259  10.483  11.724   4.649  0.3586  0.1194  0.0923
40552SOL     OW28260  12.312  12.194   5.283 -0.0553  0.3465  0.0558
40552SOL    HW128261  12.384  12.182   5.220  1.6228  0.3518  1.8880
40552SOL    HW228262  12.253  12.121   5.266  0.9792 -0.3435 -0.7064
40553SOL     OW28263   1.713  12.441   0.485  0.0534 -0.8116  0.1399
40553SOL    HW128264   1.715  12.536   0.467  1.0830 -1.0236 -0.9693
40553SOL    HW228265   1.626  12.414   0.456  0.0398 -0.3316 -0.2974
40554SOL     OW28266   8.711  11.861   6.956  0.2443  0.1632  0.7493
40554SOL    HW128267   8.704  11.898   6.867 -0.9766  1.1326  1.2289
40554SOL    HW228268   8.691  11.769   6.945  0.9762  0.0835 -0.1067
40555SOL     OW28269   1.323   2.292   4.315  0.2135  0.3834  0.2183
40555SOL    HW128270   1.342   2.237   4.238 -0.5761 -0.8060  0.8313
40555SOL    HW228271   1.385   2.364   4.309  0.4766  0.0774 -1.2923
40556SOL     OW28272   0.113   0.316   9.858 -0.3043 -0.2618 -0.4679
40556SOL    HW128273   0.106   0.394   9.914 -1.8248 -0.2845 -0.5852
40556SOL    HW228274   0.206   0.296   9.857 -0.2614 -0.8617  2.9235
40557SOL     OW28275   4.377   0.876   7.903 -0.1939  0.2668  0.1807
40557SOL    HW128276   4.348   0.791   7.870 -0.0148 -0.1985  1.1969
40557SOL    HW228277   4.303   0.934   7.885 -1.4849 -0.7215  1.9765
40558SOL     OW28278   5.149   9.779   6.766  0.3151 -0.2319  0.6467
40558SOL    HW128279   5.091   9.852   6.746 -0.7063 -1.3940 -0.8020
40558SOL    HW228280   5.091   9.710   6.798  1.1716 -0.6846  1.2742
40559SOL     OW28281   1.696  12.729   6.324 -0.5206  0.4003 -0.0672
40559SOL    HW128282   1.781  12.704   6.360 -0.2740  1.6481  0.2502
40559SOL    HW228283   1.689  12.823   6.341 -1.3665  0.5867 -1.3242
40560SOL     OW28284   1.554   8.133   1.230 -0.3540 -0.3641  0.2212
40560SOL    HW128285   1.512   8.210   1.191  1.4215 -0.6576 -2.5868
40560SOL    HW228286   1.520   8.059   1.180  1.1371 -0.8958 -0.0825
40561SOL     OW28287   0.977   3.902   9.196 -0.4380  0.5430 -0.2130
40561SOL    HW128288   0.987   3.983   9.246  1.4633  0.0664  0.2763
40561SOL    HW228289   1.037   3.913   9.122 -0.3608 -0.3130 -0.2817
40562SOL     OW28290   8.249  12.615  11.417 -0.5042 -0.5197 -0.8465
40562SOL    HW128291   8.195  12.568  11.353  2.3386 -1.5201 -2.7441
40562SOL    HW228292   8.322  12.650  11.365  2.4160 -2.0438  1.8792
40563SOL     OW28293  12.495   1.210   2.429  0.4786  0.3757  0.4911
40563SOL    HW128294  12.575   1.213   2.376 -0.3194  0.2365 -0.7487
40563SOL    HW228295  12.481   1.300   2.456 -1.0714  1.2005 -2.6129
40564SOL     OW28296   4.522   8.499   1.711 -0.1255 -0.3292 -0.1054
40564SOL    HW128297   4.449   8.497   1.772  0.8014  1.4312  1.1708
40564SOL    HW228298   4.482   8.506   1.625 -1.4496 -0.6833  0.4574
40565SOL     OW28299   9.810   7.803   0.010 -0.3676 -0.1178  1.0267
40565SOL    HW128300   9.863   7.736  -0.032 -1.2218 -0.3408  0.2555
40565SOL    HW228301   9.738   7.755   0.050  0.2560  0.1311  2.4903
40566SOL     OW28302   8.710   1.114   5.040  0.8399 -0.0188 -0.6024
40566SOL    HW128303   8.642   1.065   4.994  0.1951 -0.3953  0.6834
40566SOL    HW228304   8.756   1.047   5.093  1.4448  0.4133 -0.5712
40567SOL     OW28305   4.004  11.202   9.358  0.4805  0.4168  0.7737
40567SOL    HW128306   4.044  11.246   9.283  2.3100  0.0481  1.5001
40567SOL    HW228307   4.021  11.261   9.432 -0.4494  0.3053  1.0910
40568SOL     OW28308   8.118   1.736   5.413 -0.2984  0.1223  0.4171
40568SOL    HW128309   8.046   1.751   5.352  0.3165  1.6133  0.0194
40568SOL    HW228310   8.083   1.675   5.477 -2.1944  1.4520  0.7245
40569SOL     OW28311   5.597  12.490   7.654 -0.4097  0.2983 -0.0493
40569SOL    HW128312   5.531  12.536   7.706 -1.0453  2.2931 -2.3989
40569SOL    HW228313   5.621  12.552   7.586  2.9366 -0.8913 -0.1369
40570SOL     OW28314   2.613   7.439   1.443  0.5873  0.1033  0.2052
40570SOL    HW128315   2.577   7.378   1.507 -0.2530 -0.6264 -0.9193
40570SOL    HW228316   2.682   7.486   1.490 -0.5642  0.1954  1.8795
40571SOL     OW28317  11.893   6.777   7.864 -0.6806  0.1681 -0.4091
40571SOL    HW128318  11.884   6.762   7.958 -2.1730 -0.1054 -0.5701
40571SOL    HW228319  11.985   6.803   7.852 -0.5854  0.6564  1.1689
40572SOL     OW28320   1.323   5.050   5.163  0.2475 -0.1817 -0.3750
40572SOL    HW128321   1.235   5.011   5.169  0.1205 -0.2797 -2.3531
40572SOL    HW228322   1.382   4.975   5.160  0.2766 -0.1501 -0.5967
40573SOL     OW28323   9.925  12.263   5.691 -0.0119  0.8327  0.0110
40573SOL    HW128324   9.855  12.254   5.626  0.9845 -0.2049 -0.9748
40573SOL    HW228325   9.890  12.221   5.770 -0.0818 -0.8114 -0.8456
40574SOL     OW28326   5.036   0.418   3.116  0.2658 -0.2510 -0.2830
40574SOL    HW128327   5.076   0.337   3.086  0.4805 -0.0651 -0.5128
40574SOL    HW228328   4.946   0.395   3.139  0.1508 -0.4333 -0.9088
40575SOL     OW28329   9.747   9.400  10.155 -0.5603  0.0264  0.1380
40575SOL    HW128330   9.793   9.366  10.232  0.0975  0.8037  0.1004
40575SOL    HW228331   9.782   9.489  10.144 -0.2462 -0.2672 -1.3882
40576SOL     OW28332  10.318   3.067   1.430  0.1109 -0.5317 -0.0444
40576SOL    HW128333  10.382   3.038   1.366 -0.6008  0.0117 -1.0184
40576SOL    HW228334  10.344   3.157   1.452  0.7301 -0.9295  0.9407
40577SOL     OW28335  12.199   8.145  11.274  0.2935  0.0086  0.2428
40577SOL    HW128336  12.141   8.069  11.273  0.9714 -0.6239  2.4856
40577SOL    HW228337  12.286   8.108  11.294  1.2767  1.0714 -1.7324
40578SOL     OW28338   5.193  12.010  10.199 -0.2558  0.3376  0.1930
40578SOL    HW128339   5.116  12.044  10.154  1.5365  0.3140 -3.1923
40578SOL    HW228340   5.207  12.070  10.272 -1.3304  2.5745 -1.3404
40579SOL     OW28341   7.288  10.556  12.480  0.0124  0.1251  1.0571
40579SOL    HW128342   7.223  10.617  12.444  1.6988  0.8851 -0.8840
40579SOL    HW228343   7.327  10.604  12.553  0.8623  1.1899 -0.0448
40580SOL     OW28344   0.973   7.767   9.866  0.2943  0.3794 -0.2689
40580SOL    HW128345   0.964   7.792   9.958  0.0269 -1.6727  0.3054
40580SOL    HW228346   0.888   7.731   9.842  0.7480 -0.2758 -0.9297
40581SOL     OW28347   3.210   6.411   1.508 -0.5310  0.2159 -0.1968
40581SOL    HW128348   3.168   6.441   1.427 -0.7582 -1.5131 -0.7616
40581SOL    HW228349   3.298   6.386   1.482 -1.2330 -2.3001 -0.4075
40582SOL     OW28350   1.168   8.532   1.280 -0.2641 -0.0274  0.2886
40582SOL    HW128351   1.176   8.593   1.353  2.5800  0.0725  0.0114
40582SOL    HW228352   1.212   8.575   1.207 -3.6877  0.2073 -1.8623
40583SOL     OW28353   6.413  11.630   0.783 -0.2538 -0.4034 -0.3578
40583SOL    HW128354   6.323  11.620   0.813 -0.3294  1.4095  0.1441
40583SOL    HW228355   6.465  11.630   0.863 -0.2520  2.4376 -0.2553
40584SOL     OW28356   2.247  11.173   7.544  0.2768  0.2517  0.2673
40584SOL    HW128357   2.180  11.205   7.603 -0.4095 -0.3214 -0.1811
40584SOL    HW228358   2.203  11.166   7.459  0.6902 -0.8324  0.1213
40585SOL     OW28359   8.299   3.766   2.627 -0.0057  0.2629 -0.4019
40585SOL    HW128360   8.367   3.716   2.672  0.5591 -0.2046 -1.7360
40585SOL    HW228361   8.225   3.765   2.688  1.8557  2.7627  2.1722
40586SOL     OW28362  11.967   8.936   8.118 -0.8183  0.1455 -0.1681
40586SOL    HW128363  11.929   8.878   8.052  1.9798 -0.6156 -1.2558
40586SOL    HW228364  11.985   9.017   8.071  2.2847 -0.7962 -0.8223
40587SOL     OW28365   6.996   4.367   9.340 -0.4956  0.9853  0.2216
40587SOL    HW128366   6.925   4.336   9.285 -0.3871  0.8377  0.1623
40587SOL    HW228367   6.970   4.455   9.367  0.7544  2.2784 -2.4400
40588SOL     OW28368  12.435   1.609  10.520 -0.7580  0.1982  0.5808
40588SOL    HW128369  12.505   1.598  10.456 -0.2886  0.2426  1.0816
40588SOL    HW228370  12.408   1.519  10.541 -0.2484  0.1466  1.0402
40589SOL     OW28371   1.327   7.372  10.467  0.0491  0.0900 -0.2856
40589SOL    HW128372   1.237   7.397  10.446 -0.0993 -0.6503 -0.5809
40589SOL    HW228373   1.326   7.276  10.468  0.4256  0.0626  1.5237
40590SOL     OW28374   6.927   3.943   5.034  0.3564  1.1453  0.1367
40590SOL    HW128375   7.019   3.927   5.055 -0.2095 -1.3276  1.1289
40590SOL    HW228376   6.880   3.917   5.113 -1.3129  0.1856 -1.1036
40591SOL     OW28377   1.243  12.624   3.339 -0.3564  0.1470 -0.4756
40591SOL    HW128378   1.213  12.617   3.248  0.1684 -0.0712 -0.6348
40591SOL    HW228379   1.221  12.714   3.364  3.7855  1.9338 -2.3959
40592SOL     OW28380   1.659   2.243   4.427  0.0238 -0.1770  0.7773
40592SOL    HW128381   1.653   2.326   4.381 -0.0204  0.9553  2.7359
40592SOL    HW228382   1.752   2.221   4.426  0.2164  0.5876  1.4020
40593SOL     OW28383  12.139  11.550  11.810 -0.3300 -0.4339  0.5734
40593SOL    HW128384  12.147  11.602  11.891  0.7594 -0.8407  0.7431
40593SOL    HW228385  12.134  11.459  11.840  0.5815 -0.6257  0.1700
40594SOL     OW28386   5.995   6.001   9.760  0.0456  0.5242 -0.7927
40594SOL    HW128387   5.913   5.998   9.712  0.0129  0.9296 -0.7647
40594SOL    HW228388   6.010   5.910   9.787 -0.0787  0.3399 -1.3200
40595SOL     OW28389  12.296   2.355  11.586  0.4849  0.2144 -0.9540
40595SOL    HW128390  12.206   2.350  11.552 -0.0522  1.4699  0.1682
40595SOL    HW228391  12.286   2.344  11.681  1.6753 -0.8359 -0.9180
40596SOL     OW28392   7.351   0.875   4.305  0.1643 -0.5122 -0.7622
40596SOL    HW128393   7.293   0.821   4.360 -0.0632  0.2535 -0.2400
40596SOL    HW228394   7.379   0.946   4.363  3.9550 -2.3479 -0.0384
40597SOL     OW28395  10.405  10.975  12.088 -0.3063 -0.1592 -0.0047
40597SOL    HW128396  10.421  10.965  11.994  0.2797  0.5869  0.0035
40597SOL    HW228397  10.476  10.926  12.130  1.2804  2.0137  0.0286
40598SOL     OW28398  11.789   3.441   8.975  0.5083 -0.2226 -0.1010
40598SOL    HW128399  11.764   3.397   8.894  1.3118  1.0061 -1.0618
40598SOL    HW228400  11.707   3.454   9.022  0.1884 -2.1730 -0.0456
40599SOL     OW28401   0.028   1.065   4.771  0.9620 -0.6342 -0.0050
40599SOL    HW128402   0.118   1.042   4.746  0.7074 -0.7029 -0.8694
40599SOL    HW228403  -0.018   0.981   4.774  0.7411 -0.5193 -0.2856
40600SOL     OW28404  12.226   8.986   1.544  0.0631 -0.9061 -0.4015
40600SOL    HW128405  12.275   9.024   1.471 -0.3586  0.7967  0.1710
40600SOL    HW228406  12.275   9.011   1.622  1.4085 -4.0308 -0.0629
40601SOL     OW28407   3.964   8.072  12.597 -0.3743 -0.0581 -0.3798
40601SOL    HW128408   3.970   8.001  12.660  1.3400  1.0425  0.7698
40601SOL    HW228409   4.025   8.048  12.527  0.7262  0.5361  0.3363
40602SOL     OW28410  12.263  10.678   3.518  0.5390 -0.1017 -0.5483
40602SOL    HW128411  12.230  10.728   3.592  0.6428 -1.2201  0.2955
40602SOL    HW228412  12.357  10.671   3.535  0.9092  1.2790 -1.8277
40603SOL     OW28413   4.600  10.205   1.553 -0.4140 -0.0706 -0.7777
40603SOL    HW128414   4.557  10.291   1.552  0.8378  0.5792 -0.1830
40603SOL    HW228415   4.543  10.151   1.609 -1.3989  0.2419 -1.4369
40604SOL     OW28416   2.776  10.474   6.039 -0.5169  0.4504  0.0996
40604SOL    HW128417   2.794  10.445   5.950  0.4315 -0.7570  0.6576
40604SOL    HW228418   2.708  10.541   6.029  0.9998  1.8235 -1.6905
40605SOL     OW28419   5.069   8.743   7.495  0.3555 -0.1692  0.0643
40605SOL    HW128420   4.976   8.743   7.520  0.5880  2.1873  1.2258
40605SOL    HW228421   5.076   8.673   7.430 -1.9054 -1.4323  1.0568
40606SOL     OW28422   2.560  12.385   1.372  0.5117  0.5062  0.7715
40606SOL    HW128423   2.579  12.441   1.297 -1.6061  0.1345 -0.1255
40606SOL    HW228424   2.519  12.443   1.435 -2.9941 -0.1074 -0.7131
40607SOL     OW28425   1.169   1.367   6.680 -0.4062  0.2126  0.1333
40607SOL    HW128426   1.205   1.314   6.608 -1.9837  1.3184 -1.5399
40607SOL    HW228427   1.086   1.325   6.701 -0.6716  0.7958  0.2570
40608SOL     OW28428   4.107   0.849   5.690  0.1339  0.4550  0.2948
40608SOL    HW128429   4.119   0.754   5.688  0.3846  0.4285  1.7659
40608SOL    HW228430   4.196   0.885   5.696  0.2209  0.9388 -2.4088
40609SOL     OW28431   5.129   6.329   2.304 -0.3629 -0.5291 -0.0843
40609SOL    HW128432   5.177   6.411   2.314 -0.2362 -0.5270 -0.6944
40609SOL    HW228433   5.154   6.277   2.381  0.6060 -0.5225 -0.3762
40610SOL     OW28434   1.099   1.144   5.513  0.4385 -0.1834 -0.2031
40610SOL    HW128435   1.188   1.140   5.478 -0.0376 -0.9807 -1.3734
40610SOL    HW228436   1.106   1.103   5.600  1.5285  1.3628  0.4841
40611SOL     OW28437  10.969  10.710   3.831  0.1343  0.4422 -0.0817
40611SOL    HW128438  10.971  10.798   3.867 -0.9175  1.0667 -1.4426
40611SOL    HW228439  11.042  10.708   3.768  0.7980 -0.0228  0.6791
40612SOL     OW28440   3.085   1.681   6.546  0.5805 -0.4290  0.5364
40612SOL    HW128441   2.989   1.689   6.544  0.6227  1.2065 -3.2307
40612SOL    HW228442   3.105   1.610   6.485  1.8097 -1.5532  2.1596
40613SOL     OW28443   5.771   5.893   8.721 -0.5426 -0.1442  0.4017
40613SOL    HW128444   5.712   5.818   8.718  0.5984 -1.0497 -0.6622
40613SOL    HW228445   5.716   5.966   8.750 -2.0117 -1.0866  0.0905
40614SOL     OW28446   7.311   5.021   9.577 -0.0464 -0.1272 -0.8063
40614SOL    HW128447   7.261   5.069   9.511  0.5353  1.1016 -0.3650
40614SOL    HW228448   7.335   5.086   9.642 -0.3586 -1.2770  0.4946
40615SOL     OW28449   6.692   8.402   2.965  0.0555  0.2552 -0.2942
40615SOL    HW128450   6.624   8.346   3.002 -0.8059  2.0632  1.0192
40615SOL    HW228451   6.742   8.345   2.907 -1.2052 -1.6637  0.4319
40616SOL     OW28452   0.075  11.063   0.571  0.1054  0.0406 -0.2104
40616SOL    HW128453  -0.012  11.083   0.607  0.5148 -0.1809  0.9300
40616SOL    HW228454   0.134  11.066   0.646  0.8498 -1.3327 -0.7055
40617SOL     OW28455  12.079   7.406   1.216  0.0760 -0.5236  0.4124
40617SOL    HW128456  12.128   7.478   1.177 -0.2118  0.8853  2.4372
40617SOL    HW228457  12.146   7.350   1.256  0.2503 -0.8465 -0.3299
40618SOL     OW28458  10.735   4.138   7.584 -0.2259  0.0196 -0.1410
40618SOL    HW128459  10.825   4.165   7.601  0.0065 -0.5596 -0.4222
40618SOL    HW228460  10.735   4.113   7.492 -0.5237 -0.5462  0.0074
40619SOL     OW28461   6.584   4.007  11.957 -0.4172  0.2187  0.4589
40619SOL    HW128462   6.623   4.081  11.910 -1.9185  0.0333 -1.2000
40619SOL    HW228463   6.658   3.957  11.990  0.6338  1.9750  0.8438
40620SOL     OW28464  11.694   2.355   6.456 -0.9201 -0.9821  0.1690
40620SOL    HW128465  11.656   2.389   6.537 -0.8359  0.9402 -0.5283
40620SOL    HW228466  11.690   2.429   6.395  0.0092 -2.0391 -1.2493
40621SOL     OW28467   0.751   3.242   8.625  0.7447  0.1018  0.5329
40621SOL    HW128468   0.816   3.310   8.642  1.2744 -1.0452  3.7332
40621SOL    HW228469   0.792   3.186   8.559  1.3905  1.3792 -0.2107
40622SOL     OW28470   1.314   5.384   8.636 -0.0010 -0.3581 -0.3072
40622SOL    HW128471   1.410   5.386   8.627  0.9383 -4.4872  4.5827
40622SOL    HW228472   1.288   5.304   8.590 -0.6133 -0.8067  0.7961
40623SOL     OW28473  12.085  10.189   4.820  0.2245  0.3908 -0.5160
40623SOL    HW128474  12.032  10.263   4.850 -0.4105  0.0273 -0.7114
40623SOL    HW228475  12.038  10.112   4.853  1.2836  0.0878  0.3534
40624SOL     OW28476   3.842   4.016   4.334  1.2558  0.0388  0.1257
40624SOL    HW128477   3.884   4.021   4.248  0.4788 -1.3862 -0.3724
40624SOL    HW228478   3.748   4.027   4.315  1.2072  1.5660  1.0330
40625SOL     OW28479   9.171  11.174   0.505  0.0882  0.4052 -0.0027
40625SOL    HW128480   9.197  11.223   0.427  0.4223 -1.0192 -0.8166
40625SOL    HW228481   9.252  11.132   0.534 -0.3158 -0.1519  0.3279
40626SOL     OW28482   1.469   1.139  11.291 -0.2170  0.3548  0.1252
40626SOL    HW128483   1.437   1.126  11.380 -2.1914 -0.8440 -0.6891
40626SOL    HW228484   1.405   1.197  11.250  0.6964  0.9458 -0.5098
40627SOL     OW28485  10.301   0.664  11.990  0.1484  0.6820 -0.0533
40627SOL    HW128486  10.371   0.654  12.055  0.1911  1.6738  0.0655
40627SOL    HW228487  10.299   0.580  11.944 -0.5845 -0.4483  1.8992
40628SOL     OW28488   3.362   0.855   5.653  0.2319  0.1789  0.7689
40628SOL    HW128489   3.307   0.781   5.678 -0.5592 -0.8036 -3.1638
40628SOL    HW228490   3.316   0.932   5.687  0.6190 -0.9303  4.1799
40629SOL     OW28491   0.999   9.893   6.790  0.6379  0.6078 -0.0487
40629SOL    HW128492   1.007   9.820   6.729 -2.3030  0.6637 -0.6644
40629SOL    HW228493   0.949   9.857   6.864  0.1434  1.6725  0.1567
40630SOL     OW28494   5.336   6.498   3.631  0.0470 -1.1989 -0.3007
40630SOL    HW128495   5.389   6.577   3.627 -0.6372 -0.7077  0.0954
40630SOL    HW228496   5.311   6.481   3.541  0.5640 -1.2250 -0.4444
40631SOL     OW28497   8.465   8.074   9.687 -0.1333  0.6132 -0.1878
40631SOL    HW128498   8.426   8.001   9.736 -0.9508  1.7108  0.8688
40631SOL    HW228499   8.504   8.129   9.755 -1.3261  2.2108 -0.7564
40632SOL     OW28500   1.869  12.112   2.817  0.5381  0.1834  0.0757
40632SOL    HW128501   1.834  12.194   2.781  1.0602 -0.6557 -2.5561
40632SOL    HW228502   1.791  12.059   2.837  0.2271  0.4497 -0.4191
40633SOL     OW28503  10.576   7.956  12.048 -0.0533 -0.7575 -0.7666
40633SOL    HW128504  10.597   7.871  12.086  0.3462  0.4888  2.0722
40633SOL    HW228505  10.499   7.986  12.097  0.1353  0.7136 -1.3153
40634SOL     OW28506  12.567   8.782   7.136 -0.0563  0.3115 -0.2160
40634SOL    HW128507  12.542   8.853   7.195 -0.1044  0.6011 -0.5787
40634SOL    HW228508  12.654   8.807   7.105  0.2739 -0.1976  0.2788
40635SOL     OW28509  12.126  12.504   6.872 -0.2105 -0.0385  0.2114
40635SOL    HW128510  12.106  12.547   6.790  2.1009 -0.5325 -0.6824
40635SOL    HW228511  12.052  12.445   6.887 -1.4198  1.2107 -0.6522
40636SOL     OW28512   4.634   3.152   6.407 -0.0447 -0.3578  0.2576
40636SOL    HW128513   4.619   3.113   6.494  1.3666 -0.7254  0.3541
40636SOL    HW228514   4.675   3.082   6.356 -2.3379 -0.6979 -1.2631
40637SOL     OW28515   0.293   3.355   7.993 -0.1504 -0.1395  0.2961
40637SOL    HW128516   0.232   3.340   7.921  1.5704  0.1744 -1.2890
40637SOL    HW228517   0.240   3.341   8.072 -1.5369 -2.9418 -0.9803
40638SOL     OW28518  12.185  12.020   4.996 -0.3492 -0.1731 -0.3512
40638SOL    HW128519  12.145  12.100   4.961  1.0388  0.2475 -1.0277
40638SOL    HW228520  12.219  11.974   4.919 -1.6435 -1.7498 -0.0423
40639SOL     OW28521   4.652   6.247   3.272 -0.5351  0.3269 -0.5700
40639SOL    HW128522   4.631   6.308   3.202 -0.1342  0.0486 -0.9369
40639SOL    HW228523   4.602   6.169   3.252  0.9334 -0.4143 -1.5615
40640SOL     OW28524   6.594  11.034   9.274 -0.5272  0.0977 -0.1719
40640SOL    HW128525   6.574  10.986   9.354  0.0183 -1.7198 -1.0776
40640SOL    HW228526   6.673  11.084   9.294  0.6759 -1.7628 -0.0752
40641SOL     OW28527   7.794  12.218   2.805 -0.3481  0.5342 -0.5833
40641SOL    HW128528   7.699  12.218   2.813 -0.3530  2.8779  0.3474
40641SOL    HW228529   7.826  12.205   2.895  0.1429  1.2187 -0.6441
40642SOL     OW28530   2.901   3.726  11.189  0.1697  0.4430  0.0982
40642SOL    HW128531   2.909   3.784  11.113  0.8878  0.0413 -0.1452
40642SOL    HW228532   2.899   3.785  11.264  2.3905  0.7695 -0.0360
40643SOL     OW28533   1.541  10.606   6.890 -0.1080  0.4810 -0.0289
40643SOL    HW128534   1.613  10.657   6.927 -0.3041  1.2300 -0.6469
40643SOL    HW228535   1.580  10.522   6.865  0.0800  0.0533  1.6011
40644SOL     OW28536   4.426   2.296   8.563  0.2057  0.0169  0.0606
40644SOL    HW128537   4.439   2.234   8.634 -0.0884 -1.0969 -0.8267
40644SOL    HW228538   4.493   2.274   8.499 -0.8491 -0.4014 -0.9379
40645SOL     OW28539   9.640   1.941   5.368  0.2673 -0.0322  0.0617
40645SOL    HW128540   9.616   1.862   5.415  1.4356  0.9790  2.5587
40645SOL    HW228541   9.584   1.941   5.290 -0.5948 -2.6521  0.5875
40646SOL     OW28542   7.064  10.227   7.060  0.2469 -0.3578  0.5240
40646SOL    HW128543   6.998  10.193   7.120 -1.0156 -3.8117 -2.4287
40646SOL    HW228544   7.030  10.313   7.034 -1.4518 -0.6990  1.4375
40647SOL     OW28545   4.008   0.163  10.055 -0.6823  0.7323 -0.3675
40647SOL    HW128546   4.048   0.229  10.112  0.0042  1.9313 -2.1669
40647SOL    HW228547   4.062   0.085  10.068 -0.3262  1.0841  0.3372
40648SOL     OW28548   1.376   2.399   2.407 -0.0502  0.5203  0.1165
40648SOL    HW128549   1.302   2.372   2.461  1.3893 -0.5069  1.6879
40648SOL    HW228550   1.374   2.494   2.409 -0.4021  0.5022  1.4882
40649SOL     OW28551   5.470   4.355   8.078 -0.2127 -0.8059 -0.5425
40649SOL    HW128552   5.545   4.303   8.107 -0.4533 -0.2855  1.0963
40649SOL    HW228553   5.394   4.299   8.092 -0.2909 -0.7220 -0.6241
40650SOL     OW28554   9.825   9.773  11.252 -0.2967  0.0858 -0.4726
40650SOL    HW128555   9.880   9.722  11.312  0.2911  0.1741 -0.9231
40650SOL    HW228556   9.834   9.730  11.168  1.4167  1.7437 -1.2218
40651SOL     OW28557   9.601  10.892   4.021  0.2831  0.2101  0.4834
40651SOL    HW128558   9.540  10.864   4.089 -0.5300  3.3766  1.2149
40651SOL    HW228559   9.552  10.883   3.940 -0.5391  1.0138  0.8756
40652SOL     OW28560   5.900  11.814  11.587  0.5820  0.4177 -0.0497
40652SOL    HW128561   5.931  11.725  11.608  1.0721  0.5878 -0.0269
40652SOL    HW228562   5.807  11.813  11.608  0.4061 -0.3320 -0.8226
40653SOL     OW28563   3.819   9.528   9.193  0.1870  0.3284  0.0871
40653SOL    HW128564   3.726   9.521   9.172  0.5677 -1.6465 -1.1449
40653SOL    HW228565   3.843   9.443   9.229  1.8276  0.2978 -0.9490
40654SOL     OW28566   4.649  10.308  11.977 -0.4179 -0.2909 -0.2698
40654SOL    HW128567   4.712  10.301  11.905  1.5854  1.3802  1.2155
40654SOL    HW228568   4.639  10.218  12.008 -0.2089 -0.8378 -1.7103
40655SOL     OW28569   2.174   6.112   9.023  0.4150  0.1512  0.0113
40655SOL    HW128570   2.259   6.112   9.068  0.1015 -1.0653  0.6381
40655SOL    HW228571   2.145   6.021   9.027 -1.3771  0.7238  0.6383
40656SOL     OW28572   7.710   1.703   3.144  0.0651  0.4728 -0.1724
40656SOL    HW128573   7.693   1.711   3.238 -1.7675  1.0349 -0.5099
40656SOL    HW228574   7.627   1.726   3.103  1.0487  0.9642 -1.9712
40657SOL     OW28575  11.866   3.064  12.334  0.1495  0.1861  0.0345
40657SOL    HW128576  11.937   3.123  12.359 -0.8236  0.6272  1.9436
40657SOL    HW228577  11.902   2.977  12.346  0.9375  0.3704 -0.8288
40658SOL     OW28578   1.535   0.869   4.769  0.0160  0.3204 -0.9883
40658SOL    HW128579   1.568   0.958   4.779  0.9763 -0.2004  1.0219
40658SOL    HW228580   1.455   0.867   4.822  0.1983 -0.1092 -0.7267
40659SOL     OW28581   4.978   9.561  12.757 -0.3102 -0.8766  0.1384
40659SOL    HW128582   4.990   9.646  12.799 -0.9896 -0.5172 -0.3789
40659SOL    HW228583   4.902   9.523  12.800 -1.6531 -0.0627 -1.4230
40660SOL     OW28584  12.714   1.469   5.637 -0.0243 -0.4025 -0.3148
40660SOL    HW128585  12.775   1.543   5.628 -0.6876  0.3502  1.1182
40660SOL    HW228586  12.695   1.443   5.547  0.2077  1.1886 -0.8567
40661SOL     OW28587   3.168   3.704   9.051  0.5157 -0.4103 -0.3632
40661SOL    HW128588   3.235   3.693   8.984 -0.8253 -2.9539 -1.4281
40661SOL    HW228589   3.185   3.634   9.114 -0.8927 -0.9019 -0.4868
40662SOL     OW28590   2.739   2.406   2.285 -0.0332  0.3680 -0.0041
40662SOL    HW128591   2.813   2.362   2.242  0.0010  0.0452  0.3819
40662SOL    HW228592   2.779   2.458   2.354 -0.3556 -2.2153  2.2864
40663SOL     OW28593   4.474  11.166   7.558 -0.4224 -0.3689 -0.6229
40663SOL    HW128594   4.449  11.090   7.611  0.3863  0.1311  0.5257
40663SOL    HW228595   4.457  11.241   7.615  0.6156  0.1791 -1.0083
40664SOL     OW28596   8.768   9.146   3.685  0.2321 -0.3633 -0.3225
40664SOL    HW128597   8.673   9.138   3.677  0.2273 -0.0244 -0.6264
40664SOL    HW228598   8.798   9.160   3.595  0.6633 -1.4234 -0.3581
40665SOL     OW28599   9.997   2.594   3.848  0.3595  0.4154 -0.7461
40665SOL    HW128600   9.935   2.532   3.887 -1.5459  2.7210  0.1240
40665SOL    HW228601  10.023   2.554   3.765 -2.6111 -0.5366 -1.3282
40666SOL     OW28602  12.315  12.048  10.572 -0.1175 -0.8260  0.3192
40666SOL    HW128603  12.280  12.137  10.567  0.6056 -0.5183  0.5163
40666SOL    HW228604  12.377  12.043  10.498  0.8679 -0.6910  1.1186
40667SOL     OW28605  11.208   0.670  11.845 -0.5483 -0.7546 -0.3109
40667SOL    HW128606  11.213   0.700  11.755  1.1902  1.1346  0.3289
40667SOL    HW228607  11.123   0.700  11.876 -0.0270  1.0346 -0.5492
40668SOL     OW28608  12.749   0.740   0.146 -0.2533  0.0342  0.0077
40668SOL    HW128609  12.653   0.736   0.151 -0.1979 -0.7298  0.6153
40668SOL    HW228610  12.766   0.791   0.067 -1.1446 -1.6162 -1.3191
40669SOL     OW28611   9.359   9.879  10.265  0.5044 -0.2919 -0.3502
40669SOL    HW128612   9.350   9.970  10.237 -0.1647 -0.5938 -1.1603
40669SOL    HW228613   9.387   9.832  10.186 -0.9782 -1.0864 -0.4457
40670SOL     OW28614   5.438  12.047   1.188  0.4322 -0.2963 -0.2907
40670SOL    HW128615   5.502  12.021   1.121  1.0967 -0.5251  0.4161
40670SOL    HW228616   5.463  12.136   1.211  1.2883 -0.8059  0.8617
40671SOL     OW28617   8.038   9.354   7.017 -0.7234  0.3332 -0.0316
40671SOL    HW128618   7.944   9.364   7.005 -1.2359 -2.8435  0.3868
40671SOL    HW228619   8.064   9.288   6.953  0.9103  0.0459  0.8589
40672SOL     OW28620   0.880   7.834   7.923  0.2204 -0.3018  0.4615
40672SOL    HW128621   0.967   7.795   7.919 -0.2591 -1.3171 -1.0683
40672SOL    HW228622   0.820   7.759   7.915 -0.7476  0.6047 -1.4266
40673SOL     OW28623  12.580   8.896   5.986 -0.0406  0.5898 -0.6132
40673SOL    HW128624  12.589   8.990   5.969  1.8282  0.7356  0.8404
40673SOL    HW228625  12.575   8.889   6.082 -1.7963 -0.7196 -0.7451
40674SOL     OW28626   9.712   6.471   8.352 -0.4029  0.3206  0.3573
40674SOL    HW128627   9.670   6.556   8.338 -2.2817 -0.7999 -1.4529
40674SOL    HW228628   9.702   6.426   8.268  0.6757 -1.6388  1.2198
40675SOL     OW28629   3.449   6.684  10.487  0.5082  0.5174 -0.2694
40675SOL    HW128630   3.447   6.609  10.427  0.4978 -1.6357  2.2516
40675SOL    HW228631   3.534   6.724  10.472  0.3842  0.2575 -1.8971
40676SOL     OW28632   0.234   2.471   4.720  0.5892 -0.5472  1.0668
40676SOL    HW128633   0.268   2.550   4.761  2.7265  1.1452 -3.3210
40676SOL    HW228634   0.180   2.502   4.648 -0.0051 -3.1591  0.2746
40677SOL     OW28635   7.085  10.881   9.920  0.2706  0.1783  0.3453
40677SOL    HW128636   7.170  10.871   9.877  0.2395  0.5463  0.1953
40677SOL    HW228637   7.058  10.970   9.899 -0.0104  0.1669  0.6540
40678SOL     OW28638   2.338   3.157   5.719 -0.4939  0.2901 -0.3183
40678SOL    HW128639   2.410   3.212   5.750  0.6144 -1.4774  0.3953
40678SOL    HW228640   2.363   3.133   5.630 -0.0606 -0.4907  0.0004
40679SOL     OW28641  12.508   2.802  11.008 -0.0459  0.4180  0.2148
40679SOL    HW128642  12.425   2.846  10.989 -0.2432  0.2040  0.5737
40679SOL    HW228643  12.483   2.712  11.031  0.0214  1.0568  3.0886
40680SOL     OW28644   3.683   2.837   1.424 -0.2599  0.0893 -0.0035
40680SOL    HW128645   3.715   2.749   1.443  0.6846  0.6887  1.3193
40680SOL    HW228646   3.729   2.862   1.344  1.4414  0.3151  0.9882
40681SOL     OW28647  10.760  12.419   7.481 -0.2069 -0.0678  0.0556
40681SOL    HW128648  10.720  12.410   7.568 -0.0777  2.4725  0.4763
40681SOL    HW228649  10.767  12.514   7.469 -1.3714 -0.2879 -3.2778
40682SOL     OW28650   8.745  10.170  12.249  0.2696  0.0411  0.3658
40682SOL    HW128651   8.835  10.188  12.279 -0.3397  2.1303  1.1501
40682SOL    HW228652   8.697  10.149  12.329 -0.0024 -0.9402 -0.0377
40683SOL     OW28653   6.925   8.359   0.523 -0.0007  0.3994  0.2567
40683SOL    HW128654   6.940   8.412   0.601  0.7490  0.5802 -0.0029
40683SOL    HW228655   6.844   8.312   0.542  0.3857  0.1207  1.3160
40684SOL     OW28656   6.226   3.716   6.880 -0.1181  0.0673  0.4342
40684SOL    HW128657   6.308   3.693   6.836 -1.0137 -0.8706 -0.8146
40684SOL    HW228658   6.162   3.724   6.809 -0.7754  2.5383  1.1864
40685SOL     OW28659   0.333  10.187   1.266  0.0728  0.0791 -0.0730
40685SOL    HW128660   0.324  10.092   1.279  0.5728 -0.0182 -0.4091
40685SOL    HW228661   0.420  10.207   1.300  0.0924  0.3698 -0.2960
40686SOL     OW28662   0.724   1.903   6.588 -0.2186  0.2015  0.3091
40686SOL    HW128663   0.726   1.908   6.493  0.0743  2.0868  0.3916
40686SOL    HW228664   0.749   1.812   6.607 -2.2163 -0.8155 -1.4275
40687SOL     OW28665   6.152  11.286   4.769  0.5248  0.1525 -1.0910
40687SOL    HW128666   6.182  11.208   4.816  0.2622  0.2684 -0.7254
40687SOL    HW228667   6.218  11.299   4.700  0.0075 -0.9983 -1.8303
40688SOL     OW28668   0.846   0.282   4.388  0.2301 -0.3846  0.2682
40688SOL    HW128669   0.784   0.303   4.457  1.3766 -1.5622  1.7010
40688SOL    HW228670   0.828   0.191   4.365  2.5740 -1.4313  2.0845
40689SOL     OW28671  10.697  12.240   3.689 -0.6510  0.0928 -0.1059
40689SOL    HW128672  10.687  12.269   3.780  0.5703 -0.5839  0.2593
40689SOL    HW228673  10.785  12.267   3.664 -1.1090  0.6265 -1.2512
40690SOL     OW28674   5.902   9.715   8.746 -0.1466 -0.1204  0.0575
40690SOL    HW128675   5.870   9.752   8.828  0.3925 -1.2371  0.8097
40690SOL    HW228676   5.930   9.790   8.694 -0.7102  0.6183  0.8028
40691SOL     OW28677  12.523  10.084   5.357 -0.2077 -0.5580  0.2734
40691SOL    HW128678  12.502  10.174   5.333  1.4230 -0.6137 -1.6683
40691SOL    HW228679  12.441  10.036   5.343 -0.6374  0.3356 -0.3951
40692SOL     OW28680   9.606   1.028   6.233 -0.1623  0.1483  0.4335
40692SOL    HW128681   9.525   1.068   6.202 -0.6309 -1.4858 -0.5669
40692SOL    HW228682   9.580   0.941   6.262  0.9565  0.2249  1.8034
40693SOL     OW28683   0.847   6.044   1.603  0.6252 -0.7496 -0.3474
40693SOL    HW128684   0.813   6.132   1.585 -0.9726 -1.0455  1.0482
40693SOL    HW228685   0.935   6.060   1.638  0.0121  0.3607  0.7478
40694SOL     OW28686  10.632   2.640   2.860  0.2688 -0.3140 -0.4334
40694SOL    HW128687  10.682   2.563   2.889  1.2170  0.0950 -0.9372
40694SOL    HW228688  10.545   2.605   2.839  0.4347 -1.1066  0.1393
40695SOL     OW28689  11.093   0.519   7.047  0.3862  0.3699 -0.2260
40695SOL    HW128690  11.048   0.464   7.112  0.2206  0.3836 -0.3297
40695SOL    HW228691  11.186   0.505   7.065  0.3484 -0.1406 -0.4159
40696SOL     OW28692  12.266   0.885   3.467 -0.2935 -0.3167 -0.0288
40696SOL    HW128693  12.288   0.795   3.491  1.3060 -0.0044 -0.1889
40696SOL    HW228694  12.318   0.903   3.389 -0.5996  0.7429 -0.0149
40697SOL     OW28695   2.224  10.401   0.260  0.3678  0.0803 -0.3458
40697SOL    HW128696   2.227  10.487   0.217 -2.4368 -0.1556 -1.2236
40697SOL    HW228697   2.285  10.347   0.209 -0.4850  0.6809 -2.1175
40698SOL     OW28698   6.133   4.934   3.805  0.4897  0.2136  0.0604
40698SOL    HW128699   6.141   4.840   3.822 -2.9164 -0.2617 -0.1257
40698SOL    HW228700   6.099   4.939   3.716 -0.2220  1.5556  0.3770
40699SOL     OW28701   4.069   5.134   2.727 -0.2767  0.5962  0.9268
40699SOL    HW128702   3.974   5.133   2.722 -0.2430  0.7281  0.1300
40699SOL    HW228703   4.088   5.148   2.819 -1.0243 -0.0595  1.1917
40700SOL     OW28704  12.701  10.027   6.708 -0.0382  0.3544  0.0566
40700SOL    HW128705  12.639  10.061   6.643  0.7436  0.6667 -0.5526
40700SOL    HW228706  12.787  10.047   6.670  0.4350 -0.8988  0.4469
40701SOL     OW28707   1.048   9.689   0.121  0.4972  0.5315 -0.3440
40701SOL    HW128708   0.961   9.721   0.146 -1.4833 -3.8615 -0.7393
40701SOL    HW228709   1.057   9.714   0.029 -1.7974 -1.3527 -1.1984
40702SOL     OW28710   4.803  10.551   7.339  0.4263 -0.0022  0.4968
40702SOL    HW128711   4.854  10.632   7.339  0.9360 -0.3184  1.2383
40702SOL    HW228712   4.745  10.559   7.415  1.4847 -0.9386  1.4442
40703SOL     OW28713   2.910   5.894   1.899 -0.0821 -0.2339  0.0898
40703SOL    HW128714   2.904   5.958   1.828 -1.4885 -3.0884 -2.6229
40703SOL    HW228715   2.984   5.838   1.875 -1.4042 -2.0589  0.0548
40704SOL     OW28716   3.252   7.048   0.374  0.1105 -0.1160 -0.1633
40704SOL    HW128717   3.207   7.024   0.455 -0.8612  2.8000  0.2904
40704SOL    HW228718   3.235   6.976   0.314 -0.3337 -1.6965  1.7787
40705SOL     OW28719   6.995  10.066  10.104  0.0774  0.0698 -0.0903
40705SOL    HW128720   6.976  10.017  10.184  0.9354  1.6294  1.1283
40705SOL    HW228721   7.090  10.061  10.095  0.1907  1.4645  0.0776
40706SOL     OW28722  12.480   7.411   2.411  0.1700 -0.7510  0.1666
40706SOL    HW128723  12.547   7.375   2.352 -1.0508 -0.7829 -1.2590
40706SOL    HW228724  12.445   7.334   2.457 -1.1209 -1.2278 -1.4968
40707SOL     OW28725   8.159   5.004   1.333 -0.1782 -0.1991  0.6189
40707SOL    HW128726   8.241   5.045   1.361  0.9497 -1.3905 -0.7741
40707SOL    HW228727   8.091   5.054   1.378  1.2562  1.3471  1.1889
40708SOL     OW28728   4.983   1.977   7.697 -0.1166  0.1012 -0.2484
40708SOL    HW128729   4.905   1.993   7.750 -1.0048 -2.3410 -0.6723
40708SOL    HW228730   4.958   2.004   7.608 -0.0448  0.4474 -0.1642
40709SOL     OW28731   8.130  10.542   3.096  0.1465 -0.8509 -0.1630
40709SOL    HW128732   8.219  10.577   3.094 -0.4146  0.7534  0.6567
40709SOL    HW228733   8.131  10.477   3.165  0.4612 -0.1293  0.5243
40710SOL     OW28734   6.728   7.658  12.379  0.2413  0.6329 -1.1748
40710SOL    HW128735   6.652   7.651  12.437  0.0402  0.5542 -1.4464
40710SOL    HW228736   6.781   7.582  12.400  1.6848  2.1544  1.0526
40711SOL     OW28737   8.285   0.312   0.987  0.4154 -0.2799 -0.3023
40711SOL    HW128738   8.236   0.389   0.957  0.5613 -0.7293 -1.7544
40711SOL    HW228739   8.357   0.348   1.038 -0.3673  0.4692  0.3180
40712SOL     OW28740  12.391   6.855  12.772  0.1943  0.1273 -0.3186
40712SOL    HW128741  12.326   6.918  12.803  0.0997 -0.2967  0.3816
40712SOL    HW228742  12.465   6.909  12.745 -0.2533  0.5877 -0.6369
40713SOL     OW28743   1.217   0.330   7.726  0.0672 -0.1759  0.4060
40713SOL    HW128744   1.277   0.402   7.706  0.1264  0.1765  1.8136
40713SOL    HW228745   1.142   0.371   7.767  0.3122 -0.9314  1.6821
40714SOL     OW28746   5.625   7.532  12.126  0.5908 -0.5070 -0.2843
40714SOL    HW128747   5.719   7.540  12.109  0.3730  1.6445 -0.7273
40714SOL    HW228748   5.587   7.509  12.042  0.6047 -0.2552 -0.3599
40715SOL     OW28749   7.817  12.620   0.039  0.0446  0.5577 -0.4612
40715SOL    HW128750   7.809  12.535   0.082  0.3098  1.0797  0.6609
40715SOL    HW228751   7.911  12.631   0.027 -0.1024 -0.8664 -3.9068
40716SOL     OW28752  11.015  12.688   8.098  0.2979  0.4409  0.4428
40716SOL    HW128753  10.977  12.617   8.046  1.4359  0.8505 -1.0251
40716SOL    HW228754  11.080  12.644   8.154 -0.7670  0.0312  1.4108
40717SOL     OW28755   5.206   0.427  11.768 -0.5854  0.2742  0.1244
40717SOL    HW128756   5.249   0.343  11.749 -0.6739  0.0606  0.8056
40717SOL    HW228757   5.277   0.489  11.780 -0.5234  0.3438 -0.5596
40718SOL     OW28758  11.925   1.683   9.185  0.0838  0.4388 -0.3146
40718SOL    HW128759  11.992   1.682   9.116  0.2457 -0.1698 -0.1602
40718SOL    HW228760  11.844   1.661   9.140  0.3469 -0.9074 -0.1753
40719SOL     OW28761   4.120   0.686   0.663 -0.2560  0.6974  0.2819
40719SOL    HW128762   4.163   0.601   0.674 -1.9669 -0.2758 -0.1220
40719SOL    HW228763   4.037   0.677   0.709 -0.8446  1.8580 -0.4933
40720SOL     OW28764   7.869   6.696  12.591 -0.3355  0.2767 -0.0978
40720SOL    HW128765   7.861   6.658  12.504  0.2137 -0.0173 -0.0231
40720SOL    HW228766   7.781   6.728  12.611 -0.3233  0.9213 -1.0183
40721SOL     OW28767   4.193   4.614   7.049 -0.0003  0.3080 -0.0786
40721SOL    HW128768   4.281   4.579   7.067  0.7465  2.5028  0.8443
40721SOL    HW228769   4.205   4.668   6.971 -0.9037 -0.5787 -0.8618
40722SOL     OW28770  11.316   8.066  12.263  0.1736  0.0685  0.4660
40722SOL    HW128771  11.381   8.029  12.203  0.6882  0.6783  0.6439
40722SOL    HW228772  11.305   7.998  12.330  1.6853  0.5284  1.2106
40723SOL     OW28773   9.993   7.520   5.528  0.1361 -0.2494  0.5225
40723SOL    HW128774  10.067   7.475   5.569  0.8936  0.8541  0.4282
40723SOL    HW228775   9.951   7.567   5.600 -0.0738 -0.3587  0.4692
40724SOL     OW28776   8.129   6.478   1.676  0.3295  0.0389 -0.6527
40724SOL    HW128777   8.199   6.522   1.724  0.4672 -0.2980 -0.5412
40724SOL    HW228778   8.070   6.549   1.649 -0.5525  0.1368  1.3147
40725SOL     OW28779   5.666   5.295   9.081  0.4086  1.0538 -0.6622
40725SOL    HW128780   5.666   5.238   9.003 -0.9001  0.9418 -0.5975
40725SOL    HW228781   5.582   5.341   9.077  1.1086  2.4085 -0.2794
40726SOL     OW28782  11.709   5.943   7.777 -0.0749 -0.4921  0.4327
40726SOL    HW128783  11.700   5.856   7.739  1.7816 -0.8049  0.6448
40726SOL    HW228784  11.793   5.975   7.745 -0.3276  0.8697  1.0668
40727SOL     OW28785   4.909   3.224   2.522  0.6783 -0.2785  0.1697
40727SOL    HW128786   4.855   3.268   2.457  0.3858 -1.1792 -0.2168
40727SOL    HW228787   4.973   3.289   2.549 -0.5253  0.7764  0.5513
40728SOL     OW28788   4.016   3.626  11.624 -0.1368 -0.1902 -0.5736
40728SOL    HW128789   4.087   3.589  11.572  0.0861  0.3896 -0.6966
40728SOL    HW228790   4.057   3.650  11.707 -0.3702 -0.6008 -0.3389
40729SOL     OW28791   0.511  11.133  11.063 -0.3345  0.3816  0.4897
40729SOL    HW128792   0.472  11.218  11.041  1.4625  0.9690 -0.6674
40729SOL    HW228793   0.501  11.125  11.158 -1.0993  1.5849  0.5271
40730SOL     OW28794   9.537   7.388   3.202 -0.1716  0.4437  0.0736
40730SOL    HW128795   9.621   7.341   3.200 -0.5625 -0.2653 -0.2344
40730SOL    HW228796   9.529   7.427   3.115 -1.0776 -1.1887 -0.6190
40731SOL     OW28797   9.509   3.308  12.288 -0.5320 -0.4086 -0.3796
40731SOL    HW128798   9.517   3.383  12.347 -2.2014 -0.5750  0.1036
40731SOL    HW228799   9.584   3.316  12.229  0.7192  0.2237  1.2303
40732SOL     OW28800   2.172   5.162   3.139  0.0318 -0.0264  0.5711
40732SOL    HW128801   2.254   5.121   3.114 -0.1413  0.3691 -0.7570
40732SOL    HW228802   2.110   5.134   3.071 -0.8679 -0.1023  1.3992
40733SOL     OW28803   6.535   7.442   5.562  0.2026 -0.1282 -0.4383
40733SOL    HW128804   6.461   7.382   5.546 -0.4038  0.6632 -0.6826
40733SOL    HW228805   6.598   7.420   5.494 -0.6178  0.4377 -1.4178
40734SOL     OW28806   8.939   0.633   2.722 -0.2464  0.2753  0.4504
40734SOL    HW128807   8.885   0.620   2.800  0.1686  0.6034  0.7947
40734SOL    HW228808   8.918   0.558   2.665 -0.5472  0.0362  0.8745
40735SOL     OW28809  11.759   4.327   4.778  0.8955 -0.0280 -0.9991
40735SOL    HW128810  11.674   4.353   4.815  1.1007 -1.7077  0.8897
40735SOL    HW228811  11.822   4.388   4.818  0.7640  0.1240 -1.0216
40736SOL     OW28812   5.299  12.623  10.776 -0.1581 -0.5103  0.0895
40736SOL    HW128813   5.276  12.701  10.726  0.8137  0.1439  0.6259
40736SOL    HW228814   5.332  12.657  10.859  2.2613 -1.3758 -0.4387
40737SOL     OW28815   7.202   6.860   9.472  0.5401  0.6109 -0.8060
40737SOL    HW128816   7.228   6.875   9.381  2.3384 -0.3650 -0.5054
40737SOL    HW228817   7.193   6.948   9.508  0.7362  1.0104 -1.6837
40738SOL     OW28818   6.280   4.477   3.700  0.0805 -0.2906  0.0643
40738SOL    HW128819   6.262   4.383   3.692 -2.7376  0.2189 -0.9239
40738SOL    HW228820   6.257   4.513   3.614  0.7138  1.3594  0.5462
40739SOL     OW28821   8.696   3.674   4.990 -0.4905  0.6300  0.5095
40739SOL    HW128822   8.782   3.643   5.018 -0.0823 -0.0644 -1.4085
40739SOL    HW228823   8.636   3.605   5.019 -0.1869  0.3045  0.3764
40740SOL     OW28824  12.556   6.659   9.570  0.0984  0.1782  0.0840
40740SOL    HW128825  12.491   6.664   9.639  0.0847 -1.3131  0.2033
40740SOL    HW228826  12.634   6.623   9.612  0.4768  0.3803 -0.4243
40741SOL     OW28827  12.694   9.392   9.639 -0.3748  0.6046  0.0660
40741SOL    HW128828  12.753   9.461   9.607  1.3325 -1.8978 -2.7582
40741SOL    HW228829  12.726   9.371   9.727  1.7051  0.7102 -0.6170
40742SOL     OW28830   8.438   2.203   3.774  0.3656  0.2979 -0.3228
40742SOL    HW128831   8.368   2.220   3.837  0.1087  0.8011 -0.7375
40742SOL    HW228832   8.500   2.275   3.787 -0.3828  1.2054 -1.6012
40743SOL     OW28833  11.738   7.393   6.488 -0.4400 -0.4694 -0.2644
40743SOL    HW128834  11.672   7.325   6.489  0.2879 -1.2010 -0.4404
40743SOL    HW228835  11.793   7.376   6.565 -0.2531 -0.0821 -0.3044
40744SOL     OW28836   8.384   4.212   3.539 -0.6536  0.2117 -0.5140
40744SOL    HW128837   8.323   4.171   3.600 -1.3000  0.2737 -1.1145
40744SOL    HW228838   8.429   4.139   3.496 -0.5421  0.1632 -0.3148
40745SOL     OW28839   5.586  10.894   6.538 -0.4793  0.2943 -0.6452
40745SOL    HW128840   5.576  10.960   6.606 -0.2413 -1.5569  1.2777
40745SOL    HW228841   5.501  10.891   6.494 -0.9260  0.9213  0.1575
40746SOL     OW28842   2.794   8.258   6.485 -0.1446 -0.3064  0.3639
40746SOL    HW128843   2.814   8.165   6.493 -0.5375 -0.4992 -0.7996
40746SOL    HW228844   2.777   8.287   6.575  1.4620 -1.0017  0.9246
40747SOL     OW28845  10.079   7.094   3.002 -0.0022 -0.6717 -0.2723
40747SOL    HW128846  10.070   7.146   2.921 -1.9040 -0.5537 -0.0260
40747SOL    HW228847  10.105   7.007   2.972  0.4480 -0.3245 -0.9151
40748SOL     OW28848   1.200   3.956  12.388 -0.3452  0.1265  0.0160
40748SOL    HW128849   1.285   3.972  12.430 -0.4558  2.6363 -0.5407
40748SOL    HW228850   1.199   3.861  12.372  3.7061  0.2535 -2.6374
40749SOL     OW28851   4.481   6.240   6.784 -0.1624  0.3731  0.0416
40749SOL    HW128852   4.499   6.151   6.812 -1.0494  0.9469  2.7324
40749SOL    HW228853   4.560   6.268   6.739  1.3399 -0.7754  1.8315
40750SOL     OW28854   0.263   4.378   1.529  0.5513  0.3890  0.5869
40750SOL    HW128855   0.199   4.342   1.467  0.3814  0.4585  0.7199
40750SOL    HW228856   0.347   4.343   1.500  0.2470 -1.1564  1.4555
40751SOL     OW28857   2.509  10.922   9.122  0.5624 -0.2666 -0.1065
40751SOL    HW128858   2.551  10.984   9.182 -1.4385  1.0963 -0.0160
40751SOL    HW228859   2.530  10.955   9.035 -1.5332  1.4132 -0.0670
40752SOL     OW28860   0.571   2.644   0.259 -0.7351 -0.4496  0.3325
40752SOL    HW128861   0.547   2.623   0.168 -0.9247 -0.7714  0.4544
40752SOL    HW228862   0.665   2.665   0.254 -0.6935 -0.6793  0.0962
40753SOL     OW28863  11.481   0.107   8.566 -0.2212  0.1794  0.7393
40753SOL    HW128864  11.532   0.043   8.516  0.0528  1.1617 -0.2778
40753SOL    HW228865  11.546   0.152   8.620  0.0879  1.5587 -0.6926
40754SOL     OW28866   1.394   7.645   1.529  0.0239 -0.1291 -0.2595
40754SOL    HW128867   1.319   7.585   1.529  0.7207 -1.0196 -0.1511
40754SOL    HW228868   1.457   7.603   1.588  0.5830  0.6420 -0.3048
40755SOL     OW28869   7.408   6.628  10.997 -0.0385  0.2616  0.1392
40755SOL    HW128870   7.365   6.553  11.038  0.5560 -0.4641 -0.5289
40755SOL    HW228871   7.410   6.694  11.066 -1.5850  0.0857  0.4023
40756SOL     OW28872   0.673   7.472   0.809 -0.1888 -0.5501  0.3322
40756SOL    HW128873   0.596   7.528   0.802  0.7060  0.9112  1.3971
40756SOL    HW228874   0.718   7.503   0.887  1.7172 -1.0301 -0.5022
40757SOL     OW28875  10.049   4.582   2.181  0.4638 -0.0903  0.1863
40757SOL    HW128876  10.088   4.660   2.221  0.5166  1.2857 -2.3657
40757SOL    HW228877  10.060   4.595   2.087  0.1846 -3.0609 -0.3618
40758SOL     OW28878   5.750  10.151   3.154 -0.3569  0.7519 -0.5117
40758SOL    HW128879   5.832  10.149   3.103 -0.9506  0.1213 -1.4712
40758SOL    HW228880   5.745  10.241   3.187  0.8770  0.7243 -0.1669
40759SOL     OW28881   0.091   4.475  11.539 -0.2731 -0.0140  0.1082
40759SOL    HW128882   0.109   4.418  11.464  0.5892  1.4148 -0.8131
40759SOL    HW228883   0.091   4.563  11.503  1.5992  0.8493  2.0044
40760SOL     OW28884   2.951   1.581   2.506  0.0918  0.5480 -0.0584
40760SOL    HW128885   2.912   1.563   2.591  0.6921  0.3823  0.1929
40760SOL    HW228886   2.936   1.674   2.492 -0.9601  0.3485 -0.2727
40761SOL     OW28887   4.438   9.887  11.093  0.0866 -0.6012 -0.4457
40761SOL    HW128888   4.435   9.935  11.175 -2.2154  0.0690 -0.8495
40761SOL    HW228889   4.401   9.801  11.114  0.7862 -0.9272 -0.5120
40762SOL     OW28890   7.100  11.256   0.871 -0.4746 -0.0412  0.7285
40762SOL    HW128891   7.012  11.223   0.856 -0.5556  0.4115  0.1565
40762SOL    HW228892   7.089  11.351   0.874  0.1557  0.0963 -0.5685
40763SOL     OW28893   4.202   3.183   9.404 -0.1085 -0.6157 -0.2448
40763SOL    HW128894   4.135   3.160   9.339  0.5841 -1.3605 -0.7188
40763SOL    HW228895   4.187   3.121   9.476  0.6133 -1.3982 -0.7402
40764SOL     OW28896   3.352   2.183  12.618  0.5457 -0.7292  0.1791
40764SOL    HW128897   3.372   2.204  12.527 -0.9530  0.8655  0.1558
40764SOL    HW228898   3.311   2.096  12.614 -2.9384  0.7726 -1.2844
40765SOL     OW28899   2.713  12.166   2.750  0.0536 -0.2941  0.2224
40765SOL    HW128900   2.727  12.241   2.693  2.3946 -1.3380 -0.7118
40765SOL    HW228901   2.634  12.124   2.714 -0.0447  0.5343 -0.5819
40766SOL     OW28902   9.550   8.629   7.598  0.2423  0.4504 -0.4616
40766SOL    HW128903   9.458   8.617   7.618  0.1542  0.4868 -0.8403
40766SOL    HW228904   9.564   8.583   7.515  0.6138  0.2503 -0.2912
40767SOL     OW28905   7.534  11.025  10.843 -0.1397 -0.1445  0.4517
40767SOL    HW128906   7.468  11.049  10.908  1.3590  0.1814  1.9270
40767SOL    HW228907   7.511  11.075  10.765 -0.3360  1.7282  1.6580
40768SOL     OW28908  10.617   5.403  12.168  0.4757 -0.3066  0.2010
40768SOL    HW128909  10.567   5.341  12.220 -1.5435  0.0127 -1.2011
40768SOL    HW228910  10.550   5.453  12.121  1.9825  2.9544  1.2472
40769SOL     OW28911   3.430   3.969   3.769  0.1414 -0.0237  0.2746
40769SOL    HW128912   3.489   4.039   3.743  0.0651  1.0183  2.7432
40769SOL    HW228913   3.475   3.923   3.839 -1.3097 -0.1820  1.1481
40770SOL     OW28914   5.921   4.503   3.877  0.3378  0.3419 -0.1276
40770SOL    HW128915   5.831   4.532   3.892  0.4222  0.2889  0.5096
40770SOL    HW228916   5.919   4.465   3.789 -0.1620  0.7259 -0.2905
40771SOL     OW28917   5.074   5.418   9.391 -0.7856  0.1561  0.5351
40771SOL    HW128918   4.979   5.418   9.398 -0.7776  1.1147  0.7439
40771SOL    HW228919   5.105   5.430   9.481 -0.4874  0.6889  0.3682
40772SOL     OW28920   8.617   0.509   2.757  0.3300  0.1030  0.4566
40772SOL    HW128921   8.528   0.541   2.739  0.5866  1.2848  1.1576
40772SOL    HW228922   8.664   0.524   2.675 -0.0564 -0.3380  0.1463
40773SOL     OW28923   5.797   2.731   1.399 -1.1874 -0.1738  0.0362
40773SOL    HW128924   5.770   2.751   1.310 -2.2534 -1.9333 -0.0847
40773SOL    HW228925   5.846   2.808   1.428 -0.0529  0.0719 -2.3592
40774SOL     OW28926   4.321  10.954   2.902 -0.1383  0.4927  0.6881
40774SOL    HW128927   4.264  10.895   2.852 -0.9320  0.1561  1.9399
40774SOL    HW228928   4.406  10.910   2.903 -0.4641 -0.1481  0.7660
40775SOL     OW28929   2.973  12.424  12.593 -0.1200  0.1743 -0.0629
40775SOL    HW128930   2.901  12.436  12.531  1.4528 -0.2359 -2.0734
40775SOL    HW228931   3.032  12.363  12.550  1.2887  0.2226  1.6696
40776SOL     OW28932   8.598   0.020   6.176  0.3537  0.3884 -0.2128
40776SOL    HW128933   8.513  -0.001   6.215 -0.2507 -0.2901 -1.8252
40776SOL    HW228934   8.648   0.057   6.248 -1.0646  0.1473  0.9517
40777SOL     OW28935   9.258   9.504   0.064  0.0748 -0.3068  0.6522
40777SOL    HW128936   9.274   9.417   0.027 -2.2174 -0.7358  0.5156
40777SOL    HW228937   9.241   9.560  -0.012 -0.6375 -0.2654  0.8315
40778SOL     OW28938   1.956   3.714  10.754 -0.4111  0.4472 -0.2385
40778SOL    HW128939   1.875   3.761  10.738  0.2217  1.5843 -0.2213
40778SOL    HW228940   2.019   3.752  10.691  0.4681  0.5973  0.7031
40779SOL     OW28941   6.262   4.623   0.750 -0.2522  0.5738 -0.1646
40779SOL    HW128942   6.256   4.679   0.828  0.0330 -0.1426  0.3811
40779SOL    HW228943   6.342   4.650   0.706 -0.4103  0.9760 -0.2071
40780SOL     OW28944   6.048  10.213   8.586  0.0173 -0.2053  0.4871
40780SOL    HW128945   6.140  10.216   8.610  0.5631 -1.2617 -1.2857
40780SOL    HW228946   6.011  10.295   8.620  1.8510  0.7615  0.2554
40781SOL     OW28947  11.435  11.473   7.124  0.1471  0.4795 -0.2987
40781SOL    HW128948  11.373  11.412   7.084  1.0254 -0.7149  0.0863
40781SOL    HW228949  11.382  11.526   7.183 -0.3494 -1.4288  1.0667
40782SOL     OW28950   0.840  11.748   3.539  0.7345  0.6440  0.1417
40782SOL    HW128951   0.859  11.692   3.614  0.3350  1.3455  0.7800
40782SOL    HW228952   0.852  11.691   3.463 -0.3839 -0.5094  0.7952
40783SOL     OW28953   6.638  12.624   7.399  0.3488  0.7231 -0.1390
40783SOL    HW128954   6.654  12.660   7.312 -1.1979  1.4283 -0.1622
40783SOL    HW228955   6.571  12.557   7.386 -0.7196  1.5975  0.6215
40784SOL     OW28956   9.350  11.449   3.061 -0.2264  0.1868 -0.0127
40784SOL    HW128957   9.353  11.417   2.971 -2.2346  3.8174 -1.5630
40784SOL    HW228958   9.441  11.469   3.082  0.2515 -0.5877 -1.2514
40785SOL     OW28959   1.665   7.293   8.396 -0.3248  0.0085 -0.3224
40785SOL    HW128960   1.734   7.227   8.409 -0.4757 -0.1695 -0.4174
40785SOL    HW228961   1.622   7.301   8.481 -1.3174 -1.1577 -0.6801
40786SOL     OW28962  11.702   9.581  10.435 -0.0247 -0.1852  0.3733
40786SOL    HW128963  11.622   9.601  10.483 -1.0891 -1.3162 -0.8238
40786SOL    HW228964  11.749   9.520  10.491 -0.5047 -0.2918  0.6707
40787SOL     OW28965   8.749   0.739   5.379 -0.2211  0.4689 -0.1158
40787SOL    HW128966   8.666   0.692   5.373  0.0276  0.0636 -0.3763
40787SOL    HW228967   8.815   0.676   5.350  0.1883  0.7638  0.1637
40788SOL     OW28968   6.619   7.734   0.808  0.5125 -0.2010 -0.6847
40788SOL    HW128969   6.672   7.713   0.886  0.1404  0.6197 -0.2065
40788SOL    HW228970   6.610   7.829   0.809 -1.4924 -0.3507 -0.4153
40789SOL     OW28971   9.353  10.633   9.825  0.9502  0.0247  0.9357
40789SOL    HW128972   9.318  10.666   9.908  0.5043 -1.3123  1.3155
40789SOL    HW228973   9.441  10.671   9.819  0.4760  1.2195  1.3442
40790SOL     OW28974  10.038   7.350   3.698  0.0910  0.0601 -0.0417
40790SOL    HW128975  10.018   7.310   3.613  0.5821  0.7591 -0.5047
40790SOL    HW228976  10.095   7.424   3.676 -0.1381  0.5161  0.8606
40791SOL     OW28977   6.867   2.208  11.714  0.4918  0.2767  0.3606
40791SOL    HW128978   6.874   2.129  11.768 -0.3850 -0.8784 -1.1135
40791SOL    HW228979   6.850   2.278  11.776 -1.2602 -1.1179  1.5652
40792SOL     OW28980   3.279   6.532  10.311  0.0245  0.0002 -0.2093
40792SOL    HW128981   3.220   6.587  10.362 -2.1213 -2.3550  0.0075
40792SOL    HW228982   3.289   6.452  10.363  1.7825 -0.5089 -1.2285
40793SOL     OW28983   5.484   0.441   7.611 -0.4583  0.2252 -0.1094
40793SOL    HW128984   5.426   0.479   7.545 -0.5469 -0.0957 -0.2188
40793SOL    HW228985   5.558   0.501   7.615 -0.1062 -0.1276 -1.0281
40794SOL     OW28986   7.443  12.754   0.349  0.8402  0.3563  0.4813
40794SOL    HW128987   7.406  12.824   0.295  2.6685  0.2108 -1.0475
40794SOL    HW228988   7.464  12.798   0.432  0.0168  1.1091  0.3117
40795SOL     OW28989   3.829   8.166   6.972  0.3944 -0.1063  0.5228
40795SOL    HW128990   3.789   8.230   7.031 -0.9034  1.9535 -2.3620
40795SOL    HW228991   3.919   8.196   6.962 -0.0690  1.0595 -0.4168
40796SOL     OW28992   6.077   3.786  12.452 -0.4875 -1.0705 -0.0019
40796SOL    HW128993   6.086   3.852  12.384  0.9565 -0.3222  0.8734
40796SOL    HW228994   6.085   3.702  12.405 -0.3183 -0.5932 -0.8535
40797SOL     OW28995  10.870   6.250   7.383  0.0674  0.4291 -0.1524
40797SOL    HW128996  10.800   6.202   7.338 -0.3243 -0.2413  1.1172
40797SOL    HW228997  10.854   6.342   7.361 -1.0445  0.2580 -0.0958
40798SOL     OW28998   0.860   6.921   9.322  0.4356 -0.0983 -0.1829
40798SOL    HW128999   0.901   6.979   9.386  1.4672 -0.3641 -0.5809
40798SOL    HW229000   0.928   6.856   9.302 -0.7392 -1.5328  0.3650
40799SOL     OW29001   5.122   7.415   5.478 -0.4236 -0.1680  0.4565
40799SOL    HW129002   5.112   7.345   5.542 -0.3468 -0.0645  0.5830
40799SOL    HW229003   5.211   7.448   5.493 -0.7063  0.4167  0.8669
40800SOL     OW29004   7.488   4.341   4.742 -0.6925 -0.7967 -0.0357
40800SOL    HW129005   7.561   4.294   4.783  1.0984  1.8557  0.0978
40800SOL    HW229006   7.465   4.288   4.665  0.6333 -2.2796  0.5408
40801SOL     OW29007   7.562   9.461   0.948 -0.8151 -0.4487  0.6249
40801SOL    HW129008   7.533   9.551   0.965 -2.0313 -0.1424 -2.4539
40801SOL    HW229009   7.653   9.460   0.976 -0.6645  1.8794  0.4420
40802SOL     OW29010   1.656   4.313   5.657  0.1427 -0.1564 -0.7296
40802SOL    HW129011   1.647   4.218   5.648  1.5693 -0.4749  0.7519
40802SOL    HW229012   1.594   4.337   5.725  0.5045 -0.1828 -0.3909
40803SOL     OW29013  11.894   8.532   3.181  0.7228 -0.2514  0.7303
40803SOL    HW129014  11.939   8.448   3.178  0.8957 -0.2030  1.6729
40803SOL    HW229015  11.962   8.596   3.202  0.6982  0.2162 -0.5740
40804SOL     OW29016   2.203   2.210   8.421 -0.1140 -0.1696  0.1570
40804SOL    HW129017   2.203   2.274   8.349 -1.8824  1.5942  1.6386
40804SOL    HW229018   2.232   2.259   8.497 -1.1176 -1.2334  1.2634
40805SOL     OW29019  12.748   8.214  10.531 -0.2105  0.5210  0.5197
40805SOL    HW129020  12.688   8.288  10.525 -0.5503  0.1694 -0.7322
40805SOL    HW229021  12.692   8.137  10.525  0.1136  0.1280  2.0706
40806SOL     OW29022  12.148   6.851   7.778 -0.0678  0.3085 -0.9342
40806SOL    HW129023  12.241   6.858   7.800 -0.4979  2.6769  0.3895
40806SOL    HW229024  12.147   6.838   7.683  1.6048  0.5380 -1.0105
40807SOL     OW29025   2.116   7.890   2.252 -0.6250  0.7633  0.1676
40807SOL    HW129026   2.159   7.966   2.213 -0.2848  0.5684  0.1607
40807SOL    HW229027   2.188   7.835   2.281 -0.8667  0.2380 -0.2219
40808SOL     OW29028  12.321   2.293   3.161 -0.1892  0.0329  0.2169
40808SOL    HW129029  12.268   2.237   3.217  0.9161  0.2815  1.5654
40808SOL    HW229030  12.347   2.236   3.088  1.8604 -1.6510  2.1225
40809SOL     OW29031   2.764   1.345   2.512  0.0974  0.0981  0.0325
40809SOL    HW129032   2.853   1.375   2.497 -0.1100 -0.0340 -1.7434
40809SOL    HW229033   2.771   1.281   2.583  1.4353 -0.0111 -0.1749
40810SOL     OW29034   9.130   2.134  11.409  0.0437  0.0490 -0.0109
40810SOL    HW129035   9.124   2.138  11.505  0.2969 -0.2781  0.0214
40810SOL    HW229036   9.175   2.051  11.392 -2.6399 -1.4217 -0.5282
40811SOL     OW29037  10.584   9.694   7.895 -0.3783  0.5499  0.3029
40811SOL    HW129038  10.617   9.625   7.952 -2.8811 -0.5946  0.4762
40811SOL    HW229039  10.544   9.757   7.955 -4.7311 -1.5702 -0.0235
40812SOL     OW29040   9.634   2.326  10.163  0.0996 -0.0956  0.8357
40812SOL    HW129041   9.671   2.240  10.139  0.6797  0.4113 -0.1529
40812SOL    HW229042   9.701   2.365  10.220 -0.6525 -0.7217  2.2055
40813SOL     OW29043   9.111   6.310  10.258 -0.0679 -0.0728 -0.0297
40813SOL    HW129044   9.030   6.267  10.284 -0.7346  0.0874 -1.7141
40813SOL    HW229045   9.181   6.256  10.294 -0.8921 -1.9606 -1.1234
40814SOL     OW29046   3.813   6.638  10.113 -0.4795  0.2746 -0.2342
40814SOL    HW129047   3.738   6.592  10.151 -0.8202  1.9082  1.1780
40814SOL    HW229048   3.890   6.593  10.149 -0.7061 -1.2333 -1.4797
40815SOL     OW29049   3.384  12.270   9.215  0.2663 -0.3779 -0.7796
40815SOL    HW129050   3.359  12.180   9.236 -0.8835 -0.3130 -1.7702
40815SOL    HW229051   3.468  12.262   9.170  0.4131 -0.9061 -0.4187
40816SOL     OW29052  10.185   7.057   8.391  0.3219  0.3878 -0.8954
40816SOL    HW129053  10.103   7.092   8.357  0.9621  2.6106 -0.3280
40816SOL    HW229054  10.249   7.126   8.373  1.4850 -0.0838  1.1956
40817SOL     OW29055   8.533   0.473   4.163 -0.3629  0.2093  0.0412
40817SOL    HW129056   8.580   0.516   4.234 -0.2850  1.1848 -0.5905
40817SOL    HW229057   8.599   0.459   4.095 -0.2743 -1.3693  0.4226
40818SOL     OW29058   3.697   8.366   0.539  0.1027 -0.6185  0.7619
40818SOL    HW129059   3.717   8.364   0.632  1.3214 -0.1978  0.5168
40818SOL    HW229060   3.748   8.294   0.502 -0.4643 -0.8589  0.4265
40819SOL     OW29061   4.511   2.976   3.377 -0.3301 -0.3819  0.5164
40819SOL    HW129062   4.530   3.010   3.464  1.5309 -0.6144  0.2434
40819SOL    HW229063   4.541   3.045   3.317 -1.1523 -0.4201  0.0540
40820SOL     OW29064   2.999   4.547   1.129 -0.4717  0.5510 -0.8143
40820SOL    HW129065   3.010   4.488   1.055 -1.0385  0.9109 -1.1933
40820SOL    HW229066   2.963   4.492   1.199  1.6235 -0.1733 -0.2307
40821SOL     OW29067  10.640   3.118   1.798 -0.4493  0.0084 -0.2465
40821SOL    HW129068  10.722   3.164   1.778  0.4145 -1.1973  0.4138
40821SOL    HW229069  10.646   3.036   1.750 -0.9264 -0.4118  0.4029
40822SOL     OW29070   5.948   7.982   1.207  0.2635 -0.0169 -0.3045
40822SOL    HW129071   6.013   7.966   1.275  0.5171 -1.1020 -0.7775
40822SOL    HW229072   5.886   7.910   1.217 -1.2422  1.3123  0.5300
40823SOL     OW29073  10.077   5.899   1.166  0.0695 -0.0584  0.5638
40823SOL    HW129074  10.076   5.876   1.259  0.0869 -0.5811  0.4348
40823SOL    HW229075  10.089   5.994   1.165  1.3320 -0.2068  1.0662
40824SOL     OW29076   8.934   9.621   0.956  0.2182  0.2486  0.7540
40824SOL    HW129077   9.019   9.589   0.985 -0.2389 -2.4985 -0.5846
40824SOL    HW229078   8.954   9.686   0.888  1.2496 -0.1867  0.6287
40825SOL     OW29079   5.586   2.684   8.326  0.0575  1.0875  0.0868
40825SOL    HW129080   5.607   2.602   8.281  2.0285  0.6780  1.5728
40825SOL    HW229081   5.533   2.733   8.264 -1.6854 -1.5189 -0.6401
40826SOL     OW29082   0.414   4.405   8.762 -0.3096  0.0558 -0.2394
40826SOL    HW129083   0.452   4.362   8.685 -0.7961 -0.7761 -0.0240
40826SOL    HW229084   0.360   4.337   8.804 -0.8167  0.7735  0.3009
40827SOL     OW29085   1.385   2.045   2.968 -0.4672 -0.4707  0.2567
40827SOL    HW129086   1.383   1.990   3.047 -2.0354 -0.8690 -0.0177
40827SOL    HW229087   1.296   2.039   2.933 -0.7353  2.3328  0.2583
40828SOL     OW29088   1.913   9.589  12.197 -0.2657 -0.6977  0.1507
40828SOL    HW129089   2.002   9.621  12.182 -0.7434 -0.3716 -2.3806
40828SOL    HW229090   1.923   9.495  12.212  0.4921 -0.7349 -0.5255
40829SOL     OW29091   8.622   3.091   5.819 -0.3083 -0.5701 -0.1228
40829SOL    HW129092   8.537   3.085   5.862 -1.0094  0.3677 -1.3106
40829SOL    HW229093   8.672   3.152   5.873  0.5238 -2.8977  1.9251
40830SOL     OW29094   3.558  10.817   1.409 -0.4492  0.4773  0.0572
40830SOL    HW129095   3.633  10.840   1.463 -0.4125 -0.8264  0.5973
40830SOL    HW229096   3.500  10.769   1.467 -0.2340 -1.3040 -1.1306
40831SOL     OW29097  11.019  11.413   7.315  0.3043 -0.4871  0.2474
40831SOL    HW129098  11.075  11.436   7.389  0.6227  0.2059 -0.1993
40831SOL    HW229099  11.076  11.417   7.239  0.4542 -3.0509  0.1390
40832SOL     OW29100  12.698  10.307   5.019  0.3493 -0.0070 -0.9850
40832SOL    HW129101  12.659  10.392   5.002  0.6655  0.0997 -1.1749
40832SOL    HW229102  12.626  10.245   5.005  0.1524  0.2161 -0.9711
40833SOL     OW29103  11.032  10.246   8.348  0.3758  0.1253 -0.3010
40833SOL    HW129104  11.094  10.228   8.278  0.5463  1.8121 -0.6160
40833SOL    HW229105  11.086  10.270   8.423  0.1364  0.6443 -0.2899
40834SOL     OW29106  11.185   5.865   4.794  0.2096 -0.2917  0.4470
40834SOL    HW129107  11.195   5.849   4.701 -0.3303  0.6863  0.2077
40834SOL    HW229108  11.259   5.922   4.817 -0.0405  0.0238  0.4720
40835SOL     OW29109   7.623   1.079   8.948 -0.0362  0.8210  0.4147
40835SOL    HW129110   7.702   1.087   8.893  0.9332 -3.2037  0.9351
40835SOL    HW229111   7.656   1.050   9.033 -2.0252 -3.1591  0.0534
40836SOL     OW29112   3.359   6.764   2.550 -0.1507  0.9563 -0.1519
40836SOL    HW129113   3.379   6.690   2.493  1.3645  1.3288 -0.1444
40836SOL    HW229114   3.276   6.799   2.515 -0.4754 -0.2438 -0.6346
40837SOL     OW29115  10.480   9.106   5.734  0.0367 -0.5207  0.3851
40837SOL    HW129116  10.470   9.145   5.647  2.5714 -1.2068 -0.3199
40837SOL    HW229117  10.518   9.175   5.787  0.6563 -0.7717  0.2796
40838SOL     OW29118  11.320   5.501  12.231  0.5301 -0.1430  0.2210
40838SOL    HW129119  11.244   5.465  12.277 -0.0529 -1.5898 -1.7605
40838SOL    HW229120  11.341   5.581  12.279 -1.3263 -0.4737  1.6939
40839SOL     OW29121  11.977  10.545   0.203 -0.5815 -0.0500  0.7316
40839SOL    HW129122  12.038  10.473   0.192 -1.7078 -1.2667  2.1406
40839SOL    HW229123  12.029  10.616   0.240  0.6320  0.0699 -1.0785
40840SOL     OW29124   0.973  12.302   9.549  0.0809  0.3334  0.4879
40840SOL    HW129125   0.941  12.343   9.469  1.7282 -0.0982 -0.4332
40840SOL    HW229126   0.899  12.252   9.582 -0.1202 -1.0096 -1.8054
40841SOL     OW29127   3.188   4.507   8.950 -0.2451 -0.4069 -0.2776
40841SOL    HW129128   3.228   4.420   8.960  2.1114  0.5075 -0.9778
40841SOL    HW229129   3.199   4.529   8.858 -0.3654  0.8242 -0.0238
40842SOL     OW29130   6.511   9.508   8.204  0.0955  0.4606  0.2015
40842SOL    HW129131   6.432   9.512   8.257 -0.3901  0.6219 -0.5134
40842SOL    HW229132   6.484   9.463   8.124  1.0831 -0.8305  0.5519
40843SOL     OW29133   8.073   9.028   1.072  0.2986 -0.7311 -0.2231
40843SOL    HW129134   8.101   9.112   1.037 -1.2341  0.3249  0.9590
40843SOL    HW229135   7.978   9.035   1.081  0.4203 -1.2674  3.0378
40844SOL     OW29136  12.153   1.738   8.549  0.4690  0.4212 -0.2860
40844SOL    HW129137  12.222   1.802   8.529  2.5671 -2.2002 -2.0650
40844SOL    HW229138  12.174   1.707   8.637  0.8486  0.4736 -0.3573
40845SOL     OW29139   1.401   0.432   3.705 -0.0591  0.0487  0.3837
40845SOL    HW129140   1.471   0.433   3.639  0.8319 -0.8540  1.2743
40845SOL    HW229141   1.324   0.465   3.659  0.9816  1.2209 -0.5823
40846SOL     OW29142   6.113   1.870   0.074 -0.4816  0.1088  0.0011
40846SOL    HW129143   6.023   1.882   0.043 -0.6841  0.1069  0.5693
40846SOL    HW229144   6.168   1.905   0.003 -0.9362  0.3137 -0.2566
40847SOL     OW29145   4.720   3.933   8.710  0.3595  0.3731 -0.6746
40847SOL    HW129146   4.754   4.018   8.682  2.3080 -0.9659 -2.7254
40847SOL    HW229147   4.677   3.897   8.632  0.4158 -0.9198 -0.1341
40848SOL     OW29148   0.773   2.673   4.443  0.2189 -0.0903 -0.5197
40848SOL    HW129149   0.682   2.677   4.413  0.4106 -0.0620 -1.1078
40848SOL    HW229150   0.820   2.731   4.384  0.6735 -0.3459 -0.4112
40849SOL     OW29151   7.089   4.491   6.824  0.3564 -0.0201  0.0777
40849SOL    HW129152   7.074   4.422   6.761 -1.5716 -1.5800  2.0841
40849SOL    HW229153   7.182   4.485   6.845  1.3222  1.2459 -3.2312
40850SOL     OW29154   7.601   4.736   7.999 -0.9987  0.3021 -0.2608
40850SOL    HW129155   7.587   4.830   8.008  0.3948  0.4125  1.1467
40850SOL    HW229156   7.654   4.727   7.920  1.7049  1.0719  1.3542
40851SOL     OW29157   7.059  11.350   1.673 -0.6803 -0.2005  0.4107
40851SOL    HW129158   6.984  11.348   1.614 -0.1601 -1.6198 -0.2571
40851SOL    HW229159   7.129  11.389   1.621 -0.7494  0.4275  0.7823
40852SOL     OW29160  12.749   3.395   8.572 -0.4286  0.3853 -0.5210
40852SOL    HW129161  12.710   3.404   8.659  1.1184  1.0653  0.1433
40852SOL    HW229162  12.724   3.307   8.544 -2.7881  0.9236 -0.3646
40853SOL     OW29163   6.611   5.418   1.999  0.3758 -0.3826 -0.1523
40853SOL    HW129164   6.565   5.475   1.938 -0.8103 -1.2300 -0.0870
40853SOL    HW229165   6.698   5.408   1.962  1.0448  2.3919  0.4488
40854SOL     OW29166   4.484   7.703   2.723  0.5231  0.3614 -0.0977
40854SOL    HW129167   4.470   7.630   2.784  0.3150  1.7761  1.6437
40854SOL    HW229168   4.501   7.661   2.639  1.7973 -1.7378  1.1134
40855SOL     OW29169  11.749   9.945   4.741  0.5317  0.2978  0.5662
40855SOL    HW129170  11.695   9.973   4.667  1.2926  0.8991  0.2195
40855SOL    HW229171  11.731  10.010   4.809  0.4599  0.2260  0.6155
40856SOL     OW29172   4.185   6.817   8.649  0.1309 -0.3870 -0.1417
40856SOL    HW129173   4.242   6.814   8.726 -2.1764 -1.9902  1.6463
40856SOL    HW229174   4.112   6.873   8.676 -0.8683 -1.2248 -1.0438
40857SOL     OW29175   9.135  10.118   4.059 -0.1876 -0.2988 -0.5808
40857SOL    HW129176   9.160  10.065   3.983  0.0799  0.1568 -0.8203
40857SOL    HW229177   9.075  10.184   4.023  1.7777  1.4293 -0.8991
40858SOL     OW29178   5.252  10.072  11.370  0.3727  0.2401  0.0101
40858SOL    HW129179   5.181  10.113  11.321  0.2912 -0.5825 -0.5655
40858SOL    HW229180   5.332  10.108  11.330  0.2929  0.6569  0.2210
40859SOL     OW29181   1.527   4.359  11.634  0.3137 -0.3013  0.1392
40859SOL    HW129182   1.523   4.363  11.730  0.4196 -0.3033  0.1430
40859SOL    HW229183   1.581   4.283  11.615  1.0722  0.2321  0.0886
40860SOL     OW29184   6.140   4.241   7.130 -0.5599 -0.6739  0.0100
40860SOL    HW129185   6.073   4.280   7.186  1.2975  1.0950  1.1305
40860SOL    HW229186   6.178   4.316   7.083  1.6151 -1.3696  0.5474
40861SOL     OW29187   6.764   5.256   9.948  0.5186 -0.5277  0.1374
40861SOL    HW129188   6.728   5.169   9.965  1.0163 -0.8027 -0.2027
40861SOL    HW229189   6.734   5.278   9.860 -1.3373  0.5348  0.9699
40862SOL     OW29190   9.998   8.468   6.103 -0.6241 -0.1345 -0.1048
40862SOL    HW129191   9.944   8.392   6.125 -1.9061  1.0191  0.9196
40862SOL    HW229192  10.005   8.518   6.184 -0.4230  1.2009 -0.9008
40863SOL     OW29193   4.515   6.175   1.455 -0.3442  0.1596 -0.4020
40863SOL    HW129194   4.539   6.099   1.401 -3.5460 -0.8679 -0.5983
40863SOL    HW229195   4.497   6.245   1.392 -2.5570 -0.5786 -0.6723
40864SOL     OW29196   3.078   0.239   4.677 -0.2707  0.0583  0.4540
40864SOL    HW129197   3.154   0.287   4.642 -0.3483  0.1936  0.4723
40864SOL    HW229198   3.060   0.281   4.761 -0.5567  0.2249  0.3117
40865SOL     OW29199   3.197   1.568   7.580 -0.1245 -0.0618  0.0996
40865SOL    HW129200   3.245   1.489   7.604 -0.6881 -0.4763 -0.1148
40865SOL    HW229201   3.250   1.609   7.511  0.3132 -0.0948  0.4132
40866SOL     OW29202   2.308   8.174   9.046 -0.3628 -0.1753 -0.1956
40866SOL    HW129203   2.401   8.193   9.037 -0.6305  0.6503 -1.7351
40866SOL    HW229204   2.284   8.131   8.964 -1.3913 -0.0847  0.0334
40867SOL     OW29205  11.238   7.731   7.673  0.1845 -0.5712 -0.2276
40867SOL    HW129206  11.267   7.778   7.751 -1.0978 -0.1030 -0.0052
40867SOL    HW229207  11.315   7.727   7.617  1.1633 -1.0142  1.1039
40868SOL     OW29208   0.424   0.987   8.286  0.2877 -0.9280 -0.3346
40868SOL    HW129209   0.355   0.927   8.316 -1.5066 -0.0231 -2.3535
40868SOL    HW229210   0.499   0.967   8.341 -1.6165 -1.8778  2.1176
40869SOL     OW29211   5.312   0.528   3.980  0.1593  0.5343  0.0758
40869SOL    HW129212   5.257   0.504   3.906  1.1342  2.2508 -1.2868
40869SOL    HW229213   5.387   0.468   3.975  0.3796  0.8484 -0.5599
40870SOL     OW29214   9.066   3.548   0.961  0.2949  0.3301  0.5655
40870SOL    HW129215   9.013   3.514   1.034 -0.5868  1.6925  0.5950
40870SOL    HW229216   9.143   3.586   1.002  0.0891  0.5556  0.7471
40871SOL     OW29217  12.498   0.252   7.327 -0.0153  0.1869 -0.1153
40871SOL    HW129218  12.473   0.183   7.265  0.1059  0.6098 -0.6354
40871SOL    HW229219  12.548   0.206   7.395 -0.4224 -0.3305 -0.1583
40872SOL     OW29220  11.826   2.527   5.131  0.3657  0.4924 -0.2132
40872SOL    HW129221  11.847   2.604   5.184  0.8501  1.0691 -1.2091
40872SOL    HW229222  11.911   2.495   5.100  0.0147  1.6433 -2.6348
40873SOL     OW29223   6.247   3.920   8.305  0.5734 -0.6249  0.1485
40873SOL    HW129224   6.293   3.941   8.386  2.0881 -0.9858 -0.5884
40873SOL    HW229225   6.295   3.845   8.268 -1.3878 -1.8916 -0.0206
40874SOL     OW29226   9.135  11.738   6.059  0.0030  0.5462  0.1755
40874SOL    HW129227   9.163  11.651   6.087  1.7012  1.0058  0.0255
40874SOL    HW229228   9.121  11.785   6.141 -1.2871  0.0408  0.2614
40875SOL     OW29229   3.577   3.744   0.452 -0.0052 -0.2934 -0.3429
40875SOL    HW129230   3.630   3.767   0.528 -0.8610  1.4159 -0.2251
40875SOL    HW229231   3.496   3.709   0.489 -1.2459  2.3775 -0.3507
40876SOL     OW29232   9.896   8.153   8.216 -0.1269  0.3694  0.1809
40876SOL    HW129233   9.954   8.086   8.252 -0.8048  0.4001  1.4016
40876SOL    HW229234   9.819   8.105   8.187 -0.4167  0.5561  0.6247
40877SOL     OW29235   5.183   3.096   1.263  0.0473 -0.4280  0.3227
40877SOL    HW129236   5.157   3.150   1.338  0.7061  0.4959 -0.0898
40877SOL    HW229237   5.255   3.042   1.296  0.3367 -0.0240  0.3677
40878SOL     OW29238   3.066   8.679   1.357  0.1446 -0.0916 -0.1587
40878SOL    HW129239   3.050   8.739   1.284 -0.0992  0.0223 -0.0092
40878SOL    HW229240   3.012   8.712   1.428  0.2249 -0.3255  0.0114
40879SOL     OW29241  11.595   3.881   1.968 -0.2632 -0.1280 -0.0250
40879SOL    HW129242  11.605   3.820   1.895 -1.9475  0.0479 -0.4478
40879SOL    HW229243  11.685   3.904   1.993  0.4128 -2.5125 -0.0462
40880SOL     OW29244   1.809   0.209   7.035  0.0486 -0.2665 -0.1600
40880SOL    HW129245   1.852   0.173   7.112  2.2957  0.6412 -0.9070
40880SOL    HW229246   1.734   0.257   7.069  0.0180 -1.2868  1.2840
40881SOL     OW29247   5.687  12.192  12.113  0.4692 -0.2452  0.6226
40881SOL    HW129248   5.662  12.247  12.039 -1.5661 -1.0161  0.6698
40881SOL    HW229249   5.752  12.244  12.160  0.2173  1.1827 -0.5226
40882SOL     OW29250   7.341  11.106   5.970  0.0277  0.0765 -0.7970
40882SOL    HW129251   7.423  11.057   5.973 -0.2580 -0.3677  0.6643
40882SOL    HW229252   7.293  11.067   5.898 -0.3397 -2.1170  0.5291
40883SOL     OW29253   0.609  10.347  11.148  0.3076  0.1499  0.4934
40883SOL    HW129254   0.578  10.257  11.139  2.1565 -0.4848  0.1740
40883SOL    HW229255   0.538  10.401  11.111 -1.6060 -0.9970  2.2305
40884SOL     OW29256   5.544  10.056   5.153  0.3574 -0.0909 -0.0123
40884SOL    HW129257   5.592  10.118   5.098 -0.1867  0.4929  0.1559
40884SOL    HW229258   5.601  10.041   5.229  0.2679  0.6102  0.1967
40885SOL     OW29259   8.917   3.633  10.439  0.0836  0.3785  0.6757
40885SOL    HW129260   8.964   3.600  10.362  0.4363 -1.3980  1.5975
40885SOL    HW229261   8.834   3.585  10.439  0.0665  0.3937  1.3594
40886SOL     OW29262   5.156  10.170   9.901 -0.5916 -0.1456 -0.2766
40886SOL    HW129263   5.240  10.173   9.946 -1.2910  2.3829  1.0557
40886SOL    HW229264   5.128  10.078   9.908  1.3800 -0.7344  0.4657
40887SOL     OW29265   5.116  10.434   5.520  0.0060  0.0565  0.1077
40887SOL    HW129266   5.050  10.383   5.567 -2.3427  1.6248 -1.2193
40887SOL    HW229267   5.117  10.519   5.565  1.6344 -0.1171  0.4662
40888SOL     OW29268  12.739  11.206   5.765 -0.2152 -0.3685  0.2410
40888SOL    HW129269  12.651  11.192   5.801 -0.0248 -0.6902  0.5863
40888SOL    HW229270  12.736  11.166   5.678 -0.3970 -0.4074  0.2636
40889SOL     OW29271   6.250   9.192   2.565  0.2764 -0.6075 -0.1000
40889SOL    HW129272   6.282   9.190   2.655  2.8305  1.3940 -0.8462
40889SOL    HW229273   6.168   9.240   2.570  1.1283  0.8030  1.0052
40890SOL     OW29274   8.647   3.153   6.373 -0.3968 -0.5860 -0.7413
40890SOL    HW129275   8.692   3.237   6.365  0.5528 -1.1586 -1.7418
40890SOL    HW229276   8.604   3.140   6.289  0.9574 -1.8923 -1.2834
40891SOL     OW29277   8.699   9.061  12.775  0.0146  0.0315 -0.2229
40891SOL    HW129278   8.649   9.106  12.708  0.5672  0.9301 -0.0474
40891SOL    HW229279   8.757   9.002  12.727  1.5045  1.7621 -0.6879
40892SOL     OW29280   0.655   8.317   7.988  0.3117 -0.3222 -0.1051
40892SOL    HW129281   0.697   8.246   8.037 -0.6609 -0.9068 -0.0760
40892SOL    HW229282   0.704   8.321   7.905 -0.5116 -2.0512 -0.7323
40893SOL     OW29283  12.734   7.540   8.498  0.1807  0.5178 -0.1116
40893SOL    HW129284  12.723   7.451   8.533 -2.2790  1.0949  0.7675
40893SOL    HW229285  12.816   7.571   8.538  0.3400 -0.8417  0.6897
40894SOL     OW29286   6.411   5.853   8.642  0.0517  0.6474 -0.0501
40894SOL    HW129287   6.397   5.930   8.587 -1.9156  0.6745  0.4423
40894SOL    HW229288   6.324   5.817   8.657  0.5487  0.3878  2.6997
40895SOL     OW29289  11.484   2.124  10.767 -0.4870  0.1376  0.1601
40895SOL    HW129290  11.491   2.209  10.725 -1.4297  1.0545  1.7521
40895SOL    HW229291  11.574   2.090  10.769 -0.4658 -0.3344 -3.1657
40896SOL     OW29292  12.144   1.877   1.786 -0.6477  0.3036  0.4199
40896SOL    HW129293  12.058   1.836   1.795 -0.4973 -0.2348 -0.3742
40896SOL    HW229294  12.161   1.875   1.692  0.0506  0.7914  0.5278
40897SOL     OW29295   0.559   8.873   9.284 -0.5143 -0.3134  0.0569
40897SOL    HW129296   0.599   8.841   9.364 -1.2689  1.6937  1.3186
40897SOL    HW229297   0.596   8.960   9.272 -0.7577 -0.4057 -1.5395
40898SOL     OW29298   8.050   1.727   3.952 -0.0845 -0.4516  0.0982
40898SOL    HW129299   7.958   1.729   3.929 -0.0693 -1.4713 -0.1020
40898SOL    HW229300   8.077   1.636   3.938  1.0500 -0.0856 -0.2604
40899SOL     OW29301   5.840   7.518   0.050 -0.1578 -0.3125 -0.1912
40899SOL    HW129302   5.805   7.582  -0.011 -0.6262  0.4162  0.8188
40899SOL    HW229303   5.767   7.499   0.109 -0.2836 -2.3698 -0.9078
40900SOL     OW29304   0.921   3.871   5.058 -0.5219  0.2427 -0.0754
40900SOL    HW129305   0.885   3.854   4.971  0.1955 -0.7250 -0.2045
40900SOL    HW229306   1.013   3.843   5.051 -0.0718  1.5102  0.5850
40901SOL     OW29307   6.958   2.833   9.182  0.8959  0.2936  0.0327
40901SOL    HW129308   7.052   2.842   9.200  1.0835  3.2429 -1.7041
40901SOL    HW229309   6.915   2.869   9.260  1.0077 -2.5035  1.5412
40902SOL     OW29310  12.213  10.279  11.301 -0.3118 -0.2508 -0.2440
40902SOL    HW129311  12.234  10.336  11.227 -1.7207 -0.4039 -0.8010
40902SOL    HW229312  12.292  10.228  11.316  0.5640  0.9736 -0.5361
40903SOL     OW29313   5.535   6.011  10.349  0.1550  0.1763  0.4640
40903SOL    HW129314   5.478   5.938  10.324 -0.7448  0.3617  1.8343
40903SOL    HW229315   5.598   5.972  10.410  0.2458  0.3683  0.4932
40904SOL     OW29316   6.403   5.727   2.092 -0.3006  0.1364  0.0205
40904SOL    HW129317   6.485   5.776   2.089 -0.4071  0.2715 -0.8255
40904SOL    HW229318   6.339   5.786   2.053 -0.6473 -0.2708 -0.0281
40905SOL     OW29319   3.036   7.031   1.666  0.2108  0.2005  0.2442
40905SOL    HW129320   3.006   7.097   1.603  0.1307 -0.5087 -0.4712
40905SOL    HW229321   3.105   6.983   1.620 -0.2515 -0.7087  0.4827
40906SOL     OW29322  11.504  12.752   2.009 -0.0114 -0.5665 -0.2699
40906SOL    HW129323  11.456  12.783   2.086  0.5317  0.8516 -0.4613
40906SOL    HW229324  11.445  12.767   1.936  0.2580  0.0674 -0.3648
40907SOL     OW29325   8.669   1.231   8.086  0.1762  0.3127 -0.1723
40907SOL    HW129326   8.761   1.204   8.093  0.3774  0.7781 -0.8812
40907SOL    HW229327   8.625   1.186   8.158  1.0923  0.6680  0.6221
40908SOL     OW29328   0.474   2.488  10.482  0.4046 -0.1800  0.2443
40908SOL    HW129329   0.533   2.461  10.411 -2.9020  1.0366 -3.3496
40908SOL    HW229330   0.516   2.565  10.521  1.9778 -0.3705 -0.9956
40909SOL     OW29331   9.433   2.301   0.524 -0.3003  0.0271 -0.1748
40909SOL    HW129332   9.403   2.265   0.441 -1.6687 -2.0111  1.1092
40909SOL    HW229333   9.364   2.363   0.550 -3.3613 -3.8896  2.2682
40910SOL     OW29334  11.793  10.715   5.532 -0.0007 -0.0882  0.3140
40910SOL    HW129335  11.810  10.809   5.522  0.3138 -0.2416 -0.6997
40910SOL    HW229336  11.842  10.674   5.460 -2.1557 -0.8137 -0.8303
40911SOL     OW29337   4.099   4.564   0.640  0.2494  0.2691 -0.2399
40911SOL    HW129338   4.102   4.468   0.646 -1.2529  0.1866 -0.3634
40911SOL    HW229339   4.150   4.584   0.561 -0.7846 -0.5878 -1.1677
40912SOL     OW29340   3.295   5.848  12.315  0.0060  0.3515  0.5244
40912SOL    HW129341   3.324   5.852  12.224 -1.2571  0.2419  0.0886
40912SOL    HW229342   3.370   5.813  12.363  0.4505 -0.2804 -0.5917
40913SOL     OW29343   7.437  10.685  11.887  0.1501  0.0338  0.6484
40913SOL    HW129344   7.516  10.653  11.842  0.2260 -0.4222  1.0926
40913SOL    HW229345   7.386  10.606  11.904 -0.4846  0.3462  0.2199
40914SOL     OW29346   8.601   7.787   3.460 -0.1284  0.6483 -0.4484
40914SOL    HW129347   8.662   7.855   3.490 -1.2188  0.6942  1.8899
40914SOL    HW229348   8.658   7.715   3.432  1.0108  1.4728 -0.3374
40915SOL     OW29349   2.092   2.053   6.951 -0.2429 -0.4151 -0.0393
40915SOL    HW129350   2.185   2.046   6.928 -0.1004 -1.1841  0.7434
40915SOL    HW229351   2.055   2.107   6.881  0.3784 -1.8119 -1.5045
40916SOL     OW29352   4.149   7.182  11.922  0.6646 -0.1768  0.0271
40916SOL    HW129353   4.109   7.134  11.994 -0.1911  1.3444  0.6185
40916SOL    HW229354   4.240   7.196  11.951  0.7573 -0.9223  0.1049
40917SOL     OW29355   0.785  12.444   2.405 -0.1895 -0.0581  0.0290
40917SOL    HW129356   0.815  12.459   2.315 -0.1429 -1.1988 -0.1526
40917SOL    HW229357   0.807  12.526   2.451 -0.2989  0.5686 -1.0098
40918SOL     OW29358   4.309   8.915  12.312  0.5883 -0.0604  0.1123
40918SOL    HW129359   4.404   8.926  12.305  0.5538  0.9290  0.8905
40918SOL    HW229360   4.297   8.868  12.395  0.4472 -1.1977 -0.5434
40919SOL     OW29361   2.741   9.666   8.069  0.7123  0.1712 -0.0680
40919SOL    HW129362   2.823   9.711   8.050  1.0837 -1.0803 -1.6478
40919SOL    HW229363   2.736   9.597   8.003 -0.3311 -1.4488  1.6157
40920SOL     OW29364   8.390   9.635   7.348  0.6629  0.1657  0.2845
40920SOL    HW129365   8.481   9.656   7.368  1.1782 -1.3567 -0.3658
40920SOL    HW229366   8.340   9.705   7.390  1.9942 -0.0643  2.3676
40921SOL     OW29367   9.599  10.641   8.095  0.1398  0.2547 -0.0948
40921SOL    HW129368   9.542  10.611   8.024  0.3594  0.2712 -0.2840
40921SOL    HW229369   9.687  10.619   8.064  0.2947  0.9572 -0.1724
40922SOL     OW29370   9.586   2.973  11.725 -0.8597 -0.3255  0.4368
40922SOL    HW129371   9.584   3.062  11.760  0.9105 -0.4699  1.0362
40922SOL    HW229372   9.617   2.983  11.635 -1.1787 -0.2854  0.3342
40923SOL     OW29373  11.571   4.391  10.230  0.3998  0.1537 -0.2919
40923SOL    HW129374  11.641   4.365  10.170  0.1311  0.0569 -0.5709
40923SOL    HW229375  11.612   4.394  10.316  1.4067  2.6768 -0.7869
40924SOL     OW29376   2.941   8.865   6.551 -0.1957  0.2955  0.6200
40924SOL    HW129377   2.998   8.835   6.480  0.4234  0.1749  1.1635
40924SOL    HW229378   2.942   8.960   6.544  1.7273  0.4087  1.8801
40925SOL     OW29379   6.650   2.189   8.131 -0.3828  0.3285  0.3642
40925SOL    HW129380   6.654   2.135   8.052  1.5012  0.8319  0.0648
40925SOL    HW229381   6.558   2.215   8.138 -0.6220  0.1706 -1.5811
40926SOL     OW29382  12.413   5.836   4.166  0.0052  0.5008  0.2082
40926SOL    HW129383  12.484   5.821   4.104  0.8781  2.4001  0.6414
40926SOL    HW229384  12.454   5.825   4.252 -0.9069 -0.9823  0.4834
40927SOL     OW29385   3.532   5.138  10.451  0.1008 -0.1731  0.5836
40927SOL    HW129386   3.558   5.229  10.461 -1.5100  0.2382  1.3430
40927SOL    HW229387   3.603   5.088  10.493  3.1304  0.3467 -3.3525
40928SOL     OW29388   0.170   4.973   1.457  0.7031  0.2760 -0.4293
40928SOL    HW129389   0.236   4.917   1.498  0.9928  0.6987 -0.3077
40928SOL    HW229390   0.143   5.032   1.526  2.2169  1.9337 -1.1532
40929SOL     OW29391   9.309   4.695  12.702  0.2804  0.2358 -0.7159
40929SOL    HW129392   9.298   4.770  12.644  1.7423 -0.4528 -1.9450
40929SOL    HW229393   9.386   4.649  12.668  0.3997 -0.9233  0.9930
40930SOL     OW29394   1.842  10.446   9.895  0.4625 -0.0330 -0.3460
40930SOL    HW129395   1.811  10.512   9.833 -2.5372 -1.9996 -1.1524
40930SOL    HW229396   1.876  10.375   9.840 -0.3058 -0.9186  0.2722
40931SOL     OW29397  12.514   6.250   8.027 -0.0947  0.6100  0.7575
40931SOL    HW129398  12.579   6.307   7.986 -0.0381  0.8199  1.1416
40931SOL    HW229399  12.430   6.282   7.995 -0.1567  1.7267  1.9647
40932SOL     OW29400   2.223   2.091   1.094 -0.2110 -0.2383  0.3068
40932SOL    HW129401   2.132   2.079   1.067  0.5321 -0.4131 -2.5103
40932SOL    HW229402   2.267   2.012   1.062  1.5409  1.4853 -1.8770
40933SOL     OW29403   0.503  11.031   0.408  0.3126  0.0644 -0.1662
40933SOL    HW129404   0.420  11.004   0.368  0.6125  0.3762 -1.0034
40933SOL    HW229405   0.478  11.065   0.494 -0.4179  0.0494 -0.3667
40934SOL     OW29406  12.601  10.030   4.624  0.0297 -0.3083 -0.1130
40934SOL    HW129407  12.654   9.974   4.567 -1.5810 -2.5769  0.5087
40934SOL    HW229408  12.590   9.980   4.704 -0.9242  1.2142  0.7578
40935SOL     OW29409   8.741  12.694   6.526 -0.4225  0.0324  0.3763
40935SOL    HW129410   8.656  12.689   6.570 -0.0917  0.7788  1.1318
40935SOL    HW229411   8.754  12.788   6.511 -0.1713 -0.1569 -0.6116
40936SOL     OW29412  10.946   8.723   7.269  0.0177 -0.3895  0.1847
40936SOL    HW129413  10.862   8.679   7.276 -0.2762  0.0134 -0.6853
40936SOL    HW229414  10.936   8.803   7.321  0.9156 -1.7962  2.7082
40937SOL     OW29415   3.206   5.320  11.184  0.1571 -0.2154 -0.4224
40937SOL    HW129416   3.207   5.225  11.194 -1.0325 -0.3022 -1.0210
40937SOL    HW229417   3.286   5.339  11.134  1.5105 -0.6469  1.4403
40938SOL     OW29418  11.238  11.341   1.580  0.2756 -0.4853 -0.0792
40938SOL    HW129419  11.244  11.246   1.568  0.0713 -0.5009 -0.0590
40938SOL    HW229420  11.144  11.358   1.589 -0.0676  0.1171 -3.4121
40939SOL     OW29421   8.001   9.772   4.422 -0.3418 -0.0038 -0.3262
40939SOL    HW129422   7.927   9.737   4.472  0.1349  0.2549  0.5668
40939SOL    HW229423   7.977   9.864   4.407  0.2113  0.3441  0.7954
40940SOL     OW29424   7.675  10.109   1.876 -0.4162 -0.5617  0.4661
40940SOL    HW129425   7.761  10.079   1.905 -0.1010 -0.8284 -0.6983
40940SOL    HW229426   7.651  10.048   1.806 -0.1156  1.3508 -1.4197
40941SOL     OW29427   6.495   2.774  11.932 -0.2970 -0.1995 -0.2776
40941SOL    HW129428   6.535   2.692  11.903  0.7757 -0.4604  1.7888
40941SOL    HW229429   6.565   2.839  11.924 -0.5821  0.1278 -0.1161
40942SOL     OW29430   5.412  10.341   1.501 -0.5637  0.2316  0.8550
40942SOL    HW129431   5.359  10.415   1.473 -0.9667 -0.2877  0.2029
40942SOL    HW229432   5.358  10.297   1.567  0.2153  1.2264  2.1891
40943SOL     OW29433   4.246   5.605   6.435 -0.2859 -0.1463 -0.0376
40943SOL    HW129434   4.156   5.575   6.447 -0.5741  0.5109 -0.4866
40943SOL    HW229435   4.239   5.700   6.423  0.5415  0.0166  0.6870
40944SOL     OW29436   8.306   0.739  11.977  0.1570  0.6544 -0.1552
40944SOL    HW129437   8.357   0.775  12.050 -0.4884 -1.2616  1.3369
40944SOL    HW229438   8.215   0.764  11.996  0.0578  0.6944 -0.6621
40945SOL     OW29439   0.133   6.612   1.488  0.3182 -0.5012 -0.2419
40945SOL    HW129440   0.127   6.690   1.544  3.2824 -1.3787  1.5617
40945SOL    HW229441   0.166   6.646   1.404  2.1033  0.2171  0.6878
40946SOL     OW29442   9.161  11.945   0.893 -0.1734  0.4872  0.1632
40946SOL    HW129443   9.089  11.984   0.844  0.7535  1.6897 -0.2832
40946SOL    HW229444   9.120  11.908   0.971 -1.2613  1.2378 -0.0375
40947SOL     OW29445   3.739   8.758   1.698  0.2611 -0.5809 -0.2396
40947SOL    HW129446   3.707   8.755   1.788 -0.4697 -0.1618 -0.4723
40947SOL    HW229447   3.729   8.850   1.672 -1.7917 -1.0819 -1.5094
40948SOL     OW29448  11.963   0.881   5.617 -0.1000 -0.0677  0.2810
40948SOL    HW129449  11.891   0.828   5.584  0.3093 -0.7686  0.4924
40948SOL    HW229450  11.942   0.896   5.709  0.5066 -1.1242  0.6058
40949SOL     OW29451   1.722   6.660   0.269  0.4402 -0.1648  0.1407
40949SOL    HW129452   1.711   6.753   0.248 -1.4313 -0.0208  1.5363
40949SOL    HW229453   1.815   6.643   0.255  0.6527  1.6832 -0.9972
40950SOL     OW29454  11.765   9.496   6.428 -0.0560 -0.6183 -0.2030
40950SOL    HW129455  11.795   9.406   6.419 -0.1177 -0.6100 -0.4867
40950SOL    HW229456  11.730   9.519   6.342  2.3786  0.5788 -0.9748
40951SOL     OW29457   8.577   3.490   1.988  0.3066  0.1881 -0.4899
40951SOL    HW129458   8.485   3.468   1.970 -0.0047  2.1264 -1.5423
40951SOL    HW229459   8.574   3.538   2.071  0.5901 -1.0866  0.2721
40952SOL     OW29460   9.666   0.275   4.747 -0.0051  0.6370  1.0794
40952SOL    HW129461   9.588   0.244   4.793  0.3211 -1.1956  0.4685
40952SOL    HW229462   9.728   0.295   4.817 -0.4619  0.5622  1.5124
40953SOL     OW29463   7.729  11.124  11.128  0.1237  0.0311 -0.3048
40953SOL    HW129464   7.644  11.079  11.137 -0.4278  0.9705 -0.6412
40953SOL    HW229465   7.732  11.184  11.202  0.5086 -0.0112 -0.2840
40954SOL     OW29466   9.349   9.716   5.476 -0.5131 -0.6165  0.2206
40954SOL    HW129467   9.345   9.631   5.520  0.7189 -1.8539 -1.8722
40954SOL    HW229468   9.307   9.701   5.391  1.1800  0.3688 -0.8402
40955SOL     OW29469   3.073   4.380  10.930  0.2808  0.0974 -0.2323
40955SOL    HW129470   3.079   4.444  11.000  2.0592  0.4285 -0.6357
40955SOL    HW229471   3.148   4.399  10.873  0.4724 -1.8912 -0.7269
40956SOL     OW29472   9.949   5.577   3.333 -0.2115 -0.5582 -0.3278
40956SOL    HW129473   9.988   5.490   3.334 -0.1168 -0.5084  0.2451
40956SOL    HW229474   9.857   5.563   3.355 -0.1024 -0.4670  0.1876
40957SOL     OW29475   7.085   3.501   6.110  0.5519 -0.1125 -0.0943
40957SOL    HW129476   7.143   3.519   6.184 -0.2034  0.2479  0.4261
40957SOL    HW229477   7.136   3.524   6.033  1.0110  0.4708  0.3729
40958SOL     OW29478  11.290   3.707   7.476 -0.1023 -0.7637 -0.1493
40958SOL    HW129479  11.204   3.719   7.515 -0.0277 -0.7540  0.0167
40958SOL    HW229480  11.341   3.664   7.545  0.9276  1.9812  0.9457
40959SOL     OW29481   6.671   6.033   0.009 -0.3218  0.1103 -0.2473
40959SOL    HW129482   6.694   5.941   0.019 -1.7931 -0.1802  0.8496
40959SOL    HW229483   6.668   6.047  -0.086 -0.5150 -1.1002 -0.4395
40960SOL     OW29484   4.441   4.423   5.805 -0.1925 -0.6840  0.1880
40960SOL    HW129485   4.524   4.433   5.851  0.0620  0.7037 -0.5051
40960SOL    HW229486   4.384   4.490   5.844 -0.5045 -0.6195 -0.3630
40961SOL     OW29487   2.055   4.633   3.155  0.4997  0.0956  0.1324
40961SOL    HW129488   2.080   4.569   3.221  1.1190  0.9262  0.7293
40961SOL    HW229489   2.105   4.711   3.177 -2.7418  1.9996  1.6141
40962SOL     OW29490   8.666   0.948   3.628 -0.0863 -0.0760  0.3947
40962SOL    HW129491   8.644   0.983   3.715  0.7159 -0.1342  0.6264
40962SOL    HW229492   8.614   1.001   3.567 -0.1724  0.3855  0.8644
40963SOL     OW29493   8.483   4.845   3.219 -0.2647 -0.1462  0.1347
40963SOL    HW129494   8.567   4.818   3.257  1.8509  2.0619 -2.5060
40963SOL    HW229495   8.455   4.770   3.166  1.6851  0.0469 -1.3063
40964SOL     OW29496  12.133   9.896   4.059 -0.0603 -0.0542  0.6712
40964SOL    HW129497  12.050   9.851   4.039  0.7155 -0.9419 -0.6906
40964SOL    HW229498  12.128   9.978   4.010  0.3804 -0.6805 -0.4569
40965SOL     OW29499  12.237  10.442   0.193  0.4023 -0.2634  0.1824
40965SOL    HW129500  12.322  10.486   0.192  1.0099 -1.3623  1.2271
40965SOL    HW229501  12.235  10.395   0.276 -1.3542 -0.0501  0.3134
40966SOL     OW29502   0.636   2.963   5.739  0.5662 -0.4974 -0.3959
40966SOL    HW129503   0.643   2.987   5.832  2.4118  1.6335 -0.9814
40966SOL    HW229504   0.547   2.988   5.715 -0.4387 -2.4252  1.0771
40967SOL     OW29505   9.354   1.008   1.444 -0.1143 -0.1033  0.1689
40967SOL    HW129506   9.375   0.959   1.365  1.7114 -1.7359  1.5777
40967SOL    HW229507   9.274   0.967   1.477 -0.7769  0.4631 -0.6754
40968SOL     OW29508   1.463  10.767  10.534  0.2446  0.2943 -0.3150
40968SOL    HW129509   1.546  10.743  10.575 -0.3634 -1.1010  0.1518
40968SOL    HW229510   1.396  10.723  10.586 -0.7652  1.0315 -0.9459
40969SOL     OW29511  11.929   0.102  12.085  0.5387  0.0535  0.2799
40969SOL    HW129512  11.911   0.178  12.030  1.7905 -0.6802 -1.2167
40969SOL    HW229513  12.005   0.060  12.044  0.2238 -1.6940  1.3726
40970SOL     OW29514   6.400   0.081   3.439 -0.2248 -0.6758 -0.1600
40970SOL    HW129515   6.315   0.041   3.417 -0.0338 -1.1108 -0.1105
40970SOL    HW229516   6.384   0.127   3.521 -0.7158  0.2249 -0.7441
40971SOL     OW29517  12.097   9.278   4.848  0.2407 -0.2830  0.1744
40971SOL    HW129518  12.112   9.247   4.937  0.4595 -0.3228  0.1241
40971SOL    HW229519  12.182   9.268   4.804  0.2748  0.2437  0.1136
40972SOL     OW29520   7.616   5.868  10.513 -0.4579  0.0079 -0.0696
40972SOL    HW129521   7.614   5.954  10.472 -1.0299 -0.1266 -0.3369
40972SOL    HW229522   7.528   5.855  10.547  0.0783  0.2400  1.4907
40973SOL     OW29523   6.369   6.809   6.972 -0.0692  0.1034 -0.2255
40973SOL    HW129524   6.431   6.878   6.995  0.7396 -0.5465 -0.3837
40973SOL    HW229525   6.417   6.754   6.910 -0.3070 -1.1662  0.6674
40974SOL     OW29526   2.944  10.130   4.320  0.5124 -0.0731  0.0941
40974SOL    HW129527   2.926  10.190   4.249  0.4186 -0.6833 -0.4070
40974SOL    HW229528   2.916  10.044   4.287 -1.6699 -0.0450  1.6816
40975SOL     OW29529   7.969   6.362   3.074  0.8482  0.1414  0.1587
40975SOL    HW129530   7.901   6.351   3.140  1.8761  0.9224  1.4107
40975SOL    HW229531   7.933   6.322   2.995 -0.7352 -0.1366  0.9781
40976SOL     OW29532   9.264   1.792   2.009 -0.6129 -0.2811 -0.0130
40976SOL    HW129533   9.312   1.713   1.984 -1.5084 -0.8078 -0.1414
40976SOL    HW229534   9.218   1.818   1.929 -2.4917 -1.2376  0.6930
40977SOL     OW29535  11.058   5.375   2.043  0.2211 -0.3061  0.4274
40977SOL    HW129536  10.991   5.308   2.047  0.0469 -0.1073  0.8742
40977SOL    HW229537  11.064   5.409   2.132  0.5602  0.0226  0.2842
40978SOL     OW29538  10.287  11.884   7.793  0.3830  0.1309 -0.6476
40978SOL    HW129539  10.305  11.974   7.822 -0.7560  0.6546 -1.5164
40978SOL    HW229540  10.318  11.882   7.702 -1.8963  0.4404 -1.4873
40979SOL     OW29541   2.228   1.009   2.624 -0.2125  0.3689  0.1735
40979SOL    HW129542   2.227   0.971   2.536 -1.3081 -0.2981  0.4613
40979SOL    HW229543   2.184   1.094   2.613  1.3299  1.1558 -0.2661
40980SOL     OW29544  10.405   2.959   3.415  0.1787  0.2826  0.0245
40980SOL    HW129545  10.346   2.900   3.368 -0.8257  0.4273  1.0564
40980SOL    HW229546  10.448   2.904   3.480  0.5010  0.3614 -0.1202
40981SOL     OW29547  11.730  12.341   3.119 -0.1647 -0.4022  0.6527
40981SOL    HW129548  11.811  12.294   3.136 -0.3380 -1.4750 -1.2923
40981SOL    HW229549  11.677  12.326   3.198  1.4474  0.2396  1.8992
40982SOL     OW29550   9.494   6.643   3.894 -0.1357 -0.2392  0.0738
40982SOL    HW129551   9.501   6.667   3.986 -1.1853 -2.2141  0.7223
40982SOL    HW229552   9.569   6.686   3.852 -1.8388  4.2275  0.9660
40983SOL     OW29553   1.937   0.046  10.878  0.3270  0.2117  0.2745
40983SOL    HW129554   2.002   0.049  10.807  0.7740  0.7434  0.6988
40983SOL    HW229555   1.858   0.084  10.840  1.0795  2.1813  0.5759
40984SOL     OW29556  12.298   6.483   5.652 -0.5832 -0.5533 -0.1654
40984SOL    HW129557  12.348   6.525   5.583  0.5493  1.9283  2.0108
40984SOL    HW229558  12.277   6.396   5.617 -0.1316  0.5624 -3.5703
40985SOL     OW29559  11.467  11.130  10.796 -0.3154  0.0970  0.0718
40985SOL    HW129560  11.467  11.164  10.886 -1.5701 -2.7164  1.2510
40985SOL    HW229561  11.560  11.128  10.771  0.1285  0.2631  1.5954
40986SOL     OW29562   9.845   3.514   9.445  0.0077  0.3303 -0.0671
40986SOL    HW129563   9.892   3.431   9.450 -0.8643 -0.1040  1.5875
40986SOL    HW229564   9.753   3.489   9.435 -0.2715  1.0836  0.5154
40987SOL     OW29565  10.002   3.413   2.543  0.1200 -0.0698  0.1105
40987SOL    HW129566   9.979   3.331   2.500 -1.0873 -0.6330  1.7177
40987SOL    HW229567  10.048   3.386   2.622 -2.2602  0.5965  1.8519
40988SOL     OW29568  10.111   9.237   7.367  0.3696 -0.5381  0.2830
40988SOL    HW129569  10.175   9.167   7.361  1.8371  0.7068  0.9350
40988SOL    HW229570  10.052   9.221   7.293  0.8331 -2.2547  0.2292
40989SOL     OW29571  10.491  12.271   7.002  0.2156 -0.0092  0.2758
40989SOL    HW129572  10.495  12.332   7.075  1.4067  2.2371 -1.5360
40989SOL    HW229573  10.570  12.218   7.012 -0.1118 -0.3556  1.1064
40990SOL     OW29574   5.469   5.411   2.614  0.0890 -0.0113 -0.8583
40990SOL    HW129575   5.398   5.425   2.551 -0.6154 -0.7259 -0.2439
40990SOL    HW229576   5.526   5.347   2.571 -0.1221 -0.1185 -0.9820
40991SOL     OW29577   2.839  11.940   5.693 -0.3153  0.1055 -0.1605
40991SOL    HW129578   2.902  11.921   5.623  0.4804 -1.6856  0.9859
40991SOL    HW229579   2.892  11.944   5.773 -1.3914  0.6984  0.5432
40992SOL     OW29580   4.420   7.424  10.353 -0.3878 -0.6668 -0.5466
40992SOL    HW129581   4.414   7.430  10.258 -0.0815 -0.4939 -0.5563
40992SOL    HW229582   4.378   7.341  10.375 -1.8558  0.0174 -0.6896
40993SOL     OW29583   9.446   4.298  12.507 -0.5357  0.1652 -0.0692
40993SOL    HW129584   9.506   4.224  12.497 -0.4639  0.3349 -0.9969
40993SOL    HW229585   9.361   4.258  12.524 -0.5748 -0.1458 -0.9750
40994SOL     OW29586   2.634   7.482   5.359 -0.5061  0.5448  0.1254
40994SOL    HW129587   2.578   7.406   5.343 -1.2766  0.8739  1.1991
40994SOL    HW229588   2.608   7.514   5.446  1.9659  0.1517  1.0904
40995SOL     OW29589   3.515   1.343   6.018  0.1742  0.3177  0.2302
40995SOL    HW129590   3.447   1.406   6.044 -0.1319  0.3851 -0.7052
40995SOL    HW229591   3.594   1.376   6.061  0.1301  1.6427 -0.6383
40996SOL     OW29592   7.391   3.089   8.384  0.5614 -0.1580 -0.2183
40996SOL    HW129593   7.376   3.024   8.453 -1.0907  0.0560 -0.3196
40996SOL    HW229594   7.482   3.116   8.395  0.7019 -1.0612  1.0602
40997SOL     OW29595   4.552   7.988  10.704  0.8885  0.0032 -0.0119
40997SOL    HW129596   4.575   7.957  10.617  2.4768  0.9943  0.0150
40997SOL    HW229597   4.511   8.074  10.688 -0.7031 -0.6988  0.1114
40998SOL     OW29598  10.160   2.641  10.565  0.5609  0.1237 -0.1675
40998SOL    HW129599  10.233   2.698  10.586 -0.2523  0.5324  1.7915
40998SOL    HW229600  10.110   2.689  10.499  0.7900  0.9148  0.2254
40999SOL     OW29601   4.727   6.180   8.646 -0.2883 -0.5055 -0.2146
40999SOL    HW129602   4.703   6.088   8.659 -0.2034 -0.6178 -0.8064
40999SOL    HW229603   4.659   6.230   8.690 -0.3843 -0.8532  0.0346
41000SOL     OW29604   4.164  11.758   6.590  0.2977 -0.3141 -0.1830
41000SOL    HW129605   4.090  11.727   6.538 -0.6415  1.2577  0.1449
41000SOL    HW229606   4.124  11.797   6.668  1.4895  0.1613  0.2180
41001SOL     OW29607   9.271   8.753   9.364 -0.1444 -0.6984  0.3087
41001SOL    HW129608   9.257   8.667   9.324  0.4693 -2.2720  3.1829
41001SOL    HW229609   9.210   8.755   9.438  1.1990  0.5065  1.4497
41002SOL     OW29610  12.612   7.492  10.919 -0.6500 -0.2475  0.3252
41002SOL    HW129611  12.649   7.466  11.003 -2.5029 -1.6871  0.7505
41002SOL    HW229612  12.663   7.444  10.854 -0.0781 -0.1482  0.6870
41003SOL     OW29613  10.932  12.684   6.557 -0.1961  0.5443 -0.5464
41003SOL    HW129614  11.005  12.741   6.580 -0.3014  0.4056  0.1535
41003SOL    HW229615  10.864  12.706   6.621  0.6229 -2.1047  1.3808
41004SOL     OW29616   9.533   7.433  12.209  0.1269 -0.3765  0.0501
41004SOL    HW129617   9.515   7.523  12.182  0.2575 -0.2681  0.3180
41004SOL    HW229618   9.506   7.380  12.134 -0.1320 -0.1281 -0.0380
41005SOL     OW29619   5.405   6.431   4.633  0.2197 -0.0998 -0.2749
41005SOL    HW129620   5.365   6.403   4.715  2.0659  1.2889  1.1933
41005SOL    HW229621   5.489   6.470   4.659 -0.5262  3.3891 -2.4307
41006SOL     OW29622   5.101   3.248   6.543  0.0141 -0.1065 -0.6816
41006SOL    HW129623   5.030   3.220   6.602  1.2468 -0.1411  0.8414
41006SOL    HW229624   5.147   3.167   6.521  1.6258  0.2433  1.1284
41007SOL     OW29625   4.306   2.249   1.894 -0.6702 -0.0913 -0.6358
41007SOL    HW129626   4.373   2.313   1.869 -0.1298 -1.4476 -3.0335
41007SOL    HW229627   4.354   2.166   1.903 -1.3586 -0.2661  2.2989
41008SOL     OW29628   3.790  11.771   8.906 -0.0464 -0.1028 -0.3381
41008SOL    HW129629   3.791  11.828   8.984 -1.2536 -1.7812  0.9671
41008SOL    HW229630   3.717  11.804   8.854  0.7313  0.9977 -0.7595
41009SOL     OW29631   3.605   6.893   7.414 -0.1347 -0.1369  0.2550
41009SOL    HW129632   3.681   6.943   7.443 -0.7617  1.5792 -0.9082
41009SOL    HW229633   3.631   6.860   7.328 -1.3564  2.2029 -1.1051
41010SOL     OW29634   9.365   1.582  10.066  0.3105 -0.4712 -0.4773
41010SOL    HW129635   9.359   1.542   9.979  1.7794 -0.4581 -0.6179
41010SOL    HW229636   9.275   1.606  10.088 -0.2281 -1.3877 -1.5572
41011SOL     OW29637   8.550   1.106   6.422 -0.1410  0.7964 -0.0336
41011SOL    HW129638   8.580   1.127   6.510 -1.8984  1.2564  0.5149
41011SOL    HW229639   8.608   1.156   6.364  1.8057 -0.4475  0.7486
41012SOL     OW29640   3.917   0.788  11.751  0.3222 -0.5585  0.3131
41012SOL    HW129641   3.901   0.882  11.761  0.8702 -0.4221 -0.0545
41012SOL    HW229642   3.921   0.755  11.841  4.8279  0.5944  0.7559
41013SOL     OW29643   2.387  10.019   4.419 -0.9889 -0.4330  0.2418
41013SOL    HW129644   2.377  10.038   4.326 -0.9034 -3.0010 -0.3650
41013SOL    HW229645   2.411   9.926   4.423  0.4775 -0.0719  2.7626
41014SOL     OW29646   4.591   6.559  11.827  0.3129  0.1565  0.3361
41014SOL    HW129647   4.613   6.551  11.735 -1.3207  0.2852 -0.1116
41014SOL    HW229648   4.518   6.498  11.840 -0.2801  0.9958  1.2294
41015SOL     OW29649   7.869   8.368   4.067  0.0351  0.2315 -0.1129
41015SOL    HW129650   7.844   8.312   3.993 -0.2079 -1.2469  1.0487
41015SOL    HW229651   7.937   8.425   4.032  2.5525 -2.8089 -0.6355
41016SOL     OW29652   2.216  10.797   9.636 -0.0268 -0.2186  0.7747
41016SOL    HW129653   2.280  10.867   9.618 -0.6676  0.2023  0.0655
41016SOL    HW229654   2.231  10.733   9.567 -1.3691  0.6081 -0.3471
41017SOL     OW29655   7.484   5.811   8.715 -0.2187 -0.4746  0.1120
41017SOL    HW129656   7.529   5.874   8.772 -1.2537  0.3184  0.0804
41017SOL    HW229657   7.408   5.782   8.766  0.2129 -1.6879  0.1092
41018SOL     OW29658  10.188   3.490   5.075 -0.4493 -0.3970  0.4891
41018SOL    HW129659  10.231   3.567   5.112 -0.0720  0.8481 -2.2797
41018SOL    HW229660  10.260   3.429   5.056 -0.6030 -0.8838  1.4232
41019SOL     OW29661  12.287   5.092  12.060  0.3294 -0.3745 -0.2382
41019SOL    HW129662  12.248   5.160  12.005 -1.7539 -1.2264  0.0896
41019SOL    HW229663  12.277   5.011  12.009  3.3981 -0.4252 -0.9321
41020SOL     OW29664   5.703   3.338   7.115  0.1174 -0.2923  0.2173
41020SOL    HW129665   5.713   3.277   7.189  0.3313  2.6184  2.7908
41020SOL    HW229666   5.792   3.358   7.088  0.1347  0.2390  0.6400
41021SOL     OW29667   3.628   5.291   1.407 -0.5316 -0.1415 -0.6604
41021SOL    HW129668   3.652   5.226   1.341  0.3029 -0.1121 -0.3994
41021SOL    HW229669   3.702   5.351   1.409 -1.2310  0.7333 -0.7880
41022SOL     OW29670  10.424  10.684   7.974 -0.0966 -0.3713 -0.4601
41022SOL    HW129671  10.466  10.758   8.020  0.2324  1.2841 -3.1737
41022SOL    HW229672  10.331  10.708   7.971 -0.0763 -0.3363 -0.8451
41023SOL     OW29673  11.953   2.756   9.163  0.0704  0.4714  0.1747
41023SOL    HW129674  11.861   2.738   9.182 -0.0514 -1.2818 -1.7658
41023SOL    HW229675  12.000   2.682   9.201  0.2329 -0.7721 -2.3109
41024SOL     OW29676   7.226   3.066   2.960 -0.4177 -0.4499 -0.5388
41024SOL    HW129677   7.209   3.146   3.010 -0.0917 -0.0574 -1.0484
41024SOL    HW229678   7.319   3.069   2.941 -0.7763  0.1496 -2.3915
41025SOL     OW29679   6.463  10.416   2.650 -0.0100 -0.2315 -0.0031
41025SOL    HW129680   6.499  10.475   2.715  1.2430 -0.2227 -0.6882
41025SOL    HW229681   6.432  10.341   2.700 -0.9891  0.6799  0.7984
41026SOL     OW29682   0.209   0.103  10.051  0.1669 -0.4034  0.4885
41026SOL    HW129683   0.258   0.130  10.129 -1.8012 -0.6861  1.8949
41026SOL    HW229684   0.264   0.130   9.978  2.9151 -1.6648  1.9430
41027SOL     OW29685   6.730   2.177   5.925  0.0629  0.3572  0.5634
41027SOL    HW129686   6.642   2.215   5.917  0.5035  0.9843 -2.3979
41027SOL    HW229687   6.769   2.222   6.000 -0.7660  3.0875 -0.5411
41028SOL     OW29688   3.126   1.983   0.585  0.1054  0.6938  0.3100
41028SOL    HW129689   3.205   2.028   0.553  0.4485 -0.0106  0.1363
41028SOL    HW229690   3.136   1.893   0.554  0.0342  0.1845  1.6969
41029SOL     OW29691   5.735   3.002  12.339 -0.4916 -0.0448  0.3402
41029SOL    HW129692   5.688   3.069  12.389 -3.2489  0.2453 -2.3528
41029SOL    HW229693   5.681   2.923  12.347  0.2872 -0.6566 -0.2321
41030SOL     OW29694   9.809   5.746   9.051  0.1464 -0.2638 -0.4361
41030SOL    HW129695   9.733   5.801   9.068  0.1654  0.2447 -1.8743
41030SOL    HW229696   9.783   5.659   9.081 -1.1485 -0.1694 -1.2043
41031SOL     OW29697   0.157  12.470  12.206  0.2981 -0.0134 -0.3137
41031SOL    HW129698   0.134  12.486  12.115 -2.9194  1.3895  0.6079
41031SOL    HW229699   0.195  12.553  12.237 -1.6431  0.6657  0.3858
41032SOL     OW29700   6.477   8.173   9.686 -0.0450 -0.0959 -0.0898
41032SOL    HW129701   6.558   8.224   9.680 -1.1070  1.5810 -0.9825
41032SOL    HW229702   6.495   8.094   9.636  0.3776  1.2596 -2.2054
41033SOL     OW29703   1.399  12.719   1.798 -0.2240  0.1112 -0.6836
41033SOL    HW129704   1.424  12.649   1.858  0.8288  0.6912 -0.4219
41033SOL    HW229705   1.346  12.778   1.851  0.0328  0.2128 -0.5395
41034SOL     OW29706   6.107   0.895   9.183  0.9053 -0.9419  0.3034
41034SOL    HW129707   6.092   0.801   9.187  0.0589 -0.8857 -0.7548
41034SOL    HW229708   6.098   0.926   9.273 -0.9024 -1.6024  0.3814
41035SOL     OW29709   9.826   4.537   8.059  0.6681 -0.6433  0.2826
41035SOL    HW129710   9.772   4.492   7.995 -0.0653 -0.3876  0.7038
41035SOL    HW229711   9.843   4.623   8.021 -0.7454 -0.0532  0.8987
41036SOL     OW29712   9.477  10.153   0.981  0.1247  0.1494 -0.1624
41036SOL    HW129713   9.453  10.149   1.073 -0.0484  0.6255 -0.1807
41036SOL    HW229714   9.572  10.165   0.981 -0.1260  2.6161  0.0397
41037SOL     OW29715   1.555   7.276   3.163 -0.1976  0.2795  0.7453
41037SOL    HW129716   1.648   7.277   3.142 -0.3996 -1.8095 -0.5140
41037SOL    HW229717   1.547   7.219   3.240 -0.6405 -1.6732 -0.6818
41038SOL     OW29718   1.898   8.791   2.249 -0.5302  0.2688  0.1401
41038SOL    HW129719   1.851   8.867   2.282 -0.2138  1.0054 -1.0394
41038SOL    HW229720   1.844   8.759   2.176 -0.6108 -0.5845  0.5593
41039SOL     OW29721   8.414   8.806  11.183 -0.1037 -0.0916  0.2308
41039SOL    HW129722   8.508   8.821  11.176 -0.2063  1.0154  0.8946
41039SOL    HW229723   8.379   8.831  11.098  0.0636  0.8451  0.4242
41040SOL     OW29724  10.392   9.474   9.633 -0.1038  0.0851  0.0109
41040SOL    HW129725  10.432   9.535   9.696 -0.5534  0.7738 -0.3623
41040SOL    HW229726  10.449   9.478   9.556  0.6427 -1.0175  0.4735
41041SOL     OW29727   8.315  10.196   4.743 -0.3492  0.4480  0.0666
41041SOL    HW129728   8.314  10.193   4.839 -0.7311  0.5221  0.0683
41041SOL    HW229729   8.225  10.220   4.720 -0.0501  1.2750 -0.2794
41042SOL     OW29730   5.489  12.345  12.545 -0.2769  0.6395 -0.1271
41042SOL    HW129731   5.499  12.299  12.629 -0.1211  2.4178  0.8819
41042SOL    HW229732   5.541  12.294  12.484  0.6190 -0.0305  1.1388
41043SOL     OW29733   8.245   2.305   6.568  0.0135 -0.1579 -0.8459
41043SOL    HW129734   8.237   2.235   6.502 -1.9371 -0.1162 -0.7093
41043SOL    HW229735   8.212   2.266   6.648  0.0797  0.5483 -0.4709
41044SOL     OW29736   7.752   4.805  10.386 -0.0959 -0.4678 -0.2359
41044SOL    HW129737   7.786   4.810  10.297 -1.4144  0.5839 -0.7097
41044SOL    HW229738   7.802   4.734  10.427  2.2531  0.6123 -1.0374
41045SOL     OW29739   4.992   7.830   1.578  0.5130 -0.0520  0.4163
41045SOL    HW129740   5.061   7.788   1.630  1.0238  0.2629  0.0027
41045SOL    HW229741   5.037   7.865   1.501 -0.1390  0.0065  0.0493
41046SOL     OW29742   8.040   3.371   0.486  0.4174  0.7660 -0.6542
41046SOL    HW129743   8.052   3.294   0.430  0.8090  0.2375  0.1399
41046SOL    HW229744   8.127   3.386   0.524  0.1124  1.0068 -0.0448
41047SOL     OW29745   2.715   0.886   7.404 -0.4021  0.4382  0.3326
41047SOL    HW129746   2.702   0.798   7.369 -2.0974  1.0211 -0.6171
41047SOL    HW229747   2.672   0.884   7.490 -0.3515  0.3014  0.3544
41048SOL     OW29748  11.988   9.832   4.632  0.2447  0.0394  0.0040
41048SOL    HW129749  11.918   9.886   4.669 -1.0508 -1.7811  0.3808
41048SOL    HW229750  11.972   9.745   4.668  2.5419 -0.5216 -0.1753
41049SOL     OW29751   3.780   4.217   4.948 -0.4139 -0.3189 -0.3897
41049SOL    HW129752   3.750   4.162   4.876 -0.9865  0.0643 -0.4412
41049SOL    HW229753   3.806   4.154   5.016  0.6561 -0.7015 -1.1150
41050SOL     OW29754   3.820   3.750   0.254  0.7037 -0.2100 -0.0920
41050SOL    HW129755   3.737   3.736   0.301  1.2113 -1.4061  0.4959
41050SOL    HW229756   3.807   3.832   0.207  0.4636  1.5275  2.7811
41051SOL     OW29757   3.896  11.813   0.825  0.4424 -0.3728 -0.1243
41051SOL    HW129758   3.936  11.884   0.874  0.0038  0.1892 -0.5683
41051SOL    HW229759   3.819  11.852   0.785 -1.1152 -1.6698  1.4771
41052SOL     OW29760   2.193   8.929   0.703  0.0093 -0.4829 -0.0417
41052SOL    HW129761   2.266   8.933   0.765  0.6203  1.4682 -0.7894
41052SOL    HW229762   2.223   8.867   0.636 -0.2367 -1.8247  1.0375
41053SOL     OW29763   2.289  11.079   5.171  0.2391  0.4267  0.3107
41053SOL    HW129764   2.345  11.126   5.233  1.2604  1.3057 -1.1978
41053SOL    HW229765   2.260  11.147   5.109  1.7731 -0.8660 -1.9503
41054SOL     OW29766   6.555  11.113   0.592 -0.2742 -0.6279 -0.2145
41054SOL    HW129767   6.567  11.061   0.671  1.1843 -1.6521 -1.0740
41054SOL    HW229768   6.568  11.204   0.621 -0.5883 -0.9009  0.8511
41055SOL     OW29769   0.332   1.041   9.718  0.1389 -0.0870  0.0293
41055SOL    HW129770   0.424   1.039   9.690  0.1205 -0.0414 -0.0345
41055SOL    HW229771   0.304   0.950   9.714 -0.4442  0.1343 -2.0308
41056SOL     OW29772   2.420   2.810   7.525 -0.7837 -0.0629  0.0430
41056SOL    HW129773   2.382   2.726   7.500  0.7605 -0.7280 -0.1878
41056SOL    HW229774   2.388   2.871   7.458 -0.6045 -0.8173 -0.7525
41057SOL     OW29775   6.389   0.841  10.968 -0.5889  0.0106  0.4496
41057SOL    HW129776   6.441   0.761  10.976  1.2481  1.2098  1.1842
41057SOL    HW229777   6.319   0.830  11.032 -0.7813 -1.2697  0.0619
41058SOL     OW29778  12.278  11.578   5.624 -0.3436 -0.2360 -0.1023
41058SOL    HW129779  12.286  11.544   5.536 -1.0906 -1.9919  0.4581
41058SOL    HW229780  12.360  11.555   5.667  0.6512  1.9374 -0.7005
41059SOL     OW29781   6.225   8.892   2.781  0.0569  0.5278  0.0829
41059SOL    HW129782   6.224   8.803   2.816 -0.2250  0.1016 -0.9586
41059SOL    HW229783   6.133   8.917   2.773 -0.1758 -0.7777 -3.5862
41060SOL     OW29784   9.507   8.817   9.190 -0.1033  0.2375 -0.5257
41060SOL    HW129785   9.425   8.837   9.236 -0.0728  1.0655 -0.8191
41060SOL    HW229786   9.521   8.724   9.206  0.2338  0.6058  1.7071
41061SOL     OW29787  12.120  11.681   7.738 -0.6453 -0.5341  0.3726
41061SOL    HW129788  12.041  11.735   7.742  0.4437  1.0627  1.6687
41061SOL    HW229789  12.137  11.657   7.829 -0.4715 -2.1738 -0.0619
41062SOL     OW29790   3.261   0.541   0.785 -0.1899 -0.4910  0.3098
41062SOL    HW129791   3.249   0.504   0.872 -0.3961 -1.5629 -0.1668
41062SOL    HW229792   3.352   0.522   0.763  0.4848  1.5116  1.0596
41063SOL     OW29793   0.991   6.400  12.742 -0.5149  0.9481  0.1236
41063SOL    HW129794   0.921   6.462  12.725  1.0977  2.2459 -2.3455
41063SOL    HW229795   1.071   6.452  12.741  0.7106 -0.8231  0.3147
41064SOL     OW29796   7.073   9.040  11.858  0.1018  0.1349 -0.0157
41064SOL    HW129797   7.153   9.082  11.891 -0.3647  0.6748  0.4466
41064SOL    HW229798   7.058   8.967  11.917 -0.2937  0.6280  0.4987
41065SOL     OW29799   5.002   0.884   2.607 -0.8325 -0.2965 -0.4795
41065SOL    HW129800   5.036   0.969   2.578 -1.2811  0.0980  0.1197
41065SOL    HW229801   4.931   0.906   2.667  0.7592 -1.0381  1.8257
41066SOL     OW29802   5.098  11.284   1.788  0.0857  0.2910  0.0265
41066SOL    HW129803   5.158  11.351   1.754 -1.3252  1.3397 -0.4784
41066SOL    HW229804   5.041  11.263   1.714 -0.2685 -0.5918  0.5333
41067SOL     OW29805   5.819  10.433   6.518 -0.0580  0.5508  0.0187
41067SOL    HW129806   5.790  10.523   6.530  0.8445  1.1463 -1.8703
41067SOL    HW229807   5.800  10.413   6.426 -0.2808 -1.2200  0.4085
41068SOL     OW29808  11.739   1.591  12.317  0.1296 -0.1636 -0.4879
41068SOL    HW129809  11.809   1.639  12.362  0.0800  0.0657 -0.6577
41068SOL    HW229810  11.780   1.557  12.238  0.2108 -0.5482 -0.2881
41069SOL     OW29811   6.602  11.969   8.729  0.2312  0.5891 -0.0558
41069SOL    HW129812   6.540  11.908   8.689  1.9122  0.5609 -2.8698
41069SOL    HW229813   6.680  11.916   8.746  0.2860  1.0932  1.3562
41070SOL     OW29814   8.738  12.447   6.387 -0.2522 -0.0085  0.7234
41070SOL    HW129815   8.720  12.536   6.416  0.0654  0.1105  0.5606
41070SOL    HW229816   8.822  12.425   6.427 -0.2151 -0.1478  0.5726
41071SOL     OW29817   4.985   5.636   7.975 -0.2000 -0.3499  0.2338
41071SOL    HW129818   5.010   5.664   8.063  0.7801 -0.9778  0.1713
41071SOL    HW229819   4.919   5.568   7.989 -2.1735  1.4895  0.3957
41072SOL     OW29820   7.768   0.476   7.093 -0.1227 -0.4946  0.4519
41072SOL    HW129821   7.816   0.394   7.097 -0.5074 -0.6941  1.1284
41072SOL    HW229822   7.685   0.454   7.052 -0.5918 -0.6369  1.4489
41073SOL     OW29823   9.718   6.994  10.106  0.5952 -0.0813 -0.0631
41073SOL    HW129824   9.813   7.004  10.104  0.4968  0.9144 -0.2184
41073SOL    HW229825   9.684   7.076  10.070 -0.3351  0.0159  0.9535
41074SOL     OW29826   9.637   6.873   1.473  0.1217  0.3381  0.1793
41074SOL    HW129827   9.619   6.834   1.388  1.6664 -0.0329 -0.0093
41074SOL    HW229828   9.552   6.880   1.515 -0.5684 -0.1930 -1.0887
41075SOL     OW29829   8.591  11.058   3.039  0.6792 -0.5419 -0.3699
41075SOL    HW129830   8.660  11.044   2.974  0.5921  0.4066 -0.6896
41075SOL    HW229831   8.531  11.120   2.996  1.3517  1.2326  1.0994
41076SOL     OW29832   5.375   1.545   0.908 -0.0718 -0.2885  0.2989
41076SOL    HW129833   5.292   1.592   0.909  0.5133  0.7794  0.7509
41076SOL    HW229834   5.392   1.528   0.816 -1.2049 -1.3005  0.2606
41077SOL     OW29835   0.135   8.328   8.702 -0.4416  0.6094  0.0563
41077SOL    HW129836   0.040   8.313   8.693  0.0636 -3.1594 -0.9742
41077SOL    HW229837   0.160   8.276   8.778  0.9390  0.4862 -0.4617
41078SOL     OW29838  11.347   4.129  10.983  0.0444 -0.0824  0.0207
41078SOL    HW129839  11.403   4.052  10.991  0.1986  0.1092  0.8407
41078SOL    HW229840  11.316   4.147  11.072 -1.2379 -0.1112 -0.4029
41079SOL     OW29841   0.648   9.510   7.241 -0.0769  0.3738 -0.5956
41079SOL    HW129842   0.563   9.506   7.196 -2.0781 -1.1472  2.8760
41079SOL    HW229843   0.632   9.566   7.317  1.6414 -1.0107  0.8580
41080SOL     OW29844  12.325  10.150   0.403 -0.4740  0.1223  0.0044
41080SOL    HW129845  12.276  10.117   0.329 -0.2831 -0.9593  0.3493
41080SOL    HW229846  12.267  10.138   0.478 -0.0669 -0.2438  0.2645
41081SOL     OW29847   9.596  10.555   3.112 -0.4997  0.0685 -0.0056
41081SOL    HW129848   9.514  10.604   3.105 -0.5721 -0.0164  0.2338
41081SOL    HW229849   9.626  10.545   3.021 -2.2315 -2.4065 -0.4245
41082SOL     OW29850   5.222  12.666   1.099  0.6272 -0.0832  0.2189
41082SOL    HW129851   5.136  12.659   1.056  0.7690  3.1998 -0.8175
41082SOL    HW229852   5.284  12.674   1.027  1.2746  1.9217  0.9311
41083SOL     OW29853  10.505   6.106   3.382 -0.5483 -0.1247  0.1925
41083SOL    HW129854  10.526   6.179   3.440 -2.9699 -0.5631  1.7454
41083SOL    HW229855  10.431   6.137   3.330 -0.5688 -0.9380 -0.2878
41084SOL     OW29856   8.938  12.182   9.099  0.4830  0.1951  0.4060
41084SOL    HW129857   8.962  12.113   9.038  0.4513 -0.1858  0.8203
41084SOL    HW229858   9.015  12.239   9.103  0.0318  0.9561 -0.9734
41085SOL     OW29859   3.593   4.005   8.852  0.1737 -0.3194 -0.0599
41085SOL    HW129860   3.590   4.084   8.798  2.0001 -1.6242 -2.2311
41085SOL    HW229861   3.508   3.963   8.838 -0.8811  1.2661  1.2510
41086SOL     OW29862  12.267   2.654   6.289 -0.0002  0.0678  0.4511
41086SOL    HW129863  12.279   2.635   6.382 -1.5156 -0.2944  0.5856
41086SOL    HW229864  12.330   2.724   6.271  0.3775  0.0755  1.7229
41087SOL     OW29865   8.908   5.243   5.936 -0.1917 -0.3183  0.0963
41087SOL    HW129866   8.851   5.311   5.900 -0.2602 -0.6582 -0.4453
41087SOL    HW229867   8.984   5.291   5.969 -0.8361  0.1584  0.9677
41088SOL     OW29868   5.562   4.226  11.485 -0.3813  0.3000  0.8268
41088SOL    HW129869   5.639   4.174  11.459  0.2329  0.6403  1.8960
41088SOL    HW229870   5.488   4.180  11.446  0.1959 -1.0770  1.2929
41089SOL     OW29871  11.558   0.883   2.924 -0.0466  0.5469  0.0176
41089SOL    HW129872  11.504   0.806   2.945  1.9443 -1.1526 -0.7392
41089SOL    HW229873  11.528   0.950   2.985 -0.2871 -1.5647  2.3949
41090SOL     OW29874   2.848   9.279   3.231 -0.6386  0.6371  0.0133
41090SOL    HW129875   2.944   9.280   3.227 -0.6222 -0.1342  0.0523
41090SOL    HW229876   2.821   9.362   3.191  0.0693  1.2364  0.7504
41091SOL     OW29877   9.167   9.391   4.392 -0.5629  0.4070 -0.2114
41091SOL    HW129878   9.144   9.381   4.485  0.7254  2.1670  0.3558
41091SOL    HW229879   9.209   9.308   4.369  1.0864  0.7339  1.4361
41092SOL     OW29880   2.868   2.252   8.370  0.3186  0.0825 -0.5221
41092SOL    HW129881   2.931   2.204   8.316  0.3669  1.0161 -1.3211
41092SOL    HW229882   2.836   2.321   8.313 -1.6794 -0.5476 -0.2250
41093SOL     OW29883  12.399  12.188   6.904  0.4991 -0.0143  0.2258
41093SOL    HW129884  12.441  12.116   6.952 -0.1489  0.5138  1.6594
41093SOL    HW229885  12.444  12.267   6.935 -0.1104  0.3639  0.1611
41094SOL     OW29886  10.614   6.816  10.862 -0.3246 -0.0194 -0.0174
41094SOL    HW129887  10.596   6.812  10.956 -1.1504  1.4393 -0.0839
41094SOL    HW229888  10.561   6.745  10.824 -0.2653 -0.3807  0.5706
41095SOL     OW29889   3.772   4.002   7.022 -0.3550  0.0260  0.1416
41095SOL    HW129890   3.818   4.077   7.059  0.2989  0.4096 -1.3494
41095SOL    HW229891   3.695   4.039   6.981  0.0308 -0.0736 -0.7054
41096SOL     OW29892   3.880   7.036   4.611 -0.4249  0.3421 -0.3007
41096SOL    HW129893   3.795   7.030   4.654 -0.0457  0.5725  0.4932
41096SOL    HW229894   3.939   7.070   4.678  1.1629 -3.3607  0.4334
41097SOL     OW29895   1.325   2.451   7.036  0.0956  0.0424 -0.3149
41097SOL    HW129896   1.398   2.512   7.048 -0.3622  0.9566 -1.8019
41097SOL    HW229897   1.366   2.365   7.027  0.7113 -0.0217  2.4743
41098SOL     OW29898   0.423   2.879   6.706  0.0256 -0.2157  0.3136
41098SOL    HW129899   0.485   2.824   6.752  0.4355 -0.1785 -0.1840
41098SOL    HW229900   0.476   2.951   6.671 -0.3572  0.0177  0.2075
41099SOL     OW29901   3.374  10.861  12.292 -0.0290  0.1467 -0.1315
41099SOL    HW129902   3.310  10.789  12.291  0.4519 -0.3273  1.3289
41099SOL    HW229903   3.397  10.872  12.199 -1.4076 -0.3935 -0.5763
41100SOL     OW29904  11.495   0.209  10.246  0.8784  0.1137 -0.4623
41100SOL    HW129905  11.473   0.296  10.282 -2.1138 -0.5636 -0.3174
41100SOL    HW229906  11.425   0.192  10.183  1.7157 -1.9659 -0.8842
41101SOL     OW29907   6.971   0.268   9.329 -0.2004 -0.1103  0.3737
41101SOL    HW129908   6.976   0.363   9.316 -0.7420  0.0336  1.1530
41101SOL    HW229909   6.898   0.256   9.388  0.3292 -0.9663  0.8743
41102SOL     OW29910   2.324   1.293  11.813 -0.1705  0.2912 -0.4217
41102SOL    HW129911   2.286   1.367  11.860  0.2817  0.9962 -1.1125
41102SOL    HW229912   2.255   1.263  11.754 -0.8058 -0.7318  0.8230
41103SOL     OW29913   8.556   6.651   5.507 -0.0288 -0.0621  0.3178
41103SOL    HW129914   8.608   6.571   5.516 -0.7234 -0.4043  1.6162
41103SOL    HW229915   8.530   6.672   5.597 -1.0051  0.8482 -0.1619
41104SOL     OW29916  11.981   7.768   6.409 -0.1025 -0.6745  0.5765
41104SOL    HW129917  11.993   7.787   6.316 -0.1591 -3.8464 -0.2032
41104SOL    HW229918  11.886   7.765   6.421 -0.1099 -1.6197  0.3674
41105SOL     OW29919   9.941  10.531   1.551 -0.0086 -0.6911  0.1267
41105SOL    HW129920   9.961  10.462   1.487 -0.0015 -0.9157  0.3689
41105SOL    HW229921  10.025  10.575   1.565  0.1366 -1.0581  0.4642
41106SOL     OW29922   2.688  10.116   4.707 -0.2767 -0.1466 -0.3250
41106SOL    HW129923   2.614  10.055   4.709 -0.3097 -0.1803 -1.8050
41106SOL    HW229924   2.672  10.171   4.631 -0.3148  1.8446  1.0351
41107SOL     OW29925   1.288   0.667   5.091  0.8107 -0.3361  0.1672
41107SOL    HW129926   1.245   0.703   5.014  1.2442 -0.2838 -0.0512
41107SOL    HW229927   1.237   0.702   5.165 -0.2503 -1.2173 -0.1116
41108SOL     OW29928   8.484  12.670   6.633 -0.1407  0.2230 -0.2998
41108SOL    HW129929   8.413  12.641   6.577 -1.2886 -0.7742  1.5745
41108SOL    HW229930   8.466  12.629   6.718  0.6854  2.8078  1.2274
41109SOL     OW29931   2.152   6.924   4.713 -0.3708  0.2002  0.0187
41109SOL    HW129932   2.079   6.867   4.738  0.1666 -0.1567  0.8139
41109SOL    HW229933   2.209   6.868   4.660 -0.2328  0.2275  0.1391
41110SOL     OW29934  11.505   2.961   3.996 -0.0817  0.2152  0.7706
41110SOL    HW129935  11.559   2.911   4.056  0.7696  1.4013  1.0157
41110SOL    HW229936  11.543   2.943   3.909 -0.8909 -0.9510  0.6271
41111SOL     OW29937   9.237   5.760  11.493 -0.1039 -0.2425 -0.1612
41111SOL    HW129938   9.326   5.763  11.459  1.3873 -0.3851  3.3899
41111SOL    HW229939   9.207   5.671  11.474  0.0867  0.0646 -2.1556
41112SOL     OW29940   2.559   5.051   8.317  0.3413 -0.5409 -0.3560
41112SOL    HW129941   2.603   4.968   8.338  3.0011  0.8201 -0.1582
41112SOL    HW229942   2.558   5.054   8.222  0.9524 -0.4493 -0.3613
41113SOL     OW29943  11.014   2.935   0.708  0.2807  0.1137 -0.3221
41113SOL    HW129944  11.018   2.962   0.800 -0.8907 -1.4262  0.2223
41113SOL    HW229945  11.049   2.845   0.708  0.4163  0.1486 -1.4199
41114SOL     OW29946   7.103   2.086   5.608  0.4913 -0.1791 -0.1957
41114SOL    HW129947   7.100   2.095   5.703  0.8880 -0.6522 -0.1377
41114SOL    HW229948   7.012   2.072   5.582  0.4347 -0.4641  0.1546
41115SOL     OW29949   1.553   2.403   6.795 -0.9450  0.1714 -0.4120
41115SOL    HW129950   1.575   2.395   6.888 -1.3454 -1.8661 -0.4544
41115SOL    HW229951   1.623   2.457   6.759  0.6860 -1.1559  0.6129
41116SOL     OW29952   2.399   1.515   1.683 -0.3450 -0.1394  0.2492
41116SOL    HW129953   2.313   1.548   1.707  0.5524  1.1900  1.8959
41116SOL    HW229954   2.434   1.581   1.623  0.5964  0.8879  1.8406
41117SOL     OW29955  10.702   5.926   4.570 -0.2679 -0.7509 -0.0753
41117SOL    HW129956  10.761   5.995   4.601 -1.1270  0.3312 -0.7767
41117SOL    HW229957  10.696   5.866   4.644 -0.2827  0.4469  0.9357
41118SOL     OW29958   5.437   9.888   0.524  0.7071 -0.2259 -0.2494
41118SOL    HW129959   5.493   9.880   0.446 -0.2840  0.7751 -1.0971
41118SOL    HW229960   5.352   9.854   0.496  0.2494  0.4529  0.2726
41119SOL     OW29961   1.859  11.839   0.153  0.2220 -0.3013 -0.5693
41119SOL    HW129962   1.881  11.780   0.225  1.1840  1.0504  0.3077
41119SOL    HW229963   1.765  11.827   0.140  0.1486 -1.0491  0.4682
41120SOL     OW29964   5.815   4.787   3.869 -1.0180  0.5691  0.4153
41120SOL    HW129965   5.740   4.798   3.927 -2.8257  1.8942 -1.9680
41120SOL    HW229966   5.780   4.801   3.781  2.2092  2.3445 -0.7824
41121SOL     OW29967   5.369   6.932   6.611 -0.0829  0.1569 -0.0851
41121SOL    HW129968   5.371   7.003   6.547 -3.4865  0.6480  0.1748
41121SOL    HW229969   5.353   6.853   6.559 -0.8279  0.2730 -0.0496
41122SOL     OW29970   7.858   3.900   4.468 -0.2730  0.9684 -0.2597
41122SOL    HW129971   7.894   3.897   4.380  1.0362  0.4967  0.2627
41122SOL    HW229972   7.823   3.812   4.482 -1.2198  1.2846 -0.5930
41123SOL     OW29973   8.095   0.523   2.118  0.0668 -0.4189 -0.2884
41123SOL    HW129974   8.188   0.547   2.124  0.2809 -1.4735  1.6451
41123SOL    HW229975   8.048   0.603   2.142  0.5364 -0.2099 -0.0438
41124SOL     OW29976  10.240   7.739   6.520 -0.3278 -0.5247 -0.3628
41124SOL    HW129977  10.193   7.821   6.535  1.4202  0.2290  1.5416
41124SOL    HW229978  10.175   7.681   6.481 -2.0636  1.2667 -0.3034
41125SOL     OW29979   5.265   5.026   9.220  0.5445 -0.0391 -0.1444
41125SOL    HW129980   5.217   4.948   9.192  0.4185 -0.1868  0.4690
41125SOL    HW229981   5.252   5.029   9.315  1.6614 -0.0191  0.0243
41126SOL     OW29982   1.222   4.269   9.506 -0.6717  0.1247  0.1842
41126SOL    HW129983   1.187   4.207   9.442 -0.3494 -1.6816  1.6677
41126SOL    HW229984   1.296   4.310   9.461 -1.1074 -0.3038 -0.9629
41127SOL     OW29985   2.809   3.871   4.635 -0.0202 -0.2941  0.0157
41127SOL    HW129986   2.756   3.828   4.568 -1.5214 -3.4604  2.9125
41127SOL    HW229987   2.892   3.824   4.633 -0.1828 -0.6119  0.5207
41128SOL     OW29988  12.140  11.213  12.565  0.2532 -0.1209 -0.3736
41128SOL    HW129989  12.050  11.191  12.588  1.0171 -1.3151  1.8246
41128SOL    HW229990  12.148  11.190  12.473 -0.9897 -2.5398  0.0283
41129SOL     OW29991   4.663  10.050   6.210  0.3832  0.0185  0.2384
41129SOL    HW129992   4.726   9.984   6.180 -1.4895 -1.3301 -0.9096
41129SOL    HW229993   4.674  10.123   6.149  1.5669  0.2869  0.7327
41130SOL     OW29994   1.430   0.111   6.144  0.0071  0.0631  0.1890
41130SOL    HW129995   1.452   0.018   6.137 -0.5004  0.0135 -0.8124
41130SOL    HW229996   1.480   0.140   6.221  1.7601 -0.5675 -0.6362
41131SOL     OW29997  11.780  12.411   5.184  0.2414  0.0602  0.1733
41131SOL    HW129998  11.864  12.365   5.188 -0.2629 -0.8202  0.8492
41131SOL    HW229999  11.725  12.367   5.249 -1.3073 -0.4811 -1.4278
41132SOL     OW30000   3.916   7.691   5.909  0.0016 -0.4250  0.0121
41132SOL    HW130001   3.865   7.683   5.989  0.2291  0.3804  0.2446
41132SOL    HW230002   3.870   7.637   5.845 -0.8987 -0.0437  0.3349
41133SOL     OW30003   7.266   9.524   7.273 -0.3287 -0.2764  0.2105
41133SOL    HW130004   7.296   9.608   7.239  0.1724 -0.3395  0.4850
41133SOL    HW230005   7.334   9.462   7.247 -0.5755 -0.5503  0.2198
41134SOL     OW30006  11.479   4.705  11.593  0.2423  0.3313  0.2141
41134SOL    HW130007  11.414   4.750  11.647  0.1650  0.3540  0.1029
41134SOL    HW230008  11.563   4.735  11.628  0.3120 -2.0549  2.4297
41135SOL     OW30009   3.467   4.537   9.061  0.0168 -0.3827 -0.3392
41135SOL    HW130010   3.459   4.453   9.104  0.9082 -0.6320 -0.6275
41135SOL    HW230011   3.377   4.570   9.053 -0.3599 -1.4141 -0.4433
41136SOL     OW30012   9.052   5.024   0.472 -0.2207 -0.4329  0.5745
41136SOL    HW130013   8.977   5.008   0.415  0.4116  1.9649 -1.0681
41136SOL    HW230014   9.015   5.064   0.550 -0.6336  2.0824 -0.8180
41137SOL     OW30015   5.840   2.808   2.840 -0.1586 -0.4940  1.3421
41137SOL    HW130016   5.896   2.805   2.918  1.0493  0.7817  0.5600
41137SOL    HW230017   5.795   2.892   2.846  2.4691  1.2610 -0.9242
41138SOL     OW30018   7.706  10.159   6.989  0.4361 -0.4853  0.2556
41138SOL    HW130019   7.750  10.210   7.057 -1.0031  0.5823  0.4251
41138SOL    HW230020   7.613  10.172   7.005  0.0534 -0.8072 -1.4894
41139SOL     OW30021   7.380   9.301   7.073  0.4420 -0.7236  0.2061
41139SOL    HW130022   7.285   9.293   7.077  0.2665  1.2158  1.1941
41139SOL    HW230023   7.395   9.383   7.025  1.5205  0.0405  1.7559
41140SOL     OW30024  10.025  12.173   8.148 -0.4881  0.1806 -0.0387
41140SOL    HW130025  10.109  12.208   8.175  0.5022 -1.6499 -0.6029
41140SOL    HW230026   9.976  12.161   8.230  0.3059  0.0265  0.4159
41141SOL     OW30027   7.318   4.835  10.607  0.2401 -0.1665 -0.0612
41141SOL    HW130028   7.387   4.780  10.644 -0.0766 -0.9896 -0.6664
41141SOL    HW230029   7.288   4.787  10.530 -1.1139  0.0933  0.2758
41142SOL     OW30030   6.045  10.776   3.048  0.0067  0.1199 -0.1980
41142SOL    HW130031   6.085  10.789   3.133 -1.2056  0.3143  0.3619
41142SOL    HW230032   5.973  10.715   3.064  0.1235 -0.3083 -1.1895
41143SOL     OW30033   2.714   9.161   1.770 -0.0854  0.3688  0.1371
41143SOL    HW130034   2.794   9.119   1.802 -0.7108  0.4027  1.8478
41143SOL    HW230035   2.735   9.186   1.680  1.4117 -0.6891  0.1435
41144SOL     OW30036   9.841   0.354  11.643  0.1628 -0.5024 -0.2172
41144SOL    HW130037   9.795   0.321  11.566 -0.1099  1.5933 -0.9973
41144SOL    HW230038   9.772   0.365  11.709 -0.0802  0.3661 -0.6060
41145SOL     OW30039   2.263   4.955  10.108  0.4252 -0.0590  0.0146
41145SOL    HW130040   2.208   4.993  10.177 -0.6251  0.1539 -0.9233
41145SOL    HW230041   2.265   4.862  10.129  0.1927  0.0148  0.3857
41146SOL     OW30042   6.433   6.933   1.058  0.2460  0.1548 -0.2558
41146SOL    HW130043   6.477   7.000   1.111  1.2880  0.6172 -1.6480
41146SOL    HW230044   6.504   6.881   1.020 -0.5131 -0.9091 -0.2747
41147SOL     OW30045   5.876   7.012   1.837 -0.2816  0.0274 -0.2570
41147SOL    HW130046   5.907   7.093   1.876  0.1122  0.2334 -0.9837
41147SOL    HW230047   5.833   6.965   1.910  0.2378  0.4952  0.3634
41148SOL     OW30048  10.858   6.576   3.963  0.4960 -0.0239 -0.1434
41148SOL    HW130049  10.908   6.651   3.929  0.4330 -0.5901 -1.5623
41148SOL    HW230050  10.767   6.596   3.941  0.5167 -0.6649 -0.8404
41149SOL     OW30051   8.066   7.995   5.752  0.6687 -0.0822 -0.5984
41149SOL    HW130052   8.130   8.058   5.720  0.6081  1.1031  1.4401
41149SOL    HW230053   8.011   7.976   5.676  1.1971  1.6784 -1.4764
41150SOL     OW30054   9.119   9.138   0.530  0.4369  0.2717  0.0093
41150SOL    HW130055   9.157   9.097   0.452  1.1036  0.7017  0.1025
41150SOL    HW230056   9.044   9.186   0.498 -0.4242 -1.0862 -0.0978
41151SOL     OW30057   0.759   0.103   6.211  0.6621  0.3274  0.2223
41151SOL    HW130058   0.764   0.147   6.127 -1.6111 -1.0915 -0.7840
41151SOL    HW230059   0.679   0.137   6.251 -0.1476 -1.4279  0.2170
41152SOL     OW30060   8.597   3.685   2.186  0.3164  0.0475 -0.5309
41152SOL    HW130061   8.559   3.723   2.266 -0.7479 -0.6497 -0.6712
41152SOL    HW230062   8.564   3.741   2.115 -0.4203 -0.5043 -0.6441
41153SOL     OW30063   0.805   5.595   7.610 -0.1601  0.4082  0.2642
41153SOL    HW130064   0.818   5.667   7.549  1.2914 -1.5490 -1.8789
41153SOL    HW230065   0.883   5.595   7.665 -0.2123  0.5250  0.3390
41154SOL     OW30066   3.716   0.125  10.065  0.3960  0.1442  0.6849
41154SOL    HW130067   3.718   0.029  10.070 -0.3729  0.1605  1.6763
41154SOL    HW230068   3.805   0.152  10.088  0.5476 -0.3278  0.6643
41155SOL     OW30069   1.290  11.798   3.636  0.1397  0.2869  0.0399
41155SOL    HW130070   1.353  11.864   3.608 -1.3760  2.0490  0.6342
41155SOL    HW230071   1.214  11.812   3.580 -1.0929  0.6414  1.7495
41156SOL     OW30072  12.538   4.832  10.645  0.6630 -0.2700  0.2174
41156SOL    HW130073  12.580   4.806  10.727  1.6690  0.7821  0.0551
41156SOL    HW230074  12.476   4.900  10.670  2.6427  1.7847 -0.1147
41157SOL     OW30075   1.415   0.926   9.008  0.3119  0.0552  0.3438
41157SOL    HW130076   1.478   0.959   9.072  0.9791  0.6072 -0.5720
41157SOL    HW230077   1.429   0.980   8.930  0.2627 -1.2812 -0.6309
41158SOL     OW30078   6.421   2.791   6.051  0.3186  0.1037 -0.0479
41158SOL    HW130079   6.361   2.823   6.118 -1.7878  1.4599 -2.3596
41158SOL    HW230080   6.378   2.713   6.016  0.6672  0.2035 -0.7112
41159SOL     OW30081   0.831  10.965   7.138 -0.1803  0.2741  0.1124
41159SOL    HW130082   0.737  10.967   7.118 -0.0565  1.4934 -0.4329
41159SOL    HW230083   0.837  10.911   7.217 -1.1835 -0.9055 -0.5805
41160SOL     OW30084   8.923   0.308   0.483 -0.7173 -0.0704 -0.0701
41160SOL    HW130085   8.982   0.357   0.541 -1.3593  1.4922 -0.7012
41160SOL    HW230086   8.936   0.347   0.397 -1.4853 -0.8088 -0.5279
41161SOL     OW30087   4.610   4.065  11.384  0.4166 -0.5046 -0.3591
41161SOL    HW130088   4.646   4.123  11.451  1.0120  0.5254 -1.5277
41161SOL    HW230089   4.603   3.980  11.427  2.4086 -0.2743  0.4953
41162SOL     OW30090  11.169   6.500   3.455 -0.4347  0.1940 -0.1137
41162SOL    HW130091  11.127   6.464   3.377  0.6865  1.5917 -1.4212
41162SOL    HW230092  11.254   6.457   3.460 -0.6533 -0.1858  0.6074
41163SOL     OW30093   8.965  11.015   7.990 -0.4492 -0.1370 -0.4393
41163SOL    HW130094   8.922  11.016   8.076  0.3893  1.0583 -0.0086
41163SOL    HW230095   8.983  10.923   7.974  2.5300 -0.2230  2.3354
41164SOL     OW30096   4.457   6.837  10.210  0.2619  0.2525 -0.9464
41164SOL    HW130097   4.552   6.828  10.210  0.1960 -0.4338 -1.1829
41164SOL    HW230098   4.433   6.841  10.118  0.2526  2.6614 -0.9120
41165SOL     OW30099   8.150   7.198   3.659  0.2144  0.2193  0.3957
41165SOL    HW130100   8.094   7.193   3.737 -0.9834  0.5559 -0.4158
41165SOL    HW230101   8.127   7.282   3.619  2.3558  1.0662  0.7922
41166SOL     OW30102   1.002   5.115   0.254 -0.0143  0.3592  0.4832
41166SOL    HW130103   1.005   5.195   0.306 -1.4064  0.8629 -0.1459
41166SOL    HW230104   0.977   5.144   0.166  1.5767 -0.5436 -0.3116
41167SOL     OW30105   3.571   4.560   6.227  0.2684 -0.0609  0.0450
41167SOL    HW130106   3.501   4.567   6.162 -0.0199 -0.2267  0.3344
41167SOL    HW230107   3.577   4.647   6.265 -0.9322 -0.4586  1.1979
41168SOL     OW30108   5.429   2.482   9.792  0.2308  0.1745 -0.2526
41168SOL    HW130109   5.417   2.537   9.715  3.4995  0.6281 -0.5714
41168SOL    HW230110   5.440   2.544   9.864 -2.6436 -0.2453  0.6786
41169SOL     OW30111   2.918   5.132   4.018 -0.3688 -0.4309  0.3878
41169SOL    HW130112   2.915   5.156   3.926 -0.0090  1.8362  0.9127
41169SOL    HW230113   2.831   5.154   4.051 -0.3805 -0.8911  0.6674
41170SOL     OW30114   8.880   7.722   8.198  0.0703  0.5521  0.4938
41170SOL    HW130115   8.789   7.748   8.185 -0.3612 -0.3206  1.6255
41170SOL    HW230116   8.890   7.717   8.293  0.7249 -1.3265  0.3561
41171SOL     OW30117  11.573  10.989   3.436 -0.0995  0.0559  0.2558
41171SOL    HW130118  11.486  10.989   3.475 -1.0459  1.6550 -1.6573
41171SOL    HW230119  11.593  10.897   3.419 -0.6108 -0.4748  2.2972
41172SOL     OW30120   2.798  11.961   4.247  0.1835  0.2423 -0.0390
41172SOL    HW130121   2.890  11.988   4.242  0.6060 -1.2435 -0.7292
41172SOL    HW230122   2.755  12.031   4.297  1.5608  1.2603 -0.2252
41173SOL     OW30123   7.447  11.045   1.690  0.0155 -0.1510 -0.1074
41173SOL    HW130124   7.515  11.096   1.734 -0.1806  0.4221 -0.4454
41173SOL    HW230125   7.365  11.076   1.729 -0.1633  0.4010 -0.8835
41174SOL     OW30126  10.278   4.564   0.611 -0.4850 -0.3079 -0.6153
41174SOL    HW130127  10.217   4.517   0.554 -2.9760  2.2379 -0.2466
41174SOL    HW230128  10.222   4.615   0.670  2.0209  0.3298  1.3975
41175SOL     OW30129  12.295   9.913   6.155 -0.6856  0.6010 -0.3054
41175SOL    HW130130  12.271   9.834   6.203 -0.5589  0.9233  0.2913
41175SOL    HW230131  12.317   9.881   6.067 -0.4514 -0.0528 -0.0195
41176SOL     OW30132   8.894  11.777   2.415 -0.5618 -0.3197 -0.4018
41176SOL    HW130133   8.850  11.791   2.499  1.1529  1.3514  0.3130
41176SOL    HW230134   8.930  11.688   2.421  1.9913  0.7067  1.9702
41177SOL     OW30135   4.850   3.532   2.716  0.1056 -0.3404 -0.2272
41177SOL    HW130136   4.934   3.485   2.720 -0.6072 -1.6907 -0.5186
41177SOL    HW230137   4.858   3.600   2.783  1.4099 -0.4772 -0.2147
41178SOL     OW30138   4.163   0.586  11.653 -0.1491 -0.1359  0.7233
41178SOL    HW130139   4.121   0.643  11.589 -2.3397 -1.1674  1.1438
41178SOL    HW230140   4.175   0.640  11.731 -1.8446 -0.0747  0.9860
41179SOL     OW30141   0.869  10.567  11.746 -0.4669  0.5925 -0.1478
41179SOL    HW130142   0.938  10.547  11.683 -2.3525 -0.9900 -1.8820
41179SOL    HW230143   0.863  10.489  11.800  1.5649  2.1737  2.6037
41180SOL     OW30144   5.266   2.459  11.749 -0.0939 -0.1377  0.6046
41180SOL    HW130145   5.259   2.470  11.844 -1.2261  2.0509  0.3145
41180SOL    HW230146   5.345   2.506  11.725  0.8269 -1.6337  0.5358
41181SOL     OW30147   3.020   4.397   0.876  0.1904 -0.4682  0.1849
41181SOL    HW130148   2.965   4.442   0.812  0.2519 -0.7947 -0.0981
41181SOL    HW230149   3.105   4.387   0.832 -1.0464 -5.0729 -1.6885
41182SOL     OW30150   9.717   8.934  10.983 -0.1537  0.1185  0.8993
41182SOL    HW130151   9.751   8.895  10.903  1.6512 -0.0919  1.7086
41182SOL    HW230152   9.719   9.028  10.967  1.8812  0.1924  1.2407
41183SOL     OW30153   9.100  10.279   5.995  0.4667  0.6143  0.1443
41183SOL    HW130154   9.048  10.349   6.033 -0.5203 -0.1812  0.2904
41183SOL    HW230155   9.177  10.272   6.052 -0.4114  0.2406  1.3040
41184SOL     OW30156  10.842  10.867   8.638 -0.0518  0.5316 -0.2880
41184SOL    HW130157  10.824  10.905   8.724 -0.4564  1.4597 -0.7702
41184SOL    HW230158  10.854  10.943   8.581 -0.1812 -0.0782 -1.1311
41185SOL     OW30159   7.682   1.015   5.339 -0.2666  0.1159  0.5796
41185SOL    HW130160   7.756   0.969   5.301  0.7460  0.3422  2.1899
41185SOL    HW230161   7.636   1.053   5.264  0.7162 -0.7844 -0.5099
41186SOL     OW30162   8.304   9.040   9.767  0.3067  0.0019 -0.2143
41186SOL    HW130163   8.329   9.005   9.852 -0.6737  0.5528  0.3155
41186SOL    HW230164   8.361   9.116   9.755  0.1086  0.2109  0.1723
41187SOL     OW30165  11.752  12.013   6.370 -0.5344  0.2878 -0.2975
41187SOL    HW130166  11.698  11.969   6.436 -1.0081 -0.4842 -1.1909
41187SOL    HW230167  11.826  11.955   6.357 -0.5911  0.2932 -0.6570
41188SOL     OW30168   1.652   6.895  10.682 -0.0047  0.1244 -0.1976
41188SOL    HW130169   1.569   6.852  10.665  0.0769  0.5529 -1.8391
41188SOL    HW230170   1.630   6.988  10.690  0.1895  0.1238  0.3490
41189SOL     OW30171   1.217   8.911   0.008 -0.1717 -0.7841  0.3989
41189SOL    HW130172   1.131   8.935  -0.027  0.4104 -1.6272 -1.8237
41189SOL    HW230173   1.198   8.841   0.071 -1.0172 -2.7830 -1.9194
41190SOL     OW30174   4.896   2.058   9.888 -0.0205 -0.1547 -0.0904
41190SOL    HW130175   4.907   1.973   9.846 -2.0756 -1.0743  1.0988
41190SOL    HW230176   4.826   2.045   9.952  0.6588  2.0508  1.2155
41191SOL     OW30177  12.103   5.187   8.940 -0.2386  0.2116 -0.0523
41191SOL    HW130178  12.145   5.154   8.860  2.2115  2.8846 -0.0607
41191SOL    HW230179  12.145   5.140   9.011 -0.9417 -0.7248 -0.2484
41192SOL     OW30180   6.149  12.776   3.419 -0.1611 -0.0921 -0.1424
41192SOL    HW130181   6.067  12.806   3.381 -0.0729  0.6455  0.2196
41192SOL    HW230182   6.125  12.742   3.505 -0.2049 -0.6828 -0.3886
41193SOL     OW30183   2.157   4.593  10.920  0.0904 -0.2803 -0.3122
41193SOL    HW130184   2.174   4.618  11.011  1.3167  2.8313 -1.2465
41193SOL    HW230185   2.242   4.603  10.877 -0.4240 -1.9247 -1.7837
41194SOL     OW30186   4.984   6.576   8.773 -0.4187 -0.4476 -0.1592
41194SOL    HW130187   5.049   6.629   8.727 -1.8604  0.4729 -1.2113
41194SOL    HW230188   5.013   6.486   8.761  0.3972 -0.0844 -1.0022
41195SOL     OW30189   1.479   7.439   1.683 -0.4551 -0.1857 -0.1525
41195SOL    HW130190   1.546   7.413   1.747 -0.0537 -2.2659 -1.3311
41195SOL    HW230191   1.401   7.456   1.735  0.0771 -1.0819  0.9795
41196SOL     OW30192  10.231   8.667   5.280  0.3019 -0.3583 -0.0030
41196SOL    HW130193  10.255   8.627   5.196 -0.9853 -0.6364 -0.2523
41196SOL    HW230194  10.147   8.627   5.303  0.3420  0.1640  1.1309
41197SOL     OW30195   8.999  12.656   7.889 -0.7190  0.5658 -0.0521
41197SOL    HW130196   8.927  12.704   7.849 -0.9432  0.6059  0.3977
41197SOL    HW230197   9.001  12.572   7.843 -1.6174  0.2141  0.5423
41198SOL     OW30198   8.177  12.630   0.267  0.5838  0.1535  0.3435
41198SOL    HW130199   8.136  12.688   0.331  0.6499  1.9710 -1.1841
41198SOL    HW230200   8.201  12.552   0.318 -1.9187  0.2889  1.9479
41199SOL     OW30201   0.052   3.471  10.306  0.3844  0.0268  0.7256
41199SOL    HW130202   0.114   3.475  10.379 -0.3643  0.4679  1.3468
41199SOL    HW230203   0.006   3.388  10.319 -1.2246  1.0553  2.0084
41200SOL     OW30204   3.012   1.739  10.617  0.1259 -0.4145  0.0396
41200SOL    HW130205   2.959   1.705  10.545  0.4253 -0.3416 -0.2211
41200SOL    HW230206   3.041   1.660  10.664 -0.5691 -0.4346  0.4501
41201SOL     OW30207   9.865   3.875   2.930 -0.6269 -0.0933  0.1732
41201SOL    HW130208   9.926   3.853   2.860  0.1320  1.3744  0.3253
41201SOL    HW230209   9.784   3.829   2.908  0.0136 -0.7033 -0.9488
41202SOL     OW30210   3.132   4.642   9.953 -0.9364 -0.7097 -0.2126
41202SOL    HW130211   3.075   4.663   9.879  0.0242 -2.3405 -1.4760
41202SOL    HW230212   3.101   4.556   9.983 -0.1602 -0.8844  0.1062
41203SOL     OW30213   1.046   3.815   3.224 -0.0126  0.2607  0.2748
41203SOL    HW130214   0.993   3.848   3.152 -0.5411  1.3287  1.1317
41203SOL    HW230215   1.134   3.848   3.207 -0.5053  2.0908  1.0550
41204SOL     OW30216   6.468   2.182   0.992  0.4828  0.0246  0.7208
41204SOL    HW130217   6.383   2.139   0.988  1.0567 -1.0964 -1.0005
41204SOL    HW230218   6.484   2.197   1.085 -0.7216 -1.5615  1.2252
41205SOL     OW30219   4.864  10.153   7.379  0.0830 -0.1883 -0.6475
41205SOL    HW130220   4.892  10.061   7.385  0.6802 -0.0501 -1.1862
41205SOL    HW230221   4.780  10.155   7.425  1.7097 -0.2674  2.5456
41206SOL     OW30222   1.007   0.236   5.435 -0.3756 -0.4376 -0.1035
41206SOL    HW130223   1.074   0.178   5.398  0.5775 -0.1031  1.0354
41206SOL    HW230224   1.027   0.322   5.398  0.1622 -0.2365  0.6308
41207SOL     OW30225  11.208  12.101   2.025  0.0916 -0.2528 -0.1196
41207SOL    HW130226  11.277  12.036   2.035  0.5554  0.5797  2.6766
41207SOL    HW230227  11.127  12.053   2.047  0.1593 -0.4106 -0.2069
41208SOL     OW30228   7.263  11.600  10.598  0.5814 -0.2655  0.0011
41208SOL    HW130229   7.312  11.682  10.600 -1.3826  0.9824 -0.5046
41208SOL    HW230230   7.306  11.545  10.664 -0.5542  2.7099  3.6165
41209SOL     OW30231   6.642   4.667   9.303  0.1902  0.7886  0.1992
41209SOL    HW130232   6.591   4.624   9.372 -2.0955  1.7299 -0.7984
41209SOL    HW230233   6.651   4.757   9.334  0.0409  0.9613 -0.2587
41210SOL     OW30234   8.772   4.393   2.281  0.5518  0.6742  0.1043
41210SOL    HW130235   8.683   4.419   2.259  0.6019  0.0273 -0.9551
41210SOL    HW230236   8.822   4.412   2.202  1.2612  0.5826  0.5259
41211SOL     OW30237   4.436  12.459   6.473 -0.2425 -0.5320  0.1982
41211SOL    HW130238   4.415  12.366   6.464 -0.5319 -0.7088  2.3178
41211SOL    HW230239   4.461  12.470   6.565  0.9544  1.2681 -0.2810
41212SOL     OW30240   9.741   7.519   6.330  0.0387  0.7716  0.2035
41212SOL    HW130241   9.646   7.522   6.314 -0.3610  1.4716  2.4010
41212SOL    HW230242   9.749   7.502   6.423  2.0950  1.4535  0.1998
41213SOL     OW30243   5.996   0.131  10.034  0.4845  0.2074 -0.1774
41213SOL    HW130244   5.987   0.038  10.053 -0.3123  0.2272 -0.4057
41213SOL    HW230245   6.028   0.170  10.115 -1.7305  0.1260  0.8083
41214SOL     OW30246   3.413   0.009   5.589  0.5381  0.1805  0.0721
41214SOL    HW130247   3.330  -0.027   5.620  1.6419 -1.1242  1.7196
41214SOL    HW230248   3.432  -0.041   5.509  0.7511 -1.0861  0.8785
41215SOL     OW30249   3.132   4.416   1.587 -0.4431 -0.2896 -0.5008
41215SOL    HW130250   3.200   4.395   1.651 -0.8257  0.7636  0.2780
41215SOL    HW230251   3.179   4.461   1.517 -0.4381  1.2960  0.4772
41216SOL     OW30252   8.485   0.812   9.299  0.4765  0.3089  0.5335
41216SOL    HW130253   8.559   0.765   9.262  0.2267  0.5316 -0.2596
41216SOL    HW230254   8.438   0.746   9.350  0.5267 -0.1283  0.0186
41217SOL     OW30255   7.138  10.647   8.465 -0.2800  0.3876 -0.0909
41217SOL    HW130256   7.057  10.667   8.511 -0.9997 -0.8779 -0.7455
41217SOL    HW230257   7.129  10.555   8.440  1.4861  0.1333  0.0787
41218SOL     OW30258   1.867   3.751   7.529  0.0292 -0.4649  0.1789
41218SOL    HW130259   1.874   3.673   7.584  0.2483 -0.7573 -0.2551
41218SOL    HW230260   1.904   3.725   7.445 -1.2906 -0.3678 -0.4695
41219SOL     OW30261   2.754   7.024  10.347  0.0088 -0.0282 -0.0286
41219SOL    HW130262   2.800   7.019  10.262  0.8912  0.3105  0.4123
41219SOL    HW230263   2.661   7.019  10.324  0.2490 -3.2756 -0.7855
41220SOL     OW30264   2.946   4.389   1.382  0.1933 -0.3045  0.9729
41220SOL    HW130265   3.021   4.400   1.440  0.6453  1.0264  0.2070
41220SOL    HW230266   2.935   4.295   1.373  1.4887 -0.5225  1.4759
41221SOL     OW30267  11.105   4.249   0.619 -0.3278 -0.1414 -0.4932
41221SOL    HW130268  11.137   4.269   0.707 -0.6722 -0.5315 -0.2754
41221SOL    HW230269  11.062   4.330   0.590 -1.2984 -0.3978  0.1914
41222SOL     OW30270   1.205  12.131   9.215  0.0975  0.3968  0.0893
41222SOL    HW130271   1.121  12.086   9.219  0.3452 -0.2459 -1.2652
41222SOL    HW230272   1.214  12.174   9.301 -1.6664  0.6288  0.1857
41223SOL     OW30273   0.840   7.023   1.445  0.2582 -0.2357 -0.4062
41223SOL    HW130274   0.921   6.990   1.405 -1.9347 -2.8050 -3.1560
41223SOL    HW230275   0.812   6.954   1.504  0.5503  1.1501  1.4502
41224SOL     OW30276   9.317  12.313   7.296 -0.1463 -0.0863  0.0095
41224SOL    HW130277   9.263  12.369   7.352  0.1442  0.1363  0.0731
41224SOL    HW230278   9.306  12.349   7.208  1.2929  1.1018  0.2678
41225SOL     OW30279   5.241  10.515   6.472  0.4110 -0.1164  0.6221
41225SOL    HW130280   5.316  10.532   6.529  1.0419  0.9708 -0.4946
41225SOL    HW230281   5.167  10.558   6.515  0.7901  0.3277  0.8270
41226SOL     OW30282   7.795  12.627   4.901  0.4341  0.1250 -0.3139
41226SOL    HW130283   7.835  12.646   4.986  2.2993  1.7606 -1.4690
41226SOL    HW230284   7.709  12.669   4.905  0.2096 -0.4102  0.9836
41227SOL     OW30285   2.088   7.772  10.649  0.1919 -0.4678 -0.3058
41227SOL    HW130286   2.064   7.787  10.740  0.7664  0.7406 -0.3392
41227SOL    HW230287   2.008   7.736  10.609 -1.3963  2.5852 -0.2057
41228SOL     OW30288   9.068  11.988   8.044 -0.0919  0.3684 -0.0748
41228SOL    HW130289   8.983  12.032   8.052 -0.1917  0.0135  0.9176
41228SOL    HW230290   9.077  11.971   7.950  0.1017  2.7751 -0.5381
41229SOL     OW30291   2.498   3.647   0.845  0.1922  0.1429  0.1935
41229SOL    HW130292   2.519   3.731   0.885 -0.8832  0.3830  0.2747
41229SOL    HW230293   2.583   3.610   0.820  0.6629  1.3119  0.0243
41230SOL     OW30294   1.009  10.192  12.508 -0.0762  0.1276 -0.2974
41230SOL    HW130295   1.021  10.098  12.520  0.2955  0.0440 -1.2438
41230SOL    HW230296   1.041  10.231  12.589 -1.8685 -0.6489  0.8430
41231SOL     OW30297   9.384   9.582   6.887 -0.1768 -0.1910  0.1067
41231SOL    HW130298   9.360   9.616   6.973  0.1462 -1.6250  0.7920
41231SOL    HW230299   9.319   9.514   6.869  0.7760 -1.0979  0.0192
41232SOL     OW30300   4.291   0.777  11.829 -0.2330  0.3410 -0.5849
41232SOL    HW130301   4.310   0.841  11.761  0.0122 -0.5937 -1.4281
41232SOL    HW230302   4.377   0.744  11.856 -0.3798 -0.1326 -0.6710
41233SOL     OW30303   3.574   7.232  10.848 -0.0271 -0.2929 -0.1821
41233SOL    HW130304   3.632   7.272  10.912  0.7279 -1.0141 -0.3815
41233SOL    HW230305   3.578   7.138  10.868 -1.4655 -0.3307  0.0563
41234SOL     OW30306   1.938   0.236   3.426 -0.6052  0.7565  0.3256
41234SOL    HW130307   1.974   0.312   3.472 -0.7268  0.3384  1.1340
41234SOL    HW230308   2.013   0.180   3.409 -0.5983  0.7827  0.2711
41235SOL     OW30309   9.677   9.412  10.607 -0.1232 -0.1924 -0.1191
41235SOL    HW130310   9.656   9.334  10.657 -1.1888  0.4177  0.4206
41235SOL    HW230311   9.593   9.458  10.597  0.5628  1.1700  0.0844
41236SOL     OW30312   4.595   2.676  10.919 -0.7208  0.5034 -0.4416
41236SOL    HW130313   4.687   2.676  10.946  0.4411  0.0028 -3.9252
41236SOL    HW230314   4.548   2.638  10.994  2.2735 -1.9882  0.3862
41237SOL     OW30315   3.302   2.080   1.140  0.3154 -0.2398  0.3481
41237SOL    HW130316   3.352   2.053   1.063  1.4236 -1.0788  1.3209
41237SOL    HW230317   3.221   2.028   1.135  0.6184 -0.6912  0.0373
41238SOL     OW30318   7.933  10.880   4.633  0.2682  0.3457  0.7668
41238SOL    HW130319   7.948  10.891   4.727  1.2226 -1.0531  0.8141
41238SOL    HW230320   8.007  10.826   4.604 -0.4976  0.0137 -0.6126
41239SOL     OW30321   2.004   1.057  11.556  0.4267 -0.1411  0.2420
41239SOL    HW130322   2.022   1.058  11.650  0.9976 -0.3837  0.1432
41239SOL    HW230323   1.910   1.070  11.549  0.0534 -2.0994  0.9393
41240SOL     OW30324  12.290   4.416   8.850 -0.0773  0.2610  0.0508
41240SOL    HW130325  12.349   4.475   8.803  0.8695 -0.9999 -0.4041
41240SOL    HW230326  12.203   4.437   8.816 -0.5025  4.2691  2.8601
41241SOL     OW30327   6.802   6.602   9.243 -0.2354  0.8448 -0.4228
41241SOL    HW130328   6.726   6.578   9.189 -0.1774 -0.1496 -0.0712
41241SOL    HW230329   6.788   6.558   9.326 -1.0979  3.5671  1.0000
41242SOL     OW30330   9.391   2.244   8.946 -0.1128  0.0748  0.2019
41242SOL    HW130331   9.337   2.285   8.877 -0.8024 -0.2778  0.5182
41242SOL    HW230332   9.474   2.224   8.902 -0.3080  0.4398 -0.3554
41243SOL     OW30333   1.646   3.776  12.234  0.1704  0.0909  0.0996
41243SOL    HW130334   1.557   3.813  12.240 -1.2291 -3.0719  1.1066
41243SOL    HW230335   1.687   3.824  12.162 -2.7141  1.0741 -1.0515
41244SOL     OW30336   8.924   6.264   4.581  0.0863 -0.3638 -0.4122
41244SOL    HW130337   8.866   6.209   4.529 -1.2618 -0.0711  0.7004
41244SOL    HW230338   8.890   6.256   4.670  2.2397 -0.7452  0.4195
41245SOL     OW30339  10.163  10.487   1.782  0.0758  0.2587 -0.3836
41245SOL    HW130340  10.172  10.431   1.705 -1.9806 -0.6763 -0.0066
41245SOL    HW230341  10.228  10.451   1.844  3.3905  2.4053 -2.2844
41246SOL     OW30342   7.738  12.172   9.886  0.6873  0.2747 -0.2115
41246SOL    HW130343   7.797  12.190   9.958 -0.0969 -0.2750  0.5920
41246SOL    HW230344   7.677  12.106   9.920 -0.3409  0.7582 -1.0247
41247SOL     OW30345   2.508   6.099  11.876 -0.0027  0.6298 -0.3861
41247SOL    HW130346   2.443   6.168  11.862  0.3021  0.9137 -0.4145
41247SOL    HW230347   2.482   6.057  11.958  1.3136  2.5168  1.1149
41248SOL     OW30348  11.347   1.297  10.980 -0.1851 -0.3158  0.5467
41248SOL    HW130349  11.270   1.344  10.951  0.3809 -0.9462 -2.2543
41248SOL    HW230350  11.368   1.237  10.908  2.5167 -0.6335  1.4645
41249SOL     OW30351   8.078   3.150   0.086 -0.1842  0.0944  0.0507
41249SOL    HW130352   8.113   3.123   0.002 -0.0297  1.4819 -0.3580
41249SOL    HW230353   8.152   3.190   0.132 -0.5072  0.2739  0.4264
41250SOL     OW30354   0.571   3.814   3.564 -0.1077  0.5271 -0.5887
41250SOL    HW130355   0.569   3.865   3.483  1.5695 -0.0913 -1.0681
41250SOL    HW230356   0.649   3.845   3.609  0.3538 -0.8509 -0.3978
41251SOL     OW30357   5.455  10.866   9.124 -0.4009  0.0626 -0.3861
41251SOL    HW130358   5.404  10.890   9.201 -1.3620 -0.1259 -0.9415
41251SOL    HW230359   5.545  10.858   9.156 -0.9498 -1.1500  0.9613
41252SOL     OW30360   7.745   0.710   2.859 -0.0289  0.3795 -0.1238
41252SOL    HW130361   7.794   0.729   2.779 -0.9278  0.8176 -0.5826
41252SOL    HW230362   7.653   0.723   2.835 -0.3667 -0.2275  0.7745
41253SOL     OW30363   0.627  12.368   5.542 -0.3503  0.5054  0.3713
41253SOL    HW130364   0.661  12.325   5.620 -1.5154  0.2901  0.7849
41253SOL    HW230365   0.698  12.362   5.478  0.0005 -0.8530  0.8504
41254SOL     OW30366   2.934   6.956  11.578  0.4184  0.3618 -0.6472
41254SOL    HW130367   2.882   6.899  11.522  0.4523 -2.3160  1.8011
41254SOL    HW230368   2.911   6.929  11.667  3.8890  0.9684  0.5784
41255SOL     OW30369  12.164  11.197   0.894  0.1905 -0.0184  0.6229
41255SOL    HW130370  12.204  11.110   0.901 -0.4282 -0.2804  0.9779
41255SOL    HW230371  12.119  11.210   0.977  1.7295  1.4032  1.2863
41256SOL     OW30372  11.948   5.846   0.561 -0.2003 -0.5118  0.1809
41256SOL    HW130373  12.004   5.803   0.626  1.3601 -0.3437 -0.9875
41256SOL    HW230374  11.960   5.795   0.481  0.5569  1.1825 -0.8489
41257SOL     OW30375   7.599  10.529   2.680 -0.3009 -0.6248  0.2615
41257SOL    HW130376   7.619  10.617   2.647  0.7956 -1.4056 -1.3157
41257SOL    HW230377   7.504  10.523   2.678 -0.3464  0.0298 -1.0898
41258SOL     OW30378   4.267   7.728   7.619  0.0660  0.0474  0.3353
41258SOL    HW130379   4.298   7.642   7.648 -0.4445  0.1551  1.2584
41258SOL    HW230380   4.319   7.790   7.669  0.0974  0.2703  0.0281
41259SOL     OW30381   2.897  10.743   6.197 -0.2944 -0.2230  0.2251
41259SOL    HW130382   2.927  10.689   6.270  2.1973 -0.8834 -1.1908
41259SOL    HW230383   2.811  10.707   6.174 -1.5106  0.4332  3.1632
41260SOL     OW30384   2.177   0.721   9.431  0.1963  0.6207  0.5174
41260SOL    HW130385   2.149   0.805   9.394  1.1970  1.1423  0.8989
41260SOL    HW230386   2.273   0.721   9.421  0.4566  0.5546  2.5776
41261SOL     OW30387   0.521   1.725   8.103  0.7412 -0.1495 -0.4621
41261SOL    HW130388   0.538   1.684   8.188  0.8745  0.7295 -0.0569
41261SOL    HW230389   0.584   1.683   8.043  1.8143  0.4086  0.2358
41262SOL     OW30390  10.541   4.183   3.417  0.3500 -0.2957  0.1156
41262SOL    HW130391  10.577   4.142   3.338  1.1042  0.9093 -0.1809
41262SOL    HW230392  10.465   4.129   3.438  0.2057 -0.7293 -1.3576
41263SOL     OW30393   4.622  11.319   5.950  0.1237 -0.0157 -0.6109
41263SOL    HW130394   4.546  11.327   5.893  0.8532  1.9432 -1.3973
41263SOL    HW230395   4.625  11.402   5.997  1.1682 -0.4923  0.1900
41264SOL     OW30396  10.122   5.932   3.113 -0.4155  0.6094 -0.3782
41264SOL    HW130397  10.030   5.910   3.097 -0.3611  1.7923 -2.6459
41264SOL    HW230398  10.150   5.868   3.179 -1.8440 -2.1892 -2.2839
41265SOL     OW30399  10.622   7.206  10.049 -0.7280 -0.1596  0.8466
41265SOL    HW130400  10.698   7.152  10.069 -0.9673 -0.6536  0.4508
41265SOL    HW230401  10.551   7.166  10.099 -1.4288 -1.6580 -1.1666
41266SOL     OW30402   6.928   7.371   1.871 -0.2348  0.5969 -0.0680
41266SOL    HW130403   6.956   7.441   1.811 -2.7957  2.3708  0.6244
41266SOL    HW230404   6.933   7.291   1.819 -1.7095  1.9709 -2.5052
41267SOL     OW30405   2.142   9.713   1.451 -0.5938 -0.1774  0.6705
41267SOL    HW130406   2.099   9.778   1.505 -0.8058 -0.8173  1.2872
41267SOL    HW230407   2.221   9.757   1.419 -0.7295  0.3728  1.0804
41268SOL     OW30408  11.759   9.172  12.230 -0.0641  0.5533 -0.2785
41268SOL    HW130409  11.679   9.224  12.242 -0.9499 -0.5755 -1.0297
41268SOL    HW230410  11.823   9.212  12.289 -0.9983  1.8624 -0.1060
41269SOL     OW30411   2.859  12.009   7.018  0.0414  0.4400 -0.5805
41269SOL    HW130412   2.945  11.985   7.052 -0.1946 -0.7139 -0.7840
41269SOL    HW230413   2.858  12.105   7.023  0.7824  0.4078  0.7824
41270SOL     OW30414   6.456   9.096  11.553  0.0671 -0.5100  0.4480
41270SOL    HW130415   6.399   9.043  11.610  1.4852 -2.3401  0.2568
41270SOL    HW230416   6.407   9.102  11.470 -0.5022 -0.7715  0.7564
41271SOL     OW30417   3.408   1.780   8.767 -0.1938  0.0601 -0.9717
41271SOL    HW130418   3.408   1.687   8.744  1.3061 -0.2376  0.0478
41271SOL    HW230419   3.345   1.820   8.707 -0.7380 -1.5765 -1.5509
41272SOL     OW30420   2.376   3.676   4.579  0.1492  0.5646  0.5378
41272SOL    HW130421   2.283   3.665   4.558 -0.2958 -0.0511  2.6042
41272SOL    HW230422   2.387   3.771   4.587  0.2255  0.7999 -1.6837
41273SOL     OW30423   7.338   1.448   5.302 -0.5959  0.7239 -0.2987
41273SOL    HW130424   7.299   1.477   5.220  0.5107  0.2154 -1.0369
41273SOL    HW230425   7.363   1.357   5.286 -0.2259  0.6657  0.5428
41274SOL     OW30426   7.334  12.273  12.525 -0.3720 -0.5058  0.2463
41274SOL    HW130427   7.331  12.206  12.593  0.6935 -0.5252  0.3057
41274SOL    HW230428   7.361  12.353  12.572 -0.5464 -0.3015 -0.0013
41275SOL     OW30429   2.989   4.576   3.810  0.4495 -0.1617 -0.0964
41275SOL    HW130430   3.047   4.645   3.776  0.5734  0.0314  0.4997
41275SOL    HW230431   2.914   4.575   3.750  0.2037  0.8434  0.1900
41276SOL     OW30432   2.145  10.624   2.443 -0.0742  0.2530 -0.0904
41276SOL    HW130433   2.087  10.604   2.370 -0.0281  1.1643 -0.3788
41276SOL    HW230434   2.195  10.543   2.456 -0.1408  0.0614 -1.0113
41277SOL     OW30435   6.106   3.131   2.085 -0.1826  0.2251  0.8035
41277SOL    HW130436   6.165   3.056   2.097  0.4731  0.6197  0.1356
41277SOL    HW230437   6.158   3.207   2.111  0.3794  0.8170 -1.7534
41278SOL     OW30438   2.512  10.087   1.875 -0.0435  0.7606 -0.1261
41278SOL    HW130439   2.571  10.141   1.927  0.2815 -0.9300  1.3534
41278SOL    HW230440   2.442  10.062   1.936  0.4782 -1.4791 -0.3638
41279SOL     OW30441   5.846   9.410   0.462 -0.2979  1.3313 -0.3954
41279SOL    HW130442   5.935   9.406   0.497 -0.6841 -1.4368  0.5114
41279SOL    HW230443   5.858   9.414   0.367  0.8100  1.0503 -0.2881
41280SOL     OW30444   3.432  11.853   0.668 -0.0689 -0.0480  0.1362
41280SOL    HW130445   3.392  11.855   0.581  0.0113 -0.4324  0.0885
41280SOL    HW230446   3.399  11.772   0.708  0.1012 -0.0070  0.3619
41281SOL     OW30447   5.270   1.014   5.150  0.2502  0.0960  0.4202
41281SOL    HW130448   5.314   1.074   5.090  1.7627 -0.8623  0.5012
41281SOL    HW230449   5.340   0.983   5.208 -0.7819 -0.5794  1.3485
41282SOL     OW30450   9.810   3.437  10.347  0.3496  0.0544 -0.0493
41282SOL    HW130451   9.837   3.367  10.288  0.7830  0.0994  0.0961
41282SOL    HW230452   9.760   3.392  10.415  0.4072 -0.0797 -0.0948
41283SOL     OW30453   1.816   8.365   6.034  0.4364 -0.2738  0.1174
41283SOL    HW130454   1.876   8.291   6.023  1.8854  0.6267  1.5587
41283SOL    HW230455   1.859   8.436   5.987  0.8374  0.5347  1.6544
41284SOL     OW30456   2.747   7.013   6.727  0.2015 -0.6342  0.0252
41284SOL    HW130457   2.763   6.999   6.633 -0.1589 -0.1439 -0.1135
41284SOL    HW230458   2.803   7.088   6.749 -0.1723 -0.3620  0.0595
41285SOL     OW30459   6.078   0.189   9.276 -0.1319 -0.7589 -0.2222
41285SOL    HW130460   6.066   0.131   9.352 -0.6829 -0.4471 -0.0678
41285SOL    HW230461   6.133   0.138   9.217 -1.2423 -1.7810 -0.4306
41286SOL     OW30462   8.709   4.570   6.648  0.2124  0.0427  0.3783
41286SOL    HW130463   8.711   4.618   6.731 -1.8803 -0.7614  0.9564
41286SOL    HW230464   8.680   4.634   6.584 -0.4742  0.0990  0.7370
41287SOL     OW30465   4.616   1.880   8.219  0.9845  0.2177  0.2933
41287SOL    HW130466   4.687   1.939   8.195  2.2425  0.5875  4.1816
41287SOL    HW230467   4.573   1.923   8.293 -1.9830 -1.0227 -0.5575
41288SOL     OW30468   9.670  11.294   6.258 -0.4505  0.9832  0.3248
41288SOL    HW130469   9.652  11.293   6.352  0.7047  0.0244  0.5425
41288SOL    HW230470   9.604  11.236   6.220 -0.0130  0.2227  0.7165
41289SOL     OW30471   3.666   9.257   3.760  0.5297 -0.0402  0.4182
41289SOL    HW130472   3.585   9.245   3.711  1.6552  1.5235 -2.0000
41289SOL    HW230473   3.725   9.302   3.700  2.6849  0.3300  2.6156
41290SOL     OW30474  12.435   5.206   3.844  0.0613  0.7091  0.9428
41290SOL    HW130475  12.493   5.173   3.913  1.0344  0.4345  0.0234
41290SOL    HW230476  12.407   5.128   3.796  0.6858  1.0121  0.0523
41291SOL     OW30477   1.511  11.607   7.926  0.0841  0.0655 -0.8832
41291SOL    HW130478   1.520  11.627   8.019 -1.8917 -0.4477 -0.5325
41291SOL    HW230479   1.505  11.692   7.883 -0.4815  0.3073 -0.3378
41292SOL     OW30480   2.733   9.327   1.060  0.2635  0.1454 -0.0376
41292SOL    HW130481   2.757   9.410   1.017  0.1333 -0.1349 -0.6656
41292SOL    HW230482   2.707   9.270   0.988  0.4210 -0.4710  0.3919
41293SOL     OW30483   7.017   2.031   9.577  0.1792 -0.6291 -0.2957
41293SOL    HW130484   6.947   2.029   9.642 -0.1101  1.1619 -0.4790
41293SOL    HW230485   6.972   2.025   9.493  0.2906 -0.1559 -0.3942
41294SOL     OW30486   5.614  10.049   5.871  0.3136  0.0142  0.5094
41294SOL    HW130487   5.687  10.052   5.810  1.3514  1.0248  1.7446
41294SOL    HW230488   5.536  10.046   5.815  1.1571  2.2766 -0.9300
41295SOL     OW30489   0.622  11.387  12.503 -0.0939  0.2957  0.2579
41295SOL    HW130490   0.587  11.474  12.522  1.1669  0.6944  0.8873
41295SOL    HW230491   0.594  11.333  12.578 -0.8227  0.1667 -0.1015
41296SOL     OW30492  12.215   7.801   0.254 -0.3925  0.5362 -0.6618
41296SOL    HW130493  12.273   7.789   0.179 -0.1921 -0.3480 -0.3700
41296SOL    HW230494  12.157   7.725   0.252 -0.7100  0.7641 -0.2072
41297SOL     OW30495   3.653   0.968   0.872 -0.2768  0.0612 -0.3792
41297SOL    HW130496   3.606   0.885   0.867 -0.6242  0.2833 -0.9703
41297SOL    HW230497   3.661   0.986   0.965 -0.3293 -0.5623 -0.2509
41298SOL     OW30498   3.025   2.447  12.235  0.2674  0.2406  0.5605
41298SOL    HW130499   2.943   2.497  12.241 -0.9296 -1.5006 -0.3586
41298SOL    HW230500   3.066   2.477  12.154 -1.0298 -0.9739 -0.6227
41299SOL     OW30501   0.375   0.127   2.737  0.0474 -0.0266 -0.1850
41299SOL    HW130502   0.304   0.166   2.788  0.6298 -0.1507  0.7465
41299SOL    HW230503   0.332   0.088   2.661 -0.9839 -0.8301  0.7815
41300SOL     OW30504   7.614   6.530   4.502  0.2328 -0.3200  0.2560
41300SOL    HW130505   7.646   6.502   4.416  0.0783 -1.3580  0.5199
41300SOL    HW230506   7.692   6.555   4.550  0.5572 -1.7714  0.5209
41301SOL     OW30507   0.912   6.735   4.879 -0.2036 -0.3131 -0.1307
41301SOL    HW130508   0.902   6.644   4.906 -1.4846 -0.4717 -1.0465
41301SOL    HW230509   0.990   6.735   4.824  0.5490 -0.5990  0.9165
41302SOL     OW30510  10.903   8.088   0.389 -0.4483 -0.3039  0.2993
41302SOL    HW130511  10.931   8.177   0.411 -0.3858 -0.7198  2.0708
41302SOL    HW230512  10.963   8.060   0.320  0.8269  0.3322  1.1022
41303SOL     OW30513   4.378   5.048  11.773 -0.2486 -0.0100 -0.2844
41303SOL    HW130514   4.411   4.958  11.771 -1.0688 -0.3599 -3.0908
41303SOL    HW230515   4.284   5.038  11.760 -0.4683  1.2232  0.3133
41304SOL     OW30516   9.777   8.960  10.626  0.5253 -0.2092 -0.0693
41304SOL    HW130517   9.856   8.999  10.665  0.9757 -0.6637 -0.5146
41304SOL    HW230518   9.810   8.890  10.569 -0.2097 -0.5302 -0.1165
41305SOL     OW30519  11.694   3.315   2.170  0.5227 -0.7515  0.0327
41305SOL    HW130520  11.785   3.321   2.197  0.6040 -0.2353 -0.3335
41305SOL    HW230521  11.698   3.295   2.076  0.3723  3.6213 -1.1104
41306SOL     OW30522   4.057   3.667   4.002 -0.0005 -0.6044  0.5023
41306SOL    HW130523   4.107   3.597   3.961  1.6243 -0.1754  1.6436
41306SOL    HW230524   4.092   3.673   4.091  0.4458  2.0990  0.2300
41307SOL     OW30525   3.019   9.393   9.949  0.1863 -0.4535  0.1350
41307SOL    HW130526   3.114   9.398   9.954  0.1377  0.8699  0.0348
41307SOL    HW230527   2.992   9.478   9.915 -1.0625 -0.6799  0.4969
41308SOL     OW30528   6.838  11.360   1.509  0.0449  0.2421 -0.2525
41308SOL    HW130529   6.823  11.452   1.489  1.7738  0.2046 -1.8854
41308SOL    HW230530   6.776  11.313   1.453 -0.2979  0.3782  0.0092
41309SOL     OW30531   5.886   8.975   1.645  0.1426  0.1233  0.1201
41309SOL    HW130532   5.911   8.943   1.558 -1.2832 -0.6461 -0.0480
41309SOL    HW230533   5.843   8.900   1.686  0.8359  0.4611  1.5275
41310SOL     OW30534  12.754  11.102   0.317 -0.1680 -0.4812 -0.2837
41310SOL    HW130535  12.697  11.025   0.314  0.1987 -0.7462 -0.7268
41310SOL    HW230536  12.796  11.098   0.403  0.3518 -1.1596 -0.5554
41311SOL     OW30537   7.362  12.658   2.825 -0.1566  0.6055 -0.2091
41311SOL    HW130538   7.338  12.573   2.788 -1.0452 -0.1583  1.9932
41311SOL    HW230539   7.421  12.696   2.760  0.6141 -1.8620 -1.0500
41312SOL     OW30540  12.115   3.378   0.330  0.1107  0.2739 -0.5486
41312SOL    HW130541  12.054   3.304   0.342  2.2951 -1.5678  0.0544
41312SOL    HW230542  12.148   3.395   0.419  2.3142 -0.5431 -1.1451
41313SOL     OW30543   1.512   4.298  10.545  0.2528 -0.0910  0.0341
41313SOL    HW130544   1.427   4.276  10.584  0.6939  1.1482  1.8354
41313SOL    HW230545   1.505   4.268  10.455 -1.9271 -0.4602  0.2557
41314SOL     OW30546  10.263   4.157  11.316 -0.1467 -0.3975 -0.0961
41314SOL    HW130547  10.294   4.102  11.387 -0.5286  0.3749  0.6847
41314SOL    HW230548  10.294   4.245  11.338  2.0142 -0.5115 -2.2277
41315SOL     OW30549   9.138   8.086  11.755 -0.0624 -0.6365 -0.1131
41315SOL    HW130550   9.121   7.994  11.737  1.4466 -1.1826  1.0412
41315SOL    HW230551   9.112   8.099  11.846  0.2402 -0.0618 -0.1023
41316SOL     OW30552  12.322   6.326   8.417 -0.1363  0.3452  0.0140
41316SOL    HW130553  12.348   6.277   8.495 -0.1982 -0.5907 -0.5281
41316SOL    HW230554  12.260   6.392   8.448  1.8836  1.8045  1.1576
41317SOL     OW30555   1.492  11.811   4.298  0.1158  0.2514 -0.3339
41317SOL    HW130556   1.544  11.746   4.252  0.4506 -1.5309  2.3614
41317SOL    HW230557   1.401  11.786   4.280  0.1836  0.9689 -1.8100
41318SOL     OW30558   2.034   6.594   8.846  0.2330 -0.6579  0.0590
41318SOL    HW130559   2.047   6.500   8.858  0.2847 -1.1597 -3.0424
41318SOL    HW230560   1.944   6.610   8.876  0.4746 -1.5192  1.3102
41319SOL     OW30561   3.914   2.397   7.622  0.0602 -0.0683  0.2342
41319SOL    HW130562   3.848   2.467   7.627 -1.6741 -1.5441 -0.9037
41319SOL    HW230563   3.940   2.383   7.713 -2.5343 -0.6065  0.9656
41320SOL     OW30564  11.688   6.667   1.019 -0.4060  0.1368  0.2240
41320SOL    HW130565  11.688   6.623   1.104  0.1736  1.1312  0.7563
41320SOL    HW230566  11.604   6.713   1.016 -1.6759 -2.0486 -0.9444
41321SOL     OW30567   2.834   5.302   4.304 -0.4500  0.0498  0.0203
41321SOL    HW130568   2.766   5.274   4.243 -1.1280  1.0443  0.3044
41321SOL    HW230569   2.898   5.347   4.250 -0.2002 -0.5581 -0.1948
41322SOL     OW30570   7.903  10.599   4.320  0.0635  0.6581  0.0578
41322SOL    HW130571   7.950  10.564   4.396 -1.7078  0.0978  0.9544
41322SOL    HW230572   7.872  10.685   4.348 -1.9679 -0.2081  0.6089
41323SOL     OW30573   1.971   4.608   0.816 -0.5285  0.1873  0.6178
41323SOL    HW130574   1.936   4.519   0.821  0.1049 -0.1592 -0.6903
41323SOL    HW230575   1.983   4.634   0.907 -1.7935 -0.6299  1.0437
41324SOL     OW30576   6.162   2.204   5.938 -0.4393  0.4377  0.3067
41324SOL    HW130577   6.203   2.131   5.892 -1.2919 -0.4495  0.9294
41324SOL    HW230578   6.198   2.282   5.896 -1.8677 -0.2989 -2.5667
41325SOL     OW30579  11.198   2.715   2.584  0.0365 -0.2628 -0.1289
41325SOL    HW130580  11.167   2.770   2.513 -0.5608 -0.5144 -0.0686
41325SOL    HW230581  11.294   2.722   2.580  0.0192 -0.5091 -1.1375
41326SOL     OW30582   5.240  11.838  11.000  0.4537  0.0928 -0.1213
41326SOL    HW130583   5.328  11.809  10.974  0.7037 -0.5081  1.2692
41326SOL    HW230584   5.256  11.907  11.065 -0.0995  0.1048  0.0043
41327SOL     OW30585   0.035   1.288  10.636  0.3427  0.1166  0.1380
41327SOL    HW130586   0.070   1.206  10.599  0.7377  1.3938 -2.5193
41327SOL    HW230587   0.104   1.352  10.620 -0.5282  1.2942  0.9641
41328SOL     OW30588   0.145   2.243   4.796 -0.6644 -0.4670  0.0729
41328SOL    HW130589   0.162   2.336   4.783 -0.6941 -0.2685  1.3751
41328SOL    HW230590   0.232   2.202   4.792 -0.8017 -0.7092 -2.5738
41329SOL     OW30591   7.311   8.670   3.880 -0.3781  0.3725 -0.5002
41329SOL    HW130592   7.335   8.733   3.947  1.3077  0.7636 -1.4213
41329SOL    HW230593   7.320   8.585   3.922  1.3100  0.5818 -0.3706
41330SOL     OW30594   3.371   0.339   8.760  0.5388 -0.0704  0.3459
41330SOL    HW130595   3.375   0.411   8.697  2.1254 -0.1298  0.3469
41330SOL    HW230596   3.444   0.354   8.820 -0.7577 -0.1758  2.0396
41331SOL     OW30597  11.388   4.459   8.564  0.5989 -0.1443  0.1231
41331SOL    HW130598  11.392   4.364   8.554  0.5330 -0.0473 -1.0453
41331SOL    HW230599  11.429   4.493   8.483  1.5345  0.8153  0.9623
41332SOL     OW30600   4.532   4.619   4.466  0.2136 -0.2216 -0.4087
41332SOL    HW130601   4.503   4.673   4.539  0.6867 -0.5145 -0.0078
41332SOL    HW230602   4.602   4.565   4.501 -0.8324 -1.7497 -0.5594
41333SOL     OW30603   2.944   9.146  12.508  0.2717 -0.4710  0.0855
41333SOL    HW130604   3.037   9.146  12.486  0.3181  0.1256  0.2636
41333SOL    HW230605   2.912   9.063  12.474  1.1349 -1.2734  1.1508
41334SOL     OW30606   2.627   7.094   5.594  0.1004  0.0763 -0.3537
41334SOL    HW130607   2.670   7.031   5.536 -0.8247  0.5524 -1.5871
41334SOL    HW230608   2.572   7.146   5.536 -0.6394  0.7523  0.9264
41335SOL     OW30609  11.272   9.359  11.324  0.0542 -0.7717 -0.3784
41335SOL    HW130610  11.196   9.313  11.360 -0.6113  0.4350 -0.2011
41335SOL    HW230611  11.305   9.412  11.396  1.9000 -2.2258 -0.0419
41336SOL     OW30612   5.250   0.241   2.723 -0.1339 -0.1698  0.6152
41336SOL    HW130613   5.332   0.281   2.692  0.6709 -0.9059  1.7192
41336SOL    HW230614   5.246   0.157   2.676 -0.3501 -0.0480  0.4180
41337SOL     OW30615   3.258   0.492  10.146 -0.5990 -0.1337 -0.4999
41337SOL    HW130616   3.273   0.398  10.159  0.7299 -0.6744 -4.4247
41337SOL    HW230617   3.178   0.496  10.093 -0.0641  0.8126 -1.2760
41338SOL     OW30618   4.502  11.569   4.822  0.6677  0.0202  0.3524
41338SOL    HW130619   4.504  11.504   4.752  1.7636 -1.4350  1.6578
41338SOL    HW230620   4.409  11.584   4.839  0.3486  1.2988 -2.1427
41339SOL     OW30621  10.878   9.467   9.362  0.0590 -0.1927 -0.5738
41339SOL    HW130622  10.858   9.382   9.323  0.9462 -0.7696  0.1717
41339SOL    HW230623  10.974   9.472   9.360 -0.0029  1.2302 -1.4928
41340SOL     OW30624   4.812   6.519   8.205  0.6684 -0.2501  0.1112
41340SOL    HW130625   4.727   6.560   8.188 -0.5521 -2.2449  1.0405
41340SOL    HW230626   4.828   6.466   8.127  0.9085 -0.1340  0.0816
41341SOL     OW30627   4.305   1.312   8.669 -0.0583  0.5301 -0.0838
41341SOL    HW130628   4.390   1.318   8.626  0.2222  0.4569  0.4511
41341SOL    HW230629   4.242   1.337   8.601  0.4186  1.0175 -0.3549
41342SOL     OW30630  12.186  11.606  10.264 -0.7905 -0.5776 -1.0591
41342SOL    HW130631  12.179  11.641  10.176 -1.5341  0.0222 -0.7729
41342SOL    HW230632  12.120  11.653  10.315  0.7855  0.3606  0.2502
41343SOL     OW30633   4.574   6.542  12.288  0.2444  0.7941  0.5076
41343SOL    HW130634   4.566   6.637  12.292 -2.1263  0.6735  0.0208
41343SOL    HW230635   4.651   6.527  12.233  1.4651  2.3834  1.6631
41344SOL     OW30636   9.486   3.360   9.578 -0.1499 -0.0354 -0.0627
41344SOL    HW130637   9.520   3.370   9.489  0.1438  1.8560  0.2285
41344SOL    HW230638   9.513   3.440   9.623  0.1981 -1.1849  1.8977
41345SOL     OW30639   9.076   8.788   0.374  0.1892  0.1971  0.3751
41345SOL    HW130640   9.042   8.750   0.455  0.4412  0.6179  0.6842
41345SOL    HW230641   9.048   8.727   0.306 -1.2106  0.5393  0.6111
41346SOL     OW30642   9.007   7.204   9.713  0.6559  0.2438  0.9192
41346SOL    HW130643   8.995   7.138   9.645 -1.1900  0.2240  1.2153
41346SOL    HW230644   8.956   7.279   9.684  0.8004  0.6704  1.7211
41347SOL     OW30645  10.024   3.855   1.027 -0.5484  0.0042 -0.3403
41347SOL    HW130646   9.962   3.876   1.097 -0.6861  1.0962 -0.7659
41347SOL    HW230647  10.004   3.918   0.958  0.5594 -0.1054 -0.7830
41348SOL     OW30648   1.407   3.226   9.309 -0.4691  0.3144  0.2901
41348SOL    HW130649   1.474   3.251   9.372 -0.6031  0.9256  0.2022
41348SOL    HW230650   1.324   3.249   9.352 -0.5124  1.8932 -0.5833
41349SOL     OW30651   1.711  12.765   9.759 -0.1281 -0.2767  0.0925
41349SOL    HW130652   1.655  12.691   9.735 -0.7091  1.0844 -3.1869
41349SOL    HW230653   1.762  12.784   9.680  1.2836  1.7574  1.3950
41350SOL     OW30654   8.644   7.493  11.183 -0.0408 -0.2288  0.2955
41350SOL    HW130655   8.698   7.572  11.181 -0.4858  0.0693 -0.6166
41350SOL    HW230656   8.606   7.492  11.271  2.1460 -0.9474  1.2964
41351SOL     OW30657  10.342   3.609   9.079  0.5869 -0.0472 -0.0607
41351SOL    HW130658  10.294   3.658   9.012  0.4442  0.0135  0.0885
41351SOL    HW230659  10.395   3.675   9.124  0.4377 -0.0393  0.1022
41352SOL     OW30660   4.940   4.477   6.066 -0.0348  0.8988  0.5746
41352SOL    HW130661   4.940   4.405   6.130 -1.1336  0.4965  0.1401
41352SOL    HW230662   4.949   4.556   6.119 -0.0766  0.5195  1.1582
41353SOL     OW30663   5.378   9.565   6.113 -0.1375 -0.3245  0.0729
41353SOL    HW130664   5.411   9.478   6.095 -0.1699 -0.5282  0.9458
41353SOL    HW230665   5.456   9.618   6.128  0.0803  0.5238 -3.2640
41354SOL     OW30666   7.087   8.821  12.026 -1.0402 -0.2201 -0.1405
41354SOL    HW130667   7.120   8.731  12.030 -1.3088 -0.5229 -2.9633
41354SOL    HW230668   7.014   8.822  12.088 -0.3266 -1.6009  0.7859
41355SOL     OW30669   4.116   3.018   7.475  1.0688  0.0914 -0.0568
41355SOL    HW130670   4.042   3.042   7.418  0.9855  0.9589  0.3865
41355SOL    HW230671   4.080   2.953   7.535  0.3619  1.2017  0.7766
41356SOL     OW30672  11.636   8.420  10.362 -0.7308 -0.2454  0.4045
41356SOL    HW130673  11.655   8.374  10.281  0.2700 -0.0104  0.5004
41356SOL    HW230674  11.569   8.366  10.405 -0.4057 -0.9943 -0.0167
41357SOL     OW30675   9.892   5.264   1.008  0.0397  0.2313  0.3273
41357SOL    HW130676   9.843   5.241   1.087 -0.7376  1.0202  0.0882
41357SOL    HW230677   9.963   5.200   1.004  0.3592  0.4548  1.9135
41358SOL     OW30678   2.511   5.467   6.332  0.1950  0.1517  0.6813
41358SOL    HW130679   2.476   5.405   6.268 -0.6526 -1.1421  2.3320
41358SOL    HW230680   2.497   5.553   6.292 -0.3695 -0.6065 -0.8292
41359SOL     OW30681   4.502  12.356   1.916  0.3995 -0.5284 -0.2648
41359SOL    HW130682   4.441  12.368   1.843 -0.1881  0.6790  0.3784
41359SOL    HW230683   4.524  12.263   1.914 -1.7205 -1.0971 -0.3496
41360SOL     OW30684   0.648   3.791   5.562 -0.1913 -0.9383  0.0501
41360SOL    HW130685   0.644   3.819   5.471  0.8950  0.0474  0.2702
41360SOL    HW230686   0.736   3.754   5.571 -0.7108 -2.1248  0.4146
41361SOL     OW30687   3.686   6.918   0.278  0.3754 -0.4023  0.4860
41361SOL    HW130688   3.766   6.933   0.328  0.8858 -0.1459 -0.3969
41361SOL    HW230689   3.624   6.981   0.313  1.2940  1.0769 -0.4447
41362SOL     OW30690  12.716   2.445   5.449  0.5973  0.2907 -0.1932
41362SOL    HW130691  12.758   2.468   5.366  0.5008  0.4652 -0.1938
41362SOL    HW230692  12.670   2.364   5.430  1.3998 -0.2134 -0.0424
41363SOL     OW30693   4.263   8.186   2.250 -0.0935 -0.1721  0.4433
41363SOL    HW130694   4.283   8.098   2.280 -1.3478 -0.7508 -0.3409
41363SOL    HW230695   4.228   8.231   2.327 -0.2169 -0.6117  0.6452
41364SOL     OW30696   1.177  11.762   6.178 -0.1616 -0.4026 -0.7980
41364SOL    HW130697   1.107  11.712   6.219  1.3378 -2.0502 -0.0907
41364SOL    HW230698   1.257  11.727   6.217  1.1213  0.7304 -2.2763
41365SOL     OW30699  11.466  10.908   3.815  0.4676 -0.2814 -0.7013
41365SOL    HW130700  11.469  10.827   3.866 -1.2141 -0.2533 -0.5059
41365SOL    HW230701  11.540  10.959   3.847  0.0557 -0.6937  1.0290
41366SOL     OW30702  10.878   0.407   6.556 -0.1459  0.0334 -0.0050
41366SOL    HW130703  10.792   0.426   6.592 -1.0037 -1.3980 -1.1718
41366SOL    HW230704  10.939   0.426   6.627 -1.6110 -1.2044  1.6820
41367SOL     OW30705  11.741   9.358   1.479 -0.6085  0.6045  0.0053
41367SOL    HW130706  11.811   9.297   1.457 -0.9159  0.8950 -2.0253
41367SOL    HW230707  11.767   9.397   1.562  1.4078  0.3728 -0.4763
41368SOL     OW30708   5.726  12.776   7.754  0.2442  0.1443 -0.5917
41368SOL    HW130709   5.642  12.735   7.776  0.8602 -0.6018  0.4107
41368SOL    HW230710   5.733  12.849   7.815  0.1941  0.3798 -0.8679
41369SOL     OW30711  10.925   4.229  10.485  0.0237  0.2284  0.2137
41369SOL    HW130712  10.875   4.164  10.436  0.0921  0.4810 -0.2029
41369SOL    HW230713  10.991   4.179  10.532  0.5710  0.0525 -0.7040
41370SOL     OW30714   0.169   0.139   6.401  0.1744 -0.0941 -0.1765
41370SOL    HW130715   0.139   0.210   6.457  0.6535  0.9626 -1.2197
41370SOL    HW230716   0.181   0.179   6.315  0.3283 -1.4707 -0.8268
41371SOL     OW30717   4.465   0.352  12.531  0.0168 -0.4853 -0.0321
41371SOL    HW130718   4.500   0.316  12.613 -0.9357 -1.2868  0.0483
41371SOL    HW230719   4.423   0.434  12.557  0.8922 -0.0500  0.0424
41372SOL     OW30720   8.171   7.497   9.763 -0.2630  0.4636  0.4315
41372SOL    HW130721   8.119   7.576   9.750  0.1365  0.7915  0.8142
41372SOL    HW230722   8.107   7.426   9.758 -0.1910  0.4772 -3.4960
41373SOL     OW30723   6.467   7.434   0.616 -0.0135  0.3837  0.2395
41373SOL    HW130724   6.470   7.338   0.620  0.1213  0.3657 -0.2995
41373SOL    HW230725   6.473   7.455   0.523  1.0009  0.9508  0.4207
41374SOL     OW30726   7.375   6.671   4.524  0.3560 -0.8547 -0.0368
41374SOL    HW130727   7.385   6.765   4.507  0.5579 -0.8396  0.1613
41374SOL    HW230728   7.463   6.635   4.516  0.1153 -1.2236 -1.2329
41375SOL     OW30729   1.339   9.571   9.030  0.4728 -0.0041 -0.1107
41375SOL    HW130730   1.254   9.531   9.049  0.5072 -0.2014 -0.3720
41375SOL    HW230731   1.354   9.553   8.938  1.4487 -1.1891  0.2615
41376SOL     OW30732   1.217   3.998   2.603 -0.1642 -0.3837  0.7720
41376SOL    HW130733   1.302   4.009   2.644  0.9230 -0.6220 -1.2862
41376SOL    HW230734   1.225   3.919   2.550 -1.2946  0.1551 -0.2742
41377SOL     OW30735   8.644   8.300   9.342 -0.0828  0.1136 -0.1824
41377SOL    HW130736   8.570   8.348   9.378 -0.8429 -0.9332 -0.3131
41377SOL    HW230737   8.679   8.357   9.273 -1.2615  0.2767 -0.6620
41378SOL     OW30738   1.688   4.165   8.605  0.1044 -0.5909  0.2102
41378SOL    HW130739   1.754   4.100   8.581  0.7624 -2.2225  5.1907
41378SOL    HW230740   1.738   4.245   8.620 -0.2784  0.3620 -2.9879
41379SOL     OW30741   3.656   3.702   6.861 -0.3988 -0.2924  0.0380
41379SOL    HW130742   3.617   3.784   6.832  1.2200  1.4623  2.4181
41379SOL    HW230743   3.590   3.663   6.919  0.2348  1.3197  1.9320
41380SOL     OW30744   5.181   8.145   7.550  0.1583 -0.4625 -0.1128
41380SOL    HW130745   5.175   8.075   7.615 -3.3666 -0.0396  0.1959
41380SOL    HW230746   5.264   8.189   7.570 -0.2940 -0.9592  3.4748
41381SOL     OW30747   0.191   9.484   2.700  0.2034  0.1720  0.1652
41381SOL    HW130748   0.284   9.471   2.715  0.7039  2.0881 -0.8458
41381SOL    HW230749   0.152   9.483   2.787  0.9147 -2.0379  0.5121
41382SOL     OW30750   7.444   9.346   4.549  0.2293 -0.1384 -0.4938
41382SOL    HW130751   7.498   9.349   4.469  1.7547 -0.2637  0.4862
41382SOL    HW230752   7.507   9.353   4.620 -1.1545  0.5395  0.7144
41383SOL     OW30753   0.620   5.242   6.597 -0.4983  0.1390 -0.6055
41383SOL    HW130754   0.671   5.161   6.600 -0.2656  0.3082  0.3313
41383SOL    HW230755   0.668   5.299   6.538  0.9121  0.6183  0.9187
41384SOL     OW30756   2.561   2.636   8.799 -0.0733  0.2122 -0.0298
41384SOL    HW130757   2.637   2.692   8.780 -0.2170  0.7991  1.0946
41384SOL    HW230758   2.592   2.576   8.867 -0.4220  0.0071 -0.0493
41385SOL     OW30759   5.019   9.772   8.196  0.3861  0.1744 -0.4215
41385SOL    HW130760   4.969   9.850   8.170 -0.0766  0.0477  0.0795
41385SOL    HW230761   5.097   9.807   8.239  1.0540  0.3885 -1.7410
41386SOL     OW30762   9.406   1.395  12.596 -0.1067 -0.0537 -0.2732
41386SOL    HW130763   9.495   1.417  12.567 -1.2146  3.8311 -1.2190
41386SOL    HW230764   9.371   1.339  12.527  1.3820 -1.1954 -0.1480
41387SOL     OW30765   8.410   8.840   4.828  0.3777  0.3031  0.0157
41387SOL    HW130766   8.462   8.836   4.908  1.3204 -1.4422 -0.6327
41387SOL    HW230767   8.320   8.821   4.857  0.5165  0.7688  0.7858
41388SOL     OW30768  11.161   5.853   9.995 -0.0383  0.5282  0.2758
41388SOL    HW130769  11.107   5.869  10.072 -2.0332 -0.5420 -0.8275
41388SOL    HW230770  11.141   5.926   9.936 -0.1162  0.2468 -0.0482
41389SOL     OW30771   5.620   7.498   8.350  0.0398  0.2983  0.7378
41389SOL    HW130772   5.556   7.534   8.288  1.5272  0.9927 -0.4414
41389SOL    HW230773   5.608   7.403   8.343  1.1386  0.2703 -1.7620
41390SOL     OW30774   0.819   3.075  11.963 -0.0045  0.2050  0.5792
41390SOL    HW130775   0.824   3.050  12.055  0.9724  2.2551  1.1306
41390SOL    HW230776   0.749   3.140  11.959 -1.6675 -1.5222 -0.6133
41391SOL     OW30777   9.165   0.525   7.783 -0.3652  0.0157 -0.0874
41391SOL    HW130778   9.094   0.534   7.847  0.9087  1.7431  1.1965
41391SOL    HW230779   9.129   0.560   7.702 -1.8889 -1.8592 -0.3205
41392SOL     OW30780   1.348   5.017   7.057 -0.4168 -0.6478  0.4725
41392SOL    HW130781   1.362   5.042   7.149  0.2861 -0.1933  0.2468
41392SOL    HW230782   1.281   4.949   7.061 -0.8650 -0.1788  1.2732
41393SOL     OW30783   7.705  12.230  11.631 -0.2535 -0.5308 -0.5766
41393SOL    HW130784   7.649  12.154  11.641 -0.2443 -0.4242  0.3027
41393SOL    HW230785   7.756  12.234  11.712  0.6557 -0.3239 -1.1350
41394SOL     OW30786  10.201   5.156   9.867 -0.1486 -0.3525  0.3359
41394SOL    HW130787  10.258   5.198   9.804 -0.6168 -0.2528 -0.0301
41394SOL    HW230788  10.258   5.131   9.939 -0.0638  2.3117  1.3177
41395SOL     OW30789   2.722   8.732   7.216 -0.0109  0.0132  0.8330
41395SOL    HW130790   2.713   8.714   7.123 -0.2973  1.9425  0.4388
41395SOL    HW230791   2.657   8.800   7.234  0.8098  0.4920  2.1786
41396SOL     OW30792   5.338  11.325   6.650 -0.0770 -0.0919  0.5752
41396SOL    HW130793   5.267  11.281   6.697  0.6567 -1.1690  0.7120
41396SOL    HW230794   5.345  11.411   6.692 -1.0403 -0.1187  0.8111
41397SOL     OW30795  10.416   1.000   9.752  0.1626  0.7112 -0.4053
41397SOL    HW130796  10.463   1.050   9.819 -1.0738  1.8124 -0.3266
41397SOL    HW230797  10.328   0.988   9.788 -1.1600  2.9803 -2.5445
41398SOL     OW30798   1.232  11.401  10.581 -0.1222 -0.6826  0.2041
41398SOL    HW130799   1.233  11.410  10.677  0.0420  0.2915  0.1237
41398SOL    HW230800   1.188  11.318  10.565 -0.2639 -0.7958  1.1238
41399SOL     OW30801   4.630   7.959   6.713  0.1887 -0.3354  0.1316
41399SOL    HW130802   4.686   7.960   6.791  0.5955  0.8033 -0.1570
41399SOL    HW230803   4.677   7.903   6.651  1.0604  0.6689 -0.1314
41400SOL     OW30804  11.187   5.356   0.952 -0.1331  0.6384  0.1547
41400SOL    HW130805  11.168   5.450   0.944  1.8458  0.9168 -2.6551
41400SOL    HW230806  11.252   5.339   0.884 -1.7434 -3.1908 -0.6591
41401SOL     OW30807   4.751   4.887  11.677  0.1347  0.0704  0.3153
41401SOL    HW130808   4.672   4.916  11.722 -1.4826 -0.2486 -2.1168
41401SOL    HW230809   4.751   4.792  11.688 -0.7328 -0.1000 -0.9956
41402SOL     OW30810  12.227   7.516   0.767 -0.1039 -0.0607 -0.0313
41402SOL    HW130811  12.272   7.590   0.726 -0.8311  0.4925  0.1469
41402SOL    HW230812  12.153   7.499   0.709  0.6848 -1.4116 -0.6928
41403SOL     OW30813   1.424  10.737   1.167  0.3973  0.0161  0.1084
41403SOL    HW130814   1.500  10.679   1.163  0.5185  0.0514  1.6426
41403SOL    HW230815   1.351  10.681   1.192  0.1362  0.1877 -0.2536
41404SOL     OW30816   3.068   9.266   5.614  0.1601  0.2107 -0.7430
41404SOL    HW130817   3.148   9.236   5.570  1.0611 -1.6578  1.9133
41404SOL    HW230818   3.092   9.350   5.652  1.1274 -0.5779  0.4917
41405SOL     OW30819  10.723   9.026   7.529  0.4205 -0.2907  0.2174
41405SOL    HW130820  10.660   9.088   7.564  0.3975  0.0958 -0.4916
41405SOL    HW230821  10.743   9.059   7.441 -0.0620 -1.6309 -0.4160
41406SOL     OW30822   6.684  12.639   9.204  0.4078 -0.3678  0.1632
41406SOL    HW130823   6.770  12.626   9.162  0.9811  0.2660  1.1081
41406SOL    HW230824   6.695  12.606   9.293 -0.1794  0.1686  0.4423
41407SOL     OW30825   7.394   1.543  11.493  0.0347 -0.0273 -0.4499
41407SOL    HW130826   7.301   1.543  11.471 -0.3141  1.6702  0.8305
41407SOL    HW230827   7.435   1.592  11.422 -0.4860  1.6907  0.3840
41408SOL     OW30828   5.245   9.385   7.423 -0.3577  0.1622  0.1894
41408SOL    HW130829   5.231   9.310   7.481  1.4246 -0.2548  0.1303
41408SOL    HW230830   5.272   9.346   7.340 -0.5435  0.8336 -0.1869
41409SOL     OW30831   3.536  10.820   6.314  0.2041 -0.3610 -0.2778
41409SOL    HW130832   3.621  10.785   6.343  0.9144  1.3446 -0.2250
41409SOL    HW230833   3.550  10.847   6.224  0.3784  1.8894  0.3641
41410SOL     OW30834  10.519   6.327   1.090 -0.3635 -0.2633 -0.1223
41410SOL    HW130835  10.426   6.337   1.109 -0.5694 -0.5683 -0.9279
41410SOL    HW230836  10.522   6.269   1.014  0.4502  0.3191 -0.5537
41411SOL     OW30837  11.715   6.356  12.113  0.0530 -0.6219  0.6269
41411SOL    HW130838  11.697   6.450  12.109  2.4408 -0.1350 -0.9532
41411SOL    HW230839  11.630   6.316  12.134 -0.8378  1.9030  2.3531
41412SOL     OW30840  12.437  11.226  10.962 -0.3421  0.1883 -0.4049
41412SOL    HW130841  12.470  11.205  11.049 -1.7202 -0.0112  0.0953
41412SOL    HW230842  12.508  11.275  10.920  0.6133 -0.3208  0.5634
41413SOL     OW30843   5.209   7.792  10.081  0.5520 -0.2500  0.0111
41413SOL    HW130844   5.288   7.847  10.086  0.7045 -0.5829  2.0086
41413SOL    HW230845   5.183   7.780  10.172  0.1039 -2.9048 -0.3929
41414SOL     OW30846  10.493   1.586  10.314 -0.4407  0.1648 -0.2468
41414SOL    HW130847  10.446   1.632  10.245 -1.9538 -0.3786  0.3805
41414SOL    HW230848  10.425   1.560  10.376  0.9470  1.7125  2.1156
41415SOL     OW30849  11.829  11.620   6.900  0.1064 -0.1503  0.2234
41415SOL    HW130850  11.754  11.662   6.942  0.6286 -0.5922  1.6351
41415SOL    HW230851  11.823  11.528   6.925  0.2847 -0.4875 -0.9080
41416SOL     OW30852   0.113   5.563  12.661  0.1040  0.3814  0.6454
41416SOL    HW130853   0.057   5.569  12.584 -0.6526 -1.9423  0.9558
41416SOL    HW230854   0.199   5.591  12.630 -0.0849 -0.8942 -1.1684
41417SOL     OW30855   6.528   3.944   6.362  0.4492  0.3438  0.2401
41417SOL    HW130856   6.535   4.040   6.364  0.3137  0.3478  1.4055
41417SOL    HW230857   6.608   3.914   6.404  0.5351 -0.0633 -0.2138
41418SOL     OW30858   4.942  11.596   6.503  0.1068  0.1248  0.2907
41418SOL    HW130859   5.008  11.603   6.435  0.0317  1.1127  0.3089
41418SOL    HW230860   4.860  11.580   6.456  0.2616 -0.5367  0.2371
41419SOL     OW30861  11.773   5.981   8.063 -0.8019  0.7239 -0.1028
41419SOL    HW130862  11.792   6.074   8.071 -1.7180  0.8572  0.6624
41419SOL    HW230863  11.822   5.953   7.985  2.3605  1.0257  1.6380
41420SOL     OW30864   0.090   6.203  11.018  0.1309  0.2067 -0.1760
41420SOL    HW130865   0.131   6.131  11.065 -0.1985 -0.2264 -0.5385
41420SOL    HW230866   0.115   6.188  10.926  0.3906  0.7802 -0.2012
41421SOL     OW30867   6.821   7.746   6.078 -0.0869  0.5801  0.3216
41421SOL    HW130868   6.734   7.717   6.106 -0.2281 -0.4457 -1.0672
41421SOL    HW230869   6.806   7.834   6.042 -0.1811  1.2229  1.8699
41422SOL     OW30870   4.886   4.736   6.045  0.0086 -0.2745  0.0595
41422SOL    HW130871   4.957   4.776   6.095  0.7348 -1.9081  0.4007
41422SOL    HW230872   4.930   4.674   5.988 -0.7220  1.9216 -3.1495
41423SOL     OW30873   7.826  11.911  10.817  0.1841 -0.1426  0.3727
41423SOL    HW130874   7.861  11.925  10.905  0.6975  0.9209  0.0176
41423SOL    HW230875   7.731  11.906  10.828  0.2934 -0.8084  1.0748
41424SOL     OW30876   7.045   7.909  12.749 -0.1046  0.2306 -0.5357
41424SOL    HW130877   7.118   7.847  12.749 -0.0526  0.2801  0.1542
41424SOL    HW230878   6.970   7.858  12.720  0.1443  0.1036 -0.9636
41425SOL     OW30879   9.640  12.420   5.730  0.3003 -0.1934 -0.4807
41425SOL    HW130880   9.584  12.344   5.714 -1.5583  1.5835 -3.5066
41425SOL    HW230881   9.580  12.494   5.734  2.2315  1.5149 -1.1021
41426SOL     OW30882   1.760   1.189  11.285 -0.5912 -1.1790  0.0212
41426SOL    HW130883   1.792   1.155  11.369 -0.2465 -1.8545 -0.3798
41426SOL    HW230884   1.665   1.200  11.299 -0.3488 -0.0023  0.9216
41427SOL     OW30885   3.204   0.359  12.782 -0.1030  0.3052 -0.0234
41427SOL    HW130886   3.238   0.406  12.706  1.2844 -0.2798  0.1948
41427SOL    HW230887   3.167   0.427  12.838 -0.2549  0.8510 -0.7706
41428SOL     OW30888   2.065  10.841   5.673 -0.0301  0.3997  0.3280
41428SOL    HW130889   2.126  10.891   5.618  1.3945 -1.5813  0.0085
41428SOL    HW230890   1.992  10.820   5.614  0.1423  0.6720  0.0124
41429SOL     OW30891  10.877   3.476   5.626  0.6553 -0.6550  1.3671
41429SOL    HW130892  10.933   3.488   5.703 -0.3996  1.3315  1.8917
41429SOL    HW230893  10.841   3.563   5.609 -0.1932 -1.3358 -0.5714
41430SOL     OW30894   5.930   0.646   3.378 -0.2108 -0.3519 -0.1048
41430SOL    HW130895   5.844   0.606   3.388  0.9288 -2.7917  0.7172
41430SOL    HW230896   5.950   0.638   3.285 -0.2628 -1.1888 -0.0492
41431SOL     OW30897  12.182   6.989   0.067  0.2895  0.0409  0.1980
41431SOL    HW130898  12.139   6.932   0.130 -0.1135  0.5068  0.3502
41431SOL    HW230899  12.115   7.007   0.002  0.6899 -0.4002 -0.3478
41432SOL     OW30900   9.641   0.065   1.974 -0.1869  0.0229  0.0744
41432SOL    HW130901   9.719   0.110   1.944 -0.1033  0.1757  0.5149
41432SOL    HW230902   9.659   0.044   2.066 -1.7821  2.6219  1.0695
41433SOL     OW30903   1.231  11.097   7.830  0.2787 -0.1642 -0.1486
41433SOL    HW130904   1.162  11.091   7.896  0.9132  0.5369  0.6047
41433SOL    HW230905   1.248  11.191   7.821  2.7462 -0.3597  1.4555
41434SOL     OW30906   3.739  12.093   5.812  0.0536 -0.7242  0.3016
41434SOL    HW130907   3.688  12.117   5.735  1.5393  1.2930 -0.1463
41434SOL    HW230908   3.687  12.026   5.855 -0.9233 -1.8152 -2.3474
41435SOL     OW30909   6.409   0.901   2.662 -0.6170  0.0483 -0.7235
41435SOL    HW130910   6.437   0.893   2.571  1.0595  1.4695 -0.3947
41435SOL    HW230911   6.432   0.817   2.702 -0.7355 -0.3321 -1.4391
41436SOL     OW30912   5.580   9.441   3.788 -0.1540  0.0956  0.0225
41436SOL    HW130913   5.547   9.360   3.748  0.6144  0.0365 -0.5284
41436SOL    HW230914   5.655   9.413   3.840  0.9890  0.5870 -1.2699
41437SOL     OW30915   2.841   6.034   4.981  0.5471  0.4559  0.5830
41437SOL    HW130916   2.813   5.943   4.997 -0.0515 -0.1244 -2.9597
41437SOL    HW230917   2.907   6.027   4.913 -1.2219  2.7633 -1.5557
41438SOL     OW30918   2.418   8.497   4.343  0.0338  0.5358  0.2004
41438SOL    HW130919   2.415   8.404   4.366  2.7291  0.2320 -0.3679
41438SOL    HW230920   2.463   8.499   4.259 -2.1091  2.2395 -1.0178
41439SOL     OW30921   5.191   6.223  10.836  0.0003 -0.3860 -0.0471
41439SOL    HW130922   5.250   6.158  10.875 -0.4726 -0.1341  1.1229
41439SOL    HW230923   5.155   6.178  10.759  1.1550 -0.7956 -0.3753
41440SOL     OW30924   8.912   9.435   1.299  0.0372  0.5104  0.1837
41440SOL    HW130925   8.869   9.364   1.346  1.1112  0.9674  1.9493
41440SOL    HW230926   8.841   9.495   1.276 -0.4469  0.7249  2.0709
41441SOL     OW30927   3.893   4.142   7.739 -0.1591  0.4028  0.4148
41441SOL    HW130928   3.867   4.230   7.710 -1.5895  0.3381  1.4307
41441SOL    HW230929   3.960   4.116   7.675 -1.8563  1.0016 -1.7609
41442SOL     OW30930   9.464   5.761   4.870 -0.4193 -0.5047 -0.2347
41442SOL    HW130931   9.376   5.753   4.909 -0.4270  1.9129  0.4393
41442SOL    HW230932   9.516   5.804   4.938  0.6437  0.2461 -1.4678
41443SOL     OW30933  12.225   3.883   8.516  0.8502  0.7150  0.4315
41443SOL    HW130934  12.150   3.915   8.466  0.4230 -0.0276  0.5612
41443SOL    HW230935  12.278   3.834   8.453 -0.9311 -2.3251  1.0471
41444SOL     OW30936   0.694   9.806  12.567 -0.0629  0.5383  0.4394
41444SOL    HW130937   0.663   9.727  12.523 -0.6994  1.0198  0.0131
41444SOL    HW230938   0.686   9.875  12.501  1.5873  0.7547  0.4187
41445SOL     OW30939  10.087   9.903  11.901 -0.0781 -0.1591  0.0260
41445SOL    HW130940  10.066   9.810  11.900 -1.9713  0.1302 -3.1018
41445SOL    HW230941  10.008   9.945  11.936 -0.1560  0.3461 -0.7152
41446SOL     OW30942   7.755  11.272   2.290  0.2634 -0.0628 -0.3463
41446SOL    HW130943   7.739  11.182   2.260  0.6670 -0.2768  0.0623
41446SOL    HW230944   7.737  11.269   2.384  0.2894  0.2839 -0.3287
41447SOL     OW30945   0.058   8.591   8.318 -0.2975  0.1724  0.2032
41447SOL    HW130946   0.065   8.634   8.233 -0.1548 -0.8790 -0.3193
41447SOL    HW230947  -0.032   8.559   8.321 -0.4368  0.5816  0.6436
41448SOL     OW30948  10.443  12.633   0.138  0.7169 -0.1760  0.0338
41448SOL    HW130949  10.392  12.552   0.139 -0.4215  0.3554  4.4211
41448SOL    HW230950  10.404  12.685   0.067 -1.5194 -1.7239  0.0279
41449SOL     OW30951  10.742  10.491   4.977  0.8497  0.1044 -0.6814
41449SOL    HW130952  10.668  10.551   4.973 -0.8649 -1.7526  1.3119
41449SOL    HW230953  10.744  10.461   5.068  0.7057 -3.8871 -1.8342
41450SOL     OW30954   7.462  11.372  10.119 -0.2941  0.0200  0.1677
41450SOL    HW130955   7.407  11.445  10.091 -3.7428 -2.4180  0.0205
41450SOL    HW230956   7.503  11.403  10.200 -0.7246  2.4464 -0.4653
41451SOL     OW30957  12.128   8.988  12.733  0.2245  0.3482 -0.0740
41451SOL    HW130958  12.157   8.899  12.712  1.4465  0.6564  0.2183
41451SOL    HW230959  12.111   8.987  12.827 -0.5392  0.2184 -0.2134
41452SOL     OW30960   3.419   9.773   8.302  0.8102 -0.5352  0.1565
41452SOL    HW130961   3.459   9.686   8.293 -1.9181 -1.8951  0.2357
41452SOL    HW230962   3.402   9.781   8.396  0.2087 -0.3226  0.0322
41453SOL     OW30963   1.021   7.702   6.861 -0.0669 -0.0927  0.1486
41453SOL    HW130964   1.040   7.793   6.840  0.6470 -0.4129 -0.6805
41453SOL    HW230965   1.041   7.654   6.781 -3.2513 -0.6780 -0.4334
41454SOL     OW30966  12.645   1.602   2.266  0.1103 -0.0881  0.1432
41454SOL    HW130967  12.567   1.642   2.227  0.5512  0.2798 -0.3725
41454SOL    HW230968  12.718   1.649   2.227  0.5613  0.7775  1.9679
41455SOL     OW30969   1.692  12.391  12.339 -0.3136  0.4992  0.6029
41455SOL    HW130970   1.656  12.456  12.399 -2.8484  0.1325 -0.3837
41455SOL    HW230971   1.742  12.441  12.275 -0.5956  1.2583  0.9699
41456SOL     OW30972   7.714  12.603   2.427  0.3225  0.1298 -0.6547
41456SOL    HW130973   7.741  12.557   2.507 -0.0068  1.8672  0.5183
41456SOL    HW230974   7.766  12.684   2.427  0.2924  0.1728 -2.1940
41457SOL     OW30975  10.464   0.687   2.534 -0.6417  0.0561  0.5050
41457SOL    HW130976  10.498   0.775   2.516 -0.6418 -0.2462 -1.1193
41457SOL    HW230977  10.394   0.674   2.470 -1.1403 -0.8535  1.2042
41458SOL     OW30978   3.879   0.371  10.637  0.2777 -0.1045 -0.1748
41458SOL    HW130979   3.863   0.437  10.569 -0.4191 -1.1250 -1.0241
41458SOL    HW230980   3.975   0.369  10.646  0.5819 -1.5885 -2.8283
41459SOL     OW30981  10.842   3.929   7.785  0.3536 -0.0737 -0.8005
41459SOL    HW130982  10.822   3.971   7.702  0.9436 -1.4581 -1.6740
41459SOL    HW230983  10.827   3.836   7.770 -0.5934 -0.2708  0.9751
41460SOL     OW30984  12.483  12.665   4.873 -0.2544 -0.1469 -0.4878
41460SOL    HW130985  12.480  12.627   4.961  0.8077 -1.1310 -0.8489
41460SOL    HW230986  12.524  12.597   4.819  2.6541  1.8110 -0.9912
41461SOL     OW30987  11.055   3.888   0.048  0.2162  0.0808  0.3566
41461SOL    HW130988  11.003   3.848  -0.022  0.7262  0.8978 -0.5032
41461SOL    HW230989  11.122   3.939   0.003 -1.3283  3.2272  1.3162
41462SOL     OW30990   6.240   3.875   2.944 -0.2271 -0.3248 -0.4052
41462SOL    HW130991   6.206   3.870   2.854 -0.3335 -0.1580 -0.3739
41462SOL    HW230992   6.218   3.790   2.982 -1.3047  0.0651 -0.1404
41463SOL     OW30993   4.540   9.673   0.915  0.0733 -0.0393  0.6652
41463SOL    HW130994   4.446   9.677   0.897  0.2189 -0.1908 -0.1377
41463SOL    HW230995   4.547   9.692   1.009 -0.8256 -0.8614  0.9168
41464SOL     OW30996  10.332  10.401  12.747 -0.0426  0.3870  0.1416
41464SOL    HW130997  10.309  10.352  12.668 -0.1271  0.0337  0.3842
41464SOL    HW230998  10.376  10.480  12.714 -1.0292  0.7651 -0.3084
41465SOL     OW30999   3.768   3.756  12.687 -0.1395 -0.4287  0.6005
41465SOL    HW131000   3.689   3.762  12.741  0.1704 -0.0566  1.0161
41465SOL    HW231001   3.816   3.836  12.706 -1.3478  1.1870 -2.3229
41466SOL     OW31002   5.037   6.942   7.833 -0.5055 -0.6094 -0.1303
41466SOL    HW131003   5.085   7.003   7.776 -0.8363 -0.1442  0.0744
41466SOL    HW231004   4.995   6.999   7.897 -0.7032 -1.0757  0.1551
41467SOL     OW31005   6.395   9.358  11.714 -0.4583  0.1624 -0.2556
41467SOL    HW131006   6.329   9.309  11.762 -1.5311  1.2493 -0.5705
41467SOL    HW231007   6.425   9.298  11.645 -1.7432 -0.0476 -0.6450
41468SOL     OW31008   1.746   2.113   1.568  0.4430 -0.2696  0.0126
41468SOL    HW131009   1.687   2.183   1.596 -1.1989 -1.5232 -0.1552
41468SOL    HW231010   1.828   2.131   1.614 -0.1877  1.2981  0.5937
41469SOL     OW31011   4.261   0.975  12.244 -0.4173  0.0596  0.0306
41469SOL    HW131012   4.208   0.946  12.170 -0.1984  0.3719 -0.2521
41469SOL    HW231013   4.203   0.968  12.319 -1.4315  2.0094 -0.5167
41470SOL     OW31014  11.209   1.122   9.648  0.8881 -0.1525  0.4969
41470SOL    HW131015  11.256   1.057   9.701 -0.6263 -1.3366  0.4837
41470SOL    HW231016  11.126   1.136   9.695  0.8198  1.1342  0.0373
41471SOL     OW31017  10.231   6.210   9.783 -0.1729  0.3925 -0.1574
41471SOL    HW131018  10.269   6.179   9.701 -0.0070 -0.6245  0.2908
41471SOL    HW231019  10.228   6.133   9.839  3.3931  1.7325  2.2478
41472SOL     OW31020  11.886   9.427  11.049 -0.0992  0.3903 -0.3111
41472SOL    HW131021  11.798   9.392  11.034  0.6648 -0.7630 -2.5021
41472SOL    HW231022  11.893   9.503  10.990  0.4250  0.3714 -0.2810
41473SOL     OW31023   6.727  11.070   8.852 -0.2227 -0.2990 -0.1560
41473SOL    HW131024   6.801  11.037   8.801  0.3619  0.1555  0.3858
41473SOL    HW231025   6.712  11.159   8.819 -0.1429 -0.1734  0.1476
41474SOL     OW31026   2.559   0.895   4.768 -0.2857  0.3495  0.6138
41474SOL    HW131027   2.472   0.863   4.795 -0.5990  1.7067  1.3324
41474SOL    HW231028   2.542   0.944   4.687  0.3690 -2.1407 -1.1544
41475SOL     OW31029   7.259   8.294   0.270  0.0913 -0.3036  0.1729
41475SOL    HW131030   7.191   8.234   0.300  1.5176 -1.3121  1.5685
41475SOL    HW231031   7.249   8.371   0.324 -0.5494 -0.0335 -0.3166
41476SOL     OW31032  10.458   6.502   9.536 -0.3892  0.0814  0.0989
41476SOL    HW131033  10.368   6.532   9.522 -0.9077 -0.7124  1.5610
41476SOL    HW231034  10.468   6.501   9.631  0.9189 -0.5841 -0.0324
41477SOL     OW31035   8.273  10.192   2.894 -0.8318  0.0148 -0.1872
41477SOL    HW131036   8.324  10.161   2.968 -1.5109 -0.3999  0.1133
41477SOL    HW231037   8.186  10.155   2.907 -0.7861 -0.6295 -1.5523
41478SOL     OW31038  10.672   7.273   5.777 -0.0737  0.0304 -0.2201
41478SOL    HW131039  10.711   7.187   5.796  0.9042  0.7132  1.0308
41478SOL    HW231040  10.642   7.305   5.862  1.9899  2.0553 -0.1751
41479SOL     OW31041   1.622  12.483   5.579 -0.4513  0.1244 -0.4215
41479SOL    HW131042   1.546  12.537   5.600 -1.3944 -1.0985 -0.5971
41479SOL    HW231043   1.697  12.540   5.595 -1.3514  0.9978  0.8523
41480SOL     OW31044  12.221  10.109   7.527 -0.4603 -0.5335 -0.9028
41480SOL    HW131045  12.156  10.065   7.472 -1.3303 -0.9047  0.3502
41480SOL    HW231046  12.183  10.195   7.544 -0.5465 -0.6834 -0.3195
41481SOL     OW31047   3.075  10.257  12.151  0.2078 -0.2885  0.2288
41481SOL    HW131048   3.150  10.281  12.206  0.1956 -2.0921  1.0863
41481SOL    HW231049   3.105  10.182  12.100  0.3831  1.5896 -2.7012
41482SOL     OW31050  10.441   4.531   2.084  0.0352  0.0452 -0.8578
41482SOL    HW131051  10.372   4.469   2.059  0.8737 -1.1227 -0.3504
41482SOL    HW231052  10.421   4.610   2.034 -0.3183 -1.0622 -2.5441
41483SOL     OW31053   9.798   9.478   3.404 -0.4674 -0.2606 -0.0094
41483SOL    HW131054   9.867   9.412   3.401  1.6970  1.8913 -2.1999
41483SOL    HW231055   9.814   9.527   3.484 -0.0034 -0.3238 -0.0614
41484SOL     OW31056   9.925  10.964   3.614 -0.2284 -0.0656 -0.2639
41484SOL    HW131057   9.846  10.950   3.562 -0.7205  0.0573  0.4274
41484SOL    HW231058   9.913  10.908   3.691  0.2219  0.1791 -0.0091
41485SOL     OW31059   3.058   7.424   8.834 -0.1319  0.0720  0.1777
41485SOL    HW131060   3.095   7.346   8.876 -0.0521  0.9622  1.8333
41485SOL    HW231061   2.966   7.400   8.817 -0.1185 -0.3746  0.6954
41486SOL     OW31062   3.574   8.271   9.875 -0.1266 -0.1909 -0.8258
41486SOL    HW131063   3.581   8.229   9.789 -0.4259  1.2121 -1.5807
41486SOL    HW231064   3.655   8.322   9.883  0.2821 -0.9629  0.1123
41487SOL     OW31065   1.241   6.400   0.126  0.0442 -0.2101 -0.2129
41487SOL    HW131066   1.330   6.434   0.135  0.2253 -0.0545 -2.2240
41487SOL    HW231067   1.186   6.478   0.123 -0.3523 -0.3189  2.1986
41488SOL     OW31068   9.932   4.376   3.213 -0.4220 -0.4075 -0.6493
41488SOL    HW131069   9.879   4.450   3.243  0.8554  1.7490 -3.3183
41488SOL    HW231070   9.869   4.316   3.174 -1.3198  0.1200 -0.0618
41489SOL     OW31071   8.313   1.609   9.236  0.2225  0.2044 -0.3396
41489SOL    HW131072   8.400   1.640   9.209  0.4839  0.1575  0.4074
41489SOL    HW231073   8.332   1.537   9.296 -0.3564 -2.6200 -3.2702
41490SOL     OW31074   3.174   3.160  10.237  0.3591  0.2850 -0.0946
41490SOL    HW131075   3.202   3.127  10.152 -0.9971 -1.5294  0.1025
41490SOL    HW231076   3.229   3.114  10.300 -0.3248 -0.2915  0.1001
41491SOL     OW31077   7.913   2.242   5.107  0.1448  0.0644  0.1062
41491SOL    HW131078   7.827   2.277   5.083 -0.2570  0.2731  1.7637
41491SOL    HW231079   7.963   2.319   5.136  2.0837  0.5362 -3.8274
41492SOL     OW31080   3.677   2.760   0.076 -0.6375 -0.1146  0.2468
41492SOL    HW131081   3.739   2.773   0.004 -1.1723 -2.0381 -0.6231
41492SOL    HW231082   3.723   2.793   0.154 -0.3568  2.7732 -1.0111
41493SOL     OW31083   7.949  10.509   2.915 -0.5550  1.1606  0.4457
41493SOL    HW131084   8.008  10.526   2.988  0.6107  1.5597 -0.5532
41493SOL    HW231085   8.007  10.500   2.839 -1.5658 -1.3205 -0.1298
41494SOL     OW31086   9.014   4.479  11.979  0.1105 -0.1538 -0.2061
41494SOL    HW131087   8.930   4.481  11.935 -0.5733  1.0955  1.0854
41494SOL    HW231088   9.001   4.530  12.059  2.0852  0.0733  0.0266
41495SOL     OW31089   3.746   6.133  11.563 -0.1369 -0.2539 -0.3507
41495SOL    HW131090   3.683   6.109  11.631  1.3322 -1.1521  0.7669
41495SOL    HW231091   3.706   6.207  11.518 -1.2597  0.2548  1.3845
41496SOL     OW31092   4.482   9.533   6.762 -0.0537 -0.6711 -0.0921
41496SOL    HW131093   4.451   9.601   6.822  0.7219 -0.2997 -0.0989
41496SOL    HW231094   4.575   9.553   6.750 -0.2548 -0.5536 -1.6549
41497SOL     OW31095   1.046   8.384   0.526  0.3163 -0.1449 -0.2507
41497SOL    HW131096   1.026   8.321   0.595  0.1515 -0.0889 -0.2446
41497SOL    HW231097   1.056   8.331   0.447 -1.0685 -0.0848 -0.4988
41498SOL     OW31098   3.823   7.134   0.388 -0.2485 -0.3050  0.1710
41498SOL    HW131099   3.843   7.147   0.481 -0.6599  1.0168  0.0971
41498SOL    HW231100   3.890   7.073   0.358  1.3824  1.1029  0.7877
41499SOL     OW31101   5.808   6.448   2.869 -0.0343  0.1540  0.9016
41499SOL    HW131102   5.785   6.417   2.781  0.1606 -0.6506  1.1236
41499SOL    HW231103   5.883   6.505   2.855 -0.1916  0.2695  0.5126
41500SOL     OW31104   9.629   5.467   3.194  0.7527 -0.0844 -0.1759
41500SOL    HW131105   9.535   5.487   3.200  0.7165 -0.3287  0.0871
41500SOL    HW231106   9.652   5.434   3.281  1.2289  0.5876 -0.0322
41501SOL     OW31107   5.332   3.202  10.160  0.6294 -0.0985  0.3097
41501SOL    HW131108   5.302   3.117  10.128 -2.7739 -0.3713  3.5117
41501SOL    HW231109   5.394   3.181  10.230  1.2390  0.1523 -0.1484
41502SOL     OW31110   2.489   7.325   0.538 -0.2912 -0.8589 -0.2393
41502SOL    HW131111   2.435   7.330   0.617 -0.0655  0.1220 -0.1300
41502SOL    HW231112   2.568   7.279   0.565  0.4890  0.8709  0.5451
41503SOL     OW31113   0.758   8.834   6.755 -0.0893 -0.1825  0.0397
41503SOL    HW131114   0.730   8.852   6.845 -0.1565  1.3907 -0.2520
41503SOL    HW231115   0.853   8.847   6.756 -0.2988  1.7935 -0.4717
41504SOL     OW31116  10.209  11.764   5.485 -0.1726  0.8255  0.8111
41504SOL    HW131117  10.136  11.780   5.545  1.7467  2.5183  2.8929
41504SOL    HW231118  10.256  11.690   5.524  0.3602  1.0834  0.6719
41505SOL     OW31119   2.775   1.630  12.034 -0.6815 -0.0508  0.3908
41505SOL    HW131120   2.799   1.625  11.942  0.5748 -0.0927  0.7005
41505SOL    HW231121   2.830   1.564  12.077 -0.2073  0.9316  1.3512
41506SOL     OW31122   4.796   9.395   5.168  0.6492 -0.1179  0.8129
41506SOL    HW131123   4.815   9.303   5.154 -1.4440 -0.6869  1.4169
41506SOL    HW231124   4.830   9.414   5.255 -0.4299 -0.7844  1.3887
41507SOL     OW31125   0.527   2.703   4.301 -0.4798 -0.2292  0.1987
41507SOL    HW131126   0.530   2.743   4.214 -0.4428  0.5644  0.5571
41507SOL    HW231127   0.447   2.738   4.341  0.5943  1.1418  1.2754
41508SOL     OW31128   7.682  10.374   9.013  0.3001  0.2369 -0.2631
41508SOL    HW131129   7.693  10.391   9.106  0.0168  0.6297 -0.2989
41508SOL    HW231130   7.762  10.326   8.987  1.3767  1.9605 -0.2657
41509SOL     OW31131   3.715   2.874   8.278 -0.2649  0.1983 -0.4475
41509SOL    HW131132   3.632   2.852   8.320  0.2082 -0.1954  0.3202
41509SOL    HW231133   3.765   2.793   8.281  0.2548  0.5069 -0.6250
41510SOL     OW31134  11.444   2.856  10.332  0.3607 -0.1486  0.1847
41510SOL    HW131135  11.461   2.766  10.359 -1.2070 -0.2534  0.9584
41510SOL    HW231136  11.457   2.856  10.237 -0.7366 -1.4837  0.0072
41511SOL     OW31137   6.778   7.510  10.846 -0.5303  0.4945  0.2180
41511SOL    HW131138   6.833   7.433  10.861  2.2551  2.4747  0.9776
41511SOL    HW231139   6.753   7.504  10.754 -0.3233 -1.2543  0.2376
41512SOL     OW31140   5.158   2.079   8.673 -0.0119  0.3386  0.0818
41512SOL    HW131141   5.253   2.070   8.664  0.0454  0.5416  0.4587
41512SOL    HW231142   5.143   2.173   8.683 -0.1007  0.1898  1.5476
41513SOL     OW31143   1.201   3.225   1.584 -0.1110  0.0390 -0.5077
41513SOL    HW131144   1.279   3.278   1.602  0.4354 -0.3395 -1.6519
41513SOL    HW231145   1.226   3.135   1.606 -1.4033  0.2769  2.5560
41514SOL     OW31146  12.362   8.103  11.850 -0.2077 -0.0660 -0.3229
41514SOL    HW131147  12.429   8.093  11.918 -0.2031 -1.3020 -0.4929
41514SOL    HW231148  12.370   8.025  11.796 -3.2858 -1.4445  0.9741
41515SOL     OW31149  12.087   8.527  12.192 -0.5035  0.3894  0.1220
41515SOL    HW131150  12.124   8.531  12.104  0.3036 -0.3503  0.4050
41515SOL    HW231151  11.997   8.497  12.180 -0.2169 -0.2784 -0.4162
41516SOL     OW31152  11.245   5.088  11.727 -0.3425 -0.0080 -0.4687
41516SOL    HW131153  11.190   5.074  11.650  0.6628  0.8459 -1.3664
41516SOL    HW231154  11.183   5.107  11.798 -1.1890  2.5969 -1.7974
41517SOL     OW31155   5.890   4.544   2.177 -0.4052  0.1070 -0.2142
41517SOL    HW131156   5.954   4.611   2.152 -0.4403  0.6096  0.9778
41517SOL    HW231157   5.855   4.575   2.260 -1.5992 -0.5925 -0.4438
41518SOL     OW31158   4.494   8.855   4.311  0.0307  0.0347  0.2848
41518SOL    HW131159   4.512   8.853   4.217 -1.0057 -0.1937  0.0811
41518SOL    HW231160   4.456   8.769   4.330 -1.3149  0.6641  0.5772
41519SOL     OW31161   0.977   3.173   5.913 -0.4439 -0.6033  0.0590
41519SOL    HW131162   1.046   3.221   5.868  0.1482 -0.8799  0.6466
41519SOL    HW231163   0.896   3.217   5.888  0.0593  0.5063  0.3371
41520SOL     OW31164   2.634   5.130   6.810  0.2967 -0.3008 -0.6093
41520SOL    HW131165   2.632   5.132   6.714  1.0267  0.8960 -0.6122
41520SOL    HW231166   2.727   5.126   6.832  0.1121 -2.0980  0.0567
41521SOL     OW31167   4.562   2.371   5.934 -0.0270 -0.6959 -0.3660
41521SOL    HW131168   4.473   2.406   5.928 -0.6361 -1.6759  2.0097
41521SOL    HW231169   4.552   2.277   5.919  0.6078 -0.8100 -0.1109
41522SOL     OW31170   6.793   7.767   5.639  0.0526 -0.9656  0.6634
41522SOL    HW131171   6.800   7.856   5.673 -0.3558 -1.4967  2.2288
41522SOL    HW231172   6.822   7.773   5.549 -0.8314  0.9264  0.4648
41523SOL     OW31173   0.768  10.739   6.905 -0.0989  0.5310  0.4437
41523SOL    HW131174   0.778  10.834   6.903 -0.8647  0.6015 -0.8568
41523SOL    HW231175   0.821  10.711   6.980 -0.5740  2.0536  1.3862
41524SOL     OW31176  10.467   6.048   2.764 -0.0731  0.0607 -0.2516
41524SOL    HW131177  10.398   6.061   2.698 -1.1586 -0.2807  0.7836
41524SOL    HW231178  10.428   6.079   2.846  0.0521 -2.4427  0.8577
41525SOL     OW31179   0.740   6.615   8.641 -0.1521  0.8425  0.0804
41525SOL    HW131180   0.774   6.552   8.577  0.6070  1.7737 -0.4746
41525SOL    HW231181   0.697   6.561   8.708 -0.2083 -0.2051 -0.7697
41526SOL     OW31182   2.512   1.714  10.590  0.0552  0.3586 -1.0495
41526SOL    HW131183   2.549   1.739  10.675 -0.3025 -2.7858  0.1546
41526SOL    HW231184   2.586   1.721  10.530  1.9238 -2.5538  0.6589
41527SOL     OW31185   3.445   2.938  11.400  0.7716 -0.2433  0.3093
41527SOL    HW131186   3.372   2.919  11.341  1.0519  0.3641 -0.2441
41527SOL    HW231187   3.406   2.992  11.469  0.7550  0.3147 -0.1363
41528SOL     OW31188   7.408   2.577   6.799  0.4926  0.1484 -0.0770
41528SOL    HW131189   7.403   2.492   6.755  0.4298  0.1381 -0.0493
41528SOL    HW231190   7.390   2.558   6.891 -1.8339  0.5170 -0.4023
41529SOL     OW31191   9.064   5.635   2.208 -0.3710 -0.0453  0.2410
41529SOL    HW131192   9.055   5.560   2.150 -1.6805  0.6123 -0.4607
41529SOL    HW231193   9.096   5.705   2.153 -0.6419  0.3127  0.5312
41530SOL     OW31194   5.230  11.109  10.950 -0.2059  0.1324  0.1027
41530SOL    HW131195   5.247  11.045  11.019 -1.4872  0.4641  0.7556
41530SOL    HW231196   5.177  11.177  10.993  2.6008  2.6201 -0.0649
41531SOL     OW31197  11.195   8.944   0.761 -0.7233  0.3712  0.0540
41531SOL    HW131198  11.221   8.903   0.844  1.5757  0.7539 -0.4206
41531SOL    HW231199  11.165   9.031   0.786  0.0408  0.5182  0.4842
41532SOL     OW31200   1.216   4.051   6.971  0.5778  0.8592  0.2516
41532SOL    HW131201   1.249   4.138   6.949  0.4122  1.2104  1.3366
41532SOL    HW231202   1.294   3.997   6.981  0.7040  1.0067  0.0591
41533SOL     OW31203   4.575   1.417   5.795 -0.0242  0.2477 -0.0336
41533SOL    HW131204   4.650   1.391   5.849  0.4542  1.3599 -0.1486
41533SOL    HW231205   4.611   1.430   5.707 -0.3532  0.7465 -0.1016
41534SOL     OW31206   1.359  10.571   3.720 -0.5191 -0.1914  0.6433
41534SOL    HW131207   1.269  10.579   3.690 -0.3292 -1.0599 -0.2434
41534SOL    HW231208   1.412  10.582   3.640  0.1049 -0.5796  0.9907
41535SOL     OW31209   1.609   6.289   6.676  0.2353 -0.0357 -0.0451
41535SOL    HW131210   1.638   6.210   6.722 -1.5652  0.7128  2.6249
41535SOL    HW231211   1.674   6.355   6.699  0.4352 -0.1604 -0.2545
41536SOL     OW31212   9.582   0.657   3.208  0.1889  0.0880 -0.0211
41536SOL    HW131213   9.636   0.579   3.196 -0.2493 -0.1595 -0.4195
41536SOL    HW231214   9.619   0.700   3.285  0.4455 -0.5099  0.1951
41537SOL     OW31215   1.506  12.038   4.414 -0.0478 -0.6121  0.0589
41537SOL    HW131216   1.476  11.950   4.390 -0.5981 -0.2578 -0.5888
41537SOL    HW231217   1.599  12.038   4.392 -0.4565 -0.4067 -1.8488
41538SOL     OW31218   4.555   3.090   8.005  0.1138 -0.0949 -0.4572
41538SOL    HW131219   4.512   3.109   7.922  0.6644  2.3466 -0.2524
41538SOL    HW231220   4.625   3.029   7.982  0.3964  0.7104 -1.8409
41539SOL     OW31221  10.567   4.761   0.660  0.6035  0.1559 -0.2903
41539SOL    HW131222  10.613   4.705   0.723  0.7474  0.4599 -0.1202
41539SOL    HW231223  10.540   4.702   0.590 -2.0047 -0.7215  1.3313
41540SOL     OW31224   9.831   9.291  10.404 -0.1201  0.5470 -0.1080
41540SOL    HW131225   9.919   9.286  10.442 -0.1993  0.3587  0.0607
41540SOL    HW231226   9.779   9.335  10.471 -0.5178 -0.7972  0.5132
41541SOL     OW31227  10.450  12.604   3.425 -0.1333 -0.0383 -0.3236
41541SOL    HW131228  10.442  12.539   3.494  1.3666  1.0682  0.9626
41541SOL    HW231229  10.456  12.553   3.344  0.0559 -1.4494  0.5539
41542SOL     OW31230   2.108   1.062   4.410 -0.2889 -0.2725 -0.9846
41542SOL    HW131231   2.126   1.146   4.451 -1.2188 -0.6599  0.2505
41542SOL    HW231232   2.071   1.085   4.324 -2.5810  0.6548  0.1648
41543SOL     OW31233   7.360   6.461   3.678 -0.0278 -0.3906 -0.4197
41543SOL    HW131234   7.401   6.409   3.747  0.7049  0.0725 -0.4956
41543SOL    HW231235   7.278   6.493   3.717  0.4215 -0.0609  0.2714
41544SOL     OW31236   1.380  11.051   9.031  0.3775 -0.5275 -0.0026
41544SOL    HW131237   1.393  10.957   9.045  0.5099 -0.6157 -0.6492
41544SOL    HW231238   1.309  11.056   8.967  0.6415 -0.2021 -0.2743
41545SOL     OW31239   7.096   9.884  12.010  0.5014 -0.4347 -0.2158
41545SOL    HW131240   7.071   9.971  11.979  0.0533  0.1241  1.5578
41545SOL    HW231241   7.115   9.834  11.931 -0.2755  0.9607 -1.3278
41546SOL     OW31242  11.332   8.675   2.899  0.3057  0.4162 -0.0785
41546SOL    HW131243  11.411   8.728   2.913  1.6312 -1.2953 -0.8233
41546SOL    HW231244  11.358   8.608   2.837 -1.4179 -0.9467  0.5803
41547SOL     OW31245   0.661   5.329  10.176  0.0950 -0.5228  0.2103
41547SOL    HW131246   0.604   5.353  10.103  0.5658 -0.6108 -0.1956
41547SOL    HW231247   0.667   5.234  10.172  0.0750 -0.5322  0.3983
41548SOL     OW31248   7.877   6.289  10.830  0.4352 -0.0456 -0.4164
41548SOL    HW131249   7.849   6.376  10.859 -0.8083 -0.4857 -0.2142
41548SOL    HW231250   7.893   6.299  10.736 -0.8565  0.1511 -0.6325
41549SOL     OW31251   2.335  12.405   7.531  0.3535 -1.1256 -0.1700
41549SOL    HW131252   2.304  12.343   7.465 -0.2317 -0.4657 -0.5384
41549SOL    HW231253   2.306  12.491   7.498  0.0261 -0.7861  0.9645
41550SOL     OW31254   1.569   7.463   1.151  0.5157 -0.6527 -0.2172
41550SOL    HW131255   1.502   7.519   1.190  0.0979 -2.1864  1.3997
41550SOL    HW231256   1.571   7.489   1.059 -0.1818  1.4593  0.2996
41551SOL     OW31257   8.219   9.763   0.516  0.2157 -0.1624  0.2454
41551SOL    HW131258   8.306   9.801   0.519  0.1736  0.0099 -0.6392
41551SOL    HW231259   8.190   9.773   0.426 -0.3893 -0.9771  0.3300
41552SOL     OW31260  12.016  10.290  10.898  0.3417  0.0971  0.8519
41552SOL    HW131261  11.985  10.319  10.813 -0.5224 -0.1573  1.0772
41552SOL    HW231262  12.037  10.371  10.945 -0.5176  0.3026  0.8970
41553SOL     OW31263  12.619   5.610   5.423 -0.0209  0.0089  0.1123
41553SOL    HW131264  12.689   5.639   5.480 -1.8764  0.7439  2.1595
41553SOL    HW231265  12.582   5.533   5.467  0.1349 -1.0212 -1.4686
41554SOL     OW31266   9.217   0.653   3.707 -0.1348 -0.3453  0.1617
41554SOL    HW131267   9.267   0.595   3.649  0.2624 -0.3803  0.5406
41554SOL    HW231268   9.283   0.705   3.752 -0.4234 -0.6326  0.9238
41555SOL     OW31269   3.757   9.749  12.614 -0.2030  0.4537  0.0443
41555SOL    HW131270   3.774   9.772  12.523  1.4545  2.9438  0.8888
41555SOL    HW231271   3.832   9.783  12.662 -1.0904 -0.6855  2.3899
41556SOL     OW31272   3.541  12.752   1.463  0.3796 -0.3489  0.4245
41556SOL    HW131273   3.625  12.781   1.497 -0.3412  0.5411  1.5278
41556SOL    HW231274   3.529  12.801   1.382  1.3629 -1.2494 -0.2967
41557SOL     OW31275   6.174  12.009   3.830  0.3207 -0.1284 -0.2917
41557SOL    HW131276   6.170  12.045   3.919  0.8008  1.3353 -0.8434
41557SOL    HW231277   6.150  11.916   3.841 -1.4544  0.4330  1.1066
41558SOL     OW31278   6.681   9.050   3.291 -0.1844  0.1100  0.0894
41558SOL    HW131279   6.747   8.984   3.270  0.2337  0.5822 -0.1386
41558SOL    HW231280   6.607   9.001   3.326  0.3050 -0.4326  0.3911
41559SOL     OW31281   7.361   5.230  11.829 -1.0119  0.0251  0.2925
41559SOL    HW131282   7.347   5.288  11.754  2.0890  0.0715 -0.3544
41559SOL    HW231283   7.391   5.287  11.899 -0.8492 -0.4271  0.5962
41560SOL     OW31284   0.541   0.419   7.855  0.0465  0.2039  0.1561
41560SOL    HW131285   0.495   0.485   7.908 -0.5456 -0.1691  0.1211
41560SOL    HW231286   0.509   0.433   7.766  0.0144 -0.0519  0.1279
41561SOL     OW31287   9.225   7.661   0.083 -0.3012  0.4014  0.0098
41561SOL    HW131288   9.274   7.740   0.058 -0.7512  0.6117 -0.2077
41561SOL    HW231289   9.134   7.689   0.087 -0.3925  0.0277  0.5180
41562SOL     OW31290   4.140   8.372   1.189 -0.4099  0.7830  0.1604
41562SOL    HW131291   4.071   8.369   1.256 -0.0952  0.8733  0.4920
41562SOL    HW231292   4.114   8.305   1.125 -2.0630  2.4095 -0.9680
41563SOL     OW31293   4.658   2.733   5.340 -0.1930  0.4392  0.1634
41563SOL    HW131294   4.716   2.765   5.409  0.4329 -0.5426  0.1123
41563SOL    HW231295   4.670   2.796   5.269  0.0842  0.7790  0.5016
41564SOL     OW31296   5.961   6.127   8.617  0.1366 -0.1773  0.5551
41564SOL    HW131297   5.901   6.194   8.583  0.5902 -0.2145 -0.3632
41564SOL    HW231298   5.909   6.046   8.618  0.6556 -0.6433 -2.1137
41565SOL     OW31299   4.086   2.847   3.755  0.2153  0.2754 -0.1966
41565SOL    HW131300   4.127   2.933   3.767  0.8751 -0.2323  1.4320
41565SOL    HW231301   3.993   2.862   3.774  0.2859  0.6746 -0.1546
41566SOL     OW31302   3.357   3.012   1.231  0.8656 -0.7879  0.9064
41566SOL    HW131303   3.280   2.955   1.233 -0.3272  0.7697  1.4329
41566SOL    HW231304   3.335   3.083   1.291  2.1251  0.4429 -0.0421
41567SOL     OW31305   1.127   6.304   9.861  0.7783  0.0091 -0.0701
41567SOL    HW131306   1.162   6.369   9.921  3.4724  0.0281 -1.5097
41567SOL    HW231307   1.071   6.354   9.801  1.6422  0.7764 -0.2605
41568SOL     OW31308   6.045   0.427   9.669  0.4306  0.0943  0.1861
41568SOL    HW131309   6.000   0.408   9.586  3.2978 -0.8818 -1.2671
41568SOL    HW231310   6.058   0.522   9.668  1.2094 -0.0078 -0.9492
41569SOL     OW31311   4.688   5.182   3.998  0.3002  0.2242 -0.4695
41569SOL    HW131312   4.736   5.204   3.918 -0.4654  0.1840 -0.9506
41569SOL    HW231313   4.596   5.191   3.974  0.0541  1.7372  0.8374
41570SOL     OW31314   1.397   7.617   6.556 -0.4451 -0.1003  0.2140
41570SOL    HW131315   1.443   7.667   6.624  1.1757  1.0106 -1.6261
41570SOL    HW231316   1.435   7.646   6.474 -1.1194 -2.6603 -1.1183
41571SOL     OW31317   5.111   9.017   8.913  0.0654  0.7204  0.3201
41571SOL    HW131318   5.084   9.095   8.962 -0.2732  1.6042 -1.1939
41571SOL    HW231319   5.029   8.985   8.873  0.5171  0.7213 -0.6206
41572SOL     OW31320   3.217  11.097   1.166 -0.0808 -0.0205 -0.2155
41572SOL    HW131321   3.289  11.056   1.119  1.4647  0.9638  1.1811
41572SOL    HW231322   3.174  11.025   1.211  0.1786 -0.5919 -0.8705
41573SOL     OW31323   5.181   9.105   4.074 -0.1512 -0.0801  0.0933
41573SOL    HW131324   5.254   9.165   4.059  1.3551 -1.8620 -0.0929
41573SOL    HW231325   5.142   9.133   4.156  0.2178  1.4012 -0.2192
41574SOL     OW31326   6.742   1.070   4.225 -0.0594 -0.5598  0.3317
41574SOL    HW131327   6.772   1.071   4.134 -0.5485 -2.3703  0.1113
41574SOL    HW231328   6.804   1.012   4.269 -2.1117 -2.9774  0.2367
41575SOL     OW31329   5.892   3.956   7.216 -0.7214 -0.0884 -0.2004
41575SOL    HW131330   5.906   3.861   7.225 -1.2434 -0.2431 -0.9957
41575SOL    HW231331   5.970   3.987   7.171  0.0187  0.0646  1.1240
41576SOL     OW31332   9.278   2.236   7.486  0.1890 -0.2751 -0.0889
41576SOL    HW131333   9.331   2.191   7.552 -0.0987 -0.3506  0.0931
41576SOL    HW231334   9.245   2.314   7.531  0.5148  0.0046 -0.3401
41577SOL     OW31335  11.998   0.635   9.942  0.8842 -0.5831 -0.0470
41577SOL    HW131336  12.061   0.687   9.892  0.2832  2.8263  2.3685
41577SOL    HW231337  12.052   0.586  10.004  1.3234 -0.3248 -0.2216
41578SOL     OW31338   7.072   7.453   4.973  0.0381 -0.5283 -0.0123
41578SOL    HW131339   7.103   7.375   5.017 -0.6666 -0.9659 -0.2694
41578SOL    HW231340   7.026   7.503   5.041 -0.7622 -1.0425 -0.1671
41579SOL     OW31341   6.670  11.215   7.234  0.5157  0.5101  0.0365
41579SOL    HW131342   6.635  11.136   7.276 -1.1816  0.4846 -1.3136
41579SOL    HW231343   6.677  11.192   7.141  0.1855  1.8782 -0.3446
41580SOL     OW31344   0.107   5.343   6.233 -0.0022  0.3151  0.1299
41580SOL    HW131345   0.180   5.404   6.238 -0.7142  1.1160  1.6534
41580SOL    HW231346   0.034   5.389   6.275 -1.1594 -0.7681 -0.6089
41581SOL     OW31347   4.382   7.916   7.762 -0.6252 -0.3303  0.5183
41581SOL    HW131348   4.296   7.954   7.776 -1.5139 -2.0474 -0.0204
41581SOL    HW231349   4.431   7.936   7.842 -1.0335  1.8149  0.2927
41582SOL     OW31350   1.685   1.863   5.251 -0.7495  0.1956 -0.7487
41582SOL    HW131351   1.672   1.798   5.320 -0.2501  0.5062 -0.3556
41582SOL    HW231352   1.698   1.945   5.298  1.2620  0.1401 -1.1257
41583SOL     OW31353   5.692   4.897   7.428 -0.5899  0.4367  0.0421
41583SOL    HW131354   5.781   4.864   7.412 -1.1560 -0.1682 -2.1977
41583SOL    HW231355   5.663   4.851   7.506  1.4778  1.5797  1.6011
41584SOL     OW31356   7.806  11.775   4.954  0.0517  0.5078 -0.4048
41584SOL    HW131357   7.812  11.680   4.948 -0.2853  0.2531  2.1088
41584SOL    HW231358   7.810  11.793   5.048 -0.2267  2.9627 -0.8017
41585SOL     OW31359   0.870   9.190   5.411  0.4799  0.1730  0.4300
41585SOL    HW131360   0.871   9.124   5.480  1.6452 -0.2034  0.0689
41585SOL    HW231361   0.882   9.273   5.456  0.9361 -0.0427  0.7074
41586SOL     OW31362   3.615   0.227  11.623  0.3871  0.0619 -0.1311
41586SOL    HW131363   3.692   0.171  11.629  0.6547  0.5722  1.9230
41586SOL    HW231364   3.649   0.316  11.635 -0.2563  0.5354 -1.5729
41587SOL     OW31365   6.860  11.920   7.560 -0.2376  0.3856 -0.0962
41587SOL    HW131366   6.801  11.892   7.630  1.1908 -0.7698  0.6953
41587SOL    HW231367   6.895  11.839   7.524  1.2422  1.0464 -0.2142
41588SOL     OW31368  10.845   3.953   5.051  0.6757  0.1024  0.3651
41588SOL    HW131369  10.806   3.868   5.031  3.1893 -0.9840 -0.2793
41588SOL    HW231370  10.806   4.012   4.986  0.0870 -0.8971 -0.2242
41589SOL     OW31371  11.953   5.872   1.026  0.0683 -0.0316  0.2462
41589SOL    HW131372  11.871   5.921   1.033 -0.1520 -0.2307 -0.8119
41589SOL    HW231373  12.012   5.915   1.088 -0.7527  0.2676  0.8373
41590SOL     OW31374   4.205   1.245  10.788  0.1438 -0.0544  0.7672
41590SOL    HW131375   4.192   1.213  10.877 -0.3416 -0.9058  0.4042
41590SOL    HW231376   4.238   1.169  10.739  0.4547  0.4155  0.2370
41591SOL     OW31377  12.777   7.959   4.340 -0.0291  0.0585 -0.1062
41591SOL    HW131378  12.870   7.939   4.332  0.5071  1.7489  1.3569
41591SOL    HW231379  12.767   7.993   4.429 -1.8551  0.8674 -0.5738
41592SOL     OW31380   0.563   1.730   1.257  0.4104  0.5211 -0.9899
41592SOL    HW131381   0.580   1.638   1.280 -0.4850  0.3828 -0.8281
41592SOL    HW231382   0.625   1.780   1.310 -0.7524  0.1403  0.8533
41593SOL     OW31383   4.384   6.646   8.966  0.7699 -0.0827  0.0116
41593SOL    HW131384   4.384   6.702   8.888  0.6355  0.1334  0.1691
41593SOL    HW231385   4.397   6.705   9.039 -0.7159 -0.0822  0.3004
41594SOL     OW31386  10.487   4.883   3.732  0.4125 -0.4847  0.0227
41594SOL    HW131387  10.573   4.850   3.708  1.2355  2.5118 -1.7481
41594SOL    HW231388  10.432   4.861   3.656  0.2210 -0.3609  0.1261
41595SOL     OW31389   6.886   1.566   5.743 -0.1087  0.9576 -0.4388
41595SOL    HW131390   6.877   1.496   5.678 -0.4305  0.6088 -0.0210
41595SOL    HW231391   6.941   1.632   5.699 -1.3647  1.3170 -1.5417
41596SOL     OW31392   3.395   6.308   6.461  0.1999 -0.1148 -0.0876
41596SOL    HW131393   3.407   6.403   6.458 -0.6962  0.1380  2.4370
41596SOL    HW231394   3.469   6.277   6.514 -0.6100 -0.5688  0.7912
41597SOL     OW31395   9.861  11.335   2.077 -0.2967  0.0654  0.4192
41597SOL    HW131396   9.903  11.249   2.084 -1.0134 -0.3953 -0.7209
41597SOL    HW231397   9.860  11.354   1.983 -1.6289  0.5692  0.5144
41598SOL     OW31398   3.309   7.098   1.590 -0.1986 -0.1319  0.1089
41598SOL    HW131399   3.249   7.131   1.657  0.6237  0.1839  0.7043
41598SOL    HW231400   3.258   7.100   1.509 -0.7338  0.9185  0.4525
41599SOL     OW31401   0.669   5.269  10.617 -0.2135 -0.2250  0.3393
41599SOL    HW131402   0.632   5.313  10.693 -1.5156  0.5753 -0.7135
41599SOL    HW231403   0.654   5.330  10.544  1.5453 -0.6883 -0.4741
41600SOL     OW31404   0.987   4.476   6.466  0.2910 -0.5021 -0.1514
41600SOL    HW131405   0.896   4.461   6.442  0.3843  0.9414 -1.5782
41600SOL    HW231406   1.029   4.391   6.456 -0.9725 -1.3074  1.0359
41601SOL     OW31407   1.143   1.814   8.017 -0.2191  0.0523 -0.3673
41601SOL    HW131408   1.147   1.840   8.109 -0.5960 -1.9202  0.2478
41601SOL    HW231409   1.170   1.893   7.969  1.7973  0.5946  1.4786
41602SOL     OW31410  10.799   8.745  11.499 -0.1177 -0.3613 -0.5486
41602SOL    HW131411  10.806   8.812  11.567  0.0158 -0.1021 -0.8096
41602SOL    HW231412  10.753   8.672  11.540  0.0663 -0.2536 -0.1488
41603SOL     OW31413   2.421   4.036   9.896  0.5866  0.4452 -0.0125
41603SOL    HW131414   2.422   4.127   9.925  2.9302  0.3813  0.3031
41603SOL    HW231415   2.377   3.989   9.967  1.9873  0.9680  1.2771
41604SOL     OW31416  11.369   3.125   5.078 -0.0877  0.3051 -0.3200
41604SOL    HW131417  11.391   3.205   5.127  1.2432  0.6636 -1.4247
41604SOL    HW231418  11.454   3.086   5.057 -0.6853 -0.7045 -0.9274
41605SOL     OW31419   9.986   7.179  12.687 -0.3391  0.3353 -0.0525
41605SOL    HW131420  10.012   7.087  12.682 -1.4829 -0.0059  0.0540
41605SOL    HW231421  10.028   7.212  12.766  2.0191  0.5742 -1.3239
41606SOL     OW31422   1.623   0.545   5.252  0.5644 -0.5648  0.2557
41606SOL    HW131423   1.632   0.638   5.231 -2.2452 -0.2914 -0.1756
41606SOL    HW231424   1.620   0.542   5.347 -0.7814  0.0191  0.2554
41607SOL     OW31425   6.281   7.464   4.612  0.3168 -0.0840 -0.5276
41607SOL    HW131426   6.307   7.505   4.695  0.0191 -0.6516 -0.1425
41607SOL    HW231427   6.195   7.425   4.631  0.4657 -0.6345 -0.9572
41608SOL     OW31428   9.456   5.324  12.650 -0.0473  0.1757 -0.2337
41608SOL    HW131429   9.428   5.245  12.604  2.1571 -0.4785 -0.5950
41608SOL    HW231430   9.387   5.388  12.632 -1.8528 -1.6005 -0.0054
41609SOL     OW31431   6.810  12.641   2.755  0.3218  0.1342  0.0733
41609SOL    HW131432   6.876  12.582   2.790  1.3091  0.6146 -0.8970
41609SOL    HW231433   6.753  12.662   2.829  2.1440  0.8883  1.3202
41610SOL     OW31434   6.860  10.310   6.763 -0.5300  0.2533 -0.1861
41610SOL    HW131435   6.885  10.330   6.672  0.5433 -0.3296 -0.0395
41610SOL    HW231436   6.775  10.351   6.774  0.1713  1.9620 -0.8604
41611SOL     OW31437   3.220   9.165   7.551 -0.1392  0.0119 -0.2206
41611SOL    HW131438   3.170   9.185   7.472 -1.3698 -1.0696  0.2549
41611SOL    HW231439   3.299   9.122   7.519 -0.7039 -0.5691 -0.8588
41612SOL     OW31440   5.798   7.615   4.798  0.4550  0.3891 -1.1561
41612SOL    HW131441   5.706   7.625   4.822  0.1561 -3.4434  0.0102
41612SOL    HW231442   5.797   7.607   4.703 -0.5523 -0.1519 -1.1208
41613SOL     OW31443  11.699   1.142   6.822  0.4452 -0.5695 -0.2202
41613SOL    HW131444  11.678   1.204   6.751 -1.4602 -1.0960 -0.1836
41613SOL    HW231445  11.717   1.060   6.777  0.3691 -0.6267 -0.1455
41614SOL     OW31446   2.866   3.923   2.336 -0.2553 -0.5842  0.3907
41614SOL    HW131447   2.948   3.950   2.379  0.6920 -2.4190 -0.1372
41614SOL    HW231448   2.798   3.945   2.399  0.5918  1.2896  0.7181
41615SOL     OW31449   9.594   7.933   7.775 -0.1213 -0.2224  0.0456
41615SOL    HW131450   9.601   7.945   7.680  0.9250  0.0057  0.1442
41615SOL    HW231451   9.589   8.022   7.809 -2.2614 -0.3170  0.1055
41616SOL     OW31452   7.544   2.617  11.882 -0.1665 -0.0759  0.4504
41616SOL    HW131453   7.508   2.677  11.947  0.3694  1.1075 -0.3073
41616SOL    HW231454   7.571   2.674  11.809 -0.2063 -1.3027 -0.5528
41617SOL     OW31455  10.213   5.662   1.392  0.6408  0.6079 -0.5101
41617SOL    HW131456  10.177   5.750   1.402  1.8793  1.1552 -0.6460
41617SOL    HW231457  10.303   5.670   1.424 -0.0156 -1.2614  2.0935
41618SOL     OW31458   5.276   9.716   4.307 -0.1053 -0.4116 -0.4093
41618SOL    HW131459   5.364   9.747   4.328  0.4453 -2.1231 -0.0372
41618SOL    HW231460   5.280   9.692   4.214 -1.2371  2.7947 -1.4297
41619SOL     OW31461  10.812  11.893  11.802  0.3633 -0.5965  0.0949
41619SOL    HW131462  10.769  11.852  11.877 -0.4882  0.5948  0.2900
41619SOL    HW231463  10.883  11.834  11.779 -0.3598 -1.7809  0.8339
41620SOL     OW31464   7.577   6.190   8.629 -0.0426 -0.0595  0.0693
41620SOL    HW131465   7.484   6.204   8.646 -0.0573  0.0678 -0.1189
41620SOL    HW231466   7.580   6.156   8.540  0.2989  2.6180 -0.9999
41621SOL     OW31467   9.368   6.416   7.723 -0.3928 -0.2228  0.5480
41621SOL    HW131468   9.449   6.433   7.676 -0.5300  1.4426  0.8595
41621SOL    HW231469   9.395   6.401   7.814 -0.3715 -0.4808  0.4996
41622SOL     OW31470  10.294   2.242   0.278 -0.4272 -0.7361 -0.4126
41622SOL    HW131471  10.268   2.150   0.275  3.7973 -2.2331  1.1856
41622SOL    HW231472  10.307   2.266   0.186 -0.1343 -2.2395 -0.7906
41623SOL     OW31473   0.349   8.926   2.895  0.0126  0.6160  0.5755
41623SOL    HW131474   0.348   8.831   2.910  2.1586  0.1688 -1.5125
41623SOL    HW231475   0.405   8.961   2.964  0.4747  0.1323  0.4564
41624SOL     OW31476   9.688   1.342   0.978  0.2188 -0.2040 -0.5338
41624SOL    HW131477   9.673   1.258   0.936  0.6453 -0.6694  0.2169
41624SOL    HW231478   9.602   1.368   1.013  0.3703 -1.0487  0.5106
41625SOL     OW31479   9.192   0.832   8.710 -0.3072 -0.2202 -0.0823
41625SOL    HW131480   9.123   0.863   8.767  1.7570  0.4607  2.2051
41625SOL    HW231481   9.204   0.740   8.734  0.6225  0.0901  0.6734
41626SOL     OW31482   9.199   4.239   1.028 -0.1906  0.0383  0.4779
41626SOL    HW131483   9.135   4.169   1.039 -2.3219  1.7612 -0.3410
41626SOL    HW231484   9.241   4.220   0.944  0.7634 -1.3333  1.2160
41627SOL     OW31485   6.587   6.725   8.791 -0.6009 -0.0232 -0.3281
41627SOL    HW131486   6.527   6.787   8.830 -0.6218 -0.5709  0.5338
41627SOL    HW231487   6.598   6.657   8.857  1.4073  0.3437 -0.2126
41628SOL     OW31488   7.951   5.823  12.087 -0.1437 -0.4321 -0.5297
41628SOL    HW131489   8.032   5.842  12.040  0.6707  0.8752  1.2671
41628SOL    HW231490   7.906   5.907  12.095 -0.9508 -0.8754 -0.2226
41629SOL     OW31491   0.113   1.820   0.032 -0.5816  0.1730 -0.1049
41629SOL    HW131492   0.058   1.851  -0.040 -2.4697 -1.1339  0.7203
41629SOL    HW231493   0.077   1.862   0.110  0.2160  0.0441  0.3432
41630SOL     OW31494   6.489   8.260   1.225 -0.0533  0.1026 -0.1714
41630SOL    HW131495   6.579   8.284   1.250  0.3987  0.5992 -2.1126
41630SOL    HW231496   6.438   8.338   1.246  0.5208  0.9477 -1.7463
41631SOL     OW31497  11.664   9.712   7.700 -0.0969 -0.0353  0.1910
41631SOL    HW131498  11.698   9.625   7.717 -1.3535 -0.2042  2.2078
41631SOL    HW231499  11.708   9.768   7.763 -0.0709  0.6127 -0.3879
41632SOL     OW31500   9.267  10.703  12.030  0.3015  0.2947  0.0297
41632SOL    HW131501   9.326  10.653  11.973  0.3769 -0.0144  0.3708
41632SOL    HW231502   9.205  10.638  12.062 -1.2437  0.9008 -1.5909
41633SOL     OW31503   1.539   7.788   4.018 -0.7554 -0.3169 -0.2552
41633SOL    HW131504   1.574   7.769   3.930 -0.5290  1.3133 -0.5461
41633SOL    HW231505   1.483   7.713   4.038 -2.2025  0.0806 -2.5316
41634SOL     OW31506  10.679  11.335   8.885  0.3605  0.0453 -0.3397
41634SOL    HW131507  10.606  11.362   8.941  1.0748 -0.1605  0.7149
41634SOL    HW231508  10.649  11.254   8.844 -0.0756  0.0549 -0.0475
41635SOL     OW31509   1.971   2.090   5.581  0.0971 -0.2933  0.4427
41635SOL    HW131510   2.001   2.168   5.628 -0.0757 -0.5801  1.0324
41635SOL    HW231511   2.051   2.050   5.547  0.2700 -0.3568  0.9177
41636SOL     OW31512  10.204  11.760   2.544  0.5429  0.1854 -0.5516
41636SOL    HW131513  10.140  11.690   2.527  2.6108 -1.6476 -1.1979
41636SOL    HW231514  10.235  11.743   2.633  2.6678 -1.1817 -1.4787
41637SOL     OW31515  11.689   3.710  10.200  0.3227 -0.4421  0.5811
41637SOL    HW131516  11.621   3.771  10.227 -0.4142 -1.3029  0.6947
41637SOL    HW231517  11.688   3.641  10.266  2.2656  0.2103  1.3677
41638SOL     OW31518   5.304  12.431  11.125 -0.7761  0.4359 -0.6058
41638SOL    HW131519   5.338  12.520  11.124 -0.6143  0.3775 -1.8942
41638SOL    HW231520   5.221  12.436  11.078 -2.5711  0.5420  2.3193
41639SOL     OW31521   5.402   4.396   7.329  0.4701 -0.3401 -0.5896
41639SOL    HW131522   5.381   4.439   7.247  2.2140  1.1915 -0.3069
41639SOL    HW231523   5.490   4.360   7.315  0.7875 -0.0679  0.5734
41640SOL     OW31524   7.010   3.686   4.576  0.2761 -0.4545 -0.6143
41640SOL    HW131525   7.105   3.687   4.565  0.2017  1.1229 -1.3724
41640SOL    HW231526   6.985   3.778   4.575 -1.2706 -0.8504 -0.4444
41641SOL     OW31527   7.337  10.399   5.960  0.3978  0.1323  0.5096
41641SOL    HW131528   7.364  10.329   5.901  0.4458  2.3305 -2.3137
41641SOL    HW231529   7.320  10.356   6.044  3.6503 -2.6921 -0.1043
41642SOL     OW31530   7.621  11.697   9.281 -0.0860 -0.3026  0.3503
41642SOL    HW131531   7.583  11.775   9.322  1.0254  0.6172 -0.3166
41642SOL    HW231532   7.559  11.675   9.211  0.0038  0.4813  0.0146
41643SOL     OW31533   8.846   7.841   0.642 -0.1977  0.4899 -0.2981
41643SOL    HW131534   8.750   7.843   0.636 -0.4105 -1.7710  1.3354
41643SOL    HW231535   8.874   7.797   0.561 -0.8436 -1.9823  0.7419
41644SOL     OW31536   5.248   1.636  11.912 -0.2377  0.1509 -0.3018
41644SOL    HW131537   5.181   1.663  11.850 -1.4303 -1.1640  0.3623
41644SOL    HW231538   5.288   1.559  11.873 -1.3805 -1.0290  0.7423
41645SOL     OW31539  10.988  11.640   3.531 -0.4426 -0.6400  0.0529
41645SOL    HW131540  10.999  11.623   3.625  0.5113 -1.5375 -0.2009
41645SOL    HW231541  10.910  11.694   3.526  0.3615  0.7801  1.5067
41646SOL     OW31542   0.691  10.347   9.146  0.1058 -0.3687 -0.1388
41646SOL    HW131543   0.624  10.280   9.133 -0.8120  0.3790  0.5930
41646SOL    HW231544   0.669  10.416   9.083 -1.5418  1.1367  1.9430
41647SOL     OW31545   5.760   9.449   9.429 -0.2627  0.1782  0.2850
41647SOL    HW131546   5.760   9.528   9.375 -1.9847 -0.6286 -1.0007
41647SOL    HW231547   5.667   9.428   9.440 -0.0100  0.2762  3.6227
41648SOL     OW31548   2.338   6.757   9.778  0.5132 -0.5140  0.5999
41648SOL    HW131549   2.286   6.831   9.809  2.5925  0.5483  1.7830
41648SOL    HW231550   2.286   6.720   9.706 -1.2509  1.2032  0.8898
41649SOL     OW31551   4.789   9.844   6.092 -0.1981 -0.0040 -0.3453
41649SOL    HW131552   4.725   9.790   6.047 -1.2376  1.1946 -0.3779
41649SOL    HW231553   4.858   9.860   6.028 -0.8453  0.3130 -0.9681
41650SOL     OW31554   5.706   7.747  12.749  0.0975 -0.6419  0.2616
41650SOL    HW131555   5.707   7.796  12.668 -2.5521  0.7090  0.9064
41650SOL    HW231556   5.752   7.802  12.812  0.3506 -0.7350  0.1602
41651SOL     OW31557  10.022   1.735  10.473  0.0049 -0.0201 -0.0103
41651SOL    HW131558  10.047   1.761  10.384 -0.6814 -0.6346 -0.4048
41651SOL    HW231559   9.953   1.669  10.459 -0.2690  0.0449  0.9808
41652SOL     OW31560   6.479   9.243   9.448 -0.5412 -0.2798 -0.3508
41652SOL    HW131561   6.385   9.241   9.430 -0.4906  0.5524 -0.7170
41652SOL    HW231562   6.513   9.166   9.402 -0.9954 -0.4019 -0.4938
41653SOL     OW31563   8.302   4.880   5.411  0.2497 -0.0801  0.9560
41653SOL    HW131564   8.249   4.871   5.490 -1.4892  1.3300  0.0334
41653SOL    HW231565   8.251   4.938   5.355  1.0846 -1.5574 -1.4907
41654SOL     OW31566  11.570   7.530  12.645 -0.6270  0.6774  0.0080
41654SOL    HW131567  11.520   7.602  12.684  0.2098  1.2004  0.1506
41654SOL    HW231568  11.508   7.458  12.639 -0.9957  0.8093  1.6195
41655SOL     OW31569   2.645   6.766   1.032 -0.4016  0.2848  0.5025
41655SOL    HW131570   2.577   6.820   1.073 -1.2826 -0.1186 -0.3917
41655SOL    HW231571   2.727   6.798   1.070 -0.8891  2.2787  0.0198
41656SOL     OW31572   5.339  10.521   2.138 -0.3219 -0.1812  0.4820
41656SOL    HW131573   5.339  10.509   2.043 -1.3514 -1.0853  0.5864
41656SOL    HW231574   5.265  10.469   2.170 -1.1603  1.5767  1.5928
41657SOL     OW31575   3.071   8.853   0.569  0.0862 -0.2867  0.8019
41657SOL    HW131576   3.077   8.760   0.547 -0.3888 -0.5513  1.7271
41657SOL    HW231577   3.123   8.861   0.649 -1.4596 -0.1527  1.8222
41658SOL     OW31578   7.600  10.768   4.142 -0.6975 -0.6486  0.0214
41658SOL    HW131579   7.606  10.770   4.238  1.5398  1.5012 -0.0536
41658SOL    HW231580   7.551  10.847   4.119 -1.4003 -1.2560 -0.6194
41659SOL     OW31581   3.197   6.726   7.537 -0.5881 -0.2945  0.3450
41659SOL    HW131582   3.157   6.813   7.527 -1.4087 -0.7050 -0.1268
41659SOL    HW231583   3.236   6.727   7.624 -0.2759  0.6692  0.2049
41660SOL     OW31584   6.733   2.717   7.790  0.1463  0.2632  0.1749
41660SOL    HW131585   6.796   2.737   7.721  0.5649  0.4067  0.5895
41660SOL    HW231586   6.726   2.622   7.789 -1.6992  0.3505 -1.6710
41661SOL     OW31587   0.351   0.122   0.440 -0.4483 -0.5771  0.3231
41661SOL    HW131588   0.340   0.039   0.485  0.2271 -1.2827 -0.7700
41661SOL    HW231589   0.298   0.184   0.491 -1.8071 -1.8801  0.5703
41662SOL     OW31590   6.421  12.749   1.051  0.0454 -0.0833  0.4126
41662SOL    HW131591   6.419  12.844   1.060 -0.1514  0.1329 -1.5386
41662SOL    HW231592   6.333  12.721   1.076  0.1417  0.2090  1.1263
41663SOL     OW31593   3.900   6.342   0.011 -0.7031  0.1158 -0.1824
41663SOL    HW131594   3.898   6.431  -0.024 -0.5897  1.1166  2.1534
41663SOL    HW231595   3.852   6.348   0.094  0.5506 -1.6626  0.7382
41664SOL     OW31596   7.255  10.143   4.076 -0.5207 -0.1399 -0.0053
41664SOL    HW131597   7.256  10.051   4.102 -1.1674 -0.4254 -0.9449
41664SOL    HW231598   7.163  10.162   4.056 -0.6549  1.1364  1.5852
41665SOL     OW31599   3.958   1.013   8.179 -0.1098 -0.2364 -0.3556
41665SOL    HW131600   3.976   1.097   8.137 -0.6918 -0.6276 -1.4243
41665SOL    HW231601   3.968   0.948   8.109  3.4369 -1.4754  1.0625
41666SOL     OW31602   0.118   3.944  10.874 -0.3529 -0.1764  0.9958
41666SOL    HW131603   0.075   3.915  10.794  1.0997 -1.2125  0.5550
41666SOL    HW231604   0.060   4.013  10.908 -0.5970  0.9119 -1.3695
41667SOL     OW31605   9.008   2.507   2.354 -0.2342 -0.0964 -0.4371
41667SOL    HW131606   9.092   2.553   2.347  1.1673 -2.2264  1.1735
41667SOL    HW231607   9.024   2.422   2.312 -1.4525 -0.6941  0.2685
41668SOL     OW31608   9.546   4.186  11.541 -0.5123 -0.7194  0.0229
41668SOL    HW131609   9.546   4.191  11.445  1.0394 -1.5023 -0.0531
41668SOL    HW231610   9.485   4.255  11.568  1.9628  2.3513 -1.4316
41669SOL     OW31611   8.117   7.518   0.670  0.5897 -0.0589  0.2970
41669SOL    HW131612   8.147   7.556   0.752  0.1835  1.0878 -0.0681
41669SOL    HW231613   8.061   7.445   0.696  0.7739  0.0546  1.0293
41670SOL     OW31614   3.052   0.720  10.863 -0.3257 -0.1765  0.0161
41670SOL    HW131615   2.961   0.694  10.846 -0.1037  0.2878 -2.2453
41670SOL    HW231616   3.100   0.638  10.870 -0.6744 -0.4254 -0.4597
41671SOL     OW31617   3.926   6.500   5.172  0.6063 -1.0763 -0.3399
41671SOL    HW131618   3.872   6.446   5.114  0.2348 -0.0409 -0.9849
41671SOL    HW231619   4.006   6.515   5.122  0.3118 -0.2384 -0.5929
41672SOL     OW31620  10.637   7.074   9.677 -0.2460  0.6457 -0.4866
41672SOL    HW131621  10.684   7.155   9.659  0.4125  0.5678  0.7441
41672SOL    HW231622  10.705   7.012   9.703 -0.9869  0.4574  1.1129
41673SOL     OW31623   0.049   7.102   1.988  0.0015  0.2388  0.2597
41673SOL    HW131624   0.117   7.137   1.930  1.3080  0.0123  1.6042
41673SOL    HW231625   0.003   7.179   2.021  0.1874  0.4419  0.0480
41674SOL     OW31626   2.170   8.419   0.500 -0.5801 -0.2848 -0.2142
41674SOL    HW131627   2.130   8.335   0.521 -1.8331  0.5909  1.0501
41674SOL    HW231628   2.209   8.449   0.582  0.0846  0.2524 -0.7146
41675SOL     OW31629   3.999   1.915   8.377 -0.1238 -0.3719 -0.8044
41675SOL    HW131630   4.087   1.914   8.339  0.5222 -0.3176  0.5889
41675SOL    HW231631   3.993   2.000   8.419  0.5879 -1.6151  2.1062
41676SOL     OW31632  11.334   9.980  12.299  0.5427  0.2719 -0.4397
41676SOL    HW131633  11.427  10.006  12.295 -0.0437  3.1971  1.4571
41676SOL    HW231634  11.322   9.948  12.388  0.0056 -1.5976 -1.1490
41677SOL     OW31635   0.636   8.534   5.795  0.4082  0.4221  0.6003
41677SOL    HW131636   0.647   8.439   5.790 -0.1199  0.4024 -0.4418
41677SOL    HW231637   0.543   8.545   5.816  0.4277  0.7108  0.5298
41678SOL     OW31638   8.622   0.844   2.564 -0.3169  0.6213  0.3733
41678SOL    HW131639   8.672   0.903   2.508 -0.9001 -0.1798 -1.0403
41678SOL    HW231640   8.674   0.763   2.564 -0.0998  0.7471  1.3709
41679SOL     OW31641   9.890  10.330   3.154 -0.1595 -0.5969  0.7674
41679SOL    HW131642   9.932  10.373   3.228 -0.9743 -0.2979  1.0648
41679SOL    HW231643   9.961  10.313   3.092  0.2833  0.5385  0.9537
41680SOL     OW31644  10.782   7.626  12.447  0.1746 -0.1567  0.3433
41680SOL    HW131645  10.687   7.616  12.444  0.3315 -1.6745 -0.5144
41680SOL    HW231646  10.799   7.666  12.533 -1.1836 -0.5571  0.8282
41681SOL     OW31647  10.070   9.197  10.836  0.3041 -0.0966 -0.0557
41681SOL    HW131648  10.126   9.237  10.902  1.4184  2.0336 -2.1196
41681SOL    HW231649  10.110   9.222  10.752 -1.4044 -2.0656 -1.5664
41682SOL     OW31650   8.299   1.914   5.523 -0.1429 -0.2182 -0.2238
41682SOL    HW131651   8.241   1.926   5.598 -0.3774 -2.9299  0.1322
41682SOL    HW231652   8.266   1.835   5.480  1.3198  0.0445 -1.9360
41683SOL     OW31653   9.767   1.013   9.708 -0.2059 -0.1617 -0.7293
41683SOL    HW131654   9.688   1.063   9.723  0.2616  1.1110 -2.2535
41683SOL    HW231655   9.768   0.997   9.614  1.8792  0.8528 -0.9405
41684SOL     OW31656   9.740   1.600   2.559  0.7979  0.4875 -0.6573
41684SOL    HW131657   9.718   1.679   2.509 -1.2647 -0.1773 -0.8801
41684SOL    HW231658   9.744   1.631   2.650 -1.7924  0.6103 -0.5084
41685SOL     OW31659   6.819   4.370   9.628 -0.0714 -0.3447  0.4920
41685SOL    HW131660   6.892   4.309   9.618 -1.1736 -1.6836  0.3052
41685SOL    HW231661   6.783   4.378   9.540 -0.3713  0.0175  0.6476
41686SOL     OW31662   2.529  11.896   5.392  0.0843 -0.2914  0.0363
41686SOL    HW131663   2.452  11.847   5.364 -1.5594  1.6003  0.9785
41686SOL    HW231664   2.550  11.859   5.478 -0.1019 -0.4790  0.0020
41687SOL     OW31665   1.981   7.531   4.588 -0.8808 -0.0946 -0.0992
41687SOL    HW131666   2.014   7.543   4.498 -2.2095 -0.1709 -0.6157
41687SOL    HW231667   1.992   7.437   4.605 -0.4276 -0.0446 -0.0867
41688SOL     OW31668   3.763   9.701   7.252 -0.8746  0.3863 -0.3385
41688SOL    HW131669   3.799   9.618   7.284 -1.3401 -0.2060 -1.2909
41688SOL    HW231670   3.677   9.677   7.217 -1.7201  1.5712  0.8466
41689SOL     OW31671  11.447   3.925   2.865 -0.4039  0.3426  0.6603
41689SOL    HW131672  11.454   3.934   2.770  0.1719  0.4266  0.7079
41689SOL    HW231673  11.534   3.897   2.893 -1.4318 -3.2417  0.7614
41690SOL     OW31674   4.892   4.407   1.127 -0.3095  0.2238  0.2763
41690SOL    HW131675   4.915   4.454   1.047 -1.4422 -0.4185 -0.4575
41690SOL    HW231676   4.956   4.436   1.192  0.4213  1.0115 -0.7730
41691SOL     OW31677   6.508   9.674   3.771  0.2305  0.0688  0.1665
41691SOL    HW131678   6.574   9.605   3.761 -0.4188 -0.3717 -1.6554
41691SOL    HW231679   6.458   9.649   3.848  1.1970 -0.4638  0.6281
41692SOL     OW31680   7.137   6.495  12.636 -0.1785  0.5572  0.0237
41692SOL    HW131681   7.108   6.484  12.726 -1.1418 -0.5366 -0.3837
41692SOL    HW231682   7.055   6.502  12.586  0.3155  0.0567 -0.8797
41693SOL     OW31683  10.416   0.150  10.790  0.5899  0.2396  0.1733
41693SOL    HW131684  10.486   0.183  10.735  1.4762 -0.8763  0.5860
41693SOL    HW231685  10.457   0.138  10.876 -0.6065  1.3667  0.9446
41694SOL     OW31686   5.598   7.276   9.471 -0.6987 -0.4857  0.2769
41694SOL    HW131687   5.630   7.201   9.522  1.4284  0.3937  0.3184
41694SOL    HW231688   5.549   7.328   9.535  1.3960  0.2735  1.3595
41695SOL     OW31689  10.675   3.264   3.640 -0.1052  0.0303  0.5054
41695SOL    HW131690  10.701   3.327   3.573  0.0599 -1.9798 -1.4103
41695SOL    HW231691  10.580   3.258   3.631  0.0553 -1.2070 -0.4677
41696SOL     OW31692   3.831  12.445   3.744 -0.6908  0.6763 -0.1205
41696SOL    HW131693   3.778  12.365   3.748 -3.5715  2.3323 -1.6118
41696SOL    HW231694   3.861  12.450   3.654  1.9265 -0.0772  0.6377
41697SOL     OW31695   5.474   1.604   8.372  0.3414  0.0525 -0.3143
41697SOL    HW131696   5.474   1.698   8.356  0.0960 -0.2295 -2.2204
41697SOL    HW231697   5.434   1.594   8.458  0.0967  1.6651 -0.2195
41698SOL     OW31698   1.301   5.168   5.569  0.3917 -0.2307 -0.5827
41698SOL    HW131699   1.245   5.095   5.594 -1.7681  1.0580 -1.3870
41698SOL    HW231700   1.242   5.243   5.564  2.1866  1.2051 -1.5923
41699SOL     OW31701   4.092   8.127   9.906  0.3638  0.3907 -0.0529
41699SOL    HW131702   4.085   8.220   9.927  1.4012  0.6028 -0.5917
41699SOL    HW231703   4.168   8.097   9.955  1.0478  0.2237 -1.1949
41700SOL     OW31704   5.306  10.648   0.495  0.1674  0.3913 -0.4085
41700SOL    HW131705   5.332  10.740   0.497  2.8310 -0.2587 -0.5871
41700SOL    HW231706   5.327  10.620   0.406  0.3219 -0.6235 -0.0633
41701SOL     OW31707  11.517   4.700  11.209 -0.4266 -0.3695 -0.0805
41701SOL    HW131708  11.437   4.656  11.237 -1.0443  0.8113  0.0767
41701SOL    HW231709  11.531   4.768  11.274 -0.4325  0.7317 -1.1771
41702SOL     OW31710   5.407  12.560  10.121  0.2191 -0.0201 -0.3349
41702SOL    HW131711   5.359  12.555  10.038  0.3760 -0.0504 -0.4229
41702SOL    HW231712   5.459  12.480  10.124  3.5275  1.8101 -2.2394
41703SOL     OW31713   1.640   2.952  12.249 -0.2891 -0.0868 -0.4625
41703SOL    HW131714   1.652   2.857  12.251  1.2567  0.0833 -0.1233
41703SOL    HW231715   1.643   2.978  12.341 -0.3176  0.3220 -0.5763
41704SOL     OW31716   9.959   9.087   2.657  0.2485 -0.8847  0.2621
41704SOL    HW131717  10.047   9.057   2.632  0.4322  0.0197 -0.2428
41704SOL    HW231718   9.922   9.123   2.576 -1.0950 -2.3745  0.1749
41705SOL     OW31719   6.901   2.155   2.587 -0.2157  0.4205  0.5042
41705SOL    HW131720   6.917   2.250   2.595 -1.6633  0.6326  1.1341
41705SOL    HW231721   6.873   2.129   2.675  1.4239 -0.8829  0.6988
41706SOL     OW31722   2.842   0.651   5.513  0.4387 -0.3221  0.3438
41706SOL    HW131723   2.913   0.617   5.459  0.2217  1.0176 -0.8444
41706SOL    HW231724   2.879   0.727   5.556  0.0409 -0.2646  0.5878
41707SOL     OW31725  11.629   7.659   1.342 -0.2741 -0.2129  0.0053
41707SOL    HW131726  11.653   7.596   1.274  0.0616 -1.0673  0.8924
41707SOL    HW231727  11.582   7.606   1.408 -1.8778  0.8463 -0.2208
41708SOL     OW31728   3.424   6.925   1.261  0.0563  0.4917  0.2398
41708SOL    HW131729   3.479   6.873   1.319 -0.3251  1.5463  1.6138
41708SOL    HW231730   3.483   6.990   1.224 -0.2485  1.8083  1.9394
41709SOL     OW31731   9.297  10.728   5.205  0.3519  0.3407 -0.1343
41709SOL    HW131732   9.205  10.748   5.188  0.9165  2.0127 -1.4972
41709SOL    HW231733   9.341  10.744   5.121  2.0414  0.5966  0.7550
41710SOL     OW31734   0.963   3.935   6.145  0.4023  0.2380  0.4765
41710SOL    HW131735   0.928   3.985   6.072  0.8748  0.1753  0.2020
41710SOL    HW231736   1.046   3.901   6.113  0.0136 -0.8732  0.5975
41711SOL     OW31737   0.054   2.340   4.076 -0.1580 -0.4224 -0.2148
41711SOL    HW131738   0.118   2.273   4.097 -0.7548 -0.7594  0.5705
41711SOL    HW231739   0.105   2.411   4.036  0.7838 -0.4308  0.9235
41712SOL     OW31740   7.065  10.769  10.271 -0.2781 -0.1501 -0.1362
41712SOL    HW131741   7.057  10.862  10.295 -0.6474 -0.3605  0.5945
41712SOL    HW231742   7.046  10.722  10.352  0.8344 -0.8495 -0.2564
41713SOL     OW31743   0.579   0.514   9.720  0.1941 -0.0587 -0.1558
41713SOL    HW131744   0.663   0.528   9.677  0.9598 -0.6877  1.0973
41713SOL    HW231745   0.599   0.463   9.798 -1.2672  0.3732  0.5430
41714SOL     OW31746   4.748   8.212   3.205  0.1165 -0.1339  0.3435
41714SOL    HW131747   4.742   8.281   3.271 -0.3871  0.6950 -0.5480
41714SOL    HW231748   4.766   8.132   3.255  0.7993  0.6465  1.3861
41715SOL     OW31749   5.593   4.411   9.191  0.2122 -0.3956  0.0792
41715SOL    HW131750   5.528   4.344   9.212  0.2418 -0.2772  0.5651
41715SOL    HW231751   5.543   4.491   9.179  0.2683 -0.2949  0.4985
41716SOL     OW31752  11.461   9.571   9.970 -0.2689  0.1476  0.2103
41716SOL    HW131753  11.449   9.543   9.879 -1.4529  0.0722  0.3788
41716SOL    HW231754  11.463   9.490  10.020  1.6850  0.1013  0.1501
41717SOL     OW31755   5.538  11.435   3.275  0.6222 -0.8204 -0.1085
41717SOL    HW131756   5.609  11.441   3.212  3.2314 -0.4125  2.6669
41717SOL    HW231757   5.570  11.480   3.353 -2.2506 -1.5986  1.7017
41718SOL     OW31758   9.905  10.051   8.535 -0.4546 -1.2210  0.2433
41718SOL    HW131759   9.996  10.060   8.565 -0.2972  0.1916 -0.5700
41718SOL    HW231760   9.912  10.040   8.440 -1.1505  0.2835 -0.0177
41719SOL     OW31761  12.353   4.701  12.220  0.6252  0.5040  0.3404
41719SOL    HW131762  12.414   4.754  12.272  1.2501  0.1702 -0.0479
41719SOL    HW231763  12.347   4.618  12.267  1.0973  0.2463 -0.0377
41720SOL     OW31764   9.970   8.021   0.837 -0.2516  0.0104 -0.3877
41720SOL    HW131765   9.999   7.962   0.768  0.4536  2.1373 -2.0345
41720SOL    HW231766   9.877   8.003   0.847 -0.5515  0.1433 -2.4766
41721SOL     OW31767  11.928   4.493   3.869 -0.4908 -0.3581  0.1534
41721SOL    HW131768  11.988   4.425   3.902 -0.4538 -0.5971 -0.3964
41721SOL    HW231769  11.984   4.570   3.858  0.0319 -0.9487 -1.6381
41722SOL     OW31770  10.747   8.822   8.400 -0.4605 -0.3877 -0.3089
41722SOL    HW131771  10.713   8.866   8.322  2.3121 -1.0725 -2.0732
41722SOL    HW231772  10.724   8.730   8.388  0.5533 -0.6039 -0.7185
41723SOL     OW31773  11.285  11.930   5.262  0.1836 -0.7440 -0.2411
41723SOL    HW131774  11.248  11.984   5.192  0.1007  0.1431  0.4703
41723SOL    HW231775  11.380  11.943   5.254  0.4579 -3.1806 -2.1952
41724SOL     OW31776   2.593   2.185   1.459  0.2132 -0.0504 -0.7145
41724SOL    HW131777   2.682   2.219   1.447  0.5027 -0.6636 -0.3502
41724SOL    HW231778   2.603   2.090   1.449 -0.2327 -0.2106  0.3272
41725SOL     OW31779   2.801  10.658  10.980  0.5622 -0.4467 -0.1834
41725SOL    HW131780   2.856  10.670  10.902  0.8303  0.2502  0.1041
41725SOL    HW231781   2.849  10.704  11.050 -2.1492  3.6457 -0.6529
41726SOL     OW31782   5.261   5.744   2.769  0.2723 -0.2325 -0.3215
41726SOL    HW131783   5.321   5.689   2.820 -0.6599 -0.7856  0.2147
41726SOL    HW231784   5.261   5.827   2.816 -1.5505 -1.1213  1.4332
41727SOL     OW31785   4.922   7.320   8.448 -0.5138 -0.1021 -0.0412
41727SOL    HW131786   4.926   7.415   8.435 -2.4492  0.2231  1.3182
41727SOL    HW231787   4.928   7.284   8.360 -2.7817  1.4651 -0.9362
41728SOL     OW31788   0.292   5.106  11.790  0.5682  0.1341  0.0900
41728SOL    HW131789   0.198   5.099  11.772  0.5033  2.6137 -0.8943
41728SOL    HW231790   0.331   5.126  11.705  2.0704 -1.1284  0.4328
41729SOL     OW31791   8.947   0.943  10.717  0.3486 -0.3113  0.1613
41729SOL    HW131792   8.875   0.971  10.772  0.4986  0.8527 -0.1902
41729SOL    HW231793   8.912   0.871  10.665 -0.4429  0.0010  0.2549
41730SOL     OW31794  10.497  10.920   5.081  0.5973 -0.1937 -0.0760
41730SOL    HW131795  10.455  10.913   4.996  1.5371 -0.3448 -0.5335
41730SOL    HW231796  10.429  10.956   5.138  0.1720  0.5776 -1.0418
41731SOL     OW31797  12.456  10.197   4.932 -0.2547 -0.2293  0.1994
41731SOL    HW131798  12.388  10.264   4.936  0.9516  1.2201 -1.7512
41731SOL    HW231799  12.409  10.115   4.947 -2.4138  0.7475 -0.7580
41732SOL     OW31800   1.148   9.345   3.167  0.2793 -0.3628  0.3534
41732SOL    HW131801   1.125   9.280   3.100  1.4549 -1.4183  0.9402
41732SOL    HW231802   1.149   9.428   3.120  0.2888 -0.9745 -0.7672
41733SOL     OW31803   1.178  11.880   5.869 -0.1113  0.0144 -0.2002
41733SOL    HW131804   1.164  11.955   5.811 -0.3090  0.8373  0.8750
41733SOL    HW231805   1.104  11.884   5.930  0.1482 -0.7684  0.1732
41734SOL     OW31806  12.376  10.433   7.765 -0.8111  0.3705  0.1732
41734SOL    HW131807  12.380  10.516   7.716 -1.6754  0.0715 -0.4360
41734SOL    HW231808  12.282  10.414   7.771 -0.6046 -0.7087  0.0758
41735SOL     OW31809   1.922   1.020   6.272  0.0393 -0.0343 -0.0016
41735SOL    HW131810   1.974   1.002   6.194 -0.3224  0.9533 -0.4934
41735SOL    HW231811   1.891   0.934   6.300  1.5161 -0.5885  0.0273
41736SOL     OW31812  12.231   9.630   1.086  0.2410  0.5521 -0.3224
41736SOL    HW131813  12.152   9.683   1.093 -1.0072 -1.2207 -0.3054
41736SOL    HW231814  12.267   9.628   1.174 -0.7749 -0.1537  0.0957
41737SOL     OW31815   2.014   7.099   6.592 -0.1066 -0.2755  0.2797
41737SOL    HW131816   1.971   7.097   6.506 -0.1504 -0.9748  0.3128
41737SOL    HW231817   1.978   7.177   6.634 -0.8643 -0.4868  0.0519
41738SOL     OW31818  12.018  10.784   2.324  0.1364 -0.5509 -0.0664
41738SOL    HW131819  12.012  10.790   2.229 -0.2746  1.8682  0.0571
41738SOL    HW231820  12.079  10.854   2.349 -1.3107  0.2015  1.5713
41739SOL     OW31821   5.348   7.011   3.267  0.3344 -0.4921 -0.2288
41739SOL    HW131822   5.311   6.924   3.279 -0.9315 -0.0441 -0.6654
41739SOL    HW231823   5.437   6.996   3.236 -0.2754 -1.6338 -1.5149
41740SOL     OW31824   2.200   2.676   7.756 -0.2870 -0.5879  1.1337
41740SOL    HW131825   2.168   2.749   7.809 -0.7596 -1.5828  2.2729
41740SOL    HW231826   2.152   2.684   7.673 -1.8604 -0.7587  1.9847
41741SOL     OW31827  10.678   1.382   3.056 -0.7656 -0.1642 -0.1732
41741SOL    HW131828  10.716   1.328   2.986  1.9317  0.2780  0.8395
41741SOL    HW231829  10.698   1.472   3.031 -0.1000  0.0221  0.9665
41742SOL     OW31830   4.910   8.544  11.928 -0.7546 -0.1851 -0.4827
41742SOL    HW131831   4.944   8.529  12.017 -0.2212 -1.5341 -0.8891
41742SOL    HW231832   4.989   8.548  11.873 -1.1611 -1.6841 -1.2112
41743SOL     OW31833   5.892  10.077   0.758 -0.3777  0.0615  0.6619
41743SOL    HW131834   5.860   9.987   0.759  0.7170 -0.3671  2.6524
41743SOL    HW231835   5.819  10.129   0.793 -0.1379 -0.4348  1.9506
41744SOL     OW31836   6.714   7.053  12.253 -0.2479 -0.4609 -0.2335
41744SOL    HW131837   6.664   7.068  12.333  0.0963 -0.8550  0.0564
41744SOL    HW231838   6.737   7.140  12.222 -0.1845 -0.3154  0.2225
41745SOL     OW31839   1.435   6.107  12.334 -0.0169  0.0976  0.2545
41745SOL    HW131840   1.353   6.074  12.372  0.1093 -0.9059 -0.3063
41745SOL    HW231841   1.483   6.028  12.310 -0.7094  0.6201 -3.3396
41746SOL     OW31842   8.739   5.959   6.238  0.0495  0.6596  0.4611
41746SOL    HW131843   8.680   5.916   6.301 -1.1252 -1.7311 -2.0396
41746SOL    HW231844   8.826   5.951   6.278 -0.6370 -0.7357  1.8105
41747SOL     OW31845   6.358   8.931   7.496 -0.1178 -0.4163  0.2065
41747SOL    HW131846   6.410   9.006   7.525  0.7741 -0.2876 -1.5637
41747SOL    HW231847   6.379   8.862   7.559  3.0749 -0.6782 -0.9783
41748SOL     OW31848   8.010   1.552  11.245 -0.6619 -1.1960 -0.2564
41748SOL    HW131849   8.097   1.579  11.218 -1.1028 -0.5006 -1.0011
41748SOL    HW231850   8.008   1.568  11.340  0.1733 -1.6735 -0.1567
41749SOL     OW31851   3.429  12.673   6.264 -0.3628 -0.0181  0.0963
41749SOL    HW131852   3.448  12.588   6.302  0.4311  0.2016  0.2000
41749SOL    HW231853   3.369  12.655   6.192  0.4387 -0.7421 -0.3896
41750SOL     OW31854   2.661   0.448   2.088 -0.2873  0.5531  0.3663
41750SOL    HW131855   2.671   0.354   2.103 -0.0602  0.4062 -0.6328
41750SOL    HW231856   2.695   0.462   1.999 -0.9426  1.4692  0.2417
41751SOL     OW31857  10.477  12.353   3.535 -0.1999 -0.2370 -0.3213
41751SOL    HW131858  10.559  12.330   3.579  0.7525  0.8815 -1.4471
41751SOL    HW231859  10.457  12.277   3.481  0.0761 -0.5320 -0.0179
41752SOL     OW31860   2.777  11.296   4.551  0.7116  0.0632  0.5304
41752SOL    HW131861   2.832  11.277   4.475 -0.4700 -0.2996 -0.2613
41752SOL    HW231862   2.762  11.211   4.592  0.1419  0.0355  0.2909
41753SOL     OW31863   0.627   1.940   6.290 -0.0054  0.0939 -0.2261
41753SOL    HW131864   0.665   2.005   6.231 -3.7466  1.2116 -1.6498
41753SOL    HW231865   0.561   1.988   6.340 -1.7418 -2.2565 -0.0964
41754SOL     OW31866   2.512   0.095  11.147 -0.2155  0.1559  0.0001
41754SOL    HW131867   2.540   0.143  11.225 -1.5882 -0.8580  1.1727
41754SOL    HW231868   2.592   0.086  11.094  0.9282  0.1916  1.6496
41755SOL     OW31869   7.015  10.426   1.447  0.0165 -0.3658  0.0970
41755SOL    HW131870   6.979  10.339   1.429 -2.6754  0.8091 -0.6799
41755SOL    HW231871   7.042  10.458   1.361 -2.3127  0.8497 -0.2715
41756SOL     OW31872   8.643  11.516   1.301  0.1754  0.3987  0.3160
41756SOL    HW131873   8.729  11.554   1.286 -0.0270  1.5337  1.8151
41756SOL    HW231874   8.613  11.555   1.383 -2.8335  1.9505 -1.3552
41757SOL     OW31875   5.350   9.756  10.933  0.1439  0.1966  0.3605
41757SOL    HW131876   5.297   9.823  10.890 -0.6127 -0.6236 -0.0306
41757SOL    HW231877   5.335   9.770  11.027 -2.5069 -1.2795  0.2682
41758SOL     OW31878   1.436   9.271  10.714  0.3571 -0.5158  0.4552
41758SOL    HW131879   1.476   9.338  10.658 -2.0520 -0.5729 -1.5415
41758SOL    HW231880   1.469   9.188  10.679 -1.7250 -0.5982 -1.6128
41759SOL     OW31881   3.716   8.934  11.585 -0.4441  0.1388  0.1603
41759SOL    HW131882   3.650   8.899  11.525 -0.4131  0.3407  0.0079
41759SOL    HW231883   3.739   8.860  11.641 -0.6754  0.0240  0.1036
41760SOL     OW31884   1.259   7.815   8.257  0.4962  1.2840 -0.1531
41760SOL    HW131885   1.211   7.893   8.283 -1.7640  0.9858 -2.9073
41760SOL    HW231886   1.346   7.826   8.296 -0.2865  4.2366  1.0534
41761SOL     OW31887   5.135   8.188   7.209 -0.2340  0.2714  0.2627
41761SOL    HW131888   5.225   8.218   7.199 -0.2104  0.0327 -0.2764
41761SOL    HW231889   5.116   8.197   7.302 -0.1097  1.6181  0.1771
41762SOL     OW31890  10.314  10.443  11.965 -0.6289 -0.2031 -0.0660
41762SOL    HW131891  10.334  10.482  11.879  1.2437 -0.7471  0.0862
41762SOL    HW231892  10.227  10.477  11.987 -0.0718  1.9993 -1.0140
41763SOL     OW31893   1.217   2.379   5.224  0.0300 -0.1585  0.6206
41763SOL    HW131894   1.233   2.466   5.189  1.2623 -0.6692 -0.1686
41763SOL    HW231895   1.146   2.344   5.169 -0.2240  0.2099  0.7097
41764SOL     OW31896  11.750   5.421   0.122 -0.7313 -0.6382  0.2134
41764SOL    HW131897  11.763   5.451   0.212  2.8810 -1.6302  0.1727
41764SOL    HW231898  11.707   5.336   0.131 -0.3972 -0.7321  1.0073
41765SOL     OW31899  11.158   7.277   0.319  0.6554 -0.6131  0.1476
41765SOL    HW131900  11.069   7.304   0.338  0.8756  0.5289 -0.4144
41765SOL    HW231901  11.202   7.278   0.404  0.8570  1.6070  0.0772
41766SOL     OW31902   6.739   5.443  11.393 -0.1333  0.6833  0.6504
41766SOL    HW131903   6.702   5.375  11.336 -3.3211  2.7443  0.0134
41766SOL    HW231904   6.798   5.493  11.337  1.0564 -0.5794  0.7259
41767SOL     OW31905   1.373   1.672  10.614  0.7204 -0.1366  0.5083
41767SOL    HW131906   1.363   1.621  10.695  0.6134 -0.3219  0.3820
41767SOL    HW231907   1.372   1.606  10.545  1.0881 -0.0006  0.3742
41768SOL     OW31908   3.017   7.050  12.555 -0.4622  0.9161 -0.2659
41768SOL    HW131909   3.027   7.119  12.621  0.2171 -0.2675  0.9042
41768SOL    HW231910   3.080   7.073  12.487 -0.9002  1.9365 -0.3558
41769SOL     OW31911   9.547  11.630   5.725 -0.0928 -0.0191 -0.3145
41769SOL    HW131912   9.499  11.694   5.778 -0.3904 -0.6939  0.2506
41769SOL    HW231913   9.507  11.546   5.747  1.4649 -0.6302  0.3150
41770SOL     OW31914   0.628  10.205   9.828 -0.1089  0.1490 -0.1466
41770SOL    HW131915   0.550  10.230   9.779 -1.1267  0.3279  1.4768
41770SOL    HW231916   0.702  10.237   9.776 -1.2105  2.3537 -0.4262
41771SOL     OW31917  11.108   1.746   0.162 -0.3824  0.3325  0.1570
41771SOL    HW131918  11.139   1.676   0.219 -1.5757  1.1712  1.9390
41771SOL    HW231919  11.020   1.719   0.136  0.1598 -0.0577 -1.3933
41772SOL     OW31920   7.565   8.746   6.564 -0.3045 -0.5061  0.1405
41772SOL    HW131921   7.638   8.704   6.518  0.6561  0.4700  0.7308
41772SOL    HW231922   7.575   8.839   6.544 -0.1674 -0.1193  1.8777
41773SOL     OW31923   9.834   1.467   3.151  0.1556  0.0509  0.0837
41773SOL    HW131924   9.909   1.511   3.190 -0.7899  1.1195  0.7457
41773SOL    HW231925   9.760   1.492   3.206 -0.8848 -0.0385 -1.2251
41774SOL     OW31926   1.323   2.603   6.235  0.1095 -0.0889 -0.2863
41774SOL    HW131927   1.392   2.602   6.301 -1.8110 -0.0317  1.8253
41774SOL    HW231928   1.286   2.515   6.237  0.2195 -0.1900 -1.5658
41775SOL     OW31929   8.688   1.749  11.974 -0.5187 -0.4138  0.1727
41775SOL    HW131930   8.778   1.716  11.972 -0.2658  0.3077 -1.0204
41775SOL    HW231931   8.664   1.746  12.067  0.4322 -1.3956  0.4164
41776SOL     OW31932   9.537   8.475   8.033  0.6186 -0.3229 -0.3275
41776SOL    HW131933   9.594   8.503   7.962  2.1023 -0.2109  0.8565
41776SOL    HW231934   9.530   8.551   8.091 -0.4120 -0.4674 -0.2318
41777SOL     OW31935   4.508  10.634   5.558  0.1033 -0.0433 -0.2192
41777SOL    HW131936   4.530  10.639   5.465 -2.2260 -2.7528 -1.0635
41777SOL    HW231937   4.427  10.685   5.566  0.9529  1.2307  0.6521
41778SOL     OW31938   0.970   0.483  11.532 -0.2642  0.2594  0.0389
41778SOL    HW131939   0.904   0.424  11.570 -2.7896  2.6255 -0.3754
41778SOL    HW231940   0.997   0.538  11.605 -0.1776  0.5279 -0.1964
41779SOL     OW31941   4.718   7.766  10.777 -0.1301 -0.2234 -0.1129
41779SOL    HW131942   4.662   7.840  10.755  1.0735  1.1432  1.1820
41779SOL    HW231943   4.662   7.709  10.832 -0.2527  1.1930  1.3007
41780SOL     OW31944   9.464  12.363   2.012 -0.3146 -0.5677 -0.1064
41780SOL    HW131945   9.492  12.435   1.955 -1.2300  0.4483  0.6900
41780SOL    HW231946   9.534  12.297   2.003  1.0623  0.8314 -0.0641
41781SOL     OW31947   2.044  10.367   9.531 -0.0185 -0.0808 -0.0215
41781SOL    HW131948   2.017  10.284   9.491 -0.3616 -1.2050  2.3813
41781SOL    HW231949   2.109  10.341   9.597 -0.8943  1.4308  1.4876
41782SOL     OW31950   9.815   4.716   1.298 -0.4651 -0.7221 -0.2507
41782SOL    HW131951   9.754   4.744   1.367  0.3663 -1.9888  1.0663
41782SOL    HW231952   9.899   4.753   1.324  0.1858 -2.4870  0.3342
41783SOL     OW31953  11.206   9.592  11.843  0.6152  0.0331 -0.1459
41783SOL    HW131954  11.272   9.631  11.900  0.6858  1.2333 -1.0188
41783SOL    HW231955  11.170   9.665  11.794  0.1743 -0.8951 -1.2575
41784SOL     OW31956   8.993   1.359  10.640  0.1936 -0.0002 -0.2272
41784SOL    HW131957   8.908   1.315  10.651  0.2178  0.2455  1.1133
41784SOL    HW231958   9.058   1.294  10.667  0.4116 -0.0781 -0.9358
41785SOL     OW31959   9.046   8.589   6.042 -0.0453 -0.7738 -0.1589
41785SOL    HW131960   8.965   8.597   5.991  0.3380  1.3456 -0.5012
41785SOL    HW231961   9.041   8.501   6.079 -1.2852 -1.6612 -2.2247
41786SOL     OW31962   2.405   6.189   8.818  0.0113 -0.4591 -0.1276
41786SOL    HW131963   2.373   6.279   8.813  0.7481 -0.1952 -0.1878
41786SOL    HW231964   2.346   6.146   8.879  0.9013  0.6089  1.5529
41787SOL     OW31965   7.840   8.427   4.689  0.4533  0.2503  1.0740
41787SOL    HW131966   7.918   8.424   4.634 -0.0440  0.6023  0.3438
41787SOL    HW231967   7.802   8.513   4.672 -1.8633 -1.1006 -1.0639
41788SOL     OW31968  10.401   5.890  12.540  0.4091  0.6049  0.2125
41788SOL    HW131969  10.326   5.833  12.557  1.2075  0.2087  2.8360
41788SOL    HW231970  10.463   5.834  12.493 -0.4896  0.6336 -1.0552
41789SOL     OW31971   1.477   4.771  12.265  0.1265 -0.0867  0.2201
41789SOL    HW131972   1.445   4.717  12.193  1.5220 -1.4610  0.5829
41789SOL    HW231973   1.549   4.822  12.227 -0.6066  0.9050  0.1062
41790SOL     OW31974   6.046   1.654   9.979  0.0445  0.1044 -0.2851
41790SOL    HW131975   6.132   1.619  10.003 -0.1974  0.1097  0.6284
41790SOL    HW231976   6.001   1.666  10.063 -0.7578  0.3312 -0.7401
41791SOL     OW31977   6.989   6.695   8.500 -0.1044 -0.0444  0.7997
41791SOL    HW131978   7.071   6.737   8.526 -0.0961  0.6266 -0.2405
41791SOL    HW231979   6.921   6.744   8.546 -0.0131  0.3268  0.5424
41792SOL     OW31980  11.314   9.652   7.941  0.4130  0.2440  0.0179
41792SOL    HW131981  11.333   9.593   7.869  0.7449 -1.4244  1.4166
41792SOL    HW231982  11.219   9.650   7.950  0.4343 -0.1626  0.1391
41793SOL     OW31983   9.991   1.909   9.137  0.6338  0.0946  0.3548
41793SOL    HW131984  10.041   1.911   9.218  0.5599 -0.4263  0.4173
41793SOL    HW231985   9.939   1.829   9.143  0.7019  0.0004 -0.2476
41794SOL     OW31986   1.751   9.434  11.413  0.3695  0.7674  0.5925
41794SOL    HW131987   1.664   9.414  11.380 -0.3356 -0.2791  2.8635
41794SOL    HW231988   1.799   9.351  11.406  0.6888  0.9336  0.7842
41795SOL     OW31989  11.043   0.663   2.188  0.1843 -0.8156  0.1380
41795SOL    HW131990  10.967   0.701   2.144  0.9286  0.7302  0.1195
41795SOL    HW231991  11.012   0.637   2.274 -0.1026  0.9689  0.6016
41796SOL     OW31992  11.105   0.940   2.435 -0.0702  0.2426 -0.2682
41796SOL    HW131993  11.092   0.889   2.514 -0.2730 -1.7211 -1.4941
41796SOL    HW231994  11.028   0.996   2.429 -0.4555 -0.1947  0.4879
41797SOL     OW31995   6.739   5.599   9.820 -0.0002  0.6404 -0.0847
41797SOL    HW131996   6.741   5.525   9.759 -1.2572 -0.1994  0.8416
41797SOL    HW231997   6.816   5.588   9.875 -0.5371 -0.3931  0.4853
41798SOL     OW31998   2.282   9.440  11.640 -0.1291  0.3531 -0.5626
41798SOL    HW131999   2.373   9.409  11.645 -0.6950 -1.5963 -1.4769
41798SOL    HW232000   2.240   9.403  11.718 -0.3463  0.4918 -0.6130
41799SOL     OW32001   2.856   6.465   9.505 -0.5802  0.0114 -0.3226
41799SOL    HW132002   2.860   6.379   9.546 -1.7292  0.4679  0.8176
41799SOL    HW232003   2.929   6.514   9.543 -1.3158  0.2567  0.8393
41800SOL     OW32004  10.120   5.358   8.477  0.0856  0.0387 -0.0898
41800SOL    HW132005  10.186   5.289   8.465  0.8598  1.0140 -1.8699
41800SOL    HW232006  10.161   5.421   8.535  1.9475  1.9346 -3.1640
41801SOL     OW32007  12.655   6.067   7.626  0.0266 -0.2890 -0.9765
41801SOL    HW132008  12.622   6.095   7.711  0.5644 -1.2189 -0.4437
41801SOL    HW232009  12.583   6.084   7.565 -0.4266  0.2171 -0.3062
41802SOL     OW32010  11.800   6.774   5.883 -0.4532 -0.2690 -0.1488
41802SOL    HW132011  11.886   6.758   5.921 -0.5759  0.7720  0.6293
41802SOL    HW232012  11.801   6.730   5.798 -0.1783 -2.7197  1.0622
41803SOL     OW32013   1.527   6.961   4.529 -0.2069 -0.3983  0.2221
41803SOL    HW132014   1.531   6.867   4.546  0.7920  0.1075  3.4282
41803SOL    HW232015   1.594   6.977   4.463  0.0481 -1.8376  0.1127
41804SOL     OW32016   4.895   2.917   6.541 -0.0132  0.0859  0.4424
41804SOL    HW132017   4.914   3.007   6.569  1.3300 -0.3641  1.0618
41804SOL    HW232018   4.945   2.906   6.460  0.0463 -0.1762  0.5125
41805SOL     OW32019  10.506   2.481  10.031 -0.2247 -0.0501 -0.0441
41805SOL    HW132020  10.501   2.572  10.001 -1.3177  0.3609  1.2959
41805SOL    HW232021  10.587   2.448   9.993  0.9628  1.9253  0.6271
41806SOL     OW32022   1.022   9.103   6.115  0.3941 -0.1076 -0.3629
41806SOL    HW132023   1.009   9.082   6.207 -1.7130  0.8926 -0.3707
41806SOL    HW232024   0.969   9.181   6.101  1.6776  0.5063 -2.1466
41807SOL     OW32025   5.447   0.559   9.312 -0.5654 -0.0950  0.2890
41807SOL    HW132026   5.426   0.501   9.238  0.3521 -0.0746  0.0078
41807SOL    HW232027   5.426   0.506   9.389  0.6257 -0.9691  0.0444
41808SOL     OW32028   6.053   6.969   9.200  0.0925  0.4550  0.4481
41808SOL    HW132029   6.141   6.937   9.218 -0.8746 -1.8996  1.3372
41808SOL    HW232030   6.042   6.958   9.106  0.6650  0.5807  0.3638
41809SOL     OW32031   4.338   8.957   6.389  0.9271  0.1872  0.0648
41809SOL    HW132032   4.433   8.962   6.379  0.8213  2.4812 -0.5115
41809SOL    HW232033   4.306   9.038   6.348 -1.1155  0.4790  2.0745
41810SOL     OW32034   8.722   2.702  11.180  0.3049 -0.2135 -0.3667
41810SOL    HW132035   8.732   2.793  11.208 -1.1260 -0.7079  2.0994
41810SOL    HW232036   8.789   2.689  11.113  1.2048  2.3475 -0.0550
41811SOL     OW32037   3.583  10.671  10.754  0.0714  0.2584 -0.6137
41811SOL    HW132038   3.584  10.754  10.801  1.1001 -0.7917  1.3657
41811SOL    HW232039   3.491  10.645  10.752  0.0785 -0.1093  1.7485
41812SOL     OW32040   2.734   0.583  10.178 -0.0917 -0.1238 -0.0378
41812SOL    HW132041   2.659   0.526  10.196  0.0504  0.1555  1.5971
41812SOL    HW232042   2.699   0.672  10.188  0.6021  0.0020  1.5031
41813SOL     OW32043   2.214   8.321  12.663 -0.9230  0.0051 -0.1149
41813SOL    HW132044   2.187   8.252  12.602 -0.4019  0.4089 -0.8166
41813SOL    HW232045   2.267   8.380  12.610 -2.9830  2.0506 -0.0571
41814SOL     OW32046   9.832   0.509   9.441 -0.1370  0.6388 -0.4410
41814SOL    HW132047   9.912   0.457   9.438 -1.6249 -1.8475 -0.6578
41814SOL    HW232048   9.784   0.475   9.517 -2.6799 -0.9092 -2.5149
41815SOL     OW32049  10.002   6.203   6.672  0.0702  0.0377  0.9201
41815SOL    HW132050  10.012   6.120   6.625  1.3575  0.4404  0.4433
41815SOL    HW232051   9.918   6.195   6.717 -1.3539 -0.3000 -1.6095
41816SOL     OW32052  11.345   5.384  11.071 -0.8057  0.4857 -0.4425
41816SOL    HW132053  11.417   5.429  11.027  1.6509 -1.7601  1.0187
41816SOL    HW232054  11.351   5.414  11.162  0.4070 -2.0230  0.3942
41817SOL     OW32055   4.263   6.708   9.525 -0.1437  0.1004  0.2007
41817SOL    HW132056   4.321   6.640   9.558  0.7415  1.5787  1.8772
41817SOL    HW232057   4.302   6.790   9.555 -2.3205  1.2410  0.1674
41818SOL     OW32058   0.902   1.148   3.206  0.1315 -0.0146 -0.2671
41818SOL    HW132059   0.962   1.141   3.132 -0.8316  0.1634 -1.0715
41818SOL    HW232060   0.880   1.241   3.210  0.0196 -0.0560  0.1212
41819SOL     OW32061  12.285   7.360   0.470 -0.3443  0.2805  0.2634
41819SOL    HW132062  12.216   7.387   0.531 -0.8295 -0.5145  0.0924
41819SOL    HW232063  12.297   7.267   0.488  0.9282  0.4809  0.5078
41820SOL     OW32064   3.356   1.194   3.529 -0.2635 -0.3266 -0.1612
41820SOL    HW132065   3.268   1.156   3.519 -0.6875  0.8645 -1.3833
41820SOL    HW232066   3.376   1.230   3.442  0.5172  1.3152  0.6523
41821SOL     OW32067   7.667   2.768  12.231 -1.1040 -0.7951  0.0173
41821SOL    HW132068   7.679   2.813  12.314  0.9619  3.4644 -2.2431
41821SOL    HW232069   7.753   2.730  12.212 -1.5581 -1.7347 -0.2173
41822SOL     OW32070  10.712   0.941   3.614  0.9155 -0.7203 -0.8747
41822SOL    HW132071  10.753   0.861   3.581  1.6258 -1.4434  1.5359
41822SOL    HW232072  10.731   1.007   3.547  1.5970 -2.2045 -2.2270
41823SOL     OW32073   7.324   4.983  11.528  0.1137  0.1751 -0.1724
41823SOL    HW132074   7.395   4.958  11.469 -0.8310 -2.0212 -0.4559
41823SOL    HW232075   7.334   4.928  11.605 -1.4333 -0.4256 -0.3584
41824SOL     OW32076   3.554   1.495   7.454 -0.3791  0.1327 -0.0242
41824SOL    HW132077   3.637   1.452   7.472 -1.2152 -1.3154  0.5254
41824SOL    HW232078   3.531   1.468   7.365 -2.2204 -2.9732  1.2303
41825SOL     OW32079  11.515   0.888   9.818 -0.5789  0.1953 -0.3287
41825SOL    HW132080  11.478   0.820   9.874 -0.4755 -1.1183 -1.7615
41825SOL    HW232081  11.608   0.867   9.813 -0.6431  0.0590 -1.2396
41826SOL     OW32082   3.145   6.369  12.322  0.5422 -0.1601 -0.0867
41826SOL    HW132083   3.075   6.401  12.265  0.8762  0.8559  0.0534
41826SOL    HW232084   3.136   6.274  12.320 -2.5106 -0.0510  2.0050
41827SOL     OW32085  10.317   8.956   0.722 -0.3113 -0.8945 -0.1142
41827SOL    HW132086  10.274   9.003   0.650 -0.5573 -1.1524 -0.1427
41827SOL    HW232087  10.295   9.005   0.800 -1.4523 -1.5334 -0.0102
41828SOL     OW32088   4.091  11.972  12.449  0.6675 -0.0457 -0.1798
41828SOL    HW132089   4.111  11.905  12.514 -1.6346  0.2442  0.9485
41828SOL    HW232090   4.029  11.930  12.389 -1.3392  1.1538  0.9333
41829SOL     OW32091   6.768   1.014   9.143 -0.1101 -0.2514  0.2545
41829SOL    HW132092   6.784   1.108   9.139  0.3913 -0.3825 -2.5827
41829SOL    HW232093   6.673   1.007   9.154 -0.0107  0.5277  1.9448
41830SOL     OW32094  12.616   2.839   7.948  0.7647 -0.3102 -0.0645
41830SOL    HW132095  12.629   2.907   8.015  1.5725 -1.2994  0.8422
41830SOL    HW232096  12.522   2.837   7.933  0.8572  2.4075 -1.6708
41831SOL     OW32097   6.979   7.128   5.602  0.2880  0.1669  0.0839
41831SOL    HW132098   6.981   7.215   5.562  1.0048 -0.6220 -1.6867
41831SOL    HW232099   7.048   7.131   5.668  0.4080  0.8825 -0.0610
41832SOL     OW32100   7.211  12.467   6.652 -0.0258 -0.0521  0.0079
41832SOL    HW132101   7.157  12.521   6.709 -0.4053  1.1209 -1.3991
41832SOL    HW232102   7.174  12.481   6.564  2.7772  1.1582 -1.0915
41833SOL     OW32103   1.307  11.412   1.714 -0.3501 -0.0303 -0.2275
41833SOL    HW132104   1.402  11.403   1.701 -0.1862 -1.4653  1.5861
41833SOL    HW232105   1.287  11.500   1.682  1.8414  0.8247  0.5294
41834SOL     OW32106   3.419   7.294   6.825  0.1069  0.2254  0.3655
41834SOL    HW132107   3.422   7.260   6.914  0.9910 -1.5233 -0.2819
41834SOL    HW232108   3.501   7.343   6.815  0.3001 -0.0953  0.3432
41835SOL     OW32109   3.242   2.832   3.401  0.2386 -0.2316 -0.0636
41835SOL    HW132110   3.170   2.774   3.376  1.8121 -2.0183 -0.7206
41835SOL    HW232111   3.258   2.812   3.493 -1.5248  1.8544  0.7831
41836SOL     OW32112  12.329  10.422   9.573  0.0824  0.3297  0.3075
41836SOL    HW132113  12.407  10.399   9.522  0.2176  0.3063  0.5248
41836SOL    HW232114  12.274  10.471   9.511  0.6412  1.0724  0.3899
41837SOL     OW32115  10.881  10.222   8.632  0.6920 -0.1066 -0.4401
41837SOL    HW132116  10.871  10.282   8.558  1.2210 -0.1141 -0.5247
41837SOL    HW232117  10.958  10.255   8.679  0.6848 -0.4235 -0.2034
41838SOL     OW32118   7.162   8.704   8.352 -0.3908  0.2006  0.3934
41838SOL    HW132119   7.229   8.760   8.392  1.1021 -1.7570  0.7460
41838SOL    HW232120   7.126   8.654   8.425  1.9705 -3.0116 -0.4495
41839SOL     OW32121   2.954   5.043   1.876 -0.3056  0.1670 -0.0360
41839SOL    HW132122   2.936   5.034   1.782 -1.9039 -1.4473  0.3731
41839SOL    HW232123   3.027   4.983   1.892  1.1705  1.7429 -0.4974
41840SOL     OW32124   4.234   8.542  10.921 -0.0553  0.1912  0.7757
41840SOL    HW132125   4.253   8.549  10.828 -0.0567 -2.0817  0.5429
41840SOL    HW232126   4.260   8.453  10.945 -1.6809  0.0997  2.5345
41841SOL     OW32127   8.498   8.298   0.960 -0.1678 -0.2065 -0.4612
41841SOL    HW132128   8.408   8.292   0.928 -1.0967 -1.2636  2.1439
41841SOL    HW232129   8.492   8.285   1.054  2.6661  0.4073 -0.0934
41842SOL     OW32130  11.554  12.023   9.176  0.3217 -0.2095  0.0985
41842SOL    HW132131  11.542  12.068   9.260  0.1871 -1.2694  0.6659
41842SOL    HW232132  11.585  12.091   9.117  0.0898  0.6347  0.9207
41843SOL     OW32133   9.697   5.939  11.376 -0.8939 -0.0717  0.4412
41843SOL    HW132134   9.763   5.903  11.434  0.9668  0.4436 -1.2102
41843SOL    HW232135   9.627   5.969  11.434  1.4722  1.7574  2.5772
41844SOL     OW32136   3.945  10.860   0.623  0.6619  0.0094 -0.3728
41844SOL    HW132137   3.975  10.935   0.572 -0.9745  1.0788  0.1312
41844SOL    HW232138   3.868  10.827   0.575  1.6061 -1.6699 -0.8275
41845SOL     OW32139   2.892   9.672   3.958  0.6252 -0.7265 -0.1277
41845SOL    HW132140   2.857   9.586   3.982  0.6606 -0.5935  0.3990
41845SOL    HW232141   2.820   9.733   3.975  0.9154 -0.5307  0.3876
41846SOL     OW32142  12.694   4.565   3.425 -0.2731  0.1468 -0.4900
41846SOL    HW132143  12.756   4.514   3.374 -1.1291  0.4720 -1.9035
41846SOL    HW232144  12.642   4.612   3.360 -1.0872  0.9562  0.7002
41847SOL     OW32145   7.700  10.583   4.615 -0.0027  0.1320 -0.5773
41847SOL    HW132146   7.627  10.635   4.582 -0.2828 -0.3171 -0.6852
41847SOL    HW232147   7.668  10.493   4.611 -0.3306  0.1093  1.6369
41848SOL     OW32148   3.526   0.576  10.487 -0.3158 -0.0119  1.0171
41848SOL    HW132149   3.473   0.624  10.423 -0.3483 -1.2943  0.0499
41848SOL    HW232150   3.595   0.638  10.511 -1.1370  0.9994  0.8348
41849SOL     OW32151   7.704  10.008  11.031 -0.2625  0.1313 -0.1756
41849SOL    HW132152   7.731   9.994  11.121 -0.3898  0.3907 -0.0946
41849SOL    HW232153   7.765  10.074  10.997 -0.7552  0.6798 -0.0070
41850SOL     OW32154   1.774   1.797   4.503 -0.0186  0.4129  0.1163
41850SOL    HW132155   1.705   1.731   4.513  0.9742 -0.6126  0.4222
41850SOL    HW232156   1.761   1.832   4.415 -0.8928  0.1880  0.1479
41851SOL     OW32157   4.978   5.587   6.746  0.0571 -0.3218  0.3544
41851SOL    HW132158   5.014   5.508   6.788  1.9334 -0.1969 -0.9059
41851SOL    HW232159   5.026   5.594   6.664  0.0947  2.2768  0.5409
41852SOL     OW32160   2.115   7.695   6.446 -0.0069 -0.2319 -0.3831
41852SOL    HW132161   2.172   7.725   6.375  0.5990  2.0790  0.9720
41852SOL    HW232162   2.028   7.729   6.424  0.8662  3.9517  1.6705
41853SOL     OW32163   1.596   0.452  11.396 -0.5556  0.7688  0.2476
41853SOL    HW132164   1.659   0.464  11.325 -0.4412 -0.0392  0.1971
41853SOL    HW232165   1.518   0.417  11.353 -0.5927  0.5680  0.4741
41854SOL     OW32166   2.919  10.478   4.830  0.0254 -0.2015 -0.6663
41854SOL    HW132167   2.869  10.400   4.807 -0.6324 -0.2600  0.8500
41854SOL    HW232168   2.880  10.510   4.911  2.7313 -0.5369  0.9072
41855SOL     OW32169   8.355   1.651   2.353  0.2499  0.1857 -0.2049
41855SOL    HW132170   8.352   1.561   2.385 -0.4155  0.1672 -0.2966
41855SOL    HW232171   8.303   1.650   2.273  1.7316  0.2731 -1.2111
41856SOL     OW32172   7.302   5.639  11.868  0.1684  0.0558  0.4172
41856SOL    HW132173   7.233   5.646  11.803 -0.1713 -1.4916  0.5701
41856SOL    HW232174   7.295   5.719  11.919 -1.6230 -0.1310  0.5258
41857SOL     OW32175   7.259   3.621   6.423  0.3792  0.3991 -0.0974
41857SOL    HW132176   7.297   3.595   6.339  1.3097  1.7464 -0.1435
41857SOL    HW232177   7.307   3.701   6.446 -0.5560  0.6058  1.2292
41858SOL     OW32178   5.898   9.605   7.314 -0.2908  0.3122 -0.0031
41858SOL    HW132179   5.849   9.650   7.245  0.3309 -1.1354 -1.4321
41858SOL    HW232180   5.888   9.662   7.391  0.9268  3.2134 -1.8128
41859SOL     OW32181  12.511   4.007   5.559 -0.3477 -0.4542 -0.1373
41859SOL    HW132182  12.528   3.923   5.518  0.5268 -0.4562  0.1933
41859SOL    HW232183  12.579   4.014   5.627  0.8626  1.3761 -1.4449
41860SOL     OW32184   4.496   6.237   9.494 -0.1250 -0.1638 -0.0353
41860SOL    HW132185   4.534   6.210   9.578  0.0628  0.5308  0.1066
41860SOL    HW232186   4.483   6.155   9.447 -1.0903 -0.6515  1.0293
41861SOL     OW32187   2.570   7.187   6.475 -0.1592  0.1498 -0.0445
41861SOL    HW132188   2.630   7.186   6.400 -0.6175 -0.5511 -0.4063
41861SOL    HW232189   2.484   7.206   6.437 -0.1602  1.3019  0.4885
41862SOL     OW32190   0.717   5.943   2.730 -0.4903  0.7169  0.3056
41862SOL    HW132191   0.673   5.873   2.778  0.7995 -0.6410 -0.4274
41862SOL    HW232192   0.802   5.952   2.774  0.6496 -0.4419 -1.5698
41863SOL     OW32193   1.240   0.111  10.502 -0.1943 -0.5547 -0.2357
41863SOL    HW132194   1.167   0.050  10.493 -0.3154 -0.2163 -1.7051
41863SOL    HW232195   1.225   0.154  10.587 -0.9352 -1.4565  0.1072
41864SOL     OW32196   6.638  12.446  11.157  0.2376  0.0411 -0.3152
41864SOL    HW132197   6.546  12.467  11.172  0.1049 -1.2853  1.0126
41864SOL    HW232198   6.636  12.362  11.110  0.7305 -0.6877  0.8986
41865SOL     OW32199   4.828   0.564  10.014 -0.4900  0.1960  0.2348
41865SOL    HW132200   4.817   0.515   9.932 -0.8047  0.8584 -0.1216
41865SOL    HW232201   4.796   0.652   9.994  2.3966  1.3194  0.1232
41866SOL     OW32202   8.627   9.825   5.077 -0.3649 -0.3482  0.0602
41866SOL    HW132203   8.634   9.800   4.985  1.0473 -1.8122  0.5144
41866SOL    HW232204   8.548   9.782   5.108  0.0627 -1.2582 -0.0778
41867SOL     OW32205  11.527   9.621  12.284  0.3362 -0.1938 -0.3630
41867SOL    HW132206  11.433   9.642  12.280  0.0480 -1.4720 -0.9951
41867SOL    HW232207  11.571   9.704  12.266 -0.7171  0.0715 -1.9096
41868SOL     OW32208   5.690   6.445   5.005 -0.2781 -0.4169  0.3869
41868SOL    HW132209   5.723   6.371   5.056  1.2453 -0.1617 -0.1911
41868SOL    HW232210   5.696   6.520   5.064 -1.4652 -0.6567  0.8448
41869SOL     OW32211   6.445   7.421  10.635  0.1530 -0.3345 -0.6821
41869SOL    HW132212   6.391   7.489  10.675  0.3203 -0.3030 -0.5090
41869SOL    HW232213   6.527   7.464  10.615  1.3773 -1.1410  2.1013
41870SOL     OW32214   6.186   4.498   1.060 -0.4511 -0.2013 -0.0522
41870SOL    HW132215   6.263   4.472   1.010 -0.7870 -1.1282 -0.0962
41870SOL    HW232216   6.169   4.425   1.120 -2.5203 -0.9996 -1.4851
41871SOL     OW32217   3.304   3.100   3.916 -0.2232  0.3227 -0.1939
41871SOL    HW132218   3.319   3.165   3.985  0.5064 -0.7452  0.6894
41871SOL    HW232219   3.209   3.094   3.909 -0.3672 -0.6441  1.8344
41872SOL     OW32220   7.668   1.660   9.835  0.0299  0.3309  0.3901
41872SOL    HW132221   7.572   1.655   9.834 -0.1449  2.5493 -1.5348
41872SOL    HW232222   7.687   1.735   9.890  0.7813 -0.6735  1.5691
41873SOL     OW32223   5.379   8.334   7.258  0.1096  0.1805  0.5496
41873SOL    HW132224   5.387   8.407   7.198  0.2401 -0.7810 -0.6392
41873SOL    HW232225   5.348   8.373   7.340  0.7105  1.6177  0.1114
41874SOL     OW32226   3.705   1.073   5.753 -0.2652  0.3966 -0.0959
41874SOL    HW132227   3.680   1.086   5.662 -0.8784 -0.0071  0.0055
41874SOL    HW232228   3.704   1.160   5.791  0.4725  0.6330 -0.5831
41875SOL     OW32229   4.376   3.696   9.555 -0.0060  0.4357 -0.0649
41875SOL    HW132230   4.417   3.676   9.640 -1.8977  1.4873  1.1590
41875SOL    HW232231   4.383   3.791   9.547  2.4251  0.1772 -2.3817
41876SOL     OW32232   3.020   9.435   6.341  0.0511  0.1243 -0.8359
41876SOL    HW132233   3.040   9.526   6.318 -0.3059  0.2805 -0.5530
41876SOL    HW232234   2.927   9.437   6.363  0.5620  0.2001  1.5765
41877SOL     OW32235  10.547  11.617   6.340 -0.2382 -0.8199 -0.2307
41877SOL    HW132236  10.577  11.614   6.250 -2.5649 -3.7756 -1.0581
41877SOL    HW232237  10.462  11.661   6.335 -1.1305 -2.4089  0.1836
41878SOL     OW32238   4.996   9.070   9.605  0.2796 -0.1048 -0.0338
41878SOL    HW132239   5.029   9.007   9.670  2.6199  1.2893  0.2860
41878SOL    HW232240   5.037   9.153   9.631  0.7597  0.6429 -2.9025
41879SOL     OW32241   6.968   8.064   6.954  0.5042 -0.4486  0.1957
41879SOL    HW132242   6.998   8.133   6.896 -1.0868  0.1621  0.0631
41879SOL    HW232243   6.923   8.110   7.025 -1.1291 -1.3621 -0.2203
41880SOL     OW32244   7.535  10.862   4.832  0.5495  0.7016 -0.1592
41880SOL    HW132245   7.531  10.792   4.767 -1.0453 -0.7811  1.4093
41880SOL    HW232246   7.444  10.891   4.842  1.2306  3.4948 -1.1934
41881SOL     OW32247   1.314   3.588   2.759  0.2986  0.4072 -0.5553
41881SOL    HW132248   1.309   3.518   2.824  0.5216  1.8357  1.0819
41881SOL    HW232249   1.399   3.575   2.717  1.5079  1.1078  1.5021
41882SOL     OW32250   4.178   5.895   3.917  0.2605 -0.6376 -0.4276
41882SOL    HW132251   4.221   5.864   3.997  2.6649  0.4636 -1.2120
41882SOL    HW232252   4.161   5.988   3.934  2.8162  0.1836 -1.9096
41883SOL     OW32253  10.089   5.030   8.604 -0.3478 -0.7757 -0.1841
41883SOL    HW132254  10.109   4.943   8.638  0.3224  0.0262  1.6029
41883SOL    HW232255  10.079   5.084   8.682  1.1523  1.1747 -1.2669
41884SOL     OW32256   4.177   2.192   7.521  0.6342 -0.2237  0.1315
41884SOL    HW132257   4.093   2.223   7.485  0.3057 -0.0122  1.0536
41884SOL    HW232258   4.153   2.120   7.579  0.9137  0.7192  1.4840
41885SOL     OW32259   5.988   3.421   8.543 -0.6598  0.1323  0.0188
41885SOL    HW132260   5.998   3.455   8.455 -0.1151  2.5601  0.9587
41885SOL    HW232261   5.893   3.406   8.552 -0.8888  1.2116 -0.5080
41886SOL     OW32262   0.626   8.875   3.207  0.0676  0.9146  0.2036
41886SOL    HW132263   0.560   8.936   3.174 -0.3411  1.5213  2.0673
41886SOL    HW232264   0.701   8.931   3.228  0.5995  0.4316 -0.3720
41887SOL     OW32265  11.653   7.269   4.788 -0.0964  0.5316 -0.2577
41887SOL    HW132266  11.557   7.262   4.788  0.0330 -2.1767  0.5297
41887SOL    HW232267  11.677   7.269   4.881  0.7321 -0.8583 -0.4455
41888SOL     OW32268   0.748   1.669   8.707  0.3457  0.4805  0.5068
41888SOL    HW132269   0.788   1.712   8.632  0.1624  1.3270  0.8802
41888SOL    HW232270   0.792   1.706   8.783  2.1429 -2.0134  0.8054
41889SOL     OW32271   9.072   7.674   3.509  0.1868  0.0925 -0.0686
41889SOL    HW132272   8.999   7.725   3.545  0.7737  0.7819  0.1791
41889SOL    HW232273   9.095   7.720   3.427 -0.8855 -1.2338 -1.1589
41890SOL     OW32274   7.333  11.765   0.580  0.3723 -0.1440  0.6363
41890SOL    HW132275   7.427  11.772   0.562  0.5446  0.0975  1.5957
41890SOL    HW232276   7.297  11.849   0.552  0.5373 -0.0041  0.8466
41891SOL     OW32277   5.300   5.454   0.056 -0.4614 -0.2215  0.6164
41891SOL    HW132278   5.241   5.518   0.016  1.0466  0.1404 -1.1965
41891SOL    HW232279   5.242   5.384   0.086 -1.9415  0.8862  0.4913
41892SOL     OW32280   6.701  11.429   0.417  0.1426 -0.1384 -0.3657
41892SOL    HW132281   6.784  11.470   0.391  0.8796 -0.2905  1.5486
41892SOL    HW232282   6.652  11.499   0.460  0.2517 -0.5727  0.4934
41893SOL     OW32283   9.291   2.526   1.925  0.1445 -0.2788  0.1498
41893SOL    HW132284   9.327   2.491   2.006 -0.4573 -1.4541 -0.0768
41893SOL    HW232285   9.277   2.619   1.944  1.9854 -0.0778  0.6756
41894SOL     OW32286   2.852   0.330   9.700  0.1962 -0.2159 -0.2277
41894SOL    HW132287   2.766   0.372   9.690  0.1909 -0.1285  0.1448
41894SOL    HW232288   2.839   0.240   9.671 -0.0816 -0.2651  0.0443
41895SOL     OW32289   8.903  11.676   8.586 -0.2538  0.2832  0.0849
41895SOL    HW132290   8.865  11.710   8.505 -0.4914  0.5723  0.3130
41895SOL    HW232291   8.948  11.752   8.624 -3.7394  1.4142  2.3952
41896SOL     OW32292   1.026  12.271   8.746 -0.0658 -0.5412 -0.1338
41896SOL    HW132293   0.963  12.250   8.815 -0.9593  2.3732  0.0853
41896SOL    HW232294   0.973  12.314   8.679  1.2399 -0.8557 -1.4063
41897SOL     OW32295  12.063  11.891   5.941 -0.3587 -0.3253 -0.3952
41897SOL    HW132296  12.144  11.931   5.908  1.3877 -0.5335  3.1128
41897SOL    HW232297  12.082  11.797   5.942 -1.2440 -0.5148 -0.8892
41898SOL     OW32298  10.180   4.850  11.852  0.0387  0.5432  0.2159
41898SOL    HW132299  10.193   4.880  11.942  0.7207 -1.3755  0.8056
41898SOL    HW232300  10.097   4.802  11.855 -1.1045  2.3389 -0.7388
41899SOL     OW32301  11.940  11.375   3.559 -0.0371 -0.2268  0.0432
41899SOL    HW132302  11.985  11.380   3.643  0.5754 -0.9278 -0.2303
41899SOL    HW232303  11.848  11.370   3.581  0.1925 -2.4514  0.8036
41900SOL     OW32304   6.096   3.587  11.947 -0.0513  0.6475  0.1364
41900SOL    HW132305   6.133   3.675  11.936 -1.7148  1.3270 -0.3835
41900SOL    HW232306   6.003   3.602  11.964 -0.2826 -1.0098  0.5020
41901SOL     OW32307   3.825  12.460   2.510 -0.2478 -0.5355  0.5187
41901SOL    HW132308   3.822  12.529   2.576  0.7557  0.6847 -0.6318
41901SOL    HW232309   3.872  12.388   2.553  1.1740  0.5584  0.8986
41902SOL     OW32310   9.221   1.378   4.015 -0.2751  0.3418 -0.4292
41902SOL    HW132311   9.130   1.366   3.988 -0.1881  0.5360 -0.8218
41902SOL    HW232312   9.270   1.313   3.964 -0.3819 -0.8683  0.9699
41903SOL     OW32313   3.860   4.597   4.679 -0.7071  0.3559  0.4418
41903SOL    HW132314   3.855   4.585   4.773  1.9808 -1.1049  0.4906
41903SOL    HW232315   3.820   4.518   4.642  2.3638 -1.4211  0.5460
41904SOL     OW32316   3.647   8.531   8.030 -0.0865 -0.0073  0.5230
41904SOL    HW132317   3.646   8.487   7.945 -1.6495 -0.2261  0.6174
41904SOL    HW232318   3.635   8.624   8.009  0.2626  0.0259  0.4685
41905SOL     OW32319   9.442   4.983   7.648 -0.5015 -0.0252 -0.6452
41905SOL    HW132320   9.373   4.921   7.628  0.0473 -0.5268 -1.0057
41905SOL    HW232321   9.409   5.033   7.723 -0.1180 -2.1323  1.0278
41906SOL     OW32322   9.757   4.977   2.924 -0.4027  0.1758 -0.4168
41906SOL    HW132323   9.790   5.049   2.871 -1.0215  1.5111  0.9486
41906SOL    HW232324   9.673   4.954   2.884 -0.4500  0.5630 -0.5378
41907SOL     OW32325   7.321  11.582   0.206  0.1941  0.3939 -0.1653
41907SOL    HW132326   7.297  11.517   0.140 -3.6567  1.9204 -0.5430
41907SOL    HW232327   7.301  11.540   0.290  1.4229 -0.1991 -0.1510
41908SOL     OW32328   2.180   4.339   4.580 -0.7412  0.3947 -0.0822
41908SOL    HW132329   2.205   4.303   4.495 -0.7041  3.1859 -1.3646
41908SOL    HW232330   2.084   4.338   4.579 -0.7434 -0.6390  0.3619
41909SOL     OW32331   8.988   4.327  11.597 -0.2657  0.3404 -0.2307
41909SOL    HW132332   9.045   4.389  11.642  0.6356  0.3107 -1.2649
41909SOL    HW232333   8.941   4.282  11.667  1.7704 -0.3855  0.7576
41910SOL     OW32334   6.559   6.539   7.507  0.0642 -0.1307 -0.2410
41910SOL    HW132335   6.626   6.476   7.532 -1.8672 -2.1808  0.0187
41910SOL    HW232336   6.565   6.545   7.411 -0.2418 -1.3332 -0.3441
41911SOL     OW32337   0.500   0.421  10.931  0.2192 -0.1876  0.6083
41911SOL    HW132338   0.463   0.504  10.900  0.7941  0.5590  1.8929
41911SOL    HW232339   0.585   0.444  10.967  1.3186 -1.6650 -0.8894
41912SOL     OW32340  12.412  11.511   6.660 -0.1088  0.2869  0.2298
41912SOL    HW132341  12.451  11.461   6.732  0.9128  0.4272 -0.2150
41912SOL    HW232342  12.388  11.444   6.595 -1.9239  0.0602  1.0783
41913SOL     OW32343   4.794   8.012   6.937  0.4530  0.5658 -0.4259
41913SOL    HW132344   4.732   7.990   7.006 -0.0345 -3.5397 -1.9137
41913SOL    HW232345   4.878   7.980   6.970  0.0384 -2.4110 -1.9753
41914SOL     OW32346   5.429  10.172   1.257 -0.1577 -0.1922  0.0343
41914SOL    HW132347   5.336  10.155   1.271 -0.2075 -1.4410 -1.5346
41914SOL    HW232348   5.453  10.231   1.329 -2.2948  0.7195  0.0970
41915SOL     OW32349  11.184   1.138   7.954  0.5198 -0.5434  0.1357
41915SOL    HW132350  11.166   1.231   7.941  0.1980 -0.4139  1.3486
41915SOL    HW232351  11.214   1.107   7.869  0.7118  0.6884 -0.2693
41916SOL     OW32352   0.060  11.783   1.609 -0.3374 -0.2558  0.2655
41916SOL    HW132353  -0.032  11.810   1.617 -0.5924 -0.7644 -0.7956
41916SOL    HW232354   0.082  11.799   1.517  0.8537  0.5025  0.6613
41917SOL     OW32355   0.590   2.138   2.252  0.2204  0.4788  0.3148
41917SOL    HW132356   0.551   2.060   2.293  0.2238  1.6916  2.8099
41917SOL    HW232357   0.568   2.210   2.311  1.8798  2.0696 -0.8809
41918SOL     OW32358   9.584   9.943   2.738  0.2374  0.1226 -0.2041
41918SOL    HW132359   9.656   9.980   2.790 -0.1977  2.3170 -1.0463
41918SOL    HW232360   9.540  10.019   2.701 -1.3157 -1.2606 -1.3408
41919SOL     OW32361   8.316  10.143   1.065  0.1397  0.3068 -0.3542
41919SOL    HW132362   8.258  10.215   1.042  0.4561  1.0175  0.9852
41919SOL    HW232363   8.368  10.176   1.138  0.9681 -0.9490 -0.3376
41920SOL     OW32364   9.237   8.140   5.559  0.1780  0.1433 -0.2467
41920SOL    HW132365   9.283   8.209   5.608  0.1148  0.4104 -0.5598
41920SOL    HW232366   9.224   8.177   5.472 -1.5034  0.4436  0.1103
41921SOL     OW32367   5.412   0.546  12.094 -0.1570 -0.0248 -0.0672
41921SOL    HW132368   5.370   0.604  12.030  0.8122  0.9957  0.1759
41921SOL    HW232369   5.451   0.476  12.041 -0.3785  0.1634 -0.4871
41922SOL     OW32370   8.460   7.947   3.899  0.9183  0.1445  0.1381
41922SOL    HW132371   8.521   7.874   3.914 -1.4868 -1.7828  1.1344
41922SOL    HW232372   8.456   7.992   3.983  0.4285 -0.1905  0.2985
41923SOL     OW32373   2.295   6.016   3.963 -0.0588 -0.1033 -0.0087
41923SOL    HW132374   2.220   6.037   3.909 -0.8882 -1.2785  0.6317
41923SOL    HW232375   2.262   5.951   4.025  1.4391 -0.5209  0.3899
41924SOL     OW32376   5.217   5.034   2.908  0.2484 -0.3820 -0.0558
41924SOL    HW132377   5.222   5.000   2.819  1.2997 -0.1058 -0.1146
41924SOL    HW232378   5.180   5.122   2.898  2.1528  0.4128 -0.4494
41925SOL     OW32379   9.041   6.230   0.286 -0.0057 -0.4126 -0.2378
41925SOL    HW132380   9.001   6.288   0.351 -1.3828 -1.7605  0.1769
41925SOL    HW232381   9.031   6.142   0.322  1.4850 -0.9873 -1.1313
41926SOL     OW32382   4.814   5.388   6.959 -0.2454 -0.3853  0.0124
41926SOL    HW132383   4.830   5.297   6.986  0.2918 -0.7513 -1.4393
41926SOL    HW232384   4.866   5.441   7.020 -1.3313 -0.9706  1.4917
41927SOL     OW32385   7.468  12.382   9.042 -0.5863  0.0440  0.3154
41927SOL    HW132386   7.517  12.301   9.049  1.3863  1.0088 -1.1422
41927SOL    HW232387   7.428  12.379   8.955 -2.5554 -0.3755  1.1769
41928SOL     OW32388  12.162   4.937   1.091  0.2509  0.5091 -0.9141
41928SOL    HW132389  12.100   4.977   1.030  0.6338  1.6773 -0.5710
41928SOL    HW232390  12.119   4.943   1.176 -0.4448 -1.4617 -1.0923
41929SOL     OW32391  11.823   1.961   9.136 -0.4458 -0.2452 -0.0138
41929SOL    HW132392  11.845   1.891   9.198 -1.1732 -0.0001  0.5276
41929SOL    HW232393  11.885   2.031   9.154 -2.0678  0.7659  2.0513
41930SOL     OW32394   4.686   2.434   8.950  0.0895 -0.3690 -0.0291
41930SOL    HW132395   4.599   2.472   8.940  0.2694 -0.1594 -0.8741
41930SOL    HW232396   4.744   2.492   8.900  0.7562 -0.3571  0.7404
41931SOL     OW32397   0.763   6.329   1.588  0.1980 -0.1590  0.2493
41931SOL    HW132398   0.754   6.416   1.548 -0.1385  0.1847  1.0232
41931SOL    HW232399   0.673   6.300   1.601  0.3124 -0.9483 -0.6491
41932SOL     OW32400   7.087   0.032   5.468 -0.0461 -0.1297  0.3293
41932SOL    HW132401   7.106   0.067   5.381  0.5921  0.7039  0.8012
41932SOL    HW232402   6.998   0.063   5.487 -0.7030 -1.3764 -0.5371
41933SOL     OW32403   1.839   9.023   2.608  0.7042  0.2478  0.2905
41933SOL    HW132404   1.923   9.045   2.649  0.5364  0.9226  0.2745
41933SOL    HW232405   1.813   8.941   2.651  0.7011  0.7572  1.2931
41934SOL     OW32406   3.284   5.969  10.541 -0.0826 -0.1790  0.2175
41934SOL    HW132407   3.263   6.041  10.600 -0.6206 -0.2877  0.1674
41934SOL    HW232408   3.205   5.957  10.488 -0.1588 -1.0819  0.5125
41935SOL     OW32409   0.208  11.019   0.115  0.3451  0.1845 -0.6740
41935SOL    HW132410   0.289  10.967   0.108  0.4572  0.2270  0.1425
41935SOL    HW232411   0.182  11.010   0.207  0.9871  2.4946 -0.1997
41936SOL     OW32412   4.995   6.384   1.300  0.3948  0.7923  0.5417
41936SOL    HW132413   5.059   6.379   1.371  0.1138 -1.2693  0.7253
41936SOL    HW232414   5.043   6.423   1.227  1.9625 -0.8723  0.6221
41937SOL     OW32415   0.607   6.055   9.149  0.3906 -0.2293 -0.2308
41937SOL    HW132416   0.666   6.069   9.222  0.8662 -0.0069 -0.6504
41937SOL    HW232417   0.627   6.126   9.088 -0.9987  0.4409  0.0570
41938SOL     OW32418  11.144   7.126   3.195 -0.0288  0.1142 -0.5104
41938SOL    HW132419  11.215   7.103   3.255  0.3221  0.4392 -0.7967
41938SOL    HW232420  11.187   7.174   3.125 -0.4779 -0.0326 -0.8890
41939SOL     OW32421  10.036   3.407   6.634  0.3162  0.2776  0.3289
41939SOL    HW132422   9.982   3.486   6.637  1.7589  1.2690  0.8830
41939SOL    HW232423  10.019   3.364   6.718  0.9701  0.9908  0.8353
41940SOL     OW32424   8.689   3.434  10.441 -0.0408 -0.2377  0.2715
41940SOL    HW132425   8.619   3.455  10.379  1.2041 -1.1639 -1.5121
41940SOL    HW232426   8.734   3.359  10.402  0.8046 -0.8621  2.3126
41941SOL     OW32427   3.657   4.696   3.870  0.5347  0.2447  0.1684
41941SOL    HW132428   3.600   4.714   3.945 -0.0954 -0.6966 -0.0683
41941SOL    HW232429   3.659   4.778   3.821  0.1871  0.5866  0.7185
41942SOL     OW32430  12.029   6.122   9.255  0.2018 -0.0541  0.0261
41942SOL    HW132431  12.017   6.142   9.162 -1.4147 -2.1197 -0.2866
41942SOL    HW232432  11.978   6.188   9.301 -1.2873 -0.6250 -0.7305
41943SOL     OW32433   5.717   0.767   4.057  0.4417  0.0998  0.3113
41943SOL    HW132434   5.682   0.854   4.038  1.8727  0.5812 -0.1917
41943SOL    HW232435   5.684   0.747   4.145 -0.8928  0.6130 -0.0451
41944SOL     OW32436   6.594  12.121   7.737 -0.0747  0.6207  0.1598
41944SOL    HW132437   6.637  12.129   7.822  0.8444  0.6141 -0.2962
41944SOL    HW232438   6.578  12.027   7.727 -0.7266  0.6810  0.5796
41945SOL     OW32439  10.657   4.968   1.752  0.1206 -0.0476  0.4268
41945SOL    HW132440  10.563   4.948   1.749  0.0824 -0.2252  2.1017
41945SOL    HW232441  10.669   5.016   1.833  1.4926 -0.0025  0.2228
41946SOL     OW32442   8.026  12.640   9.733  0.0938  0.0763 -0.4368
41946SOL    HW132443   8.035  12.728   9.696  1.2946  0.2309  0.1937
41946SOL    HW232444   8.102  12.592   9.700  0.9792  0.0965  1.4463
41947SOL     OW32445   1.136   0.979   0.932 -0.1614  0.1786 -0.4445
41947SOL    HW132446   1.171   1.043   0.994 -0.0757  0.6344 -0.9551
41947SOL    HW232447   1.108   0.906   0.987 -0.3143  0.6748  0.1546
41948SOL     OW32448   7.754   7.276   4.798 -0.2137 -0.2957 -0.0144
41948SOL    HW132449   7.727   7.345   4.738  0.8197 -0.3977 -0.6375
41948SOL    HW232450   7.676   7.224   4.813 -0.3599 -0.6620 -1.8299
41949SOL     OW32451  10.278   3.445   2.932  0.3005 -0.1633 -0.4310
41949SOL    HW132452  10.359   3.395   2.945  1.1297  0.9453 -1.1215
41949SOL    HW232453  10.306   3.524   2.886 -0.7396  1.5424  1.6750
41950SOL     OW32454   3.723   7.533   2.236 -0.4310  0.2761 -0.3911
41950SOL    HW132455   3.733   7.598   2.166  2.9581 -1.5540 -1.8226
41950SOL    HW232456   3.709   7.451   2.189 -0.4539 -0.6680  1.2258
41951SOL     OW32457   6.501   2.909  11.548  0.4639  0.3173  0.5185
41951SOL    HW132458   6.574   2.940  11.494 -0.4973  0.0516 -0.9838
41951SOL    HW232459   6.495   2.816  11.528 -0.1696  0.2990  0.7930
41952SOL     OW32460  10.635  11.497   0.215  0.2922 -0.0065  0.0188
41952SOL    HW132461  10.552  11.536   0.241 -0.4771 -1.3467 -0.3312
41952SOL    HW232462  10.647  11.524   0.124 -0.4333 -0.8924 -0.3458
41953SOL     OW32463  11.030   3.105   1.583 -0.0879  0.6051 -0.0613
41953SOL    HW132464  11.061   3.148   1.503 -0.8376  2.3066  0.5104
41953SOL    HW232465  11.071   3.019   1.582  1.3739  1.2716 -1.3587
41954SOL     OW32466   7.048   1.342   0.463 -0.5271  0.5085  0.7586
41954SOL    HW132467   7.022   1.279   0.530  0.8150  0.0209  0.8473
41954SOL    HW232468   7.084   1.288   0.393 -2.3213  0.9811 -0.5836
41955SOL     OW32469   0.596   3.947   1.720  0.4612  0.5904 -0.5568
41955SOL    HW132470   0.568   4.016   1.780  1.6415  1.7841 -1.3383
41955SOL    HW232471   0.617   3.992   1.639  3.6151 -0.2925 -0.3550
41956SOL     OW32472  12.639   0.971  11.646 -0.3568 -0.3859  0.4328
41956SOL    HW132473  12.594   1.050  11.614 -0.1830 -0.9930 -1.4462
41956SOL    HW232474  12.572   0.921  11.691 -0.3153  1.1306  2.3065
41957SOL     OW32475   7.183  10.249   7.440 -0.2711 -0.7702  0.2261
41957SOL    HW132476   7.088  10.245   7.434 -0.5105  0.9292  1.8466
41957SOL    HW232477   7.201  10.258   7.534  1.1651  3.1088 -0.2389
41958SOL     OW32478   0.233   7.343   9.116 -0.9362  0.4725  0.4878
41958SOL    HW132479   0.169   7.369   9.182 -2.3137 -0.1400 -0.5562
41958SOL    HW232480   0.193   7.369   9.033  1.1259  2.0233 -0.1037
41959SOL     OW32481  12.240   3.675  10.859  0.7914  0.0190 -0.7266
41959SOL    HW132482  12.184   3.653  10.784  1.9817 -0.9652 -1.3587
41959SOL    HW232483  12.220   3.767  10.877  0.7155  0.3849 -2.4794
41960SOL     OW32484   5.540   9.852   9.393 -0.1645  0.0774  0.2809
41960SOL    HW132485   5.502   9.847   9.305  0.4266 -1.2975  0.0662
41960SOL    HW232486   5.523   9.941   9.422 -1.5355  0.1659 -0.7027
41961SOL     OW32487   7.014  10.907   5.863  0.5243 -0.0047  0.6943
41961SOL    HW132488   7.105  10.930   5.878  0.7752  0.0831 -0.8045
41961SOL    HW232489   7.014  10.864   5.777 -0.8895  0.4193  0.4516
41962SOL     OW32490   2.129   2.574   2.599 -0.0118 -0.0256 -0.6591
41962SOL    HW132491   2.047   2.547   2.640  1.7031 -2.8431  1.2835
41962SOL    HW232492   2.179   2.614   2.670  1.7055 -1.8615 -0.7469
41963SOL     OW32493  10.105   3.792   2.806  0.3368 -0.3082  0.0155
41963SOL    HW132494  10.066   3.828   2.727 -0.5455 -1.2002  0.0367
41963SOL    HW232495  10.193   3.765   2.779 -0.4853 -2.0325 -1.0860
41964SOL     OW32496   2.855   2.031  11.915  0.3446 -0.2857  0.0497
41964SOL    HW132497   2.949   2.047  11.906  0.1852  1.0847  0.5208
41964SOL    HW232498   2.847   1.982  11.997  0.5251  1.2845  1.0498
41965SOL     OW32499  12.223   0.755   8.448 -0.0493 -0.1468  0.0139
41965SOL    HW132500  12.190   0.729   8.533  2.2041  0.2745  1.0855
41965SOL    HW232501  12.182   0.840   8.431  0.2882  0.2578  1.1823
41966SOL     OW32502   1.270   4.669  12.650  0.1662 -0.3726 -0.0534
41966SOL    HW132503   1.180   4.657  12.680 -0.0036 -0.7745 -0.6830
41966SOL    HW232504   1.263   4.668  12.554  0.9256 -1.1942 -0.1167
41967SOL     OW32505   2.095   8.625   2.741  0.3214  0.1888 -0.3884
41967SOL    HW132506   2.171   8.683   2.744 -0.5948  1.4183 -0.0817
41967SOL    HW232507   2.050   8.649   2.659  0.2764 -0.5322 -0.5759
41968SOL     OW32508   6.959   7.470   0.522  0.1997  0.0834 -0.3720
41968SOL    HW132509   7.005   7.539   0.474 -0.9337 -0.0506 -1.7195
41968SOL    HW232510   6.995   7.388   0.486  0.1238 -0.0275 -0.1962
41969SOL     OW32511   5.986   2.149  10.515  0.3287  0.0987 -0.3811
41969SOL    HW132512   5.896   2.126  10.537  0.8310 -3.1001 -1.1064
41969SOL    HW232513   6.023   2.068  10.480  2.5021  2.2127 -3.4199
41970SOL     OW32514   4.351   8.435  12.761  0.2001  0.0773  0.3271
41970SOL    HW132515   4.263   8.471  12.747  0.1387 -0.2161 -0.0692
41970SOL    HW232516   4.410   8.506  12.737  0.0992 -0.3556 -1.3611
41971SOL     OW32517   0.862   7.932  10.968 -0.4103  0.4280 -0.2010
41971SOL    HW132518   0.854   7.960  10.877  1.1521  1.3052 -0.0912
41971SOL    HW232519   0.794   7.982  11.014  0.2373  1.6608 -0.5424
41972SOL     OW32520   1.698   0.433   2.714 -0.2869 -0.0476 -0.6907
41972SOL    HW132521   1.674   0.350   2.757  1.0148  0.1305  0.4702
41972SOL    HW232522   1.662   0.501   2.771 -0.7391  0.2005 -1.2619
41973SOL     OW32523   3.839   1.004   1.570 -0.1950  0.3488 -0.1600
41973SOL    HW132524   3.763   1.054   1.600 -0.0124  0.4226  0.1907
41973SOL    HW232525   3.803   0.920   1.542 -0.1730 -0.5805  2.2992
41974SOL     OW32526   4.030  10.596   8.000 -0.5760  0.4763  0.1026
41974SOL    HW132527   3.958  10.585   8.062 -0.5854  1.0590  0.2036
41974SOL    HW232528   4.109  10.596   8.054 -0.4814 -0.2896 -0.0200
41975SOL     OW32529   6.149   5.937  12.568 -0.1001  0.2608  0.0305
41975SOL    HW132530   6.117   5.892  12.490  0.6328  0.9329 -0.6791
41975SOL    HW232531   6.150   6.029  12.544 -0.0613  0.4981  0.9100
41976SOL     OW32532   7.861   6.233   2.541  0.0889 -0.4508 -0.0007
41976SOL    HW132533   7.805   6.311   2.545  0.7758  0.0614 -0.1592
41976SOL    HW232534   7.800   6.160   2.533 -0.6062  0.0063  0.9174
41977SOL     OW32535   7.494   6.018   8.903  0.3531  0.1764  0.1379
41977SOL    HW132536   7.399   6.027   8.890 -0.1984 -0.7971  2.8540
41977SOL    HW232537   7.519   6.099   8.948  0.2876 -0.5543  1.5687
41978SOL     OW32538   9.389   8.759   8.394  0.3882 -0.3281 -0.2011
41978SOL    HW132539   9.388   8.853   8.412 -1.7604 -0.2421 -0.5185
41978SOL    HW232540   9.347   8.719   8.470  2.7337 -1.2496  0.6979
41979SOL     OW32541   1.653   7.624   8.733  0.0141 -0.1276 -0.2831
41979SOL    HW132542   1.747   7.643   8.737 -0.4383  2.2889  0.5898
41979SOL    HW232543   1.612   7.695   8.783 -2.3529 -0.6415 -1.3538
41980SOL     OW32544   1.881   7.784   5.023 -0.0308  0.1099  0.6209
41980SOL    HW132545   1.813   7.850   5.008  1.2867  1.4990  0.5230
41980SOL    HW232546   1.930   7.780   4.941 -0.1540 -1.0999  0.5871
41981SOL     OW32547  10.412   4.487  10.837 -0.0779 -0.2161 -0.2668
41981SOL    HW132548  10.323   4.508  10.807  0.7603  2.0807 -1.3883
41981SOL    HW232549  10.466   4.496  10.758  2.0631  4.8443  1.4053
41982SOL     OW32550   1.122   4.695   8.384 -0.0199  0.3845 -0.0508
41982SOL    HW132551   1.144   4.690   8.477  0.5241  0.0416 -0.1919
41982SOL    HW232552   1.041   4.747   8.381 -0.4168 -0.1766  0.6641
41983SOL     OW32553   2.400   2.357   3.808  0.3883  0.0432 -0.2471
41983SOL    HW132554   2.400   2.315   3.722 -0.5319 -1.2066  0.3197
41983SOL    HW232555   2.353   2.439   3.795  1.2293  0.3949 -1.1615
41984SOL     OW32556   4.297   4.142   4.768  0.8519 -0.0218  0.0738
41984SOL    HW132557   4.203   4.144   4.784  1.0513  1.1523  1.4384
41984SOL    HW232558   4.306   4.133   4.674 -0.6277 -0.1003 -0.0805
41985SOL     OW32559  11.456  10.486  12.389  0.4497  0.1826  0.0932
41985SOL    HW132560  11.474  10.553  12.323  1.0164  0.1587  0.2175
41985SOL    HW232561  11.376  10.443  12.358  0.4688  0.4577 -0.3525
41986SOL     OW32562   2.326   0.634   4.268  0.3851 -0.1244  0.3023
41986SOL    HW132563   2.236   0.631   4.300  0.2968  0.5736  0.1296
41986SOL    HW232564   2.334   0.558   4.211 -0.3406  0.2538 -0.3184
41987SOL     OW32565  12.047   8.884   5.741 -0.1061 -0.1646 -0.0571
41987SOL    HW132566  12.052   8.890   5.646  0.2827  2.8292  0.0476
41987SOL    HW232567  11.957   8.857   5.759 -0.2765 -0.4641 -1.2597
41988SOL     OW32568   0.768   1.095   5.491 -0.4314  0.3736 -0.5799
41988SOL    HW132569   0.768   1.104   5.587  1.3272 -1.0591 -0.3831
41988SOL    HW232570   0.712   1.166   5.460  0.2391  1.8855  1.4235
41989SOL     OW32571   5.006   1.377   4.463  0.5872 -0.0938 -0.3904
41989SOL    HW132572   4.990   1.327   4.383 -1.5121  0.3954 -0.3372
41989SOL    HW232573   4.938   1.348   4.523  1.4655  0.3502  0.8569
41990SOL     OW32574   6.587   3.353   8.548  0.0226  0.2659  0.0007
41990SOL    HW132575   6.620   3.304   8.473  0.7000 -0.7790  0.9407
41990SOL    HW232576   6.622   3.306   8.624 -0.9333  1.0834  0.9734
41991SOL     OW32577   5.095   3.241   6.977  0.1155 -0.0716 -0.1376
41991SOL    HW132578   5.175   3.256   6.926 -0.2247 -0.1577 -0.7110
41991SOL    HW232579   5.025   3.236   6.911 -0.0194 -2.6864  0.0711
41992SOL     OW32580  12.003   6.142   0.612  0.4307 -0.3942  0.4373
41992SOL    HW132581  12.018   6.184   0.528  1.1627 -0.6614  0.4202
41992SOL    HW232582  11.984   6.050   0.590 -0.6653 -0.1935  0.4991
41993SOL     OW32583   4.138  10.429   3.766 -0.2171  0.1414  0.5759
41993SOL    HW132584   4.122  10.342   3.802 -1.4612  0.9769  2.1494
41993SOL    HW232585   4.166  10.412   3.676  0.7471 -1.9208  1.1832
41994SOL     OW32586   5.904  10.212   1.187  0.3262 -0.5407  0.1273
41994SOL    HW132587   5.837  10.268   1.148  1.9841  1.1235 -0.4924
41994SOL    HW232588   5.897  10.228   1.281  0.8738  0.9320 -0.0425
41995SOL     OW32589  10.338   7.425   9.074 -0.1667  0.4398  0.0649
41995SOL    HW132590  10.297   7.453   9.156  0.6908  0.1964  0.5873
41995SOL    HW232591  10.420   7.474   9.070 -0.5195  0.9852 -1.0130
41996SOL     OW32592  11.025   2.401   3.767 -0.2658  0.1544 -0.5858
41996SOL    HW132593  11.068   2.457   3.702  0.1742  1.8228  1.0564
41996SOL    HW232594  11.062   2.429   3.851 -1.6910 -1.1046  0.5111
41997SOL     OW32595   7.246   1.466  12.531  0.4106 -0.3034  0.0777
41997SOL    HW132596   7.275   1.557  12.521  0.8301 -0.4769 -0.2852
41997SOL    HW232597   7.215   1.441  12.443  0.9423 -0.7371  0.0104
41998SOL     OW32598   6.230   6.312   4.577 -0.4139 -0.1113  0.4174
41998SOL    HW132599   6.303   6.345   4.629 -0.6810 -0.0004  0.7294
41998SOL    HW232600   6.267   6.295   4.491 -0.1510  0.5159  0.4007
41999SOL     OW32601   9.264  11.755  11.820  0.3173  0.1665 -0.1036
41999SOL    HW132602   9.274  11.734  11.727 -0.5683 -0.3058 -0.1025
41999SOL    HW232603   9.186  11.707  11.847  0.9423 -0.2489  1.0576
42000SOL     OW32604   6.021   4.722  12.112 -0.0634 -0.3774 -0.1379
42000SOL    HW132605   6.013   4.817  12.111 -0.3958 -0.3968 -1.7166
42000SOL    HW232606   6.025   4.699  12.205 -1.5793  1.0353  0.3226
42001SOL     OW32607   0.693   2.050   8.791 -0.0709  0.5182 -0.1112
42001SOL    HW132608   0.669   2.032   8.882 -1.2708  2.4673  0.0199
42001SOL    HW232609   0.767   2.111   8.797  1.0933 -0.7832 -0.5063
42002SOL     OW32610   5.792   6.668   3.518  0.0580  0.8983 -0.2403
42002SOL    HW132611   5.842   6.716   3.452 -1.3404  0.7162 -1.4756
42002SOL    HW232612   5.852   6.598   3.547  1.1739  1.8003 -0.3060
42003SOL     OW32613   1.376   7.233   8.360 -0.5681  0.1098  0.4640
42003SOL    HW132614   1.457   7.275   8.328 -0.9512  1.3102  1.0152
42003SOL    HW232615   1.319   7.230   8.283  0.3444 -1.6954 -0.1925
42004SOL     OW32616   8.012   9.864   4.936  0.4362 -0.3785 -0.2698
42004SOL    HW132617   8.023   9.825   4.850 -0.3803 -2.0715  0.3457
42004SOL    HW232618   7.937   9.924   4.926 -1.1281 -2.2426 -0.2584
42005SOL     OW32619  10.171   9.838   9.558 -0.1209  0.0886 -1.0482
42005SOL    HW132620  10.159   9.891   9.637  0.1142 -2.0998  0.5654
42005SOL    HW232621  10.182   9.901   9.488  2.2137  2.2267  1.0376
42006SOL     OW32622   2.757   0.993   2.172  0.1999  0.3435 -0.4201
42006SOL    HW132623   2.754   1.005   2.077  2.5530  0.0983 -0.5779
42006SOL    HW232624   2.745   0.899   2.184 -0.3339  0.4045 -0.4364
42007SOL     OW32625   9.210  10.658   3.904 -0.0719 -0.1214 -0.4163
42007SOL    HW132626   9.118  10.632   3.910 -0.6764  2.0205  0.3320
42007SOL    HW232627   9.244  10.644   3.993  0.8130 -2.3772 -1.0378
42008SOL     OW32628   9.545   7.728   4.982  0.6824  0.4956 -0.4622
42008SOL    HW132629   9.488   7.736   5.059  0.7183 -0.9135 -0.2625
42008SOL    HW232630   9.491   7.682   4.918  0.2986  2.5431 -1.6838
42009SOL     OW32631   4.961  12.415  11.455  0.5075  0.0116  0.0289
42009SOL    HW132632   4.900  12.378  11.391 -0.2106  0.4525  0.4559
42009SOL    HW232633   4.978  12.504  11.423  1.3730 -0.2873 -0.3909
42010SOL     OW32634   4.025   3.299   9.872 -0.5727 -0.0187 -0.1552
42010SOL    HW132635   4.119   3.311   9.859 -0.5579  0.4469  0.3803
42010SOL    HW232636   4.009   3.325   9.963 -1.3460  0.6572 -0.4707
42011SOL     OW32637   0.173   9.423   0.490  0.6926 -0.2713  0.1424
42011SOL    HW132638   0.192   9.342   0.537  1.7334  0.7148  1.4837
42011SOL    HW232639   0.240   9.484   0.519  0.9613  0.6245 -2.1121
42012SOL     OW32640  12.717   3.708   1.129 -0.3802 -0.1267 -0.3399
42012SOL    HW132641  12.777   3.747   1.192  0.7936  0.1018 -1.5489
42012SOL    HW232642  12.759   3.721   1.044 -3.0955  1.9211 -1.5277
42013SOL     OW32643  10.028   2.143   9.571 -0.2027 -0.2151  0.1923
42013SOL    HW132644   9.937   2.113   9.568 -0.7469  1.4126 -0.7788
42013SOL    HW232645  10.034   2.207   9.500  1.8835 -0.7428 -0.1729
42014SOL     OW32646   8.541   1.571  11.823  0.3083  0.2278 -0.2717
42014SOL    HW132647   8.613   1.590  11.763  2.0735 -1.8346  1.0534
42014SOL    HW232648   8.576   1.591  11.910  0.0049 -2.5344  0.5793
42015SOL     OW32649   0.686   0.314   1.989 -0.2587 -0.2511 -0.4229
42015SOL    HW132650   0.617   0.286   2.050  0.1271  0.2088  0.2382
42015SOL    HW232651   0.738   0.235   1.974  0.8277  0.0408  1.4404
42016SOL     OW32652   0.218   6.845  11.808 -0.0666 -0.0145  0.6796
42016SOL    HW132653   0.190   6.810  11.724  1.7294  0.4722 -0.1627
42016SOL    HW232654   0.233   6.938  11.792  1.3334 -0.1152  1.2227
42017SOL     OW32655   1.620  12.214   0.921  0.7600 -0.3136 -0.0554
42017SOL    HW132656   1.650  12.282   0.981  1.9327  0.2027 -1.1656
42017SOL    HW232657   1.548  12.256   0.872  3.1216  1.1985 -2.5541
42018SOL     OW32658   7.576  10.353   1.560  0.1791 -0.5539  0.0932
42018SOL    HW132659   7.661  10.310   1.552  0.6195  0.4540 -0.9190
42018SOL    HW232660   7.522  10.312   1.492  1.0568  1.4427 -1.9361
42019SOL     OW32661   7.013   9.599   3.421 -0.0475 -0.4284 -0.5186
42019SOL    HW132662   6.983   9.565   3.336 -2.6680  1.4631 -0.4612
42019SOL    HW232663   7.053   9.683   3.400  1.9525 -1.2133 -0.1110
42020SOL     OW32664   2.571   0.586   5.459  0.5418  0.5830 -0.5033
42020SOL    HW132665   2.529   0.527   5.522  0.1425  0.5689 -0.7812
42020SOL    HW232666   2.659   0.599   5.494  0.1045  1.1364  0.4482
42021SOL     OW32667  10.757   5.517   3.659  0.3062 -0.4963 -0.0057
42021SOL    HW132668  10.844   5.534   3.696 -0.1769  0.7245  0.6328
42021SOL    HW232669  10.700   5.509   3.735 -0.2527 -0.6637 -0.4354
42022SOL     OW32670  10.127   8.359   4.075  0.3509 -0.4642 -0.8239
42022SOL    HW132671  10.033   8.380   4.077  0.3428 -0.5307  0.6459
42022SOL    HW232672  10.171   8.443   4.082  0.3288 -0.5675  2.0957
42023SOL     OW32673  12.602   0.915   2.206 -0.1603 -0.3369 -0.1085
42023SOL    HW132674  12.622   0.823   2.190  2.0082 -0.1129  0.9648
42023SOL    HW232675  12.677   0.948   2.257 -0.9321  1.9875 -0.3442
42024SOL     OW32676   4.350   6.682   0.740  0.9353 -0.0117 -0.4543
42024SOL    HW132677   4.297   6.611   0.776  1.8574  0.0316  1.0846
42024SOL    HW232678   4.424   6.689   0.800  2.2229  0.5292 -2.0362
42025SOL     OW32679   6.015   5.559  12.545 -0.5174 -0.1208 -0.3547
42025SOL    HW132680   6.095   5.605  12.570  2.2986 -2.3432 -4.1173
42025SOL    HW232681   6.012   5.483  12.604 -0.1455  0.2111  0.1037
42026SOL     OW32682   4.357   4.582  11.937  0.2400  0.0347  0.0479
42026SOL    HW132683   4.264   4.598  11.923  0.5747  1.3602 -0.8762
42026SOL    HW232684   4.369   4.593  12.032 -0.5516 -0.2724  0.1899
42027SOL     OW32685   2.066   8.184   1.849  0.1127 -0.1631  0.3274
42027SOL    HW132686   2.139   8.244   1.866 -0.0532  0.5467 -1.2614
42027SOL    HW232687   2.109   8.100   1.829  0.3129 -1.5284  5.1835
42028SOL     OW32688  11.492  11.481   3.755 -0.1502 -0.1659  0.0393
42028SOL    HW132689  11.585  11.488   3.734 -0.5493  0.8970 -1.6833
42028SOL    HW232690  11.456  11.425   3.686 -0.7442 -0.8226  0.8655
42029SOL     OW32691   7.192   4.052  11.054 -0.2084 -0.0263  0.8192
42029SOL    HW132692   7.189   4.070  11.148 -0.3275 -0.2904  0.8668
42029SOL    HW232693   7.233   4.129  11.016 -1.3133  0.6411  0.9451
42030SOL     OW32694   6.715   8.770  10.594  0.0838  0.1289  0.2273
42030SOL    HW132695   6.796   8.725  10.617 -0.7851 -1.0521  1.0988
42030SOL    HW232696   6.684   8.727  10.515 -0.4191 -0.3979  0.7021
42031SOL     OW32697   3.378   2.481   8.048  0.0405 -0.0469 -0.3669
42031SOL    HW132698   3.402   2.574   8.051 -2.5239  0.6794 -0.3222
42031SOL    HW232699   3.375   2.454   8.139  1.9042 -0.5492 -0.4099
42032SOL     OW32700   7.218   5.158   1.839  0.5206  0.1539  0.2589
42032SOL    HW132701   7.149   5.139   1.903  0.5651  0.5336  0.4199
42032SOL    HW232702   7.286   5.202   1.889  0.5579  0.4464 -0.0448
42033SOL     OW32703   3.974   9.234  10.979 -0.1756 -0.0621 -0.6325
42033SOL    HW132704   3.909   9.212  10.912 -0.7966 -1.0218  0.2663
42033SOL    HW232705   3.986   9.153  11.029 -0.2475  0.7947  0.8455
42034SOL     OW32706   4.506   3.763   9.030  0.2683 -0.3710  0.1617
42034SOL    HW132707   4.564   3.694   9.061  1.3898  1.1174  1.6258
42034SOL    HW232708   4.435   3.765   9.093  0.1363 -0.3235  0.0124
42035SOL     OW32709   7.555   5.277  10.576 -0.3047  0.3139  0.3345
42035SOL    HW132710   7.605   5.313  10.649  1.0240  0.5533 -0.6593
42035SOL    HW232711   7.551   5.183  10.593 -0.6342  0.4588  1.0751
42036SOL     OW32712   2.211   8.496   2.990 -0.3181  0.4550 -0.3708
42036SOL    HW132713   2.147   8.425   2.981  1.2408 -1.0923  0.0121
42036SOL    HW232714   2.209   8.542   2.907 -0.6126 -0.7498 -1.0564
42037SOL     OW32715   1.623   9.668  10.985 -0.3329  0.3536 -0.0994
42037SOL    HW132716   1.553   9.605  10.967  1.2777 -1.1331 -1.4845
42037SOL    HW232717   1.646   9.653  11.077 -1.3539  0.3883  0.1707
42038SOL     OW32718   4.016   2.851   9.558  0.0463  0.3720 -0.0425
42038SOL    HW132719   4.098   2.882   9.596  0.0898 -0.2460  0.3776
42038SOL    HW232720   4.029   2.757   9.545  0.2141  0.6331 -2.0711
42039SOL     OW32721   4.900   2.685   8.069  0.6965  0.4450  0.2845
42039SOL    HW132722   4.827   2.708   8.127 -0.9577  2.1187 -2.2610
42039SOL    HW232723   4.900   2.590   8.067 -1.2073  0.3953  0.6895
42040SOL     OW32724  10.961   7.382   2.292  0.5120  0.2537 -0.2774
42040SOL    HW132725  10.945   7.306   2.236  2.7961 -1.0083  0.6083
42040SOL    HW232726  11.033   7.354   2.349 -0.7714  1.9229  2.3576
42041SOL     OW32727   4.218   2.827   5.380 -0.2084 -0.7006  0.2171
42041SOL    HW132728   4.164   2.901   5.406 -0.3893 -0.9461  0.5468
42041SOL    HW232729   4.160   2.770   5.330 -0.3648 -1.1449  0.8835
42042SOL     OW32730   3.594  11.060   8.552  0.0711 -0.4842  0.3095
42042SOL    HW132731   3.664  11.111   8.512 -1.3101  1.2658 -0.0207
42042SOL    HW232732   3.602  11.079   8.646 -0.1925  0.0089  0.2316
42043SOL     OW32733   8.905   5.331  10.259 -0.1367 -0.4407  0.0954
42043SOL    HW132734   8.983   5.376  10.227  0.2657 -0.3293  1.1701
42043SOL    HW232735   8.936   5.281  10.335 -0.9563 -1.0183  0.0611
42044SOL     OW32736   6.415   7.259   4.773 -0.3348  0.0453 -0.3800
42044SOL    HW132737   6.378   7.308   4.700  0.7108 -0.5088 -1.3146
42044SOL    HW232738   6.508   7.281   4.772  0.5859 -3.2740 -2.0237
42045SOL     OW32739   2.888   4.944   5.605  0.3706 -0.0901  0.5882
42045SOL    HW132740   2.820   4.931   5.672  0.6485 -1.2624  0.6722
42045SOL    HW232741   2.960   4.888   5.633  1.3010  0.9677  0.3705
42046SOL     OW32742  11.368   0.147   4.723 -0.0148 -0.3790 -0.2997
42046SOL    HW132743  11.346   0.224   4.776 -0.0147 -0.4880 -0.1405
42046SOL    HW232744  11.431   0.179   4.659  1.0419 -0.5372  0.6332
42047SOL     OW32745   3.820   6.266   7.595  0.3218 -0.1436 -0.3182
42047SOL    HW132746   3.846   6.216   7.518  1.4895  0.1695 -0.1375
42047SOL    HW232747   3.757   6.209   7.640  2.3837 -1.9872  0.4518
42048SOL     OW32748   6.420   4.535   4.655 -0.0498  0.1657 -0.4270
42048SOL    HW132749   6.373   4.516   4.736 -1.9346 -0.3659 -1.5898
42048SOL    HW232750   6.374   4.609   4.616  1.6015  1.2350 -0.4490
42049SOL     OW32751   3.006   6.373   7.470  0.8886 -0.6074 -0.2158
42049SOL    HW132752   3.016   6.466   7.449  2.1118 -0.9209 -1.0938
42049SOL    HW232753   2.958   6.372   7.552  0.9203  0.8072 -0.1649
42050SOL     OW32754   8.134   8.449   4.003  0.2071 -0.1765  0.2010
42050SOL    HW132755   8.175   8.473   3.920 -0.2075  0.7482  0.2566
42050SOL    HW232756   8.137   8.529   4.056  1.5228 -1.0589  1.5356
42051SOL     OW32757   1.849   0.666   0.795 -0.6022  0.1989 -0.0908
42051SOL    HW132758   1.767   0.715   0.791 -0.1220  0.9645 -2.8621
42051SOL    HW232759   1.905   0.716   0.854 -1.9853 -0.2434  1.7078
42052SOL     OW32760  11.929   6.452  11.301  0.0851  0.1189  0.2417
42052SOL    HW132761  11.974   6.392  11.361  1.2944 -1.7206 -2.3098
42052SOL    HW232762  11.890   6.394  11.236 -0.8323  2.0452 -0.9832
42053SOL     OW32763   1.694   8.460   3.756  0.3146  0.4432 -0.6843
42053SOL    HW132764   1.729   8.435   3.670  1.8985  0.5928 -0.1263
42053SOL    HW232765   1.747   8.536   3.782 -0.2560  0.5056  0.3489
42054SOL     OW32766  11.612  12.781  10.060 -0.1672  0.5170  0.3407
42054SOL    HW132767  11.531  12.781  10.111 -1.2199  1.2644 -1.2242
42054SOL    HW232768  11.588  12.824   9.978  1.5690 -0.1925 -0.5929
42055SOL     OW32769   0.122   3.122   9.748  0.3285  0.5715 -0.2127
42055SOL    HW132770   0.162   3.065   9.682 -0.8655  1.4330 -1.7447
42055SOL    HW232771   0.162   3.208   9.733 -0.9277  1.0809 -0.7280
42056SOL     OW32772   6.620  12.603   5.050 -0.2117  0.0170 -0.4701
42056SOL    HW132773   6.557  12.532   5.057 -0.7646  0.2470 -2.6391
42056SOL    HW232774   6.576  12.670   4.999  1.2770  0.7922 -0.7930
42057SOL     OW32775   4.608   1.114  10.540  0.0446  0.3485 -0.0961
42057SOL    HW132776   4.666   1.084  10.470  1.2455  0.6412  0.7256
42057SOL    HW232777   4.591   1.206  10.520 -0.0898  0.2743 -0.3171
42058SOL     OW32778   9.244   9.086   4.299  0.6281 -0.6613  0.1357
42058SOL    HW132779   9.330   9.093   4.258  1.2043 -2.1740  1.0126
42058SOL    HW232780   9.187   9.055   4.229  0.8307  0.0572 -0.3703
42059SOL     OW32781   2.240   2.527   0.797 -0.7322  0.4397  0.0856
42059SOL    HW132782   2.190   2.472   0.856  1.2848 -0.5819  0.9331
42059SOL    HW232783   2.276   2.596   0.852 -0.9020  0.9697 -0.4468
42060SOL     OW32784   4.830  10.008  12.381 -0.5530  0.2210 -0.2412
42060SOL    HW132785   4.845   9.984  12.472 -1.6216 -0.2869 -0.1899
42060SOL    HW232786   4.770  10.082  12.384  0.0083  0.6940 -0.5135
42061SOL     OW32787  12.701   4.444   1.438  0.5447  0.2096 -0.0873
42061SOL    HW132788  12.774   4.460   1.377  0.7835  1.6301  0.5403
42061SOL    HW232789  12.623   4.447   1.382  0.7872  1.1456 -0.3984
42062SOL     OW32790  12.064   7.721   2.975 -0.2173  0.2218  0.3034
42062SOL    HW132791  12.096   7.647   3.026  0.4188 -0.5932 -1.2304
42062SOL    HW232792  12.133   7.787   2.983 -0.9028  0.7980  1.8880
42063SOL     OW32793  12.059   2.937   9.449  0.4817  0.8829  0.4805
42063SOL    HW132794  12.063   2.974   9.361 -2.6613  0.6068  0.0973
42063SOL    HW232795  11.967   2.915   9.462  1.3880 -2.7860  2.3224
42064SOL     OW32796   2.610   4.849  11.390 -0.1898 -0.2630  0.3745
42064SOL    HW132797   2.669   4.801  11.333 -1.9233  1.0868 -2.9078
42064SOL    HW232798   2.531   4.795  11.395 -0.3813  0.0398  0.7516
42065SOL     OW32799   5.442  11.316   9.582 -0.0862 -0.2061  0.7268
42065SOL    HW132800   5.514  11.254   9.592 -1.0558 -1.2919  1.2188
42065SOL    HW232801   5.378  11.271   9.527  0.0023  1.1260 -0.5382
42066SOL     OW32802   0.285   6.838  11.085  0.4601  0.3291  0.6847
42066SOL    HW132803   0.234   6.771  11.131 -0.7677  1.2677  0.7276
42066SOL    HW232804   0.352   6.864  11.149  1.7572 -1.6855  0.2457
42067SOL     OW32805   9.269   2.970   2.615  0.3541  0.2646  0.3117
42067SOL    HW132806   9.303   2.881   2.620  1.4374  0.6882  0.6429
42067SOL    HW232807   9.284   2.997   2.525  2.2953  0.9651  0.7948
42068SOL     OW32808   3.741  11.543   9.042 -0.0399  0.2550 -0.6632
42068SOL    HW132809   3.814  11.528   9.102 -0.0045 -0.2140 -0.8137
42068SOL    HW232810   3.758  11.629   9.003 -1.1459  1.5386  1.5181
42069SOL     OW32811   0.359   8.149   7.981  0.1872  0.1633 -0.3381
42069SOL    HW132812   0.328   8.225   8.030  0.2865  0.5748 -0.9154
42069SOL    HW232813   0.454   8.157   7.982  0.1764  0.4360 -1.0103
42070SOL     OW32814   3.304   9.142   2.112 -0.1607  0.2091 -0.8951
42070SOL    HW132815   3.348   9.063   2.081 -2.2284 -0.8007 -1.4018
42070SOL    HW232816   3.250   9.171   2.038  0.3706  1.9773 -0.6357
42071SOL     OW32817   1.246   4.556   5.564  0.3862 -0.2123 -0.2969
42071SOL    HW132818   1.304   4.483   5.545 -0.1120 -0.6772 -0.0598
42071SOL    HW232819   1.225   4.547   5.657  1.4264  1.0384  0.1003
42072SOL     OW32820  10.580   2.823   0.671 -0.1716  0.2148 -0.4664
42072SOL    HW132821  10.622   2.740   0.652  0.7850  0.4578  0.4605
42072SOL    HW232822  10.649   2.889   0.657 -1.6086  1.2186 -3.9199
42073SOL     OW32823   6.068   6.020   3.927  0.0194 -0.1734  0.3865
42073SOL    HW132824   6.129   6.094   3.931 -0.7474  0.5069 -0.2348
42073SOL    HW232825   6.065   5.997   3.834 -0.3889 -0.4496  0.4677
42074SOL     OW32826   7.332  11.769   3.721 -0.3840 -0.6604  0.1005
42074SOL    HW132827   7.345  11.702   3.654 -0.2798 -0.3981 -0.1413
42074SOL    HW232828   7.302  11.846   3.673 -0.3674 -0.4883  0.3609
42075SOL     OW32829  11.860   3.425   3.366 -0.2037  0.0905 -0.0920
42075SOL    HW132830  11.860   3.514   3.333  0.2999  0.3279  0.5362
42075SOL    HW232831  11.771   3.393   3.349 -1.1085  1.4710  1.7258
42076SOL     OW32832  11.873   6.523   0.615 -0.1933 -0.0321 -0.3822
42076SOL    HW132833  11.830   6.438   0.603  0.9155 -0.7859  0.6864
42076SOL    HW232834  11.890   6.528   0.709 -1.4168  1.9860 -0.2298
42077SOL     OW32835   0.332   5.925   7.123  0.3531  0.2985  0.3513
42077SOL    HW132836   0.334   5.934   7.218 -0.9295 -2.5553  0.7649
42077SOL    HW232837   0.243   5.950   7.098  0.7533  1.2613 -0.1645
42078SOL     OW32838   2.798   8.471   6.968  0.0040  0.0036 -0.0042
42078SOL    HW132839   2.875   8.503   7.015  0.7334 -1.7534  0.0917
42078SOL    HW232840   2.833   8.431   6.889 -0.8320 -0.6499 -0.0571
42079SOL     OW32841   4.382   8.845   2.978 -0.1230  0.1042  0.1607
42079SOL    HW132842   4.348   8.831   2.889  1.3755 -0.1530 -0.3952
42079SOL    HW232843   4.378   8.759   3.018  1.1174 -0.2165 -0.3699
42080SOL     OW32844   1.990   8.302   1.079  0.6874 -0.1720 -0.1130
42080SOL    HW132845   2.041   8.312   1.159  0.3089  0.9099  0.0074
42080SOL    HW232846   1.912   8.253   1.106  1.5500 -1.7134 -0.2725
42081SOL     OW32847  11.820  11.017   1.818  0.3129  0.2408  0.0764
42081SOL    HW132848  11.875  11.072   1.762 -0.2622 -0.4445 -1.2293
42081SOL    HW232849  11.820  11.060   1.903  1.8170  0.9395 -0.2511
42082SOL     OW32850  12.027   3.359  11.434  0.2691 -0.2758 -0.2454
42082SOL    HW132851  11.999   3.371  11.343  1.1597  1.5308 -0.3350
42082SOL    HW232852  12.029   3.264  11.446  1.4119 -0.6161 -2.5318
42083SOL     OW32853   0.010  12.680   7.332 -0.3162 -0.8410  0.4860
42083SOL    HW132854  -0.067  12.709   7.284  0.2854 -1.2675 -0.7778
42083SOL    HW232855   0.084  12.699   7.274  0.7811  1.2350  2.3846
42084SOL     OW32856   2.467   1.088   0.198 -0.2957 -0.3402  0.0302
42084SOL    HW132857   2.485   1.154   0.131  0.8280  0.5698  1.1761
42084SOL    HW232858   2.414   1.022   0.153 -1.9139  1.5744 -1.0489
42085SOL     OW32859  10.273  12.229   5.969  0.0109  0.3110  0.3037
42085SOL    HW132860  10.262  12.141   5.933  0.7795 -0.6045  2.1779
42085SOL    HW232861  10.196  12.241   6.025  1.1249 -0.2661  2.0566
42086SOL     OW32862   4.412  12.236   2.165 -0.6381  0.0852 -0.2549
42086SOL    HW132863   4.465  12.156   2.168  1.9050  1.6671  1.3081
42086SOL    HW232864   4.427  12.271   2.077  1.1946  0.5773  0.1957
42087SOL     OW32865   0.266   3.540   7.583 -0.4931  0.1913 -0.5026
42087SOL    HW132866   0.256   3.597   7.660  2.5345  1.3064 -0.7898
42087SOL    HW232867   0.316   3.465   7.615  2.3981  1.5093 -1.5833
42088SOL     OW32868  12.711  12.173   3.479 -0.1428 -0.1065 -0.1273
42088SOL    HW132869  12.625  12.191   3.439  0.3172 -0.4562 -1.3220
42088SOL    HW232870  12.729  12.081   3.456  0.7666  0.1106 -0.3221
42089SOL     OW32871  11.338  10.606  10.952 -0.4213 -0.3568  0.6289
42089SOL    HW132872  11.284  10.540  10.994 -0.2929 -0.9329 -0.0794
42089SOL    HW232873  11.427  10.574  10.961  0.1326  1.6041  3.6605
42090SOL     OW32874   4.699   6.852   8.833  0.0443  0.1205 -0.4116
42090SOL    HW132875   4.732   6.891   8.752 -2.8300  0.6504 -1.4145
42090SOL    HW232876   4.746   6.899   8.902  1.8375  0.3419 -1.6945
42091SOL     OW32877   1.583   2.973   3.617  0.2870 -0.5730  0.9584
42091SOL    HW132878   1.578   3.052   3.563 -2.2088 -0.0174  1.8971
42091SOL    HW232879   1.661   2.986   3.671  2.1806 -0.6148 -1.5757
42092SOL     OW32880   6.827  12.031  10.093 -0.5689  1.1691 -0.1470
42092SOL    HW132881   6.733  12.021  10.111 -0.4545 -0.2920 -0.2659
42092SOL    HW232882   6.862  11.943  10.103  0.7362  1.6407 -0.4895
42093SOL     OW32883   4.764  12.000   6.302  0.3073 -0.2459  0.4810
42093SOL    HW132884   4.702  12.071   6.314  0.5418  0.7467 -3.0898
42093SOL    HW232885   4.754  11.946   6.381 -0.7988  2.9626  2.7560
42094SOL     OW32886   8.991   9.637   8.129  0.2641  0.2964  0.6698
42094SOL    HW132887   9.024   9.548   8.117 -1.2897 -0.2990  0.5862
42094SOL    HW232888   8.952   9.637   8.216  1.7629  1.4318  1.3954
42095SOL     OW32889   2.476   6.490   5.547  0.3050 -0.1952  0.4956
42095SOL    HW132890   2.407   6.548   5.514 -0.1960 -0.0412  1.7436
42095SOL    HW232891   2.557   6.524   5.509 -0.2937 -0.5048 -1.1733
42096SOL     OW32892   8.342  12.094  10.279  0.1539 -0.2790 -0.1815
42096SOL    HW132893   8.421  12.076  10.229 -0.5287 -0.6135 -1.1743
42096SOL    HW232894   8.355  12.183  10.312  0.9332 -0.3241 -0.3443
42097SOL     OW32895   4.919  10.541   2.155  0.0244  0.0522  0.0534
42097SOL    HW132896   4.977  10.504   2.222  0.0561 -0.5779 -0.3193
42097SOL    HW232897   4.931  10.485   2.079 -1.4566 -0.4061  0.1333
42098SOL     OW32898   9.371   6.444  12.480  0.1009 -0.3824 -0.7345
42098SOL    HW132899   9.458   6.435  12.520  0.7103 -1.5237 -2.2129
42098SOL    HW232900   9.388   6.489  12.397 -0.8975  0.3805 -0.5446
42099SOL     OW32901   1.864   0.892  12.326 -0.1657 -0.7537 -0.3990
42099SOL    HW132902   1.850   0.805  12.364  0.1900 -0.6869 -0.1112
42099SOL    HW232903   1.858   0.952  12.400 -0.5688 -0.5162 -0.6241
42100SOL     OW32904  10.371  12.118   7.887 -0.0190  0.4815 -0.5010
42100SOL    HW132905  10.457  12.156   7.902  0.0557 -0.4127  1.6972
42100SOL    HW232906  10.318  12.191   7.854  1.1133  1.4953 -0.1580
42101SOL     OW32907  10.234  10.918   9.970  0.2216 -0.1589 -0.1305
42101SOL    HW132908  10.193  10.984  10.026 -1.3626 -1.4991  0.3486
42101SOL    HW232909  10.269  10.969   9.896  0.8976  1.4343  1.2352
42102SOL     OW32910   5.152   5.350   2.150 -0.7197 -0.7777 -0.3533
42102SOL    HW132911   5.228   5.391   2.191 -1.7769  1.3976 -0.4116
42102SOL    HW232912   5.127   5.280   2.210 -0.0134 -0.0567  0.8176
42103SOL     OW32913  11.277   6.900   4.767 -0.1546 -0.0056 -0.1986
42103SOL    HW132914  11.366   6.934   4.760 -0.4743  0.4256 -2.8621
42103SOL    HW232915  11.223   6.960   4.717 -2.3179  0.6383  2.6094
42104SOL     OW32916   9.098  12.038   5.821  0.0436 -0.0959  0.6282
42104SOL    HW132917   9.038  12.057   5.893 -2.1428 -0.2093 -1.0632
42104SOL    HW232918   9.134  11.952   5.842  1.4197  0.9540  2.8006
42105SOL     OW32919   1.806   2.418   9.379 -0.0741  0.0362  0.3528
42105SOL    HW132920   1.857   2.337   9.370 -0.0513  0.1576 -0.8552
42105SOL    HW232921   1.761   2.427   9.295  0.8279  1.8846  0.0063
42106SOL     OW32922   4.391   6.126  12.616  0.0290  0.1023  0.2908
42106SOL    HW132923   4.407   6.217  12.591 -0.9559  0.2141  0.0503
42106SOL    HW232924   4.312   6.129  12.670  1.8377 -0.1863  3.1684
42107SOL     OW32925   3.803  11.110   2.455 -0.3994 -0.0895 -0.0360
42107SOL    HW132926   3.855  11.137   2.380 -1.0867  0.3879 -0.3424
42107SOL    HW232927   3.756  11.189   2.482  0.7870  0.0919  1.6867
42108SOL     OW32928   8.389   8.565   2.445  0.1232  0.6579 -0.0119
42108SOL    HW132929   8.341   8.509   2.506 -1.0143  0.7971 -0.7383
42108SOL    HW232930   8.475   8.525   2.437 -0.8378 -1.3315 -0.9448
42109SOL     OW32931   8.237  12.331   1.877  0.1740 -0.0469  0.5950
42109SOL    HW132932   8.292  12.323   1.799 -1.2572 -0.3459 -0.4112
42109SOL    HW232933   8.191  12.415   1.865 -0.2729 -0.2357  0.9697
42110SOL     OW32934   9.440   5.900   2.208  0.1668 -0.4352 -0.4208
42110SOL    HW132935   9.409   5.908   2.298  0.1457 -0.1135 -0.4575
42110SOL    HW232936   9.506   5.830   2.212 -1.2725 -1.8600 -0.5240
42111SOL     OW32937   8.073   3.021  12.003  0.0470  0.4866  0.6413
42111SOL    HW132938   8.164   3.046  12.016  0.0728  2.1636 -2.0148
42111SOL    HW232939   8.022   3.092  12.042 -0.1883 -0.3988  2.0320
42112SOL     OW32940   7.810   6.401   3.779 -0.3175  0.5446 -0.2466
42112SOL    HW132941   7.873   6.470   3.797  0.1440 -0.0337  0.3870
42112SOL    HW232942   7.776   6.421   3.691  1.7322  0.1169 -1.2085
42113SOL     OW32943  11.953   2.437   6.703 -0.2503  0.2072 -0.1546
42113SOL    HW132944  11.923   2.517   6.659 -0.9291 -0.6824 -1.3768
42113SOL    HW232945  11.931   2.367   6.642  0.1250 -0.9438  0.9933
42114SOL     OW32946   1.389   8.967  10.723 -0.2210  0.2033  0.0441
42114SOL    HW132947   1.297   8.965  10.746 -0.6288 -2.2333 -1.4284
42114SOL    HW232948   1.434   8.987  10.805 -1.9252 -1.1231  1.3658
42115SOL     OW32949   0.271   3.779  12.776  0.3074  0.1345 -0.5796
42115SOL    HW132950   0.280   3.685  12.791  0.7477  0.1950 -0.4385
42115SOL    HW232951   0.178   3.792  12.760  0.3510 -0.4497 -1.4048
42116SOL     OW32952   8.088  10.122   1.332  0.5766  0.4278  0.1483
42116SOL    HW132953   8.098  10.043   1.280 -0.1978 -0.2418  0.9935
42116SOL    HW232954   8.038  10.095   1.409 -1.3977  2.0977 -0.4438
42117SOL     OW32955   6.924   4.459   1.193  0.3171 -0.0535 -0.1128
42117SOL    HW132956   6.842   4.508   1.191 -1.2616 -2.5037 -1.5417
42117SOL    HW232957   6.924   4.416   1.278  1.0620  1.3309  0.6150
42118SOL     OW32958  12.554   7.597   1.249  0.2415  0.2464  0.3644
42118SOL    HW132959  12.513   7.680   1.274 -2.5754 -0.8532 -0.2069
42118SOL    HW232960  12.543   7.593   1.154  0.7842 -0.5823  0.3296
42119SOL     OW32961  11.618   2.883   4.538 -0.2652  0.6986 -0.5002
42119SOL    HW132962  11.604   2.818   4.470 -0.9334  1.9232 -1.5842
42119SOL    HW232963  11.672   2.950   4.496  0.1152  1.0260  0.4749
42120SOL     OW32964   4.900  10.250   0.956  0.7159 -0.2510  0.5129
42120SOL    HW132965   4.880  10.163   0.924  0.4401 -0.0356  0.0856
42120SOL    HW232966   4.974  10.279   0.903 -2.0422  1.5894 -2.6738
42121SOL     OW32967   9.627  11.879   1.055  0.5459  0.5602  0.2900
42121SOL    HW132968   9.659  11.944   1.118 -0.5790  0.7740  0.6698
42121SOL    HW232969   9.588  11.932   0.986  0.5881  0.2993  0.0690
42122SOL     OW32970  11.708   4.393   9.130  0.1864 -0.1217 -0.6269
42122SOL    HW132971  11.680   4.309   9.096 -0.5848 -0.0500 -0.1866
42122SOL    HW232972  11.748   4.373   9.215  0.1044 -0.0541 -0.5725
42123SOL     OW32973   6.469  11.656   3.501 -0.3566  0.4022 -0.4290
42123SOL    HW132974   6.420  11.616   3.429 -0.5822 -0.7030  0.3267
42123SOL    HW232975   6.429  11.621   3.580  2.0304 -1.0406  0.2331
42124SOL     OW32976  10.944   7.050  11.061  0.0744 -0.0208 -0.0695
42124SOL    HW132977  10.873   7.004  11.016  1.0214 -0.5809 -1.0520
42124SOL    HW232978  10.936   7.141  11.033  0.1701 -0.2197 -0.7603
42125SOL     OW32979   1.352   8.112   5.643  0.0693  0.3352  0.0456
42125SOL    HW132980   1.441   8.131   5.670  0.6600 -1.3806 -0.5748
42125SOL    HW232981   1.321   8.045   5.703  0.3598 -1.3797 -1.6271
42126SOL     OW32982   1.043   8.017   0.981 -0.3259  0.3034  0.6631
42126SOL    HW132983   1.102   7.956   0.938 -1.3133  0.2127 -0.6427
42126SOL    HW232984   0.973   8.032   0.917 -0.7485  1.8380  1.4297
42127SOL     OW32985   6.816   8.050   8.239 -0.5530 -0.2726 -0.3783
42127SOL    HW132986   6.855   7.975   8.193 -0.5434  0.4835 -1.6523
42127SOL    HW232987   6.888   8.112   8.249 -0.7132 -0.1582  0.0920
42128SOL     OW32988   6.030  11.809  11.932 -0.0231 -0.1429 -0.2355
42128SOL    HW132989   6.096  11.878  11.928 -1.0277  0.8099 -1.2950
42128SOL    HW232990   6.055  11.748  11.863  2.0386 -2.0403  2.0019
42129SOL     OW32991   4.784   7.018  10.828  0.0110  0.2569  0.2091
42129SOL    HW132992   4.868   7.058  10.806  0.2685 -1.3991 -2.1178
42129SOL    HW232993   4.756   7.064  10.907  1.9579  2.4945 -0.2849
42130SOL     OW32994   2.959   2.703   0.502 -0.6016  0.2138 -0.2849
42130SOL    HW132995   2.921   2.730   0.419 -2.2259  1.2620  0.7383
42130SOL    HW232996   3.043   2.748   0.507 -0.1274 -0.4641 -1.6595
42131SOL     OW32997  12.377  11.241   7.135  0.4868  0.0802 -0.2070
42131SOL    HW132998  12.331  11.259   7.053 -0.9099 -0.1634  0.4862
42131SOL    HW232999  12.344  11.307   7.196  0.1273 -0.8435  0.6340
42132SOL     OW33000   7.699   6.865   2.185 -0.3649 -0.7217  0.1232
42132SOL    HW133001   7.624   6.910   2.223  0.4343  1.6326 -0.8945
42132SOL    HW233002   7.675   6.852   2.093  0.3144 -0.3001 -0.1180
42133SOL     OW33003   0.107   5.753   1.637 -0.5330  0.9971  0.0458
42133SOL    HW133004   0.055   5.727   1.561 -1.6582 -0.9750  1.3887
42133SOL    HW233005   0.043   5.785   1.700  0.1912  0.9864  0.7971
42134SOL     OW33006   3.409   6.553   9.410 -0.3026 -0.3197 -0.5129
42134SOL    HW133007   3.467   6.500   9.355 -0.0911 -0.8363  0.1890
42134SOL    HW233008   3.412   6.641   9.371  1.4018 -0.1968 -0.1673
42135SOL     OW33009   8.525   6.914   7.373 -0.2823 -0.0097 -0.3308
42135SOL    HW133010   8.498   6.919   7.281  2.1197 -1.0162 -1.1565
42135SOL    HW233011   8.497   6.997   7.411  0.7905  1.4717 -2.5909
42136SOL     OW33012   6.108   0.682   4.938 -0.0880 -0.4266  0.0513
42136SOL    HW133013   6.092   0.589   4.925 -0.1815 -0.5140  0.7481
42136SOL    HW233014   6.076   0.700   5.027  1.1019 -0.0128  0.4288
42137SOL     OW33015   4.266   9.794  10.132  0.2912 -0.4730 -0.2031
42137SOL    HW133016   4.206   9.859  10.167 -0.7068 -1.9230  0.8995
42137SOL    HW233017   4.295   9.744  10.208 -0.0103 -2.1582 -1.1403
42138SOL     OW33018   1.227   1.116   1.144  0.2194 -0.5008 -0.0498
42138SOL    HW133019   1.151   1.174   1.151 -0.8731 -1.6016 -1.8432
42138SOL    HW233020   1.289   1.163   1.088 -0.2885 -0.6572 -0.7642
42139SOL     OW33021   2.445   7.343   8.116  0.3688 -0.0309 -0.6659
42139SOL    HW133022   2.411   7.310   8.199 -1.7692  2.6149 -0.3520
42139SOL    HW233023   2.535   7.368   8.136 -0.5496  2.0393  1.4318
42140SOL     OW33024   0.962   4.321   4.238  0.3656 -0.9259 -0.6720
42140SOL    HW133025   1.044   4.333   4.287  0.6783 -0.4221 -1.3053
42140SOL    HW233026   0.902   4.385   4.277  0.2213 -1.3818 -0.1221
42141SOL     OW33027   5.394  11.066  10.575 -0.4596  0.0705  0.3540
42141SOL    HW133028   5.321  11.128  10.572 -3.0261 -2.6821  0.6216
42141SOL    HW233029   5.354  10.982  10.554  2.4673 -1.7847  1.6259
42142SOL     OW33030   4.535  12.443   4.863  0.9146 -0.1768 -0.2438
42142SOL    HW133031   4.615  12.495   4.858  1.4149 -1.0230 -1.4399
42142SOL    HW233032   4.479  12.490   4.925  1.0156  2.2249 -1.8931
42143SOL     OW33033   5.245   9.846   8.485  0.7086  1.0336 -0.6193
42143SOL    HW133034   5.322   9.830   8.539  0.8352 -2.4469 -1.5790
42143SOL    HW233035   5.173   9.802   8.531  0.1575  0.7964 -1.6495
42144SOL     OW33036   0.090   5.822   6.402  0.1450 -0.3313  0.0618
42144SOL    HW133037   0.022   5.755   6.404  0.3945 -0.6019 -0.3712
42144SOL    HW233038   0.158   5.790   6.461  0.9137 -1.1776 -1.2298
42145SOL     OW33039   9.734   7.713   7.684  0.1156 -0.2495  0.0657
42145SOL    HW133040   9.811   7.766   7.663 -1.3849  0.9886 -2.7948
42145SOL    HW233041   9.671   7.775   7.720 -0.5251 -0.6864 -0.2880
42146SOL     OW33042   0.170   9.409   4.511 -0.5530 -0.1945 -0.2326
42146SOL    HW133043   0.209   9.472   4.572 -0.9192 -0.6718  0.5089
42146SOL    HW233044   0.128   9.463   4.444  0.7832  0.3387 -0.6945
42147SOL     OW33045   0.392   5.718   2.973  0.1387  0.0418 -0.6968
42147SOL    HW133046   0.379   5.756   3.060  0.4566  0.6690 -0.9169
42147SOL    HW233047   0.311   5.736   2.926 -0.2735 -0.8399 -0.3410
42148SOL     OW33048   4.723   4.795   2.418  0.2332 -0.5751  0.4630
42148SOL    HW133049   4.800   4.741   2.400  0.2863 -1.0274  1.8904
42148SOL    HW233050   4.649   4.736   2.401  0.0680  0.2811 -2.3311
42149SOL     OW33051   2.455   5.455   8.876 -0.1922  0.0975 -0.5537
42149SOL    HW133052   2.509   5.509   8.818 -0.7578  0.4071 -0.7958
42149SOL    HW233053   2.464   5.366   8.842  2.4619 -0.3887  1.0861
42150SOL     OW33054   3.505   2.568   8.931 -0.1809 -0.4779 -0.5880
42150SOL    HW133055   3.592   2.572   8.892  0.2255 -0.4768  0.2949
42150SOL    HW233056   3.502   2.481   8.973 -0.1005  0.0225  0.4934
42151SOL     OW33057   7.025   0.076   6.309  0.1281 -0.0743 -0.8669
42151SOL    HW133058   7.019  -0.017   6.333 -3.5305  0.0833 -0.5881
42151SOL    HW233059   7.008   0.077   6.215 -1.3439  0.3244 -0.6326
42152SOL     OW33060  11.374   9.127   5.081  0.1658 -0.1715 -0.0141
42152SOL    HW133061  11.339   9.148   4.994  1.6919  1.2971 -0.3308
42152SOL    HW233062  11.389   9.033   5.079 -3.9085 -1.0294  0.2775
42153SOL     OW33063  11.720   2.193   6.757 -0.1960 -0.3432 -0.0465
42153SOL    HW133064  11.794   2.166   6.703 -1.2259 -1.4480 -0.9553
42153SOL    HW233065  11.687   2.112   6.795 -0.3861  0.2514  1.1095
42154SOL     OW33066   5.093   9.263   1.683 -0.7908  0.4966 -0.3239
42154SOL    HW133067   5.043   9.215   1.617  2.1415  0.1393 -2.4872
42154SOL    HW233068   5.179   9.220   1.685  0.4902  2.8684  0.9400
42155SOL     OW33069   9.486   0.227   4.059 -0.8305  0.0798  0.0495
42155SOL    HW133070   9.478   0.303   4.001 -1.1905 -0.0376 -0.0542
42155SOL    HW233071   9.522   0.263   4.140  0.3546  0.1401 -0.4714
42156SOL     OW33072   1.210   6.891   9.445 -0.1811 -0.1100 -0.4139
42156SOL    HW133073   1.220   6.814   9.389  0.7603  1.0354 -1.8884
42156SOL    HW233074   1.185   6.962   9.385 -0.2991  0.9179  0.7910
42157SOL     OW33075   2.332  12.177   2.917  0.3413 -0.0518  0.3137
42157SOL    HW133076   2.360  12.131   2.996  3.5622  1.9381  0.5333
42157SOL    HW233077   2.295  12.259   2.949 -5.5288 -2.0682 -0.0491
42158SOL     OW33078   9.990   5.636  11.612  0.5564  0.0160  0.0239
42158SOL    HW133079   9.957   5.550  11.588  1.0370 -0.1362 -0.0972
42158SOL    HW233080  10.018   5.628  11.703 -3.1379  1.1207  1.4497
42159SOL     OW33081   0.037   9.783   9.880 -0.6675  0.6859 -0.1707
42159SOL    HW133082  -0.020   9.828   9.942 -0.2928  2.0414 -0.7848
42159SOL    HW233083   0.022   9.826   9.796  1.7272  1.5862 -0.2282
42160SOL     OW33084  12.237  11.303   6.897  0.5906 -0.5280 -0.1004
42160SOL    HW133085  12.190  11.386   6.904 -1.4641 -1.7962  3.1503
42160SOL    HW233086  12.179  11.247   6.847  0.5141 -0.9236  0.4293
42161SOL     OW33087  12.432   4.107  11.204 -0.5650  0.9432  0.2485
42161SOL    HW133088  12.459   4.168  11.273 -0.5914 -0.2123  1.3196
42161SOL    HW233089  12.442   4.021  11.244 -0.6575  0.2465 -1.1847
42162SOL     OW33090   7.749   0.341  10.503  0.0314 -0.2253 -0.6505
42162SOL    HW133091   7.843   0.338  10.521  0.3017  0.1588 -1.9033
42162SOL    HW233092   7.726   0.434  10.509 -0.2613 -0.3113 -0.4071
42163SOL     OW33093   4.455   8.478   9.369  0.5778 -0.2981 -0.0290
42163SOL    HW133094   4.542   8.453   9.400  0.6355  0.6374  0.6207
42163SOL    HW233095   4.434   8.414   9.302  1.8979 -0.3708 -0.4049
42164SOL     OW33096   6.318   9.492   1.665  0.1794 -0.6084  0.1629
42164SOL    HW133097   6.305   9.446   1.582 -1.1733 -0.2664  0.1616
42164SOL    HW233098   6.410   9.517   1.664  0.2920 -0.9925 -1.0322
42165SOL     OW33099   2.638   5.865   2.273  0.1055 -0.5125 -0.1563
42165SOL    HW133100   2.614   5.943   2.322  0.6477 -0.6245  0.2960
42165SOL    HW233101   2.634   5.794   2.337 -0.4665 -0.8775 -0.5836
42166SOL     OW33102  10.744   7.638  10.221  0.2925  0.4363 -0.3174
42166SOL    HW133103  10.665   7.662  10.269 -0.7943 -0.1782 -1.7226
42166SOL    HW233104  10.712   7.605  10.137  2.0417  0.0050 -0.8598
42167SOL     OW33105   4.485  10.980   1.987  0.5434 -0.6015 -0.2188
42167SOL    HW133106   4.534  11.060   1.971  0.5492 -0.4691  0.4365
42167SOL    HW233107   4.526  10.942   2.065  0.2140 -0.9783 -0.2269
42168SOL     OW33108   2.418   8.706  12.354 -0.0570  0.2704 -0.1884
42168SOL    HW133109   2.501   8.719  12.308  0.4877 -0.1658  0.6623
42168SOL    HW233110   2.352   8.738  12.292  0.8643  2.4471 -0.1399
42169SOL     OW33111   9.272   0.196   1.129  0.0888 -0.2138 -0.2343
42169SOL    HW133112   9.269   0.114   1.081 -0.1628 -0.6477  0.5100
42169SOL    HW233113   9.286   0.170   1.220  0.2144  0.5760 -0.0224
42170SOL     OW33114  10.837  11.248   0.938 -0.5322  0.4770  0.2629
42170SOL    HW133115  10.762  11.198   0.970 -0.6296  0.8507  0.6368
42170SOL    HW233116  10.798  11.328   0.902 -0.2350  1.3553  1.7845
42171SOL     OW33117   3.294   9.551   0.999 -0.0356 -0.1893  0.2227
42171SOL    HW133118   3.225   9.579   0.939  0.0480 -0.6216 -0.0755
42171SOL    HW233119   3.359   9.508   0.944  0.6694  0.5648  0.4562
42172SOL     OW33120  10.143  10.183   3.126  0.1164  0.4057  0.3703
42172SOL    HW133121  10.136  10.092   3.097  4.3426  0.2842 -0.8885
42172SOL    HW233122  10.168  10.177   3.218  0.9166  0.2306  0.1500
42173SOL     OW33123  12.114  11.293  11.932 -0.1512  0.0768  0.3595
42173SOL    HW133124  12.096  11.233  11.860 -1.1476 -0.5123  1.0652
42173SOL    HW233125  12.089  11.244  12.011  0.6378  0.8075  1.0902
42174SOL     OW33126   2.259  11.718   9.957  0.1275  0.3847 -0.8005
42174SOL    HW133127   2.234  11.771   9.882  0.5449  1.3756 -0.2672
42174SOL    HW233128   2.295  11.638   9.919 -1.0528  0.2148 -1.6111
42175SOL     OW33129   2.177  11.184   0.310  0.3351 -0.0603  0.0016
42175SOL    HW133130   2.188  11.197   0.404  1.3899  0.8275 -0.2115
42175SOL    HW233131   2.114  11.252   0.284  3.1098  2.5677 -0.5225
42176SOL     OW33132   5.818  11.816   8.073  0.0939  0.4732  0.0164
42176SOL    HW133133   5.839  11.873   7.999  1.0282  0.7547  0.4911
42176SOL    HW233134   5.842  11.866   8.150 -1.9416  0.6442  0.6087
42177SOL     OW33135   9.865   9.948   1.858  0.3045  0.0524 -0.1164
42177SOL    HW133136   9.837  10.038   1.876  0.0384 -0.0935  0.2081
42177SOL    HW233137   9.946   9.958   1.808  1.2402  0.4792  1.4135
42178SOL     OW33138   4.608   6.223   0.635  0.2969 -0.4288  0.7639
42178SOL    HW133139   4.618   6.133   0.665  2.4002 -0.3094  0.5460
42178SOL    HW233140   4.620   6.219   0.541  0.6413  0.1013  0.7785
42179SOL     OW33141  11.722   8.518   3.398  0.0097  0.1088  0.5358
42179SOL    HW133142  11.721   8.423   3.389  1.3169  0.1524 -0.3212
42179SOL    HW233143  11.774   8.549   3.324 -1.6337  1.6213 -0.0620
42180SOL     OW33144   8.193   7.277  12.166 -0.2632 -0.4066  0.3128
42180SOL    HW133145   8.195   7.371  12.186  1.8346 -0.4178  0.3151
42180SOL    HW233146   8.183   7.235  12.251  0.5522 -0.2264  0.5031
42181SOL     OW33147   5.393   0.386   9.577 -0.0651 -0.1537  0.0424
42181SOL    HW133148   5.385   0.331   9.499 -2.3257 -0.7333  0.6189
42181SOL    HW233149   5.330   0.349   9.639 -1.2981  2.7567  0.6702
42182SOL     OW33150   9.980  11.955   1.599 -0.1140  0.2947  0.1839
42182SOL    HW133151   9.975  12.049   1.617  0.4640 -0.0707  2.7207
42182SOL    HW233152  10.045  11.947   1.530 -0.4163  1.7676 -0.3113
42183SOL     OW33153   4.529  12.334  11.551  0.5583  0.0409  0.4936
42183SOL    HW133154   4.468  12.401  11.520  0.0718 -0.5004  0.2529
42183SOL    HW233155   4.596  12.382  11.599 -0.3503  0.5968  1.2182
42184SOL     OW33156   7.566   1.528   6.439  0.2315 -0.0671 -0.7126
42184SOL    HW133157   7.515   1.599   6.479 -0.2759 -1.0592  0.4755
42184SOL    HW233158   7.521   1.511   6.356  1.3290  2.0591 -1.8284
42185SOL     OW33159   3.341  10.094   1.327  0.4078  0.2279 -0.5992
42185SOL    HW133160   3.393  10.167   1.361  0.9775 -0.6733  0.5361
42185SOL    HW233161   3.383  10.016   1.362 -2.1968 -0.5322  1.1398
42186SOL     OW33162   2.373  12.382  12.551 -0.2537 -0.2015  0.7998
42186SOL    HW133163   2.404  12.446  12.487  1.8671 -1.3726  0.5627
42186SOL    HW233164   2.288  12.416  12.580 -1.6241  0.0926 -3.0404
42187SOL     OW33165  10.279  12.422   4.310  0.1290 -0.8775  0.2239
42187SOL    HW133166  10.332  12.347   4.336  0.7175 -0.2389  0.8947
42187SOL    HW233167  10.225  12.389   4.238 -0.5218 -2.3040  1.2952
42188SOL     OW33168   8.715  11.948   8.851 -0.5269  0.2819  0.4571
42188SOL    HW133169   8.633  11.928   8.807  0.1998  1.3721 -1.5034
42188SOL    HW233170   8.758  12.012   8.794  2.4220 -1.4544  0.5665
42189SOL     OW33171  10.061   4.756   2.805  0.2460  0.4926  0.6010
42189SOL    HW133172  10.015   4.692   2.859 -1.1156  1.0235  0.1002
42189SOL    HW233173  10.000   4.778   2.735  1.6622  0.4349 -0.7113
42190SOL     OW33174   0.735   7.851   3.043  0.0205  0.2117  0.1232
42190SOL    HW133175   0.722   7.946   3.049  0.3571  0.3569 -1.1565
42190SOL    HW233176   0.647   7.814   3.037 -0.1041  0.4589  0.4159
42191SOL     OW33177   1.002   8.980  12.229 -0.2048  0.0535 -0.1894
42191SOL    HW133178   0.973   8.910  12.171 -0.1303  0.7238 -1.0675
42191SOL    HW233179   0.922   9.016  12.266 -0.2414 -0.4992  0.2881
42192SOL     OW33180   9.890   5.424   7.597  0.1903  0.9701  0.5207
42192SOL    HW133181   9.873   5.413   7.691  0.7172  2.1733  0.7773
42192SOL    HW233182   9.844   5.504   7.574  0.8807  1.2213 -0.0266
42193SOL     OW33183   3.273   7.821   3.282 -0.7755  0.2883  0.0025
42193SOL    HW133184   3.306   7.731   3.272 -0.4320  0.5316 -1.2007
42193SOL    HW233185   3.282   7.839   3.375 -0.8824 -0.9369  0.2761
42194SOL     OW33186   9.772  12.032   0.483 -0.1377 -0.2767 -0.0376
42194SOL    HW133187   9.864  12.057   0.492 -0.5586  1.1166  0.9134
42194SOL    HW233188   9.773  11.938   0.470  1.3664 -0.5453  1.6313
42195SOL     OW33189  10.247   5.968   6.754 -0.4578  0.3415 -0.3182
42195SOL    HW133190  10.174   6.008   6.707  0.4384 -0.3752 -2.4306
42195SOL    HW233191  10.255   5.880   6.716  1.1902  0.2179  0.2113
42196SOL     OW33192   2.229   3.533   5.917 -0.2076 -0.1174 -0.4528
42196SOL    HW133193   2.182   3.453   5.937  0.4355 -0.4304 -0.1493
42196SOL    HW233194   2.162   3.601   5.916 -0.6208 -0.5000  0.2999
42197SOL     OW33195   2.213  11.712   8.381 -0.0234 -0.0530 -0.2957
42197SOL    HW133196   2.168  11.659   8.447  1.9501  0.0289  1.2069
42197SOL    HW233197   2.245  11.788   8.429  0.9283  0.3208 -1.4915
42198SOL     OW33198   1.496   3.739   9.863 -0.4103  0.0880 -0.2094
42198SOL    HW133199   1.589   3.737   9.843 -0.4842  1.3621 -0.7621
42198SOL    HW233200   1.460   3.805   9.804 -1.5548  0.0824  0.4508
42199SOL     OW33201   9.423   0.121  11.065 -0.2412 -0.5069  0.0960
42199SOL    HW133202   9.502   0.098  11.115 -0.2316 -3.6133 -1.0997
42199SOL    HW233203   9.445   0.099  10.974 -2.1731 -0.6050 -0.3906
42200SOL     OW33204   8.605  12.504   7.791  0.3028 -0.2660 -0.5378
42200SOL    HW133205   8.615  12.449   7.713 -0.5512 -0.8399 -0.2597
42200SOL    HW233206   8.510  12.512   7.802  0.4188  0.1864  0.1817
42201SOL     OW33207  12.059   9.551   4.831  0.5057  0.4015 -0.7131
42201SOL    HW133208  11.972   9.549   4.790 -1.7483  1.8415  3.4773
42201SOL    HW233209  12.077   9.459   4.852 -0.5840  0.2142 -0.5197
42202SOL     OW33210   7.793  11.051   7.946  0.6054  0.4572 -0.1858
42202SOL    HW133211   7.718  11.057   7.886  0.3753 -0.3574  0.0020
42202SOL    HW233212   7.810  10.957   7.952  0.1209  0.4516  1.6418
42203SOL     OW33213   8.867   2.396  10.143  0.3607 -0.2066  0.5893
42203SOL    HW133214   8.783   2.381  10.100  0.2997  0.9602  0.2546
42203SOL    HW233215   8.931   2.397  10.072  0.5665 -0.4337  0.7685
42204SOL     OW33216   3.043   6.971   8.775 -0.5080 -0.3034  0.0894
42204SOL    HW133217   3.041   6.972   8.680  0.6561 -0.1219  0.0597
42204SOL    HW233218   2.963   6.923   8.800  0.1892 -2.1338 -1.0119
42205SOL     OW33219   2.152  11.737   0.070  0.4105 -0.5948 -0.2985
42205SOL    HW133220   2.070  11.785   0.076  0.5508 -0.4298  0.4586
42205SOL    HW233221   2.131  11.659   0.020 -0.3447 -0.8509  0.4008
42206SOL     OW33222   1.711  11.713   6.090 -0.5852 -0.4437  0.3016
42206SOL    HW133223   1.793  11.666   6.076 -2.2723 -3.4303 -0.5053
42206SOL    HW233224   1.725  11.797   6.048  2.2779 -0.5313  0.8406
42207SOL     OW33225   7.835  11.578  12.347 -0.1485  0.2307  0.1076
42207SOL    HW133226   7.820  11.656  12.294  0.5902  0.2544 -0.0782
42207SOL    HW233227   7.748  11.551  12.376 -0.5941  0.0531 -1.3385
42208SOL     OW33228   2.335   7.956   8.321  0.0689  0.3221  0.0603
42208SOL    HW133229   2.343   7.964   8.226  1.5005  1.2286  0.2375
42208SOL    HW233230   2.344   7.862   8.338  0.4649  0.2272 -0.6471
42209SOL     OW33231   8.447   4.152  11.231  0.1730 -0.1154 -0.5589
42209SOL    HW133232   8.462   4.244  11.207 -2.2563  0.6778  0.6203
42209SOL    HW233233   8.362   4.131  11.192  0.5076 -1.7749 -0.4756
42210SOL     OW33234  11.692   7.670   7.978  0.2240 -0.3157  0.2053
42210SOL    HW133235  11.765   7.637   7.926 -0.9676 -2.3853 -0.3006
42210SOL    HW233236  11.621   7.607   7.962 -1.6875  1.5757  0.6777
42211SOL     OW33237   7.006   2.968   4.336  0.0446 -0.3893  0.0351
42211SOL    HW133238   7.037   3.016   4.259  2.8278 -0.6060  0.9222
42211SOL    HW233239   6.944   2.903   4.300  1.5130 -0.7275 -2.0863
42212SOL     OW33240   6.518  12.759   4.848  0.2919 -0.3422 -0.0287
42212SOL    HW133241   6.610  12.784   4.840  0.3955 -1.1568 -1.7788
42212SOL    HW233242   6.472  12.816   4.787 -0.4252  0.2170  1.0042
42213SOL     OW33243   7.424   6.747   3.708 -0.3208  0.2656 -0.6509
42213SOL    HW133244   7.413   6.684   3.779  0.2726  0.3657 -0.4677
42213SOL    HW233245   7.336   6.781   3.693 -0.3769  0.6179  0.3886
42214SOL     OW33246   0.301   3.680   7.809  0.2995  0.4799 -0.2705
42214SOL    HW133247   0.377   3.647   7.857 -0.4982 -3.0472 -1.1574
42214SOL    HW233248   0.232   3.686   7.875  0.5198  0.5671 -0.0478
42215SOL     OW33249   4.058   6.806   7.014  0.1667 -0.3664 -1.3219
42215SOL    HW133250   3.981   6.763   6.976 -0.5709 -0.0824 -0.2056
42215SOL    HW233251   4.069   6.886   6.963 -0.7603 -0.0258 -1.0081
42216SOL     OW33252   2.154   2.333   0.158 -0.8627  0.2460  0.5365
42216SOL    HW133253   2.177   2.404   0.096 -2.9532  0.5213  0.0186
42216SOL    HW233254   2.239   2.295   0.181  0.2686  2.2808  0.0777
42217SOL     OW33255   7.456   6.157   9.452 -0.0715 -0.2839  0.1499
42217SOL    HW133256   7.535   6.192   9.493 -0.0550  0.8642 -0.7766
42217SOL    HW233257   7.386   6.213   9.485 -0.7166 -2.0065  1.8560
42218SOL     OW33258   7.474   1.047   6.013  0.8404  0.1135  0.7813
42218SOL    HW133259   7.383   1.024   6.034  0.3839  0.8884 -0.2323
42218SOL    HW233260   7.506   0.973   5.961 -0.2951  1.1799 -1.6120
42219SOL     OW33261   9.828  11.734   1.324  0.1990  0.4076  0.3193
42219SOL    HW133262   9.871  11.749   1.240 -1.0345 -0.0195 -0.4091
42219SOL    HW233263   9.772  11.810   1.337  0.9068  0.8149  1.1164
42220SOL     OW33264   2.926   4.899   7.883  0.0900  0.0785  0.1245
42220SOL    HW133265   3.022   4.899   7.882  0.2265  3.5739 -0.9136
42220SOL    HW233266   2.903   4.918   7.974  0.3763 -0.5503  0.3336
42221SOL     OW33267   1.422   2.198   1.161  0.6166  0.4090 -0.2827
42221SOL    HW133268   1.389   2.122   1.113  0.5387  0.1831  0.1242
42221SOL    HW233269   1.395   2.273   1.107 -1.2951  0.2805  0.4224
42222SOL     OW33270   0.397   6.279   7.138 -0.2358  0.4632 -0.0560
42222SOL    HW133271   0.455   6.207   7.115 -0.1936 -0.5947  2.9729
42222SOL    HW233272   0.346   6.295   7.058  0.6400 -2.0371 -1.2133
42223SOL     OW33273   8.189   5.855   3.015 -0.1390 -0.1021 -0.3020
42223SOL    HW133274   8.141   5.931   3.047 -0.8488  0.5056 -2.6484
42223SOL    HW233275   8.279   5.869   3.044 -0.3764  1.3282 -0.2046
42224SOL     OW33276   0.573   5.800   4.639  0.1187  0.0547 -0.0217
42224SOL    HW133277   0.657   5.844   4.627  0.0090  0.1167 -0.5987
42224SOL    HW233278   0.569   5.780   4.732  2.0977 -2.5852 -0.3856
42225SOL     OW33279   1.239   1.889   2.600 -0.0825 -0.0709  0.3001
42225SOL    HW133280   1.222   1.981   2.579  0.3171  0.1318  0.8542
42225SOL    HW233281   1.314   1.865   2.545 -0.8230 -0.3680 -0.6038
42226SOL     OW33282  12.168   8.351   2.456 -0.7075  0.1215 -0.5691
42226SOL    HW133283  12.262   8.334   2.451 -0.7503  0.1044 -1.5149
42226SOL    HW233284  12.162   8.444   2.480 -0.4750 -0.3600  1.5774
42227SOL     OW33285   5.590   7.263   1.135 -0.5254  0.3182  0.7646
42227SOL    HW133286   5.663   7.232   1.082  0.5800  2.8236  0.7212
42227SOL    HW233287   5.525   7.292   1.071 -0.3993  0.6428  0.7817
42228SOL     OW33288   1.624   1.472   4.387 -0.6173 -0.2964  0.1783
42228SOL    HW133289   1.620   1.553   4.336  1.4346  0.7710  1.5948
42228SOL    HW233290   1.533   1.458   4.416 -0.9040  1.9332  0.5320
42229SOL     OW33291   5.673   4.364   2.249  0.2759 -0.4797 -0.5102
42229SOL    HW133292   5.635   4.442   2.209 -1.5566  0.5892  2.9714
42229SOL    HW233293   5.743   4.396   2.305  1.3193 -1.6667 -1.0872
42230SOL     OW33294   5.290   2.028  10.973  0.2214 -0.2905 -0.0150
42230SOL    HW133295   5.255   1.976  10.901  1.2623 -0.5934 -0.3155
42230SOL    HW233296   5.372   1.985  10.996  0.7953  0.8561  0.1418
42231SOL     OW33297   6.858   5.804   6.617  0.2460 -0.2698  0.0426
42231SOL    HW133298   6.823   5.744   6.684 -0.1115  1.2254  1.2462
42231SOL    HW233299   6.781   5.838   6.573  0.3422  0.5976  0.5305
42232SOL     OW33300   8.661   7.030   2.094 -0.1985 -0.6781 -0.5102
42232SOL    HW133301   8.695   6.949   2.055 -0.6543 -0.6625 -0.9585
42232SOL    HW233302   8.584   7.002   2.143 -0.0638 -0.5860 -0.2453
42233SOL     OW33303  12.282   1.931   3.505 -0.3588  0.7981  0.2487
42233SOL    HW133304  12.217   1.861   3.498  0.3588  0.2451 -1.2687
42233SOL    HW233305  12.239   1.998   3.559 -1.3369 -0.4794  1.1059
42234SOL     OW33306  11.002   9.988   4.395  0.1516  0.3480 -0.1359
42234SOL    HW133307  11.009   9.976   4.300  0.9211  0.4323 -0.0978
42234SOL    HW233308  10.952  10.068   4.405 -0.4370  0.0314 -0.4615
42235SOL     OW33309   8.942   6.545   4.777 -0.5399  0.0489 -0.5066
42235SOL    HW133310   8.943   6.542   4.681 -0.2825 -1.6824 -0.4794
42235SOL    HW233311   8.849   6.555   4.799 -0.5956  0.5218 -0.9319
42236SOL     OW33312  11.592  10.786   9.715 -0.0525 -0.4353  0.1542
42236SOL    HW133313  11.502  10.814   9.698  0.2497  0.7723  0.4019
42236SOL    HW233314  11.588  10.744   9.801 -0.5589 -1.3608 -0.3092
42237SOL     OW33315   1.988   4.932   3.000  0.0815 -0.0125  0.2305
42237SOL    HW133316   1.954   5.018   2.979  0.8482  0.1686 -0.3289
42237SOL    HW233317   1.926   4.895   3.063 -0.8558  0.4879 -0.3946
42238SOL     OW33318   9.218   5.480   6.380 -0.3231 -0.1456 -0.4810
42238SOL    HW133319   9.294   5.430   6.352 -1.0928 -2.6219  1.5566
42238SOL    HW233320   9.196   5.445   6.466 -1.5598  3.0774  0.6483
42239SOL     OW33321  10.101  11.822   6.710  0.7209  0.2635 -0.0059
42239SOL    HW133322  10.049  11.855   6.636  0.9178 -0.9324 -0.7115
42239SOL    HW233323  10.191  11.823   6.678  0.6863 -1.3584 -0.2431
42240SOL     OW33324  10.871  10.200  11.387  0.2989 -0.2472 -0.3890
42240SOL    HW133325  10.889  10.294  11.392  0.4047 -0.2519 -0.6563
42240SOL    HW233326  10.950  10.160  11.424 -0.4910 -0.2008  1.4680
42241SOL     OW33327   6.598   9.782   7.126 -0.5683 -0.0235 -0.3943
42241SOL    HW133328   6.512   9.812   7.096 -1.0734  0.3478  1.2795
42241SOL    HW233329   6.642   9.862   7.156 -1.0654 -0.5855  2.0571
42242SOL     OW33330   9.776  10.894   5.542  0.3271  0.1302 -0.5096
42242SOL    HW133331   9.791  10.822   5.481  1.4297  0.4175 -0.6061
42242SOL    HW233332   9.812  10.971   5.497  0.6073  0.4527  0.2546
42243SOL     OW33333   7.582  11.576   5.620  0.0724 -0.1566  0.0331
42243SOL    HW133334   7.577  11.483   5.641  1.1933 -0.2619 -0.1098
42243SOL    HW233335   7.672  11.589   5.590 -0.1519  0.9194 -0.2116
42244SOL     OW33336   1.344   6.955   6.184  0.1330 -1.0342 -0.2313
42244SOL    HW133337   1.294   6.874   6.174 -0.9847 -0.7815  2.4679
42244SOL    HW233338   1.298   7.018   6.129 -2.0385 -1.0770  1.3819
42245SOL     OW33339   4.017   9.419  12.593 -0.3435  0.1080  0.4333
42245SOL    HW133340   4.023   9.511  12.569  0.8009  0.7824  2.9944
42245SOL    HW233341   4.090   9.377  12.547  0.2995  0.8728  0.7396
42246SOL     OW33342   6.589  11.558   1.737 -0.1550 -0.1407 -0.2362
42246SOL    HW133343   6.556  11.644   1.707 -1.5064 -1.3795 -2.6176
42246SOL    HW233344   6.683  11.561   1.719 -0.0647  1.0364  0.2972
42247SOL     OW33345   3.911   1.475   9.338  0.1442  0.7212  0.6759
42247SOL    HW133346   3.880   1.529   9.410 -0.0097 -0.3054  1.3994
42247SOL    HW233347   3.844   1.485   9.270  0.2975  1.6985  0.6572
42248SOL     OW33348   0.928   6.102  11.899  0.0942 -0.1872 -0.3031
42248SOL    HW133349   0.854   6.104  11.838  0.1017  1.5350 -0.3173
42248SOL    HW233350   0.986   6.172  11.868  0.2863  0.4693  1.4209
42249SOL     OW33351   6.295   4.049   8.041  0.2627  0.0707 -0.5279
42249SOL    HW133352   6.261   4.031   8.129 -1.5571 -1.2675 -1.4194
42249SOL    HW233353   6.268   3.973   7.990  2.1804  0.3424 -2.0289
42250SOL     OW33354   3.288   8.999   3.769  0.5881 -0.2251 -0.5663
42250SOL    HW133355   3.323   9.037   3.689  1.9724 -2.2140 -0.9868
42250SOL    HW233356   3.352   8.932   3.794 -0.7949 -1.0195  1.0993
42251SOL     OW33357   6.414   3.262   9.195  0.3490 -0.0535 -0.3539
42251SOL    HW133358   6.346   3.328   9.188 -0.3538 -0.5744  1.2023
42251SOL    HW233359   6.427   3.232   9.105 -2.5382 -0.9463 -0.5952
42252SOL     OW33360   7.460   7.488   7.838 -0.1169  0.0168 -0.2455
42252SOL    HW133361   7.473   7.514   7.929  1.7803  2.6194 -1.1401
42252SOL    HW233362   7.367   7.500   7.822 -0.8377 -2.2290  1.7609
42253SOL     OW33363   7.747   5.675   5.308  0.5500  0.4478 -0.3473
42253SOL    HW133364   7.723   5.613   5.238 -0.3675 -0.4419  0.7150
42253SOL    HW233365   7.750   5.621   5.387  0.9042  1.5652  0.4126
42254SOL     OW33366   8.896   1.118   9.657 -0.1748 -0.3093  0.7956
42254SOL    HW133367   8.916   1.203   9.694  1.7473 -0.5782  0.5270
42254SOL    HW233368   8.958   1.109   9.584 -1.0410 -1.5047  0.1629
42255SOL     OW33369   9.451   0.461  11.728  0.1745 -0.2462 -0.1705
42255SOL    HW133370   9.451   0.478  11.822 -0.6896  0.7417 -0.3301
42255SOL    HW233371   9.526   0.509  11.694  0.5411 -0.6787  0.0188
42256SOL     OW33372   5.760   2.375  10.556  0.3283 -0.0915  0.2362
42256SOL    HW133373   5.806   2.436  10.498  1.1062 -1.8015 -1.0313
42256SOL    HW233374   5.776   2.408  10.644  1.0436  1.3001 -0.3830
42257SOL     OW33375   4.492   1.528   3.600 -1.0348 -0.1134 -0.0019
42257SOL    HW133376   4.485   1.620   3.576  0.2715 -0.2272 -0.9286
42257SOL    HW233377   4.566   1.525   3.661  0.3377 -0.7871 -1.6063
42258SOL     OW33378   1.740   2.090  11.385 -0.2220 -0.2304  0.5268
42258SOL    HW133379   1.829   2.119  11.407 -0.9543  2.5381  0.3188
42258SOL    HW233380   1.697   2.076  11.469  0.2723 -1.1050  0.6347
42259SOL     OW33381   1.785   7.662   6.599 -0.6115  0.7578 -0.3911
42259SOL    HW133382   1.799   7.580   6.551 -0.0031  0.0247  0.9966
42259SOL    HW233383   1.861   7.669   6.657 -1.1563  1.8058  0.2104
42260SOL     OW33384   9.404   6.486  11.801  0.3536  0.8686  0.4151
42260SOL    HW133385   9.358   6.541  11.864 -0.2011  1.0813 -0.1656
42260SOL    HW233386   9.457   6.547  11.750 -1.7129  1.1784 -1.5036
42261SOL     OW33387  10.316   1.622  12.158  0.2421 -0.4842  0.4907
42261SOL    HW133388  10.355   1.629  12.245  1.5526 -2.0665  0.0745
42261SOL    HW233389  10.389   1.603  12.100 -0.6287  0.4220 -0.9606
42262SOL     OW33390   5.844   8.404  11.721  0.0236  0.6049 -0.1024
42262SOL    HW133391   5.855   8.481  11.777  0.2952  0.4860  0.0105
42262SOL    HW233392   5.762   8.365  11.749 -0.7585  1.5552 -1.0033
42263SOL     OW33393  12.503   6.573   3.798  0.0512 -0.6846  0.6600
42263SOL    HW133394  12.441   6.612   3.736  1.4489  1.3441  0.4205
42263SOL    HW233395  12.453   6.563   3.879 -0.5554  1.1088  0.5434
42264SOL     OW33396   3.862   7.749  12.391  0.1812  0.2308 -0.1046
42264SOL    HW133397   3.889   7.769  12.302  0.3435  2.3236  0.3845
42264SOL    HW233398   3.771   7.780  12.396 -0.3410 -1.2098  0.0707
42265SOL     OW33399   3.782   5.277   5.696  0.2356  0.2221  0.3569
42265SOL    HW133400   3.796   5.188   5.728 -1.1462 -0.0038  0.3980
42265SOL    HW233401   3.860   5.325   5.723  0.1835 -0.5343  1.9784
42266SOL     OW33402   7.176   9.696   3.176 -0.1576  0.1586  0.2929
42266SOL    HW133403   7.215   9.663   3.096 -0.2981  0.6396  0.0218
42266SOL    HW233404   7.226   9.655   3.246 -0.2533 -0.5296 -0.0347
42267SOL     OW33405   1.224   9.952   6.119 -0.1793 -0.2167  0.0824
42267SOL    HW133406   1.211   9.998   6.035  1.4916  0.6566  0.2607
42267SOL    HW233407   1.176  10.006   6.183 -0.8995 -0.5186 -0.1874
42268SOL     OW33408   5.868   0.949   0.669  0.2371  0.3065  0.0246
42268SOL    HW133409   5.893   0.974   0.580  0.2930  0.4426  0.0798
42268SOL    HW233410   5.915   0.867   0.685 -0.7205 -0.3811 -0.5325
42269SOL     OW33411   0.316   7.867   5.016 -0.4772 -0.3644  0.1424
42269SOL    HW133412   0.317   7.777   5.049 -2.3324 -0.2609  0.5657
42269SOL    HW233413   0.224   7.885   4.998 -0.0483  1.2222 -0.6107
42270SOL     OW33414  10.509   3.056  10.598  0.5936 -0.1698 -0.1890
42270SOL    HW133415  10.604   3.052  10.588  0.6218  0.2833 -0.1269
42270SOL    HW233416  10.479   3.112  10.526  0.3566 -0.4591 -0.3165
42271SOL     OW33417   0.145  11.280   6.384  0.2448  0.0960 -0.3972
42271SOL    HW133418   0.219  11.325   6.426 -1.2327  2.0354  0.3057
42271SOL    HW233419   0.069  11.333   6.408 -1.1153 -0.5749 -2.8756
42272SOL     OW33420   0.175   3.099   0.607  0.2183  0.2581 -0.0661
42272SOL    HW133421   0.199   3.032   0.543  0.2152 -0.4409  0.6330
42272SOL    HW233422   0.218   3.179   0.576  0.5754 -0.1653 -0.6961
42273SOL     OW33423   6.157  11.324   7.520  0.6180 -0.0933  0.2265
42273SOL    HW133424   6.116  11.315   7.606 -0.7708  0.5916 -0.3324
42273SOL    HW233425   6.192  11.413   7.519 -2.0249  1.0530 -0.9381
42274SOL     OW33426   5.434  10.270   9.832  0.1685 -1.0273  0.4744
42274SOL    HW133427   5.501  10.332   9.803 -1.0739  0.1594  0.0701
42274SOL    HW233428   5.407  10.225   9.752 -0.6901 -0.3221  0.3607
42275SOL     OW33429   5.043   0.111   8.593 -0.0951 -0.1676 -0.0048
42275SOL    HW133430   5.062   0.079   8.681 -0.3908 -0.0215  0.1161
42275SOL    HW233431   5.036   0.032   8.539  0.2225 -0.2506  0.0731
42276SOL     OW33432   0.119   9.006   7.781  0.0758  0.5568 -0.1528
42276SOL    HW133433   0.200   8.974   7.740 -0.6174  1.3196 -2.2645
42276SOL    HW233434   0.054   8.938   7.760 -0.2862  0.9356 -0.2661
42277SOL     OW33435   2.731   0.603   4.259  0.0400  0.4720 -0.5567
42277SOL    HW133436   2.716   0.651   4.341  2.1512 -0.8407  0.7128
42277SOL    HW233437   2.663   0.634   4.200 -1.2283  1.9026  1.5115
42278SOL     OW33438  12.023   2.117   9.210  0.3902 -0.0495 -0.1853
42278SOL    HW133439  12.000   2.201   9.171  2.6062  0.8144  0.1704
42278SOL    HW233440  12.119   2.112   9.200  0.6228 -1.3687  2.0269
42279SOL     OW33441   4.657  10.331   8.312 -1.0478  0.4832 -0.1676
42279SOL    HW133442   4.686  10.410   8.357 -0.0552 -0.3278  0.6790
42279SOL    HW233443   4.691  10.340   8.223 -0.9736  1.0178 -0.0887
42280SOL     OW33444   7.222  11.719   6.698  0.2260 -0.0103  0.0055
42280SOL    HW133445   7.232  11.691   6.607 -1.6333 -0.0497 -0.2196
42280SOL    HW233446   7.276  11.798   6.705 -2.0261  1.8585 -2.0601
42281SOL     OW33447   8.512   6.897  12.397 -0.0915 -0.9967 -0.2942
42281SOL    HW133448   8.512   6.963  12.328  0.5873 -0.3975  0.2688
42281SOL    HW233449   8.597   6.907  12.440 -1.2419  0.0158  1.9057
42282SOL     OW33450  10.613   0.680   7.822  0.3365 -0.5782  0.1523
42282SOL    HW133451  10.630   0.770   7.850 -0.1882 -0.6955  0.8849
42282SOL    HW233452  10.519   0.677   7.806  0.3862 -0.9412 -0.0913
42283SOL     OW33453   3.794   1.811   8.238  0.0252  0.0378  0.1211
42283SOL    HW133454   3.852   1.736   8.226 -0.4258 -0.1605 -0.9165
42283SOL    HW233455   3.838   1.866   8.303  0.8846 -0.5861  0.0780
42284SOL     OW33456   5.068   1.974   5.595 -0.2530  0.0324 -0.0574
42284SOL    HW133457   5.050   2.047   5.654  0.7042  0.2524 -0.0217
42284SOL    HW233458   5.149   1.998   5.550  0.0421 -0.9691 -0.0969
42285SOL     OW33459   3.290   5.231   2.557  0.0344 -1.2332  0.1367
42285SOL    HW133460   3.280   5.147   2.602 -1.7944 -0.4571  1.2909
42285SOL    HW233461   3.203   5.251   2.524  0.6424 -0.2007 -0.9387
42286SOL     OW33462   0.481   9.023  11.201  0.1387  0.0271 -0.2209
42286SOL    HW133463   0.480   9.118  11.214 -0.4175  0.3312 -2.1931
42286SOL    HW233464   0.436   9.010  11.118 -0.3809 -2.0336  0.3219
42287SOL     OW33465  12.065   6.492   8.063 -0.2593  0.2465  0.2470
42287SOL    HW133466  11.994   6.465   8.005 -2.5579 -0.7602  3.2913
42287SOL    HW233467  12.099   6.409   8.098  1.4473  0.8065 -0.0072
42288SOL     OW33468  11.361   9.640   7.548 -0.0802  0.4932  0.1323
42288SOL    HW133469  11.396   9.614   7.634 -0.5454 -0.4401  0.0482
42288SOL    HW233470  11.289   9.699   7.568  0.8244  1.5873  0.3305
42289SOL     OW33471   6.158   2.925   5.685 -0.2345 -0.8952 -0.5917
42289SOL    HW133472   6.219   2.851   5.699  1.1662  0.1415 -0.9900
42289SOL    HW233473   6.158   2.971   5.769  0.3075 -0.3446 -0.8879
42290SOL     OW33474   3.896   7.380   1.084  0.4207 -0.0380 -0.8120
42290SOL    HW133475   3.987   7.359   1.061  0.5288  0.4112 -0.8121
42290SOL    HW233476   3.864   7.302   1.129  1.8192  0.9176  2.1280
42291SOL     OW33477   5.251   9.260   8.279 -0.5550  0.7531  0.3351
42291SOL    HW133478   5.303   9.250   8.199 -0.3831  1.3771  0.3616
42291SOL    HW233479   5.260   9.352   8.302 -2.6194  1.1810 -0.3120
42292SOL     OW33480   8.475   5.206   6.275  0.3338  0.2738  0.7470
42292SOL    HW133481   8.503   5.185   6.186 -0.3020  0.9269  0.3898
42292SOL    HW233482   8.509   5.294   6.291  1.0984 -0.1315  1.4379
42293SOL     OW33483   4.527   0.193  10.749  0.5996  0.2542  0.1705
42293SOL    HW133484   4.479   0.274  10.767 -3.0657 -1.8746  1.0351
42293SOL    HW233485   4.617   0.221  10.734 -0.2995  4.3655  1.2382
42294SOL     OW33486   1.191  10.880  11.322 -0.0206  0.4534  0.2455
42294SOL    HW133487   1.286  10.884  11.332 -0.1502  1.5610  1.2053
42294SOL    HW233488   1.160  10.966  11.349 -1.2461  0.4058 -0.8827
42295SOL     OW33489  10.051   6.755  10.506 -0.0954 -0.0459 -0.1057
42295SOL    HW133490   9.970   6.736  10.553  0.1678  1.9587  1.2730
42295SOL    HW233491  10.113   6.690  10.540 -0.0313  1.0757  2.1207
42296SOL     OW33492   7.813   8.562   9.755 -0.1904  0.3599 -0.3613
42296SOL    HW133493   7.867   8.632   9.718  0.7927  0.0146  0.4018
42296SOL    HW233494   7.871   8.487   9.762 -0.6834  0.0560  0.7255
42297SOL     OW33495  12.448   3.698   9.472  0.3982 -0.4449  0.2688
42297SOL    HW133496  12.360   3.676   9.441  0.0445  1.6769 -0.4283
42297SOL    HW233497  12.436   3.717   9.565  0.6807 -2.7603  0.8441
42298SOL     OW33498   1.595   1.605   8.533 -0.3686 -0.1216 -0.2621
42298SOL    HW133499   1.590   1.624   8.627 -0.5736  1.6077 -0.5811
42298SOL    HW233500   1.543   1.675   8.493 -0.5027 -0.9988 -1.6488
42299SOL     OW33501  10.286   4.884   7.538  0.2345 -0.0844  0.1065
42299SOL    HW133502  10.326   4.941   7.604 -1.3615  1.0644  0.1411
42299SOL    HW233503  10.236   4.944   7.482  0.8414 -1.1288 -1.6378
42300SOL     OW33504   9.613   3.430   9.349  0.4365  0.2475 -0.2840
42300SOL    HW133505   9.586   3.520   9.333 -2.6484 -0.4923  0.0914
42300SOL    HW233506   9.609   3.387   9.264  0.9160  0.2165 -0.2954
42301SOL     OW33507   6.743  10.770   4.943 -0.3314  0.8324  0.3022
42301SOL    HW133508   6.767  10.826   5.017  0.0320 -1.3229  1.9271
42301SOL    HW233509   6.648  10.783   4.934 -0.2565  1.7048  0.6172
42302SOL     OW33510   1.360   6.931   7.943 -0.1228  0.0393 -0.4578
42302SOL    HW133511   1.267   6.941   7.924 -0.5221 -0.7937  0.8956
42302SOL    HW233512   1.400   6.907   7.859 -0.9367  1.4806 -1.2772
42303SOL     OW33513   1.959   7.647  12.537  0.1145 -0.3333  0.4447
42303SOL    HW133514   1.865   7.663  12.544  0.0980 -0.0252 -0.4314
42303SOL    HW233515   1.996   7.690  12.615 -0.0709  2.9389 -1.0951
42304SOL     OW33516   9.206   6.940   9.089  0.3339 -0.2615  0.6086
42304SOL    HW133517   9.240   7.012   9.142  0.9892 -0.7653  0.9037
42304SOL    HW233518   9.238   6.861   9.134 -1.7550 -0.8094  1.2540
42305SOL     OW33519  10.668   3.337   3.914  0.1554 -0.0701  0.4371
42305SOL    HW133520  10.648   3.427   3.887  1.3281  0.0234 -0.1797
42305SOL    HW233521  10.659   3.285   3.835  1.1774 -0.2021  0.3885
42306SOL     OW33522   7.889   6.263  12.343 -0.4251  0.2908  0.0221
42306SOL    HW133523   7.910   6.338  12.286  0.1489  1.1335  1.3051
42306SOL    HW233524   7.898   6.297  12.432 -0.2528 -1.2854  0.6371
42307SOL     OW33525   1.018  10.679   4.838 -0.0049  0.0016  0.8561
42307SOL    HW133526   1.015  10.744   4.908 -0.5824 -0.9562  1.7438
42307SOL    HW233527   1.035  10.730   4.758  0.9916  1.0706  1.7300
42308SOL     OW33528  12.641   7.370   1.971 -0.0355  0.0233 -0.3754
42308SOL    HW133529  12.644   7.444   1.911 -2.2160  0.2664 -0.2791
42308SOL    HW233530  12.547   7.355   1.985  0.3924 -0.3316  2.6068
42309SOL     OW33531   7.615   9.153   4.752 -0.1203  0.0636  0.0717
42309SOL    HW133532   7.674   9.227   4.740  1.3826 -0.9894  0.6896
42309SOL    HW233533   7.641   9.089   4.686 -1.1554 -0.0939 -0.2118
42310SOL     OW33534   5.310   2.104   3.482  0.1464 -0.1107  0.2705
42310SOL    HW133535   5.345   2.192   3.500  0.1809 -0.4225  1.9506
42310SOL    HW233536   5.387   2.047   3.484  0.1926 -0.1310 -1.3334
42311SOL     OW33537   5.793   3.876   2.536 -0.2529 -0.6032 -0.2365
42311SOL    HW133538   5.883   3.897   2.560  0.7919 -2.0682 -2.4472
42311SOL    HW233539   5.760   3.954   2.493  0.6003 -0.6163 -0.9422
42312SOL     OW33540   7.266   4.813  12.463 -0.3109 -0.0171 -0.5021
42312SOL    HW133541   7.249   4.824  12.557  0.9769 -0.4065 -0.1915
42312SOL    HW233542   7.309   4.894  12.436  3.1326 -1.3945  0.2670
42313SOL     OW33543   0.477   4.976   5.150 -0.0598 -0.3964 -0.1637
42313SOL    HW133544   0.482   4.944   5.240 -2.0453 -0.2852  0.0332
42313SOL    HW233545   0.527   4.912   5.099 -0.8098 -1.7510  0.7361
42314SOL     OW33546  10.060   1.496   7.614  0.9437 -0.0735 -0.4250
42314SOL    HW133547  10.150   1.504   7.645  0.6516  0.9882  0.1882
42314SOL    HW233548  10.059   1.546   7.532  0.9710 -0.2989 -0.5634
42315SOL     OW33549  12.130   9.606   1.680 -0.1378  0.5333  0.3678
42315SOL    HW133550  12.165   9.612   1.768  0.4178  2.4131  0.0605
42315SOL    HW233551  12.172   9.677   1.632  1.6754 -2.0386 -2.1951
42316SOL     OW33552   2.850   2.675   4.436  0.5825 -0.4690 -0.7375
42316SOL    HW133553   2.936   2.716   4.425  1.0325 -1.2448 -0.1961
42316SOL    HW233554   2.865   2.604   4.498 -0.7055  0.1610  0.3544
42317SOL     OW33555   8.653  12.032   4.793 -0.3526  0.0562 -0.0064
42317SOL    HW133556   8.682  11.967   4.856  0.1110 -0.0818 -0.3587
42317SOL    HW233557   8.733  12.076   4.765 -0.4880 -0.2170 -0.8562
42318SOL     OW33558   0.289  12.398   6.259 -0.1478 -0.0900  0.3386
42318SOL    HW133559   0.271  12.469   6.197 -1.4049  0.2032  1.0137
42318SOL    HW233560   0.278  12.438   6.345 -0.8942 -1.1096  0.7284
42319SOL     OW33561   2.444   3.752   8.125  0.0173  0.6807 -0.2226
42319SOL    HW133562   2.351   3.773   8.134  0.2690  1.4652  0.7257
42319SOL    HW233563   2.456   3.739   8.031 -1.7255 -2.8413 -0.1271
42320SOL     OW33564   0.161  11.676   5.248 -0.4709  0.2303  0.4161
42320SOL    HW133565   0.088  11.709   5.194 -0.9799  1.2369  1.6579
42320SOL    HW233566   0.233  11.736   5.229  0.2606 -1.1137 -1.2548
42321SOL     OW33567   1.381  10.161   9.219 -0.5868 -0.4340  0.9690
42321SOL    HW133568   1.444  10.104   9.173 -0.8530 -0.0451  0.0877
42321SOL    HW233569   1.417  10.171   9.307  0.0899 -0.9903  0.7676
42322SOL     OW33570  10.116   5.116  11.086  0.0937 -0.7737  0.6342
42322SOL    HW133571  10.179   5.104  11.157 -1.3706 -0.6414  1.9992
42322SOL    HW233572  10.031   5.109  11.128 -0.8195 -0.9379 -1.1717
42323SOL     OW33573  11.606   1.024   9.405  0.3005  0.2849 -0.4390
42323SOL    HW133574  11.560   1.096   9.361  0.1000 -0.8032 -2.0741
42323SOL    HW233575  11.545   0.951   9.403  1.2757 -0.5365 -0.6461
42324SOL     OW33576   4.496   8.196   4.415  0.2358 -0.3978  0.2041
42324SOL    HW133577   4.528   8.115   4.454  2.1320 -0.2843 -1.0091
42324SOL    HW233578   4.533   8.265   4.469  0.1002 -0.2964  0.1687
42325SOL     OW33579   9.786   7.068   2.841 -0.1983 -0.0847  0.7456
42325SOL    HW133580   9.725   7.077   2.768 -0.4361 -1.1626  0.7833
42325SOL    HW233581   9.861   7.122   2.817 -0.0661 -0.7841 -0.5290
42326SOL     OW33582   3.778   4.770   6.909  0.4407 -0.1594 -0.9907
42326SOL    HW133583   3.704   4.800   6.963  0.4110 -2.2147  0.2052
42326SOL    HW233584   3.821   4.851   6.881 -1.6918  1.0782 -0.9545
42327SOL     OW33585   9.327   6.170  10.387 -0.2567  0.0113 -0.8019
42327SOL    HW133586   9.301   6.080  10.370  0.0020  0.0940 -1.6685
42327SOL    HW233587   9.403   6.184  10.330 -0.1734  0.7112 -0.5260
42328SOL     OW33588  11.878   1.638   7.545 -0.0157 -0.0016  0.0150
42328SOL    HW133589  11.922   1.657   7.463 -1.6384  0.0768 -0.8738
42328SOL    HW233590  11.902   1.547   7.565  0.5927  0.0667 -0.3957
42329SOL     OW33591   5.836  10.601  11.217 -0.0235 -0.1258  0.1156
42329SOL    HW133592   5.770  10.662  11.248  1.4850  1.8151 -0.2564
42329SOL    HW233593   5.840  10.533  11.283 -2.0699 -0.0740  0.3335
42330SOL     OW33594   8.946   7.830  10.906  0.3001  0.4614  0.0582
42330SOL    HW133595   8.954   7.925  10.897  0.6250  0.3622 -0.7655
42330SOL    HW233596   9.029   7.803  10.944  0.0675  0.5475  0.6318
42331SOL     OW33597  11.715   5.677  12.271 -0.4574  0.0803  0.4233
42331SOL    HW133598  11.721   5.612  12.341  0.3649 -1.7035 -1.2161
42331SOL    HW233599  11.629   5.717  12.283 -0.9407 -1.2253  1.5730
42332SOL     OW33600   5.415   0.670  12.498  0.7779  0.2559  0.2060
42332SOL    HW133601   5.342   0.612  12.473  0.8486  0.2850 -0.0760
42332SOL    HW233602   5.380   0.722  12.570 -0.0463  1.4198 -0.9832
42333SOL     OW33603   9.099  11.296   9.494 -0.0362 -0.0896  0.0142
42333SOL    HW133604   9.145  11.262   9.418  0.2854  0.6279 -0.1214
42333SOL    HW233605   9.036  11.359   9.458 -0.8538 -0.7461  0.2348
42334SOL     OW33606   1.531  11.816   4.864 -0.2977  0.0101  0.6341
42334SOL    HW133607   1.566  11.898   4.827  0.0323 -0.1552  0.5786
42334SOL    HW233608   1.541  11.826   4.958 -0.2382  0.0234  0.6262
42335SOL     OW33609   8.899   1.481   1.273  0.4036 -0.1989  0.1217
42335SOL    HW133610   8.983   1.436   1.283  0.8439  0.3754 -0.9047
42335SOL    HW233611   8.909   1.561   1.325  0.4580 -0.1749  0.0746
42336SOL     OW33612  10.146  11.436   1.500 -0.2478 -0.0882 -0.3016
42336SOL    HW133613  10.110  11.519   1.533  1.9087  1.1352 -0.8296
42336SOL    HW233614  10.180  11.458   1.414  3.4568 -0.5491  0.8680
42337SOL     OW33615   1.728   9.715   5.473 -0.1815  0.3618  0.0694
42337SOL    HW133616   1.801   9.736   5.532 -0.6503  0.8314  0.4949
42337SOL    HW233617   1.651   9.720   5.529 -0.5731  0.2112 -0.4578
42338SOL     OW33618   3.722   8.979   9.922 -0.1742  0.4774 -0.3117
42338SOL    HW133619   3.781   9.048   9.955  1.0782  0.1089 -1.6527
42338SOL    HW233620   3.673   8.951   9.999  0.6886  1.5083  0.6650
42339SOL     OW33621   3.185   7.034   3.868 -0.1241  0.0111  0.1900
42339SOL    HW133622   3.186   7.125   3.838 -0.1791 -0.0106  0.1229
42339SOL    HW233623   3.105   7.027   3.920 -1.6757 -0.7503 -2.1266
42340SOL     OW33624   9.614   7.103   8.907 -0.3643 -0.2093  0.3446
42340SOL    HW133625   9.699   7.106   8.950 -0.4247  0.6662  0.4242
42340SOL    HW233626   9.567   7.179   8.941 -0.9690 -0.3655 -0.1208
42341SOL     OW33627   5.683  11.339   4.669 -0.8614  0.0888 -0.0674
42341SOL    HW133628   5.707  11.333   4.576  0.8272  0.7696  0.2871
42341SOL    HW233629   5.725  11.264   4.710 -0.6132  0.4321  0.3219
42342SOL     OW33630   6.538   8.645  10.353 -0.1133  0.4795  0.2054
42342SOL    HW133631   6.571   8.555  10.358 -0.3966  0.4285  2.1396
42342SOL    HW233632   6.563   8.676  10.266 -0.6920 -1.7233 -0.8034
42343SOL     OW33633   2.075   2.493  11.111 -0.4020  0.3925  0.1262
42343SOL    HW133634   2.105   2.427  11.049 -0.5701  0.9582 -0.5667
42343SOL    HW233635   2.133   2.482  11.187 -0.5684 -0.6913  0.1191
42344SOL     OW33636   9.240   2.511   0.310  0.4802  0.2091 -0.4733
42344SOL    HW133637   9.219   2.484   0.400 -0.8552  1.0455 -0.5071
42344SOL    HW233638   9.336   2.506   0.305  0.6375  0.7903  1.2170
42345SOL     OW33639   6.499   2.549  12.728  0.2317 -0.1616 -0.1251
42345SOL    HW133640   6.466   2.627  12.685  0.5279 -0.5267 -1.0350
42345SOL    HW233641   6.555   2.582  12.799 -0.8211  0.4425  0.4454
42346SOL     OW33642   7.005  12.068   5.292 -0.2587 -0.2126  0.4940
42346SOL    HW133643   7.071  12.134   5.270 -1.9471  1.9132  1.3707
42346SOL    HW233644   6.982  12.027   5.209  0.5183  0.6290 -0.1463
42347SOL     OW33645  10.302  10.864   5.658  0.1990 -0.4604  0.1382
42347SOL    HW133646  10.375  10.841   5.716 -0.6418 -0.3291  1.2941
42347SOL    HW233647  10.274  10.781   5.620  1.3434 -0.4272 -0.8194
42348SOL     OW33648   4.808   0.777  10.766 -0.3847 -0.4202 -0.1004
42348SOL    HW133649   4.815   0.692  10.810 -0.4966 -0.1799  0.3881
42348SOL    HW233650   4.897   0.812  10.768 -0.4582 -0.2571  0.2381
42349SOL     OW33651   3.527  11.034   6.908 -0.4077 -0.7089  0.3146
42349SOL    HW133652   3.453  11.001   6.959  1.1411 -0.0513  3.1897
42349SOL    HW233653   3.570  10.955   6.874 -0.0760 -1.3911  2.1916
42350SOL     OW33654  11.219   2.471   0.092 -0.1909  0.0340  0.2914
42350SOL    HW133655  11.230   2.377   0.099 -0.0476  0.0312  0.0474
42350SOL    HW233656  11.128   2.487   0.118 -0.8430 -0.3989 -1.5627
42351SOL     OW33657   6.131   1.271  11.824  0.4663 -0.0955  0.3361
42351SOL    HW133658   6.123   1.180  11.852 -0.7898 -0.2592 -0.5025
42351SOL    HW233659   6.070   1.319  11.880  1.3567  0.3024  0.9946
42352SOL     OW33660   7.184   7.654   4.062 -0.0731 -0.7994  0.5838
42352SOL    HW133661   7.238   7.586   4.103 -0.4306 -1.7218 -0.4054
42352SOL    HW233662   7.245   7.725   4.042  0.0722 -0.2321  2.8237
42353SOL     OW33663   1.038   6.470   4.010 -0.0344  0.4977 -0.4115
42353SOL    HW133664   1.016   6.379   4.030  1.4350  0.2568  0.2838
42353SOL    HW233665   1.059   6.509   4.095 -0.5063  1.4489 -0.7181
42354SOL     OW33666  12.767  11.823   9.132  0.2907  0.2760 -0.2553
42354SOL    HW133667  12.837  11.792   9.188  0.5281  1.1103 -0.0792
42354SOL    HW233668  12.774  11.919   9.135 -1.0937  0.3887  0.0901
42355SOL     OW33669  11.114   5.066   1.404 -0.8777  0.0036 -0.3552
42355SOL    HW133670  11.201   5.080   1.366 -0.6483  1.0770  0.5228
42355SOL    HW233671  11.087   5.152   1.433 -2.7929 -0.0711 -1.7135
42356SOL     OW33672   7.502   0.785   7.375 -0.2160  0.1224 -0.6645
42356SOL    HW133673   7.516   0.761   7.467  1.8752 -1.5470 -1.3399
42356SOL    HW233674   7.483   0.702   7.331  0.6191  0.6030 -2.0094
42357SOL     OW33675   9.514   7.803   5.245  0.0969  0.6449  0.1445
42357SOL    HW133676   9.514   7.819   5.339 -0.4090 -0.5713  0.3716
42357SOL    HW233677   9.605   7.814   5.219  0.1376  1.6422  0.6400
42358SOL     OW33678   9.322   1.999   4.423  0.4310 -0.2923  0.4161
42358SOL    HW133679   9.252   2.042   4.374  1.2650  1.0511  0.3568
42358SOL    HW233680   9.391   1.984   4.359  0.0668 -2.0520  0.3639
42359SOL     OW33681   6.042  11.098   9.463 -0.2577 -0.3394  0.1238
42359SOL    HW133682   6.072  11.031   9.401 -1.0397  0.3695 -1.0768
42359SOL    HW233683   6.007  11.049   9.537 -2.3122 -1.3647 -1.4214
42360SOL     OW33684   9.822  11.267   9.571  0.4778  0.4593  0.2034
42360SOL    HW133685   9.907  11.255   9.614  0.2848 -0.7587  0.2798
42360SOL    HW233686   9.765  11.301   9.640  0.8305  1.0111  0.2253
42361SOL     OW33687   1.349   0.427   5.275 -0.4855  0.1930 -0.4453
42361SOL    HW133688   1.425   0.380   5.309 -1.3191 -0.2625  0.8357
42361SOL    HW233689   1.370   0.442   5.182  0.9283 -0.3724 -0.2431
42362SOL     OW33690  10.132  11.244   0.731  0.3651  0.0678 -0.2011
42362SOL    HW133691  10.139  11.332   0.695 -0.4249  0.0402 -0.4355
42362SOL    HW233692  10.056  11.246   0.788  1.0988 -0.1269  0.8221
42363SOL     OW33693   6.274   6.214  12.245  0.2287 -0.2302 -0.1490
42363SOL    HW133694   6.245   6.290  12.194  0.7921  0.1370  0.0633
42363SOL    HW233695   6.214   6.209  12.319  1.3490  1.2361  0.9356
42364SOL     OW33696   5.108   7.690   4.084 -0.1337  0.0695  0.0969
42364SOL    HW133697   5.060   7.727   4.157  0.9207 -0.6478  1.1889
42364SOL    HW233698   5.163   7.762   4.052 -1.4405  0.7190 -0.7801
42365SOL     OW33699   9.794   7.777   5.863 -0.0669 -0.1988  1.1991
42365SOL    HW133700   9.729   7.832   5.819  1.1380  0.3881  0.0861
42365SOL    HW233701   9.867   7.771   5.801  0.3174 -2.1230  1.7716
42366SOL     OW33702   4.105   0.373  11.801  0.4349  0.2740 -0.0451
42366SOL    HW133703   4.015   0.343  11.787  0.1748  1.1331 -0.2953
42366SOL    HW233704   4.119   0.439  11.732  1.7549 -0.8858 -0.9344
42367SOL     OW33705  12.228   8.009   2.648  0.0237  0.4283 -0.2547
42367SOL    HW133706  12.178   7.929   2.660 -1.5592  1.1076 -1.8002
42367SOL    HW233707  12.172   8.078   2.683  1.1249  0.9418  0.5575
42368SOL     OW33708   8.628   9.285   9.057 -0.2420 -0.4564 -0.0654
42368SOL    HW133709   8.641   9.266   8.964 -0.4890  0.6465 -0.3473
42368SOL    HW233710   8.566   9.219   9.088  0.0456 -0.9888 -0.6164
42369SOL     OW33711   2.014   6.640  11.786 -0.2033  0.4592  0.5176
42369SOL    HW133712   1.951   6.576  11.817 -0.6926  1.5829  1.9869
42369SOL    HW233713   2.068   6.659  11.863  1.4111  0.1400 -0.4871
42370SOL     OW33714  10.549  10.251   3.744 -0.6131  0.2030 -0.2235
42370SOL    HW133715  10.513  10.235   3.657  0.7200  1.8678 -1.1368
42370SOL    HW233716  10.497  10.323   3.779 -1.2378 -0.5515  0.4550
42371SOL     OW33717   2.595   5.191   9.641  0.2550  0.1979  0.0817
42371SOL    HW133718   2.653   5.220   9.711  0.6231 -0.3389  0.0022
42371SOL    HW233719   2.511   5.175   9.685  0.6074 -0.5736  0.4841
42372SOL     OW33720   1.583   2.992   8.662  0.1193 -0.0698  0.4138
42372SOL    HW133721   1.618   2.914   8.618 -0.2406  0.1860 -0.3538
42372SOL    HW233722   1.653   3.057   8.655 -0.8596  0.8624 -2.2592
42373SOL     OW33723   8.624   2.457  11.244 -0.0285 -0.2860  0.2215
42373SOL    HW133724   8.703   2.405  11.260 -0.7311 -1.5393 -0.2351
42373SOL    HW233725   8.656   2.546  11.232  1.4710 -0.9842 -1.3061
42374SOL     OW33726   1.554  12.431   7.321  0.1112 -0.1763 -0.1593
42374SOL    HW133727   1.542  12.360   7.383 -0.9593 -1.0444 -1.3218
42374SOL    HW233728   1.471  12.479   7.322 -0.2046 -0.6562 -1.4588
42375SOL     OW33729   3.176   1.968   5.122  0.3852  0.3431 -0.1512
42375SOL    HW133730   3.238   1.966   5.049  0.7774 -1.6347  0.1657
42375SOL    HW233731   3.090   1.968   5.081  0.6044 -0.7731 -0.6320
42376SOL     OW33732   1.039   7.254   0.534  0.1480  0.4053  0.0387
42376SOL    HW133733   1.053   7.175   0.586 -0.3635  0.9958  1.1180
42376SOL    HW233734   1.042   7.325   0.598  0.8750  1.2905 -0.9505
42377SOL     OW33735   1.045   9.431  11.235  0.2772  0.3551  0.0389
42377SOL    HW133736   0.953   9.404  11.243  0.6605 -1.1100 -0.1779
42377SOL    HW233737   1.044   9.525  11.250 -1.2879  0.3911 -0.1362
42378SOL     OW33738   6.514   0.609   7.765 -0.0149  0.6007  0.1492
42378SOL    HW133739   6.491   0.589   7.855  0.7132  0.7796  0.3835
42378SOL    HW233740   6.504   0.704   7.758  1.0340  0.7348  0.3749
42379SOL     OW33741   4.214   9.955   2.630 -0.1648 -0.3619 -0.4893
42379SOL    HW133742   4.203   9.922   2.719  1.6401  1.6353  0.5722
42379SOL    HW233743   4.270   9.890   2.588  0.6135 -0.3550  0.4934
42380SOL     OW33744  10.952   4.392   6.221 -0.6180  0.2175 -0.3943
42380SOL    HW133745  10.988   4.343   6.147  0.9460  1.7565 -0.7298
42380SOL    HW233746  10.884   4.447   6.182  1.5181  2.4957 -1.2011
42381SOL     OW33747   4.832   2.943   8.300  0.4623 -0.2791 -0.3793
42381SOL    HW133748   4.775   2.869   8.317  1.2830 -0.5057  1.6691
42381SOL    HW233749   4.918   2.904   8.281  0.6647  0.1319 -0.3385
42382SOL     OW33750   6.125   1.806  10.782 -0.5014  0.1883 -0.3905
42382SOL    HW133751   6.066   1.815  10.708  0.0370 -1.4257 -1.0653
42382SOL    HW233752   6.176   1.727  10.763  1.6070  1.2995  0.3460
42383SOL     OW33753   0.989   4.950   2.256 -0.0367 -0.1982 -0.2578
42383SOL    HW133754   0.955   5.036   2.231  1.6514  0.4616 -0.4694
42383SOL    HW233755   0.912   4.898   2.275 -1.1028  1.6871  0.9558
42384SOL     OW33756   1.431   0.550   0.061  0.1706  0.5369  0.2403
42384SOL    HW133757   1.504   0.601   0.097  0.8448 -0.0988 -0.1973
42384SOL    HW233758   1.358   0.568   0.120  0.5111  1.6563  0.3443
42385SOL     OW33759  12.060   1.067   2.996  0.0083 -0.3290 -0.0539
42385SOL    HW133760  12.095   1.056   2.907  2.3420 -0.7658  0.8424
42385SOL    HW233761  12.090   1.154   3.022 -2.2093  0.5529 -0.2940
42386SOL     OW33762   9.134  12.063   4.981 -0.2138  0.5791 -0.0087
42386SOL    HW133763   9.170  11.975   4.997 -0.8933  0.6454  2.2011
42386SOL    HW233764   9.203  12.122   5.010 -1.5001  0.7007  3.2881
42387SOL     OW33765   0.499   3.019  11.343 -0.3725  0.6053 -0.2524
42387SOL    HW133766   0.426   2.985  11.291 -1.0130 -0.7949  1.4506
42387SOL    HW233767   0.572   2.959  11.323 -1.1973 -1.2831  1.9102
42388SOL     OW33768  11.246   6.242  11.642  0.2071 -0.1315 -0.0690
42388SOL    HW133769  11.239   6.256  11.548 -2.7953  0.1252  0.1001
42388SOL    HW233770  11.202   6.159  11.657 -0.6183  0.5048  1.2287
42389SOL     OW33771   3.427   4.309   7.230  1.0003  0.1382 -0.4442
42389SOL    HW133772   3.477   4.381   7.269  1.8793 -0.1678 -0.9783
42389SOL    HW233773   3.474   4.288   7.150  1.4394 -1.7834  0.2576
42390SOL     OW33774   0.825   6.494   0.501 -0.1262 -0.0122  0.5335
42390SOL    HW133775   0.882   6.470   0.428  0.3299  0.0054  0.8754
42390SOL    HW233776   0.738   6.501   0.463 -0.0031 -0.6529  0.1176
42391SOL     OW33777   1.708   4.161  11.622  0.2681 -0.5929  0.6614
42391SOL    HW133778   1.659   4.143  11.541  0.6008 -1.3572  0.6168
42391SOL    HW233779   1.744   4.076  11.647  1.4445 -0.0766  0.7752
42392SOL     OW33780   3.713   0.578   6.251  0.7790  0.1019 -0.0537
42392SOL    HW133781   3.803   0.553   6.268  0.1355 -1.4985  1.2333
42392SOL    HW233782   3.662   0.498   6.264 -0.8312  0.9428 -0.7977
42393SOL     OW33783   9.559  11.215   0.824 -0.2815 -0.0290  0.1484
42393SOL    HW133784   9.601  11.154   0.884  1.5161  0.8140 -0.1777
42393SOL    HW233785   9.547  11.295   0.876 -1.3824 -0.2137  0.1947
42394SOL     OW33786   3.273   2.941   8.930 -0.4095 -0.4905  0.0998
42394SOL    HW133787   3.344   2.978   8.877 -0.3521 -1.6803 -0.6795
42394SOL    HW233788   3.250   3.012   8.992  1.2239  0.0247  0.1627
42395SOL     OW33789  11.034   4.275   3.104  0.2780  0.6772  0.5381
42395SOL    HW133790  11.122   4.311   3.090  0.8990 -0.4756  1.2278
42395SOL    HW233791  11.006   4.245   3.018  0.8700  0.4051  0.4367
42396SOL     OW33792  10.660  11.368   0.545  0.5895  0.2176 -0.0282
42396SOL    HW133793  10.721  11.400   0.479  0.5325 -0.9050 -0.6461
42396SOL    HW233794  10.576  11.363   0.500  0.2541  0.7200  0.5173
42397SOL     OW33795   2.965   0.846   1.116  0.1904 -0.1627  0.0755
42397SOL    HW133796   3.049   0.883   1.142  0.5780  0.5343 -1.9651
42397SOL    HW233797   2.929   0.910   1.054 -1.7933 -0.5067  0.8090
42398SOL     OW33798   2.748   8.085   1.124 -0.1320  0.2870  0.4685
42398SOL    HW133799   2.671   8.141   1.121  0.3349  1.0643  2.0054
42398SOL    HW233800   2.749   8.049   1.212 -1.8614 -4.3840 -1.1520
42399SOL     OW33801   7.419   7.682   2.499 -0.4853 -0.3959  0.4828
42399SOL    HW133802   7.372   7.694   2.582 -1.2193  0.6304 -0.0667
42399SOL    HW233803   7.459   7.767   2.481 -0.9858 -0.3787 -0.6159
42400SOL     OW33804   2.403  12.228   4.000  0.5129 -0.3994 -0.3337
42400SOL    HW133805   2.497  12.215   4.010  0.5095 -0.3868 -0.2840
42400SOL    HW233806   2.395  12.300   3.938  0.5532  0.5286  0.7173
42401SOL     OW33807   6.421  12.419   3.828 -0.0538  0.5132  0.8171
42401SOL    HW133808   6.478  12.481   3.873  0.1680  1.3276 -0.5085
42401SOL    HW233809   6.479  12.371   3.769 -0.2966 -0.6960  1.5349
42402SOL     OW33810  12.329   6.418   3.530 -0.7316 -0.4688  0.1387
42402SOL    HW133811  12.278   6.339   3.512 -0.0261 -0.9457  0.1955
42402SOL    HW233812  12.418   6.395   3.505 -0.4682  0.2215  0.4195
42403SOL     OW33813   4.087   1.359   0.426 -0.1403 -0.1232  0.0028
42403SOL    HW133814   4.013   1.359   0.487 -0.4230 -0.3239 -0.3406
42403SOL    HW233815   4.151   1.418   0.466 -0.7124  0.4939  0.0243
42404SOL     OW33816   7.612   8.687   0.110 -0.5474  0.0069 -0.1943
42404SOL    HW133817   7.632   8.657   0.021  0.2681  0.4980 -0.1801
42404SOL    HW233818   7.682   8.749   0.131 -0.4981 -0.4164  0.9493
42405SOL     OW33819   4.108  10.883  12.203  0.0636  0.3152 -0.1315
42405SOL    HW133820   4.076  10.839  12.281  1.2550 -0.9898 -0.3397
42405SOL    HW233821   4.161  10.817  12.158 -0.0530  1.2344 -1.7046
42406SOL     OW33822   1.730   0.824   9.863  0.2229 -0.1030 -0.5055
42406SOL    HW133823   1.786   0.809   9.939 -1.0340 -1.0592  0.2890
42406SOL    HW233824   1.784   0.801   9.787  0.7837 -1.4390  0.2565
42407SOL     OW33825   4.847   4.494   3.043 -0.8334  0.5003  0.5225
42407SOL    HW133826   4.804   4.505   2.958 -0.6330  0.2684  0.3894
42407SOL    HW233827   4.940   4.510   3.024 -1.0919  3.4687  1.2521
42408SOL     OW33828   9.909   8.972   9.955 -0.6282  0.1254 -0.0696
42408SOL    HW133829   9.918   9.067   9.965 -0.2685  0.1545 -0.6419
42408SOL    HW233830   9.915   8.957   9.860  1.2891 -0.6702  0.1474
42409SOL     OW33831  12.770   9.028   9.120 -0.0129  0.3456  0.1394
42409SOL    HW133832  12.755   9.072   9.204 -1.0319  0.1180  0.0827
42409SOL    HW233833  12.683   9.006   9.088  0.3658  0.3692 -0.9561
42410SOL     OW33834   9.341   6.289   2.242 -0.4432 -0.7817  0.2070
42410SOL    HW133835   9.251   6.309   2.214 -0.2589  0.4158  0.4490
42410SOL    HW233836   9.345   6.193   2.242 -1.5794 -0.8405 -0.2601
42411SOL     OW33837  11.540   5.815   1.235 -0.1702 -0.1951  0.0342
42411SOL    HW133838  11.599   5.773   1.173  1.5207  1.7325  0.2401
42411SOL    HW233839  11.584   5.896   1.260 -0.9383 -0.6548  3.4633
42412SOL     OW33840   5.132   2.913   3.616  0.6385 -0.2407 -0.2566
42412SOL    HW133841   5.101   2.881   3.700  0.5228 -1.1309 -0.6315
42412SOL    HW233842   5.158   3.003   3.633  0.2299 -0.2814  0.6370
42413SOL     OW33843   0.582   2.846   0.940 -0.1168 -0.1373 -0.4308
42413SOL    HW133844   0.655   2.893   0.981  0.5660 -0.1603 -1.5866
42413SOL    HW233845   0.505   2.873   0.991  0.7980 -0.8971  1.4593
42414SOL     OW33846  10.960   1.909  10.226  0.1363  0.2160 -0.1719
42414SOL    HW133847  11.034   1.883  10.281 -0.3591  0.5053  0.6527
42414SOL    HW233848  10.890   1.848  10.251 -0.4466  1.0915  0.3706
42415SOL     OW33849   8.216   0.810   5.988 -0.0037 -1.0904 -0.3087
42415SOL    HW133850   8.294   0.803   5.933 -0.4324  0.0343 -1.0871
42415SOL    HW233851   8.230   0.745   6.057  2.4068  0.1979  0.5475
42416SOL     OW33852   7.088   3.399   5.708  0.9676 -0.3244 -0.3909
42416SOL    HW133853   7.017   3.352   5.665 -0.4368  1.3221 -0.0104
42416SOL    HW233854   7.144   3.331   5.743 -0.4674 -1.7056 -0.6646
42417SOL     OW33855  11.703   0.836   6.252  0.1919 -0.1547 -0.0089
42417SOL    HW133856  11.785   0.791   6.272  0.0100 -0.3871  0.2211
42417SOL    HW233857  11.701   0.839   6.156 -0.4563 -1.9054 -0.0895
42418SOL     OW33858   9.134   3.145   9.857 -0.1942  0.4462 -0.1898
42418SOL    HW133859   9.068   3.215   9.860 -1.8853 -0.9803 -1.6172
42418SOL    HW233860   9.082   3.064   9.854  1.6885 -0.8846  1.2186
42419SOL     OW33861   3.955   8.602  10.449 -0.1362 -0.0014  0.3868
42419SOL    HW133862   3.994   8.659  10.515 -1.1401  2.1865 -0.7937
42419SOL    HW233863   4.011   8.613  10.372 -0.1927 -0.8341  0.2218
42420SOL     OW33864  12.608   2.270  10.793 -0.6434 -0.1218 -0.1893
42420SOL    HW133865  12.575   2.181  10.779  0.7536 -0.7318  0.2357
42420SOL    HW233866  12.537   2.327  10.763 -2.2818 -1.3616  1.1219
42421SOL     OW33867  11.522   8.491   9.697  0.0856 -0.6706 -0.1583
42421SOL    HW133868  11.588   8.532   9.641  0.9956 -1.3514  0.3855
42421SOL    HW233869  11.456   8.458   9.637  0.0140  0.4000 -0.6865
42422SOL     OW33870   7.307  12.382   7.628 -0.7513 -0.1493 -0.1102
42422SOL    HW133871   7.370  12.310   7.630 -0.9820 -0.3456  1.4635
42422SOL    HW233872   7.222  12.341   7.641 -0.7905  0.4419  1.8964
42423SOL     OW33873   1.187   3.016   4.575 -0.2807 -0.8706 -0.1337
42423SOL    HW133874   1.183   3.039   4.668 -3.4072 -0.4146 -0.2820
42423SOL    HW233875   1.109   2.962   4.560 -0.3664 -0.1716 -2.6895
42424SOL     OW33876   0.966   6.607   1.596 -0.2668  0.2765 -0.2284
42424SOL    HW133877   0.919   6.681   1.633  0.7318  1.0187 -0.4248
42424SOL    HW233878   1.011   6.642   1.519 -0.1222 -0.6267 -0.5757
42425SOL     OW33879   6.927   2.967   4.803 -0.1133 -0.0230 -0.3832
42425SOL    HW133880   6.931   2.902   4.874 -1.3967 -0.6625 -0.8757
42425SOL    HW233881   6.834   2.982   4.789  0.1161  0.1248 -1.9130
42426SOL     OW33882  11.580   6.568   1.283 -0.4262 -0.5946 -0.2240
42426SOL    HW133883  11.631   6.613   1.350  0.3919  0.1104 -1.2856
42426SOL    HW233884  11.605   6.476   1.292  0.4845 -0.3614 -0.2320
42427SOL     OW33885   5.491   1.954   4.135 -0.2101 -0.5100  0.3459
42427SOL    HW133886   5.417   1.894   4.146 -0.2870 -0.2412  1.3837
42427SOL    HW233887   5.552   1.930   4.205  0.6224 -0.6300 -0.4116
42428SOL     OW33888  11.071  10.685   3.058 -0.6483  0.0661 -0.5703
42428SOL    HW133889  10.988  10.646   3.032 -0.2236 -1.0519 -0.2844
42428SOL    HW233890  11.138  10.628   3.021  0.0566  1.8190 -2.1773
42429SOL     OW33891  12.524  10.728   3.199 -0.0132  0.0194 -0.6302
42429SOL    HW133892  12.559  10.795   3.141  0.5246 -0.4295 -0.8246
42429SOL    HW233893  12.584  10.655   3.191 -0.1012 -0.1603  0.2684
42430SOL     OW33894  12.713   2.979   9.942  0.4863 -0.0822 -0.3271
42430SOL    HW133895  12.739   2.887   9.942  0.3309 -0.1260 -0.9394
42430SOL    HW233896  12.792   3.026   9.969  0.4855 -0.4117  0.2805
42431SOL     OW33897   6.507   8.906   4.922  0.0047  0.2479  0.0294
42431SOL    HW133898   6.421   8.871   4.900 -0.6197  2.8214 -2.0215
42431SOL    HW233899   6.561   8.828   4.939 -2.0726 -1.5149 -1.0240
42432SOL     OW33900   9.170   0.738   0.545 -0.2333 -0.0716 -0.2945
42432SOL    HW133901   9.224   0.659   0.540 -2.0414 -1.5417  1.3719
42432SOL    HW233902   9.138   0.751   0.456  0.8320 -0.6542 -0.7874
42433SOL     OW33903   8.283   3.349  11.427 -0.6952 -0.4893  0.0764
42433SOL    HW133904   8.339   3.279  11.395  0.5939 -0.1203  1.4449
42433SOL    HW233905   8.219   3.306  11.483  0.6702 -0.5138  1.6741
42434SOL     OW33906   2.597   6.235   0.379 -0.2717  0.0975  0.0527
42434SOL    HW133907   2.643   6.255   0.461 -0.5334 -0.3394  0.3105
42434SOL    HW233908   2.580   6.141   0.384 -0.9977  0.2153 -0.1477
42435SOL     OW33909   4.730   8.175   7.363  0.6153  0.3083  0.5937
42435SOL    HW133910   4.680   8.255   7.347  1.0859  0.3418 -0.8668
42435SOL    HW233911   4.679   8.128   7.429 -1.6021  0.1475 -1.1206
42436SOL     OW33912   5.410   1.248  10.312 -0.3979  0.8830 -0.4558
42436SOL    HW133913   5.483   1.256  10.373 -0.0261  0.6762 -0.8625
42436SOL    HW233914   5.444   1.281  10.229  0.4275 -2.4145 -1.5749
42437SOL     OW33915   2.331   2.260   0.741  0.0958 -0.5837  0.6795
42437SOL    HW133916   2.241   2.246   0.771 -0.3958  1.1340  0.0936
42437SOL    HW233917   2.346   2.354   0.753  1.7722 -0.8124  0.6286
42438SOL     OW33918  11.988   2.936   4.660  0.3204 -0.0842  0.1204
42438SOL    HW133919  11.980   3.031   4.659 -1.9800 -0.1462 -2.5647
42438SOL    HW233920  12.073   2.919   4.619  0.7687  0.8067  0.6594
42439SOL     OW33921   3.391   5.320   1.102 -0.0409  0.2846  0.2655
42439SOL    HW133922   3.483   5.338   1.121  0.1594 -1.3937  1.0130
42439SOL    HW233923   3.382   5.340   1.009  1.0059  0.7663  0.2575
42440SOL     OW33924   2.317  11.460   4.007 -0.4036 -0.1824 -0.5178
42440SOL    HW133925   2.386  11.498   4.062 -0.8764  0.9493 -0.6947
42440SOL    HW233926   2.344  11.481   3.918  0.3055 -1.9239 -0.7576
42441SOL     OW33927  12.143   2.340   4.853  0.2658 -0.4812 -0.0741
42441SOL    HW133928  12.057   2.367   4.820 -0.5524 -2.5329  0.2453
42441SOL    HW233929  12.183   2.421   4.886 -0.4812  0.9632 -2.4795
42442SOL     OW33930  11.945   0.754   6.317  0.0989 -0.3839  0.0807
42442SOL    HW133931  12.019   0.795   6.363 -0.2977  1.9544 -1.2036
42442SOL    HW233932  11.982   0.726   6.233 -0.7213  2.6861 -1.4829
42443SOL     OW33933   1.012   1.130   0.743 -0.0464 -0.0211  0.2113
42443SOL    HW133934   1.071   1.097   0.811  0.4536  2.3345  1.0440
42443SOL    HW233935   0.946   1.180   0.791 -0.7296  0.2076 -0.9277
42444SOL     OW33936   4.640   8.325   5.837  0.2098 -0.1012 -0.1741
42444SOL    HW133937   4.681   8.296   5.756  1.3359 -0.4269  0.4841
42444SOL    HW233938   4.551   8.351   5.812 -0.4324 -2.8281 -1.0288
42445SOL     OW33939   6.758  11.795   3.404  0.1671 -0.0043  0.1293
42445SOL    HW133940   6.814  11.856   3.451  0.0755 -0.1004  0.3664
42445SOL    HW233941   6.672  11.836   3.404 -0.1123 -0.5547  1.1170
42446SOL     OW33942   4.803   7.132   7.566 -0.0567  0.9870  1.0619
42446SOL    HW133943   4.806   7.057   7.507  0.1248  0.3133  1.9155
42446SOL    HW233944   4.802   7.208   7.508  1.1625  0.3719  0.2038
42447SOL     OW33945   7.140   8.269   6.155  0.0022 -0.0859  0.3699
42447SOL    HW133946   7.227   8.249   6.190  0.7411 -1.4702 -2.0058
42447SOL    HW233947   7.088   8.293   6.231  2.7902  2.1618  1.7544
42448SOL     OW33948  11.114  12.152   5.087  0.6183  0.5914  0.0471
42448SOL    HW133949  11.187  12.211   5.104 -0.9650  2.6444  0.1422
42448SOL    HW233950  11.043  12.186   5.141 -0.8408 -0.4527 -1.1289
42449SOL     OW33951   5.966   4.154   7.983  0.6263 -0.1506 -0.4823
42449SOL    HW133952   5.969   4.075   7.930 -1.4011  0.3246 -1.3670
42449SOL    HW233953   5.989   4.225   7.922 -0.2540  0.2297 -0.3855
42450SOL     OW33954  10.339  12.122   0.620 -0.0690 -0.5045 -0.0964
42450SOL    HW133955  10.428  12.101   0.591  0.0837 -0.9618  0.6988
42450SOL    HW233956  10.351  12.190   0.686 -0.3213 -0.5318 -0.0216
42451SOL     OW33957   3.207   4.928   5.720 -0.6978  0.2494  0.1593
42451SOL    HW133958   3.249   4.913   5.804  2.4378  1.5381 -1.0352
42451SOL    HW233959   3.176   4.841   5.693 -1.9270 -0.1665  2.6169
42452SOL     OW33960   6.971   9.274   8.591 -0.4625 -0.1862  0.5373
42452SOL    HW133961   6.930   9.224   8.662 -1.3093 -0.9631 -0.4658
42452SOL    HW233962   6.964   9.217   8.515 -2.6945  1.9476 -1.0129
42453SOL     OW33963  11.138   4.474  10.702 -0.2839  0.4345 -0.2783
42453SOL    HW133964  11.128   4.388  10.660  1.4503 -0.5681  1.2336
42453SOL    HW233965  11.089   4.534  10.646  0.2423 -1.1660 -2.5818
42454SOL     OW33966   0.261  10.306   1.882  0.2738 -0.0435  0.2049
42454SOL    HW133967   0.166  10.303   1.891  0.3931  0.9702  2.2063
42454SOL    HW233968   0.295  10.274   1.965  1.6762  0.5092 -0.1221
42455SOL     OW33969   0.506   8.139   4.983 -0.2569 -0.0089  0.5691
42455SOL    HW133970   0.411   8.127   4.975 -0.4649 -0.1091  2.6424
42455SOL    HW233971   0.542   8.050   4.984  0.0739  0.0399 -1.8113
42456SOL     OW33972   6.757   9.035   3.687  0.0759  0.2785  0.7080
42456SOL    HW133973   6.696   8.964   3.666  0.0960  0.5657 -0.3534
42456SOL    HW233974   6.743   9.051   3.781  0.8256 -1.8399  1.2399
42457SOL     OW33975  10.158   2.309   8.287  0.2152  0.3692 -0.2389
42457SOL    HW133976  10.224   2.378   8.281 -0.3117  0.9635  0.5931
42457SOL    HW233977  10.195   2.236   8.238  1.1054  0.9930 -0.5133
42458SOL     OW33978   5.768  12.114   4.015  0.5022 -0.2964 -0.2010
42458SOL    HW133979   5.831  12.097   4.085  0.5066  0.7364  0.0659
42458SOL    HW233980   5.683  12.092   4.053  0.1628  2.7542  1.1422
42459SOL     OW33981   4.035   1.004  11.287 -0.1857  0.2382 -0.0845
42459SOL    HW133982   4.001   0.915  11.293 -0.5973  0.4043  0.1287
42459SOL    HW233983   3.964   1.053  11.243  0.3808  0.2790 -0.9920
42460SOL     OW33984   9.900   4.790   7.981  0.2029  0.5198  1.1778
42460SOL    HW133985   9.987   4.820   8.010  1.0453 -0.8390  0.1538
42460SOL    HW233986   9.884   4.838   7.900  0.5936 -0.1784  0.6783
42461SOL     OW33987   9.530   0.981   2.521  0.2629 -0.0848  0.4057
42461SOL    HW133988   9.527   1.004   2.614 -0.4827  1.0172  0.1269
42461SOL    HW233989   9.472   1.045   2.479  0.0102 -1.0269 -0.7204
42462SOL     OW33990   9.706   3.330   1.442  0.2712  0.6044 -0.0518
42462SOL    HW133991   9.693   3.258   1.504  0.7645  0.0517 -0.5838
42462SOL    HW233992   9.679   3.408   1.491  0.3452  0.1384  0.7530
42463SOL     OW33993  11.469   7.712   7.522 -0.4157  0.1109  0.3229
42463SOL    HW133994  11.505   7.779   7.580  1.0099  0.4527 -0.9251
42463SOL    HW233995  11.542   7.654   7.504 -0.8957 -0.1200 -0.9508
42464SOL     OW33996   0.497   7.521   0.592  0.1070 -0.3548 -0.5036
42464SOL    HW133997   0.592   7.525   0.575  0.0160 -0.9278 -1.1505
42464SOL    HW233998   0.459   7.581   0.528  0.1873  1.6154  1.1823
42465SOL     OW33999  10.910   2.803  11.074  0.5043  0.8432 -0.2766
42465SOL    HW134000  10.932   2.877  11.018  0.3778  0.0497 -1.4138
42465SOL    HW234001  10.816   2.788  11.058  0.8428 -0.4801 -1.2337
42466SOL     OW34002   4.990   4.629  10.969 -0.1126 -0.1590  0.3682
42466SOL    HW134003   5.056   4.601  10.906 -0.4290 -1.2773  0.5098
42466SOL    HW234004   4.966   4.549  11.016 -1.3508  0.2758  0.5229
42467SOL     OW34005   1.742   1.499   9.464  0.0732  0.3878  0.3247
42467SOL    HW134006   1.751   1.404   9.475  0.4643  0.1404 -1.7203
42467SOL    HW234007   1.650   1.517   9.485 -0.1189 -0.5031  0.2860
42468SOL     OW34008   2.054   8.866  12.603 -0.1161 -0.8297 -0.1181
42468SOL    HW134009   1.987   8.933  12.610  1.1752  0.4261  0.8003
42468SOL    HW234010   2.045   8.815  12.684  2.3011  1.6391  1.9099
42469SOL     OW34011   6.811   2.592  12.089 -0.0749 -0.3903 -0.4601
42469SOL    HW134012   6.766   2.576  12.006 -0.9650 -0.8476  0.0916
42469SOL    HW234013   6.788   2.682  12.111  1.2900  0.2066 -1.3700
42470SOL     OW34014   1.398   2.913  10.623 -0.0116  0.0031 -0.2833
42470SOL    HW134015   1.389   2.823  10.592  1.7766 -0.8799  1.5150
42470SOL    HW234016   1.483   2.941  10.591  0.4157  0.2292  1.0006
42471SOL     OW34017   4.251   8.328   8.005 -0.0533 -0.6009  0.4271
42471SOL    HW134018   4.268   8.325   8.099  0.4098 -1.8380  0.3221
42471SOL    HW234019   4.198   8.407   7.993  0.3283 -0.1344  1.6450
42472SOL     OW34020   1.163   8.297   7.195 -0.8473 -0.0620 -0.5553
42472SOL    HW134021   1.189   8.213   7.233 -0.5425 -0.1106 -0.8637
42472SOL    HW234022   1.125   8.346   7.268  2.3777  1.0030  0.5838
42473SOL     OW34023   4.663  10.911   7.580 -0.0517  0.3288  0.7241
42473SOL    HW134024   4.608  10.877   7.509  1.3954 -2.4365  0.7898
42473SOL    HW234025   4.734  10.957   7.535 -0.3609  0.5679  0.4783
42474SOL     OW34026   5.617   7.054  12.493 -0.4669 -0.0924 -0.1522
42474SOL    HW134027   5.613   6.976  12.437  0.2129  0.1016 -0.4690
42474SOL    HW234028   5.573   7.122  12.443  0.6835  0.2450 -0.7268
42475SOL     OW34029   2.413   7.505   3.069  0.4117 -0.0288  0.0718
42475SOL    HW134030   2.436   7.574   3.007  0.3478 -0.7999 -0.8309
42475SOL    HW234031   2.338   7.539   3.116  1.3901  1.1996  0.8104
42476SOL     OW34032   7.023   2.419   6.746 -0.6471 -0.1135 -0.1560
42476SOL    HW134033   6.980   2.337   6.723 -0.7171  0.1890 -1.1381
42476SOL    HW234034   7.104   2.420   6.694 -0.2899  0.1132  0.3872
42477SOL     OW34035   7.111   3.112   2.394  0.0705  0.1102 -0.2350
42477SOL    HW134036   7.194   3.145   2.430  0.4714  0.5205 -1.4893
42477SOL    HW234037   7.136   3.073   2.310 -0.7588 -1.3193  0.1471
42478SOL     OW34038   5.534   7.290   8.901 -0.1779 -0.5764  0.5831
42478SOL    HW134039   5.539   7.306   8.806 -0.4542  0.2326  0.6896
42478SOL    HW234040   5.621   7.260   8.925 -0.1068 -0.7974  0.0663
42479SOL     OW34041  11.122   2.776   4.404  0.4639  0.9263 -0.1710
42479SOL    HW134042  11.101   2.692   4.444 -1.1638  1.0392 -0.7194
42479SOL    HW234043  11.200   2.806   4.452  2.1066 -1.6054 -1.0486
42480SOL     OW34044   0.130   3.926  12.275 -0.5054  0.4769 -0.3365
42480SOL    HW134045   0.082   3.879  12.343 -0.7883  0.9813 -0.1832
42480SOL    HW234046   0.062   3.968  12.222 -0.2423  1.1415 -0.1561
42481SOL     OW34047  11.155   7.660   8.713 -0.0581  0.2432  0.0533
42481SOL    HW134048  11.151   7.715   8.635 -0.1715  0.5601  0.2794
42481SOL    HW234049  11.123   7.716   8.783 -2.1068 -0.7197 -0.0400
42482SOL     OW34050   1.647   3.884   0.420  0.1910  0.7239  0.5505
42482SOL    HW134051   1.597   3.920   0.493 -2.0869  1.5102 -1.2639
42482SOL    HW234052   1.609   3.797   0.406 -0.6419  1.2578 -0.7315
42483SOL     OW34053   8.439  10.482  12.452 -0.3075 -0.2339  0.6798
42483SOL    HW134054   8.469  10.561  12.496  0.3596 -1.5781  2.7852
42483SOL    HW234055   8.344  10.491  12.447 -0.1854  0.9513  0.3245
42484SOL     OW34056   1.636   0.013  11.770  0.3488 -0.2249  0.1436
42484SOL    HW134057   1.695   0.085  11.748  1.2179 -0.7725  0.6499
42484SOL    HW234058   1.554   0.036  11.726  0.4152  1.3687  0.7725
42485SOL     OW34059   0.293   8.468   6.108 -0.0271 -0.0093  0.2219
42485SOL    HW134060   0.272   8.559   6.128  0.9337  0.6101 -1.4157
42485SOL    HW234061   0.357   8.443   6.174  0.2768  0.7680  0.2374
42486SOL     OW34062   8.774   4.404   0.400  0.1606  0.2950 -0.3673
42486SOL    HW134063   8.810   4.466   0.338  1.3827  1.5127  1.4522
42486SOL    HW234064   8.699   4.449   0.439  0.1882  0.0789 -0.0547
42487SOL     OW34065   7.060   6.541   2.680  0.7018 -0.0210 -0.3119
42487SOL    HW134066   7.085   6.519   2.590  2.1679  1.8367 -0.4265
42487SOL    HW234067   7.136   6.516   2.733  0.2379 -0.2068  0.2722
42488SOL     OW34068   0.057   1.757   0.846  0.4647 -0.4582 -0.1809
42488SOL    HW134069   0.058   1.846   0.811  3.1736 -0.0289  0.7239
42488SOL    HW234070   0.061   1.769   0.941 -0.4694 -1.5627  0.0101
42489SOL     OW34071   3.776   4.637   6.025 -0.1077  0.0779  0.0599
42489SOL    HW134072   3.822   4.714   6.056 -1.3984  1.0156 -0.2455
42489SOL    HW234073   3.724   4.608   6.100 -1.5047  1.0081 -0.5011
42490SOL     OW34074   2.565   2.246   5.200 -0.0476 -0.0848  0.0808
42490SOL    HW134075   2.616   2.229   5.121  0.5972 -0.5918  0.5908
42490SOL    HW234076   2.621   2.215   5.272 -0.2652  1.1231  0.8040
42491SOL     OW34077   6.241   1.916   7.408  0.2249  0.0306 -0.1952
42491SOL    HW134078   6.154   1.893   7.375 -0.3077  0.9834  0.4894
42491SOL    HW234079   6.251   2.008   7.386  0.6958  0.1532  0.5213
42492SOL     OW34080   2.192   3.099   9.498  0.2696  0.3586  0.7776
42492SOL    HW134081   2.104   3.101   9.534 -0.0135 -0.0625  0.1105
42492SOL    HW234082   2.214   3.006   9.491  0.4142  0.4408  0.0987
42493SOL     OW34083   3.365   1.401   3.279  0.1830  0.0738  0.1621
42493SOL    HW134084   3.347   1.323   3.226  0.8533 -0.0775  0.1459
42493SOL    HW234085   3.380   1.471   3.216  1.6115 -0.2441  0.1064
42494SOL     OW34086   5.311   0.922   7.703 -0.0213  0.1596 -0.0077
42494SOL    HW134087   5.245   0.967   7.756  1.6803  1.1192  1.3969
42494SOL    HW234088   5.275   0.835   7.689 -1.3605  0.4965  1.1172
42495SOL     OW34089   9.899  12.677   6.688 -0.0242  0.1210 -0.1826
42495SOL    HW134090   9.965  12.611   6.711  1.5873  1.3632 -0.9977
42495SOL    HW234091   9.871  12.713   6.771 -1.3052 -1.8724  0.3237
42496SOL     OW34092   6.368   4.320   3.041  0.0770  0.1555  0.5889
42496SOL    HW134093   6.393   4.405   3.006 -0.7988  0.5153  0.8049
42496SOL    HW234094   6.329   4.273   2.967  0.9671 -0.2382  0.3591
42497SOL     OW34095  11.674   8.613   9.529 -0.0893 -0.1748  0.5645
42497SOL    HW134096  11.632   8.595   9.445  2.1875  1.3959 -1.0425
42497SOL    HW234097  11.674   8.708   9.536 -0.9171 -0.2949  2.7859
42498SOL     OW34098   0.779   1.701   0.011  0.4278  0.2029  0.0427
42498SOL    HW134099   0.723   1.669  -0.060  0.2147  1.2286 -0.2792
42498SOL    HW234100   0.854   1.740  -0.034 -0.5492  2.4826  0.2140
42499SOL     OW34101   7.012   5.037   3.356  0.1482  0.1649  0.8963
42499SOL    HW134102   7.080   5.103   3.370 -0.3019  0.4560  1.7508
42499SOL    HW234103   6.938   5.067   3.407  0.3037 -1.5602  2.2204
42500SOL     OW34104  12.549   1.867   0.630 -0.0509 -0.3073 -0.0878
42500SOL    HW134105  12.607   1.793   0.646  0.9234  0.2884 -0.8207
42500SOL    HW234106  12.476   1.831   0.580  0.2905 -0.8186 -0.2150
42501SOL     OW34107  11.047  11.745  11.387  0.0888  0.5358  0.1634
42501SOL    HW134108  10.974  11.773  11.331 -0.2153 -0.4385  0.0581
42501SOL    HW234109  11.088  11.673  11.340  2.2455  2.1638 -0.6195
42502SOL     OW34110   9.912  11.426   1.223  0.0462  0.1388 -0.3905
42502SOL    HW134111   9.987  11.474   1.257 -0.8794  1.1930  0.2257
42502SOL    HW234112   9.914  11.442   1.128  1.1026 -0.6051 -0.5127
42503SOL     OW34113   8.305   6.486   0.998 -0.5857  0.7337  0.5374
42503SOL    HW134114   8.258   6.565   1.025 -0.3556  0.8141  0.6982
42503SOL    HW234115   8.296   6.426   1.071 -1.8433  0.1352 -0.0813
42504SOL     OW34116   2.841   3.209   0.448  0.2960  0.1589  0.0164
42504SOL    HW134117   2.856   3.172   0.361  0.8103  0.0047  0.1690
42504SOL    HW234118   2.807   3.297   0.431 -0.8328 -0.3327 -0.3439
42505SOL     OW34119   6.901  12.434   9.936 -0.0210  0.3824 -0.0597
42505SOL    HW134120   6.835  12.475   9.992 -0.6759 -0.4547 -0.1922
42505SOL    HW234121   6.911  12.493   9.862 -0.2988  0.7376  0.1860
42506SOL     OW34122   0.034  12.491   9.156  0.4910 -0.9504 -0.2994
42506SOL    HW134123   0.019  12.566   9.214  1.0282  0.4679 -1.9071
42506SOL    HW234124  -0.054  12.460   9.133  0.2507 -0.4703 -0.0399
42507SOL     OW34125   8.855   7.109   5.926  0.7377  0.2091  0.5323
42507SOL    HW134126   8.813   7.073   5.848  1.1128  0.1728  0.3469
42507SOL    HW234127   8.948   7.092   5.913  0.6309 -2.4554  2.2973
42508SOL     OW34128   0.670   8.288  10.632  0.3188  0.4679  0.2146
42508SOL    HW134129   0.587   8.304  10.587  0.8526 -0.8080 -1.3111
42508SOL    HW234130   0.737   8.321  10.572  0.9689  1.1082  1.2501
42509SOL     OW34131   1.495   1.039  10.368  0.7019  0.4407  0.2868
42509SOL    HW134132   1.464   0.987  10.442  0.3940 -0.2267 -0.2971
42509SOL    HW234133   1.426   1.104  10.354 -0.0021 -0.4296 -0.3969
42510SOL     OW34134   8.999   8.861  11.582  0.2689  1.0360 -0.2201
42510SOL    HW134135   8.986   8.776  11.540 -1.7763  1.1205  0.1646
42510SOL    HW234136   9.091   8.883  11.564  0.7640 -1.1176 -0.5382
42511SOL     OW34137   0.725  10.643   5.587  0.3588 -0.2042 -0.3489
42511SOL    HW134138   0.772  10.589   5.523  1.0552  1.4801 -1.3165
42511SOL    HW234139   0.633  10.634   5.563  0.3886 -1.4282 -0.0905
42512SOL     OW34140   3.606   0.553   9.457 -0.0829 -0.5549  0.1113
42512SOL    HW134141   3.624   0.514   9.543 -0.6103  0.2787  0.6161
42512SOL    HW234142   3.512   0.571   9.459 -0.1386 -0.7366 -0.7392
42513SOL     OW34143   6.349   2.335  10.089  0.4959 -0.8577 -0.3503
42513SOL    HW134144   6.429   2.356  10.138  0.6543 -0.4532 -0.7738
42513SOL    HW234145   6.297   2.281  10.149  0.8886 -0.7483  0.0920
42514SOL     OW34146   9.873   7.810  10.284 -0.0806 -0.3421 -0.1935
42514SOL    HW134147   9.920   7.736  10.245  0.7308  1.0717 -2.0993
42514SOL    HW234148   9.803   7.771  10.336  0.1199 -2.4220 -1.4051
42515SOL     OW34149   9.980   3.196   8.623 -0.0012  0.4314 -0.0739
42515SOL    HW134150  10.046   3.192   8.693 -0.3959  0.1023  0.2843
42515SOL    HW234151  10.030   3.216   8.544  0.4066  1.2177  0.3643
42516SOL     OW34152   3.135   2.617   7.928 -0.0067  0.4273 -0.6830
42516SOL    HW134153   3.094   2.605   8.014 -1.0587  0.4320 -1.1615
42516SOL    HW234154   3.201   2.548   7.923 -0.8182 -0.4053 -0.3704
42517SOL     OW34155   4.450  12.197  12.388  0.1841  0.6483 -0.0762
42517SOL    HW134156   4.512  12.125  12.396  0.8274  1.0510 -1.1957
42517SOL    HW234157   4.499  12.266  12.343 -0.2972  1.9354  1.3139
42518SOL     OW34158   0.089  11.390   3.859 -0.1284  0.2231 -0.0344
42518SOL    HW134159   0.068  11.332   3.932  0.9198 -0.1373 -0.0109
42518SOL    HW234160   0.152  11.341   3.806 -1.0485  0.3761 -1.3294
42519SOL     OW34161   7.243   9.480  12.211 -0.0818  0.1898 -0.1125
42519SOL    HW134162   7.317   9.440  12.258 -0.6060 -0.0401  0.5284
42519SOL    HW234163   7.283   9.551  12.161  1.1421 -1.9723 -2.4541
42520SOL     OW34164   5.215  11.129   3.125  0.1322  0.4326  0.3475
42520SOL    HW134165   5.131  11.171   3.142  0.9279  1.9839  0.6216
42520SOL    HW234166   5.219  11.057   3.187  0.4214  2.3912  2.7586
42521SOL     OW34167  10.242   1.463  11.106 -0.3140 -0.0486  0.5088
42521SOL    HW134168  10.267   1.541  11.057  1.2470 -0.9502 -0.1824
42521SOL    HW234169  10.240   1.492  11.198  0.9888  0.6269  0.3341
42522SOL     OW34170  10.700   2.627  10.938  0.1862  0.0796 -0.0940
42522SOL    HW134171  10.766   2.684  10.898  0.7464 -0.5042 -0.0091
42522SOL    HW234172  10.652   2.591  10.864  0.2963  0.1031 -0.1772
42523SOL     OW34173   0.981  10.160   3.529  0.2542  0.3682 -0.5767
42523SOL    HW134174   1.042  10.193   3.595 -0.2156  0.2946 -0.1000
42523SOL    HW234175   0.970  10.067   3.550  0.6857  0.1657 -1.2212
42524SOL     OW34176   5.590   8.765   0.849 -0.0134  0.0521 -0.3084
42524SOL    HW134177   5.664   8.791   0.794  0.2464 -0.1096 -0.0382
42524SOL    HW234178   5.533   8.843   0.850 -0.3996 -0.1970 -1.4115
42525SOL     OW34179   0.253   1.672   5.741  0.3049 -0.2901  0.1285
42525SOL    HW134180   0.172   1.708   5.776 -0.5651 -1.4043 -0.6484
42525SOL    HW234181   0.269   1.593   5.793  0.6386 -0.3272 -0.0259
42526SOL     OW34182   6.564   1.457  12.656 -0.2005  1.1284 -0.5366
42526SOL    HW134183   6.619   1.535  12.653  0.2326  0.8444 -0.1282
42526SOL    HW234184   6.568   1.428  12.747  0.1151  0.2946 -0.8075
42527SOL     OW34185   7.634   4.264  12.724  0.5252  0.1066  0.2546
42527SOL    HW134186   7.696   4.200  12.688  0.0588  0.4459 -1.2281
42527SOL    HW234187   7.610   4.228  12.809  0.9649 -1.2323 -0.1537
42528SOL     OW34188   4.896  12.405   8.622 -1.0113  0.5077 -0.2519
42528SOL    HW134189   4.988  12.385   8.640 -0.9621 -0.0190 -1.0546
42528SOL    HW234190   4.849  12.327   8.649 -1.1558  0.5358 -0.4229
42529SOL     OW34191  10.736   2.417  12.733 -0.4373  0.3270  0.6892
42529SOL    HW134192  10.690   2.501  12.721  0.1130  0.6630  0.8752
42529SOL    HW234193  10.679   2.352  12.693 -0.6464  0.8611  0.1059
42530SOL     OW34194   2.038  10.155   0.956  0.2802  0.2339 -0.2522
42530SOL    HW134195   2.037  10.141   1.050  0.4084 -1.9354 -0.5159
42530SOL    HW234196   1.951  10.188   0.935  0.5059  1.4897  0.6882
42531SOL     OW34197  10.659   0.235  10.595 -0.0513  0.1892  0.8262
42531SOL    HW134198  10.686   0.149  10.562  0.3312  0.4305  0.4991
42531SOL    HW234199  10.606   0.273  10.524  2.8660  1.7765 -0.6830
42532SOL     OW34200   8.468   2.306   7.598  0.6599 -0.4495  0.2011
42532SOL    HW134201   8.487   2.294   7.691 -0.3532  1.9565  0.7965
42532SOL    HW234202   8.528   2.374   7.569  2.1136 -2.2869 -1.4145
42533SOL     OW34203   8.983   7.605   3.105  0.1477  0.3809  0.2251
42533SOL    HW134204   9.066   7.559   3.114  0.0423  0.3831  1.3032
42533SOL    HW234205   8.926   7.566   3.171 -0.7647  0.2752 -0.6057
42534SOL     OW34206  12.718   6.492   1.643 -0.1774  0.0391  0.4655
42534SOL    HW134207  12.753   6.431   1.707 -0.1888 -0.6290 -0.1473
42534SOL    HW234208  12.791   6.511   1.584 -0.5457 -0.5139 -0.1856
42535SOL     OW34209   6.520  11.148   8.112  0.1125 -0.1622  0.2594
42535SOL    HW134210   6.453  11.216   8.101  0.5096  0.3267  0.8227
42535SOL    HW234211   6.599  11.187   8.075  0.1885 -0.5746 -0.0125
42536SOL     OW34212   0.533   5.263   8.168  0.1073  0.4367  0.0297
42536SOL    HW134213   0.615   5.303   8.197  0.3726  1.2114 -1.6535
42536SOL    HW234214   0.467   5.332   8.180  0.0873  0.5117 -0.4702
42537SOL     OW34215  12.150   6.636   5.794  0.5588 -0.2544  0.1515
42537SOL    HW134216  12.189   6.566   5.741 -0.4195 -0.4541 -0.3379
42537SOL    HW234217  12.211   6.709   5.788  0.0174  0.0712 -2.0886
42538SOL     OW34218   1.218   9.628   6.710  0.0406 -0.4054 -0.6568
42538SOL    HW134219   1.239   9.658   6.799 -0.5534  0.4378 -0.7916
42538SOL    HW234220   1.189   9.537   6.722 -0.1074 -0.2742  0.0234
42539SOL     OW34221  10.643   8.505   8.485  0.2162  0.3412 -0.1713
42539SOL    HW134222  10.590   8.447   8.539  0.6899 -0.6519 -0.7428
42539SOL    HW234223  10.700   8.550   8.547  0.5694 -0.5871  0.1910
42540SOL     OW34224  10.102   9.107   8.336 -0.4079  0.0425  0.1216
42540SOL    HW134225  10.063   9.037   8.388 -2.1105  0.4158 -0.5675
42540SOL    HW234226  10.165   9.148   8.394 -2.1078  0.3197  1.8796
42541SOL     OW34227   9.162  10.450   1.522 -0.0751  0.2151  0.3254
42541SOL    HW134228   9.181  10.468   1.615  0.2006  0.4908  0.2174
42541SOL    HW234229   9.076  10.491   1.507  0.2860  0.9468  0.2314
42542SOL     OW34230   6.411   4.896   0.074 -0.3999  0.2954 -0.0302
42542SOL    HW134231   6.487   4.946   0.105 -0.3398  1.6023 -2.0839
42542SOL    HW234232   6.419   4.811   0.117  1.4165  0.8807  0.9100
42543SOL     OW34233   8.522   7.637  11.406 -0.2521  0.2183 -0.0139
42543SOL    HW134234   8.432   7.670  11.398  0.0940  0.9950 -0.9053
42543SOL    HW234235   8.543   7.647  11.498 -1.1198 -0.0793  0.2299
42544SOL     OW34236   8.298   2.181   1.997 -0.4227  0.1166 -0.2118
42544SOL    HW134237   8.359   2.129   1.944  0.5266  0.1341  0.8260
42544SOL    HW234238   8.297   2.267   1.955  0.5446  0.2196 -0.0329
42545SOL     OW34239   4.283   7.400  12.747 -0.2654  0.6700 -0.0884
42545SOL    HW134240   4.313   7.445  12.668 -1.0268 -1.1809 -1.5129
42545SOL    HW234241   4.360   7.352  12.778 -0.2283  0.5528 -0.3535
42546SOL     OW34242   5.109   6.161   5.558  0.1125  0.1493  0.0995
42546SOL    HW134243   5.025   6.207   5.562  0.0388 -0.0022  0.3262
42546SOL    HW234244   5.152   6.197   5.481  0.3842  1.1431  0.6979
42547SOL     OW34245   7.477   5.184   0.994 -0.6831 -0.0880  0.0640
42547SOL    HW134246   7.496   5.107   1.047  0.5071  1.4088  1.9432
42547SOL    HW234247   7.562   5.225   0.978 -1.3531  1.3166 -0.1323
42548SOL     OW34248  12.211   1.856   2.087 -0.0775 -0.7177  0.2302
42548SOL    HW134249  12.209   1.850   1.992  0.4223 -0.6613  0.2102
42548SOL    HW234250  12.283   1.798   2.113  1.5209  1.2086  0.3822
42549SOL     OW34251  11.928  10.292   8.816 -0.4529  0.5763 -0.2678
42549SOL    HW134252  11.974  10.228   8.760 -1.7308  0.2158 -0.9372
42549SOL    HW234253  11.864  10.332   8.757 -0.8711  1.1972  0.6077
42550SOL     OW34254   3.199  10.205   7.511 -0.1531 -0.1073  0.4926
42550SOL    HW134255   3.220  10.231   7.421 -1.0818 -1.7739 -0.2508
42550SOL    HW234256   3.273  10.150   7.537 -0.5165 -0.7114  0.2528
42551SOL     OW34257   3.947   2.232   6.582  0.0362  0.5116 -0.2089
42551SOL    HW134258   3.955   2.180   6.662  2.2295  0.7885 -0.2000
42551SOL    HW234259   3.871   2.195   6.537  0.1380 -1.1645  0.9045
42552SOL     OW34260  11.479  11.724   8.546 -0.0541 -0.0560 -0.1136
42552SOL    HW134261  11.499  11.694   8.635 -0.1259 -3.0601 -1.0084
42552SOL    HW234262  11.515  11.813   8.542 -0.3687  0.3172  2.9910
42553SOL     OW34263   3.072   6.837   8.107 -0.5083 -0.2507 -0.0496
42553SOL    HW134264   3.098   6.770   8.170  0.5308 -0.7956 -1.0320
42553SOL    HW234265   2.989   6.805   8.070 -0.3393 -0.6772 -0.0572
42554SOL     OW34266   5.687   1.363   7.109  0.3494 -0.4055 -0.3507
42554SOL    HW134267   5.600   1.396   7.132  1.0188  0.2198  1.5518
42554SOL    HW234268   5.675   1.269   7.101 -0.4182 -0.4010  0.4725
42555SOL     OW34269   9.423   9.512   3.724  0.1826  0.3609 -0.4946
42555SOL    HW134270   9.484   9.445   3.694  0.1922 -0.1342  0.5949
42555SOL    HW234271   9.455   9.537   3.810 -1.2453 -0.0407  0.1784
42556SOL     OW34272   2.793   1.555   1.962  0.1117 -0.0873  0.8934
42556SOL    HW134273   2.734   1.552   1.887  0.6110  1.7351  0.3719
42556SOL    HW234274   2.742   1.519   2.035 -1.2657  0.4352  0.2230
42557SOL     OW34275   2.959   5.101   9.740 -0.2316  0.5582  0.1779
42557SOL    HW134276   2.863   5.108   9.744 -0.1970  0.2555  2.4104
42557SOL    HW234277   2.978   5.014   9.774  0.8970  0.9705  0.6286
42558SOL     OW34278  10.275   6.210  11.726 -0.0269  0.6899  0.0893
42558SOL    HW134279  10.238   6.183  11.642 -0.2045  1.0049  0.0663
42558SOL    HW234280  10.209   6.268  11.763  0.7439  1.8159 -0.2643
42559SOL     OW34281   6.857   4.448  11.138 -0.2097  0.1206  0.5795
42559SOL    HW134282   6.779   4.497  11.110 -0.6059 -0.7715  0.0874
42559SOL    HW234283   6.846   4.438  11.233 -0.2618  0.7453  0.6426
42560SOL     OW34284   1.524   2.931   2.133  0.1022  0.8220  0.3795
42560SOL    HW134285   1.609   2.923   2.088 -0.3701  0.6513 -0.5082
42560SOL    HW234286   1.511   2.846   2.174 -0.5736  0.1231 -1.2097
42561SOL     OW34287  11.027   1.719  11.192  0.6964  0.4657  0.5497
42561SOL    HW134288  10.932   1.727  11.200  0.6407 -0.6416  1.2136
42561SOL    HW234289  11.040   1.674  11.108  0.6099  0.2061  0.6745
42562SOL     OW34290   8.447  10.661   4.337 -0.0385 -0.3408  0.0941
42562SOL    HW134291   8.356  10.672   4.311 -1.0239 -1.3358  2.8030
42562SOL    HW234292   8.460  10.566   4.342  0.5842 -0.2113  1.4270
42563SOL     OW34293   0.655   3.772  11.203  0.0461  0.0007  0.3544
42563SOL    HW134294   0.674   3.805  11.115 -0.2423  0.2964  0.4013
42563SOL    HW234295   0.656   3.676  11.193  2.0351 -0.0258  0.4618
42564SOL     OW34296   7.839   4.481  12.173 -0.0729  0.4592 -0.3147
42564SOL    HW134297   7.890   4.449  12.247  1.1545  0.3591 -1.1798
42564SOL    HW234298   7.828   4.575  12.190 -0.4139  0.3081  0.3328
42565SOL     OW34299  11.705   9.675  10.187 -0.5088 -0.1306  0.0699
42565SOL    HW134300  11.703   9.631  10.272  2.7686 -0.5258  0.0643
42565SOL    HW234301  11.794   9.708  10.179 -0.4834 -0.6767 -3.4796
42566SOL     OW34302   5.651   4.338   9.949 -0.0562 -0.3821  0.1635
42566SOL    HW134303   5.703   4.417   9.967 -0.8472 -0.3311  2.5349
42566SOL    HW234304   5.658   4.326   9.855  3.3441  0.2475  0.2120
42567SOL     OW34305  11.231   1.896  12.240  0.6610  0.0169  0.2353
42567SOL    HW134306  11.207   1.925  12.328 -2.6987  2.0444 -1.1570
42567SOL    HW234307  11.284   1.967  12.205  2.2482 -0.9208  0.6355
42568SOL     OW34308   2.267   9.218   4.702 -0.1428  0.1722  0.1386
42568SOL    HW134309   2.322   9.261   4.636  0.3663 -0.6228  0.0256
42568SOL    HW234310   2.323   9.209   4.779 -0.4586  0.3182  0.3889
42569SOL     OW34311   2.953  12.381   8.962  0.7232  0.6420 -0.3587
42569SOL    HW134312   2.861  12.359   8.947  0.6451  0.9129 -0.2742
42569SOL    HW234313   2.977  12.437   8.888  0.4788  1.5681  0.2435
42570SOL     OW34314   7.221   6.174  11.395  0.1374 -0.0219  0.4497
42570SOL    HW134315   7.164   6.118  11.342 -0.9594  0.4532  1.0863
42570SOL    HW234316   7.201   6.263  11.366 -0.2964  0.2292  1.4577
42571SOL     OW34317   5.117   7.369   2.374 -0.0848 -0.4454  0.8193
42571SOL    HW134318   5.173   7.321   2.435  0.0515 -0.3455  0.7751
42571SOL    HW234319   5.061   7.423   2.430  0.5684  0.2276  0.8374
42572SOL     OW34320   2.563  11.934  11.003 -0.0967  0.5090  0.1760
42572SOL    HW134321   2.582  11.965  10.915 -1.1010  1.4222  0.2599
42572SOL    HW234322   2.541  12.013  11.052 -1.1406 -0.1536  0.8209
42573SOL     OW34323   3.833   0.026   8.344  0.1544 -0.3350  0.5659
42573SOL    HW134324   3.738   0.013   8.340  0.1262 -0.3243  1.1806
42573SOL    HW234325   3.860   0.034   8.252 -0.4472 -0.2648  0.3932
42574SOL     OW34326  11.176   1.874   7.624 -0.3497 -0.3169 -0.4459
42574SOL    HW134327  11.169   1.949   7.683  0.9969  0.0261 -0.6802
42574SOL    HW234328  11.191   1.800   7.682 -0.9954 -0.3103 -0.2556
42575SOL     OW34329  10.778   3.039   0.589  0.4314 -0.1954 -0.2315
42575SOL    HW134330  10.873   3.037   0.599  0.4529  1.0411  0.0322
42575SOL    HW234331  10.762   3.008   0.500  1.2071  1.1073 -0.8524
42576SOL     OW34332  12.144   4.352   6.441 -0.4416  0.0672 -0.0477
42576SOL    HW134333  12.208   4.379   6.508 -1.3576  0.6247  0.6259
42576SOL    HW234334  12.185   4.277   6.399  1.1082  1.0131 -0.3230
42577SOL     OW34335   6.416   5.636   3.280  0.0603 -0.1512  0.2407
42577SOL    HW134336   6.339   5.625   3.225 -0.7354  0.4439  1.2012
42577SOL    HW234337   6.414   5.728   3.307  1.4813  0.0493 -0.2535
42578SOL     OW34338  10.974  11.812   5.379 -0.2315  0.2858  0.3488
42578SOL    HW134339  11.065  11.792   5.357  0.0397 -0.0658  1.7135
42578SOL    HW234340  10.933  11.831   5.295  0.6074 -1.5172 -0.5251
42579SOL     OW34341   9.296   0.720   9.068 -0.2140  0.1064 -0.6616
42579SOL    HW134342   9.355   0.687   9.136  0.8161 -0.4623 -1.7892
42579SOL    HW234343   9.223   0.659   9.068 -0.4599  0.3831  0.2411
42580SOL     OW34344   6.707   6.365   0.271 -0.0562 -0.2413  0.1735
42580SOL    HW134345   6.663   6.419   0.337  0.7761  0.8376 -0.1088
42580SOL    HW234346   6.695   6.414   0.189 -0.1256 -1.0031 -0.2843
42581SOL     OW34347  10.029   4.355   8.149  0.4451  0.6675 -0.0684
42581SOL    HW134348  10.055   4.390   8.234  0.0556 -0.3927  0.5058
42581SOL    HW234349   9.957   4.412   8.121 -1.3123 -0.5842  1.6276
42582SOL     OW34350   4.560   8.591   6.842  0.7369 -0.3879  0.0039
42582SOL    HW134351   4.530   8.511   6.884  2.2953  0.0733  2.1466
42582SOL    HW234352   4.505   8.599   6.763 -1.9592 -1.6104  1.6095
42583SOL     OW34353  10.434   1.384   1.986 -1.0965  0.1899  0.2231
42583SOL    HW134354  10.434   1.289   1.974 -0.3563  0.2672 -0.4623
42583SOL    HW234355  10.503   1.400   2.050 -0.7965  0.3134 -0.1276
42584SOL     OW34356   4.980   4.503   1.359  0.0194 -0.2612  0.0190
42584SOL    HW134357   4.932   4.584   1.343 -0.6596 -0.7028 -0.1925
42584SOL    HW234358   5.064   4.516   1.315 -1.8295 -1.5311 -4.4526
42585SOL     OW34359   2.437   2.456  11.476 -0.2887  0.1575  0.3889
42585SOL    HW134360   2.485   2.509  11.412 -0.2687 -0.0215  0.2549
42585SOL    HW234361   2.440   2.508  11.556  0.8002 -0.1829  0.5969
42586SOL     OW34362   3.846   7.269   6.231 -0.7939 -0.2862  0.2137
42586SOL    HW134363   3.824   7.259   6.138 -1.4014 -0.3817  0.3660
42586SOL    HW234364   3.869   7.361   6.240 -1.3415 -0.1356  0.0956
42587SOL     OW34365  11.633  10.364   7.517  0.3543 -0.4345 -0.2222
42587SOL    HW134366  11.721  10.334   7.494  0.6696 -0.7314  1.2528
42587SOL    HW234367  11.592  10.387   7.433  2.4472  1.4387 -0.8027
42588SOL     OW34368   9.563  12.511  11.525  0.7849  0.2195 -0.7252
42588SOL    HW134369   9.586  12.487  11.435  0.8624  1.5016 -1.0806
42588SOL    HW234370   9.647  12.533  11.566  0.7656 -0.5145 -0.2895
42589SOL     OW34371   7.585   8.225   1.056  0.1252  0.2958  0.2737
42589SOL    HW134372   7.628   8.294   1.106  0.9830  0.2203 -0.3392
42589SOL    HW234373   7.587   8.148   1.113  0.3282  0.4349  0.4527
42590SOL     OW34374  12.114   3.952   3.428  0.4916  0.0543  0.0434
42590SOL    HW134375  12.071   3.937   3.344  0.9395  0.1413 -0.2039
42590SOL    HW234376  12.063   3.901   3.491 -0.6736  1.0790 -0.0385
42591SOL     OW34377   7.102   9.668   3.959 -0.0775 -0.5740  0.0737
42591SOL    HW134378   7.046   9.591   3.959 -2.6078  1.1184 -1.7842
42591SOL    HW234379   7.050   9.736   3.916  1.7162  2.4092  2.1971
42592SOL     OW34380   7.809   6.109  11.690 -0.2311 -0.4294 -0.2525
42592SOL    HW134381   7.788   6.037  11.631 -0.0467  1.0795 -2.2333
42592SOL    HW234382   7.748   6.179  11.666  0.2980  0.4703  0.9074
42593SOL     OW34383   4.667  12.083   9.825  0.0780 -0.1837  0.3139
42593SOL    HW134384   4.742  12.038   9.866 -0.5448  0.2518  2.0217
42593SOL    HW234385   4.695  12.175   9.819  0.0480 -0.1927  0.0323
42594SOL     OW34386   7.294   6.496  11.660  0.2830  0.1366 -0.1769
42594SOL    HW134387   7.271   6.570  11.603 -0.9404 -0.2172 -0.1670
42594SOL    HW234388   7.218   6.438  11.656  0.3228 -0.0829  1.5244
42595SOL     OW34389   9.024   1.099   2.954  0.0904  0.3030  0.6925
42595SOL    HW134390   8.971   1.159   2.902  0.1410  1.3712  1.8036
42595SOL    HW234391   9.046   1.027   2.895 -0.8087  0.8985 -0.3917
42596SOL     OW34392   8.795  11.085   5.499 -0.2651 -0.3121  0.6335
42596SOL    HW134393   8.820  11.006   5.451 -0.1743 -2.2325  3.5881
42596SOL    HW234394   8.859  11.092   5.569 -1.1095  1.6105  1.2872
42597SOL     OW34395   5.548  10.789   7.861 -0.3619 -0.1590  0.0288
42597SOL    HW134396   5.487  10.862   7.869  0.1176  0.3890 -1.1147
42597SOL    HW234397   5.620  10.812   7.920  0.3653  0.9167 -1.2429
42598SOL     OW34398   1.189   7.975   4.524  0.5578 -0.2207 -0.5917
42598SOL    HW134399   1.213   8.067   4.514 -0.0666 -0.0970 -0.9756
42598SOL    HW234400   1.249   7.927   4.467 -0.6336  0.1661 -2.2621
42599SOL     OW34401   2.631   1.477   5.989 -0.1976  0.0802 -0.1018
42599SOL    HW134402   2.570   1.513   6.054 -0.5345 -0.6668  0.0143
42599SOL    HW234403   2.593   1.502   5.905 -0.1569  0.4255 -0.0172
42600SOL     OW34404   1.566   4.127  11.381 -0.1056 -0.6801  0.0904
42600SOL    HW134405   1.591   4.154  11.293  1.6373  0.7415  0.9571
42600SOL    HW234406   1.492   4.068  11.368  0.7315 -1.2846 -2.3625
42601SOL     OW34407   7.710   1.605  11.511  0.5222  0.3700 -0.4588
42601SOL    HW134408   7.710   1.522  11.462 -1.6256  1.2919 -2.1722
42601SOL    HW234409   7.619   1.619  11.535  1.0196  1.7099  0.8061
42602SOL     OW34410   4.181   6.682   7.922  0.0054 -0.3657 -0.3541
42602SOL    HW134411   4.255   6.723   7.966 -0.4413  0.2530 -0.1748
42602SOL    HW234412   4.218   6.644   7.842  0.3357  0.8376 -0.7866
42603SOL     OW34413   1.695   8.000   7.943  0.1921 -0.1783  0.1226
42603SOL    HW134414   1.692   7.955   8.028 -1.1994  1.5008  1.0310
42603SOL    HW234415   1.788   8.015   7.926  0.4688  0.0556  1.7054
42604SOL     OW34416   9.626   8.938  12.212 -0.3597 -0.6618 -0.0096
42604SOL    HW134417   9.712   8.897  12.220 -0.0275 -0.0282 -0.3378
42604SOL    HW234418   9.629   8.986  12.130 -1.0431 -0.6608 -0.0397
42605SOL     OW34419  11.322   4.490   7.743 -0.4956 -0.2578  0.1976
42605SOL    HW134420  11.304   4.565   7.686 -1.1726 -0.6505 -0.1197
42605SOL    HW234421  11.336   4.417   7.683 -0.8858 -0.6066  0.5219
42606SOL     OW34422   8.469   9.559   7.681 -0.5173 -0.4437  0.1106
42606SOL    HW134423   8.377   9.534   7.677 -0.7620  0.3715  0.5828
42606SOL    HW234424   8.512   9.485   7.725 -0.8623 -1.0310 -0.5275
42607SOL     OW34425   7.294   0.346   2.528  0.2262  0.2724 -0.5012
42607SOL    HW134426   7.332   0.415   2.475 -0.0867  0.2334 -0.7797
42607SOL    HW234427   7.262   0.281   2.465  0.9037 -0.3331 -0.2302
42608SOL     OW34428   9.887   9.730   8.890 -0.1555  0.1943 -0.7495
42608SOL    HW134429   9.879   9.647   8.844 -0.4565  0.2947 -0.8779
42608SOL    HW234430   9.813   9.731   8.951 -0.0609  0.2947 -0.6356
42609SOL     OW34431  10.499   5.591  12.713  0.2765 -0.3725 -0.3351
42609SOL    HW134432  10.532   5.518  12.659  0.5341 -0.2878 -0.2942
42609SOL    HW234433  10.470   5.549  12.794 -0.5879 -0.5686 -0.7278
42610SOL     OW34434   0.989   1.461   1.240 -0.6990  0.3467  0.6487
42610SOL    HW134435   1.047   1.433   1.311 -0.5255  0.3791  0.5217
42610SOL    HW234436   0.973   1.382   1.188 -1.0120  0.2746  0.8544
42611SOL     OW34437   0.215   5.171   4.395  0.1888 -0.3499 -0.2389
42611SOL    HW134438   0.184   5.225   4.322 -2.2163  0.4239  1.2458
42611SOL    HW234439   0.292   5.218   4.428 -0.3748  0.8335 -0.5434
42612SOL     OW34440   5.299   2.926  12.335  0.1885 -0.0389 -0.1807
42612SOL    HW134441   5.352   2.870  12.393  0.0035  1.8254  1.9171
42612SOL    HW234442   5.363   2.971  12.281  0.4937 -0.4278 -0.1535
42613SOL     OW34443   5.409   1.658   9.509 -0.6478  0.3287 -0.6109
42613SOL    HW134444   5.409   1.747   9.474 -2.0710  0.2635 -0.8291
42613SOL    HW234445   5.477   1.613   9.459 -0.5612  1.0399 -1.1481
42614SOL     OW34446   0.174   8.665   5.422  0.2089  0.0705 -0.2997
42614SOL    HW134447   0.158   8.758   5.439  0.8187  0.0585  0.3663
42614SOL    HW234448   0.208   8.663   5.332  0.0496  0.4738 -0.3708
42615SOL     OW34449  11.042   1.919   6.551 -0.2835  0.2247 -0.0532
42615SOL    HW134450  11.021   1.855   6.619 -0.8065 -0.2059 -0.6094
42615SOL    HW234451  11.137   1.919   6.547 -0.2752 -0.3857  0.0785
42616SOL     OW34452   9.902   4.561   9.896  0.0958  0.2104  0.1790
42616SOL    HW134453   9.952   4.569   9.815  0.7929  1.4634  0.7125
42616SOL    HW234454   9.811   4.570   9.869  0.1130 -1.7086 -0.7522
42617SOL     OW34455   1.667   5.033   1.012  0.2753  0.2987 -0.0575
42617SOL    HW134456   1.749   5.003   0.973 -0.1375 -2.0569  0.7074
42617SOL    HW234457   1.610   5.052   0.938  0.0770 -2.4357 -0.7276
42618SOL     OW34458   5.361  12.029   0.372 -0.3376  0.2019 -0.0286
42618SOL    HW134459   5.455  12.044   0.385 -0.2720 -1.0210  1.1508
42618SOL    HW234460   5.336  12.092   0.305  1.6550 -0.5106 -1.5799
42619SOL     OW34461  11.715   9.720   0.146  0.3347 -0.1830 -0.3706
42619SOL    HW134462  11.670   9.733   0.063  1.4571  0.6997 -0.8718
42619SOL    HW234463  11.769   9.642   0.133 -2.4379 -2.4967  0.8947
42620SOL     OW34464   5.977   3.205   0.863  0.2846  0.4471 -0.2386
42620SOL    HW134465   5.990   3.285   0.914  1.3535  0.1447 -0.0033
42620SOL    HW234466   6.066   3.169   0.851 -0.2499 -1.3562  0.7571
42621SOL     OW34467   8.073   3.102   1.758 -0.0651 -0.4093  0.8078
42621SOL    HW134468   8.112   3.171   1.812 -2.7914  2.7494 -0.9450
42621SOL    HW234469   7.979   3.109   1.774 -0.6408 -2.0202 -1.3995
42622SOL     OW34470  11.150   6.543   3.741 -0.3186 -0.2047  0.6807
42622SOL    HW134471  11.080   6.609   3.746  0.6869  0.8735  0.8622
42622SOL    HW234472  11.166   6.532   3.647 -0.4812 -0.1884  0.6509
42623SOL     OW34473   6.521  10.119   1.155  0.3906  0.1215  0.5907
42623SOL    HW134474   6.475  10.189   1.110  1.1091  0.3589  0.2210
42623SOL    HW234475   6.598  10.161   1.194  1.6823 -0.7253 -0.9425
42624SOL     OW34476   6.171   3.226   5.680  0.1149 -0.2270 -0.0185
42624SOL    HW134477   6.208   3.151   5.633  0.8086  0.2826 -0.2958
42624SOL    HW234478   6.159   3.193   5.769 -0.7195 -1.0378 -0.4118
42625SOL     OW34479   2.819  12.660   1.604  0.0375 -0.3817  0.4427
42625SOL    HW134480   2.868  12.741   1.613 -0.0124 -0.4720  1.6461
42625SOL    HW234481   2.750  12.681   1.540  1.9702 -0.4559 -1.8353
42626SOL     OW34482   5.709   4.965  10.611  0.2399  0.2094  0.1632
42626SOL    HW134483   5.646   5.034  10.591 -0.2654 -0.2543  0.1453
42626SOL    HW234484   5.793   5.000  10.582 -0.1762  0.3730 -0.8942
42627SOL     OW34485   1.033   7.175   2.851  0.3857 -0.4532  0.2087
42627SOL    HW134486   1.125   7.176   2.823  0.0340  0.3622 -1.0076
42627SOL    HW234487   1.004   7.265   2.837  0.1329  0.0448  3.2150
42628SOL     OW34488   1.951   7.886   7.152 -0.3349  0.5300  0.3201
42628SOL    HW134489   1.971   7.972   7.189 -0.1316  1.5923 -2.0599
42628SOL    HW234490   1.933   7.903   7.060 -0.1424 -2.0246 -0.2716
42629SOL     OW34491  11.075   1.934  12.753 -0.5369 -0.2964 -0.0232
42629SOL    HW134492  11.088   1.859  12.812 -0.3416 -1.1038 -1.0598
42629SOL    HW234493  11.039   2.003  12.809  0.9943 -0.5485  1.3393
42630SOL     OW34494   5.830   4.433   8.331  0.6804 -0.6790  0.1583
42630SOL    HW134495   5.883   4.390   8.398  0.5626 -1.0348  0.0241
42630SOL    HW234496   5.893   4.468   8.269  0.7973 -0.2426  0.5128
42631SOL     OW34497   8.997  10.499   9.184 -0.1480 -0.1231 -0.3251
42631SOL    HW134498   8.994  10.573   9.122 -2.3754  0.1551  0.0509
42631SOL    HW234499   9.075  10.450   9.158  1.7489  2.6241 -0.2579
42632SOL     OW34500   8.445   4.767  10.038 -0.3675  0.3101 -0.3094
42632SOL    HW134501   8.487   4.797  10.119  0.6578  0.2449 -0.8116
42632SOL    HW234502   8.445   4.843   9.981 -1.8777  0.6102  0.0241
42633SOL     OW34503   7.542  10.251   3.967 -0.1322  0.4886  0.1927
42633SOL    HW134504   7.455  10.215   3.953 -1.1609  2.2052  1.6996
42633SOL    HW234505   7.573  10.211   4.047 -0.3944  1.3202  0.7252
42634SOL     OW34506   4.584   6.246  10.016 -0.0150 -0.0145 -0.2312
42634SOL    HW134507   4.506   6.275   9.971 -0.0842  0.1810  0.0159
42634SOL    HW234508   4.628   6.326  10.043  1.2553 -0.0504 -2.0067
42635SOL     OW34509   2.092   1.070   8.245 -0.2409  0.1851  0.3376
42635SOL    HW134510   2.065   1.117   8.166 -0.4442 -0.0726  0.2500
42635SOL    HW234511   2.099   1.137   8.312 -0.4211  0.3546  0.1865
42636SOL     OW34512   3.779   8.061   2.101 -0.0066  0.2606 -0.5199
42636SOL    HW134513   3.731   8.024   2.027  0.9782 -0.8320 -0.6422
42636SOL    HW234514   3.713   8.070   2.170 -1.2055  2.3852 -1.8333
42637SOL     OW34515  10.291   1.700   8.082 -0.2782  0.0516 -0.7195
42637SOL    HW134516  10.347   1.744   8.019 -0.1334  0.1021 -0.5573
42637SOL    HW234517  10.351   1.643   8.131 -0.6487 -1.2437 -1.7319
42638SOL     OW34518   8.862  11.468   7.345  0.3479  0.2363 -0.5559
42638SOL    HW134519   8.847  11.375   7.359  0.0326  0.0124 -2.1883
42638SOL    HW234520   8.942  11.472   7.293 -0.3322  0.7794 -1.5991
42639SOL     OW34521   5.845   4.507   9.347 -0.7982 -0.0515 -0.0860
42639SOL    HW134522   5.764   4.481   9.303  0.0154 -2.4350 -0.3265
42639SOL    HW234523   5.858   4.441   9.415  0.2245  1.1014  0.8969
42640SOL     OW34524   3.659   2.990   4.303 -0.1169  0.3738 -0.0466
42640SOL    HW134525   3.698   2.941   4.230  0.8597  1.0140  0.0177
42640SOL    HW234526   3.666   2.932   4.378  0.8628  0.5200 -0.0118
42641SOL     OW34527  11.982   9.074   4.709  0.6094  0.2130  0.3165
42641SOL    HW134528  12.007   9.158   4.747  0.5562 -0.2109  1.3310
42641SOL    HW234529  12.021   9.009   4.767  0.1690 -0.4613 -0.1274
42642SOL     OW34530  11.452   4.944   2.458  0.3523  0.4192  0.0449
42642SOL    HW134531  11.530   4.999   2.470 -0.6330  1.6991  0.8760
42642SOL    HW234532  11.483   4.870   2.407  1.8158  1.5874 -0.8561
42643SOL     OW34533   6.053  12.395   9.514 -0.4539 -0.2432  0.0724
42643SOL    HW134534   6.116  12.393   9.586 -0.7796  0.6442  0.4031
42643SOL    HW234535   6.018  12.484   9.516 -1.2909 -0.5490 -0.4761
42644SOL     OW34536   1.047   9.199   0.842 -0.4217 -0.6426 -0.0136
42644SOL    HW134537   1.004   9.150   0.772 -0.6587  0.4549 -0.6573
42644SOL    HW234538   1.138   9.206   0.812 -0.5702  0.0108 -0.3240
42645SOL     OW34539   3.170   4.348   4.952 -0.2942 -0.1376  0.3260
42645SOL    HW134540   3.256   4.359   4.913  0.4294  0.6787  2.0264
42645SOL    HW234541   3.109   4.362   4.880  0.9340  2.3899 -0.3491
42646SOL     OW34542   7.819   5.501   1.381  0.0520  0.3470  0.0908
42646SOL    HW134543   7.755   5.472   1.445  2.2113  2.1537  3.3428
42646SOL    HW234544   7.770   5.508   1.299 -2.8026 -2.3649  1.3554
42647SOL     OW34545   6.192   6.183  10.511 -0.7853  0.8465  0.3667
42647SOL    HW134546   6.101   6.209  10.495 -0.4274  1.4478 -0.8405
42647SOL    HW234547   6.208   6.115  10.446 -0.7998 -0.3340  1.5553
42648SOL     OW34548  11.957  11.601   0.446  0.4353  0.8201  0.0400
42648SOL    HW134549  12.050  11.599   0.467  0.3876  1.2254  0.2888
42648SOL    HW234550  11.947  11.537   0.375  0.9970  1.1965 -0.3774
42649SOL     OW34551   0.214  12.601   7.807  0.0305 -0.4174 -0.1700
42649SOL    HW134552   0.168  12.561   7.733 -0.1725 -1.1091  0.3143
42649SOL    HW234553   0.305  12.574   7.797  0.2225  0.3943 -0.7563
42650SOL     OW34554   0.790   4.157   2.261 -0.4497  0.0607  0.0180
42650SOL    HW134555   0.828   4.242   2.283 -1.3085  0.5748 -0.4108
42650SOL    HW234556   0.857   4.113   2.209 -0.1099  0.5957 -0.0016
42651SOL     OW34557   2.059  11.157   8.062  0.2017 -0.5403 -0.2545
42651SOL    HW134558   2.011  11.080   8.091 -0.4388 -0.0760 -0.0513
42651SOL    HW234559   2.135  11.122   8.014 -0.6519 -1.2898 -1.1129
42652SOL     OW34560   2.387   3.882   2.652  0.3321  0.4638 -0.8470
42652SOL    HW134561   2.421   3.965   2.686 -2.2260  0.9035  0.9789
42652SOL    HW234562   2.355   3.904   2.564 -0.1424  1.3979 -0.4613
42653SOL     OW34563   5.436   8.204   6.019  0.7235 -0.0417  0.2019
42653SOL    HW134564   5.468   8.257   6.091 -0.0107 -0.4914  0.8772
42653SOL    HW234565   5.514   8.180   5.969  1.1920  0.6042  0.6181
42654SOL     OW34566   1.560   1.367   2.592 -0.5773 -0.3641  0.7774
42654SOL    HW134567   1.648   1.332   2.601 -1.0380 -1.6901  0.3961
42654SOL    HW234568   1.570   1.462   2.602  1.0584 -0.3789 -0.4075
42655SOL     OW34569  11.888  12.596   4.119 -0.0198 -0.0722  0.6603
42655SOL    HW134570  11.976  12.558   4.114 -0.6267 -1.4255 -0.0553
42655SOL    HW234571  11.856  12.594   4.029 -0.9346  0.0294  0.9796
42656SOL     OW34572   4.908   1.030   4.825  0.6096  0.0246  0.7158
42656SOL    HW134573   4.972   1.099   4.845  0.7144  0.5634 -1.2974
42656SOL    HW234574   4.957   0.948   4.839  0.6807  0.3250  2.4773
42657SOL     OW34575   6.638   8.332   8.374 -0.1220 -0.0442 -0.5045
42657SOL    HW134576   6.628   8.287   8.458 -0.9481  0.9924 -0.0313
42657SOL    HW234577   6.608   8.267   8.309 -1.0087 -0.3042  0.1384
42658SOL     OW34578   6.050   2.410   8.035  0.1583 -0.0905 -0.0336
42658SOL    HW134579   5.995   2.338   8.003 -1.2864  1.2571 -0.6870
42658SOL    HW234580   6.139   2.373   8.035 -0.3233 -1.4045 -1.8053
42659SOL     OW34581   1.617   2.242   3.710 -0.2229  0.2241  0.4092
42659SOL    HW134582   1.617   2.155   3.670 -0.4198  1.0693 -1.4941
42659SOL    HW234583   1.667   2.230   3.791 -1.4316 -1.9537  0.9309
42660SOL     OW34584   1.890   8.102   5.321  0.2093 -0.3454  0.6965
42660SOL    HW134585   1.973   8.142   5.345  0.5784 -1.1177  0.7558
42660SOL    HW234586   1.859   8.153   5.246  1.0510 -0.4447  0.2688
42661SOL     OW34587   7.881   3.500  10.487  0.3823 -0.1738 -0.2012
42661SOL    HW134588   7.796   3.496  10.442  0.8009 -1.3832 -0.9246
42661SOL    HW234589   7.910   3.409  10.492  1.3580  0.1635  0.5999
42662SOL     OW34590   6.777   0.494  11.210  0.6724 -0.1172 -0.1973
42662SOL    HW134591   6.702   0.548  11.184  0.4280 -1.4215 -2.4526
42662SOL    HW234592   6.851   0.531  11.162  1.0249 -0.2388  0.2477
42663SOL     OW34593   5.485   9.820  12.522 -0.7800 -0.3008  0.1917
42663SOL    HW134594   5.568   9.803  12.566 -0.4660 -0.7761 -0.5588
42663SOL    HW234595   5.418   9.795  12.585 -0.4873  3.1486  2.1295
42664SOL     OW34596  10.240   8.071  11.652 -0.8464  0.2915  0.2171
42664SOL    HW134597  10.148   8.096  11.642 -0.8729 -0.4819 -1.9532
42664SOL    HW234598  10.253   8.000  11.589  0.9111 -0.5692  1.4467
42665SOL     OW34599   0.044   3.613   1.771 -0.0730 -0.4899  0.1760
42665SOL    HW134600   0.028   3.555   1.697 -2.1977  2.3727 -1.8553
42665SOL    HW234601   0.137   3.604   1.790 -0.0387 -3.3747 -0.9594
42666SOL     OW34602   6.959   5.025   1.530  0.0965  0.0729 -0.0611
42666SOL    HW134603   7.020   4.953   1.510 -1.1730 -0.5295 -2.1076
42666SOL    HW234604   6.901   5.028   1.454 -0.8630  2.2799  0.6899
42667SOL     OW34605   4.937   3.425   7.972  0.4548  0.2579 -0.4005
42667SOL    HW134606   4.965   3.483   7.901  0.6591 -0.0499 -0.5760
42667SOL    HW234607   4.845   3.407   7.954  0.8912 -1.0963 -1.5082
42668SOL     OW34608   3.826   4.497   3.948 -0.4474  0.0511  0.0778
42668SOL    HW134609   3.762   4.556   3.908 -0.5186 -0.0791  0.0003
42668SOL    HW234610   3.779   4.415   3.962 -0.4284  0.0962  0.4401
42669SOL     OW34611  12.089   4.342   4.021  0.5793 -0.0952 -0.2010
42669SOL    HW134612  12.028   4.272   4.045  0.8339  0.4012  2.1423
42669SOL    HW234613  12.145   4.302   3.954 -1.2269 -1.0946 -1.1832
42670SOL     OW34614   1.316   4.530  12.016 -0.0553  0.6366  0.2169
42670SOL    HW134615   1.251   4.498  11.953  0.3365  0.6750 -0.2182
42670SOL    HW234616   1.339   4.617  11.984 -0.2696  0.8906  0.7423
42671SOL     OW34617   2.678  12.769   6.936  0.1859 -0.3210 -0.3714
42671SOL    HW134618   2.750  12.830   6.924 -1.9336  1.9003 -3.0848
42671SOL    HW234619   2.613  12.817   6.986 -1.5677 -0.1354 -2.6371
42672SOL     OW34620   8.969   6.178   1.033  0.2450 -0.2937  0.3744
42672SOL    HW134621   9.028   6.207   1.102 -0.3991  1.7404  0.1461
42672SOL    HW234622   8.939   6.092   1.062  2.8232 -1.1504  0.7581
42673SOL     OW34623   4.488  11.535   0.419  0.3260 -0.1836  0.2904
42673SOL    HW134624   4.525  11.522   0.506 -0.0268  1.5544  0.7390
42673SOL    HW234625   4.402  11.573   0.435 -0.0980 -0.6301 -0.8187
42674SOL     OW34626   2.829   4.946  11.542 -0.0259 -0.3609  0.5973
42674SOL    HW134627   2.744   4.906  11.524  0.2152 -0.1082 -1.3006
42674SOL    HW234628   2.808   5.033  11.575 -0.5077 -0.4285  0.4751
42675SOL     OW34629  12.232   1.041   7.421 -0.5456  0.5404  0.2854
42675SOL    HW134630  12.260   1.066   7.510 -0.2737  2.3142 -0.2592
42675SOL    HW234631  12.314   1.022   7.375 -0.2904  3.4017 -0.6297
42676SOL     OW34632  10.451   1.831  10.772  0.0197 -0.3809 -1.0073
42676SOL    HW134633  10.365   1.864  10.746 -1.1295 -1.1534  1.4695
42676SOL    HW234634  10.504   1.836  10.693 -1.4947  2.6397 -1.9832
42677SOL     OW34635  10.867   2.485   3.022 -0.4516 -0.6278 -0.2762
42677SOL    HW134636  10.875   2.417   3.088 -0.6312 -1.2345 -0.8599
42677SOL    HW234637  10.909   2.448   2.944 -1.1635 -0.3654 -0.8068
42678SOL     OW34638  11.833   3.220   9.358 -0.1837 -0.3010 -0.6383
42678SOL    HW134639  11.771   3.182   9.421  1.0474  0.8940  1.3964
42678SOL    HW234640  11.783   3.228   9.277 -2.7902  0.8003  0.9573
42679SOL     OW34641   1.794   4.566   0.435  0.1722 -0.3396 -0.6976
42679SOL    HW134642   1.764   4.531   0.351 -0.0648  0.9910 -1.1844
42679SOL    HW234643   1.727   4.630   0.460 -0.5898 -1.8091  1.3043
42680SOL     OW34644   2.165   2.412   5.805 -0.1544 -0.5519  0.5906
42680SOL    HW134645   2.081   2.435   5.845  0.9870  1.1067  2.2010
42680SOL    HW234646   2.155   2.437   5.713 -0.5094  2.5427  1.3536
42681SOL     OW34647   2.647   4.010  12.425 -0.1376 -0.2873  0.6020
42681SOL    HW134648   2.655   3.952  12.349  1.8379  1.2170 -0.4329
42681SOL    HW234649   2.623   4.095  12.388 -2.4769 -0.2262  2.0357
42682SOL     OW34650   3.692  11.482  11.632 -0.2752  0.4122 -0.8322
42682SOL    HW134651   3.609  11.440  11.656  0.3085 -0.4435 -0.2657
42682SOL    HW234652   3.760  11.423  11.666  0.5713  0.9250 -1.5798
42683SOL     OW34653   2.293   3.450   9.890 -0.3937  0.1911 -0.0725
42683SOL    HW134654   2.305   3.382   9.824  1.0606 -1.6997  2.0026
42683SOL    HW234655   2.200   3.446   9.912 -0.0247 -2.6680  1.4303
42684SOL     OW34656  11.628  12.257   9.031 -0.4045 -0.0450  0.0103
42684SOL    HW134657  11.589  12.344   9.039  1.2947  0.9731 -1.9337
42684SOL    HW234658  11.722  12.271   9.044 -0.0094 -1.4462 -1.0708
42685SOL     OW34659   7.650   5.779  12.243  0.3664  0.0053 -0.2701
42685SOL    HW134660   7.735   5.790  12.200  1.0607 -0.8900  0.8064
42685SOL    HW234661   7.632   5.864  12.283  0.6651  0.2645 -0.6823
42686SOL     OW34662   7.324   4.354   4.203  0.1636  0.0436  0.0358
42686SOL    HW134663   7.286   4.430   4.159  1.9924  0.2988 -1.2419
42686SOL    HW234664   7.262   4.333   4.273 -1.5163  1.2989 -0.9974
42687SOL     OW34665   1.181   1.698   5.745 -0.2259  0.0038 -0.1744
42687SOL    HW134666   1.168   1.695   5.651  1.0261 -0.4232 -0.3526
42687SOL    HW234667   1.225   1.616   5.766 -0.9257 -0.1267  0.8602
42688SOL     OW34668   1.649  10.628  11.725 -0.3223 -0.5386 -0.5321
42688SOL    HW134669   1.708  10.662  11.657 -0.4360 -3.0734 -2.0217
42688SOL    HW234670   1.703  10.624  11.804 -0.0093  1.8938 -0.5252
42689SOL     OW34671   6.789   6.063   0.823 -0.2245 -0.2585 -0.0952
42689SOL    HW134672   6.780   6.110   0.740 -0.7749 -0.0488  0.0757
42689SOL    HW234673   6.768   5.972   0.802 -1.0226 -0.0861 -0.0580
42690SOL     OW34674   0.565   0.328   5.996  0.5479 -0.0484  0.1625
42690SOL    HW134675   0.631   0.368   5.940 -2.1825  1.0457 -2.5400
42690SOL    HW234676   0.573   0.235   5.979  0.8895  0.1314 -0.7315
42691SOL     OW34677   0.399   1.040  11.343 -0.2239 -0.2656 -0.4675
42691SOL    HW134678   0.317   1.027  11.295 -0.3504  0.8715 -0.5736
42691SOL    HW234679   0.406   0.963  11.399 -2.5821  0.6931  1.2813
42692SOL     OW34680   9.134   9.711   3.700 -0.2376  0.1019  0.3966
42692SOL    HW134681   9.129   9.657   3.779  0.2373  0.8187  0.9352
42692SOL    HW234682   9.053   9.763   3.702  0.1668  0.7344  0.8879
42693SOL     OW34683  11.730  11.350   6.815 -0.5605  0.1027 -0.4005
42693SOL    HW134684  11.701  11.282   6.876 -0.3167  1.4570  1.3160
42693SOL    HW234685  11.653  11.369   6.762 -1.1351 -0.3294  0.2529
42694SOL     OW34686   0.731   7.194   6.003  0.4775 -1.0598  0.4537
42694SOL    HW134687   0.767   7.241   5.927 -0.4106  1.1164  1.2775
42694SOL    HW234688   0.723   7.103   5.974  2.8485 -0.8784 -1.0710
42695SOL     OW34689   4.010   1.178  10.194  0.0432  0.1952 -0.4779
42695SOL    HW134690   3.972   1.104  10.240  0.3917  0.7332  0.7138
42695SOL    HW234691   3.940   1.211  10.138 -0.9164  0.5017  0.8691
42696SOL     OW34692   7.056   6.194   6.263 -0.0909  0.7147  0.0112
42696SOL    HW134693   7.028   6.236   6.344  1.9319 -0.8420  1.6238
42696SOL    HW234694   7.054   6.263   6.198 -2.6479  1.8121  1.1357
42697SOL     OW34695   4.685   1.829  11.752  0.0629  0.2251 -0.2730
42697SOL    HW134696   4.604   1.880  11.748  0.4419  0.7860 -1.5318
42697SOL    HW234697   4.658   1.742  11.781 -0.4675  1.3533  2.9709
42698SOL     OW34698   5.415   2.692   6.698  0.2193 -0.0389 -0.1950
42698SOL    HW134699   5.462   2.616   6.663  2.0758  1.1889 -0.5191
42698SOL    HW234700   5.325   2.661   6.711  0.5544 -1.8528 -1.7436
42699SOL     OW34701  12.447   2.561   7.569  0.0640  0.6522  0.2911
42699SOL    HW134702  12.432   2.502   7.496 -0.5032  0.5887  0.4533
42699SOL    HW234703  12.432   2.649   7.533  0.1728  0.6451  0.2310
42700SOL     OW34704   2.188  10.309   9.181 -0.2847 -0.8809 -0.9447
42700SOL    HW134705   2.166  10.278   9.093 -1.0856  0.3725 -1.2020
42700SOL    HW234706   2.141  10.249   9.240 -2.1771  0.0237 -1.4429
42701SOL     OW34707   3.228  11.500   2.867  0.2447 -0.6326  0.3259
42701SOL    HW134708   3.253  11.475   2.956 -0.8742  0.0401  0.8626
42701SOL    HW234709   3.168  11.431   2.839  1.2980 -1.3238 -0.2774
42702SOL     OW34710  10.524   6.135   1.713  0.5321  0.4046 -0.4317
42702SOL    HW134711  10.552   6.044   1.701 -1.1631 -0.5396  2.0505
42702SOL    HW234712  10.598   6.178   1.755 -0.1352 -1.0297  2.4137
42703SOL     OW34713   4.422   4.454   6.656  0.3615 -0.0428  0.2877
42703SOL    HW134714   4.341   4.490   6.693  0.7550  0.1084  1.0348
42703SOL    HW234715   4.484   4.456   6.729  0.7310 -1.1595  0.0242
42704SOL     OW34716  10.359   8.450   7.780 -0.3562 -0.0166  0.4187
42704SOL    HW134717  10.448   8.480   7.799  0.0454 -1.0621  0.3065
42704SOL    HW234718  10.321   8.432   7.866 -0.5774  0.7458  0.4818
42705SOL     OW34719   4.130   3.839  10.522  0.3955 -0.2822  0.4121
42705SOL    HW134720   4.174   3.917  10.490 -0.9254 -0.3551 -1.8234
42705SOL    HW234721   4.079   3.868  10.597  1.8708  0.4324  1.1517
42706SOL     OW34722   6.247  11.166  10.312 -0.0908 -0.6294 -0.4143
42706SOL    HW134723   6.343  11.159  10.309 -0.0072 -0.0339  0.4800
42706SOL    HW234724   6.218  11.078  10.339  0.3177 -0.4118  0.8351
42707SOL     OW34725   2.375   4.482   0.621 -0.3555  0.0634  0.2026
42707SOL    HW134726   2.411   4.569   0.603 -0.0762 -0.0421  0.2466
42707SOL    HW234727   2.285   4.498   0.646 -0.2300  0.3635  0.4612
42708SOL     OW34728  12.696   1.298   4.678 -0.6486  0.6820  0.6280
42708SOL    HW134729  12.757   1.230   4.702 -2.0728 -0.5227  0.9877
42708SOL    HW234730  12.691   1.355   4.755 -1.5542 -0.4300  1.4341
42709SOL     OW34731   4.773  12.606   7.283 -0.0875 -0.1722  0.1211
42709SOL    HW134732   4.811  12.549   7.350 -0.2576  0.0411  0.3997
42709SOL    HW234733   4.839  12.608   7.213  1.2424  1.5833  1.3305
42710SOL     OW34734   9.516   0.632   2.531 -0.4917 -0.7236 -0.2829
42710SOL    HW134735   9.605   0.657   2.508 -1.1986  1.8438 -0.4697
42710SOL    HW234736   9.501   0.672   2.616 -1.3919 -1.3641 -0.1261
42711SOL     OW34737   7.223   8.058   3.009  0.6151  0.6102  0.2790
42711SOL    HW134738   7.269   7.989   3.056 -2.1344 -1.8119 -0.2410
42711SOL    HW234739   7.220   8.028   2.918  0.5098  2.1205 -0.2541
42712SOL     OW34740   7.395   5.503  12.473  0.2891 -0.1349 -0.2061
42712SOL    HW134741   7.374   5.596  12.475  3.2312  0.6066  0.7915
42712SOL    HW234742   7.426   5.488  12.383 -1.2995 -0.5031 -0.7308
42713SOL     OW34743   5.701   5.267   6.272 -0.0031 -0.5520 -0.2875
42713SOL    HW134744   5.654   5.346   6.296  0.4328 -0.5395  0.5740
42713SOL    HW234745   5.755   5.292   6.196  0.8288  0.2356  0.5405
42714SOL     OW34746   3.796  11.028  10.297 -0.1653 -0.0044 -0.4911
42714SOL    HW134747   3.832  10.994  10.379 -0.4671 -1.1173 -0.7945
42714SOL    HW234748   3.704  11.046  10.318  0.1338  1.2283 -0.1707
42715SOL     OW34749   3.334   7.133  11.459  0.4305 -0.4527 -0.3689
42715SOL    HW134750   3.277   7.142  11.535 -0.8781 -0.9473 -1.2578
42715SOL    HW234751   3.328   7.218  11.415 -0.7791 -0.9633 -1.2260
42716SOL     OW34752   7.593   7.992   8.743 -0.1594 -0.1364 -0.0043
42716SOL    HW134753   7.506   8.022   8.770  0.4178  0.1550  1.6076
42716SOL    HW234754   7.640   8.073   8.723 -0.0764 -0.2668 -0.3487
42717SOL     OW34755   4.119  10.315  11.933  0.6297  0.0988 -0.3984
42717SOL    HW134756   4.147  10.233  11.974  2.8962  1.2112  0.4604
42717SOL    HW234757   4.107  10.376  12.006  0.3247  0.8990 -1.0948
42718SOL     OW34758   6.295  10.852   4.248  0.2085  0.3256 -0.0464
42718SOL    HW134759   6.373  10.819   4.293 -0.9277  0.2470  1.9889
42718SOL    HW234760   6.320  10.853   4.156  1.5062 -2.8652  0.1300
42719SOL     OW34761   4.461   5.273   4.849  0.1811 -0.2700  0.1068
42719SOL    HW134762   4.394   5.252   4.783  0.0569 -0.4692  0.2951
42719SOL    HW234763   4.539   5.292   4.797 -0.5915  2.2809 -0.2570
42720SOL     OW34764   8.183   9.080   0.770 -0.3529  0.8796 -0.5762
42720SOL    HW134765   8.097   9.112   0.742  0.1686  1.4944 -1.5167
42720SOL    HW234766   8.232   9.159   0.793 -0.3268  0.4783  0.8651
42721SOL     OW34767  12.759   5.253   2.053  0.1277  0.5369 -0.3286
42721SOL    HW134768  12.689   5.269   2.116  0.0898  1.1980 -0.5316
42721SOL    HW234769  12.757   5.159   2.038 -0.6790  0.5401 -0.2842
42722SOL     OW34770   0.706   4.347  12.041  0.0839  0.5648  0.1272
42722SOL    HW134771   0.642   4.336  11.971 -0.7334  1.8608  0.6360
42722SOL    HW234772   0.686   4.278  12.104 -0.3337  0.5082 -0.0682
42723SOL     OW34773   0.523   8.291   6.694 -0.7854  0.1570  0.3372
42723SOL    HW134774   0.470   8.274   6.772 -0.9096  1.0660  0.4626
42723SOL    HW234775   0.605   8.245   6.710 -1.5891 -1.4475  0.0502
42724SOL     OW34776  10.417   3.650   1.456 -0.0522 -0.5085  0.4716
42724SOL    HW134777  10.454   3.563   1.476  0.7464 -0.3797 -0.3884
42724SOL    HW234778  10.323   3.639   1.467  0.1589 -1.0175  2.1020
42725SOL     OW34779  12.585   8.681   9.965  0.1081  0.4089 -0.7462
42725SOL    HW134780  12.663   8.696   9.912  0.0697  0.5646 -0.7596
42725SOL    HW234781  12.614   8.624  10.036  0.2420  0.4935 -0.7341
42726SOL     OW34782   5.719   2.294   7.419  0.2208 -0.2462  0.1443
42726SOL    HW134783   5.726   2.365   7.483 -2.5727  1.5092 -1.3081
42726SOL    HW234784   5.809   2.270   7.400  1.2891  2.5278  1.1476
42727SOL     OW34785   6.649   2.892   6.984  0.0540  0.8713 -0.4509
42727SOL    HW134786   6.621   2.918   7.072  1.9135  2.6044 -0.2966
42727SOL    HW234787   6.737   2.856   6.997  1.0860  2.7356 -1.7274
42728SOL     OW34788   4.318  11.915  11.102 -0.4551  0.7490 -0.1069
42728SOL    HW134789   4.379  11.975  11.144 -1.0678  1.0081  0.4420
42728SOL    HW234790   4.349  11.828  11.125  1.6109  0.7283 -2.5400
42729SOL     OW34791   6.129   3.521   9.739 -0.4344 -0.0425  0.0622
42729SOL    HW134792   6.170   3.497   9.822 -1.7831 -2.0054  0.2455
42729SOL    HW234793   6.109   3.437   9.697 -0.2215  0.8929 -2.0488
42730SOL     OW34794   1.723   8.980   2.368  0.5955 -0.7688  0.3014
42730SOL    HW134795   1.748   9.061   2.323 -0.2926 -0.6065  0.0839
42730SOL    HW234796   1.769   8.984   2.452  0.3468  0.0884  0.4023
42731SOL     OW34797   6.120  10.603  11.192 -0.1712  0.4943  0.2886
42731SOL    HW134798   6.154  10.689  11.218 -0.0424  0.4761  0.1847
42731SOL    HW234799   6.029  10.620  11.168  0.0120  0.7096 -0.2731
42732SOL     OW34800  10.116   5.470  11.334  0.4690  0.3027  0.1411
42732SOL    HW134801  10.047   5.404  11.343 -1.3911  2.3195  1.7419
42732SOL    HW234802  10.185   5.440  11.394  0.4150 -1.0301 -0.4344
42733SOL     OW34803  11.421   7.160   1.010  0.2593 -0.6598  0.1848
42733SOL    HW134804  11.440   7.252   1.026  0.8359 -0.3713 -1.8085
42733SOL    HW234805  11.468   7.140   0.929  0.1318 -2.7143  0.5648
42734SOL     OW34806   0.223   8.551   1.137  0.0231  0.1193 -0.4910
42734SOL    HW134807   0.301   8.529   1.086 -0.6208  1.2427 -2.0388
42734SOL    HW234808   0.152   8.553   1.073 -0.8168  1.6902  0.4164
42735SOL     OW34809   1.643   0.601   4.807 -0.2714 -0.2594 -0.1563
42735SOL    HW134810   1.583   0.674   4.792 -0.7061  0.0970  2.7705
42735SOL    HW234811   1.686   0.622   4.890  2.3628 -1.5615 -1.0706
42736SOL     OW34812   4.286  11.935   7.635 -0.4099 -0.0734 -0.5369
42736SOL    HW134813   4.302  11.868   7.569  0.1654  0.6659 -1.1570
42736SOL    HW234814   4.347  12.006   7.614 -0.9472  0.6192  0.1583
42737SOL     OW34815  10.521   3.278   2.860 -0.0529  0.0271 -0.3562
42737SOL    HW134816  10.588   3.212   2.840  0.2231  0.0287  0.5471
42737SOL    HW234817  10.467   3.281   2.781  1.0835  0.1169 -1.1577
42738SOL     OW34818   7.764   4.230   2.817  0.4395  0.3043  0.2093
42738SOL    HW134819   7.721   4.268   2.741 -0.3864 -0.0407  0.4975
42738SOL    HW234820   7.847   4.195   2.783 -0.0791 -0.1597 -0.6067
42739SOL     OW34821   2.878  10.654   6.731 -0.1631  0.2412 -0.4077
42739SOL    HW134822   2.958  10.704   6.717 -0.4782  0.7583 -0.3807
42739SOL    HW234823   2.852  10.676   6.820  0.7465 -1.4826  0.3379
42740SOL     OW34824   5.402   7.825   9.073 -0.0610  0.4528 -0.2893
42740SOL    HW134825   5.448   7.839   9.156  0.4872  0.0024 -0.5171
42740SOL    HW234826   5.398   7.730   9.063 -1.5022  0.4595 -0.0258
42741SOL     OW34827  10.866  10.425  12.061 -0.5500 -0.0583 -0.1816
42741SOL    HW134828  10.877  10.435  12.155 -1.9134  0.4190 -0.0600
42741SOL    HW234829  10.886  10.512  12.025 -0.3318 -0.1595 -0.3044
42742SOL     OW34830   2.825   6.291  12.563 -0.0472 -0.5050 -0.0613
42742SOL    HW134831   2.873   6.297  12.646  1.1806  0.9191 -0.8314
42742SOL    HW234832   2.733   6.288  12.589  0.3494 -0.9409  1.3814
42743SOL     OW34833  10.177   5.721   0.879  0.4250  0.5240  0.1443
42743SOL    HW134834  10.156   5.809   0.846 -1.1703  0.5434  1.0897
42743SOL    HW234835  10.189   5.734   0.973  4.6720  0.4403 -0.2034
42744SOL     OW34836   3.597   4.804   5.868 -0.0072 -0.5185 -0.4552
42744SOL    HW134837   3.604   4.876   5.930 -1.3444  0.2185 -1.1132
42744SOL    HW234838   3.644   4.731   5.909  2.9008  1.1868 -0.5179
42745SOL     OW34839  12.565   2.056   2.487 -0.2610 -0.2031  0.2069
42745SOL    HW134840  12.613   1.988   2.533 -2.4646 -1.4295  0.8475
42745SOL    HW234841  12.473   2.035   2.502 -1.0457  1.3709 -1.8758
42746SOL     OW34842   2.823   9.766   0.536 -0.2092  0.1283  0.0095
42746SOL    HW134843   2.744   9.757   0.589 -0.7491 -0.2586 -0.8257
42746SOL    HW234844   2.805   9.713   0.458  0.9473 -0.1095 -0.1144
42747SOL     OW34845   8.371   4.698   1.158  0.2494 -0.0151  0.0290
42747SOL    HW134846   8.291   4.646   1.150 -0.9509  1.4541  1.6086
42747SOL    HW234847   8.438   4.635   1.185 -0.4551 -1.2157 -0.9227
42748SOL     OW34848   6.156   6.753  11.648 -0.1897  0.6708  0.5304
42748SOL    HW134849   6.086   6.694  11.622  0.8295 -0.2492 -0.2529
42748SOL    HW234850   6.135   6.778  11.738 -1.4576  0.3638  0.3326
42749SOL     OW34851   6.853   7.732   7.480 -0.1740  0.0814  0.4175
42749SOL    HW134852   6.931   7.711   7.429 -0.0134 -0.3659  0.8432
42749SOL    HW234853   6.835   7.823   7.459 -0.2039 -0.1381 -0.5670
42750SOL     OW34854  11.543   1.798   5.458 -0.1819 -0.2341  0.3504
42750SOL    HW134855  11.599   1.736   5.506  0.2788  0.8144  1.2154
42750SOL    HW234856  11.583   1.806   5.372 -0.1885 -1.0367  0.2583
42751SOL     OW34857   9.444   2.752   3.978 -0.2556 -0.0156 -0.3415
42751SOL    HW134858   9.433   2.732   4.071  0.2625  0.3688 -0.1921
42751SOL    HW234859   9.474   2.843   3.976 -1.0442  0.2439 -0.9284
42752SOL     OW34860   7.909   8.786  10.125  0.0271  0.2259 -0.0994
42752SOL    HW134861   7.874   8.722  10.187  1.0623  0.4491  0.7598
42752SOL    HW234862   7.876   8.870  10.158  0.8864  0.3816  0.3930
42753SOL     OW34863   3.470   4.232   7.596 -0.1481 -0.1253  0.1613
42753SOL    HW134864   3.534   4.218   7.665 -0.5888  0.9818  0.8241
42753SOL    HW234865   3.509   4.299   7.540 -0.1233 -0.4652 -0.2308
42754SOL     OW34866   3.990   0.034   1.465  0.1396 -0.2578 -0.0232
42754SOL    HW134867   3.988  -0.056   1.432  1.9619  0.0277 -1.0195
42754SOL    HW234868   4.083   0.058   1.466 -0.1478  1.0238  1.9282
42755SOL     OW34869   3.644   7.475  10.233  0.0629  0.0743  0.2235
42755SOL    HW134870   3.701   7.552  10.233 -0.0119  0.1656 -1.4551
42755SOL    HW234871   3.618   7.464  10.142 -2.8789  0.1974  0.9470
42756SOL     OW34872   7.455  10.816   8.251 -0.0925  0.5688  0.1839
42756SOL    HW134873   7.529  10.793   8.195  0.1608 -0.4267  0.8888
42756SOL    HW234874   7.492  10.817   8.340 -1.0884 -0.9358  0.6648
42757SOL     OW34875  12.098   6.281   4.196  0.1292 -0.3023 -0.1424
42757SOL    HW134876  12.010   6.313   4.217  0.7928  2.8880 -1.6750
42757SOL    HW234877  12.138   6.263   4.281 -1.1683  0.6678  0.7121
42758SOL     OW34878   3.157   5.497   7.697  0.3205 -0.1968  0.0824
42758SOL    HW134879   3.090   5.435   7.669 -0.1572  0.0949  0.5680
42758SOL    HW234880   3.143   5.574   7.641  2.7838 -1.5096 -2.6622
42759SOL     OW34881   8.166  12.570   1.985 -0.0973  0.4037  0.1501
42759SOL    HW134882   8.075  12.599   1.979 -0.4068 -0.6707 -0.6424
42759SOL    HW234883   8.178  12.545   2.076 -0.3609  1.2688  0.4317
42760SOL     OW34884   1.160   4.667   6.822 -0.0801  0.0617 -0.0701
42760SOL    HW134885   1.097   4.714   6.768  0.7618  0.5921 -0.6287
42760SOL    HW234886   1.159   4.577   6.789 -0.9314 -0.0617  0.2892
42761SOL     OW34887   0.973   1.813   4.929 -0.3013 -0.3515 -0.2821
42761SOL    HW134888   1.042   1.775   4.983  1.0546  1.6205 -0.4990
42761SOL    HW234889   0.999   1.794   4.839  2.2454  3.6224 -0.6139
42762SOL     OW34890   1.993   9.891  11.834 -0.5820 -0.3277  0.1329
42762SOL    HW134891   2.067   9.838  11.804  1.0598  1.4329  0.8107
42762SOL    HW234892   1.954   9.927  11.754  0.3695  0.0367 -0.1861
42763SOL     OW34893   4.677   7.030   1.336 -0.0297  0.6206  0.2050
42763SOL    HW134894   4.669   7.038   1.431 -1.9627  1.1443  0.0323
42763SOL    HW234895   4.737   7.100   1.310 -1.3865  2.0497  0.8108
42764SOL     OW34896   9.064  12.635   1.473  1.1510 -0.2482  0.4961
42764SOL    HW134897   8.976  12.605   1.453  1.6723 -0.2812 -2.0990
42764SOL    HW234898   9.084  12.598   1.559 -0.8589 -1.3193  0.5449
42765SOL     OW34899   1.376  10.254   8.645 -0.8984 -0.1402 -0.3002
42765SOL    HW134900   1.355  10.172   8.601 -0.1251 -0.1243 -0.7240
42765SOL    HW234901   1.292  10.294   8.664 -1.2660 -0.5768 -0.9685
42766SOL     OW34902  11.986  11.453   3.268  0.2492 -0.1308 -0.8113
42766SOL    HW134903  11.917  11.451   3.202  0.7808  0.4142 -1.3976
42766SOL    HW234904  11.943  11.425   3.349 -0.6642  0.2198 -1.1662
42767SOL     OW34905   3.013   6.126   9.921 -0.6290  0.3134  0.2939
42767SOL    HW134906   3.075   6.058   9.892 -1.3222 -0.7209  1.1484
42767SOL    HW234907   3.065   6.206   9.925  0.2927 -0.2312 -0.4211
42768SOL     OW34908   7.223  12.745   1.256  0.1427 -0.3232 -0.0239
42768SOL    HW134909   7.166  12.784   1.323 -1.2188 -1.5706 -0.4315
42768SOL    HW234910   7.167  12.686   1.207  1.1726  0.3691 -2.1506
42769SOL     OW34911   2.795  12.194   5.006  0.2533  0.2941  0.3034
42769SOL    HW134912   2.721  12.167   5.060  0.0330 -0.1816 -0.2311
42769SOL    HW234913   2.782  12.150   4.922  1.0731  0.3052  0.1593
42770SOL     OW34914   9.366   8.130   7.835  0.0147  0.1915 -0.0058
42770SOL    HW134915   9.374   8.188   7.759 -1.2980  0.6993  0.2107
42770SOL    HW234916   9.305   8.061   7.806 -1.4402  1.0342  0.9169
42771SOL     OW34917  10.663   2.071   0.940  0.0013 -0.8085  0.5763
42771SOL    HW134918  10.714   2.090   0.861  0.7772 -1.4926  0.8971
42771SOL    HW234919  10.698   1.987   0.972 -0.3473 -0.5770  1.6115
42772SOL     OW34920  11.363  10.387   0.957  0.1279  0.2132 -0.2388
42772SOL    HW134921  11.392  10.321   0.895 -0.8124 -1.0762  0.6301
42772SOL    HW234922  11.343  10.464   0.903  0.2137 -0.5651 -1.4080
42773SOL     OW34923   8.696   3.579   0.884 -0.5711 -0.2777 -0.1082
42773SOL    HW134924   8.752   3.581   0.806  0.0710 -0.3512  0.3380
42773SOL    HW234925   8.664   3.489   0.888  1.1768 -0.9026  0.9204
42774SOL     OW34926   8.136   2.618  10.976  0.0676  0.3355  0.1023
42774SOL    HW134927   8.185   2.602  11.056  0.2298  0.8309  0.1035
42774SOL    HW234928   8.203   2.633  10.909  0.1064  5.3875  0.9029
42775SOL     OW34929   4.235   4.995   9.999  0.0811 -0.0406 -0.5165
42775SOL    HW134930   4.202   4.958   9.918 -0.1111  0.4799 -0.6811
42775SOL    HW234931   4.310   4.941  10.023  0.8307  0.4740 -1.6327
42776SOL     OW34932   3.636   3.935  11.717  0.0233 -0.2545  0.4405
42776SOL    HW134933   3.650   3.847  11.752 -1.4661 -0.9718 -0.6468
42776SOL    HW234934   3.569   3.973  11.774 -1.5355 -0.9837 -0.8354
42777SOL     OW34935   6.597   2.029   7.911  0.3004 -0.1302 -0.3901
42777SOL    HW134936   6.595   2.056   7.819 -2.1408  0.1432 -0.3270
42777SOL    HW234937   6.507   2.000   7.930  0.7486 -0.2578  1.8856
42778SOL     OW34938   3.711   6.345   3.227 -0.0049  0.3254  0.8190
42778SOL    HW134939   3.731   6.311   3.314  1.1219  0.3982  0.6032
42778SOL    HW234940   3.701   6.440   3.240  3.3396  0.8510  0.4270
42779SOL     OW34941   2.480   5.676   3.079  0.4147  0.3467  0.2021
42779SOL    HW134942   2.484   5.582   3.094  0.3090  0.3278  0.1152
42779SOL    HW234943   2.465   5.714   3.166  0.5685  0.2911  0.2527
42780SOL     OW34944   2.628   3.067   3.324 -0.1896 -0.6893 -0.4504
42780SOL    HW134945   2.631   3.151   3.279  0.4273  0.3809  1.4640
42780SOL    HW234946   2.636   3.089   3.417 -3.3311 -2.5859  0.4422
42781SOL     OW34947   9.882   9.642   4.838 -0.4609 -0.0464  0.3960
42781SOL    HW134948   9.948   9.708   4.815 -0.3675 -0.6156 -1.0997
42781SOL    HW234949   9.838   9.623   4.755 -0.1240 -2.2607  0.6632
42782SOL     OW34950  11.412  12.387   7.011 -0.3310  0.6576  0.3984
42782SOL    HW134951  11.432  12.394   6.918  0.7315 -1.1559  0.4440
42782SOL    HW234952  11.332  12.333   7.014 -0.5769  1.0284  0.5208
42783SOL     OW34953   8.398   6.406   5.227  0.4271  0.2187 -0.2526
42783SOL    HW134954   8.375   6.499   5.222  0.3757  0.2453  0.3896
42783SOL    HW234955   8.393   6.385   5.321  2.4148  0.0598 -0.1399
42784SOL     OW34956   1.662   9.459   5.412 -0.1283 -0.5489  0.0478
42784SOL    HW134957   1.687   9.550   5.432 -0.4758 -0.4795  0.1873
42784SOL    HW234958   1.664   9.415   5.497 -0.2110 -0.6060  0.0204
42785SOL     OW34959   0.449   4.324   1.214  0.1582 -0.0547  0.2857
42785SOL    HW134960   0.456   4.245   1.161  0.8898 -0.7023  1.3032
42785SOL    HW234961   0.461   4.294   1.304  0.1200  1.1695  0.7267
42786SOL     OW34962   4.756   9.598   4.994 -0.3271 -0.1549 -0.2025
42786SOL    HW134963   4.770   9.520   5.049  0.0828 -0.0055 -0.0892
42786SOL    HW234964   4.791   9.573   4.909  1.3365  0.4542  0.2612
42787SOL     OW34965   4.515   2.004  11.099 -0.1763  0.2245  0.2257
42787SOL    HW134966   4.610   1.995  11.098 -0.1893 -0.2902 -2.5491
42787SOL    HW234967   4.483   1.920  11.130  0.2650 -0.6953 -1.6673
42788SOL     OW34968   4.075  12.688   3.916  0.2382 -0.9672  0.2076
42788SOL    HW134969   4.149  12.749   3.918  0.1596 -0.5058 -3.6507
42788SOL    HW234970   4.084  12.637   3.996  2.7309  1.3248  1.5392
42789SOL     OW34971   4.574   3.572   6.413 -0.1345  0.2031 -0.3306
42789SOL    HW134972   4.662   3.536   6.397 -0.5333 -1.0237  0.0806
42789SOL    HW234973   4.556   3.626   6.337  1.7132  2.0168  0.3992
42790SOL     OW34974   0.705   0.863  12.779  0.2242  0.0871 -0.3626
42790SOL    HW134975   0.644   0.868  12.706 -1.6748 -0.6853  1.1078
42790SOL    HW234976   0.694   0.775  12.814  1.9957  0.0183  0.1511
42791SOL     OW34977   0.710   5.329   2.871  0.3896 -0.3686 -0.2851
42791SOL    HW134978   0.701   5.275   2.950  2.3121 -0.2713  0.0536
42791SOL    HW234979   0.690   5.270   2.799 -0.3614 -0.7406  0.2129
42792SOL     OW34980   1.441   8.269   7.484 -0.0172 -0.1522 -0.1799
42792SOL    HW134981   1.447   8.342   7.423 -0.6474 -0.0209 -0.0830
42792SOL    HW234982   1.484   8.196   7.437 -1.4424 -0.3512 -1.2339
42793SOL     OW34983   9.176   5.298   4.881  0.0379 -0.0516 -0.5732
42793SOL    HW134984   9.153   5.346   4.961  1.3134 -0.4180  0.0255
42793SOL    HW234985   9.271   5.290   4.884 -0.0438 -1.5372 -1.2959
42794SOL     OW34986   1.688   0.398   5.033 -0.1294 -0.0491 -0.0007
42794SOL    HW134987   1.630   0.322   5.035  0.2671 -0.3482  0.3320
42794SOL    HW234988   1.669   0.446   5.114 -0.5755  0.3621 -0.3414
42795SOL     OW34989  11.981   2.876  11.368  0.5210 -0.2243  0.2006
42795SOL    HW134990  12.069   2.913  11.369 -0.0358  1.3950  3.3415
42795SOL    HW234991  11.983   2.807  11.434 -0.1141 -1.5742 -1.1274
42796SOL     OW34992  10.406   1.197   8.419  0.1303  0.3554 -0.3221
42796SOL    HW134993  10.351   1.275   8.419  0.8737  0.8950 -1.1768
42796SOL    HW234994  10.485   1.224   8.466 -0.8961 -0.8661  2.2850
42797SOL     OW34995   9.426   4.448   3.814  0.4062 -0.4987  0.0096
42797SOL    HW134996   9.503   4.505   3.816 -1.0800  1.6103  0.8765
42797SOL    HW234997   9.412   4.423   3.905 -0.4788 -0.0336  0.0158
42798SOL     OW34998   9.416  10.014   7.970 -0.2660  0.9062 -0.3572
42798SOL    HW134999   9.503  10.047   7.949  0.6611 -0.7579  0.6155
42798SOL    HW235000   9.383  10.075   8.036  1.1867  0.2709  1.0319
42799SOL     OW35001  10.248   9.569   9.421  0.0561  0.2664 -0.5336
42799SOL    HW135002  10.265   9.563   9.515 -0.5875 -0.8433 -0.4640
42799SOL    HW235003  10.152   9.570   9.414  0.0562 -1.2193 -1.2164
42800SOL     OW35004  11.044   6.837   9.430  0.0073 -0.4631  0.2343
42800SOL    HW135005  11.048   6.742   9.440 -1.8392 -0.4972  1.2465
42800SOL    HW235006  10.953   6.854   9.403 -0.3746  1.1105  2.2360
42801SOL     OW35007   3.674   9.467  10.322  0.0124 -0.1955 -0.6809
42801SOL    HW135008   3.611   9.474  10.395  1.6090  1.4195  0.6423
42801SOL    HW235009   3.701   9.557  10.306  2.0264 -0.8487 -1.1744
42802SOL     OW35010   8.159   0.274   3.074 -0.0683 -0.3132 -0.0415
42802SOL    HW135011   8.120   0.323   3.002 -0.1942 -0.3251  0.0170
42802SOL    HW235012   8.252   0.271   3.054 -0.2457 -1.3329 -0.8139
42803SOL     OW35013   4.161  11.585   7.223 -0.0503  0.2561 -0.2915
42803SOL    HW135014   4.226  11.655   7.215  0.3744  0.0641  1.2619
42803SOL    HW235015   4.098  11.617   7.287 -1.4916  0.4029 -1.7068
42804SOL     OW35016   1.918   9.544   1.459 -0.4343  0.3622  0.0679
42804SOL    HW135017   1.993   9.600   1.441  0.5465 -1.4576 -2.1288
42804SOL    HW235018   1.949   9.482   1.525  0.1053 -0.4494 -0.9086
42805SOL     OW35019   8.536  11.954   5.408 -0.2597 -0.3692  0.4816
42805SOL    HW135020   8.558  12.010   5.482  0.4721  0.3115 -0.2216
42805SOL    HW235021   8.577  11.997   5.333  0.6469 -2.0619 -0.0346
42806SOL     OW35022   2.955  12.026  12.378 -0.4935 -0.3754 -0.1560
42806SOL    HW135023   2.884  11.989  12.326 -1.5614  0.6007  0.5681
42806SOL    HW235024   2.924  12.022  12.468 -0.5073  1.8377  0.0039
42807SOL     OW35025   2.784   5.400   8.873  0.1582 -0.1788 -0.3828
42807SOL    HW135026   2.811   5.367   8.958 -0.7775 -1.3938 -0.5381
42807SOL    HW235027   2.774   5.322   8.818  0.9785  0.5853 -1.7002
42808SOL     OW35028   8.486   1.863   4.149  0.0328  0.4245 -0.0223
42808SOL    HW135029   8.433   1.927   4.196  0.0578 -0.8756  1.8573
42808SOL    HW235030   8.543   1.825   4.215  2.4122  0.8027 -1.7097
42809SOL     OW35031  10.986  11.514   0.149  0.7215  0.8793 -0.4835
42809SOL    HW135032  10.963  11.436   0.098  1.0502  0.8297 -0.5625
42809SOL    HW235033  11.082  11.520   0.141  0.9197  0.2315  1.0424
42810SOL     OW35034   7.835   4.581   0.528 -0.2754 -0.4556 -0.1809
42810SOL    HW135035   7.886   4.501   0.533  0.3998 -0.1038 -1.2447
42810SOL    HW235036   7.882   4.636   0.466 -1.0772  0.5164  0.0438
42811SOL     OW35037   4.012   7.916   9.378 -0.0284 -0.3328 -0.0069
42811SOL    HW135038   3.998   7.897   9.285  1.1785 -0.1621 -0.2370
42811SOL    HW235039   3.970   8.002   9.390 -0.9841 -0.7622 -0.1654
42812SOL     OW35040   6.852   0.115   0.477 -0.2730  0.3472 -0.5683
42812SOL    HW135041   6.815   0.033   0.508 -1.1164 -0.2369 -2.8888
42812SOL    HW235042   6.946   0.098   0.468 -0.4398 -0.3581 -0.9902
42813SOL     OW35043   8.014   0.054   3.196  0.1868 -0.0571 -0.4715
42813SOL    HW135044   7.923   0.073   3.174 -0.4620 -0.7673  1.3540
42813SOL    HW235045   8.060   0.138   3.184 -1.2758  1.0564  1.1837
42814SOL     OW35046   6.469  12.040  10.788 -0.2774  0.1478  0.2671
42814SOL    HW135047   6.444  12.068  10.876 -0.4562  0.0107  0.2596
42814SOL    HW235048   6.398  11.983  10.759 -0.4335  0.5480 -0.1410
42815SOL     OW35049   5.895   6.275   6.961 -0.3561 -0.4953  0.0745
42815SOL    HW135050   5.971   6.224   6.934 -0.3121 -1.0245  1.1320
42815SOL    HW235051   5.931   6.353   7.003 -0.4001  1.4333 -3.1456
42816SOL     OW35052  11.957   4.148   4.645 -0.0889  0.4625  0.5594
42816SOL    HW135053  11.911   4.165   4.562  0.5338  0.4314  0.2031
42816SOL    HW235054  11.905   4.193   4.711 -0.6978  0.3336  0.1771
42817SOL     OW35055   8.870   8.311   8.881  0.3971 -0.4738  0.1556
42817SOL    HW135056   8.852   8.399   8.913 -0.0906 -0.7649  0.7054
42817SOL    HW235057   8.934   8.276   8.944 -0.7131 -1.1182  0.9626
42818SOL     OW35058   6.137   0.970   9.714 -0.0153  0.4442 -0.0783
42818SOL    HW135059   6.217   0.968   9.767 -0.4237  0.6385  0.5592
42818SOL    HW235060   6.115   1.063   9.709 -1.9476  0.2481  2.4808
42819SOL     OW35061   7.377   2.338   9.639 -0.0381  0.3358  0.5189
42819SOL    HW135062   7.422   2.350   9.556  0.7275 -0.0100  0.8767
42819SOL    HW235063   7.402   2.413   9.692  0.5377 -0.1184  0.8999
42820SOL     OW35064   9.086   4.841   0.160  0.3514 -0.1373 -0.1177
42820SOL    HW135065   9.078   4.868   0.252 -0.7585 -1.4827  0.2038
42820SOL    HW235066   9.087   4.746   0.163  1.3794 -0.1881 -1.4428
42821SOL     OW35067   6.717  10.455   2.297 -0.0619 -0.0069 -0.2733
42821SOL    HW135068   6.652  10.394   2.332 -0.4466  0.0081 -0.9618
42821SOL    HW235069   6.684  10.479   2.211 -0.2599  1.6924  0.2382
42822SOL     OW35070  11.428   0.059   6.145  0.5342 -0.0462  0.1425
42822SOL    HW135071  11.476  -0.021   6.124 -0.4344 -0.4727 -0.5315
42822SOL    HW235072  11.336   0.032   6.147  0.3235  0.6430  1.8769
42823SOL     OW35073   5.995   4.274  10.256  0.0600 -0.3951 -0.2408
42823SOL    HW135074   6.066   4.238  10.202  0.6234 -2.7193  1.8623
42823SOL    HW235075   6.031   4.278  10.344 -2.4003 -1.8084  0.9292
42824SOL     OW35076  11.712   6.048   1.073  0.2664 -0.4639  0.4648
42824SOL    HW135077  11.696   6.142   1.085 -0.7034 -0.8271  2.3187
42824SOL    HW235078  11.647   6.021   1.008  0.9349  0.2236 -0.5256
42825SOL     OW35079   2.301   2.760   8.988 -0.0025  0.2490 -0.1957
42825SOL    HW135080   2.321   2.709   9.066  0.6101  0.9256  0.1004
42825SOL    HW235081   2.223   2.810   9.012  0.3991  0.7344  0.1258
42826SOL     OW35082   6.624   7.124   5.390 -0.3443  0.1240 -0.3572
42826SOL    HW135083   6.636   7.219   5.386 -0.9009  0.2335  0.2853
42826SOL    HW235084   6.549   7.106   5.333 -1.9877  0.4420  1.5742
42827SOL     OW35085   1.233   9.871  11.966  0.0075  0.3990 -0.0123
42827SOL    HW135086   1.264   9.812  11.898  1.3582 -0.4795  1.3184
42827SOL    HW235087   1.144   9.895  11.938  0.3238 -0.3545 -1.7813
42828SOL     OW35088   0.353   3.284   5.228 -0.8516  0.2630 -0.1356
42828SOL    HW135089   0.432   3.233   5.209 -0.6416  0.0371  1.2006
42828SOL    HW235090   0.358   3.360   5.171  0.1988  0.1013 -0.2716
42829SOL     OW35091  12.725   7.268   3.246  0.5809 -0.1528  0.0335
42829SOL    HW135092  12.792   7.269   3.314  0.8931 -1.1405 -0.2402
42829SOL    HW235093  12.775   7.266   3.164  0.2063  0.1717 -0.2060
42830SOL     OW35094   8.430   3.288   3.272  0.0449  0.2661 -0.2724
42830SOL    HW135095   8.515   3.245   3.259 -0.2743 -1.2456  2.0643
42830SOL    HW235096   8.371   3.244   3.212  0.4758 -0.1562 -0.3964
42831SOL     OW35097   1.926   2.123   1.139  0.2657 -0.3141  0.4474
42831SOL    HW135098   1.938   2.216   1.159  1.7382 -0.6571  1.3408
42831SOL    HW235099   1.837   2.103   1.168 -0.6829  1.1570 -1.2576
42832SOL     OW35100   0.080  11.957   3.885 -0.0020  0.2956 -0.1359
42832SOL    HW135101   0.087  11.990   3.795  3.3029  1.5225  0.4411
42832SOL    HW235102   0.109  11.866   3.879 -0.0613  0.2900 -0.3436
42833SOL     OW35103   3.516   9.849   1.057 -0.5711 -0.2718  0.0659
42833SOL    HW135104   3.489   9.823   0.969  0.8381  0.6728 -0.6788
42833SOL    HW235105   3.483   9.938   1.066  0.4363  0.1283 -0.0539
42834SOL     OW35106   3.466  11.632   1.868  0.3024  0.3141 -0.1613
42834SOL    HW135107   3.477  11.619   1.774 -0.9567 -0.0481 -0.2701
42834SOL    HW235108   3.539  11.584   1.907 -1.2611 -2.8710 -0.7905
42835SOL     OW35109   2.132   3.949  11.697 -0.2523 -0.3384  0.2290
42835SOL    HW135110   2.124   3.857  11.672  1.8243 -0.1775 -1.3203
42835SOL    HW235111   2.222   3.958  11.729 -0.3107  1.2022  0.0430
42836SOL     OW35112  12.268  11.500   3.580 -0.7026 -0.1340  0.5863
42836SOL    HW135113  12.204  11.554   3.533 -1.0071 -0.0722  1.0710
42836SOL    HW235114  12.350  11.515   3.533 -0.3480  2.2648  1.8442
42837SOL     OW35115   1.034   7.571   3.026  0.2332  0.6116  0.5276
42837SOL    HW135116   1.010   7.507   2.959  0.3275  1.2991 -0.1810
42837SOL    HW235117   0.968   7.560   3.094  0.8185 -0.9099  0.8881
42838SOL     OW35118  12.101   6.613   8.648 -1.1342  0.2542  0.1959
42838SOL    HW135119  12.125   6.619   8.740  1.2776 -1.1154 -0.2644
42838SOL    HW235120  12.157   6.678   8.605  1.5711 -2.5268 -0.8249
42839SOL     OW35121   3.644   9.401   2.361 -0.2705  0.2888 -0.1807
42839SOL    HW135122   3.587   9.379   2.288  0.1173  0.9824 -0.7123
42839SOL    HW235123   3.732   9.401   2.323 -0.0369  0.3338  0.3590
42840SOL     OW35124  12.570   4.664   3.220  0.3029 -0.5606 -0.4874
42840SOL    HW135125  12.490   4.717   3.228  0.0859 -1.0556  0.7664
42840SOL    HW235126  12.557   4.614   3.140 -0.3963 -0.2244 -0.5960
42841SOL     OW35127   6.316   3.762   0.437  0.7082 -0.1193  0.5143
42841SOL    HW135128   6.232   3.732   0.400  0.7283  2.0846 -1.5783
42841SOL    HW235129   6.291   3.824   0.505  0.6359  0.4183 -0.0004
42842SOL     OW35130   0.497   5.719   5.907  0.1739 -0.4008  0.1059
42842SOL    HW135131   0.504   5.643   5.965 -1.9183  0.3619  1.4459
42842SOL    HW235132   0.587   5.750   5.899  0.8331 -1.9379  1.0277
42843SOL     OW35133   8.140   2.618   4.078  0.4181 -0.0295 -0.2350
42843SOL    HW135134   8.165   2.535   4.038 -0.9520 -1.5069  1.8458
42843SOL    HW235135   8.049   2.631   4.053  0.1400  0.0229  0.7641
42844SOL     OW35136   6.886   6.374   1.859 -0.1626 -0.3761 -0.1346
42844SOL    HW135137   6.870   6.288   1.819 -1.4394 -0.8716  1.3383
42844SOL    HW235138   6.798   6.406   1.880  0.3727  0.7846  0.3799
42845SOL     OW35139  10.825   3.607   1.671 -0.0906 -0.2792  0.7975
42845SOL    HW135140  10.845   3.701   1.665  0.7673 -0.4911  0.1955
42845SOL    HW235141  10.730   3.603   1.666 -0.2194  0.6363  2.0125
42846SOL     OW35142   9.796   5.088   7.532  0.0118 -0.1080  0.1126
42846SOL    HW135143   9.724   5.150   7.536 -2.2531 -2.6099  0.7414
42846SOL    HW235144   9.864   5.133   7.482 -1.8830  2.4304 -0.3518
42847SOL     OW35145   4.386   1.470  10.722  0.4377 -0.2478 -0.4932
42847SOL    HW135146   4.369   1.376  10.731  0.5129 -0.3294 -1.1702
42847SOL    HW235147   4.325   1.500  10.655  0.9599  0.0196 -0.8636
42848SOL     OW35148   8.844  10.788  10.824  0.0456 -0.3965 -0.3300
42848SOL    HW135149   8.798  10.733  10.761 -2.3371 -0.3391  1.2386
42848SOL    HW235150   8.899  10.727  10.874 -1.4841 -1.1936  0.4408
42849SOL     OW35151   9.703   7.757   3.365  0.0997 -0.4399  0.6038
42849SOL    HW135152   9.733   7.818   3.432 -0.6627 -0.9072  1.3989
42849SOL    HW235153   9.769   7.762   3.296  0.1360  1.1500  0.7150
42850SOL     OW35154  12.759  10.206   6.185  0.1722  0.6034  0.2060
42850SOL    HW135155  12.743  10.253   6.267  0.4343  0.6424  0.2343
42850SOL    HW235156  12.825  10.141   6.208  1.3998  1.6160 -0.3263
42851SOL     OW35157   0.990   9.062   1.101 -0.0596  0.0186  0.0698
42851SOL    HW135158   0.971   9.102   1.016  0.5702  2.0468  0.8121
42851SOL    HW235159   1.075   9.018   1.088  1.5180  2.7597  0.2912
42852SOL     OW35160   6.667   6.884   2.933 -0.1938  0.1798  0.2326
42852SOL    HW135161   6.675   6.809   2.992  1.8155 -0.3043 -0.5631
42852SOL    HW235162   6.665   6.960   2.990 -0.0586 -0.3712  0.9807
42853SOL     OW35163   3.646   8.008  10.713 -0.2729  0.0079  0.1058
42853SOL    HW135164   3.671   7.931  10.661 -0.2400  2.0240 -3.1428
42853SOL    HW235165   3.554   8.024  10.689  0.0550  1.6050 -0.1941
42854SOL     OW35166   5.692  11.062  11.058  0.2103 -0.0737  0.1743
42854SOL    HW135167   5.787  11.054  11.050  0.2202 -0.8992  1.0473
42854SOL    HW235168   5.657  10.995  10.999  0.1766 -0.3097  0.4625
42855SOL     OW35169  10.693   6.604   5.082 -0.6981  0.7672  0.5187
42855SOL    HW135170  10.762   6.599   5.016 -2.3003 -0.9983 -1.1732
42855SOL    HW235171  10.739   6.611   5.165  1.4427  1.2866 -0.6433
42856SOL     OW35172   2.295   2.869   1.887  0.6501 -0.1489 -0.5123
42856SOL    HW135173   2.205   2.847   1.860  0.7693  1.1609 -2.1179
42856SOL    HW235174   2.288   2.955   1.928  1.2869  0.4871 -1.6687
42857SOL     OW35175  12.477  10.389   1.276 -0.1102 -0.1883 -0.1694
42857SOL    HW135176  12.489  10.321   1.210  1.3547 -0.8941  0.7705
42857SOL    HW235177  12.383  10.388   1.294 -0.6496  0.3528 -2.5294
42858SOL     OW35178   5.846   5.182   6.495  0.1314 -0.1990 -0.5558
42858SOL    HW135179   5.879   5.255   6.548 -1.2027  0.0144  0.0150
42858SOL    HW235180   5.778   5.221   6.440 -0.8481 -1.0712  0.0060
42859SOL     OW35181   5.940  10.701   7.909 -0.6105  0.3345 -0.6654
42859SOL    HW135182   5.928  10.611   7.879  0.8629 -0.3293  0.6039
42859SOL    HW235183   5.886  10.708   7.987  2.0496 -0.7106  1.4296
42860SOL     OW35184   7.278   0.351  10.912  0.2240  0.0400 -0.0057
42860SOL    HW135185   7.334   0.284  10.873 -0.7266 -0.0158 -1.3277
42860SOL    HW235186   7.239   0.308  10.988 -1.5141 -1.4713 -1.6486
42861SOL     OW35187   0.091   9.133   0.346 -0.4173  0.3757 -0.3221
42861SOL    HW135188   0.061   9.212   0.301 -0.7635  1.0669  1.0477
42861SOL    HW235189   0.015   9.074   0.345 -0.0781 -0.0709 -1.5719
42862SOL     OW35190   7.751   5.095   9.791  0.4886 -1.2901  0.4422
42862SOL    HW135191   7.833   5.119   9.834  0.6902  0.4462 -0.7677
42862SOL    HW235192   7.712   5.029   9.847  1.7405 -0.6619  2.1296
42863SOL     OW35193  12.031  11.282   9.008  0.2174  0.5835  0.0321
42863SOL    HW135194  12.104  11.319   8.960  0.0714 -0.5342 -1.1051
42863SOL    HW235195  12.064  11.199   9.043  0.3734  1.4295  2.0633
42864SOL     OW35196   3.680   0.356   4.131  0.1299 -0.2048 -0.1266
42864SOL    HW135197   3.684   0.328   4.039 -1.2531  1.1018 -0.6279
42864SOL    HW235198   3.626   0.288   4.173 -0.8631  0.1771 -0.7264
42865SOL     OW35199   0.852   4.640   6.949  0.1846  0.4012 -0.3399
42865SOL    HW135200   0.928   4.606   6.997 -0.7897  0.0888  1.0188
42865SOL    HW235201   0.829   4.721   6.995 -1.1739 -0.2527  0.1718
42866SOL     OW35202   4.016   6.593   9.044  0.4470 -0.2915  0.5525
42866SOL    HW135203   4.047   6.503   9.045  1.0597 -0.0879  0.5341
42866SOL    HW235204   3.980   6.606   8.957 -0.9540 -0.9415  1.0087
42867SOL     OW35205   2.774   9.014  11.946 -0.7172  0.1605  0.1162
42867SOL    HW135206   2.782   9.030  12.040 -0.1055 -0.6931  0.2246
42867SOL    HW235207   2.864   9.013  11.914 -0.9403  0.9390 -0.5792
42868SOL     OW35208   4.002   1.161   6.943  0.3072  0.2353 -0.1655
42868SOL    HW135209   3.924   1.104   6.946  1.0884 -0.9262 -1.0292
42868SOL    HW235210   4.036   1.159   7.033 -0.3477  0.3129  0.0901
42869SOL     OW35211   3.064   8.239  12.399 -0.1590  0.3366  0.2552
42869SOL    HW135212   3.112   8.302  12.345  0.1377  0.6131  0.8324
42869SOL    HW235213   3.130   8.174  12.424 -0.9002 -1.5132 -2.1846
42870SOL     OW35214   4.034   7.970   8.758  0.6445 -0.3681 -0.3651
42870SOL    HW135215   3.946   7.935   8.774  0.5512  0.4736  1.1486
42870SOL    HW235216   4.034   8.056   8.800  1.7029  0.3467 -1.7300
42871SOL     OW35217   7.760  11.813  12.213 -0.2297  0.0022  0.8107
42871SOL    HW135218   7.666  11.805  12.197  0.2040 -0.6328 -1.9108
42871SOL    HW235219   7.782  11.900  12.181  0.1438  0.0937  1.3109
42872SOL     OW35220   8.072   3.752  11.556  0.5090 -0.1643  0.6604
42872SOL    HW135221   8.165   3.764  11.577  1.1433  0.8537 -2.3063
42872SOL    HW235222   8.064   3.779  11.464 -2.4158 -1.7974  0.3125
42873SOL     OW35223   1.373   8.479   3.467  0.0091 -1.0912 -0.1399
42873SOL    HW135224   1.304   8.544   3.462  0.6337 -0.3531  0.6561
42873SOL    HW235225   1.453   8.529   3.479  0.6163 -1.9641 -0.4001
42874SOL     OW35226  12.589   1.909  11.376  0.0840  0.0889  0.6862
42874SOL    HW135227  12.655   1.956  11.326 -0.8191  0.8815  0.2060
42874SOL    HW235228  12.535   1.978  11.416 -2.3472 -0.4246 -1.4407
42875SOL     OW35229  11.988   3.660   4.325  0.1358  0.6315 -0.1537
42875SOL    HW135230  12.004   3.622   4.239  0.2026  0.4102 -0.0434
42875SOL    HW235231  11.901   3.699   4.318  0.1712  0.6800 -0.3432
42876SOL     OW35232   2.748   7.768   0.628  0.4091 -0.0707 -0.1268
42876SOL    HW135233   2.735   7.729   0.542 -0.5140  3.2355 -1.6389
42876SOL    HW235234   2.663   7.806   0.650  1.4287  1.7888  0.7806
42877SOL     OW35235  10.358   8.449   2.767 -0.9583 -0.1694 -0.1412
42877SOL    HW135236  10.380   8.364   2.727 -1.8417  0.0458 -1.1146
42877SOL    HW235237  10.289   8.429   2.830 -0.3272 -0.3402  0.5158
42878SOL     OW35238   1.173   0.767   6.397  0.1115  0.2299  0.2778
42878SOL    HW135239   1.216   0.810   6.322 -0.2839 -1.6450 -1.1111
42878SOL    HW235240   1.095   0.727   6.359 -0.0326 -0.8849  1.6779
42879SOL     OW35241   2.103   5.894   3.134 -0.1304  0.4815 -0.1588
42879SOL    HW135242   2.051   5.947   3.073 -1.9645 -1.8230 -0.7548
42879SOL    HW235243   2.045   5.880   3.209  0.3649 -0.4986  0.0561
42880SOL     OW35244   7.691   9.640   6.403  0.0734  0.4279 -0.0520
42880SOL    HW135245   7.676   9.613   6.494  0.4832 -0.6429 -0.2914
42880SOL    HW235246   7.753   9.576   6.369  0.9279  1.5597 -0.7157
42881SOL     OW35247   0.755   6.927   5.483  0.0816 -0.1281 -0.4067
42881SOL    HW135248   0.828   6.865   5.481  0.1528 -0.0493 -1.9464
42881SOL    HW235249   0.797   7.013   5.473 -0.1177  0.0384  0.1937
42882SOL     OW35250   3.767   9.715   1.637  0.2872 -0.0350 -0.1963
42882SOL    HW135251   3.804   9.783   1.693 -0.2337 -0.4237  0.6482
42882SOL    HW235252   3.672   9.727   1.646  0.1998 -0.4880 -0.5165
42883SOL     OW35253   3.313   9.121  10.475 -0.1405 -0.0016  0.8714
42883SOL    HW135254   3.352   9.042  10.437  1.9881  0.4904  1.8636
42883SOL    HW235255   3.219   9.104  10.474  0.1283 -1.7969 -0.5550
42884SOL     OW35256   1.573   8.483   4.394 -0.3503 -0.0240  0.1287
42884SOL    HW135257   1.666   8.481   4.372 -0.1137 -0.3335  1.1562
42884SOL    HW235258   1.565   8.432   4.474 -1.6797 -1.5315 -0.8965
42885SOL     OW35259   0.952  11.322   3.080  0.0710 -0.3400 -0.7084
42885SOL    HW135260   0.956  11.231   3.111 -0.8569  0.1569  0.9983
42885SOL    HW235261   0.867  11.328   3.035 -1.0812  0.2954  1.4364
42886SOL     OW35262   6.880   3.908  11.306 -0.3034  0.5936  0.2550
42886SOL    HW135263   6.802   3.913  11.362 -2.1368 -2.0426 -1.7799
42886SOL    HW235264   6.858   3.961  11.229 -0.2338 -0.3439 -0.4273
42887SOL     OW35265   2.115  10.035   7.595  0.1948  0.1038 -0.1775
42887SOL    HW135266   2.078  10.117   7.562 -0.0703 -0.2004 -0.6460
42887SOL    HW235267   2.208  10.041   7.573  0.3949  0.7489  0.7611
42888SOL     OW35268   4.758   8.817   3.905 -0.5237  0.9230  0.3228
42888SOL    HW135269   4.800   8.903   3.906  1.1187  0.1719 -0.0300
42888SOL    HW235270   4.774   8.782   3.992  1.7409 -0.2982 -0.4923
42889SOL     OW35271   2.447  11.805   9.161 -0.2043 -0.1794 -0.1464
42889SOL    HW135272   2.426  11.883   9.214 -0.9735  0.0133 -0.7256
42889SOL    HW235273   2.517  11.835   9.102 -0.9010  0.2521 -0.7697
42890SOL     OW35274   2.827  11.907   2.975  0.8033  0.0531 -0.2686
42890SOL    HW135275   2.810  11.999   2.960 -0.1102 -0.1892 -0.7529
42890SOL    HW235276   2.785  11.888   3.059  1.8777  0.3020  0.3515
42891SOL     OW35277   2.560   1.524   2.559 -0.5996 -1.0735  0.1244
42891SOL    HW135278   2.627   1.456   2.554  2.1383  1.4140 -0.6286
42891SOL    HW235279   2.558   1.562   2.471 -1.8917 -0.0583  0.5581
42892SOL     OW35280  12.386   2.799   4.231 -0.6225  0.2774  0.4279
42892SOL    HW135281  12.438   2.755   4.299  0.4072  1.6256  0.5650
42892SOL    HW235282  12.423   2.767   4.149  1.2632  2.0687  0.5144
42893SOL     OW35283   4.063   5.242  12.436 -0.0134 -0.4972 -0.2342
42893SOL    HW135284   4.064   5.301  12.362  2.1104  0.3493  0.4224
42893SOL    HW235285   4.142   5.189  12.427  0.7936  0.2534  1.8735
42894SOL     OW35286   3.320  10.848   2.377  0.1985 -0.0424 -0.2974
42894SOL    HW135287   3.346  10.817   2.291  0.0677 -1.1486  0.0415
42894SOL    HW235288   3.345  10.940   2.378 -0.6475  0.2427 -1.8532
42895SOL     OW35289   4.701  10.149   9.706 -0.1432  0.3761 -0.0148
42895SOL    HW135290   4.614  10.125   9.737 -0.4977  1.6624  0.0537
42895SOL    HW235291   4.751  10.068   9.709 -0.8777 -0.0566  1.4879
42896SOL     OW35292  10.003   1.985   4.963 -0.3197 -0.4195 -0.0633
42896SOL    HW135293  10.085   2.009   5.005 -0.0134  0.4478 -1.0951
42896SOL    HW235294   9.957   1.932   5.027  1.0197 -0.8688  0.5512
42897SOL     OW35295   1.161   3.968  11.964 -0.4814 -0.1575 -0.2303
42897SOL    HW135296   1.136   4.028  12.035 -0.7625 -1.4923  0.8511
42897SOL    HW235297   1.132   3.882  11.995  4.1491 -1.7280  0.5599
42898SOL     OW35298   4.026   3.284   7.627  0.4066 -0.0108 -0.0384
42898SOL    HW135299   4.051   3.376   7.626 -2.7275  0.9914  1.3634
42898SOL    HW235300   4.089   3.241   7.684  0.7997  1.6538  0.8060
42899SOL     OW35301  11.620   8.961  12.200  0.0870  0.3706 -0.9337
42899SOL    HW135302  11.652   8.891  12.144 -1.5434 -0.1069 -1.3145
42899SOL    HW235303  11.696   9.018  12.213  0.7582 -0.0382 -2.7932
42900SOL     OW35304   9.327   4.734   2.528  0.6929 -0.7380 -0.4255
42900SOL    HW135305   9.367   4.820   2.536  1.9663 -1.2534 -0.9518
42900SOL    HW235306   9.272   4.740   2.450 -1.7392  0.5041  1.2756
42901SOL     OW35307  11.993  11.039   9.665  0.1534  0.5346  0.0021
42901SOL    HW135308  12.008  11.008   9.576  1.5109  1.6892 -0.2161
42901SOL    HW235309  12.017  11.132   9.662 -1.6321  1.0728  1.1311
42902SOL     OW35310  10.541  10.901   3.814 -0.5162  0.2029 -0.5665
42902SOL    HW135311  10.445  10.893   3.810 -0.6747 -0.3480  2.1315
42902SOL    HW235312  10.561  10.972   3.753 -2.7702  0.9392 -0.5771
42903SOL     OW35313  12.753   8.106   4.065  0.0982 -0.8070 -0.4353
42903SOL    HW135314  12.730   8.182   4.118  0.7389 -1.5178  0.9137
42903SOL    HW235315  12.671   8.057   4.056  0.1707 -1.1601  0.7315
42904SOL     OW35316   8.387   6.441   1.401  0.0579 -0.3347  0.0580
42904SOL    HW135317   8.377   6.385   1.478  0.0513  0.1925  0.4471
42904SOL    HW235318   8.481   6.450   1.390  0.0867  1.4023  1.3644
42905SOL     OW35319   3.447   6.671   0.525 -0.6736 -0.2134 -0.0523
42905SOL    HW135320   3.535   6.673   0.562 -0.8753 -1.6218  0.5696
42905SOL    HW235321   3.390   6.654   0.600 -1.2977 -1.1101 -0.7175
42906SOL     OW35322   7.442   1.990  11.190 -0.0899 -0.2445 -0.0447
42906SOL    HW135323   7.536   2.012  11.190 -0.3479  0.9398  0.0113
42906SOL    HW235324   7.420   1.977  11.282 -0.7009  2.9756  0.3832
42907SOL     OW35325   0.304  10.409   4.198 -0.0200 -0.0958  0.1581
42907SOL    HW135326   0.358  10.471   4.247  0.3958 -0.6425  0.4045
42907SOL    HW235327   0.367  10.345   4.165 -0.1774  0.6921 -1.7858
42908SOL     OW35328   6.111   8.069   8.192  0.4137  0.0379  0.4568
42908SOL    HW135329   6.164   8.045   8.115 -0.0810  0.3426  0.0106
42908SOL    HW235330   6.026   8.094   8.155 -0.2822 -1.1241  1.2169
42909SOL     OW35331   5.744   0.790   0.285 -0.5480  0.2610  0.6446
42909SOL    HW135332   5.794   0.866   0.254 -1.4379  0.7756  0.4384
42909SOL    HW235333   5.750   0.726   0.214  0.3730  0.0438  0.9001
42910SOL     OW35334   7.457   2.723  10.393  0.2455 -0.1512 -0.7311
42910SOL    HW135335   7.495   2.641  10.361 -1.1630 -2.2433  2.4226
42910SOL    HW235336   7.478   2.724  10.486 -1.7399  1.9556 -0.2201
42911SOL     OW35337   3.585  11.038   0.572 -0.3641 -0.3230 -0.1654
42911SOL    HW135338   3.491  11.022   0.582 -0.3629  0.1204  0.6693
42911SOL    HW235339   3.590  11.116   0.517 -0.4946 -0.2263 -0.0433
42912SOL     OW35340   3.318   9.147   4.295  0.8012 -0.8916  0.0019
42912SOL    HW135341   3.248   9.145   4.229  1.2074 -2.2368 -0.4185
42912SOL    HW235342   3.356   9.234   4.286 -1.1530  0.0866  0.6312
42913SOL     OW35343   8.000   8.615   8.127 -0.7799 -0.6352 -0.6210
42913SOL    HW135344   8.075   8.585   8.177 -1.4310  0.8934  1.4040
42913SOL    HW235345   8.036   8.647   8.044  0.8868  0.4606  0.4758
42914SOL     OW35346   4.727  10.307   2.463 -0.6181  0.6880  0.5365
42914SOL    HW135347   4.801  10.294   2.523 -0.1516  0.8684  0.0083
42914SOL    HW235348   4.709  10.401   2.468  1.6578  1.4067 -2.1275
42915SOL     OW35349  11.287   9.151   1.846 -0.4864 -0.0176  0.5178
42915SOL    HW135350  11.363   9.137   1.903  0.3484 -3.2120 -1.1085
42915SOL    HW235351  11.218   9.098   1.884 -1.1094  0.8524  0.6067
42916SOL     OW35352   4.504   9.691   9.810 -0.2552 -0.6399  0.3028
42916SOL    HW135353   4.589   9.650   9.822 -0.0801 -0.2817  0.2921
42916SOL    HW235354   4.480   9.672   9.720 -0.4299 -1.1913  0.4593
42917SOL     OW35355   5.704   7.115  10.013  0.1200  0.0779 -0.1849
42917SOL    HW135356   5.755   7.159   9.946  0.9703  0.8842  0.9467
42917SOL    HW235357   5.736   7.025  10.013  0.7618  0.3064 -0.2327
42918SOL     OW35358  10.553  11.718   2.355 -0.1595  0.0146  0.3628
42918SOL    HW135359  10.503  11.725   2.274  2.0225 -3.7981 -1.6217
42918SOL    HW235360  10.497  11.666   2.413 -0.8520  0.8742  0.4757
42919SOL     OW35361   0.259   5.899   0.430  0.2377  0.9128  0.5698
42919SOL    HW135362   0.308   5.867   0.354 -0.4530  0.1139  0.4448
42919SOL    HW235363   0.300   5.982   0.452 -0.1953  1.6766 -1.3160
42920SOL     OW35364  12.728   3.077   2.673 -0.0451 -0.3146  0.0070
42920SOL    HW135365  12.744   3.149   2.734  0.1317  0.4775 -0.9517
42920SOL    HW235366  12.739   2.998   2.726  1.5441  0.3105  0.6780
42921SOL     OW35367   0.206   5.571  10.649 -0.3892 -0.7237 -0.1385
42921SOL    HW135368   0.150   5.617  10.711 -1.0983 -0.0257 -1.2580
42921SOL    HW235369   0.147   5.514  10.601 -0.0717 -0.3855 -0.9590
42922SOL     OW35370  10.041   1.065   9.354 -0.0855 -0.3463  0.4027
42922SOL    HW135371  10.121   1.069   9.302 -0.4927  1.3281 -0.1478
42922SOL    HW235372  10.072   1.062   9.445  0.6141  0.0275  0.1857
42923SOL     OW35373   0.499   2.703   5.372 -0.2086 -0.2279  0.1708
42923SOL    HW135374   0.482   2.686   5.465  0.2693 -0.2186  0.2637
42923SOL    HW235375   0.412   2.711   5.333 -0.4529 -1.5661  0.3642
42924SOL     OW35376   9.403   1.250   0.858 -0.3065 -0.3099  0.0442
42924SOL    HW135377   9.403   1.262   0.763  0.8210  0.6399  0.1393
42924SOL    HW235378   9.486   1.206   0.876 -0.6956 -0.8466  0.5577
42925SOL     OW35379   3.327   2.558   3.587  0.0118  0.4455  0.0300
42925SOL    HW135380   3.401   2.524   3.638  0.3726  0.7630 -0.2773
42925SOL    HW235381   3.328   2.652   3.605 -1.1889  0.2754  1.1487
42926SOL     OW35382   2.416   3.490   4.352  0.1363  0.8728 -0.1823
42926SOL    HW135383   2.413   3.544   4.431  1.2618  1.8333 -0.7683
42926SOL    HW235384   2.402   3.400   4.384 -0.8214  1.3982  0.9174
42927SOL     OW35385   7.603   4.262  10.985 -0.9257 -0.5060  0.1838
42927SOL    HW135386   7.606   4.223  10.897 -0.5807  0.6788 -0.3537
42927SOL    HW235387   7.665   4.335  10.980 -1.0350 -0.3220  1.3713
42928SOL     OW35388   6.112   8.148   7.208 -0.3577  0.2156 -0.4032
42928SOL    HW135389   6.115   8.189   7.294  0.3612 -0.5754 -0.0389
42928SOL    HW235390   6.076   8.216   7.151 -1.5605  0.5027  0.6465
42929SOL     OW35391  11.079   7.372   8.999  0.3778 -0.2579  0.2790
42929SOL    HW135392  11.165   7.358   8.960  0.0577 -0.9616 -0.1902
42929SOL    HW235393  11.098   7.400   9.089  1.1184 -2.9849  1.0661
42930SOL     OW35394   9.397  12.735  11.815  0.6021 -0.2016 -0.5957
42930SOL    HW135395   9.468  12.684  11.854  1.3763  0.8882 -0.5478
42930SOL    HW235396   9.434  12.772  11.734  0.0404  0.2366 -0.6658
42931SOL     OW35397   1.696  10.856   3.857  0.2839  0.2218  0.0701
42931SOL    HW135398   1.639  10.818   3.924 -1.1115  0.6068 -0.8493
42931SOL    HW235399   1.747  10.922   3.903 -0.0824 -0.0601  0.8965
42932SOL     OW35400   8.783   5.346   4.701  0.8916 -0.0738  0.0300
42932SOL    HW135401   8.742   5.358   4.616  0.2563 -0.6104  0.2516
42932SOL    HW235402   8.841   5.271   4.690 -0.7637 -1.4909  0.5977
42933SOL     OW35403   7.944  11.707   9.731  0.1242 -0.1459  0.2261
42933SOL    HW135404   7.942  11.802   9.723  1.5270 -0.2250 -2.0446
42933SOL    HW235405   7.880  11.676   9.667  1.1374 -0.7183 -0.5474
42934SOL     OW35406   2.566   1.393  11.730  0.2354  0.7282  0.5747
42934SOL    HW135407   2.550   1.488  11.738  0.0689  0.6411  1.3702
42934SOL    HW235408   2.482   1.353  11.755  0.1048  0.3718 -0.3677
42935SOL     OW35409  10.079   0.641   3.638  0.5269 -0.2846 -0.2016
42935SOL    HW135410  10.150   0.652   3.575  1.5928 -1.5192  0.7347
42935SOL    HW235411  10.028   0.567   3.605  1.7902 -1.7288  0.9473
42936SOL     OW35412  12.265   5.448  10.194  0.2054 -0.4160  0.1921
42936SOL    HW135413  12.185   5.395  10.200  0.0567 -0.1167  0.8663
42936SOL    HW235414  12.321   5.415  10.264 -0.1756  0.8066  1.0883
42937SOL     OW35415   8.199   6.142   4.332 -0.5234  0.1933  0.2916
42937SOL    HW135416   8.129   6.131   4.267 -1.0342 -1.2556  1.0444
42937SOL    HW235417   8.273   6.177   4.282 -1.1560 -0.1224 -0.9086
42938SOL     OW35418  11.301   8.158   8.387 -0.2003 -0.5727  0.0729
42938SOL    HW135419  11.270   8.072   8.356 -1.3127  0.2043 -1.0645
42938SOL    HW235420  11.241   8.221   8.347 -0.1866  0.6780  1.8925
42939SOL     OW35421   2.802   2.393   5.430 -0.1109  0.5434 -0.7743
42939SOL    HW135422   2.850   2.408   5.349 -0.0376  2.1485 -0.4535
42939SOL    HW235423   2.754   2.474   5.446  0.8730  0.7788  1.4246
42940SOL     OW35424   9.281   1.441   6.653  0.0536 -0.2692  0.2894
42940SOL    HW135425   9.218   1.511   6.635 -0.6213 -0.5486  1.4606
42940SOL    HW235426   9.291   1.396   6.569  0.2659  1.0170 -0.4061
42941SOL     OW35427   7.544   2.840   9.767  0.2420 -0.3455 -0.4566
42941SOL    HW135428   7.485   2.826   9.840  0.1991  0.7263 -0.2594
42941SOL    HW235429   7.499   2.904   9.711 -0.4279 -2.2910 -2.2664
42942SOL     OW35430   7.380   4.674   5.454 -0.1656  0.1953  0.2712
42942SOL    HW135431   7.467   4.636   5.464  1.0459  3.0093  1.4070
42942SOL    HW235432   7.320   4.601   5.471  1.9572 -1.4518  1.1236
42943SOL     OW35433  10.106   7.288   0.457  0.3525  0.0253  0.2010
42943SOL    HW135434  10.119   7.255   0.368  0.8315 -0.4561  0.4464
42943SOL    HW235435  10.032   7.348   0.449 -1.8649 -2.4883  0.0498
42944SOL     OW35436   4.073   9.120  11.511  0.0296  0.4650 -0.2281
42944SOL    HW135437   4.076   9.025  11.518 -0.7509  0.4538 -0.0277
42944SOL    HW235438   4.113   9.139  11.426  0.6454 -0.0029 -0.0475
42945SOL     OW35439  12.278   1.989   5.324 -0.1721 -0.3580  0.0743
42945SOL    HW135440  12.354   2.042   5.347 -0.7545  0.2595  0.6156
42945SOL    HW235441  12.249   2.024   5.240  0.5890 -1.1105 -0.5269
42946SOL     OW35442   7.959  10.953   3.914 -0.5351 -0.1462 -0.1210
42946SOL    HW135443   8.019  10.995   3.852 -0.5865 -0.3034 -0.2803
42946SOL    HW235444   7.998  10.969   4.000 -0.7917  0.6104 -0.1459
42947SOL     OW35445   4.208   7.216   2.561  0.1342 -0.0364  0.0723
42947SOL    HW135446   4.189   7.295   2.511 -0.6263 -0.2132  0.0661
42947SOL    HW235447   4.296   7.230   2.597  0.6715  0.1154 -1.2553
42948SOL     OW35448   8.700   5.098  12.377  0.4067 -0.5460  0.2776
42948SOL    HW135449   8.645   5.089  12.454 -0.7066  1.6596 -0.1707
42948SOL    HW235450   8.786   5.067  12.405 -0.5051 -1.9549  1.6717
42949SOL     OW35451   8.976   0.430   0.792  0.6040 -0.5466  0.1766
42949SOL    HW135452   9.048   0.489   0.815 -0.0874 -0.0226  1.0175
42949SOL    HW235453   8.903   0.457   0.847 -0.5218 -0.5152 -1.2556
42950SOL     OW35454   4.093   3.923   9.225 -0.2560  0.4840  0.0130
42950SOL    HW135455   4.011   3.876   9.210  0.5471 -0.6055 -1.0718
42950SOL    HW235456   4.073   4.013   9.201 -0.8748  0.0393 -1.1950
42951SOL     OW35457   8.715   1.787   8.349 -0.3603 -0.8535  0.2409
42951SOL    HW135458   8.702   1.692   8.349 -1.5069 -0.7189  0.0134
42951SOL    HW235459   8.629   1.822   8.324 -0.2060  0.2730  1.2373
42952SOL     OW35460   5.200  10.411   4.814 -0.0405 -0.7304  0.0140
42952SOL    HW135461   5.170  10.328   4.779  1.0413 -1.1269 -0.0257
42952SOL    HW235462   5.225  10.392   4.905 -1.1946 -0.1029  0.4843
42953SOL     OW35463   8.691   9.341   4.091  0.1085 -0.3901  0.3087
42953SOL    HW135464   8.735   9.426   4.088  0.5496 -0.6404 -0.6615
42953SOL    HW235465   8.686   9.320   4.184  0.1710  0.5999  0.5531
42954SOL     OW35466   1.914   8.784   3.035 -0.0125  0.7303  0.3272
42954SOL    HW135467   2.005   8.804   3.012 -0.6610  2.4224 -0.9292
42954SOL    HW235468   1.898   8.835   3.115 -0.6245  2.6467 -0.9586
42955SOL     OW35469   1.978   1.649   8.609 -0.1929 -0.2949 -0.1752
42955SOL    HW135470   2.045   1.619   8.549 -1.9259  1.4087 -3.2503
42955SOL    HW235471   1.904   1.590   8.595 -0.7589  0.3616 -0.0652
42956SOL     OW35472   0.544   9.760  10.303  1.1136  0.3164 -0.0539
42956SOL    HW135473   0.624   9.769  10.251  0.8002  2.1120 -0.2872
42956SOL    HW235474   0.553   9.827  10.371  0.1276  0.0434  0.3546
42957SOL     OW35475   3.371   9.017   8.508 -0.1418 -0.1501 -0.1471
42957SOL    HW135476   3.385   9.050   8.596  1.0433  0.2722 -0.4789
42957SOL    HW235477   3.369   8.922   8.519 -0.1086 -0.0984  0.3478
42958SOL     OW35478   5.126   7.191   3.664  0.3790  0.3622  0.1487
42958SOL    HW135479   5.104   7.101   3.686 -0.2261  0.1993 -1.0322
42958SOL    HW235480   5.218   7.188   3.638  0.9299  0.4568  1.9733
42959SOL     OW35481   3.060   0.797   6.377 -0.2290 -0.4697 -0.0294
42959SOL    HW135482   2.989   0.735   6.362 -0.9348  0.0749  0.9673
42959SOL    HW235483   3.025   0.881   6.348  0.3316 -0.3344 -0.3382
42960SOL     OW35484   8.583  11.885   8.452  0.1223  0.3145  0.3067
42960SOL    HW135485   8.671  11.882   8.415  0.0361 -1.1128  0.1675
42960SOL    HW235486   8.590  11.947   8.525  1.9218 -1.6563  1.9600
42961SOL     OW35487   2.242   5.090   5.822  0.3654  0.8453  0.2328
42961SOL    HW135488   2.187   5.126   5.892  0.8961 -0.2868  1.2837
42961SOL    HW235489   2.258   5.164   5.764  1.7817  2.4665  2.5166
42962SOL     OW35490   7.980   9.844   8.756 -0.0414 -0.5694 -0.7906
42962SOL    HW135491   7.981   9.764   8.703  1.0648 -1.5915  0.6899
42962SOL    HW235492   8.033   9.822   8.833 -0.3109  1.3682 -0.0055
42963SOL     OW35493   2.742   3.242   5.000 -0.7488  0.3859 -0.1442
42963SOL    HW135494   2.668   3.232   5.060 -0.7914  1.3015 -0.0255
42963SOL    HW235495   2.703   3.236   4.913 -0.9257  0.5912 -0.0816
42964SOL     OW35496   5.979   1.788   0.528 -0.2772  0.1033 -0.0581
42964SOL    HW135497   5.908   1.734   0.493  0.3450 -0.4163 -0.5333
42964SOL    HW235498   5.947   1.878   0.518 -0.6981 -0.1076 -0.6449
42965SOL     OW35499   1.973   2.102  11.526 -0.8124 -0.0098 -0.0245
42965SOL    HW135500   2.020   2.020  11.541  1.0281  0.9678 -0.0710
42965SOL    HW235501   1.984   2.151  11.607 -1.0146  0.5899 -0.3547
42966SOL     OW35502   7.101   4.555   6.440  0.0380 -0.1841  0.3332
42966SOL    HW135503   7.044   4.505   6.382  0.8030  0.0473 -0.6335
42966SOL    HW235504   7.188   4.518   6.426  0.1425 -0.5984  1.8608
42967SOL     OW35505  11.727   9.161   7.850  0.6615 -0.1001 -0.5858
42967SOL    HW135506  11.667   9.123   7.914 -0.1690  1.7195 -0.2050
42967SOL    HW235507  11.810   9.169   7.896  0.3689  0.1541 -0.0870
42968SOL     OW35508   8.552   2.825  10.659  0.2632 -0.6922 -0.5048
42968SOL    HW135509   8.460   2.853  10.664  0.5500  0.2715 -0.5624
42968SOL    HW235510   8.593   2.886  10.599  1.0976 -0.7071  0.0328
42969SOL     OW35511   0.981  10.826   1.217 -0.6236  0.4258 -0.5837
42969SOL    HW135512   0.934  10.838   1.300 -1.2680 -0.1221 -0.8663
42969SOL    HW235513   1.003  10.915   1.189 -2.2546  0.7540 -0.8798
42970SOL     OW35514  10.238   8.699   7.786  0.6098 -0.3391  0.8608
42970SOL    HW135515  10.153   8.681   7.746  0.5658 -1.4148  1.3986
42970SOL    HW235516  10.282   8.614   7.788  2.3689  0.4555 -0.8538
42971SOL     OW35517   1.653   9.552   9.631 -0.5233 -0.3006 -0.2210
42971SOL    HW135518   1.673   9.565   9.538 -0.9860 -1.0022 -0.4317
42971SOL    HW235519   1.634   9.639   9.664  1.7604  0.2876 -0.2509
42972SOL     OW35520  12.176   3.500   5.061  0.1073 -0.2554  0.1727
42972SOL    HW135521  12.172   3.404   5.055 -1.4412 -0.1476 -3.4400
42972SOL    HW235522  12.253   3.524   5.009 -1.1260  0.4333 -1.4552
42973SOL     OW35523   5.859  11.902   2.478  0.0501 -0.4235  0.1315
42973SOL    HW135524   5.924  11.964   2.512 -1.3872  0.2876  1.7261
42973SOL    HW235525   5.852  11.923   2.385  0.4423  1.0524  0.4105
42974SOL     OW35526  12.374   4.197   4.637 -0.3185 -0.9384  0.6307
42974SOL    HW135527  12.463   4.200   4.601 -0.3862 -2.8199  0.1972
42974SOL    HW235528  12.348   4.105   4.626 -2.4112 -0.3601  0.5131
42975SOL     OW35529   1.177   6.218   2.593  0.0107  0.2278 -0.2638
42975SOL    HW135530   1.145   6.304   2.565  1.2403  0.7099 -0.2878
42975SOL    HW235531   1.158   6.214   2.687  0.2196  0.6610 -0.2003
42976SOL     OW35532   4.403  11.161   9.609 -0.1771  0.0902  0.8854
42976SOL    HW135533   4.351  11.221   9.661 -1.4276  0.2189 -0.4509
42976SOL    HW235534   4.371  11.074   9.634  0.4168  0.0499  1.5444
42977SOL     OW35535   3.564   2.749   6.956  0.5592 -0.1784  0.2590
42977SOL    HW135536   3.568   2.769   7.050 -1.6593 -0.6809  0.5168
42977SOL    HW235537   3.627   2.808   6.916  1.5373  0.0675  2.0590
42978SOL     OW35538   6.913   5.402  12.782  0.0885 -0.5357  0.2576
42978SOL    HW135539   6.970   5.370  12.852  1.8114 -1.7904 -1.5889
42978SOL    HW235540   6.952   5.365  12.702 -0.9842  1.9076 -1.4898
42979SOL     OW35541   5.785   8.690   2.700  0.1615 -0.0374  0.3065
42979SOL    HW135542   5.695   8.663   2.718 -0.2226  0.6617 -0.5437
42979SOL    HW235543   5.796   8.771   2.749 -0.3716  1.0129 -1.2474
42980SOL     OW35544   4.823  11.985   8.872  0.3069 -0.0118  0.2800
42980SOL    HW135545   4.904  11.936   8.882 -0.1686 -0.7205  0.7941
42980SOL    HW235546   4.755  11.925   8.903 -0.4274  0.5252 -0.2567
42981SOL     OW35547   4.815   1.887   4.414  0.2386  0.1829 -0.8520
42981SOL    HW135548   4.829   1.807   4.364 -1.9680 -0.8216  0.0341
42981SOL    HW235549   4.845   1.865   4.502  0.4961  0.6650 -0.8156
42982SOL     OW35550   6.520  10.844   5.764 -0.4726 -0.5232 -0.2567
42982SOL    HW135551   6.491  10.758   5.735 -0.1562 -0.4881 -0.6780
42982SOL    HW235552   6.542  10.892   5.684 -1.1197  0.1267 -0.0605
42983SOL     OW35553   3.666  11.797   6.175 -0.6734 -0.4648 -0.7403
42983SOL    HW135554   3.707  11.803   6.089 -1.8271 -2.6652 -1.5044
42983SOL    HW235555   3.581  11.840   6.164 -0.9533 -1.0240 -0.8180
42984SOL     OW35556   9.882   6.718   1.966  0.2257 -0.1023 -0.1156
42984SOL    HW135557   9.879   6.628   1.999 -1.0376 -0.0235  0.0234
42984SOL    HW235558   9.975   6.740   1.965  0.4758 -1.0193  0.9358
42985SOL     OW35559   6.279   1.625   8.113 -0.7934 -0.3634  0.0682
42985SOL    HW135560   6.210   1.687   8.092 -0.9010 -0.5830 -0.2291
42985SOL    HW235561   6.328   1.666   8.185 -0.2102  0.5481 -0.8379
42986SOL     OW35562  12.089  10.400  11.929  0.3625 -0.0934  0.4883
42986SOL    HW135563  12.024  10.442  11.872  0.6493  0.4403  0.5490
42986SOL    HW235564  12.066  10.307  11.927  0.3478 -0.0754 -0.4711
42987SOL     OW35565   4.546   2.138   5.800 -0.5485 -0.2166  0.4024
42987SOL    HW135566   4.631   2.094   5.794 -1.1462 -1.2525 -1.3354
42987SOL    HW235567   4.506   2.124   5.714 -3.3081 -1.4776  1.7496
42988SOL     OW35568   5.329  11.256   3.376  0.3845 -0.1468  0.0119
42988SOL    HW135569   5.394  11.316   3.340  0.9798 -0.0542  1.2055
42988SOL    HW235570   5.250  11.310   3.386  0.3586 -0.0503 -0.6803
42989SOL     OW35571  11.564  10.313  10.722  0.5061  0.4781 -0.0348
42989SOL    HW135572  11.502  10.385  10.714 -0.6105 -0.5057 -0.5326
42989SOL    HW235573  11.520  10.250  10.778  1.9074  0.6125  1.2727
42990SOL     OW35574  12.284   9.865  11.605 -0.5311 -1.1355 -0.1783
42990SOL    HW135575  12.304   9.780  11.643 -0.5712 -0.2889  1.8975
42990SOL    HW235576  12.357   9.921  11.631  0.2365 -0.8429 -2.7569
42991SOL     OW35577   4.420   1.270   1.248 -0.2641 -0.7581  0.2257
42991SOL    HW135578   4.454   1.351   1.211  0.7701 -0.1886  2.2774
42991SOL    HW235579   4.441   1.203   1.182  2.0316  0.1026 -0.0137
42992SOL     OW35580   1.811   4.828   2.044 -0.5742  0.4932 -0.1157
42992SOL    HW135581   1.823   4.854   2.135  4.1012  0.0600 -0.3600
42992SOL    HW235582   1.799   4.911   1.997  0.0048  0.9949  0.5941
42993SOL     OW35583  10.438   0.574   3.946 -0.6519  0.5866  0.3505
42993SOL    HW135584  10.456   0.610   4.033 -0.8666  0.6835  0.3532
42993SOL    HW235585  10.506   0.612   3.890 -0.6270  0.6677  0.4366
42994SOL     OW35586   8.132  11.521   6.232  0.0775  0.0107  0.1266
42994SOL    HW135587   8.112  11.523   6.326  0.1030  4.3878  0.2562
42994SOL    HW235588   8.059  11.567   6.191  2.0904  2.1612 -1.3368
42995SOL     OW35589  11.030   1.355   4.502  0.2345 -0.4193 -0.1894
42995SOL    HW135590  11.044   1.277   4.555 -1.1242 -1.0895 -0.7595
42995SOL    HW235591  11.023   1.427   4.565 -1.5829 -1.2249  0.6008
42996SOL     OW35592   7.230   6.604   3.895 -0.4126 -0.1367  0.5069
42996SOL    HW135593   7.154   6.613   3.839  0.4912 -0.9478 -0.9085
42996SOL    HW235594   7.208   6.532   3.955 -0.1866 -1.4311 -0.9200
42997SOL     OW35595   4.100  10.509  11.289  0.2969 -0.6541  0.1880
42997SOL    HW135596   4.046  10.534  11.364 -1.1215 -1.0945 -0.6495
42997SOL    HW235597   4.046  10.448  11.240  1.5680 -1.0979 -0.7142
42998SOL     OW35598   9.770  11.699   5.554 -0.1628  0.0737  0.4529
42998SOL    HW135599   9.690  11.682   5.604 -0.5253  2.4651  0.8107
42998SOL    HW235600   9.740  11.710   5.464 -0.0946 -0.0651  0.4137
42999SOL     OW35601   9.940  10.053   4.543  0.3844 -0.4886 -0.1092
42999SOL    HW135602   9.847  10.072   4.557  0.0915 -1.8337 -0.0617
42999SOL    HW235603   9.941   9.989   4.472  1.4761  1.4379 -1.9554
43000SOL     OW35604   5.494   8.063   0.101 -0.3646 -0.0432  0.1600
43000SOL    HW135605   5.449   8.122   0.041  0.3975  1.7242  1.2584
43000SOL    HW235606   5.580   8.050   0.061  0.6962  2.3035  1.4353
43001SOL     OW35607   9.017   8.268  11.562 -0.2707  0.1259 -0.2305
43001SOL    HW135608   9.069   8.242  11.486 -1.2747 -2.6322 -0.0697
43001SOL    HW235609   9.048   8.212  11.633 -1.3390  0.6325  0.6665
43002SOL     OW35610  10.705   0.516   8.055 -0.0536 -0.2307  0.3406
43002SOL    HW135611  10.686   0.560   8.137 -2.9113  0.7214 -0.7358
43002SOL    HW235612  10.669   0.573   7.988  1.2610 -1.4950 -1.5377
43003SOL     OW35613  10.796   9.597  10.582  0.4937  0.2517  0.2416
43003SOL    HW135614  10.796   9.630  10.672 -0.8200 -0.0451  0.3668
43003SOL    HW235615  10.845   9.515  10.587  1.7130  0.9717  0.3859
43004SOL     OW35616   7.338  10.169   3.717  0.3103 -0.4669  0.0628
43004SOL    HW135617   7.247  10.149   3.697  0.0880 -0.7476  1.2695
43004SOL    HW235618   7.380  10.084   3.730  0.6087 -0.3195  0.0834
43005SOL     OW35619   2.631  12.749   1.398  0.4805  0.5364  0.1738
43005SOL    HW135620   2.643  12.728   1.306  3.9274 -0.5540  0.7332
43005SOL    HW235621   2.644  12.844   1.404 -0.7376  0.7710 -0.5105
43006SOL     OW35622  12.066   0.924   7.256 -0.3194  0.1989 -0.0735
43006SOL    HW135623  12.084   0.830   7.265 -0.6293  0.2558  1.2600
43006SOL    HW235624  12.126   0.967   7.317  1.0751  1.0401 -1.9368
43007SOL     OW35625   8.986   5.051   4.287  0.1548 -0.0386 -0.6475
43007SOL    HW135626   8.938   5.004   4.219  0.6966  0.5274 -1.4371
43007SOL    HW235627   9.064   4.998   4.304  0.6969  0.4859 -1.4414
43008SOL     OW35628   1.076   8.963   5.620 -0.0778 -0.0828 -0.7430
43008SOL    HW135629   0.986   8.985   5.643 -0.2593 -1.6972  0.1863
43008SOL    HW235630   1.068   8.918   5.536 -0.3894 -1.8981  0.2115
43009SOL     OW35631   1.346   1.622   7.668 -0.2755  0.6009  0.1865
43009SOL    HW135632   1.424   1.628   7.723 -0.8578 -1.4472  1.3271
43009SOL    HW235633   1.380   1.595   7.582  0.2516 -1.0495  0.8797
43010SOL     OW35634   9.492   4.610  10.294 -0.4593  0.2144 -0.5795
43010SOL    HW135635   9.581   4.621  10.329 -0.3727 -1.8250 -0.0706
43010SOL    HW235636   9.435   4.609  10.371 -0.4566 -2.4293 -0.5197
43011SOL     OW35637   7.819   4.457  10.965 -0.1455  0.1146  0.3603
43011SOL    HW135638   7.812   4.551  10.977  0.3387  0.0185  1.5266
43011SOL    HW235639   7.909   4.436  10.988 -0.4368 -0.7214  0.7943
43012SOL     OW35640   5.433   7.698   1.410  0.4069  0.4994 -0.3584
43012SOL    HW135641   5.456   7.617   1.363  1.8627 -0.3286  1.6576
43012SOL    HW235642   5.346   7.719   1.378 -0.3583 -2.3107 -0.3951
43013SOL     OW35643   4.906   9.339  10.088 -0.8311 -0.0444 -0.7695
43013SOL    HW135644   4.889   9.401  10.159 -2.6056  1.9583 -2.7650
43013SOL    HW235645   4.884   9.254  10.124  1.6254  0.3580  2.0855
43014SOL     OW35646   5.102  12.676  12.696 -0.0853  0.5443  0.1913
43014SOL    HW135647   5.178  12.648  12.747 -0.5042  1.1589  1.1930
43014SOL    HW235648   5.138  12.722  12.621  0.5413  1.1257  0.8330
43015SOL     OW35649   3.800   8.866   4.080 -0.2073  0.0271 -0.5257
43015SOL    HW135650   3.798   8.801   4.009  1.8757 -1.2414  0.4664
43015SOL    HW235651   3.796   8.950   4.036  2.1840 -0.6904 -2.2964
43016SOL     OW35652   5.690  10.802  11.335 -0.2140 -0.5055  0.1809
43016SOL    HW135653   5.624  10.856  11.292  0.9101 -0.8994 -2.1790
43016SOL    HW235654   5.757  10.863  11.365 -0.8322 -0.2641  1.1143
43017SOL     OW35655  10.503   8.946   5.374 -0.0745 -0.1978 -0.2843
43017SOL    HW135656  10.501   8.883   5.446  0.7414  0.8354  0.6550
43017SOL    HW235657  10.591   8.939   5.338  0.4028  1.1961  0.5537
43018SOL     OW35658   5.542   6.548   2.641 -0.6908 -0.0836 -0.3501
43018SOL    HW135659   5.592   6.468   2.629 -1.0246 -0.2543 -0.6228
43018SOL    HW235660   5.503   6.539   2.728  0.4071  0.4207  0.2148
43019SOL     OW35661   0.226   8.606  10.161 -0.4145 -0.0107  0.0134
43019SOL    HW135662   0.141   8.602  10.206 -0.9730  0.2058 -0.9787
43019SOL    HW235663   0.225   8.530  10.103 -0.1540  0.2883 -0.3872
43020SOL     OW35664   3.188   6.905   0.592 -0.5428 -0.4977  0.2966
43020SOL    HW135665   3.259   6.911   0.656  0.4834  2.1090 -0.9253
43020SOL    HW235666   3.108   6.909   0.645  0.2258 -1.4167  1.5760
43021SOL     OW35667   8.205   7.169   0.415 -0.3065 -0.1790  0.0733
43021SOL    HW135668   8.110   7.169   0.402 -0.4256 -0.9575  0.8597
43021SOL    HW235669   8.239   7.108   0.349 -0.2778  0.5774 -0.6264
43022SOL     OW35670  11.120   6.511  10.214 -0.6090 -0.7540  0.2354
43022SOL    HW135671  11.060   6.498  10.140 -1.5979 -3.4417  1.3892
43022SOL    HW235672  11.141   6.422  10.243  2.4324  0.1392  1.1364
43023SOL     OW35673  10.742   4.357   8.952  0.5089 -0.1189 -0.0590
43023SOL    HW135674  10.766   4.291   8.887 -0.7297 -1.1857  0.5117
43023SOL    HW235675  10.748   4.440   8.905 -1.3556 -0.9145 -1.9015
43024SOL     OW35676   3.805   5.042  10.212 -0.1844  0.4497  0.1268
43024SOL    HW135677   3.782   5.117  10.266  0.1826 -0.4128  1.5258
43024SOL    HW235678   3.890   5.014  10.245 -0.6186 -0.9936  0.0817
43025SOL     OW35679  11.358  10.503   5.407  0.0623  0.6000  0.0486
43025SOL    HW135680  11.278  10.541   5.443 -0.6422 -0.5122 -0.3022
43025SOL    HW235681  11.424  10.518   5.475 -0.5850  0.9605  0.6128
43026SOL     OW35682  10.716  10.459   5.490 -0.4999 -0.7351 -0.1874
43026SOL    HW135683  10.688  10.551   5.482 -0.0529 -0.7120 -1.8117
43026SOL    HW235684  10.666  10.425   5.564  1.7111  1.6955  2.7221
43027SOL     OW35685   1.062   0.347   1.167 -0.0046  0.1243  0.6976
43027SOL    HW135686   1.147   0.352   1.211  0.4614  2.5010 -0.3339
43027SOL    HW235687   1.081   0.307   1.082  0.1481  0.8739  0.3718
43028SOL     OW35688   0.947   0.896  12.506  0.0478 -0.0603 -0.6424
43028SOL    HW135689   0.997   0.949  12.444  0.6385  1.0648  0.7408
43028SOL    HW235690   1.002   0.891  12.584 -0.9724 -0.8336  0.0618
43029SOL     OW35691   8.686  12.053  10.563 -0.8270  0.4734 -0.3159
43029SOL    HW135692   8.761  12.023  10.512 -1.1596  0.9690 -1.1150
43029SOL    HW235693   8.715  12.046  10.654 -0.5268 -1.2609 -0.5110
43030SOL     OW35694   1.589   6.407   3.126  0.6526 -0.0108  0.1640
43030SOL    HW135695   1.502   6.405   3.087  0.3252  1.5830  0.7115
43030SOL    HW235696   1.606   6.500   3.143  2.1713 -0.3451  0.7153
43031SOL     OW35697   9.305  10.322  12.290  0.1436  0.2115  0.1690
43031SOL    HW135698   9.224  10.367  12.265 -0.9112 -1.3268  0.6772
43031SOL    HW235699   9.306  10.324  12.385  0.7563  0.3151  0.1620
43032SOL     OW35700   5.271   6.433  11.176  0.1891 -0.1343 -0.5141
43032SOL    HW135701   5.265   6.348  11.220 -0.7098 -0.1077 -0.5655
43032SOL    HW235702   5.264   6.497  11.246  0.1842 -0.0948 -0.5500
43033SOL     OW35703   0.303   5.696  12.519 -0.0047 -0.5703 -0.2519
43033SOL    HW135704   0.385   5.669  12.477 -0.3792  0.2200 -1.5445
43033SOL    HW235705   0.316   5.789  12.538 -1.4950  0.2671 -2.8474
43034SOL     OW35706   8.246   9.474   2.324 -0.0953 -0.1654 -0.5365
43034SOL    HW135707   8.179   9.444   2.386  0.3725  0.5802  0.3527
43034SOL    HW235708   8.318   9.411   2.335 -1.3648 -2.1673 -2.9322
43035SOL     OW35709   7.198   8.819   4.522 -0.4606  0.0238  1.1309
43035SOL    HW135710   7.286   8.793   4.550 -1.4305 -1.5814  2.9802
43035SOL    HW235711   7.161   8.861   4.599 -1.3448  0.6045  0.3982
43036SOL     OW35712  10.806   8.285  10.380  0.1124  0.4190 -0.0986
43036SOL    HW135713  10.752   8.338  10.321  0.7461 -1.0033 -2.0571
43036SOL    HW235714  10.896   8.301  10.351  0.3701 -1.0564 -0.1698
43037SOL     OW35715  11.418   5.729  12.314  0.1953 -0.4942 -0.1263
43037SOL    HW135716  11.406   5.787  12.239  2.8371 -0.0670 -0.3051
43037SOL    HW235717  11.390   5.782  12.389 -0.1078 -0.0359 -0.5517
43038SOL     OW35718   2.435   5.402   3.064  0.0614  0.0568  0.6234
43038SOL    HW135719   2.383   5.342   3.010 -0.6257  1.6554 -0.5607
43038SOL    HW235720   2.518   5.411   3.018 -0.0107  0.3635  0.5517
43039SOL     OW35721  11.820  11.476   3.060 -0.2839  0.2838 -0.3927
43039SOL    HW135722  11.791  11.457   2.971 -2.0685  0.0949  0.1955
43039SOL    HW235723  11.801  11.569   3.071 -1.8969 -0.1150  0.4146
43040SOL     OW35724  12.520   0.822  10.706 -0.3840 -0.2049 -0.3823
43040SOL    HW135725  12.612   0.809  10.686 -0.4899 -2.0496  0.1752
43040SOL    HW235726  12.517   0.906  10.752  1.0989 -0.3879  0.1031
43041SOL     OW35727   1.894   3.206   2.580  0.0638 -0.0214  0.6108
43041SOL    HW135728   1.984   3.201   2.614  1.2183  3.8794 -1.2420
43041SOL    HW235729   1.841   3.233   2.655  0.6622 -0.9367  1.3911
43042SOL     OW35730   1.281  11.255   4.701  0.2489 -0.2664 -0.3859
43042SOL    HW135731   1.222  11.304   4.643  1.9250  0.7496 -1.3362
43042SOL    HW235732   1.323  11.191   4.643  1.2912  0.1577 -0.1242
43043SOL     OW35733   9.264   5.491   1.667 -0.4693  0.2642 -0.1897
43043SOL    HW135734   9.231   5.498   1.577 -1.8691 -0.7220  0.2161
43043SOL    HW235735   9.207   5.547   1.719 -0.9961 -0.7817  0.3918
43044SOL     OW35736   4.662   5.044   5.490  0.0999  0.1040  0.0744
43044SOL    HW135737   4.694   4.973   5.545 -1.0984 -0.1610  0.4598
43044SOL    HW235738   4.596   5.003   5.434  1.3342  0.3486 -1.6476
43045SOL     OW35739  12.471  12.280   5.551  0.0108 -0.0795 -0.2704
43045SOL    HW135740  12.420  12.293   5.471  0.7223 -1.4434 -0.9660
43045SOL    HW235741  12.405  12.267   5.620 -0.6158  1.4957 -0.5122
43046SOL     OW35742  11.754   3.288   5.024 -0.1778 -0.5770 -0.1944
43046SOL    HW135743  11.802   3.367   5.001 -1.2836 -0.0157 -0.6734
43046SOL    HW235744  11.689   3.317   5.089 -0.2078 -1.2136  0.0746
43047SOL     OW35745  11.435   6.920   5.399  0.6796 -0.2847  0.3646
43047SOL    HW135746  11.391   6.843   5.434 -0.7761  1.1638  1.9398
43047SOL    HW235747  11.377   6.950   5.328 -1.1659  1.6927  2.5173
43048SOL     OW35748  10.931   9.497   3.797  0.3652 -0.3055  0.2636
43048SOL    HW135749  10.974   9.425   3.751  0.8440 -0.5871  1.1214
43048SOL    HW235750  10.848   9.509   3.751 -0.4654 -2.4866  1.0559
43049SOL     OW35751   2.608  10.303   2.037  0.3742  1.0018  0.2802
43049SOL    HW135752   2.540  10.359   2.074 -0.6994 -0.7877  1.1496
43049SOL    HW235753   2.611  10.227   2.096  0.1712 -0.9337 -2.0527
43050SOL     OW35754   0.466  12.425  10.483 -0.1713  0.8145 -0.1543
43050SOL    HW135755   0.440  12.417  10.391 -0.0503 -1.6823 -0.0544
43050SOL    HW235756   0.538  12.488  10.482  0.1947  0.4354 -1.8856
43051SOL     OW35757   7.188   0.287  11.897 -0.5620 -0.1228  0.0698
43051SOL    HW135758   7.190   0.336  11.979  0.9222  1.6871 -0.9727
43051SOL    HW235759   7.128   0.336  11.841  0.3870  0.1312 -0.7506
43052SOL     OW35760   5.810  12.005   0.736  0.1172 -0.1503  0.1154
43052SOL    HW135761   5.759  12.070   0.687 -0.6705 -0.6431  0.2649
43052SOL    HW235762   5.901  12.034   0.726  0.0149 -0.3792 -1.8519
43053SOL     OW35763   0.741   5.895   1.044 -0.1988  0.5270 -0.2019
43053SOL    HW135764   0.692   5.858   0.970  0.2033 -0.1115 -0.1557
43053SOL    HW235765   0.824   5.924   1.005 -0.0837  0.4088 -0.0448
43054SOL     OW35766   4.062   7.570  11.863 -0.2318 -0.1020 -0.1171
43054SOL    HW135767   4.055   7.664  11.853 -1.5718 -0.1813  0.0066
43054SOL    HW235768   4.155   7.551  11.848  0.2310  1.3363  0.8205
43055SOL     OW35769   5.719   6.818   3.168 -0.0357 -0.1296 -0.4844
43055SOL    HW135770   5.799   6.795   3.214 -1.5855 -1.3718  1.8260
43055SOL    HW235771   5.684   6.734   3.136  0.0851  0.5153 -2.4342
43056SOL     OW35772   0.201  11.352   0.974  0.0103  0.5343  0.2419
43056SOL    HW135773   0.170  11.442   0.981 -0.0587  0.4941  0.4869
43056SOL    HW235774   0.272  11.355   0.909 -1.1606  0.4455 -1.0716
43057SOL     OW35775  11.363   6.519   8.056 -0.2902 -0.0246 -0.0549
43057SOL    HW135776  11.419   6.505   7.979 -0.4454  0.2020 -0.2102
43057SOL    HW235777  11.424   6.517   8.130 -0.2592 -1.1469 -0.1021
43058SOL     OW35778  11.661   4.383  11.423 -0.2205  0.1266 -0.0861
43058SOL    HW135779  11.671   4.294  11.457  1.7615  1.2289  2.6172
43058SOL    HW235780  11.569   4.404  11.436 -0.4020 -1.0073  0.6218
43059SOL     OW35781   4.600   3.214   5.384  0.1463  0.2327  0.1412
43059SOL    HW135782   4.669   3.155   5.416  1.0242  0.7884 -0.6867
43059SOL    HW235783   4.536   3.155   5.344  1.3530 -0.1707 -1.3212
43060SOL     OW35784  12.651   1.050   1.963 -0.1013  0.2285 -0.2278
43060SOL    HW135785  12.623   1.047   2.055  0.7754 -0.3156  0.0326
43060SOL    HW235786  12.715   0.980   1.955  1.0787  1.3397 -0.8296
43061SOL     OW35787   8.128   3.437  10.198 -0.1420 -0.3041  0.6681
43061SOL    HW135788   8.057   3.433  10.133  1.3428 -0.7901 -1.0317
43061SOL    HW235789   8.161   3.347  10.202  1.9451  0.3259 -0.5082
43062SOL     OW35790   9.722   8.223  11.574  0.5058 -0.4245  0.4469
43062SOL    HW135791   9.697   8.234  11.482  1.4391  0.0389  0.2307
43062SOL    HW235792   9.802   8.170  11.571  0.7671 -0.0749  0.9563
43063SOL     OW35793  10.219   1.149   4.852  0.4027 -0.0746 -0.4113
43063SOL    HW135794  10.261   1.214   4.796  1.7385 -0.6244 -0.0933
43063SOL    HW235795  10.235   1.065   4.809 -1.2401 -0.2303 -0.7801
43064SOL     OW35796  11.357   4.030   9.262 -0.3318 -0.1548  0.2842
43064SOL    HW135797  11.356   4.123   9.241  0.1590 -0.2269 -0.0785
43064SOL    HW235798  11.411   4.024   9.342 -1.2930 -0.0069  0.9624
43065SOL     OW35799  10.243  11.370  12.698 -0.0539  0.1651  0.4764
43065SOL    HW135800  10.281  11.290  12.734 -0.1781  0.0091  0.2588
43065SOL    HW235801  10.231  11.352  12.605 -2.5863 -0.5473  0.8807
43066SOL     OW35802   3.361   9.513   2.718  0.6872  0.5168  0.3507
43066SOL    HW135803   3.302   9.445   2.751  0.9737 -0.5062 -1.1175
43066SOL    HW235804   3.444   9.496   2.763  0.7728 -0.1721 -0.0462
43067SOL     OW35805   8.361  11.320   4.385  0.0773 -0.0186 -0.0385
43067SOL    HW135806   8.304  11.375   4.331 -0.7849 -0.3967  0.4596
43067SOL    HW235807   8.448  11.333   4.349 -0.5171 -0.5505 -1.7969
43068SOL     OW35808  10.709   7.627   7.571 -0.4148 -0.1809  0.1444
43068SOL    HW135809  10.623   7.669   7.561 -0.7736 -0.6913  1.0336
43068SOL    HW235810  10.763   7.668   7.502 -1.4481 -0.0930 -0.6450
43069SOL     OW35811   6.543  11.351   5.468 -0.0481  0.5949 -0.5244
43069SOL    HW135812   6.612  11.288   5.487  1.2939  2.0678 -0.3699
43069SOL    HW235813   6.564  11.385   5.381  0.7254  2.6107  0.3733
43070SOL     OW35814   1.225  10.622   6.221 -0.0019 -0.8713  0.0988
43070SOL    HW135815   1.172  10.663   6.290  0.0854  0.8902 -0.8425
43070SOL    HW235816   1.185  10.651   6.139  2.1467  0.2121 -0.6400
43071SOL     OW35817  12.146   8.099  10.632  0.4512  0.1522 -0.6135
43071SOL    HW135818  12.084   8.028  10.619 -0.4668  0.4925  1.5205
43071SOL    HW235819  12.171   8.126  10.543 -0.3394 -1.7970 -1.4707
43072SOL     OW35820   2.238  11.915  11.969  0.0564  0.3979 -0.0552
43072SOL    HW135821   2.186  11.995  11.968 -0.0491  0.3257 -1.5013
43072SOL    HW235822   2.262  11.904  12.061 -0.7958  1.5172  0.3254
43073SOL     OW35823   0.389   0.550   8.025 -0.5542 -0.0309  0.3261
43073SOL    HW135824   0.365   0.510   8.108  1.2963  1.3063  1.5859
43073SOL    HW235825   0.306   0.570   7.982 -1.5292 -1.5799  1.4039
43074SOL     OW35826   8.819   9.933  10.513 -0.3965 -0.1815 -0.1199
43074SOL    HW135827   8.812   9.840  10.491 -1.4272 -0.1863  0.1953
43074SOL    HW235828   8.904   9.959  10.477  1.0730 -1.8189  1.9171
43075SOL     OW35829   2.867   9.953  12.116  0.0378  0.4458 -0.8716
43075SOL    HW135830   2.877   9.858  12.109 -3.0227 -0.1830  0.9863
43075SOL    HW235831   2.953   9.988  12.097  1.3059 -2.7054 -1.5731
43076SOL     OW35832  12.087   7.749   2.697  0.0802 -0.3861 -0.4852
43076SOL    HW135833  11.996   7.740   2.668 -0.0589 -0.1336 -0.1313
43076SOL    HW235834  12.087   7.716   2.787 -0.0151  1.1570  0.1138
43077SOL     OW35835  11.164   0.148   6.388  0.8222  0.0779 -0.2192
43077SOL    HW135836  11.152   0.240   6.412  1.0850  0.2593 -0.7711
43077SOL    HW235837  11.191   0.105   6.470 -2.3384 -0.1413  0.8639
43078SOL     OW35838  11.180   9.084   6.898  0.4472 -0.7919  0.4655
43078SOL    HW135839  11.187   9.168   6.853 -2.2793 -0.6308  0.1866
43078SOL    HW235840  11.121   9.032   6.843 -0.2242 -1.8258  2.0900
43079SOL     OW35841   9.654   3.136   8.771  0.0942 -0.3873 -0.1318
43079SOL    HW135842   9.624   3.102   8.855 -0.1513 -0.4169 -0.2289
43079SOL    HW235843   9.589   3.104   8.708  0.2738 -0.3629 -0.3313
43080SOL     OW35844   9.624   7.995   7.499  0.0538 -0.1205 -0.0886
43080SOL    HW135845   9.681   7.979   7.424 -0.8579 -0.3220 -0.7595
43080SOL    HW235846   9.566   8.066   7.470 -1.0804 -0.9880 -0.0304
43081SOL     OW35847   3.456   8.738  12.253 -0.0060 -0.4549  0.5931
43081SOL    HW135848   3.421   8.691  12.177 -0.2327 -0.7820  0.8957
43081SOL    HW235849   3.510   8.808  12.216 -2.6134  1.4140  0.0407
43082SOL     OW35850   8.002   3.652   0.632  0.3878  0.1632  0.1605
43082SOL    HW135851   7.952   3.606   0.699  0.3301  1.1431  0.8214
43082SOL    HW235852   8.081   3.600   0.621 -0.5568 -1.1738 -0.5900
43083SOL     OW35853   2.237   1.981   1.896  0.6449  0.3687 -0.2210
43083SOL    HW135854   2.273   1.933   1.970  0.5057  4.0980  2.5519
43083SOL    HW235855   2.314   2.009   1.846  0.8869 -0.2686 -0.2133
43084SOL     OW35856   0.316  12.664   9.274 -0.3248 -0.1911  0.0938
43084SOL    HW135857   0.292  12.614   9.351  1.5686 -1.0192  0.1974
43084SOL    HW235858   0.281  12.752   9.290 -0.5543 -0.5308  1.5474
43085SOL     OW35859   1.218   5.070   0.864  0.0291 -0.3426  0.1765
43085SOL    HW135860   1.204   4.986   0.819 -0.3188 -0.1374 -0.0950
43085SOL    HW235861   1.132   5.094   0.898  0.4915 -1.0807  2.0065
43086SOL     OW35862   7.090   7.591   0.786 -0.0422 -0.1432 -0.3531
43086SOL    HW135863   7.010   7.560   0.743  0.7087 -1.1999 -1.0172
43086SOL    HW235864   7.161   7.553   0.735  0.8942  0.3895  0.5253
43087SOL     OW35865   6.170   5.000  11.078 -0.4442  0.2461  0.3248
43087SOL    HW135866   6.093   5.048  11.047 -0.2485  1.1592  1.2131
43087SOL    HW235867   6.153   4.986  11.172 -0.4204 -1.2925  0.1372
43088SOL     OW35868   2.548   5.176  11.382 -0.2683 -0.4548  0.3823
43088SOL    HW135869   2.468   5.135  11.415 -0.6383  0.0596  0.1444
43088SOL    HW235870   2.568   5.128  11.301 -0.1806 -0.7665  0.5891
43089SOL     OW35871   7.372   2.369  10.105  0.7206 -0.2526  0.5127
43089SOL    HW135872   7.340   2.279  10.113  0.1910 -0.4218 -2.3170
43089SOL    HW235873   7.331   2.415  10.178 -1.0978 -1.7776  0.5455
43090SOL     OW35874   9.102   8.220   0.797  0.0209 -0.4409  0.3448
43090SOL    HW135875   9.059   8.194   0.715 -0.5386 -0.0304  0.5074
43090SOL    HW235876   9.081   8.149   0.858  0.4816 -0.7733  0.1267
43091SOL     OW35877   7.442   9.686   5.353 -0.1326  0.0964  0.6482
43091SOL    HW135878   7.364   9.656   5.307 -0.0263  1.4491 -0.5071
43091SOL    HW235879   7.514   9.671   5.291  0.1045  1.3548  0.5907
43092SOL     OW35880   6.515   7.249   1.582 -0.1194 -0.2964 -0.1370
43092SOL    HW135881   6.480   7.317   1.639  0.0689 -0.1553 -0.1903
43092SOL    HW235882   6.537   7.177   1.641  1.5595  0.4444  0.1723
43093SOL     OW35883  11.015   2.642  11.488  0.4350  0.1127 -0.5268
43093SOL    HW135884  11.097   2.614  11.527 -0.6702 -1.9293  0.4682
43093SOL    HW235885  10.974   2.698  11.554  0.2675 -0.2555 -0.3173
43094SOL     OW35886   6.369   5.077   4.940  0.0011 -0.2634  0.3436
43094SOL    HW135887   6.383   4.990   4.902  1.1677  0.3673 -0.7742
43094SOL    HW235888   6.383   5.137   4.866  0.5762  0.9287  1.3874
43095SOL     OW35889   4.878  10.392   6.541 -0.3651  0.4274 -0.3003
43095SOL    HW135890   4.805  10.331   6.537  1.2039 -1.7126  1.3335
43095SOL    HW235891   4.857  10.450   6.615 -1.0323  0.7622 -0.7386
43096SOL     OW35892   0.006   3.977   3.386 -0.4450 -0.1279  0.0304
43096SOL    HW135893   0.033   3.957   3.297 -2.3877  0.7298 -0.8133
43096SOL    HW235894   0.078   3.946   3.441  1.6330  0.9753 -1.9216
43097SOL     OW35895  11.491   8.095   3.558 -0.2078  0.5477  0.4583
43097SOL    HW135896  11.544   8.059   3.629 -0.0719  1.0228  0.6042
43097SOL    HW235897  11.401   8.070   3.580  0.0202 -0.8726 -0.1624
43098SOL     OW35898   7.504   6.906   4.636 -0.5837 -0.3592 -0.2991
43098SOL    HW135899   7.478   6.958   4.712  0.2430  2.3107 -1.6905
43098SOL    HW235900   7.581   6.858   4.664 -1.8578 -1.6027  1.2877
43099SOL     OW35901   4.787  12.175   8.672 -1.0743  0.3185  0.1723
43099SOL    HW135902   4.784  12.095   8.724  0.9310  0.4817  0.6166
43099SOL    HW235903   4.816  12.147   8.585 -2.7819  0.2747 -0.4259
43100SOL     OW35904  12.777  11.814   5.108  0.2933  0.3556  0.1864
43100SOL    HW135905  12.819  11.898   5.126  0.2109 -0.0082  2.2947
43100SOL    HW235906  12.697  11.837   5.060  0.7980  1.3677 -0.1947
43101SOL     OW35907   5.371   5.656   8.542  0.3125 -0.0800  0.3203
43101SOL    HW135908   5.433   5.643   8.614  3.1204 -0.4125 -2.0219
43101SOL    HW235909   5.325   5.572   8.536  1.6996 -0.8719  0.2832
43102SOL     OW35910   6.106   4.551  11.689  0.3388  0.0235 -0.5958
43102SOL    HW135911   6.012   4.567  11.679 -0.0815 -1.5144  0.4847
43102SOL    HW235912   6.122   4.560  11.783  1.1690 -0.2793 -0.6989
43103SOL     OW35913   0.006   2.754   0.601 -0.3533 -0.0385 -0.0904
43103SOL    HW135914  -0.031   2.666   0.600 -0.0698 -0.1549 -0.4272
43103SOL    HW235915  -0.057   2.807   0.552 -0.7583  0.0463  0.5066
43104SOL     OW35916   0.741   3.174   0.573 -0.5711 -0.1005  0.2209
43104SOL    HW135917   0.706   3.128   0.497 -1.0039  0.6338 -0.0389
43104SOL    HW235918   0.836   3.171   0.562 -0.6209 -0.3258 -0.1485
43105SOL     OW35919   6.082  12.626   3.670 -0.6546 -0.1099  0.3497
43105SOL    HW135920   6.150  12.656   3.730  0.5315  0.8578 -1.3860
43105SOL    HW235921   6.098  12.532   3.660 -0.6903 -0.2265  1.2884
43106SOL     OW35922   2.641   1.215   3.088 -0.3529  0.6602 -0.0998
43106SOL    HW135923   2.692   1.134   3.098 -0.4774  0.6659  0.6076
43106SOL    HW235924   2.578   1.213   3.160 -0.6537  1.1713 -0.3440
43107SOL     OW35925   1.592   4.598   6.477 -0.2221  0.3779  0.3200
43107SOL    HW135926   1.670   4.552   6.447  0.2761  1.5269 -0.2202
43107SOL    HW235927   1.616   4.630   6.564  0.8509  2.7669 -0.7686
43108SOL     OW35928   3.476   3.710   2.635  0.5938  0.2515  0.0879
43108SOL    HW135929   3.479   3.617   2.611 -1.0170  0.2835 -0.3543
43108SOL    HW235930   3.551   3.722   2.693  1.7677 -0.9502 -1.1072
43109SOL     OW35931   5.880   8.993  10.430  0.5304  0.1156 -0.2773
43109SOL    HW135932   5.974   8.990  10.413  0.0939 -1.3395 -2.9169
43109SOL    HW235933   5.844   9.043  10.357 -1.0571 -2.2910 -1.2372
43110SOL     OW35934   4.848   8.386   2.201 -0.4232 -0.0048 -0.2018
43110SOL    HW135935   4.850   8.433   2.284 -0.1431 -1.2796  0.5361
43110SOL    HW235936   4.827   8.453   2.136  0.9471  1.3180  0.6721
43111SOL     OW35937   6.818   2.823   1.409  0.6679  0.0668 -0.0989
43111SOL    HW135938   6.780   2.779   1.333  1.0123 -0.2536 -0.0922
43111SOL    HW235939   6.903   2.780   1.421 -0.1697 -1.2553  1.6504
43112SOL     OW35940   6.051   8.574   1.683 -0.4043  0.2982 -0.3012
43112SOL    HW135941   6.080   8.483   1.692  0.4559  0.2200 -2.8859
43112SOL    HW235942   6.128   8.626   1.706 -1.1278  0.4629  1.9486
43113SOL     OW35943   6.661  11.267   5.948  0.0510  0.6244 -0.4691
43113SOL    HW135944   6.734  11.319   5.982  0.7930  0.4505 -1.7172
43113SOL    HW235945   6.702  11.186   5.918 -1.1120 -0.8132  1.6104
43114SOL     OW35946   9.929   0.847  10.288 -0.3730  0.2690 -0.2180
43114SOL    HW135947   9.937   0.757  10.319 -2.4891  0.3550  0.7160
43114SOL    HW235948   9.996   0.855  10.220  1.0627 -1.4344  0.9363
43115SOL     OW35949  11.164   7.922   1.743  0.2487 -0.2551  0.1476
43115SOL    HW135950  11.132   7.993   1.798 -0.9580  1.3125 -2.3803
43115SOL    HW235951  11.095   7.909   1.678  1.2645 -2.4815 -0.5790
43116SOL     OW35952   4.481   7.734   7.243  0.5742 -0.1537  0.3693
43116SOL    HW135953   4.486   7.649   7.288  1.8905 -1.1164 -1.4519
43116SOL    HW235954   4.466   7.711   7.151 -0.5116  1.6731  0.0353
43117SOL     OW35955   5.529   3.517  10.871 -0.2363  0.2127 -0.2550
43117SOL    HW135956   5.504   3.609  10.860 -1.4343 -0.1116 -0.4383
43117SOL    HW235957   5.586   3.499  10.796  2.4438  1.5602  1.3343
43118SOL     OW35958   5.801   6.635   1.477 -0.3360 -0.6172 -0.2337
43118SOL    HW135959   5.847   6.656   1.396 -1.3286 -1.3854 -1.0292
43118SOL    HW235960   5.779   6.719   1.515  1.3453 -0.2320 -0.0263
43119SOL     OW35961  10.334  10.180  11.106  0.1062  0.6370  0.2388
43119SOL    HW135962  10.312  10.099  11.150 -1.0225  0.3451 -0.8188
43119SOL    HW235963  10.336  10.157  11.013  0.5023  1.6568 -0.0213
43120SOL     OW35964   0.258   3.131  10.570  0.2071  0.1045 -0.2214
43120SOL    HW135965   0.343   3.169  10.589 -0.4928  1.8819 -0.4912
43120SOL    HW235966   0.257   3.119  10.475  1.1689 -2.5548  0.0199
43121SOL     OW35967  12.271   0.654   1.427  0.3464 -0.1722 -0.4056
43121SOL    HW135968  12.277   0.599   1.504  0.2050 -2.0543 -1.6801
43121SOL    HW235969  12.178   0.657   1.405  0.6218 -2.2745 -2.2297
43122SOL     OW35970   2.869   9.911   6.721  0.6129 -0.3293  0.3639
43122SOL    HW135971   2.880   9.947   6.633 -0.1273 -0.7913  0.0697
43122SOL    HW235972   2.839   9.821   6.707 -0.4975 -0.1014  1.0712
43123SOL     OW35973   1.953   9.639   4.970 -0.2880 -0.0670  0.0329
43123SOL    HW135974   1.885   9.616   5.034 -0.8298 -0.4324 -0.6676
43123SOL    HW235975   1.983   9.555   4.936  0.6553  0.0853  0.4739
43124SOL     OW35976  12.237  10.990   7.179 -0.2176 -0.8818 -0.4344
43124SOL    HW135977  12.281  11.074   7.180  1.3039 -1.6345  1.1689
43124SOL    HW235978  12.277  10.942   7.106  0.7349 -1.0918  0.2086
43125SOL     OW35979   4.404   1.958   1.909  0.5175  0.0216 -0.1013
43125SOL    HW135980   4.484   1.994   1.947  0.7407 -0.6869  0.1203
43125SOL    HW235981   4.361   1.913   1.982 -1.1939  2.1999  0.3386
43126SOL     OW35982   2.729  11.897  12.260 -0.1205  0.5810  0.0806
43126SOL    HW135983   2.720  11.816  12.210  0.7193  0.5836 -0.0897
43126SOL    HW235984   2.647  11.944  12.246 -0.3198  0.0871 -0.4140
43127SOL     OW35985   3.275   0.009   8.781  0.2313  0.0037 -0.5542
43127SOL    HW135986   3.242   0.097   8.801 -2.0775 -0.7521 -0.6705
43127SOL    HW235987   3.360   0.005   8.824 -0.1284  1.8828  0.4741
43128SOL     OW35988   3.820  12.382   6.245  0.4525 -0.3792  0.2105
43128SOL    HW135989   3.792  12.301   6.203 -1.0702 -1.1178  2.4564
43128SOL    HW235990   3.771  12.451   6.199  0.7669 -0.8573 -0.8611
43129SOL     OW35991   0.780   0.880  11.472  0.1268  0.0982 -0.5379
43129SOL    HW135992   0.831   0.925  11.540  0.6346 -0.2852 -0.6596
43129SOL    HW235993   0.702   0.850  11.518 -0.1280  0.9184 -0.4060
43130SOL     OW35994   2.380   9.827   3.037 -0.2120 -0.0181  0.2169
43130SOL    HW135995   2.372   9.919   3.010  2.4807 -0.2332 -1.6880
43130SOL    HW235996   2.331   9.778   2.970 -0.1706 -0.0766  0.2303
43131SOL     OW35997   7.078   0.376   9.580  0.3589 -0.1790 -0.3462
43131SOL    HW135998   7.100   0.459   9.538  0.4923  0.8689  1.7146
43131SOL    HW235999   7.031   0.327   9.512 -1.1152  2.1865 -1.1432
43132SOL     OW36000   8.724   9.012   8.012 -0.2387  0.1526  0.6878
43132SOL    HW136001   8.655   8.951   7.985 -0.9734  1.8641 -1.6930
43132SOL    HW236002   8.802   8.958   8.021 -1.1786 -1.3622  0.0927
43133SOL     OW36003  12.142   5.749   5.508 -0.1668 -0.1883 -0.0266
43133SOL    HW136004  12.178   5.777   5.592 -0.5938 -0.9840  0.4306
43133SOL    HW236005  12.054   5.787   5.507  0.3715  1.1206 -0.8140
43134SOL     OW36006   0.916   4.343   1.912 -0.0566 -0.5586 -0.5252
43134SOL    HW136007   0.923   4.249   1.894  0.7479 -0.6549  0.2518
43134SOL    HW236008   0.944   4.353   2.003  0.6567  0.5297 -0.8427
43135SOL     OW36009   9.936  10.682   6.460 -0.6104 -0.9048  0.1574
43135SOL    HW136010   9.980  10.597   6.455 -0.0569 -0.6249  0.2056
43135SOL    HW236011   9.943  10.707   6.552  2.3673  0.8098 -0.3926
43136SOL     OW36012   9.776   8.963   7.189 -0.7379  0.4041  0.1710
43136SOL    HW136013   9.764   8.913   7.270  0.9456 -0.8857 -0.3197
43136SOL    HW236014   9.822   9.042   7.216 -0.6755  0.2416  0.5445
43137SOL     OW36015   5.895   9.506   6.974 -0.3509  0.2603  0.0153
43137SOL    HW136016   5.984   9.490   7.003 -0.1225  0.8487 -0.3553
43137SOL    HW236017   5.856   9.419   6.965  0.1166  0.0160  0.3917
43138SOL     OW36018   8.679   1.610   9.854 -0.7356 -0.5662  0.1546
43138SOL    HW136019   8.675   1.706   9.854 -0.2393 -0.5384 -0.7419
43138SOL    HW236020   8.668   1.586   9.946  0.6613  0.4321  0.6175
43139SOL     OW36021   0.589   3.657   1.679 -0.4468 -0.5559  0.1731
43139SOL    HW136022   0.646   3.734   1.680  1.2803 -1.7290 -1.1794
43139SOL    HW236023   0.541   3.662   1.762  0.5177  1.3035  0.6830
43140SOL     OW36024   1.045   6.291  11.749  0.1414  0.0747  0.1533
43140SOL    HW136025   1.045   6.371  11.696 -0.0419 -0.1695 -0.2233
43140SOL    HW236026   1.137   6.276  11.768  0.0960  1.0402  1.2638
43141SOL     OW36027   7.721   0.435   5.118  0.2012  0.1536  0.0232
43141SOL    HW136028   7.741   0.432   5.211 -1.9648 -0.4755  0.5422
43141SOL    HW236029   7.631   0.467   5.114  0.1761 -0.0174 -1.8468
43142SOL     OW36030  12.299   5.118   7.974  0.1080  0.2346  0.0595
43142SOL    HW136031  12.362   5.189   7.968  2.0971 -1.5325 -1.5059
43142SOL    HW236032  12.253   5.118   7.890  1.3115 -1.2732 -0.6575
43143SOL     OW36033   4.160   4.603   8.112 -0.6453 -0.1054  0.2210
43143SOL    HW136034   4.145   4.697   8.124 -0.9720 -0.2776  1.2608
43143SOL    HW236035   4.181   4.570   8.199 -0.4303 -0.9834 -0.1483
43144SOL     OW36036   6.586   6.075  12.021  0.3855 -0.1965 -0.2651
43144SOL    HW136037   6.491   6.067  12.010 -0.0588  1.8797  1.3022
43144SOL    HW236038   6.613   6.137  11.954 -0.0545  2.0000  1.4618
43145SOL     OW36039   7.824  10.689   8.365 -0.4030  0.0229 -0.0431
43145SOL    HW136040   7.894  10.669   8.427 -0.3514  0.2754 -0.0181
43145SOL    HW236041   7.745  10.651   8.404 -0.5984  1.2027  0.7769
43146SOL     OW36042   1.080   8.855   2.196  0.2618  0.6932 -0.1264
43146SOL    HW136043   1.172   8.852   2.222  0.5139  3.3999 -0.4012
43146SOL    HW236044   1.066   8.772   2.150  2.4530  0.0432  0.2264
43147SOL     OW36045  10.587   4.514   0.788 -0.4829 -0.1108  0.0742
43147SOL    HW136046  10.575   4.481   0.699 -1.1431 -0.0394  0.1366
43147SOL    HW236047  10.611   4.436   0.839 -1.0511 -0.3195  0.0231
43148SOL     OW36048   3.869   3.584   5.702 -0.5506 -0.3852  0.3574
43148SOL    HW136049   3.860   3.667   5.654 -1.1943  1.7809  3.8220
43148SOL    HW236050   3.810   3.594   5.777 -0.0642 -3.7315  1.3330
43149SOL     OW36051   0.543  12.433   2.558 -0.1304 -0.2988  0.2895
43149SOL    HW136052   0.594  12.436   2.639  1.2192  2.1957 -0.5689
43149SOL    HW236053   0.608  12.422   2.489 -1.1025 -0.6234 -0.5990
43150SOL     OW36054  10.383   2.786   1.841  0.0397  0.3379 -0.2086
43150SOL    HW136055  10.330   2.782   1.762 -0.9362  1.3654  0.3723
43150SOL    HW236056  10.412   2.696   1.855 -1.2551 -0.1787 -0.7464
43151SOL     OW36057   6.423   0.565   6.738  0.3323  0.6726 -0.5268
43151SOL    HW136058   6.350   0.528   6.687  0.2956  0.3464 -0.2414
43151SOL    HW236059   6.383   0.590   6.821  0.3409  1.4421 -0.7508
43152SOL     OW36060   1.663  11.788  11.936  0.3162  0.0137  0.2630
43152SOL    HW136061   1.754  11.782  11.963  0.2075 -0.6391  0.5225
43152SOL    HW236062   1.623  11.851  11.996  0.6150  0.3601  0.0967
43153SOL     OW36063   1.099   8.222   5.323 -0.0705 -0.4310 -0.0756
43153SOL    HW136064   1.082   8.129   5.339  1.1264 -0.3674  1.9016
43153SOL    HW236065   1.020   8.266   5.353 -0.7506 -0.8119 -1.2731
43154SOL     OW36066   6.525   8.160   6.070 -0.5185 -0.4529  0.3151
43154SOL    HW136067   6.526   8.161   5.975  0.8138 -0.3345  0.3043
43154SOL    HW236068   6.609   8.199   6.095 -0.2279 -1.7474  1.5083
43155SOL     OW36069   4.540   2.129   7.822 -0.1335  0.2537 -0.0983
43155SOL    HW136070   4.484   2.188   7.770  0.9937  1.3926 -0.0686
43155SOL    HW236071   4.619   2.119   7.769 -1.0949 -3.1041 -1.1901
43156SOL     OW36072   6.356   6.352   3.789  0.1788  0.2830  0.3997
43156SOL    HW136073   6.378   6.265   3.757 -0.4882  1.1175 -2.6712
43156SOL    HW236074   6.420   6.410   3.748 -0.6352  1.4512  0.7150
43157SOL     OW36075   2.677   7.150   4.970  0.6058  0.3387  0.3306
43157SOL    HW136076   2.715   7.237   4.979 -1.2612  1.1876  0.4279
43157SOL    HW236077   2.590   7.165   4.932  0.6320 -1.5642 -0.6141
43158SOL     OW36078  11.609   6.741   8.214 -0.7253  0.5771 -0.3814
43158SOL    HW136079  11.534   6.786   8.174 -1.5311  0.7780  1.2581
43158SOL    HW236080  11.582   6.649   8.219 -0.4183  0.4669 -0.7751
43159SOL     OW36081   1.961  10.845  10.226  0.2698 -0.2755  0.2353
43159SOL    HW136082   1.910  10.825  10.147  0.1003  1.2520 -0.0792
43159SOL    HW236083   1.909  10.909  10.273 -0.0547 -1.8319  2.1031
43160SOL     OW36084   7.182  12.620   0.294  0.0836  0.2627  0.5282
43160SOL    HW136085   7.187  12.591   0.203  0.1910 -1.2024  0.9798
43160SOL    HW236086   7.272  12.616   0.325 -0.2412 -1.5565  1.3566
43161SOL     OW36087  12.260  11.979  10.118 -0.6745  0.1840  0.3252
43161SOL    HW136088  12.262  11.884  10.102  0.9947  0.1861  0.3683
43161SOL    HW236089  12.251  12.017  10.031 -1.8044 -0.0098  0.3454
43162SOL     OW36090   7.861   5.098   1.415 -0.3063  0.3139  0.5775
43162SOL    HW136091   7.855   5.005   1.392  0.2483  0.4772 -0.2398
43162SOL    HW236092   7.802   5.142   1.354  0.1973  0.6048  0.2958
43163SOL     OW36093   9.967  11.454   3.638  0.4661  0.0388  0.1619
43163SOL    HW136094   9.976  11.365   3.672 -0.5751 -0.4189 -0.7191
43163SOL    HW236095  10.036  11.462   3.573  0.1478 -0.3554 -0.2273
43164SOL     OW36096   7.174   1.244   0.996 -0.0487 -0.0136 -0.4334
43164SOL    HW136097   7.218   1.328   0.995  0.4149 -0.1944  1.1254
43164SOL    HW236098   7.157   1.227   1.089 -3.0958 -0.1208 -0.8821
43165SOL     OW36099  10.527   5.453   3.838  0.5338  0.3382  0.3913
43165SOL    HW136100  10.481   5.386   3.789  0.5915  0.0395  0.7454
43165SOL    HW236101  10.459   5.516   3.863  0.5434  0.6190 -0.2742
43166SOL     OW36102   5.847  11.007   2.544  0.6996  0.1559 -0.3801
43166SOL    HW136103   5.888  11.083   2.503 -1.1857  0.5693 -1.6082
43166SOL    HW236104   5.753  11.025   2.541  0.3317 -1.0411  1.7243
43167SOL     OW36105   1.290   3.295   7.953 -0.2677 -0.3405 -0.1292
43167SOL    HW136106   1.282   3.340   8.037 -0.8355 -0.4499 -0.1241
43167SOL    HW236107   1.384   3.281   7.942 -0.1515  0.1156  0.2548
43168SOL     OW36108   7.714   8.500   6.812  0.0776 -0.0607  0.6142
43168SOL    HW136109   7.619   8.504   6.800 -0.0987 -0.7630  1.6279
43168SOL    HW236110   7.750   8.548   6.738 -1.0399 -0.6277 -0.3268
43169SOL     OW36111  11.207   2.855   5.292 -0.6452  0.1688  0.9483
43169SOL    HW136112  11.174   2.929   5.343 -2.0873  0.4672 -0.3342
43169SOL    HW236113  11.247   2.895   5.215 -1.5727 -0.3551  0.1687
43170SOL     OW36114  10.447   0.697  10.308 -0.2164  0.1810  0.0463
43170SOL    HW136115  10.533   0.659  10.326  0.3317  1.2320 -0.2879
43170SOL    HW236116  10.386   0.642  10.357  0.7345 -0.0249  1.0488
43171SOL     OW36117   4.927   3.555   1.560 -0.1985 -0.3412  0.1145
43171SOL    HW136118   4.874   3.537   1.638 -0.5384  0.3529  0.0496
43171SOL    HW236119   4.883   3.628   1.518  0.0483 -0.6429 -0.6768
43172SOL     OW36120   7.933   8.133   1.901 -0.2351 -0.1317 -0.4014
43172SOL    HW136121   7.871   8.206   1.892 -0.7240 -0.4084  0.5652
43172SOL    HW236122   7.899   8.082   1.975  0.7467 -0.6973 -0.3254
43173SOL     OW36123   9.272   0.334   5.984  0.1634  0.6527 -0.2083
43173SOL    HW136124   9.203   0.377   6.036 -0.7602 -0.2920 -0.6079
43173SOL    HW236125   9.315   0.275   6.046  2.0799  2.7416  0.5991
43174SOL     OW36126  12.584   0.934   6.948 -0.2360  0.0870  0.0353
43174SOL    HW136127  12.649   0.879   6.904 -0.5034 -1.2212  1.2166
43174SOL    HW236128  12.501   0.910   6.908  0.0089  2.4058 -2.1184
43175SOL     OW36129   1.565   2.967  10.237 -0.4938  0.1772  0.6979
43175SOL    HW136130   1.469   2.970  10.232 -0.4252  1.5431 -0.2723
43175SOL    HW236131   1.587   2.878  10.210 -1.4166  0.4449 -1.1000
43176SOL     OW36132   1.563   4.139   5.192 -0.2109  0.4358  0.0173
43176SOL    HW136133   1.505   4.063   5.196  0.1545  0.1569  0.1081
43176SOL    HW236134   1.641   4.111   5.240  0.7047  0.1776 -1.5673
43177SOL     OW36135   0.734   7.908   5.931  0.1567  0.2402 -0.1423
43177SOL    HW136136   0.684   7.977   5.976  1.5646  1.6328 -0.5808
43177SOL    HW236137   0.825   7.937   5.940  0.5821  0.0173 -2.9483
43178SOL     OW36138   3.550   7.941   4.153 -0.0835  0.4193  0.5093
43178SOL    HW136139   3.521   7.889   4.228  0.1880 -0.4863 -0.0032
43178SOL    HW236140   3.570   8.027   4.190 -0.7299  0.2332  1.3342
43179SOL     OW36141   5.553   1.169  10.893  0.0652  0.1016 -0.0043
43179SOL    HW136142   5.495   1.234  10.932  1.4505  0.7851  1.0098
43179SOL    HW236143   5.613   1.220  10.838  0.9402 -0.3453  0.5116
43180SOL     OW36144   3.964   2.534   1.938 -0.0491 -0.6952  0.1595
43180SOL    HW136145   4.013   2.532   2.020  0.4228 -1.7715 -0.1291
43180SOL    HW236146   4.008   2.602   1.886 -0.3197 -0.0437  0.7564
43181SOL     OW36147   1.879  11.855   8.994  0.8332  0.2480  0.5998
43181SOL    HW136148   1.941  11.928   8.998  2.5709 -1.0527 -0.5195
43181SOL    HW236149   1.835  11.855   9.079  1.2692  2.1576  0.8673
43182SOL     OW36150   3.820  12.529   9.248 -0.6314  0.2595 -0.1437
43182SOL    HW136151   3.794  12.531   9.156  0.6433 -0.3226 -0.5407
43182SOL    HW236152   3.763  12.463   9.287  0.2987 -1.1556 -1.0463
43183SOL     OW36153  10.371   3.775   4.960 -0.6926  0.1082  0.0606
43183SOL    HW136154  10.366   3.739   5.048  0.4249 -0.0230  0.0921
43183SOL    HW236155  10.406   3.704   4.907  0.1923  0.6843 -0.1573
43184SOL     OW36156   0.575  11.453   7.228  0.1482 -0.3345  0.6011
43184SOL    HW136157   0.554  11.409   7.310  0.9843  0.1500  1.0916
43184SOL    HW236158   0.622  11.386   7.177 -0.7846 -0.7821  0.3174
43185SOL     OW36159  11.788   1.368   7.739 -0.2097  0.4365 -0.4122
43185SOL    HW136160  11.862   1.370   7.677 -0.5655 -1.5981 -0.9653
43185SOL    HW236161  11.711   1.380   7.684 -0.4372  0.1005 -0.1694
43186SOL     OW36162  10.930  12.283   5.897  0.2775 -0.6152 -0.3022
43186SOL    HW136163  10.853  12.256   5.947 -0.6472  0.4599 -1.1048
43186SOL    HW236164  10.932  12.378   5.905  2.9181 -0.7320  1.6647
43187SOL     OW36165   7.800  11.908   0.249  0.3890 -0.3313  0.0280
43187SOL    HW136166   7.857  11.834   0.229  2.3289  1.2018 -0.4584
43187SOL    HW236167   7.852  11.964   0.307 -1.2932  0.3228  0.9964
43188SOL     OW36168   5.827   4.152  12.632  0.1771 -0.5759  0.0968
43188SOL    HW136169   5.848   4.199  12.713  0.1042  0.2558 -0.3522
43188SOL    HW236170   5.804   4.221  12.570 -1.8462 -1.3211 -0.0377
43189SOL     OW36171   5.972  11.243   4.082 -0.4136 -0.2319  0.0677
43189SOL    HW136172   5.996  11.332   4.106  0.3127 -0.1070 -1.0370
43189SOL    HW236173   6.053  11.192   4.091 -0.7336 -0.7019  0.3347
43190SOL     OW36174   7.941   2.788   1.997 -0.3770 -0.5062  1.0464
43190SOL    HW136175   7.861   2.838   2.013  0.1197  0.7427 -0.1007
43190SOL    HW236176   7.936   2.764   1.904 -0.6296 -2.7200  1.5803
43191SOL     OW36177   2.591   7.730   9.344 -0.4118 -0.1710 -0.1663
43191SOL    HW136178   2.569   7.770   9.260 -0.8557  0.5127  0.2677
43191SOL    HW236179   2.594   7.803   9.405  0.3926 -0.5982  0.3267
43192SOL     OW36180   9.225   3.593   8.546 -0.4581  0.6330 -0.3480
43192SOL    HW136181   9.204   3.523   8.484  0.8098  1.3163 -1.6142
43192SOL    HW236182   9.210   3.674   8.497 -0.6683  1.2307  0.6710
43193SOL     OW36183   5.275   3.931  11.580 -0.1154 -0.0409 -0.0707
43193SOL    HW136184   5.194   3.932  11.530  0.7798 -0.6836 -1.6349
43193SOL    HW236185   5.259   3.988  11.654 -1.4866  1.0596 -1.1659
43194SOL     OW36186   1.718   5.166   4.839 -0.0582 -0.1855  0.2307
43194SOL    HW136187   1.733   5.245   4.788  1.1168 -0.5445 -0.0089
43194SOL    HW236188   1.753   5.188   4.926  2.7447 -1.2494 -0.5041
43195SOL     OW36189   2.970   2.588   2.029 -0.0888 -0.0110  0.2975
43195SOL    HW136190   3.048   2.630   2.066 -0.3972  0.6251  0.2415
43195SOL    HW236191   2.995   2.497   2.018  1.1696  0.4689 -1.1356
43196SOL     OW36192   2.203   0.892   5.826 -0.3542  0.1998  0.2004
43196SOL    HW136193   2.107   0.888   5.827 -0.3531 -0.5292 -0.6510
43196SOL    HW236194   2.227   0.846   5.745  0.8355 -2.3332  1.8521
43197SOL     OW36195   2.151   2.600  10.814 -0.1839  0.9718 -0.0520
43197SOL    HW136196   2.094   2.630  10.743 -1.1377  0.8069  0.6185
43197SOL    HW236197   2.201   2.528  10.775  0.2257  1.7041 -0.9071
43198SOL     OW36198   1.012   5.823  12.000 -0.2618  0.7143  0.3332
43198SOL    HW136199   0.987   5.904  12.044 -2.3546  0.9225 -1.0886
43198SOL    HW236200   1.049   5.852  11.916 -0.8438  0.2188 -0.1000
43199SOL     OW36201   9.376   6.255   0.470  0.0985  0.6005 -0.1414
43199SOL    HW136202   9.325   6.331   0.443 -0.8205  0.4668  1.1194
43199SOL    HW236203   9.359   6.247   0.563 -0.4595 -1.6031 -0.3763
43200SOL     OW36204   0.750   7.951  12.718  0.5131  0.2358 -0.2544
43200SOL    HW136205   0.799   8.031  12.738  0.2871  0.0273  1.2816
43200SOL    HW236206   0.783   7.886  12.780 -0.2941 -0.4577 -0.5292
43201SOL     OW36207   9.430  12.627  10.639 -0.3782  0.0159 -0.1495
43201SOL    HW136208   9.418  12.602  10.547  0.1104 -1.8591  0.2740
43201SOL    HW236209   9.456  12.547  10.683  1.3742  1.2954  1.2765
43202SOL     OW36210   4.878   5.441   8.710 -0.0451 -0.6308 -0.2699
43202SOL    HW136211   4.849   5.463   8.798 -1.0476 -0.5202 -0.6138
43202SOL    HW236212   4.910   5.523   8.673  0.5412 -0.7133  0.0448
43203SOL     OW36213   4.219  10.447   7.478 -0.2715  0.1577  0.3021
43203SOL    HW136214   4.299  10.400   7.501 -0.0735  1.9977  4.0569
43203SOL    HW236215   4.249  10.530   7.443 -0.1811  2.1457  4.4754
43204SOL     OW36216   1.047   4.806  12.127 -0.3018 -0.0008 -0.1675
43204SOL    HW136217   1.030   4.898  12.144 -2.0084 -0.3650  0.2924
43204SOL    HW236218   0.971   4.776  12.077 -0.0363 -1.2649  0.1472
43205SOL     OW36219   1.716   3.934   3.019  0.0764  0.0642  0.6645
43205SOL    HW136220   1.662   3.862   2.987 -0.8547  0.0933  2.0772
43205SOL    HW236221   1.799   3.893   3.043 -0.2038 -0.4138  0.8237
43206SOL     OW36222   0.435  10.862   0.077  0.3813  0.0765  0.0969
43206SOL    HW136223   0.471  10.787   0.124 -0.2163  0.1163  0.6464
43206SOL    HW236224   0.491  10.935   0.103 -0.5560  0.2982  1.6003
43207SOL     OW36225  12.291  11.303   6.537  0.4416 -0.3072 -0.6227
43207SOL    HW136226  12.254  11.287   6.450 -1.6306 -0.9933  0.3300
43207SOL    HW236227  12.236  11.252   6.596  3.4251 -2.1062  0.8571
43208SOL     OW36228   4.150   4.703   1.495  0.1017 -0.6122 -0.2105
43208SOL    HW136229   4.075   4.724   1.550  0.3645 -0.5678  0.1313
43208SOL    HW236230   4.162   4.609   1.505  0.3355 -0.5561  0.0456
43209SOL     OW36231  12.581  11.983   1.092  0.0733  0.0755  0.4309
43209SOL    HW136232  12.550  11.940   1.171  0.0301 -1.2203 -0.2641
43209SOL    HW236233  12.547  12.072   1.099  2.2692  0.8196  3.0967
43210SOL     OW36234  12.203   7.792  12.183  0.3051 -0.3273  0.0197
43210SOL    HW136235  12.197   7.734  12.108 -2.0620 -0.8538  0.5346
43210SOL    HW236236  12.132   7.854  12.172  0.1753 -0.1402  1.5944
43211SOL     OW36237  10.367   9.961   4.506 -0.0190 -0.3610 -0.4857
43211SOL    HW136238  10.372   9.995   4.596  1.1867  0.7618 -0.9448
43211SOL    HW236239  10.333  10.034   4.455 -1.7120 -1.3291 -0.8052
43212SOL     OW36240   1.256   2.778  10.890 -0.6368 -0.4548 -0.4179
43212SOL    HW136241   1.309   2.847  10.850  0.4000 -0.5847  0.6683
43212SOL    HW236242   1.313   2.700  10.887 -0.5879 -0.5023  1.1304
43213SOL     OW36243   8.380   0.511   2.131  0.1924 -0.2946  0.2154
43213SOL    HW136244   8.414   0.530   2.218  3.2751 -0.0525 -0.9045
43213SOL    HW236245   8.421   0.428   2.107 -1.0208 -0.6194 -0.8332
43214SOL     OW36246   3.145  12.254   1.837 -0.5569 -0.3371  0.5131
43214SOL    HW136247   3.065  12.256   1.784 -0.4125  1.8984  0.3163
43214SOL    HW236248   3.144  12.167   1.877 -1.8733 -1.2358 -1.3001
43215SOL     OW36249   8.794   3.403  11.056 -0.0533 -0.4973 -0.4627
43215SOL    HW136250   8.751   3.391  10.971 -2.1607 -3.6515  0.8981
43215SOL    HW236251   8.881   3.365  11.044 -1.0172 -2.7545 -0.7782
43216SOL     OW36252   8.702   1.065  11.827 -0.3527  0.5770 -0.5039
43216SOL    HW136253   8.717   1.011  11.749  3.3346  0.8343 -0.1705
43216SOL    HW236254   8.686   1.153  11.793 -0.1908  0.4164 -1.0047
43217SOL     OW36255   1.225   4.148   5.280  0.1912 -0.2273  0.3008
43217SOL    HW136256   1.240   4.154   5.185  2.9504  0.6248  0.7053
43217SOL    HW236257   1.233   4.054   5.299 -2.3657 -0.6861 -0.5054
43218SOL     OW36258   9.891  10.822   2.602  0.2603  0.4012  0.3797
43218SOL    HW136259   9.918  10.784   2.686  1.5069 -0.3346 -0.3232
43218SOL    HW236260   9.898  10.750   2.540  1.3774  1.4101 -0.7364
43219SOL     OW36261   1.669   7.246   4.484 -0.0975  0.3181 -0.3681
43219SOL    HW136262   1.577   7.253   4.511 -0.4474 -1.0175 -1.1719
43219SOL    HW236263   1.669   7.186   4.410  1.5155 -0.1903  0.0021
43220SOL     OW36264  12.315   8.218   1.757  0.4157  0.1710  0.0772
43220SOL    HW136265  12.227   8.210   1.720  0.1986 -1.0049  0.8119
43220SOL    HW236266  12.309   8.294   1.815 -0.1576  0.0220  0.2238
43221SOL     OW36267  11.522   8.816  12.447 -0.5232 -0.4938  0.5599
43221SOL    HW136268  11.561   8.739  12.405 -1.0719 -0.4787  0.0057
43221SOL    HW236269  11.562   8.890  12.402 -1.8068 -0.4794 -0.6343
43222SOL     OW36270   5.718  11.509   3.088 -0.3680 -0.8234  0.4438
43222SOL    HW136271   5.670  11.483   3.010 -1.0010  2.2236 -0.3268
43222SOL    HW236272   5.685  11.597   3.108  4.1340  1.1860  0.3604
43223SOL     OW36273   9.834  10.750   7.695 -0.0374  0.2025 -0.0483
43223SOL    HW136274   9.821  10.659   7.719 -0.0060 -0.3169 -1.8519
43223SOL    HW236275   9.787  10.760   7.612  0.8112  1.5487 -0.3975
43224SOL     OW36276   8.058   9.121   4.776  0.5186 -0.5331 -0.1197
43224SOL    HW136277   8.023   9.105   4.689 -0.6188  0.3477  0.1589
43224SOL    HW236278   8.087   9.034   4.806 -0.0251 -1.0181 -0.9541
43225SOL     OW36279   7.555   7.078   0.625 -0.2592  0.5585  0.2278
43225SOL    HW136280   7.506   7.113   0.550  0.8122  0.7963 -0.3855
43225SOL    HW236281   7.633   7.038   0.586  0.8393  1.5993  1.2895
43226SOL     OW36282   8.443   8.055   7.464  0.1721 -0.1022  0.0685
43226SOL    HW136283   8.405   7.977   7.424  0.2460  0.6875 -1.5950
43226SOL    HW236284   8.376   8.085   7.525 -0.3086 -0.8235 -0.0888
43227SOL     OW36285   1.239   6.487   5.248 -0.1674 -0.0431 -0.1633
43227SOL    HW136286   1.270   6.577   5.256  1.1850 -0.2490 -2.1513
43227SOL    HW236287   1.218   6.478   5.155 -0.5732 -1.7017  0.0581
43228SOL     OW36288   4.851   4.278  10.515  0.0509  0.6993 -0.4779
43228SOL    HW136289   4.776   4.286  10.574  0.3156  1.0456 -0.1768
43228SOL    HW236290   4.874   4.185  10.517  0.9871  0.9194  1.1564
43229SOL     OW36291   0.003   0.742   7.102  0.2526  0.2343  0.4992
43229SOL    HW136292   0.066   0.672   7.119 -1.1351 -1.0501  0.5312
43229SOL    HW236293   0.044   0.794   7.033  2.4156  0.8833  2.1587
43230SOL     OW36294   2.080   9.754   6.879  0.3243 -0.2268 -0.0514
43230SOL    HW136295   2.157   9.806   6.859  0.7492 -0.7572  0.1756
43230SOL    HW236296   2.056   9.714   6.795  0.4234 -0.2272 -0.0799
43231SOL     OW36297  11.722  12.697   4.734  0.6055 -0.3120 -0.4808
43231SOL    HW136298  11.739  12.791   4.731 -2.3842  0.3043 -2.2863
43231SOL    HW236299  11.726  12.675   4.827 -1.4177  2.2697  0.3383
43232SOL     OW36300  10.082   0.583   1.816  0.6601  0.0729 -0.3025
43232SOL    HW136301  10.066   0.635   1.737  1.5136 -0.1452 -0.6204
43232SOL    HW236302   9.995   0.550   1.840  0.1535  1.3267 -0.3093
43233SOL     OW36303   7.115   7.243  12.298  0.0329 -0.2354 -0.1434
43233SOL    HW136304   7.130   7.165  12.351 -2.2313 -0.0431  0.8929
43233SOL    HW236305   7.022   7.264  12.311 -0.0704  1.1299 -2.4527
43234SOL     OW36306   1.206   5.170   6.286  0.0056 -0.0280 -0.0191
43234SOL    HW136307   1.134   5.148   6.345  1.1076  1.0478  1.7990
43234SOL    HW236308   1.274   5.206   6.343  1.4212  0.3585 -1.8639
43235SOL     OW36309   2.979   8.124   2.634  0.0822  0.0972 -0.2050
43235SOL    HW136310   3.073   8.114   2.624 -0.0935 -1.5295 -0.4364
43235SOL    HW236311   2.961   8.213   2.602  1.3953  0.0585 -1.1426
43236SOL     OW36312   7.855   5.106   7.948  0.3457  0.2185  0.1469
43236SOL    HW136313   7.824   5.192   7.920 -0.9682 -0.1858  0.2900
43236SOL    HW236314   7.834   5.102   8.041  1.4826  0.1847  0.4210
43237SOL     OW36315   6.549   1.268   2.588 -0.0950 -0.2448  0.3219
43237SOL    HW136316   6.471   1.292   2.638  0.8728 -0.8073  2.1738
43237SOL    HW236317   6.596   1.350   2.575 -1.3555  0.2492 -1.5663
43238SOL     OW36318   6.574   4.574   2.997  0.4270 -0.4313 -0.6234
43238SOL    HW136319   6.594   4.642   3.061 -1.8069 -0.5031  0.2423
43238SOL    HW236320   6.641   4.584   2.929 -0.9518  4.0539 -1.6540
43239SOL     OW36321  12.554   6.136   9.001 -0.0665  0.1661 -0.1838
43239SOL    HW136322  12.627   6.075   9.002 -0.0278  0.2220  0.5771
43239SOL    HW236323  12.476   6.081   8.988  0.0694  0.0728 -0.6288
43240SOL     OW36324   3.643   6.470   5.647  0.0060 -0.2138 -0.0276
43240SOL    HW136325   3.621   6.562   5.629  0.5926  0.0907  0.7461
43240SOL    HW236326   3.642   6.428   5.561  3.8870  1.4283 -1.0949
43241SOL     OW36327   6.203   7.574   2.542  0.3104  0.3648  0.3261
43241SOL    HW136328   6.189   7.548   2.633 -0.5216 -0.3029  0.0223
43241SOL    HW236329   6.140   7.643   2.526 -0.3145 -0.2797 -0.0528
43242SOL     OW36330   2.953   3.021   7.437 -0.5855 -0.3167 -0.5260
43242SOL    HW136331   2.963   3.104   7.482  0.2297 -0.1042 -1.0641
43242SOL    HW236332   2.876   2.981   7.476  1.0067 -0.9216  2.2383
43243SOL     OW36333   8.268   0.336   7.988  0.4265 -0.0848 -0.2814
43243SOL    HW136334   8.187   0.335   7.937  1.4127 -1.4385 -1.9133
43243SOL    HW236335   8.249   0.282   8.065  0.7460 -3.4974 -2.3935
43244SOL     OW36336   6.525   8.574   8.338 -0.1924 -0.6029  0.1423
43244SOL    HW136337   6.435   8.546   8.323  0.4726 -2.6915 -0.1656
43244SOL    HW236338   6.574   8.494   8.353  1.7990  0.4036 -0.5398
43245SOL     OW36339   2.318  12.727   7.883 -0.1818  0.2157  0.2254
43245SOL    HW136340   2.301  12.784   7.808  0.3851 -0.3979 -0.3839
43245SOL    HW236341   2.231  12.709   7.920 -0.4191  0.9422  0.0309
43246SOL     OW36342   3.181  11.233   3.260  0.3424 -0.2302  0.4374
43246SOL    HW136343   3.230  11.259   3.338  1.9942 -0.1017 -0.5661
43246SOL    HW236344   3.102  11.287   3.261 -0.5801 -1.5006  2.9048
43247SOL     OW36345  10.062  12.148   7.875 -0.3807 -0.4368  0.0392
43247SOL    HW136346  10.100  12.061   7.859  1.0739  0.0167  0.8134
43247SOL    HW236347  10.036  12.146   7.967  0.5747  0.2623  0.3327
43248SOL     OW36348   4.350   3.902   8.580  0.3524 -0.2969 -0.6370
43248SOL    HW136349   4.262   3.895   8.544  0.4636  3.0308 -1.9878
43248SOL    HW236350   4.405   3.848   8.523 -0.7784 -2.7095  0.4544
43249SOL     OW36351   1.093   8.737  10.917  0.2126  0.3820  0.2347
43249SOL    HW136352   1.170   8.768  10.965  0.3927  0.9011 -0.3814
43249SOL    HW236353   1.026   8.725  10.985  0.6799  0.4169  0.7101
43250SOL     OW36354   4.823   0.521   4.030  0.1919 -0.3815  0.1482
43250SOL    HW136355   4.895   0.557   4.083 -0.2383  1.1627 -0.2775
43250SOL    HW236356   4.867   0.486   3.952  0.5858 -0.4111  0.3782
43251SOL     OW36357   0.769   2.373   8.434  0.1999 -0.4620 -0.1597
43251SOL    HW136358   0.722   2.322   8.500  0.1479 -1.4782 -0.9650
43251SOL    HW236359   0.700   2.418   8.385  0.2604  0.7625  0.8004
43252SOL     OW36360   9.636   6.344  10.674  0.4811 -0.4683 -0.1835
43252SOL    HW136361   9.644   6.273  10.610 -0.8378 -1.6387  0.9032
43252SOL    HW236362   9.544   6.368  10.672  0.3933 -0.6031  1.3526
43253SOL     OW36363   3.629   7.784   8.047 -0.5824 -0.1681  0.0438
43253SOL    HW136364   3.609   7.877   8.053 -0.4489 -0.1694  0.6685
43253SOL    HW236365   3.719   7.781   8.013 -0.3586 -0.0391  0.6019
43254SOL     OW36366  12.185   2.317   7.268 -0.2962  0.8985  0.0915
43254SOL    HW136367  12.197   2.299   7.175  1.9092  0.1390  0.4574
43254SOL    HW236368  12.144   2.238   7.303 -1.2279  1.2280 -0.2331
43255SOL     OW36369   7.363   2.879   6.659 -0.5214  0.2616  0.0052
43255SOL    HW136370   7.323   2.961   6.686  0.1782  0.9957 -1.1020
43255SOL    HW236371   7.319   2.856   6.577  0.5046  0.4952 -0.6332
43256SOL     OW36372   3.057   5.023   2.672  0.1258 -0.1575 -0.1176
43256SOL    HW136373   3.131   5.007   2.730  0.7066 -0.5208 -0.9306
43256SOL    HW236374   3.088   4.994   2.586 -1.8233 -2.8625 -0.0404
43257SOL     OW36375   9.076   2.459   4.405 -0.3146  0.2057  0.5450
43257SOL    HW136376   9.050   2.417   4.323  1.7825 -0.6555  0.2438
43257SOL    HW236377   9.163   2.422   4.424 -0.5198  0.7636  2.8989
43258SOL     OW36378   9.712   0.400   9.192 -0.7047  0.0868 -0.0437
43258SOL    HW136379   9.728   0.424   9.283 -1.1358 -0.4839  0.1889
43258SOL    HW236380   9.688   0.482   9.149 -0.2135  0.4063  0.2913
43259SOL     OW36381   6.352  11.102   3.295 -0.1668  0.0234 -0.5736
43259SOL    HW136382   6.299  11.180   3.310 -0.4212 -0.1156 -0.7311
43259SOL    HW236383   6.292  11.029   3.315 -0.3815 -0.1602 -1.8399
43260SOL     OW36384   3.093   0.008   4.966  0.0056  0.1414 -0.0692
43260SOL    HW136385   3.137   0.049   4.892  0.8152  0.7835  0.7315
43260SOL    HW236386   3.055   0.081   5.015  1.1838 -0.0368  1.1986
43261SOL     OW36387   9.944   3.477  11.550  0.6132  0.0465  0.4042
43261SOL    HW136388   9.961   3.503  11.641 -0.3353 -0.7765  0.8287
43261SOL    HW236389   9.970   3.554  11.499  1.0054  0.5870  1.3817
43262SOL     OW36390  10.043   8.781   9.368 -0.2613 -0.0853 -0.2909
43262SOL    HW136391  10.054   8.690   9.343  0.7578 -0.1325  0.2524
43262SOL    HW236392  10.132   8.814   9.379 -0.5059  1.6131 -2.6307
43263SOL     OW36393   4.488   5.081   7.410  0.3405 -0.0586  0.0390
43263SOL    HW136394   4.439   5.110   7.486 -1.3829 -0.1195 -1.0034
43263SOL    HW236395   4.494   5.158   7.354  0.5111 -0.3233 -0.3140
43264SOL     OW36396   4.421  10.189   8.351 -0.2531  0.0208  0.3840
43264SOL    HW136397   4.418  10.107   8.400  0.4250 -0.8123 -0.8961
43264SOL    HW236398   4.505  10.228   8.375 -0.3611  0.1005  0.6295
43265SOL     OW36399  10.258   5.647  11.750 -0.6738  0.4934  0.1925
43265SOL    HW136400  10.252   5.554  11.771  0.1571  0.3993  0.0270
43265SOL    HW236401  10.237   5.691  11.833 -0.5131  0.1516  0.4168
43266SOL     OW36402   8.125   9.196   2.690 -0.1338 -0.4970 -0.1294
43266SOL    HW136403   8.142   9.278   2.644  0.7507 -1.1235 -0.9476
43266SOL    HW236404   8.117   9.131   2.621  0.0937 -1.2683  0.5574
43267SOL     OW36405  11.691   1.985  11.877  0.7595  0.0790 -0.5019
43267SOL    HW136406  11.597   1.991  11.858  0.1413 -0.6788  2.0089
43267SOL    HW236407  11.716   1.897  11.846  0.1864 -0.4552  0.5213
43268SOL     OW36408   9.457  12.693  10.361  0.2081 -0.4672  0.3862
43268SOL    HW136409   9.369  12.727  10.380  0.1133 -0.1726 -0.5071
43268SOL    HW236410   9.516  12.757  10.400  0.0243 -0.0243 -0.0507
43269SOL     OW36411   8.965   9.239   0.005 -0.0007 -0.1493 -0.6543
43269SOL    HW136412   8.887   9.183   0.004  1.2666 -2.0103 -0.2928
43269SOL    HW236413   9.037   9.180   0.029  1.5796  1.4483 -1.2317
43270SOL     OW36414   8.937   3.953  10.364 -0.2424  0.0646  0.3809
43270SOL    HW136415   8.877   4.020  10.396 -1.1891 -0.6833  0.2405
43270SOL    HW236416   8.889   3.871  10.375  0.3897 -0.4626 -0.6276
43271SOL     OW36417   8.488   7.104   0.903 -0.4227  0.1280 -0.0471
43271SOL    HW136418   8.542   7.072   0.831  0.1165  1.5695 -0.3168
43271SOL    HW236419   8.426   7.033   0.920  1.4713 -1.5363  0.2198
43272SOL     OW36420  11.745   5.764   8.698  0.0640  0.1387  0.0888
43272SOL    HW136421  11.704   5.739   8.615  0.9407  1.0211 -0.6410
43272SOL    HW236422  11.839   5.765   8.679  0.3877 -1.0373  1.5001
43273SOL     OW36423   9.047   8.861   1.778  0.1561  0.2837 -0.1295
43273SOL    HW136424   9.118   8.850   1.841  0.8424  0.1781 -0.9094
43273SOL    HW236425   9.085   8.836   1.694 -0.7281  0.4844 -0.6030
43274SOL     OW36426   4.019   9.251   1.848  0.3780 -0.7382 -0.3382
43274SOL    HW136427   4.022   9.205   1.764  0.3912 -2.4320  0.5601
43274SOL    HW236428   4.024   9.182   1.914  0.2508  0.5498  1.0731
43275SOL     OW36429   5.341   2.017   3.222 -0.0703  0.4391  0.2157
43275SOL    HW136430   5.358   1.938   3.273  1.3785  0.6791  0.1327
43275SOL    HW236431   5.317   2.083   3.288  1.1517  0.5734  0.5469
43276SOL     OW36432   2.836   2.073   2.012  0.3143 -0.0459  0.2486
43276SOL    HW136433   2.855   2.132   1.938 -2.3864 -0.4726 -0.9038
43276SOL    HW236434   2.797   1.996   1.971 -4.1462  0.8972  2.1394
43277SOL     OW36435   4.550   8.530   0.996  0.0338  0.6759  0.6391
43277SOL    HW136436   4.610   8.603   0.984  0.6276  0.7749  3.4871
43277SOL    HW236437   4.575   8.467   0.929  2.2289  1.4078  0.7062
43278SOL     OW36438   5.625  10.991   4.472 -0.1102  0.3124 -0.3001
43278SOL    HW136439   5.600  11.071   4.517 -0.5706  0.3914 -0.6867
43278SOL    HW236440   5.716  11.006   4.446  0.0361  0.4153  0.2691
43279SOL     OW36441  10.151   4.306   1.574  0.4892  0.0150  0.2626
43279SOL    HW136442  10.129   4.395   1.548 -1.6847 -0.4384  0.3442
43279SOL    HW236443  10.208   4.273   1.505 -2.6087 -0.1109 -2.4559
43280SOL     OW36444   5.573   3.245  11.271  0.6597 -0.2042  0.2518
43280SOL    HW136445   5.643   3.209  11.325  0.0204  1.2968  2.2301
43280SOL    HW236446   5.493   3.201  11.302  0.2467  0.8682  0.7626
43281SOL     OW36447   3.078   5.580   7.261  0.0947 -0.5159  0.1876
43281SOL    HW136448   3.019   5.615   7.328 -0.5083 -1.7695  0.3409
43281SOL    HW236449   3.124   5.508   7.305  0.8499 -0.3385 -0.2906
43282SOL     OW36450   1.076   5.778   9.847  0.2085 -0.1216 -0.5559
43282SOL    HW136451   1.122   5.840   9.903 -0.1897  0.3599 -0.7464
43282SOL    HW236452   0.995   5.758   9.895 -0.3056  0.5722 -1.1032
43283SOL     OW36453  10.780   4.805  11.644  0.3411  0.2001  0.4383
43283SOL    HW136454  10.819   4.893  11.646 -0.3845  0.5280  0.5772
43283SOL    HW236455  10.733   4.802  11.560  1.1226 -0.3964  0.0128
43284SOL     OW36456   2.249   8.852  11.948 -0.7361 -0.0840  0.4793
43284SOL    HW136457   2.237   8.789  12.019 -0.9998  0.1933  0.6807
43284SOL    HW236458   2.343   8.870  11.948 -0.9374  1.1474  1.8230
43285SOL     OW36459  11.775  10.937   2.782  0.0939 -0.2208 -0.3796
43285SOL    HW136460  11.737  10.893   2.859 -0.0595  0.7453  0.1101
43285SOL    HW236461  11.826  11.009   2.819  0.3389  0.0155 -1.1717
43286SOL     OW36462   1.110   9.056  11.969 -0.4092 -0.2431  0.0403
43286SOL    HW136463   1.038   9.118  11.980  0.2353  0.7666 -1.2419
43286SOL    HW236464   1.118   9.014  12.055 -2.3340 -0.1932  0.2923
43287SOL     OW36465   2.806   7.090   2.568 -0.0676  0.4110  0.0240
43287SOL    HW136466   2.885   7.053   2.608 -0.1004 -0.4417 -0.6692
43287SOL    HW236467   2.823   7.184   2.567  1.0529  0.2290 -0.3019
43288SOL     OW36468   9.928   6.095  10.461 -0.1757  0.3987  0.0273
43288SOL    HW136469   9.937   6.001  10.451  1.0323  0.4313  0.5248
43288SOL    HW236470   9.933   6.130  10.372 -0.3928  0.0049 -0.1371
43289SOL     OW36471   7.693   3.359   6.912  0.2497 -0.4035 -0.3808
43289SOL    HW136472   7.618   3.393   6.863  1.0683  1.7846 -0.2137
43289SOL    HW236473   7.708   3.424   6.980 -0.0397 -2.7122  2.0467
43290SOL     OW36474   7.795   0.745   5.434  0.2424  0.0438 -0.6757
43290SOL    HW136475   7.879   0.771   5.397  1.0763 -1.4676  0.0673
43290SOL    HW236476   7.796   0.649   5.431 -0.3663 -0.0967  1.6263
43291SOL     OW36477   8.433   2.183   0.560 -0.4336 -1.0094  0.2548
43291SOL    HW136478   8.383   2.106   0.536  0.1648 -0.9660 -1.2089
43291SOL    HW236479   8.521   2.150   0.579  0.1565 -0.6002 -1.5430
43292SOL     OW36480   6.475   0.207  11.998 -0.1130 -0.0408  0.1850
43292SOL    HW136481   6.466   0.118  12.031 -1.2078  0.3955  1.1900
43292SOL    HW236482   6.484   0.261  12.077  0.6631  0.7226 -0.4068
43293SOL     OW36483   5.721  10.921  10.131  0.1085  0.1394 -0.1224
43293SOL    HW136484   5.806  10.900  10.171 -0.7520 -2.6085  0.4525
43293SOL    HW236485   5.723  11.017  10.120  1.9640  0.5941  2.9050
43294SOL     OW36486   1.407   6.111   4.558 -0.5590 -0.6063  0.4978
43294SOL    HW136487   1.323   6.111   4.604 -0.2918 -1.1235  0.9879
43294SOL    HW236488   1.470   6.075   4.620 -0.5181 -3.0186 -0.8127
43295SOL     OW36489   1.845   8.394   8.506  1.2000  0.2610  0.1821
43295SOL    HW136490   1.794   8.313   8.510  0.9048  0.3969 -0.5336
43295SOL    HW236491   1.807   8.450   8.574  1.5757 -0.2903  0.8493
43296SOL     OW36492   3.955  10.737   6.184 -0.0509 -0.4141 -0.0161
43296SOL    HW136493   4.019  10.741   6.113  0.3240 -2.8111  0.0917
43296SOL    HW236494   4.004  10.702   6.258 -1.0912 -0.6125  0.5975
43297SOL     OW36495   6.749  11.940  11.666 -0.3683  0.4303  0.1623
43297SOL    HW136496   6.822  11.889  11.703  0.2413  0.4038 -1.0425
43297SOL    HW236497   6.673  11.882  11.676  0.5035 -1.3074 -2.2251
43298SOL     OW36498   5.646  11.100  12.259  0.1432  0.1489 -0.1216
43298SOL    HW136499   5.696  11.149  12.194 -1.3090  0.9156 -0.7019
43298SOL    HW236500   5.645  11.010  12.226  0.8376  0.1942 -0.2763
43299SOL     OW36501   2.278   8.823   6.947  0.1388  0.1097  0.1081
43299SOL    HW136502   2.203   8.857   6.898 -0.4394 -0.0812  0.8412
43299SOL    HW236503   2.354   8.866   6.908 -0.2060 -0.7552 -1.5939
43300SOL     OW36504   7.558   9.700   4.688 -0.7626 -0.9211 -0.1932
43300SOL    HW136505   7.557   9.713   4.783  1.7049 -1.0952 -0.0778
43300SOL    HW236506   7.466   9.683   4.665 -1.6671  0.6211  1.9156
43301SOL     OW36507   6.250   7.624   8.632 -0.3994 -0.0930  1.0535
43301SOL    HW136508   6.345   7.613   8.637 -0.3017  0.3457  0.3852
43301SOL    HW236509   6.238   7.702   8.578 -1.1633 -1.1030 -0.2976
43302SOL     OW36510   5.217   7.457   4.513  0.4083  0.3377  0.6000
43302SOL    HW136511   5.150   7.526   4.510 -0.8183 -0.8435  0.0073
43302SOL    HW236512   5.199   7.403   4.436  0.6204 -1.2854  1.6433
43303SOL     OW36513   4.884   1.265   2.958 -0.0278 -0.2595 -0.1150
43303SOL    HW136514   4.853   1.356   2.956 -0.6785 -0.4753  0.1370
43303SOL    HW236515   4.867   1.232   2.869  1.1287  0.1592 -0.5138
43304SOL     OW36516   4.840  10.732   6.435 -0.0612 -0.6360 -0.0159
43304SOL    HW136517   4.846  10.804   6.372  0.7454  0.5766  1.4078
43304SOL    HW236518   4.854  10.654   6.382  3.0453  0.4685 -1.0463
43305SOL     OW36519  11.912   4.284   2.386 -0.1494  0.2202  0.1418
43305SOL    HW136520  11.926   4.376   2.407  1.7438 -0.3658  1.6472
43305SOL    HW236521  11.989   4.239   2.419 -0.4125 -1.7760 -1.7046
43306SOL     OW36522   8.738   6.701   1.606 -0.0975  0.3730  0.0678
43306SOL    HW136523   8.671   6.732   1.667  0.8056  0.4265  1.0644
43306SOL    HW236524   8.756   6.777   1.551  0.0337  0.7420  0.6131
43307SOL     OW36525  11.343   5.301  10.015  0.5447 -0.0014 -0.4163
43307SOL    HW136526  11.344   5.383   9.965 -0.0386  0.9923  1.1310
43307SOL    HW236527  11.435   5.283  10.033  0.7332 -0.1761 -1.5123
43308SOL     OW36528   1.680  10.155   0.706 -0.6768 -0.2316  0.5280
43308SOL    HW136529   1.660  10.224   0.642  0.4677  1.1053  1.5427
43308SOL    HW236530   1.743  10.098   0.661 -0.4915  0.2480  0.1712
43309SOL     OW36531  12.386   7.689  11.902  0.0215  0.0980 -0.2205
43309SOL    HW136532  12.376   7.764  11.844 -0.0426  1.1000  1.0475
43309SOL    HW236533  12.298   7.652  11.908 -0.0355  0.1813 -0.4963
43310SOL     OW36534   8.898   8.754  10.580 -0.3716 -0.0479 -0.2196
43310SOL    HW136535   8.830   8.708  10.531  1.1690 -1.8722 -0.8123
43310SOL    HW236536   8.906   8.704  10.661  0.0658  0.3016 -0.0438
43311SOL     OW36537   1.148   3.265   9.411 -0.1838 -0.3114 -0.1393
43311SOL    HW136538   1.078   3.221   9.363 -0.0393 -0.9786  0.2361
43311SOL    HW236539   1.148   3.222   9.497  0.4667 -0.0915 -0.0262
43312SOL     OW36540   4.537  11.828   0.201 -0.5434 -0.3506 -0.7928
43312SOL    HW136541   4.475  11.773   0.153 -0.0805 -1.0345 -0.6344
43312SOL    HW236542   4.615  11.773   0.210 -0.5843 -0.2085  0.6654
43313SOL     OW36543  11.777   3.313  11.829 -0.1704 -1.0242 -0.0464
43313SOL    HW136544  11.739   3.288  11.744 -2.0285 -2.4737  1.1151
43313SOL    HW236545  11.769   3.234  11.883  2.5455 -0.6661  1.0078
43314SOL     OW36546   4.747   2.918   6.272  0.3711 -0.0671 -0.0112
43314SOL    HW136547   4.690   2.890   6.200 -0.4374 -1.5149  1.1439
43314SOL    HW236548   4.729   2.856   6.342  1.9041  0.6881  1.0979
43315SOL     OW36549   2.547   1.727  11.161 -0.0903  0.3855 -0.4449
43315SOL    HW136550   2.511   1.707  11.074 -0.2136  0.6018 -0.4437
43315SOL    HW236551   2.629   1.678  11.164  0.3184  1.0183 -1.0022
43316SOL     OW36552   9.647   5.958   9.211  0.4406 -0.4420  0.2749
43316SOL    HW136553   9.675   6.010   9.135  0.3206 -0.0778  0.4780
43316SOL    HW236554   9.698   5.994   9.284  0.1696 -0.4381  0.4632
43317SOL     OW36555   5.544   9.906   1.278 -0.1729  0.5186  0.0900
43317SOL    HW136556   5.491   9.985   1.283  0.3615  0.8569  0.4148
43317SOL    HW236557   5.610   9.916   1.347 -0.1076 -0.2106  0.1411
43318SOL     OW36558  10.537   0.122   8.408  0.3390  0.5269 -0.3881
43318SOL    HW136559  10.482   0.142   8.332  2.8092 -0.3195 -2.5633
43318SOL    HW236560  10.592   0.200   8.418  0.5059  0.3474  0.1210
43319SOL     OW36561   4.594   6.430   6.394 -0.7941 -0.1915  0.2725
43319SOL    HW136562   4.624   6.500   6.451 -1.1721  1.3828 -1.3787
43319SOL    HW236563   4.517   6.465   6.350 -1.4301 -1.9193 -0.0909
43320SOL     OW36564  10.823   2.733   0.035 -0.5070 -0.3503  0.3397
43320SOL    HW136565  10.801   2.685  -0.044  0.0940  2.0242 -1.3879
43320SOL    HW236566  10.739   2.752   0.076 -1.0484  0.4940 -1.0928
43321SOL     OW36567   9.778   9.032   6.456  0.0389  0.2631 -0.0629
43321SOL    HW136568   9.706   9.094   6.440 -0.5864  0.0934  1.8398
43321SOL    HW236569   9.855   9.075   6.418 -0.9040  0.7843 -1.4987
43322SOL     OW36570  10.769   0.085   0.529 -0.1008  0.2304  0.0455
43322SOL    HW136571  10.704   0.155   0.532 -0.0053  0.3321 -0.3520
43322SOL    HW236572  10.825   0.101   0.605 -0.2242  0.4415  0.0916
43323SOL     OW36573   6.678  11.739   0.040 -0.3011 -0.4682 -0.0543
43323SOL    HW136574   6.614  11.789  -0.011  0.3523 -1.1611 -1.6161
43323SOL    HW236575   6.626  11.670   0.082 -1.1330  1.1746  1.7386
43324SOL     OW36576   3.446  10.755   0.683  0.2189 -0.4475 -0.2564
43324SOL    HW136577   3.468  10.695   0.611  1.3077 -1.0454  0.5420
43324SOL    HW236578   3.529  10.766   0.730 -0.2368  0.7998  0.2747
43325SOL     OW36579   7.500  11.913   9.666  0.4458 -0.2830  0.7741
43325SOL    HW136580   7.452  11.887   9.745  0.0435 -0.4576  0.4783
43325SOL    HW236581   7.476  12.005   9.654  0.7947 -0.1528  1.0585
43326SOL     OW36582  10.257   2.091   8.139  0.3255 -0.1725  0.3702
43326SOL    HW136583  10.309   2.063   8.064  0.4201 -0.3866  0.5152
43326SOL    HW236584  10.197   2.018   8.155  0.3047 -0.1267  0.5026
43327SOL     OW36585   7.218   9.039  11.283  0.1336  0.5352  0.4514
43327SOL    HW136586   7.148   9.103  11.295  1.3084  1.7964  0.9396
43327SOL    HW236587   7.199   8.997  11.200 -2.0274 -0.2719  1.2781
43328SOL     OW36588   6.267   9.172   5.844 -0.1672 -0.3595 -0.4110
43328SOL    HW136589   6.351   9.154   5.801 -0.1560 -1.6178  0.1096
43328SOL    HW236590   6.233   9.086   5.867 -0.0765  0.2671  2.3016
43329SOL     OW36591  12.631   1.084   0.766 -0.5335  0.0031 -0.5865
43329SOL    HW136592  12.711   1.033   0.778  0.3431  1.8103  2.0763
43329SOL    HW236593  12.562   1.030   0.804  0.3662  0.6015  2.1255
43330SOL     OW36594   1.788   5.422   6.414 -0.0620 -0.0786 -0.5683
43330SOL    HW136595   1.749   5.504   6.444 -0.1707 -0.1990 -0.3817
43330SOL    HW236596   1.817   5.378   6.495  1.7671  0.6639 -0.7627
43331SOL     OW36597   7.031   4.037   4.494 -0.6117  0.2497 -0.1415
43331SOL    HW136598   7.038   4.127   4.463 -1.4666  0.4814  0.3051
43331SOL    HW236599   7.112   3.996   4.466  0.5475  1.5927  1.0630
43332SOL     OW36600   1.965   5.435   8.336 -0.7105 -0.2956 -0.0975
43332SOL    HW136601   1.892   5.473   8.288 -0.8118 -0.7111 -0.2814
43332SOL    HW236602   2.031   5.416   8.269  0.2291  1.4991  0.2359
43333SOL     OW36603   9.269   8.142   8.514 -0.0701 -0.5752  0.1913
43333SOL    HW136604   9.218   8.115   8.437  0.5624  0.1762 -0.5116
43333SOL    HW236605   9.226   8.098   8.588  0.1804 -2.5036 -0.7376
43334SOL     OW36606  10.168   3.483   8.893 -1.0097 -0.6631  0.1966
43334SOL    HW136607  10.200   3.573   8.892 -0.7889 -0.7136  1.2053
43334SOL    HW236608  10.246   3.429   8.876 -1.3514 -0.6391 -1.6066
43335SOL     OW36609   7.671   1.660   1.077 -0.1682 -0.3096  0.0393
43335SOL    HW136610   7.708   1.576   1.048 -1.9946 -0.8404 -0.9475
43335SOL    HW236611   7.577   1.643   1.085 -0.5712  1.6188 -0.0700
43336SOL     OW36612  10.203  12.146   4.168 -0.2368 -0.0636 -0.4993
43336SOL    HW136613  10.267  12.082   4.136 -0.2989  0.6099 -2.0597
43336SOL    HW236614  10.251  12.197   4.233  0.5255 -0.1917 -0.9455
43337SOL     OW36615   2.379   3.161   5.440 -0.4864 -0.3500 -0.7933
43337SOL    HW136616   2.388   3.080   5.389  3.4998 -1.5682  1.3430
43337SOL    HW236617   2.410   3.230   5.381  1.6511 -1.3564 -0.9641
43338SOL     OW36618  10.464   6.555   1.905 -0.0413  0.5067  0.2815
43338SOL    HW136619  10.408   6.619   1.948 -1.5355  1.1822 -2.4377
43338SOL    HW236620  10.456   6.476   1.959 -1.5832  1.3477  1.3558
43339SOL     OW36621   5.263   8.825   4.033  0.3218 -0.4884 -0.0969
43339SOL    HW136622   5.270   8.914   4.068 -0.6760  0.2595 -1.7035
43339SOL    HW236623   5.180   8.792   4.067  0.5479 -0.7058  0.2530
43340SOL     OW36624   1.161   6.041  10.229 -0.6150 -0.1329  0.3344
43340SOL    HW136625   1.224   5.969  10.232  0.7440  1.0422  0.4458
43340SOL    HW236626   1.081   6.003  10.266  0.9001 -0.7655  3.2501
43341SOL     OW36627   7.103   2.904   0.360  0.4127 -0.0657 -0.2966
43341SOL    HW136628   7.119   2.836   0.295 -1.3021 -0.1979 -0.6192
43341SOL    HW236629   7.014   2.934   0.343  0.6577  1.3432  0.6900
43342SOL     OW36630   2.021   2.913  11.058  0.0813 -0.2854 -0.0953
43342SOL    HW136631   2.078   2.940  11.130  2.1550 -1.0749 -1.3281
43342SOL    HW236632   2.005   2.820  11.073 -0.7043 -0.1229  0.1098
43343SOL     OW36633   2.727   4.887   4.714  0.0431  0.1819  0.4614
43343SOL    HW136634   2.790   4.819   4.689 -2.7119 -3.2624  2.0524
43343SOL    HW236635   2.703   4.866   4.804 -1.8943  2.5641  0.5993
43344SOL     OW36636   6.761  12.077  11.406  0.7377 -0.3610  0.0981
43344SOL    HW136637   6.739  12.038  11.490  0.5583  0.4877  0.4624
43344SOL    HW236638   6.684  12.128  11.382  0.1387 -1.8680 -1.3872
43345SOL     OW36639   0.617   6.782   0.628 -0.0109  0.3533  0.4727
43345SOL    HW136640   0.614   6.731   0.547 -0.6277  0.5823  0.3415
43345SOL    HW236641   0.525   6.788   0.656  0.1603  0.5610  1.0069
43346SOL     OW36642   2.339   3.873  12.729 -0.3368  0.6799 -0.2450
43346SOL    HW136643   2.293   3.888  12.811  1.9620 -1.2561  1.5661
43346SOL    HW236644   2.403   3.944  12.724 -0.8309  1.1049 -0.6848
43347SOL     OW36645   9.902   0.951   4.675 -0.5540  0.2907 -0.2732
43347SOL    HW136646   9.868   0.873   4.633  0.7048  0.4688 -1.6977
43347SOL    HW236647   9.996   0.947   4.661  0.0090  0.2913  2.7124
43348SOL     OW36648  11.479   9.887   1.226  0.1943 -0.3149  0.8167
43348SOL    HW136649  11.470   9.921   1.137  0.1600 -0.7037  0.6690
43348SOL    HW236650  11.405   9.926   1.274  0.2992  0.0112  0.7133
43349SOL     OW36651  12.232   0.330   2.838  0.0675 -0.3606  0.0319
43349SOL    HW136652  12.312   0.319   2.786 -0.0412  0.7997 -0.4007
43349SOL    HW236653  12.165   0.281   2.790  0.0571  0.3811 -0.7165
43350SOL     OW36654   3.443   9.696  12.134  0.1091  0.1967  0.0910
43350SOL    HW136655   3.351   9.724  12.130  0.5129  1.6602  0.3229
43350SOL    HW236656   3.488   9.770  12.175  1.0621 -1.3698  1.9982
43351SOL     OW36657   1.120  12.021   6.313  0.0322 -0.4578  0.2681
43351SOL    HW136658   1.182  12.092   6.329  1.1031 -1.1213 -0.7631
43351SOL    HW236659   1.174  11.949   6.280 -1.0664 -1.6496  0.9658
43352SOL     OW36660   7.494   0.837  11.595  0.4653  0.3695 -0.0543
43352SOL    HW136661   7.425   0.797  11.542 -0.4361 -0.1103  1.4066
43352SOL    HW236662   7.549   0.764  11.623  1.4415  0.7177 -0.9803
43353SOL     OW36663   2.070   0.065  10.629  0.6176  0.0109  0.0843
43353SOL    HW136664   2.050   0.099  10.541 -0.3362  1.8175  0.9405
43353SOL    HW236665   2.160   0.092  10.645  0.2536  1.1499  0.2840
43354SOL     OW36666   5.318  12.743   4.386 -0.0513  0.1857  0.2235
43354SOL    HW136667   5.300  12.791   4.305  0.8304 -0.4426 -0.3721
43354SOL    HW236668   5.408  12.712   4.375  0.0162 -0.0719  1.3738
43355SOL     OW36669   9.714   3.041  11.404  0.0825 -0.1648  0.1725
43355SOL    HW136670   9.671   2.957  11.389 -1.2725  0.7028 -1.0865
43355SOL    HW236671   9.753   3.064  11.320  1.2300  0.0751  0.7426
43356SOL     OW36672   8.742   9.945   7.739  0.5298  0.4197 -0.0396
43356SOL    HW136673   8.737   9.855   7.705  0.3597  0.4460 -0.0871
43356SOL    HW236674   8.771   9.934   7.829 -0.4504  0.2367  0.2744
43357SOL     OW36675   8.111   1.307   2.833 -0.7397  0.0761 -0.1819
43357SOL    HW136676   8.170   1.244   2.792 -1.4895 -1.7962  1.4423
43357SOL    HW236677   8.157   1.391   2.828  1.1552 -0.9509 -0.7194
43358SOL     OW36678   1.935   6.518   9.972  0.2375 -0.1035  0.2335
43358SOL    HW136679   1.993   6.544   9.900 -1.7742  2.9967 -0.4642
43358SOL    HW236680   1.867   6.466   9.929  0.8784 -1.2584  0.5666
43359SOL     OW36681   3.152   7.119   3.060  0.5094  0.5561  0.3546
43359SOL    HW136682   3.073   7.114   3.112 -1.5211 -0.2096 -2.5390
43359SOL    HW236683   3.195   7.034   3.073 -2.0879 -1.3176 -2.0902
43360SOL     OW36684   0.001   2.571   3.513 -0.1156 -0.1629 -0.1911
43360SOL    HW136685  -0.088   2.604   3.499 -0.2793 -0.9574 -1.2299
43360SOL    HW236686   0.030   2.544   3.425  1.4591  0.7970 -0.0197
43361SOL     OW36687   4.468  10.127   4.111  0.0491 -0.0326 -0.6876
43361SOL    HW136688   4.381  10.101   4.080 -0.4110  1.1927 -0.4947
43361SOL    HW236689   4.478  10.080   4.194 -1.4170  1.4908  0.4337
43362SOL     OW36690   2.006   1.152   0.774  0.0474  0.0020  0.0690
43362SOL    HW136691   1.928   1.191   0.734 -0.5891  2.0087  2.9158
43362SOL    HW236692   2.075   1.217   0.760  0.2416 -0.0684  0.6514
43363SOL     OW36693   7.467   2.569   0.915  0.1811 -0.3157  0.0508
43363SOL    HW136694   7.501   2.549   0.828  0.9238 -1.8829  0.6583
43363SOL    HW236695   7.481   2.663   0.926 -1.1225  0.1864 -2.0119
43364SOL     OW36696  10.586   9.950   2.930  0.0291  0.0658 -0.1631
43364SOL    HW136697  10.620   9.964   3.019 -0.9452 -3.5216  0.9480
43364SOL    HW236698  10.660   9.913   2.882  0.2506  1.0229 -0.5920
43365SOL     OW36699   7.033   6.739  12.282  0.2592 -0.1375 -0.3893
43365SOL    HW136700   6.942   6.742  12.314  0.8776  0.4110  1.4756
43365SOL    HW236701   7.055   6.646  12.281 -0.1311 -0.2344 -0.2415
43366SOL     OW36702   4.560  10.401   4.138  0.4616 -0.4143  0.0591
43366SOL    HW136703   4.527  10.315   4.111  0.0846 -0.0369 -0.6831
43366SOL    HW236704   4.511  10.464   4.085  1.2103  0.2296  0.1167
43367SOL     OW36705   2.836  12.047   0.968  0.1796  0.5198  0.6873
43367SOL    HW136706   2.836  12.126   0.914  0.2837  0.9507  1.3096
43367SOL    HW236707   2.744  12.035   0.992  0.3361  1.2775  1.7609
43368SOL     OW36708  12.211  10.898   8.206  0.4184  0.0288 -0.0401
43368SOL    HW136709  12.130  10.922   8.250  0.5189  1.6070 -0.6590
43368SOL    HW236710  12.184  10.847   8.130 -0.3489  3.2263 -2.1241
43369SOL     OW36711  11.277   7.941   2.844  0.0892  0.0874 -0.0881
43369SOL    HW136712  11.309   8.031   2.837 -0.4376  0.2726 -0.1574
43369SOL    HW236713  11.186   7.950   2.873  0.3052 -0.4553  0.8013
43370SOL     OW36714   3.980   4.536   0.971 -0.1552 -0.8045 -0.1234
43370SOL    HW136715   4.025   4.514   1.053  0.3640  2.4618  0.6162
43370SOL    HW236716   4.048   4.536   0.905  0.4095  1.0496  0.3978
43371SOL     OW36717   2.942  12.068   8.901 -0.0162 -0.1038  0.1791
43371SOL    HW136718   2.917  12.056   8.992  0.4034  1.0768  0.4636
43371SOL    HW236719   2.863  12.098   8.858  0.5304  2.4525  0.8318
43372SOL     OW36720  11.805   7.237   8.711  0.0542  0.4826 -0.3006
43372SOL    HW136721  11.852   7.169   8.760  0.6547  0.6684 -0.6079
43372SOL    HW236722  11.849   7.319   8.734 -0.0326  0.6439 -0.6985
43373SOL     OW36723   7.657   3.307  11.283  0.0471  0.1811 -0.2387
43373SOL    HW136724   7.670   3.248  11.209  1.4726  0.2229 -0.0510
43373SOL    HW236725   7.713   3.382  11.264  1.1836 -0.2344  1.3257
43374SOL     OW36726   3.230   3.155  11.006 -0.3595 -0.0778  0.1594
43374SOL    HW136727   3.248   3.225  10.944 -1.0592 -0.2256 -0.2207
43374SOL    HW236728   3.140   3.129  10.988  0.2933 -1.9716 -0.6183
43375SOL     OW36729   4.736   2.334   4.235 -0.1155  0.2265  0.0849
43375SOL    HW136730   4.745   2.366   4.325 -0.2253  1.2422 -0.2511
43375SOL    HW236731   4.717   2.412   4.183  0.2382 -0.2977 -0.8717
43376SOL     OW36732   5.866   4.331   4.793 -0.0622 -0.5068 -0.6130
43376SOL    HW136733   5.870   4.270   4.720  1.2831 -1.0215 -0.1268
43376SOL    HW236734   5.933   4.396   4.774  0.8787 -1.1050  0.5472
43377SOL     OW36735   9.105   5.516   4.247  0.1316 -0.7818 -0.2110
43377SOL    HW136736   9.011   5.501   4.233  0.1166  0.8084 -2.4923
43377SOL    HW236737   9.111   5.548   4.337 -1.5244 -0.9666 -0.0058
43378SOL     OW36738   9.737   9.472   5.965 -0.0319 -0.2421 -0.0149
43378SOL    HW136739   9.744   9.414   6.041 -0.3783  0.0404  0.2336
43378SOL    HW236740   9.667   9.434   5.912 -0.6412  0.2621  0.4245
43379SOL     OW36741   0.163  11.249   5.940 -0.0485  0.0069  0.5038
43379SOL    HW136742   0.122  11.294   6.014 -0.2668  0.7371 -0.0558
43379SOL    HW236743   0.092  11.238   5.877  0.0488 -0.9564  0.5476
43380SOL     OW36744  11.890  12.374   6.990 -0.0408 -0.1714 -0.7335
43380SOL    HW136745  11.868  12.281   6.978 -0.3847  0.0425 -1.8500
43380SOL    HW236746  11.935  12.377   7.075 -1.9242 -1.0392  0.3519
43381SOL     OW36747   7.137   0.591   1.597 -0.1190 -0.1390 -0.0880
43381SOL    HW136748   7.202   0.660   1.602  0.9038 -1.1296  1.4327
43381SOL    HW236749   7.119   0.580   1.504  0.4818  1.4160 -0.4111
43382SOL     OW36750  10.674  10.168  11.006 -0.4374  0.1641 -0.3978
43382SOL    HW136751  10.691  10.075  10.988 -1.5884 -0.2568  0.5158
43382SOL    HW236752  10.742  10.192  11.069  0.1071  0.0480 -0.9394
43383SOL     OW36753   4.532   0.879   3.077 -0.5459 -0.4371  0.3683
43383SOL    HW136754   4.508   0.797   3.121  0.2070  0.3013  2.2713
43383SOL    HW236755   4.607   0.911   3.127  0.2442  0.5860 -1.3906
43384SOL     OW36756   5.097   1.577  10.342 -0.3041 -0.2118  0.0430
43384SOL    HW136757   5.040   1.501  10.357 -0.3624  0.3172  3.1733
43384SOL    HW236758   5.039   1.644  10.305 -0.9618 -0.6982  0.1837
43385SOL     OW36759   9.584   2.863   1.570  0.6387  0.0778 -0.2878
43385SOL    HW136760   9.673   2.826   1.565  0.4498 -0.5872  0.7447
43385SOL    HW236761   9.529   2.797   1.528  0.3537 -0.6944  1.1973
43386SOL     OW36762   2.926   7.730   5.068 -0.6296 -0.0846  0.5793
43386SOL    HW136763   2.872   7.693   4.998 -0.1941 -1.5244  0.9644
43386SOL    HW236764   2.937   7.658   5.130  2.5132 -0.2052  0.0563
43387SOL     OW36765   8.408   6.979   7.144  0.2310  0.1983  0.1653
43387SOL    HW136766   8.475   6.970   7.076 -0.9321 -1.5848 -0.8467
43387SOL    HW236767   8.341   7.034   7.104 -0.3160 -0.6011 -0.0380
43388SOL     OW36768   4.024   7.838   3.625  0.2534 -0.6498  0.3015
43388SOL    HW136769   4.026   7.784   3.546 -1.1671 -0.1242 -0.1234
43388SOL    HW236770   4.086   7.909   3.608  0.9568 -1.2652  0.2247
43389SOL     OW36771   2.519   5.988  10.617 -0.0583  0.6280  0.3203
43389SOL    HW136772   2.484   5.977  10.705  0.5925  0.5622  0.5783
43389SOL    HW236773   2.452   6.037  10.570 -0.4350  0.6104  0.8356
43390SOL     OW36774   5.106   3.374   9.330 -0.4028 -0.0081 -0.1098
43390SOL    HW136775   5.144   3.315   9.395 -0.3969 -0.5129 -0.5706
43390SOL    HW236776   5.099   3.458   9.376 -1.4306 -0.6133  0.9158
43391SOL     OW36777   0.961  10.255   5.920 -0.0788 -0.4044  0.2815
43391SOL    HW136778   0.938  10.342   5.885 -0.2575 -0.7865 -0.5738
43391SOL    HW236779   1.042  10.270   5.968  0.3525  0.0907 -0.5676
43392SOL     OW36780   9.253  10.675   0.469 -0.0188 -0.1640 -0.1143
43392SOL    HW136781   9.176  10.718   0.505 -1.1410 -1.7400 -0.5174
43392SOL    HW236782   9.292  10.629   0.544  0.7813  0.9280  0.1684
43393SOL     OW36783   3.563   1.927   9.222  0.2714 -0.2566 -0.1757
43393SOL    HW136784   3.484   1.880   9.246  0.5236 -0.1119  1.0191
43393SOL    HW236785   3.583   1.982   9.298  1.3268 -0.0392 -0.5798
43394SOL     OW36786   6.437   1.704   4.914 -0.0034  0.2448  0.3098
43394SOL    HW136787   6.446   1.658   4.830 -0.4321 -0.6762  0.7514
43394SOL    HW236788   6.526   1.707   4.949  0.2202  0.8538 -0.2722
43395SOL     OW36789   4.452  10.298   3.737  0.1299 -0.3256  0.0413
43395SOL    HW136790   4.427  10.365   3.673 -1.0951  0.7719  1.5730
43395SOL    HW236791   4.542  10.319   3.760  0.1957 -0.0232 -0.4869
43396SOL     OW36792   4.919   6.044   1.704 -0.1553 -0.0824  0.3974
43396SOL    HW136793   4.855   6.109   1.675  0.3087  0.5363  0.7554
43396SOL    HW236794   4.902   6.033   1.798  0.1503 -0.0498  0.4570
43397SOL     OW36795   0.186  11.599   5.936  0.4237 -0.3370 -0.2660
43397SOL    HW136796   0.199  11.524   5.994  1.3434  1.0715  1.4505
43397SOL    HW236797   0.091  11.611   5.932  0.3028 -1.1794 -0.0473
43398SOL     OW36798   6.780   9.240   3.513  0.1405 -0.0227  0.5739
43398SOL    HW136799   6.764   9.187   3.435 -2.4705  0.5307  0.6515
43398SOL    HW236800   6.749   9.186   3.586 -0.3630  0.6722  0.8884
43399SOL     OW36801   6.067   0.414   4.941 -0.4622  0.4142  0.4523
43399SOL    HW136802   5.972   0.419   4.950 -0.3415 -0.1017  2.3974
43399SOL    HW236803   6.093   0.342   4.999  1.0190 -0.2649 -0.9656
43400SOL     OW36804   7.310  12.124   5.706 -0.2006 -0.0854  0.1830
43400SOL    HW136805   7.308  12.097   5.798  0.2280  0.0680  0.2378
43400SOL    HW236806   7.297  12.043   5.657 -1.5074 -0.0320  0.3909
43401SOL     OW36807   1.723  11.297   4.816  0.3882 -0.2996  0.0027
43401SOL    HW136808   1.753  11.238   4.748  0.8024 -0.2615  0.1488
43401SOL    HW236809   1.728  11.384   4.776  1.2059 -0.2157  0.2729
43402SOL     OW36810   1.376   1.313   3.745  0.0142 -0.5006  0.1753
43402SOL    HW136811   1.290   1.274   3.761 -0.2621  0.0241  0.0027
43402SOL    HW236812   1.390   1.303   3.651  0.8445 -1.9792  0.4272
43403SOL     OW36813  12.635   3.534   9.355 -0.2384 -0.0630 -0.0892
43403SOL    HW136814  12.594   3.608   9.400  0.1227  0.2703 -0.3103
43403SOL    HW236815  12.589   3.529   9.271 -1.3859 -1.1099  0.5686
43404SOL     OW36816  11.528   3.982   6.973 -0.5385  0.1383 -0.4328
43404SOL    HW136817  11.525   3.889   6.995 -1.1505 -0.1858 -1.7488
43404SOL    HW236818  11.510   4.027   7.055  0.1464 -0.8863  0.3061
43405SOL     OW36819   6.703  11.564  10.546  0.2911  0.0754 -0.5333
43405SOL    HW136820   6.661  11.650  10.550 -1.3157 -0.6727 -0.1875
43405SOL    HW236821   6.794  11.581  10.569 -0.2376  1.5282  0.7040
43406SOL     OW36822   3.246   1.240  11.954  0.3795  0.0904  0.1679
43406SOL    HW136823   3.318   1.303  11.946  0.4080 -0.1384 -1.7590
43406SOL    HW236824   3.234   1.206  11.866 -1.6818 -0.3491  0.5724
43407SOL     OW36825  10.086   1.997   8.626  0.2496  0.0812 -0.2351
43407SOL    HW136826  10.097   1.968   8.717 -0.8821  0.0760 -0.0889
43407SOL    HW236827  10.148   1.944   8.577 -1.5072 -2.4672  0.0615
43408SOL     OW36828   8.530   0.775  10.257 -0.0936  0.0282 -0.3772
43408SOL    HW136829   8.624   0.760  10.269 -0.5602 -1.8798  1.8197
43408SOL    HW236830   8.491   0.688  10.269 -2.1725  0.8658 -0.7106
43409SOL     OW36831   8.354   0.792   5.351  0.3455 -1.0037  0.5382
43409SOL    HW136832   8.321   0.856   5.288  1.9813  1.5003  2.0685
43409SOL    HW236833   8.311   0.813   5.433  0.5185 -2.2426  0.9715
43410SOL     OW36834   3.837   8.783   7.244  0.2573 -0.3910 -0.2025
43410SOL    HW136835   3.777   8.852   7.217  1.3655  0.0891 -1.6058
43410SOL    HW236836   3.783   8.720   7.291 -1.2394  0.2673 -0.9903
43411SOL     OW36837  12.208   0.382  11.347 -0.2087 -0.2860 -0.1113
43411SOL    HW136838  12.128   0.391  11.399 -0.0960 -1.4975  0.3046
43411SOL    HW236839  12.270   0.442  11.388 -0.5775 -0.1089  0.1972
43412SOL     OW36840   5.439   7.103   8.613  0.0894  0.2393  0.1811
43412SOL    HW136841   5.522   7.148   8.594 -0.3251  1.2027  0.6020
43412SOL    HW236842   5.371   7.163   8.583 -0.4736 -0.1520  0.6493
43413SOL     OW36843   2.827   7.031   0.887  0.4640  0.1828  0.2633
43413SOL    HW136844   2.892   7.079   0.938  0.0216  0.8886  0.1842
43413SOL    HW236845   2.745   7.044   0.935  0.0393  0.8791 -0.6266
43414SOL     OW36846   0.519   2.160   2.763 -0.3707 -0.4802 -0.0579
43414SOL    HW136847   0.483   2.091   2.819  1.3667  0.1288  1.9612
43414SOL    HW236848   0.587   2.116   2.712 -1.0883 -0.7723 -0.7874
43415SOL     OW36849  12.441   0.138   7.092  0.0198  0.2093  0.4047
43415SOL    HW136850  12.348   0.150   7.075  0.2221 -0.8908 -1.9612
43415SOL    HW236851  12.458   0.047   7.066  2.0372  0.8941 -0.9169
43416SOL     OW36852   8.738   2.062  11.574 -0.2119 -0.0444  0.3223
43416SOL    HW136853   8.651   2.049  11.611  0.3577  0.0274  1.7497
43416SOL    HW236854   8.795   2.004  11.626  0.6643  0.2894 -0.2450
43417SOL     OW36855  12.272   9.253   3.086  0.3174  0.3755 -0.2944
43417SOL    HW136856  12.207   9.308   3.130  0.4403  0.3648 -0.0956
43417SOL    HW236857  12.307   9.198   3.156 -1.1184 -1.2823 -0.8031
43418SOL     OW36858  12.348   5.056  12.681 -0.0576 -0.4581 -0.3326
43418SOL    HW136859  12.365   4.969  12.716  0.6487 -0.5816 -0.9483
43418SOL    HW236860  12.431   5.103  12.691 -0.7894  0.5912  1.1973
43419SOL     OW36861   4.141   6.493  12.579 -0.3573  1.1354  0.0797
43419SOL    HW136862   4.218   6.486  12.523  0.0250 -0.6920  0.7627
43419SOL    HW236863   4.079   6.431  12.542 -0.2112  0.1308  1.4466
43420SOL     OW36864   0.894   9.816   1.956  0.5301  0.0216  0.1163
43420SOL    HW136865   0.877   9.776   2.041  0.4834  0.2422  0.2126
43420SOL    HW236866   0.876   9.747   1.893 -0.0159  0.0261  0.2559
43421SOL     OW36867   3.327   1.644   6.270 -0.1494 -0.2157 -0.0250
43421SOL    HW136868   3.234   1.628   6.257 -0.0992  0.9799 -2.5205
43421SOL    HW236869   3.366   1.632   6.183  1.8406  0.4501  0.7073
43422SOL     OW36870   5.132   1.882   8.311 -0.1371  0.0241  0.5964
43422SOL    HW136871   5.226   1.865   8.304 -0.2044  0.0733 -0.8278
43422SOL    HW236872   5.097   1.808   8.359  0.1772 -1.8046 -1.8177
43423SOL     OW36873   3.834   3.276   3.334 -0.5948 -0.1480 -0.7417
43423SOL    HW136874   3.749   3.248   3.299 -0.0388 -0.4291 -1.8912
43423SOL    HW236875   3.833   3.371   3.326 -0.3176 -0.2386 -1.8916
43424SOL     OW36876  10.342  11.517   5.539 -1.1359  0.7677  0.1379
43424SOL    HW136877  10.373  11.483   5.622 -1.5835 -0.8288 -0.3173
43424SOL    HW236878  10.420  11.523   5.484 -1.1777 -0.4637 -0.0775
43425SOL     OW36879   5.722   5.185   9.518  0.1417 -0.4171  0.4522
43425SOL    HW136880   5.733   5.096   9.483 -0.5905 -0.5964  0.6464
43425SOL    HW236881   5.644   5.218   9.473  0.6438  0.2924  0.0777
43426SOL     OW36882   8.461  10.887  10.069 -0.1676  0.2610  0.3045
43426SOL    HW136883   8.407  10.823  10.022 -0.6471  1.4073 -0.7541
43426SOL    HW236884   8.523  10.919  10.004  0.9508 -0.0752  1.1752
43427SOL     OW36885   1.487   7.619   8.321 -0.0833 -0.0173  0.0453
43427SOL    HW136886   1.490   7.614   8.225 -1.6231  1.9079 -0.1834
43427SOL    HW236887   1.559   7.564   8.350  0.8439 -0.1435 -2.2366
43428SOL     OW36888   5.857   6.018   7.408 -0.3099  0.2588  0.2075
43428SOL    HW136889   5.929   6.066   7.450  0.5372 -1.2391  0.5378
43428SOL    HW236890   5.778   6.063   7.438  0.3714  0.4021  1.8774
43429SOL     OW36891   7.121   1.522   6.430 -0.0847  0.4536  0.4215
43429SOL    HW136892   7.108   1.478   6.514 -0.0133  1.8726  1.2107
43429SOL    HW236893   7.033   1.530   6.394 -0.4068  1.8351  1.4379
43430SOL     OW36894   6.327   8.940   5.561  0.2608 -0.0674 -0.6981
43430SOL    HW136895   6.316   8.928   5.467  0.8011  1.2949 -0.9643
43430SOL    HW236896   6.413   8.981   5.570 -1.3253  3.4920 -0.0161
43431SOL     OW36897   1.005   4.228   5.437  0.3966  0.1458 -0.7593
43431SOL    HW136898   0.934   4.173   5.404 -0.3337  0.8942 -0.4612
43431SOL    HW236899   1.077   4.213   5.376 -0.4342  0.3501 -1.8228
43432SOL     OW36900   6.886  10.166   3.175  0.5570 -0.5976 -1.2617
43432SOL    HW136901   6.817  10.183   3.110 -0.0884 -0.5832 -0.5919
43432SOL    HW236902   6.840  10.124   3.248  1.4670 -1.6776 -1.2865
43433SOL     OW36903   5.988   0.658   9.180 -0.6691  0.0640  0.0891
43433SOL    HW136904   6.042   0.579   9.190  0.0007  0.7263  2.4172
43433SOL    HW236905   5.900   0.628   9.200 -0.5602 -0.2849  0.0657
43434SOL     OW36906   5.981   5.220   1.392  0.0825  0.3312  0.1321
43434SOL    HW136907   5.927   5.287   1.350 -2.3312 -2.1795 -1.0681
43434SOL    HW236908   6.027   5.177   1.319 -0.9901 -1.4207  0.4331
43435SOL     OW36909   7.721   8.267   3.852 -0.4958 -0.5694  0.7630
43435SOL    HW136910   7.657   8.327   3.891  0.4683  0.8186  0.2440
43435SOL    HW236911   7.714   8.282   3.758  0.6508 -0.3319  0.7044
43436SOL     OW36912   3.825   9.913   0.210  0.1762  0.2910  0.0648
43436SOL    HW136913   3.861   9.996   0.240  0.0377  0.8767 -1.2848
43436SOL    HW236914   3.864   9.900   0.124 -2.1381  0.5547 -1.1170
43437SOL     OW36915   4.619   9.527   7.053 -0.0381 -0.1270  0.0831
43437SOL    HW136916   4.650   9.566   7.135  1.0238 -0.7820  0.0170
43437SOL    HW236917   4.591   9.601   7.000  1.2454  0.5079  0.2467
43438SOL     OW36918  11.321   7.697   1.452  0.2560  0.0687  0.0122
43438SOL    HW136919  11.319   7.791   1.471 -0.6902  0.4650 -1.7520
43438SOL    HW236920  11.293   7.655   1.533 -0.2157  1.3802  0.5526
43439SOL     OW36921  11.842   9.780   2.037 -0.4110  0.4598  0.1240
43439SOL    HW136922  11.756   9.768   2.077 -0.6865 -0.2715 -0.6662
43439SOL    HW236923  11.824   9.813   1.950  0.2055  2.3757  0.6749
43440SOL     OW36924  11.054   7.726   1.225 -0.3634  0.0205 -0.9755
43440SOL    HW136925  11.118   7.703   1.292 -1.0670  0.6696 -0.0510
43440SOL    HW236926  11.026   7.815   1.248 -2.4729 -0.6795 -0.6125
43441SOL     OW36927   2.971   1.455   9.548 -0.2688  0.4900 -0.6280
43441SOL    HW136928   2.906   1.445   9.478  0.6506  0.4371 -1.4973
43441SOL    HW236929   2.947   1.389   9.613 -0.0968 -0.6878 -1.7325
43442SOL     OW36930   5.292   7.038   6.145  0.2315 -0.5724 -0.0326
43442SOL    HW136931   5.222   6.973   6.155  1.4737 -1.9045  0.2404
43442SOL    HW236932   5.347   7.003   6.076  0.2579  0.8377 -0.7594
43443SOL     OW36933   2.288   8.081   2.117 -0.5553 -0.3730  0.2551
43443SOL    HW136934   2.300   8.053   2.026 -0.0944 -0.7030  0.4172
43443SOL    HW236935   2.234   8.160   2.110 -0.3460 -0.2725 -0.3208
43444SOL     OW36936   2.209   8.747   7.210  0.3212 -0.2586 -0.2282
43444SOL    HW136937   2.211   8.787   7.123 -0.8758 -0.9933 -0.6143
43444SOL    HW236938   2.116   8.735   7.229  0.4794  1.2745  1.8245
43445SOL     OW36939   7.028   1.041   6.809  0.1078 -0.2880 -0.5244
43445SOL    HW136940   7.047   1.032   6.715  1.5167  1.6436 -0.4826
43445SOL    HW236941   7.112   1.065   6.848 -0.4566 -1.0639  1.2591
43446SOL     OW36942   6.422  10.191   5.357  0.0107  0.2349 -0.2331
43446SOL    HW136943   6.407  10.247   5.433 -0.6645  0.1378 -0.2878
43446SOL    HW236944   6.336  10.184   5.315  0.1947 -0.4383 -0.5040
43447SOL     OW36945   2.852   6.508   5.732  0.6302 -0.3589 -0.2213
43447SOL    HW136946   2.765   6.469   5.739  0.5520 -0.2413 -0.5409
43447SOL    HW236947   2.910   6.442   5.770  0.2465  0.1547  1.3363
43448SOL     OW36948  11.625   4.709   0.170 -0.1504 -0.0157  0.8842
43448SOL    HW136949  11.592   4.771   0.235 -1.4298 -1.7253  1.9601
43448SOL    HW236950  11.571   4.631   0.182  1.5492 -1.4428 -0.2417
43449SOL     OW36951   5.929   1.088  11.442  0.5609  0.5108 -0.1550
43449SOL    HW136952   5.984   1.152  11.396 -0.2652  1.6879  0.4476
43449SOL    HW236953   5.992   1.028  11.483  1.4250  1.8612  0.5736
43450SOL     OW36954  11.022   8.359   6.427  0.1867 -0.0940  0.0990
43450SOL    HW136955  10.965   8.407   6.487 -2.6315 -3.2620  0.2414
43450SOL    HW236956  11.089   8.423   6.402 -1.7126  3.0251  2.2102
43451SOL     OW36957   2.072   8.284   3.753 -0.8007  0.4148  0.3846
43451SOL    HW136958   2.039   8.208   3.705 -1.5703 -0.1749  1.8037
43451SOL    HW236959   2.075   8.354   3.687 -1.1225 -0.5432 -0.6883
43452SOL     OW36960   2.221  12.264   4.441 -0.3360  0.1390  0.7172
43452SOL    HW136961   2.297  12.265   4.499  1.5476  1.6448 -1.5504
43452SOL    HW236962   2.170  12.340   4.467  1.1459  1.5524 -0.2224
43453SOL     OW36963   6.646   3.468   5.237 -0.4688  0.1000 -0.0301
43453SOL    HW136964   6.675   3.503   5.153 -0.8303  0.7605  0.1131
43453SOL    HW236965   6.722   3.421   5.271  0.1702  1.1058 -0.0377
43454SOL     OW36966   9.524  10.956  12.031  0.2015  0.1685  0.6267
43454SOL    HW136967   9.556  10.933  12.119  0.3964 -1.0269  0.2614
43454SOL    HW236968   9.585  11.023  12.000  0.7348 -0.1310  1.0136
43455SOL     OW36969  10.889   2.323   5.817  0.4122 -0.3331  0.1285
43455SOL    HW136970  10.977   2.286   5.811 -0.6643 -3.1606  0.5090
43455SOL    HW236971  10.870   2.323   5.911 -0.0135  0.2511  0.0462
43456SOL     OW36972   5.758   6.777   9.001  0.4037  0.1854  0.2331
43456SOL    HW136973   5.678   6.820   8.970  0.1915  0.0929  0.6342
43456SOL    HW236974   5.735   6.746   9.089  1.0108  0.5219  0.5166
43457SOL     OW36975   9.361  10.536   0.062 -0.1957  0.3291 -0.1410
43457SOL    HW136976   9.403  10.595   0.125 -0.6308  0.6643 -0.1620
43457SOL    HW236977   9.268  10.544   0.080 -0.2015 -1.7837  1.1307
43458SOL     OW36978   9.955   5.333  12.619 -0.6048 -0.1063 -0.4980
43458SOL    HW136979   9.876   5.280  12.611  0.1074 -1.4667  0.8610
43458SOL    HW236980   9.923   5.423  12.624 -1.9317 -0.4670 -1.7060
43459SOL     OW36981   9.670   2.101  12.079 -0.1396  0.4243  0.4712
43459SOL    HW136982   9.629   2.028  12.125  0.5976  0.7675  1.7192
43459SOL    HW236983   9.653   2.084  11.987  0.3944 -1.5674  0.6969
43460SOL     OW36984   4.188   0.901   7.096  0.8926 -0.3304 -0.1083
43460SOL    HW136985   4.256   0.881   7.161  0.7473 -1.8665 -0.3989
43460SOL    HW236986   4.153   0.986   7.124  0.8461 -0.9448  1.8178
43461SOL     OW36987   1.004   5.899  10.933 -0.0244  0.1185 -0.1633
43461SOL    HW136988   1.097   5.877  10.937 -0.0542 -0.1741 -0.9704
43461SOL    HW236989   0.960   5.824  10.974  0.1405  0.7343  1.2126
43462SOL     OW36990  11.378   1.916  10.945 -0.0567 -0.5099 -0.1727
43462SOL    HW136991  11.285   1.932  10.962  0.2522  0.3219  0.8021
43462SOL    HW236992  11.409   1.996  10.904  0.2366 -0.7962 -0.5224
43463SOL     OW36993   8.357  11.277   0.690  0.0436 -0.1968 -0.6274
43463SOL    HW136994   8.330  11.364   0.663  0.6432 -0.2860 -1.5991
43463SOL    HW236995   8.391  11.237   0.609 -1.3739 -1.7805 -0.4842
43464SOL     OW36996   0.195  10.739   3.175 -0.3358 -0.5643 -0.2580
43464SOL    HW136997   0.289  10.724   3.183 -0.4089 -3.3470 -2.8633
43464SOL    HW236998   0.156  10.682   3.242 -0.1963 -1.8469 -1.2316
43465SOL     OW36999   9.742   7.377  10.277 -0.6407  0.2106  0.4215
43465SOL    HW137000   9.688   7.451  10.306 -0.2864  0.4647  0.4284
43465SOL    HW237001   9.696   7.344  10.200 -0.3409  0.9835 -0.1035
43466SOL     OW37002   5.495   0.351   2.617 -0.0388 -0.2911 -0.0844
43466SOL    HW137003   5.497   0.335   2.711  0.2220  0.7032  0.0915
43466SOL    HW237004   5.497   0.446   2.609  0.7532 -0.3763 -1.1096
43467SOL     OW37005  10.896  11.729   2.092  0.2679  0.0785  0.1873
43467SOL    HW137006  10.865  11.643   2.065  1.3909 -0.4045  0.3801
43467SOL    HW237007  10.861  11.740   2.180  0.2593 -0.2670  0.2299
43468SOL     OW37008   1.553  10.329   5.792  0.1235  0.4888  0.2844
43468SOL    HW137009   1.613  10.313   5.865  1.7641 -0.1372 -1.1391
43468SOL    HW237010   1.593  10.285   5.717 -1.5826  0.9720 -0.9873
43469SOL     OW37011   8.021  10.909   7.399  0.0332  0.0473  0.5381
43469SOL    HW137012   8.037  11.002   7.417 -0.1157  0.3436 -0.7453
43469SOL    HW237013   7.938  10.890   7.442 -0.5069  0.8179 -0.1268
43470SOL     OW37014   4.955   6.997   9.319 -0.4045  0.5838 -0.0219
43470SOL    HW137015   4.980   6.996   9.412 -1.6854  0.7970  0.3481
43470SOL    HW237016   4.942   7.089   9.299  2.5373  0.8364 -1.2234
43471SOL     OW37017   8.944   5.431  12.472 -0.2274  0.0194 -0.4837
43471SOL    HW137018   8.999   5.497  12.431  1.3749 -1.3392 -0.6348
43471SOL    HW237019   8.872   5.418  12.411 -0.7194  1.7852 -0.3196
43472SOL     OW37020   6.908   6.833   9.164 -0.1199 -0.1500  0.1942
43472SOL    HW137021   6.881   6.755   9.213 -0.4661 -0.8433 -1.0767
43472SOL    HW237022   6.997   6.851   9.195 -0.8116  0.2511  2.0754
43473SOL     OW37023   1.896   4.847  12.414 -0.2231 -0.2173 -0.0577
43473SOL    HW137024   1.834   4.874  12.346  0.4364  1.0041 -0.2101
43473SOL    HW237025   1.881   4.908  12.486 -0.1561 -0.8028  0.4629
43474SOL     OW37026   9.447  11.173  11.089 -0.1281  0.3971 -0.3611
43474SOL    HW137027   9.376  11.115  11.115  0.6336  0.8017  3.0992
43474SOL    HW237028   9.498  11.122  11.025 -0.7884 -1.8409  0.8041
43475SOL     OW37029   8.375   5.563  12.287  0.6455 -0.1539  0.8349
43475SOL    HW137030   8.395   5.493  12.350  0.4816  0.6044  1.7520
43475SOL    HW237031   8.280   5.572  12.290  0.6289 -0.1874  0.3961
43476SOL     OW37032  10.680   5.871  10.171  0.3765  0.2253 -0.3512
43476SOL    HW137033  10.718   5.842  10.253  1.1420 -1.0468 -1.1244
43476SOL    HW237034  10.601   5.819  10.160  2.6599 -3.1556 -2.6012
43477SOL     OW37035  12.337   3.674   1.681 -0.4014 -0.1083 -0.4008
43477SOL    HW137036  12.423   3.645   1.648 -0.7948 -1.7423 -0.1006
43477SOL    HW237037  12.357   3.749   1.737  0.9679 -1.0226  0.4213
43478SOL     OW37038   2.761   2.742   2.054  0.2105 -0.6386 -0.2903
43478SOL    HW137039   2.766   2.769   2.146 -0.2983  1.7436 -0.8953
43478SOL    HW237040   2.831   2.678   2.044 -0.5849 -1.9794  2.0494
43479SOL     OW37041   7.101   1.836   2.162 -0.2792 -0.0645  0.4560
43479SOL    HW137042   7.131   1.904   2.101  0.8878 -1.3819 -0.4945
43479SOL    HW237043   7.174   1.822   2.221  0.3449 -1.9851 -0.7128
43480SOL     OW37044   1.795   7.673   2.753 -0.6461 -0.4970 -0.3637
43480SOL    HW137045   1.862   7.613   2.787 -1.0410 -0.8921 -0.2701
43480SOL    HW237046   1.725   7.670   2.818 -0.5216  0.3383 -0.1908
43481SOL     OW37047   1.527   8.661   3.055  0.4243 -0.6871  0.1519
43481SOL    HW137048   1.509   8.730   2.991 -1.1232 -0.0671  1.1828
43481SOL    HW237049   1.445   8.652   3.104  0.8856 -2.6226  0.6696
43482SOL     OW37050  12.673   8.557   7.932 -0.0797  0.0661 -0.6229
43482SOL    HW137051  12.593   8.593   7.893 -0.0186  0.2294 -0.5987
43482SOL    HW237052  12.660   8.463   7.929 -0.8024  0.1023  0.4726
43483SOL     OW37053  10.171   5.779   9.777  0.0954 -0.3045  0.1234
43483SOL    HW137054  10.109   5.823   9.719  0.2467  1.1152  0.9790
43483SOL    HW237055  10.117   5.724   9.833 -0.4598  1.1325  1.0466
43484SOL     OW37056  10.681   1.977   2.400 -0.4855  0.2099  0.2597
43484SOL    HW137057  10.628   1.953   2.476  0.5504 -0.3365  0.8355
43484SOL    HW237058  10.724   1.895   2.374  1.0878  0.8697  0.6405
43485SOL     OW37059   4.532   2.716   3.307 -0.3065  0.3104  0.1423
43485SOL    HW137060   4.475   2.672   3.370  1.7345  1.0252  2.6604
43485SOL    HW237061   4.518   2.809   3.324  0.6792  0.4981 -0.0475
43486SOL     OW37062   7.074   2.696   1.408  0.1766  0.2828  0.0149
43486SOL    HW137063   7.056   2.607   1.381  2.1206 -0.3074  0.4568
43486SOL    HW237064   7.160   2.715   1.371 -0.1614  1.9478  0.0105
43487SOL     OW37065   0.607   1.904   0.505 -0.0315  0.1738 -0.5126
43487SOL    HW137066   0.589   1.938   0.592 -0.0265  1.0872 -0.8597
43487SOL    HW237067   0.571   1.815   0.506  2.0014 -0.7328  1.1651
43488SOL     OW37068  10.183   8.671   1.534 -0.4652 -0.5325  0.0481
43488SOL    HW137069  10.148   8.750   1.495 -1.3916 -1.1151 -0.3212
43488SOL    HW237070  10.109   8.631   1.580  0.5223  0.0139  2.2687
43489SOL     OW37071   4.861   6.853   5.554  0.2257 -0.2821  0.3633
43489SOL    HW137072   4.921   6.927   5.564 -0.1263 -0.0192  0.5764
43489SOL    HW237073   4.864   6.832   5.461  0.9662 -0.5462  0.4428
43490SOL     OW37074   2.448   7.901  12.567  0.3292  0.1096 -0.0928
43490SOL    HW137075   2.356   7.900  12.542 -0.0681  2.6965  0.8989
43490SOL    HW237076   2.496   7.891  12.485 -0.8659  1.3001 -0.9719
43491SOL     OW37077   8.602   7.477   6.379 -0.1369  0.1734  0.1252
43491SOL    HW137078   8.684   7.455   6.425 -1.2554 -1.7510  1.3277
43491SOL    HW237079   8.576   7.395   6.338 -2.1684  0.3779  0.9236
43492SOL     OW37080   4.799   2.077  12.274 -0.3281  0.4577  0.6470
43492SOL    HW137081   4.753   2.147  12.227 -0.0498 -0.3081 -0.8261
43492SOL    HW237082   4.844   2.123  12.345  1.0336  2.0512 -1.1164
43493SOL     OW37083   4.994   2.798   5.299 -0.0378  0.3505  0.3315
43493SOL    HW137084   5.086   2.806   5.322  0.4070 -0.2411 -1.1182
43493SOL    HW237085   4.972   2.881   5.257  0.4841 -0.2968 -1.3194
43494SOL     OW37086   7.354   2.396   1.058 -0.1128  0.5280  0.8232
43494SOL    HW137087   7.381   2.464   0.996  1.3608  0.2695  1.1341
43494SOL    HW237088   7.266   2.422   1.085 -0.2000  1.4405 -0.2591
43495SOL     OW37089   0.046   0.310   1.077  0.0147 -0.2316 -0.2028
43495SOL    HW137090  -0.026   0.351   1.029  1.2244  1.3560 -0.7429
43495SOL    HW237091   0.078   0.242   1.017  0.8202  1.0163 -1.2173
43496SOL     OW37092  11.818  10.485   8.651 -0.1103 -0.4902  0.6803
43496SOL    HW137093  11.732  10.443   8.644 -1.2510  1.9659 -2.2278
43496SOL    HW237094  11.848  10.492   8.560  1.3671  2.1293  1.2829
43497SOL     OW37095   2.843   7.006   1.849  0.4142 -0.5742 -0.5645
43497SOL    HW137096   2.846   7.080   1.909  2.7753 -1.2419  0.2459
43497SOL    HW237097   2.924   7.012   1.799  0.4010 -2.2957 -0.8524
43498SOL     OW37098  11.941   1.492  11.815 -0.0379 -0.1543  0.1414
43498SOL    HW137099  12.016   1.515  11.870 -0.0598  0.3841 -0.0497
43498SOL    HW237100  11.871   1.472  11.878 -0.0201  0.3186  0.3170
43499SOL     OW37101  12.582   5.727   6.996 -0.4306  0.1783 -0.1600
43499SOL    HW137102  12.545   5.710   7.082 -0.3245 -0.4474 -0.2309
43499SOL    HW237103  12.513   5.703   6.934  0.4302 -2.1504 -0.3376
43500SOL     OW37104  10.848   3.241   9.279 -0.5686  0.3910 -0.3497
43500SOL    HW137105  10.937   3.214   9.303 -0.1252  1.9344 -0.1768
43500SOL    HW237106  10.801   3.244   9.363 -0.1989  1.5961 -0.1721
43501SOL     OW37107   0.050  12.228  12.271  0.1151  0.2033  0.4124
43501SOL    HW137108   0.063  12.318  12.240 -1.2078  0.4579  0.5298
43501SOL    HW237109   0.123  12.179  12.234 -0.0245  1.0096 -0.9902
43502SOL     OW37110   5.983   8.951   1.385  0.0135 -0.5928 -0.4646
43502SOL    HW137111   5.928   8.901   1.325 -0.2723  1.4196 -2.0003
43502SOL    HW237112   6.027   9.015   1.329  1.8131 -0.3479  1.1228
43503SOL     OW37113   8.157   9.204  12.551 -0.0362 -0.8337  0.3921
43503SOL    HW137114   8.107   9.138  12.600  0.4249 -1.1043  0.5140
43503SOL    HW237115   8.242   9.207  12.596  0.1073 -0.4935  0.1004
43504SOL     OW37116  12.349   8.987   4.486  0.2176 -0.0188  0.3894
43504SOL    HW137117  12.351   8.963   4.578  0.6249  0.8895  0.6318
43504SOL    HW237118  12.269   9.039   4.477  0.6649  0.6920  0.4489
43505SOL     OW37119   7.582   3.675  10.400  0.0642  0.3921 -1.1295
43505SOL    HW137120   7.544   3.595  10.364 -1.9057  0.1441  1.2040
43505SOL    HW237121   7.514   3.709  10.458  1.8462  2.3590 -0.0642
43506SOL     OW37122   6.468  11.357   9.513  0.4202  0.9501  0.5353
43506SOL    HW137123   6.473  11.382   9.421 -0.1322  0.8750  0.4803
43506SOL    HW237124   6.407  11.283   9.514 -0.3802  1.6020  1.0819
43507SOL     OW37125   1.788  10.530   6.729 -0.3948 -0.2171 -0.1051
43507SOL    HW137126   1.779  10.508   6.637 -0.2743 -2.4818  0.3664
43507SOL    HW237127   1.752  10.454   6.776 -0.1474  0.7175  1.7164
43508SOL     OW37128   6.632   9.411   8.697  0.5293  0.0678 -0.6436
43508SOL    HW137129   6.572   9.432   8.626  0.9796  2.4580 -0.3958
43508SOL    HW237130   6.710   9.463   8.679  1.5252 -0.9918  0.4246
43509SOL     OW37131   4.432  12.774   0.818 -0.4905 -0.1097 -0.5274
43509SOL    HW137132   4.398  12.790   0.906  0.6847 -0.7017  0.0618
43509SOL    HW237133   4.354  12.757   0.765 -1.3402  1.8550  0.0170
43510SOL     OW37134   0.446   7.457  11.307 -0.0609 -0.3516  0.3058
43510SOL    HW137135   0.464   7.429  11.397  0.7876 -1.0386 -0.0605
43510SOL    HW237136   0.488   7.542  11.300 -0.3060 -0.2012  0.6170
43511SOL     OW37137   5.883  12.483   4.528 -0.0960 -0.6148  0.2450
43511SOL    HW137138   5.816  12.415   4.526  0.5468 -1.3954 -3.9489
43511SOL    HW237139   5.836  12.563   4.549 -2.0062 -1.4419 -0.6796
43512SOL     OW37140   6.037   3.413  11.076  0.3104  0.2584 -0.4241
43512SOL    HW137141   6.061   3.500  11.042  2.7201  0.2814  1.1188
43512SOL    HW237142   6.119   3.377  11.110 -1.4188 -0.7343  3.1368
43513SOL     OW37143   1.566   6.123   6.011 -0.0920 -0.1103 -0.1771
43513SOL    HW137144   1.521   6.095   6.091 -0.1502 -1.0175 -0.5209
43513SOL    HW237145   1.652   6.080   6.016  0.5895  1.2533  0.2610
43514SOL     OW37146  12.726   2.649   6.255  0.4201  0.2063 -0.0322
43514SOL    HW137147  12.640   2.687   6.238  1.0274  0.7244 -2.4391
43514SOL    HW237148  12.781   2.723   6.280  0.3385 -0.0014  0.7662
43515SOL     OW37149   5.526  10.593   0.962  0.4498  0.0168 -0.1125
43515SOL    HW137150   5.486  10.511   0.934  0.3528  0.3201 -0.8861
43515SOL    HW237151   5.587  10.615   0.891 -0.5951  1.3643 -0.6216
43516SOL     OW37152   9.333   4.165   2.959 -0.6125  0.1026 -0.2601
43516SOL    HW137153   9.263   4.122   3.008 -0.1886 -0.0495  0.2279
43516SOL    HW237154   9.334   4.121   2.874 -0.0696 -0.9913  0.2905
43517SOL     OW37155  10.721   4.375  11.699  0.2009 -0.6778 -0.3950
43517SOL    HW137156  10.699   4.450  11.755  0.3761 -1.3113  0.5564
43517SOL    HW237157  10.741   4.304  11.761  0.3938 -1.4093 -1.2697
43518SOL     OW37158   1.605   5.443  10.033  0.1719 -0.1433 -0.0275
43518SOL    HW137159   1.645   5.519  10.075 -0.0137 -0.4453  0.7070
43518SOL    HW237160   1.543   5.409  10.097  0.5177 -1.1367 -0.1956
43519SOL     OW37161   2.934   2.416   0.549 -0.1302  0.3646  0.5095
43519SOL    HW137162   2.956   2.509   0.553 -0.4415  0.3978  1.6557
43519SOL    HW237163   2.841   2.412   0.571 -0.6926 -0.0325 -1.6752
43520SOL     OW37164   0.967   3.639   0.931  0.3429 -0.1801 -0.1724
43520SOL    HW137165   1.009   3.707   0.879 -0.0362 -1.8610 -2.9027
43520SOL    HW237166   1.031   3.616   0.998  1.6263  0.8911 -0.9904
43521SOL     OW37167   8.433  10.195   6.825  0.4883  0.2989 -0.5070
43521SOL    HW137168   8.522  10.166   6.805  0.0844 -1.0023 -0.5305
43521SOL    HW237169   8.420  10.174   6.917 -0.4942 -1.5267 -1.0108
43522SOL     OW37170   4.028  10.673  10.052  0.3343 -0.5765  0.1728
43522SOL    HW137171   4.032  10.715  10.138 -1.3339  0.3527 -0.1546
43522SOL    HW237172   4.036  10.746   9.989  2.5509 -1.3454 -0.5124
43523SOL     OW37173   7.230   0.054  12.403 -0.6946 -0.7336  0.5092
43523SOL    HW137174   7.208   0.045  12.495  1.2454  0.3506  1.1334
43523SOL    HW237175   7.160   0.109  12.367 -0.1757  0.9478  1.9373
43524SOL     OW37176   4.220   2.884   1.038 -0.4632  0.1758  0.3523
43524SOL    HW137177   4.209   2.823   0.964 -1.0506  0.2701  0.3542
43524SOL    HW237178   4.299   2.934   1.017 -0.8057  0.4272 -0.3812
43525SOL     OW37179   8.845  10.212   6.436  0.0699  0.3743  0.0901
43525SOL    HW137180   8.796  10.281   6.393  1.2616  1.8686  1.0248
43525SOL    HW237181   8.911  10.186   6.372  1.6508  2.3798  0.8010
43526SOL     OW37182   1.632   1.732   0.551  0.1427  0.7372  0.2012
43526SOL    HW137183   1.709   1.701   0.599  1.0036  0.0246 -1.5077
43526SOL    HW237184   1.559   1.683   0.587  1.0508 -1.2254 -0.4572
43527SOL     OW37185  11.899   3.523   5.063  0.2979  0.3006 -0.2960
43527SOL    HW137186  11.872   3.585   5.131  0.4528 -0.6226  0.6459
43527SOL    HW237187  11.995   3.528   5.063  0.2666  1.3548 -1.4932
43528SOL     OW37188   2.458   5.094   9.075 -0.1631 -0.4569  0.0050
43528SOL    HW137189   2.456   5.110   8.980  0.1277 -0.1705  0.0433
43528SOL    HW237190   2.544   5.126   9.102  0.3686 -1.9198  0.1234
43529SOL     OW37191   4.275   7.834   2.895 -0.5647 -0.7064 -0.0568
43529SOL    HW137192   4.337   7.781   2.845 -0.7938 -1.3772  0.3609
43529SOL    HW237193   4.222   7.877   2.829 -0.5066 -1.1547 -0.3993
43530SOL     OW37194   1.259  11.532   8.321  0.2990 -0.1356  0.5131
43530SOL    HW137195   1.252  11.626   8.341  3.1313  0.1621  0.5046
43530SOL    HW237196   1.218  11.489   8.396 -2.5431  1.0410 -0.2298
43531SOL     OW37197   5.437   8.925   6.954 -0.2387 -0.4271  0.2468
43531SOL    HW137198   5.472   8.855   6.898  1.8973  1.0957 -0.4436
43531SOL    HW237199   5.439   9.003   6.899 -4.6218 -0.0557  0.2594
43532SOL     OW37200   8.275   5.730   3.639 -0.5625 -1.0531  0.3310
43532SOL    HW137201   8.320   5.673   3.577 -0.4709 -0.5552 -0.0684
43532SOL    HW237202   8.185   5.698   3.642 -0.3576 -1.6085  0.5893
43533SOL     OW37203   4.379   0.368  12.282 -0.5021  0.3074  0.2302
43533SOL    HW137204   4.286   0.366  12.304 -0.5853  1.4535  0.0494
43533SOL    HW237205   4.424   0.386  12.364 -0.5445  1.0594  0.0922
43534SOL     OW37206   3.503   8.354   6.558 -0.0561  0.7415 -0.0630
43534SOL    HW137207   3.426   8.309   6.595  0.2280  0.5109  0.2544
43534SOL    HW237208   3.560   8.370   6.633  1.3900 -1.4209 -0.6104
43535SOL     OW37209   3.778   3.255  11.006 -0.0021  0.5342  0.5391
43535SOL    HW137210   3.739   3.248  11.093 -0.1048  0.7378  0.5097
43535SOL    HW237211   3.706   3.242  10.945  0.2733 -0.8410  0.4678
43536SOL     OW37212   7.054   3.986   4.773 -0.2984  0.3261  0.2663
43536SOL    HW137213   6.993   3.996   4.847 -0.4880 -2.3595  0.5627
43536SOL    HW237214   7.027   4.053   4.710 -1.2934  1.4862  1.8506
43537SOL     OW37215  11.216   1.018   6.214  0.0530 -0.0633  0.1253
43537SOL    HW137216  11.301   1.021   6.257  0.4882  0.6166 -0.7485
43537SOL    HW237217  11.207   1.103   6.171 -0.7871 -0.3650 -0.3302
43538SOL     OW37218   4.625   3.759   8.118  0.3068 -0.4585  0.0302
43538SOL    HW137219   4.598   3.836   8.068  1.1503 -0.5814 -0.6317
43538SOL    HW237220   4.558   3.693   8.099  0.2215 -0.2658 -0.3392
43539SOL     OW37221   5.472   2.687  12.027 -0.1426  0.8475 -0.4626
43539SOL    HW137222   5.532   2.623  11.988  0.3037  2.3984 -2.5247
43539SOL    HW237223   5.529   2.757  12.058 -0.8011  1.8246 -1.4031
43540SOL     OW37224   0.651   8.466   1.760  0.5687 -0.2651 -0.0824
43540SOL    HW137225   0.698   8.549   1.750 -1.6740  1.2710  1.3753
43540SOL    HW237226   0.719   8.403   1.785  2.1534  1.3813 -0.0244
43541SOL     OW37227   0.812   5.118   4.037  0.1376  0.1194 -0.3768
43541SOL    HW137228   0.873   5.177   3.994  1.5488  0.3959  1.8573
43541SOL    HW237229   0.725   5.149   4.009  0.8967  2.0606 -0.7353
43542SOL     OW37230   7.727   3.271   2.661 -0.6034 -0.0642  0.5054
43542SOL    HW137231   7.754   3.363   2.656  0.1686 -0.3101  0.0085
43542SOL    HW237232   7.740   3.247   2.753 -1.8853  0.6309  0.8896
43543SOL     OW37233  10.156   3.563   1.624  0.1419  0.2033 -0.0285
43543SOL    HW137234  10.131   3.564   1.716  1.6159 -0.3465  0.3957
43543SOL    HW237235  10.077   3.532   1.579 -0.3699 -0.2297  1.1212
43544SOL     OW37236   7.912   6.215   8.992 -0.2349  0.3068 -0.1135
43544SOL    HW137237   7.848   6.282   8.969  0.1000 -0.0047 -2.1232
43544SOL    HW237238   7.906   6.150   8.922  0.8032 -0.7995  0.7624
43545SOL     OW37239   4.815   3.798   4.239 -0.2254  0.0074 -0.0065
43545SOL    HW137240   4.797   3.802   4.333  2.1280 -0.2110  0.4991
43545SOL    HW237241   4.898   3.752   4.232 -0.8843 -0.9629 -2.2963
43546SOL     OW37242  11.224   5.315   3.986  0.4476 -0.2002  0.0988
43546SOL    HW137243  11.238   5.285   3.896  1.2053  0.5062 -0.0334
43546SOL    HW237244  11.130   5.309   3.999  0.2395  0.3877 -1.0002
43547SOL     OW37245  10.405   7.612  10.410  0.1859 -0.2991 -0.2651
43547SOL    HW137246  10.331   7.655  10.452 -0.8840  0.3027 -2.6142
43547SOL    HW237247  10.450   7.682  10.362  2.1727 -0.6923  0.8857
43548SOL     OW37248   2.657   9.006   4.112 -0.1757  0.4544 -0.5577
43548SOL    HW137249   2.572   8.974   4.143 -0.6840  1.2364 -1.1061
43548SOL    HW237250   2.651   9.001   4.017 -0.3090  2.2445 -0.6657
43549SOL     OW37251   0.171  10.545   1.590 -0.1035  0.0091 -0.2913
43549SOL    HW137252   0.114  10.544   1.513  2.1250 -1.2167 -2.0485
43549SOL    HW237253   0.227  10.467   1.580  3.5691  2.3534 -0.1227
43550SOL     OW37254   8.384  12.488   0.831  0.3474  0.0433 -0.0651
43550SOL    HW137255   8.459  12.484   0.891 -0.3125  1.3378  0.8793
43550SOL    HW237256   8.321  12.546   0.874 -0.1102  1.1108 -2.0528
43551SOL     OW37257  11.583   7.066  10.986 -0.3418  0.1337 -0.2004
43551SOL    HW137258  11.628   7.098  11.064 -2.2904  1.6148  0.3922
43551SOL    HW237259  11.578   6.971  10.998  0.4113  0.2207  0.9105
43552SOL     OW37260   0.065   5.752   1.951 -0.8225 -0.0026 -0.0459
43552SOL    HW137261  -0.007   5.721   2.005 -0.2615 -0.1478  0.6243
43552SOL    HW237262   0.096   5.674   1.905 -0.1985 -0.2243  0.7239
43553SOL     OW37263   7.800   8.800   6.875 -0.3399 -0.8555 -0.1978
43553SOL    HW137264   7.842   8.764   6.797 -0.2768  1.5344 -1.3644
43553SOL    HW237265   7.720   8.749   6.885  0.0325 -1.7108 -1.3608
43554SOL     OW37266  11.481  12.329   7.978  0.1342 -0.7372  0.2046
43554SOL    HW137267  11.527  12.246   7.986 -0.9512 -1.3641  0.1492
43554SOL    HW237268  11.448  12.331   7.888  0.4700 -0.0728  0.0879
43555SOL     OW37269   5.135   2.232   4.562  0.3988  0.4953  0.3307
43555SOL    HW137270   5.072   2.302   4.579 -0.3111  0.1785 -0.8820
43555SOL    HW237271   5.120   2.168   4.632 -1.7815 -0.3296 -0.7701
43556SOL     OW37272  11.652   6.073   0.283  0.1865 -0.4942 -0.0668
43556SOL    HW137273  11.689   6.132   0.218  0.1702 -0.3987  0.0098
43556SOL    HW237274  11.558   6.095   0.284 -0.2912 -2.1791 -1.7873
43557SOL     OW37275   8.822   3.400   9.446 -0.3262 -0.3426 -0.2944
43557SOL    HW137276   8.787   3.482   9.481  0.3136  0.1888 -0.8861
43557SOL    HW237277   8.833   3.344   9.523 -1.6744 -0.2318  0.0061
43558SOL     OW37278   7.532   7.637   0.983 -0.2145 -0.1931  0.3418
43558SOL    HW137279   7.479   7.557   0.977 -1.6971  0.7682  0.2414
43558SOL    HW237280   7.563   7.638   1.074 -2.0351  0.2388  0.9831
43559SOL     OW37281  12.743   2.337   9.805 -0.2584 -0.5569 -0.1815
43559SOL    HW137282  12.811   2.393   9.842 -1.5832  0.8222  0.2838
43559SOL    HW237283  12.721   2.379   9.721 -1.4118 -0.2179  0.2702
43560SOL     OW37284   6.825  11.686  11.387 -0.1938  0.2249 -0.2758
43560SOL    HW137285   6.820  11.647  11.474 -1.0913  1.5649  0.2932
43560SOL    HW237286   6.888  11.631  11.340  0.0477 -0.7168  1.1008
43561SOL     OW37287   7.454   8.423   6.775  0.2341  0.3125 -0.2423
43561SOL    HW137288   7.426   8.375   6.853  0.6167  1.5890  0.7162
43561SOL    HW237289   7.373   8.457   6.737 -0.0604 -1.1928 -1.0401
43562SOL     OW37290   4.670  11.720   2.104 -0.0448 -0.2475  0.2816
43562SOL    HW137291   4.743  11.779   2.090 -1.1351  0.7382 -1.6895
43562SOL    HW237292   4.593  11.777   2.110 -0.8203 -1.3195  0.9875
43563SOL     OW37293   9.811  11.709   7.867  0.2915 -0.1020  0.0311
43563SOL    HW137294   9.804  11.625   7.914 -0.9388 -0.9092 -1.5029
43563SOL    HW237295   9.903  11.713   7.841  0.5424 -0.5990  0.7976
43564SOL     OW37296   6.661   5.742   0.685  0.0976 -0.5763  0.1918
43564SOL    HW137297   6.739   5.709   0.730  0.6244 -0.5561 -0.6840
43564SOL    HW237298   6.601   5.668   0.684  0.7719 -1.1380 -0.6115
43565SOL     OW37299   9.268   5.163   4.145  0.2763 -0.0479  1.0475
43565SOL    HW137300   9.296   5.255   4.143  0.5926 -0.1500  0.6889
43565SOL    HW237301   9.249   5.145   4.237 -0.4023  0.5644  1.0387
43566SOL     OW37302   0.557   5.378   7.106 -0.1677  0.0745 -0.6261
43566SOL    HW137303   0.536   5.464   7.070 -2.2124 -0.8183 -1.6911
43566SOL    HW237304   0.535   5.385   7.199 -0.8916  0.5340 -0.8283
43567SOL     OW37305   5.795   1.155   2.517 -0.4119 -0.1713 -0.0348
43567SOL    HW137306   5.803   1.190   2.429  2.0773 -0.5113 -0.0165
43567SOL    HW237307   5.760   1.227   2.569  1.9188  1.4757 -0.5679
43568SOL     OW37308  10.604  11.414  10.360  0.0650  0.1414  0.0586
43568SOL    HW137309  10.579  11.360  10.285  2.2631  0.0584 -0.6760
43568SOL    HW237310  10.588  11.358  10.436  0.3886 -0.8066 -0.5526
43569SOL     OW37311   2.957  11.579   5.180 -0.4559  0.2820 -0.2243
43569SOL    HW137312   2.913  11.565   5.097 -3.2903  2.5106  0.7525
43569SOL    HW237313   3.050  11.581   5.158 -1.1276  1.4450 -3.4562
43570SOL     OW37314   5.435   9.294   6.831 -0.4876  0.1239  0.2991
43570SOL    HW137315   5.376   9.240   6.882 -0.3181 -0.9371 -0.5811
43570SOL    HW237316   5.519   9.247   6.833 -0.1099  0.7781  0.2046
43571SOL     OW37317   9.865  10.626   2.409  0.2166 -0.0845 -0.4590
43571SOL    HW137318   9.828  10.560   2.349 -0.5293 -0.3219  0.2345
43571SOL    HW237319   9.863  10.584   2.495 -2.8956  1.7442  0.5315
43572SOL     OW37320   5.892   6.683   0.283  0.2407  0.0742 -0.1348
43572SOL    HW137321   5.880   6.593   0.313  0.8777  0.0369  0.0197
43572SOL    HW237322   5.984   6.702   0.301  0.1476  0.7031 -0.3110
43573SOL     OW37323   7.362   9.190  12.586 -0.4540 -0.9589 -0.7708
43573SOL    HW137324   7.432   9.215  12.526 -1.1228  0.8365 -0.8813
43573SOL    HW237325   7.373   9.249  12.661  0.5488 -3.3602  1.0876
43574SOL     OW37326   8.718   5.182  11.608 -0.8032 -0.2919 -0.0143
43574SOL    HW137327   8.756   5.118  11.549 -0.5330 -0.1497  0.0040
43574SOL    HW237328   8.707   5.135  11.691  0.1451 -0.0944  0.2367
43575SOL     OW37329   3.197   7.064   1.339  0.3630 -0.5553 -0.1035
43575SOL    HW137330   3.129   7.011   1.297 -0.4874  0.5508 -0.1826
43575SOL    HW237331   3.276   7.044   1.290  0.2882 -2.4865  0.5063
43576SOL     OW37332   9.655   1.100   1.267  0.0342  0.3775  0.2643
43576SOL    HW137333   9.672   1.046   1.344 -1.0288  0.9420  0.9068
43576SOL    HW237334   9.580   1.058   1.225 -0.2995  0.9087  0.3315
43577SOL     OW37335   3.903  10.497   1.111  0.2273  0.0358 -0.1868
43577SOL    HW137336   3.863  10.540   1.187  0.6737  0.4347 -0.1747
43577SOL    HW237337   3.995  10.521   1.115  0.3439 -0.3255 -0.5951
43578SOL     OW37338   3.983  10.855   4.923  0.0386  0.5049 -0.2459
43578SOL    HW137339   3.986  10.798   4.846 -0.2716  0.7154 -0.4140
43578SOL    HW237340   3.891  10.876   4.935 -0.1951 -1.1990  1.4434
43579SOL     OW37341   6.906  12.348   1.092 -0.6258  0.3724 -0.0143
43579SOL    HW137342   6.929  12.351   0.999 -2.2132  0.8513 -0.4233
43579SOL    HW237343   6.849  12.272   1.100  0.3340 -0.2782  0.7918
43580SOL     OW37344   2.341  10.062   7.237 -0.4318  0.2097 -0.2115
43580SOL    HW137345   2.255  10.036   7.203 -0.9527  0.4617  0.8639
43580SOL    HW237346   2.382   9.979   7.263  0.5399 -0.1496 -2.6089
43581SOL     OW37347  10.397   8.615   9.789 -0.1752  0.4514  0.3882
43581SOL    HW137348  10.348   8.561   9.727  0.6152  0.1573 -0.0009
43581SOL    HW237349  10.438   8.552   9.848  1.2781  0.5551 -0.4590
43582SOL     OW37350   0.766   7.951   6.563  0.0282  0.6911  0.3421
43582SOL    HW137351   0.828   7.999   6.508 -0.2981  1.8865  0.9853
43582SOL    HW237352   0.781   7.859   6.542  3.2138  0.7901  1.7080
43583SOL     OW37353   3.271  11.996   9.223 -1.0565 -0.4487  0.2372
43583SOL    HW137354   3.302  11.926   9.165  1.2287  1.1570 -0.6230
43583SOL    HW237355   3.193  12.030   9.179 -1.1876 -1.2874 -0.2190
43584SOL     OW37356   1.080   1.758  11.478  0.7834 -0.6575  0.1871
43584SOL    HW137357   1.085   1.782  11.385  1.4857 -0.7039  0.2055
43584SOL    HW237358   1.093   1.663  11.478  0.4942 -0.6965  0.3096
43585SOL     OW37359   7.162   7.152   5.796 -0.0274 -0.3713  0.3690
43585SOL    HW137360   7.164   7.241   5.831 -2.0707 -0.0586 -0.1499
43585SOL    HW237361   7.241   7.111   5.830 -0.4594  0.7666  3.0237
43586SOL     OW37362   2.010   1.815   0.038 -0.4447 -0.3624 -0.4527
43586SOL    HW137363   1.957   1.852   0.108 -0.7410 -0.5170 -0.5940
43586SOL    HW237364   1.962   1.835  -0.042  0.5192  0.9369 -0.7378
43587SOL     OW37365   2.789   2.889   9.166  0.3545  0.6944  0.1901
43587SOL    HW137366   2.844   2.825   9.121 -0.9986 -0.1240 -0.3569
43587SOL    HW237367   2.813   2.881   9.258  0.1172 -0.7318  0.1566
43588SOL     OW37368   5.332   8.444   1.452 -0.4198  0.2425 -0.3663
43588SOL    HW137369   5.350   8.357   1.487 -0.9826  0.0341 -0.5970
43588SOL    HW237370   5.352   8.503   1.525 -1.3621 -0.1683  0.2505
43589SOL     OW37371   7.778   1.361   3.820  0.0681 -0.2546  0.1072
43589SOL    HW137372   7.732   1.392   3.742  0.0988 -3.4485 -1.3214
43589SOL    HW237373   7.725   1.288   3.852  0.2938  0.6713  2.9246
43590SOL     OW37374   4.144   7.229   1.145  0.2070 -0.1938  0.3714
43590SOL    HW137375   4.142   7.198   1.236 -0.9109  1.7530  1.0465
43590SOL    HW237376   4.237   7.221   1.120  0.2238 -2.7313  0.9010
43591SOL     OW37377   3.200  12.076   0.378 -0.0510  0.1634  0.0293
43591SOL    HW137378   3.141  12.061   0.304  0.8151 -1.3119 -0.3994
43591SOL    HW237379   3.239  11.991   0.396  0.1314  0.5908  1.8971
43592SOL     OW37380   2.119  10.608   4.927  0.0243  0.5235  0.1016
43592SOL    HW137381   2.026  10.630   4.917 -0.3204 -0.7737  0.2245
43592SOL    HW237382   2.159  10.688   4.962 -1.0070  1.1553 -0.1094
43593SOL     OW37383   7.771   9.100   9.915 -0.2830  0.4426  0.0612
43593SOL    HW137384   7.778   9.191   9.885  0.5935  0.1368 -0.7098
43593SOL    HW237385   7.692   9.098   9.969 -0.7184  1.4994 -0.5171
43594SOL     OW37386   0.596   3.431   8.396  0.3508  0.8006 -0.4494
43594SOL    HW137387   0.544   3.358   8.363 -0.7040 -0.5158  3.5116
43594SOL    HW237388   0.534   3.505   8.400  0.0173  0.4902  0.1580
43595SOL     OW37389   4.478   6.413   8.895 -1.3004  0.0903  0.5155
43595SOL    HW137390   4.411   6.481   8.900 -0.6578  0.8777 -0.8901
43595SOL    HW237391   4.560   6.461   8.880 -0.9542 -0.9928 -1.3938
43596SOL     OW37392   3.298   2.074   0.124  0.0269  0.0120 -0.6137
43596SOL    HW137393   3.248   2.141   0.077  1.8915  1.9942  0.0465
43596SOL    HW237394   3.338   2.021   0.054 -0.4763  0.3524 -1.1713
43597SOL     OW37395   3.370   2.900   8.287 -0.6552  0.3829  0.3518
43597SOL    HW137396   3.284   2.859   8.298 -0.7887  1.0219  1.9216
43597SOL    HW237397   3.416   2.880   8.369  0.9476 -0.4814 -0.7018
43598SOL     OW37398   3.317   3.198   7.686 -0.6207 -0.5808  0.5888
43598SOL    HW137399   3.322   3.228   7.777 -0.6464  0.6962  0.1889
43598SOL    HW237400   3.231   3.225   7.656 -0.6151 -0.9944  0.1762
43599SOL     OW37401   8.528   2.383  12.022 -0.3197 -0.3036 -0.5510
43599SOL    HW137402   8.616   2.382  12.060 -0.1894 -2.5559 -0.7526
43599SOL    HW237403   8.469   2.390  12.097  0.0093  0.5452 -0.3653
43600SOL     OW37404   1.437   9.532   1.492  0.2259  0.1083 -0.1342
43600SOL    HW137405   1.409   9.622   1.475 -2.5874 -0.8457 -1.1038
43600SOL    HW237406   1.409   9.483   1.415  1.7899 -1.6367  0.3113
43601SOL     OW37407   6.579   4.173   6.645  0.1304  0.5459 -0.1756
43601SOL    HW137408   6.561   4.207   6.557 -1.2966 -0.6759 -0.3885
43601SOL    HW237409   6.515   4.103   6.657  0.1024  0.8806  1.9589
43602SOL     OW37410   0.687  10.081  12.749  0.0514  0.2287  0.0947
43602SOL    HW137411   0.612  10.022  12.760  0.4260 -0.3443 -0.3331
43602SOL    HW237412   0.738  10.041  12.679  0.5036  0.8798  0.0467
43603SOL     OW37413   9.433   0.917   1.199  0.2160  0.7644  0.3625
43603SOL    HW137414   9.421   0.823   1.188  0.2406  0.7381  0.5527
43603SOL    HW237415   9.354   0.956   1.160 -0.5963  0.5857  1.7510
43604SOL     OW37416  12.065   5.099   0.773 -0.7407  0.0616  0.0040
43604SOL    HW137417  12.131   5.032   0.790 -1.0369 -0.1475  0.3292
43604SOL    HW237418  11.993   5.052   0.732 -0.2647  0.4697 -1.3371
43605SOL     OW37419   8.372   8.348   3.203 -0.8441  0.5481  0.3207
43605SOL    HW137420   8.310   8.316   3.137 -1.5969  1.0667  0.7539
43605SOL    HW237421   8.318   8.362   3.281 -0.3028  1.6260  0.5222
43606SOL     OW37422   0.868  11.215   0.185 -0.0689  0.0709 -0.2428
43606SOL    HW137423   0.861  11.309   0.167  0.4522  0.0863 -0.3882
43606SOL    HW237424   0.856  11.208   0.279 -1.9472  0.0871 -0.4470
43607SOL     OW37425   7.564   7.218   0.139 -0.5508  0.6885 -0.6056
43607SOL    HW137426   7.580   7.303   0.098 -0.3749  0.4098 -1.1146
43607SOL    HW237427   7.597   7.154   0.077 -0.4511  0.2521 -0.1110
43608SOL     OW37428   1.398   9.705   2.130  0.2864 -0.4819  0.4388
43608SOL    HW137429   1.346   9.761   2.072  1.4089 -0.8212 -0.9440
43608SOL    HW237430   1.333   9.652   2.177 -0.9241  2.5566  2.5363
43609SOL     OW37431  12.363   8.264   7.743 -0.0132  0.2806 -0.0172
43609SOL    HW137432  12.273   8.272   7.710 -0.0243 -1.4100 -0.5337
43609SOL    HW237433  12.352   8.233   7.833  0.0538  1.8881  0.5657
43610SOL     OW37434   4.547   7.320   3.792  0.1775  0.0125 -0.1264
43610SOL    HW137435   4.567   7.359   3.878 -0.8567 -0.1136  0.1824
43610SOL    HW237436   4.477   7.258   3.810 -1.0417  0.9981 -1.2733
43611SOL     OW37437   5.515   3.822   2.341  0.3866  0.2843  0.2696
43611SOL    HW137438   5.576   3.839   2.413 -0.3398 -1.9493  1.5429
43611SOL    HW237439   5.559   3.854   2.263  2.2998  0.5757  1.4131
43612SOL     OW37440  11.230   3.085   0.582  0.1073 -0.1645  0.6403
43612SOL    HW137441  11.159   3.038   0.625  0.8598 -1.0910  0.9066
43612SOL    HW237442  11.190   3.123   0.504 -0.6739 -0.6927  0.7703
43613SOL     OW37443  12.119   1.992  11.044  0.4360  0.1767 -0.2097
43613SOL    HW137444  12.097   2.076  11.085 -1.2219  0.1849 -1.0092
43613SOL    HW237445  12.201   2.008  10.998  0.3638  1.2426  0.0052
43614SOL     OW37446   1.534   1.948   8.062  0.2418  0.3063 -0.0547
43614SOL    HW137447   1.566   2.033   8.094 -0.1231  0.5282 -0.2689
43614SOL    HW237448   1.440   1.962   8.048 -0.0532 -0.4955  1.0680
43615SOL     OW37449  10.092   6.152   1.244 -0.3841  0.2549  0.0685
43615SOL    HW137450  10.156   6.221   1.228 -1.5656  1.0525 -1.6228
43615SOL    HW237451  10.100   6.132   1.337  2.7773 -0.2189 -0.2097
43616SOL     OW37452   2.208   4.266   4.326  0.0469  0.0792  0.5422
43616SOL    HW137453   2.272   4.322   4.282  0.0345 -1.0517 -1.0135
43616SOL    HW237454   2.126   4.282   4.280 -0.0949 -0.7343  0.4851
43617SOL     OW37455  11.694   8.855   6.237  0.2312 -0.0291  0.0269
43617SOL    HW137456  11.746   8.777   6.219  2.1587  1.2475 -0.2445
43617SOL    HW237457  11.708   8.872   6.330 -0.2139 -0.0278  0.0951
43618SOL     OW37458   8.805   4.041   2.253  0.5418 -0.2931 -0.2559
43618SOL    HW137459   8.815   3.990   2.173 -1.8778 -0.5592 -0.4493
43618SOL    HW237460   8.785   4.130   2.223 -2.2981 -0.7840 -0.0667
43619SOL     OW37461  12.193   6.199   0.844 -0.1328  0.4109 -0.5749
43619SOL    HW137462  12.114   6.160   0.806  0.6102 -0.3888 -1.3195
43619SOL    HW237463  12.229   6.253   0.774 -0.3440  1.2932 -0.0285
43620SOL     OW37464   4.490   4.807  12.214  0.1278 -0.0996 -0.0201
43620SOL    HW137465   4.540   4.815  12.295  0.5309  0.4819 -0.3152
43620SOL    HW237466   4.417   4.748  12.235  0.2037  0.0883  0.7699
43621SOL     OW37467  11.654   0.680   9.040  0.2423 -0.2988 -0.2905
43621SOL    HW137468  11.612   0.650   9.121 -0.8481  1.4578 -0.1313
43621SOL    HW237469  11.746   0.691   9.064  0.4822 -2.4482 -0.1036
43622SOL     OW37470   6.033   9.855   6.196  0.0385 -0.5221  0.0023
43622SOL    HW137471   6.066   9.768   6.219  0.7049 -0.2381  0.1197
43622SOL    HW237472   6.085   9.916   6.248  0.3767  0.0245 -0.9507
43623SOL     OW37473   2.326   3.932   1.945  0.3263 -0.0934  0.2785
43623SOL    HW137474   2.388   3.976   2.003  1.4149 -0.2885 -0.7071
43623SOL    HW237475   2.285   4.003   1.896  0.7021 -0.0467  0.0306
43624SOL     OW37476   0.768   7.458   1.984 -0.3051  0.3037 -0.2513
43624SOL    HW137477   0.716   7.516   2.040 -1.0712  0.0777 -0.7301
43624SOL    HW237478   0.781   7.379   2.037 -0.5114  0.3324 -0.1567
43625SOL     OW37479   6.617  12.242   4.081 -0.3403  0.5697 -0.2155
43625SOL    HW137480   6.599  12.291   4.161  1.6405 -2.2790  2.2249
43625SOL    HW237481   6.705  12.270   4.055 -0.2636  0.2349 -0.3263
43626SOL     OW37482   3.161   9.795  12.228  0.1815  0.1798  0.0243
43626SOL    HW137483   3.163   9.889  12.246 -0.0087  0.0638  0.6869
43626SOL    HW237484   3.204   9.755  12.304 -2.1810 -0.4535  1.1242
43627SOL     OW37485  12.734   4.642  10.091  0.6759 -0.3066 -0.6633
43627SOL    HW137486  12.725   4.610  10.001 -1.1339 -0.3627 -0.5082
43627SOL    HW237487  12.753   4.735  10.081  0.2088 -0.2516 -1.1231
43628SOL     OW37488   0.651   7.052   5.763  0.3176  0.0154 -0.6311
43628SOL    HW137489   0.621   7.126   5.709  0.0263  0.6908  0.4282
43628SOL    HW237490   0.729   7.020   5.718  0.7362  1.2964 -0.8582
43629SOL     OW37491   7.317  12.326   4.980  0.0842  0.1132 -0.1661
43629SOL    HW137492   7.359  12.251   4.937  0.1820  0.9328 -1.5889
43629SOL    HW237493   7.302  12.298   5.070 -1.6374 -2.3113 -1.1101
43630SOL     OW37494   4.161   5.892   3.251  0.5613  0.4473  0.2050
43630SOL    HW137495   4.159   5.841   3.332  3.4798 -2.8709 -1.5699
43630SOL    HW237496   4.191   5.979   3.279  1.1623 -0.4847  2.7315
43631SOL     OW37497   5.158   5.030  10.794 -0.4325 -0.5340  0.1884
43631SOL    HW137498   5.097   4.989  10.854 -0.0254 -1.1402  0.1962
43631SOL    HW237499   5.232   4.969  10.789  0.8663  0.8301  1.3388
43632SOL     OW37500   1.384  11.619   9.446 -0.6847 -0.3608  0.3461
43632SOL    HW137501   1.419  11.607   9.358 -2.1012 -1.5054 -0.1159
43632SOL    HW237502   1.325  11.694   9.439 -0.5723 -0.2675  0.3969
43633SOL     OW37503   9.761   4.384  11.862  0.0367 -0.2999 -0.3384
43633SOL    HW137504   9.672   4.382  11.895 -0.5572 -0.0622 -1.8340
43633SOL    HW237505   9.778   4.293  11.835 -0.4569 -0.0024 -1.7441
43634SOL     OW37506   6.398   5.864   3.431  0.2176 -0.5287 -0.5127
43634SOL    HW137507   6.419   5.926   3.500  2.0473 -2.4674  0.8077
43634SOL    HW237508   6.315   5.824   3.458 -1.0896  1.3781 -1.4852
43635SOL     OW37509  10.371  10.731  11.087 -0.3536 -0.6473  0.6277
43635SOL    HW137510  10.361  10.636  11.079  0.4389 -0.6649 -0.4738
43635SOL    HW237511  10.426  10.743  11.164 -0.2160 -1.0931  0.6034
43636SOL     OW37512   1.239  10.957   4.121  0.5162 -0.4563 -0.5138
43636SOL    HW137513   1.171  10.889   4.123 -1.2508  1.1318 -2.3997
43636SOL    HW237514   1.318  10.910   4.094 -0.1368 -2.1004  0.2617
43637SOL     OW37515  12.161   6.456   2.215  0.4515  0.3114  0.0437
43637SOL    HW137516  12.240   6.501   2.184  0.3377  1.8811  1.8448
43637SOL    HW237517  12.176   6.444   2.309  0.2743 -3.1520 -0.2607
43638SOL     OW37518   8.898   4.813  10.357 -0.6247  0.2556 -0.1559
43638SOL    HW137519   8.836   4.740  10.367 -1.0393  0.4584 -1.0827
43638SOL    HW237520   8.869   4.857  10.277  1.1178 -0.0158 -0.9718
43639SOL     OW37521   8.469   4.464   3.414  0.0374  0.1856 -0.1240
43639SOL    HW137522   8.431   4.485   3.329 -1.3462 -0.5840  0.2736
43639SOL    HW237523   8.412   4.396   3.450  0.7052  0.3551  1.3388
43640SOL     OW37524   8.038   7.883   2.292 -0.8897  0.3171  0.0266
43640SOL    HW137525   8.084   7.857   2.213 -0.0606  1.6272  0.0415
43640SOL    HW237526   8.099   7.863   2.363 -1.8545 -1.3889  0.4225
43641SOL     OW37527   6.242   6.621  11.044  0.3121 -0.4568  0.0746
43641SOL    HW137528   6.185   6.689  11.007  0.3102 -0.3053  0.3478
43641SOL    HW237529   6.327   6.665  11.053  0.0999 -0.2264  1.0403
43642SOL     OW37530   4.055  10.766   4.193 -0.9274 -0.1197  0.3758
43642SOL    HW137531   4.148  10.789   4.192 -0.7959 -0.6330  0.7946
43642SOL    HW237532   4.047  10.698   4.259 -1.4489 -0.7494 -0.3122
43643SOL     OW37533  10.852   7.236   8.897 -0.1441 -0.5992 -0.0522
43643SOL    HW137534  10.925   7.295   8.916  0.7169 -1.4366 -0.6900
43643SOL    HW237535  10.872   7.157   8.947  0.0860 -1.3203 -1.2498
43644SOL     OW37536   5.750   0.311   8.494  0.6945  0.2878  0.0754
43644SOL    HW137537   5.772   0.400   8.468 -0.4523  0.9602  1.2850
43644SOL    HW237538   5.670   0.291   8.446  0.5137  0.2089  0.4094
43645SOL     OW37539   0.483   8.613  10.945 -0.3682  0.0757  0.0055
43645SOL    HW137540   0.566   8.569  10.927 -0.1294  1.4410 -2.7809
43645SOL    HW237541   0.497   8.655  11.030  2.0214  0.6726 -0.5867
43646SOL     OW37542   8.714  11.886   1.454  0.1752  0.1540  0.1310
43646SOL    HW137543   8.805  11.886   1.424  0.1001  0.0208 -0.0975
43646SOL    HW237544   8.717  11.931   1.538  0.3463  0.7802 -0.2040
43647SOL     OW37545   9.407  11.808   5.874 -0.0567 -0.0081 -0.4617
43647SOL    HW137546   9.454  11.823   5.955  0.3934  0.6087 -0.8287
43647SOL    HW237547   9.337  11.747   5.897  0.4517 -0.3255  0.2487
43648SOL     OW37548  12.099  10.654   6.146 -0.1626 -0.8643 -0.2799
43648SOL    HW137549  12.005  10.647   6.161  0.2042 -3.4962  1.3583
43648SOL    HW237550  12.126  10.567   6.117  1.6352  0.1521 -1.9497
43649SOL     OW37551  10.359   0.930  10.635  0.2670  0.2593 -0.6888
43649SOL    HW137552  10.371   1.016  10.675  1.8970  0.1988 -0.9809
43649SOL    HW237553  10.437   0.880  10.661 -0.3668 -0.9284 -1.0117
43650SOL     OW37554  11.969   5.359   0.567 -0.1189  0.0046  0.1740
43650SOL    HW137555  12.019   5.303   0.626  0.2041 -0.5305 -0.5788
43650SOL    HW237556  11.924   5.298   0.509 -0.1185  0.5147 -0.3759
43651SOL     OW37557   4.901   9.934   1.818 -0.0485 -0.1077  0.1383
43651SOL    HW137558   4.810   9.920   1.790  0.6145 -1.7237 -1.3526
43651SOL    HW237559   4.929  10.013   1.771 -0.9069  0.9148  1.2742
43652SOL     OW37560  12.341   7.917   8.311 -0.3485  0.0596 -0.2652
43652SOL    HW137561  12.278   7.847   8.331 -0.1515 -0.2895 -0.8409
43652SOL    HW237562  12.340   7.973   8.388 -3.4080  1.6256 -1.3072
43653SOL     OW37563  10.960   7.034  11.364  0.3217 -0.7037 -0.0441
43653SOL    HW137564  11.002   7.110  11.405 -2.0451 -0.1575  1.5823
43653SOL    HW237565  10.925   7.067  11.281  0.4646 -0.3691  0.0272
43654SOL     OW37566   9.677   8.076   6.967 -0.2233 -0.6321  0.2155
43654SOL    HW137567   9.768   8.104   6.958  0.6862 -2.7398  1.8259
43654SOL    HW237568   9.639   8.138   7.028 -0.0895  0.6558 -0.9715
43655SOL     OW37569  10.718   7.846   2.794 -0.0444 -0.4499 -0.0370
43655SOL    HW137570  10.725   7.865   2.700  0.1149 -0.1190  0.0406
43655SOL    HW237571  10.634   7.801   2.803  0.4716 -1.5538 -0.5125
43656SOL     OW37572   5.088   5.367   9.099  0.9598  0.3694  0.3149
43656SOL    HW137573   5.065   5.375   9.191  0.0675  2.4151 -0.0383
43656SOL    HW237574   5.099   5.273   9.085 -1.5500 -0.2268  1.8560
43657SOL     OW37575   4.120  12.638   9.761 -0.6917  0.0434 -0.0033
43657SOL    HW137576   4.162  12.685   9.689 -0.2202  1.6195  1.2376
43657SOL    HW237577   4.191  12.592   9.806 -0.5349  1.1889  0.9763
43658SOL     OW37578   5.696   7.207   3.776 -0.6380  0.4448 -0.0693
43658SOL    HW137579   5.723   7.263   3.849  1.1916  1.9980 -1.8118
43658SOL    HW237580   5.778   7.168   3.746 -1.0617  1.1463 -2.2811
43659SOL     OW37581  11.443  10.253   2.821 -0.6069 -0.5195 -0.2470
43659SOL    HW137582  11.465  10.271   2.913  0.2410 -1.8687 -0.1528
43659SOL    HW237583  11.428  10.159   2.818  0.7057 -0.7262 -1.7371
43660SOL     OW37584  10.373   9.505   7.002 -0.1220 -0.1401  0.0991
43660SOL    HW137585  10.440   9.438   6.994  1.2230  1.2088 -0.4073
43660SOL    HW237586  10.386   9.562   6.926 -1.9261  0.1177 -0.0764
43661SOL     OW37587   1.877   3.402   8.793 -0.0525  0.3477  0.0225
43661SOL    HW137588   1.810   3.336   8.810  0.1122 -0.0658 -0.8818
43661SOL    HW237589   1.943   3.357   8.740 -0.4997  1.5090 -1.6227
43662SOL     OW37590   4.618   1.799   1.570  0.1417 -0.3150 -0.5057
43662SOL    HW137591   4.594   1.886   1.539  1.4347 -0.2534 -1.3928
43662SOL    HW237592   4.661   1.814   1.654  2.2833  0.1411 -1.6320
43663SOL     OW37593   3.843   8.925   8.646 -0.0499  0.1327 -0.4125
43663SOL    HW137594   3.840   8.847   8.591 -3.1056 -0.8470  0.8984
43663SOL    HW237595   3.936   8.939   8.664  0.7048 -2.1578 -2.0879
43664SOL     OW37596  12.393  12.294   1.104 -0.1152 -0.2208  0.1707
43664SOL    HW137597  12.472  12.293   1.158 -0.9951 -0.6767  1.5002
43664SOL    HW237598  12.329  12.244   1.155 -1.3205  0.2966 -0.7981
43665SOL     OW37599  10.353  10.947   7.077  0.1161 -0.1627 -0.4972
43665SOL    HW137600  10.347  11.042   7.067  0.1520 -0.0746  0.3091
43665SOL    HW237601  10.410  10.934   7.153 -2.2846 -0.7695  1.2948
43666SOL     OW37602   2.688   3.088   6.217 -0.6662 -0.3999  0.5876
43666SOL    HW137603   2.768   3.069   6.169 -1.4093  1.1209 -1.3906
43666SOL    HW237604   2.648   3.002   6.232  1.5486 -1.2649  2.1953
43667SOL     OW37605   5.378   5.243   1.197 -0.2877  0.4319  0.6934
43667SOL    HW137606   5.312   5.184   1.160  0.5449  0.3441 -0.7094
43667SOL    HW237607   5.445   5.184   1.231 -0.5356  0.5398  1.3878
43668SOL     OW37608   9.288  12.651   1.089 -0.6138  0.5996 -0.0265
43668SOL    HW137609   9.304  12.616   1.002 -0.8597 -1.3031  0.6590
43668SOL    HW237610   9.193  12.648   1.099 -0.5815  0.7357  0.3363
43669SOL     OW37611  12.592   1.458   7.574  0.1879  0.7137 -0.1033
43669SOL    HW137612  12.576   1.374   7.530  2.6801  0.9691 -1.7356
43669SOL    HW237613  12.615   1.434   7.664  3.7864 -0.7899 -1.2289
43670SOL     OW37614   8.856   2.417   4.556  0.5524 -0.2991 -0.3872
43670SOL    HW137615   8.924   2.436   4.491 -0.2244 -2.7742 -2.0829
43670SOL    HW237616   8.819   2.502   4.578  1.4369  0.7273 -2.5824
43671SOL     OW37617  12.449   5.147  12.284  0.1177  0.1090 -0.5462
43671SOL    HW137618  12.408   5.141  12.198  1.3326 -0.2579 -1.1221
43671SOL    HW237619  12.381   5.182  12.341  0.0140  2.7394 -2.1567
43672SOL     OW37620   8.812   8.653   4.101  0.1880  0.2225 -0.7297
43672SOL    HW137621   8.893   8.608   4.124 -0.1237  0.1726  0.3096
43672SOL    HW237622   8.803   8.721   4.168 -0.6971  0.1508 -0.7707
43673SOL     OW37623  11.101  11.810   8.855 -0.4041 -0.0357 -0.4302
43673SOL    HW137624  11.060  11.819   8.768 -0.3780 -2.9766 -0.8391
43673SOL    HW237625  11.027  11.795   8.914 -0.2167 -3.1415 -0.8292
43674SOL     OW37626   5.273   5.409   8.526  0.0322  0.3806  0.9507
43674SOL    HW137627   5.328   5.334   8.502 -0.1464  0.4794  0.2239
43674SOL    HW237628   5.215   5.374   8.594 -0.9031 -0.5045 -0.2714
43675SOL     OW37629   3.206   9.980   9.890 -0.1562  0.3046 -0.5069
43675SOL    HW137630   3.215  10.055   9.831 -1.6897  0.1932 -0.9197
43675SOL    HW237631   3.141   9.923   9.847  1.1139 -1.3861 -0.3167
43676SOL     OW37632   0.803   6.933   2.080  0.0576  0.2062 -0.3584
43676SOL    HW137633   0.879   6.907   2.132  0.3542  1.6450 -0.0372
43676SOL    HW237634   0.816   6.889   1.996 -1.2047 -3.4047  1.1444
43677SOL     OW37635   4.683   0.295   2.030 -0.1998  0.0569  0.3534
43677SOL    HW137636   4.614   0.237   2.064  0.7107 -2.7895 -2.2147
43677SOL    HW237637   4.637   0.355   1.971 -0.8177  0.2981  1.0559
43678SOL     OW37638  12.198   4.165   1.818 -0.1788 -0.1317  0.0813
43678SOL    HW137639  12.282   4.188   1.777  0.0251  1.6548  1.3767
43678SOL    HW237640  12.220   4.145   1.909 -0.9893 -1.0593  0.0788
43679SOL     OW37641   0.269   1.849  10.958  0.3041  0.1947 -0.0195
43679SOL    HW137642   0.266   1.791  11.035  1.4415  2.3505  1.7970
43679SOL    HW237643   0.189   1.901  10.964  0.4321  0.4174 -0.2496
43680SOL     OW37644   4.634   9.663   8.462 -0.0582  1.0680 -0.2064
43680SOL    HW137645   4.545   9.649   8.430  0.0729  0.3345 -0.2872
43680SOL    HW237646   4.623   9.686   8.554 -0.3745  1.9485 -0.4580
43681SOL     OW37647   0.569  11.116   7.985 -0.2190  0.3510 -0.1678
43681SOL    HW137648   0.580  11.193   7.930  0.0730  1.6331  1.6113
43681SOL    HW237649   0.480  11.123   8.019 -0.5817 -0.7108 -0.8413
43682SOL     OW37650   5.165  11.895   7.619  0.1210 -0.1590  0.2704
43682SOL    HW137651   5.118  11.830   7.567  1.1755  0.4108 -1.5024
43682SOL    HW237652   5.097  11.953   7.653 -0.6846 -1.1254  0.3332
43683SOL     OW37653   7.044   5.518   5.389 -0.3227  0.2351 -0.2162
43683SOL    HW137654   7.027   5.540   5.480 -0.7385  0.9329 -0.4567
43683SOL    HW237655   7.138   5.533   5.378  0.0428 -1.3074  0.4786
43684SOL     OW37656   5.165   7.093   1.733  0.0140  0.4427 -0.2987
43684SOL    HW137657   5.070   7.081   1.741  0.2357 -1.3843 -0.0892
43684SOL    HW237658   5.203   7.009   1.760  1.6629  0.8901 -1.0818
43685SOL     OW37659   8.919   8.122   3.811  0.2769 -0.1966 -0.0012
43685SOL    HW137660   8.823   8.120   3.813  0.0695  3.0293 -0.2026
43685SOL    HW237661   8.946   8.106   3.901 -0.5373 -0.0248  0.2822
43686SOL     OW37662  11.147   3.125   8.721 -0.4971  0.7293  0.3677
43686SOL    HW137663  11.156   3.148   8.629  0.4409 -0.9335 -0.0063
43686SOL    HW237664  11.236   3.107   8.750 -0.9364 -0.2904  1.1484
43687SOL     OW37665   8.429   1.740   4.465 -0.0505  0.1875 -0.4336
43687SOL    HW137666   8.422   1.790   4.547  1.0198  0.0043 -0.2225
43687SOL    HW237667   8.510   1.772   4.424  0.9750 -1.7474 -0.0175
43688SOL     OW37668   3.802   6.489   0.267 -0.2982  0.2371 -0.4491
43688SOL    HW137669   3.707   6.483   0.278 -0.4498  1.3464 -1.0430
43688SOL    HW237670   3.837   6.416   0.319 -1.4679 -0.1625 -0.2045
43689SOL     OW37671   8.041   5.044   3.498 -0.0390 -0.0270  0.3534
43689SOL    HW137672   8.117   5.011   3.452  0.3694 -0.1623  1.1055
43689SOL    HW237673   7.970   4.984   3.474  0.3937 -0.6737  0.6687
43690SOL     OW37674   1.756  10.342  11.711  0.4056 -0.6365 -0.1067
43690SOL    HW137675   1.759  10.268  11.772 -0.9085 -0.8378 -0.2666
43690SOL    HW237676   1.670  10.380  11.724  1.9345  2.5723  1.9127
43691SOL     OW37677   0.773   3.337   3.549 -0.0038 -0.2269  0.1397
43691SOL    HW137678   0.709   3.368   3.613 -0.1460 -1.6261  0.6998
43691SOL    HW237679   0.721   3.294   3.481  0.2768 -0.4204  0.0454
43692SOL     OW37680   5.102  10.254   0.769 -0.2065 -0.1926  0.2315
43692SOL    HW137681   5.131  10.165   0.749 -2.1860 -0.6636 -0.8237
43692SOL    HW237682   5.151  10.309   0.707 -1.4515 -0.9596 -1.5328
43693SOL     OW37683   7.356   1.003   0.890 -0.1394 -0.2618  0.2936
43693SOL    HW137684   7.347   0.964   0.803 -1.2549 -0.2381  0.3775
43693SOL    HW237685   7.346   1.097   0.875  2.8747  0.1054  0.0484
43694SOL     OW37686   9.944   2.563   9.937 -0.3235 -0.1745 -0.2389
43694SOL    HW137687   9.943   2.468   9.946 -0.1117 -0.0342  1.6964
43694SOL    HW237688  10.034   2.584   9.910 -0.2666 -0.4982 -0.3026
43695SOL     OW37689   5.096   8.569  11.662  0.5565 -0.1114  0.3913
43695SOL    HW137690   5.162   8.601  11.601  0.6587 -0.1303  0.4901
43695SOL    HW237691   5.015   8.614  11.637  0.9052  0.9857  1.1574
43696SOL     OW37692   5.832   7.187  12.601 -0.4612  0.1383  0.0426
43696SOL    HW137693   5.807   7.277  12.580  1.3602  0.3978 -1.2549
43696SOL    HW237694   5.768   7.133  12.555 -1.0855  0.7425  0.1768
43697SOL     OW37695   8.664   1.914   9.903 -0.5201 -0.0337  0.2306
43697SOL    HW137696   8.569   1.906   9.899 -0.6532  1.1160  0.5740
43697SOL    HW237697   8.680   2.009   9.907  0.6607 -0.1882 -0.3114
43698SOL     OW37698   4.751  11.155   7.372  0.0007 -0.0900 -0.3952
43698SOL    HW137699   4.676  11.123   7.321  0.2840  1.3657 -1.8087
43698SOL    HW237700   4.828  11.128   7.320  0.2721  2.0214 -1.1948
43699SOL     OW37701   6.962   7.385   5.526  0.1511  0.1828  0.5674
43699SOL    HW137702   7.031   7.399   5.461  1.2733  1.2321  1.9162
43699SOL    HW237703   6.975   7.455   5.590 -0.9576 -0.7569  1.8705
43700SOL     OW37704   3.812  10.566   1.361  0.1312  0.3069  0.0185
43700SOL    HW137705   3.889  10.621   1.375  0.0933  1.6105 -3.8243
43700SOL    HW237706   3.738  10.624   1.377  0.0905  1.1694 -2.8067
43701SOL     OW37707   6.944  11.015   9.259  0.1992 -0.4634  0.2705
43701SOL    HW137708   6.890  11.026   9.337 -0.4484  1.6428 -0.4189
43701SOL    HW237709   6.913  10.933   9.219 -2.5305  0.6476 -0.0895
43702SOL     OW37710  10.805   1.563  10.395 -0.4726 -0.2055 -0.1171
43702SOL    HW137711  10.891   1.603  10.384 -0.7639  1.4611  2.6184
43702SOL    HW237712  10.748   1.612  10.335 -0.1742  1.2785  0.7615
43703SOL     OW37713   4.352   0.421   5.834 -0.3393  0.1818  0.4098
43703SOL    HW137714   4.393   0.457   5.912  0.0868 -1.3021  0.8894
43703SOL    HW237715   4.359   0.327   5.844  0.9044 -0.0492 -2.0545
43704SOL     OW37716   6.005   8.657   8.256  0.0729 -0.0943 -0.4435
43704SOL    HW137717   5.979   8.619   8.340  0.1883  1.4500  0.3331
43704SOL    HW237718   5.966   8.745   8.256  0.7782  0.2500 -1.6370
43705SOL     OW37719   5.177  10.668   6.832 -0.5200 -0.8062  0.3868
43705SOL    HW137720   5.131  10.687   6.750  1.2548 -0.4474 -0.5656
43705SOL    HW237721   5.265  10.642   6.804  0.1969 -0.4165  2.2080
43706SOL     OW37722   2.312   1.913   7.463 -0.3605 -0.5274  0.2064
43706SOL    HW137723   2.243   1.968   7.425 -0.8387 -0.3650  1.2685
43706SOL    HW237724   2.294   1.913   7.557  2.0827  0.9588  0.7864
43707SOL     OW37725  12.007   5.520   3.304  0.2794  0.1218  0.3105
43707SOL    HW137726  12.086   5.499   3.254  0.0687 -1.6170  0.6464
43707SOL    HW237727  11.936   5.480   3.254 -0.0532 -0.7115  1.4150
43708SOL     OW37728   5.164  11.050   2.377  0.2396  0.4710 -0.1410
43708SOL    HW137729   5.119  11.108   2.317 -0.4686  0.5636  0.4596
43708SOL    HW237730   5.123  10.964   2.363  0.8499  0.2402 -0.5798
43709SOL     OW37731  11.782   0.683   0.964  0.1865  0.0728 -0.2210
43709SOL    HW137732  11.799   0.719   0.877  2.9033  0.8816  0.5300
43709SOL    HW237733  11.866   0.690   1.009 -1.5645  1.5930  3.1816
43710SOL     OW37734   3.557  12.067  12.234  0.6597  0.1375  0.1765
43710SOL    HW137735   3.538  12.132  12.166  1.9261  0.7581  0.3953
43710SOL    HW237736   3.587  12.118  12.309 -0.1849 -0.5775  1.0451
43711SOL     OW37737   0.999  10.143   5.140  0.4271 -0.6729  0.6434
43711SOL    HW137738   0.925  10.204   5.136  2.1304  1.5534  0.8639
43711SOL    HW237739   1.001  10.112   5.230  1.3737  1.4981  1.4334
43712SOL     OW37740   6.775   1.657   8.894  0.0385  0.3937  0.3106
43712SOL    HW137741   6.808   1.745   8.910  1.2965  0.4375 -2.1197
43712SOL    HW237742   6.802   1.636   8.805  1.3778 -3.1809  1.3769
43713SOL     OW37743   9.485   0.266   9.606 -0.2272 -0.2615  0.0057
43713SOL    HW137744   9.434   0.197   9.562  0.0631  0.6802 -1.8968
43713SOL    HW237745   9.574   0.232   9.608 -0.3749 -0.6459  0.6559
43714SOL     OW37746   9.359   7.972   0.693 -0.6688 -0.1032 -0.0492
43714SOL    HW137747   9.399   8.056   0.715 -0.9306 -0.0369  0.1899
43714SOL    HW237748   9.304   7.991   0.617  0.7708 -0.4813 -1.2126
43715SOL     OW37749   7.753   1.520   1.640  0.7382  0.1702  0.0038
43715SOL    HW137750   7.725   1.611   1.652  0.8303  0.0634  1.1259
43715SOL    HW237751   7.824   1.525   1.576  0.8628  0.9072  0.1947
43716SOL     OW37752   6.664   5.753   5.125 -0.3357 -0.2974 -0.5430
43716SOL    HW137753   6.604   5.691   5.167  0.5353 -1.1714 -0.5672
43716SOL    HW237754   6.744   5.749   5.179 -0.6996  1.7938  0.2542
43717SOL     OW37755   5.786  11.256   3.572 -0.7211 -0.6272 -0.9636
43717SOL    HW137756   5.799  11.221   3.660  1.5666 -1.7171 -1.6471
43717SOL    HW237757   5.775  11.350   3.586  0.3758 -0.6612  0.4855
43718SOL     OW37758   8.226   9.148   8.939  0.2395 -0.1358  0.0229
43718SOL    HW137759   8.145   9.100   8.922 -0.3227  0.7630  0.1195
43718SOL    HW237760   8.199   9.239   8.949  1.0013 -0.0812  2.0067
43719SOL     OW37761   5.594   3.643   5.025 -0.8907  0.1068  0.6071
43719SOL    HW137762   5.604   3.559   4.981  1.5383  1.5320 -1.9161
43719SOL    HW237763   5.684   3.667   5.051 -1.7593  1.1258  3.0231
43720SOL     OW37764   1.114   4.097   2.879 -0.2363  0.4656  0.6490
43720SOL    HW137765   1.051   4.113   2.949 -0.1997  0.0373  0.7844
43720SOL    HW237766   1.098   4.006   2.853 -0.8275  0.8669 -0.4849
43721SOL     OW37767   6.497   4.283   8.432  0.4233  0.6197  0.4285
43721SOL    HW137768   6.491   4.197   8.392 -1.0006  0.8131  0.1683
43721SOL    HW237769   6.546   4.269   8.512  1.7176 -0.1100 -0.4539
43722SOL     OW37770   2.150   8.514   5.198  0.7115  0.0104  0.1296
43722SOL    HW137771   2.205   8.479   5.128  0.4395  1.1489 -0.6814
43722SOL    HW237772   2.175   8.464   5.276  0.3088 -1.9830 -0.9677
43723SOL     OW37773   8.742  10.996  10.681  0.2603 -0.0948 -0.7436
43723SOL    HW137774   8.795  10.932  10.728  0.8506  0.0039 -1.2646
43723SOL    HW237775   8.764  10.982  10.588  1.2081  1.5706 -0.8012
43724SOL     OW37776   1.435   3.994   0.248 -0.0868 -0.4964 -0.9307
43724SOL    HW137777   1.472   3.931   0.186  0.3904  0.6629 -1.8568
43724SOL    HW237778   1.511   4.025   0.298 -0.4418 -1.2755  0.1205
43725SOL     OW37779   9.351  11.302  11.819  0.0012  0.4321  0.6743
43725SOL    HW137780   9.261  11.334  11.817 -0.4092 -0.6054  1.5681
43725SOL    HW237781   9.404  11.380  11.834 -0.6204  1.2370 -1.0592
43726SOL     OW37782  10.477  11.438   2.648 -0.1690  0.5195 -0.7534
43726SOL    HW137783  10.443  11.478   2.568 -1.5713 -1.1959 -1.0690
43726SOL    HW237784  10.483  11.345   2.628 -3.8008 -0.5298  2.1043
43727SOL     OW37785   0.801  12.558  10.812 -0.1348  0.2432  0.1193
43727SOL    HW137786   0.718  12.542  10.858  0.7549 -0.5613  1.5270
43727SOL    HW237787   0.817  12.478  10.762  1.4499 -1.1032  2.5927
43728SOL     OW37788   9.887   2.621   2.939  0.0251  0.2449  0.0747
43728SOL    HW137789   9.804   2.667   2.948 -0.8972 -1.3323  0.0621
43728SOL    HW237790   9.877   2.568   2.860  0.7479 -0.5335  0.4839
43729SOL     OW37791   0.121   5.702   8.713  0.0187 -0.3254  0.1140
43729SOL    HW137792   0.201   5.741   8.747  0.1980 -0.8110  0.2575
43729SOL    HW237793   0.151   5.634   8.652 -0.2876 -0.2737 -0.0995
43730SOL     OW37794   1.068   1.271  11.043  0.3181  0.7815 -0.4635
43730SOL    HW137795   1.037   1.311  10.962 -0.8639 -2.5314 -1.8323
43730SOL    HW237796   1.132   1.206  11.016 -0.3642 -0.6728  1.1919
43731SOL     OW37797   3.402   8.952  11.772  0.2936  0.1936 -0.0239
43731SOL    HW137798   3.344   9.013  11.725  1.2597  0.1322 -1.3580
43731SOL    HW237799   3.490   8.989  11.760  0.6886 -0.4263  0.8381
43732SOL     OW37800   3.723   1.250   4.853  0.0150  0.3812 -0.5426
43732SOL    HW137801   3.807   1.293   4.870 -0.0350  1.0741 -1.8628
43732SOL    HW237802   3.657   1.316   4.876 -0.2328 -0.4519  1.2946
43733SOL     OW37803   8.544   9.430   0.963 -0.6068  0.3696  0.1369
43733SOL    HW137804   8.500   9.513   0.946  1.3296  1.2390 -0.9344
43733SOL    HW237805   8.614   9.451   1.025 -1.1879 -0.8325  1.2523
43734SOL     OW37806   1.293   6.801   0.699  0.2669  0.1594  0.5409
43734SOL    HW137807   1.376   6.778   0.740 -0.2241 -1.4959  0.7081
43734SOL    HW237808   1.226   6.769   0.761 -0.4798 -1.5347 -1.0423
43735SOL     OW37809  10.854   1.791   5.371  0.7226  0.3874  0.3007
43735SOL    HW137810  10.761   1.776   5.359  0.9256  0.0829 -1.0794
43735SOL    HW237811  10.888   1.804   5.283  1.6213  2.8609  0.9368
43736SOL     OW37812   3.240  10.527   9.770  0.0144 -0.3614  0.6443
43736SOL    HW137813   3.171  10.543   9.706  0.2404 -4.3299 -0.8698
43736SOL    HW237814   3.296  10.605   9.765 -1.0601  0.3689 -2.5421
43737SOL     OW37815   8.210   6.468  10.930 -0.6361 -0.0852  0.0171
43737SOL    HW137816   8.227   6.382  10.891 -1.0868  0.1078 -0.6179
43737SOL    HW237817   8.294   6.494  10.967  0.0240  0.0553 -1.4954
43738SOL     OW37818   3.626   6.162   8.863  0.7655 -0.2105 -0.0639
43738SOL    HW137819   3.563   6.107   8.909  1.0244 -0.5552 -0.1109
43738SOL    HW237820   3.577   6.239   8.835  0.5949 -0.0197  0.7459
43739SOL     OW37821   6.359   5.932   1.073  0.1380 -0.2733 -0.1539
43739SOL    HW137822   6.312   5.939   0.990 -0.8726  0.1760  0.4394
43739SOL    HW237823   6.450   5.951   1.051 -0.0612 -0.5178 -1.2181
43740SOL     OW37824   8.941   0.071   2.989 -0.2295 -0.2146 -0.4299
43740SOL    HW137825   8.858   0.072   3.037 -1.3607  1.2344 -2.2604
43740SOL    HW237826   8.915   0.055   2.898  1.4222  0.9640 -1.1485
43741SOL     OW37827   2.130  11.676  12.504 -0.5984  0.0923 -0.8700
43741SOL    HW137828   2.074  11.753  12.488  1.9196  2.4805  0.8588
43741SOL    HW237829   2.184  11.670  12.425  0.5724  1.4815 -0.2327
43742SOL     OW37830  11.364  12.751   3.619  0.2733 -0.4822  0.1191
43742SOL    HW137831  11.378  12.693   3.545 -0.3354 -0.2443 -0.1868
43742SOL    HW237832  11.298  12.706   3.672 -0.3697  0.0297 -0.2365
43743SOL     OW37833   3.311   3.330   2.381  0.4671 -0.0867 -0.6135
43743SOL    HW137834   3.268   3.245   2.390 -0.5693  0.4400 -0.4170
43743SOL    HW237835   3.242   3.394   2.398  0.8885  0.8342 -2.1465
43744SOL     OW37836   5.166   5.305   3.639  0.1289  0.6791  0.2375
43744SOL    HW137837   5.173   5.249   3.562 -0.8684  0.3799  0.3418
43744SOL    HW237838   5.228   5.268   3.701  0.5675  0.6092 -0.2365
43745SOL     OW37839   6.485   9.971  10.973  0.5835  0.3113 -0.0937
43745SOL    HW137840   6.408  10.027  10.958  0.4737  0.1103 -0.2700
43745SOL    HW237841   6.454   9.883  10.955  0.2530 -0.0316  1.9022
43746SOL     OW37842   8.988   0.884   6.263 -0.1844  0.5026 -0.4185
43746SOL    HW137843   8.954   0.807   6.310 -0.5984 -1.2170 -3.3045
43746SOL    HW237844   8.917   0.911   6.205  0.4782  2.1927 -0.5038
43747SOL     OW37845  12.578   9.586   4.531  0.1564  0.2590 -0.2349
43747SOL    HW137846  12.537   9.660   4.486 -0.1563  0.6687  0.6970
43747SOL    HW237847  12.530   9.579   4.614  0.0615 -1.1102 -0.3894
43748SOL     OW37848   3.642  10.655   4.185 -0.3587 -0.5807  0.1932
43748SOL    HW137849   3.720  10.692   4.144 -0.6242 -0.1351  0.0879
43748SOL    HW237850   3.677  10.596   4.252  0.0808  0.3530  0.8134
43749SOL     OW37851   4.850  11.008   9.893  0.2612 -0.3259  0.3830
43749SOL    HW137852   4.840  10.935   9.953 -0.2015  0.6148  1.5053
43749SOL    HW237853   4.912  11.067   9.935  0.1873  0.2027 -0.2124
43750SOL     OW37854  12.644   5.689   8.736  0.4741  0.8076 -1.0919
43750SOL    HW137855  12.624   5.728   8.650 -0.0654  0.3172 -1.2006
43750SOL    HW237856  12.739   5.682   8.737  0.5151  1.2216 -1.4731
43751SOL     OW37857   3.254   7.162  10.026 -0.3361 -0.6381 -0.0905
43751SOL    HW137858   3.218   7.171   9.938 -1.9485 -0.5397  0.5369
43751SOL    HW237859   3.340   7.204  10.022 -1.5231  1.9086 -0.9386
43752SOL     OW37860  10.247  12.726  11.073  0.1780 -0.0886  0.0223
43752SOL    HW137861  10.173  12.783  11.096  2.2209  2.8389 -0.2406
43752SOL    HW237862  10.301  12.723  11.152 -0.1386 -2.2667  0.2389
43753SOL     OW37863   7.598  11.592   2.708  0.5150  0.3339 -0.4810
43753SOL    HW137864   7.532  11.553   2.765 -0.0225  1.3680 -0.3783
43753SOL    HW237865   7.548  11.628   2.635  0.9302  1.3346 -0.2812
43754SOL     OW37866   5.149   5.042   4.490 -0.0917  0.2375  0.6062
43754SOL    HW137867   5.080   4.991   4.447  1.1797 -1.8539  0.9423
43754SOL    HW237868   5.183   5.099   4.421 -0.0427 -0.9763 -0.3953
43755SOL     OW37869   5.351   3.885   2.578 -0.1073  0.5811 -0.1081
43755SOL    HW137870   5.414   3.820   2.607 -1.6607 -1.6057 -1.3130
43755SOL    HW237871   5.386   3.918   2.496 -0.1176 -0.0328 -0.3654
43756SOL     OW37872   0.323   0.745   8.445 -0.0132  0.3506  0.2465
43756SOL    HW137873   0.252   0.712   8.389  0.6909  0.6364 -0.8523
43756SOL    HW237874   0.403   0.725   8.397  0.5670  1.4272  0.7155
43757SOL     OW37875   5.804  10.879  11.763 -0.2856 -0.1724  0.4817
43757SOL    HW137876   5.765  10.799  11.730 -0.9683 -0.0759  1.0345
43757SOL    HW237877   5.836  10.924  11.685  1.0573 -1.4611  0.2529
43758SOL     OW37878   6.249   3.714   9.167 -0.3765  0.0123 -0.1497
43758SOL    HW137879   6.312   3.709   9.239  0.1230 -2.1596 -0.6334
43758SOL    HW237880   6.290   3.772   9.103  0.7033 -0.5584 -0.0045
43759SOL     OW37881   5.224  12.600  11.749 -0.0058 -0.2170 -0.5665
43759SOL    HW137882   5.183  12.612  11.663  0.5259 -2.1585 -1.1419
43759SOL    HW237883   5.164  12.544  11.797  0.3095 -0.1933 -0.1387
43760SOL     OW37884  10.669   7.696  10.836 -0.0089 -0.0539 -0.2867
43760SOL    HW137885  10.613   7.754  10.784  0.1542  0.7809  0.4452
43760SOL    HW237886  10.758   7.725  10.816  0.0219  0.9984  1.2522
43761SOL     OW37887   2.251   3.636  11.185 -0.1094  0.0094 -0.1737
43761SOL    HW137888   2.185   3.677  11.240 -0.4386  0.0752 -0.6145
43761SOL    HW237889   2.226   3.659  11.096 -0.6735 -1.6597 -0.4781
43762SOL     OW37890   8.313   7.388   8.583 -0.0615  0.2609  0.4155
43762SOL    HW137891   8.265   7.310   8.556 -0.5667  0.4662  0.6968
43762SOL    HW237892   8.317   7.443   8.505  0.3790 -0.0828  0.1911
43763SOL     OW37893  12.006  10.545   2.473  0.5177 -0.0611  0.6555
43763SOL    HW137894  12.076  10.495   2.431  0.3289  0.5155 -0.3940
43763SOL    HW237895  11.999  10.624   2.419 -2.5874 -1.1767 -0.7873
43764SOL     OW37896  11.998   3.357   1.895 -0.1213  0.1992 -0.1153
43764SOL    HW137897  12.005   3.422   1.825  1.5109 -0.6907 -0.8355
43764SOL    HW237898  11.996   3.408   1.976 -3.1898  1.3351 -0.7338
43765SOL     OW37899   3.121   7.660   5.371  0.4255  0.1251  0.1080
43765SOL    HW137900   3.132   7.754   5.385  1.3078  0.1306 -0.4863
43765SOL    HW237901   3.030   7.642   5.393 -0.1531  1.3740 -1.0900
43766SOL     OW37902  10.891  12.045   4.468 -0.6943  0.0017  0.7758
43766SOL    HW137903  10.806  12.007   4.448 -1.3768  2.1610 -0.8575
43766SOL    HW237904  10.873  12.110   4.536 -0.4021  0.4998  0.3898
43767SOL     OW37905   4.582   1.318   8.056  0.2198  0.2492  0.0105
43767SOL    HW137906   4.675   1.332   8.076 -0.3044  1.8874  1.4389
43767SOL    HW237907   4.584   1.261   7.979  2.4178  0.6404 -0.3080
43768SOL     OW37908   7.051   6.317   8.724 -0.0887  0.3504 -0.5943
43768SOL    HW137909   7.025   6.335   8.633 -2.1025  1.0528  0.0654
43768SOL    HW237910   6.993   6.247   8.752  0.3278  0.3339  0.2440
43769SOL     OW37911   0.810   0.497   3.553 -0.6426 -0.8703  0.0216
43769SOL    HW137912   0.815   0.454   3.639 -0.6882 -0.4221  0.2512
43769SOL    HW237913   0.743   0.564   3.564  0.5371  0.3400  0.1582
43770SOL     OW37914   6.817  10.077   9.883  0.1224 -0.2971 -0.4506
43770SOL    HW137915   6.740  10.047   9.932  0.6730 -2.3056 -0.7128
43770SOL    HW237916   6.886  10.086   9.949 -0.1901  1.0617 -0.2839
43771SOL     OW37917   3.003   0.616   0.986  0.0916 -0.3350 -0.0088
43771SOL    HW137918   3.013   0.698   1.035 -2.3111 -1.0050  1.7598
43771SOL    HW237919   3.079   0.564   1.012  0.2136  0.3029  0.9795
43772SOL     OW37920  10.517   5.671  12.420 -0.0852  0.4307  0.7865
43772SOL    HW137921  10.444   5.615  12.396  0.3364  0.6005 -1.0062
43772SOL    HW237922  10.538   5.646  12.510 -2.6313  0.7242  1.5455
43773SOL     OW37923   6.550   8.011   2.679 -0.1234  0.2256 -0.1998
43773SOL    HW137924   6.539   8.103   2.656 -2.2369  0.1699  0.3471
43773SOL    HW237925   6.462   7.974   2.669  0.5802 -1.6137  0.1119
43774SOL     OW37926   2.078   5.635  11.897  0.0534  0.3118 -0.6635
43774SOL    HW137927   2.078   5.668  11.807 -1.1469  2.4168  0.0334
43774SOL    HW237928   2.009   5.569  11.899 -1.2056  1.5899 -0.8805
43775SOL     OW37929  11.522   2.221   8.792 -0.0768 -0.3713  0.4715
43775SOL    HW137930  11.521   2.317   8.794  1.6303 -0.2202 -1.8537
43775SOL    HW237931  11.612   2.198   8.768 -0.1972 -2.6346  1.8611
43776SOL     OW37932   1.331   6.066   3.024  0.0236 -0.7050 -0.0108
43776SOL    HW137933   1.406   6.041   2.970 -1.2228 -1.1917 -1.5838
43776SOL    HW237934   1.266   5.997   3.008 -1.2773  0.4267  0.2316
43777SOL     OW37935   9.743   8.039  10.197 -0.1503 -0.3266 -0.0211
43777SOL    HW137936   9.804   7.970  10.225  0.0371 -0.0531  0.2503
43777SOL    HW237937   9.661   8.018  10.242  0.5414  0.9446  1.9899
43778SOL     OW37938   6.184   9.870   9.876  0.2250 -0.4025  0.1850
43778SOL    HW137939   6.220   9.955   9.851  2.7478 -1.8029 -1.3122
43778SOL    HW237940   6.186   9.818   9.796 -0.5725 -2.1227  1.2219
43779SOL     OW37941  12.294  11.950   9.138 -0.3329  0.4933  0.1197
43779SOL    HW137942  12.353  12.021   9.162 -0.5488  0.6282  0.2578
43779SOL    HW237943  12.349  11.887   9.091 -0.3720  1.2969 -1.0522
43780SOL     OW37944  11.610  11.968  10.775  0.0529 -0.2993 -0.1946
43780SOL    HW137945  11.628  12.043  10.832 -1.4681 -0.1679  0.1430
43780SOL    HW237946  11.695  11.925  10.766  0.6982  0.7304  0.6525
43781SOL     OW37947   4.237   1.719  10.013 -0.0598 -0.0940 -0.8180
43781SOL    HW137948   4.222   1.668  10.092  0.9311 -2.5200 -2.0973
43781SOL    HW237949   4.150   1.739   9.979 -0.4681  0.1060  0.3211
43782SOL     OW37950   0.962  12.340   2.743  0.3442  0.1446 -0.3968
43782SOL    HW137951   0.904  12.301   2.677 -0.1593  0.1356  0.0403
43782SOL    HW237952   0.968  12.273   2.811 -0.1577  0.6489  0.1500
43783SOL     OW37953   6.927   4.755  10.001  0.8170 -0.0678  0.3104
43783SOL    HW137954   6.881   4.838  10.011 -0.1032 -0.5317  0.1321
43783SOL    HW237955   7.017   4.773  10.029  0.0399  0.3709  2.8099
43784SOL     OW37956   2.800  10.040   2.960 -0.5622  0.2336  0.1047
43784SOL    HW137957   2.765   9.990   2.887 -1.6549  1.8256 -0.4995
43784SOL    HW237958   2.723  10.071   3.008  0.1187  0.1425  1.3181
43785SOL     OW37959   6.119   0.401   2.806 -0.2578 -0.1217 -0.1014
43785SOL    HW137960   6.159   0.353   2.733 -0.7741 -0.4081 -0.2051
43785SOL    HW237961   6.116   0.492   2.777  0.0663 -0.1415 -0.2007
43786SOL     OW37962   2.075  12.758   8.820  0.7860  0.2872 -0.6845
43786SOL    HW137963   2.003  12.697   8.836 -0.9118  1.9689 -1.5397
43786SOL    HW237964   2.109  12.778   8.907 -0.4354  0.1987 -0.1679
43787SOL     OW37965  11.708  11.927   4.284  0.0266 -0.1993  0.1645
43787SOL    HW137966  11.641  11.860   4.271  0.0288 -0.2526  0.4119
43787SOL    HW237967  11.756  11.931   4.202  0.3105 -0.8207  0.2988
43788SOL     OW37968   3.877   9.737   0.416 -0.4744 -0.1747 -0.3244
43788SOL    HW137969   3.794   9.713   0.458 -0.3001  0.1294  0.2113
43788SOL    HW237970   3.851   9.795   0.345 -0.7758 -0.6913 -0.6398
43789SOL     OW37971   4.710  10.394   1.070 -0.3675 -0.4220  0.0153
43789SOL    HW137972   4.738  10.483   1.048 -1.6088  0.0834  0.3457
43789SOL    HW237973   4.780  10.338   1.039  0.4711  0.6831 -0.1473
43790SOL     OW37974   3.928   5.708   9.082  0.3828 -0.0203 -0.2097
43790SOL    HW137975   3.916   5.752   9.166 -1.2173 -0.7218 -0.0321
43790SOL    HW237976   3.843   5.716   9.039  1.2309  0.5123 -1.8741
43791SOL     OW37977   0.713   8.691   9.474  0.3954  0.1727  0.1075
43791SOL    HW137978   0.718   8.731   9.560  2.0571  0.8547 -0.2677
43791SOL    HW237979   0.770   8.613   9.480  0.4794  0.1944 -0.3478
43792SOL     OW37980   4.013   7.099   6.413  0.4246 -0.1112 -0.5521
43792SOL    HW137981   3.969   7.166   6.360  0.3013 -0.1575 -0.5087
43792SOL    HW237982   4.102   7.133   6.425  0.9372 -0.8250 -2.0854
43793SOL     OW37983   8.765   5.465   0.846 -0.2071  0.8061 -0.2733
43793SOL    HW137984   8.719   5.549   0.843  0.1667  1.0567  0.5653
43793SOL    HW237985   8.839   5.477   0.785  0.5079  1.5142  0.6996
43794SOL     OW37986   7.218  11.999   4.639 -0.7428 -0.0929  0.4231
43794SOL    HW137987   7.167  11.920   4.622  1.5144 -1.0742 -2.6708
43794SOL    HW237988   7.242  11.993   4.731 -2.8528 -1.5607  0.9556
43795SOL     OW37989   6.999   7.208   8.144  0.1360  0.3777  0.3901
43795SOL    HW137990   7.046   7.231   8.064 -0.6555  0.6596 -0.0027
43795SOL    HW237991   7.009   7.284   8.201 -1.5393  1.3010 -0.4821
43796SOL     OW37992   1.892   9.481   4.149 -0.8533 -0.0489  0.5994
43796SOL    HW137993   1.800   9.504   4.164 -0.4857  1.4782  0.7071
43796SOL    HW237994   1.941   9.557   4.181  0.4645 -0.8878  0.6590
43797SOL     OW37995   4.622   4.351  10.635  0.3429 -0.1957  0.4791
43797SOL    HW137996   4.692   4.381  10.693  0.0247  0.5289  0.5027
43797SOL    HW237997   4.565   4.427  10.625  1.0907  0.1396 -1.8199
43798SOL     OW37998   2.202   8.298   9.672 -0.1233  0.2904  0.2591
43798SOL    HW137999   2.210   8.214   9.718 -0.4065  1.7645  3.2559
43798SOL    HW238000   2.292   8.320   9.647  0.2571 -0.0057  1.2891
43799SOL     OW38001   9.663  10.203   0.263  0.7582  0.1522 -0.0403
43799SOL    HW138002   9.755  10.185   0.241  0.0012 -2.2243 -1.6841
43799SOL    HW238003   9.624  10.233   0.181 -0.3152 -0.6256  0.1657
43800SOL     OW38004   4.305   5.083   6.001  0.0484  0.1096 -0.6925
43800SOL    HW138005   4.336   5.110   5.915  0.5850  1.8870  0.0080
43800SOL    HW238006   4.317   5.161   6.056  0.7601 -1.3089  1.2580
43801SOL     OW38007   5.751   5.371  11.037 -0.5090  0.5581  0.3457
43801SOL    HW138008   5.777   5.460  11.058  2.2887 -0.4279  1.5774
43801SOL    HW238009   5.694   5.345  11.110 -3.7364  2.1019 -1.3992
43802SOL     OW38010   9.646   3.154   3.686 -0.2489  0.1289 -0.6593
43802SOL    HW138011   9.689   3.081   3.730 -3.3892 -3.3149 -2.7536
43802SOL    HW238012   9.621   3.213   3.758  1.8798 -1.0549  1.2074
43803SOL     OW38013   8.223   4.397   7.747  0.1866  0.4473  0.0046
43803SOL    HW138014   8.312   4.366   7.762  0.2838  0.4025 -0.6413
43803SOL    HW238015   8.201   4.445   7.826  0.3465 -0.5482  0.6789
43804SOL     OW38016   2.698   9.282   2.490 -0.5694 -0.2059  0.1606
43804SOL    HW138017   2.793   9.281   2.500 -0.7373 -0.3278  2.0446
43804SOL    HW238018   2.673   9.374   2.500 -0.7512 -0.3382  1.0059
43805SOL     OW38019  11.091   8.223   9.493  0.1643 -0.2679 -0.2210
43805SOL    HW138020  11.073   8.157   9.426  0.1375  1.6948 -2.2496
43805SOL    HW238021  11.012   8.276   9.496  0.7231  0.5534  0.2868
43806SOL     OW38022   1.765  12.566   2.912 -0.4728 -0.0269 -0.5141
43806SOL    HW138023   1.827  12.639   2.906  0.2876 -0.6167  0.1732
43806SOL    HW238024   1.798  12.511   2.982 -0.1866 -1.8501 -2.0006
43807SOL     OW38025  12.784   0.630   2.794 -0.2522  0.7594 -0.4386
43807SOL    HW138026  12.847   0.652   2.863  0.3516 -1.9486  0.0125
43807SOL    HW238027  12.813   0.544   2.763 -1.9177  0.8632 -2.4401
43808SOL     OW38028   9.955   9.568   9.950  0.1714 -0.0292  0.0112
43808SOL    HW138029  10.004   9.525  10.021  0.6105  0.3448 -0.0585
43808SOL    HW238030  10.020   9.624   9.907 -0.1691 -0.0110 -0.4898
43809SOL     OW38031   9.839  12.359  11.813 -0.3768 -0.0580  0.2512
43809SOL    HW138032   9.853  12.284  11.872 -0.0218  0.8902  1.4171
43809SOL    HW238033   9.926  12.400  11.805 -0.4329 -0.1332 -0.9045
43810SOL     OW38034   6.020  10.829   1.132 -0.2484  0.2309  0.5984
43810SOL    HW138035   6.013  10.776   1.053 -0.2356  0.1197  0.6719
43810SOL    HW238036   5.971  10.909   1.112  0.4617  0.5634  0.1771
43811SOL     OW38037   6.442   2.750   9.954 -0.7374  0.0688  0.9811
43811SOL    HW138038   6.496   2.750  10.032  1.3689 -2.6593 -0.3247
43811SOL    HW238039   6.503   2.757   9.881 -2.1022 -2.3448 -0.5499
43812SOL     OW38040   2.529   2.923   1.992  0.6468 -0.2953  0.1982
43812SOL    HW138041   2.452   2.872   1.971  1.0605 -0.1774 -1.7994
43812SOL    HW238042   2.601   2.860   1.994  1.1100  0.0873 -1.9769
43813SOL     OW38043   5.481   9.061  10.081 -0.4225 -0.5007  0.1231
43813SOL    HW138044   5.460   8.974  10.114  0.0384  0.2538  2.5963
43813SOL    HW238045   5.397   9.108  10.082 -0.4122 -0.4841  0.2025
43814SOL     OW38046   0.433  12.010   3.818 -0.8844 -0.4052  0.3494
43814SOL    HW138047   0.337  12.017   3.817 -0.8895 -0.4925 -0.2734
43814SOL    HW238048   0.462  12.094   3.852 -1.1657 -0.1364 -0.0677
43815SOL     OW38049   8.234  10.161   3.574  0.0464 -1.0571  0.2624
43815SOL    HW138050   8.167  10.182   3.639 -1.7004 -0.0288 -1.7605
43815SOL    HW238051   8.317  10.180   3.618 -1.1280  1.6884  1.4882
43816SOL     OW38052   3.900   0.107   6.577  0.3240  0.3671 -0.0322
43816SOL    HW138053   3.866   0.135   6.492 -0.6279 -0.7576 -0.0407
43816SOL    HW238054   3.958   0.034   6.556 -1.4349 -1.2076  0.4160
43817SOL     OW38055   6.723   6.743   0.008 -0.2359 -0.6543  0.0268
43817SOL    HW138056   6.717   6.647   0.016 -0.8908 -0.6453 -0.2373
43817SOL    HW238057   6.675   6.762  -0.073 -0.5781 -0.0530  0.3684
43818SOL     OW38058  12.427  12.683  11.463  0.1926  0.1979 -0.3380
43818SOL    HW138059  12.497  12.620  11.444 -0.3523 -0.7633  0.7163
43818SOL    HW238060  12.393  12.655  11.548  2.3938  4.0604  2.1550
43819SOL     OW38061   2.155   5.379   3.290 -0.4197  0.2800 -0.3114
43819SOL    HW138062   2.150   5.301   3.234  0.5146  1.5139 -2.2433
43819SOL    HW238063   2.248   5.394   3.303 -0.6190  0.0990  1.5420
43820SOL     OW38064   1.155   9.011   7.484 -0.2717 -0.0028 -0.0128
43820SOL    HW138065   1.084   9.058   7.529  1.6212  1.5820  1.4557
43820SOL    HW238066   1.176   8.938   7.543  1.5325  1.4978  1.3174
43821SOL     OW38067   5.459   2.254  11.040 -0.5469 -0.3297 -0.1705
43821SOL    HW138068   5.385   2.227  10.985 -1.7709  1.0364  0.7390
43821SOL    HW238069   5.533   2.204  11.006 -1.6572 -0.9682 -1.7949
43822SOL     OW38070   4.426   5.988  12.309 -0.2178 -0.3872  0.9279
43822SOL    HW138071   4.409   6.079  12.287 -0.5305 -0.4604  0.8590
43822SOL    HW238072   4.416   5.984  12.405 -0.8641 -0.4828  0.8621
43823SOL     OW38073   5.511   4.831  11.200 -1.0643  0.9082  0.2641
43823SOL    HW138074   5.543   4.910  11.156  2.9529  0.1059  1.2670
43823SOL    HW238075   5.470   4.780  11.131  1.7369  1.2959 -1.8974
43824SOL     OW38076  10.656   2.112   5.271 -0.3613 -0.2416  0.5851
43824SOL    HW138077  10.653   2.157   5.186 -2.6361 -0.8996  0.2679
43824SOL    HW238078  10.661   2.019   5.249  0.6613 -0.3624  1.2261
43825SOL     OW38079   6.507   0.732   8.691 -0.2585 -0.1820  0.4053
43825SOL    HW138080   6.544   0.655   8.732  1.1723 -1.1338 -2.4014
43825SOL    HW238081   6.412   0.717   8.692 -0.1385 -0.9293  1.7756
43826SOL     OW38082   4.027   1.120   7.236 -0.2540 -0.2646  0.1639
43826SOL    HW138083   3.964   1.109   7.307 -0.9021  1.5939 -0.0712
43826SOL    HW238084   4.077   1.198   7.260  1.9348 -1.6247  0.2908
43827SOL     OW38085   0.416   3.137   6.887  0.0411 -0.8526 -0.0039
43827SOL    HW138086   0.438   3.111   6.798  0.0562 -2.3505  0.4029
43827SOL    HW238087   0.486   3.101   6.941 -1.3745 -2.4368  0.8956
43828SOL     OW38088   1.766  11.672   8.843 -0.4521  0.3330  0.3455
43828SOL    HW138089   1.732  11.729   8.773 -0.8126  0.1757  0.3909
43828SOL    HW238090   1.818  11.731   8.898 -0.8278  0.6223  0.3965
43829SOL     OW38091  10.593   6.293  10.653  0.8523  0.3719 -0.4674
43829SOL    HW138092  10.534   6.268  10.725  0.3819 -1.6681 -1.4684
43829SOL    HW238093  10.641   6.369  10.686 -0.5091  0.5053  1.3639
43830SOL     OW38094   6.041   6.127   2.714  0.5022 -0.5264  0.1763
43830SOL    HW138095   6.097   6.153   2.642 -0.6486 -0.3267 -0.6807
43830SOL    HW238096   6.070   6.181   2.788  2.0849 -1.1597  0.0559
43831SOL     OW38097   3.814   5.904   1.967  0.1484 -0.3808  0.3056
43831SOL    HW138098   3.897   5.872   1.932 -0.0345  0.7704 -1.3307
43831SOL    HW238099   3.780   5.832   2.020  1.8291 -1.1338  0.3969
43832SOL     OW38100  10.406   4.192  10.237 -0.0909  0.0783 -0.0666
43832SOL    HW138101  10.314   4.171  10.254  0.0223 -0.2203  0.1851
43832SOL    HW238102  10.402   4.263  10.174 -0.4838 -0.4428 -0.6443
43833SOL     OW38103   8.633   6.759   0.654 -0.0805  0.3740 -0.2521
43833SOL    HW138104   8.571   6.707   0.704 -0.0635  0.9114  0.3421
43833SOL    HW238105   8.669   6.821   0.718 -0.7729  1.7219 -1.1299
43834SOL     OW38106  12.561  10.213   6.874  0.4557 -0.5794 -0.5268
43834SOL    HW138107  12.603  10.128   6.858  0.6610 -0.8161  1.1326
43834SOL    HW238108  12.589  10.267   6.800 -0.3654 -2.1753 -2.0861
43835SOL     OW38109   8.674  12.109  12.370  0.1588 -0.1159  0.0587
43835SOL    HW138110   8.637  12.186  12.414  1.7330  0.6754  0.0938
43835SOL    HW238111   8.627  12.035  12.408 -0.1889  0.7062  1.3301
43836SOL     OW38112   3.224   4.050   2.739 -0.3009 -0.3883 -0.4005
43836SOL    HW138113   3.230   4.134   2.692 -1.1227  1.0017  1.8140
43836SOL    HW238114   3.130   4.034   2.747 -0.1676 -0.8707  0.2616
43837SOL     OW38115   9.934   6.898   9.359 -0.2976 -0.3021 -0.1639
43837SOL    HW138116   9.996   6.913   9.288  1.2509 -0.6260  1.0544
43837SOL    HW238117   9.855   6.946   9.334 -0.2513 -1.3846 -2.6550
43838SOL     OW38118   4.363   8.906   7.512  0.6988  0.4775  0.8753
43838SOL    HW138119   4.343   8.814   7.493  0.2972  0.4872  1.2152
43838SOL    HW238120   4.429   8.902   7.581  0.9303  0.4416  0.6498
43839SOL     OW38121   5.073  11.463  10.624 -0.2570 -0.2703  0.7950
43839SOL    HW138122   4.999  11.415  10.660 -1.1140  1.2537  1.1658
43839SOL    HW238123   5.033  11.531  10.569  0.7678  1.3131  1.9173
43840SOL     OW38124   1.443   0.564   4.148  0.2168  0.1114 -0.0521
43840SOL    HW138125   1.410   0.585   4.061  0.5207 -0.8735 -0.4264
43840SOL    HW238126   1.433   0.469   4.155 -0.2793  0.2327  1.1963
43841SOL     OW38127   2.223   6.366   0.723  0.2713 -0.2995 -0.0306
43841SOL    HW138128   2.187   6.283   0.694 -1.4542  0.7539 -1.0387
43841SOL    HW238129   2.307   6.373   0.678  0.6861 -1.7045  0.4720
43842SOL     OW38130  12.730   2.842   2.818 -0.2467 -0.1355 -0.3000
43842SOL    HW138131  12.818   2.818   2.846 -0.0718  1.0279  0.2196
43842SOL    HW238132  12.675   2.825   2.895 -0.2376  0.3851 -0.1700
43843SOL     OW38133   0.603  10.173   5.035  0.2961 -0.0299  0.1374
43843SOL    HW138134   0.533  10.220   4.990  1.6933  0.8411 -1.2355
43843SOL    HW238135   0.681  10.224   5.017  1.1240 -0.2078  2.7629
43844SOL     OW38136   5.445  10.072   5.506  0.5915  0.5195  0.5076
43844SOL    HW138137   5.418  10.062   5.597 -0.6694  2.2851  0.3730
43844SOL    HW238138   5.388  10.011   5.458 -0.0468  0.9210  0.7306
43845SOL     OW38139   9.388   4.767   0.234 -0.3756  0.1265  0.8979
43845SOL    HW138140   9.338   4.819   0.297  2.0369  4.2624 -0.1717
43845SOL    HW238141   9.340   4.775   0.152  0.0781  0.9840  0.6947
43846SOL     OW38142  10.508   6.723   8.646 -0.8444 -0.0344  0.1419
43846SOL    HW138143  10.416   6.747   8.654 -0.9831 -0.1500 -0.9846
43846SOL    HW238144  10.548   6.796   8.598 -0.4127 -0.1345  0.3430
43847SOL     OW38145  11.636  12.045   4.936  0.2203  0.3225  0.2743
43847SOL    HW138146  11.542  12.057   4.934  0.0523 -0.7531  0.9306
43847SOL    HW238147  11.671  12.120   4.888 -0.9561  0.7671  0.0838
43848SOL     OW38148  10.930   2.594   1.160  0.9357 -0.5686  0.2891
43848SOL    HW138149  10.950   2.642   1.080  0.9674  0.6063  0.9788
43848SOL    HW238150  10.836   2.576   1.154  1.0380 -0.9469 -0.2465
43849SOL     OW38151   4.457   2.884   7.379  0.1017  0.4581 -1.2727
43849SOL    HW138152   4.402   2.813   7.411 -0.1956  0.9965 -0.5443
43849SOL    HW238153   4.538   2.841   7.350  0.0999 -0.1349 -0.4431
43850SOL     OW38154   2.940   3.054   1.661 -0.0550 -0.2064 -0.5073
43850SOL    HW138155   3.024   3.012   1.641  0.5039 -0.0287  1.3482
43850SOL    HW238156   2.962   3.145   1.679 -0.3830 -0.4863  1.5124
43851SOL     OW38157  12.520  12.570   3.281  0.1095  0.3472  0.1648
43851SOL    HW138158  12.454  12.566   3.212  1.1095  0.2234 -0.8127
43851SOL    HW238159  12.501  12.495   3.337  1.0393 -1.3271 -1.6481
43852SOL     OW38160  12.235   0.616   0.045 -0.2688  0.4724  0.3621
43852SOL    HW138161  12.308   0.603  -0.016  0.3885 -2.6908  1.6614
43852SOL    HW238162  12.187   0.691   0.008  1.0272 -0.1848 -3.0782
43853SOL     OW38163   6.271   2.991   0.438 -0.4329 -0.2839 -0.3662
43853SOL    HW138164   6.185   3.009   0.401 -0.8082 -3.1979 -1.2018
43853SOL    HW238165   6.320   2.950   0.366  1.0443 -0.2595  0.5806
43854SOL     OW38166   4.202   9.794   8.567 -0.2488 -0.0387 -1.2087
43854SOL    HW138167   4.203   9.879   8.524 -0.9689 -0.4369 -2.0416
43854SOL    HW238168   4.111   9.781   8.594  0.0489 -0.1181 -0.2011
43855SOL     OW38169   0.068   2.326   2.277  0.0216 -0.2327 -0.8503
43855SOL    HW138170   0.121   2.401   2.250 -0.0052 -0.1113 -0.5675
43855SOL    HW238171   0.019   2.302   2.198 -0.5671  0.5433 -0.7429
43856SOL     OW38172   2.884   8.897   9.612 -0.3555 -0.5342  0.8834
43856SOL    HW138173   2.837   8.977   9.587  1.6766  0.0663 -1.4322
43856SOL    HW238174   2.873   8.892   9.707 -1.7719  1.6922  0.9264
43857SOL     OW38175   2.886  12.466   3.868  0.0614 -0.1526  0.0536
43857SOL    HW138176   2.869  12.376   3.840 -1.1471  0.4022 -1.1084
43857SOL    HW238177   2.975  12.464   3.903  0.1578 -1.7363 -0.2159
43858SOL     OW38178   9.643   7.231   4.661  0.3267  0.2688  0.9195
43858SOL    HW138179   9.718   7.275   4.622  0.2105 -0.7505 -0.5089
43858SOL    HW238180   9.567   7.270   4.619  0.2498 -1.8069 -1.0063
43859SOL     OW38181   5.823   4.486   5.573 -0.0733  0.2644 -0.3439
43859SOL    HW138182   5.900   4.449   5.529 -0.4230 -0.0279 -0.7141
43859SOL    HW238183   5.755   4.486   5.506 -0.1173  1.4942 -0.3310
43860SOL     OW38184   7.670   2.869   3.042  0.2650  0.0059  0.0446
43860SOL    HW138185   7.739   2.818   2.999  0.4081 -0.5215  0.8998
43860SOL    HW238186   7.712   2.905   3.120 -0.1469  0.5324  0.0284
43861SOL     OW38187   7.494  11.921   9.318 -0.3952  0.5961  0.5170
43861SOL    HW138188   7.407  11.955   9.341 -1.1489 -0.3213 -0.8602
43861SOL    HW238189   7.554  11.972   9.372 -1.8133  0.8942  1.9022
43862SOL     OW38190   9.355   5.968   0.622  0.5273 -0.1841  0.5568
43862SOL    HW138191   9.449   5.962   0.604  0.3304 -0.9040 -0.2909
43862SOL    HW238192   9.350   5.997   0.713  1.5704  0.3149  0.4703
43863SOL     OW38193  11.992   6.847  10.559 -0.5324  0.6969  0.0440
43863SOL    HW138194  11.927   6.882  10.498  1.2697  0.5017 -2.0957
43863SOL    HW238195  11.956   6.867  10.646 -2.8597  1.6133 -1.0361
43864SOL     OW38196   7.151  11.659   9.599 -0.0517  0.1345 -0.4825
43864SOL    HW138197   7.126  11.584   9.545 -0.1488  0.3595 -0.7494
43864SOL    HW238198   7.243  11.674   9.580 -0.0821  0.2046 -0.5760
43865SOL     OW38199   2.114   1.024   6.978 -0.3156  0.3325  0.6691
43865SOL    HW138200   2.037   1.058   6.932  0.6262  0.5459 -0.8145
43865SOL    HW238201   2.092   0.933   6.999 -0.2411 -0.2551 -1.5811
43866SOL     OW38202   8.486   2.961  10.194 -0.7905  0.0497 -0.1189
43866SOL    HW138203   8.560   3.020  10.180 -0.6348 -0.2300 -0.4632
43866SOL    HW238204   8.439   2.961  10.111 -1.2356  0.2990  0.1233
43867SOL     OW38205   5.979   5.942  11.011 -0.4571  0.1339 -0.6307
43867SOL    HW138206   6.012   5.870  10.956 -1.4127 -0.9104  0.1130
43867SOL    HW238207   6.049   5.958  11.074 -1.0979 -1.7962  0.6880
43868SOL     OW38208  11.972   5.100   7.499 -0.3298  0.5994  0.1204
43868SOL    HW138209  12.028   5.082   7.424 -0.5861  0.3693 -0.0141
43868SOL    HW238210  11.942   5.189   7.485 -2.0654 -0.1377 -1.1408
43869SOL     OW38211   9.880   9.148   7.523 -0.1015  0.2399  0.9074
43869SOL    HW138212   9.811   9.206   7.493  0.5989 -0.0440 -1.4426
43869SOL    HW238213   9.951   9.160   7.460  0.5371 -2.2385  1.0311
43870SOL     OW38214  10.754  12.523  10.384 -0.6114 -0.0732 -0.0158
43870SOL    HW138215  10.765  12.490  10.474 -3.2462  0.1126  0.4412
43870SOL    HW238216  10.781  12.450  10.329 -1.0964 -1.0210  0.9615
43871SOL     OW38217   4.022   9.478   9.854  0.5121  0.1488  0.0576
43871SOL    HW138218   4.023   9.537   9.779 -3.2523 -0.7372 -0.8857
43871SOL    HW238219   3.972   9.525   9.921 -2.7160 -1.7984 -0.7723
43872SOL     OW38220   1.827  12.590   4.541  0.2708  0.2918 -0.0193
43872SOL    HW138221   1.742  12.547   4.554  0.3350 -0.5536 -2.0387
43872SOL    HW238222   1.813  12.679   4.575 -1.4791  0.2237 -0.4402
43873SOL     OW38223   7.822   3.581   0.891  0.5927 -0.1596 -0.2284
43873SOL    HW138224   7.737   3.626   0.886  1.0750  1.2515  2.4824
43873SOL    HW238225   7.799   3.490   0.911 -0.4314  0.7565  3.7140
43874SOL     OW38226   7.398   8.411  12.418 -0.8397  0.6796 -0.2174
43874SOL    HW138227   7.490   8.394  12.398 -1.2778 -0.3128 -1.5540
43874SOL    HW238228   7.359   8.324  12.424 -1.8016  1.1026 -0.2393
43875SOL     OW38229   3.571   8.017   1.858  0.5927 -0.4356 -0.0601
43875SOL    HW138230   3.514   8.075   1.907  1.1697 -0.1110  0.2312
43875SOL    HW238231   3.539   7.929   1.878  1.2370 -0.3432  1.4308
43876SOL     OW38232   9.293   7.355  10.140  0.0068  0.4510 -0.2342
43876SOL    HW138233   9.294   7.417  10.066 -0.6086 -0.7081 -1.2470
43876SOL    HW238234   9.338   7.278  10.107  1.9678  0.7979  1.4670
43877SOL     OW38235   6.791   8.524   5.641  0.1285  0.7365 -0.1151
43877SOL    HW138236   6.717   8.527   5.702  0.2873 -1.1070  0.2093
43877SOL    HW238237   6.795   8.433   5.612  1.0555  1.2317 -1.6722
43878SOL     OW38238   4.577   3.391   2.321  0.0257 -0.6263  0.2488
43878SOL    HW138239   4.672   3.400   2.311 -0.0092 -0.9121 -0.3822
43878SOL    HW238240   4.562   3.399   2.415  0.4614  1.3855  0.1893
43879SOL     OW38241   3.630  11.000   5.298  0.2209  0.5007 -0.6126
43879SOL    HW138242   3.542  11.030   5.275 -0.3920 -1.3014 -0.7452
43879SOL    HW238243   3.687  11.039   5.232 -0.2205  2.8633  0.2921
43880SOL     OW38244   8.802   8.817   3.719 -0.2329  0.2343  0.1727
43880SOL    HW138245   8.854   8.750   3.764 -0.6195  0.2461  0.6462
43880SOL    HW238246   8.855   8.897   3.726  0.5807 -0.1796 -1.0609
43881SOL     OW38247  10.495   3.848   5.300 -0.2671  0.1497  0.3869
43881SOL    HW138248  10.552   3.815   5.370 -1.9094 -0.1237  1.6593
43881SOL    HW238249  10.548   3.842   5.221  1.5677  0.2167  1.5639
43882SOL     OW38250   8.145  11.468   9.697 -0.7371 -0.1047 -0.1108
43882SOL    HW138251   8.068  11.452   9.643 -1.3340 -0.6233  0.8466
43882SOL    HW238252   8.206  11.399   9.672 -1.1773 -0.6062  0.1484
43883SOL     OW38253   3.641   1.545   3.506 -0.1827  0.4540 -0.2902
43883SOL    HW138254   3.601   1.624   3.469 -0.3396 -0.1326 -1.4265
43883SOL    HW238255   3.569   1.498   3.547 -0.1543  0.7249  0.0721
43884SOL     OW38256   6.487   5.566   9.937 -0.3855 -0.0302 -0.4091
43884SOL    HW138257   6.421   5.516   9.890  0.1220 -0.9946 -0.1294
43884SOL    HW238258   6.562   5.570   9.877 -0.1315 -0.3284 -0.1226
43885SOL     OW38259   2.883   7.122  10.023 -0.1321  0.3167 -0.3292
43885SOL    HW138260   2.974   7.142  10.043  0.5708  0.0368 -2.8976
43885SOL    HW238261   2.842   7.206  10.004  0.0564  0.2947 -0.8459
43886SOL     OW38262   6.673   4.590  11.508  0.0714  0.0430  0.0091
43886SOL    HW138263   6.758   4.631  11.523 -0.1129 -0.0103  1.3206
43886SOL    HW238264   6.615   4.629  11.573 -0.0141 -2.4845  1.6140
43887SOL     OW38265   2.511   3.254   8.359 -0.4279  0.1751  0.0162
43887SOL    HW138266   2.453   3.254   8.435  0.9573  0.1654  1.1125
43887SOL    HW238267   2.529   3.346   8.341  1.1208  0.1544  1.2331
43888SOL     OW38268   6.577   1.462   0.157 -0.2010  0.0170  0.1305
43888SOL    HW138269   6.530   1.406   0.219  1.3901 -0.7680  0.6634
43888SOL    HW238270   6.515   1.533   0.138 -0.9910 -0.0583  2.1120
43889SOL     OW38271  11.927   8.581  11.747 -0.3762 -0.1834 -0.3759
43889SOL    HW138272  11.841   8.583  11.789  0.4007  0.8467  1.2583
43889SOL    HW238273  11.948   8.673  11.731 -0.0204 -0.4795 -1.7669
43890SOL     OW38274  12.639   6.948   7.321  0.3910 -0.7830 -0.5133
43890SOL    HW138275  12.594   6.995   7.391 -0.4841 -1.1535 -0.8113
43890SOL    HW238276  12.723   6.992   7.313  0.3944 -0.5510  0.5762
43891SOL     OW38277   4.460   6.380  11.521  0.7699 -0.3266  0.2911
43891SOL    HW138278   4.429   6.385  11.431  0.1795  0.2646  0.5246
43891SOL    HW238279   4.529   6.446  11.527  1.7313 -1.2636 -0.0745
43892SOL     OW38280   1.934   6.335   1.794 -0.5556 -0.1683 -0.3123
43892SOL    HW138281   1.976   6.265   1.744 -0.4391  0.5261 -1.2171
43892SOL    HW238282   1.849   6.347   1.751 -1.1095 -0.6055  0.6319
43893SOL     OW38283   0.345   4.378   6.094 -0.1013  0.2376 -0.4331
43893SOL    HW138284   0.331   4.309   6.030  2.0336 -0.5764 -0.1033
43893SOL    HW238285   0.387   4.449   6.045 -1.9051  1.1961 -0.6809
43894SOL     OW38286  11.318   8.399  12.273  0.5034 -0.1152  0.7196
43894SOL    HW138287  11.276   8.328  12.223 -2.0411  1.7198  0.0222
43894SOL    HW238288  11.299   8.379  12.364 -1.0919  0.1439  0.4678
43895SOL     OW38289   0.543   1.238   4.530  0.2398  0.0479  0.1849
43895SOL    HW138290   0.505   1.162   4.485 -2.6148  2.2113 -1.3900
43895SOL    HW238291   0.574   1.294   4.460 -0.9037  1.8487  1.0489
43896SOL     OW38292  10.527   9.135   3.546  0.0673  0.0154 -0.1216
43896SOL    HW138293  10.583   9.101   3.616 -1.0519  1.2513  1.4593
43896SOL    HW238294  10.535   9.071   3.476  2.2157 -0.6315  0.6336
43897SOL     OW38295  11.503  11.805   1.157 -0.1809 -0.1170 -0.1990
43897SOL    HW138296  11.424  11.851   1.129 -0.8305  1.2555  3.4122
43897SOL    HW238297  11.545  11.864   1.219  2.0180 -2.1243  0.3793
43898SOL     OW38298   2.871   0.331   4.246 -0.1180  0.1448 -0.3355
43898SOL    HW138299   2.860   0.286   4.329  0.5155  0.1369 -0.2486
43898SOL    HW238300   2.887   0.422   4.270  1.3744 -0.0879 -0.3785
43899SOL     OW38301   6.141   8.975   3.703 -0.4096 -0.0906  0.0548
43899SOL    HW138302   6.232   9.003   3.687 -0.8406  1.3343 -0.0161
43899SOL    HW238303   6.114   9.025   3.780 -1.0645 -0.7107  0.2392
43900SOL     OW38304  12.787   8.344   9.412 -0.1754 -0.1269 -0.2872
43900SOL    HW138305  12.871   8.318   9.373 -0.5213 -0.8687 -0.5516
43900SOL    HW238306  12.781   8.438   9.395  1.5417  0.3692  1.5115
43901SOL     OW38307   4.899   1.169   9.323 -0.3733 -0.1562  0.0125
43901SOL    HW138308   4.816   1.123   9.317  0.0816 -0.9521 -0.3793
43901SOL    HW238309   4.953   1.130   9.254 -0.1111  1.2703 -0.6288
43902SOL     OW38310   2.426   6.780   5.779  0.9251  0.1149  0.9212
43902SOL    HW138311   2.521   6.769   5.774  1.0114  0.8818  0.6245
43902SOL    HW238312   2.392   6.693   5.796  1.4676 -0.7202 -1.7887
43903SOL     OW38313   2.958  10.597   0.422  0.0388  0.5994 -0.4201
43903SOL    HW138314   2.913  10.680   0.410 -0.5748  0.2774 -0.4005
43903SOL    HW238315   2.912  10.536   0.364 -0.2069  0.0336  0.3442
43904SOL     OW38316   6.143   7.613  11.771  0.3722 -0.1258  0.3897
43904SOL    HW138317   6.177   7.551  11.707 -1.4999 -0.2649 -0.5259
43904SOL    HW238318   6.203   7.687  11.766  0.6058 -0.3803 -1.0946
43905SOL     OW38319  11.091   9.251   9.073 -0.1046  0.0287 -0.2111
43905SOL    HW138320  11.119   9.303   9.148  0.2251 -0.9964  0.3944
43905SOL    HW238321  11.004   9.285   9.052  0.2243  1.0315 -0.0479
43906SOL     OW38322   3.234  10.779  11.086 -0.1467 -0.3468  0.1006
43906SOL    HW138323   3.258  10.870  11.069  0.3435 -0.1759  1.5601
43906SOL    HW238324   3.140  10.783  11.107 -0.1624 -0.1928  0.0034
43907SOL     OW38325   1.378   3.384   3.685  0.3795  0.1729 -0.1974
43907SOL    HW138326   1.375   3.312   3.621 -0.3847 -0.7581  0.8467
43907SOL    HW238327   1.331   3.350   3.761  0.6325  1.5326  0.5918
43908SOL     OW38328   4.549   6.352   2.664  0.0718 -0.7029  0.3172
43908SOL    HW138329   4.550   6.258   2.644  0.3645 -0.7072  0.3420
43908SOL    HW238330   4.500   6.359   2.745 -2.3238 -0.5499 -1.0397
43909SOL     OW38331   5.193  12.148   8.243  0.4177  0.0684 -0.2951
43909SOL    HW138332   5.100  12.155   8.222  0.3677  0.4584  0.0381
43909SOL    HW238333   5.238  12.158   8.159  0.3121  3.4213 -0.1134
43910SOL     OW38334  10.019  10.821   2.283 -0.1197 -0.4598 -0.2864
43910SOL    HW138335   9.970  10.820   2.201  0.5612  0.2276 -0.7136
43910SOL    HW238336   9.975  10.756   2.338 -1.5314  0.1637 -0.6394
43911SOL     OW38337   0.154  12.620   0.915  0.5103 -0.0625 -0.4414
43911SOL    HW138338   0.154  12.715   0.911  2.1362 -0.0780 -1.9729
43911SOL    HW238339   0.101  12.592   0.841  1.2283 -0.3447 -0.8549
43912SOL     OW38340   4.472   8.195   7.111  0.3453  0.0523  0.2416
43912SOL    HW138341   4.491   8.266   7.172 -0.2083 -0.2332  0.7581
43912SOL    HW238342   4.540   8.130   7.127 -0.5502 -0.6134  1.5146
43913SOL     OW38343   5.401   6.064   1.605 -0.2110  0.7243  0.4250
43913SOL    HW138344   5.447   6.138   1.564 -1.2087  0.3742 -1.4454
43913SOL    HW238345   5.311   6.071   1.573 -0.5471 -0.7759  0.9607
43914SOL     OW38346   1.604   1.901   5.611 -0.2866  0.1910  0.2200
43914SOL    HW138347   1.624   1.825   5.555 -0.8005  0.5740 -0.5059
43914SOL    HW238348   1.687   1.924   5.651  0.3514  0.6212 -1.2993
43915SOL     OW38349   8.628   1.208  12.043  0.0300  0.2630  0.4899
43915SOL    HW138350   8.655   1.138  11.985 -1.6347 -1.1276  1.2790
43915SOL    HW238351   8.709   1.250  12.071  1.2114 -2.1985  0.9939
43916SOL     OW38352  11.423   9.308  12.059 -0.2074 -0.6567  0.3695
43916SOL    HW138353  11.443   9.242  11.992 -0.4383 -1.8770  1.4484
43916SOL    HW238354  11.336   9.283  12.091 -0.5781  0.5801  0.3641
43917SOL     OW38355  12.733   5.957   3.337  0.7919  0.0659  0.0276
43917SOL    HW138356  12.745   5.863   3.324  0.0264 -0.3579  1.9401
43917SOL    HW238357  12.648   5.977   3.298  1.1622  0.0802 -0.7906
43918SOL     OW38358   3.898  11.574   4.196  0.8176  0.2452  0.1465
43918SOL    HW138359   3.895  11.669   4.193  0.8332  0.2457 -2.3239
43918SOL    HW238360   3.964  11.554   4.262  1.0143  1.9447  0.5100
43919SOL     OW38361  12.086   2.950   9.737  0.1828 -0.2419 -0.0325
43919SOL    HW138362  12.172   2.969   9.774 -0.2357  1.2957  0.2542
43919SOL    HW238363  12.102   2.937   9.643  0.5285  2.1377 -0.3686
43920SOL     OW38364  10.504   1.128  12.703  0.4462  0.6111  0.0843
43920SOL    HW138365  10.419   1.090  12.681  0.6746  1.0085 -1.5841
43920SOL    HW238366  10.551   1.056  12.746 -1.0649  0.6882  2.0393
43921SOL     OW38367  12.199   6.071   7.613  0.1026 -0.5233  0.5902
43921SOL    HW138368  12.256   6.003   7.649  1.0631  0.0735  0.2321
43921SOL    HW238369  12.120   6.068   7.667  0.9840 -0.5225  1.9083
43922SOL     OW38370   3.474  10.680   2.545  0.2000 -0.2096  0.3436
43922SOL    HW138371   3.423  10.602   2.525  0.1364 -0.3153  0.9073
43922SOL    HW238372   3.429  10.751   2.499  0.6129 -0.5912 -0.6868
43923SOL     OW38373   2.411   5.767   0.702  0.0103  0.3019  0.3207
43923SOL    HW138374   2.315   5.774   0.694  0.1517  2.1344 -0.1236
43923SOL    HW238375   2.431   5.684   0.658 -1.1959  0.9350 -1.6024
43924SOL     OW38376   1.918   0.506  11.607 -0.0720  0.3033  0.4201
43924SOL    HW138377   1.980   0.546  11.668  1.1531 -0.2163 -0.4308
43924SOL    HW238378   1.972   0.447  11.553 -1.2261  0.2100 -0.6918
43925SOL     OW38379   4.341  12.499   5.059 -0.2068  0.0146 -0.5229
43925SOL    HW138380   4.280  12.532   4.992 -0.7105  0.8690  0.3164
43925SOL    HW238381   4.310  12.539   5.140  0.0990 -1.3811  0.3105
43926SOL     OW38382   7.820   7.426   3.113 -0.0051  0.5240 -0.2386
43926SOL    HW138383   7.895   7.368   3.128 -0.5395 -0.7076 -1.9772
43926SOL    HW238384   7.827   7.449   3.021 -0.2060  2.7341  0.2617
43927SOL     OW38385   8.794   1.183   1.398  0.1666 -0.5525  0.1673
43927SOL    HW138386   8.750   1.225   1.324  1.3559  1.2035  0.3915
43927SOL    HW238387   8.866   1.135   1.358  0.5571  0.0520  0.1276
43928SOL     OW38388   8.043  12.372   8.079  0.4320 -0.0289  0.3512
43928SOL    HW138389   8.030  12.458   8.038 -1.1574  0.2234  1.3083
43928SOL    HW238390   8.020  12.386   8.171 -0.6980 -1.6537  0.3593
43929SOL     OW38391   0.506   8.371   8.294  0.1897  0.4133  0.1654
43929SOL    HW138392   0.447   8.310   8.340  1.3640 -0.0929  1.0467
43929SOL    HW238393   0.466   8.383   8.208 -1.2387  0.1433  0.7656
43930SOL     OW38394   8.888  11.156   7.036 -0.4048  0.0179  0.4774
43930SOL    HW138395   8.844  11.165   7.120 -0.3456  1.8499  0.3453
43930SOL    HW238396   8.834  11.093   6.988 -2.1831  1.2056  0.8020
43931SOL     OW38397   7.961   7.196  12.614  0.6835 -0.0259  0.6912
43931SOL    HW138398   7.903   7.150  12.553  1.3015 -0.1242  0.1523
43931SOL    HW238399   8.016   7.127  12.651  0.2517  0.0263  1.4276
43932SOL     OW38400   3.889   6.772  10.915  0.0828  0.2517  0.4232
43932SOL    HW138401   3.821   6.705  10.906  0.3246 -0.4180  2.8665
43932SOL    HW238402   3.852   6.850  10.873 -1.1919 -0.7288 -0.3631
43933SOL     OW38403   7.265  10.904   3.990 -0.4122  0.1235  0.0752
43933SOL    HW138404   7.213  10.965   3.938 -0.4283  1.8402  1.9773
43933SOL    HW238405   7.328  10.959   4.036  0.2668 -1.4185  1.0917
43934SOL     OW38406   1.707   6.341   2.516  0.0227  0.6135 -0.0019
43934SOL    HW138407   1.617   6.322   2.544  0.0160  1.2229  0.4195
43934SOL    HW238408   1.754   6.360   2.598  0.3116  1.1949 -0.2955
43935SOL     OW38409   6.774   7.092   6.927 -0.6922  0.0730  0.1472
43935SOL    HW138410   6.834   7.019   6.913 -0.8750 -0.2252  0.8856
43935SOL    HW238411   6.831   7.170   6.926 -0.6449  0.0621 -1.8304
43936SOL     OW38412  11.698   8.875   0.164 -0.3247 -0.3844  0.4889
43936SOL    HW138413  11.648   8.879   0.083  0.7939 -1.1992 -0.2744
43936SOL    HW238414  11.702   8.965   0.195 -0.0982  0.0595 -0.7872
43937SOL     OW38415  12.273  11.635   8.284  0.5154  0.1206 -0.4980
43937SOL    HW138416  12.279  11.621   8.189  0.2540  0.6743 -0.5970
43937SOL    HW238417  12.204  11.575   8.313  1.8873 -1.4800 -0.3486
43938SOL     OW38418   6.531   7.883   0.304  0.0318 -0.1934 -0.4255
43938SOL    HW138419   6.507   7.967   0.343  1.3128  0.3343 -0.7252
43938SOL    HW238420   6.593   7.845   0.365  0.6967 -0.1657 -1.0639
43939SOL     OW38421  10.031  10.471   0.997 -0.1499  0.1610  0.6241
43939SOL    HW138422  10.038  10.388   1.043  2.1741 -0.6527 -1.0246
43939SOL    HW238423  10.121  10.498   0.982 -0.8493  2.0389 -0.5647
43940SOL     OW38424   1.852   3.644  11.589  0.0771 -0.0974  0.4433
43940SOL    HW138425   1.780   3.660  11.528 -0.6443  1.4550  1.6224
43940SOL    HW238426   1.839   3.554  11.619 -1.5361  0.2285  0.8054
43941SOL     OW38427   5.886   0.300  12.150  0.3462 -0.1819 -0.0339
43941SOL    HW138428   5.850   0.386  12.132  0.7642 -0.1454 -0.7018
43941SOL    HW238429   5.841   0.272  12.231 -0.7071  0.1165 -0.4975
43942SOL     OW38430   5.952   9.523   4.665  0.5134 -0.2865 -0.2636
43942SOL    HW138431   5.953   9.435   4.629 -0.4700 -0.0726 -0.8460
43942SOL    HW238432   5.913   9.514   4.752  0.8077 -0.4811 -0.1512
43943SOL     OW38433   1.597   8.281   3.254  0.3145 -0.2370  0.4392
43943SOL    HW138434   1.533   8.287   3.183  2.6081  0.6524 -1.7326
43943SOL    HW238435   1.580   8.358   3.309 -0.5871 -0.1243  0.0155
43944SOL     OW38436   2.645   3.332   6.316 -0.1765  0.5395  0.2788
43944SOL    HW138437   2.580   3.326   6.386 -0.0039  0.2410  0.4154
43944SOL    HW238438   2.667   3.241   6.295  1.1084  0.6415  1.0944
43945SOL     OW38439  12.550   9.642   5.496  0.0413  0.2487  0.4240
43945SOL    HW138440  12.632   9.619   5.451 -1.0069  0.2291 -1.5734
43945SOL    HW238441  12.521   9.560   5.536  0.5538  0.0562  0.4078
43946SOL     OW38442  12.684   1.600   0.690  0.0610 -0.2971 -0.2655
43946SOL    HW138443  12.702   1.506   0.697 -0.5118 -0.3278  1.0180
43946SOL    HW238444  12.748   1.640   0.748  0.1970  0.1034 -0.6878
43947SOL     OW38445   5.537   8.868  11.507  0.1732 -0.0462  0.3979
43947SOL    HW138446   5.607   8.884  11.444  0.8185 -0.3516  1.0220
43947SOL    HW238447   5.521   8.774  11.501 -0.5233  0.1004 -0.0875
43948SOL     OW38448   4.772   0.362   9.522  0.4579 -0.0822 -0.1364
43948SOL    HW138449   4.797   0.379   9.431 -0.7255  0.4777 -0.3863
43948SOL    HW238450   4.677   0.378   9.523  0.3743 -0.5978  1.0807
43949SOL     OW38451  11.182  11.691   7.026 -0.1981 -0.3609  0.1090
43949SOL    HW138452  11.220  11.659   7.108 -0.0092 -0.2879  0.0497
43949SOL    HW238453  11.124  11.763   7.053  0.7266  0.4235  0.0774
43950SOL     OW38454   4.900   9.239   6.867 -0.7511  0.1302 -0.1232
43950SOL    HW138455   4.847   9.161   6.849 -1.0249  0.4004 -0.4990
43950SOL    HW238456   4.929   9.269   6.781 -1.5646  1.0829 -0.0761
43951SOL     OW38457   5.767   2.092   1.931  0.8030  0.5673 -0.2292
43951SOL    HW138458   5.725   2.094   1.845  1.3684  1.7358 -0.4919
43951SOL    HW238459   5.741   2.174   1.973  0.9311  0.2348  0.5273
43952SOL     OW38460  11.722  10.080   7.903  0.2938 -0.6924  0.3184
43952SOL    HW138461  11.742   9.989   7.885 -1.7855 -1.1805  0.2073
43952SOL    HW238462  11.660  10.105   7.834 -0.4502  0.2740  1.3046
43953SOL     OW38463   4.295   8.393   7.545 -0.1309  0.5534  1.3807
43953SOL    HW138464   4.256   8.346   7.618  0.6177 -0.2342  1.2911
43953SOL    HW238465   4.289   8.332   7.471 -0.7365  1.2743  0.8115
43954SOL     OW38466  11.318   7.464   5.935  0.2516 -0.3681 -0.5809
43954SOL    HW138467  11.332   7.525   5.863 -0.7125  0.5455 -0.0088
43954SOL    HW238468  11.223   7.459   5.944  0.3596  0.1083  1.1053
43955SOL     OW38469   4.364  12.493  10.352 -0.3877  0.1873 -0.2271
43955SOL    HW138470   4.375  12.462  10.262 -0.4465  0.7079 -0.4181
43955SOL    HW238471   4.291  12.555  10.347  0.3055  1.0482 -0.0322
43956SOL     OW38472  12.533  10.908  10.936 -0.0139  0.4447  0.0458
43956SOL    HW138473  12.441  10.931  10.922 -0.5893 -1.6309  0.0110
43956SOL    HW238474  12.551  10.933  11.026 -1.2263 -0.8176  0.6778
43957SOL     OW38475   2.941   8.284   8.405  0.4419 -0.1470  0.1442
43957SOL    HW138476   2.940   8.263   8.498  1.2173  1.5134  0.5593
43957SOL    HW238477   3.017   8.238   8.370 -0.2341 -1.3216  0.1669
43958SOL     OW38478   5.573   1.796   5.380 -0.3689 -0.2790  0.2113
43958SOL    HW138479   5.575   1.750   5.464  0.2737 -0.6673 -0.0063
43958SOL    HW238480   5.665   1.803   5.354 -0.5486 -0.0250 -0.3818
43959SOL     OW38481   5.166   0.025   2.564  0.5245  0.4716 -0.0675
43959SOL    HW138482   5.093  -0.007   2.617 -0.9002  1.5283 -1.3167
43959SOL    HW238483   5.193  -0.050   2.512  1.8868 -0.5656  1.9746
43960SOL     OW38484   6.497   8.605   9.870  1.1335  0.0261 -0.4091
43960SOL    HW138485   6.463   8.520   9.898  1.6959  0.2826  1.1694
43960SOL    HW238486   6.430   8.638   9.810  0.1030 -0.8282  0.2168
43961SOL     OW38487   5.293   2.035  12.661  0.1316  0.2329 -0.0704
43961SOL    HW138488   5.359   1.976  12.698  0.2428  0.7635  0.6006
43961SOL    HW238489   5.217   1.980  12.647  0.4075 -0.1855  0.0456
43962SOL     OW38490   7.194  10.652   9.674 -0.5090  0.2813  0.0256
43962SOL    HW138491   7.265  10.624   9.733  1.1607 -0.1261 -2.0567
43962SOL    HW238492   7.115  10.614   9.713  0.7693 -1.5649  0.9942
43963SOL     OW38493  10.952   1.372   3.849 -0.0920  0.5150 -0.0700
43963SOL    HW138494  11.024   1.393   3.909 -1.2379  1.3502  1.0505
43963SOL    HW238495  10.981   1.292   3.805  0.9352  0.0855  1.3248
43964SOL     OW38496  10.716   2.663   5.728 -0.9781 -0.0393  0.1461
43964SOL    HW138497  10.803   2.657   5.768 -1.2789 -0.9287  0.6984
43964SOL    HW238498  10.714   2.751   5.689  0.0869  0.0714  0.2953
43965SOL     OW38499   4.145   6.289   4.361 -0.3854 -0.5294 -0.2486
43965SOL    HW138500   4.096   6.369   4.380 -1.0681 -0.9064 -0.3778
43965SOL    HW238501   4.102   6.222   4.414  0.7791 -0.6398  0.5923
43966SOL     OW38502   2.989   2.919  12.156 -0.6518  0.2086  0.0861
43966SOL    HW138503   2.938   2.940  12.078  0.7937 -1.0019 -1.2437
43966SOL    HW238504   2.985   2.824  12.162 -1.0853  0.2941  1.7731
43967SOL     OW38505   2.135   9.552   5.482 -0.0921 -0.4833 -0.4053
43967SOL    HW138506   2.165   9.518   5.397 -0.2630  0.5232 -0.8803
43967SOL    HW238507   2.077   9.484   5.516  0.6646 -1.2958 -0.6727
43968SOL     OW38508   6.050   2.194  10.913 -0.2252 -0.4161  0.3734
43968SOL    HW138509   6.087   2.198  10.825 -0.5522 -2.4681  0.0938
43968SOL    HW238510   6.125   2.205  10.971  0.2317 -0.6341 -0.1669
43969SOL     OW38511   9.869   4.229  11.105  0.6368 -0.0834  0.6036
43969SOL    HW138512   9.841   4.171  11.035 -2.2838  0.6213  1.0558
43969SOL    HW238513   9.951   4.267  11.074 -0.4003 -0.0112 -2.3337
43970SOL     OW38514   8.623  12.157  11.333  0.3138 -0.2235  0.1874
43970SOL    HW138515   8.640  12.130  11.424 -1.6741 -0.3016  0.5793
43970SOL    HW238516   8.710  12.175  11.297  1.1947 -0.7349  1.9308
43971SOL     OW38517  11.844  12.013  12.147 -0.5289  0.4312  0.3205
43971SOL    HW138518  11.766  12.000  12.202 -0.9055 -1.7829 -0.5968
43971SOL    HW238519  11.909  11.953  12.185 -0.8921 -1.3653 -1.6956
43972SOL     OW38520   3.183   8.995   6.024  0.1861 -0.5375 -0.0391
43972SOL    HW138521   3.143   8.951   6.099  0.1484 -0.4469 -0.0042
43972SOL    HW238522   3.211   9.080   6.059  1.1707 -0.9274  0.1377
43973SOL     OW38523   1.465   8.723   4.789 -0.3360  0.2137 -0.4106
43973SOL    HW138524   1.483   8.637   4.827 -1.7892 -0.4695 -1.1715
43973SOL    HW238525   1.454   8.706   4.695 -0.6576  1.2175 -0.5702
43974SOL     OW38526   1.729   9.473   8.757  0.0682 -0.4967 -0.1800
43974SOL    HW138527   1.788   9.505   8.689 -0.9114  1.1586 -0.3120
43974SOL    HW238528   1.741   9.378   8.756  2.2810 -0.2720 -0.5742
43975SOL     OW38529   7.646   3.810  12.754  0.5747 -0.4427  0.7056
43975SOL    HW138530   7.586   3.774  12.688  1.2160 -0.0658 -0.1026
43975SOL    HW238531   7.674   3.734  12.805 -0.3392 -0.6695  0.8959
43976SOL     OW38532   9.123   8.537   9.272 -0.0726 -0.3824 -0.6243
43976SOL    HW138533   9.155   8.456   9.231  0.0867 -0.0518 -1.1570
43976SOL    HW238534   9.070   8.507   9.346 -0.1003 -0.9749 -0.8836
43977SOL     OW38535   1.558   3.243   8.052  0.7062 -0.0144  0.2186
43977SOL    HW138536   1.547   3.222   8.145  0.7733 -1.5345 -0.0937
43977SOL    HW238537   1.650   3.270   8.045  0.4481  1.0344  0.7469
43978SOL     OW38538  10.920   8.365   8.570  0.2571  0.7965 -0.2187
43978SOL    HW138539  10.871   8.411   8.637  0.7651 -0.9636  1.4678
43978SOL    HW238540  11.007   8.405   8.571 -0.0337  1.4463 -0.5650
43979SOL     OW38541   4.393   0.190  11.345 -0.0127 -0.0840  0.0071
43979SOL    HW138542   4.320   0.236  11.389  0.9722  1.1752  0.3888
43979SOL    HW238543   4.425   0.253  11.281  1.1049 -0.3920  0.2465
43980SOL     OW38544   8.272   8.924   3.738  0.3468 -0.4959  0.1723
43980SOL    HW138545   8.356   8.881   3.722  1.4232  1.0628  1.3384
43980SOL    HW238546   8.259   8.980   3.661  0.5893 -0.4140  0.1913
43981SOL     OW38547   8.657   7.471  11.756 -0.1067 -0.4176  0.5463
43981SOL    HW138548   8.636   7.412  11.828 -1.9842 -0.4633  0.0269
43981SOL    HW238549   8.729   7.428  11.710 -1.5945 -2.4912  0.0134
43982SOL     OW38550  12.495   5.476  12.717 -0.2214 -0.8028 -0.3717
43982SOL    HW138551  12.422   5.523  12.755  0.9930  0.4567  0.5148
43982SOL    HW238552  12.552   5.454  12.791  0.4602 -1.4640 -1.0605
43983SOL     OW38553   4.914   5.456   2.352 -0.1792  0.3361  0.3660
43983SOL    HW138554   4.998   5.416   2.374 -0.4219  0.5425  1.7602
43983SOL    HW238555   4.911   5.454   2.256  0.0206 -2.5215  0.3526
43984SOL     OW38556   8.225   3.306   1.052 -0.5645  0.6353  0.2804
43984SOL    HW138557   8.252   3.370   1.117  0.8519 -0.0343  0.3937
43984SOL    HW238558   8.167   3.246   1.100  2.4401 -1.3460  1.7293
43985SOL     OW38559  10.799   8.371   7.646 -0.2086  0.4071 -0.1030
43985SOL    HW138560  10.817   8.352   7.553 -1.7242 -0.5264 -0.2431
43985SOL    HW238561  10.704   8.381   7.650  0.0195  2.5976  1.0054
43986SOL     OW38562   7.027   0.257   6.674  0.7022 -0.7634 -0.4653
43986SOL    HW138563   6.977   0.176   6.684 -0.7517 -0.2031 -2.4787
43986SOL    HW238564   6.962   0.323   6.650  1.9792  0.8155  0.1571
43987SOL     OW38565  10.302  12.632   5.301  0.2825  0.0153  0.1386
43987SOL    HW138566  10.367  12.691   5.262  1.4837 -2.4181 -1.8228
43987SOL    HW238567  10.261  12.590   5.225 -0.3496 -1.8215  1.4470
43988SOL     OW38568   6.951  12.611   1.692 -0.2349  0.5603  0.3366
43988SOL    HW138569   6.984  12.671   1.625 -0.5492  0.1271 -0.2118
43988SOL    HW238570   7.011  12.622   1.766  0.0143  1.1692  0.0480
43989SOL     OW38571   3.387   2.376   9.484 -0.2321  0.0871 -0.1747
43989SOL    HW138572   3.452   2.432   9.442 -0.5906 -0.4836 -1.5741
43989SOL    HW238573   3.423   2.357   9.570  0.2678  1.7968  0.0274
43990SOL     OW38574   5.283  11.854   9.526  0.0217 -0.0089  0.2480
43990SOL    HW138575   5.373  11.829   9.508 -0.3544 -0.2976 -1.4866
43990SOL    HW238576   5.246  11.780   9.574  0.1829 -0.7965 -0.8050
43991SOL     OW38577  11.984  10.382   0.464 -0.0817 -0.2580  0.1653
43991SOL    HW138578  11.897  10.405   0.498 -0.2635 -1.3851  0.5378
43991SOL    HW238579  11.967  10.306   0.408  0.7753 -1.1255  1.0456
43992SOL     OW38580   8.164  10.186   8.127 -0.2184  0.9689 -0.4084
43992SOL    HW138581   8.097  10.147   8.071  0.9913  1.9606 -2.6976
43992SOL    HW238582   8.246  10.169   8.081  0.9890  0.9984  1.6026
43993SOL     OW38583  10.153  10.856   5.108  0.2100 -0.3891  0.3874
43993SOL    HW138584  10.173  10.935   5.157 -2.9970 -0.2134  1.6162
43993SOL    HW238585  10.100  10.886   5.034 -0.8106 -1.3404  0.7132
43994SOL     OW38586   5.870   6.975   3.633  0.0417  0.7505  0.6979
43994SOL    HW138587   5.958   6.955   3.602 -0.1651  1.0468 -0.1128
43994SOL    HW238588   5.816   6.973   3.554 -0.7853  0.0191  1.2589
43995SOL     OW38589   2.286   4.275   8.644  0.1169 -0.5330  0.0162
43995SOL    HW138590   2.231   4.353   8.651  1.6574  0.5643  0.5446
43995SOL    HW238591   2.229   4.203   8.672 -2.3002 -0.1602 -3.3250
43996SOL     OW38592   7.121   5.146  12.216  0.1986  0.0842 -0.2789
43996SOL    HW138593   7.097   5.199  12.140  1.8496 -1.9206 -2.3420
43996SOL    HW238594   7.132   5.209  12.287 -0.8076  2.1205 -1.8125
43997SOL     OW38595   5.097   0.878  10.750  0.0479  0.2077  0.5337
43997SOL    HW138596   5.137   0.854  10.666  0.0391 -0.3222  0.6777
43997SOL    HW238597   5.153   0.949  10.784 -0.0642  0.5600 -0.0100
43998SOL     OW38598   2.964   9.478   1.285  0.4488 -0.4705 -0.2656
43998SOL    HW138599   3.013   9.539   1.340 -2.0200  0.5519  0.9796
43998SOL    HW238600   2.970   9.515   1.197  0.5299  0.5544  0.1586
43999SOL     OW38601  12.703   3.152  11.512  0.1531  0.2198  0.7359
43999SOL    HW138602  12.640   3.209  11.468 -0.6258 -1.2115 -0.0763
43999SOL    HW238603  12.700   3.179  11.604 -0.2748  1.3941  0.3883
44000SOL     OW38604   2.343  11.803   6.357  0.1662 -0.3838  0.4280
44000SOL    HW138605   2.298  11.722   6.331 -2.3879  0.7846  0.8454
44000SOL    HW238606   2.321  11.814   6.450 -0.8405  1.5010  0.0266
44001SOL     OW38607   0.492   8.521   0.223  0.3924 -0.1868 -0.4634
44001SOL    HW138608   0.482   8.444   0.167 -0.6855  0.9851 -1.9727
44001SOL    HW238609   0.556   8.575   0.178  0.6259  0.1180  0.2227
44002SOL     OW38610   0.543  10.313   4.142 -0.5429 -0.3291 -0.5636
44002SOL    HW138611   0.574  10.366   4.069 -0.1486 -1.1091 -0.9716
44002SOL    HW238612   0.623  10.272   4.176 -0.8571 -0.7223 -0.3025
44003SOL     OW38613   0.120   1.278  11.880 -0.6005  0.9463 -0.2491
44003SOL    HW138614   0.140   1.185  11.890 -1.6565  0.8180  0.8370
44003SOL    HW238615   0.024   1.282  11.876 -0.5409  1.9005 -1.3720
44004SOL     OW38616   9.364   3.452   1.473  0.4271 -0.6998  0.9392
44004SOL    HW138617   9.270   3.441   1.489 -0.1060  0.6947 -0.7938
44004SOL    HW238618   9.398   3.363   1.464 -0.6689 -1.2329  1.8578
44005SOL     OW38619  10.541   6.121   2.085 -0.1108  0.0493 -0.0852
44005SOL    HW138620  10.636   6.123   2.079 -0.0638  0.7860  0.6671
44005SOL    HW238621  10.519   6.028   2.084  0.9378 -0.4123  3.5104
44006SOL     OW38622  11.415  10.847  12.513  0.4118 -0.2381 -0.3233
44006SOL    HW138623  11.473  10.921  12.529 -0.2501  0.1715  0.2543
44006SOL    HW238624  11.423  10.792  12.590 -1.4985  0.8742  0.7508
44007SOL     OW38625   2.161   8.075  11.890 -0.0597 -0.3780 -0.8860
44007SOL    HW138626   2.215   8.008  11.931  0.1948  0.0910 -0.4508
44007SOL    HW238627   2.097   8.101  11.957  1.6908  1.9193  0.0391
44008SOL     OW38628   7.880   8.601   3.784  0.3050  0.2679 -0.2781
44008SOL    HW138629   7.972   8.623   3.797  0.1050  0.4026  1.1628
44008SOL    HW238630   7.872   8.582   3.691  1.6177  1.0532 -0.5783
44009SOL     OW38631  12.602   8.921   6.256  0.4060  0.0106  0.3686
44009SOL    HW138632  12.626   9.005   6.297  2.0140 -0.8767  1.3448
44009SOL    HW238633  12.525   8.891   6.305  1.2462 -0.1894  1.6025
44010SOL     OW38634   1.550   6.113   0.016 -0.6885 -0.6905 -0.2928
44010SOL    HW138635   1.532   6.088   0.106  0.8263  1.6902  0.7679
44010SOL    HW238636   1.466   6.147  -0.017 -0.9040 -0.2292  0.7159
44011SOL     OW38637   5.393   6.020  11.525 -0.4133 -0.1971  0.2625
44011SOL    HW138638   5.488   6.008  11.520 -0.5175 -0.6017 -1.0533
44011SOL    HW238639   5.381   6.088  11.591  0.7593 -0.4581  0.7725
44012SOL     OW38640   3.932   6.958   1.902  0.5587  0.0799 -0.2282
44012SOL    HW138641   3.916   6.876   1.855 -1.0412  0.7283 -0.9183
44012SOL    HW238642   3.885   7.024   1.850 -1.3997  0.8261  2.2678
44013SOL     OW38643   6.876   5.985   3.825 -0.1946 -0.1655  0.4072
44013SOL    HW138644   6.915   5.963   3.910  0.3641 -0.0289  0.1851
44013SOL    HW238645   6.787   6.012   3.846 -0.4995 -1.4318  0.8234
44014SOL     OW38646   6.774   3.283  10.818 -0.2717  1.0526 -0.2906
44014SOL    HW138647   6.847   3.221  10.815  0.2681  1.6041  0.8763
44014SOL    HW238648   6.792   3.345  10.747  0.4607  1.2511  0.0647
44015SOL     OW38649   6.288   9.991   3.327  0.1086 -0.8551 -0.7156
44015SOL    HW138650   6.365   9.946   3.362 -0.7978 -1.4569  0.5798
44015SOL    HW238651   6.253  10.041   3.401 -0.5245 -0.2700 -1.3893
44016SOL     OW38652   9.666   6.890   0.425  0.5075 -0.0221 -0.1541
44016SOL    HW138653   9.732   6.906   0.358 -0.1559  1.5081 -0.4834
44016SOL    HW238654   9.716   6.856   0.500  1.5544  0.3281 -0.6709
44017SOL     OW38655   0.850   1.308   3.528 -0.2378 -0.2333  0.2620
44017SOL    HW138656   0.826   1.374   3.463 -0.3932 -0.3637  0.1858
44017SOL    HW238657   0.766   1.269   3.554 -0.2021 -0.0064  0.7295
44018SOL     OW38658   0.420  11.869   6.506  0.1774 -0.1587 -0.3340
44018SOL    HW138659   0.435  11.937   6.440  0.3557 -0.8036 -0.9652
44018SOL    HW238660   0.328  11.880   6.531 -0.2735 -0.7125 -1.6301
44019SOL     OW38661   4.473  10.762   8.431 -0.1379  0.1969 -0.2670
44019SOL    HW138662   4.387  10.798   8.452  0.3987  1.4040 -0.0520
44019SOL    HW238663   4.535  10.821   8.474  0.8649  0.4849 -2.0228
44020SOL     OW38664   3.880  12.512   9.877 -0.5358 -0.0017 -0.3459
44020SOL    HW138665   3.875  12.476   9.788 -0.1503  0.8292 -0.7070
44020SOL    HW238666   3.970  12.542   9.886 -0.4292 -0.5570  0.5242
44021SOL     OW38667  12.719   8.200   7.270 -0.1566  0.2887 -0.0119
44021SOL    HW138668  12.790   8.186   7.333 -0.0460 -0.7844 -0.3619
44021SOL    HW238669  12.734   8.136   7.201 -1.4935 -0.0040 -0.0716
44022SOL     OW38670   1.281   7.823  11.980 -0.2190 -0.5724  0.0149
44022SOL    HW138671   1.329   7.887  12.031  0.3790 -1.0563  0.0604
44022SOL    HW238672   1.261   7.869  11.898 -1.5262  0.3389  0.7972
44023SOL     OW38673  11.894  11.093   4.803  0.3226 -0.4946  0.1381
44023SOL    HW138674  11.810  11.098   4.849  1.0946 -0.6314  1.6121
44023SOL    HW238675  11.877  11.033   4.729 -1.6078  1.6902 -1.3361
44024SOL     OW38676   4.144   8.523   3.370 -0.4901 -0.8367  0.4111
44024SOL    HW138677   4.189   8.539   3.287 -1.3932 -0.4590 -0.0240
44024SOL    HW238678   4.203   8.558   3.437 -0.4647  0.3113 -0.1992
44025SOL     OW38679   3.149  12.415   2.420 -0.7280  0.1790 -0.0956
44025SOL    HW138680   3.134  12.495   2.369 -2.5591 -0.4115 -0.5640
44025SOL    HW238681   3.213  12.365   2.369 -0.5712  0.7524 -0.4697
44026SOL     OW38682  11.203   5.536   2.624  0.2529 -0.3044  0.2689
44026SOL    HW138683  11.230   5.613   2.574 -0.2628  0.0496  0.5245
44026SOL    HW238684  11.212   5.463   2.563  3.4319 -0.5037  0.8107
44027SOL     OW38685   4.304   4.962   6.712 -0.5802  0.7810 -0.0349
44027SOL    HW138686   4.255   4.957   6.630 -0.1020 -0.3972 -0.2732
44027SOL    HW238687   4.396   4.957   6.685 -0.4259  0.0572  0.5824
44028SOL     OW38688   5.346   4.394   0.161  0.2164  0.2509  0.1294
44028SOL    HW138689   5.286   4.433   0.225  2.0360  1.6675  1.0631
44028SOL    HW238690   5.321   4.433   0.077  0.5177  1.7400  0.6911
44029SOL     OW38691   3.100  12.527   1.565 -0.5261 -0.0096  0.0486
44029SOL    HW138692   3.177  12.570   1.526 -1.0425  2.1408  1.2517
44029SOL    HW238693   3.039  12.518   1.492  0.3449 -0.5377 -0.6458
44030SOL     OW38694   3.730   0.574  11.910 -0.1074  0.6077 -0.1981
44030SOL    HW138695   3.756   0.483  11.918 -0.7934  0.3440 -0.8164
44030SOL    HW238696   3.804   0.624  11.943  0.2857 -0.1730  0.1118
44031SOL     OW38697   9.377  12.244   5.061 -0.4354 -0.6239  0.1644
44031SOL    HW138698   9.389  12.206   5.148 -0.3126 -0.9361  0.0151
44031SOL    HW238699   9.351  12.334   5.077  1.2008 -0.1848  0.5150
44032SOL     OW38700   5.907   2.134   5.862  0.1449 -0.3593 -0.1515
44032SOL    HW138701   5.997   2.135   5.893  0.3812 -2.4430 -0.6676
44032SOL    HW238702   5.913   2.163   5.771  0.4598 -1.5417 -0.5204
44033SOL     OW38703   4.884   8.153   2.612 -0.0226  0.6628  0.8644
44033SOL    HW138704   4.854   8.127   2.699 -3.2321  0.6607 -0.1238
44033SOL    HW238705   4.868   8.077   2.557  0.3868  1.2369 -0.0653
44034SOL     OW38706   6.573   8.156   8.193  0.4908  0.9322 -0.0663
44034SOL    HW138707   6.509   8.096   8.231 -0.8445  1.9248 -0.6659
44034SOL    HW238708   6.654   8.105   8.187 -1.1118 -1.5532 -2.5430
44035SOL     OW38709   2.771  10.191   7.569 -0.0035 -0.4205 -0.1547
44035SOL    HW138710   2.739  10.249   7.638  0.8514 -0.7272  0.5335
44035SOL    HW238711   2.695  10.173   7.515 -0.6751 -0.0839  0.6528
44036SOL     OW38712   2.624   5.151   6.035  0.2475 -0.4491 -0.6881
44036SOL    HW138713   2.703   5.121   6.080 -0.1972 -1.1489 -0.3660
44036SOL    HW238714   2.625   5.246   6.049 -0.2622 -0.6947  1.4890
44037SOL     OW38715   5.087  10.344   6.805  0.3480  0.0965 -0.0424
44037SOL    HW138716   5.168  10.381   6.841 -0.3621  0.6331  1.0583
44037SOL    HW238717   5.110  10.319   6.716  1.9420 -0.4874  0.4906
44038SOL     OW38718   2.628   7.032   0.621 -0.4000 -0.1545 -0.0134
44038SOL    HW138719   2.701   6.973   0.639 -1.1969 -0.4529  2.7054
44038SOL    HW238720   2.662   7.119   0.645 -1.3032 -0.4863  2.8219
44039SOL     OW38721   1.229  11.949   5.089 -0.6837  0.0284 -0.3441
44039SOL    HW138722   1.220  11.993   5.174 -4.1082 -0.7372 -0.1849
44039SOL    HW238723   1.146  11.965   5.044 -0.8689 -3.4960 -1.5820
44040SOL     OW38724   2.824  10.439   4.409  0.4880  0.6886  0.5723
44040SOL    HW138725   2.916  10.422   4.430  0.1925 -0.9139  0.6447
44040SOL    HW238726   2.824  10.457   4.315  0.7647 -0.2357  0.3874
44041SOL     OW38727   5.391   7.131   9.190 -0.3863 -0.4347 -0.0664
44041SOL    HW138728   5.359   7.115   9.101 -2.5642  2.4924  0.0236
44041SOL    HW238729   5.313   7.125   9.245  0.7377 -1.1668  1.5140
44042SOL     OW38730  10.546  10.410   3.347  0.2154 -0.1824  0.4472
44042SOL    HW138731  10.467  10.441   3.391 -0.8816 -0.5560 -1.1577
44042SOL    HW238732  10.564  10.477   3.281  0.8629 -0.4257  0.3676
44043SOL     OW38733   5.346   7.990   1.928  0.1126  0.3963  0.0077
44043SOL    HW138734   5.427   8.024   1.966 -0.6788 -0.5720  2.8245
44043SOL    HW238735   5.374   7.913   1.878  0.9918  0.3614  0.5280
44044SOL     OW38736   6.795   1.771   2.922 -0.2239 -0.2247 -0.4864
44044SOL    HW138737   6.787   1.677   2.905  0.9231 -0.6670  1.1025
44044SOL    HW238738   6.890   1.786   2.927 -0.3908  1.0377 -0.7864
44045SOL     OW38739   2.429   8.254  12.384  0.3677 -0.2760 -0.3485
44045SOL    HW138740   2.349   8.207  12.410  1.0322 -0.7211  1.0080
44045SOL    HW238741   2.491   8.236  12.455  1.3053  1.0019 -0.8067
44046SOL     OW38742   4.808   2.434   6.046 -0.2780  0.0158 -0.2190
44046SOL    HW138743   4.740   2.380   6.004 -0.4343  0.7101 -0.8739
44046SOL    HW238744   4.799   2.415   6.140 -0.5501 -0.8376 -0.4076
44047SOL     OW38745   9.373  11.518   1.768 -0.2104  0.6505  0.3331
44047SOL    HW138746   9.464  11.532   1.742 -0.8360  2.6220 -0.9857
44047SOL    HW238747   9.374  11.525   1.864  1.2917 -1.3517  0.5327
44048SOL     OW38748   9.619  10.116  12.027 -0.3258  0.6618 -0.8257
44048SOL    HW138749   9.528  10.090  12.009 -0.4433 -0.0874  0.6859
44048SOL    HW238750   9.616  10.158  12.112  0.8038  0.3263 -0.6022
44049SOL     OW38751   6.805   3.235   6.931 -0.0109  0.5321  0.2097
44049SOL    HW138752   6.814   3.153   6.883 -1.3490 -0.6251  1.8306
44049SOL    HW238753   6.714   3.262   6.916 -0.4274  0.1975  1.9247
44050SOL     OW38754   4.661   9.354   7.525  0.0752  0.6528  0.0221
44050SOL    HW138755   4.752   9.346   7.553  0.0028 -1.8500 -0.2105
44050SOL    HW238756   4.610   9.317   7.598 -0.5595 -0.0951 -0.7757
44051SOL     OW38757   1.589   0.963   7.938 -1.1160 -0.3500 -0.1743
44051SOL    HW138758   1.505   1.007   7.925 -1.6979 -1.3716  0.0334
44051SOL    HW238759   1.570   0.896   8.003 -0.4779 -1.5504 -1.1956
44052SOL     OW38760   3.463   2.932   2.931  0.6302  0.0125 -0.3462
44052SOL    HW138761   3.530   2.990   2.893 -0.2318  1.7241  0.6656
44052SOL    HW238762   3.500   2.904   3.015 -0.2264  1.6686  0.6275
44053SOL     OW38763   5.397   7.094   5.814  0.1095 -0.0312  0.3033
44053SOL    HW138764   5.396   6.998   5.815 -0.2069 -0.0443 -0.5342
44053SOL    HW238765   5.487   7.118   5.793  0.6053 -0.1041  2.1943
44054SOL     OW38766   1.951   2.496  12.300 -0.3232 -0.1979 -0.4935
44054SOL    HW138767   1.895   2.458  12.368  0.4966 -0.5520  0.0038
44054SOL    HW238768   1.992   2.572  12.343  0.5669 -0.7013 -0.4089
44055SOL     OW38769   9.648  12.207   0.915 -0.5755  0.2041  0.5468
44055SOL    HW138770   9.638  12.220   1.010 -0.8593 -0.6895  0.6469
44055SOL    HW238771   9.565  12.238   0.878 -0.4910  0.4866  0.5900
44056SOL     OW38772   5.937   9.566   4.192 -0.1372  0.0558  0.4236
44056SOL    HW138773   6.002   9.581   4.124 -0.8746 -1.7798 -0.7574
44056SOL    HW238774   5.887   9.648   4.196 -1.0089 -0.2401 -2.3460
44057SOL     OW38775   7.367   8.658   0.750  0.0785 -0.2965  1.0955
44057SOL    HW138776   7.454   8.653   0.708 -0.1331 -1.2083  0.7301
44057SOL    HW238777   7.355   8.751   0.769 -0.1505  0.3235 -1.6371
44058SOL     OW38778   5.199   2.022   6.256 -0.1704 -0.0356 -0.9133
44058SOL    HW138779   5.118   2.024   6.307  0.2900 -1.8852 -0.0286
44058SOL    HW238780   5.266   2.053   6.317 -0.2205  2.0105 -1.8029
44059SOL     OW38781  11.662   9.123   6.554  0.3657  0.7387 -0.4090
44059SOL    HW138782  11.682   9.154   6.642 -1.5306  0.5618  0.1440
44059SOL    HW238783  11.664   9.027   6.560 -1.2122  0.6924 -0.1327
44060SOL     OW38784   1.980  11.313   7.286 -0.2561  0.0347 -0.5486
44060SOL    HW138785   1.918  11.365   7.234 -0.0614 -0.4656 -1.2954
44060SOL    HW238786   1.925  11.253   7.335 -0.6063  1.8522  1.4420
44061SOL     OW38787   6.126   0.760   1.418 -0.1288  0.2754 -0.1219
44061SOL    HW138788   6.167   0.846   1.412 -0.6921  0.5869  0.4228
44061SOL    HW238789   6.134   0.724   1.329 -1.2540  1.5301 -0.7692
44062SOL     OW38790   6.369  11.950   6.837 -0.5339  0.1129  0.8913
44062SOL    HW138791   6.328  11.867   6.813 -0.4088  0.9136 -2.7236
44062SOL    HW238792   6.295  12.011   6.844 -0.3765  0.6169 -1.2110
44063SOL     OW38793  12.093   8.220  12.656  0.0101 -0.1530  0.3920
44063SOL    HW138794  12.066   8.137  12.694 -0.2266 -0.1168  0.3061
44063SOL    HW238795  12.088   8.282  12.729 -0.9143  0.0177  0.2067
44064SOL     OW38796  12.156   6.427   9.975 -0.2372  0.1749  0.3243
44064SOL    HW138797  12.249   6.410   9.958 -0.3568 -0.1520  0.0106
44064SOL    HW238798  12.146   6.411  10.069  0.6721  3.0598  1.0489
44065SOL     OW38799   4.437   2.489   8.912  0.7930  0.2268  0.0525
44065SOL    HW138800   4.369   2.505   8.847  0.6548 -0.2251  0.0858
44065SOL    HW238801   4.404   2.531   8.992  0.0781 -0.8695  0.3438
44066SOL     OW38802   8.681   1.572   6.216 -0.0260 -0.0230  0.6506
44066SOL    HW138803   8.628   1.612   6.147 -0.7508 -0.1054  1.1540
44066SOL    HW238804   8.704   1.644   6.274 -0.3832 -0.1364  0.9409
44067SOL     OW38805   5.517   1.905  11.043 -0.1725  0.1651 -0.0859
44067SOL    HW138806   5.543   1.830  11.097 -0.7083  0.1839  0.2120
44067SOL    HW238807   5.547   1.883  10.955 -0.0870 -0.2789  0.0488
44068SOL     OW38808   9.094   9.677   4.895 -0.3597 -0.0517 -0.0416
44068SOL    HW138809   9.084   9.714   4.807  1.5538  1.3990  0.2851
44068SOL    HW238810   9.027   9.609   4.900 -0.9239  0.2433 -2.3912
44069SOL     OW38811  10.894   4.199   9.157 -0.5639 -0.4605  0.3442
44069SOL    HW138812  10.856   4.249   9.085 -0.4949  0.3472  0.8564
44069SOL    HW238813  10.981   4.236   9.168 -1.0363  0.3300  1.6836
44070SOL     OW38814  12.185  11.741  12.007  0.3678  1.0093 -0.0398
44070SOL    HW138815  12.233  11.682  12.064 -2.0081  1.7630  2.9901
44070SOL    HW238816  12.205  11.829  12.041 -2.6605  1.3605  1.0807
44071SOL     OW38817   3.894   0.756   0.812  0.0398  0.0248 -0.2875
44071SOL    HW138818   3.824   0.821   0.803  1.3466  1.5301 -0.0250
44071SOL    HW238819   3.918   0.758   0.905 -0.4448 -1.4553 -0.1051
44072SOL     OW38820  12.710   8.254   1.177  0.1230  0.1946  0.2443
44072SOL    HW138821  12.802   8.227   1.182  0.1645 -0.0959 -1.3043
44072SOL    HW238822  12.686   8.277   1.266  2.0670  1.4514  0.4921
44073SOL     OW38823   4.418   5.637   3.173 -0.1413  0.2540 -0.1342
44073SOL    HW138824   4.434   5.657   3.266 -0.3637  1.2240 -0.2914
44073SOL    HW238825   4.323   5.627   3.167 -0.0035 -1.3844  0.0241
44074SOL     OW38826   2.152   0.272   4.566 -0.1285  0.4969 -0.0712
44074SOL    HW138827   2.058   0.270   4.587 -0.0491 -0.2280  0.2264
44074SOL    HW238828   2.182   0.356   4.602 -0.4614  0.2827  0.7361
44075SOL     OW38829   7.241  12.010   4.965 -0.2993 -0.5835 -0.8668
44075SOL    HW138830   7.150  12.037   4.966 -0.3668 -0.8149 -0.6217
44075SOL    HW238831   7.239  11.916   4.979 -0.0197 -0.5700 -0.7100
44076SOL     OW38832   1.889  12.125  12.372 -0.1849  0.1263 -0.2291
44076SOL    HW138833   1.947  12.173  12.312  0.2725 -0.5670 -0.3524
44076SOL    HW238834   1.811  12.180  12.379  0.5652  1.1820  0.0979
44077SOL     OW38835   4.163  11.630   9.786 -0.3692 -0.0348  0.2088
44077SOL    HW138836   4.250  11.669   9.778 -1.2655  2.2000  0.6295
44077SOL    HW238837   4.132  11.621   9.696  0.2628 -0.8712  0.0559
44078SOL     OW38838   1.417   2.034   0.791  0.0621 -0.3277  0.6691
44078SOL    HW138839   1.412   2.064   0.700 -1.1269  0.0667  0.8568
44078SOL    HW238840   1.377   2.104   0.842 -0.2381 -1.0194  1.3941
44079SOL     OW38841   7.129   0.324   1.754 -0.2280 -0.1984 -0.2681
44079SOL    HW138842   7.171   0.397   1.799  0.4192 -1.1991  0.7779
44079SOL    HW238843   7.037   0.329   1.781  0.0589 -0.4961  0.7978
44080SOL     OW38844  12.532   2.634  10.675 -0.0910 -0.0802 -0.3514
44080SOL    HW138845  12.620   2.649  10.641  0.9788 -2.4573  1.0740
44080SOL    HW238846  12.480   2.707  10.641  2.1625  0.8314 -2.1121
44081SOL     OW38847   7.160   3.004  10.927 -0.2805  0.5179  0.0183
44081SOL    HW138848   7.154   2.933  10.864  0.1114  1.3341 -0.9840
44081SOL    HW238849   7.204   2.966  11.003 -1.3985 -0.6679  0.0968
44082SOL     OW38850   0.376   5.927   9.435  0.3263  0.1058 -0.3800
44082SOL    HW138851   0.344   5.853   9.384 -1.3774 -0.3308  1.1872
44082SOL    HW238852   0.463   5.901   9.464  0.5933 -0.3751 -1.5656
44083SOL     OW38853   3.551   1.272  10.505 -0.0755 -0.6458 -0.0437
44083SOL    HW138854   3.466   1.235  10.528 -0.5674  0.2082 -0.4718
44083SOL    HW238855   3.577   1.225  10.426 -1.4501  0.9771 -1.5393
44084SOL     OW38856   1.093  11.238   0.679  0.2507  0.2005  0.2332
44084SOL    HW138857   1.123  11.153   0.649 -0.5121  0.2399 -0.6702
44084SOL    HW238858   1.163  11.270   0.736  0.1255 -1.4410  1.3573
44085SOL     OW38859   6.122  12.046   6.205  0.1747  0.1971  0.4267
44085SOL    HW138860   6.098  12.132   6.239 -1.3247  0.1111 -0.3514
44085SOL    HW238861   6.122  12.057   6.110  0.2639 -0.6043  0.3291
44086SOL     OW38862   0.802   2.090  10.673  0.2093  0.0582  0.5710
44086SOL    HW138863   0.849   2.065  10.594 -1.6951 -0.5542 -0.4262
44086SOL    HW238864   0.835   2.030  10.741  1.6639  0.4174  0.2155
44087SOL     OW38865   9.591   6.285   9.123 -0.1363 -0.6769  0.2723
44087SOL    HW138866   9.520   6.224   9.141 -1.7549  1.2401  0.8007
44087SOL    HW238867   9.603   6.332   9.206  0.9158 -0.1471 -0.1639
44088SOL     OW38868   2.822  11.625   6.428  0.0095  0.1173 -0.3570
44088SOL    HW138869   2.777  11.589   6.352  0.8065  0.9350 -1.2471
44088SOL    HW238870   2.840  11.549   6.484 -0.9302 -0.4344 -0.7907
44089SOL     OW38871   3.267   8.304   6.109 -0.5056  0.1550 -0.1062
44089SOL    HW138872   3.347   8.351   6.136 -0.0631 -0.2202 -0.7419
44089SOL    HW238873   3.289   8.265   6.025 -0.7043 -1.5484  0.5765
44090SOL     OW38874   2.999   5.215  11.006 -0.2167 -0.1817  0.5490
44090SOL    HW138875   2.915   5.214  11.051  0.7458 -3.4793  2.5934
44090SOL    HW238876   3.047   5.288  11.047 -1.7199  1.2476 -0.1220
44091SOL     OW38877   4.179   5.514   7.471 -0.3112  0.3155  0.2895
44091SOL    HW138878   4.246   5.565   7.517 -0.4666  0.1182  0.7374
44091SOL    HW238879   4.104   5.573   7.464 -0.2428  0.3904  0.1658
44092SOL     OW38880   1.650   8.422   1.890 -0.5028  0.8864  0.2091
44092SOL    HW138881   1.712   8.368   1.939 -1.2404  0.0465  0.2601
44092SOL    HW238882   1.689   8.432   1.804 -0.4080  0.1398  0.1573
44093SOL     OW38883   6.745   0.916   0.394  0.5172  0.3055  0.6649
44093SOL    HW138884   6.838   0.930   0.412  0.1868  2.0782  1.2236
44093SOL    HW238885   6.701   0.985   0.444 -0.9052  1.3096 -1.7985
44094SOL     OW38886  10.503   0.368  11.909 -0.4474  0.3139 -0.3141
44094SOL    HW138887  10.486   0.379  12.003  0.8652  0.6390 -0.0964
44094SOL    HW238888  10.568   0.298  11.905  0.9584  1.6082 -0.8419
44095SOL     OW38889   2.757   7.833   5.492  0.1581 -0.3534  0.7869
44095SOL    HW138890   2.765   7.925   5.519 -1.4735  0.0712 -0.0803
44095SOL    HW238891   2.805   7.827   5.410 -0.0412 -0.1924  0.6597
44096SOL     OW38892   2.190   2.475   2.124  0.0434 -0.3061 -0.9007
44096SOL    HW138893   2.236   2.545   2.172  0.1665 -1.2955  0.4742
44096SOL    HW238894   2.154   2.519   2.047  1.7392  0.8767 -1.0678
44097SOL     OW38895   7.742   1.876   9.976  0.1193  0.1038  0.1287
44097SOL    HW138896   7.805   1.916   9.917  0.0701  0.8882  0.5957
44097SOL    HW238897   7.664   1.931   9.969 -0.3346 -0.5455 -0.0424
44098SOL     OW38898   6.711  11.255   0.056 -0.0499  0.0505 -0.2574
44098SOL    HW138899   6.705  11.305   0.137  1.5314  0.9546 -0.6518
44098SOL    HW238900   6.805  11.245   0.041 -0.2920  0.1173 -2.0857
44099SOL     OW38901   3.314  12.213   7.949  0.2754 -0.1024 -0.2595
44099SOL    HW138902   3.260  12.147   7.903  0.2684  0.7427 -1.5106
44099SOL    HW238903   3.251  12.262   8.002  0.3316 -1.3168  1.0015
44100SOL     OW38904   5.626   4.918   4.816 -0.6133 -0.0819 -0.1452
44100SOL    HW138905   5.664   4.871   4.741  1.9227 -0.8900  1.4954
44100SOL    HW238906   5.661   5.007   4.809 -2.4567  0.6100 -1.2460
44101SOL     OW38907   4.053   1.954   5.342 -0.0467  0.3326 -0.3321
44101SOL    HW138908   4.141   1.950   5.304 -0.6420  2.5564 -2.1827
44101SOL    HW238909   3.996   1.919   5.273 -0.8042  0.8113  0.0417
44102SOL     OW38910   6.387   4.904   6.477 -0.4043 -0.5011  0.0970
44102SOL    HW138911   6.355   4.939   6.394  0.4206  0.6583  0.2404
44102SOL    HW238912   6.308   4.885   6.527 -0.8932  0.3350 -0.3407
44103SOL     OW38913   4.047  11.751   8.232 -0.3556 -0.1959  0.5085
44103SOL    HW138914   4.072  11.717   8.318 -2.1846 -0.6546  0.9133
44103SOL    HW238915   4.126  11.744   8.179  1.2424  1.4971  2.5402
44104SOL     OW38916   6.540   2.277   9.372  0.2594  0.3211 -0.1473
44104SOL    HW138917   6.458   2.292   9.418  0.7159  1.8456  0.2541
44104SOL    HW238918   6.605   2.270   9.442  0.7635  1.2835 -0.5004
44105SOL     OW38919   3.414   0.593  11.580  0.1302 -0.3092 -0.0837
44105SOL    HW138920   3.485   0.528  11.574 -0.7237 -1.3782  0.9004
44105SOL    HW238921   3.334   0.541  11.571 -0.5488  0.8615 -1.0354
44106SOL     OW38922   3.499   6.692   3.506 -0.0065  0.1101  0.3865
44106SOL    HW138923   3.594   6.698   3.513  0.0706 -0.7480  0.1949
44106SOL    HW238924   3.477   6.752   3.435  0.5344 -0.5941 -0.4007
44107SOL     OW38925   0.208  10.176   9.328  0.1319  0.0757 -0.1093
44107SOL    HW138926   0.171  10.177   9.240 -0.6932 -1.0754  0.1865
44107SOL    HW238927   0.276  10.243   9.327 -2.3672  2.8310 -0.4988
44108SOL     OW38928   5.066   3.433   7.525  0.0537  0.0329  0.0031
44108SOL    HW138929   5.008   3.472   7.590  0.2193  0.2495  0.0226
44108SOL    HW238930   5.152   3.471   7.543 -0.1587  1.1824 -1.2032
44109SOL     OW38931   1.146   1.207   4.362 -0.6495 -0.0271 -0.1265
44109SOL    HW138932   1.225   1.259   4.371 -1.1911  0.8957 -0.6004
44109SOL    HW238933   1.074   1.271   4.361 -1.3395 -0.7833 -0.5421
44110SOL     OW38934   3.976   1.711   1.154  0.2708 -0.0501 -0.6928
44110SOL    HW138935   3.898   1.754   1.121  1.0312  0.3276 -2.0473
44110SOL    HW238936   3.951   1.619   1.164 -0.4848  0.1612 -0.5996
44111SOL     OW38937   1.987   1.940   3.162 -0.5251 -0.0081  0.1459
44111SOL    HW138938   1.897   1.939   3.129  0.0893 -1.3341 -1.7154
44111SOL    HW238939   1.991   1.865   3.221 -0.3100 -0.8831 -0.9318
44112SOL     OW38940  11.213   0.183   8.539  0.1424  0.5940 -0.7188
44112SOL    HW138941  11.308   0.193   8.546  0.4027 -0.6882 -1.8411
44112SOL    HW238942  11.180   0.196   8.627  1.4535  0.2365 -0.1554
44113SOL     OW38943   5.438   1.140   5.563  0.4385  0.1518  0.0473
44113SOL    HW138944   5.394   1.188   5.633  1.2464 -0.9760  1.3826
44113SOL    HW238945   5.529   1.136   5.591  0.5697 -1.2581 -0.5274
44114SOL     OW38946   4.805   0.904   6.513 -0.3552 -0.6247  0.4200
44114SOL    HW138947   4.863   0.929   6.442 -0.2316 -0.8250  0.4476
44114SOL    HW238948   4.860   0.851   6.571 -0.2432  0.1828  1.0704
44115SOL     OW38949   0.331   3.944  10.222  0.3675  0.2537  0.2434
44115SOL    HW138950   0.424   3.928  10.204  0.3648  1.1154 -0.6011
44115SOL    HW238951   0.331   4.020  10.280  0.1998  0.0837  0.4670
44116SOL     OW38952   4.709   3.589   3.241  0.3926  0.5927  0.4534
44116SOL    HW138953   4.783   3.578   3.301  0.3204  0.7040  0.5624
44116SOL    HW238954   4.656   3.510   3.253  0.9702  0.0785 -0.2924
44117SOL     OW38955   2.769   8.470   6.334  0.0220  0.0942 -0.1540
44117SOL    HW138956   2.715   8.504   6.405 -1.0120 -1.2671 -0.2445
44117SOL    HW238957   2.794   8.382   6.364  0.2131 -0.1965 -1.1333
44118SOL     OW38958   9.865   6.761   4.299  0.3004  0.5896 -0.3923
44118SOL    HW138959   9.798   6.830   4.301  0.4221  0.7744 -1.6610
44118SOL    HW238960   9.891   6.756   4.206  1.2570 -0.2354 -0.0952
44119SOL     OW38961   5.720   2.227   8.517 -0.2664 -0.4810 -0.8578
44119SOL    HW138962   5.813   2.247   8.503 -0.8440  2.2858 -1.3615
44119SOL    HW238963   5.720   2.170   8.594  1.7446  2.5268  1.6594
44120SOL     OW38964   7.552   7.996  10.603  0.0132 -0.1365  0.0245
44120SOL    HW138965   7.546   7.995  10.507  1.2728  0.3822 -0.0756
44120SOL    HW238966   7.603   7.919  10.625  2.7084  1.4885 -0.0219
44121SOL     OW38967   3.606   6.157   7.739 -0.6693  0.3956 -0.0912
44121SOL    HW138968   3.658   6.117   7.808  1.0067  1.8955 -0.4140
44121SOL    HW238969   3.542   6.212   7.786 -0.8636 -0.1400  0.2796
44122SOL     OW38970   6.602   9.601   4.091 -0.1965 -0.3816  0.2119
44122SOL    HW138971   6.570   9.516   4.120 -0.1571  0.2821  2.3383
44122SOL    HW238972   6.527   9.641   4.047  0.1994 -2.0355 -2.1842
44123SOL     OW38973   6.248  11.833   2.542 -0.2451  0.5115  0.0371
44123SOL    HW138974   6.183  11.788   2.487 -0.5074 -1.1727  1.6456
44123SOL    HW238975   6.201  11.910   2.576 -1.0104 -0.0289  0.2160
44124SOL     OW38976   5.569   6.884   2.730 -0.3561  0.4725  0.2362
44124SOL    HW138977   5.650   6.845   2.698 -0.4033  0.3551  0.2591
44124SOL    HW238978   5.598   6.952   2.792 -0.1819  2.0809 -1.5003
44125SOL     OW38979  12.465   7.239   3.368  0.0394  0.0379  0.1099
44125SOL    HW138980  12.537   7.264   3.309 -0.1080 -0.8268 -0.4674
44125SOL    HW238981  12.405   7.191   3.311 -0.3150 -0.4471  0.8915
44126SOL     OW38982   9.718   1.477   1.313  0.0364  0.1918 -0.0323
44126SOL    HW138983   9.733   1.389   1.279  0.6537  0.4494 -0.4387
44126SOL    HW238984   9.686   1.463   1.403 -0.5004 -0.4552 -0.3148
44127SOL     OW38985  11.239   4.968  12.134  0.8426 -0.0720  0.2222
44127SOL    HW138986  11.234   4.890  12.079  1.0907 -0.4056  0.6591
44127SOL    HW238987  11.332   4.989  12.138  0.6603  1.1319 -1.0837
44128SOL     OW38988  10.622   2.334   2.003 -0.3809 -0.4235 -0.1269
44128SOL    HW138989  10.597   2.320   2.094 -1.3676  0.2918 -0.2635
44128SOL    HW238990  10.643   2.246   1.970 -1.6601 -0.9412  0.3361
44129SOL     OW38991   4.588   9.601  10.352  0.0796 -0.6693  0.3930
44129SOL    HW138992   4.494   9.599  10.335  0.4277 -1.6502 -1.7170
44129SOL    HW238993   4.627   9.629  10.270  1.6698 -0.6113  1.1232
44130SOL     OW38994   5.111   5.238  10.992  0.6105 -0.0843  0.4084
44130SOL    HW138995   5.164   5.189  11.055 -0.8108 -1.4497  0.6104
44130SOL    HW238996   5.132   5.199  10.907 -0.4854 -1.0856  0.5638
44131SOL     OW38997   8.350   9.840  11.774 -0.5358  0.4456 -0.4007
44131SOL    HW138998   8.264   9.850  11.815 -0.1504 -1.4151  1.0125
44131SOL    HW238999   8.336   9.773  11.707 -0.5636  1.5474 -1.5388
44132SOL     OW39000  10.867   0.302   7.709 -0.7250  0.1473  0.2607
44132SOL    HW139001  10.867   0.237   7.779  0.1638  0.0518  0.1950
44132SOL    HW239002  10.833   0.256   7.632  2.0944 -1.0316 -0.4265
44133SOL     OW39003   6.624   8.925   6.479 -0.2563  0.2668 -0.3518
44133SOL    HW139004   6.577   8.952   6.400  0.2450  1.7952 -0.1745
44133SOL    HW239005   6.667   9.005   6.509  2.3113 -0.9996 -0.3981
44134SOL     OW39006   7.863   5.779   3.129  0.4646  0.0537  0.2834
44134SOL    HW139007   7.826   5.866   3.146 -1.3514 -0.8128  1.0050
44134SOL    HW239008   7.787   5.724   3.109  1.4876 -1.5379  0.5959
44135SOL     OW39009   3.261   2.621  10.915  0.0681  0.6077 -0.8793
44135SOL    HW139010   3.215   2.542  10.886  0.2388 -0.6316  1.9585
44135SOL    HW239011   3.353   2.599  10.905  0.2257 -0.6853  2.2304
44136SOL     OW39012   7.642   6.484  10.672  0.2215 -0.2265  0.0386
44136SOL    HW139013   7.641   6.440  10.757 -0.2491  0.1660  0.2398
44136SOL    HW239014   7.707   6.554  10.681  1.3982 -1.2148 -0.4653
44137SOL     OW39015   0.647   4.471  11.731 -0.3368  0.3080 -0.2139
44137SOL    HW139016   0.621   4.379  11.737  0.0070  0.0891 -1.6644
44137SOL    HW239017   0.722   4.471  11.671  1.4257  1.2163  1.8233
44138SOL     OW39018   9.523   0.484   9.436 -0.6713 -0.5767 -0.2237
44138SOL    HW139019   9.499   0.405   9.485 -1.5147 -1.4095 -1.8645
44138SOL    HW239020   9.568   0.539   9.499 -2.5766 -1.1381  1.7619
44139SOL     OW39021   1.326   4.358  11.375  0.2198  0.1502 -0.0682
44139SOL    HW139022   1.318   4.452  11.391 -1.0654 -0.1202  1.1047
44139SOL    HW239023   1.420   4.341  11.378  0.3993  1.1770  1.2258
44140SOL     OW39024  12.690   7.665   4.191  0.0676  0.3064 -0.2972
44140SOL    HW139025  12.730   7.615   4.262  0.2179  0.3324 -0.3631
44140SOL    HW239026  12.663   7.747   4.231 -0.1660  0.1756 -0.1918
44141SOL     OW39027   2.394  11.973   8.775  0.1316 -0.4886 -0.0686
44141SOL    HW139028   2.440  12.050   8.743  0.5116 -0.4971  0.4432
44141SOL    HW239029   2.458  11.928   8.831 -0.1078 -1.1355 -0.3020
44142SOL     OW39030   7.024   1.487   9.413  0.0214  0.2876  0.2383
44142SOL    HW139031   7.003   1.579   9.428  1.6575  0.3486  2.6374
44142SOL    HW239032   6.956   1.439   9.461  0.0096  0.2777  0.2117
44143SOL     OW39033  11.752   0.087  10.983  0.1584  0.5143  0.2724
44143SOL    HW139034  11.664   0.116  10.958 -0.2591 -1.7290 -1.0768
44143SOL    HW239035  11.738   0.023  11.053  0.4411 -1.7161 -1.6014
44144SOL     OW39036  10.024   8.229  12.256  0.2042 -0.4176  0.0952
44144SOL    HW139037  10.118   8.246  12.268  0.4636 -1.0309 -0.9953
44144SOL    HW239038  10.006   8.154  12.314  0.0588  0.5766  1.3806
44145SOL     OW39039  10.485   3.956   1.307 -0.1489 -0.5818  0.1315
44145SOL    HW139040  10.449   3.871   1.332 -1.2983  0.3661  1.9090
44145SOL    HW239041  10.428   3.986   1.237  0.1710 -1.1837 -0.4004
44146SOL     OW39042   3.849   6.030   6.122 -0.1778  0.6317 -0.3881
44146SOL    HW139043   3.827   6.092   6.192 -1.1366  0.2941 -0.3674
44146SOL    HW239044   3.773   6.034   6.063  0.5853  0.8701 -1.3944
44147SOL     OW39045  11.903   8.847  10.670 -0.4485  0.1045  0.3917
44147SOL    HW139046  11.943   8.875  10.753  1.7050 -0.5540 -0.3656
44147SOL    HW239047  11.872   8.929  10.631  0.5259  0.7291  0.8537
44148SOL     OW39048   2.981   4.100   3.066  0.1206 -0.2206  0.4972
44148SOL    HW139049   2.993   4.160   3.140  0.9932  1.0655 -0.6426
44148SOL    HW239050   3.046   4.031   3.080 -0.0996 -0.2930  1.2031
44149SOL     OW39051  11.365   8.638   3.828 -0.2883  0.6411  0.0595
44149SOL    HW139052  11.451   8.598   3.840 -0.1860  1.1639  1.2442
44149SOL    HW239053  11.305   8.581   3.876 -0.6474  0.1774 -0.9145
44150SOL     OW39054   5.489   4.734   0.739  0.0437  0.5280 -0.0382
44150SOL    HW139055   5.503   4.680   0.662  0.2014  0.0465  0.3280
44150SOL    HW239056   5.556   4.803   0.732  1.3364 -0.6098  0.6599
44151SOL     OW39057   4.206   0.040  11.211  0.1164  0.5056 -0.0750
44151SOL    HW139058   4.288   0.061  11.256  0.6920 -2.0423  0.2355
44151SOL    HW239059   4.217   0.078  11.124  2.1878 -0.7343 -0.4386
44152SOL     OW39060   1.020   1.846   7.308  0.4865 -0.4643  0.4330
44152SOL    HW139061   0.933   1.885   7.317  0.6029 -0.2611  0.6761
44152SOL    HW239062   1.075   1.896   7.369  0.0024 -2.9803  3.1405
44153SOL     OW39063   1.467   9.455   8.820  0.3291 -0.5641 -0.5435
44153SOL    HW139064   1.435   9.458   8.730  1.9311  1.7697 -1.1225
44153SOL    HW239065   1.563   9.450   8.812  0.4935 -0.5534  1.0290
44154SOL     OW39066   8.531   5.204   3.214 -0.4296  0.5620 -0.5883
44154SOL    HW139067   8.541   5.299   3.201 -1.9300  0.5947 -1.8698
44154SOL    HW239068   8.451   5.182   3.166 -0.0958 -1.3770 -0.3362
44155SOL     OW39069   6.294   5.551  12.756  0.3130  0.0570 -0.4025
44155SOL    HW139070   6.333   5.466  12.777 -0.0793 -0.2147 -0.7803
44155SOL    HW239071   6.256   5.581  12.839 -0.4455 -0.6076 -0.5021
44156SOL     OW39072  11.814  11.233   5.565 -0.2415 -0.0566 -0.1441
44156SOL    HW139073  11.874  11.308   5.567  1.7159 -1.5632  0.6733
44156SOL    HW239074  11.755  11.248   5.639 -0.3285  1.0085 -0.4100
44157SOL     OW39075   7.213   9.314   7.884  0.1432 -0.2059  0.3401
44157SOL    HW139076   7.286   9.353   7.836 -0.5425  0.6767  0.0130
44157SOL    HW239077   7.241   9.318   7.976  0.2376  0.7271  0.2797
44158SOL     OW39078   8.622   7.447   5.926  0.8164 -0.7208 -0.3310
44158SOL    HW139079   8.710   7.436   5.960  1.1227 -0.5410 -1.0448
44158SOL    HW239080   8.573   7.372   5.960  1.3716 -1.0814 -0.3237
44159SOL     OW39081   4.578   0.811   9.969 -0.2755 -0.5286  0.2191
44159SOL    HW139082   4.647   0.823  10.034 -0.5821  3.2435  0.0560
44159SOL    HW239083   4.498   0.841  10.014 -0.7346  0.7171 -1.3425
44160SOL     OW39084   2.189   7.637   2.003  0.0847  0.1618 -0.0957
44160SOL    HW139085   2.128   7.712   2.003 -0.5778 -0.3283  1.4912
44160SOL    HW239086   2.264   7.668   1.953 -0.7154  1.4302 -0.5883
44161SOL     OW39087   6.221   6.601   6.703 -0.1785  0.7916  0.4743
44161SOL    HW139088   6.314   6.623   6.701  0.2555 -0.8800  1.0796
44161SOL    HW239089   6.199   6.595   6.795 -0.3959 -0.7293  0.3372
44162SOL     OW39090   4.217  11.751  10.424  0.1859 -0.0272 -0.3550
44162SOL    HW139091   4.187  11.673  10.472  0.4154  0.6980  1.0106
44162SOL    HW239092   4.310  11.733  10.407 -0.2854 -1.0509 -2.1373
44163SOL     OW39093   5.278   9.325   8.664 -0.3349  0.8777  0.4592
44163SOL    HW139094   5.292   9.234   8.688  1.2308  1.2081  0.9230
44163SOL    HW239095   5.185   9.330   8.641 -0.1945 -1.0906 -0.7651
44164SOL     OW39096   5.167  10.567  11.689 -0.2665  0.0854  0.3378
44164SOL    HW139097   5.073  10.582  11.680 -0.3157 -0.5779 -0.3568
44164SOL    HW239098   5.173  10.489  11.744 -0.1040  0.4006  0.7747
44165SOL     OW39099   4.386  10.337   9.309 -0.2008  0.5064  0.2891
44165SOL    HW139100   4.390  10.348   9.404 -0.4286 -0.6208  0.4429
44165SOL    HW239101   4.465  10.381   9.277  2.4064 -2.8912  1.4042
44166SOL     OW39102  10.203   8.208   1.363  0.2258 -0.0420 -0.4739
44166SOL    HW139103  10.295   8.230   1.373  0.1421 -0.0622  0.4415
44166SOL    HW239104  10.176   8.251   1.282  1.1371 -0.3848 -0.9716
44167SOL     OW39105   3.957   8.514   7.725 -0.1558  0.1883  0.1005
44167SOL    HW139106   3.963   8.599   7.681 -1.1273 -0.1255 -0.6679
44167SOL    HW239107   3.963   8.535   7.818  2.0843  0.8600 -0.1175
44168SOL     OW39108   4.566   1.363  10.893 -0.4013 -0.4018  0.2005
44168SOL    HW139109   4.621   1.420  10.946  0.0990 -0.8554  0.1746
44168SOL    HW239110   4.515   1.423  10.838  0.3430  0.0083 -0.0457
44169SOL     OW39111   3.739   6.915  10.701  0.0765  0.1094  0.5187
44169SOL    HW139112   3.746   6.865  10.620  0.1127 -0.5348  0.9118
44169SOL    HW239113   3.645   6.918  10.719  0.0861  0.0350  0.5828
44170SOL     OW39114  10.913  12.104   8.196 -0.0703 -0.1566 -0.6056
44170SOL    HW139115  10.840  12.056   8.158  0.5217 -1.5527 -0.0447
44170SOL    HW239116  10.893  12.109   8.290  0.2014  0.0966 -0.5582
44171SOL     OW39117   9.946   2.805   4.026 -0.2422 -0.3241 -0.0777
44171SOL    HW139118   9.882   2.758   4.080 -0.8230 -0.3261 -0.7528
44171SOL    HW239119   9.970   2.742   3.958 -1.0355  0.3450 -0.9979
44172SOL     OW39120   0.059   3.285   6.649 -0.5455 -0.4324  0.4310
44172SOL    HW139121   0.126   3.344   6.683 -1.2110  1.1495 -0.8539
44172SOL    HW239122   0.078   3.201   6.689  1.0213  0.4308  1.6007
44173SOL     OW39123   4.278   9.808   0.877 -0.0069 -0.3398 -0.0962
44173SOL    HW139124   4.183   9.806   0.865 -0.2926 -2.0738  1.8238
44173SOL    HW239125   4.298   9.900   0.895 -0.8909  0.4974 -2.9985
44174SOL     OW39126  11.280   0.151   8.261 -0.0707 -0.1144 -0.0545
44174SOL    HW139127  11.244   0.176   8.346  0.3286 -0.0051  0.0826
44174SOL    HW239128  11.269   0.056   8.258 -0.1888 -0.1057  0.0705
44175SOL     OW39129  12.323   4.722   3.068  0.4268  0.1656  0.2971
44175SOL    HW139130  12.263   4.791   3.098  1.4800  1.2315  0.0076
44175SOL    HW239131  12.287   4.642   3.106 -2.3411  0.4243 -1.5007
44176SOL     OW39132   4.887   8.830   7.107  0.1966  0.0332  0.7386
44176SOL    HW139133   4.838   8.748   7.113  0.1182 -0.0274 -0.4332
44176SOL    HW239134   4.846   8.887   7.171 -1.4071 -0.0344 -0.1543
44177SOL     OW39135   6.391  11.142   5.742  0.2536  0.2672  0.0442
44177SOL    HW139136   6.431  11.225   5.715  0.6265 -0.3606 -1.4219
44177SOL    HW239137   6.442  11.075   5.697 -1.1485 -0.6747 -0.2014
44178SOL     OW39138   3.981  10.905   7.315 -0.1325  0.4456 -0.2418
44178SOL    HW139139   3.956  10.891   7.406  2.0763  2.7069  0.8040
44178SOL    HW239140   3.898  10.912   7.268 -1.3502  1.2006  1.9171
44179SOL     OW39141   5.341   7.741  12.318 -0.0063  0.2764 -0.0482
44179SOL    HW139142   5.390   7.816  12.352 -1.3290  1.3979 -0.5086
44179SOL    HW239143   5.263   7.779  12.279 -0.4413 -1.3152 -0.8263
44180SOL     OW39144   4.531   7.286   6.831 -0.1642 -0.3014  0.2261
44180SOL    HW139145   4.529   7.245   6.917  2.1202 -0.8548  0.0729
44180SOL    HW239146   4.479   7.366   6.841 -0.6878 -0.8138  1.8516
44181SOL     OW39147   2.466   0.221   3.513 -0.2457  0.4954  0.0622
44181SOL    HW139148   2.517   0.150   3.475 -0.8295  0.2471 -0.2724
44181SOL    HW239149   2.479   0.213   3.607 -1.9224 -1.3339  0.2088
44182SOL     OW39150   6.071   0.141   7.548  0.4050 -0.3142  0.1888
44182SOL    HW139151   6.098   0.172   7.461 -1.9144 -0.8059 -0.7894
44182SOL    HW239152   6.152   0.140   7.599  1.8044  0.2791 -1.8668
44183SOL     OW39153   2.901   8.350   6.752 -0.3367  0.4080 -0.0678
44183SOL    HW139154   2.951   8.412   6.698 -1.3270  0.3461 -1.0947
44183SOL    HW239155   2.941   8.265   6.735  0.6366  0.6603  0.8732
44184SOL     OW39156   1.342   5.792   4.507 -0.2572 -0.2928 -0.1073
44184SOL    HW139157   1.300   5.852   4.570 -0.4508  0.7362 -1.1796
44184SOL    HW239158   1.349   5.709   4.555  1.1712  0.8742  1.8911
44185SOL     OW39159   4.777   1.575  10.551 -0.7051 -0.1460  0.0839
44185SOL    HW139160   4.824   1.492  10.540  0.4396  0.3543  0.9611
44185SOL    HW239161   4.795   1.625  10.471  0.6397  0.2066  0.5878
44186SOL     OW39162   8.611  10.827   5.992  0.5969  0.3993  0.6315
44186SOL    HW139163   8.597  10.898   6.055  0.7729  0.5278  0.5269
44186SOL    HW239164   8.656  10.869   5.919 -0.3829  0.4361  0.0284
44187SOL     OW39165   6.967   7.657   3.183 -0.4139  0.2411  0.4219
44187SOL    HW139166   6.892   7.674   3.126 -0.1374 -0.7334 -0.2460
44187SOL    HW239167   7.038   7.635   3.123  0.1106  0.0512  1.1053
44188SOL     OW39168   4.763   6.003  10.124  0.5115 -0.3256  0.0267
44188SOL    HW139169   4.718   6.074  10.078 -2.4397 -2.2195 -0.2439
44188SOL    HW239170   4.789   5.942  10.056 -0.7044 -1.4483  0.5349
44189SOL     OW39171  10.404   4.695  12.313 -0.0477 -0.0671  0.5186
44189SOL    HW139172  10.425   4.720  12.223  0.3556 -1.2644  0.2610
44189SOL    HW239173  10.410   4.599  12.313 -0.3378 -0.0958  1.7466
44190SOL     OW39174   6.024   0.675   2.422 -0.1710 -0.2866 -0.4923
44190SOL    HW139175   6.054   0.765   2.408 -1.6555  0.3401  0.0951
44190SOL    HW239176   6.018   0.638   2.334 -0.9158  0.6829 -0.8799
44191SOL     OW39177  10.462  10.943   8.053 -0.3157  0.1131  0.4278
44191SOL    HW139178  10.521  11.003   8.008  0.9348 -1.1038  0.3656
44191SOL    HW239179  10.480  10.957   8.146  1.1941 -1.2545  0.3932
44192SOL     OW39180   4.324   8.517   2.861 -0.4450  0.0167  0.4490
44192SOL    HW139181   4.414   8.509   2.891 -0.6541 -0.4377  0.9797
44192SOL    HW239182   4.323   8.596   2.808 -0.0162  0.7487  1.4892
44193SOL     OW39183  12.228  11.995   8.062 -0.2691 -0.5705 -0.1347
44193SOL    HW139184  12.294  11.991   8.131 -0.6669 -1.1697  0.2300
44193SOL    HW239185  12.190  12.082   8.070  0.6013 -0.1513 -0.4737
44194SOL     OW39186   6.370   8.413   6.979  0.3015  0.3175  0.1789
44194SOL    HW139187   6.323   8.386   6.901 -0.9857  0.8893  0.7213
44194SOL    HW239188   6.306   8.465   7.029  0.8887 -0.5093  1.8790
44195SOL     OW39189   2.818   5.970   1.544 -0.2658 -0.0537  0.2780
44195SOL    HW139190   2.758   5.972   1.618 -0.3337  1.2141  0.2065
44195SOL    HW239191   2.835   6.062   1.523  1.0865 -0.3733 -0.1974
44196SOL     OW39192   2.892   7.848   2.572 -0.4748 -0.1411 -0.2421
44196SOL    HW139193   2.931   7.850   2.485 -0.3153 -0.1283 -0.1703
44196SOL    HW239194   2.947   7.907   2.624  1.5059 -2.7049  0.7522
44197SOL     OW39195   3.393   2.444   0.605  0.0594 -0.2951  0.4977
44197SOL    HW139196   3.321   2.429   0.543 -1.1516 -0.0822  1.7907
44197SOL    HW239197   3.456   2.496   0.556 -1.6088  1.3006 -0.1031
44198SOL     OW39198   1.168  10.221   4.728 -0.0731  0.1929  0.3029
44198SOL    HW139199   1.261  10.241   4.719  0.2336 -1.3570 -0.1684
44198SOL    HW239200   1.147  10.244   4.819  0.3827  1.9230  0.0108
44199SOL     OW39201   3.189   6.172   3.258  0.3024 -0.1421 -0.6908
44199SOL    HW139202   3.210   6.131   3.342  0.0220 -0.9568 -1.0047
44199SOL    HW239203   3.229   6.114   3.193 -1.1027 -0.5626 -1.2075
44200SOL     OW39204   8.161   1.373   8.369 -0.0383 -0.0633  0.3820
44200SOL    HW139205   8.254   1.368   8.345 -0.2153  0.1585 -0.3832
44200SOL    HW239206   8.124   1.291   8.334  0.1174 -0.8113  1.8846
44201SOL     OW39207   6.089   4.774   8.306 -0.2087  0.1117 -0.3958
44201SOL    HW139208   6.179   4.806   8.297  0.7482 -2.5618 -1.3315
44201SOL    HW239209   6.085   4.736   8.393 -0.0755 -0.7078 -0.7389
44202SOL     OW39210   7.180   9.010   4.744 -0.6850  0.0364  0.7881
44202SOL    HW139211   7.249   9.041   4.802  0.2197 -1.0730  0.3389
44202SOL    HW239212   7.115   8.971   4.802 -0.7331  0.7052  1.1876
44203SOL     OW39213   3.151   8.771   7.186 -0.3508  0.0615 -0.4714
44203SOL    HW139214   3.240   8.806   7.188 -0.2684 -0.1296  1.3738
44203SOL    HW239215   3.095   8.847   7.202 -0.1932 -0.3791  3.1069
44204SOL     OW39216   8.574   8.337  12.007  0.3941  0.3053 -0.1970
44204SOL    HW139217   8.567   8.267  12.072 -1.6500 -0.9457 -1.6318
44204SOL    HW239218   8.657   8.321  11.963  1.5137  0.8071  1.6209
44205SOL     OW39219   6.098   8.243   6.443 -0.0437  0.5531  0.1893
44205SOL    HW139220   6.134   8.176   6.501  0.6107 -1.0770 -1.9595
44205SOL    HW239221   6.011   8.210   6.420 -0.0874  0.9097 -0.1647
44206SOL     OW39222   2.218   7.460  12.680 -0.2140 -0.1003 -0.4340
44206SOL    HW139223   2.190   7.416  12.759 -0.3414 -0.8568 -0.8927
44206SOL    HW239224   2.150   7.440  12.615  0.3017 -0.1848 -0.9611
44207SOL     OW39225  10.769   9.676   2.385 -0.3497  0.2155  0.3002
44207SOL    HW139226  10.805   9.763   2.366 -1.0508  0.7695  1.3719
44207SOL    HW239227  10.816   9.648   2.464  1.3200 -1.2928 -1.1333
44208SOL     OW39228   0.564  10.927   7.050 -0.2509 -0.2438  0.0117
44208SOL    HW139229   0.611  10.974   6.981  0.8611 -0.7938  0.3647
44208SOL    HW239230   0.478  10.909   7.013 -0.0760  0.4920 -0.7852
44209SOL     OW39231   2.431   9.050  12.209 -0.2761  0.1431  0.1971
44209SOL    HW139232   2.338   9.055  12.230 -0.7253  3.6509 -1.9309
44209SOL    HW239233   2.475   9.090  12.285 -0.5207 -0.7376  0.8225
44210SOL     OW39234   1.763   4.043  10.886  0.7551  0.4231 -0.0368
44210SOL    HW139235   1.742   3.954  10.914 -1.4859  0.8787 -0.0675
44210SOL    HW239236   1.691   4.068  10.829  0.4374  2.8431  1.2813
44211SOL     OW39237   2.413   0.601  10.445  0.2286 -0.7565 -0.1565
44211SOL    HW139238   2.437   0.613  10.537 -1.1575 -1.2189  0.2854
44211SOL    HW239239   2.332   0.651  10.435 -1.7979 -3.7281 -0.0708
44212SOL     OW39240  12.639   4.708   6.464 -0.0047  0.1556 -0.0253
44212SOL    HW139241  12.688   4.635   6.502  0.0038  1.1092  1.9552
44212SOL    HW239242  12.690   4.734   6.387  1.3806 -0.3221  0.6926
44213SOL     OW39243   5.600  12.655  10.856 -0.1727 -0.7835  0.1583
44213SOL    HW139244   5.519  12.676  10.901 -1.3103 -2.9809 -0.7259
44213SOL    HW239245   5.582  12.673  10.764 -1.0520 -4.5898 -0.6011
44214SOL     OW39246   4.812   2.711  10.203 -0.1744  0.4901  0.1603
44214SOL    HW139247   4.726   2.738  10.236 -0.0616 -0.0059  0.8777
44214SOL    HW239248   4.809   2.731  10.110 -2.3059 -2.4602 -0.5585
44215SOL     OW39249   3.118   6.358   5.811 -0.6011 -0.1197 -0.0441
44215SOL    HW139250   3.110   6.272   5.770 -1.5883  0.7441 -1.7523
44215SOL    HW239251   3.168   6.411   5.749 -0.0155  0.5770  0.9766
44216SOL     OW39252  10.456   2.367   0.455  0.1548 -0.8526 -0.3255
44216SOL    HW139253  10.382   2.344   0.400  0.3915 -1.5168 -0.3746
44216SOL    HW239254  10.524   2.303   0.432  0.6253 -0.4639 -0.0417
44217SOL     OW39255   6.713   1.055  11.512 -0.0370 -1.0856 -0.7101
44217SOL    HW139256   6.639   1.055  11.452  0.0285 -2.6249 -0.8420
44217SOL    HW239257   6.757   0.972  11.495  1.6217 -0.2866 -0.5024
44218SOL     OW39258   6.078   6.563   1.599 -0.5458 -0.1882 -0.3558
44218SOL    HW139259   6.079   6.656   1.622 -0.5090 -0.3363  0.2641
44218SOL    HW239260   5.991   6.548   1.562 -0.7210 -0.0124 -0.0151
44219SOL     OW39261  11.367  11.474  10.582  0.5974 -0.3252 -0.2855
44219SOL    HW139262  11.328  11.523  10.654 -2.0964  0.1847 -1.9493
44219SOL    HW239263  11.438  11.531  10.550 -1.1043  1.6142 -0.8388
44220SOL     OW39264   4.728  11.588   1.703  0.9544  0.3108 -0.2720
44220SOL    HW139265   4.769  11.598   1.617  1.5814 -0.4598 -0.0743
44220SOL    HW239266   4.634  11.581   1.684  0.7456  2.9528 -0.6779
44221SOL     OW39267   1.046  11.901  11.686  0.1807 -0.0321  0.2979
44221SOL    HW139268   1.095  11.846  11.625  2.4469  0.7539  1.3040
44221SOL    HW239269   0.985  11.840  11.729  1.6785 -1.5062  0.4403
44222SOL     OW39270   7.208   2.827   8.865  0.0333  0.1215  0.3336
44222SOL    HW139271   7.129   2.873   8.837 -0.2499  0.0682  1.0324
44222SOL    HW239272   7.218   2.756   8.802 -0.0802  0.5432 -0.1686
44223SOL     OW39273   2.118   7.991   8.481  0.1501 -0.0212 -0.1150
44223SOL    HW139274   2.205   7.979   8.443 -0.1776 -0.5923 -0.6917
44223SOL    HW239275   2.062   8.011   8.406 -0.9691 -3.4288 -0.3441
44224SOL     OW39276   2.683   3.537   9.015 -0.1121  0.0195  0.4100
44224SOL    HW139277   2.720   3.449   9.015 -1.2239 -0.4863 -0.4028
44224SOL    HW239278   2.755   3.594   8.989  0.9437 -0.4700  2.1449
44225SOL     OW39279   9.349  11.080  12.581  0.6225  0.0232  0.0080
44225SOL    HW139280   9.388  11.143  12.520 -0.2782 -1.5007 -2.2976
44225SOL    HW239281   9.261  11.065  12.546 -0.3079 -0.2080  2.3012
44226SOL     OW39282   8.071   3.457   2.858 -0.1234 -0.3195  0.0237
44226SOL    HW139283   8.093   3.408   2.937 -0.2257  0.7584  0.7467
44226SOL    HW239284   8.112   3.408   2.787 -1.1362 -2.0490  0.5595
44227SOL     OW39285  10.893  11.938   5.150 -0.0941  0.6110  0.6030
44227SOL    HW139286  10.818  11.988   5.118 -0.7813 -0.9072 -0.2867
44227SOL    HW239287  10.955  12.004   5.180 -1.0985  1.9669 -0.1918
44228SOL     OW39288   2.253  10.785   7.978 -0.1872 -0.0586  0.1352
44228SOL    HW139289   2.236  10.857   7.917  1.6317  0.5488  0.2797
44228SOL    HW239290   2.220  10.816   8.062 -0.5364  0.0872 -0.0528
44229SOL     OW39291   3.088   4.608  11.045  0.0118 -0.0258 -0.2152
44229SOL    HW139292   3.124   4.600  11.134 -1.8188 -0.6603  0.5090
44229SOL    HW239293   3.035   4.688  11.048  0.3906  0.2619 -0.9319
44230SOL     OW39294   6.170   3.052   5.931 -0.5985  0.3981  0.3794
44230SOL    HW139295   6.098   3.005   5.972  0.3312 -0.6695  0.8468
44230SOL    HW239296   6.208   3.104   6.002 -0.1202 -0.0426  0.4527
44231SOL     OW39297  12.424  11.973   8.217 -0.8206 -0.3535 -0.1061
44231SOL    HW139298  12.442  12.038   8.285  1.7731  2.5163 -3.1736
44231SOL    HW239299  12.494  11.908   8.227 -1.0991 -0.5514  0.5996
44232SOL     OW39300   7.443   1.882  12.247  0.6385  0.0211  0.2299
44232SOL    HW139301   7.449   1.905  12.340 -0.0334  0.3075  0.2100
44232SOL    HW239302   7.453   1.787  12.244 -1.9531 -0.3530  0.8867
44233SOL     OW39303   7.647   1.524   4.008  0.1791 -0.4602  0.6130
44233SOL    HW139304   7.672   1.491   4.095 -0.0073  0.3191  0.9758
44233SOL    HW239305   7.704   1.478   3.947 -0.6267 -2.0693  1.0106
44234SOL     OW39306   5.892   6.041   1.106 -0.2782  0.4104  0.2035
44234SOL    HW139307   5.822   6.107   1.101 -0.2141  0.4583 -0.0899
44234SOL    HW239308   5.851   5.961   1.073  0.4147  0.9464 -2.1222
44235SOL     OW39309   5.693   3.114  11.060 -0.1322  0.1463  0.1815
44235SOL    HW139310   5.636   3.172  11.111 -0.5130 -0.9211  1.0228
44235SOL    HW239311   5.747   3.173  11.008 -2.1705  1.2113 -0.8481
44236SOL     OW39312   9.645   5.611   0.434  0.4300 -0.7550 -0.1869
44236SOL    HW139313   9.685   5.524   0.430 -1.2276 -1.5881  0.6316
44236SOL    HW239314   9.552   5.595   0.425 -0.3480  0.5084  3.7765
44237SOL     OW39315  12.279  10.081   1.358 -0.2584  0.5508  0.3596
44237SOL    HW139316  12.273  10.172   1.386  0.5794  0.2151  1.7186
44237SOL    HW239317  12.195  10.064   1.315 -1.6327  1.1568  2.6251
44238SOL     OW39318   1.469   3.792  11.619  0.7367 -0.5976 -0.1352
44238SOL    HW139319   1.519   3.767  11.697  0.8453 -0.7635 -0.2548
44238SOL    HW239320   1.419   3.869  11.645  0.2663 -1.0425  0.2935
44239SOL     OW39321   5.124  11.502   4.371  0.0725 -0.4027  0.0258
44239SOL    HW139322   5.218  11.489   4.361 -0.3920 -2.3528 -3.7287
44239SOL    HW239323   5.093  11.425   4.418  0.2238 -0.3240  0.2536
44240SOL     OW39324  11.325   4.562  10.209  0.1058  0.4503  0.2290
44240SOL    HW139325  11.283   4.552  10.124  1.9280  1.9779 -0.9474
44240SOL    HW239326  11.415   4.531  10.195 -0.3055 -2.0132  2.4312
44241SOL     OW39327   2.980  10.471   2.798 -0.3065  0.8250 -0.2211
44241SOL    HW139328   2.959  10.518   2.879 -0.6641 -0.5595  0.5237
44241SOL    HW239329   3.075  10.461   2.799 -0.3283  0.6456  0.1256
44242SOL     OW39330   6.450  10.401   4.109  0.3104 -0.0309 -0.1089
44242SOL    HW139331   6.459  10.495   4.095 -0.9033  0.1272  0.0247
44242SOL    HW239332   6.529  10.376   4.156  0.8758  0.8268 -0.5743
44243SOL     OW39333   4.774   0.917   8.397 -0.1200  0.0124 -0.1728
44243SOL    HW139334   4.819   0.961   8.469 -0.8858  1.0624 -0.3094
44243SOL    HW239335   4.830   0.842   8.376  1.0493  0.7258  0.2938
44244SOL     OW39336   7.821   1.173   3.439 -0.3888  0.3638 -0.1832
44244SOL    HW139337   7.896   1.119   3.415  0.4291  1.0929  0.6379
44244SOL    HW239338   7.763   1.113   3.487  0.7756  0.3027  1.2308
44245SOL     OW39339   3.170   8.300   8.634  0.3064 -0.1230 -0.3109
44245SOL    HW139340   3.180   8.256   8.549 -0.5656  2.6175 -1.9506
44245SOL    HW239341   3.146   8.230   8.694 -0.1303 -2.0148 -2.5481
44246SOL     OW39342  11.156   0.771   9.385  0.3799  0.3557  0.1498
44246SOL    HW139343  11.138   0.679   9.366  0.4561  0.5839 -1.0662
44246SOL    HW239344  11.069   0.812   9.388  0.3631  0.3067  0.4177
44247SOL     OW39345   1.197   0.347  12.294  0.2907 -0.2790 -0.2269
44247SOL    HW139346   1.145   0.272  12.324  0.7789 -0.6142 -0.2122
44247SOL    HW239347   1.283   0.334  12.333 -0.5200  2.1419  2.7447
44248SOL     OW39348   9.102  10.111   7.158  0.1159 -0.0745 -0.3110
44248SOL    HW139349   9.142  10.140   7.075 -0.9973 -1.9708 -1.5906
44248SOL    HW239350   9.176  10.098   7.217  0.9394  1.3902 -0.9540
44249SOL     OW39351   1.925   5.285   6.078  0.0682 -0.4149  0.6843
44249SOL    HW139352   1.862   5.244   6.138  0.1430  0.0997  1.1120
44249SOL    HW239353   1.877   5.357   6.038  0.5269  0.2925  1.3806
44250SOL     OW39354   2.094   7.409   3.109 -0.0025  0.1909 -0.1052
44250SOL    HW139355   2.150   7.331   3.110 -1.2497 -0.7505 -0.6199
44250SOL    HW239356   2.091   7.437   3.201 -2.2888 -2.4862  0.8100
44251SOL     OW39357  12.112   9.224  10.669  0.1880  0.6402  0.5777
44251SOL    HW139358  12.156   9.217  10.753  0.2140 -0.4442  0.4816
44251SOL    HW239359  12.179   9.258  10.609 -0.0106  2.0258  1.1174
44252SOL     OW39360   4.774   4.444   8.258 -0.1027  0.1485  0.2758
44252SOL    HW139361   4.758   4.538   8.266 -0.6077  0.0846  0.0554
44252SOL    HW239362   4.857   4.438   8.210 -1.0387  0.4902 -1.4838
44253SOL     OW39363   4.634   2.332   0.056  0.1608  0.0943 -0.2536
44253SOL    HW139364   4.626   2.307  -0.037  0.1180  0.4506 -0.3453
44253SOL    HW239365   4.727   2.323   0.075  0.1762  0.0607 -0.3420
44254SOL     OW39366   1.589  11.260   8.585  0.5664  0.3153 -0.6979
44254SOL    HW139367   1.555  11.229   8.669  0.2235  0.3123 -0.8367
44254SOL    HW239368   1.611  11.352   8.600  1.1515  0.1278 -0.4141
44255SOL     OW39369   8.198   2.336   5.946 -0.2029  0.1841 -0.6642
44255SOL    HW139370   8.140   2.298   5.879 -1.0544 -3.2200  1.7297
44255SOL    HW239371   8.146   2.336   6.026  1.9521  0.4860  0.8228
44256SOL     OW39372   1.674   9.927  11.381 -0.0378  0.3265  0.2654
44256SOL    HW139373   1.728   9.998  11.417  1.6413 -0.0186 -1.4412
44256SOL    HW239374   1.614   9.970  11.321  0.9300  0.3415 -0.7125
44257SOL     OW39375   6.367   5.617  11.685  0.6105 -0.0845 -0.1941
44257SOL    HW139376   6.408   5.632  11.600 -0.0441  0.0092 -0.4972
44257SOL    HW239377   6.363   5.704  11.726  0.6304 -0.0795 -0.2026
44258SOL     OW39378   5.884   5.620   0.113 -0.5256  0.2838 -0.2751
44258SOL    HW139379   5.969   5.656   0.139 -0.2722 -1.2795  1.2793
44258SOL    HW239380   5.907   5.546   0.056 -0.9267  0.8395 -1.1739
44259SOL     OW39381   1.022   4.091   8.665 -0.2167 -0.3175  0.1581
44259SOL    HW139382   0.974   4.104   8.747 -1.1376 -1.2658 -0.2120
44259SOL    HW239383   0.975   4.021   8.620  1.8339 -1.6862  0.0023
44260SOL     OW39384   0.667   2.227   0.217  0.2418  0.1806 -0.2900
44260SOL    HW139385   0.653   2.197   0.128 -2.6844 -1.0450  0.4770
44260SOL    HW239386   0.580   2.234   0.254  1.3486  0.8894  2.4248
44261SOL     OW39387   8.335   3.644  12.241 -0.0712 -0.0871 -0.1067
44261SOL    HW139388   8.278   3.703  12.192  1.4356  0.4629 -1.2927
44261SOL    HW239389   8.362   3.695  12.317 -0.5091 -0.0502  0.0249
44262SOL     OW39390   8.519   1.029   1.279  0.3444 -0.2059 -0.0352
44262SOL    HW139391   8.575   1.094   1.237  2.1706 -0.9331  1.1646
44262SOL    HW239392   8.563   0.945   1.262 -1.1374 -0.9740 -0.2404
44263SOL     OW39393   6.958   4.155  10.689 -0.3347 -0.1041  0.5793
44263SOL    HW139394   7.018   4.213  10.643 -1.4664  0.1548 -0.6462
44263SOL    HW239395   6.914   4.212  10.752 -1.2028  0.3369 -0.3894
44264SOL     OW39396   2.420   2.977   4.645 -0.2022 -0.5462 -0.3696
44264SOL    HW139397   2.374   2.923   4.582 -1.3948  1.6109 -1.4372
44264SOL    HW239398   2.354   3.039   4.677  1.2444  0.7420  0.2563
44265SOL     OW39399  11.326   1.095  11.181 -0.1881  0.1425  0.3006
44265SOL    HW139400  11.323   1.175  11.128  2.4214  0.0994 -0.0787
44265SOL    HW239401  11.347   1.026  11.118 -0.1948 -0.4559  0.9476
44266SOL     OW39402   2.679   5.618  12.235  0.2286  0.2957 -0.3155
44266SOL    HW139403   2.770   5.622  12.206  0.2370  0.7597 -0.2308
44266SOL    HW239404   2.685   5.614  12.331  0.1528  0.5675 -0.2994
44267SOL     OW39405  11.482   3.536   4.732 -0.3980 -0.2387 -0.4123
44267SOL    HW139406  11.406   3.481   4.748  0.6059 -1.5041  0.1194
44267SOL    HW239407  11.499   3.579   4.816 -0.2069 -0.3604 -0.3896
44268SOL     OW39408  10.670  11.084   3.637  0.2808 -0.8071  0.1797
44268SOL    HW139409  10.606  11.139   3.681  2.1271  1.1988  0.5491
44268SOL    HW239410  10.661  11.107   3.544 -0.4038 -1.5282  0.0557
44269SOL     OW39411   8.075   5.669   8.940 -0.4128 -0.0839 -0.6739
44269SOL    HW139412   7.999   5.613   8.931 -0.4434 -0.6966  2.2553
44269SOL    HW239413   8.132   5.623   9.002  1.3653  1.3283 -1.1634
44270SOL     OW39414   1.697   1.016  10.938 -0.2797  0.2194 -0.0903
44270SOL    HW139415   1.610   0.998  10.973 -0.1072 -0.4830  0.0003
44270SOL    HW239416   1.698   0.976  10.852  0.5192 -1.3623  0.6057
44271SOL     OW39417   5.687  10.234   0.870  0.1632 -0.4776 -0.3523
44271SOL    HW139418   5.604  10.194   0.845  0.7656 -2.6232  0.8311
44271SOL    HW239419   5.665  10.287   0.947 -0.1011 -1.3183  0.1780
44272SOL     OW39420   6.052   3.722   5.215 -0.3421  0.3425 -0.3801
44272SOL    HW139421   6.025   3.808   5.245 -0.3698  0.5842 -1.0806
44272SOL    HW239422   6.138   3.736   5.175 -0.9404  0.3023 -1.7154
44273SOL     OW39423   8.081   2.027   4.358 -0.1874 -0.1130 -0.4454
44273SOL    HW139424   8.094   1.973   4.436  1.9750  1.1208  0.1356
44273SOL    HW239425   8.055   1.965   4.290  0.3387 -1.5991  0.6494
44274SOL     OW39426   6.989   8.790   3.117  0.2759 -0.4335  0.3830
44274SOL    HW139427   6.930   8.758   3.048  0.0339  1.2097 -0.2188
44274SOL    HW239428   6.957   8.878   3.137  1.2907 -0.2979  1.5146
44275SOL     OW39429   2.255   3.320   8.913 -0.7406 -0.2049 -0.3822
44275SOL    HW139430   2.304   3.360   8.985 -0.0474 -1.6434 -0.0362
44275SOL    HW239431   2.311   3.329   8.836 -0.6236 -0.4324 -0.3235
44276SOL     OW39432   8.341   2.514   4.930 -0.3049  0.1895  0.1169
44276SOL    HW139433   8.407   2.580   4.908  0.5758 -0.2889  1.2118
44276SOL    HW239434   8.281   2.515   4.856 -0.1730  2.0345 -0.0059
44277SOL     OW39435   9.963   6.178  12.770 -0.3987  0.0893  0.3521
44277SOL    HW139436   9.917   6.130  12.839 -1.8754 -0.7188 -1.1161
44277SOL    HW239437  10.054   6.177  12.797 -0.6782 -1.7931  1.4109
44278SOL     OW39438   7.592   0.376   9.764  0.4038  0.2305 -0.0145
44278SOL    HW139439   7.531   0.359   9.692 -0.1960  0.5050  0.4159
44278SOL    HW239440   7.535   0.403   9.837  0.9196 -1.0230  0.8733
44279SOL     OW39441  11.496   8.999   6.120 -0.0200 -0.2897  0.4189
44279SOL    HW139442  11.476   9.045   6.202 -1.7871 -2.6429  1.4443
44279SOL    HW239443  11.552   8.926   6.146 -2.0731 -2.1625 -0.0058
44280SOL     OW39444   2.166   7.706   7.839  0.7227 -0.3820 -0.3345
44280SOL    HW139445   2.124   7.698   7.753  2.4478 -3.2535 -1.0529
44280SOL    HW239446   2.109   7.765   7.888 -2.3178 -1.4234 -2.2899
44281SOL     OW39447   1.595   1.441   0.737  0.4535  0.3253 -0.3570
44281SOL    HW139448   1.502   1.459   0.729  0.2282 -0.2109  0.8890
44281SOL    HW239449   1.611   1.436   0.831  1.4994 -0.7779 -0.5658
44282SOL     OW39450  10.122  11.022   9.190  0.0285 -0.2583  0.3806
44282SOL    HW139451  10.074  11.063   9.262 -0.0926 -0.0398  0.1778
44282SOL    HW239452  10.188  11.087   9.166 -0.1792 -0.1719  0.0407
44283SOL     OW39453   6.808   0.825   3.808 -0.3186  0.5706 -0.7289
44283SOL    HW139454   6.737   0.889   3.793  1.0938  2.4441  0.1407
44283SOL    HW239455   6.888   0.873   3.787  0.7411 -1.3937 -1.3661
44284SOL     OW39456   4.708  12.746   9.374  0.2329 -0.3573 -0.2992
44284SOL    HW139457   4.781  12.779   9.322  0.1618  0.0094 -0.1693
44284SOL    HW239458   4.632  12.793   9.340 -0.1327 -1.5394 -1.2009
44285SOL     OW39459   7.804  12.008   1.140  0.0728  0.5507  0.1577
44285SOL    HW139460   7.868  12.057   1.193 -0.7084  1.1937  0.5155
44285SOL    HW239461   7.770  12.072   1.078 -0.2302  0.2115 -0.0294
44286SOL     OW39462  12.126   9.162  12.509 -0.0068  0.0865  0.0944
44286SOL    HW139463  12.099   9.110  12.584  0.7033  0.6026  0.7199
44286SOL    HW239464  12.050   9.216  12.488  0.6683  2.0411  2.2738
44287SOL     OW39465   4.410   7.085   8.640 -0.0480 -0.6451 -0.0845
44287SOL    HW139466   4.473   7.019   8.611  1.4143  0.5666  0.2547
44287SOL    HW239467   4.425   7.093   8.734 -0.7167 -0.3272  0.0018
44288SOL     OW39468  11.153   3.524   1.372  0.3279  0.5896 -0.0229
44288SOL    HW139469  11.173   3.434   1.395 -1.6320 -0.2839 -1.4389
44288SOL    HW239470  11.130   3.521   1.279 -0.3317  2.4457  0.0310
44289SOL     OW39471   1.010   6.807   0.939 -0.2545  0.2165 -0.0683
44289SOL    HW139472   0.956   6.781   0.864  0.1319  0.4291 -0.4232
44289SOL    HW239473   0.949   6.851   0.998 -1.0303 -1.8148  0.7452
44290SOL     OW39474   1.461   9.876   2.824  0.4765 -0.0598 -0.4861
44290SOL    HW139475   1.519   9.866   2.748  1.3245 -2.2119  0.3532
44290SOL    HW239476   1.518   9.907   2.894  0.0524  0.3489 -0.3216
44291SOL     OW39477   5.628   2.787  11.462 -0.1504  0.5334 -0.1598
44291SOL    HW139478   5.634   2.855  11.396  0.0876 -0.7079 -1.4742
44291SOL    HW239479   5.657   2.707  11.417 -2.0944 -0.7900  0.7877
44292SOL     OW39480  12.729   9.247   5.049 -0.1711  0.2745 -0.2324
44292SOL    HW139481  12.819   9.266   5.023 -0.5854 -0.7546 -2.6767
44292SOL    HW239482  12.675   9.292   4.984 -1.3783 -0.6141  0.1271
44293SOL     OW39483   6.250  12.408   8.386  0.0103  0.1211 -0.2012
44293SOL    HW139484   6.289  12.495   8.397  0.4512 -0.2205  1.2010
44293SOL    HW239485   6.156  12.423   8.393 -0.0077  0.6596 -1.4017
44294SOL     OW39486   8.639   2.864  12.097 -0.3940  0.4623  0.5093
44294SOL    HW139487   8.610   2.949  12.064 -2.1201 -0.3872 -0.2528
44294SOL    HW239488   8.669   2.817  12.020 -1.5484 -0.4089  0.5681
44295SOL     OW39489   5.697   7.426  12.550  0.0742 -0.2781 -0.0803
44295SOL    HW139490   5.764   7.438  12.483 -0.0664 -1.5824 -0.4872
44295SOL    HW239491   5.625   7.483  12.523  1.3391  1.9528  0.9139
44296SOL     OW39492   5.979   6.158   4.343 -0.2822  0.0146 -0.4744
44296SOL    HW139493   5.940   6.136   4.427 -1.0649  0.4085 -0.7228
44296SOL    HW239494   5.977   6.077   4.293 -0.7117  0.0184 -0.4603
44297SOL     OW39495  11.548  11.363   8.022  0.1019  0.5470 -0.5875
44297SOL    HW139496  11.457  11.353   8.049  0.2880 -0.7459 -0.3560
44297SOL    HW239497  11.599  11.345   8.102  0.5569  1.5195 -0.6472
44298SOL     OW39498  11.170  10.313  10.760  0.2792 -0.5717 -0.3834
44298SOL    HW139499  11.184  10.340  10.670  0.0558  0.7075 -0.0522
44298SOL    HW239500  11.085  10.269  10.759  0.0103 -0.0591 -0.7010
44299SOL     OW39501   4.885   9.036   0.504 -0.2403  0.1516 -0.1818
44299SOL    HW139502   4.869   9.112   0.448  1.3825 -0.2448 -1.2547
44299SOL    HW239503   4.953   9.065   0.565 -0.1155 -0.2187 -0.1439
44300SOL     OW39504   4.290   9.198   8.600  0.4652  0.3325  0.3205
44300SOL    HW139505   4.300   9.294   8.596  0.6124  0.3471  0.9429
44300SOL    HW239506   4.280   9.179   8.693  0.0374 -0.2252  0.1656
44301SOL     OW39507   8.599   1.114   7.845 -0.7073  0.0574  0.1644
44301SOL    HW139508   8.640   1.153   7.922 -0.2349  0.0952 -0.1032
44301SOL    HW239509   8.669   1.108   7.781 -0.5984 -1.8319  0.4102
44302SOL     OW39510   3.676   2.994  12.520 -0.0567 -0.1166 -0.1893
44302SOL    HW139511   3.762   3.010  12.560  0.6641 -0.7662 -1.4171
44302SOL    HW239512   3.624   3.071  12.544  1.8984  2.0190 -2.1908
44303SOL     OW39513   7.231   6.915   8.629 -0.6340  0.3257 -0.2236
44303SOL    HW139514   7.294   6.919   8.557 -0.2236  1.6096  0.1775
44303SOL    HW239515   7.155   6.964   8.598 -0.9780 -0.2347 -0.2720
44304SOL     OW39516  12.699   4.599   9.829 -0.4388  0.1325  0.2594
44304SOL    HW139517  12.688   4.580   9.736 -0.1592  0.9197  0.0558
44304SOL    HW239518  12.663   4.522   9.874 -0.0311 -0.5272 -0.5054
44305SOL     OW39519   9.209   0.796  10.773 -0.1609  0.6862  0.2054
44305SOL    HW139520   9.135   0.812  10.832  1.0126 -0.0485  1.9819
44305SOL    HW239521   9.252   0.718  10.810  0.3769 -0.1035 -1.9302
44306SOL     OW39522   2.964   9.716  11.422  0.3413  0.3090  0.2898
44306SOL    HW139523   3.004   9.739  11.338  0.3760 -2.1588 -0.4366
44306SOL    HW239524   2.876   9.754  11.418  0.8488  1.4955 -0.2011
44307SOL     OW39525   4.883  12.014   5.882  0.0409  0.5399 -0.2197
44307SOL    HW139526   4.899  12.076   5.953  1.3028 -0.6230  0.5758
44307SOL    HW239527   4.956  12.027   5.821  1.8197 -1.7943  1.2214
44308SOL     OW39528   8.760   4.419   1.144  0.0672 -0.0951  0.2105
44308SOL    HW139529   8.673   4.383   1.126  0.5398 -1.9702  1.3690
44308SOL    HW239530   8.815   4.385   1.073 -0.0526  0.7552 -0.2964
44309SOL     OW39531   0.578   0.252  12.465  0.1977  0.0135  0.0446
44309SOL    HW139532   0.637   0.195  12.417  0.9748  1.8850 -1.3656
44309SOL    HW239533   0.625   0.274  12.546  0.2903 -0.5982  0.1564
44310SOL     OW39534  12.644   6.736   0.998 -0.3385  0.7723  0.4320
44310SOL    HW139535  12.661   6.711   1.089  2.9073 -0.3608 -0.3507
44310SOL    HW239536  12.665   6.830   0.995 -1.2883  1.0091  1.0084
44311SOL     OW39537   5.689   8.089  12.694 -0.0250  0.3846 -0.2001
44311SOL    HW139538   5.682   8.058  12.604 -0.4803 -0.0319 -0.0211
44311SOL    HW239539   5.770   8.049  12.727 -1.1830 -1.5752  0.3936
44312SOL     OW39540   2.892  11.745   0.415  0.6776  0.4522  0.3308
44312SOL    HW139541   2.806  11.742   0.373 -0.1789 -2.0284  2.0308
44312SOL    HW239542   2.886  11.818   0.478 -1.2940 -1.3763  2.4261
44313SOL     OW39543  10.576   1.123  12.336  0.6173  0.1718 -0.1006
44313SOL    HW139544  10.525   1.203  12.346  1.4062  0.4633  2.1538
44313SOL    HW239545  10.629   1.138  12.257  0.8011  1.9187  0.3196
44314SOL     OW39546   1.015   2.238   3.888 -0.3650 -0.3015  0.0627
44314SOL    HW139547   1.010   2.248   3.793 -0.0954 -2.2736 -0.1957
44314SOL    HW239548   1.013   2.328   3.921  0.4281  0.4826 -1.8386
44315SOL     OW39549   9.262   7.815   2.768  0.9118 -0.1207  0.1593
44315SOL    HW139550   9.286   7.904   2.794  0.3332  0.9883 -2.7274
44315SOL    HW239551   9.322   7.793   2.697  1.9615 -2.6713  1.7003
44316SOL     OW39552   1.791   1.078   4.765  0.0819 -0.6880 -0.3055
44316SOL    HW139553   1.885   1.098   4.766 -0.1165  0.3343 -0.4667
44316SOL    HW239554   1.775   1.043   4.677  0.4840 -1.8513  0.0612
44317SOL     OW39555  11.922   2.272   5.713 -0.0851  0.1049  0.1223
44317SOL    HW139556  11.953   2.316   5.792 -0.3532 -0.0644  0.3210
44317SOL    HW239557  11.984   2.201   5.699  0.0415  0.2184  0.1021
44318SOL     OW39558   4.214  11.519   4.129  0.6342  0.5933  0.1831
44318SOL    HW139559   4.205  11.573   4.208 -0.8937  0.5577  0.0661
44318SOL    HW239560   4.183  11.433   4.157 -1.0730  0.8673 -0.7237
44319SOL     OW39561  12.774   3.553   6.328  0.7653  0.3995  0.5329
44319SOL    HW139562  12.747   3.592   6.245  0.6861  1.5984  1.0959
44319SOL    HW239563  12.700   3.569   6.387  0.9818 -0.0770  0.9371
44320SOL     OW39564   9.764   1.055   7.007 -0.3872 -0.9955  0.2287
44320SOL    HW139565   9.856   1.047   6.983 -0.5444 -1.8644 -0.1003
44320SOL    HW239566   9.731   1.126   6.951 -0.0650 -1.0900 -0.0838
44321SOL     OW39567   5.955   7.986  11.504 -0.1109  0.0513 -0.0050
44321SOL    HW139568   5.869   8.027  11.496 -0.0829 -0.0450 -0.8986
44321SOL    HW239569   6.009   8.029  11.438  1.0337  1.3164  1.6553
44322SOL     OW39570   1.711   8.904   5.102  0.2986 -0.1995 -0.2792
44322SOL    HW139571   1.806   8.913   5.092  0.2456  0.2965 -0.3818
44322SOL    HW239572   1.678   8.897   5.013  0.3675 -1.9404 -0.2025
44323SOL     OW39573   1.074  12.400  12.363 -0.2734  0.1006 -0.2670
44323SOL    HW139574   1.054  12.324  12.308 -0.2755 -0.8691  1.0340
44323SOL    HW239575   0.992  12.421  12.407 -0.0910  0.4125 -0.0673
44324SOL     OW39576   4.365   0.226   2.425  0.2560 -0.2235 -0.3129
44324SOL    HW139577   4.337   0.149   2.376 -2.4872  0.8922 -0.7068
44324SOL    HW239578   4.424   0.272   2.366 -0.4989 -0.5090 -1.3164
44325SOL     OW39579   1.316   5.858   7.978 -0.1638 -0.2225  0.2209
44325SOL    HW139580   1.390   5.818   8.023  0.1896 -0.1336 -0.2661
44325SOL    HW239581   1.290   5.932   8.033  0.4634  0.0763  0.1225
44326SOL     OW39582   1.918   9.622   8.601  0.0525  0.8531 -0.1454
44326SOL    HW139583   1.909   9.699   8.543 -0.9649 -0.1367 -1.3668
44326SOL    HW239584   1.960   9.556   8.546 -0.9668 -0.1272  0.2372
44327SOL     OW39585   5.726   0.049   1.009 -0.2637  0.3210  0.4410
44327SOL    HW139586   5.729   0.017   1.099  1.6101 -2.9215 -0.6044
44327SOL    HW239587   5.802   0.107   1.003 -0.4256  0.5935  0.9364
44328SOL     OW39588   2.036   2.875   7.933  0.2594  0.3074  0.3956
44328SOL    HW139589   1.952   2.920   7.929  0.0276 -0.0842  0.7676
44328SOL    HW239590   2.082   2.918   8.006 -0.4288 -0.8248  1.5325
44329SOL     OW39591   4.449   4.021   3.222 -0.7370 -0.1855  0.3244
44329SOL    HW139592   4.519   3.960   3.200  0.0804  0.8824 -0.1229
44329SOL    HW239593   4.462   4.039   3.315  0.0245  0.5207  0.0979
44330SOL     OW39594   9.885   6.804   2.698 -0.3652  0.0013 -0.2022
44330SOL    HW139595   9.962   6.773   2.746 -1.7270 -0.4575  1.7888
44330SOL    HW239596   9.856   6.881   2.747 -1.8052 -0.4716 -0.2687
44331SOL     OW39597   7.688   8.837   3.937 -0.6126  0.8144  0.0552
44331SOL    HW139598   7.742   8.892   3.880 -0.7370 -0.0148 -0.9016
44331SOL    HW239599   7.644   8.777   3.876  1.1211 -1.7651  1.1873
44332SOL     OW39600   7.613  12.112   6.681 -0.6481  0.6633 -0.1714
44332SOL    HW139601   7.706  12.133   6.669 -0.5025  0.6856  0.9111
44332SOL    HW239602   7.569  12.197   6.678 -0.5388  0.7303  0.0906
44333SOL     OW39603   3.015   5.761   3.422  0.2788  0.0856  0.0333
44333SOL    HW139604   3.041   5.773   3.513  1.9934 -1.0847 -0.2320
44333SOL    HW239605   3.069   5.687   3.392 -0.9477 -0.1866 -1.6493
44334SOL     OW39606  10.908  11.441  11.831  0.4319 -0.3186  0.4945
44334SOL    HW139607  10.899  11.524  11.785  0.0497 -1.0193 -0.7474
44334SOL    HW239608  10.968  11.460  11.904 -2.6260  2.0006  2.6792
44335SOL     OW39609   0.319  12.182   9.011 -0.1644  0.1149 -0.2124
44335SOL    HW139610   0.375  12.176   8.933  0.4926 -3.1131  0.3924
44335SOL    HW239611   0.335  12.270   9.045  2.9906  0.0612 -1.2458
44336SOL     OW39612   1.228   6.364   5.506  0.2357 -0.4786 -0.2723
44336SOL    HW139613   1.166   6.292   5.496  0.0761 -0.3140 -0.5086
44336SOL    HW239614   1.234   6.403   5.418 -0.9013  0.7736  0.1588
44337SOL     OW39615   4.234   1.579   5.821 -0.0175  0.0415  0.2555
44337SOL    HW139616   4.314   1.626   5.845  0.3523 -0.2438 -0.3870
44337SOL    HW239617   4.165   1.618   5.874  0.3336  1.1264 -0.0747
44338SOL     OW39618  11.193   2.761   0.344 -0.0206 -0.6837  0.0749
44338SOL    HW139619  11.202   2.856   0.348  0.0127 -0.6652 -0.3730
44338SOL    HW239620  11.281   2.727   0.357  0.5909 -0.5461 -2.9322
44339SOL     OW39621   0.081   4.251  10.589  0.0828 -0.6552 -0.3248
44339SOL    HW139622   0.011   4.199  10.628  0.3784 -0.2879  0.7180
44339SOL    HW239623   0.161   4.222  10.634  0.3003  0.4284  0.0248
44340SOL     OW39624   5.949   4.981  12.550 -0.2103  0.0984 -0.3792
44340SOL    HW139625   6.031   5.000  12.505  0.8941 -0.5378  1.2492
44340SOL    HW239626   5.955   4.888  12.572 -0.7322  0.3557  0.9618
44341SOL     OW39627   7.461  10.521   4.068  0.2018  0.7931  0.3849
44341SOL    HW139628   7.446  10.454   4.001 -1.8557  2.8847 -1.4505
44341SOL    HW239629   7.380  10.522   4.119 -0.5680  2.9548 -0.7451
44342SOL     OW39630   6.284   6.863   1.475  0.3311 -0.5775  0.3661
44342SOL    HW139631   6.377   6.847   1.461  0.3674 -0.5267  0.5454
44342SOL    HW239632   6.241   6.826   1.398  0.3724 -1.9219  0.9631
44343SOL     OW39633   5.751   9.620  10.439  0.0832  0.0713  0.1021
44343SOL    HW139634   5.685   9.560  10.472 -0.1084  0.2101 -0.0267
44343SOL    HW239635   5.814   9.564  10.394 -1.6775  0.1717 -2.7630
44344SOL     OW39636   5.465   6.825   1.229 -0.6300 -0.4699  0.3513
44344SOL    HW139637   5.477   6.821   1.324  0.3292 -0.5667  0.2372
44344SOL    HW239638   5.375   6.853   1.218 -0.6429 -0.0794  1.2978
44345SOL     OW39639   3.491   5.011   1.522  0.7364 -0.0334 -0.2486
44345SOL    HW139640   3.466   4.986   1.611 -0.4115 -0.9779 -0.8035
44345SOL    HW239641   3.439   5.089   1.503  0.6068 -0.1218 -0.2596
44346SOL     OW39642   5.488   4.674   9.182  0.2513  0.4248  0.1543
44346SOL    HW139643   5.511   4.763   9.211  2.4992 -0.0036 -0.0675
44346SOL    HW239644   5.433   4.688   9.105 -1.0920  1.5864  1.2701
44347SOL     OW39645  12.273   5.831   7.729  0.1118 -0.0375  0.4299
44347SOL    HW139646  12.190   5.794   7.759 -1.1818  0.3751 -2.3591
44347SOL    HW239647  12.308   5.877   7.805 -2.4973  0.2920  1.5200
44348SOL     OW39648   2.827  11.849   0.675  0.1321  0.1373 -0.2677
44348SOL    HW139649   2.832  11.807   0.761  1.5260  0.9886  0.0908
44348SOL    HW239650   2.762  11.918   0.686 -0.0222 -0.0426 -0.0326
44349SOL     OW39651  12.502  11.171   5.885  0.1590  0.4041 -0.0314
44349SOL    HW139652  12.416  11.150   5.849  1.0747 -1.0367 -1.4961
44349SOL    HW239653  12.503  11.127   5.970  0.1576 -1.2919 -0.8743
44350SOL     OW39654   6.491   0.522   4.686 -0.2773 -0.3680 -0.2605
44350SOL    HW139655   6.540   0.448   4.722 -0.7844 -0.5697  0.0258
44350SOL    HW239656   6.436   0.483   4.619 -1.8516 -0.5529  1.0911
44351SOL     OW39657   8.839  11.737   1.898 -0.0505 -0.1981  0.0936
44351SOL    HW139658   8.912  11.781   1.940  0.1675 -1.9323  1.6345
44351SOL    HW239659   8.771  11.805   1.891  0.5970  0.6364  1.4988
44352SOL     OW39660   1.295   3.134  10.773 -0.3181  0.0750  0.2119
44352SOL    HW139661   1.312   3.108  10.864 -4.0561 -0.5987  0.8732
44352SOL    HW239662   1.336   3.065  10.720  1.0570 -0.0515  1.3535
44353SOL     OW39663   5.499  10.485  12.744  0.3945 -0.0234 -0.0502
44353SOL    HW139664   5.576  10.458  12.796 -0.3077 -1.0893  0.4724
44353SOL    HW239665   5.495  10.421  12.673  1.3534  1.4322 -1.5028
44354SOL     OW39666  11.739   8.382   0.040 -0.8157 -0.7516 -0.1531
44354SOL    HW139667  11.697   8.334   0.111  1.0203 -1.9288  0.2003
44354SOL    HW239668  11.800   8.442   0.084  0.6289 -1.7724 -0.6824
44355SOL     OW39669   4.933   5.868   2.630  0.2795  0.5862  0.4542
44355SOL    HW139670   4.848   5.881   2.672  0.5550  0.2834  1.1235
44355SOL    HW239671   4.978   5.804   2.685  0.0462 -1.0703 -1.2138
44356SOL     OW39672   6.679   1.683   0.777 -0.2191  0.6718 -0.6667
44356SOL    HW139673   6.586   1.703   0.781 -0.7711 -1.2862 -2.3942
44356SOL    HW239674   6.701   1.687   0.684  1.1122 -0.1799 -0.4201
44357SOL     OW39675   9.880   6.850  10.852 -0.1088  0.4793 -0.3268
44357SOL    HW139676   9.823   6.889  10.786  3.1646 -0.5262 -4.1827
44357SOL    HW239677   9.878   6.756  10.834  2.2802  0.3531 -0.3688
44358SOL     OW39678  12.542   8.840   1.212 -0.0684  0.3926 -0.1525
44358SOL    HW139679  12.491   8.842   1.131  0.8453 -0.6270 -0.7835
44358SOL    HW239680  12.617   8.897   1.195  0.8505 -0.8875 -0.5705
44359SOL     OW39681   0.191   0.292  11.150 -0.8605  0.0470  0.2857
44359SOL    HW139682   0.224   0.229  11.085 -0.2252 -0.4447  1.0629
44359SOL    HW239683   0.139   0.354  11.099  1.3287  0.9137 -1.0220
44360SOL     OW39684   1.939   9.663   8.125  0.0874  0.1409  0.1023
44360SOL    HW139685   1.875   9.690   8.058 -0.0835  0.1110  0.2501
44360SOL    HW239686   1.924   9.724   8.197 -2.4472 -2.1707  1.7225
44361SOL     OW39687   0.586  10.417   2.172  0.0067  0.4192  0.2321
44361SOL    HW139688   0.670  10.414   2.218  1.5039 -0.7707 -2.3362
44361SOL    HW239689   0.546  10.331   2.190 -0.1358  0.5452  0.5269
44362SOL     OW39690   5.242   6.835   0.951  0.2046  0.3308 -0.4586
44362SOL    HW139691   5.331   6.848   0.916  0.9248 -1.6667  0.4688
44362SOL    HW239692   5.228   6.910   1.008  1.6181  0.3276 -0.0570
44363SOL     OW39693   6.329  10.458   2.106  0.0980  0.6443  0.0710
44363SOL    HW139694   6.309  10.460   2.012  0.1134  0.1636  0.0535
44363SOL    HW239695   6.312  10.367   2.132  0.6696  0.6272  0.4051
44364SOL     OW39696   4.306   2.375  12.456 -0.3307  0.3547  0.5061
44364SOL    HW139697   4.245   2.424  12.511  0.1147  1.7132 -0.1565
44364SOL    HW239698   4.383   2.432  12.450  0.3339 -0.5807 -0.0362
44365SOL     OW39699   3.466  10.506  12.726  0.5150 -0.0501  0.7909
44365SOL    HW139700   3.420  10.450  12.789  0.0583  0.4018  0.8680
44365SOL    HW239701   3.417  10.494  12.644  0.2133  0.4785  0.8884
44366SOL     OW39702   5.240   9.768  11.216 -0.1307  0.1943 -0.3252
44366SOL    HW139703   5.149   9.799  11.216  0.0746  0.9109  0.9505
44366SOL    HW239704   5.236   9.680  11.254 -0.3700 -0.0443 -0.9092
44367SOL     OW39705   4.037   2.224   3.088 -0.6498  0.1108 -0.0390
44367SOL    HW139706   4.090   2.291   3.046 -0.0816  0.9599  1.9113
44367SOL    HW239707   4.098   2.178   3.146 -1.2371 -1.4999 -0.6330
44368SOL     OW39708  11.684  11.663  12.277 -0.4345 -0.1298  0.0365
44368SOL    HW139709  11.774  11.661  12.247  0.0020 -1.8371  1.2919
44368SOL    HW239710  11.671  11.753  12.307 -0.4242  1.2360 -3.5321
44369SOL     OW39711   1.341   3.971   3.206 -0.2041  0.5053 -0.1015
44369SOL    HW139712   1.414   4.033   3.197 -0.2657  0.3435 -2.3654
44369SOL    HW239713   1.377   3.888   3.177 -0.3403 -0.4181  2.1955
44370SOL     OW39714   5.457  10.935   8.250 -0.3910  0.2486  0.5484
44370SOL    HW139715   5.372  10.974   8.227 -1.9116 -2.2056  1.5503
44370SOL    HW239716   5.496  10.997   8.311 -1.9873  0.9920  0.8773
44371SOL     OW39717  10.704   4.095  11.494  0.3701 -1.0632 -0.2430
44371SOL    HW139718  10.644   4.110  11.421  0.3684 -2.6672 -0.6114
44371SOL    HW239719  10.778   4.153  11.477 -1.1765  1.2682  0.4348
44372SOL     OW39720   8.196   5.115   9.734 -0.1464  0.6607  0.7272
44372SOL    HW139721   8.271   5.145   9.785 -1.1533  1.2616  1.9257
44372SOL    HW239722   8.182   5.025   9.764  1.4426 -0.2816 -1.1615
44373SOL     OW39723   0.675   6.342   4.795 -0.3354  0.1528  0.0546
44373SOL    HW139724   0.687   6.321   4.703 -1.5544 -1.1392  0.1735
44373SOL    HW239725   0.735   6.284   4.842 -0.3260  0.2237  0.1331
44374SOL     OW39726  12.112  10.363   3.681 -0.0478 -0.1024  0.4197
44374SOL    HW139727  12.102  10.434   3.619  1.3057 -1.5579 -1.6091
44374SOL    HW239728  12.175  10.303   3.639  0.2289 -1.6215  2.7944
44375SOL     OW39729   5.712   1.539   9.680  0.1041  0.6555  0.3694
44375SOL    HW139730   5.781   1.481   9.713  0.0071  0.8633  0.9477
44375SOL    HW239731   5.665   1.486   9.616  0.1888  0.1782  0.6964
44376SOL     OW39732   7.114   8.400   7.563 -0.4473  0.3636  0.1054
44376SOL    HW139733   7.096   8.311   7.535  0.1732  0.5453 -0.9269
44376SOL    HW239734   7.028   8.437   7.584 -0.6534 -0.6368  1.0973
44377SOL     OW39735   8.237  11.417   8.772  0.6394 -0.7735  0.0878
44377SOL    HW139736   8.295  11.366   8.829  0.8253 -1.5425 -0.7548
44377SOL    HW239737   8.244  11.506   8.804  0.1032 -1.3069  1.7881
44378SOL     OW39738  12.084   8.308   4.961 -0.7006 -0.0335 -0.4181
44378SOL    HW139739  12.001   8.340   4.926  0.4286  1.7713 -1.5553
44378SOL    HW239740  12.111   8.240   4.899  0.8714  2.5642 -2.7855
44379SOL     OW39741   4.354   1.658   8.602  0.6733  0.4507  0.2055
44379SOL    HW139742   4.269   1.691   8.573  0.4487  0.1145  0.4651
44379SOL    HW239743   4.335   1.611   8.684  0.7563 -1.4534 -0.8079
44380SOL     OW39744   1.882   2.491   6.969  0.3068  0.6099 -0.2782
44380SOL    HW139745   1.829   2.494   6.890 -1.6749 -1.3515  0.8481
44380SOL    HW239746   1.972   2.479   6.938 -0.6555 -2.6317 -2.3275
44381SOL     OW39747  10.007   7.582   6.438 -0.1066  0.2954  0.0067
44381SOL    HW139748  10.009   7.561   6.531 -0.7115 -1.7459 -0.3961
44381SOL    HW239749   9.914   7.587   6.417 -0.0190 -1.4504 -0.9124
44382SOL     OW39750  11.802   8.663   5.273  0.2620  0.3943  0.1110
44382SOL    HW139751  11.810   8.591   5.210  2.7494  1.0494 -0.4291
44382SOL    HW239752  11.815   8.621   5.358  2.2674  0.2243 -0.2357
44383SOL     OW39753   1.674   1.997  10.671 -0.5299  0.2656 -0.1160
44383SOL    HW139754   1.716   1.988  10.757  0.5117  0.7600 -0.5485
44383SOL    HW239755   1.735   1.954  10.611 -0.9095  0.5326 -0.6919
44384SOL     OW39756   7.161  10.455  10.444  0.2238 -0.1922 -0.2861
44384SOL    HW139757   7.118  10.428  10.362 -0.2478 -0.6016  0.0935
44384SOL    HW239758   7.096  10.509  10.489 -0.0086 -1.0151  0.4032
44385SOL     OW39759   4.086   7.031   2.151  0.0480  0.2280  0.4640
44385SOL    HW139760   4.174   6.993   2.148 -0.4778 -1.0897  0.6945
44385SOL    HW239761   4.046   7.005   2.068 -0.2481  0.5028  0.5185
44386SOL     OW39762  11.732   8.459   1.193 -0.3749  0.7102 -0.0799
44386SOL    HW139763  11.690   8.544   1.206  0.2324  0.7809  1.7095
44386SOL    HW239764  11.728   8.417   1.279  0.2496 -0.6509 -0.6835
44387SOL     OW39765  11.215   0.715   8.501  0.0185 -0.6425  0.2673
44387SOL    HW139766  11.287   0.742   8.559  0.0090  0.3018 -0.1312
44387SOL    HW239767  11.168   0.648   8.550  0.4392 -0.3731  1.0581
44388SOL     OW39768   6.319   7.217   7.242 -0.1200 -0.0547  0.1313
44388SOL    HW139769   6.270   7.230   7.323 -1.4404  2.7053 -0.9662
44388SOL    HW239770   6.254   7.184   7.180  0.5302 -0.7153 -0.2206
44389SOL     OW39771   8.715  12.398   5.199 -0.4484 -0.0737  0.3334
44389SOL    HW139772   8.766  12.350   5.265 -0.8527  0.5051  1.0864
44389SOL    HW239773   8.716  12.341   5.122 -0.2755 -0.9380  0.9528
44390SOL     OW39774   9.922   8.969   1.121 -0.0771  0.6007  0.1548
44390SOL    HW139775   9.967   9.053   1.117  0.4179  0.3997  1.2357
44390SOL    HW239776   9.992   8.904   1.113 -0.2396  0.2871  1.1615
44391SOL     OW39777   8.290   2.191   2.717  0.0281  0.6601 -0.6862
44391SOL    HW139778   8.329   2.278   2.717 -0.5515  0.9234 -0.4656
44391SOL    HW239779   8.342   2.142   2.781  2.4485 -0.1362 -3.0601
44392SOL     OW39780   8.237  12.039   7.745 -0.1896 -0.4554  0.1936
44392SOL    HW139781   8.173  12.092   7.793 -0.9186 -0.4180 -0.7958
44392SOL    HW239782   8.266  11.974   7.809 -2.2293 -1.3358  0.3050
44393SOL     OW39783   0.781   9.243   4.359 -0.4227 -0.1020  0.1085
44393SOL    HW139784   0.765   9.325   4.406 -1.5884  0.0910 -0.5871
44393SOL    HW239785   0.875   9.242   4.343 -0.1166  0.2404  1.6688
44394SOL     OW39786   6.761   8.260   1.320 -0.0006  0.4072  0.0424
44394SOL    HW139787   6.822   8.214   1.262 -0.0240 -1.0620  1.1230
44394SOL    HW239788   6.785   8.231   1.408 -1.7051  0.4402  0.5640
44395SOL     OW39789   2.129   8.450   4.934 -0.1371 -0.1984  0.1284
44395SOL    HW139790   2.064   8.520   4.924  0.3359  0.0178 -1.8933
44395SOL    HW239791   2.212   8.496   4.943 -0.0877 -0.4936  1.2561
44396SOL     OW39792   5.659   0.570   5.443  0.5779 -0.6928  0.1924
44396SOL    HW139793   5.671   0.552   5.536 -0.4621  0.0005  0.4731
44396SOL    HW239794   5.702   0.496   5.399  0.2527 -1.5224  1.2277
44397SOL     OW39795   1.809   0.362   1.620 -0.1161  0.0543 -0.2325
44397SOL    HW139796   1.902   0.386   1.622  0.3394 -1.0561 -2.8650
44397SOL    HW239797   1.765   0.442   1.591  0.2475  0.1517 -0.5301
44398SOL     OW39798   0.285   8.680   2.737 -0.8264  0.1519 -0.0907
44398SOL    HW139799   0.236   8.606   2.700 -1.3625 -0.2191  1.2919
44398SOL    HW239800   0.314   8.648   2.822  0.9909  0.7255 -0.4559
44399SOL     OW39801   5.821   9.180   2.491 -0.3519 -0.0698 -0.5103
44399SOL    HW139802   5.740   9.137   2.520 -1.4653  2.6322  0.7918
44399SOL    HW239803   5.797   9.224   2.410  0.4105 -0.8356 -1.1671
44400SOL     OW39804   3.690   8.546  11.977 -0.0848 -0.6929  0.7788
44400SOL    HW139805   3.664   8.473  12.034 -0.4008  0.7392  2.5906
44400SOL    HW239806   3.750   8.597  12.030  0.7168 -0.0180 -0.7240
44401SOL     OW39807   6.587   3.584  12.410  0.2074  0.1968  0.0717
44401SOL    HW139808   6.632   3.543  12.484  0.7171 -0.5205 -0.6040
44401SOL    HW239809   6.519   3.521  12.386 -0.2353  0.6239  0.1950
44402SOL     OW39810   7.657  11.588   3.075 -0.7570 -0.0668 -0.6365
44402SOL    HW139811   7.586  11.550   3.126  0.5502 -2.1644 -0.2145
44402SOL    HW239812   7.716  11.514   3.059  1.2519  1.5429 -1.0608
44403SOL     OW39813   3.215   7.152  11.705 -0.2261  0.2555  0.6435
44403SOL    HW139814   3.198   7.084  11.771 -1.4803 -0.2556 -0.1639
44403SOL    HW239815   3.134   7.203  11.703  0.3092  1.1206  0.4579
44404SOL     OW39816   2.970  11.301   5.177  0.4045  0.3575  0.0810
44404SOL    HW139817   2.994  11.257   5.259 -2.2651 -1.0696  0.2113
44404SOL    HW239818   2.923  11.380   5.205 -1.2034 -0.5342 -0.0011
44405SOL     OW39819   5.025   6.101   1.295 -0.2850  0.4329  0.1814
44405SOL    HW139820   5.011   6.195   1.296  0.3184  0.5393 -0.5539
44405SOL    HW239821   5.010   6.075   1.204 -0.4365 -0.1765  0.3736
44406SOL     OW39822   5.920   4.243  12.049  0.3652 -0.0531 -0.7395
44406SOL    HW139823   5.995   4.284  12.093  0.6232 -2.0836  0.8208
44406SOL    HW239824   5.944   4.243  11.956  3.3234 -2.5147 -0.1028
44407SOL     OW39825   8.084   0.186   8.667  0.2929  0.0466 -0.0515
44407SOL    HW139826   8.149   0.221   8.606  0.3056  0.1982  0.0494
44407SOL    HW239827   8.106   0.227   8.751 -1.0002  1.4561 -0.3722
44408SOL     OW39828   4.609   0.899   8.072 -0.5927 -0.7491  0.4074
44408SOL    HW139829   4.612   0.807   8.046 -0.5353 -0.7903  0.5579
44408SOL    HW239830   4.540   0.937   8.018  0.1837 -0.6153 -0.5111
44409SOL     OW39831   2.946  10.242   3.074 -0.3971  0.6520  0.8704
44409SOL    HW139832   2.883  10.183   3.032 -1.8907  0.5018  3.1238
44409SOL    HW239833   2.891  10.305   3.122  1.1778  1.8496  1.1804
44410SOL     OW39834   9.769   1.153   9.421 -0.3891 -0.1366 -0.2348
44410SOL    HW139835   9.855   1.121   9.392  0.1096  0.7762  0.2013
44410SOL    HW239836   9.789   1.220   9.486 -1.3900  1.1458 -1.1897
44411SOL     OW39837   8.882  11.259  12.190  0.4485  0.3321 -0.3610
44411SOL    HW139838   8.927  11.335  12.155  0.5003  0.2557 -0.4594
44411SOL    HW239839   8.853  11.286  12.277  1.9847 -0.0893  0.3131
44412SOL     OW39840   6.656   2.343  12.080  0.0228  0.3574 -0.5180
44412SOL    HW139841   6.600   2.275  12.044  0.0357  0.3876 -0.5957
44412SOL    HW239842   6.745   2.319  12.053  0.0794  0.1605 -0.1618
44413SOL     OW39843   5.488   5.192  10.813  0.0761 -0.1279  0.0426
44413SOL    HW139844   5.513   5.177  10.722  0.6733  3.4315 -0.5403
44413SOL    HW239845   5.419   5.258  10.808  0.2404  0.2713  2.1492
44414SOL     OW39846   6.362   9.952   0.240  0.7084 -0.0728  0.2801
44414SOL    HW139847   6.380   9.988   0.153 -0.0213  2.5621  1.1282
44414SOL    HW239848   6.445   9.912   0.267  1.3472  0.2777 -1.0733
44415SOL     OW39849  12.322   9.930   5.255 -0.3899 -0.1109 -0.2315
44415SOL    HW139850  12.310   9.857   5.195 -0.6527  0.1350 -0.4847
44415SOL    HW239851  12.275  10.003   5.214 -2.1107 -0.3867  1.1127
44416SOL     OW39852  10.574   1.729  11.590 -0.3343 -0.4357 -0.6057
44416SOL    HW139853  10.627   1.806  11.569 -0.6510  0.5643  1.8756
44416SOL    HW239854  10.495   1.765  11.630 -0.3565 -2.0527  0.9021
44417SOL     OW39855   7.005   3.405   4.693  0.1465 -0.1515 -0.1291
44417SOL    HW139856   6.966   3.355   4.622 -1.6568  1.0225 -0.0224
44417SOL    HW239857   7.053   3.475   4.650  1.1087 -0.8423 -0.2208
44418SOL     OW39858  12.574  10.566   4.990 -0.4318  0.6119 -0.2022
44418SOL    HW139859  12.655  10.597   5.030 -1.1004 -0.3115  2.0052
44418SOL    HW239860  12.540  10.642   4.943  0.7120  1.6018  0.5120
44419SOL     OW39861  11.561   0.715   2.266  0.0321 -0.5053  0.4827
44419SOL    HW139862  11.631   0.667   2.221 -0.0674  0.4263 -0.7324
44419SOL    HW239863  11.481   0.666   2.245 -0.1449  0.4100 -1.2070
44420SOL     OW39864   0.706   2.332   6.373 -0.3546  0.0776 -0.7021
44420SOL    HW139865   0.640   2.299   6.434 -0.5647  0.7949 -0.5271
44420SOL    HW239866   0.657   2.391   6.315 -0.0403 -0.1147 -1.1708
44421SOL     OW39867   7.686  12.315   3.988  0.0421 -0.5596 -0.0305
44421SOL    HW139868   7.741  12.265   3.928  0.3312  0.6488 -0.8003
44421SOL    HW239869   7.695  12.270   4.072 -0.0747 -2.0562 -0.7988
44422SOL     OW39870   2.304  12.075  10.947 -0.4925 -0.0161  0.8250
44422SOL    HW139871   2.266  11.988  10.936 -1.2275  0.4369 -0.5034
44422SOL    HW239872   2.287  12.098  11.038 -1.3078 -0.7914  0.8806
44423SOL     OW39873   4.067   1.136  11.522  0.1042 -0.5141 -0.0146
44423SOL    HW139874   4.034   1.084  11.449  0.6024 -1.7452  0.6049
44423SOL    HW239875   4.135   1.082  11.561  0.2779  0.3919  0.9821
44424SOL     OW39876   9.719  10.936  11.444  0.3192  0.5604 -0.0985
44424SOL    HW139877   9.773  10.880  11.388  0.0385  1.4289 -1.2711
44424SOL    HW239878   9.762  11.022  11.442 -0.4332  0.9497 -0.0725
44425SOL     OW39879   4.270   5.155   6.486 -0.1865 -0.4253 -0.4823
44425SOL    HW139880   4.295   5.195   6.569 -2.2541 -1.8836  0.9459
44425SOL    HW239881   4.185   5.192   6.465 -0.8212 -1.8737 -0.6141
44426SOL     OW39882   4.064   4.741   6.534  0.4199 -0.0648 -0.1508
44426SOL    HW139883   4.124   4.799   6.488  1.4300 -1.4804 -0.6792
44426SOL    HW239884   3.978   4.762   6.497  0.7294  1.1353 -0.2523
44427SOL     OW39885   3.441   9.714  11.796  0.2914  0.2361  0.1049
44427SOL    HW139886   3.492   9.709  11.714 -0.3170  0.8143 -0.3146
44427SOL    HW239887   3.426   9.622  11.819  1.2268  0.0544  0.0535
44428SOL     OW39888   0.122  11.507   6.978 -0.2628  0.3355 -0.1103
44428SOL    HW139889   0.202  11.519   7.031 -0.3811  1.2594 -0.1203
44428SOL    HW239890   0.056  11.478   7.041 -0.1818  0.6001  0.1021
44429SOL     OW39891   0.311   7.046   4.147  0.4724 -0.0476  0.4775
44429SOL    HW139892   0.353   7.116   4.198  1.4887  0.8210 -1.4521
44429SOL    HW239893   0.304   7.082   4.059 -0.1731 -1.9356 -0.2847
44430SOL     OW39894   9.253   7.122   3.722  0.3338 -0.3579  0.0099
44430SOL    HW139895   9.196   7.092   3.793  0.6976  0.7972  0.8073
44430SOL    HW239896   9.219   7.208   3.698 -1.1052 -1.5617 -2.6989
44431SOL     OW39897   6.995   4.624   4.419  0.3113 -0.0484  0.4113
44431SOL    HW139898   7.020   4.533   4.406  2.7847  0.3492  1.7978
44431SOL    HW239899   6.958   4.627   4.507 -1.9597 -0.0494 -0.4716
44432SOL     OW39900  10.656  12.050  12.752 -0.0864  1.1060  0.1728
44432SOL    HW139901  10.723  12.066  12.686  0.3439  1.8478  0.7713
44432SOL    HW239902  10.586  12.112  12.731  0.1289  1.4644  0.5266
44433SOL     OW39903   3.025   5.818   9.692  0.2325 -0.4895  0.1671
44433SOL    HW139904   3.109   5.862   9.706  0.2960 -0.5584  0.0043
44433SOL    HW239905   2.961   5.873   9.738  0.2117  0.1354 -0.5945
44434SOL     OW39906   5.366   1.497   8.133  0.0489 -0.1603 -0.6559
44434SOL    HW139907   5.407   1.509   8.219 -2.5723  1.1356  0.5178
44434SOL    HW239908   5.380   1.580   8.088  0.7801 -0.5794 -1.2225
44435SOL     OW39909   4.412   5.750   4.600 -0.0431 -0.0077  0.2061
44435SOL    HW139910   4.507   5.752   4.590 -0.1613  0.7922 -1.0267
44435SOL    HW239911   4.384   5.839   4.581 -1.0311 -0.2020  0.6856
44436SOL     OW39912  12.539   7.902   4.205  0.2207 -0.0053  0.5975
44436SOL    HW139913  12.471   7.912   4.272  0.1053 -1.1337  0.6703
44436SOL    HW239914  12.618   7.936   4.246 -0.2221  1.0299  0.6261
44437SOL     OW39915  10.819   2.477   0.865 -0.2493  0.2230  0.1520
44437SOL    HW139916  10.780   2.399   0.826  1.1646 -1.0065  1.0866
44437SOL    HW239917  10.912   2.471   0.841  0.1094  0.9482  1.2894
44438SOL     OW39918   7.391   6.660   3.399 -0.3160 -0.2695  0.2304
44438SOL    HW139919   7.298   6.678   3.391  0.0133  0.9863 -1.1527
44438SOL    HW239920   7.411   6.678   3.491 -1.5528 -1.2465  0.7133
44439SOL     OW39921   4.459   2.618   6.276 -0.6066  0.1835 -0.1283
44439SOL    HW139922   4.536   2.653   6.231 -0.4003  0.9697  0.7862
44439SOL    HW239923   4.463   2.524   6.263 -0.2229  0.3477 -1.2212
44440SOL     OW39924  10.996   0.662   1.583 -0.0983 -0.6165  0.9647
44440SOL    HW139925  10.939   0.739   1.581  0.8053  0.0554  0.3511
44440SOL    HW239926  11.076   0.690   1.540 -0.1786 -2.2633 -0.3818
44441SOL     OW39927  12.093   1.287   3.473 -0.0608  0.6660 -0.2796
44441SOL    HW139928  12.157   1.307   3.405  0.6084  2.0022  0.6896
44441SOL    HW239929  12.137   1.225   3.530 -0.6399 -0.4930 -1.0653
44442SOL     OW39930  11.715  10.235   4.864 -0.4036 -0.0433 -0.3196
44442SOL    HW139931  11.767  10.279   4.931 -1.5401 -0.1064  0.6139
44442SOL    HW239932  11.764  10.251   4.783  0.0804  1.5382  0.2386
44443SOL     OW39933  10.713   7.569   2.611 -0.3136  0.2382 -0.3404
44443SOL    HW139934  10.763   7.490   2.589 -0.5136 -0.0021  0.0531
44443SOL    HW239935  10.661   7.544   2.687  0.0040  0.9128  0.1090
44444SOL     OW39936  12.741   0.031   7.068  0.0100 -0.4338 -0.1703
44444SOL    HW139937  12.790   0.008   6.989 -0.4443 -0.5843 -0.4137
44444SOL    HW239938  12.670   0.087   7.037 -1.5202 -2.2866 -0.2216
44445SOL     OW39939   6.796   8.166  12.562 -0.5394 -0.0047  0.1633
44445SOL    HW139940   6.809   8.241  12.504  0.6395  1.3024  1.9677
44445SOL    HW239941   6.842   8.094  12.519  2.2522  1.4640  0.4134
44446SOL     OW39942   7.272   2.080   4.127  0.1399 -0.5348  0.3628
44446SOL    HW139943   7.257   2.103   4.218 -0.3785 -0.9280  0.3789
44446SOL    HW239944   7.234   2.152   4.077  2.3661  0.7997  0.4722
44447SOL     OW39945   2.352   0.157  12.375 -0.5721  0.2410  0.5036
44447SOL    HW139946   2.383   0.159  12.284 -0.1554  0.2729  0.6440
44447SOL    HW239947   2.351   0.249  12.402 -3.0273  0.5006 -0.2299
44448SOL     OW39948  12.651   0.141   7.522  0.4072 -0.1603  0.4113
44448SOL    HW139949  12.698   0.061   7.547 -0.0216 -0.4822  0.2226
44448SOL    HW239950  12.586   0.152   7.592 -1.3100 -1.4982 -0.8800
44449SOL     OW39951   3.021   4.494   2.400 -0.0432 -0.0414 -0.0292
44449SOL    HW139952   2.988   4.583   2.416  0.8942  0.4554 -0.7125
44449SOL    HW239953   3.026   4.487   2.305  0.7995 -0.4582  0.0306
44450SOL     OW39954   7.336  11.419  12.314 -0.0103  0.2092  0.2153
44450SOL    HW139955   7.287  11.362  12.255 -1.2923  1.3396  0.1365
44450SOL    HW239956   7.307  11.508  12.291  1.4974  0.8546  0.7231
44451SOL     OW39957   2.133   4.630   3.852 -0.1412  0.1575  0.2090
44451SOL    HW139958   2.215   4.586   3.828 -1.0551 -0.8611 -1.1862
44451SOL    HW239959   2.161   4.709   3.899  1.8339  1.8030 -3.3417
44452SOL     OW39960   7.908   1.219  12.289  0.4536 -0.6540 -0.6919
44452SOL    HW139961   7.863   1.301  12.269  0.2911 -0.8207 -1.0166
44452SOL    HW239962   7.950   1.194  12.206 -1.2267 -1.9758 -1.1926
44453SOL     OW39963   2.775   9.012   3.632 -0.2453 -0.0987  0.1648
44453SOL    HW139964   2.741   9.090   3.590  1.7411  0.2615 -0.8844
44453SOL    HW239965   2.763   8.942   3.568  0.7062 -0.0229 -0.1039
44454SOL     OW39966   2.437  11.116   6.966  0.0320  0.2735  0.0896
44454SOL    HW139967   2.504  11.052   6.991 -0.9221 -1.0302 -0.5544
44454SOL    HW239968   2.407  11.154   7.048  0.6019 -0.1120  0.4819
44455SOL     OW39969   8.958  10.565  12.781  0.0175 -0.3784  0.2446
44455SOL    HW139970   8.874  10.550  12.824 -0.0386  0.9599  0.6519
44455SOL    HW239971   9.022  10.563  12.852  0.6156 -3.1733 -0.2721
44456SOL     OW39972   6.740  11.599   5.653  0.1127  0.2740 -0.0891
44456SOL    HW139973   6.655  11.604   5.697  0.3526  0.6673  0.3375
44456SOL    HW239974   6.727  11.534   5.585 -0.7682  0.8981 -0.5438
44457SOL     OW39975   4.081   8.882   8.389 -0.2488  0.1588  0.0595
44457SOL    HW139976   4.010   8.920   8.338  0.3175 -0.5492 -1.3211
44457SOL    HW239977   4.141   8.954   8.406 -0.1994  0.3090 -0.7337
44458SOL     OW39978  12.642   0.549   5.912  0.3258  0.7751  0.5525
44458SOL    HW139979  12.592   0.614   5.863 -1.1628 -1.2185 -0.7753
44458SOL    HW239980  12.575   0.496   5.955  1.2939 -1.3057 -0.3516
44459SOL     OW39981  11.893   9.123  11.217  0.1517 -0.7186 -0.8982
44459SOL    HW139982  11.861   9.190  11.276  0.7885  1.7724 -3.1664
44459SOL    HW239983  11.815   9.077  11.186 -0.5433  0.4972 -0.9741
44460SOL     OW39984   6.927   0.535   4.332 -0.0054  0.3894  0.0284
44460SOL    HW139985   6.833   0.544   4.348 -0.3061 -0.8697 -0.9077
44460SOL    HW239986   6.953   0.620   4.295 -0.3618  1.4119  1.9569
44461SOL     OW39987   5.535  11.929   9.706 -0.4646  0.1736 -0.0963
44461SOL    HW139988   5.593  11.880   9.648 -0.4948  0.6105 -0.5013
44461SOL    HW239989   5.594  11.976   9.766 -0.4161  0.1503 -0.1259
44462SOL     OW39990   4.396   9.762   6.935  0.3629  0.0223 -0.0306
44462SOL    HW139991   4.390   9.850   6.898  1.8261  0.4666  0.6852
44462SOL    HW239992   4.399   9.776   7.030  1.5415 -0.7043  0.0643
44463SOL     OW39993   9.956   5.819  10.492 -0.6203 -0.2940  0.1888
44463SOL    HW139994   9.963   5.746  10.430 -1.0382 -0.3355  0.1901
44463SOL    HW239995   9.871   5.807  10.534  0.4458 -1.3560  2.1741
44464SOL     OW39996   7.920  11.272   6.274 -0.1687  0.1997  0.3897
44464SOL    HW139997   7.883  11.340   6.329  0.6044  0.0027  1.1633
44464SOL    HW239998   7.984  11.227   6.329  0.1338 -0.4411 -0.4481
44465SOL     OW39999   7.674   9.070   0.811  0.1799  0.2433  0.1297
44465SOL    HW140000   7.695   9.083   0.718 -1.1831 -0.7902 -0.3690
44465SOL    HW240001   7.604   9.132   0.828  0.2027  0.1997  0.3803
44466SOL     OW40002  12.770   6.788   9.434  0.2575  0.8849 -0.2153
44466SOL    HW140003  12.686   6.756   9.469 -0.0763  1.4120 -0.5076
44466SOL    HW240004  12.823   6.710   9.423 -0.7221  0.3501 -1.4214
44467SOL     OW40005   6.953   8.538   0.719  0.0435  0.1545  0.4958
44467SOL    HW140006   6.871   8.549   0.769  0.2324 -0.1507  0.8783
44467SOL    HW240007   6.987   8.627   0.709  0.8650  0.1070  2.3842
44468SOL     OW40008   2.497   8.758   2.467  0.2245  0.3307  0.4112
44468SOL    HW140009   2.500   8.826   2.534 -0.7444  0.7653  0.0436
44468SOL    HW240010   2.406   8.758   2.437  0.5357 -0.1577 -0.5931
44469SOL     OW40011   9.015  10.585   8.454  0.0334  0.0121 -0.3256
44469SOL    HW140012   9.066  10.631   8.521 -1.7131 -0.3543  1.3586
44469SOL    HW240013   9.059  10.500   8.446  0.7223  0.3487 -0.2329
44470SOL     OW40014  11.310   1.152   2.800  0.1019 -0.4343  0.3029
44470SOL    HW140015  11.396   1.143   2.841 -0.0760 -1.6964  0.4596
44470SOL    HW240016  11.288   1.245   2.808  1.5792 -0.0327 -0.0105
44471SOL     OW40017   2.109   9.301   6.905  0.2230  0.2057 -0.2627
44471SOL    HW140018   2.058   9.367   6.952  0.4337  1.6938 -2.0044
44471SOL    HW240019   2.200   9.325   6.922  0.3048  0.1149 -0.5748
44472SOL     OW40020   8.500  11.927   3.676 -0.7395  0.6309 -0.0026
44472SOL    HW140021   8.506  12.022   3.680 -0.8992  0.6092  1.0515
44472SOL    HW240022   8.406  11.908   3.673 -0.7074  0.5023 -0.2925
44473SOL     OW40023   0.850   7.760   3.269  0.3992 -0.0724 -0.0087
44473SOL    HW140024   0.811   7.792   3.187 -0.9206 -0.3138  0.5024
44473SOL    HW240025   0.824   7.668   3.273  0.6530 -0.1211  0.5611
44474SOL     OW40026   5.160   6.485   2.736 -0.2390 -0.2558 -0.1514
44474SOL    HW140027   5.234   6.496   2.796 -0.0657 -1.1030 -0.2009
44474SOL    HW240028   5.088   6.454   2.791 -0.9040  1.5723  0.0945
44475SOL     OW40029  11.225   2.582   7.909  0.0282 -0.1979  0.1871
44475SOL    HW140030  11.298   2.522   7.927 -1.4343 -1.4817  2.3659
44475SOL    HW240031  11.214   2.632   7.990 -0.5371  1.0996 -0.6538
44476SOL     OW40032   5.313   7.054  11.503 -0.4861  0.2310 -0.3040
44476SOL    HW140033   5.407   7.043  11.520 -0.5912 -2.0461 -0.8110
44476SOL    HW240034   5.309   7.105  11.422  0.4033 -1.2958 -1.3598
44477SOL     OW40035  10.055   7.718   1.910 -0.1787 -0.7225  0.4264
44477SOL    HW140036   9.972   7.727   1.863  0.3625 -1.8664 -0.8318
44477SOL    HW240037  10.031   7.705   2.002 -1.3227  0.3795  0.2921
44478SOL     OW40038   0.776  11.531  12.132 -0.0837  0.3969  0.6951
44478SOL    HW140039   0.715  11.469  12.173 -0.8364  0.0193 -0.9137
44478SOL    HW240040   0.831  11.476  12.076 -0.4828  1.1177 -0.4245
44479SOL     OW40041   2.186   9.918  12.484  0.2146  0.5343  0.7654
44479SOL    HW140042   2.186  10.002  12.531  1.7455  0.1560  1.5227
44479SOL    HW240043   2.095   9.906  12.457 -0.1193  2.2342  1.0014
44480SOL     OW40044   2.342   5.527   6.856 -0.6548  0.1782 -0.0876
44480SOL    HW140045   2.321   5.461   6.922 -1.3318 -0.9786 -1.4205
44480SOL    HW240046   2.405   5.484   6.798 -0.7981  0.8358 -0.7453
44481SOL     OW40047   8.555  11.237   5.262  0.0841 -0.2420 -0.1558
44481SOL    HW140048   8.506  11.219   5.341 -0.3061 -2.1490 -0.7818
44481SOL    HW240049   8.644  11.255   5.292  0.0161 -1.2827  0.7112
44482SOL     OW40050   9.105  11.017   4.193 -0.2271 -0.0660 -0.4614
44482SOL    HW140051   9.055  11.097   4.175 -1.8530 -1.1830 -1.1677
44482SOL    HW240052   9.196  11.045   4.197 -0.8149  1.9082 -0.1107
44483SOL     OW40053   0.937  11.335   9.120  0.0799  0.5811  0.1084
44483SOL    HW140054   1.028  11.313   9.140  0.4896  2.0102 -0.0968
44483SOL    HW240055   0.920  11.417   9.166 -1.4778 -0.2254  1.0677
44484SOL     OW40056   4.847   6.067   1.976  0.7370  0.1169 -0.7931
44484SOL    HW140057   4.859   6.006   2.049  0.7518 -2.1881 -2.6090
44484SOL    HW240058   4.765   6.111   1.995  1.4641  0.6720  1.3164
44485SOL     OW40059   6.042   2.046   1.306 -0.6033 -0.4169 -0.6130
44485SOL    HW140060   6.008   1.957   1.309 -1.0647 -0.2881 -1.5994
44485SOL    HW240061   5.975   2.099   1.349  0.6748 -0.7939  2.0429
44486SOL     OW40062  10.239   7.724   9.945 -0.4126  0.3671 -0.0658
44486SOL    HW140063  10.310   7.786   9.963 -0.7747  0.7978 -0.0959
44486SOL    HW240064  10.198   7.709  10.030  0.7945 -1.2470  0.2697
44487SOL     OW40065  12.733  12.266   8.487  0.4369 -0.0959 -0.9465
44487SOL    HW140066  12.741  12.357   8.458 -1.1966  0.5050  0.3261
44487SOL    HW240067  12.779  12.263   8.571 -1.5594  0.2481  0.2389
44488SOL     OW40068   5.250   9.709   5.937 -0.2446 -0.3862  0.3459
44488SOL    HW140069   5.320   9.762   5.897 -1.0004  1.9896  1.9335
44488SOL    HW240070   5.296   9.647   5.993  0.6368 -0.7690 -0.7503
44489SOL     OW40071   9.796   6.392   5.273  0.1469 -0.4043  0.1882
44489SOL    HW140072   9.748   6.473   5.291  2.4103  1.1868 -0.5177
44489SOL    HW240073   9.819   6.357   5.359 -1.5705 -0.8256  0.5205
44490SOL     OW40074   2.286  12.778  12.049 -0.2357 -0.4525 -0.1925
44490SOL    HW140075   2.200  12.807  12.080 -0.2309 -0.6374 -0.0037
44490SOL    HW240076   2.314  12.713  12.114  0.2638 -0.0380  0.0146
44491SOL     OW40077  10.912   6.865   3.996 -0.5171 -0.3777  0.3219
44491SOL    HW140078  10.863   6.902   4.070 -1.8142  1.3183 -1.3039
44491SOL    HW240079  11.004   6.883   4.017 -0.9673  5.2651 -0.8245
44492SOL     OW40080   6.848   1.722   7.049 -0.4116  0.1965 -0.5569
44492SOL    HW140081   6.773   1.665   7.062 -0.4963  0.0949 -1.4075
44492SOL    HW240082   6.812   1.801   7.008  0.0379 -0.2085 -1.7938
44493SOL     OW40083   3.142   6.537   8.546  0.0147  0.3193 -0.5194
44493SOL    HW140084   3.066   6.519   8.602 -0.8405 -0.1136 -1.7589
44493SOL    HW240085   3.183   6.614   8.584  1.1367 -1.5254  2.3448
44494SOL     OW40086  12.532  12.376   3.031  0.4811 -0.3588 -0.2188
44494SOL    HW140087  12.456  12.432   3.046  1.1744  0.9951 -1.5192
44494SOL    HW240088  12.582  12.421   2.963  1.1467 -2.4840 -1.2280
44495SOL     OW40089   2.911   5.831  12.117 -0.6516 -0.4032  0.0890
44495SOL    HW140090   2.964   5.828  12.037  1.7338  0.2452  1.5396
44495SOL    HW240091   2.822   5.811  12.088 -0.3390  2.0424 -3.0950
44496SOL     OW40092   6.120   0.138  10.654  0.5872 -0.3170 -0.5820
44496SOL    HW140093   6.059   0.093  10.712  2.4889 -2.2238  0.0966
44496SOL    HW240094   6.065   0.177  10.587 -1.4973 -0.2874  1.0269
44497SOL     OW40095   8.746   4.583   2.022  0.1301 -0.3142  0.6180
44497SOL    HW140096   8.677   4.525   1.989  0.5154 -0.0094 -0.7851
44497SOL    HW240097   8.824   4.528   2.024  0.6270  0.2479 -1.2619
44498SOL     OW40098  11.427   4.122   4.593 -0.1771  0.2854  0.1811
44498SOL    HW140099  11.471   4.112   4.678 -1.6817  1.5501  1.1722
44498SOL    HW240100  11.499   4.124   4.530  0.9199 -1.9684  1.2524
44499SOL     OW40101   9.981   9.655   8.032 -0.4120  0.7089  0.0575
44499SOL    HW140102  10.018   9.638   7.945  0.0859 -2.4603  0.7647
44499SOL    HW240103   9.901   9.603   8.035 -0.8206  1.3569  1.2645
44500SOL     OW40104   7.006  11.530  11.288  0.0465  0.2376  0.3768
44500SOL    HW140105   7.022  11.530  11.194 -1.2952  0.5073  0.1193
44500SOL    HW240106   7.089  11.506  11.327  0.4763 -0.4515 -0.9104
44501SOL     OW40107  10.266   6.585   2.723  0.0269  0.3309 -0.3832
44501SOL    HW140108  10.228   6.545   2.801  1.6475  0.0053  0.2945
44501SOL    HW240109  10.328   6.649   2.757  0.8143  0.1350 -1.3861
44502SOL     OW40110   7.892  10.038   5.327 -0.0159  0.7421 -0.5897
44502SOL    HW140111   7.847  10.105   5.276 -0.4095 -0.4111 -1.7867
44502SOL    HW240112   7.978  10.030   5.287 -0.9210 -1.4032 -2.2864
44503SOL     OW40113   1.346   1.808   4.937  0.2445 -0.3686 -0.7659
44503SOL    HW140114   1.353   1.764   4.853 -0.1905 -0.4355 -0.7661
44503SOL    HW240115   1.436   1.836   4.956  0.5605 -1.3856 -0.6887
44504SOL     OW40116   4.117   0.405   7.016  0.2084  0.0308 -0.0466
44504SOL    HW140117   4.050   0.406   7.085  0.0554 -1.3749 -0.1436
44504SOL    HW240118   4.070   0.376   6.938  0.7974 -0.3556 -0.2631
44505SOL     OW40119   4.465   7.284   2.657 -0.5581 -0.5283  0.6115
44505SOL    HW140120   4.459   7.192   2.683 -1.7621  0.1726  3.2026
44505SOL    HW240121   4.559   7.301   2.651 -0.3182 -1.9810 -0.3049
44506SOL     OW40122   4.506   3.275   1.268 -0.5675  0.0371 -0.1174
44506SOL    HW140123   4.445   3.345   1.245  0.2663  0.6849 -0.3895
44506SOL    HW240124   4.526   3.231   1.185  1.8852  1.9263 -0.6193
44507SOL     OW40125   6.147   5.673  11.267 -0.0317 -0.5129 -0.2129
44507SOL    HW140126   6.055   5.662  11.241 -0.0011 -0.3226 -0.4018
44507SOL    HW240127   6.142   5.700  11.359 -0.1414 -1.1344 -0.0304
44508SOL     OW40128   7.203   0.960   6.144 -0.5057 -0.1615  0.4161
44508SOL    HW140129   7.147   0.898   6.192 -2.3962  2.5762  2.0577
44508SOL    HW240130   7.142   1.027   6.111  1.2757  0.2356 -2.3871
44509SOL     OW40131   3.335  10.618   6.367  0.1228 -0.8733  0.6286
44509SOL    HW140132   3.400  10.685   6.345 -0.2177 -0.7892 -0.1385
44509SOL    HW240133   3.367  10.538   6.325 -1.1703 -0.4285 -1.3102
44510SOL     OW40134   3.160   0.248   8.942  0.5728  0.0798 -0.3050
44510SOL    HW140135   3.160   0.306   9.018 -0.4586  2.0150 -1.7101
44510SOL    HW240136   3.220   0.289   8.880  0.9495 -1.1591 -0.7992
44511SOL     OW40137   5.211   6.083   3.351 -0.1675 -0.1382 -0.2506
44511SOL    HW140138   5.132   6.041   3.318 -0.9586  0.2448  1.0823
44511SOL    HW240139   5.180   6.146   3.416  1.1506  0.9375 -0.6106
44512SOL     OW40140   2.727   3.840   9.246  0.3163 -0.2592  0.2286
44512SOL    HW140141   2.731   3.933   9.267 -0.2964 -0.1046 -0.3554
44512SOL    HW240142   2.795   3.827   9.180  0.6644 -0.3115  0.5870
44513SOL     OW40143   2.613   8.405  11.400  0.9263 -0.1054 -0.0121
44513SOL    HW140144   2.622   8.500  11.394  2.5492 -0.2867 -1.2309
44513SOL    HW240145   2.550   8.391  11.471 -0.5815  1.9029 -0.8600
44514SOL     OW40146  10.228   1.189   5.684  0.7518 -0.2883  0.2013
44514SOL    HW140147  10.234   1.123   5.616 -0.7852  0.4461 -0.7097
44514SOL    HW240148  10.175   1.148   5.753  0.7659 -0.4078  0.1407
44515SOL     OW40149   2.070  10.271   4.744  0.2382 -1.0763  0.8086
44515SOL    HW140150   2.103  10.345   4.795 -1.0942 -2.0606  3.2594
44515SOL    HW240151   2.076  10.300   4.653  2.4235  0.9130  1.4813
44516SOL     OW40152   7.735   9.122   0.556  0.4020 -0.3104  0.3187
44516SOL    HW140153   7.748   9.055   0.489 -0.9782 -0.2086 -0.0879
44516SOL    HW240154   7.697   9.196   0.508  0.4274  0.1728  1.0315
44517SOL     OW40155  11.571   1.909  10.264 -0.0325  0.7323 -0.1310
44517SOL    HW140156  11.494   1.851  10.261  0.5750 -0.0900 -0.2117
44517SOL    HW240157  11.584   1.926  10.357 -0.2247  0.7492 -0.1076
44518SOL     OW40158   3.589  10.221   5.804  0.2673  0.3006 -0.1601
44518SOL    HW140159   3.580  10.142   5.858  1.7094  1.0446  1.2604
44518SOL    HW240160   3.577  10.190   5.714 -1.7519 -1.0618  0.5230
44519SOL     OW40161   4.491   1.657   5.894 -0.2228  0.3940 -0.4177
44519SOL    HW140162   4.512   1.569   5.862 -1.3687 -0.3128  0.6835
44519SOL    HW240163   4.528   1.716   5.828 -0.8665 -0.9399 -2.0521
44520SOL     OW40164   9.788   0.845   6.635  0.4052  0.9098 -0.2870
44520SOL    HW140165   9.804   0.785   6.708 -0.8084  1.8759  0.8354
44520SOL    HW240166   9.740   0.793   6.570 -0.4582  0.5753  0.5921
44521SOL     OW40167   3.875   3.484  12.565 -0.3169 -0.2621  0.0939
44521SOL    HW140168   3.861   3.430  12.643 -0.4565 -0.7078 -0.2355
44521SOL    HW240169   3.843   3.571  12.589  0.0687 -0.2808  0.6909
44522SOL     OW40170   1.237   7.679  12.195  0.4697 -0.0679  0.0624
44522SOL    HW140171   1.239   7.735  12.118  0.6896 -1.1885 -0.7688
44522SOL    HW240172   1.145   7.674  12.220  0.0269 -1.8267 -1.7465
44523SOL     OW40173   9.634   9.963   3.588  0.6983 -0.3748 -0.0871
44523SOL    HW140174   9.676   9.877   3.584  1.9496  0.2336 -1.0053
44523SOL    HW240175   9.671  10.011   3.513 -0.7267  0.6284 -0.1854
44524SOL     OW40176   0.749   7.352   1.459 -0.6244 -0.5073 -0.1793
44524SOL    HW140177   0.778   7.261   1.472  0.9912 -0.0802 -0.5695
44524SOL    HW240178   0.753   7.365   1.364 -0.8554 -0.0289 -0.1246
44525SOL     OW40179   4.902   8.436  12.394  0.1769  0.3102 -0.3365
44525SOL    HW140180   4.900   8.526  12.362 -1.7454 -0.2159 -1.9449
44525SOL    HW240181   4.845   8.388  12.333 -1.1830 -1.4336  2.1116
44526SOL     OW40182  10.838  10.913   2.538  0.1752  0.0998 -0.5823
44526SOL    HW140183  10.799  10.984   2.588 -0.0102  0.1541 -0.8024
44526SOL    HW240184  10.890  10.864   2.602 -1.4005 -0.8290  0.0486
44527SOL     OW40185   8.993  11.113   9.667  0.1633 -0.3813  0.2136
44527SOL    HW140186   9.042  11.157   9.598 -0.0564 -1.4717 -0.6632
44527SOL    HW240187   8.939  11.182   9.706 -0.2077  0.1331 -1.1444
44528SOL     OW40188   5.921   6.596  11.610  0.0499  0.3770 -0.2600
44528SOL    HW140189   5.829   6.570  11.606 -0.0628  0.6174  0.5971
44528SOL    HW240190   5.954   6.555  11.690  0.4040  1.1755  0.0117
44529SOL     OW40191   1.173   4.645   2.666  0.4412 -0.1990 -0.3114
44529SOL    HW140192   1.236   4.703   2.709  0.6579  0.7484 -1.7965
44529SOL    HW240193   1.227   4.587   2.612  0.0927  0.0986 -0.9917
44530SOL     OW40194  12.621   8.143   6.298 -0.8422  0.5346  1.0003
44530SOL    HW140195  12.679   8.110   6.366 -0.6652 -0.4403  0.3965
44530SOL    HW240196  12.597   8.231   6.328  0.4613  0.7326  1.5446
44531SOL     OW40197   4.591   7.718   1.940  0.3976 -0.3055 -0.2107
44531SOL    HW140198   4.573   7.732   1.848  0.3592 -0.9293 -0.3015
44531SOL    HW240199   4.570   7.802   1.982 -1.5097 -0.6005 -0.4821
44532SOL     OW40200  11.361   4.848   7.242 -0.2039 -0.8517 -0.3082
44532SOL    HW140201  11.399   4.869   7.157 -0.0651 -1.5930 -0.4346
44532SOL    HW240202  11.284   4.906   7.248  0.0184 -0.4978 -0.7507
44533SOL     OW40203   3.674  11.138  12.603 -0.0259  0.1380  0.2106
44533SOL    HW140204   3.751  11.146  12.547 -0.0225 -1.2010 -0.0139
44533SOL    HW240205   3.624  11.065  12.565 -0.2112 -0.5529  1.7126
44534SOL     OW40206   3.758   7.617   9.509  0.1621  0.4145 -0.0596
44534SOL    HW140207   3.705   7.556   9.560  0.8788  0.2093  0.4586
44534SOL    HW240208   3.695   7.678   9.471 -0.4893 -0.1674  0.0719
44535SOL     OW40209  10.717  10.460   3.943  0.0293  0.1742  0.1676
44535SOL    HW140210  10.699  10.368   3.964  1.2765  0.0122  0.5742
44535SOL    HW240211  10.632  10.504   3.953 -0.1105 -0.5073  2.2876
44536SOL     OW40212   4.970   8.820   5.230 -0.0878 -0.3180  0.7084
44536SOL    HW140213   5.018   8.794   5.309 -0.5446 -0.1773  1.0360
44536SOL    HW240214   4.963   8.915   5.238  1.0746 -0.1346 -0.1958
44537SOL     OW40215  12.095   9.779   3.230  0.6301  0.0967 -0.0234
44537SOL    HW140216  12.093   9.869   3.198 -1.6739  0.4733  0.9652
44537SOL    HW240217  12.021   9.737   3.185  2.1299 -1.5817 -1.0789
44538SOL     OW40218  10.165   9.853   6.174  0.0182 -0.1416 -0.6005
44538SOL    HW140219  10.077   9.863   6.136 -0.1482 -1.6694 -0.6909
44538SOL    HW240220  10.159   9.896   6.259 -0.6771  0.1845 -0.8030
44539SOL     OW40221   4.385   2.385   9.205 -0.1399  0.0181  0.0047
44539SOL    HW140222   4.366   2.477   9.186  0.3354  0.3424  1.0269
44539SOL    HW240223   4.380   2.379   9.300 -1.2195 -1.2653 -0.1071
44540SOL     OW40224   9.963  12.703   9.446 -0.8873 -0.0417  0.3264
44540SOL    HW140225  10.032  12.767   9.459 -1.3428  0.6247 -0.5088
44540SOL    HW240226   9.914  12.734   9.370 -1.0789 -1.4049 -0.1420
44541SOL     OW40227   6.576  10.173   2.144  0.4071 -0.1906 -0.1458
44541SOL    HW140228   6.516  10.222   2.200  2.5696  1.1229  1.1705
44541SOL    HW240229   6.573  10.084   2.179 -0.4695 -0.0660  0.1328
44542SOL     OW40230   7.271  11.892   6.343  0.0371 -0.5029 -0.0700
44542SOL    HW140231   7.328  11.966   6.366 -0.3232 -0.8157  2.0037
44542SOL    HW240232   7.326  11.835   6.290  0.9959  0.1930  0.1475
44543SOL     OW40233   6.289   6.696   5.672  0.1442  0.3138 -0.5518
44543SOL    HW140234   6.308   6.739   5.755  0.0900  1.8834 -1.3132
44543SOL    HW240235   6.196   6.710   5.658  0.2084  0.3128 -1.0029
44544SOL     OW40236   5.318   5.173   9.754  0.3185 -0.2648 -0.2211
44544SOL    HW140237   5.310   5.087   9.795 -0.8031 -1.9736 -3.5979
44544SOL    HW240238   5.402   5.207   9.785 -0.5484 -1.1182  3.5196
44545SOL     OW40239   9.754   4.813   0.070  0.0320  0.1289 -0.1707
44545SOL    HW140240   9.733   4.884   0.009 -2.4707 -1.2420 -1.0373
44545SOL    HW240241   9.675   4.803   0.123 -0.5327 -3.2293 -1.4133
44546SOL     OW40242   1.464   2.245   2.194 -0.0740  0.1292  0.0631
44546SOL    HW140243   1.476   2.319   2.133 -0.4442  0.0627 -0.0924
44546SOL    HW240244   1.450   2.286   2.279 -1.3529  0.2812 -0.1967
44547SOL     OW40245   0.248   6.345   6.904 -0.2009 -0.5664  1.1261
44547SOL    HW140246   0.293   6.430   6.911  0.5626 -0.8444 -0.1502
44547SOL    HW240247   0.165   6.359   6.948 -2.5221  2.5452 -3.4304
44548SOL     OW40248   3.069   2.530   3.290  0.6070 -0.4250  0.6373
44548SOL    HW140249   3.057   2.500   3.380  0.2772  0.3167  0.8480
44548SOL    HW240250   3.074   2.449   3.239 -0.0788 -0.8472  1.2095
44549SOL     OW40251  12.618  12.069   4.071 -0.4481 -0.5065 -0.3578
44549SOL    HW140252  12.637  12.160   4.093 -1.6842 -0.4624  0.6068
44549SOL    HW240253  12.631  12.064   3.976  1.3385  0.2228 -0.1878
44550SOL     OW40254  11.430   7.014  11.351  0.6339  0.2575 -0.0133
44550SOL    HW140255  11.349   7.000  11.302  1.4081 -1.1674 -0.9278
44550SOL    HW240256  11.488   6.943  11.324  0.7980 -1.2481  3.6497
44551SOL     OW40257   2.784   9.737   8.486 -0.0788 -0.4585 -0.6957
44551SOL    HW140258   2.737   9.682   8.422 -2.2482  0.4317  0.0158
44551SOL    HW240259   2.756   9.702   8.571  0.6667  0.0462 -0.2352
44552SOL     OW40260   1.572  11.167  10.739 -0.6030  0.1076  0.2845
44552SOL    HW140261   1.584  11.092  10.797 -0.7335 -0.7865 -0.7990
44552SOL    HW240262   1.527  11.131  10.663  0.0848  1.1176 -0.6318
44553SOL     OW40263  12.346  11.246  10.407 -0.0436 -0.4584  0.0444
44553SOL    HW140264  12.397  11.169  10.429  2.5422  0.6843 -1.4870
44553SOL    HW240265  12.286  11.257  10.481  1.8887 -1.9348  1.9685
44554SOL     OW40266   1.602  12.454   5.033  0.2330  0.1293 -0.1006
44554SOL    HW140267   1.603  12.546   5.008  0.4147  0.1414 -0.0497
44554SOL    HW240268   1.663  12.448   5.107 -0.7751  0.2187  0.7699
44555SOL     OW40269   2.190   8.322   7.930  0.0339  0.7930  0.2624
44555SOL    HW140270   2.123   8.268   7.888  1.2920 -0.8201  0.2206
44555SOL    HW240271   2.226   8.376   7.859 -1.1301  1.6232  0.2738
44556SOL     OW40272  10.586  12.255   3.100  0.3650  0.1688  0.3236
44556SOL    HW140273  10.585  12.220   3.010 -0.4981 -0.0914  0.4216
44556SOL    HW240274  10.522  12.326   3.098  2.5574  2.2680 -0.0391
44557SOL     OW40275   7.746   1.247   4.840  0.5812  0.3947 -0.2241
44557SOL    HW140276   7.791   1.163   4.848  0.7163  0.5139  0.3035
44557SOL    HW240277   7.803   1.299   4.783  0.9848  0.4599  0.2343
44558SOL     OW40278   0.834  10.346   5.058 -0.2064  0.3631 -0.1488
44558SOL    HW140279   0.878  10.383   4.981 -1.9362  1.9968 -0.4246
44558SOL    HW240280   0.817  10.422   5.114 -1.2292 -0.4445  0.6553
44559SOL     OW40281   6.644   2.508   3.330 -0.4195  0.2990  0.4351
44559SOL    HW140282   6.703   2.433   3.327  0.6355  1.1209 -0.5405
44559SOL    HW240283   6.672   2.558   3.406  0.4485  0.8921 -0.2497
44560SOL     OW40284   9.178   7.181   1.647 -0.5899 -0.0935 -0.1718
44560SOL    HW140285   9.202   7.273   1.648 -1.0242  0.0197 -0.1326
44560SOL    HW240286   9.243   7.140   1.590 -0.4511  0.2513 -0.2606
44561SOL     OW40287   7.844   4.596   7.858 -0.2610 -0.0709 -0.4112
44561SOL    HW140288   7.795   4.513   7.859 -0.5778  0.1166 -0.3192
44561SOL    HW240289   7.936   4.569   7.860 -0.3676 -0.4053  0.2037
44562SOL     OW40290   5.697   0.485  11.322 -0.7124  0.0446  0.4224
44562SOL    HW140291   5.635   0.556  11.339  0.2697  0.9183  0.4416
44562SOL    HW240292   5.783   0.527  11.324 -0.2055 -0.7651 -1.4407
44563SOL     OW40293   6.889  10.732   2.284  0.3917  0.4496 -0.0496
44563SOL    HW140294   6.870  10.707   2.194 -0.8855 -0.0823  0.3503
44563SOL    HW240295   6.813  10.702   2.335  1.8834 -0.9448  1.5114
44564SOL     OW40296   1.130   3.834   8.015  0.2180 -0.5135  0.5817
44564SOL    HW140297   1.221   3.808   8.028  0.4394  0.4252  0.9464
44564SOL    HW240298   1.081   3.782   8.079  0.8106  0.9336  2.2674
44565SOL     OW40299   0.126   5.906  12.094  0.4471 -0.5967 -0.1055
44565SOL    HW140300   0.219   5.929  12.083  0.9538 -2.0216  0.9774
44565SOL    HW240301   0.107   5.924  12.186 -0.4426 -0.0735 -0.3785
44566SOL     OW40302   0.759   1.633   9.053  0.5147 -0.3842 -0.0775
44566SOL    HW140303   0.823   1.563   9.062  0.5974 -0.2538  0.3627
44566SOL    HW240304   0.812   1.712   9.041  0.4413 -0.6306 -2.6864
44567SOL     OW40305  12.347   6.885   2.228  0.2047 -0.0423  0.4892
44567SOL    HW140306  12.369   6.844   2.312  0.5911  0.9192  0.8624
44567SOL    HW240307  12.267   6.935   2.246  0.7498  0.8445  0.5148
44568SOL     OW40308  11.778   5.178   2.262  0.3039  0.3457 -0.2947
44568SOL    HW140309  11.790   5.121   2.186  1.4146 -0.9263  0.8026
44568SOL    HW240310  11.822   5.133   2.334 -1.4885  1.0562  1.3463
44569SOL     OW40311   6.220   2.581  10.006  0.0042 -0.0456 -0.4328
44569SOL    HW140312   6.301   2.613   9.967  0.3205 -2.0643 -1.5398
44569SOL    HW240313   6.241   2.495  10.040 -1.4020 -0.1427  0.2736
44570SOL     OW40314   3.529   7.036   3.504 -0.0364 -0.4446 -0.2368
44570SOL    HW140315   3.596   7.020   3.571 -0.3030  0.2939  0.2247
44570SOL    HW240316   3.446   7.028   3.551 -0.3107 -1.8472 -0.9111
44571SOL     OW40317   1.055   3.389   0.530  0.5895  0.1143  0.2535
44571SOL    HW140318   1.064   3.293   0.526 -3.2254 -0.4232  0.7741
44571SOL    HW240319   1.043   3.415   0.439 -2.7249 -0.6278  0.3583
44572SOL     OW40320   2.464   7.137  11.034  0.3305  0.2714 -0.3740
44572SOL    HW140321   2.443   7.134  11.127 -1.8810  1.6100 -0.7477
44572SOL    HW240322   2.409   7.070  10.994  0.5962  0.3173 -0.8337
44573SOL     OW40323  10.107   2.371   1.778 -0.1488  0.0830 -0.2187
44573SOL    HW140324  10.056   2.449   1.800 -0.5656 -0.5746  1.2907
44573SOL    HW240325  10.098   2.362   1.683 -2.2197  0.4523 -0.1121
44574SOL     OW40326   9.756   7.017   4.967  0.8037  0.0965  0.1968
44574SOL    HW140327   9.837   7.059   4.939  0.7292 -0.5976 -1.1326
44574SOL    HW240328   9.693   7.089   4.976  1.2240  0.4922 -0.0154
44575SOL     OW40329   1.868   2.986   5.539  0.0737 -0.2388 -0.1165
44575SOL    HW140330   1.831   2.950   5.458  0.3714 -0.1489 -0.2979
44575SOL    HW240331   1.945   3.036   5.509 -0.7140  1.1131  0.0498
44576SOL     OW40332  11.162   2.962  10.094 -0.1276  0.2232 -0.3345
44576SOL    HW140333  11.177   3.057  10.097  0.3968  0.1301  0.2756
44576SOL    HW240334  11.193   2.936  10.007 -0.8625  0.7019 -0.7475
44577SOL     OW40335   5.532   8.529   3.872 -0.5459  0.1120 -0.3769
44577SOL    HW140336   5.525   8.548   3.779 -1.3220  0.3427 -0.2761
44577SOL    HW240337   5.618   8.488   3.882 -0.3796  0.2618 -1.1601
44578SOL     OW40338  11.581  10.558   5.576  0.2118 -0.2950 -0.4396
44578SOL    HW140339  11.635  10.479   5.576  0.5141 -0.0976 -1.5899
44578SOL    HW240340  11.642  10.629   5.559  0.0895  0.3339  1.4918
44579SOL     OW40341   5.161   6.748  11.109  0.5097 -0.2903 -0.8607
44579SOL    HW140342   5.198   6.832  11.136 -0.6830  0.9954 -2.9837
44579SOL    HW240343   5.214   6.683  11.154  2.1169  1.5680  0.0648
44580SOL     OW40344   2.272   9.385   4.967 -0.3399  0.4154 -0.3853
44580SOL    HW140345   2.210   9.374   4.895  0.2958  1.5066 -1.1200
44580SOL    HW240346   2.308   9.297   4.981  0.1380  0.3250 -1.9700
44581SOL     OW40347   9.217   3.872   5.923  0.1223 -0.2966 -0.3210
44581SOL    HW140348   9.295   3.922   5.949 -0.5834  1.3187 -1.1925
44581SOL    HW240349   9.245   3.781   5.928  0.9629 -0.0012  3.0548
44582SOL     OW40350   9.236   2.794   1.970  0.0563 -0.2945 -0.3627
44582SOL    HW140351   9.160   2.830   2.015  0.7457 -0.1318  0.7042
44582SOL    HW240352   9.265   2.865   1.913 -1.1663 -0.7047 -1.5439
44583SOL     OW40353   9.914   1.399  10.057 -1.0796  0.3527 -0.1527
44583SOL    HW140354   9.976   1.384   9.985 -0.2225  1.0309  0.4134
44583SOL    HW240355   9.925   1.324  10.114 -0.5991  0.5737  0.0553
44584SOL     OW40356   2.110   5.328   6.921 -0.1331 -0.4849 -0.1943
44584SOL    HW140357   2.151   5.284   6.995  2.0784  0.7050 -0.6256
44584SOL    HW240358   2.070   5.258   6.870  0.4071 -1.5939  0.8574
44585SOL     OW40359   5.074   8.833   3.549  0.4041  0.0363 -0.1003
44585SOL    HW140360   5.139   8.903   3.544  0.7852  0.1174  3.2636
44585SOL    HW240361   4.996   8.869   3.508  1.2972  1.4877 -0.5999
44586SOL     OW40362   5.809   8.200   2.899 -0.0927  1.0212  0.2526
44586SOL    HW140363   5.902   8.192   2.920 -0.0893  0.8969  0.1910
44586SOL    HW240364   5.774   8.111   2.911 -0.4927  1.3368  1.6739
44587SOL     OW40365   7.876  11.809   8.358  0.7920 -0.6809  0.4393
44587SOL    HW140366   7.781  11.817   8.352  0.9913  0.7622 -2.4479
44587SOL    HW240367   7.892  11.714   8.352 -0.4300 -0.9044  0.4966
44588SOL     OW40368   6.471  12.686   9.026 -0.2056  0.0640  0.5690
44588SOL    HW140369   6.421  12.604   9.025 -0.9854  0.4391  2.9545
44588SOL    HW240370   6.545  12.668   9.083  0.2516  0.7025  0.1921
44589SOL     OW40371   6.975   8.480   9.148 -0.5664 -0.6504  0.1997
44589SOL    HW140372   7.025   8.422   9.091  0.4223  0.3929 -0.0306
44589SOL    HW240373   6.911   8.422   9.191  1.4517 -2.2174  1.2669
44590SOL     OW40374   7.057  11.331   5.878 -0.0668  0.2802 -0.5445
44590SOL    HW140375   6.991  11.264   5.858  0.3293 -0.5059  0.6528
44590SOL    HW240376   7.008  11.414   5.878 -0.7440 -0.1095 -1.1888
44591SOL     OW40377   6.150   1.906   1.726 -0.2528 -0.5360 -0.9055
44591SOL    HW140378   6.245   1.918   1.737 -0.1830 -0.7527 -1.2818
44591SOL    HW240379   6.132   1.824   1.771 -0.7259  0.8505  1.6394
44592SOL     OW40380  10.475   0.246   6.590  0.3301 -0.1745 -0.0377
44592SOL    HW140381  10.391   0.289   6.574  2.0482  3.1172 -1.1560
44592SOL    HW240382  10.513   0.235   6.503  1.9800  0.6146  0.5384
44593SOL     OW40383  11.494   6.519  11.728  0.1051 -0.5737  0.9858
44593SOL    HW140384  11.436   6.577  11.680  0.0355 -1.4983 -0.0840
44593SOL    HW240385  11.525   6.456  11.663  0.8227 -1.2338  1.9350
44594SOL     OW40386   1.060   4.434   1.335 -0.1989 -0.7911  0.2048
44594SOL    HW140387   1.020   4.476   1.259 -1.2204 -1.9550  0.0751
44594SOL    HW240388   1.146   4.477   1.343  0.7664 -1.8677 -2.7278
44595SOL     OW40389   0.113   9.872  11.826  0.2505  0.1586 -0.1302
44595SOL    HW140390   0.194   9.917  11.849 -0.5290  1.0031  1.0531
44595SOL    HW240391   0.057   9.940  11.787 -0.7219  0.1132  1.1367
44596SOL     OW40392   7.481   7.068  10.320  0.1846  0.1684 -0.2832
44596SOL    HW140393   7.437   7.106  10.397 -0.3022 -0.9759  0.0195
44596SOL    HW240394   7.549   7.132  10.298  0.6621  0.2970  1.4081
44597SOL     OW40395   4.879   9.931   9.697 -0.1286  0.0163  0.0705
44597SOL    HW140396   4.917   9.926   9.784 -1.0732  0.4456  0.5111
44597SOL    HW240397   4.852   9.841   9.678 -3.3236  0.4842  1.7928
44598SOL     OW40398   4.427   2.975  11.834 -0.0965 -0.2327  0.4193
44598SOL    HW140399   4.485   2.939  11.767 -0.3933 -0.0346  0.0504
44598SOL    HW240400   4.363   3.026  11.785 -1.0347 -1.0647  0.7479
44599SOL     OW40401   4.449   6.315   7.844  0.1577 -0.1479 -0.3738
44599SOL    HW140402   4.375   6.313   7.782  0.1707  0.4709 -0.4109
44599SOL    HW240403   4.416   6.364   7.919  0.9454  1.2882 -0.9400
44600SOL     OW40404   5.048   5.760   9.845  0.1909 -0.2773 -0.2369
44600SOL    HW140405   5.121   5.729   9.791  1.0659 -0.7873  1.1830
44600SOL    HW240406   5.005   5.679   9.874  2.5970 -0.4260  3.6523
44601SOL     OW40407  11.811   6.501   3.407  0.0362  0.3954  0.2455
44601SOL    HW140408  11.875   6.482   3.476 -0.2230 -0.5199  0.2467
44601SOL    HW240409  11.816   6.596   3.395  1.9893  0.2639 -0.3352
44602SOL     OW40410  11.278   2.005   9.737 -0.1142 -0.1778 -0.7648
44602SOL    HW140411  11.192   2.045   9.754  0.5877  1.1910 -0.2467
44602SOL    HW240412  11.297   1.955   9.816  0.3137  0.9442 -0.1355
44603SOL     OW40413   4.649   3.446   8.849 -0.1715 -0.4381  0.1427
44603SOL    HW140414   4.723   3.392   8.822  0.3536  1.3204 -2.3047
44603SOL    HW240415   4.578   3.421   8.791 -1.1233 -1.1481  1.5681
44604SOL     OW40416   6.172  11.747   0.623 -0.0706 -0.0331  0.1144
44604SOL    HW140417   6.219  11.675   0.665  0.6740 -0.6870 -1.7362
44604SOL    HW240418   6.107  11.704   0.568 -0.5475  0.7704  0.0345
44605SOL     OW40419   8.673   0.009   7.369  0.1618  0.2201  0.0726
44605SOL    HW140420   8.705   0.074   7.431 -0.0344 -0.5585  1.0168
44605SOL    HW240421   8.674   0.054   7.284  0.6150  1.2433  0.6013
44606SOL     OW40422   0.665   6.406   7.425  0.2339  0.3316 -0.1569
44606SOL    HW140423   0.587   6.455   7.400  0.3066  0.2433 -0.5513
44606SOL    HW240424   0.688   6.355   7.348  0.1270 -0.3684  0.2668
44607SOL     OW40425   8.540   3.911  12.060  0.2872  0.0741  0.1383
44607SOL    HW140426   8.512   3.839  12.003 -0.1548 -0.2701  0.7830
44607SOL    HW240427   8.464   3.930  12.114  0.6558  0.5013  0.5115
44608SOL     OW40428  11.783   4.095   9.223  0.1789 -0.2417  0.7759
44608SOL    HW140429  11.806   4.013   9.179  0.2696  0.1398  0.1035
44608SOL    HW240430  11.859   4.115   9.277  0.2318 -0.5049  0.8019
44609SOL     OW40431   9.647   0.409   2.890 -0.1257  0.0864  0.2918
44609SOL    HW140432   9.713   0.403   2.959 -0.4802  0.4532  0.6675
44609SOL    HW240433   9.670   0.489   2.843 -0.4726  0.3787  0.6096
44610SOL     OW40434   9.401   4.771   1.918  0.0707  0.0844 -0.4451
44610SOL    HW140435   9.319   4.769   1.869 -0.3132 -0.6071  0.2139
44610SOL    HW240436   9.409   4.861   1.948  0.5760  0.6619 -2.2085
44611SOL     OW40437  11.435  12.073   5.971  0.4924 -0.2448  0.0898
44611SOL    HW140438  11.365  12.138   5.966  0.6264  0.1694  2.4659
44611SOL    HW240439  11.484  12.083   5.889 -0.7926  1.1205 -0.5421
44612SOL     OW40440   3.895   5.931   0.619  0.0513  0.2965  0.5227
44612SOL    HW140441   3.959   5.929   0.548  0.0211  1.0885  0.4615
44612SOL    HW240442   3.836   5.858   0.601 -0.1188  0.6547 -0.4315
44613SOL     OW40443   0.289   1.505   4.684 -0.7303 -0.3246  0.3883
44613SOL    HW140444   0.277   1.600   4.689 -0.9410 -0.3624  0.6443
44613SOL    HW240445   0.218   1.475   4.627  0.2395 -0.1649 -0.9524
44614SOL     OW40446   0.231   9.235   0.833 -0.1022  0.3104 -0.0371
44614SOL    HW140447   0.318   9.228   0.874  0.3038 -0.4297 -0.9756
44614SOL    HW240448   0.246   9.214   0.741 -1.1006  1.3300 -0.4536
44615SOL     OW40449   4.582   9.111  10.654  0.2733  0.6570 -0.2150
44615SOL    HW140450   4.580   9.207  10.654  1.0275  0.6928  1.1427
44615SOL    HW240451   4.526   9.085  10.727 -0.5123  0.0198 -1.0145
44616SOL     OW40452   1.660   1.848   1.638 -0.3321 -0.2751  0.0927
44616SOL    HW140453   1.667   1.824   1.546 -0.8083 -0.7703  0.1845
44616SOL    HW240454   1.697   1.937   1.642  0.2669 -0.4897 -0.4578
44617SOL     OW40455   9.989   1.893   2.449 -0.0324 -0.5456  0.5077
44617SOL    HW140456   9.897   1.878   2.427 -0.7092  1.7463  1.4589
44617SOL    HW240457  10.012   1.972   2.399  1.1542 -0.6172  0.9229
44618SOL     OW40458   3.093   6.853   6.665  0.0931  0.1445 -0.0245
44618SOL    HW140459   3.018   6.847   6.606  1.0317  1.1639 -1.3765
44618SOL    HW240460   3.068   6.919   6.730 -0.7428 -0.6138  0.4550
44619SOL     OW40461   9.640   7.620   0.127  0.1149  0.0472  0.6388
44619SOL    HW140462   9.560   7.599   0.174  0.0978 -0.3052  0.4546
44619SOL    HW240463   9.685   7.537   0.116  0.0923  0.1086 -0.0058
44620SOL     OW40464   5.817   5.066   6.820 -0.3237  0.3880 -0.6237
44620SOL    HW140465   5.827   5.128   6.748 -2.3273 -0.2797 -1.5528
44620SOL    HW240466   5.723   5.064   6.836  0.0215 -0.0629  1.5274
44621SOL     OW40467  11.792  12.225   0.111 -0.2415 -0.0451  1.3619
44621SOL    HW140468  11.771  12.143   0.156  0.2791  0.1986  2.0765
44621SOL    HW240469  11.853  12.200   0.042 -1.8883 -0.5817  0.0517
44622SOL     OW40470   0.352   2.060   8.668  0.7124 -0.0165 -0.2854
44622SOL    HW140471   0.287   2.039   8.735  0.4712  0.2482 -0.4345
44622SOL    HW240472   0.395   2.139   8.699  0.6502  0.0658 -0.4124
44623SOL     OW40473  11.935   5.501  12.126  0.2222  0.1967 -0.2641
44623SOL    HW140474  11.928   5.504  12.031 -1.2304  0.8778 -0.1570
44623SOL    HW240475  11.854   5.540  12.158  1.0044  0.6560  1.2652
44624SOL     OW40476   3.550  11.315   7.614 -0.1060  0.5548 -0.3465
44624SOL    HW140477   3.623  11.370   7.585  1.1045 -0.3247  0.8864
44624SOL    HW240478   3.551  11.323   7.709 -0.3304 -1.0314 -0.1911
44625SOL     OW40479   7.446   1.728   8.255  0.3119 -0.3402 -0.1465
44625SOL    HW140480   7.414   1.766   8.173 -1.1374 -2.1544 -0.4836
44625SOL    HW240481   7.383   1.755   8.321  0.4908 -0.3534  0.0321
44626SOL     OW40482   0.227   3.914   6.207 -0.4405  0.0001 -0.1929
44626SOL    HW140483   0.222   3.991   6.263  0.9065 -0.3477  0.4399
44626SOL    HW240484   0.311   3.922   6.162 -0.8786 -0.4419 -1.1364
44627SOL     OW40485   2.225   2.654   9.711 -0.2606 -0.2628  0.2308
44627SOL    HW140486   2.249   2.566   9.681 -0.3529 -0.5211  0.8955
44627SOL    HW240487   2.288   2.674   9.780  1.0333  1.0324 -1.2466
44628SOL     OW40488   7.157   1.075   9.678  0.4354 -0.4196 -0.0977
44628SOL    HW140489   7.247   1.097   9.703 -0.3073  0.9692  1.5657
44628SOL    HW240490   7.144   0.987   9.714  0.7976 -0.1835  0.6456
44629SOL     OW40491   3.453   7.676   5.781  0.2215 -0.2291 -0.3246
44629SOL    HW140492   3.372   7.712   5.744 -0.4430 -1.3429  0.0005
44629SOL    HW240493   3.438   7.675   5.876  0.5084 -0.6908 -0.2785
44630SOL     OW40494   4.199  11.404   7.497 -0.1606 -0.8441 -0.1672
44630SOL    HW140495   4.156  11.322   7.522 -1.7103  0.3382  1.3015
44630SOL    HW240496   4.260  11.423   7.568  0.8094 -1.1227 -0.9089
44631SOL     OW40497  11.195   9.538   6.910 -0.5802 -0.6064 -0.1368
44631SOL    HW140498  11.266   9.482   6.878 -0.8259 -0.8449 -0.2749
44631SOL    HW240499  11.125   9.526   6.846 -0.5173  0.1201 -0.3411
44632SOL     OW40500  10.641   4.846  10.877  0.0662 -0.1016 -0.0116
44632SOL    HW140501  10.609   4.757  10.892 -0.5347  0.5042  2.9612
44632SOL    HW240502  10.734   4.842  10.898  0.5020 -0.3792 -1.8181
44633SOL     OW40503   8.682  10.154   6.942  0.6380  0.4739  0.4137
44633SOL    HW140504   8.649  10.185   7.026  0.6446  1.9257 -0.0901
44633SOL    HW240505   8.740  10.224   6.911 -0.2340  0.5028 -1.3046
44634SOL     OW40506   4.887   7.108   1.847  0.6364 -0.3443  0.0879
44634SOL    HW140507   4.909   7.040   1.912 -1.0180 -0.7757  0.2431
44634SOL    HW240508   4.851   7.180   1.899 -0.0281 -0.4021 -0.2891
44635SOL     OW40509   3.045  10.071   6.573  0.3635 -0.4295 -0.2770
44635SOL    HW140510   3.097  10.117   6.639 -0.6332 -0.7115  0.7210
44635SOL    HW240511   2.985  10.137   6.539 -1.2262 -0.9856  1.3201
44636SOL     OW40512   2.903   5.069  10.072 -0.1618 -0.1056  0.0328
44636SOL    HW140513   2.879   5.025   9.991  3.4863 -1.2747 -0.6156
44636SOL    HW240514   2.905   5.162  10.050  1.3899 -0.4509 -1.4896
44637SOL     OW40515  12.197   1.309   3.077  0.6068  0.6883 -0.6073
44637SOL    HW140516  12.281   1.339   3.042  1.1074  0.5064  0.3844
44637SOL    HW240517  12.195   1.343   3.167 -0.9497  1.7417 -0.9890
44638SOL     OW40518   1.740   0.091   5.539 -0.2130 -0.0917 -0.0966
44638SOL    HW140519   1.789   0.116   5.460  1.4267 -0.1835  0.8557
44638SOL    HW240520   1.795   0.026   5.582 -1.3827 -0.5103  0.8140
44639SOL     OW40521  10.549   5.856   3.638 -0.2010  0.5174 -0.7206
44639SOL    HW140522  10.473   5.799   3.622 -0.6006  0.9467 -0.3506
44639SOL    HW240523  10.578   5.881   3.550 -0.8182  0.7886 -0.8525
44640SOL     OW40524   6.553   6.756   2.692 -0.0024  0.3141  0.4068
44640SOL    HW140525   6.596   6.793   2.769  0.5010  0.4515  0.0637
44640SOL    HW240526   6.525   6.668   2.720 -0.5284  0.6511  0.9864
44641SOL     OW40527   5.801   9.973   1.722 -0.9369 -0.4823  0.4560
44641SOL    HW140528   5.831   9.939   1.638  1.1958  1.9615  0.1010
44641SOL    HW240529   5.844   9.918   1.787 -0.2114 -0.5629 -0.0777
44642SOL     OW40530   6.626  10.676   1.814  0.3153 -0.0359  0.8780
44642SOL    HW140531   6.635  10.649   1.723 -0.2879  0.7388  0.5773
44642SOL    HW240532   6.604  10.769   1.810 -1.4185 -0.3647  1.7408
44643SOL     OW40533   3.925   6.615   1.890  0.1478  0.3572  0.0178
44643SOL    HW140534   3.845   6.612   1.943 -0.7609  0.2267 -1.3109
44643SOL    HW240535   3.930   6.528   1.850 -0.0278  0.9159 -1.2667
44644SOL     OW40536   3.713   0.750   1.537 -0.6569  0.4227 -0.3553
44644SOL    HW140537   3.630   0.783   1.570 -0.3667  0.1831  0.6380
44644SOL    HW240538   3.730   0.671   1.588 -1.3383 -1.3287 -2.6728
44645SOL     OW40539   5.110   5.243   5.489  0.8080 -0.3607  0.2561
44645SOL    HW140540   5.044   5.309   5.508  0.6121 -0.2261 -0.8022
44645SOL    HW240541   5.189   5.294   5.469  0.2906 -0.3182 -2.0016
44646SOL     OW40542   0.775   5.770   5.198 -0.1654  0.6250 -0.1085
44646SOL    HW140543   0.814   5.759   5.284  1.4056 -1.5136 -0.9892
44646SOL    HW240544   0.800   5.691   5.150 -0.6487  1.8939 -2.6518
44647SOL     OW40545   4.174   6.430   3.730 -0.2464  0.6438 -0.3249
44647SOL    HW140546   4.189   6.510   3.781 -0.1971  0.6177 -0.2985
44647SOL    HW240547   4.261   6.408   3.695 -0.3816  0.9729 -0.8815
44648SOL     OW40548   1.709   6.750   7.115  0.7493 -0.3170 -0.3713
44648SOL    HW140549   1.788   6.697   7.129  0.4997 -0.6019 -0.0445
44648SOL    HW240550   1.684   6.732   7.024  1.0416 -0.2521 -0.4654
44649SOL     OW40551   2.767  10.207   6.728 -0.1422  0.3006 -1.3311
44649SOL    HW140552   2.833  10.258   6.681  0.5982 -0.4817 -1.1635
44649SOL    HW240553   2.804  10.119   6.733 -1.3179 -0.2179 -1.4542
44650SOL     OW40554   2.339   7.420   5.393  0.1842 -0.5830 -0.1566
44650SOL    HW140555   2.345   7.476   5.470 -1.7015  0.2654 -0.5576
44650SOL    HW240556   2.301   7.476   5.325 -1.5241 -2.2143 -0.6499
44651SOL     OW40557  12.207   9.395  11.236  0.1832  0.4875  0.4412
44651SOL    HW140558  12.115   9.375  11.252  0.2864 -0.3245  0.0885
44651SOL    HW240559  12.239   9.431  11.318 -0.0971 -0.5668  1.0349
44652SOL     OW40560   7.508  11.118   0.272 -0.2346 -0.0323 -0.0667
44652SOL    HW140561   7.481  11.169   0.348 -1.6380  3.0980 -2.4643
44652SOL    HW240562   7.602  11.131   0.266 -0.1987  0.1509  0.7934
44653SOL     OW40563   5.948   9.188   3.543  0.1025 -0.0383 -0.1773
44653SOL    HW140564   5.906   9.129   3.606 -0.5120  1.3232  0.7211
44653SOL    HW240565   5.875   9.230   3.498  0.5405  0.0205 -0.8423
44654SOL     OW40566  11.835   1.550   0.506 -0.1648  0.3045  0.2716
44654SOL    HW140567  11.925   1.539   0.534  0.2984  0.2835 -1.1296
44654SOL    HW240568  11.783   1.499   0.568  1.0816 -2.4472 -0.7767
44655SOL     OW40569  11.082   1.268  11.347  0.4896 -0.0248 -0.5946
44655SOL    HW140570  11.042   1.229  11.269 -0.8646  0.7756 -0.3381
44655SOL    HW240571  11.165   1.222  11.356 -0.1242 -1.4018 -1.4683
44656SOL     OW40572  11.971   6.854   7.461 -0.0451 -0.6354 -0.0635
44656SOL    HW140573  11.928   6.881   7.379  2.9174  0.7422 -1.3164
44656SOL    HW240574  11.936   6.914   7.527  2.1901  2.7987 -1.7057
44657SOL     OW40575   1.495   0.225   0.519  0.0352  0.3708 -0.2166
44657SOL    HW140576   1.558   0.233   0.447  1.5996  2.2649  1.2557
44657SOL    HW240577   1.495   0.312   0.560 -1.0426 -0.5703  1.8877
44658SOL     OW40578   3.393   1.623   0.263  0.5370  0.1698 -0.0396
44658SOL    HW140579   3.446   1.688   0.217  1.0849 -0.2553 -0.0187
44658SOL    HW240580   3.318   1.608   0.205  1.6391 -0.9847 -1.2244
44659SOL     OW40581   6.470   5.129  11.642  0.1618 -0.1168  0.3031
44659SOL    HW140582   6.540   5.078  11.600 -0.5257 -1.2525  0.5094
44659SOL    HW240583   6.509   5.162  11.723 -0.2315 -2.8275  1.6924
44660SOL     OW40584   7.427   8.198  11.689 -0.4213  1.1773  0.0839
44660SOL    HW140585   7.477   8.203  11.608 -0.9700  0.0701 -0.3261
44660SOL    HW240586   7.336   8.187  11.662 -0.3886 -1.4607  0.7985
44661SOL     OW40587   6.796  10.401   5.220 -0.1453  0.4415  0.0500
44661SOL    HW140588   6.823  10.427   5.132  3.9324  0.5583  1.1344
44661SOL    HW240589   6.806  10.306   5.221 -0.8846  0.3588  0.2129
44662SOL     OW40590   7.431   7.610   7.579  0.0570  0.5196  0.9546
44662SOL    HW140591   7.452   7.572   7.664  0.1329 -0.9742  0.2854
44662SOL    HW240592   7.413   7.702   7.598 -0.6457  0.0538  2.6938
44663SOL     OW40593   2.819  10.396   3.261 -0.8562 -0.0465  0.0955
44663SOL    HW140594   2.760  10.467   3.236 -1.2435 -0.7460 -1.0641
44663SOL    HW240595   2.871  10.431   3.333 -2.1049  0.8775  0.5716
44664SOL     OW40596   9.737   5.946  11.067 -0.0114  0.0388  0.1040
44664SOL    HW140597   9.768   6.036  11.058 -1.7804  0.5195 -1.5684
44664SOL    HW240598   9.710   5.939  11.159  0.0827  1.2345  0.2317
44665SOL     OW40599   6.260   7.324  12.348  0.4601 -0.6257  0.0229
44665SOL    HW140600   6.347   7.364  12.340  0.0286  0.2644 -0.3090
44665SOL    HW240601   6.236   7.339  12.440  0.5458 -0.6334  0.0470
44666SOL     OW40602   9.995   1.130  11.353 -0.1083 -0.0922  0.0217
44666SOL    HW140603   9.987   1.041  11.385  0.9708 -0.2497 -0.1222
44666SOL    HW240604  10.002   1.121  11.258 -1.9720  0.2881 -0.1941
44667SOL     OW40605   7.641   4.101   4.890 -0.0472  0.7841  0.3817
44667SOL    HW140606   7.557   4.056   4.887  0.3552 -0.0898  1.3130
44667SOL    HW240607   7.650   4.127   4.982  0.2540  1.7759  0.0875
44668SOL     OW40608   5.392   3.423   0.635  0.1715 -0.1467 -0.3192
44668SOL    HW140609   5.446   3.417   0.713 -0.2852 -2.1320 -0.1117
44668SOL    HW240610   5.406   3.340   0.589 -0.9994  0.2140 -1.3930
44669SOL     OW40611   0.005   6.906  10.599 -0.0188  0.0678  0.1243
44669SOL    HW140612  -0.039   6.921  10.683 -1.8946  3.0511 -1.2300
44669SOL    HW240613  -0.043   6.833  10.559 -1.1775  0.6756  0.3611
44670SOL     OW40614   2.367   8.360   4.749 -0.2279  0.4805  0.1587
44670SOL    HW140615   2.422   8.397   4.819  1.5890 -1.7462  0.0013
44670SOL    HW240616   2.304   8.305   4.795 -0.4712  0.7470  0.1507
44671SOL     OW40617   9.876   9.127   3.475  0.1415  0.0160 -0.5830
44671SOL    HW140618   9.895   9.044   3.432 -1.1559 -0.9991  0.7077
44671SOL    HW240619   9.911   9.193   3.416  2.4558 -1.4793 -0.9976
44672SOL     OW40620   6.349   2.667   7.182  0.4289  0.1299 -0.1216
44672SOL    HW140621   6.392   2.581   7.175  0.3815  0.1211 -0.3181
44672SOL    HW240622   6.256   2.646   7.197  0.3797  0.1458 -0.4031
44673SOL     OW40623  11.305   0.951   3.883 -0.0861  0.0515  0.7232
44673SOL    HW140624  11.310   0.882   3.948 -1.2950  1.0397  1.9212
44673SOL    HW240625  11.234   0.924   3.824 -1.3390  0.7390  1.8451
44674SOL     OW40626  12.197   4.288   9.885 -0.1508 -0.4901  0.4697
44674SOL    HW140627  12.245   4.265   9.806 -1.6583 -2.1293 -0.0285
44674SOL    HW240628  12.232   4.230   9.953  0.9317  0.7096  0.9970
44675SOL     OW40629   3.170   8.139   8.397 -0.6804  0.0039  0.3258
44675SOL    HW140630   3.114   8.066   8.368  0.2334 -0.4100 -0.4736
44675SOL    HW240631   3.232   8.150   8.325  0.6627  0.0275  1.4633
44676SOL     OW40632   2.040   3.370   7.390  0.1232 -0.2273 -0.1212
44676SOL    HW140633   2.113   3.353   7.449  0.4615  0.1328 -0.4294
44676SOL    HW240634   2.080   3.373   7.303 -0.2909 -0.2385 -0.3145
44677SOL     OW40635   4.063   3.818   4.731 -0.1836 -0.3980  0.9825
44677SOL    HW140636   3.986   3.806   4.675 -1.1176  2.0527  1.6182
44677SOL    HW240637   4.120   3.876   4.680  0.3388 -0.5951  1.3410
44678SOL     OW40638   2.669   0.367   8.677  0.1273 -0.5264 -0.0733
44678SOL    HW140639   2.664   0.354   8.772  1.6025  1.2343  0.3122
44678SOL    HW240640   2.684   0.461   8.667 -1.1595 -0.4742 -2.1354
44679SOL     OW40641  10.972   3.885   0.315  0.4990 -0.4226 -0.4003
44679SOL    HW140642  11.016   3.957   0.359  0.7975 -0.6282 -0.3547
44679SOL    HW240643  11.012   3.883   0.227  0.0912 -0.1775 -0.5910
44680SOL     OW40644   1.159   6.469   2.383 -0.4519  0.1218 -0.1111
44680SOL    HW140645   1.239   6.519   2.397 -1.3074  1.0189  1.9964
44680SOL    HW240646   1.160   6.447   2.290  0.7431  2.7416 -0.7940
44681SOL     OW40647   8.952   4.966   2.009 -0.9865  0.1901 -0.8724
44681SOL    HW140648   8.913   4.895   1.957  0.3139  0.1831 -1.8944
44681SOL    HW240649   8.929   5.046   1.961 -1.2225  0.3389 -0.5155
44682SOL     OW40650   0.244   1.894   1.607  0.2577  0.4621 -0.3972
44682SOL    HW140651   0.336   1.896   1.633 -0.7076  1.2001  3.6887
44682SOL    HW240652   0.196   1.885   1.689 -3.3272 -2.5752 -2.5079
44683SOL     OW40653   4.245  11.740   1.076  0.1863 -0.2788  0.0711
44683SOL    HW140654   4.162  11.721   1.031  0.7754 -0.0514 -1.1377
44683SOL    HW240655   4.221  11.805   1.142 -0.6330 -0.3051 -0.1841
44684SOL     OW40656   1.182   2.855   6.498 -0.5032 -0.1463 -0.1323
44684SOL    HW140657   1.220   2.769   6.517  3.1159  0.9734 -1.3406
44684SOL    HW240658   1.245   2.896   6.438 -2.0463  3.3542  0.3940
44685SOL     OW40659   2.593  11.535  10.835  0.4926 -0.3211 -0.3135
44685SOL    HW140660   2.577  11.545  10.741  1.1900  1.7069 -0.2711
44685SOL    HW240661   2.532  11.597  10.876  0.5177 -0.8500  0.5631
44686SOL     OW40662   4.109   2.816   6.461  0.5011 -0.0971 -0.1274
44686SOL    HW140663   4.176   2.777   6.516 -0.9031 -1.8444  0.4181
44686SOL    HW240664   4.138   2.800   6.371  2.5898  2.4012 -0.0182
44687SOL     OW40665   5.413   1.065   3.420 -0.3810  0.4224 -0.7673
44687SOL    HW140666   5.493   1.116   3.423 -1.0270  1.4614  1.9792
44687SOL    HW240667   5.441   0.975   3.434  0.3199  0.8647  1.0158
44688SOL     OW40668  11.579   7.261   8.460  0.0209 -0.0446  0.2243
44688SOL    HW140669  11.619   7.176   8.441 -1.8563 -1.2972  1.5500
44688SOL    HW240670  11.594   7.274   8.554 -0.5664  0.6358  0.2331
44689SOL     OW40671   0.422   7.211   8.379  0.4784 -0.4205  0.0562
44689SOL    HW140672   0.415   7.136   8.321  0.3993 -0.7769  0.5244
44689SOL    HW240673   0.396   7.286   8.325 -0.1403 -0.8224 -0.2028
44690SOL     OW40674   4.156   3.987   4.533  0.4668  0.7516  0.5970
44690SOL    HW140675   4.061   3.990   4.518  0.7162 -1.1275 -1.9502
44690SOL    HW240676   4.184   4.078   4.522 -0.9362  1.2012  0.4985
44691SOL     OW40677   5.031   5.991   8.565  0.1443 -0.3799 -0.1907
44691SOL    HW140678   5.125   6.005   8.570  0.4845 -2.5184  4.0421
44691SOL    HW240679   4.995   6.039   8.640 -1.9183 -0.7812 -0.8571
44692SOL     OW40680   5.044   7.794   3.683 -0.2218 -0.3743 -0.1953
44692SOL    HW140681   5.130   7.796   3.725  0.6632  0.5932 -1.9336
44692SOL    HW240682   4.996   7.866   3.725  0.2429 -0.1615 -0.0174
44693SOL     OW40683   9.214   0.619   8.273  0.0281  0.0656  0.2011
44693SOL    HW140684   9.297   0.585   8.307  1.0552  1.7217 -0.5432
44693SOL    HW240685   9.207   0.707   8.309 -1.0715  0.2107 -0.3243
44694SOL     OW40686   5.095   7.689   9.121 -0.5378 -0.1390  0.4565
44694SOL    HW140687   5.178   7.710   9.164 -0.0470 -0.2245 -0.4251
44694SOL    HW240688   5.058   7.617   9.173 -0.2552  0.1591  1.0825
44695SOL     OW40689  11.335   6.717   0.538  0.2414  0.3350  0.2753
44695SOL    HW140690  11.394   6.672   0.478  0.3794 -0.9564  1.3382
44695SOL    HW240691  11.353   6.810   0.524  2.2539 -0.0070  0.2852
44696SOL     OW40692  12.682   5.128   1.035  0.4108 -0.0746 -0.0114
44696SOL    HW140693  12.714   5.061   1.096  2.4972 -0.0117 -0.9584
44696SOL    HW240694  12.617   5.177   1.086  0.8162 -1.1068  1.5847
44697SOL     OW40695   5.200   0.721   8.256  0.2086  0.2842  0.1261
44697SOL    HW140696   5.278   0.667   8.268  0.4472  0.0443 -2.1569
44697SOL    HW240697   5.208   0.757   8.168 -2.3439  0.1325 -0.2471
44698SOL     OW40698   3.078  10.735   2.440 -0.2033  1.2918 -0.2889
44698SOL    HW140699   3.171  10.757   2.444 -0.2328  1.3132  0.6189
44698SOL    HW240700   3.057  10.733   2.347  0.7845  0.9721 -0.5185
44699SOL     OW40701  11.818   9.437  10.662  0.0363 -0.1837  0.0763
44699SOL    HW140702  11.800   9.495  10.735  3.3271  0.2625  0.6988
44699SOL    HW240703  11.759   9.362  10.675 -1.9673  1.4778  1.0864
44700SOL     OW40704  10.609   7.063   7.118 -0.3112  0.2405  0.6990
44700SOL    HW140705  10.701   7.045   7.137 -0.1311  1.9633  1.7066
44700SOL    HW240706  10.598   7.042   7.025  1.0385 -0.2207  0.6305
44701SOL     OW40707   0.365  10.990  11.809 -0.2459 -0.2592 -0.3230
44701SOL    HW140708   0.435  10.989  11.874  0.5243 -2.2028 -1.1099
44701SOL    HW240709   0.310  10.915  11.830 -1.1726  0.2883 -0.7028
44702SOL     OW40710   2.419   2.526   5.936  0.1429 -0.7143  0.1134
44702SOL    HW140711   2.435   2.436   5.909  2.5943 -0.1983 -0.3924
44702SOL    HW240712   2.408   2.574   5.853 -0.5556 -0.4341  0.3587
44703SOL     OW40713   0.304   9.834   6.916  0.5778 -0.2663  0.0648
44703SOL    HW140714   0.271   9.780   6.844  1.2568 -1.1384  0.3841
44703SOL    HW240715   0.247   9.910   6.918  1.3844  0.4560 -2.2835
44704SOL     OW40716   0.926   3.484   8.619  0.1022 -0.2849 -0.1002
44704SOL    HW140717   0.972   3.559   8.657 -0.1717 -0.3430  0.3688
44704SOL    HW240718   0.906   3.511   8.530 -0.5809  0.4782  0.2629
44705SOL     OW40719   9.590   3.590   7.845 -0.0404  0.5103 -0.1296
44705SOL    HW140720   9.513   3.571   7.792 -0.6967 -0.4996  1.1240
44705SOL    HW240721   9.664   3.576   7.786 -0.6733 -2.0328 -0.4444
44706SOL     OW40722  10.533   0.735   5.293 -0.6750 -0.1008  0.8067
44706SOL    HW140723  10.536   0.660   5.234 -0.8184  0.0742  0.5704
44706SOL    HW240724  10.577   0.805   5.244  0.5810 -0.3610  1.5217
44707SOL     OW40725   9.283   0.366   9.795  0.3035 -0.1752  0.1954
44707SOL    HW140726   9.368   0.360   9.752  0.0566 -0.2706 -0.2775
44707SOL    HW240727   9.299   0.334   9.884  0.5357 -1.1599 -0.1951
44708SOL     OW40728   8.390  12.141   3.414 -0.2359 -0.5583  0.4796
44708SOL    HW140729   8.348  12.156   3.499  0.5446  2.6180  0.4497
44708SOL    HW240730   8.328  12.177   3.351 -0.7812 -2.8460 -0.3564
44709SOL     OW40731   0.216   9.302   5.836 -0.3419 -0.2871  0.6944
44709SOL    HW140732   0.237   9.300   5.743 -0.6968 -0.1353  0.6107
44709SOL    HW240733   0.246   9.217   5.869 -0.2517 -0.3567  0.4355
44710SOL     OW40734  10.885  10.453  10.646 -0.6529  0.7346  0.2207
44710SOL    HW140735  10.886  10.366  10.686  1.2271  0.1725 -0.9240
44710SOL    HW240736  10.808  10.453  10.590 -0.7059 -0.1723  0.2781
44711SOL     OW40737  10.405   1.746   9.108 -0.3059 -0.2081  0.6481
44711SOL    HW140738  10.378   1.799   9.033 -0.8601  1.2472  1.8300
44711SOL    HW240739  10.496   1.723   9.090 -0.5887 -0.3251 -0.6963
44712SOL     OW40740   5.784   6.394   7.432 -0.0629 -0.0256 -0.2412
44712SOL    HW140741   5.876   6.378   7.414 -0.0534 -0.9298  0.5101
44712SOL    HW240742   5.750   6.433   7.352  0.7035 -0.7959 -0.9674
44713SOL     OW40743   6.419   7.819  10.992  0.6241  0.3833 -0.0758
44713SOL    HW140744   6.484   7.758  11.027  0.6825  0.7118  0.4054
44713SOL    HW240745   6.467   7.869  10.926  0.8532  0.5923  0.2445
44714SOL     OW40746  10.616   0.812   9.717 -0.9426  0.2203 -0.0456
44714SOL    HW140747  10.536   0.863   9.730 -1.0414 -0.2516  1.4182
44714SOL    HW240748  10.589   0.740   9.660 -1.3040  0.6627 -0.4395
44715SOL     OW40749   1.336   6.998   5.672 -0.1261  0.6924 -0.0858
44715SOL    HW140750   1.371   6.964   5.754  0.4935  0.6786 -0.3511
44715SOL    HW240751   1.371   7.087   5.665  1.0217  0.1883 -1.0353
44716SOL     OW40752   2.779   4.999   2.630 -0.3056 -0.0075  0.3039
44716SOL    HW140753   2.869   5.015   2.661 -0.7085 -1.4448  2.3949
44716SOL    HW240754   2.771   5.055   2.552  2.0191  1.0103  0.6946
44717SOL     OW40755   9.307   4.495   9.171 -0.1245 -0.5182  0.4698
44717SOL    HW140756   9.321   4.567   9.109  0.3892 -0.8469  0.1981
44717SOL    HW240757   9.226   4.454   9.143 -1.1783  0.8081  1.4666
44718SOL     OW40758   8.231   0.133   9.253 -0.6792  0.4340  0.2496
44718SOL    HW140759   8.258   0.063   9.312  1.0848 -1.1904 -2.2860
44718SOL    HW240760   8.302   0.197   9.256 -0.1206 -0.1075 -0.7103
44719SOL     OW40761   3.330   5.036   2.734  0.5886 -0.3002 -0.2676
44719SOL    HW140762   3.362   5.094   2.803  0.1097  1.2073 -1.2634
44719SOL    HW240763   3.403   4.976   2.718  1.0031 -0.1554  0.9765
44720SOL     OW40764   1.406  10.344   8.312  0.2163  0.0441 -0.9400
44720SOL    HW140765   1.456  10.265   8.329  2.1789  0.8547 -2.4105
44720SOL    HW240766   1.453  10.413   8.360  0.5461  0.8115 -2.2808
44721SOL     OW40767  11.875   8.472  10.445  0.3969  0.1706  0.1807
44721SOL    HW140768  11.916   8.479  10.359  2.0967  0.2213  0.9378
44721SOL    HW240769  11.789   8.434  10.429 -0.5983  2.9340 -1.8631
44722SOL     OW40770   0.198   5.858   3.739  0.0636 -0.1781  0.4363
44722SOL    HW140771   0.193   5.764   3.755 -0.6395  0.2090  2.8236
44722SOL    HW240772   0.271   5.888   3.793 -0.2443  0.7727  0.3433
44723SOL     OW40773   2.343   8.563   8.482  0.3798 -0.6266  0.2164
44723SOL    HW140774   2.429   8.527   8.460  0.2840 -0.3601 -0.6560
44723SOL    HW240775   2.350   8.591   8.573  0.8443 -1.6963  0.5196
44724SOL     OW40776   4.462   7.426   8.802  0.8784  0.2567 -0.0137
44724SOL    HW140777   4.546   7.383   8.818  0.7005 -0.3215 -0.5750
44724SOL    HW240778   4.478   7.487   8.730  1.3097  1.7167  1.2724
44725SOL     OW40779   7.133  12.204  10.830  0.1927  0.6969 -0.2407
44725SOL    HW140780   7.076  12.199  10.753  0.1822  2.3188 -0.3789
44725SOL    HW240781   7.220  12.186  10.796 -0.0381 -0.3800 -0.2900
44726SOL     OW40782   8.575   2.145   0.241 -0.2616  0.2431 -0.1606
44726SOL    HW140783   8.660   2.117   0.275 -0.7321 -0.2785  0.6158
44726SOL    HW240784   8.571   2.239   0.260 -0.1833  0.1148  0.5035
44727SOL     OW40785   3.243   5.235   3.917  0.3996  0.6038  0.1628
44727SOL    HW140786   3.151   5.241   3.943 -0.2974  0.4702 -2.0477
44727SOL    HW240787   3.288   5.299   3.973 -0.9907  0.5465  1.4016
44728SOL     OW40788   6.811   1.795   4.486  0.1019  0.2147 -0.1569
44728SOL    HW140789   6.777   1.710   4.515  0.9366 -0.5750 -1.3959
44728SOL    HW240790   6.830   1.842   4.567 -1.3795 -0.3369  0.5571
44729SOL     OW40791   1.870   9.356   8.184 -0.6364 -0.1368  0.3423
44729SOL    HW140792   1.868   9.405   8.101 -1.4712 -0.9929 -0.1719
44729SOL    HW240793   1.791   9.303   8.181 -0.0171 -1.1250  1.1170
44730SOL     OW40794   1.745   2.288   8.013 -0.0252 -0.1230  0.2515
44730SOL    HW140795   1.802   2.359   7.983  0.6002 -0.5738  0.3394
44730SOL    HW240796   1.659   2.308   7.976  0.2212  0.4972 -0.0015
44731SOL     OW40797   8.134  10.356   4.297  0.6421  0.3048  0.2890
44731SOL    HW140798   8.110  10.372   4.388 -1.2489 -0.0596 -0.0926
44731SOL    HW240799   8.051  10.333   4.254  1.9640 -2.9440 -0.8202
44732SOL     OW40800   2.747   6.856  11.780  0.0546 -0.4725  0.4444
44732SOL    HW140801   2.706   6.819  11.702  2.2227 -1.6526 -0.2154
44732SOL    HW240802   2.727   6.794  11.849 -0.8127 -0.0690  0.5710
44733SOL     OW40803   7.817   2.517   0.313  0.2800  0.5353 -0.7480
44733SOL    HW140804   7.812   2.605   0.275  2.4879  0.9917 -0.1595
44733SOL    HW240805   7.876   2.526   0.387  1.8838 -1.7165 -1.6183
44734SOL     OW40806   1.266  11.248   9.606 -0.1605 -0.1119 -0.2409
44734SOL    HW140807   1.330  11.307   9.643 -0.1302 -0.4307  0.2191
44734SOL    HW240808   1.315  11.168   9.586  0.0563  0.4160 -1.9629
44735SOL     OW40809  12.622   5.327   6.840 -0.6753  0.1008 -0.1498
44735SOL    HW140810  12.585   5.250   6.884 -1.0492  0.4734  0.1935
44735SOL    HW240811  12.642   5.388   6.911  0.7716 -0.1550 -0.3104
44736SOL     OW40812   2.926   7.485   1.084  0.2185 -0.3230  0.1206
44736SOL    HW140813   2.896   7.575   1.070 -1.5236 -0.4184  2.5641
44736SOL    HW240814   2.992   7.471   1.017 -0.6004  2.2269 -1.3616
44737SOL     OW40815   5.394   7.365   4.676 -1.1528  0.4634 -0.0722
44737SOL    HW140816   5.330   7.406   4.617 -1.3354 -0.7359 -0.7543
44737SOL    HW240817   5.453   7.436   4.701 -1.6609  1.2135 -0.9256
44738SOL     OW40818   6.194   9.519   6.905 -0.1647 -0.0672 -0.2439
44738SOL    HW140819   6.158   9.608   6.897  2.0766  0.8659 -0.8322
44738SOL    HW240820   6.272   9.531   6.960 -0.6138 -1.9497  0.8735
44739SOL     OW40821   3.228   8.498   2.506  0.3094 -0.0681  0.0180
44739SOL    HW140822   3.281   8.440   2.451 -0.6429 -0.0512 -0.9368
44739SOL    HW240823   3.292   8.548   2.555  1.1700 -1.3941  0.3173
44740SOL     OW40824   5.253   2.942   1.990  0.6105  0.2163 -0.0626
44740SOL    HW140825   5.185   2.969   1.929  1.9738  1.6317 -1.0325
44740SOL    HW240826   5.244   3.001   2.064  1.2448  0.9322 -0.5396
44741SOL     OW40827   9.475   6.847   5.059 -0.0086  0.0134  0.6197
44741SOL    HW140828   9.432   6.869   4.977 -0.7006  1.2935  1.2816
44741SOL    HW240829   9.550   6.907   5.064  0.7629 -0.9030  0.3653
44742SOL     OW40830   1.632   0.681   9.290  0.2600  0.2014 -0.3801
44742SOL    HW140831   1.551   0.655   9.334  0.7614 -0.5846  0.0915
44742SOL    HW240832   1.618   0.660   9.198 -0.6604  1.5225 -0.5725
44743SOL     OW40833   9.762   1.165   6.372 -0.2745  0.0618  0.4940
44743SOL    HW140834   9.718   1.151   6.456 -1.4288  3.0158  0.4875
44743SOL    HW240835   9.708   1.119   6.308 -1.8501  1.2744  0.8792
44744SOL     OW40836   0.963   7.490   8.207 -0.5892  0.4183 -0.3615
44744SOL    HW140837   1.007   7.525   8.129 -0.6175  0.2372 -0.4599
44744SOL    HW240838   0.871   7.517   8.197 -0.7010 -0.0536 -0.6581
44745SOL     OW40839  12.438  11.094   7.974 -0.2345 -0.0599 -0.2927
44745SOL    HW140840  12.531  11.072   7.961 -0.2020 -0.5376  0.6754
44745SOL    HW240841  12.433  11.122   8.065 -1.3275 -1.5858  0.1491
44746SOL     OW40842   0.763   5.181  12.692  0.0653  0.3225 -0.0322
44746SOL    HW140843   0.811   5.257  12.725  0.1180  0.1252  0.3481
44746SOL    HW240844   0.696   5.164  12.758 -0.6385  0.6956 -0.6355
44747SOL     OW40845  10.681   0.865   5.078  0.2418  0.2272 -0.2619
44747SOL    HW140846  10.757   0.920   5.059  0.4566 -0.0660 -0.2571
44747SOL    HW240847  10.626   0.872   5.000  1.1929 -1.0922 -1.0932
44748SOL     OW40848   7.303   2.340   2.624  0.2061  0.3293  0.0446
44748SOL    HW140849   7.246   2.319   2.698  0.7311  0.8670  0.6103
44748SOL    HW240850   7.368   2.400   2.660  1.6446 -0.9035 -0.3755
44749SOL     OW40851   4.975   9.998   8.512  0.1213  0.1378  0.0783
44749SOL    HW140852   5.049   9.983   8.453 -0.8565 -0.7601 -0.9833
44749SOL    HW240853   4.955  10.091   8.504  0.9315  0.3280  0.1583
44750SOL     OW40854   3.325   4.325   9.274 -0.1256  0.7954  0.0973
44750SOL    HW140855   3.285   4.261   9.333 -0.4119  0.2137 -0.7105
44750SOL    HW240856   3.392   4.367   9.327 -1.3069  1.2829  1.2707
44751SOL     OW40857   6.660   4.258   8.666  0.7312 -0.2542 -0.7118
44751SOL    HW140858   6.632   4.255   8.757 -0.3811 -1.2557 -1.0661
44751SOL    HW240859   6.745   4.215   8.665  1.2341  0.6846  0.0013
44752SOL     OW40860   1.532   8.624   9.132  0.2102  0.1950  0.2170
44752SOL    HW140861   1.597   8.692   9.153  0.7225 -0.3156  0.3373
44752SOL    HW240862   1.535   8.566   9.207  1.4844 -1.2306 -0.8599
44753SOL     OW40863   2.921   1.454   4.043 -0.3199 -0.8275  0.5276
44753SOL    HW140864   2.965   1.386   4.094 -1.6592 -0.8622  1.7056
44753SOL    HW240865   2.880   1.407   3.971  0.5105 -0.9629  0.1339
44754SOL     OW40866   3.147   5.106  11.977  0.1586 -0.0039  0.3314
44754SOL    HW140867   3.128   5.109  11.883 -0.0603 -0.1939  0.3682
44754SOL    HW240868   3.215   5.172  11.990 -2.1383  2.4859  0.5943
44755SOL     OW40869  10.263   0.813   1.721  0.0147  0.0781  0.5423
44755SOL    HW140870  10.318   0.808   1.643  0.7528  1.5581  0.9114
44755SOL    HW240871  10.323   0.794   1.794 -0.6310 -1.1472  0.7719
44756SOL     OW40872   2.573   2.596  11.292 -0.0370 -0.6187  0.1916
44756SOL    HW140873   2.587   2.688  11.315  1.4124 -0.1092 -2.2816
44756SOL    HW240874   2.508   2.599  11.221  0.1531 -1.4763 -0.0248
44757SOL     OW40875   5.936   0.835   3.931  0.6211  1.3152  0.0114
44757SOL    HW140876   5.846   0.814   3.955  0.7582  2.1693  1.3317
44757SOL    HW240877   5.989   0.782   3.990  0.9736  2.0663  0.3780
44758SOL     OW40878  11.262  10.701   4.101  0.0770  0.4480 -0.7220
44758SOL    HW140879  11.226  10.739   4.021 -0.6999  4.5655  1.2874
44758SOL    HW240880  11.186  10.688   4.157  0.8541  0.1717  0.2928
44759SOL     OW40881  11.785  12.646   0.890  0.0513 -0.5894  0.1292
44759SOL    HW140882  11.843  12.686   0.955  0.1761  1.4559 -1.1496
44759SOL    HW240883  11.844  12.621   0.818 -0.2548 -1.5720  0.2073
44760SOL     OW40884   8.908  11.526   6.574  0.3707 -0.4354 -0.3190
44760SOL    HW140885   8.987  11.503   6.624  1.0147  0.4529 -0.8910
44760SOL    HW240886   8.892  11.618   6.596  0.0430 -0.3434 -0.9397
44761SOL     OW40887   8.651   2.857   9.026  0.0563 -0.0937 -0.3909
44761SOL    HW140888   8.684   2.769   9.007 -1.3384 -0.5523 -0.8783
44761SOL    HW240889   8.722   2.915   9.002  0.4295 -1.0108 -1.6462
44762SOL     OW40890   0.166   4.981   5.607 -0.3660 -0.0225 -0.2208
44762SOL    HW140891   0.097   5.034   5.645  1.2939  2.3915 -0.3711
44762SOL    HW240892   0.234   5.043   5.582  0.8603 -2.0208 -2.3151
44763SOL     OW40893   2.098   2.250  10.352  0.7223 -0.3629  0.4665
44763SOL    HW140894   2.034   2.217  10.415  0.0501  0.2411  0.1168
44763SOL    HW240895   2.181   2.250  10.400 -0.0372  1.5541  1.8804
44764SOL     OW40896   7.822   7.584  10.239 -0.0666 -0.2035 -0.1589
44764SOL    HW140897   7.787   7.507  10.193 -0.1604 -0.6613  0.6635
44764SOL    HW240898   7.813   7.562  10.332  0.8372  0.3907  0.0733
44765SOL     OW40899   7.103   5.114  10.880 -0.3026  0.0041  0.7056
44765SOL    HW140900   7.138   5.201  10.901  1.0540 -0.3063 -0.1748
44765SOL    HW240901   7.179   5.063  10.852 -1.3240 -0.9817 -0.3990
44766SOL     OW40902  12.050   2.400  12.691 -0.1866  0.6885 -0.2454
44766SOL    HW140903  12.042   2.474  12.752 -0.0400 -0.3921  1.1282
44766SOL    HW240904  11.982   2.338  12.719 -0.1256  0.1587 -1.2014
44767SOL     OW40905   4.087  11.727   2.193  0.3545  0.3071  0.4939
44767SOL    HW140906   4.174  11.735   2.232  0.1134 -0.1449  1.1408
44767SOL    HW240907   4.028  11.766   2.257  0.1714  1.5078 -0.3715
44768SOL     OW40908  11.577   6.953   6.223 -0.1608  0.1076 -0.1006
44768SOL    HW140909  11.580   7.046   6.245 -0.7740 -0.2533  1.6169
44768SOL    HW240910  11.490   6.925   6.249 -0.0636 -0.9072 -0.8246
44769SOL     OW40911   6.164   8.642  11.203  0.1923  0.2164 -0.0870
44769SOL    HW140912   6.133   8.570  11.149 -1.6281  1.7849 -1.2917
44769SOL    HW240913   6.084   8.680  11.240  0.9141  2.3609 -0.5444
44770SOL     OW40914   1.137  10.833   3.771  0.2798 -0.0114  0.5575
44770SOL    HW140915   1.145  10.799   3.860 -0.8787 -0.9383  0.3331
44770SOL    HW240916   1.228  10.843   3.741  0.6728 -0.2937  1.6098
44771SOL     OW40917   4.093   5.842   2.574 -0.0644  0.2169 -0.5121
44771SOL    HW140918   4.049   5.818   2.656 -0.0428  0.1750 -0.5123
44771SOL    HW240919   4.167   5.781   2.568 -0.1777  0.0954 -0.6604
44772SOL     OW40920  12.092   0.009   9.448 -0.2035 -0.2255  0.5559
44772SOL    HW140921  12.172  -0.043   9.453  1.2414  1.7855  0.1453
44772SOL    HW240922  12.111   0.087   9.500 -0.9708  1.3629 -1.3798
44773SOL     OW40923   5.427   9.209  12.055 -0.2624 -0.5307 -0.0064
44773SOL    HW140924   5.476   9.232  11.975 -0.8541 -0.1546 -0.2724
44773SOL    HW240925   5.466   9.264  12.123  1.4207 -2.1097  0.3659
44774SOL     OW40926   9.553   6.069  10.777 -0.0853 -0.2072 -0.4029
44774SOL    HW140927   9.465   6.086  10.743 -0.2027 -1.3773 -0.7133
44774SOL    HW240928   9.607   6.056  10.700  0.3806  0.5248 -0.2136
44775SOL     OW40929  11.545   9.029   1.367 -0.1809  0.1772  0.2357
44775SOL    HW140930  11.506   9.090   1.429 -1.7909 -0.8542  0.3296
44775SOL    HW240931  11.619   8.990   1.414 -1.2810 -0.4832  1.5044
44776SOL     OW40932   1.799   7.804  11.648  0.3721 -0.2239  0.0754
44776SOL    HW140933   1.893   7.820  11.652  0.6966 -2.0672  1.8066
44776SOL    HW240934   1.785   7.731  11.709 -2.0344 -0.6763 -0.9104
44777SOL     OW40935   1.741   3.080   1.880  0.1392 -1.0143  0.0511
44777SOL    HW140936   1.780   3.013   1.937  0.5536 -0.6846  0.1592
44777SOL    HW240937   1.808   3.098   1.815 -0.2962 -1.3126 -0.4842
44778SOL     OW40938  12.296   6.893   8.065 -0.5558 -0.0646 -0.3145
44778SOL    HW140939  12.285   6.852   8.150 -0.0286  1.0751  0.3405
44778SOL    HW240940  12.304   6.820   8.003 -1.7057 -0.9040  0.4909
44779SOL     OW40941   8.179   7.659   6.463  0.0676 -0.0321 -0.0718
44779SOL    HW140942   8.180   7.586   6.524  2.4263  0.8018  1.0259
44779SOL    HW240943   8.093   7.699   6.473 -0.0963 -0.7512  1.7205
44780SOL     OW40944  12.144  12.681   1.512  0.0022 -0.7878  0.2485
44780SOL    HW140945  12.152  12.728   1.595  1.1980  0.5897 -0.6075
44780SOL    HW240946  12.091  12.738   1.457  1.0994 -0.6370 -0.6676
44781SOL     OW40947  11.638   9.519   5.972  0.2887 -0.0954  0.1607
44781SOL    HW140948  11.654   9.548   5.882  2.1764 -0.0488  0.4659
44781SOL    HW240949  11.709   9.459   5.992  0.9414  1.2094  2.1800
44782SOL     OW40950   0.959   1.394   5.507 -0.1394 -0.1891  0.2020
44782SOL    HW140951   0.881   1.345   5.482 -1.1722  1.3212  0.3254
44782SOL    HW240952   1.031   1.331   5.499 -1.2910 -1.4754 -0.3964
44783SOL     OW40953   1.396   0.641   2.524 -0.1776 -0.0213  0.1096
44783SOL    HW140954   1.391   0.736   2.518  1.4877  0.1316  0.5029
44783SOL    HW240955   1.449   0.614   2.449 -1.2555 -0.7337 -0.4223
44784SOL     OW40956  10.105   6.395  11.858  0.7111  0.6510  0.6643
44784SOL    HW140957  10.015   6.361  11.859  1.5814 -1.9679 -0.0307
44784SOL    HW240958  10.126   6.408  11.950 -0.0847  0.3555  0.9007
44785SOL     OW40959   4.868   5.399   1.652  0.0120 -0.2059 -0.1451
44785SOL    HW140960   4.875   5.494   1.664  1.0027 -0.4071  1.0536
44785SOL    HW240961   4.942   5.363   1.701 -0.0810 -1.5826 -0.9552
44786SOL     OW40962  10.213   6.182   0.091  0.1075 -0.2600 -0.7568
44786SOL    HW140963  10.286   6.162   0.150 -0.5223 -0.8371 -0.1450
44786SOL    HW240964  10.174   6.262   0.126  0.3029 -0.0843 -0.9422
44787SOL     OW40965   1.139   2.106   4.456  0.1026 -0.4491  0.7981
44787SOL    HW140966   1.091   2.098   4.374 -2.0253 -0.6730  1.9777
44787SOL    HW240967   1.124   2.196   4.484  2.8580  0.4181 -0.1548
44788SOL     OW40968   5.235   8.001   6.063 -0.2195  0.0831  0.0769
44788SOL    HW140969   5.313   8.055   6.050 -0.8051  0.8013 -0.4673
44788SOL    HW240970   5.216   8.009   6.157  0.3981 -0.1620  0.2323
44789SOL     OW40971   8.220  11.480   4.211  0.1292 -0.2508  0.4791
44789SOL    HW140972   8.262  11.512   4.131  1.3218  0.8137  1.4924
44789SOL    HW240973   8.206  11.558   4.264  0.4868 -1.0557  1.8163
44790SOL     OW40974   0.251   3.598   5.238 -0.0609 -0.0538 -0.4794
44790SOL    HW140975   0.224   3.646   5.316 -0.7117  0.3424 -0.9338
44790SOL    HW240976   0.170   3.556   5.206  0.3120 -0.6759 -0.6183
44791SOL     OW40977   7.923   8.694   3.494  0.6704  0.2536  0.0492
44791SOL    HW140978   7.908   8.600   3.501 -0.7498  0.5765  2.5715
44791SOL    HW240979   7.846   8.728   3.448  1.2562  0.2185 -1.0028
44792SOL     OW40980   3.835   3.449   0.889 -0.4560 -0.5955 -0.5293
44792SOL    HW140981   3.814   3.378   0.951 -0.9042  0.5915  0.7279
44792SOL    HW240982   3.872   3.404   0.813 -0.6822 -2.1770  0.2511
44793SOL     OW40983   0.670  11.085   5.967 -0.2696 -0.0035  0.1120
44793SOL    HW140984   0.758  11.050   5.952  1.4852  2.8490  2.6449
44793SOL    HW240985   0.672  11.119   6.056 -4.1409 -0.1073  0.4205
44794SOL     OW40986   4.019   9.670   2.638 -0.2625  0.5351  0.0321
44794SOL    HW140987   3.960   9.602   2.605  1.4064 -1.1499  0.3892
44794SOL    HW240988   3.977   9.752   2.612 -1.9570 -0.6172 -1.0876
44795SOL     OW40989   9.909  10.786  12.464 -0.1791  0.3730  0.4121
44795SOL    HW140990   9.815  10.786  12.479 -0.5306  0.5550 -1.4403
44795SOL    HW240991   9.930  10.878  12.444 -0.1160 -0.0167 -1.5766
44796SOL     OW40992   3.089   5.935   2.601 -0.4447  0.1833 -0.3741
44796SOL    HW140993   3.011   5.910   2.551 -0.1869 -0.2655 -0.5582
44796SOL    HW240994   3.057   5.996   2.666 -1.4000 -1.7502  1.0754
44797SOL     OW40995   5.308  11.729   3.439  0.2869 -0.2064  0.1143
44797SOL    HW140996   5.323  11.814   3.482 -1.3547  0.6323 -0.8662
44797SOL    HW240997   5.231  11.694   3.483  1.1341 -1.3873  0.7257
44798SOL     OW40998   4.706   6.504   2.027 -0.0424  0.1133  0.0615
44798SOL    HW140999   4.615   6.477   2.011 -0.4439  1.6375 -0.4293
44798SOL    HW241000   4.711   6.515   2.122 -0.2627 -0.3144  0.1265
44799SOL     OW41001   5.224   7.099  12.028  0.0028 -0.0709 -0.0966
44799SOL    HW141002   5.205   7.055  11.946  0.0578  1.2684 -0.8600
44799SOL    HW241003   5.144   7.088  12.080  0.5429 -2.3238  0.3635
44800SOL     OW41004  11.253   4.057   3.839  0.2417  0.2641  0.3761
44800SOL    HW141005  11.318   3.987   3.836 -2.3130 -2.2686 -2.4247
44800SOL    HW241006  11.202   4.038   3.918  0.2035 -0.4670  0.1857
44801SOL     OW41007   8.087   2.397   7.078  0.0700 -0.0057 -0.1355
44801SOL    HW141008   8.107   2.467   7.140  0.5063 -0.5131  0.2993
44801SOL    HW241009   8.172   2.368   7.046 -0.0002 -1.4609  0.9271
44802SOL     OW41010   2.636  10.641   6.630  0.4863  0.2523  0.1573
44802SOL    HW141011   2.633  10.607   6.541  1.6652 -1.1790  0.6141
44802SOL    HW241012   2.730  10.642   6.652  0.2090  0.3867  1.4263
44803SOL     OW41013   0.617   4.993  10.593  0.3824  0.3696 -0.0762
44803SOL    HW141014   0.603   5.076  10.638  0.8260  0.2688  0.2545
44803SOL    HW241015   0.538   4.943  10.609  0.9113 -0.0293  1.4041
44804SOL     OW41016  10.329  12.082   2.661  0.5113 -0.8182 -0.0154
44804SOL    HW141017  10.234  12.089   2.669  0.5053 -1.3219  0.3386
44804SOL    HW241018  10.343  12.019   2.590  0.5888 -0.1124 -0.6547
44805SOL     OW41019   4.465   7.099   7.883 -0.0300  0.2509 -0.4365
44805SOL    HW141020   4.470   7.144   7.799  0.9619 -0.1630 -0.6236
44805SOL    HW241021   4.513   7.156   7.943 -2.4139  1.5540  0.3706
44806SOL     OW41022   1.993  12.060   0.158 -0.2740  0.4675 -0.0791
44806SOL    HW141023   1.938  11.982   0.162 -0.2746  0.3817 -1.5228
44806SOL    HW241024   1.931  12.133   0.159 -0.4084  0.3801 -1.3141
44807SOL     OW41025   3.774   1.369   7.182 -0.3560  0.4412  0.1763
44807SOL    HW141026   3.824   1.344   7.104  2.8203 -0.9822  2.4410
44807SOL    HW241027   3.708   1.301   7.191  0.3241 -0.3229 -0.3963
44808SOL     OW41028   3.676   6.990   2.092 -0.1374  0.3184  0.3512
44808SOL    HW141029   3.696   6.920   2.030  0.9983  2.1136 -1.4490
44808SOL    HW241030   3.588   6.970   2.124 -1.0470 -0.4000 -2.3489
44809SOL     OW41031   1.841   0.120   1.143 -0.1562  0.8227 -0.3123
44809SOL    HW141032   1.785   0.047   1.117 -0.5634  0.8312  0.5161
44809SOL    HW241033   1.799   0.156   1.221  0.8859  0.9620  0.2102
44810SOL     OW41034   6.425   1.615   2.633 -0.4300  0.2931  0.6207
44810SOL    HW141035   6.390   1.662   2.709 -0.5019 -0.6896  1.2097
44810SOL    HW241036   6.508   1.579   2.663  1.1146  2.4967 -0.7287
44811SOL     OW41037  10.715  10.159   4.004  0.5030  0.2004 -0.5425
44811SOL    HW141038  10.657  10.169   3.928  0.0367  0.3978 -0.1580
44811SOL    HW241039  10.801  10.141   3.965 -0.0378 -1.3702 -1.0996
44812SOL     OW41040   9.834  10.753  11.296  0.1681  0.1188  0.3186
44812SOL    HW141041   9.929  10.752  11.281  0.1769  1.2208  0.1880
44812SOL    HW241042   9.810  10.661  11.302  1.0000 -0.2542 -1.2956
44813SOL     OW41043  12.550  10.167   8.784  0.2786 -0.1703 -0.3551
44813SOL    HW141044  12.456  10.158   8.769  0.0201  0.0234  0.9655
44813SOL    HW241045  12.581  10.224   8.714 -1.1788  2.4365  0.9719
44814SOL     OW41046   9.449   1.978   1.225  0.3191 -0.5202  0.5439
44814SOL    HW141047   9.515   2.027   1.177  0.1714  0.3171  1.1817
44814SOL    HW241048   9.492   1.896   1.248  1.3204  0.2245  1.4051
44815SOL     OW41049   7.862  10.982   6.883  0.2607  0.2574 -0.1616
44815SOL    HW141050   7.939  10.940   6.923  0.7479 -0.5140 -1.8128
44815SOL    HW241051   7.789  10.955   6.938  0.8540 -1.0612  0.0247
44816SOL     OW41052  10.994   0.368   6.289  0.1726  0.4519  0.0491
44816SOL    HW141053  10.956   0.381   6.376 -3.3043 -0.3040 -1.1771
44816SOL    HW241054  11.008   0.273   6.284 -1.1562  0.2799 -0.7190
44817SOL     OW41055   8.357   0.102   6.347 -0.0273  0.0859  0.4019
44817SOL    HW141056   8.268   0.097   6.312  0.4691  1.6091 -1.2158
44817SOL    HW241057   8.360   0.186   6.392  1.1285  1.0554 -1.3539
44818SOL     OW41058   0.163   9.737   1.825 -0.2344 -0.0138  0.2104
44818SOL    HW141059   0.248   9.780   1.816  0.1128 -0.6173  0.5768
44818SOL    HW241060   0.142   9.705   1.737  0.6734 -1.2628  0.4224
44819SOL     OW41061   0.461   5.434   3.011 -0.6272  0.3358  0.0187
44819SOL    HW141062   0.522   5.434   2.937 -1.7144  0.3520 -0.9286
44819SOL    HW241063   0.384   5.480   2.977 -1.3216 -0.0602  1.0247
44820SOL     OW41064   2.162   3.820  10.498  0.0320 -0.4623 -0.0361
44820SOL    HW141065   2.175   3.911  10.526  0.2616 -0.6659  0.5085
44820SOL    HW241066   2.140   3.828  10.405 -1.0078  0.2346  0.2481
44821SOL     OW41067  10.974  11.270  12.777  0.1286  0.4501  0.2263
44821SOL    HW141068  10.983  11.179  12.807 -1.0824  0.0660 -0.5196
44821SOL    HW241069  10.985  11.265  12.682 -0.5945  0.9938  0.1118
44822SOL     OW41070   1.012   9.599   4.380  0.5180  0.2492  0.3777
44822SOL    HW141071   0.996   9.595   4.286  1.9105  1.3822  0.0612
44822SOL    HW241072   0.925   9.591   4.420  0.0151 -1.3887 -0.9340
44823SOL     OW41073   9.841   6.729   7.360 -0.2033  0.0052 -0.7888
44823SOL    HW141074   9.801   6.813   7.338 -1.5553 -0.5655 -0.6177
44823SOL    HW241075   9.777   6.686   7.417  0.1320 -1.4234 -1.4246
44824SOL     OW41076   9.262   8.420   0.897  0.1553 -0.0835  0.4916
44824SOL    HW141077   9.233   8.497   0.848  2.3039 -0.5349 -1.6751
44824SOL    HW241078   9.207   8.349   0.864 -0.6248  0.1717  1.1998
44825SOL     OW41079   6.668   3.526   4.330  0.1398 -0.0326  0.0716
44825SOL    HW141080   6.633   3.610   4.361  0.5607  0.0774  0.2677
44825SOL    HW241081   6.606   3.496   4.264 -0.1635  0.2975  0.2056
44826SOL     OW41082  10.839  11.880   9.324 -0.3340  0.0278 -0.1644
44826SOL    HW141083  10.858  11.971   9.300 -1.0919 -0.3232 -2.3263
44826SOL    HW241084  10.751  11.882   9.361 -0.4713  0.1302 -0.4965
44827SOL     OW41085   0.536   0.074   2.986  0.0893  0.3357 -0.2013
44827SOL    HW141086   0.505   0.082   2.896 -1.8046  0.9342  0.4541
44827SOL    HW241087   0.576   0.159   3.005  0.9183  0.0494 -0.5956
44828SOL     OW41088   4.286   3.098  10.700  0.1135 -0.2549 -0.3461
44828SOL    HW141089   4.190   3.099  10.708  0.0283 -0.0448 -1.2952
44828SOL    HW241090   4.317   3.116  10.789 -0.7155 -1.0081  0.1135
44829SOL     OW41091   7.256   6.280   9.757  0.2242 -0.0327 -0.5304
44829SOL    HW141092   7.291   6.358   9.715  0.9144 -0.1174 -0.1255
44829SOL    HW241093   7.164   6.278   9.732  0.2674  0.7596 -0.7660
44830SOL     OW41094   6.983   9.371   9.460 -0.0714  0.0978 -0.0145
44830SOL    HW141095   6.988   9.462   9.432  0.6730  0.5660  1.5286
44830SOL    HW241096   6.905   9.337   9.416  0.1963  1.1770 -1.4043
44831SOL     OW41097   1.962  10.332  12.194  0.1033  0.1392  0.0483
44831SOL    HW141098   2.011  10.388  12.134  1.1888 -0.3269  0.4713
44831SOL    HW241099   2.007  10.247  12.190 -0.4012 -0.1737  0.7900
44832SOL     OW41100   4.574  10.188  10.059  0.5489 -0.5620  0.0249
44832SOL    HW141101   4.649  10.244  10.038  0.1131 -0.1266 -0.3664
44832SOL    HW241102   4.506  10.248  10.088 -0.4208 -0.7260 -1.7864
44833SOL     OW41103   6.412   7.219   8.581  0.0950  0.1201  0.0586
44833SOL    HW141104   6.323   7.200   8.610  0.6439 -2.9499  0.0329
44833SOL    HW241105   6.458   7.135   8.586  3.3896  1.8098  1.2906
44834SOL     OW41106   3.029   2.068   8.277  0.5259  0.6620  0.0676
44834SOL    HW141107   3.043   2.045   8.368 -1.0515 -0.9722 -0.0406
44834SOL    HW241108   3.117   2.077   8.240  1.1779  0.4950  1.5427
44835SOL     OW41109   7.010  11.381   8.773 -1.2031 -0.1807  0.3054
44835SOL    HW141110   7.029  11.333   8.853 -2.5532  1.0470  1.4151
44835SOL    HW241111   6.921  11.356   8.750 -0.1547 -2.1121 -2.0476
44836SOL     OW41112   4.700  11.603   8.451  0.0288  0.1729  0.1519
44836SOL    HW141113   4.668  11.564   8.369  0.9623 -2.7603  1.0517
44836SOL    HW241114   4.706  11.529   8.512  1.3423  1.8907  2.2504
44837SOL     OW41115   6.574   3.266   4.765  0.2827  0.5563  0.3311
44837SOL    HW141116   6.598   3.295   4.677 -0.7915  2.6387  0.6638
44837SOL    HW241117   6.530   3.341   4.804 -0.3261 -0.7133  2.2435
44838SOL     OW41118   0.703   2.565  10.739  0.0526 -0.4094  0.2985
44838SOL    HW141119   0.637   2.501  10.767 -0.2069  0.1698  1.0363
44838SOL    HW241120   0.769   2.512  10.694 -0.5757 -1.0862  0.1473
44839SOL     OW41121   8.589   1.701   0.124  0.1215  0.0808  0.9367
44839SOL    HW141122   8.608   1.712   0.218  0.5868 -0.3591  0.9021
44839SOL    HW241123   8.517   1.638   0.122 -0.2630  0.5130  1.0146
44840SOL     OW41124   0.502   2.171   1.477  0.2433  0.7793  0.2117
44840SOL    HW141125   0.506   2.142   1.386  1.0602 -1.7376  0.9508
44840SOL    HW241126   0.585   2.142   1.515 -0.4289  1.0135  1.9628
44841SOL     OW41127   1.062   1.863  11.227 -0.1823  0.5698 -0.1908
44841SOL    HW141128   1.117   1.861  11.149 -0.0831  1.5792 -0.1693
44841SOL    HW241129   0.973   1.872  11.194 -0.0633  1.9348 -0.1957
44842SOL     OW41130   7.762   2.808   1.294 -0.4633  0.4080  0.0034
44842SOL    HW141131   7.723   2.721   1.287  0.4226 -0.1493  1.6419
44842SOL    HW241132   7.855   2.791   1.312 -0.2547  1.7000  0.1950
44843SOL     OW41133  11.609   2.234   0.772 -0.4725 -0.0267 -0.0864
44843SOL    HW141134  11.568   2.175   0.835  1.4768 -1.4644 -0.0640
44843SOL    HW241135  11.695   2.195   0.756 -0.1365  1.4191 -2.0970
44844SOL     OW41136   3.995  11.149   4.515 -0.1092  0.0508 -0.3335
44844SOL    HW141137   4.060  11.203   4.560  0.6889 -1.1563  0.0157
44844SOL    HW241138   3.915  11.160   4.566  0.0097  0.9606 -0.3264
44845SOL     OW41139   6.785  10.880   4.528  0.0009  0.5062  0.1255
44845SOL    HW141140   6.819  10.941   4.462 -0.6742  1.7435  0.8795
44845SOL    HW241141   6.861  10.860   4.583  0.1271  1.1201  0.1918
44846SOL     OW41142   9.538   1.963   4.256 -0.2797  0.7021  0.0451
44846SOL    HW141143   9.489   2.005   4.185  0.1300  2.6669  0.8454
44846SOL    HW241144   9.623   2.006   4.254 -0.1896  0.6421  1.5719
44847SOL     OW41145   8.520  10.024   3.886  0.0614  0.1056  0.0104
44847SOL    HW141146   8.476   9.955   3.936 -0.6026  0.8844  0.5065
44847SOL    HW241147   8.611  10.020   3.915 -0.2637  0.3960  1.1363
44848SOL     OW41148   6.357   1.768  11.990  0.3103 -0.0381 -0.1183
44848SOL    HW141149   6.386   1.710  12.060  0.0093 -0.3380 -0.2398
44848SOL    HW241150   6.394   1.730  11.910 -1.1183 -0.9320 -0.3911
44849SOL     OW41151  10.974   4.439   6.693  0.2263  0.3572 -0.2296
44849SOL    HW141152  10.901   4.377   6.693  0.6965 -0.3800 -3.5676
44849SOL    HW241153  10.933   4.525   6.679 -0.1389  0.2739  0.2992
44850SOL     OW41154  10.229   6.298  11.177  0.4833  0.4380 -0.2238
44850SOL    HW141155  10.155   6.354  11.153 -0.4092 -0.7546 -0.3145
44850SOL    HW241156  10.192   6.211  11.187  1.9364 -0.2669 -0.6221
44851SOL     OW41157   0.686   3.984   0.996  0.0627  0.3288  0.4979
44851SOL    HW141158   0.683   3.889   0.979 -1.5371  0.3827  0.3618
44851SOL    HW241159   0.720   4.021   0.915  1.2303 -0.1569  0.7427
44852SOL     OW41160   8.775   8.322  11.446  0.3410 -0.5039 -0.3879
44852SOL    HW141161   8.794   8.406  11.406 -1.8873  1.8743  2.9895
44852SOL    HW241162   8.853   8.302  11.498  1.2829 -1.1619 -1.9669
44853SOL     OW41163   2.081   4.100   1.282 -0.2165  0.3489  0.0690
44853SOL    HW141164   2.171   4.076   1.302  0.1318  0.6967 -1.0515
44853SOL    HW241165   2.039   4.109   1.368  0.5555 -0.7432  0.5851
44854SOL     OW41166   1.894  11.842   3.895 -0.0916  0.2220 -0.2849
44854SOL    HW141167   1.938  11.919   3.861  1.9190 -0.6785  0.1421
44854SOL    HW241168   1.933  11.769   3.848 -0.8362 -0.6546  0.4223
44855SOL     OW41169   0.355  11.395   7.446 -0.0481  0.0867 -0.3878
44855SOL    HW141170   0.354  11.353   7.532  3.2023  1.2603  0.3542
44855SOL    HW241171   0.349  11.322   7.384 -0.4758 -0.9444  0.8307
44856SOL     OW41172   8.316   2.112   0.902  0.0960  0.9495  0.2387
44856SOL    HW141173   8.264   2.176   0.951 -1.6623  0.6315 -1.1095
44856SOL    HW241174   8.251   2.057   0.859  1.5828 -0.2212 -0.5826
44857SOL     OW41175   7.735   3.516   5.811  0.0173  0.1979 -0.3263
44857SOL    HW141176   7.651   3.559   5.824  0.1133  0.5667 -0.9215
44857SOL    HW241177   7.737   3.446   5.877 -0.2021  1.0036  0.5450
44858SOL     OW41178   4.778   2.710   6.644  0.3039  0.0750  0.0259
44858SOL    HW141179   4.821   2.783   6.598  0.4483  0.0407  0.1050
44858SOL    HW241180   4.783   2.734   6.736  1.4243 -0.5909  0.1592
44859SOL     OW41181  12.409  12.721   7.457  0.6964 -0.8493 -0.0590
44859SOL    HW141182  12.462  12.668   7.397  0.0328  0.9537 -2.3771
44859SOL    HW241183  12.320  12.690   7.444  0.4046  0.2685 -0.8819
44860SOL     OW41184   9.336   7.833   3.831  0.1554 -0.8066 -0.5732
44860SOL    HW141185   9.315   7.761   3.891 -0.0692 -1.3569 -1.2996
44860SOL    HW241186   9.353   7.790   3.747  0.6927 -0.0633 -0.8535
44861SOL     OW41187   6.382   4.546  11.138 -0.3791  0.5926 -0.3557
44861SOL    HW141188   6.413   4.570  11.226  0.9876 -1.2952 -0.2757
44861SOL    HW241189   6.307   4.489  11.154 -0.6133  0.8721 -0.4447
44862SOL     OW41190   0.381   3.906   0.708 -0.0448  0.0328 -0.0441
44862SOL    HW141191   0.383   3.833   0.646  2.6126  0.0894 -0.1443
44862SOL    HW241192   0.413   3.869   0.790 -0.3946  0.6741  0.3888
44863SOL     OW41193   6.369  10.517   1.811  0.6609  0.5699  0.3799
44863SOL    HW141194   6.449  10.561   1.781 -0.1044  1.3784 -0.5349
44863SOL    HW241195   6.302  10.585   1.808 -0.3513 -0.4247 -0.1378
44864SOL     OW41196   6.783   3.435   9.413 -0.3228 -0.2617 -0.3729
44864SOL    HW141197   6.777   3.387   9.495  0.0152  0.8742  0.3469
44864SOL    HW241198   6.736   3.517   9.429  0.4429  0.3362 -1.0284
44865SOL     OW41199   4.736   1.516   1.775 -0.1567  0.1691  0.0476
44865SOL    HW141200   4.731   1.541   1.867  0.8544 -0.0262  0.1721
44865SOL    HW241201   4.704   1.426   1.773  0.6120 -0.1206  0.3569
44866SOL     OW41202   5.294  11.513   7.786  0.3961  0.0158  0.9429
44866SOL    HW141203   5.368  11.497   7.845  1.2628  2.7752  0.7497
44866SOL    HW241204   5.328  11.577   7.723 -1.5709 -0.2107 -0.4051
44867SOL     OW41205  11.712   9.428   7.766 -0.3479 -0.2864 -0.0675
44867SOL    HW141206  11.643   9.419   7.832 -0.4781 -1.1231 -0.3080
44867SOL    HW241207  11.769   9.352   7.780 -0.6215 -0.7294 -1.1856
44868SOL     OW41208  11.084  12.189   5.486 -0.3132 -0.0161  0.5179
44868SOL    HW141209  11.065  12.118   5.425 -0.9696  0.7436 -0.1897
44868SOL    HW241210  11.071  12.269   5.434  0.1094  0.6232  1.3788
44869SOL     OW41211  12.638   5.417   9.796 -0.5861  0.2641  0.0562
44869SOL    HW141212  12.552   5.393   9.830 -0.3686 -0.3694  0.1611
44869SOL    HW241213  12.676   5.473   9.864 -1.0364  0.8160 -0.1341
44870SOL     OW41214   2.415   0.737  11.006 -0.4738 -0.3215  0.3509
44870SOL    HW141215   2.474   0.807  11.033 -0.9959  0.3572 -0.2310
44870SOL    HW241216   2.359   0.777  10.939 -0.6825 -1.3331 -0.0986
44871SOL     OW41217   2.172   4.336   3.674 -0.2970  0.2135 -0.2275
44871SOL    HW141218   2.191   4.294   3.758 -0.8938  0.5246  0.0715
44871SOL    HW241219   2.182   4.266   3.609 -0.5057 -0.2024  0.1801
44872SOL     OW41220   8.571   8.304   5.299  0.0451 -0.2443 -0.0662
44872SOL    HW141221   8.576   8.391   5.338 -1.5698  0.8125 -1.9847
44872SOL    HW241222   8.618   8.313   5.216 -0.5484 -1.0286 -0.5029
44873SOL     OW41223   8.052   8.461   6.760  0.1767  0.4913 -0.0096
44873SOL    HW141224   8.023   8.520   6.830  0.7511  0.7465  0.0207
44873SOL    HW241225   8.101   8.518   6.701  0.1900  0.1617 -0.3133
44874SOL     OW41226   8.511   0.168   1.814  0.0384  0.1178 -0.2259
44874SOL    HW141227   8.488   0.091   1.865  1.2841 -1.0177 -1.2888
44874SOL    HW241228   8.449   0.169   1.741 -0.2690  0.4008  0.0357
44875SOL     OW41229  10.996   2.680   6.552 -0.5043  0.0352  0.0627
44875SOL    HW141230  11.036   2.625   6.485  0.4516  2.0658 -1.1470
44875SOL    HW241231  10.992   2.767   6.512 -6.0595  0.1603  0.0779
44876SOL     OW41232   6.455   1.702   9.282  0.3125 -0.3987 -0.0060
44876SOL    HW141233   6.414   1.777   9.240  1.8025  0.7801  0.5660
44876SOL    HW241234   6.505   1.739   9.354  0.9590 -1.9604  0.3855
44877SOL     OW41235   0.001   8.046   2.139  0.4660 -0.2939  0.2296
44877SOL    HW141236   0.076   7.987   2.127  1.2085  0.1597  2.2496
44877SOL    HW241237  -0.074   7.987   2.150  0.8881 -0.8218  0.3514
44878SOL     OW41238   9.294   2.573   9.910 -0.3129 -0.2241 -0.2563
44878SOL    HW141239   9.348   2.494   9.915  2.3190  1.4816  1.7633
44878SOL    HW241240   9.347   2.634   9.859 -0.6961  1.2204  0.9970
44879SOL     OW41241   0.488   4.459   2.953  0.2785 -0.3949 -0.5280
44879SOL    HW141242   0.543   4.500   2.887  1.6385  1.1114  1.4104
44879SOL    HW241243   0.402   4.451   2.912  0.3108  3.1577 -1.5604
44880SOL     OW41244   6.815   1.825  12.412 -0.6943 -0.5799 -0.1843
44880SOL    HW141245   6.895   1.783  12.444 -0.5362  0.3185  0.6447
44880SOL    HW241246   6.776   1.760  12.354  0.5720 -1.0876 -0.5148
44881SOL     OW41247   0.952  10.563   6.102  0.1874  0.0053 -0.2514
44881SOL    HW141248   1.021  10.601   6.047 -0.8360  1.8938 -0.2899
44881SOL    HW241249   0.896  10.636   6.125 -0.5635 -1.0988  1.6721
44882SOL     OW41250   0.799   4.563   9.982 -0.3755 -0.0237 -0.1639
44882SOL    HW141251   0.812   4.653   9.953 -0.6110  0.6980  1.8180
44882SOL    HW241252   0.887   4.530  10.002 -0.2362 -0.4434 -1.4018
44883SOL     OW41253   9.204  11.527   3.345  0.4778  0.4053 -0.0255
44883SOL    HW141254   9.168  11.440   3.329  2.0625 -0.1604 -0.8039
44883SOL    HW241255   9.216  11.564   3.257  1.1172  0.8164  0.2281
44884SOL     OW41256   3.650   5.950   4.917  0.2206 -0.4829 -0.0376
44884SOL    HW141257   3.599   5.872   4.898 -0.6395 -0.0440  0.3879
44884SOL    HW241258   3.628   5.972   5.008 -0.7543  1.0966 -0.5983
44885SOL     OW41259   9.449   3.158   8.597 -0.3249  0.2110  0.0271
44885SOL    HW141260   9.379   3.115   8.549  0.5099  0.1679 -1.1921
44885SOL    HW241261   9.484   3.223   8.537  1.1895 -0.3128  0.2854
44886SOL     OW41262   5.395   4.461   5.087  0.2940 -0.1381 -0.0191
44886SOL    HW141263   5.354   4.406   5.154  0.7382 -1.1272 -0.5354
44886SOL    HW241264   5.444   4.527   5.136 -0.2622 -0.1862  0.6166
44887SOL     OW41265   1.325   2.314   6.662  0.2322 -0.5206 -0.0104
44887SOL    HW141266   1.297   2.234   6.707 -1.0761 -0.3910 -0.5421
44887SOL    HW241267   1.418   2.320   6.681  0.2109 -1.7715  0.6589
44888SOL     OW41268   3.935   9.438   2.957  0.0743  0.3692  0.4276
44888SOL    HW141269   3.894   9.487   3.028  1.7361 -0.8412  2.3517
44888SOL    HW241270   3.867   9.428   2.891 -1.7642  0.9507  2.1575
44889SOL     OW41271  11.895  12.387   6.425  0.1244 -0.0248 -0.2845
44889SOL    HW141272  11.837  12.313   6.409 -0.1718 -0.0110  0.7042
44889SOL    HW241273  11.950  12.392   6.346 -0.2881 -0.8857 -0.6308
44890SOL     OW41274   5.552  12.461   8.218 -0.4395 -0.0149 -0.5312
44890SOL    HW141275   5.490  12.388   8.216  0.5693 -0.9014 -0.3124
44890SOL    HW241276   5.531  12.509   8.297  0.0563 -1.1400  0.3077
44891SOL     OW41277   3.574   0.456   7.249  0.2404  0.5264 -0.3379
44891SOL    HW141278   3.644   0.520   7.259 -0.0926  0.5501  2.7171
44891SOL    HW241279   3.509   0.480   7.315 -1.0779 -1.4792 -0.8025
44892SOL     OW41280  11.873   4.321   3.070  0.8172  0.8148 -0.0966
44892SOL    HW141281  11.785   4.289   3.048  0.0457  2.4823  0.3746
44892SOL    HW241282  11.909   4.254   3.129 -0.5418  0.5708  0.4989
44893SOL     OW41283   2.053  11.260   7.715 -0.1951  0.0485 -0.3490
44893SOL    HW141284   2.093  11.231   7.797  0.9800  3.0883  0.2793
44893SOL    HW241285   1.986  11.323   7.741 -0.5529  0.2732 -1.6971
44894SOL     OW41286   4.999  10.557   2.644 -0.1752 -0.0235  0.3118
44894SOL    HW141287   4.939  10.582   2.714 -0.9445 -0.0039 -0.3467
44894SOL    HW241288   5.077  10.525   2.690 -0.5060  0.3759  1.1705
44895SOL     OW41289   5.951   3.623   4.357  0.1039 -0.3053  0.2541
44895SOL    HW141290   6.030   3.577   4.387 -0.5025 -0.0719  2.4007
44895SOL    HW241291   5.963   3.713   4.387  0.8085  0.8294 -3.0055
44896SOL     OW41292   1.419   4.808   3.532  0.1275 -0.3732  0.0555
44896SOL    HW141293   1.401   4.756   3.610 -0.8309  1.2505  0.9705
44896SOL    HW241294   1.514   4.823   3.534  0.0486  0.0698  1.2067
44897SOL     OW41295  12.134   4.015   4.960 -0.0862  0.2340 -0.5984
44897SOL    HW141296  12.131   4.109   4.979 -1.1468 -0.2388  2.2218
44897SOL    HW241297  12.226   3.991   4.969  0.2109  1.0196 -1.4727
44898SOL     OW41298   8.869   8.732   9.254 -0.3801  0.3434  0.3972
44898SOL    HW141299   8.915   8.680   9.320  0.3442 -2.8108 -2.3058
44898SOL    HW241300   8.902   8.821   9.267  1.0160 -0.4370  3.1224
44899SOL     OW41301   6.795   4.045   9.120  0.2435  0.1997 -0.2641
44899SOL    HW141302   6.776   4.111   9.187 -0.8437  1.4090 -1.7065
44899SOL    HW241303   6.884   4.015   9.141 -0.5700 -0.5437  2.5521
44900SOL     OW41304   5.648  12.541   7.148  0.0022 -0.1361 -0.7442
44900SOL    HW141305   5.565  12.573   7.113  0.0692  0.7402 -0.1300
44900SOL    HW241306   5.626  12.457   7.189 -0.7200  0.3725 -0.0487
44901SOL     OW41307   3.342  12.057  11.882  0.3257 -0.4420 -0.4472
44901SOL    HW141308   3.427  12.101  11.883  0.5336 -0.7148  2.0249
44901SOL    HW241309   3.287  12.112  11.938 -0.3432 -1.5811  0.0537
44902SOL     OW41310   3.854   6.533   0.829  0.1429 -0.0035 -0.7230
44902SOL    HW141311   3.824   6.552   0.918 -1.1813 -1.2599 -0.8606
44902SOL    HW241312   3.920   6.465   0.841 -0.6366 -0.7833 -0.7261
44903SOL     OW41313   8.529   6.311   2.146  0.9424  0.7115  0.1297
44903SOL    HW141314   8.434   6.298   2.141  0.9067  0.9304  0.2788
44903SOL    HW241315   8.552   6.289   2.236  1.1515 -0.1398 -0.1147
44904SOL     OW41316   0.356  10.573   7.225  0.8661  0.4547  0.1567
44904SOL    HW141317   0.262  10.579   7.240  1.0545  1.5134  1.0264
44904SOL    HW241318   0.396  10.617   7.300  2.0576  0.1985 -0.2941
44905SOL     OW41319   9.012  11.158   8.506 -0.2207  0.5081 -0.0074
44905SOL    HW141320   9.075  11.125   8.442  1.3794 -2.1263  2.6772
44905SOL    HW241321   9.045  11.244   8.530  0.4030  0.5918 -1.0903
44906SOL     OW41322   3.366   6.064   1.634 -0.7572 -0.5298 -0.3354
44906SOL    HW141323   3.405   6.151   1.632 -0.8210 -0.4971 -0.1810
44906SOL    HW241324   3.418   6.015   1.698 -0.2080 -0.8543 -1.0121
44907SOL     OW41325   1.667   7.521  11.718  0.2512 -0.1251 -0.7116
44907SOL    HW141326   1.720   7.546  11.794  0.8566 -3.0278 -0.0469
44907SOL    HW241327   1.726   7.530  11.643  0.5091  0.1552 -0.4758
44908SOL     OW41328   8.878   6.985  10.429 -0.4433 -1.0810 -0.3798
44908SOL    HW141329   8.789   6.967  10.459 -0.9084  1.0076 -0.3321
44908SOL    HW241330   8.898   7.072  10.464  1.5041 -1.3623 -0.6733
44909SOL     OW41331  10.822   8.895   5.982 -0.0649 -0.2473  0.1389
44909SOL    HW141332  10.906   8.867   6.019  0.6160 -0.4356 -1.4614
44909SOL    HW241333  10.777   8.814   5.960 -0.2930 -0.1366  0.1928
44910SOL     OW41334   4.703  10.037   8.289 -0.3660  0.0447  0.0347
44910SOL    HW141335   4.706  10.033   8.384  1.1700 -0.0200 -0.0055
44910SOL    HW241336   4.692  10.131   8.269  1.0409  0.2772  0.2627
44911SOL     OW41337  12.117   9.278   0.382  0.1686  0.6484  1.0226
44911SOL    HW141338  12.117   9.182   0.390 -1.4244  0.5880  0.6542
44911SOL    HW241339  12.201   9.305   0.418  0.6630 -0.8947  1.1079
44912SOL     OW41340  12.544   8.533   4.897  0.1058  0.0502 -0.1950
44912SOL    HW141341  12.459   8.506   4.861  0.7903 -1.5530 -0.6581
44912SOL    HW241342  12.523   8.565   4.985 -0.8271 -1.6278  0.2338
44913SOL     OW41343   1.631   3.302  10.425 -1.0210 -0.4366  0.1953
44913SOL    HW141344   1.590   3.326  10.342  0.1567  0.9683 -0.0232
44913SOL    HW241345   1.724   3.319  10.411 -0.6746 -1.1768  1.4759
44914SOL     OW41346   1.852   7.318  11.376 -0.2936 -0.2304  0.4064
44914SOL    HW141347   1.892   7.363  11.302  0.1183 -2.6894 -0.9508
44914SOL    HW241348   1.767   7.288  11.344 -2.1157  2.3420  2.3439
44915SOL     OW41349  11.951   0.747   9.099 -0.2797  0.2506 -0.0045
44915SOL    HW141350  11.920   0.781   9.183  0.5203  0.4750  0.2075
44915SOL    HW241351  11.975   0.657   9.116  0.5344  0.5001  0.1727
44916SOL     OW41352   2.929   0.936   5.168  0.0841  0.6699 -0.3929
44916SOL    HW141353   2.978   0.883   5.231  0.7293  0.4034 -1.1091
44916SOL    HW241354   2.873   0.991   5.222 -0.9450 -1.0578  0.3606
44917SOL     OW41355   4.198  10.189  12.367  0.3223 -0.4847 -0.0803
44917SOL    HW141356   4.262  10.260  12.359 -0.8983  0.5971 -0.5687
44917SOL    HW241357   4.215  10.151  12.453  0.5478  0.8600  0.4865
44918SOL     OW41358   8.237   4.933   3.342 -0.1337  0.2252 -0.2703
44918SOL    HW141359   8.192   4.851   3.323  0.3386 -0.1062  0.0303
44918SOL    HW241360   8.329   4.916   3.322  0.4056 -0.1348  2.1658
44919SOL     OW41361  10.060  10.611  11.997  0.5205  0.1763  0.1528
44919SOL    HW141362  10.073  10.556  12.074  0.5053 -0.1531 -0.0772
44919SOL    HW241363  10.003  10.682  12.027  0.4750  0.0225  0.4291
44920SOL     OW41364   6.208   8.393   8.623 -0.7329  0.0352 -0.3409
44920SOL    HW141365   6.195   8.333   8.549  1.6960  0.1451 -0.9194
44920SOL    HW241366   6.132   8.451   8.619  0.1053  1.1553 -3.8783
44921SOL     OW41367  10.583   0.422   4.619  0.6323 -0.3331  0.3850
44921SOL    HW141368  10.645   0.467   4.562  2.8128 -2.2732  1.0667
44921SOL    HW241369  10.503   0.415   4.567  2.4530 -1.8753 -2.4783
44922SOL     OW41370   5.185  11.356  11.718 -0.1044 -0.5310 -0.5114
44922SOL    HW141371   5.260  11.301  11.694  0.8032  1.1222 -1.6748
44922SOL    HW241372   5.224  11.428  11.767 -0.6710  1.2131 -2.5143
44923SOL     OW41373   2.729   4.561   9.285 -0.2733  0.1279  0.3133
44923SOL    HW141374   2.712   4.654   9.296  0.4712  0.1409  1.4996
44923SOL    HW241375   2.777   4.555   9.202 -0.2600  0.7952  0.2693
44924SOL     OW41376  10.436  10.769   6.348  0.3587 -0.0357 -0.4114
44924SOL    HW141377  10.367  10.718   6.390 -0.3164  1.4926  0.4250
44924SOL    HW241378  10.466  10.715   6.276 -0.7531 -1.3265  0.0608
44925SOL     OW41379   7.364   7.931   9.497  0.0901 -0.3685  0.5276
44925SOL    HW141380   7.352   7.921   9.403 -0.3146 -0.6729  0.6077
44925SOL    HW241381   7.299   7.872   9.536  0.5372 -0.5623  0.9930
44926SOL     OW41382   0.429   7.272  12.164 -0.1867 -0.4709  0.3271
44926SOL    HW141383   0.469   7.317  12.089  0.1099 -1.4045 -0.0878
44926SOL    HW241384   0.335   7.291  12.155 -0.0284  0.4107  0.4079
44927SOL     OW41385   9.002  10.622  10.924  0.0970  0.8248  0.0642
44927SOL    HW141386   8.954  10.541  10.905  2.2743 -0.9477  1.4607
44927SOL    HW241387   9.082  10.615  10.871  0.0873  2.3571 -0.1906
44928SOL     OW41388  10.758   0.502   8.904  0.3702  0.0077  0.2583
44928SOL    HW141389  10.689   0.435   8.906 -1.1424  1.5065  1.1407
44928SOL    HW241390  10.800   0.490   8.819  1.2185 -3.0245  0.9638
44929SOL     OW41391   4.164   8.933   0.375 -0.3516  0.2545  0.0514
44929SOL    HW141392   4.157   8.865   0.308  0.4476 -1.0288  1.2132
44929SOL    HW241393   4.218   8.893   0.444  0.3690  2.1674  0.6608
44930SOL     OW41394   5.556  10.559   1.231 -0.2860 -0.3566 -0.3908
44930SOL    HW141395   5.462  10.569   1.245 -0.3815 -0.4028 -0.9666
44930SOL    HW241396   5.573  10.605   1.149  0.1524 -0.5641 -0.4201
44931SOL     OW41397  11.801   3.413  12.211  0.7370 -0.2151 -0.3957
44931SOL    HW141398  11.749   3.493  12.200  0.9231 -0.2546 -1.7559
44931SOL    HW241399  11.743   3.353  12.258  0.5897  0.7088  0.6311
44932SOL     OW41400   6.113   6.268   5.531 -0.3619  0.5888 -0.1528
44932SOL    HW141401   6.081   6.299   5.615  1.0673  0.2831  0.5393
44932SOL    HW241402   6.051   6.201   5.504 -1.2198  1.1720  0.3032
44933SOL     OW41403  10.681   7.864   5.023  0.2415 -0.2144 -0.6889
44933SOL    HW141404  10.638   7.816   4.953 -0.6316 -0.1562 -0.2122
44933SOL    HW241405  10.761   7.816   5.041 -0.3681 -1.2048 -0.5730
44934SOL     OW41406   4.483  11.295   3.875  0.1250  0.4341  0.0043
44934SOL    HW141407   4.440  11.287   3.790  1.6260  2.0064 -0.9856
44934SOL    HW241408   4.531  11.213   3.885 -1.0076 -0.2531 -0.0932
44935SOL     OW41409   6.427  10.500  11.702 -0.6090  0.1393 -0.3049
44935SOL    HW141410   6.346  10.545  11.678 -0.3592  0.2183 -1.0059
44935SOL    HW241411   6.416  10.411  11.669 -0.1963  0.2949 -0.8791
44936SOL     OW41412  12.393   2.113   0.375 -0.0046 -0.2529  0.2153
44936SOL    HW141413  12.395   2.118   0.471 -0.5051  1.0366  0.1863
44936SOL    HW241414  12.368   2.023   0.356 -0.9223 -0.2570  1.3188
44937SOL     OW41415   9.761   2.540  12.186 -0.0546 -0.1768 -0.4595
44937SOL    HW141416   9.846   2.523  12.225  0.4156 -0.0314 -1.3829
44937SOL    HW241417   9.705   2.470  12.218 -0.1578  0.8547  1.7902
44938SOL     OW41418   6.609  11.818  10.625  0.0803  0.3038  0.1675
44938SOL    HW141419   6.548  11.873  10.674  2.2662  3.5690 -0.4809
44938SOL    HW241420   6.613  11.856  10.537  2.9795  0.2790  0.1689
44939SOL     OW41421  12.501  10.044   9.101 -0.4763 -0.6010 -0.3491
44939SOL    HW141422  12.480   9.954   9.123  0.1431 -0.3952  1.2209
44939SOL    HW241423  12.435  10.069   9.037 -3.6771 -0.6982  2.5936
44940SOL     OW41424   4.737   0.177  11.737  0.4189 -0.4956  0.2464
44940SOL    HW141425   4.816   0.230  11.751  0.3952 -0.5398  0.5580
44940SOL    HW241426   4.666   0.236  11.763  0.3334 -0.3808 -0.2407
44941SOL     OW41427   8.144   8.766   6.289  0.3453 -0.3937 -0.4689
44941SOL    HW141428   8.109   8.855   6.281 -0.1334 -0.6325 -1.1077
44941SOL    HW241429   8.142   8.732   6.200  0.0471 -1.2190 -0.1540
44942SOL     OW41430   6.439   0.398  10.657 -0.4327 -0.3148 -0.3561
44942SOL    HW141431   6.372   0.411  10.724  0.3211  3.0617 -0.0792
44942SOL    HW241432   6.520   0.389  10.706 -0.3905 -2.4127 -0.7493
44943SOL     OW41433   1.056   3.378   9.828 -0.1625  0.3797 -0.0975
44943SOL    HW141434   0.965   3.348   9.818 -0.1773 -0.2009  1.5543
44943SOL    HW241435   1.107   3.313   9.779 -0.5863  0.4509 -0.6555
44944SOL     OW41436   6.931   5.860   2.063 -0.3270 -0.6261  0.3687
44944SOL    HW141437   6.903   5.812   1.985 -1.6301  0.0257  0.4162
44944SOL    HW241438   7.025   5.840   2.070 -0.4900 -1.8627 -0.5160
44945SOL     OW41439  11.034  12.446   4.338  0.1224  0.2646 -0.5242
44945SOL    HW141440  10.960  12.506   4.329  0.5300  0.9644  0.5668
44945SOL    HW241441  11.048  12.439   4.433  0.4866 -1.0635 -0.6576
44946SOL     OW41442  11.400   6.047   0.517  0.0915  0.1057  0.6162
44946SOL    HW141443  11.491   6.025   0.496 -0.2433  0.1088 -0.9700
44946SOL    HW241444  11.405   6.129   0.567  1.0347 -0.8208  2.1303
44947SOL     OW41445  11.457  12.072   3.512  0.0037 -0.0605  0.0655
44947SOL    HW141446  11.414  12.135   3.570 -0.9082 -0.8313  0.2558
44947SOL    HW241447  11.435  11.987   3.549 -0.8312 -0.5869 -1.5493
44948SOL     OW41448   4.738   3.756   1.473 -0.6077 -0.2515 -0.2597
44948SOL    HW141449   4.790   3.738   1.394 -1.2684 -0.1768 -0.7129
44948SOL    HW241450   4.690   3.836   1.452  1.0202  1.1743  1.1042
44949SOL     OW41451   5.256  11.991  10.681  0.3169 -0.2807  1.1374
44949SOL    HW141452   5.284  12.047  10.753  1.1251  0.8049  0.0129
44949SOL    HW241453   5.337  11.963  10.639 -0.0362 -2.7448  1.9548
44950SOL     OW41454   8.961   0.043   9.626 -0.1557 -0.0108 -0.1617
44950SOL    HW141455   8.888   0.009   9.575 -1.5272  1.3267  0.8435
44950SOL    HW241456   8.959  -0.006   9.708  1.2864 -1.2872 -0.8328
44951SOL     OW41457  11.063   4.244   4.118 -0.2345 -0.1364 -0.0717
44951SOL    HW141458  11.110   4.326   4.101  0.0632 -0.5168 -1.1883
44951SOL    HW241459  10.978   4.256   4.076 -0.5085 -0.0921  0.4852
44952SOL     OW41460  12.133   1.073   2.439  0.0087  0.2892  0.0777
44952SOL    HW141461  12.055   1.100   2.390 -2.1235 -1.8087  2.0631
44952SOL    HW241462  12.153   0.986   2.405 -0.4649 -0.4714  1.6386
44953SOL     OW41463   7.500   3.612   2.720 -0.1493 -0.0947  0.4360
44953SOL    HW141464   7.414   3.614   2.678 -1.2831  2.1240  2.5950
44953SOL    HW241465   7.549   3.547   2.670 -2.4798 -0.1884 -1.9921
44954SOL     OW41466  12.042   2.130  11.911 -0.0673 -0.0429 -0.2240
44954SOL    HW141467  12.023   2.044  11.873  1.6166 -0.6855  0.2714
44954SOL    HW241468  11.958   2.161  11.945 -1.1073 -0.5791 -2.1622
44955SOL     OW41469  11.529  10.349   2.345  0.2600  0.1032  0.0358
44955SOL    HW141470  11.617  10.368   2.312 -0.2151  1.3432 -0.5643
44955SOL    HW241471  11.470  10.382   2.278 -0.6930 -1.7967 -0.1461
44956SOL     OW41472   7.972   7.457  12.697 -0.3153 -0.1824  0.1884
44956SOL    HW141473   7.988   7.372  12.658 -0.2655 -0.7541  1.4201
44956SOL    HW241474   7.993   7.446  12.789  0.2807  1.3324  0.2603
44957SOL     OW41475   4.541  11.575   3.671  0.0739  0.0121  0.3438
44957SOL    HW141476   4.450  11.581   3.700  0.4492 -1.4756  1.9527
44957SOL    HW241477   4.565  11.665   3.649 -1.8974  0.3738 -0.5286
44958SOL     OW41478   7.791   8.638   7.705 -0.1790 -0.2983  0.1755
44958SOL    HW141479   7.858   8.570   7.694  0.1978  0.2354 -0.9749
44958SOL    HW241480   7.711   8.590   7.726  0.5978 -0.9329  1.8936
44959SOL     OW41481   0.502  11.858  11.743  0.0070 -0.2289 -0.6731
44959SOL    HW141482   0.444  11.815  11.806  1.3685 -1.5196 -0.2607
44959SOL    HW241483   0.506  11.949  11.773 -0.5766 -0.4740  0.2052
44960SOL     OW41484  11.125   3.793  10.694 -0.2362  0.5577  0.1171
44960SOL    HW141485  11.053   3.845  10.729  0.9408  0.2215  3.3783
44960SOL    HW241486  11.200   3.817  10.749  1.9122  0.0538 -2.3947
44961SOL     OW41487   7.528   3.144  10.296  0.3770  0.2173 -0.0703
44961SOL    HW141488   7.542   3.126  10.203  1.0869  0.0419  0.0612
44961SOL    HW241489   7.468   3.076  10.326  0.4140  0.0742 -0.3258
44962SOL     OW41490  12.586   2.830   3.029  0.1136  0.1274 -0.4671
44962SOL    HW141491  12.562   2.922   3.014 -1.2235 -0.0098  0.7067
44962SOL    HW241492  12.516   2.795   3.083 -0.4585 -2.1520 -2.5207
44963SOL     OW41493  10.415   1.029  11.688 -0.9017  0.4983 -0.2341
44963SOL    HW141494  10.448   1.099  11.632  2.1251 -1.6941 -1.4805
44963SOL    HW241495  10.410   0.953  11.630 -1.2297 -1.0053  1.6850
44964SOL     OW41496   9.370  10.033   7.567  0.1886 -0.0543  0.0810
44964SOL    HW141497   9.330  10.103   7.618 -0.8132 -0.7739  0.3003
44964SOL    HW241498   9.339  10.047   7.477 -0.2825 -0.4179  0.1887
44965SOL     OW41499   4.942   2.354   9.873  0.5876  0.4783 -0.0773
44965SOL    HW141500   4.953   2.262   9.846 -0.0160 -0.2302  1.9031
44965SOL    HW241501   5.023   2.375   9.920 -0.0485  0.2953  1.1447
44966SOL     OW41502   5.988   9.990   7.315  0.3505 -0.2139  0.1470
44966SOL    HW141503   6.027   9.934   7.247  0.6358 -1.2094  1.1068
44966SOL    HW241504   5.922  10.042   7.268 -0.7128 -2.1372 -0.5817
44967SOL     OW41505  12.085   3.949  12.420 -0.3396  0.3615 -0.0812
44967SOL    HW141506  12.026   3.985  12.487  0.8872 -0.3590  1.4767
44967SOL    HW241507  12.173   3.967  12.454  0.3417 -2.5651 -0.0185
44968SOL     OW41508  10.558   5.401   7.026 -0.6954  0.6846  0.1773
44968SOL    HW141509  10.532   5.308   7.026  0.7278  0.2266  1.9371
44968SOL    HW241510  10.475   5.449   7.022 -1.4256 -0.6340 -1.6047
44969SOL     OW41511   6.712  10.114   0.105  0.3050 -0.0972  0.0662
44969SOL    HW141512   6.774  10.042   0.091  0.8873  0.2923  0.6210
44969SOL    HW241513   6.629  10.080   0.070  0.6150 -0.9645  0.1320
44970SOL     OW41514   3.159   9.878   4.779 -0.1523 -0.1469  0.0225
44970SOL    HW141515   3.240   9.928   4.788  0.3279 -0.7808 -0.6253
44970SOL    HW241516   3.091   9.944   4.764  0.1834  0.4091  0.8699
44971SOL     OW41517   0.921   4.493   5.319 -0.5707 -0.1483 -0.0362
44971SOL    HW141518   1.002   4.512   5.272 -0.4413 -1.3963 -0.3328
44971SOL    HW241519   0.942   4.512   5.411 -1.0147  2.9191 -0.4652
44972SOL     OW41520  11.406   1.163  10.758  0.4194  0.1837  0.2744
44972SOL    HW141521  11.480   1.198  10.709  0.9546 -0.3437  0.6870
44972SOL    HW241522  11.427   1.070  10.771 -0.2710  0.0430  0.4784
44973SOL     OW41523   3.473   4.923   3.503 -0.0909 -0.0688 -0.5645
44973SOL    HW141524   3.522   4.916   3.585 -2.6386  0.9464  1.1603
44973SOL    HW241525   3.393   4.872   3.518 -0.5719  0.0405 -2.4797
44974SOL     OW41526   1.641   7.386   5.011 -0.3289  0.2918 -0.2568
44974SOL    HW141527   1.602   7.454   5.066  0.5865 -1.5516  2.9397
44974SOL    HW241528   1.735   7.401   5.018 -0.1657 -0.5353 -0.5768
44975SOL     OW41529   4.101   1.985   7.736  0.3484  0.2262 -0.1986
44975SOL    HW141530   4.129   1.897   7.762 -2.3320 -0.5093  0.5300
44975SOL    HW241531   4.102   2.035   7.818  0.6661  0.5388 -0.3911
44976SOL     OW41532  10.148   0.609   2.081  0.0255 -0.0715 -0.2370
44976SOL    HW141533  10.124   0.585   1.992  0.1030 -1.1849  0.0221
44976SOL    HW241534  10.068   0.650   2.117 -0.1881 -0.1341 -0.6318
44977SOL     OW41535   1.514   7.923   7.783  0.0981 -0.4141  0.6987
44977SOL    HW141536   1.549   7.836   7.767 -0.5477 -0.7908  1.2766
44977SOL    HW241537   1.583   7.968   7.832  1.4964  0.2856 -1.7599
44978SOL     OW41538   4.466   9.487  10.917  0.1646 -0.3334 -0.6068
44978SOL    HW141539   4.553   9.473  10.955 -0.3375 -2.3717 -0.0788
44978SOL    HW241540   4.427   9.557  10.970  0.5356 -1.1985  0.8722
44979SOL     OW41541   5.757   6.969  11.640 -0.1592  0.0325  0.1894
44979SOL    HW141542   5.712   7.051  11.622 -0.8359 -0.5152 -0.7081
44979SOL    HW241543   5.688   6.903  11.635  0.5485 -0.6946 -0.1089
44980SOL     OW41544   8.489   9.864   6.741 -0.3415  0.2531  0.1803
44980SOL    HW141545   8.396   9.876   6.761 -0.0642 -1.2447  2.8437
44980SOL    HW241546   8.534   9.882   6.824  1.5298 -1.0329 -0.4817
44981SOL     OW41547   5.093   2.887   6.315 -0.3655  0.0625 -0.2610
44981SOL    HW141548   5.031   2.853   6.250 -0.3015 -0.6981  0.0555
44981SOL    HW241549   5.137   2.809   6.348 -0.2058  0.4653  0.5001
44982SOL     OW41550  12.589   9.785   2.137 -0.3808  0.2065 -0.0137
44982SOL    HW141551  12.668   9.828   2.107 -1.7970  1.0591 -2.8043
44982SOL    HW241552  12.520   9.852   2.130 -1.7488 -1.1015  0.3009
44983SOL     OW41553  11.226   7.090  10.317  0.1384 -0.1817 -0.1720
44983SOL    HW141554  11.131   7.097  10.318  0.1977  3.5355  2.7971
44983SOL    HW241555  11.253   7.137  10.238 -0.5289  0.8657  0.1915
44984SOL     OW41556   1.433   4.954   8.352 -0.0295  0.1100 -0.0817
44984SOL    HW141557   1.497   5.025   8.354  0.1080  0.1275 -2.5148
44984SOL    HW241558   1.361   4.989   8.299  0.4577 -1.8380 -2.1446
44985SOL     OW41559   6.478   5.042   6.790 -0.0844  0.2037  0.0605
44985SOL    HW141560   6.428   5.094   6.727 -0.2660 -0.8174 -0.6622
44985SOL    HW241561   6.460   5.083   6.874 -0.4189  1.1550 -0.4575
44986SOL     OW41562   0.680   8.366  12.116 -0.2451  0.1813  0.0871
44986SOL    HW141563   0.645   8.299  12.058  1.0520 -0.1617 -0.3427
44986SOL    HW241564   0.758   8.326  12.155 -0.9112  0.5148  1.8657
44987SOL     OW41565   5.706   9.359   5.596  0.4186 -0.1357 -0.1045
44987SOL    HW141566   5.740   9.271   5.613  3.1222  0.7759 -0.4055
44987SOL    HW241567   5.695   9.397   5.683 -1.2675 -0.8693  0.0556
44988SOL     OW41568   5.400   1.527   1.631 -0.7316 -0.3263  0.3784
44988SOL    HW141569   5.447   1.444   1.617 -0.9435 -0.0652 -2.3534
44988SOL    HW241570   5.308   1.505   1.618 -0.7211  0.4627 -1.2024
44989SOL     OW41571   6.497   5.803  12.238 -0.0787  0.1846  0.2017
44989SOL    HW141572   6.406   5.777  12.229 -0.2278  0.7978 -0.0854
44989SOL    HW241573   6.547   5.725  12.213 -0.5137 -0.3542  0.9595
44990SOL     OW41574   6.508   2.303   5.962 -0.2604  0.2966 -0.0099
44990SOL    HW141575   6.514   2.350   6.045 -1.1120  1.4688 -0.5850
44990SOL    HW241576   6.426   2.332   5.924  0.4191  0.2841 -1.5612
44991SOL     OW41577  10.993  11.787   1.320 -0.1231  0.0419  0.4045
44991SOL    HW141578  11.027  11.864   1.366 -2.1081  1.0574  0.2914
44991SOL    HW241579  10.987  11.815   1.228 -1.2216 -0.0786  0.4208
44992SOL     OW41580   9.896   4.146   1.551  0.8343 -0.0946  0.7836
44992SOL    HW141581   9.856   4.233   1.542  3.1216  1.3224  2.9960
44992SOL    HW241582   9.970   4.148   1.490  0.3493 -0.9067  0.1450
44993SOL     OW41583  12.388  12.651   2.773  0.2678 -0.3774  0.4521
44993SOL    HW141584  12.438  12.602   2.707 -1.2906 -0.2706 -0.8849
44993SOL    HW241585  12.322  12.698   2.722  0.0917  1.0781  1.9646
44994SOL     OW41586   9.524   3.946   1.903  0.0404 -0.5452  0.6591
44994SOL    HW141587   9.474   4.026   1.888  0.1332 -0.0476  2.6890
44994SOL    HW241588   9.616   3.974   1.900  0.2602 -1.2769 -2.0828
44995SOL     OW41589   0.098   2.521   3.251  0.0565  0.3499 -0.0058
44995SOL    HW141590   0.030   2.546   3.188  1.7053 -0.4953 -2.2476
44995SOL    HW241591   0.134   2.439   3.217  0.7285 -0.4232  2.3447
44996SOL     OW41592   1.547   4.878   6.472  0.6399 -0.4077  0.2223
44996SOL    HW141593   1.534   4.879   6.567  2.6947  2.0088  0.5752
44996SOL    HW241594   1.560   4.785   6.451 -2.3227 -1.3109  1.8307
44997SOL     OW41595  10.797  12.246   9.588 -0.1685  0.1270 -0.3395
44997SOL    HW141596  10.887  12.253   9.556  0.3467  2.6721  1.4107
44997SOL    HW241597  10.797  12.169   9.645  0.5122 -0.6849 -1.4062
44998SOL     OW41598   8.311  11.212  10.802 -0.2575  0.3866  0.0772
44998SOL    HW141599   8.242  11.168  10.751  0.3910  0.2248 -0.6762
44998SOL    HW241600   8.263  11.266  10.865 -1.0715 -0.4978  0.2395
44999SOL     OW41601   9.126   7.840   3.281  0.4567  0.4785 -0.4499
44999SOL    HW141602   9.112   7.780   3.207 -0.9664 -0.6567  0.6656
44999SOL    HW241603   9.071   7.916   3.260  0.8373  0.6070 -1.0143
45000SOL     OW41604   8.236  12.586   4.636  0.6983  0.4945  0.1107
45000SOL    HW141605   8.166  12.645   4.609 -0.1693 -1.4199 -2.1968
45000SOL    HW241606   8.208  12.553   4.721 -0.8667  0.3840 -0.4065
45001SOL     OW41607   4.309  11.543   0.775  0.3007 -0.2871  0.5646
45001SOL    HW141608   4.233  11.525   0.831  0.3746  1.7890  1.4229
45001SOL    HW241609   4.272  11.571   0.692  0.1280 -0.1725  0.6794
45002SOL     OW41610   8.816   7.503   1.165 -0.0224  0.9928  0.6900
45002SOL    HW141611   8.776   7.417   1.176  1.4402  0.4674  2.4885
45002SOL    HW241612   8.743   7.564   1.167 -1.3702 -0.2133 -2.8928
45003SOL     OW41613   6.449   2.275   7.586  0.1129  0.3873  0.3008
45003SOL    HW141614   6.436   2.364   7.553  0.4156  0.6707  0.9337
45003SOL    HW241615   6.398   2.220   7.526  1.2673  0.7940 -1.0974
45004SOL     OW41616   4.594   4.481  12.246  0.4858  0.5001 -0.2489
45004SOL    HW141617   4.593   4.556  12.187 -1.8224  0.5797 -0.1950
45004SOL    HW241618   4.678   4.488  12.292  1.7994  1.1339 -2.5770
45005SOL     OW41619  10.940   0.881   0.020  0.3135  0.3314 -0.6754
45005SOL    HW141620  10.876   0.821   0.058 -0.6830  1.7283 -0.0693
45005SOL    HW241621  11.004   0.894   0.089 -0.4130  1.2941 -0.1574
45006SOL     OW41622   0.904   2.598  10.402 -0.9002 -0.3145 -0.1462
45006SOL    HW141623   0.844   2.534  10.363  0.5041  0.0500 -3.1912
45006SOL    HW241624   0.986   2.549  10.414 -0.8880 -0.0207  1.1451
45007SOL     OW41625   5.350   6.624   6.982  0.0805  0.0456  0.9771
45007SOL    HW141626   5.356   6.657   6.893 -2.0860  0.8816  1.0821
45007SOL    HW241627   5.441   6.624   7.014  0.9413 -0.6215 -1.3037
45008SOL     OW41628   5.558   1.916   6.081 -0.3433 -0.1456  0.1820
45008SOL    HW141629   5.601   1.916   5.996  0.6363 -1.8563  0.6294
45008SOL    HW241630   5.625   1.944   6.143  0.3668 -3.1550  0.9301
45009SOL     OW41631   1.964   1.248  12.617  0.3566 -0.4665  0.2975
45009SOL    HW141632   2.012   1.330  12.630  0.7906 -0.7095  0.2745
45009SOL    HW241633   1.883   1.274  12.574  0.9000 -0.1428 -0.5619
45010SOL     OW41634  12.704  11.292  10.923 -0.1549 -0.1852 -0.5452
45010SOL    HW141635  12.747  11.345  10.990  0.5593 -0.2508 -0.9475
45010SOL    HW241636  12.738  11.204  10.936 -0.7105 -0.3856 -0.4138
45011SOL     OW41637  10.217   5.316   4.013 -0.4369  0.1761  0.2120
45011SOL    HW141638  10.147   5.382   4.016  0.7647  1.5577 -0.6277
45011SOL    HW241639  10.259   5.321   4.099  0.8691  1.9677 -0.4668
45012SOL     OW41640   8.816  10.136  11.236 -0.0766  0.9088  0.0481
45012SOL    HW141641   8.809  10.103  11.326 -0.4561  0.3553 -0.1792
45012SOL    HW241642   8.730  10.173  11.218 -0.6208 -0.6706 -0.7334
45013SOL     OW41643   6.144   9.966   3.729 -0.4116  0.2315 -0.4948
45013SOL    HW141644   6.069   9.919   3.766 -0.7939  0.3277 -1.1393
45013SOL    HW241645   6.194   9.898   3.683  0.8075 -0.1626  1.2986
45014SOL     OW41646   8.310   5.623   5.030  0.3163 -0.3867  0.9280
45014SOL    HW141647   8.312   5.536   4.992  0.2269 -0.5570  1.3101
45014SOL    HW241648   8.275   5.679   4.960  1.7295 -0.3922  0.1687
45015SOL     OW41649   8.313   0.629  10.692 -0.0271 -0.0439 -0.1650
45015SOL    HW141650   8.366   0.548  10.696  0.7934  0.4753 -0.2955
45015SOL    HW241651   8.306   0.656  10.783  0.3899  0.1677 -0.1911
45016SOL     OW41652   6.888  10.911   3.470 -0.1748 -0.4555 -0.5709
45016SOL    HW141653   6.861  10.895   3.379  0.5745 -0.5825 -0.7799
45016SOL    HW241654   6.823  10.973   3.504  0.4380  0.8931 -1.7221
45017SOL     OW41655   7.014   4.401   3.213 -0.7502 -0.4640  0.2787
45017SOL    HW141656   6.919   4.407   3.203 -0.7529 -0.3097  0.4030
45017SOL    HW241657   7.040   4.337   3.147 -0.6343  1.3571 -1.5194
45018SOL     OW41658   2.820   5.105  11.246 -0.0813  0.4942  0.0590
45018SOL    HW141659   2.761   5.104  11.322 -0.5980 -1.6131 -0.2984
45018SOL    HW241660   2.767   5.069  11.175  0.4787  2.1728 -1.2749
45019SOL     OW41661  10.546   7.224   6.605 -0.1289 -0.2255 -0.0057
45019SOL    HW141662  10.531   7.213   6.699 -0.2720  1.0299  0.1312
45019SOL    HW241663  10.458   7.229   6.567 -0.1298  2.2935  0.1944
45020SOL     OW41664   4.694   2.949   2.941 -0.1817 -0.2282 -0.0864
45020SOL    HW141665   4.783   2.984   2.948 -0.2266 -0.1457  0.0822
45020SOL    HW241666   4.698   2.886   2.869 -0.0735  0.0464 -0.3229
45021SOL     OW41667   2.850   3.344   3.696  0.0394 -0.6965 -0.0224
45021SOL    HW141668   2.901   3.417   3.732  1.4100 -0.2194 -2.6278
45021SOL    HW241669   2.866   3.349   3.602 -2.2076 -2.6249 -0.6012
45022SOL     OW41670   7.805   1.092   7.787  0.4690 -0.1209  0.3675
45022SOL    HW141671   7.861   1.168   7.773 -0.2896  0.1468 -1.4564
45022SOL    HW241672   7.866   1.018   7.791  0.9845  0.0981 -2.0930
45023SOL     OW41673  10.700   6.926  12.605 -0.2050 -0.2701  0.6382
45023SOL    HW141674  10.608   6.914  12.628 -0.6664  0.4832 -0.6818
45023SOL    HW241675  10.746   6.924  12.689 -1.2751 -1.7532  1.2396
45024SOL     OW41676   1.856   5.829  10.408 -0.0996  0.1169  0.4952
45024SOL    HW141677   1.815   5.768  10.469  3.9824  0.7033  4.3340
45024SOL    HW241678   1.823   5.915  10.433 -1.3231  0.0833 -0.8766
45025SOL     OW41679   8.659   9.835   1.103 -0.3799  0.5656  0.1523
45025SOL    HW141680   8.646   9.924   1.135 -1.2965  0.4185  0.2179
45025SOL    HW241681   8.599   9.827   1.029  0.6427  0.4170 -0.6703
45026SOL     OW41682   9.183  12.746  10.692  0.0915 -0.9320 -0.0259
45026SOL    HW141683   9.209  12.838  10.687  0.2721 -0.7730  2.3497
45026SOL    HW241684   9.264  12.699  10.716 -0.7286 -1.0503  2.9497
45027SOL     OW41685   8.156   2.092   9.487 -0.3808  0.2387 -0.1741
45027SOL    HW141686   8.231   2.047   9.448 -0.0933  0.2451  0.3630
45027SOL    HW241687   8.107   2.022   9.531 -0.7095  0.2295 -0.5578
45028SOL     OW41688   3.383  12.263   0.334  0.2801 -0.1625  0.3223
45028SOL    HW141689   3.333  12.190   0.370 -1.7786  2.0682  2.3432
45028SOL    HW241690   3.474  12.238   0.346 -0.3671 -2.0052  1.8659
45029SOL     OW41691  11.888   3.392  10.057 -0.0506  0.8131 -0.2511
45029SOL    HW141692  11.795   3.379  10.038  0.1794  1.9075 -2.5236
45029SOL    HW241693  11.934   3.340   9.991  0.9132  1.9164 -0.4897
45030SOL     OW41694  10.311   9.986   5.052 -0.2947 -0.5920 -0.3343
45030SOL    HW141695  10.358   9.973   5.134  0.5138 -0.1339 -0.7175
45030SOL    HW241696  10.225  10.018   5.079  0.1988  0.2430  0.3181
45031SOL     OW41697   1.959   3.270   4.206  0.1319 -0.6285 -0.0347
45031SOL    HW141698   2.011   3.334   4.255  2.4778  0.1586 -3.2010
45031SOL    HW241699   2.012   3.191   4.208 -1.0025 -1.3931  0.7833
45032SOL     OW41700   6.081   1.748  11.040 -0.3962  0.3161  0.1172
45032SOL    HW141701   5.993   1.712  11.031 -1.1367  2.3167 -1.2460
45032SOL    HW241702   6.101   1.784  10.954  2.0340 -0.6351  0.2259
45033SOL     OW41703   6.117  12.683   7.855 -0.3175  0.4760  0.2689
45033SOL    HW141704   6.145  12.614   7.915 -0.8928  0.1162  0.1321
45033SOL    HW241705   6.046  12.644   7.804 -0.4416  1.0665 -0.0285
45034SOL     OW41706   8.273   8.525  10.975 -0.5465  0.3212  0.9015
45034SOL    HW141707   8.285   8.485  10.888 -0.0740 -0.7089  1.4232
45034SOL    HW241708   8.272   8.619  10.958 -1.7683  0.1093 -0.3839
45035SOL     OW41709   1.953   2.134   8.074 -0.3019 -0.3107 -0.2106
45035SOL    HW141710   1.940   2.124   8.168 -0.5198 -0.4362 -0.2545
45035SOL    HW241711   1.871   2.173   8.042 -0.7884 -1.5837 -0.5670
45036SOL     OW41712   6.203   9.921   4.085  0.0794 -0.1678  0.5262
45036SOL    HW141713   6.294   9.908   4.115  0.6868 -0.0253 -1.1673
45036SOL    HW241714   6.185  10.013   4.103  0.3437 -0.1406  0.6642
45037SOL     OW41715  10.165   2.319  11.589 -0.3598 -0.1237 -0.5616
45037SOL    HW141716  10.173   2.300  11.496  0.9996  0.0381 -0.5047
45037SOL    HW241717  10.124   2.405  11.593  0.2293  0.1834 -1.0358
45038SOL     OW41718   2.462   7.155  11.394  0.0465  0.0553  0.5031
45038SOL    HW141719   2.409   7.235  11.391 -0.3646 -0.2331 -0.0306
45038SOL    HW241720   2.479   7.142  11.488  0.0607  0.7286  0.5992
45039SOL     OW41721   5.536  10.949   8.515  0.0691  0.3763  0.2758
45039SOL    HW141722   5.458  10.955   8.569 -0.9546 -0.5999 -1.0474
45039SOL    HW241723   5.607  10.978   8.573 -1.0420 -0.1154  1.9482
45040SOL     OW41724   7.580   5.986   4.152 -0.1939 -0.0879 -0.4830
45040SOL    HW141725   7.566   5.929   4.228 -0.2110 -1.6711 -1.6313
45040SOL    HW241726   7.560   6.073   4.184 -1.9350 -0.9228  0.8760
45041SOL     OW41727   9.575   4.510   3.304  0.4374  0.2123  0.1961
45041SOL    HW141728   9.593   4.420   3.279  0.5588  0.2639  0.0947
45041SOL    HW241729   9.494   4.506   3.355  1.3146 -0.1717  1.6112
45042SOL     OW41730   0.714   8.289   9.491  0.2330 -0.1791 -0.0053
45042SOL    HW141731   0.778   8.350   9.529  0.1199 -0.3659  0.4996
45042SOL    HW241732   0.633   8.310   9.537 -0.0955  0.1250 -0.7149
45043SOL     OW41733   0.504   5.669   7.085 -0.2700 -0.6569  0.1998
45043SOL    HW141734   0.490   5.704   7.173 -0.7476  0.6810 -0.3687
45043SOL    HW241735   0.598   5.678   7.071 -0.2764 -0.3046  0.3572
45044SOL     OW41736   0.097  10.992   6.055 -0.0051 -0.4738  0.2797
45044SOL    HW141737   0.089  11.071   6.001 -0.6981 -0.8617 -0.1927
45044SOL    HW241738   0.067  11.020   6.142  0.8970  0.0882  0.4292
45045SOL     OW41739  11.040  10.050   3.040 -0.1504 -0.7284  0.5887
45045SOL    HW141740  11.039  10.091   3.127  2.1503  0.0032  0.3356
45045SOL    HW241741  11.080   9.964   3.055  1.3036 -0.1638  0.1404
45046SOL     OW41742   0.891   0.634   5.195 -0.3749  0.0571  0.1148
45046SOL    HW141743   0.797   0.636   5.212 -0.2738 -1.5367  1.0803
45046SOL    HW241744   0.900   0.668   5.106 -2.0870 -1.5384 -0.7314
45047SOL     OW41745  12.665  12.740   2.213  0.5053  0.0284 -0.3684
45047SOL    HW141746  12.700  12.808   2.157 -0.2573 -0.3569 -1.3505
45047SOL    HW241747  12.659  12.780   2.300  0.3750  1.0923 -0.8583
45048SOL     OW41748   1.069   2.346  10.764 -0.3071 -1.0578 -0.0641
45048SOL    HW141749   1.133   2.278  10.742 -0.6151 -1.4556  0.2597
45048SOL    HW241750   1.085   2.365  10.857 -0.4308 -0.9052 -0.0734
45049SOL     OW41751   7.392   5.802   1.856 -0.1051  0.1699 -1.0865
45049SOL    HW141752   7.322   5.787   1.793 -0.3717  0.4871 -0.8684
45049SOL    HW241753   7.406   5.897   1.855 -0.3804  0.2230 -0.3893
45050SOL     OW41754   0.996   1.668   2.149 -0.6426  0.0567 -0.3123
45050SOL    HW141755   1.072   1.641   2.098 -0.7571 -1.0260  0.0488
45050SOL    HW241756   0.958   1.586   2.180 -0.1742  0.6582  2.0773
45051SOL     OW41757   3.536   2.216   2.739 -0.4682 -0.3936 -0.3688
45051SOL    HW141758   3.511   2.207   2.831 -1.2645  0.1817 -0.5203
45051SOL    HW241759   3.625   2.182   2.736 -0.5959 -0.8545  0.5251
45052SOL     OW41760  12.602   9.682   7.771 -0.3072 -0.1661 -0.2546
45052SOL    HW141761  12.660   9.729   7.711  0.5343 -0.2183  0.4938
45052SOL    HW241762  12.566   9.749   7.828 -0.6877 -0.1842 -0.4711
45053SOL     OW41763   5.285   4.927   2.655 -0.0952 -0.3420 -0.3078
45053SOL    HW141764   5.297   4.999   2.593  3.0568 -2.1501 -2.0575
45053SOL    HW241765   5.225   4.867   2.610  0.1353 -0.4595 -0.4597
45054SOL     OW41766   3.492   0.519   6.659 -0.3600  0.3793 -0.0754
45054SOL    HW141767   3.588   0.528   6.659 -0.0895 -1.1662 -3.1859
45054SOL    HW241768   3.465   0.556   6.575 -2.3992 -0.0817  0.3335
45055SOL     OW41769   2.899   4.708   4.582 -0.5035  0.0774  0.0313
45055SOL    HW141770   2.909   4.657   4.502 -0.5151 -0.0121  0.0863
45055SOL    HW241771   2.987   4.741   4.600 -0.4044 -0.2916  0.2396
45056SOL     OW41772   6.369  10.232   2.857  0.4233  0.2937 -0.5491
45056SOL    HW141773   6.290  10.233   2.911 -0.0011  0.0552 -1.1518
45056SOL    HW241774   6.404  10.143   2.867 -0.2630 -0.0957 -1.5191
45057SOL     OW41775  11.808  10.941   5.870 -0.0886  0.6363  0.0403
45057SOL    HW141776  11.769  10.969   5.954 -0.6498 -0.1044  0.0372
45057SOL    HW241777  11.739  10.958   5.806 -0.8553 -1.6713  0.1794
45058SOL     OW41778   4.387   5.443   7.791 -0.3475  0.2470  0.2340
45058SOL    HW141779   4.410   5.477   7.877  0.4396 -0.2732  0.2431
45058SOL    HW241780   4.412   5.512   7.730 -0.8334  0.5851  0.4160
45059SOL     OW41781   7.301   1.915   0.096  0.2454 -0.2254 -0.2705
45059SOL    HW141782   7.264   1.919   0.184 -1.2719  0.0140 -0.8974
45059SOL    HW241783   7.386   1.959   0.104 -0.6515  1.4215  0.6742
45060SOL     OW41784  10.901   6.482  10.039 -0.2564 -0.0166  0.2658
45060SOL    HW141785  10.824   6.537  10.024 -0.6682 -0.4991  0.5718
45060SOL    HW241786  10.886   6.403   9.987  0.7380  0.5125 -0.8672
45061SOL     OW41787   4.337   1.979   6.312  0.0048  0.5479 -0.8009
45061SOL    HW141788   4.372   2.011   6.229 -0.6301  1.4165 -0.7532
45061SOL    HW241789   4.276   2.047   6.340  2.1480  1.6153  1.7263
45062SOL     OW41790   3.193   8.105   6.993  0.4978  0.1970 -0.3851
45062SOL    HW141791   3.274   8.112   6.943  0.9385 -1.6702  0.0202
45062SOL    HW241792   3.220   8.075   7.079 -0.6219 -0.4596 -0.2443
45063SOL     OW41793   3.102  12.644   6.516 -0.0801 -0.1646 -0.3177
45063SOL    HW141794   3.185  12.603   6.541 -1.0365 -1.4993  0.8303
45063SOL    HW241795   3.124  12.698   6.440  2.0687  0.4427  0.6439
45064SOL     OW41796   4.640   1.720   6.405  0.1610  0.4936 -0.2516
45064SOL    HW141797   4.690   1.689   6.481 -0.2831 -0.8488 -0.4837
45064SOL    HW241798   4.684   1.682   6.329  0.0952  1.1276 -0.6181
45065SOL     OW41799   2.667  12.140   3.000  0.0327  0.1366 -0.0525
45065SOL    HW141800   2.738  12.189   2.960  0.9527 -0.8638  0.2964
45065SOL    HW241801   2.619  12.103   2.926  0.7269 -0.3272 -0.2844
45066SOL     OW41802   6.114   2.635   5.533 -0.2869 -0.7338 -0.4679
45066SOL    HW141803   6.155   2.575   5.470 -1.4128 -1.3247 -0.6592
45066SOL    HW241804   6.054   2.687   5.480  1.6909  1.6143 -0.5762
45067SOL     OW41805  11.521  12.634  10.896 -0.2492 -0.1633  0.1978
45067SOL    HW141806  11.464  12.560  10.876 -3.0007  1.5847  1.0086
45067SOL    HW241807  11.498  12.700  10.830  1.6988  0.2369 -0.1336
45068SOL     OW41808  11.141  10.771   2.025  0.6156 -0.7372  0.4604
45068SOL    HW141809  11.095  10.691   2.003 -1.5583  0.8178 -1.0648
45068SOL    HW241810  11.218  10.742   2.075 -0.7219 -3.6267  1.0350
45069SOL     OW41811   6.477  12.577   6.490  0.1987  0.1249  0.0102
45069SOL    HW141812   6.526  12.595   6.410  0.5414  1.3190  0.4632
45069SOL    HW241813   6.392  12.618   6.476 -0.5693 -1.5831 -0.6061
45070SOL     OW41814   2.814   5.925   2.596  0.2318  0.3762 -0.2031
45070SOL    HW141815   2.792   5.833   2.577  1.4287 -0.4471  2.0753
45070SOL    HW241816   2.782   5.940   2.685  1.4588  1.6691  0.0551
45071SOL     OW41817   0.169   8.168   2.422  0.1119 -0.7006  0.1615
45071SOL    HW141818   0.201   8.079   2.405 -0.5517 -0.9652  0.2648
45071SOL    HW241819   0.220   8.223   2.363  0.4263 -1.1696 -0.0137
45072SOL     OW41820   6.950   3.913   6.514 -0.3019  0.9637  0.4027
45072SOL    HW141821   6.925   3.835   6.465 -1.5661  1.7728 -0.3163
45072SOL    HW241822   7.018   3.883   6.575 -2.2045 -1.1360  1.6404
45073SOL     OW41823  10.680   1.309   0.143 -0.0930  0.1581  0.2248
45073SOL    HW141824  10.597   1.357   0.147 -0.7267 -0.8852  0.0257
45073SOL    HW241825  10.655   1.222   0.112  1.0927 -0.1563  0.1249
45074SOL     OW41826   4.686   5.855   6.432  0.0416 -0.1909  0.6399
45074SOL    HW141827   4.704   5.836   6.524 -2.2778 -0.8129  1.0163
45074SOL    HW241828   4.629   5.932   6.434  1.3440  0.8459 -0.3979
45075SOL     OW41829   7.238   7.259  11.217 -0.1091  0.2665  0.0010
45075SOL    HW141830   7.238   7.347  11.178  0.0508  1.5478  2.6476
45075SOL    HW241831   7.146   7.241  11.234 -0.2071 -0.4254 -1.1656
45076SOL     OW41832   9.375   2.006   9.080  0.0098 -0.4159  0.5919
45076SOL    HW141833   9.385   2.081   9.020  0.9652  1.5253  2.9934
45076SOL    HW241834   9.282   1.983   9.073 -0.3229  1.0056 -0.2401
45077SOL     OW41835   7.540   0.088  12.537 -0.6793  0.7165 -0.5340
45077SOL    HW141836   7.463   0.137  12.510 -1.0334  0.5683  0.1788
45077SOL    HW241837   7.515   0.047  12.620 -0.0343  0.1886 -0.5869
45078SOL     OW41838  10.945  10.006   7.446 -0.2029 -0.1292 -0.5271
45078SOL    HW141839  11.018  10.009   7.508 -1.4935 -0.4909  1.0850
45078SOL    HW241840  10.884  10.073   7.476  1.2132  3.2152 -4.3424
45079SOL     OW41841  10.304  10.055  10.865 -0.0428 -0.1445  0.1421
45079SOL    HW141842  10.394  10.063  10.835  0.3376 -0.7850  1.0462
45079SOL    HW241843  10.278   9.966  10.842 -0.5992  0.1602 -0.4698
45080SOL     OW41844   9.057   9.779  11.950  0.1407  0.2495 -0.5833
45080SOL    HW141845   9.049   9.808  11.859 -0.1516 -0.0043 -0.6387
45080SOL    HW241846   9.056   9.860  12.001  1.0428  0.4457 -0.8471
45081SOL     OW41847   5.114   1.496  12.358 -0.1351 -0.5485 -0.5970
45081SOL    HW141848   5.111   1.438  12.434 -0.9715 -1.1224 -1.0530
45081SOL    HW241849   5.073   1.577  12.388  3.2017  0.7989  0.7974
45082SOL     OW41850   2.255  10.889  12.354  0.2727  0.0092 -0.5845
45082SOL    HW141851   2.329  10.929  12.309 -0.9398  1.8645 -1.0172
45082SOL    HW241852   2.262  10.920  12.445 -0.4991  1.0290 -0.8533
45083SOL     OW41853   5.522   4.887  10.272  0.3016  0.4683 -0.6041
45083SOL    HW141854   5.510   4.801  10.231  2.5306  0.2611 -0.9423
45083SOL    HW241855   5.437   4.907  10.311 -0.1610 -2.0883 -0.1316
45084SOL     OW41856   8.929   9.342   7.321 -1.3379 -0.4073  0.3519
45084SOL    HW141857   8.958   9.433   7.332 -2.7512 -0.0901  1.8739
45084SOL    HW241858   8.948   9.301   7.406 -3.7476 -0.5929  0.8683
45085SOL     OW41859   9.014   1.956   1.478  0.8844 -0.0779  0.5852
45085SOL    HW141860   9.001   2.022   1.409 -0.8905  0.1586  1.1006
45085SOL    HW241861   9.109   1.946   1.484  1.1396  1.4176 -0.4676
45086SOL     OW41862   3.601   1.191   8.917 -0.5914 -0.0110 -0.0433
45086SOL    HW141863   3.597   1.096   8.931 -0.3885  0.0978  0.8751
45086SOL    HW241864   3.512   1.216   8.895 -0.9244 -0.2609  0.9360
45087SOL     OW41865  10.704  11.270   2.926 -0.4381 -0.1917 -0.2714
45087SOL    HW141866  10.795  11.274   2.954 -0.1889  1.4151 -1.1546
45087SOL    HW241867  10.654  11.257   3.006  0.5623 -1.3329  0.1988
45088SOL     OW41868  11.032  11.125   0.755  0.6106  0.2063 -0.2389
45088SOL    HW141869  10.964  11.171   0.804  2.4142  1.5649  1.1068
45088SOL    HW241870  11.028  11.163   0.667 -0.8931 -0.3541 -0.4433
45089SOL     OW41871   1.933   4.581   2.123  0.1481 -0.2416 -0.1671
45089SOL    HW141872   1.916   4.500   2.075 -0.4962 -0.1448 -0.1212
45089SOL    HW241873   1.882   4.647   2.076  0.8127  0.1717 -0.3109
45090SOL     OW41874   6.620   7.757   3.597 -0.1796  0.1209  0.2220
45090SOL    HW141875   6.686   7.761   3.527 -1.2185 -1.2115 -0.9090
45090SOL    HW241876   6.539   7.787   3.555 -0.7069 -0.1595  1.0053
45091SOL     OW41877   4.555   4.487   7.096 -0.1978 -0.1515 -0.6318
45091SOL    HW141878   4.634   4.455   7.140  0.1931  1.0958 -0.3903
45091SOL    HW241879   4.564   4.582   7.096 -0.5799 -0.0728 -2.7026
45092SOL     OW41880   5.320   0.061  11.893 -0.0961  0.4187  0.4946
45092SOL    HW141881   5.316  -0.030  11.865 -0.5575  0.1689  1.3407
45092SOL    HW241882   5.283   0.110  11.820 -0.6387 -0.1603  0.3669
45093SOL     OW41883   6.363   3.193   5.485 -0.4118 -0.1842 -0.2262
45093SOL    HW141884   6.366   3.248   5.407  0.2384  1.3749  0.8470
45093SOL    HW241885   6.373   3.254   5.558 -0.5558 -1.6414  1.0696
45094SOL     OW41886   4.437   2.064   0.511  0.2361  0.3888  0.1148
45094SOL    HW141887   4.399   1.985   0.473 -2.5950  1.8109 -0.2925
45094SOL    HW241888   4.502   2.093   0.446  0.2283 -0.7734 -0.4332
45095SOL     OW41889   3.470  11.661  11.080  0.3943  0.0787 -0.2509
45095SOL    HW141890   3.508  11.739  11.121  1.8435 -1.2842  1.1132
45095SOL    HW241891   3.545  11.615  11.043 -0.3960 -0.9038 -0.6709
45096SOL     OW41892  12.700   1.266   1.496 -0.4532  0.2182 -0.6126
45096SOL    HW141893  12.779   1.237   1.449  1.0329 -0.3111  2.0271
45096SOL    HW241894  12.717   1.358   1.516 -1.8701  0.9593 -2.5097
45097SOL     OW41895   7.131   7.466   9.964  0.2578 -0.4537  0.3125
45097SOL    HW141896   7.210   7.463   9.909 -0.4804 -1.8742 -0.7452
45097SOL    HW241897   7.127   7.556   9.995 -0.5487  1.2255 -3.9493
45098SOL     OW41898   3.681  10.669   0.814 -0.1830  0.7385  0.1269
45098SOL    HW141899   3.698  10.637   0.725  0.1637 -0.6537  0.6644
45098SOL    HW241900   3.765  10.662   0.859 -0.7370 -0.2525  1.0515
45099SOL     OW41901   9.590   8.849   3.182  0.1167  0.0891 -0.5839
45099SOL    HW141902   9.572   8.760   3.211  0.6165  0.2369  0.2116
45099SOL    HW241903   9.541   8.858   3.100 -1.4507 -0.3108  0.2638
45100SOL     OW41904   1.137  11.167   9.894  0.5387  0.0055  0.3301
45100SOL    HW141905   1.181  11.084   9.911  0.3455 -0.5372 -1.5802
45100SOL    HW241906   1.137  11.175   9.799  1.3554  2.6412  0.4773
45101SOL     OW41907   2.668  12.769   0.941  0.2350 -0.2590  0.2452
45101SOL    HW141908   2.593  12.828   0.940  1.2592  1.1057  0.3598
45101SOL    HW241909   2.698  12.765   0.850 -0.6619 -1.7663 -0.0194
45102SOL     OW41910   1.706   5.013   8.709  0.3616  0.3012  0.3546
45102SOL    HW141911   1.785   5.062   8.730  1.2499 -1.4064  1.1402
45102SOL    HW241912   1.701   4.945   8.776 -2.1585  0.7711  0.7446
45103SOL     OW41913   7.783   7.609   7.448 -0.5276  0.6463 -0.2049
45103SOL    HW141914   7.740   7.568   7.523  0.3132 -0.7340 -0.4449
45103SOL    HW241915   7.868   7.636   7.481  0.2817 -0.9376 -0.8815
45104SOL     OW41916   1.476  11.204   4.902  0.4880 -0.3340 -0.6497
45104SOL    HW141917   1.403  11.239   4.851  0.3469  1.3968  0.6280
45104SOL    HW241918   1.554  11.237   4.858  0.4644 -1.1118 -1.2829
45105SOL     OW41919   7.231   9.198   0.202  0.1285  0.8178 -0.2101
45105SOL    HW141920   7.160   9.195   0.138  0.3326  0.5490 -0.4287
45105SOL    HW241921   7.187   9.209   0.286 -0.1352  1.2803 -0.4076
45106SOL     OW41922   3.020   8.098   6.748  0.2838 -0.2720 -0.6189
45106SOL    HW141923   3.067   8.105   6.831  1.0953 -2.1804 -0.8566
45106SOL    HW241924   2.964   8.021   6.759 -0.0704 -0.1741 -1.6353
45107SOL     OW41925   1.875   4.280   9.636  0.3099 -0.1409  0.1973
45107SOL    HW141926   1.955   4.230   9.655 -1.1726 -2.5603  0.6178
45107SOL    HW241927   1.857   4.262   9.544  0.8240  1.3276 -0.2044
45108SOL     OW41928   2.750   7.142   0.048 -0.5163  0.0706 -0.0628
45108SOL    HW141929   2.721   7.123  -0.041 -1.3766  2.0356 -0.2651
45108SOL    HW241930   2.787   7.231   0.043 -0.3147  0.1002  1.4658
45109SOL     OW41931   1.023   7.891   9.449  0.4610 -0.0542 -0.1140
45109SOL    HW141932   0.964   7.939   9.507 -0.6021 -3.7090  2.2593
45109SOL    HW241933   1.090   7.855   9.508  0.4354 -2.4156 -1.3856
45110SOL     OW41934   5.064   5.336   3.936  0.3953  0.5033  0.5979
45110SOL    HW141935   5.086   5.296   3.851  0.4326  1.8543 -0.0471
45110SOL    HW241936   4.990   5.284   3.968 -1.0584  1.3006 -1.2910
45111SOL     OW41937   9.514   5.485   7.393 -0.3046 -0.6194  0.0786
45111SOL    HW141938   9.425   5.471   7.360 -0.0725 -0.7380 -0.5145
45111SOL    HW241939   9.568   5.424   7.343  0.3760  0.6917 -0.8465
45112SOL     OW41940   0.317  11.561   5.673 -0.1287 -0.3225 -0.3128
45112SOL    HW141941   0.322  11.467   5.656  0.7006 -0.3961  0.2778
45112SOL    HW241942   0.273  11.568   5.758 -0.0768 -0.1869 -0.2955
45113SOL     OW41943  10.772   4.277   1.871 -0.3984  0.3054  0.1903
45113SOL    HW141944  10.778   4.280   1.966  0.4196  2.2716  0.1257
45113SOL    HW241945  10.742   4.188   1.851  0.9250 -0.6440  2.1877
45114SOL     OW41946   6.287   6.353   8.320 -0.1459 -0.2161 -0.6115
45114SOL    HW141947   6.217   6.374   8.383  0.1597  2.1139 -0.9598
45114SOL    HW241948   6.254   6.383   8.236  0.1579 -1.7249 -1.2975
45115SOL     OW41949   0.105   8.515   2.642 -0.1881  0.0348 -0.3800
45115SOL    HW141950   0.022   8.546   2.677 -0.8547 -2.7296  0.7033
45115SOL    HW241951   0.089   8.425   2.615  2.0352 -0.0321 -1.8215
45116SOL     OW41952   6.708   2.837  12.216 -0.0892 -0.2339  0.0678
45116SOL    HW141953   6.617   2.864  12.228 -0.1296  0.8658 -2.3295
45116SOL    HW241954   6.760   2.906  12.257 -0.3001  1.1752 -1.9318
45117SOL     OW41955   1.773   3.981   5.785  0.2539 -0.2352 -0.1926
45117SOL    HW141956   1.860   3.996   5.823  0.3266 -1.7142  0.2907
45117SOL    HW241957   1.780   4.015   5.696  1.2220 -0.0102 -0.0418
45118SOL     OW41958   2.859   6.022   4.301 -0.2878 -0.0674  0.0654
45118SOL    HW141959   2.854   5.930   4.276  1.4986 -0.6365  1.5961
45118SOL    HW241960   2.817   6.069   4.228 -0.4048 -2.0064 -1.1881
45119SOL     OW41961   3.691   6.617   6.269  0.5745  0.4903  0.1898
45119SOL    HW141962   3.755   6.686   6.288  1.2325  0.0079 -0.2470
45119SOL    HW241963   3.728   6.570   6.194  0.3291 -0.5810  0.7173
45120SOL     OW41964   0.655  10.119   6.787 -0.5624  0.3807 -0.3971
45120SOL    HW141965   0.661  10.214   6.783  1.3568  0.3633  0.8494
45120SOL    HW241966   0.715  10.088   6.718  0.9301  0.1309  0.9466
45121SOL     OW41967   5.491  11.774   7.953  0.0865 -0.7651  0.1639
45121SOL    HW141968   5.443  11.788   7.871  1.0063  1.2245 -0.0821
45121SOL    HW241969   5.512  11.681   7.952  0.6409 -0.6709 -2.2025
45122SOL     OW41970   0.104   7.313   3.026 -0.0888  0.6185  0.1687
45122SOL    HW141971   0.198   7.306   3.006  0.4724  0.3259  2.6502
45122SOL    HW241972   0.071   7.375   2.961  1.9628  1.2748 -0.3476
45123SOL     OW41973   5.516   0.235   8.378 -0.4655 -0.5479  0.2344
45123SOL    HW141974   5.504   0.194   8.293 -2.6879 -0.7361  0.5773
45123SOL    HW241975   5.460   0.185   8.437 -0.3800  0.6858  1.4214
45124SOL     OW41976   1.522   5.418   0.885 -0.1612 -0.2605  0.1890
45124SOL    HW141977   1.520   5.323   0.891  0.6230 -0.3661 -0.8671
45124SOL    HW241978   1.609   5.438   0.851 -1.3607  0.6050 -2.7155
45125SOL     OW41979   1.899   5.691   4.663 -0.3602 -0.1482 -0.2247
45125SOL    HW141980   1.964   5.662   4.599 -0.7452 -0.6578 -0.3902
45125SOL    HW241981   1.873   5.778   4.632  0.5973  0.2758  0.1211
45126SOL     OW41982   1.017   1.887   7.724 -0.0073  0.5706 -0.1892
45126SOL    HW141983   0.933   1.840   7.728  0.5739 -0.4566  0.3654
45126SOL    HW241984   0.997   1.974   7.760 -0.3196 -0.4781  2.3602
45127SOL     OW41985   3.857   9.911   1.406 -0.7083 -0.1622 -0.3305
45127SOL    HW141986   3.838   9.831   1.456 -0.8692  0.1609  0.1407
45127SOL    HW241987   3.771   9.937   1.371 -0.8001  0.2348  0.1793
45128SOL     OW41988   7.882   4.296   3.315 -0.0224  0.0467 -0.0141
45128SOL    HW141989   7.903   4.282   3.223 -0.5965  2.3863 -0.5763
45128SOL    HW241990   7.940   4.236   3.363  1.3973 -0.1122 -1.8246
45129SOL     OW41991  12.511   2.312  11.904 -0.1854  0.8916 -0.1192
45129SOL    HW141992  12.423   2.324  11.868 -0.2302  0.8478 -0.0254
45129SOL    HW241993  12.499   2.319  11.999 -0.2162  0.1297 -0.0568
45130SOL     OW41994  10.508  10.237  11.850 -0.0621 -0.1532 -0.5396
45130SOL    HW141995  10.457  10.157  11.854 -1.7176  0.8299 -1.0936
45130SOL    HW241996  10.450  10.305  11.884  1.4548  0.7587  0.3462
45131SOL     OW41997  10.947   7.158   3.701  0.0913  0.1995 -0.0888
45131SOL    HW141998  11.030   7.176   3.746 -0.0776 -0.6117  0.5614
45131SOL    HW241999  10.880   7.167   3.768 -0.4034  1.2298 -0.6990
45132SOL     OW42000   0.812   1.363  12.026 -0.3604  0.0756 -0.0543
45132SOL    HW142001   0.899   1.396  12.005 -0.7788  1.1309 -0.1548
45132SOL    HW242002   0.790   1.404  12.109 -1.7622  1.8222 -1.2014
45133SOL     OW42003   4.640   4.321   6.520 -0.0240 -0.0340  0.2871
45133SOL    HW142004   4.570   4.265   6.488 -1.3717  2.6178 -1.8417
45133SOL    HW242005   4.596   4.384   6.578  0.4933  1.6183 -1.0178
45134SOL     OW42006   9.250   9.806   8.978 -0.4663  0.6535  0.6556
45134SOL    HW142007   9.314   9.796   8.908 -0.3452 -0.0014  0.8568
45134SOL    HW242008   9.182   9.742   8.957 -0.0478 -0.1099  1.5511
45135SOL     OW42009   5.783   6.040  11.211 -0.2832 -0.4132  0.0522
45135SOL    HW142010   5.732   6.093  11.151 -0.1805  0.4267  0.6951
45135SOL    HW242011   5.864   6.021  11.164  0.5985  1.7850  0.5610
45136SOL     OW42012   2.674   0.562   2.529  0.1179 -0.3110 -0.2410
45136SOL    HW142013   2.673   0.642   2.580  1.3580 -0.0796 -0.5482
45136SOL    HW242014   2.761   0.524   2.545 -0.8060 -2.1264  0.7044
45137SOL     OW42015   4.069  11.692   5.619  0.0824 -0.0173  0.1835
45137SOL    HW142016   4.000  11.721   5.679  0.4066 -1.0068  1.0822
45137SOL    HW242017   4.032  11.615   5.577 -0.3895  1.0483 -1.4057
45138SOL     OW42018   3.325  10.908   0.880 -0.7592 -0.0876  0.0585
45138SOL    HW142019   3.362  10.873   0.961 -1.4559 -3.2974 -0.9026
45138SOL    HW242020   3.371  10.861   0.810 -2.7135 -0.1021 -1.2931
45139SOL     OW42021  10.343   9.070   7.426  0.3732  0.2775 -0.4586
45139SOL    HW142022  10.295   9.057   7.508  0.3673  1.6216 -0.2233
45139SOL    HW242023  10.387   8.987   7.410 -0.4241 -0.3241  0.3794
45140SOL     OW42024   2.463   6.048   0.642  0.1069  0.3407  0.2278
45140SOL    HW142025   2.493   5.957   0.639  2.0095  0.9620 -1.2654
45140SOL    HW242026   2.402   6.055   0.569 -0.4860  0.1461  0.6933
45141SOL     OW42027   1.361   9.796   1.111  0.0725  0.3581  0.2486
45141SOL    HW142028   1.385   9.856   1.040  2.8883 -0.4239  0.4005
45141SOL    HW242029   1.338   9.715   1.067 -0.2517  0.4881  0.1740
45142SOL     OW42030   0.518   5.554  12.448  0.7094  0.0788  0.2515
45142SOL    HW142031   0.611   5.550  12.472  1.1043  0.1481 -1.1385
45142SOL    HW242032   0.515   5.514  12.361 -0.8691 -1.5853  1.0018
45143SOL     OW42033  10.589   8.982  10.789  0.0550 -1.0233 -0.1727
45143SOL    HW142034  10.569   8.967  10.882 -1.6496  0.9480 -0.1655
45143SOL    HW242035  10.609   8.894  10.756  0.6882 -1.7944  2.0259
45144SOL     OW42036  11.981   9.496  12.279  1.0207 -0.0725  0.0706
45144SOL    HW142037  11.898   9.543  12.284  0.8184 -0.3392 -0.7102
45144SOL    HW242038  12.017   9.519  12.193  1.5550 -0.2863  0.2314
45145SOL     OW42039   4.926   5.143   9.482 -0.1717 -0.1116  0.2387
45145SOL    HW142040   4.937   5.109   9.393 -1.2689 -1.5034  0.5953
45145SOL    HW242041   4.879   5.225   9.470  0.2059  0.0140 -0.4975
45146SOL     OW42042   7.127   7.550  11.827  0.4420 -0.0412 -0.2296
45146SOL    HW142043   7.161   7.639  11.835 -0.3038  0.2734 -0.4418
45146SOL    HW242044   7.166   7.503  11.901  0.6879  0.5142  0.0038
45147SOL     OW42045   4.118   4.899   4.291 -0.9646  0.5525 -0.1024
45147SOL    HW142046   4.084   4.836   4.227  0.6471 -1.1316  0.6387
45147SOL    HW242047   4.104   4.857   4.376  2.5884 -0.1434  0.2655
45148SOL     OW42048   9.638   8.702   5.583  0.5458  0.0182  0.4879
45148SOL    HW142049   9.579   8.724   5.510  1.7578  0.6640 -0.3199
45148SOL    HW242050   9.690   8.629   5.550  0.8604  0.0787  0.8513
45149SOL     OW42051   7.070   4.902   0.103  0.1231  0.0672  0.4728
45149SOL    HW142052   7.149   4.907   0.050  0.6633 -1.1336  1.1307
45149SOL    HW242053   7.063   4.809   0.128 -1.8775 -0.0093 -0.1567
45150SOL     OW42054   2.473   7.230   4.559 -0.9513  0.0506 -0.0909
45150SOL    HW142055   2.467   7.281   4.478  0.3099  0.7704  0.2530
45150SOL    HW242056   2.382   7.225   4.590 -1.2656  1.0251 -0.7835
45151SOL     OW42057   3.512   2.224   5.267  0.1525 -0.4263  0.5325
45151SOL    HW142058   3.553   2.138   5.252  1.1840  0.0822  0.3156
45151SOL    HW242059   3.475   2.247   5.182  1.2990  0.0527  0.1410
45152SOL     OW42060   4.856  12.387   7.553 -0.3454 -0.3132  0.0267
45152SOL    HW142061   4.769  12.392   7.593 -0.9419  0.0128 -1.2563
45152SOL    HW242062   4.914  12.364   7.625 -1.7710 -2.6044  0.5396
45153SOL     OW42063  12.661   5.278   5.411 -0.0482 -0.0518 -0.2870
45153SOL    HW142064  12.674   5.185   5.396  0.6575  0.1850 -1.2281
45153SOL    HW242065  12.615   5.283   5.495  2.0487 -1.1557  1.0127
45154SOL     OW42066   2.889   4.584   4.078 -0.4075  0.3275  0.1431
45154SOL    HW142067   2.925   4.671   4.059 -1.7944  0.4819 -2.2269
45154SOL    HW242068   2.888   4.540   3.993  0.4503 -2.1444  1.3157
45155SOL     OW42069   5.568   0.100   9.239 -0.2108  0.5253  0.2613
45155SOL    HW142070   5.592   0.011   9.215  0.9635  0.5666  1.1934
45155SOL    HW242071   5.633   0.155   9.197 -0.8718  0.9481 -0.2307
45156SOL     OW42072  10.444   6.607  10.841  0.3083 -0.0178  0.5631
45156SOL    HW142073  10.407   6.638  10.924 -1.6062 -0.8796  0.0986
45156SOL    HW242074  10.401   6.523  10.826  0.0777  0.4295 -1.6230
45157SOL     OW42075  12.764   2.241   2.045 -0.2215 -0.4032 -0.7355
45157SOL    HW142076  12.680   2.240   2.001 -0.6838 -0.9659  0.1381
45157SOL    HW242077  12.795   2.150   2.042 -0.2400 -0.4463  0.0357
45158SOL     OW42078   6.592   6.302   7.931 -0.1357 -0.2838 -0.1689
45158SOL    HW142079   6.513   6.249   7.942 -0.7285  0.2315 -1.6871
45158SOL    HW242080   6.664   6.239   7.937 -0.7909 -1.1650 -1.1952
45159SOL     OW42081   7.990   3.817   1.478  0.4699 -0.1454  0.0042
45159SOL    HW142082   7.933   3.760   1.426 -0.9407  2.6353 -1.7207
45159SOL    HW242083   7.939   3.838   1.556 -0.6445  1.6263 -1.1234
45160SOL     OW42084  10.112  11.242  11.466  0.0560  0.6250  0.4494
45160SOL    HW142085  10.148  11.249  11.377 -1.1523  1.0797 -0.0240
45160SOL    HW242086  10.123  11.330  11.503  3.0449 -0.1808  1.8048
45161SOL     OW42087   0.322   4.601  11.169  0.0529 -0.4628 -0.0300
45161SOL    HW142088   0.360   4.565  11.249  0.1201 -0.3833 -0.0257
45161SOL    HW242089   0.322   4.696  11.183  0.1971 -0.4389 -0.1820
45162SOL     OW42090   0.536  12.741   0.227  0.1713  0.3078 -0.1464
45162SOL    HW142091   0.563  12.784   0.309  1.1812  2.1669 -1.3774
45162SOL    HW242092   0.446  12.769   0.214  0.2273  0.5601 -0.0015
45163SOL     OW42093   3.358   7.209  10.586  0.2081 -0.1458 -0.3643
45163SOL    HW142094   3.303   7.134  10.566 -0.0450  0.0437 -0.3904
45163SOL    HW242095   3.374   7.250  10.501  1.2539 -0.7833 -0.4943
45164SOL     OW42096  12.374   8.421   9.985  0.8439 -0.2127  0.0870
45164SOL    HW142097  12.344   8.334  10.011  0.9954 -0.2409  0.1690
45164SOL    HW242098  12.412   8.409   9.897  1.9052 -0.4579  0.5650
45165SOL     OW42099   0.783   4.066   5.150 -0.2392 -0.3294 -0.1345
45165SOL    HW142100   0.833   3.985   5.140 -0.7522 -0.8776  1.3780
45165SOL    HW242101   0.772   4.099   5.061  0.3965 -1.6668 -0.7348
45166SOL     OW42102   6.888  11.319   1.178  0.1496 -0.2919  0.1837
45166SOL    HW142103   6.879  11.337   1.085 -2.3475  0.6395  0.5256
45166SOL    HW242104   6.798  11.304   1.209  0.7306  0.7337  2.6632
45167SOL     OW42105   8.903   5.026  11.489 -0.0612  0.3304 -0.0160
45167SOL    HW142106   8.974   5.025  11.424  0.6805  0.0716  0.7764
45167SOL    HW242107   8.927   4.957  11.551 -1.8706 -0.9231 -0.6319
45168SOL     OW42108   9.467   8.095   4.898  0.0774  0.0775 -0.2100
45168SOL    HW142109   9.398   8.043   4.858  0.4949 -2.5098  2.1035
45168SOL    HW242110   9.547   8.069   4.853  0.1047 -0.2916  0.0485
45169SOL     OW42111  10.344  10.570  11.415  0.0823  0.4023 -0.2831
45169SOL    HW142112  10.399  10.627  11.362  1.0005  0.4021  0.6475
45169SOL    HW242113  10.357  10.483  11.377  0.5028  0.4495 -0.2507
45170SOL     OW42114   0.621   3.183   3.395  0.0474 -0.5587 -0.2075
45170SOL    HW142115   0.609   3.160   3.303 -0.2767  0.4979 -0.4427
45170SOL    HW242116   0.583   3.109   3.443 -1.1393 -0.4534 -0.9351
45171SOL     OW42117   3.831   8.408   8.227 -0.1896 -0.7941  0.1086
45171SOL    HW142118   3.799   8.479   8.172  1.0455  0.0218  0.4188
45171SOL    HW242119   3.879   8.351   8.166 -0.1711 -0.7326  0.0654
45172SOL     OW42120   8.705   2.172   6.792  0.2242  0.3295  0.3648
45172SOL    HW142121   8.653   2.251   6.772  1.8427  1.1756 -0.6749
45172SOL    HW242122   8.685   2.154   6.884 -0.1658  1.9695  0.6394
45173SOL     OW42123   2.903   4.585   0.733 -0.1500 -0.1853  0.0027
45173SOL    HW142124   2.855   4.652   0.684  0.6126  0.4462  0.1027
45173SOL    HW242125   2.960   4.635   0.792  1.9043 -0.8759 -1.3024
45174SOL     OW42126   7.461   3.583  12.099  0.3805 -0.2535 -0.5323
45174SOL    HW142127   7.367   3.573  12.114 -0.0995  1.6827 -1.9453
45174SOL    HW242128   7.467   3.631  12.017  2.6294 -0.5555 -0.5928
45175SOL     OW42129   0.356  11.403  12.266 -0.4024  0.0909 -0.4505
45175SOL    HW142130   0.389  11.492  12.259 -0.3078 -0.0556 -2.4681
45175SOL    HW242131   0.430  11.348  12.242 -0.8423 -0.4724 -0.5336
45176SOL     OW42132  11.722  12.574   9.437  0.4562  0.3092 -0.2432
45176SOL    HW142133  11.752  12.490   9.402  2.2711  1.2228 -0.9899
45176SOL    HW242134  11.647  12.551   9.493  1.4318 -1.8806  0.2683
45177SOL     OW42135   1.099  10.618   5.410  0.2491 -0.0288 -0.1924
45177SOL    HW142136   1.141  10.683   5.466  0.6916  0.1914 -0.7762
45177SOL    HW242137   1.054  10.669   5.343  3.4030 -0.2817 -2.7281
45178SOL     OW42138   7.076   6.784   5.225  0.5729  0.2395 -0.6720
45178SOL    HW142139   6.982   6.804   5.221  0.1602 -1.6626 -2.4937
45178SOL    HW242140   7.103   6.779   5.133  2.8907  2.3133 -0.2236
45179SOL     OW42141   3.802   6.955   8.103  0.3747  0.1407 -0.7500
45179SOL    HW142142   3.879   6.996   8.064  0.7379  0.6322  0.4319
45179SOL    HW242143   3.837   6.907   8.179 -0.2110 -1.3511 -1.3875
45180SOL     OW42144   9.192  11.441   4.432  0.2838  0.6859 -0.3523
45180SOL    HW142145   9.118  11.387   4.462 -0.2303  1.6635  0.2157
45180SOL    HW242146   9.234  11.389   4.364  1.4669 -1.6463  1.9552
45181SOL     OW42147   1.093   9.469   2.101 -0.3047  0.2509 -0.0986
45181SOL    HW142148   1.094   9.487   2.007  2.2701 -1.0048 -0.4079
45181SOL    HW242149   1.001   9.478   2.127 -1.1074  0.4329 -2.7546
45182SOL     OW42150  10.275   7.316   0.796  0.2607  0.6824 -0.0383
45182SOL    HW142151  10.248   7.263   0.871  2.0775  0.4871  0.5246
45182SOL    HW242152  10.366   7.340   0.815  1.5164 -1.0642 -3.0770
45183SOL     OW42153  12.327   5.845   1.274  0.3228  0.1278 -0.3506
45183SOL    HW142154  12.389   5.894   1.329  1.3400 -1.5650  0.0998
45183SOL    HW242155  12.294   5.776   1.332 -1.2592  0.3995 -0.8915
45184SOL     OW42156   0.680   8.755   0.466  0.4277  0.3416 -0.0119
45184SOL    HW142157   0.670   8.790   0.377 -1.2317 -0.2589 -0.0966
45184SOL    HW242158   0.692   8.661   0.453 -2.1126 -0.1102  0.4256
45185SOL     OW42159   5.685   1.636   2.703  0.2784 -0.2954 -0.0336
45185SOL    HW142160   5.644   1.698   2.642  0.2992  0.2347  0.4793
45185SOL    HW242161   5.774   1.670   2.714  0.6904 -1.1196 -0.7030
45186SOL     OW42162   4.898   9.136   6.234  0.0693  0.4027  0.7612
45186SOL    HW142163   4.961   9.186   6.183  0.8610 -0.2914  1.0331
45186SOL    HW242164   4.833   9.200   6.262 -0.1760  0.8601 -0.7845
45187SOL     OW42165   7.477  11.021   6.344  0.6483  0.0921 -0.2458
45187SOL    HW142166   7.552  11.078   6.364  1.4553 -0.5177 -1.3873
45187SOL    HW242167   7.516  10.935   6.330 -0.4807 -0.6116  0.8122
45188SOL     OW42168   5.928   8.138  11.813 -0.2894  0.2307  0.0912
45188SOL    HW142169   5.917   8.053  11.769  0.5347 -0.4058  1.0517
45188SOL    HW242170   5.932   8.201  11.742  0.7337 -0.7359 -0.7604
45189SOL     OW42171   4.104   4.472  12.060 -0.9851 -0.4580  0.4905
45189SOL    HW142172   4.088   4.390  12.107 -2.0444  0.4224  1.7364
45189SOL    HW242173   4.020   4.518  12.061 -0.8007  0.0163 -1.5192
45190SOL     OW42174  12.433   1.275   3.594 -1.1471 -0.3484 -0.0906
45190SOL    HW142175  12.513   1.317   3.563 -0.8032 -0.6320  0.3887
45190SOL    HW242176  12.406   1.328   3.670 -1.2204 -0.4561 -0.0411
45191SOL     OW42177  12.083   2.090   0.358 -0.3844  0.0623 -0.0369
45191SOL    HW142178  12.095   2.143   0.279  0.1544 -0.6464 -0.4455
45191SOL    HW242179  12.105   2.001   0.330 -1.3467 -0.3945  0.6186
45192SOL     OW42180  11.235  10.917  10.895 -0.0061 -0.2354  0.2535
45192SOL    HW142181  11.271  10.921  10.807  1.3494 -0.2471  0.7848
45192SOL    HW242182  11.220  10.823  10.911  1.1820 -0.3825  0.5761
45193SOL     OW42183   6.959   5.928   4.071 -0.1444  0.2528 -0.5680
45193SOL    HW142184   6.978   5.880   4.151 -0.8596  1.7501  0.5649
45193SOL    HW242185   6.921   6.011   4.101 -0.5343  0.8254 -2.4605
45194SOL     OW42186   6.558   9.302   2.983 -0.3672  0.2803  0.3874
45194SOL    HW142187   6.469   9.267   2.989 -0.2474  0.0701  1.0266
45194SOL    HW242188   6.553   9.368   2.914 -0.7442 -0.5349 -0.3792
45195SOL     OW42189   4.335   2.740   9.512  0.7378 -0.6221 -0.3827
45195SOL    HW142190   4.257   2.687   9.493  0.5679 -1.1642  1.5586
45195SOL    HW242191   4.301   2.828   9.527  0.6803 -0.5461 -0.9530
45196SOL     OW42192   2.653   8.137   9.728 -0.0275  0.1342 -0.2392
45196SOL    HW142193   2.742   8.157   9.698 -0.0184 -1.4804 -1.4357
45196SOL    HW242194   2.665   8.073   9.798 -0.1981  1.2396  0.8209
45197SOL     OW42195   5.181   3.276   1.515 -0.5753  0.1072 -0.1978
45197SOL    HW142196   5.107   3.336   1.520 -0.0278  0.7511  3.7320
45197SOL    HW242197   5.244   3.320   1.458 -1.8625  1.1582 -0.8645
45198SOL     OW42198  10.511   2.224   8.045 -0.0775 -0.3837 -0.0694
45198SOL    HW142199  10.468   2.229   7.960  0.1560 -1.9204 -0.3047
45198SOL    HW242200  10.604   2.215   8.024 -0.0145 -0.7154  0.3593
45199SOL     OW42201   5.502   2.062   7.928  0.3339  0.1928  0.7064
45199SOL    HW142202   5.464   2.024   7.849 -0.9520  0.0171  1.3840
45199SOL    HW242203   5.570   2.122   7.896 -0.5840  0.5969 -0.5619
45200SOL     OW42204   6.623   7.651   5.263  0.0089 -0.0477  0.1119
45200SOL    HW142205   6.611   7.656   5.169  0.7279 -0.2391  0.0051
45200SOL    HW242206   6.655   7.563   5.280 -0.7182 -0.2278  0.6125
45201SOL     OW42207   5.978   1.279   9.053  0.1799 -0.0768  0.0159
45201SOL    HW142208   5.975   1.187   9.079  0.9383  0.2225  1.2419
45201SOL    HW242209   5.889   1.311   9.070 -0.4525 -0.8591 -1.6015
45202SOL     OW42210  12.656   8.048   5.085  0.0416  0.1212  0.5736
45202SOL    HW142211  12.654   8.018   5.176  0.3969 -4.0988 -0.6089
45202SOL    HW242212  12.575   8.098   5.075 -0.9884 -0.9647  2.7469
45203SOL     OW42213   3.910   9.542   5.248 -0.2588  0.8272  0.6714
45203SOL    HW142214   3.894   9.617   5.305 -3.0521  0.7537  0.1182
45203SOL    HW242215   3.907   9.466   5.307  0.7965  0.9856  0.9578
45204SOL     OW42216   8.202   7.308   7.751 -0.0611  0.5979  0.5424
45204SOL    HW142217   8.238   7.219   7.740  1.0836  0.8843  1.7677
45204SOL    HW242218   8.210   7.347   7.664  0.3217 -0.1928  0.2090
45205SOL     OW42219   2.335   9.447   1.427  0.3114  0.0715 -0.0624
45205SOL    HW142220   2.314   9.492   1.509  0.1136 -2.0759  1.1182
45205SOL    HW242221   2.426   9.471   1.409 -0.2042  2.0801 -0.2998
45206SOL     OW42222   4.011   7.949   9.098 -0.3150  0.4314 -0.0730
45206SOL    HW142223   4.001   7.885   9.026 -0.8364  1.2738 -0.7638
45206SOL    HW242224   3.930   7.999   9.097  0.8998  2.4702 -0.9009
45207SOL     OW42225  10.458   4.958   3.296  0.1302 -0.0978  0.2270
45207SOL    HW142226  10.537   4.993   3.255  0.4090  1.1095  1.7040
45207SOL    HW242227  10.393   4.960   3.227  1.0526  0.1305 -0.6634
45208SOL     OW42228   5.329   3.280   4.885  0.0069 -0.1990  0.2362
45208SOL    HW142229   5.386   3.298   4.809 -0.9760  0.3779 -0.3946
45208SOL    HW242230   5.310   3.367   4.921  1.6972 -0.5542  2.1101
45209SOL     OW42231   3.247   2.216   7.534 -0.3430 -0.0983 -0.6027
45209SOL    HW142232   3.219   2.128   7.509 -0.4962 -0.8330  1.9769
45209SOL    HW242233   3.306   2.203   7.608 -1.0863  2.0108  0.4414
45210SOL     OW42234   6.771  10.906   0.588 -0.4931 -0.7106  0.1675
45210SOL    HW142235   6.714  10.830   0.599 -2.4365  0.1781 -2.7261
45210SOL    HW242236   6.750  10.940   0.501 -0.0994  3.4708  1.4740
45211SOL     OW42237   3.304   0.131   3.720  0.0132  0.0769 -0.1247
45211SOL    HW142238   3.286   0.072   3.648  1.0076 -0.9072  0.4009
45211SOL    HW242239   3.350   0.205   3.679  0.0060 -0.1729 -0.5933
45212SOL     OW42240   7.073   5.822  10.035 -0.0814  0.2798 -0.5417
45212SOL    HW142241   7.074   5.863   9.948  0.2274  0.6709 -0.3557
45212SOL    HW242242   7.165   5.811  10.058 -0.1587  0.4374 -0.1435
45213SOL     OW42243   6.970  11.062  12.630 -0.2204  0.0151  0.3014
45213SOL    HW142244   6.937  10.978  12.598  2.2314 -1.0441  0.3340
45213SOL    HW242245   6.955  11.123  12.558 -0.9689 -0.7376 -0.1923
45214SOL     OW42246  12.642   2.976   6.816 -0.1419  0.3847  0.0058
45214SOL    HW142247  12.637   2.880   6.810  0.5478  0.3544 -0.1484
45214SOL    HW242248  12.723   2.992   6.865  1.5244  0.9516 -2.7199
45215SOL     OW42249   6.478   2.004   4.023  0.3313 -0.3015  0.2523
45215SOL    HW142250   6.516   2.048   4.099  0.9929  1.0481 -0.8179
45215SOL    HW242251   6.408   2.062   3.993  1.5870  0.3814 -1.5254
45216SOL     OW42252   4.869   6.930   3.967  0.3306 -0.2654  1.0000
45216SOL    HW142253   4.935   6.982   4.012 -0.1609  0.9822  0.3318
45216SOL    HW242254   4.854   6.976   3.884 -0.3162 -1.3306  0.4995
45217SOL     OW42255  11.077   1.394   8.383  0.0451 -0.3198  0.2903
45217SOL    HW142256  11.162   1.379   8.340 -0.1697 -1.3796  0.1993
45217SOL    HW242257  11.070   1.324   8.447 -0.9785 -0.5470 -0.0453
45218SOL     OW42258  12.673   2.912   5.737  0.7495 -0.1318  0.0072
45218SOL    HW142259  12.579   2.898   5.750  0.5976  1.1496  0.4331
45218SOL    HW242260  12.707   2.826   5.714 -0.5980 -0.5418 -0.5695
45219SOL     OW42261   6.475   9.528   9.837  0.0460 -0.3554 -0.0417
45219SOL    HW142262   6.538   9.514   9.908  0.8120 -1.5702 -0.9244
45219SOL    HW242263   6.517   9.489   9.760 -0.1561  2.1004 -1.4928
45220SOL     OW42264   3.568   2.550   4.678 -0.2007  0.1133 -0.4677
45220SOL    HW142265   3.497   2.614   4.682 -1.2754 -0.9423 -1.5826
45220SOL    HW242266   3.616   2.563   4.759 -1.3394  1.2463  0.0698
45221SOL     OW42267   3.646   5.473   1.107  0.0730  0.1629  0.1327
45221SOL    HW142268   3.691   5.525   1.174  1.1780  0.8536 -1.0822
45221SOL    HW242269   3.716   5.425   1.063 -0.0356  2.4333 -2.8319
45222SOL     OW42270  10.389  12.737   5.060  0.0356  0.2170  0.1888
45222SOL    HW142271  10.333  12.671   5.020  1.8334 -1.1728 -0.1610
45222SOL    HW242272  10.470  12.733   5.009  1.4602  0.2197  2.3530
45223SOL     OW42273   2.418   1.851  12.119 -0.1503  0.5496 -0.6976
45223SOL    HW142274   2.420   1.884  12.029 -0.1787  1.7951 -0.2588
45223SOL    HW242275   2.328   1.819  12.131 -0.5956  1.7787 -0.6446
45224SOL     OW42276   2.727   1.836  11.726  0.3074 -0.4259  0.5713
45224SOL    HW142277   2.634   1.821  11.710  0.3278 -1.2763  1.1585
45224SOL    HW242278   2.730   1.875  11.814  0.4144  1.1053 -0.0773
45225SOL     OW42279   4.537   5.522   5.625 -0.2873 -0.5868  0.3559
45225SOL    HW142280   4.495   5.604   5.601 -0.6426 -0.6191  0.8439
45225SOL    HW242281   4.475   5.454   5.599  0.4742 -0.7718 -1.0394
45226SOL     OW42282  11.110   8.511  10.522 -0.1126 -0.0901  0.3922
45226SOL    HW142283  11.157   8.430  10.541  0.0472 -0.2506 -0.6328
45226SOL    HW242284  11.097   8.552  10.607  0.6257 -0.7482  0.8314
45227SOL     OW42285  12.658   7.683   8.777  0.1854 -0.2716  0.7008
45227SOL    HW142286  12.733   7.673   8.718 -0.4889 -0.4794 -0.1363
45227SOL    HW242287  12.583   7.697   8.719 -0.2393  1.2330  1.5782
45228SOL     OW42288   8.985   1.868   0.283  0.0572  0.1964 -0.0866
45228SOL    HW142289   9.027   1.949   0.256 -0.0469  0.5518  0.7854
45228SOL    HW242290   8.931   1.843   0.208  0.6050  0.5666 -0.6140
45229SOL     OW42291   7.300  12.382   9.774  0.5421 -0.7305  0.0821
45229SOL    HW142292   7.320  12.451   9.838  0.5465  0.0730 -0.7723
45229SOL    HW242293   7.260  12.312   9.826  0.3712 -0.0146  0.9335
45230SOL     OW42294   6.215   9.455   9.970  0.1074  0.2264 -0.4043
45230SOL    HW142295   6.288   9.481   9.914  1.0004  0.3405  0.7755
45230SOL    HW242296   6.138   9.463   9.914  0.8535  1.2380 -1.3299
45231SOL     OW42297   5.591  11.245   2.587  0.7335  0.1749 -0.4456
45231SOL    HW142298   5.657  11.297   2.632  1.2267  0.0009 -0.9655
45231SOL    HW242299   5.516  11.305   2.578 -0.0477 -0.2913  2.1164
45232SOL     OW42300   8.860   8.670   5.557  0.1012 -0.0619 -0.1093
45232SOL    HW142301   8.868   8.745   5.498  0.8911  1.0899  1.3811
45232SOL    HW242302   8.937   8.616   5.539  0.3178  0.2653 -0.1769
45233SOL     OW42303  11.657   2.704   8.580  0.2931  0.2846 -0.1972
45233SOL    HW142304  11.705   2.621   8.580  1.0068  0.6764  0.8533
45233SOL    HW242305  11.721   2.769   8.606 -0.8362  0.7858  1.5305
45234SOL     OW42306  10.765   1.009   8.854  0.2799  0.1483  0.6490
45234SOL    HW142307  10.673   1.002   8.828  0.9397  0.4560 -1.9716
45234SOL    HW242308  10.788   1.100   8.837  0.8882  0.2948  2.0961
45235SOL     OW42309   9.661   0.616   1.070  1.4660  0.2299 -0.6526
45235SOL    HW142310   9.645   0.550   1.138  4.1914 -0.2425 -0.3609
45235SOL    HW242311   9.669   0.565   0.989  0.5406  0.5703 -0.9817
45236SOL     OW42312   6.509   0.883   7.638  0.5204 -0.5641 -0.7478
45236SOL    HW142313   6.583   0.935   7.670  1.4739 -2.0703 -0.3842
45236SOL    HW242314   6.446   0.948   7.605  2.1379  0.7570 -1.3985
45237SOL     OW42315   6.783   0.043   4.244 -0.6810  0.0700  0.3222
45237SOL    HW142316   6.785   0.114   4.180 -0.3934  0.3508  0.6323
45237SOL    HW242317   6.865  -0.003   4.231 -1.1781 -0.6497 -0.3559
45238SOL     OW42318  11.885   9.075   9.827  0.0955  0.1808  0.0841
45238SOL    HW142319  11.908   9.168   9.826 -0.5962  0.3554  0.2309
45238SOL    HW242320  11.942   9.036   9.761 -0.5696  0.9329 -0.9601
45239SOL     OW42321   2.164   5.010   0.004 -0.3678  0.2981  0.4478
45239SOL    HW142322   2.249   5.007   0.047  0.4100  0.6002 -1.0173
45239SOL    HW242323   2.176   5.068  -0.071 -1.1264 -1.6056 -1.2733
45240SOL     OW42324   7.192  11.877   2.653 -0.1020 -0.6217  0.1965
45240SOL    HW142325   7.258  11.815   2.686  0.2572  0.2063  1.0809
45240SOL    HW242326   7.216  11.890   2.561 -0.0023 -1.5576  0.0757
45241SOL     OW42327  10.197   6.070   3.518  0.6482  0.0078  1.0767
45241SOL    HW142328  10.219   6.160   3.542 -1.3427  1.2274 -1.2537
45241SOL    HW242329  10.242   6.056   3.434 -0.1736 -0.6394  0.7318
45242SOL     OW42330   4.191   6.527   4.984  0.3695  0.2198 -0.5025
45242SOL    HW142331   4.192   6.543   4.890 -1.7009 -0.0439 -0.6105
45242SOL    HW242332   4.262   6.581   5.019  1.1509  0.3353 -2.1946
45243SOL     OW42333   2.478   7.352   8.683  0.6097  0.2047  0.3026
45243SOL    HW142334   2.447   7.409   8.753 -3.1455 -1.0808 -0.1245
45243SOL    HW242335   2.501   7.412   8.612 -0.4724  1.3383  0.8729
45244SOL     OW42336   6.830   4.344   6.652  0.1034 -0.5975 -0.9093
45244SOL    HW142337   6.769   4.324   6.723  0.3976 -0.7119 -0.6924
45244SOL    HW242338   6.793   4.423   6.611 -0.2539 -0.7324 -0.8530
45245SOL     OW42339   2.074   6.640   3.033 -0.5740  0.1058  0.4841
45245SOL    HW142340   2.077   6.547   3.054 -0.9241  0.7113  3.6660
45245SOL    HW242341   2.166   6.668   3.034 -0.4173 -0.2459 -1.0426
45246SOL     OW42342   1.659   5.847   6.945  0.1617 -0.5778 -0.1675
45246SOL    HW142343   1.704   5.765   6.964  0.5503 -0.2740  0.2442
45246SOL    HW242344   1.592   5.823   6.881  0.2418 -1.2196 -0.0179
45247SOL     OW42345   2.741  12.742   0.685  0.3392 -0.0586  0.6796
45247SOL    HW142346   2.687  12.746   0.606  0.7706  1.8835  0.4313
45247SOL    HW242347   2.829  12.721   0.653  0.4333  0.3297  0.6777
45248SOL     OW42348   0.411   8.816  10.128 -0.5987 -0.3876  0.3951
45248SOL    HW142349   0.334   8.759  10.131 -0.9131  0.0130  0.0546
45248SOL    HW242350   0.461   8.785  10.053 -0.3287 -0.7620  0.7215
45249SOL     OW42351   4.852   5.248   8.479  0.2336  0.4579  0.4159
45249SOL    HW142352   4.852   5.333   8.524  1.9247  0.0419  1.2788
45249SOL    HW242353   4.926   5.253   8.418  0.0816 -0.2525  0.1621
45250SOL     OW42354   0.036   4.546  12.745 -0.3075  0.1419 -0.3768
45250SOL    HW142355   0.005   4.515  12.830  0.0170  1.3262  0.1953
45250SOL    HW242356  -0.043   4.576  12.700 -0.4909 -0.5662 -0.5346
45251SOL     OW42357  12.197   1.985   1.323 -0.0177  0.1126  0.4179
45251SOL    HW142358  12.257   1.970   1.250  1.6994  0.4269  1.7162
45251SOL    HW242359  12.208   2.078   1.345  0.3085 -0.2274  1.7681
45252SOL     OW42360   2.684   3.956   2.571 -0.1430  0.2859  0.8306
45252SOL    HW142361   2.701   4.002   2.653 -0.3465 -0.0571  1.0672
45252SOL    HW242362   2.615   4.007   2.529 -0.6327 -0.0137  1.2674
45253SOL     OW42363   3.253  11.713   2.715  0.3631 -0.1387  0.7216
45253SOL    HW142364   3.251  11.633   2.767  1.0175 -0.4292  0.3055
45253SOL    HW242365   3.309  11.773   2.765  0.4408 -0.1860  0.6923
45254SOL     OW42366  11.631  10.950  12.769  0.1219  0.2569 -0.2636
45254SOL    HW142367  11.570  10.995  12.828 -0.9890 -1.1279 -0.2943
45254SOL    HW242368  11.605  10.858  12.774  2.0868 -0.3552 -0.4699
45255SOL     OW42369   0.098   2.952  11.408 -0.6000  0.0310  0.1600
45255SOL    HW142370   0.030   2.907  11.358 -0.8007  2.4556 -1.9577
45255SOL    HW242371   0.055   3.031  11.441  0.4693  0.1898  1.2372
45256SOL     OW42372   8.184   8.044   1.950 -0.4016 -0.3823  0.1924
45256SOL    HW142373   8.099   8.086   1.934 -0.3227  0.4735  1.8303
45256SOL    HW242374   8.163   7.960   1.990 -0.4935  0.2322  1.4855
45257SOL     OW42375  10.954   5.583  10.477 -0.0843 -0.8801  0.2633
45257SOL    HW142376  10.991   5.495  10.465 -1.0997 -1.2982  0.0932
45257SOL    HW242377  10.888   5.590  10.409  0.7071  0.4419 -0.3946
45258SOL     OW42378   0.184   9.348   7.045  0.0785  0.5306 -0.3303
45258SOL    HW142379   0.154   9.349   6.954  0.7736 -1.1227 -0.6053
45258SOL    HW242380   0.176   9.439   7.074 -1.5512  0.8108 -1.5627
45259SOL     OW42381   4.019  10.908   5.175  0.1846 -0.3870  0.2419
45259SOL    HW142382   3.997  10.892   5.084 -0.2453  0.3693  0.1971
45259SOL    HW242383   4.109  10.940   5.173  0.6485 -1.6760  0.2279
45260SOL     OW42384   2.199   6.599  10.593  0.1303  0.3055  0.1639
45260SOL    HW142385   2.251   6.525  10.624  0.6398  0.3977 -0.4512
45260SOL    HW242386   2.138   6.617  10.665 -1.1945 -1.8056 -0.3389
45261SOL     OW42387   2.478   1.280   2.015  0.1532  0.1441 -0.2100
45261SOL    HW142388   2.452   1.223   2.087  0.7741  0.7146  0.4780
45261SOL    HW242389   2.518   1.355   2.057  2.2313 -0.3540 -1.1917
45262SOL     OW42390   8.111  11.407  10.546  0.1335 -0.0178  0.0659
45262SOL    HW142391   8.205  11.389  10.546 -0.1347 -2.0520 -2.6303
45262SOL    HW242392   8.104  11.502  10.556  2.4998  0.2363 -0.2613
45263SOL     OW42393   8.940   0.433   3.874 -0.8832  0.1134 -0.3180
45263SOL    HW142394   8.950   0.437   3.969  0.4496  1.2172 -0.4655
45263SOL    HW242395   9.029   0.417   3.841 -1.2297  0.3243 -1.4067
45264SOL     OW42396   3.577   4.443   7.458 -0.4699  0.0685  0.2022
45264SOL    HW142397   3.552   4.533   7.442 -1.7117 -0.5656 -1.7131
45264SOL    HW242398   3.662   4.432   7.415 -1.7961 -0.4631 -2.4726
45265SOL     OW42399   1.428   5.724  11.443  0.4480  0.3875 -0.2891
45265SOL    HW142400   1.477   5.644  11.463  1.9785  1.3658  0.1326
45265SOL    HW242401   1.337   5.702  11.459  0.8359 -1.2858 -0.2442
45266SOL     OW42402   8.091   5.719   5.489  0.1345 -1.1847 -0.5853
45266SOL    HW142403   8.005   5.757   5.508  0.5383  0.5439 -1.9732
45266SOL    HW242404   8.094   5.714   5.393  2.1161  0.1863 -0.6463
45267SOL     OW42405   5.927  11.911   2.216 -0.0602 -0.1163 -0.1018
45267SOL    HW142406   5.848  11.896   2.164 -0.2843 -2.5272  0.8217
45267SOL    HW242407   5.952  12.002   2.196 -0.8440 -0.4896 -3.4221
45268SOL     OW42408   4.719   5.762   1.973  0.1890  0.4324  0.5922
45268SOL    HW142409   4.757   5.847   1.994 -0.3902  0.8068  0.1537
45268SOL    HW242410   4.685   5.772   1.884 -1.9402  0.4743  1.3530
45269SOL     OW42411  10.030  11.738   9.163 -0.0064  0.6231  0.1842
45269SOL    HW142412  10.084  11.705   9.090 -1.0517  0.6873 -0.6427
45269SOL    HW242413   9.959  11.675   9.171  0.6688  0.0285  1.8957
45270SOL     OW42414   3.982  10.382   3.311 -0.2186 -0.3636  0.1308
45270SOL    HW142415   3.949  10.460   3.266  1.6016  1.5635  1.9388
45270SOL    HW242416   3.905  10.346   3.356 -0.7366  1.5660  0.8716
45271SOL     OW42417   6.417   7.312  11.119  0.4969  0.5349  0.4962
45271SOL    HW142418   6.472   7.257  11.176  0.3442  0.0600  0.1940
45271SOL    HW242419   6.476   7.380  11.087  1.2681 -0.7233 -0.8728
45272SOL     OW42420   6.161   9.335  11.308 -0.1766  0.2061 -0.0274
45272SOL    HW142421   6.173   9.409  11.367 -1.4254  1.0840 -0.8340
45272SOL    HW242422   6.066   9.329  11.295 -0.4664 -3.3758  2.3150
45273SOL     OW42423   5.428  10.421  10.125 -0.2389 -0.2222 -0.1140
45273SOL    HW142424   5.423  10.347  10.064 -1.4628 -0.3820  0.1464
45273SOL    HW242425   5.479  10.387  10.199  2.4054  0.3867 -1.5569
45274SOL     OW42426   4.191   0.141   3.683  0.1940  0.1368 -0.1560
45274SOL    HW142427   4.229   0.169   3.767 -1.1759  0.5163  0.3701
45274SOL    HW242428   4.252   0.173   3.617  0.2027  1.7699  0.5947
45275SOL     OW42429  11.583   9.432   3.282  0.1785 -0.6966  0.0810
45275SOL    HW142430  11.629   9.393   3.356  0.2884  0.7312  0.8079
45275SOL    HW242431  11.558   9.519   3.313  1.1164  0.3377 -1.8812
45276SOL     OW42432   1.317   7.753  10.157  0.1123 -0.7480 -0.3947
45276SOL    HW142433   1.256   7.801  10.101 -0.7344 -0.5317  0.6848
45276SOL    HW242434   1.378   7.711  10.096  0.0851  0.6312 -1.4116
45277SOL     OW42435   7.231   8.257   8.409 -0.1949 -0.3739  0.0855
45277SOL    HW142436   7.285   8.201   8.465  1.5976  1.8500  0.7388
45277SOL    HW242437   7.157   8.282   8.464  1.7139  2.0596  1.7740
45278SOL     OW42438   4.432   3.808   5.425  0.1290 -0.3978 -0.0864
45278SOL    HW142439   4.421   3.823   5.331 -0.3080  0.7398  0.1309
45278SOL    HW242440   4.347   3.832   5.463  0.2679 -0.9512  0.5892
45279SOL     OW42441   6.342   8.164  10.436 -0.1568 -0.1640 -0.4403
45279SOL    HW142442   6.408   8.139  10.500  0.8769  0.5505 -1.1845
45279SOL    HW242443   6.382   8.141  10.351 -0.9001  0.1895 -0.8939
45280SOL     OW42444   2.253   2.986   3.435  0.0371 -0.5391  0.4081
45280SOL    HW142445   2.311   2.932   3.490 -0.8379  0.3563  2.3148
45280SOL    HW242446   2.255   3.072   3.476 -1.3226 -0.0484 -0.4963
45281SOL     OW42447   4.740   5.226   9.958 -0.2122 -0.0310 -0.1470
45281SOL    HW142448   4.757   5.137   9.989 -0.3870 -0.9287 -2.4328
45281SOL    HW242449   4.816   5.277   9.987 -0.1200 -0.8898  1.1965
45282SOL     OW42450   8.472  12.313   2.140 -0.3989  0.2034  0.2646
45282SOL    HW142451   8.414  12.299   2.065  0.4191 -0.4625 -0.2759
45282SOL    HW242452   8.518  12.229   2.149 -1.1190 -0.0272  2.0828
45283SOL     OW42453   2.271   2.123   1.652  0.2814  0.1134  0.1877
45283SOL    HW142454   2.294   2.209   1.615 -0.7629 -0.0831 -0.9914
45283SOL    HW242455   2.293   2.062   1.582 -1.1222 -0.3473  0.1315
45284SOL     OW42456   1.399   9.704   3.784  0.0755  0.0946  0.6029
45284SOL    HW142457   1.338   9.653   3.730  0.5182 -1.4747  1.5237
45284SOL    HW242458   1.361   9.701   3.872  0.1900  1.2611  0.7045
45285SOL     OW42459   1.551  10.129   8.330  0.2286  0.4661 -0.3999
45285SOL    HW142460   1.611  10.164   8.265  2.4308  0.8942  1.7382
45285SOL    HW242461   1.502  10.061   8.282  2.2774  0.2030 -2.3115
45286SOL     OW42462   5.400   6.168   9.156  0.3868  0.1504  0.1140
45286SOL    HW142463   5.492   6.141   9.166  0.8730  0.8953 -1.8659
45286SOL    HW242464   5.352   6.087   9.146  1.0116 -0.1964 -0.1163
45287SOL     OW42465  11.928  12.743  11.401 -0.1472  0.2727 -0.0404
45287SOL    HW142466  12.022  12.757  11.389 -0.1670 -0.5189 -1.3440
45287SOL    HW242467  11.915  12.746  11.495  1.3957 -0.7810  0.2359
45288SOL     OW42468   4.225   9.373   7.833 -0.0096 -0.4271  0.1114
45288SOL    HW142469   4.304   9.332   7.799 -0.3505 -1.5356  0.6350
45288SOL    HW242470   4.165   9.376   7.758  0.4560  0.2733 -0.2452
45289SOL     OW42471   7.638  10.056   6.075 -0.1390  0.3232  0.0813
45289SOL    HW142472   7.726  10.022   6.093 -0.5826 -0.3339  1.0532
45289SOL    HW242473   7.598  10.066   6.162 -0.7362  1.4149 -0.3009
45290SOL     OW42474   4.559  10.394   0.825  0.0754 -0.6374  0.6703
45290SOL    HW142475   4.539  10.302   0.812  1.1392 -0.7550 -0.2008
45290SOL    HW242476   4.624  10.395   0.896  2.3510 -0.8389 -1.2932
45291SOL     OW42477   7.998   2.528   2.881  0.3386 -0.5605  0.1644
45291SOL    HW142478   7.972   2.458   2.821  0.8998  1.0041 -2.0201
45291SOL    HW242479   7.924   2.590   2.879  0.7708 -0.0327  0.3282
45292SOL     OW42480   5.235   3.475   9.692  0.6300  0.3417 -0.1897
45292SOL    HW142481   5.166   3.528   9.732  0.5722  0.4762 -0.4598
45292SOL    HW242482   5.194   3.391   9.672 -0.0538  1.0933 -2.2076
45293SOL     OW42483   9.608   2.767   3.695  0.0553  0.2242  0.1830
45293SOL    HW142484   9.643   2.839   3.747  2.2941 -1.1352  0.6763
45293SOL    HW242485   9.568   2.708   3.758 -2.2131  1.1476 -0.2630
45294SOL     OW42486   4.912   1.632   9.798  0.2726 -0.4676  0.4019
45294SOL    HW142487   4.959   1.679   9.866  0.3584 -0.2683  0.2063
45294SOL    HW242488   4.925   1.684   9.719  0.7909 -1.0873  0.0693
45295SOL     OW42489   7.922   4.833  11.186  0.4627 -1.0222 -0.6627
45295SOL    HW142490   8.012   4.824  11.217  1.3256 -2.0254 -3.2363
45295SOL    HW242491   7.876   4.757  11.223  0.6804 -0.5817  0.5474
45296SOL     OW42492   3.923   2.505  12.713  0.0192  0.4657 -0.4397
45296SOL    HW142493   3.959   2.421  12.686 -0.4198  1.1014 -3.3684
45296SOL    HW242494   3.845   2.483  12.765  0.7236 -0.8806  0.0968
45297SOL     OW42495   5.147   7.494   5.949 -0.0153  0.0025 -0.7934
45297SOL    HW142496   5.225   7.446   5.978 -1.1441 -1.3818  0.1000
45297SOL    HW242497   5.142   7.569   6.007  0.9344  0.4086 -1.2085
45298SOL     OW42498   6.354   2.989  11.790  0.4906 -0.2070 -0.1753
45298SOL    HW142499   6.422   2.987  11.722  1.1454 -0.1222  0.4684
45298SOL    HW242500   6.381   2.923  11.854 -0.2358 -0.4397 -0.0955
45299SOL     OW42501   2.605   9.891   7.893  0.0267 -0.3670  0.2482
45299SOL    HW142502   2.664   9.817   7.882  1.7898  1.0405 -0.3825
45299SOL    HW242503   2.661   9.968   7.879 -1.9919  1.0551 -0.4873
45300SOL     OW42504   6.071   4.708   4.323 -0.3511  0.0948  0.1550
45300SOL    HW142505   6.015   4.711   4.246 -1.9555 -0.9515  1.2132
45300SOL    HW242506   6.055   4.622   4.362 -0.1714  0.8478  2.0423
45301SOL     OW42507   5.401   8.189  10.737  0.1814  0.2326  0.4792
45301SOL    HW142508   5.355   8.111  10.707  2.1321 -0.5045 -0.7746
45301SOL    HW242509   5.493   8.165  10.735  0.7428  2.0970  1.5445
45302SOL     OW42510   7.254  10.079   6.648  0.4365  0.7178 -0.0651
45302SOL    HW142511   7.345  10.098   6.629  0.6321 -0.2492 -0.1462
45302SOL    HW242512   7.216  10.163   6.673  1.4224  1.0671  0.2753
45303SOL     OW42513  11.557   3.586   3.502 -0.2253 -0.2966  0.3455
45303SOL    HW142514  11.561   3.502   3.455  0.6982  0.1760 -0.4516
45303SOL    HW242515  11.465   3.596   3.525 -0.2604 -1.8053  0.9575
45304SOL     OW42516   7.147   7.712   4.554  0.1145  0.2317 -0.0227
45304SOL    HW142517   7.119   7.741   4.467  1.8642 -0.4629 -0.8794
45304SOL    HW242518   7.154   7.792   4.605 -0.3845  0.7118 -0.6858
45305SOL     OW42519  12.331   6.960  11.971  0.0498 -0.0549  0.3036
45305SOL    HW142520  12.376   7.017  12.034  0.6921  0.3118 -0.4705
45305SOL    HW242521  12.401   6.927  11.915 -0.6213  0.4229 -0.8491
45306SOL     OW42522   0.236   1.806  12.182 -0.2397 -0.6372 -0.3907
45306SOL    HW142523   0.160   1.817  12.241  0.3542  0.9276  0.1327
45306SOL    HW242524   0.311   1.829  12.236  0.3956  0.1159 -1.5700
45307SOL     OW42525   5.327   7.270  11.337 -0.7423 -0.0930 -0.0129
45307SOL    HW142526   5.395   7.275  11.270  0.1839 -0.6873  0.8675
45307SOL    HW242527   5.265   7.340  11.313 -1.5076 -1.5363 -2.6147
45308SOL     OW42528   7.094   1.778   2.906 -0.1462  0.7488  0.3969
45308SOL    HW142529   7.138   1.861   2.926 -1.8565  1.5190  1.1070
45308SOL    HW242530   7.073   1.741   2.991 -2.7207  1.4371  0.1268
45309SOL     OW42531  11.481   4.494   0.744 -0.3320  0.2030 -0.0665
45309SOL    HW142532  11.389   4.519   0.732 -0.0759  1.7178  0.8692
45309SOL    HW242533  11.516   4.489   0.655 -1.5746 -1.5851 -0.5166
45310SOL     OW42534  11.368   2.940  11.631  0.1207 -0.3138 -0.3732
45310SOL    HW142535  11.300   2.982  11.578  0.4536 -0.6125 -1.0483
45310SOL    HW242536  11.333   2.942  11.720 -0.5633 -0.0366 -0.6368
45311SOL     OW42537   9.590   4.227   8.741  0.1990  0.3165 -0.0372
45311SOL    HW142538   9.607   4.302   8.799 -0.4058 -0.2683  0.9398
45311SOL    HW242539   9.595   4.263   8.653 -0.0797  1.5119  0.4127
45312SOL     OW42540  10.160   0.363   9.282 -0.1309  0.3671 -0.0284
45312SOL    HW142541  10.238   0.372   9.227 -0.1648  2.4590  0.1853
45312SOL    HW242542  10.087   0.371   9.221 -0.1719  0.7188  0.0657
45313SOL     OW42543   4.746   0.705   3.296 -0.9032  0.5729 -0.0804
45313SOL    HW142544   4.819   0.650   3.324 -1.7153  0.1632  1.3428
45313SOL    HW242545   4.677   0.643   3.270 -0.6800  0.9509 -1.7259
45314SOL     OW42546   3.508   1.175   3.921  0.2675 -0.0452  0.2513
45314SOL    HW142547   3.557   1.243   3.874 -1.0313  1.2012  0.6222
45314SOL    HW242548   3.434   1.156   3.863  0.0669 -0.3946  0.6217
45315SOL     OW42549  10.210   5.654   0.195  0.3541 -0.3950  0.0239
45315SOL    HW142550  10.202   5.727   0.134  0.8343 -0.3177  0.0528
45315SOL    HW242551  10.243   5.693   0.276  0.2971 -0.5939  0.1463
45316SOL     OW42552   9.115   7.973   1.999 -0.2406  0.3373 -0.2854
45316SOL    HW142553   9.132   7.986   1.906  3.2023 -2.0724 -0.1864
45316SOL    HW242554   9.105   7.878   2.008  1.2675  0.3130  1.9484
45317SOL     OW42555   6.233   3.791  10.020 -0.0850  0.3241  0.1591
45317SOL    HW142556   6.189   3.873  10.043  1.8110  1.2790  0.6113
45317SOL    HW242557   6.216   3.780   9.927 -0.3280  1.2671  0.0815
45318SOL     OW42558  10.580  11.099   0.283  0.0708 -0.9046 -0.4764
45318SOL    HW142559  10.523  11.175   0.296  0.4619 -0.6988  0.0733
45318SOL    HW242560  10.619  11.113   0.196  1.3703  0.3720  0.2565
45319SOL     OW42561   0.985   1.082   9.403  0.2668  0.4401  0.0341
45319SOL    HW142562   0.945   1.021   9.466 -0.2809  1.0195  0.2523
45319SOL    HW242563   0.982   1.167   9.447 -0.4790  0.9209 -0.9274
45320SOL     OW42564  11.826   2.391   7.914  0.1678 -0.0442  0.0290
45320SOL    HW142565  11.767   2.337   7.861  1.8220  0.0847 -2.1030
45320SOL    HW242566  11.791   2.480   7.906  0.1259 -0.1026 -0.4945
45321SOL     OW42567   3.888  12.061   9.870  0.1008 -0.1740 -0.2902
45321SOL    HW142568   3.843  12.130   9.919 -2.5263 -0.1235 -2.4923
45321SOL    HW242569   3.953  12.107   9.817 -1.4533  0.6798 -1.5469
45322SOL     OW42570   7.883   0.888   0.011  0.8183 -0.8276 -0.0845
45322SOL    HW142571   7.914   0.816   0.066 -0.1785 -0.7264  0.6424
45322SOL    HW242572   7.934   0.964   0.040  0.1685 -0.7319  0.8635
45323SOL     OW42573  11.543   2.962   1.638  0.0883  0.3302  0.1906
45323SOL    HW142574  11.469   3.019   1.660 -3.0849 -3.1646 -0.1862
45323SOL    HW242575  11.560   2.914   1.719  0.7331 -0.0811 -0.1823
45324SOL     OW42576   3.183  10.216  11.233 -0.0794  0.1581 -0.0053
45324SOL    HW142577   3.115  10.224  11.300  0.8301  0.9806  0.8620
45324SOL    HW242578   3.138  10.178  11.158 -1.0698 -1.0887  1.1650
45325SOL     OW42579   0.214   5.276   3.644  0.0090 -0.0187 -0.2630
45325SOL    HW142580   0.150   5.338   3.609  0.0774  0.2557  0.0972
45325SOL    HW242581   0.163   5.198   3.663 -0.5995  0.7935  1.7431
45326SOL     OW42582   6.862   5.919  11.814 -0.1865 -0.2374 -0.0176
45326SOL    HW142583   6.766   5.925  11.808 -0.1583  0.3456  0.0297
45326SOL    HW242584   6.880   5.826  11.827 -0.7303 -0.3955 -0.3636
45327SOL     OW42585   2.383   0.179   9.556 -0.3151  0.4909 -0.8939
45327SOL    HW142586   2.374   0.250   9.620  1.1879 -0.0290 -0.0638
45327SOL    HW242587   2.468   0.195   9.516 -0.2549 -0.4794 -1.1594
45328SOL     OW42588   4.538   7.403   0.356 -0.4257  0.0714  0.4445
45328SOL    HW142589   4.586   7.412   0.274 -1.3739  0.1125 -0.1277
45328SOL    HW242590   4.450   7.435   0.336 -0.3535  1.2467  1.8118
45329SOL     OW42591  10.841   5.178   2.363  0.1088  0.2686 -0.0868
45329SOL    HW142592  10.780   5.104   2.368 -2.8028  2.4522 -0.3163
45329SOL    HW242593  10.802   5.245   2.421  3.8984  0.8862  2.1268
45330SOL     OW42594   3.395   1.922   5.327  0.0160  0.2042 -0.1162
45330SOL    HW142595   3.314   1.919   5.275 -0.8921  0.2880  1.2357
45330SOL    HW242596   3.370   1.887   5.412  1.4976 -0.0423  0.2447
45331SOL     OW42597   8.730   4.627   1.331 -1.0517 -0.3899 -0.0913
45331SOL    HW142598   8.771   4.546   1.301 -0.5557 -1.2352  2.5810
45331SOL    HW242599   8.636   4.610   1.325 -0.9555 -0.8606 -0.3135
45332SOL     OW42600   3.082   8.317   4.179 -0.1207 -0.9232  0.1077
45332SOL    HW142601   2.992   8.339   4.205  0.2996 -1.2293  1.9212
45332SOL    HW242602   3.071   8.268   4.097 -1.3852  1.5760 -1.3509
45333SOL     OW42603   7.541   5.455   2.307 -0.7641  0.2826 -0.0696
45333SOL    HW142604   7.467   5.424   2.360  0.0713 -0.7762  0.5318
45333SOL    HW242605   7.617   5.411   2.346  0.0989  0.8822 -1.0518
45334SOL     OW42606   0.974   2.103  11.711  0.3101  0.3552  0.1939
45334SOL    HW142607   0.896   2.099  11.767  1.8114  0.8273  2.4597
45334SOL    HW242608   1.004   2.194  11.719 -0.2906  0.9086 -2.7562
45335SOL     OW42609   1.020   7.588   6.268 -0.0259 -0.1605  0.3509
45335SOL    HW142610   1.064   7.509   6.300 -0.3418 -0.2135  0.6558
45335SOL    HW242611   1.063   7.660   6.314  0.1773 -0.1619  0.1662
45336SOL     OW42612  11.272   5.405  11.935  0.3545  0.3421 -0.2306
45336SOL    HW142613  11.346   5.398  11.875  1.1632  2.6717  0.3954
45336SOL    HW242614  11.311   5.434  12.018 -0.5144 -3.9524  2.0022
45337SOL     OW42615   8.110   8.360   8.255  0.2258  0.1655  0.3709
45337SOL    HW142616   8.069   8.307   8.187 -1.3681  0.6317  0.9365
45337SOL    HW242617   8.143   8.437   8.209 -1.0742  0.6064  0.1452
45338SOL     OW42618   3.946   8.077  10.871  0.2204  0.1419  0.4941
45338SOL    HW142619   3.940   8.016  10.797 -1.3639  1.4434 -0.5479
45338SOL    HW242620   3.924   8.025  10.948  0.3953 -0.9169 -0.1598
45339SOL     OW42621   0.286   4.461   5.786  0.1429  0.5566  0.5810
45339SOL    HW142622   0.278   4.553   5.808 -0.0163  0.3051  1.6423
45339SOL    HW242623   0.330   4.459   5.702 -0.1717  1.6109  0.3886
45340SOL     OW42624   2.766   6.026   2.851  0.5153 -0.6770 -0.3871
45340SOL    HW142625   2.774   5.999   2.943  0.1390  0.2410 -0.0671
45340SOL    HW242626   2.857   6.043   2.823  0.5219  0.7800  0.3890
45341SOL     OW42627   0.442   8.104   1.932  0.4489 -0.0737  0.6002
45341SOL    HW142628   0.532   8.075   1.943  0.0341 -1.4741  0.4741
45341SOL    HW242629   0.428   8.103   1.837  0.0242 -0.8153  0.6586
45342SOL     OW42630   3.130   2.643   0.281  0.0606 -0.1215 -0.2554
45342SOL    HW142631   3.193   2.681   0.343 -1.2169  1.5207  0.1132
45342SOL    HW242632   3.048   2.638   0.331 -0.6160 -0.2279 -1.3470
45343SOL     OW42633   1.903   5.063   5.932 -0.1339 -0.1097 -0.4641
45343SOL    HW142634   1.917   5.140   5.988 -0.1973 -0.3637 -0.0976
45343SOL    HW242635   1.828   5.018   5.971 -0.0537 -0.3961 -0.6373
45344SOL     OW42636  12.507   6.880   0.511  0.7093  0.0775 -0.1211
45344SOL    HW142637  12.582   6.876   0.570  0.6256 -2.0225 -0.0766
45344SOL    HW242638  12.464   6.795   0.521 -1.2320  0.9269 -0.7440
45345SOL     OW42639   1.815   1.341   6.510 -0.1735  0.4241  0.2221
45345SOL    HW142640   1.764   1.396   6.451 -0.4951  1.0630  1.0781
45345SOL    HW242641   1.906   1.357   6.485 -0.3334  0.0105 -0.6748
45346SOL     OW42642   1.633   5.410   5.413 -0.1426  0.7354  0.0299
45346SOL    HW142643   1.562   5.346   5.402  0.8866 -0.4287 -0.1505
45346SOL    HW242644   1.615   5.478   5.348 -1.0167  0.3825 -0.1083
45347SOL     OW42645   3.691  12.156  10.496  0.4832 -0.0393 -0.3566
45347SOL    HW142646   3.721  12.194  10.414  1.9555  2.1821  1.0864
45347SOL    HW242647   3.628  12.220  10.530  1.8032  0.4333  1.3897
45348SOL     OW42648   5.056   2.758   8.856 -0.4041 -0.1886  0.0884
45348SOL    HW142649   5.121   2.690   8.871 -0.8278 -0.9727 -1.5387
45348SOL    HW242650   5.095   2.814   8.789 -0.4895  0.6379  0.7008
45349SOL     OW42651  12.198   8.311   5.905  0.0538  0.3048 -0.5876
45349SOL    HW142652  12.289   8.324   5.932  0.5799 -0.7363 -1.7426
45349SOL    HW242653  12.148   8.313   5.986  1.0779  1.0579  0.0576
45350SOL     OW42654   1.768   1.371   1.711 -0.1993  0.2549 -0.0191
45350SOL    HW142655   1.813   1.333   1.786  0.7430 -0.1483 -0.7731
45350SOL    HW242656   1.764   1.465   1.731  2.0659  0.4891 -0.4524
45351SOL     OW42657  11.433   3.434   2.513  0.4945 -0.1524  0.0359
45351SOL    HW142658  11.373   3.501   2.546  2.0150  0.5991  1.4319
45351SOL    HW242659  11.398   3.351   2.548 -1.1500 -0.0884 -1.3417
45352SOL     OW42660   3.222   3.280  11.631 -0.4742  0.1731 -0.5647
45352SOL    HW142661   3.316   3.279  11.647 -0.5958  1.2955  0.3409
45352SOL    HW242662   3.184   3.228  11.701 -0.6303  0.9485 -0.0645
45353SOL     OW42663   4.604   6.604  10.703  0.0664  0.4169 -0.1572
45353SOL    HW142664   4.684   6.646  10.736  0.1228 -0.9078  1.5693
45353SOL    HW242665   4.533   6.654  10.741  0.1008  0.3005  0.0596
45354SOL     OW42666   4.017   7.099  10.102  0.8846 -0.6819  0.2700
45354SOL    HW142667   3.937   7.047  10.092  0.7196  0.0249 -3.4205
45354SOL    HW242668   3.986   7.186  10.128  0.5051 -0.5988 -0.4485
45355SOL     OW42669   1.941   0.578  10.581 -0.2966 -0.1011 -0.5346
45355SOL    HW142670   1.948   0.541  10.493  1.6036  0.6180 -0.7397
45355SOL    HW242671   1.954   0.672  10.568  1.4898 -0.1363  0.6255
45356SOL     OW42672   3.068  10.704   3.248  0.3189 -0.2091 -0.2472
45356SOL    HW142673   3.034  10.694   3.337 -1.3287  0.9134 -0.7051
45356SOL    HW242674   3.105  10.793   3.247 -0.0885 -0.0368 -0.7825
45357SOL     OW42675   4.927   2.453   0.889  0.2640 -0.2673 -0.2709
45357SOL    HW142676   4.965   2.367   0.868  1.2994  0.0533  0.2202
45357SOL    HW242677   4.836   2.433   0.914  0.0785 -1.0475 -1.5053
45358SOL     OW42678  10.886   4.713  10.121 -0.0831 -0.4522 -0.4638
45358SOL    HW142679  10.931   4.700  10.204  0.2513  0.6533 -0.4655
45358SOL    HW242680  10.838   4.631  10.107  0.0228 -0.7269  0.7055
45359SOL     OW42681   7.099  12.425  11.437 -0.3313  0.0764 -0.2305
45359SOL    HW142682   7.030  12.362  11.415  0.9329 -0.7407 -2.1758
45359SOL    HW242683   7.052  12.501  11.472 -2.3120 -0.1175 -2.2349
45360SOL     OW42684   6.999  10.542   1.713 -0.1056 -0.1927 -0.9083
45360SOL    HW142685   6.904  10.546   1.698 -0.2843 -1.2599 -0.2134
45360SOL    HW242686   7.035  10.516   1.629 -0.5676 -1.0173 -0.8647
45361SOL     OW42687   5.120   6.403  10.405  0.1621 -0.7336 -0.6284
45361SOL    HW142688   5.162   6.434  10.485 -1.7483 -1.1785  0.5962
45361SOL    HW242689   5.148   6.311  10.398 -0.4619 -0.9847  0.0939
45362SOL     OW42690   5.944   2.494  11.067 -0.1768  0.4545 -0.2302
45362SOL    HW142691   6.034   2.525  11.053 -0.1930  1.0854  0.8948
45362SOL    HW242692   5.904   2.497  10.981  0.0341  2.9917 -0.3141
45363SOL     OW42693  10.872   4.084   8.263  0.1183  0.1849  0.0575
45363SOL    HW142694  10.943   4.148   8.254  0.9114 -0.4554  1.4638
45363SOL    HW242695  10.899   4.010   8.208  1.7028 -0.9875  2.2719
45364SOL     OW42696   9.914  10.158   7.699  0.9419  0.4271 -0.3474
45364SOL    HW142697   9.861  10.105   7.640 -0.5921  1.3716  0.1118
45364SOL    HW242698   9.948  10.097   7.764 -2.8144  0.2054  1.6589
45365SOL     OW42699   5.941  10.048   9.777 -0.5843 -0.0150  0.6663
45365SOL    HW142700   5.994   9.985   9.826  1.6350  1.7367  0.6252
45365SOL    HW242701   5.886  10.089   9.844 -0.7038 -0.6525  0.9753
45366SOL     OW42702  12.241   4.602   2.434 -0.1067 -0.1351 -0.6621
45366SOL    HW142703  12.237   4.682   2.381  1.3257  0.2584 -0.2105
45366SOL    HW242704  12.294   4.627   2.509  0.3805 -1.5420 -0.5302
45367SOL     OW42705   2.138   4.072   5.407  0.0098  0.4220  0.1884
45367SOL    HW142706   2.130   4.144   5.469  0.5128 -0.0424  0.7981
45367SOL    HW242707   2.125   3.993   5.459 -0.5374  0.0597 -0.4729
45368SOL     OW42708  11.868   3.953   2.354  0.5861 -0.1107 -0.1250
45368SOL    HW142709  11.790   3.999   2.383 -0.7647 -2.9665  1.1895
45368SOL    HW242710  11.935   4.021   2.346 -1.8860  2.4283 -1.0431
45369SOL     OW42711   5.815   7.585   3.401  0.3960  0.1600  0.0515
45369SOL    HW142712   5.858   7.670   3.399  2.7978 -0.9619  0.6414
45369SOL    HW242713   5.722   7.605   3.390  1.0112  2.7223 -1.3042
45370SOL     OW42714   3.974  11.164   7.208 -0.5166 -0.0107  0.3617
45370SOL    HW142715   3.898  11.155   7.149  0.0268  0.7069 -0.4752
45370SOL    HW242716   3.983  11.078   7.248 -0.6655 -0.6512 -0.9154
45371SOL     OW42717   2.868   3.131  10.260  0.0384  0.0044 -0.3913
45371SOL    HW142718   2.941   3.192  10.269  0.0101 -0.1909  1.5466
45371SOL    HW242719   2.792   3.188  10.246 -0.0849  0.5291  2.0138
45372SOL     OW42720   2.661   6.665   5.912  0.3779  0.0116 -0.4674
45372SOL    HW142721   2.720   6.604   5.867 -2.6184 -1.0256 -3.4317
45372SOL    HW242722   2.624   6.613   5.984  2.1806  0.3312  0.7355
45373SOL     OW42723   6.875   6.046   2.501  0.0196 -0.4815  0.3482
45373SOL    HW142724   6.923   6.127   2.517 -0.1266 -0.2798 -0.2007
45373SOL    HW242725   6.915   6.010   2.422  0.5869 -1.3425  1.0087
45374SOL     OW42726   0.198   7.603   7.201  0.4559  0.9014 -0.0319
45374SOL    HW142727   0.249   7.577   7.124  0.3238  2.4213 -0.6660
45374SOL    HW242728   0.160   7.688   7.178 -1.9817  0.0929  0.5952
45375SOL     OW42729   9.650   9.785   7.716  1.1551 -0.0563 -0.7738
45375SOL    HW142730   9.690   9.797   7.802 -1.0938 -1.9424  0.6450
45375SOL    HW242731   9.678   9.698   7.688 -0.7783 -0.8660 -0.3371
45376SOL     OW42732   0.166   4.011   4.932 -0.3033  0.0267 -0.7287
45376SOL    HW142733   0.076   4.043   4.941 -0.4587 -0.4785 -0.3773
45376SOL    HW242734   0.220   4.089   4.928 -0.5208  0.3850  1.5498
45377SOL     OW42735   9.281   5.269   1.798  0.7266  0.1519 -0.3820
45377SOL    HW142736   9.252   5.349   1.753  0.9439  0.5673  0.2041
45377SOL    HW242737   9.249   5.280   1.887  0.1314 -0.7575 -0.4710
45378SOL     OW42738  12.252  10.090   3.597 -0.2282  0.5122 -0.0628
45378SOL    HW142739  12.212  10.117   3.514 -1.6214 -1.7283 -0.2133
45378SOL    HW242740  12.321  10.029   3.572  0.1716  0.7685  0.3968
45379SOL     OW42741  10.808   6.038   1.516 -0.3447  0.3209  0.0349
45379SOL    HW142742  10.723   6.039   1.472  0.1192  1.0171 -0.8898
45379SOL    HW242743  10.799   5.971   1.584 -1.9003  0.9477  0.5071
45380SOL     OW42744   8.639   1.150   1.627 -0.1244  0.1464 -0.3811
45380SOL    HW142745   8.704   1.105   1.682  0.1684  2.5597  1.4507
45380SOL    HW242746   8.688   1.177   1.549  1.1993  1.9074  0.9587
45381SOL     OW42747   1.296   4.438  10.034  0.1579  0.6683  0.3937
45381SOL    HW142748   1.366   4.393   9.986 -1.2723 -0.3458 -0.8275
45381SOL    HW242749   1.294   4.525   9.996  0.5772  0.6207  0.2488
45382SOL     OW42750   3.215  12.086  11.643  0.5473  0.6284  0.2551
45382SOL    HW142751   3.271  12.052  11.713  0.8773  1.9562  0.6583
45382SOL    HW242752   3.132  12.038  11.654  2.0855 -2.7570 -1.5095
45383SOL     OW42753   7.475   2.926   8.762 -0.6411 -0.2537 -0.8762
45383SOL    HW142754   7.546   2.949   8.822 -0.0991 -1.9563 -0.7976
45383SOL    HW242755   7.396   2.928   8.816 -0.6356  1.3142 -0.8811
45384SOL     OW42756   3.194  12.375   0.568  0.0010  0.5823  0.5083
45384SOL    HW142757   3.138  12.302   0.596  0.6176  0.7530  2.2853
45384SOL    HW242758   3.193  12.370   0.473  0.3466 -2.0090  0.5702
45385SOL     OW42759   1.778   6.656   3.684 -0.4460 -0.4392 -0.2692
45385SOL    HW142760   1.847   6.667   3.619 -0.3805  1.6134  0.0850
45385SOL    HW242761   1.766   6.743   3.722 -1.0615 -1.3963  1.8812
45386SOL     OW42762   9.099   1.026   5.134 -0.0587 -0.7971  0.3484
45386SOL    HW142763   9.121   0.943   5.091  1.8092 -1.3089  2.1302
45386SOL    HW242764   9.102   1.091   5.064  1.0685 -1.8602 -0.6368
45387SOL     OW42765  10.405   8.582   3.106 -0.2808  0.1273  0.1242
45387SOL    HW142766  10.450   8.648   3.159  0.0975 -0.5984  0.7216
45387SOL    HW242767  10.410   8.615   3.017  0.8781  0.3596  0.2689
45388SOL     OW42768   9.518   0.683   5.880 -0.6336  0.1241  0.6142
45388SOL    HW142769   9.569   0.754   5.840 -0.4732  0.5079  1.4793
45388SOL    HW242770   9.453   0.727   5.934 -0.2306 -0.3750  1.5337
45389SOL     OW42771  11.634   1.788   2.844  0.1544 -0.1429 -0.6820
45389SOL    HW142772  11.653   1.861   2.785  0.8220 -0.4869 -0.9027
45389SOL    HW242773  11.546   1.805   2.876 -1.0150 -0.9185 -3.2253
45390SOL     OW42774  11.787  11.349   5.291 -0.3266  0.2060  0.2183
45390SOL    HW142775  11.816  11.310   5.209  0.1296  1.8070 -0.4060
45390SOL    HW242776  11.857  11.329   5.353 -1.4247 -2.4536  0.7181
45391SOL     OW42777  11.498   5.883   9.258 -0.4355  0.4758 -0.5180
45391SOL    HW142778  11.526   5.903   9.348  0.2386 -2.2278 -0.0432
45391SOL    HW242779  11.412   5.843   9.268  0.2480 -1.1695 -0.8709
45392SOL     OW42780   6.453   5.724   8.340 -0.4986  0.0249  0.4358
45392SOL    HW142781   6.456   5.734   8.435 -0.2309 -0.2246  0.4539
45392SOL    HW242782   6.369   5.681   8.323 -0.1069 -0.8265  0.6408
45393SOL     OW42783   5.532   2.751   4.919 -0.8388 -0.2017  0.0733
45393SOL    HW142784   5.540   2.676   4.978 -2.3830  0.4240  1.1569
45393SOL    HW242785   5.438   2.759   4.904 -0.5788  0.5606 -1.3061
45394SOL     OW42786  12.704   8.747   8.872 -0.9653  0.0638 -0.3733
45394SOL    HW142787  12.795   8.770   8.855 -0.8776 -0.2469 -0.3394
45394SOL    HW242788  12.669   8.723   8.786 -0.5875 -1.2788 -0.1812
45395SOL     OW42789   5.741   3.755  10.722 -0.0969 -0.1808 -0.6662
45395SOL    HW142790   5.711   3.785  10.807 -0.1192  0.2237 -0.8161
45395SOL    HW242791   5.805   3.820  10.694  0.6328 -0.8310 -0.5229
45396SOL     OW42792   6.250   4.281  11.638  0.1581  0.6991  0.1113
45396SOL    HW142793   6.238   4.370  11.670  0.0828  0.8122 -0.2213
45396SOL    HW242794   6.239   4.225  11.715 -0.0223  0.9626  0.2771
45397SOL     OW42795   1.549  10.364  10.691 -0.3278 -0.5823 -0.0402
45397SOL    HW142796   1.468  10.341  10.738 -0.2089 -0.2172  0.3432
45397SOL    HW242797   1.521  10.373  10.600 -0.0375 -4.4381 -0.7027
45398SOL     OW42798  12.660   0.312   5.082 -0.1911 -0.3086 -0.2340
45398SOL    HW142799  12.688   0.385   5.027 -3.6542  0.2176 -1.5431
45398SOL    HW242800  12.670   0.235   5.026  2.7129 -0.8671  0.8811
45399SOL     OW42801   1.143   1.446   2.058  0.4823  0.0650 -0.4450
45399SOL    HW142802   1.149   1.481   1.969 -2.6669 -0.1392 -0.8722
45399SOL    HW242803   1.092   1.365   2.048  1.6199 -0.9228  1.3533
45400SOL     OW42804  10.538  10.742  11.279 -0.3783 -0.3127  0.0943
45400SOL    HW142805  10.580  10.811  11.330 -1.3272 -0.8195  1.6174
45400SOL    HW242806  10.611  10.695  11.238  0.3475  0.6982  0.1965
45401SOL     OW42807  10.686   8.655   9.671 -0.0913  0.9476 -0.5489
45401SOL    HW142808  10.593   8.678   9.672 -0.1721  0.8447  1.9122
45401SOL    HW242809  10.687   8.560   9.679  0.1578  1.0755  1.4610
45402SOL     OW42810   6.672   7.569  10.589 -1.0704  0.6529  0.6651
45402SOL    HW142811   6.736   7.629  10.550  1.3255 -0.4379  2.6721
45402SOL    HW242812   6.658   7.502  10.521  2.0592 -0.5327  1.0209
45403SOL     OW42813   1.069   2.893  10.639  0.8624  0.0831 -0.1712
45403SOL    HW142814   1.147   2.942  10.664  1.1498 -0.2880 -0.3411
45403SOL    HW242815   1.009   2.903  10.713  0.2071  2.1716 -0.9179
45404SOL     OW42816   3.388  10.793   7.733  0.4764  0.0030  0.2068
45404SOL    HW142817   3.334  10.841   7.670  0.1161 -0.7135 -0.0381
45404SOL    HW242818   3.426  10.721   7.682  0.4470 -0.3856  0.7296
45405SOL     OW42819   6.616  10.782   6.013 -0.5411  0.8555  0.4027
45405SOL    HW142820   6.597  10.832   5.933 -0.4497  1.0814  0.5227
45405SOL    HW242821   6.535  10.789   6.064  0.3888  3.2462  1.6727
45406SOL     OW42822  10.618  11.400   4.026 -0.3455 -0.3072  0.5534
45406SOL    HW142823  10.639  11.311   3.998 -0.8381 -0.4387  0.5944
45406SOL    HW242824  10.551  11.430   3.964 -0.3803 -0.0654  0.7058
45407SOL     OW42825   9.628   2.553   3.284  0.4766 -0.4469  0.4277
45407SOL    HW142826   9.682   2.583   3.357  2.3211 -3.3446  0.4161
45407SOL    HW242827   9.588   2.472   3.315 -0.3980 -0.6304 -1.0748
45408SOL     OW42828   3.125   2.204  11.193 -0.2752 -0.1152 -0.5698
45408SOL    HW142829   3.107   2.139  11.125  1.5961  1.7148 -2.9940
45408SOL    HW242830   3.119   2.289  11.148  0.4828  1.2371  1.6917
45409SOL     OW42831   6.414   7.221   0.147  0.0289 -0.5152 -0.1054
45409SOL    HW142832   6.471   7.212   0.070  0.3799 -0.2600  0.1222
45409SOL    HW242833   6.350   7.287   0.122  0.0418 -0.5516 -0.2357
45410SOL     OW42834   8.276   4.829   3.814  0.2029  0.6566 -0.0428
45410SOL    HW142835   8.329   4.845   3.736 -0.7294 -1.4213 -1.1943
45410SOL    HW242836   8.340   4.822   3.886  1.3572 -0.0458 -1.0896
45411SOL     OW42837   1.616   7.682   3.772 -0.4636 -0.1494 -0.0972
45411SOL    HW142838   1.570   7.726   3.701  0.4069  0.2471 -0.4332
45411SOL    HW242839   1.593   7.589   3.762 -1.3563  0.0648 -0.1087
45412SOL     OW42840   5.809  11.644   9.340  0.2109  0.3067  0.1418
45412SOL    HW142841   5.855  11.561   9.353  0.6361  0.6224  0.7062
45412SOL    HW242842   5.863  11.692   9.278 -0.1647  0.0711 -0.3771
45413SOL     OW42843   2.381   0.448   2.089  0.3390  0.0221 -0.0416
45413SOL    HW142844   2.469   0.478   2.112  0.4780 -0.2597 -0.2106
45413SOL    HW242845   2.360   0.494   2.008  0.1788  0.3777  0.1972
45414SOL     OW42846   0.724   1.032   2.695 -0.0617 -0.0887  0.3375
45414SOL    HW142847   0.678   0.997   2.619 -0.8448 -0.9124  1.1549
45414SOL    HW242848   0.779   0.959   2.726 -0.8326 -0.2611  1.3745
45415SOL     OW42849   8.495  11.827   8.744  0.3697  0.4961  0.3211
45415SOL    HW142850   8.540  11.755   8.701  0.8493  1.9371 -1.7298
45415SOL    HW242851   8.403  11.800   8.748  0.3505  0.2213 -1.4633
45416SOL     OW42852  10.763   9.085   2.770  0.4785 -0.0099 -0.1769
45416SOL    HW142853  10.810   9.111   2.849  5.3020 -1.5792 -2.1393
45416SOL    HW242854  10.721   9.002   2.793  0.2303  0.4783  1.1917
45417SOL     OW42855   3.276  12.750  12.182 -0.5177 -0.7681 -1.1499
45417SOL    HW142856   3.358  12.701  12.174  0.4232  0.8559 -2.0954
45417SOL    HW242857   3.233  12.713  12.258  2.4170  0.1395  1.1585
45418SOL     OW42858   5.760   8.032   7.416 -0.0771  0.1668 -0.1671
45418SOL    HW142859   5.771   8.127   7.413 -0.3505  0.2107  0.2250
45418SOL    HW242860   5.741   8.008   7.325  0.3564  0.4400 -0.3339
45419SOL     OW42861   2.510   6.225   7.987 -0.4104 -0.0827 -0.5845
45419SOL    HW142862   2.568   6.298   8.007 -0.5697  0.1812 -1.0748
45419SOL    HW242863   2.434   6.265   7.945  0.6152 -0.7291 -3.2993
45420SOL     OW42864   7.886   9.624   3.144 -0.3153  0.2495 -0.3492
45420SOL    HW142865   7.893   9.614   3.049 -0.1157  1.6697 -0.4966
45420SOL    HW242866   7.956   9.568   3.179 -1.9947 -2.3868 -0.8631
45421SOL     OW42867  10.092   3.316  10.400 -0.2500  0.9489 -0.3622
45421SOL    HW142868  10.147   3.353  10.470 -0.7847  1.0096  0.0379
45421SOL    HW242869  10.099   3.221  10.411 -0.2201  0.9570 -0.3127
45422SOL     OW42870   4.396  10.368   9.574  0.6512 -0.4132 -0.0204
45422SOL    HW142871   4.390  10.459   9.602  0.3618 -0.1863 -0.7985
45422SOL    HW242872   4.320  10.325   9.614 -0.8263  0.3100 -1.8610
45423SOL     OW42873   6.836   3.712   0.543  1.1909  0.4637 -0.6602
45423SOL    HW142874   6.844   3.662   0.462 -0.8704  1.1097 -1.3136
45423SOL    HW242875   6.827   3.803   0.515  0.4407  0.6978  0.2832
45424SOL     OW42876   7.422   5.515  10.808 -0.4059 -0.1154 -0.3420
45424SOL    HW142877   7.354   5.569  10.769 -1.2939  0.0040  1.3094
45424SOL    HW242878   7.375   5.451  10.862  0.7661 -0.2306  0.5935
45425SOL     OW42879   6.338   1.902  10.463  0.7027  0.2156  0.2946
45425SOL    HW142880   6.364   1.956  10.537 -0.8028 -0.1833  1.1542
45425SOL    HW242881   6.393   1.824  10.469  0.0932 -0.1464  1.4531
45426SOL     OW42882  10.813   2.238   9.570 -0.5311 -0.0901  0.1396
45426SOL    HW142883  10.769   2.155   9.587  0.5718 -0.3638  1.9198
45426SOL    HW242884  10.751   2.305   9.599 -0.4090 -0.4103  1.1732
45427SOL     OW42885   1.996   2.174   8.735 -0.2882  0.2091 -0.2075
45427SOL    HW142886   2.067   2.190   8.798  0.4199 -1.0880 -0.6521
45427SOL    HW242887   2.032   2.204   8.651 -1.7304  3.2677  0.1326
45428SOL     OW42888   4.450   6.168  11.944  0.1624 -0.5718 -0.0733
45428SOL    HW142889   4.415   6.241  11.892 -0.4835 -1.4539 -0.9147
45428SOL    HW242890   4.529   6.203  11.985  0.2044  0.4091 -0.9608
45429SOL     OW42891  11.534   8.057   7.214  0.3616 -0.4077  0.1135
45429SOL    HW142892  11.562   8.080   7.302 -1.6973 -0.8031  0.9262
45429SOL    HW242893  11.603   8.091   7.157  1.4365  0.3892  1.8213
45430SOL     OW42894  11.557   5.287   4.406 -0.4092  0.5663 -0.3396
45430SOL    HW142895  11.640   5.273   4.451 -0.1582  0.0717 -0.9603
45430SOL    HW242896  11.581   5.305   4.315 -0.8749  2.1914 -0.1827
45431SOL     OW42897  12.559   8.831   2.113 -0.0173 -0.3263 -0.3491
45431SOL    HW142898  12.654   8.841   2.110  0.0453 -0.2963  1.0066
45431SOL    HW242899  12.545   8.756   2.171 -0.8474  1.3839  1.8067
45432SOL     OW42900   6.940   1.636   1.404 -0.1105 -0.4260 -0.0422
45432SOL    HW142901   6.908   1.713   1.452 -1.1402 -1.1652  0.4842
45432SOL    HW242902   7.032   1.656   1.387 -0.4702  1.1525 -0.3685
45433SOL     OW42903  12.198  10.357   1.406  0.9134  0.4456 -0.1215
45433SOL    HW142904  12.133  10.350   1.336  0.5814 -1.8414  0.3558
45433SOL    HW242905  12.155  10.409   1.474  0.0315 -0.0138 -0.3126
45434SOL     OW42906   6.475   3.809  12.785 -0.2844 -0.5973  0.2889
45434SOL    HW142907   6.497   3.860  12.862 -2.4781  1.2766 -0.2133
45434SOL    HW242908   6.404   3.751  12.813  2.1699 -3.5705  0.8529
45435SOL     OW42909  11.648  11.940   7.564 -0.1429  0.4739 -0.6704
45435SOL    HW142910  11.649  11.906   7.653 -0.3652 -0.9675 -1.2015
45435SOL    HW242911  11.740  11.956   7.543 -0.0515  0.3734 -0.3552
45436SOL     OW42912   1.775   4.399   6.360  0.5231  0.3597 -0.2612
45436SOL    HW142913   1.689   4.384   6.322  1.0992 -0.2998 -1.3578
45436SOL    HW242914   1.823   4.317   6.346  1.1748  0.5363  0.7746
45437SOL     OW42915  12.426   7.524  10.451  0.2108  0.3956  0.8193
45437SOL    HW142916  12.349   7.507  10.396  0.2994 -1.7212  1.2705
45437SOL    HW242917  12.411   7.473  10.530  1.9969  0.0841  0.9959
45438SOL     OW42918  11.184  10.564   5.971 -0.7723 -0.0900  0.2066
45438SOL    HW142919  11.113  10.614   5.931 -0.1112 -1.9588 -3.7607
45438SOL    HW242920  11.264  10.610   5.946 -0.3624 -0.8882  0.0048
45439SOL     OW42921  12.373   4.287  11.585  0.2634 -0.7711 -0.4164
45439SOL    HW142922  12.345   4.366  11.538  0.5552 -1.1435 -1.2397
45439SOL    HW242923  12.294   4.233  11.590 -0.2863  0.1366  1.3686
45440SOL     OW42924   9.873   8.426  11.347 -0.3457  0.0714 -0.0372
45440SOL    HW142925   9.823   8.488  11.399  0.7763  0.3796  0.6911
45440SOL    HW242926   9.964   8.440  11.372  0.1271 -0.4614 -1.3544
45441SOL     OW42927   0.047  12.078  11.778 -0.1730 -0.3078  0.0641
45441SOL    HW142928   0.084  11.990  11.766  0.0645  0.1191 -3.5696
45441SOL    HW242929  -0.047  12.063  11.787  0.0528 -0.9957  1.4904
45442SOL     OW42930   2.455   9.622   8.534 -0.3362  0.4584  0.1100
45442SOL    HW142931   2.422   9.547   8.485  2.1509 -0.7383  0.1254
45442SOL    HW242932   2.506   9.672   8.471 -0.7852  1.3885  0.4556
45443SOL     OW42933   0.646   3.085   6.423  0.1081  0.3253  0.3347
45443SOL    HW142934   0.633   3.013   6.361  1.3309 -1.1138  1.6846
45443SOL    HW242935   0.737   3.110   6.410  0.1808  0.4579  1.0803
45444SOL     OW42936   6.394   0.290   0.993 -0.3819 -0.7723  0.3558
45444SOL    HW142937   6.480   0.330   1.007 -0.5063 -0.4528  0.2199
45444SOL    HW242938   6.355   0.341   0.922 -0.6277 -1.0057  0.3202
45445SOL     OW42939   0.435   3.665   3.862  0.2057 -0.0005 -0.1349
45445SOL    HW142940   0.443   3.613   3.783  2.5717  1.0591 -0.6814
45445SOL    HW242941   0.349   3.707   3.855 -0.5436 -1.6059 -1.0259
45446SOL     OW42942   8.935   2.694   5.339 -0.4240 -0.1752  0.1411
45446SOL    HW142943   8.907   2.652   5.258  1.5824  0.8481 -1.1709
45446SOL    HW242944   8.861   2.684   5.399 -2.9443  1.1203 -2.5465
45447SOL     OW42945   4.455  11.785  11.789  0.6311 -0.2652 -0.0686
45447SOL    HW142946   4.403  11.859  11.757  0.5203 -1.0332 -1.8391
45447SOL    HW242947   4.546  11.812  11.777  0.6843  0.7596  2.2529
45448SOL     OW42948   0.126   7.833   6.728 -0.3737 -0.2522 -0.1272
45448SOL    HW142949   0.149   7.756   6.675 -1.2966  0.7420 -2.1190
45448SOL    HW242950   0.205   7.853   6.777  0.0209 -2.1954  0.1257
45449SOL     OW42951   9.187   7.302   7.696 -0.1237 -0.1029  0.4521
45449SOL    HW142952   9.119   7.340   7.640 -1.6103 -0.0977  2.1681
45449SOL    HW242953   9.260   7.364   7.690 -1.2956  1.3620  0.6516
45450SOL     OW42954   9.164   0.052  11.626  0.4833  0.3416  0.3911
45450SOL    HW142955   9.079   0.023  11.661 -0.1688  2.0790  0.3374
45450SOL    HW242956   9.228   0.001  11.675 -0.5641 -0.3643  1.0858
45451SOL     OW42957   6.420   4.261   4.535 -0.4349  0.1379  0.4252
45451SOL    HW142958   6.349   4.252   4.471 -0.2785 -0.4386  0.3231
45451SOL    HW242959   6.414   4.352   4.565 -0.0993  0.6149 -0.8918
45452SOL     OW42960   3.032  11.359   2.750  0.5093  0.6156  0.1457
45452SOL    HW142961   3.046  11.271   2.714  0.1798  0.6353 -0.0337
45452SOL    HW242962   2.960  11.349   2.812  1.0317  0.5958  0.7670
45453SOL     OW42963   9.468   0.642   4.037 -0.5576 -0.1251 -0.0953
45453SOL    HW142964   9.536   0.642   4.104  0.3798  3.0860 -0.8808
45453SOL    HW242965   9.391   0.677   4.081 -0.7823 -0.7015 -0.0194
45454SOL     OW42966  10.868   7.517   8.016  0.1578 -0.3568  0.1330
45454SOL    HW142967  10.920   7.573   8.075 -0.5057 -0.0993  0.4818
45454SOL    HW242968  10.902   7.536   7.929 -1.9349  2.7930 -0.1443
45455SOL     OW42969   9.658   8.571   3.968  0.1567 -0.1396  0.3705
45455SOL    HW142970   9.598   8.503   3.936 -0.1744  0.3134  0.0033
45455SOL    HW242971   9.637   8.647   3.914  1.1621 -0.0079  0.1465
45456SOL     OW42972   2.780   4.504   7.504  0.5028 -0.1941  0.0201
45456SOL    HW142973   2.864   4.459   7.508  0.3832 -0.3253  1.8246
45456SOL    HW242974   2.717   4.441   7.540  0.0525  0.7830  0.9914
45457SOL     OW42975   6.207   5.216  12.253  0.4957  0.0586  0.3134
45457SOL    HW142976   6.297   5.245  12.265  0.1120  0.5535  2.3927
45457SOL    HW242977   6.195   5.148  12.319 -0.9454  0.7587  0.8180
45458SOL     OW42978   2.875   6.194   5.826  0.2051  0.2818  0.5766
45458SOL    HW142979   2.939   6.175   5.895 -1.2674  0.0815  1.9380
45458SOL    HW242980   2.923   6.179   5.745  1.1808 -2.3972  1.5377
45459SOL     OW42981  11.475   6.125  10.001 -0.5871  0.1085 -0.2937
45459SOL    HW142982  11.417   6.130   9.926 -1.5731 -0.2268  0.4244
45459SOL    HW242983  11.505   6.215  10.016 -0.0986  0.1235 -1.2822
45460SOL     OW42984  11.711   9.581   7.306  0.2269  0.0398 -0.5928
45460SOL    HW142985  11.684   9.503   7.355  0.7683  0.9108  1.1512
45460SOL    HW242986  11.635   9.639   7.311  0.6448  0.5348  0.1079
45461SOL     OW42987   4.790   9.297   7.892 -0.7270 -0.7255 -0.1173
45461SOL    HW142988   4.871   9.339   7.865  0.3068 -1.8852  1.0082
45461SOL    HW242989   4.773   9.330   7.980 -0.1905 -2.1847  0.5667
45462SOL     OW42990   0.383   8.008  12.084 -0.8787  0.2151 -0.8611
45462SOL    HW142991   0.379   8.057  12.166 -0.2910 -0.9556 -0.1072
45462SOL    HW242992   0.292   7.990  12.062 -0.9973 -0.9852  0.5026
45463SOL     OW42993   0.986   5.441   0.776  0.4421 -0.0832  0.1089
45463SOL    HW142994   0.971   5.359   0.729 -0.8284 -1.5094  2.7767
45463SOL    HW242995   0.912   5.496   0.752 -1.1869 -1.4690  1.6571
45464SOL     OW42996   6.150  12.116   6.901 -0.1112 -0.0410  0.2072
45464SOL    HW142997   6.166  12.209   6.917  0.8539 -0.0082 -0.7616
45464SOL    HW242998   6.060  12.111   6.870  0.3347  0.8245 -1.3390
45465SOL     OW42999   5.913  12.093   2.825  0.5333 -0.3953  0.2722
45465SOL    HW143000   5.834  12.130   2.784 -0.2593  1.0540  2.9193
45465SOL    HW243001   5.888  12.003   2.847 -0.2505 -0.0821  0.7098
45466SOL     OW43002   8.618   5.466   0.215  0.7111  0.5693  0.2139
45466SOL    HW143003   8.592   5.374   0.212 -3.3763  1.4964  1.2168
45466SOL    HW243004   8.701   5.467   0.262  0.7790 -2.5596  0.3068
45467SOL     OW43005  12.208   4.386   4.755 -0.0364 -0.2862 -0.0945
45467SOL    HW143006  12.244   4.416   4.839  0.0387 -0.5523 -0.0321
45467SOL    HW243007  12.274   4.326   4.720  0.8624  1.2803 -1.2634
45468SOL     OW43008   9.854   0.474   1.937  0.2964 -0.4086  0.1214
45468SOL    HW143009   9.851   0.424   2.018 -0.9284 -0.8945 -0.1986
45468SOL    HW243010   9.762   0.494   1.918  0.7204  2.2471  0.3959
45469SOL     OW43011  12.255  11.458   3.989 -0.5006 -0.3125  0.0446
45469SOL    HW143012  12.161  11.445   3.983 -0.2609 -1.7970 -1.0010
45469SOL    HW243013  12.274  11.527   3.926 -0.6530 -1.4810 -1.3338
45470SOL     OW43014   3.279   4.579   5.148  0.5195  0.0014  0.5579
45470SOL    HW143015   3.322   4.615   5.226  0.3507 -1.0861  1.1836
45470SOL    HW243016   3.347   4.527   5.105  0.0443 -1.2648  1.2489
45471SOL     OW43017   3.025   3.861   2.075  0.1570  0.6108 -0.9190
45471SOL    HW143018   3.031   3.930   2.142  0.8167  0.7595 -1.1285
45471SOL    HW243019   3.115   3.846   2.048  0.0803 -0.7317 -0.4841
45472SOL     OW43020   0.831   2.683   0.284  0.0637 -0.2826  0.0571
45472SOL    HW143021   0.889   2.644   0.350  2.0397 -0.6989 -1.8236
45472SOL    HW243022   0.812   2.770   0.319 -1.7185 -1.6165  2.7268
45473SOL     OW43023  11.925  10.431   1.648 -0.2074 -0.0483  0.2264
45473SOL    HW143024  12.008  10.439   1.695  0.4107  0.0762 -0.8453
45473SOL    HW243025  11.894  10.343   1.670  0.7269 -0.4922 -0.1458
45474SOL     OW43026  10.848   6.482   2.974  0.0370 -0.2698  0.1287
45474SOL    HW143027  10.892   6.442   2.899  0.3230 -1.4887  0.9141
45474SOL    HW243028  10.920   6.520   3.025  0.1154 -1.4514  0.9362
45475SOL     OW43029   0.099   5.325  12.749  0.4854  0.2990 -0.3448
45475SOL    HW143030   0.098   5.411  12.708 -2.2387 -0.8006 -3.0195
45475SOL    HW243031   0.179   5.283  12.717  0.0656  0.6578 -1.9646
45476SOL     OW43032   9.242   9.583  12.023 -0.3407 -0.4029  0.5229
45476SOL    HW143033   9.159   9.607  11.981 -1.4126 -0.9226  2.2232
45476SOL    HW243034   9.220   9.576  12.116  1.9623  0.9152  1.2370
45477SOL     OW43035   0.636  10.388   6.309 -0.4110  0.1453 -0.4392
45477SOL    HW143036   0.639  10.355   6.399 -0.4499 -0.0902 -0.5256
45477SOL    HW243037   0.724  10.373   6.275 -0.8490 -1.2878 -0.9897
45478SOL     OW43038  12.233   0.005   4.814 -0.3932 -0.1864 -0.2438
45478SOL    HW143039  12.223   0.090   4.854  0.5774 -2.1336  4.8637
45478SOL    HW243040  12.327  -0.014   4.821 -0.4565 -1.4666 -1.9904
45479SOL     OW43041   9.722   4.710  12.012  0.6851  0.3227  0.2298
45479SOL    HW143042   9.748   4.691  11.922 -1.7428  0.9861 -0.6802
45479SOL    HW243043   9.666   4.637  12.037  0.0113  0.9512  0.5891
45480SOL     OW43044   3.689   5.751   8.100  0.2125  0.2162 -0.3540
45480SOL    HW143045   3.603   5.733   8.061 -0.2535 -0.2481  0.8385
45480SOL    HW243046   3.749   5.751   8.026 -0.7464  0.0595 -1.1573
45481SOL     OW43047   0.680   5.125   4.524 -0.1195 -0.4858  0.3108
45481SOL    HW143048   0.745   5.055   4.524 -1.3785 -1.7223 -1.1941
45481SOL    HW243049   0.707   5.181   4.450 -0.3613 -0.6195  0.1198
45482SOL     OW43050   1.670   4.924   7.084 -0.0667  0.4264 -0.1130
45482SOL    HW143051   1.594   4.866   7.085  0.1662  0.1021 -0.5863
45482SOL    HW243052   1.690   4.938   7.176  0.7735 -1.4578  0.0464
45483SOL     OW43053   3.755   0.309  12.238  0.0733  0.1611  0.1570
45483SOL    HW143054   3.814   0.305  12.163  0.4070  0.0903  0.4222
45483SOL    HW243055   3.770   0.227  12.285 -0.7101 -0.1564 -0.1266
45484SOL     OW43056   3.590  12.689   0.565  0.4430 -0.1430 -0.2328
45484SOL    HW143057   3.668  12.688   0.510  1.1614  2.4845  0.6248
45484SOL    HW243058   3.588  12.601   0.604  1.8796 -0.8817 -1.6870
45485SOL     OW43059   0.324   3.859   2.649 -0.0116 -0.5838  0.1885
45485SOL    HW143060   0.322   3.954   2.636 -1.1484 -0.4384  1.3042
45485SOL    HW243061   0.326   3.823   2.560 -0.1740  0.4701 -0.2594
45486SOL     OW43062   2.840   0.676   6.001  0.3527  0.0845 -0.5799
45486SOL    HW143063   2.907   0.737   5.970 -0.3696  0.1651 -2.0747
45486SOL    HW243064   2.765   0.693   5.944 -0.5979 -0.6914  0.4226
45487SOL     OW43065   1.068  12.475  10.872 -0.3005  0.2586 -0.0251
45487SOL    HW143066   1.075  12.481  10.967 -1.1662 -0.6261  0.1180
45487SOL    HW243067   0.982  12.511  10.851 -2.0625 -3.3616  0.0537
45488SOL     OW43068  11.427  11.097   0.494 -0.0625  0.0794  0.0399
45488SOL    HW143069  11.504  11.078   0.440 -1.5661 -0.9305 -1.9071
45488SOL    HW243070  11.459  11.154   0.564  2.3420  0.0194 -0.9301
45489SOL     OW43071   9.796   2.076   8.320  0.0586  0.3023  0.0126
45489SOL    HW143072   9.791   2.154   8.265  3.1218 -0.3116 -1.3511
45489SOL    HW243073   9.804   2.111   8.409 -1.1227  1.4333 -0.2918
45490SOL     OW43074   4.992   9.545   8.870  0.4718  0.0608  0.5484
45490SOL    HW143075   4.946   9.529   8.952 -0.8958  1.5616  0.1248
45490SOL    HW243076   4.928   9.524   8.802  1.0414  0.3887 -0.1107
45491SOL     OW43077  10.714   0.548  11.520 -0.2567 -0.2146 -0.7037
45491SOL    HW143078  10.787   0.609  11.524 -0.7785  0.3828  0.0682
45491SOL    HW243079  10.691   0.532  11.612 -0.8371 -0.7057 -0.9240
45492SOL     OW43080   9.609   0.964   4.746 -0.0268 -0.1541  0.1942
45492SOL    HW143081   9.586   0.915   4.667  0.4120  2.7226 -1.9054
45492SOL    HW243082   9.690   1.009   4.723 -0.5026  1.6898  1.8560
45493SOL     OW43083   5.522   8.698   9.295  0.0301 -0.3196  0.2021
45493SOL    HW143084   5.474   8.653   9.365 -0.5583  1.1908  0.8015
45493SOL    HW243085   5.478   8.669   9.215  0.0311 -1.2444  0.5143
45494SOL     OW43086   8.781   8.649   8.235  0.4941  0.4657  0.3598
45494SOL    HW143087   8.746   8.568   8.274 -0.1276  1.5579  2.2269
45494SOL    HW243088   8.856   8.671   8.291  0.9448  0.9516 -0.4247
45495SOL     OW43089   4.495  11.760   5.822  0.6165 -0.0716  0.2764
45495SOL    HW143090   4.586  11.766   5.794  0.1573 -0.2064 -1.3746
45495SOL    HW243091   4.491  11.811   5.903  2.0287  0.4345  0.0528
45496SOL     OW43092   6.535   1.815   6.259  0.1101  0.1520  0.3154
45496SOL    HW143093   6.498   1.823   6.347 -1.2995  0.5080 -0.2780
45496SOL    HW243094   6.478   1.751   6.215  1.0946 -0.3961 -0.1975
45497SOL     OW43095  10.901   1.136  11.518 -0.3997  0.0857  0.2322
45497SOL    HW143096  10.971   1.071  11.525  0.1478  0.7418  0.9577
45497SOL    HW243097  10.824   1.091  11.555 -0.6334 -0.9669 -1.4064
45498SOL     OW43098   1.652   9.039  12.189 -0.3111  0.0723  0.3432
45498SOL    HW143099   1.713   9.053  12.116  1.3329  0.9631  1.8066
45498SOL    HW243100   1.588   9.109  12.180 -0.8074 -0.5030 -0.8652
45499SOL     OW43101   4.762  11.033  11.283  0.0628  0.3736  0.5916
45499SOL    HW143102   4.713  10.951  11.294 -0.6955  0.4256 -1.8583
45499SOL    HW243103   4.849  11.013  11.318 -0.8434 -0.6109  2.4374
45500SOL     OW43104   1.641   7.418   3.781 -0.0975 -0.1471 -1.0101
45500SOL    HW143105   1.663   7.402   3.689  2.7811 -0.0783 -0.4379
45500SOL    HW243106   1.723   7.400   3.828 -1.2244  0.7617  1.4353
45501SOL     OW43107   6.715   1.284   9.117 -0.3489  0.0894  0.0018
45501SOL    HW143108   6.644   1.293   9.182 -1.6744  1.0501 -1.4943
45501SOL    HW243109   6.777   1.353   9.140 -0.7054  0.2952  0.3651
45502SOL     OW43110   4.056   3.077  11.351  0.4864  0.2605  0.1085
45502SOL    HW143111   4.028   2.993  11.388  1.9227 -0.7684 -1.0046
45502SOL    HW243112   4.018   3.079  11.263 -0.8828  1.5666  0.6795
45503SOL     OW43113   2.039   6.777   2.132  0.1298  0.2002  0.3650
45503SOL    HW143114   1.968   6.752   2.192 -0.0264  1.6166  0.8077
45503SOL    HW243115   1.994   6.811   2.055  0.3100  1.0898  0.6419
45504SOL     OW43116   8.977   1.592   7.385  0.2317 -0.0572  0.0606
45504SOL    HW143117   8.975   1.687   7.385  0.2515 -0.0193 -1.5464
45504SOL    HW243118   9.036   1.569   7.313 -0.2800 -1.2709 -0.0060
45505SOL     OW43119   1.423   4.791   7.471 -0.6339 -0.2868  0.2650
45505SOL    HW143120   1.421   4.697   7.492 -1.5843 -0.0563  1.2726
45505SOL    HW243121   1.364   4.800   7.396 -0.7828 -0.4536  0.3612
45506SOL     OW43122  11.487   6.970   0.480  0.4398  0.4801 -0.5019
45506SOL    HW143123  11.484   6.986   0.386  1.2494  0.3238 -0.5607
45506SOL    HW243124  11.580   6.967   0.501  0.2830  1.6877  0.5084
45507SOL     OW43125  10.383   5.491  12.055 -0.5053  0.5014  0.0659
45507SOL    HW143126  10.296   5.527  12.072 -2.1723 -2.5022 -1.3136
45507SOL    HW243127  10.367   5.417  11.996  2.8417 -0.9870  0.8028
45508SOL     OW43128  12.055  11.843   9.604  0.6147  0.2882  0.3588
45508SOL    HW143129  12.049  11.796   9.687  1.6591 -0.0363  0.2789
45508SOL    HW243130  12.139  11.890   9.610  0.9030 -0.0750 -0.6638
45509SOL     OW43131   0.337   7.434   1.774 -0.0507 -0.0250  0.5325
45509SOL    HW143132   0.429   7.422   1.749  0.3241  2.2580  0.6580
45509SOL    HW243133   0.340   7.460   1.866 -0.7487  0.7990  0.3392
45510SOL     OW43134   7.921  11.242   9.354  0.7158 -0.4775  0.5936
45510SOL    HW143135   7.880  11.219   9.270 -0.2027 -1.9239  1.3877
45510SOL    HW243136   7.972  11.164   9.378 -0.3259 -0.7361  2.1174
45511SOL     OW43137  11.690   2.662   6.789 -0.1452  0.2807 -0.0781
45511SOL    HW143138  11.734   2.684   6.872  1.1052 -0.5827 -0.4931
45511SOL    HW243139  11.761   2.640   6.729 -1.1185 -0.6512 -0.9286
45512SOL     OW43140   4.976  10.246  11.541  0.0073  0.0181 -0.2559
45512SOL    HW143141   5.010  10.335  11.550  0.1970 -0.2183  1.6717
45512SOL    HW243142   4.886  10.258  11.510 -0.0211  0.8903  0.1386
45513SOL     OW43143   1.977   6.626  10.925  0.1920 -0.2577  0.9344
45513SOL    HW143144   1.928   6.689  10.979  0.9768  0.9844  0.2481
45513SOL    HW243145   1.931   6.627  10.841 -1.0533 -2.2173  1.5454
45514SOL     OW43146   1.803   2.365  12.011  0.3052  0.2754 -0.3673
45514SOL    HW143147   1.777   2.455  11.989 -0.6008 -0.1037 -0.9094
45514SOL    HW243148   1.759   2.347  12.094 -1.4046 -0.4311 -1.3762
45515SOL     OW43149  10.999   6.237   5.716 -0.1998  0.3817 -0.8208
45515SOL    HW143150  11.030   6.148   5.704 -0.9697  0.3494 -2.9125
45515SOL    HW243151  10.931   6.230   5.783  0.7877 -0.3252  0.1430
45516SOL     OW43152  11.595   2.652  11.318 -0.1870 -0.0641 -0.1838
45516SOL    HW143153  11.598   2.624  11.226  0.1747 -0.5821 -0.0190
45516SOL    HW243154  11.515   2.704  11.325 -0.7721 -0.9102 -0.5385
45517SOL     OW43155  11.978  12.596   9.231 -0.4883  0.0153  0.1671
45517SOL    HW143156  11.928  12.647   9.294 -0.2701  0.8273 -0.3003
45517SOL    HW243157  12.038  12.543   9.284 -1.6799 -0.8081  0.7256
45518SOL     OW43158   1.991   1.343  10.013  0.3546 -0.2216  0.1311
45518SOL    HW143159   2.007   1.434   9.986  0.1709  0.1516  1.2508
45518SOL    HW243160   1.916   1.349  10.072  0.1649 -1.1499 -0.0015
45519SOL     OW43161   0.015   4.061   9.258  0.0503  0.2139 -0.3987
45519SOL    HW143162   0.018   4.077   9.353  0.1031 -0.6073 -0.2510
45519SOL    HW243163  -0.071   4.022   9.243  0.9310 -1.9068 -0.2853
45520SOL     OW43164   8.419   8.252   3.870  0.2496  0.0727  0.1869
45520SOL    HW143165   8.354   8.226   3.935 -0.6392  1.2950 -0.1663
45520SOL    HW243166   8.451   8.170   3.833 -0.7457 -0.5667  0.7116
45521SOL     OW43167   0.739   6.863   8.717  0.0311 -0.6515 -0.1673
45521SOL    HW143168   0.748   6.768   8.709 -0.0959 -0.7656  0.9342
45521SOL    HW243169   0.805   6.888   8.782 -0.2972 -0.0546 -0.0604
45522SOL     OW43170   9.466  10.743   5.447 -0.4951 -0.0962 -0.1442
45522SOL    HW143171   9.416  10.823   5.462  1.1019  0.9836 -0.3876
45522SOL    HW243172   9.444  10.718   5.357  1.4137  1.9117 -1.2521
45523SOL     OW43173   1.097  11.529   0.326  0.4086  0.5769 -0.0852
45523SOL    HW143174   1.028  11.469   0.354 -0.2742  0.9900 -0.8397
45523SOL    HW243175   1.151  11.477   0.266 -0.5349  0.8666 -1.2161
45524SOL     OW43176   1.768   4.239   1.439 -0.4395 -0.5365  0.6705
45524SOL    HW143177   1.734   4.162   1.395  0.0132  0.2390 -1.1513
45524SOL    HW243178   1.748   4.311   1.379  2.5473  0.2127  0.3822
45525SOL     OW43179   2.364   9.085   2.464  0.6799 -0.4657 -0.2673
45525SOL    HW143180   2.396   9.057   2.550  0.5407  0.1229 -0.0206
45525SOL    HW243181   2.277   9.047   2.458 -0.0574  0.9674  0.6379
45526SOL     OW43182   9.693   4.080  12.653 -0.3263  0.2796 -0.5530
45526SOL    HW143183   9.748   4.132  12.594  0.6688 -0.6270 -0.4656
45526SOL    HW243184   9.627   4.040  12.596  0.2159 -0.0568 -0.9507
45527SOL     OW43185   7.404  11.552   7.792 -0.0031 -0.2376 -1.0662
45527SOL    HW143186   7.354  11.479   7.756 -3.1478  1.9740 -1.5943
45527SOL    HW243187   7.357  11.576   7.872  1.1306  0.9958 -0.7352
45528SOL     OW43188   5.643   9.432   3.241 -0.0013 -0.0860 -0.1699
45528SOL    HW143189   5.572   9.450   3.304  0.0879 -0.8039  0.1499
45528SOL    HW243190   5.669   9.518   3.209  1.5491  0.5545  2.5357
45529SOL     OW43191   1.365  11.971  11.908 -0.0131 -0.1478 -0.3981
45529SOL    HW143192   1.351  11.922  11.827 -1.2684  0.7752 -0.7601
45529SOL    HW243193   1.455  12.000  11.903  0.0525 -0.4632 -1.2599
45530SOL     OW43194   3.532   7.513   1.397 -0.1079  0.1750  0.4681
45530SOL    HW143195   3.441   7.536   1.378 -1.0669 -2.4440  1.5112
45530SOL    HW243196   3.582   7.591   1.370 -2.6427  1.8358  0.2015
45531SOL     OW43197   3.780   4.246   9.622  0.4303  0.1545  0.3508
45531SOL    HW143198   3.818   4.212   9.541  1.0945  1.5713  0.0327
45531SOL    HW243199   3.808   4.338   9.625 -0.2568  0.3470  1.7820
45532SOL     OW43200  12.299   6.280  12.736 -0.0545 -0.6666  0.0156
45532SOL    HW143201  12.288   6.204  12.679 -1.8434  0.4519 -1.2340
45532SOL    HW243202  12.216   6.287  12.783 -0.2566  1.0054 -0.5416
45533SOL     OW43203  11.635  10.916   4.198  0.1639 -0.3803 -0.0496
45533SOL    HW143204  11.641  10.977   4.125  0.3511 -0.5479 -0.1748
45533SOL    HW243205  11.671  10.964   4.272 -0.6881  0.0476  0.0961
45534SOL     OW43206  11.558   5.731   2.023  0.4277 -0.1424 -0.2533
45534SOL    HW143207  11.630   5.687   1.978  0.1104 -0.9890  0.0462
45534SOL    HW243208  11.519   5.662   2.078 -0.0990  0.5085  0.1966
45535SOL     OW43209   1.822  10.328  10.541 -0.1413 -0.2505 -0.1646
45535SOL    HW143210   1.808  10.255  10.480 -0.6131  0.1326 -0.5269
45535SOL    HW243211   1.741  10.332  10.592 -0.2236  0.1830 -0.3243
45536SOL     OW43212   9.109   2.623   1.453 -0.0572 -0.2979  0.1292
45536SOL    HW143213   9.202   2.606   1.437  0.0290 -0.4065  0.7196
45536SOL    HW243214   9.073   2.642   1.366  0.7893  1.1036  0.0656
45537SOL     OW43215  11.786   6.422   6.059 -0.2404  0.1322 -0.4065
45537SOL    HW143216  11.822   6.442   5.973  1.1002 -2.0624 -0.4201
45537SOL    HW243217  11.849   6.457   6.121  0.0653 -0.4567 -0.3760
45538SOL     OW43218   2.232   8.486   5.903 -0.0996 -0.1125  0.4904
45538SOL    HW143219   2.287   8.563   5.916 -0.7181  0.1272  1.8912
45538SOL    HW243220   2.257   8.453   5.816  0.6154  1.2891  0.1312
45539SOL     OW43221  12.757   8.142  10.124  0.9761 -0.2870 -0.1572
45539SOL    HW143222  12.737   8.103  10.039 -1.8198  0.9466 -0.1607
45539SOL    HW243223  12.736   8.074  10.188 -1.8317  0.3694 -0.2719
45540SOL     OW43224  12.685   0.105   5.771  0.2131 -0.0083  0.1047
45540SOL    HW143225  12.737   0.123   5.693  2.8910 -4.0789  0.6382
45540SOL    HW243226  12.634   0.027   5.748 -2.1484  1.1308  1.1862
45541SOL     OW43227   0.390   9.348   3.683 -0.2554  0.2150 -0.3253
45541SOL    HW143228   0.370   9.355   3.776  2.5309  0.2719  0.3461
45541SOL    HW243229   0.351   9.426   3.644 -1.5899  0.1113  0.7341
45542SOL     OW43230   2.226   9.956  11.127 -0.2309  0.1126  0.0456
45542SOL    HW143231   2.145   9.910  11.105  1.0875 -1.3438 -2.0596
45542SOL    HW243232   2.224   9.964  11.223 -2.7777  0.0651  0.0557
45543SOL     OW43233   0.620   8.265   5.774 -0.2656 -0.7954 -0.7574
45543SOL    HW143234   0.577   8.212   5.841  0.3125 -0.0948  0.1953
45543SOL    HW243235   0.635   8.204   5.701 -1.1317 -1.5107 -0.3588
45544SOL     OW43236  10.173   9.513   5.984 -0.1135  0.1445 -0.2890
45544SOL    HW143237  10.175   9.472   5.897 -0.2698  0.8226 -0.6184
45544SOL    HW243238  10.176   9.439   6.045 -1.1004 -0.4075 -0.8680
45545SOL     OW43239  10.182   7.121   0.980  0.1916  0.3086  0.2222
45545SOL    HW143240  10.257   7.077   1.020 -0.1201 -1.4906 -1.0231
45545SOL    HW243241  10.129   7.150   1.054  2.1015  1.7176  1.1465
45546SOL     OW43242  10.527   4.440   3.345  0.2450  0.5442 -0.4480
45546SOL    HW143243  10.521   4.356   3.390  0.1129  1.1047  0.6071
45546SOL    HW243244  10.457   4.437   3.279 -0.5869  0.3080  0.4178
45547SOL     OW43245  10.038   3.786   1.914 -0.5399 -0.2210 -0.4080
45547SOL    HW143246  10.047   3.814   2.005  0.2060 -0.1478 -0.4996
45547SOL    HW243247  10.018   3.693   1.920 -1.7666  0.0406 -0.1403
45548SOL     OW43248   9.617   7.080   0.925  0.3688  0.0860  0.1535
45548SOL    HW143249   9.710   7.059   0.929  0.1280 -0.8754  3.1167
45548SOL    HW243250   9.607   7.155   0.983 -0.8245 -0.3090  0.4844
45549SOL     OW43251   0.545  10.615  10.777  0.0254 -0.4595 -0.0304
45549SOL    HW143252   0.462  10.591  10.735  0.3193 -1.8374  0.1224
45549SOL    HW243253   0.612  10.570  10.725  0.7793  1.3181 -0.6700
45550SOL     OW43254   0.038   0.398  12.076 -0.2572 -0.1095 -0.2903
45550SOL    HW143255  -0.054   0.397  12.102 -0.3036  2.9827 -0.0030
45550SOL    HW243256   0.077   0.467  12.129  1.7903 -0.0002 -1.8320
45551SOL     OW43257   4.280   1.423   0.621  0.0157 -0.3410  0.2906
45551SOL    HW143258   4.316   1.422   0.710  0.0757 -0.9642  0.2633
45551SOL    HW243259   4.283   1.332   0.593  1.5398  0.0476 -0.9800
45552SOL     OW43260   1.541  11.079   6.771 -0.2703 -0.3597  0.2294
45552SOL    HW143261   1.617  11.024   6.755  0.1080 -0.2306  1.4694
45552SOL    HW243262   1.468  11.017   6.780 -0.0861 -0.5729  0.2670
45553SOL     OW43263   6.137  11.610   5.157  0.2714 -0.7315  0.3603
45553SOL    HW143264   6.110  11.518   5.163  2.1822 -1.3647 -0.2183
45553SOL    HW243265   6.111  11.647   5.242 -2.1116 -1.3020 -0.0404
45554SOL     OW43266   0.441  12.750   4.650  0.2276 -0.1060 -0.2862
45554SOL    HW143267   0.419  12.815   4.583  0.2349  2.1487  1.7625
45554SOL    HW243268   0.506  12.694   4.608  3.5272  3.7730 -1.0204
45555SOL     OW43269   9.437  11.745   8.150  0.2364 -0.0246 -0.1647
45555SOL    HW143270   9.454  11.679   8.084  2.2632  1.4029 -1.1824
45555SOL    HW243271   9.487  11.717   8.227  1.5160  0.5443 -0.7672
45556SOL     OW43272   9.725  10.587   3.393 -0.3742 -0.1016  0.4571
45556SOL    HW143273   9.720  10.500   3.431 -1.1299 -0.0436  0.4971
45556SOL    HW243274   9.693  10.576   3.303 -1.6248  0.3507  0.8336
45557SOL     OW43275   7.459   7.402  10.242 -0.1549  0.0770  0.0952
45557SOL    HW143276   7.381   7.402  10.297 -1.9271 -1.9097 -2.1781
45557SOL    HW243277   7.529   7.369  10.299 -1.2048  0.7281  1.8515
45558SOL     OW43278   5.885   6.097   7.741 -0.2297 -0.2579 -0.0884
45558SOL    HW143279   5.842   6.178   7.713  0.7814 -0.1827 -1.5574
45558SOL    HW243280   5.965   6.126   7.785 -0.2743 -0.4497  0.1217
45559SOL     OW43281   7.162   8.836   2.037  0.0502 -0.3468 -0.1006
45559SOL    HW143282   7.108   8.762   2.007 -2.1035  1.0932 -0.0041
45559SOL    HW243283   7.175   8.889   1.959 -1.3492  0.8688  0.4397
45560SOL     OW43284   2.576   5.705   1.785  0.7479 -0.3577 -0.3790
45560SOL    HW143285   2.530   5.631   1.745 -0.6451  0.0376  0.4177
45560SOL    HW243286   2.539   5.782   1.743  1.5515 -0.0683 -0.5682
45561SOL     OW43287   2.965  10.026   7.435  0.2417  0.0577 -0.0519
45561SOL    HW143288   2.900   9.965   7.469 -0.1879  0.9785  0.8277
45561SOL    HW243289   2.932  10.051   7.349 -1.7810  2.1867  1.2411
45562SOL     OW43290   9.758   3.824  10.969  0.2400 -0.9735 -0.1474
45562SOL    HW143291   9.691   3.762  10.942 -0.0039 -0.7619 -0.0251
45562SOL    HW243292   9.839   3.772  10.971  0.1037 -1.1992 -0.4078
45563SOL     OW43293   0.960   4.002   3.829 -0.7898 -0.2795  0.3282
45563SOL    HW143294   0.978   4.064   3.900  1.7644 -0.3541 -0.1634
45563SOL    HW243295   1.012   3.924   3.851  1.1977  0.1802 -2.1793
45564SOL     OW43296   2.138   6.048   2.054 -0.1451 -0.0032 -0.1396
45564SOL    HW143297   2.216   6.070   2.105  0.4341  0.7209 -1.3035
45564SOL    HW243298   2.125   6.123   1.996  1.4695 -2.2549 -3.7562
45565SOL     OW43299   7.682   1.154   6.498 -0.1201  0.3751 -0.5638
45565SOL    HW143300   7.674   1.060   6.478 -0.4945 -0.1657  1.7602
45565SOL    HW243301   7.740   1.188   6.430 -1.6948 -1.0628 -2.7654
45566SOL     OW43302   8.618  12.095   9.075  0.1145 -0.1253 -0.7293
45566SOL    HW143303   8.690  12.054   9.027  0.9656  1.7985 -1.2012
45566SOL    HW243304   8.654  12.180   9.103 -1.5961  0.3764  0.0632
45567SOL     OW43305  12.282   6.942  10.520  0.1901 -0.0901 -0.4989
45567SOL    HW143306  12.289   7.011  10.586  0.2197  1.0775 -1.6696
45567SOL    HW243307  12.197   6.901  10.538 -0.2138  0.8084 -0.2657
45568SOL     OW43308   2.057   4.454   0.586  0.1946  0.0968  0.5662
45568SOL    HW143309   2.001   4.482   0.513 -1.1455 -1.2841  1.0139
45568SOL    HW243310   2.049   4.525   0.650  1.2004  1.2142 -0.4784
45569SOL     OW43311   4.056   4.801   8.276  0.5152  0.4051  0.0337
45569SOL    HW143312   4.130   4.853   8.306  2.0909 -1.3544 -0.5842
45569SOL    HW243313   4.051   4.728   8.338 -1.9558  1.4230  1.1792
45570SOL     OW43314   9.586   2.969   5.906 -0.5483  0.2440  0.1593
45570SOL    HW143315   9.552   3.057   5.922 -1.8192 -0.5174  2.0155
45570SOL    HW243316   9.509   2.918   5.880  0.0332 -0.4852 -0.1713
45571SOL     OW43317   0.472   3.625   2.677 -0.7901 -0.3575 -0.1648
45571SOL    HW143318   0.417   3.703   2.672 -1.1776 -0.6499 -0.6229
45571SOL    HW243319   0.410   3.553   2.692 -0.5846 -0.7429 -1.0965
45572SOL     OW43320   1.691  11.687  10.057 -0.1266  0.3440 -0.6009
45572SOL    HW143321   1.653  11.690   9.969 -0.6032 -0.5020 -0.4371
45572SOL    HW243322   1.786  11.691  10.042 -0.1982  0.0145 -1.1751
45573SOL     OW43323   5.431   2.013   6.413 -0.0073  0.0323  0.2410
45573SOL    HW143324   5.420   2.058   6.498 -1.0580 -0.9551  0.6557
45573SOL    HW243325   5.506   2.057   6.373  0.1036  0.9717  1.3919
45574SOL     OW43326   9.560   9.707  11.797 -0.4341  0.1754 -0.6996
45574SOL    HW143327   9.538   9.646  11.867  1.1562 -1.1289 -1.2607
45574SOL    HW243328   9.501   9.781  11.810 -2.4995 -1.4728 -0.0096
45575SOL     OW43329   0.228   5.200   3.165  0.3441  0.7896  0.2187
45575SOL    HW143330   0.282   5.241   3.234  0.9042 -0.9693  0.8889
45575SOL    HW243331   0.144   5.245   3.171  0.5770  1.1129  1.6656
45576SOL     OW43332   3.971  12.464   1.120 -0.1950  0.8638  0.0633
45576SOL    HW143333   3.962  12.529   1.050  1.2455  1.3416  0.2927
45576SOL    HW243334   3.923  12.501   1.194 -0.3499  1.1340 -0.1729
45577SOL     OW43335  10.954   0.568   3.871  0.0297 -0.0375  0.7863
45577SOL    HW143336  10.931   0.524   3.952 -0.2410 -0.7756  0.3213
45577SOL    HW243337  10.942   0.501   3.803 -1.0494  0.9182 -0.0143
45578SOL     OW43338   3.148  12.183   7.456  0.1645  0.0083  0.0212
45578SOL    HW143339   3.124  12.276   7.455  0.8058  0.2071  1.0753
45578SOL    HW243340   3.233  12.181   7.501  0.2971 -1.0597 -0.2488
45579SOL     OW43341   6.111   1.391   9.455  0.8817 -0.0432  0.0180
45579SOL    HW143342   6.095   1.410   9.363  2.5596  0.1708 -0.2663
45579SOL    HW243343   6.168   1.462   9.485 -0.3662  0.4016  1.4916
45580SOL     OW43344   5.123   4.852   9.470 -0.1479 -0.1698 -0.4370
45580SOL    HW143345   5.096   4.780   9.414  2.5371  0.3308 -2.6330
45580SOL    HW243346   5.057   4.919   9.457 -0.4074 -0.6588 -1.8666
45581SOL     OW43347   5.152   7.638   9.679 -0.4282  0.1432  0.7736
45581SOL    HW143348   5.109   7.704   9.625 -1.1660 -0.7689  0.2223
45581SOL    HW243349   5.220   7.687   9.727  0.5149  0.9181 -1.2514
45582SOL     OW43350   3.359   8.008  11.979 -0.1728  0.2806 -0.2595
45582SOL    HW143351   3.442   7.964  11.965  0.0312  0.4923  0.3003
45582SOL    HW243352   3.317   8.007  11.892  0.1666 -0.3114 -0.4218
45583SOL     OW43353   8.359   9.853   7.756  0.0507 -0.0842 -0.2706
45583SOL    HW143354   8.403   9.915   7.697  0.1130 -1.1433 -1.3766
45583SOL    HW243355   8.386   9.767   7.725 -2.1722 -0.7603 -0.5037
45584SOL     OW43356   0.919  12.294   9.161 -0.0153  1.0462 -0.0451
45584SOL    HW143357   0.894  12.340   9.080  1.2954  0.7296 -0.6511
45584SOL    HW243358   1.014  12.285   9.155 -0.2364 -2.6062 -0.4502
45585SOL     OW43359   0.922   9.786   7.894 -0.2962 -0.2287 -0.3923
45585SOL    HW143360   0.892   9.749   7.976 -3.3624  0.4293 -1.0833
45585SOL    HW243361   0.940   9.878   7.914  0.3481 -0.3883 -0.1984
45586SOL     OW43362  12.671   0.965  11.042 -0.1668  0.3632  0.0569
45586SOL    HW143363  12.727   1.016  10.984 -1.9206  1.0614 -1.0937
45586SOL    HW243364  12.587   1.011  11.043 -0.9712 -1.0093  1.1651
45587SOL     OW43365   1.911  10.278   6.330  0.6709  0.4078 -0.5550
45587SOL    HW143366   1.883  10.367   6.352 -2.0949 -0.2222 -1.1961
45587SOL    HW243367   1.943  10.285   6.240  0.8699  0.8228 -0.4544
45588SOL     OW43368   3.488   5.962  12.719  0.3797 -0.1718  0.0496
45588SOL    HW143369   3.410   6.008  12.689  1.0862  0.8051 -0.3730
45588SOL    HW243370   3.555   5.983  12.653  1.5790  0.8438  1.5063
45589SOL     OW43371   7.037   7.932  12.240  0.5762  0.5517  0.4626
45589SOL    HW143372   7.001   7.866  12.181  0.3338 -1.0212  2.2633
45589SOL    HW243373   7.081   7.994  12.182  3.8587 -2.9452 -1.3232
45590SOL     OW43374   8.617  12.378   0.003 -0.1758  0.5049 -0.8456
45590SOL    HW143375   8.625  12.473  -0.004  1.0842  0.5213  0.5068
45590SOL    HW243376   8.607  12.361   0.096 -2.4525 -0.5945 -1.2042
45591SOL     OW43377   7.481  10.589  12.275  0.4281 -0.0916 -0.1037
45591SOL    HW143378   7.425  10.665  12.260  1.2329  0.4454 -0.4668
45591SOL    HW243379   7.452  10.555  12.360 -0.0472  0.5246 -0.0045
45592SOL     OW43380  11.575   0.846   0.752 -0.0818 -0.1199  0.1549
45592SOL    HW143381  11.564   0.867   0.845 -0.2409  1.7947 -0.2540
45592SOL    HW243382  11.669   0.836   0.741 -0.0299  0.0130  0.4606
45593SOL     OW43383   9.854  10.712   5.786 -0.0128 -0.2117  0.1636
45593SOL    HW143384   9.826  10.791   5.741  0.5443  0.5326  1.0850
45593SOL    HW243385   9.833  10.729   5.878  2.0395 -0.2567  0.6762
45594SOL     OW43386   3.167   0.362   1.402 -0.3989  0.6299 -0.1228
45594SOL    HW143387   3.086   0.398   1.366 -1.0840 -2.2260 -1.8375
45594SOL    HW243388   3.148   0.269   1.414  2.0792  0.2123  1.2201
45595SOL     OW43389   3.754   9.144   6.698 -0.0289  0.4123  0.0622
45595SOL    HW143390   3.775   9.057   6.665  0.4296 -0.8502  3.2548
45595SOL    HW243391   3.661   9.141   6.720 -0.0716  0.8032 -0.0547
45596SOL     OW43392   4.205   6.152  11.348  0.2066  0.1639 -0.1465
45596SOL    HW143393   4.124   6.202  11.355  0.4149  0.4605  0.1772
45596SOL    HW243394   4.261   6.188  11.417 -0.0957 -1.3676  0.9643
45597SOL     OW43395   4.301   7.138  10.967 -0.0991 -0.2640  0.0725
45597SOL    HW143396   4.249   7.146  11.047 -0.8802  0.8186 -0.5138
45597SOL    HW243397   4.265   7.061  10.922 -1.6600  0.7963 -0.6038
45598SOL     OW43398  11.508   3.903  11.056  0.0523 -0.0820 -0.1777
45598SOL    HW143399  11.602   3.891  11.043  0.3157  0.8571  0.6465
45598SOL    HW243400  11.485   3.838  11.122  0.0441 -0.5384 -0.6223
45599SOL     OW43401   5.033   3.301   9.939  0.2116  0.3169  0.3648
45599SOL    HW143402   5.115   3.265   9.905 -0.3485 -0.9411  0.2734
45599SOL    HW243403   5.060   3.359  10.009  1.2015  0.1507  0.1456
45600SOL     OW43404  12.014   2.136   3.922  0.6236  0.0754  0.4719
45600SOL    HW143405  11.966   2.057   3.899 -0.2013  0.3549  1.1669
45600SOL    HW243406  12.035   2.125   4.015 -1.4844  1.6128  1.2257
45601SOL     OW43407   7.592   0.160   7.028  0.6895  0.5358  0.4156
45601SOL    HW143408   7.540   0.172   6.949  0.0454 -1.0422  0.5757
45601SOL    HW243409   7.683   0.163   6.997  0.4545  0.3641 -0.3078
45602SOL     OW43410   0.786   8.982  11.987  0.3907  0.3143  0.0391
45602SOL    HW143411   0.758   8.969  12.078  0.3876 -1.1927 -0.1610
45602SOL    HW243412   0.718   9.038  11.950 -0.1822  0.0628  0.6755
45603SOL     OW43413   8.634   7.712   3.921 -0.4108  0.1294 -0.0914
45603SOL    HW143414   8.630   7.638   3.980  0.6267  1.1226  1.2897
45603SOL    HW243415   8.659   7.674   3.836 -3.3338 -1.4994 -0.3529
45604SOL     OW43416  10.152   2.284   9.796 -0.3264 -0.0683  0.4376
45604SOL    HW143417  10.146   2.219   9.727 -1.7269  0.4026  0.0892
45604SOL    HW243418  10.066   2.284   9.838  0.3709 -0.0749  1.9468
45605SOL     OW43419   1.585   4.862   1.343  0.0010 -0.5762 -0.3987
45605SOL    HW143420   1.511   4.879   1.401  1.9656  1.3201  1.7024
45605SOL    HW243421   1.545   4.857   1.256 -2.5058  1.2419  0.5117
45606SOL     OW43422   9.497  10.921   0.016  0.2550  0.2950  0.0422
45606SOL    HW143423   9.446  10.879   0.086  1.2789 -1.5418 -0.2418
45606SOL    HW243424   9.431  10.953  -0.045 -0.6126  0.3117  0.9592
45607SOL     OW43425   3.707   2.529   5.322  0.0414 -0.8158 -0.1210
45607SOL    HW143426   3.617   2.513   5.351  0.1968 -0.5721  0.5045
45607SOL    HW243427   3.702   2.522   5.226 -0.5699 -1.1640 -0.0767
45608SOL     OW43428   3.413  11.507  12.670  0.0788  0.4092 -0.5383
45608SOL    HW143429   3.424  11.464  12.585  0.7092  0.4482 -0.4812
45608SOL    HW243430   3.391  11.435  12.730 -1.0319  0.4693 -0.8510
45609SOL     OW43431   3.747  12.682   0.951  0.0964  0.5811 -0.2764
45609SOL    HW143432   3.813  12.693   0.883 -0.1019  1.6998 -0.3121
45609SOL    HW243433   3.681  12.749   0.932 -0.2286  0.5699  0.7045
45610SOL     OW43434   9.542   1.271   9.302  0.2788  0.1171 -0.3879
45610SOL    HW143435   9.547   1.359   9.340 -0.6392 -0.6330  1.6087
45610SOL    HW243436   9.612   1.222   9.346 -0.9609 -0.8371  0.5913
45611SOL     OW43437   6.709  12.248   8.615 -0.4779  0.1431 -0.2026
45611SOL    HW143438   6.623  12.221   8.647 -0.1705  1.7260  2.1962
45611SOL    HW243439   6.702  12.343   8.606  0.7424  0.1839 -0.9663
45612SOL     OW43440   4.230  11.047   4.780 -0.4783  0.0164  0.1007
45612SOL    HW143441   4.152  11.064   4.832 -0.6222  3.7838 -1.0546
45612SOL    HW243442   4.303  11.061   4.841 -0.5690 -2.3256  0.8649
45613SOL     OW43443   9.303   1.449   8.674 -0.3215  0.0801 -0.4196
45613SOL    HW143444   9.395   1.471   8.688  0.3076 -1.7521 -1.3388
45613SOL    HW243445   9.283   1.386   8.743 -0.9779  0.6190 -0.1006
45614SOL     OW43446   6.734   3.800   5.174  0.0386  0.0984  0.0402
45614SOL    HW143447   6.771   3.770   5.258  3.2210  0.2044 -1.1978
45614SOL    HW243448   6.724   3.720   5.123 -2.0208  0.0207  0.4764
45615SOL     OW43449   0.349   1.419   9.651  0.2088  0.3825 -0.1211
45615SOL    HW143450   0.370   1.374   9.569  3.8927  0.3876  0.6119
45615SOL    HW243451   0.355   1.351   9.718  0.9135  1.0283  0.4896
45616SOL     OW43452   3.596   7.652   1.000 -0.5486  0.2447  0.2886
45616SOL    HW143453   3.520   7.666   0.944 -0.4558 -1.5360 -0.3327
45616SOL    HW243454   3.563   7.667   1.089 -1.2084  1.0694 -0.0789
45617SOL     OW43455   0.289   6.860   2.614 -0.1416  0.3790  0.0467
45617SOL    HW143456   0.353   6.814   2.668 -0.7500 -0.2676  0.2372
45617SOL    HW243457   0.235   6.908   2.676 -0.3390  0.2804 -0.0476
45618SOL     OW43458   3.135   9.475  11.911  0.0845  0.0019  0.3739
45618SOL    HW143459   3.124   9.514  11.825  0.5032  1.0176  0.7679
45618SOL    HW243460   3.228   9.487  11.931  0.4363 -1.9722  0.1570
45619SOL     OW43461   9.210   8.436   8.578  0.0629 -0.5013  0.7054
45619SOL    HW143462   9.259   8.361   8.612  0.9578 -0.1550  0.2358
45619SOL    HW243463   9.235   8.441   8.485  2.4747  2.1382  1.3303
45620SOL     OW43464   1.516  12.578  11.510 -0.3666 -0.1679  0.4167
45620SOL    HW143465   1.455  12.629  11.564  0.2702  0.4339  0.5885
45620SOL    HW243466   1.469  12.498  11.489 -1.7280  0.8326 -0.5355
45621SOL     OW43467   6.535  10.283   2.450  0.2119 -0.0177 -0.1414
45621SOL    HW143468   6.503  10.333   2.525 -0.9015  0.7380 -1.0689
45621SOL    HW243469   6.498  10.195   2.462 -1.1380  0.4716 -0.4758
45622SOL     OW43470   0.367   9.075  11.517  0.5147  0.1396  0.0044
45622SOL    HW143471   0.348   9.040  11.604 -0.7473 -2.6079 -1.2550
45622SOL    HW243472   0.318   9.158  11.513 -0.1212 -0.1254  1.5878
45623SOL     OW43473   8.560   7.575  12.604  0.2681 -0.4881 -0.6091
45623SOL    HW143474   8.544   7.663  12.571 -1.0827 -0.5560 -0.2134
45623SOL    HW243475   8.473   7.535  12.608  0.7823 -1.6105 -0.1596
45624SOL     OW43476   7.749   1.639   8.033 -0.2332  0.5714  0.1607
45624SOL    HW143477   7.827   1.673   7.988 -0.9805  2.8248  0.4325
45624SOL    HW243478   7.721   1.711   8.090 -2.6321 -0.0948 -0.0687
45625SOL     OW43479  11.513   4.887   1.088 -0.3305 -0.1185 -0.0526
45625SOL    HW143480  11.487   4.857   1.001  1.0776  1.1659 -0.9720
45625SOL    HW243481  11.604   4.913   1.078 -0.7311  2.0592  1.2698
45626SOL     OW43482   4.482   2.121   6.866 -0.2699  0.8350  0.0628
45626SOL    HW143483   4.514   2.077   6.945  0.9961  2.4932  0.5097
45626SOL    HW243484   4.427   2.055   6.823  1.0850 -0.9774  0.9887
45627SOL     OW43485   5.942   6.168  10.845 -0.1402  0.2497 -0.0073
45627SOL    HW143486   6.034   6.159  10.870 -0.1796 -0.7229 -0.1904
45627SOL    HW243487   5.899   6.089  10.879 -0.5939 -0.0790 -1.3033
45628SOL     OW43488  12.681  10.114  11.893 -0.0232  0.3072  0.2010
45628SOL    HW143489  12.716  10.100  11.981 -0.8175  0.6467  0.5869
45628SOL    HW243490  12.749  10.163  11.847 -0.2658  1.6155  1.1610
45629SOL     OW43491   1.751  12.283   5.988  0.0412 -0.4022 -0.4570
45629SOL    HW143492   1.800  12.322   6.060 -1.4606  2.9894 -1.0868
45629SOL    HW243493   1.661  12.278   6.019 -0.4013 -0.0760 -1.6311
45630SOL     OW43494   4.720   5.527   7.815 -0.0413 -0.0615  0.1206
45630SOL    HW143495   4.679   5.563   7.894 -1.8779 -0.7626 -0.4669
45630SOL    HW243496   4.666   5.558   7.743  0.3733 -1.1470 -0.6820
45631SOL     OW43497  10.502   6.137   9.766  0.6148  0.1993  0.1406
45631SOL    HW143498  10.466   6.226   9.770 -0.1874 -0.1680  2.3251
45631SOL    HW243499  10.460   6.091   9.838  2.6613 -1.3467  0.4399
45632SOL     OW43500   3.783   4.799   8.194 -0.4147 -0.0391  0.2391
45632SOL    HW143501   3.874   4.799   8.226  0.0750 -1.2068 -1.0392
45632SOL    HW243502   3.755   4.708   8.202  0.1346 -0.6943 -3.5373
45633SOL     OW43503   0.357   8.381   4.168  0.1324 -0.1662  0.3519
45633SOL    HW143504   0.399   8.462   4.197  0.8029 -0.5904  0.5868
45633SOL    HW243505   0.409   8.351   4.093 -1.6277  0.9621 -1.4397
45634SOL     OW43506   7.323  12.343   2.460  0.0445  0.2591 -0.3406
45634SOL    HW143507   7.372  12.283   2.404  0.8343  2.5626 -2.3322
45634SOL    HW243508   7.235  12.345   2.422 -0.0360  0.1988 -0.1564
45635SOL     OW43509   2.598  10.645  10.761 -0.0853  0.5748  0.1211
45635SOL    HW143510   2.610  10.575  10.697 -1.5045  0.0787  0.3608
45635SOL    HW243511   2.668  10.631  10.825 -0.4599 -0.7675  0.2720
45636SOL     OW43512   9.920   0.912  12.451  0.0273 -0.4421 -0.7031
45636SOL    HW143513   9.915   0.948  12.540 -0.0900  2.0468 -1.6475
45636SOL    HW243514   9.970   0.831  12.461  0.7988  0.2267  1.4974
45637SOL     OW43515  11.845   2.736   7.007 -0.4324 -0.6980 -0.1586
45637SOL    HW143516  11.829   2.705   7.096  0.5734  0.3071  0.3889
45637SOL    HW243517  11.868   2.829   7.017 -1.4718 -0.2532 -1.5762
45638SOL     OW43518  11.676   6.614   7.567  0.0123 -0.5625  1.3347
45638SOL    HW143519  11.652   6.684   7.628 -2.5402  1.5261 -1.7061
45638SOL    HW243520  11.598   6.603   7.512  2.7408 -0.5217 -3.0351
45639SOL     OW43521  11.799   2.203   4.105 -0.3736 -0.5600  0.3218
45639SOL    HW143522  11.780   2.120   4.060  3.2020 -0.1116 -2.4623
45639SOL    HW243523  11.881   2.187   4.151 -0.5184  0.9974  1.1770
45640SOL     OW43524   2.735   5.551   3.718  0.0566  0.4704 -0.1470
45640SOL    HW143525   2.704   5.575   3.805  1.0856  0.5117  0.2248
45640SOL    HW243526   2.678   5.479   3.691  0.2466 -0.0950  0.9063
45641SOL     OW43527  11.856   4.823   1.662 -0.5618 -0.1530  0.3775
45641SOL    HW143528  11.852   4.745   1.607 -0.5794  0.1366 -0.0389
45641SOL    HW243529  11.855   4.790   1.752 -1.2776 -0.5981  0.2123
45642SOL     OW43530   2.678   5.401   2.640 -0.1537 -0.5419 -0.2452
45642SOL    HW143531   2.616   5.460   2.597 -0.6957 -1.8791 -1.3768
45642SOL    HW243532   2.630   5.318   2.649  1.0086 -1.1988  0.1180
45643SOL     OW43533   4.930  10.821   2.103 -0.3962 -0.4119  0.0048
45643SOL    HW143534   4.864  10.842   2.170  0.8267  2.7648  0.3686
45643SOL    HW243535   4.920  10.727   2.089 -2.8620 -0.6204  2.3084
45644SOL     OW43536  11.820   3.041   9.799  0.1240 -0.1916 -0.0543
45644SOL    HW143537  11.752   3.005   9.741 -0.4767 -0.1810  0.6300
45644SOL    HW243538  11.883   2.969   9.809 -0.3772 -0.6024  0.2197
45645SOL     OW43539   5.870  12.429   9.164  0.3212 -0.0933 -0.4973
45645SOL    HW143540   5.817  12.354   9.194  0.0114  0.5670  0.7040
45645SOL    HW243541   5.960  12.400   9.175  0.2077 -0.1517  0.4129
45646SOL     OW43542   6.794   8.516  10.427  0.6403  0.3465 -0.3474
45646SOL    HW143543   6.818   8.427  10.400  0.6507  0.8025 -1.8970
45646SOL    HW243544   6.877   8.557  10.450  1.2050  1.1498 -3.3870
45647SOL     OW43545   0.841   7.289   7.202 -0.3166 -0.2994 -0.5309
45647SOL    HW143546   0.854   7.310   7.295 -0.7899 -3.2214  0.3229
45647SOL    HW243547   0.774   7.351   7.173  1.3265  2.0532  0.4355
45648SOL     OW43548   3.841   6.913   6.066 -0.0970 -0.6516  0.3613
45648SOL    HW143549   3.796   6.956   6.139 -0.8363 -1.6285  0.5011
45648SOL    HW243550   3.775   6.902   5.999  0.6736  0.5779 -0.6363
45649SOL     OW43551   0.665  12.602   4.512 -0.6829  0.5461 -0.4352
45649SOL    HW143552   0.626  12.530   4.462 -0.9654 -0.3462  1.0108
45649SOL    HW243553   0.664  12.571   4.603  2.9093  0.6850 -0.2124
45650SOL     OW43554   2.357   5.238   6.177 -0.0909 -0.3016 -0.0996
45650SOL    HW143555   2.330   5.233   6.269 -2.2789  0.1212 -0.6524
45650SOL    HW243556   2.401   5.155   6.161 -0.7861 -0.9225  1.0212
45651SOL     OW43557   5.032  12.270   7.362 -0.3244  0.5523 -0.1218
45651SOL    HW143558   5.029  12.271   7.267  0.5639 -0.6240 -0.1915
45651SOL    HW243559   4.945  12.297   7.390 -0.0074  2.9261 -1.2312
45652SOL     OW43560   6.881  12.662   7.245  0.0921 -0.0169  0.1480
45652SOL    HW143561   6.958  12.716   7.227  1.3296 -1.1053  1.8339
45652SOL    HW243562   6.875  12.660   7.341 -0.4363 -2.1091  0.1214
45653SOL     OW43563   9.902  12.148  12.543  0.8698  0.2013  0.1554
45653SOL    HW143564   9.888  12.199  12.463 -1.5530  3.1681  2.2517
45653SOL    HW243565   9.845  12.071  12.532 -0.8939  1.4968 -0.3342
45654SOL     OW43566   7.408   2.343   3.648 -0.3746  0.2029 -0.1376
45654SOL    HW143567   7.324   2.341   3.695  0.3712 -1.2346  1.1879
45654SOL    HW243568   7.474   2.349   3.716  0.7604 -2.1452 -0.9315
45655SOL     OW43569   6.277   9.494   8.554 -0.1231 -0.3751 -0.5534
45655SOL    HW143570   6.251   9.473   8.464  2.7975 -1.2313 -1.2882
45655SOL    HW243571   6.344   9.430   8.576 -1.3026 -0.6957  2.6055
45656SOL     OW43572   9.937   7.327   3.970 -0.4306 -0.2493 -0.5856
45656SOL    HW143573   9.960   7.303   3.881  0.6570  0.6631 -0.5704
45656SOL    HW243574  10.015   7.308   4.022  0.3742  2.7238 -0.4945
45657SOL     OW43575   5.494  11.795  10.827 -0.4212 -0.2049 -0.1431
45657SOL    HW143576   5.555  11.867  10.821 -0.1434 -0.3790  0.5559
45657SOL    HW243577   5.460  11.785  10.738  0.0343  0.3467 -0.3821
45658SOL     OW43578   7.709  11.055   2.033 -0.3209 -0.1578  0.0601
45658SOL    HW143579   7.686  11.023   1.946  0.9925  2.0531 -1.2037
45658SOL    HW243580   7.626  11.087   2.070 -0.6859  0.0809 -0.9437
45659SOL     OW43581   6.464   1.093   9.697 -0.1277 -0.3810 -0.1277
45659SOL    HW143582   6.522   1.049   9.758  0.6243  0.0464 -0.5184
45659SOL    HW243583   6.433   1.170   9.745 -0.4438 -0.6590  0.1141
45660SOL     OW43584   0.018   5.384   0.346 -0.2751  0.4314 -0.0816
45660SOL    HW143585  -0.021   5.334   0.417 -0.9338  1.1339  0.0667
45660SOL    HW243586   0.047   5.465   0.387  1.9696 -0.3306 -0.0633
45661SOL     OW43587  10.295  10.388   9.251 -1.2273  0.8717  0.3258
45661SOL    HW143588  10.313  10.339   9.332 -0.2998 -2.2458 -1.5636
45661SOL    HW243589  10.376  10.435   9.233 -1.4718  1.6616  1.2294
45662SOL     OW43590   9.418   3.178   1.431 -0.1681  0.1704  0.2318
45662SOL    HW143591   9.343   3.122   1.453  1.0468 -1.4996  0.2671
45662SOL    HW243592   9.473   3.177   1.509  0.4087  0.5121 -0.1644
45663SOL     OW43593   3.084  10.478   4.142  0.0083 -0.1231 -0.0928
45663SOL    HW143594   3.113  10.388   4.151  3.3818  0.6010 -1.8595
45663SOL    HW243595   3.127  10.525   4.214  0.3278  0.4447 -0.6402
45664SOL     OW43596   0.904   1.005  11.667 -0.9752  0.0554 -0.1576
45664SOL    HW143597   0.962   1.065  11.620  0.3221 -0.7366  0.3830
45664SOL    HW243598   0.959   0.965  11.734 -2.0516 -1.0331  0.1214
45665SOL     OW43599  10.392   1.462   2.659 -0.4542  0.1965 -0.1125
45665SOL    HW143600  10.395   1.369   2.685 -1.3528 -1.0800 -3.9006
45665SOL    HW243601  10.312   1.469   2.608  0.7311  2.5172 -1.7793
45666SOL     OW43602   3.644   1.283  12.296  0.3160  0.0025 -0.2118
45666SOL    HW143603   3.723   1.331  12.323 -0.8842  1.4691  0.8878
45666SOL    HW243604   3.597   1.269  12.378 -1.7611  1.4132 -1.0918
45667SOL     OW43605   9.040   8.338   0.240  0.2566  0.0043 -0.2429
45667SOL    HW143606   9.027   8.405   0.174 -2.4653 -0.4910 -0.3178
45667SOL    HW243607   9.050   8.387   0.322 -2.6090  0.5834 -0.1565
45668SOL     OW43608   6.557   3.178   6.092  0.0406 -0.0899 -0.2562
45668SOL    HW143609   6.598   3.156   6.176 -0.2248 -0.0468 -0.1155
45668SOL    HW243610   6.591   3.112   6.031 -0.6071 -0.7873  0.1255
45669SOL     OW43611   2.013   0.339   7.678  0.2415  0.3950 -0.0307
45669SOL    HW143612   2.089   0.364   7.731  1.1665 -0.5775 -0.8652
45669SOL    HW243613   1.971   0.268   7.728  0.8210 -0.1724 -0.3363
45670SOL     OW43614   8.013   1.450   3.919 -0.3555 -0.1625 -0.2596
45670SOL    HW143615   7.929   1.406   3.912  0.0063 -1.0864  0.8462
45670SOL    HW243616   8.072   1.384   3.956  1.1318  0.1089 -1.9480
45671SOL     OW43617   7.787   3.338   3.152  1.0675 -0.7631 -0.0212
45671SOL    HW143618   7.737   3.313   3.230  1.1904 -0.4295  0.1678
45671SOL    HW243619   7.772   3.432   3.143 -1.3382 -1.2318 -2.1148
45672SOL     OW43620   7.040   2.465   1.242 -0.7043 -0.1865  0.2491
45672SOL    HW143621   6.953   2.496   1.218 -1.2841 -2.2218 -0.4333
45672SOL    HW243622   7.064   2.404   1.173  1.2688  0.2790  0.4577
45673SOL     OW43623   6.943   5.565   0.815  0.2258  0.1040 -0.2845
45673SOL    HW143624   6.994   5.622   0.873  0.8896  0.0539 -0.7977
45673SOL    HW243625   6.930   5.485   0.866 -0.4538  0.5952  0.3274
45674SOL     OW43626  11.036  11.273   4.626  0.3544  0.0394 -0.0293
45674SOL    HW143627  11.091  11.272   4.547  2.0454  3.0583  0.9338
45674SOL    HW243628  11.007  11.364   4.633  0.3012 -0.1227  2.8085
45675SOL     OW43629   2.751   4.442   3.114  0.2065  0.9128 -0.1938
45675SOL    HW143630   2.657   4.441   3.134  0.5491 -2.0143  1.8619
45675SOL    HW243631   2.778   4.532   3.134 -1.6655  1.0993  1.9113
45676SOL     OW43632   2.127   1.955   8.602  0.5249  0.0013 -0.0278
45676SOL    HW143633   2.180   1.916   8.532 -0.8425  1.1947 -1.8352
45676SOL    HW243634   2.120   2.047   8.578 -0.8506  0.2312  1.1229
45677SOL     OW43635  10.508   6.734   2.705  0.2734  0.1791 -0.0937
45677SOL    HW143636  10.591   6.728   2.656  0.9350  1.2262  0.8309
45677SOL    HW243637  10.530   6.702   2.793 -0.1994  0.7936  0.2569
45678SOL     OW43638   3.763   2.562   1.487 -0.0480 -0.0319  0.2222
45678SOL    HW143639   3.722   2.492   1.435 -0.5274  0.4290 -0.0331
45678SOL    HW243640   3.849   2.528   1.510 -1.1027 -1.6906  2.0969
45679SOL     OW43641   3.159   1.443  10.139  0.1209  0.3450 -0.5284
45679SOL    HW143642   3.193   1.452  10.228  0.3136 -0.5861 -0.4920
45679SOL    HW243643   3.099   1.516  10.128 -1.7196 -0.8265  1.2196
45680SOL     OW43644  10.134   1.550   1.381 -0.0547 -0.1111 -0.4391
45680SOL    HW143645  10.218   1.507   1.364 -0.2544 -1.2417  1.2605
45680SOL    HW243646  10.095   1.501   1.453 -1.8526  0.8590 -0.6804
45681SOL     OW43647   0.776  11.670   4.329  0.3495 -0.1452  0.3309
45681SOL    HW143648   0.697  11.712   4.363 -0.0447 -1.7378  1.5060
45681SOL    HW243649   0.815  11.627   4.405  1.6828 -0.4042 -0.4749
45682SOL     OW43650  10.821   8.993   3.639  0.3685  0.0307 -0.0321
45682SOL    HW143651  10.907   8.952   3.640  0.0740 -0.5999  0.3253
45682SOL    HW243652  10.760   8.920   3.627 -0.0502  0.5905 -1.6088
45683SOL     OW43653   7.265   7.608  12.375 -0.5167  0.4698 -0.5274
45683SOL    HW143654   7.273   7.639  12.285 -0.2986  1.2084 -0.2624
45683SOL    HW243655   7.201   7.538  12.370 -0.0282  0.0625 -1.3605
45684SOL     OW43656   6.039   5.441   9.591  0.2853  0.0028 -0.1257
45684SOL    HW143657   6.005   5.364   9.636 -0.4985 -0.2708 -1.1407
45684SOL    HW243658   6.112   5.408   9.539  1.1044  0.2937  0.8094
45685SOL     OW43659   1.793   6.267   0.153  0.1589  0.1499  0.1922
45685SOL    HW143660   1.756   6.201   0.095  1.2236 -0.4967  0.2391
45685SOL    HW243661   1.720   6.292   0.210 -0.3270 -0.7778 -0.0115
45686SOL     OW43662   4.365   0.011   6.900 -0.1746 -0.8055 -0.1191
45686SOL    HW143663   4.283  -0.037   6.898  0.8606 -2.6304 -0.7541
45686SOL    HW243664   4.344   0.093   6.945 -2.4778 -0.9137 -0.8689
45687SOL     OW43665   1.549   6.248  10.883  0.0922  0.3252 -0.4627
45687SOL    HW143666   1.496   6.223  10.807 -0.1323  0.4189 -0.3372
45687SOL    HW243667   1.592   6.329  10.856  1.2860 -0.4823 -1.0958
45688SOL     OW43668   5.708   4.225   7.685 -0.2408  0.4740  0.7749
45688SOL    HW143669   5.699   4.216   7.591  0.3211 -1.2288  0.8566
45688SOL    HW243670   5.797   4.258   7.697  0.0291 -0.2169  0.7302
45689SOL     OW43671   4.362   5.281   2.792  0.4490  0.0107  0.1083
45689SOL    HW143672   4.313   5.318   2.719 -0.9931 -1.7999  0.0679
45689SOL    HW243673   4.343   5.339   2.866 -0.0728  0.5028 -0.3983
45690SOL     OW43674   3.549  11.609   4.369 -1.0841 -0.2078 -0.1530
45690SOL    HW143675   3.485  11.607   4.440  0.0822 -2.3823  0.9161
45690SOL    HW243676   3.624  11.561   4.402  1.1789  2.2344 -1.3886
45691SOL     OW43677   4.188   0.576   7.320  0.4865  0.0288  0.2649
45691SOL    HW143678   4.267   0.538   7.280  0.4418 -2.1840  2.0667
45691SOL    HW243679   4.119   0.557   7.257  0.7946 -1.3839  0.3160
45692SOL     OW43680   1.538   8.857   1.025  0.1301  0.5484 -0.3584
45692SOL    HW143681   1.615   8.910   1.005 -0.6108  1.8932  0.2424
45692SOL    HW243682   1.511   8.820   0.941  0.8276  0.8934 -0.7369
45693SOL     OW43683   7.886   4.945  12.585  0.1172  0.3611 -0.0761
45693SOL    HW143684   7.882   5.040  12.586 -1.2304  0.3312 -0.8733
45693SOL    HW243685   7.897   4.921  12.493 -2.2718 -0.2962 -0.2562
45694SOL     OW43686   8.256   8.974   1.298 -0.0152 -0.3407 -0.1568
45694SOL    HW143687   8.323   8.990   1.232 -1.0795 -0.5288 -1.3396
45694SOL    HW243688   8.173   8.981   1.249 -0.8834  0.4847  1.3570
45695SOL     OW43689   9.180  12.586  11.382 -0.1708 -0.1697  0.0901
45695SOL    HW143690   9.186  12.557  11.473  0.4899  0.4223  0.2357
45695SOL    HW243691   9.091  12.560  11.355 -0.4717 -0.1012  0.9823
45696SOL     OW43692  12.616  10.969   3.109  0.4473  0.0065 -0.2135
45696SOL    HW143693  12.706  10.981   3.139 -0.1529  1.1648  1.2394
45696SOL    HW243694  12.566  11.036   3.156 -1.0450 -0.0474 -1.6398
45697SOL     OW43695   8.903   8.847   4.281  0.7063  0.4889 -0.0212
45697SOL    HW143696   8.856   8.911   4.334  0.3503 -0.3472  0.7164
45697SOL    HW243697   8.969   8.811   4.341  0.6801 -0.0625 -0.3145
45698SOL     OW43698   7.181  12.686   9.662 -0.1321  0.3586  0.0200
45698SOL    HW143699   7.131  12.644   9.592  0.9377 -0.0256 -0.5297
45698SOL    HW243700   7.269  12.652   9.652  0.5643  2.0437  0.1323
45699SOL     OW43701   2.306   1.226   9.673 -0.1569  0.1696 -0.3415
45699SOL    HW143702   2.362   1.284   9.622  1.2468 -1.9032 -1.2502
45699SOL    HW243703   2.350   1.217   9.757 -1.2928  1.7354  0.4897
45700SOL     OW43704   5.515   5.812   4.244 -0.8360 -0.1415 -0.2400
45700SOL    HW143705   5.578   5.885   4.240  1.0442 -1.5751  1.2649
45700SOL    HW243706   5.562   5.743   4.290 -3.3227 -1.5573  0.3313
45701SOL     OW43707   2.691  11.997   2.382  0.2534 -0.3042  0.6679
45701SOL    HW143708   2.763  12.018   2.441 -1.1193  2.6451  1.5153
45701SOL    HW243709   2.721  11.921   2.333  3.4084  0.0647  1.7968
45702SOL     OW43710   3.482  11.287  10.635  0.0470 -0.5598 -0.4892
45702SOL    HW143711   3.541  11.271  10.708  1.0520 -0.5395 -1.2747
45702SOL    HW243712   3.408  11.334  10.674  0.5151 -0.6336  0.5223
45703SOL     OW43713   6.315   4.370   6.093 -0.4355  0.4199  0.9332
45703SOL    HW143714   6.345   4.458   6.117 -0.4691  0.0835  2.2852
45703SOL    HW243715   6.245   4.351   6.156 -1.6752  0.1207 -0.4819
45704SOL     OW43716  11.553   6.643   3.430  0.0314  0.1628  0.1477
45704SOL    HW143717  11.591   6.642   3.518  0.7204 -0.0714 -0.1491
45704SOL    HW243718  11.481   6.579   3.435 -0.2589  0.5146  0.6708
45705SOL     OW43719   0.023   4.705   3.781  0.1210  0.3668  0.0801
45705SOL    HW143720   0.106   4.728   3.738  0.1747 -1.1323 -0.6831
45705SOL    HW243721   0.024   4.609   3.785 -1.4537  0.3372  0.3213
45706SOL     OW43722   5.557   8.213   8.930 -1.0915  0.0277  0.4683
45706SOL    HW143723   5.565   8.235   9.023  1.3014 -1.2848  0.6413
45706SOL    HW243724   5.597   8.126   8.922  1.9196  1.4679 -2.3124
45707SOL     OW43725  10.644   2.004   6.659 -0.0050  0.3013 -0.1232
45707SOL    HW143726  10.655   1.914   6.628  2.0154  0.3816  0.2784
45707SOL    HW243727  10.657   1.999   6.753 -1.2356  0.8437  0.1028
45708SOL     OW43728   3.163  11.692   1.671 -0.4119  0.1847 -0.5320
45708SOL    HW143729   3.252  11.724   1.685 -0.5151  0.3056 -0.1431
45708SOL    HW243730   3.142  11.717   1.581 -0.9426  2.3472  0.1333
45709SOL     OW43731  11.050  11.567   5.810 -0.2792 -0.3715  0.0901
45709SOL    HW143732  11.009  11.605   5.888 -0.9739  0.3143 -0.5841
45709SOL    HW243733  11.075  11.643   5.757  0.6176 -0.8219 -0.1392
45710SOL     OW43734  10.132   4.878  10.908  0.0602 -0.0892 -0.0265
45710SOL    HW143735  10.178   4.812  10.960 -0.6963 -1.4810 -1.0456
45710SOL    HW243736  10.112   4.948  10.970  1.6459 -0.4057  0.9041
45711SOL     OW43737   3.287   0.834   3.559  0.3046 -0.4545  0.3038
45711SOL    HW143738   3.240   0.913   3.530  3.2419  1.5386  0.4948
45711SOL    HW243739   3.242   0.762   3.516 -1.5264  1.4854 -1.2527
45712SOL     OW43740   2.846   2.519   1.292  0.4314  0.3896 -0.6386
45712SOL    HW143741   2.841   2.591   1.229  2.2034 -0.5544 -1.9363
45712SOL    HW243742   2.754   2.498   1.311 -0.1377  2.1983 -1.1063
45713SOL     OW43743   4.153   5.463  12.213 -1.1043 -0.4176  0.3720
45713SOL    HW143744   4.181   5.543  12.170 -0.6310 -0.3862  0.7272
45713SOL    HW243745   4.139   5.488  12.304  3.2037 -1.5430  1.5797
45714SOL     OW43746   4.133   8.376   2.727  0.4860  0.1935  0.2787
45714SOL    HW143747   4.117   8.457   2.678 -0.2650  1.5497  2.6417
45714SOL    HW243748   4.186   8.403   2.802  0.2517 -1.5279  1.1100
45715SOL     OW43749   4.550   8.055   7.503  0.1533  0.4796 -0.1220
45715SOL    HW143750   4.547   7.964   7.475  1.7038  0.4273 -0.1887
45715SOL    HW243751   4.458   8.083   7.503 -0.3441 -1.0523 -0.1388
45716SOL     OW43752  10.563   7.508   2.834 -0.5251 -0.2776  0.0809
45716SOL    HW143753  10.553   7.413   2.842 -2.8825 -0.0191  1.1249
45716SOL    HW243754  10.574   7.539   2.924  0.4534  0.4439 -0.2731
45717SOL     OW43755   0.318   2.839  10.501  0.5025 -0.2626 -0.1487
45717SOL    HW143756   0.242   2.826  10.557  0.5620 -1.8186 -0.3715
45717SOL    HW243757   0.288   2.897  10.432  0.2558  1.1932  1.1239
45718SOL     OW43758   9.383   7.968   9.534  0.5246  0.1970  0.7393
45718SOL    HW143759   9.380   7.878   9.567 -0.1811  0.4538  1.3964
45718SOL    HW243760   9.466   7.973   9.487  0.0849 -1.1291 -0.2611
45719SOL     OW43761  12.097   1.048   4.930  0.0698  0.2508 -0.1568
45719SOL    HW143762  12.027   1.113   4.925 -0.3517 -0.0961  1.0428
45719SOL    HW243763  12.135   1.047   4.842  1.3303  3.4846  0.2293
45720SOL     OW43764  12.531   0.630   9.355 -0.7250 -0.0319  0.3768
45720SOL    HW143765  12.531   0.725   9.345 -2.3207  0.2053  2.0655
45720SOL    HW243766  12.447   0.611   9.396  0.6408 -1.8859  2.5074
45721SOL     OW43767   3.152   8.042   1.585  0.3271  0.4253  0.3394
45721SOL    HW143768   3.229   8.022   1.637  1.2707  0.3786 -1.0265
45721SOL    HW243769   3.079   8.006   1.635  1.3434 -0.8936  0.9196
45722SOL     OW43770   1.945   4.992   0.210 -0.4900  0.5225 -0.2394
45722SOL    HW143771   2.027   4.982   0.161 -1.5888  1.4997 -2.4135
45722SOL    HW243772   1.891   4.918   0.183  0.2340 -1.2204  2.6333
45723SOL     OW43773   3.957  10.990  10.494 -0.1140 -0.5777  0.2057
45723SOL    HW143774   3.950  10.946  10.578  0.4160 -0.9024  0.0808
45723SOL    HW243775   4.020  11.061  10.509 -1.6142  0.7080  0.6395
45724SOL     OW43776   2.420  11.222   1.081 -0.1106  0.0805 -0.0695
45724SOL    HW143777   2.457  11.184   1.002 -3.5027 -1.4860 -1.1064
45724SOL    HW243778   2.467  11.179   1.153  0.6150 -1.1632 -1.2438
45725SOL     OW43779   9.951   4.826   9.684 -0.1080 -0.0144 -0.7810
45725SOL    HW143780  10.038   4.849   9.652  0.8307 -1.9098  0.2190
45725SOL    HW243781   9.942   4.733   9.664 -0.1618 -0.8876  2.6773
45726SOL     OW43782  11.228   6.722   4.965 -0.3111 -0.0568  0.5193
45726SOL    HW143783  11.261   6.779   4.895 -1.8595  1.7795  1.2132
45726SOL    HW243784  11.138   6.702   4.940  0.0069 -1.7448  0.6056
45727SOL     OW43785  10.285  11.047   6.725  0.1435  0.0961  0.1461
45727SOL    HW143786  10.325  11.131   6.699  0.9615 -0.4018 -0.2503
45727SOL    HW243787  10.248  11.012   6.644 -0.2242  0.0855  0.3176
45728SOL     OW43788   0.635   2.853   0.644 -0.2119  0.5102 -0.3696
45728SOL    HW143789   0.725   2.863   0.675  0.7593 -1.8727 -2.1089
45728SOL    HW243790   0.584   2.831   0.722  0.8849  0.9648  0.4853
45729SOL     OW43791   7.344   4.058   8.323  0.6993 -0.1260  0.1839
45729SOL    HW143792   7.330   4.034   8.231  0.0855  0.5640  0.0800
45729SOL    HW243793   7.316   3.981   8.372 -1.6336  0.4253 -0.1197
45730SOL     OW43794  11.670   9.966   0.444 -0.3437 -0.4217 -0.7312
45730SOL    HW143795  11.721   9.894   0.408 -0.3892  0.1474 -1.9770
45730SOL    HW243796  11.689   9.964   0.538  1.0955 -0.9107 -1.0085
45731SOL     OW43797   4.842  12.039   4.426 -0.2120  0.2776 -0.5596
45731SOL    HW143798   4.877  11.995   4.503 -0.0271 -0.4344 -1.0478
45731SOL    HW243799   4.918  12.083   4.387 -0.0698 -0.3667 -1.0116
45732SOL     OW43800   3.692   6.543   9.512 -0.3599  0.0202 -0.1246
45732SOL    HW143801   3.627   6.494   9.461 -1.3356 -0.7765  1.8082
45732SOL    HW243802   3.763   6.560   9.450 -2.0014  0.1458 -2.0652
45733SOL     OW43803   7.965   2.649   0.523  0.2709 -0.0396 -0.0600
45733SOL    HW143804   7.897   2.688   0.578 -0.1456 -0.9002  0.0608
45733SOL    HW243805   8.034   2.715   0.518  0.3338  0.0444  1.5390
45734SOL     OW43806   1.822   9.316   8.448  0.2174  0.0741 -0.1200
45734SOL    HW143807   1.880   9.384   8.481 -1.0174  0.6988  0.8104
45734SOL    HW243808   1.840   9.313   8.354 -1.3862  3.4206 -0.6772
45735SOL     OW43809   1.191  11.516   2.412  0.4462 -0.3795 -0.1174
45735SOL    HW143810   1.125  11.456   2.447 -0.0212 -0.3507 -0.9304
45735SOL    HW243811   1.143  11.597   2.395  1.1750  0.4465  1.4821
45736SOL     OW43812   8.726   4.060   6.514  0.8235 -0.0962 -0.3139
45736SOL    HW143813   8.694   4.022   6.596  3.1023 -1.2945  0.1053
45736SOL    HW243814   8.701   4.152   6.519  0.5264 -0.2365  1.5242
45737SOL     OW43815   2.637  11.465   3.453  0.4346  0.4609  0.5687
45737SOL    HW143816   2.710  11.523   3.473  0.1060  1.2572 -0.4489
45737SOL    HW243817   2.646  11.446   3.360 -0.6087  0.5096  0.4468
45738SOL     OW43818   5.561   2.227   5.092 -0.2944 -0.1439 -0.1790
45738SOL    HW143819   5.561   2.131   5.097  0.9331 -0.1881 -0.6990
45738SOL    HW243820   5.648   2.249   5.058 -0.5562  1.1592 -0.0402
45739SOL     OW43821  11.617  10.311   3.698 -0.3085 -0.5224  0.2073
45739SOL    HW143822  11.626  10.375   3.768  0.4120 -2.2353  1.7710
45739SOL    HW243823  11.707  10.292   3.671 -0.6018  0.5211 -1.6144
45740SOL     OW43824   5.035  10.450   2.380  1.0387 -0.4041 -0.3323
45740SOL    HW143825   5.037  10.489   2.468  1.6841 -1.6285  0.2237
45740SOL    HW243826   5.085  10.369   2.389 -0.4070 -1.4633 -1.3906
45741SOL     OW43827   2.392   9.810   2.208 -0.3865 -0.4525 -0.2571
45741SOL    HW143828   2.378   9.844   2.297  1.4555 -0.0115 -0.0976
45741SOL    HW243829   2.473   9.760   2.214  0.8934  1.2373 -2.0807
45742SOL     OW43830  10.292   5.144   8.452 -0.3886  0.0924  0.6315
45742SOL    HW143831  10.348   5.181   8.520  0.7126 -1.0345  0.3836
45742SOL    HW243832  10.227   5.093   8.499  0.4668 -0.8155  0.8658
45743SOL     OW43833  10.687   9.653  10.312  0.2582  0.0341 -0.0283
45743SOL    HW143834  10.746   9.588  10.274  1.6099  1.5795 -0.7171
45743SOL    HW243835  10.689   9.635  10.406  1.7298 -0.0781 -0.0505
45744SOL     OW43836   4.889   5.325  10.468  0.1678 -0.7635  0.6314
45744SOL    HW143837   4.903   5.419  10.480  1.1520 -0.9040  0.6328
45744SOL    HW243838   4.953   5.284  10.525 -0.3751 -1.4474  0.7640
45745SOL     OW43839   4.034   7.382   5.501 -0.3398  0.1319 -0.5998
45745SOL    HW143840   4.088   7.325   5.555 -0.1614  0.7954 -0.0591
45745SOL    HW243841   3.976   7.323   5.454 -1.5191 -0.4015  1.4183
45746SOL     OW43842   2.513  10.464   5.212 -0.0122 -0.4092  0.3724
45746SOL    HW143843   2.495  10.508   5.295 -0.6658  1.0461 -0.5052
45746SOL    HW243844   2.429  10.462   5.167  0.4541 -0.6352 -0.5104
45747SOL     OW43845  12.309   7.581   1.625 -0.0246  0.3743 -0.1365
45747SOL    HW143846  12.220   7.561   1.598  0.1351 -1.4262  0.4956
45747SOL    HW243847  12.303   7.603   1.718  0.1800  0.2055 -0.0801
45748SOL     OW43848  12.146   7.525   3.135  0.5328 -0.6562 -0.6214
45748SOL    HW143849  12.237   7.553   3.148  0.4062 -0.7497  0.5786
45748SOL    HW243850  12.104   7.542   3.219  0.1045 -3.1478 -0.2775
45749SOL     OW43851   4.315   8.103  12.635 -0.1270 -0.1669  0.2094
45749SOL    HW143852   4.410   8.091  12.636  0.1001  1.3644  1.0233
45749SOL    HW243853   4.303   8.198  12.624 -1.5493 -0.2748  0.6199
45750SOL     OW43854   2.259  12.218   7.327  0.1766 -0.4219 -0.3311
45750SOL    HW143855   2.255  12.287   7.261  1.6440 -0.6349 -0.6925
45750SOL    HW243856   2.234  12.138   7.281 -2.1642 -0.0827  0.2445
45751SOL     OW43857   8.115   8.882  10.615  0.5734  0.3901 -0.2286
45751SOL    HW143858   8.172   8.821  10.662  1.4499  2.0663  0.9518
45751SOL    HW243859   8.124   8.965  10.662 -3.0157  0.7216  0.1919
45752SOL     OW43860   3.161   5.130   4.774 -0.6860 -0.3238 -0.0859
45752SOL    HW143861   3.082   5.104   4.726 -0.9507  0.0819  0.1236
45752SOL    HW243862   3.153   5.085   4.859 -2.2035  2.0130  1.1116
45753SOL     OW43863   3.842  12.672   6.187 -0.2521 -0.2629  0.0052
45753SOL    HW143864   3.751  12.667   6.159 -1.1232  0.2699  2.4683
45753SOL    HW243865   3.876  12.751   6.145 -1.2956  0.1750 -0.0437
45754SOL     OW43866   9.708   2.549   4.987  0.0317 -0.1856  0.3237
45754SOL    HW143867   9.638   2.505   5.035  0.5407 -0.7995  0.5228
45754SOL    HW243868   9.784   2.543   5.045 -0.3649  2.8451  1.3078
45755SOL     OW43869   1.778   8.092   6.691 -0.6688 -0.6191  0.1524
45755SOL    HW143870   1.687   8.110   6.715 -0.4165  0.7697  0.1553
45755SOL    HW243871   1.773   8.055   6.603 -1.1638  0.5931 -0.3401
45756SOL     OW43872   3.818   1.618   2.274 -0.0759 -0.0727  0.5060
45756SOL    HW143873   3.829   1.633   2.180 -1.0884  1.5086  0.6105
45756SOL    HW243874   3.785   1.528   2.280  1.1860 -0.6313 -0.5423
45757SOL     OW43875  11.511  11.346   1.221 -0.3940  0.0334  0.2598
45757SOL    HW143876  11.429  11.297   1.211 -0.4963  0.1201  0.6766
45757SOL    HW243877  11.515  11.400   1.142 -0.5045 -0.3164  0.0141
45758SOL     OW43878   4.566   9.326   0.978  0.3388  0.3093 -0.5712
45758SOL    HW143879   4.496   9.315   0.914 -2.3890 -2.9037  2.5554
45758SOL    HW243880   4.534   9.393   1.038  0.6337 -0.1593  0.1135
45759SOL     OW43881  12.742   1.657   7.835  0.4832 -0.6590  0.4443
45759SOL    HW143882  12.837   1.641   7.839  0.5262 -0.4430  0.2950
45759SOL    HW243883  12.703   1.571   7.849  0.7168 -0.9604 -0.6579
45760SOL     OW43884   8.653   8.040   4.681 -0.5214 -0.7381 -0.1964
45760SOL    HW143885   8.705   7.971   4.641 -1.0269  0.6301 -3.5136
45760SOL    HW243886   8.580   8.053   4.621 -1.4824  1.3915  1.3138
45761SOL     OW43887   8.389   0.809  11.515  0.2704  0.2959  0.4048
45761SOL    HW143888   8.362   0.840  11.601  2.3994  1.3610  0.7353
45761SOL    HW243889   8.372   0.884  11.457  0.6726  0.2733  0.2595
45762SOL     OW43890   0.223   4.917   1.922 -0.0025 -0.2116 -0.1896
45762SOL    HW143891   0.237   4.837   1.871  1.0637  0.8067 -1.5832
45762SOL    HW243892   0.183   4.887   2.004 -1.6626 -1.9382 -1.5377
45763SOL     OW43893   1.700   2.509   9.145 -0.1395 -0.5224  0.0356
45763SOL    HW143894   1.642   2.556   9.205  0.0502  0.9330 -0.8683
45763SOL    HW243895   1.643   2.445   9.102 -0.5779 -0.6125  0.7202
45764SOL     OW43896   5.662  10.646   3.712 -0.1455 -0.1058 -0.3002
45764SOL    HW143897   5.609  10.710   3.759 -0.6421 -0.2470 -0.6543
45764SOL    HW243898   5.606  10.568   3.708 -0.0072 -0.1789 -0.8921
45765SOL     OW43899  12.444   0.684   2.797  0.5015  0.2093 -0.3333
45765SOL    HW143900  12.492   0.658   2.876 -0.6990  0.9738  0.6774
45765SOL    HW243901  12.478   0.772   2.777 -0.9852  1.1115  0.8731
45766SOL     OW43902   0.717   1.022   4.263 -0.5219 -0.0459 -0.0916
45766SOL    HW143903   0.656   1.090   4.293 -1.2168 -0.6193 -0.1795
45766SOL    HW243904   0.722   1.035   4.168  2.6775  2.6027  0.2452
45767SOL     OW43905   4.923   2.928  11.945  0.0761  0.3853  0.0357
45767SOL    HW143906   4.989   2.889  11.887  0.7288  1.4163  0.0534
45767SOL    HW243907   4.933   2.882  12.028  1.0826  0.8320  0.1695
45768SOL     OW43908   2.670   5.773  10.141  0.5493  0.5122  0.4798
45768SOL    HW143909   2.684   5.680  10.156 -0.2256  0.2956 -0.1144
45768SOL    HW243910   2.577   5.787  10.159  0.3575  0.8981 -0.7700
45769SOL     OW43911   3.731   8.912   6.531  0.2014 -0.1505 -0.4204
45769SOL    HW143912   3.666   8.898   6.462 -1.4421 -3.1895  1.4909
45769SOL    HW243913   3.806   8.859   6.504  0.4315  0.3711 -0.8341
45770SOL     OW43914  10.475   3.991   4.352  0.1582 -0.0216 -0.2372
45770SOL    HW143915  10.497   4.030   4.267  1.2338  0.3284  0.1905
45770SOL    HW243916  10.543   3.925   4.366 -1.5638 -2.0663 -0.9111
45771SOL     OW43917   5.594   8.607  11.429 -0.1193  0.2357  0.2080
45771SOL    HW143918   5.683   8.576  11.443 -0.0008 -0.3073 -1.5433
45771SOL    HW243919   5.538   8.536  11.459  0.0093  0.5380  1.2168
45772SOL     OW43920   9.574   0.794  10.200 -0.3365  0.0993 -0.3728
45772SOL    HW143921   9.511   0.744  10.149  1.1338 -0.5067 -1.6785
45772SOL    HW243922   9.623   0.844  10.135  1.0964 -0.1093  0.5031
45773SOL     OW43923   7.263   3.803   1.730  0.7233  0.1452 -0.1865
45773SOL    HW143924   7.265   3.718   1.687 -1.1325 -0.6448  1.1538
45773SOL    HW243925   7.178   3.841   1.704  1.4957  1.5928 -0.7304
45774SOL     OW43926   7.494  12.670   1.295 -0.3298 -0.3247 -0.3082
45774SOL    HW143927   7.491  12.664   1.391 -1.7695  1.1793 -0.2055
45774SOL    HW243928   7.406  12.700   1.271 -0.2305 -1.4188 -2.1772
45775SOL     OW43929  11.002  11.969   7.537  0.0887  0.1828 -0.2744
45775SOL    HW143930  11.081  11.974   7.591 -0.8432  2.1224  1.0113
45775SOL    HW243931  10.973  12.059   7.528 -1.9677 -0.4706 -0.7199
45776SOL     OW43932   6.111  12.768   5.692  0.5052  0.5511  0.1836
45776SOL    HW143933   6.128  12.861   5.709  1.7428  0.3696  0.0610
45776SOL    HW243934   6.053  12.741   5.763  1.1360  1.1308  0.9470
45777SOL     OW43935  12.352   4.358   2.390  0.2531 -0.5744 -0.3526
45777SOL    HW143936  12.343   4.431   2.451 -0.6592 -0.4549 -0.6183
45777SOL    HW243937  12.280   4.370   2.328  0.7509 -1.0836 -1.0451
45778SOL     OW43938  12.335   0.618   6.273  0.1170 -0.0584  0.7957
45778SOL    HW143939  12.356   0.540   6.221 -0.5245  0.3250 -0.0624
45778SOL    HW243940  12.358   0.691   6.216 -0.7083  0.3740  1.0108
45779SOL     OW43941   3.690  12.627   1.217  0.2267 -0.0984  0.5656
45779SOL    HW143942   3.705  12.648   1.125 -0.0609  0.0131  0.5409
45779SOL    HW243943   3.674  12.712   1.259 -2.2549 -0.3053  0.2160
45780SOL     OW43944   2.320   9.005   5.766 -0.0563 -0.5702  0.2169
45780SOL    HW143945   2.302   9.097   5.784 -0.7971 -1.1289  2.7274
45780SOL    HW243946   2.397   9.006   5.710 -0.2599  1.5736 -0.1068
45781SOL     OW43947   4.139   9.568   6.276 -0.1818  0.3280 -0.2143
45781SOL    HW143948   4.205   9.522   6.225 -0.3571 -0.2348  0.0615
45781SOL    HW243949   4.181   9.583   6.361 -0.3083  0.2146 -0.1308
45782SOL     OW43950   1.433   0.318   3.940 -0.2495 -0.4356 -0.2752
45782SOL    HW143951   1.431   0.331   3.845  0.1164 -1.3416 -0.4136
45782SOL    HW243952   1.512   0.365   3.969 -0.0788 -0.5875 -0.4905
45783SOL     OW43953   9.287   3.138  12.348  0.5227  0.6808  0.4357
45783SOL    HW143954   9.342   3.212  12.323 -0.4566  1.2634 -0.0698
45783SOL    HW243955   9.280   3.085  12.268  0.0178  0.8456  0.3610
45784SOL     OW43956   1.756   4.916   2.306 -0.0967 -0.2829  0.1802
45784SOL    HW143957   1.777   4.859   2.380 -0.8756 -0.8845 -0.0416
45784SOL    HW243958   1.660   4.911   2.299 -0.4777  2.6823  1.4608
45785SOL     OW43959  10.839   1.253   8.768 -0.5494  0.2943 -0.1538
45785SOL    HW143960  10.918   1.304   8.753  0.1332  0.0815  2.2583
45785SOL    HW243961  10.773   1.318   8.793 -0.0600  0.2016  1.5285
45786SOL     OW43962   3.340  11.996   3.910 -0.4217 -0.2645  0.4693
45786SOL    HW143963   3.413  11.984   3.849  0.4489 -1.0128  1.6199
45786SOL    HW243964   3.375  11.968   3.995 -1.1097  2.2082  1.6519
45787SOL     OW43965   9.181   7.661   4.677  0.0330  0.3557 -0.4198
45787SOL    HW143966   9.150   7.749   4.653  0.2413  0.9400  1.3317
45787SOL    HW243967   9.124   7.602   4.628 -1.2631  1.4529 -0.3141
45788SOL     OW43968   8.398   6.248   4.175 -0.6424  0.6803 -0.1276
45788SOL    HW143969   8.373   6.259   4.083 -1.4537 -0.4999 -0.0710
45788SOL    HW243970   8.488   6.217   4.172 -1.4189 -1.6796 -0.6691
45789SOL     OW43971   4.325  11.289   3.380 -0.1691 -0.7924  0.3954
45789SOL    HW143972   4.349  11.197   3.388 -1.2058 -1.0563  0.5316
45789SOL    HW243973   4.320  11.305   3.286  3.4247  0.0647  0.1953
45790SOL     OW43974   5.158   9.859   5.665  0.7950  0.0629 -0.4071
45790SOL    HW143975   5.180   9.779   5.617  0.2862 -0.4689  0.2487
45790SOL    HW243976   5.074   9.887   5.628 -1.0723 -1.9057  2.0350
45791SOL     OW43977   1.338   3.798   5.590  0.3898 -0.1591 -0.1179
45791SOL    HW143978   1.341   3.703   5.604  0.1952 -0.0092  1.0238
45791SOL    HW243979   1.306   3.833   5.672  2.6727  1.0885  0.3360
45792SOL     OW43980  10.152   9.716   9.845 -0.1109  0.1280  1.0397
45792SOL    HW143981  10.170   9.788   9.906 -0.6908  1.2447 -0.0453
45792SOL    HW243982  10.180   9.749   9.760  1.1590 -1.5945  0.7376
45793SOL     OW43983  10.455   0.130   3.351  0.7020 -0.4221 -0.5420
45793SOL    HW143984  10.521   0.062   3.365  0.6951 -0.6700 -1.6433
45793SOL    HW243985  10.372   0.086   3.372  0.8931  0.0045  1.2240
45794SOL     OW43986   3.006  10.980  12.421  0.0290 -0.1442  0.3914
45794SOL    HW143987   3.093  10.994  12.457  0.3378  1.0504 -0.7241
45794SOL    HW243988   3.019  10.916  12.351  0.1805  0.6578 -0.3309
45795SOL     OW43989   0.287   4.591  10.227 -0.0021 -0.4080  0.1649
45795SOL    HW143990   0.290   4.496  10.236 -0.5398 -0.3672  0.9220
45795SOL    HW243991   0.272   4.607  10.134 -0.9931 -1.0994  0.1901
45796SOL     OW43992   0.080   8.027  11.627 -0.1107  0.3411  0.0173
45796SOL    HW143993   0.005   8.002  11.681  0.2387  0.5986  0.6336
45796SOL    HW243994   0.110   8.110  11.664  0.8037 -0.0234  0.1128
45797SOL     OW43995   0.992   1.811   1.480  0.5134  0.0462 -0.6883
45797SOL    HW143996   1.049   1.768   1.415 -1.4766 -0.9656 -1.8725
45797SOL    HW243997   0.997   1.754   1.557  4.6640  2.4205  1.1062
45798SOL     OW43998   9.692  11.999   0.196  0.6525  0.7923 -0.2905
45798SOL    HW143999   9.616  11.951   0.163  0.9713  1.0084 -1.4000
45798SOL    HW244000   9.677  12.008   0.290  0.2495 -0.8591 -0.1699
45799SOL     OW44001   3.980   7.944   2.815 -0.1722 -0.7811 -0.4488
45799SOL    HW144002   3.982   7.922   2.722  0.5756 -1.6936 -0.2272
45799SOL    HW244003   3.890   7.930   2.841 -0.9870  1.7248 -1.5269
45800SOL     OW44004   1.962   9.167   1.555  0.3783 -0.5536  0.0301
45800SOL    HW144005   1.961   9.172   1.651 -1.0979  0.9408 -0.0215
45800SOL    HW244006   1.892   9.227   1.527 -0.2564 -2.1056 -1.9395
45801SOL     OW44007   2.827   8.079  12.326 -0.0086  0.6279  0.2775
45801SOL    HW144008   2.752   8.103  12.381 -0.6970  2.1558 -1.1991
45801SOL    HW244009   2.897   8.137  12.354  0.3133 -0.0873  0.9682
45802SOL     OW44010   7.734   6.596  10.303 -0.6254 -0.1982 -0.1783
45802SOL    HW144011   7.643   6.606  10.329 -0.5549 -0.0663  0.0275
45802SOL    HW244012   7.768   6.527  10.360 -0.8256 -0.8691 -0.8560
45803SOL     OW44013   1.386   9.270   0.830  0.7192 -0.1848 -0.0129
45803SOL    HW144014   1.382   9.351   0.780  0.4775 -0.2571 -0.1174
45803SOL    HW244015   1.431   9.208   0.772 -1.7780 -0.9996 -1.2195
45804SOL     OW44016   6.010   2.414  10.218  0.4272  0.0318 -0.1718
45804SOL    HW144017   5.968   2.398  10.133  2.3274 -0.0172 -1.1575
45804SOL    HW244018   6.077   2.347  10.224  1.1822  0.8497  0.7739
45805SOL     OW44019   0.954   4.036  10.893  0.3716  0.3626  0.3318
45805SOL    HW144020   0.971   4.025  10.987  0.2672 -0.3677  0.2743
45805SOL    HW244021   1.005   3.966  10.852  1.5761  1.5637 -0.2781
45806SOL     OW44022   4.012   9.813   4.005 -0.2178  0.0534 -0.7844
45806SOL    HW144023   3.935   9.803   3.950  0.2451 -0.8180 -1.3015
45806SOL    HW244024   4.063   9.883   3.964 -0.9188  0.9268 -0.1995
45807SOL     OW44025  12.632   1.417  11.563 -0.5641  0.6715  0.3619
45807SOL    HW144026  12.660   1.479  11.496 -2.0316  1.3530  0.3234
45807SOL    HW244027  12.635   1.467  11.645 -0.0210  0.2351  0.6146
45808SOL     OW44028  11.299   3.695   2.907 -0.6650 -0.1796 -0.2399
45808SOL    HW144029  11.346   3.775   2.886 -1.9916  0.5806 -0.4612
45808SOL    HW244030  11.226   3.724   2.962 -1.2877 -1.2054 -0.5025
45809SOL     OW44031  12.494   0.585   3.938  0.0336 -0.7862 -0.4799
45809SOL    HW144032  12.542   0.517   3.985 -0.0295 -1.4324 -1.3244
45809SOL    HW244033  12.441   0.538   3.875 -0.2553  0.0353 -0.8688
45810SOL     OW44034   3.489  12.691   6.839 -0.3464 -0.0029  0.0696
45810SOL    HW144035   3.580  12.685   6.810 -0.3160  1.3467 -0.2053
45810SOL    HW244036   3.495  12.719   6.930 -0.4848  0.6814 -0.1277
45811SOL     OW44037   2.130   6.522   5.312 -0.2902  0.4393 -0.5881
45811SOL    HW144038   2.176   6.565   5.384 -2.2387  0.9019  0.4458
45811SOL    HW244039   2.200   6.488   5.256  1.3253 -0.8885  2.0483
45812SOL     OW44040   4.429   3.079   5.211  0.0787 -0.3183  0.1805
45812SOL    HW144041   4.406   2.995   5.172  0.5153 -0.2938 -0.1376
45812SOL    HW244042   4.405   3.143   5.144  0.3265 -0.2362  0.1704
45813SOL     OW44043  11.591   5.578   9.789  0.1010 -0.5640 -0.5629
45813SOL    HW144044  11.513   5.560   9.841  1.3144 -1.1162  1.1447
45813SOL    HW244045  11.567   5.655   9.736 -0.9475  0.5307  1.4029
45814SOL     OW44046   2.099   1.854  11.553 -0.0401 -0.1493 -0.0539
45814SOL    HW144047   2.160   1.798  11.602 -0.2046 -0.3340 -0.0602
45814SOL    HW244048   2.014   1.813  11.566 -0.1527  0.0702 -0.1049
45815SOL     OW44049  11.788   4.264  11.787 -0.9151  0.3942 -0.6518
45815SOL    HW144050  11.813   4.196  11.724  0.5351  0.0112  0.2983
45815SOL    HW244051  11.818   4.230  11.871 -0.8380  1.8898 -0.0554
45816SOL     OW44052  10.128  11.047   2.429  0.7374 -0.2164  0.0932
45816SOL    HW144053  10.065  10.978   2.409  0.1568  0.4650 -0.5434
45816SOL    HW244054  10.126  11.055   2.524 -1.2590  0.7516  0.0370
45817SOL     OW44055   2.013   9.844   1.938  0.3361 -0.1465 -0.8999
45817SOL    HW144056   2.104   9.867   1.959  0.4407 -0.1770 -1.3226
45817SOL    HW244057   1.967   9.927   1.936  0.0461 -0.2256  0.7296
45818SOL     OW44058   0.390   8.395  10.586 -0.1894  0.1595  0.2038
45818SOL    HW144059   0.350   8.351  10.511  3.2232 -0.1176 -1.7037
45818SOL    HW244060   0.364   8.487  10.577 -1.7653 -0.2679  0.1508
45819SOL     OW44061  11.496   9.870   4.203  0.0213 -0.5185  0.8038
45819SOL    HW144062  11.547   9.951   4.210 -0.2041 -0.4365  1.7450
45819SOL    HW244063  11.504   9.843   4.112 -0.8748  1.1937  0.1843
45820SOL     OW44064  12.737   0.563  12.591  0.1299  0.0508  0.7179
45820SOL    HW144065  12.647   0.548  12.562  0.5082  0.3607 -0.6736
45820SOL    HW244066  12.733   0.645  12.640 -0.7014 -0.9919  2.5376
45821SOL     OW44067   6.000   1.092   0.852 -0.3868 -0.5271  0.3149
45821SOL    HW144068   5.924   1.134   0.890  0.0539  1.6713 -1.0143
45821SOL    HW244069   5.967   1.047   0.774 -0.5482 -0.8254  0.5572
45822SOL     OW44070  12.722   4.187   1.566  0.1270  0.5357  0.2598
45822SOL    HW144071  12.739   4.275   1.532  0.7781  1.1550  2.0528
45822SOL    HW244072  12.634   4.166   1.534  0.7367  0.9631 -1.8807
45823SOL     OW44073   2.789  11.542   1.524 -0.3398  0.0335 -0.1419
45823SOL    HW144074   2.841  11.612   1.485 -1.6731  2.8307  2.6738
45823SOL    HW244075   2.852  11.492   1.576  0.0844  1.7006  1.0364
45824SOL     OW44076   9.322  10.371   2.620 -0.4261  0.0131  0.5729
45824SOL    HW144077   9.356  10.285   2.596 -0.9995 -0.4407  1.3430
45824SOL    HW244078   9.232  10.354   2.649 -0.7643  0.9590  0.1350
45825SOL     OW44079   1.727   6.065   6.765 -0.3680  0.2757  0.4566
45825SOL    HW144080   1.793   6.006   6.727 -0.5739  0.3467 -0.0223
45825SOL    HW244081   1.689   6.016   6.838  0.9787  0.6438  1.4451
45826SOL     OW44082   0.854   5.517  10.857 -0.2928  0.1593 -0.3813
45826SOL    HW144083   0.761   5.498  10.852 -0.3572  0.7063 -1.6684
45826SOL    HW244084   0.861   5.588  10.921 -0.7085 -0.1045 -0.0380
45827SOL     OW44085   4.122   4.957  11.762 -0.3389 -0.6076  0.0449
45827SOL    HW144086   4.129   4.862  11.773  2.4356 -0.4053  0.7113
45827SOL    HW244087   4.028   4.973  11.755 -0.8998 -3.3718  0.0353
45828SOL     OW44088  12.012  10.707   9.033  0.1799  0.1689  0.1985
45828SOL    HW144089  11.999  10.702   8.938  0.7181 -0.5863  0.1578
45828SOL    HW244090  12.105  10.693   9.045 -0.1428 -1.6933  0.9528
45829SOL     OW44091   3.239   8.835   2.485 -0.2497  0.0609  0.1666
45829SOL    HW144092   3.262   8.802   2.399  1.2962  2.8475 -0.6052
45829SOL    HW244093   3.322   8.861   2.525 -0.9750 -0.6721  2.3415
45830SOL     OW44094  10.222  12.183  10.174  0.3569 -0.8603  0.0449
45830SOL    HW144095  10.256  12.221  10.255 -0.0474 -2.4105  0.9791
45830SOL    HW244096  10.130  12.206  10.174  0.1579 -1.6102  0.5076
45831SOL     OW44097   6.677   2.998  11.206  0.0739 -0.0326  0.3083
45831SOL    HW144098   6.696   3.021  11.115  0.2256 -1.8452 -0.1561
45831SOL    HW244099   6.737   2.925  11.225 -0.9781 -0.6447  1.3880
45832SOL     OW44100   3.089   5.389   2.425  0.0686  0.8682  0.0960
45832SOL    HW144101   2.993   5.390   2.420  0.1120 -0.7128 -1.7664
45832SOL    HW244102   3.117   5.448   2.355  0.4599  0.0584 -0.4389
45833SOL     OW44103   3.663   4.681   7.943  0.1346  0.3185  0.2694
45833SOL    HW144104   3.736   4.694   7.883  0.5471 -0.1978  0.6529
45833SOL    HW244105   3.663   4.760   7.997 -0.5296  1.0009 -0.6944
45834SOL     OW44106   5.456   5.100   8.120  0.0695  0.2116  0.1491
45834SOL    HW144107   5.479   5.191   8.107  0.4942  0.1800  0.6571
45834SOL    HW244108   5.360   5.098   8.115  0.0421  0.7336  0.4413
45835SOL     OW44109   1.769   4.855   1.722  0.1771 -0.2125 -0.2479
45835SOL    HW144110   1.722   4.927   1.765 -0.9541 -2.0537  1.7716
45835SOL    HW244111   1.844   4.838   1.779  1.2250  0.2117 -1.4490
45836SOL     OW44112   5.119  11.337   3.992  0.3895  1.0746 -0.1201
45836SOL    HW144113   5.028  11.337   3.960 -0.2084 -0.0701  1.4066
45836SOL    HW244114   5.119  11.403   4.062 -0.0972 -0.8370  1.8100
45837SOL     OW44115   2.873   8.385  12.488 -0.4468  0.3247  0.1019
45837SOL    HW144116   2.889   8.458  12.428  0.5838  1.6828  1.9146
45837SOL    HW244117   2.932   8.316  12.458 -0.6151  0.6285 -0.9751
45838SOL     OW44118   7.588   8.339   5.410 -0.0408  0.3022  0.3065
45838SOL    HW144119   7.524   8.296   5.353  0.4547  0.9109 -0.7492
45838SOL    HW244120   7.564   8.431   5.407 -0.1608  0.3103  1.3159
45839SOL     OW44121   7.231   4.680   0.792 -0.0593  0.0446  0.0553
45839SOL    HW144122   7.227   4.758   0.736 -3.5194 -1.5785 -2.2502
45839SOL    HW244123   7.173   4.701   0.866 -0.8694 -0.2801 -0.4858
45840SOL     OW44124   2.275   1.418   1.236 -0.1900 -0.4909  0.9397
45840SOL    HW144125   2.263   1.355   1.164  1.6978 -1.1506  1.1515
45840SOL    HW244126   2.220   1.492   1.212  0.0046 -0.9025 -0.9441
45841SOL     OW44127   4.286   1.860   3.581 -0.4428 -0.1650  0.0560
45841SOL    HW144128   4.381   1.855   3.592 -0.4502  0.0806  0.2547
45841SOL    HW244129   4.271   1.942   3.535 -0.5453 -0.2999 -0.1513
45842SOL     OW44130   1.457   5.810   6.747  0.0509 -0.0987 -0.0821
45842SOL    HW144131   1.450   5.717   6.768 -0.2772 -0.2454 -0.8126
45842SOL    HW244132   1.370   5.835   6.715  0.4381  0.1831 -0.9486
45843SOL     OW44133   4.678   5.893   2.746 -0.3628  0.1013 -0.0461
45843SOL    HW144134   4.600   5.838   2.744  0.8963 -1.8425  0.6767
45843SOL    HW244135   4.648   5.979   2.718 -2.9391 -0.3390  1.0466
45844SOL     OW44136   5.169   2.477  11.509 -0.0166 -0.0603  0.4914
45844SOL    HW144137   5.176   2.459  11.602 -1.1881 -0.4026  0.5316
45844SOL    HW244138   5.258   2.498  11.481  0.1964  1.0250  1.8849
45845SOL     OW44139  10.265   4.966   3.111 -0.1014  0.2880 -0.3573
45845SOL    HW144140  10.199   5.033   3.130  1.5862  2.1384 -0.6591
45845SOL    HW244141  10.264   4.958   3.016 -1.5180 -1.4982 -0.2440
45846SOL     OW44142   3.514   6.376   5.851 -0.0353  0.0148 -0.5028
45846SOL    HW144143   3.583   6.391   5.786 -0.3314  0.5259 -0.6998
45846SOL    HW244144   3.457   6.452   5.845 -0.3000 -0.1271  0.0685
45847SOL     OW44145   3.874   4.746   6.301 -0.2649 -0.4021 -0.5406
45847SOL    HW144146   3.801   4.798   6.335  0.4639 -0.2763  0.9079
45847SOL    HW244147   3.943   4.809   6.282  0.1426 -0.6855 -0.0495
45848SOL     OW44148  11.072  11.243  11.689  0.7383  0.4165 -0.1299
45848SOL    HW144149  11.051  11.327  11.729  1.4253  0.7344 -0.4166
45848SOL    HW244150  11.128  11.199  11.753  0.9026  0.4466 -0.2522
45849SOL     OW44151   1.822   9.180   6.320 -0.6711  0.2628  0.3516
45849SOL    HW144152   1.780   9.113   6.268 -0.6248  1.1190 -0.8269
45849SOL    HW244153   1.903   9.200   6.274 -0.6295  1.0356  0.7332
45850SOL     OW44154   9.315   1.938   8.011 -0.1436  0.1711 -0.2151
45850SOL    HW144155   9.306   1.842   8.008  1.3101  0.0194 -1.0727
45850SOL    HW244156   9.407   1.952   8.035 -0.3797  1.3598  0.0259
45851SOL     OW44157   9.918   4.032   0.001 -0.1966 -0.1573 -0.4470
45851SOL    HW144158   9.897   3.938   0.009 -1.1368  0.0580 -0.2619
45851SOL    HW244159   9.843   4.069  -0.045 -0.5075  0.7442  0.7296
45852SOL     OW44160   9.458   5.153   0.789  0.0445  0.0345  0.1608
45852SOL    HW144161   9.442   5.166   0.883 -0.0263 -1.5010  0.3898
45852SOL    HW244162   9.534   5.208   0.769  1.2768 -1.0525  1.5779
45853SOL     OW44163   6.489   5.403   6.373 -0.3137  0.9176  0.1695
45853SOL    HW144164   6.577   5.393   6.408  0.2446  0.3211 -1.3096
45853SOL    HW244165   6.473   5.498   6.374  0.9025  1.1543 -0.8087
45854SOL     OW44166   4.775   3.721  10.830  0.0044 -0.3306 -0.3919
45854SOL    HW144167   4.871   3.717  10.831  0.0654  0.8852  0.0135
45854SOL    HW244168   4.748   3.650  10.889  0.7049  0.1869  0.5787
45855SOL     OW44169  12.182  11.046   5.485 -0.2621 -1.3674 -0.4768
45855SOL    HW144170  12.220  10.958   5.482 -1.2716 -1.8094 -0.6842
45855SOL    HW244171  12.118  11.042   5.556 -0.0084 -0.6628 -0.1963
45856SOL     OW44172   7.848   7.041   7.287 -0.4426 -0.1285  0.7317
45856SOL    HW144173   7.804   6.962   7.319  0.4032 -0.8597  0.1506
45856SOL    HW244174   7.941   7.018   7.289 -0.2081  0.7588  0.2789
45857SOL     OW44175   5.249   0.408   7.897  0.6101 -0.1425  0.4061
45857SOL    HW144176   5.267   0.343   7.830 -0.3465 -1.2088  1.1515
45857SOL    HW244177   5.302   0.484   7.872  1.4671 -1.0698 -0.6704
45858SOL     OW44178   0.827   2.482   6.995  0.1418  0.3142 -0.0290
45858SOL    HW144179   0.855   2.402   6.950  0.6644 -1.0833  2.5673
45858SOL    HW244180   0.731   2.473   7.002 -0.2706  1.6615 -2.7028
45859SOL     OW44181  12.270   5.290  11.820  0.2329  0.3133 -0.3087
45859SOL    HW144182  12.240   5.282  11.730  0.1408  1.3681 -0.3762
45859SOL    HW244183  12.337   5.358  11.818 -0.1833  0.7644  0.5134
45860SOL     OW44184   6.945   1.937   0.270  0.1629  0.3748  0.3286
45860SOL    HW144185   7.018   1.877   0.282  1.6547  2.0655 -0.0090
45860SOL    HW244186   6.871   1.893   0.313  0.6888 -2.5492 -1.5077
45861SOL     OW44187   6.583  12.254   7.472 -0.2498 -0.2923  0.4315
45861SOL    HW144188   6.559  12.203   7.549  0.0415  0.0108  0.7258
45861SOL    HW244189   6.499  12.288   7.439 -0.5446 -1.5882 -0.2308
45862SOL     OW44190   9.931   3.524   1.857 -0.3444 -0.2153 -0.4971
45862SOL    HW144191   9.836   3.513   1.862 -0.2339 -1.0400 -0.1384
45862SOL    HW244192   9.966   3.437   1.873  0.4538 -0.1503 -1.8331
45863SOL     OW44193   9.310   5.937   7.810 -0.2207  0.0282  0.1371
45863SOL    HW144194   9.301   6.010   7.748  0.9658 -0.6686 -0.8921
45863SOL    HW244195   9.248   5.958   7.880  0.3282  2.2093  0.0507
45864SOL     OW44196   1.788  12.003   5.980  0.1417  0.0542 -0.2635
45864SOL    HW144197   1.763  12.093   5.959  0.8888 -0.0949 -1.8782
45864SOL    HW244198   1.818  11.966   5.898 -1.2419 -2.0692  0.0945
45865SOL     OW44199   3.080   7.846   0.869 -0.4461  0.5606  0.5767
45865SOL    HW144200   3.161   7.830   0.918 -0.6467  0.8188  1.0019
45865SOL    HW244201   3.042   7.759   0.856 -1.0441  0.5871  2.0228
45866SOL     OW44202   3.909   0.502   7.863 -0.2651 -0.1149 -0.1062
45866SOL    HW144203   3.965   0.438   7.819  2.8716  0.3033  2.8420
45866SOL    HW244204   3.955   0.585   7.853 -0.7796  0.4272  1.6379
45867SOL     OW44205   9.333  10.465   7.232 -0.0013 -0.1334  0.1677
45867SOL    HW144206   9.252  10.511   7.211  0.5089  0.1483 -1.2800
45867SOL    HW244207   9.366  10.507   7.311  0.3455  1.9023 -1.0026
45868SOL     OW44208   6.539   7.173  10.564  0.3379  0.3632  0.3577
45868SOL    HW144209   6.462   7.157  10.510  1.2417  1.1479 -1.2401
45868SOL    HW244210   6.539   7.267  10.579  0.6088  0.2729  0.9452
45869SOL     OW44211   6.795   9.799   7.507  0.2836 -0.3214  0.0468
45869SOL    HW144212   6.715   9.821   7.555  0.5195 -0.4295  0.4832
45869SOL    HW244213   6.764   9.744   7.434  0.0787 -1.2029  0.7837
45870SOL     OW44214   1.641  11.165   4.139  0.7451 -0.4146 -0.1751
45870SOL    HW144215   1.683  11.251   4.131  1.7806 -0.8311  0.4734
45870SOL    HW244216   1.712  11.102   4.124  0.0317 -1.1564 -0.5053
45871SOL     OW44217   4.125   1.761   9.694 -0.5919  0.5012 -0.6658
45871SOL    HW144218   4.107   1.682   9.744  3.9877 -0.7436 -0.5215
45871SOL    HW244219   4.110   1.736   9.603  0.6464 -0.5925 -0.6038
45872SOL     OW44220   2.829   0.937   2.841 -0.0502  0.2973  0.0712
45872SOL    HW144221   2.823   0.845   2.866  0.6244  0.3036  0.2799
45872SOL    HW244222   2.923   0.957   2.845  0.1288  0.2776 -2.6447
45873SOL     OW44223   4.067  11.415  11.224 -0.1446  0.2184  0.2565
45873SOL    HW144224   4.127  11.348  11.257  1.6806  2.8830  2.8866
45873SOL    HW244225   3.990  11.408  11.280 -0.3243 -0.2248 -0.0438
45874SOL     OW44226   6.202   6.028   4.460  0.2617 -0.4405  1.1885
45874SOL    HW144227   6.283   6.062   4.420 -0.7923  0.0945 -0.5931
45874SOL    HW244228   6.137   6.096   4.445 -1.0983 -1.8275  0.4737
45875SOL     OW44229  10.785   1.408  11.950 -0.3360  0.7069 -0.0761
45875SOL    HW144230  10.869   1.433  11.989  0.5339 -1.4153 -0.4499
45875SOL    HW244231  10.775   1.467  11.876 -0.8280  3.1705  1.8341
45876SOL     OW44232   3.939  11.160   8.471  0.4988  0.4599 -0.1238
45876SOL    HW144233   3.905  11.192   8.555  3.2290 -0.6709  1.5661
45876SOL    HW244234   4.032  11.182   8.473  1.0853 -1.5026 -1.8824
45877SOL     OW44235   3.899   4.845   2.301  0.5104 -0.3368 -0.0054
45877SOL    HW144236   3.914   4.758   2.265 -1.7246 -0.7846  0.0596
45877SOL    HW244237   3.889   4.831   2.395  4.0013  0.5450  0.6390
45878SOL     OW44238   2.828  11.569  12.219 -0.3654  0.0858 -0.2369
45878SOL    HW144239   2.755  11.507  12.220 -1.5502  1.3854 -1.3367
45878SOL    HW244240   2.878  11.548  12.298 -0.2961 -2.7090 -0.9192
45879SOL     OW44241   7.265   8.501   0.449  0.5170 -0.4135  0.0058
45879SOL    HW144242   7.245   8.590   0.477  0.4548 -0.0671 -1.0881
45879SOL    HW244243   7.337   8.473   0.506 -2.6805 -1.6297  3.9590
45880SOL     OW44244   3.688   8.918   3.225  0.1647 -0.0248  0.2269
45880SOL    HW144245   3.743   8.902   3.149  0.1172  0.0852  0.1687
45880SOL    HW244246   3.618   8.853   3.218 -0.3077  0.5234 -0.2806
45881SOL     OW44247   1.014   8.493   8.697 -0.3589  0.0882 -0.1712
45881SOL    HW144248   1.011   8.575   8.746  0.0265 -1.0061  1.7884
45881SOL    HW244249   0.924   8.460   8.701 -0.6836  0.6906 -1.5721
45882SOL     OW44250   4.721   0.552   2.144 -0.1759 -0.2496  0.1569
45882SOL    HW144251   4.802   0.537   2.192 -0.4611 -0.5041  0.5709
45882SOL    HW244252   4.699   0.466   2.108  1.1722  0.3482 -2.2943
45883SOL     OW44253   0.170   9.731   6.101 -0.5491 -0.2847 -0.5001
45883SOL    HW144254   0.152   9.643   6.067  0.1537 -1.2936  1.5788
45883SOL    HW244255   0.245   9.720   6.159 -0.5105  1.6897 -0.1009
45884SOL     OW44256   5.698   8.832   8.428 -0.4611  0.0136  0.2668
45884SOL    HW144257   5.738   8.862   8.510 -1.0502  0.9407  0.2341
45884SOL    HW244258   5.682   8.912   8.379  0.1588 -0.5541 -0.8947
45885SOL     OW44259   8.730   6.539  11.075 -0.1100 -0.2811 -0.1163
45885SOL    HW144260   8.820   6.566  11.058 -0.5263  0.1515 -1.8869
45885SOL    HW244261   8.688   6.618  11.111 -0.2741  0.1587 -1.2470
45886SOL     OW44262  12.386   6.968   5.215 -0.1028  0.0842  0.4628
45886SOL    HW144263  12.339   6.939   5.136  0.8875 -0.5173  0.0873
45886SOL    HW244264  12.316   6.987   5.278 -0.9055  0.3376 -0.4666
45887SOL     OW44265  10.108   9.459  10.219 -0.2887  0.3834  0.0319
45887SOL    HW144266  10.201   9.437  10.213 -0.6732 -1.1601 -0.5969
45887SOL    HW244267  10.098   9.496  10.307  1.0170  1.1393 -0.1112
45888SOL     OW44268   7.886   1.464  11.907 -0.2909 -0.1482  0.1783
45888SOL    HW144269   7.915   1.453  11.997  2.1094  1.3916 -0.3233
45888SOL    HW244270   7.796   1.496  11.915 -0.3028 -0.5214  1.9858
45889SOL     OW44271  10.609   8.357   4.682  0.2943  0.8951 -0.0194
45889SOL    HW144272  10.595   8.270   4.720  0.4988  1.4530  1.4035
45889SOL    HW244273  10.521   8.387   4.658  0.2755  0.1051 -1.0020
45890SOL     OW44274   8.295   1.050   3.903 -0.2689 -0.1290 -0.1246
45890SOL    HW144275   8.379   1.039   3.947  0.3469  0.0477 -1.2217
45890SOL    HW244276   8.317   1.088   3.818 -1.2869 -1.6471 -1.1246
45891SOL     OW44277   1.348   8.281   4.067 -0.4202  0.0134 -0.1591
45891SOL    HW144278   1.389   8.319   3.989  0.6681  0.2573  0.5049
45891SOL    HW244279   1.360   8.186   4.056  2.0345  0.1306  0.8678
45892SOL     OW44280  12.612   9.276  11.996 -0.0550  0.0124  0.9608
45892SOL    HW144281  12.636   9.201  11.941 -0.7650  1.1968 -1.0827
45892SOL    HW244282  12.696   9.316  12.020  0.2803  1.0351 -1.6246
45893SOL     OW44283  10.215   8.252   8.289  0.6003 -0.5001 -0.3234
45893SOL    HW144284  10.238   8.335   8.332 -2.4571  0.8723 -1.0022
45893SOL    HW244285  10.160   8.207   8.353 -0.3065 -0.5152 -1.0902
45894SOL     OW44286   3.412   2.436   5.405  0.4426 -0.5739 -0.0101
45894SOL    HW144287   3.464   2.441   5.485  0.4710  0.1455 -0.0734
45894SOL    HW244288   3.445   2.358   5.361  1.5659 -0.0602 -0.1121
45895SOL     OW44289  12.379   0.112   7.808  0.3692  0.1213 -0.0944
45895SOL    HW144290  12.464   0.077   7.782  0.6015  0.3973  0.2803
45895SOL    HW244291  12.344   0.153   7.728 -0.8730 -2.7636 -1.1510
45896SOL     OW44292  12.550  10.140   0.733 -0.8044  0.3331 -0.1692
45896SOL    HW144293  12.599  10.083   0.674 -0.7359 -1.2969  1.4120
45896SOL    HW244294  12.458  10.126   0.710 -0.8027 -0.6384  0.3788
45897SOL     OW44295  10.075  11.164   7.355  0.6153  0.2329  0.3361
45897SOL    HW144296  10.039  11.240   7.309 -1.3175  0.3267  1.8764
45897SOL    HW244297  10.169  11.166   7.335  0.5651  2.8319  0.0704
45898SOL     OW44298  12.768   2.812   3.917  0.0468 -0.3334  0.2737
45898SOL    HW144299  12.746   2.879   3.852  2.1953 -0.4705 -0.6912
45898SOL    HW244300  12.684   2.778   3.946 -1.0336  0.1311 -2.0471
45899SOL     OW44301   8.568   2.638   3.752  0.0783  0.2804  0.1163
45899SOL    HW144302   8.636   2.650   3.685  0.3756  0.3827  0.4306
45899SOL    HW244303   8.576   2.716   3.807 -0.1997  0.2226  0.2378
45900SOL     OW44304   7.129  12.135   0.096  0.4589  0.3523  0.1397
45900SOL    HW144305   7.048  12.168   0.057  1.0077 -0.6979 -2.0478
45900SOL    HW244306   7.108  12.044   0.120  1.0024  0.0333 -0.5606
45901SOL     OW44307   0.263   9.234  10.046 -0.1176 -0.0398  0.1473
45901SOL    HW144308   0.199   9.278  10.102  1.3530  0.4541  1.4984
45901SOL    HW244309   0.254   9.277   9.961 -1.5979 -0.0132  0.2906
45902SOL     OW44310   2.091   5.125   1.641  0.4971  0.2721 -0.3581
45902SOL    HW144311   2.161   5.072   1.602  1.5473  0.9793  0.5045
45902SOL    HW244312   2.123   5.146   1.729 -1.1539 -0.0321  0.3524
45903SOL     OW44313   5.857   1.286   4.833  0.5930 -0.1040 -0.4841
45903SOL    HW144314   5.878   1.197   4.861  0.3227  0.2542  0.9683
45903SOL    HW244315   5.770   1.278   4.792  0.3801 -0.4506  0.0223
45904SOL     OW44316   4.023   5.889   8.774 -0.3175 -0.8349 -0.4468
45904SOL    HW144317   4.055   5.800   8.756 -1.1333 -1.3814  0.6616
45904SOL    HW244318   4.051   5.906   8.864 -0.1938  0.0275 -0.6402
45905SOL     OW44319   8.244   1.907   1.384  0.6149 -0.4623 -0.2591
45905SOL    HW144320   8.278   1.925   1.296 -1.8385 -4.3200 -2.2259
45905SOL    HW244321   8.155   1.876   1.370 -0.0557 -0.8313  3.6848
45906SOL     OW44322   1.971   5.980  10.193 -0.1833  0.2737 -0.1422
45906SOL    HW144323   1.939   5.933  10.270 -0.8987  0.2674 -0.4366
45906SOL    HW244324   1.905   5.962  10.125  1.5121 -1.5913 -1.4378
45907SOL     OW44325   0.996   7.005   0.206 -0.8202  0.3426  0.2609
45907SOL    HW144326   1.032   6.979   0.122 -3.7892  0.6797 -1.2528
45907SOL    HW244327   0.951   6.927   0.239 -1.1207  0.6968  0.7119
45908SOL     OW44328   2.692   4.780   7.476  0.3169 -0.0148  0.1781
45908SOL    HW144329   2.735   4.695   7.479  0.0443 -0.1686 -0.1874
45908SOL    HW244330   2.599   4.760   7.487  0.2493  0.2327  0.0551
45909SOL     OW44331   2.484   8.742   2.969  0.4740  0.2223 -0.3992
45909SOL    HW144332   2.524   8.676   3.026 -0.6955  0.0310  0.2431
45909SOL    HW244333   2.524   8.825   2.997  0.0713  0.1040  0.5715
45910SOL     OW44334  10.782   1.818   3.434 -0.3483 -0.0158 -0.2370
45910SOL    HW144335  10.777   1.874   3.357 -0.9060  1.0425  0.5403
45910SOL    HW244336  10.693   1.787   3.448 -0.2670 -0.1401  0.0309
45911SOL     OW44337   7.668   0.025   0.164  0.1754  0.0441  0.1254
45911SOL    HW144338   7.677   0.112   0.125 -0.4029  0.8710  1.7813
45911SOL    HW244339   7.735  -0.027   0.120  0.3573  1.2422 -1.0868
45912SOL     OW44340   0.038   4.972  10.793 -0.4192 -0.3609  0.3697
45912SOL    HW144341   0.060   4.892  10.745 -0.7254 -0.1149 -0.1843
45912SOL    HW244342   0.022   4.942  10.882 -2.3186 -1.2010 -0.1959
45913SOL     OW44343   3.408   4.578  11.215  0.4247  0.3419  0.0580
45913SOL    HW144344   3.492   4.586  11.169  0.9876  1.3340  1.2056
45913SOL    HW244345   3.390   4.484  11.215  0.7005  0.2621 -1.6364
45914SOL     OW44346   8.513  10.564   3.601 -0.2472 -0.3830 -0.3352
45914SOL    HW144347   8.602  10.555   3.565  0.0802 -0.2300  0.4264
45914SOL    HW244348   8.465  10.490   3.564  0.2257 -0.5294 -0.6669
45915SOL     OW44349   5.870   7.544   3.674 -0.0636 -0.2760 -0.7261
45915SOL    HW144350   5.857   7.514   3.584 -0.8087 -0.4344 -0.5756
45915SOL    HW244351   5.902   7.467   3.721  3.1575  0.5168 -1.4421
45916SOL     OW44352  12.362  11.652   8.689 -0.2355  0.1527  0.2240
45916SOL    HW144353  12.380  11.745   8.703  0.5128  0.1198 -0.5038
45916SOL    HW244354  12.402  11.608   8.765 -0.0137  0.3595  0.2247
45917SOL     OW44355   6.693   4.188  10.336 -0.3852  0.4560  0.3164
45917SOL    HW144356   6.658   4.274  10.312  1.9285  2.0097  2.0993
45917SOL    HW244357   6.772   4.180  10.282 -1.5767 -1.5248 -1.2695
45918SOL     OW44358   4.730   4.457   4.196 -0.4535  0.5729  0.0453
45918SOL    HW144359   4.689   4.526   4.144  0.1285  1.5421  0.8421
45918SOL    HW244360   4.687   4.376   4.167 -2.6072  1.4829  0.5216
45919SOL     OW44361  11.806   3.658   3.237 -0.0150 -0.2762  0.3075
45919SOL    HW144362  11.817   3.735   3.292 -0.1886  0.5865 -0.8268
45919SOL    HW244363  11.893   3.642   3.201 -0.0678 -0.3567  0.2170
45920SOL     OW44364   6.486   0.241   3.162 -0.3228 -0.2867 -0.3789
45920SOL    HW144365   6.443   0.291   3.092 -0.7394 -1.2945 -0.8680
45920SOL    HW244366   6.429   0.252   3.238 -0.3498  0.0786 -0.4526
45921SOL     OW44367   0.840   0.814   8.454 -0.2103 -0.3617 -0.4462
45921SOL    HW144368   0.863   0.895   8.408 -0.6491  0.2383  0.3618
45921SOL    HW244369   0.851   0.745   8.388  0.8825  0.2579 -0.9479
45922SOL     OW44370   8.080   2.997   9.253  0.6379  0.1060  0.1399
45922SOL    HW144371   8.079   3.080   9.301  2.2225  0.6388 -0.6761
45922SOL    HW244372   8.088   3.023   9.161  0.6443 -0.9480 -0.1727
45923SOL     OW44373   4.837   3.112   7.675 -0.3959  0.2393 -0.3853
45923SOL    HW144374   4.893   3.119   7.597 -0.0528  3.1030  0.0110
45923SOL    HW244375   4.896   3.129   7.748 -0.8515 -1.7709  0.4966
45924SOL     OW44376  10.054   9.812  10.910  0.3679  0.5379  0.8176
45924SOL    HW144377  10.019   9.898  10.887 -0.9079 -0.1490  0.0501
45924SOL    HW244378   9.976   9.757  10.924  1.1415 -0.6618  0.6147
45925SOL     OW44379   6.244  10.290   1.704  0.6837  0.0588  0.0476
45925SOL    HW144380   6.166  10.320   1.750  0.7883 -0.5166  0.6031
45925SOL    HW244381   6.305  10.364   1.712  1.0290 -0.3515  1.6329
45926SOL     OW44382   5.247   3.833   2.177  0.2337 -0.1319 -0.0903
45926SOL    HW144383   5.294   3.910   2.210 -0.9807  0.2024  0.9155
45926SOL    HW244384   5.264   3.765   2.242 -1.1080  0.1535  0.5827
45927SOL     OW44385   2.538   7.476   0.177 -0.4526 -0.1406  0.4738
45927SOL    HW144386   2.527   7.479   0.082 -1.4692 -2.4538  0.4610
45927SOL    HW244387   2.605   7.542   0.195  0.5362 -0.3639 -1.9661
45928SOL     OW44388   8.950   1.980  11.104 -0.2684  0.3187  0.4751
45928SOL    HW144389   8.967   1.889  11.128 -3.2098 -0.2683  0.6939
45928SOL    HW244390   9.013   2.030  11.156  0.3267 -1.4867  1.6064
45929SOL     OW44391   2.391  11.575   0.704  0.4482  0.8626  0.5399
45929SOL    HW144392   2.451  11.506   0.733 -0.4512 -0.4378 -0.5655
45929SOL    HW244393   2.346  11.603   0.784 -0.6566 -1.3511  0.7630
45930SOL     OW44394   9.726   0.909   1.920  0.4041  0.0803 -0.3363
45930SOL    HW144395   9.717   0.834   1.979  0.7611 -1.3488 -2.0136
45930SOL    HW244396   9.816   0.902   1.886  0.3922  1.1868 -0.6491
45931SOL     OW44397   9.120   3.359   8.647  0.0381 -0.2569  0.5927
45931SOL    HW144398   9.047   3.421   8.652 -0.5380 -0.9812  1.9909
45931SOL    HW244399   9.178   3.385   8.719  1.0309  0.1207 -0.3149
45932SOL     OW44400  11.163   2.426   8.161  0.7594  0.1006  0.2365
45932SOL    HW144401  11.220   2.503   8.162  1.0180 -0.0766 -0.3086
45932SOL    HW244402  11.222   2.353   8.141  0.4551 -0.1857  0.3716
45933SOL     OW44403  11.742  11.152   7.525  0.0689  0.0097  0.0646
45933SOL    HW144404  11.831  11.179   7.549  0.3206 -0.1600 -0.6597
45933SOL    HW244405  11.688  11.176   7.601  0.8895 -0.7672  0.9266
45934SOL     OW44406   1.083   7.675   3.907  0.2704 -0.1028  0.2212
45934SOL    HW144407   1.057   7.584   3.892  0.3095 -0.2215  0.8483
45934SOL    HW244408   1.168   7.683   3.862  0.2500 -0.3660  0.1324
45935SOL     OW44409   6.208  10.303   2.435 -0.3434  0.8053 -0.2719
45935SOL    HW144410   6.224  10.303   2.529  0.3353 -0.0552 -0.3713
45935SOL    HW244411   6.113  10.305   2.426 -0.4029  1.9448  0.4033
45936SOL     OW44412   7.375   0.950   7.918 -0.1633 -0.3386 -0.0601
45936SOL    HW144413   7.318   0.923   7.846  0.5881 -0.9610 -0.4413
45936SOL    HW244414   7.393   1.043   7.901 -0.8627 -0.2033 -0.0683
45937SOL     OW44415  10.918  11.404  11.432  0.2682  0.2446 -0.0176
45937SOL    HW144416  10.978  11.435  11.364  1.4775  0.6827  1.2047
45937SOL    HW244417  10.838  11.453  11.418  1.6412  2.9440  0.9626
45938SOL     OW44418   1.681   3.191   6.185 -0.2140 -0.1035  0.1483
45938SOL    HW144419   1.600   3.162   6.143  0.7013 -1.2006 -0.9228
45938SOL    HW244420   1.692   3.281   6.156 -0.4427 -0.3281 -0.6476
45939SOL     OW44421   3.282   8.128   5.857 -0.6162 -0.2724 -0.0990
45939SOL    HW144422   3.306   8.035   5.856 -1.0904 -0.4796  2.1128
45939SOL    HW244423   3.223   8.138   5.783  0.4926 -1.4108 -1.1796
45940SOL     OW44424   1.719   1.426   3.063  0.3446  0.3553  0.9508
45940SOL    HW144425   1.706   1.331   3.064 -0.5513  0.4494  2.3820
45940SOL    HW244426   1.797   1.440   3.116  1.8771  0.3099 -1.1755
45941SOL     OW44427   1.398   7.735   1.856  0.0828 -0.2160 -0.0755
45941SOL    HW144428   1.350   7.653   1.844  0.5139 -0.4340 -0.3542
45941SOL    HW244429   1.362   7.773   1.936  0.4244 -1.0709  0.5023
45942SOL     OW44430   3.518  12.651  12.608  0.4866 -0.3541  0.8288
45942SOL    HW144431   3.556  12.564  12.615  0.5321 -0.3349  0.8173
45942SOL    HW244432   3.521  12.686  12.697  1.1415 -0.0766  0.7039
45943SOL     OW44433   1.470   6.571   0.207  0.2841 -0.0511 -0.6406
45943SOL    HW144434   1.428   6.555   0.292 -0.7767 -0.8271 -1.2862
45943SOL    HW244435   1.560   6.595   0.229 -0.0207 -0.0409  0.7092
45944SOL     OW44436   8.923   3.559  11.485 -0.0837  0.8766 -0.0244
45944SOL    HW144437   8.877   3.607  11.415  1.0164  0.5082 -1.0370
45944SOL    HW244438   8.858   3.497  11.518 -0.9801  1.8384  0.0894
45945SOL     OW44439   3.956   0.496   0.833 -0.1225  0.3502 -0.2496
45945SOL    HW144440   3.898   0.437   0.786  1.5603  0.0380 -2.0553
45945SOL    HW244441   3.938   0.583   0.797 -0.1347  0.3997 -0.1249
45946SOL     OW44442   2.358   4.177   7.476 -0.3647 -0.1401 -0.3438
45946SOL    HW144443   2.426   4.242   7.456 -1.2134  1.2135  0.9587
45946SOL    HW244444   2.325   4.203   7.562 -0.0693 -2.9017  0.6942
45947SOL     OW44445   6.421   7.181   0.674  0.5866 -0.4935  0.0056
45947SOL    HW144446   6.408   7.091   0.643  0.4506 -0.3970 -0.2184
45947SOL    HW244447   6.337   7.224   0.658  1.2429  0.2350 -1.8041
45948SOL     OW44448   6.215   0.451  10.075  0.3118  0.1650 -0.4478
45948SOL    HW144449   6.174   0.467   9.990  0.3615  1.3478 -0.2700
45948SOL    HW244450   6.151   0.398  10.123 -1.1421  2.0657 -0.1349
45949SOL     OW44451   9.204   6.647   4.886 -0.1204 -0.3156  0.1371
45949SOL    HW144452   9.160   6.626   4.804 -1.9072  2.3973  0.2765
45949SOL    HW244453   9.296   6.659   4.862 -0.5897  0.2686 -1.4442
45950SOL     OW44454  10.380   1.077   6.169 -0.1149 -0.5939  0.6380
45950SOL    HW144455  10.310   1.014   6.157  1.2513 -2.2103  0.7558
45950SOL    HW244456  10.447   1.051   6.104 -0.3065  1.9825 -0.7321
45951SOL     OW44457   6.563  10.055  11.700  0.0874 -0.3167  0.3174
45951SOL    HW144458   6.572  10.127  11.637 -0.8782  1.1631  1.7859
45951SOL    HW244459   6.498   9.997  11.661 -1.9531  1.5624  0.7284
45952SOL     OW44460  10.353   6.181  12.362 -0.5826 -0.3599 -0.2812
45952SOL    HW144461  10.392   6.197  12.448  0.0824  1.7408 -0.9072
45952SOL    HW244462  10.278   6.124  12.380  0.9298 -1.9757  1.3404
45953SOL     OW44463  11.704  11.320   1.653  0.3561 -0.5780 -0.0985
45953SOL    HW144464  11.685  11.230   1.630 -0.2930 -0.8840  1.4770
45953SOL    HW244465  11.621  11.367   1.638  0.2576 -0.5562  0.4840
45954SOL     OW44466   9.782   2.919   9.631  0.1101 -0.4038  0.9146
45954SOL    HW144467   9.787   2.824   9.619  0.0689 -0.3953  0.8239
45954SOL    HW244468   9.695   2.935   9.665  0.2114 -0.4241  1.1835
45955SOL     OW44469   8.619  10.042   2.243  0.9999 -0.2320 -0.1485
45955SOL    HW144470   8.535  10.086   2.256  0.0834 -1.1633 -2.4306
45955SOL    HW244471   8.682  10.097   2.290 -0.5911  1.5860 -0.0191
45956SOL     OW44472   8.637  10.875   0.927 -0.4894  0.4172 -0.2666
45956SOL    HW144473   8.597  10.938   0.987  2.0056  2.4902 -0.5758
45956SOL    HW244474   8.728  10.868   0.958 -0.4169 -2.3948 -0.8312
45957SOL     OW44475   6.396   6.601   7.720 -0.1463 -0.1143 -0.9138
45957SOL    HW144476   6.482   6.578   7.685  0.6821 -0.7990  1.3985
45957SOL    HW244477   6.389   6.695   7.706  0.8279 -0.1031 -1.4474
45958SOL     OW44478   9.031   7.969   5.113  0.1726  0.2027  0.3042
45958SOL    HW144479   9.011   8.032   5.182 -1.3352  1.5428 -1.2559
45958SOL    HW244480   9.095   7.910   5.152 -0.9281  0.6252  2.9627
45959SOL     OW44481   1.482   2.547   1.506  0.5350  0.2510  0.1109
45959SOL    HW144482   1.548   2.552   1.437 -1.1317 -0.6112 -1.6289
45959SOL    HW244483   1.406   2.508   1.464 -0.6660 -0.0294  2.3848
45960SOL     OW44484   9.127   8.121   6.332 -0.2468  0.1761 -0.4094
45960SOL    HW144485   9.059   8.056   6.315 -1.1349  0.9905 -0.0978
45960SOL    HW244486   9.088   8.204   6.301  0.4063  0.7322  0.2350
45961SOL     OW44487   1.364   9.101   8.393 -0.0325  0.3962  0.3731
45961SOL    HW144488   1.290   9.045   8.367  0.2818  0.2369 -0.1963
45961SOL    HW244489   1.436   9.040   8.409  1.2424  0.7091 -3.2588
45962SOL     OW44490   8.556   6.778  10.147  1.2859  0.4508 -0.1686
45962SOL    HW144491   8.603   6.716  10.091 -1.4119 -1.5730 -0.3536
45962SOL    HW244492   8.582   6.754  10.236  0.0056 -1.3204 -0.2088
45963SOL     OW44493   8.239  12.204   1.076 -0.5427  0.2606  0.5501
45963SOL    HW144494   8.185  12.223   1.000 -0.4346 -0.4287  0.2959
45963SOL    HW244495   8.322  12.172   1.040 -0.6598 -0.5263  0.9476
45964SOL     OW44496  10.210  10.653   8.703  0.4623  0.5528  0.6046
45964SOL    HW144497  10.132  10.661   8.648  0.6409  1.6754  0.4938
45964SOL    HW244498  10.175  10.637   8.791  0.0351  2.4138  0.8067
45965SOL     OW44499   9.913   8.513   2.573 -0.2439 -0.8693  0.2116
45965SOL    HW144500   9.952   8.600   2.576  1.1315 -1.4635  0.0175
45965SOL    HW244501   9.865   8.506   2.656  0.9093 -0.4947  0.9332
45966SOL     OW44502   4.266   6.656  10.613 -0.1127  0.3033 -0.2837
45966SOL    HW144503   4.280   6.735  10.561 -0.9703  0.3072 -0.5168
45966SOL    HW244504   4.255   6.586  10.548  0.4248  0.0191 -0.0795
45967SOL     OW44505   3.350   1.508   8.644  0.8964 -0.6120  0.1361
45967SOL    HW144506   3.338   1.456   8.564 -1.8100 -0.7211  0.5185
45967SOL    HW244507   3.263   1.511   8.684  1.8335  0.8193  2.2555
45968SOL     OW44508   0.959  11.163   6.121 -0.1904 -0.2680 -0.1406
45968SOL    HW144509   0.905  11.209   6.185  1.4590  2.1983 -0.3780
45968SOL    HW244510   0.977  11.229   6.054  0.4864 -1.9474 -1.6857
45969SOL     OW44511   1.789   2.478   2.026  0.7827 -0.2809  0.3605
45969SOL    HW144512   1.699   2.512   2.023  1.5286  2.0544  1.6721
45969SOL    HW244513   1.816   2.490   2.117  2.4649 -0.8381 -0.0316
45970SOL     OW44514   1.009   6.534   6.152 -0.0451  0.1721  0.9918
45970SOL    HW144515   0.969   6.453   6.182 -0.5402 -0.8729 -2.0898
45970SOL    HW244516   1.060   6.509   6.075  1.6399  2.4676  1.2339
45971SOL     OW44517   7.861  11.015   5.263  0.0899  0.0083 -0.2497
45971SOL    HW144518   7.812  11.048   5.339  1.1401  0.5817  0.2023
45971SOL    HW244519   7.794  10.976   5.207 -0.8651  0.6306  0.4154
45972SOL     OW44520   6.440  12.414   4.713  0.3725 -0.1069  0.0969
45972SOL    HW144521   6.507  12.483   4.713 -0.3973  0.7069 -1.3256
45972SOL    HW244522   6.408  12.412   4.622  0.2957 -2.2927  0.1258
45973SOL     OW44523   6.820   9.629  11.699 -0.8126 -0.4406  0.2782
45973SOL    HW144524   6.824   9.724  11.693 -1.3030 -0.4830 -1.0507
45973SOL    HW244525   6.730   9.611  11.728 -1.4681 -0.5449 -1.6843
45974SOL     OW44526   4.512   7.130  11.652  0.0549 -0.4930 -0.2785
45974SOL    HW144527   4.421   7.156  11.637  0.1572 -0.1555 -0.3247
45974SOL    HW244528   4.543   7.189  11.721  0.6569  0.3613 -1.2305
45975SOL     OW44529  11.483   8.025   9.295  0.0389  0.1240 -0.2007
45975SOL    HW144530  11.490   8.106   9.245  2.9603  0.9454  1.2907
45975SOL    HW244531  11.431   8.049   9.372  0.7002  0.5825  0.1203
45976SOL     OW44532   8.076   7.211   4.746  0.3132 -0.0228 -0.3812
45976SOL    HW144533   7.994   7.175   4.778  1.2842 -0.4677  1.7564
45976SOL    HW244534   8.140   7.141   4.759  1.5088  1.1538  0.3636
45977SOL     OW44535   7.821  10.675   2.465 -0.4580 -0.5823  0.7446
45977SOL    HW144536   7.898  10.626   2.494  1.3016  0.2492 -2.1570
45977SOL    HW244537   7.782  10.621   2.396 -0.0526  0.7971 -0.6251
45978SOL     OW44538   7.063   8.327   9.496 -0.4216 -0.0225 -0.1577
45978SOL    HW144539   7.086   8.420   9.502  1.5012 -0.4149 -0.7046
45978SOL    HW244540   7.096   8.300   9.410 -1.3714 -1.1241 -0.2034
45979SOL     OW44541   7.898   3.522   1.876 -0.0175 -0.1676  0.2907
45979SOL    HW144542   7.851   3.490   1.953  0.6121  1.8360  1.5834
45979SOL    HW244543   7.845   3.493   1.801 -1.3851 -0.9700  1.5318
45980SOL     OW44544   3.257  11.743   6.999  0.5349  0.4997 -0.0464
45980SOL    HW144545   3.173  11.697   7.005  0.6056  0.3826  0.0506
45980SOL    HW244546   3.322  11.678   7.027  0.8017  0.1583 -1.4102
45981SOL     OW44547  10.236   7.710   0.715  0.2342  0.2494 -0.0749
45981SOL    HW144548  10.148   7.674   0.707  0.1385  0.0392  1.6097
45981SOL    HW244549  10.287   7.665   0.647 -0.0785 -2.4848  1.3467
45982SOL     OW44550   2.599   9.094   4.602  0.3087  0.7936 -0.0074
45982SOL    HW144551   2.607   9.186   4.579  0.9457  0.7189 -0.0901
45982SOL    HW244552   2.673   9.051   4.559  0.0981  0.2627  0.1422
45983SOL     OW44553   5.396   6.813   4.963  0.3589  0.2374 -0.7680
45983SOL    HW144554   5.484   6.820   4.925  0.4686  1.1534 -0.3728
45983SOL    HW244555   5.407   6.842   5.054 -1.0436  4.2647 -1.6912
45984SOL     OW44556   0.658   6.790  11.495  0.6117  0.2179  0.1664
45984SOL    HW144557   0.564   6.778  11.479  0.5913 -0.3772  0.7337
45984SOL    HW244558   0.699   6.712  11.458  0.9984  0.9496 -1.0167
45985SOL     OW44559  11.444   2.669   5.026 -0.6470  0.1335  0.0094
45985SOL    HW144560  11.513   2.674   4.960 -0.8912 -1.4588 -0.4032
45985SOL    HW244561  11.369   2.712   4.985 -0.2979  0.7350 -0.0274
45986SOL     OW44562   7.513   0.324   1.473 -0.3652  0.1642 -0.1618
45986SOL    HW144563   7.558   0.275   1.405  0.2587 -0.1579  0.4654
45986SOL    HW244564   7.437   0.363   1.430  0.6655  0.9596 -1.3279
45987SOL     OW44565   3.170   5.538   3.397  0.2973 -0.3310  0.0309
45987SOL    HW144566   3.146   5.466   3.338  1.0623 -1.1418  0.6848
45987SOL    HW244567   3.189   5.495   3.480  0.8918  0.6273  0.3973
45988SOL     OW44568   9.625   2.037   1.032 -0.3807  0.0183 -1.1627
45988SOL    HW144569   9.584   2.007   0.950 -0.8058 -1.0369 -0.5861
45988SOL    HW244570   9.708   1.990   1.035 -0.7698 -0.6474 -0.5579
45989SOL     OW44571   4.012   5.260   0.147 -0.2544 -0.0556 -0.1629
45989SOL    HW144572   4.060   5.289   0.070 -1.0866  0.9462 -0.3274
45989SOL    HW244573   3.932   5.219   0.112 -1.1754  1.3888  0.1447
45990SOL     OW44574  10.915  12.553   2.695  0.6441 -0.2946  0.5052
45990SOL    HW144575  10.875  12.638   2.713 -0.6653 -0.6030 -0.7868
45990SOL    HW244576  11.002  12.559   2.734  0.4719  1.5262  0.6991
45991SOL     OW44577  11.869   3.971   2.053  0.4720 -0.5567  0.5756
45991SOL    HW144578  11.862   4.033   2.126 -1.3594 -2.3435  2.0160
45991SOL    HW244579  11.915   3.896   2.090 -0.1346 -1.3328 -0.2115
45992SOL     OW44580  10.951   3.933   8.490 -0.4053  0.0553 -0.3804
45992SOL    HW144581  10.870   3.887   8.512 -0.6128 -0.0114 -1.2713
45992SOL    HW244582  10.930   3.985   8.413  0.7245 -0.9561 -1.4317
45993SOL     OW44583   9.860  10.713   9.564  0.2213  0.1820 -0.1347
45993SOL    HW144584   9.910  10.663   9.629  0.0627  1.5282  1.0746
45993SOL    HW244585   9.841  10.796   9.607 -1.8190  0.2725 -1.1005
45994SOL     OW44586   1.033  11.124  11.667  0.2384 -0.3363 -0.2249
45994SOL    HW144587   1.096  11.051  11.666  0.3953 -0.2225 -2.1192
45994SOL    HW244588   0.948  11.082  11.660  0.1538 -0.4247  1.0671
45995SOL     OW44589   9.923   0.149   8.972  0.2132 -0.2412 -0.3408
45995SOL    HW144590   9.865   0.151   8.896 -1.2551 -0.2222  0.7381
45995SOL    HW244591   9.965   0.063   8.968 -1.1135 -0.9101 -0.2677
45996SOL     OW44592   5.767   5.172  10.849  0.0911  1.0341  0.1902
45996SOL    HW144593   5.754   5.253  10.898 -1.0870  1.3487 -0.5705
45996SOL    HW244594   5.678   5.140  10.834  0.4704  0.4195 -0.8344
45997SOL     OW44595   8.466   2.328   2.365 -0.3238 -0.3187 -0.2702
45997SOL    HW144596   8.547   2.319   2.315 -0.1137 -0.4412  0.0890
45997SOL    HW244597   8.443   2.239   2.390 -0.1478 -0.2153  0.2855
45998SOL     OW44598   3.910   2.020  12.248 -0.0171 -0.6101 -0.5056
45998SOL    HW144599   3.855   2.086  12.206  1.2424  1.0877  0.3444
45998SOL    HW244600   3.999   2.041  12.218  0.6949 -0.4252  1.5693
45999SOL     OW44601   5.862   3.430   0.272 -0.0475 -0.6814 -0.2957
45999SOL    HW144602   5.776   3.470   0.260  0.7043  0.7201 -1.2791
45999SOL    HW244603   5.858   3.349   0.221 -0.6217 -0.3596 -0.7710
46000SOL     OW44604  10.294  10.259   0.498  0.7748  0.2826  0.3085
46000SOL    HW144605  10.280  10.331   0.437 -0.0427  0.5690  0.8295
46000SOL    HW244606  10.227  10.271   0.566 -0.1005 -1.5953 -0.1737
46001SOL     OW44607  11.846   4.871   7.046  0.2610  0.0945 -0.1580
46001SOL    HW144608  11.765   4.826   7.023  0.0265 -0.2182  1.1751
46001SOL    HW244609  11.839   4.957   7.004 -0.7610  0.0639 -0.0781
46002SOL     OW44610   3.433   7.651   4.983 -0.2350  0.0937 -0.1445
46002SOL    HW144611   3.360   7.607   5.027 -0.2969  1.6413  1.4023
46002SOL    HW244612   3.399   7.738   4.961  0.7553  0.3990 -0.5401
46003SOL     OW44613   4.886   9.256   5.461  0.0749  0.2002 -1.0201
46003SOL    HW144614   4.918   9.334   5.509 -0.0466 -0.8969  0.9698
46003SOL    HW244615   4.791   9.266   5.460  0.1610  1.1837 -2.8425
46004SOL     OW44616  10.951   4.415   5.484  0.0467  0.0109  0.1987
46004SOL    HW144617  10.877   4.397   5.425 -0.7053 -1.1637  1.4236
46004SOL    HW244618  10.972   4.329   5.521  1.9569  0.3601 -0.0108
46005SOL     OW44619   2.373   4.750  12.158 -0.3078 -0.5274 -0.0867
46005SOL    HW144620   2.386   4.659  12.186  0.5397 -0.4553 -0.2202
46005SOL    HW244621   2.342   4.795  12.237  0.9534 -0.5691  0.4590
46006SOL     OW44622   9.191   8.663   0.796 -0.4996  0.1399  0.1071
46006SOL    HW144623   9.257   8.724   0.764 -0.1462  0.2121  0.9352
46006SOL    HW244624   9.113   8.717   0.810 -0.2097  0.4102  0.7693
46007SOL     OW44625   0.431   1.189   5.333  0.4537 -0.0898 -0.5733
46007SOL    HW144626   0.397   1.162   5.248 -0.7187  0.2883 -0.2395
46007SOL    HW244627   0.354   1.216   5.383  1.2053  0.4386  0.3432
46008SOL     OW44628   4.394   5.071   4.477  0.0097  0.5853  0.9927
46008SOL    HW144629   4.381   5.157   4.518 -1.0781 -0.1339  2.2222
46008SOL    HW244630   4.426   5.091   4.389 -1.0829  2.2853  0.9410
46009SOL     OW44631   2.357  10.374   2.725 -0.3327 -0.0374 -0.0046
46009SOL    HW144632   2.422  10.306   2.747 -0.1098  0.4368  0.8502
46009SOL    HW244633   2.403  10.456   2.742 -0.2312  0.3893 -2.0471
46010SOL     OW44634   4.169   5.920   7.409 -0.2910  0.4264 -0.2652
46010SOL    HW144635   4.173   5.873   7.493  1.3916  2.2287  0.7348
46010SOL    HW244636   4.082   5.900   7.375 -1.4720  0.5010  2.4593
46011SOL     OW44637   5.264   5.020   5.403  0.3864 -0.4006 -0.8536
46011SOL    HW144638   5.195   5.082   5.425  1.0492 -0.8587  3.0830
46011SOL    HW244639   5.230   4.974   5.326 -1.4057  2.7257 -2.1368
46012SOL     OW44640   5.172   9.428  10.429 -0.1058  0.1592 -0.3077
46012SOL    HW144641   5.171   9.335  10.450  1.9435 -0.1885 -1.5255
46012SOL    HW244642   5.084   9.445  10.396 -0.9845 -0.9704  1.3029
46013SOL     OW44643   2.845   0.406   9.136  0.1576  0.3853 -0.3869
46013SOL    HW144644   2.773   0.424   9.196 -1.1656  0.8710 -2.0399
46013SOL    HW244645   2.886   0.327   9.171 -2.0714 -0.7332 -0.1368
46014SOL     OW44646   8.968  11.302   4.862  0.4350 -0.3504  0.4511
46014SOL    HW144647   9.044  11.359   4.855 -1.0385  1.5669 -0.9616
46014SOL    HW244648   8.995  11.221   4.818  2.3470 -0.6088  1.9439
46015SOL     OW44649   8.035  10.167   6.283 -0.6169 -0.4424 -0.5152
46015SOL    HW144650   8.098  10.174   6.212 -2.2063  1.2352 -1.8413
46015SOL    HW244651   7.972  10.100   6.254 -1.1486  0.0911 -0.6229
46016SOL     OW44652   7.658   0.003   5.175  0.4823  0.8836  0.3233
46016SOL    HW144653   7.638   0.075   5.115 -1.2448 -1.0618 -1.6185
46016SOL    HW244654   7.573  -0.019   5.214  1.0523  0.1380  1.1729
46017SOL     OW44655   3.999   5.349   7.851  1.0251 -0.0177 -0.3709
46017SOL    HW144656   3.927   5.338   7.914  1.0533  1.0937 -0.1409
46017SOL    HW244657   4.078   5.328   7.901  1.0792  1.1972  0.0734
46018SOL     OW44658   8.813   3.826   5.693  0.3571 -0.2996 -0.0215
46018SOL    HW144659   8.730   3.873   5.683 -0.6351 -2.0544 -0.4532
46018SOL    HW244660   8.825   3.782   5.609  0.9155 -1.2962  0.5626
46019SOL     OW44661   7.908   6.162  10.432  0.6533 -0.0105  0.3710
46019SOL    HW144662   7.899   6.084  10.487 -0.0351  0.4342  0.9017
46019SOL    HW244663   7.951   6.227  10.488  1.2556 -0.0092 -0.0812
46020SOL     OW44664   8.325   9.539   1.181  0.7927  0.0911  0.3835
46020SOL    HW144665   8.375   9.464   1.213  1.5348  0.8499  1.0511
46020SOL    HW244666   8.345   9.543   1.088 -0.2634 -1.2858  0.0524
46021SOL     OW44667   0.954   2.188   9.351 -0.3634 -1.0441 -0.2217
46021SOL    HW144668   0.934   2.256   9.285  1.8512 -0.2406 -0.1347
46021SOL    HW244669   0.893   2.206   9.422 -0.4904  0.2471 -0.6231
46022SOL     OW44670   1.889   6.635   5.722  0.0545  0.1694  0.2732
46022SOL    HW144671   1.848   6.553   5.747  0.0085 -0.5541 -1.9347
46022SOL    HW244672   1.982   6.621   5.735  0.1732 -0.7619 -1.3344
46023SOL     OW44673   3.818   7.219   2.490 -0.4581 -0.0429  1.1758
46023SOL    HW144674   3.848   7.129   2.498  0.3416  0.2129  1.0968
46023SOL    HW244675   3.728   7.211   2.457  0.3148 -0.7635 -0.9146
46024SOL     OW44676   1.352   6.212   1.560 -0.2205 -0.5883  0.0117
46024SOL    HW144677   1.441   6.220   1.526 -1.3390 -0.9007 -3.3561
46024SOL    HW244678   1.325   6.302   1.578  0.0285 -0.2391 -1.2312
46025SOL     OW44679  11.598  11.333   4.112  0.7815  0.2967  0.3364
46025SOL    HW144680  11.626  11.418   4.145  0.6790  0.4294  0.0896
46025SOL    HW244681  11.518  11.351   4.063 -0.2052 -0.2000  1.7010
46026SOL     OW44682   1.854   8.044  10.724 -0.3393 -0.0534 -0.6007
46026SOL    HW144683   1.812   8.126  10.748 -1.5941 -0.7440 -0.3795
46026SOL    HW244684   1.893   8.061  10.639 -0.4668  0.8083 -0.4939
46027SOL     OW44685   4.838   4.474  11.498 -0.4430 -0.0208 -0.1599
46027SOL    HW144686   4.845   4.531  11.574 -2.2511  1.5555 -1.0874
46027SOL    HW244687   4.911   4.500  11.442  0.0518 -0.1988  0.3884
46028SOL     OW44688  11.503  11.566   8.924 -0.0940 -0.2292  0.0288
46028SOL    HW144689  11.571  11.531   8.981  0.1503 -1.6754 -1.0953
46028SOL    HW244690  11.539  11.648   8.891  1.3259 -1.1738 -0.8862
46029SOL     OW44691   0.404   9.305  10.425 -0.5967 -0.0238 -0.2918
46029SOL    HW144692   0.372   9.244  10.491  1.2162 -1.5508 -0.7447
46029SOL    HW244693   0.379   9.266  10.341  0.0099  0.1868 -0.5777
46030SOL     OW44694   9.137   3.010   1.197 -0.6004 -0.3526  0.2644
46030SOL    HW144695   9.188   3.044   1.124 -0.1400 -2.0596 -0.2555
46030SOL    HW244696   9.047   3.013   1.167 -0.4358 -0.8268 -0.3019
46031SOL     OW44697   4.424   0.440   8.054  0.0719  0.0986 -0.3071
46031SOL    HW144698   4.434   0.532   8.079 -1.6940  0.3765 -0.5317
46031SOL    HW244699   4.421   0.393   8.137 -1.4286  0.5329 -0.0896
46032SOL     OW44700   0.994   5.957   1.997  0.1054  0.1215 -0.1964
46032SOL    HW144701   0.945   5.913   2.066 -0.2979  0.2083 -0.4257
46032SOL    HW244702   1.003   6.047   2.029 -0.0911  0.1645 -0.2620
46033SOL     OW44703   1.504   8.865   8.750  0.1745  0.0282  0.0989
46033SOL    HW144704   1.496   8.885   8.843  0.8842 -0.1029  0.1936
46033SOL    HW244705   1.598   8.850   8.736  0.7042  3.5515 -1.3145
46034SOL     OW44706  10.716  10.146   6.361 -0.6446 -0.3014 -0.4821
46034SOL    HW144707  10.718  10.051   6.374 -0.8454 -0.2086  0.2515
46034SOL    HW244708  10.795  10.179   6.403  0.9441 -0.3932 -3.1372
46035SOL     OW44709   8.206   5.755  12.726 -0.2775 -0.5051  0.4080
46035SOL    HW144710   8.247   5.669  12.714 -1.3317 -0.8300 -1.1030
46035SOL    HW244711   8.264   5.800  12.787  3.4947 -0.2068 -2.9586
46036SOL     OW44712   2.603   0.707   1.343  0.2361 -0.8730  0.3296
46036SOL    HW144713   2.596   0.612   1.350 -0.8238 -0.7621  1.0666
46036SOL    HW244714   2.512   0.738   1.344  0.5013  0.0880 -1.0854
46037SOL     OW44715  11.368   7.044  12.786 -0.1308  0.0029 -0.1387
46037SOL    HW144716  11.397   7.004  12.705  0.7044 -1.9919  1.0613
46037SOL    HW244717  11.298   6.986  12.817 -1.2179  1.3593  0.0404
46038SOL     OW44718   3.222   4.341   1.981 -0.3734  0.1403 -0.0071
46038SOL    HW144719   3.293   4.369   1.923 -1.7938  0.7008 -1.5623
46038SOL    HW244720   3.213   4.413   2.043  0.4752  0.0048  0.2926
46039SOL     OW44721  10.875   5.542   7.263 -0.0645  0.1541  0.3798
46039SOL    HW144722  10.868   5.448   7.245  0.3735 -0.0201  1.0628
46039SOL    HW244723  10.786   5.576   7.251 -1.0813 -0.9928  3.5272
46040SOL     OW44724   3.392   0.226   4.544 -0.2098 -0.4361 -0.2555
46040SOL    HW144725   3.418   0.195   4.457  1.0053 -0.6580  0.1594
46040SOL    HW244726   3.339   0.303   4.527 -2.7495 -2.2664 -1.3084
46041SOL     OW44727   1.967   3.999  12.680 -0.2033  0.1611  0.5481
46041SOL    HW144728   1.882   4.035  12.656  0.4867  0.5165 -1.6651
46041SOL    HW244729   1.985   3.933  12.613  2.0190  1.3932 -0.2142
46042SOL     OW44730  12.654  10.197   7.502  0.4284 -0.0069 -0.1793
46042SOL    HW144731  12.627  10.152   7.422 -0.2185  2.5498 -1.4765
46042SOL    HW244732  12.577  10.193   7.559  0.2502 -0.1984 -0.4335
46043SOL     OW44733  10.409   8.801   1.646 -0.2740  0.2630 -0.5283
46043SOL    HW144734  10.464   8.730   1.679  0.1392  0.5179 -0.6464
46043SOL    HW244735  10.338   8.758   1.599 -1.0050 -0.1055  0.8985
46044SOL     OW44736   3.181   5.597   8.912  0.2805  0.0041  0.0299
46044SOL    HW144737   3.090   5.607   8.883  0.2803 -1.3814 -0.5236
46044SOL    HW244738   3.226   5.557   8.837  1.1367 -0.1954  0.6296
46045SOL     OW44739   2.676   7.422   7.386  0.2133 -0.1693 -0.2390
46045SOL    HW144740   2.641   7.437   7.474 -0.0152 -1.2313 -0.1347
46045SOL    HW244741   2.603   7.383   7.338  1.2901 -2.6761  0.0481
46046SOL     OW44742   5.079   0.927   8.657 -0.2411  0.0642  0.2905
46046SOL    HW144743   5.131   1.008   8.665  0.8455 -0.3174 -2.0168
46046SOL    HW244744   5.144   0.859   8.640 -1.3348 -0.7397 -0.8868
46047SOL     OW44745   6.006   6.347   5.755 -0.1038 -0.0539  0.3764
46047SOL    HW144746   5.912   6.362   5.757 -0.0761  0.4099 -0.7971
46047SOL    HW244747   6.039   6.388   5.835 -0.8956 -0.2024  0.7816
46048SOL     OW44748  11.171   9.257   1.512 -0.1970 -0.3097  0.1492
46048SOL    HW144749  11.100   9.198   1.537 -0.8704  0.5863  0.4084
46048SOL    HW244750  11.128   9.327   1.465  0.7094 -0.4828 -0.9724
46049SOL     OW44751   6.215   8.259   1.448 -0.1677 -0.2585  0.4846
46049SOL    HW144752   6.150   8.256   1.377  0.1156 -0.6478  0.2357
46049SOL    HW244753   6.286   8.202   1.417 -0.6848 -1.6292  1.7200
46050SOL     OW44754  12.309   2.550   5.667 -0.4999  0.2657  0.5715
46050SOL    HW144755  12.287   2.462   5.638 -0.2787 -0.1727  1.6800
46050SOL    HW244756  12.226   2.586   5.699 -0.4207  0.1244  0.9431
46051SOL     OW44757   7.726   0.827   0.631  0.0762  0.7985  0.2028
46051SOL    HW144758   7.820   0.831   0.650 -0.0987  0.3339  1.2561
46051SOL    HW244759   7.685   0.816   0.717 -0.8795  0.0020 -0.3343
46052SOL     OW44760   2.455   4.556   2.335  0.3873 -0.4281  0.1139
46052SOL    HW144761   2.531   4.598   2.376 -0.3454 -1.6606  3.0075
46052SOL    HW244762   2.492   4.495   2.272  1.6456  0.9536 -0.5515
46053SOL     OW44763   0.686   1.962   9.546 -0.3511  0.2057 -0.1229
46053SOL    HW144764   0.696   1.928   9.457  0.4194 -0.4147  0.1863
46053SOL    HW244765   0.708   2.054   9.539 -1.8820  0.5501 -0.8663
46054SOL     OW44766   6.813   1.398  12.062  0.2445 -0.0769  0.3195
46054SOL    HW144767   6.730   1.415  12.018 -0.4027  0.3690  1.6495
46054SOL    HW244768   6.875   1.459  12.022  0.1302 -0.9114 -1.1848
46055SOL     OW44769   1.968   4.912  11.852 -0.6553  1.1403 -0.3232
46055SOL    HW144770   2.057   4.880  11.839 -0.8273  0.8340 -0.7873
46055SOL    HW244771   1.918   4.874  11.779 -1.7091 -0.8345  1.3339
46056SOL     OW44772   7.423   4.114  10.509 -0.3177 -0.2722  0.6678
46056SOL    HW144773   7.358   4.044  10.498  0.6565 -0.8437 -2.0929
46056SOL    HW244774   7.372   4.195  10.503 -1.0371 -0.7000  0.7775
46057SOL     OW44775   3.729   7.596   8.224  0.1684  0.2242 -0.6416
46057SOL    HW144776   3.776   7.657   8.282  3.5452 -1.1947 -1.6102
46057SOL    HW244777   3.714   7.647   8.144  0.4658  0.6166 -0.4555
46058SOL     OW44778   3.549  11.610   6.309 -0.4371  0.4883  0.1190
46058SOL    HW144779   3.608  11.681   6.283  0.3817 -0.4895 -0.7799
46058SOL    HW244780   3.472  11.621   6.253  0.0997  0.1029 -0.7103
46059SOL     OW44781   4.775   3.084   9.756 -0.4368  0.1436 -0.3479
46059SOL    HW144782   4.736   3.005   9.720  1.8496 -1.6214  0.7954
46059SOL    HW244783   4.700   3.141   9.776 -2.3401 -2.4593  0.4599
46060SOL     OW44784   3.827   2.182   9.317  0.2143 -0.3544  0.1359
46060SOL    HW144785   3.861   2.159   9.231  0.0012 -0.0056 -0.0479
46060SOL    HW244786   3.750   2.236   9.298  1.3926  1.5877  0.5049
46061SOL     OW44787   9.479   2.262   4.042 -0.3874  0.2521 -0.1338
46061SOL    HW144788   9.431   2.185   4.074 -1.8694  1.4564  0.7005
46061SOL    HW244789   9.564   2.257   4.086 -1.8002  1.0333  3.0191
46062SOL     OW44790  10.405   3.737  11.955 -0.2231  0.1531  0.1339
46062SOL    HW144791  10.315   3.769  11.961 -0.8207 -0.9665 -1.9431
46062SOL    HW244792  10.423   3.733  11.861  0.8286 -2.6769  0.3609
46063SOL     OW44793   7.271   2.775  10.203 -0.0096 -0.3198 -0.5971
46063SOL    HW144794   7.340   2.763  10.268 -0.2754  0.5773 -0.1300
46063SOL    HW244795   7.222   2.850  10.235 -1.9198 -1.6312 -0.2945
46064SOL     OW44796   8.163   3.699   0.152  0.4129 -0.0743  0.3214
46064SOL    HW144797   8.145   3.715   0.245  0.9503  1.3646  0.2090
46064SOL    HW244798   8.077   3.689   0.112  0.0865  1.0325  0.7079
46065SOL     OW44799   3.541   7.199   4.620 -0.3985  0.1349 -0.0347
46065SOL    HW144800   3.519   7.171   4.531 -0.4742 -0.6763  0.2373
46065SOL    HW244801   3.596   7.277   4.607  0.8452 -0.8333 -0.8442
46066SOL     OW44802   5.452  11.654   9.405 -0.3444 -0.0282 -0.1831
46066SOL    HW144803   5.499  11.628   9.326 -0.2278 -0.3588 -0.0065
46066SOL    HW244804   5.490  11.601   9.475 -0.6404  0.0539  0.0464
46067SOL     OW44805  10.385  12.332   6.766  0.0132 -0.0395  0.7527
46067SOL    HW144806  10.420  12.289   6.843  1.2395 -0.5945 -0.0821
46067SOL    HW244807  10.394  12.267   6.696 -1.5855  0.2374  0.2354
46068SOL     OW44808   6.986   3.784  12.473  0.1845  0.2427 -0.1964
46068SOL    HW144809   6.926   3.825  12.536  1.7317 -0.7265  2.0464
46068SOL    HW244810   6.962   3.822  12.389 -1.1533  2.6083  1.1392
46069SOL     OW44811   4.652   4.413   8.501  0.1635  0.1826 -0.1047
46069SOL    HW144812   4.642   4.320   8.521  0.8129  0.3317  1.0170
46069SOL    HW244813   4.696   4.415   8.416 -0.3960 -0.5246 -0.4173
46070SOL     OW44814   4.123   4.598   1.770  0.1384  0.5475 -0.5237
46070SOL    HW144815   4.193   4.547   1.731 -0.4871 -1.1664  0.4677
46070SOL    HW244816   4.166   4.654   1.835  0.5780 -0.8811  0.4651
46071SOL     OW44817   1.605  12.279   8.771 -0.2121 -0.5884  0.1291
46071SOL    HW144818   1.682  12.238   8.811 -0.0748  1.1735  1.7980
46071SOL    HW244819   1.600  12.365   8.812 -0.9934  0.7597 -2.6003
46072SOL     OW44820  10.394   1.376   0.094  0.3355 -0.1278 -0.2779
46072SOL    HW144821  10.431   1.327   0.021 -0.8710 -0.5773 -0.6121
46072SOL    HW244822  10.363   1.309   0.155  0.2375  0.2383  0.0818
46073SOL     OW44823   0.990   7.982   3.702  0.5560 -0.5048  0.2057
46073SOL    HW144824   0.948   7.933   3.774  0.2698 -0.1783  0.2603
46073SOL    HW244825   0.998   8.071   3.735 -0.1833 -0.1958 -0.4117
46074SOL     OW44826   3.841   0.053   7.835 -0.2389 -0.4518 -0.1561
46074SOL    HW144827   3.813   0.094   7.753  0.5304 -0.5515 -0.4866
46074SOL    HW244828   3.922   0.099   7.858 -0.7390 -0.0508  0.8500
46075SOL     OW44829  11.302   1.072  12.261 -0.2965 -0.3862  0.2095
46075SOL    HW144830  11.250   1.056  12.339 -0.3210 -0.2502  0.2201
46075SOL    HW244831  11.387   1.100  12.294 -0.3489 -0.1970  0.1866
46076SOL     OW44832   6.053   7.322   4.672 -0.6830 -0.5948 -0.0674
46076SOL    HW144833   6.082   7.317   4.764 -1.6532 -2.8849  0.1773
46076SOL    HW244834   5.961   7.296   4.675 -0.1257 -3.1326 -1.9209
46077SOL     OW44835   2.137   6.566   5.757  0.0141  0.4385  0.1630
46077SOL    HW144836   2.078   6.492   5.768 -1.0642  1.4325  1.3449
46077SOL    HW244837   2.216   6.542   5.805 -0.3684  0.1011  0.6199
46078SOL     OW44838   8.035   0.193   1.077 -0.6749  1.1317 -0.1606
46078SOL    HW144839   8.124   0.208   1.044 -1.0768  2.3786 -0.7288
46078SOL    HW244840   8.047   0.140   1.156  0.4250 -0.5121 -1.3661
46079SOL     OW44841   8.643   9.776   0.132 -0.0592  0.1823 -0.0196
46079SOL    HW144842   8.727   9.770   0.087 -0.6703  2.0092 -1.5330
46079SOL    HW244843   8.590   9.706   0.094  0.5158 -0.5164  0.4274
46080SOL     OW44844   9.424   7.681   5.766  0.3409 -0.4666  0.4555
46080SOL    HW144845   9.440   7.639   5.682  1.9233  0.2800  0.3500
46080SOL    HW244846   9.330   7.701   5.765 -0.1369 -2.5319 -0.1255
46081SOL     OW44847   1.724   0.152   1.758 -0.9688 -0.6003 -0.2333
46081SOL    HW144848   1.760   0.229   1.714  0.5524  0.0199  1.9391
46081SOL    HW244849   1.629   0.169   1.761 -0.9381  0.0154 -1.8929
46082SOL     OW44850   5.367   0.677  11.801 -0.0151  0.3248 -0.0637
46082SOL    HW144851   5.453   0.689  11.762  0.4743 -1.1004  0.5101
46082SOL    HW244852   5.358   0.749  11.864  0.2831  1.1021 -0.8991
46083SOL     OW44853  11.069   8.880   4.827  0.6693 -0.2657  0.0691
46083SOL    HW144854  11.095   8.797   4.866  0.3265 -0.4624 -0.1215
46083SOL    HW244855  11.025   8.927   4.898 -1.0422 -1.1125 -0.3725
46084SOL     OW44856   2.927   9.442   4.935 -0.0734  0.9009 -0.1752
46084SOL    HW144857   2.988   9.471   4.868  1.1426 -0.0489  0.4706
46084SOL    HW244858   2.846   9.423   4.888  1.2018 -1.2045 -1.6596
46085SOL     OW44859   5.763  11.777   8.489  0.1104 -0.2767 -0.3547
46085SOL    HW144860   5.815  11.852   8.517 -2.0057  0.7167  1.2381
46085SOL    HW244861   5.718  11.748   8.569  0.3950 -2.8979 -1.0428
46086SOL     OW44862   4.344   4.413   1.372  0.3683  0.4966 -0.4047
46086SOL    HW144863   4.267   4.360   1.393  0.3849  0.3569 -0.7009
46086SOL    HW244864   4.399   4.356   1.319  1.0666  0.3066  0.4965
46087SOL     OW44865   2.678   0.120   3.014  0.7633  0.2410  0.0224
46087SOL    HW144866   2.705   0.179   3.085  1.8657  0.6020 -0.6857
46087SOL    HW244867   2.741   0.049   3.016  0.7571  0.2157 -0.5463
46088SOL     OW44868   6.342   2.719   0.524 -0.1911  0.2597  0.2548
46088SOL    HW144869   6.310   2.808   0.541 -2.7788 -0.7497  1.1881
46088SOL    HW244870   6.327   2.705   0.431 -3.4445 -0.4153  0.7646
46089SOL     OW44871   2.807   0.895  12.145  0.7402  0.3364 -0.4557
46089SOL    HW144872   2.894   0.861  12.123  1.4180  1.2345  0.7216
46089SOL    HW244873   2.746   0.831  12.107  1.9538 -1.9484  1.1917
46090SOL     OW44874  11.541   0.713   5.102  0.5830  0.0644 -0.2607
46090SOL    HW144875  11.637   0.718   5.106  0.5278  1.1518  0.0282
46090SOL    HW244876  11.511   0.771   5.172 -0.2927 -1.0986  0.3579
46091SOL     OW44877   3.228   4.831   8.592 -0.2507 -0.3904 -0.3967
46091SOL    HW144878   3.297   4.887   8.557  1.8621 -2.6096 -0.0445
46091SOL    HW244879   3.154   4.846   8.533  0.3911  2.1933 -0.7084
46092SOL     OW44880   0.962   6.651   6.827  0.1285  0.5312  0.3670
46092SOL    HW144881   0.950   6.739   6.863 -1.1519  0.2289  0.7295
46092SOL    HW244882   1.030   6.662   6.760  0.2358  1.7202  0.6420
46093SOL     OW44883   6.593   1.122   0.513 -0.4508  0.3339  0.3142
46093SOL    HW144884   6.536   1.114   0.590  0.6590 -1.2189  1.0311
46093SOL    HW244885   6.545   1.179   0.453 -1.5715  1.1847  1.9502
46094SOL     OW44886   2.388   1.998  12.578 -0.7743  0.0232  0.2246
46094SOL    HW144887   2.385   1.958  12.664  0.8002 -1.5068 -0.3648
46094SOL    HW244888   2.479   2.024  12.567 -1.4253  2.3711 -0.0832
46095SOL     OW44889   5.178   1.055  11.515  0.2231  0.0009  0.1088
46095SOL    HW144890   5.140   0.979  11.471  0.1167  0.4595 -0.6134
46095SOL    HW244891   5.113   1.078  11.582  0.8051 -1.2523  1.1512
46096SOL     OW44892   8.183   6.465   4.124 -0.1179 -0.6717 -0.3822
46096SOL    HW144893   8.203   6.530   4.056  0.5077  1.3646  1.6155
46096SOL    HW244894   8.088   6.454   4.119 -0.1372 -0.1966 -1.3016
46097SOL     OW44895   9.043   7.045  12.141  0.6071 -0.1098 -0.3735
46097SOL    HW144896   9.105   7.007  12.078 -0.7778 -0.6432 -1.4654
46097SOL    HW244897   8.969   7.074  12.087 -0.6775 -0.6869  1.0149
46098SOL     OW44898  11.327  11.510  12.487  0.1108  0.7275 -0.1717
46098SOL    HW144899  11.329  11.434  12.546  0.0693  0.1196 -0.9348
46098SOL    HW244900  11.295  11.582  12.541  0.0786  0.1824  0.5455
46099SOL     OW44901   8.951   9.826   8.703  0.5057  0.0040 -0.1111
46099SOL    HW144902   8.858   9.845   8.700  1.0888  3.3037 -2.2708
46099SOL    HW244903   8.961   9.766   8.777 -3.0750  0.9362  1.3314
46100SOL     OW44904   4.183   2.029   7.145  0.0023  0.0981  0.1404
46100SOL    HW144905   4.155   1.987   7.063 -0.6724 -0.6179  0.7210
46100SOL    HW244906   4.127   1.991   7.212  1.1919 -0.0305  1.0958
46101SOL     OW44907   8.413   7.062   1.808  0.2097  0.5164 -0.5189
46101SOL    HW144908   8.375   7.113   1.879 -0.9503 -1.2087  0.1764
46101SOL    HW244909   8.505   7.086   1.807  0.5161 -0.2487  2.3498
46102SOL     OW44910  12.786   7.717  12.216  0.5762  0.1000 -0.3192
46102SOL    HW144911  12.786   7.638  12.270  0.0698  0.5744  0.3990
46102SOL    HW244912  12.694   7.730  12.193  0.5294  0.9236  0.2610
46103SOL     OW44913   3.886   3.194   6.394 -0.2603 -0.1875  0.4816
46103SOL    HW144914   3.895   3.200   6.489  2.7957 -0.5546  0.3107
46103SOL    HW244915   3.966   3.233   6.360 -1.4918  0.3532 -1.9994
46104SOL     OW44916   4.628   5.109   8.735 -0.3133  0.0747 -0.8860
46104SOL    HW144917   4.535   5.088   8.723 -0.1014 -0.7765 -1.1378
46104SOL    HW244918   4.674   5.049   8.676  0.2783  2.5292 -3.0626
46105SOL     OW44919  11.068  11.820  10.846 -0.3466  0.2915 -0.8943
46105SOL    HW144920  11.110  11.887  10.792  1.6546  0.9538  1.3567
46105SOL    HW244921  11.001  11.868  10.896  0.7613  0.5911  0.3611
46106SOL     OW44922   2.032   4.752   3.584  0.4815 -0.2750 -0.0879
46106SOL    HW144923   2.011   4.669   3.540  2.9023 -0.8843 -0.2447
46106SOL    HW244924   2.024   4.731   3.677  0.1890 -0.4164 -0.1427
46107SOL     OW44925   0.941   1.214   0.282 -0.9716  0.6509  0.2105
46107SOL    HW144926   0.848   1.194   0.275 -0.9841  0.4681  0.8256
46107SOL    HW244927   0.974   1.151   0.346 -0.5955  1.2429  0.6108
46108SOL     OW44928  10.393  11.200   3.537  0.4683  0.1482 -0.1836
46108SOL    HW144929  10.394  11.117   3.487 -0.1224  0.0330 -0.0073
46108SOL    HW244930  10.302  11.212   3.562  0.1381  1.9347 -1.9967
46109SOL     OW44931   2.759   5.497   8.336 -0.1102  0.5530  0.0378
46109SOL    HW144932   2.731   5.484   8.245  0.5719 -0.5396 -0.0296
46109SOL    HW244933   2.729   5.419   8.382  0.6085  0.5370  0.4879
46110SOL     OW44934   3.128   8.494   9.046 -0.6457 -0.3703 -0.3345
46110SOL    HW144935   3.156   8.553   9.116 -0.2041 -0.1957 -0.6579
46110SOL    HW244936   3.131   8.407   9.085 -0.0556 -0.3095 -0.2438
46111SOL     OW44937   2.295   2.689   6.709 -0.2107 -0.1826  0.3129
46111SOL    HW144938   2.360   2.759   6.710 -1.6413  1.2394 -0.4526
46111SOL    HW244939   2.214   2.732   6.737 -1.2865 -1.3594 -0.8805
46112SOL     OW44940   6.081  12.307   0.333  0.5754  0.3718  0.5224
46112SOL    HW144941   5.998  12.354   0.324 -0.1636 -0.5875  1.9217
46112SOL    HW244942   6.144  12.374   0.358  0.0045  0.9526  0.4332
46113SOL     OW44943   7.328   3.324   6.229 -0.7137 -0.2204  0.0036
46113SOL    HW144944   7.347   3.246   6.282  0.1782 -0.9129 -1.2716
46113SOL    HW244945   7.274   3.291   6.157  0.0412  0.2159 -0.7970
46114SOL     OW44946   9.424   1.021   3.586  0.4750 -0.1376 -1.0766
46114SOL    HW144947   9.386   0.935   3.603  2.4980 -1.5720 -3.1332
46114SOL    HW244948   9.350   1.081   3.586 -0.7739 -1.4252  2.5524
46115SOL     OW44949   3.815   7.024   1.071 -0.3717 -0.1225  0.1729
46115SOL    HW144950   3.816   6.937   1.110 -2.8026 -0.2144  0.1593
46115SOL    HW244951   3.834   7.084   1.143  0.5476 -0.5806  0.3315
46116SOL     OW44952   6.914   8.990  11.544 -0.0861  0.1122  0.1501
46116SOL    HW144953   6.908   9.060  11.608  0.1123 -0.1328  0.4368
46116SOL    HW244954   6.827   8.985  11.505 -0.2918  0.0497  0.6215
46117SOL     OW44955   8.672   4.597   8.375 -0.6653  0.3542 -0.0394
46117SOL    HW144956   8.738   4.598   8.305  0.2758 -1.1454  0.7551
46117SOL    HW244957   8.627   4.513   8.365 -0.2137 -0.1014  1.3724
46118SOL     OW44958   3.353  11.664   9.641  0.0743 -0.6739 -0.0901
46118SOL    HW144959   3.304  11.689   9.719  0.1371 -1.9861  0.4023
46118SOL    HW244960   3.420  11.731   9.631 -0.2246 -0.2494  0.7132
46119SOL     OW44961   2.050  12.154   6.527 -0.9258 -0.5093 -0.2720
46119SOL    HW144962   1.983  12.114   6.583 -0.5863  0.3405  0.7677
46119SOL    HW244963   2.021  12.244   6.515  0.4181  0.1104  0.8631
46120SOL     OW44964   3.488   2.521  10.098  0.0939  0.0099  0.3280
46120SOL    HW144965   3.519   2.447  10.150 -0.8822  0.1671  1.1831
46120SOL    HW244966   3.402   2.542  10.136  0.7817  2.2410  0.8167
46121SOL     OW44967  10.943   2.670   1.429 -0.1204  0.0289 -0.0441
46121SOL    HW144968  10.852   2.691   1.448 -0.2831  0.3248 -1.1046
46121SOL    HW244969  10.947   2.660   1.334  0.8323 -0.5742  0.0412
46122SOL     OW44970   1.600   9.768  11.703 -0.0505  0.1448  0.2168
46122SOL    HW144971   1.545   9.824  11.757  0.3758  1.0758 -0.2895
46122SOL    HW244972   1.672   9.742  11.761  0.5465  1.3554  0.0499
46123SOL     OW44973   4.825   0.969   5.231 -0.2199 -1.0234  0.4447
46123SOL    HW144974   4.786   1.005   5.311 -0.4535 -1.1746  0.4004
46123SOL    HW244975   4.763   0.991   5.162 -0.0318 -0.9182  0.3087
46124SOL     OW44976   0.080   9.213  10.412 -0.0411 -0.1475 -0.3087
46124SOL    HW144977   0.148   9.154  10.381  0.4857 -0.2144  0.9397
46124SOL    HW244978  -0.000   9.161  10.409  0.5269 -1.1770  1.4198
46125SOL     OW44979   2.817   3.459   1.700  0.3315  0.1392  0.6676
46125SOL    HW144980   2.784   3.427   1.784  0.7791  1.3654  1.3392
46125SOL    HW244981   2.738   3.491   1.655  0.1095 -0.3872  0.6754
46126SOL     OW44982  12.534   1.711   1.182 -0.1921 -0.3927  0.1175
46126SOL    HW144983  12.473   1.659   1.131  0.8509 -1.6162  0.0645
46126SOL    HW244984  12.535   1.669   1.269  1.0416 -0.8122 -0.0756
46127SOL     OW44985   0.652  11.302   0.403 -0.4527  0.0050  0.0189
46127SOL    HW144986   0.598  11.253   0.464 -1.6109  0.4073 -0.6364
46127SOL    HW244987   0.607  11.386   0.394 -0.2473  0.0004 -1.2586
46128SOL     OW44988   8.195   1.878   8.038  0.4820 -0.5518  0.2674
46128SOL    HW144989   8.100   1.887   8.028  0.2729 -1.9155  0.7704
46128SOL    HW244990   8.222   1.821   7.965  0.8241 -0.5945  0.4232
46129SOL     OW44991   8.764  12.624   2.302  0.5294 -0.1216 -0.8960
46129SOL    HW144992   8.838  12.653   2.250  0.6694  1.6367  0.2032
46129SOL    HW244993   8.795  12.626   2.392 -0.6754  0.0651 -0.4641
46130SOL     OW44994   3.708   3.677   2.432  0.1082 -0.9910  0.8731
46130SOL    HW144995   3.729   3.758   2.477  0.7584 -0.4448 -0.3817
46130SOL    HW244996   3.647   3.632   2.492  0.2757  0.0805  1.8897
46131SOL     OW44997   3.177   7.714   4.447  0.2494 -0.1636  0.1285
46131SOL    HW144998   3.186   7.809   4.452  1.1674 -0.1931 -0.8198
46131SOL    HW244999   3.086   7.701   4.419  0.2548  0.4410 -0.1893
46132SOL     OW45000   0.180   3.514   4.442  0.0580 -0.0039 -0.0864
46132SOL    HW145001   0.114   3.498   4.510  0.0146  3.2062  0.7978
46132SOL    HW245002   0.264   3.495   4.486 -0.0673  0.2221  0.2553
46133SOL     OW45003   5.149   6.547   6.719 -0.3338  0.1190  0.2869
46133SOL    HW145004   5.084   6.529   6.651 -0.7086 -0.5045  0.8082
46133SOL    HW245005   5.104   6.606   6.780  0.1206  0.9706 -0.1841
46134SOL     OW45006   6.622  11.201   4.016  0.7454  0.4707 -0.1513
46134SOL    HW145007   6.558  11.175   3.950 -0.0245  2.1869 -0.1270
46134SOL    HW245008   6.632  11.295   4.004  0.2498  0.9300  2.4427
46135SOL     OW45009   0.310   7.535   2.026 -0.0568  0.4889 -0.8140
46135SOL    HW145010   0.398   7.529   2.062 -0.4778  2.2817  0.6633
46135SOL    HW245011   0.252   7.523   2.101 -1.0608  0.6339 -1.5372
46136SOL     OW45012  12.564   0.644   7.988 -0.1359 -0.2257 -0.3442
46136SOL    HW145013  12.554   0.550   7.971  1.2010 -0.4970  0.2483
46136SOL    HW245014  12.475   0.674   8.009 -0.4621 -1.5319  0.2662
46137SOL     OW45015   7.140  10.291   9.811 -0.6397 -0.0591  0.1723
46137SOL    HW145016   7.220  10.240   9.801  0.8373  2.0420  0.6754
46137SOL    HW245017   7.144  10.325   9.901 -1.9993  0.2506  0.1348
46138SOL     OW45018   2.918   8.054  11.260  0.1173  0.1912 -0.0409
46138SOL    HW145019   2.830   8.057  11.223 -0.4944 -0.2787  1.3220
46138SOL    HW245020   2.950   7.966  11.238 -0.3251 -0.1632  0.7097
46139SOL     OW45021  10.440   1.039   0.982 -0.0143  0.0932  0.4543
46139SOL    HW145022  10.484   1.080   0.908 -0.4152 -1.2113 -0.5497
46139SOL    HW245023  10.459   0.945   0.974 -0.7727 -0.1848  1.5093
46140SOL     OW45024   2.956   0.223  10.153  0.0637  0.0814 -0.3057
46140SOL    HW145025   2.907   0.140  10.148 -1.3665  0.7926  1.0525
46140SOL    HW245026   3.032   0.208  10.097 -0.8277 -1.6815 -1.1754
46141SOL     OW45027   6.896   1.710   4.817  0.2380  0.0215  0.2771
46141SOL    HW145028   6.921   1.622   4.789  0.7790  0.4481 -0.6446
46141SOL    HW245029   6.968   1.740   4.873 -0.2442 -0.3517  1.1097
46142SOL     OW45030   2.533   6.353   2.185 -0.1851  0.5778 -0.2476
46142SOL    HW145031   2.510   6.278   2.240 -0.4582 -0.0252 -1.1522
46142SOL    HW245032   2.450   6.399   2.171 -0.1063  0.7634 -0.1088
46143SOL     OW45033   1.326  10.817   2.653  0.0669  1.0584  0.1945
46143SOL    HW145034   1.389  10.782   2.590 -1.0697  2.0876 -1.6202
46143SOL    HW245035   1.289  10.894   2.609 -0.7083  1.8882  2.1961
46144SOL     OW45036   5.863   5.264  11.665  0.6219 -0.1465 -0.3080
46144SOL    HW145037   5.956   5.267  11.689  0.2100  0.2230  1.3959
46144SOL    HW245038   5.837   5.174  11.685  0.3160  0.1125  0.4834
46145SOL     OW45039   3.713   6.462   9.792 -0.0915 -0.0111 -0.7034
46145SOL    HW145040   3.711   6.372   9.825  1.9850  0.0512 -0.2567
46145SOL    HW245041   3.710   6.453   9.697 -0.2524 -0.5285 -0.6527
46146SOL     OW45042   5.393   6.123   8.811  0.3969 -0.2618  0.1260
46146SOL    HW145043   5.379   6.183   8.884  0.7734 -1.5979  1.3521
46146SOL    HW245044   5.486   6.133   8.788  0.7256 -1.1081  1.0360
46147SOL     OW45045   1.953   2.917   0.698  0.6621 -0.1025  0.2288
46147SOL    HW145046   1.926   2.841   0.646  0.0482  0.4272 -0.2469
46147SOL    HW245047   2.044   2.932   0.673  0.8519 -0.8032  0.4833
46148SOL     OW45048   8.503   3.798   2.442 -0.1938 -0.3973  0.5356
46148SOL    HW145049   8.523   3.705   2.446 -3.0050 -1.2458 -1.9298
46148SOL    HW245050   8.426   3.809   2.497  0.0374  0.4443  0.7087
46149SOL     OW45051   2.060   1.569  12.645  0.0973  0.0672 -0.5273
46149SOL    HW145052   2.114   1.581  12.723  0.1044  0.0830 -0.5355
46149SOL    HW245053   1.973   1.598  12.672  0.0078 -0.3145 -0.4025
46150SOL     OW45054   7.293   3.558   1.561  0.5354 -0.3027 -0.5871
46150SOL    HW145055   7.366   3.601   1.605  0.1346 -1.0505  0.8792
46150SOL    HW245056   7.331   3.518   1.483  1.2342  1.2118 -1.0558
46151SOL     OW45057   8.067   1.083   8.549 -0.0981 -0.7720 -0.2100
46151SOL    HW145058   8.051   1.140   8.625  0.4620 -0.6456 -0.1773
46151SOL    HW245059   8.024   1.127   8.476  0.9552  0.0936 -0.3329
46152SOL     OW45060   4.923  10.328   0.553 -0.3338  0.1405 -0.5335
46152SOL    HW145061   4.955  10.318   0.643 -0.8493  0.3576 -0.3272
46152SOL    HW245062   4.995  10.294   0.499 -0.5873 -1.3819  0.0139
46153SOL     OW45063   0.428   5.508  12.159 -0.2343 -0.8569 -0.2584
46153SOL    HW145064   0.484   5.431  12.154 -1.2776 -1.7028  0.6860
46153SOL    HW245065   0.343   5.475  12.189 -1.0274  0.4972 -0.8943
46154SOL     OW45066   0.150  12.374   2.217  0.3890 -0.3406 -0.3844
46154SOL    HW145067   0.166  12.459   2.174  3.8351 -0.4274  0.3959
46154SOL    HW245068   0.229  12.359   2.269 -1.8242 -2.1561  2.8154
46155SOL     OW45069   1.421  10.316   0.917  0.2680 -0.1232 -0.4074
46155SOL    HW145070   1.483  10.371   0.869  2.8184 -1.9845  0.5807
46155SOL    HW245071   1.364  10.280   0.848  1.9289 -0.3817 -1.7098
46156SOL     OW45072   4.942   5.142   3.161  0.0068 -0.2298 -0.3546
46156SOL    HW145073   4.977   5.087   3.231 -0.8896  1.2706  1.3411
46156SOL    HW245074   4.955   5.231   3.192  0.2744  0.5213 -2.4823
46157SOL     OW45075  10.528   4.456  10.590  0.0210  0.2845 -0.9226
46157SOL    HW145076  10.537   4.551  10.597 -2.1862  0.6368 -2.1235
46157SOL    HW245077  10.584   4.433  10.516  2.2379  0.2733  0.6512
46158SOL     OW45078   1.129   7.816  11.693  0.0597 -0.4706  0.4211
46158SOL    HW145079   1.068   7.886  11.717 -1.5162 -1.4365 -0.5782
46158SOL    HW245080   1.159   7.840  11.605 -0.2426 -0.8743  0.2043
46159SOL     OW45081   9.912  12.578   3.138  0.5665  0.4730 -0.1666
46159SOL    HW145082   9.955  12.647   3.086 -0.2652  2.2062  1.3216
46159SOL    HW245083   9.911  12.612   3.227 -0.1391 -1.3870  0.5832
46160SOL     OW45084   1.407   8.774   7.241  0.2917  0.0259 -0.3421
46160SOL    HW145085   1.312   8.780   7.253  0.2944  1.2450 -0.8473
46160SOL    HW245086   1.432   8.858   7.203  1.8605  0.4925  1.5831
46161SOL     OW45087   5.602  11.325   9.321 -0.3923 -0.2853 -0.4708
46161SOL    HW145088   5.656  11.351   9.247  0.6366 -1.1093 -0.0316
46161SOL    HW245089   5.652  11.256   9.365 -1.4327 -0.5106  0.4171
46162SOL     OW45090  11.742   1.496   1.364 -0.1439  0.6935  0.1641
46162SOL    HW145091  11.785   1.433   1.306  0.3619  1.2735 -0.0914
46162SOL    HW245092  11.648   1.480   1.351 -0.0547 -1.1070  1.2875
46163SOL     OW45093   8.894   3.230   5.570 -0.4543  0.4965  0.4282
46163SOL    HW145094   8.835   3.287   5.620 -0.1161  0.2514  1.1251
46163SOL    HW245095   8.979   3.275   5.575  0.2790 -0.9807  2.6413
46164SOL     OW45096   9.276   9.769   0.840 -0.2704 -0.2728  0.2483
46164SOL    HW145097   9.266   9.764   0.935  1.7070  0.2846  0.5239
46164SOL    HW245098   9.329   9.848   0.826  0.4173 -0.9644 -1.2315
46165SOL     OW45099  12.489  10.884   1.734 -0.1487 -0.2400  0.1578
46165SOL    HW145100  12.578  10.882   1.769  0.5072  1.6545 -1.2462
46165SOL    HW245101  12.500  10.878   1.639 -1.3298  2.0804 -0.1911
46166SOL     OW45102   6.045  11.730  11.134 -0.0979  0.0168  0.0828
46166SOL    HW145103   6.086  11.799  11.186  2.8652 -0.4276 -1.4329
46166SOL    HW245104   5.951  11.747  11.141  0.3477  1.9693  2.7011
46167SOL     OW45105  10.419   6.679  12.459  0.5897 -0.0697 -0.1951
46167SOL    HW145106  10.439   6.646  12.547  0.7528 -1.1423 -0.6265
46167SOL    HW245107  10.378   6.606  12.414  4.0007 -0.9323 -2.2925
46168SOL     OW45108   2.441   9.539   0.274 -0.4614 -0.3902 -0.1224
46168SOL    HW145109   2.346   9.545   0.264 -0.4392  2.2375  0.3659
46168SOL    HW245110   2.475   9.542   0.185 -0.8263 -2.4937 -0.3654
46169SOL     OW45111   4.532   9.024   3.423  0.7980 -0.0803 -0.6445
46169SOL    HW145112   4.460   9.031   3.361  1.1906  0.0177 -1.0988
46169SOL    HW245113   4.602   9.077   3.384  0.9953  0.1133 -0.0396
46170SOL     OW45114   9.338   9.595   4.302  0.4624  0.4470  0.0063
46170SOL    HW145115   9.259   9.541   4.305 -1.4020  2.8991 -1.1274
46170SOL    HW245116   9.327   9.656   4.376  1.1119  1.0290 -0.3705
46171SOL     OW45117   3.560   7.974   6.149  0.6736 -0.3017  0.1941
46171SOL    HW145118   3.623   8.038   6.182  0.7071  0.5674 -1.4224
46171SOL    HW245119   3.570   7.977   6.053 -2.4017  0.5604 -0.2410
46172SOL     OW45120   1.598  11.624   4.066 -0.2927 -0.3529 -0.5467
46172SOL    HW145121   1.528  11.567   4.034 -1.0045 -0.0842  0.4753
46172SOL    HW245122   1.608  11.690   3.998 -0.0531 -1.1828 -1.3492
46173SOL     OW45123  11.459   2.077   5.511  0.1209  0.4917 -0.2659
46173SOL    HW145124  11.491   1.987   5.508 -0.1550  0.4041 -0.6648
46173SOL    HW245125  11.458   2.099   5.604 -0.1982 -0.0498 -0.1389
46174SOL     OW45126   8.331   8.357   2.834  0.3327 -0.3413  0.2240
46174SOL    HW145127   8.294   8.395   2.755  2.0730 -0.5817 -0.7653
46174SOL    HW245128   8.272   8.286   2.857 -1.2285  0.9190  0.2719
46175SOL     OW45129   7.954   8.355   5.247 -0.0757  0.0821 -0.0023
46175SOL    HW145130   7.902   8.405   5.185  0.5494  0.2825 -0.3751
46175SOL    HW245131   8.002   8.421   5.297  1.5192 -0.1385 -1.1633
46176SOL     OW45132   1.902  11.215   3.386  0.2829  0.0905  0.1125
46176SOL    HW145133   1.958  11.195   3.461  0.2019  2.3798  0.8637
46176SOL    HW245134   1.816  11.232   3.424 -0.0589  0.0555 -0.6348
46177SOL     OW45135   2.924   7.727   5.763  0.0549  0.3607 -0.1379
46177SOL    HW145136   2.884   7.723   5.676  1.7566 -1.1799 -0.9154
46177SOL    HW245137   2.984   7.652   5.766  0.7885  0.9460  2.0007
46178SOL     OW45138   2.237   8.203   0.257 -0.0386 -0.5844  0.0777
46178SOL    HW145139   2.190   8.279   0.224  1.1868  0.1180 -0.1046
46178SOL    HW245140   2.245   8.218   0.351 -0.7566 -1.0332  0.2152
46179SOL     OW45141   3.098   2.341  10.837 -0.0770  0.2894  0.1077
46179SOL    HW145142   3.033   2.328  10.768 -2.3703 -0.2482  2.2233
46179SOL    HW245143   3.159   2.269  10.826 -0.4892  0.1126 -1.2226
46180SOL     OW45144   2.557   6.634   6.701  0.1376  0.0043  0.2976
46180SOL    HW145145   2.469   6.662   6.727  0.0998  1.6179 -1.3770
46180SOL    HW245146   2.615   6.699   6.739  0.4450 -0.0223 -0.1261
46181SOL     OW45147  11.567   6.371   0.454 -0.1047  0.1044  0.0588
46181SOL    HW145148  11.645   6.321   0.480  0.5734  0.2579 -1.5219
46181SOL    HW245149  11.503   6.353   0.523  0.5060 -2.0044  0.1732
46182SOL     OW45150  12.501   1.372   0.990  0.2566  0.1721 -0.0080
46182SOL    HW145151  12.480   1.321   0.912  0.4025  0.1154 -0.0124
46182SOL    HW245152  12.490   1.310   1.062 -0.0254  0.2673  0.0305
46183SOL     OW45153  10.970   7.685  12.265  0.5092 -0.3117 -0.1299
46183SOL    HW145154  10.900   7.656  12.324  0.3198  0.6611  0.1466
46183SOL    HW245155  11.041   7.622  12.280  0.4664 -0.0938  1.1571
46184SOL     OW45156  10.497   5.086   2.886  0.0663  0.2690  0.1257
46184SOL    HW145157  10.566   5.076   2.820  1.4577 -0.8191  1.6611
46184SOL    HW245158  10.431   5.021   2.862 -0.1702  0.8742 -0.9800
46185SOL     OW45159   5.580   8.543   2.492 -0.2596  0.1375 -0.3045
46185SOL    HW145160   5.620   8.456   2.485  2.2369  1.2870 -1.6708
46185SOL    HW245161   5.579   8.562   2.586  0.3611 -0.8462 -0.0900
46186SOL     OW45162   4.052   7.163  12.447  0.2500  0.0347 -0.3868
46186SOL    HW145163   4.131   7.202  12.409  0.5061 -0.2942 -0.1949
46186SOL    HW245164   4.080   7.078  12.479 -0.2516 -0.2056 -0.5753
46187SOL     OW45165   8.656   0.380   6.106 -0.3545  0.2361 -0.8773
46187SOL    HW145166   8.579   0.381   6.162  1.4535  0.0545  1.7966
46187SOL    HW245167   8.700   0.463   6.124  0.8837 -0.3445 -1.1155
46188SOL     OW45168   6.698  12.543   8.579  0.2403  0.0991 -0.0267
46188SOL    HW145169   6.789  12.564   8.600 -0.2108  0.8416  1.3513
46188SOL    HW245170   6.649  12.620   8.610 -0.7988 -0.0301 -1.2851
46189SOL     OW45171  10.829   0.629   7.382 -0.1123 -0.1216 -0.1610
46189SOL    HW145172  10.769   0.603   7.452  0.0611  0.6221  0.2685
46189SOL    HW245173  10.771   0.652   7.309 -0.3554  0.3760  0.1782
46190SOL     OW45174   2.010   4.484   9.306  0.8559 -0.0783  0.0169
46190SOL    HW145175   2.095   4.440   9.297  0.7571  0.0674 -2.1009
46190SOL    HW245176   1.950   4.431   9.253  0.1162  1.0109 -0.2712
46191SOL     OW45177  12.700   8.017   7.805  0.2365  0.2813  0.3709
46191SOL    HW145178  12.664   7.931   7.829  0.3169  0.0473 -0.3094
46191SOL    HW245179  12.795   8.006   7.810  0.2366  0.5706  1.0703
46192SOL     OW45180   0.947   7.509   4.141  0.4679  0.0245 -0.2576
46192SOL    HW145181   0.910   7.506   4.229 -0.4428  1.1287 -0.5793
46192SOL    HW245182   0.895   7.447   4.091  0.3148  0.1560 -0.2605
46193SOL     OW45183   8.837   5.677   2.398 -0.6764  0.9370  0.1770
46193SOL    HW145184   8.787   5.601   2.430  0.3220  0.6665  1.1588
46193SOL    HW245185   8.859   5.655   2.308 -0.5021  0.1001  0.4135
46194SOL     OW45186   2.442   1.328   0.382  0.0109 -0.3682  0.0286
46194SOL    HW145187   2.375   1.272   0.344 -0.2796  0.7195 -1.1239
46194SOL    HW245188   2.484   1.273   0.448  0.9225 -2.5891 -2.2133
46195SOL     OW45189  11.412   5.900   7.474  0.2540 -0.6316 -0.1236
46195SOL    HW145190  11.451   5.817   7.448  0.9461 -0.5883  0.7372
46195SOL    HW245191  11.396   5.891   7.568  4.0356  1.5833  0.9335
46196SOL     OW45192   5.585   9.991   2.663  0.6154  0.4708 -0.2984
46196SOL    HW145193   5.652   9.938   2.619  0.7264  1.5364 -1.4674
46196SOL    HW245194   5.504   9.941   2.652  1.1668 -0.7816  1.0432
46197SOL     OW45195   4.482  12.491  12.308 -0.7390  0.2553 -0.2597
46197SOL    HW145196   4.442  12.519  12.391 -1.1264  1.5768 -0.8679
46197SOL    HW245197   4.423  12.523  12.241  0.2375  0.3258 -1.0991
46198SOL     OW45198  11.140   7.113   6.540  0.1379 -0.2422 -0.2244
46198SOL    HW145199  11.064   7.059   6.518 -1.0199  0.8546  0.8224
46198SOL    HW245200  11.140   7.115   6.636  0.7661  0.7459 -0.2286
46199SOL     OW45201   4.359  10.356   7.146  0.1669 -0.3234  0.9376
46199SOL    HW145202   4.416  10.302   7.201 -0.0844 -0.4935  1.0284
46199SOL    HW245203   4.376  10.327   7.057  0.6732  0.0410  0.9079
46200SOL     OW45204  12.689   3.697   5.795  0.1289 -0.3585  0.3638
46200SOL    HW145205  12.695   3.777   5.743  0.5194 -1.1614 -0.8723
46200SOL    HW245206  12.752   3.710   5.866  0.1905  0.4239  0.1743
46201SOL     OW45207   7.412   9.178   5.860 -0.1432  0.1497  0.0277
46201SOL    HW145208   7.468   9.187   5.937 -1.7465 -0.7508  1.3687
46201SOL    HW245209   7.441   9.247   5.800  0.4560  1.5872  1.8811
46202SOL     OW45210   5.104   4.923   4.859 -0.5878  0.1769  0.1382
46202SOL    HW145211   5.194   4.905   4.834 -0.6483  0.3266 -0.1911
46202SOL    HW245212   5.074   4.842   4.902 -0.8708 -0.5335 -1.3379
46203SOL     OW45213  11.070   0.252   7.495  0.3542  0.8719  0.1892
46203SOL    HW145214  11.062   0.158   7.512 -0.6837  0.7747 -0.7140
46203SOL    HW245215  11.028   0.294   7.570  0.3362  0.5997  0.3322
46204SOL     OW45216   5.235   6.559   1.762 -0.2688  0.3329 -0.0664
46204SOL    HW145217   5.324   6.531   1.784  0.2179 -0.4730 -2.6717
46204SOL    HW245218   5.180   6.486   1.790 -0.1430  0.7995  1.4844
46205SOL     OW45219  12.410  12.099   1.660  0.0849 -0.5888 -0.0421
46205SOL    HW145220  12.334  12.063   1.705 -0.3942 -0.4304 -0.7020
46205SOL    HW245221  12.374  12.169   1.604  0.6627 -0.7349 -0.6092
46206SOL     OW45222   0.660   1.450   0.602 -0.3964  0.2325  0.4058
46206SOL    HW145223   0.682   1.517   0.667 -0.5691 -0.2065  0.9296
46206SOL    HW245224   0.709   1.476   0.524  2.1966 -0.8085  1.5539
46207SOL     OW45225   5.842   1.164  10.022 -0.0024 -0.6419  0.1749
46207SOL    HW145226   5.828   1.091   9.962 -0.7225  0.7151 -1.3827
46207SOL    HW245227   5.929   1.148  10.059  0.1665 -1.9026 -0.7134
46208SOL     OW45228   2.898   4.594   7.838  0.2682  0.0664 -0.1224
46208SOL    HW145229   2.857   4.679   7.822 -1.0021 -0.2510  1.2871
46208SOL    HW245230   2.827   4.538   7.868  1.0634 -1.5450 -1.0725
46209SOL     OW45231   6.678   7.597   4.993 -0.6533 -0.6618 -0.3926
46209SOL    HW145232   6.696   7.689   4.970 -0.9837 -0.9382 -1.8356
46209SOL    HW245233   6.590   7.582   4.960 -1.0672 -1.1823  0.8902
46210SOL     OW45234   0.394   0.600   9.529  0.0692 -0.0936  0.2100
46210SOL    HW145235   0.446   0.643   9.461  0.6723  1.3180  1.4935
46210SOL    HW245236   0.456   0.586   9.601 -0.3339 -2.3798  0.1827
46211SOL     OW45237   8.069   3.266   0.810 -0.0294 -0.1139 -0.2780
46211SOL    HW145238   8.060   3.183   0.856  1.1342 -0.1007 -0.0053
46211SOL    HW245239   8.087   3.241   0.719 -1.7730 -0.1391 -0.6513
46212SOL     OW45240   7.126  10.466   0.406 -0.4719 -0.6413  0.7448
46212SOL    HW145241   7.078  10.421   0.476 -1.1975 -1.0724 -0.0060
46212SOL    HW245242   7.075  10.448   0.327 -0.8560  1.5689  0.4181
46213SOL     OW45243  11.188   7.824   7.047  0.2298  0.0849 -0.5528
46213SOL    HW145244  11.227   7.754   6.995  1.9743  0.4575  0.2021
46213SOL    HW245245  11.262   7.878   7.076 -1.0365  2.2906 -1.1292
46214SOL     OW45246   0.380  11.291   5.739  0.7806  0.1187  0.1559
46214SOL    HW145247   0.303  11.268   5.791 -0.4795 -1.6544 -2.2858
46214SOL    HW245248   0.441  11.219   5.756  0.5414 -0.2320 -0.4524
46215SOL     OW45249   3.099   2.145   9.059  0.4743 -0.6634  0.4598
46215SOL    HW145250   3.142   2.078   9.006 -0.6852 -2.6116  1.8623
46215SOL    HW245251   3.058   2.097   9.130 -0.5116  1.5564  1.4943
46216SOL     OW45252   6.376   8.832   6.775 -0.0437  0.1437  0.3309
46216SOL    HW145253   6.467   8.854   6.795  0.2758 -0.7533 -0.1080
46216SOL    HW245254   6.331   8.840   6.860  0.2626  1.3521  0.4081
46217SOL     OW45255  11.997   7.197   3.257 -0.0053  0.3784  0.3517
46217SOL    HW145256  11.940   7.273   3.247 -1.7384 -1.0931 -2.3285
46217SOL    HW245257  11.943   7.123   3.228  2.7521 -1.3411 -0.7519
46218SOL     OW45258   5.497   6.284   2.009  0.1889  0.0017 -0.3542
46218SOL    HW145259   5.526   6.343   2.078  0.3803 -0.5238  0.0165
46218SOL    HW245260   5.447   6.216   2.054  1.0977 -0.8579 -0.6182
46219SOL     OW45261   5.570   6.393  11.215  0.2475 -0.1190 -0.5546
46219SOL    HW145262   5.616   6.471  11.244  1.0541 -0.9319  0.4530
46219SOL    HW245263   5.491   6.390  11.269  0.3248 -0.1150 -0.4422
46220SOL     OW45264   5.269   3.140   9.833 -0.1409 -0.1753 -0.3448
46220SOL    HW145265   5.238   3.078   9.899 -0.1404 -0.0793 -0.2549
46220SOL    HW245266   5.262   3.092   9.750  0.7341 -0.6134 -0.1749
46221SOL     OW45267   7.893  10.183   9.304 -0.3890 -0.0921  0.0072
46221SOL    HW145268   7.915  10.094   9.334  0.3216  0.3955  0.9775
46221SOL    HW245269   7.892  10.175   9.209  1.6530 -0.7363 -0.0240
46222SOL     OW45270   4.251  10.789   8.038 -0.1996 -0.3142  0.1218
46222SOL    HW145271   4.300  10.863   8.074 -0.3603  0.1064 -0.5107
46222SOL    HW245272   4.317  10.738   7.990 -0.7748  1.6294 -2.9276
46223SOL     OW45273   8.439   2.909  12.611 -0.1174  0.0462 -0.3333
46223SOL    HW145274   8.457   2.950  12.527  0.5099  1.3416  0.3933
46223SOL    HW245275   8.521   2.865  12.634  0.0361  0.4860  0.0016
46224SOL     OW45276   8.299   6.291   3.924  0.3835 -0.5155  0.0791
46224SOL    HW145277   8.236   6.351   3.964  0.2706 -0.7299  0.2264
46224SOL    HW245278   8.282   6.298   3.830 -0.0446 -0.7752  0.1366
46225SOL     OW45279  10.939   1.554   1.907 -0.0597  0.2579 -0.4933
46225SOL    HW145280  10.988   1.580   1.828  0.1691 -0.6623 -0.6681
46225SOL    HW245281  10.886   1.480   1.878 -0.3012  0.1908  0.1198
46226SOL     OW45282  12.455   4.173   4.119 -0.3485  0.4330  0.1663
46226SOL    HW145283  12.419   4.221   4.193  1.4752  1.6600  0.3289
46226SOL    HW245284  12.513   4.236   4.075  1.0623 -1.1966 -0.4425
46227SOL     OW45285   0.975   8.979  12.711  0.6154  0.2212  0.3789
46227SOL    HW145286   0.911   9.050  12.707 -0.4883 -0.3434  4.3286
46227SOL    HW245287   0.939   8.912  12.652  0.5258  1.9536 -1.6724
46228SOL     OW45288  12.413   1.646   7.725 -0.4497  0.3793 -0.1831
46228SOL    HW145289  12.485   1.594   7.689  0.3635 -1.7745  3.9757
46228SOL    HW245290  12.453   1.728   7.753  0.3721 -0.6007  1.6381
46229SOL     OW45291   1.693   7.574  10.294 -0.9718 -0.8393 -0.1281
46229SOL    HW145292   1.705   7.517  10.369  0.4724  1.9462  1.9704
46229SOL    HW245293   1.599   7.588  10.288 -1.0729 -0.4609  1.7902
46230SOL     OW45294   6.141   5.139   8.109  0.2885 -0.5622  0.2466
46230SOL    HW145295   6.119   5.232   8.114  1.1100 -0.3552  0.0860
46230SOL    HW245296   6.113   5.112   8.021 -1.4554 -0.8778  0.8614
46231SOL     OW45297   5.032  10.162   7.065  0.1670 -0.1218  0.1540
46231SOL    HW145298   4.964  10.227   7.046 -0.4618 -0.0427  2.4012
46231SOL    HW245299   5.106  10.189   7.010 -0.3367  2.0796  0.4369
46232SOL     OW45300   7.321  12.705   9.306  0.2376 -0.0958  0.1210
46232SOL    HW145301   7.331  12.798   9.286 -0.5568  0.3961  1.8215
46232SOL    HW245302   7.238  12.699   9.354  0.6367 -1.5696  0.7024
46233SOL     OW45303   5.809  11.683   5.850 -0.3658  0.4554  0.3038
46233SOL    HW145304   5.759  11.703   5.928  0.1507  3.2749  0.0073
46233SOL    HW245305   5.765  11.731   5.780  0.0605 -0.8043 -0.8842
46234SOL     OW45306   7.898  10.175   2.679 -0.1599  0.2554 -0.5578
46234SOL    HW145307   7.888  10.204   2.769  0.3737  0.2802 -0.5006
46234SOL    HW245308   7.926  10.083   2.686  3.1860  1.1539 -0.5635
46235SOL     OW45309   1.166   0.624   7.862 -0.2364 -0.0018 -0.0656
46235SOL    HW145310   1.142   0.716   7.875  0.6981  0.5955 -2.1740
46235SOL    HW245311   1.086   0.583   7.830 -0.4793  0.2110  0.2606
46236SOL     OW45312  11.570   3.546   2.272  0.4579 -0.2505 -0.1409
46236SOL    HW145313  11.501   3.507   2.325 -1.4228 -0.4590 -2.5998
46236SOL    HW245314  11.604   3.474   2.219  0.3566  0.4567 -1.1982
46237SOL     OW45315   5.422   4.165   1.256  0.2734  0.0073  0.4827
46237SOL    HW145316   5.380   4.083   1.228  0.9787 -0.3336  0.4121
46237SOL    HW245317   5.502   4.137   1.299  0.9047  0.7023 -0.2250
46238SOL     OW45318  12.428   1.638   5.389 -0.3435  0.4450 -0.7433
46238SOL    HW145319  12.520   1.620   5.408 -0.8321 -1.2630  0.1808
46238SOL    HW245320  12.424   1.640   5.294  0.5080 -0.2995 -0.8124
46239SOL     OW45321   4.892   0.453   4.432 -0.5410 -0.2256  0.6302
46239SOL    HW145322   4.976   0.491   4.405 -0.5118  0.4018  1.5318
46239SOL    HW245323   4.908   0.359   4.436 -0.2454 -0.2324 -0.4112
46240SOL     OW45324   5.540   8.610   2.772 -0.0787 -0.2006 -0.0488
46240SOL    HW145325   5.514   8.627   2.862  2.4582 -0.8046  0.8951
46240SOL    HW245326   5.468   8.560   2.735 -0.9922 -0.3191  1.7828
46241SOL     OW45327   8.426   8.607   6.150 -0.5688 -0.2206  0.2160
46241SOL    HW145328   8.478   8.672   6.197  1.1655 -1.6709  0.3894
46241SOL    HW245329   8.353   8.657   6.113 -0.4469  1.4436  2.0698
46242SOL     OW45330  10.664   3.301   5.513 -0.0641 -0.0274  0.0563
46242SOL    HW145331  10.615   3.237   5.564  0.6526  0.0575  0.8712
46242SOL    HW245332  10.719   3.345   5.577  0.2603  0.6447 -0.6739
46243SOL     OW45333   4.621   4.224   3.578 -0.1425 -0.0644 -0.1531
46243SOL    HW145334   4.624   4.305   3.527  0.5986 -0.1267 -0.2165
46243SOL    HW245335   4.594   4.251   3.665  0.1418  0.2599 -0.1637
46244SOL     OW45336   4.077   6.448  11.733 -0.4379 -0.0434 -0.2513
46244SOL    HW145337   4.110   6.487  11.814  1.0563 -2.5194  0.4457
46244SOL    HW245338   4.030   6.519  11.690 -0.5735  1.6012  2.3635
46245SOL     OW45339   7.709  12.107   6.285 -0.0428 -0.0576  0.0939
46245SOL    HW145340   7.773  12.165   6.327  0.3269 -0.8799  0.6835
46245SOL    HW245341   7.684  12.154   6.205  1.1831  0.3588 -0.0697
46246SOL     OW45342  10.668   1.369   7.604 -0.6608 -0.3689  0.1304
46246SOL    HW145343  10.694   1.355   7.513  0.7563 -0.6167  0.5441
46246SOL    HW245344  10.683   1.462   7.619 -3.8720  0.4152 -0.7367
46247SOL     OW45345   9.724   1.775  12.531  0.2415 -0.4687 -0.3036
46247SOL    HW145346   9.705   1.801  12.441  0.1902 -1.9951 -0.7561
46247SOL    HW245347   9.643   1.793  12.580  0.5996  1.3365 -0.3037
46248SOL     OW45348   3.922   0.160  11.253  0.6905 -0.0113 -0.1767
46248SOL    HW145349   3.828   0.149  11.266  0.3050  1.8599 -1.0039
46248SOL    HW245350   3.958   0.072  11.262 -1.1850 -0.8380 -0.2545
46249SOL     OW45351   0.939   5.336   0.060  0.0110  0.2380  0.2893
46249SOL    HW145352   0.906   5.363   0.146  0.8544 -1.9522  1.3629
46249SOL    HW245353   1.034   5.331   0.072  0.0259 -1.4214 -0.3321
46250SOL     OW45354   4.311  11.834   5.197  0.2702 -0.2315  0.3071
46250SOL    HW145355   4.377  11.795   5.255 -1.2475 -2.9840  0.3366
46250SOL    HW245356   4.359  11.852   5.116  1.0638 -2.5017  0.1931
46251SOL     OW45357   0.045   8.239   1.925 -0.2559 -0.1282 -0.0816
46251SOL    HW145358   0.003   8.198   2.001  0.7868  1.1305  1.2542
46251SOL    HW245359  -0.018   8.303   1.894 -1.3002 -1.6462 -1.2779
46252SOL     OW45360  12.507  10.483  11.639 -0.2596 -0.0504 -0.1771
46252SOL    HW145361  12.539  10.395  11.625 -0.3883 -0.4611  1.7625
46252SOL    HW245362  12.581  10.530  11.677 -1.2136 -0.4580  2.4438
46253SOL     OW45363   7.521   1.801   1.451  0.0151 -0.3537  0.2098
46253SOL    HW145364   7.526   1.893   1.424  0.0622 -0.3836  0.1185
46253SOL    HW245365   7.492   1.754   1.373 -2.6886 -0.0712  0.9370
46254SOL     OW45366   6.877  10.351   2.083  0.1293 -0.5141 -0.0781
46254SOL    HW145367   6.843  10.262   2.087 -0.0997 -0.4417 -0.3956
46254SOL    HW245368   6.825  10.400   2.147  0.5469 -0.7014  0.4090
46255SOL     OW45369  11.688   1.785   3.764 -0.1122 -0.3686  0.1820
46255SOL    HW145370  11.619   1.761   3.826  0.4432 -0.7779  0.6597
46255SOL    HW245371  11.657   1.865   3.723  0.4923  1.2293  2.6310
46256SOL     OW45372   9.605   1.723   1.240  0.2605  0.7116 -0.6942
46256SOL    HW145373   9.654   1.642   1.258  0.7374  0.8485 -1.3462
46256SOL    HW245374   9.638   1.753   1.156 -0.5964  1.0882 -0.9062
46257SOL     OW45375  10.714   4.155   1.501 -0.4353  0.4215  0.1833
46257SOL    HW145376  10.652   4.194   1.439  0.7657 -0.0672 -1.3774
46257SOL    HW245377  10.794   4.141   1.451  0.6201  0.0474  1.8688
46258SOL     OW45378  11.903   5.784  11.368 -0.2517 -0.2572  0.5501
46258SOL    HW145379  11.888   5.836  11.289 -1.1164 -1.1784  0.0917
46258SOL    HW245380  11.904   5.848  11.439  0.8929  0.6267 -0.2191
46259SOL     OW45381  11.509   4.120   1.706 -0.4022 -0.2697  0.3381
46259SOL    HW145382  11.597   4.085   1.697 -0.5013 -0.8111  1.3438
46259SOL    HW245383  11.455   4.066   1.649  0.1127  0.9343 -1.3608
46260SOL     OW45384   8.505   3.317   0.478  0.0281 -0.2156 -0.0521
46260SOL    HW145385   8.533   3.339   0.390  0.2006 -1.9284 -0.4697
46260SOL    HW245386   8.586   3.309   0.528  0.1010 -1.5704 -0.3510
46261SOL     OW45387   0.510   3.259   5.931 -0.1402  0.7711  0.2403
46261SOL    HW145388   0.532   3.166   5.930  2.4803  1.3181 -0.0237
46261SOL    HW245389   0.549   3.292   6.011  2.8198  2.3729 -1.6854
46262SOL     OW45390  12.524   5.156   8.800 -0.5206  0.2931  0.2323
46262SOL    HW145391  12.496   5.069   8.829 -0.6487  0.4447  0.5714
46262SOL    HW245392  12.518   5.153   8.705  0.3446 -0.3740  0.1759
46263SOL     OW45393   5.861  11.030   1.077  0.1039  0.4136  0.5971
46263SOL    HW145394   5.796  11.033   1.007  1.0460  2.1135 -0.2818
46263SOL    HW245395   5.812  11.050   1.157 -0.7031  0.1036  0.1869
46264SOL     OW45396   1.840   2.049   9.548 -0.1315 -0.4381  0.1768
46264SOL    HW145397   1.843   1.953   9.552  0.2782 -0.4505 -0.3563
46264SOL    HW245398   1.813   2.069   9.459 -0.9207 -0.0584  0.4900
46265SOL     OW45399   4.097   1.352   7.958 -0.1974  0.5472 -0.0922
46265SOL    HW145400   4.132   1.382   7.874  1.8414 -0.5078  0.2935
46265SOL    HW245401   4.067   1.432   8.002 -0.6822  1.1908 -1.5515
46266SOL     OW45402  10.281  10.321   7.927 -0.1054 -0.3770  0.4038
46266SOL    HW145403  10.336  10.277   7.862 -2.4758 -2.9250 -0.0706
46266SOL    HW245404  10.315  10.293   8.011 -0.6110 -2.0059  0.1126
46267SOL     OW45405   5.412   8.812   8.105 -0.2979 -0.2064 -0.5664
46267SOL    HW145406   5.383   8.861   8.029 -1.0863 -0.4430 -0.4267
46267SOL    HW245407   5.465   8.873   8.155 -0.6415  0.2696 -0.7797
46268SOL     OW45408   7.198  10.711   4.810 -0.1226 -0.5259 -0.2818
46268SOL    HW145409   7.106  10.738   4.805 -0.3985 -1.1528  0.9650
46268SOL    HW245410   7.232  10.757   4.887  0.9361  0.5539 -1.3516
46269SOL     OW45411   4.216   0.803   6.850 -0.1219  0.1983 -0.3536
46269SOL    HW145412   4.312   0.804   6.853 -0.1262  1.0589 -0.2337
46269SOL    HW245413   4.189   0.842   6.933 -0.6622 -3.3044  1.2987
46270SOL     OW45414   1.173   1.883   8.313  0.1227 -0.4218  0.0288
46270SOL    HW145415   1.189   1.794   8.343  0.2715 -0.2297  0.5447
46270SOL    HW245416   1.081   1.899   8.331  0.2136 -0.3038  0.4151
46271SOL     OW45417   8.456   6.786   4.951  0.0120  0.3375 -0.3527
46271SOL    HW145418   8.462   6.860   4.891  1.5864 -0.3490 -1.0845
46271SOL    HW245419   8.395   6.725   4.908 -0.3876  0.6928 -0.2955
46272SOL     OW45420   4.795   3.682  11.663  0.9126  0.3976 -0.1230
46272SOL    HW145421   4.800   3.642  11.750  0.0090  0.3810 -0.0743
46272SOL    HW245422   4.853   3.629  11.608  1.9908  0.7823  0.6012
46273SOL     OW45423   9.960   8.614   6.329  0.3518  0.4487  0.3546
46273SOL    HW145424  10.020   8.631   6.402  1.7482  0.3049 -0.7102
46273SOL    HW245425   9.900   8.688   6.329 -0.2746 -0.0101  2.2044
46274SOL     OW45426   4.403  10.310   2.233 -0.3219 -0.5500  0.1019
46274SOL    HW145427   4.349  10.245   2.187  1.3225 -1.7955 -0.1665
46274SOL    HW245428   4.457  10.348   2.164 -0.8352  0.6985  0.3638
46275SOL     OW45429  12.719   9.956  11.592  0.1234 -0.3363  0.1637
46275SOL    HW145430  12.649  10.004  11.635 -1.3713 -2.2212 -0.0233
46275SOL    HW245431  12.678   9.918  11.514  1.3104 -1.6010  0.1120
46276SOL     OW45432   6.648   9.360   1.244 -0.2462 -1.1500  0.2722
46276SOL    HW145433   6.577   9.297   1.241  0.8475 -2.4260  0.2722
46276SOL    HW245434   6.707   9.327   1.311  0.1794  0.0781  0.5339
46277SOL     OW45435   5.657   0.828   4.944  0.0066  0.5261  0.6232
46277SOL    HW145436   5.681   0.762   4.880  0.2835  1.9463 -0.8051
46277SOL    HW245437   5.587   0.878   4.902  0.8086  2.0427  1.0189
46278SOL     OW45438  10.714   5.362  10.295 -0.0675 -0.0892  0.5385
46278SOL    HW145439  10.734   5.278  10.255 -0.3392  0.1421 -0.0988
46278SOL    HW245440  10.700   5.421  10.221 -0.4667  0.3745  0.9768
46279SOL     OW45441   4.362   3.089   0.918  0.2179 -0.5404 -0.0140
46279SOL    HW145442   4.391   3.054   0.834  1.2060 -1.0000  0.5033
46279SOL    HW245443   4.442   3.109   0.965 -0.2899 -1.5584  1.3494
46280SOL     OW45444   7.790  12.701   4.089 -0.2000 -0.4223 -0.0720
46280SOL    HW145445   7.708  12.668   4.052  0.0676 -0.5265 -0.5842
46280SOL    HW245446   7.810  12.641   4.161 -0.6153 -0.3468  0.1058
46281SOL     OW45447   1.590   9.869   1.294  0.0773 -0.0622 -0.4467
46281SOL    HW145448   1.633   9.849   1.377 -0.2117 -0.6292 -0.4270
46281SOL    HW245449   1.617   9.798   1.235  0.9675  0.7966 -1.0953
46282SOL     OW45450   2.713   0.841  10.852 -0.1878 -0.3201 -0.0341
46282SOL    HW145451   2.783   0.775  10.848  2.3802  2.1427  1.0247
46282SOL    HW245452   2.675   0.830  10.939 -0.3808 -0.9127 -0.1850
46283SOL     OW45453   5.958   3.820   8.827 -1.0138  0.0820  0.0186
46283SOL    HW145454   5.992   3.732   8.839 -2.6462 -0.5382  0.3776
46283SOL    HW245455   5.975   3.864   8.910  0.0505  0.2211 -0.2528
46284SOL     OW45456   9.846   2.938  11.820  0.3090  0.4683  0.3000
46284SOL    HW145457   9.801   2.860  11.850 -0.6057  1.2023  0.8662
46284SOL    HW245458   9.777   2.996  11.789  0.9975  0.9386 -0.4140
46285SOL     OW45459   3.252  11.780   1.106  0.0927 -0.1537  0.0300
46285SOL    HW145460   3.257  11.827   1.189 -0.1375  0.4941 -0.3155
46285SOL    HW245461   3.330  11.807   1.058 -0.5573  0.6998 -0.5814
46286SOL     OW45462   2.713  12.074   4.530  0.2218 -0.2740  0.0177
46286SOL    HW145463   2.668  12.047   4.610  1.3678  0.0354  0.7852
46286SOL    HW245464   2.711  12.169   4.532 -1.2373 -0.2357 -1.2127
46287SOL     OW45465   2.917   7.981   2.019 -0.5022  0.4365 -0.8109
46287SOL    HW145466   2.859   8.006   2.091 -1.6297  0.7078 -1.7814
46287SOL    HW245467   2.994   8.037   2.030  0.0332 -0.5688  1.0307
46288SOL     OW45468   8.227   9.154   2.277  0.2459  0.3255 -0.1453
46288SOL    HW145469   8.184   9.111   2.203  1.7488 -0.9633 -0.3337
46288SOL    HW245470   8.272   9.229   2.239 -1.0640  1.1845 -0.0792
46289SOL     OW45471   9.088  10.642   2.440  0.4171 -0.3465 -0.0337
46289SOL    HW145472   9.124  10.680   2.520  1.3581 -0.7324 -0.2636
46289SOL    HW245473   9.066  10.719   2.386 -1.7658 -0.0169  1.1963
46290SOL     OW45474   7.142   1.186   0.262  0.0249 -0.1693 -0.5417
46290SOL    HW145475   7.216   1.128   0.280  0.3334 -0.3474 -2.2705
46290SOL    HW245476   7.169   1.237   0.186 -0.1887  2.3793  0.9621
46291SOL     OW45477  10.593   1.306   8.594  0.3056  0.8413  0.2372
46291SOL    HW145478  10.656   1.374   8.618  0.8636  0.2979  0.3228
46291SOL    HW245479  10.527   1.309   8.663  1.1152  0.2867  1.0508
46292SOL     OW45480   5.089   6.870   6.067  0.4704  0.5766 -0.1213
46292SOL    HW145481   5.100   6.832   5.980 -1.7780  0.1526 -0.2572
46292SOL    HW245482   5.062   6.960   6.050  2.5743  1.3454  0.2092
46293SOL     OW45483   6.174   7.370   9.595 -0.3597 -0.6249  0.2221
46293SOL    HW145484   6.083   7.380   9.568 -0.6703  1.2378  1.6929
46293SOL    HW245485   6.221   7.438   9.547 -0.1465 -0.2122  0.9897
46294SOL     OW45486  10.947  10.544   4.042  0.2253 -0.1834  0.4099
46294SOL    HW145487  10.867  10.506   4.006  0.3459  0.2034 -0.2743
46294SOL    HW245488  10.995  10.576   3.966  1.5960 -1.4749  0.6937
46295SOL     OW45489   3.753   1.078   6.657 -0.5296 -0.3882 -0.1493
46295SOL    HW145490   3.694   1.100   6.585 -0.3762 -0.3894 -0.2744
46295SOL    HW245491   3.699   1.026   6.717 -0.9130  0.3806  0.1828
46296SOL     OW45492   3.826   5.712  11.547 -0.1198 -0.0813  0.1524
46296SOL    HW145493   3.750   5.770  11.549 -0.4536 -0.5265  1.3621
46296SOL    HW245494   3.890   5.754  11.606 -0.1265 -0.6113  0.5449
46297SOL     OW45495  10.295   0.585   0.911 -0.5112 -0.2772 -0.6435
46297SOL    HW145496  10.346   0.526   0.968  0.2191 -0.6552 -1.6472
46297SOL    HW245497  10.226   0.529   0.875  0.5242 -0.7179 -2.0450
46298SOL     OW45498   6.823   6.411   0.746  0.1701  0.1709 -0.0045
46298SOL    HW145499   6.835   6.477   0.678  1.5118  0.2989  0.3335
46298SOL    HW245500   6.858   6.452   0.825  1.0445 -0.9484  0.2108
46299SOL     OW45501  10.927   0.765  10.944 -0.1332  0.4219  0.7123
46299SOL    HW145502  10.859   0.716  10.989  1.2481 -2.1987  0.1685
46299SOL    HW245503  10.920   0.739  10.852  0.3518  1.6781  0.2811
46300SOL     OW45504   9.844   9.688   5.491  0.1285 -0.4161 -0.2398
46300SOL    HW145505   9.919   9.647   5.448  0.5819  0.6515 -0.4898
46300SOL    HW245506   9.774   9.687   5.425  0.7155  0.9014 -0.9192
46301SOL     OW45507   5.747   8.147   5.935  0.2440 -0.1290  0.3354
46301SOL    HW145508   5.837   8.171   5.958  0.6738  0.2588 -1.5432
46301SOL    HW245509   5.730   8.066   5.983  1.8969 -0.6458  0.1210
46302SOL     OW45510   2.627   7.794   4.585 -0.3344  0.6792 -0.0353
46302SOL    HW145511   2.538   7.796   4.550 -0.3671 -0.4808 -0.0673
46302SOL    HW245512   2.658   7.706   4.565  0.5258  0.8041  0.7015
46303SOL     OW45513   5.977   3.040   6.568  0.1995  0.0108  0.4555
46303SOL    HW145514   5.917   3.057   6.641 -1.1287 -2.0213 -0.0894
46303SOL    HW245515   6.050   2.992   6.607  1.8562  2.8556  1.2032
46304SOL     OW45516   3.868   6.613  11.645 -0.3572  0.3511  0.2217
46304SOL    HW145517   3.812   6.535  11.654 -0.0019  0.2365  1.7346
46304SOL    HW245518   3.806   6.686  11.646 -0.5429  0.2013  1.3992
46305SOL     OW45519   2.257   3.415   3.112  0.1390  0.3243 -0.1474
46305SOL    HW145520   2.163   3.399   3.117 -0.7628  3.9356 -1.8949
46305SOL    HW245521   2.272   3.487   3.174  2.3972 -1.8744  2.1049
46306SOL     OW45522   4.856   9.944   2.732 -0.2092  0.3490  0.1428
46306SOL    HW145523   4.939   9.905   2.760  0.2966  0.3381 -1.2819
46306SOL    HW245524   4.802   9.869   2.708 -0.1323  0.3976 -0.2007
46307SOL     OW45525  10.602   9.852   5.517  0.2200 -0.0877 -0.8414
46307SOL    HW145526  10.615   9.845   5.423  1.0563  1.1046 -0.8431
46307SOL    HW245527  10.531   9.791   5.537  0.4398 -0.7972 -2.1426
46308SOL     OW45528   7.974   4.127   2.379  0.1098  0.1075  0.0475
46308SOL    HW145529   7.901   4.154   2.323  0.9077  1.1722 -0.5198
46308SOL    HW245530   8.051   4.165   2.337  1.0772 -1.4821  0.3114
46309SOL     OW45531   4.108   7.604   8.494  0.0372 -1.1144 -0.1004
46309SOL    HW145532   4.095   7.698   8.504 -2.2945 -1.0470 -2.6974
46309SOL    HW245533   4.197   7.588   8.527  0.7675  2.0768 -0.2532
46310SOL     OW45534   2.904   9.144   6.567  0.7271  0.0261 -0.5254
46310SOL    HW145535   2.861   9.224   6.539 -1.2834 -0.8446 -0.0701
46310SOL    HW245536   2.901   9.146   6.662 -0.9922 -1.3684 -0.4974
46311SOL     OW45537  10.849   2.959   9.415 -0.1526 -0.3157 -0.1222
46311SOL    HW145538  10.885   2.942   9.502  0.1890  1.2583  0.0883
46311SOL    HW245539  10.754   2.960   9.429 -0.0778  1.2676  0.5641
46312SOL     OW45540  11.270   2.168   1.292  0.7490  0.0569 -0.1458
46312SOL    HW145541  11.213   2.103   1.332  1.0051  0.3635  0.7414
46312SOL    HW245542  11.220   2.250   1.295 -0.5389 -0.4653 -3.3751
46313SOL     OW45543   1.569   4.419   5.297 -0.4668 -0.7591 -0.1808
46313SOL    HW145544   1.535   4.361   5.228 -0.7936 -0.9975  0.1729
46313SOL    HW245545   1.530   4.504   5.278 -1.0373 -0.9590  0.0407
46314SOL     OW45546   9.138   7.651  12.069 -0.3688 -0.0833 -0.1513
46314SOL    HW145547   9.156   7.563  12.038 -0.4236 -0.7677  1.6431
46314SOL    HW245548   9.059   7.643  12.121  0.0561  0.8544  0.6909
46315SOL     OW45549   0.651   1.372   1.025  0.1123 -0.4275 -0.2605
46315SOL    HW145550   0.570   1.396   0.979  0.5275  0.9574 -0.2966
46315SOL    HW245551   0.624   1.364   1.117  0.1155  1.0441 -0.1121
46316SOL     OW45552   1.873  12.308   0.919  0.1818  0.1453 -0.1580
46316SOL    HW145553   1.799  12.297   0.859 -1.3816  2.8531  1.1001
46316SOL    HW245554   1.861  12.239   0.985 -1.3016  0.5962  0.0713
46317SOL     OW45555   4.313   7.124   0.157 -0.5202  0.1904 -0.2815
46317SOL    HW145556   4.394   7.160   0.121 -1.0848  1.5954 -0.2036
46317SOL    HW245557   4.342   7.061   0.224  0.5039  0.7037 -0.2319
46318SOL     OW45558   9.374   5.493   3.231 -0.4472 -0.2287 -0.0235
46318SOL    HW145559   9.293   5.471   3.275 -0.9357 -1.1224 -1.3110
46318SOL    HW245560   9.349   5.554   3.161 -0.1768 -1.1943 -0.9954
46319SOL     OW45561   7.404   5.436   3.800  0.0269 -0.0253 -0.0488
46319SOL    HW145562   7.398   5.342   3.822  0.4619  0.2885  1.5673
46319SOL    HW245563   7.458   5.473   3.870  0.0770  1.3975 -0.8176
46320SOL     OW45564   9.511  10.820   5.732 -0.4778  0.1126  0.2349
46320SOL    HW145565   9.528  10.730   5.760  1.0217  0.4579  0.4902
46320SOL    HW245566   9.527  10.819   5.638  0.2064  0.2483  0.3433
46321SOL     OW45567   5.905   1.071   6.060 -0.1150  0.0800  0.3489
46321SOL    HW145568   5.944   1.103   5.979  0.2306  1.0084  0.8571
46321SOL    HW245569   5.920   0.976   6.058  1.2891  0.2732  0.0429
46322SOL     OW45570   0.115  11.260   4.624 -0.2318 -0.4144 -0.3314
46322SOL    HW145571   0.084  11.347   4.647 -0.2514 -0.4259 -0.3143
46322SOL    HW245572   0.081  11.246   4.535  1.1424  0.2446 -0.9867
46323SOL     OW45573   1.034  10.712   2.545  0.4374  0.1829  0.0352
46323SOL    HW145574   0.943  10.682   2.546  0.1871  0.9232  0.4208
46323SOL    HW245575   1.057  10.721   2.637  0.7868  0.3232 -0.0648
46324SOL     OW45576   1.681   8.701   5.285 -0.1029 -0.0569 -0.0624
46324SOL    HW145577   1.704   8.772   5.226 -0.3110  0.0670  0.0033
46324SOL    HW245578   1.763   8.676   5.327  0.1402 -0.4956 -0.7826
46325SOL     OW45579   4.142   5.818   3.504 -0.1254 -0.4659 -0.5118
46325SOL    HW145580   4.081   5.890   3.519  0.2171  0.1913 -2.0619
46325SOL    HW245581   4.141   5.768   3.585 -2.5079 -0.3351 -0.4067
46326SOL     OW45582   8.040   1.643   7.019  0.2620  0.0649  0.1444
46326SOL    HW145583   7.951   1.653   7.052  0.6582  0.0818  1.2635
46326SOL    HW245584   8.056   1.549   7.021 -0.7705 -0.3163 -3.0337
46327SOL     OW45585  11.988   6.713  11.025 -0.8697  0.3982 -0.3048
46327SOL    HW145586  11.960   6.622  11.016  0.7936 -0.1841 -0.0135
46327SOL    HW245587  11.941   6.745  11.101 -1.5059 -0.2112 -0.4345
46328SOL     OW45588   6.906   1.124   9.544  0.1889  0.6183  0.1168
46328SOL    HW145589   6.993   1.114   9.580  0.9880 -0.8012 -1.9838
46328SOL    HW245590   6.918   1.119   9.449 -2.2265 -0.3086 -0.2311
46329SOL     OW45591   4.617   9.151   1.599 -0.1650 -0.2518  0.2044
46329SOL    HW145592   4.531   9.124   1.633  0.0071 -0.4775  0.4753
46329SOL    HW245593   4.598   9.223   1.539 -0.7108 -1.3890 -1.0456
46330SOL     OW45594   5.337   0.943   6.227  0.5572 -0.9916  0.5508
46330SOL    HW145595   5.425   0.980   6.220  0.0160  0.1839 -0.6899
46330SOL    HW245596   5.327   0.889   6.148 -0.0336 -0.6261  0.3686
46331SOL     OW45597  11.242   8.616  11.781  0.6142  0.3337  0.2694
46331SOL    HW145598  11.167   8.674  11.770  0.7190  0.2557 -1.1172
46331SOL    HW245599  11.207   8.529  11.764  0.9764  0.2793 -0.2142
46332SOL     OW45600   6.712   9.998   7.220  0.1430  0.2589 -0.3499
46332SOL    HW145601   6.737  10.086   7.191  0.5581  0.1202 -0.4173
46332SOL    HW245602   6.646  10.013   7.288  0.6916  0.6369  0.1055
46333SOL     OW45603   0.521   2.289   4.226 -0.6623 -0.2362 -0.0514
46333SOL    HW145604   0.436   2.261   4.258 -0.4643 -1.2931 -0.4313
46333SOL    HW245605   0.574   2.299   4.305 -1.2138  0.7607  0.2142
46334SOL     OW45606   6.086   7.445  10.829  0.1194 -0.2268 -0.0672
46334SOL    HW145607   6.007   7.438  10.777 -0.8317 -1.8451  1.4770
46334SOL    HW245608   6.062   7.501  10.903  0.7840  0.2332 -0.1864
46335SOL     OW45609   9.051   7.189   7.953 -0.2461  0.2509  0.2042
46335SOL    HW145610   9.072   7.223   8.040  0.1271 -2.3939  1.2322
46335SOL    HW245611   9.117   7.227   7.896  0.3621  0.9492  1.3317
46336SOL     OW45612   9.064   1.029   4.563  0.2360  0.0632  0.5789
46336SOL    HW145613   9.146   1.075   4.581  0.9418 -0.7194 -0.5957
46336SOL    HW245614   9.026   1.014   4.650  1.5619 -0.0073  1.1644
46337SOL     OW45615   9.666   3.133   0.211 -0.1908  0.3839  0.2155
46337SOL    HW145616   9.606   3.060   0.223  0.5175 -0.0983  0.9616
46337SOL    HW245617   9.721   3.107   0.136  1.6337 -1.0094  1.9047
46338SOL     OW45618   5.630   5.218   4.960 -0.4924 -0.3330 -0.3851
46338SOL    HW145619   5.643   5.313   4.971 -0.8885 -0.2588 -0.5243
46338SOL    HW245620   5.535   5.208   4.957 -0.4450 -0.4832 -2.5470
46339SOL     OW45621  12.511   1.315  10.154 -0.8246 -0.6128 -0.0655
46339SOL    HW145622  12.484   1.375  10.083  0.8492  0.8475  0.4707
46339SOL    HW245623  12.515   1.371  10.232  1.2306 -1.2843  0.3696
46340SOL     OW45624  12.043   7.034   2.385  0.2048 -0.0624  0.6440
46340SOL    HW145625  12.124   7.068   2.423  0.7380 -0.2681 -0.2627
46340SOL    HW245626  11.973   7.079   2.432  0.8561  2.3669 -0.5385
46341SOL     OW45627   7.199   7.993   3.807 -0.3703 -0.2114  0.1697
46341SOL    HW145628   7.193   7.976   3.713 -1.1675  0.2609  0.1236
46341SOL    HW245629   7.135   8.062   3.823  0.2197  0.1762  0.9528
46342SOL     OW45630   9.840   9.279   9.851  0.1403  0.2984  0.4076
46342SOL    HW145631   9.899   9.287   9.926 -1.1716  0.7268  1.4259
46342SOL    HW245632   9.837   9.367   9.814  1.0232  0.0225 -0.3590
46343SOL     OW45633   7.753   5.685   1.979  0.4877 -0.6778  0.7026
46343SOL    HW145634   7.807   5.643   2.045  0.6574  0.2938  1.1901
46343SOL    HW245635   7.667   5.644   1.989  0.1922  0.2459  2.3127
46344SOL     OW45636   8.772   3.058   4.435 -0.3070  0.1383 -0.3580
46344SOL    HW145637   8.780   3.065   4.530 -0.4832  0.0497 -0.3360
46344SOL    HW245638   8.701   2.996   4.422  0.4232 -0.6719 -0.5480
46345SOL     OW45639  10.340  12.551  11.829  0.3679 -0.1162 -0.3855
46345SOL    HW145640  10.403  12.621  11.810  0.4371 -0.2602 -0.6963
46345SOL    HW245641  10.388  12.491  11.886  0.1221  0.3766  0.3501
46346SOL     OW45642   1.778  12.619   8.472 -0.0640  0.1971  0.6548
46346SOL    HW145643   1.694  12.656   8.447  0.1025  0.4406  0.4496
46346SOL    HW245644   1.827  12.612   8.390  0.1541  0.1522  0.7862
46347SOL     OW45645   1.463   6.600   3.314 -0.7049 -0.0034  0.1017
46347SOL    HW145646   1.444   6.539   3.385 -0.1519  0.9497  1.0873
46347SOL    HW245647   1.377   6.637   3.291 -0.7300  0.6645  1.1975
46348SOL     OW45648   4.002   8.544   0.581  0.0676 -0.2284 -0.3377
46348SOL    HW145649   3.998   8.577   0.671 -0.9615  0.7678 -0.7151
46348SOL    HW245650   3.960   8.458   0.585  3.3898 -1.9604  0.7906
46349SOL     OW45651   9.264   6.586   0.976 -0.2133 -0.4850 -0.0861
46349SOL    HW145652   9.325   6.565   0.905  1.0635 -0.5936  0.9919
46349SOL    HW245653   9.288   6.674   1.004 -2.3170  0.5542 -1.3468
46350SOL     OW45654   2.096   2.253   1.953  0.1189  0.6491  0.4041
46350SOL    HW145655   2.035   2.219   2.017 -0.0689 -1.5003 -0.8026
46350SOL    HW245656   2.158   2.305   2.003  0.4425 -1.5622  2.4846
46351SOL     OW45657   7.367   1.034   0.357  0.2212 -0.1496 -0.2737
46351SOL    HW145658   7.379   1.054   0.264  0.7525 -0.2762 -0.2359
46351SOL    HW245659   7.384   0.941   0.365 -0.8850 -0.3568 -0.2182
46352SOL     OW45660   4.935   3.042   0.013 -0.3189  0.1808  0.0704
46352SOL    HW145661   4.850   2.998   0.004 -1.0116  1.4913  0.0021
46352SOL    HW245662   4.989   2.979   0.061 -0.8207 -1.3235 -1.2520
46353SOL     OW45663   2.546   8.218   6.684  0.0812  0.2790  0.0655
46353SOL    HW145664   2.558   8.295   6.739  0.0468 -0.4612  1.1663
46353SOL    HW245665   2.493   8.248   6.611 -2.1551  0.8005  1.7753
46354SOL     OW45666  11.085   3.917   4.028  0.3194 -0.3853  0.5350
46354SOL    HW145667  11.086   3.829   4.065 -1.7543 -1.2550 -1.2491
46354SOL    HW245668  10.992   3.941   4.024  0.6462  0.8486 -1.2386
46355SOL     OW45669   1.219   4.614  10.682 -0.2543  0.0302  0.6754
46355SOL    HW145670   1.184   4.572  10.760 -1.1083 -0.2145  0.1714
46355SOL    HW245671   1.182   4.564  10.609  1.1165 -0.2195  0.1123
46356SOL     OW45672  12.383   0.254   0.031 -0.0721  0.2736  0.2762
46356SOL    HW145673  12.288   0.259   0.037  0.0307  0.9400  1.5162
46356SOL    HW245674  12.399   0.194  -0.043 -1.4508 -1.2976  1.1814
46357SOL     OW45675   3.583  12.092   5.590 -0.0585 -0.1071 -0.2497
46357SOL    HW145676   3.490  12.091   5.566 -0.0816  0.2658 -0.1834
46357SOL    HW245677   3.625  12.036   5.525 -0.3695 -0.4993 -0.1160
46358SOL     OW45678  11.312   7.842   7.985 -0.1318 -0.5222 -0.3187
46358SOL    HW145679  11.226   7.850   8.027  0.3072  0.4300  0.4572
46358SOL    HW245680  11.361   7.786   8.044 -0.3011 -1.3033 -0.9126
46359SOL     OW45681  11.378   2.884   8.600 -0.0096  0.6699  0.6940
46359SOL    HW145682  11.425   2.875   8.683  0.7015 -0.5329  0.1909
46359SOL    HW245683  11.310   2.948   8.618  1.7124  2.3555  1.5127
46360SOL     OW45684   1.514  10.836   5.622  0.0454  0.1697 -0.2613
46360SOL    HW145685   1.453  10.837   5.548 -0.9687  0.9879  0.5570
46360SOL    HW245686   1.529  10.743   5.640 -0.2600 -0.0334 -1.0284
46361SOL     OW45687   8.207   0.235   9.703 -0.0022 -0.3280  0.4929
46361SOL    HW145688   8.137   0.201   9.647  0.3276  0.2656 -0.3031
46361SOL    HW245689   8.248   0.158   9.741 -1.6163 -0.6693  1.6461
46362SOL     OW45690   3.079   9.702  10.953  0.0334  0.2958 -0.4944
46362SOL    HW145691   3.172   9.695  10.929 -0.0090  1.4854 -1.0447
46362SOL    HW245692   3.077   9.770  11.020 -0.5376  0.8348 -1.0532
46363SOL     OW45693   2.608   5.743   9.594 -0.1221  0.9534  0.0280
46363SOL    HW145694   2.627   5.737   9.687  0.0762 -0.5016 -0.0766
46363SOL    HW245695   2.691   5.722   9.551 -0.8320 -1.1468 -0.4346
46364SOL     OW45696   3.296  11.748   9.129  0.1994 -0.1644  0.1487
46364SOL    HW145697   3.336  11.662   9.123  1.5060  0.3861  0.6772
46364SOL    HW245698   3.252  11.748   9.215 -0.1614 -0.4439 -0.0339
46365SOL     OW45699   8.587   4.638  12.120  0.0109 -0.1755 -0.2991
46365SOL    HW145700   8.574   4.546  12.097 -0.0672  0.1558 -1.6953
46365SOL    HW245701   8.569   4.685  12.039  1.9125  0.9231 -0.1391
46366SOL     OW45702  10.895   1.048   3.154  0.1594  0.0913  0.1157
46366SOL    HW145703  10.859   1.051   3.066 -0.1092  1.4094  0.2431
46366SOL    HW245704  10.918   0.956   3.168 -2.7352 -0.7719 -0.1433
46367SOL     OW45705   7.545   1.651   3.786 -0.3112  0.5902 -0.0316
46367SOL    HW145706   7.591   1.610   3.859 -1.1836  1.0061  0.7719
46367SOL    HW245707   7.512   1.577   3.735 -0.5252  0.2913  0.5307
46368SOL     OW45708  11.513   0.107   7.577 -1.0313 -0.4150 -0.4063
46368SOL    HW145709  11.485   0.017   7.588 -1.5495 -0.3322 -0.9915
46368SOL    HW245710  11.609   0.102   7.571 -1.0529 -0.9066 -0.3165
46369SOL     OW45711  10.245   6.452   6.904  0.4350 -0.3744 -0.1061
46369SOL    HW145712  10.301   6.395   6.957 -0.0425  0.0824  0.9065
46369SOL    HW245713  10.192   6.499   6.967 -0.9180 -0.5977 -1.0331
46370SOL     OW45714   4.015   9.018  11.958  0.0856  0.2215 -0.6030
46370SOL    HW145715   4.076   9.034  11.886  1.3112  2.4336  0.8183
46370SOL    HW245716   4.068   9.027  12.037 -1.7345  0.4039  0.6599
46371SOL     OW45717  12.669   8.676   8.599 -0.3892 -0.4282  0.0112
46371SOL    HW145718  12.724   8.728   8.540 -0.9692 -1.6808 -1.7177
46371SOL    HW245719  12.643   8.600   8.547 -1.4886 -1.2694  1.6934
46372SOL     OW45720   2.611   9.027   6.430 -0.4293 -0.3202  0.3599
46372SOL    HW145721   2.692   9.027   6.481  0.7420 -1.2835 -1.3604
46372SOL    HW245722   2.612   8.943   6.385 -0.0082  1.3722 -3.1833
46373SOL     OW45723   4.346   8.424   5.094  0.0211  0.0009  0.0585
46373SOL    HW145724   4.300   8.502   5.063  0.8874  1.0995  1.4041
46373SOL    HW245725   4.424   8.418   5.038  0.6952  0.9784  0.8455
46374SOL     OW45726   2.148   0.885   1.894 -0.0429 -0.5436  0.0993
46374SOL    HW145727   2.187   0.798   1.887  1.2268 -0.1337  1.5764
46374SOL    HW245728   2.214   0.938   1.939 -1.3681  0.8159  0.5431
46375SOL     OW45729   7.682   7.832   8.545  0.5552 -0.2679 -0.2416
46375SOL    HW145730   7.652   7.883   8.620  0.6593 -1.2785  0.5061
46375SOL    HW245731   7.604   7.784   8.516  0.5576 -0.0124 -0.6871
46376SOL     OW45732   3.773   3.457  12.031  0.5087 -0.1428  0.5257
46376SOL    HW145733   3.801   3.548  12.025  1.9543 -0.5870  0.1094
46376SOL    HW245734   3.778   3.436  12.124 -0.1636  0.2939  0.6630
46377SOL     OW45735  11.832   6.966   6.574 -0.8222 -0.1050 -0.3364
46377SOL    HW145736  11.897   7.021   6.618 -1.4981 -0.1980  0.8483
46377SOL    HW245737  11.829   6.999   6.485  2.2898 -1.4122 -1.0566
46378SOL     OW45738   6.320   8.647   6.279 -0.1003 -0.7463 -0.2989
46378SOL    HW145739   6.278   8.562   6.267 -1.1889 -0.1717 -0.7030
46378SOL    HW245740   6.398   8.643   6.224  0.2763 -1.7418  0.2752
46379SOL     OW45741   8.296   2.432   2.184  0.0340 -0.0336  0.5370
46379SOL    HW145742   8.278   2.361   2.123  1.0667  0.0089  0.1595
46379SOL    HW245743   8.361   2.396   2.244 -0.4981  0.1361  1.2333
46380SOL     OW45744  10.346  10.148   2.701 -0.0046  0.4178  0.1123
46380SOL    HW145745  10.343  10.088   2.627  0.8467  0.7083 -0.1630
46380SOL    HW245746  10.439  10.161   2.719 -0.1439  1.9582 -0.0928
46381SOL     OW45747  11.004   1.427   0.363  0.2917  0.2980  0.1274
46381SOL    HW145748  10.970   1.485   0.295  0.3198 -0.2613 -0.3668
46381SOL    HW245749  11.097   1.420   0.343  0.2208 -0.2021 -0.0255
46382SOL     OW45750   7.738   8.068   1.377  0.2117  0.5485  0.1843
46382SOL    HW145751   7.648   8.102   1.377 -0.4889 -1.1725  0.8817
46382SOL    HW245752   7.768   8.080   1.467  0.5073  0.6853  0.0685
46383SOL     OW45753   7.586   2.383   0.414  0.5848  0.4360 -0.1109
46383SOL    HW145754   7.656   2.440   0.382 -0.0050  0.6997 -0.9350
46383SOL    HW245755   7.606   2.297   0.377  0.2002  0.6233 -0.7677
46384SOL     OW45756  12.416  12.566   0.727  0.7583 -0.2207  0.0191
46384SOL    HW145757  12.331  12.603   0.751  1.1687  1.0259 -0.3967
46384SOL    HW245758  12.402  12.529   0.640  0.3048 -1.2182  0.5034
46385SOL     OW45759   3.513   9.680   3.783 -0.5148  0.9164  0.1988
46385SOL    HW145760   3.430   9.635   3.767 -0.1417  0.7383 -1.3792
46385SOL    HW245761   3.510   9.757   3.726  1.1427 -0.0660 -1.3159
46386SOL     OW45762   0.450   9.406   2.787 -0.1504 -0.2145 -0.0511
46386SOL    HW145763   0.501   9.411   2.706 -0.6113 -0.9535 -0.3930
46386SOL    HW245764   0.507   9.446   2.853  0.5756 -0.3666 -0.5719
46387SOL     OW45765   4.664   1.666   0.394  0.1131 -0.5908 -0.1864
46387SOL    HW145766   4.759   1.654   0.388 -0.0579 -1.2937 -1.9889
46387SOL    HW245767   4.635   1.676   0.304 -1.4680  0.3084  0.3839
46388SOL     OW45768   3.369   5.473   2.643  0.3924 -0.3025  0.9093
46388SOL    HW145769   3.283   5.513   2.653  0.5702  0.0669  0.9547
46388SOL    HW245770   3.350   5.382   2.621 -0.0123 -0.4807  1.9232
46389SOL     OW45771   0.968   8.798   1.279  0.2656  0.3117 -0.0446
46389SOL    HW145772   0.892   8.851   1.304 -0.3033 -0.5130  0.0288
46389SOL    HW245773   0.956   8.715   1.326  0.6527 -0.2214 -0.8648
46390SOL     OW45774   0.114   2.658   5.839 -0.0155 -0.2659  0.0916
46390SOL    HW145775   0.125   2.600   5.915 -4.1752  0.1409  1.2672
46390SOL    HW245776   0.137   2.745   5.872 -1.6753 -0.1123  0.9185
46391SOL     OW45777   1.114   8.657   1.782 -1.1328  0.5185 -0.0285
46391SOL    HW145778   1.133   8.710   1.704  1.5663  0.3130  0.3879
46391SOL    HW245779   1.131   8.567   1.754 -0.0475  0.4514  0.7716
46392SOL     OW45780  12.211  10.906   1.233 -0.0119 -0.3889  0.9033
46392SOL    HW145781  12.155  10.853   1.177 -1.4712  0.5309  1.4343
46392SOL    HW245782  12.180  10.888   1.322  0.5891  0.0823  1.2142
46393SOL     OW45783  10.448   2.413   2.620  0.1431 -0.0433  0.7027
46393SOL    HW145784  10.449   2.498   2.574  1.4907  0.0145  0.8099
46393SOL    HW245785  10.358   2.406   2.654 -0.4866  0.5578 -0.7206
46394SOL     OW45786   2.756   9.388  11.985 -0.1721  0.1805 -0.1705
46394SOL    HW145787   2.726   9.299  11.967 -0.1228 -0.4706  2.5159
46394SOL    HW245788   2.699   9.444  11.932 -2.4548 -1.3195  0.5277
46395SOL     OW45789   4.350   0.167   5.888  0.5213  0.4938  0.5464
46395SOL    HW145790   4.330   0.092   5.832  2.6333 -0.0791  0.4826
46395SOL    HW245791   4.444   0.180   5.878  0.2898  2.8361  0.9803
46396SOL     OW45792  10.727   0.154   2.987 -0.6231 -0.2060  0.5888
46396SOL    HW145793  10.636   0.173   2.964 -0.9016 -1.9392  0.0930
46396SOL    HW245794  10.725   0.144   3.082 -1.1123 -0.9641  0.5080
46397SOL     OW45795   2.249   4.356   0.411 -0.0184 -0.8836  0.2530
46397SOL    HW145796   2.176   4.362   0.473  0.4866 -0.6332  0.8279
46397SOL    HW245797   2.327   4.369   0.464  0.3951 -0.1040 -0.5306
46398SOL     OW45798   0.629   0.808   3.480  0.4382 -0.1296 -0.4605
46398SOL    HW145799   0.567   0.875   3.509  0.1299 -0.2172 -0.9185
46398SOL    HW245800   0.676   0.848   3.407  0.8438 -0.1044 -0.1883
46399SOL     OW45801   0.187  10.596   2.844  0.1333 -0.1614 -0.6413
46399SOL    HW145802   0.226  10.683   2.854  0.6040 -0.5204  0.9055
46399SOL    HW245803   0.258  10.535   2.865 -0.9294 -0.8490  1.2158
46400SOL     OW45804   0.626   8.973  11.509  0.0124  0.4349  0.0185
46400SOL    HW145805   0.650   8.954  11.418  1.6291  1.1118  0.2733
46400SOL    HW245806   0.534   9.000  11.503 -0.2099 -0.4805 -1.2698
46401SOL     OW45807   1.843   5.094   7.517  0.3686  0.1325  0.4836
46401SOL    HW145808   1.936   5.071   7.516  0.1676 -0.7906  1.9607
46401SOL    HW245809   1.801   5.025   7.466  0.6917  1.7630 -2.2008
46402SOL     OW45810  10.425   2.095  11.481 -0.5437 -0.2827 -0.1361
46402SOL    HW145811  10.330   2.094  11.485 -0.5071 -1.6414  1.1725
46402SOL    HW245812  10.446   2.166  11.420 -2.3608  0.4090 -0.0025
46403SOL     OW45813   0.191   0.082   7.226 -0.8521 -0.1774  0.4089
46403SOL    HW145814   0.113   0.089   7.170 -1.6108 -0.1075  1.4559
46403SOL    HW245815   0.176   0.145   7.297  0.2452 -0.0338  0.5340
46404SOL     OW45816   8.977   2.244   3.619 -0.4047 -0.0584 -0.0001
46404SOL    HW145817   9.017   2.306   3.680  1.0402  1.4975 -2.3990
46404SOL    HW245818   8.909   2.200   3.671 -0.7993  2.7550  2.1067
46405SOL     OW45819   7.524   1.048   2.105  0.5215 -0.4130  0.2191
46405SOL    HW145820   7.442   1.061   2.058  0.9037  1.0708 -0.0689
46405SOL    HW245821   7.504   1.071   2.196  0.6355  0.0406  0.1312
46406SOL     OW45822  11.971  12.427   1.155 -0.4099  0.0723  0.3942
46406SOL    HW145823  11.909  12.466   1.216  0.5649 -1.5240  2.5516
46406SOL    HW245824  11.936  12.340   1.136  1.7784 -1.5639  3.0049
46407SOL     OW45825   9.143   3.060   9.388  0.3177 -0.0819 -0.2238
46407SOL    HW145826   9.192   2.984   9.418  1.5450  0.7359 -0.0859
46407SOL    HW245827   9.194   3.135   9.419 -0.1330  0.7959 -1.5376
46408SOL     OW45828   8.200   1.236  12.473 -0.0525  0.7675 -0.3025
46408SOL    HW145829   8.113   1.256  12.509 -1.5429 -0.5689 -2.8417
46408SOL    HW245830   8.182   1.179  12.399  3.1094 -0.0942 -0.5354
46409SOL     OW45831   8.000  11.188   7.831  0.0702  0.0802 -0.2912
46409SOL    HW145832   7.949  11.124   7.881 -0.2611  1.5358  1.3371
46409SOL    HW245833   7.934  11.246   7.792  0.4060  0.8475  0.2573
46410SOL     OW45834   8.343   4.948   4.675 -0.3489 -0.0283  0.6376
46410SOL    HW145835   8.352   4.860   4.712 -0.5175 -0.1276  0.4450
46410SOL    HW245836   8.407   4.951   4.604 -0.2075  0.0717  0.7695
46411SOL     OW45837   6.619   0.356   9.207 -0.2731 -0.5888  0.0062
46411SOL    HW145838   6.630   0.395   9.294 -1.6654  0.9019 -0.4501
46411SOL    HW245839   6.693   0.388   9.157 -1.3527  1.5456 -0.3416
46412SOL     OW45840   8.352   3.096   2.040  0.0640 -0.4258 -0.1710
46412SOL    HW145841   8.278   3.156   2.033  0.9206  0.5534 -1.3050
46412SOL    HW245842   8.313   3.014   2.071 -1.0548  0.8134  1.9111
46413SOL     OW45843   3.764   5.487   1.641  0.0337  0.4352  0.0734
46413SOL    HW145844   3.752   5.469   1.734  0.2030  0.6181  0.1326
46413SOL    HW245845   3.859   5.496   1.630 -0.0044  0.6860 -0.0643
46414SOL     OW45846   2.900  10.557  12.454 -0.2450  0.3322 -0.0977
46414SOL    HW145847   2.856  10.498  12.515  0.7539 -0.5541 -0.2060
46414SOL    HW245848   2.906  10.507  12.372  1.1334  0.3520 -0.0273
46415SOL     OW45849   6.534   0.961   6.971  0.3664 -0.1957  0.0900
46415SOL    HW145850   6.521   0.869   6.994 -1.2744 -0.2768 -1.0355
46415SOL    HW245851   6.628   0.969   6.956  0.7079 -1.3801  1.3654
46416SOL     OW45852  12.419  12.662   6.668 -0.3718 -0.3270 -0.2218
46416SOL    HW145853  12.347  12.666   6.605 -0.8142 -0.4927  0.2674
46416SOL    HW245854  12.496  12.639   6.615 -0.5705  0.3637 -0.8261
46417SOL     OW45855   5.833   8.691   3.978  0.5417  0.2313 -0.7682
46417SOL    HW145856   5.882   8.609   3.987 -0.0868 -0.1472 -0.7783
46417SOL    HW245857   5.773   8.692   4.052  0.0217  0.3156 -1.1835
46418SOL     OW45858  11.582   8.429   4.951 -0.3579 -0.8669 -0.6589
46418SOL    HW145859  11.487   8.420   4.939 -0.6081 -0.6173  0.8289
46418SOL    HW245860  11.592   8.513   4.997  0.4581 -1.4611  0.2988
46419SOL     OW45861  10.438   8.681   3.825 -0.2859 -0.0187 -0.3658
46419SOL    HW145862  10.353   8.723   3.841 -0.4380 -0.5456  0.2978
46419SOL    HW245863  10.487   8.696   3.906  0.6785  1.2411 -1.1635
46420SOL     OW45864  12.313   8.021   5.460 -0.3812 -0.0417  0.7895
46420SOL    HW145865  12.402   8.044   5.484 -0.9595  1.3402  1.7189
46420SOL    HW245866  12.258   8.060   5.528 -1.7389 -0.3159 -0.0929
46421SOL     OW45867   0.209   2.871   2.952 -0.1016 -0.1872 -0.1541
46421SOL    HW145868   0.268   2.803   2.983 -2.0802 -1.6519  0.6339
46421SOL    HW245869   0.160   2.899   3.030 -2.4202 -1.1123 -1.1714
46422SOL     OW45870  11.856   1.517   2.130 -0.3876 -0.2712  0.4473
46422SOL    HW145871  11.893   1.508   2.218 -1.2355  0.0895  0.8477
46422SOL    HW245872  11.833   1.610   2.123 -2.2394 -0.6878  0.6269
46423SOL     OW45873  11.023   6.199   1.591 -0.3864 -0.3270  0.2702
46423SOL    HW145874  10.944   6.150   1.570 -1.1140  0.1252  1.7899
46423SOL    HW245875  11.014   6.281   1.543  0.6460 -1.4279 -1.9637
46424SOL     OW45876   6.110   1.696   8.870  0.1594 -0.2039 -0.0609
46424SOL    HW145877   6.081   1.786   8.854  1.1254  0.4449  1.6398
46424SOL    HW245878   6.028   1.645   8.876 -0.3690  0.2967 -2.2083
46425SOL     OW45879   8.270   3.869  11.372 -0.3839 -0.1616 -0.0403
46425SOL    HW145880   8.221   3.873  11.289 -0.1435  0.5384 -0.1573
46425SOL    HW245881   8.325   3.792  11.364  0.1246  0.2705 -0.8141
46426SOL     OW45882   1.424   9.216   8.975 -0.1606 -0.0320  0.1999
46426SOL    HW145883   1.365   9.161   8.925 -0.0420  0.7157 -0.8133
46426SOL    HW245884   1.435   9.294   8.921  3.1034 -0.8430 -0.5122
46427SOL     OW45885   2.539   2.196  12.011 -0.2459 -0.7710  0.3315
46427SOL    HW145886   2.460   2.229  11.968 -0.7623 -1.8812  0.4111
46427SOL    HW245887   2.590   2.156  11.941  1.0869  1.4127 -0.0380
46428SOL     OW45888   2.198  10.323   2.511 -0.1138 -0.5495 -0.4281
46428SOL    HW145889   2.137  10.260   2.550 -1.4860  2.1299  2.2162
46428SOL    HW245890   2.268  10.332   2.575 -0.1800  0.8489 -0.5111
46429SOL     OW45891   4.513   1.054   7.008 -0.0653 -0.6408  0.1433
46429SOL    HW145892   4.559   1.137   7.003  0.1408 -0.4383  3.5510
46429SOL    HW245893   4.446   1.066   7.075 -2.1944 -2.3119 -1.5046
46430SOL     OW45894   9.673  12.000   5.652 -0.2329 -0.5376  0.3534
46430SOL    HW145895   9.582  11.975   5.640 -0.2393 -0.4756  0.2726
46430SOL    HW245896   9.690  11.984   5.745 -1.0430  1.8182  0.9599
46431SOL     OW45897   1.749   8.007  11.952  0.0681 -0.0442  0.0120
46431SOL    HW145898   1.740   8.023  11.858  0.2200  0.2916  0.0544
46431SOL    HW245899   1.712   8.085  11.993  0.8649  0.2333  0.2202
46432SOL     OW45900   7.805   4.910   3.393 -0.1184  0.0042  0.2275
46432SOL    HW145901   7.843   4.885   3.309 -0.8365 -1.8366  0.3980
46432SOL    HW245902   7.790   4.827   3.438 -1.6186  0.8304  1.3452
46433SOL     OW45903   2.205   3.933   9.729 -0.3723 -0.6347  0.2569
46433SOL    HW145904   2.208   3.977   9.644  0.2852 -4.4116 -1.8718
46433SOL    HW245905   2.296   3.928   9.757 -0.3100 -1.6380 -0.1054
46434SOL     OW45906   0.880   7.619  11.545 -0.2673  0.1870 -0.2164
46434SOL    HW145907   0.932   7.608  11.465 -1.9507 -0.3580 -1.2993
46434SOL    HW245908   0.864   7.713  11.551  1.2748  0.4299  0.4481
46435SOL     OW45909   5.582   7.483   1.296  0.6646  0.6932 -0.0967
46435SOL    HW145910   5.670   7.520   1.303  0.9546 -0.2138  1.5597
46435SOL    HW245911   5.591   7.410   1.235  0.4356  2.2614 -2.0929
46436SOL     OW45912   6.691   4.908   9.363 -0.2617  0.2292 -0.2227
46436SOL    HW145913   6.661   4.989   9.322  1.1484  1.4740  1.0556
46436SOL    HW245914   6.724   4.936   9.449 -0.4228 -1.8272  0.5478
46437SOL     OW45915   8.022   0.594   9.285 -0.4877 -0.3896  0.0117
46437SOL    HW145916   7.984   0.677   9.257  0.0506 -0.4332 -0.9135
46437SOL    HW245917   8.060   0.612   9.371 -0.1629  0.3911 -0.2891
46438SOL     OW45918   5.075   1.209  11.121 -0.5413  0.3592  0.2014
46438SOL    HW145919   5.051   1.225  11.212 -0.4251  0.2162  0.2592
46438SOL    HW245920   5.066   1.114  11.111  0.5424  0.2304  0.3844
46439SOL     OW45921   9.179   4.145   5.561  0.4021 -0.0548  0.2281
46439SOL    HW145922   9.265   4.102   5.567  0.4905 -0.0464 -0.7875
46439SOL    HW245923   9.117   4.074   5.550  0.2393 -0.0744  1.1694
46440SOL     OW45924  12.101   8.174   4.474  0.5241 -0.2838 -0.1880
46440SOL    HW145925  12.038   8.126   4.420  0.5987  0.3394 -0.8378
46440SOL    HW245926  12.186   8.152   4.437  0.8189 -1.9537  1.3236
46441SOL     OW45927   7.973   7.788   8.300 -0.5788  0.5633  0.4726
46441SOL    HW145928   7.880   7.799   8.277 -0.1239 -0.4090 -2.2241
46441SOL    HW245929   8.000   7.710   8.251  1.4247  0.1723  2.0888
46442SOL     OW45930  12.463   0.215  12.241  0.0033 -0.1116 -0.2634
46442SOL    HW145931  12.390   0.153  12.243 -0.6035  0.6190  0.4124
46442SOL    HW245932  12.427   0.295  12.204  0.2697  0.4732  0.6917
46443SOL     OW45933   5.224   2.122  12.412 -0.1456 -0.0629 -0.4048
46443SOL    HW145934   5.194   2.056  12.350 -2.6213 -0.8898  1.5224
46443SOL    HW245935   5.290   2.078  12.465 -0.8125 -0.5993 -0.0026
46444SOL     OW45936  12.099   2.367   0.710 -0.4786 -0.2176  0.5651
46444SOL    HW145937  12.175   2.424   0.719 -0.0564 -0.7428  0.3653
46444SOL    HW245938  12.057   2.396   0.628 -1.1364  0.8040  1.2248
46445SOL     OW45939  11.899   3.883  10.518  0.0405  0.5804  0.7159
46445SOL    HW145940  11.872   3.972  10.500  0.6674  0.5140 -0.6803
46445SOL    HW245941  11.985   3.875  10.477  0.2350 -0.5025  1.2889
46446SOL     OW45942   5.980   2.410  11.646  0.0831  0.2011  0.1937
46446SOL    HW145943   5.988   2.417  11.741 -0.0241 -0.0208  0.2210
46446SOL    HW245944   5.981   2.315  11.630 -5.3092 -0.1910  0.4564
46447SOL     OW45945  12.285  12.388   9.133 -0.0332  0.2627 -0.0298
46447SOL    HW145946  12.237  12.388   9.215 -2.6574 -0.7165 -1.4468
46447SOL    HW245947  12.309  12.296   9.119  1.1715  0.5460  0.0070
46448SOL     OW45948   0.793   1.677   0.775  0.2093 -0.0388  0.2423
46448SOL    HW145949   0.765   1.702   0.863  1.7783 -0.8918  1.0221
46448SOL    HW245950   0.803   1.760   0.728 -1.1625  0.3965  0.6610
46449SOL     OW45951   5.861   3.271  10.907 -0.2857 -0.3574 -0.1096
46449SOL    HW145952   5.928   3.320  10.955  0.9993 -2.2072  0.1078
46449SOL    HW245953   5.823   3.334  10.847  0.3545  1.2104  1.0763
46450SOL     OW45954  12.578   2.799  11.786  0.0264 -0.4561 -0.0917
46450SOL    HW145955  12.528   2.718  11.795 -0.2329 -0.1060  2.5487
46450SOL    HW245956  12.535   2.861  11.846  2.6474  0.3053  1.1725
46451SOL     OW45957   6.842   7.231   7.562  0.4419  0.2796  0.0056
46451SOL    HW145958   6.802   7.303   7.514 -0.4260 -1.1155 -1.4664
46451SOL    HW245959   6.827   7.154   7.507  2.2285 -0.8693  1.0296
46452SOL     OW45960   6.308   1.955   0.622  0.3934 -0.2602  0.5124
46452SOL    HW145961   6.275   1.963   0.712  0.6517  0.3184  0.5610
46452SOL    HW245962   6.319   2.046   0.593  0.9488 -0.4511  0.1313
46453SOL     OW45963   1.773   0.822   1.696  0.3961 -0.3333  0.3189
46453SOL    HW145964   1.821   0.816   1.779  0.7923 -0.5427  0.0764
46453SOL    HW245965   1.704   0.756   1.703 -1.1480  1.3200  1.4969
46454SOL     OW45966   4.733   8.031   8.532 -0.2818 -0.6258  0.3788
46454SOL    HW145967   4.797   8.092   8.569  0.1635  0.1303 -1.5005
46454SOL    HW245968   4.650   8.078   8.536 -0.2527 -0.5808  0.4681
46455SOL     OW45969   4.366   9.625  11.165  0.9628 -0.1084 -0.3889
46455SOL    HW145970   4.379   9.531  11.167 -2.3761 -0.6632 -0.0326
46455SOL    HW245971   4.423   9.659  11.234  1.5618 -1.9537  0.0626
46456SOL     OW45972   6.911   8.217   4.076  0.2731  0.0381  0.2744
46456SOL    HW145973   6.821   8.192   4.098 -0.4602  2.4196  0.2953
46456SOL    HW245974   6.958   8.134   4.065 -1.5348 -1.2516  1.8180
46457SOL     OW45975   8.512   0.628   7.605 -0.4404 -0.1739 -0.6340
46457SOL    HW145976   8.434   0.683   7.610 -1.0732 -1.1602  1.2539
46457SOL    HW245977   8.480   0.539   7.622  0.9906 -0.6936 -0.4904
46458SOL     OW45978  11.286  12.573   2.113  0.2839 -0.3220  0.2384
46458SOL    HW145979  11.240  12.493   2.136  0.6397 -0.3334  0.9426
46458SOL    HW245980  11.263  12.589   2.021 -2.0818  0.3418  0.8800
46459SOL     OW45981   0.795   4.535   4.346  0.1404  0.1635 -0.1482
46459SOL    HW145982   0.813   4.619   4.302  2.7255 -0.4597 -0.4486
46459SOL    HW245983   0.786   4.558   4.439  0.8855  0.7813 -0.2185
46460SOL     OW45984  11.312  11.538   9.889 -0.9689  0.0441 -0.8154
46460SOL    HW145985  11.239  11.493   9.846 -1.6389 -1.1938  1.4905
46460SOL    HW245986  11.387  11.519   9.832 -1.5951 -2.4520 -0.9297
46461SOL     OW45987  11.144   8.053   8.763  0.0412 -0.3416  0.3888
46461SOL    HW145988  11.097   8.063   8.680  0.8577 -0.8423 -0.1437
46461SOL    HW245989  11.118   8.130   8.814 -1.3858 -0.6225  0.1354
46462SOL     OW45990   4.853   6.374   3.407  0.2606 -0.5969  0.3069
46462SOL    HW145991   4.839   6.467   3.391  1.0329 -0.6809 -0.9441
46462SOL    HW245992   4.770   6.333   3.384  0.0094 -0.2621  0.5939
46463SOL     OW45993   0.744   3.433  11.862  0.5355  0.4080 -0.3409
46463SOL    HW145994   0.694   3.514  11.866  0.2593  0.2644 -0.7763
46463SOL    HW245995   0.683   3.366  11.894  0.7172  0.3521 -0.1089
46464SOL     OW45996  11.265   3.458   0.865  0.0814 -0.1961 -0.5976
46464SOL    HW145997  11.322   3.493   0.933  0.7823 -0.6295 -0.9513
46464SOL    HW245998  11.184   3.510   0.872  0.3092  0.0522  0.2639
46465SOL     OW45999   1.421  11.136  11.642  0.4079 -0.3139  0.3865
46465SOL    HW146000   1.344  11.187  11.619  0.3937 -0.9368 -1.0221
46465SOL    HW246001   1.387  11.057  11.683  0.2680 -0.6747 -0.4051
46466SOL     OW46002  12.342  10.704   1.014 -0.3454 -0.3229  0.2909
46466SOL    HW146003  12.320  10.797   1.003 -0.8414 -0.6155 -1.4275
46466SOL    HW246004  12.260  10.663   1.042 -0.5786 -0.4919 -0.5945
46467SOL     OW46005   0.841   7.783  12.495  0.1956 -0.0159 -0.1272
46467SOL    HW146006   0.784   7.850  12.534  1.0331 -0.5495  2.2189
46467SOL    HW246007   0.930   7.815  12.511  0.5921 -0.5433 -1.1840
46468SOL     OW46008  10.129   1.712   5.032 -0.3210  0.0104 -0.2164
46468SOL    HW146009  10.152   1.619   5.021  1.4619  0.1848  1.5190
46468SOL    HW246010  10.156   1.752   4.950  2.2051 -0.4875  0.2768
46469SOL     OW46011   8.026   1.896   8.563 -0.2756  0.4717  0.0332
46469SOL    HW146012   8.095   1.927   8.622  0.0531  1.6762 -0.9318
46469SOL    HW246013   8.059   1.917   8.475 -0.3601 -2.0564 -0.6819
46470SOL     OW46014  10.695  10.227   3.067 -0.1811 -0.6247 -0.1387
46470SOL    HW146015  10.715  10.138   3.096  2.3509  0.1145  0.6334
46470SOL    HW246016  10.659  10.270   3.145  0.6758 -0.3940  0.1436
46471SOL     OW46017  12.061   4.899   1.370 -0.0976 -0.3072 -0.6091
46471SOL    HW146018  12.041   4.821   1.421 -0.7617 -0.6202 -1.3308
46471SOL    HW246019  11.976   4.941   1.355  0.1966  0.2894 -0.6483
46472SOL     OW46020   0.518   7.450   6.160  0.6248 -0.2549  0.0626
46472SOL    HW146021   0.611   7.467   6.142  2.2803 -5.6608  1.6447
46472SOL    HW246022   0.504   7.485   6.248  0.9762  0.9811 -0.3525
46473SOL     OW46023  12.473   7.561   5.726 -0.4159 -0.3748  0.5885
46473SOL    HW146024  12.567   7.547   5.714  0.1217  2.1385  1.2457
46473SOL    HW246025  12.446   7.492   5.787  1.1104 -0.8256  0.7974
46474SOL     OW46026   3.501   3.692   6.052 -0.8960  0.1264 -0.1659
46474SOL    HW146027   3.531   3.656   6.136  0.3062 -0.4243 -0.8034
46474SOL    HW246028   3.422   3.642   6.031 -0.1634 -1.0252 -0.2427
46475SOL     OW46029  10.707  11.355   3.224  0.1524  0.4543  0.2687
46475SOL    HW146030  10.709  11.262   3.246 -0.0521  0.3621 -0.0960
46475SOL    HW246031  10.756  11.397   3.294 -0.5461  0.1741  0.9340
46476SOL     OW46032   8.458   8.604   8.411 -0.3890  0.1307 -0.1357
46476SOL    HW146033   8.531   8.543   8.406 -0.0837  0.4614  0.2012
46476SOL    HW246034   8.490   8.676   8.466 -1.4479 -0.3856  1.2211
46477SOL     OW46035  12.026  11.858  12.374 -0.0802 -0.2488 -0.5227
46477SOL    HW146036  11.948  11.831  12.423 -0.5319  0.5569 -0.7672
46477SOL    HW246037  12.037  11.791  12.306 -0.0937 -0.7846 -0.0007
46478SOL     OW46038   5.514   0.456   1.942  0.4661 -0.3179 -0.4353
46478SOL    HW146039   5.458   0.472   1.866 -0.8684 -0.1582  0.5432
46478SOL    HW246040   5.517   0.361   1.950  0.6815 -0.3372 -0.7286
46479SOL     OW46041   5.988   9.445   5.089 -0.1150 -0.6339 -0.5936
46479SOL    HW146042   6.079   9.429   5.116 -0.4535 -1.6372  0.0050
46479SOL    HW246043   5.946   9.481   5.167 -0.5360 -1.3650 -0.4779
46480SOL     OW46044   9.666   4.604   1.968 -0.4638  0.6565 -0.4740
46480SOL    HW146045   9.728   4.676   1.964  0.3315  0.0043 -0.2947
46480SOL    HW246046   9.580   4.645   1.975 -0.0224  1.5734 -0.4074
46481SOL     OW46047   4.902  10.037  10.771 -0.4984  0.1391  0.5400
46481SOL    HW146048   4.827  10.025  10.830 -1.5754  2.2481 -0.2903
46481SOL    HW246049   4.907   9.955  10.722 -1.8207 -0.3214  1.1231
46482SOL     OW46050  12.778   1.743   5.825  0.5999  0.3039 -0.3120
46482SOL    HW146051  12.745   1.780   5.743 -1.5266 -1.3128 -0.2504
46482SOL    HW246052  12.718   1.774   5.892  0.1388 -1.3173  0.0661
46483SOL     OW46053   2.033   6.103   1.366  0.6659  0.4712 -0.1964
46483SOL    HW146054   1.962   6.114   1.430  1.1971  0.3742  0.4113
46483SOL    HW246055   2.100   6.165   1.393  0.5842  0.9872 -1.1250
46484SOL     OW46056  10.408  10.090  10.311 -0.3381  0.8193 -0.0276
46484SOL    HW146057  10.389  10.136  10.392  0.7904  1.2863 -0.0069
46484SOL    HW246058  10.355  10.135  10.245  0.5316  2.0010  0.0386
46485SOL     OW46059   4.234   0.545   7.608 -0.3114  0.2735 -0.1201
46485SOL    HW146060   4.274   0.458   7.614 -0.2277  0.1181 -2.1552
46485SOL    HW246061   4.201   0.550   7.518 -0.9764  2.0659  0.1856
46486SOL     OW46062   0.054   8.871   2.128 -0.4117 -0.2249 -0.3294
46486SOL    HW146063   0.146   8.891   2.110 -0.4873 -0.0292 -0.5028
46486SOL    HW246064   0.057   8.801   2.194 -0.0966 -2.5761 -2.6740
46487SOL     OW46065   9.897   3.153   2.516  0.1291  0.5575  0.2838
46487SOL    HW146066   9.900   3.143   2.611 -0.1700  0.5611  0.2966
46487SOL    HW246067   9.819   3.104   2.489  1.0807 -0.7970 -0.1424
46488SOL     OW46068   1.895   6.176   2.398 -0.0517 -0.6971  0.3413
46488SOL    HW146069   1.814   6.227   2.402 -0.1284 -0.8414  0.7690
46488SOL    HW246070   1.870   6.094   2.356  0.1530 -0.2395 -0.6864
46489SOL     OW46071   5.544  12.416   0.275 -0.1923 -0.1041  1.2010
46489SOL    HW146072   5.451  12.393   0.273 -0.4779  0.6664  3.3450
46489SOL    HW246073   5.552  12.480   0.346  1.2469  3.2971 -1.7445
46490SOL     OW46074   9.653   7.400   8.391 -0.5879 -0.0218  0.4651
46490SOL    HW146075   9.651   7.358   8.305 -1.4781 -0.8471  0.8672
46490SOL    HW246076   9.695   7.336   8.449 -2.1593 -0.5065  1.1300
46491SOL     OW46077   7.348   9.468   6.100  0.0161 -0.2248  0.9374
46491SOL    HW146078   7.432   9.436   6.131  0.5248  0.5691  0.3931
46491SOL    HW246079   7.293   9.470   6.179  0.2273 -1.5541  1.1480
46492SOL     OW46080  11.201   2.316  11.608  0.9158  1.4201  0.4784
46492SOL    HW146081  11.212   2.336  11.515 -0.2520  1.6299  0.3618
46492SOL    HW246082  11.282   2.346  11.649  2.4967 -0.8468 -0.7643
46493SOL     OW46083   1.093   1.030  12.340 -0.4481 -0.3497 -0.4108
46493SOL    HW146084   1.127   1.119  12.348  0.2096 -0.7017  0.8118
46493SOL    HW246085   1.170   0.974  12.340 -0.8520 -0.9348 -1.2974
46494SOL     OW46086   5.167   1.377   9.658  0.0365  0.5251  0.3430
46494SOL    HW146087   5.235   1.432   9.696  0.9366 -0.0099 -0.4341
46494SOL    HW246088   5.212   1.328   9.589 -1.1200  0.0874 -0.1306
46495SOL     OW46089   6.665   9.780   2.069  0.0851  0.9494  0.5693
46495SOL    HW146090   6.631   9.697   2.101 -1.5271  1.0283 -0.7497
46495SOL    HW246091   6.671   9.835   2.147  1.5010 -0.4594  1.5146
46496SOL     OW46092   1.774   7.152   8.641  1.0806 -0.7203 -0.2671
46496SOL    HW146093   1.731   7.216   8.698  0.0918 -1.9875  0.4544
46496SOL    HW246094   1.749   7.067   8.677  3.1266 -1.5323 -0.6454
46497SOL     OW46095   6.038  12.055   4.604 -0.0366 -0.5484 -0.1370
46497SOL    HW146096   5.965  12.003   4.570  0.6606 -2.3836  0.9614
46497SOL    HW246097   6.046  12.027   4.696  0.6839  1.2195  0.3776
46498SOL     OW46098   1.886   6.345   0.858  0.0377 -0.2407  0.4543
46498SOL    HW146099   1.935   6.269   0.890 -0.6541 -0.4772  0.9790
46498SOL    HW246100   1.892   6.409   0.929 -0.8105 -0.4562  0.7332
46499SOL     OW46101   4.753   4.372   7.268  0.6520 -0.5161  0.4813
46499SOL    HW146102   4.801   4.453   7.282 -1.2901  0.6762  0.5964
46499SOL    HW246103   4.803   4.306   7.316  0.8760  1.1058  2.6550
46500SOL     OW46104   4.838   5.993   4.750  0.8466 -0.0809  0.4700
46500SOL    HW146105   4.822   5.899   4.766  1.2027 -0.0422  1.0573
46500SOL    HW246106   4.778   6.038   4.810 -1.6735  0.1191 -2.0005
46501SOL     OW46107   3.604   1.142   7.182  0.4035  0.7704  0.1419
46501SOL    HW146108   3.622   1.086   7.257 -0.9358  1.5215  1.0700
46501SOL    HW246109   3.508   1.140   7.173  0.4991  1.2269 -1.1241
46502SOL     OW46110   6.480   7.613   3.825 -0.3486 -0.6634 -0.4577
46502SOL    HW146111   6.519   7.697   3.801 -1.8517  0.8340  1.9397
46502SOL    HW246112   6.554   7.561   3.856  0.4824  0.1276 -1.0557
46503SOL     OW46113  11.199   3.468  10.846  0.2010 -0.6446 -0.4288
46503SOL    HW146114  11.172   3.388  10.803 -0.4789 -0.3837 -0.4959
46503SOL    HW246115  11.117   3.515  10.864  0.6232  0.3377 -0.9893
46504SOL     OW46116   1.142   1.896   4.209  0.2344  0.7835  0.1443
46504SOL    HW146117   1.160   1.963   4.143 -1.3675  1.2411  0.1248
46504SOL    HW246118   1.054   1.916   4.240  0.2451 -0.5249  1.1210
46505SOL     OW46119   4.565   4.438  11.397  0.0615  0.1267 -0.4065
46505SOL    HW146120   4.581   4.427  11.303 -0.1102 -2.7840 -0.2015
46505SOL    HW246121   4.644   4.405  11.439 -0.6046 -0.4214  0.4603
46506SOL     OW46122   7.547   8.486  11.492 -0.5372 -0.5541 -0.2431
46506SOL    HW146123   7.585   8.398  11.491 -1.0459 -0.7772 -0.1149
46506SOL    HW246124   7.522   8.502  11.401  0.8466  0.0350 -0.5468
46507SOL     OW46125   9.413  11.462   2.062  0.7350  0.1458 -0.1830
46507SOL    HW146126   9.493  11.420   2.093  0.5372  1.0519  1.6771
46507SOL    HW246127   9.437  11.554   2.049  0.1783  0.2825 -0.2831
46508SOL     OW46128   1.901   0.800   1.046  0.2916  0.1952 -0.0829
46508SOL    HW146129   1.847   0.787   1.124  1.5395  1.5168  1.0648
46508SOL    HW246130   1.912   0.894   1.039  0.8949  0.0555 -1.3910
46509SOL     OW46131   5.177   1.097   3.522  0.3108 -0.6635  0.5083
46509SOL    HW146132   5.266   1.109   3.490  0.6277 -2.8401  0.3875
46509SOL    HW246133   5.179   1.013   3.568 -1.5352 -0.4627  1.0567
46510SOL     OW46134   3.200   0.209  10.040  0.4695 -0.3935  0.4943
46510SOL    HW146135   3.281   0.190  10.087 -0.6127 -1.5434  2.0210
46510SOL    HW246136   3.210   0.165   9.956  1.1259 -1.2138  0.9810
46511SOL     OW46137  10.740   5.715   9.078  0.0986  0.2060  0.4554
46511SOL    HW146138  10.696   5.795   9.106 -0.6753  0.0865 -0.3858
46511SOL    HW246139  10.786   5.740   8.997  1.0849  0.1682  0.9867
46512SOL     OW46140  10.451  11.319  10.146 -0.2333  0.4585 -0.5416
46512SOL    HW146141  10.379  11.301  10.206 -0.3428  0.3481 -0.7059
46512SOL    HW246142  10.423  11.399  10.100 -1.0557 -0.5499 -1.8536
46513SOL     OW46143  12.320   8.252  12.522 -0.4849 -0.1091  0.2876
46513SOL    HW146144  12.312   8.259  12.427  1.2614 -0.3242  0.1028
46513SOL    HW246145  12.229   8.246  12.553 -1.2809  2.7781 -1.1209
46514SOL     OW46146   2.557  12.488   2.443  0.0701  0.3340 -0.2969
46514SOL    HW146147   2.592  12.428   2.376  0.3805  1.0274 -0.7710
46514SOL    HW246148   2.535  12.432   2.517 -2.6859 -0.8450 -1.8695
46515SOL     OW46149   9.894   8.725   7.856 -0.3233 -0.3475  0.0988
46515SOL    HW146150   9.940   8.683   7.783  0.8615  1.0094  0.0223
46515SOL    HW246151   9.905   8.818   7.840 -0.9896 -0.0218  1.4356
46516SOL     OW46152   1.967  12.235   7.118  0.2025  0.2025  0.0507
46516SOL    HW146153   1.961  12.147   7.155  3.0447 -0.2922 -0.4264
46516SOL    HW246154   1.920  12.291   7.180 -1.6911 -1.6218  0.3442
46517SOL     OW46155  10.098  10.933   6.324 -0.1115 -0.1842  0.3177
46517SOL    HW146156  10.075  10.851   6.367 -0.5691  0.2028  0.8257
46517SOL    HW246157  10.120  10.908   6.234  2.9293 -1.3182  1.2447
46518SOL     OW46158  10.119   8.757   1.108  0.5768 -0.1329 -1.0607
46518SOL    HW146159  10.107   8.665   1.128  2.9421 -0.3362 -0.2762
46518SOL    HW246160  10.208   8.763   1.074  0.4914  1.8613 -1.0756
46519SOL     OW46161  11.929   4.100   4.045 -0.1301 -0.4487  0.2385
46519SOL    HW146162  11.904   4.010   4.066 -0.0085 -0.3947  0.6228
46519SOL    HW246163  11.855   4.153   4.074 -0.3988 -0.4647 -0.4110
46520SOL     OW46164   0.104   7.185   3.477  0.0628  0.5630  0.9242
46520SOL    HW146165   0.179   7.245   3.479  0.9981 -0.2243 -2.9082
46520SOL    HW246166   0.131   7.111   3.532  1.5539  0.8539  0.6304
46521SOL     OW46167  10.933  11.635   6.070 -0.4195 -0.1224 -0.0678
46521SOL    HW146168  10.992  11.643   6.145  1.2896  0.9318 -1.4763
46521SOL    HW246169  10.927  11.724   6.034 -1.4731 -0.5463 -1.0196
46522SOL     OW46170   2.529  12.395   6.221  0.1474  1.0195  0.7710
46522SOL    HW146171   2.576  12.325   6.266 -0.1724  2.0071  2.7830
46522SOL    HW246172   2.538  12.375   6.128  0.7650 -1.2050  1.2596
46523SOL     OW46173  11.810   2.340  10.675  0.0100 -0.7021  0.6742
46523SOL    HW146174  11.737   2.283  10.650 -0.1700 -0.6181  1.0040
46523SOL    HW246175  11.855   2.292  10.744  0.3347 -0.8033  0.3935
46524SOL     OW46176  12.536   6.509   2.885  0.6349 -0.1876 -0.1533
46524SOL    HW146177  12.605   6.538   2.945 -0.1997  0.8511  0.3451
46524SOL    HW246178  12.583   6.480   2.807  1.6871 -0.6142  0.6164
46525SOL     OW46179   0.999   5.337   5.511 -0.1430  0.2770  0.1822
46525SOL    HW146180   0.915   5.303   5.544  0.0764  1.2259  1.8574
46525SOL    HW246181   0.976   5.416   5.463 -0.4012 -0.7466 -1.4477
46526SOL     OW46182   4.016  12.648   4.661 -0.4752  0.5271 -0.1123
46526SOL    HW146183   4.073  12.697   4.602 -0.6112 -0.6640 -1.2714
46526SOL    HW246184   4.026  12.556   4.635 -0.2765 -0.1022  1.9473
46527SOL     OW46185   2.939   7.952   0.379  0.3974  0.1087  0.1592
46527SOL    HW146186   2.930   7.971   0.472  0.2454  1.5947 -0.1372
46527SOL    HW246187   3.030   7.975   0.359  0.7510 -1.2169  0.1415
46528SOL     OW46188   5.196   6.832   7.100  0.1290 -0.3777  0.2384
46528SOL    HW146189   5.259   6.784   7.047 -0.1144 -0.7881  0.3148
46528SOL    HW246190   5.111   6.793   7.078 -0.3860  1.4770 -1.3749
46529SOL     OW46191   1.833   0.740   8.589  0.0853  0.1023  0.4088
46529SOL    HW146192   1.889   0.701   8.656 -0.6470 -1.1812  0.2945
46529SOL    HW246193   1.764   0.676   8.574 -0.7280  1.1114 -0.3524
46530SOL     OW46194   0.249   9.222   7.900 -0.9050 -0.3517 -0.4788
46530SOL    HW146195   0.326   9.179   7.938  1.3389  1.6557 -2.4404
46530SOL    HW246196   0.198   9.150   7.863  1.4822 -1.6193 -1.5399
46531SOL     OW46197   3.000   2.894  10.417 -0.2602 -0.2012 -0.0607
46531SOL    HW146198   3.041   2.898  10.331 -0.4969 -1.5808 -0.2611
46531SOL    HW246199   2.942   2.970  10.420  1.1356  0.9361 -0.3578
46532SOL     OW46200   1.682   0.952   0.165  0.0555 -0.5441 -0.1958
46532SOL    HW146201   1.773   0.976   0.178 -0.0575  0.1357 -0.6133
46532SOL    HW246202   1.640   1.032   0.132 -0.5588 -1.0141 -0.5889
46533SOL     OW46203  12.190   7.752   2.432  0.0806  0.6853  0.3553
46533SOL    HW146204  12.115   7.715   2.479 -0.9131 -0.8550 -2.1872
46533SOL    HW246205  12.266   7.716   2.476 -0.8201 -1.3885  0.3361
46534SOL     OW46206   0.294   1.006   4.736  0.4033  0.0942  0.2374
46534SOL    HW146207   0.333   1.085   4.774 -0.6479  1.4382 -1.3469
46534SOL    HW246208   0.369   0.951   4.714  1.1284  0.2370  2.1111
46535SOL     OW46209   4.752  10.661  10.958 -0.4660 -0.1565 -0.1007
46535SOL    HW146210   4.802  10.701  10.886  1.0730  0.5563  1.2959
46535SOL    HW246211   4.813  10.600  10.998 -0.7464  0.5928  1.5361
46536SOL     OW46212   0.000  12.230  12.539 -0.2868 -0.5968  0.3589
46536SOL    HW146213   0.005  12.228  12.444 -0.0110 -1.0464  0.3822
46536SOL    HW246214   0.082  12.189  12.569 -1.0885 -1.9556  0.7738
46537SOL     OW46215   2.857  10.872   6.509 -0.1264  0.4352  0.0971
46537SOL    HW146216   2.936  10.818   6.501  0.1252  0.6936  0.7382
46537SOL    HW246217   2.888  10.962   6.500 -0.3291  0.5425  0.4485
46538SOL     OW46218   0.866  12.776   9.380  0.0327  0.0781 -0.1960
46538SOL    HW146219   0.960  12.767   9.395 -0.1124 -0.6783  0.3159
46538SOL    HW246220   0.843  12.860   9.419  0.6067  0.5843 -0.9229
46539SOL     OW46221   8.773   7.544   6.632 -0.1366  1.0330 -0.3915
46539SOL    HW146222   8.730   7.581   6.709 -2.5564 -1.3556 -0.4334
46539SOL    HW246223   8.745   7.599   6.559 -2.1053  0.3667 -0.2000
46540SOL     OW46224   6.650   4.781   9.855 -0.3928  0.1706 -0.0090
46540SOL    HW146225   6.713   4.717   9.888  0.0416  0.5373 -0.1208
46540SOL    HW246226   6.599   4.806   9.932 -0.7735 -0.5330 -0.0197
46541SOL     OW46227   7.166  12.580   5.573 -0.1696  0.0077  0.4818
46541SOL    HW146228   7.250  12.572   5.527 -2.0763 -0.9305 -3.1670
46541SOL    HW246229   7.122  12.653   5.530 -1.6863 -0.1990  1.6134
46542SOL     OW46230   4.151   6.242   2.667  0.0359  0.0032  0.3726
46542SOL    HW146231   4.116   6.212   2.583 -2.1184  0.1463  1.1322
46542SOL    HW246232   4.156   6.338   2.658 -0.4871  0.0470  0.4746
46543SOL     OW46233   2.287  10.313   3.806 -0.3119  0.2397  0.2971
46543SOL    HW146234   2.369  10.302   3.757  1.7956  2.7241  2.9471
46543SOL    HW246235   2.241  10.383   3.760 -1.0223 -1.0996 -1.1474
46544SOL     OW46236   7.181   3.064   3.651  0.6667  0.1518  0.1572
46544SOL    HW146237   7.109   3.004   3.673 -0.7353  2.3392  2.0516
46544SOL    HW246238   7.196   3.114   3.731  1.9470  2.1403 -1.2210
46545SOL     OW46239   1.557   0.179   5.364 -1.0406 -0.0627  0.9102
46545SOL    HW146240   1.549   0.228   5.445 -0.6089 -1.1324  1.6261
46545SOL    HW246241   1.598   0.096   5.390  0.3812  0.1254 -0.6042
46546SOL     OW46242   7.349   7.137  12.724  0.0598  0.0194  0.3645
46546SOL    HW146243   7.376   7.045  12.722  0.6399  0.1496  1.3246
46546SOL    HW246244   7.286   7.142  12.796  2.0165  0.8298  2.1458
46547SOL     OW46245   2.144   0.542   7.216 -0.6039 -0.6163  0.0737
46547SOL    HW146246   2.239   0.533   7.210 -0.4616  0.8503 -0.4133
46547SOL    HW246247   2.118   0.480   7.284  0.8843 -0.0601  1.2167
46548SOL     OW46248  10.891   0.750  12.146  0.0775 -0.0024  0.4463
46548SOL    HW146249  10.805   0.789  12.128 -1.3854 -2.6182  1.2031
46548SOL    HW246250  10.951   0.797  12.089 -1.6502  2.5510  0.5295
46549SOL     OW46251   7.200  10.810   3.491  0.5674  0.0729  0.5644
46549SOL    HW146252   7.188  10.733   3.436 -1.0909 -0.6763  1.9124
46549SOL    HW246253   7.282  10.794   3.538  0.2602 -0.8525  0.8002
46550SOL     OW46254   0.041   2.433  10.751 -0.0503 -0.1283 -0.3044
46550SOL    HW146255  -0.033   2.378  10.776  0.5969 -0.4981  0.8526
46550SOL    HW246256   0.053   2.494  10.823  0.3364  0.3896 -0.7937
46551SOL     OW46257   0.907  11.605   5.593  0.5719  0.4028  0.6233
46551SOL    HW146258   0.851  11.681   5.608  0.9201  0.8938 -0.4429
46551SOL    HW246259   0.931  11.611   5.501  1.4273 -0.4478  0.7737
46552SOL     OW46260   7.693   9.297   3.761 -0.0436 -0.5180  0.2135
46552SOL    HW146261   7.776   9.291   3.808 -0.6707 -1.1603  1.3105
46552SOL    HW246262   7.715   9.281   3.670  1.0970 -0.1934  0.4197
46553SOL     OW46263   1.408  11.138  11.044  0.4490 -0.2801 -0.1123
46553SOL    HW146264   1.461  11.130  11.123  0.4759 -1.1434 -0.2099
46553SOL    HW246265   1.453  11.203  10.991  0.7425 -0.1143  0.3368
46554SOL     OW46266   4.802  11.699   5.108  0.5856 -0.1744 -0.3109
46554SOL    HW146267   4.767  11.715   5.021  0.0965 -1.3935 -0.3625
46554SOL    HW246268   4.731  11.723   5.168  0.3463 -0.8134 -0.3294
46555SOL     OW46269   5.315   3.512   4.974 -0.4111  0.2047 -1.2921
46555SOL    HW146270   5.405   3.490   4.999 -0.0063 -1.0630 -3.5363
46555SOL    HW246271   5.321   3.600   4.936 -0.1779  0.2362 -1.1823
46556SOL     OW46272   2.731  10.722   9.298 -0.0457  0.1679  0.1761
46556SOL    HW146273   2.757  10.654   9.360  0.9012  1.2353  0.9883
46556SOL    HW246274   2.635  10.722   9.301 -0.0271  0.4171  1.9412
46557SOL     OW46275   2.921   8.518   2.195 -0.4572 -0.1997  0.4809
46557SOL    HW146276   2.874   8.567   2.262 -0.3076  1.2359 -0.4214
46557SOL    HW246277   2.855   8.495   2.131 -0.4499 -0.8364  0.6957
46558SOL     OW46278  10.029  10.446   9.362 -0.2731 -0.4030  0.2673
46558SOL    HW146279  10.056  10.461   9.452  0.1483 -3.1616  0.6891
46558SOL    HW246280  10.110  10.442   9.312 -0.1321 -2.8646  0.5398
46559SOL     OW46281  12.457   4.318   1.933  0.1742 -0.0147  0.5700
46559SOL    HW146282  12.466   4.224   1.922  0.5899  0.1130 -0.2615
46559SOL    HW246283  12.426   4.329   2.022  0.5510 -0.9162  0.8229
46560SOL     OW46284  10.261   7.880   4.785 -0.1150  0.4636  0.2833
46560SOL    HW146285  10.186   7.923   4.744  0.3791  1.3418  0.2909
46560SOL    HW246286  10.294   7.943   4.848  1.4004  0.6020 -0.5963
46561SOL     OW46287   5.928   5.774   8.951  0.2711  0.0382  0.2473
46561SOL    HW146288   5.988   5.844   8.928 -1.6043  1.5422 -0.3097
46561SOL    HW246289   5.930   5.715   8.875  2.1994 -0.8301  0.9108
46562SOL     OW46290   1.722   3.610   6.771  0.1099 -0.1260 -0.9087
46562SOL    HW146291   1.742   3.704   6.769 -0.3869  0.0569  0.7858
46562SOL    HW246292   1.796   3.571   6.817  0.3656 -0.6009 -1.7010
46563SOL     OW46293   4.343   3.111   8.825 -0.1995  0.0766  0.0122
46563SOL    HW146294   4.310   3.186   8.875 -0.3657  0.6281 -0.9003
46563SOL    HW246295   4.370   3.149   8.742 -0.7199 -0.9540 -0.6375
46564SOL     OW46296   7.190   4.263   0.992 -0.2681  0.2010  0.6593
46564SOL    HW146297   7.232   4.178   1.005 -1.4866 -0.5207  0.1109
46564SOL    HW246298   7.202   4.281   0.898 -2.9268 -1.0576 -0.0155
46565SOL     OW46299   4.032   8.533   1.967 -0.0988 -0.1760  0.3839
46565SOL    HW146300   4.033   8.545   2.062 -0.3169  0.4000  0.3141
46565SOL    HW246301   3.995   8.445   1.954  0.5610 -0.5230  0.8549
46566SOL     OW46302   0.853   8.808  12.508 -0.0963  0.5957 -0.2790
46566SOL    HW146303   0.817   8.722  12.527  0.7478  0.2050 -0.3910
46566SOL    HW246304   0.788   8.869  12.541  0.2097 -0.0637  1.6931
46567SOL     OW46305  10.535   5.878  11.819 -0.0506  0.2258  0.2235
46567SOL    HW146306  10.526   5.918  11.733 -1.6053  1.2937  0.8505
46567SOL    HW246307  10.523   5.950  11.881 -1.8153 -0.9858  1.3781
46568SOL     OW46308  11.492   8.234  10.469  0.5218 -0.3466  0.3200
46568SOL    HW146309  11.460   8.159  10.419  2.2883  0.2237 -1.8136
46568SOL    HW246310  11.580   8.209  10.498 -0.5080 -0.7401  3.4762
46569SOL     OW46311   0.798   9.006  10.807  0.0021  0.6514 -0.6287
46569SOL    HW146312   0.713   9.000  10.763 -0.0881  1.2301 -0.5398
46569SOL    HW246313   0.819   9.099  10.807 -0.6465  0.8659  1.7272
46570SOL     OW46314   4.369  10.027   8.902 -0.1227  0.5504 -0.0553
46570SOL    HW146315   4.311  10.019   8.977 -2.2204 -0.7354 -1.7068
46570SOL    HW246316   4.365  10.120   8.878 -2.7310  0.2917 -0.9662
46571SOL     OW46317   7.393   9.514   0.719 -0.2765 -0.5663 -0.7902
46571SOL    HW146318   7.455   9.486   0.786 -0.3712  0.4495 -0.2602
46571SOL    HW246319   7.447   9.531   0.642  0.1626  0.6416 -0.2323
46572SOL     OW46320   9.073  12.295   8.423 -0.0258  0.0273 -0.1686
46572SOL    HW146321   9.050  12.221   8.479  0.7492  0.2902  0.5141
46572SOL    HW246322   9.089  12.367   8.483 -0.6079  0.7221 -0.8197
46573SOL     OW46323   5.927   2.041   2.796  0.3079 -0.1934 -0.4974
46573SOL    HW146324   5.929   2.089   2.713 -0.3393  0.9209  0.1070
46573SOL    HW246325   6.018   2.015   2.810  0.2691 -1.2798 -2.0372
46574SOL     OW46326  11.879   3.265   6.702 -0.1361 -0.1324  0.2042
46574SOL    HW146327  11.884   3.293   6.793 -1.6287  0.0251  0.2610
46574SOL    HW246328  11.959   3.298   6.662  0.2578  0.3000  1.3195
46575SOL     OW46329   4.115  11.908   2.481  0.0234  0.5984 -0.4484
46575SOL    HW146330   4.062  11.839   2.522 -0.9760  0.1509 -2.3920
46575SOL    HW246331   4.140  11.965   2.554 -2.5331  0.4355  0.6700
46576SOL     OW46332   5.437  11.255  12.069  0.2426 -0.5131 -0.3768
46576SOL    HW146333   5.428  11.257  11.974  1.3294  1.9569 -0.5154
46576SOL    HW246334   5.532  11.260  12.084  0.0285  0.5459  0.8060
46577SOL     OW46335   9.249   6.831  10.672  0.1481 -0.0502 -0.7663
46577SOL    HW146336   9.194   6.808  10.597 -0.6525 -0.8879  0.0552
46577SOL    HW246337   9.274   6.922  10.656 -0.1847 -0.1428 -1.9337
46578SOL     OW46338   6.451   6.816   4.791 -0.7588 -0.1421 -0.6216
46578SOL    HW146339   6.447   6.748   4.723  2.0324 -2.5463  1.3568
46578SOL    HW246340   6.437   6.769   4.873  0.3509  1.8190  0.7861
46579SOL     OW46341   7.705  11.848   5.710 -0.1962  0.1892  0.1260
46579SOL    HW146342   7.668  11.761   5.726  2.0956 -1.0462 -0.6382
46579SOL    HW246343   7.659  11.880   5.632 -1.4974 -0.0473  0.7820
46580SOL     OW46344   3.115  10.484  10.696 -0.1829  0.6574 -0.0542
46580SOL    HW146345   3.147  10.419  10.633 -0.1842  0.8889 -0.2968
46580SOL    HW246346   3.033  10.516  10.657 -1.7636 -1.2746  1.4308
46581SOL     OW46347   0.622   5.230   2.340  0.0819  0.6355  0.5350
46581SOL    HW146348   0.635   5.324   2.334 -0.0250  0.5665 -2.1404
46581SOL    HW246349   0.530   5.217   2.317  0.5197 -0.1853 -0.9162
46582SOL     OW46350   2.774  10.827   5.130  0.5880  0.0766  0.1257
46582SOL    HW146351   2.856  10.819   5.081 -0.3323 -2.1626 -1.1879
46582SOL    HW246352   2.746  10.917   5.115  1.9273  0.3597 -0.8441
46583SOL     OW46353   6.788   6.902   8.425 -0.4072 -0.0168 -0.8836
46583SOL    HW146354   6.727   6.838   8.462  1.0463 -1.7691 -1.3276
46583SOL    HW246355   6.772   6.899   8.330 -2.1186  2.2943 -0.7479
46584SOL     OW46356   9.745   0.493   8.585 -0.0085  0.2133  0.4388
46584SOL    HW146357   9.677   0.554   8.614 -0.9684 -0.8826  0.5806
46584SOL    HW246358   9.804   0.484   8.660 -0.1206  0.6140  0.5725
46585SOL     OW46359   2.072   3.013   3.752  0.3992  0.0457 -0.1037
46585SOL    HW146360   2.051   2.954   3.825  1.4388 -0.5651 -0.2850
46585SOL    HW246361   2.165   2.998   3.734  0.5842  1.4339 -0.4425
46586SOL     OW46362   6.548  11.017   0.346  0.0442  0.0333 -0.9056
46586SOL    HW146363   6.540  11.049   0.436  0.0339  0.0063 -0.8970
46586SOL    HW246364   6.642  11.017   0.329  0.2399 -2.2276 -0.0733
46587SOL     OW46365  10.103   7.758   3.763 -0.5961 -0.1348 -0.2073
46587SOL    HW146366  10.086   7.760   3.669 -0.5538  1.2958 -0.2064
46587SOL    HW246367  10.142   7.843   3.782 -1.1404 -0.1728  1.2084
46588SOL     OW46368  11.529  10.230  12.371 -0.0997  0.4223  0.1705
46588SOL    HW146369  11.511  10.313  12.415  0.0454  1.7467 -2.1001
46588SOL    HW246370  11.625  10.229  12.360 -0.2668  1.1622 -1.8612
46589SOL     OW46371   1.443   0.882   0.292  0.2086  0.2153  0.3472
46589SOL    HW146372   1.456   0.802   0.344 -1.0764 -0.8928 -0.9313
46589SOL    HW246373   1.528   0.898   0.252  0.3322 -0.9355  0.0917
46590SOL     OW46374   9.043   8.417   3.943 -0.4287  0.4165 -0.4512
46590SOL    HW146375   8.965   8.383   3.899 -0.5119  0.6980 -0.5255
46590SOL    HW246376   9.033   8.512   3.939 -1.8393  0.5062  2.6630
46591SOL     OW46377   4.496  11.923   8.900  0.1550  0.2842  0.1125
46591SOL    HW146378   4.488  11.864   8.975 -2.0348  0.0702 -0.2266
46591SOL    HW246379   4.509  12.009   8.939  1.2281 -0.0907  0.6524
46592SOL     OW46380   1.567  10.530   0.633 -0.4083  0.3912  0.5521
46592SOL    HW146381   1.478  10.557   0.608 -1.1656 -1.2947  1.2836
46592SOL    HW246382   1.593  10.471   0.562 -1.0960 -1.4703  1.7795
46593SOL     OW46383  11.251  12.179   9.504  0.4969 -0.0737 -0.5286
46593SOL    HW146384  11.171  12.232   9.502 -0.2780 -1.2050 -0.2115
46593SOL    HW246385  11.222  12.090   9.484  1.4504 -0.7591  0.9086
46594SOL     OW46386   8.250   7.904   4.199  0.3450 -0.0636  0.2896
46594SOL    HW146387   8.193   7.933   4.271 -0.0927 -1.5732  0.5949
46594SOL    HW246388   8.298   7.830   4.235  2.6073  1.2082  0.0451
46595SOL     OW46389   0.498   4.258   0.374 -0.0414 -0.3330  0.7396
46595SOL    HW146390   0.412   4.296   0.357  0.7432  1.1738 -0.1083
46595SOL    HW246391   0.480   4.175   0.417 -1.8994  0.1695  1.0055
46596SOL     OW46392   6.735  10.569   1.168  0.3353  0.3523 -0.1222
46596SOL    HW146393   6.738  10.473   1.177  1.6749  0.3890 -0.1239
46596SOL    HW246394   6.822  10.599   1.192 -0.5236  1.7377  1.5037
46597SOL     OW46395   2.788  12.397  10.064 -0.5362  0.1879  0.4654
46597SOL    HW146396   2.700  12.428  10.084 -1.5386 -2.2383  0.1305
46597SOL    HW246397   2.821  12.364  10.148  0.2281  1.3859  0.6636
46598SOL     OW46398   6.570   6.139   6.436  0.0371 -0.2543 -0.1130
46598SOL    HW146399   6.511   6.169   6.505  0.5244  0.8003 -0.1357
46598SOL    HW246400   6.545   6.190   6.359  0.1907 -0.6650 -0.4400
46599SOL     OW46401   0.666  11.133   0.979 -0.2341  0.0184 -0.6841
46599SOL    HW146402   0.702  11.115   0.893 -1.0782  0.8531 -1.2454
46599SOL    HW246403   0.673  11.051   1.026  3.1353  0.3172 -0.4236
46600SOL     OW46404   6.189   2.949  11.123  0.5505  0.0075  0.4497
46600SOL    HW146405   6.270   2.914  11.086  0.4886  0.3186  0.0116
46600SOL    HW246406   6.173   3.030  11.075  0.6708  0.6292  1.4295
46601SOL     OW46407   4.157  12.109   1.586 -0.3808 -0.0319  0.0791
46601SOL    HW146408   4.089  12.121   1.651 -0.2091  2.4748 -0.1219
46601SOL    HW246409   4.112  12.074   1.509 -1.3424  1.0329  0.1490
46602SOL     OW46410  10.730   6.199  12.659 -0.6252  0.0310 -0.2983
46602SOL    HW146411  10.672   6.238  12.594 -0.7447  1.1600  0.4625
46602SOL    HW246412  10.714   6.105  12.652 -0.8395  0.1541 -1.6877
46603SOL     OW46413   2.895  11.289   3.571 -0.0241 -0.5335  0.4869
46603SOL    HW146414   2.849  11.234   3.634 -0.2723 -1.0726 -0.1623
46603SOL    HW246415   2.863  11.260   3.485  3.1193 -2.4823 -0.1843
46604SOL     OW46416   4.789   8.424   0.689 -0.1015  0.2839 -0.3150
46604SOL    HW146417   4.772   8.343   0.640 -0.7967  0.7716 -0.8993
46604SOL    HW246418   4.833   8.395   0.769  0.9263 -0.5430 -1.1560
46605SOL     OW46419  11.920   9.974   4.389  0.1042  0.6302  0.1499
46605SOL    HW146420  11.827   9.955   4.402 -0.2946  2.8674  1.0768
46605SOL    HW246421  11.965   9.905   4.438 -1.0038 -1.0043 -1.0301
46606SOL     OW46422   6.575   0.813   6.377  0.7881 -0.3099 -0.4135
46606SOL    HW146423   6.636   0.816   6.451  0.2640  1.4144 -0.0158
46606SOL    HW246424   6.488   0.811   6.416  0.5270 -2.0199 -0.9894
46607SOL     OW46425   5.086   4.813   5.266 -0.2104 -0.2956 -0.1916
46607SOL    HW146426   5.104   4.729   5.309  0.5777 -0.3289 -0.5736
46607SOL    HW246427   5.147   4.817   5.193 -1.1742  0.0059 -1.0104
46608SOL     OW46428  12.169   6.033   3.669 -0.6286  0.2536  0.4250
46608SOL    HW146429  12.172   5.951   3.718 -1.5332  1.2746  2.3204
46608SOL    HW246430  12.259   6.048   3.642 -0.1751 -0.6307  1.3767
46609SOL     OW46431   7.600   8.149   9.041  0.5279 -0.2883 -0.0562
46609SOL    HW146432   7.534   8.190   9.097  0.6886 -1.6606  1.2121
46609SOL    HW246433   7.637   8.221   8.990 -2.3788  0.4509 -1.3135
46610SOL     OW46434   2.206   9.215  10.948 -0.0703 -0.0494  0.8852
46610SOL    HW146435   2.266   9.285  10.975  1.9123 -0.7841 -1.2378
46610SOL    HW246436   2.205   9.220  10.853 -0.7988 -2.1482  0.7376
46611SOL     OW46437   8.202   0.520   4.638  0.5866  0.3235  0.1081
46611SOL    HW146438   8.226   0.577   4.711 -0.4882  1.8462 -0.6918
46611SOL    HW246439   8.107   0.508   4.647  0.7918 -1.4396  0.3039
46612SOL     OW46440  12.176   5.025   0.261  1.0521  0.4395 -0.2653
46612SOL    HW146441  12.143   5.114   0.269  0.1568  0.0550  0.5043
46612SOL    HW246442  12.249   5.032   0.199  1.8022  1.9078  0.7110
46613SOL     OW46443   6.824   4.733   1.034 -0.0455 -0.0853  0.2098
46613SOL    HW146444   6.785   4.702   1.115 -0.4135 -0.4711 -0.1124
46613SOL    HW246445   6.824   4.657   0.976 -0.6147  0.4123 -0.4602
46614SOL     OW46446  11.363   0.418   8.895  0.0647  0.6389 -0.8848
46614SOL    HW146447  11.404   0.380   8.973 -2.1039  3.2766  1.7666
46614SOL    HW246448  11.279   0.373   8.888 -0.2151  1.1884 -1.0475
46615SOL     OW46449   8.046   1.773   7.439 -0.0163  0.0820  0.3060
46615SOL    HW146450   8.052   1.682   7.468 -0.5686  0.4403  1.5895
46615SOL    HW246451   8.084   1.824   7.510  2.6320  0.7496 -1.4172
46616SOL     OW46452   2.023   9.139   2.376  0.4476 -0.0085  0.1496
46616SOL    HW146453   2.098   9.183   2.336 -0.6707  0.3634 -1.6645
46616SOL    HW246454   1.947   9.172   2.328 -0.7749 -1.3129  1.0837
46617SOL     OW46455  10.769  11.516   6.507 -0.6001 -0.4065  0.9185
46617SOL    HW146456  10.707  11.569   6.457  1.0217  0.0715 -0.6852
46617SOL    HW246457  10.714  11.455   6.556 -2.3340 -2.6765 -3.3778
46618SOL     OW46458  10.465   8.090   9.576 -0.2430  0.3350  0.6766
46618SOL    HW146459  10.431   8.003   9.597 -1.4323  0.9220  1.2983
46618SOL    HW246460  10.397   8.150   9.605  0.7636  1.5106  0.7125
46619SOL     OW46461   3.160   7.920   6.576 -0.0195 -0.0405  0.0711
46619SOL    HW146462   3.132   8.001   6.618  1.6597  2.1875 -2.7023
46619SOL    HW246463   3.081   7.886   6.533 -0.8034 -0.1050  1.5088
46620SOL     OW46464   0.458   5.561   3.257 -0.5210  0.1523  0.0150
46620SOL    HW146465   0.445   5.510   3.177 -0.4486 -0.0561  0.1362
46620SOL    HW246466   0.535   5.523   3.298 -1.2888 -0.5584  0.8198
46621SOL     OW46467   2.950   6.615   7.395 -0.1070  0.0992  0.7749
46621SOL    HW146468   3.021   6.678   7.403  0.5053 -0.6311  1.1647
46621SOL    HW246469   2.887   6.657   7.336  2.0918 -0.5517 -2.2591
46622SOL     OW46470   6.630   3.200   8.784  0.3881  0.2395  0.2725
46622SOL    HW146471   6.627   3.111   8.748  0.1932  1.0641 -1.8916
46622SOL    HW246472   6.546   3.211   8.828 -0.8280  0.2944 -1.9470
46623SOL     OW46473   1.060   2.810   0.986  0.1862 -0.1204 -0.0695
46623SOL    HW146474   1.097   2.807   1.075  0.2112  2.2677  0.0522
46623SOL    HW246475   1.110   2.878   0.942 -0.3246 -0.7688 -1.7159
46624SOL     OW46476   0.953   2.015   5.893  0.0616 -0.4852 -0.2877
46624SOL    HW146477   0.941   1.955   5.819  0.0441  0.2545 -0.8978
46624SOL    HW246478   1.010   2.084   5.859  2.4102 -1.5605  1.2032
46625SOL     OW46479  11.745   3.790   4.377  0.1673 -0.0885 -0.3432
46625SOL    HW146480  11.710   3.707   4.410  0.3330 -0.2549 -0.5803
46625SOL    HW246481  11.711   3.856   4.437  0.6970 -0.4197  0.3476
46626SOL     OW46482   0.346   7.639   0.003  0.2250 -0.4272  0.0496
46626SOL    HW146483   0.299   7.618  -0.077 -0.9067 -0.5480  0.7162
46626SOL    HW246484   0.277   7.661   0.066  1.1641  2.6504  0.1956
46627SOL     OW46485   0.011   2.953   2.398  0.4786  0.1871  0.0483
46627SOL    HW146486   0.104   2.973   2.388  0.5335 -0.2756 -0.4123
46627SOL    HW246487   0.005   2.860   2.378  0.2886 -0.3709  2.3978
46628SOL     OW46488   6.585   0.450   7.530 -0.4445 -0.2967  0.0538
46628SOL    HW146489   6.560   0.476   7.619 -0.7916  0.8771 -0.3738
46628SOL    HW246490   6.670   0.408   7.540 -1.0509 -1.3654  1.1067
46629SOL     OW46491   6.021   3.753   2.245 -0.3887 -0.1798  0.4128
46629SOL    HW146492   5.930   3.759   2.218  0.0976  1.0066 -1.0779
46629SOL    HW246493   6.052   3.671   2.206 -0.0214  0.9310 -1.8243
46630SOL     OW46494   7.807   1.318   7.358  0.0813  0.0342  0.8618
46630SOL    HW146495   7.753   1.322   7.279 -1.4376 -0.2637  1.8684
46630SOL    HW246496   7.777   1.240   7.405  1.8732 -0.5614  1.1305
46631SOL     OW46497   9.967  10.323   1.376  0.3527 -0.2775 -0.1895
46631SOL    HW146498  10.036  10.331   1.309  1.7779 -0.2613  1.2262
46631SOL    HW246499   9.894  10.282   1.330  0.9928  0.4451 -1.9489
46632SOL     OW46500   3.076   4.729   5.606 -0.2705  0.1822 -0.4756
46632SOL    HW146501   3.028   4.670   5.664 -1.0199  1.2608  0.0262
46632SOL    HW246502   3.133   4.671   5.555 -0.9828 -0.9680 -0.0024
46633SOL     OW46503   7.870  11.663  11.349  0.4605 -0.2095 -0.7960
46633SOL    HW146504   7.855  11.728  11.281  0.3879  1.4926  0.7706
46633SOL    HW246505   7.783  11.648  11.388  0.4504 -1.3809 -1.2165
46634SOL     OW46506   5.201   4.662   2.039 -0.2180  0.2894  0.0312
46634SOL    HW146507   5.245   4.733   2.086  0.1478  1.0194 -1.3604
46634SOL    HW246508   5.270   4.599   2.019 -0.0467  0.7905 -0.9828
46635SOL     OW46509   8.869  12.071   4.103 -0.1815  1.1719 -0.1179
46635SOL    HW146510   8.942  12.084   4.042  0.1860  1.0253  0.2863
46635SOL    HW246511   8.863  12.154   4.150  0.7031  0.6753  0.8946
46636SOL     OW46512  11.368   1.521   4.968  0.6008  0.2766  0.3555
46636SOL    HW146513  11.322   1.450   4.923  2.0472  0.1849 -1.0481
46636SOL    HW246514  11.456   1.521   4.930  1.7294  0.5991  2.7653
46637SOL     OW46515   5.041   9.740   0.202  0.3418 -0.1596 -0.0431
46637SOL    HW146516   5.137   9.731   0.203  0.4286 -2.3134 -4.0397
46637SOL    HW246517   5.026   9.835   0.204  2.3752  0.2094  2.3375
46638SOL     OW46518   1.609   8.841  10.601  0.4137  0.2128 -0.6495
46638SOL    HW146519   1.530   8.865  10.649  0.3442 -0.6298 -0.3236
46638SOL    HW246520   1.626   8.915  10.543 -0.0234  0.8486  0.0230
46639SOL     OW46521   5.281   6.067   0.764 -0.0128 -0.1301  0.2422
46639SOL    HW146522   5.345   6.014   0.717  0.1816 -0.4085  0.8114
46639SOL    HW246523   5.321   6.083   0.849  1.0708  3.1072 -0.7683
46640SOL     OW46524  12.285   0.285  12.502 -0.1380  0.1939  0.5945
46640SOL    HW146525  12.333   0.295  12.420  0.4758  0.8563  1.0208
46640SOL    HW246526  12.215   0.223  12.482  1.4380 -1.5691  0.1524
46641SOL     OW46527   3.912   0.166   3.158  0.2374  0.5357 -0.1702
46641SOL    HW146528   3.987   0.220   3.132  0.6222  0.3430  0.5194
46641SOL    HW246529   3.878   0.131   3.076  0.9806  0.5266 -0.4786
46642SOL     OW46530   5.417   7.579  11.442  0.2296  0.3612 -0.5371
46642SOL    HW146531   5.348   7.513  11.439  1.6188 -1.1316 -3.4468
46642SOL    HW246532   5.371   7.663  11.433 -1.4355 -0.2207  1.6490
46643SOL     OW46533  10.046  10.055   8.113 -0.0386  0.0893 -0.1746
46643SOL    HW146534  10.034  10.138   8.066 -1.5391 -1.4388 -2.7041
46643SOL    HW246535   9.970  10.048   8.170 -1.2379 -0.6248 -1.7972
46644SOL     OW46536   7.897   6.680   0.085  0.8634 -0.4652  0.5104
46644SOL    HW146537   7.865   6.685  -0.005 -0.1164 -0.6064  0.8443
46644SOL    HW246538   7.963   6.610   0.082 -0.5754 -1.8883  0.2932
46645SOL     OW46539   0.009   7.891  11.209 -0.1523  0.1860 -0.3142
46645SOL    HW146540   0.092   7.889  11.162 -1.0547  0.1640 -1.9825
46645SOL    HW246541  -0.050   7.839  11.155 -0.8596 -1.2025  1.6727
46646SOL     OW46542   1.793   0.209   0.486  0.0857 -0.3091 -0.1409
46646SOL    HW146543   1.888   0.203   0.497 -0.1185 -0.6058  1.7277
46646SOL    HW246544   1.767   0.283   0.541 -0.7149  0.1665 -1.1277
46647SOL     OW46545   5.087  12.122   9.136 -0.2385 -0.2949 -0.2741
46647SOL    HW146546   5.167  12.172   9.150 -0.1094 -0.8677  1.2197
46647SOL    HW246547   5.116  12.037   9.104 -0.2115 -0.6284  0.6176
46648SOL     OW46548   9.710  10.195   6.701 -0.3066 -0.2964  0.2736
46648SOL    HW146549   9.681  10.170   6.613 -1.7717 -1.4561  1.0392
46648SOL    HW246550   9.805  10.208   6.692 -0.2790 -1.2727 -1.2890
46649SOL     OW46551   1.061  10.599   6.508 -0.2023  0.0303  0.1369
46649SOL    HW146552   1.140  10.585   6.560 -1.3368 -1.1813  1.6101
46649SOL    HW246553   0.994  10.548   6.552 -1.5499  0.0483 -1.7699
46650SOL     OW46554   2.565   0.236  11.387  0.3790 -0.6414  0.3810
46650SOL    HW146555   2.524   0.322  11.374  0.1874 -0.9061 -0.9707
46650SOL    HW246556   2.504   0.189  11.444  0.9131  0.3925  1.8620
46651SOL     OW46557  11.779  11.863   5.065 -0.0922 -0.1706  0.4127
46651SOL    HW146558  11.756  11.791   5.007 -1.6317 -0.3046  1.1383
46651SOL    HW246559  11.742  11.941   5.022  0.8649  0.0858  0.0327
46652SOL     OW46560   0.241   0.469   0.120  0.2455 -0.7693 -0.5326
46652SOL    HW146561   0.163   0.430   0.082 -0.3794  2.7076 -3.3613
46652SOL    HW246562   0.212   0.502   0.205 -1.2249 -0.1146 -1.2502
46653SOL     OW46563   7.736   4.233   0.850 -0.2530  0.3016 -0.1601
46653SOL    HW146564   7.703   4.255   0.763 -0.2714  0.4016 -0.1282
46653SOL    HW246565   7.819   4.281   0.857 -0.8642  1.3379  0.3704
46654SOL     OW46566   2.708   4.403   7.085 -0.7784 -0.6049 -0.1770
46654SOL    HW146567   2.750   4.335   7.139  0.5524 -0.6675 -1.2534
46654SOL    HW246568   2.730   4.379   6.995 -1.2167  0.6567 -0.6337
46655SOL     OW46569   5.882   7.198  10.490  0.2776 -0.0671  0.1912
46655SOL    HW146570   5.849   7.225  10.405  1.2151 -0.4653 -0.3094
46655SOL    HW246571   5.847   7.109  10.502  2.3053 -1.0910 -1.0130
46656SOL     OW46572   3.237   3.332  10.814 -0.1950  0.0310  0.5565
46656SOL    HW146573   3.245   3.325  10.719 -0.8794 -1.1868  0.5759
46656SOL    HW246574   3.238   3.426  10.831 -0.5532  0.2779 -0.7002
46657SOL     OW46575   3.507   6.506   9.953 -0.2440 -0.2613  0.1920
46657SOL    HW146576   3.563   6.455  10.011 -1.7263 -1.2555  0.8249
46657SOL    HW246577   3.564   6.531   9.881  1.0280 -1.1638  0.8380
46658SOL     OW46578  11.790   4.175  12.235 -0.2630  0.4230  0.8138
46658SOL    HW146579  11.749   4.099  12.276 -1.5035  1.3340  1.3592
46658SOL    HW246580  11.726   4.246  12.249  0.8348  1.5446  0.2956
46659SOL     OW46581   5.261   0.875   9.075 -0.0585  0.6748  0.1928
46659SOL    HW146582   5.184   0.836   9.117  0.7210  0.5625  1.5851
46659SOL    HW246583   5.305   0.802   9.032  0.4950  0.2828  1.3765
46660SOL     OW46584   6.253   9.377   6.089  0.1546 -0.4438 -0.2764
46660SOL    HW146585   6.339   9.337   6.099  0.7223  0.4126 -1.5181
46660SOL    HW246586   6.225   9.353   6.000 -0.4225  0.1563 -0.2680
46661SOL     OW46587  11.409   4.471  11.499  0.7358  0.2413  0.0358
46661SOL    HW146588  11.434   4.558  11.528 -2.5301  0.5545  2.4957
46661SOL    HW246589  11.333   4.486  11.442 -1.2440 -0.9449  2.1912
46662SOL     OW46590   8.312  10.665   7.124  0.2592  0.2847 -0.3062
46662SOL    HW146591   8.381  10.635   7.064 -1.0333  0.8543 -2.1645
46662SOL    HW246592   8.289  10.587   7.174  2.3525  0.1209  0.5088
46663SOL     OW46593   6.969   3.666   1.327 -0.2045  0.3560 -0.2936
46663SOL    HW146594   6.927   3.673   1.413 -0.9586 -0.0084 -0.6302
46663SOL    HW246595   6.938   3.582   1.292  1.4513 -0.3345 -0.1988
46664SOL     OW46596   5.734   5.623   5.885 -0.5161 -0.6765  0.0246
46664SOL    HW146597   5.760   5.695   5.827  0.4727  1.5419  2.9919
46664SOL    HW246598   5.816   5.583   5.912 -0.7306 -0.0982  1.6754
46665SOL     OW46599   8.938   6.391   9.262 -0.2048  0.3938 -0.4062
46665SOL    HW146600   9.021   6.438   9.274 -0.5142  0.7434  0.4623
46665SOL    HW246601   8.871   6.458   9.276 -0.6448  0.2501 -1.6992
46666SOL     OW46602   2.296   9.502   6.214  0.6999  0.7495 -0.6487
46666SOL    HW146603   2.205   9.530   6.222  1.0470  2.1030 -1.2479
46666SOL    HW246604   2.306   9.435   6.282 -1.1059 -0.4771 -1.5026
46667SOL     OW46605   0.374   3.635   7.033  0.3764  0.0970  0.3680
46667SOL    HW146606   0.291   3.677   7.008  0.4362 -1.2144 -2.4442
46667SOL    HW246607   0.441   3.697   7.006  0.3559  0.1814  0.5121
46668SOL     OW46608   9.819   2.795  11.080 -0.1972 -0.4737 -0.0962
46668SOL    HW146609   9.837   2.872  11.134 -1.0247 -0.4385  0.1438
46668SOL    HW246610   9.858   2.816  10.995 -1.5175  0.7753 -0.4388
46669SOL     OW46611   1.115  12.347   7.327 -0.3975  0.6747 -0.3308
46669SOL    HW146612   1.023  12.371   7.319 -0.2458  1.4763  0.1788
46669SOL    HW246613   1.149  12.351   7.238 -0.3463  2.5820 -0.2581
46670SOL     OW46614   4.557  12.109   9.097  0.0843  0.2784 -0.3272
46670SOL    HW146615   4.501  12.115   9.175  0.2568 -1.7702  0.0046
46670SOL    HW246616   4.603  12.193   9.095  0.7415  0.1009  2.3274
46671SOL     OW46617   3.609   1.034   9.953 -0.2630 -0.3968  0.2114
46671SOL    HW146618   3.594   0.968  10.021 -0.0701 -0.9334 -0.2639
46671SOL    HW246619   3.596   0.988   9.871  1.7564 -0.3644 -0.1935
46672SOL     OW46620  11.211  10.585   6.521  0.2116 -0.3555 -0.8630
46672SOL    HW146621  11.187  10.631   6.441  1.0724  2.1166  0.1796
46672SOL    HW246622  11.128  10.560   6.561 -0.3290  0.7660 -1.2503
46673SOL     OW46623  11.959   1.768   4.600  0.0262 -0.2162  0.6946
46673SOL    HW146624  12.044   1.768   4.643  0.7851 -2.5541 -0.6109
46673SOL    HW246625  11.896   1.781   4.671  1.4146  0.2081  1.8819
46674SOL     OW46626   5.406   5.060   3.749 -0.1483  0.1935  0.6204
46674SOL    HW146627   5.385   5.106   3.831 -0.4649  0.8152  0.1990
46674SOL    HW246628   5.343   4.988   3.746  1.0422 -0.9457  1.8152
46675SOL     OW46629   0.146   3.224   7.537 -0.1811 -0.5434  0.0153
46675SOL    HW146630   0.167   3.138   7.574  0.2643 -0.0345  0.9953
46675SOL    HW246631   0.229   3.254   7.499 -0.6640 -1.1153 -1.5716
46676SOL     OW46632   0.424   8.941   0.921  0.5836 -0.0677 -0.6038
46676SOL    HW146633   0.470   8.928   0.839 -0.1114 -1.7896 -0.7626
46676SOL    HW246634   0.492   8.963   0.984  1.3787 -0.6385 -1.2421
46677SOL     OW46635  10.324   4.703  10.434  0.4380 -0.2456  0.1747
46677SOL    HW146636  10.360   4.742  10.514 -0.1003  0.9776 -0.1747
46677SOL    HW246637  10.394   4.712  10.370  0.4671 -0.2401  0.2065
46678SOL     OW46638   5.470   8.879   0.021  0.4125  0.0081  0.6194
46678SOL    HW146639   5.512   8.863  -0.063 -0.1049  1.3646  0.0784
46678SOL    HW246640   5.480   8.973   0.036 -0.4711 -0.0209  1.5437
46679SOL     OW46641   4.089   3.812   8.490 -0.2736 -0.4825 -0.5377
46679SOL    HW146642   4.052   3.854   8.568 -1.2463  0.5226 -1.5146
46679SOL    HW246643   4.032   3.737   8.474 -0.7781 -0.0144 -0.9543
46680SOL     OW46644   2.206  10.665   0.170 -0.2265  0.1061  0.5651
46680SOL    HW146645   2.134  10.657   0.107 -0.3678 -1.1937  0.8551
46680SOL    HW246646   2.258  10.738   0.137 -0.7306 -0.0345 -0.6191
46681SOL     OW46647   6.376   9.746   8.540 -0.4211  0.3448  0.6934
46681SOL    HW146648   6.333   9.660   8.545  1.2967 -0.6441 -0.5245
46681SOL    HW246649   6.320   9.797   8.481 -0.8829 -0.3017  0.5599
46682SOL     OW46650  10.868   6.642  11.036  0.2860 -0.1546  0.1799
46682SOL    HW146651  10.954   6.652  11.077 -0.1986 -1.7625  1.7258
46682SOL    HW246652  10.827   6.728  11.046  0.9029  0.0228  1.4143
46683SOL     OW46653  12.697   9.483   1.600  0.3905 -0.1710 -0.2970
46683SOL    HW146654  12.789   9.465   1.616  0.0064 -2.9094 -0.8059
46683SOL    HW246655  12.692   9.501   1.506  0.3168 -0.5441 -0.3626
46684SOL     OW46656   7.752   3.531   2.629  0.1830  0.7412  0.0785
46684SOL    HW146657   7.788   3.542   2.717  1.4135  2.4572 -0.5937
46684SOL    HW246658   7.745   3.620   2.594 -2.3950  0.3038 -0.7954
46685SOL     OW46659   3.041   2.788   2.904 -0.2077 -0.4706  0.5486
46685SOL    HW146660   3.067   2.880   2.902 -0.3513 -0.3172  2.6696
46685SOL    HW246661   3.061   2.754   2.817  0.0226  1.5168 -0.2062
46686SOL     OW46662  11.442   1.631   0.491  0.0833  0.2767 -0.1581
46686SOL    HW146663  11.494   1.645   0.412 -1.3412 -0.1024 -1.2031
46686SOL    HW246664  11.502   1.591   0.553  1.4367  1.2888 -0.7623
46687SOL     OW46665   1.406  11.006   9.654  0.0014 -0.6198  0.4882
46687SOL    HW146666   1.459  10.946   9.602  0.8128  1.2714 -0.9773
46687SOL    HW246667   1.454  11.016   9.736 -0.4534 -2.3819  1.0035
46688SOL     OW46668  12.097   6.025   9.528 -0.3281  0.1296  0.0176
46688SOL    HW146669  12.141   5.981   9.600 -1.1805 -1.6701 -0.4832
46688SOL    HW246670  12.054   6.101   9.567 -0.7565 -0.8029  1.4160
46689SOL     OW46671   7.778   3.107   1.409 -0.9689 -0.0959  0.1763
46689SOL    HW146672   7.767   3.021   1.449  1.1475 -0.6093 -0.2209
46689SOL    HW246673   7.845   3.150   1.462 -0.0822  0.2708 -1.1921
46690SOL     OW46674   5.012   4.560  11.989  0.1100  0.5164 -0.5078
46690SOL    HW146675   4.959   4.498  11.938 -2.0357  1.9740 -0.1452
46690SOL    HW246676   5.059   4.611  11.923 -1.7682  1.6185 -1.0496
46691SOL     OW46677  12.504  12.729   9.110  0.1405  0.2825 -0.3613
46691SOL    HW146678  12.559  12.675   9.167 -1.9360 -1.6429 -0.0469
46691SOL    HW246679  12.458  12.788   9.169 -0.5840 -0.4068 -0.2165
46692SOL     OW46680   3.134   2.498   9.055  0.3342 -0.7071 -0.4452
46692SOL    HW146681   3.143   2.444   9.134 -0.1163 -0.6150 -0.3266
46692SOL    HW246682   3.184   2.577   9.073 -0.5014 -0.2978  0.1049
46693SOL     OW46683   1.104   3.186   3.090  0.3944  0.1183 -0.1899
46693SOL    HW146684   1.180   3.135   3.061 -0.7007 -1.4205 -0.4551
46693SOL    HW246685   1.112   3.189   3.186  0.5488 -0.4127 -0.1862
46694SOL     OW46686   6.078   4.488   2.820 -0.1553 -0.7825  0.2091
46694SOL    HW146687   6.150   4.540   2.855  1.2224 -1.6605 -1.1777
46694SOL    HW246688   6.006   4.501   2.882  1.0562  0.4517  1.4184
46695SOL     OW46689   2.129   9.667  10.057  0.3778 -0.3822 -0.5747
46695SOL    HW146690   2.169   9.750  10.083  0.4100 -1.2595  2.7419
46695SOL    HW246691   2.180   9.601  10.105 -1.3893 -2.0336 -0.8694
46696SOL     OW46692   7.202   0.406   5.453 -0.1136 -0.2559 -0.4432
46696SOL    HW146693   7.283   0.438   5.412  1.0364  1.8478  3.0697
46696SOL    HW246694   7.230   0.328   5.502 -0.9079 -1.1644 -1.3724
46697SOL     OW46695   0.758   9.354   7.449  0.6058 -0.6252 -0.7337
46697SOL    HW146696   0.809   9.420   7.402  0.5664 -0.6239 -0.7757
46697SOL    HW246697   0.817   9.321   7.517 -0.1906  1.3225  1.0232
46698SOL     OW46698   6.067   2.148   9.359  0.0654  0.2446 -0.7028
46698SOL    HW146699   5.998   2.101   9.406 -0.3211  0.6245 -0.8835
46698SOL    HW246700   6.055   2.239   9.386  1.7388  0.0735  0.8358
46699SOL     OW46701   4.376  10.606   9.690  0.2174 -0.9784  0.0934
46699SOL    HW146702   4.355  10.613   9.783 -1.8529 -0.3652 -0.3685
46699SOL    HW246703   4.291  10.599   9.646  1.1471 -1.8517 -1.7263
46700SOL     OW46704   2.787  11.990   7.989  0.6434 -0.8089 -0.1352
46700SOL    HW146705   2.825  12.071   8.024  1.4768 -1.8035  1.4062
46700SOL    HW246706   2.693  12.002   7.998  0.7965 -0.8772  2.3273
46701SOL     OW46707  10.095  10.736   2.830  0.8171 -0.7703  0.3878
46701SOL    HW146708  10.054  10.731   2.916  0.4653  0.2286  0.2864
46701SOL    HW246709  10.162  10.805   2.838 -1.1299  1.4198 -0.8714
46702SOL     OW46710  11.938   6.143   5.690  0.1565 -0.4084 -0.2402
46702SOL    HW146711  11.897   6.206   5.749  1.5475 -0.8492  1.2632
46702SOL    HW246712  12.005   6.193   5.643  0.1106 -0.3967 -0.2944
46703SOL     OW46713   3.176   6.962   7.207 -0.4226 -0.1161 -0.0863
46703SOL    HW146714   3.203   6.875   7.235 -0.9538 -0.8303 -1.6649
46703SOL    HW246715   3.086   6.950   7.175 -0.1318  0.7821 -1.3204
46704SOL     OW46716  11.942   6.801  11.881  0.0760  0.0910 -0.0087
46704SOL    HW146717  11.974   6.808  11.971  2.1919  0.2790 -0.7310
46704SOL    HW246718  11.872   6.867  11.876  0.0266  0.1877  1.4454
46705SOL     OW46719  11.163   1.737  10.317 -0.0535 -0.1234 -0.5180
46705SOL    HW146720  11.252   1.740  10.282  0.4664 -0.1761  0.7296
46705SOL    HW246721  11.172   1.696  10.403 -1.0598  1.1124  0.2289
46706SOL     OW46722   9.873   4.538   8.654  0.0342  0.5442  0.2168
46706SOL    HW146723   9.813   4.519   8.727  0.7725  0.7600  0.9016
46706SOL    HW246724   9.820   4.528   8.576 -1.1550  1.7257  0.8447
46707SOL     OW46725   0.678   9.166   2.593  0.2126 -0.1788 -0.2154
46707SOL    HW146726   0.697   9.075   2.613 -0.0344 -0.0762  0.5697
46707SOL    HW246727   0.585   9.167   2.571 -0.1368  0.0599  1.1413
46708SOL     OW46728   7.785   7.511   1.167  0.0174  0.0232 -0.1114
46708SOL    HW146729   7.700   7.472   1.185 -0.4896  0.6463 -1.0678
46708SOL    HW246730   7.815   7.545   1.252 -0.8789  0.1675  0.1540
46709SOL     OW46731   0.614   7.455  12.029 -0.1394 -0.2228  0.5794
46709SOL    HW146732   0.614   7.402  11.950  0.0955 -0.4537  0.7320
46709SOL    HW246733   0.571   7.537  12.003 -2.3105 -1.1986  0.8176
46710SOL     OW46734   3.829   2.809   3.265  0.2965  0.6120  0.3058
46710SOL    HW146735   3.867   2.846   3.345 -1.6232 -1.2296  2.2011
46710SOL    HW246736   3.735   2.829   3.272 -0.0999 -0.6802 -0.8519
46711SOL     OW46737   3.123   5.048   2.307  0.1227 -0.0352 -0.3718
46711SOL    HW146738   3.053   5.000   2.262  0.6736 -0.1720 -1.0822
46711SOL    HW246739   3.089   5.137   2.317 -1.1784 -0.6713  1.5218
46712SOL     OW46740  12.075  12.313   7.175 -0.1505  0.3426  0.5767
46712SOL    HW146741  12.082  12.307   7.270  1.2899  0.5448  0.5077
46712SOL    HW246742  12.089  12.224   7.144  1.9197  0.6669  0.4618
46713SOL     OW46743   3.423  11.921   0.955  0.3395  0.7962  0.2038
46713SOL    HW146744   3.485  11.989   0.981  2.1217 -0.7044  0.0822
46713SOL    HW246745   3.436  11.913   0.860  1.5905 -0.9883  0.4743
46714SOL     OW46746   0.100   5.523   5.486 -0.4815  0.9547  0.0722
46714SOL    HW146747   0.065   5.519   5.575 -0.4221  0.5736  0.0811
46714SOL    HW246748   0.054   5.454   5.439 -2.3899  2.8037 -0.8963
46715SOL     OW46749   5.430  12.431  11.575 -0.0469  0.2200  0.3171
46715SOL    HW146750   5.406  12.477  11.494 -0.9570 -1.2978 -0.3283
46715SOL    HW246751   5.375  12.472  11.642 -1.5167 -0.4571 -0.4098
46716SOL     OW46752  10.590   6.972   2.918 -0.2017  0.5548  0.2364
46716SOL    HW146753  10.498   6.973   2.891 -0.6209  0.7408  1.5929
46716SOL    HW246754  10.587   6.981   3.013  1.1474 -1.1976  0.5004
46717SOL     OW46755  11.382   1.814   4.792 -0.2601 -0.1070 -0.3419
46717SOL    HW146756  11.425   1.729   4.776  2.0459  0.8779  0.1184
46717SOL    HW246757  11.314   1.819   4.726  0.7341 -1.5629 -1.5669
46718SOL     OW46758  10.131   5.089   0.955  0.5057 -0.0685  0.2075
46718SOL    HW146759  10.203   5.070   0.895 -0.5880 -1.4814 -0.7399
46718SOL    HW246760  10.118   5.008   1.004 -0.1594  0.3073  0.6812
46719SOL     OW46761   5.150   6.067   6.968 -0.4233  0.3497 -0.1432
46719SOL    HW146762   5.133   6.154   6.932 -0.5442  0.1154 -0.6644
46719SOL    HW246763   5.243   6.053   6.953 -0.4181  0.3642 -0.1234
46720SOL     OW46764   7.121   5.365   3.216  0.9807 -0.7322 -0.5337
46720SOL    HW146765   7.029   5.370   3.192  0.7713 -1.1923  0.1467
46720SOL    HW246766   7.167   5.355   3.133  0.4093 -0.6490 -0.8655
46721SOL     OW46767   1.934   2.597   3.014  0.0110 -0.1793  0.0916
46721SOL    HW146768   1.956   2.504   3.024 -2.4300 -0.7572  0.7734
46721SOL    HW246769   1.939   2.632   3.103 -3.9562 -0.9716  0.8300
46722SOL     OW46770   0.118   1.839   7.424  0.2744 -0.0519  0.4946
46722SOL    HW146771   0.107   1.748   7.453 -3.3773  0.2413  0.4846
46722SOL    HW246772   0.152   1.884   7.500 -1.7565 -0.7611  1.9219
46723SOL     OW46773   8.647  11.354   8.891 -0.0560  0.7914  0.4630
46723SOL    HW146774   8.644  11.401   8.808 -0.3370  0.0257  0.0289
46723SOL    HW246775   8.726  11.300   8.885 -0.9606 -0.5378 -0.0325
46724SOL     OW46776  10.143   4.773  12.443  0.0873 -0.4217 -0.1710
46724SOL    HW146777  10.209   4.720  12.399 -0.4973 -1.0718 -0.2691
46724SOL    HW246778  10.115   4.721  12.519 -0.1811 -0.0780 -0.0276
46725SOL     OW46779   0.128  10.917   3.542  0.4203 -0.1348 -0.3186
46725SOL    HW146780   0.059  10.855   3.518  2.0905 -1.6789 -1.5023
46725SOL    HW246781   0.107  10.997   3.494 -1.8011  0.3015  1.2570
46726SOL     OW46782   7.526   5.537   4.032  0.4181 -0.2379 -0.4061
46726SOL    HW146783   7.487   5.624   4.037 -0.6402 -0.6528 -1.0167
46726SOL    HW246784   7.613   5.551   3.995  0.7212  0.6707  0.6138
46727SOL     OW46785   2.882   2.261   1.808 -0.1306  0.4407  0.0242
46727SOL    HW146786   2.921   2.349   1.812  1.9376 -0.4819  1.7166
46727SOL    HW246787   2.924   2.220   1.732  1.0092  0.0054  0.8723
46728SOL     OW46788   5.433   5.214   5.294  0.1766  0.2853  0.1820
46728SOL    HW146789   5.376   5.142   5.321  1.1542 -0.0169  1.5570
46728SOL    HW246790   5.479   5.181   5.217 -0.7635  0.1657 -0.3451
46729SOL     OW46791   4.286   0.488   4.440 -0.0871  0.0646 -0.2721
46729SOL    HW146792   4.284   0.408   4.387  0.9883 -0.2837  0.1900
46729SOL    HW246793   4.269   0.459   4.529 -0.3066  0.4322 -0.1931
46730SOL     OW46794   6.921   8.543   7.337 -0.0774 -0.1876 -0.1334
46730SOL    HW146795   6.834   8.545   7.298 -0.9693  0.5345  1.7548
46730SOL    HW246796   6.914   8.478   7.407  1.2952 -1.0403 -0.7403
46731SOL     OW46797  11.857   4.136   5.300  0.2198  0.2412 -0.1203
46731SOL    HW146798  11.907   4.055   5.310 -1.4514 -0.8754 -0.5100
46731SOL    HW246799  11.874   4.163   5.209 -1.6714 -1.4424 -1.0519
46732SOL     OW46800   3.539   4.087   0.643 -0.2731 -0.3800 -0.1665
46732SOL    HW146801   3.477   4.048   0.704  0.8216  0.1094  1.3191
46732SOL    HW246802   3.489   4.155   0.598 -1.2240 -1.0717 -0.1769
46733SOL     OW46803   4.002  12.269   0.424  0.0572  0.5258  0.2681
46733SOL    HW146804   3.961  12.204   0.482  0.4668  0.0465  0.0284
46733SOL    HW246805   4.000  12.228   0.337  0.2061  0.8885  0.0903
46734SOL     OW46806  12.211  11.795   4.335 -0.0934  0.0909  0.4749
46734SOL    HW146807  12.136  11.746   4.369 -0.4735  0.7042  0.5333
46734SOL    HW246808  12.210  11.878   4.383  0.3272  0.3065  0.1213
46735SOL     OW46809   5.992  11.702   1.334  0.2428  0.6212  0.2865
46735SOL    HW146810   6.067  11.689   1.276  1.6648  1.5918  1.8459
46735SOL    HW246811   6.012  11.650   1.412  0.3467  2.5496  1.6011
46736SOL     OW46812   5.029  10.833  11.968  0.1885  0.6317  0.4057
46736SOL    HW146813   5.045  10.886  11.890  1.7442 -0.4540 -0.0702
46736SOL    HW246814   4.941  10.797  11.954  0.8398 -0.4115 -1.4103
46737SOL     OW46815   7.451   2.856   0.920  0.3728 -0.8304  0.3197
46737SOL    HW146816   7.450   2.952   0.926  2.9904 -0.6900 -0.4695
46737SOL    HW246817   7.359   2.831   0.931 -0.6464  1.8625 -1.1077
46738SOL     OW46818   6.345   7.651   1.247 -0.0774 -0.0564  0.0308
46738SOL    HW146819   6.294   7.592   1.303  1.5958 -1.1584  0.4864
46738SOL    HW246820   6.307   7.640   1.160  1.1122 -3.0813 -0.2315
46739SOL     OW46821   3.678   2.280   4.765  0.4894  0.3572  0.1207
46739SOL    HW146822   3.658   2.357   4.712  2.9641  0.5640 -0.6032
46739SOL    HW246823   3.772   2.269   4.758  0.2604 -2.5978  0.4388
46740SOL     OW46824   1.503   4.399   0.997  0.4182 -0.1740 -0.4697
46740SOL    HW146825   1.552   4.456   0.937 -0.5016 -0.3860 -1.4697
46740SOL    HW246826   1.413   4.404   0.965  0.1449 -1.3660  0.0673
46741SOL     OW46827  12.085   1.473   4.235  0.0906 -0.3827  0.1238
46741SOL    HW146828  12.035   1.395   4.212 -0.0911  0.0634 -1.0423
46741SOL    HW246829  12.067   1.486   4.329 -0.7722 -1.0871  0.0659
46742SOL     OW46830  10.650  10.444   4.685 -0.0818 -0.0511  0.2347
46742SOL    HW146831  10.653  10.472   4.593  0.4691 -0.9817 -0.0489
46742SOL    HW246832  10.704  10.508   4.731  1.8498 -1.0299 -0.5320
46743SOL     OW46833   8.031   1.318   5.207  0.1637  0.3260  0.0046
46743SOL    HW146834   7.968   1.388   5.193 -0.0636  0.1812  0.2893
46743SOL    HW246835   8.108   1.344   5.155 -0.6696 -0.2320 -1.5763
46744SOL     OW46836   9.212   5.271   0.034 -0.4415 -0.2692 -0.3538
46744SOL    HW146837   9.191   5.251  -0.057 -0.2451 -1.8806 -0.0789
46744SOL    HW246838   9.260   5.194   0.065  1.2551  1.0988  0.5424
46745SOL     OW46839   9.669   0.501   7.463 -1.3742 -0.1316 -0.9296
46745SOL    HW146840   9.752   0.472   7.424  0.0571  2.0058  0.2905
46745SOL    HW246841   9.646   0.580   7.415 -1.8483  0.1565 -0.2492
46746SOL     OW46842   6.547   6.318   9.045  0.1867 -0.1801  0.4847
46746SOL    HW146843   6.481   6.276   8.989 -0.2034  1.2874 -0.2130
46746SOL    HW246844   6.505   6.324   9.131  0.2438 -1.1577  0.5968
46747SOL     OW46845   0.715  12.436   6.023  0.0403  0.0411 -0.0184
46747SOL    HW146846   0.804  12.471   6.019  0.5427 -1.0483  0.9245
46747SOL    HW246847   0.658  12.511   6.009  1.0632  1.2322  1.8186
46748SOL     OW46848   3.754   0.129   8.606 -1.1329  0.2545 -0.1609
46748SOL    HW146849   3.748   0.115   8.511 -0.6507  1.5292 -0.4089
46748SOL    HW246850   3.753   0.224   8.615  3.0280  0.3962  0.7696
46749SOL     OW46851  10.603  10.704   8.246  0.2670  0.0233 -0.2757
46749SOL    HW146852  10.646  10.682   8.329 -0.2153  2.3494  0.6764
46749SOL    HW246853  10.627  10.796   8.231 -0.2355 -0.1475 -2.3716
46750SOL     OW46854   3.893  11.640   6.590 -0.0154 -0.2687  0.5982
46750SOL    HW146855   3.834  11.597   6.529 -0.5883  0.8263  0.3513
46750SOL    HW246856   3.853  11.725   6.607  2.3697  1.3163 -1.0214
46751SOL     OW46857   7.203  11.962   9.074  0.0368  0.1059  0.2803
46751SOL    HW146858   7.252  11.974   9.156 -1.9260  1.8616  1.2818
46751SOL    HW246859   7.128  11.908   9.098 -0.2711  0.1842 -0.4819
46752SOL     OW46860   6.120   4.522  11.017  0.6580  0.2443  0.1534
46752SOL    HW146861   6.058   4.486  11.080 -0.2946  0.7769 -0.4432
46752SOL    HW246862   6.084   4.609  10.996  1.1530  0.2207 -0.8405
46753SOL     OW46863   7.345   9.731  11.731 -0.1008  0.3568  0.0831
46753SOL    HW146864   7.258   9.727  11.772 -0.0064 -1.9619  0.1577
46753SOL    HW246865   7.328   9.727  11.637 -0.0651 -0.5673  0.1123
46754SOL     OW46866   3.068   6.430   5.389 -0.3976 -0.0997 -0.2860
46754SOL    HW146867   2.994   6.374   5.411  0.3708 -0.6547  0.9998
46754SOL    HW246868   3.128   6.422   5.463  0.1211  1.8018 -0.4329
46755SOL     OW46869  12.276   7.010  10.881 -0.1392  0.3258 -0.6707
46755SOL    HW146870  12.280   7.020  10.976  1.4082  1.2550 -0.7995
46755SOL    HW246871  12.244   6.921  10.868 -0.9723  0.3998  0.7095
46756SOL     OW46872   4.426   3.559   7.532 -0.3411 -0.0969 -0.1209
46756SOL    HW146873   4.469   3.479   7.563  0.8474  1.0708  1.4699
46756SOL    HW246874   4.338   3.555   7.568 -0.6935 -1.2146 -1.0535
46757SOL     OW46875   6.705   4.243   4.823 -0.7379 -0.0290  0.0118
46757SOL    HW146876   6.787   4.248   4.871 -0.3679 -2.9469 -0.1229
46757SOL    HW246877   6.729   4.205   4.738 -2.1098 -0.1445 -0.3546
46758SOL     OW46878   1.420   6.333   2.926 -0.0694 -0.0585 -0.0099
46758SOL    HW146879   1.368   6.390   2.868 -0.2883  0.4633  0.6905
46758SOL    HW246880   1.358   6.269   2.959 -0.4592  0.9889  1.3817
46759SOL     OW46881   1.957  10.738   3.141  0.3460 -0.3868  0.3273
46759SOL    HW146882   2.040  10.761   3.182  0.4778  0.1657 -0.2394
46759SOL    HW246883   1.957  10.642   3.140  0.2890 -0.4209  1.6935
46760SOL     OW46884   5.682   7.169   0.493  0.1870 -0.1779  0.5750
46760SOL    HW146885   5.680   7.168   0.397 -0.3368 -1.9194  0.5800
46760SOL    HW246886   5.698   7.261   0.515 -1.2852  0.5445 -1.1499
46761SOL     OW46887  10.692  12.203   6.030  0.0250 -0.0299 -0.0275
46761SOL    HW146888  10.700  12.216   6.125  1.4543 -0.3952 -0.0635
46761SOL    HW246889  10.614  12.252   6.005  0.3664  1.1870  1.1426
46762SOL     OW46890   1.885   3.191   6.543  0.1100  0.4662  0.5286
46762SOL    HW146891   1.796   3.160   6.530  0.8184 -0.8900 -1.5157
46762SOL    HW246892   1.887   3.278   6.503 -0.0824  0.1178 -0.2569
46763SOL     OW46893  11.647   3.327   6.201  0.3739  0.3208  0.0112
46763SOL    HW146894  11.685   3.285   6.278 -0.9223 -2.2353 -0.6652
46763SOL    HW246895  11.613   3.410   6.234  0.9464 -0.1531  1.9119
46764SOL     OW46896   5.289  12.516   0.501 -0.0735  0.1973  0.4496
46764SOL    HW146897   5.372  12.558   0.523 -0.5169  1.0742  0.4707
46764SOL    HW246898   5.279  12.448   0.568  1.0360 -0.5054 -0.0635
46765SOL     OW46899  10.114   5.535   2.401  0.1615 -0.2067  0.1215
46765SOL    HW146900  10.157   5.486   2.330  0.5545 -1.2509  1.0545
46765SOL    HW246901  10.180   5.599   2.429  0.5485 -0.7690  0.5103
46766SOL     OW46902   9.023   6.644   4.256  0.3340 -0.3351  0.1891
46766SOL    HW146903   8.960   6.593   4.204 -0.8167 -1.1014  2.2098
46766SOL    HW246904   9.056   6.582   4.321  3.5146 -0.0523 -0.9534
46767SOL     OW46905  11.476   6.591   2.191  0.5203 -0.1791  0.1738
46767SOL    HW146906  11.441   6.619   2.106  1.7760  0.7657 -0.0671
46767SOL    HW246907  11.410   6.617   2.254 -0.0863 -0.1882 -0.4502
46768SOL     OW46908   0.440   1.492   5.118 -0.4532 -0.0058 -0.1798
46768SOL    HW146909   0.407   1.580   5.138  1.3549  0.5845  0.4083
46768SOL    HW246910   0.534   1.498   5.133 -0.3745 -2.2482  0.5870
46769SOL     OW46911   6.035  10.068   9.483 -0.6900  0.1901  0.4942
46769SOL    HW146912   6.021  10.161   9.462 -0.0045  0.2932  0.4647
46769SOL    HW246913   6.012  10.060   9.575  1.8838  1.0005  1.2829
46770SOL     OW46914   8.460   8.703   1.704  0.0588 -0.3906 -0.3255
46770SOL    HW146915   8.421   8.751   1.777  2.1862  2.1588 -0.7038
46770SOL    HW246916   8.479   8.616   1.740 -1.7953 -0.2586  1.1383
46771SOL     OW46917   7.071   2.574  11.161 -0.1618 -0.0847 -0.5959
46771SOL    HW146918   6.998   2.542  11.108 -0.2017 -1.1029  0.0644
46771SOL    HW246919   7.104   2.497  11.208  1.3977  0.3313 -0.9297
46772SOL     OW46920   5.599  10.083  11.983  0.2006 -0.5151  0.2872
46772SOL    HW146921   5.525  10.143  11.995 -0.4891 -1.1535 -0.6206
46772SOL    HW246922   5.649  10.120  11.910  1.8846  0.9386  2.0667
46773SOL     OW46923   6.090   3.421   2.411  0.0214  0.7598  0.5247
46773SOL    HW146924   6.097   3.328   2.389  3.5627  0.7990  0.9274
46773SOL    HW246925   6.042   3.422   2.494 -0.5351 -0.6476  0.2549
46774SOL     OW46926   7.775   8.189   2.278 -0.1794 -0.0427  0.1401
46774SOL    HW146927   7.706   8.224   2.221  0.2186  0.4034 -0.0716
46774SOL    HW246928   7.823   8.127   2.222 -0.1085  0.0086  0.1449
46775SOL     OW46929   7.404  10.133   5.651  0.8910 -0.4785 -0.2273
46775SOL    HW146930   7.419  10.125   5.745  1.0106 -2.2756 -0.3582
46775SOL    HW246931   7.347  10.209   5.642  0.4732 -0.5771  1.3388
46776SOL     OW46932   3.902  10.391  10.043 -0.1679  0.2176 -0.2286
46776SOL    HW146933   3.960  10.467  10.046 -0.9472  0.7890  1.2223
46776SOL    HW246934   3.856  10.400   9.959 -0.6104  1.6467  0.1380
46777SOL     OW46935  11.471   5.850   9.936  0.0352 -0.2190  0.0956
46777SOL    HW146936  11.408   5.889   9.875  0.6544 -2.0570 -1.8471
46777SOL    HW246937  11.499   5.923   9.992 -0.6961  1.5396 -1.7128
46778SOL     OW46938  12.206   2.132   0.640  0.1338 -0.2443  0.0778
46778SOL    HW146939  12.140   2.198   0.660  2.0054  1.5378  0.7792
46778SOL    HW246940  12.181   2.097   0.555 -2.1989 -0.3297  0.7465
46779SOL     OW46941   1.927   2.785   8.925  1.0694 -0.4220  0.0913
46779SOL    HW146942   1.959   2.849   8.988 -0.7391 -1.0240  1.6966
46779SOL    HW246943   1.835   2.807   8.912  1.1632 -0.9112 -1.6251
46780SOL     OW46944  11.009   7.903   6.803  0.0261  0.1138  0.0966
46780SOL    HW146945  10.997   7.991   6.769 -1.0500 -0.2629 -0.5786
46780SOL    HW246946  11.083   7.909   6.862  0.5936  1.2567 -0.7023
46781SOL     OW46947   5.079   7.134   2.565  0.5078 -0.2741  0.3589
46781SOL    HW146948   5.142   7.064   2.581 -0.6603 -2.2111 -2.5458
46781SOL    HW246949   5.035   7.107   2.484 -2.6119  1.9841  1.1423
46782SOL     OW46950   1.773   3.685   8.162  0.2251 -0.0092  0.6676
46782SOL    HW146951   1.727   3.639   8.091  1.0132 -1.9271  1.3285
46782SOL    HW246952   1.838   3.739   8.118 -0.9423  0.7709 -0.1554
46783SOL     OW46953   3.889   6.518   7.153  0.3009  0.1705 -0.2645
46783SOL    HW146954   3.909   6.526   7.247  2.8005 -1.4776 -0.5452
46783SOL    HW246955   3.812   6.461   7.150 -0.2978  0.8822  0.7860
46784SOL     OW46956   2.359  11.715   3.136  0.1013  0.1643  0.1228
46784SOL    HW146957   2.340  11.624   3.114  0.4814  0.3160 -0.9296
46784SOL    HW246958   2.390  11.712   3.226 -0.6764 -0.6357  0.3752
46785SOL     OW46959   5.263   4.841   8.274  0.0288  0.0549  0.2501
46785SOL    HW146960   5.339   4.813   8.223 -0.6662  0.5762 -1.1188
46785SOL    HW246961   5.291   4.832   8.365  2.3479  1.8353 -0.1998
46786SOL     OW46962  10.683   5.995  12.434 -0.5858  0.0088  0.3814
46786SOL    HW146963  10.592   6.021  12.438 -0.0920  2.0406 -0.3958
46786SOL    HW246964  10.692   5.949  12.350 -0.9750 -0.6037  0.6720
46787SOL     OW46965   8.588   4.286   9.844  0.1805  0.7719 -0.0414
46787SOL    HW146966   8.573   4.371   9.802 -1.3811  0.4038 -0.3017
46787SOL    HW246967   8.572   4.222   9.774 -0.1710  0.2248  0.5273
46788SOL     OW46968   6.195  12.638  11.559 -0.0138 -0.3826 -0.5599
46788SOL    HW146969   6.153  12.716  11.594 -1.5176 -0.9441 -1.0676
46788SOL    HW246970   6.143  12.613  11.483 -0.8390 -3.0223  0.7313
46789SOL     OW46971  12.211   4.927   0.514 -0.4206 -0.0304 -0.2699
46789SOL    HW146972  12.141   4.970   0.563 -1.8046 -1.2866 -1.0613
46789SOL    HW246973  12.200   4.958   0.424  0.6017  0.4254 -0.2501
46790SOL     OW46974   2.304   0.729   4.897 -0.1718  0.3332  0.1873
46790SOL    HW146975   2.273   0.740   4.987  1.4838  0.7102  0.7395
46790SOL    HW246976   2.381   0.673   4.905 -1.8934 -2.5255 -1.3850
46791SOL     OW46977  10.088   5.270   2.714  0.4674 -0.3432 -0.4384
46791SOL    HW146978  10.051   5.186   2.687  0.6991 -0.7043  0.3250
46791SOL    HW246979  10.080   5.269   2.810  3.2932 -0.8844 -0.1125
46792SOL     OW46980   0.769   0.788   9.340  0.8207  0.8225 -0.2375
46792SOL    HW146981   0.805   0.822   9.422  1.0117  0.6174 -0.2332
46792SOL    HW246982   0.770   0.863   9.281 -0.6213  1.3349  0.3498
46793SOL     OW46983  10.923   0.303  12.128 -0.9181 -0.5740 -0.3932
46793SOL    HW146984  11.013   0.326  12.106 -1.4248  0.2760 -1.6880
46793SOL    HW246985  10.931   0.244  12.204  0.7423 -1.0871 -0.9245
46794SOL     OW46986   7.532  10.246   7.575 -0.0365 -0.1351 -0.0112
46794SOL    HW146987   7.575  10.330   7.592 -1.0490  0.3953 -0.0113
46794SOL    HW246988   7.454  10.247   7.630  0.4080 -1.4866  0.7005
46795SOL     OW46989   8.267  10.310   0.021 -0.6386  0.2834 -0.2716
46795SOL    HW146990   8.353  10.327  -0.019 -1.0222  2.3457 -0.3396
46795SOL    HW246991   8.279  10.337   0.113 -1.4880  1.6590 -0.5413
46796SOL     OW46992   0.289   0.683   2.349 -0.2440  0.4387  0.8442
46796SOL    HW146993   0.325   0.771   2.357  0.2499  0.3153  0.0627
46796SOL    HW246994   0.194   0.696   2.346 -0.1780  0.9306  0.8720
46797SOL     OW46995   7.893  12.359  11.014  0.7616 -0.3479  0.2643
46797SOL    HW146996   7.888  12.453  11.033  0.2477 -0.5611  1.2617
46797SOL    HW246997   7.918  12.354  10.922  3.4326  0.7667  0.8424
46798SOL     OW46998  12.041   3.094   0.130 -0.0331 -0.5077  0.0062
46798SOL    HW146999  12.108   3.031   0.156  0.0471 -0.7367 -0.7384
46798SOL    HW247000  12.022   3.073   0.038 -0.6505 -0.0238  0.0172
46799SOL     OW47001   3.451   4.010   2.191  0.2180 -0.2535 -0.1080
46799SOL    HW147002   3.409   3.963   2.262 -2.8859 -0.9267 -2.1838
46799SOL    HW247003   3.540   4.026   2.221 -0.2576 -2.5591  2.8985
46800SOL     OW47004   9.635  11.832   8.974 -0.0410  0.0707 -0.4755
46800SOL    HW147005   9.680  11.913   8.953  0.5664 -0.1826 -0.1753
46800SOL    HW247006   9.704  11.765   8.972 -0.2936 -0.2344  0.5596
46801SOL     OW47007   4.587   0.948   1.115 -0.1782  0.6793  0.0075
46801SOL    HW147008   4.664   1.002   1.133  0.4723 -0.3921  0.5242
46801SOL    HW247009   4.615   0.888   1.046  0.1439 -1.0831  1.5943
46802SOL     OW47010   1.183   2.352   8.771  0.4155  0.2533  0.1767
46802SOL    HW147011   1.226   2.312   8.847  1.5553  0.1177 -0.5031
46802SOL    HW247012   1.252   2.354   8.704  0.0327  2.1681 -0.2344
46803SOL     OW47013   5.427   8.142  11.687  0.0218  0.3543  0.5016
46803SOL    HW147014   5.445   8.049  11.679 -1.4908  0.0697  0.1172
46803SOL    HW247015   5.499   8.176  11.741  1.0148 -0.8743 -0.0015
46804SOL     OW47016   6.829   5.283   0.583 -1.1343  0.4692 -0.0614
46804SOL    HW147017   6.878   5.362   0.557  1.3205 -1.0396 -0.3044
46804SOL    HW247018   6.837   5.280   0.678  2.5743 -1.6297 -0.2656
46805SOL     OW47019   1.007   0.759   9.123  0.3079  0.0727 -0.2608
46805SOL    HW147020   0.991   0.730   9.033 -0.2580 -1.2516  0.2426
46805SOL    HW247021   0.965   0.844   9.128 -2.5187 -1.2017 -0.3809
46806SOL     OW47022   2.486   6.715   4.777  0.1046 -0.3598 -0.7245
46806SOL    HW147023   2.566   6.663   4.764  1.4003  1.7169 -1.5510
46806SOL    HW247024   2.517   6.796   4.819 -1.7033  0.1375 -0.2878
46807SOL     OW47025   7.094   4.406   3.880 -0.2375 -0.2805  0.1897
46807SOL    HW147026   6.999   4.422   3.878 -0.2586 -0.3960  0.2672
46807SOL    HW247027   7.104   4.332   3.940 -0.0100  0.3645  0.9720
46808SOL     OW47028   9.187   9.726   9.237  0.4429  0.0592 -0.4245
46808SOL    HW147029   9.257   9.744   9.299  1.2386 -1.1162 -0.9511
46808SOL    HW247030   9.226   9.748   9.151 -0.5277  1.3551 -0.5674
46809SOL     OW47031   1.440   7.783   3.545  0.8855 -0.1871  0.4429
46809SOL    HW147032   1.452   7.856   3.606  2.7171 -0.5678  0.5991
46809SOL    HW247033   1.454   7.822   3.459 -0.3339  0.0700  0.3459
46810SOL     OW47034   1.059   0.678   3.238  0.1499  0.2855 -0.4358
46810SOL    HW147035   1.107   0.731   3.175  0.0911 -0.6439 -1.2690
46810SOL    HW247036   0.975   0.724   3.248  0.1472  0.4259 -1.0593
46811SOL     OW47037   4.289  11.067  10.737 -0.6155  0.3301  0.2767
46811SOL    HW147038   4.281  10.978  10.770  1.0598  0.1644  0.3095
46811SOL    HW247039   4.332  11.115  10.808  1.0208  0.4860 -0.7701
46812SOL     OW47040   7.342   1.948   1.016  0.2316  0.1696  0.0621
46812SOL    HW147041   7.350   2.029   1.065 -0.3935  0.5668 -0.4696
46812SOL    HW247042   7.343   1.879   1.083 -2.2403  0.7722  0.8383
46813SOL     OW47043   5.665  10.022   3.434 -0.1898  0.3253 -0.1722
46813SOL    HW147044   5.717  10.025   3.354 -0.6381  2.0149 -0.4419
46813SOL    HW247045   5.714  10.075   3.497 -0.5434  0.1928  0.2233
46814SOL     OW47046   9.081   4.667  11.438  0.4926 -0.2181 -0.2808
46814SOL    HW147047   9.161   4.625  11.408  1.3978  1.6728 -0.6540
46814SOL    HW247048   9.010   4.614  11.401  1.5692 -1.1151 -1.1023
46815SOL     OW47049  10.310   3.472  11.738 -0.3407 -0.0451 -0.0168
46815SOL    HW147050  10.281   3.395  11.690 -0.5009  1.3796 -2.3964
46815SOL    HW247051  10.239   3.490  11.800 -0.2262 -1.8260  0.6921
46816SOL     OW47052   3.353   5.017   7.532  0.2694 -0.0994 -0.3906
46816SOL    HW147053   3.340   5.080   7.603 -0.6735  0.3574 -0.9584
46816SOL    HW247054   3.448   5.012   7.523  0.4455 -0.5493  1.2288
46817SOL     OW47055   1.959   4.461   6.822  0.4600 -0.1051 -0.4593
46817SOL    HW147056   1.885   4.404   6.803  0.0721  0.5788 -1.0693
46817SOL    HW247057   2.036   4.404   6.814  0.0579 -0.6148 -0.7248
46818SOL     OW47058  12.630   6.901   6.446  0.1981 -0.4128 -0.3566
46818SOL    HW147059  12.706   6.845   6.431 -0.3920 -1.0750 -0.9600
46818SOL    HW247060  12.660   6.989   6.422  0.9722 -0.5527  0.0766
46819SOL     OW47061   3.819   3.676  10.255 -0.2456  0.5484  0.2591
46819SOL    HW147062   3.751   3.698  10.192 -0.0960  1.3329  0.3596
46819SOL    HW247063   3.899   3.714  10.219  0.2806 -0.8556 -0.1550
46820SOL     OW47064   4.505   4.948   3.444  0.0559 -0.7601 -0.1219
46820SOL    HW147065   4.416   4.978   3.423 -0.0468 -0.8736  0.1546
46820SOL    HW247066   4.542   5.019   3.496  0.4936 -0.2424 -1.1152
46821SOL     OW47067   9.560   0.075   7.023 -0.2437 -0.1033 -0.1095
46821SOL    HW147068   9.603   0.071   7.109 -0.4212 -2.4867 -0.0702
46821SOL    HW247069   9.468   0.095   7.044 -0.4723 -1.5481  0.3672
46822SOL     OW47070   9.436   6.049   8.104 -0.1225  0.5505  0.0896
46822SOL    HW147071   9.347   6.015   8.108 -0.4768  1.4425  0.0760
46822SOL    HW247072   9.491   5.972   8.098 -0.8447 -0.0506  0.8725
46823SOL     OW47073  11.379   8.009   5.522  0.0750  0.4579  0.2571
46823SOL    HW147074  11.423   7.950   5.583  0.7922  0.1600 -0.5138
46823SOL    HW247075  11.430   8.090   5.526  0.0610  0.4729  0.1392
46824SOL     OW47076   0.743   4.928   5.555  0.5626  0.3652 -0.3914
46824SOL    HW147077   0.785   4.962   5.476  0.1149  1.1271 -0.3090
46824SOL    HW247078   0.650   4.941   5.539  0.2054 -2.5477 -1.1523
46825SOL     OW47079   7.157   0.300   6.421 -0.3840  0.1122  0.1714
46825SOL    HW147080   7.136   0.299   6.515 -1.7279  1.7723 -0.0646
46825SOL    HW247081   7.099   0.234   6.383 -0.2094 -0.1929  0.4252
46826SOL     OW47082   4.334   7.729  11.102 -0.4108 -0.2687  0.2779
46826SOL    HW147083   4.324   7.635  11.109  1.1284 -0.4658  0.1684
46826SOL    HW247084   4.372   7.743  11.015 -0.3258  0.4298  0.4148
46827SOL     OW47085   5.185   4.946  11.975  0.6086  0.0704 -0.0314
46827SOL    HW147086   5.110   4.939  12.034  1.0930  2.4006  0.9762
46827SOL    HW247087   5.258   4.908  12.024  0.6974  0.6556  0.3110
46828SOL     OW47088   0.777   4.956   6.225 -0.5547 -0.3072  0.3463
46828SOL    HW147089   0.787   5.040   6.181  0.3891 -1.0076 -0.8734
46828SOL    HW247090   0.840   4.899   6.180 -0.8766 -1.5456  1.4206
46829SOL     OW47091   8.627   1.298   7.490  0.3618 -0.0468  0.4907
46829SOL    HW147092   8.585   1.254   7.416 -1.0369  3.8558 -1.3332
46829SOL    HW247093   8.589   1.256   7.567  1.4595 -3.9083 -0.8758
46830SOL     OW47094   7.242   1.238   7.887  0.0954  0.4608 -1.3537
46830SOL    HW147095   7.254   1.240   7.982  0.5548  0.0864 -1.4015
46830SOL    HW247096   7.190   1.316   7.868 -0.5689  0.1808 -0.7191
46831SOL     OW47097   2.277   1.182   8.717  0.5111 -0.3073 -0.3535
46831SOL    HW147098   2.348   1.228   8.672  0.8524 -0.7890 -0.3172
46831SOL    HW247099   2.261   1.234   8.796 -1.0480  1.3239 -1.6772
46832SOL     OW47100   9.166  12.340   9.126 -0.0931 -0.7277  0.2604
46832SOL    HW147101   9.128  12.404   9.186 -1.8454 -2.1616  0.7565
46832SOL    HW247102   9.260  12.360   9.127 -0.6910  2.6730 -0.7044
46833SOL     OW47103   5.683   2.903   2.383 -0.1108 -0.4141  0.2948
46833SOL    HW147104   5.756   2.873   2.437 -0.2738 -1.7101 -0.1697
46833SOL    HW247105   5.607   2.854   2.415 -0.7381  0.7404  0.6115
46834SOL     OW47106   8.257   8.348   8.782 -0.1780  0.2189  0.4476
46834SOL    HW147107   8.191   8.351   8.851 -1.5310 -3.0791 -0.5198
46834SOL    HW247108   8.208   8.360   8.700  0.8305  0.4200 -0.1500
46835SOL     OW47109  10.416   6.284   1.906 -0.1120  0.2632 -0.1264
46835SOL    HW147110  10.458   6.229   1.971  0.7224  1.1731  0.1205
46835SOL    HW247111  10.435   6.241   1.822 -0.0501 -0.1807  0.1117
46836SOL     OW47112   4.300  12.035   9.597 -0.0871  0.0649  0.2133
46836SOL    HW147113   4.234  12.004   9.534  0.4987 -0.4584 -0.1564
46836SOL    HW247114   4.342  11.955   9.629  0.7682  0.4145  0.0010
46837SOL     OW47115   6.139   8.937   1.928  0.2429 -0.3319 -0.3688
46837SOL    HW147116   6.070   8.992   1.891  0.1697  0.0058  0.2622
46837SOL    HW247117   6.207   8.998   1.955  0.4625 -0.6051 -0.2918
46838SOL     OW47118  12.706   6.620   5.893 -0.3318  0.3286  0.7671
46838SOL    HW147119  12.615   6.593   5.881  0.0277 -0.4441 -0.4068
46838SOL    HW247120  12.703   6.687   5.961 -1.9840  1.5176 -0.3955
46839SOL     OW47121   8.914   3.158  12.115  0.6695  0.2694  0.7327
46839SOL    HW147122   8.875   3.080  12.154 -1.4447  1.3404  0.8971
46839SOL    HW247123   8.856   3.230  12.141  1.4702  1.6183 -0.9893
46840SOL     OW47124   3.733   3.851   0.679  0.3342 -0.0598  0.2125
46840SOL    HW147125   3.676   3.791   0.726 -1.1050  1.0306 -0.0752
46840SOL    HW247126   3.694   3.938   0.693  3.7016  1.2598  2.7328
46841SOL     OW47127  10.426   5.434   1.334  0.4029 -0.7714 -0.7514
46841SOL    HW147128  10.406   5.520   1.299  0.6904 -0.6319 -0.5817
46841SOL    HW247129  10.521   5.435   1.347  0.1803 -0.3677  1.1497
46842SOL     OW47130   5.759   1.338  11.096 -0.0478  0.1645 -0.1802
46842SOL    HW147131   5.682   1.297  11.136 -0.1505 -0.5817 -1.1033
46842SOL    HW247132   5.723   1.406  11.040 -0.0004  0.1888 -0.1809
46843SOL     OW47133   1.241  10.520   1.274 -0.3974  0.3454  0.0360
46843SOL    HW147134   1.243  10.552   1.364  0.6262  1.9189 -0.4992
46843SOL    HW247135   1.320  10.466   1.267 -0.2005  0.6385 -0.0430
46844SOL     OW47136  10.155   9.761   5.718  0.1009  0.7053  0.0889
46844SOL    HW147137  10.078   9.705   5.730  0.6057 -0.3164 -1.1527
46844SOL    HW247138  10.164   9.807   5.801  0.4572 -2.1017  1.7415
46845SOL     OW47139   1.277  11.625   7.320 -0.0124 -0.2632  0.6052
46845SOL    HW147140   1.246  11.535   7.328  2.0825 -1.2591 -1.3713
46845SOL    HW247141   1.198  11.676   7.300 -1.0281 -1.8827  0.2888
46846SOL     OW47142   7.585   9.576   7.346 -0.0607  0.0022 -0.7008
46846SOL    HW147143   7.599   9.669   7.363 -1.8577  0.6256 -2.2851
46846SOL    HW247144   7.521   9.548   7.411  2.4916 -0.9595  1.6387
46847SOL     OW47145  10.976   9.952   4.658  0.2173  0.5100 -0.3368
46847SOL    HW147146  10.976   9.938   4.563 -2.2141  1.2293 -0.5227
46847SOL    HW247147  10.947  10.042   4.669 -1.9244 -0.2624  1.0835
46848SOL     OW47148  11.672  11.945  12.338 -0.3170 -0.2350 -0.9021
46848SOL    HW147149  11.582  11.971  12.317 -1.2353 -1.3590  1.3367
46848SOL    HW247150  11.693  11.994  12.417 -0.2858 -2.5075  0.5817
46849SOL     OW47151   8.354  11.883   2.786 -0.1637 -0.0985  0.1165
46849SOL    HW147152   8.289  11.813   2.783 -0.1991 -0.0643  0.0903
46849SOL    HW247153   8.411  11.860   2.859 -0.4538  0.0906  0.4034
46850SOL     OW47154   6.931   9.199   4.873 -0.1668  0.2645 -0.2418
46850SOL    HW147155   7.021   9.225   4.853 -0.0132 -1.1462 -1.5708
46850SOL    HW247156   6.932   9.181   4.967  1.1735 -0.5274 -0.3774
46851SOL     OW47157   2.443   5.735   6.288 -0.1358  0.0462 -0.1427
46851SOL    HW147158   2.385   5.807   6.266  0.6561  0.4097 -1.1248
46851SOL    HW247159   2.530   5.766   6.263  0.1889 -1.3522 -0.8863
46852SOL     OW47160  11.155   8.498   2.655  0.2297  0.5420 -0.5130
46852SOL    HW147161  11.126   8.492   2.746  0.6675 -0.7732 -0.4307
46852SOL    HW247162  11.120   8.581   2.624  0.7781  1.4274  1.0978
46853SOL     OW47163  12.251   3.807   9.224 -0.1994 -0.6963 -0.5751
46853SOL    HW147164  12.183   3.820   9.158 -0.6235 -0.8770 -0.1800
46853SOL    HW247165  12.262   3.712   9.228  0.3914 -0.6491 -0.9487
46854SOL     OW47166  10.027   8.453  10.255 -0.4058  0.9037  0.0213
46854SOL    HW147167  10.010   8.505  10.177  0.5662 -0.3577 -1.0919
46854SOL    HW247168   9.979   8.497  10.325 -1.6009  1.8684 -1.3561
46855SOL     OW47169  11.941  11.235   8.186 -0.6652  0.2843  0.4195
46855SOL    HW147170  11.854  11.273   8.198 -1.5060 -1.4726  0.2237
46855SOL    HW247171  11.961  11.249   8.094  0.0513  2.2169  0.8328
46856SOL     OW47172  10.165   6.417   6.625  0.0902 -0.4097  0.0556
46856SOL    HW147173  10.104   6.344   6.636 -1.1323  0.4495 -0.7954
46856SOL    HW247174  10.201   6.431   6.713 -1.6281 -0.3579  0.7872
46857SOL     OW47175   2.391  10.281   5.475 -0.0219  0.0088 -0.0529
46857SOL    HW147176   2.362  10.359   5.523  0.3439 -0.4194  0.8709
46857SOL    HW247177   2.319  10.263   5.414 -0.7518  0.2114  0.7336
46858SOL     OW47178   1.862   5.830   1.925  0.0406 -0.3461  0.4231
46858SOL    HW147179   1.806   5.805   1.852 -2.3559  0.4060  1.8705
46858SOL    HW247180   1.813   5.801   2.003  1.2465  1.1359  1.7991
46859SOL     OW47181   2.219   5.383   7.872  0.0917 -0.3359 -0.2678
46859SOL    HW147182   2.292   5.329   7.902 -1.9897 -2.0320  2.1701
46859SOL    HW247183   2.203   5.353   7.783  2.2095 -0.0122 -0.8146
46860SOL     OW47184  10.085   3.574  10.859 -0.0170  0.3049  0.0926
46860SOL    HW147185  10.095   3.654  10.911  0.2268 -0.3779  1.1202
46860SOL    HW247186  10.174   3.540  10.849 -0.3303 -1.3018  2.0746
46861SOL     OW47187   3.479   3.349   2.019  0.7387 -0.1294 -0.2163
46861SOL    HW147188   3.474   3.260   1.983  0.7320 -0.4720  0.6048
46861SOL    HW247189   3.569   3.376   2.001  0.8852 -0.4927 -0.0392
46862SOL     OW47190   5.007   3.234  11.254  0.3546 -0.1043  0.3231
46862SOL    HW147191   5.090   3.238  11.301  0.6168 -0.6270 -0.0916
46862SOL    HW247192   5.023   3.175  11.181 -0.9021 -1.6983  1.2728
46863SOL     OW47193   3.229   3.086   5.852 -0.6309 -0.1493 -0.0833
46863SOL    HW147194   3.143   3.127   5.859 -0.1760  0.6868  0.8640
46863SOL    HW247195   3.291   3.157   5.870  0.2623 -0.7577 -0.6703
46864SOL     OW47196   0.097   3.937   3.139 -0.8887 -0.3193  0.0391
46864SOL    HW147197   0.192   3.941   3.128 -0.8083  2.3448  1.0617
46864SOL    HW247198   0.063   3.918   3.051  0.4521  2.4453 -1.1736
46865SOL     OW47199   5.881  10.563   2.286  0.7086  0.1370  0.9052
46865SOL    HW147200   5.943  10.631   2.309  1.5123 -0.3347  0.1957
46865SOL    HW247201   5.796  10.596   2.316  0.9004  1.9591 -0.4406
46866SOL     OW47202   9.610  11.285   6.514 -0.2056  0.3984 -0.4390
46866SOL    HW147203   9.678  11.338   6.555 -0.0354 -0.5927  0.6031
46866SOL    HW247204   9.627  11.196   6.545 -2.7199  0.3024  0.9083
46867SOL     OW47205  12.318   2.383  11.254  0.2704 -0.2436  0.7407
46867SOL    HW147206  12.315   2.445  11.181 -1.8699 -0.9824  0.1370
46867SOL    HW247207  12.298   2.437  11.331 -1.5585 -0.1051  0.2225
46868SOL     OW47208   2.842  10.363  10.325  0.0551 -0.2424  0.2013
46868SOL    HW147209   2.755  10.401  10.340 -0.8222 -2.2204  0.4423
46868SOL    HW247210   2.844  10.286  10.382  2.7606  0.8037  1.7035
46869SOL     OW47211   8.909  12.784   1.135  0.1836 -0.3673  0.6721
46869SOL    HW147212   8.978  12.828   1.185  0.8813 -1.7237  0.9668
46869SOL    HW247213   8.926  12.691   1.149  0.5291 -0.8282 -2.2659
46870SOL     OW47214  11.541  10.688   0.206  0.2267  0.0587 -0.3308
46870SOL    HW147215  11.577  10.599   0.204 -2.1437 -1.0126  0.8329
46870SOL    HW247216  11.519  10.702   0.298 -3.9760 -0.1846 -1.1061
46871SOL     OW47217   2.901   0.919  11.558 -0.1526 -0.1480  0.2967
46871SOL    HW147218   2.813   0.883  11.552  0.0216 -0.6677  0.7450
46871SOL    HW247219   2.892   0.997  11.613 -0.1685 -0.8186  1.2818
46872SOL     OW47220  11.101   4.896   0.347 -0.1638 -0.0616  0.3338
46872SOL    HW147221  11.123   4.869   0.258 -1.2953  1.6107 -0.5017
46872SOL    HW247222  11.184   4.890   0.395  0.9539  1.0264 -1.3669
46873SOL     OW47223  12.388   6.672  12.004 -0.5213 -0.2046  0.4688
46873SOL    HW147224  12.380   6.766  11.987  0.8340 -0.5518 -2.8695
46873SOL    HW247225  12.332   6.631  11.938 -0.6839 -1.7858  1.5356
46874SOL     OW47226   2.311   0.997   7.861  0.4328  0.0863 -0.3328
46874SOL    HW147227   2.229   1.012   7.815  0.4770 -0.6290 -0.6567
46874SOL    HW247228   2.284   0.957   7.944  0.4555 -0.1794 -0.4536
46875SOL     OW47229  10.696  11.053   7.154 -0.3244  0.6371 -0.0003
46875SOL    HW147230  10.641  11.035   7.078 -2.2004  3.4016  0.5547
46875SOL    HW247231  10.760  11.116   7.123 -0.9929  1.6477  0.6041
46876SOL     OW47232   6.724   8.794   2.686 -0.0812  0.1943 -0.1053
46876SOL    HW147233   6.629   8.790   2.696 -0.2696 -2.4161 -1.9745
46876SOL    HW247234   6.738   8.871   2.630 -1.4554 -1.0622 -2.3328
46877SOL     OW47235   7.159   2.212   5.197  0.1048  0.2987 -0.6255
46877SOL    HW147236   7.243   2.167   5.185  0.1835 -1.1121  3.4006
46877SOL    HW247237   7.097   2.161   5.145  1.2806 -0.4451 -1.3552
46878SOL     OW47238   9.898  11.937   6.552  0.1290 -0.2566  0.2319
46878SOL    HW147239   9.873  11.884   6.477  0.2050  2.2408 -1.6824
46878SOL    HW247240   9.814  11.964   6.590  0.0860 -0.8181  0.5559
46879SOL     OW47241   1.079   4.918   2.828 -0.2218  0.2405  0.0685
46879SOL    HW147242   1.052   5.010   2.823 -0.8102  0.0999  0.5369
46879SOL    HW247243   0.999   4.871   2.853  0.4597 -0.1618  1.6461
46880SOL     OW47244   8.537   5.227   8.846 -0.2090  0.1209  0.2678
46880SOL    HW147245   8.489   5.297   8.801 -0.0914 -0.3728 -0.6452
46880SOL    HW247246   8.616   5.214   8.794 -0.7955 -1.5024 -0.2737
46881SOL     OW47247   9.580   0.121   6.706 -0.1650 -0.4574 -0.2301
46881SOL    HW147248   9.604   0.065   6.779  1.1007  2.2530  1.6201
46881SOL    HW247249   9.662   0.162   6.678 -0.8626 -0.2520 -2.1734
46882SOL     OW47250  12.425   4.514   5.636  0.0826 -0.8399  0.2113
46882SOL    HW147251  12.390   4.440   5.685 -0.6755 -0.8336 -0.2921
46882SOL    HW247252  12.405   4.590   5.690  0.5160 -0.9606  0.5473
46883SOL     OW47253   2.971   7.783   2.290  1.2294  0.1593  0.0185
46883SOL    HW147254   3.019   7.784   2.207 -0.9422  0.3867 -1.3019
46883SOL    HW247255   2.980   7.693   2.321  0.3266 -0.5019 -1.5562
46884SOL     OW47256  10.415   6.149  12.635 -0.0576 -0.4473  0.1834
46884SOL    HW147257  10.405   6.062  12.594  1.3949 -0.5965  0.0904
46884SOL    HW247258  10.420   6.131  12.728 -0.9749 -0.3357  0.2600
46885SOL     OW47259   5.879  10.749   3.246 -0.3512 -0.3993  0.0557
46885SOL    HW147260   5.823  10.772   3.320 -0.7676 -0.4325 -0.2426
46885SOL    HW247261   5.912  10.662   3.266  0.3623  0.0095  0.6849
46886SOL     OW47262   6.381  12.722   5.587  0.2811 -0.5371  0.6020
46886SOL    HW147263   6.389  12.635   5.549  0.0019 -0.2276 -0.2018
46886SOL    HW247264   6.306  12.716   5.646  0.8213 -1.0714  1.2478
46887SOL     OW47265   8.723   9.469  10.982  0.4426  0.0921 -0.1539
46887SOL    HW147266   8.654   9.479  10.917 -3.1083  0.8324  3.3165
46887SOL    HW247267   8.740   9.558  11.013  1.6495 -0.2870  0.3401
46888SOL     OW47268  12.471   2.430   4.456 -0.4330 -0.1098  0.7910
46888SOL    HW147269  12.377   2.439   4.472 -0.2240  3.2885  0.8666
46888SOL    HW247270  12.501   2.368   4.523 -2.4407 -0.5014  1.4019
46889SOL     OW47271  10.471   9.550   0.968  0.1810 -0.1066  0.2658
46889SOL    HW147272  10.393   9.599   0.994  0.1462  0.4173 -0.7523
46889SOL    HW247273  10.531   9.559   1.043 -0.3170  0.4080  0.6128
46890SOL     OW47274   1.372   8.075   2.023 -0.1238  0.5285  0.3516
46890SOL    HW147275   1.449   8.078   2.079  0.9024  0.4675 -1.0063
46890SOL    HW247276   1.330   7.992   2.044  1.0026 -0.1279  0.0754
46891SOL     OW47277  11.614  12.349   5.632 -0.3127  0.6036  0.1361
46891SOL    HW147278  11.606  12.444   5.641  0.4518  0.7215 -0.3414
46891SOL    HW247279  11.690  12.326   5.685  0.4425  0.4811 -0.9567
46892SOL     OW47280  11.530   0.539   3.826 -0.4585 -0.1702  0.0734
46892SOL    HW147281  11.532   0.585   3.742 -0.5088 -0.0516  0.1375
46892SOL    HW247282  11.437   0.533   3.847 -0.3959  0.7396  0.6374
46893SOL     OW47283  10.936   0.073   4.239  0.6933 -0.1338 -0.3073
46893SOL    HW147284  10.994   0.149   4.250 -0.1110  1.1568 -3.6981
46893SOL    HW247285  10.894   0.063   4.325  3.7558  0.6400  1.4440
46894SOL     OW47286   3.528   1.824   3.497 -0.3294 -0.5627  0.3741
46894SOL    HW147287   3.462   1.821   3.566 -0.3206 -0.6399  0.3790
46894SOL    HW247288   3.575   1.906   3.512 -0.3707 -0.5475  0.4197
46895SOL     OW47289   3.053  10.341   0.900 -0.5479  0.2242 -0.2155
46895SOL    HW147290   3.003  10.386   0.832 -1.8656  1.6084  1.5906
46895SOL    HW247291   3.047  10.399   0.976  2.6122 -0.2581  0.5309
46896SOL     OW47292   4.758   7.912   8.133  0.3813  0.5861 -0.1901
46896SOL    HW147293   4.692   7.943   8.195 -0.2369 -0.8761 -0.0597
46896SOL    HW247294   4.709   7.894   8.053  0.4317 -1.2050  0.1289
46897SOL     OW47295   7.336   9.937   9.072  0.6955 -0.1193  0.1436
46897SOL    HW147296   7.245   9.954   9.048  0.9714 -0.8085 -1.5441
46897SOL    HW247297   7.341   9.842   9.081  1.0301 -0.0106  1.2642
46898SOL     OW47298   9.786   8.433   9.086 -0.1651  0.4832  0.3486
46898SOL    HW147299   9.834   8.505   9.128 -1.6252  0.6615  1.8167
46898SOL    HW247300   9.770   8.371   9.156 -1.2329 -0.0145 -0.3178
46899SOL     OW47301  10.361   6.212   2.979 -0.2986 -0.3139  0.0765
46899SOL    HW147302  10.404   6.292   2.950 -0.1429 -0.8284 -1.1630
46899SOL    HW247303  10.268   6.225   2.958 -0.2170 -0.6066 -0.4654
46900SOL     OW47304   6.916   6.489   4.208  0.6018 -0.1166 -0.2985
46900SOL    HW147305   6.869   6.504   4.290 -0.1909  1.2739 -0.9540
46900SOL    HW247306   6.874   6.412   4.170 -0.1832  0.2337 -0.1720
46901SOL     OW47307   0.247  10.865   2.914  0.8776 -0.5841 -0.5509
46901SOL    HW147308   0.174  10.928   2.908  2.2973  1.4123  1.3799
46901SOL    HW247309   0.260  10.853   3.008  4.1722  0.6343 -0.7284
46902SOL     OW47310   1.067   0.845  10.404 -0.2190 -0.1706  0.4236
46902SOL    HW147311   1.036   0.921  10.453 -0.2209 -0.5416  1.0105
46902SOL    HW247312   1.072   0.875  10.313 -0.6807  0.3827  0.5771
46903SOL     OW47313   5.983  12.041   3.150 -0.4281  0.4313  0.1334
46903SOL    HW147314   5.999  12.098   3.074 -0.5576  0.3054  0.0117
46903SOL    HW247315   5.892  12.059   3.174 -0.2159  0.8862  0.6066
46904SOL     OW47316   8.092  12.063   1.857 -0.1083 -0.1126  0.0241
46904SOL    HW147317   8.128  12.151   1.850  0.1569 -0.0357  1.9618
46904SOL    HW247318   8.136  12.025   1.933 -3.6006 -0.2434  2.1813
46905SOL     OW47319   9.366   3.610   3.321 -0.8675  0.5417  0.7670
46905SOL    HW147320   9.295   3.639   3.378 -0.3767  0.3940  1.4608
46905SOL    HW247321   9.416   3.690   3.302 -1.4143  0.7069 -0.0091
46906SOL     OW47322   8.053  12.483   3.917  0.2400 -0.2935 -0.0838
46906SOL    HW147323   8.146  12.468   3.901  0.2597 -0.8067  0.4592
46906SOL    HW247324   8.027  12.413   3.977 -0.4978 -0.1548 -0.2253
46907SOL     OW47325  12.723   3.378   1.593 -0.2837 -0.0480 -0.0027
46907SOL    HW147326  12.629   3.384   1.572 -1.3508 -2.0821  3.3098
46907SOL    HW247327  12.743   3.285   1.583  1.0280  0.1494  0.6007
46908SOL     OW47328   5.221   8.673   8.228 -0.6166 -0.4582 -0.6288
46908SOL    HW147329   5.272   8.730   8.171  0.0235 -0.8205 -0.4299
46908SOL    HW247330   5.234   8.585   8.193 -2.5632 -0.3955 -1.6643
46909SOL     OW47331   9.570   6.352   4.626 -0.5163  0.0567  0.1115
46909SOL    HW147332   9.597   6.435   4.587 -0.8840 -0.2617 -0.8694
46909SOL    HW247333   9.625   6.342   4.703  0.5252  0.5388 -0.5482
46910SOL     OW47334  10.144   8.500  12.662 -0.3396  0.0337 -0.0074
46910SOL    HW147335  10.165   8.544  12.579  0.1171  0.7429  0.4727
46910SOL    HW247336  10.187   8.415  12.656  0.3486  0.3860 -0.1891
46911SOL     OW47337   4.542   5.598   4.923 -0.0189  0.0518  0.4487
46911SOL    HW147338   4.604   5.623   4.854  0.4213  1.2561  1.2551
46911SOL    HW247339   4.558   5.504   4.936  0.7714  0.0835 -0.2115
46912SOL     OW47340   1.130   9.401   1.208 -0.1181 -0.1997 -0.2623
46912SOL    HW147341   1.224   9.398   1.225 -0.2936 -0.2996  0.7292
46912SOL    HW247342   1.090   9.399   1.294 -1.0292  0.2583 -0.6670
46913SOL     OW47343   9.116   2.454  12.755  0.0203  0.0041  0.1805
46913SOL    HW147344   9.204   2.491  12.764 -0.1883  0.5979 -0.1739
46913SOL    HW247345   9.129   2.372  12.706  0.3268  0.2862 -0.2172
46914SOL     OW47346  10.705   5.095  11.318 -0.1246 -0.1493 -0.6163
46914SOL    HW147347  10.639   5.163  11.328 -0.7287 -0.4808 -2.0745
46914SOL    HW247348  10.714   5.084  11.223  1.4322 -0.6882 -0.4356
46915SOL     OW47349   6.589   7.655   3.277 -0.1791  0.0025  0.3649
46915SOL    HW147350   6.612   7.563   3.294 -0.6342  0.0263  1.1538
46915SOL    HW247351   6.637   7.677   3.198  0.3097 -0.7801  0.4291
46916SOL     OW47352   1.025   8.856   3.374  0.0533 -0.0809 -0.2941
46916SOL    HW147353   0.968   8.901   3.436 -0.2725  0.2242 -0.7984
46916SOL    HW247354   0.996   8.888   3.288  0.2258 -0.7862 -0.6255
46917SOL     OW47355  10.433   9.884   3.812 -0.4037 -0.0479  0.3311
46917SOL    HW147356  10.374   9.950   3.777  0.1403  0.3592  0.1758
46917SOL    HW247357  10.434   9.815   3.746  1.0366  0.9505 -0.7625
46918SOL     OW47358   5.500   1.889   7.711 -0.5031  0.5359  0.5670
46918SOL    HW147359   5.412   1.853   7.695 -0.8399  0.9323  1.4447
46918SOL    HW247360   5.506   1.965   7.654 -0.5210  0.2058  0.1156
46919SOL     OW47361   1.071   0.607   9.343 -0.3017 -0.0214 -0.1575
46919SOL    HW147362   1.027   0.531   9.305 -1.6419  0.9353 -0.5827
46919SOL    HW247363   1.054   0.678   9.281  1.3620  0.5416 -0.0298
46920SOL     OW47364   3.036   3.129   8.649 -0.4364 -0.3902  0.2250
46920SOL    HW147365   3.049   3.184   8.726 -0.0440 -0.8086  0.4629
46920SOL    HW247366   3.096   3.165   8.583 -0.3376 -0.3974  0.3108
46921SOL     OW47367   6.938  10.521  10.097 -0.4264 -0.1790  0.6397
46921SOL    HW147368   6.999  10.454  10.067  1.2431  1.0948  1.0833
46921SOL    HW247369   6.856  10.473  10.113  0.2096 -1.8028 -0.6488
46922SOL     OW47370   7.739   5.993   2.269 -0.3724  0.5211  0.5403
46922SOL    HW147371   7.832   5.978   2.248 -0.3594  2.7300 -1.3262
46922SOL    HW247372   7.694   5.988   2.185 -1.7499  0.8385  1.2315
46923SOL     OW47373  11.697   5.235   1.511 -0.5058 -0.1314 -0.0569
46923SOL    HW147374  11.760   5.230   1.583 -0.3500 -1.0919 -0.2448
46923SOL    HW247375  11.643   5.312   1.531 -0.0458 -0.0046  0.7350
46924SOL     OW47376  11.939   9.524   3.503  0.5766 -0.3909  0.0647
46924SOL    HW147377  11.899   9.449   3.546 -0.0530 -0.0500  0.0764
46924SOL    HW247378  11.990   9.567   3.573  0.6111 -0.5735  0.1525
46925SOL     OW47379   1.760  11.200   5.453  0.2901 -0.6228  0.2104
46925SOL    HW147380   1.829  11.257   5.486 -0.0085  1.2868 -2.1899
46925SOL    HW247381   1.802  11.149   5.384 -0.0527 -1.5344  0.6615
46926SOL     OW47382   0.490  10.520  10.435 -0.2139  0.3524  0.3944
46926SOL    HW147383   0.428  10.448  10.438 -1.1176  1.0756 -0.1310
46926SOL    HW247384   0.576  10.479  10.432 -0.7008 -0.6824  0.3973
46927SOL     OW47385  11.916   2.161   8.428 -0.6502  0.3557 -0.5403
46927SOL    HW147386  11.886   2.141   8.339 -1.2519 -2.9276  0.2888
46927SOL    HW247387  11.955   2.080   8.460 -0.2840  1.4783  2.1714
46928SOL     OW47388   4.433   6.839   8.776 -0.6459  0.0509  0.1179
46928SOL    HW147389   4.512   6.855   8.828 -0.2637 -1.3366  0.0163
46928SOL    HW247390   4.464   6.840   8.685 -0.5840 -1.1649  0.1051
46929SOL     OW47391   3.982   1.586  10.610  0.0805  0.4455  0.8625
46929SOL    HW147392   4.027   1.661  10.650  1.0285  0.8669 -0.9192
46929SOL    HW247393   3.995   1.597  10.516 -1.1348 -1.1163  0.4700
46930SOL     OW47394  11.955  11.141  12.089 -0.3629 -0.5737  0.0346
46930SOL    HW147395  11.986  11.146  12.179 -1.6500  0.1263  0.4598
46930SOL    HW247396  11.877  11.085  12.093 -1.1692  0.4722 -0.4143
46931SOL     OW47397  11.112   0.363   2.429  0.3645  0.6250 -0.1304
46931SOL    HW147398  11.022   0.382   2.401  0.1596  0.0324  0.1245
46931SOL    HW247399  11.124   0.270   2.411  1.0598  0.7854 -0.5169
46932SOL     OW47400   5.038   8.718   2.449  0.2017 -0.4146  0.5021
46932SOL    HW147401   5.031   8.793   2.508  0.1073 -0.0683  0.0543
46932SOL    HW247402   5.125   8.726   2.410 -0.1620 -0.0123 -0.2444
46933SOL     OW47403   6.302  12.451   9.662  0.5201  0.1958 -0.3623
46933SOL    HW147404   6.258  12.478   9.743 -0.6815 -1.0840 -0.5423
46933SOL    HW247405   6.393  12.478   9.674  0.6167 -0.8586  1.9011
46934SOL     OW47406  11.680  12.625   0.127  0.6652  0.0058  0.2134
46934SOL    HW147407  11.588  12.652   0.131  0.8261  0.4232  2.0031
46934SOL    HW247408  11.690  12.563   0.199  1.8801  0.3093  0.3277
46935SOL     OW47409   4.999  10.238   8.354 -0.1701 -0.0170 -0.0260
46935SOL    HW147410   4.952  10.309   8.312 -1.0970 -0.1550  0.7429
46935SOL    HW247411   5.078  10.279   8.389 -1.3588  0.9846  1.6502
46936SOL     OW47412   6.763   9.742   4.934 -0.2858 -0.1144  0.2999
46936SOL    HW147413   6.752   9.828   4.894 -0.4068 -0.5448 -0.6092
46936SOL    HW247414   6.717   9.682   4.875  0.8047 -0.9680  0.2921
46937SOL     OW47415  10.635   6.532   0.825  0.3273 -0.4245 -0.0116
46937SOL    HW147416  10.552   6.505   0.787  0.5380 -0.9332 -0.1155
46937SOL    HW247417  10.630   6.627   0.830  0.2304 -0.3583 -1.1550
46938SOL     OW47418   1.819   9.823   6.031  0.4461  0.5620  0.4952
46938SOL    HW147419   1.775   9.752   5.985  1.3677 -0.4577  1.1419
46938SOL    HW247420   1.760   9.845   6.103  0.4396  0.0319  0.6522
46939SOL     OW47421   1.246  10.396   1.803  0.2173  0.1871 -0.3610
46939SOL    HW147422   1.171  10.420   1.748 -0.6055  0.0746  0.6705
46939SOL    HW247423   1.298  10.476   1.808 -0.1180  0.4289 -0.6508
46940SOL     OW47424  10.136   7.014  12.207 -0.0533  0.7795 -0.5815
46940SOL    HW147425  10.142   7.094  12.155  1.2467  0.8516 -0.3586
46940SOL    HW247426  10.189   6.950  12.159  1.2987  0.8938  0.6837
46941SOL     OW47427   5.714   6.958   8.707  0.2104  0.3915 -0.2081
46941SOL    HW147428   5.723   6.905   8.627  0.1355  0.7619 -0.4668
46941SOL    HW247429   5.625   6.940   8.737  0.2327  0.2624 -0.2181
46942SOL     OW47430  11.814   6.857   9.664  0.2275  0.0710  0.1226
46942SOL    HW147431  11.901   6.827   9.689  0.1642  0.9318  1.4204
46942SOL    HW247432  11.754   6.792   9.701  0.2556  0.0810  0.1860
46943SOL     OW47433   3.145   4.859   1.886 -0.1323  0.5055  0.7036
46943SOL    HW147434   3.214   4.922   1.909  0.5141  0.0690  0.0201
46943SOL    HW247435   3.183   4.808   1.815 -1.1932  0.2830  0.2892
46944SOL     OW47436   3.618   1.284   5.209 -0.1901  0.1159  0.9304
46944SOL    HW147437   3.582   1.345   5.143 -0.2921  1.3157  2.0476
46944SOL    HW247438   3.667   1.220   5.158  0.2763  1.3831 -0.3000
46945SOL     OW47439   4.427   6.978   0.732 -0.9699 -0.1308 -0.0938
46945SOL    HW147440   4.350   7.035   0.734 -2.1021 -1.5870  0.1018
46945SOL    HW247441   4.391   6.891   0.716  0.7016 -0.7885 -0.4686
46946SOL     OW47442   4.898   4.984   1.882 -0.6040  0.4206 -0.5829
46946SOL    HW147443   4.946   4.946   1.955 -0.5956  1.6518  0.0766
46946SOL    HW247444   4.965   4.996   1.814 -0.5860 -0.5990 -0.7643
46947SOL     OW47445   0.948   7.051   1.078  0.2255  0.2501  0.8617
46947SOL    HW147446   1.010   7.106   1.029 -1.1968 -0.2820 -1.7020
46947SOL    HW247447   0.866   7.100   1.075 -0.4092 -0.7993  0.8931
46948SOL     OW47448   5.075   8.617   1.571 -0.3992 -0.1545 -0.0882
46948SOL    HW147449   5.058   8.596   1.663 -1.9079  0.4233 -0.2043
46948SOL    HW247450   5.000   8.581   1.524  0.0544  0.0908 -1.0148
46949SOL     OW47451  10.286   7.330   6.028 -0.4148  0.1408 -0.2568
46949SOL    HW147452  10.206   7.279   6.021 -1.2323  1.1457  1.1282
46949SOL    HW247453  10.355   7.271   5.997 -1.5168 -1.2065 -0.2620
46950SOL     OW47454  10.657   0.065   7.041  0.2738  0.0768 -0.4720
46950SOL    HW147455  10.655  -0.023   7.079 -0.5012  0.7905  1.2513
46950SOL    HW247456  10.678   0.122   7.115  1.7368  1.2638 -1.7555
46951SOL     OW47457   6.013  10.596   9.539  0.4037  0.3889 -0.1696
46951SOL    HW147458   5.957  10.655   9.488  0.4339  0.8042  0.2694
46951SOL    HW247459   5.980  10.604   9.628  2.2298  1.9551  0.4240
46952SOL     OW47460   3.578   8.681  11.061  0.6619  0.1237 -0.3948
46952SOL    HW147461   3.645   8.668  11.129 -0.9226  2.3905  1.7945
46952SOL    HW247462   3.498   8.647  11.100 -0.1523  0.7978 -1.4300
46953SOL     OW47463  10.199   7.977   0.312 -0.1669 -0.2736  0.6893
46953SOL    HW147464  10.118   7.933   0.286  0.5530 -0.9169 -0.5351
46953SOL    HW247465  10.185   8.069   0.289 -0.1751 -0.5569 -0.4715
46954SOL     OW47466   8.655  12.064   9.479 -0.7032  0.2029  0.2799
46954SOL    HW147467   8.686  12.134   9.536 -0.4887  0.7196 -0.4672
46954SOL    HW247468   8.602  12.009   9.536  0.3394  0.1436  1.2223
46955SOL     OW47469  11.544  12.451   7.243  0.0892  0.0954  0.3271
46955SOL    HW147470  11.519  12.543   7.246  2.3426  0.8777 -1.6478
46955SOL    HW247471  11.499  12.415   7.167  0.5762  0.0442  0.0572
46956SOL     OW47472   9.145   9.128  12.230 -0.0891 -0.1680  0.3204
46956SOL    HW147473   9.240   9.123  12.219 -0.1578 -1.0204  0.0299
46956SOL    HW247474   9.114   9.176  12.153  0.1977  1.1058  0.9732
46957SOL     OW47475   9.773   0.633   6.838 -0.6252  0.0112  0.0262
46957SOL    HW147476   9.702   0.579   6.804  0.2359 -0.3856 -1.2403
46957SOL    HW247477   9.841   0.570   6.863 -0.7062  0.3798  1.2602
46958SOL     OW47478   2.996   8.115   4.962 -0.3750  0.0801  0.1729
46958SOL    HW147479   3.052   8.113   5.040  0.9126  1.1695 -0.6739
46958SOL    HW247480   3.024   8.040   4.911  0.9287  1.0528 -0.6120
46959SOL     OW47481   3.867  10.251   8.800 -0.1783  0.5370  0.1140
46959SOL    HW147482   3.795  10.190   8.816 -0.4767  0.8883  0.1202
46959SOL    HW247483   3.840  10.332   8.842 -0.4649  1.1308 -1.1508
46960SOL     OW47484  12.399   3.047  12.208 -0.2667  0.5290  0.0564
46960SOL    HW147485  12.387   3.002  12.124 -3.0256  0.4238  0.4172
46960SOL    HW247486  12.359   3.133  12.195  1.1551  1.3253  0.6827
46961SOL     OW47487   3.167  11.932  12.566  0.3278  0.0171  0.1017
46961SOL    HW147488   3.240  11.873  12.584 -1.3537 -2.5420 -0.9706
46961SOL    HW247489   3.190  11.975  12.484  1.0024 -0.0767  0.2384
46962SOL     OW47490   1.077   4.478  11.728  0.8320  0.0122 -0.1168
46962SOL    HW147491   1.145   4.546  11.733  1.2875 -0.3721 -0.9144
46962SOL    HW247492   1.014   4.502  11.796  0.9914  1.2300 -0.3759
46963SOL     OW47493   4.996   3.138   8.987  0.6279 -0.5265  0.1194
46963SOL    HW147494   5.057   3.073   8.954  0.6441 -1.5144  1.9588
46963SOL    HW247495   5.051   3.205   9.028  0.5451 -0.2488 -0.2173
46964SOL     OW47496   1.746   1.899   0.089 -0.9319  0.2288  0.5481
46964SOL    HW147497   1.690   1.823   0.073 -0.4473 -0.0759  0.2645
46964SOL    HW247498   1.751   1.944   0.005 -1.2752  0.6221  0.7324
46965SOL     OW47499   3.624   0.797   4.242  0.2198  0.1525 -0.0862
46965SOL    HW147500   3.562   0.752   4.299  1.8031 -0.4178  1.2860
46965SOL    HW247501   3.573   0.822   4.165 -0.8532 -3.8567 -0.9364
46966SOL     OW47502   1.805   4.750   8.864 -0.1670  0.9100  0.0101
46966SOL    HW147503   1.795   4.769   8.958  1.3432 -0.7580  0.5736
46966SOL    HW247504   1.895   4.774   8.844  0.3048 -1.0133 -0.3727
46967SOL     OW47505   4.938   1.681  12.496  0.0623  0.5366  0.1731
46967SOL    HW147506   4.900   1.661  12.581 -1.4067 -0.9005 -0.7596
46967SOL    HW247507   4.864   1.711  12.443  1.1958  2.8438 -0.2205
46968SOL     OW47508  12.437   8.797   3.365 -0.2860  0.5584  0.6078
46968SOL    HW147509  12.401   8.713   3.393 -1.9691  1.4122  1.1321
46968SOL    HW247510  12.505   8.817   3.430  0.1399 -0.3716  0.4691
46969SOL     OW47511   1.591  10.731   8.367  0.6589 -0.0461  0.2283
46969SOL    HW147512   1.582  10.708   8.460 -1.5102 -0.7067 -0.0995
46969SOL    HW247513   1.526  10.800   8.353  2.2460  1.3862 -0.4235
46970SOL     OW47514   9.453   0.057   1.631  0.3684 -0.4466  0.2736
46970SOL    HW147515   9.444   0.108   1.712 -0.3780  1.5878 -1.0116
46970SOL    HW247516   9.543   0.074   1.603  0.8206 -1.6302  0.9409
46971SOL     OW47517   7.855   1.109   7.080  0.6317  0.3008  0.4471
46971SOL    HW147518   7.822   1.020   7.065  3.3186 -0.8019  0.5521
46971SOL    HW247519   7.919   1.099   7.150  0.2106  2.5698  1.2476
46972SOL     OW47520   4.073   5.280  11.567 -0.1973 -0.1960  0.1906
46972SOL    HW147521   3.993   5.253  11.521  0.9030 -2.5092 -0.5186
46972SOL    HW247522   4.068   5.235  11.651 -0.0872  0.4522  0.5499
46973SOL     OW47523   0.012   3.495   9.595 -0.1675 -0.3305  0.1887
46973SOL    HW147524  -0.031   3.575   9.628 -2.2940 -1.3175 -0.0372
46973SOL    HW247525  -0.041   3.468   9.520  0.0052 -2.3888  0.7468
46974SOL     OW47526   3.333   1.287   8.840  0.1887 -0.1120  0.5507
46974SOL    HW147527   3.346   1.359   8.778 -0.2561  0.3920  1.0407
46974SOL    HW247528   3.241   1.291   8.863 -0.1151 -1.5632 -0.2846
46975SOL     OW47529   8.319  11.141   8.683  0.4643  0.3534  0.0833
46975SOL    HW147530   8.309  11.142   8.778  0.7121  0.0130  0.1127
46975SOL    HW247531   8.362  11.058   8.664 -0.1750  0.1304 -0.3907
46976SOL     OW47532   8.386   1.490   5.465  0.2610  0.3634 -0.3688
46976SOL    HW147533   8.441   1.472   5.389  1.3089  2.4208 -0.1753
46976SOL    HW247534   8.296   1.480   5.433  0.6938 -1.4549 -1.1221
46977SOL     OW47535   1.977  10.254   0.283 -0.3888  0.0619  0.0338
46977SOL    HW147536   2.057  10.305   0.271  1.2984 -2.5400 -0.5969
46977SOL    HW247537   1.977  10.230   0.376 -0.1307 -0.4136 -0.0888
46978SOL     OW47538   4.715   3.721   2.070  0.1048 -0.0270 -0.2077
46978SOL    HW147539   4.776   3.781   2.113 -1.3558  0.9078  0.6668
46978SOL    HW247540   4.770   3.650   2.037  1.6234  0.6603  0.7303
46979SOL     OW47541   9.219   2.038  10.016 -0.5155 -0.3306  0.2457
46979SOL    HW147542   9.213   2.132   9.999  0.9863 -0.6443 -2.5587
46979SOL    HW247543   9.128   2.009  10.016 -0.9129  0.8017 -1.0961
46980SOL     OW47544  10.387  11.967   4.040 -0.1439 -0.4682  0.1410
46980SOL    HW147545  10.345  11.882   4.054 -1.1429  0.0737  0.5219
46980SOL    HW247546  10.469  11.962   4.090 -0.0715 -1.2906 -0.0490
46981SOL     OW47547  11.732   6.039   9.735  0.2089 -0.3119  0.1208
46981SOL    HW147548  11.742   5.954   9.778 -1.3218 -0.6947 -0.2247
46981SOL    HW247549  11.654   6.078   9.775 -0.6159 -0.2073 -1.4970
46982SOL     OW47550   3.034   5.551   9.624  0.5422  0.2526  0.1186
46982SOL    HW147551   3.040   5.640   9.659  2.1249  0.9186 -1.6830
46982SOL    HW247552   3.038   5.562   9.529 -1.9274 -1.5898 -0.3144
46983SOL     OW47553   1.666   0.463   1.086 -0.1790 -0.0373 -0.1478
46983SOL    HW147554   1.613   0.533   1.047  0.6015  0.4430 -0.3669
46983SOL    HW247555   1.624   0.382   1.055 -1.0946  0.3203  0.1149
46984SOL     OW47556   5.514   8.983   8.284  0.4104  0.2766 -0.0721
46984SOL    HW147557   5.517   9.048   8.354  0.3266  0.2966 -0.0872
46984SOL    HW247558   5.547   9.030   8.206  0.0681  0.3893 -0.1518
46985SOL     OW47559   6.113   1.280   6.865  0.0128  0.2296 -0.4314
46985SOL    HW147560   6.194   1.229   6.870 -1.1115 -1.5181  1.6625
46985SOL    HW247561   6.132   1.359   6.916  0.6999  0.3352 -0.8273
46986SOL     OW47562   7.647   2.145   0.334  0.2408 -0.5874 -0.3771
46986SOL    HW147563   7.598   2.069   0.364 -0.6505  0.2981  0.5106
46986SOL    HW247564   7.728   2.144   0.385 -0.6058  0.0757  1.0480
46987SOL     OW47565   4.410   4.091   5.935 -0.1849  0.3345  0.4529
46987SOL    HW147566   4.429   4.157   6.001 -0.2181  0.5774  0.2182
46987SOL    HW247567   4.470   4.018   5.956 -0.4173  0.2829  0.9381
46988SOL     OW47568   7.008   9.275  12.221  0.2892  0.1092 -0.1258
46988SOL    HW147569   7.056   9.280  12.304 -0.8197  1.5775  0.4697
46988SOL    HW247570   6.917   9.257  12.247  0.0312 -0.0219 -1.0692
46989SOL     OW47571  11.610   8.576   9.134  0.0880  0.0010 -0.9863
46989SOL    HW147572  11.628   8.647   9.073  0.2542 -0.5691 -1.6056
46989SOL    HW247573  11.515   8.565   9.131  0.1421 -0.3190 -1.4653
46990SOL     OW47574   2.904   5.039  10.752 -0.0663  0.7770  0.1476
46990SOL    HW147575   2.954   4.958  10.747 -0.6127  0.5199 -2.6552
46990SOL    HW247576   2.923   5.074  10.839 -0.0135 -2.4607  1.5629
46991SOL     OW47577  11.816   6.388   8.692 -0.1718  0.0194  0.4973
46991SOL    HW147578  11.832   6.359   8.602  0.4643 -0.2678  0.7000
46991SOL    HW247579  11.901   6.415   8.724 -0.2439 -0.6450  1.2907
46992SOL     OW47580   5.618  11.825   4.095 -0.1395  0.1922 -0.1518
46992SOL    HW147581   5.687  11.817   4.030 -2.5886 -0.7384 -2.8051
46992SOL    HW247582   5.591  11.917   4.091 -0.0561  0.2164 -0.1618
46993SOL     OW47583   0.059   6.609   5.656 -0.0600  0.1830  0.1354
46993SOL    HW147584   0.117   6.684   5.672 -1.2583  1.1641  0.0607
46993SOL    HW247585   0.016   6.593   5.740  0.6141 -0.7985  0.2959
46994SOL     OW47586  12.345   2.779   1.372 -0.4397  0.7656  0.1772
46994SOL    HW147587  12.406   2.853   1.380 -1.5012  1.5023  2.1022
46994SOL    HW247588  12.261   2.820   1.349 -0.5668 -0.0975 -1.0081
46995SOL     OW47589   6.903   3.431   6.741  0.3544 -0.6142 -0.6118
46995SOL    HW147590   6.870   3.377   6.670 -0.8266  0.1352 -0.6612
46995SOL    HW247591   6.932   3.369   6.807 -4.3446 -1.5403  0.9659
46996SOL     OW47592   6.417   8.029   4.724  0.0167 -0.4983 -0.0660
46996SOL    HW147593   6.369   8.105   4.756  0.1783 -0.1213 -0.6861
46996SOL    HW247594   6.446   7.984   4.803 -0.7769 -0.3634  0.3094
46997SOL     OW47595   8.319   0.428   1.718  0.0324 -0.0038  0.5306
46997SOL    HW147596   8.341   0.337   1.695  0.9302  0.2251  0.4456
46997SOL    HW247597   8.289   0.467   1.636  1.1562  0.2064  0.2039
46998SOL     OW47598  11.695   0.463   2.191 -0.5280 -0.7012 -0.0752
46998SOL    HW147599  11.757   0.458   2.264 -0.7905 -1.0747  0.1293
46998SOL    HW247600  11.673   0.372   2.172 -0.4440 -0.6076 -0.6432
46999SOL     OW47601   4.387   8.648   6.631 -0.2688 -0.1237  0.2245
46999SOL    HW147602   4.347   8.685   6.709  0.4081 -0.4198  0.7165
46999SOL    HW247603   4.321   8.587   6.597  0.2986 -1.7254  1.8549
47000SOL     OW47604   1.146   1.339   0.502 -0.2975 -0.5979  0.1579
47000SOL    HW147605   1.125   1.428   0.472  1.8021 -0.4509 -1.0583
47000SOL    HW247606   1.067   1.288   0.481 -1.1847  0.7716  0.0189
47001SOL     OW47607   3.075   0.804   7.944  0.0408  0.1633  0.2218
47001SOL    HW147608   2.999   0.851   7.910  0.4379  0.1806 -0.6800
47001SOL    HW247609   3.084   0.728   7.887 -1.4225 -1.8330  2.5049
47002SOL     OW47610  11.260   8.236   0.015  0.4587  0.1396  0.1672
47002SOL    HW147611  11.167   8.247   0.034  0.7527  0.9445  1.2294
47002SOL    HW247612  11.286   8.160   0.066 -0.2013 -1.9254 -2.3636
47003SOL     OW47613   2.544  10.166   2.760  0.7152 -0.0233 -0.0270
47003SOL    HW147614   2.622  10.216   2.737  0.3418  0.5434 -0.0863
47003SOL    HW247615   2.574  10.076   2.767  1.5381  0.2969  0.7237
47004SOL     OW47616   8.359   4.431   9.606 -0.3045  0.4181  0.5868
47004SOL    HW147617   8.287   4.491   9.626 -1.0733 -0.3980  0.3617
47004SOL    HW247618   8.330   4.347   9.641 -0.2810 -0.3419 -1.1172
47005SOL     OW47619   1.878   4.004   8.498 -0.0066  0.2507  0.0303
47005SOL    HW147620   1.949   3.943   8.517 -0.9565 -0.6460  0.8225
47005SOL    HW247621   1.922   4.082   8.465  1.3577 -0.2343  0.6223
47006SOL     OW47622  11.514   7.610   5.751  0.0102  1.3630 -0.1144
47006SOL    HW147623  11.509   7.672   5.824 -1.7381 -0.2992  1.2809
47006SOL    HW247624  11.587   7.553   5.774  1.2738  2.4917 -1.1356
47007SOL     OW47625   3.226   5.702   0.953 -0.2447  0.3649  0.1460
47007SOL    HW147626   3.215   5.665   0.866  0.5183 -0.8880  0.5393
47007SOL    HW247627   3.317   5.731   0.955 -0.0694 -0.2036  0.7229
47008SOL     OW47628   8.036   4.777   1.799 -0.7893 -0.1250  0.0374
47008SOL    HW147629   8.078   4.789   1.714  2.1520  1.8530  1.6029
47008SOL    HW247630   7.942   4.781   1.780 -0.2471  0.3723 -3.0707
47009SOL     OW47631   1.547   4.401   3.907 -0.2155 -0.5851 -0.2095
47009SOL    HW147632   1.466   4.397   3.855 -0.6095  1.0332  0.2222
47009SOL    HW247633   1.608   4.450   3.851  0.6545 -2.1889 -0.7233
47010SOL     OW47634  12.725   7.456  11.170  0.0920  0.7233 -0.4803
47010SOL    HW147635  12.677   7.404  11.235  0.4576 -1.9720 -2.2177
47010SOL    HW247636  12.797   7.495  11.220 -0.3471 -0.2229  0.9874
47011SOL     OW47637  11.760  11.111   9.243  0.4215  0.2210  0.0465
47011SOL    HW147638  11.694  11.100   9.311 -1.3603  0.1375 -1.6094
47011SOL    HW247639  11.796  11.198   9.259 -0.7786  0.6656  0.4374
47012SOL     OW47640   6.964   2.012   7.918 -0.6515  0.5976 -0.2842
47012SOL    HW147641   7.053   1.980   7.903 -0.5212  1.2153 -0.8952
47012SOL    HW247642   6.911   1.966   7.853 -1.7113 -3.4356  3.0174
47013SOL     OW47643  10.889   6.723   9.005  0.1198  0.0706  0.3527
47013SOL    HW147644  10.835   6.689   8.934 -1.7420 -1.8958  2.5326
47013SOL    HW247645  10.979   6.712   8.974 -0.5887  1.7786 -2.6804
47014SOL     OW47646   9.442  10.548   7.870 -0.3959 -0.4838 -0.2780
47014SOL    HW147647   9.378  10.510   7.810 -0.5428  0.1122 -0.4954
47014SOL    HW247648   9.423  10.641   7.870 -0.0942 -0.4187  0.3367
47015SOL     OW47649   3.528  11.484   9.514  0.0597 -0.0956 -0.0655
47015SOL    HW147650   3.560  11.481   9.604 -0.4621  1.6601  0.2219
47015SOL    HW247651   3.437  11.511   9.522 -0.7922 -2.4339 -1.0172
47016SOL     OW47652  12.311   6.234   5.574 -0.0439 -0.5176  0.6671
47016SOL    HW147653  12.368   6.203   5.645  0.2474  0.1437  0.7298
47016SOL    HW247654  12.363   6.224   5.495 -1.1558 -3.3996  0.1857
47017SOL     OW47655  10.937   8.445   7.866  0.4942  0.2629  0.1564
47017SOL    HW147656  10.977   8.358   7.876 -1.3912 -0.5859  0.7103
47017SOL    HW247657  10.914   8.450   7.773 -0.7033 -0.4516  0.4018
47018SOL     OW47658  10.234   6.023   2.619  0.2247  0.3371  0.1395
47018SOL    HW147659  10.229   5.937   2.659 -0.4325  1.3196  2.3263
47018SOL    HW247660  10.148   6.035   2.577  0.7356 -0.4947 -1.1989
47019SOL     OW47661   7.481   5.026  11.102  0.4059 -0.1903 -0.5856
47019SOL    HW147662   7.465   4.940  11.142 -0.0497  0.1252 -0.0727
47019SOL    HW247663   7.574   5.041  11.115  0.5384 -0.7137 -0.8979
47020SOL     OW47664   5.376   5.322   2.881 -0.3368  0.0833  0.0483
47020SOL    HW147665   5.322   5.393   2.915  1.3032  1.8591 -0.8234
47020SOL    HW247666   5.408   5.355   2.797 -0.0799 -2.0095 -0.7310
47021SOL     OW47667   0.798   5.590   8.715  0.4666 -0.0736 -0.4212
47021SOL    HW147668   0.795   5.678   8.678 -0.9700 -0.8383 -2.2765
47021SOL    HW247669   0.761   5.534   8.647 -1.5107 -1.7188  1.8380
47022SOL     OW47670   9.759   0.452   0.271 -0.5465  0.3554  0.4751
47022SOL    HW147671   9.678   0.495   0.246  0.9258  2.1585 -1.6524
47022SOL    HW247672   9.755   0.367   0.227 -0.5453  1.1709 -1.1812
47023SOL     OW47673   7.891   7.763   9.309 -0.7303 -0.4619  0.1785
47023SOL    HW147674   7.948   7.763   9.232 -1.2080  0.9892 -0.2111
47023SOL    HW247675   7.813   7.716   9.281 -3.1541  4.2175 -2.1220
47024SOL     OW47676   5.622   8.510   7.857 -0.0510 -0.5104  0.0458
47024SOL    HW147677   5.569   8.568   7.801 -0.1691 -0.8909 -0.2385
47024SOL    HW247678   5.708   8.551   7.859  0.5351 -1.5460 -2.0691
47025SOL     OW47679   1.551   7.034  12.746 -0.1132  0.2611  0.3690
47025SOL    HW147680   1.495   7.012  12.672  2.0162 -0.2463 -1.1633
47025SOL    HW247681   1.542   6.958  12.805 -0.3307 -0.2232 -0.2743
47026SOL     OW47682  10.043   5.891  10.972 -0.5681 -0.0419  0.5783
47026SOL    HW147683  10.073   5.803  10.992 -0.6147 -0.1766  0.0600
47026SOL    HW247684   9.948   5.887  10.980 -0.6377 -0.2672 -0.3349
47027SOL     OW47685  10.419   6.131   0.278 -0.3400 -0.0000  0.4231
47027SOL    HW147686  10.443   6.176   0.359 -1.5013  0.9626  0.2454
47027SOL    HW247687  10.393   6.043   0.307  2.3338 -0.8083  0.7288
47028SOL     OW47688   2.681  11.444   3.195 -0.2950  0.7505  0.1557
47028SOL    HW147689   2.627  11.366   3.184  0.3913  0.5142 -1.8321
47028SOL    HW247690   2.697  11.476   3.106  3.4141  0.3731  0.5134
47029SOL     OW47691   1.975  12.127   3.089 -0.6437  0.1965 -0.0394
47029SOL    HW147692   1.955  12.081   3.009  1.2875  0.9887 -1.0512
47029SOL    HW247693   2.045  12.188   3.065 -0.7133  1.1825  2.0074
47030SOL     OW47694   9.761   7.298   7.635  0.5057 -0.0912  0.3527
47030SOL    HW147695   9.788   7.241   7.707  2.1114  0.5354  0.2888
47030SOL    HW247696   9.828   7.286   7.568  0.9864  1.9749  0.4078
47031SOL     OW47697   6.535   6.271   7.254 -0.5261  0.0260  0.5272
47031SOL    HW147698   6.514   6.197   7.196 -1.7647  0.5630  0.2427
47031SOL    HW247699   6.622   6.251   7.288 -1.2997 -2.1715  1.4037
47032SOL     OW47700   5.131   1.109   1.535 -0.5728  0.3812  0.3501
47032SOL    HW147701   5.055   1.166   1.539 -2.5146 -1.9446 -0.6286
47032SOL    HW247702   5.162   1.117   1.444  0.0499  0.9280  0.6036
47033SOL     OW47703   9.409  11.670   1.083 -0.0486 -0.0369 -0.4200
47033SOL    HW147704   9.492  11.716   1.089 -1.0846  2.0601 -1.0041
47033SOL    HW247705   9.384  11.651   1.173 -0.0025  1.4194 -0.0840
47034SOL     OW47706   2.544   8.759   4.434  0.2389 -0.2749 -0.2511
47034SOL    HW147707   2.575   8.707   4.508  2.8058 -0.3464 -1.3026
47034SOL    HW247708   2.498   8.696   4.378 -0.5943 -0.4673  0.6155
47035SOL     OW47709   4.426   8.827   1.871 -0.3813  0.4780 -0.6100
47035SOL    HW147710   4.338   8.849   1.840 -0.5489  1.6633  0.6465
47035SOL    HW247711   4.463   8.910   1.900  0.1659 -0.3827  1.3208
47036SOL     OW47712   4.719  11.049   8.962 -0.1946  0.3417 -0.2778
47036SOL    HW147713   4.651  10.981   8.964 -0.0474  0.2143  0.9584
47036SOL    HW247714   4.712  11.093   9.047  0.8120  0.7964 -0.4139
47037SOL     OW47715   4.753   2.124   2.403 -0.3640 -0.1659  0.3316
47037SOL    HW147716   4.765   2.115   2.498 -2.6994 -0.1561  0.6813
47037SOL    HW247717   4.708   2.045   2.377  0.0666 -0.0654 -0.7653
47038SOL     OW47718   6.062   8.044   5.262 -0.0775 -0.6301  0.2842
47038SOL    HW147719   6.056   7.949   5.272  1.3595 -0.6677  1.0299
47038SOL    HW247720   5.980   8.069   5.220  0.5336 -2.5102 -2.2729
47039SOL     OW47721  10.728   2.057   5.733 -0.6129  0.2646 -0.1655
47039SOL    HW147722  10.761   2.045   5.644  0.2009  0.3739  0.1119
47039SOL    HW247723  10.804   2.090   5.782 -1.3676  1.3931  0.2870
47040SOL     OW47724   4.999   6.164   9.083 -0.6284  0.3245  0.2390
47040SOL    HW147725   4.949   6.090   9.118  0.2099 -0.6331 -0.4894
47040SOL    HW247726   4.943   6.240   9.095 -0.2630  0.1925  4.0439
47041SOL     OW47727   2.565   7.012   3.859 -0.8527 -0.1034  0.0895
47041SOL    HW147728   2.591   7.100   3.886 -1.0344 -0.0334  0.0436
47041SOL    HW247729   2.513   7.026   3.780  0.3447 -0.3742 -0.7530
47042SOL     OW47730   6.232   6.071   3.709  0.0991  0.2522 -0.2105
47042SOL    HW147731   6.156   6.056   3.653  0.4030 -2.2578 -0.0964
47042SOL    HW247732   6.304   6.090   3.648 -0.0334 -0.2838 -0.5435
47043SOL     OW47733   9.200   1.307   6.371  0.1067 -0.2076 -0.1472
47043SOL    HW147734   9.294   1.301   6.389 -0.1402  0.0437  1.3673
47043SOL    HW247735   9.180   1.400   6.377 -0.1628 -0.1963 -1.0069
47044SOL     OW47736   3.384   1.266   4.161  0.1683 -0.0994 -0.0718
47044SOL    HW147737   3.349   1.182   4.189 -0.6908  0.2822  0.0360
47044SOL    HW247738   3.425   1.248   4.077  0.0595 -0.6446 -0.0118
47045SOL     OW47739   8.094  12.336  10.171 -0.5516  0.2958 -0.0154
47045SOL    HW147740   8.079  12.411  10.114 -1.1504  0.0445 -0.1917
47045SOL    HW247741   8.130  12.269  10.113  0.5780  0.6454  0.2621
47046SOL     OW47742   6.967   2.069   2.197  0.0367  0.7985  0.3628
47046SOL    HW147743   6.969   1.979   2.165 -1.1150  0.7136  0.4814
47046SOL    HW247744   6.879   2.079   2.234  0.0797  2.0417  0.1605
47047SOL     OW47745   0.286   0.773   1.862 -0.3469 -0.4281 -0.0421
47047SOL    HW147746   0.360   0.741   1.812 -1.3312 -2.1280 -0.4710
47047SOL    HW247747   0.249   0.844   1.808  0.4953 -0.0814 -0.1731
47048SOL     OW47748   7.920   4.790   8.436 -0.1211 -0.2983  0.4100
47048SOL    HW147749   8.002   4.829   8.407 -0.0454  0.4216  1.5202
47048SOL    HW247750   7.886   4.745   8.359  0.4218  0.9201 -0.5695
47049SOL     OW47751  11.609   9.420   4.040  0.4756 -0.0926  0.0324
47049SOL    HW147752  11.567   9.351   3.988 -0.1305  0.8091 -0.6930
47049SOL    HW247753  11.574   9.502   4.004  0.7464  0.5799  1.2659
47050SOL     OW47754   8.937  10.758   5.522  0.3253  0.1905 -0.3865
47050SOL    HW147755   8.900  10.719   5.601  0.0308 -0.5141 -0.8637
47050SOL    HW247756   8.904  10.704   5.450  0.6823  0.7486 -0.9873
47051SOL     OW47757  12.513  12.287   7.527 -0.4310 -0.4894  0.6693
47051SOL    HW147758  12.567  12.357   7.565  0.0735  0.4845 -1.6334
47051SOL    HW247759  12.458  12.257   7.599  1.1134  0.5278  2.3756
47052SOL     OW47760  12.553   8.021   1.132  0.2512 -0.3556  0.1363
47052SOL    HW147761  12.612   8.092   1.158  0.5739 -0.8789  0.8516
47052SOL    HW247762  12.500   8.003   1.210 -1.6178  0.7989 -0.7688
47053SOL     OW47763  10.195   7.511   9.283 -0.5290 -0.3300  0.2803
47053SOL    HW147764  10.228   7.572   9.349 -1.7534  0.0072  0.6018
47053SOL    HW247765  10.158   7.439   9.334  1.6583 -1.7988 -0.1010
47054SOL     OW47766   7.950   7.658   6.834  0.4322  0.0155 -0.3316
47054SOL    HW147767   8.005   7.732   6.809 -0.6149  1.4023  1.2932
47054SOL    HW247768   8.004   7.608   6.895  0.5784  0.2698 -0.2520
47055SOL     OW47769   5.972   8.554   2.248  0.0762  0.2985 -0.1397
47055SOL    HW147770   5.909   8.547   2.176  1.1874 -0.7095 -1.0644
47055SOL    HW247771   5.976   8.647   2.267 -2.1255  0.3499  0.3693
47056SOL     OW47772   3.169   7.899   4.810  0.1804 -0.0484  0.1925
47056SOL    HW147773   3.077   7.877   4.798  0.5377 -1.3798 -0.3130
47056SOL    HW247774   3.207   7.891   4.722  0.7870  0.4312  0.4051
47057SOL     OW47775   5.412   3.159   6.178  0.4232 -0.2980  0.8549
47057SOL    HW147776   5.441   3.250   6.167 -0.1201  0.2436  3.3316
47057SOL    HW247777   5.326   3.157   6.137 -0.0915  0.6603  1.8417
47058SOL     OW47778   0.987   0.012   1.435  0.1299  0.3396 -0.3501
47058SOL    HW147779   0.903  -0.028   1.459  1.4134 -1.6530  1.1553
47058SOL    HW247780   0.968   0.106   1.431 -2.2036 -0.0540 -0.2724
47059SOL     OW47781   8.071   2.934  11.366 -0.0833  0.0515  0.2617
47059SOL    HW147782   8.019   2.908  11.442 -0.5256 -0.6119 -0.2594
47059SOL    HW247783   8.008   2.974  11.306  0.6217  2.8675  1.2052
47060SOL     OW47784   8.986   6.864   2.750 -0.3939 -0.5000 -0.1013
47060SOL    HW147785   9.033   6.886   2.831  1.0729 -1.3327 -0.6862
47060SOL    HW247786   8.962   6.949   2.713  0.4381 -0.0506  0.3499
47061SOL     OW47787   5.977   2.619   8.207  0.0972  0.4350 -0.3389
47061SOL    HW147788   6.042   2.568   8.160  1.5106  1.9587 -0.1506
47061SOL    HW247789   5.942   2.681   8.143  0.6484  1.2511  0.1214
47062SOL     OW47790   0.378   7.600   5.067 -0.0141  0.4901 -0.1472
47062SOL    HW147791   0.398   7.581   4.976  2.3051  1.1309  0.1393
47062SOL    HW247792   0.363   7.514   5.107 -0.4220  0.1589 -1.0071
47063SOL     OW47793  12.535   7.577  12.600  0.0435  0.3001 -0.3575
47063SOL    HW147794  12.501   7.562  12.688 -1.0418 -0.0368 -0.8190
47063SOL    HW247795  12.463   7.555  12.542  0.6243  0.8650 -1.3303
47064SOL     OW47796   2.120  12.032   9.014 -0.7224  0.3999  0.4547
47064SOL    HW147797   2.141  11.941   9.034  0.5464  0.5614  0.0028
47064SOL    HW247798   2.124  12.036   8.918 -1.1347  0.8416  0.4560
47065SOL     OW47799   3.806   2.031   9.993  0.1725  0.0407  0.4379
47065SOL    HW147800   3.851   2.107  10.029 -0.7133  2.4592 -3.0750
47065SOL    HW247801   3.866   1.996   9.927 -0.7597 -0.2092 -0.3101
47066SOL     OW47802   2.099   2.377  12.095 -0.2911 -0.6396  0.0821
47066SOL    HW147803   2.026   2.385  12.032 -0.2236  1.0990  0.1846
47066SOL    HW247804   2.078   2.441  12.163  2.1822  1.2352 -0.7741
47067SOL     OW47805   9.975   7.054  10.080  0.5224  0.4827  0.3854
47067SOL    HW147806  10.014   6.985  10.134 -0.8193 -0.7182 -0.1357
47067SOL    HW247807  10.022   7.134  10.106  3.6974 -0.9232 -0.5917
47068SOL     OW47808   0.851   0.974   9.129 -0.1951  0.0296  0.4525
47068SOL    HW147809   0.920   1.038   9.146 -0.8746  0.8657  0.1610
47068SOL    HW247810   0.817   0.997   9.043  1.3132 -2.4005 -0.8949
47069SOL     OW47811   0.657   4.074   4.396 -0.4997  0.1288 -0.0200
47069SOL    HW147812   0.733   4.090   4.453  0.4199 -0.6204 -1.0015
47069SOL    HW247813   0.605   4.010   4.444  0.2646 -0.4913  0.0141
47070SOL     OW47814   8.290   7.722   1.687 -0.5557  0.2108 -0.8521
47070SOL    HW147815   8.365   7.776   1.711  0.2950 -1.2980  0.0625
47070SOL    HW247816   8.296   7.713   1.592  1.7645 -1.6515 -0.6279
47071SOL     OW47817  12.169   8.574   7.047 -0.2037  0.5899 -0.5126
47071SOL    HW147818  12.217   8.588   7.128 -1.2885  1.9055 -0.0446
47071SOL    HW247819  12.078   8.594   7.070 -0.6638  0.0779 -1.8277
47072SOL     OW47820   7.661   8.230   4.998 -0.4733  0.3278  0.3994
47072SOL    HW147821   7.591   8.198   4.942 -0.7745  0.1445  0.8715
47072SOL    HW247822   7.621   8.235   5.085  1.0369 -3.2416  1.4880
47073SOL     OW47823   4.243   8.371  11.272 -0.1571  0.4911  0.3757
47073SOL    HW147824   4.169   8.324  11.233 -0.0462  0.4916  0.1622
47073SOL    HW247825   4.274   8.313  11.342  0.9857 -0.5179 -0.8943
47074SOL     OW47826   3.934   3.641   3.384 -0.6272  0.1644 -0.0723
47074SOL    HW147827   4.003   3.707   3.386  0.0078 -0.4624 -0.5667
47074SOL    HW247828   3.972   3.568   3.335 -1.8348  0.0252 -0.8480
47075SOL     OW47829   3.284   9.597   5.172 -0.3178  0.3960 -0.2666
47075SOL    HW147830   3.301   9.640   5.088  1.0920 -0.1280 -0.2806
47075SOL    HW247831   3.221   9.654   5.216 -0.7670  0.8873 -1.5027
47076SOL     OW47832   6.134   3.589   3.767 -0.5648  0.1840 -0.1037
47076SOL    HW147833   6.082   3.603   3.688 -0.7802 -2.0101 -0.4316
47076SOL    HW247834   6.100   3.507   3.804 -0.3247  1.0285  2.1743
47077SOL     OW47835   0.789   3.986  11.340 -0.1620  0.1692 -0.5864
47077SOL    HW147836   0.742   4.069  11.338 -0.5675  0.0414  1.4886
47077SOL    HW247837   0.723   3.920  11.320 -0.4398  0.1548  0.3396
47078SOL     OW47838   0.943   4.039   5.671 -0.2556 -0.3989 -0.1376
47078SOL    HW147839   0.969   4.105   5.607 -2.5036  0.1589 -0.5634
47078SOL    HW247840   0.931   3.959   5.620 -0.5950 -0.3347 -0.1594
47079SOL     OW47841  11.519   1.667   4.259  0.0880 -0.3031  0.8855
47079SOL    HW147842  11.455   1.724   4.302 -0.2273  0.1369 -0.1354
47079SOL    HW247843  11.604   1.699   4.289 -0.0678  0.9085  0.1190
47080SOL     OW47844   7.557   9.833   9.675  0.3327 -0.3433 -0.2814
47080SOL    HW147845   7.517   9.843   9.761  1.5377  1.0252  0.1571
47080SOL    HW247846   7.521   9.905   9.623  1.2835  0.1941 -0.2283
47081SOL     OW47847   7.723  11.286  11.371  0.6102  0.4811 -0.1152
47081SOL    HW147848   7.759  11.224  11.434  0.6781  0.3602 -0.2711
47081SOL    HW247849   7.695  11.360  11.424 -4.0537 -1.5826  0.7680
47082SOL     OW47850   0.360   0.340   8.656  0.0453  0.4236 -0.8172
47082SOL    HW147851   0.405   0.401   8.715 -1.6282  1.5941 -0.6793
47082SOL    HW247852   0.397   0.359   8.569  0.3449  0.8274 -0.6050
47083SOL     OW47853   4.201   4.314   0.126 -0.4647  0.1304 -0.1527
47083SOL    HW147854   4.189   4.408   0.111 -0.9043  0.0308 -0.4749
47083SOL    HW247855   4.264   4.308   0.197 -2.4342  0.7301  1.7733
47084SOL     OW47856   9.365   0.656  12.361  0.1582 -0.0475  0.4028
47084SOL    HW147857   9.402   0.660  12.273 -0.4718 -0.6308  0.0991
47084SOL    HW247858   9.400   0.575  12.398  2.3457  1.3475  1.6103
47085SOL     OW47859   9.434   5.338   6.624 -0.0072  0.0962 -0.0896
47085SOL    HW147860   9.436   5.330   6.529  0.2632  1.8532 -0.2534
47085SOL    HW247861   9.341   5.347   6.645  0.0665  1.8768 -0.4167
47086SOL     OW47862   9.082   7.511   5.961  0.2781 -0.5399 -0.3381
47086SOL    HW147863   9.161   7.467   5.995  0.5470  0.7217  0.7708
47086SOL    HW247864   9.082   7.597   6.004 -0.7157  0.2071 -1.7372
47087SOL     OW47865   8.972   4.072   2.868 -0.0801 -0.4008  0.4811
47087SOL    HW147866   8.897   4.014   2.857  1.9028 -3.1987  0.7033
47087SOL    HW247867   9.022   4.033   2.940  1.0095  2.0468  1.1516
47088SOL     OW47868   1.503   6.843   5.906 -0.3415 -0.1710  0.2527
47088SOL    HW147869   1.578   6.825   5.963  3.1602  0.9116 -3.5427
47088SOL    HW247870   1.445   6.768   5.918  2.7538 -2.5853  1.2791
47089SOL     OW47871  11.441   8.442   1.517  0.1014  0.0884  0.3426
47089SOL    HW147872  11.512   8.429   1.580 -0.7921  2.9918  2.1439
47089SOL    HW247873  11.377   8.495   1.564 -2.0763 -0.1922 -2.0824
47090SOL     OW47874   4.133   2.529   1.061 -0.5270  0.4334 -0.3249
47090SOL    HW147875   4.080   2.450   1.050  0.0919 -0.1539  0.7812
47090SOL    HW247876   4.122   2.552   1.153  2.5320 -0.7682  0.4738
47091SOL     OW47877   0.893   6.669   8.161 -0.2120  0.0008 -1.0217
47091SOL    HW147878   0.868   6.749   8.115  0.0880  1.1129  0.6698
47091SOL    HW247879   0.811   6.634   8.196 -0.5504 -1.2461 -2.9044
47092SOL     OW47880   8.555   8.626  11.466  0.6546 -0.5615  0.1150
47092SOL    HW147881   8.503   8.547  11.455  1.1719 -0.8502 -0.2918
47092SOL    HW247882   8.611   8.608  11.542 -1.2992  0.5575  1.9304
47093SOL     OW47883  10.947   7.926  12.446  0.1780  0.1743  0.1372
47093SOL    HW147884  10.858   7.959  12.437  0.1208  0.2511  0.8931
47093SOL    HW247885  10.948   7.845  12.396 -0.3604  0.1032  0.2342
47094SOL     OW47886   2.373   2.167  10.324  0.4546 -0.4236  0.0665
47094SOL    HW147887   2.347   2.078  10.346  0.9424 -0.9240 -1.2501
47094SOL    HW247888   2.333   2.183  10.238  1.8165 -0.0333 -0.5157
47095SOL     OW47889   4.393   1.542   7.262 -0.0430 -0.5700  0.1007
47095SOL    HW147890   4.406   1.583   7.348  0.7985 -0.2759 -0.1572
47095SOL    HW247891   4.385   1.616   7.202  1.4520 -0.7598 -0.3629
47096SOL     OW47892   8.032   6.235   8.632  0.0210  0.5003 -0.8737
47096SOL    HW147893   8.009   6.325   8.655 -1.3263 -0.2818  1.0531
47096SOL    HW247894   7.953   6.184   8.647  1.6829 -1.6020  1.7675
47097SOL     OW47895   5.101   1.346   6.019 -0.0830 -0.2335  0.2358
47097SOL    HW147896   5.164   1.401   6.064  0.4863  0.5283 -1.4101
47097SOL    HW247897   5.122   1.257   6.048  1.3536  0.0655  0.1881
47098SOL     OW47898   1.459  11.277   5.163 -0.2453  0.0761  0.5311
47098SOL    HW147899   1.481  11.370   5.166 -0.3338  0.0762  1.2351
47098SOL    HW247900   1.484  11.250   5.074 -1.2661  1.0287 -0.0816
47099SOL     OW47901   2.397   0.454   3.226 -0.0241 -0.4699  0.6128
47099SOL    HW147902   2.344   0.523   3.267  0.0882 -1.2945  2.2201
47099SOL    HW247903   2.484   0.492   3.220  0.0153 -0.4139  1.3995
47100SOL     OW47904   8.301   0.189   1.578 -0.4143  0.6551 -0.1744
47100SOL    HW147905   8.242   0.242   1.524 -3.9340 -2.3174  0.3143
47100SOL    HW247906   8.352   0.138   1.515 -1.0319  0.6328 -0.6628
47101SOL     OW47907   8.254   1.779   6.143 -0.8410  0.3256  0.4470
47101SOL    HW147908   8.198   1.833   6.088 -0.0424  0.5410 -0.1808
47101SOL    HW247909   8.343   1.812   6.126 -0.2903 -1.3679 -0.2079
47102SOL     OW47910  12.186   7.143  12.512  0.1072 -0.2030  0.1477
47102SOL    HW147911  12.179   7.179  12.423  1.6484  1.7256  0.7374
47102SOL    HW247912  12.278   7.121  12.522 -0.3645 -2.0505  0.7108
47103SOL     OW47913   4.953   2.283   6.535  0.5798  0.2783  0.3731
47103SOL    HW147914   4.954   2.200   6.487  0.4211  0.9388 -0.7848
47103SOL    HW247915   5.045   2.298   6.558  0.7239  0.2080 -0.1580
47104SOL     OW47916   1.305   0.031   4.478  0.0871 -0.6978 -0.2650
47104SOL    HW147917   1.335   0.090   4.409 -0.8468 -0.6948 -0.6783
47104SOL    HW247918   1.251  -0.034   4.433  1.4548 -2.1661  0.1116
47105SOL     OW47919   1.812   1.178   5.589 -0.1627 -0.3009 -0.1235
47105SOL    HW147920   1.784   1.255   5.639  0.4656  0.1745 -0.4994
47105SOL    HW247921   1.751   1.174   5.515  0.2153  0.2257 -0.4659
47106SOL     OW47922   8.223   5.554  11.198  0.1341 -0.5375  0.4794
47106SOL    HW147923   8.135   5.559  11.233  0.2603 -1.8003  1.0372
47106SOL    HW247924   8.215   5.500  11.119  0.1434  0.8169 -0.4960
47107SOL     OW47925   6.570  11.706  11.697 -0.1366  0.0116  0.2608
47107SOL    HW147926   6.487  11.689  11.654  0.1673  1.8355 -1.2104
47107SOL    HW247927   6.629  11.638  11.665 -1.2017 -1.8472  2.0119
47108SOL     OW47928   0.625   7.267  11.817  0.1672  0.9322 -0.0395
47108SOL    HW147929   0.706   7.244  11.862  0.2619  1.0609 -0.1434
47108SOL    HW247930   0.628   7.219  11.735 -0.8329 -0.7184  0.8339
47109SOL     OW47931   9.706  12.260   0.079 -0.4792 -0.3201  0.0354
47109SOL    HW147932   9.797  12.272   0.051 -0.7302  1.5064 -0.0939
47109SOL    HW247933   9.702  12.168   0.105  2.1491  0.1140  2.6123
47110SOL     OW47934   0.994   3.282   2.365  0.2500  0.0943  0.0059
47110SOL    HW147935   0.968   3.300   2.275  0.3304  2.9609  0.4445
47110SOL    HW247936   1.078   3.237   2.358 -1.3150 -2.9283 -1.3130
47111SOL     OW47937   6.386   8.470   1.529 -0.0618  0.2041  0.1808
47111SOL    HW147938   6.397   8.416   1.607 -0.5472 -1.6897 -1.0076
47111SOL    HW247939   6.323   8.422   1.475 -3.6760  3.7713  0.6612
47112SOL     OW47940   8.986   9.882   5.071  0.1770 -0.5068  0.9514
47112SOL    HW147941   8.913   9.855   5.127 -0.6434  0.9372  0.6283
47112SOL    HW247942   9.013   9.801   5.028 -3.1496 -0.7539 -1.0838
47113SOL     OW47943   4.947   6.693   7.101 -0.7604 -0.2351 -0.3325
47113SOL    HW147944   4.852   6.706   7.109 -0.9285 -0.8974 -1.0428
47113SOL    HW247945   4.976   6.674   7.190 -1.3588 -0.3944 -0.1621
47114SOL     OW47946   4.170   6.577   9.318 -0.1701  0.0614 -0.0197
47114SOL    HW147947   4.222   6.634   9.261  0.7017  1.1942  1.8205
47114SOL    HW247948   4.199   6.598   9.407 -0.4166 -2.6832  0.8157
47115SOL     OW47949   3.737   6.473  12.164 -0.2151 -0.3138  0.8434
47115SOL    HW147950   3.693   6.526  12.230  1.4305  0.0507  1.6821
47115SOL    HW247951   3.738   6.529  12.086  1.9996  1.1907  1.8737
47116SOL     OW47952   0.162   0.214   5.031  0.0560  0.0592 -0.2646
47116SOL    HW147953   0.159   0.310   5.026 -1.4049  0.1531  1.3972
47116SOL    HW247954   0.255   0.193   5.026  0.4547  1.6124  0.0181
47117SOL     OW47955   3.805   5.074   0.146  0.0973 -0.2160 -0.0110
47117SOL    HW147956   3.809   4.987   0.187 -1.3139  0.2391  1.1811
47117SOL    HW247957   3.801   5.135   0.220  2.5572  1.0247 -0.7749
47118SOL     OW47958   7.182   9.042   5.704  0.2369 -0.1359  0.1685
47118SOL    HW147959   7.111   9.061   5.765  0.4384 -1.6716  0.9172
47118SOL    HW247960   7.260   9.081   5.744 -0.1798  1.7948 -0.7882
47119SOL     OW47961   4.531   6.189  10.319 -0.1479 -0.2906  0.6452
47119SOL    HW147962   4.567   6.150  10.239 -1.0101 -0.3434  0.2742
47119SOL    HW247963   4.465   6.251  10.288 -1.2327 -1.0697  1.3367
47120SOL     OW47964   1.102  12.542   8.360  0.0663  0.3471 -0.4643
47120SOL    HW147965   1.053  12.588   8.292 -0.1388  1.0467  0.1515
47120SOL    HW247966   1.037  12.514   8.423  0.4704  1.9342  0.7458
47121SOL     OW47967   2.743   9.359   7.644  0.2334  0.1538 -0.0872
47121SOL    HW147968   2.827   9.391   7.675  0.6298 -0.0690 -0.8987
47121SOL    HW247969   2.734   9.272   7.681 -1.0474  1.2650  2.4956
47122SOL     OW47970   9.559   5.632   1.932  0.1745  0.3934 -0.4105
47122SOL    HW147971   9.477   5.592   1.962  0.2202 -0.3995 -1.2868
47122SOL    HW247972   9.611   5.559   1.898 -0.2511  1.2734 -3.2328
47123SOL     OW47973   5.211   9.667   1.957  0.2516  0.3286  0.3148
47123SOL    HW147974   5.290   9.613   1.955  0.2826  0.3828 -0.0156
47123SOL    HW247975   5.199   9.695   1.866 -0.7905 -0.6098  0.1347
47124SOL     OW47976   6.542   3.981   5.030 -0.5170 -0.0264  0.0943
47124SOL    HW147977   6.621   3.966   5.082  1.2330  0.9374 -2.0952
47124SOL    HW247978   6.507   3.894   5.013 -0.9292 -0.3786  2.4663
47125SOL     OW47979   0.401   4.914   9.445 -0.0021  0.5284  0.3930
47125SOL    HW147980   0.320   4.940   9.402  0.0338 -3.1919 -2.4343
47125SOL    HW247981   0.373   4.852   9.513  0.3927 -1.1943 -0.9567
47126SOL     OW47982   4.270  10.872   6.413  0.4958 -0.2920  0.0663
47126SOL    HW147983   4.293  10.860   6.505 -0.2253 -1.1146  0.1562
47126SOL    HW247984   4.179  10.901   6.415  0.9774  1.3621 -0.3411
47127SOL     OW47985   9.383   7.728   8.630 -0.0816  0.2708  1.1584
47127SOL    HW147986   9.409   7.782   8.555  1.2408  2.5268  3.0978
47127SOL    HW247987   9.451   7.662   8.638 -0.5837 -0.4049  0.0163
47128SOL     OW47988   2.007   3.858   1.173  0.1242  0.0438 -0.0808
47128SOL    HW147989   2.020   3.948   1.203 -1.2864  0.9368 -1.9397
47128SOL    HW247990   2.090   3.835   1.130  1.0985 -0.2032  1.8601
47129SOL     OW47991  11.436   0.413   3.530  0.0254  0.6444 -0.1566
47129SOL    HW147992  11.480   0.349   3.475  0.0729  0.5005  0.0486
47129SOL    HW247993  11.498   0.486   3.538 -0.6421  1.4303 -1.7076
47130SOL     OW47994  11.113   5.372   4.439 -0.1143  0.0622  0.3630
47130SOL    HW147995  11.056   5.426   4.494  0.2716 -0.0596  0.8960
47130SOL    HW247996  11.194   5.363   4.490 -0.0303 -0.6984  0.1149
47131SOL     OW47997   5.639   5.814  11.213 -0.6975 -0.2752  0.3585
47131SOL    HW147998   5.546   5.833  11.221 -0.8187  1.4975 -3.2518
47131SOL    HW247999   5.681   5.900  11.212  0.9728 -1.0297  1.4778
47132SOL     OW48000   6.217   3.417  11.806 -0.5687  0.3884  0.2945
47132SOL    HW148001   6.179   3.334  11.836 -1.2015 -0.1890 -1.9043
47132SOL    HW248002   6.162   3.484  11.847 -0.0656 -0.2497  2.0864
47133SOL     OW48003   8.334   8.818   1.907  0.5491 -0.2872 -0.2575
47133SOL    HW148004   8.376   8.894   1.947  0.1318 -0.7235  1.0514
47133SOL    HW248005   8.273   8.786   1.973 -0.8995 -0.4570 -1.6012
47134SOL     OW48006   2.878  12.739   7.688 -0.4871  0.5357  0.3126
47134SOL    HW148007   2.811  12.804   7.669  0.5476  1.9511  1.2710
47134SOL    HW248008   2.944  12.752   7.619  0.6228  1.8654  1.5631
47135SOL     OW48009   8.554   1.465   0.358  0.1733 -0.4104  0.0575
47135SOL    HW148010   8.465   1.490   0.383 -0.2492 -0.6492 -1.1613
47135SOL    HW248011   8.555   1.370   0.366  0.3915 -0.3885  0.2956
47136SOL     OW48012   6.996   2.159   6.612  0.1792  0.3882 -0.2319
47136SOL    HW148013   6.935   2.134   6.543 -0.9095  0.8335  0.5412
47136SOL    HW248014   7.070   2.199   6.566 -0.3712  0.3674 -1.1562
47137SOL     OW48015   5.251   3.277   2.320 -0.4140 -0.1483  0.3931
47137SOL    HW148016   5.223   3.363   2.289 -0.1989  0.0337  0.6912
47137SOL    HW248017   5.315   3.297   2.388 -1.0828 -0.5284  1.1528
47138SOL     OW48018   0.131   2.138  10.395 -0.0183  0.0477 -0.0049
47138SOL    HW148019   0.039   2.118  10.410  0.6409 -1.7111  2.2712
47138SOL    HW248020   0.151   2.206  10.460  0.6399 -0.7661  0.6688
47139SOL     OW48021   6.714   3.034   0.518 -0.1793  0.0638  0.3961
47139SOL    HW148022   6.733   2.993   0.434  0.7585 -0.4729  0.8469
47139SOL    HW248023   6.641   3.093   0.501  0.2294  0.2242 -0.8648
47140SOL     OW48024   7.599   8.529   2.042  0.5628 -0.0932 -0.2299
47140SOL    HW148025   7.582   8.436   2.054 -0.4233  0.3968  3.3176
47140SOL    HW248026   7.523   8.563   1.995  0.6400 -0.9255 -0.9754
47141SOL     OW48027   8.297   2.323   5.118 -0.2727 -0.2196 -0.1565
47141SOL    HW148028   8.300   2.372   5.036 -0.6922 -0.7085 -0.4732
47141SOL    HW248029   8.373   2.354   5.167  0.8098 -0.9261 -1.3162
47142SOL     OW48030   2.136   7.572   3.337  0.0396 -0.6051 -0.0369
47142SOL    HW148031   2.144   7.511   3.411  1.0942 -0.1425  0.2646
47142SOL    HW248032   2.053   7.617   3.352  0.0931 -0.7318  0.7191
47143SOL     OW48033  12.217   1.424   0.811 -0.5759  0.2201 -0.4637
47143SOL    HW148034  12.307   1.393   0.825 -0.6308 -0.3507 -1.2772
47143SOL    HW248035  12.225   1.519   0.807  0.2099  0.1239 -1.7871
47144SOL     OW48036   7.728   2.183   5.665  0.1023  0.1626 -0.2197
47144SOL    HW148037   7.780   2.168   5.586 -1.1557  0.6111 -1.1638
47144SOL    HW248038   7.670   2.256   5.642 -0.4592  0.1274  1.0275
47145SOL     OW48039   7.612   8.313  10.982 -0.3956 -0.1578  0.7238
47145SOL    HW148040   7.561   8.354  10.913  0.6324  0.6964  0.4596
47145SOL    HW248041   7.629   8.224  10.950  0.1498  0.2605 -0.1688
47146SOL     OW48042  12.195   6.010   5.700  0.2922 -0.3236 -0.4735
47146SOL    HW148043  12.253   6.078   5.735 -0.2542 -0.5852  1.0351
47146SOL    HW248044  12.107   6.040   5.721  0.0708 -1.8930  1.1183
47147SOL     OW48045  12.411   8.280  10.879  0.3965 -0.0890  0.0721
47147SOL    HW148046  12.454   8.337  10.942 -0.1708  0.6696 -0.2129
47147SOL    HW248047  12.318   8.303  10.886  0.3715  0.3270 -1.3588
47148SOL     OW48048   3.067   5.299   0.350 -0.0545  0.1244 -0.4390
47148SOL    HW148049   3.067   5.213   0.309 -0.9862 -1.0557  1.8561
47148SOL    HW248050   3.045   5.360   0.280 -2.2954 -1.8241 -1.5336
47149SOL     OW48051   0.376   6.569   6.408  0.2809 -0.4056  0.1379
47149SOL    HW148052   0.334   6.573   6.494  2.3690 -2.6832  1.4083
47149SOL    HW248053   0.325   6.505   6.359 -1.6279  1.7597 -0.8465
47150SOL     OW48054  11.367   7.292   7.442 -0.5142  0.4339  0.0272
47150SOL    HW148055  11.359   7.364   7.504 -0.0957 -0.7545  1.4999
47150SOL    HW248056  11.332   7.328   7.360 -2.4449  1.5982  1.2610
47151SOL     OW48057   3.500   7.551   1.695  0.2947 -0.2928  0.3074
47151SOL    HW148058   3.425   7.600   1.664 -0.2499 -0.3958  1.4237
47151SOL    HW248059   3.554   7.538   1.617 -0.4437  0.4760 -0.3472
47152SOL     OW48060   4.646   7.766   6.093  0.2693 -0.4991  0.3709
47152SOL    HW148061   4.602   7.724   6.019  0.9049  3.0254 -2.2235
47152SOL    HW248062   4.578   7.820   6.134  0.5700 -0.3645  0.6954
47153SOL     OW48063   2.060   1.752   3.845  0.5493 -0.1764 -0.3564
47153SOL    HW148064   2.034   1.670   3.886 -0.2096 -0.0589 -0.5819
47153SOL    HW248065   2.002   1.817   3.883  1.3886  0.3268  0.0903
47154SOL     OW48066   0.843   7.453   6.940 -0.3937 -0.3304  0.1656
47154SOL    HW148067   0.897   7.505   6.881  1.1673 -2.4645 -0.3743
47154SOL    HW248068   0.887   7.459   7.025 -0.3605 -0.5372  0.1643
47155SOL     OW48069   2.336   9.281   2.281  0.1873 -0.3159  0.0743
47155SOL    HW148070   2.385   9.232   2.347  0.5142  0.1724  0.2041
47155SOL    HW248071   2.324   9.368   2.320 -0.3918 -0.2967 -0.1445
47156SOL     OW48072   0.443   8.770   0.602  0.2888 -0.3338 -0.6015
47156SOL    HW148073   0.417   8.684   0.636 -1.5051 -0.1219 -1.3170
47156SOL    HW248074   0.533   8.758   0.573  0.3036 -1.7843 -0.0465
47157SOL     OW48075   8.983   3.047  11.257  0.3486  0.0365  0.2123
47157SOL    HW148076   9.075   3.027  11.242 -0.1128 -2.3389  0.1027
47157SOL    HW248077   8.979   3.074  11.349  1.2000  0.5190  0.1085
47158SOL     OW48078   6.541   3.813   0.723  0.2584  0.2504 -0.5096
47158SOL    HW148079   6.605   3.799   0.653  1.1360  0.4185  0.2356
47158SOL    HW248080   6.506   3.726   0.741  0.5668  0.0937 -0.6541
47159SOL     OW48081   0.375  12.309   1.279  0.2914  0.1691 -0.3841
47159SOL    HW148082   0.458  12.350   1.254  0.4727  0.1146  0.1212
47159SOL    HW248083   0.381  12.297   1.374 -0.1149 -0.2435 -0.4051
47160SOL     OW48084  11.625   9.987   8.405  0.5219  0.3788 -0.2649
47160SOL    HW148085  11.545   9.989   8.459  0.2107 -1.0348 -0.6232
47160SOL    HW248086  11.642  10.079   8.384 -0.1015  0.8441  1.1381
47161SOL     OW48087   3.440   8.129   0.654  0.4158 -0.4164  0.0038
47161SOL    HW148088   3.362   8.075   0.668 -0.2297  0.7385  1.0005
47161SOL    HW248089   3.406   8.217   0.636  1.4622  0.6545  2.7151
47162SOL     OW48090   9.389   9.408   8.177 -0.2516  0.4020  0.0947
47162SOL    HW148091   9.455   9.464   8.218 -0.3032  0.2822  0.3419
47162SOL    HW248092   9.380   9.443   8.088  0.2479  0.3271  0.0145
47163SOL     OW48093   0.334   7.992  10.708 -0.0509 -0.0563 -0.5200
47163SOL    HW148094   0.258   8.049  10.721  1.0978  1.2938  0.5361
47163SOL    HW248095   0.387   8.003  10.787  0.0536 -2.9376 -0.0719
47164SOL     OW48096   7.344   2.513   5.753 -0.4185  0.0048  0.0066
47164SOL    HW148097   7.262   2.487   5.710 -0.7187 -1.8849  1.5679
47164SOL    HW248098   7.330   2.604   5.779 -1.5697  0.0600 -0.7391
47165SOL     OW48099   1.936   4.426   7.415 -0.5274  0.2798  0.0273
47165SOL    HW148100   1.980   4.355   7.462 -0.6387  0.0325 -0.2353
47165SOL    HW248101   1.920   4.390   7.328 -1.6130  0.2184  0.2398
47166SOL     OW48102   5.540   6.792  11.792  0.6525 -0.4530  0.3610
47166SOL    HW148103   5.509   6.708  11.828  2.5430 -2.1352 -1.6153
47166SOL    HW248104   5.558   6.845  11.869 -0.7997 -1.7693  1.6977
47167SOL     OW48105   4.184   4.173   5.803  0.1319 -0.9128 -0.3516
47167SOL    HW148106   4.272   4.143   5.826 -0.1337 -1.5457 -0.1470
47167SOL    HW248107   4.197   4.227   5.725  0.5323 -2.1611 -1.1670
47168SOL     OW48108   2.410  12.374  11.204 -0.8922 -0.0143 -0.4841
47168SOL    HW148109   2.428  12.459  11.165 -2.0392 -0.0158 -1.0463
47168SOL    HW248110   2.452  12.310  11.146 -0.1318  0.1471 -0.1250
47169SOL     OW48111   4.907   6.332   5.571  0.8758  0.0921  0.0010
47169SOL    HW148112   4.849   6.345   5.646 -0.4905 -0.1970 -0.9602
47169SOL    HW248113   4.920   6.420   5.536  1.0551  0.1638  0.2475
47170SOL     OW48114   4.522   9.236   7.801 -0.1084 -0.1699 -0.4720
47170SOL    HW148115   4.574   9.156   7.809  1.1065  0.6651  0.2870
47170SOL    HW248116   4.584   9.307   7.815 -0.6761  1.0475 -3.4098
47171SOL     OW48117   5.869  11.720   4.707 -0.3502  0.3247 -0.2993
47171SOL    HW148118   5.874  11.737   4.613  1.5591 -0.6394 -0.4193
47171SOL    HW248119   5.861  11.624   4.714 -0.0308  0.3490  0.5299
47172SOL     OW48120   3.869   3.725   9.254 -0.2338  0.6759  0.1174
47172SOL    HW148121   3.801   3.717   9.187  1.9289  0.7280 -2.2526
47172SOL    HW248122   3.826   3.700   9.335 -2.9296  0.2642 -1.3187
47173SOL     OW48123   2.325   2.669   4.106  0.4997 -0.4969 -0.1541
47173SOL    HW148124   2.353   2.657   4.015 -0.5488 -0.6478 -0.4684
47173SOL    HW248125   2.399   2.714   4.147  0.8743 -0.1562 -1.1547
47174SOL     OW48126   7.024   0.013   4.754  0.3303  0.0679  0.5063
47174SOL    HW148127   7.029   0.108   4.764 -1.3654  0.3474 -0.8150
47174SOL    HW248128   6.931  -0.005   4.740  0.4105 -1.9635  2.0583
47175SOL     OW48129   3.245   9.848   3.037  0.2430 -0.5178  0.2856
47175SOL    HW148130   3.199   9.878   3.116 -1.2103 -2.0228  0.0691
47175SOL    HW248131   3.201   9.893   2.965  0.1039 -0.8245  0.1788
47176SOL     OW48132   6.786   9.255   9.770 -0.0306  0.0227  0.3414
47176SOL    HW148133   6.763   9.267   9.862  2.2853  0.1584  0.9526
47176SOL    HW248134   6.835   9.173   9.768  0.8245  0.5366 -0.5932
47177SOL     OW48135   2.059   5.792   8.069 -0.2062 -0.2376  1.4479
47177SOL    HW148136   1.976   5.760   8.033 -0.0488 -1.0356  1.7861
47177SOL    HW248137   2.124   5.772   8.002 -0.4985  1.8752  0.4351
47178SOL     OW48138   3.217   8.480   4.661  0.3439  0.4707 -0.2897
47178SOL    HW148139   3.242   8.564   4.622  0.7772  0.2863 -0.4111
47178SOL    HW248140   3.298   8.428   4.661 -0.0335 -0.1314 -0.6895
47179SOL     OW48141   5.397   5.972   7.942 -0.6169  0.5811  0.0336
47179SOL    HW148142   5.400   6.055   7.990 -0.5075  0.8032 -0.3538
47179SOL    HW248143   5.335   5.988   7.870  1.5505  1.2927 -1.7921
47180SOL     OW48144  12.762   3.417   4.558  0.1903 -0.5264 -0.3277
47180SOL    HW148145  12.717   3.498   4.536 -1.2077 -1.1667  0.0747
47180SOL    HW248146  12.727   3.352   4.496  0.9109 -0.9421 -0.3127
47181SOL     OW48147   2.404  10.843   0.647 -0.2548  0.4225  0.0963
47181SOL    HW148148   2.437  10.756   0.624  0.6767  0.3142  1.6655
47181SOL    HW248149   2.462  10.904   0.602  0.0714  0.2303  0.2554
47182SOL     OW48150   8.897   9.379   9.542 -0.4256  0.7084  0.5483
47182SOL    HW148151   8.887   9.285   9.526  1.2112  0.4287  0.9394
47182SOL    HW248152   8.985   9.399   9.508 -0.2045  1.7961  1.7086
47183SOL     OW48153   1.826   6.596   1.001  0.0341 -0.4562  0.8438
47183SOL    HW148154   1.877   6.589   1.082  2.3849 -0.6268 -0.5843
47183SOL    HW248155   1.841   6.685   0.970  0.4311 -0.8655 -0.1876
47184SOL     OW48156   9.972   2.162   2.398 -0.5768  0.3933 -0.4106
47184SOL    HW148157  10.048   2.216   2.377 -0.0670  0.9051  2.3236
47184SOL    HW248158   9.984   2.139   2.490 -3.3086 -0.2058 -0.1199
47185SOL     OW48159   7.306   7.382   5.576 -0.2830 -0.0526  0.1041
47185SOL    HW148160   7.359   7.385   5.496 -0.3323  1.5225  0.1014
47185SOL    HW248161   7.313   7.291   5.605  0.9668 -0.3107 -0.8736
47186SOL     OW48162  10.935   2.701   2.693 -0.7750  0.5999  0.4039
47186SOL    HW148163  11.023   2.707   2.655 -1.8059  1.4652 -2.0520
47186SOL    HW248164  10.928   2.611   2.723  0.4110  0.0565 -0.8439
47187SOL     OW48165   9.749   3.156  12.672  0.0840  0.5432  0.9770
47187SOL    HW148166   9.774   3.071  12.710  0.0734 -0.2692 -0.7625
47187SOL    HW248167   9.660   3.143  12.639 -0.4682  1.6836  1.9352
47188SOL     OW48168   0.105  10.646   3.618 -0.1846 -0.5138 -0.1957
47188SOL    HW148169   0.089  10.615   3.707 -0.4987 -1.5011 -0.5876
47188SOL    HW248170   0.115  10.741   3.627 -0.1987 -0.6098  0.8892
47189SOL     OW48171  10.404   1.304   8.797 -0.1091 -0.0157 -0.5338
47189SOL    HW148172  10.457   1.284   8.874 -0.0105  1.2769 -0.2393
47189SOL    HW248173  10.320   1.334   8.833  0.4412  2.0568 -0.8185
47190SOL     OW48174   6.500   8.399   4.055  0.0847  0.1550 -0.5316
47190SOL    HW148175   6.525   8.482   4.096 -3.6712  1.0406  0.4029
47190SOL    HW248176   6.439   8.424   3.985 -1.4307 -1.7598  0.0115
47191SOL     OW48177   9.241  10.067   4.314 -0.2657  0.0674  0.3373
47191SOL    HW148178   9.186  10.100   4.243 -1.5973 -0.5132  1.0494
47191SOL    HW248179   9.280   9.986   4.279 -0.2865  0.2024  0.0036
47192SOL     OW48180   9.024  10.643  12.248  0.4856 -0.1963 -0.2783
47192SOL    HW148181   9.034  10.665  12.341  1.3464 -1.0901 -0.1424
47192SOL    HW248182   8.982  10.720  12.210  1.0956  0.6152  0.6454
47193SOL     OW48183   7.476  10.452   5.452  0.4475 -0.1999  0.2491
47193SOL    HW148184   7.435  10.538   5.445 -1.7266 -1.2575 -0.9592
47193SOL    HW248185   7.524  10.455   5.535  0.7549  2.2720  0.0465
47194SOL     OW48186   6.759   1.168   7.373 -0.1570 -0.4530 -0.1825
47194SOL    HW148187   6.726   1.084   7.405  0.1391  0.1920  1.9925
47194SOL    HW248188   6.681   1.219   7.352 -0.3549 -0.9630 -0.7042
47195SOL     OW48189   4.179   3.486  11.830 -0.3670  0.4603  0.3392
47195SOL    HW148190   4.242   3.551  11.800 -1.2776  1.4712  0.5710
47195SOL    HW248191   4.233   3.414  11.863  0.6512  0.9012 -0.3126
47196SOL     OW48192   7.705   7.725   5.285 -0.4182 -0.3509  0.2834
47196SOL    HW148193   7.705   7.753   5.193 -0.2542 -0.2343  0.3196
47196SOL    HW248194   7.613   7.734   5.312 -0.8512 -2.1676 -0.4038
47197SOL     OW48195   8.646  10.855   0.576 -0.3243  0.2077 -0.2690
47197SOL    HW148196   8.706  10.782   0.562  0.3399  0.2547  1.9226
47197SOL    HW248197   8.687  10.929   0.531 -0.9894 -0.7047 -2.4820
47198SOL     OW48198   1.107   2.900   5.318  0.4725  0.7679  0.9876
47198SOL    HW148199   1.034   2.924   5.261  0.3694  1.8573  1.5584
47198SOL    HW248200   1.131   2.811   5.290 -0.0047  1.0192 -0.2974
47199SOL     OW48201   0.300   7.350   3.523  0.5263 -0.1251  0.0363
47199SOL    HW148202   0.348   7.432   3.512  1.6739 -0.7877  0.0544
47199SOL    HW248203   0.359   7.293   3.571 -1.1760 -0.1748  2.2232
47200SOL     OW48204   3.626  12.277   4.884  0.5811 -0.7301 -0.2463
47200SOL    HW148205   3.582  12.331   4.950 -0.7023 -0.7385 -1.0710
47200SOL    HW248206   3.710  12.255   4.924  0.4009  0.4089  0.8224
47201SOL     OW48207  12.540   8.583  11.317 -0.4780 -0.3581  0.2406
47201SOL    HW148208  12.579   8.495  11.318 -1.6047 -0.8709  0.3843
47201SOL    HW248209  12.456   8.573  11.362 -0.4059  0.9073  0.7011
47202SOL     OW48210   4.581  10.320  10.412 -0.1434  0.6821  0.0679
47202SOL    HW148211   4.512  10.311  10.478 -0.9033 -0.0521 -0.8062
47202SOL    HW248212   4.586  10.235  10.369  0.9508  0.8841 -0.2395
47203SOL     OW48213   7.305   3.063   1.684 -0.1925 -0.3057 -0.4765
47203SOL    HW148214   7.375   3.003   1.656 -0.7111 -2.3640  2.2187
47203SOL    HW248215   7.237   3.053   1.618 -0.6068 -3.4487  0.2760
47204SOL     OW48216  11.417   6.682   6.300 -0.2129 -0.3126 -0.3576
47204SOL    HW148217  11.463   6.618   6.353 -0.4454 -0.1825  0.0034
47204SOL    HW248218  11.381   6.745   6.363  0.6908  0.6224 -0.7407
47205SOL     OW48219  12.310   8.518  11.458 -0.0353  0.1387  0.2607
47205SOL    HW148220  12.306   8.463  11.380 -1.1102  1.0280 -0.3475
47205SOL    HW248221  12.241   8.484  11.515 -1.3479  1.4006 -0.5213
47206SOL     OW48222   3.401   0.250   1.304  0.1559  0.0532  0.5787
47206SOL    HW148223   3.440   0.272   1.388 -0.0349 -1.5315  1.1180
47206SOL    HW248224   3.311   0.283   1.310 -0.3661 -1.4595  1.6704
47207SOL     OW48225   0.305  11.619   6.247  0.3763 -0.2959  0.5077
47207SOL    HW148226   0.210  11.605   6.242 -0.1579  1.1115  3.9312
47207SOL    HW248227   0.320  11.697   6.194 -0.0287 -1.4646 -1.4236
47208SOL     OW48228   5.877   9.353   9.730  0.1105  0.6743  0.2079
47208SOL    HW148229   5.851   9.299   9.804  0.2898 -0.6684 -0.6678
47208SOL    HW248230   5.898   9.290   9.661  1.3593  1.8473 -0.5196
47209SOL     OW48231   2.039   9.440   1.681  0.5303 -0.4631  0.0599
47209SOL    HW148232   2.039   9.431   1.777 -0.1063 -2.1336 -0.0668
47209SOL    HW248233   2.101   9.374   1.651 -0.4315 -1.0197 -0.7477
47210SOL     OW48234  12.079   7.967   9.895 -0.2101  0.5727  0.4017
47210SOL    HW148235  12.118   7.883   9.919  0.3220  1.0029  1.1014
47210SOL    HW248236  12.100   7.978   9.802 -1.4446 -0.6786 -0.0485
47211SOL     OW48237   7.828   7.020   0.590  0.0415  0.1972 -0.8336
47211SOL    HW148238   7.921   7.008   0.573  0.0010 -1.1522 -0.1813
47211SOL    HW248239   7.805   7.099   0.540  1.3075 -0.0072 -1.7877
47212SOL     OW48240   3.156   8.787  10.053  0.5676 -1.0016 -0.7677
47212SOL    HW148241   3.125   8.728  10.121 -1.4293  0.2307 -0.5280
47212SOL    HW248242   3.197   8.859  10.102 -1.5776  0.2789 -0.7518
47213SOL     OW48243   4.734  10.040   3.635  0.3295  0.0631 -0.1449
47213SOL    HW148244   4.670  10.008   3.698  0.5961  0.6802  0.4513
47213SOL    HW248245   4.797  10.090   3.688  0.5347  0.6175 -0.8996
47214SOL     OW48246   0.141   1.038   2.747  0.1524  0.0103  0.3844
47214SOL    HW148247   0.079   1.093   2.699  0.2844 -0.1351  0.0477
47214SOL    HW248248   0.120   0.949   2.719 -0.3315 -0.1536  1.2341
47215SOL     OW48249   5.023  10.120  12.045  0.4850  0.4285 -0.1419
47215SOL    HW148250   4.995  10.130  11.954  1.2981  1.3852 -0.3081
47215SOL    HW248251   5.039  10.209  12.075  1.1422  0.0603  0.6391
47216SOL     OW48252   9.470   3.032   3.904  0.5035  0.0959 -0.2391
47216SOL    HW148253   9.448   3.050   3.812 -0.0704 -3.6290 -0.9725
47216SOL    HW248254   9.564   3.014   3.904  0.4257 -0.3157 -0.1736
47217SOL     OW48255   9.905   8.234   6.965 -0.6286 -0.6216 -0.0138
47217SOL    HW148256   9.844   8.304   6.942 -0.0563 -0.3255 -0.6580
47217SOL    HW248257   9.990   8.277   6.970 -0.3201 -1.2159 -0.1152
47218SOL     OW48258   0.857   0.687   7.863 -0.5253  0.2810 -0.1382
47218SOL    HW148259   0.875   0.777   7.837 -0.3289  0.4049  0.4142
47218SOL    HW248260   0.763   0.685   7.881 -0.7186  0.1193 -1.1359
47219SOL     OW48261   6.122   4.315   9.242 -0.1230 -0.0355  0.3430
47219SOL    HW148262   6.102   4.397   9.198  0.2669  0.4159  1.0087
47219SOL    HW248263   6.137   4.338   9.333  0.9019 -0.7134  0.3630
47220SOL     OW48264   8.620  11.749  10.800 -0.6677  0.2877 -0.2386
47220SOL    HW148265   8.695  11.692  10.814 -0.9927  0.1221  0.9337
47220SOL    HW248266   8.562  11.699  10.743  0.0184  0.3566 -1.0300
47221SOL     OW48267   6.444   0.897   5.757  0.2005  0.2795  0.1249
47221SOL    HW148268   6.381   0.864   5.693 -1.1786  2.9096 -0.0411
47221SOL    HW248269   6.501   0.956   5.706  0.5924  0.5938  0.9081
47222SOL     OW48270   3.551  11.684  12.428  0.5098  0.2620  0.4280
47222SOL    HW148271   3.475  11.732  12.461 -0.3415 -0.8123  0.0534
47222SOL    HW248272   3.588  11.641  12.505  0.3642  0.2640  0.4983
47223SOL     OW48273   2.900  10.030   1.966  0.2612 -0.3286 -0.3268
47223SOL    HW148274   2.826  10.090   1.959 -1.1122 -1.4314  2.8478
47223SOL    HW248275   2.895   9.976   1.887 -2.9517 -0.9140  0.1243
47224SOL     OW48276   0.160   0.432   8.469  0.2362  0.4077  0.2039
47224SOL    HW148277   0.255   0.430   8.461  0.3637  1.6781  1.2406
47224SOL    HW248278   0.129   0.437   8.378  1.1391 -0.1305 -0.1483
47225SOL     OW48279   2.647   7.899   6.646  0.4322 -0.1135  0.7855
47225SOL    HW148280   2.562   7.926   6.679  0.6893 -1.1225  2.4056
47225SOL    HW248281   2.634   7.888   6.552 -0.7072  1.5567  0.6985
47226SOL     OW48282   2.000  12.207   6.865 -0.1644  0.2891  0.2957
47226SOL    HW148283   1.975  12.231   6.954 -0.0899  0.3788  0.2928
47226SOL    HW248284   1.983  12.285   6.813  1.5148  0.8797  0.5594
47227SOL     OW48285   0.398  10.276   5.238 -0.2967 -0.5166  0.6118
47227SOL    HW148286   0.306  10.272   5.212 -0.8923  0.9695  2.3383
47227SOL    HW248287   0.439  10.206   5.188 -2.3440 -1.2069 -0.2242
47228SOL     OW48288   7.461   7.939   1.366  0.2697  0.1375  0.2280
47228SOL    HW148289   7.409   7.892   1.430  3.0662 -1.1884  1.6777
47228SOL    HW248290   7.462   8.030   1.397 -0.5878  0.0517  0.5247
47229SOL     OW48291   0.585   7.457  11.555 -0.1344  0.4535  0.0395
47229SOL    HW148292   0.650   7.389  11.541 -1.1447 -0.1390 -2.3703
47229SOL    HW248293   0.635   7.539  11.558  0.8664 -0.1542  0.3661
47230SOL     OW48294   1.130   1.773   7.069 -0.2266  0.2642  0.3803
47230SOL    HW148295   1.094   1.756   7.156 -0.1222 -1.9819  0.0376
47230SOL    HW248296   1.076   1.845   7.035  0.2189  1.7111  2.5310
47231SOL     OW48297  11.015   0.230  11.523  0.5069 -0.2680  0.3680
47231SOL    HW148298  11.106   0.257  11.508  0.4958 -0.5844 -0.3298
47231SOL    HW248299  10.969   0.259  11.444 -0.2787  1.0840  1.2826
47232SOL     OW48300  11.697   9.964  10.345 -0.2342  0.1783  0.2341
47232SOL    HW148301  11.635  10.037  10.346  1.2236  1.4754  1.9342
47232SOL    HW248302  11.739   9.970  10.259 -1.1464  0.4349 -0.2005
47233SOL     OW48303   0.373   2.377   6.434 -0.2153  0.2167 -0.0461
47233SOL    HW148304   0.324   2.325   6.498 -0.3011 -0.7253 -0.8604
47233SOL    HW248305   0.405   2.452   6.484 -0.2078 -0.5439  1.1264
47234SOL     OW48306   2.247  11.338   9.136  0.0053  0.3401 -0.0346
47234SOL    HW148307   2.283  11.401   9.198 -0.8041 -0.4813  1.2969
47234SOL    HW248308   2.197  11.392   9.074  0.8499  1.1618 -0.0256
47235SOL     OW48309   5.231  10.543   9.192  0.5958 -0.1455  0.1734
47235SOL    HW148310   5.187  10.503   9.267  2.5471 -0.9526  0.9607
47235SOL    HW248311   5.203  10.634   9.194 -1.4054 -0.7185  0.3011
47236SOL     OW48312   9.752  10.122   1.027  0.1326 -0.2328 -0.0206
47236SOL    HW148313   9.847  10.115   1.014  0.3720 -2.1419  2.1189
47236SOL    HW248314   9.741  10.129   1.122 -1.9313 -1.4193 -0.1159
47237SOL     OW48315   5.568   3.467   0.262 -0.0642  0.2952 -0.5472
47237SOL    HW148316   5.500   3.406   0.232 -0.1959  0.1873 -0.0439
47237SOL    HW248317   5.563   3.541   0.202 -1.0274  0.5539 -0.1724
47238SOL     OW48318   8.419   5.648   9.129 -0.0866 -0.9196  0.2939
47238SOL    HW148319   8.449   5.616   9.214 -0.4433  0.0330  0.7943
47238SOL    HW248320   8.393   5.739   9.146 -1.8352 -1.2486 -0.4502
47239SOL     OW48321  10.297   2.494   5.304 -0.3143  0.6997 -0.4337
47239SOL    HW148322  10.279   2.443   5.225 -0.0647  1.3378 -0.9096
47239SOL    HW248323  10.325   2.579   5.272  2.6140  0.1054  0.2694
47240SOL     OW48324   3.791  11.872  10.598 -0.1869 -0.5360 -0.1899
47240SOL    HW148325   3.880  11.905  10.583 -0.5947 -0.8532 -4.5196
47240SOL    HW248326   3.736  11.950  10.592 -0.4681 -0.8270 -2.0926
47241SOL     OW48327   0.284  12.183   7.953 -0.3257 -0.4017  0.1796
47241SOL    HW148328   0.192  12.204   7.939 -0.1519 -0.3060 -0.9249
47241SOL    HW248329   0.287  12.143   8.040 -1.8304 -2.8436 -0.7824
47242SOL     OW48330   3.622   2.041  11.139 -0.2241 -0.2297  0.2448
47242SOL    HW148331   3.613   2.136  11.140  0.9523 -0.1102  0.5076
47242SOL    HW248332   3.576   2.013  11.059  1.7008  0.8319 -1.3140
47243SOL     OW48333   6.649   1.622   9.711  0.4374  0.2216 -0.2936
47243SOL    HW148334   6.679   1.533   9.732  0.2860  0.2874  0.2132
47243SOL    HW248335   6.718   1.679   9.745  0.8230  0.2794 -1.1473
47244SOL     OW48336  10.127   1.841   3.549  0.0503  0.0582  0.0366
47244SOL    HW148337  10.040   1.856   3.511  0.2894  0.5048 -0.3467
47244SOL    HW248338  10.185   1.898   3.498  0.5954 -0.3706  0.1737
47245SOL     OW48339   9.311  11.027  10.831 -0.2529 -0.8777 -0.1311
47245SOL    HW148340   9.239  11.002  10.774  0.4003 -2.2198 -0.3995
47245SOL    HW248341   9.361  10.947  10.843  1.1298 -0.0004  0.1548
47246SOL     OW48342   0.173  10.301  12.381  0.0090  0.8252  0.0341
47246SOL    HW148343   0.206  10.385  12.413 -0.3894  0.4721  1.4624
47246SOL    HW248344   0.214  10.236  12.439 -0.3695  0.0994 -0.4955
47247SOL     OW48345   0.186   8.815   2.384 -0.1918 -0.0214  0.1727
47247SOL    HW148346   0.118   8.765   2.430  0.7002 -1.4205  0.0305
47247SOL    HW248347   0.256   8.825   2.449  0.4045 -0.6009 -0.3657
47248SOL     OW48348   6.730   9.196   8.834 -0.1790 -0.2090  0.4096
47248SOL    HW148349   6.661   9.167   8.894  0.2314  0.2689  1.1338
47248SOL    HW248350   6.685   9.258   8.776 -0.7943 -1.3841 -0.4130
47249SOL     OW48351  12.448   7.092   1.738  0.1905  0.6006  0.2693
47249SOL    HW148352  12.480   7.097   1.828 -0.7597  0.0472  0.6578
47249SOL    HW248353  12.356   7.120   1.744 -1.1207 -3.1227  0.1885
47250SOL     OW48354  12.570   2.303   3.960  0.4276  0.3605  0.3996
47250SOL    HW148355  12.656   2.322   3.997 -0.2404  1.9139  1.2106
47250SOL    HW248356  12.508   2.329   4.028 -0.7239 -0.0471 -0.4614
47251SOL     OW48357   3.351   0.620   2.910 -0.0453  0.1785  0.2659
47251SOL    HW148358   3.410   0.569   2.966 -0.0470  1.3885  1.4440
47251SOL    HW248359   3.393   0.621   2.825  1.9612  1.4019  1.1875
47252SOL     OW48360   6.614   4.843   4.416 -0.4075 -0.4654 -0.3179
47252SOL    HW148361   6.589   4.752   4.430 -0.2641 -0.6989 -1.4308
47252SOL    HW248362   6.608   4.855   4.321 -0.6753  0.7595 -0.1681
47253SOL     OW48363   3.936   3.706   1.642  0.0975  0.5358  0.1553
47253SOL    HW148364   3.979   3.750   1.715  1.1313  1.4457 -0.9513
47253SOL    HW248365   4.005   3.695   1.576 -0.6791 -0.7046 -0.5086
47254SOL     OW48366   5.272  10.647  11.440 -0.5439 -0.1030  0.1373
47254SOL    HW148367   5.230  10.629  11.524 -2.0755  2.5327  0.0456
47254SOL    HW248368   5.336  10.716  11.460 -0.4248  0.0524 -0.7506
47255SOL     OW48369   1.624   5.994   4.990  0.4159 -0.0280  0.0937
47255SOL    HW148370   1.689   5.984   4.920 -0.8806  2.1688 -1.5810
47255SOL    HW248371   1.574   5.913   4.988 -1.3532  0.9319 -3.6108
47256SOL     OW48372   3.334   7.503   9.054 -0.2418  0.2551  0.4791
47256SOL    HW148373   3.313   7.562   8.981 -2.9108 -1.2545 -0.1256
47256SOL    HW248374   3.268   7.523   9.120  1.4269  0.7877  2.0379
47257SOL     OW48375   8.272  12.527   4.173  0.6718 -0.0455 -0.0274
47257SOL    HW148376   8.347  12.585   4.170  1.4246 -0.9894 -0.1542
47257SOL    HW248377   8.289  12.469   4.248 -0.9123  0.9809  1.1972
47258SOL     OW48378   6.154  11.559   0.842 -0.4699  0.3211  0.2498
47258SOL    HW148379   6.101  11.633   0.872 -1.1838 -0.8116  1.8916
47258SOL    HW248380   6.090  11.490   0.823  0.3142 -0.6084  0.8934
47259SOL     OW48381   2.084   3.704   7.380 -0.8549  0.2931  0.4205
47259SOL    HW148382   2.098   3.701   7.286 -0.2924  1.1877  0.4581
47259SOL    HW248383   2.166   3.669   7.417 -1.1907 -0.3455  0.5865
47260SOL     OW48384   8.317   4.590   5.506  0.4085  0.1482  0.4727
47260SOL    HW148385   8.405   4.614   5.535  0.5863 -1.2071  1.1716
47260SOL    HW248386   8.260   4.657   5.544  1.2005  1.5688 -0.7598
47261SOL     OW48387   1.427  10.897   3.724 -0.3085 -0.8670  0.3688
47261SOL    HW148388   1.515  10.866   3.746  0.9128  2.4662  0.8425
47261SOL    HW248389   1.431  10.916   3.631 -0.5526 -0.8395  0.3635
47262SOL     OW48390  11.826   0.026   9.492  0.1939 -0.1498 -0.1050
47262SOL    HW148391  11.778  -0.056   9.500 -1.1184  0.2842 -2.3753
47262SOL    HW248392  11.915   0.000   9.470  0.5707 -0.9576  2.1710
47263SOL     OW48393  11.604   3.756   8.786  0.5147  0.0105 -0.3328
47263SOL    HW148394  11.573   3.836   8.829 -2.1642 -0.0615 -1.9377
47263SOL    HW248395  11.692   3.779   8.755 -0.2462  2.4425 -0.9169
47264SOL     OW48396   9.213   8.190   5.022 -0.6346 -0.3480  0.2303
47264SOL    HW148397   9.184   8.101   5.042 -1.7038  0.1914  1.2131
47264SOL    HW248398   9.305   8.180   4.995 -0.5984 -1.6893  0.7699
47265SOL     OW48399   9.928   2.298   9.940  0.1964  0.1211  0.1658
47265SOL    HW148400   9.848   2.275   9.893 -0.5118  0.5002  1.1524
47265SOL    HW248401   9.936   2.230  10.008 -0.7487  1.5033  1.7413
47266SOL     OW48402  11.974   0.350   7.249 -0.4773  0.0241 -0.2874
47266SOL    HW148403  11.947   0.269   7.205 -1.8736 -0.0838  0.6999
47266SOL    HW248404  11.998   0.409   7.178 -1.0196 -0.7058 -1.1022
47267SOL     OW48405  10.348   9.601  11.198 -0.3453  0.1267 -0.4361
47267SOL    HW148406  10.379   9.606  11.108  0.4767 -0.9946 -0.2362
47267SOL    HW248407  10.424   9.624  11.251 -0.8451  0.8523 -0.0167
47268SOL     OW48408   5.186   9.362   2.500  0.3160 -0.7710  0.2240
47268SOL    HW148409   5.142   9.428   2.553  0.5240  1.8690 -2.6039
47268SOL    HW248410   5.156   9.378   2.411  2.9826 -2.2893 -1.0905
47269SOL     OW48411   3.403   9.924   4.172 -0.3707  0.4842  0.2427
47269SOL    HW148412   3.354   9.940   4.092  0.5849  1.3655 -0.1888
47269SOL    HW248413   3.348   9.961   4.241 -1.5164 -0.8762  0.1185
47270SOL     OW48414   3.284   4.406   0.747  0.1442  0.4534 -0.2209
47270SOL    HW148415   3.323   4.492   0.731  1.2846  0.3681  1.8157
47270SOL    HW248416   3.347   4.362   0.804 -1.0559 -1.2473 -0.1641
47271SOL     OW48417   5.741  12.240   2.610  0.2177 -0.1018 -0.4262
47271SOL    HW148418   5.671  12.177   2.596  0.6725 -0.4781 -1.0414
47271SOL    HW248419   5.700  12.310   2.661 -0.5106 -0.4815 -0.4754
47272SOL     OW48420  11.574  12.008   9.659 -0.1521 -0.2794  0.0244
47272SOL    HW148421  11.630  11.938   9.626 -0.8382 -1.6977  1.7090
47272SOL    HW248422  11.612  12.031   9.744 -2.9970 -2.6046  2.1499
47273SOL     OW48423   8.962   9.855   7.148  0.2107 -0.0688  0.8302
47273SOL    HW148424   8.987   9.944   7.172 -2.4064  1.4529 -1.5310
47273SOL    HW248425   9.002   9.841   7.062  0.5745 -1.2144  1.1651
47274SOL     OW48426  10.951   1.791   1.298 -0.4542 -0.1428  0.1176
47274SOL    HW148427  10.908   1.774   1.382  0.6405 -2.2986  0.3210
47274SOL    HW248428  11.000   1.711   1.279  1.3663  1.2098 -1.3738
47275SOL     OW48429   3.812   9.776   6.341 -0.0304 -0.6926 -0.4144
47275SOL    HW148430   3.725   9.809   6.361 -0.1016 -1.7811  1.3256
47275SOL    HW248431   3.869   9.853   6.346 -0.5217 -0.3965  1.2406
47276SOL     OW48432  11.934   8.388   4.396 -0.4230  0.8309 -0.2719
47276SOL    HW148433  11.980   8.457   4.444  1.0177 -0.3931  0.1932
47276SOL    HW248434  11.994   8.313   4.399 -1.4138 -0.0760 -1.7921
47277SOL     OW48435   4.597   5.757  10.515 -0.0327 -0.3064 -0.6290
47277SOL    HW148436   4.680   5.789  10.480 -0.4815  0.3330 -1.1334
47277SOL    HW248437   4.530   5.806  10.467 -0.6737  0.7498  1.2476
47278SOL     OW48438   6.417   8.840   8.528  0.0378 -0.0428  0.4092
47278SOL    HW148439   6.488   8.778   8.513  0.4303  0.2409  1.0582
47278SOL    HW248440   6.357   8.794   8.587  0.4154  0.2454  1.0307
47279SOL     OW48441   2.767  10.333   1.108 -0.3257  0.3978 -0.6473
47279SOL    HW148442   2.768  10.267   1.177 -0.2406  1.0640 -0.0017
47279SOL    HW248443   2.827  10.299   1.041  0.1459  0.0882 -0.0692
47280SOL     OW48444   2.356   8.403   7.628  0.0622  0.2784  0.1548
47280SOL    HW148445   2.416   8.329   7.630 -0.1690  0.0545 -0.7564
47280SOL    HW248446   2.273   8.366   7.598 -0.5207  0.6104  1.2759
47281SOL     OW48447   3.458  12.768   7.092  0.3204 -0.2400 -0.2247
47281SOL    HW148448   3.484  12.859   7.075 -1.0030  0.7144  2.2264
47281SOL    HW248449   3.362  12.769   7.084  0.2021 -1.1613  0.8388
47282SOL     OW48450   4.342   6.369  11.774 -0.5585 -0.2763 -0.6179
47282SOL    HW148451   4.393   6.342  11.698 -1.1507 -1.5748 -0.5777
47282SOL    HW248452   4.253   6.383  11.740 -0.4876  0.6796 -0.4439
47283SOL     OW48453   3.265   1.944   5.625  0.1982  0.2556  0.0184
47283SOL    HW148454   3.206   1.997   5.572 -1.2598 -0.9372  0.3855
47283SOL    HW248455   3.345   1.996   5.631  0.5994  0.3551 -3.5910
47284SOL     OW48456   8.762  12.545   5.964 -0.1188  0.3397  0.9744
47284SOL    HW148457   8.783  12.566   5.873 -0.3338 -1.4670  0.4779
47284SOL    HW248458   8.668  12.562   5.972 -1.4620 -4.6865 -0.8395
47285SOL     OW48459   0.658   0.482   1.452  0.3674  0.1236 -0.1369
47285SOL    HW148460   0.705   0.414   1.404  1.7501  0.5633  0.5500
47285SOL    HW248461   0.566   0.457   1.443  0.4618  0.5513 -3.5655
47286SOL     OW48462   9.397   0.028   7.314  0.1574  0.2535  0.7469
47286SOL    HW148463   9.407   0.112   7.270 -1.5001 -0.3137 -0.8294
47286SOL    HW248464   9.307   0.002   7.296  0.3591 -1.4572  1.9557
47287SOL     OW48465   9.158   1.563   6.307  0.1360 -0.3845  0.0644
47287SOL    HW148466   9.169   1.647   6.353 -4.4144  1.5542 -1.7403
47287SOL    HW248467   9.227   1.563   6.241  1.7476  0.6765  1.6417
47288SOL     OW48468  10.068   4.702  10.350 -0.0234  0.0091  0.5610
47288SOL    HW148469  10.162   4.707  10.365  0.0419 -0.2802  0.2788
47288SOL    HW248470  10.060   4.657  10.265 -0.3847  0.9631  0.0785
47289SOL     OW48471   0.845   0.884   3.219  0.0983  0.2610 -0.0057
47289SOL    HW148472   0.768   0.840   3.181  0.7916 -0.5893 -0.4531
47289SOL    HW248473   0.834   0.976   3.195  0.1223 -0.1266 -1.6147
47290SOL     OW48474   5.879   4.403   0.911 -0.2636 -0.4810 -0.2064
47290SOL    HW148475   5.840   4.467   0.852 -0.6059 -0.0645  0.4510
47290SOL    HW248476   5.893   4.452   0.992 -0.7518 -1.2932  0.3827
47291SOL     OW48477   8.913   3.545   4.432 -0.1578  0.2175 -0.5515
47291SOL    HW148478   8.909   3.460   4.388  1.2355  0.1535 -0.5741
47291SOL    HW248479   8.833   3.590   4.404 -1.9115 -1.7617  0.9127
47292SOL     OW48480   6.554   9.759   0.337 -0.0847  0.3753 -0.2931
47292SOL    HW148481   6.641   9.798   0.339 -0.5585  1.4805 -0.3529
47292SOL    HW248482   6.541   9.726   0.426  0.0581  0.9953 -0.0329
47293SOL     OW48483   5.699   6.445  10.972  0.0171 -0.1512  0.4157
47293SOL    HW148484   5.670   6.395  11.048  1.4801  0.7893  1.6450
47293SOL    HW248485   5.732   6.379  10.911 -2.6994 -1.0733 -0.2174
47294SOL     OW48486   9.232   8.360  10.749 -0.0295  0.3699  0.1268
47294SOL    HW148487   9.250   8.435  10.806  1.5932 -0.5097  0.8401
47294SOL    HW248488   9.288   8.374  10.672 -0.0599  0.1291  0.0597
47295SOL     OW48489   2.193   5.507   9.620 -0.4343  0.0729 -0.1089
47295SOL    HW148490   2.207   5.413   9.635 -1.0894 -0.2383 -1.2586
47295SOL    HW248491   2.260   5.531   9.556 -2.0088 -0.3218 -2.0161
47296SOL     OW48492   8.661   8.547   0.461  0.0845 -0.2139 -0.0718
47296SOL    HW148493   8.751   8.564   0.486  0.7349 -2.0190 -0.9335
47296SOL    HW248494   8.661   8.554   0.365 -1.1292  1.5060  0.0128
47297SOL     OW48495   6.761   4.439   6.020 -0.4511 -0.2167  0.4761
47297SOL    HW148496   6.720   4.430   5.934 -1.7774  0.4777  1.0056
47297SOL    HW248497   6.752   4.353   6.060  0.8970 -0.7766 -0.3578
47298SOL     OW48498   4.899   4.552  10.395  0.1701 -0.0812 -0.1286
47298SOL    HW148499   4.917   4.461  10.419 -0.2945 -0.0301  0.4163
47298SOL    HW248500   4.875   4.594  10.477  1.6376  0.8504 -0.1333
47299SOL     OW48501  10.326  11.564  12.401  0.7061  0.3366 -0.0089
47299SOL    HW148502  10.367  11.484  12.433 -1.2923 -0.8648 -0.2566
47299SOL    HW248503  10.370  11.635  12.448  4.1730 -0.6462 -1.4731
47300SOL     OW48504   5.586   3.155   4.825  0.0093  0.3041 -0.3627
47300SOL    HW148505   5.612   3.247   4.827  0.1653  0.3196 -1.9216
47300SOL    HW248506   5.605   3.123   4.913  2.3649  1.1022 -0.5154
47301SOL     OW48507   1.030   9.738   5.759 -0.1159  0.1664  0.2386
47301SOL    HW148508   1.091   9.805   5.790 -0.9381  0.3872  1.4677
47301SOL    HW248509   0.947   9.784   5.750 -0.1620 -0.1656 -1.2629
47302SOL     OW48510   2.923   4.867   2.229  0.0035  0.0750 -0.3190
47302SOL    HW148511   2.944   4.787   2.182  4.0652  0.9416 -0.3645
47302SOL    HW248512   2.851   4.906   2.180 -0.1326 -2.1064 -1.9962
47303SOL     OW48513   3.604  10.256   0.121  0.1074 -0.3456  0.3955
47303SOL    HW148514   3.519  10.290   0.094 -0.1486 -1.1853  0.0938
47303SOL    HW248515   3.590  10.161   0.129  1.2410 -0.6145 -0.5484
47304SOL     OW48516   8.235   2.997   2.416 -0.2989  0.2480 -0.5098
47304SOL    HW148517   8.251   3.002   2.510  1.0178 -1.2199 -0.6144
47304SOL    HW248518   8.175   3.070   2.398  0.4494  1.3655  1.2240
47305SOL     OW48519   3.413   7.709  12.144  0.6540  0.5389  0.0877
47305SOL    HW148520   3.447   7.692  12.057 -0.4349 -0.8413 -0.1072
47305SOL    HW248521   3.336   7.765  12.129  0.3948  0.2006  0.1439
47306SOL     OW48522   4.462  11.051   3.383  0.7123  0.1668  0.2598
47306SOL    HW148523   4.429  10.962   3.396  1.0554  0.1397  1.0471
47306SOL    HW248524   4.555  11.038   3.361 -0.1784  0.1121 -4.2100
47307SOL     OW48525   9.501   7.728   9.652 -0.4788  0.2653 -0.5347
47307SOL    HW148526   9.493   7.641   9.693  1.9425 -0.4827 -1.4615
47307SOL    HW248527   9.561   7.776   9.709 -0.7626  0.8793 -0.7430
47308SOL     OW48528   7.865  12.156   3.060 -0.3569  0.2240 -0.0179
47308SOL    HW148529   7.909  12.092   3.115  0.5406  0.1150 -0.8321
47308SOL    HW248530   7.795  12.192   3.115  1.4386  1.2416  1.7147
47309SOL     OW48531   6.922   8.188   1.586 -0.3748 -0.4191  1.2882
47309SOL    HW148532   7.007   8.161   1.620 -0.5191 -0.4176  1.6538
47309SOL    HW248533   6.905   8.273   1.625 -0.5545 -0.4277  1.2352
47310SOL     OW48534   2.402   3.051  10.080  0.1956 -0.4214  0.6735
47310SOL    HW148535   2.387   2.966  10.121 -0.9397 -0.3805  0.3674
47310SOL    HW248536   2.325   3.103  10.103  0.5440  0.2882  0.2597
47311SOL     OW48537   9.030   7.760   6.541  0.3884 -0.0496 -0.5099
47311SOL    HW148538   9.111   7.805   6.565 -0.7779  1.2845  1.1347
47311SOL    HW248539   8.985   7.744   6.624 -0.5042 -1.8362 -1.2881
47312SOL     OW48540   7.221  10.901   7.919  0.3655 -0.5259  0.1753
47312SOL    HW148541   7.153  10.948   7.966  1.0920  1.9473 -1.0706
47312SOL    HW248542   7.303  10.942   7.948  0.9979 -0.6485 -1.3518
47313SOL     OW48543  12.331  10.497  12.375  0.0991 -0.2329 -0.1131
47313SOL    HW148544  12.285  10.549  12.309  0.8756 -0.6048 -0.9687
47313SOL    HW248545  12.423  10.520  12.364  0.3289 -0.9512  0.2522
47314SOL     OW48546   4.790   3.022   1.365  0.1394 -0.0991 -0.2478
47314SOL    HW148547   4.730   3.097   1.370 -1.3569 -1.3172  1.1764
47314SOL    HW248548   4.829   3.029   1.278  0.3903  2.5480  0.0011
47315SOL     OW48549   9.237   6.778  10.225  0.1058  0.1270 -0.0713
47315SOL    HW148550   9.268   6.690  10.200  0.0645 -0.0098  0.3539
47315SOL    HW248551   9.145   6.779  10.198  0.3705  0.4007 -0.9947
47316SOL     OW48552   7.216   6.786   0.879 -0.3555 -0.1130 -0.2348
47316SOL    HW148553   7.205   6.724   0.807  1.6147  0.0780 -0.7657
47316SOL    HW248554   7.290   6.841   0.852 -0.4179  0.8155  1.3617
47317SOL     OW48555   7.176   3.097   4.746  0.4894 -0.3701 -0.3838
47317SOL    HW148556   7.226   3.046   4.809  1.1145  0.5140 -0.1453
47317SOL    HW248557   7.088   3.059   4.749 -0.1200  1.0142  2.6100
47318SOL     OW48558   5.004  12.687   1.670  0.4292  0.4844  0.9656
47318SOL    HW148559   4.918  12.674   1.631  0.7178  1.1070  0.1015
47318SOL    HW248560   5.049  12.603   1.655 -0.2927 -0.1535  2.1819
47319SOL     OW48561   1.089   4.337  10.661 -0.2491  0.1553  0.1029
47319SOL    HW148562   1.016   4.275  10.659 -0.0196 -0.1276  0.3959
47319SOL    HW248563   1.083   4.385  10.578 -0.0111 -0.7444 -0.4473
47320SOL     OW48564   2.722   3.809   2.129  0.3815 -0.0526  0.3457
47320SOL    HW148565   2.779   3.858   2.189 -1.2647  3.3519 -0.6161
47320SOL    HW248566   2.759   3.826   2.042 -0.2969 -0.4505 -0.0230
47321SOL     OW48567   0.275   7.806   9.180  0.1057  0.2073  0.2476
47321SOL    HW148568   0.301   7.892   9.147 -0.6864  0.6060  0.6262
47321SOL    HW248569   0.301   7.807   9.272  0.6061 -0.1835  0.1168
47322SOL     OW48570  11.232   9.901   5.435  0.0606 -0.0489  0.4383
47322SOL    HW148571  11.299   9.937   5.493 -0.5180 -0.2166  1.2194
47322SOL    HW248572  11.176   9.849   5.492 -0.8970  0.3080 -0.1520
47323SOL     OW48573   3.238   3.060  12.223 -0.5962 -0.1632  0.4332
47323SOL    HW148574   3.166   3.007  12.187 -0.5649  1.0315 -1.5455
47323SOL    HW248575   3.295   3.077  12.148  0.2036  1.3607  1.3459
47324SOL     OW48576   2.913   4.230  10.196  0.3910  0.4150  0.2913
47324SOL    HW148577   2.993   4.283  10.188  1.0078 -0.3581  1.2055
47324SOL    HW248578   2.849   4.290  10.235  0.6542  0.8922  0.0131
47325SOL     OW48579   0.275   6.409   7.333  0.3746  0.2334  0.3949
47325SOL    HW148580   0.193   6.361   7.325  0.1528  0.7109 -0.3079
47325SOL    HW248581   0.339   6.355   7.286 -0.1232  1.1624 -1.4384
47326SOL     OW48582   7.196   1.563   7.153 -0.0736  0.4558 -0.0216
47326SOL    HW148583   7.155   1.557   7.239 -0.4643 -1.9820 -0.3178
47326SOL    HW248584   7.282   1.522   7.164  0.9471  2.3785 -0.2585
47327SOL     OW48585   3.335   7.184   2.628 -0.6714  0.2525  0.1006
47327SOL    HW148586   3.354   7.224   2.713 -0.6596 -1.7691  1.1038
47327SOL    HW248587   3.339   7.090   2.644 -0.9116 -0.1906 -2.1042
47328SOL     OW48588   1.853   2.912   0.140  0.2827 -0.2559  0.0605
47328SOL    HW148589   1.853   2.888   0.233  0.8753 -1.6623 -0.2679
47328SOL    HW248590   1.886   3.001   0.138  1.6878 -0.7162  1.1067
47329SOL     OW48591   3.504   9.022   4.498  0.0479 -0.3883  0.3700
47329SOL    HW148592   3.467   9.085   4.435  1.5908  0.8391  0.6111
47329SOL    HW248593   3.441   9.020   4.570 -0.1852  0.6736  0.2146
47330SOL     OW48594  11.957   0.115   9.995 -0.3496  0.0192  0.4855
47330SOL    HW148595  11.874   0.158   9.977 -1.3615 -0.5292  3.2820
47330SOL    HW248596  11.962   0.043   9.933 -2.2656 -0.2663  0.6248
47331SOL     OW48597  12.091   8.227   2.724 -0.6515 -0.3606  0.4939
47331SOL    HW148598  12.062   8.298   2.781  0.4990 -0.4637  1.2367
47331SOL    HW248599  12.093   8.266   2.636  1.2483  0.9791  1.0605
47332SOL     OW48600   0.315   9.880   4.876 -0.2293  0.4506  0.6656
47332SOL    HW148601   0.305   9.938   4.800 -0.2799  0.9387  1.0342
47332SOL    HW248602   0.261   9.804   4.856 -0.7055  0.8348  0.4674
47333SOL     OW48603  10.531   7.519   1.824  0.4545  0.0960  0.4820
47333SOL    HW148604  10.456   7.565   1.860  0.7340 -0.1213  1.3567
47333SOL    HW248605  10.598   7.587   1.811  0.0897  0.3079 -0.3975
47334SOL     OW48606   6.144  10.946   2.190 -0.9738  0.0261 -0.6032
47334SOL    HW148607   6.204  10.881   2.153  0.6711  0.9848  0.2557
47334SOL    HW248608   6.134  11.011   2.121  0.0892  0.5331 -0.3140
47335SOL     OW48609  10.845   2.150   8.232 -0.2477 -0.4357  0.3680
47335SOL    HW148610  10.891   2.078   8.276  1.0847 -0.5949 -1.1986
47335SOL    HW248611  10.885   2.229   8.267  0.1624 -0.5359  0.1297
47336SOL     OW48612   7.010   7.035   8.514 -0.1528 -0.0760  0.4048
47336SOL    HW148613   6.927   6.991   8.493 -0.4343  0.4957  0.2998
47336SOL    HW248614   7.035   7.079   8.433 -0.1681  0.4226  0.6628
47337SOL     OW48615   5.931   1.833   5.043  0.1023 -0.2715 -0.5442
47337SOL    HW148616   5.986   1.767   5.000  1.8579 -1.8789  3.6165
47337SOL    HW248617   5.992   1.903   5.065 -0.3861 -0.2084  0.6234
47338SOL     OW48618   1.804   5.325  11.594  0.2046 -0.1061 -0.1991
47338SOL    HW148619   1.772   5.235  11.597 -1.0217  0.3281  1.0206
47338SOL    HW248620   1.822   5.347  11.685 -1.0645  1.3683 -0.2562
47339SOL     OW48621   3.275   2.839   7.900  0.1076 -0.1129 -0.5145
47339SOL    HW148622   3.203   2.779   7.920  1.7465 -2.1052 -0.3046
47339SOL    HW248623   3.241   2.925   7.924 -1.8757 -1.0881  0.4373
47340SOL     OW48624   1.971   5.898   9.130  0.1859  0.6570  0.2998
47340SOL    HW148625   2.053   5.865   9.092 -0.0118  0.8551 -0.3077
47340SOL    HW248626   1.918   5.820   9.144  0.2069  0.5979  0.0429
47341SOL     OW48627  10.641  12.403   8.334 -0.2319 -0.0591  0.0027
47341SOL    HW148628  10.570  12.425   8.394  0.2924 -0.8192  0.9156
47341SOL    HW248629  10.721  12.411   8.387  0.2482 -0.6244 -0.6206
47342SOL     OW48630   2.765   2.793   4.710  0.3050 -0.0042 -0.1248
47342SOL    HW148631   2.798   2.764   4.624  0.0283 -0.1322 -0.1900
47342SOL    HW248632   2.682   2.746   4.720  0.0520  0.4556 -0.0475
47343SOL     OW48633   9.333   2.608  11.073  0.0787 -0.0322  0.1223
47343SOL    HW148634   9.343   2.555  11.152  0.2644 -0.0606  0.0799
47343SOL    HW248635   9.290   2.688  11.104  1.0650  0.3928  0.4393
47344SOL     OW48636   6.376   3.091   2.383  0.4599 -0.3461  0.3503
47344SOL    HW148637   6.430   3.142   2.322 -0.6084 -0.5279 -0.8055
47344SOL    HW248638   6.402   3.001   2.368  0.6275 -0.3435  0.6198
47345SOL     OW48639   4.345   3.868   2.963 -0.2853  0.0057 -0.0411
47345SOL    HW148640   4.395   3.923   3.023 -0.2703 -0.0663  0.0135
47345SOL    HW248641   4.291   3.814   3.021 -1.6311  1.2013 -0.1435
47346SOL     OW48642   4.479   2.237   4.662  0.0310 -0.0121 -0.4323
47346SOL    HW148643   4.497   2.215   4.571 -2.9715  0.2723 -1.2248
47346SOL    HW248644   4.480   2.153   4.707 -0.8697 -0.4901 -1.2612
47347SOL     OW48645  12.103   6.230   3.394  0.0617 -1.1859  0.1596
47347SOL    HW148646  12.048   6.300   3.429 -0.5582 -1.3790 -0.3948
47347SOL    HW248647  12.064   6.150   3.428 -1.4778 -1.4945 -2.0380
47348SOL     OW48648   2.643   1.808   7.832 -0.0329  0.3119 -0.1035
47348SOL    HW148649   2.735   1.813   7.856 -0.1799 -0.8405  0.7793
47348SOL    HW248650   2.615   1.899   7.826  0.7967  0.6699  1.0930
47349SOL     OW48651  11.114   3.484   5.080  0.2420  0.1081  0.7262
47349SOL    HW148652  11.173   3.558   5.092  0.5470 -0.3034  1.8132
47349SOL    HW248653  11.026   3.523   5.080  0.4848  0.7784 -1.3193
47350SOL     OW48654   5.649   4.086   9.019 -0.1923 -0.1916 -0.1338
47350SOL    HW148655   5.616   4.023   9.084 -0.2014 -0.2535 -0.1977
47350SOL    HW248656   5.633   4.044   8.935 -0.1995 -0.1021 -0.1768
47351SOL     OW48657   8.385  10.064   7.293  0.0125 -0.2105 -0.1221
47351SOL    HW148658   8.425  10.129   7.350 -0.6714 -0.8339  1.1030
47351SOL    HW248659   8.327  10.014   7.350 -0.4112 -1.1032 -1.2897
47352SOL     OW48660   2.897   1.627   9.754  0.2941  0.2358  0.3793
47352SOL    HW148661   2.939   1.601   9.672  0.8866  0.9821  0.4318
47352SOL    HW248662   2.898   1.548   9.807 -1.0210 -0.5307 -0.6923
47353SOL     OW48663   7.208   7.542   7.778 -0.3708  0.1918  0.3026
47353SOL    HW148664   7.158   7.623   7.779 -0.9496 -0.1143 -1.3243
47353SOL    HW248665   7.145   7.474   7.754  0.5686 -0.3629 -0.7229
47354SOL     OW48666   5.608   8.228   4.080  0.6845 -0.4391  0.3903
47354SOL    HW148667   5.669   8.292   4.044 -0.6482  1.1935  0.9020
47354SOL    HW248668   5.593   8.166   4.009 -0.0622  1.3691 -1.1066
47355SOL     OW48669   0.480   5.439   0.601  0.1986  0.0462 -0.2299
47355SOL    HW148670   0.481   5.507   0.534 -2.2423 -0.5045 -0.9421
47355SOL    HW248671   0.396   5.450   0.645  1.4325 -0.0594  2.3307
47356SOL     OW48672   2.423   9.135   9.586  0.4598 -0.3786  0.0891
47356SOL    HW148673   2.386   9.179   9.662 -0.4064 -1.1440  0.1363
47356SOL    HW248674   2.425   9.202   9.518  1.3838  0.3518  0.8114
47357SOL     OW48675   0.698   5.388  12.195  0.3322  0.0164  0.1751
47357SOL    HW148676   0.776   5.363  12.244  0.8303  1.0666 -0.0568
47357SOL    HW248677   0.727   5.460  12.139  0.2131 -2.0704 -2.8605
47358SOL     OW48678   0.223   2.089  11.868 -0.5432 -0.3758 -0.2384
47358SOL    HW148679   0.251   2.070  11.958 -1.2706  0.1909  0.1123
47358SOL    HW248680   0.149   2.030  11.853 -0.0886 -0.8535 -0.6682
47359SOL     OW48681   1.337   5.620   0.161 -0.0991 -0.4596  0.3891
47359SOL    HW148682   1.357   5.713   0.153  4.3812 -1.2158  0.7146
47359SOL    HW248683   1.321   5.591   0.071 -0.0705  0.3085  0.1290
47360SOL     OW48684   3.895   9.885   7.418  0.1294  0.0628  0.6106
47360SOL    HW148685   3.848   9.808   7.386  2.1560 -0.0531 -2.5054
47360SOL    HW248686   3.887   9.949   7.348  2.0645  1.0942  1.2666
47361SOL     OW48687   0.139  12.308   9.327 -0.7041 -0.0983 -0.6127
47361SOL    HW148688   0.184  12.368   9.387  0.1131 -0.3029 -1.0089
47361SOL    HW248689   0.117  12.362   9.251 -1.7235  0.1567 -0.1587
47362SOL     OW48690   8.005  11.043   2.537  0.8004  0.1411 -0.2656
47362SOL    HW148691   8.025  10.957   2.501  0.4291  0.4914 -1.3665
47362SOL    HW248692   8.071  11.057   2.605  0.5836 -1.1828  0.2382
47363SOL     OW48693  12.219   6.089  12.540  0.4628 -0.1307  0.3237
47363SOL    HW148694  12.132   6.093  12.501  0.3308  3.1906  0.6824
47363SOL    HW248695  12.240   5.995  12.544 -2.3135 -0.9217 -1.3922
47364SOL     OW48696  10.979   4.630  12.374 -0.3201 -0.0233 -0.1060
47364SOL    HW148697  10.902   4.646  12.430  1.3788  0.2301  2.3260
47364SOL    HW248698  10.975   4.536  12.355 -0.9444 -0.1246  0.4602
47365SOL     OW48699  12.117   9.745   4.334 -0.3839  0.0593  0.0950
47365SOL    HW148700  12.031   9.703   4.333 -0.8679  1.0290 -1.2407
47365SOL    HW248701  12.122   9.794   4.252  1.7290 -0.5069 -0.1977
47366SOL     OW48702  11.795   4.801   6.697 -0.0635 -0.2273  0.5181
47366SOL    HW148703  11.786   4.706   6.700 -1.7331 -0.1186 -0.1096
47366SOL    HW248704  11.887   4.816   6.673 -0.1278 -1.7115 -0.7621
47367SOL     OW48705   6.607   5.083  10.813 -0.3245  0.1183  0.2650
47367SOL    HW148706   6.631   5.139  10.887  0.1557  0.5211 -0.1858
47367SOL    HW248707   6.592   4.997  10.852  0.0028  0.3070  0.8220
47368SOL     OW48708   4.203   0.672   8.283  0.7011  0.5028 -0.8519
47368SOL    HW148709   4.214   0.762   8.314 -0.2694  0.6966 -1.0267
47368SOL    HW248710   4.225   0.618   8.360 -0.5359  0.9471 -0.1566
47369SOL     OW48711   5.607   0.994   7.325 -0.4101  0.1194 -0.1639
47369SOL    HW148712   5.536   0.988   7.261 -0.6082 -1.4656  0.1879
47369SOL    HW248713   5.563   0.999   7.410 -0.1391 -2.6229  0.1978
47370SOL     OW48714   3.939   6.778   9.266 -0.3862 -0.4704  0.0808
47370SOL    HW148715   3.967   6.696   9.307 -1.3236 -0.2418  1.2106
47370SOL    HW248716   3.978   6.775   9.178 -0.1697 -1.9794  0.2040
47371SOL     OW48717   0.208   6.267   3.583  0.2881  0.2493  0.2826
47371SOL    HW148718   0.176   6.226   3.663  2.7641 -0.4379  1.0215
47371SOL    HW248719   0.159   6.349   3.577  1.0461  1.0776  3.3921
47372SOL     OW48720   3.054   9.057   3.575 -0.4307  0.1285 -0.1543
47372SOL    HW148721   3.028   9.074   3.665  0.0550  2.1513 -0.3589
47372SOL    HW248722   2.979   9.011   3.537 -0.9982  0.0379  1.0356
47373SOL     OW48723  12.072   3.627   2.756 -0.1220  0.1500  0.2694
47373SOL    HW148724  12.082   3.673   2.672  1.0320 -0.2453  0.1700
47373SOL    HW248725  12.160   3.626   2.793 -0.5067 -0.2533  1.1844
47374SOL     OW48726   8.362   4.680   1.863 -0.0783  0.7922 -0.0638
47374SOL    HW148727   8.315   4.611   1.910  1.2348 -0.3174 -0.3072
47374SOL    HW248728   8.430   4.708   1.923  1.6476 -0.6795 -1.2359
47375SOL     OW48729   3.346   1.947  11.255 -0.2086  0.0967  0.1859
47375SOL    HW148730   3.412   2.017  11.253 -1.0292  1.0405  2.5068
47375SOL    HW248731   3.396   1.867  11.240  0.8305  1.0964 -2.1221
47376SOL     OW48732  11.920   4.919   8.440 -0.0073  0.1975 -0.0631
47376SOL    HW148733  11.960   4.984   8.382 -1.2912  2.3672  1.3193
47376SOL    HW248734  11.945   4.948   8.528  1.6786 -2.8438  0.6058
47377SOL     OW48735   8.663  10.278   3.033 -0.0800  0.0706  0.0732
47377SOL    HW148736   8.594  10.286   2.967 -0.4700 -1.9329  0.1507
47377SOL    HW248737   8.681  10.368   3.061 -0.9068  0.8399 -1.7173
47378SOL     OW48738   2.574  10.730   0.322  0.2379  0.4352 -0.1284
47378SOL    HW148739   2.547  10.639   0.314  0.9552  0.2270 -0.2444
47378SOL    HW248740   2.595  10.741   0.414  1.0461  0.2108 -0.2704
47379SOL     OW48741   2.663   9.789   2.186  0.0918 -0.2096  0.1064
47379SOL    HW148742   2.692   9.775   2.096  2.1053  0.8797  0.5214
47379SOL    HW248743   2.742   9.779   2.239 -0.8944 -0.0596  1.6726
47380SOL     OW48744   9.567   9.224   9.816  0.2308  0.3627 -0.1162
47380SOL    HW148745   9.559   9.244   9.722  0.8553  2.0555  0.1554
47380SOL    HW248746   9.661   9.219   9.831  0.1201 -0.4731  0.3211
47381SOL     OW48747   7.343  10.326   7.244  0.4450  0.2711 -0.8491
47381SOL    HW148748   7.271  10.301   7.303  0.2743 -0.0997 -1.2056
47381SOL    HW248749   7.346  10.255   7.179  1.7211 -0.1848 -0.3308
47382SOL     OW48750   5.935   1.759   7.085  0.2876  0.0723 -0.0535
47382SOL    HW148751   5.942   1.675   7.130  1.5410 -0.3440 -0.9618
47382SOL    HW248752   5.842   1.769   7.068  0.2254 -1.8317 -1.1600
47383SOL     OW48753   1.062   2.757   3.711 -0.2167 -0.0443 -0.8421
47383SOL    HW148754   0.973   2.723   3.718 -0.2723 -0.0333 -1.4180
47383SOL    HW248755   1.061   2.810   3.631  0.9328 -2.0459 -2.2710
47384SOL     OW48756   7.656   1.647  11.938  0.0571  0.2284 -0.3289
47384SOL    HW148757   7.651   1.739  11.911  0.9331  0.2115 -0.5682
47384SOL    HW248758   7.599   1.601  11.876  0.7111  0.4256 -1.0968
47385SOL     OW48759   3.575   5.005   5.553 -0.4489  0.0267  0.6732
47385SOL    HW148760   3.570   5.041   5.465 -0.5606  0.8260  1.0003
47385SOL    HW248761   3.669   5.008   5.575 -0.4168 -0.2051  0.5719
47386SOL     OW48762   1.764   1.140   7.744  0.6821 -0.4988  0.0882
47386SOL    HW148763   1.836   1.078   7.751  0.0765 -1.1199  1.1504
47386SOL    HW248764   1.697   1.106   7.804 -0.4253  0.1569 -0.7374
47387SOL     OW48765   9.907   1.912   3.420 -0.2403  0.3558  0.2573
47387SOL    HW148766   9.845   1.980   3.446 -1.2157  0.0857 -1.2417
47387SOL    HW248767   9.954   1.951   3.346 -0.2346 -0.3008 -0.0846
47388SOL     OW48768   4.678   2.515   5.705 -0.3763  0.3297  0.2249
47388SOL    HW148769   4.690   2.467   5.787 -1.9160 -0.6996 -0.1158
47388SOL    HW248770   4.693   2.450   5.636 -2.7845  0.1800 -0.2435
47389SOL     OW48771   6.239   6.872   9.598 -0.0644  0.1382 -0.7215
47389SOL    HW148772   6.334   6.871   9.592 -0.0241  0.0872 -0.1451
47389SOL    HW248773   6.220   6.937   9.666 -0.3937 -0.4830 -0.2001
47390SOL     OW48774   0.950   9.527   5.889  0.2535 -0.4743  0.2876
47390SOL    HW148775   1.006   9.455   5.861  1.8737  0.5196  0.8520
47390SOL    HW248776   0.975   9.601   5.833 -2.5844 -0.6883 -1.4955
47391SOL     OW48777   2.113   6.261   9.761 -0.0119  0.0176 -0.1101
47391SOL    HW148778   2.071   6.260   9.675  2.0101  1.2930 -1.2076
47391SOL    HW248779   2.184   6.198   9.754  1.1894  1.2936 -0.0132
47392SOL     OW48780   1.222  11.010   0.589  0.6844 -0.1311  0.3563
47392SOL    HW148781   1.291  10.944   0.579  0.9691  0.3306 -0.7861
47392SOL    HW248782   1.207  11.043   0.501 -0.6028  0.1893  0.6736
47393SOL     OW48783   7.029   3.489   6.435  0.1827 -0.1385 -0.2513
47393SOL    HW148784   7.097   3.556   6.438 -0.1297  0.3717 -2.4755
47393SOL    HW248785   6.948   3.535   6.457  0.4412 -0.6906  2.1322
47394SOL     OW48786  11.438   1.892   6.760 -0.0195  0.3307  0.7269
47394SOL    HW148787  11.383   1.876   6.684  2.3626  0.9433 -1.2664
47394SOL    HW248788  11.477   1.807   6.780  1.1185  0.5782 -0.2879
47395SOL     OW48789  10.936  10.137   1.687  0.0547 -0.0826  0.1458
47395SOL    HW148790  11.019  10.173   1.718  0.1985  0.3702 -0.7484
47395SOL    HW248791  10.893  10.106   1.767  0.9107  0.0189  0.6637
47396SOL     OW48792   0.518   4.462   4.982  0.7573 -0.0503  0.6310
47396SOL    HW148793   0.610   4.487   4.988  1.2249 -1.2083 -0.8801
47396SOL    HW248794   0.472   4.519   5.043  2.1652  2.1243 -0.2468
47397SOL     OW48795  10.279   0.099   4.567  0.0829  0.2770 -0.4961
47397SOL    HW148796  10.369   0.081   4.538 -0.1995 -0.8430 -0.7555
47397SOL    HW248797  10.230   0.021   4.539 -0.6154  0.0675  1.2356
47398SOL     OW48798   2.242  10.305   1.618 -0.4533 -0.2030  0.6751
47398SOL    HW148799   2.192  10.223   1.617 -0.1774 -0.3864  1.2255
47398SOL    HW248800   2.334  10.277   1.620 -0.2751  0.1304 -1.1617
47399SOL     OW48801   1.146   7.770   7.993 -0.1257  0.0387 -0.2797
47399SOL    HW148802   1.181   7.745   8.078 -1.1572 -0.1012  0.1184
47399SOL    HW248803   1.155   7.866   7.991  0.3347 -0.0009 -0.2175
47400SOL     OW48804   9.146   5.667   2.470  0.3788  0.1323 -0.4510
47400SOL    HW148805   9.068   5.661   2.526  1.0542  0.4774  0.5572
47400SOL    HW248806   9.112   5.660   2.381 -0.7312 -0.4446 -0.0075
47401SOL     OW48807   4.237   7.725   3.826 -0.0957 -0.1338 -0.3728
47401SOL    HW148808   4.216   7.815   3.800 -0.7712 -0.1923 -0.0373
47401SOL    HW248809   4.208   7.671   3.752 -0.3741 -0.1438 -0.2546
47402SOL     OW48810   1.045   8.655   9.910  0.0880 -0.4349 -0.2459
47402SOL    HW148811   0.997   8.581   9.947 -0.4688 -0.1541 -0.3958
47402SOL    HW248812   1.112   8.675   9.975  0.5436 -1.3594 -0.4135
47403SOL     OW48813   9.241  10.929   3.184 -0.3381  0.3605  0.5842
47403SOL    HW148814   9.209  10.978   3.108 -0.2750 -1.3536 -0.6259
47403SOL    HW248815   9.162  10.895   3.226 -0.3300 -2.4225 -1.3960
47404SOL     OW48816   7.165   7.379   3.282 -0.2373 -0.2639  0.2313
47404SOL    HW148817   7.193   7.413   3.367  0.5510 -1.0022  0.2862
47404SOL    HW248818   7.107   7.306   3.303 -2.2379  1.1886  0.1174
47405SOL     OW48819   0.220   5.204   2.347  0.1192  0.4402 -0.0460
47405SOL    HW148820   0.208   5.258   2.269  0.0499  0.1451 -0.2437
47405SOL    HW248821   0.133   5.166   2.363  0.3372 -0.2171 -0.3678
47406SOL     OW48822  12.704   8.921   1.815 -0.4528  0.0066 -0.4943
47406SOL    HW148823  12.619   8.956   1.789 -0.0772  1.5569  0.2451
47406SOL    HW248824  12.730   8.974   1.890  1.5191  0.0578 -1.1536
47407SOL     OW48825   7.064   5.893   1.299  0.3349 -0.1423 -0.2042
47407SOL    HW148826   7.060   5.978   1.255 -0.6519 -1.1396 -2.1644
47407SOL    HW248827   7.156   5.870   1.298  0.5303  0.6207 -0.2549
47408SOL     OW48828   5.794   7.794   2.693  0.2579 -0.2391  0.6854
47408SOL    HW148829   5.872   7.810   2.745  1.9939 -1.0858 -1.5097
47408SOL    HW248830   5.796   7.861   2.625  0.2113 -1.4353 -0.5550
47409SOL     OW48831  12.195  11.716  10.010  0.3549 -0.5769  0.5091
47409SOL    HW148832  12.103  11.719   9.983  0.1231  3.2111  1.1857
47409SOL    HW248833  12.241  11.676   9.937 -1.5567 -0.6141 -0.7347
47410SOL     OW48834   4.976   4.078   1.897  0.5031  0.0320 -0.5376
47410SOL    HW148835   4.930   4.053   1.817  2.2007  0.9486 -1.8655
47410SOL    HW248836   5.067   4.051   1.882  0.3886 -2.5735  2.3680
47411SOL     OW48837   7.223   2.789   3.131 -0.1874  0.2724  0.2126
47411SOL    HW148838   7.309   2.815   3.164  0.8917  0.8925 -2.8499
47411SOL    HW248839   7.183   2.871   3.103 -0.5070 -0.3342 -1.1665
47412SOL     OW48840   1.020   1.638  12.596 -0.3271 -0.0219 -0.1996
47412SOL    HW148841   1.089   1.674  12.652 -1.2281  1.1863  0.1639
47412SOL    HW248842   0.995   1.556  12.638  0.8469 -0.4668 -0.3202
47413SOL     OW48843   7.674   4.385   7.889  0.7375 -0.6376 -0.3982
47413SOL    HW148844   7.589   4.385   7.845  1.3691 -0.1072 -1.6431
47413SOL    HW248845   7.688   4.293   7.914 -1.1847 -0.4423  1.8627
47414SOL     OW48846   5.028  11.751   1.599 -0.0922 -0.3012  0.3076
47414SOL    HW148847   5.031  11.736   1.694  0.6958 -0.7550  0.2270
47414SOL    HW248848   5.018  11.663   1.562 -0.0909 -0.1561 -0.0351
47415SOL     OW48849   9.377   7.285   6.425  0.0396  0.1345 -0.3374
47415SOL    HW148850   9.362   7.245   6.340  0.5862 -0.2995 -0.2411
47415SOL    HW248851   9.386   7.379   6.407 -1.8394  0.3133 -0.4886
47416SOL     OW48852  10.727  10.785   7.330 -0.0919  0.2299  0.4846
47416SOL    HW148853  10.667  10.827   7.268  0.2994 -0.2652 -0.2498
47416SOL    HW248854  10.807  10.770   7.279  0.8303  1.2681  1.5498
47417SOL     OW48855   2.606   4.526   4.326  0.7602 -0.2218  0.0793
47417SOL    HW148856   2.549   4.596   4.358 -0.4605 -1.5199  0.9212
47417SOL    HW248857   2.584   4.517   4.233 -0.4632 -0.7047  0.3917
47418SOL     OW48858   6.507  12.486   4.335 -0.3907  0.0899  0.2393
47418SOL    HW148859   6.560  12.408   4.353  0.7767  0.8997  0.4468
47418SOL    HW248860   6.420  12.465   4.371 -0.3591 -1.4405 -0.5210
47419SOL     OW48861   2.232   5.061  12.154  0.3978  0.2349  0.1867
47419SOL    HW148862   2.323   5.071  12.182  0.9139 -1.2252 -0.8498
47419SOL    HW248863   2.237   5.043  12.061 -0.9838  0.4116  0.0587
47420SOL     OW48864   3.981   3.100   5.643 -0.4051  0.2072 -0.5782
47420SOL    HW148865   3.979   3.013   5.682  0.6540  0.6269  0.4339
47420SOL    HW248866   4.069   3.132   5.658  0.0400  0.4753 -3.1873
47421SOL     OW48867   2.162   7.170   3.455  0.2616 -0.3126  0.6378
47421SOL    HW148868   2.121   7.084   3.458  2.0050 -1.3722 -1.9786
47421SOL    HW248869   2.239   7.161   3.512  0.6971 -0.6670  0.0051
47422SOL     OW48870   7.915   0.528   0.787  0.1875 -0.3660 -0.2565
47422SOL    HW148871   7.871   0.484   0.714  0.7542  1.3887 -1.7375
47422SOL    HW248872   7.844   0.556   0.845 -0.3584 -0.8423 -0.6851
47423SOL     OW48873   1.667  12.076   2.549  0.0583  0.2660  0.2974
47423SOL    HW148874   1.714  11.993   2.546  0.6134  0.5186  1.2470
47423SOL    HW248875   1.696  12.117   2.631  0.5741  1.8471 -0.6190
47424SOL     OW48876   5.875  11.326   2.364  0.4132 -0.0469  0.4082
47424SOL    HW148877   5.837  11.411   2.387 -0.9959 -0.6790  0.4735
47424SOL    HW248878   5.947  11.315   2.426  0.9150  1.3028  0.0997
47425SOL     OW48879   6.313  10.111   8.665  0.1055  0.9225  0.6895
47425SOL    HW148880   6.387  10.051   8.655 -0.8853 -0.5179  1.6688
47425SOL    HW248881   6.238  10.055   8.681 -0.9302  2.4212  1.3700
47426SOL     OW48882  11.654   4.309   0.087 -0.4000  0.7189  0.0596
47426SOL    HW148883  11.720   4.364   0.045 -0.4011  0.3627 -0.4284
47426SOL    HW248884  11.639   4.238   0.023 -0.0430 -0.1046  0.8645
47427SOL     OW48885   6.189  11.286  11.116  0.4031 -0.0157 -0.0855
47427SOL    HW148886   6.159  11.200  11.144  0.5860  0.1430  0.6021
47427SOL    HW248887   6.140  11.303  11.035  0.4123 -0.7870 -0.2615
47428SOL     OW48888   6.038  12.274   2.977 -0.2984  0.3237  0.2505
47428SOL    HW148889   5.961  12.308   3.023  0.7873 -0.5663  2.9434
47428SOL    HW248890   6.002  12.234   2.898 -2.5019  0.6790  0.9863
47429SOL     OW48891   6.698   5.969   7.576 -0.1423 -0.1246 -0.0640
47429SOL    HW148892   6.684   5.910   7.502 -2.0523 -0.7337  0.7202
47429SOL    HW248893   6.734   5.912   7.644 -3.4700 -0.8798  1.2330
47430SOL     OW48894  12.196   8.510   6.723  0.1793  0.0853  0.2793
47430SOL    HW148895  12.210   8.533   6.815 -2.1795 -0.8043  0.9532
47430SOL    HW248896  12.221   8.417   6.718  0.3759  0.1528  0.0133
47431SOL     OW48897   1.973   8.376   2.704  0.0460 -0.1692 -0.1083
47431SOL    HW148898   1.890   8.420   2.687  0.1426 -0.0719 -0.3452
47431SOL    HW248899   2.037   8.447   2.711  0.3118 -0.2865 -1.1197
47432SOL     OW48900  12.402   5.541   0.529  0.4669  0.6346 -0.5621
47432SOL    HW148901  12.483   5.505   0.566  0.4641 -0.2956 -1.4299
47432SOL    HW248902  12.427   5.628   0.497  0.8489  0.8016  0.1734
47433SOL     OW48903   9.889   0.854   8.066 -0.2318  0.7443  0.3510
47433SOL    HW148904   9.895   0.932   8.122 -2.0889  1.1386  0.0829
47433SOL    HW248905   9.816   0.873   8.007 -1.1518 -1.4621  0.6810
47434SOL     OW48906   4.077   2.235  11.805 -0.6892  0.2131 -0.3221
47434SOL    HW148907   4.150   2.295  11.790 -0.2177 -0.0364  0.8769
47434SOL    HW248908   4.115   2.163  11.856 -1.2482 -1.0843 -1.6454
47435SOL     OW48909   6.907   0.906   2.625  0.0777  0.0937 -0.2640
47435SOL    HW148910   6.898   0.867   2.538 -0.5738  0.3528 -0.3127
47435SOL    HW248911   6.824   0.951   2.640  0.1044 -0.1246  0.5772
47436SOL     OW48912   9.310   8.668   9.970  0.3900 -0.2377 -0.0107
47436SOL    HW148913   9.369   8.594   9.956  2.1894  1.1452 -0.1406
47436SOL    HW248914   9.223   8.629   9.975  1.2773 -2.3468 -0.0458
47437SOL     OW48915   2.702   9.505   4.197  0.4695  0.4035 -0.1685
47437SOL    HW148916   2.659   9.463   4.271  0.4112  1.0852  0.1963
47437SOL    HW248917   2.781   9.453   4.182  0.4710  0.2488  0.3669
47438SOL     OW48918   3.304   1.041  11.485  0.1662 -0.1554  0.4052
47438SOL    HW148919   3.245   0.983  11.438  1.0063 -0.8871  0.2452
47438SOL    HW248920   3.382   1.047  11.430  0.1290  1.0577  0.4582
47439SOL     OW48921   5.029   3.825  12.319 -0.1242 -0.0603 -0.6206
47439SOL    HW148922   4.978   3.904  12.304  1.0700  1.1156  1.1320
47439SOL    HW248923   5.026   3.778  12.236 -2.5863  0.7875 -1.0775
47440SOL     OW48924   4.510   4.587   1.830  0.3239  0.3832  0.5295
47440SOL    HW148925   4.449   4.660   1.841 -1.2511 -0.5912 -1.1309
47440SOL    HW248926   4.505   4.538   1.912 -0.9244  0.4789  0.5173
47441SOL     OW48927   7.121   1.869   9.236 -0.1708  0.4609 -0.1228
47441SOL    HW148928   7.124   1.777   9.209 -1.3527  0.1596  0.6621
47441SOL    HW248929   7.204   1.906   9.207  0.0706 -0.7046 -0.9893
47442SOL     OW48930   0.448   8.648   9.622  0.0104  0.5145  0.1067
47442SOL    HW148931   0.463   8.688   9.536 -0.8112  1.3392  0.3321
47442SOL    HW248932   0.355   8.664   9.640  0.0098 -0.2603  0.8445
47443SOL     OW48933   4.300   0.702   4.717 -0.3331  0.3732 -0.1774
47443SOL    HW148934   4.290   0.729   4.625 -2.3939  0.2206 -0.0293
47443SOL    HW248935   4.300   0.783   4.766 -1.8108  0.3782 -0.1329
47444SOL     OW48936   1.830   3.624   1.743  0.2194  0.7600 -0.4120
47444SOL    HW148937   1.767   3.655   1.808  0.5441  0.4987  0.0323
47444SOL    HW248938   1.915   3.638   1.784  0.4078  0.1534 -0.5885
47445SOL     OW48939   3.430   3.220   6.103  0.6670 -0.2576  0.6433
47445SOL    HW148940   3.489   3.265   6.163  1.2467 -1.2779  0.8623
47445SOL    HW248941   3.443   3.265   6.019 -1.1873  2.1105  1.5036
47446SOL     OW48942   5.183   5.513   4.408  0.0737 -0.0948  0.2573
47446SOL    HW148943   5.248   5.460   4.455  0.8155 -0.7182 -1.4187
47446SOL    HW248944   5.117   5.533   4.475  2.0804  0.8202  2.0950
47447SOL     OW48945   6.153   6.025   4.782  0.2573 -0.0252 -0.1964
47447SOL    HW148946   6.242   5.993   4.771  0.4842  0.8806 -1.2033
47447SOL    HW248947   6.136   6.076   4.702 -1.1336 -0.1270  0.0075
47448SOL     OW48948   2.823   7.523   2.047 -0.4338 -0.7795  0.2637
47448SOL    HW148949   2.760   7.593   2.035 -0.1253 -0.4930  0.3085
47448SOL    HW248950   2.893   7.561   2.100  0.2408 -0.7981 -0.5743
47449SOL     OW48951  12.049   3.029   8.812 -0.1703 -0.3128  0.2900
47449SOL    HW148952  12.116   3.089   8.778 -1.6341  0.9691 -0.4386
47449SOL    HW248953  12.023   3.068   8.896  0.8192 -1.4862  1.1879
47450SOL     OW48954  11.909   7.437   0.894 -0.0528 -0.5171  0.2825
47450SOL    HW148955  11.929   7.530   0.888 -0.2683 -0.2179  2.8482
47450SOL    HW248956  11.994   7.394   0.896  0.0496 -0.5458 -1.9839
47451SOL     OW48957  10.075  12.491  11.871  0.9295  0.2892  0.1238
47451SOL    HW148958  10.037  12.577  11.891  1.7901 -0.1200  4.6827
47451SOL    HW248959  10.157  12.511  11.825  0.2654  1.7579 -0.4901
47452SOL     OW48960  11.739   6.389   0.228 -1.0789 -0.3306 -0.0058
47452SOL    HW148961  11.749   6.477   0.193 -0.0698  0.6550  2.5360
47452SOL    HW248962  11.670   6.397   0.294 -0.3408 -1.2102  0.9072
47453SOL     OW48963   2.962   1.493   0.127  0.1754  0.2684  0.1842
47453SOL    HW148964   2.884   1.445   0.102 -0.5229  1.4207  0.0666
47453SOL    HW248965   2.955   1.576   0.080  1.3204  0.5154  0.4069
47454SOL     OW48966   7.707   3.093   9.385 -0.1902 -0.0193 -0.3562
47454SOL    HW148967   7.612   3.094   9.394 -0.1271 -0.1507  0.3807
47454SOL    HW248968   7.727   3.005   9.355 -0.2326 -0.2617  0.3227
47455SOL     OW48969  11.908   6.571  10.353 -0.2607 -0.0665 -0.1826
47455SOL    HW148970  11.868   6.607  10.433  0.2498 -1.3110  0.6741
47455SOL    HW248971  11.854   6.494  10.332 -1.1782  0.9779 -1.8238
47456SOL     OW48972   0.883   7.250   8.296  0.0746  0.4313 -0.3584
47456SOL    HW148973   0.915   7.335   8.267 -0.4473  0.1847 -1.7563
47456SOL    HW248974   0.796   7.268   8.331  0.7583  0.7504  1.2618
47457SOL     OW48975   4.099   9.772   0.612  0.0882  0.5163  0.7444
47457SOL    HW148976   4.047   9.783   0.691  0.3486 -1.3126  1.1977
47457SOL    HW248977   4.035   9.747   0.545  0.1135  0.2511  0.8194
47458SOL     OW48978   3.841   1.327   6.740 -0.3902  0.3888  0.5030
47458SOL    HW148979   3.894   1.308   6.817 -0.0145  1.3880  0.5107
47458SOL    HW248980   3.805   1.243   6.713  0.5650 -0.1777  0.9663
47459SOL     OW48981   2.827   6.627  12.379  0.2331 -0.1426  0.3469
47459SOL    HW148982   2.828   6.531  12.371  1.2850 -0.5654  3.9888
47459SOL    HW248983   2.917   6.650  12.404  0.3658  2.0355 -1.7287
47460SOL     OW48984   7.422   7.268   3.776  0.0079 -0.1817  0.3730
47460SOL    HW148985   7.435   7.214   3.698  0.0565  0.1520  0.1485
47460SOL    HW248986   7.455   7.215   3.848  1.7968  0.2876 -0.0573
47461SOL     OW48987   5.562   0.496   1.554 -0.0794  0.1903  0.3004
47461SOL    HW148988   5.544   0.402   1.559  0.3077  0.0123 -1.1825
47461SOL    HW248989   5.478   0.538   1.575 -0.4124 -0.4877  0.3426
47462SOL     OW48990   5.322   6.977   8.245  0.0735  0.3229  0.0745
47462SOL    HW148991   5.337   6.949   8.155  1.7072  0.5258  0.2366
47462SOL    HW248992   5.254   7.044   8.238  1.0528  1.2405 -1.1922
47463SOL     OW48993   4.037   8.723   3.125  0.1649  0.3499  0.3004
47463SOL    HW148994   4.035   8.817   3.145  2.1012  0.7207 -0.8771
47463SOL    HW248995   4.130   8.699   3.134  0.1576 -0.8130 -1.9387
47464SOL     OW48996   7.464   9.296  12.260  0.3580  0.2118 -0.6272
47464SOL    HW148997   7.422   9.210  12.262 -0.0563  0.3026 -3.1978
47464SOL    HW248998   7.526   9.293  12.333  0.1162 -2.1271 -0.4363
47465SOL     OW48999   2.447   0.681   9.621 -0.2303 -0.0091 -0.3689
47465SOL    HW149000   2.489   0.749   9.567 -1.3924 -1.8518 -3.9367
47465SOL    HW249001   2.358   0.713   9.634 -0.2076  0.0398 -0.3342
47466SOL     OW49002   6.404   0.394  11.531  0.6688 -0.4802  0.0624
47466SOL    HW149003   6.441   0.338  11.599 -0.1505 -0.5789  0.4251
47466SOL    HW249004   6.310   0.393  11.547  0.4715 -0.4424 -1.0199
47467SOL     OW49005   2.309   2.714   6.315 -0.0003  0.1237  0.3838
47467SOL    HW149006   2.333   2.653   6.385  1.1698  1.3030  1.0667
47467SOL    HW249007   2.280   2.658   6.243  0.2155 -1.1880  1.2802
47468SOL     OW49008   7.817   0.045  11.714  0.5167 -0.4340  0.4955
47468SOL    HW149009   7.766   0.103  11.771  0.4322 -0.1951  0.1806
47468SOL    HW249010   7.778   0.057  11.627  1.0855 -0.2786  0.2589
47469SOL     OW49011   2.166   4.771   7.160 -0.2472  0.0765  0.0378
47469SOL    HW149012   2.234   4.811   7.213  1.1837 -1.3629 -0.5982
47469SOL    HW249013   2.123   4.708   7.218 -0.9858  0.9098  0.4093
47470SOL     OW49014   8.804   0.251  11.463 -0.5602  0.1300 -0.3906
47470SOL    HW149015   8.714   0.265  11.434 -1.3269 -1.2174  1.1829
47470SOL    HW249016   8.829   0.169  11.421 -0.0546  0.4959 -0.8128
47471SOL     OW49017   4.371   4.283   8.267 -0.1820  0.0726 -0.5496
47471SOL    HW149018   4.414   4.276   8.352  0.8799  1.0306 -0.9708
47471SOL    HW249019   4.373   4.377   8.247  0.2747 -0.2025 -1.9523
47472SOL     OW49020   1.908   3.383  10.414 -0.5371  0.2136 -0.0881
47472SOL    HW149021   1.945   3.417  10.496  0.4645 -1.3124  0.1443
47472SOL    HW249022   1.959   3.426  10.346 -1.0615  1.1399  0.0845
47473SOL     OW49023   4.414   0.078   7.396  0.0905  0.1359  0.6262
47473SOL    HW149024   4.460   0.009   7.442  0.2082 -0.2484 -0.0598
47473SOL    HW249025   4.355   0.032   7.336 -0.8534  0.6179  1.1472
47474SOL     OW49026   7.280   6.112  11.724  0.2920  0.0208 -0.0900
47474SOL    HW149027   7.304   6.160  11.644  1.6358 -1.2505 -0.4875
47474SOL    HW249028   7.283   6.020  11.699  1.1024 -0.4208  1.5050
47475SOL     OW49029   3.102   8.399   6.324 -0.1715 -0.0158 -0.1435
47475SOL    HW149030   3.166   8.348   6.274 -0.1157  1.1099 -1.2792
47475SOL    HW249031   3.038   8.427   6.259 -2.2453 -1.6366  1.0620
47476SOL     OW49032  10.069   8.285   2.042  0.2862 -0.0893 -0.0423
47476SOL    HW149033   9.986   8.246   2.015 -0.8834  2.0193  0.2937
47476SOL    HW249034  10.096   8.234   2.119 -1.2430 -0.1587  0.4801
47477SOL     OW49035  10.416   8.540  12.452 -0.2227 -0.1550  0.0502
47477SOL    HW149036  10.461   8.521  12.369  0.2226  2.3257 -0.3354
47477SOL    HW249037  10.485   8.537  12.518  0.7846  3.9204 -0.5747
47478SOL     OW49038   5.370   0.728   5.327  0.8775  0.6520 -0.2168
47478SOL    HW149039   5.395   0.813   5.364  0.8796  0.6698 -0.2585
47478SOL    HW249040   5.408   0.664   5.387  1.5795  0.6713 -0.6251
47479SOL     OW49041   4.844   2.282   3.921  0.4896  0.0862 -0.1316
47479SOL    HW149042   4.785   2.210   3.900 -0.7856  1.0818 -0.0929
47479SOL    HW249043   4.836   2.293   4.016 -1.7961  2.2439 -0.4537
47480SOL     OW49044   7.912   8.099   2.502 -0.2721  0.4198 -0.2023
47480SOL    HW149045   7.996   8.106   2.456 -1.7666  1.6232 -2.9954
47480SOL    HW249046   7.850   8.143   2.445 -2.5279  1.2307  2.6593
47481SOL     OW49047   9.284   5.419   2.342  0.2234  0.1373  0.6931
47481SOL    HW149048   9.200   5.423   2.295  1.2701 -0.2190 -1.3037
47481SOL    HW249049   9.275   5.485   2.412 -0.5915  2.4850 -1.4602
47482SOL     OW49050   7.613   6.722  11.372 -0.4136  0.4019  0.2811
47482SOL    HW149051   7.693   6.765  11.343 -1.0931  1.8882  0.5121
47482SOL    HW249052   7.628   6.629  11.356  1.3074  0.6665  0.2290
47483SOL     OW49053   7.928   8.900   3.788  0.0664 -0.3856  0.1474
47483SOL    HW149054   7.904   8.810   3.769 -0.5031 -0.2874  0.3875
47483SOL    HW249055   7.998   8.920   3.726 -1.2829 -0.2822 -1.4245
47484SOL     OW49056   4.454   0.445  10.502  0.1022  0.2370 -0.4446
47484SOL    HW149057   4.503   0.527  10.495 -0.7785  0.6494 -2.3499
47484SOL    HW249058   4.386   0.463  10.567 -0.4901  1.2695 -1.3160
47485SOL     OW49059   7.439   6.368   0.211  0.2062 -0.0325 -0.1746
47485SOL    HW149060   7.451   6.455   0.249 -0.8995 -1.0948  2.9629
47485SOL    HW249061   7.387   6.383   0.132 -0.8587  2.0571  0.8549
47486SOL     OW49062   4.777   4.720   0.605  0.4580 -0.3959  0.7914
47486SOL    HW149063   4.743   4.809   0.611 -0.6708 -0.7352 -0.1374
47486SOL    HW249064   4.849   4.726   0.542 -0.4656 -0.3398 -0.3024
47487SOL     OW49065   1.520   9.833   0.383  0.1801 -0.0586 -0.6142
47487SOL    HW149066   1.449   9.897   0.376 -0.3349 -0.2562  1.7930
47487SOL    HW249067   1.594   9.874   0.340 -1.6024 -0.3067 -4.3025
47488SOL     OW49068   9.229   3.265   5.577  0.6897  0.1868  0.2957
47488SOL    HW149069   9.293   3.196   5.560  3.3453  2.4637  0.3808
47488SOL    HW249070   9.239   3.285   5.670  0.3094  1.0070  0.1696
47489SOL     OW49071   9.048   6.845   8.421 -0.0141  0.3706  0.4592
47489SOL    HW149072   8.970   6.879   8.465  1.0988  0.5228  2.4215
47489SOL    HW249073   9.121   6.888   8.466  1.2301 -0.1815 -0.9682
47490SOL     OW49074   3.043  12.522   5.830  0.2695 -0.0336 -0.2760
47490SOL    HW149075   3.055  12.549   5.921  1.9309 -0.9527 -0.1986
47490SOL    HW249076   3.071  12.431   5.827  1.0931  0.2232 -1.8728
47491SOL     OW49077   7.910   0.314   6.453  0.2105 -0.0116  0.2137
47491SOL    HW149078   7.854   0.280   6.382 -0.5041  0.1690  0.6774
47491SOL    HW249079   7.950   0.236   6.491 -1.0773 -0.3288  0.9844
47492SOL     OW49080  12.330   1.706   1.884  0.3706  0.0258 -0.0230
47492SOL    HW149081  12.288   1.772   1.829 -1.7506 -1.0387  0.2266
47492SOL    HW249082  12.279   1.627   1.871  1.0600 -0.8159  1.9045
47493SOL     OW49083   8.430   7.835   5.286 -0.6012  0.5107 -0.1386
47493SOL    HW149084   8.461   7.888   5.359 -0.9655 -0.9030  1.0881
47493SOL    HW249085   8.456   7.884   5.208  1.4454  1.1619  0.8872
47494SOL     OW49086   7.472   8.211   1.381 -0.0556  0.5127 -0.2904
47494SOL    HW149087   7.395   8.266   1.373 -0.0902  0.5564  0.3245
47494SOL    HW249088   7.529   8.258   1.442  0.4681  0.4891 -0.7437
47495SOL     OW49089  12.685   6.913   5.682 -0.4122  0.7025 -0.2788
47495SOL    HW149090  12.763   6.896   5.735 -0.9327  2.9211  1.3837
47495SOL    HW249091  12.719   6.930   5.594  1.0837  2.0684  0.5067
47496SOL     OW49092   3.604   0.821   6.176  0.6289  0.0513  0.6129
47496SOL    HW149093   3.626   0.736   6.213  0.8841  0.2880  1.0108
47496SOL    HW249094   3.674   0.879   6.206  0.1808  0.5164  0.7714
47497SOL     OW49095  12.398   1.953   2.988  0.4902  0.2626 -0.4370
47497SOL    HW149096  12.372   1.915   2.904  0.9764  1.3907 -1.1252
47497SOL    HW249097  12.412   2.046   2.968  0.2073  0.6224  0.9892
47498SOL     OW49098   1.638   8.801   7.556 -0.2402 -0.4399 -0.4776
47498SOL    HW149099   1.686   8.883   7.561 -0.6845 -0.2054  0.2285
47498SOL    HW249100   1.549   8.827   7.534 -0.2505 -0.7830 -0.8385
47499SOL     OW49101   0.493   1.857   1.712 -0.3284  0.2937  0.2924
47499SOL    HW149102   0.571   1.898   1.750 -0.8070  0.2907  1.3071
47499SOL    HW249103   0.514   1.764   1.709  0.0166  0.3826 -0.2069
47500SOL     OW49104  11.230   7.582   1.676  0.4131  0.8018  0.3486
47500SOL    HW149105  11.312   7.538   1.699  1.0302  0.4971 -2.1388
47500SOL    HW249106  11.166   7.547   1.739  1.4149 -1.8159  0.0490
47501SOL     OW49107   8.803  10.026   5.863 -0.2668  0.4357 -0.5391
47501SOL    HW149108   8.769   9.939   5.843  0.2008 -0.4422  2.1499
47501SOL    HW249109   8.890  10.028   5.823 -0.0824 -0.5076 -0.1968
47502SOL     OW49110   0.743   3.005  10.678 -0.1605  0.3242 -0.0601
47502SOL    HW149111   0.692   2.935  10.719 -0.1216 -0.3383 -1.1067
47502SOL    HW249112   0.713   3.085  10.722 -0.2793 -0.3209  1.0772
47503SOL     OW49113   5.001   9.451   5.898 -0.2397 -0.0876  0.5488
47503SOL    HW149114   5.097   9.449   5.889 -0.0128  0.2921  2.5519
47503SOL    HW249115   4.972   9.506   5.826  1.0506 -0.1411 -0.0487
47504SOL     OW49116   3.582   8.404   5.230 -0.1904  0.1654  1.0812
47504SOL    HW149117   3.589   8.495   5.200  0.5762  0.4250  2.0027
47504SOL    HW249118   3.583   8.352   5.150 -1.0629  0.9770  0.5087
47505SOL     OW49119   2.276   8.921   3.745 -0.2205 -0.0380 -0.3442
47505SOL    HW149120   2.214   8.870   3.797  0.8985 -0.5448  0.5340
47505SOL    HW249121   2.267   8.886   3.656 -1.2282 -0.0440 -0.2568
47506SOL     OW49122   5.844   1.276   9.432  0.8032 -0.6378 -0.5097
47506SOL    HW149123   5.933   1.301   9.456  0.7781  1.7624 -2.5239
47506SOL    HW249124   5.805   1.246   9.514  2.5245  1.2415  1.1182
47507SOL     OW49125   4.753   0.745  11.663 -0.2550  0.0971  0.2299
47507SOL    HW149126   4.829   0.782  11.707  0.7429  1.5814 -2.5012
47507SOL    HW249127   4.724   0.814  11.603 -2.7643 -1.0491 -0.0075
47508SOL     OW49128   4.744   8.157   2.128 -0.4006  0.4046 -1.1315
47508SOL    HW149129   4.790   8.160   2.043 -1.6118  0.3812 -1.8096
47508SOL    HW249130   4.773   8.235   2.174  0.3222  0.3834 -1.5407
47509SOL     OW49131   7.323   4.024   9.299  0.1283 -0.3253 -0.0906
47509SOL    HW149132   7.349   4.095   9.240  0.3697 -0.1314  0.2445
47509SOL    HW249133   7.290   4.069   9.377 -0.8541 -0.5723 -0.3519
47510SOL     OW49134   3.803   7.960   1.431 -0.0942  0.4741 -0.0202
47510SOL    HW149135   3.821   7.878   1.385  0.7730  0.6192  0.0373
47510SOL    HW249136   3.710   7.977   1.415 -0.3161 -0.5762  0.0604
47511SOL     OW49137  11.433   6.243  12.773  0.1710 -0.2331  0.2163
47511SOL    HW149138  11.461   6.159  12.738  0.1891 -0.2390  0.2452
47511SOL    HW249139  11.503   6.304  12.750  0.5481 -0.3939  0.9103
47512SOL     OW49140   7.888   3.700   3.993  0.3963 -0.0718  0.2259
47512SOL    HW149141   7.916   3.642   4.064  0.0809 -0.0460  0.3742
47512SOL    HW249142   7.794   3.683   3.984 -0.0315  1.4921  1.3049
47513SOL     OW49143   7.305   0.831   1.665  0.5332  0.1231 -0.4622
47513SOL    HW149144   7.319   0.925   1.654  0.4744  0.2605  0.5489
47513SOL    HW249145   7.389   0.797   1.693  0.3934 -0.0271 -0.2242
47514SOL     OW49146   6.401   2.070   9.853  0.1843 -0.4912  0.5236
47514SOL    HW149147   6.315   2.054   9.891 -1.0361 -0.1685 -1.9254
47514SOL    HW249148   6.406   2.165   9.843 -0.3175 -0.6587 -1.7211
47515SOL     OW49149  11.813   6.776  10.177  0.0879  0.8007 -0.1269
47515SOL    HW149150  11.875   6.725  10.229  0.5321  1.1414 -0.3185
47515SOL    HW249151  11.826   6.866  10.206 -0.2294  0.8899 -0.2599
47516SOL     OW49152  11.978  10.884   1.024  0.0716  0.5323  0.1952
47516SOL    HW149153  11.915  10.819   1.056  0.3545  0.0752 -0.1645
47516SOL    HW249154  11.977  10.874   0.929  1.6497 -0.4202  0.2404
47517SOL     OW49155   1.011   6.147  12.160  0.3999 -0.5454  0.1565
47517SOL    HW149156   0.959   6.138  12.080 -0.1202 -1.4262  0.5715
47517SOL    HW249157   0.958   6.103  12.227  1.4242 -0.9534  0.7111
47518SOL     OW49158   4.825   3.791   2.590  0.4869 -0.4454  0.4058
47518SOL    HW149159   4.817   3.697   2.606  1.4277 -0.7304 -0.6376
47518SOL    HW249160   4.919   3.805   2.574  0.5241  0.8545  1.5483
47519SOL     OW49161   2.161   8.139  12.456 -0.0295 -0.0587  0.3666
47519SOL    HW149162   2.085   8.129  12.399 -0.2111 -2.0551  0.8772
47519SOL    HW249163   2.172   8.053  12.496  0.4237  1.1142  2.9309
47520SOL     OW49164   0.968   5.053   4.488  0.0110  0.8266 -1.0829
47520SOL    HW149165   1.013   5.041   4.405  0.6624  0.7426 -0.7321
47520SOL    HW249166   0.992   5.142   4.516  1.2002  0.2580 -0.1856
47521SOL     OW49167  10.370  11.827  10.262 -0.3157  0.0824  0.7621
47521SOL    HW149168  10.356  11.744  10.307  0.6408  0.5200  1.9364
47521SOL    HW249169  10.394  11.888  10.332  1.4791  0.7316 -0.3519
47522SOL     OW49170   7.633   7.055  12.706 -0.6392  0.0450 -0.6126
47522SOL    HW149171   7.669   6.974  12.670 -2.0380 -0.0256 -1.9188
47522SOL    HW249172   7.600   7.103  12.630 -1.0747  1.2224  0.2865
47523SOL     OW49173   6.912   6.901   4.668  0.3954 -0.1067  0.7627
47523SOL    HW149174   7.005   6.911   4.688  0.5043  0.5821  0.0267
47523SOL    HW249175   6.894   6.973   4.607 -0.3127 -0.9957 -0.1092
47524SOL     OW49176   3.567   7.723   7.122  0.0362  0.0173  0.0563
47524SOL    HW149177   3.598   7.662   7.189  1.4760 -0.8820 -1.3635
47524SOL    HW249178   3.635   7.790   7.117 -0.7073  0.8170  0.3904
47525SOL     OW49179   2.252  11.695   0.924  0.4447 -0.2827 -0.0987
47525SOL    HW149180   2.163  11.711   0.957  0.8630 -0.7740  1.3288
47525SOL    HW249181   2.281  11.616   0.970  1.3874 -0.5218 -1.0518
47526SOL     OW49182   3.481   4.822  10.656 -0.4531 -0.4402  0.4378
47526SOL    HW149183   3.416   4.800  10.589  1.5518 -2.6341 -0.9509
47526SOL    HW249184   3.561   4.841  10.606  1.1233 -2.1724  2.1218
47527SOL     OW49185   4.814   1.081   8.172  0.1159  0.1781  0.9688
47527SOL    HW149186   4.729   1.044   8.148  0.4567  0.1911 -0.3473
47527SOL    HW249187   4.855   1.013   8.225 -0.6775  0.1453  1.5637
47528SOL     OW49188  10.118   0.535  12.721 -0.0540 -0.0311 -0.3778
47528SOL    HW149189  10.140   0.610  12.777 -1.5891 -0.8967  1.4832
47528SOL    HW249190  10.191   0.474  12.733 -0.1836 -0.0437  0.4352
47529SOL     OW49191   5.807   1.720   1.646 -0.7729  0.6821 -0.1103
47529SOL    HW149192   5.812   1.632   1.607 -1.0334  0.8729 -0.5884
47529SOL    HW249193   5.887   1.728   1.697 -0.4337  0.4086 -0.5889
47530SOL     OW49194   6.840   3.512   1.677 -0.2353 -0.1122 -0.5506
47530SOL    HW149195   6.928   3.475   1.674  0.4189  1.0854  1.7700
47530SOL    HW249196   6.783   3.439   1.651  1.3129 -1.3190 -0.7526
47531SOL     OW49197   5.688   4.158   3.885  0.6752 -0.1289 -0.2767
47531SOL    HW149198   5.653   4.233   3.933 -0.7341 -0.9037 -0.0271
47531SOL    HW249199   5.766   4.191   3.842  0.3587  1.3482  0.2313
47532SOL     OW49200   5.906   9.434   1.138 -0.0401 -0.3102  0.2360
47532SOL    HW149201   5.950   9.474   1.063 -1.5016  1.4046  0.2239
47532SOL    HW249202   5.894   9.505   1.200 -0.0667 -1.4028  1.5366
47533SOL     OW49203   2.501   2.897  10.420 -0.1222 -0.2545  0.3754
47533SOL    HW149204   2.520   2.900  10.514  0.4932  0.7745  0.2291
47533SOL    HW249205   2.420   2.947  10.410 -0.1858 -0.3610  0.3536
47534SOL     OW49206  12.710   6.970   0.723 -0.1744  0.3014  0.0019
47534SOL    HW149207  12.668   7.051   0.750  0.1168  0.2853  0.5078
47534SOL    HW249208  12.732   6.926   0.805  0.6638  0.2213 -0.2601
47535SOL     OW49209   3.518   0.506   8.920  0.1018  0.0300 -0.3140
47535SOL    HW149210   3.460   0.572   8.884 -0.2636 -0.8316 -1.3654
47535SOL    HW249211   3.515   0.520   9.015  1.1112  2.3663 -0.5734
47536SOL     OW49212   9.736   2.563  12.761 -0.4638 -0.0273 -0.1148
47536SOL    HW149213   9.735   2.471  12.736  2.0707  0.0353 -0.7174
47536SOL    HW249214   9.732   2.611  12.678  1.6240  0.2849 -0.0991
47537SOL     OW49215  11.781   1.910   9.579 -0.5621  0.2059  0.1069
47537SOL    HW149216  11.799   1.824   9.542 -0.1243 -0.0373  0.8661
47537SOL    HW249217  11.689   1.905   9.606 -0.4446 -0.1461  0.4564
47538SOL     OW49218   0.460   1.167   6.953  0.3071 -0.1314  1.0639
47538SOL    HW149219   0.431   1.258   6.953 -1.7313 -0.7017  2.2974
47538SOL    HW249220   0.491   1.151   6.864 -1.1416  1.2494  0.2661
47539SOL     OW49221  11.616   9.202  10.678 -0.0200 -0.7231  0.0638
47539SOL    HW149222  11.571   9.231  10.757 -0.2302  1.8862 -0.8950
47539SOL    HW249223  11.555   9.140  10.637 -0.6591 -0.7981  1.0950
47540SOL     OW49224   9.477   2.253  10.774  0.2507  0.0449  0.9748
47540SOL    HW149225   9.456   2.272  10.865  0.0235 -1.0382  1.1630
47540SOL    HW249226   9.519   2.168  10.776  0.4013  0.0849  0.0824
47541SOL     OW49227   4.813   1.801   6.848 -0.7020 -0.3072 -0.5742
47541SOL    HW149228   4.822   1.887   6.806  0.4511  0.8176  1.8086
47541SOL    HW249229   4.903   1.771   6.860 -1.0648 -1.3311 -0.3548
47542SOL     OW49230   3.129   8.370  10.882  0.6091  0.2953 -0.5750
47542SOL    HW149231   3.214   8.395  10.918  0.9939  0.2089 -1.3862
47542SOL    HW249232   3.094   8.307  10.944  0.9088  0.7151  0.0290
47543SOL     OW49233   6.307   0.598   1.836  0.1036 -0.2923 -0.2987
47543SOL    HW149234   6.277   0.575   1.748 -0.3768 -0.6186 -0.0547
47543SOL    HW249235   6.358   0.678   1.824 -0.5672  0.0755 -0.7720
47544SOL     OW49236   6.455   8.794   2.654  0.0449  0.0675  0.2952
47544SOL    HW149237   6.400   8.869   2.676  0.0970 -0.0260  0.7545
47544SOL    HW249238   6.426   8.725   2.714  1.1354  0.2220  1.0325
47545SOL     OW49239   5.687   8.619   5.611  0.1202 -0.4226  0.1372
47545SOL    HW149240   5.672   8.697   5.664 -0.8045 -1.0231  0.7863
47545SOL    HW249241   5.645   8.638   5.527 -0.7995 -0.5205  0.5656
47546SOL     OW49242  11.362   1.448   5.954 -0.3679  0.3626  0.3078
47546SOL    HW149243  11.290   1.503   5.987  0.3066  0.9025  0.9191
47546SOL    HW249244  11.320   1.364   5.933 -1.0282  0.3594  1.5322
47547SOL     OW49245   7.671   9.712  10.609 -0.0693 -0.1841  0.1402
47547SOL    HW149246   7.621   9.733  10.688 -0.6718  0.0045 -0.2824
47547SOL    HW249247   7.680   9.795  10.563 -1.1619 -0.5504 -0.7944
47548SOL     OW49248  12.076  12.570   0.264 -0.5460  0.9794 -0.0035
47548SOL    HW149249  12.072  12.661   0.293 -1.9966  0.8864  0.1935
47548SOL    HW249250  12.104  12.574   0.173  0.3727  1.5432  0.2930
47549SOL     OW49251   2.576  10.882  11.541  0.3812 -0.7527  0.1633
47549SOL    HW149252   2.515  10.900  11.613  1.0394  1.5044  0.2099
47549SOL    HW249253   2.526  10.824  11.483 -1.2536 -0.2104  0.9505
47550SOL     OW49254   8.374   8.385   5.679  0.3294 -0.6353 -0.8146
47550SOL    HW149255   8.427   8.423   5.749 -0.5802 -1.0348  0.1240
47550SOL    HW249256   8.374   8.451   5.610  1.0045 -0.1057 -0.3192
47551SOL     OW49257   7.258   9.730  12.457  0.3709 -0.5216 -0.1258
47551SOL    HW149258   7.289   9.755  12.370  0.0067 -1.1661 -0.4491
47551SOL    HW249259   7.328   9.675  12.493  0.8015  0.2551  0.2508
47552SOL     OW49260   0.614   1.381   2.128  0.5907  0.1316  0.4801
47552SOL    HW149261   0.619   1.375   2.033 -0.1332 -1.6692  0.5292
47552SOL    HW249262   0.627   1.474   2.147  1.6737  0.3812 -1.3045
47553SOL     OW49263   7.860   5.492   9.949 -0.0047 -0.1394 -0.0253
47553SOL    HW149264   7.788   5.555   9.952 -0.2206 -0.2730 -1.7035
47553SOL    HW249265   7.937   5.546   9.928  0.5429  0.0886  2.2955
47554SOL     OW49266   6.665   1.952   4.275 -0.3121  0.2740  0.0927
47554SOL    HW149267   6.702   1.893   4.341 -0.2896  0.7285  0.4976
47554SOL    HW249268   6.725   1.948   4.202  1.9237  2.7624  1.5902
47555SOL     OW49269  11.434  11.817   3.645  0.1736  0.1064  0.0942
47555SOL    HW149270  11.368  11.778   3.588  0.7511  0.0070 -0.5127
47555SOL    HW249271  11.505  11.753   3.647  0.9113  0.8879 -0.4944
47556SOL     OW49272  11.873   0.720   5.014 -0.1032 -0.4435 -0.1129
47556SOL    HW149273  11.967   0.740   5.010 -0.5318  2.3756  1.5441
47556SOL    HW249274  11.868   0.639   5.064  1.3900  0.6853  2.0142
47557SOL     OW49275   3.206   5.205   3.585 -0.4565  0.4990  0.3517
47557SOL    HW149276   3.114   5.183   3.571 -0.1789 -0.4106 -0.0794
47557SOL    HW249277   3.204   5.291   3.629 -1.4700  1.1257 -0.8693
47558SOL     OW49278   6.687   0.119  10.572 -0.0627  0.1295  0.3053
47558SOL    HW149279   6.772   0.076  10.585 -0.1021 -1.0169 -2.6576
47558SOL    HW249280   6.700   0.207  10.609  2.4422  0.0235 -0.1252
47559SOL     OW49281   1.870   0.652   2.294 -0.1851  0.3363 -0.2204
47559SOL    HW149282   1.945   0.594   2.293  0.1386  0.7534 -1.2095
47559SOL    HW249283   1.907   0.740   2.284 -0.8798  0.4184 -2.7084
47560SOL     OW49284   0.453   7.680  11.974 -0.2411 -0.1382  0.4165
47560SOL    HW149285   0.396   7.703  11.900  0.1327 -0.5304 -0.0030
47560SOL    HW249286   0.470   7.763  12.018  0.6319  0.3233 -0.7394
47561SOL     OW49287   8.136   6.536   3.189 -0.2397  0.0301 -0.1479
47561SOL    HW149288   8.084   6.478   3.134  0.5475 -0.1063 -0.7629
47561SOL    HW249289   8.132   6.621   3.145 -1.9986  0.6620  1.1356
47562SOL     OW49290  10.681   9.048   7.245 -0.2314 -0.2036  0.0285
47562SOL    HW149291  10.607   8.989   7.226 -0.0462 -0.4448  0.0489
47562SOL    HW249292  10.733   9.047   7.164 -0.6549  0.5648 -0.2573
47563SOL     OW49293  10.821   2.049   3.833 -0.1975  0.0642  0.6244
47563SOL    HW149294  10.863   2.116   3.887 -0.8714  0.0724  1.1570
47563SOL    HW249295  10.788   2.096   3.757 -0.6833  0.3413  1.0055
47564SOL     OW49296   9.715   1.289  10.931 -0.5322 -0.4182 -0.0467
47564SOL    HW149297   9.729   1.222  10.998  2.4131 -0.4736 -0.5999
47564SOL    HW249298   9.705   1.370  10.980 -0.2509 -0.7143  0.5055
47565SOL     OW49299   7.793  12.374  12.064 -0.3092  0.4021  0.1524
47565SOL    HW149300   7.825  12.443  12.121 -0.4013 -2.0511  3.4263
47565SOL    HW249301   7.700  12.365  12.086 -0.4692 -0.2832 -0.7223
47566SOL     OW49302   1.862   6.268   1.199 -0.1368  0.8202 -1.0897
47566SOL    HW149303   1.920   6.233   1.266  0.8639  3.2840 -0.5667
47566SOL    HW249304   1.812   6.192   1.169  0.8715 -0.7469  0.9218
47567SOL     OW49305   4.878   6.899  10.379  0.1995  0.2139  0.0528
47567SOL    HW149306   4.890   6.807  10.401  0.7562  0.1513 -0.5028
47567SOL    HW249307   4.966   6.936  10.380 -0.1432  1.1408  1.9287
47568SOL     OW49308   1.246   1.389   6.312  0.0958 -0.2441 -0.6782
47568SOL    HW149309   1.167   1.443   6.313 -0.0059 -0.4030  0.3745
47568SOL    HW249310   1.318   1.452   6.304 -0.0436  0.0382  0.1949
47569SOL     OW49311   6.829   6.304  12.227  0.3322 -0.4020 -0.2775
47569SOL    HW149312   6.824   6.228  12.168 -0.4440 -1.1860  0.7740
47569SOL    HW249313   6.888   6.276  12.297 -2.3432 -1.2959  1.8121
47570SOL     OW49314   2.171  12.097   0.765 -0.0318  0.4937 -1.0750
47570SOL    HW149315   2.212  12.107   0.679 -0.4728  0.3471 -1.3057
47570SOL    HW249316   2.209  12.167   0.818  1.5606 -0.4598 -0.8691
47571SOL     OW49317  10.128   6.600   1.474 -0.1540  0.2773  0.3236
47571SOL    HW149318  10.146   6.605   1.567 -0.1292  0.5069  0.3073
47571SOL    HW249319  10.071   6.524   1.464 -0.3854  0.4209  0.5608
47572SOL     OW49320   7.872  12.237   6.437 -0.1702 -0.2321 -0.0985
47572SOL    HW149321   7.881  12.206   6.528  1.4360  2.7144  0.8858
47572SOL    HW249322   7.962  12.247   6.406 -0.6929 -1.0626 -2.0500
47573SOL     OW49323   7.415   6.850  10.165 -0.0839  0.0652  0.2394
47573SOL    HW149324   7.359   6.802  10.227  0.7547  0.0450  1.0004
47573SOL    HW249325   7.454   6.920  10.218  1.3243 -0.4734 -0.0460
47574SOL     OW49326   7.978   5.221   8.545 -0.0710 -1.0636 -0.4210
47574SOL    HW149327   7.958   5.302   8.498  1.2210 -1.0485 -0.9783
47574SOL    HW249328   8.004   5.251   8.633 -1.6382 -1.0377  0.0660
47575SOL     OW49329   1.610  10.328   0.472  0.0140 -0.0798 -0.7462
47575SOL    HW149330   1.517  10.333   0.449 -0.0977  1.2258 -0.1145
47575SOL    HW249331   1.653  10.302   0.390 -0.9031 -0.7644 -1.0283
47576SOL     OW49332   5.525  10.870  10.923  0.0611  0.1116  0.4185
47576SOL    HW149333   5.457  10.920  10.966 -0.1888  0.1084  0.0301
47576SOL    HW249334   5.478  10.808  10.867  0.3635 -0.5528  0.8851
47577SOL     OW49335   5.811   3.760  10.150  0.4166 -0.6228 -0.3753
47577SOL    HW149336   5.734   3.770  10.094 -0.5758 -1.2588  0.8283
47577SOL    HW249337   5.878   3.814  10.108 -0.1896 -1.3109 -2.3235
47578SOL     OW49338   7.601   9.478   5.463 -0.4593 -0.1106  0.0005
47578SOL    HW149339   7.684   9.521   5.484  1.9352 -3.5395 -1.5755
47578SOL    HW249340   7.547   9.547   5.426  2.3939  1.9305 -0.6814
47579SOL     OW49341  12.014   6.426  12.509 -0.2504  0.5585  0.4772
47579SOL    HW149342  12.032   6.516  12.536  3.3793  0.3866 -0.8402
47579SOL    HW249343  11.979   6.435  12.421 -0.3968  0.6934  0.5473
47580SOL     OW49344   4.142   3.545   7.610  0.7687 -0.0742 -0.1382
47580SOL    HW149345   4.084   3.606   7.564  1.4828 -1.6439 -3.4199
47580SOL    HW249346   4.117   3.553   7.702 -3.0135  1.0083 -1.0853
47581SOL     OW49347   2.783   8.735   2.343  0.1338  0.5366  0.4423
47581SOL    HW149348   2.837   8.758   2.418  0.7823 -1.5976  0.6844
47581SOL    HW249349   2.693   8.753   2.371  0.4237  0.3929  1.4735
47582SOL     OW49350   9.709   4.895   9.854  0.2909  0.4152  0.5887
47582SOL    HW149351   9.701   4.808   9.814 -0.2205  0.7017  0.0415
47582SOL    HW249352   9.801   4.918   9.846  0.5346 -0.3058  1.2323
47583SOL     OW49353   6.814   7.422   5.831  0.4773 -0.0273 -0.5779
47583SOL    HW149354   6.773   7.363   5.767  0.8872 -0.2494 -0.6359
47583SOL    HW249355   6.854   7.491   5.779 -0.0817  0.3638 -0.5054
47584SOL     OW49356   0.595   8.500   4.419 -0.2838 -0.4166 -0.5562
47584SOL    HW149357   0.654   8.554   4.367  0.4811 -0.0331  0.6849
47584SOL    HW249358   0.514   8.552   4.424  0.1056  0.1772 -0.2202
47585SOL     OW49359   1.224   6.553   7.167  0.3005  0.1315  0.7799
47585SOL    HW149360   1.231   6.539   7.073  0.2014  2.7591  0.3004
47585SOL    HW249361   1.206   6.647   7.176 -2.0170 -0.4268  3.3282
47586SOL     OW49362   6.363   7.326   6.597 -0.1320  0.1323  0.3871
47586SOL    HW149363   6.423   7.400   6.584 -1.5170  1.5248  1.4074
47586SOL    HW249364   6.403   7.254   6.549  2.1021  1.0998  0.6320
47587SOL     OW49365  11.680  12.458   0.655 -0.1992  0.1553  0.3555
47587SOL    HW149366  11.770  12.434   0.634 -0.4198 -0.3990  0.0475
47587SOL    HW249367  11.630  12.377   0.645 -0.8462  0.6048 -0.1390
47588SOL     OW49368   8.972   5.516   4.528  0.0456  0.6795  0.6980
47588SOL    HW149369   8.896   5.573   4.512 -3.4125 -3.2123  1.4208
47588SOL    HW249370   8.950   5.470   4.609  2.2822 -2.0323 -0.0983
47589SOL     OW49371   5.908   8.996   1.044  0.2031  0.0241  0.1480
47589SOL    HW149372   5.850   8.930   1.083 -0.1881  0.2896  0.0238
47589SOL    HW249373   5.946   8.953   0.968 -0.2300  0.0157 -0.0643
47590SOL     OW49374   4.781   0.217   9.264  0.0143  0.1494  0.5882
47590SOL    HW149375   4.705   0.236   9.209 -0.0398  0.1476  0.6613
47590SOL    HW249376   4.843   0.173   9.206  0.5322  1.3868  0.1796
47591SOL     OW49377   9.176   5.554   5.354 -0.0603  0.2476  0.0469
47591SOL    HW149378   9.226   5.634   5.337 -1.4117  1.0464 -0.3392
47591SOL    HW249379   9.133   5.570   5.439  0.8250 -0.6917  0.6895
47592SOL     OW49380   7.470  12.589   4.949  0.2335  0.3556  0.4668
47592SOL    HW149381   7.399  12.532   4.977  0.2166 -0.5238 -1.2315
47592SOL    HW249382   7.446  12.675   4.983 -0.7861 -0.2450  1.3349
47593SOL     OW49383   3.814   9.910   3.223 -0.0196  0.4012  0.3762
47593SOL    HW149384   3.741   9.969   3.204 -1.3690 -1.2944  0.0351
47593SOL    HW249385   3.782   9.857   3.296  2.1565  1.7296  2.4606
47594SOL     OW49386   8.777   7.824   1.950  0.2880  0.4385  0.2093
47594SOL    HW149387   8.796   7.916   1.966 -0.2268  0.4986  0.5088
47594SOL    HW249388   8.863   7.782   1.940  0.6713  0.4632  2.7854
47595SOL     OW49389   3.738   2.017  11.394 -0.3781  0.0789 -0.6134
47595SOL    HW149390   3.695   2.024  11.308 -0.9910 -0.3520 -0.3493
47595SOL    HW249391   3.773   1.927  11.396  0.6583  0.4616 -0.8733
47596SOL     OW49392   9.505   8.357   8.515  0.3989 -0.1960 -0.1075
47596SOL    HW149393   9.586   8.409   8.516  0.4287 -0.1618 -1.8488
47596SOL    HW249394   9.497   8.327   8.425 -1.9464  0.4558 -0.1641
47597SOL     OW49395   0.646   7.651  11.245  0.0743  0.2892 -0.0715
47597SOL    HW149396   0.701   7.574  11.227 -0.2159  0.2774 -0.9617
47597SOL    HW249397   0.703   7.710  11.293  0.1353 -0.7051  1.1430
47598SOL     OW49398   6.185   2.343   9.070  0.1277 -0.3057 -0.1511
47598SOL    HW149399   6.128   2.415   9.096  0.2172  0.1039 -1.0472
47598SOL    HW249400   6.270   2.363   9.110  0.0104 -0.1874  0.0372
47599SOL     OW49401   9.507   9.552   9.747 -0.5923 -0.0324  0.1757
47599SOL    HW149402   9.601   9.566   9.748 -0.6113  0.1889 -0.3468
47599SOL    HW249403   9.493   9.473   9.799  0.0261 -0.8286 -0.8325
47600SOL     OW49404   9.191   3.260  10.371 -0.4218 -0.0571  0.7182
47600SOL    HW149405   9.179   3.285  10.463 -1.1460  1.5958  0.2126
47600SOL    HW249406   9.227   3.338  10.330 -3.0542  0.3516 -1.0350
47601SOL     OW49407  12.609   9.176  10.239 -1.1319  0.0429 -0.4149
47601SOL    HW149408  12.626   9.262  10.276  1.0916 -0.1273 -0.9179
47601SOL    HW249409  12.589   9.121  10.315  0.4036  0.3626  0.2520
47602SOL     OW49410   2.413   6.253   7.440  0.2163 -0.2615 -0.3066
47602SOL    HW149411   2.439   6.259   7.532  0.5415  0.4255 -0.4388
47602SOL    HW249412   2.463   6.322   7.396  0.1562 -0.6647 -1.0215
47603SOL     OW49413   8.974   4.931   4.765  0.6165  0.1311 -0.0506
47603SOL    HW149414   8.884   4.941   4.734  0.4783 -0.8825 -0.0391
47603SOL    HW249415   9.022   4.896   4.689  1.1603  1.2943 -0.2566
47604SOL     OW49416   5.900   0.081   2.046 -0.0945 -0.3114 -0.2579
47604SOL    HW149417   5.973   0.143   2.046  0.3049 -0.7697 -0.0075
47604SOL    HW249418   5.918   0.023   2.120 -1.3218  0.2721  0.5307
47605SOL     OW49419   2.707  11.436   0.983  0.2791  0.0827  0.2000
47605SOL    HW149420   2.736  11.358   1.030 -0.1725 -0.3456 -0.2249
47605SOL    HW249421   2.713  11.412   0.891  0.0978  0.5388  0.0689
47606SOL     OW49422   7.091   0.987   7.944  0.4476  0.2671 -0.0439
47606SOL    HW149423   7.062   0.996   8.035  0.2204  1.6802 -0.2371
47606SOL    HW249424   7.139   1.067   7.926  0.4470  0.0210 -1.1908
47607SOL     OW49425   0.184   2.314   8.298 -0.6032  0.1315 -0.2749
47607SOL    HW149426   0.146   2.243   8.350  1.4690 -0.3430  0.6625
47607SOL    HW249427   0.208   2.272   8.215  2.7168 -0.9440  1.0896
47608SOL     OW49428   6.585   5.679   8.783  0.6555  0.0509 -0.1511
47608SOL    HW149429   6.561   5.748   8.844 -1.6528 -0.2156 -0.6593
47608SOL    HW249430   6.539   5.701   8.702 -0.1734 -2.0377 -0.3197
47609SOL     OW49431   6.754   8.086   4.746 -0.0123  0.3626  0.2415
47609SOL    HW149432   6.768   8.096   4.652 -0.4154  0.1783  0.1629
47609SOL    HW249433   6.706   8.165   4.772  1.3987  1.1611  0.5732
47610SOL     OW49434  12.548   1.059   0.103  0.8837  0.2390 -0.2453
47610SOL    HW149435  12.609   1.126   0.072  0.2394  0.9108 -0.1073
47610SOL    HW249436  12.538   0.999   0.029  2.2357 -0.2712 -0.0271
47611SOL     OW49437   5.915   1.568   3.962  0.1710  0.6417 -0.0156
47611SOL    HW149438   6.008   1.575   3.984  1.0755 -2.4240 -2.2993
47611SOL    HW249439   5.887   1.659   3.949  3.4616  1.5921 -1.4888
47612SOL     OW49440   2.747   3.325   8.671 -0.0064  0.3629  0.2441
47612SOL    HW149441   2.671   3.371   8.636 -0.6455  0.4224  1.6378
47612SOL    HW249442   2.821   3.381   8.650 -0.3660  0.4250 -0.9173
47613SOL     OW49443   6.242   3.625  10.548  0.6952 -0.1867 -0.1831
47613SOL    HW149444   6.222   3.705  10.597  0.6956 -1.5009  2.1167
47613SOL    HW249445   6.293   3.654  10.473  1.3130  1.8988  0.9803
47614SOL     OW49446   0.014   5.847   9.445 -0.1518  0.2290 -0.8065
47614SOL    HW149447   0.055   5.797   9.374  1.0705  0.7952 -0.5298
47614SOL    HW249448   0.067   5.927   9.451  0.6757 -0.4267  1.6778
47615SOL     OW49449   6.409  11.769   5.191 -0.4521 -0.2885  0.4604
47615SOL    HW149450   6.340  11.835   5.197 -1.4346 -1.2417  0.0999
47615SOL    HW249451   6.369  11.698   5.140  0.8208 -0.8460  0.2034
47616SOL     OW49452   2.217   5.488   5.600  0.2366  0.4765  0.1042
47616SOL    HW149453   2.210   5.461   5.508  0.8387 -3.4342  1.0499
47616SOL    HW249454   2.126   5.489   5.631  0.1616 -0.0786 -0.0860
47617SOL     OW49455  10.249   1.179  11.406  0.3710  0.4974 -0.0030
47617SOL    HW149456  10.215   1.143  11.488  0.1505 -0.9483 -0.6960
47617SOL    HW249457  10.171   1.189  11.350  0.4944  1.6355  0.0008
47618SOL     OW49458  12.500   1.710  12.737  0.7556 -0.1486  0.2471
47618SOL    HW149459  12.492   1.714  12.833  0.5596  0.8119  0.1950
47618SOL    HW249460  12.433   1.647  12.711  0.5198 -0.0943  0.7110
47619SOL     OW49461   9.839  11.720   4.687  0.4245  0.1004 -0.3690
47619SOL    HW149462   9.877  11.722   4.775  0.3598  0.3736 -0.3462
47619SOL    HW249463   9.826  11.812   4.665 -1.4160  0.0116  0.1390
47620SOL     OW49464  11.413   8.124   8.772 -0.1895  0.0474  0.2436
47620SOL    HW149465  11.320   8.108   8.757  0.1468 -2.0291 -0.0221
47620SOL    HW249466  11.419   8.215   8.799 -2.1618  0.5568 -0.9075
47621SOL     OW49467   8.277   6.634   9.246 -0.4140  0.2117 -0.0017
47621SOL    HW149468   8.315   6.722   9.254  0.1530 -0.1640  2.0070
47621SOL    HW249469   8.281   6.598   9.335  1.6699 -2.7948 -1.1360
47622SOL     OW49470   8.485   9.082   5.784  0.8242 -0.3399  0.4383
47622SOL    HW149471   8.486   9.010   5.720 -2.2697 -0.6029  0.5510
47622SOL    HW249472   8.571   9.076   5.827  1.5285 -2.5564 -1.0599
47623SOL     OW49473   5.133  11.231   9.718 -0.3619 -0.0292  0.0898
47623SOL    HW149474   5.042  11.258   9.729 -0.4353  0.2450 -1.0190
47623SOL    HW249475   5.140  11.210   9.625  0.6743 -0.1770  0.1894
47624SOL     OW49476   9.229  12.233   4.777  0.3093  0.0846  0.1640
47624SOL    HW149477   9.200  12.160   4.832 -0.2391 -0.0430 -0.2842
47624SOL    HW249478   9.263  12.191   4.698  2.0219  0.2144  0.7818
47625SOL     OW49479   7.176   2.238   6.422 -0.0777 -0.6065  0.1138
47625SOL    HW149480   7.270   2.251   6.437  0.2321 -1.9943 -0.4705
47625SOL    HW249481   7.156   2.292   6.345  0.3372 -0.6157 -0.0029
47626SOL     OW49482   3.984  10.889  10.752 -0.0071 -0.5165  0.4648
47626SOL    HW149483   4.077  10.870  10.751  0.8107  2.8090  0.2232
47626SOL    HW249484   3.970  10.938  10.834 -1.4113 -0.4816  0.2383
47627SOL     OW49485   7.175   0.519   2.984  0.2926  0.3356 -0.3303
47627SOL    HW149486   7.146   0.598   2.938  0.1074  0.0301 -0.7362
47627SOL    HW249487   7.211   0.552   3.067  0.6767  0.8902 -0.7135
47628SOL     OW49488   7.779   0.168   1.710 -0.1717 -0.3400 -0.1555
47628SOL    HW149489   7.735   0.248   1.682  2.1482  1.4536  0.9089
47628SOL    HW249490   7.791   0.179   1.805  1.6416 -1.1203 -0.2383
47629SOL     OW49491   4.377   5.599   0.786  0.2262 -0.1271 -0.2043
47629SOL    HW149492   4.471   5.598   0.764  0.9462  0.1855  2.5485
47629SOL    HW249493   4.351   5.507   0.781  0.8909 -0.3244 -0.2196
47630SOL     OW49494   9.780   1.141   5.542  0.5881 -0.2734 -0.0676
47630SOL    HW149495   9.707   1.179   5.493  1.9020  0.9416 -1.1800
47630SOL    HW249496   9.778   1.048   5.519 -0.9055 -0.3694  0.3422
47631SOL     OW49497   8.881   5.366   5.054  0.2569 -0.0382  0.0696
47631SOL    HW149498   8.880   5.273   5.032 -0.3462  0.3367 -1.5693
47631SOL    HW249499   8.820   5.406   4.993  0.8630  1.5179  0.4467
47632SOL     OW49500   0.278  11.745   2.559 -0.2317  0.1369 -0.1293
47632SOL    HW149501   0.360  11.792   2.574 -0.0756 -0.3069  0.4234
47632SOL    HW249502   0.244  11.783   2.478 -1.1835  2.7176  1.3582
47633SOL     OW49503   1.956   8.070   8.684  0.3236 -0.3566  0.3794
47633SOL    HW149504   1.880   8.108   8.639  0.4869  0.2386  0.5881
47633SOL    HW249505   2.018   8.052   8.615  0.0463 -0.7145  0.2213
47634SOL     OW49506   9.768   4.843   9.295 -0.3025 -0.0209 -0.3120
47634SOL    HW149507   9.719   4.802   9.366 -1.8587  1.3175 -0.5394
47634SOL    HW249508   9.858   4.815   9.308 -0.5324  0.1646  2.1711
47635SOL     OW49509   8.515  10.587   6.924 -0.1510  0.2776  0.0864
47635SOL    HW149510   8.512  10.675   6.886  0.7808 -0.1642 -1.0728
47635SOL    HW249511   8.446  10.539   6.878  0.4276 -0.0359 -0.4579
47636SOL     OW49512   5.477   8.787  12.376 -0.2692 -0.1265 -0.2521
47636SOL    HW149513   5.546   8.776  12.309  1.5390  0.8544  1.3550
47636SOL    HW249514   5.431   8.866  12.349  0.5541  0.3592 -0.2838
47637SOL     OW49515   4.787   8.672   4.161  0.3742  0.4531  0.1638
47637SOL    HW149516   4.755   8.640   4.246  1.7219  1.1780  0.9770
47637SOL    HW249517   4.876   8.701   4.179  1.0100 -0.2235 -1.7287
47638SOL     OW49518  10.557  11.919   5.197  0.4883  0.3580 -0.2211
47638SOL    HW149519  10.582  11.987   5.134  0.3006  0.6966  0.0593
47638SOL    HW249520  10.534  11.968   5.276 -0.8440  0.0511 -0.3925
47639SOL     OW49521   3.780   6.800  11.179 -0.2592 -0.4454 -0.0170
47639SOL    HW149522   3.766   6.765  11.091  1.8374 -0.0663 -0.5530
47639SOL    HW249523   3.803   6.892  11.165  0.3200 -0.4348  0.9105
47640SOL     OW49524   6.002   3.883   5.916 -0.2779 -1.1716  0.1627
47640SOL    HW149525   5.941   3.892   5.989  0.7962 -0.6749  1.0306
47640SOL    HW249526   6.029   3.792   5.919 -0.9063 -1.3738 -0.1749
47641SOL     OW49527   5.538   4.589  10.625  0.1050 -0.7823 -0.5153
47641SOL    HW149528   5.511   4.526  10.691  0.7889 -0.1201  0.4221
47641SOL    HW249529   5.470   4.584  10.558 -1.7054 -0.0497  1.1704
47642SOL     OW49530   1.239   6.668   6.185 -0.1161 -0.2896 -0.3021
47642SOL    HW149531   1.150   6.634   6.186 -0.3889  0.3989 -0.3957
47642SOL    HW249532   1.294   6.593   6.162 -0.2317 -1.6771  3.2654
47643SOL     OW49533   0.209  12.522   2.945  0.2381 -0.2655  0.2007
47643SOL    HW149534   0.165  12.498   3.026 -1.3846  1.2744 -0.1511
47643SOL    HW249535   0.190  12.616   2.935 -0.5651 -0.6424 -2.5081
47644SOL     OW49536   6.025   4.988   7.866  0.3831  0.2728  0.0918
47644SOL    HW149537   5.940   5.013   7.832  1.6585  3.4096 -1.1652
47644SOL    HW249538   6.075   4.960   7.789  1.1663  0.6718  0.4438
47645SOL     OW49539   9.605   7.142   2.665  0.2301 -0.5884  0.3722
47645SOL    HW149540   9.588   7.114   2.575  3.1417 -0.1545 -0.4175
47645SOL    HW249541   9.625   7.235   2.658 -1.3243 -0.1043  1.7981
47646SOL     OW49542   5.120   4.567   6.301 -0.2538  0.5565  0.3213
47646SOL    HW149543   5.112   4.659   6.275 -0.8266  0.6490  0.8023
47646SOL    HW249544   5.213   4.556   6.323 -0.2550  1.1206  0.6190
47647SOL     OW49545   1.699   1.660   5.463 -0.0528 -0.2926 -0.9251
47647SOL    HW149546   1.748   1.642   5.384 -1.9277 -2.5924 -1.6850
47647SOL    HW249547   1.654   1.578   5.483  0.3365  0.1835  2.5542
47648SOL     OW49548   5.716   6.801   4.608  0.0304  0.4175  0.6258
47648SOL    HW149549   5.722   6.794   4.703 -0.5507  0.8321  0.6989
47648SOL    HW249550   5.623   6.816   4.591  0.0881  0.0901 -0.0250
47649SOL     OW49551   3.936   6.220   5.852  0.1047 -0.0883 -0.2325
47649SOL    HW149552   3.843   6.199   5.843  0.0752 -0.7968  1.3088
47649SOL    HW249553   3.953   6.285   5.784 -1.1189 -1.1462 -1.6152
47650SOL     OW49554   6.957   6.307   9.714  0.5977 -0.4745 -0.2605
47650SOL    HW149555   6.918   6.382   9.759  0.8605  0.4524 -1.5005
47650SOL    HW249556   6.883   6.259   9.678  0.4221 -0.8728  0.6273
47651SOL     OW49557   2.541   0.567   4.873 -0.3287  0.6563  0.4080
47651SOL    HW149558   2.546   0.472   4.880 -0.7567  0.6387  0.4926
47651SOL    HW249559   2.630   0.594   4.848 -1.0996 -0.1371 -3.9860
47652SOL     OW49560   8.404   0.072   1.004  0.5435  0.1117  0.2839
47652SOL    HW149561   8.372   0.162   1.012  1.0465  0.4820 -1.4770
47652SOL    HW249562   8.416   0.059   0.910  0.9351 -1.6441  0.5455
47653SOL     OW49563   6.579   9.387   0.817 -0.1434  0.1061 -0.2233
47653SOL    HW149564   6.567   9.455   0.883  1.0896 -0.2490  0.3990
47653SOL    HW249565   6.671   9.395   0.791 -0.1890 -0.8078 -0.7219
47654SOL     OW49566  12.277   4.919   0.841 -0.1730  0.1180  0.2818
47654SOL    HW149567  12.350   4.978   0.819 -0.4039 -0.0441 -0.9919
47654SOL    HW249568  12.277   4.916   0.937  1.8984 -0.3825  0.3104
47655SOL     OW49569   1.109   2.688   9.203  0.0396  0.3324  0.2230
47655SOL    HW149570   1.205   2.696   9.198 -0.0068  0.3768 -1.2121
47655SOL    HW249571   1.084   2.658   9.115 -1.3991  1.9931  0.0193
47656SOL     OW49572   5.851   4.242   0.094 -0.4500  0.1521  0.2068
47656SOL    HW149573   5.871   4.325   0.135  1.8327  0.9268 -2.1770
47656SOL    HW249574   5.903   4.178   0.142  0.6566  0.7210 -0.2031
47657SOL     OW49575   2.746   3.025   8.639 -0.3076 -0.1741  0.1066
47657SOL    HW149576   2.838   3.043   8.659  0.0004  1.0651 -2.0941
47657SOL    HW249577   2.705   3.111   8.636 -1.3532 -0.6541  0.1449
47658SOL     OW49578   7.730   0.642   5.975  0.4622 -0.2313  0.7172
47658SOL    HW149579   7.801   0.587   5.943  0.8748 -1.1292  2.9971
47658SOL    HW249580   7.669   0.581   6.016 -1.0100  0.6643 -0.0563
47659SOL     OW49581   3.326   2.659   5.261 -0.0482 -0.4581  0.0193
47659SOL    HW149582   3.373   2.727   5.310  1.8944 -0.2808 -1.9478
47659SOL    HW249583   3.349   2.578   5.305  0.2271 -0.1504  0.4549
47660SOL     OW49584   4.494   6.798   5.647 -0.5722 -0.0241 -0.4548
47660SOL    HW149585   4.446   6.809   5.730  2.9779 -2.9280  2.3634
47660SOL    HW249586   4.543   6.879   5.636 -0.5774  0.1556  0.7136
47661SOL     OW49587   3.288  12.299   6.545 -0.2506 -0.2181 -0.6311
47661SOL    HW149588   3.204  12.298   6.500  0.3707  1.6789 -1.9341
47661SOL    HW249589   3.293  12.213   6.588 -4.2279  0.6168  2.1529
47662SOL     OW49590   0.535   3.060  10.509  0.5539 -0.3668 -0.3383
47662SOL    HW149591   0.612   3.045  10.563 -1.5952  1.2973  3.6015
47662SOL    HW249592   0.474   2.990  10.533  0.1319 -0.6329 -2.0463
47663SOL     OW49593   3.415   5.911   6.686  0.4688  0.2673  0.5389
47663SOL    HW149594   3.464   5.872   6.613  0.4255  0.5907  0.3323
47663SOL    HW249595   3.325   5.918   6.654  0.3295 -0.1335  0.8422
47664SOL     OW49596   5.177   7.091   7.212 -0.0656  0.7460 -0.2961
47664SOL    HW149597   5.160   7.127   7.124  0.0030  0.0363 -0.6093
47664SOL    HW249598   5.210   7.003   7.195 -0.3129  0.5045  0.4593
47665SOL     OW49599   4.796   6.742  10.853  0.5557  0.7992  0.4858
47665SOL    HW149600   4.767   6.832  10.837 -1.7715 -0.1314 -0.9258
47665SOL    HW249601   4.815   6.741  10.947 -0.4712  2.4919  0.7703
47666SOL     OW49602  12.712   0.901  10.075  0.0488  0.8361 -0.0609
47666SOL    HW149603  12.729   0.862  10.161  0.0296 -0.6612 -0.7009
47666SOL    HW249604  12.741   0.991  10.084 -3.0837  1.7723  2.5452
47667SOL     OW49605   1.511   8.160   5.086  0.6236 -0.2293 -0.2282
47667SOL    HW149606   1.456   8.160   5.008  0.1024  0.5895  0.1246
47667SOL    HW249607   1.450   8.177   5.159  1.2754  0.3235  0.2058
47668SOL     OW49608   0.673   0.182   8.303  0.2227 -0.2624  0.2361
47668SOL    HW149609   0.671   0.113   8.370  2.2801 -0.5018  0.1287
47668SOL    HW249610   0.582   0.194   8.278 -0.5442 -0.6900  2.5454
47669SOL     OW49611   9.638  10.332   3.935 -0.1522  0.0666 -0.4426
47669SOL    HW149612   9.677  10.408   3.977  2.4091 -1.2581 -0.2270
47669SOL    HW249613   9.565  10.367   3.884  0.2841  2.4826  0.4872
47670SOL     OW49614   5.197   8.691   5.730 -0.5982  0.3060  0.2552
47670SOL    HW149615   5.258   8.747   5.778  0.4953  0.8274 -1.6312
47670SOL    HW249616   5.157   8.636   5.797  1.3988  0.4643  1.6634
47671SOL     OW49617  10.651   2.220   3.013  0.3149 -0.4381  0.7795
47671SOL    HW149618  10.582   2.198   2.951  0.1764  0.5622  0.5548
47671SOL    HW249619  10.721   2.159   2.994 -0.3554 -1.2179  0.7518
47672SOL     OW49620   2.219   0.595  12.742  0.0859  0.5394  0.2219
47672SOL    HW149621   2.306   0.595  12.703 -0.4753 -1.1970 -1.1701
47672SOL    HW249622   2.174   0.668  12.701  0.2426  0.1411 -0.6771
47673SOL     OW49623   8.039  11.280   4.159  0.3667  0.3015  0.2443
47673SOL    HW149624   7.949  11.309   4.175 -0.3168 -1.9179  0.7867
47673SOL    HW249625   8.093  11.354   4.185 -1.2449  1.1635  1.3240
47674SOL     OW49626   1.803   0.187   3.858  0.5426  0.5664  0.0599
47674SOL    HW149627   1.890   0.147   3.862 -0.5756 -2.2195 -0.9426
47674SOL    HW249628   1.774   0.171   3.769 -1.3285  0.6693  0.6189
47675SOL     OW49629   5.000  10.545  12.665 -0.3135  0.0036 -0.1786
47675SOL    HW149630   4.905  10.548  12.672 -0.6029 -0.4967 -2.8441
47675SOL    HW249631   5.017  10.547  12.571  2.3528  0.6670  0.2439
47676SOL     OW49632   2.256   8.080   8.792  0.3119  0.4830 -0.1286
47676SOL    HW149633   2.268   8.145   8.723  0.1594  0.4225 -0.2098
47676SOL    HW249634   2.174   8.036   8.771  0.2737  0.4517  0.0795
47677SOL     OW49635   9.734  10.508   0.298 -0.6668  0.5773 -0.3317
47677SOL    HW149636   9.696  10.423   0.323  0.0627  0.6910  1.3151
47677SOL    HW249637   9.827  10.489   0.283 -0.9450  0.6543 -2.4738
47678SOL     OW49638   5.011   9.983   6.646 -0.1822  0.0081  0.0575
47678SOL    HW149639   4.955  10.057   6.669 -0.3297  0.8804 -2.8360
47678SOL    HW249640   4.958   9.930   6.586  1.5131  0.0024 -1.4938
47679SOL     OW49641   7.912   9.030   6.917  0.1153 -0.5332  0.1790
47679SOL    HW149642   7.830   9.078   6.930  0.5319  0.3396 -0.2726
47679SOL    HW249643   7.885   8.939   6.906 -0.8587 -0.1875 -0.5140
47680SOL     OW49644  10.871   0.456   4.089  0.0945 -0.0760  0.5242
47680SOL    HW149645  10.803   0.399   4.053  0.2196 -0.1908  0.4718
47680SOL    HW249646  10.919   0.400   4.150  0.3783 -0.0947  0.2813
47681SOL     OW49647   5.668   6.788   7.768 -0.2873 -0.0647 -1.1531
47681SOL    HW149648   5.721   6.709   7.757 -1.0796 -0.5559 -1.5559
47681SOL    HW249649   5.726   6.850   7.812  0.5894 -0.6114 -1.5134
47682SOL     OW49650   8.809   6.122   8.737  0.2751 -0.1310  0.0897
47682SOL    HW149651   8.847   6.122   8.649  0.0277  0.2675 -0.0205
47682SOL    HW249652   8.727   6.074   8.727 -0.3471  0.9412 -0.1711
47683SOL     OW49653   5.916   8.973   4.044 -0.3672 -0.3974 -0.2000
47683SOL    HW149654   5.959   8.908   4.100  1.0452  0.1451 -0.6073
47683SOL    HW249655   5.863   8.921   3.984 -0.7381 -1.0617  0.6849
47684SOL     OW49656   3.652   0.163  11.314  0.4035  0.8853  0.3293
47684SOL    HW149657   3.584   0.139  11.251  0.2326  0.4073  0.6919
47684SOL    HW249658   3.605   0.176  11.397  0.5665  1.9349  0.2721
47685SOL     OW49659   8.409   9.635   3.780 -0.3919 -0.5395 -0.1059
47685SOL    HW149660   8.324   9.612   3.817 -1.0488 -0.5228 -1.5357
47685SOL    HW249661   8.387   9.680   3.698  0.9699  0.5796  0.1125
47686SOL     OW49662   9.070  12.744   7.586  1.0025 -0.3878  0.0738
47686SOL    HW149663   9.081  12.838   7.600 -0.3187 -0.1007 -0.6070
47686SOL    HW249664   9.148  12.704   7.624 -0.0203  0.6690  3.6500
47687SOL     OW49665   0.234  10.074  11.960  0.0299  0.4774 -0.0371
47687SOL    HW149666   0.292  10.006  11.994  1.7219  1.3465 -1.0170
47687SOL    HW249667   0.252  10.150  12.015 -0.0217  0.8076 -0.4724
47688SOL     OW49668   3.774   6.783   1.167 -0.3333 -0.3734 -0.4657
47688SOL    HW149669   3.721   6.753   1.241  0.3926 -0.3704  0.0702
47688SOL    HW249670   3.841   6.715   1.157 -0.6786 -0.5941 -1.4075
47689SOL     OW49671   8.230   7.722   9.480 -0.1699  0.5514 -0.3295
47689SOL    HW149672   8.185   7.724   9.565 -1.4135 -1.5800 -0.8463
47689SOL    HW249673   8.250   7.813   9.461 -1.6960  1.2933  1.3107
47690SOL     OW49674   5.359   6.420   4.229  0.8172 -0.0405  0.3309
47690SOL    HW149675   5.413   6.348   4.263 -0.9647 -1.9291 -0.5731
47690SOL    HW249676   5.308   6.380   4.159  0.6781  2.4776 -1.1190
47691SOL     OW49677   1.213   3.137  12.695  0.1323  0.1748 -0.4898
47691SOL    HW149678   1.216   3.228  12.667  0.1720  1.0099  1.9694
47691SOL    HW249679   1.130   3.104  12.661  0.4125  0.9091 -1.9545
47692SOL     OW49680   6.321   0.397   7.455  0.1356 -0.1726  0.0983
47692SOL    HW149681   6.273   0.478   7.472  0.1107  0.4796 -2.6372
47692SOL    HW249682   6.412   0.423   7.450  0.6768 -1.0848  3.2933
47693SOL     OW49683   1.902  12.773   9.528 -0.2530  0.2403 -0.2610
47693SOL    HW149684   1.844  12.834   9.482 -1.1452 -1.5428 -1.6330
47693SOL    HW249685   1.975  12.827   9.557 -0.5959  1.8347 -2.1397
47694SOL     OW49686  10.122   9.861   3.907 -0.7246  0.9303  0.4847
47694SOL    HW149687  10.167   9.781   3.933 -2.5433 -0.6337 -0.8976
47694SOL    HW249688  10.192   9.925   3.893  0.7104 -0.1244  2.4346
47695SOL     OW49689   7.683   5.019  12.262 -0.3044  0.0435  0.2387
47695SOL    HW149690   7.591   5.036  12.243  0.1694  2.8552 -0.0138
47695SOL    HW249691   7.728   5.030  12.178  0.4434  0.6100  0.6896
47696SOL     OW49692   5.388  10.139   3.147 -0.1604 -0.2865 -0.0138
47696SOL    HW149693   5.448  10.065   3.157 -1.0904 -1.0099  0.3690
47696SOL    HW249694   5.387  10.157   3.052 -0.3341 -1.1129 -0.1720
47697SOL     OW49695   4.799   9.364   8.157 -0.0974  0.1176 -0.5746
47697SOL    HW149696   4.863   9.297   8.181  0.0955  0.2310 -0.7679
47697SOL    HW249697   4.719   9.339   8.203 -0.3390 -0.8175 -1.4804
47698SOL     OW49698   3.806   0.556   1.697  0.6034 -0.1101 -0.5423
47698SOL    HW149699   3.750   0.482   1.721 -1.2864  1.3900 -0.0636
47698SOL    HW249700   3.833   0.537   1.607  0.0247 -1.2875 -0.4867
47699SOL     OW49701   5.482   2.292   1.049  0.2008 -0.0390 -0.1773
47699SOL    HW149702   5.498   2.202   1.078 -1.1589 -0.1884  0.2063
47699SOL    HW249703   5.486   2.288   0.954  1.3994 -0.2408 -0.1245
47700SOL     OW49704   0.366   4.563  11.710 -0.2871  0.2395  0.4514
47700SOL    HW149705   0.460   4.574  11.728 -0.3133  2.3192 -0.4543
47700SOL    HW249706   0.356   4.592  11.619 -1.7327 -0.4939  0.3598
47701SOL     OW49707   7.486   2.976  11.455 -0.0119  0.0460  0.0759
47701SOL    HW149708   7.540   2.906  11.417 -0.6886  0.2814 -1.3940
47701SOL    HW249709   7.457   2.940  11.539 -1.1957 -1.9038 -1.0924
47702SOL     OW49710  12.395   5.693   1.840 -0.2475 -0.1487 -0.6426
47702SOL    HW149711  12.299   5.692   1.843 -0.2205 -0.4260  0.6172
47702SOL    HW249712  12.421   5.621   1.897  0.7114 -0.9849 -2.0847
47703SOL     OW49713   4.650   8.395   0.343  0.1367  0.5906 -0.0336
47703SOL    HW149714   4.586   8.465   0.353 -2.4138 -1.8792  4.2585
47703SOL    HW249715   4.603   8.326   0.296  0.6106 -0.1641  0.5594
47704SOL     OW49716  10.018  10.206  12.067 -0.1413 -0.0777 -0.2533
47704SOL    HW149717   9.952  10.275  12.070  1.2601  1.3059  0.2141
47704SOL    HW249718   9.969  10.125  12.082 -1.8589  0.7771 -1.0300
47705SOL     OW49719   4.849   0.397  12.696  0.2939 -0.1051  0.5495
47705SOL    HW149720   4.907   0.428  12.766  0.2557  0.7948  0.1884
47705SOL    HW249721   4.899   0.328  12.652  0.8417  0.2332  0.6360
47706SOL     OW49722  10.997   1.592   9.604 -0.1211 -0.3381  0.6234
47706SOL    HW149723  10.958   1.680   9.610 -0.4731 -0.4124 -0.4373
47706SOL    HW249724  10.977   1.563   9.515  1.8272 -0.6314  0.2405
47707SOL     OW49725   5.273   9.077   2.500 -0.2165 -0.1835 -0.4821
47707SOL    HW149726   5.244   9.161   2.536  0.0684 -0.1476 -0.3428
47707SOL    HW249727   5.291   9.023   2.576 -1.0811 -0.6131 -0.5642
47708SOL     OW49728   7.439   0.664   3.637 -0.2136  0.1627 -0.5760
47708SOL    HW149729   7.521   0.615   3.639 -0.2476  0.0986 -0.7711
47708SOL    HW249730   7.446   0.726   3.710  1.5660  2.7221 -2.7300
47709SOL     OW49731   1.705  12.526   7.940 -0.3180 -0.5300  0.0509
47709SOL    HW149732   1.670  12.615   7.933 -0.5039 -0.6098 -0.0448
47709SOL    HW249733   1.715  12.498   7.849  0.3193 -0.3808  0.0677
47710SOL     OW49734  11.944  10.591   6.820  0.2308 -0.0583 -0.8638
47710SOL    HW149735  11.973  10.501   6.812  1.3143  0.1150  0.6546
47710SOL    HW249736  12.018  10.644   6.788 -0.5394  0.3158 -2.1107
47711SOL     OW49737   8.883  12.212   1.321  0.3994 -0.1835 -0.7067
47711SOL    HW149738   8.854  12.125   1.348  0.2210 -0.0529 -0.4696
47711SOL    HW249739   8.948  12.236   1.387  0.0145  0.1100 -0.4332
47712SOL     OW49740   5.426   2.115   2.332  0.2334  0.0807  0.2302
47712SOL    HW149741   5.502   2.070   2.295 -0.9736 -1.8320 -0.0959
47712SOL    HW249742   5.410   2.189   2.273 -0.1338 -1.4402 -1.6792
47713SOL     OW49743   8.256  12.624   1.029 -0.5122 -0.0346 -0.1176
47713SOL    HW149744   8.270  12.614   1.123  1.3954  0.1013 -0.3397
47713SOL    HW249745   8.278  12.716   1.012 -0.0505 -0.2588 -0.7907
47714SOL     OW49746  10.622   9.184   4.246  0.1053  0.8315 -0.0289
47714SOL    HW149747  10.565   9.123   4.293 -0.0194  1.3553  0.5096
47714SOL    HW249748  10.572   9.209   4.168 -1.1795  2.6449  1.3045
47715SOL     OW49749   6.841   8.306  11.172 -0.2937 -0.4398  0.2085
47715SOL    HW149750   6.773   8.239  11.177  0.0577 -0.7950  0.2853
47715SOL    HW249751   6.902   8.273  11.105 -0.2695 -0.0594  0.0434
47716SOL     OW49752   6.816   9.908   2.504  0.1204 -0.4865 -0.0845
47716SOL    HW149753   6.877   9.978   2.480  0.6573 -1.0785 -0.5119
47716SOL    HW249754   6.817   9.906   2.599  0.9410 -0.6129 -0.0834
47717SOL     OW49755   7.282  10.011   1.733  0.6322  0.0128  0.3809
47717SOL    HW149756   7.265   9.952   1.807  0.8517 -0.8037 -0.2084
47717SOL    HW249757   7.245   9.966   1.657 -0.5142  1.3205  0.1249
47718SOL     OW49758   1.505   1.827   0.974  0.4515 -0.0521 -0.1881
47718SOL    HW149759   1.592   1.793   0.951  0.3553 -0.8050  0.5044
47718SOL    HW249760   1.496   1.906   0.922  0.8530 -0.8782 -1.5796
47719SOL     OW49761   9.140   9.477   1.081  0.5108  0.1012 -0.0891
47719SOL    HW149762   9.106   9.447   1.165 -1.1734 -0.5380 -0.9481
47719SOL    HW249763   9.160   9.396   1.033 -1.4969  0.2980 -1.4133
47720SOL     OW49764   7.517  11.118  11.754 -0.2666  0.0858  0.0909
47720SOL    HW149765   7.575  11.042  11.743 -0.6495 -0.3058  0.7056
47720SOL    HW249766   7.471  11.101  11.836 -1.2067  0.4241 -0.3536
47721SOL     OW49767   9.094   6.880  12.587  0.6679 -0.3888  0.4267
47721SOL    HW149768   9.043   6.894  12.507 -0.8648 -0.6771  1.3164
47721SOL    HW249769   9.185   6.882  12.558  0.1446 -0.6040 -1.3388
47722SOL     OW49770   2.174   5.782   2.175  0.0178 -0.0624 -0.1955
47722SOL    HW149771   2.091   5.749   2.207  0.4923 -1.0678  0.0252
47722SOL    HW249772   2.154   5.869   2.141 -1.1687 -0.4018 -0.3894
47723SOL     OW49773   8.748  12.307  10.458  0.0185  0.1174 -0.1127
47723SOL    HW149774   8.700  12.239  10.506  0.0772 -1.1174 -1.7242
47723SOL    HW249775   8.757  12.379  10.521  1.0407 -1.8153  2.1333
47724SOL     OW49776   4.953   9.718  10.204 -0.1046 -0.1265 -0.2734
47724SOL    HW149777   4.990   9.784  10.264 -0.7422 -1.2705  1.4608
47724SOL    HW249778   5.026   9.696  10.146  0.8648  0.3192  0.7122
47725SOL     OW49779   6.365  11.926   0.565  0.3258 -0.5303  0.1960
47725SOL    HW149780   6.321  11.982   0.502 -1.1621 -1.6475  0.1922
47725SOL    HW249781   6.307  11.851   0.576  2.3744 -2.2558 -0.0298
47726SOL     OW49782  12.526   5.163  11.805 -0.2969  0.0237 -0.1536
47726SOL    HW149783  12.552   5.111  11.882 -0.8456  0.9865  0.7043
47726SOL    HW249784  12.443   5.203  11.830 -0.0704  1.0139 -0.9332
47727SOL     OW49785   7.186   2.246  10.817 -0.5080  0.3792  0.2805
47727SOL    HW149786   7.262   2.198  10.784 -1.4435 -0.2652 -1.0399
47727SOL    HW249787   7.181   2.223  10.909  0.2994 -0.4078  0.1391
47728SOL     OW49788   5.097   8.436  11.196  0.3229  0.2326 -0.2128
47728SOL    HW149789   5.036   8.502  11.164  1.3340  0.7352 -1.1757
47728SOL    HW249790   5.079   8.358  11.144  1.0290  0.6317 -1.0895
47729SOL     OW49791   3.539   8.748  10.805 -0.2122  0.3654  0.0711
47729SOL    HW149792   3.500   8.833  10.823 -0.9843  0.0636 -0.1470
47729SOL    HW249793   3.575   8.719  10.889 -0.2733  0.7373  0.2273
47730SOL     OW49794   1.587   5.880  12.606 -1.0172  0.0274 -0.1047
47730SOL    HW149795   1.566   5.948  12.543  3.1210 -0.0567 -1.8947
47730SOL    HW249796   1.634   5.925  12.676 -0.9993 -0.5729  0.2784
47731SOL     OW49797   7.679  10.599   7.033  0.7060  0.3598 -0.0271
47731SOL    HW149798   7.698  10.515   7.076  1.0297  1.6319  2.4579
47731SOL    HW249799   7.766  10.635   7.012  0.6538  0.9339  0.7073
47732SOL     OW49800  10.150   6.019   4.486  0.0085  0.4352  0.1061
47732SOL    HW149801  10.163   5.976   4.570  0.2331  1.7010  0.7428
47732SOL    HW249802  10.059   6.047   4.487  0.1291  0.8230  0.1035
47733SOL     OW49803   8.424   6.337  10.591  0.1814 -0.1840 -0.1660
47733SOL    HW149804   8.336   6.351  10.555 -0.1862  0.2001  0.8423
47733SOL    HW249805   8.408   6.305  10.680  1.0666  0.0103  0.0699
47734SOL     OW49806   2.866   8.197   7.576 -0.2609  0.4078 -0.0431
47734SOL    HW149807   2.936   8.257   7.603 -0.7044  0.7128  0.4639
47734SOL    HW249808   2.871   8.196   7.481  1.8472 -1.2994  0.0284
47735SOL     OW49809   3.303   3.974   8.477  0.0459 -0.4730 -0.2770
47735SOL    HW149810   3.248   3.964   8.399  0.0990  3.5914 -1.0588
47735SOL    HW249811   3.392   3.979   8.442  0.8793 -4.4610  0.7614
47736SOL     OW49812   6.335  12.751   3.105 -0.3264  0.2902  0.0236
47736SOL    HW149813   6.334  12.760   3.009  1.5817 -1.7776 -0.2656
47736SOL    HW249814   6.413  12.798   3.133  0.3312 -0.9342  0.2987
47737SOL     OW49815  10.955   5.151  10.214  0.1753 -0.3338  0.2602
47737SOL    HW149816  10.866   5.147  10.180  0.5008 -1.5152 -0.5433
47737SOL    HW249817  11.010   5.149  10.135  0.9187  1.1791  0.7029
47738SOL     OW49818   2.702  10.403  10.981 -0.4959 -0.0159  0.0761
47738SOL    HW149819   2.748  10.486  10.988 -0.5939  0.1067 -0.7313
47738SOL    HW249820   2.665  10.389  11.069  0.2359  0.3603  0.4583
47739SOL     OW49821   7.368   2.934  11.694 -0.1488  0.5992 -0.4661
47739SOL    HW149822   7.370   2.949  11.789 -0.5094  1.1826 -0.5455
47739SOL    HW249823   7.313   3.004  11.660 -0.3316  0.1699 -1.0694
47740SOL     OW49824   1.771   9.430   1.138  0.0048 -0.0125 -0.2531
47740SOL    HW149825   1.854   9.461   1.102  0.7121  0.3839  1.6055
47740SOL    HW249826   1.727   9.510   1.169 -0.6313 -0.3198 -0.3445
47741SOL     OW49827  11.921   7.062   9.232  0.2012 -0.3640 -0.3396
47741SOL    HW149828  11.836   7.049   9.274  0.8680  0.0566  1.2367
47741SOL    HW249829  11.918   7.150   9.197  0.1641 -0.1454  0.2035
47742SOL     OW49830   7.809   9.708   3.620 -0.3179 -0.2792  0.5279
47742SOL    HW149831   7.757   9.775   3.575 -0.7269 -0.9288  0.0117
47742SOL    HW249832   7.895   9.748   3.632 -0.2054 -0.0659 -0.8115
47743SOL     OW49833   6.842   3.451   3.848  0.5230 -0.2408  0.1869
47743SOL    HW149834   6.874   3.453   3.758 -0.4545 -0.4342 -0.1847
47743SOL    HW249835   6.855   3.540   3.880  1.0608 -0.2201 -0.0750
47744SOL     OW49836   3.991   3.014   5.378 -0.5945 -0.2469 -0.6636
47744SOL    HW149837   3.995   3.050   5.467  0.2116  0.6541 -1.0475
47744SOL    HW249838   3.925   2.945   5.383  0.8743 -1.6297  1.1603
47745SOL     OW49839  11.930   7.742   8.111  0.1972  0.1257  0.7946
47745SOL    HW149840  11.850   7.707   8.071 -0.2853  1.8845  0.1558
47745SOL    HW249841  11.952   7.819   8.060  2.0145  0.0017  1.3151
47746SOL     OW49842   0.289   9.465   5.302  0.2250  0.1774 -0.4698
47746SOL    HW149843   0.383   9.454   5.288  0.3572 -1.4294  1.1879
47746SOL    HW249844   0.253   9.377   5.288 -0.9020  0.5900 -0.2393
47747SOL     OW49845  11.347   9.391  10.803  0.5156 -0.7671 -0.2382
47747SOL    HW149846  11.399   9.469  10.783  1.0864 -1.1167 -0.1426
47747SOL    HW249847  11.278   9.423  10.861  2.1208 -0.7022  1.7694
47748SOL     OW49848   8.819  10.365   9.925  0.1640 -0.1208  0.1076
47748SOL    HW149849   8.733  10.322   9.922 -0.3299  0.8812 -1.1394
47748SOL    HW249850   8.881  10.296   9.902 -0.4761 -0.4997 -0.5527
47749SOL     OW49851  11.689  12.331   2.159  0.0882  0.0367  0.1772
47749SOL    HW149852  11.681  12.342   2.064  1.0420 -1.3521 -0.0966
47749SOL    HW249853  11.779  12.357   2.178  0.5596 -1.6495  0.3627
47750SOL     OW49854   4.331   7.076   9.780  0.2513  0.7046  0.1628
47750SOL    HW149855   4.357   7.020   9.708 -0.6378 -0.5406  0.7651
47750SOL    HW249856   4.255   7.125   9.747 -0.2088  0.0716  0.2702
47751SOL     OW49857   6.189   5.374   5.555 -0.0143  0.1951 -0.2269
47751SOL    HW149858   6.156   5.300   5.505  0.3589 -1.5003  1.8793
47751SOL    HW249859   6.255   5.414   5.498  0.0459 -1.3274 -1.2793
47752SOL     OW49860   8.542   0.330   5.253 -0.2573  0.4468 -0.1694
47752SOL    HW149861   8.580   0.258   5.304 -1.6431  0.6833  1.2960
47752SOL    HW249862   8.551   0.406   5.311 -0.7956  0.9828 -0.7856
47753SOL     OW49863   3.332   1.387   0.858 -0.0871 -1.0251  0.0376
47753SOL    HW149864   3.383   1.343   0.790  2.1970 -0.2298  1.1033
47753SOL    HW249865   3.333   1.479   0.832  1.0578 -0.6720  1.2320
47754SOL     OW49866   1.742   6.425   3.367 -0.1465  0.6379 -0.3283
47754SOL    HW149867   1.708   6.433   3.278 -0.0064 -1.6888 -0.6593
47754SOL    HW249868   1.664   6.421   3.422 -0.2962  0.0604 -0.5751
47755SOL     OW49869  10.204   0.176   5.147  0.1424  0.2257  0.6083
47755SOL    HW149870  10.251   0.259   5.134 -0.2126  0.1776 -1.1113
47755SOL    HW249871  10.235   0.120   5.077 -0.8537 -0.5554  0.7760
47756SOL     OW49872   6.702  10.703   3.722  0.0049  0.0620 -0.3710
47756SOL    HW149873   6.693  10.653   3.641 -1.1183 -0.0403 -0.1931
47756SOL    HW249874   6.628  10.764   3.722  0.8116  1.0849 -0.1172
47757SOL     OW49875   2.277   4.088   5.718  0.4704 -0.4343  0.1113
47757SOL    HW149876   2.348   4.128   5.669 -0.0980 -0.7619 -1.0181
47757SOL    HW249877   2.299   3.995   5.721  0.2298 -0.4941  0.0118
47758SOL     OW49878  11.592  10.588  11.608 -0.2734 -0.1011  0.7802
47758SOL    HW149879  11.509  10.546  11.632 -0.4301 -0.1379  0.1862
47758SOL    HW249880  11.642  10.519  11.563 -1.7074  1.0063 -2.9301
47759SOL     OW49881   5.372   4.891  12.371  0.1464  0.3839  0.4144
47759SOL    HW149882   5.393   4.854  12.285 -0.4887 -1.2555  0.9310
47759SOL    HW249883   5.334   4.976  12.351  0.2960  0.1627 -0.9163
47760SOL     OW49884   5.721  10.212   3.911  0.1874 -0.0059 -0.0577
47760SOL    HW149885   5.767  10.228   3.994  2.8187  1.0946 -1.6113
47760SOL    HW249886   5.713  10.116   3.907  0.3185 -0.1001  1.2910
47761SOL     OW49887   8.933  11.302   2.890  0.7521 -0.0761 -0.4158
47761SOL    HW149888   8.945  11.391   2.857 -0.9815  0.4184  0.1545
47761SOL    HW249889   8.874  11.261   2.826  1.4943 -0.8021 -0.6437
47762SOL     OW49890   3.794   3.257   8.804 -0.1827 -0.4625  0.5557
47762SOL    HW149891   3.812   3.319   8.875 -0.3822 -0.0691  0.2668
47762SOL    HW249892   3.880   3.240   8.764 -0.2276  0.1968  0.1718
47763SOL     OW49893   1.179   3.883  11.073  0.2136  0.6132  0.1769
47763SOL    HW149894   1.122   3.946  11.118  0.1789  0.4853  0.3134
47763SOL    HW249895   1.242   3.937  11.026 -0.8542  0.8068 -1.1006
47764SOL     OW49896  10.001  10.908   8.834  0.2152 -0.6970  0.0664
47764SOL    HW149897   9.940  10.915   8.907 -1.3519  0.6630 -1.2988
47764SOL    HW249898  10.039  10.820   8.843 -1.4333 -1.3293  1.3283
47765SOL     OW49899  11.816  10.192   6.555 -0.4581 -0.8089  0.1693
47765SOL    HW149900  11.830  10.150   6.640  0.7841 -0.9321 -0.0854
47765SOL    HW249901  11.774  10.124   6.502  1.2646 -1.6837 -0.1482
47766SOL     OW49902   4.272   9.901   3.256  0.0882 -0.1355  0.1995
47766SOL    HW149903   4.328   9.834   3.295 -1.6483 -2.0819 -0.4853
47766SOL    HW249904   4.292   9.897   3.162  0.6594  1.0298  0.2489
47767SOL     OW49905  11.405   7.508   8.724 -0.4268  0.1771  0.2951
47767SOL    HW149906  11.346   7.575   8.760 -0.9005 -1.2503  2.3425
47767SOL    HW249907  11.468   7.493   8.794  0.5845 -0.4824 -0.7251
47768SOL     OW49908   3.926   9.411   4.367 -0.4232 -0.1565  0.3760
47768SOL    HW149909   3.948   9.318   4.368 -1.6131 -0.4572  1.3328
47768SOL    HW249910   3.884   9.425   4.283 -1.6982 -0.8787  0.8579
47769SOL     OW49911   9.146   7.213  11.812 -0.2321 -0.1456 -0.6743
47769SOL    HW149912   9.116   7.199  11.722  1.4995 -0.9115 -1.1702
47769SOL    HW249913   9.152   7.124  11.849  0.2049  0.0818 -0.1858
47770SOL     OW49914   7.828   1.908   5.732 -0.9989  0.4677 -0.3590
47770SOL    HW149915   7.778   1.838   5.775  0.4592  0.1747  0.9484
47770SOL    HW249916   7.795   1.989   5.773 -0.3140  0.2607  0.6419
47771SOL     OW49917  12.372   5.527   3.310 -0.1547  0.3911 -0.1570
47771SOL    HW149918  12.322   5.521   3.228  0.4159 -0.5508 -0.4476
47771SOL    HW249919  12.444   5.586   3.290 -1.1560  1.8383  0.2922
47772SOL     OW49920   5.254   6.626   1.340  0.1032  0.3440 -0.5417
47772SOL    HW149921   5.186   6.653   1.279 -0.2171  0.1242 -0.2905
47772SOL    HW249922   5.262   6.699   1.401  1.3095  1.0946 -1.5663
47773SOL     OW49923   9.764   9.003   3.910 -0.5185  0.1662 -0.9385
47773SOL    HW149924   9.785   9.087   3.870  0.3806  0.5648  0.3220
47773SOL    HW249925   9.819   8.940   3.864  1.6830  0.8371  0.6145
47774SOL     OW49926   0.275  11.138   0.769  0.7844 -0.1471 -0.2685
47774SOL    HW149927   0.265  11.099   0.855 -2.0626  0.3856 -0.2509
47774SOL    HW249928   0.369  11.154   0.760  1.3192 -1.5664  2.0905
47775SOL     OW49929   6.781   2.914   3.542 -0.2403 -0.3990  0.3164
47775SOL    HW149930   6.766   3.005   3.516  0.5054 -0.9819 -2.4946
47775SOL    HW249931   6.700   2.869   3.519  0.6734 -1.0549 -1.8430
47776SOL     OW49932   8.761  11.177   7.869 -0.2870 -0.2926  1.0937
47776SOL    HW149933   8.682  11.177   7.924 -0.5791 -0.2828  0.6785
47776SOL    HW249934   8.818  11.111   7.908  1.0434  2.1435  3.5895
47777SOL     OW49935   8.577   6.775   0.392  0.0694 -0.3873  0.0405
47777SOL    HW149936   8.596   6.754   0.484  0.9544 -0.3577 -0.1302
47777SOL    HW249937   8.536   6.696   0.358  1.3858 -1.0749 -0.0080
47778SOL     OW49938   8.311  11.254   9.592  0.2577  0.2382 -0.4784
47778SOL    HW149939   8.292  11.235   9.500  1.2378 -2.1066 -0.2628
47778SOL    HW249940   8.405  11.270   9.594  0.2644  0.1462  0.1454
47779SOL     OW49941  12.421  11.218   1.767 -0.2123  0.1661 -0.0590
47779SOL    HW149942  12.467  11.142   1.731  0.2391  0.5996 -0.4173
47779SOL    HW249943  12.451  11.292   1.714 -1.2228  0.4884 -0.2007
47780SOL     OW49944   5.718   9.574   3.556 -0.0760 -0.0840 -0.1309
47780SOL    HW149945   5.648   9.536   3.502  1.4935 -1.5167 -1.2463
47780SOL    HW249946   5.713   9.526   3.638 -0.0312 -0.5771 -0.4156
47781SOL     OW49947   8.134   0.752  12.674 -0.2954  0.7997 -0.2152
47781SOL    HW149948   8.172   0.832  12.708 -0.1826  1.4038 -1.6666
47781SOL    HW249949   8.204   0.687  12.681  0.0142  1.1387 -0.1376
47782SOL     OW49950   3.186   2.581  12.056  0.5525  0.2374  0.6279
47782SOL    HW149951   3.152   2.575  11.967 -0.9571 -1.4306  1.2629
47782SOL    HW249952   3.248   2.508  12.063  0.8524  0.5124  0.8621
47783SOL     OW49953   8.086   6.567   0.604  0.1952 -0.2709 -0.7609
47783SOL    HW149954   8.031   6.540   0.677  0.0352  0.1935 -0.7008
47783SOL    HW249955   8.157   6.504   0.602  0.0080 -0.4959 -0.4270
47784SOL     OW49956   7.382   9.348   8.097  0.4268  0.1995 -0.0880
47784SOL    HW149957   7.434   9.375   8.022 -1.4747  2.4103 -0.7362
47784SOL    HW249958   7.438   9.366   8.173  2.2259 -1.7267 -0.8597
47785SOL     OW49959  10.688   5.915   2.827  0.0318 -0.3562 -0.4641
47785SOL    HW149960  10.750   5.955   2.767  0.7288 -2.2030 -1.0419
47785SOL    HW249961  10.611   5.972   2.824  0.7569  0.5995 -1.6565
47786SOL     OW49962   7.118   4.436   0.738 -0.1520  0.2220 -0.0930
47786SOL    HW149963   7.034   4.408   0.776  0.0600 -0.6013 -0.2125
47786SOL    HW249964   7.151   4.502   0.798 -1.0811  0.8517 -0.2585
47787SOL     OW49965   9.264  10.610  10.369  0.2540  0.2322  0.4661
47787SOL    HW149966   9.171  10.627  10.384  0.2258  0.3456  0.1817
47787SOL    HW249967   9.274  10.615  10.273  0.5070 -0.0053  0.4789
47788SOL     OW49968   1.549   4.025   6.208 -0.1184  0.2001  0.1036
47788SOL    HW149969   1.540   3.958   6.140 -0.0964  0.4091 -0.1069
47788SOL    HW249970   1.469   4.017   6.260  0.9510 -1.6548  1.5969
47789SOL     OW49971   3.372  11.087   1.679  0.8223 -0.0597 -0.5236
47789SOL    HW149972   3.300  11.138   1.643  1.9725  0.1978 -2.6143
47789SOL    HW249973   3.451  11.123   1.637  1.6984 -3.5445 -2.2598
47790SOL     OW49974   5.271   9.145   2.806 -0.3527 -0.6225 -0.1268
47790SOL    HW149975   5.293   9.221   2.753 -0.6579 -1.0835 -0.9320
47790SOL    HW249976   5.257   9.180   2.894 -2.9009  0.6609 -0.9466
47791SOL     OW49977  10.834   1.439  11.258 -0.6443  0.4424 -0.0424
47791SOL    HW149978  10.826   1.404  11.169 -0.5247  1.4310 -0.4504
47791SOL    HW249979  10.785   1.521  11.256 -0.2117  0.7262  0.6629
47792SOL     OW49980   2.304   1.465   6.387  1.0657 -0.2222  0.3491
47792SOL    HW149981   2.215   1.473   6.423  0.3351  0.0686 -1.3998
47792SOL    HW249982   2.314   1.371   6.371  0.9306 -0.2140  0.2123
47793SOL     OW49983   4.646   5.682  11.480 -0.2133 -0.4099 -0.0059
47793SOL    HW149984   4.616   5.673  11.570 -0.2575  0.6809  0.1088
47793SOL    HW249985   4.729   5.729  11.487 -1.2529  1.6442 -0.6176
47794SOL     OW49986  11.222  10.141   1.992 -0.3682 -0.3807  0.1196
47794SOL    HW149987  11.179  10.155   1.908 -0.3079  0.1788  0.1820
47794SOL    HW249988  11.181  10.203   2.051 -0.0478 -0.4135  0.3814
47795SOL     OW49989   9.811   4.438   0.726  0.1728 -0.2124  0.4947
47795SOL    HW149990   9.865   4.515   0.744  0.5854 -0.6489  1.1597
47795SOL    HW249991   9.796   4.441   0.632  4.0286 -1.7779 -0.3390
47796SOL     OW49992   3.551   9.568   9.222  0.6684 -0.5977  0.2865
47796SOL    HW149993   3.476   9.516   9.195  0.4658 -0.6802  0.9914
47796SOL    HW249994   3.546   9.570   9.318  0.9361  0.3248  0.2922
47797SOL     OW49995   4.410   1.109   6.150  0.1828  0.2884  0.4798
47797SOL    HW149996   4.363   1.090   6.232 -0.1621  1.0732  0.4701
47797SOL    HW249997   4.346   1.092   6.081  0.6741 -1.0114  0.3219
47798SOL     OW49998   9.110   0.851   2.774 -0.0963 -0.8167  0.3896
47798SOL    HW149999   9.060   0.770   2.760 -1.5502  0.1694 -0.2954
47798SOL    HW250000   9.079   0.910   2.706  0.3494  0.5952  1.3839
47799SOL     OW50001   3.525   2.608   2.598  0.2082 -0.0033  0.0885
47799SOL    HW150002   3.586   2.576   2.664 -0.2392  0.0722  0.5469
47799SOL    HW250003   3.455   2.650   2.648  1.2599  2.6165 -0.5120
47800SOL     OW50004   6.447  12.010   4.754 -0.0625  0.5133  0.5668
47800SOL    HW150005   6.359  11.986   4.784 -0.2442  1.6644  1.0149
47800SOL    HW250006   6.445  11.997   4.660 -0.7822  0.7130  0.5487
47801SOL     OW50007   7.995   4.821   8.710 -0.3736  0.3456 -0.6342
47801SOL    HW150008   7.967   4.805   8.620 -0.8548 -1.4951 -0.2168
47801SOL    HW250009   8.067   4.883   8.703  2.5626 -2.8875 -2.7673
47802SOL     OW50010   5.755   1.967   8.246  0.2574 -0.4328  0.2048
47802SOL    HW150011   5.732   1.912   8.171  1.0957  0.7964 -0.9929
47802SOL    HW250012   5.850   1.971   8.244  0.2188  1.3860 -0.0136
47803SOL     OW50013  12.012   8.763   7.495 -0.0834  0.1655 -0.7245
47803SOL    HW150014  12.052   8.684   7.457 -2.2840 -1.0707 -0.5860
47803SOL    HW250015  11.918   8.747   7.489 -0.5437  1.8202  1.3690
47804SOL     OW50016   3.980   8.508   0.966 -0.3250  0.2589 -0.4331
47804SOL    HW150017   4.002   8.461   1.047 -0.0856  0.9180 -0.1006
47804SOL    HW250018   4.065   8.531   0.929 -0.4376  0.8390 -0.3383
47805SOL     OW50019   2.697   6.890   2.080  0.3662 -0.5533 -0.2050
47805SOL    HW150020   2.716   6.876   1.987  0.5105 -0.1666 -0.2358
47805SOL    HW250021   2.602   6.899   2.084  0.3611 -0.5570 -0.3147
47806SOL     OW50022   4.035   2.065   7.999 -0.2325  0.0556  0.3618
47806SOL    HW150023   4.032   2.107   8.085 -0.7411 -0.6943  0.7183
47806SOL    HW250024   3.962   2.003   8.000 -0.2130  0.0048 -0.5969
47807SOL     OW50025  12.528   9.757   6.638 -0.1376  0.4198  0.2937
47807SOL    HW150026  12.586   9.730   6.567 -0.2754  2.2155 -0.5401
47807SOL    HW250027  12.572   9.834   6.677 -1.0257  0.6415  0.8836
47808SOL     OW50028  12.489   6.949  10.029  0.1967 -0.4537  0.4285
47808SOL    HW150029  12.517   6.992   9.947 -1.5161 -1.6852 -0.8568
47808SOL    HW250030  12.472   7.022  10.089 -1.4719  0.6855 -1.3073
47809SOL     OW50031   2.759   7.446  12.530 -0.0634  0.7321  0.7533
47809SOL    HW150032   2.700   7.510  12.570 -1.2724 -0.5739  1.1202
47809SOL    HW250033   2.726   7.361  12.557  0.5894 -0.1340 -0.9713
47810SOL     OW50034   7.787   1.236   0.013  0.0356  0.3771  0.3335
47810SOL    HW150035   7.808   1.329   0.009  1.9829 -0.0607 -1.1178
47810SOL    HW250036   7.751   1.216  -0.073 -1.2148 -0.0696  0.9327
47811SOL     OW50037  11.282  11.437   3.405  0.8303  0.1691 -0.1453
47811SOL    HW150038  11.324  11.372   3.348  0.1710  0.9987 -1.6424
47811SOL    HW250039  11.203  11.394   3.436  0.8797 -0.0803 -0.3616
47812SOL     OW50040   9.713   7.558   0.824  0.1363 -0.0591 -0.3582
47812SOL    HW150041   9.771   7.622   0.782  1.1302  0.0568  1.1043
47812SOL    HW250042   9.675   7.509   0.752  0.2788  1.3906 -1.4679
47813SOL     OW50043   2.533   6.348   8.997 -0.2129 -0.4534 -0.1649
47813SOL    HW150044   2.576   6.416   8.944 -1.1483  0.8239  0.6327
47813SOL    HW250045   2.507   6.281   8.933 -0.0249  0.3501 -1.1219
47814SOL     OW50046   4.412   7.261  11.966 -0.5064 -0.6453  0.4205
47814SOL    HW150047   4.483   7.200  11.985 -0.7927 -0.8978  0.6934
47814SOL    HW250048   4.455   7.346  11.954 -0.3164 -0.4151  2.4163
47815SOL     OW50049   1.127   5.719   1.928 -0.6664  0.2845  0.4085
47815SOL    HW150050   1.079   5.793   1.966 -1.4025 -0.5066  1.0444
47815SOL    HW250051   1.060   5.659   1.898 -0.1426  1.1861 -2.9125
47816SOL     OW50052   4.832   9.015  10.048 -0.1117  0.4564 -0.1723
47816SOL    HW150053   4.788   9.023   9.963  1.0410 -1.2898 -1.0058
47816SOL    HW250054   4.903   8.953  10.032  0.3682  0.3650  1.9972
47817SOL     OW50055  11.768   8.752   7.374 -0.4769  0.4891 -0.3605
47817SOL    HW150056  11.744   8.845   7.379 -0.9425  0.3451  0.2018
47817SOL    HW250057  11.702   8.713   7.317 -0.5599  0.4127 -0.2113
47818SOL     OW50058   4.739   9.371   5.839  0.1318  0.6064 -0.6414
47818SOL    HW150059   4.806   9.367   5.907 -0.9508  2.1228  0.5869
47818SOL    HW250060   4.666   9.320   5.874  0.6008 -1.0597 -1.9790
47819SOL     OW50061   5.319   9.017   0.501 -0.0763  0.9229  0.3281
47819SOL    HW150062   5.292   9.076   0.431  0.2958  1.7327  0.8513
47819SOL    HW250063   5.281   8.932   0.477 -2.7308  1.8908  0.8160
47820SOL     OW50064   8.589   8.695   7.532 -0.2898  0.1655  0.1939
47820SOL    HW150065   8.625   8.607   7.520 -1.0452 -0.0312 -0.7159
47820SOL    HW250066   8.565   8.724   7.444  1.3956  1.9406  0.2511
47821SOL     OW50067   9.114  10.456   3.735 -0.0950  0.1812 -0.3879
47821SOL    HW150068   9.164  10.514   3.792 -1.8359  2.1210 -0.7274
47821SOL    HW250069   9.028  10.448   3.777 -0.1804 -1.5020 -0.7958
47822SOL     OW50070   7.565   8.079   6.129 -0.0916 -0.5620 -0.7879
47822SOL    HW150071   7.615   8.005   6.162  2.8536  1.6199  0.0573
47822SOL    HW250072   7.540   8.128   6.207  3.6772  2.6468 -1.3008
47823SOL     OW50073   1.440  10.569   5.290  0.5510 -0.2103 -0.0565
47823SOL    HW150074   1.421  10.660   5.313  0.7578  0.1610 -1.2751
47823SOL    HW250075   1.359  10.537   5.252  1.2427  0.3090 -2.0766
47824SOL     OW50076   9.151   1.184   4.850  0.2970  0.5842 -0.3452
47824SOL    HW150077   9.246   1.200   4.850  0.7598 -1.3381 -2.7485
47824SOL    HW250078   9.114   1.260   4.806  1.2652 -0.3396 -2.9504
47825SOL     OW50079   0.911   3.870  12.726  0.1022  0.4595  0.0315
47825SOL    HW150080   0.854   3.939  12.691  0.3109  1.9893  2.4644
47825SOL    HW250081   0.894   3.871  12.820  2.0209 -1.0930  0.4533
47826SOL     OW50082   0.479   7.419   0.014 -0.1306 -0.4143  0.3567
47826SOL    HW150083   0.423   7.497   0.019 -1.0419 -0.9501 -0.9423
47826SOL    HW250084   0.532   7.432  -0.064  1.0876 -0.2502  1.1825
47827SOL     OW50085  12.669   8.904   2.494  0.2184 -0.4856  0.1652
47827SOL    HW150086  12.749   8.881   2.539  1.8059  0.5107 -1.9714
47827SOL    HW250087  12.661   8.839   2.424 -0.1081  0.1737 -0.4273
47828SOL     OW50088   6.706   3.889  11.024 -0.2650  0.8781  0.2364
47828SOL    HW150089   6.761   3.871  10.948 -1.8383 -1.4694 -0.4600
47828SOL    HW250090   6.620   3.855  11.000 -0.5067 -1.2419  3.5220
47829SOL     OW50091   3.275   9.661   4.876  0.1659  0.1749  0.1604
47829SOL    HW150092   3.361   9.698   4.857 -0.7477  1.5590 -1.4977
47829SOL    HW250093   3.214   9.731   4.856 -1.5375 -1.6750 -1.4354
47830SOL     OW50094   3.452   3.286   6.849  0.0420  0.0055 -0.0167
47830SOL    HW150095   3.369   3.245   6.822  0.6343 -0.2342 -1.5687
47830SOL    HW250096   3.448   3.287   6.945 -2.2375  1.0248 -0.0670
47831SOL     OW50097   0.774  10.515   7.265  0.3260 -0.0181  0.0809
47831SOL    HW150098   0.763  10.610   7.275 -0.0575  0.0032 -0.4552
47831SOL    HW250099   0.707  10.490   7.201 -1.2892 -1.0655  2.0424
47832SOL     OW50100   1.298   2.061   8.038 -0.5058  0.0498 -0.3646
47832SOL    HW150101   1.258   2.095   8.119  0.9309 -0.0716  0.4372
47832SOL    HW250102   1.256   2.109   7.968 -0.7201  1.2665  0.5709
47833SOL     OW50103   8.476   5.560  11.282 -0.1867  0.5779  0.6454
47833SOL    HW150104   8.479   5.469  11.311  1.0883  0.3648 -0.0770
47833SOL    HW250105   8.392   5.568  11.237  0.2433 -0.6066 -0.4066
47834SOL     OW50106  11.211   6.040   8.113  0.4785 -0.3324  0.0868
47834SOL    HW150107  11.186   6.071   8.026 -0.3383 -1.5495 -0.1436
47834SOL    HW250108  11.265   5.963   8.095 -0.6894 -1.3147  0.6362
47835SOL     OW50109   6.986  12.198  11.299  0.0418 -0.0490 -0.3298
47835SOL    HW150110   6.906  12.156  11.333 -0.0323  0.0802 -0.3441
47835SOL    HW250111   6.957  12.244  11.221  0.1438 -0.0486 -0.3663
47836SOL     OW50112   1.390   2.562   9.180  0.6035  0.1443  0.7576
47836SOL    HW150113   1.373   2.503   9.252  1.6053 -0.8250  0.2307
47836SOL    HW250114   1.327   2.538   9.112  2.2811 -1.7586 -0.2374
47837SOL     OW50115   1.749  11.416   4.153  0.0196  0.1512 -0.3722
47837SOL    HW150116   1.807  11.446   4.223 -0.0823 -0.1918 -0.1391
47837SOL    HW250117   1.694  11.491   4.133  0.9120  0.6593 -0.9770
47838SOL     OW50118  11.042  11.661   0.609  0.3153 -0.7678 -0.2799
47838SOL    HW150119  11.123  11.616   0.632 -0.7871 -2.6862  0.0892
47838SOL    HW250120  11.066  11.720   0.538  2.5693  0.7681  1.6118
47839SOL     OW50121   3.030   6.400   0.854  0.1448 -0.4772 -0.8013
47839SOL    HW150122   3.103   6.350   0.818  0.5965 -0.0486 -0.4978
47839SOL    HW250123   3.017   6.364   0.942  1.4676  0.9066  0.0128
47840SOL     OW50124  11.309   3.281   1.324 -0.2310  0.0405 -0.5539
47840SOL    HW150125  11.382   3.342   1.341 -0.1013 -0.0089 -0.9262
47840SOL    HW250126  11.333   3.238   1.242 -1.1261  0.7018 -1.1815
47841SOL     OW50127   8.811   0.432   6.583  0.2675 -0.2999  0.2672
47841SOL    HW150128   8.858   0.362   6.628  0.1594 -0.8874 -0.5264
47841SOL    HW250129   8.827   0.417   6.490  0.2249  0.7209  0.0857
47842SOL     OW50130   6.189   2.191  10.286 -0.2219 -0.3136 -0.1803
47842SOL    HW150131   6.228   2.248  10.352 -2.8720  1.8238 -0.2786
47842SOL    HW250132   6.143   2.124  10.337 -0.5300  0.1091  0.1077
47843SOL     OW50133   2.666   0.736   2.237 -0.1649  0.1760 -0.3174
47843SOL    HW150134   2.705   0.652   2.212  0.0440  0.4869 -1.0695
47843SOL    HW250135   2.596   0.713   2.298  0.1067 -0.5177 -0.2590
47844SOL     OW50136   1.545   6.184  10.232  0.0121 -0.2314 -0.7439
47844SOL    HW150137   1.463   6.205  10.275  0.9180 -2.1261  2.2166
47844SOL    HW250138   1.609   6.242  10.273  0.9751 -2.4025  1.0786
47845SOL     OW50139   6.830  11.186  11.771 -0.0412 -0.2686  0.6902
47845SOL    HW150140   6.751  11.235  11.746  0.4266  0.9258  1.4965
47845SOL    HW250141   6.806  11.141  11.852 -0.3801 -1.1645  0.1016
47846SOL     OW50142  10.699   9.631   0.535  0.3545 -0.1274 -0.0741
47846SOL    HW150143  10.633   9.665   0.596  1.5049  3.2440 -0.5221
47846SOL    HW250144  10.783   9.658   0.572  1.3261 -1.3534 -1.2608
47847SOL     OW50145   3.338   0.342   7.142 -0.2765  0.2859  0.2868
47847SOL    HW150146   3.426   0.354   7.176 -0.6137 -1.8758  2.2354
47847SOL    HW250147   3.343   0.367   7.050  1.7067  2.6139  0.9292
47848SOL     OW50148   6.198   2.551   2.002 -0.6413  0.1218  0.3506
47848SOL    HW150149   6.293   2.563   2.000 -0.7207  0.7528 -0.6375
47848SOL    HW250150   6.182   2.501   2.082  0.6407 -1.0153 -0.0468
47849SOL     OW50151   8.366   5.909   2.415  0.2431  0.7047 -0.0467
47849SOL    HW150152   8.334   5.912   2.506  0.2682  0.7900 -0.0402
47849SOL    HW250153   8.407   5.823   2.407 -1.8711 -0.3158 -0.7051
47850SOL     OW50154  11.092   9.986   8.776  0.5699 -0.2517  0.0665
47850SOL    HW150155  11.106   9.891   8.773  0.8532 -0.2169  0.2757
47850SOL    HW250156  11.078  10.006   8.869  2.9621  0.2444  0.4089
47851SOL     OW50157   7.120  10.374  12.248 -0.7243  0.2273 -0.3361
47851SOL    HW150158   7.030  10.387  12.279 -0.2861  1.7701  0.3874
47851SOL    HW250159   7.154  10.303  12.302 -1.0870  0.5432  0.3196
47852SOL     OW50160   4.207   6.752   0.359 -0.3672  0.4667 -0.1816
47852SOL    HW150161   4.122   6.736   0.317 -1.9161 -0.8354  3.0989
47852SOL    HW250162   4.188   6.817   0.427  1.5507  0.9185 -0.0090
47853SOL     OW50163   3.478   8.381  11.137 -0.6360  0.2791 -0.1375
47853SOL    HW150164   3.483   8.287  11.151 -1.6047  0.1947 -0.3122
47853SOL    HW250165   3.457   8.391  11.045  0.8686  0.7198 -0.4633
47854SOL     OW50166   2.599   4.035   5.252 -0.5153 -0.2551  0.1945
47854SOL    HW150167   2.528   4.100   5.255  1.0414  1.5605 -0.6060
47854SOL    HW250168   2.650   4.053   5.331 -0.6722 -1.2336  0.5214
47855SOL     OW50169   5.423  11.199   1.650 -0.3557 -0.4693 -0.4354
47855SOL    HW150170   5.449  11.276   1.699 -1.7925 -0.4172  0.3131
47855SOL    HW250171   5.388  11.139   1.716 -1.2367 -0.8805 -1.2489
47856SOL     OW50172  12.053   0.795   1.647  0.2628 -0.1228  0.0587
47856SOL    HW150173  12.047   0.886   1.618 -1.8876  0.1693  1.2083
47856SOL    HW250174  11.984   0.750   1.597  2.3042 -1.5393 -1.6800
47857SOL     OW50175   8.154  11.946   4.961 -0.4824 -0.4233 -0.1193
47857SOL    HW150176   8.162  11.850   4.960 -0.6379 -0.4629  0.8353
47857SOL    HW250177   8.239  11.977   4.929 -0.1580 -0.8818  0.2783
47858SOL     OW50178   9.462   7.303   1.854 -0.8270  0.2446 -0.3867
47858SOL    HW150179   9.553   7.310   1.885 -0.7573  2.3866 -0.9066
47858SOL    HW250180   9.452   7.211   1.830  0.5455 -0.5009  1.5843
47859SOL     OW50181  12.139  12.567   0.945 -0.3768  0.1570 -0.1681
47859SOL    HW150182  12.213  12.595   0.999 -0.2904 -0.8002  0.2245
47859SOL    HW250183  12.089  12.507   1.000 -0.8700 -0.0264 -0.7905
47860SOL     OW50184   7.001   4.238   5.019  0.0559  0.1042 -0.0545
47860SOL    HW150185   7.054   4.162   5.043 -0.8863 -1.1406 -1.6960
47860SOL    HW250186   7.027   4.258   4.928 -1.7534 -0.1190 -0.6694
47861SOL     OW50187   3.411   0.878   5.114 -0.3090 -0.2207  0.3153
47861SOL    HW150188   3.384   0.888   5.023  1.1777  1.6189  0.0225
47861SOL    HW250189   3.442   0.787   5.121  0.9572  0.0408 -1.4161
47862SOL     OW50190   4.268   7.955   5.832 -0.5356  0.3427 -0.0810
47862SOL    HW150191   4.298   8.045   5.818 -0.8005  0.4430 -0.0122
47862SOL    HW250192   4.276   7.941   5.926  0.3054  0.0038 -0.1920
47863SOL     OW50193   1.674   8.688   5.954 -0.4814 -0.6039  0.0760
47863SOL    HW150194   1.611   8.678   6.026 -0.5996 -3.1942 -0.2845
47863SOL    HW250195   1.758   8.664   5.992 -0.3864 -1.0009 -0.3643
47864SOL     OW50196   9.821   7.505  11.413 -0.0835  0.1902  0.0713
47864SOL    HW150197   9.731   7.475  11.421  0.0911 -0.2108  0.5298
47864SOL    HW250198   9.874   7.437  11.454  0.3406  0.9590  0.8370
47865SOL     OW50199   8.425  11.282  11.648  0.5205 -0.4759  0.2550
47865SOL    HW150200   8.428  11.377  11.646 -0.7252 -0.4012  1.1622
47865SOL    HW250201   8.392  11.257  11.562  0.4537 -0.0706  0.1632
47866SOL     OW50202  11.434   0.666   3.217  0.0008  0.3545  0.0842
47866SOL    HW150203  11.441   0.578   3.254  0.5154  0.6755  0.7755
47866SOL    HW250204  11.525   0.695   3.207 -0.1634  0.7572 -0.2643
47867SOL     OW50205  11.346   0.445   7.128  0.1764  0.4067  0.3078
47867SOL    HW150206  11.436   0.465   7.105  0.9088 -0.8987  1.8658
47867SOL    HW250207  11.348   0.425   7.221 -2.0765  2.2158  0.8467
47868SOL     OW50208   8.069   3.220   5.751 -0.0274 -0.1413  0.2569
47868SOL    HW150209   8.025   3.289   5.701  0.2534 -0.4165 -0.3751
47868SOL    HW250210   8.156   3.255   5.770  1.0844 -1.2510 -2.2649
47869SOL     OW50211   8.145   9.767   2.435 -0.4388  0.5601 -0.2096
47869SOL    HW150212   8.133   9.730   2.348 -0.9011  0.4958 -0.1254
47869SOL    HW250213   8.228   9.814   2.431  0.8713 -1.6021  0.0705
47870SOL     OW50214   7.791   2.006   6.549 -0.2609  0.6499 -0.2449
47870SOL    HW150215   7.851   2.078   6.528 -0.0640 -0.0684 -2.3887
47870SOL    HW250216   7.834   1.959   6.620  0.8696  1.1506 -0.5697
47871SOL     OW50217   3.128   0.142   0.486 -0.4345  0.3073 -0.3271
47871SOL    HW150218   3.217   0.167   0.462 -0.0340  0.1057  0.8648
47871SOL    HW250219   3.115   0.057   0.444  0.2172 -0.0045  0.0741
47872SOL     OW50220   9.084   2.247   2.289  0.1121  0.4245 -0.2375
47872SOL    HW150221   9.170   2.287   2.294 -0.1146  0.8927 -0.0081
47872SOL    HW250222   9.058   2.236   2.381  0.0819 -0.0522 -0.3003
47873SOL     OW50223   8.539   2.540   4.124  0.5293 -0.4615  0.6360
47873SOL    HW150224   8.493   2.457   4.135 -1.0015  0.1056 -0.9948
47873SOL    HW250225   8.627   2.523   4.157 -0.0522 -2.3940  1.3453
47874SOL     OW50226   1.902  11.101   3.144 -0.2734 -0.2416  0.1391
47874SOL    HW150227   1.898  11.151   3.226 -1.4595 -0.0042 -0.0454
47874SOL    HW250228   1.840  11.030   3.156 -0.1597 -0.4374 -0.4039
47875SOL     OW50229  12.217   7.784  11.552  1.0304  0.5230 -0.3357
47875SOL    HW150230  12.169   7.859  11.588  0.3758 -0.0115 -0.0741
47875SOL    HW250231  12.255   7.818  11.471  1.4917  1.3877  0.2196
47876SOL     OW50232   3.765   6.978  10.051 -0.4111  0.2724  0.2583
47876SOL    HW150233   3.696   6.934  10.101  0.4697 -1.0673  0.3612
47876SOL    HW250234   3.788   6.915   9.984  1.6587  0.0957  1.0748
47877SOL     OW50235   9.173  10.863  10.234 -0.0959  0.9606 -0.1894
47877SOL    HW150236   9.165  10.817  10.150  0.8218 -3.0018  1.6295
47877SOL    HW250237   9.090  10.845  10.279  1.0460 -1.0124  1.3529
47878SOL     OW50238   4.211  11.113   0.252  0.2875  0.3779  0.1541
47878SOL    HW150239   4.209  11.207   0.271 -1.0037  0.3216  0.3454
47878SOL    HW250240   4.156  11.103   0.174 -0.4005 -0.3569  0.7341
47879SOL     OW50241   3.967   0.943   9.172  0.1216 -0.0507  0.0956
47879SOL    HW150242   3.941   0.891   9.096  0.4312  0.2933 -0.2514
47879SOL    HW250243   3.984   0.878   9.240 -0.8937 -0.3215  0.1073
47880SOL     OW50244   5.951   0.379   2.459 -0.2225  0.4246  0.2271
47880SOL    HW150245   5.983   0.468   2.444 -1.1018  0.5956 -0.7283
47880SOL    HW250246   5.865   0.377   2.417 -0.5196 -0.6714  0.8528
47881SOL     OW50247   6.555   4.282  12.226 -0.3232  0.2157  0.5093
47881SOL    HW150248   6.570   4.326  12.310  1.5454 -1.4179  1.1170
47881SOL    HW250249   6.571   4.189  12.245 -1.9290 -0.4701 -1.2128
47882SOL     OW50250  12.727   7.488  12.367 -0.3967 -0.2454  0.1025
47882SOL    HW150251  12.669   7.522  12.436  0.4114  0.2201  0.5681
47882SOL    HW250252  12.800   7.449  12.414  0.3081  0.3346 -0.4929
47883SOL     OW50253  12.307   0.672  10.358 -0.2860  0.4554  0.2797
47883SOL    HW150254  12.211   0.672  10.357 -0.4123  2.0213  2.7026
47883SOL    HW250255  12.331   0.758  10.323  0.4220 -0.7532 -2.4661
47884SOL     OW50256   5.873   1.692  12.140 -0.0364  0.1237  0.6228
47884SOL    HW150257   5.849   1.720  12.051 -0.3813 -2.4483 -0.1709
47884SOL    HW250258   5.954   1.644  12.130 -0.5311 -0.9511  1.5634
47885SOL     OW50259   5.609   6.165  11.023  0.4945  0.1835 -0.0139
47885SOL    HW150260   5.536   6.107  11.001  1.7459 -1.9521  1.0922
47885SOL    HW250261   5.571   6.227  11.086 -0.3686 -0.9442  0.6288
47886SOL     OW50262   5.989   6.471   3.548 -0.1868 -0.0012  0.3303
47886SOL    HW150263   6.065   6.508   3.503  0.5518 -0.5888  1.0685
47886SOL    HW250264   6.024   6.437   3.631 -1.4037  0.4893  1.0684
47887SOL     OW50265  11.594   1.576   6.465  0.6884  0.1291  0.2521
47887SOL    HW150266  11.590   1.494   6.416  1.6464  0.2481 -0.0369
47887SOL    HW250267  11.680   1.612   6.445 -0.4475  2.2207 -1.2470
47888SOL     OW50268   3.858   0.987   3.306  0.9229 -0.6725  0.4958
47888SOL    HW150269   3.917   1.029   3.369  0.5623  1.6281 -0.6348
47888SOL    HW250270   3.794   1.054   3.284  0.8255 -1.5186 -2.0767
47889SOL     OW50271   7.340  12.356   7.996  0.1087  0.2227  0.6524
47889SOL    HW150272   7.384  12.273   8.016 -1.8515 -0.7445  1.2214
47889SOL    HW250273   7.262  12.331   7.947 -0.6627  1.6982  1.0496
47890SOL     OW50274   7.342  11.226   6.987  0.1932 -0.0529 -0.5165
47890SOL    HW150275   7.304  11.307   6.953  1.4134  0.7457 -0.0428
47890SOL    HW250276   7.284  11.201   7.060  0.6639  1.2627  0.3408
47891SOL     OW50277   9.865  12.741   5.534  0.3581  0.2926 -0.1047
47891SOL    HW150278   9.856  12.645   5.538 -2.1478  0.4346 -0.7294
47891SOL    HW250279   9.808  12.774   5.603 -0.1829  1.3673 -1.0346
47892SOL     OW50280   4.019   0.365   8.776  0.3183 -0.6557  0.1006
47892SOL    HW150281   4.046   0.350   8.685  3.7072  0.4002  0.7741
47892SOL    HW250282   4.074   0.305   8.827 -0.6168 -0.3397  1.5166
47893SOL     OW50283  11.976   7.735   0.845  0.3463  0.2892  0.4287
47893SOL    HW150284  11.967   7.732   0.750  1.1899  1.8204  0.2694
47893SOL    HW250285  11.993   7.827   0.864  1.6474 -0.2296  1.9286
47894SOL     OW50286  11.681   2.331   2.458  0.3964 -0.7701 -0.0081
47894SOL    HW150287  11.657   2.388   2.385 -2.2107  0.1993  1.4772
47894SOL    HW250288  11.600   2.321   2.508  1.6388 -2.9497  1.7294
47895SOL     OW50289   7.657  10.080   9.554  0.1186  0.2404 -0.3032
47895SOL    HW150290   7.658  10.151   9.618 -1.3275 -1.4488  1.7209
47895SOL    HW250291   7.724  10.019   9.585  1.2975  0.6098 -1.9782
47896SOL     OW50292   0.601   9.594   8.932 -0.4110 -0.1208  0.0241
47896SOL    HW150293   0.577   9.502   8.948  0.0389 -0.6158 -1.8256
47896SOL    HW250294   0.682   9.606   8.982  0.0626 -1.0504 -0.4959
47897SOL     OW50295   1.954   0.827   4.421 -0.2711  0.2615  0.0585
47897SOL    HW150296   1.926   0.816   4.330 -0.6435 -0.4096  0.2446
47897SOL    HW250297   2.020   0.896   4.418 -1.4778  1.4277 -0.4939
47898SOL     OW50298   9.935   1.196  10.241 -0.0773  0.6262  0.2513
47898SOL    HW150299   9.855   1.173  10.287 -0.0809  1.2614  0.5728
47898SOL    HW250300  10.005   1.154  10.291 -0.1652  0.5300  0.2904
47899SOL     OW50301  12.711  12.008  12.340  0.2575  0.1444  0.1010
47899SOL    HW150302  12.615  12.005  12.333  0.3637 -1.4464 -1.4673
47899SOL    HW250303  12.735  12.092  12.303 -0.4426 -0.2771 -1.3702
47900SOL     OW50304   3.077   4.273   6.388  0.2694  0.3260  0.3671
47900SOL    HW150305   2.992   4.272   6.344  1.2381 -1.3501 -1.5648
47900SOL    HW250306   3.124   4.345   6.347  0.3499  0.2425  0.3130
47901SOL     OW50307   3.256   5.033   9.602 -0.1151 -0.0031 -0.2625
47901SOL    HW150308   3.321   5.074   9.659 -0.0494  0.1661 -0.4579
47901SOL    HW250309   3.174   5.080   9.620 -0.3202 -0.5876  0.3980
47902SOL     OW50310   5.859   2.908   2.578  0.1962  0.4805  0.5138
47902SOL    HW150311   5.942   2.932   2.620  0.0129 -1.3666  2.0842
47902SOL    HW250312   5.811   2.861   2.646 -1.4110 -0.0462 -0.9140
47903SOL     OW50313   4.156  11.439   1.927 -0.1011  0.1124 -0.3579
47903SOL    HW150314   4.236  11.401   1.963  0.0499  0.2851 -0.5081
47903SOL    HW250315   4.186  11.497   1.857 -0.4808 -1.4340 -1.8590
47904SOL     OW50316   8.974   1.321   3.888  0.2833  0.2922  0.3006
47904SOL    HW150317   8.984   1.230   3.859  0.3548  0.5733 -0.5791
47904SOL    HW250318   8.887   1.346   3.857  0.6232  0.8038 -0.2440
47905SOL     OW50319   4.291  10.072   3.477 -0.1224  0.2180  0.1577
47905SOL    HW150320   4.256  10.047   3.392 -1.0165 -0.6712  0.7577
47905SOL    HW250321   4.356  10.005   3.498  0.3501  0.6294  0.0274
47906SOL     OW50322   7.597   9.628  11.704  0.1303  0.2869  0.1212
47906SOL    HW150323   7.515   9.677  11.695  0.8775  1.8359  1.2347
47906SOL    HW250324   7.587   9.554  11.645 -1.4399  1.2796 -0.9412
47907SOL     OW50325   7.361   6.328   0.594 -0.3422 -0.0203 -0.6081
47907SOL    HW150326   7.442   6.364   0.558  0.2154 -0.7575 -0.1247
47907SOL    HW250327   7.368   6.342   0.688 -0.3780 -0.8562 -0.4761
47908SOL     OW50328   6.628  12.679   6.727  0.2570 -0.2410 -0.0975
47908SOL    HW150329   6.562  12.654   6.662 -0.3087 -1.1633  0.8083
47908SOL    HW250330   6.671  12.597   6.750  1.5212  0.2986 -0.4292
47909SOL     OW50331   2.111   8.402   9.942 -0.4967  0.0428 -0.4262
47909SOL    HW150332   2.129   8.371   9.854 -2.1274  0.8481 -1.0842
47909SOL    HW250333   2.082   8.492   9.931  1.4114  0.9194  1.1760
47910SOL     OW50334   3.296   4.855   2.198 -0.5564  0.7104  0.6264
47910SOL    HW150335   3.233   4.916   2.238  0.6248  0.6499  2.6985
47910SOL    HW250336   3.335   4.905   2.126 -1.4595  1.4591  0.6297
47911SOL     OW50337   2.380   7.329   7.325  0.4097  0.2098  0.0127
47911SOL    HW150338   2.393   7.280   7.406 -0.0630 -1.7645 -1.0385
47911SOL    HW250339   2.287   7.353   7.326  0.3722  0.0655 -0.0032
47912SOL     OW50340   6.817  12.205   3.574 -0.4123 -0.3516  0.1139
47912SOL    HW150341   6.727  12.220   3.603 -0.4261 -0.5345  0.1674
47912SOL    HW250342   6.853  12.292   3.561 -1.5087 -0.2115 -2.7683
47913SOL     OW50343   6.358   1.099   5.923 -0.2794  0.6566  0.1207
47913SOL    HW150344   6.365   1.020   5.870 -0.6233  0.8969 -0.2995
47913SOL    HW250345   6.329   1.069   6.009 -0.5418  0.3393 -0.0788
47914SOL     OW50346   4.086   0.652   3.060 -0.6895  0.3187 -0.0746
47914SOL    HW150347   4.073   0.625   3.151 -1.8404  0.3364 -0.2172
47914SOL    HW250348   4.056   0.743   3.057 -1.6037  0.0102 -0.6722
47915SOL     OW50349   9.547   0.368  10.307 -0.3205  0.4068  0.0170
47915SOL    HW150350   9.452   0.367  10.308 -0.3418 -0.6035 -0.9937
47915SOL    HW250351   9.570   0.460  10.312 -1.3940  0.7755 -1.3212
47916SOL     OW50352   1.008   4.194   7.731 -0.0706 -0.1602  0.0229
47916SOL    HW150353   0.931   4.172   7.783  0.4640  1.5288  1.6767
47916SOL    HW250354   1.028   4.284   7.757  2.6474 -0.6575 -0.0666
47917SOL     OW50355  10.265  12.661  11.596  0.4620 -0.2970  0.0956
47917SOL    HW150356  10.315  12.635  11.674 -0.1083  0.3390  0.6945
47917SOL    HW250357  10.217  12.739  11.624 -0.2465 -0.4349 -0.7067
47918SOL     OW50358  11.988   4.101  10.179  0.1922 -0.7468  0.2498
47918SOL    HW150359  12.056   4.067  10.237  0.0046  1.1812  1.7175
47918SOL    HW250360  11.938   4.161  10.234 -1.3348 -0.4487 -1.3785
47919SOL     OW50361   2.972   8.745   2.567  0.9318 -0.4138  0.2170
47919SOL    HW150362   2.999   8.815   2.626  1.4752  0.2185 -0.7530
47919SOL    HW250363   3.042   8.739   2.503 -0.7146  0.6162 -1.8187
47920SOL     OW50364   4.649  12.486  11.208 -0.4389 -0.6912 -0.2128
47920SOL    HW150365   4.584  12.546  11.171  0.4616  1.1434  1.0199
47920SOL    HW250366   4.704  12.462  11.133  1.1311  2.6774 -0.3298
47921SOL     OW50367   3.567   8.912   6.189 -0.3521  0.3498  0.2234
47921SOL    HW150368   3.492   8.890   6.135 -0.0904  0.7836 -0.3277
47921SOL    HW250369   3.557   9.006   6.206  0.6945  0.6874 -0.8730
47922SOL     OW50370   4.177   6.037   1.463 -0.0404  0.2108 -0.4648
47922SOL    HW150371   4.096   6.046   1.413 -0.0603  0.2149 -0.4319
47922SOL    HW250372   4.237   5.994   1.403 -0.3236 -0.5607 -0.2156
47923SOL     OW50373   0.519   0.381  12.228 -0.0585 -0.3041  0.4835
47923SOL    HW150374   0.529   0.356  12.320  0.4214 -0.3285  0.4293
47923SOL    HW250375   0.495   0.474  12.230 -1.3667 -0.6253  0.6717
47924SOL     OW50376   5.591   2.534  11.674 -0.2313 -0.1157  0.1633
47924SOL    HW150377   5.530   2.531  11.601 -0.5442  0.6917  0.3834
47924SOL    HW250378   5.673   2.563  11.636  0.3898 -2.3452 -0.3549
47925SOL     OW50379   1.447   4.549   5.867 -0.1697 -0.0793  0.4259
47925SOL    HW150380   1.487   4.594   5.793 -0.2546 -1.6278 -0.5965
47925SOL    HW250381   1.520   4.531   5.926  0.0099  0.5375  0.4007
47926SOL     OW50382  10.805   0.143   6.534 -0.0565 -0.0794 -0.4580
47926SOL    HW150383  10.765   0.115   6.617 -0.4149 -1.0438 -0.9358
47926SOL    HW250384  10.852   0.224   6.556  0.0025 -0.4091  0.7282
47927SOL     OW50385   0.281   5.964  12.542 -0.2159 -0.6393  0.0968
47927SOL    HW150386   0.338   6.016  12.485 -1.0706 -1.9541 -2.0787
47927SOL    HW250387   0.226   6.029  12.587  1.1233  0.4860  0.1687
47928SOL     OW50388   3.387  12.553   7.236  0.4161  0.6774  0.2722
47928SOL    HW150389   3.391  12.588   7.326 -0.0645  0.3520  0.4218
47928SOL    HW250390   3.419  12.625   7.181  2.9141  0.1479  0.8751
47929SOL     OW50391  10.217   8.012   9.835  0.2581  1.0151  0.0374
47929SOL    HW150392  10.258   7.951   9.773 -0.3887  1.1881 -0.5672
47929SOL    HW250393  10.286   8.030   9.899  1.0411  1.0670 -0.7955
47930SOL     OW50394   5.431   8.130   8.211 -0.2045 -0.6057  0.2565
47930SOL    HW150395   5.465   8.201   8.266 -2.5539  0.5759  0.3266
47930SOL    HW250396   5.475   8.052   8.244 -0.6618  0.2071  3.1397
47931SOL     OW50397   9.995   2.516   2.303  0.0360 -0.5105  0.5356
47931SOL    HW150398   9.927   2.450   2.290  1.1273 -1.0439 -4.0104
47931SOL    HW250399   9.958   2.596   2.267  1.1541 -0.4271 -0.5034
47932SOL     OW50400  11.168   3.052   4.637 -0.4316  0.2186  0.3922
47932SOL    HW150401  11.260   3.065   4.656 -0.4188  0.4149  0.2083
47932SOL    HW250402  11.159   3.074   4.544 -0.5539 -0.3840  0.2611
47933SOL     OW50403   8.410   1.282   8.295 -0.2722  0.4287 -0.2774
47933SOL    HW150404   8.489   1.278   8.349  0.5120  0.7473 -1.3612
47933SOL    HW250405   8.384   1.191   8.282 -0.5148  0.3517  0.6764
47934SOL     OW50406   1.928   0.321   6.270  0.0974  0.2636  0.0701
47934SOL    HW150407   1.878   0.382   6.325  0.1247  0.6250 -0.2995
47934SOL    HW250408   2.012   0.313   6.314 -0.0677  0.1348  0.3667
47935SOL     OW50409   7.686   4.243   1.125  0.8055  0.5946  0.1468
47935SOL    HW150410   7.708   4.228   1.033 -1.6591  2.1698 -0.8167
47935SOL    HW250411   7.669   4.337   1.130  0.6492  0.5068  2.1908
47936SOL     OW50412   5.164   3.739   7.350 -0.2485  0.0565 -0.1628
47936SOL    HW150413   5.077   3.780   7.357 -0.7875 -0.0715 -4.0063
47936SOL    HW250414   5.146   3.650   7.321  1.0686  0.6307 -3.1020
47937SOL     OW50415   0.607   9.891   9.799 -0.2756  0.2364 -0.0298
47937SOL    HW150416   0.558   9.854   9.873  1.3307 -1.2402  0.3836
47937SOL    HW250417   0.582   9.983   9.798 -1.8759 -0.1272  1.0777
47938SOL     OW50418   4.216   8.076   6.722  0.3705  0.0943  0.4261
47938SOL    HW150419   4.202   8.165   6.690  0.7835 -0.1974 -0.6264
47938SOL    HW250420   4.302   8.079   6.766  0.9506 -0.0314 -0.6557
47939SOL     OW50421   6.877   9.385   0.809 -0.6910 -0.2246 -0.2923
47939SOL    HW150422   6.873   9.437   0.889  0.7972  0.5215 -0.6604
47939SOL    HW250423   6.911   9.445   0.743 -1.3772 -0.9798 -1.3635
47940SOL     OW50424   5.436  10.283   7.027 -0.7464  0.3191  0.1144
47940SOL    HW150425   5.498  10.247   6.963 -1.3335  0.6195 -0.6360
47940SOL    HW250426   5.397  10.206   7.068 -0.0626  0.1257  0.4263
47941SOL     OW50427   7.094  10.588   6.339  0.2006 -0.1565  0.1270
47941SOL    HW150428   7.124  10.611   6.427 -0.5686  0.7324  0.1742
47941SOL    HW250429   7.137  10.651   6.281 -1.5348  1.1904  0.2037
47942SOL     OW50430   3.892   7.028  12.744 -0.3291  0.1320 -0.0456
47942SOL    HW150431   3.941   7.093  12.795 -0.5670  0.6723 -0.4996
47942SOL    HW250432   3.837   7.079  12.685  0.2931 -0.4769 -1.1945
47943SOL     OW50433   8.461  12.575   1.314 -0.2550  0.3240  0.0044
47943SOL    HW150434   8.377  12.528   1.314  0.6012 -1.2704  0.5347
47943SOL    HW250435   8.523  12.514   1.274  0.5072  1.8393 -1.2331
47944SOL     OW50436   5.631   8.829  12.590  0.3396 -0.2629 -0.4218
47944SOL    HW150437   5.695   8.759  12.581  0.4783 -0.2380  0.2715
47944SOL    HW250438   5.574   8.820  12.514  2.0175  0.6065 -1.8523
47945SOL     OW50439  12.470   0.470   0.451 -0.1022  0.2484  0.2765
47945SOL    HW150440  12.493   0.454   0.359  0.7534 -1.6078  0.7712
47945SOL    HW250441  12.496   0.560   0.467  0.4303  0.3622 -1.1027
47946SOL     OW50442  11.008  11.237  12.488 -0.2640  0.2880 -0.3321
47946SOL    HW150443  10.961  11.199  12.414 -1.3353  0.0844  0.4173
47946SOL    HW250444  11.089  11.187  12.494 -0.1092  0.3941 -1.4354
47947SOL     OW50445   9.475  12.393   6.313  0.6839  0.0309 -0.4531
47947SOL    HW150446   9.540  12.401   6.383  0.7204  1.4747 -0.6192
47947SOL    HW250447   9.394  12.371   6.359  0.9147 -0.0225 -0.0647
47948SOL     OW50448   6.067   3.677   0.349 -0.0886 -0.0274  0.5168
47948SOL    HW150449   6.004   3.722   0.405  0.2014  0.0885  0.7552
47948SOL    HW250450   6.064   3.586   0.377 -0.3990 -0.0868  0.2934
47949SOL     OW50451   2.433   5.995   9.107  0.5791 -0.0893 -0.2229
47949SOL    HW150452   2.408   5.933   9.176  2.5181 -0.0732  0.5512
47949SOL    HW250453   2.463   6.073   9.155 -2.0778  1.6491 -1.1743
47950SOL     OW50454   1.298   9.164   4.955  0.6558  0.1986 -0.0796
47950SOL    HW150455   1.241   9.240   4.946 -1.5238 -1.5122 -1.8885
47950SOL    HW250456   1.301   9.148   5.050  0.3517  1.9012  0.2492
47951SOL     OW50457   7.824   0.888   1.701  0.0573 -0.4431 -0.0912
47951SOL    HW150458   7.759   0.939   1.749 -0.3729 -1.1289  0.0699
47951SOL    HW250459   7.894   0.873   1.764  1.0030  1.3984 -0.6356
47952SOL     OW50460   3.770   1.791   4.277 -0.1916  0.3408 -0.0752
47952SOL    HW150461   3.710   1.730   4.319 -0.3089 -0.1995 -1.0080
47952SOL    HW250462   3.850   1.741   4.264 -0.7034 -0.0413 -1.9911
47953SOL     OW50463   7.284  12.285  11.630 -0.5642  0.2791 -0.1153
47953SOL    HW150464   7.235  12.318  11.554  0.9108 -0.4529 -1.4496
47953SOL    HW250465   7.260  12.193  11.635 -0.0364  0.1356 -0.2034
47954SOL     OW50466   6.332   6.230   9.843 -0.3259  0.3414 -0.5522
47954SOL    HW150467   6.306   6.209   9.753  1.1695 -0.0257 -0.9224
47954SOL    HW250468   6.366   6.148   9.878 -0.4734  0.5918  0.2024
47955SOL     OW50469  11.511  11.739   0.090 -0.2245 -0.3377  0.3575
47955SOL    HW150470  11.506  11.758  -0.004 -0.6570 -0.7319  0.3004
47955SOL    HW250471  11.540  11.648   0.094 -0.8568 -0.5287  0.5975
47956SOL     OW50472  12.732   8.078   8.349  0.1524 -0.1925  0.3540
47956SOL    HW150473  12.710   8.165   8.315 -0.4054 -0.2609  0.5281
47956SOL    HW250474  12.668   8.063   8.419  0.2898 -0.7139  0.3710
47957SOL     OW50475   3.772   1.472   9.949 -0.6360  0.0295 -0.1916
47957SOL    HW150476   3.794   1.489  10.040 -0.5777 -1.4591  0.0901
47957SOL    HW250477   3.693   1.524   9.933 -0.9752 -0.1484  0.8715
47958SOL     OW50478   1.011   4.620   1.502  0.1313 -0.3495  0.2214
47958SOL    HW150479   1.019   4.538   1.453 -1.3353  1.3253 -3.1518
47958SOL    HW250480   0.936   4.664   1.462  0.1993  2.2259  2.6234
47959SOL     OW50481  10.036   7.321  11.162  0.2463 -0.0375 -0.0280
47959SOL    HW150482  10.055   7.397  11.106  0.5595  0.8283  1.2055
47959SOL    HW250483   9.942   7.325  11.176  0.3335  0.4490  0.4613
47960SOL     OW50484   8.019   4.183  12.581 -0.0447  0.2230  0.6553
47960SOL    HW150485   7.967   4.106  12.558  0.8986 -0.3123  0.2404
47960SOL    HW250486   8.011   4.189  12.676 -0.5299 -0.0864  0.6382
47961SOL     OW50487   3.245  12.727   3.509 -0.4594 -0.3699  0.3810
47961SOL    HW150488   3.275  12.786   3.440  1.5743 -1.0312  0.6517
47961SOL    HW250489   3.269  12.640   3.479 -1.1205 -0.8305  1.1462
47962SOL     OW50490   5.685   6.828   4.884 -0.0420 -0.3649  0.0345
47962SOL    HW150491   5.675   6.811   4.977  0.3206 -0.8246 -0.0080
47962SOL    HW250492   5.668   6.922   4.875 -1.0842 -0.5021  0.4119
47963SOL     OW50493   0.057  10.731   5.984 -0.2033  0.4346  0.5564
47963SOL    HW150494   0.021  10.765   6.066  0.9106  1.8127  0.5183
47963SOL    HW250495   0.027  10.793   5.917 -0.1458 -0.0187  0.1085
47964SOL     OW50496  10.372   2.033   8.995  0.1730 -0.4455 -0.0556
47964SOL    HW150497  10.361   2.063   9.084 -2.3829 -2.0069  0.2506
47964SOL    HW250498  10.308   2.082   8.944 -0.7126 -1.8857 -0.3838
47965SOL     OW50499   5.253   7.865   6.959 -0.2834 -0.0289  0.3263
47965SOL    HW150500   5.279   7.820   6.879 -1.1990 -0.7467  0.4159
47965SOL    HW250501   5.303   7.823   7.029 -2.6430 -2.4603  0.7193
47966SOL     OW50502  11.542   6.155   3.367  0.4488 -0.0362 -0.4123
47966SOL    HW150503  11.507   6.242   3.346  1.0574  0.2347 -0.3483
47966SOL    HW250504  11.560   6.115   3.282  1.6990  0.5549 -0.4609
47967SOL     OW50505   4.014   9.351  10.408 -0.2321  0.2696  0.9242
47967SOL    HW150506   4.014   9.445  10.390  0.5218 -0.0126 -0.7569
47967SOL    HW250507   4.051   9.312  10.329 -0.6886 -1.4620  1.5314
47968SOL     OW50508  12.387   4.663   8.620  0.1674 -0.1342 -0.2300
47968SOL    HW150509  12.345   4.597   8.564  1.4718 -1.3597  0.1719
47968SOL    HW250510  12.477   4.669   8.587  0.4127  0.5329  0.5402
47969SOL     OW50511   2.900   2.896   6.757  0.7321 -0.6804  0.1134
47969SOL    HW150512   2.847   2.840   6.814 -0.4120 -0.6772 -0.9014
47969SOL    HW250513   2.917   2.842   6.680  0.4811  0.0133 -0.4385
47970SOL     OW50514   2.040   3.261   8.594 -0.2518  0.4742  0.4075
47970SOL    HW150515   2.123   3.224   8.624 -0.4371 -1.4838 -1.2758
47970SOL    HW250516   2.055   3.279   8.501 -2.0288 -1.0019 -0.2134
47971SOL     OW50517   6.371   5.112   7.444 -0.1440 -0.4759 -0.1042
47971SOL    HW150518   6.397   5.043   7.382  0.2689  0.5971 -1.1605
47971SOL    HW250519   6.360   5.190   7.389 -2.7950 -0.1734  0.6995
47972SOL     OW50520   5.560   0.141   7.199  0.4857  0.4298 -0.4383
47972SOL    HW150521   5.580   0.203   7.269  2.7130 -0.1798 -0.4562
47972SOL    HW250522   5.636   0.082   7.197 -0.1473 -0.4010 -2.4607
47973SOL     OW50523   6.497  11.888  12.687 -0.8857  0.3002  0.2465
47973SOL    HW150524   6.413  11.849  12.710 -0.6336 -0.1110  0.4654
47973SOL    HW250525   6.496  11.891  12.591 -1.7316  1.5770  0.2648
47974SOL     OW50526   9.451   8.862  10.119  0.0899  0.0033  0.0685
47974SOL    HW150527   9.399   8.812  10.057  0.3452 -0.8575  0.5238
47974SOL    HW250528   9.398   8.939  10.139 -0.5418 -0.3406 -0.2542
47975SOL     OW50529   2.857  12.288   9.507  0.4431 -0.2337  0.4520
47975SOL    HW150530   2.913  12.247   9.573  1.5992 -0.3324 -0.5405
47975SOL    HW250531   2.908  12.364   9.477  0.4394 -0.7876 -1.0497
47976SOL     OW50532   0.378   8.999   9.114 -0.3989 -0.4104 -0.7426
47976SOL    HW150533   0.348   8.910   9.135  0.0741 -0.3675  0.1912
47976SOL    HW250534   0.328   9.055   9.172 -1.8049  0.1057 -2.3872
47977SOL     OW50535   2.612   0.148   2.592 -0.5796  0.4078  0.6003
47977SOL    HW150536   2.554   0.133   2.517 -2.5219 -0.9492  2.2948
47977SOL    HW250537   2.653   0.063   2.608 -0.1146  0.7116  1.0584
47978SOL     OW50538   9.598   4.547   1.240 -0.1720 -0.0043  0.1712
47978SOL    HW150539   9.655   4.591   1.304 -0.8801  1.2499 -0.0365
47978SOL    HW250540   9.511   4.584   1.256 -0.8489 -1.5297  0.1495
47979SOL     OW50541  11.219   6.917   1.027 -0.0322 -0.6835 -0.0039
47979SOL    HW150542  11.183   6.983   0.969  0.1545 -0.1210  0.4997
47979SOL    HW250543  11.166   6.839   1.013 -0.2865 -0.4075 -0.5687
47980SOL     OW50544  10.625  11.948  10.780 -0.4838  0.0375  0.0055
47980SOL    HW150545  10.586  12.031  10.808 -1.6388 -0.8938  1.2382
47980SOL    HW250546  10.551  11.897  10.746 -0.3358 -1.5480  1.8697
47981SOL     OW50547   6.036   1.355   8.026 -0.0701  0.4242  0.0551
47981SOL    HW150548   6.104   1.297   8.060 -1.0221  0.3271  1.9155
47981SOL    HW250549   6.047   1.437   8.074 -1.4549  0.2920  0.6331
47982SOL     OW50550   9.174   8.026   2.530 -0.0654  0.6480 -0.5807
47982SOL    HW150551   9.109   8.064   2.589  0.5214 -0.8872  1.1731
47982SOL    HW250552   9.255   8.074   2.548 -0.3321  1.5684 -1.6971
47983SOL     OW50553   1.384   5.308  11.734 -0.0545  0.3954  0.1171
47983SOL    HW150554   1.404   5.402  11.728 -0.0809  0.5562  1.9858
47983SOL    HW250555   1.386   5.278  11.643 -1.8981  2.5778 -0.7633
47984SOL     OW50556   4.277  10.971   5.150  0.1763  0.2501  0.4698
47984SOL    HW150557   4.334  11.011   5.085  0.1344 -0.4975 -0.0476
47984SOL    HW250558   4.312  10.999   5.234  0.2038  1.2733  0.1328
47985SOL     OW50559   2.671  11.744   8.380 -0.0960 -0.0015  0.1247
47985SOL    HW150560   2.641  11.833   8.359  0.4506 -0.1905 -1.6235
47985SOL    HW250561   2.640  11.691   8.307  1.7662 -0.7785 -0.1576
47986SOL     OW50562  12.539   6.868  11.786  0.5716 -0.3215 -0.2180
47986SOL    HW150563  12.563   6.927  11.714 -2.1536  1.3529  0.0906
47986SOL    HW250564  12.472   6.811  11.749 -1.3222  0.9639  1.0190
47987SOL     OW50565   9.148   9.621   3.366 -0.2161 -0.0042  0.0971
47987SOL    HW150566   9.198   9.697   3.339 -2.2478  1.6227  0.6191
47987SOL    HW250567   9.156   9.559   3.293  2.0495  0.3669 -0.0350
47988SOL     OW50568   2.979   6.271   1.722  0.2392 -0.2793 -0.8503
47988SOL    HW150569   3.023   6.186   1.725  2.2905  0.7083  2.0221
47988SOL    HW250570   3.047   6.334   1.743 -1.7610  1.8183 -0.2039
47989SOL     OW50571   4.869   9.087   4.244  0.5442  0.2173 -0.7027
47989SOL    HW150572   4.802   9.116   4.307 -0.6393  0.0717 -1.8538
47989SOL    HW250573   4.950   9.129   4.274 -0.4285  1.9083 -0.3357
47990SOL     OW50574   3.537   4.472   1.423  0.0408 -0.3433 -0.1922
47990SOL    HW150575   3.561   4.563   1.443  0.1439 -0.2325 -0.8158
47990SOL    HW250576   3.547   4.426   1.507  1.1289 -0.0257 -0.1330
47991SOL     OW50577   6.076   4.767   1.119 -0.0861 -0.2565 -0.1057
47991SOL    HW150578   6.105   4.682   1.088  0.2735 -0.1386 -0.0995
47991SOL    HW250579   6.105   4.771   1.210 -1.5335 -0.7894  0.4077
47992SOL     OW50580   3.404  10.107   1.772 -0.3764  0.2012 -0.6068
47992SOL    HW150581   3.320  10.083   1.808 -0.2471  1.5942  0.7436
47992SOL    HW250582   3.396  10.201   1.753  0.7038  0.2478 -0.9262
47993SOL     OW50583   1.043   5.918   3.550  0.1706 -0.0725 -0.2109
47993SOL    HW150584   0.997   5.835   3.542 -0.4098  0.2340 -0.1841
47993SOL    HW250585   0.996   5.964   3.620  1.5914 -0.4246  1.0256
47994SOL     OW50586   1.712   8.307  11.430 -0.8513 -0.1383  0.3625
47994SOL    HW150587   1.701   8.231  11.373 -1.7459  1.0400 -1.1157
47994SOL    HW250588   1.646   8.369  11.400  1.0759  1.9742  0.2156
47995SOL     OW50589   1.646   9.383   3.723  0.0406 -0.0860 -0.7287
47995SOL    HW150590   1.691   9.465   3.740  0.9390 -0.5416 -0.8735
47995SOL    HW250591   1.625   9.348   3.809  0.1697  0.0144 -0.6563
47996SOL     OW50592  10.232   8.473  11.742 -0.3673 -0.2299 -0.6625
47996SOL    HW150593  10.316   8.513  11.720  0.3407 -2.2270 -1.8141
47996SOL    HW250594  10.169   8.545  11.736  1.3091  1.4847  0.9601
47997SOL     OW50595  10.314   4.381   1.156 -0.6453  0.3389 -0.4630
47997SOL    HW150596  10.221   4.365   1.170 -0.0371 -2.1036  1.4708
47997SOL    HW250597  10.328   4.470   1.188 -2.4849  1.3136 -2.1238
47998SOL     OW50598   2.083   0.274  11.553 -0.3979  0.1490 -0.5448
47998SOL    HW150599   2.160   0.226  11.525  1.1542  2.1854 -0.0353
47998SOL    HW250600   2.070   0.247  11.644  0.3090  0.4526 -0.3414
47999SOL     OW50601   3.777  10.001   6.009 -0.2333  0.4163  0.0378
47999SOL    HW150602   3.759   9.911   5.983 -0.5586  0.4173  0.2513
47999SOL    HW250603   3.805  10.044   5.928 -3.5581  1.0326 -0.9568
48000SOL     OW50604  10.834  11.331   8.600  0.5396 -0.4848 -0.1975
48000SOL    HW150605  10.758  11.313   8.656 -1.5137  2.1175 -1.9035
48000SOL    HW250606  10.879  11.403   8.645  1.2421 -1.1031  0.1095
48001SOL     OW50607   7.762   4.241  10.609  0.1081 -0.2147 -0.0412
48001SOL    HW150608   7.690   4.203  10.660  1.2442 -0.1702  1.6961
48001SOL    HW250609   7.794   4.169  10.555  1.3426 -1.4536  2.1841
48002SOL     OW50610   0.770   0.246   9.525 -0.3764 -0.1116  0.0598
48002SOL    HW150611   0.739   0.330   9.491 -0.3796 -0.0252  0.2753
48002SOL    HW250612   0.840   0.269   9.586  1.3575 -0.3720 -1.7250
48003SOL     OW50613   1.732   8.878   9.349  0.0784  0.1024  0.1018
48003SOL    HW150614   1.733   8.933   9.428  0.2141  0.9765 -0.4955
48003SOL    HW250615   1.652   8.826   9.359 -1.1646  1.8314 -0.2424
48004SOL     OW50616   8.666   7.182   4.303  0.0769 -0.3935 -0.3329
48004SOL    HW150617   8.673   7.188   4.398  0.7933 -1.9488 -0.2570
48004SOL    HW250618   8.590   7.237   4.281  0.1162  0.2735  1.0778
48005SOL     OW50619   2.242   7.253  10.424 -0.9214  0.2146 -0.3324
48005SOL    HW150620   2.192   7.334  10.412  0.8411  1.0895 -2.6357
48005SOL    HW250621   2.208   7.194  10.356 -0.7190 -0.1755 -0.0972
48006SOL     OW50622   8.710   0.469   1.788  0.3964  0.0304 -0.2082
48006SOL    HW150623   8.694   0.460   1.882 -0.4420 -1.0169 -0.4327
48006SOL    HW250624   8.790   0.420   1.772  0.6788  0.4227 -0.0050
48007SOL     OW50625   4.387  11.283   8.963 -0.1134 -0.2421 -0.3064
48007SOL    HW150626   4.330  11.348   8.921  0.3167  1.3290  1.3837
48007SOL    HW250627   4.450  11.336   9.013  1.5177 -1.9668 -0.4476
48008SOL     OW50628   6.444   1.013  11.318  0.3172  0.0807  0.2158
48008SOL    HW150629   6.509   1.043  11.253 -1.9395  1.0772 -1.7567
48008SOL    HW250630   6.431   0.921  11.297  2.2067 -0.6058  1.7310
48009SOL     OW50631   6.068   8.528   4.132 -0.0996 -0.0958  0.3311
48009SOL    HW150632   6.132   8.533   4.202  0.0067 -0.7999  0.2935
48009SOL    HW250633   6.046   8.435   4.126 -2.4101  0.2902  1.4927
48010SOL     OW50634   1.571   0.486   7.515  0.4526  0.6168 -0.0497
48010SOL    HW150635   1.503   0.549   7.539 -0.2525 -0.7355  1.7545
48010SOL    HW250636   1.653   0.527   7.543 -0.0332  0.6177  1.4682
48011SOL     OW50637   0.265   5.316   2.597 -0.4807  0.3019 -0.0069
48011SOL    HW150638   0.260   5.278   2.509  1.3286 -0.0727  0.0025
48011SOL    HW250639   0.240   5.245   2.656  1.6402 -0.5687 -0.0664
48012SOL     OW50640   8.790   8.705   5.202  0.1782  0.4842 -0.2305
48012SOL    HW150641   8.748   8.747   5.127 -1.9576  0.3815  0.8340
48012SOL    HW250642   8.831   8.777   5.250  0.8295  0.6570 -1.0354
48013SOL     OW50643   6.575  11.295  11.712  0.1876 -0.5838 -0.5291
48013SOL    HW150644   6.524  11.328  11.786  0.9860  1.0777 -0.6907
48013SOL    HW250645   6.512  11.246  11.660 -0.8447 -0.0580  0.1862
48014SOL     OW50646   5.290   3.521   0.155 -0.2937 -0.0651 -1.0797
48014SOL    HW150647   5.214   3.463   0.147  0.4463 -1.1047 -0.8255
48014SOL    HW250648   5.309   3.549   0.065  0.4926 -1.7855 -1.4931
48015SOL     OW50649  10.561  12.658   3.703 -0.1381  0.1784 -0.5815
48015SOL    HW150650  10.478  12.672   3.750 -0.6154  0.0543 -1.3559
48015SOL    HW250651  10.591  12.573   3.732  0.3345  0.7290  0.5967
48016SOL     OW50652   6.359   8.845   2.341  0.1457 -0.4350  0.2558
48016SOL    HW150653   6.404   8.818   2.421  2.0497  0.0039 -0.5969
48016SOL    HW250654   6.303   8.918   2.368  1.6230  0.4780  1.0407
48017SOL     OW50655   2.755   9.133   7.812  0.0332 -0.3677 -0.0177
48017SOL    HW150656   2.845   9.161   7.797 -0.1335 -0.0078 -0.3776
48017SOL    HW250657   2.762   9.060   7.873  0.5904 -0.5425 -0.2810
48018SOL     OW50658   6.429  11.158   4.234  0.4150  0.1216 -0.4483
48018SOL    HW150659   6.503  11.185   4.179  0.4506 -1.1280 -1.0471
48018SOL    HW250660   6.468  11.137   4.319  0.5697  0.6013 -0.3952
48019SOL     OW50661  11.400   7.076   1.327 -0.3778  0.4283  0.3063
48019SOL    HW150662  11.319   7.127   1.334  0.5538  1.7336  2.5485
48019SOL    HW250663  11.469   7.142   1.319  0.7569 -0.4648  2.0348
48020SOL     OW50664   8.310   1.670   2.037 -0.4399 -0.1303  0.0499
48020SOL    HW150665   8.271   1.602   1.982 -1.5516 -0.9890  1.7789
48020SOL    HW250666   8.392   1.693   1.993  0.4633 -3.2886 -0.1750
48021SOL     OW50667   2.153  11.574   1.589  0.5003 -0.5803  0.4010
48021SOL    HW150668   2.120  11.511   1.654 -0.0713  0.0664  0.7550
48021SOL    HW250669   2.217  11.626   1.637  1.8217 -1.5949 -0.1909
48022SOL     OW50670   2.370   4.782   6.829  0.5311  0.4013 -0.3091
48022SOL    HW150671   2.368   4.830   6.746 -0.4395 -0.0042 -0.5328
48022SOL    HW250672   2.464   4.771   6.848  0.7606  0.9085 -1.1084
48023SOL     OW50673   6.998   7.142  12.576  0.2536 -0.2098  0.1276
48023SOL    HW150674   6.939   7.120  12.648  0.5108 -0.4735  0.2628
48023SOL    HW250675   6.952   7.209  12.526  0.1563  0.1188  0.6489
48024SOL     OW50676   8.399  12.591   9.777 -0.3339 -0.0313 -0.7337
48024SOL    HW150677   8.335  12.546   9.722  0.1863 -1.6961 -0.0336
48024SOL    HW250678   8.453  12.521   9.814  0.3208  1.1436  0.6599
48025SOL     OW50679   1.762  11.530  11.854 -0.0707  0.3253 -0.8525
48025SOL    HW150680   1.718  11.463  11.803  1.0030 -0.3169 -0.9704
48025SOL    HW250681   1.708  11.609  11.843 -0.7301 -0.2250 -1.6312
48026SOL     OW50682   3.303   8.478   5.567 -0.0329  0.2347  0.3087
48026SOL    HW150683   3.394   8.494   5.541  0.6279 -2.8516  0.2579
48026SOL    HW250684   3.307   8.460   5.661 -0.0800 -2.2454 -0.0774
48027SOL     OW50685   9.481   5.993   3.815  0.0960 -0.5568  0.4860
48027SOL    HW150686   9.505   6.047   3.739 -0.2990 -0.7564  0.2194
48027SOL    HW250687   9.557   5.999   3.873  0.4570 -0.5082  0.0159
48028SOL     OW50688  12.630   8.573   2.668 -0.4898  0.0535  0.3931
48028SOL    HW150689  12.650   8.651   2.617  1.6069  1.0440  2.5753
48028SOL    HW250690  12.536   8.559   2.655 -0.9405  2.9524 -0.0289
48029SOL     OW50691   1.837   3.092   8.932 -0.0350  0.0774  0.6892
48029SOL    HW150692   1.859   3.173   8.979 -1.0954  0.0030  1.3593
48029SOL    HW250693   1.772   3.049   8.988  0.4152 -1.1846  0.2815
48030SOL     OW50694   5.365  10.969   6.420  0.1715  0.6739 -0.0330
48030SOL    HW150695   5.386  11.062   6.418  0.8975  0.5001 -0.6687
48030SOL    HW250696   5.356  10.944   6.328  2.0720 -0.3356 -0.0036
48031SOL     OW50697   3.255  11.600  11.223  0.0474 -0.3343  0.0946
48031SOL    HW150698   3.294  11.616  11.309 -1.5916 -0.1914  0.8314
48031SOL    HW250699   3.327  11.616  11.162  1.9222 -2.7081  1.5135
48032SOL     OW50700   7.375   0.222   8.162  0.2963 -0.0990 -0.0068
48032SOL    HW150701   7.352   0.131   8.141  1.0199 -0.3190  0.1329
48032SOL    HW250702   7.321   0.243   8.238  2.8434 -1.7213  2.4501
48033SOL     OW50703   2.292  11.083   7.900 -0.2638 -0.3337 -0.1762
48033SOL    HW150704   2.316  11.175   7.887 -0.4488 -0.3177 -0.4015
48033SOL    HW250705   2.303  11.043   7.814 -0.2816 -0.5000 -0.1003
48034SOL     OW50706   4.617   0.280  12.747  0.2079  0.1191 -0.6589
48034SOL    HW150707   4.671   0.358  12.737 -0.5628  0.6038 -1.1281
48034SOL    HW250708   4.677   0.214  12.784  1.0858  0.6705 -1.0526
48035SOL     OW50709   1.944   6.052   9.920  0.1808 -0.2309 -0.2266
48035SOL    HW150710   2.016   6.057   9.984  1.6753 -0.1786 -1.8520
48035SOL    HW250711   1.986   6.029   9.838 -1.8845 -1.7398 -0.9363
48036SOL     OW50712   5.974   5.358   0.247  0.5328  0.0895 -0.3008
48036SOL    HW150713   6.002   5.305   0.321  1.5544 -0.2226 -0.8909
48036SOL    HW250714   5.886   5.327   0.226  0.7794 -0.7603 -0.0811
48037SOL     OW50715   4.785   7.293   2.022 -0.1512 -0.4794 -0.6001
48037SOL    HW150716   4.751   7.378   2.051  1.3369 -0.2712  0.6746
48037SOL    HW250717   4.731   7.229   2.067  1.3454 -0.1534  1.8018
48038SOL     OW50718   8.072  11.189   0.370 -0.4257 -0.2972  0.3511
48038SOL    HW150719   8.162  11.157   0.366 -0.4883 -0.5304  0.7819
48038SOL    HW250720   8.019  11.117   0.338 -0.3629  0.3280 -1.2744
48039SOL     OW50721   7.972   3.973   4.227 -0.4197 -0.6955 -0.2836
48039SOL    HW150722   8.021   3.938   4.153 -0.1543 -0.2565 -0.3174
48039SOL    HW250723   7.926   4.049   4.191  0.6171  0.2161  0.2612
48040SOL     OW50724  10.841   0.199   5.257 -0.2140  0.0464 -0.5863
48040SOL    HW150725  10.823   0.171   5.168 -0.0403  0.9002 -0.9063
48040SOL    HW250726  10.774   0.156   5.310 -1.4674  0.9504 -1.3728
48041SOL     OW50727   1.391   6.473   7.871 -0.4363 -0.1357 -0.1933
48041SOL    HW150728   1.421   6.559   7.842 -3.1652  1.0390  0.1646
48041SOL    HW250729   1.331   6.491   7.943  0.7318 -2.5374  1.5396
48042SOL     OW50730   4.078   1.920  11.517 -0.1096  0.3423 -0.1048
48042SOL    HW150731   3.994   1.879  11.498 -0.0068  0.4055 -0.7207
48042SOL    HW250732   4.057   1.998  11.567 -0.4658  0.6911 -0.7915
48043SOL     OW50733  12.547  10.208   8.073  0.3163  0.4504 -0.4296
48043SOL    HW150734  12.538  10.210   7.977  1.9167 -0.0283 -0.6202
48043SOL    HW250735  12.622  10.151   8.089 -0.0699  0.3346  1.1404
48044SOL     OW50736  12.776   0.829   3.487  0.4085  0.3927  0.3497
48044SOL    HW150737  12.859   0.839   3.534  1.2781  2.0804 -1.4200
48044SOL    HW250738  12.770   0.735   3.468  2.2871  0.3405 -0.1297
48045SOL     OW50739   1.429   3.953   1.263 -0.7627 -0.2330 -0.0417
48045SOL    HW150740   1.440   4.043   1.233  0.8343  0.2420  1.7748
48045SOL    HW250741   1.337   3.933   1.245 -0.5151  0.7888 -2.9175
48046SOL     OW50742   8.332   4.132   3.238  0.4541 -0.3274 -0.1634
48046SOL    HW150743   8.415   4.141   3.285  0.5067 -0.8944 -0.1488
48046SOL    HW250744   8.356   4.145   3.146  0.7582 -1.6495 -0.2806
48047SOL     OW50745   0.674   3.490   2.308 -0.2014 -0.2043  0.4445
48047SOL    HW150746   0.710   3.575   2.281  2.2177 -1.4613 -0.6069
48047SOL    HW250747   0.644   3.450   2.227 -1.8753 -0.1726  1.0135
48048SOL     OW50748   1.219  10.166   3.007 -0.2221 -0.1151  0.8742
48048SOL    HW150749   1.156  10.118   2.953 -1.0778 -0.4470  2.1103
48048SOL    HW250750   1.304  10.147   2.967 -0.8917  0.5076 -0.9508
48049SOL     OW50751  10.584   7.735   8.365  0.4477 -0.1138  0.5425
48049SOL    HW150752  10.562   7.659   8.311 -0.0470 -0.8284  1.7382
48049SOL    HW250753  10.541   7.808   8.320 -0.0983 -0.7183  0.0508
48050SOL     OW50754   1.978   3.414   3.201  0.3107  0.0006  0.2130
48050SOL    HW150755   1.940   3.333   3.166  0.3565  0.0942 -0.0590
48050SOL    HW250756   1.984   3.399   3.295 -1.3387  0.3530  0.4117
48051SOL     OW50757   9.190   3.268   5.917 -0.8348 -0.3741 -0.6778
48051SOL    HW150758   9.139   3.187   5.912 -2.1410  0.3623  0.1079
48051SOL    HW250759   9.138   3.325   5.974  0.2284  0.8911 -0.9385
48052SOL     OW50760  10.446  11.780  10.614  0.1391  0.6140 -0.1817
48052SOL    HW150761  10.456  11.858  10.560 -0.5362  0.8847  0.0733
48052SOL    HW250762  10.351  11.764  10.615  0.3699 -1.1737 -1.5925
48053SOL     OW50763   4.770   4.410   5.827  0.5088  1.1829 -0.4632
48053SOL    HW150764   4.863   4.425   5.841  0.1715  1.4010  2.0255
48053SOL    HW250765   4.766   4.354   5.750  2.8168 -0.0460  0.2111
48054SOL     OW50766  10.808   8.591   8.043  0.3505 -0.3223  0.3081
48054SOL    HW150767  10.794   8.540   8.123 -1.0837 -0.7170 -0.1624
48054SOL    HW250768  10.863   8.536   7.988  0.1883 -0.6537  0.4732
48055SOL     OW50769   4.891   7.997   0.476  0.0069 -0.1645  0.3083
48055SOL    HW150770   4.956   7.968   0.540  0.3038 -0.3307 -0.0627
48055SOL    HW250771   4.832   8.053   0.525  1.4767  1.4819  0.2799
48056SOL     OW50772  12.200   9.852   1.511  0.1076 -0.7486 -0.4062
48056SOL    HW150773  12.239   9.934   1.480  2.4379 -1.7057 -0.1425
48056SOL    HW250774  12.228   9.786   1.448 -0.2527 -1.6603  0.3620
48057SOL     OW50775   1.710   2.107   6.439  0.4225  0.1687 -0.0279
48057SOL    HW150776   1.757   2.039   6.390 -1.4843 -2.3083  1.3199
48057SOL    HW250777   1.732   2.090   6.530  0.6705  2.0679  0.2968
48058SOL     OW50778  12.719   1.248  12.503  0.0033 -0.0619  0.3930
48058SOL    HW150779  12.753   1.240  12.414  0.9392 -0.7172  0.7920
48058SOL    HW250780  12.646   1.186  12.507  0.8526 -1.0814  0.4820
48059SOL     OW50781   4.706   2.807   9.305  0.3572  0.0561  0.0721
48059SOL    HW150782   4.720   2.896   9.273  0.1250  0.1818  0.3227
48059SOL    HW250783   4.792   2.765   9.299  0.4397  0.2595 -0.1592
48060SOL     OW50784  11.077   8.123   3.251  0.6705 -0.2082 -0.2384
48060SOL    HW150785  11.089   8.132   3.156 -0.0191 -0.3821 -0.3514
48060SOL    HW250786  11.067   8.213   3.282  2.0508 -0.0715 -0.1564
48061SOL     OW50787   5.100   9.103  10.981 -0.1217 -0.1626 -0.3087
48061SOL    HW150788   5.043   9.146  10.917 -0.7820 -1.0687 -0.3548
48061SOL    HW250789   5.093   9.010  10.960  0.5143 -0.3743  0.3917
48062SOL     OW50790   9.016   2.613   1.192  0.0087 -0.2414 -0.6368
48062SOL    HW150791   8.933   2.648   1.159 -0.3500  0.2007  0.6695
48062SOL    HW250792   9.082   2.664   1.145 -0.4390 -0.6613 -1.7613
48063SOL     OW50793   2.900  12.440   8.574 -0.5433  0.3545  0.3251
48063SOL    HW150794   2.829  12.494   8.609 -1.2914 -0.1905 -0.3356
48063SOL    HW250795   2.876  12.351   8.597 -0.3732  0.1125 -0.4248
48064SOL     OW50796   5.637   6.803  10.878  0.7599  0.0263  0.8028
48064SOL    HW150797   5.590   6.736  10.928  1.6504  0.1000  1.7864
48064SOL    HW250798   5.706   6.755  10.833  1.4403  0.2742  1.5606
48065SOL     OW50799   4.585   4.643   8.649 -0.1946 -0.3616 -0.1109
48065SOL    HW150800   4.572   4.714   8.586 -1.1529 -1.2603 -0.9601
48065SOL    HW250801   4.607   4.567   8.595  4.3754 -0.0741  0.9023
48066SOL     OW50802   1.989   2.382   9.860  0.6468  0.0028  0.7071
48066SOL    HW150803   1.996   2.362   9.767 -0.9722  1.3482  0.2395
48066SOL    HW250804   1.952   2.302   9.899 -1.0585  0.2568 -0.2718
48067SOL     OW50805   7.880   5.354   3.732  0.3406  0.4906 -0.9538
48067SOL    HW150806   7.794   5.317   3.753 -0.2618  2.0040 -0.6079
48067SOL    HW250807   7.889   5.341   3.637 -0.7693  1.2837 -1.1870
48068SOL     OW50808   7.379  11.038   8.525 -0.4328 -0.5665  1.0596
48068SOL    HW150809   7.318  10.995   8.465 -0.2662  0.3770  0.1825
48068SOL    HW250810   7.459  10.986   8.518 -0.5534 -0.7239  0.8043
48069SOL     OW50811   2.667   6.386  11.557 -0.4919  0.2757  0.1571
48069SOL    HW150812   2.679   6.294  11.578  2.2697  0.2965 -0.8274
48069SOL    HW250813   2.713   6.433  11.626 -0.2967  0.8148 -0.3263
48070SOL     OW50814   9.026  11.960   6.470  0.1490  0.2065 -0.5417
48070SOL    HW150815   9.037  12.042   6.421  0.6365  0.5546  0.1255
48070SOL    HW250816   9.028  11.892   6.403  1.3777  0.6266 -0.9764
48071SOL     OW50817   0.168   6.354   8.042 -0.3051  0.1733  0.3966
48071SOL    HW150818   0.115   6.338   7.964 -1.2454  0.6601  0.9188
48071SOL    HW250819   0.104   6.371   8.111  0.5340  0.4454  1.1189
48072SOL     OW50820  10.059   0.912  10.893 -0.0496 -0.4113 -0.6110
48072SOL    HW150821  10.011   0.840  10.852  1.1693 -0.9520 -1.1597
48072SOL    HW250822  10.123   0.939  10.827  1.6507 -0.9939  0.7223
48073SOL     OW50823   2.042  11.221   4.384  0.0158  0.0057 -0.1088
48073SOL    HW150824   2.026  11.221   4.479 -0.2015 -1.3350 -0.1286
48073SOL    HW250825   2.005  11.303   4.354 -3.7972 -1.3462  0.3730
48074SOL     OW50826  12.557   1.064   8.014 -0.3188  0.4146 -0.1297
48074SOL    HW150827  12.646   1.099   8.013 -0.1290  0.1112  1.7826
48074SOL    HW250828  12.537   1.044   7.923  1.8980 -0.3144 -0.4972
48075SOL     OW50829   3.316   4.880   5.959 -0.4042  0.0561 -0.2358
48075SOL    HW150830   3.381   4.925   6.013 -0.7297  0.2622 -0.0142
48075SOL    HW250831   3.339   4.787   5.967  1.1500  0.2554 -1.8297
48076SOL     OW50832   7.855   1.819  10.928 -0.0835 -0.1758  0.1033
48076SOL    HW150833   7.810   1.773  11.000  1.7931 -0.8894  0.8978
48076SOL    HW250834   7.871   1.907  10.963  2.7762 -1.1573  1.5374
48077SOL     OW50835   7.882   5.579   3.440 -0.5721 -0.1360 -0.2754
48077SOL    HW150836   7.792   5.585   3.471 -0.9501 -0.0664 -1.3505
48077SOL    HW250837   7.900   5.484   3.438 -1.4106 -0.2965 -2.1796
48078SOL     OW50838  10.314   5.346   3.683  0.1966 -0.0740  0.4166
48078SOL    HW150839  10.376   5.335   3.610  1.2053  0.3104  1.2000
48078SOL    HW250840  10.232   5.374   3.640  0.7504  0.0861 -0.5751
48079SOL     OW50841  10.839  10.869   0.679 -0.2537  0.3954  0.0839
48079SOL    HW150842  10.916  10.819   0.653  1.5532  2.0602  1.9325
48079SOL    HW250843  10.858  10.958   0.651 -3.6437  0.2294 -3.6678
48080SOL     OW50844   6.555  10.684   7.235  0.2289 -0.3143  0.2015
48080SOL    HW150845   6.574  10.742   7.160 -0.2622  0.4224  0.6360
48080SOL    HW250846   6.580  10.597   7.204  0.1830 -0.0011 -0.7679
48081SOL     OW50847   3.516  12.654   9.163 -0.3130 -0.7515  0.2939
48081SOL    HW150848   3.526  12.583   9.228 -3.2777 -1.4840  0.1070
48081SOL    HW250849   3.426  12.683   9.174 -0.5471 -0.0515 -2.6984
48082SOL     OW50850   5.701   4.842   3.628 -0.4679  0.1523  0.6335
48082SOL    HW150851   5.724   4.865   3.538 -0.1981  0.6415  0.8238
48082SOL    HW250852   5.639   4.770   3.619 -1.5337  1.1265  0.0209
48083SOL     OW50853   3.825   0.679   4.661 -0.5533  0.1473 -0.0556
48083SOL    HW150854   3.896   0.670   4.597  2.8757 -1.1737  3.5158
48083SOL    HW250855   3.824   0.771   4.684  2.0096 -0.1585  1.6795
48084SOL     OW50856   8.894  12.409   0.491  0.3417  0.0778  0.1732
48084SOL    HW150857   8.898  12.379   0.582  2.1669  1.9264  0.7620
48084SOL    HW250858   8.851  12.494   0.496 -0.2935 -0.1692 -0.8298
48085SOL     OW50859  12.641   4.450  11.159 -0.3027  0.3518 -0.1553
48085SOL    HW150860  12.706   4.520  11.164 -0.1148  0.2909 -1.3378
48085SOL    HW250861  12.557   4.495  11.151 -0.0969  0.5117 -2.0245
48086SOL     OW50862   4.844   1.112  12.440 -0.4293 -0.3219 -0.2273
48086SOL    HW150863   4.932   1.108  12.404 -0.6430  0.5769 -0.9154
48086SOL    HW250864   4.834   1.031  12.490  1.0667 -0.0593  0.5601
48087SOL     OW50865   0.293   5.329   3.395  0.3753  0.4177  0.2261
48087SOL    HW150866   0.234   5.297   3.463 -2.6443  3.2175 -0.8401
48087SOL    HW250867   0.356   5.384   3.442 -0.1263  0.3249  1.0354
48088SOL     OW50868   4.101   5.060   2.374 -0.3158  0.2398  0.0825
48088SOL    HW150869   4.053   5.084   2.453  0.4202  1.5123  0.1751
48088SOL    HW250870   4.044   4.997   2.329 -1.5498  0.8373  0.7516
48089SOL     OW50871   5.988   1.684   2.461  0.4756  0.1440 -0.3498
48089SOL    HW150872   5.966   1.687   2.554 -0.5821  0.1281 -0.5916
48089SOL    HW250873   6.076   1.645   2.458  0.9923  1.1786  0.7071
48090SOL     OW50874   3.271  12.542  12.685 -0.0409 -0.2242  0.0833
48090SOL    HW150875   3.303  12.454  12.663  1.3575  0.5314 -1.0717
48090SOL    HW250876   3.351  12.594  12.695 -0.8705  1.2649 -0.7793
48091SOL     OW50877  12.531  10.854   9.794 -0.0264 -0.1501 -0.4067
48091SOL    HW150878  12.543  10.824   9.884 -1.0944  0.5976 -0.0010
48091SOL    HW250879  12.452  10.907   9.796  1.0866  1.6373 -1.3727
48092SOL     OW50880   0.203  12.580   6.508  0.7689  0.5829  0.5076
48092SOL    HW150881   0.165  12.565   6.595 -0.2570 -1.5454 -0.2306
48092SOL    HW250882   0.290  12.617   6.526  0.9402 -0.6195  2.4836
48093SOL     OW50883   8.025  10.272   3.761  0.6797  0.1792 -0.9072
48093SOL    HW150884   7.936  10.241   3.742  0.9633 -0.5215 -1.1117
48093SOL    HW250885   8.018  10.367   3.755 -0.2262  0.1766 -0.2142
48094SOL     OW50886   2.119   9.254  10.684  0.4574 -0.0246 -0.3775
48094SOL    HW150887   2.086   9.165  10.680  1.9118 -0.5754 -0.8615
48094SOL    HW250888   2.075   9.299  10.612 -0.7160 -0.1696  0.2238
48095SOL     OW50889  11.275  12.491  11.080 -0.6049 -0.2704 -0.5799
48095SOL    HW150890  11.280  12.401  11.047 -1.1857 -0.5703  0.1073
48095SOL    HW250891  11.294  12.482  11.174 -0.1497  0.3990 -0.6033
48096SOL     OW50892   0.734  10.099  10.839 -0.4812  0.3145 -0.0489
48096SOL    HW150893   0.685  10.059  10.910 -0.3071  1.3453  0.6701
48096SOL    HW250894   0.775  10.176  10.878  1.2246 -0.1765 -0.7857
48097SOL     OW50895  12.017   7.921   5.022  0.1863  0.1701  0.2239
48097SOL    HW150896  11.974   7.976   4.956  1.6202 -0.4743 -1.3054
48097SOL    HW250897  12.026   7.979   5.098 -1.3107  1.0049 -0.1718
48098SOL     OW50898   5.693  12.686   7.477 -0.8966 -0.4637  0.6582
48098SOL    HW150899   5.788  12.697   7.467 -1.1088  0.4846 -0.7080
48098SOL    HW250900   5.663  12.769   7.514 -1.3463 -0.2409 -0.1845
48099SOL     OW50901   7.033   3.759   9.365 -0.6324 -0.0709 -0.3351
48099SOL    HW150902   7.073   3.776   9.450 -0.8445 -0.4637 -0.1507
48099SOL    HW250903   7.059   3.833   9.311  1.9214 -1.1965 -0.8017
48100SOL     OW50904   7.620   7.538   2.400 -0.5963 -0.0132  0.8330
48100SOL    HW150905   7.550   7.589   2.440 -1.1847  0.5846 -0.8630
48100SOL    HW250906   7.686   7.604   2.377 -0.5659 -0.2467  0.2415
48101SOL     OW50907   9.223  10.873   6.018  0.4225 -0.2811 -0.3336
48101SOL    HW150908   9.152  10.938   6.023 -0.5415 -1.3608  0.5000
48101SOL    HW250909   9.203  10.822   5.939 -0.7562 -1.6885  0.8186
48102SOL     OW50910   5.373  11.911   8.742 -0.5008 -0.0086  0.4682
48102SOL    HW150911   5.377  11.982   8.678 -1.0987 -0.9334 -0.6153
48102SOL    HW250912   5.348  11.955   8.824 -0.3811  1.0900 -0.0598
48103SOL     OW50913   6.133   2.995   1.735  0.3019  0.4730  0.5501
48103SOL    HW150914   6.051   3.033   1.767  0.6765  1.8962 -0.1072
48103SOL    HW250915   6.201   3.031   1.791  0.5372 -0.4467  0.8837
48104SOL     OW50916   5.770   7.065  10.803  0.3858 -0.2501 -0.3741
48104SOL    HW150917   5.730   6.992  10.849 -1.3450  1.0014  0.2103
48104SOL    HW250918   5.714   7.140  10.822  2.2729  1.3328 -0.6782
48105SOL     OW50919   5.960   2.296   3.047 -0.7335 -0.0981 -0.2290
48105SOL    HW150920   6.019   2.357   3.002 -0.7292  0.1768  0.1397
48105SOL    HW250921   6.007   2.213   3.049 -1.3090 -0.5059 -1.9843
48106SOL     OW50922   9.548  12.061   3.985 -0.2996 -0.1653  0.9157
48106SOL    HW150923   9.501  12.144   3.974 -0.2769 -0.2043  0.5078
48106SOL    HW250924   9.636  12.078   3.951  0.3815  0.2569  2.7778
48107SOL     OW50925   1.665   1.572   6.096 -0.3576 -0.2734  0.2104
48107SOL    HW150926   1.575   1.592   6.120 -0.3153 -0.2344  0.3386
48107SOL    HW250927   1.718   1.636   6.144 -0.2939  0.0359 -0.2773
48108SOL     OW50928   1.180   0.106   3.431  0.1137 -0.4760  0.5715
48108SOL    HW150929   1.211   0.161   3.503 -0.5284 -0.6667  0.9999
48108SOL    HW250930   1.093   0.077   3.459 -0.6925  0.4716 -0.8330
48109SOL     OW50931   1.965   5.845   6.353  0.2024  0.4767  0.0092
48109SOL    HW150932   1.995   5.790   6.281  0.6113  2.2397 -1.2278
48109SOL    HW250933   1.872   5.858   6.337  0.1526  0.3525  0.1827
48110SOL     OW50934   1.447   2.270   8.418  0.6670  0.2813 -0.3850
48110SOL    HW150935   1.494   2.191   8.445 -1.1142 -0.6145  0.2891
48110SOL    HW250936   1.378   2.238   8.360 -0.1992  1.3041  0.0511
48111SOL     OW50937   5.179   0.128   2.278 -0.4552 -0.5153 -0.1412
48111SOL    HW150938   5.117   0.186   2.323 -0.5842 -1.2345  0.6288
48111SOL    HW250939   5.191   0.055   2.338 -0.1995 -1.2296 -1.0404
48112SOL     OW50940   7.148   2.325  11.256  0.2431  0.1355  0.6776
48112SOL    HW150941   7.088   2.255  11.283  0.7864 -0.4717  0.3481
48112SOL    HW250942   7.209   2.282  11.197 -0.3202  1.2333 -0.7377
48113SOL     OW50943   3.588   1.086   2.214 -0.0985 -0.1674  0.0207
48113SOL    HW150944   3.659   1.077   2.277 -1.0146 -0.9892  0.9708
48113SOL    HW250945   3.510   1.098   2.268 -0.8155 -0.2841 -0.9763
48114SOL     OW50946  10.488   2.226   7.354 -0.8756 -0.1518  0.6541
48114SOL    HW150947  10.530   2.302   7.396 -0.5141  0.3725 -0.6073
48114SOL    HW250948  10.497   2.243   7.260 -2.0490 -1.0793  0.3585
48115SOL     OW50949   3.571   0.285   6.209  0.2954  0.0491  0.4898
48115SOL    HW150950   3.597   0.198   6.176  0.6468  0.4932 -0.4523
48115SOL    HW250951   3.536   0.329   6.132 -1.0977  0.2991  1.2453
48116SOL     OW50952   1.153   5.359   6.063  0.5658 -0.0707  0.7545
48116SOL    HW150953   1.163   5.273   6.103  0.8747 -0.0105  0.8077
48116SOL    HW250954   1.177   5.421   6.132 -2.8258  0.2353  1.8352
48117SOL     OW50955   0.578   3.886   0.296  0.3272  0.1744 -0.3553
48117SOL    HW150956   0.644   3.886   0.365 -0.0453 -0.6788  0.0157
48117SOL    HW250957   0.603   3.959   0.239  0.5098  1.0555  0.8069
48118SOL     OW50958  12.782   0.054   5.214  0.2307  0.2248 -0.6759
48118SOL    HW150959  12.797  -0.037   5.187 -0.0200 -0.1457  0.3979
48118SOL    HW250960  12.852   0.103   5.173  0.4374 -0.4706 -1.1761
48119SOL     OW50961  11.802  10.841   6.818  0.2413 -0.4219  0.2041
48119SOL    HW150962  11.839  10.894   6.889  0.7405 -0.3866 -0.0765
48119SOL    HW250963  11.848  10.757   6.824 -1.1845 -1.1578  1.2066
48120SOL     OW50964  12.011  11.200   3.032 -0.4249 -0.1359 -0.5883
48120SOL    HW150965  12.026  11.273   3.093  3.0660 -0.5313 -0.7608
48120SOL    HW250966  12.015  11.122   3.087  0.4365 -0.3829 -0.9872
48121SOL     OW50967  11.236   8.827   9.199  0.2561 -0.2758  0.1100
48121SOL    HW150968  11.225   8.839   9.294  0.6700 -0.5635  0.1969
48121SOL    HW250969  11.160   8.870   9.161  0.1506 -0.0462  0.5691
48122SOL     OW50970   9.389   7.734   3.539  0.0477  0.7351  0.3407
48122SOL    HW150971   9.436   7.677   3.478  0.6972  0.8513  0.7241
48122SOL    HW250972   9.323   7.677   3.579 -0.4289  0.6744 -0.5136
48123SOL     OW50973  10.186   7.785   7.752 -0.4265 -0.1247  0.3141
48123SOL    HW150974  10.226   7.846   7.815  0.9204 -1.3012  0.6358
48123SOL    HW250975  10.139   7.842   7.691 -0.5458  1.1394  1.5209
48124SOL     OW50976  12.633   4.075   1.837 -0.3115  0.3694 -0.5910
48124SOL    HW150977  12.650   4.149   1.779  0.5468  1.9067  1.5437
48124SOL    HW250978  12.659   3.998   1.785  0.7246  1.7023 -2.1259
48125SOL     OW50979   8.654  12.408   2.653 -0.8601  0.3552 -0.3566
48125SOL    HW150980   8.704  12.401   2.734 -4.0057 -3.1016  1.5594
48125SOL    HW250981   8.691  12.340   2.597 -1.6184 -0.3334 -0.0229
48126SOL     OW50982   1.754   4.422  10.518 -0.2642  0.2451 -0.3275
48126SOL    HW150983   1.768   4.369  10.440  0.6006  1.9548 -1.3824
48126SOL    HW250984   1.665   4.400  10.546 -0.0158 -1.5638 -0.8342
48127SOL     OW50985  12.193   9.292   7.062  0.0553 -0.6580 -0.3046
48127SOL    HW150986  12.131   9.235   7.107 -0.2306  0.4566  0.7572
48127SOL    HW250987  12.153   9.308   6.977 -1.5735  0.6995  0.6492
48128SOL     OW50988  11.207   2.000   6.943 -0.5533  0.7696 -0.0917
48128SOL    HW150989  11.257   1.973   6.866 -0.5815 -0.8729  0.4359
48128SOL    HW250990  11.212   1.926   7.003  0.0381  2.2643  1.8116
48129SOL     OW50991  12.533   1.058   6.232  0.7665  0.1788  0.2299
48129SOL    HW150992  12.616   1.082   6.273  0.4861  0.1672  0.8162
48129SOL    HW250993  12.490   1.001   6.295  0.4454 -0.0684 -0.2025
48130SOL     OW50994   2.799   6.071  12.257  0.0102 -0.2253  1.1556
48130SOL    HW150995   2.841   6.004  12.202  1.2305  0.2743  1.4520
48130SOL    HW250996   2.767   6.022  12.333  0.2548 -0.5921  1.0274
48131SOL     OW50997   4.156   1.379   8.351  0.1264  1.0848 -0.4019
48131SOL    HW150998   4.096   1.314   8.388  0.7785  0.4215 -0.5051
48131SOL    HW250999   4.233   1.329   8.325  1.5145  2.1426  1.3782
48132SOL     OW51000   8.600   9.213   8.357  0.0493  0.1269 -0.3182
48132SOL    HW151001   8.632   9.146   8.417  0.6349  1.1361  0.5382
48132SOL    HW251002   8.535   9.168   8.304  0.3855 -1.1040  0.2573
48133SOL     OW51003   1.065   9.634   9.969  0.4618  0.0383 -0.3243
48133SOL    HW151004   1.027   9.720   9.984 -1.9222 -1.1180  1.0029
48133SOL    HW251005   1.041   9.612   9.879 -0.0332  0.2676 -0.2523
48134SOL     OW51006   3.485   1.500   9.304 -0.1816  0.1967  0.1519
48134SOL    HW151007   3.452   1.414   9.331  1.9462 -0.1843  1.8321
48134SOL    HW251008   3.562   1.480   9.251  2.3644  0.9384  3.2913
48135SOL     OW51009   3.088   6.799   2.548 -0.3144 -0.3168  0.2732
48135SOL    HW151010   3.044   6.852   2.482 -1.8905 -0.0418  1.4753
48135SOL    HW251011   3.019   6.743   2.584  0.9307 -1.9038  0.3059
48136SOL     OW51012   4.018   7.767   3.056 -0.1004  0.0697  0.8504
48136SOL    HW151013   4.007   7.705   2.984 -1.5188  1.6370 -0.3902
48136SOL    HW251014   4.100   7.812   3.037 -0.2950  0.2369  0.3914
48137SOL     OW51015   9.127   6.962   0.430  0.4200  0.2157 -0.2834
48137SOL    HW151016   9.134   7.008   0.346  0.1351 -0.2068 -0.5437
48137SOL    HW251017   9.195   7.001   0.485 -1.3175  2.6724  0.3133
48138SOL     OW51018   1.967   3.792  11.885 -0.4021  0.6283  0.1201
48138SOL    HW151019   2.019   3.825  11.812 -0.6762  0.6129 -0.0821
48138SOL    HW251020   1.990   3.700  11.892  0.8557  0.9938  1.0987
48139SOL     OW51021   8.294   0.794   3.205 -0.0206  0.2897  0.1714
48139SOL    HW151022   8.328   0.775   3.118  2.4150  1.0800  0.8547
48139SOL    HW251023   8.346   0.739   3.263 -1.0298  0.3880  1.1900
48140SOL     OW51024   1.267  10.827   3.134  0.0802 -0.1419 -0.7800
48140SOL    HW151025   1.173  10.814   3.120  0.1183 -0.1411 -1.0397
48140SOL    HW251026   1.301  10.855   3.049  0.4810 -1.1023 -0.9561
48141SOL     OW51027   4.102  10.002  11.665  0.5576 -0.6239 -0.0730
48141SOL    HW151028   4.138   9.963  11.585  0.4295 -2.0265  0.5319
48141SOL    HW251029   4.039   9.938  11.697 -1.0339  0.9073 -0.0215
48142SOL     OW51030  10.706   1.281   5.863  0.2090  0.2395  0.1632
48142SOL    HW151031  10.613   1.259   5.857  0.0375  1.3062 -1.9671
48142SOL    HW251032  10.741   1.263   5.776  1.2890  2.7662  0.0023
48143SOL     OW51033   7.719   9.189   7.045  0.1614 -0.0353  0.3262
48143SOL    HW151034   7.658   9.119   7.068  2.1144 -1.7511  0.6124
48143SOL    HW251035   7.686   9.265   7.092 -0.3393 -1.5375  2.5916
48144SOL     OW51036   9.474  11.327   1.257  0.1024 -0.3213  0.7342
48144SOL    HW151037   9.430  11.337   1.341 -0.7263  2.9818  0.0644
48144SOL    HW251038   9.545  11.391   1.260  2.8496 -3.1151  0.4447
48145SOL     OW51039   2.404   8.079   3.173 -0.5100 -1.0871 -0.3514
48145SOL    HW151040   2.473   8.044   3.117  1.0590  0.7678  0.3005
48145SOL    HW251041   2.346   8.127   3.114 -1.0310 -2.2802 -0.8421
48146SOL     OW51042   1.732   0.390  10.246 -0.0828  0.0234  0.2961
48146SOL    HW151043   1.690   0.307  10.267 -2.0504  0.1487 -2.5386
48146SOL    HW251044   1.661   0.454  10.250  0.8826  1.1442  0.0732
48147SOL     OW51045   3.712  11.423   6.197  0.0952  0.7057 -0.2008
48147SOL    HW151046   3.647  11.491   6.217 -0.9590 -0.5870  0.9231
48147SOL    HW251047   3.685  11.388   6.112 -0.1243  0.8099 -0.1735
48148SOL     OW51048   6.438   2.736   6.385  0.3040  0.1979  0.0267
48148SOL    HW151049   6.457   2.646   6.411  1.5115  0.0205 -1.3440
48148SOL    HW251050   6.521   2.782   6.398  0.6182  0.3622 -2.2373
48149SOL     OW51051  12.424  11.804   6.566 -0.8179 -0.0746 -0.2463
48149SOL    HW151052  12.400  11.721   6.609 -0.5548 -0.7412 -1.3643
48149SOL    HW251053  12.396  11.871   6.629  1.0094 -1.0323  1.7122
48150SOL     OW51054   8.983   5.130   1.550 -0.6470  0.2941 -0.5749
48150SOL    HW151055   8.904   5.078   1.563 -0.1789 -0.5934 -1.1969
48150SOL    HW251056   8.963   5.186   1.475 -0.1967 -0.9472 -1.6461
48151SOL     OW51057   7.077   1.978  12.714  0.0041  0.2910 -0.2745
48151SOL    HW151058   7.154   1.958  12.767 -0.6973  1.2590  1.1894
48151SOL    HW251059   7.021   2.030  12.772 -1.9730 -0.7915 -1.1179
48152SOL     OW51060   8.431   8.096  11.924 -0.7925 -0.1942  0.4225
48152SOL    HW151061   8.385   8.144  11.855 -0.0590  0.3772  0.3146
48152SOL    HW251062   8.520   8.088  11.892 -0.0070  1.5223  1.9934
48153SOL     OW51063   8.867   0.513   5.230 -0.6689  0.0210  0.0660
48153SOL    HW151064   8.908   0.476   5.152  0.2956 -1.5286  1.2279
48153SOL    HW251065   8.849   0.437   5.286 -0.8447  1.1061  1.5557
48154SOL     OW51066   1.248   5.556   2.342 -0.4674 -0.4194 -0.5797
48154SOL    HW151067   1.220   5.472   2.379  0.2552 -0.5343 -0.2772
48154SOL    HW251068   1.326   5.580   2.393 -1.9731  1.5938  0.9458
48155SOL     OW51069   2.664   1.110   3.842  0.1086  0.6701 -0.5904
48155SOL    HW151070   2.602   1.183   3.836 -1.0994 -0.3470 -1.2308
48155SOL    HW251071   2.648   1.059   3.762  1.3624  0.0363 -0.4634
48156SOL     OW51072   3.684   2.775   9.274 -0.3625 -0.3113  0.2223
48156SOL    HW151073   3.739   2.844   9.310 -0.5550 -0.0540  0.0312
48156SOL    HW251074   3.681   2.793   9.180 -0.1495 -0.7706  0.1261
48157SOL     OW51075   2.000   6.554   0.370  0.2789  0.0432 -0.1732
48157SOL    HW151076   2.019   6.545   0.463  1.2589 -1.5729 -0.4898
48157SOL    HW251077   2.072   6.607   0.336  0.3960 -0.1080 -0.1611
48158SOL     OW51078   8.790  11.464   1.975 -0.5640  0.0149  0.0966
48158SOL    HW151079   8.857  11.411   1.931 -0.4319  0.0895  0.2071
48158SOL    HW251080   8.815  11.554   1.955 -1.0254  0.0314 -0.4473
48159SOL     OW51081   0.766  12.084   0.493  0.3580  0.6585 -0.0503
48159SOL    HW151082   0.762  12.089   0.589 -1.1987  2.4086 -0.1576
48159SOL    HW251083   0.832  12.017   0.476 -0.8961 -1.3454  2.2561
48160SOL     OW51084   5.373   4.445   2.006  0.1387 -0.0612 -0.1611
48160SOL    HW151085   5.403   4.450   1.916  0.4182 -1.0158 -0.1301
48160SOL    HW251086   5.433   4.385   2.049 -1.5362 -1.7142 -0.0042
48161SOL     OW51087   7.752   1.847   5.471 -0.0488  0.0273 -0.2438
48161SOL    HW151088   7.806   1.772   5.448  0.8746  0.9199 -1.0599
48161SOL    HW251089   7.757   1.853   5.566  1.3736  0.1502 -0.3172
48162SOL     OW51090   7.807   8.362   6.400 -0.1529  0.4220 -0.1271
48162SOL    HW151091   7.786   8.347   6.308  0.9992 -1.5113 -0.1291
48162SOL    HW251092   7.732   8.324   6.448  0.0103 -0.0672 -0.2527
48163SOL     OW51093   5.449   8.521   5.805 -0.1277  0.3569 -0.3718
48163SOL    HW151094   5.543   8.515   5.825 -0.3322 -1.1608  0.2693
48163SOL    HW251095   5.412   8.569   5.879 -0.0411 -0.2553  0.0778
48164SOL     OW51096  10.731  10.757   3.653  0.2133  0.2204 -0.5176
48164SOL    HW151097  10.805  10.733   3.708 -0.0368  2.3247  0.8667
48164SOL    HW251098  10.681  10.820   3.706 -2.5010 -0.9909 -1.4395
48165SOL     OW51099   2.284   8.475  10.152  0.2039  0.2519  0.0213
48165SOL    HW151100   2.236   8.442  10.076 -0.1229  0.2143  0.2411
48165SOL    HW251101   2.278   8.570  10.144 -1.3297  0.2626  0.9176
48166SOL     OW51102  11.874   7.414   1.938 -0.5976 -0.1242  0.8090
48166SOL    HW151103  11.800   7.469   1.913 -0.1319  0.8421  1.4515
48166SOL    HW251104  11.847   7.374   2.021 -0.4261  0.1901  1.0187
48167SOL     OW51105   7.066  11.814   2.939 -0.1876  0.0038  0.8596
48167SOL    HW151106   7.019  11.849   2.863 -2.6071 -2.7359  0.9170
48167SOL    HW251107   7.060  11.885   3.004 -0.0712  1.5270 -0.7046
48168SOL     OW51108   5.723   9.360   9.100 -0.1474 -0.4071 -0.1587
48168SOL    HW151109   5.805   9.315   9.076 -0.3237 -0.7496 -0.1315
48168SOL    HW251110   5.740   9.395   9.187  1.2898  2.7647 -1.5426
48169SOL     OW51111   1.484   3.430   4.186 -0.5005  0.2652 -0.3615
48169SOL    HW151112   1.492   3.373   4.109  0.3225  1.4515 -1.1873
48169SOL    HW251113   1.404   3.400   4.229 -0.5022 -1.0110 -1.1789
48170SOL     OW51114   7.975   3.413   2.479 -0.1219  0.5267  0.1180
48170SOL    HW151115   7.897   3.450   2.521  0.5404 -0.2684  2.1639
48170SOL    HW251116   8.027   3.490   2.454 -1.3694  1.0576 -0.9923
48171SOL     OW51117  10.979   2.557  11.223  0.2947 -0.2464 -0.2771
48171SOL    HW151118  10.974   2.582  11.316 -0.9539 -0.2693 -0.3223
48171SOL    HW251119  10.968   2.639  11.176  2.8328  0.0749 -0.4419
48172SOL     OW51120   3.309   8.086   1.179  0.2637  0.3463 -0.4303
48172SOL    HW151121   3.271   8.146   1.243 -0.4646 -1.3936  0.8493
48172SOL    HW251122   3.240   8.070   1.115 -0.1960 -0.5111  0.2534
48173SOL     OW51123   1.139   0.181   7.491 -0.6921 -0.4312  0.4557
48173SOL    HW151124   1.175   0.216   7.572 -0.7509 -0.3049  0.4266
48173SOL    HW251125   1.080   0.249   7.459 -1.5428 -0.9353  0.8970
48174SOL     OW51126   1.615   3.470   3.775  0.2928 -0.1736 -0.7568
48174SOL    HW151127   1.528   3.452   3.740 -0.0748 -0.4944  0.2832
48174SOL    HW251128   1.628   3.564   3.760 -1.1273  0.3591  0.9268
48175SOL     OW51129   0.025   1.178   7.904  0.3632 -0.2948  0.0996
48175SOL    HW151130   0.100   1.190   7.962  0.2617  1.3300 -0.0600
48175SOL    HW251131   0.058   1.198   7.817 -0.0517 -0.3598 -0.0754
48176SOL     OW51132   2.425   2.108  10.003 -0.0424  0.2660  0.5595
48176SOL    HW151133   2.342   2.083  10.044  1.2983 -1.3086  2.5065
48176SOL    HW251134   2.456   2.027   9.961  0.0439  1.1040 -1.0647
48177SOL     OW51135   6.671   7.297   8.412  0.0638  0.0551  0.0042
48177SOL    HW151136   6.595   7.259   8.455 -0.0804  0.0596 -0.2479
48177SOL    HW251137   6.719   7.341   8.483 -0.0400 -0.1493  0.2047
48178SOL     OW51138   3.517   9.758   7.732 -0.1612  0.2029  0.3134
48178SOL    HW151139   3.567   9.736   7.653  0.3336 -0.3872  0.7728
48178SOL    HW251140   3.583   9.789   7.794 -0.5908  0.9948  0.3866
48179SOL     OW51141   4.606   3.693  11.238  0.3206 -0.0708  0.1754
48179SOL    HW151142   4.630   3.635  11.166 -1.1704 -1.7248  0.9179
48179SOL    HW251143   4.518   3.665  11.263  0.8973  0.2223  2.8384
48180SOL     OW51144   0.588   8.052   7.384  0.0900  0.1055 -0.0474
48180SOL    HW151145   0.547   8.113   7.445 -0.8871  0.8508 -1.4006
48180SOL    HW251146   0.620   8.108   7.312  1.9243 -0.6542  0.1106
48181SOL     OW51147   6.340   2.523   1.385 -0.1476 -0.3039  0.1020
48181SOL    HW151148   6.371   2.536   1.295 -1.0243  0.2746 -0.1336
48181SOL    HW251149   6.402   2.570   1.440  0.6878 -1.0894 -0.1501
48182SOL     OW51150  12.678   9.568   6.240 -0.1084 -0.0512  0.4816
48182SOL    HW151151  12.681   9.511   6.163 -1.2353 -0.0580  0.4138
48182SOL    HW251152  12.668   9.509   6.314  1.0177 -0.0449  0.6511
48183SOL     OW51153   3.315   0.899   6.519 -0.7564 -0.4797  0.1499
48183SOL    HW151154   3.287   0.860   6.601 -2.1228 -0.3715 -0.2355
48183SOL    HW251155   3.353   0.983   6.544 -0.9984 -0.5272  0.6844
48184SOL     OW51156   0.508   3.123   2.701  0.4668  0.5009 -0.0800
48184SOL    HW151157   0.514   3.060   2.629  1.2441  0.6129 -0.1219
48184SOL    HW251158   0.572   3.190   2.679  1.2924  0.1361  1.0984
48185SOL     OW51159   1.836   1.301  11.564 -0.0905  0.2636  0.2910
48185SOL    HW151160   1.806   1.333  11.649  0.4913 -0.7679  0.9145
48185SOL    HW251161   1.771   1.332  11.502  0.2305  2.2691  0.8992
48186SOL     OW51162   5.405   5.019   7.858  0.7468  0.1831  0.1452
48186SOL    HW151163   5.440   5.091   7.805 -0.4529 -0.0309 -1.0071
48186SOL    HW251164   5.437   5.036   7.946  1.6307  1.3548 -0.3731
48187SOL     OW51165   6.079   4.459   6.315  0.0400 -0.2424 -0.1604
48187SOL    HW151166   6.093   4.471   6.409  0.3167 -1.3833 -0.0379
48187SOL    HW251167   6.016   4.387   6.310  1.3514 -1.3803 -0.8585
48188SOL     OW51168   0.805   6.191   8.677  0.3862 -0.0708  0.4422
48188SOL    HW151169   0.771   6.137   8.748 -1.6036  0.2435 -0.2160
48188SOL    HW251170   0.895   6.211   8.703 -0.1948 -0.1762  2.7242
48189SOL     OW51171   6.031   8.278   5.580  0.2668 -0.2013 -0.0431
48189SOL    HW151172   6.099   8.302   5.643  2.5576 -0.8790 -2.0928
48189SOL    HW251173   6.078   8.266   5.497 -2.5132  0.1799 -1.8134
48190SOL     OW51174   6.464   1.490   3.152  0.4246 -0.1225  0.7404
48190SOL    HW151175   6.395   1.468   3.089  1.3221  0.1164 -0.3497
48190SOL    HW251176   6.433   1.452   3.234 -1.9358  1.6285  0.7532
48191SOL     OW51177  11.866   2.618   6.546 -0.0482 -0.6849  0.2403
48191SOL    HW151178  11.918   2.591   6.469  0.2049  0.8043 -0.1341
48191SOL    HW251179  11.801   2.678   6.511 -0.3562 -0.4970  1.1149
48192SOL     OW51180  10.063   8.066   4.082  0.3577  0.0228  0.4596
48192SOL    HW151181  10.102   8.153   4.071  2.1882 -0.5394  2.0324
48192SOL    HW251182   9.975   8.083   4.115  1.5889  1.3479  3.4390
48193SOL     OW51183   6.704   4.944   0.126  0.0435 -0.5238  0.8997
48193SOL    HW151184   6.690   4.881   0.196  2.0652 -0.7204  1.2001
48193SOL    HW251185   6.759   5.012   0.165  0.8651 -0.4228 -0.3545
48194SOL     OW51186  10.375   4.895   1.709 -0.0627  0.2354 -0.1532
48194SOL    HW151187  10.368   4.830   1.779  2.4056 -0.9901 -0.9028
48194SOL    HW251188  10.362   4.844   1.628 -0.6259  1.1849 -0.6797
48195SOL     OW51189  12.304   0.387   5.627 -0.3091  0.0245  0.6351
48195SOL    HW151190  12.352   0.377   5.545  0.7143  1.2674  1.0508
48195SOL    HW251191  12.230   0.444   5.605 -0.4834 -0.2887  0.4093
48196SOL     OW51192   8.845   9.213   6.905 -0.1106 -0.5497  0.0880
48196SOL    HW151193   8.760   9.249   6.932  0.8549  1.5372  0.5036
48196SOL    HW251194   8.835   9.118   6.917 -2.7041 -0.4917 -0.8085
48197SOL     OW51195   9.092   2.312   1.603  0.1156 -0.1041 -0.1696
48197SOL    HW151196   9.074   2.221   1.628  0.0251 -0.4446 -1.4424
48197SOL    HW251197   9.164   2.306   1.541 -0.5963  0.5837 -1.0997
48198SOL     OW51198   8.754   5.207  11.904 -0.0308  0.1648 -0.2532
48198SOL    HW151199   8.706   5.151  11.965 -2.2296  1.1787 -0.9142
48198SOL    HW251200   8.763   5.290  11.950 -0.7214  0.5892 -0.8524
48199SOL     OW51201  10.042   1.670  10.753 -0.5021  0.2776  0.0912
48199SOL    HW151202  10.015   1.581  10.729 -1.7527  0.8510 -0.7638
48199SOL    HW251203  10.029   1.721  10.673  4.0828  0.5238 -0.7917
48200SOL     OW51204   3.432   6.770   1.592  0.5931 -0.3974 -0.2306
48200SOL    HW151205   3.344   6.739   1.570  0.1890  0.3650  0.2917
48200SOL    HW251206   3.426   6.865   1.589  1.2024 -0.3191  0.5628
48201SOL     OW51207   8.466   5.929   5.542 -0.7111  0.1994  0.1808
48201SOL    HW151208   8.417   5.863   5.589 -1.1356 -1.0099 -1.8264
48201SOL    HW251209   8.431   5.927   5.453  1.0121  1.3286 -0.6049
48202SOL     OW51210   7.219   2.756   6.443  0.6523 -0.0080  0.3399
48202SOL    HW151211   7.171   2.761   6.526  0.9316  0.4609  0.4786
48202SOL    HW251212   7.154   2.778   6.376  0.8659  1.5356  0.6004
48203SOL     OW51213  10.024   6.235   0.376  0.3020  0.5628 -0.5251
48203SOL    HW151214   9.951   6.295   0.364 -0.6497 -0.4969 -0.2380
48203SOL    HW251215  10.102   6.287   0.357 -0.4754  1.9203 -0.0968
48204SOL     OW51216   7.061   5.016   0.853  0.3964  0.6699  0.1516
48204SOL    HW151217   7.098   4.958   0.920  0.4043  0.8099  0.2705
48204SOL    HW251218   7.000   4.961   0.805 -2.5725  1.4200  2.7050
48205SOL     OW51219   6.677  10.204   1.594  0.5791 -0.1038  0.2282
48205SOL    HW151220   6.676  10.275   1.659 -1.6961  1.2613 -1.1732
48205SOL    HW251221   6.610  10.143   1.626  0.5362 -0.1909 -0.0307
48206SOL     OW51222   2.242   0.681  10.022  0.0577  0.0289  0.3043
48206SOL    HW151223   2.195   0.598  10.029 -0.9356  0.4107 -1.1575
48206SOL    HW251224   2.228   0.708   9.931  3.2009  0.1562 -0.2538
48207SOL     OW51225  10.587  11.183   6.167 -0.2922 -0.1354  0.0827
48207SOL    HW151226  10.551  11.259   6.122 -0.7622 -0.3318  0.1155
48207SOL    HW251227  10.526  11.112   6.147  0.9361 -0.8811 -1.1769
48208SOL     OW51228   4.422   7.258   3.083 -0.1415  0.1176  0.0280
48208SOL    HW151229   4.382   7.305   3.156 -1.0792 -1.8720  0.8750
48208SOL    HW251230   4.511   7.291   3.079 -0.8471  2.2435  0.2736
48209SOL     OW51231   8.147   9.311   6.111  0.2511  0.4651  0.2130
48209SOL    HW151232   8.182   9.379   6.168 -0.8759  0.6930  0.6735
48209SOL    HW251233   8.189   9.230   6.139 -0.0262  0.6349  1.1303
48210SOL     OW51234   0.309   4.644  12.328 -0.1973  0.4591  0.2560
48210SOL    HW151235   0.246   4.666  12.397 -1.0597 -0.2276 -0.2914
48210SOL    HW251236   0.323   4.550  12.338  0.6322  0.5709  0.2589
48211SOL     OW51237   8.655   7.903  11.255 -0.2520  0.0058 -0.2880
48211SOL    HW151238   8.560   7.905  11.254 -0.2507  0.7949  0.1083
48211SOL    HW251239   8.678   7.814  11.229 -1.0537  0.3733 -2.3991
48212SOL     OW51240   9.846   7.345  10.521 -0.7258 -0.5817 -0.2192
48212SOL    HW151241   9.804   7.429  10.543  0.1088 -0.0562 -0.5851
48212SOL    HW251242   9.844   7.342  10.425  0.0673 -0.5505 -0.2381
48213SOL     OW51243   5.507   4.430   0.769 -0.1867 -0.0940 -0.2271
48213SOL    HW151244   5.508   4.502   0.832 -1.7718  1.4812 -1.8675
48213SOL    HW251245   5.419   4.392   0.777  0.3626 -1.3617  0.0531
48214SOL     OW51246   3.696   2.013   5.262  0.2456  0.3550 -0.4169
48214SOL    HW151247   3.783   2.010   5.222  0.5721 -1.0448  0.3404
48214SOL    HW251248   3.679   1.923   5.290 -1.8074  0.4259 -1.2561
48215SOL     OW51249   8.925   2.897  11.542 -0.0841 -0.5606  0.3515
48215SOL    HW151250   8.937   2.861  11.454  0.8776  1.6190 -0.4694
48215SOL    HW251251   8.997   2.860  11.593  0.5947 -0.2271 -0.3443
48216SOL     OW51252   1.364  10.052   0.114 -0.2831 -0.6391  0.4691
48216SOL    HW151253   1.277  10.087   0.094  0.6229  0.8426 -1.0930
48216SOL    HW251254   1.367  10.052   0.210 -1.9108 -0.5244  0.5591
48217SOL     OW51255   6.789   9.861   8.222  0.2143 -0.3302 -0.2753
48217SOL    HW151256   6.704   9.891   8.190  0.1924 -0.6585 -0.5310
48217SOL    HW251257   6.785   9.766   8.216  0.5518 -0.3540 -0.1614
48218SOL     OW51258   0.536   2.141   7.372 -0.2750 -0.0350  0.2264
48218SOL    HW151259   0.477   2.144   7.298 -1.0539  0.7817  0.8611
48218SOL    HW251260   0.577   2.228   7.374  0.8174 -0.5305 -0.1011
48219SOL     OW51261   0.199   2.779   3.384  0.2530  0.2037  0.1052
48219SOL    HW151262   0.178   2.699   3.335  1.9390  0.9311 -1.9934
48219SOL    HW251263   0.168   2.849   3.327 -0.4824  1.1054  1.5608
48220SOL     OW51264   5.996   8.878   8.550 -0.2346  0.0414 -0.4813
48220SOL    HW151265   5.929   8.886   8.619  0.7067  0.0478  0.4507
48220SOL    HW251266   6.039   8.964   8.549  0.3161 -0.2334 -0.4923
48221SOL     OW51267  12.148  11.194  11.286 -0.2229  0.4258  0.1676
48221SOL    HW151268  12.129  11.215  11.194 -1.4736  1.3674  0.6062
48221SOL    HW251269  12.176  11.103  11.285 -3.8292 -0.8372 -0.7887
48222SOL     OW51270   8.384   4.737  11.514  0.0193  0.4882  0.2634
48222SOL    HW151271   8.470   4.751  11.553 -0.3268 -0.3303  1.3730
48222SOL    HW251272   8.325   4.793  11.564 -0.5272 -1.0179  1.4009
48223SOL     OW51273   4.311  10.249   0.138 -0.6810 -0.5171 -0.1165
48223SOL    HW151274   4.297  10.237   0.232  2.4538 -1.5348  0.3537
48223SOL    HW251275   4.299  10.343   0.124 -0.9088 -0.3002  1.3847
48224SOL     OW51276   0.346  11.774   3.702 -0.8818  0.0736  0.1558
48224SOL    HW151277   0.392  11.852   3.735 -2.6947  1.3746 -0.2698
48224SOL    HW251278   0.317  11.799   3.614 -3.4208 -0.2125  0.8354
48225SOL     OW51279  12.669   3.870   6.422 -0.0471  0.5645  0.5391
48225SOL    HW151280  12.730   3.941   6.398 -0.4820  1.9060  3.0302
48225SOL    HW251281  12.641   3.834   6.338  1.4337  2.2825 -0.8013
48226SOL     OW51282   6.996   2.134   5.875 -0.2036  0.3395 -0.2711
48226SOL    HW151283   7.041   2.211   5.909  2.0085 -1.6371  1.6212
48226SOL    HW251284   6.903   2.155   5.882  0.3167  2.7000  0.4409
48227SOL     OW51285   9.659  12.419  10.840 -0.4794  0.2745 -0.8542
48227SOL    HW151286   9.610  12.377  10.770  1.0893 -2.6544 -0.3428
48227SOL    HW251287   9.603  12.411  10.917  0.0823 -1.6927 -0.5998
48228SOL     OW51288  12.685   1.588  11.816  0.1337 -0.4730  0.0779
48228SOL    HW151289  12.633   1.667  11.801  0.5750 -0.3566 -0.9004
48228SOL    HW251290  12.776   1.617  11.812  0.3081 -1.0655 -0.5936
48229SOL     OW51291  12.020  11.300   1.356  0.2291 -0.5448 -0.0597
48229SOL    HW151292  12.075  11.350   1.416  1.8811 -1.3291 -0.8575
48229SOL    HW251293  11.931  11.328   1.376  0.9101  0.8370  1.2187
48230SOL     OW51294   8.739   4.789   3.289  0.1648  0.4800 -0.5656
48230SOL    HW151295   8.787   4.747   3.217 -0.5708  2.4266 -2.2908
48230SOL    HW251296   8.801   4.792   3.361  1.4674 -0.1569 -1.6208
48231SOL     OW51297   1.865   3.374  10.930  0.4311  0.1308  0.5820
48231SOL    HW151298   1.853   3.293  10.879 -0.3383 -0.0995  1.1143
48231SOL    HW251299   1.782   3.421  10.921  0.8073  0.7763  0.4366
48232SOL     OW51300   1.530   7.004   7.394 -0.0226  0.1780 -0.1862
48232SOL    HW151301   1.562   6.914   7.397 -0.6954 -0.1540 -2.1137
48232SOL    HW251302   1.594   7.053   7.447 -0.3776 -1.5815  2.0260
48233SOL     OW51303   4.658   6.585  11.540 -0.1495  0.2027 -0.2881
48233SOL    HW151304   4.679   6.618  11.452  0.7102 -1.3073 -0.6745
48233SOL    HW251305   4.709   6.642  11.599  0.7953  0.0098 -0.8970
48234SOL     OW51306   9.491  12.787   9.339 -0.5834  0.1760 -0.1724
48234SOL    HW151307   9.520  12.878   9.336  0.6338 -0.2037 -1.1262
48234SOL    HW251308   9.572  12.736   9.329 -1.3122 -0.9910 -0.3156
48235SOL     OW51309  10.120   9.736  11.203 -0.0675  0.4815  0.0318
48235SOL    HW151310  10.182   9.664  11.199 -0.2697  0.3186 -0.2541
48235SOL    HW251311  10.110   9.764  11.112 -1.5013 -0.4363 -0.1156
48236SOL     OW51312   1.471   8.043   6.535  0.1108  0.3701  0.8056
48236SOL    HW151313   1.479   8.121   6.480 -0.8275 -0.6339 -0.8240
48236SOL    HW251314   1.532   7.981   6.496  0.6135  0.1530  1.8995
48237SOL     OW51315   4.063   6.328   1.121  0.7218 -0.7615  0.6287
48237SOL    HW151316   4.076   6.344   1.215  1.2166  1.9520  0.1670
48237SOL    HW251317   4.147   6.293   1.091  1.5018  0.8863  0.7596
48238SOL     OW51318   6.188   4.461  12.742 -0.4192 -0.2982  0.2156
48238SOL    HW151319   6.112   4.470  12.800 -0.1231  1.1236  0.4155
48238SOL    HW251320   6.166   4.512  12.665  0.6665  0.8747  0.6429
48239SOL     OW51321   9.159  12.089  10.406  0.2434 -0.3865 -0.2900
48239SOL    HW151322   9.072  12.100  10.366  0.0661 -1.0681 -0.1016
48239SOL    HW251323   9.217  12.073  10.332  0.1831 -0.1004 -0.4019
48240SOL     OW51324   2.404   7.270   0.290 -0.5302 -0.2491 -0.0609
48240SOL    HW151325   2.433   7.339   0.231 -3.3102  0.0627 -1.2035
48240SOL    HW251326   2.421   7.304   0.378  0.5899  0.7046 -0.6172
48241SOL     OW51327   3.027  11.881   5.888  0.3799 -0.2804 -0.3390
48241SOL    HW151328   2.982  11.801   5.914 -1.3251  0.9597  0.7212
48241SOL    HW251329   3.083  11.854   5.816 -1.7321 -2.0263 -1.4511
48242SOL     OW51330   1.202   4.775   9.386 -0.8966  0.3886 -0.3845
48242SOL    HW151331   1.289   4.758   9.350 -0.4984  0.1497  0.6708
48242SOL    HW251332   1.155   4.692   9.375 -0.6496  0.1959 -0.0092
48243SOL     OW51333  11.334  11.684  10.769 -0.8139  0.0695 -0.0384
48243SOL    HW151334  11.253  11.734  10.776  0.1047  1.5862  0.1540
48243SOL    HW251335  11.389  11.716  10.840  0.2570 -0.3474 -0.6498
48244SOL     OW51336   6.109   6.235   9.107 -0.0424 -0.3051  0.6925
48244SOL    HW151337   6.018   6.231   9.077 -0.3740  0.1648  1.5880
48244SOL    HW251338   6.109   6.304   9.174  1.2013  0.4105 -0.0239
48245SOL     OW51339   9.423   3.216   1.881 -0.0651  0.0985  0.3286
48245SOL    HW151340   9.435   3.302   1.921  0.9331 -0.0852  0.4406
48245SOL    HW251341   9.361   3.231   1.810 -0.0872  0.8584  0.5017
48246SOL     OW51342   9.203   1.377   3.363 -0.0717  0.4716 -0.1348
48246SOL    HW151343   9.201   1.310   3.431 -0.0317  0.5978 -0.0068
48246SOL    HW251344   9.234   1.456   3.409  1.7558  0.1218 -0.6802
48247SOL     OW51345   2.489   6.967  12.212  0.0191  0.2971 -0.4334
48247SOL    HW151346   2.578   6.946  12.185  0.5342  0.4738  1.0301
48247SOL    HW251347   2.437   6.962  12.132  1.5795  1.5505 -1.5625
48248SOL     OW51348   5.148   2.543   5.035  0.0775  0.1353  0.0647
48248SOL    HW151349   5.155   2.631   5.072 -2.6698  0.2214  0.5888
48248SOL    HW251350   5.180   2.552   4.945  2.4854  0.9707  0.9322
48249SOL     OW51351   9.940   4.846   6.895 -0.1247  0.1422 -0.5914
48249SOL    HW151352   9.986   4.762   6.900  1.2020  0.8714  0.1072
48249SOL    HW251353   9.929   4.872   6.987 -1.3171  0.3364 -0.7737
48250SOL     OW51354   9.579  11.568   3.741 -0.0766  0.0054 -0.1082
48250SOL    HW151355   9.560  11.593   3.832  1.5170 -3.4907  1.3626
48250SOL    HW251356   9.512  11.502   3.720  1.6685 -1.8654 -0.0596
48251SOL     OW51357   3.310  10.394   7.926 -0.3681 -0.2652 -0.2364
48251SOL    HW151358   3.254  10.363   7.855 -0.7386  1.3395 -0.6829
48251SOL    HW251359   3.270  10.358   8.005 -1.4157 -0.0394 -0.6444
48252SOL     OW51360   2.662   3.053   9.017 -0.4183  0.4266  0.1982
48252SOL    HW151361   2.711   2.992   9.073  1.2669  0.4040 -1.2228
48252SOL    HW251362   2.627   2.998   8.947 -2.6853  0.4222  1.2300
48253SOL     OW51363  10.067   0.144   5.661  0.5200 -1.1000 -0.1916
48253SOL    HW151364  10.118   0.139   5.580  1.0929 -0.0556  0.0894
48253SOL    HW251365   9.995   0.082   5.647  0.1169 -0.3248 -1.8528
48254SOL     OW51366   1.842   3.574  12.201 -0.4551  0.1917  0.5151
48254SOL    HW151367   1.926   3.598  12.241 -0.6516 -1.2003  1.8793
48254SOL    HW251368   1.787   3.651  12.214  0.6561  1.2195 -0.6239
48255SOL     OW51369   7.355   3.467   5.358  0.2502  0.0792 -0.2051
48255SOL    HW151370   7.319   3.437   5.274  1.8772 -0.1975 -0.8489
48255SOL    HW251371   7.366   3.561   5.347 -0.4957  0.2010  0.0814
48256SOL     OW51372   0.488   3.666   0.391  0.0149  0.2975 -0.2524
48256SOL    HW151373   0.434   3.645   0.315 -0.7999  0.0684  0.3763
48256SOL    HW251374   0.534   3.746   0.367 -0.7919  0.6266 -0.7112
48257SOL     OW51375  11.724   9.495   2.799 -0.1095 -0.4731 -0.1572
48257SOL    HW151376  11.795   9.502   2.735  0.3757 -0.0838  0.4120
48257SOL    HW251377  11.752   9.424   2.858 -0.2139 -0.3453  0.0472
48258SOL     OW51378   4.015   9.308   8.357  0.3684  0.5768 -0.1768
48258SOL    HW151379   3.955   9.362   8.306  1.2151  0.9056 -0.8541
48258SOL    HW251380   3.959   9.263   8.421 -0.6792  0.3324 -1.2375
48259SOL     OW51381   6.221   5.059   8.555  0.5005  0.1673 -0.2944
48259SOL    HW151382   6.167   4.982   8.574  1.0557 -0.4620 -1.2178
48259SOL    HW251383   6.263   5.080   8.639 -3.1634  2.3435  1.2160
48260SOL     OW51384   8.795   7.320   8.460  0.7072 -0.1143  0.1966
48260SOL    HW151385   8.738   7.360   8.526  1.8426  0.3551  0.9364
48260SOL    HW251386   8.870   7.380   8.454  0.2836  0.2826 -2.1277
48261SOL     OW51387   2.526   7.604   3.574  0.5346 -0.1722 -0.4406
48261SOL    HW151388   2.450   7.662   3.571  1.7824  1.5577 -0.1602
48261SOL    HW251389   2.527   7.561   3.489 -1.1568 -0.8026 -0.1799
48262SOL     OW51390   3.518   9.872  12.548  0.8953  0.1737 -0.3945
48262SOL    HW151391   3.599   9.822  12.561  1.6426  1.2352 -0.7442
48262SOL    HW251392   3.467   9.820  12.486  2.4321  0.6556 -2.1467
48263SOL     OW51393   3.188   8.978   5.152  0.0869 -0.2369  0.6016
48263SOL    HW151394   3.278   9.006   5.137  0.1264 -0.5063  0.3348
48263SOL    HW251395   3.184   8.959   5.246 -0.1445  1.3844  0.9443
48264SOL     OW51396  12.119   1.717  12.600  0.1042 -0.2324  0.0120
48264SOL    HW151397  12.163   1.778  12.658 -0.0334 -0.8290  0.7574
48264SOL    HW251398  12.035   1.699  12.642  0.0387 -0.7341 -0.3211
48265SOL     OW51399  10.740  10.114   4.919 -0.0530 -0.2518 -0.2575
48265SOL    HW151400  10.696  10.046   4.868 -1.1849  0.7569 -0.6565
48265SOL    HW251401  10.680  10.131   4.993 -1.3314  2.4014 -1.7520
48266SOL     OW51402   2.611   9.322   6.682 -0.1935  0.9236  0.1830
48266SOL    HW151403   2.627   9.338   6.589 -0.0362  0.2310  0.0817
48266SOL    HW251404   2.554   9.394   6.710 -1.3357  0.4203 -0.7693
48267SOL     OW51405   6.934   2.257   0.944 -0.3955  0.2888 -0.5894
48267SOL    HW151406   6.859   2.205   0.972 -0.3713  0.6706  0.2163
48267SOL    HW251407   6.986   2.197   0.891 -0.9523 -0.1631 -0.6305
48268SOL     OW51408   1.127   4.171   9.732 -0.0060  0.8713  0.2219
48268SOL    HW151409   1.170   4.237   9.678 -0.8206  1.3424  0.1290
48268SOL    HW251410   1.069   4.124   9.672  1.3057 -0.6289  0.0740
48269SOL     OW51411   5.454   2.630  10.939  0.0207  0.1723 -0.1241
48269SOL    HW151412   5.416   2.632  11.027 -2.4444 -1.8848 -1.0105
48269SOL    HW251413   5.447   2.720  10.908 -1.8232  0.3980  0.7713
48270SOL     OW51414   1.387   9.499   9.519  0.1101 -0.1255 -0.3138
48270SOL    HW151415   1.472   9.533   9.547 -0.3692  0.5252  0.4088
48270SOL    HW251416   1.399   9.404   9.513  0.0355 -0.4627  3.0849
48271SOL     OW51417   8.252   5.014   2.383 -0.6218  0.8303  0.2891
48271SOL    HW151418   8.225   5.096   2.424 -0.5434  0.8984  0.2037
48271SOL    HW251419   8.347   5.013   2.392 -0.7760 -0.7135  3.1065
48272SOL     OW51420   6.668  10.616   8.404 -0.2319 -0.0184  0.2515
48272SOL    HW151421   6.612  10.546   8.369 -1.0361 -1.0487  3.2818
48272SOL    HW251422   6.733  10.571   8.457  1.4511  1.4038 -0.4956
48273SOL     OW51423   1.287   4.032   6.277  0.2462 -0.1288  0.0863
48273SOL    HW151424   1.262   3.969   6.209  0.3867  0.1074 -0.1896
48273SOL    HW251425   1.205   4.072   6.303  0.4500  2.1692 -2.3259
48274SOL     OW51426   2.303   8.048   7.980  0.0858 -0.3760 -0.0862
48274SOL    HW151427   2.270   8.100   7.907 -1.0945 -2.2068 -0.9471
48274SOL    HW251428   2.380   8.003   7.946  1.2382  0.9159  0.7217
48275SOL     OW51429  12.531   4.397   3.861 -0.4164  0.4323 -0.4442
48275SOL    HW151430  12.526   4.326   3.798 -0.0630 -0.0367  0.0497
48275SOL    HW251431  12.620   4.432   3.851 -0.7509  1.1613 -1.0508
48276SOL     OW51432  10.875   1.383   3.544  0.3771  0.3755  0.1087
48276SOL    HW151433  10.856   1.427   3.628  0.6156  0.9788 -0.1455
48276SOL    HW251434  10.960   1.417   3.519 -0.0451  0.8134 -0.7762
48277SOL     OW51435  11.959   6.695   9.936 -0.6252 -0.1678 -0.1898
48277SOL    HW151436  11.929   6.733  10.019  1.9441  2.3340 -0.2707
48277SOL    HW251437  12.041   6.651   9.958 -0.1306  0.1638 -1.3374
48278SOL     OW51438   2.742   4.834   9.612  0.3808  0.7323  0.0290
48278SOL    HW151439   2.652   4.838   9.644  0.2329 -1.9640  0.2015
48278SOL    HW251440   2.732   4.818   9.518  0.7259  1.8289 -0.2041
48279SOL     OW51441   5.663   0.141  11.026 -0.1692 -0.5104  0.3370
48279SOL    HW151442   5.650   0.046  11.036  0.7156 -1.0222 -2.4163
48279SOL    HW251443   5.591   0.169  10.970 -0.9664  0.7048  1.8898
48280SOL     OW51444   1.950   4.132  11.127  0.2834  0.3774  0.3589
48280SOL    HW151445   1.898   4.111  11.049 -1.0134  1.5189  0.8652
48280SOL    HW251446   1.910   4.079  11.196  1.0940 -0.2323  0.3756
48281SOL     OW51447  11.962   7.891  12.116  0.2872 -0.3123  0.2260
48281SOL    HW151448  11.908   7.822  12.078 -0.6809  0.0703  0.8740
48281SOL    HW251449  11.908   7.969  12.111  0.1924 -0.2128  2.1983
48282SOL     OW51450  12.004   0.143  10.273  0.0131  0.2459  0.5424
48282SOL    HW151451  11.917   0.112  10.299  0.5669 -2.3311 -0.3026
48282SOL    HW251452  12.008   0.127  10.179  1.1720  0.9863  0.4507
48283SOL     OW51453   8.942   4.315   8.802 -0.0073 -0.1943  0.1088
48283SOL    HW151454   8.885   4.330   8.726 -1.2956  1.3434  1.3159
48283SOL    HW251455   9.029   4.342   8.772  0.0746 -2.0953 -1.6101
48284SOL     OW51456   9.569   8.261   1.666 -0.2574 -0.0309  0.1262
48284SOL    HW151457   9.517   8.335   1.635  0.6920  0.3948 -0.5080
48284SOL    HW251458   9.581   8.207   1.587  2.0728  0.9873 -0.2728
48285SOL     OW51459   5.359   6.838  12.070  0.0115 -0.9238  0.2423
48285SOL    HW151460   5.307   6.917  12.087  0.9839 -0.4335  1.0632
48285SOL    HW251461   5.308   6.767  12.109 -0.8556 -0.7068 -0.4700
48286SOL     OW51462   6.674   7.473   4.417  0.5304  0.3135  0.3537
48286SOL    HW151463   6.639   7.557   4.446  0.5806  0.2084  0.7347
48286SOL    HW251464   6.619   7.448   4.343  0.2776  0.5083  0.4730
48287SOL     OW51465   0.297  12.530   2.696 -0.0162  0.0083  0.4130
48287SOL    HW151466   0.279  12.519   2.789  0.7831  2.7642  0.9717
48287SOL    HW251467   0.384  12.493   2.683  1.3807  2.6602  1.5842
48288SOL     OW51468  12.609   0.359   0.668 -0.4316  0.4347 -0.5055
48288SOL    HW151469  12.681   0.420   0.651 -0.1862  0.2332 -0.2067
48288SOL    HW251470  12.534   0.396   0.622 -0.4261  1.2608  0.1312
48289SOL     OW51471   5.549   9.494   5.101  0.1284 -0.0624  0.2360
48289SOL    HW151472   5.506   9.423   5.054 -1.0184  0.1852  0.8767
48289SOL    HW251473   5.534   9.474   5.193 -3.0938  2.5967  0.4858
48290SOL     OW51474   9.429  11.256  10.169 -0.3655 -0.3226  0.1563
48290SOL    HW151475   9.381  11.315  10.111  0.2489 -0.5141 -0.5686
48290SOL    HW251476   9.395  11.274  10.257 -1.1459  0.1370 -0.2369
48291SOL     OW51477   3.185  11.263   4.307  0.3932 -0.4470  0.0004
48291SOL    HW151478   3.188  11.267   4.211  0.4903  1.8897  0.0478
48291SOL    HW251479   3.277  11.260   4.333  0.3788 -0.5418  0.0409
48292SOL     OW51480  12.700  11.000   9.238 -0.2391  0.5008  0.4261
48292SOL    HW151481  12.610  11.032   9.240  0.1599  1.6588  0.6116
48292SOL    HW251482  12.753  11.077   9.256  0.7331 -0.4393  1.8194
48293SOL     OW51483   5.511  10.644   4.875  0.0091 -0.7375  0.0367
48293SOL    HW151484   5.445  10.703   4.838 -1.2925 -2.4574 -0.4982
48293SOL    HW251485   5.517  10.572   4.813  1.1263 -1.4724  0.9540
48294SOL     OW51486   1.329  11.248   7.153 -0.1684 -0.6187 -0.0944
48294SOL    HW151487   1.248  11.246   7.101  0.9545 -1.8463 -1.9340
48294SOL    HW251488   1.301  11.274   7.241 -2.3117  0.6110 -1.0624
48295SOL     OW51489   9.697   7.741   9.865  0.1093 -0.1473 -0.2006
48295SOL    HW151490   9.793   7.740   9.866  0.1290  0.5852 -0.6802
48295SOL    HW251491   9.672   7.651   9.845  0.6940 -0.3470 -0.0497
48296SOL     OW51492   2.981   7.179   3.951 -0.0652 -0.1893  0.1474
48296SOL    HW151493   2.998   7.177   4.045 -0.8273 -0.6803  0.2885
48296SOL    HW251494   2.892   7.214   3.943 -0.0950 -0.3625 -0.3744
48297SOL     OW51495   4.974   5.554   1.413 -0.0581  0.9839  0.1803
48297SOL    HW151496   4.878   5.545   1.414  0.0926 -1.3795  1.9000
48297SOL    HW251497   4.994   5.611   1.487 -0.1747  4.0750 -1.9589
48298SOL     OW51498   0.503   4.014   2.052  0.6993  0.3247  0.2047
48298SOL    HW151499   0.597   4.020   2.067  0.7051  0.5769  0.0742
48298SOL    HW251500   0.475   3.936   2.101  0.9247  0.4233  0.4919
48299SOL     OW51501   3.331  10.646   6.856 -1.0351 -0.1813 -0.7126
48299SOL    HW151502   3.301  10.653   6.947  0.6589 -0.9111 -0.0494
48299SOL    HW251503   3.373  10.560   6.851 -1.3234 -0.2659 -2.2784
48300SOL     OW51504   7.457  10.766   3.582 -0.0554  0.7115 -0.4508
48300SOL    HW151505   7.541  10.809   3.570  1.6023 -0.8087  3.8083
48300SOL    HW251506   7.471  10.676   3.552 -0.8589  0.9445 -1.5888
48301SOL     OW51507  10.458   2.772   3.567  0.5384 -0.0207 -0.2470
48301SOL    HW151508  10.367   2.742   3.560  0.1970  0.4058  1.5880
48301SOL    HW251509  10.510   2.692   3.569 -0.1322 -0.4868  1.9308
48302SOL     OW51510   5.583  10.452   8.347 -0.2262 -0.0382  0.0105
48302SOL    HW151511   5.558  10.381   8.288 -0.1474 -0.0171 -0.0478
48302SOL    HW251512   5.675  10.436   8.367 -0.4321 -0.4335  0.6698
48303SOL     OW51513   3.719  10.816   0.465 -0.1435 -0.0213 -0.2909
48303SOL    HW151514   3.680  10.884   0.520 -0.6244  0.1766 -0.8708
48303SOL    HW251515   3.670  10.819   0.383  0.7448 -0.1175 -0.8467
48304SOL     OW51516   8.032   0.352   3.313  1.0131  0.8070  0.3178
48304SOL    HW151517   7.938   0.363   3.301  0.1781 -3.2494  1.6025
48304SOL    HW251518   8.070   0.365   3.226 -0.8637  1.2688 -0.4673
48305SOL     OW51519   3.212   1.314  11.531 -0.1858  0.1255  0.1258
48305SOL    HW151520   3.244   1.225  11.520 -1.5272 -0.3738  0.1193
48305SOL    HW251521   3.204   1.348  11.442 -0.2546  0.0280  0.0941
48306SOL     OW51522   7.404  10.368  10.943 -0.0235  0.2834  0.3698
48306SOL    HW151523   7.403  10.385  10.849 -1.1705  0.3238  0.3734
48306SOL    HW251524   7.417  10.273  10.950 -3.0468 -0.2743  0.0188
48307SOL     OW51525   4.665  10.122   8.541  0.3282 -0.4481 -0.6705
48307SOL    HW151526   4.730  10.110   8.610 -2.4628  0.7803  2.4518
48307SOL    HW251527   4.592  10.066   8.566 -0.3304 -0.9647 -3.4342
48308SOL     OW51528   3.048   9.971   0.859  0.2839 -0.1931 -0.1299
48308SOL    HW151529   2.986   9.989   0.789  0.5468  1.7760  0.1102
48308SOL    HW251530   3.002   9.996   0.939  1.1600  0.7497  0.0951
48309SOL     OW51531   6.181   5.131   1.239  0.1685  0.3667  0.0153
48309SOL    HW151532   6.252   5.187   1.210 -0.0571 -0.4859 -2.4804
48309SOL    HW251533   6.201   5.046   1.200 -2.2905  0.1744 -1.0082
48310SOL     OW51534   8.998  12.121   9.631  0.1597  1.0490  0.1966
48310SOL    HW151535   8.978  12.033   9.599 -0.4035  1.6146 -1.0551
48310SOL    HW251536   8.995  12.113   9.727 -0.9389 -0.0490  0.0883
48311SOL     OW51537  11.481  11.628   6.010 -0.1228 -0.3105 -0.3510
48311SOL    HW151538  11.511  11.619   6.101  0.3240 -0.4362 -0.5093
48311SOL    HW251539  11.452  11.719   6.004 -0.8800 -0.5172  0.1311
48312SOL     OW51540   4.473   1.430   4.575  0.3412 -0.1062 -0.3171
48312SOL    HW151541   4.562   1.463   4.562 -0.5526  3.0404  0.6702
48312SOL    HW251542   4.436   1.428   4.487  0.7846  0.4625 -0.5267
48313SOL     OW51543  11.996   1.067  11.378 -0.4655  0.4863 -0.7259
48313SOL    HW151544  12.050   1.104  11.308  1.1714 -4.3286 -2.4429
48313SOL    HW251545  11.933   1.011  11.333 -1.9952  0.2271  1.5844
48314SOL     OW51546   0.563  11.992   4.073 -0.1019  0.0502 -0.3457
48314SOL    HW151547   0.497  11.958   4.013 -1.4646  3.7035 -1.1983
48314SOL    HW251548   0.515  12.007   4.155 -0.0766  1.5199 -0.5718
48315SOL     OW51549   9.284   2.027   9.726 -0.2594 -0.1484  0.2513
48315SOL    HW151550   9.258   2.054   9.813 -1.1932  0.9255 -0.3332
48315SOL    HW251551   9.297   1.932   9.733  0.6009  0.0540  1.7493
48316SOL     OW51552   7.787   0.254   9.166  0.1523  0.0963  0.0683
48316SOL    HW151553   7.785   0.164   9.133  0.4976  0.6453 -1.5236
48316SOL    HW251554   7.856   0.297   9.115 -2.2924  2.1691 -1.7030
48317SOL     OW51555   0.569   6.514  10.910 -0.0377  0.3837  0.1125
48317SOL    HW151556   0.493   6.571  10.901 -0.9122 -0.5602  1.1726
48317SOL    HW251557   0.534   6.425  10.897  1.1113  0.0046 -0.5815
48318SOL     OW51558  10.469   9.647   2.082 -0.4821 -0.2017  0.1876
48318SOL    HW151559  10.488   9.734   2.118 -0.7196  0.4547 -1.1916
48318SOL    HW251560  10.388   9.659   2.033 -1.1485 -1.4940  0.9164
48319SOL     OW51561   6.074   0.105   6.798 -0.0841 -0.3639 -0.0931
48319SOL    HW151562   6.047   0.182   6.748  0.2924  0.0950  0.3961
48319SOL    HW251563   5.992   0.063   6.823 -0.2766 -1.0420 -1.7427
48320SOL     OW51564   8.627   8.233  10.962  0.4065  0.7086  0.2094
48320SOL    HW151565   8.676   8.251  11.042  1.0805 -1.6325  0.3956
48320SOL    HW251566   8.682   8.265  10.891  0.3178  1.7624  0.5965
48321SOL     OW51567   2.432   3.609   0.089 -0.3610  0.6396 -0.1787
48321SOL    HW151568   2.445   3.703   0.079 -0.4100  0.8297  1.3523
48321SOL    HW251569   2.356   3.601   0.146  0.3169 -0.2970  0.6203
48322SOL     OW51570   9.567   9.141   6.791  0.1619 -0.2148 -0.3156
48322SOL    HW151571   9.501   9.103   6.734 -0.3041  1.0616 -0.6734
48322SOL    HW251572   9.642   9.082   6.785 -0.7003 -1.3277 -0.4255
48323SOL     OW51573   5.775   9.891   2.006  0.0420  0.3367 -0.0550
48323SOL    HW151574   5.830   9.964   2.034 -0.7332  0.4386  1.2917
48323SOL    HW251575   5.829   9.813   2.018  0.3027  0.5472  0.1320
48324SOL     OW51576   0.485  10.700   5.476 -0.3239  0.2877  0.4464
48324SOL    HW151577   0.437  10.764   5.527 -1.0066  0.7509 -0.7402
48324SOL    HW251578   0.428  10.623   5.473 -0.2583  0.2391  0.4313
48325SOL     OW51579   6.210   6.315   2.822 -0.1901  0.6934  0.4935
48325SOL    HW151580   6.231   6.326   2.729  0.1418  1.5890  0.6698
48325SOL    HW251581   6.275   6.368   2.868  2.0201 -2.5350  1.4464
48326SOL     OW51582   7.451   1.275   1.112 -0.3941  0.3708 -0.2546
48326SOL    HW151583   7.430   1.255   1.021  0.8758 -2.2225 -0.0695
48326SOL    HW251584   7.544   1.296   1.111 -0.7317  1.9922  0.2459
48327SOL     OW51585  11.767   5.129   0.851  0.4273  0.4989 -0.4041
48327SOL    HW151586  11.808   5.073   0.917  1.9004 -0.0389 -1.7368
48327SOL    HW251587  11.696   5.172   0.899  1.5246  0.2540  1.5786
48328SOL     OW51588   1.450   7.402  11.612 -0.8304 -0.0824 -0.0858
48328SOL    HW151589   1.531   7.432  11.652 -1.2455  0.8337  0.0992
48328SOL    HW251590   1.380   7.446  11.662 -1.4007 -0.1239 -0.8183
48329SOL     OW51591  12.549   0.621   7.068  0.7073 -0.6227 -0.6999
48329SOL    HW151592  12.634   0.665   7.064  1.4146 -1.7979  0.4724
48329SOL    HW251593  12.540   0.579   6.983  0.4511  0.9700 -1.4919
48330SOL     OW51594  10.544  10.111  10.653  0.5228 -0.1820  0.1370
48330SOL    HW151595  10.559  10.203  10.675 -1.0674 -0.1341  1.1291
48330SOL    HW251596  10.456  10.110  10.616 -1.4959 -1.8898  4.3934
48331SOL     OW51597  10.377   3.059  12.253  0.0541 -0.9547  0.7576
48331SOL    HW151598  10.373   3.136  12.311  3.1582 -0.6024  0.6754
48331SOL    HW251599  10.346   2.987  12.308 -2.1969  0.1651  1.0815
48332SOL     OW51600   0.951   7.670  12.233  0.2202  0.8254 -0.3455
48332SOL    HW151601   0.868   7.681  12.188 -0.2279 -1.6027 -0.2138
48332SOL    HW251602   0.948   7.735  12.304 -1.3966  0.9976 -0.5326
48333SOL     OW51603  11.185  12.213   6.412 -0.3439 -0.1090 -0.0230
48333SOL    HW151604  11.190  12.120   6.437  0.0785 -0.3361 -0.9319
48333SOL    HW251605  11.162  12.258   6.494  0.7483 -0.8621  0.7313
48334SOL     OW51606   2.758   6.088   5.302  0.0719 -0.1048  0.0765
48334SOL    HW151607   2.673   6.049   5.321 -0.0605 -0.2273 -0.7549
48334SOL    HW251608   2.818   6.013   5.296  0.1445 -0.0529  0.1343
48335SOL     OW51609   4.294   4.142  10.297 -0.4250 -0.9360  0.0533
48335SOL    HW151610   4.297   4.148  10.202 -1.7612  0.9968  0.0846
48335SOL    HW251611   4.204   4.116  10.317 -1.3544  2.4635  0.8376
48336SOL     OW51612   0.273  12.696  12.276  0.0885  0.9442  0.2791
48336SOL    HW151613   0.258  12.741  12.359  0.5791 -1.8180  2.0086
48336SOL    HW251614   0.356  12.732  12.244 -0.1291  2.0857  0.9511
48337SOL     OW51615   4.803   3.817   1.738  0.6017 -0.0982  0.2041
48337SOL    HW151616   4.757   3.773   1.666  0.6971 -2.7152  1.6558
48337SOL    HW251617   4.742   3.885   1.766 -0.1437 -0.1080 -1.2512
48338SOL     OW51618   5.819   7.474   5.661  0.3319 -0.4406 -0.0170
48338SOL    HW151619   5.848   7.544   5.720  0.4090 -1.8787  1.7388
48338SOL    HW251620   5.768   7.415   5.717 -2.0919 -0.4150 -2.0208
48339SOL     OW51621  10.404  11.324   0.415 -0.4326 -0.0089 -0.0596
48339SOL    HW151622  10.354  11.402   0.392 -0.0612  0.3102  0.2070
48339SOL    HW251623  10.338  11.256   0.428 -0.9661  0.8308  2.0574
48340SOL     OW51624   0.570  11.651   5.160 -0.8215  0.5920  0.4035
48340SOL    HW151625   0.510  11.691   5.098 -0.9481 -0.4359 -0.1678
48340SOL    HW251626   0.554  11.557   5.152  0.8139  0.2898  0.2833
48341SOL     OW51627   0.816   2.583   2.814  0.2779 -0.5788  0.0814
48341SOL    HW151628   0.845   2.495   2.839 -0.5669 -0.3592  2.0876
48341SOL    HW251629   0.724   2.571   2.788 -0.2418 -0.1716  1.5911
48342SOL     OW51630  10.441   1.497   7.352  0.0560 -0.3746  0.2486
48342SOL    HW151631  10.476   1.582   7.325  1.4908 -0.5384  1.4324
48342SOL    HW251632  10.425   1.450   7.270  0.5494  0.5331 -0.3849
48343SOL     OW51633   2.446   5.318   3.887  0.0214  0.1155 -0.3091
48343SOL    HW151634   2.426   5.294   3.796 -1.1846 -1.6372  0.3698
48343SOL    HW251635   2.362   5.317   3.931  0.8637 -1.5511  1.3779
48344SOL     OW51636   8.889   7.627   2.448  0.0180  0.0528 -0.2436
48344SOL    HW151637   8.978   7.658   2.433 -0.0357  0.6250  0.5830
48344SOL    HW251638   8.887   7.540   2.407  0.7784  0.2770 -0.7754
48345SOL     OW51639   8.477  11.416  12.211  0.1694  0.0823 -0.1705
48345SOL    HW151640   8.485  11.388  12.120  0.4532 -1.3305  0.2596
48345SOL    HW251641   8.390  11.455  12.217 -0.5554 -1.3945 -0.6663
48346SOL     OW51642   6.315  11.010   8.289 -0.5363 -0.0110 -0.5713
48346SOL    HW151643   6.354  10.962   8.362 -1.6228 -2.2257 -1.3546
48346SOL    HW251644   6.387  11.061   8.252  0.7640 -1.2645  0.1474
48347SOL     OW51645   8.310   8.478   4.512  0.3176 -0.5041 -0.4057
48347SOL    HW151646   8.341   8.546   4.571 -0.6035 -0.2303 -0.2260
48347SOL    HW251647   8.335   8.396   4.554  3.0076 -0.3226 -1.4544
48348SOL     OW51648   7.127  11.201   2.355  0.3403  0.0502  0.1793
48348SOL    HW151649   7.142  11.240   2.269 -0.8792  0.2128  0.0296
48348SOL    HW251650   7.080  11.120   2.338 -2.2948  1.3308  0.7757
48349SOL     OW51651  11.834   2.284   9.674  0.0116 -0.3607  0.1699
48349SOL    HW151652  11.895   2.235   9.619  1.1530  0.2258  0.8619
48349SOL    HW251653  11.836   2.373   9.640  0.5948 -0.0309  1.0180
48350SOL     OW51654   9.452   2.628   9.631 -0.2909  0.0487  0.3433
48350SOL    HW151655   9.413   2.542   9.649 -0.9870  0.1840 -0.4297
48350SOL    HW251656   9.523   2.636   9.694  0.7147 -1.7053 -0.5027
48351SOL     OW51657   6.789   0.698   4.075  0.6723 -0.0152  0.0348
48351SOL    HW151658   6.701   0.671   4.101  1.2379 -0.7183  1.3074
48351SOL    HW251659   6.776   0.747   3.994 -0.9631  0.5212  0.5772
48352SOL     OW51660   4.960   0.456   1.479  0.7543 -0.1793  0.8234
48352SOL    HW151661   4.977   0.542   1.440  0.6374 -0.3163  0.4685
48352SOL    HW251662   4.918   0.405   1.409 -0.6588 -0.0150  1.5172
48353SOL     OW51663   8.152   9.750   0.244 -0.3636  0.5100  0.1739
48353SOL    HW151664   8.188   9.837   0.228  1.4786 -0.3406 -0.6366
48353SOL    HW251665   8.190   9.696   0.175 -3.4627 -0.4707 -0.8852
48354SOL     OW51666   4.196   9.174  10.578  0.0317 -0.1046  0.0304
48354SOL    HW151667   4.126   9.185  10.514 -0.4227  1.1888  0.7194
48354SOL    HW251668   4.274   9.156  10.526 -0.6852 -0.9626 -0.7784
48355SOL     OW51669   1.440   0.811   5.441  0.5369  0.4054  0.3616
48355SOL    HW151670   1.350   0.779   5.435  0.6513  0.2430 -0.8710
48355SOL    HW251671   1.462   0.805   5.533 -0.7946  0.6636  0.7141
48356SOL     OW51672   6.775   4.587  11.774 -0.1358 -0.3957 -0.0643
48356SOL    HW151673   6.700   4.557  11.826 -2.2782  1.6029 -1.7826
48356SOL    HW251674   6.823   4.645  11.833 -2.6727  2.0581 -0.2331
48357SOL     OW51675   4.747   1.412  12.411 -0.0453  0.5539  0.8100
48357SOL    HW151676   4.746   1.446  12.322  0.4493  1.6964  1.2163
48357SOL    HW251677   4.775   1.321  12.403 -0.1836  0.5970 -0.2079
48358SOL     OW51678   7.859   4.059  11.227  0.5015  0.5938  0.0304
48358SOL    HW151679   7.917   4.126  11.190 -2.3788  2.5070 -1.3420
48358SOL    HW251680   7.796   4.108  11.280 -0.5241 -1.2631  0.6318
48359SOL     OW51681   6.727   7.142   9.741  0.1870  0.1962  0.4392
48359SOL    HW151682   6.647   7.157   9.792  0.7460 -0.2890  1.5010
48359SOL    HW251683   6.765   7.064   9.780  0.8434  0.0298 -0.5009
48360SOL     OW51684   3.029   9.670  10.327  0.3042  0.0268 -0.2334
48360SOL    HW151685   3.032   9.587  10.375  0.8051 -0.1255 -0.5118
48360SOL    HW251686   3.118   9.706  10.335 -0.7072  2.1775  2.6328
48361SOL     OW51687   1.884   0.795   6.671  0.3719  0.4278  0.2999
48361SOL    HW151688   1.934   0.730   6.720 -2.1198 -1.2702  0.8180
48361SOL    HW251689   1.877   0.759   6.583 -0.8913  0.0022  0.5473
48362SOL     OW51690   9.720  11.561   0.548 -0.8128 -0.4747  0.0019
48362SOL    HW151691   9.655  11.601   0.491 -2.1368  0.0225  1.7522
48362SOL    HW251692   9.688  11.472   0.562 -0.3142 -0.7042 -0.2655
48363SOL     OW51693   2.077   4.221   1.965 -0.4656  0.5436  0.4603
48363SOL    HW151694   1.993   4.261   1.946 -0.9892 -1.0056 -0.6803
48363SOL    HW251695   2.079   4.142   1.911  1.1223 -0.1991  1.5247
48364SOL     OW51696   5.992   9.627   9.081  0.1986  0.4755 -0.4019
48364SOL    HW151697   5.922   9.670   9.033  0.5807  1.2899 -0.2496
48364SOL    HW251698   5.988   9.664   9.169  0.1218 -0.2880 -0.0773
48365SOL     OW51699  10.955  12.589   7.171 -0.4428  0.0580  0.2837
48365SOL    HW151700  11.009  12.647   7.226 -0.2912  0.6251 -0.4508
48365SOL    HW251701  10.937  12.641   7.092  0.4253 -1.2082 -0.7805
48366SOL     OW51702   6.080  12.031  10.481 -0.4594 -0.1892  0.1045
48366SOL    HW151703   6.087  12.007  10.574  2.3301  3.3925  1.0603
48366SOL    HW251704   5.988  12.053  10.469 -0.8659 -0.5810  2.0869
48367SOL     OW51705   2.533   5.853   2.024 -0.5021 -0.2180  0.5250
48367SOL    HW151706   2.602   5.816   1.970 -0.1046  0.4929  0.5335
48367SOL    HW251707   2.572   5.860   2.111 -0.8992 -0.6821  0.7459
48368SOL     OW51708   9.164  11.270   5.494  0.0519  0.2793  0.1071
48368SOL    HW151709   9.117  11.335   5.547  2.5748  1.0736  1.5736
48368SOL    HW251710   9.199  11.208   5.559  1.9691  0.4185 -0.7239
48369SOL     OW51711   9.872   0.121   4.548  0.1416  0.4009 -0.4998
48369SOL    HW151712   9.926   0.068   4.606 -0.0449 -0.5511 -1.1754
48369SOL    HW251713   9.801   0.153   4.604  1.5109  1.9218  0.4782
48370SOL     OW51714   5.418  11.781   7.295 -0.1089  0.3009 -0.2437
48370SOL    HW151715   5.459  11.751   7.214 -1.0384  1.5174 -1.2097
48370SOL    HW251716   5.349  11.717   7.313  0.5952 -0.4008  0.0478
48371SOL     OW51717  12.175   8.802   2.282 -0.7012 -0.4451 -0.2954
48371SOL    HW151718  12.168   8.784   2.376  0.0240 -3.0768 -0.6616
48371SOL    HW251719  12.198   8.895   2.277  2.3898 -0.8873  2.3200
48372SOL     OW51720  10.539   2.419   1.687 -0.1315  0.1788 -0.7110
48372SOL    HW151721  10.630   2.405   1.710  0.4754  3.6458 -0.3538
48372SOL    HW251722  10.493   2.341   1.718  2.4903 -0.9880  0.4716
48373SOL     OW51723   5.646   3.475   1.665 -0.1918  0.2597 -0.0104
48373SOL    HW151724   5.650   3.433   1.579  1.7906  1.2603 -0.4523
48373SOL    HW251725   5.694   3.557   1.655 -1.0213  1.0216  1.7335
48374SOL     OW51726  11.941   1.731   1.195 -0.1553 -0.6145 -0.0034
48374SOL    HW151727  11.908   1.820   1.212  0.7778 -0.2658  0.0746
48374SOL    HW251728  11.906   1.679   1.267  2.5835  0.5590  2.3993
48375SOL     OW51729   8.861   2.064   1.692  0.3639 -0.1215 -0.0048
48375SOL    HW151730   8.876   1.986   1.638 -3.7494 -1.5916  0.6717
48375SOL    HW251731   8.849   2.135   1.628 -0.2431 -0.9561 -0.8418
48376SOL     OW51732  12.566   7.646   1.909  0.2775  0.1096  0.2689
48376SOL    HW151733  12.653   7.668   1.878 -0.2990  0.8615 -0.8793
48376SOL    HW251734  12.507   7.690   1.849 -0.9074  0.4244  1.5988
48377SOL     OW51735  11.548   9.225   7.199 -0.9866  0.2372 -0.3816
48377SOL    HW151736  11.599   9.251   7.276 -1.7990 -0.4190  0.3991
48377SOL    HW251737  11.460   9.260   7.216 -1.0636  0.4891 -1.2388
48378SOL     OW51738  10.749   7.560  11.891  0.3624  0.0316  0.3291
48378SOL    HW151739  10.666   7.546  11.845  0.1847 -0.6977  0.8596
48378SOL    HW251740  10.802   7.485  11.867  0.1613 -0.5140  1.5379
48379SOL     OW51741  10.455   8.914   2.611  0.4323  0.3776 -0.0870
48379SOL    HW151742  10.456   8.916   2.707 -0.6013  0.8220 -0.0623
48379SOL    HW251743  10.456   8.822   2.589 -0.1054  0.2465  0.3881
48380SOL     OW51744   8.446   7.942  11.633  0.4317  0.3319  0.4400
48380SOL    HW151745   8.507   8.012  11.655  0.2162  0.4771  0.5875
48380SOL    HW251746   8.494   7.861  11.651 -0.0237  0.4283  2.3468
48381SOL     OW51747   7.097   1.495  10.272 -0.2455 -0.2304 -0.5251
48381SOL    HW151748   7.133   1.503  10.184  0.6827  0.0859 -0.1293
48381SOL    HW251749   7.029   1.428  10.265 -0.2552 -0.1313 -1.4953
48382SOL     OW51750   5.162   8.448   8.931  0.3723  0.0242  0.4267
48382SOL    HW151751   5.221   8.379   8.901 -0.7391  0.2859 -2.7142
48382SOL    HW251752   5.219   8.521   8.951  1.3647 -0.9328  1.2045
48383SOL     OW51753   1.706  12.275   4.450 -0.3425 -0.2528 -0.3598
48383SOL    HW151754   1.627  12.327   4.468  0.0008  0.6524 -1.3504
48383SOL    HW251755   1.752  12.325   4.382  0.6224 -1.2420 -0.4523
48384SOL     OW51756  12.418   0.896   1.689 -0.4638 -0.6827 -0.6894
48384SOL    HW151757  12.417   0.833   1.617 -1.9515 -0.1595 -1.1668
48384SOL    HW251758  12.348   0.957   1.668  0.8805  1.1190 -0.1989
48385SOL     OW51759   4.841   9.324   1.788 -0.1030 -0.0774 -0.1282
48385SOL    HW151760   4.935   9.332   1.771 -0.4874  1.9156 -1.5452
48385SOL    HW251761   4.821   9.232   1.768  1.2227 -0.0975 -1.4776
48386SOL     OW51762   6.056   6.158  11.829 -0.0335 -0.2420  0.2098
48386SOL    HW151763   6.054   6.139  11.735  0.0541 -0.2107  0.2011
48386SOL    HW251764   6.061   6.253  11.834  3.1418 -0.3036  0.1766
48387SOL     OW51765   4.585  11.752  11.367  0.5311  0.0068  0.9590
48387SOL    HW151766   4.626  11.837  11.382  1.8333 -0.6276  1.0868
48387SOL    HW251767   4.655  11.688  11.381 -0.6408 -1.1561  1.7942
48388SOL     OW51768   4.864  12.312  11.116 -0.6298  0.2570  0.1252
48388SOL    HW151769   4.802  12.289  11.185 -0.2253 -0.1009  0.3768
48388SOL    HW251770   4.857  12.240  11.053 -0.8509  0.4819 -0.1119
48389SOL     OW51771  11.541   2.420   6.687  0.8421 -0.4694 -0.5558
48389SOL    HW151772  11.539   2.515   6.699 -0.5326 -0.2780 -1.9469
48389SOL    HW251773  11.605   2.389   6.750  0.2812  1.2395  0.9231
48390SOL     OW51774   6.455  10.594   5.719  0.1564 -0.1123  0.4081
48390SOL    HW151775   6.363  10.575   5.737  0.1510 -0.0895  0.4057
48390SOL    HW251776   6.491  10.513   5.683  0.3149 -0.3578  1.0863
48391SOL     OW51777   3.324   2.436   0.006  0.4064  0.1304 -0.4707
48391SOL    HW151778   3.317   2.353  -0.041 -1.8730  0.2758 -0.4771
48391SOL    HW251779   3.346   2.411   0.096  3.4172 -0.2132 -1.1755
48392SOL     OW51780   0.420   8.522   4.743  0.5618 -0.2438 -0.7290
48392SOL    HW151781   0.424   8.562   4.656  0.1366 -0.6080 -0.9197
48392SOL    HW251782   0.475   8.444   4.736  0.4359 -0.3340 -0.7037
48393SOL     OW51783   7.718  11.288   8.406  0.0337  0.2174 -1.2644
48393SOL    HW151784   7.761  11.262   8.325 -0.2711 -4.2759 -0.2528
48393SOL    HW251785   7.628  11.258   8.397 -0.0478 -0.2647  0.6291
48394SOL     OW51786  12.090   3.752   9.854 -0.0146 -0.1517  0.0234
48394SOL    HW151787  12.070   3.707   9.936 -1.9805 -0.2234 -0.4540
48394SOL    HW251788  12.043   3.702   9.787  2.7315 -1.0143 -1.4316
48395SOL     OW51789   5.800   8.578   6.707  0.0173 -0.3755 -0.1323
48395SOL    HW151790   5.894   8.560   6.712  0.3864  1.3973  0.1770
48395SOL    HW251791   5.785   8.601   6.616 -0.0026 -0.1121 -0.0629
48396SOL     OW51792  11.360   6.752   3.148 -0.0518  0.0546 -0.1883
48396SOL    HW151793  11.367   6.661   3.122  1.1795  0.3304 -0.9016
48396SOL    HW251794  11.447   6.774   3.183 -0.7048  0.6002  1.1683
48397SOL     OW51795  10.945   2.275   1.458  0.9162 -0.5844  0.0916
48397SOL    HW151796  10.873   2.328   1.494  2.6559  2.1272 -0.1347
48397SOL    HW251797  10.905   2.189   1.441 -2.6104  1.1221 -1.2611
48398SOL     OW51798   8.973   6.085   9.325 -0.3005  0.0313  0.2078
48398SOL    HW151799   9.059   6.048   9.302  0.9865  2.3213  0.9648
48398SOL    HW251800   8.959   6.060   9.416 -0.3920 -0.2736  0.1108
48399SOL     OW51801   4.592   5.040   7.085  0.3004 -0.0718 -0.4605
48399SOL    HW151802   4.551   5.045   6.999 -0.7355 -0.2879  0.0058
48399SOL    HW251803   4.568   5.122   7.128 -0.5008 -0.6205  0.1726
48400SOL     OW51804  10.701  10.897   1.411  0.2603  0.3913  0.0064
48400SOL    HW151805  10.683  10.808   1.381  0.0780  0.5362 -0.3214
48400SOL    HW251806  10.635  10.951   1.367 -0.4935  0.5154  1.2364
48401SOL     OW51807   6.816   2.099   2.865  0.0432 -0.0140 -0.9808
48401SOL    HW151808   6.731   2.085   2.906  0.9708  1.3937  1.6508
48401SOL    HW251809   6.878   2.053   2.922  1.2301  0.2417 -2.0026
48402SOL     OW51810   4.879   3.215   9.333  0.2622 -0.4467  0.5583
48402SOL    HW151811   4.915   3.167   9.407  0.6775 -0.9808  0.0163
48402SOL    HW251812   4.944   3.284   9.316 -0.0707 -0.0138  0.9884
48403SOL     OW51813   6.074   3.178  11.822 -0.1206  0.5706 -0.1975
48403SOL    HW151814   6.017   3.101  11.830  0.5412  0.0563 -0.3943
48403SOL    HW251815   6.116   3.169  11.737  0.0836  1.0684 -0.1534
48404SOL     OW51816   1.302   0.522   8.067  0.1953 -0.0060  0.0081
48404SOL    HW151817   1.300   0.605   8.115  1.0571  0.5853 -0.9476
48404SOL    HW251818   1.250   0.538   7.988 -1.4046 -1.0431  0.7717
48405SOL     OW51819  12.032   7.571   1.552 -0.1899  0.2243 -0.6561
48405SOL    HW151820  11.944   7.596   1.580  0.4084  1.2491  0.4417
48405SOL    HW251821  12.019   7.523   1.471 -1.8618 -0.8704  0.2062
48406SOL     OW51822  12.112  12.528   8.706  0.0152  0.0329 -0.1828
48406SOL    HW151823  12.024  12.525   8.670 -0.5680 -0.8120  1.2482
48406SOL    HW251824  12.132  12.621   8.715 -1.7684  0.2843  1.8789
48407SOL     OW51825   8.104  12.398  12.225 -0.4337 -0.2166 -0.4601
48407SOL    HW151826   8.085  12.427  12.136 -1.4951 -0.1686 -0.2346
48407SOL    HW251827   8.173  12.332  12.214 -0.2227  0.1186 -1.2636
48408SOL     OW51828  10.686  12.103  10.497 -0.2072  0.2532 -0.1682
48408SOL    HW151829  10.710  12.188  10.535  1.1586  0.5279 -1.5506
48408SOL    HW251830  10.748  12.041  10.535  0.6993  0.4062 -1.3497
48409SOL     OW51831   6.161   8.328   9.054 -0.0067 -0.5716  0.0103
48409SOL    HW151832   6.191   8.241   9.031 -0.3355 -0.5492 -0.5168
48409SOL    HW251833   6.210   8.351   9.133  1.4217 -0.4854 -0.8828
48410SOL     OW51834   6.837  10.578   3.926  0.3845 -0.1047 -0.0637
48410SOL    HW151835   6.784  10.641   3.877 -2.3835 -2.0765  0.1564
48410SOL    HW251836   6.919  10.571   3.876 -0.6713  1.0362 -2.0478
48411SOL     OW51837   7.482  10.003   0.509  0.1037 -0.0770  0.0993
48411SOL    HW151838   7.441  10.089   0.507 -0.2067 -0.2447 -1.8808
48411SOL    HW251839   7.576  10.022   0.515  0.0471  0.4147 -0.4794
48412SOL     OW51840   7.750   1.414   0.996 -0.1896 -0.3414 -0.0962
48412SOL    HW151841   7.807   1.380   0.927  2.2753  2.8905  0.1137
48412SOL    HW251842   7.794   1.390   1.077  0.1854  0.9544  0.1100
48413SOL     OW51843   3.913   1.909   7.306  0.5769  0.5334  0.0593
48413SOL    HW151844   3.902   1.923   7.400  0.3855  1.6858 -0.1166
48413SOL    HW251845   3.843   1.847   7.283  0.6800  0.1751  0.6852
48414SOL     OW51846   7.223   8.929   7.880  0.3534 -0.0303 -0.6841
48414SOL    HW151847   7.182   8.988   7.817 -1.6340  1.2247  1.5955
48414SOL    HW251848   7.306   8.972   7.902  0.8092 -0.2076 -2.0181
48415SOL     OW51849   6.254   9.324   2.301  0.2031  0.0279 -0.3914
48415SOL    HW151850   6.235   9.414   2.277  0.7271 -0.0680 -1.2364
48415SOL    HW251851   6.244   9.321   2.396 -0.4702  0.8062 -0.4319
48416SOL     OW51852   6.457   7.695   9.886 -0.0995 -0.1956  0.3224
48416SOL    HW151853   6.535   7.665   9.840  0.6546  0.5426  1.0760
48416SOL    HW251854   6.449   7.636   9.961 -0.7736 -0.8034 -0.2186
48417SOL     OW51855   5.740   8.992  10.905 -0.7640 -0.1085  0.4079
48417SOL    HW151856   5.774   8.986  10.995  1.2083  0.4747 -0.2528
48417SOL    HW251857   5.697   8.908  10.891 -0.1198 -0.6556  1.5225
48418SOL     OW51858  10.007   5.648   0.484  0.1352 -0.2393  0.0129
48418SOL    HW151859   9.971   5.568   0.447 -0.6845  0.6555 -1.2081
48418SOL    HW251860   9.942   5.675   0.549 -0.7283  0.5627 -1.1231
48419SOL     OW51861  12.787   3.753   6.620  0.0656 -0.2887 -0.0168
48419SOL    HW151862  12.749   3.780   6.536  0.7364  1.3733  0.1918
48419SOL    HW251863  12.711   3.731   6.674 -0.4128 -0.5049 -0.7605
48420SOL     OW51864   7.317   5.695  10.079  0.7758 -0.7594 -0.1041
48420SOL    HW151865   7.382   5.627  10.099  1.4568 -0.4899 -1.2954
48420SOL    HW251866   7.365   5.759  10.027  0.0903  0.5678  0.8456
48421SOL     OW51867   9.779   9.855   7.958 -0.0850 -0.1685  0.5342
48421SOL    HW151868   9.729   9.853   8.039  0.5360  2.2848  1.0525
48421SOL    HW251869   9.864   9.816   7.981 -0.3167 -0.5469  0.7510
48422SOL     OW51870   9.501   8.506   7.347  0.6650  0.3508  0.1273
48422SOL    HW151871   9.480   8.412   7.344 -0.1986  0.5388 -0.1137
48422SOL    HW251872   9.578   8.515   7.292  0.6261 -0.1948 -0.0225
48423SOL     OW51873   2.013  11.564   2.378 -0.2492 -0.0974  0.4388
48423SOL    HW151874   2.002  11.515   2.460  0.2560 -1.0766 -0.0625
48423SOL    HW251875   2.105  11.591   2.378 -0.1234 -0.5169 -0.0293
48424SOL     OW51876   7.031  12.678  12.108  0.4297  0.0339 -0.0781
48424SOL    HW151877   7.083  12.597  12.108  0.3756 -0.0243  1.0779
48424SOL    HW251878   7.085  12.742  12.063  1.2747 -0.1767  0.6148
48425SOL     OW51879  10.566   0.223   5.787 -0.2870 -0.0137  0.0513
48425SOL    HW151880  10.490   0.181   5.829 -1.0309  0.5104 -0.7352
48425SOL    HW251881  10.529   0.273   5.714  0.4137  2.9391  1.5573
48426SOL     OW51882  12.181   1.732   4.808  0.6871  0.2718  0.3475
48426SOL    HW151883  12.171   1.792   4.881  0.1168  0.4297  0.1432
48426SOL    HW251884  12.263   1.686   4.826  0.2328 -0.1465  1.4173
48427SOL     OW51885  11.122   6.506  12.234  0.2554 -0.0480 -0.0047
48427SOL    HW151886  11.160   6.584  12.275 -0.6675 -0.1329  1.0668
48427SOL    HW251887  11.124   6.525  12.140  0.1594  1.2360  0.2313
48428SOL     OW51888   9.690   3.957  11.966 -0.7978  1.0136  0.3805
48428SOL    HW151889   9.675   4.036  11.914 -0.2574  0.8566 -0.0138
48428SOL    HW251890   9.608   3.908  11.958 -1.5109  1.9897  1.4450
48429SOL     OW51891  11.204   7.565  12.332  0.7840  0.3418  0.4233
48429SOL    HW151892  11.283   7.619  12.336  0.1244  1.3287  0.5734
48429SOL    HW251893  11.236   7.475  12.344  1.8995  0.6949  0.2460
48430SOL     OW51894  12.630   7.092  11.575 -0.1444  0.4367 -0.1516
48430SOL    HW151895  12.678   7.036  11.514 -1.8525 -0.2359 -0.9483
48430SOL    HW251896  12.629   7.178  11.532 -0.6151  0.1752 -0.6702
48431SOL     OW51897   6.816   6.463   5.957 -0.1643  0.0907 -0.2507
48431SOL    HW151898   6.817   6.522   5.882  1.2647 -0.0530 -0.3776
48431SOL    HW251899   6.753   6.395   5.933  1.1896 -0.6696 -1.9445
48432SOL     OW51900   5.479   9.579   2.998  0.2980 -0.0723 -0.3057
48432SOL    HW151901   5.499   9.505   3.056  1.7633  0.6027  0.1089
48432SOL    HW251902   5.399   9.618   3.035  0.2575 -0.6681  0.2466
48433SOL     OW51903  12.047   0.774   4.115  0.2201  0.0328  0.2493
48433SOL    HW151904  12.141   0.794   4.121 -0.0201  1.0664  0.7930
48433SOL    HW251905  12.038   0.692   4.163  0.8657 -0.1461  0.0844
48434SOL     OW51906   1.706   8.446   1.541  0.3020 -0.4126 -0.1993
48434SOL    HW151907   1.669   8.358   1.535 -0.4309 -0.0582 -0.9789
48434SOL    HW251908   1.784   8.435   1.595 -0.3995 -1.3413  0.6633
48435SOL     OW51909   2.909  10.522   8.786 -0.4437  1.0068 -0.1806
48435SOL    HW151910   2.852  10.461   8.739 -0.8929  1.2307  0.0601
48435SOL    HW251911   2.855  10.555   8.858  0.2226  0.7037  0.4695
48436SOL     OW51912   6.051  11.591  12.565  0.1677  0.1763  0.2547
48436SOL    HW151913   6.065  11.508  12.611  1.2329  0.2772  0.1300
48436SOL    HW251914   5.961  11.585  12.534  0.7122 -1.6586 -1.1788
48437SOL     OW51915   8.272   6.972   0.218  0.0933 -0.7450 -0.1958
48437SOL    HW151916   8.347   6.988   0.275 -1.0709 -2.0053  1.7857
48437SOL    HW251917   8.275   6.878   0.200 -0.9073 -0.7770 -0.2441
48438SOL     OW51918   0.731   3.550   2.565 -0.3254 -0.3556  0.0656
48438SOL    HW151919   0.713   3.523   2.475  1.4111 -0.3493 -0.3198
48438SOL    HW251920   0.648   3.585   2.597 -1.5389 -2.3071 -0.7971
48439SOL     OW51921   3.347   9.487   7.416  0.5295 -0.1361 -0.0752
48439SOL    HW151922   3.347   9.538   7.497  0.9680 -1.1940  0.6040
48439SOL    HW251923   3.396   9.541   7.354  1.6458 -0.0473  0.8506
48440SOL     OW51924   0.314   6.201   8.376 -0.0431 -0.3120 -0.0680
48440SOL    HW151925   0.272   6.181   8.459  0.9694  0.7367  0.7219
48440SOL    HW251926   0.353   6.288   8.388  0.3203 -0.2328 -1.5558
48441SOL     OW51927  10.354   9.628   3.761 -0.6167  0.0793  0.6060
48441SOL    HW151928  10.318   9.652   3.846  1.5038  1.7091  1.1370
48441SOL    HW251929  10.377   9.536   3.770  0.4752  0.4653  2.2016
48442SOL     OW51930   7.752   8.342   1.861 -0.2760  0.4845 -0.0023
48442SOL    HW151931   7.723   8.352   1.770 -0.7763  2.0549  0.2987
48442SOL    HW251932   7.774   8.431   1.889 -1.5679  0.2852  1.8716
48443SOL     OW51933   0.185   0.819  12.493 -0.1540 -0.2874  0.1613
48443SOL    HW151934   0.151   0.868  12.567  0.5313  0.5138 -0.0293
48443SOL    HW251935   0.233   0.746  12.532  0.8390  0.5503  0.5553
48444SOL     OW51936   2.726  11.736   2.197  0.5317  0.5876  0.1158
48444SOL    HW151937   2.797  11.704   2.141  0.0060  0.4935 -0.5156
48444SOL    HW251938   2.761  11.732   2.286  0.8780 -0.6912 -0.0529
48445SOL     OW51939  10.088  10.429   6.475 -0.5258  0.1584 -0.1516
48445SOL    HW151940  10.102  10.475   6.558 -2.2496 -0.8015  0.7533
48445SOL    HW251941  10.143  10.351   6.481 -1.6808 -0.6324  0.7783
48446SOL     OW51942   2.082   6.112  11.067  0.2686 -0.0518 -0.8009
48446SOL    HW151943   2.169   6.116  11.028  0.4395 -1.4389 -0.6021
48446SOL    HW251944   2.050   6.202  11.063  2.1995  0.7469  0.2536
48447SOL     OW51945   3.677  11.293   5.947 -0.1959 -0.2242  0.0033
48447SOL    HW151946   3.630  11.213   5.924 -3.0478  1.7443 -1.7361
48447SOL    HW251947   3.748  11.298   5.883  0.3189 -1.5546  0.4400
48448SOL     OW51948   7.841   4.172   4.084  0.7311  0.3189  0.0067
48448SOL    HW151949   7.868   4.260   4.109 -1.3333  0.7424  0.9437
48448SOL    HW251950   7.779   4.185   4.013 -0.4528 -0.2586  0.8965
48449SOL     OW51951  11.264  11.047   9.466 -0.1613  0.3145  0.0679
48449SOL    HW151952  11.286  11.098   9.544 -1.1246  1.3695 -0.3125
48449SOL    HW251953  11.256  10.957   9.497  0.7174  0.5188  0.9373
48450SOL     OW51954   8.785   8.133  11.203 -0.7247 -0.0988  0.0351
48450SOL    HW151955   8.743   8.052  11.231 -1.5754  0.6181  0.8754
48450SOL    HW251956   8.781   8.191  11.279 -2.2878  1.5868 -1.2345
48451SOL     OW51957   6.406   2.929   9.394 -0.1464  0.1528 -0.2954
48451SOL    HW151958   6.387   2.882   9.313  2.3238 -1.5006 -0.0367
48451SOL    HW251959   6.473   2.876   9.437 -1.4444  0.8923  2.9323
48452SOL     OW51960   7.787   0.393   3.956  0.0037 -0.3302  0.1744
48452SOL    HW151961   7.811   0.301   3.946  2.1751 -0.1711  2.8935
48452SOL    HW251962   7.862   0.433   3.998 -1.0663  2.6457 -0.5368
48453SOL     OW51963   8.523   9.853  10.947  0.0986  0.5215 -0.2040
48453SOL    HW151964   8.521   9.848  10.851  0.3332  0.1613 -0.1907
48453SOL    HW251965   8.432   9.840  10.973 -0.1598  1.7265 -0.4213
48454SOL     OW51966   5.366   6.458  10.931  0.2601 -0.1609 -0.2223
48454SOL    HW151967   5.337   6.381  10.883  1.5696 -0.1527 -1.1046
48454SOL    HW251968   5.349   6.438  11.023 -1.5330 -0.5241 -0.6042
48455SOL     OW51969   9.149  10.024   0.490  0.1026 -0.3707 -0.1299
48455SOL    HW151970   9.200   9.952   0.453 -1.5316 -0.6762 -1.9239
48455SOL    HW251971   9.060   9.989   0.497 -0.7659  1.4793 -1.1929
48456SOL     OW51972  12.557   4.331   8.647  0.2764  0.4374 -0.3666
48456SOL    HW151973  12.613   4.287   8.583  0.3248 -0.2785  0.1690
48456SOL    HW251974  12.472   4.288   8.638  0.4013  0.0383  0.3571
48457SOL     OW51975   2.943   9.007   5.519  0.0196  0.4831 -0.5183
48457SOL    HW151976   2.967   9.022   5.610 -3.8373  0.2781  0.7396
48457SOL    HW251977   2.955   9.092   5.476  0.6615  0.9172  0.4992
48458SOL     OW51978  11.385   7.396   6.215  0.1817 -0.3811  0.6923
48458SOL    HW151979  11.402   7.482   6.178 -1.4357 -1.6364 -3.5693
48458SOL    HW251980  11.304   7.406   6.266  0.8457  0.8558  1.5389
48459SOL     OW51981   9.945   7.567   7.462 -0.0464  0.2124  0.2478
48459SOL    HW151982   9.956   7.475   7.440  0.9668  1.0802 -3.4802
48459SOL    HW251983   9.882   7.600   7.398 -0.5449  2.1019  1.6294
48460SOL     OW51984   2.419  11.375   6.826 -0.0377  0.4196 -0.7283
48460SOL    HW151985   2.387  11.353   6.739 -0.9461  1.9991 -0.8167
48460SOL    HW251986   2.422  11.291   6.872 -1.5856 -0.1628 -1.6233
48461SOL     OW51987   2.087   9.116   8.426 -0.0503  0.1329  0.3890
48461SOL    HW151988   2.082   9.195   8.372 -0.5483  0.7286  1.2640
48461SOL    HW251989   2.122   9.049   8.369 -0.7566  0.6878 -0.7294
48462SOL     OW51990   2.957   7.252   2.041 -0.3886 -0.0283 -0.6691
48462SOL    HW151991   2.924   7.341   2.033 -0.7191  0.0294  1.0036
48462SOL    HW251992   2.898   7.210   2.104  1.1926 -0.6960  0.4176
48463SOL     OW51993   1.363   9.745  10.610 -0.4275 -0.4208 -0.1288
48463SOL    HW151994   1.285   9.796  10.631 -0.9759 -1.4038  0.3252
48463SOL    HW251995   1.428   9.809  10.584 -0.7315  0.6207  1.5256
48464SOL     OW51996   6.462   9.715   8.806 -0.6627 -0.1079  0.3494
48464SOL    HW151997   6.457   9.694   8.713  0.7807 -2.4255  0.7190
48464SOL    HW251998   6.374   9.701   8.840 -0.8999 -0.5160 -0.4234
48465SOL     OW51999  11.362   9.529  11.544 -0.0438  0.3265  0.0205
48465SOL    HW152000  11.442   9.495  11.584  1.0207  2.2320 -0.3745
48465SOL    HW252001  11.315   9.571  11.616  0.0204  0.4649 -0.0183
48466SOL     OW52002   6.307   5.204   1.843 -0.1873 -0.5892 -0.2150
48466SOL    HW152003   6.286   5.279   1.788  0.7618 -0.4765 -0.4372
48466SOL    HW252004   6.327   5.242   1.929  1.4244 -0.4583 -0.6222
48467SOL     OW52005  11.166   4.408   6.414 -0.3756  0.2617  0.2443
48467SOL    HW152006  11.154   4.328   6.466 -1.9069  1.2535  1.5136
48467SOL    HW252007  11.089   4.413   6.358 -0.7736  1.2961  0.8496
48468SOL     OW52008   8.681   7.052   1.799  0.3027 -0.1772 -0.0428
48468SOL    HW152009   8.757   7.106   1.777  0.2467 -0.5683 -1.2887
48468SOL    HW252010   8.713   6.988   1.862  0.3747  1.2806  1.4620
48469SOL     OW52011   4.550   0.469   1.874  0.2739 -0.1606 -0.0212
48469SOL    HW152012   4.622   0.522   1.839  0.6199 -0.7306 -0.1672
48469SOL    HW252013   4.471   0.509   1.836  0.6207 -0.6260 -1.2829
48470SOL     OW52014   9.321   5.525  12.549 -0.6606  0.0371  0.4408
48470SOL    HW152015   9.255   5.594  12.545 -1.2697 -0.5760 -0.6657
48470SOL    HW252016   9.352   5.515  12.459  0.5499 -0.0784  0.8435
48471SOL     OW52017   2.472   5.180   5.199 -0.2118  0.3002 -0.1481
48471SOL    HW152018   2.556   5.174   5.154 -1.3001  0.3715 -2.3518
48471SOL    HW252019   2.469   5.103   5.256 -0.1338 -1.8723 -2.8579
48472SOL     OW52020   2.079   3.537  11.883 -0.2292  0.1732  0.0533
48472SOL    HW152021   2.132   3.584  11.818  0.4561 -1.5802 -0.7418
48472SOL    HW252022   2.062   3.452  11.842 -1.0376 -0.4482  1.5970
48473SOL     OW52023   2.613   2.278  10.171  0.2069  0.0985 -0.2955
48473SOL    HW152024   2.570   2.343  10.226 -1.0687 -2.1429  1.5205
48473SOL    HW252025   2.546   2.211  10.157  2.0334 -1.7814 -0.4300
48474SOL     OW52026   2.952   3.376   0.847 -0.0235 -0.1649  0.5557
48474SOL    HW152027   2.959   3.300   0.790  1.6052  0.7344 -0.5410
48474SOL    HW252028   3.042   3.407   0.857  0.0626 -1.1594  4.9799
48475SOL     OW52029   6.315  12.648  12.302 -0.6438 -0.2320  0.0822
48475SOL    HW152030   6.225  12.676  12.285 -0.4840 -0.4256 -1.1968
48475SOL    HW252031   6.307  12.572  12.358 -1.2085  0.6144  1.1795
48476SOL     OW52032   9.851   2.863   1.833 -0.5271  0.1713 -0.4240
48476SOL    HW152033   9.793   2.898   1.766  0.3468  0.6573 -0.9456
48476SOL    HW252034   9.876   2.939   1.886 -0.0360  0.0476 -0.4669
48477SOL     OW52035   4.440   9.589   9.575 -0.3655  0.3192 -0.2175
48477SOL    HW152036   4.402   9.538   9.646  0.1013  1.2789  0.7583
48477SOL    HW252037   4.377   9.582   9.503 -0.3347 -1.5408 -0.0989
48478SOL     OW52038   3.079   1.312   2.416  0.8885 -0.2360 -0.7630
48478SOL    HW152039   3.116   1.398   2.397 -1.5363  1.1805  0.4161
48478SOL    HW252040   3.063   1.313   2.510 -3.2146 -0.0975 -1.2829
48479SOL     OW52041  11.817   2.115  11.668 -0.0070 -0.2283  0.2468
48479SOL    HW152042  11.840   2.052  11.598 -1.4204  0.1304 -0.5898
48479SOL    HW252043  11.761   2.065  11.727 -0.1049 -0.1062  0.2580
48480SOL     OW52044   4.985  10.162   2.931  0.1880  0.5620 -0.0041
48480SOL    HW152045   4.990  10.230   2.999  0.1010  0.4620  0.1029
48480SOL    HW252046   4.896  10.127   2.938  0.8056 -0.8760  1.2177
48481SOL     OW52047   8.786   3.267   5.959  0.2599  0.4756 -0.4726
48481SOL    HW152048   8.820   3.339   5.906 -0.3203  1.3428  0.2965
48481SOL    HW252049   8.856   3.202   5.959  1.3917  1.6550 -0.0071
48482SOL     OW52050   4.881   7.750   5.584  0.2082  0.4081 -0.2428
48482SOL    HW152051   4.831   7.818   5.539 -0.0053  0.3301 -0.1268
48482SOL    HW252052   4.933   7.798   5.649  0.0762  0.4645 -0.1781
48483SOL     OW52053   0.514   2.363   5.492  0.3838 -0.0393 -0.0286
48483SOL    HW152054   0.569   2.390   5.418  0.4734 -2.2052 -0.8442
48483SOL    HW252055   0.576   2.321   5.552  0.0566  0.1904  0.4675
48484SOL     OW52056   2.699   2.140   3.387 -0.4057  0.0887 -0.8731
48484SOL    HW152057   2.640   2.124   3.313 -2.6930 -0.6442  1.0017
48484SOL    HW252058   2.689   2.063   3.443  1.3147  0.5985  0.2030
48485SOL     OW52059  12.184   7.182   1.361  0.3292 -0.5643 -0.2947
48485SOL    HW152060  12.262   7.192   1.415 -0.2606 -1.4479  0.7612
48485SOL    HW252061  12.121   7.139   1.419 -0.6217 -0.7153 -1.4236
48486SOL     OW52062   1.019  10.178   8.493 -0.2393  0.3018 -0.0854
48486SOL    HW152063   1.074  10.248   8.458 -0.2992  0.7129  0.6139
48486SOL    HW252064   1.081  10.116   8.532 -0.2712  1.0776  1.2672
48487SOL     OW52065   2.980   3.089   5.021  0.2678  0.0375 -0.0534
48487SOL    HW152066   2.961   3.038   5.099 -0.6706 -0.4399 -0.5755
48487SOL    HW252067   2.898   3.136   5.003  0.4287  0.0289 -0.8326
48488SOL     OW52068  10.787   9.106   5.692  0.3714  0.3402 -0.3270
48488SOL    HW152069  10.881   9.089   5.694  0.1672 -0.9395 -0.6599
48488SOL    HW252070  10.747   9.019   5.693 -0.7809  0.8136 -1.5304
48489SOL     OW52071   8.429  11.001   6.395 -0.7055  0.5625  0.0348
48489SOL    HW152072   8.414  11.071   6.331 -0.2366  0.8963  0.2804
48489SOL    HW252073   8.444  11.047   6.477  1.4914  0.2930 -0.1456
48490SOL     OW52074   6.041   9.652   7.643 -0.0808  0.5685 -0.1645
48490SOL    HW152075   6.056   9.711   7.717 -0.2792 -0.7446  0.9787
48490SOL    HW252076   5.994   9.704   7.579  0.7420  1.9617  0.3131
48491SOL     OW52077   0.340   0.451  11.687 -0.1544 -0.1496 -0.1260
48491SOL    HW152078   0.249   0.451  11.655  0.2558  0.7587 -1.3417
48491SOL    HW252079   0.369   0.541  11.677  1.2800 -0.6693 -0.8573
48492SOL     OW52080   1.857  10.807   1.658  0.1541  0.4186  0.2338
48492SOL    HW152081   1.905  10.881   1.620 -1.3702  0.6531 -1.3810
48492SOL    HW252082   1.765  10.829   1.645 -0.4310 -0.3759  2.5095
48493SOL     OW52083  12.685   1.561   8.210 -0.7315 -0.0437  0.2637
48493SOL    HW152084  12.645   1.639   8.170 -2.4495 -0.0464  1.8072
48493SOL    HW252085  12.776   1.562   8.181 -0.5154  2.9195  0.7278
48494SOL     OW52086   6.695   3.261   1.606 -0.3457 -0.2501 -0.2295
48494SOL    HW152087   6.777   3.212   1.611  0.4387  1.0130 -0.1335
48494SOL    HW252088   6.657   3.254   1.694  0.7878  0.9771  0.3973
48495SOL     OW52089  10.080  10.682   8.960  0.3418 -0.0520  0.3680
48495SOL    HW152090  10.111  10.678   9.050 -1.1876  1.6088  1.0237
48495SOL    HW252091  10.047  10.593   8.943  3.7619 -1.4257  0.1599
48496SOL     OW52092  12.536   1.871   8.354 -0.1212 -0.2272  0.0019
48496SOL    HW152093  12.510   1.827   8.273  1.5565  2.3074 -2.0711
48496SOL    HW252094  12.619   1.831   8.378 -0.6553 -1.0304  0.5650
48497SOL     OW52095  11.818   7.011   4.910  0.3440 -0.6111  0.3463
48497SOL    HW152096  11.809   7.032   4.817 -0.9375 -1.4307  0.2592
48497SOL    HW252097  11.904   7.045   4.934  1.1654 -1.3406 -1.3982
48498SOL     OW52098  12.448   4.437   1.611  0.2941  0.1415  0.4136
48498SOL    HW152099  12.527   4.451   1.559 -0.8057  1.2150 -1.0477
48498SOL    HW252100  12.412   4.354   1.578  1.0233 -0.5842  1.3975
48499SOL     OW52101   0.489  10.552  11.408  0.1332 -0.4957  0.1585
48499SOL    HW152102   0.440  10.631  11.431 -0.0536 -1.0874  1.9532
48499SOL    HW252103   0.445  10.518  11.330 -1.6929 -0.4354  1.1117
48500SOL     OW52104   5.957   1.452   1.226 -0.1484  0.1329 -0.2112
48500SOL    HW152105   6.006   1.457   1.144 -1.5867 -1.1875 -1.2296
48500SOL    HW252106   5.986   1.370   1.266 -1.0483 -0.3598 -0.5355
48501SOL     OW52107   0.581   9.208   8.783 -0.8619 -0.8065 -0.2065
48501SOL    HW152108   0.514   9.241   8.843  0.3478 -1.7350  1.7558
48501SOL    HW252109   0.584   9.114   8.801 -0.4438 -1.1226 -1.7642
48502SOL     OW52110   7.108   0.623   5.927 -0.0669 -0.6924  0.1267
48502SOL    HW152111   7.033   0.677   5.954  1.2750  0.1758  2.4090
48502SOL    HW252112   7.177   0.686   5.909  0.8028 -1.5608  0.3706
48503SOL     OW52113   3.148   1.507   6.903  0.2457 -0.1447  0.0381
48503SOL    HW152114   3.181   1.588   6.942  1.4742 -0.6391  0.0729
48503SOL    HW252115   3.227   1.455   6.885 -0.5490 -1.6418  0.6699
48504SOL     OW52116  10.154  12.593   1.424 -0.4851  0.8083  0.6388
48504SOL    HW152117  10.100  12.571   1.500  0.0194 -2.1355  0.2535
48504SOL    HW252118  10.100  12.572   1.349  0.4131 -0.1511  0.2374
48505SOL     OW52119   2.665   0.467  11.031  0.3046 -0.1264 -0.8887
48505SOL    HW152120   2.726   0.502  11.096  1.1143 -1.1685 -1.0564
48505SOL    HW252121   2.588   0.441  11.082  0.8803 -0.8133 -0.3405
48506SOL     OW52122   6.114  12.597   6.397  0.2078  0.8068 -0.2342
48506SOL    HW152123   6.024  12.566   6.384  0.9016 -1.5844  0.2545
48506SOL    HW252124   6.113  12.633   6.486 -0.3924  1.3825 -0.4611
48507SOL     OW52125  10.263   8.631   4.767  0.1756 -0.3142 -0.6450
48507SOL    HW152126  10.298   8.714   4.737 -0.5335  0.3980  0.3856
48507SOL    HW252127  10.336   8.588   4.811  0.8953 -0.8463 -2.2904
48508SOL     OW52128   8.326   5.923   9.177  0.3805 -0.4077  0.2447
48508SOL    HW152129   8.261   5.990   9.195  1.6087  1.3892 -1.5937
48508SOL    HW252130   8.393   5.967   9.124  1.3944 -3.0015 -0.8235
48509SOL     OW52131   4.631   4.977   4.885  0.3583  0.1937  0.2892
48509SOL    HW152132   4.565   5.028   4.932 -1.5175 -0.2714 -1.6404
48509SOL    HW252133   4.678   5.042   4.833 -0.0548  0.3240  0.0642
48510SOL     OW52134   5.253   4.750  10.356  0.3999 -0.6019  0.4473
48510SOL    HW152135   5.212   4.751  10.269  3.9395 -0.0756 -1.4015
48510SOL    HW252136   5.279   4.659  10.369  1.4609 -0.3584  0.0953
48511SOL     OW52137   0.517   5.002   4.263 -0.9576 -0.4124 -0.4967
48511SOL    HW152138   0.496   5.015   4.171 -0.6940 -0.8334 -0.6186
48511SOL    HW252139   0.560   5.083   4.290  0.2056 -0.8018 -1.1071
48512SOL     OW52140   1.224   6.685  10.736 -0.2429 -0.0630  0.2261
48512SOL    HW152141   1.154   6.680  10.801 -0.4438  0.8408  0.0822
48512SOL    HW252142   1.209   6.609  10.679  0.2786 -1.2194  1.5474
48513SOL     OW52143   1.360   1.145   7.199  0.0680  0.2754 -0.0323
48513SOL    HW152144   1.290   1.205   7.173 -1.1048 -1.2056 -0.4738
48513SOL    HW252145   1.364   1.152   7.295  0.8375  1.9515 -0.1564
48514SOL     OW52146   2.952   4.411   2.124 -0.1221  0.4672 -0.1632
48514SOL    HW152147   2.910   4.360   2.054  0.6176 -0.1808 -0.1544
48514SOL    HW252148   3.026   4.453   2.081 -0.2673  0.8960  0.0075
48515SOL     OW52149   7.211   6.124   8.886 -0.0058  0.1803 -0.4265
48515SOL    HW152150   7.176   6.210   8.910  2.7587  1.1346  0.6980
48515SOL    HW252151   7.168   6.063   8.946 -0.9403  1.0056 -0.2309
48516SOL     OW52152   4.825   0.705   5.001  0.6159 -0.6289  0.5000
48516SOL    HW152153   4.746   0.652   5.006  1.1576 -1.5237 -0.1024
48516SOL    HW252154   4.795   0.792   4.973 -0.3124 -0.5072  1.7563
48517SOL     OW52155   9.800  11.632   7.377  0.0050 -0.6379 -0.2862
48517SOL    HW152156   9.778  11.572   7.306  3.8532 -1.7716 -0.7905
48517SOL    HW252157   9.860  11.696   7.337 -1.2314  1.4755  1.0245
48518SOL     OW52158   2.543   2.731   5.042 -0.1833  0.3796  0.1438
48518SOL    HW152159   2.501   2.757   5.123 -1.6979 -0.2346 -0.4027
48518SOL    HW252160   2.471   2.719   4.980  0.9405  1.0125 -1.3555
48519SOL     OW52161   8.550   3.325   2.271  0.3375 -0.3876 -0.2236
48519SOL    HW152162   8.463   3.307   2.234 -0.1379 -0.3553  0.8469
48519SOL    HW252163   8.602   3.353   2.196 -0.5386 -0.5343 -0.9086
48520SOL     OW52164   1.221   5.144   8.505  0.0730 -0.0057 -0.9622
48520SOL    HW152165   1.231   5.140   8.410  0.0277  2.4188 -1.1292
48520SOL    HW252166   1.131   5.114   8.521  0.1310 -0.5745 -1.6339
48521SOL     OW52167  11.407   1.333   9.639  0.2440  0.0104  0.0225
48521SOL    HW152168  11.354   1.254   9.635 -0.7975  0.6507  0.7450
48521SOL    HW252169  11.359   1.392   9.697 -0.0097  1.9235 -1.9889
48522SOL     OW52170   0.403   3.363   3.397  0.2552  0.6804 -0.7269
48522SOL    HW152171   0.489   3.327   3.375  0.2034  0.6590 -0.8989
48522SOL    HW252172   0.346   3.287   3.405  0.6166  0.5683  1.0889
48523SOL     OW52173   6.618   9.861  12.104 -0.2634  0.1084 -0.0347
48523SOL    HW152174   6.710   9.840  12.119  0.1835  1.4034 -0.8257
48523SOL    HW252175   6.620   9.937  12.045 -1.8247  0.4618  0.3308
48524SOL     OW52176   9.963  10.659   8.609 -0.2781  0.0517 -0.5076
48524SOL    HW152177   9.888  10.658   8.669 -1.3623  0.2430 -1.8176
48524SOL    HW252178   9.949  10.584   8.551  0.4314  0.2259 -0.9196
48525SOL     OW52179   1.297   8.628   8.025  0.3834  0.4817  0.1215
48525SOL    HW152180   1.290   8.560   8.091 -1.2694  1.8557  1.4761
48525SOL    HW252181   1.333   8.704   8.071  0.1647  1.1677 -0.7830
48526SOL     OW52182   7.842   1.677   2.292  0.2473  0.2698 -0.7521
48526SOL    HW152183   7.897   1.746   2.254 -0.1174  1.6107  1.0440
48526SOL    HW252184   7.849   1.690   2.387 -0.0873 -1.9924 -0.3772
48527SOL     OW52185   1.041   8.363   9.881  0.3405  0.1231  0.1081
48527SOL    HW152186   1.030   8.271   9.858  0.5318  0.2828 -0.6802
48527SOL    HW252187   0.962   8.385   9.930  0.5080 -0.5742  0.6960
48528SOL     OW52188  10.850   9.050   1.467  0.3827  0.1787  0.1161
48528SOL    HW152189  10.862   8.994   1.390  1.0632 -0.5585  0.7479
48528SOL    HW252190  10.901   9.008   1.536 -0.3060  0.7685  1.0105
48529SOL     OW52191   6.947   9.916  12.744  0.0900  0.1517 -0.1691
48529SOL    HW152192   6.961   9.879  12.657 -2.6794  0.9750 -1.0560
48529SOL    HW252193   6.928   9.841  12.800 -0.7645 -0.1748 -0.8863
48530SOL     OW52194   8.595   3.379   0.235  0.4028  0.2896 -0.0772
48530SOL    HW152195   8.654   3.439   0.190  0.4375  1.1823  1.1074
48530SOL    HW252196   8.508   3.417   0.223  0.0112 -1.1017 -1.9459
48531SOL     OW52197   0.707   4.294   2.877 -0.5677 -0.2136  0.0056
48531SOL    HW152198   0.651   4.303   2.954 -1.7444 -1.1674 -0.7048
48531SOL    HW252199   0.666   4.225   2.825  0.8391 -0.3914 -0.9337
48532SOL     OW52200  11.305   6.986   6.189 -0.4019 -0.2991  0.2642
48532SOL    HW152201  11.308   7.072   6.147  2.7312 -0.2666  0.2896
48532SOL    HW252202  11.274   6.927   6.120 -1.1175  0.6120 -0.2152
48533SOL     OW52203  11.423   8.821   6.423 -0.1167  0.4169  0.6399
48533SOL    HW152204  11.365   8.872   6.479  0.3197  0.8528  0.7030
48533SOL    HW252205  11.490   8.787   6.482  0.4443  1.0232  0.3602
48534SOL     OW52206  11.406   7.109  10.790 -0.3554  0.1114  0.3104
48534SOL    HW152207  11.479   7.087  10.849  1.4580 -2.4513 -2.5900
48534SOL    HW252208  11.360   7.026  10.777 -0.5623  0.5246 -1.9549
48535SOL     OW52209   9.555   1.058   3.900  0.4663 -0.4466 -0.3345
48535SOL    HW152210   9.631   1.110   3.873  0.8825 -0.9514 -0.1291
48535SOL    HW252211   9.482   1.120   3.894  0.8929  0.0568 -0.4830
48536SOL     OW52212   5.435  12.541   9.285  0.0838 -0.1482 -0.1423
48536SOL    HW152213   5.447  12.448   9.269 -0.1589 -0.5845  2.0127
48536SOL    HW252214   5.488  12.560   9.362  1.2401  1.8362 -1.3157
48537SOL     OW52215   6.334   2.547   4.113  0.2178  0.0426 -0.1719
48537SOL    HW152216   6.378   2.508   4.188  1.0685 -0.6290 -1.0075
48537SOL    HW252217   6.402   2.598   4.069  0.1116 -0.7837 -1.3273
48538SOL     OW52218  10.255  10.437   0.238 -0.5679 -0.1665 -0.0885
48538SOL    HW152219  10.278  10.430   0.145  2.3480  0.5011  0.4801
48538SOL    HW252220  10.340  10.441   0.283 -1.9026  0.3037  2.5519
48539SOL     OW52221   8.521  11.871   9.189  0.5293  0.0072  0.4764
48539SOL    HW152222   8.561  11.952   9.158 -0.4922  0.2105 -0.3769
48539SOL    HW252223   8.455  11.900   9.252 -0.3771 -0.0662 -0.3994
48540SOL     OW52224   2.175   5.922   5.669  0.2561 -0.5882 -0.1592
48540SOL    HW152225   2.201   5.950   5.757  0.7945 -0.5544 -0.3253
48540SOL    HW252226   2.256   5.894   5.628 -0.1479 -1.5747 -0.3009
48541SOL     OW52227   3.786   3.953   5.704  0.0651 -0.3672 -0.3604
48541SOL    HW152228   3.707   3.907   5.731 -0.1074 -0.5158 -1.1061
48541SOL    HW252229   3.827   3.980   5.787 -2.5031  2.7562  0.0688
48542SOL     OW52230   4.242   7.156  11.649  0.0771  0.6772 -0.0366
48542SOL    HW152231   4.226   7.190  11.737  0.6718  0.5452  0.1282
48542SOL    HW252232   4.157   7.125  11.619 -0.4186  1.9907 -0.0563
48543SOL     OW52233  12.239   8.916  11.571  0.5964  0.5652  0.0735
48543SOL    HW152234  12.172   8.982  11.553 -1.1099 -0.6657  1.4707
48543SOL    HW252235  12.193   8.832  11.561  1.6449 -0.3212  1.9822
48544SOL     OW52236   9.630   8.644   6.919  0.1119  0.0818  0.2670
48544SOL    HW152237   9.705   8.703   6.925  0.7373 -0.7126  0.4220
48544SOL    HW252238   9.668   8.558   6.903 -0.8740  0.0330 -2.2310
48545SOL     OW52239  11.478  10.871   6.319 -0.0064 -0.6571  0.3695
48545SOL    HW152240  11.487  10.813   6.243  0.8944  2.0136 -1.7264
48545SOL    HW252241  11.389  10.905   6.312  0.1760 -0.1821  0.3477
48546SOL     OW52242   2.240   9.729   0.557 -0.0823  0.2226  0.4217
48546SOL    HW152243   2.305   9.663   0.533  0.2243  0.2753  1.0778
48546SOL    HW252244   2.230   9.784   0.479 -0.5036 -0.7215 -0.2043
48547SOL     OW52245   9.223   2.803   0.434 -0.0010  0.0582  0.2708
48547SOL    HW152246   9.170   2.760   0.367  2.3328  1.4993 -2.7693
48547SOL    HW252247   9.295   2.743   0.450 -0.0777  0.1107  0.8242
48548SOL     OW52248   1.155   8.652  10.634 -0.1958 -0.2272  0.2647
48548SOL    HW152249   1.083   8.700  10.593  0.2345  0.2382  0.0306
48548SOL    HW252250   1.142   8.664  10.728  0.6461  1.5306  0.2046
48549SOL     OW52251   6.641   8.168   4.102 -0.0573  0.3440  0.5091
48549SOL    HW152252   6.597   8.250   4.124 -0.0128  0.9437 -1.3861
48549SOL    HW252253   6.571   8.111   4.071  0.0274  0.0006  0.9543
48550SOL     OW52254   2.429   2.859   4.296 -0.3543  0.4101 -0.2331
48550SOL    HW152255   2.408   2.812   4.377 -1.2369 -0.0214 -0.6990
48550SOL    HW252256   2.380   2.941   4.301  1.8805  1.7533  0.9885
48551SOL     OW52257   0.567   5.099   6.002  0.0327  0.4402 -0.0075
48551SOL    HW152258   0.663   5.099   6.013  0.1245 -0.5187 -0.6417
48551SOL    HW252259   0.535   5.153   6.074  1.0508  0.7088  0.2664
48552SOL     OW52260   9.018   2.713  12.309 -0.1907  0.0115 -0.3393
48552SOL    HW152261   9.013   2.625  12.344 -0.1518  0.7350  1.6099
48552SOL    HW252262   9.107   2.742  12.329 -0.5463  0.8718  0.0486
48553SOL     OW52263   9.313   5.617   2.993 -0.1088  0.3272  0.2007
48553SOL    HW152264   9.240   5.561   2.964  0.1996  0.3451 -0.6610
48553SOL    HW252265   9.340   5.663   2.913  0.4018  0.8298  0.6594
48554SOL     OW52266  12.401   3.258   3.087  0.1642 -0.1072 -0.0332
48554SOL    HW152267  12.324   3.314   3.091  0.7282  0.6016  2.2636
48554SOL    HW252268  12.368   3.169   3.102 -0.1547  0.2892  1.7794
48555SOL     OW52269   3.011   8.018   4.111 -0.0606 -0.4382  0.0640
48555SOL    HW152270   3.007   7.930   4.073 -1.0998  0.2562 -1.5721
48555SOL    HW252271   3.076   8.064   4.057  0.7737 -0.3048  1.1657
48556SOL     OW52272   9.755  11.063   6.602  0.0671  0.3468 -0.1129
48556SOL    HW152273   9.831  11.088   6.550  0.3625  0.3658  0.3268
48556SOL    HW252274   9.778  10.978   6.639 -0.9977 -0.6932 -1.7252
48557SOL     OW52275   4.186   2.778   0.119  0.0070 -0.2489 -0.2648
48557SOL    HW152276   4.181   2.684   0.136  0.2591  0.0724  1.8945
48557SOL    HW252277   4.276   2.792   0.090  0.1361 -0.6113 -0.0590
48558SOL     OW52278   1.480   2.058  10.064  0.1146  0.3551  0.4143
48558SOL    HW152279   1.524   2.143  10.063  2.2546 -0.6801  0.3934
48558SOL    HW252280   1.424   2.059   9.986 -0.1240  1.8193  0.5677
48559SOL     OW52281  12.098  10.588   4.449  0.2166  0.2136  0.4464
48559SOL    HW152282  12.150  10.556   4.376 -2.0337 -1.5127 -0.5409
48559SOL    HW252283  12.011  10.550   4.435 -0.4625  0.2454  3.7559
48560SOL     OW52284  10.897   9.455   3.103 -0.1049  0.6437  0.3170
48560SOL    HW152285  10.850   9.507   3.168  0.7204  1.7641  0.0380
48560SOL    HW252286  10.971   9.418   3.151 -1.1996 -1.1276  0.7576
48561SOL     OW52287  10.157   8.023   3.707  0.0453 -0.1427 -0.1125
48561SOL    HW152288  10.128   8.107   3.674 -1.5777 -0.8414 -0.5650
48561SOL    HW252289  10.222   7.993   3.643  1.7866  1.3697  0.8368
48562SOL     OW52290  12.547  11.375   5.448 -0.3978 -0.0537 -0.5218
48562SOL    HW152291  12.559  11.463   5.411 -0.6156  1.0447  1.8481
48562SOL    HW252292  12.463  11.346   5.414 -2.0798  2.2062  1.3516
48563SOL     OW52293   1.551  10.111   6.692 -0.7402  0.1984 -0.6335
48563SOL    HW152294   1.618  10.047   6.719 -1.6408 -0.8152 -0.7431
48563SOL    HW252295   1.572  10.130   6.601  0.7440  1.6415 -0.0427
48564SOL     OW52296   2.315  10.802   1.214 -0.1970 -0.5655  0.0531
48564SOL    HW152297   2.220  10.810   1.229 -0.3006 -2.2065  0.4742
48564SOL    HW252298   2.326  10.824   1.122 -0.5359  2.6734  0.6860
48565SOL     OW52299  11.038  10.841   4.956 -0.5439  0.2068 -0.1150
48565SOL    HW152300  11.068  10.926   4.923  1.4282  0.5744  2.2549
48565SOL    HW252301  10.962  10.862   5.010 -1.1987  0.1874 -1.0189
48566SOL     OW52302   5.465   8.570   3.065 -0.9390 -0.1064  0.0489
48566SOL    HW152303   5.436   8.480   3.055 -0.8190 -0.2954  1.2998
48566SOL    HW252304   5.482   8.580   3.158 -0.8118  1.1715 -0.0921
48567SOL     OW52305   4.730  12.581   3.018  0.2913  1.1000  0.6431
48567SOL    HW152306   4.654  12.530   3.045  0.1968  0.6576 -0.4357
48567SOL    HW252307   4.696  12.668   3.002 -0.1349  0.7431 -0.4895
48568SOL     OW52308   2.061   7.209   9.733 -0.1913 -0.0209  0.0428
48568SOL    HW152309   1.987   7.269   9.720  1.3019  2.4630  1.9534
48568SOL    HW252310   2.122   7.230   9.663 -0.6584 -1.0295 -0.6770
48569SOL     OW52311   2.286   4.921   8.203 -0.4724 -0.5628  0.4062
48569SOL    HW152312   2.365   4.965   8.172 -0.5331 -0.0528  0.9626
48569SOL    HW252313   2.214   4.980   8.177 -0.5329 -0.1927  1.3986
48570SOL     OW52314  11.527  11.128  12.545 -0.4149 -0.4157 -0.2870
48570SOL    HW152315  11.527  11.219  12.574 -0.5829  0.3606 -2.5413
48570SOL    HW252316  11.549  11.078  12.623 -0.8535  1.5061  1.1338
48571SOL     OW52317   6.598  10.513   2.057  0.7334  0.3695  0.7173
48571SOL    HW152318   6.513  10.488   2.094  0.7555  0.2818  0.7091
48571SOL    HW252319   6.576  10.568   1.982  0.6520 -0.6139 -0.0011
48572SOL     OW52320   5.989  10.440  10.638 -0.3187  0.3308  1.0276
48572SOL    HW152321   6.025  10.527  10.658  0.9115  0.5293 -1.6573
48572SOL    HW252322   5.989  10.395  10.723  2.2974  1.8060  1.9364
48573SOL     OW52323   7.029   9.392   6.276  0.1947  0.0017  0.3375
48573SOL    HW152324   6.940   9.377   6.246  0.4362  0.4920 -0.6496
48573SOL    HW252325   7.030   9.483   6.304  0.6365  0.3123 -0.6322
48574SOL     OW52326   2.701   9.718   9.989 -0.8241 -0.1963 -0.3602
48574SOL    HW152327   2.788   9.683   9.970 -1.3440 -1.0349 -1.2429
48574SOL    HW252328   2.652   9.644  10.024 -1.3149  0.1675 -0.2683
48575SOL     OW52329   0.398   8.112   5.403 -0.1560  0.2299  0.0586
48575SOL    HW152330   0.457   8.187   5.398  2.2441 -1.3753  1.7304
48575SOL    HW252331   0.369   8.110   5.494 -0.7876 -0.4304 -0.1423
48576SOL     OW52332   8.388   7.346  12.580 -0.0684 -0.5330  0.6811
48576SOL    HW152333   8.326   7.276  12.599 -1.1262  0.3230  0.5138
48576SOL    HW252334   8.339   7.407  12.525  0.4722  0.8215  1.6251
48577SOL     OW52335   4.980   8.397   5.004 -0.1935  0.3149 -0.4095
48577SOL    HW152336   4.929   8.316   5.007 -0.2813  0.3663 -0.4915
48577SOL    HW252337   5.007   8.412   5.094  3.6159 -2.2189 -0.9075
48578SOL     OW52338   0.610   7.669   5.965 -0.2925  0.6334  0.7178
48578SOL    HW152339   0.649   7.756   5.955  0.9391  0.1684  1.2095
48578SOL    HW252340   0.678   7.617   6.008 -0.1519 -1.1320 -1.3918
48579SOL     OW52341   1.858   0.461   8.920  0.8647  0.5728 -0.2558
48579SOL    HW152342   1.905   0.539   8.893 -0.4406  1.4301 -0.1398
48579SOL    HW252343   1.918   0.388   8.900  1.9687  1.5619 -0.6497
48580SOL     OW52344   7.546   9.994   2.238 -0.0923  0.5654 -0.0146
48580SOL    HW152345   7.630   9.980   2.281 -1.0144 -2.0331  1.1516
48580SOL    HW252346   7.565   9.983   2.145  0.8585 -0.1289  0.2437
48581SOL     OW52347   3.392  11.473   4.578 -0.4355  0.8365  0.4669
48581SOL    HW152348   3.365  11.449   4.666  1.4052 -0.5031  0.7418
48581SOL    HW252349   3.415  11.390   4.536  1.7055  1.6614 -0.1697
48582SOL     OW52350   4.878   8.705  11.578 -0.0055 -0.3221 -0.1469
48582SOL    HW152351   4.813   8.775  11.567  0.0573 -0.0341  1.1607
48582SOL    HW252352   4.853   8.639  11.513 -0.2266  0.7828 -1.2215
48583SOL     OW52353   2.579   4.108   0.796  0.1266  0.3381 -0.1069
48583SOL    HW152354   2.587   4.181   0.858 -0.1029 -0.0297  0.3617
48583SOL    HW252355   2.666   4.068   0.796 -0.3771 -0.9012  1.5523
48584SOL     OW52356   3.731  12.153   6.135  0.5428  0.4433 -0.8970
48584SOL    HW152357   3.745  12.059   6.131  0.0257  0.3483 -0.5717
48584SOL    HW252358   3.663  12.170   6.070 -0.6765  0.3165  0.2854
48585SOL     OW52359  10.414   1.846  12.338  0.3687  0.2332 -0.3266
48585SOL    HW152360  10.505   1.840  12.366  0.2658  0.1459 -0.0098
48585SOL    HW252361  10.363   1.837  12.419  0.0618 -0.3413 -0.5727
48586SOL     OW52362   9.600   7.262   5.978 -0.4281 -0.0771 -0.0687
48586SOL    HW152363   9.585   7.214   5.896 -1.8119 -0.5082  0.4089
48586SOL    HW252364   9.649   7.339   5.951 -0.1532 -0.6140 -1.1931
48587SOL     OW52365   9.850   1.350   4.607 -0.2450 -0.1549 -0.2007
48587SOL    HW152366   9.852   1.376   4.515  1.6419 -0.4579 -0.2782
48587SOL    HW252367   9.909   1.411   4.651 -2.5202  1.1637  1.1935
48588SOL     OW52368   7.672   2.499  11.016  0.3507  0.3338 -0.1224
48588SOL    HW152369   7.731   2.574  11.016  0.5838  0.1513 -0.2084
48588SOL    HW252370   7.653   2.482  11.108  1.7860 -0.6686  0.0123
48589SOL     OW52371   3.523  10.225   4.313  0.4072 -0.1108 -0.0406
48589SOL    HW152372   3.487  10.147   4.272  0.4215 -1.2533  1.9679
48589SOL    HW252373   3.446  10.270   4.349  0.5042  0.1982 -0.2214
48590SOL     OW52374   1.733   6.582   0.693 -0.4407  0.2246  0.2147
48590SOL    HW152375   1.762   6.518   0.759 -0.5052  0.4131  0.4283
48590SOL    HW252376   1.814   6.610   0.650 -0.4621 -0.3689 -0.2205
48591SOL     OW52377   2.863   3.547   6.270  0.0414  0.1219  0.4096
48591SOL    HW152378   2.927   3.516   6.206 -0.6166 -1.0603  0.2872
48591SOL    HW252379   2.914   3.589   6.338  1.1257 -2.2265  1.1386
48592SOL     OW52380   5.561  12.334   7.324  0.1153  0.0698  0.1761
48592SOL    HW152381   5.639  12.281   7.310 -0.7434 -0.8024 -1.6094
48592SOL    HW252382   5.509  12.284   7.387  0.6813  0.3391  0.8746
48593SOL     OW52383   7.908  11.568   4.449 -0.2987 -0.5697  0.2609
48593SOL    HW152384   7.864  11.615   4.378 -0.0257 -0.7309 -0.0149
48593SOL    HW252385   8.001  11.584   4.434 -0.2985  1.5382  2.0562
48594SOL     OW52386   5.488  11.477   2.467  0.1359  0.4915 -0.2444
48594SOL    HW152387   5.575  11.492   2.428 -0.5082  0.2111 -1.8988
48594SOL    HW252388   5.430  11.468   2.391 -1.4888  1.4864  0.8212
48595SOL     OW52389  11.653   7.293  11.588 -0.1730 -0.3323  0.7902
48595SOL    HW152390  11.717   7.262  11.652  2.6820  0.6350 -1.3794
48595SOL    HW252391  11.599   7.216  11.568  2.2355 -2.0979  0.6111
48596SOL     OW52392  11.733   5.780   0.067 -0.0712  0.0426  0.0320
48596SOL    HW152393  11.732   5.689   0.037  0.3592  0.6966 -2.1857
48596SOL    HW252394  11.752   5.775   0.161 -2.8616 -2.2336  0.6045
48597SOL     OW52395  10.840   9.546   2.849 -0.1542  0.1028  0.1598
48597SOL    HW152396  10.751   9.579   2.831 -1.3482 -3.5090 -1.6576
48597SOL    HW252397  10.836   9.517   2.940 -1.0523 -0.4964 -0.0503
48598SOL     OW52398   1.996   9.726   7.608 -0.3830  0.2108 -0.2877
48598SOL    HW152399   2.077   9.690   7.643 -0.6078 -0.2015 -0.1964
48598SOL    HW252400   1.996   9.817   7.640  1.6900  1.3167 -2.9842
48599SOL     OW52401  11.411   0.996   8.020  0.0737 -0.0464 -0.6592
48599SOL    HW152402  11.461   1.000   8.102 -0.2679 -0.2890 -0.4330
48599SOL    HW252403  11.351   1.071   8.025 -0.5749 -0.5812 -0.2634
48600SOL     OW52404   8.572   8.623   3.640 -1.3684  0.2161  0.1447
48600SOL    HW152405   8.535   8.710   3.653 -1.0530  0.3604  0.0810
48600SOL    HW252406   8.558   8.604   3.547  0.8924  1.2951 -0.4771
48601SOL     OW52407  10.098  12.229   5.061  0.6857  0.7304  0.1045
48601SOL    HW152408  10.058  12.277   5.133  1.8169  1.0253  0.5562
48601SOL    HW252409  10.043  12.248   4.986 -0.2765  0.7461  0.7986
48602SOL     OW52410   2.366   4.315   9.947  0.0145  0.3166 -0.3838
48602SOL    HW152411   2.331   4.303  10.035 -0.2194  1.3283 -0.3285
48602SOL    HW252412   2.403   4.403   9.947  0.7238  0.0346 -1.0635
48603SOL     OW52413   3.793   5.698  10.247  0.3452 -0.4481  0.4761
48603SOL    HW152414   3.708   5.662  10.271 -0.1849  0.9617  0.8413
48603SOL    HW252415   3.777   5.744  10.165  0.3279  1.1980  1.3492
48604SOL     OW52416   0.290   1.620  11.160  0.0968 -0.2342 -0.2121
48604SOL    HW152417   0.305   1.525  11.154  0.5020 -0.2791  1.1151
48604SOL    HW252418   0.279   1.636  11.254  2.1301  1.3346 -0.1892
48605SOL     OW52419   5.271   1.491   6.203  0.2608  0.1567 -0.2169
48605SOL    HW152420   5.314   1.574   6.222  0.3821 -0.0003  0.1960
48605SOL    HW252421   5.210   1.479   6.275 -0.1955  0.1824 -0.5913
48606SOL     OW52422   4.042  10.059   4.532  0.4653  0.3068 -0.2053
48606SOL    HW152423   4.018   9.982   4.584  0.1972  0.8533  0.4949
48606SOL    HW252424   4.075  10.022   4.449  1.5230 -0.6048  0.5884
48607SOL     OW52425  11.728   1.595   2.641 -0.1118 -0.0734  0.0825
48607SOL    HW152426  11.676   1.624   2.715 -0.0071  0.3404 -0.0027
48607SOL    HW252427  11.690   1.512   2.615 -0.7773  0.2601 -0.0235
48608SOL     OW52428  10.371  10.599   4.453 -0.1955  0.5458  0.2336
48608SOL    HW152429  10.356  10.531   4.388 -2.0334  1.3896 -0.2802
48608SOL    HW252430  10.371  10.552   4.537 -1.8950 -0.0566 -0.0708
48609SOL     OW52431   9.530   6.225  10.220 -0.5824 -0.2015 -0.3989
48609SOL    HW152432   9.623   6.230  10.243 -0.4771 -0.0276 -0.8479
48609SOL    HW252433   9.523   6.277  10.140 -0.5342 -2.4260 -1.9288
48610SOL     OW52434  11.486   3.474  11.439 -0.3369  0.2515  0.3199
48610SOL    HW152435  11.505   3.436  11.353  0.5418  0.4846  0.3960
48610SOL    HW252436  11.566   3.458  11.490 -0.0360  1.9219  0.4365
48611SOL     OW52437   5.890  11.053   0.013 -0.0275 -0.1803  0.2124
48611SOL    HW152438   5.896  10.979  -0.048 -0.5315 -0.9367  1.0553
48611SOL    HW252439   5.798  11.055   0.039 -0.2163  1.3066 -0.4475
48612SOL     OW52440   9.833   8.605  11.136  0.3494 -0.1457 -0.3937
48612SOL    HW152441   9.830   8.514  11.167 -0.2400 -0.6367 -1.7925
48612SOL    HW252442   9.757   8.646  11.177  1.7398  0.3456  1.9108
48613SOL     OW52443  12.238   2.287   5.579  0.4484  0.1339 -0.7786
48613SOL    HW152444  12.209   2.217   5.637 -0.3241  0.9087 -0.2118
48613SOL    HW252445  12.186   2.276   5.500 -1.3586  1.3987  0.1581
48614SOL     OW52446   1.840   9.466   2.211  0.1082  0.1635  0.1984
48614SOL    HW152447   1.750   9.497   2.202  0.7633  2.2585  0.2929
48614SOL    HW252448   1.881   9.488   2.127  1.2857  2.0713  1.2237
48615SOL     OW52449  11.286   7.989   1.386  1.1782 -0.6437 -0.4437
48615SOL    HW152450  11.201   7.991   1.342  1.2689 -1.2725 -0.6495
48615SOL    HW252451  11.297   8.078   1.420 -0.2328 -0.9246  0.8666
48616SOL     OW52452   7.614   0.791   0.867  0.4007 -0.1644  0.0365
48616SOL    HW152453   7.545   0.841   0.910  0.2918 -0.9422  0.8028
48616SOL    HW252454   7.638   0.723   0.931  1.3084 -0.4021 -0.5387
48617SOL     OW52455   7.311   6.791   1.662 -0.1759  0.1973 -0.1341
48617SOL    HW152456   7.332   6.739   1.740  2.2131  0.0889 -0.7833
48617SOL    HW252457   7.360   6.750   1.592 -0.1997  1.8498 -1.1730
48618SOL     OW52458   6.260   4.502  12.377  0.1979  0.1567 -0.0177
48618SOL    HW152459   6.268   4.570  12.444  1.7871 -0.9278  0.9872
48618SOL    HW252460   6.351   4.473  12.362 -0.2293 -0.3204 -1.9204
48619SOL     OW52461   3.027   7.774  11.702 -0.4930  0.4835 -0.3592
48619SOL    HW152462   2.939   7.769  11.664  0.0987 -1.2044 -1.6361
48619SOL    HW252463   3.037   7.692  11.750  0.3683  0.6874 -0.1673
48620SOL     OW52464   3.196   7.676   8.394  0.2930  1.3100 -0.2344
48620SOL    HW152465   3.249   7.625   8.333  1.9015  1.0237  1.3364
48620SOL    HW252466   3.191   7.763   8.355  1.0287  1.0464 -0.9399
48621SOL     OW52467   5.796   8.755   9.363  0.1317  0.3880 -0.2564
48621SOL    HW152468   5.707   8.722   9.353  1.1850 -2.5842 -0.7962
48621SOL    HW252469   5.788   8.850   9.353 -2.8463  0.1456 -1.0327
48622SOL     OW52470   7.297   0.250   9.696 -0.4635 -0.6339  0.1983
48622SOL    HW152471   7.209   0.261   9.660  0.3965 -0.6587 -2.1295
48622SOL    HW252472   7.299   0.305   9.774 -2.5819 -0.8079  0.4367
48623SOL     OW52473  12.118   2.450   2.969 -0.0131 -0.4951 -1.3695
48623SOL    HW152474  12.201   2.424   3.009 -0.5755  1.4185  1.3245
48623SOL    HW252475  12.140   2.523   2.912  0.1041  0.7115  0.1532
48624SOL     OW52476   3.937   5.679   5.828  0.1921 -0.4398 -0.5287
48624SOL    HW152477   3.941   5.587   5.805 -0.2001 -0.3464 -0.9946
48624SOL    HW252478   3.920   5.724   5.745 -2.2898 -0.1763  0.0352
48625SOL     OW52479  11.340   8.553   9.889 -0.1997 -0.2933  0.1767
48625SOL    HW152480  11.283   8.508   9.826 -1.4040  1.6406 -0.2052
48625SOL    HW252481  11.421   8.568   9.840 -0.6036 -0.0811 -0.4485
48626SOL     OW52482   7.169   5.107   3.038 -0.3280  0.0091  0.2601
48626SOL    HW152483   7.074   5.118   3.051 -0.1238  1.1458  0.9078
48626SOL    HW252484   7.203   5.095   3.127  0.4634  2.5126  0.3528
48627SOL     OW52485   4.044   9.637   8.192 -0.3181 -0.2007  0.1220
48627SOL    HW152486   4.056   9.724   8.155  0.3891 -0.8517 -1.2772
48627SOL    HW252487   4.119   9.587   8.160 -2.4442 -2.2549 -2.0840
48628SOL     OW52488  11.862   7.042   3.617  0.4152 -0.2155  0.0061
48628SOL    HW152489  11.909   7.089   3.685 -2.7594  0.1958  2.1358
48628SOL    HW252490  11.864   7.101   3.541  3.3614 -0.3527 -0.1384
48629SOL     OW52491   1.810   2.923   7.704  0.2481  0.0386 -0.6533
48629SOL    HW152492   1.877   2.991   7.713  0.1650  0.0565 -0.1380
48629SOL    HW252493   1.738   2.966   7.659  0.1898  0.2965 -0.3164
48630SOL     OW52494   1.207   4.423   7.453  0.0567 -0.2922 -0.2470
48630SOL    HW152495   1.133   4.479   7.431 -0.6228 -1.1990 -0.3498
48630SOL    HW252496   1.237   4.454   7.538  1.5599  2.0869 -1.5332
48631SOL     OW52497   2.245   9.422   0.698  0.1354 -0.2940  0.4052
48631SOL    HW152498   2.320   9.446   0.644 -1.0367  0.7864 -0.8183
48631SOL    HW252499   2.207   9.346   0.654 -1.0033  0.7771 -0.5188
48632SOL     OW52500   1.227  10.011   2.332  0.9605 -0.1716 -0.4851
48632SOL    HW152501   1.154  10.031   2.274  0.2477  1.7676  0.9876
48632SOL    HW252502   1.216   9.918   2.353 -0.2196 -0.2710 -1.4444
48633SOL     OW52503  10.914   3.522   2.497 -0.0794 -0.3112  0.0318
48633SOL    HW152504  11.001   3.515   2.535  0.2370  0.2511 -0.5814
48633SOL    HW252505  10.906   3.614   2.472 -0.5078 -0.5500 -0.7367
48634SOL     OW52506   9.173   7.276   8.658 -0.0084  1.0110  0.0827
48634SOL    HW152507   9.267   7.275   8.677 -0.0528  0.5780  0.3016
48634SOL    HW252508   9.136   7.211   8.718 -0.3521  0.6767 -0.4818
48635SOL     OW52509   5.705   2.910  10.860 -0.5714  0.5042  0.3135
48635SOL    HW152510   5.786   2.872  10.894 -0.5821  0.1901  0.0021
48635SOL    HW252511   5.697   2.995  10.903 -1.3542 -0.4716  2.2391
48636SOL     OW52512   0.094   5.920  10.908 -0.1891 -0.0580  0.3002
48636SOL    HW152513   0.175   5.945  10.952  0.6911 -1.5418 -0.4056
48636SOL    HW252514   0.042   5.876  10.975  0.6231 -1.2177  0.1911
48637SOL     OW52515   1.212   0.916   4.858  0.2342  0.3263  0.3634
48637SOL    HW152516   1.244   0.942   4.772 -0.7600  0.8003  0.1226
48637SOL    HW252517   1.175   0.996   4.895 -2.1517 -0.5108 -0.0479
48638SOL     OW52518   0.750  11.082  12.596 -0.0137 -0.5603  0.9848
48638SOL    HW152519   0.682  11.143  12.624 -0.2932 -0.4415  0.0702
48638SOL    HW252520   0.796  11.059  12.677 -0.8839 -0.3416  1.5578
48639SOL     OW52521   6.262   3.972   4.867  0.0186 -0.2326 -0.3160
48639SOL    HW152522   6.300   3.901   4.919  1.0411  0.4512 -0.1101
48639SOL    HW252523   6.332   4.037   4.860 -0.4194  0.1164 -1.7494
48640SOL     OW52524  12.745   9.651  10.918  0.2072  0.0019 -0.6268
48640SOL    HW152525  12.797   9.571  10.909 -1.3009 -0.9020 -2.0714
48640SOL    HW252526  12.763   9.700  10.838 -0.4902  0.0659 -0.7485
48641SOL     OW52527   4.797  12.094   1.884 -0.0177  0.1275  0.0609
48641SOL    HW152528   4.812  12.029   1.953  0.4390 -0.2636 -0.4052
48641SOL    HW252529   4.702  12.108   1.885 -0.4506 -2.1915 -1.2852
48642SOL     OW52530   3.880   4.264  11.623  0.0800  0.0130 -0.6427
48642SOL    HW152531   3.945   4.199  11.648  0.5365  0.4061 -0.7904
48642SOL    HW252532   3.831   4.282  11.703 -0.5051 -1.0199 -0.7619
48643SOL     OW52533   7.844   2.145   4.742  0.0994 -0.3513  0.0938
48643SOL    HW152534   7.905   2.112   4.807  1.1679 -1.1932 -1.2819
48643SOL    HW252535   7.890   2.219   4.701  0.8735 -1.8549 -1.9186
48644SOL     OW52536   8.689   6.963   6.991  0.1741  0.2737  0.7846
48644SOL    HW152537   8.733   6.886   7.028 -0.6525 -0.0684  1.0816
48644SOL    HW252538   8.747   6.992   6.921  0.0073 -1.2539 -0.0285
48645SOL     OW52539  12.320   1.414   8.566 -0.3902 -0.2550  0.1999
48645SOL    HW152540  12.307   1.402   8.660 -0.3814  2.3466  0.5862
48645SOL    HW252541  12.334   1.325   8.533  0.5662 -1.1531  2.7812
48646SOL     OW52542  10.361   8.871   4.699 -0.6656 -0.2358  0.2399
48646SOL    HW152543  10.347   8.859   4.605  0.6947  1.3548 -0.2354
48646SOL    HW252544  10.310   8.949   4.721  2.0598  1.8361 -0.1562
48647SOL     OW52545   5.910   3.762   0.558  0.1722  0.3822  0.0211
48647SOL    HW152546   5.918   3.857   0.560  0.1478  0.3798  1.6262
48647SOL    HW252547   5.815   3.746   0.556  0.1583  0.4008  0.4223
48648SOL     OW52548   4.281   4.226   4.046  0.1193  0.3531  0.2768
48648SOL    HW152549   4.296   4.160   3.978 -0.5447 -0.2797  0.7242
48648SOL    HW252550   4.188   4.246   4.039 -0.1456 -0.3679  1.5588
48649SOL     OW52551   4.354   6.355   9.162 -0.0930 -0.0285  0.2763
48649SOL    HW152552   4.300   6.433   9.179 -0.3496 -0.0965 -0.2226
48649SOL    HW252553   4.389   6.369   9.074  0.3896 -0.1742  0.4413
48650SOL     OW52554   6.344   1.931   3.094 -0.3571  0.1207 -0.4472
48650SOL    HW152555   6.280   1.927   3.164 -0.5177  2.5655 -0.3477
48650SOL    HW252556   6.385   1.845   3.093 -1.5148 -0.5100  1.5088
48651SOL     OW52557   9.314   8.257   9.244  0.0924 -0.7187 -0.0837
48651SOL    HW152558   9.383   8.299   9.192  0.1859 -0.1416  0.4897
48651SOL    HW252559   9.354   8.175   9.274 -0.3789 -1.6765 -1.9090
48652SOL     OW52560   2.793   4.986   0.879  0.1352  0.7379  0.6183
48652SOL    HW152561   2.825   5.075   0.869  0.9652  0.6721  2.2574
48652SOL    HW252562   2.836   4.954   0.959 -0.6780 -0.8854  0.4539
48653SOL     OW52563   9.240  10.004   1.372 -0.5894 -0.1725  0.2414
48653SOL    HW152564   9.256  10.045   1.287 -0.1729  0.7292  0.7270
48653SOL    HW252565   9.268   9.913   1.362 -1.1458 -0.2361 -0.7619
48654SOL     OW52566   4.395   1.519   7.751 -0.5047 -0.3126  0.6283
48654SOL    HW152567   4.400   1.455   7.821  0.0215 -2.3917 -1.2163
48654SOL    HW252568   4.486   1.537   7.727 -0.6835 -0.5751 -0.3116
48655SOL     OW52569   2.836   9.667   5.754  0.8984  0.1893  0.0438
48655SOL    HW152570   2.748   9.631   5.766  1.7750 -1.5446  1.9288
48655SOL    HW252571   2.849   9.668   5.659 -0.4384 -1.3503 -0.1951
48656SOL     OW52572   0.397   8.273   1.271  0.1231 -0.0910  0.4988
48656SOL    HW152573   0.408   8.361   1.307  1.2550 -0.6674  1.6538
48656SOL    HW252574   0.446   8.216   1.331  1.4896 -1.2110 -1.5748
48657SOL     OW52575   5.609   9.000   6.415  0.3837 -0.0217  0.5251
48657SOL    HW152576   5.703   9.013   6.429  0.6441 -2.0398  0.9330
48657SOL    HW252577   5.587   9.061   6.344  2.2111 -0.1767 -0.2400
48658SOL     OW52578   3.072   0.846  12.082 -0.0763 -0.0725 -0.0944
48658SOL    HW152579   3.088   0.806  11.997 -1.0206  2.4378 -1.5223
48658SOL    HW252580   3.159   0.851  12.122  0.4786 -0.6753 -1.1786
48659SOL     OW52581   8.730   9.432   1.884  0.0240  0.0259 -0.4954
48659SOL    HW152582   8.673   9.383   1.824 -0.7979  0.2397  0.0883
48659SOL    HW252583   8.802   9.463   1.829 -0.8987  0.5335 -1.4495
48660SOL     OW52584  12.395   5.364   1.497 -0.6409  0.6241  0.2266
48660SOL    HW152585  12.399   5.412   1.415 -1.7137  0.6063  0.1506
48660SOL    HW252586  12.449   5.415   1.558  2.0625 -0.5247 -1.0255
48661SOL     OW52587   0.472   7.752   3.957  0.0685  0.3760  0.2862
48661SOL    HW152588   0.425   7.820   3.908  0.4564  0.8186  0.5269
48661SOL    HW252589   0.556   7.792   3.980 -0.0175  0.0954  1.1154
48662SOL     OW52590   1.769   0.240   2.012  0.3899  0.5018 -0.2272
48662SOL    HW152591   1.762   0.204   1.924 -1.3628  2.5062 -1.0004
48662SOL    HW252592   1.863   0.239   2.031  0.5738 -2.6468 -0.8686
48663SOL     OW52593   6.775   0.445  11.481 -0.3671 -0.1152 -0.0234
48663SOL    HW152594   6.754   0.453  11.388 -1.8992  2.7113  0.4154
48663SOL    HW252595   6.689   0.442  11.524  0.2430  1.2615  1.3893
48664SOL     OW52596   2.525   2.364   1.155 -0.0647 -0.6192 -0.1414
48664SOL    HW152597   2.439   2.384   1.118  0.0448 -0.0891 -0.1129
48664SOL    HW252598   2.547   2.439   1.209  0.6174 -0.5442 -0.5034
48665SOL     OW52599   2.641   4.143   4.914 -0.2027  0.2866 -0.2018
48665SOL    HW152600   2.657   4.183   4.828  0.9355  0.6073  0.1447
48665SOL    HW252601   2.548   4.160   4.931 -0.6014 -0.2848 -1.6176
48666SOL     OW52602   5.812   8.737   1.722 -0.5001 -0.5164 -0.0597
48666SOL    HW152603   5.883   8.684   1.759  0.0506  0.0898 -0.2270
48666SOL    HW252604   5.755   8.756   1.797  0.1025 -0.0906  0.3020
48667SOL     OW52605   4.663   9.644   5.926 -0.3676  0.2052 -0.3404
48667SOL    HW152606   4.613   9.684   5.855 -2.8045 -2.8844 -0.5812
48667SOL    HW252607   4.689   9.558   5.892  2.4075  0.4172  0.9827
48668SOL     OW52608   4.765   2.067  11.131 -0.1122  0.0484  0.0370
48668SOL    HW152609   4.812   2.039  11.210 -0.6148 -3.1314 -0.6195
48668SOL    HW252610   4.834   2.081  11.066  0.2612  2.1045  0.8104
48669SOL     OW52611   4.281   4.220   3.655 -0.3388  0.0644 -0.1505
48669SOL    HW152612   4.344   4.198   3.586  1.0521  2.0463  0.4074
48669SOL    HW252613   4.293   4.151   3.721  1.2494  0.3358 -0.0988
48670SOL     OW52614   0.086   8.807   7.508  0.1561  1.3757 -0.0565
48670SOL    HW152615   0.014   8.778   7.564 -0.8422  1.1659 -1.4172
48670SOL    HW252616   0.131   8.726   7.484  0.6662  1.4778  0.5084
48671SOL     OW52617   0.955   2.677  10.129  0.6126  0.0053  0.6704
48671SOL    HW152618   0.881   2.629  10.092  3.0259 -1.6630 -2.4900
48671SOL    HW252619   0.947   2.663  10.223 -3.0234 -0.0473  0.4975
48672SOL     OW52620   1.886   6.892   6.045  0.3048 -0.2808  0.5667
48672SOL    HW152621   1.833   6.837   6.102  0.6486 -1.8734 -0.5836
48672SOL    HW252622   1.963   6.838   6.024  1.6934  1.4233  1.0473
48673SOL     OW52623   5.472   9.543  10.153 -0.0410 -0.4817  0.3066
48673SOL    HW152624   5.457   9.518  10.244 -0.8038 -1.2060 -0.0099
48673SOL    HW252625   5.562   9.576  10.152 -0.6603  1.4675  1.7241
48674SOL     OW52626   9.401   9.762   2.839 -0.0147  0.6465  0.2058
48674SOL    HW152627   9.465   9.828   2.813  0.5533  0.2175  0.4937
48674SOL    HW252628   9.382   9.782   2.930  1.2182 -0.4139  0.7245
48675SOL     OW52629  12.632   3.773   6.162 -0.0155 -0.0304  0.2518
48675SOL    HW152630  12.624   3.681   6.135 -1.7771 -0.1868  1.1065
48675SOL    HW252631  12.711   3.805   6.118  1.0150 -2.1304  0.4567
48676SOL     OW52632  10.117   9.684   8.266 -0.4867 -0.8705 -0.3166
48676SOL    HW152633  10.056   9.668   8.194  0.8404 -0.8850 -1.4840
48676SOL    HW252634  10.124   9.779   8.272 -1.5775 -0.8231  0.6978
48677SOL     OW52635   5.606   6.438   8.130  0.4908 -0.2822 -0.3563
48677SOL    HW152636   5.645   6.494   8.063 -0.0237 -0.2237 -0.6158
48677SOL    HW252637   5.669   6.438   8.202  1.2324 -0.6730 -0.9988
48678SOL     OW52638   8.960   5.277   2.579 -0.2369 -0.6493  0.2534
48678SOL    HW152639   9.035   5.315   2.626  0.0448 -0.5504 -0.2663
48678SOL    HW252640   8.999   5.223   2.511 -0.6177  0.2761 -0.7372
48679SOL     OW52641   9.805   2.664   0.218  0.0828 -0.3176 -0.0559
48679SOL    HW152642   9.764   2.643   0.134  0.7406 -1.7834 -0.0446
48679SOL    HW252643   9.894   2.629   0.211  1.6207  3.2302 -0.2932
48680SOL     OW52644   8.774   4.627  12.405 -0.0637 -0.5388  0.8069
48680SOL    HW152645   8.686   4.643  12.370  0.1988 -0.8674 -0.0283
48680SOL    HW252646   8.827   4.607  12.328  1.2261  1.6329  1.0719
48681SOL     OW52647   9.435  12.330   0.777  0.0502  0.4362  0.3500
48681SOL    HW152648   9.375  12.266   0.739  1.1019  0.4917 -1.5336
48681SOL    HW252649   9.383  12.411   0.782 -0.3805  0.1965 -0.1455
48682SOL     OW52650   3.335   5.165   3.325  0.1431 -0.0422  0.3522
48682SOL    HW152651   3.317   5.083   3.281  0.1896 -0.5769  1.2965
48682SOL    HW252652   3.269   5.226   3.292 -1.1228 -0.9849  1.0654
48683SOL     OW52653   5.862   0.970   9.798  0.0108  0.2816  0.0796
48683SOL    HW152654   5.836   0.878   9.799  0.6239  0.0610 -1.5412
48683SOL    HW252655   5.956   0.968   9.781  0.0670  1.1997  0.2395
48684SOL     OW52656   8.366   1.134  12.660  0.1857 -0.1341 -0.3892
48684SOL    HW152657   8.297   1.152  12.596 -0.0785  0.6116  0.0933
48684SOL    HW252658   8.346   1.046  12.692 -0.1202 -0.2122 -0.7811
48685SOL     OW52659   7.310   2.206   4.899 -0.6268 -0.2972 -0.4812
48685SOL    HW152660   7.390   2.228   4.851  0.0061  3.1197  1.7770
48685SOL    HW252661   7.335   2.130   4.953  0.9102  0.2644 -0.3485
48686SOL     OW52662   5.982   0.338   4.460  0.3999  0.4795  0.5782
48686SOL    HW152663   6.011   0.392   4.533  1.0640  1.3550 -0.3101
48686SOL    HW252664   5.985   0.248   4.494 -0.0889  0.9407  1.8631
48687SOL     OW52665   7.906   2.076   4.111 -0.1118 -0.1912 -0.0167
48687SOL    HW152666   7.870   1.987   4.119  0.9744 -0.6678 -0.3040
48687SOL    HW252667   7.956   2.090   4.191  0.9575 -0.4311 -0.6214
48688SOL     OW52668   4.434  10.013   7.723 -0.3938  0.2319 -0.0470
48688SOL    HW152669   4.436   9.995   7.817  1.4461 -0.3071 -0.1616
48688SOL    HW252670   4.359  10.071   7.712  0.2555  1.5600  1.9763
48689SOL     OW52671   3.868   9.559   8.592  0.1274 -0.3667 -0.0706
48689SOL    HW152672   3.902   9.473   8.616 -0.2986 -0.7729 -0.8923
48689SOL    HW252673   3.774   9.552   8.604  0.2140  0.4572  1.2764
48690SOL     OW52674  11.382   5.419  12.773  0.2687 -0.4331 -0.4755
48690SOL    HW152675  11.415   5.330  12.784  0.6804 -0.0310  1.9577
48690SOL    HW252676  11.351   5.445  12.860 -1.4872  1.1877 -1.4987
48691SOL     OW52677   6.396   9.511  12.671  0.0760 -0.9269  0.0281
48691SOL    HW152678   6.339   9.568  12.619 -0.5400 -1.7161 -0.1773
48691SOL    HW252679   6.411   9.560  12.752  0.6026  0.0748 -0.6532
48692SOL     OW52680   5.923   8.344   0.490  0.1423  0.0402  0.2510
48692SOL    HW152681   5.885   8.420   0.444  0.7361  1.6787  2.3182
48692SOL    HW252682   6.014   8.343   0.463  0.7419  1.6110  2.0011
48693SOL     OW52683  12.069   7.662   9.329 -0.8434  0.3412 -0.2402
48693SOL    HW152684  11.998   7.628   9.384 -0.2293 -0.2104  0.2156
48693SOL    HW252685  12.103   7.585   9.284 -0.7140  0.6504 -0.6797
48694SOL     OW52686   6.289   5.149   8.791  0.8109 -0.8653  0.4197
48694SOL    HW152687   6.231   5.137   8.866  0.1242  1.2517  0.2993
48694SOL    HW252688   6.371   5.181   8.829  0.8043 -0.7535  0.3409
48695SOL     OW52689   3.391  11.351   6.001 -0.1910  0.2242  0.0645
48695SOL    HW152690   3.422  11.324   5.915 -2.1580  0.0682 -0.6503
48695SOL    HW252691   3.379  11.446   5.993  0.1577  0.2983  0.3672
48696SOL     OW52692   4.140   9.594   7.424 -0.5895 -0.0048 -0.0702
48696SOL    HW152693   4.233   9.572   7.420 -0.7150 -0.5237 -0.1740
48696SOL    HW252694   4.126   9.652   7.349 -0.4666 -0.3709 -0.3768
48697SOL     OW52695   6.121   7.770   4.858  0.1361  0.4005 -0.1226
48697SOL    HW152696   6.205   7.729   4.836 -0.3474 -0.4548 -0.4018
48697SOL    HW252697   6.145   7.844   4.915  0.9713 -0.7051  1.0192
48698SOL     OW52698   8.169  12.530   6.933 -0.5711 -0.7776 -0.2157
48698SOL    HW152699   8.130  12.492   6.854 -0.4116 -0.5052 -0.4242
48698SOL    HW252700   8.105  12.595   6.962 -0.4983 -0.6772 -0.2814
48699SOL     OW52701   1.347   4.433   2.557  0.9590  0.2507  0.4102
48699SOL    HW152702   1.347   4.380   2.478 -0.4993 -0.5543  0.9182
48699SOL    HW252703   1.290   4.386   2.618 -0.8722  2.6450  0.7076
48700SOL     OW52704   9.716  12.737   9.033  0.7281  0.4963  0.0217
48700SOL    HW152705   9.698  12.667   8.970  2.4322 -0.6272  0.7044
48700SOL    HW252706   9.727  12.816   8.979 -0.9392  0.2103 -0.7859
48701SOL     OW52707   3.762  10.221   1.186 -0.6981  0.0298  0.2635
48701SOL    HW152708   3.850  10.184   1.179 -0.5407  0.2982  0.8134
48701SOL    HW252709   3.748  10.266   1.102 -0.4472 -0.2999  0.0421
48702SOL     OW52710  12.582   3.405   7.766 -0.0401  0.4604 -0.4285
48702SOL    HW152711  12.539   3.436   7.846  1.3911  0.5678  0.3260
48702SOL    HW252712  12.575   3.479   7.705 -1.6609  0.1670 -0.6380
48703SOL     OW52713   5.386  10.518   7.176 -0.9615  0.5152  0.0019
48703SOL    HW152714   5.408  10.444   7.119 -1.9012 -0.4018  0.7641
48703SOL    HW252715   5.469  10.561   7.193 -0.5726  0.4171 -1.5125
48704SOL     OW52716  11.121   6.807  11.950  0.0673  0.0458 -0.4365
48704SOL    HW152717  11.097   6.720  11.917 -0.5222  0.7399 -1.9330
48704SOL    HW252718  11.044   6.837  11.997  0.4291 -0.4013  0.4669
48705SOL     OW52719   1.338  10.378   0.484  0.6204 -0.0383 -0.3146
48705SOL    HW152720   1.316  10.358   0.393 -0.2339 -1.9103  0.2533
48705SOL    HW252721   1.309  10.469   0.496 -0.7061 -0.2683 -1.4939
48706SOL     OW52722   8.899  10.135   2.974 -0.1284  0.0889  0.7142
48706SOL    HW152723   8.982  10.169   2.939  0.3476 -1.4518  0.2891
48706SOL    HW252724   8.842  10.212   2.978  0.5571  0.7675 -1.2372
48707SOL     OW52725  10.402  12.687  11.308 -0.1058  0.1109 -0.6374
48707SOL    HW152726  10.488  12.647  11.317  0.0213  0.6010  0.6151
48707SOL    HW252727  10.391  12.738  11.389 -1.7179 -0.2336 -0.5966
48708SOL     OW52728   0.628   6.733  10.253  0.3101  0.3461  0.3238
48708SOL    HW152729   0.595   6.793  10.320 -0.9020  0.3323 -0.2232
48708SOL    HW252730   0.595   6.647  10.279  1.4425  0.0125  0.7173
48709SOL     OW52731   9.696   6.799   0.005 -0.1097 -0.3708 -0.3640
48709SOL    HW152732   9.608   6.825  -0.022 -0.3318 -0.1686  0.5226
48709SOL    HW252733   9.716   6.855   0.080  0.5512 -0.8054 -0.2053
48710SOL     OW52734   2.682   0.977   7.667  0.2417  0.0932 -0.0337
48710SOL    HW152735   2.648   1.055   7.623 -1.4940 -1.5203 -1.7506
48710SOL    HW252736   2.605   0.923   7.681  1.4382 -1.4482  0.8554
48711SOL     OW52737   2.182   5.728  10.334 -0.1945 -0.4527 -0.1820
48711SOL    HW152738   2.266   5.734  10.289  0.4455  0.4427  1.0780
48711SOL    HW252739   2.117   5.736  10.264  0.7600  1.0478 -0.9505
48712SOL     OW52740  11.508   2.677   2.006  0.3123 -0.4685  0.0358
48712SOL    HW152741  11.427   2.658   2.052  0.8709  0.3502  1.4031
48712SOL    HW252742  11.493   2.644   1.917 -0.6964 -2.3700  0.8398
48713SOL     OW52743   4.485  12.655  11.108 -0.0121 -0.3440  0.7329
48713SOL    HW152744   4.420  12.621  11.046  1.0591 -0.3451 -0.4231
48713SOL    HW252745   4.507  12.741  11.073 -1.5256  0.9473  2.7566
48714SOL     OW52746  12.121   2.798   1.762  0.0765  0.3007 -0.2505
48714SOL    HW152747  12.121   2.792   1.857 -1.3729 -1.0528 -0.2873
48714SOL    HW252748  12.034   2.766   1.737  0.3659  0.8121 -2.0179
48715SOL     OW52749   9.172  12.035   8.987 -0.4799 -0.0752  0.3746
48715SOL    HW152750   9.251  12.080   9.017 -0.2405 -0.0065 -0.3486
48715SOL    HW252751   9.162  12.061   8.896 -1.2254 -0.2483  0.3985
48716SOL     OW52752   4.873   6.391  11.658 -0.0052 -0.4031 -0.4512
48716SOL    HW152753   4.888   6.383  11.564 -0.4906  1.2440 -0.7026
48716SOL    HW252754   4.857   6.484  11.672 -2.7051 -0.9539  0.8214
48717SOL     OW52755  11.095   9.026   6.196  1.1299  0.5859  0.3680
48717SOL    HW152756  11.029   9.091   6.220  1.6862  0.9992  0.7841
48717SOL    HW252757  11.175   9.076   6.185  1.4332  0.0502  0.1003
48718SOL     OW52758   1.486  12.635   1.247  0.1144  0.2921 -0.1911
48718SOL    HW152759   1.519  12.580   1.318  0.4717  0.8281  0.0717
48718SOL    HW252760   1.414  12.585   1.209  1.5857 -1.1560 -1.1570
48719SOL     OW52761   1.282   2.046   6.402 -0.1854 -0.0324  0.6333
48719SOL    HW152762   1.351   2.110   6.384  2.5361 -2.8729  0.1661
48719SOL    HW252763   1.202   2.099   6.410  1.6192  3.2538 -0.9674
48720SOL     OW52764  12.502  10.640   4.026  0.0510 -0.1680  0.2839
48720SOL    HW152765  12.550  10.571   4.071  2.0106  0.8333 -0.1621
48720SOL    HW252766  12.511  10.620   3.933 -1.8464 -0.8483  0.1974
48721SOL     OW52767   8.077  10.601   9.757  0.0754 -0.5862  0.2033
48721SOL    HW152768   8.011  10.632   9.695 -0.3650 -1.2148  0.3382
48721SOL    HW252769   8.130  10.538   9.707  0.2267 -0.4920  0.2452
48722SOL     OW52770   8.192   8.328   1.910 -0.3222 -0.0015  0.0023
48722SOL    HW152771   8.259   8.352   1.974  1.2432 -1.4895 -0.9981
48722SOL    HW252772   8.121   8.292   1.963  1.0017 -1.3616  0.9391
48723SOL     OW52773   9.939   7.362   1.927 -0.4592 -0.0268  0.2134
48723SOL    HW152774  10.034   7.377   1.933 -0.4760 -0.1293  0.8499
48723SOL    HW252775   9.916   7.388   1.838  0.0987  0.4092  0.1896
48724SOL     OW52776   2.333   2.498   4.359  0.2246 -0.4361  0.1495
48724SOL    HW152777   2.318   2.485   4.265  0.6867  1.1106 -0.1649
48724SOL    HW252778   2.418   2.458   4.376  1.2355  1.2981 -0.6095
48725SOL     OW52779  10.848   9.784   2.998 -0.0927  0.2837 -0.2008
48725SOL    HW152780  10.939   9.769   3.023 -0.3721 -1.3120 -0.0692
48725SOL    HW252781  10.837   9.739   2.915 -0.7867  0.3763 -0.1683
48726SOL     OW52782   9.679   2.973  12.096 -0.3564  0.1150  0.3735
48726SOL    HW152783   9.613   2.911  12.064  1.4496 -0.3144 -3.0194
48726SOL    HW252784   9.662   3.054  12.048  0.4507  0.5953  0.8707
48727SOL     OW52785   0.147   2.245  12.425 -0.0032  0.1628 -0.0694
48727SOL    HW152786   0.198   2.227  12.504  1.8939  3.2374 -0.4088
48727SOL    HW252787   0.061   2.272  12.457  0.0516 -0.6997  0.8132
48728SOL     OW52788   7.567  10.956   5.932  0.3716  0.2489 -0.6134
48728SOL    HW152789   7.625  11.031   5.916 -0.0876  0.6331 -0.4847
48728SOL    HW252790   7.566  10.909   5.849 -0.8258  1.4214 -1.2955
48729SOL     OW52791  10.199   7.306   1.941 -0.3455 -0.2364 -0.1158
48729SOL    HW152792  10.237   7.304   2.029 -0.5468  1.3973  0.0354
48729SOL    HW252793  10.237   7.230   1.897  2.3877  0.7579  0.3315
48730SOL     OW52794  11.799   0.824  10.036  0.1432  0.2007 -0.1495
48730SOL    HW152795  11.799   0.876  10.117 -0.9094 -0.8153  0.5318
48730SOL    HW252796  11.877   0.770  10.043  1.1480  1.5104 -0.7769
48731SOL     OW52797   4.110   7.879  10.418  0.2643  0.2801 -0.0293
48731SOL    HW152798   4.135   7.787  10.409  0.4649  0.1641  1.5053
48731SOL    HW252799   4.077   7.903  10.332 -0.3708 -1.4043 -0.2954
48732SOL     OW52800   2.371   8.823   0.479  0.1122 -0.0929  0.1003
48732SOL    HW152801   2.454   8.805   0.522  0.3995  2.5143  0.8415
48732SOL    HW252802   2.388   8.808   0.386  1.5144  0.6773  0.2093
48733SOL     OW52803   7.909   0.853   0.992  0.1549 -0.8839  0.3983
48733SOL    HW152804   7.997   0.824   0.966  0.7356  0.1533  1.1097
48733SOL    HW252805   7.898   0.938   0.948 -0.4586 -0.9738  0.3708
48734SOL     OW52806  11.136   4.590  12.774 -0.3866  0.4998  0.4095
48734SOL    HW152807  11.171   4.562  12.689  0.2462  2.0025  0.1516
48734SOL    HW252808  11.121   4.508  12.822 -0.6810 -0.3709 -1.1089
48735SOL     OW52809   6.496   3.492   1.825 -0.5604  0.2478 -0.3918
48735SOL    HW152810   6.582   3.475   1.863 -1.3675  2.6186  2.9590
48735SOL    HW252811   6.441   3.421   1.860 -0.4763  0.1417 -0.4736
48736SOL     OW52812   1.918   6.195   3.195  0.6810 -0.2988  0.4997
48736SOL    HW152813   1.834   6.182   3.151  0.4894  0.7170  0.5441
48736SOL    HW252814   1.929   6.117   3.249  0.5363 -1.2019 -0.7195
48737SOL     OW52815   7.203  12.718   0.677 -0.5395  0.1624 -0.3531
48737SOL    HW152816   7.236  12.808   0.676  0.3452 -0.1266  0.5457
48737SOL    HW252817   7.241  12.680   0.756  0.0212 -1.3429 -1.2989
48738SOL     OW52818   2.311   6.582   7.336 -0.1840  0.2471  0.1301
48738SOL    HW152819   2.275   6.550   7.254 -0.2985  1.2611 -0.2357
48738SOL    HW252820   2.388   6.528   7.353 -1.9968 -2.2079  1.0864
48739SOL     OW52821  10.537  10.785  10.428 -0.0676 -0.3244  0.1170
48739SOL    HW152822  10.547  10.880  10.432  0.4259 -0.4016  1.5546
48739SOL    HW252823  10.467  10.765  10.490  0.3994 -0.9556  0.4580
48740SOL     OW52824  12.276   7.854   3.411 -0.2114 -0.1738 -0.2955
48740SOL    HW152825  12.358   7.839   3.363 -0.6925  0.2131 -1.2552
48740SOL    HW252826  12.305   7.873   3.500  0.6417 -2.3448 -0.0407
48741SOL     OW52827   4.048  11.851  11.049  0.0355  0.3582 -0.3700
48741SOL    HW152828   4.032  11.761  11.078 -2.4364  1.1120  0.8832
48741SOL    HW252829   4.137  11.870  11.079  0.5206 -1.5520 -0.4434
48742SOL     OW52830   1.584   1.670   6.848 -0.2454 -0.3544  0.0987
48742SOL    HW152831   1.500   1.670   6.893 -0.4617 -1.7942 -0.2392
48742SOL    HW252832   1.565   1.632   6.762  0.7138 -0.5871 -0.0243
48743SOL     OW52833   0.650   9.098   4.590  0.3836 -0.2296  0.0395
48743SOL    HW152834   0.556   9.115   4.592  0.2968 -0.4630 -1.0282
48743SOL    HW252835   0.684   9.157   4.522  1.0865  0.1917  0.7429
48744SOL     OW52836   0.927   0.374   9.253 -0.5654  0.8799 -0.2993
48744SOL    HW152837   0.907   0.309   9.187 -0.1386  0.6481 -0.2057
48744SOL    HW252838   0.842   0.406   9.283 -0.7595  0.8756 -0.8464
48745SOL     OW52839   9.096   9.860  12.670 -0.1200 -0.0910 -0.0136
48745SOL    HW152840   9.149   9.836  12.594  1.4204 -0.4307  1.1041
48745SOL    HW252841   9.130   9.945  12.697  0.2010 -0.5146  0.9794
48746SOL     OW52842  11.734   9.632   6.851  0.4872  0.3045  0.2150
48746SOL    HW152843  11.749   9.674   6.935  0.3668 -0.8479  0.8412
48746SOL    HW252844  11.704   9.702   6.793  0.4515  1.0890  1.1652
48747SOL     OW52845   0.427   4.435   7.615  0.3453  0.3760 -0.2556
48747SOL    HW152846   0.435   4.461   7.706 -0.5480 -0.4075  0.0621
48747SOL    HW252847   0.368   4.500   7.576 -1.0607 -0.5067  0.2900
48748SOL     OW52848   8.388   7.555   7.726 -0.0969  0.1586  1.0589
48748SOL    HW152849   8.298   7.554   7.691  0.4059 -1.1092 -0.3081
48748SOL    HW252850   8.420   7.466   7.711  1.6911  0.8252  0.7373
48749SOL     OW52851  11.930   9.527   6.696 -0.5663 -0.6639  0.1840
48749SOL    HW152852  11.855   9.537   6.755 -1.4407 -0.7211 -0.8835
48749SOL    HW252853  11.891   9.499   6.613  0.7951 -2.2397  0.0448
48750SOL     OW52854   0.721   3.552   4.924  0.0782  0.4554 -0.2885
48750SOL    HW152855   0.726   3.458   4.942 -1.5196  0.1773 -1.1527
48750SOL    HW252856   0.652   3.584   4.982  1.8644  1.5011  1.3752
48751SOL     OW52857   5.882   3.884   6.417 -0.5743  0.2236 -0.2125
48751SOL    HW152858   5.842   3.798   6.434  0.3466 -0.3404 -0.8237
48751SOL    HW252859   5.868   3.933   6.498 -1.0834 -0.5072  0.1571
48752SOL     OW52860   7.839   7.245  10.861  0.0671 -0.6780  0.0126
48752SOL    HW152861   7.908   7.178  10.859  0.6647 -0.0685 -0.0683
48752SOL    HW252862   7.784   7.225  10.785 -0.2875 -1.6276  0.5099
48753SOL     OW52863   3.423  10.286   8.771 -0.0216 -0.0988 -0.2172
48753SOL    HW152864   3.473  10.344   8.829  0.9181 -1.4926  0.4276
48753SOL    HW252865   3.332  10.298   8.798 -0.0426  2.1547 -1.1051
48754SOL     OW52866  10.413   7.559   5.834  0.3052  0.4436  0.7227
48754SOL    HW152867  10.372   7.485   5.879  2.1984 -0.5373  0.9675
48754SOL    HW252868  10.473   7.596   5.899  0.7412  1.0232  0.0092
48755SOL     OW52869  11.135   9.390   9.308  0.3974  0.1197 -0.1120
48755SOL    HW152870  11.210   9.448   9.295  0.9207 -0.2118  1.2016
48755SOL    HW252871  11.149   9.353   9.396 -0.9424 -0.4821 -0.1332
48756SOL     OW52872   3.340   3.580   1.483  0.0768 -0.1038  0.0266
48756SOL    HW152873   3.424   3.535   1.470 -0.5489 -0.7854 -2.0684
48756SOL    HW252874   3.351   3.665   1.440 -0.3280 -0.2269 -0.3236
48757SOL     OW52875   1.985  10.444  11.600 -0.3038 -0.5461 -0.2305
48757SOL    HW152876   1.911  10.410  11.650 -0.2159 -1.6219 -0.7932
48757SOL    HW252877   2.022  10.514  11.654  0.7281 -2.6460  1.9140
48758SOL     OW52878   4.604   2.629  12.713 -0.4081 -0.0177  0.0052
48758SOL    HW152879   4.529   2.604  12.660  1.2807 -0.1606 -2.4636
48758SOL    HW252880   4.569   2.691  12.777 -2.5830 -0.0576 -1.0782
48759SOL     OW52881   6.128   2.566   1.721  0.4506 -0.3348 -0.9322
48759SOL    HW152882   6.215   2.527   1.729  0.8968  0.6939 -0.4567
48759SOL    HW252883   6.120   2.620   1.799 -0.1565  0.4562 -1.5273
48760SOL     OW52884   2.409   9.314   4.505 -0.0048  0.8373 -0.0034
48760SOL    HW152885   2.396   9.405   4.476 -2.8713  0.4043 -0.3548
48760SOL    HW252886   2.448   9.270   4.430  0.8434  1.6020 -0.0375
48761SOL     OW52887  10.241   8.398  10.046  0.2341 -0.2649 -0.8712
48761SOL    HW152888  10.166   8.413   9.988 -0.0718  0.7755 -0.2486
48761SOL    HW252889  10.218   8.445  10.126  1.6482  0.2340 -0.7348
48762SOL     OW52890   5.867   6.626   0.024  0.4730 -0.4278  0.1237
48762SOL    HW152891   5.894   6.535   0.023 -1.6000 -1.2033  2.6782
48762SOL    HW252892   5.900   6.660   0.107 -0.3772  0.5886  0.0704
48763SOL     OW52893   3.868   9.332   5.955  0.1765 -0.2992 -0.5525
48763SOL    HW152894   3.873   9.369   6.044  0.2931 -0.3821 -0.5250
48763SOL    HW252895   3.870   9.238   5.969 -2.2001 -0.3976 -0.4688
48764SOL     OW52896   5.125   3.261   0.078  0.0304  0.7960 -0.6194
48764SOL    HW152897   5.204   3.220   0.113 -1.3124 -1.0521  0.4120
48764SOL    HW252898   5.097   3.202   0.008 -1.4900  0.3098  0.3412
48765SOL     OW52899  11.834   6.945   1.953 -0.4077  0.2940  0.1467
48765SOL    HW152900  11.819   6.998   2.031 -1.3695  1.4339 -0.7825
48765SOL    HW252901  11.746   6.928   1.918 -0.0381 -0.7968 -0.3131
48766SOL     OW52902   5.865   7.055   4.578 -0.0809  0.1968 -0.6263
48766SOL    HW152903   5.779   7.018   4.597 -0.4748  1.1301 -0.5542
48766SOL    HW252904   5.925   7.008   4.637 -0.6361 -0.0105 -0.2219
48767SOL     OW52905  11.032   1.010   0.357  0.4587  0.2312  0.4817
48767SOL    HW152906  10.967   1.078   0.337  0.0697 -0.4136 -0.5179
48767SOL    HW252907  10.990   0.928   0.331  0.9335 -0.4016  1.6693
48768SOL     OW52908   8.262  11.852  10.121  0.4740 -0.4579  0.2761
48768SOL    HW152909   8.290  11.892  10.039  0.6131  1.2633  1.1197
48768SOL    HW252910   8.270  11.922  10.186  1.5171 -2.1047  2.0186
48769SOL     OW52911   4.550   0.301  12.088 -0.6474 -0.1521  0.2983
48769SOL    HW152912   4.497   0.316  12.167 -0.4257  1.4550  0.1698
48769SOL    HW252913   4.633   0.269  12.121  0.2059  2.4852  0.9455
48770SOL     OW52914   4.137  10.275   8.820  1.2243  0.1388  0.6174
48770SOL    HW152915   4.164  10.367   8.817  0.7945  0.2309 -0.8816
48770SOL    HW252916   4.053  10.273   8.776  1.4463 -1.0560  0.2199
48771SOL     OW52917   3.367   2.362   4.542  0.0589 -0.0084  0.4052
48771SOL    HW152918   3.436   2.363   4.475  1.1041 -0.6836  1.4338
48771SOL    HW252919   3.381   2.443   4.591  0.8694 -0.6831  1.3231
48772SOL     OW52920  11.724   8.160   7.032 -0.7069  0.5385  0.0929
48772SOL    HW152921  11.663   8.185   6.962 -0.2427 -0.5700 -0.7338
48772SOL    HW252922  11.772   8.085   6.997  1.0930  1.3184  0.7475
48773SOL     OW52923  12.421   1.038   2.711 -0.3273  0.0403  0.7425
48773SOL    HW152924  12.485   0.969   2.729  0.3430  1.1440  2.9783
48773SOL    HW252925  12.456   1.084   2.634 -0.3383 -1.5240 -0.2407
48774SOL     OW52926   2.120   6.955   0.511 -0.6640 -0.2498 -0.7902
48774SOL    HW152927   2.073   7.032   0.479  0.7892  0.6889 -0.7554
48774SOL    HW252928   2.209   6.986   0.526 -0.5194 -1.4530  1.1304
48775SOL     OW52929   7.615   6.766  12.621 -0.3659  0.2548  0.2624
48775SOL    HW152930   7.534   6.800  12.660 -0.8599 -0.8889  0.2597
48775SOL    HW252931   7.586   6.695  12.564  0.7590 -1.3753  1.6266
48776SOL     OW52932   8.745   6.768  11.670  0.4776 -0.3744  0.3005
48776SOL    HW152933   8.723   6.674  11.669 -2.1832  0.1182 -2.8518
48776SOL    HW252934   8.802   6.780  11.594  1.1299  0.5631  0.9172
48777SOL     OW52935   0.986   0.678   8.860 -0.2230 -0.4587  0.1521
48777SOL    HW152936   1.041   0.725   8.798 -0.3249 -0.6928 -0.1165
48777SOL    HW252937   0.947   0.608   8.809 -1.2804  0.0901  0.1840
48778SOL     OW52938  10.113   0.228  11.357 -0.1500  0.1073 -0.0246
48778SOL    HW152939  10.203   0.231  11.323  0.2311  0.1553  0.9449
48778SOL    HW252940  10.063   0.184  11.288  0.6399 -0.0252 -0.5337
48779SOL     OW52941   9.480   4.152   1.344  0.1973  0.4545  0.1913
48779SOL    HW152942   9.399   4.101   1.340  0.8527 -0.5419 -1.3860
48779SOL    HW252943   9.533   4.118   1.273  1.3349  2.2812  0.1042
48780SOL     OW52944   6.505   0.704   7.086  0.3161 -0.1907 -0.4279
48780SOL    HW152945   6.559   0.651   7.145  1.0640 -0.1727 -1.0846
48780SOL    HW252946   6.432   0.647   7.062 -0.2941 -0.0149  0.9336
48781SOL     OW52947   5.801   2.937   8.960 -0.1907  0.2219 -0.0978
48781SOL    HW152948   5.746   2.956   8.885 -1.4205 -1.3737  0.3471
48781SOL    HW252949   5.751   2.968   9.036  0.0169 -0.1940  0.2188
48782SOL     OW52950   6.048   7.075   3.973 -0.3401  0.1870  0.4519
48782SOL    HW152951   5.979   7.094   4.036  0.2623 -2.1480  1.9138
48782SOL    HW252952   6.042   6.981   3.957  0.4535  0.4653 -1.9250
48783SOL     OW52953   0.378   5.379   1.945 -0.3564 -0.2705 -0.0640
48783SOL    HW152954   0.367   5.289   1.916  0.3490  0.5112 -3.1479
48783SOL    HW252955   0.473   5.394   1.944 -0.4893  0.6606 -0.2239
48784SOL     OW52956   7.571  11.222   4.571 -0.0649 -0.2274 -1.0223
48784SOL    HW152957   7.503  11.248   4.634  1.4187 -1.6314  1.3010
48784SOL    HW252958   7.566  11.288   4.502 -3.7723 -0.2541 -1.0170
48785SOL     OW52959   0.458   8.186   7.589 -0.0516  0.0191  0.3009
48785SOL    HW152960   0.369   8.150   7.590 -1.0927  2.3813  1.6494
48785SOL    HW252961   0.447   8.276   7.621  2.4594  1.3195 -2.1560
48786SOL     OW52962   4.936   3.072   1.126 -0.3775  0.0917 -0.3758
48786SOL    HW152963   5.019   3.038   1.159 -0.3404 -0.5384 -1.0984
48786SOL    HW252964   4.960   3.126   1.050 -0.2411  3.3263  1.7716
48787SOL     OW52965   3.029   7.137   1.017  0.2878 -0.2032  0.0449
48787SOL    HW152966   3.112   7.090   1.023  0.7216  0.5186 -0.0893
48787SOL    HW252967   2.989   7.125   1.103  0.3160 -0.9295 -0.0366
48788SOL     OW52968  12.288   6.851   1.690 -0.3188 -0.0147 -0.8085
48788SOL    HW152969  12.360   6.898   1.734 -1.5596  0.7552  0.4929
48788SOL    HW252970  12.327   6.818   1.609  1.7959 -0.5301  0.3269
48789SOL     OW52971  11.528   9.805   2.991  0.0789 -0.5809  0.6564
48789SOL    HW152972  11.605   9.777   2.941 -0.0606  0.0088  0.1153
48789SOL    HW252973  11.454   9.765   2.946  0.0520 -1.1489  1.1781
48790SOL     OW52974  10.589  10.473   7.901 -0.4598  0.3797  0.1682
48790SOL    HW152975  10.532  10.546   7.877 -0.9258 -0.2806 -0.8237
48790SOL    HW252976  10.564  10.403   7.841  2.9828  0.7449 -1.9628
48791SOL     OW52977  10.675   4.258   0.898  0.2031 -0.2534 -0.4560
48791SOL    HW152978  10.719   4.301   0.972  0.7714 -0.7953 -0.4741
48791SOL    HW252979  10.583   4.255   0.924 -0.1520  2.3590 -1.0945
48792SOL     OW52980   2.396   1.037   5.028 -1.2088 -0.3157 -0.1664
48792SOL    HW152981   2.409   0.969   5.094 -1.5887  1.8642  2.3147
48792SOL    HW252982   2.301   1.043   5.017 -1.1775 -0.1411 -0.3474
48793SOL     OW52983   3.817   0.944   4.718  0.0726  0.7061 -0.4911
48793SOL    HW152984   3.724   0.965   4.727 -0.2576 -0.8199 -0.0257
48793SOL    HW252985   3.854   0.966   4.804 -0.4001 -1.0779  0.2216
48794SOL     OW52986   9.228   7.604   0.490 -0.5530 -0.7044 -0.1323
48794SOL    HW152987   9.272   7.615   0.575 -0.5018 -0.9952 -0.1194
48794SOL    HW252988   9.136   7.592   0.512 -0.5179 -0.9379 -0.1052
48795SOL     OW52989   1.869   4.936   6.559 -0.6380 -0.6094  0.0065
48795SOL    HW152990   1.811   4.867   6.589 -0.7134 -0.4839  0.1517
48795SOL    HW252991   1.811   5.001   6.519 -0.6190 -0.4064  0.2981
48796SOL     OW52992   2.853   3.638   5.297  0.0403 -0.4530  0.3798
48796SOL    HW152993   2.920   3.697   5.262 -0.2388 -0.0333  0.5475
48796SOL    HW252994   2.788   3.696   5.336  0.1844 -0.8966  1.3173
48797SOL     OW52995   2.115  12.067   4.980 -0.3110  0.0341 -0.3392
48797SOL    HW152996   2.063  12.044   4.903 -0.5048  2.0846 -0.8878
48797SOL    HW252997   2.185  12.122   4.946  0.2774  0.0194  0.8149
48798SOL     OW52998  11.985  12.368   1.501 -0.0627 -0.9827  0.3040
48798SOL    HW152999  11.999  12.462   1.491  0.0516 -1.1436 -1.2851
48798SOL    HW253000  11.903  12.361   1.550  0.9261 -0.0726  2.1609
48799SOL     OW53001   6.935   3.446   5.319 -0.2868 -0.0428  0.1025
48799SOL    HW153002   7.008   3.504   5.294 -0.2332 -0.9918 -2.2202
48799SOL    HW253003   6.969   3.395   5.392  1.1616 -0.0170 -0.5149
48800SOL     OW53004   4.956   6.382  11.400  0.1201  0.1423  0.8195
48800SOL    HW153005   4.893   6.344  11.338 -1.0135  0.7749  1.5387
48800SOL    HW253006   5.011   6.439  11.347  0.0929 -0.4157  0.1764
48801SOL     OW53007   1.349   5.798   4.847  0.8158  0.5198 -0.0261
48801SOL    HW153008   1.302   5.878   4.824 -0.8441 -0.6973 -1.1305
48801SOL    HW253009   1.311   5.770   4.930 -1.2049 -0.9498 -1.3567
48802SOL     OW53010   4.027   6.760  10.578  0.0262 -0.3975 -0.0656
48802SOL    HW153011   4.107   6.746  10.629 -0.5623  2.1367  1.7448
48802SOL    HW253012   3.981   6.676  10.584  1.5644 -1.2459  0.6485
48803SOL     OW53013   5.440  12.210   9.196 -0.7015 -0.2534 -0.0427
48803SOL    HW153014   5.532  12.205   9.167 -0.5367 -0.8622  0.5766
48803SOL    HW253015   5.442  12.184   9.288 -1.3992  0.4584  0.1843
48804SOL     OW53016  12.463  12.683   4.266  0.2452 -0.2106  0.0189
48804SOL    HW153017  12.496  12.723   4.346  0.6571  0.2870 -0.3952
48804SOL    HW253018  12.440  12.593   4.291 -0.2032  0.1210  0.8361
48805SOL     OW53019   5.154   0.485  10.588  0.6040 -0.7494 -0.7680
48805SOL    HW153020   5.113   0.436  10.659 -1.9558 -0.0625 -1.6633
48805SOL    HW253021   5.242   0.449  10.581  0.4039 -1.8989  1.6944
48806SOL     OW53022   0.398   3.587  10.005  0.4458 -0.1601 -0.3955
48806SOL    HW153023   0.419   3.572  10.098 -1.6189 -1.1743 -0.0276
48806SOL    HW253024   0.409   3.502   9.964 -0.7365 -0.2194 -0.6148
48807SOL     OW53025   8.609   2.178  10.005 -0.2399 -0.0200  0.3507
48807SOL    HW153026   8.622   2.273  10.007  0.6662 -0.0173 -2.0661
48807SOL    HW253027   8.632   2.149  10.093  0.2926  1.9052  0.8990
48808SOL     OW53028   1.826   2.360   8.877 -0.3973  0.1844  0.2876
48808SOL    HW153029   1.890   2.315   8.821  0.5123 -0.0692  1.4772
48808SOL    HW253030   1.879   2.417   8.932 -1.3306  0.8906  0.4635
48809SOL     OW53031   7.891   9.322   2.944 -1.0363  0.1329 -0.0440
48809SOL    HW153032   7.858   9.246   2.992  3.7975 -2.2617  0.1467
48809SOL    HW253033   7.873   9.302   2.852 -1.1306 -0.5333  0.1142
48810SOL     OW53034   0.778   5.858   7.390  0.3076  0.3180 -0.3946
48810SOL    HW153035   0.828   5.917   7.446 -1.7420  2.5152 -0.7562
48810SOL    HW253036   0.793   5.889   7.301 -0.0715 -0.2989 -0.6864
48811SOL     OW53037   5.901   8.212   1.372 -0.2335 -0.3409  0.0993
48811SOL    HW153038   5.905   8.124   1.335  0.3257 -1.0577  1.7841
48811SOL    HW253039   5.842   8.260   1.314 -2.5355 -2.5122  0.5017
48812SOL     OW53040   2.320   3.182   6.379  0.1980  0.1259 -0.1222
48812SOL    HW153041   2.273   3.099   6.392  2.2726 -1.1734 -0.4171
48812SOL    HW253042   2.358   3.174   6.292  1.0573  1.0851  0.1525
48813SOL     OW53043   5.801   6.296   9.824  0.1749  0.1228  0.0905
48813SOL    HW153044   5.893   6.304   9.850  0.5515 -2.6975 -0.0982
48813SOL    HW253045   5.760   6.246   9.895 -1.3989  1.7484  0.4189
48814SOL     OW53046  11.975   7.545   2.344 -0.0992 -0.3240 -0.4667
48814SOL    HW153047  12.048   7.509   2.394 -0.9219  1.3127  2.1307
48814SOL    HW253048  12.005   7.631   2.317 -0.1200 -0.7236 -1.8429
48815SOL     OW53049   8.276  10.682   9.471 -0.4883  0.0765 -0.0824
48815SOL    HW153050   8.314  10.769   9.483 -1.0657  0.1743  1.1505
48815SOL    HW253051   8.270  10.671   9.376  1.9176  0.3390 -0.3183
48816SOL     OW53052   2.052  11.298   2.980 -0.4375  0.3713  0.2934
48816SOL    HW153053   1.982  11.321   2.919 -0.5928  0.6904  0.5906
48816SOL    HW253054   2.015  11.227   3.032  0.0423 -0.5766 -0.6247
48817SOL     OW53055  10.843  12.599   8.711  0.6772 -0.2752 -0.2364
48817SOL    HW153056  10.817  12.688   8.689 -1.2814 -0.5067  0.9193
48817SOL    HW253057  10.851  12.555   8.626  1.4235  0.9010 -0.8028
48818SOL     OW53058  12.671   5.744   9.705 -0.4908 -0.3276 -0.2468
48818SOL    HW153059  12.692   5.776   9.617 -0.6363 -1.5505 -0.7464
48818SOL    HW253060  12.755   5.748   9.752 -0.1319 -0.8265 -0.8236
48819SOL     OW53061   4.875   3.464  11.495 -0.1505  0.3496  0.1430
48819SOL    HW153062   4.968   3.445  11.502 -0.4616 -1.3335  0.2522
48819SOL    HW253063   4.861   3.484  11.403  0.0268 -1.3295 -0.2811
48820SOL     OW53064   3.639   0.415   8.604 -0.4173 -0.0720 -0.1565
48820SOL    HW153065   3.688   0.395   8.524  0.1279 -0.6995  0.3254
48820SOL    HW253066   3.603   0.503   8.589 -0.3507 -0.1935 -1.1000
48821SOL     OW53067  12.116   7.871   7.539 -0.2152 -0.5263 -0.1266
48821SOL    HW153068  12.195   7.839   7.583  0.6250  1.9997  0.3797
48821SOL    HW253069  12.048   7.867   7.607  0.1985 -0.0349  0.3269
48822SOL     OW53070   6.606  10.863  11.862  0.3251 -0.5259  0.3923
48822SOL    HW153071   6.526  10.838  11.816  0.6775 -1.8466  0.4496
48822SOL    HW253072   6.677  10.830  11.806  0.8860  1.4588 -0.1503
48823SOL     OW53073   6.562   4.274  10.907  0.0287  0.0412 -0.1785
48823SOL    HW153074   6.522   4.189  10.920  0.3011 -0.0922 -0.2051
48823SOL    HW253075   6.515   4.313  10.833 -0.8406  0.3752  0.5257
48824SOL     OW53076   3.543  12.626   2.182 -0.4316  0.1501  0.2431
48824SOL    HW153077   3.477  12.563   2.153 -0.9045  1.6353 -2.2498
48824SOL    HW253078   3.496  12.710   2.186  0.7114  0.7818  1.0720
48825SOL     OW53079   8.666  12.454   7.009 -0.8070  0.3261 -0.0733
48825SOL    HW153080   8.723  12.436   6.934  0.3168  3.6047 -0.1796
48825SOL    HW253081   8.581  12.474   6.970 -1.1051 -1.0513 -0.1803
48826SOL     OW53082   7.708  11.607  11.745  0.1978  0.0713 -0.9327
48826SOL    HW153083   7.780  11.647  11.794 -0.2928  0.7016 -0.7027
48826SOL    HW253084   7.723  11.513  11.751  0.4144  0.1595  0.0135
48827SOL     OW53085   3.628   2.339   3.378 -0.3283  0.5508 -0.0239
48827SOL    HW153086   3.534   2.356   3.368 -0.0029  2.1508 -0.6483
48827SOL    HW253087   3.658   2.320   3.289  0.1590  1.3185 -0.0332
48828SOL     OW53088  11.948   2.976   6.491 -0.3046  0.8209 -0.3438
48828SOL    HW153089  11.975   2.981   6.582 -0.5385 -0.6891 -0.1698
48828SOL    HW253090  12.020   3.016   6.442 -0.7528  2.8866  0.5496
48829SOL     OW53091   4.791   8.802   9.226 -0.2659 -0.4943 -0.1327
48829SOL    HW153092   4.876   8.847   9.219 -1.0236  1.5716  2.5459
48829SOL    HW253093   4.804   8.737   9.295 -0.1481 -2.2307 -1.6958
48830SOL     OW53094   1.596  12.104  11.186  0.1962 -0.5183  0.0243
48830SOL    HW153095   1.595  12.051  11.266 -0.4093  1.1525  1.1859
48830SOL    HW253096   1.526  12.068  11.132 -0.3610 -0.7575  0.8959
48831SOL     OW53097   2.565  10.328  12.007 -0.1451 -0.5466 -0.2693
48831SOL    HW153098   2.530  10.256  11.954 -0.6922 -1.7221  1.6014
48831SOL    HW253099   2.517  10.322  12.090  2.4612 -0.4279  1.3543
48832SOL     OW53100  12.118  12.125   9.855  0.3491  0.3613  0.2654
48832SOL    HW153101  12.046  12.127   9.793  0.6438  1.1778 -0.0713
48832SOL    HW253102  12.172  12.200   9.830  1.0315  0.0692  0.8418
48833SOL     OW53103   1.480  11.479   7.191  0.0161 -0.8414  0.0147
48833SOL    HW153104   1.429  11.557   7.215 -0.4752 -1.2103  0.1823
48833SOL    HW253105   1.415  11.409   7.185  0.4056 -1.1655 -0.4907
48834SOL     OW53106   0.102  12.308   1.966  0.2985 -0.0685 -0.2761
48834SOL    HW153107   0.100  12.344   2.055  0.3387  0.4599 -0.4851
48834SOL    HW253108   0.010  12.304   1.940  0.3844  1.9537 -1.0605
48835SOL     OW53109   1.748   3.942   2.727 -0.0250 -0.1362  0.3974
48835SOL    HW153110   1.746   3.980   2.814 -1.2215 -0.7467  0.6540
48835SOL    HW253111   1.804   4.001   2.676  0.0382  0.6578  1.3679
48836SOL     OW53112   1.917   8.005   1.453 -0.0021  0.0536  0.3664
48836SOL    HW153113   1.953   7.918   1.437  1.4109  0.6450  0.1932
48836SOL    HW253114   1.840   7.990   1.508  0.8337 -1.2149  1.2219
48837SOL     OW53115   9.060   9.155   2.465  0.1028  0.0944 -0.2120
48837SOL    HW153116   9.072   9.115   2.379 -0.8451 -0.2278 -0.2104
48837SOL    HW253117   9.146   9.190   2.488 -0.1041  2.3078 -2.3570
48838SOL     OW53118   9.347  11.981   3.329  0.9513 -0.1094  0.3783
48838SOL    HW153119   9.419  11.988   3.391 -0.1279 -0.8077  1.7744
48838SOL    HW253120   9.272  11.954   3.382 -0.6344  1.6823 -0.7957
48839SOL     OW53121   0.844   2.356  10.606 -0.1879  0.3054 -0.4546
48839SOL    HW153122   0.822   2.267  10.632  0.7057 -0.4146 -2.0429
48839SOL    HW253123   0.926   2.375  10.651 -0.2287  0.2265 -0.3461
48840SOL     OW53124   3.085   6.112   6.757 -0.6238  0.1571 -0.4724
48840SOL    HW153125   3.001   6.144   6.787 -0.5182  0.6610 -0.7116
48840SOL    HW253126   3.123   6.184   6.707 -0.2002 -0.1840 -0.6569
48841SOL     OW53127  12.075  10.392   7.125 -0.4468  0.2645  0.1458
48841SOL    HW153128  12.069  10.303   7.159 -2.5719  0.5050  0.5477
48841SOL    HW253129  12.007  10.397   7.058  0.9264  1.0434 -1.2618
48842SOL     OW53130   3.632  12.382   1.587  0.2453 -0.3406  0.2224
48842SOL    HW153131   3.665  12.355   1.501 -0.0708 -1.4490  0.4280
48842SOL    HW253132   3.546  12.341   1.593 -0.5402  1.2746  0.3175
48843SOL     OW53133   4.958  10.461   3.415  0.6711 -0.1456 -0.2955
48843SOL    HW153134   5.049  10.488   3.423  0.5615 -0.2943  1.8381
48843SOL    HW253135   4.962  10.374   3.374  1.5564 -0.5570  0.6427
48844SOL     OW53136   7.059   7.577   0.264 -0.0884  0.6552 -0.4395
48844SOL    HW153137   7.064   7.670   0.239  1.4276  0.6242 -0.3365
48844SOL    HW253138   6.965   7.559   0.269 -0.4295  1.8435 -1.7222
48845SOL     OW53139   2.656  12.281   2.236  0.0753 -0.2503  0.6465
48845SOL    HW153140   2.654  12.227   2.157  0.3623  0.8186 -0.1155
48845SOL    HW253141   2.696  12.226   2.303 -1.9823 -1.8896  0.6237
48846SOL     OW53142   0.772   2.532   4.991  0.0958 -0.2429  0.2632
48846SOL    HW153143   0.820   2.449   4.988 -1.7635 -1.3569  0.1639
48846SOL    HW253144   0.749   2.543   5.084  2.2554  1.3810  0.7005
48847SOL     OW53145   4.085   3.433   1.237  0.2169  0.2006  0.7430
48847SOL    HW153146   4.085   3.338   1.227  1.4736 -0.1521  3.3474
48847SOL    HW253147   4.172   3.460   1.207 -0.3807  0.6587 -0.6497
48848SOL     OW53148   5.612   1.508   8.706  0.2528  0.0289 -0.2300
48848SOL    HW153149   5.525   1.474   8.685  0.6782 -2.1659  1.1720
48848SOL    HW253150   5.602   1.603   8.706 -1.8406 -0.1455 -1.2650
48849SOL     OW53151   7.149  10.138   3.268  0.1438  0.4891  0.1801
48849SOL    HW153152   7.169  10.216   3.321 -0.5256  0.3993  0.5825
48849SOL    HW253153   7.067  10.160   3.223 -0.9991 -0.5987  1.6247
48850SOL     OW53154   3.975   2.501   5.365 -0.5818 -0.3194 -0.1429
48850SOL    HW153155   3.994   2.541   5.280  1.2342  1.3678  0.9478
48850SOL    HW253156   3.880   2.506   5.374 -0.8733 -1.0066 -2.2405
48851SOL     OW53157   4.382   2.991   5.559 -0.0307  0.4165  0.1734
48851SOL    HW153158   4.337   2.934   5.496  2.3068  0.3069 -1.4981
48851SOL    HW253159   4.376   3.078   5.520  0.1260  0.6070  0.5803
48852SOL     OW53160  11.350   9.912  12.596  0.2206 -0.2480 -1.3662
48852SOL    HW153161  11.297   9.992  12.591  0.3881  0.2163  2.0285
48852SOL    HW253162  11.433   9.942  12.634 -0.0160 -2.0888  0.7788
48853SOL     OW53163  11.627   4.115   8.692 -0.1208 -0.0845  0.0296
48853SOL    HW153164  11.716   4.114   8.657  0.2060 -2.5806  0.7216
48853SOL    HW253165  11.637   4.094   8.785 -1.3368  1.3061  0.5158
48854SOL     OW53166  10.100   4.846   0.043  0.0697 -0.0383  0.5911
48854SOL    HW153167  10.105   4.772  -0.018  0.9028 -2.2147  3.0997
48854SOL    HW253168  10.010   4.842   0.077  0.4749 -0.7777  1.6504
48855SOL     OW53169   5.958   9.363  10.639 -0.2693 -0.1109  0.2868
48855SOL    HW153170   5.878   9.391  10.683  0.4106  0.3537  1.2573
48855SOL    HW253171   5.956   9.267  10.644 -1.1645 -0.1482 -0.4589
48856SOL     OW53172   2.314   5.576  12.597 -0.6039  0.1553  0.3680
48856SOL    HW153173   2.327   5.579  12.502  1.0746  0.6338  0.5799
48856SOL    HW253174   2.224   5.546  12.608 -1.1316  0.9937 -1.3782
48857SOL     OW53175  10.617   8.432   2.841 -0.6491 -0.0044  0.3616
48857SOL    HW153176  10.523   8.449   2.839 -0.6764  0.1494  1.9033
48857SOL    HW253177  10.625   8.340   2.817 -1.2182 -0.1022  0.5280
48858SOL     OW53178   0.975   4.955   7.999  0.0399  0.2745  0.1793
48858SOL    HW153179   1.059   4.971   7.956 -1.0965  0.9560 -1.9623
48858SOL    HW253180   0.993   4.965   8.092  2.1023  1.5284 -0.2850
48859SOL     OW53181   4.983   9.874   9.951 -0.3447 -0.2076 -0.1793
48859SOL    HW153182   4.904   9.859  10.003 -0.2575 -0.5789 -0.1490
48859SOL    HW253183   5.041   9.801   9.973 -0.0013  0.0511 -0.2180
48860SOL     OW53184   2.171   6.271   2.559 -0.2345 -0.3636 -0.7254
48860SOL    HW153185   2.115   6.285   2.636  0.5884  0.3586 -0.2302
48860SOL    HW253186   2.137   6.332   2.494 -0.4857 -0.4600 -0.6866
48861SOL     OW53187   4.160   6.476  10.280 -0.0712 -0.1509 -0.0278
48861SOL    HW153188   4.160   6.570  10.261 -1.2039 -0.0622  0.3327
48861SOL    HW253189   4.252   6.452  10.281  0.2654  1.0707  0.3832
48862SOL     OW53190   2.424   3.005   5.939 -0.6062 -0.9860 -0.1759
48862SOL    HW153191   2.371   3.035   5.866 -0.5488 -1.0162 -0.2303
48862SOL    HW253192   2.397   2.915   5.953 -2.0400 -0.3904  1.1231
48863SOL     OW53193   0.424  12.434  10.213 -0.1838  0.6693 -0.3267
48863SOL    HW153194   0.506  12.385  10.209  0.0464  0.7562  2.0324
48863SOL    HW253195   0.361  12.380  10.165  0.6309 -0.7872  0.1784
48864SOL     OW53196   7.205  10.087   2.233  0.1135  0.3179  0.2350
48864SOL    HW153197   7.255  10.152   2.282 -1.9987  0.4735  2.3702
48864SOL    HW253198   7.172  10.134   2.156  2.7509  0.3151 -0.9777
48865SOL     OW53199   8.049   1.410   2.370 -0.0944 -0.2109  0.4656
48865SOL    HW153200   8.066   1.317   2.354  0.3069 -0.4198  1.9730
48865SOL    HW253201   7.997   1.438   2.294  1.9997 -0.9823 -1.3454
48866SOL     OW53202   9.022   3.778  12.496 -0.2920  0.1524 -0.1059
48866SOL    HW153203   9.104   3.827  12.500 -0.4519  0.3377  1.0183
48866SOL    HW253204   8.964   3.823  12.558 -1.0838 -0.2788 -0.5146
48867SOL     OW53205   3.885   1.589  12.743  0.0704 -0.0969  0.6488
48867SOL    HW153206   3.837   1.507  12.755 -0.4971  0.4214  2.0976
48867SOL    HW253207   3.927   1.605  12.828 -0.6249  1.6034  0.7069
48868SOL     OW53208   1.992   7.010   3.924  0.6192  0.3752 -0.3942
48868SOL    HW153209   2.076   7.049   3.897 -0.1186  2.0656 -0.4236
48868SOL    HW253210   1.972   7.052   4.007  0.0894 -0.4878 -0.0768
48869SOL     OW53211   9.843  12.543   9.699  0.3104  0.0010  0.1307
48869SOL    HW153212   9.882  12.589   9.624 -1.6411 -0.3033 -1.1382
48869SOL    HW253213   9.852  12.605   9.772 -0.6601  1.7189 -1.1244
48870SOL     OW53214  10.391   2.278   6.212 -0.1852 -0.5278 -0.3187
48870SOL    HW153215  10.387   2.350   6.148 -0.3116 -0.0475  0.2150
48870SOL    HW253216  10.302   2.243   6.213 -1.3669  2.0255  2.4145
48871SOL     OW53217  11.606  11.796   8.814  0.4046  0.1140  0.0085
48871SOL    HW153218  11.686  11.798   8.763  0.1555 -0.6727 -0.4162
48871SOL    HW253219  11.571  11.886   8.807  1.8073  0.7866  1.1382
48872SOL     OW53220   5.155   9.661   9.707  0.1662 -0.1093 -0.5144
48872SOL    HW153221   5.107   9.622   9.780  0.1616  1.1139  0.1692
48872SOL    HW253222   5.121   9.617   9.629  0.1045 -1.3759  0.2036
48873SOL     OW53223  10.811   6.516   7.288  0.2598 -0.1598  0.0048
48873SOL    HW153224  10.836   6.507   7.196  0.9179 -1.3435  0.2786
48873SOL    HW253225  10.715   6.522   7.286  0.2613 -0.3016 -0.7416
48874SOL     OW53226   3.654   1.375   0.861  0.5302 -0.1358 -0.2321
48874SOL    HW153227   3.732   1.362   0.807 -0.3061 -1.4013 -1.1890
48874SOL    HW253228   3.614   1.288   0.866  0.0293  0.1615  1.5943
48875SOL     OW53229   9.949  12.757   8.247  0.5591  0.0849  0.3834
48875SOL    HW153230   9.957  12.661   8.244 -1.2888 -0.1307  0.8819
48875SOL    HW253231  10.013  12.784   8.313  0.3776 -0.9201  0.9981
48876SOL     OW53232   1.523   9.642   9.189  0.8124  0.1143 -0.0998
48876SOL    HW153233   1.471   9.619   9.112  1.1859  0.8833 -0.5909
48876SOL    HW253234   1.607   9.598   9.175  0.1944 -1.4730  0.8924
48877SOL     OW53235   0.562  12.132   2.484  0.8603 -0.0740 -0.3478
48877SOL    HW153236   0.551  12.043   2.516  1.2042 -0.0402 -0.1309
48877SOL    HW253237   0.481  12.176   2.508  0.9833 -0.1355  0.1866
48878SOL     OW53238  10.797   6.859   9.331  0.1059  0.3028  0.1222
48878SOL    HW153239  10.732   6.845   9.400 -0.2105  2.0906  0.2421
48878SOL    HW253240  10.749   6.846   9.250  0.3595 -1.3066  0.1841
48879SOL     OW53241  10.897   0.371   2.071 -0.3304  0.4232 -0.3793
48879SOL    HW153242  10.918   0.434   2.139  0.3975  0.7347 -0.8760
48879SOL    HW253243  10.821   0.408   2.026 -1.5651 -0.3537  0.9763
48880SOL     OW53244   1.379   9.777   6.304  0.4134  0.5695  0.2621
48880SOL    HW153245   1.309   9.812   6.248  0.5988  0.3150 -0.1313
48880SOL    HW253246   1.365   9.820   6.388  0.8905  1.9104 -0.3251
48881SOL     OW53247   1.467   4.622   0.822 -0.1224  0.7314 -0.0852
48881SOL    HW153248   1.381   4.660   0.841 -0.5174  0.1419 -0.6368
48881SOL    HW253249   1.462   4.597   0.730  0.4888  0.2982 -0.0062
48882SOL     OW53250   5.706   9.000   3.295  0.1565  0.1048 -0.0561
48882SOL    HW153251   5.795   8.975   3.321  0.5499  2.2740  0.9071
48882SOL    HW253252   5.688   9.079   3.346 -2.2112 -0.0810 -0.4989
48883SOL     OW53253   4.619   6.461   5.993  0.3402  0.3504  0.1040
48883SOL    HW153254   4.638   6.380   6.040  1.0210  0.0788 -0.5996
48883SOL    HW253255   4.524   6.465   5.988  0.3008 -0.4002  0.1646
48884SOL     OW53256  10.996   2.141   7.019 -0.0363 -0.2458  0.4342
48884SOL    HW153257  11.026   2.162   7.107  1.6121  0.8604 -0.3336
48884SOL    HW253258  11.068   2.090   6.981 -0.7953 -0.8508 -0.2260
48885SOL     OW53259   0.348   4.088  12.268  0.1051  0.2243  0.3637
48885SOL    HW153260   0.274   4.029  12.254  1.2416 -1.3458  0.7781
48885SOL    HW253261   0.318   4.148  12.337 -1.5434  1.0586 -0.9833
48886SOL     OW53262   4.377   7.042   6.614  0.1570  0.5563  0.1489
48886SOL    HW153263   4.354   7.135   6.607  0.8082  0.6077 -4.0514
48886SOL    HW253264   4.469   7.042   6.641  0.5551  1.2625 -1.1184
48887SOL     OW53265  10.063  12.594   4.437  0.2157 -0.7240 -0.3965
48887SOL    HW153266  10.004  12.611   4.363 -0.5567  0.5954  0.5001
48887SOL    HW253267  10.135  12.544   4.398 -0.3200 -0.3192 -1.9893
48888SOL     OW53268   9.303   2.375   9.575 -0.1413 -0.5750 -0.7730
48888SOL    HW153269   9.318   2.336   9.489 -0.1981 -1.0911 -0.5509
48888SOL    HW253270   9.306   2.301   9.636 -2.4671 -0.5730 -0.5781
48889SOL     OW53271   1.559  10.738   5.037 -0.5298  0.1413  0.2064
48889SOL    HW153272   1.631  10.746   5.100  1.9776  0.4878 -2.5006
48889SOL    HW253273   1.544  10.644   5.028  0.8302 -0.0241 -0.4662
48890SOL     OW53274   3.612  11.210  11.382  0.5659  0.1311  0.2470
48890SOL    HW153275   3.626  11.210  11.477  0.7840  0.1665  0.2154
48890SOL    HW253276   3.653  11.128  11.352 -0.1329 -0.2357  0.2745
48891SOL     OW53277   5.125   6.759  12.592 -0.1272  0.1605 -0.1568
48891SOL    HW153278   5.147   6.703  12.517 -0.5006 -0.9422  0.5426
48891SOL    HW253279   5.208   6.769  12.639 -0.6001 -2.3062  1.3526
48892SOL     OW53280   4.583  12.019   2.293  0.1420  0.2237 -0.1149
48892SOL    HW153281   4.515  12.044   2.355 -0.1475 -0.1785 -0.2664
48892SOL    HW253282   4.619  11.937   2.328  1.8060  1.3272  0.9505
48893SOL     OW53283   9.639   6.232   3.702  0.4596 -0.1179 -0.1588
48893SOL    HW153284   9.628   6.181   3.622 -1.5314 -0.6090  0.3739
48893SOL    HW253285   9.713   6.192   3.747 -0.9641 -2.5792  0.1880
48894SOL     OW53286   6.331   2.801   2.782 -0.5908 -0.2288  0.3328
48894SOL    HW153287   6.360   2.885   2.747 -0.2825 -0.4388  0.0804
48894SOL    HW253288   6.351   2.806   2.875  0.5201 -0.4736  0.1218
48895SOL     OW53289   9.899   0.927   0.581 -0.3242 -0.2683 -0.6166
48895SOL    HW153290   9.887   0.836   0.609  0.4637 -0.5661 -1.2150
48895SOL    HW253291   9.827   0.942   0.520 -0.2887 -0.5824 -0.7399
48896SOL     OW53292   0.298   5.954   4.890  0.0514  0.2437  0.4743
48896SOL    HW153293   0.319   5.929   4.980 -0.1668  2.3655  1.1782
48896SOL    HW253294   0.367   5.915   4.837  0.7702 -0.1743  1.6920
48897SOL     OW53295   3.127   1.545  10.777  0.1650 -0.2768 -0.4593
48897SOL    HW153296   3.109   1.566  10.868  1.0992  1.3511 -0.5932
48897SOL    HW253297   3.197   1.479  10.780  1.4967  1.0823  0.0584
48898SOL     OW53298  10.553  10.158   1.014  0.0215 -0.1707 -0.0326
48898SOL    HW153299  10.593  10.075   0.988  1.3444  0.6839 -0.8544
48898SOL    HW253300  10.558  10.158   1.110  0.4513 -0.8325 -0.0490
48899SOL     OW53301   4.953   4.030   8.000 -0.4877  1.1832 -0.2500
48899SOL    HW153302   4.973   4.093   8.069 -0.9389  0.9130  0.1362
48899SOL    HW253303   4.976   3.945   8.038 -2.2108  0.8624  0.1848
48900SOL     OW53304   5.856   7.284   8.006  0.4826  0.3204 -0.4482
48900SOL    HW153305   5.900   7.337   7.939  0.9101  0.8225  0.2143
48900SOL    HW253306   5.856   7.339   8.084  0.1114 -0.3066  0.0059
48901SOL     OW53307   1.236  12.105   7.390 -0.0703  0.2646  0.5909
48901SOL    HW153308   1.316  12.129   7.437  1.1327 -0.2743 -1.0965
48901SOL    HW253309   1.200  12.188   7.359  0.0900  0.4577  0.9126
48902SOL     OW53310   8.635   6.337  11.815  0.1307  0.7055 -0.2426
48902SOL    HW153311   8.546   6.348  11.847  0.0674  0.5903 -0.3772
48902SOL    HW253312   8.636   6.381  11.730  0.2537  0.8687 -0.1566
48903SOL     OW53313   4.448  12.369  12.609  0.1058  0.0244 -0.5630
48903SOL    HW153314   4.379  12.409  12.661  0.8127  0.8883 -0.2485
48903SOL    HW253315   4.404  12.305  12.553 -0.8778  0.2815 -0.0870
48904SOL     OW53316   1.937   2.001   1.862 -0.3551  0.0426  0.6276
48904SOL    HW153317   1.882   2.076   1.884 -0.3803  0.0599  0.5074
48904SOL    HW253318   1.904   1.930   1.917 -0.4647  0.0665  0.5935
48905SOL     OW53319  11.502  12.645   5.405 -0.3454 -0.0595 -0.2540
48905SOL    HW153320  11.476  12.701   5.332  0.0164  0.9080  0.3426
48905SOL    HW253321  11.585  12.681   5.434  1.0276 -2.2407 -1.2259
48906SOL     OW53322   1.098   6.942   3.897  0.1989 -0.0841  0.2347
48906SOL    HW153323   1.096   7.007   3.967  0.5452  0.1685  0.0116
48906SOL    HW253324   1.018   6.958   3.847 -0.7694 -1.1525  1.3546
48907SOL     OW53325   0.466  11.642   0.782  0.0296 -0.0856 -1.2134
48907SOL    HW153326   0.488  11.555   0.750 -3.0672 -0.7813 -1.8028
48907SOL    HW253327   0.422  11.685   0.708 -2.2204  0.3535  0.2647
48908SOL     OW53328   4.780  11.057   0.694 -0.2381 -0.1561 -0.1449
48908SOL    HW153329   4.775  10.961   0.701 -1.1772 -0.1549 -0.6958
48908SOL    HW253330   4.699  11.082   0.650 -0.4582  0.9969  0.8690
48909SOL     OW53331   4.908   7.370   3.136  0.3643  0.1003  0.3584
48909SOL    HW153332   4.868   7.448   3.173  0.9763  0.5622  0.0574
48909SOL    HW253333   4.841   7.302   3.146 -0.5418  0.8778 -0.2406
48910SOL     OW53334   9.129   5.068   8.054  0.0403  0.4752  0.2605
48910SOL    HW153335   9.059   5.097   7.995 -1.4330  0.6835  2.0228
48910SOL    HW253336   9.111   5.113   8.137  2.8616  1.3236  0.5188
48911SOL     OW53337  11.587   8.701   5.026 -0.1681 -1.0511 -0.3525
48911SOL    HW153338  11.540   8.769   5.074  0.0389 -1.1025 -0.0741
48911SOL    HW253339  11.544   8.697   4.941  0.7043  0.3793 -0.8861
48912SOL     OW53340  11.508   7.444   2.303  0.7467  0.0737 -0.2546
48912SOL    HW153341  11.485   7.453   2.396 -2.4866  0.9980 -1.0006
48912SOL    HW253342  11.466   7.363   2.276 -0.6916  1.1618 -1.4498
48913SOL     OW53343   4.609  10.535   9.284  0.0500  0.5228 -0.1763
48913SOL    HW153344   4.670  10.568   9.349 -0.5511 -0.3556  0.8693
48913SOL    HW253345   4.526  10.576   9.305 -0.5116 -0.9289  0.6256
48914SOL     OW53346   1.759   4.683   9.904  0.1074  0.5899  0.2624
48914SOL    HW153347   1.665   4.676   9.920  0.4050 -1.1859  1.4740
48914SOL    HW253348   1.779   4.607   9.850  1.1776 -0.2764  1.8137
48915SOL     OW53349  10.430   2.935   0.475 -0.3423 -0.1370 -0.4856
48915SOL    HW153350  10.340   2.905   0.490 -0.2284 -0.4725 -0.4765
48915SOL    HW253351  10.481   2.894   0.545  0.0748 -1.1370 -1.3650
48916SOL     OW53352  10.983   8.339   0.480 -0.1253 -0.5903  0.3622
48916SOL    HW153353  11.077   8.352   0.471  0.1058 -1.7611  0.8984
48916SOL    HW253354  10.964   8.358   0.572 -0.3506 -0.6993  0.3408
48917SOL     OW53355   8.456   7.110  10.165 -0.2900  0.0724 -0.0325
48917SOL    HW153356   8.427   7.153  10.246  1.3275 -0.3956  0.8498
48917SOL    HW253357   8.380   7.114  10.107 -1.7811 -0.2914  1.7974
48918SOL     OW53358  11.645   3.739   1.744  0.4213 -0.4312 -0.2302
48918SOL    HW153359  11.567   3.754   1.690 -0.3308 -0.6727  0.7601
48918SOL    HW253360  11.665   3.646   1.731 -0.0410 -0.6046  0.2547
48919SOL     OW53361  10.830   8.654   3.900 -0.5315 -0.1109  0.1363
48919SOL    HW153362  10.860   8.578   3.950  0.3235  1.2326  1.7760
48919SOL    HW253363  10.839   8.627   3.808 -2.4784 -2.8068  0.5951
48920SOL     OW53364  11.389   6.787   6.713  0.5457 -0.2761  0.0956
48920SOL    HW153365  11.476   6.753   6.693  0.6464 -0.8261  1.3181
48920SOL    HW253366  11.331   6.712   6.700  0.3277 -0.0600 -0.1871
48921SOL     OW53367   8.231   7.561   8.769 -0.3091 -0.2406 -0.3872
48921SOL    HW153368   8.277   7.521   8.843 -1.2770  0.2974  0.5245
48921SOL    HW253369   8.254   7.505   8.694  0.2145 -1.1445  0.4233
48922SOL     OW53370   9.251   8.927   1.008  0.5347  0.3307  0.0284
48922SOL    HW153371   9.331   8.877   0.988 -0.9877 -1.4773 -2.0710
48922SOL    HW253372   9.220   8.956   0.922 -1.1143  0.9499  0.8012
48923SOL     OW53373   8.680   5.380   3.491  0.3144  0.3671 -0.1810
48923SOL    HW153374   8.645   5.336   3.569  1.1807  2.0465  1.2078
48923SOL    HW253375   8.651   5.325   3.418 -1.2376 -0.8076  1.2413
48924SOL     OW53376  12.524   5.014   7.488  0.0775  0.0112 -0.2488
48924SOL    HW153377  12.538   5.098   7.531 -1.0470  0.1242 -0.0877
48924SOL    HW253378  12.612   4.980   7.475  0.6640  1.9217 -1.7698
48925SOL     OW53379   6.920  10.799   8.563  0.4896  0.0485 -0.1702
48925SOL    HW153380   6.907  10.857   8.637  1.0880  0.5494 -0.4476
48925SOL    HW253381   6.856  10.729   8.575 -0.2176  0.7417  0.1874
48926SOL     OW53382   4.093   2.515   7.361 -0.1790  0.2049 -0.4102
48926SOL    HW153383   4.029   2.481   7.299 -0.4868 -0.0963  0.0637
48926SOL    HW253384   4.057   2.493   7.447  0.6462 -0.1227 -0.1410
48927SOL     OW53385   6.087   2.393   2.212  0.0426 -0.5435  0.6118
48927SOL    HW153386   6.108   2.373   2.303  1.1894 -0.6767  0.3271
48927SOL    HW253387   6.050   2.312   2.178 -1.8698 -0.0432  1.3620
48928SOL     OW53388  11.224   9.235   2.476 -0.3276 -0.4532 -0.0232
48928SOL    HW153389  11.261   9.288   2.547  0.9179 -0.9723 -0.2589
48928SOL    HW253390  11.130   9.241   2.489 -0.1396 -1.4073  2.3255
48929SOL     OW53391   1.847   5.804  11.210  0.1991  0.1078  0.0682
48929SOL    HW153392   1.915   5.818  11.144  2.8380 -1.1665  2.2885
48929SOL    HW253393   1.822   5.713  11.200 -2.1458  0.8324 -1.4459
48930SOL     OW53394   8.552  10.336   5.608  0.3622 -0.6529  0.0872
48930SOL    HW153395   8.591  10.251   5.589 -1.8795 -1.5947 -0.5780
48930SOL    HW253396   8.505  10.324   5.690 -0.9619 -0.4409 -0.6087
48931SOL     OW53397  10.969   1.225  12.742 -0.0915 -0.7204  0.1155
48931SOL    HW153398  10.918   1.196  12.667 -0.0097 -2.7346  0.7887
48931SOL    HW253399  10.960   1.154  12.806 -0.4415  1.0565  2.1656
48932SOL     OW53400   4.240   2.828   5.966 -0.0152 -0.7469  0.1096
48932SOL    HW153401   4.241   2.923   5.956  0.1504 -0.8295 -0.7401
48932SOL    HW253402   4.308   2.797   5.905 -1.4274 -1.5369 -1.1401
48933SOL     OW53403   4.251   3.523  10.143 -0.1812 -0.4945 -0.0886
48933SOL    HW153404   4.266   3.484  10.057 -0.5770 -0.4328 -0.1879
48933SOL    HW253405   4.285   3.612  10.136 -0.5176 -0.3798 -0.2879
48934SOL     OW53406  11.399  12.635  10.162 -0.5212 -0.4829 -0.2176
48934SOL    HW153407  11.307  12.633  10.136 -0.1428  0.6173 -1.7028
48934SOL    HW253408  11.440  12.567  10.108 -0.3588 -0.6308  0.0888
48935SOL     OW53409  12.499   6.869  10.761  0.3726 -0.4503 -0.2445
48935SOL    HW153410  12.423   6.821  10.728 -0.2662 -1.0622  1.9561
48935SOL    HW253411  12.464   6.955  10.785  0.7377 -0.1565 -0.7492
48936SOL     OW53412   1.041   8.412   7.418 -0.4813  0.1481 -0.0515
48936SOL    HW153413   1.091   8.382   7.494  1.0164  1.8356 -0.3090
48936SOL    HW253414   1.006   8.498   7.444 -1.7763 -0.2139 -0.5196
48937SOL     OW53415   3.008  11.385   8.625  0.0385 -0.4261 -0.2336
48937SOL    HW153416   3.020  11.335   8.544 -0.6423 -0.7523 -0.1372
48937SOL    HW253417   2.919  11.364   8.654  0.8475 -1.6387  1.5115
48938SOL     OW53418   4.963   7.301  10.248  0.2429  0.4551 -0.5204
48938SOL    HW153419   5.027   7.230  10.245  1.1087  1.1487  0.6855
48938SOL    HW253420   5.014   7.379  10.270 -1.2915  0.5004  3.9804
48939SOL     OW53421   4.080   3.214   5.211 -0.2357 -0.0819  0.4956
48939SOL    HW153422   4.019   3.287   5.217  0.2429  0.4338 -0.6696
48939SOL    HW253423   4.033   3.140   5.248 -1.9800  0.0637 -1.2919
48940SOL     OW53424   0.628   6.652   5.269 -0.3921 -0.1517  0.0977
48940SOL    HW153425   0.637   6.715   5.198 -1.0638 -0.5922 -0.3867
48940SOL    HW253426   0.704   6.668   5.326  0.9030 -0.6883 -1.4145
48941SOL     OW53427  10.120   2.102  11.346 -0.3458 -0.5475  0.0201
48941SOL    HW153428  10.067   2.152  11.284  0.4271  0.4396  0.1316
48941SOL    HW253429  10.174   2.045  11.290 -0.3185 -0.3422 -0.1634
48942SOL     OW53430  11.773  12.110  12.539  0.2400 -0.0587  0.6059
48942SOL    HW153431  11.726  12.193  12.538 -0.9155 -0.6902  0.4130
48942SOL    HW253432  11.838  12.119  12.608  0.9790  1.4440 -0.2329
48943SOL     OW53433   0.192   3.574   3.399 -0.1662  0.0641 -0.4189
48943SOL    HW153434   0.232   3.627   3.329 -1.4490 -0.3319 -1.4769
48943SOL    HW253435   0.229   3.487   3.387 -0.6259 -0.0780 -0.8001
48944SOL     OW53436   5.261  11.636  11.844  0.1442  0.0741 -0.5544
48944SOL    HW153437   5.263  11.719  11.797 -0.9441  0.8143  0.6193
48944SOL    HW253438   5.351  11.621  11.871  0.0502  2.0086  1.0536
48945SOL     OW53439   1.088  11.027   8.566 -0.0763 -0.2925 -0.0426
48945SOL    HW153440   1.105  10.971   8.642  1.1829  0.0087 -0.0721
48945SOL    HW253441   1.005  11.070   8.586  0.7697  0.6477  1.7253
48946SOL     OW53442   6.070   0.025  11.756  0.3179  0.0510  0.3333
48946SOL    HW153443   5.975   0.024  11.744  0.1644  1.5290  1.2191
48946SOL    HW253444   6.085  -0.019  11.840  0.1289  2.2162  1.5759
48947SOL     OW53445  11.441   2.684   8.376  0.0053 -0.4592  0.1027
48947SOL    HW153446  11.516   2.656   8.429 -0.0012 -0.3075  0.1896
48947SOL    HW253447  11.399   2.753   8.427 -0.2677 -0.6298  0.1120
48948SOL     OW53448   7.720   0.327   9.435  0.7628 -0.1083  0.8225
48948SOL    HW153449   7.632   0.295   9.453  1.6986 -2.4670  1.4979
48948SOL    HW253450   7.727   0.324   9.339 -0.0414  0.5792  0.7338
48949SOL     OW53451   6.304  12.374   7.443  0.1891  0.1246 -0.0320
48949SOL    HW153452   6.332  12.413   7.526  0.3264  2.2320 -1.0087
48949SOL    HW253453   6.302  12.447   7.382 -2.8356 -0.7947 -1.1933
48950SOL     OW53454   8.898   2.956   0.430  0.0708  0.3966  0.6112
48950SOL    HW153455   8.865   2.967   0.341 -0.8769  0.5611  0.9696
48950SOL    HW253456   8.979   3.007   0.432  0.6364 -0.4162 -0.4257
48951SOL     OW53457   5.590   6.197   4.920  0.0406 -0.3115  0.1943
48951SOL    HW153458   5.672   6.153   4.943  2.5885  1.5483 -4.1164
48951SOL    HW253459   5.599   6.285   4.957  0.0363 -0.1105 -0.2724
48952SOL     OW53460  10.235   5.388   6.717 -0.1240  0.5156 -0.1649
48952SOL    HW153461  10.319   5.425   6.744  0.9036 -0.2308 -2.1364
48952SOL    HW253462  10.250   5.293   6.714 -2.0663 -0.0115  2.6657
48953SOL     OW53463  11.952  11.802   6.414 -0.0765  0.6029  0.1392
48953SOL    HW153464  11.913  11.738   6.474  0.2045 -0.9313 -1.2628
48953SOL    HW253465  11.968  11.754   6.333  1.8210  1.9703 -0.3936
48954SOL     OW53466   5.507   0.889   5.795 -0.3936  0.2148  0.2924
48954SOL    HW153467   5.470   0.829   5.731 -2.3614  0.8680  0.7552
48954SOL    HW253468   5.594   0.909   5.760 -0.8122 -0.6224 -1.3717
48955SOL     OW53469   3.541   1.449   5.002 -0.1249  0.5045 -0.8743
48955SOL    HW153470   3.612   1.509   4.982  0.4619  0.1938  0.2226
48955SOL    HW253471   3.462   1.501   4.991  0.4035  1.8230  1.1116
48956SOL     OW53472   5.072   8.792  10.502 -0.2243 -0.4545  0.2287
48956SOL    HW153473   4.995   8.741  10.528 -1.4514  1.4733  0.5523
48956SOL    HW253474   5.038   8.858  10.441  0.9535  1.0684  1.1419
48957SOL     OW53475   4.681   6.216   5.067  0.6262 -0.1746 -0.3501
48957SOL    HW153476   4.609   6.252   5.117 -0.7083 -0.9250 -1.6424
48957SOL    HW253477   4.717   6.290   5.018  0.5399  0.1455  0.0735
48958SOL     OW53478   2.842  11.380   9.516  0.1245 -0.4550  0.2301
48958SOL    HW153479   2.924  11.389   9.563  0.3917 -1.6909  0.0283
48958SOL    HW253480   2.832  11.286   9.502 -0.5421 -0.2123 -1.1221
48959SOL     OW53481   7.806   7.626   3.313  0.2874 -0.0792  0.2269
48959SOL    HW153482   7.800   7.553   3.251  1.4929  0.0621 -0.0808
48959SOL    HW253483   7.817   7.584   3.398  2.2343 -0.3114 -0.0827
48960SOL     OW53484   3.594   6.500   0.715 -0.5071  0.3012 -0.0399
48960SOL    HW153485   3.570   6.416   0.676 -1.4447  1.3557 -1.8192
48960SOL    HW253486   3.689   6.503   0.709 -0.6032  0.2805 -1.9595
48961SOL     OW53487  10.721   6.650   9.725  0.3676 -0.0792  0.1051
48961SOL    HW153488  10.680   6.684   9.645 -0.6534 -1.3374  0.0705
48961SOL    HW253489  10.698   6.714   9.793  0.6611  0.6337 -0.4487
48962SOL     OW53490   1.921  11.082  12.612 -0.2143 -0.5812 -0.0841
48962SOL    HW153491   1.912  10.991  12.640 -0.0207 -0.2340  1.2117
48962SOL    HW253492   1.861  11.092  12.538  1.3053 -2.3034 -1.6437
48963SOL     OW53493   2.076   3.287   2.867  0.1289  1.0661 -0.6675
48963SOL    HW153494   2.054   3.369   2.825  0.3320  1.1026 -0.7033
48963SOL    HW253495   2.170   3.276   2.853  0.2660  1.2349  0.0425
48964SOL     OW53496   2.423   3.424   6.951 -0.2375  0.0656  0.6200
48964SOL    HW153497   2.510   3.414   6.989  0.3133  0.5715 -0.4456
48964SOL    HW253498   2.398   3.336   6.923 -0.1062 -0.0916  0.9937
48965SOL     OW53499  12.059  10.994   3.223 -0.4000  0.0237 -0.3350
48965SOL    HW153500  12.057  11.025   3.314 -0.7702 -2.0128  0.4060
48965SOL    HW253501  12.124  10.923   3.224 -0.1730  0.1928 -1.7390
48966SOL     OW53502   2.526   9.339   7.877  0.5271 -0.3491  0.7045
48966SOL    HW153503   2.522   9.250   7.841 -0.8058 -0.2323  0.5149
48966SOL    HW253504   2.570   9.329   7.961  0.3517 -1.2021  0.7085
48967SOL     OW53505  12.417   0.543   8.979 -0.1477  0.1243  1.0119
48967SOL    HW153506  12.394   0.559   8.888 -0.6045 -0.8229  0.9413
48967SOL    HW253507  12.337   0.507   9.018  0.1222  0.2622  1.7127
48968SOL     OW53508   0.444  12.349   6.783 -0.2277 -0.4014  1.4544
48968SOL    HW153509   0.524  12.296   6.780  0.8561  1.1917  1.4835
48968SOL    HW253510   0.384  12.304   6.724  1.2606 -0.7261  0.1311
48969SOL     OW53511   0.633   8.577   3.785 -0.2090  0.1548 -0.0509
48969SOL    HW153512   0.683   8.558   3.864  2.4902 -0.7799 -1.8524
48969SOL    HW253513   0.651   8.503   3.726 -1.8751  0.9480 -1.6730
48970SOL     OW53514   8.133   6.113  10.890  0.2624 -0.1600  0.1477
48970SOL    HW153515   8.060   6.152  10.939  1.6081  0.1417  1.9799
48970SOL    HW253516   8.090   6.049  10.833 -1.5472  0.7875  0.3440
48971SOL     OW53517  10.122   3.888   0.502  0.6719 -0.1117 -0.3493
48971SOL    HW153518  10.119   3.956   0.569 -0.6013  0.2858 -0.7769
48971SOL    HW253519  10.208   3.897   0.462  1.5088 -0.4277  1.2738
48972SOL     OW53520   9.495  10.468  10.905 -0.4513  0.1870  0.0307
48972SOL    HW153521   9.572  10.459  10.849 -0.3992  0.8186 -0.0171
48972SOL    HW253522   9.521  10.534  10.970 -0.5740 -0.4024  0.6938
48973SOL     OW53523   2.737  11.121  12.154 -0.8432  0.2482 -0.6300
48973SOL    HW153524   2.698  11.048  12.106 -0.6129 -0.3327  0.0581
48973SOL    HW253525   2.831  11.113  12.137 -0.6570 -0.5143  0.6469
48974SOL     OW53526   4.657   3.351   8.348  0.1465  0.1737 -0.0285
48974SOL    HW153527   4.738   3.331   8.396  0.0592  0.3254  0.1806
48974SOL    HW253528   4.627   3.434   8.384 -0.2091  0.0188  0.0285
48975SOL     OW53529   9.274   7.819   1.437  0.1937  0.4584  0.0058
48975SOL    HW153530   9.333   7.841   1.509 -0.7906  0.9529  0.6892
48975SOL    HW253531   9.268   7.899   1.386 -0.1938  0.5435  0.1762
48976SOL     OW53532   5.496  10.228   8.182 -0.6469 -0.1839  0.1884
48976SOL    HW153533   5.494  10.189   8.269 -0.7605  0.3442  0.4252
48976SOL    HW253534   5.543  10.164   8.128  0.7873  0.1521  0.9783
48977SOL     OW53535   3.654   7.268   9.053 -0.2599 -0.2196  0.0992
48977SOL    HW153536   3.569   7.283   9.013 -0.3851 -1.9101 -0.3692
48977SOL    HW253537   3.704   7.221   8.986  0.5004 -0.6055  0.9088
48978SOL     OW53538   3.100   9.143   4.513  0.5767 -0.1201  0.2003
48978SOL    HW153539   3.135   9.100   4.435  1.3218  0.5251  0.1613
48978SOL    HW253540   3.121   9.083   4.585  0.3856 -0.4597 -0.0283
48979SOL     OW53541   3.417   8.046   7.840  0.0956  0.3360 -0.1230
48979SOL    HW153542   3.483   8.055   7.909 -0.1517  0.8214  0.0567
48979SOL    HW253543   3.384   8.135   7.827  0.4702  0.3295 -1.2007
48980SOL     OW53544   2.282   3.849  12.207 -0.2822 -0.1321 -0.2212
48980SOL    HW153545   2.348   3.839  12.277 -2.0656  1.6110  1.8691
48980SOL    HW253546   2.283   3.942  12.187 -0.2795 -0.5121 -2.1073
48981SOL     OW53547   8.144   4.464  11.264 -0.0832 -0.2006  0.0771
48981SOL    HW153548   8.237   4.445  11.276  0.2012  1.3106  0.4253
48981SOL    HW253549   8.100   4.415  11.333  0.4827 -0.5388  0.2057
48982SOL     OW53550   3.079   1.725  10.303  0.0169 -0.0798  0.0388
48982SOL    HW153551   3.069   1.814  10.270 -0.6450 -0.3888 -0.6116
48982SOL    HW253552   2.989   1.696  10.321  0.2268 -0.6161  0.2388
48983SOL     OW53553   8.967   8.033   3.212  1.1622 -0.3135 -0.6025
48983SOL    HW153554   8.934   8.062   3.126 -1.4431 -0.6579  0.1901
48983SOL    HW253555   8.994   8.114   3.255 -0.1071  0.2167 -0.7577
48984SOL     OW53556  11.363   0.389   9.459  0.3395 -0.3112 -0.1727
48984SOL    HW153557  11.381   0.296   9.474  0.0651 -0.4139 -0.4656
48984SOL    HW253558  11.423   0.413   9.388 -0.0174 -0.4228 -0.5186
48985SOL     OW53559   3.050  11.914   5.507 -0.0498  0.7022  0.2258
48985SOL    HW153560   3.118  11.933   5.572  0.5289  0.0456 -0.1823
48985SOL    HW253561   3.085  11.842   5.455 -2.1972 -1.6468  1.8023
48986SOL     OW53562   6.809   5.744   0.008  0.0640 -0.1920 -0.9188
48986SOL    HW153563   6.876   5.730   0.075 -0.5242 -1.9534 -0.6509
48986SOL    HW253564   6.847   5.709  -0.072 -0.2853 -0.6333 -0.8970
48987SOL     OW53565   3.483   6.830  12.062  0.7570 -0.3534 -0.4018
48987SOL    HW153566   3.507   6.747  12.103  0.8152 -0.4924 -0.7185
48987SOL    HW253567   3.409   6.861  12.114 -0.0112 -1.1712 -0.9877
48988SOL     OW53568   3.392  10.850   9.341  0.4134 -0.4199  0.2629
48988SOL    HW153569   3.409  10.926   9.397 -0.5376 -0.9716  1.3508
48988SOL    HW253570   3.379  10.887   9.254  2.6221  0.3993  0.2156
48989SOL     OW53571   0.838   4.906   9.297 -0.2526  0.5589 -0.0109
48989SOL    HW153572   0.927   4.878   9.273 -0.0185  1.1301  0.1640
48989SOL    HW253573   0.805   4.952   9.221 -0.0965  1.0301  0.2027
48990SOL     OW53574  12.785   0.337   7.983  0.2847  0.8861 -0.0230
48990SOL    HW153575  12.774   0.342   7.888  0.0360 -0.5893 -0.0842
48990SOL    HW253576  12.696   0.334   8.018  0.3822  0.0374  0.1631
48991SOL     OW53577   7.995   0.961   3.378 -0.5412 -0.4204  0.7445
48991SOL    HW153578   8.062   0.958   3.446  1.3660 -0.5177 -1.0538
48991SOL    HW253579   7.959   0.872   3.376  0.8622 -1.0045  0.2436
48992SOL     OW53580  12.658  11.598  10.921 -0.1753 -0.4760 -0.2037
48992SOL    HW153581  12.658  11.641  11.006  2.3844 -0.2226 -0.2567
48992SOL    HW253582  12.645  11.505  10.940 -3.1343 -0.0906  0.1074
48993SOL     OW53583   5.708   5.926  10.548  0.7553 -0.1708  0.5642
48993SOL    HW153584   5.653   5.856  10.584 -0.3563  0.3181 -0.1437
48993SOL    HW253585   5.707   5.994  10.615  0.1657 -0.0024  0.3879
48994SOL     OW53586  11.664   8.345  11.699 -0.2215 -0.1155  0.0411
48994SOL    HW153587  11.665   8.440  11.713  0.4707  0.3252 -2.4780
48994SOL    HW253588  11.611   8.333  11.621  0.0716 -1.7674  0.0657
48995SOL     OW53589   2.151   2.931  12.600  0.2478 -0.1834 -0.1428
48995SOL    HW153590   2.195   2.898  12.678  1.8964  0.3462 -0.8029
48995SOL    HW253591   2.120   3.018  12.625  2.1453  0.6382 -0.4963
48996SOL     OW53592   5.058   1.738  11.354 -0.3671  0.5337 -0.3161
48996SOL    HW153593   5.022   1.826  11.355 -0.7141  0.3937 -0.5414
48996SOL    HW253594   5.097   1.728  11.267 -2.2690 -0.3097 -1.1352
48997SOL     OW53595   3.715   7.670   4.233 -0.2502  0.5342 -0.3343
48997SOL    HW153596   3.623   7.695   4.221 -0.4704  0.3287  0.8285
48997SOL    HW253597   3.730   7.602   4.168 -1.4990 -0.8283  0.7463
48998SOL     OW53598   5.875  10.524   1.193 -0.0414  0.8258  0.2704
48998SOL    HW153599   5.952  10.540   1.247  0.5414 -0.3432 -0.1779
48998SOL    HW253600   5.803  10.565   1.241  0.7692  1.5164  0.9324
48999SOL     OW53601   0.510   8.019  12.569 -0.2069 -0.0380  0.2561
48999SOL    HW153602   0.582   7.972  12.612 -0.1568  0.2574  0.4986
48999SOL    HW253603   0.445   8.031  12.638 -0.4950 -0.3095  0.0356
49000SOL     OW53604   6.635   1.529   5.166 -0.0872  0.0294  0.7542
49000SOL    HW153605   6.668   1.587   5.098 -0.4924 -0.1518  0.3929
49000SOL    HW253606   6.649   1.441   5.132 -0.7122 -0.0540  0.6962
49001SOL     OW53607  10.245  11.030   9.629 -0.4086 -0.0040 -0.2705
49001SOL    HW153608  10.309  11.091   9.590 -0.1619 -0.9617 -1.4383
49001SOL    HW253609  10.241  10.957   9.566  0.7806 -2.1624  1.9966
49002SOL     OW53610   4.581   8.296   8.531 -0.2237  0.3412  0.0770
49002SOL    HW153611   4.612   8.351   8.603  0.2857 -1.3925  1.2430
49002SOL    HW253612   4.651   8.300   8.466 -0.6271  1.8065 -0.3192
49003SOL     OW53613   6.476   8.133   5.170 -0.5734 -0.2386  0.0189
49003SOL    HW153614   6.412   8.136   5.241  0.0070 -0.2737  0.5623
49003SOL    HW253615   6.516   8.047   5.177 -0.0661 -0.0079  0.0639
49004SOL     OW53616   9.969  12.286  10.154 -0.6208 -0.1031 -0.1654
49004SOL    HW153617   9.939  12.314  10.241 -0.6354  0.8456 -0.4583
49004SOL    HW253618   9.909  12.328  10.093 -0.2584 -0.2853 -0.6593
49005SOL     OW53619   7.922   8.956   7.697  0.5066  0.6722  0.2939
49005SOL    HW153620   7.853   8.974   7.760  0.8555  1.1461  0.5486
49005SOL    HW253621   7.906   9.017   7.625  1.9259  2.3561  1.3392
49006SOL     OW53622  10.673   3.748   8.852 -0.4146  0.7742  0.5466
49006SOL    HW153623  10.700   3.703   8.772 -2.4972  1.2588 -0.4948
49006SOL    HW253624  10.588   3.709   8.874 -1.1081  2.4363  1.0063
49007SOL     OW53625  12.206  11.883   4.045 -0.1873 -0.8428  0.1538
49007SOL    HW153626  12.248  11.969   4.046 -1.5635 -0.1311  0.2751
49007SOL    HW253627  12.194  11.861   4.138 -1.7385 -0.1418  0.1588
49008SOL     OW53628  10.245   8.586   4.123 -0.3028 -0.5986 -0.4598
49008SOL    HW153629  10.326   8.553   4.160  0.6660 -0.0893 -2.0437
49008SOL    HW253630  10.238   8.676   4.155 -0.0296 -0.5093 -0.6526
49009SOL     OW53631  11.720   7.660   3.953  0.1554  0.0069  0.2857
49009SOL    HW153632  11.784   7.591   3.971  1.2852  0.9074 -0.1033
49009SOL    HW253633  11.679   7.677   4.038 -0.3559 -1.3289  0.3254
49010SOL     OW53634   4.981   4.376   1.894  0.2876  0.5200 -0.2701
49010SOL    HW153635   4.964   4.402   1.804 -0.7319  0.2749 -0.1596
49010SOL    HW253636   4.995   4.281   1.890 -0.3070  0.4166 -0.1168
49011SOL     OW53637   7.242   4.380   0.514 -0.1489 -0.3470  0.1713
49011SOL    HW153638   7.243   4.458   0.458 -1.5531 -0.5099 -0.1149
49011SOL    HW253639   7.187   4.405   0.588 -0.5889 -1.0476  0.0907
49012SOL     OW53640  10.195  11.982   0.975 -0.3090  0.1400 -0.3989
49012SOL    HW153641  10.160  11.989   0.887  0.9937  1.2337 -0.8735
49012SOL    HW253642  10.186  12.070   1.012  1.2591  0.3119 -0.3284
49013SOL     OW53643  12.720   1.531   0.014  0.1620  0.7843 -0.3603
49013SOL    HW153644  12.675   1.596   0.069  0.1313  0.8826 -0.4999
49013SOL    HW253645  12.650   1.490  -0.037  0.1058  0.2046  0.1771
49014SOL     OW53646   9.481  12.010   8.698 -0.6477 -0.8075 -0.0434
49014SOL    HW153647   9.471  11.922   8.736  1.0993 -1.1560 -0.2902
49014SOL    HW253648   9.409  12.017   8.635 -1.1615 -1.8233  0.3972
49015SOL     OW53649   5.832   7.385   8.974 -0.2319  0.1377  0.1320
49015SOL    HW153650   5.835   7.469   8.929  0.8647 -0.4000 -0.8443
49015SOL    HW253651   5.772   7.399   9.048 -1.5848  1.2188 -1.1210
49016SOL     OW53652  12.767   0.956   8.513  0.1335 -0.1118 -0.0760
49016SOL    HW153653  12.749   1.012   8.588  2.2019  0.0717  0.3483
49016SOL    HW253654  12.767   1.015   8.438  0.3832  0.1227  0.1051
49017SOL     OW53655   3.996   3.635   6.485 -0.1991 -0.0582  0.5873
49017SOL    HW153656   4.089   3.625   6.465 -0.1553  1.4829 -0.1429
49017SOL    HW253657   3.991   3.632   6.581  0.5857 -0.2480  0.6279
49018SOL     OW53658   3.679  12.574   4.810  0.2862  0.0471 -0.4755
49018SOL    HW153659   3.699  12.486   4.779  1.9733  0.0800  0.3861
49018SOL    HW253660   3.613  12.561   4.878  0.0650 -0.4812 -0.7832
49019SOL     OW53661   1.965   7.256   8.019 -0.0363  0.0894 -0.1183
49019SOL    HW153662   1.894   7.209   7.976  1.0263 -0.8820 -0.8658
49019SOL    HW253663   1.978   7.208   8.101  0.6906 -0.6269 -0.6368
49020SOL     OW53664   9.826  10.319   6.402 -0.5921 -0.1442 -0.4719
49020SOL    HW153665   9.786  10.399   6.368 -0.6963  0.6414  1.3434
49020SOL    HW253666   9.902  10.350   6.451 -1.5410 -0.9311  1.6241
49021SOL     OW53667   7.465   0.650   0.621  0.4991  0.3242  0.0981
49021SOL    HW153668   7.411   0.613   0.690  0.0403  2.2595  0.8443
49021SOL    HW253669   7.553   0.657   0.659  0.2161  1.5207  0.5713
49022SOL     OW53670   6.298   9.455  10.630  0.1957  0.1222 -0.0009
49022SOL    HW153671   6.245   9.535  10.623 -0.1640 -0.1536 -0.5060
49022SOL    HW253672   6.234   9.385  10.643  0.4727 -0.1486 -0.0886
49023SOL     OW53673  11.716   6.554   9.508  0.2270  0.3917 -0.4214
49023SOL    HW153674  11.772   6.516   9.576  0.7471  0.5418 -0.7652
49023SOL    HW253675  11.682   6.479   9.460 -1.3385  0.1762  0.9095
49024SOL     OW53676   9.309   5.362   7.660  0.4130 -0.0538 -0.3922
49024SOL    HW153677   9.390   5.406   7.684 -0.1698  0.5945  0.4686
49024SOL    HW253678   9.298   5.294   7.727 -0.3354  0.6327  0.2147
49025SOL     OW53679   2.909   6.377   2.450 -0.0413 -0.1254  0.4109
49025SOL    HW153680   2.867   6.383   2.364 -1.9769 -1.6284  1.1633
49025SOL    HW253681   2.998   6.347   2.432 -0.1582  0.3474 -1.0891
49026SOL     OW53682   6.216   5.120   9.212  0.0645 -0.1328 -0.3028
49026SOL    HW153683   6.181   5.099   9.125  1.2260  1.1220 -1.1382
49026SOL    HW253684   6.284   5.055   9.227  0.7377  0.4004 -0.9456
49027SOL     OW53685   7.566   4.036   2.309  0.4394 -0.3763  0.1385
49027SOL    HW153686   7.626   4.110   2.315 -0.3618  0.2949  0.0838
49027SOL    HW253687   7.529   4.029   2.397  0.8505 -1.0164  0.2689
49028SOL     OW53688   3.529   9.833   1.658 -0.2177  0.1864  0.4121
49028SOL    HW153689   3.493   9.916   1.689 -0.4194  1.8021 -3.4956
49028SOL    HW253690   3.472   9.808   1.585  2.4057 -0.9470 -1.3993
49029SOL     OW53691   2.841   9.687   1.081  0.3338 -0.2751 -0.2569
49029SOL    HW153692   2.928   9.722   1.099  0.4603 -0.7337  0.0688
49029SOL    HW253693   2.820   9.716   0.993  0.9748 -0.4689 -0.4738
49030SOL     OW53694   2.126   4.162   9.540 -0.2659  0.1274 -0.4683
49030SOL    HW153695   2.216   4.191   9.555  0.1072 -1.1850  0.0415
49030SOL    HW253696   2.125   4.133   9.449  0.1367 -0.8106 -0.1917
49031SOL     OW53697   9.502  10.518   4.823 -0.0562  0.0778  0.3283
49031SOL    HW153698   9.578  10.571   4.803  1.8452 -2.7335 -0.5350
49031SOL    HW253699   9.535  10.449   4.881 -2.1645 -0.6920  0.7178
49032SOL     OW53700   1.497   1.938   6.113 -0.6888  0.1502  0.5044
49032SOL    HW153701   1.468   2.019   6.071 -0.3557  0.4098  0.7638
49032SOL    HW253702   1.420   1.904   6.157 -0.9014  0.1761  0.1537
49033SOL     OW53703   8.874  12.558   4.706  0.5412 -0.3904  0.2713
49033SOL    HW153704   8.889  12.601   4.621  0.1280  0.0121  0.3977
49033SOL    HW253705   8.890  12.466   4.689  0.3775 -0.3227 -0.2739
49034SOL     OW53706  12.468   7.851   1.359  0.5893  0.1383 -0.1072
49034SOL    HW153707  12.524   7.892   1.425  0.2695 -0.4607  0.5528
49034SOL    HW253708  12.379   7.863   1.393  0.4470 -0.4967 -0.2453
49035SOL     OW53709   5.012   4.048  10.078  0.0840 -0.1374  0.1252
49035SOL    HW153710   5.106   4.039  10.066  0.3345  0.5534  1.4139
49035SOL    HW253711   4.983   3.962  10.109  0.7236  0.2820  2.0723
49036SOL     OW53712   8.302   7.653   9.953 -0.2846 -0.2278  0.1433
49036SOL    HW153713   8.341   7.601  10.024  0.6737  0.8174  0.4080
49036SOL    HW253714   8.266   7.587   9.893 -1.9518 -1.1215  2.0084
49037SOL     OW53715  11.676   0.007  10.598  0.5511  0.0991 -0.1043
49037SOL    HW153716  11.658   0.018  10.505  0.7886 -0.7245 -0.2526
49037SOL    HW253717  11.589   0.006  10.639  0.4347  3.6982  0.1266
49038SOL     OW53718  11.401   0.229  11.964 -0.1832 -0.1545 -0.3124
49038SOL    HW153719  11.312   0.257  11.942  0.8174  3.2657 -0.6459
49038SOL    HW253720  11.448   0.231  11.881  0.4812 -0.8871  0.0345
49039SOL     OW53721   4.552   2.992   4.536 -0.2191  0.1693 -0.5442
49039SOL    HW153722   4.594   2.948   4.610 -0.1527  0.0395 -0.6572
49039SOL    HW253723   4.470   2.943   4.523 -0.0170 -0.0969 -0.8432
49040SOL     OW53724  10.860   1.913  12.546 -0.1547 -0.1079 -0.0237
49040SOL    HW153725  10.937   1.885  12.595 -0.1540 -2.5226 -1.2773
49040SOL    HW253726  10.894   1.971  12.478  0.3395  0.0937  0.3927
49041SOL     OW53727  10.207   8.431   8.883  0.0885 -0.1624  0.4001
49041SOL    HW153728  10.208   8.515   8.930 -1.3381 -0.0622  0.2739
49041SOL    HW253729  10.268   8.444   8.810 -2.4747  1.9480 -1.5634
49042SOL     OW53730   6.802   2.325   5.172  0.3630 -0.3181  0.7238
49042SOL    HW153731   6.751   2.245   5.156 -0.8357  0.8845 -2.0384
49042SOL    HW253732   6.862   2.329   5.098 -0.6486  2.0512 -0.0562
49043SOL     OW53733  11.619   6.395   2.552  0.1347 -0.0536  0.4957
49043SOL    HW153734  11.689   6.333   2.532  1.3569  1.7611 -1.3020
49043SOL    HW253735  11.665   6.477   2.571 -1.4794  1.4626 -1.7317
49044SOL     OW53736   7.661   7.455   2.067 -0.6049  0.2305  0.2373
49044SOL    HW153737   7.619   7.533   2.031  1.0733  0.9559 -0.2871
49044SOL    HW253738   7.652   7.464   2.162 -1.7401  0.2698  0.1368
49045SOL     OW53739   1.157   8.050   1.261  0.6507  0.6378 -0.0998
49045SOL    HW153740   1.138   8.060   1.168  3.5567  1.8815 -0.6636
49045SOL    HW253741   1.188   7.960   1.269 -3.8056 -1.0943  0.6671
49046SOL     OW53742   7.308  11.198  11.601 -0.0447 -0.1435 -0.2817
49046SOL    HW153743   7.395  11.189  11.641  0.1520  2.1705 -0.0287
49046SOL    HW253744   7.250  11.149  11.658  0.9804 -1.1271 -0.0479
49047SOL     OW53745   1.242   9.607   8.085  0.3142 -0.8017  0.2596
49047SOL    HW153746   1.247   9.516   8.114 -3.5650 -0.9320  1.1219
49047SOL    HW253747   1.250   9.602   7.989  0.1623 -2.0776  0.2949
49048SOL     OW53748  10.160  11.607   7.085  0.2935  0.9512 -0.0877
49048SOL    HW153749  10.085  11.581   7.030  0.0797 -1.4943  1.2376
49048SOL    HW253750  10.121  11.665   7.151 -0.5935 -0.6753  0.8791
49049SOL     OW53751  12.091  10.797   9.879  0.4005 -0.1086 -0.0606
49049SOL    HW153752  12.072  10.756   9.964  1.1365 -0.2691  0.0361
49049SOL    HW253753  12.017  10.855   9.863  0.5713  0.4284  1.0148
49050SOL     OW53754   4.770   5.241   5.641  0.9334 -0.1625  0.3760
49050SOL    HW153755   4.740   5.177   5.577 -1.2501  1.9494 -0.8756
49050SOL    HW253756   4.701   5.243   5.707  1.2819  0.4448  0.7331
49051SOL     OW53757   8.284   4.215   8.642 -0.4447  0.2521  0.6922
49051SOL    HW153758   8.354   4.154   8.662  0.3864  0.9428 -0.0403
49051SOL    HW253759   8.323   4.302   8.652 -0.8670  0.6354 -0.7553
49052SOL     OW53760   6.386   0.166   4.102  0.9299  0.0487  0.3505
49052SOL    HW153761   6.427   0.163   4.016 -2.1665  2.3069 -1.4004
49052SOL    HW253762   6.371   0.074   4.125  0.1125 -0.6075 -2.4668
49053SOL     OW53763   2.814  12.742   7.974  0.4017  0.4840  0.4041
49053SOL    HW153764   2.833  12.734   7.881 -0.2361 -0.4883  0.3464
49053SOL    HW253765   2.832  12.655   8.010 -0.2078  0.6058  1.0216
49054SOL     OW53766   6.748   4.790   7.081 -0.1484 -0.1475 -0.2247
49054SOL    HW153767   6.812   4.725   7.052  0.3109  0.9333 -1.7506
49054SOL    HW253768   6.800   4.854   7.129 -0.5593 -0.7218  1.0361
49055SOL     OW53769   6.626   6.565   9.617 -1.0820  0.0813  0.2575
49055SOL    HW153770   6.582   6.517   9.687 -0.0470 -1.9774 -0.4242
49055SOL    HW253771   6.562   6.566   9.546 -1.3022  0.2136  0.4531
49056SOL     OW53772   0.661   7.170  12.459  0.1999 -0.4927 -0.6082
49056SOL    HW153773   0.693   7.149  12.371 -1.5182  0.1695 -1.4495
49056SOL    HW253774   0.689   7.261  12.473 -2.0987  0.5089 -1.8380
49057SOL     OW53775   8.523  12.642   3.474 -0.4553 -0.0020 -0.0935
49057SOL    HW153776   8.555  12.569   3.527 -3.9644 -0.8398  1.0897
49057SOL    HW253777   8.572  12.718   3.505  0.1473 -1.1048  1.7784
49058SOL     OW53778   0.052  10.251  10.620 -0.1781 -0.2457 -0.2816
49058SOL    HW153779   0.034  10.220  10.709  0.5831  1.4090  0.4814
49058SOL    HW253780  -0.013  10.319  10.604 -1.2674 -1.5369 -1.5967
49059SOL     OW53781   6.677   9.850  10.260  0.1816  0.0090 -0.2490
49059SOL    HW153782   6.728   9.810  10.331  2.2180  1.0934 -1.0243
49059SOL    HW253783   6.615   9.907  10.305  0.1772 -0.7211  0.7094
49060SOL     OW53784   3.927   8.631  10.739  0.1484 -0.2599  0.2168
49060SOL    HW153785   3.887   8.679  10.812 -1.8381 -1.4423 -0.0159
49060SOL    HW253786   4.013   8.604  10.772 -1.0089 -1.4526  2.4737
49061SOL     OW53787   0.316   7.768   1.806  0.1378  0.7725  0.4391
49061SOL    HW153788   0.402   7.729   1.822 -0.1365  0.1783  0.5231
49061SOL    HW253789   0.333   7.841   1.747  0.5817 -0.0020 -0.4369
49062SOL     OW53790   8.416   3.129   9.700 -1.1305 -0.0745 -0.3863
49062SOL    HW153791   8.398   3.042   9.736 -1.1985 -0.1167 -0.5245
49062SOL    HW253792   8.472   3.114   9.624  0.6894  0.1376  0.8325
49063SOL     OW53793   7.117   3.601  12.644  0.6486 -0.2007 -0.2159
49063SOL    HW153794   7.104   3.517  12.599  1.1938 -0.2078 -0.3692
49063SOL    HW253795   7.087   3.667  12.582  1.2925 -0.2178 -0.5489
49064SOL     OW53796   9.073   0.948   1.837  0.5164 -0.1693  0.6311
49064SOL    HW153797   9.102   1.012   1.771  0.0076 -1.0266 -0.4647
49064SOL    HW253798   8.980   0.965   1.849  0.6233  0.0305  1.1877
49065SOL     OW53799   0.880  10.837   4.291 -0.0981 -0.5795 -0.0335
49065SOL    HW153800   0.929  10.802   4.217  0.5480  0.1135  0.0462
49065SOL    HW253801   0.948  10.870   4.351 -0.6160  2.2919 -0.8435
49066SOL     OW53802   6.416   9.687   0.115 -0.2082 -0.4790  0.4698
49066SOL    HW153803   6.346   9.752   0.122  1.9793  2.2706 -1.0571
49066SOL    HW253804   6.461   9.691   0.200 -1.8884 -2.4323  1.5474
49067SOL     OW53805   8.517  12.215   3.779  0.1226  0.2226 -0.3097
49067SOL    HW153806   8.474  12.240   3.861  0.3802  2.5921 -0.8419
49067SOL    HW253807   8.596  12.169   3.806 -1.4406 -2.0971  0.6961
49068SOL     OW53808   5.506   4.390   8.858 -0.2702  0.5725  0.0635
49068SOL    HW153809   5.446   4.460   8.884 -1.2634 -0.7112  1.3885
49068SOL    HW253810   5.521   4.340   8.938 -1.4948 -2.1067 -1.2464
49069SOL     OW53811   7.386  10.535   5.112  0.6198 -0.7497 -0.3530
49069SOL    HW153812   7.294  10.517   5.128  0.6170 -0.2711  0.1705
49069SOL    HW253813   7.395  10.629   5.124  0.6588 -0.3489 -2.9838
49070SOL     OW53814  10.357   7.426  10.229 -0.4032 -0.1787  0.0146
49070SOL    HW153815  10.373   7.481  10.306 -2.8435 -0.0704  0.5216
49070SOL    HW253816  10.398   7.342  10.251  0.5435  0.4280  0.6183
49071SOL     OW53817   2.255   0.963   0.698  0.2954 -0.0339  0.5374
49071SOL    HW153818   2.273   0.946   0.791  0.1052 -0.9642  0.4209
49071SOL    HW253819   2.208   1.046   0.698  0.5029  0.0956  1.2566
49072SOL     OW53820   7.706  10.648  10.782  0.3228  0.7004  0.4757
49072SOL    HW153821   7.775  10.583  10.787  2.2744  2.6962  0.7732
49072SOL    HW253822   7.745  10.728  10.815 -2.0237  2.0299  0.2727
49073SOL     OW53823   2.991   3.482   2.800 -0.1593  0.5231 -0.5837
49073SOL    HW153824   2.961   3.523   2.719 -0.2258  1.5642 -0.0485
49073SOL    HW253825   3.076   3.444   2.777 -0.2144  0.7375 -1.1644
49074SOL     OW53826   8.924  10.127   2.437  0.5799  0.6601 -0.4457
49074SOL    HW153827   8.928  10.219   2.465 -0.7195  1.2945 -2.1577
49074SOL    HW253828   9.014  10.105   2.414  0.9043  1.5190 -0.0557
49075SOL     OW53829  11.404   3.069   1.144 -0.1942 -0.3695  0.0463
49075SOL    HW153830  11.450   3.031   1.219  0.4777  0.5469  0.1106
49075SOL    HW253831  11.340   3.002   1.119 -0.2230 -0.8137  1.2460
49076SOL     OW53832   3.588   2.836   9.035  0.5595  0.0137  0.0272
49076SOL    HW153833   3.551   2.751   9.010  1.5712 -0.4244 -0.0347
49076SOL    HW253834   3.582   2.889   8.956 -0.0699  0.0056  0.0641
49077SOL     OW53835   5.801   5.830   7.772  0.0623 -0.1267  0.4045
49077SOL    HW153836   5.757   5.845   7.856  2.0606  0.0950  1.4737
49077SOL    HW253837   5.822   5.918   7.741  0.1696 -0.2399  0.1583
49078SOL     OW53838  12.103   2.314  10.212  0.2707 -0.3493 -0.6797
49078SOL    HW153839  12.076   2.295  10.302  1.0045  0.9235 -0.1632
49078SOL    HW253840  12.084   2.407  10.201  3.5819  0.4513 -0.5305
49079SOL     OW53841   4.757   0.848  12.624 -0.1399  0.0964  0.1176
49079SOL    HW153842   4.831   0.823  12.679 -0.1564 -0.7722 -0.2407
49079SOL    HW253843   4.692   0.882  12.685  1.6954  3.9770  0.2204
49080SOL     OW53844   4.204   2.851   2.873 -0.0699  0.1889 -0.1011
49080SOL    HW153845   4.159   2.900   2.942  1.1032  0.4373  0.5139
49080SOL    HW253846   4.297   2.864   2.891  0.3205 -2.5038  0.2871
49081SOL     OW53847  10.928   8.648   1.408  0.3121 -0.0438  0.4323
49081SOL    HW153848  10.839   8.683   1.413  0.9224  1.6648 -0.0203
49081SOL    HW253849  10.930   8.577   1.472 -1.3016  0.0501  0.6209
49082SOL     OW53850   7.311  11.331   7.674 -0.0492 -0.6273  0.1640
49082SOL    HW153851   7.294  11.265   7.741 -0.8463  0.9638  1.6015
49082SOL    HW253852   7.368  11.287   7.611  0.5104 -2.2660  1.7384
49083SOL     OW53853   9.026   4.879  11.011 -0.1188  0.3282 -0.6309
49083SOL    HW153854   9.046   4.786  11.022  2.3888  0.8759  0.2345
49083SOL    HW253855   9.100   4.913  10.960  1.3158  2.5357  2.5685
49084SOL     OW53856   3.562   3.723  10.150 -0.3212 -0.2496  0.8101
49084SOL    HW153857   3.491   3.707  10.212 -0.0067 -0.1482  1.2029
49084SOL    HW253858   3.519   3.762  10.074 -1.2356 -3.3746 -0.4453
49085SOL     OW53859   8.416   3.833   8.744  0.9936  0.3150  0.4398
49085SOL    HW153860   8.396   3.815   8.836  2.0676 -0.3943  0.5590
49085SOL    HW253861   8.458   3.752   8.714 -4.7629 -2.1825 -2.4501
49086SOL     OW53862  10.381   4.030   1.661  0.1499 -0.0923 -0.2729
49086SOL    HW153863  10.293   4.000   1.684  0.3987 -0.3136  0.4112
49086SOL    HW253864  10.366   4.097   1.594 -0.4096 -1.6849 -1.7945
49087SOL     OW53865   3.347   0.668   8.513  0.5314  0.0746  0.6780
49087SOL    HW153866   3.289   0.592   8.504 -0.0875  0.6740 -0.5438
49087SOL    HW253867   3.345   0.711   8.428  2.3000  0.4711  0.7806
49088SOL     OW53868   7.924   9.472   3.559  0.2656  1.0702 -0.5672
49088SOL    HW153869   7.876   9.538   3.609  0.7072  1.0902 -0.1684
49088SOL    HW253870   7.870   9.457   3.482 -1.8881 -0.9962  1.1882
49089SOL     OW53871   8.728   1.946   4.746  0.4474  0.4878 -0.1177
49089SOL    HW153872   8.699   2.030   4.710  0.1084  1.0624  1.3982
49089SOL    HW253873   8.653   1.888   4.737  1.1516 -0.1785 -2.5511
49090SOL     OW53874   4.719   5.639   3.173  0.5121  0.1601  0.8364
49090SOL    HW153875   4.756   5.603   3.254  1.6861 -0.0149  0.2485
49090SOL    HW253876   4.640   5.587   3.157  0.7116 -0.3369  1.4420
49091SOL     OW53877   8.666   0.685   4.368  0.3739 -0.0780  1.0305
49091SOL    HW153878   8.758   0.677   4.394  1.0394  1.0218 -0.7741
49091SOL    HW253879   8.661   0.770   4.325 -0.8909 -1.1554 -1.1468
49092SOL     OW53880  11.467  12.425   9.969 -0.2946 -0.1478  0.1113
49092SOL    HW153881  11.493  12.411  10.060 -0.0648  1.4120  0.3175
49092SOL    HW253882  11.418  12.346   9.946  2.1782 -1.9378  0.6032
49093SOL     OW53883   4.410   6.804  12.154  0.0713 -0.0321 -0.0120
49093SOL    HW153884   4.491   6.803  12.102 -0.5218  2.6188 -1.1532
49093SOL    HW253885   4.423   6.874  12.217 -0.2655 -1.5128  1.7987
49094SOL     OW53886  10.490   7.865  11.812  0.2924 -0.0357 -0.0584
49094SOL    HW153887  10.505   7.948  11.766 -2.8922  0.5698 -0.1887
49094SOL    HW253888  10.528   7.879  11.899  2.3399  0.4541 -0.9670
49095SOL     OW53889  11.590   5.389   3.462 -0.1307 -0.3276 -0.4892
49095SOL    HW153890  11.678   5.421   3.483  0.0781 -1.7404  1.0144
49095SOL    HW253891  11.534   5.430   3.528 -0.9456  1.7961 -2.3553
49096SOL     OW53892   2.289   2.804   3.128 -0.4874  0.4594 -0.1113
49096SOL    HW153893   2.346   2.862   3.179  3.3315 -2.2902 -0.7588
49096SOL    HW253894   2.306   2.827   3.037 -0.7476 -0.1253 -0.3124
49097SOL     OW53895   3.869   1.573   3.675  0.0685  0.2390 -1.1506
49097SOL    HW153896   3.794   1.528   3.635  0.7901 -0.8378 -1.3585
49097SOL    HW253897   3.832   1.620   3.750 -0.9029  0.2193 -1.5971
49098SOL     OW53898  12.520   3.620   4.317 -0.3221  0.1461  0.3825
49098SOL    HW153899  12.492   3.529   4.307 -1.1510  0.3516  0.7661
49098SOL    HW253900  12.445   3.671   4.286 -0.0720  0.7057  0.6963
49099SOL     OW53901   8.579   9.608   2.047  0.1085  0.2253 -0.1265
49099SOL    HW153902   8.638   9.657   2.104  1.1768  0.3089 -1.2502
49099SOL    HW253903   8.638   9.554   1.994 -1.0080 -2.2004  0.9535
49100SOL     OW53904   2.097   1.382  11.963 -0.1992  0.4962 -0.1462
49100SOL    HW153905   2.081   1.309  12.023  1.0915  0.0293 -0.3276
49100SOL    HW253906   2.110   1.457  12.021  1.0612  0.0433  0.1998
49101SOL     OW53907   1.829   2.870   6.054  0.0690  0.0528 -0.2581
49101SOL    HW153908   1.832   2.952   6.105  1.2430  0.2024 -0.5406
49101SOL    HW253909   1.748   2.827   6.083 -1.0160  1.7010 -0.7245
49102SOL     OW53910   5.282   5.428  10.675 -0.5546  0.3904  0.0463
49102SOL    HW153911   5.248   5.470  10.754 -1.4917  0.8573 -0.5825
49102SOL    HW253912   5.351   5.487  10.644  0.3156 -0.1488  0.8763
49103SOL     OW53913   5.388   8.746   4.941  0.2438  0.3088  0.4081
49103SOL    HW153914   5.323   8.676   4.937  0.6725 -0.1262  0.7998
49103SOL    HW253915   5.470   8.704   4.914  0.2735  0.9797 -0.5884
49104SOL     OW53916   5.758   4.848  10.120 -0.3079  0.0752 -0.0272
49104SOL    HW153917   5.695   4.888  10.180 -0.3609  0.1753 -0.1481
49104SOL    HW253918   5.707   4.783  10.073 -0.4718  0.5901 -0.5693
49105SOL     OW53919   3.677   6.846   9.190 -0.7450 -0.5377 -0.1560
49105SOL    HW153920   3.743   6.793   9.236 -0.1246 -0.2579 -0.7034
49105SOL    HW253921   3.717   6.932   9.183 -2.5846  0.6982  2.6294
49106SOL     OW53922   1.355   2.541  11.170  0.1752 -0.3345 -0.5029
49106SOL    HW153923   1.440   2.496  11.172  0.4148  0.1012  1.0387
49106SOL    HW253924   1.335   2.557  11.262 -2.7566 -2.5444 -0.5796
49107SOL     OW53925   1.547  12.392   7.041 -0.1078 -0.2037 -0.1413
49107SOL    HW153926   1.604  12.316   7.039  1.0785  0.5495  2.0582
49107SOL    HW253927   1.554  12.426   7.130 -2.9455  0.7389 -0.1624
49108SOL     OW53928   9.822  12.473   5.492 -0.0528 -0.2177 -0.2542
49108SOL    HW153929   9.868  12.448   5.572 -0.1749 -1.3318 -0.5077
49108SOL    HW253930   9.745  12.416   5.490 -0.3485  0.1927 -0.8713
49109SOL     OW53931   2.446   4.700   3.656  0.2298  0.0990  0.0577
49109SOL    HW153932   2.392   4.690   3.578  1.0166  2.6351 -0.8836
49109SOL    HW253933   2.412   4.633   3.716 -2.7342  0.3583 -1.1269
49110SOL     OW53934   0.396  12.635   5.067  0.1705 -0.8117  0.3384
49110SOL    HW153935   0.388  12.728   5.087 -0.9954 -0.7424 -0.4183
49110SOL    HW253936   0.391  12.592   5.153 -2.4227 -0.3624  0.4732
49111SOL     OW53937   3.901   3.149   7.376 -0.2396  0.0481  0.1793
49111SOL    HW153938   3.841   3.080   7.402 -0.4008  0.5395  1.1398
49111SOL    HW253939   3.903   3.209   7.450  1.2471  0.1685  0.0693
49112SOL     OW53940   0.129   2.526  12.310  0.1216 -0.1038  0.5326
49112SOL    HW153941   0.072   2.515  12.387 -0.8146  0.3309 -0.0814
49112SOL    HW253942   0.144   2.436  12.280  0.7700 -0.3025  1.4059
49113SOL     OW53943   8.384   3.970   2.148  0.0524  0.0311 -0.5793
49113SOL    HW153944   8.368   4.022   2.226 -0.1709 -0.1926 -0.4778
49113SOL    HW253945   8.299   3.936   2.123  0.3182 -0.9810 -0.1593
49114SOL     OW53946  12.468   1.818  12.484 -0.0929 -0.2272 -0.1985
49114SOL    HW153947  12.382   1.859  12.469  0.5431  1.2861  0.0738
49114SOL    HW253948  12.460   1.779  12.571 -0.5858 -0.3042 -0.2750
49115SOL     OW53949  12.548  10.960  11.225 -0.0547 -0.3391  0.6414
49115SOL    HW153950  12.483  10.951  11.294  0.8066  0.2146  1.5541
49115SOL    HW253951  12.567  11.054  11.222 -0.4476 -0.2775 -0.7144
49116SOL     OW53952   1.818   1.102   7.390  0.1638 -0.0470  0.0838
49116SOL    HW153953   1.771   1.041   7.447 -1.2581  0.1254 -0.8815
49116SOL    HW253954   1.778   1.092   7.304  1.9682  0.0370 -0.8287
49117SOL     OW53955   0.836   3.539   8.373 -0.6252 -0.5330  0.2079
49117SOL    HW153956   0.837   3.553   8.278  1.3036 -3.8826 -0.4495
49117SOL    HW253957   0.752   3.497   8.390 -1.4422  1.0493  0.2301
49118SOL     OW53958  11.239  11.576   5.476 -0.1302  0.4106 -0.1799
49118SOL    HW153959  11.222  11.656   5.525  3.7133  1.4076 -0.1428
49118SOL    HW253960  11.228  11.506   5.540 -1.2007  1.1100  0.4312
49119SOL     OW53961   1.439   8.313   8.431 -0.3331  0.1036  0.4870
49119SOL    HW153962   1.382   8.249   8.473 -0.8771  0.5132  0.3853
49119SOL    HW253963   1.516   8.319   8.488 -1.4257  1.2665  1.8993
49120SOL     OW53964   0.540   8.922   7.931  0.3731  0.0914  0.4723
49120SOL    HW153965   0.629   8.956   7.943  0.4679 -0.4768  1.5056
49120SOL    HW253966   0.484   8.984   7.976  0.1205  0.9576 -0.9705
49121SOL     OW53967   2.919  10.301   6.192  0.4318  0.3043 -0.0734
49121SOL    HW153968   2.858  10.365   6.155 -0.3493  1.1277  2.4302
49121SOL    HW253969   2.924  10.232   6.126 -1.9739  0.9676 -1.0655
49122SOL     OW53970   1.968  12.296   4.087 -0.4044  0.2964  0.1715
49122SOL    HW153971   2.042  12.243   4.117  0.9534  1.1110 -1.5392
49122SOL    HW253972   1.981  12.381   4.129 -1.2013  0.0409  0.9765
49123SOL     OW53973  11.923   5.797   9.385  0.7679 -0.2462  0.0589
49123SOL    HW153974  11.842   5.833   9.419  1.3253 -0.1047  1.2911
49123SOL    HW253975  11.978   5.783   9.462  3.2560  2.8874 -0.8747
49124SOL     OW53976   8.896   1.360   5.853 -0.3043 -0.3676 -0.6672
49124SOL    HW153977   8.929   1.382   5.940 -0.1098  2.1587 -1.2954
49124SOL    HW253978   8.974   1.344   5.800 -0.1767  1.7031 -1.1953
49125SOL     OW53979   2.618   3.547   2.915 -0.1518 -0.7050  0.1189
49125SOL    HW153980   2.659   3.461   2.922 -0.5004 -1.1411 -2.2651
49125SOL    HW253981   2.690   3.609   2.908  0.0944 -0.8708  1.0913
49126SOL     OW53982   6.707   1.924   6.938 -0.4118 -0.3490 -0.0481
49126SOL    HW153983   6.771   1.992   6.919 -1.4161  0.6163 -0.0905
49126SOL    HW253984   6.689   1.933   7.032 -1.8995  0.6971 -0.3951
49127SOL     OW53985   1.299   9.553   1.007 -0.1483  0.3436  0.1751
49127SOL    HW153986   1.245   9.475   1.020  0.6174 -0.3091 -0.4739
49127SOL    HW253987   1.328   9.547   0.916  0.7785  0.8275  0.4249
49128SOL     OW53988   8.855  11.953  11.100  0.6105 -0.4642 -0.1325
49128SOL    HW153989   8.815  11.884  11.153  0.6077 -0.4878 -0.1648
49128SOL    HW253990   8.945  11.923  11.086  0.7088 -0.2983  0.1379
49129SOL     OW53991   7.998  11.464   5.609 -0.4702  0.3075 -0.4401
49129SOL    HW153992   7.967  11.486   5.697  0.8214 -0.4800  0.2558
49129SOL    HW253993   8.037  11.544   5.576  0.8049  0.1145  0.5274
49130SOL     OW53994   1.225   7.726  10.865 -0.3197 -0.1236 -0.1462
49130SOL    HW153995   1.208   7.730  10.771  3.3758  1.6460 -0.9257
49130SOL    HW253996   1.237   7.817  10.891 -1.2250 -0.5750  2.1267
49131SOL     OW53997   9.541   5.102  12.253 -0.2224  0.0623 -0.0106
49131SOL    HW153998   9.571   5.013  12.272 -1.7025 -0.6914 -1.0316
49131SOL    HW253999   9.519   5.138  12.339  1.1996 -0.2221  0.5077
49132SOL     OW54000   4.173  11.660  10.155  0.3760  0.3137  0.4303
49132SOL    HW154001   4.264  11.686  10.142  1.2829 -2.9078 -0.4106
49132SOL    HW254002   4.165  11.644  10.249  0.5805  0.8528  0.5432
49133SOL     OW54003   6.295   0.541   7.001  0.1004 -0.7218  0.2975
49133SOL    HW154004   6.232   0.484   6.958  0.2325 -1.3881  0.9558
49133SOL    HW254005   6.327   0.489   7.075  0.3382  0.1521  0.8210
49134SOL     OW54006   7.255   2.046   2.027  0.0167 -0.3181  0.1127
49134SOL    HW154007   7.314   2.056   2.101  1.1431 -1.0269 -0.6542
49134SOL    HW254008   7.212   2.131   2.019 -0.1871 -0.2585  1.6012
49135SOL     OW54009   2.899   5.327  12.450 -0.2916 -0.3035  0.0170
49135SOL    HW154010   2.813   5.325  12.491 -0.4246 -0.8092 -0.2817
49135SOL    HW254011   2.933   5.238  12.461  0.8884  0.2889  1.5917
49136SOL     OW54012   5.738   5.450   0.744  0.6828  0.6890 -0.4524
49136SOL    HW154013   5.743   5.355   0.756  2.6169  0.6565 -1.1810
49136SOL    HW254014   5.683   5.462   0.667  0.7676  0.1344 -0.6016
49137SOL     OW54015  11.240   6.728   1.791 -0.0376 -0.2713 -0.3123
49137SOL    HW154016  11.240   6.804   1.850 -2.2293 -0.2903 -0.2108
49137SOL    HW254017  11.263   6.765   1.706 -2.9463  0.9328 -0.6668
49138SOL     OW54018   6.860   1.419   3.363  0.5474 -0.4960  0.3451
49138SOL    HW154019   6.912   1.486   3.318 -0.6146 -0.0649 -0.4294
49138SOL    HW254020   6.805   1.381   3.294 -3.4102  2.1547  1.6335
49139SOL     OW54021  10.678   8.705   1.345  0.1466  0.6042  0.1964
49139SOL    HW154022  10.694   8.722   1.252 -0.1271  0.6483  0.1564
49139SOL    HW254023  10.641   8.617   1.347  0.7972  0.3306  0.3286
49140SOL     OW54024   5.658  12.323   4.227 -0.1993 -0.5413  0.5949
49140SOL    HW154025   5.643  12.241   4.273  0.8526 -1.7075 -1.0466
49140SOL    HW254026   5.752  12.339   4.237 -0.4120  0.5341  0.9940
49141SOL     OW54027   2.189  10.875   5.913  0.1369 -0.1864 -0.7182
49141SOL    HW154028   2.133  10.870   5.835 -0.7366  0.7064 -0.1697
49141SOL    HW254029   2.256  10.939   5.890  0.2658 -0.4082 -0.9681
49142SOL     OW54030   9.988  11.897   6.151 -0.1985 -0.2874 -0.1039
49142SOL    HW154031  10.079  11.890   6.120  0.3171  0.3200  1.1944
49142SOL    HW254032   9.943  11.945   6.082  0.6410  0.0456 -0.4341
49143SOL     OW54033  12.013   3.746   3.584 -0.1619  0.1599  0.3044
49143SOL    HW154034  12.011   3.653   3.607  1.0410 -0.0835 -0.4809
49143SOL    HW254035  11.922   3.769   3.568 -0.4896 -0.8501  0.6666
49144SOL     OW54036  11.224   3.390   1.836 -0.2026  0.0058  0.2873
49144SOL    HW154037  11.146   3.334   1.838  0.2308 -0.6087  2.2635
49144SOL    HW254038  11.195   3.470   1.792 -1.2306 -1.1852 -1.2881
49145SOL     OW54039   9.357  10.455  12.545  0.0203 -0.1612  0.5423
49145SOL    HW154040   9.360  10.465  12.641 -0.6553 -0.3126  0.5781
49145SOL    HW254041   9.301  10.526  12.516  0.8086  0.3293  0.1844
49146SOL     OW54042   0.533  10.371   6.802  0.2246  0.3536 -0.7946
49146SOL    HW154043   0.537  10.393   6.895  0.2038  0.0024 -0.7116
49146SOL    HW254044   0.447  10.402   6.773  0.8191  1.8712 -1.0555
49147SOL     OW54045   4.893   6.807   3.015  0.6391  0.1867 -0.3187
49147SOL    HW154046   4.910   6.718   2.984  0.5439  0.1446 -0.2512
49147SOL    HW254047   4.913   6.863   2.940  0.3783  0.0827 -0.4678
49148SOL     OW54048  12.612   2.296   2.371 -0.3923 -0.6729 -0.2348
49148SOL    HW154049  12.704   2.309   2.348  0.4484 -0.1565  2.9030
49148SOL    HW254050  12.610   2.215   2.421 -1.0091  0.7765  2.2855
49149SOL     OW54051  11.115  10.557   2.527  0.1812 -0.2875 -0.6486
49149SOL    HW154052  11.189  10.513   2.568  1.1882  1.2532 -0.7243
49149SOL    HW254053  11.140  10.650   2.525 -1.4776  0.1875 -1.2607
49150SOL     OW54054   1.878  11.951   6.601 -0.1690 -0.3459 -0.0773
49150SOL    HW154055   1.795  11.943   6.648 -0.0588 -1.9700 -0.1016
49150SOL    HW254056   1.905  11.861   6.585  2.3566  0.1033  1.2381
49151SOL     OW54057   4.115   0.422   3.299  0.1586 -0.5295 -0.4293
49151SOL    HW154058   4.068   0.474   3.364  0.4921 -1.4418  0.5541
49151SOL    HW254059   4.110   0.332   3.331  1.3828 -0.8314 -1.0260
49152SOL     OW54060   0.517   6.320   7.642  0.1830  0.1131  0.4062
49152SOL    HW154061   0.435   6.337   7.596 -0.0828  0.3508  0.9532
49152SOL    HW254062   0.586   6.338   7.579 -0.1834  0.1119  0.0074
49153SOL     OW54063   5.097   8.240  12.323 -0.4404  0.4196  0.1320
49153SOL    HW154064   5.077   8.165  12.268 -0.2346 -0.3357  1.0684
49153SOL    HW254065   5.011   8.272  12.351 -0.5375 -1.8735  2.8849
49154SOL     OW54066   0.249  12.734  10.428 -0.8039 -0.0950 -0.4130
49154SOL    HW154067   0.159  12.700  10.427 -0.5030 -1.0992  2.0394
49154SOL    HW254068   0.240  12.822  10.464 -0.6854 -0.8463  1.5957
49155SOL     OW54069  12.109  10.076   3.844  1.2013  0.4807 -0.2457
49155SOL    HW154070  12.158  10.076   3.762  1.6592  1.4884  0.0102
49155SOL    HW254071  12.070  10.163   3.849  0.5413  0.1659  0.2406
49156SOL     OW54072   9.054   9.367   2.920  0.1624  0.1561 -0.0729
49156SOL    HW154073   9.140   9.335   2.946  0.1660 -1.1576 -1.5527
49156SOL    HW254074   9.072   9.449   2.873  0.3468  1.1993  1.7079
49157SOL     OW54075  11.784  10.762   4.794 -0.2400  0.1911  0.2438
49157SOL    HW154076  11.695  10.763   4.830 -0.4129 -0.8558 -0.1090
49157SOL    HW254077  11.772  10.753   4.700  0.2262 -0.9487  0.2732
49158SOL     OW54078   6.385  12.285  10.572  0.1462 -0.4403 -0.0665
49158SOL    HW154079   6.371  12.196  10.540  0.4315 -0.3214 -0.5350
49158SOL    HW254080   6.417  12.273  10.662 -1.7817 -0.7376  0.6138
49159SOL     OW54081   5.626  11.882   7.022  0.5527  0.1987  0.6394
49159SOL    HW154082   5.704  11.881   7.077 -0.1363  1.5649  1.6875
49159SOL    HW254083   5.633  11.802   6.969  2.9946  0.6314  0.2133
49160SOL     OW54084   4.364   4.679   4.041 -0.1489  0.0019 -0.4367
49160SOL    HW154085   4.342   4.767   4.070 -4.1737 -1.2859  1.2156
49160SOL    HW254086   4.371   4.628   4.122 -2.3787 -1.9223 -1.3257
49161SOL     OW54087   5.361  11.087   0.007  0.6753  0.9453  0.1054
49161SOL    HW154088   5.311  11.065  -0.072 -0.4614  5.0790 -0.5530
49161SOL    HW254089   5.452  11.071  -0.017  0.1712 -0.1968 -1.1462
49162SOL     OW54090   8.803   2.761   5.616 -0.3565  0.1537 -0.2435
49162SOL    HW154091   8.750   2.692   5.578 -1.5510  0.8292  0.1529
49162SOL    HW254092   8.760   2.842   5.588  1.5199  0.7904 -1.4619
49163SOL     OW54093   6.749   6.807   2.510 -0.0609  0.3331  0.0193
49163SOL    HW154094   6.771   6.717   2.485 -2.4195 -0.3914  0.3314
49163SOL    HW254095   6.693   6.798   2.587 -1.4782  1.9751 -0.7547
49164SOL     OW54096   1.147   1.762   5.414 -0.8399 -0.1029 -0.7646
49164SOL    HW154097   1.153   1.743   5.320  0.6848 -1.8786 -0.3722
49164SOL    HW254098   1.221   1.820   5.431 -1.5232  0.7818 -0.7591
49165SOL     OW54099   7.517   3.656  10.110  0.1370 -0.1630  0.2208
49165SOL    HW154100   7.609   3.631  10.111  0.3582  0.1831 -2.7800
49165SOL    HW254101   7.515   3.742  10.069 -1.5903 -0.7619 -1.1113
49166SOL     OW54102   9.794  11.910   5.057 -0.7557 -0.1972  0.0256
49166SOL    HW154103   9.794  11.845   4.987  0.1592  0.5680 -0.7252
49166SOL    HW254104   9.706  11.947   5.056 -0.2298  1.2161 -2.1411
49167SOL     OW54105   2.466  11.633   2.577  0.2649  0.4435  0.1363
49167SOL    HW154106   2.547  11.586   2.598 -0.3240 -0.8707 -0.4064
49167SOL    HW254107   2.413  11.629   2.657 -0.1507 -0.6431 -0.1749
49168SOL     OW54108   2.108   7.604   2.566  0.0392 -0.0014  0.2739
49168SOL    HW154109   2.107   7.572   2.656  0.5577 -0.4027  0.1383
49168SOL    HW254110   2.176   7.553   2.523 -1.0482 -0.6895 -0.6763
49169SOL     OW54111   1.564   9.042   6.564 -0.0352 -0.1067  0.4305
49169SOL    HW154112   1.570   9.017   6.656 -1.1359  1.9074  1.1126
49169SOL    HW254113   1.652   9.024   6.529 -0.1203 -2.7244  1.3084
49170SOL     OW54114   3.251   2.786   0.558 -0.6498  0.1984 -0.0610
49170SOL    HW154115   3.224   2.797   0.649  0.7826 -0.1636  0.4377
49170SOL    HW254116   3.298   2.867   0.536 -2.6504  1.1371 -1.1513
49171SOL     OW54117   6.638   1.553   8.375  0.0203  0.0650 -0.1532
49171SOL    HW154118   6.575   1.623   8.356  0.5963  0.8747  0.8311
49171SOL    HW254119   6.721   1.585   8.339 -0.0398 -0.8853 -1.2124
49172SOL     OW54120   2.580   9.865   9.327  0.5514  0.0706 -0.1734
49172SOL    HW154121   2.519   9.909   9.268 -1.8830 -2.2494  0.4233
49172SOL    HW254122   2.605   9.931   9.391  0.6695  1.7520 -1.8992
49173SOL     OW54123   6.950   0.723   8.394  0.9668  0.1516  0.1515
49173SOL    HW154124   7.026   0.756   8.443  1.1561 -1.4635  1.0058
49173SOL    HW254125   6.898   0.676   8.459  0.4589 -0.7994 -0.9113
49174SOL     OW54126   4.019   1.511   3.148 -0.2404  0.6124 -0.2637
49174SOL    HW154127   4.113   1.523   3.161 -0.2501 -0.9217  1.7511
49174SOL    HW254128   3.984   1.600   3.143  1.2805  1.2172 -0.8796
49175SOL     OW54129   8.014   8.241   5.595 -0.6070  0.3393  0.2686
49175SOL    HW154130   7.965   8.198   5.525 -2.1322  0.7077  1.0623
49175SOL    HW254131   8.106   8.237   5.566 -0.9485 -1.4003 -0.7292
49176SOL     OW54132   0.909   4.662   2.610 -0.4760  0.1063  0.3238
49176SOL    HW154133   1.004   4.666   2.624 -0.2032 -0.7828 -1.0620
49176SOL    HW254134   0.882   4.753   2.599  0.4808  0.2953 -0.6910
49177SOL     OW54135  11.926   9.895   6.658 -0.3922 -0.6288 -0.3980
49177SOL    HW154136  11.945   9.845   6.579 -0.7706 -0.2024 -0.7654
49177SOL    HW254137  11.831   9.883   6.671 -0.5211  0.1597 -0.6043
49178SOL     OW54138   0.074   7.920   1.217 -0.3589  0.1047  0.4858
49178SOL    HW154139   0.116   8.003   1.196  2.1332 -1.1161  0.2589
49178SOL    HW254140   0.051   7.883   1.131  2.7110 -1.3835  0.1690
49179SOL     OW54141   7.716   4.329   0.244  0.4553 -0.0660  0.3264
49179SOL    HW154142   7.746   4.372   0.164 -0.8758  0.4425  0.0579
49179SOL    HW254143   7.673   4.399   0.293  0.2684 -0.6177  0.9657
49180SOL     OW54144  11.875   7.943   6.933 -0.2981  0.0677  0.0118
49180SOL    HW154145  11.943   7.890   6.974 -0.6029  0.4784  1.0870
49180SOL    HW254146  11.828   7.882   6.875  2.5060  0.2913 -2.7574
49181SOL     OW54147  11.999  11.504  11.184 -0.4675  0.1928 -0.2723
49181SOL    HW154148  11.915  11.465  11.161 -0.8434 -0.1692  1.6138
49181SOL    HW254149  11.995  11.518  11.278  2.3638 -1.7479  0.2450
49182SOL     OW54150   2.899   4.994   9.208  0.0982  0.4102  0.1516
49182SOL    HW154151   2.874   4.922   9.266  1.2322 -0.4481 -0.3805
49182SOL    HW254152   2.952   4.953   9.140  1.8281  1.9261  0.5108
49183SOL     OW54153   1.302   2.455   3.452  0.1404 -0.6391 -0.2727
49183SOL    HW154154   1.275   2.470   3.543  0.1454  1.2581 -0.5523
49183SOL    HW254155   1.397   2.455   3.454  0.1633  0.9803 -0.4820
49184SOL     OW54156  11.582   2.231  10.546  0.4017 -0.6460 -0.1540
49184SOL    HW154157  11.605   2.140  10.526 -1.6245 -1.1168 -0.5898
49184SOL    HW254158  11.518   2.255  10.478 -2.3819 -0.3740  2.3552
49185SOL     OW54159   3.660   3.557   3.782 -0.3882  0.1607  0.6308
49185SOL    HW154160   3.722   3.569   3.711  0.0845 -0.3223  0.9564
49185SOL    HW254161   3.636   3.646   3.808  0.4830  0.3643  0.7752
49186SOL     OW54162   0.910   4.121  10.646 -0.4903 -0.6945  0.1200
49186SOL    HW154163   0.906   4.101  10.739  0.5036  1.4932  0.6946
49186SOL    HW254164   0.974   4.059  10.611 -0.3818 -1.1047  1.0226
49187SOL     OW54165   8.238   3.765   0.437  0.4085  0.2931 -0.0999
49187SOL    HW154166   8.312   3.817   0.469  0.3315  1.1170 -1.1785
49187SOL    HW254167   8.247   3.680   0.480  0.0535  1.4483  2.4180
49188SOL     OW54168   8.237   1.190  11.615  0.0485 -0.2483 -0.3715
49188SOL    HW154169   8.280   1.246  11.681  0.2636 -2.6979  1.7220
49188SOL    HW254170   8.225   1.106  11.659 -3.6527 -0.8207 -2.0996
49189SOL     OW54171  11.901   5.037  11.032 -0.2158 -0.6121  0.0598
49189SOL    HW154172  11.811   5.069  11.029  0.4923  1.5094 -2.1369
49189SOL    HW254173  11.900   4.968  11.098 -3.6479 -1.3914 -0.6318
49190SOL     OW54174   3.035   6.933   7.460 -0.1686 -0.1129  0.0127
49190SOL    HW154175   2.976   6.950   7.387 -0.8515 -0.2614  0.5272
49190SOL    HW254176   3.023   7.007   7.519 -0.6343 -0.6630  0.6238
49191SOL     OW54177   5.528  10.943   5.148  0.0962  0.1820 -0.0010
49191SOL    HW154178   5.452  10.884   5.152 -0.6068  1.1470  2.0144
49191SOL    HW254179   5.595  10.898   5.200  1.7149 -1.5832 -3.2822
49192SOL     OW54180   5.622   7.677   0.998  0.1353  0.6946 -0.2167
49192SOL    HW154181   5.609   7.617   0.925  2.3341  0.5495 -0.5616
49192SOL    HW254182   5.542   7.731   0.999  0.3348  1.2582 -3.2610
49193SOL     OW54183   6.275   8.020  12.566 -0.3174 -0.1148 -0.8888
49193SOL    HW154184   6.237   7.933  12.581  0.3818 -0.2430  0.2575
49193SOL    HW254185   6.370   8.004  12.565 -0.2165  0.4675 -1.8827
49194SOL     OW54186   2.609   3.599   2.264 -0.0276  0.4353 -0.4683
49194SOL    HW154187   2.523   3.605   2.307 -1.3557 -0.2975 -2.8046
49194SOL    HW254188   2.630   3.689   2.240 -0.9595  0.4585 -1.2754
49195SOL     OW54189  12.632   9.154   8.834  0.7121 -0.5565 -0.6190
49195SOL    HW154190  12.665   9.235   8.874  0.4657 -0.7925  0.0744
49195SOL    HW254191  12.593   9.105   8.906 -0.0838 -0.8286 -1.2119
49196SOL     OW54192   5.601  12.385   2.815 -0.2942  0.5457 -0.2773
49196SOL    HW154193   5.573  12.359   2.903 -2.3021  2.7211 -0.1865
49196SOL    HW254194   5.675  12.444   2.830 -1.1685  1.5953  0.0595
49197SOL     OW54195   7.252   2.578   8.587  0.9489  0.1565  0.5751
49197SOL    HW154196   7.170   2.552   8.545  0.6330  2.0617 -0.0719
49197SOL    HW254197   7.320   2.541   8.531  0.5554 -1.1038  0.8986
49198SOL     OW54198   9.708   8.398   2.744  0.1888 -0.1662 -0.2621
49198SOL    HW154199   9.625   8.427   2.783  0.4340 -1.0900  1.0010
49198SOL    HW254200   9.753   8.352   2.815  1.5693 -0.1220 -1.0745
49199SOL     OW54201   6.173   8.923   5.798 -0.4074 -0.4047  0.9874
49199SOL    HW154202   6.234   8.930   5.724 -1.5829  1.3131  0.1041
49199SOL    HW254203   6.148   8.831   5.800 -0.0446 -0.5653 -0.5014
49200SOL     OW54204   5.744   5.030   7.791 -0.1636 -0.1505 -0.3394
49200SOL    HW154205   5.707   4.977   7.721  1.8381  1.9831 -3.2704
49200SOL    HW254206   5.688   5.108   7.795  0.1259  0.0512 -0.1022
49201SOL     OW54207  11.042  10.378   5.105  0.1757  0.2247 -0.2578
49201SOL    HW154208  11.009  10.415   5.023  0.4585  1.7126  0.2688
49201SOL    HW254209  10.963  10.350   5.151 -0.1864  1.5458 -0.0456
49202SOL     OW54210  12.697   7.825   3.927  0.0227  0.3210 -0.2741
49202SOL    HW154211  12.613   7.844   3.886  0.5041  1.0340 -0.9476
49202SOL    HW254212  12.674   7.793   4.015 -0.9466  0.4585 -0.4686
49203SOL     OW54213  10.058   8.477   4.659  0.0822  0.1489 -0.2468
49203SOL    HW154214  10.116   8.538   4.704  2.8011 -1.1853 -1.6801
49203SOL    HW254215  10.052   8.401   4.717  1.5080 -0.5195 -0.9015
49204SOL     OW54216  10.792   0.716   5.468  0.2306  0.1203 -0.2107
49204SOL    HW154217  10.720   0.723   5.405 -0.0731  0.4344  0.1641
49204SOL    HW254218  10.766   0.773   5.541  1.9588  2.2184 -1.1152
49205SOL     OW54219   1.299  10.124  10.315  0.2522  0.3585  0.7278
49205SOL    HW154220   1.212  10.140  10.351  0.6415 -0.5205  2.1402
49205SOL    HW254221   1.359  10.147  10.385  1.1391  0.4374 -0.0387
49206SOL     OW54222   4.454  10.050  11.328 -0.2443 -0.0572  0.2389
49206SOL    HW154223   4.518  10.018  11.391 -1.8822 -0.0478  1.9917
49206SOL    HW254224   4.456  10.145  11.338 -2.0712 -0.1469  1.9727
49207SOL     OW54225  12.343   9.795   4.516 -0.4037  0.8514  0.1884
49207SOL    HW154226  12.337   9.890   4.506  1.6527  1.0472  0.3347
49207SOL    HW254227  12.280   9.760   4.453  0.6409  2.2778 -1.7582
49208SOL     OW54228  10.191   2.162   0.754 -0.8207  0.0052 -0.4589
49208SOL    HW154229  10.257   2.100   0.785 -1.6576 -0.3054  0.7594
49208SOL    HW254230  10.230   2.248   0.769 -0.3347 -0.1837 -0.6051
49209SOL     OW54231   9.383   2.406   5.051 -0.0110  0.5708 -0.4176
49209SOL    HW154232   9.366   2.316   5.078 -0.8174  1.0225  0.6867
49209SOL    HW254233   9.400   2.401   4.957 -2.8095 -0.4180 -0.9601
49210SOL     OW54234  12.543   5.323  10.628 -0.3311  0.8009  0.4864
49210SOL    HW154235  12.507   5.245  10.670  0.6985  1.1313  2.0665
49210SOL    HW254236  12.637   5.313  10.635 -0.0680  0.6723 -2.2223
49211SOL     OW54237   3.510   7.377   5.227  0.6323  0.3597 -0.1519
49211SOL    HW154238   3.557   7.344   5.150  0.7866  0.8975 -0.2916
49211SOL    HW254239   3.446   7.438   5.191 -1.3503 -1.5854 -0.1448
49212SOL     OW54240   7.010   1.890   5.979 -0.2341 -0.6387  0.0497
49212SOL    HW154241   6.922   1.866   5.949 -0.0548 -0.8479 -0.3234
49212SOL    HW254242   7.029   1.972   5.933  0.6130 -1.6907 -1.5805
49213SOL     OW54243   5.972   3.706   9.264 -0.3719 -0.3899  0.5425
49213SOL    HW154244   5.951   3.772   9.197 -0.7456 -1.3651 -0.3253
49213SOL    HW254245   6.063   3.683   9.247 -0.8341 -1.5740 -0.4956
49214SOL     OW54246   0.891   6.614   1.936 -0.9525 -0.3336  0.9186
49214SOL    HW154247   0.916   6.538   1.884 -0.1720 -0.6233  1.7011
49214SOL    HW254248   0.943   6.686   1.900 -2.2171  0.0057 -0.2929
49215SOL     OW54249   0.105   2.117   8.491  0.3339 -0.3142  0.0690
49215SOL    HW154250   0.105   2.025   8.463  0.5746 -0.8670  1.7562
49215SOL    HW254251   0.111   2.113   8.587  1.0152  1.4805  0.1426
49216SOL     OW54252   6.246   2.618   7.886 -0.1331  0.2522  0.0165
49216SOL    HW154253   6.322   2.669   7.917  0.7766 -0.9731 -0.1192
49216SOL    HW254254   6.259   2.531   7.925 -0.9679 -0.2392 -0.7898
49217SOL     OW54255   1.486   5.486  11.221  0.1587 -0.1417  0.1486
49217SOL    HW154256   1.536   5.533  11.154  0.4064  0.3478  0.6707
49217SOL    HW254257   1.525   5.399  11.222 -0.8624 -0.6489 -1.4229
49218SOL     OW54258   9.298   7.695   7.293  0.3458  0.3304  0.6118
49218SOL    HW154259   9.262   7.763   7.235 -0.1286 -0.8528 -0.5439
49218SOL    HW254260   9.222   7.661   7.341  0.8942  2.1072  2.8958
49219SOL     OW54261   5.005  12.777   1.928  0.1709 -0.1716  0.2692
49219SOL    HW154262   5.003  12.746   1.837 -2.0580 -1.2617  0.6113
49219SOL    HW254263   5.010  12.872   1.921 -0.7529 -0.1850 -1.0439
49220SOL     OW54264   8.870   2.702   1.895  0.7257  0.0261  0.1674
49220SOL    HW154265   8.930   2.664   1.830  0.4908 -2.3729  1.2428
49220SOL    HW254266   8.868   2.638   1.966 -2.3168  0.5106  0.6536
49221SOL     OW54267   9.238   6.472   4.078 -0.4732 -0.1703 -0.0295
49221SOL    HW154268   9.151   6.490   4.041  0.3552  1.6068 -1.2231
49221SOL    HW254269   9.285   6.427   4.008  0.2233  0.7226 -0.1429
49222SOL     OW54270   8.690   9.959   1.979 -0.1248 -0.1592  0.3658
49222SOL    HW154271   8.661   9.992   2.064  0.7997  0.0075  0.6283
49222SOL    HW254272   8.775   9.918   1.996  0.3037  0.2914 -0.5446
49223SOL     OW54273   4.437   8.112   3.835  0.2663 -1.4284 -0.4143
49223SOL    HW154274   4.463   8.066   3.915 -0.8114 -0.3821  0.5908
49223SOL    HW254275   4.442   8.204   3.858 -1.0036 -1.1274 -1.2340
49224SOL     OW54276   6.852  12.164  12.256 -0.4464 -0.0256  0.1450
49224SOL    HW154277   6.838  12.161  12.351  0.0785 -1.2583  0.2031
49224SOL    HW254278   6.815  12.082  12.224 -0.8223  0.4863 -0.7505
49225SOL     OW54279   3.808   0.602   2.078 -0.1490  0.0408 -0.1070
49225SOL    HW154280   3.741   0.634   2.018  0.9024  0.7219 -0.9770
49225SOL    HW254281   3.880   0.576   2.020  1.2862  1.6320  0.8784
49226SOL     OW54282   6.298   3.889   3.759 -0.1327  0.1587 -0.8107
49226SOL    HW154283   6.281   3.919   3.849  0.2758 -2.3411  0.1880
49226SOL    HW254284   6.216   3.908   3.712 -0.3671  1.4796  0.0695
49227SOL     OW54285   0.522  12.139  11.846 -0.3960 -0.5570 -0.0708
49227SOL    HW154286   0.566  12.167  11.926  2.5779 -0.3563 -1.6177
49227SOL    HW254287   0.432  12.168  11.857  0.4220  1.4933  2.2549
49228SOL     OW54288  11.615   5.283  10.046  0.1014 -0.1126 -0.1746
49228SOL    HW154289  11.676   5.224  10.089 -0.6139 -1.2290 -0.6279
49228SOL    HW254290  11.654   5.370  10.055  0.6547 -0.4987  1.4459
49229SOL     OW54291   1.653   8.666   6.981  0.2559 -0.4765  0.4638
49229SOL    HW154292   1.567   8.626   6.970  0.9332 -1.7857 -0.3636
49229SOL    HW254293   1.674   8.703   6.895  0.8200 -0.8168  0.4451
49230SOL     OW54294  12.286   8.213   5.240 -0.3052 -0.2764 -0.1597
49230SOL    HW154295  12.327   8.214   5.153 -2.3746 -0.7072 -1.2209
49230SOL    HW254296  12.338   8.152   5.291  2.8684  2.2991 -0.0219
49231SOL     OW54297   3.845   2.447   3.523 -0.1156  0.4609  0.3291
49231SOL    HW154298   3.768   2.420   3.472  1.9641 -0.6133 -2.5406
49231SOL    HW254299   3.819   2.528   3.566 -3.4650 -0.9327  1.1904
49232SOL     OW54300   6.894   7.393   2.133  0.2817 -0.6153 -0.2421
49232SOL    HW154301   6.901   7.345   2.050 -0.7022 -2.4777  0.6651
49232SOL    HW254302   6.928   7.480   2.114 -1.3165 -0.4653 -3.0205
49233SOL     OW54303   3.853  11.193   0.192 -0.2287  0.2232  0.2530
49233SOL    HW154304   3.899  11.175   0.111 -1.1412  0.6483 -0.3800
49233SOL    HW254305   3.865  11.114   0.245 -1.3076 -0.9008 -1.1000
49234SOL     OW54306   3.692  10.469   4.384  0.6814 -0.4929 -0.6489
49234SOL    HW154307   3.738  10.427   4.457 -1.1505  0.6320  1.2738
49234SOL    HW254308   3.642  10.398   4.343 -0.3212 -0.7466  0.9022
49235SOL     OW54309   5.206   3.577   1.514  0.0232  1.0968 -0.2468
49235SOL    HW154310   5.253   3.591   1.596  0.5462  1.5094 -0.6087
49235SOL    HW254311   5.115   3.600   1.534 -0.0118  0.4059  0.4306
49236SOL     OW54312   0.369   5.647   7.552  0.5894  0.0052 -0.3810
49236SOL    HW154313   0.381   5.553   7.546  0.8084 -0.0724  0.9671
49236SOL    HW254314   0.407   5.682   7.471  2.4447 -0.8867  0.0545
49237SOL     OW54315   7.528   8.055   2.759  0.5093  0.3326 -0.2299
49237SOL    HW154316   7.516   8.123   2.693  0.6769  1.1467  0.5586
49237SOL    HW254317   7.440   8.025   2.779  0.3129  1.2677  0.3786
49238SOL     OW54318  11.521  11.686   4.186  0.6113 -0.1542 -0.2548
49238SOL    HW154319  11.486  11.708   4.100 -0.8795  0.2818  0.4311
49238SOL    HW254320  11.454  11.717   4.248 -0.3647 -4.1053  0.9206
49239SOL     OW54321   3.593   7.802   7.440  0.6204 -0.0715 -0.3289
49239SOL    HW154322   3.608   7.769   7.529 -1.1692 -0.7995 -0.2607
49239SOL    HW254323   3.647   7.746   7.384 -0.8932 -1.9525 -0.0127
49240SOL     OW54324   5.414  11.005   2.295 -0.0949 -0.0316  0.2397
49240SOL    HW154325   5.396  10.922   2.251 -1.5518  0.4283 -0.0924
49240SOL    HW254326   5.334  11.023   2.346 -0.3426  1.7918 -0.7172
49241SOL     OW54327   2.962   6.397  12.115 -0.2925  0.1554 -0.2900
49241SOL    HW154328   2.952   6.469  12.053  1.3710 -0.5896 -1.5062
49241SOL    HW254329   2.877   6.389  12.157 -1.4074  0.8986 -2.2741
49242SOL     OW54330   0.650   2.681   9.812  1.0390  0.2698  0.1561
49242SOL    HW154331   0.640   2.633   9.729 -0.7639 -0.2810  0.6624
49242SOL    HW254332   0.672   2.613   9.876 -0.0977  0.3059  0.5998
49243SOL     OW54333   2.416  11.999   2.246 -0.2706  0.1616 -1.1512
49243SOL    HW154334   2.406  12.080   2.197 -0.2417 -0.7223 -2.6659
49243SOL    HW254335   2.499  12.009   2.292 -0.5002  1.1714 -0.9294
49244SOL     OW54336   2.848  12.547   5.330  0.4641  0.1475 -0.2602
49244SOL    HW154337   2.809  12.625   5.370 -0.0657 -0.1462 -0.1969
49244SOL    HW254338   2.871  12.575   5.242 -2.6374 -0.4404 -1.4031
49245SOL     OW54339  10.153   0.142   7.855 -0.4545 -0.5502  0.2346
49245SOL    HW154340  10.109   0.114   7.775 -0.9182  3.0053 -0.9283
49245SOL    HW254341  10.088   0.197   7.900  0.4945 -0.8480  2.0671
49246SOL     OW54342   1.493   4.791  11.028  0.1622 -0.3969  0.1694
49246SOL    HW154343   1.437   4.851  10.979  0.7118 -0.3315 -0.3893
49246SOL    HW254344   1.522   4.842  11.104 -0.4376 -0.3962  0.4003
49247SOL     OW54345   8.320   0.089   4.999  0.2945  0.1572 -0.8231
49247SOL    HW154346   8.409   0.125   5.000 -0.5386  2.3059 -0.2932
49247SOL    HW254347   8.293   0.094   4.907  0.0359  1.3427 -0.6955
49248SOL     OW54348   2.037   3.687   9.699  0.7687  0.3878  0.3352
49248SOL    HW154349   2.090   3.659   9.625  0.3688  0.2228  0.1068
49248SOL    HW254350   2.078   3.768   9.729 -0.7468  2.1306 -1.9365
49249SOL     OW54351   2.952   9.336  11.538  0.4636 -0.5910 -0.0934
49249SOL    HW154352   3.009   9.398  11.583 -0.5875  0.8498 -0.6555
49249SOL    HW254353   2.905   9.291  11.608 -1.7722  2.2080  0.4106
49250SOL     OW54354  11.328   7.082   1.683  0.2170 -0.2041 -0.4781
49250SOL    HW154355  11.360   7.158   1.633  1.2191  0.7899  1.5301
49250SOL    HW254356  11.272   7.035   1.622 -0.7638  2.3577 -1.7132
49251SOL     OW54357   6.434   3.148   8.063 -0.2518 -0.3656 -1.3104
49251SOL    HW154358   6.354   3.097   8.050 -0.0918 -1.4821  1.3240
49251SOL    HW254359   6.505   3.083   8.064  0.4875  0.4055 -1.9780
49252SOL     OW54360  10.983   2.262   3.154 -0.2752 -0.5440 -0.2648
49252SOL    HW154361  10.998   2.254   3.060  0.8745  0.6764 -0.2114
49252SOL    HW254362  11.067   2.240   3.194  0.1191  1.7706  0.3104
49253SOL     OW54363  12.276   2.333  10.491 -0.0797  0.3400 -0.0177
49253SOL    HW154364  12.185   2.305  10.479  0.8617 -2.3716 -1.7986
49253SOL    HW254365  12.308   2.347  10.402  1.8470 -1.0542  0.3988
49254SOL     OW54366   3.332  10.159  12.014  0.2367  0.0879  0.8413
49254SOL    HW154367   3.332  10.243  12.060  0.3491  1.7219 -1.9268
49254SOL    HW254368   3.406  10.164  11.954 -0.0047 -1.8365  0.3140
49255SOL     OW54369   4.717   3.508   7.328 -0.1006 -0.2851 -0.2047
49255SOL    HW154370   4.712   3.468   7.415  0.9854  1.0059  0.4857
49255SOL    HW254371   4.688   3.598   7.341  0.6430  0.0955 -1.0613
49256SOL     OW54372   7.384   1.205   2.319 -0.3211 -0.0304  0.7885
49256SOL    HW154373   7.414   1.136   2.378 -0.7439 -0.6888  0.2507
49256SOL    HW254374   7.363   1.279   2.376  0.2286 -0.3123  1.3601
49257SOL     OW54375   4.937  12.788   9.591  0.2866  0.2225  0.5990
49257SOL    HW154376   4.929  12.697   9.562  0.3163  0.2603  0.4681
49257SOL    HW254377   4.850  12.825   9.576  0.4057  0.3438  0.2031
49258SOL     OW54378   5.979   1.630   8.087  0.1157 -0.2492 -0.1492
49258SOL    HW154379   5.896   1.603   8.126  0.3095  0.1018  0.5114
49258SOL    HW254380   5.963   1.627   7.992  0.1979 -2.8915 -0.1607
49259SOL     OW54381   6.209  10.009   1.647  0.0401  0.0989  0.3933
49259SOL    HW154382   6.230  10.099   1.671 -0.6902  0.8867 -1.7147
49259SOL    HW254383   6.127   9.990   1.693  0.1794  0.5049  0.8199
49260SOL     OW54384   5.219  11.936   6.417 -0.3707  0.3593  0.4274
49260SOL    HW154385   5.213  12.007   6.354  3.0228  1.7693  1.4699
49260SOL    HW254386   5.147  11.952   6.478 -0.4980  2.1206 -0.1289
49261SOL     OW54387   1.137   3.707   6.847  0.5717  0.2622 -0.0961
49261SOL    HW154388   1.185   3.642   6.898  0.8500  0.8224  0.3782
49261SOL    HW254389   1.074   3.744   6.909 -0.7624 -0.7423 -0.8187
49262SOL     OW54390   8.074  11.688   9.113  0.0424  0.1964 -0.1784
49262SOL    HW154391   8.094  11.724   9.200 -0.1208 -0.9540  0.3640
49262SOL    HW254392   8.006  11.623   9.130  0.2076 -0.2361 -1.1291
49263SOL     OW54393   6.210   3.720   6.117  0.6006  0.3468 -0.1258
49263SOL    HW154394   6.290   3.669   6.131 -0.3270 -1.1144  0.0510
49263SOL    HW254395   6.191   3.709   6.024 -0.2815 -0.7084  0.1600
49264SOL     OW54396  11.436  11.647  10.201  0.0388 -0.4184  0.7637
49264SOL    HW154397  11.440  11.578  10.136 -1.6704 -0.9522  1.1632
49264SOL    HW254398  11.346  11.644  10.234 -0.2967  2.3729  0.3743
49265SOL     OW54399   9.982   1.436   5.808 -0.4329 -0.3287  0.7963
49265SOL    HW154400   9.993   1.420   5.715  0.3299  1.2441  0.5790
49265SOL    HW254401   9.937   1.358   5.841  0.5882 -1.5781 -0.6109
49266SOL     OW54402  10.790  11.596  11.195 -0.6560 -0.0291 -0.1010
49266SOL    HW154403  10.759  11.661  11.132  0.5654 -0.4482 -1.1899
49266SOL    HW254404  10.717  11.534  11.204 -1.1425  0.4759 -0.4935
49267SOL     OW54405   1.394   4.814   5.491  0.0401  0.1319 -0.1549
49267SOL    HW154406   1.301   4.817   5.471 -0.6920 -0.5565  2.6930
49267SOL    HW254407   1.409   4.727   5.528  1.6324  0.5041  0.1924
49268SOL     OW54408  11.863   9.619  12.563 -0.2096 -0.6951  0.0697
49268SOL    HW154409  11.782   9.665  12.585  0.2632 -0.2609  0.9473
49268SOL    HW254410  11.904   9.673  12.496 -0.4435 -0.7052 -0.0857
49269SOL     OW54411   1.102   9.931   0.815 -0.1396 -0.3281  0.1935
49269SOL    HW154412   1.015   9.968   0.804  0.5489  0.8060 -2.2508
49269SOL    HW254413   1.098   9.845   0.774 -0.4746 -0.9520  1.4891
49270SOL     OW54414   0.471   9.084  12.782  0.1438 -0.1291 -0.2997
49270SOL    HW154415   0.505   9.087  12.872 -0.0378 -1.1383 -0.1870
49270SOL    HW254416   0.376   9.091  12.791  0.1490  0.1412 -0.4416
49271SOL     OW54417   4.200   9.542   5.323 -0.4477 -0.0695 -0.0566
49271SOL    HW154418   4.177   9.580   5.408 -0.5147 -1.0927  0.3934
49271SOL    HW254419   4.183   9.613   5.260  1.0986  1.2406  0.9267
49272SOL     OW54420  10.221   5.118   3.827 -0.2715  0.2307  0.0040
49272SOL    HW154421  10.208   5.191   3.887  0.6528  0.2743  0.1759
49272SOL    HW254422  10.249   5.159   3.745 -1.2119  0.1521 -0.3677
49273SOL     OW54423   5.867   5.076   2.420  0.7535  0.5462  0.2215
49273SOL    HW154424   5.855   4.986   2.448 -1.3997  0.7576  0.1118
49273SOL    HW254425   5.872   5.071   2.324  0.3105  0.5765  0.1971
49274SOL     OW54426   6.454   7.468   1.730  0.2263 -0.2775 -0.4048
49274SOL    HW154427   6.533   7.486   1.780 -1.0651  1.5555  1.1603
49274SOL    HW254428   6.403   7.548   1.737 -0.7615 -0.5330 -3.3917
49275SOL     OW54429   4.236   7.882   6.150  0.6959 -0.4940 -0.3304
49275SOL    HW154430   4.211   7.797   6.114  0.4401 -0.2058 -0.8418
49275SOL    HW254431   4.303   7.861   6.215  0.2907 -1.1267 -0.1078
49276SOL     OW54432   3.198   9.030   1.362 -0.0286 -0.5918  0.6904
49276SOL    HW154433   3.200   9.082   1.442 -1.4633  0.8946 -0.1621
49276SOL    HW254434   3.109   8.994   1.359 -0.7839  1.2597 -1.3140
49277SOL     OW54435  12.074   0.242   5.342  0.0825  0.2021  0.5994
49277SOL    HW154436  12.013   0.317   5.341 -1.4720 -1.0156  0.7483
49277SOL    HW254437  12.046   0.188   5.268  0.9331 -0.4336  0.7361
49278SOL     OW54438  10.283   6.727   7.585  0.4376  0.0455  0.0584
49278SOL    HW154439  10.312   6.683   7.664 -0.9451 -0.2308  0.4416
49278SOL    HW254440  10.187   6.723   7.589  0.2922  2.0171 -0.5031
49279SOL     OW54441   0.514  11.986  10.417 -0.0329  0.0636  0.0146
49279SOL    HW154442   0.474  12.047  10.479 -0.2250  0.3145 -0.3506
49279SOL    HW254443   0.553  11.917  10.472  0.7102  0.8234  0.4594
49280SOL     OW54444  11.521   8.872   7.755  0.2016 -0.6738 -0.8627
49280SOL    HW154445  11.521   8.784   7.719 -1.0536 -0.6945 -0.8554
49280SOL    HW254446  11.439   8.911   7.725  1.2275  0.8835 -1.7648
49281SOL     OW54447   4.247   9.253   5.852  0.1869  0.0174  0.6068
49281SOL    HW154448   4.161   9.294   5.848 -0.0089 -0.2153  1.9842
49281SOL    HW254449   4.231   9.160   5.839  0.4939  0.1970 -1.2807
49282SOL     OW54450  10.253  11.101   3.886  0.6231 -0.7069 -0.1119
49282SOL    HW154451  10.251  11.008   3.864  1.4376 -0.4553 -1.3203
49282SOL    HW254452  10.273  11.103   3.980 -1.6560 -1.7711  0.4733
49283SOL     OW54453  11.952  10.373   8.408  0.2829  0.0579  0.0919
49283SOL    HW154454  11.903  10.326   8.341 -2.4011 -0.9658  2.5513
49283SOL    HW254455  11.993  10.305   8.460  1.8881  0.8078 -0.1324
49284SOL     OW54456   7.160   6.834   3.677 -0.3249 -0.0044  0.0382
49284SOL    HW154457   7.096   6.861   3.611  1.0632 -0.1556 -1.4569
49284SOL    HW254458   7.124   6.755   3.715  0.1414 -1.7133 -2.7567
49285SOL     OW54459   2.622  12.766   5.373 -0.1847 -0.3924  0.4969
49285SOL    HW154460   2.626  12.715   5.454  2.0164 -0.4843  0.4019
49285SOL    HW254461   2.529  12.777   5.355 -0.7370 -2.8493  1.4955
49286SOL     OW54462   7.872   8.104   1.625 -0.4771 -0.7781  0.1653
49286SOL    HW154463   7.844   8.131   1.713  1.6075  2.2827  0.0306
49286SOL    HW254464   7.944   8.043   1.641 -0.8486 -1.1216  0.5572
49287SOL     OW54465   9.737   7.955   9.178  0.2999  0.0407 -0.1858
49287SOL    HW154466   9.658   8.009   9.185  0.9563  0.9682  0.2086
49287SOL    HW254467   9.725   7.908   9.096 -2.6541 -3.1270  1.7885
49288SOL     OW54468   8.955   9.606   6.821  0.3281 -0.6424 -0.1955
49288SOL    HW154469   8.914   9.657   6.751  0.4852 -0.4630 -0.1564
49288SOL    HW254470   8.887   9.599   6.888  0.3579 -0.3555 -0.1361
49289SOL     OW54471   9.606   5.903   4.644 -0.1771 -0.0515  0.4851
49289SOL    HW154472   9.631   5.958   4.719 -0.9113  1.2224 -0.1751
49289SOL    HW254473   9.565   5.964   4.582 -1.6242 -1.4497  0.0003
49290SOL     OW54474  12.160  11.580   6.763 -0.2493 -0.4348 -0.1608
49290SOL    HW154475  12.249  11.554   6.739 -0.3021 -0.7678  0.0091
49290SOL    HW254476  12.159  11.675   6.750  0.0946 -0.4453 -0.2763
49291SOL     OW54477   1.346   3.302  10.583 -0.6984 -0.1582  0.3248
49291SOL    HW154478   1.430   3.337  10.614 -0.8140  0.1937  0.2511
49291SOL    HW254479   1.312   3.253  10.658 -1.5540  1.7003  1.2324
49292SOL     OW54480   3.752  10.524  12.699  0.2135  0.6062 -0.3479
49292SOL    HW154481   3.803  10.465  12.754 -0.3840 -1.3121 -1.7619
49292SOL    HW254482   3.662  10.516  12.732  0.0922  0.5272 -0.6908
49293SOL     OW54483   3.064   1.315   2.982 -0.2384 -0.6308  0.0693
49293SOL    HW154484   3.160   1.321   2.975 -0.3340  0.0031 -0.9013
49293SOL    HW254485   3.049   1.264   3.061  0.8802  0.3477  0.9480
49294SOL     OW54486   5.094   4.841   9.092  0.1319  0.0568 -0.3026
49294SOL    HW154487   5.023   4.782   9.118 -0.1493  0.9092  0.9850
49294SOL    HW254488   5.138   4.795   9.021 -0.8539 -1.1221 -0.1987
49295SOL     OW54489   8.439   3.542   8.914 -0.1000 -0.1019  0.0155
49295SOL    HW154490   8.364   3.598   8.895  0.6262  0.7293 -0.4927
49295SOL    HW254491   8.430   3.520   9.007 -0.9311  0.0424 -0.0223
49296SOL     OW54492   5.034   1.434   1.911 -0.6065 -0.4857  0.1126
49296SOL    HW154493   5.089   1.455   1.986 -1.0526  0.7553  0.1185
49296SOL    HW254494   4.991   1.352   1.935 -0.4812 -0.2860  1.0717
49297SOL     OW54495   4.610   5.391   8.659 -0.2007 -0.1191 -0.0187
49297SOL    HW154496   4.701   5.410   8.682 -0.6130  0.7929  0.9381
49297SOL    HW254497   4.598   5.299   8.684  0.4475 -0.2399 -0.1351
49298SOL     OW54498   8.572   8.515   4.125  0.0287 -0.2130 -0.0433
49298SOL    HW154499   8.541   8.564   4.049 -1.2567  0.3682  0.8092
49298SOL    HW254500   8.666   8.532   4.128 -0.0226  0.3267 -1.0914
49299SOL     OW54501   4.143   3.365   8.085 -0.4365 -0.3107  0.3132
49299SOL    HW154502   4.225   3.351   8.133 -0.1671  2.0638  0.6748
49299SOL    HW254503   4.075   3.366   8.153 -0.2447  1.4580  0.5463
49300SOL     OW54504   0.137   5.807   4.103  0.1041  0.5830  0.1497
49300SOL    HW154505   0.095   5.812   4.189 -1.3052  0.5616 -0.5089
49300SOL    HW254506   0.206   5.741   4.113 -0.8142 -0.2784  0.9528
49301SOL     OW54507   5.504   2.647   3.957  0.0758  0.5080 -0.5831
49301SOL    HW154508   5.570   2.651   4.026 -0.9325  0.4712  0.3947
49301SOL    HW254509   5.437   2.711   3.983 -0.2936  0.5356 -1.5535
49302SOL     OW54510   1.241   7.515   1.783 -0.4404 -0.0739  0.1855
49302SOL    HW154511   1.172   7.556   1.834 -1.1105 -2.5407  1.4366
49302SOL    HW254512   1.204   7.508   1.695 -0.8370  0.7043  0.2816
49303SOL     OW54513   2.609   6.014   8.767  0.2190 -0.4343  0.0099
49303SOL    HW154514   2.639   5.985   8.853 -1.9145 -2.2944  0.2110
49303SOL    HW254515   2.542   6.080   8.787 -0.5475 -1.1412 -0.1849
49304SOL     OW54516   2.732   8.629   7.967  0.3082 -0.4623 -0.5177
49304SOL    HW154517   2.805   8.598   7.913  0.0823  0.0382 -1.1176
49304SOL    HW254518   2.656   8.584   7.932 -0.1517  1.2933 -1.9053
49305SOL     OW54519   2.795  12.420   9.193  0.1373  0.0584  0.2611
49305SOL    HW154520   2.873  12.380   9.153 -1.0893 -1.9695 -0.2943
49305SOL    HW254521   2.794  12.510   9.161  0.8040 -0.6674 -1.9579
49306SOL     OW54522   4.162   7.442   9.685  0.8053  0.3755  0.6551
49306SOL    HW154523   4.071   7.414   9.700  0.3917  1.3034 -0.0387
49306SOL    HW254524   4.201   7.370   9.635  0.1424  0.4225  0.0594
49307SOL     OW54525   6.775   0.816   1.613 -0.7283 -0.6886 -0.2262
49307SOL    HW154526   6.833   0.884   1.648 -1.2559 -1.0410  1.4269
49307SOL    HW254527   6.801   0.736   1.659 -1.6885 -1.1158 -0.4015
49308SOL     OW54528   4.841   3.342   5.549  0.1069  0.0957  0.3071
49308SOL    HW154529   4.767   3.374   5.497 -0.3514 -0.0809  0.8382
49308SOL    HW254530   4.845   3.248   5.531  0.3508  0.1466  0.0957
49309SOL     OW54531   9.237   7.254   6.666 -0.7513  0.3366 -0.1485
49309SOL    HW154532   9.267   7.246   6.575 -1.1672 -0.9384 -0.2036
49309SOL    HW254533   9.161   7.311   6.661  0.0793  1.4535 -0.3834
49310SOL     OW54534   7.186  10.243   1.804  0.2903  0.6088 -0.7875
49310SOL    HW154535   7.093  10.234   1.782  0.0890 -1.2986  0.6236
49310SOL    HW254536   7.225  10.158   1.779  0.9994  0.1976  1.4807
49311SOL     OW54537   8.241  12.735   7.877 -0.0185  0.5144 -0.1156
49311SOL    HW154538   8.159  12.723   7.925  0.1483 -0.1873  0.0056
49311SOL    HW254539   8.255  12.652   7.831  0.0443  1.0293 -1.0547
49312SOL     OW54540   5.781   9.086   5.322  0.2772  0.1358 -0.2976
49312SOL    HW154541   5.774   9.089   5.417 -0.6738 -0.4233 -0.3397
49312SOL    HW254542   5.800   8.994   5.302  2.0163  0.5268 -0.5661
49313SOL     OW54543   6.307  10.992  11.805  0.3658  0.0367 -0.4422
49313SOL    HW154544   6.265  10.910  11.831  0.9563  0.2467  1.3143
49313SOL    HW254545   6.327  11.036  11.887  0.7334  1.6202 -1.3301
49314SOL     OW54546  12.122   4.825   5.511 -0.9659  0.1081 -0.2219
49314SOL    HW154547  12.034   4.806   5.544 -0.2212 -2.0531  0.7376
49314SOL    HW254548  12.130   4.771   5.432 -1.0497  1.5861 -1.2788
49315SOL     OW54549   5.836   0.482   6.599 -0.1235 -0.1259  0.2653
49315SOL    HW154550   5.793   0.544   6.540  0.2352 -0.8287 -0.7761
49315SOL    HW254551   5.806   0.507   6.686  0.2584  1.7024 -0.0821
49316SOL     OW54552  11.707  10.370   2.661  0.0422  0.2066  0.1651
49316SOL    HW154553  11.724  10.352   2.753 -0.3147  1.8482  0.5811
49316SOL    HW254554  11.636  10.309   2.637 -0.2346  0.1371  1.1242
49317SOL     OW54555   5.776   4.667   8.513 -0.3194 -0.8256 -0.1497
49317SOL    HW154556   5.870   4.661   8.494 -0.4508  0.7286 -1.5017
49317SOL    HW254557   5.766   4.623   8.598  1.7369 -0.4048  0.3711
49318SOL     OW54558  10.305  12.718   8.394 -0.4796 -0.1827  0.4352
49318SOL    HW154559  10.379  12.706   8.454 -0.9364 -0.9741  0.8716
49318SOL    HW254560  10.324  12.659   8.321 -1.1135 -1.1214  0.9958
49319SOL     OW54561  12.750   5.889   0.708 -0.1092 -0.3854 -0.0052
49319SOL    HW154562  12.714   5.875   0.795 -0.4772  2.2409  0.3725
49319SOL    HW254563  12.844   5.873   0.717 -0.0569  0.4031  1.0364
49320SOL     OW54564   0.218   8.239  10.432 -0.2304 -0.1186 -0.4246
49320SOL    HW154565   0.137   8.230  10.482  0.5925 -0.6071  0.8853
49320SOL    HW254566   0.258   8.152  10.436 -0.0413 -0.1059 -1.7842
49321SOL     OW54567   5.193   4.098  10.470 -0.2719 -0.0718 -0.4753
49321SOL    HW154568   5.102   4.071  10.454 -0.9405  1.2516  0.8167
49321SOL    HW254569   5.232   4.024  10.515 -1.0884 -0.1929  0.0579
49322SOL     OW54570   4.560   7.021   3.933  0.1500  0.5817 -0.2487
49322SOL    HW154571   4.631   7.028   3.869 -1.2654 -0.5029 -2.0181
49322SOL    HW254572   4.486   7.066   3.893 -0.8341 -0.2717  0.5510
49323SOL     OW54573   5.187   7.974  12.785 -0.4160  0.4489  0.1640
49323SOL    HW154574   5.219   8.054  12.827  0.7182  0.2716 -0.3119
49323SOL    HW254575   5.192   7.993  12.691 -0.5323 -0.0357  0.0595
49324SOL     OW54576   6.111   9.788   6.550  0.4473 -0.0836  0.6046
49324SOL    HW154577   6.063   9.716   6.591 -1.3017  0.5087 -0.3398
49324SOL    HW254578   6.046   9.835   6.500  2.1350  0.4339 -1.2213
49325SOL     OW54579   8.107   3.906  12.687  0.1223  0.0157  0.1023
49325SOL    HW154580   8.124   3.939  12.599  0.3100 -1.0721 -0.2782
49325SOL    HW254581   8.076   3.817  12.674  0.5496 -0.3068  1.1574
49326SOL     OW54582   8.555   3.110   4.781 -0.7304 -0.1447  0.4382
49326SOL    HW154583   8.554   3.206   4.780 -1.1685 -0.0809  2.4019
49326SOL    HW254584   8.516   3.087   4.865 -0.7023 -2.0637 -0.0323
49327SOL     OW54585   6.138   9.786   7.962  0.2059 -0.1846 -0.0177
49327SOL    HW154586   6.101   9.766   8.048 -0.6202 -1.5507 -0.6611
49327SOL    HW254587   6.085   9.858   7.929 -0.0379 -0.2464  0.2358
49328SOL     OW54588   2.075   6.322   4.482 -0.5572 -0.0428 -0.3234
49328SOL    HW154589   1.996   6.321   4.535  0.1796  1.3391  0.8834
49328SOL    HW254590   2.134   6.382   4.528  0.8023 -0.2196 -1.7440
49329SOL     OW54591   4.658   6.553  10.074 -0.2612 -0.2335  0.5779
49329SOL    HW154592   4.703   6.539   9.991 -1.5829  1.2933 -0.4751
49329SOL    HW254593   4.687   6.640  10.103 -0.7155 -0.2432  1.0839
49330SOL     OW54594   9.912  10.143   0.199  0.4332 -0.3098  0.1813
49330SOL    HW154595   9.874  10.070   0.151 -1.7762  0.8228  0.0701
49330SOL    HW254596   9.969  10.186   0.135  0.8339 -1.2560 -0.1043
49331SOL     OW54597   1.536  10.767   2.442  0.5936 -0.3902  0.0118
49331SOL    HW154598   1.518  10.787   2.350 -1.8775  1.0491  0.7186
49331SOL    HW254599   1.632  10.757   2.446  0.6210 -2.4082 -3.0061
49332SOL     OW54600   4.785  10.009   0.054  0.3723  1.0496  0.0538
49332SOL    HW154601   4.856  10.029   0.115 -0.5407 -1.7278  2.2222
49332SOL    HW254602   4.705  10.026   0.104 -0.5785  2.9800 -1.9483
49333SOL     OW54603  10.377   2.366   3.432 -1.0435  0.3498 -0.7571
49333SOL    HW154604  10.360   2.276   3.459 -1.8555  0.4279 -0.9869
49333SOL    HW254605  10.376   2.364   3.337  0.0861  0.3987 -0.7845
49334SOL     OW54606   7.453  10.587   2.421 -0.1235 -0.0153  0.4820
49334SOL    HW154607   7.398  10.568   2.497  1.6566  1.0164  2.1383
49334SOL    HW254608   7.494  10.504   2.399  0.5541 -0.0171  1.6966
49335SOL     OW54609   0.151  11.675   9.636  0.2162 -0.1965 -0.4256
49335SOL    HW154610   0.176  11.586   9.660  0.4795 -0.2218 -0.8046
49335SOL    HW254611   0.232  11.726   9.642  0.2800 -0.1919 -1.2183
49336SOL     OW54612  11.332  10.549   9.541  0.0752  0.8445  0.3043
49336SOL    HW154613  11.407  10.528   9.597 -0.6282 -0.5865  0.7759
49336SOL    HW254614  11.364  10.538   9.452  0.9533  2.2077  0.4285
49337SOL     OW54615  12.363   9.632   3.166  0.3405  0.1268 -0.4009
49337SOL    HW154616  12.307   9.706   3.190 -1.0029 -0.6898 -0.9330
49337SOL    HW254617  12.433   9.633   3.232 -1.2410  0.1426  1.3427
49338SOL     OW54618   8.417   5.271  10.568 -0.2830  0.5920  0.0845
49338SOL    HW154619   8.330   5.279  10.530 -0.7681  2.2456  1.4354
49338SOL    HW254620   8.451   5.361  10.570  1.1310  0.0787  0.3439
49339SOL     OW54621   9.432   6.021   2.964  0.1992 -0.7137  0.6860
49339SOL    HW154622   9.426   6.065   2.879  1.3743 -1.4314  0.2006
49339SOL    HW254623   9.370   6.068   3.020 -0.4564 -0.0984 -0.5056
49340SOL     OW54624  11.686   4.115  11.511  0.5136 -0.1668 -0.2406
49340SOL    HW154625  11.605   4.105  11.462 -0.3786 -1.1509  1.3329
49340SOL    HW254626  11.691   4.036  11.565  2.9134 -0.4840 -0.8177
49341SOL     OW54627   9.924  11.472   8.396  0.2355  0.5050  0.7257
49341SOL    HW154628   9.965  11.487   8.311  2.0532  0.0919  1.4666
49341SOL    HW254629   9.891  11.558   8.422 -1.0439  0.4810 -0.7105
49342SOL     OW54630   8.589   8.472   8.700  0.1509  0.4581  0.4295
49342SOL    HW154631   8.584   8.459   8.795 -1.5583 -0.9709  0.1988
49342SOL    HW254632   8.527   8.408   8.664  2.5429 -0.8083 -1.8107
49343SOL     OW54633   9.661   4.555   7.814 -0.2305 -0.2076  0.9088
49343SOL    HW154634   9.612   4.636   7.830  1.0591  0.6366  0.7365
49343SOL    HW254635   9.698   4.566   7.726 -0.8968 -1.4502  0.4544
49344SOL     OW54636   0.329   3.276   2.253  0.1931  0.2052  0.0534
49344SOL    HW154637   0.345   3.365   2.222  2.7400 -0.6011 -1.2386
49344SOL    HW254638   0.285   3.232   2.180  1.4299 -0.2826 -0.4288
49345SOL     OW54639   5.221   5.750   3.981  0.2220  0.1938  0.2493
49345SOL    HW154640   5.237   5.750   4.075  1.1272 -2.3784  0.1788
49345SOL    HW254641   5.212   5.842   3.958  0.0060  0.8859  2.8270
49346SOL     OW54642   6.184   8.324   2.690  0.1908 -0.4343 -0.4715
49346SOL    HW154643   6.241   8.264   2.641 -0.6615 -1.2292 -0.5154
49346SOL    HW254644   6.162   8.393   2.627  1.2530 -0.0046 -0.3949
49347SOL     OW54645   8.883   8.585   9.004  0.3878 -0.3391  0.1463
49347SOL    HW154646   8.885   8.628   9.090  0.4110 -3.2918  1.7506
49347SOL    HW254647   8.975   8.570   8.983  0.3408 -1.9446  0.9389
49348SOL     OW54648   3.315  10.158   6.681  0.7176 -0.0514 -0.2459
49348SOL    HW154649   3.345  10.236   6.635 -2.0756  0.6155 -1.0976
49348SOL    HW254650   3.254  10.190   6.747  0.7773 -1.4090  0.5145
49349SOL     OW54651   4.712   4.382   7.741 -0.2286 -0.0964 -0.1793
49349SOL    HW154652   4.661   4.423   7.672 -2.0710 -0.2011  1.0697
49349SOL    HW254653   4.686   4.290   7.739  1.4604 -0.6038 -0.8310
49350SOL     OW54654   7.954   8.441  10.533 -0.2738 -0.6839 -0.0692
49350SOL    HW154655   7.953   8.396  10.618 -0.8882 -0.2338  0.1638
49350SOL    HW254656   7.922   8.529  10.552 -1.9112 -1.0449 -1.0244
49351SOL     OW54657   9.122   5.721   9.507  0.3268 -0.0957  0.4325
49351SOL    HW154658   9.215   5.732   9.524  0.1200  1.8121  0.5226
49351SOL    HW254659   9.106   5.770   9.426 -0.6827 -0.0111  0.6674
49352SOL     OW54660   2.333   7.876   5.297  0.1307  0.9175  0.1770
49352SOL    HW154661   2.266   7.899   5.233  0.1599  1.7780  0.4365
49352SOL    HW254662   2.412   7.920   5.264  0.6182 -0.2276 -0.2210
49353SOL     OW54663   3.182  12.147   4.865 -0.4957 -0.0479  0.3469
49353SOL    HW154664   3.098  12.140   4.819 -0.0822 -2.5505 -0.1612
49353SOL    HW254665   3.164  12.111   4.952  0.1560 -1.1653  0.0383
49354SOL     OW54666  11.957   8.177   7.177  0.5462 -0.1134  0.0554
49354SOL    HW154667  11.949   8.112   7.248  1.0614  0.9285  1.0968
49354SOL    HW254668  11.867   8.193   7.150  0.2062  0.5127  1.4591
49355SOL     OW54669   4.354  11.809   7.407  0.2263  0.2220  0.1638
49355SOL    HW154670   4.327  11.866   7.334  0.0607 -0.5727 -0.4071
49355SOL    HW254671   4.448  11.820   7.413  0.1513  0.8206  0.2827
49356SOL     OW54672   5.531   1.296   7.729  0.1106  0.4273 -0.0895
49356SOL    HW154673   5.623   1.303   7.754  0.3430  0.9479 -1.0778
49356SOL    HW254674   5.495   1.383   7.744 -0.3316  0.1304  0.6597
49357SOL     OW54675   0.274  12.136  12.149 -0.2195 -0.0870  0.6369
49357SOL    HW154676   0.252  12.155  12.058 -0.5827 -1.0596  0.5090
49357SOL    HW254677   0.357  12.088  12.144 -0.4487 -0.5009  0.7877
49358SOL     OW54678   4.482   1.751   4.498  0.8099 -0.0996  0.4901
49358SOL    HW154679   4.413   1.691   4.524 -3.6901  4.0517 -0.3887
49358SOL    HW254680   4.530   1.770   4.579 -0.3761 -1.6247  1.5911
49359SOL     OW54681   8.814  11.922   0.547 -0.2411  0.3224  0.1880
49359SOL    HW154682   8.728  11.959   0.568 -1.4137 -1.7590 -0.6400
49359SOL    HW254683   8.816  11.917   0.452  0.8684  0.4833  0.1888
49360SOL     OW54684  11.969   3.204   9.012 -0.4910 -0.3846 -0.0497
49360SOL    HW154685  11.907   3.271   8.984  1.0790  1.5617  0.9120
49360SOL    HW254686  12.053   3.249   9.017  0.8729 -2.7409 -0.5244
49361SOL     OW54687   5.947  10.288   2.398  0.2087 -0.7901  0.8725
49361SOL    HW154688   5.916  10.362   2.347  1.6936  0.1249  1.2229
49361SOL    HW254689   5.876  10.269   2.459 -1.0851 -1.1168 -0.6871
49362SOL     OW54690   5.041   4.886   6.589 -0.1531  0.8232 -0.1261
49362SOL    HW154691   5.032   4.925   6.676 -1.0646  1.1149 -0.3438
49362SOL    HW254692   4.960   4.908   6.544  0.0298  0.0995 -0.8300
49363SOL     OW54693   8.283  11.211   4.020 -0.1358 -0.4078 -0.2544
49363SOL    HW154694   8.292  11.236   3.928  1.2850 -0.5436 -0.1850
49363SOL    HW254695   8.196  11.242   4.045 -0.3970 -0.0275 -1.5340
49364SOL     OW54696   3.059   0.537   8.756  0.1564 -1.0247 -0.1704
49364SOL    HW154697   3.009   0.457   8.737 -0.1939 -1.3745  1.9336
49364SOL    HW254698   3.138   0.529   8.703 -1.3164 -1.1570 -2.4763
49365SOL     OW54699   4.258   8.765   6.866  0.1949 -0.3895 -0.1268
49365SOL    HW154700   4.221   8.679   6.888  0.5050 -0.3876  0.4327
49365SOL    HW254701   4.315   8.785   6.940  0.2886  0.2060 -0.3597
49366SOL     OW54702   3.796  11.733   2.834  1.1450  0.6079 -0.0153
49366SOL    HW154703   3.797  11.829   2.838  1.5020  0.5995  0.1195
49366SOL    HW254704   3.860  11.705   2.899 -0.6833  0.2246  1.7365
49367SOL     OW54705   5.210   5.042   0.518 -0.2501 -0.0687 -0.3644
49367SOL    HW154706   5.196   4.967   0.460  0.9777  0.0496 -0.8362
49367SOL    HW254707   5.123   5.064   0.550 -0.6095 -1.8063 -0.0727
49368SOL     OW54708  11.793  10.585   0.576 -0.8774 -0.1730 -0.4797
49368SOL    HW154709  11.847  10.596   0.654 -1.2247 -0.3246 -0.2145
49368SOL    HW254710  11.842  10.628   0.507 -1.6186  2.0694  0.2768
49369SOL     OW54711   8.422  11.680   0.156  0.3189  0.2758  0.1301
49369SOL    HW154712   8.404  11.709   0.067  1.3494  1.3010  0.2297
49369SOL    HW254713   8.386  11.749   0.212  1.9628  0.9524  0.4048
49370SOL     OW54714  11.740   1.928  12.698 -0.2570 -0.1903 -0.1930
49370SOL    HW154715  11.780   1.982  12.630 -2.8059  0.6686 -1.1280
49370SOL    HW254716  11.778   1.960  12.780 -0.3766  1.8293 -0.8705
49371SOL     OW54717   7.339   2.015  10.697 -0.1003 -0.7055 -0.2091
49371SOL    HW154718   7.425   1.984  10.727  0.9805 -0.0370 -2.4150
49371SOL    HW254719   7.276   1.969  10.753  1.6694 -1.3685  1.3368
49372SOL     OW54720   3.283   9.973   3.289  0.0675 -0.0635  0.0608
49372SOL    HW154721   3.250  10.058   3.261 -0.1470 -0.2136 -0.1549
49372SOL    HW254722   3.334   9.942   3.215 -2.1090 -1.3387 -1.0276
49373SOL     OW54723  12.674   1.339   2.188 -0.6557  0.2264  0.1779
49373SOL    HW154724  12.682   1.330   2.093  0.3070  2.5760 -0.0308
49373SOL    HW254725  12.639   1.427   2.201 -0.6875 -0.0113  2.0227
49374SOL     OW54726   3.403  11.955  10.720 -0.1707 -0.5763  0.6168
49374SOL    HW154727   3.440  12.036  10.752  0.8269 -0.7324 -0.1035
49374SOL    HW254728   3.409  11.961  10.625  1.4000 -2.1400  0.5725
49375SOL     OW54729  12.169  10.125   9.466 -0.3608 -0.2445  0.2665
49375SOL    HW154730  12.178  10.166   9.552  0.8749 -1.9431  1.0062
49375SOL    HW254731  12.259  10.108   9.439 -0.7690 -0.2861 -1.1028
49376SOL     OW54732   2.599   6.524   6.147 -0.3558 -0.4639 -0.7152
49376SOL    HW154733   2.608   6.572   6.229 -2.6318 -1.9961  0.5490
49376SOL    HW254734   2.509   6.492   6.147  0.0812 -1.9908 -3.0060
49377SOL     OW54735   1.179   1.096   4.626  0.3602 -0.0424 -0.1119
49377SOL    HW154736   1.219   1.174   4.665 -2.4171  1.2515  0.3642
49377SOL    HW254737   1.157   1.122   4.537 -0.8642 -0.1305  0.1444
49378SOL     OW54738   9.031   6.954   7.065 -0.0137  0.0597 -0.4440
49378SOL    HW154739   9.042   6.941   6.970 -0.6169  1.6623 -0.7590
49378SOL    HW254740   8.946   6.917   7.084 -1.2288  2.3101 -1.1302
49379SOL     OW54741   3.876   6.276  11.953  0.0705 -0.5547  0.3662
49379SOL    HW154742   3.944   6.292  11.887 -1.6526  0.6819 -1.2249
49379SOL    HW254743   3.869   6.358  12.002 -0.4458 -0.5732  0.3308
49380SOL     OW54744   5.911   6.042   6.706  0.0119 -0.2812 -0.2870
49380SOL    HW154745   5.992   6.070   6.749 -1.4341  3.1516  0.4791
49380SOL    HW254746   5.855   6.010   6.777 -0.2825 -0.1301 -0.4516
49381SOL     OW54747  11.752   5.262  10.336  0.2382 -0.5816  0.0903
49381SOL    HW154748  11.794   5.274  10.420  0.0462 -1.4708  0.3188
49381SOL    HW254749  11.743   5.351  10.301  1.7626 -0.3253  0.2794
49382SOL     OW54750   8.795   6.900   3.053 -0.4090  0.1523  0.4354
49382SOL    HW154751   8.822   6.816   3.090 -1.6185 -0.5707 -0.2711
49382SOL    HW254752   8.705   6.886   3.024 -0.2268  1.3255 -0.8037
49383SOL     OW54753  10.908   5.253   0.971 -0.2083  1.0197  0.0693
49383SOL    HW154754  10.993   5.294   0.954 -0.2218  1.7292  1.5771
49383SOL    HW254755  10.930   5.171   1.016 -0.1934 -0.6626 -2.7362
49384SOL     OW54756   1.805  12.314   3.641 -0.4627  0.3937  0.3663
49384SOL    HW154757   1.886  12.344   3.600  0.3802 -1.4278  0.5638
49384SOL    HW254758   1.833  12.274   3.723 -1.7299  0.9187  1.0750
49385SOL     OW54759   4.746   6.275   6.646  0.2451 -0.2255 -0.2307
49385SOL    HW154760   4.800   6.207   6.687  0.6738  0.6041  0.6464
49385SOL    HW254761   4.801   6.309   6.575  1.1512  0.9333  0.9457
49386SOL     OW54762   5.818   5.008   8.459  0.1507 -0.3958 -0.3857
49386SOL    HW154763   5.803   4.914   8.474 -1.4531 -0.4209 -1.7299
49386SOL    HW254764   5.767   5.027   8.380  1.6824  1.2957 -1.0270
49387SOL     OW54765   1.211   4.869   0.108  0.3108  0.5751  0.0359
49387SOL    HW154766   1.118   4.851   0.097  0.4861 -0.7653  0.4924
49387SOL    HW254767   1.222   4.959   0.078 -1.0089  0.5344 -0.6534
49388SOL     OW54768  10.304  12.685   8.730 -0.4958  0.3272 -0.2009
49388SOL    HW154769  10.343  12.606   8.768  0.6296 -0.4491 -2.7463
49388SOL    HW254770  10.213  12.660   8.712 -0.5716  0.1387  0.4272
49389SOL     OW54771   6.256   0.311   8.825 -0.2129 -0.3844  0.5054
49389SOL    HW154772   6.310   0.344   8.897  1.0782 -0.9907 -0.1533
49389SOL    HW254773   6.254   0.216   8.839 -0.2733 -0.4623 -0.0280
49390SOL     OW54774  11.005   0.087  10.583 -0.4107  0.1331 -0.4400
49390SOL    HW154775  11.056   0.124  10.510  1.0003  0.1214  0.4875
49390SOL    HW254776  11.010  -0.007  10.570  0.7565  0.0767  0.2020
49391SOL     OW54777  11.606   9.108   3.872 -0.0819 -0.0755  0.6917
49391SOL    HW154778  11.535   9.045   3.888  0.3889 -1.1751 -1.2034
49391SOL    HW254779  11.648   9.077   3.791  2.3590  0.7119  1.5552
49392SOL     OW54780  11.013   7.259   4.846 -0.3844 -0.3424  0.4145
49392SOL    HW154781  10.965   7.304   4.915 -0.3917 -0.1424  0.2809
49392SOL    HW254782  11.036   7.328   4.784 -1.6755 -0.7348 -0.5426
49393SOL     OW54783   0.889   6.776   6.345  0.5855  0.7697  0.4871
49393SOL    HW154784   0.908   6.694   6.391 -0.9685 -1.4173 -2.4775
49393SOL    HW254785   0.801   6.799   6.374 -0.2605 -0.4288 -0.9858
49394SOL     OW54786   8.385  11.957  12.408 -0.4200 -0.5327 -0.2334
49394SOL    HW154787   8.396  11.896  12.336 -1.9021  1.6437 -2.4870
49394SOL    HW254788   8.312  12.013  12.381  0.4422  1.8498  1.9216
49395SOL     OW54789   1.591   7.958   3.694 -0.3466  0.0229 -0.0475
49395SOL    HW154790   1.562   7.986   3.607 -0.2724  0.4912  0.0757
49395SOL    HW254791   1.611   8.040   3.740  0.1614 -0.2447  0.2195
49396SOL     OW54792   3.525  12.503   5.032 -0.2335 -0.0962 -0.0083
49396SOL    HW154793   3.436  12.497   5.067  0.0477 -0.3372  0.6850
49396SOL    HW254794   3.577  12.538   5.105  0.7709 -2.6125  0.5779
49397SOL     OW54795   5.443   1.592   7.756 -0.1039  0.4620  0.5716
49397SOL    HW154796   5.530   1.633   7.759  0.4375 -0.6124  0.4868
49397SOL    HW254797   5.414   1.604   7.666  1.1567 -1.4375 -0.1620
49398SOL     OW54798   7.710   6.281   9.524  0.3060  0.3300 -0.2134
49398SOL    HW154799   7.729   6.292   9.617 -0.4402  0.6662 -0.0901
49398SOL    HW254800   7.686   6.369   9.494  2.3837  0.6409 -1.1793
49399SOL     OW54801   9.912  10.216   9.935 -0.1311 -0.1769 -0.1198
49399SOL    HW154802   9.880  10.154   9.868 -0.2557 -0.7903  0.4931
49399SOL    HW254803   9.995  10.178   9.964  2.0065  2.0961 -2.6741
49400SOL     OW54804   6.186  10.946   9.291  0.0106  0.0661 -0.0678
49400SOL    HW154805   6.200  10.941   9.197 -0.2334 -0.3544 -0.0873
49400SOL    HW254806   6.252  10.887   9.328  0.5438  0.7390  0.0725
49401SOL     OW54807  11.121   7.887  12.719  0.1779  0.4361 -0.9470
49401SOL    HW154808  11.127   7.797  12.753  1.0796  0.7055 -0.3402
49401SOL    HW254809  11.128   7.877  12.624 -1.7650 -0.2827 -1.0624
49402SOL     OW54810   0.500   5.258   1.294 -0.1747 -0.1217  0.3419
49402SOL    HW154811   0.452   5.337   1.320  0.9870  0.4487  0.8531
49402SOL    HW254812   0.548   5.285   1.216  2.6532  0.7271  2.2065
49403SOL     OW54813   8.275   1.180   6.206 -0.1890  0.8522 -0.5885
49403SOL    HW154814   8.203   1.187   6.269  0.6836 -0.4673  0.5945
49403SOL    HW254815   8.306   1.270   6.195 -0.5898  1.1435  0.5924
49404SOL     OW54816   7.261  10.701   0.476 -0.8040 -0.3273  0.6662
49404SOL    HW154817   7.334  10.698   0.415  0.5715  1.0825  2.1565
49404SOL    HW254818   7.205  10.627   0.450  1.9979 -2.5967  0.5763
49405SOL     OW54819   4.131   9.814   2.848  0.1864  0.4453 -0.0210
49405SOL    HW154820   4.052   9.840   2.896  0.6263  0.6725  0.5917
49405SOL    HW254821   4.102   9.741   2.793  0.1717 -1.4020  2.2781
49406SOL     OW54822   6.508  10.333   6.598  0.5119 -0.2473  0.0040
49406SOL    HW154823   6.488  10.356   6.507 -0.7458 -2.1290 -0.2395
49406SOL    HW254824   6.573  10.263   6.591  0.3973 -0.4120  0.5527
49407SOL     OW54825   8.376   0.546  11.572 -0.3956 -0.2359 -0.5093
49407SOL    HW154826   8.361   0.633  11.534  0.5098 -0.2615 -0.9551
49407SOL    HW254827   8.463   0.552  11.612 -1.0746 -0.4068  1.0363
49408SOL     OW54828   1.782   6.036   2.687  0.6438 -0.3532  0.4285
49408SOL    HW154829   1.799   5.953   2.643  2.8648  0.4471 -0.3685
49408SOL    HW254830   1.822   6.102   2.631  0.3608  1.1050  1.8473
49409SOL     OW54831  10.573  12.221   2.816  0.2839 -0.2112  0.1863
49409SOL    HW154832  10.505  12.183   2.761  0.1213 -2.0691  1.5688
49409SOL    HW254833  10.610  12.291   2.763  0.6989 -2.3796 -2.6552
49410SOL     OW54834   2.707   1.444   8.180  0.3005  0.3146  0.0855
49410SOL    HW154835   2.633   1.392   8.210 -0.4401  1.1888 -0.1830
49410SOL    HW254836   2.694   1.454   8.086  1.0127  0.0950 -0.0459
49411SOL     OW54837   5.982  12.223   9.312 -0.0317 -0.6609 -0.1183
49411SOL    HW154838   5.953  12.152   9.370 -0.1357  0.3491  1.1158
49411SOL    HW254839   6.022  12.287   9.371  0.6065  0.0428 -1.2769
49412SOL     OW54840   3.458  10.871   8.400  0.3800 -0.4079 -0.3695
49412SOL    HW154841   3.426  10.911   8.319 -0.9866 -0.1275  0.2771
49412SOL    HW254842   3.516  10.936   8.438  1.5038 -0.7781 -1.3934
49413SOL     OW54843   0.750   9.973   3.394  0.1837 -0.8588 -0.9448
49413SOL    HW154844   0.827   9.919   3.376  0.3433 -0.9178 -0.1355
49413SOL    HW254845   0.701   9.925   3.460  1.0032  0.5447  0.7845
49414SOL     OW54846  10.775   9.812  11.424  0.5500 -0.5866  0.2912
49414SOL    HW154847  10.715   9.837  11.494  0.6295  1.9246 -0.4245
49414SOL    HW254848  10.729   9.743  11.376 -1.3734  0.5578  0.3690
49415SOL     OW54849   4.181   2.605   8.777  0.1070 -0.2359 -0.2149
49415SOL    HW154850   4.218   2.688   8.747  0.2249 -0.2753 -0.1805
49415SOL    HW254851   4.148   2.563   8.698 -1.2128  0.4606 -0.0685
49416SOL     OW54852   4.517   0.987   8.327  0.6443 -0.1052 -0.2113
49416SOL    HW154853   4.604   0.980   8.368  0.1202  0.6266  1.0954
49416SOL    HW254854   4.527   0.946   8.242  3.0595  2.4257 -1.3121
49417SOL     OW54855  11.142  10.071   3.483 -0.1946 -0.4782 -0.4908
49417SOL    HW154856  11.172   9.992   3.438  0.2441  0.1012 -1.2377
49417SOL    HW254857  11.054  10.049   3.513  0.2725 -1.5798  0.1569
49418SOL     OW54858   2.727   6.532   4.718  0.6394  0.5293  0.4368
49418SOL    HW154859   2.709   6.555   4.809  2.4932 -0.9004  1.2429
49418SOL    HW254860   2.804   6.584   4.695  0.8901  0.0115  0.0841
49419SOL     OW54861   9.613   8.896   7.554  0.2249 -0.1647 -0.6067
49419SOL    HW154862   9.587   8.945   7.632 -0.5309  0.5847 -1.3110
49419SOL    HW254863   9.602   8.804   7.578 -1.0548  0.0824 -0.1888
49420SOL     OW54864   7.831   8.003   9.021 -0.2245  0.0368  0.8393
49420SOL    HW154865   7.756   8.055   9.053 -0.0433 -0.6851  2.5453
49420SOL    HW254866   7.791   7.922   8.989 -0.4469  0.9211 -1.2702
49421SOL     OW54867   1.125   9.136  12.437 -0.1191  0.1339 -0.5186
49421SOL    HW154868   1.062   9.140  12.509  0.2719 -0.2552 -0.1511
49421SOL    HW254869   1.076   9.096  12.365  0.0194 -1.2740  0.1261
49422SOL     OW54870   5.852  12.159   1.957  0.4808  0.1392  0.3178
49422SOL    HW154871   5.889  12.166   2.046 -1.7115  0.2036  1.2716
49422SOL    HW254872   5.778  12.220   1.957 -0.8113 -1.3645 -0.8943
49423SOL     OW54873   5.158  10.009   0.650  0.1514  0.1565 -0.2656
49423SOL    HW154874   5.166   9.937   0.587 -0.6953  0.6454 -0.9436
49423SOL    HW254875   5.115   9.969   0.726  1.9091 -0.6420  0.3964
49424SOL     OW54876   0.008   7.538   1.106  0.1973 -0.0269  0.2739
49424SOL    HW154877   0.037   7.623   1.072 -0.1069 -0.6041 -1.5398
49424SOL    HW254878  -0.069   7.558   1.158 -0.6268  0.7002 -1.1685
49425SOL     OW54879   6.173   5.523   0.901 -0.5837  0.2313 -0.1089
49425SOL    HW154880   6.102   5.506   0.962 -0.8684  0.6141 -0.3252
49425SOL    HW254881   6.156   5.465   0.827 -0.4953  0.0993 -0.0263
49426SOL     OW54882   1.519   9.236   2.790  0.2501  0.0943  0.5253
49426SOL    HW154883   1.597   9.291   2.784  1.1857 -1.2930 -0.5478
49426SOL    HW254884   1.523   9.198   2.878 -0.0016  1.1038  0.9940
49427SOL     OW54885   0.520   6.897   3.206  0.2983  0.1272 -0.1238
49427SOL    HW154886   0.475   6.895   3.121  0.7454 -0.0795 -0.3627
49427SOL    HW254887   0.612   6.879   3.184  0.0839 -2.2621  0.6454
49428SOL     OW54888   6.168   3.656   3.306  0.0513 -0.7363 -0.2150
49428SOL    HW154889   6.095   3.718   3.305  0.9701  0.4936  2.0408
49428SOL    HW254890   6.244   3.710   3.285  0.5626 -1.6334 -0.7042
49429SOL     OW54891   1.238   4.386  12.543 -0.1675 -0.0749  0.3119
49429SOL    HW154892   1.158   4.374  12.492 -0.2071  1.3620 -0.0062
49429SOL    HW254893   1.307   4.398  12.477 -0.6312  4.6524  0.3687
49430SOL     OW54894   6.883   8.753   7.936 -0.4227  0.0622 -0.1750
49430SOL    HW154895   6.826   8.753   7.860 -2.1178  0.3924  1.0414
49430SOL    HW254896   6.824   8.739   8.010  0.6687  2.8746  1.3853
49431SOL     OW54897   3.496   3.262   8.130 -0.1449 -0.6279  0.1268
49431SOL    HW154898   3.578   3.224   8.163 -0.3846 -1.1852  0.0793
49431SOL    HW254899   3.430   3.233   8.192 -0.3699 -0.4710 -0.0390
49432SOL     OW54900   8.396  12.620   1.606 -0.6014 -0.0555 -0.3470
49432SOL    HW154901   8.380  12.697   1.661  2.0645 -0.0427  0.5968
49432SOL    HW254902   8.415  12.656   1.519 -1.1936  0.2051 -0.3709
49433SOL     OW54903  12.608  11.819   6.051 -0.0787 -0.0628 -0.0219
49433SOL    HW154904  12.575  11.781   6.132  1.6918 -0.0663  0.7494
49433SOL    HW254905  12.694  11.854   6.074  0.4739 -0.0533 -1.8938
49434SOL     OW54906   2.790   4.978   4.322 -0.9298  0.0586  0.0554
49434SOL    HW154907   2.719   4.990   4.386  0.2907  0.8192  1.3188
49434SOL    HW254908   2.848   5.053   4.335  1.4614 -1.7915  0.8928
49435SOL     OW54909   7.979   8.351   9.741  0.0249 -0.1496  0.4370
49435SOL    HW154910   8.032   8.295   9.799  1.8317 -0.6509 -1.5581
49435SOL    HW254911   8.009   8.329   9.653 -0.7429  2.4646 -0.5643
49436SOL     OW54912   0.520  11.898   8.026  0.1455 -0.1638  0.3785
49436SOL    HW154913   0.590  11.870   7.967 -0.0915 -2.0183  0.8892
49436SOL    HW254914   0.445  11.845   8.000 -0.3542  0.0077  1.4197
49437SOL     OW54915   0.329   3.081   4.941 -0.4417 -0.2353  0.8059
49437SOL    HW154916   0.367   3.123   4.864  1.3132 -1.4931  0.9196
49437SOL    HW254917   0.315   3.152   5.004  0.8383  0.4054  0.3821
49438SOL     OW54918   2.808   3.132  12.043 -0.6937  0.3678  0.1562
49438SOL    HW154919   2.810   3.214  12.092  2.1583 -0.5392  1.7432
49438SOL    HW254920   2.848   3.154  11.959 -0.2241  0.6914  0.4583
49439SOL     OW54921   9.914   4.943   7.748  0.7346 -0.1675  0.2048
49439SOL    HW154922   9.911   5.009   7.678 -0.0904  1.9731  2.1359
49439SOL    HW254923   9.981   4.880   7.719  1.7368  1.6220 -1.6366
49440SOL     OW54924   1.922   2.991   7.310  0.2939  0.8178  0.5579
49440SOL    HW154925   1.835   3.024   7.286  0.7101  1.6327  0.1445
49440SOL    HW254926   1.980   3.026   7.243  1.0287  0.7347  1.1429
49441SOL     OW54927   2.856   5.630  11.516 -0.0473 -0.3450 -0.1061
49441SOL    HW154928   2.869   5.722  11.495 -1.1328  0.4363  2.3235
49441SOL    HW254929   2.774   5.627  11.564  0.1868 -2.5252  0.2856
49442SOL     OW54930   5.498  12.272   6.914 -0.1590 -0.6209 -0.2265
49442SOL    HW154931   5.507  12.353   6.865  3.5455  0.8672  2.4850
49442SOL    HW254932   5.553  12.209   6.868 -1.1736 -0.9494 -1.0231
49443SOL     OW54933   3.153   1.347   3.851  0.1523  0.0920  0.8862
49443SOL    HW154934   3.165   1.363   3.945 -0.8110 -2.1805  1.4591
49443SOL    HW254935   3.242   1.348   3.815  0.7482 -1.1398  2.2211
49444SOL     OW54936  12.779   7.114   7.869  0.4276  0.1371 -0.4415
49444SOL    HW154937  12.781   7.027   7.829  0.4993  0.1401 -0.4446
49444SOL    HW254938  12.695   7.118   7.914  0.4019  0.0858 -0.4843
49445SOL     OW54939   1.356  10.624   4.463  0.1141 -0.2946  0.0961
49445SOL    HW154940   1.374  10.532   4.486  0.4796 -0.3088 -0.2374
49445SOL    HW254941   1.420  10.644   4.394  2.7223  1.4012  2.7739
49446SOL     OW54942   8.537   8.199   7.749  0.7092 -0.0293 -0.1854
49446SOL    HW154943   8.466   8.194   7.812  0.7074  0.1816 -0.1719
49446SOL    HW254944   8.590   8.121   7.767  1.6754  0.9136  1.2421
49447SOL     OW54945  11.886   9.471   5.640 -0.0567  0.0233 -0.3544
49447SOL    HW154946  11.974   9.455   5.606  0.5578  0.1807  1.0724
49447SOL    HW254947  11.897   9.545   5.700 -1.0189 -0.4157  0.3849
49448SOL     OW54948   1.318   8.958   1.713 -0.4069  0.1692 -0.0871
49448SOL    HW154949   1.299   8.937   1.805 -0.8312 -0.4025 -0.3014
49448SOL    HW254950   1.350   9.048   1.716 -2.3574  0.9080  0.4031
49449SOL     OW54951   6.386   1.315   0.921 -0.1053 -0.0862 -0.2487
49449SOL    HW154952   6.317   1.380   0.906 -1.3811 -1.0724  1.0015
49449SOL    HW254953   6.452   1.361   0.973  0.2891  0.9102 -1.5648
49450SOL     OW54954   8.963   0.775   3.816 -0.0474  0.3255 -0.2269
49450SOL    HW154955   9.008   0.692   3.836 -0.4919  0.2785  0.6048
49450SOL    HW254956   8.870   0.756   3.828 -0.3053  0.4866 -1.7283
49451SOL     OW54957   1.005   2.843   7.824  0.2261 -0.1975 -0.7208
49451SOL    HW154958   1.076   2.907   7.831 -0.4379  0.6783 -1.6823
49451SOL    HW254959   1.046   2.759   7.846  1.4684  0.3427 -0.8939
49452SOL     OW54960   9.452   7.474   5.588 -0.4868 -0.0084  0.0595
49452SOL    HW154961   9.486   7.490   5.500  1.1392  0.1914  0.6855
49452SOL    HW254962   9.387   7.404   5.576  1.8772 -2.1915 -0.9412
49453SOL     OW54963   3.125   2.658   8.582 -0.0999  0.9066  0.2522
49453SOL    HW154964   3.142   2.703   8.500  0.5490  0.7636  0.3046
49453SOL    HW254965   3.205   2.668   8.632  0.8273 -1.9507 -0.4681
49454SOL     OW54966   8.953   0.657   7.928 -0.0303  0.4961  0.6923
49454SOL    HW154967   8.882   0.612   7.883  1.5027 -0.5256 -0.8468
49454SOL    HW254968   8.945   0.631   8.019  1.1009 -3.5079 -0.1727
49455SOL     OW54969   8.230   9.659  12.466  0.3273 -0.1911 -0.0473
49455SOL    HW154970   8.288   9.735  12.455 -1.0291  1.2155  1.8047
49455SOL    HW254971   8.156   9.677  12.407  0.0750 -0.1550  0.2815
49456SOL     OW54972   1.994   5.027   3.696 -0.5508 -0.4504 -0.4273
49456SOL    HW154973   2.052   4.952   3.682  0.4461 -0.3582  2.5051
49456SOL    HW254974   2.051   5.104   3.684 -0.9868 -0.2169 -1.0744
49457SOL     OW54975   5.308   8.374   8.144 -0.7304  0.1273 -0.6775
49457SOL    HW154976   5.327   8.281   8.139  1.1652  0.3867  0.6631
49457SOL    HW254977   5.388   8.417   8.115 -0.5401  1.3152  1.4245
49458SOL     OW54978   3.202   8.651   0.445 -0.5447  0.6034  0.2715
49458SOL    HW154979   3.221   8.675   0.354  1.5082 -0.6520  0.2877
49458SOL    HW254980   3.286   8.662   0.490 -0.1445 -3.4758  0.8725
49459SOL     OW54981   0.105   9.198   5.278 -0.5968 -0.6602  0.1087
49459SOL    HW154982   0.119   9.194   5.184 -0.8174  2.3595 -0.1392
49459SOL    HW254983   0.057   9.118   5.298 -0.5122 -1.4003 -2.3030
49460SOL     OW54984  11.925  10.520   3.868  0.3480 -0.2724  0.0120
49460SOL    HW154985  11.983  10.465   3.816 -0.5272 -2.5125  1.2165
49460SOL    HW254986  11.971  10.530   3.952 -0.2568 -0.6945  0.4058
49461SOL     OW54987   1.297   3.444  12.336 -0.2662  0.8090 -0.1017
49461SOL    HW154988   1.270   3.441  12.428 -0.1980  0.9441 -0.0764
49461SOL    HW254989   1.228   3.398  12.289 -1.1523  2.1544 -0.1868
49462SOL     OW54990  10.366   2.184   7.799  0.1541 -0.6368 -0.1528
49462SOL    HW154991  10.374   2.278   7.784 -2.2590 -0.2612  0.4723
49462SOL    HW254992  10.325   2.150   7.719 -0.3309 -0.8991  0.2009
49463SOL     OW54993   4.073  10.168   2.739  0.4627  0.1942  0.4115
49463SOL    HW154994   4.100  10.252   2.702  1.3161  0.1189  0.8486
49463SOL    HW254995   4.130  10.104   2.697  0.4601 -0.0574  0.7869
49464SOL     OW54996  12.452   2.730   5.481  0.7731  0.2212 -0.2555
49464SOL    HW154997  12.538   2.689   5.496  0.2657 -1.4203 -1.5796
49464SOL    HW254998  12.393   2.684   5.540  0.6561  0.8558  0.1317
49465SOL     OW54999   0.859   6.188   5.986  0.3114  0.1008  0.0024
49465SOL    HW155000   0.937   6.215   5.938 -0.1716 -0.0870 -0.9061
49465SOL    HW255001   0.794   6.256   5.967  0.1962  0.1691  0.6170
49466SOL     OW55002   9.380   7.365   1.062  0.0224  0.5616 -0.2503
49466SOL    HW155003   9.384   7.447   1.111  0.1371  0.4614 -0.0879
49466SOL    HW255004   9.471   7.348   1.037  0.1973 -0.1600  0.8031
49467SOL     OW55005   3.801   4.486   7.306  0.4460  0.2550  0.0821
49467SOL    HW155006   3.840   4.532   7.231  0.4445  0.3863  0.1608
49467SOL    HW255007   3.844   4.524   7.382 -2.8757  3.6902  0.5342
49468SOL     OW55008   6.078   7.874   7.447  0.1294  0.5929 -0.3198
49468SOL    HW155009   6.167   7.902   7.428  0.6289 -1.1109 -0.7227
49468SOL    HW255010   6.028   7.894   7.367 -0.3539  3.3176  0.5912
49469SOL     OW55011   7.986  10.609  10.482 -0.2084  0.0547 -0.3157
49469SOL    HW155012   8.050  10.646  10.543  0.2391  1.7200 -1.7090
49469SOL    HW255013   8.016  10.519  10.467  1.3176  0.5267 -0.2407
49470SOL     OW55014   6.408  11.519   8.180 -0.0496  0.3927 -0.2742
49470SOL    HW155015   6.499  11.513   8.210  0.0784 -1.3315 -0.8874
49470SOL    HW255016   6.360  11.459   8.237 -0.5154  0.1307 -0.9288
49471SOL     OW55017   0.569  10.438   9.554  0.2691  0.1236 -0.0399
49471SOL    HW155018   0.601  10.515   9.601  1.6429  0.4470 -1.4146
49471SOL    HW255019   0.501  10.401   9.611 -0.7420  2.5769  0.4550
49472SOL     OW55020   8.423   7.920   3.610  0.0893 -0.1694 -0.1537
49472SOL    HW155021   8.450   7.946   3.698 -0.0597  0.0583 -0.1736
49472SOL    HW255022   8.497   7.872   3.575  1.1352  1.8400 -0.8296
49473SOL     OW55023   8.813   8.704   6.276 -0.1512  0.0258 -0.2694
49473SOL    HW155024   8.780   8.783   6.317 -0.9374  0.7016 -2.0883
49473SOL    HW255025   8.869   8.663   6.342  0.8222  2.4386  0.4773
49474SOL     OW55026   7.982   1.666  11.491 -0.2899 -0.1983 -0.0580
49474SOL    HW155027   8.015   1.673  11.580 -0.1151  0.6232 -0.1779
49474SOL    HW255028   7.894   1.629  11.500 -0.3743  0.1279  0.4729
49475SOL     OW55029   0.521   4.374   6.316  0.3170  0.0774  0.1679
49475SOL    HW155030   0.455   4.385   6.248 -1.5628 -0.7985  1.7116
49475SOL    HW255031   0.576   4.302   6.286 -0.5603 -0.3733 -0.3747
49476SOL     OW55032   6.428   1.248   7.567  0.1673  0.3910 -0.3094
49476SOL    HW155033   6.491   1.206   7.627  0.0484  1.0410  0.2815
49476SOL    HW255034   6.481   1.312   7.519 -0.0378  0.9621  0.2120
49477SOL     OW55035   4.864  12.568  10.297  0.2504 -0.5629 -0.2102
49477SOL    HW155036   4.803  12.623  10.248  1.1766 -0.8299 -1.7223
49477SOL    HW255037   4.911  12.630  10.354 -0.0174 -0.0743 -0.5152
49478SOL     OW55038   2.168   4.678   0.186  0.0700  0.0465  0.5181
49478SOL    HW155039   2.094   4.682   0.246 -0.4913 -0.1387 -0.1543
49478SOL    HW255040   2.135   4.629   0.110  0.6590  0.5998 -0.1019
49479SOL     OW55041   7.659   0.875   6.459 -0.6967 -0.3892  0.4036
49479SOL    HW155042   7.703   0.830   6.386 -0.1728  1.2198 -0.3195
49479SOL    HW255043   7.568   0.845   6.454 -0.7622 -0.0234 -1.1840
49480SOL     OW55044   3.711  11.910   6.875 -0.1190  0.7349  0.1969
49480SOL    HW155045   3.642  11.974   6.891  0.3172  0.8907  1.6433
49480SOL    HW255046   3.708  11.853   6.952 -1.0369 -1.5242 -1.4123
49481SOL     OW55047   4.758   7.958   5.489  0.2924 -0.0699 -0.0412
49481SOL    HW155048   4.828   8.021   5.473 -1.4192  2.0961  0.5941
49481SOL    HW255049   4.713   7.951   5.405 -0.8935  1.3610  0.4466
49482SOL     OW55050  12.715   7.741   5.708 -0.1453  0.0196 -0.0258
49482SOL    HW155051  12.702   7.754   5.802 -1.1690 -0.1796 -0.1326
49482SOL    HW255052  12.765   7.660   5.701  0.4317  0.3309  0.3573
49483SOL     OW55053   7.638   8.540   9.962 -0.1617  0.4525 -0.6385
49483SOL    HW155054   7.659   8.621  10.008 -1.0528  0.0724  0.4776
49483SOL    HW255055   7.689   8.544   9.881  1.8376  0.9401  0.5669
49484SOL     OW55056  11.095  11.932   1.777  0.2347  0.3145 -0.4198
49484SOL    HW155057  11.036  11.865   1.743 -0.7791  0.5690  0.7919
49484SOL    HW255058  11.123  11.899   1.862  1.2003  0.5871 -0.6210
49485SOL     OW55059   1.849  11.539   3.573 -0.0658 -0.1305  0.0370
49485SOL    HW155060   1.827  11.572   3.486  0.2653 -2.9346 -1.2191
49485SOL    HW255061   1.773  11.561   3.628 -0.0745  2.0986 -0.7758
49486SOL     OW55062   9.787   2.675   8.438  0.5082  0.5906  0.3342
49486SOL    HW155063   9.812   2.623   8.515 -0.0338 -1.3592 -0.7497
49486SOL    HW255064   9.819   2.626   8.363 -1.0759  1.1909 -0.8101
49487SOL     OW55065   5.634  11.202   6.289 -0.7629  0.5734  0.0759
49487SOL    HW155066   5.636  11.220   6.383 -0.3223  1.0294 -0.0183
49487SOL    HW255067   5.542  11.211   6.265 -1.1475 -1.1763  0.7666
49488SOL     OW55068   3.305   0.261  11.350  0.0754  0.1276  0.2290
49488SOL    HW155069   3.356   0.336  11.318 -1.4977  0.1349 -2.5964
49488SOL    HW255070   3.327   0.190  11.290 -1.3734 -0.5236  0.4335
49489SOL     OW55071   2.879   1.997   2.728  0.8692  0.5468 -0.1728
49489SOL    HW155072   2.852   2.040   2.646  3.4076 -0.5080 -1.6730
49489SOL    HW255073   2.825   1.918   2.732  0.2920  0.9133 -0.4866
49490SOL     OW55074   8.101  11.720  12.270  0.0132  0.1584  0.7869
49490SOL    HW155075   8.081  11.728  12.363  1.2602  0.1973  1.0753
49490SOL    HW255076   8.154  11.797  12.250 -0.3817  0.2404 -0.0022
49491SOL     OW55077   7.034   4.779  11.060 -0.1852  0.2337 -0.1302
49491SOL    HW155078   6.976   4.779  11.136 -1.4583  0.0266 -1.0673
49491SOL    HW255079   7.121   4.794  11.097 -0.7669  0.1810  1.3573
49492SOL     OW55080   6.516  10.834   4.490  0.4496  0.0856  1.0662
49492SOL    HW155081   6.611  10.841   4.480  0.4067 -0.3262  0.2790
49492SOL    HW255082   6.503  10.771   4.561  0.7617  0.2697  1.2889
49493SOL     OW55083   5.346  10.017   4.566 -0.0228 -0.2190  0.5425
49493SOL    HW155084   5.269   9.961   4.575  0.2984 -0.7838 -0.1189
49493SOL    HW255085   5.377  10.031   4.656 -0.3861 -0.7092  0.7444
49494SOL     OW55086   0.699   4.438   1.576 -0.7993 -0.4918 -0.2619
49494SOL    HW155087   0.643   4.369   1.540  0.6055 -1.8650  0.1049
49494SOL    HW255088   0.785   4.397   1.586 -0.2514  0.9272  1.2361
49495SOL     OW55089   9.409   5.490  11.829 -0.1737  0.1543 -0.0210
49495SOL    HW155090   9.333   5.546  11.844 -1.1868 -0.3043 -2.9101
49495SOL    HW255091   9.482   5.550  11.821 -0.9655  0.9649 -1.4006
49496SOL     OW55092   8.573   8.603  10.000 -0.4683 -0.3113 -0.0241
49496SOL    HW155093   8.500   8.636  10.053  0.4419  0.5933  0.6919
49496SOL    HW255094   8.539   8.522   9.961 -3.1157  1.8095 -2.5553
49497SOL     OW55095   8.397  11.683   3.442 -0.0806 -0.2273 -0.3912
49497SOL    HW155096   8.469  11.746   3.435  0.3996 -0.7379 -0.1553
49497SOL    HW255097   8.416  11.617   3.375  0.8393 -1.4872  1.0367
49498SOL     OW55098   8.242   7.557   0.180  0.1412  0.6427  0.2098
49498SOL    HW155099   8.154   7.523   0.167  0.9764 -0.9443 -1.8920
49498SOL    HW255100   8.240   7.645   0.142 -0.7785  1.0994  1.2453
49499SOL     OW55101   5.574  11.387  11.706 -0.7254  0.1183  0.5500
49499SOL    HW155102   5.545  11.411  11.618  0.1217  1.0698  0.5147
49499SOL    HW255103   5.658  11.344  11.694 -2.5657 -3.9249  0.5326
49500SOL     OW55104   6.497   8.392   6.484  0.3012 -0.0407  0.3777
49500SOL    HW155105   6.446   8.373   6.406 -0.2909  0.1583  0.7050
49500SOL    HW255106   6.460   8.475   6.517  0.1963 -0.3732  1.1332
49501SOL     OW55107   0.989   1.515   2.995  0.1411  0.0121  0.0767
49501SOL    HW155108   1.056   1.521   2.927 -0.9091 -1.1674 -1.1088
49501SOL    HW255109   0.944   1.433   2.978 -1.4618  0.6508  0.9869
49502SOL     OW55110  10.711   9.986   9.901 -0.0473  0.2703 -0.3330
49502SOL    HW155111  10.757  10.014   9.980  0.7619 -1.2137 -0.2487
49502SOL    HW255112  10.632  10.041   9.899  0.4373  1.0710  0.9108
49503SOL     OW55113   7.453  11.677   9.037 -0.4387  0.4939  0.3136
49503SOL    HW155114   7.516  11.706   8.971  0.7475  0.2717  1.3041
49503SOL    HW255115   7.388  11.627   8.987  0.5097  0.1934 -0.6771
49504SOL     OW55116   8.743   6.375  11.292  0.1636  0.3507  0.1596
49504SOL    HW155117   8.813   6.315  11.266  0.1890  0.7449 -0.7254
49504SOL    HW255118   8.713   6.414  11.210 -0.3098  1.0462  0.6487
49505SOL     OW55119   3.229   8.740   0.182 -0.7810 -0.0744  0.0448
49505SOL    HW155120   3.317   8.770   0.202 -1.1052 -0.2400  1.8257
49505SOL    HW255121   3.173   8.817   0.192 -1.1248 -0.4461  1.1217
49506SOL     OW55122   5.268   7.228  10.643 -0.0714  0.2071 -0.2032
49506SOL    HW155123   5.285   7.316  10.676  1.0793  0.4727 -1.4080
49506SOL    HW255124   5.252   7.240  10.549  0.7266 -0.9039 -0.5085
49507SOL     OW55125   7.197   9.185   3.645  0.2470 -0.0061  0.1450
49507SOL    HW155126   7.246   9.147   3.718  1.4339  0.2964 -0.4656
49507SOL    HW255127   7.165   9.269   3.678  0.8237  0.1551  0.3072
49508SOL     OW55128   9.977  11.418   7.318  0.7653 -0.2633  0.3289
49508SOL    HW155129   9.966  11.502   7.362 -0.1080 -0.3440  0.2961
49508SOL    HW255130   9.909  11.419   7.250  2.6236  0.2378 -1.6222
49509SOL     OW55131   4.959  11.548   9.369 -0.6352 -0.7650  0.2414
49509SOL    HW155132   4.891  11.578   9.310 -1.0967 -0.3317  0.9752
49509SOL    HW255133   5.020  11.499   9.313  0.6893  2.3014 -1.2615
49510SOL     OW55134   7.338  10.775   2.861  0.2430  0.1404 -0.3148
49510SOL    HW155135   7.303  10.719   2.791  0.2077  1.3554 -1.3131
49510SOL    HW255136   7.378  10.714   2.923  0.4455 -0.9752 -1.4963
49511SOL     OW55137   8.598   6.750  11.237 -0.1884  0.5421 -0.1478
49511SOL    HW155138   8.577   6.801  11.315 -1.5133  1.4688 -1.0529
49511SOL    HW255139   8.609   6.815  11.168 -0.1828 -0.3023 -0.9632
49512SOL     OW55140  11.295   3.062   4.152 -0.7802 -0.0191 -0.3068
49512SOL    HW155141  11.340   2.998   4.096 -2.0865  0.3580 -1.8583
49512SOL    HW255142  11.365   3.099   4.206  0.6450 -0.1414 -1.9423
49513SOL     OW55143   0.047   1.923   2.828 -0.4823 -0.5579 -0.0268
49513SOL    HW155144  -0.023   1.885   2.775 -2.5695  3.3042 -0.3666
49513SOL    HW255145   0.059   1.861   2.900 -5.3610 -0.8219  0.9065
49514SOL     OW55146   3.266   6.882  12.600 -0.3229  0.2532 -0.0690
49514SOL    HW155147   3.336   6.895  12.663  0.3581 -1.9279 -0.2805
49514SOL    HW255148   3.185   6.898  12.649  0.1832 -1.5570  1.4580
49515SOL     OW55149   5.694   2.046  10.299  0.7762  0.2310 -0.3109
49515SOL    HW155150   5.657   2.108  10.362  3.0037  1.3660 -0.0085
49515SOL    HW255151   5.720   1.971  10.352  0.3176  0.0899 -0.2849
49516SOL     OW55152   4.808   7.107  10.110 -0.4368 -0.3741 -0.3610
49516SOL    HW155153   4.739   7.167  10.138 -1.6031 -0.1995 -3.1979
49516SOL    HW255154   4.889   7.153  10.131 -1.2108  0.3819  1.1369
49517SOL     OW55155   6.267  12.345   4.913  0.5375 -0.1763 -1.1064
49517SOL    HW155156   6.330  12.358   4.842  2.5065 -1.0964  0.3593
49517SOL    HW255157   6.259  12.251   4.923 -2.6586 -0.1750 -2.4637
49518SOL     OW55158  12.498   2.190   5.686 -0.2420  0.5002 -0.0611
49518SOL    HW155159  12.513   2.245   5.763 -1.3899  0.8152 -0.0477
49518SOL    HW255160  12.418   2.225   5.646 -0.4987 -0.6003 -0.5565
49519SOL     OW55161   8.076   5.965   9.559 -0.1156 -0.0044 -0.1159
49519SOL    HW155162   8.035   6.051   9.555 -0.0548  0.0357  0.0865
49519SOL    HW255163   8.156   5.974   9.506  0.7262  0.5354  1.1944
49520SOL     OW55164   9.449   8.460   8.954 -0.0413  0.3856 -0.1980
49520SOL    HW155165   9.486   8.383   8.911 -1.0229  0.3820 -1.0884
49520SOL    HW255166   9.490   8.534   8.909  0.6496  0.3920  0.4302
49521SOL     OW55167   7.170  10.801   7.366 -0.0274  0.1754  0.2342
49521SOL    HW155168   7.186  10.721   7.315 -0.2896 -0.3888  1.0061
49521SOL    HW255169   7.114  10.854   7.309  0.2935 -0.1055 -0.3620
49522SOL     OW55170   9.673   7.610   7.407  0.4759 -0.2590  0.0098
49522SOL    HW155171   9.640   7.538   7.461  1.3261 -0.2031  0.6250
49522SOL    HW255172   9.664   7.688   7.463  1.0259 -0.1422 -0.0597
49523SOL     OW55173   7.093   6.802   1.955 -0.3777  0.0592  0.1816
49523SOL    HW155174   7.131   6.740   1.894  0.5983  0.0099  0.8247
49523SOL    HW255175   7.153   6.804   2.029 -0.3087  1.8580  0.1243
49524SOL     OW55176   9.338   1.873   2.988 -0.1433  0.4283 -0.2380
49524SOL    HW155177   9.383   1.875   2.903 -0.0967 -1.3560 -0.2901
49524SOL    HW255178   9.345   1.963   3.021  0.6223  0.9423 -1.7100
49525SOL     OW55179   3.388  10.097  12.502 -0.1474  0.7586  0.4930
49525SOL    HW155180   3.453  10.129  12.439  0.1318  0.1863  0.4790
49525SOL    HW255181   3.427  10.017  12.538 -0.5024  0.8361  1.0634
49526SOL     OW55182   4.340   5.340   5.535 -0.3481 -0.1884  0.0064
49526SOL    HW155183   4.382   5.313   5.454  0.8284  0.8064  0.2643
49526SOL    HW255184   4.268   5.397   5.507  1.0295  1.4610 -0.3184
49527SOL     OW55185  10.406  11.376   0.886  0.3561  0.0982  0.3824
49527SOL    HW155186  10.325  11.411   0.850  0.4856 -1.0693 -1.1312
49527SOL    HW255187  10.474  11.437   0.855  0.2797 -0.0018  0.0204
49528SOL     OW55188   8.649   2.134   7.057 -0.1900 -0.0848  0.1649
49528SOL    HW155189   8.743   2.117   7.064 -0.4076 -0.8096  1.7060
49528SOL    HW255190   8.608   2.053   7.087 -1.3709 -0.9179 -3.2486
49529SOL     OW55191   5.355   5.338   3.868  0.7566  0.3407 -0.1877
49529SOL    HW155192   5.274   5.356   3.917  0.1566 -2.5470  0.0422
49529SOL    HW255193   5.408   5.416   3.881 -1.4820  1.8352  0.6927
49530SOL     OW55194   5.767   7.572   8.072 -0.3645  0.0563 -0.3220
49530SOL    HW155195   5.738   7.640   8.011 -0.3988  0.4372  0.1208
49530SOL    HW255196   5.687   7.545   8.117  0.1057  2.1633  1.9935
49531SOL     OW55197   0.430   6.562   6.881 -0.3880  0.2379  0.1449
49531SOL    HW155198   0.371   6.550   6.807 -1.4357  1.6168  0.7101
49531SOL    HW255199   0.511   6.597   6.843 -0.2876 -0.6874 -0.5186
49532SOL     OW55200  12.610   7.860   8.224  0.2071 -0.2513  0.4860
49532SOL    HW155201  12.680   7.913   8.262  0.7489 -0.0952 -0.6987
49532SOL    HW255202  12.535   7.873   8.283  0.8724  0.3676  1.2167
49533SOL     OW55203  12.129   0.390   5.060  0.7496  0.2555  0.1850
49533SOL    HW155204  12.061   0.414   5.123  1.1077  1.0271  0.2984
49533SOL    HW255205  12.150   0.299   5.080 -0.1750  0.0447  0.2107
49534SOL     OW55206  11.396   5.509   9.099 -0.2763 -0.2161  0.7063
49534SOL    HW155207  11.424   5.581   9.043  0.2676 -0.4205  0.7032
49534SOL    HW255208  11.421   5.535   9.188  0.6976 -0.7532  0.6067
49535SOL     OW55209   2.748   0.431   5.296  0.0352 -0.5510  0.0530
49535SOL    HW155210   2.701   0.350   5.277 -1.6545  0.1685  0.9516
49535SOL    HW255211   2.691   0.479   5.356  1.7670  0.5532  0.9184
49536SOL     OW55212   8.201  11.879  11.306  0.0043  0.2536 -0.0816
49536SOL    HW155213   8.280  11.846  11.349  0.7969  2.6531  0.4131
49536SOL    HW255214   8.226  11.964  11.270 -1.9339  0.3703 -1.3022
49537SOL     OW55215  10.873   0.495   4.914  0.1616  0.0302  0.2043
49537SOL    HW155216  10.780   0.474   4.912  0.4109 -1.4934  1.7603
49537SOL    HW255217  10.917   0.411   4.901  1.2986  0.4752  0.9760
49538SOL     OW55218  11.164  12.538  10.152 -0.6693  0.0588 -0.0644
49538SOL    HW155219  11.116  12.531  10.235 -1.9661 -0.1891 -0.8002
49538SOL    HW255220  11.096  12.536  10.085  0.0173  3.7228 -1.0727
49539SOL     OW55221   6.709   4.957  12.120  0.1222  0.1239  0.2621
49539SOL    HW155222   6.761   4.912  12.054 -0.4282  2.2601 -1.7720
49539SOL    HW255223   6.621   4.962  12.083 -0.6828 -0.2331  2.0238
49540SOL     OW55224   6.939  12.180   9.882 -0.8613  0.0493 -0.5529
49540SOL    HW155225   6.892  12.120   9.940  0.6875 -0.8801 -0.1995
49540SOL    HW255226   6.906  12.267   9.906 -0.9230 -0.3936  1.0885
49541SOL     OW55227   5.934   4.066   7.491 -0.1525  0.3145  0.1504
49541SOL    HW155228   5.997   4.136   7.503 -0.7179  1.2980 -2.1184
49541SOL    HW255229   5.924   4.058   7.396 -2.3471 -0.7837  0.4003
49542SOL     OW55230   5.706  11.209   4.168 -0.0946 -0.2772 -0.2324
49542SOL    HW155231   5.796  11.227   4.140 -0.3516  1.1128 -0.2376
49542SOL    HW255232   5.702  11.113   4.173  1.9288 -0.3679  1.5195
49543SOL     OW55233   3.144   8.858   5.402 -0.5096 -0.2269  0.3604
49543SOL    HW155234   3.181   8.831   5.487  0.9697  0.8696  0.1004
49543SOL    HW255235   3.082   8.927   5.424 -0.8465 -0.6016  0.6141
49544SOL     OW55236   6.435   0.594   3.255  0.3656  0.5754 -0.7219
49544SOL    HW155237   6.391   0.664   3.303  1.7856  1.7054 -0.9724
49544SOL    HW255238   6.366   0.532   3.233 -0.3606 -0.1808  2.9875
49545SOL     OW55239   6.637   2.696   0.188  0.3664 -0.0339 -0.0314
49545SOL    HW155240   6.643   2.697   0.283 -0.4636  1.2304  0.0422
49545SOL    HW255241   6.724   2.721   0.157  0.2624  1.0145  0.4596
49546SOL     OW55242   3.379   4.663   0.108 -0.4776  0.0829 -0.3696
49546SOL    HW155243   3.456   4.670   0.051 -1.6713 -1.3181 -2.2857
49546SOL    HW255244   3.321   4.734   0.079  0.2975  1.5812  1.5363
49547SOL     OW55245   7.191   0.720   3.946  0.3168  0.2540 -0.2206
49547SOL    HW155246   7.274   0.743   3.903 -0.4579  0.3218 -1.7353
49547SOL    HW255247   7.174   0.630   3.918  0.0800  0.0903  0.4369
49548SOL     OW55248   0.986   2.786   8.960 -0.1859 -0.2193 -0.3142
49548SOL    HW155249   0.953   2.868   8.923  2.3030  1.4793  0.9469
49548SOL    HW255250   1.071   2.773   8.918  0.1533 -1.2970  0.6538
49549SOL     OW55251   4.440  11.413   8.365  0.0546  0.2403  0.1979
49549SOL    HW155252   4.424  11.506   8.373  2.9604  0.7410  1.6321
49549SOL    HW255253   4.536  11.405   8.361  0.1747 -2.8110  3.7307
49550SOL     OW55254  11.763   7.133  11.196  0.3854 -0.2632  0.1309
49550SOL    HW155255  11.822   7.172  11.132  0.8809  0.8734  1.2337
49550SOL    HW255256  11.812   7.135  11.278 -1.4345  1.4878  1.2765
49551SOL     OW55257   8.895   4.294   0.945  0.0959 -0.4576 -0.1025
49551SOL    HW155258   8.880   4.249   0.861  1.4070 -0.3278 -0.4303
49551SOL    HW255259   8.988   4.282   0.962  0.2774  1.3203  0.2847
49552SOL     OW55260   7.998  11.309  12.387  0.1982 -0.3269 -0.3724
49552SOL    HW155261   8.075  11.345  12.432  0.4311  0.2479 -1.2051
49552SOL    HW255262   7.946  11.386  12.364  1.4573 -0.2612 -3.5619
49553SOL     OW55263   5.757   2.068   6.212  0.0282 -0.0390  0.6596
49553SOL    HW155264   5.677   2.121   6.208  0.1725  0.1184 -0.5894
49553SOL    HW255265   5.818   2.114   6.155  1.1373  0.0140  1.8413
49554SOL     OW55266   6.557   4.715   3.991 -0.2110  0.1313  0.1723
49554SOL    HW155267   6.619   4.758   4.050 -1.5536  1.4156  0.7249
49554SOL    HW255268   6.601   4.715   3.906  1.1726 -0.4416  0.8586
49555SOL     OW55269  12.483   7.037   1.997  0.0380  0.4018  0.0014
49555SOL    HW155270  12.559   6.997   2.040 -1.1291 -2.3306 -0.2643
49555SOL    HW255271  12.407   7.001   2.043 -1.1483  0.5498 -1.7134
49556SOL     OW55272   9.456   7.441   5.304  0.5197 -0.1450 -0.2951
49556SOL    HW155273   9.387   7.502   5.278 -0.1684 -0.3059  1.0663
49556SOL    HW255274   9.520   7.445   5.233  0.5711  2.2740 -0.1796
49557SOL     OW55275   7.253   7.434  12.022 -0.4739 -0.0660 -0.2260
49557SOL    HW155276   7.175   7.447  12.077 -1.6051 -0.3693 -1.6903
49557SOL    HW255277   7.309   7.376  12.073 -0.7867  0.8890  1.2544
49558SOL     OW55278   6.300  10.940  11.157  0.0209  0.4864  0.4066
49558SOL    HW155279   6.336  11.016  11.202 -0.7500  0.8912  0.3640
49558SOL    HW255280   6.333  10.865  11.206  0.6431  0.8540  0.5584
49559SOL     OW55281   8.650   7.325   0.372 -0.1249 -0.6024  0.3511
49559SOL    HW155282   8.654   7.348   0.465 -1.2154 -0.3140  0.3452
49559SOL    HW255283   8.563   7.354   0.344  0.4609 -0.0211 -0.9502
49560SOL     OW55284   0.104   2.031   8.821  0.2497  0.2850  0.3045
49560SOL    HW155285   0.008   2.039   8.822  0.3185  1.2587  0.4507
49560SOL    HW255286   0.123   1.957   8.878 -0.3981  0.3681  0.6350
49561SOL     OW55287   8.886   4.881  12.081 -0.1401  0.3421  0.2580
49561SOL    HW155288   8.919   4.912  11.997 -0.4156 -1.4619 -0.5611
49561SOL    HW255289   8.793   4.902  12.079 -0.4373 -0.8970 -0.5281
49562SOL     OW55290   3.420   6.595   0.116  0.4803 -0.2887  0.1052
49562SOL    HW155291   3.337   6.557   0.087 -0.5884  2.0078 -0.0628
49562SOL    HW255292   3.477   6.589   0.039  0.5604 -1.9911  0.2561
49563SOL     OW55293  12.414   5.566  10.582  0.6592  0.6805 -0.0595
49563SOL    HW155294  12.452   5.481  10.605 -0.1074 -0.9074 -3.8401
49563SOL    HW255295  12.489   5.621  10.562  1.1962 -0.6798 -2.1173
49564SOL     OW55296   6.025   7.699   1.889 -0.1545 -0.5302 -0.1644
49564SOL    HW155297   5.995   7.659   1.970  1.9181 -1.3236  0.2863
49564SOL    HW255298   6.053   7.626   1.834  0.5086  0.1054 -0.6999
49565SOL     OW55299   8.210   5.368  12.517  0.4436  0.3377  0.5457
49565SOL    HW155300   8.146   5.322  12.572 -0.8590  1.6168  0.1414
49565SOL    HW255301   8.158   5.430  12.466  1.8675  0.5249 -0.7340
49566SOL     OW55302   8.383   1.233   4.153 -0.3148 -0.2166  0.0172
49566SOL    HW155303   8.417   1.304   4.098 -1.3785 -0.9622 -1.7001
49566SOL    HW255304   8.457   1.207   4.208  0.4403  1.3778 -0.1885
49567SOL     OW55305  11.234   6.593  10.599  0.0553  0.0985 -0.0343
49567SOL    HW155306  11.203   6.624  10.684  0.8190  0.5972  0.0734
49567SOL    HW255307  11.167   6.622  10.537 -1.5490 -2.0024  0.5963
49568SOL     OW55308  10.167   2.082   5.281  0.4375  0.2285 -0.0483
49568SOL    HW155309  10.216   2.162   5.264  2.2437 -0.7074  0.4976
49568SOL    HW255310  10.202   2.048   5.363 -0.8548 -0.7270  0.1570
49569SOL     OW55311   2.153   6.566   9.324  0.4515 -0.2194 -0.6353
49569SOL    HW155312   2.179   6.630   9.390  2.3039 -1.9425  0.4044
49569SOL    HW255313   2.185   6.603   9.241  0.7835  0.5449 -0.1809
49570SOL     OW55314   8.221   8.693   5.997 -0.0188  0.2204 -0.7535
49570SOL    HW155315   8.188   8.615   5.951 -1.6920  0.6337 -0.3026
49570SOL    HW255316   8.160   8.762   5.974  0.5522  1.0313  0.1179
49571SOL     OW55317   7.821   8.345  10.293  0.2372  0.1593  0.6095
49571SOL    HW155318   7.872   8.374  10.369  0.6166  1.7955 -0.2198
49571SOL    HW255319   7.769   8.422  10.269 -0.2311 -0.4868 -0.5056
49572SOL     OW55320   3.494   0.682   0.628  0.3390  0.1910 -0.0928
49572SOL    HW155321   3.571   0.715   0.582  0.6054  1.3536  1.1130
49572SOL    HW255322   3.502   0.719   0.716 -1.3458 -0.0728  0.1969
49573SOL     OW55323  11.541   8.253   1.060  0.2172  0.3484 -0.2248
49573SOL    HW155324  11.499   8.246   0.974 -2.5758 -3.0282  1.1710
49573SOL    HW255325  11.474   8.289   1.117  1.0860 -0.0225  1.0790
49574SOL     OW55326  11.774   6.080  12.194 -0.6206  0.2569  0.0838
49574SOL    HW155327  11.706   6.107  12.256 -2.3800 -1.9044 -0.7392
49574SOL    HW255328  11.788   6.156  12.139 -3.0175  0.5959 -0.1967
49575SOL     OW55329   6.680   4.071   1.445  0.3734  0.4496  0.1972
49575SOL    HW155330   6.751   4.125   1.478  1.9121 -0.8937 -0.7717
49575SOL    HW255331   6.712   4.036   1.362 -1.1448 -0.7300  0.0495
49576SOL     OW55332   5.705  11.689   6.097 -0.2695  0.8115 -0.3585
49576SOL    HW155333   5.786  11.667   6.142 -0.8809 -1.0334 -0.0592
49576SOL    HW255334   5.664  11.756   6.152 -0.1012 -0.0234  0.8069
49577SOL     OW55335   9.104   6.906   7.522  0.1672  0.4093  0.6343
49577SOL    HW155336   9.176   6.909   7.585  0.5406  1.2024  0.1785
49577SOL    HW255337   9.047   6.836   7.555  3.2231 -3.3538 -1.2733
49578SOL     OW55338   6.775  11.020   8.147  0.3950 -0.0382 -0.0491
49578SOL    HW155339   6.786  10.927   8.168  1.3993 -0.2055 -1.1768
49578SOL    HW255340   6.695  11.045   8.192 -0.3892 -1.6899 -0.4280
49579SOL     OW55341   8.725   2.800   4.961 -0.4100  0.1210  0.3687
49579SOL    HW155342   8.767   2.758   4.886  0.1777 -0.8519  1.2246
49579SOL    HW255343   8.762   2.888   4.962 -0.4882  0.1727 -0.5298
49580SOL     OW55344   5.986  10.942   6.830 -0.8138  0.4562  0.0944
49580SOL    HW155345   5.980  10.926   6.736 -1.2094  1.2041 -0.0192
49580SOL    HW255346   6.079  10.937   6.850 -0.8707 -1.6727  0.0429
49581SOL     OW55347   4.332   5.236   1.770 -0.6140  0.2002  0.0197
49581SOL    HW155348   4.271   5.250   1.842 -1.0298 -3.3285  0.5262
49581SOL    HW255349   4.416   5.267   1.804 -1.1530  0.3290  1.2889
49582SOL     OW55350   7.669   2.591   9.505  0.2731  0.4307  0.2759
49582SOL    HW155351   7.666   2.592   9.600  0.2551  1.0147  0.2750
49582SOL    HW255352   7.742   2.532   9.484  0.9048  1.0562  0.6742
49583SOL     OW55353   5.899   7.804   5.311 -0.0991 -0.6118 -0.2717
49583SOL    HW155354   5.836   7.867   5.346 -1.3219 -2.4331  1.0006
49583SOL    HW255355   5.854   7.766   5.235  0.7431  0.1936 -1.2022
49584SOL     OW55356   2.268   3.485  12.264  0.1665 -0.2352 -0.2724
49584SOL    HW155357   2.257   3.391  12.280  0.6880 -0.3910 -0.7766
49584SOL    HW255358   2.309   3.489  12.177  0.7757  0.4377  0.0423
49585SOL     OW55359   3.063   3.630   9.630 -0.6690  0.4933 -0.1328
49585SOL    HW155360   3.087   3.537   9.633 -2.4458  0.0072  0.2517
49585SOL    HW255361   2.972   3.632   9.660 -0.1062  2.5884  1.6596
49586SOL     OW55362   5.356  11.150   8.850  0.1324  0.1925  0.1311
49586SOL    HW155363   5.370  11.083   8.917  1.5953 -0.2482 -0.5562
49586SOL    HW255364   5.418  11.220   8.873 -0.0276  0.4538 -0.2179
49587SOL     OW55365   1.692   9.307   3.303 -0.2277  0.2289  0.6509
49587SOL    HW155366   1.630   9.249   3.259 -1.6014  1.4286  0.9275
49587SOL    HW255367   1.727   9.254   3.374 -0.0935 -0.8247 -0.1728
49588SOL     OW55368   8.150   0.533   0.939  0.6109  0.2222  0.2282
49588SOL    HW155369   8.083   0.507   0.876  2.2470 -2.6220 -0.5344
49588SOL    HW255370   8.171   0.624   0.916 -2.4508  0.9876  0.1295
49589SOL     OW55371   0.161   2.942   6.839 -0.3791  0.1821 -0.2466
49589SOL    HW155372   0.205   3.016   6.882  0.7903  0.2577 -1.5048
49589SOL    HW255373   0.232   2.896   6.793 -1.2664 -1.0906 -0.3689
49590SOL     OW55374   6.790  10.965   2.474 -0.1780  0.2310 -0.1802
49590SOL    HW155375   6.780  10.870   2.470  0.2983  0.1768 -0.1795
49590SOL    HW255376   6.738  10.992   2.550 -1.0170  0.0769 -0.6858
49591SOL     OW55377   3.151  11.219   6.159 -0.1978 -0.1610 -0.1009
49591SOL    HW155378   3.232  11.193   6.203  0.3792  0.4730 -0.7543
49591SOL    HW255379   3.175  11.223   6.066 -0.8083  0.6523 -0.2340
49592SOL     OW55380   6.853  11.098   5.105  0.3576  0.3307  0.0591
49592SOL    HW155381   6.791  11.146   5.050  0.9339 -0.9925 -1.8450
49592SOL    HW255382   6.799  11.035   5.154  0.0958 -0.2762 -0.9920
49593SOL     OW55383  12.578   7.758   4.490 -0.5262 -0.0242 -0.2486
49593SOL    HW155384  12.570   7.805   4.573 -2.0054 -0.6729  0.0192
49593SOL    HW255385  12.491   7.720   4.476  0.1759 -1.3528 -1.2369
49594SOL     OW55386   4.950   2.691   6.165 -0.2199 -0.6754  0.6330
49594SOL    HW155387   4.883   2.635   6.126  0.9289 -1.6972  0.0366
49594SOL    HW255388   5.026   2.681   6.107  1.0950 -1.1326  2.3483
49595SOL     OW55389   7.655  11.148  10.090 -0.1950 -0.0661 -0.2334
49595SOL    HW155390   7.586  11.214  10.100 -0.1945 -0.2694  1.5484
49595SOL    HW255391   7.737  11.197  10.096 -0.1557 -0.2715  2.6902
49596SOL     OW55392   8.301   3.547   0.569  0.1790 -0.1584 -0.3449
49596SOL    HW155393   8.325   3.504   0.651 -1.4239 -1.4837 -0.5135
49596SOL    HW255394   8.358   3.508   0.503 -0.8551 -1.7038 -0.3943
49597SOL     OW55395   9.132  12.472   6.063  0.1126 -0.0172 -0.0379
49597SOL    HW155396   9.128  12.499   5.971 -0.0311  0.7519  0.1904
49597SOL    HW255397   9.159  12.380   6.059  1.1342  0.2884 -0.8113
49598SOL     OW55398   3.011   4.276   0.271 -0.8510  0.5250  0.3745
49598SOL    HW155399   3.065   4.198   0.285  1.2441  1.8427  0.1535
49598SOL    HW255400   3.010   4.320   0.356 -0.7321  1.0107  0.1294
49599SOL     OW55401   2.342   8.994  10.976 -0.0528  0.1123 -0.5376
49599SOL    HW155402   2.284   9.070  10.973 -1.3599 -0.8598 -2.8021
49599SOL    HW255403   2.338   8.965  11.067 -1.3591  1.3907 -0.1427
49600SOL     OW55404   1.748   7.806  11.375 -0.1669  0.0882  0.0700
49600SOL    HW155405   1.750   7.776  11.466  1.8036 -0.7853 -0.2266
49600SOL    HW255406   1.704   7.735  11.328  2.0910 -1.2097 -0.1986
49601SOL     OW55407  12.412   3.171  11.510 -0.5771 -0.2620 -0.3779
49601SOL    HW155408  12.432   3.140  11.422 -0.4960  1.1742 -0.8789
49601SOL    HW255409  12.389   3.263  11.499 -0.4699 -0.0325  1.1157
49602SOL     OW55410   9.666   6.430   8.099 -0.2842  0.2224  0.1707
49602SOL    HW155411   9.601   6.379   8.051 -0.6380  1.7632 -1.0473
49602SOL    HW255412   9.744   6.429   8.044  0.1285 -0.0519  0.7470
49603SOL     OW55413   2.794   9.159   7.227 -0.5730  0.4272 -0.2105
49603SOL    HW155414   2.793   9.131   7.319  0.6121  0.8412 -0.0548
49603SOL    HW255415   2.840   9.243   7.228  0.6821 -0.2112 -1.3346
49604SOL     OW55416   8.241   4.956   2.951 -0.2550 -0.4205 -0.3660
49604SOL    HW155417   8.163   4.929   2.901  0.4183 -0.9547 -1.1554
49604SOL    HW255418   8.271   4.876   2.993 -0.7167 -0.0046  0.7997
49605SOL     OW55419  11.262   9.578   3.444 -0.0399 -0.1706  0.1733
49605SOL    HW155420  11.226   9.505   3.494  0.2096  0.0879  0.7347
49605SOL    HW255421  11.357   9.572   3.457 -0.0835  0.8873  1.1265
49606SOL     OW55422   5.328   4.678   7.757 -0.3417  0.6156 -0.1363
49606SOL    HW155423   5.364   4.677   7.845 -1.9167  0.4332  0.5462
49606SOL    HW255424   5.275   4.598   7.752  2.6423 -1.4505 -2.5696
49607SOL     OW55425   4.302   7.164   5.222  0.0813  0.3683 -0.4718
49607SOL    HW155426   4.250   7.164   5.142  2.0435 -0.1989 -1.8111
49607SOL    HW255427   4.267   7.238   5.272 -0.8245  1.0956 -2.0790
49608SOL     OW55428   6.737   9.213   1.488  0.5940 -0.1923 -0.2702
49608SOL    HW155429   6.794   9.163   1.546 -0.2920 -0.6297  0.2622
49608SOL    HW255430   6.670   9.150   1.461 -0.0051  0.4626 -0.3414
49609SOL     OW55431   0.153   4.049   8.507  0.1046 -0.5835 -0.4486
49609SOL    HW155432   0.109   4.027   8.589 -2.2281 -2.0175 -1.9575
49609SOL    HW255433   0.237   4.003   8.512 -0.2578 -1.1637  0.8749
49610SOL     OW55434   1.092   0.264   2.267 -0.2996 -0.6992  0.4205
49610SOL    HW155435   1.182   0.290   2.286  0.0394 -1.5387 -0.0058
49610SOL    HW255436   1.088   0.257   2.172  0.2294 -4.1469  0.5175
49611SOL     OW55437   4.663   1.795   5.056  0.1568  0.3987  0.0859
49611SOL    HW155438   4.615   1.876   5.073  1.3184  0.4946  3.8356
49611SOL    HW255439   4.627   1.732   5.117  0.6277 -1.4055 -1.3898
49612SOL     OW55440  10.807   9.691   7.736  0.0642 -0.5492  0.1437
49612SOL    HW155441  10.725   9.702   7.783 -0.1253  0.4071 -0.4008
49612SOL    HW255442  10.790   9.621   7.673 -0.2888 -0.4194  0.0992
49613SOL     OW55443  11.362   4.166   2.997  0.0200 -0.3843 -0.5841
49613SOL    HW155444  11.319   4.121   3.070  1.2759  0.4995  0.7487
49613SOL    HW255445  11.334   4.117   2.920 -1.2501 -1.4341  0.4795
49614SOL     OW55446   1.791   8.464   5.003 -0.5176 -0.0664  0.1096
49614SOL    HW155447   1.724   8.464   4.935  1.1257 -1.8830 -1.6637
49614SOL    HW255448   1.846   8.540   4.983 -0.6288 -0.0042  0.0445
49615SOL     OW55449  10.411   8.574  10.310  0.3906  0.2381  0.2052
49615SOL    HW155450  10.405   8.505  10.377  2.4920  1.2303  1.5491
49615SOL    HW255451  10.499   8.564  10.274 -0.5932 -0.0891 -2.3233
49616SOL     OW55452   3.099  10.634  12.663  0.0003 -0.5154  0.1457
49616SOL    HW155453   3.079  10.557  12.715 -0.6172 -0.2008  0.3822
49616SOL    HW255454   3.037  10.632  12.590 -0.5664  0.1741  0.5896
49617SOL     OW55455   5.200   1.454   2.158 -0.0007 -0.5666  0.2669
49617SOL    HW155456   5.286   1.465   2.116  1.0676 -1.6852  2.0522
49617SOL    HW255457   5.201   1.515   2.231 -1.9599  1.5561 -1.3286
49618SOL     OW55458   8.143  11.387   2.093  0.3253  0.2721  0.0841
49618SOL    HW155459   8.127  11.300   2.129  2.2181 -0.1423  0.0083
49618SOL    HW255460   8.116  11.380   2.001 -0.4394  0.0536  0.3227
49619SOL     OW55461   5.083   3.386   2.682  0.0037  0.5910  0.1870
49619SOL    HW155462   5.101   3.338   2.763  0.6239 -1.5010 -1.1156
49619SOL    HW255463   5.164   3.432   2.663  0.0007  0.7396  0.5207
49620SOL     OW55464   3.745   5.327   6.707 -0.0083  0.0230  0.3559
49620SOL    HW155465   3.687   5.252   6.706 -0.1642  0.1493  0.0796
49620SOL    HW255466   3.687   5.403   6.715  0.2147  0.0365  2.5163
49621SOL     OW55467   1.572   1.940   4.773 -0.1996  0.2228 -0.0082
49621SOL    HW155468   1.561   1.960   4.680 -0.0765  0.6010  0.0586
49621SOL    HW255469   1.563   2.025   4.817  1.7112  0.3743  0.1672
49622SOL     OW55470   2.514   9.789  11.747 -0.1914  0.0464  0.5925
49622SOL    HW155471   2.535   9.722  11.682 -1.4610 -3.3250  3.4022
49622SOL    HW255472   2.599   9.820  11.779  0.5168  2.3636 -2.9026
49623SOL     OW55473  10.426   3.920   8.736 -0.5536 -0.5472 -0.1737
49623SOL    HW155474  10.355   3.925   8.673 -0.9409 -0.0552  0.2947
49623SOL    HW255475  10.417   3.998   8.789 -0.1641 -0.8999  0.4264
49624SOL     OW55476   9.882  12.586  12.084 -0.0078  0.5515  0.6344
49624SOL    HW155477   9.873  12.676  12.114  0.0700  0.8178 -0.1072
49624SOL    HW255478   9.976  12.568  12.092 -0.1600  0.1759  1.7486
49625SOL     OW55479  12.410   7.491   9.366  0.1861 -0.1417 -0.5303
49625SOL    HW155480  12.413   7.465   9.458 -0.1478 -1.4366 -0.8655
49625SOL    HW255481  12.344   7.434   9.327  0.0677  0.6313 -1.5075
49626SOL     OW55482   3.894  12.739  10.471 -0.0373  0.0962 -0.0834
49626SOL    HW155483   3.963  12.707  10.413 -1.2430  1.2051 -2.2754
49626SOL    HW255484   3.868  12.822  10.433 -0.4628  1.2436  2.5098
49627SOL     OW55485   8.197   5.569   2.481 -0.4641 -0.0054 -0.1216
49627SOL    HW155486   8.270   5.512   2.457 -0.2620 -0.1513  0.8169
49627SOL    HW255487   8.170   5.608   2.398 -1.2178 -2.1612 -0.9787
49628SOL     OW55488   9.638   5.652   2.893  0.4553  0.3666  0.1541
49628SOL    HW155489   9.595   5.667   2.978 -0.1314 -0.0792 -0.0583
49628SOL    HW255490   9.730   5.641   2.915  0.2390 -0.2411  0.8008
49629SOL     OW55491   6.013   6.951   5.517 -0.1685  0.4569  0.5010
49629SOL    HW155492   6.009   7.045   5.497 -0.2487  0.4509  0.4915
49629SOL    HW255493   5.931   6.932   5.563 -0.9082  0.0484 -0.9377
49630SOL     OW55494   3.170   1.693   1.387 -0.7954  0.1657 -0.0042
49630SOL    HW155495   3.245   1.693   1.328 -0.2755 -0.1632  0.6417
49630SOL    HW255496   3.095   1.710   1.331 -0.6278 -2.4697 -1.1872
49631SOL     OW55497   9.650   5.051   3.851  0.3018 -0.4272 -0.3331
49631SOL    HW155498   9.661   5.014   3.764  1.8591  1.1052 -0.8383
49631SOL    HW255499   9.706   4.998   3.908  0.3598 -0.5635 -0.5197
49632SOL     OW55500   1.379   4.139  12.687  0.1205 -0.1730 -0.5553
49632SOL    HW155501   1.328   4.216  12.662 -0.0599 -0.3628 -0.7887
49632SOL    HW255502   1.313   4.071  12.702  0.0834  0.3219  1.9842
49633SOL     OW55503   6.691   9.406  12.222  0.2641 -0.0943 -0.0477
49633SOL    HW155504   6.644   9.459  12.287 -1.6601  0.9915 -2.1823
49633SOL    HW255505   6.714   9.326  12.269 -0.7687  0.7368  2.0293
49634SOL     OW55506   5.978   4.253   8.474  0.0861 -0.1320  0.0945
49634SOL    HW155507   5.947   4.181   8.530  1.5250 -1.0887 -0.2773
49634SOL    HW255508   6.062   4.279   8.512  1.2241 -0.9728 -1.6961
49635SOL     OW55509   3.402   6.700   2.059  0.4525  0.0344  0.2289
49635SOL    HW155510   3.316   6.667   2.084  0.4303  0.1760  0.3375
49635SOL    HW255511   3.424   6.764   2.126  0.1277  0.8522 -0.4337
49636SOL     OW55512   0.919   7.482   0.677 -0.0433  0.4401 -0.0987
49636SOL    HW155513   0.839   7.471   0.729  1.0659  0.4839  1.7053
49636SOL    HW255514   0.893   7.540   0.605 -1.5012  0.8948  0.7493
49637SOL     OW55515   2.266   5.485  12.047  0.2200  0.0597  0.4856
49637SOL    HW155516   2.226   5.399  12.059 -1.3406  0.5030 -1.1355
49637SOL    HW255517   2.192   5.546  12.047  1.0851  1.1474 -0.6067
49638SOL     OW55518   4.580   0.878   4.798  0.5781  0.0315  0.8925
49638SOL    HW155519   4.487   0.894   4.809  0.2811 -1.5001  0.8397
49638SOL    HW255520   4.623   0.944   4.853 -0.5340  0.5711  1.1265
49639SOL     OW55521   2.807   1.904   0.622  0.7488 -0.5607  0.3239
49639SOL    HW155522   2.722   1.873   0.653  0.1660  0.8725  0.2083
49639SOL    HW255523   2.816   1.867   0.534  1.7281 -3.3767  1.4586
49640SOL     OW55524   8.649   3.842  10.090 -0.6542 -0.0185  0.0031
49640SOL    HW155525   8.725   3.813  10.039  0.2535 -0.9971  1.8147
49640SOL    HW255526   8.617   3.920  10.045  1.3772  0.3666 -0.8376
49641SOL     OW55527   8.404   8.896   6.853 -0.6177 -0.3727  0.3581
49641SOL    HW155528   8.378   8.956   6.923 -0.3759  1.1077 -0.7567
49641SOL    HW255529   8.406   8.810   6.894 -3.1088  0.0432  1.4911
49642SOL     OW55530   5.071  11.916  11.557  0.4437  0.1939  0.1509
49642SOL    HW155531   5.054  11.827  11.527 -2.0039  0.9900 -1.1039
49642SOL    HW255532   4.999  11.967  11.521  0.7618  2.3686  2.3435
49643SOL     OW55533   7.596  11.761  12.727 -0.3252  0.4286 -0.5234
49643SOL    HW155534   7.675  11.779  12.676 -0.3797 -0.2440 -0.8613
49643SOL    HW255535   7.627  11.713  12.804 -0.2674  1.2628 -0.0185
49644SOL     OW55536  11.472   7.801   9.462  0.3645  0.1240  0.1371
49644SOL    HW155537  11.419   7.848   9.397 -0.4290  1.1992  1.5069
49644SOL    HW255538  11.414   7.792   9.538  1.3214 -0.9665  0.7640
49645SOL     OW55539   4.190  10.323   3.510 -0.4714 -0.2589 -0.0861
49645SOL    HW155540   4.106  10.333   3.466 -0.7794 -0.1078  0.5293
49645SOL    HW255541   4.218  10.234   3.487 -0.1019  0.1804 -1.4670
49646SOL     OW55542   8.384   8.298   4.685 -0.4370  0.1931 -0.1522
49646SOL    HW155543   8.452   8.249   4.732 -0.3697  0.2307 -0.2111
49646SOL    HW255544   8.302   8.264   4.720 -0.3860  1.0237  0.8388
49647SOL     OW55545   9.152  12.785   6.750 -0.1812 -0.0796 -0.1422
49647SOL    HW155546   9.233  12.745   6.718 -0.2969 -0.0487 -0.4715
49647SOL    HW255547   9.090  12.776   6.678 -0.7032 -0.7983  0.3789
49648SOL     OW55548   8.723   2.171   1.443  0.6285  0.0164  0.6023
49648SOL    HW155549   8.696   2.140   1.357 -0.5335 -1.1554  1.3489
49648SOL    HW255550   8.743   2.263   1.430  2.2605 -0.5235 -1.2994
49649SOL     OW55551   3.164   3.494   7.739 -0.4076  0.2137 -0.2162
49649SOL    HW155552   3.095   3.537   7.790  0.9182 -0.2904  2.1992
49649SOL    HW255553   3.118   3.449   7.668 -2.5004  0.2670  1.0173
49650SOL     OW55554   7.263   5.115   9.340 -0.6202 -0.4211 -0.2346
49650SOL    HW155555   7.307   5.200   9.339  1.7673 -1.5204 -2.5735
49650SOL    HW255556   7.171   5.135   9.325  0.1142  1.7522 -2.6409
49651SOL     OW55557   5.673   8.248  10.009 -0.0103 -0.2257  0.4439
49651SOL    HW155558   5.724   8.278   9.934  1.4068  0.6267  1.6958
49651SOL    HW255559   5.586   8.285   9.995  0.2478 -0.0188 -0.7237
49652SOL     OW55560   3.433   7.490  10.811  0.2880  0.6585 -0.3472
49652SOL    HW155561   3.436   7.572  10.761  1.4075  1.0137  0.2705
49652SOL    HW255562   3.436   7.517  10.902 -0.6089 -0.0322 -0.1024
49653SOL     OW55563   2.752   1.655   8.372  0.2266 -0.5814 -0.0807
49653SOL    HW155564   2.774   1.595   8.301  0.3534 -0.3676 -0.2200
49653SOL    HW255565   2.774   1.741   8.339 -1.2411 -0.2964 -0.4063
49654SOL     OW55566   7.511  11.657  12.151  0.2811  0.6465  0.4223
49654SOL    HW155567   7.461  11.695  12.078  0.6935 -0.9484 -0.7432
49654SOL    HW255568   7.452  11.665  12.227 -1.0226  0.4612 -0.5303
49655SOL     OW55569   2.285   7.887   5.712  0.4483  0.2663  0.1551
49655SOL    HW155570   2.367   7.859   5.674  0.1307 -1.4889  0.6662
49655SOL    HW255571   2.217   7.851   5.654  0.0132  1.8705 -0.3849
49656SOL     OW55572   8.368   1.872   9.403  0.3033  0.0284  0.3960
49656SOL    HW155573   8.352   1.780   9.384 -0.3768  0.2967 -0.4147
49656SOL    HW255574   8.462   1.883   9.388  0.0995 -0.1641 -1.2537
49657SOL     OW55575   1.940  12.496   8.877 -0.1659  0.2030  0.2633
49657SOL    HW155576   2.024  12.451   8.867 -0.2120  0.4393 -1.3797
49657SOL    HW255577   1.885  12.459   8.809 -1.2109  0.5154  0.9174
49658SOL     OW55578   8.614  10.772   3.194 -0.5587  0.0491 -0.4192
49658SOL    HW155579   8.633  10.803   3.283 -2.3234 -0.1841  0.0672
49658SOL    HW255580   8.600  10.851   3.143  0.3449  0.1800 -0.4797
49659SOL     OW55581   4.599   2.103   9.964  0.1097  0.4284 -0.7945
49659SOL    HW155582   4.619   2.045  10.037  2.9971  1.7790 -0.3757
49659SOL    HW255583   4.592   2.190  10.004 -0.2259  0.9147 -1.8737
49660SOL     OW55584   9.537   2.547   1.131  0.5188 -0.0763  0.0309
49660SOL    HW155585   9.478   2.582   1.065  1.3704 -0.0189 -0.7199
49660SOL    HW255586   9.581   2.623   1.167 -0.8211  0.0282  1.5859
49661SOL     OW55587   5.688   0.229   2.947 -0.8037  0.0620 -0.7014
49661SOL    HW155588   5.725   0.300   2.894  0.3905  0.0194  0.0409
49661SOL    HW255589   5.758   0.165   2.954 -0.5351  0.5120  1.7359
49662SOL     OW55590   4.250   7.471  11.167 -0.0178  0.3325  0.3383
49662SOL    HW155591   4.195   7.439  11.096  0.9703  0.6964 -0.6393
49662SOL    HW255592   4.209   7.439  11.247 -1.7749  0.8194 -0.3243
49663SOL     OW55593   9.883   3.047   2.131 -0.0007  0.1182 -0.1908
49663SOL    HW155594   9.849   3.106   2.199  1.6569 -0.4169  1.2015
49663SOL    HW255595   9.867   3.092   2.049 -1.5321  1.0874  0.6030
49664SOL     OW55596   2.486   0.629  12.671 -0.4820  0.2890 -0.5294
49664SOL    HW155597   2.562   0.661  12.720 -0.3406 -0.4256 -0.2649
49664SOL    HW255598   2.510   0.642  12.580  0.2370 -0.4979 -0.4704
49665SOL     OW55599   8.326   9.044   6.009 -0.2362  0.3716 -0.2042
49665SOL    HW155600   8.369   9.064   5.926  1.0191 -1.5463 -0.0745
49665SOL    HW255601   8.397   9.017   6.068 -1.1905  0.8736  1.2565
49666SOL     OW55602   2.810   4.817   0.653  0.3942 -0.1950 -0.6977
49666SOL    HW155603   2.799   4.886   0.718  2.1593 -0.4528 -0.0657
49666SOL    HW255604   2.767   4.850   0.575  0.3975  1.2080 -0.1236
49667SOL     OW55605  12.384   9.505   7.452 -0.1992 -0.2478 -0.1938
49667SOL    HW155606  12.395   9.589   7.496 -1.3327  0.1297 -0.5916
49667SOL    HW255607  12.443   9.445   7.499  1.5178  1.0098 -0.6513
49668SOL     OW55608  10.170   0.561   3.915 -0.3087 -0.0391  0.5849
49668SOL    HW155609  10.258   0.598   3.920 -0.3339  0.1420 -0.1146
49668SOL    HW255610  10.166   0.497   3.986  0.1268  0.4948  1.0964
49669SOL     OW55611   2.268   8.158   2.475  0.0115 -0.0624 -0.1625
49669SOL    HW155612   2.292   8.241   2.517 -3.4068  1.9706 -1.7712
49669SOL    HW255613   2.189   8.130   2.520 -0.6416 -0.7360 -1.6611
49670SOL     OW55614   1.785   0.754   5.021 -0.3537 -0.2388  0.1591
49670SOL    HW155615   1.701   0.759   5.066 -1.6659  1.8401 -2.2633
49670SOL    HW255616   1.825   0.839   5.035  1.2896 -1.1332  1.0976
49671SOL     OW55617   1.590   0.131  11.023 -0.1400  0.0381 -0.2561
49671SOL    HW155618   1.543   0.049  11.031  0.6983 -0.8504 -3.0960
49671SOL    HW255619   1.671   0.108  10.978  0.3949  2.3139 -0.5925
49672SOL     OW55620  11.630   3.295   3.317 -0.0638 -0.2136 -0.0300
49672SOL    HW155621  11.572   3.303   3.242  0.2339 -0.3581 -0.2759
49672SOL    HW255622  11.585   3.233   3.375  0.2401 -0.9869 -0.6033
49673SOL     OW55623   8.628   6.718  10.420 -0.0748 -0.0959 -0.0862
49673SOL    HW155624   8.568   6.790  10.440  1.3528  1.0748  0.1591
49673SOL    HW255625   8.648   6.680  10.506  1.0671  0.8305  0.0962
49674SOL     OW55626   7.395   0.179  12.062 -0.2888  0.0198 -0.0515
49674SOL    HW155627   7.324   0.201  12.001 -1.2733 -0.9651  0.6992
49674SOL    HW255628   7.392   0.084  12.068  0.4639  0.0410  0.7538
49675SOL     OW55629   4.301   3.137   6.467  0.2663  0.5589 -0.2201
49675SOL    HW155630   4.238   3.151   6.539  1.5230 -0.9523  1.2429
49675SOL    HW255631   4.247   3.142   6.388 -1.3537  1.2405  0.8562
49676SOL     OW55632   0.327  10.752   5.061  0.0501 -0.3843  0.6632
49676SOL    HW155633   0.405  10.700   5.079 -0.2091 -1.0290 -0.0128
49676SOL    HW255634   0.361  10.838   5.036  0.4943 -0.3049  1.4993
49677SOL     OW55635   5.300   0.469   1.726 -0.3011 -0.1439  0.6810
49677SOL    HW155636   5.258   0.554   1.726 -1.6620 -0.7760 -0.2603
49677SOL    HW255637   5.277   0.431   1.641  1.1792 -1.0159  0.6414
49678SOL     OW55638   5.623  10.597   1.699 -0.6501 -0.0929 -0.1143
49678SOL    HW155639   5.649  10.518   1.652  0.1851 -0.3662  0.7747
49678SOL    HW255640   5.660  10.668   1.647 -2.8249 -0.1396 -1.8461
49679SOL     OW55641   5.805   0.910  11.651 -0.2679 -0.2837 -0.5570
49679SOL    HW155642   5.769   0.973  11.588 -1.2821 -0.0688  0.2243
49679SOL    HW255643   5.857   0.963  11.711  0.3092 -0.4309 -0.9128
49680SOL     OW55644   6.436  12.751  10.330 -0.1243  0.4803  0.7848
49680SOL    HW155645   6.417  12.775  10.239  1.4133  2.0138  0.8093
49680SOL    HW255646   6.381  12.674  10.347  1.6316 -1.6941 -2.3739
49681SOL     OW55647  10.952   2.787  11.697 -0.1520  0.0616 -0.0056
49681SOL    HW155648  10.870   2.801  11.746  0.6017 -1.2612  1.7632
49681SOL    HW255649  11.017   2.839  11.744  0.7133 -1.7117  0.8579
49682SOL     OW55650  10.747  10.199  11.991  0.0722  0.0061 -0.0816
49682SOL    HW155651  10.657  10.214  11.962 -0.1503  0.7405  0.9589
49682SOL    HW255652  10.782  10.286  12.008  0.6116 -0.3343  0.5958
49683SOL     OW55653   2.088  11.357   6.950 -0.0179 -0.5084  0.1608
49683SOL    HW155654   2.068  11.424   7.016  1.7411  1.4893 -1.1912
49683SOL    HW255655   2.176  11.327   6.972  0.8847  0.6874 -1.5545
49684SOL     OW55656   6.157   6.449  12.593  0.3580  0.3008 -0.1122
49684SOL    HW155657   6.127   6.540  12.586 -0.4810  0.0147 -0.4476
49684SOL    HW255658   6.186   6.440  12.684 -1.3768  0.3856  0.4867
49685SOL     OW55659   1.790   8.771   8.708 -0.3972  0.9621  0.1875
49685SOL    HW155660   1.808   8.761   8.802 -1.1887  1.9343  0.4641
49685SOL    HW255661   1.853   8.835   8.678 -0.9749  1.6225  0.3527
49686SOL     OW55662   5.235   6.454   7.856  0.0598  0.4853  0.0917
49686SOL    HW155663   5.157   6.438   7.803 -0.0429  3.5372 -0.8592
49686SOL    HW255664   5.211   6.525   7.915  1.8307  0.8782  0.4205
49687SOL     OW55665   0.974   9.709   6.543 -0.2685 -0.1979 -0.1883
49687SOL    HW155666   1.066   9.690   6.558 -0.4750 -0.7774  0.4016
49687SOL    HW255667   0.927   9.654   6.606 -0.9449  1.3057  0.6989
49688SOL     OW55668   2.862   4.829   8.386 -0.0673 -0.2945  0.0959
49688SOL    HW155669   2.936   4.771   8.403  0.1300 -0.7220 -1.9246
49688SOL    HW255670   2.787   4.770   8.379 -0.2459 -0.0748  0.1655
49689SOL     OW55671  11.867   9.413   3.022  0.2035  0.0469  0.0554
49689SOL    HW155672  11.845   9.482   3.085 -0.5781  0.7243 -0.9289
49689SOL    HW255673  11.961   9.421   3.010  0.5671 -0.8689  2.0088
49690SOL     OW55674   8.152  11.382   8.230 -0.0833  0.0031  0.1237
49690SOL    HW155675   8.235  11.351   8.193  0.2031  0.1994  0.5875
49690SOL    HW255676   8.149  11.343   8.318  0.1206  0.9825  0.5829
49691SOL     OW55677   4.043  12.243   9.290  0.0181  0.1254  0.4126
49691SOL    HW155678   3.948  12.231   9.291 -0.0099  0.3425  0.3974
49691SOL    HW255679   4.074  12.195   9.367 -0.0630 -0.2715  0.2031
49692SOL     OW55680   5.795  12.058   5.647  0.0749  0.3173 -0.4305
49692SOL    HW155681   5.806  12.031   5.739  1.0848  0.1022 -0.6013
49692SOL    HW255682   5.879  12.039   5.607 -0.7328 -0.7396 -1.7010
49693SOL     OW55683   3.966  10.976   0.340  0.1871 -0.6263 -0.3081
49693SOL    HW155684   4.049  11.015   0.313 -0.2579 -0.5241 -1.5498
49693SOL    HW255685   3.944  10.915   0.270 -0.9420 -0.4303 -0.1353
49694SOL     OW55686  11.064   7.285   8.522  0.0127 -0.4910 -0.5027
49694SOL    HW155687  11.028   7.348   8.583  3.2837  1.2278 -0.1055
49694SOL    HW255688  11.036   7.200   8.556 -5.2879  0.4638 -1.5361
49695SOL     OW55689   8.573   7.718  11.727 -0.5014 -0.8345  0.7380
49695SOL    HW155690   8.656   7.763  11.712 -0.3662 -1.2280  0.2797
49695SOL    HW255691   8.597   7.638  11.773 -0.7620 -0.3462  1.7383
49696SOL     OW55692   2.570   7.619  10.639  0.0662 -0.3077 -0.1055
49696SOL    HW155693   2.478   7.615  10.663 -0.0389 -2.1387 -0.6980
49696SOL    HW255694   2.573   7.588  10.548  1.2158  0.2369 -0.2755
49697SOL     OW55695   5.731   0.546  10.571  0.2041  0.2260  0.3093
49697SOL    HW155696   5.719   0.636  10.601  2.0383  0.5385  0.2560
49697SOL    HW255697   5.721   0.493  10.650 -2.5573  0.2498  0.0684
49698SOL     OW55698   1.339   8.630   8.734  0.5564  0.0148  0.1144
49698SOL    HW155699   1.373   8.561   8.790 -0.7551 -0.0092  0.9318
49698SOL    HW255700   1.380   8.710   8.766  0.9023 -0.1843  0.1699
49699SOL     OW55701   2.045  10.035   6.355  0.3306 -0.5301 -0.3869
49699SOL    HW155702   1.991  10.114   6.363  0.8096 -0.2153 -0.2193
49699SOL    HW255703   2.051  10.001   6.444  0.6928 -0.3688 -0.3478
49700SOL     OW55704   9.627   0.746   1.516 -0.4123 -0.2501 -0.1818
49700SOL    HW155705   9.716   0.723   1.489 -0.0523 -0.2056  0.9096
49700SOL    HW255706   9.630   0.840   1.530 -1.0638  0.0143 -1.6489
49701SOL     OW55707   5.705   3.066   8.241 -0.2623 -0.0255  0.0485
49701SOL    HW155708   5.785   3.029   8.277 -1.5245 -0.7479  2.2730
49701SOL    HW255709   5.733   3.108   8.159  2.6869  1.2363  1.5449
49702SOL     OW55710   0.109   1.217  11.170  0.0885  0.5480 -0.1286
49702SOL    HW155711   0.094   1.136  11.218 -1.7908  0.5642 -0.5883
49702SOL    HW255712   0.034   1.272  11.193 -0.2661  0.9968 -2.1228
49703SOL     OW55713   8.424   8.091   1.449  0.2183  0.4630  0.3917
49703SOL    HW155714   8.368   8.137   1.511 -0.3657  0.0880  0.1424
49703SOL    HW255715   8.508   8.082   1.495 -0.7545 -1.5227  1.8840
49704SOL     OW55716   3.210   7.001   2.307  0.2874 -0.0004  0.0669
49704SOL    HW155717   3.120   6.971   2.321  0.1161  0.5918  0.2551
49704SOL    HW255718   3.201   7.075   2.247  0.7681 -0.7747 -0.9977
49705SOL     OW55719   7.810   0.220   5.276 -0.2186  0.1695 -0.1933
49705SOL    HW155720   7.886   0.211   5.219 -1.4587 -0.7408 -1.7923
49705SOL    HW255721   7.809   0.140   5.328  0.2033  0.4282  0.2206
49706SOL     OW55722   4.643   7.643   6.819  0.4401 -0.0208  0.4460
49706SOL    HW155723   4.664   7.583   6.747 -1.3660  1.7939 -1.7594
49706SOL    HW255724   4.722   7.645   6.873  0.6197 -4.2561  0.6560
49707SOL     OW55725   4.904   2.761  10.570  0.2488  0.1361  0.4496
49707SOL    HW155726   4.827   2.809  10.602  1.6110  1.2383  2.2795
49707SOL    HW255727   4.919   2.693  10.635  0.1456 -0.8576 -0.5362
49708SOL     OW55728   7.179   2.618   4.223 -0.3281  0.8119  0.3754
49708SOL    HW155729   7.137   2.599   4.307 -1.1366  1.1412  0.0607
49708SOL    HW255730   7.125   2.688   4.185  0.3182  1.0105 -0.1971
49709SOL     OW55731   1.221   0.948  11.750  0.7337  0.0205 -0.1437
49709SOL    HW155732   1.239   0.956  11.843 -1.3086 -0.8083  0.3850
49709SOL    HW255733   1.243   0.857  11.728 -2.2761 -0.9919  0.5013
49710SOL     OW55734  12.178   0.408   8.995  0.0314  0.1177  0.1407
49710SOL    HW155735  12.229   0.333   8.965  1.8768  1.1057  0.6511
49710SOL    HW255736  12.148   0.451   8.915  2.3813  1.0548 -0.3224
49711SOL     OW55737   2.884   7.070   6.474 -0.6489  0.2924 -0.3029
49711SOL    HW155738   2.863   7.163   6.463  2.0899  1.2022  1.2443
49711SOL    HW255739   2.972   7.060   6.437  0.2797 -1.0001  2.0027
49712SOL     OW55740   5.198   2.257  10.452  0.5095  0.4980 -0.5431
49712SOL    HW155741   5.141   2.226  10.382 -1.0330  0.7382  0.5471
49712SOL    HW255742   5.176   2.202  10.527  1.7194  0.6230 -0.0648
49713SOL     OW55743   6.529   5.640   3.675 -0.2989  0.3117 -0.1402
49713SOL    HW155744   6.462   5.622   3.609  1.7055 -2.6100 -1.5830
49713SOL    HW255745   6.557   5.730   3.658 -1.2737  0.3295 -1.9013
49714SOL     OW55746   3.378   8.740   5.273 -0.6043  0.7038 -0.0434
49714SOL    HW155747   3.461   8.776   5.303 -0.8270  1.1996 -0.0055
49714SOL    HW255748   3.312   8.782   5.329 -0.8167 -0.2684  0.4397
49715SOL     OW55749   1.527  10.413   5.063 -0.0432 -0.5216 -0.0400
49715SOL    HW155750   1.504  10.326   5.031 -0.1691 -0.3061 -0.5401
49715SOL    HW255751   1.480  10.421   5.147 -1.2093 -0.3813 -0.6783
49716SOL     OW55752  11.362   2.512  12.165 -0.5336  0.1646 -0.2994
49716SOL    HW155753  11.368   2.535  12.072  2.1237 -0.7189 -0.4165
49716SOL    HW255754  11.380   2.594  12.211  1.0564  0.0424 -0.6375
49717SOL     OW55755   4.903   0.923   3.290  0.2480  0.4753  0.2510
49717SOL    HW155756   4.878   0.935   3.199 -1.0268  0.3318  0.5605
49717SOL    HW255757   4.859   0.842   3.316 -0.0432  0.9267  1.2083
49718SOL     OW55758   3.044  12.334   0.047 -0.2771  0.5615  0.1155
49718SOL    HW155759   3.094  12.257   0.021  0.5630  1.3459 -0.6666
49718SOL    HW255760   2.988  12.353  -0.029 -1.1438  0.2076  0.6486
49719SOL     OW55761   4.985   1.287   3.555 -0.4307 -0.2073  0.0427
49719SOL    HW155762   5.055   1.223   3.540 -2.3740 -3.6094  3.5952
49719SOL    HW255763   5.019   1.342   3.625 -0.3622 -0.2161  0.0166
49720SOL     OW55764   9.974   3.807   8.417 -0.2621 -0.2721 -0.1797
49720SOL    HW155765   9.919   3.793   8.495 -1.4474  2.4588 -0.4130
49720SOL    HW255766  10.058   3.835   8.452 -0.0035 -1.3704  0.1202
49721SOL     OW55767   1.453   8.574  10.177  1.0128  0.1466 -0.3183
49721SOL    HW155768   1.523   8.513  10.202 -1.3025 -2.0128  1.3511
49721SOL    HW255769   1.425   8.614  10.259 -0.1670  0.4624 -0.8567
49722SOL     OW55770   3.003   2.635   1.487 -0.1180  0.3826  0.2561
49722SOL    HW155771   3.074   2.612   1.427  0.6840  1.5702  0.7318
49722SOL    HW255772   2.923   2.626   1.433  0.4873  0.3864 -0.6708
49723SOL     OW55773   0.298   1.692   0.689  0.5127  0.2413  0.1438
49723SOL    HW155774   0.302   1.670   0.782  1.2409 -0.6619 -0.0892
49723SOL    HW255775   0.205   1.709   0.672  0.3880  0.4875  1.0410
49724SOL     OW55776   0.427   8.963   7.684  0.1944  0.2548  0.1791
49724SOL    HW155777   0.462   9.048   7.655  1.0796 -0.4456 -0.8723
49724SOL    HW255778   0.487   8.936   7.754 -0.4432  0.7599  0.9354
49725SOL     OW55779   6.367   1.151   6.865  0.3243 -0.1501 -0.2877
49725SOL    HW155780   6.437   1.215   6.854  1.6616 -1.8781 -3.5680
49725SOL    HW255781   6.413   1.070   6.888 -0.7611 -0.9298 -0.8005
49726SOL     OW55782   1.041  11.492  10.249 -0.4907  0.1451 -0.0014
49726SOL    HW155783   1.068  11.454  10.165 -0.7550 -1.8710  0.7864
49726SOL    HW255784   0.977  11.430  10.284  0.6165  0.2120  2.3180
49727SOL     OW55785   4.690   2.927   7.816  0.3153  0.3758 -0.3588
49727SOL    HW155786   4.723   2.846   7.778  0.4405  0.4055 -0.3124
49727SOL    HW255787   4.730   2.996   7.765  1.7229  0.4591  0.8060
49728SOL     OW55788   6.890  11.272   7.574  0.0375  0.1002 -0.1248
49728SOL    HW155789   6.882  11.178   7.556 -1.9459  0.3506 -0.8242
49728SOL    HW255790   6.799  11.303   7.582  0.6721  1.6367  1.9408
49729SOL     OW55791   2.941   3.996   3.442  0.0083 -0.0496  0.2762
49729SOL    HW155792   3.016   4.030   3.492  0.1349  1.0314 -0.6150
49729SOL    HW255793   2.877   4.068   3.443  0.0303  0.0122 -1.1456
49730SOL     OW55794   5.557   6.244   9.961 -0.7565  0.5210  0.4776
49730SOL    HW155795   5.484   6.211  10.015 -1.2845  0.1178 -0.4680
49730SOL    HW255796   5.521   6.249   9.873  0.1892  0.9215  0.1111
49731SOL     OW55797   0.906   5.692   4.560  0.5344  0.2727  0.2390
49731SOL    HW155798   0.878   5.763   4.502 -0.8703  0.0148  0.5583
49731SOL    HW255799   0.913   5.732   4.646  0.9054  0.2737  0.2107
49732SOL     OW55800   1.199   2.104   7.131  0.2435  0.7591 -0.2583
49732SOL    HW155801   1.293   2.095   7.113  0.3023  0.3420  0.2449
49732SOL    HW255802   1.189   2.074   7.221 -0.1313  2.2479  0.2205
49733SOL     OW55803  12.056  10.657   7.233  0.0828 -0.2135  0.5040
49733SOL    HW155804  12.062  10.562   7.234 -0.0080 -0.2236  1.2647
49733SOL    HW255805  12.120  10.685   7.168  0.1932 -0.7889  0.3585
49734SOL     OW55806   0.642   1.781   4.764  0.0216 -0.0735  0.4392
49734SOL    HW155807   0.690   1.829   4.697 -1.5629  0.4094 -0.3862
49734SOL    HW255808   0.663   1.689   4.747  0.5153  0.1177  0.0001
49735SOL     OW55809   1.855  12.553  10.840 -0.2778  0.3166 -0.0316
49735SOL    HW155810   1.768  12.562  10.878 -0.6612  0.6406 -0.9798
49735SOL    HW255811   1.894  12.640  10.849  0.0883  0.0841  0.7103
49736SOL     OW55812   2.744   0.054  11.022  0.4856 -0.6133 -0.0052
49736SOL    HW155813   2.728   0.084  10.933 -0.3691 -3.1876 -0.7789
49736SOL    HW255814   2.828   0.008  11.018  0.1051 -1.3579  0.3361
49737SOL     OW55815   5.656   2.124   1.700 -0.2192 -0.2174  0.0945
49737SOL    HW155816   5.646   2.201   1.643  2.1739  0.6071  0.6959
49737SOL    HW255817   5.573   2.077   1.691 -2.5393  3.3154  1.0273
49738SOL     OW55818   9.117   0.147   3.549  0.2365 -0.2753 -0.1813
49738SOL    HW155819   9.084   0.215   3.490 -0.6595  0.8469  1.5154
49738SOL    HW255820   9.203   0.179   3.576 -0.1811  0.2431  0.6101
49739SOL     OW55821   9.531   6.247   1.555 -0.2268  0.2729  0.4502
49739SOL    HW155822   9.470   6.207   1.492 -1.0608  1.1177  0.6898
49739SOL    HW255823   9.531   6.188   1.630 -0.0640 -0.1847  0.0951
49740SOL     OW55824  11.329  12.602   2.655 -0.0447  0.3322  0.4505
49740SOL    HW155825  11.424  12.605   2.651 -0.1000  1.5288 -0.6888
49740SOL    HW255826  11.301  12.617   2.564 -1.3406  4.5253  1.3108
49741SOL     OW55827   4.648   3.052  10.127 -0.2726  0.4596 -0.0434
49741SOL    HW155828   4.673   3.124  10.069 -0.2078  1.3820  1.0793
49741SOL    HW255829   4.625   3.095  10.210 -2.1590 -0.6572  0.0720
49742SOL     OW55830  10.075  12.485   1.714  0.4439  0.8956 -0.3414
49742SOL    HW155831  10.022  12.477   1.793  1.0126 -1.2219 -0.1120
49742SOL    HW255832  10.156  12.525   1.743  0.7870 -0.1947  0.2397
49743SOL     OW55833   0.154  11.526   8.552  0.3825  0.0823 -0.6737
49743SOL    HW155834   0.200  11.516   8.635 -1.4799  0.9613  0.5160
49743SOL    HW255835   0.202  11.596   8.507  0.1624  1.1236  0.6329
49744SOL     OW55836   9.493   0.959  11.700  0.8888 -0.5084 -0.3538
49744SOL    HW155837   9.585   0.939  11.679  0.5322 -1.8914 -0.7052
49744SOL    HW255838   9.485   0.939  11.793  1.4144  1.5677  0.1962
49745SOL     OW55839   6.100   2.416   2.852  0.7186 -0.3710  0.0576
49745SOL    HW155840   6.015   2.419   2.807  0.0279 -0.9668  1.2756
49745SOL    HW255841   6.125   2.507   2.862 -0.4449 -0.1080  0.8636
49746SOL     OW55842   6.464  10.406   8.651 -0.5354  0.2294  0.6855
49746SOL    HW155843   6.540  10.437   8.700 -1.2595  1.1151  1.2836
49746SOL    HW255844   6.449  10.317   8.684  0.0020  0.1978  0.8514
49747SOL     OW55845   9.488   5.620   4.540  0.3054 -0.9605  0.1085
49747SOL    HW155846   9.416   5.661   4.492  0.1706 -1.6581 -0.3009
49747SOL    HW255847   9.560   5.619   4.478  1.2822  1.3697  1.0779
49748SOL     OW55848   6.112   1.581   5.445  0.0795  0.1356  0.2937
49748SOL    HW155849   6.184   1.520   5.461  0.1350  0.2469  0.4762
49748SOL    HW255850   6.154   1.666   5.439 -0.0395  0.2047  0.4320
49749SOL     OW55851   9.014   6.902   8.859  0.0767  0.3019 -0.4336
49749SOL    HW155852   9.088   6.909   8.920  0.1933 -0.0859 -0.5276
49749SOL    HW255853   8.954   6.971   8.886  0.3165  0.3971 -0.1378
49750SOL     OW55854   8.129   0.556   1.204  0.2896 -0.3501 -0.5659
49750SOL    HW155855   8.206   0.612   1.216 -0.8217  1.3321 -0.8502
49750SOL    HW255856   8.120   0.548   1.109  0.3877 -0.9404 -0.5251
49751SOL     OW55857   2.882   2.370  11.832 -0.6646 -0.5658 -0.0391
49751SOL    HW155858   2.957   2.408  11.787 -0.6286  0.8168  1.1342
49751SOL    HW255859   2.914   2.286  11.866  0.3897  0.0467  0.5320
49752SOL     OW55860  12.049   3.693   2.482 -0.2865  0.3969  0.3438
49752SOL    HW155861  11.967   3.660   2.447  0.0010  1.4207 -1.3975
49752SOL    HW255862  12.117   3.637   2.445  0.0868  1.9796 -1.5459
49753SOL     OW55863  12.120   8.479   3.613  0.0959 -0.4953 -0.3267
49753SOL    HW155864  12.165   8.516   3.537 -0.2289 -0.7573 -0.6552
49753SOL    HW255865  12.131   8.384   3.603 -0.2270 -0.5448 -0.2196
49754SOL     OW55866   5.556  11.048   9.890 -0.3953 -0.1335 -0.1713
49754SOL    HW155867   5.603  11.092   9.961 -0.7990 -1.0913  0.7057
49754SOL    HW255868   5.479  11.103   9.876 -0.1866  0.1972 -0.0383
49755SOL     OW55869   3.717   0.820  10.575 -0.5100 -0.1011 -0.0226
49755SOL    HW155870   3.783   0.872  10.619 -1.0302  0.0139  0.6381
49755SOL    HW255871   3.761   0.737  10.555  0.2307  0.4661 -0.8146
49756SOL     OW55872   8.465  12.341  10.334 -0.5001 -0.0537 -0.0667
49756SOL    HW155873   8.430  12.378  10.254  1.7287  0.1334 -1.0359
49756SOL    HW255874   8.552  12.308  10.309 -0.4738 -1.6298  1.8499
49757SOL     OW55875   6.451   3.234   0.158 -0.0000  0.5068  0.1881
49757SOL    HW155876   6.360   3.233   0.129  0.5298  0.2808 -1.5784
49757SOL    HW255877   6.489   3.311   0.116  1.0764 -0.4412 -0.6285
49758SOL     OW55878   5.797   6.941   0.586  0.0381 -0.2837 -0.2022
49758SOL    HW155879   5.780   6.969   0.676 -3.2360 -1.3626 -0.3554
49758SOL    HW255880   5.783   7.020   0.533  0.2266 -0.0522  0.0912
49759SOL     OW55881   0.353   5.131   1.825 -0.2972 -0.1498  0.6000
49759SOL    HW155882   0.301   5.054   1.850 -1.9631  0.4481 -0.8415
49759SOL    HW255883   0.415   5.098   1.761 -0.5474 -0.4222  0.4958
49760SOL     OW55884   6.732   0.030  11.367 -0.4917 -0.2763  0.4324
49760SOL    HW155885   6.772  -0.032  11.306  0.1516  0.0663  0.4994
49760SOL    HW255886   6.647  -0.009  11.388  0.2973 -1.6289  1.2460
49761SOL     OW55887   3.044   1.066   8.710  0.0030 -0.2019  0.1697
49761SOL    HW155888   3.089   1.098   8.788  0.1580 -0.7594  0.3130
49761SOL    HW255889   3.114   1.055   8.645 -0.4216  2.6808 -0.9063
49762SOL     OW55890   6.651   8.471  12.241  0.3524 -0.7964 -1.1820
49762SOL    HW155891   6.657   8.563  12.267 -1.9771 -1.3849  2.0707
49762SOL    HW255892   6.606   8.473  12.156 -0.5878  1.0550 -0.6891
49763SOL     OW55893   1.670   7.427  10.507 -0.2881  0.1561 -0.7967
49763SOL    HW155894   1.713   7.342  10.493  1.0931  0.9195 -1.3438
49763SOL    HW255895   1.602   7.408  10.572  1.4039 -0.9819  0.7729
49764SOL     OW55896  12.144   4.205   9.174  0.1971  0.3315  0.4506
49764SOL    HW155897  12.110   4.145   9.241  0.8033  0.4494  0.8770
49764SOL    HW255898  12.224   4.242   9.213  0.1300  1.0011 -0.0263
49765SOL     OW55899   4.605   5.137   7.811 -0.4570 -0.2531 -0.2065
49765SOL    HW155900   4.510   5.142   7.822 -0.4245  1.5386 -0.3852
49765SOL    HW255901   4.624   5.197   7.739  1.0335  1.4657  1.5004
49766SOL     OW55902   9.487   1.589   8.044  0.2993 -0.0099 -0.2556
49766SOL    HW155903   9.547   1.617   7.975  0.4401 -0.4026 -0.2928
49766SOL    HW255904   9.538   1.598   8.125  0.6167 -0.9167 -0.3433
49767SOL     OW55905  10.008   8.666   5.600 -0.1554 -0.1169 -0.4910
49767SOL    HW155906  10.034   8.756   5.580 -0.2756 -0.0952 -0.5481
49767SOL    HW255907  10.083   8.629   5.647 -0.0875 -0.0017 -0.5108
49768SOL     OW55908   9.453  11.922   9.884 -0.3290 -0.2500 -0.6024
49768SOL    HW155909   9.410  12.002   9.855  0.8552  0.1255 -1.3770
49768SOL    HW255910   9.539  11.924   9.843  0.5400 -0.8747  1.0816
49769SOL     OW55911   5.763   1.915  11.256 -0.3482 -0.1001 -0.2842
49769SOL    HW155912   5.826   1.942  11.189  0.1376 -0.3019  0.0847
49769SOL    HW255913   5.699   1.986  11.259  0.3905  0.5671  0.0028
49770SOL     OW55914  12.711   4.114   1.036  0.7770 -0.1847 -0.0827
49770SOL    HW155915  12.798   4.074   1.047  0.0020 -1.7925  0.4900
49770SOL    HW255916  12.683   4.136   1.125  0.1190 -0.7520 -0.1407
49771SOL     OW55917   7.864   5.189   8.274 -0.1314  0.0582  0.2171
49771SOL    HW155918   7.929   5.130   8.313  0.0771  1.1323  1.5737
49771SOL    HW255919   7.874   5.271   8.323 -2.2538  0.3764  0.1820
49772SOL     OW55920  11.071  12.026   3.189 -0.8058 -0.2369  0.0920
49772SOL    HW155921  11.061  11.976   3.108  1.5057  0.5609 -0.7450
49772SOL    HW255922  11.033  12.112   3.169 -1.3548 -0.4268  0.2897
49773SOL     OW55923   7.447  12.715   7.102  0.3951  0.0724  0.2459
49773SOL    HW155924   7.499  12.794   7.089  0.1181 -0.0444 -1.9246
49773SOL    HW255925   7.377  12.741   7.162  0.7591  1.2481  0.1806
49774SOL     OW55926   9.218  12.782   9.263 -0.2743 -0.0018  0.2579
49774SOL    HW155927   9.313  12.790   9.271 -0.1759  1.0755 -1.4222
49774SOL    HW255928   9.183  12.824   9.341  0.6141  1.4541 -0.0959
49775SOL     OW55929   6.829  11.918   1.664 -0.1541 -0.0991 -0.0670
49775SOL    HW155930   6.901  11.865   1.631  1.3988  0.5593  2.0521
49775SOL    HW255931   6.855  11.943   1.752 -1.4732  2.9235 -0.3968
49776SOL     OW55932   5.555   3.224   7.663 -0.1873 -0.7471 -0.3040
49776SOL    HW155933   5.594   3.300   7.707 -0.6961  0.4029 -1.7810
49776SOL    HW255934   5.477   3.258   7.620  0.5182 -1.7146 -2.4768
49777SOL     OW55935   5.643   0.359   5.702  0.0478  0.4752  0.2311
49777SOL    HW155936   5.704   0.293   5.671  1.1872  1.4737  0.3064
49777SOL    HW255937   5.698   0.428   5.739 -1.1354  1.2011  0.6990
49778SOL     OW55938   1.421   9.387  11.643 -0.3645  0.2107  0.0335
49778SOL    HW155939   1.352   9.353  11.701  0.8455 -0.1071  1.3521
49778SOL    HW255940   1.434   9.318  11.578  0.7125 -1.0932  1.5415
49779SOL     OW55941   5.774  10.902   0.422 -0.0923  0.3377 -0.3281
49779SOL    HW155942   5.732  10.977   0.464  1.0490  1.5313 -1.2343
49779SOL    HW255943   5.720  10.884   0.345  0.7210  1.5531 -1.2177
49780SOL     OW55944   5.902   1.851   6.286 -0.1638 -0.2570  0.7175
49780SOL    HW155945   5.846   1.781   6.319 -0.8747 -0.0704 -0.0541
49780SOL    HW255946   5.841   1.923   6.268  0.4276  0.2137  0.5927
49781SOL     OW55947   8.082   9.938   7.078  0.0317 -0.1032 -0.4144
49781SOL    HW155948   8.125   9.989   7.147 -1.4627 -0.4980  0.8631
49781SOL    HW255949   8.119   9.850   7.087  0.5167  0.0610 -0.7486
49782SOL     OW55950   5.349  10.465   6.728  0.0356 -0.1676  0.0006
49782SOL    HW155951   5.394  10.390   6.690  1.7113  1.4404 -1.3726
49782SOL    HW255952   5.419  10.518   6.766 -0.6669  2.1240 -1.6658
49783SOL     OW55953   9.567   3.948   7.584 -0.2194  0.1623  0.5139
49783SOL    HW155954   9.525   4.023   7.626  0.1242  0.2422  0.7223
49783SOL    HW255955   9.578   3.884   7.654 -0.3596 -0.0176  0.3726
49784SOL     OW55956   6.144   5.273  10.261  0.7532 -0.0231 -0.4805
49784SOL    HW155957   6.186   5.315  10.186  0.4624 -1.7966 -1.7218
49784SOL    HW255958   6.196   5.195  10.277  0.0109 -0.3842  0.2857
49785SOL     OW55959   8.244   1.054   3.150 -0.2350  0.0688  0.4022
49785SOL    HW155960   8.273   0.968   3.178 -0.0965 -1.0200 -2.6962
49785SOL    HW255961   8.160   1.039   3.107 -0.1534  1.4213 -0.3087
49786SOL     OW55962   6.928  11.829   2.569  0.2058 -0.2030 -0.4221
49786SOL    HW155963   6.878  11.865   2.642  0.0068 -0.5482 -0.3858
49786SOL    HW255964   7.019  11.836   2.597  0.1516 -0.0001 -0.2918
49787SOL     OW55965   5.220  11.730   7.022 -0.4167 -0.8564 -0.6591
49787SOL    HW155966   5.253  11.817   7.043 -2.0038 -0.5303  0.6850
49787SOL    HW255967   5.161  11.744   6.948  0.0408 -0.9484 -1.0457
49788SOL     OW55968   5.006   8.494  10.029 -0.6477  0.1262 -0.1173
49788SOL    HW155969   4.967   8.407  10.025 -1.1945  0.4114 -1.3297
49788SOL    HW255970   4.933   8.552  10.050 -0.6084  0.4902 -0.9812
49789SOL     OW55971  10.166   2.117   6.249 -0.0701  0.3464  0.1929
49789SOL    HW155972  10.091   2.057   6.249  0.6509 -0.5799  0.3328
49789SOL    HW255973  10.190   2.125   6.342  2.4091 -2.5214 -0.0476
49790SOL     OW55974   8.283   2.755   0.053 -0.3213 -0.6665  0.2594
49790SOL    HW155975   8.280   2.770  -0.042 -0.3015 -1.6270  0.0937
49790SOL    HW255976   8.207   2.800   0.087  0.3350  0.7215 -0.0573
49791SOL     OW55977   1.064   7.700   2.615 -0.1628  0.0169 -0.2059
49791SOL    HW155978   1.016   7.715   2.696 -0.9188 -0.8737 -0.4665
49791SOL    HW255979   1.142   7.652   2.642  0.3639  1.0519  0.1623
49792SOL     OW55980   4.648   1.912  10.632  0.2659 -0.1141 -0.0873
49792SOL    HW155981   4.656   1.940  10.540 -0.4049 -0.6746 -0.3236
49792SOL    HW255982   4.587   1.838  10.629  0.2421 -0.1361  0.8161
49793SOL     OW55983  12.488   4.009   9.891 -0.2143  0.4638  0.0591
49793SOL    HW155984  12.435   3.936   9.859  1.6802 -0.5959 -0.9043
49793SOL    HW255985  12.568   3.967   9.924  0.8591  2.0868 -0.3518
49794SOL     OW55986   7.946  10.028   4.650 -0.5768 -0.5131  0.0642
49794SOL    HW155987   7.979  10.110   4.688  2.5071 -2.2326  1.4523
49794SOL    HW255988   7.937  10.047   4.557  3.5593  0.5613 -0.3065
49795SOL     OW55989   6.986  12.506  11.835  0.3768 -1.0638 -0.1337
49795SOL    HW155990   6.982  12.418  11.872  1.5333 -0.5177  1.3762
49795SOL    HW255991   7.077  12.516  11.808  0.1798 -0.4357 -0.5737
49796SOL     OW55992   9.449   1.831   2.278  0.4891  0.0556  0.4908
49796SOL    HW155993   9.465   1.834   2.184  1.2304  0.9997  0.6323
49796SOL    HW255994   9.359   1.862   2.288 -0.3033 -1.9062 -0.0339
49797SOL     OW55995   3.580   5.598  11.843  0.4270  0.6117 -0.3899
49797SOL    HW155996   3.509   5.565  11.786  1.8477 -0.8908 -1.3974
49797SOL    HW255997   3.616   5.673  11.795  1.3327 -0.3826 -1.3443
49798SOL     OW55998  12.536   5.894   7.890  0.3499 -0.1390  0.0250
49798SOL    HW155999  12.592   5.897   7.813 -0.7550 -0.0261 -0.7930
49798SOL    HW256000  12.504   5.804   7.893 -0.3494  0.0975 -0.1959
49799SOL     OW56001   3.598   1.649   4.410  0.1744  0.2336  0.2364
49799SOL    HW156002   3.598   1.577   4.473 -1.8940 -1.4926 -1.5889
49799SOL    HW256003   3.525   1.704   4.436  0.4165  0.4885  0.3772
49800SOL     OW56004   7.565  12.002   0.177  0.7417  0.1114  0.1709
49800SOL    HW156005   7.654  11.974   0.200  0.4736  0.6030  2.0295
49800SOL    HW256006   7.563  12.095   0.201 -0.0691  0.2701 -0.4825
49801SOL     OW56007   1.565   2.681   8.237  0.5527  0.3449 -0.0484
49801SOL    HW156008   1.518   2.764   8.241 -2.6835 -1.2067 -1.3486
49801SOL    HW256009   1.526   2.628   8.306  0.1645 -1.1029 -1.3276
49802SOL     OW56010   4.017   0.177   0.711 -0.1251 -0.2909  0.0137
49802SOL    HW156011   4.031   0.199   0.803  0.0134 -2.6738  0.6543
49802SOL    HW256012   3.925   0.151   0.706  0.0096 -0.7090 -0.3715
49803SOL     OW56013   8.939   5.004  12.745 -0.5899 -0.5701 -0.1973
49803SOL    HW156014   8.972   4.928  12.793  1.3751  0.4497  0.1488
49803SOL    HW256015   8.946   4.978  12.653 -0.1427 -0.9053 -0.0765
49804SOL     OW56016   1.878   0.136   7.834  0.6680 -0.1008 -0.2460
49804SOL    HW156017   1.790   0.168   7.813  0.1735 -0.3353  1.3203
49804SOL    HW256018   1.863   0.067   7.899  1.9441 -1.0086 -0.8786
49805SOL     OW56019   8.790   5.896  10.400  0.2741  0.1435  0.1284
49805SOL    HW156020   8.714   5.920  10.454  0.0600  0.9288 -0.5078
49805SOL    HW256021   8.754   5.838  10.333  0.0973  1.0192 -0.5568
49806SOL     OW56022  12.489   7.252  12.584 -0.2582  0.0969 -0.1376
49806SOL    HW156023  12.470   7.326  12.641 -3.9805  0.2595 -1.3236
49806SOL    HW256024  12.555   7.285  12.522  2.6747  0.3904  2.8415
49807SOL     OW56025   1.364   2.747   0.507 -0.0152 -0.3143  0.3504
49807SOL    HW156026   1.420   2.670   0.514 -0.4619 -0.5740  1.2373
49807SOL    HW256027   1.420   2.815   0.469  0.6697 -0.7839  0.5126
49808SOL     OW56028  12.140   0.775   4.970 -0.2712  0.5697  0.3735
49808SOL    HW156029  12.219   0.727   4.996  0.3596 -0.3611 -2.7812
49808SOL    HW256030  12.165   0.867   4.975 -0.4991  0.5550  3.5702
49809SOL     OW56031   1.313   8.149   8.164  0.1314  0.3958 -0.1797
49809SOL    HW156032   1.360   8.223   8.127 -1.2805  1.3558 -0.1152
49809SOL    HW256033   1.270   8.108   8.089  1.2973 -0.7104 -0.2979
49810SOL     OW56034   5.109  10.197   8.722  0.0171 -0.8492  0.0342
49810SOL    HW156035   5.056  10.275   8.704 -1.9836 -2.4527 -1.4069
49810SOL    HW256036   5.126  10.202   8.816 -0.9704  0.7641  0.1785
49811SOL     OW56037   9.696   9.090   8.274 -0.3524 -0.6869  0.4182
49811SOL    HW156038   9.712   9.119   8.185 -1.1266 -0.0146  0.4858
49811SOL    HW256039   9.699   8.994   8.270 -2.2786 -0.7508 -0.7207
49812SOL     OW56040  12.590   5.350  12.462  0.4750  0.3016  0.2192
49812SOL    HW156041  12.568   5.258  12.446  2.2868 -0.1078 -0.1982
49812SOL    HW256042  12.576   5.363  12.555 -1.4397  0.1085 -0.0045
49813SOL     OW56043   1.699   4.398   5.004  0.2527 -0.0192  0.3052
49813SOL    HW156044   1.729   4.479   5.046 -1.1284  0.8035 -0.2247
49813SOL    HW256045   1.779   4.350   4.984  1.0476  0.7018  1.6255
49814SOL     OW56046   5.337   2.937   5.192  0.5207 -0.1498 -0.4233
49814SOL    HW156047   5.307   2.889   5.115  1.7064  1.6111 -2.0918
49814SOL    HW256048   5.300   3.025   5.181 -0.0776 -0.1169  1.5530
49815SOL     OW56049   6.389  11.827   5.568  0.0180 -0.3445 -0.1503
49815SOL    HW156050   6.435  11.872   5.638 -0.2726 -0.3453  0.0441
49815SOL    HW256051   6.377  11.893   5.500 -0.6065 -0.0552  0.2255
49816SOL     OW56052   2.099  11.750   9.182  0.5668  0.9022 -0.3333
49816SOL    HW156053   2.114  11.682   9.115  1.4016 -0.3318  1.0484
49816SOL    HW256054   2.005  11.748   9.198  0.5609  0.1721 -0.4319
49817SOL     OW56055   7.045  10.823   3.702 -0.4004 -0.2832  0.1838
49817SOL    HW156056   7.116  10.830   3.638  0.2180  3.6072  1.0688
49817SOL    HW256057   6.965  10.822   3.650  0.1278  1.9244 -0.7852
49818SOL     OW56058   8.611   2.417   7.170 -0.5049  0.0778 -0.0637
49818SOL    HW156059   8.688   2.430   7.226 -0.2695  1.8897 -0.7232
49818SOL    HW256060   8.623   2.330   7.134  1.7232  0.5979 -0.7868
49819SOL     OW56061   1.088  10.563  10.147 -0.4502  0.4677  0.0784
49819SOL    HW156062   1.159  10.517  10.191  0.6964  1.4434 -0.7053
49819SOL    HW256063   1.039  10.494  10.102 -0.0354 -0.2189  0.6569
49820SOL     OW56064   3.131   8.261   5.456  0.3145 -0.3258  0.3337
49820SOL    HW156065   3.215   8.285   5.418  0.0139  0.2410  0.0219
49820SOL    HW256066   3.128   8.307   5.540  0.5604 -0.8035  0.6065
49821SOL     OW56067   5.826   2.238   8.203  0.1410  0.3534  0.0150
49821SOL    HW156068   5.798   2.147   8.194  2.9694 -0.4427 -2.0775
49821SOL    HW256069   5.908   2.233   8.253  0.7055  1.6574 -0.7291
49822SOL     OW56070   5.317   3.999  11.858 -0.5508  0.5336 -0.4478
49822SOL    HW156071   5.396   4.031  11.902  1.4476 -2.8019 -1.2874
49822SOL    HW256072   5.258   3.973  11.929  1.2248 -1.5493  0.3637
49823SOL     OW56073   8.487   3.763   9.879  0.4884  0.1699 -0.0698
49823SOL    HW156074   8.554   3.706   9.840  0.7678  0.7536 -0.4675
49823SOL    HW256075   8.447   3.710   9.947  0.4201 -0.6681 -0.7401
49824SOL     OW56076   0.615  11.433   0.032  0.1275 -0.7545 -0.7398
49824SOL    HW156077   0.546  11.461   0.091  0.9733 -0.5304  0.1738
49824SOL    HW256078   0.574  11.367  -0.024 -1.5310  1.1768 -1.9583
49825SOL     OW56079   6.763   5.269  12.102  0.1582  0.6882 -0.3626
49825SOL    HW156080   6.839   5.317  12.069  0.9713 -0.9394 -0.9811
49825SOL    HW256081   6.800   5.202  12.159 -1.0272  1.4928  1.4147
49826SOL     OW56082   0.895  10.874  12.716  0.2047  0.1044  0.1200
49826SOL    HW156083   0.851  10.843  12.796 -0.7129  0.8011 -0.0931
49826SOL    HW256084   0.849  10.829  12.645  0.6538 -0.0939 -0.0440
49827SOL     OW56085   9.755  11.567   6.213  0.0286 -0.3813  0.2610
49827SOL    HW156086   9.715  11.482   6.195  1.7064 -1.0267 -0.5347
49827SOL    HW256087   9.771  11.605   6.127  0.5497  0.1405  0.5815
49828SOL     OW56088   1.538   0.198   5.085 -0.1185  0.2335 -0.6163
49828SOL    HW156089   1.562   0.196   5.178 -0.3179  1.2051 -0.5349
49828SOL    HW256090   1.520   0.107   5.063 -1.2026  0.1274  0.5973
49829SOL     OW56091   4.062   4.126   7.535 -0.1155  0.9188  0.3351
49829SOL    HW156092   4.096   4.042   7.503 -0.0305  0.9667  0.3004
49829SOL    HW256093   4.056   4.181   7.457 -1.7815  0.4124  0.0526
49830SOL     OW56094  11.783   7.944  11.433  0.3588 -0.0844 -0.6294
49830SOL    HW156095  11.802   8.024  11.383  0.2912  1.2778  1.3774
49830SOL    HW256096  11.867   7.897  11.436  0.8653  0.8111 -0.3597
49831SOL     OW56097   1.983  10.288   1.851 -0.2067  0.0162  0.5185
49831SOL    HW156098   2.038  10.316   1.924  1.1646 -1.5338  0.1424
49831SOL    HW256099   1.952  10.370   1.811  2.6396  1.0472  0.1646
49832SOL     OW56100   9.784  11.999   2.055  0.3822  0.0217  0.3584
49832SOL    HW156101   9.861  11.969   2.104  1.2343  0.2580 -0.8032
49832SOL    HW256102   9.725  12.032   2.123  1.0551 -0.6823  1.3263
49833SOL     OW56103   4.107   0.166   2.208  0.2030  1.1065  0.1322
49833SOL    HW156104   4.128   0.254   2.178 -0.5046  1.5740  0.9474
49833SOL    HW256105   4.012   0.160   2.199  0.2757  0.3312 -0.1625
49834SOL     OW56106  11.058   9.005  10.712  0.3042  0.1807 -0.0141
49834SOL    HW156107  11.122   9.076  10.704  0.5247 -0.0845 -0.7337
49834SOL    HW256108  10.981   9.038  10.663 -1.2516  1.7016  3.1569
49835SOL     OW56109  11.050   5.680   9.501 -0.2790  0.2890  0.1272
49835SOL    HW156110  11.123   5.661   9.560 -0.0797  0.5251 -0.0444
49835SOL    HW256111  10.973   5.678   9.557  0.0282  1.7169  0.6409
49836SOL     OW56112   2.690   0.169  10.764 -0.1352  0.2318 -0.0977
49836SOL    HW156113   2.720   0.117  10.690 -0.7137  0.7864 -0.7293
49836SOL    HW256114   2.631   0.234  10.726 -0.1408  0.7681  0.7952
49837SOL     OW56115   4.876   5.911   8.891 -0.0960 -0.5491 -0.0696
49837SOL    HW156116   4.895   5.995   8.848 -0.1577 -1.4181 -1.8820
49837SOL    HW256117   4.804   5.874   8.840 -1.4319 -0.8604  1.9103
49838SOL     OW56118   1.413   9.126   8.670  0.0754 -0.4716 -0.0965
49838SOL    HW156119   1.478   9.157   8.733 -0.5140  1.0306 -0.1865
49838SOL    HW256120   1.402   9.033   8.691  2.8489 -0.9987 -0.6575
49839SOL     OW56121   6.623   7.030   5.954 -0.5315 -0.1995 -0.6797
49839SOL    HW156122   6.542   7.070   5.987  0.1070  0.8844 -0.3835
49839SOL    HW256123   6.650   7.087   5.882  0.3223 -0.1773 -0.3494
49840SOL     OW56124   7.337   5.070   2.829 -0.2326 -0.5199 -0.1341
49840SOL    HW156125   7.364   4.979   2.841 -1.4701 -0.9482 -0.4305
49840SOL    HW256126   7.281   5.088   2.905 -0.4627 -0.2066 -0.3746
49841SOL     OW56127   1.948   4.407   7.783  0.1107 -0.1375  0.0842
49841SOL    HW156128   1.989   4.330   7.823  1.9229  1.6083  1.8488
49841SOL    HW256129   1.884   4.436   7.848 -0.0926  0.2066 -0.2694
49842SOL     OW56130   4.346   0.731   5.146  0.8116 -0.3473  0.4915
49842SOL    HW156131   4.342   0.722   5.241  0.7501 -1.9393  0.3722
49842SOL    HW256132   4.284   0.666   5.113 -2.1513  2.7488 -0.6251
49843SOL     OW56133   6.021  12.718   4.812  0.0284  0.0811  0.0334
49843SOL    HW156134   6.027  12.627   4.842 -0.2669  0.4180  1.1537
49843SOL    HW256135   5.928  12.738   4.814  0.2836  1.5660  3.5258
49844SOL     OW56136   5.813   5.694   6.664 -0.1636  0.7232 -0.2249
49844SOL    HW156137   5.728   5.661   6.634 -0.2522 -2.1483  2.6079
49844SOL    HW256138   5.797   5.786   6.685 -2.8996  0.0536  1.0893
49845SOL     OW56139   9.085   7.639   9.815 -0.3624 -0.0688 -0.0260
49845SOL    HW156140   9.105   7.729   9.787  0.2619 -0.0488  0.4546
49845SOL    HW256141   9.144   7.624   9.889 -0.0959 -1.0616 -0.4302
49846SOL     OW56142   8.303   2.018  12.408 -0.9944  0.7513 -0.6333
49846SOL    HW156143   8.240   1.954  12.373  0.0734 -0.6802 -0.0465
49846SOL    HW256144   8.260   2.054  12.486 -0.4567 -1.5351  0.8246
49847SOL     OW56145   0.218   3.575   8.243 -0.3928 -0.2899  0.7871
49847SOL    HW156146   0.302   3.549   8.282  0.2697 -0.1613 -0.5124
49847SOL    HW256147   0.179   3.494   8.212  0.8915 -0.0266 -1.7351
49848SOL     OW56148   7.893  11.078  11.498  0.0720 -0.0795 -0.4167
49848SOL    HW156149   7.963  11.012  11.498 -0.8823 -1.1755  1.6171
49848SOL    HW256150   7.812  11.028  11.493 -0.6468  1.0216 -0.1928
49849SOL     OW56151   9.799   3.892   1.178  0.2309 -0.3693  0.1521
49849SOL    HW156152   9.793   3.911   1.272  1.1873 -0.7828  0.3054
49849SOL    HW256153   9.747   3.961   1.137 -0.8984 -0.6594  1.0282
49850SOL     OW56154  10.294   0.749   2.353 -0.0084  0.2758  0.3775
49850SOL    HW156155  10.203   0.717   2.356  0.3107 -0.6455  0.5142
49850SOL    HW256156  10.329   0.712   2.272  0.9827 -1.4727  1.5519
49851SOL     OW56157   0.966   6.729   3.567 -0.1370 -0.3436 -0.0278
49851SOL    HW156158   0.873   6.707   3.565 -0.0322 -0.7710 -0.4865
49851SOL    HW256159   0.993   6.711   3.657 -0.2298 -1.3697 -0.2016
49852SOL     OW56160   6.901  12.084   8.730 -0.1814 -0.5908 -0.2833
49852SOL    HW156161   6.845  12.121   8.662  0.1867  0.0470 -0.2474
49852SOL    HW256162   6.844  12.076   8.807 -0.6235 -1.4030 -0.6803
49853SOL     OW56163   0.445   6.205  11.677  0.1380 -0.0574  0.1284
49853SOL    HW156164   0.388   6.132  11.702  0.4814  0.0705  1.3590
49853SOL    HW256165   0.460   6.253  11.759  0.7206  0.8241 -0.4773
49854SOL     OW56166   9.992   6.286   5.066 -0.2457  0.3052 -0.1574
49854SOL    HW156167   9.948   6.206   5.038  0.4670  0.0096 -0.4609
49854SOL    HW256168   9.942   6.316   5.141 -0.6004 -0.3508 -0.1220
49855SOL     OW56169   4.669   7.705   9.253  0.1749  0.2303 -0.2589
49855SOL    HW156170   4.635   7.753   9.329 -0.2433 -1.0114  0.3629
49855SOL    HW256171   4.622   7.741   9.178  0.1751  1.0737  0.1300
49856SOL     OW56172  11.413  10.651   4.553  0.3286  0.1249 -0.7194
49856SOL    HW156173  11.335  10.703   4.575  0.7708  0.5039  0.0107
49856SOL    HW256174  11.397  10.620   4.464 -0.3227  0.8270 -0.8614
49857SOL     OW56175   8.751  11.090   0.315  0.3407  0.6455 -0.0514
49857SOL    HW156176   8.729  11.000   0.290  0.1142  0.5493  0.4823
49857SOL    HW256177   8.714  11.144   0.246 -0.6363  0.4147  0.2781
49858SOL     OW56178   3.324   1.251   2.961  0.6379  0.5426 -0.6392
49858SOL    HW156179   3.402   1.306   2.966  0.9661  0.0483 -0.2385
49858SOL    HW256180   3.335   1.187   3.032 -0.1091  0.4414 -0.6056
49859SOL     OW56181   3.896   6.526   6.633  0.0288  0.1796 -0.6000
49859SOL    HW156182   3.938   6.446   6.602  0.2793  0.3820 -0.7847
49859SOL    HW256183   3.817   6.496   6.679  0.6144 -0.2327  0.1533
49860SOL     OW56184   3.450   6.521  11.863 -0.8730  0.2482 -0.4434
49860SOL    HW156185   3.382   6.511  11.931 -1.2928 -0.9439 -1.0094
49860SOL    HW256186   3.440   6.443  11.809 -0.0998  0.8639 -1.4910
49861SOL     OW56187   4.707  12.738   6.540 -0.5563  0.3627  0.1227
49861SOL    HW156188   4.710  12.680   6.463 -1.9452 -0.7151  0.8390
49861SOL    HW256189   4.616  12.766   6.545 -0.6785 -0.2394  1.8404
49862SOL     OW56190   3.008   4.840   3.448  0.3159  0.2531  0.3551
49862SOL    HW156191   2.927   4.864   3.493 -0.2019 -0.2919 -0.2706
49862SOL    HW256192   3.014   4.900   3.374  1.0223  0.9590  0.9535
49863SOL     OW56193   5.292  11.369  11.388  0.0813  0.3486 -0.5645
49863SOL    HW156194   5.375  11.414  11.407  0.2351  0.4102 -1.3414
49863SOL    HW256195   5.273  11.393  11.297 -1.4405  1.3677 -0.0096
49864SOL     OW56196   8.269   0.686   4.426 -0.9879  0.2294 -0.5088
49864SOL    HW156197   8.232   0.753   4.484  2.2464  2.4225 -0.6942
49864SOL    HW256198   8.266   0.605   4.477 -1.8148  1.2547  1.1508
49865SOL     OW56199   8.707   6.003   5.644  0.2586 -0.0432  0.3138
49865SOL    HW156200   8.617   5.998   5.612 -0.4215 -0.5770  2.2215
49865SOL    HW256201   8.702   5.979   5.736  2.2959  0.4179  0.5981
49866SOL     OW56202   4.542   6.855   8.527  0.0612 -0.1945 -0.0926
49866SOL    HW156203   4.623   6.888   8.488 -0.5345  0.8324 -0.5095
49866SOL    HW256204   4.489   6.828   8.452 -0.5763  0.5861  0.0582
49867SOL     OW56205   7.775   3.145   3.911  0.0447 -0.6728 -0.2397
49867SOL    HW156206   7.685   3.139   3.879  0.0679 -0.2956 -0.3921
49867SOL    HW256207   7.821   3.195   3.843  0.4277 -1.0755 -0.2824
49868SOL     OW56208   7.359   1.338   0.094  0.6703  0.2492  0.6171
49868SOL    HW156209   7.351   1.318   0.001  0.0082 -0.1103  0.7467
49868SOL    HW256210   7.314   1.422   0.105 -0.2742 -0.2621  0.8006
49869SOL     OW56211   7.132   9.905   9.422  0.0791  0.2312 -0.1319
49869SOL    HW156212   7.046   9.882   9.457  0.5906  0.9390  1.7309
49869SOL    HW256213   7.135  10.000   9.425  0.8252  0.2254 -0.3901
49870SOL     OW56214   7.500   4.743   0.812 -0.2413  0.5160  0.0681
49870SOL    HW156215   7.413   4.708   0.829 -0.0341  0.8243  2.0475
49870SOL    HW256216   7.556   4.666   0.802 -0.4312  0.2990  0.6496
49871SOL     OW56217   9.680  12.663  10.199 -0.5239  0.3652  0.0990
49871SOL    HW156218   9.643  12.614  10.126 -1.3032  1.2896 -0.1458
49871SOL    HW256219   9.605  12.691  10.250 -0.0619  0.8197  0.5456
49872SOL     OW56220   6.051   0.171   1.533  0.2593  0.4343 -0.3496
49872SOL    HW156221   6.110   0.211   1.597  1.3563  0.9415 -1.6449
49872SOL    HW256222   6.108   0.141   1.463 -1.0851  1.8179 -2.1138
49873SOL     OW56223   1.662   2.838   8.927  0.4376  0.0290  0.1858
49873SOL    HW156224   1.604   2.913   8.932  0.6944  0.2430  0.0229
49873SOL    HW256225   1.639   2.795   8.844  1.2083  0.7072 -0.4024
49874SOL     OW56226   4.110   0.173   4.113 -0.2258  0.3299  0.3037
49874SOL    HW156227   4.094   0.080   4.126 -0.0536  0.0791 -1.0780
49874SOL    HW256228   4.044   0.217   4.167 -1.8487 -0.6176 -0.8146
49875SOL     OW56229   6.641   5.446   3.416  0.0064  0.1293 -0.0102
49875SOL    HW156230   6.612   5.489   3.336 -1.4142 -0.3748  0.2038
49875SOL    HW256231   6.663   5.518   3.475  1.9056  0.4952 -1.1184
49876SOL     OW56232   0.606   9.892   8.965  0.4447  0.2954 -0.4220
49876SOL    HW156233   0.678   9.922   9.021 -0.3570 -0.9294  1.3585
49876SOL    HW256234   0.630   9.802   8.941 -0.5810 -0.2151  0.3969
49877SOL     OW56235  11.916   9.332   9.799  0.0516  0.3620  0.1730
49877SOL    HW156236  11.889   9.379   9.720 -1.5503 -0.8144 -0.0226
49877SOL    HW256237  11.850   9.356   9.864  0.1582 -0.3394  0.5441
49878SOL     OW56238   0.630   4.492  11.288 -0.2625 -0.1538  0.3640
49878SOL    HW156239   0.560   4.460  11.230 -0.4081  1.0047 -0.1439
49878SOL    HW256240   0.708   4.493  11.233 -0.5278  1.5507 -0.0648
49879SOL     OW56241  11.795   9.989  10.084 -0.3262 -0.4394 -0.3340
49879SOL    HW156242  11.768   9.989   9.992 -0.1191 -3.0377 -0.4672
49879SOL    HW256243  11.871   9.930  10.086  0.8629  1.0589  1.2318
49880SOL     OW56244   0.241  10.081  10.265 -0.0706 -0.0453  0.3185
49880SOL    HW156245   0.224  10.130  10.184 -0.9663 -0.2548  0.3685
49880SOL    HW256246   0.317  10.124  10.304  0.6215 -0.1766 -0.8252
49881SOL     OW56247   6.694   9.888   1.804  0.0411  0.3476  0.3078
49881SOL    HW156248   6.613   9.913   1.759 -0.8361 -1.1273  0.9862
49881SOL    HW256249   6.669   9.814   1.859  2.0574 -0.7098 -0.1105
49882SOL     OW56250  11.735   9.759   5.008 -0.0108  0.0634  0.4476
49882SOL    HW156251  11.712   9.744   4.916  1.6827  2.0315 -0.3816
49882SOL    HW256252  11.784   9.681   5.034  1.0118  0.2148 -0.9072
49883SOL     OW56253   8.220   5.517   9.559 -0.3245  0.4626  0.6102
49883SOL    HW156254   8.210   5.440   9.503  2.5089 -0.4472  1.2198
49883SOL    HW256255   8.216   5.591   9.498  1.3265 -0.4290 -0.6798
49884SOL     OW56256   2.134   4.996   2.363 -0.1208  0.2664 -0.2742
49884SOL    HW156257   2.074   5.065   2.334  0.1282 -0.3084 -2.3653
49884SOL    HW256258   2.136   4.934   2.290  0.7890 -1.2182  0.9460
49885SOL     OW56259   9.681   5.998   6.759 -0.4976  0.4437  0.0858
49885SOL    HW156260   9.661   6.025   6.849 -0.2321  1.3929 -0.1250
49885SOL    HW256261   9.612   6.039   6.706  0.8036  2.1260 -0.4270
49886SOL     OW56262  12.701  10.163   2.616  0.0815  0.0852 -0.2394
49886SOL    HW156263  12.703  10.200   2.527 -0.4999 -0.1848 -0.3700
49886SOL    HW256264  12.692  10.069   2.603 -0.7988  0.1095  0.1029
49887SOL     OW56265   1.907   8.148  11.258 -0.2822 -0.3673 -0.6590
49887SOL    HW156266   1.912   8.238  11.225  0.4366 -0.0426  0.3018
49887SOL    HW256267   1.814   8.127  11.256 -0.7082  1.1140  0.9824
49888SOL     OW56268   8.702   3.265   1.688  0.1614  0.1095  0.4082
49888SOL    HW156269   8.657   3.336   1.642  1.5282  0.1058 -1.0243
49888SOL    HW256270   8.734   3.306   1.768  0.9667  1.1547 -0.4143
49889SOL     OW56271   6.221   3.147   3.965 -0.3651 -0.1116  0.5417
49889SOL    HW156272   6.213   3.183   3.877  0.7938 -0.4163  0.2952
49889SOL    HW256273   6.315   3.148   3.983 -0.4164 -1.6420  1.0955
49890SOL     OW56274  11.748   7.998   3.034 -0.2849 -0.1995  0.4309
49890SOL    HW156275  11.721   7.962   2.949  0.7910 -0.5980  0.2535
49890SOL    HW256276  11.818   8.060   3.013  0.2487 -0.5824  1.0603
49891SOL     OW56277   1.181  10.818   5.573  0.5019  0.1154  0.5973
49891SOL    HW156278   1.140  10.757   5.634  1.5422 -0.3538  0.8668
49891SOL    HW256279   1.149  10.904   5.599  1.1385 -0.0381  2.0180
49892SOL     OW56280   4.067   6.306   7.771  0.0250 -0.1095 -0.3520
49892SOL    HW156281   4.033   6.390   7.742  0.9686  0.7147  0.7917
49892SOL    HW256282   4.116   6.272   7.696  0.8155  1.0412 -0.3779
49893SOL     OW56283  12.719   1.651  11.411  0.1701  0.3763 -0.5414
49893SOL    HW156284  12.738   1.651  11.318 -1.4674  0.0347 -0.9025
49893SOL    HW256285  12.668   1.731  11.426 -0.0579  0.1479 -0.0536
49894SOL     OW56286   1.500   4.664   0.543  0.5847  0.2892 -0.0758
49894SOL    HW156287   1.540   4.733   0.594 -1.8842  2.1194 -0.4260
49894SOL    HW256288   1.469   4.707   0.463 -2.3595 -0.8037  0.3397
49895SOL     OW56289   4.928   0.490   7.872 -0.0095 -0.2818 -0.0076
49895SOL    HW156290   4.870   0.415   7.860  0.2906 -0.7807  1.4512
49895SOL    HW256291   5.013   0.459   7.842 -0.2412  0.0968 -1.1191
49896SOL     OW56292   1.348  10.648   0.525 -0.3298  0.5365 -0.1414
49896SOL    HW156293   1.253  10.644   0.534 -0.6231 -0.1762 -2.7613
49896SOL    HW256294   1.363  10.717   0.461  0.8767  0.3471 -0.0864
49897SOL     OW56295   0.422  10.314   1.663 -0.2605 -0.6450 -0.0040
49897SOL    HW156296   0.376  10.289   1.743  0.4761 -0.0281  0.6254
49897SOL    HW256297   0.360  10.295   1.593 -0.5882 -2.0490  0.6299
49898SOL     OW56298   5.435   6.146   4.377 -0.3436  0.1181  0.2556
49898SOL    HW156299   5.514   6.096   4.353 -0.2071  0.0159  0.8940
49898SOL    HW256300   5.431   6.139   4.472 -1.3639 -0.2285  0.1945
49899SOL     OW56301   3.869  11.227   3.092  0.1413  0.0444  0.0342
49899SOL    HW156302   3.874  11.322   3.104 -1.1433 -0.0667  1.6254
49899SOL    HW256303   3.961  11.200   3.086  0.5470  1.3177  0.0603
49900SOL     OW56304  10.803   4.770   2.415  0.4656 -0.2697  0.1077
49900SOL    HW156305  10.895   4.791   2.397 -0.2571  2.3213 -0.9913
49900SOL    HW256306  10.773   4.723   2.337  0.3930  0.5140 -0.3427
49901SOL     OW56307   3.937   6.650  11.363  0.4115  0.0717 -0.4019
49901SOL    HW156308   3.874   6.716  11.334  0.4344  0.0571 -0.4840
49901SOL    HW256309   3.933   6.654  11.459 -0.0298 -0.2258 -0.4018
49902SOL     OW56310  11.261   9.304   8.443  0.0575  0.1388  0.2585
49902SOL    HW156311  11.192   9.334   8.384  0.5355  0.4944 -0.1195
49902SOL    HW256312  11.220   9.232   8.492  0.1817 -1.3812 -1.7547
49903SOL     OW56313   4.778  10.279   8.040  0.0458  0.2514  0.2218
49903SOL    HW156314   4.817  10.361   8.009  1.4686 -0.7468 -0.7550
49903SOL    HW256315   4.694  10.273   7.994 -1.3868  2.4040  2.3069
49904SOL     OW56316   5.027   3.079   1.872  0.3735  0.6803  0.2530
49904SOL    HW156317   5.066   3.067   1.786  1.2982 -0.2390  0.7795
49904SOL    HW256318   5.001   3.171   1.874  2.4071  1.3086 -0.1947
49905SOL     OW56319   4.277   3.734   8.805 -0.1720 -0.0688  0.1717
49905SOL    HW156320   4.215   3.764   8.872 -0.6682  0.3061 -0.4403
49905SOL    HW256321   4.281   3.806   8.743  1.9566  0.5089  0.8944
49906SOL     OW56322   2.714   8.626  12.549  0.5346 -0.3349 -0.3013
49906SOL    HW156323   2.637   8.573  12.571  0.0816  0.6652  0.6081
49906SOL    HW256324   2.774   8.564  12.508  0.3585 -1.7513  1.4489
49907SOL     OW56325   3.151  10.649   2.166 -0.0812 -0.3367 -0.6068
49907SOL    HW156326   3.228  10.633   2.220  1.3400 -0.1243 -2.5169
49907SOL    HW256327   3.156  10.585   2.096 -3.5233 -2.6887  0.9938
49908SOL     OW56328   6.096   7.093   7.074 -0.0881  0.5341 -0.0317
49908SOL    HW156329   6.051   7.116   7.155 -0.8188  0.5851 -0.4427
49908SOL    HW256330   6.062   7.007   7.051  0.2015  0.4708 -0.2205
49909SOL     OW56331   2.313   9.290   4.130  0.0369  0.0756  0.4578
49909SOL    HW156332   2.275   9.202   4.131  0.8191 -0.2766  1.8563
49909SOL    HW256333   2.247   9.346   4.168  0.6208 -0.4375  2.3450
49910SOL     OW56334  12.749   0.470   3.988  0.1702 -0.3049  0.5196
49910SOL    HW156335  12.718   0.379   3.984 -0.6163  0.0028 -1.5508
49910SOL    HW256336  12.842   0.464   3.965  0.0007 -0.5608 -0.1421
49911SOL     OW56337   1.331   2.632   7.641 -0.4679  0.1469  0.0903
49911SOL    HW156338   1.270   2.620   7.714 -1.2878  2.0854 -0.2220
49911SOL    HW256339   1.362   2.722   7.651  1.8371 -0.5543 -0.1777
49912SOL     OW56340   8.520   3.805   6.180  0.4359 -0.4447  0.4569
49912SOL    HW156341   8.459   3.850   6.238 -1.4128 -2.4698  0.2272
49912SOL    HW256342   8.541   3.868   6.111 -1.8658  0.1441  0.2438
49913SOL     OW56343   8.427   0.571   5.996  0.2828 -0.1481  0.6226
49913SOL    HW156344   8.441   0.484   5.957  0.7881  0.2572 -0.1297
49913SOL    HW256345   8.343   0.564   6.041 -0.2508 -0.6882 -0.4112
49914SOL     OW56346   8.143   3.932  12.400 -0.0471  0.5742  0.0295
49914SOL    HW156347   8.151   4.012  12.349  0.0768  0.7394  0.3050
49914SOL    HW256348   8.075   3.882  12.355  0.1311  0.6720 -0.3536
49915SOL     OW56349  10.586  10.501  12.113  0.0368  0.4359  1.1503
49915SOL    HW156350  10.580  10.447  12.192 -0.9383 -0.0576  0.7553
49915SOL    HW256351  10.510  10.475  12.061  0.5050  0.9816  0.1852
49916SOL     OW56352   3.663   2.374   0.479  0.5420  0.3316 -0.1500
49916SOL    HW156353   3.633   2.349   0.567 -0.6322 -0.5835 -0.7830
49916SOL    HW256354   3.652   2.469   0.477 -1.6822  0.1363 -0.0677
49917SOL     OW56355   8.271   6.567   7.347 -0.0305 -0.3798 -0.0764
49917SOL    HW156356   8.197   6.596   7.401 -0.9406  0.5654 -1.7540
49917SOL    HW256357   8.266   6.621   7.268  0.7478 -2.2639 -1.4836
49918SOL     OW56358   3.892  12.682   9.451  0.3836  0.3425 -0.6996
49918SOL    HW156359   3.825  12.690   9.519  0.5522 -0.8947 -0.3708
49918SOL    HW256360   3.848  12.635   9.380  1.1171 -1.2828 -0.1315
49919SOL     OW56361   4.919  11.925   7.277 -0.1646  0.7903  0.1916
49919SOL    HW156362   4.933  11.996   7.339 -0.5176  0.0662  1.1199
49919SOL    HW256363   4.838  11.883   7.305  0.4660 -0.5024  0.1866
49920SOL     OW56364   2.332   7.678   4.058  0.4001  0.3884  0.2666
49920SOL    HW156365   2.385   7.607   4.093 -0.1748  0.0423  0.4493
49920SOL    HW256366   2.258   7.634   4.016 -0.4316  0.8961  1.1630
49921SOL     OW56367  12.372   9.856   8.501  0.0964 -0.1220  0.3120
49921SOL    HW156368  12.440   9.790   8.511 -0.2765 -0.5070  0.3545
49921SOL    HW256369  12.418   9.934   8.469  0.2970 -0.9180 -1.4468
49922SOL     OW56370   8.466   8.370   9.905  0.1058  0.7346  0.1221
49922SOL    HW156371   8.432   8.379   9.817 -0.9803 -0.4644  0.3906
49922SOL    HW256372   8.548   8.321   9.895 -0.5922 -0.4062 -0.1355
49923SOL     OW56373   2.556   0.739   6.843 -0.0929  0.1521  0.1217
49923SOL    HW156374   2.640   0.763   6.882  1.0909 -1.1350 -1.5107
49923SOL    HW256375   2.529   0.661   6.891  0.1975 -0.0533 -0.0398
49924SOL     OW56376   2.092  11.589   7.074 -0.3753  0.3956 -0.7435
49924SOL    HW156377   2.138  11.672   7.060  0.3511  0.1386  0.0639
49924SOL    HW256378   2.116  11.562   7.162  0.7459 -1.4901 -1.5511
49925SOL     OW56379   8.314  11.814   6.488  0.1288 -0.4707  0.1004
49925SOL    HW156380   8.243  11.754   6.512  0.4982 -0.4135  1.4004
49925SOL    HW256381   8.381  11.757   6.450 -0.2337 -0.6410 -0.2972
49926SOL     OW56382  10.955  12.449   9.949 -0.1401  0.1282 -0.0290
49926SOL    HW156383  11.003  12.381   9.902 -0.8255 -0.5598  0.2367
49926SOL    HW256384  10.942  12.519   9.885  2.1772  0.8471  0.1952
49927SOL     OW56385  11.778  11.232  10.298  0.3767 -0.1177 -0.0216
49927SOL    HW156386  11.747  11.297  10.235 -0.1424 -0.7288 -0.4084
49927SOL    HW256387  11.831  11.282  10.360 -1.7049  1.0483  0.9027
49928SOL     OW56388   8.655   6.149  10.728 -0.1486  0.4420  0.0250
49928SOL    HW156389   8.703   6.232  10.729  0.5929  0.1108 -2.1967
49928SOL    HW256390   8.666   6.115  10.817  0.7487  2.0386  0.5825
49929SOL     OW56391   2.085  11.155  11.731  0.3338 -0.2109  0.1106
49929SOL    HW156392   2.081  11.138  11.637 -0.3846 -0.0876  0.1140
49929SOL    HW256393   2.025  11.229  11.745  0.5645 -0.1138  0.6386
49930SOL     OW56394   4.578  12.722   8.935 -0.0010 -0.1162 -0.1804
49930SOL    HW156395   4.536  12.636   8.926  0.5679 -0.3715 -0.4950
49930SOL    HW256396   4.652  12.707   8.994  1.2812 -0.3077 -1.7553
49931SOL     OW56397  10.720   8.347  11.271 -0.6139 -0.4127  0.0417
49931SOL    HW156398  10.627   8.350  11.292 -0.7297  0.1080 -0.5406
49931SOL    HW256399  10.733   8.415  11.205  0.1093 -0.7319 -0.1603
49932SOL     OW56400   4.388   0.761   4.364  0.4990  0.0498 -0.0609
49932SOL    HW156401   4.469   0.787   4.407  0.1111  2.0416 -0.4391
49932SOL    HW256402   4.368   0.675   4.400  1.0317  0.9385  2.5455
49933SOL     OW56403   4.526   2.615   9.383 -0.5731 -0.0599  0.1874
49933SOL    HW156404   4.474   2.661   9.449  2.0262  0.4908  2.0070
49933SOL    HW256405   4.589   2.681   9.353  0.3651 -1.2110 -0.4378
49934SOL     OW56406   5.660   8.745   4.541  0.0065  0.6795 -0.1643
49934SOL    HW156407   5.574   8.783   4.527 -0.5057  0.4658  2.0150
49934SOL    HW256408   5.707   8.810   4.593  0.9621  0.5400 -0.8378
49935SOL     OW56409  10.404   4.244   0.962 -0.0739  0.0545  0.7829
49935SOL    HW156410  10.336   4.282   0.906 -1.1948 -1.2902  1.1715
49935SOL    HW256411  10.381   4.272   1.050  0.0736 -0.1296  0.8790
49936SOL     OW56412   3.867   6.980   2.303 -0.0064 -0.7149  0.9029
49936SOL    HW156413   3.798   6.985   2.237 -1.6015 -0.4453  2.5280
49936SOL    HW256414   3.948   6.995   2.253 -1.2367  0.7585 -0.8157
49937SOL     OW56415   7.240   7.185  11.804 -0.1852 -0.3214  0.8364
49937SOL    HW156416   7.293   7.259  11.774  0.2101 -0.9426 -0.0329
49937SOL    HW256417   7.199   7.216  11.885  1.6736  0.1058  1.6784
49938SOL     OW56418   1.030   5.955   1.163 -0.2807 -0.1185 -0.0030
49938SOL    HW156419   1.083   5.996   1.231 -0.4647  1.2568 -0.6706
49938SOL    HW256420   1.025   5.863   1.190  0.2437  0.2456  1.4536
49939SOL     OW56421   1.459  11.141   5.940  0.7445 -0.2348  0.4682
49939SOL    HW156422   1.509  11.120   5.862  0.2400 -1.7138  0.5152
49939SOL    HW256423   1.523  11.142   6.011  1.4431  2.4491 -0.0923
49940SOL     OW56424  12.443  10.239   2.798 -0.3967  0.1356 -0.1016
49940SOL    HW156425  12.485  10.325   2.793  0.7228 -0.2728  1.4024
49940SOL    HW256426  12.499  10.182   2.746 -1.0707  0.2597 -0.9962
49941SOL     OW56427   7.182   3.224  11.694 -0.0937 -0.3010 -0.1835
49941SOL    HW156428   7.182   3.290  11.625  1.0191 -0.4262 -0.3358
49941SOL    HW256429   7.130   3.152  11.658  1.5216 -0.9043 -1.4951
49942SOL     OW56430  10.591   7.825   8.643 -0.1701  0.8378 -0.7120
49942SOL    HW156431  10.507   7.785   8.620 -0.1189  1.5056 -2.1497
49942SOL    HW256432  10.655   7.779   8.590  0.2390  1.0375 -0.3941
49943SOL     OW56433   1.364   0.589   3.118  0.7989  0.0215  0.2039
49943SOL    HW156434   1.321   0.517   3.072 -1.6243  0.5731  1.4618
49943SOL    HW256435   1.457   0.575   3.102  0.3082 -2.4048 -0.9863
49944SOL     OW56436   6.208   5.667   3.103  0.0135  0.6433 -0.4500
49944SOL    HW156437   6.220   5.631   3.015 -0.1966  0.6521 -0.4832
49944SOL    HW256438   6.182   5.758   3.089 -1.2167  0.3127 -0.4172
49945SOL     OW56439   7.329  11.573   9.951  0.6461  0.0559 -0.1803
49945SOL    HW156440   7.337  11.668   9.957 -0.8489  0.1439  1.0883
49945SOL    HW256441   7.342  11.553   9.859 -0.5118  1.6700 -0.7356
49946SOL     OW56442   4.352   8.400   6.948  0.1385 -0.2481 -0.2941
49946SOL    HW156443   4.257   8.409   6.943  0.1725  0.3431  0.0728
49946SOL    HW256444   4.366   8.327   7.009 -0.0828 -0.6438 -0.7133
49947SOL     OW56445   5.459   2.278  10.387  0.3512  0.1323 -0.3770
49947SOL    HW156446   5.511   2.266  10.466  0.5795 -1.8239 -0.7912
49947SOL    HW256447   5.373   2.242  10.408 -0.0011  0.8054 -0.6076
49948SOL     OW56448   5.145   5.126   1.108 -0.0841  0.2051 -0.4053
49948SOL    HW156449   5.127   5.077   1.188  0.0940  1.6984  0.5839
49948SOL    HW256450   5.160   5.059   1.042  2.6583 -1.1890  1.4072
49949SOL     OW56451   4.969  11.791   5.524 -0.6225  0.3811 -0.5364
49949SOL    HW156452   5.034  11.800   5.454 -1.3247 -1.3318 -1.4659
49949SOL    HW256453   4.977  11.700   5.553 -1.6457  0.5323  0.2874
49950SOL     OW56454   3.284   8.873   7.644 -0.0587  0.1997  0.7539
49950SOL    HW156455   3.322   8.868   7.732  0.7582  3.0875  0.6718
49950SOL    HW256456   3.360   8.885   7.586 -0.5320 -2.1557 -0.4849
49951SOL     OW56457   2.378   6.408   0.490  0.5845  0.9511 -0.2907
49951SOL    HW156458   2.462   6.372   0.464  0.0407  1.0951 -2.3996
49951SOL    HW256459   2.370   6.490   0.441 -2.2229 -0.7125 -2.9456
49952SOL     OW56460  11.889   6.895  10.811  0.4121  0.0317 -0.1402
49952SOL    HW156461  11.919   6.846  10.887  0.4454 -0.2656 -0.3422
49952SOL    HW256462  11.794   6.902  10.821  0.5758  1.4030  0.7554
49953SOL     OW56463  11.508  11.494  11.194  0.3397  0.4661  0.4050
49953SOL    HW156464  11.534  11.534  11.277  2.1191  1.0975 -0.3901
49953SOL    HW256465  11.422  11.456  11.211  0.8770  0.1064  2.6845
49954SOL     OW56466   9.358  12.324  11.435  0.5125  0.4681  0.2780
49954SOL    HW156467   9.407  12.392  11.481  0.7435 -0.2119  1.0630
49954SOL    HW256468   9.295  12.292  11.499  1.5264 -1.2047  0.5233
49955SOL     OW56469   7.463   8.813   9.663 -0.3070  0.3048 -0.1216
49955SOL    HW156470   7.396   8.881   9.650 -0.3107 -0.0022 -1.9275
49955SOL    HW256471   7.545   8.861   9.670 -0.1649  0.5334 -2.4397
49956SOL     OW56472  11.419  12.110  10.024  0.8684 -0.3925 -0.3981
49956SOL    HW156473  11.370  12.032   9.997 -2.1652  1.5088 -0.8658
49956SOL    HW256474  11.483  12.078  10.087 -2.6047 -2.9199  2.2313
49957SOL     OW56475   8.249  12.773   2.535 -0.3052 -0.0627  0.1088
49957SOL    HW156476   8.317  12.796   2.472  1.0539 -0.7622  1.2586
49957SOL    HW256477   8.260  12.837   2.606 -1.0331 -0.0168  0.1875
49958SOL     OW56478   8.249   4.986   1.741 -0.7805  0.0315  0.3780
49958SOL    HW156479   8.241   4.904   1.691 -1.3091  0.1506  0.2625
49958SOL    HW256480   8.184   5.044   1.701 -0.0683  0.6746  0.1374
49959SOL     OW56481   7.028   3.316   0.696  0.2952 -0.5760  0.2992
49959SOL    HW156482   7.033   3.409   0.674  1.7476 -0.6664  0.1585
49959SOL    HW256483   6.984   3.313   0.781 -0.7454  0.1388 -0.1924
49960SOL     OW56484   3.270   0.088   1.906  0.1807 -0.1660 -0.5990
49960SOL    HW156485   3.207   0.016   1.905 -0.1977  0.1637 -0.3489
49960SOL    HW256486   3.315   0.081   1.822  1.0412 -1.4911 -0.0718
49961SOL     OW56487   6.580  10.160   5.141  0.2592  0.2803 -0.0987
49961SOL    HW156488   6.527  10.193   5.214 -0.1077  1.4768 -0.8726
49961SOL    HW256489   6.517  10.139   5.073  0.7038  0.6405 -0.6261
49962SOL     OW56490   8.141  10.547   5.523 -0.6453 -0.0362 -0.0414
49962SOL    HW156491   8.124  10.628   5.571  2.0581  1.2428 -1.0497
49962SOL    HW256492   8.139  10.479   5.590 -0.8248  1.1482  1.2062
49963SOL     OW56493   3.148   2.708   4.593 -0.0022  0.5404 -0.2440
49963SOL    HW156494   3.241   2.713   4.614 -0.3838  0.2599  1.8069
49963SOL    HW256495   3.111   2.788   4.630 -0.8743 -0.3953  0.9969
49964SOL     OW56496   0.981   8.326   1.329  0.1502  0.5062 -0.5043
49964SOL    HW156497   0.952   8.309   1.239 -0.3755 -0.9440 -0.0904
49964SOL    HW256498   1.032   8.407   1.323 -2.6648  2.3733 -1.5507
49965SOL     OW56499   3.506   4.267   4.175  0.1129  0.7488  0.6819
49965SOL    HW156500   3.474   4.219   4.251  0.4681 -0.8474 -0.1373
49965SOL    HW256501   3.433   4.325   4.151 -1.4990 -1.3882  0.0477
49966SOL     OW56502   5.478   7.542   6.069  0.2648 -0.0491  0.4877
49966SOL    HW156503   5.486   7.540   6.164  1.8245 -1.2967  0.3824
49966SOL    HW256504   5.433   7.461   6.047 -1.3788  0.9041  0.2172
49967SOL     OW56505   2.013   8.998   1.321 -0.4045  0.4735  0.6514
49967SOL    HW156506   2.006   9.085   1.362  1.6241  0.2881  1.5422
49967SOL    HW256507   1.988   8.937   1.391  2.8967  0.1633  1.7239
49968SOL     OW56508   1.931  10.869   0.641  0.2133 -0.2246  0.6279
49968SOL    HW156509   1.847  10.915   0.644  1.2492  1.8303  0.4926
49968SOL    HW256510   1.939  10.839   0.551 -1.6407 -3.1541  1.3086
49969SOL     OW56511   9.409   5.394   2.075 -0.1483  0.3566 -0.5069
49969SOL    HW156512   9.327   5.412   2.029 -0.2486  1.9226  0.2148
49969SOL    HW256513   9.383   5.386   2.167  0.7308  3.2666  0.0875
49970SOL     OW56514  11.051   2.595  10.144 -0.4661 -0.6710  0.4093
49970SOL    HW156515  11.050   2.613  10.238 -0.1292 -0.4793  0.3797
49970SOL    HW256516  11.025   2.677  10.103  1.7337  0.0182  0.2426
49971SOL     OW56517  12.522   9.252   1.174  0.6220  0.0655  0.2226
49971SOL    HW156518  12.476   9.291   1.099 -1.0192 -0.2460  1.0286
49971SOL    HW256519  12.597   9.207   1.135  1.3065  2.0696 -0.9701
49972SOL     OW56520   6.222   2.655  11.921 -0.0078 -0.3394  0.2904
49972SOL    HW156521   6.169   2.679  11.997 -2.9324  0.4713 -1.7928
49972SOL    HW256522   6.285   2.726  11.912 -1.5447  1.1078  0.3658
49973SOL     OW56523   5.649   1.913   5.050 -0.4601  0.4956  0.4679
49973SOL    HW156524   5.661   1.821   5.074 -0.0212  0.4933  0.2524
49973SOL    HW256525   5.738   1.947   5.039 -0.5528  1.3418  2.0124
49974SOL     OW56526   1.826   0.583   6.146  0.3475 -0.0077  0.0446
49974SOL    HW156527   1.864   0.658   6.099  1.1122  1.1998  2.4207
49974SOL    HW256528   1.736   0.579   6.115  0.6265  1.1465 -1.0163
49975SOL     OW56529   7.190  10.544   6.849 -0.4943 -0.1214 -0.0247
49975SOL    HW156530   7.118  10.604   6.868 -0.6668  0.3041 -1.8389
49975SOL    HW256531   7.163  10.460   6.886 -1.5710  0.2311  0.0078
49976SOL     OW56532   5.378   2.400   3.975  0.3098  0.1140 -0.3408
49976SOL    HW156533   5.421   2.485   3.986 -0.1898  0.6007 -1.9209
49976SOL    HW256534   5.451   2.337   3.971  0.6890  0.4607  0.6382
49977SOL     OW56535   9.137   0.834   3.512  0.2635 -0.1036 -0.3700
49977SOL    HW156536   9.154   0.772   3.583  1.6114 -1.1023 -1.5160
49977SOL    HW256537   9.060   0.883   3.541 -1.2825 -2.7398  0.3198
49978SOL     OW56538   4.784   5.028  10.512 -0.1646  0.1398  0.3275
49978SOL    HW156539   4.780   5.109  10.462 -0.0433 -0.0059  0.0780
49978SOL    HW256540   4.830   5.050  10.592  1.2133 -0.0194 -0.3935
49979SOL     OW56541   2.759   2.777  11.686 -0.3164  0.3591 -0.4815
49979SOL    HW156542   2.803   2.803  11.605  2.1878  1.8995  1.2302
49979SOL    HW256543   2.699   2.850  11.705  1.0852  1.3341  0.3752
49980SOL     OW56544   3.778  12.158   0.030  0.0069 -0.2256  0.2693
49980SOL    HW156545   3.841  12.146   0.101 -0.5377  0.2460  0.8478
49980SOL    HW256546   3.831  12.174  -0.048  0.6308  2.3305  1.1153
49981SOL     OW56547   0.894  10.550   6.706  0.6945 -0.0911 -0.2108
49981SOL    HW156548   0.887  10.545   6.801  0.5454  2.2564 -0.0537
49981SOL    HW256549   0.855  10.634   6.683  3.7533  1.0011 -1.9937
49982SOL     OW56550   1.476  11.742   1.961  0.4967 -0.9637  0.2082
49982SOL    HW156551   1.543  11.786   1.909 -0.5707 -0.0499 -0.4093
49982SOL    HW256552   1.405  11.723   1.900  0.1205 -1.8295  0.8755
49983SOL     OW56553   1.481   1.040   5.082  0.5877  0.3984  0.7782
49983SOL    HW156554   1.395   1.030   5.124  1.1428 -0.8812  1.6975
49983SOL    HW256555   1.529   0.961   5.109  1.4239  0.1630 -1.2384
49984SOL     OW56556   4.150   5.940   4.399  0.4798 -0.6734  0.2485
49984SOL    HW156557   4.080   5.907   4.456 -0.7247  0.6645 -0.3923
49984SOL    HW256558   4.217   5.970   4.460 -0.2196 -0.4813  0.9466
49985SOL     OW56559   1.791   3.350   2.801  0.1295  0.4446 -0.0574
49985SOL    HW156560   1.737   3.416   2.759 -0.7485  0.2537  0.7471
49985SOL    HW256561   1.865   3.399   2.838  0.0957  0.8071 -0.4699
49986SOL     OW56562   0.135   2.533   8.170  0.9000  0.1701  0.9255
49986SOL    HW156563   0.150   2.449   8.213 -0.1718 -0.6987 -0.3381
49986SOL    HW256564   0.040   2.546   8.175  0.6671 -0.1612 -1.4674
49987SOL     OW56565   7.205   8.964   7.426 -0.2206 -0.3017 -0.1860
49987SOL    HW156566   7.149   8.918   7.488  0.2105  0.0632  0.4935
49987SOL    HW256567   7.165   9.051   7.418 -0.7632 -0.6216 -1.0969
49988SOL     OW56568  11.231  12.108   7.121 -0.2908 -0.5188  0.3655
49988SOL    HW156569  11.179  12.035   7.154 -0.4076  0.3176  2.1271
49988SOL    HW256570  11.206  12.183   7.175  0.9737  0.4679 -0.3402
49989SOL     OW56571   9.044   1.745   5.910 -0.2749  0.2081  0.1613
49989SOL    HW156572   9.083   1.803   5.976 -0.0215 -1.3768  1.4751
49989SOL    HW256573   8.950   1.747   5.929 -0.2108 -0.1860  0.5178
49990SOL     OW56574  10.972   0.723   4.152  0.7230  0.1743 -0.0866
49990SOL    HW156575  10.926   0.641   4.134  1.1862  0.0365 -0.6802
49990SOL    HW256576  11.062   0.696   4.170  1.1271  0.6303 -1.3406
49991SOL     OW56577  12.768   7.930   8.748 -0.7023  0.3445  0.3790
49991SOL    HW156578  12.699   7.983   8.707 -1.4499 -0.7728  0.1511
49991SOL    HW256579  12.732   7.841   8.750 -0.5257  0.2483  3.0701
49992SOL     OW56580   0.858  11.117  10.549 -0.5310  0.0974 -0.3498
49992SOL    HW156581   0.791  11.070  10.599 -1.0208 -0.2841 -1.3264
49992SOL    HW256582   0.909  11.047  10.508 -0.1739  0.4023 -0.4241
49993SOL     OW56583   9.894   4.691   7.516 -0.1965  0.1531 -0.0630
49993SOL    HW156584   9.809   4.733   7.529 -0.5046 -0.8489  1.3673
49993SOL    HW256585   9.945   4.756   7.466 -1.9973  0.4868 -1.6075
49994SOL     OW56586   0.867  11.593   8.786 -0.4741 -0.1286 -0.4073
49994SOL    HW156587   0.901  11.680   8.808  3.1495 -0.9322 -1.9717
49994SOL    HW256588   0.825  11.604   8.701 -2.3516  0.4985  0.5637
49995SOL     OW56589   2.159   2.404   6.626  0.3428 -0.1802  0.1962
49995SOL    HW156590   2.164   2.415   6.721  0.3566  2.2350 -0.0086
49995SOL    HW256591   2.127   2.489   6.594  1.0426 -0.6854 -2.0160
49996SOL     OW56592   7.370   4.340   5.054  0.2623 -0.1342 -0.4164
49996SOL    HW156593   7.347   4.433   5.054  0.4408 -0.0576 -1.9427
49996SOL    HW256594   7.287   4.295   5.038 -0.0107 -0.3267  1.4057
49997SOL     OW56595   8.320   1.390   9.399  0.2595 -0.5234 -0.0116
49997SOL    HW156596   8.293   1.409   9.489 -1.3035 -1.4148 -0.2424
49997SOL    HW256597   8.369   1.309   9.404  0.9589 -0.0983  0.1331
49998SOL     OW56598   0.725  10.029   3.117  0.0767 -0.1323 -0.3749
49998SOL    HW156599   0.792  10.096   3.105 -1.8232  2.1293  0.8527
49998SOL    HW256600   0.722  10.015   3.212 -1.1357 -0.2198 -0.4104
49999SOL     OW56601   1.305   8.408   4.302  0.5521 -0.5223 -0.7929
49999SOL    HW156602   1.378   8.467   4.319 -0.0232 -0.1655  0.5597
49999SOL    HW256603   1.331   8.361   4.223  1.4519  0.8464 -1.3673
50000SOL     OW56604   1.618   5.731   9.383 -0.4299 -0.4965  0.2570
50000SOL    HW156605   1.605   5.810   9.435  0.9423 -0.1720  0.1461
50000SOL    HW256606   1.576   5.662   9.434  1.0804 -0.2386  1.9659
50001SOL     OW56607   1.983   4.400  11.172  0.8232  0.4543 -0.3095
50001SOL    HW156608   2.044   4.409  11.245 -1.3006  0.6997  1.5174
50001SOL    HW256609   1.964   4.307  11.167  0.1469  0.5595  0.1774
50002SOL     OW56610   4.138  11.049   2.503  0.0013 -0.2637  0.2560
50002SOL    HW156611   4.079  10.977   2.525  0.8509 -0.7248  1.1345
50002SOL    HW256612   4.151  11.042   2.408 -2.0993  0.4687 -0.1367
50003SOL     OW56613   3.628   2.106   8.234  0.0315  0.2708 -0.2913
50003SOL    HW156614   3.600   2.050   8.161  0.3781 -1.3307  0.7547
50003SOL    HW256615   3.643   2.192   8.193 -1.8034 -0.0113 -1.7086
50004SOL     OW56616   7.161   6.912  11.011  0.2271  0.0666 -0.4083
50004SOL    HW156617   7.134   6.821  10.998 -0.4106  0.0348  0.9573
50004SOL    HW256618   7.184   6.917  11.104  0.3247  1.2836 -0.4881
50005SOL     OW56619  12.638   1.163   8.705  0.2231  0.2504 -0.1171
50005SOL    HW156620  12.620   1.151   8.798 -0.9774  1.4265 -0.1738
50005SOL    HW256621  12.674   1.251   8.699  2.2631 -0.5471 -0.5473
50006SOL     OW56622   7.328   2.784   5.822  0.2693  0.0588  0.5014
50006SOL    HW156623   7.341   2.831   5.905  0.3672 -0.0192  0.5299
50006SOL    HW256624   7.345   2.850   5.755  0.3679  0.0738  0.5419
50007SOL     OW56625   9.363   0.681   1.589  0.1949 -0.1824 -0.2149
50007SOL    HW156626   9.336   0.760   1.636 -0.0792 -0.6757  0.4782
50007SOL    HW256627   9.444   0.705   1.545 -1.3208  1.3912 -2.4274
50008SOL     OW56628   1.979   5.460   5.708 -0.5836  0.9608 -0.9204
50008SOL    HW156629   1.897   5.495   5.672 -1.0648  1.2362  0.3920
50008SOL    HW256630   1.955   5.374   5.742 -0.2755  0.9535 -0.7225
50009SOL     OW56631   2.343   4.176  10.163 -0.2133 -0.0687  0.4356
50009SOL    HW156632   2.424   4.129  10.185 -0.5074 -1.0015 -0.3714
50009SOL    HW256633   2.279   4.144  10.226 -0.1400  0.0907  0.5909
50010SOL     OW56634   0.811   3.769   7.840  0.2548 -0.0064 -0.1278
50010SOL    HW156635   0.847   3.784   7.753 -0.6236 -0.6857 -0.6322
50010SOL    HW256636   0.750   3.696   7.828  0.1245 -0.1156  1.0600
50011SOL     OW56637   8.760   6.282   3.204  0.1081 -0.0062 -0.4569
50011SOL    HW156638   8.734   6.353   3.264 -0.3851  0.1976 -0.9030
50011SOL    HW256639   8.687   6.221   3.208  0.3715 -0.3162 -0.3538
50012SOL     OW56640   7.626   6.943   2.697 -0.2093  0.5658  0.0163
50012SOL    HW156641   7.637   6.926   2.791  1.1982 -1.0561 -0.3877
50012SOL    HW256642   7.652   7.034   2.686  0.9750  0.3824  1.0369
50013SOL     OW56643   8.902   7.448  12.643 -0.2132  0.3643 -0.4358
50013SOL    HW156644   8.957   7.504  12.589  0.9341  1.1599  1.4459
50013SOL    HW256645   8.937   7.360  12.631  2.2549  0.9629  1.4604
50014SOL     OW56646   6.092   2.579   9.213  0.4698 -0.0706  0.3726
50014SOL    HW156647   6.152   2.642   9.175 -0.2594  0.2375 -0.2910
50014SOL    HW256648   6.006   2.620   9.206  0.1279 -0.6526  0.9853
50015SOL     OW56649   6.100   9.705   3.974 -0.1839 -0.2138  0.0115
50015SOL    HW156650   6.036   9.737   3.912 -0.1513  0.9259  0.5416
50015SOL    HW256651   6.121   9.781   4.029 -0.5416 -1.2727  1.6906
50016SOL     OW56652   1.803   3.329   7.178 -0.0429 -0.2744  0.1019
50016SOL    HW156653   1.865   3.338   7.250  0.0449 -0.3118  0.0314
50016SOL    HW256654   1.719   3.317   7.220 -0.1142  0.5148  0.2054
50017SOL     OW56655   2.986   2.486  11.514 -0.1043  0.1646  0.2185
50017SOL    HW156656   2.944   2.405  11.487 -0.2442  0.3070  0.0053
50017SOL    HW256657   3.032   2.518  11.436 -2.1426  1.6072 -0.4895
50018SOL     OW56658  12.412   0.887   7.269 -0.2435  0.6796  0.2975
50018SOL    HW156659  12.458   0.874   7.186 -0.9765 -0.0610 -0.0092
50018SOL    HW256660  12.343   0.821   7.269  0.7999 -0.5446  2.2720
50019SOL     OW56661  11.319   2.098  10.067 -0.4665 -0.3702 -0.2879
50019SOL    HW156662  11.329   2.028  10.003 -0.1766  2.2751 -3.4080
50019SOL    HW256663  11.226   2.100  10.087 -0.8270 -0.3684 -1.8218
50020SOL     OW56664  11.949  10.166  10.232  0.0786 -0.1732 -0.0536
50020SOL    HW156665  11.895  10.244  10.232  0.6651  0.2490 -1.0295
50020SOL    HW256666  11.918  10.114  10.158 -0.0530 -0.6964  0.3573
50021SOL     OW56667   9.532   8.517   0.621  0.1497 -0.2735  0.1343
50021SOL    HW156668   9.623   8.503   0.594  0.5342  1.9072  0.0821
50021SOL    HW256669   9.507   8.436   0.664  2.5861 -0.4673  1.3792
50022SOL     OW56670   0.689   2.887   0.051 -0.0254 -0.6765  0.0066
50022SOL    HW156671   0.647   2.966   0.018 -0.3203 -1.2358 -0.9878
50022SOL    HW256672   0.644   2.815   0.007  0.4617 -1.3932  0.6409
50023SOL     OW56673   3.367  11.396   1.165 -0.1384  0.2822 -0.0764
50023SOL    HW156674   3.429  11.469   1.170  0.8909 -0.4105 -1.7492
50023SOL    HW256675   3.370  11.369   1.073 -2.6520 -0.0410 -0.1163
50024SOL     OW56676  11.487   7.539   3.493 -0.1235 -0.1606  0.5909
50024SOL    HW156677  11.555   7.550   3.560  0.5726  0.7164 -0.2323
50024SOL    HW256678  11.508   7.604   3.426 -0.1744 -1.6831 -0.9907
50025SOL     OW56679   8.457   0.097   8.751  0.2679 -0.2209 -0.9253
50025SOL    HW156680   8.505   0.157   8.694  1.2992  0.1194  0.2732
50025SOL    HW256681   8.418   0.152   8.818  1.9425 -0.9262  0.6930
50026SOL     OW56682   5.375   3.721   1.099 -0.3779 -0.3492  0.3988
50026SOL    HW156683   5.322   3.798   1.079 -0.2138 -0.4662 -0.5610
50026SOL    HW256684   5.407   3.691   1.013  0.4473 -0.8403  0.8617
50027SOL     OW56685   9.157   2.047   3.450 -0.0069 -0.1547 -0.0463
50027SOL    HW156686   9.114   2.038   3.365  1.6357  2.7448 -1.3360
50027SOL    HW256687   9.100   2.105   3.500  0.1010 -0.1256  0.0433
50028SOL     OW56688   5.955  10.380   8.152 -0.2092  0.2918 -0.4893
50028SOL    HW156689   5.904  10.439   8.097 -1.3289 -0.0516  0.1544
50028SOL    HW256690   5.933  10.405   8.242 -2.0586 -2.1535 -0.1620
50029SOL     OW56691   7.713   7.733   8.122 -0.5814  0.4820 -0.1647
50029SOL    HW156692   7.672   7.780   8.050 -1.2017  0.2362  0.0218
50029SOL    HW256693   7.665   7.763   8.200  1.3894  2.3073  0.4481
50030SOL     OW56694   9.297   5.695  10.729  0.2900 -0.1680  0.0648
50030SOL    HW156695   9.334   5.734  10.808 -0.6817 -0.5276  0.7126
50030SOL    HW256696   9.208   5.673  10.753 -0.6220  1.3392 -1.6669
50031SOL     OW56697   0.582   1.673   2.702  0.4276  0.0803  0.6385
50031SOL    HW156698   0.568   1.588   2.660 -0.5684  0.0280  1.0456
50031SOL    HW256699   0.670   1.668   2.739 -0.0461 -1.2059  1.6470
50032SOL     OW56700   7.598   8.287   6.553  0.1111  0.5494 -0.3810
50032SOL    HW156701   7.593   8.341   6.632  0.3189  0.8925 -0.6043
50032SOL    HW256702   7.512   8.245   6.548  0.2305  0.2137  0.2499
50033SOL     OW56703   3.380   0.681  10.279  0.2636  0.3341  0.0403
50033SOL    HW156704   3.335   0.600  10.256 -0.1104  0.0213  1.7802
50033SOL    HW256705   3.317   0.750  10.256  0.9489  0.2659 -2.3545
50034SOL     OW56706   8.292   4.570   8.567  0.1047 -0.2577 -0.5040
50034SOL    HW156707   8.248   4.500   8.519  0.8348 -1.4254  0.4501
50034SOL    HW256708   8.302   4.535   8.656  1.0399  0.8185 -0.1636
50035SOL     OW56709   3.939   2.324   1.064 -0.4047 -0.3649  0.4932
50035SOL    HW156710   3.926   2.291   0.975 -1.0084 -2.0203  1.1692
50035SOL    HW256711   3.896   2.261   1.120 -0.6068  1.0008  1.9482
50036SOL     OW56712   8.375   7.624   7.988  0.3851 -0.5417 -0.1369
50036SOL    HW156713   8.406   7.626   7.897 -0.4822  0.3532 -0.4290
50036SOL    HW256714   8.427   7.554   8.029 -0.7304 -2.5035 -1.8793
50037SOL     OW56715   6.369   5.304  11.373 -0.5416 -0.6081  0.0853
50037SOL    HW156716   6.284   5.300  11.331 -1.2292 -0.0488  1.3680
50037SOL    HW256717   6.378   5.395  11.401  0.3783 -0.7112  0.1697
50038SOL     OW56718   1.970   8.658   0.022 -0.5871  0.0140  0.0029
50038SOL    HW156719   2.023   8.600   0.077  0.9463  2.1764  0.9769
50038SOL    HW256720   1.952   8.608  -0.057  0.8949 -1.6596  0.6670
50039SOL     OW56721   3.836  11.134   7.908  0.5593  0.0054 -0.0274
50039SOL    HW156722   3.778  11.073   7.862 -1.3029  1.3078  0.4798
50039SOL    HW256723   3.826  11.217   7.860 -0.4005  1.0389  1.8469
50040SOL     OW56724  10.397   5.306   3.443  0.5091 -0.7224 -0.1119
50040SOL    HW156725  10.358   5.225   3.411  0.9605 -0.7875 -0.5005
50040SOL    HW256726  10.491   5.289   3.444  0.6171 -0.1447 -0.3589
50041SOL     OW56727   0.286  10.065   7.272 -0.5405 -0.3162  0.2532
50041SOL    HW156728   0.309  10.151   7.305  1.3060 -0.7298  0.1067
50041SOL    HW256729   0.208  10.081   7.218 -1.6118  0.8697  2.0294
50042SOL     OW56730   3.190   4.898   7.863 -0.7297 -0.3529  0.6292
50042SOL    HW156731   3.170   4.919   7.772 -1.1115 -1.1693  0.5114
50042SOL    HW256732   3.232   4.977   7.898  0.2166 -0.3339 -0.4930
50043SOL     OW56733   8.219   4.940   4.996 -0.4300 -0.0610  0.2348
50043SOL    HW156734   8.211   5.003   4.924 -0.5880  0.7855  0.9727
50043SOL    HW256735   8.144   4.959   5.053 -0.4350 -0.8725  0.5112
50044SOL     OW56736  10.250  12.587   2.151  0.5852  0.1527 -0.0747
50044SOL    HW156737  10.270  12.502   2.189  0.2089  0.5122  0.9809
50044SOL    HW256738  10.316  12.646   2.187 -0.5614  0.7631  1.1260
50045SOL     OW56739   4.631   1.819  11.445  0.2270  0.1322  0.1829
50045SOL    HW156740   4.717   1.830  11.484  0.7605 -0.6474 -0.7285
50045SOL    HW256741   4.570   1.851  11.511  1.2799  2.1324  0.2477
50046SOL     OW56742   6.778   8.456   7.864 -0.2671  0.5176  0.1961
50046SOL    HW156743   6.790   8.428   7.955 -1.0529 -3.0771 -0.6395
50046SOL    HW256744   6.684   8.477   7.858 -0.1432  1.1073  0.2803
50047SOL     OW56745   9.601   9.395  12.492  0.1041  0.2315  0.4062
50047SOL    HW156746   9.538   9.450  12.446  0.2513  0.9752  1.0863
50047SOL    HW256747   9.557   9.369  12.573  0.4687  0.3161  0.6367
50048SOL     OW56748   1.078   1.814  12.402 -0.0068  0.7373 -0.1897
50048SOL    HW156749   1.035   1.805  12.317 -0.2141  1.8224 -0.2140
50048SOL    HW256750   1.060   1.731  12.447 -1.1574  0.7347 -0.6324
50049SOL     OW56751   8.420   4.561  11.008 -0.1786 -0.6841  0.6533
50049SOL    HW156752   8.421   4.655  10.991 -1.0172 -0.6870  0.5626
50049SOL    HW256753   8.403   4.521  10.922  2.3320 -1.0591  0.2357
50050SOL     OW56754   7.044   5.468   2.069  0.4033  0.1045 -0.2872
50050SOL    HW156755   7.105   5.513   2.127  1.1021  0.1902 -1.0661
50050SOL    HW256756   6.984   5.422   2.128  0.4647  1.0019  0.5039
50051SOL     OW56757   7.168  12.496   9.026  0.2586  0.3823 -0.0798
50051SOL    HW156758   7.153  12.401   9.023 -0.9050  0.5198  0.8724
50051SOL    HW256759   7.255  12.505   9.065  0.0531 -0.2729  0.5500
50052SOL     OW56760   1.867   1.895   1.370 -0.2274  0.1498  0.7370
50052SOL    HW156761   1.812   1.826   1.333  0.8050 -0.2065 -0.1743
50052SOL    HW256762   1.823   1.976   1.346  0.5382 -0.0482 -1.5973
50053SOL     OW56763   7.539  12.311   4.633 -0.6128 -0.5477  0.2258
50053SOL    HW156764   7.494  12.276   4.710  0.9677 -1.5147  0.7531
50053SOL    HW256765   7.571  12.234   4.587 -1.5779  0.0127 -1.4766
50054SOL     OW56766   8.848   1.196   7.317 -0.1040 -0.1029 -0.3187
50054SOL    HW156767   8.776   1.247   7.355 -0.7907 -1.2936  0.0174
50054SOL    HW256768   8.925   1.222   7.368 -0.6940 -0.3920  0.7570
50055SOL     OW56769   0.997   5.955   8.927  0.0397  0.4158 -0.0779
50055SOL    HW156770   1.035   5.909   8.853  0.3351  1.7775 -0.8000
50055SOL    HW256771   1.061   5.944   8.998  1.0789  1.3524 -0.8229
50056SOL     OW56772  11.862   8.481   2.661 -0.0677  0.4069 -0.0492
50056SOL    HW156773  11.926   8.510   2.726  0.8882  0.9757 -1.2069
50056SOL    HW256774  11.854   8.556   2.601 -1.3070  0.0841 -0.3199
50057SOL     OW56775   5.019   5.703   8.754 -0.3407 -0.1278  0.2915
50057SOL    HW156776   4.951   5.766   8.779  0.1129 -0.2381  1.9093
50057SOL    HW256777   5.101   5.751   8.766  0.0126 -0.9890  1.5401
50058SOL     OW56778   6.023  10.832   4.278 -0.2957  0.1137 -0.6906
50058SOL    HW156779   6.116  10.844   4.294  0.1883 -0.7011 -2.6104
50058SOL    HW256780   5.981  10.901   4.329  1.2932  0.1404  0.6605
50059SOL     OW56781   0.992  12.087   6.825 -0.0334  0.0626 -0.4234
50059SOL    HW156782   0.907  12.043   6.814 -0.2043  0.3977 -0.4609
50059SOL    HW256783   1.033  12.081   6.739  0.5634 -1.2786 -0.0766
50060SOL     OW56784   9.028   0.307   5.100  0.1979  0.4206 -0.5270
50060SOL    HW156785   9.022   0.260   5.183 -0.6310  0.7731 -0.3806
50060SOL    HW256786   9.117   0.290   5.070  0.2602 -0.3380  0.0553
50061SOL     OW56787  11.596   3.108   9.444  0.1054 -0.0883 -0.1536
50061SOL    HW156788  11.504   3.098   9.468  0.5636 -2.3294  0.9163
50061SOL    HW256789  11.608   3.049   9.369  0.9635 -0.9239  0.6187
50062SOL     OW56790   6.166  10.143   6.013 -0.6563  0.4653  0.1873
50062SOL    HW156791   6.188  10.082   6.083  0.5695  2.7279  1.9386
50062SOL    HW256792   6.219  10.114   5.939 -0.1425 -0.6304  0.9554
50063SOL     OW56793   7.777   4.866   3.998  0.3212 -0.0582  0.5187
50063SOL    HW156794   7.809   4.908   3.919 -0.2667  1.4218  1.0337
50063SOL    HW256795   7.776   4.935   4.064  0.1957 -1.1040  1.6605
50064SOL     OW56796   0.366  11.956   5.240 -0.0740 -0.0733 -0.4854
50064SOL    HW156797   0.273  11.981   5.237  0.4275  1.9193 -1.4049
50064SOL    HW256798   0.384  11.923   5.152  0.3132  0.4780 -0.6152
50065SOL     OW56799   3.461   8.751   4.044 -0.0608  0.3564  0.7324
50065SOL    HW156800   3.544   8.752   4.092 -0.4926  0.3334  1.4990
50065SOL    HW256801   3.473   8.683   3.978  1.3380  1.8620 -0.6725
50066SOL     OW56802   8.925   5.206   1.826 -0.1430 -0.1447  0.1709
50066SOL    HW156803   8.982   5.258   1.883  0.6056  0.1594 -0.8281
50066SOL    HW256804   8.958   5.223   1.738 -1.7453 -0.0043 -0.4365
50067SOL     OW56805   2.783   6.472   2.225 -0.4364  0.6775  0.1112
50067SOL    HW156806   2.805   6.541   2.163 -1.8558  1.9995  1.0258
50067SOL    HW256807   2.708   6.428   2.186  0.6178 -0.5717 -0.5920
50068SOL     OW56808   3.728   6.397   2.541 -0.1897  0.3047  0.2139
50068SOL    HW156809   3.753   6.322   2.488  0.9182 -0.4705  1.7676
50068SOL    HW256810   3.653   6.435   2.495  1.3433  0.3263 -2.4580
50069SOL     OW56811   6.183  11.943   8.940  0.2970  0.6895 -0.3838
50069SOL    HW156812   6.130  11.989   9.005 -1.1348  0.7503 -1.5633
50069SOL    HW256813   6.211  12.012   8.879 -0.9474  0.2025 -1.5454
50070SOL     OW56814  10.724   4.229   8.533  0.2434  0.8443 -0.1769
50070SOL    HW156815  10.795   4.175   8.499  1.1509  0.6070  1.9283
50070SOL    HW256816  10.767   4.299   8.581 -0.9520  1.3602  0.1830
50071SOL     OW56817  10.899  10.954   4.067  0.0105 -0.3878  0.3864
50071SOL    HW156818  10.989  10.960   4.037 -0.0393 -0.1243  0.2896
50071SOL    HW256819  10.902  10.893   4.141  0.2524 -0.4422  0.3310
50072SOL     OW56820  12.172   1.118   8.772 -0.3419  0.3265 -0.0980
50072SOL    HW156821  12.103   1.056   8.795  0.4439 -0.3613  0.4867
50072SOL    HW256822  12.203   1.089   8.686  0.6313 -0.6856  0.5589
50073SOL     OW56823   3.987   1.880  12.604  0.5814 -0.7438 -0.1379
50073SOL    HW156824   3.975   1.941  12.532  0.7279 -1.1011 -0.4694
50073SOL    HW256825   3.899   1.858  12.634  0.5449  0.6511  0.8656
50074SOL     OW56826   3.496   8.985  10.304  0.0277 -0.2585  0.6349
50074SOL    HW156827   3.450   8.902  10.311 -0.2276 -0.1565  0.2008
50074SOL    HW256828   3.475   9.017  10.216 -1.4366  1.1933  1.4501
50075SOL     OW56829   6.859  10.361   5.783  0.5548 -0.3293 -0.4276
50075SOL    HW156830   6.804  10.418   5.837  1.1314  1.2395 -1.4167
50075SOL    HW256831   6.939  10.411   5.769  1.3880 -1.7013 -0.7476
50076SOL     OW56832   8.613   5.679   3.351  0.1387 -0.1640 -0.8676
50076SOL    HW156833   8.653   5.608   3.300  0.2853 -0.0118 -0.9672
50076SOL    HW256834   8.546   5.636   3.403 -0.1637 -0.2925 -1.3502
50077SOL     OW56835   9.186   5.441   2.693 -0.5104 -0.2220  0.2307
50077SOL    HW156836   9.229   5.524   2.672 -1.0813  0.0273  0.0333
50077SOL    HW256837   9.128   5.462   2.766 -1.7490 -0.1047 -0.7584
50078SOL     OW56838   1.459   1.199  10.704  0.1436  0.1954 -0.1834
50078SOL    HW156839   1.544   1.242  10.690  0.6892 -0.6720  0.3841
50078SOL    HW256840   1.447   1.143  10.628  0.9086 -0.9881  0.5447
50079SOL     OW56841   7.346   5.089   0.343  0.8030 -0.6538 -0.4422
50079SOL    HW156842   7.282   5.157   0.320  0.7491 -0.2278  0.8370
50079SOL    HW256843   7.427   5.137   0.362  0.6611 -0.8680  0.8485
50080SOL     OW56844  12.645   0.970   1.139  0.8167  0.6955 -0.3552
50080SOL    HW156845  12.593   1.045   1.168 -0.3331 -0.2145 -0.0207
50080SOL    HW256846  12.662   0.920   1.218  0.6823  0.0554 -0.7242
50081SOL     OW56847   9.082   7.581  12.449 -0.1233 -0.1884  0.0120
50081SOL    HW156848   9.080   7.554  12.357  1.6743  2.0314 -0.7581
50081SOL    HW256849   9.167   7.552  12.481 -0.3104 -0.0156  0.6791
50082SOL     OW56850  10.898   9.459   8.535 -0.0995  0.1085  0.4779
50082SOL    HW156851  10.935   9.461   8.447  3.1352 -0.0659  1.7173
50082SOL    HW256852  10.807   9.432   8.522  0.7727 -1.7564 -2.6480
50083SOL     OW56853   1.227  11.838   9.039  0.7776 -0.0403 -0.3697
50083SOL    HW156854   1.175  11.890   8.978 -0.1160 -1.2709 -0.6880
50083SOL    HW256855   1.311  11.885   9.045  1.0249 -0.0571 -2.8123
50084SOL     OW56856   9.227  12.489   8.878 -0.4805  0.7304  0.2002
50084SOL    HW156857   9.285  12.528   8.943  0.2295 -0.6257  0.4281
50084SOL    HW256858   9.176  12.424   8.927  0.6067 -0.8684 -0.6672
50085SOL     OW56859   9.760   1.091   7.694 -0.9735 -0.5562  0.0606
50085SOL    HW156860   9.765   1.021   7.629  3.0215 -1.3051  0.9636
50085SOL    HW256861   9.806   1.165   7.653  1.4285 -0.9719  1.7892
50086SOL     OW56862   5.785   8.799   2.428 -0.2072 -0.0305 -0.3002
50086SOL    HW156863   5.721   8.871   2.423  0.5889  0.7363  0.2606
50086SOL    HW256864   5.757   8.748   2.505 -0.1891  0.2664 -0.0936
50087SOL     OW56865   0.592   8.392  11.577 -0.5758  0.0776  0.4198
50087SOL    HW156866   0.599   8.450  11.653 -1.3131  1.7130 -0.6965
50087SOL    HW256867   0.534   8.438  11.517  1.5597 -0.1972 -2.0147
50088SOL     OW56868   8.520   0.338  10.466  0.2379  0.4319 -0.5276
50088SOL    HW156869   8.548   0.354  10.556  1.2693 -0.7584 -0.6104
50088SOL    HW256870   8.589   0.377  10.412 -0.4007  1.1853 -0.8250
50089SOL     OW56871   4.902  11.755   8.257 -0.2912 -0.0401 -0.0966
50089SOL    HW156872   4.995  11.762   8.234 -0.6548 -0.4792 -1.8896
50089SOL    HW256873   4.900  11.693   8.330  0.8658  0.4107  0.3358
50090SOL     OW56874   9.289   4.435  12.315  0.4623  0.1222 -0.5446
50090SOL    HW156875   9.289   4.375  12.240  1.9569 -0.3956 -0.1678
50090SOL    HW256876   9.363   4.407  12.368 -0.5542  0.4982  1.1369
50091SOL     OW56877   6.541   8.518   2.176 -0.6140  0.0007 -0.2919
50091SOL    HW156878   6.454   8.508   2.139 -0.6567  1.0282 -0.5043
50091SOL    HW256879   6.526   8.529   2.270 -0.7139  0.0522 -0.3134
50092SOL     OW56880   3.247   5.474   2.986  0.0641  0.1115 -0.1524
50092SOL    HW156881   3.200   5.525   2.921  0.3134 -0.8091 -1.0715
50092SOL    HW256882   3.323   5.527   3.009  0.6485 -0.0916 -1.5487
50093SOL     OW56883  11.193   6.463   4.722  0.6061  0.6914 -0.3500
50093SOL    HW156884  11.244   6.522   4.666  0.9839  0.3337 -0.3854
50093SOL    HW256885  11.187   6.382   4.672 -0.0649  0.7491 -0.3768
50094SOL     OW56886   4.917   7.623   7.818  0.1019 -0.1754  0.5452
50094SOL    HW156887   4.900   7.540   7.774 -1.8442 -0.5477  1.8479
50094SOL    HW256888   4.840   7.677   7.797  1.4269  1.4184 -0.4553
50095SOL     OW56889  11.985   4.975  12.593 -0.0507 -0.0931 -0.7427
50095SOL    HW156890  11.965   4.982  12.500 -0.6828  0.4373 -0.5705
50095SOL    HW256891  11.905   4.939  12.632  0.0225  0.1869 -0.3308
50096SOL     OW56892   3.553   6.796   4.516 -0.0452 -0.3875 -0.2790
50096SOL    HW156893   3.629   6.748   4.482  1.3124  0.0785  1.8836
50096SOL    HW256894   3.532   6.753   4.599 -0.5141  1.0668  0.3940
50097SOL     OW56895   7.886   2.750  10.194 -0.2495 -0.3729 -0.5217
50097SOL    HW156896   7.907   2.669  10.147 -0.2264  0.8167 -2.7287
50097SOL    HW256897   7.824   2.795  10.136 -0.7858  0.8827  0.9793
50098SOL     OW56898   3.571   0.905   6.767 -0.3986 -0.5143 -0.1704
50098SOL    HW156899   3.559   0.857   6.849  0.2274 -0.9304 -0.3100
50098SOL    HW256900   3.588   0.837   6.702 -3.2555 -0.3897 -1.1582
50099SOL     OW56901   3.473   5.267   4.924 -0.1464 -0.3043 -0.5362
50099SOL    HW156902   3.405   5.213   4.963  0.5849 -1.3526 -0.6642
50099SOL    HW256903   3.531   5.205   4.880  0.9080  0.5545 -0.4025
50100SOL     OW56904   9.769   4.889  12.433 -0.5458  0.6485  0.6098
50100SOL    HW156905   9.849   4.932  12.402 -0.5004 -0.8166 -1.4725
50100SOL    HW256906   9.785   4.796  12.420 -2.3567  0.2924  0.7292
50101SOL     OW56907   4.198   6.061   4.940  0.1251  0.3258 -0.2785
50101SOL    HW156908   4.120   6.116   4.939 -0.3841 -0.3735 -1.5777
50101SOL    HW256909   4.179   5.991   5.001  0.9017  1.6906  1.6450
50102SOL     OW56910   4.154   4.562   5.830 -0.1166 -0.9606 -0.7199
50102SOL    HW156911   4.064   4.531   5.818 -0.8037  0.2657  0.9021
50102SOL    HW256912   4.177   4.537   5.919  1.3879 -1.7450 -1.2923
50103SOL     OW56913   1.172   1.177   2.000  0.2182 -0.7361  0.1374
50103SOL    HW156914   1.222   1.258   2.012 -2.5795  1.0726  0.6168
50103SOL    HW256915   1.238   1.109   1.990  2.7277  1.3471  1.3639
50104SOL     OW56916   3.779   7.857   3.470 -0.2042 -0.0404 -0.6934
50104SOL    HW156917   3.761   7.941   3.428 -0.8604  0.1745  0.0153
50104SOL    HW256918   3.867   7.867   3.507 -0.1094  0.1831 -0.9748
50105SOL     OW56919   7.338  11.858   3.171  0.1356  0.0924 -0.4357
50105SOL    HW156920   7.405  11.851   3.103  0.3481  2.0859 -0.5113
50105SOL    HW256921   7.260  11.817   3.134  0.7650 -0.4704 -1.1430
50106SOL     OW56922   5.389   5.091  10.043  0.2073 -0.3254  0.3969
50106SOL    HW156923   5.307   5.134  10.066  0.1627 -0.5967  0.7504
50106SOL    HW256924   5.440   5.091  10.123  1.7233  2.3555 -0.4557
50107SOL     OW56925   2.424   6.910   2.133 -0.2143 -0.2565 -0.1724
50107SOL    HW156926   2.393   6.990   2.175 -0.0284  0.2866 -1.0479
50107SOL    HW256927   2.367   6.841   2.167  0.2026  0.0942  1.2853
50108SOL     OW56928  10.329   9.987   0.611  0.0074  0.0807 -0.0645
50108SOL    HW156929  10.301  10.012   0.523  0.0981  0.0059 -0.1153
50108SOL    HW256930  10.407  10.040   0.627 -0.5117  0.7409  0.3199
50109SOL     OW56931   9.339   2.907   9.554  0.1924  0.1188  0.1350
50109SOL    HW156932   9.335   2.947   9.641 -1.0454  0.5062 -0.0690
50109SOL    HW256933   9.405   2.838   9.561 -0.4096 -0.3363  1.5827
50110SOL     OW56934  12.443   2.113  11.458  0.1315  0.3105 -0.1828
50110SOL    HW156935  12.350   2.138  11.458  0.3294  1.1460  0.9539
50110SOL    HW256936  12.489   2.194  11.435  0.5740 -0.1300 -0.8599
50111SOL     OW56937   7.867   2.226  11.577 -0.2782 -0.1369  0.1466
50111SOL    HW156938   7.800   2.157  11.567  1.7358 -2.0620 -0.9512
50111SOL    HW256939   7.929   2.190  11.641 -0.1182  1.5175  0.9800
50112SOL     OW56940   1.284   7.753   0.179  0.2845  0.3694  0.1080
50112SOL    HW156941   1.288   7.808   0.257 -0.5849  0.5737  0.0230
50112SOL    HW256942   1.346   7.682   0.197 -0.1132  0.2515  1.1232
50113SOL     OW56943   4.250   4.815   7.896 -0.1868 -0.1846 -0.4164
50113SOL    HW156944   4.345   4.815   7.907 -0.1312 -0.3133 -0.8516
50113SOL    HW256945   4.232   4.736   7.844 -0.6659 -0.8124  0.6830
50114SOL     OW56946   3.363   7.198  11.073 -0.6364 -0.3038 -0.3501
50114SOL    HW156947   3.282   7.194  11.022 -0.1386  0.0970 -1.2004
50114SOL    HW256948   3.433   7.197  11.007  0.0359  0.0205  0.3367
50115SOL     OW56949   5.677   9.199  12.520 -0.0833 -0.2860 -0.3272
50115SOL    HW156950   5.677   9.245  12.604  0.2858 -2.0649  0.6903
50115SOL    HW256951   5.624   9.121  12.535 -1.9790  0.5177 -2.4576
50116SOL     OW56952  11.495  11.212  11.382 -0.2025  0.1712  0.4754
50116SOL    HW156953  11.514  11.150  11.452 -1.5196  0.4665  1.1195
50116SOL    HW256954  11.509  11.162  11.301 -1.7641 -1.1762  0.9814
50117SOL     OW56955   8.642   7.825   9.065 -0.2386  0.0773 -0.0514
50117SOL    HW156956   8.669   7.895   9.125  2.3222 -1.8656  1.2686
50117SOL    HW256957   8.547   7.827   9.067 -0.2438  2.7204  0.8765
50118SOL     OW56958   8.370   2.348   6.978 -0.4130 -0.1349  0.3780
50118SOL    HW156959   8.353   2.361   7.071  0.2530  0.2666  0.4485
50118SOL    HW256960   8.458   2.384   6.964 -0.3295 -0.5793 -0.3173
50119SOL     OW56961   6.753  10.337   9.807  0.0239  0.1499 -0.5044
50119SOL    HW156962   6.696  10.367   9.878  0.6384 -0.5949  0.3299
50119SOL    HW256963   6.785  10.252   9.837 -0.1050 -0.4165 -1.9162
50120SOL     OW56964   6.238   0.835   7.139  0.4323  0.0301 -0.1582
50120SOL    HW156965   6.207   0.921   7.111  0.0347 -0.2856 -0.7119
50120SOL    HW256966   6.317   0.820   7.087  0.4329  0.0052 -0.1496
50121SOL     OW56967  12.698   1.887   6.672  0.3068  0.4437 -0.2557
50121SOL    HW156968  12.698   1.956   6.739  2.0322 -0.1645  0.4172
50121SOL    HW256969  12.709   1.806   6.722 -0.6897 -0.2426 -1.1167
50122SOL     OW56970   0.991   0.641   6.229  0.3431  0.2469  0.1003
50122SOL    HW156971   0.927   0.708   6.251  0.7886  0.3718  1.0966
50122SOL    HW256972   0.944   0.558   6.241  0.6676  0.2848  2.0967
50123SOL     OW56973   0.084  10.575   7.238  0.4524 -0.8233 -1.0280
50123SOL    HW156974   0.013  10.524   7.278  1.6097 -2.1866 -0.6352
50123SOL    HW256975   0.041  10.655   7.209 -0.8992 -0.7649  0.8962
50124SOL     OW56976  10.626   2.365   9.206 -0.2866 -0.3948 -0.3525
50124SOL    HW156977  10.536   2.351   9.177 -0.8185  0.6123  0.7648
50124SOL    HW256978  10.620   2.431   9.275  1.3840  0.2129 -0.7409
50125SOL     OW56979   8.790   3.808   4.746  0.5865 -0.2931  0.8983
50125SOL    HW156980   8.872   3.758   4.739 -0.0294 -1.1529 -0.5402
50125SOL    HW256981   8.758   3.787   4.834  1.4180 -0.7141  1.1190
50126SOL     OW56982   0.031  12.100   7.509 -0.0918 -0.2179 -0.1166
50126SOL    HW156983   0.013  12.116   7.416  0.4024 -0.2022 -0.2149
50126SOL    HW256984   0.065  12.183   7.541  0.8711 -0.5538 -0.2177
50127SOL     OW56985   7.739   6.612   7.012  0.0362  0.0334 -0.2616
50127SOL    HW156986   7.699   6.575   7.091 -0.4713  1.0307 -0.0386
50127SOL    HW256987   7.809   6.551   6.991  0.9146  0.3116  1.6146
50128SOL     OW56988   2.475  12.262  11.975 -0.2908 -0.6394  0.5342
50128SOL    HW156989   2.449  12.188  11.920  1.1226 -1.6066  1.1207
50128SOL    HW256990   2.526  12.319  11.917 -0.7922 -0.4624  0.2607
50129SOL     OW56991   2.800   4.191   0.115 -0.5300 -0.6028 -0.1427
50129SOL    HW156992   2.764   4.179   0.203 -0.5403 -0.0652 -0.0701
50129SOL    HW256993   2.879   4.243   0.129  0.5130 -2.0945 -0.2570
50130SOL     OW56994  11.395  10.462   2.143  0.3179  0.2098  0.0571
50130SOL    HW156995  11.419  10.554   2.136 -0.3807  0.3471 -0.7299
50130SOL    HW256996  11.402  10.428   2.054  0.4625 -0.4786  0.3187
50131SOL     OW56997   4.342   0.135   0.428  0.3442  0.3482  0.3637
50131SOL    HW156998   4.372   0.213   0.381 -1.0771  0.8159  0.1755
50131SOL    HW256999   4.387   0.062   0.386 -0.4005  0.8235 -1.3131
50132SOL     OW57000   4.201   8.559   0.362  0.4367 -0.2728 -0.5569
50132SOL    HW157001   4.292   8.579   0.381  0.6638 -0.2875 -1.5511
50132SOL    HW257002   4.159   8.552   0.448  0.7453  2.5040 -0.0929
50133SOL     OW57003  10.956   8.382   4.849  0.2922  0.4426 -0.0495
50133SOL    HW157004  10.942   8.433   4.929 -0.7078  0.7588 -0.4076
50133SOL    HW257005  11.012   8.438   4.795  0.5504  0.4498  0.2233
50134SOL     OW57006   4.532   1.333   5.206 -0.3821 -0.2592  0.0117
50134SOL    HW157007   4.488   1.251   5.187  0.2487 -0.3329 -1.2313
50134SOL    HW257008   4.530   1.381   5.124  0.9215  0.1603  0.2052
50135SOL     OW57009  11.817   2.673   5.509  0.2242  0.4558  0.8177
50135SOL    HW157010  11.784   2.715   5.429 -2.1527 -0.8503  1.0150
50135SOL    HW257011  11.746   2.616   5.537  2.2118 -1.5976  2.0892
50136SOL     OW57012   4.993   7.021  12.723 -0.4103 -0.1669  0.2165
50136SOL    HW157013   5.003   6.932  12.690 -4.4003 -0.3468 -1.0283
50136SOL    HW257014   5.010   7.013  12.817  1.3597 -1.7332 -0.1731
50137SOL     OW57015   1.814   7.309   3.976  0.1617  0.4251  0.0763
50137SOL    HW157016   1.887   7.317   3.915 -0.1950 -2.2555 -0.8271
50137SOL    HW257017   1.847   7.252   4.045 -1.0434 -0.9723 -0.4368
50138SOL     OW57018   3.554  10.421   8.987 -0.5001  0.0694 -0.0090
50138SOL    HW157019   3.552  10.358   9.059  0.4684 -0.6121 -0.5552
50138SOL    HW257020   3.644  10.453   8.986 -0.5268  0.1341 -0.8619
50139SOL     OW57021   7.606   1.100   0.592 -0.1538 -0.0423 -0.5625
50139SOL    HW157022   7.648   1.015   0.603  2.3522  1.3622  2.3977
50139SOL    HW257023   7.652   1.141   0.518  0.8361 -0.1321 -0.0133
50140SOL     OW57024   9.461   1.335   5.113 -0.2292 -0.4433 -0.0227
50140SOL    HW157025   9.546   1.376   5.097 -1.1277  1.2727 -0.6540
50140SOL    HW257026   9.442   1.287   5.032 -0.6246  0.6153 -0.5719
50141SOL     OW57027  11.587   9.953   3.731  0.3708 -0.1995 -0.8004
50141SOL    HW157028  11.564  10.035   3.774  1.9434 -0.0946 -0.0834
50141SOL    HW257029  11.559   9.964   3.640  2.4964  2.0055 -1.2644
50142SOL     OW57030   4.115   8.275   4.720 -0.1114  0.6207  0.1201
50142SOL    HW157031   4.082   8.228   4.643  0.0042  0.1961  0.3293
50142SOL    HW257032   4.210   8.267   4.714 -0.1295 -0.1043  0.7396
50143SOL     OW57033   4.602   1.167  11.654 -0.2824  0.6635  0.6476
50143SOL    HW157034   4.619   1.156  11.747  0.4474  2.0902  0.7066
50143SOL    HW257035   4.627   1.258  11.635 -0.6309  0.4716 -0.8883
50144SOL     OW57036   7.490   7.299   2.405 -0.0710  0.3168  0.4701
50144SOL    HW157037   7.426   7.293   2.476 -2.4595  2.4886 -1.3121
50144SOL    HW257038   7.525   7.388   2.413  0.1148  0.3518 -0.6882
50145SOL     OW57039  10.585   6.148   4.155 -0.3472 -0.1055  0.1508
50145SOL    HW157040  10.613   6.062   4.123 -1.6856 -0.0424 -1.3095
50145SOL    HW257041  10.660   6.205   4.139 -0.3377 -0.4775 -1.2382
50146SOL     OW57042   0.250  11.277   0.434  0.6508 -0.1006  0.6177
50146SOL    HW157043   0.245  11.193   0.478 -0.9012 -0.2311  0.2421
50146SOL    HW257044   0.161  11.311   0.436  1.2879  1.6518  0.9560
50147SOL     OW57045  10.662   5.858   4.879 -1.0790 -0.2556  0.1538
50147SOL    HW157046  10.598   5.926   4.858  1.0005  1.9253  0.4261
50147SOL    HW257047  10.656   5.849   4.974 -1.8911 -1.0401  0.0342
50148SOL     OW57048   9.387   0.840   3.101 -0.3351 -0.0814  0.0125
50148SOL    HW157049   9.474   0.800   3.110 -0.0932  0.0897 -1.3573
50148SOL    HW257050   9.390   0.915   3.161  1.1551  1.0155 -1.3514
50149SOL     OW57051   0.361   4.823   9.012 -0.0679 -0.1088 -0.5611
50149SOL    HW157052   0.363   4.784   9.099  0.2061 -0.3795 -0.6896
50149SOL    HW257053   0.434   4.884   9.011 -0.6449  0.6072 -0.2738
50150SOL     OW57054   2.395   3.653   2.445 -0.3819  0.3424  0.4450
50150SOL    HW157055   2.328   3.698   2.395  0.1060 -0.4907 -1.0207
50150SOL    HW257056   2.347   3.591   2.500 -0.8289 -0.4120 -0.7628
50151SOL     OW57057   9.480   3.775   6.392  0.1910 -0.7900  0.4954
50151SOL    HW157058   9.391   3.801   6.366  0.8739  1.4514  0.1985
50151SOL    HW257059   9.515   3.730   6.315  0.1783  0.6287 -0.3681
50152SOL     OW57060  10.400   8.153   2.156  0.2614  0.2266 -0.1494
50152SOL    HW157061  10.376   8.152   2.064 -0.2322  1.1464 -0.0503
50152SOL    HW257062  10.364   8.072   2.192  1.5495 -0.7555 -1.0069
50153SOL     OW57063   7.427   0.196   6.802  0.6662 -0.1705  0.0115
50153SOL    HW157064   7.351   0.145   6.828 -0.3580  1.4095  0.2631
50153SOL    HW257065   7.424   0.197   6.706 -0.6999  1.3674  0.0408
50154SOL     OW57066  12.084   0.307   7.507  0.6918 -0.4199 -0.2283
50154SOL    HW157067  12.169   0.270   7.483  0.5933 -0.8287  0.0473
50154SOL    HW257068  12.037   0.314   7.424 -0.0319 -2.7833 -0.1066
50155SOL     OW57069   9.312   5.198   2.789  0.2073 -0.1847 -0.2014
50155SOL    HW157070   9.369   5.208   2.865  0.6338  0.2160 -0.5714
50155SOL    HW257071   9.303   5.287   2.754 -1.0761 -0.1489  0.1599
50156SOL     OW57072   7.552   3.427  10.288 -0.1108  0.2442 -0.5978
50156SOL    HW157073   7.559   3.331  10.281 -0.9167  0.1879 -0.7003
50156SOL    HW257074   7.632   3.460  10.247  0.7977 -0.4181  0.5844
50157SOL     OW57075   8.679  11.803   2.211 -0.5991 -0.6011 -0.4772
50157SOL    HW157076   8.760  11.814   2.260  0.1387 -1.4409 -1.4626
50157SOL    HW257077   8.653  11.713   2.227 -2.6393  0.2708  1.6944
50158SOL     OW57078   6.675   7.470  11.571 -0.6133  0.3197 -0.3070
50158SOL    HW157079   6.583   7.454  11.593 -0.4930  1.7805  1.4557
50158SOL    HW257080   6.677   7.560  11.538  0.2289  0.3982 -0.0759
50159SOL     OW57081  11.797   4.367  11.071 -0.0699 -0.3139  0.1962
50159SOL    HW157082  11.883   4.393  11.039 -0.5634 -1.1125 -1.9182
50159SOL    HW257083  11.735   4.421  11.021 -0.8605  1.8456  3.1903
50160SOL     OW57084  12.162   7.507   8.064 -0.0313  0.0170  0.4023
50160SOL    HW157085  12.131   7.592   8.096  0.6487  0.0079  1.1216
50160SOL    HW257086  12.100   7.483   7.995  0.2852  1.5082 -0.4381
50161SOL     OW57087   5.523   1.356   9.553  0.0402  0.4707  0.0483
50161SOL    HW157088   5.552   1.268   9.532 -0.6174  0.5775 -1.4608
50161SOL    HW257089   5.436   1.345   9.590 -0.1628  0.4992 -0.4155
50162SOL     OW57090   7.540  12.255   7.300  0.5237 -0.7369 -0.1797
50162SOL    HW157091   7.554  12.179   7.357  1.7681 -2.5344 -2.7439
50162SOL    HW257092   7.445  12.257   7.288  0.5468 -2.7404 -1.1002
50163SOL     OW57093   2.066   8.847   3.514 -0.1989  0.0229 -0.2141
50163SOL    HW157094   2.104   8.777   3.461  1.4332 -1.8905  3.1178
50163SOL    HW257095   2.001   8.803   3.569 -0.6023  1.5177  0.5599
50164SOL     OW57096  10.684  11.231   4.434  0.2046 -0.4645  0.4116
50164SOL    HW157097  10.753  11.199   4.375 -0.0637 -0.7883  0.2700
50164SOL    HW257098  10.730  11.250   4.516  0.3983 -1.1097  0.4616
50165SOL     OW57099   6.808   7.788   3.411 -0.0223 -0.4442 -0.3668
50165SOL    HW157100   6.810   7.723   3.341  1.5541 -0.3389 -0.4556
50165SOL    HW257101   6.869   7.755   3.477 -1.5326 -0.5797  1.0115
50166SOL     OW57102   8.189   3.724   4.089  0.4538  0.4834  0.1061
50166SOL    HW157103   8.236   3.735   4.007  0.6340  1.1863  0.2946
50166SOL    HW257104   8.101   3.698   4.063  0.9453 -0.9283 -0.2451
50167SOL     OW57105   5.429   1.603  10.685  0.2097  0.1413 -0.3926
50167SOL    HW157106   5.400   1.514  10.707 -0.8641  0.3751 -0.7793
50167SOL    HW257107   5.465   1.596  10.597  0.2633  0.0541 -0.3639
50168SOL     OW57108   9.988   3.539  11.816  0.2124 -0.3439  0.0507
50168SOL    HW157109  10.016   3.605  11.879 -0.7150  0.5035 -0.4032
50168SOL    HW257110   9.895   3.556  11.803 -0.1219 -1.9212  0.1357
50169SOL     OW57111   7.928  12.636   6.287 -0.1876  0.6072  0.5283
50169SOL    HW157112   7.962  12.644   6.376 -0.4092  0.3223  0.6412
50169SOL    HW257113   7.837  12.666   6.293 -0.7152 -0.9748  0.7456
50170SOL     OW57114  10.105   1.805  12.195 -0.4399 -0.2069  0.0003
50170SOL    HW157115  10.190   1.761  12.194  0.0930  0.7539  0.6640
50170SOL    HW257116  10.093   1.835  12.105 -0.0271 -0.2858 -0.0865
50171SOL     OW57117   0.301   7.915   6.921 -0.3281 -0.0924 -0.3055
50171SOL    HW157118   0.396   7.910   6.928 -0.4378 -0.8779  0.8345
50171SOL    HW257119   0.274   7.972   6.993 -0.5009  3.1706 -2.7134
50172SOL     OW57120   8.918   0.828   4.202 -0.1614 -0.5453  0.0652
50172SOL    HW157121   8.921   0.777   4.282  0.5325 -0.4598  0.1035
50172SOL    HW257122   8.937   0.918   4.230 -5.3915  0.7080  0.6802
50173SOL     OW57123   6.688   9.507   2.360 -0.2939  0.1264 -0.9635
50173SOL    HW157124   6.644   9.585   2.392 -2.0661 -0.6466 -1.4129
50173SOL    HW257125   6.669   9.506   2.266  2.4067  0.8177 -1.5998
50174SOL     OW57126   7.215   1.558  10.034 -0.2748  0.1522 -0.2477
50174SOL    HW157127   7.156   1.514   9.973 -0.6376  0.6263 -0.2459
50174SOL    HW257128   7.294   1.575   9.982 -0.2579 -0.2082 -0.3387
50175SOL     OW57129   9.164  10.202   1.899 -0.0062 -0.1744  0.6849
50175SOL    HW157130   9.227  10.167   1.835  1.2632  0.9010  1.3020
50175SOL    HW257131   9.211  10.201   1.982 -1.5026 -1.1706  1.5577
50176SOL     OW57132   6.482  11.255   2.921  0.3809  0.1063 -0.4317
50176SOL    HW157133   6.447  11.292   2.840  0.5882 -0.4585 -0.7888
50176SOL    HW257134   6.512  11.331   2.971 -0.1746  0.4970 -0.6782
50177SOL     OW57135  10.538   1.448   1.054  0.5287 -0.4075  0.1545
50177SOL    HW157136  10.570   1.400   0.977 -0.0626  0.4502 -0.6489
50177SOL    HW257137  10.579   1.535   1.047 -1.7679  0.6711 -0.8129
50178SOL     OW57138  12.226   5.685  10.924  0.1450 -0.3414 -0.4349
50178SOL    HW157139  12.210   5.605  10.873 -1.8571  1.0695 -2.2167
50178SOL    HW257140  12.179   5.671  11.006 -0.3287 -0.9499 -0.7994
50179SOL     OW57141   2.259   7.036  10.821  0.2273 -0.2255 -0.1019
50179SOL    HW157142   2.244   6.961  10.764  0.1226  0.0001 -0.3698
50179SOL    HW257143   2.182   7.091  10.811  0.7218  0.3836 -0.6355
50180SOL     OW57144   2.169   5.337   3.928  0.3085  0.1582 -0.6977
50180SOL    HW157145   2.148   5.324   3.836  1.5598  0.0858 -0.9830
50180SOL    HW257146   2.099   5.291   3.975 -0.1260 -0.1339 -1.6057
50181SOL     OW57147   7.135   2.382   2.372 -0.1982  0.1363 -0.4728
50181SOL    HW157148   7.142   2.344   2.460 -1.5931 -0.1565 -0.4611
50181SOL    HW257149   7.225   2.380   2.338  0.5052  0.9217  1.1963
50182SOL     OW57150   8.146   3.085   3.212 -0.1249 -0.6032  0.6377
50182SOL    HW157151   8.208   3.017   3.235  0.8402 -0.2019 -0.6561
50182SOL    HW257152   8.087   3.091   3.287  1.5302 -0.8412  2.0086
50183SOL     OW57153   7.677  12.079   4.565 -0.6564  0.3684  0.1903
50183SOL    HW157154   7.772  12.093   4.570 -0.4974 -0.2340 -0.9978
50183SOL    HW257155   7.657  12.026   4.642 -0.0957  0.8086  0.6489
50184SOL     OW57156   2.896   6.791   6.471 -0.3010 -0.0320  0.4823
50184SOL    HW157157   2.869   6.883   6.476  1.1401  0.5170 -1.1220
50184SOL    HW257158   2.846   6.755   6.398  0.4349 -0.0444 -0.0192
50185SOL     OW57159   5.519  12.290   3.717 -0.3480 -0.2405  0.4103
50185SOL    HW157160   5.564  12.349   3.777  1.4052 -1.9641  0.9039
50185SOL    HW257161   5.537  12.202   3.752 -0.2116 -1.2364 -1.9826
50186SOL     OW57162   3.463   2.551  11.430  0.3356 -0.2205 -0.2965
50186SOL    HW157163   3.457   2.596  11.514 -0.0056  0.8314 -0.8524
50186SOL    HW257164   3.371   2.539  11.404  0.4334  0.6362 -1.0961
50187SOL     OW57165   2.114  11.313   2.056  0.1508  0.4864  0.4040
50187SOL    HW157166   2.143  11.404   2.054  0.8564  0.3074 -2.5247
50187SOL    HW257167   2.027  11.316   2.097  1.0953  2.0852  2.4843
50188SOL     OW57168   9.322   7.553   7.804 -0.1312  0.2025  0.0923
50188SOL    HW157169   9.310   7.598   7.721 -0.4891 -0.9521 -0.5080
50188SOL    HW257170   9.397   7.596   7.845 -1.3465  2.2934  0.2382
50189SOL     OW57171   6.313  10.115   4.676  0.1649 -0.1871 -0.1192
50189SOL    HW157172   6.304  10.144   4.585 -2.4025 -0.7090 -0.1112
50189SOL    HW257173   6.334  10.194   4.725  2.7265 -0.0793 -1.2413
50190SOL     OW57174  12.026   9.944   1.709 -0.0453  0.3646  0.1132
50190SOL    HW157175  11.931   9.930   1.711 -0.1747  1.2184  0.5034
50190SOL    HW257176  12.053   9.913   1.623 -0.7552  0.5298 -0.1762
50191SOL     OW57177   7.792   7.521   1.708 -0.3728 -0.8239 -0.1282
50191SOL    HW157178   7.866   7.581   1.709 -0.7763 -0.3008 -1.1196
50191SOL    HW257179   7.816   7.454   1.773  0.1381  0.3113  0.9101
50192SOL     OW57180   7.145   6.559   3.483  1.3032 -0.7065  0.9420
50192SOL    HW157181   7.214   6.516   3.533  1.8916 -4.0373 -2.3011
50192SOL    HW257182   7.064   6.520   3.515  1.0148  1.2930  2.9305
50193SOL     OW57183   7.055   2.975  11.633 -0.3008  0.1109  0.0341
50193SOL    HW157184   7.053   2.923  11.713  2.0789 -0.2407 -0.0594
50193SOL    HW257185   7.039   2.912  11.563  1.6934 -0.4200 -0.0102
50194SOL     OW57186  10.585   8.490   9.009 -0.0616 -0.1129  0.3367
50194SOL    HW157187  10.513   8.534   9.055 -0.5070 -0.2872 -0.1845
50194SOL    HW257188  10.564   8.500   8.917  1.6485  1.6543  0.0686
50195SOL     OW57189  10.261   9.724   5.460 -0.5267 -0.1780  0.4931
50195SOL    HW157190  10.203   9.746   5.533 -1.4023  0.1619 -0.2762
50195SOL    HW257191  10.330   9.670   5.499 -1.2134 -0.3693  1.4830
50196SOL     OW57192  11.427   0.314   4.075 -0.3031 -0.1788 -0.1343
50196SOL    HW157193  11.485   0.389   4.090 -1.6277  0.8055  0.1973
50196SOL    HW257194  11.473   0.240   4.115  0.1121  0.8272  1.3023
50197SOL     OW57195   9.446  10.345   3.604 -0.0670 -0.3451 -0.4971
50197SOL    HW157196   9.439  10.287   3.680  0.3104  0.2062 -0.0296
50197SOL    HW257197   9.372  10.321   3.548 -0.6637 -0.4052  0.2966
50198SOL     OW57198   4.038   0.889  10.889 -0.1063 -0.0208 -0.2924
50198SOL    HW157199   4.090   0.809  10.885 -0.2996 -0.0909 -2.3304
50198SOL    HW257200   4.098   0.954  10.926  0.7411 -0.6030 -0.6001
50199SOL     OW57201   0.468   0.162   6.856 -0.3634  0.5017  0.0669
50199SOL    HW157202   0.432   0.120   6.778 -0.2745  0.7481 -0.1082
50199SOL    HW257203   0.495   0.248   6.826  0.1786  0.3966  0.2415
50200SOL     OW57204   1.382   3.397   1.210  0.8308 -0.2997 -0.3321
50200SOL    HW157205   1.399   3.489   1.192  2.5139 -0.7868 -1.4782
50200SOL    HW257206   1.387   3.390   1.306  1.6493  0.6408 -0.2921
50201SOL     OW57207   7.822   1.009  12.452 -0.4231 -0.0340 -0.0170
50201SOL    HW157208   7.845   1.073  12.385 -0.8269 -0.6259 -0.7477
50201SOL    HW257209   7.813   1.059  12.532  0.8117  0.5834 -0.2531
50202SOL     OW57210   1.284   0.228  10.245 -0.0461 -0.4769 -0.4324
50202SOL    HW157211   1.242   0.209  10.330  1.3374  1.5417  0.7845
50202SOL    HW257212   1.370   0.187  10.251 -0.2364 -1.0311 -1.2434
50203SOL     OW57213   5.470   4.257   1.576  0.2254 -0.1188 -0.6962
50203SOL    HW157214   5.386   4.211   1.584  0.5769 -0.4221  2.1529
50203SOL    HW257215   5.523   4.200   1.520 -0.3623 -1.6931  0.2895
50204SOL     OW57216   7.970  11.679   3.174 -0.1685  0.3196  0.1999
50204SOL    HW157217   8.028  11.691   3.098 -1.1242  0.1274 -0.5842
50204SOL    HW257218   7.888  11.645   3.136 -0.5905  0.0198  1.3483
50205SOL     OW57219   2.347   4.176   2.736 -0.4920 -0.9598 -0.2694
50205SOL    HW157220   2.266   4.191   2.785 -0.7291 -1.7499 -0.4055
50205SOL    HW257221   2.336   4.226   2.656 -0.7245 -0.8352 -0.1607
50206SOL     OW57222   2.857  10.640   5.420  0.0346 -0.0845  0.5812
50206SOL    HW157223   2.864  10.581   5.345  0.2236  0.8465 -0.1600
50206SOL    HW257224   2.942  10.632   5.464  1.5303  2.2384 -1.5634
50207SOL     OW57225  12.452   0.740   0.181  0.0557  0.8448  0.1217
50207SOL    HW157226  12.462   0.813   0.242 -0.2930  0.7391  0.3134
50207SOL    HW257227  12.361   0.710   0.195  0.9231 -1.2637  1.8932
50208SOL     OW57228   2.112   3.858   3.717  0.0015  0.2385 -0.1170
50208SOL    HW157229   2.062   3.865   3.636 -0.5470  0.3789  0.2258
50208SOL    HW257230   2.196   3.820   3.691  0.2323  1.2472 -0.9075
50209SOL     OW57231   9.338   1.623  11.079 -0.2431  0.0778  0.0280
50209SOL    HW157232   9.371   1.572  11.005  1.1831 -0.0179  0.6954
50209SOL    HW257233   9.306   1.704  11.040 -0.9047 -0.5885 -0.8497
50210SOL     OW57234   6.726   8.654   8.131  0.2327 -0.0419  0.0128
50210SOL    HW157235   6.644   8.703   8.134 -0.2418 -0.8477  1.9138
50210SOL    HW257236   6.700   8.562   8.140  1.3023 -0.3821 -0.1559
50211SOL     OW57237   0.024  10.357   0.163  0.3320 -0.1545  0.4929
50211SOL    HW157238   0.027  10.398   0.076  0.5396  1.3928  1.1853
50211SOL    HW257239   0.116  10.342   0.185  0.4135  1.2072  1.1946
50212SOL     OW57240   9.069   0.216   7.164 -0.2118  0.2104  0.0021
50212SOL    HW157241   9.088   0.221   7.070  0.3326 -0.8147  0.0353
50212SOL    HW257242   9.008   0.288   7.181  0.0096  0.6626 -1.0543
50213SOL     OW57243   9.363   2.313  12.405  0.1200 -0.1209 -0.5188
50213SOL    HW157244   9.368   2.409  12.399 -0.6152 -0.0289  0.1689
50213SOL    HW257245   9.320   2.297  12.489  0.3118 -1.0610 -0.5977
50214SOL     OW57246   7.557   2.877   3.577  0.2896 -0.0674 -0.2992
50214SOL    HW157247   7.474   2.829   3.584  1.1946 -1.5624  0.6476
50214SOL    HW257248   7.607   2.830   3.511  0.4867  0.6976 -0.7092
50215SOL     OW57249   9.323   8.344   3.047  0.3343  0.3459 -0.3776
50215SOL    HW157250   9.318   8.411   3.114  1.6634 -1.0057  1.1690
50215SOL    HW257251   9.387   8.281   3.080  0.5213 -0.7577 -2.5931
50216SOL     OW57252   3.177   6.457   1.783  0.4376 -0.0401 -0.4288
50216SOL    HW157253   3.193   6.454   1.688  0.3651 -0.1850 -0.4363
50216SOL    HW257254   3.263   6.474   1.821  0.3528  0.7439 -0.5644
50217SOL     OW57255   7.247   8.588   6.664 -0.0530 -0.9982 -0.1309
50217SOL    HW157256   7.187   8.583   6.590  0.9372 -0.0269 -1.0540
50217SOL    HW257257   7.196   8.629   6.734 -0.3925  0.1423 -1.0089
50218SOL     OW57258  12.526   1.608   1.463  0.2215 -0.1003  0.2125
50218SOL    HW157259  12.451   1.593   1.521 -0.1501 -0.0030 -0.2351
50218SOL    HW257260  12.601   1.577   1.513 -0.0287  0.4224  0.9363
50219SOL     OW57261  12.692  11.663   7.334 -0.3070  0.4500  0.1740
50219SOL    HW157262  12.711  11.578   7.294  0.1171  0.9194 -0.6647
50219SOL    HW257263  12.675  11.643   7.426 -1.8135 -0.7304 -0.3095
50220SOL     OW57264   3.816   8.820  12.732 -0.6726  0.3407  0.0006
50220SOL    HW157265   3.753   8.816  12.660 -0.8674  1.8253  0.0667
50220SOL    HW257266   3.832   8.728  12.754 -3.0959 -0.0825  0.2430
50221SOL     OW57267   0.144  12.157   4.064  0.1582 -0.5000 -0.6387
50221SOL    HW157268   0.123  12.086   4.004 -1.0956 -1.1114  0.4497
50221SOL    HW257269   0.225  12.195   4.031 -0.8972 -0.2728 -3.1546
50222SOL     OW57270   5.396   2.990  10.590 -0.8424 -0.6495  0.0693
50222SOL    HW157271   5.462   2.922  10.602 -2.7821 -2.8388 -0.8509
50222SOL    HW257272   5.432   3.067  10.634  2.6195 -1.4694 -1.0570
50223SOL     OW57273   7.067   0.587   1.341 -0.3009  0.3495  1.2794
50223SOL    HW157274   7.021   0.651   1.287 -0.0631 -1.6928 -1.5311
50223SOL    HW257275   7.002   0.518   1.357  0.5816 -0.6363  0.7148
50224SOL     OW57276  10.134   4.782   1.544 -0.0582  0.2456  0.2812
50224SOL    HW157277  10.113   4.813   1.632  0.0652  0.3258  0.2831
50224SOL    HW257278  10.123   4.860   1.489  1.4062  0.5956  0.4558
50225SOL     OW57279   6.760  12.474   7.594 -0.0533  0.0765 -0.3415
50225SOL    HW157280   6.709  12.394   7.579  0.9515 -0.6734  0.0626
50225SOL    HW257281   6.740  12.530   7.519 -0.9223 -0.4802 -0.5352
50226SOL     OW57282   0.518   8.781  10.578  0.3411 -0.1713  0.3394
50226SOL    HW157283   0.608   8.751  10.572  0.1343 -0.7542  0.0878
50226SOL    HW257284   0.475   8.745  10.500 -0.2508 -0.4216  0.7685
50227SOL     OW57285  12.155   5.450   7.910  0.0777 -0.0857  0.3679
50227SOL    HW157286  12.128   5.528   7.958 -0.1933 -1.4501  2.5716
50227SOL    HW257287  12.251   5.452   7.914  0.0544 -0.1927  0.9661
50228SOL     OW57288   6.340  10.856   1.576  0.2951  0.2298  0.2902
50228SOL    HW157289   6.391  10.920   1.526  0.8663  0.2085  0.8371
50228SOL    HW257290   6.268  10.832   1.517  1.6121 -0.6954 -1.0038
50229SOL     OW57291  12.495  10.627   7.935 -0.0531 -0.4700  0.3849
50229SOL    HW157292  12.510  10.552   7.877  0.9549 -0.9443  1.2163
50229SOL    HW257293  12.581  10.646   7.972 -0.4040  0.7448  0.6342
50230SOL     OW57294   0.497   2.289  12.248 -0.3365  0.5317 -0.2769
50230SOL    HW157295   0.407   2.297  12.217 -0.7729 -1.6393  0.2626
50230SOL    HW257296   0.489   2.265  12.340  0.7777 -0.2185 -0.3541
50231SOL     OW57297  12.764   1.135  10.204  0.1706 -0.3548  0.1486
50231SOL    HW157298  12.677   1.175  10.215  0.2875  0.3242 -1.1236
50231SOL    HW257299  12.800   1.130  10.293 -0.8391  0.1158  0.6011
50232SOL     OW57300  12.683   9.916   8.818  0.3709  0.0129 -0.3351
50232SOL    HW157301  12.628   9.994   8.826 -2.1670 -1.7103  0.3904
50232SOL    HW257302  12.696   9.886   8.908 -0.8638 -1.7444 -0.6908
50233SOL     OW57303   5.214   9.171   6.955  0.1331 -0.2378  0.2181
50233SOL    HW157304   5.151   9.213   6.896  0.4324  0.8417  0.6309
50233SOL    HW257305   5.180   9.083   6.968 -1.2175  0.2721  0.3254
50234SOL     OW57306   0.361   2.887   2.173  0.1043 -0.2566 -0.0588
50234SOL    HW157307   0.361   2.795   2.146 -0.2765  0.0494 -1.1781
50234SOL    HW257308   0.377   2.885   2.267 -3.2418 -1.6608  0.6282
50235SOL     OW57309   6.849   3.804   1.582 -0.4449 -0.3979 -0.4216
50235SOL    HW157310   6.757   3.823   1.601 -0.5510 -0.9295 -0.3880
50235SOL    HW257311   6.871   3.731   1.639  0.3700  0.5105  0.4805
50236SOL     OW57312   3.729   1.108   9.266 -0.7748 -0.2075  0.5441
50236SOL    HW157313   3.726   1.065   9.180 -3.4625  1.2781 -0.2051
50236SOL    HW257314   3.732   1.036   9.328  0.7158 -1.3295 -0.7390
50237SOL     OW57315  10.841   6.102   3.350  0.0939 -0.2430 -0.3137
50237SOL    HW157316  10.847   6.007   3.352 -1.5253 -0.3664  1.5297
50237SOL    HW257317  10.779   6.121   3.279  1.5469 -0.4177 -1.6917
50238SOL     OW57318   5.695  10.195   2.503 -0.9034  0.8620 -0.2757
50238SOL    HW157319   5.643  10.125   2.542 -1.0001  1.1825  0.1734
50238SOL    HW257320   5.632  10.247   2.453 -0.6051 -0.2318 -1.9000
50239SOL     OW57321  10.601   3.819   0.445  0.4815 -0.1795  0.3586
50239SOL    HW157322  10.531   3.763   0.412  1.7672 -1.7593  0.1870
50239SOL    HW257323  10.613   3.885   0.376 -0.8148  0.1347  0.4032
50240SOL     OW57324   5.045  10.904   9.435 -0.1554  0.1174  0.1385
50240SOL    HW157325   5.006  10.990   9.421  1.0833  0.3711 -2.4081
50240SOL    HW257326   5.034  10.887   9.528 -0.3616  3.0706  0.7396
50241SOL     OW57327   3.396   9.323   9.785 -0.5153 -0.1157 -0.2952
50241SOL    HW157328   3.379   9.338   9.878 -1.8166  0.2294 -0.5823
50241SOL    HW257329   3.465   9.256   9.784  1.9787  2.2495  0.9353
50242SOL     OW57330   3.555   7.787   3.079 -0.3327  0.1623 -0.2806
50242SOL    HW157331   3.500   7.852   3.034  0.8993  0.9562 -0.7116
50242SOL    HW257332   3.554   7.711   3.022 -2.3779 -0.5072  0.5798
50243SOL     OW57333   5.179   0.954  10.074  0.2191  0.0141  0.1699
50243SOL    HW157334   5.163   1.015  10.002  2.0874  0.2128 -0.1217
50243SOL    HW257335   5.092   0.927  10.102 -0.6029  1.4070 -0.8979
50244SOL     OW57336  12.631   3.256   6.182  0.2404  0.0792 -0.0300
50244SOL    HW157337  12.568   3.215   6.242  0.4985 -0.3056 -0.0179
50244SOL    HW257338  12.709   3.270   6.234  0.4898 -0.3205 -0.2860
50245SOL     OW57339   8.862   2.607  12.022 -0.0936 -0.2157 -0.1828
50245SOL    HW157340   8.902   2.600  12.109  0.1429 -0.4793 -0.3125
50245SOL    HW257341   8.825   2.521  12.005 -1.2211  0.1758  0.1725
50246SOL     OW57342   3.365  11.125   2.470  0.3253 -0.1349  0.1042
50246SOL    HW157343   3.301  11.102   2.537  0.5259 -0.1967  0.2760
50246SOL    HW257344   3.422  11.190   2.512  0.3245 -0.0184 -0.0737
50247SOL     OW57345   5.174   2.147   0.108 -0.1988 -0.0324 -0.2941
50247SOL    HW157346   5.079   2.133   0.110 -0.6958  2.6923 -1.1529
50247SOL    HW257347   5.203   2.098   0.031 -1.0939  0.0134 -0.6739
50248SOL     OW57348   5.427   5.997  11.825  0.0912 -0.4478 -0.3237
50248SOL    HW157349   5.435   5.977  11.919  0.5801  1.3153  0.0392
50248SOL    HW257350   5.367   5.931  11.792 -1.6451  0.0498  1.6434
50249SOL     OW57351  12.497   0.756   0.528  0.1611 -0.8166  0.4234
50249SOL    HW157352  12.527   0.838   0.488  2.2734 -0.9994  1.5255
50249SOL    HW257353  12.435   0.783   0.595  0.8555 -0.0819  0.7926
50250SOL     OW57354   5.339   5.711   9.191 -0.2685  0.1734 -0.0988
50250SOL    HW157355   5.302   5.771   9.126  0.7903 -0.7829 -1.6631
50250SOL    HW257356   5.263   5.663   9.225 -0.7698  0.1313 -1.2309
50251SOL     OW57357  10.505   4.135   9.431  0.2730 -0.5282  0.3689
50251SOL    HW157358  10.558   4.190   9.489 -0.7886  0.4240  0.4811
50251SOL    HW257359  10.418   4.174   9.435  0.1169 -0.5954 -1.6805
50252SOL     OW57360   6.647   2.610   7.154 -0.0521 -0.4410 -0.1067
50252SOL    HW157361   6.624   2.652   7.237 -1.2108  1.1941 -1.1782
50252SOL    HW257362   6.579   2.544   7.140 -0.8267  0.4144 -0.5019
50253SOL     OW57363  11.130   5.991   2.311  0.3060  0.6236  0.1401
50253SOL    HW157364  11.212   6.041   2.318  1.1851 -0.7957  0.5198
50253SOL    HW257365  11.154   5.913   2.260 -0.9383  0.4154 -0.1575
50254SOL     OW57366   1.935   8.506  12.555 -0.0469 -0.2032 -0.2694
50254SOL    HW157367   1.927   8.492  12.461 -0.5591 -1.2306 -0.0821
50254SOL    HW257368   2.009   8.452  12.581  0.1034  0.0909 -0.0792
50255SOL     OW57369   2.965  10.708  10.146 -0.2215  0.1388  0.3250
50255SOL    HW157370   2.931  10.774  10.087  0.4102  0.2036  0.0275
50255SOL    HW257371   2.968  10.628  10.094 -0.1021  0.0879  0.4103
50256SOL     OW57372  11.646   2.734   1.225  0.1513  0.4610 -0.1666
50256SOL    HW157373  11.608   2.819   1.249  0.8069  0.8593 -0.5079
50256SOL    HW257374  11.601   2.709   1.145 -1.7951 -0.7063  1.1995
50257SOL     OW57375   8.766   7.000   4.972 -0.0820  0.7286  0.1696
50257SOL    HW157376   8.790   7.038   5.057 -0.2512  0.7550  0.2063
50257SOL    HW257377   8.782   7.071   4.909 -0.1485  0.7739  0.2045
50258SOL     OW57378   4.109  12.169  10.710  0.8190  0.1993  0.3449
50258SOL    HW157379   4.166  12.239  10.676  1.5260 -1.2788 -1.7909
50258SOL    HW257380   4.166  12.119  10.768  0.4628  1.0659  1.4651
50259SOL     OW57381   8.913  12.558   5.543 -0.2527  0.0632  0.4534
50259SOL    HW157382   8.914  12.627   5.476  0.5375  0.1337  0.5233
50259SOL    HW257383   8.823  12.525   5.543 -0.3893  0.4168 -0.2826
50260SOL     OW57384   9.060  11.464   7.167  0.0837 -0.0794  0.0600
50260SOL    HW157385   9.138  11.408   7.175  0.8537  1.0841  1.0278
50260SOL    HW257386   9.057  11.488   7.075 -1.5695 -3.4597 -0.9577
50261SOL     OW57387  12.135  12.346   7.454 -0.8758 -0.1452 -0.6329
50261SOL    HW157388  12.196  12.280   7.423 -1.6678 -0.9084 -0.6147
50261SOL    HW257389  12.124  12.327   7.547 -0.8828  0.2001 -0.5597
50262SOL     OW57390   3.585   4.889   7.080  0.3692 -0.4494  0.1943
50262SOL    HW157391   3.510   4.947   7.070  1.5597  1.0790 -0.2516
50262SOL    HW257392   3.595   4.878   7.175  1.2661  1.6939  0.3995
50263SOL     OW57393   6.255   6.774   4.182  0.3343  0.0200 -0.0049
50263SOL    HW157394   6.307   6.837   4.232 -2.2884  1.0270  1.6672
50263SOL    HW257395   6.228   6.708   4.246  1.3392 -1.7387 -1.3041
50264SOL     OW57396   3.537   0.329   9.868 -0.1902  0.4650 -0.7740
50264SOL    HW157397   3.592   0.259   9.902  2.7251  1.0312 -3.7663
50264SOL    HW257398   3.476   0.285   9.809  0.0463  0.1846 -0.8149
50265SOL     OW57399   6.600   4.945   9.651  0.0470  0.3223  0.2354
50265SOL    HW157400   6.615   4.873   9.712 -0.6614 -0.3413 -0.3576
50265SOL    HW257401   6.564   5.015   9.705  0.0642 -0.0195  0.6948
50266SOL     OW57402   9.996   8.324   6.626 -0.6112  0.1682 -0.1616
50266SOL    HW157403  10.016   8.285   6.541 -0.8876  0.3789 -0.3239
50266SOL    HW257404   9.915   8.373   6.612 -1.9060 -1.5944  0.7494
50267SOL     OW57405   7.277   3.009  11.222  0.1894 -0.0636  0.7430
50267SOL    HW157406   7.304   3.099  11.202 -0.3360 -0.1722 -0.5485
50267SOL    HW257407   7.345   2.977  11.282  1.9457  0.2921 -0.9564
50268SOL     OW57408   9.974  11.440   0.581 -0.0959  0.4138  0.2013
50268SOL    HW157409   9.883  11.470   0.583 -0.2949 -0.2217  0.9617
50268SOL    HW257410   9.971  11.355   0.538  0.5750  1.7032 -2.7105
50269SOL     OW57411   4.905   8.620   3.627  0.2389  0.1186  0.4110
50269SOL    HW157412   4.932   8.548   3.571 -0.4363  0.7904 -0.8100
50269SOL    HW257413   4.968   8.690   3.609  0.6089  0.0241  1.2457
50270SOL     OW57414   8.675  10.171   0.236  0.5413  0.1108 -0.3001
50270SOL    HW157415   8.708  10.098   0.288 -1.8477 -2.8036 -2.5365
50270SOL    HW257416   8.743  10.187   0.170  1.1820  0.1344  0.3525
50271SOL     OW57417  10.414   9.123  11.678  0.3302 -0.4162 -0.1262
50271SOL    HW157418  10.388   9.034  11.702  1.2115 -0.9322 -1.0070
50271SOL    HW257419  10.380   9.135  11.590  1.0837 -0.2469 -0.3956
50272SOL     OW57420  11.788   7.967   6.608  0.2732 -0.5420 -0.3361
50272SOL    HW157421  11.713   7.975   6.667  0.8988  0.0937  0.3875
50272SOL    HW257422  11.796   7.873   6.592  0.4521 -0.7892  1.0792
50273SOL     OW57423   4.070   2.140   3.817 -0.1248 -0.1696 -0.5200
50273SOL    HW157424   3.983   2.173   3.790  0.7755  1.6365 -1.4155
50273SOL    HW257425   4.098   2.200   3.886  0.8419 -0.0699 -0.9808
50274SOL     OW57426  12.395   8.606   7.818 -0.4287  0.2359 -0.3125
50274SOL    HW157427  12.372   8.699   7.810  1.4937  0.9193  1.3161
50274SOL    HW257428  12.332   8.570   7.879 -1.3871  0.3628 -1.2031
50275SOL     OW57429   5.825   9.576   6.189  0.4103 -0.1376  0.2818
50275SOL    HW157430   5.795   9.647   6.132 -1.1136 -0.9049  0.0836
50275SOL    HW257431   5.843   9.503   6.129  0.6206 -0.3652  0.6187
50276SOL     OW57432   5.983   1.126   5.041  0.4397  0.4227  0.2947
50276SOL    HW157433   5.990   1.221   5.051  0.5571  0.6092 -1.3907
50276SOL    HW257434   6.051   1.091   5.100 -1.1182  1.2395  2.6956
50277SOL     OW57435  11.715   8.275   2.612  0.8887  0.0964 -0.5738
50277SOL    HW157436  11.775   8.201   2.623 -0.0878 -0.6507 -0.0973
50277SOL    HW257437  11.769   8.352   2.628  1.4334 -0.6089  1.2753
50278SOL     OW57438   3.382   6.896   6.822  0.1327 -0.1967 -0.3346
50278SOL    HW157439   3.477   6.904   6.830 -0.0309  1.9778  0.0457
50278SOL    HW257440   3.369   6.830   6.753  1.9948  1.9284 -2.9412
50279SOL     OW57441   4.856   5.858  11.512 -0.4118  0.5355 -0.2096
50279SOL    HW157442   4.828   5.862  11.420 -2.1906 -1.6434  0.1578
50279SOL    HW257443   4.933   5.801  11.511 -0.8576 -0.0785 -0.2913
50280SOL     OW57444   4.408   7.026   4.454  0.1416 -0.0417 -0.4644
50280SOL    HW157445   4.356   6.993   4.527 -1.4240  2.0561 -0.5627
50280SOL    HW257446   4.497   6.994   4.471 -0.3466 -0.2291  1.9494
50281SOL     OW57447   5.538  11.214   0.422 -0.0137 -0.3615 -0.3176
50281SOL    HW157448   5.456  11.235   0.468  1.1655 -0.0285  1.7568
50281SOL    HW257449   5.526  11.252   0.335 -1.0341  2.1550  0.7964
50282SOL     OW57450   5.940   7.836   7.911 -0.2480  0.2383  0.4957
50282SOL    HW157451   5.962   7.808   7.822 -0.3909  0.9336  0.2427
50282SOL    HW257452   5.850   7.806   7.923 -0.2681  0.2448  0.3676
50283SOL     OW57453  10.577  12.576   9.793  0.2446  0.4093 -0.1587
50283SOL    HW157454  10.559  12.525   9.872 -1.5855  0.4188 -0.5257
50283SOL    HW257455  10.530  12.658   9.806  0.8355  0.8538 -0.7788
50284SOL     OW57456   9.751   3.147   0.892 -0.2205  0.6039 -0.1773
50284SOL    HW157457   9.777   3.168   0.982 -0.6929  1.9164 -0.3292
50284SOL    HW257458   9.833   3.136   0.845  0.0468 -0.8924  0.5638
50285SOL     OW57459   6.793   9.694   1.335 -0.1830 -0.6379 -0.1756
50285SOL    HW157460   6.830   9.628   1.394 -0.3512 -0.7907 -0.2379
50285SOL    HW257461   6.754   9.759   1.393  1.3289  0.2248 -0.0670
50286SOL     OW57462   1.233   2.769   4.719  0.3765 -0.2045  0.5165
50286SOL    HW157463   1.311   2.740   4.672  0.3319 -0.4153  0.5733
50286SOL    HW257464   1.165   2.773   4.651  0.4735  0.1340  0.4359
50287SOL     OW57465   7.037   6.835  10.458  0.3181 -0.0730  0.1916
50287SOL    HW157466   6.983   6.908  10.489  0.2326 -0.8893  2.1299
50287SOL    HW257467   7.122   6.849  10.498 -0.3728 -2.2679  2.7630
50288SOL     OW57468   7.869   6.394  12.578  0.2589  0.4849 -0.0245
50288SOL    HW157469   7.875   6.488  12.597 -0.1929  0.3172  1.0176
50288SOL    HW257470   7.848   6.354  12.662 -0.6554 -0.4385 -0.6716
50289SOL     OW57471   0.304   7.738   8.876  0.2446 -0.3175 -0.2014
50289SOL    HW157472   0.300   7.768   8.967  2.3891  1.8855 -0.7177
50289SOL    HW257473   0.350   7.654   8.881  1.2536  0.2576  0.7205
50290SOL     OW57474   4.385   5.216   7.646 -0.2186  0.3182  0.0406
50290SOL    HW157475   4.316   5.241   7.585 -0.4972 -0.2901  0.0916
50290SOL    HW257476   4.388   5.287   7.709 -1.9600 -0.3780  0.9934
50291SOL     OW57477  10.653   9.313   8.417 -0.0051 -0.1441 -0.1444
50291SOL    HW157478  10.714   9.239   8.424 -0.5634 -0.6664 -0.7318
50291SOL    HW257479  10.641   9.326   8.323 -0.3054  0.3750 -0.0394
50292SOL     OW57480  12.564   3.963   3.685 -0.2161 -0.1767  0.7952
50292SOL    HW157481  12.583   3.921   3.602  1.3067  0.5844  0.7304
50292SOL    HW257482  12.493   3.911   3.723  0.3104 -1.6144 -0.1438
50293SOL     OW57483   3.187   5.157   6.801 -0.3625 -0.1173 -0.0457
50293SOL    HW157484   3.217   5.078   6.756 -0.4646 -0.3524  0.2925
50293SOL    HW257485   3.238   5.228   6.762  0.1007 -0.4181  0.0128
50294SOL     OW57486   0.682  11.842  12.715 -0.0536 -0.3060  0.6094
50294SOL    HW157487   0.644  11.785  12.781  1.6192 -0.5092  1.4482
50294SOL    HW257488   0.774  11.851  12.740  0.3305  0.6752 -0.9593
50295SOL     OW57489   1.421  11.569   9.700 -0.2175  0.6150  0.6624
50295SOL    HW157490   1.444  11.476   9.705 -0.8314  0.4168  0.0728
50295SOL    HW257491   1.395  11.582   9.609  1.4523  1.7656  0.2927
50296SOL     OW57492   4.521  12.621  12.727 -0.0595  0.2846  0.2164
50296SOL    HW157493   4.616  12.635  12.735  0.1487 -1.4218  1.4250
50296SOL    HW257494   4.514  12.536  12.684 -1.0477  0.3250  0.2923
50297SOL     OW57495  10.125   4.292   2.941  0.4291 -0.1998 -0.1942
50297SOL    HW157496  10.164   4.327   2.861  0.1999  0.0416 -0.2026
50297SOL    HW257497  10.031   4.291   2.922  0.2493  1.0692  0.5447
50298SOL     OW57498   4.509  12.474   8.944 -0.1319 -0.1146  0.1164
50298SOL    HW157499   4.431  12.427   8.974 -0.2252  0.8866  1.5926
50298SOL    HW257500   4.582  12.426   8.983 -0.0026 -0.9237 -1.0860
50299SOL     OW57501   7.750   3.504   0.578 -0.1266  0.5369 -0.4790
50299SOL    HW157502   7.757   3.447   0.655 -1.3983  2.0421  0.8312
50299SOL    HW257503   7.839   3.511   0.545  0.7253  0.9833  1.7558
50300SOL     OW57504  11.227  10.782   2.617  0.5944 -0.1594  0.1400
50300SOL    HW157505  11.318  10.764   2.640  1.4169  3.0742 -0.0619
50300SOL    HW257506  11.178  10.761   2.697  2.0461  1.3533  1.5248
50301SOL     OW57507   0.856   2.738  11.983 -0.2886 -0.1188 -0.1330
50301SOL    HW157508   0.765   2.763  11.967 -0.4538 -0.6276 -0.0141
50301SOL    HW257509   0.888   2.804  12.045 -0.9355 -0.5963  0.7378
50302SOL     OW57510   4.085   2.905  12.657 -0.2808  0.0622 -0.0416
50302SOL    HW157511   4.135   2.897  12.738  0.0519  1.4004 -0.1019
50302SOL    HW257512   4.150   2.899  12.587 -0.5062 -0.5805 -0.2047
50303SOL     OW57513   2.834  12.435   4.833  0.1625 -0.1097 -0.0367
50303SOL    HW157514   2.762  12.420   4.772  2.2943 -1.6528 -2.3759
50303SOL    HW257515   2.871  12.348   4.848  1.1006  0.5442  1.7182
50304SOL     OW57516   2.772   0.549  12.107  0.3126 -0.0370 -0.0815
50304SOL    HW157517   2.789   0.491  12.181 -0.0594  0.0417  0.0683
50304SOL    HW257518   2.790   0.495  12.030 -0.3337 -0.4558  0.0515
50305SOL     OW57519   6.271  12.357  11.894 -0.0806 -0.5174  0.1782
50305SOL    HW157520   6.295  12.285  11.953  0.0740  0.0058  0.7553
50305SOL    HW257521   6.179  12.342  11.875 -0.3599 -0.2286  1.2218
50306SOL     OW57522   5.619   4.342   7.065 -0.2038 -0.3577  0.1609
50306SOL    HW157523   5.576   4.257   7.059 -2.4568  0.7524 -0.5354
50306SOL    HW257524   5.587   4.391   6.989 -0.7649  1.8396  1.7000
50307SOL     OW57525  11.420   5.268   2.713  0.6398  0.0050  0.1452
50307SOL    HW157526  11.399   5.256   2.620 -2.1736 -0.2473  0.7278
50307SOL    HW257527  11.478   5.344   2.715 -0.5666  1.0427 -1.7066
50308SOL     OW57528   1.867   0.490   1.989 -0.0325  0.3585  0.5792
50308SOL    HW157529   1.792   0.439   2.019  0.5707 -1.6333 -1.0574
50308SOL    HW257530   1.943   0.451   2.033  0.3143  0.6518  0.2570
50309SOL     OW57531   6.225   8.191   8.439 -0.4273  0.6793 -0.0202
50309SOL    HW157532   6.151   8.196   8.379 -0.1411  2.0018 -0.2963
50309SOL    HW257533   6.290   8.139   8.393 -1.1855 -0.5423  0.2474
50310SOL     OW57534   0.506   0.568  10.429 -0.6707  0.4561 -0.0833
50310SOL    HW157535   0.465   0.495  10.383  0.8556  0.3470 -1.3681
50310SOL    HW257536   0.598   0.543  10.436 -0.3965  1.6175  0.7616
50311SOL     OW57537   3.703   4.757  10.917  0.0898 -0.1316 -0.1441
50311SOL    HW157538   3.714   4.667  10.888 -0.4045 -0.8819  1.8407
50311SOL    HW257539   3.702   4.752  11.012 -0.1172  1.9627  0.0186
50312SOL     OW57540   4.678   6.048   3.540  0.9551  0.8322 -0.5882
50312SOL    HW157541   4.628   6.129   3.547  0.4065  0.5302 -0.9606
50312SOL    HW257542   4.632   5.986   3.597  2.0257  1.0918  0.5917
50313SOL     OW57543  11.854   8.892   9.549 -0.2835 -0.6206 -0.1807
50313SOL    HW157544  11.886   8.833   9.481 -1.9031 -1.0148 -0.6373
50313SOL    HW257545  11.906   8.869   9.627 -0.9542 -2.7752 -0.3064
50314SOL     OW57546   6.472  11.790   1.685 -0.1025 -0.6813  0.3021
50314SOL    HW157547   6.401  11.760   1.627  0.3413 -0.3969 -0.3912
50314SOL    HW257548   6.472  11.885   1.676  1.4576 -0.7639 -1.0142
50315SOL     OW57549   8.285   3.155  11.796 -0.0208  0.2391  0.2022
50315SOL    HW157550   8.253   3.204  11.872  0.4201  0.2046  0.4115
50315SOL    HW257551   8.256   3.207  11.721 -0.8672  0.0233  0.3729
50316SOL     OW57552   8.408   7.704   1.999  0.2545  0.3240  0.0136
50316SOL    HW157553   8.397   7.619   1.956 -0.7679  0.3453  0.2015
50316SOL    HW257554   8.435   7.764   1.929 -0.8057  0.2284 -0.4901
50317SOL     OW57555   2.886  10.960   9.643  0.4013  0.1711  0.3074
50317SOL    HW157556   2.814  11.000   9.691  0.2671  1.2437 -0.7265
50317SOL    HW257557   2.962  11.016   9.663  0.2421  0.9202 -1.0449
50318SOL     OW57558  11.029   8.771   8.490  0.4818  0.0543 -0.4723
50318SOL    HW157559  10.939   8.798   8.476 -0.1070 -1.3600  0.4354
50318SOL    HW257560  11.053   8.810   8.575  0.5347 -0.0503 -0.4389
50319SOL     OW57561   1.770   2.801   9.415 -0.0648 -0.2714  0.2086
50319SOL    HW157562   1.741   2.885   9.450  1.3865  0.5111 -0.3978
50319SOL    HW257563   1.706   2.780   9.347 -1.1813 -0.3349  1.2345
50320SOL     OW57564   5.717   9.598   2.446 -0.5040  0.1938  0.1094
50320SOL    HW157565   5.631   9.558   2.460  0.5309 -1.3925  2.5238
50320SOL    HW257566   5.765   9.535   2.394 -0.6411  0.9045 -0.9028
50321SOL     OW57567  11.330   6.653   4.550  0.2967  0.5262  0.3671
50321SOL    HW157568  11.268   6.724   4.565  0.4146  0.4156  1.3971
50321SOL    HW257569  11.348   6.657   4.455 -0.4014  1.2726  0.2579
50322SOL     OW57570   7.786   7.562   9.532 -0.1758  0.1472 -0.4165
50322SOL    HW157571   7.714   7.596   9.478  0.6327  1.0668 -0.9581
50322SOL    HW257572   7.752   7.566   9.622 -0.1418  2.4578 -0.4482
50323SOL     OW57573  10.692   4.027   8.825  0.5557  0.3678  0.3961
50323SOL    HW157574  10.755   4.061   8.762  0.1804  0.1748 -0.0875
50323SOL    HW257575  10.706   3.933   8.826  1.1954  0.4501  1.3078
50324SOL     OW57576   5.557   4.794   7.625  0.0380 -0.3958  0.0355
50324SOL    HW157577   5.465   4.773   7.640 -0.2128  0.5159 -0.1810
50324SOL    HW257578   5.605   4.741   7.689 -0.6894 -0.2840  0.6845
50325SOL     OW57579   1.602  10.243   3.491 -0.0864  0.1435  0.0258
50325SOL    HW157580   1.618  10.232   3.397  0.5112  0.1737  0.1232
50325SOL    HW257581   1.655  10.174   3.532 -0.6237 -0.0990  0.3215
50326SOL     OW57582   4.369   3.529  11.188  0.0439  0.0460 -0.1629
50326SOL    HW157583   4.439   3.469  11.162 -0.7425 -1.0605  0.1939
50326SOL    HW257584   4.302   3.518  11.121 -1.2773 -1.5702  1.3118
50327SOL     OW57585   5.407   6.374  11.427 -0.3466  0.1405 -0.3745
50327SOL    HW157586   5.472   6.342  11.489 -1.6065  2.1861  2.2106
50327SOL    HW257587   5.323   6.346  11.463 -1.0997  0.7147 -1.5995
50328SOL     OW57588  11.315   4.375  11.755  0.6391 -0.5285 -0.1754
50328SOL    HW157589  11.340   4.373  11.663  0.3598  0.5862 -0.2919
50328SOL    HW257590  11.397   4.392  11.802  0.7163 -0.6955 -0.2494
50329SOL     OW57591  11.219   8.226   2.648 -0.2016  0.0996  0.6948
50329SOL    HW157592  11.309   8.204   2.673  1.5424 -0.0962 -4.6110
50329SOL    HW257593  11.219   8.321   2.636  0.3258 -0.1580 -2.0259
50330SOL     OW57594  12.567   1.173   4.007  0.0972  0.4724 -0.5055
50330SOL    HW157595  12.629   1.217   3.950  2.9033 -2.1068  0.3103
50330SOL    HW257596  12.509   1.125   3.947  1.2870 -0.0459 -1.2729
50331SOL     OW57597   4.964   6.972   6.494  0.3825 -0.2415  0.2819
50331SOL    HW157598   5.004   6.970   6.581  1.8833  0.6857 -0.3558
50331SOL    HW257599   4.926   7.060   6.487 -1.1440 -0.8459  0.5778
50332SOL     OW57600   8.208   4.700   3.219 -0.2724 -0.1290 -0.1572
50332SOL    HW157601   8.165   4.668   3.140 -0.9551 -2.4556  1.0693
50332SOL    HW257602   8.274   4.633   3.239  0.3821  0.7833  0.8565
50333SOL     OW57603   1.648   4.074  10.070  0.3983 -0.3705  0.4956
50333SOL    HW157604   1.558   4.041  10.065  0.2721  0.1228 -1.3461
50333SOL    HW257605   1.640   4.168  10.057  1.1759 -0.3184  0.3367
50334SOL     OW57606   2.886   2.953   8.392 -0.0167 -0.1915 -0.7022
50334SOL    HW157607   2.810   2.912   8.433  0.2161 -1.9305 -1.8803
50334SOL    HW257608   2.944   2.975   8.465 -0.4685 -1.3821  0.0539
50335SOL     OW57609   9.493   8.299   8.234 -0.4386  0.3175 -0.1804
50335SOL    HW157610   9.519   8.353   8.159 -0.1534 -1.2398 -1.2517
50335SOL    HW257611   9.487   8.210   8.199 -1.0668 -0.3407  1.4830
50336SOL     OW57612   1.768   9.380   4.741 -0.1708 -0.3653 -0.0730
50336SOL    HW157613   1.713   9.388   4.818 -1.3020 -0.9683 -0.8004
50336SOL    HW257614   1.730   9.440   4.677  0.8779  0.2845 -0.1108
50337SOL     OW57615  10.662  11.090   8.765  0.0897 -0.2498 -0.6672
50337SOL    HW157616  10.758  11.094   8.769 -0.0108  1.1841  1.7525
50337SOL    HW257617  10.641  11.002   8.797  0.5294  0.9020  3.1641
50338SOL     OW57618   8.150  12.429   5.008 -0.0172  0.1829 -0.2690
50338SOL    HW157619   8.240  12.449   4.984  0.0118  2.4004  1.3977
50338SOL    HW257620   8.105  12.513   5.006 -2.0390 -0.8442 -0.8787
50339SOL     OW57621   3.170   7.929   0.031 -0.1385 -0.5768 -0.0948
50339SOL    HW157622   3.141   8.018   0.012  0.9064 -0.3445 -0.6881
50339SOL    HW257623   3.105   7.873  -0.012 -1.0622 -0.1228  0.6782
50340SOL     OW57624   8.301  10.106   8.676  0.1803  0.0685 -0.5802
50340SOL    HW157625   8.277  10.136   8.588  0.0198 -1.0025 -0.9105
50340SOL    HW257626   8.217  10.083   8.716  0.3371 -0.3004 -0.4670
50341SOL     OW57627   5.620   4.713   4.151  0.1781  0.5008  0.3094
50341SOL    HW157628   5.637   4.619   4.153  0.7088  0.5468 -1.1607
50341SOL    HW257629   5.548   4.726   4.213 -0.8316 -1.0734 -0.4780
50342SOL     OW57630   4.721   0.253   9.940  0.1513 -0.0360 -0.4655
50342SOL    HW157631   4.779   0.180   9.920  0.5552  0.4839 -1.2559
50342SOL    HW257632   4.699   0.243  10.032  1.1406 -0.4912 -0.2747
50343SOL     OW57633   2.879   8.435   0.198  0.1591 -0.3329  0.6763
50343SOL    HW157634   2.804   8.488   0.173  0.4284 -0.7689 -1.2236
50343SOL    HW257635   2.842   8.358   0.240 -0.4255 -0.3832  0.0684
50344SOL     OW57636   0.102  10.862   4.603 -0.5103  0.4437  0.2600
50344SOL    HW157637   0.192  10.829   4.602 -0.9925 -0.9360 -0.1121
50344SOL    HW257638   0.049  10.784   4.624 -1.6575  1.1319 -0.0353
50345SOL     OW57639   6.998  11.057   8.423  0.4580 -0.2190 -0.1693
50345SOL    HW157640   6.926  10.995   8.433  1.3271 -1.3675 -0.8188
50345SOL    HW257641   7.075  11.002   8.408  1.6411  0.9493  1.3577
50346SOL     OW57642  12.643   2.867   8.295 -0.0996 -0.0303  0.0646
50346SOL    HW157643  12.653   2.785   8.345 -1.1889 -0.0661  0.2360
50346SOL    HW257644  12.550   2.885   8.298  0.2660  1.9324  1.1486
50347SOL     OW57645   6.282   9.825   1.466 -0.0172  0.3161 -0.0052
50347SOL    HW157646   6.249   9.897   1.519 -0.0147  0.4584 -0.1972
50347SOL    HW257647   6.285   9.859   1.377 -0.3977 -0.0458 -0.1644
50348SOL     OW57648   3.161   2.820   1.616  0.1575  0.3610 -0.3293
50348SOL    HW157649   3.242   2.809   1.565  0.6187  0.4699  0.3618
50348SOL    HW257650   3.094   2.775   1.565  0.7108  0.0276 -0.7726
50349SOL     OW57651   4.660   4.412   0.417 -0.4523 -0.2865  0.4197
50349SOL    HW157652   4.720   4.431   0.489  0.1457  0.2919 -0.2153
50349SOL    HW257653   4.713   4.364   0.354 -0.8834 -0.4908  0.2100
50350SOL     OW57654   6.107   3.136   2.408 -0.3229 -0.5685 -0.3047
50350SOL    HW157655   6.061   3.071   2.354 -0.2833 -0.3735 -0.5807
50350SOL    HW257656   6.199   3.112   2.403 -0.5088 -1.7684  1.3604
50351SOL     OW57657   2.775   9.707   8.970 -0.0184 -0.4137  0.2689
50351SOL    HW157658   2.721   9.732   8.895 -0.6673 -0.2619  0.7749
50351SOL    HW257659   2.795   9.614   8.955  1.0874 -0.0418 -0.8185
50352SOL     OW57660   2.926   0.752   9.769  0.2103 -0.3439  0.5060
50352SOL    HW157661   3.008   0.798   9.788  0.6269 -0.7490 -0.2875
50352SOL    HW257662   2.934   0.668   9.814  0.1276 -0.2971  0.6110
50353SOL     OW57663   3.224   0.249  10.527  0.1874 -0.2700 -1.0304
50353SOL    HW157664   3.238   0.162  10.491  1.1850  0.3987 -2.3708
50353SOL    HW257665   3.131   0.266  10.515  0.2903 -0.5152 -2.3233
50354SOL     OW57666   5.355   7.490   3.286  0.0065  0.0046 -0.1524
50354SOL    HW157667   5.277   7.539   3.260  0.3939  0.2758 -0.8416
50354SOL    HW257668   5.354   7.492   3.381 -0.3134  0.8461 -0.1656
50355SOL     OW57669   7.424   1.293  12.163 -0.4207 -0.0795  0.1087
50355SOL    HW157670   7.341   1.267  12.122  0.3146 -1.7701 -0.3912
50355SOL    HW257671   7.466   1.210  12.185  0.7477  0.7738  1.1691
50356SOL     OW57672   2.341  10.410   0.495 -0.2734 -0.2890 -0.1835
50356SOL    HW157673   2.284  10.417   0.418 -1.0104  0.3754  0.4077
50356SOL    HW257674   2.302  10.340   0.548  0.1469 -0.6415 -0.3327
50357SOL     OW57675   8.456   8.791   4.017  0.7843  0.4403  0.1903
50357SOL    HW157676   8.478   8.795   3.924 -1.2616  1.9511 -0.3068
50357SOL    HW257677   8.405   8.711   4.026 -1.6808  1.7750 -0.7448
50358SOL     OW57678  10.734   0.048   5.686  0.0082  0.2173 -0.7786
50358SOL    HW157679  10.647   0.084   5.705 -0.5021 -1.2362 -0.2151
50358SOL    HW257680  10.778   0.044   5.771 -0.7515 -2.4228 -0.4137
50359SOL     OW57681   5.141   6.150  11.282 -0.1281 -0.2726 -0.2642
50359SOL    HW157682   5.065   6.208  11.286 -1.2611 -1.6696 -0.7167
50359SOL    HW257683   5.163   6.132  11.374 -0.6082 -0.1951 -0.1341
50360SOL     OW57684   0.414   3.016  10.868 -0.2389 -0.2669  0.4233
50360SOL    HW157685   0.453   2.934  10.837  0.5323 -1.2806  3.6904
50360SOL    HW257686   0.319   3.003  10.857 -0.0312 -0.7335 -0.9587
50361SOL     OW57687   7.762   3.002   7.240 -0.6646  0.0913 -0.0925
50361SOL    HW157688   7.792   3.091   7.258 -0.0879 -0.0423 -0.3730
50361SOL    HW257689   7.691   2.987   7.303 -1.0356  0.8864 -0.3125
50362SOL     OW57690   3.581  10.537   0.339  0.0898  0.5395  0.0029
50362SOL    HW157691   3.493  10.501   0.347  0.2630  0.1783  0.3462
50362SOL    HW257692   3.624  10.515   0.422  0.4757  0.7862 -0.1255
50363SOL     OW57693   9.425   6.626  12.299  0.3566  0.4832 -0.0791
50363SOL    HW157694   9.378   6.682  12.360  1.6121  0.6762  0.7278
50363SOL    HW257695   9.474   6.687  12.243 -1.2898  0.3547 -1.7688
50364SOL     OW57696   8.864   7.537  10.319  0.3586 -0.3355  0.3824
50364SOL    HW157697   8.853   7.458  10.266  0.7195 -0.2735  0.2147
50364SOL    HW257698   8.936   7.517  10.378  1.0438  0.1853 -0.2660
50365SOL     OW57699   3.007   9.076   2.407 -0.6611 -0.4678 -0.1485
50365SOL    HW157700   3.082   9.017   2.410  0.1229  0.3574 -2.1422
50365SOL    HW257701   3.044   9.161   2.381 -2.1587  0.1922 -0.2103
50366SOL     OW57702   8.292   5.785   1.613 -0.2017 -0.2884 -0.2296
50366SOL    HW157703   8.327   5.741   1.690 -0.0019  0.4659  0.1242
50366SOL    HW257704   8.356   5.854   1.593 -1.0659  0.5956 -0.0582
50367SOL     OW57705   1.871   0.207   2.601 -0.0368 -0.7780 -0.4571
50367SOL    HW157706   1.862   0.301   2.620 -1.0739 -1.0104  0.3215
50367SOL    HW257707   1.878   0.202   2.506 -1.8286 -0.0245 -0.6611
50368SOL     OW57708   0.488   3.573   7.980  0.0146 -0.1147 -0.5691
50368SOL    HW157709   0.553   3.538   7.918  0.5135  0.0488 -0.1420
50368SOL    HW257710   0.423   3.503   7.987  0.5940 -0.6489 -0.3374
50369SOL     OW57711   3.568   1.182   6.479  0.4668 -0.3637  0.2862
50369SOL    HW157712   3.573   1.145   6.390 -1.0147 -0.3865  0.1885
50369SOL    HW257713   3.542   1.273   6.466  0.3276 -0.3434  0.7028
50370SOL     OW57714   3.667   2.816   7.181  0.0674  0.1554  0.3992
50370SOL    HW157715   3.674   2.862   7.265 -1.0522 -0.2435  0.7370
50370SOL    HW257716   3.725   2.863   7.122  0.4733  0.7598  1.2673
50371SOL     OW57717   3.072   0.660  11.157 -0.8550  0.4211  0.0505
50371SOL    HW157718   3.136   0.628  11.093  0.6682  0.3334  1.5451
50371SOL    HW257719   3.036   0.739  11.117 -1.3074 -0.5846 -1.6782
50372SOL     OW57720  10.273  11.569   4.715  0.1362  0.5761  0.2492
50372SOL    HW157721  10.365  11.583   4.736 -0.1399  0.9866  1.2317
50372SOL    HW257722  10.227  11.644   4.754 -0.5155  0.9042 -1.0790
50373SOL     OW57723   3.123  11.911   3.798  0.3305  0.0667  1.1408
50373SOL    HW157724   3.195  11.972   3.815  1.9148 -1.1004 -0.9118
50373SOL    HW257725   3.141  11.877   3.710 -2.4296 -0.7343  0.8070
50374SOL     OW57726   5.665   2.969   6.083 -0.0597 -0.0008 -0.4500
50374SOL    HW157727   5.721   2.972   6.160 -0.2865 -0.6738 -0.2464
50374SOL    HW257728   5.630   3.058   6.075  1.0937  0.4561 -0.6380
50375SOL     OW57729   6.342   3.501  11.062  0.2975 -0.1172  0.0930
50375SOL    HW157730   6.292   3.423  11.085 -0.0501  0.0401 -0.1157
50375SOL    HW257731   6.408   3.469  11.000 -0.1603 -0.1710 -0.3825
50376SOL     OW57732   7.805   0.619  11.358  1.1673  0.0432  0.5456
50376SOL    HW157733   7.778   0.679  11.428  0.0557 -0.1362  0.2925
50376SOL    HW257734   7.900   0.622  11.359  1.1490  1.9808  0.3997
50377SOL     OW57735   9.312  11.859  12.414  0.0940 -0.2405 -0.0554
50377SOL    HW157736   9.343  11.882  12.326  1.1200 -0.7983  0.1323
50377SOL    HW257737   9.218  11.844  12.403  0.5202 -2.5067 -1.5804
50378SOL     OW57738   8.773  11.516  10.478 -0.1343 -0.2202  0.2455
50378SOL    HW157739   8.697  11.511  10.536  0.1199 -0.1714  0.5854
50378SOL    HW257740   8.746  11.467  10.400 -0.4814 -0.2816  0.3988
50379SOL     OW57741   3.795  10.754  12.591 -0.1436 -0.4174 -0.0761
50379SOL    HW157742   3.770  10.669  12.628  0.5663 -0.9694 -0.8296
50379SOL    HW257743   3.738  10.817  12.635 -1.7402 -1.4521 -0.5990
50380SOL     OW57744   6.182   7.540   0.415 -0.4056 -0.2939 -0.0831
50380SOL    HW157745   6.197   7.449   0.390  1.0965 -0.3347  0.8318
50380SOL    HW257746   6.161   7.536   0.508 -1.4126  0.2325 -0.2662
50381SOL     OW57747   1.306   8.807   3.352 -0.2321 -0.3766 -0.9607
50381SOL    HW157748   1.237   8.866   3.380  1.4698  1.0914  0.4144
50381SOL    HW257749   1.301   8.807   3.257 -0.4111  1.8799 -0.9941
50382SOL     OW57750   6.807   9.537   7.907 -0.0561  0.1303 -0.0547
50382SOL    HW157751   6.737   9.541   7.842 -1.5496 -0.7202  1.4285
50382SOL    HW257752   6.885   9.564   7.860 -1.1694 -0.0050 -2.0706
50383SOL     OW57753  10.875   6.423   9.700  0.0703 -0.1167 -0.0254
50383SOL    HW157754  10.825   6.499   9.730 -0.6466 -0.5435 -0.0976
50383SOL    HW257755  10.835   6.349   9.745  0.7535 -0.4542  0.0365
50384SOL     OW57756   4.516   6.435   5.243 -0.3347 -0.0785  0.1515
50384SOL    HW157757   4.490   6.520   5.210 -1.0814  0.7888  2.7142
50384SOL    HW257758   4.436   6.383   5.243 -1.1005  0.8734  3.0424
50385SOL     OW57759   1.841   8.801   9.712  0.0938 -0.2581 -0.4310
50385SOL    HW157760   1.792   8.805   9.794 -0.4067 -0.4906 -0.7179
50385SOL    HW257761   1.858   8.893   9.691  2.7929 -0.2077  1.4337
50386SOL     OW57762   8.406  10.483  10.991  0.0545 -0.5251 -0.2867
50386SOL    HW157763   8.476  10.514  10.933  0.0036 -0.4558 -0.3108
50386SOL    HW257764   8.420  10.532  11.073 -0.6734  0.3582 -0.6749
50387SOL     OW57765   5.168   4.567   6.794 -0.0201 -0.0377 -0.1786
50387SOL    HW157766   5.130   4.488   6.832 -0.1498 -0.0097 -0.2513
50387SOL    HW257767   5.116   4.584   6.716 -1.2999  1.2585  0.9093
50388SOL     OW57768  11.368   9.261   8.757  0.7879  0.6297  0.0577
50388SOL    HW157769  11.413   9.234   8.677  0.7707  1.2090 -0.1519
50388SOL    HW257770  11.438   9.287   8.817  0.8280 -0.2632  0.4118
50389SOL     OW57771  10.408   6.631   7.803 -0.4197  0.1201 -0.8643
50389SOL    HW157772  10.418   6.538   7.781 -2.7236 -0.3424 -0.2230
50389SOL    HW257773  10.363   6.632   7.887  0.6305  1.8530 -0.2680
50390SOL     OW57774  12.595   8.506   8.390  0.0020 -0.0256  0.2066
50390SOL    HW157775  12.612   8.431   8.333 -0.5246  1.3638 -1.9123
50390SOL    HW257776  12.504   8.495   8.418 -0.3259  0.1654 -0.7275
50391SOL     OW57777   4.501  11.038   7.302  0.0573  0.2703 -0.5638
50391SOL    HW157778   4.412  11.052   7.272 -0.3835 -0.1990  0.4598
50391SOL    HW257779   4.505  11.082   7.387  0.2524 -1.1765  0.2069
50392SOL     OW57780   9.572   7.828   4.140 -0.4193  0.5071  0.1220
50392SOL    HW157781   9.662   7.805   4.162 -0.5543 -0.9492 -0.7230
50392SOL    HW257782   9.580   7.902   4.080  0.2784 -0.2206 -0.7112
50393SOL     OW57783   2.346  12.673   1.131 -0.0885  0.1400 -0.2342
50393SOL    HW157784   2.419  12.695   1.189 -1.0753  0.7103  0.8364
50393SOL    HW257785   2.280  12.635   1.189 -1.3664  1.3482 -0.8378
50394SOL     OW57786   8.832   5.924   2.527  0.0451 -0.1961  0.2013
50394SOL    HW157787   8.905   5.976   2.495  0.1041  0.8888  1.9696
50394SOL    HW257788   8.842   5.839   2.484  1.7472  0.2651 -0.3729
50395SOL     OW57789   1.354   4.379   2.935 -0.5886  0.2189  0.3109
50395SOL    HW157790   1.305   4.383   2.852 -1.3163 -2.1601  0.5573
50395SOL    HW257791   1.346   4.288   2.963  0.2768  0.7979  2.6438
50396SOL     OW57792  10.350   2.581   2.137  0.2791 -0.0058 -0.4938
50396SOL    HW157793  10.412   2.581   2.064  0.8531  2.8125 -0.0991
50396SOL    HW257794  10.393   2.528   2.205  1.8503  1.1021 -0.5834
50397SOL     OW57795   7.378   3.132   0.947 -0.0893  0.4612  0.5065
50397SOL    HW157796   7.340   3.150   0.861  0.5831 -0.3245  0.0331
50397SOL    HW257797   7.350   3.205   1.002  2.2855  2.8215 -1.2223
50398SOL     OW57798   0.797   0.271   0.919 -0.1367 -0.8797  0.2536
50398SOL    HW157799   0.861   0.199   0.916  0.1367 -0.6741  1.1359
50398SOL    HW257800   0.740   0.249   0.992 -1.0108 -0.9912 -0.4460
50399SOL     OW57801  10.994   7.138   4.426  0.6420 -0.1726 -0.1915
50399SOL    HW157802  10.939   7.069   4.462 -0.9056  0.9240 -0.3831
50399SOL    HW257803  10.952   7.161   4.343  0.9242  1.2575  0.0463
50400SOL     OW57804   7.722   5.277   0.943  0.1273  0.1432 -0.2433
50400SOL    HW157805   7.798   5.335   0.940 -1.1562  1.9517  0.2050
50400SOL    HW257806   7.682   5.286   0.856  0.2990 -0.6506 -0.4128
50401SOL     OW57807   4.238   9.977   7.404 -0.4641  0.4093 -0.5946
50401SOL    HW157808   4.238  10.042   7.474 -0.3004 -1.2464  1.0148
50401SOL    HW257809   4.156   9.994   7.356 -1.5737  0.3904  1.1840
50402SOL     OW57810   9.299   3.968   1.198  0.0103  0.8374  0.0336
50402SOL    HW157811   9.342   4.027   1.137  0.4493  0.1717 -0.3206
50402SOL    HW257812   9.266   3.896   1.143 -1.7383  1.4151  0.2735
50403SOL     OW57813   5.166   6.331   5.992 -0.4269 -0.2808 -0.2242
50403SOL    HW157814   5.078   6.343   6.028  0.3842 -0.2209  1.8930
50403SOL    HW257815   5.219   6.305   6.067  1.7642  1.5906 -0.9985
50404SOL     OW57816   2.003  11.626   3.781  0.0794 -0.1453 -0.2853
50404SOL    HW157817   1.985  11.563   3.852  0.4048  0.9142  0.7711
50404SOL    HW257818   1.974  11.581   3.702  0.3098 -1.6345  0.4311
50405SOL     OW57819  12.602   1.764   3.461  0.3460  0.1497 -1.1303
50405SOL    HW157820  12.688   1.790   3.495  0.2282 -0.0331 -0.6871
50405SOL    HW257821  12.559   1.847   3.440 -0.3254  0.3940  1.0002
50406SOL     OW57822   4.598   7.472  11.308 -0.3034  0.2881 -0.5750
50406SOL    HW157823   4.660   7.542  11.288  0.4306 -0.1819 -0.0096
50406SOL    HW257824   4.589   7.424  11.226  1.4797 -0.7031 -0.2494
50407SOL     OW57825   3.074   8.868   3.888  0.0661 -0.5428 -0.1097
50407SOL    HW157826   3.068   8.799   3.822  0.5467 -0.8555  0.1603
50407SOL    HW257827   3.147   8.923   3.859 -2.2311  1.7265 -2.0145
50408SOL     OW57828   3.063   8.298   7.234  0.1297 -0.1391  0.3822
50408SOL    HW157829   3.000   8.370   7.227  2.2396  1.8353  0.6925
50408SOL    HW257830   3.070   8.264   7.145  0.0318  0.8689 -0.0180
50409SOL     OW57831   3.707   1.471   2.726  0.4499 -0.0465  0.3573
50409SOL    HW157832   3.787   1.474   2.673 -0.5533  0.9828 -1.1788
50409SOL    HW257833   3.649   1.537   2.687 -1.1164 -0.6813  1.4857
50410SOL     OW57834   2.125   7.821   1.483  0.4640 -0.1609 -0.5890
50410SOL    HW157835   2.169   7.877   1.419  0.1757  0.3374 -0.3599
50410SOL    HW257836   2.161   7.848   1.567 -0.2840  0.2648 -0.3978
50411SOL     OW57837   5.288   7.531   8.526 -0.2212 -0.3151 -0.9884
50411SOL    HW157838   5.261   7.439   8.532  0.0852 -0.3116  1.6607
50411SOL    HW257839   5.237   7.575   8.594  0.2503  1.3341 -1.6646
50412SOL     OW57840   2.193   5.815   1.452  0.2312 -0.7468 -0.5792
50412SOL    HW157841   2.222   5.894   1.498 -1.3318  0.3971 -1.4415
50412SOL    HW257842   2.107   5.796   1.488  0.5006 -1.9545 -0.5327
50413SOL     OW57843  12.478   5.262   9.579 -0.0721 -0.2888  0.0877
50413SOL    HW157844  12.444   5.345   9.615  0.3844 -0.0400 -0.0487
50413SOL    HW257845  12.556   5.243   9.632 -0.2781 -0.7317  0.2379
50414SOL     OW57846   2.148   5.834   5.270 -0.3957 -0.6797 -0.3506
50414SOL    HW157847   2.238   5.866   5.266 -0.2062 -1.0813  0.4762
50414SOL    HW257848   2.096   5.912   5.289  0.3294 -1.0429  4.4247
50415SOL     OW57849   5.169   9.294   1.162  0.0568 -0.0366 -0.4731
50415SOL    HW157850   5.204   9.381   1.183 -1.6634  0.9919 -1.5746
50415SOL    HW257851   5.084   9.312   1.120 -0.1589 -2.2429 -1.1043
50416SOL     OW57852   6.494   6.657   6.305  0.3489 -0.0031 -0.0404
50416SOL    HW157853   6.581   6.642   6.270  0.5178  0.0989  0.3335
50416SOL    HW257854   6.474   6.578   6.355  0.3544  0.1065  0.1349
50417SOL     OW57855   5.216   6.531   5.623  0.2169 -0.2874 -0.4035
50417SOL    HW157856   5.222   6.536   5.719  0.2862 -0.8514 -0.3752
50417SOL    HW257857   5.133   6.574   5.602  0.0453 -0.4488 -0.0653
50418SOL     OW57858   9.174   2.391   1.187  0.5569 -0.1194 -0.0215
50418SOL    HW157859   9.101   2.444   1.218  0.0895 -0.0687 -1.1560
50418SOL    HW257860   9.206   2.436   1.109  0.3971 -1.2522 -0.7844
50419SOL     OW57861   7.319   2.457   1.866 -0.4126 -0.2200  0.0937
50419SOL    HW157862   7.248   2.512   1.834 -0.2539 -0.0241  0.0768
50419SOL    HW257863   7.398   2.511   1.857  0.2156 -1.4179 -2.6530
50420SOL     OW57864   5.515   2.124  10.082  0.1195 -0.2237 -0.3128
50420SOL    HW157865   5.526   2.216  10.060  0.0928 -0.2068 -0.2566
50420SOL    HW257866   5.579   2.108  10.151  0.2029 -0.2754 -0.4027
50421SOL     OW57867  11.811  10.458  10.781 -0.5587 -0.2796  0.2486
50421SOL    HW157868  11.726  10.422  10.754 -1.0140 -0.9559  2.3739
50421SOL    HW257869  11.788  10.528  10.842  0.4217  0.5532 -0.2996
50422SOL     OW57870   4.552   0.827   6.360 -0.4098  0.7549 -0.1739
50422SOL    HW157871   4.458   0.816   6.345 -0.9483  0.7778  2.5394
50422SOL    HW257872   4.587   0.853   6.275 -2.6739 -0.2519 -1.5217
50423SOL     OW57873   1.632   6.572   2.346  0.5893  0.3775  0.9201
50423SOL    HW157874   1.634   6.486   2.388  3.0513  0.0124  0.1919
50423SOL    HW257875   1.722   6.603   2.349  0.5040  1.2515 -2.2117
50424SOL     OW57876   6.676  12.106   2.498  0.2638  0.2985 -0.2925
50424SOL    HW157877   6.751  12.047   2.500  0.2542  0.2317 -1.1750
50424SOL    HW257878   6.601  12.049   2.519  0.2762  0.0179 -0.9625
50425SOL     OW57879   5.591  11.664   1.163 -0.6190 -0.0796 -0.3667
50425SOL    HW157880   5.626  11.647   1.075  0.2050  0.8508 -0.2305
50425SOL    HW257881   5.547  11.582   1.186 -2.7734  0.3574 -2.5072
50426SOL     OW57882   8.229  11.150   5.482  0.0227 -0.2451  0.0838
50426SOL    HW157883   8.158  11.141   5.546 -0.7281 -0.0836 -0.7174
50426SOL    HW257884   8.307  11.124   5.531 -0.5439 -0.2135  1.0467
50427SOL     OW57885   9.203   0.781   5.893 -0.1237  0.1843 -0.4243
50427SOL    HW157886   9.252   0.828   5.959  0.3954 -0.4460 -0.3473
50427SOL    HW257887   9.146   0.847   5.853 -0.4616  0.5685  0.6552
50428SOL     OW57888  10.683   6.529   0.144  0.9551  0.0036  1.1053
50428SOL    HW157889  10.748   6.483   0.091 -0.4092  0.4815 -1.1535
50428SOL    HW257890  10.725   6.612   0.166  1.4723 -0.0876  0.4888
50429SOL     OW57891   7.003   9.026   6.712  0.2063 -0.1379  0.0142
50429SOL    HW157892   7.097   9.035   6.728  0.3137 -0.4162 -0.4304
50429SOL    HW257893   6.964   9.022   6.799  0.5607  0.4012  0.2092
50430SOL     OW57894  12.119  10.356   7.656 -0.0910  0.0220  0.0402
50430SOL    HW157895  12.060  10.363   7.731 -0.5961 -1.7608 -0.1333
50430SOL    HW257896  12.077  10.408   7.588 -2.2298 -2.1900 -0.4848
50431SOL     OW57897  12.154   7.833   1.536 -0.2178 -0.4318  0.3370
50431SOL    HW157898  12.117   7.745   1.534 -0.6886 -0.2483  0.7216
50431SOL    HW257899  12.123   7.870   1.619 -1.1645  0.5868 -0.4478
50432SOL     OW57900   9.817   2.806  12.584  0.2879  0.0943  0.0150
50432SOL    HW157901   9.755   2.763  12.526  0.9942 -1.2890  0.2518
50432SOL    HW257902   9.903   2.788  12.546  0.6630  0.5309  0.6272
50433SOL     OW57903  12.159   8.461   3.937  0.2716 -0.0744 -0.0222
50433SOL    HW157904  12.236   8.411   3.963  1.0564  0.7041 -0.7474
50433SOL    HW257905  12.161   8.460   3.841  0.3016  1.3117 -0.0549
50434SOL     OW57906   8.046   0.828   6.312 -0.0719 -0.2928  0.0720
50434SOL    HW157907   8.031   0.898   6.375 -0.0321 -0.6185  0.4406
50434SOL    HW257908   7.960   0.813   6.272 -0.2113 -0.4550  0.4297
50435SOL     OW57909   9.357  12.446  12.657  0.6653  0.4197 -0.3516
50435SOL    HW157910   9.310  12.528  12.676  1.9978  0.9595  0.7609
50435SOL    HW257911   9.290  12.387  12.624 -0.4301  1.7961 -0.6641
50436SOL     OW57912   4.856   5.643   7.306  0.5419  0.3879 -0.3279
50436SOL    HW157913   4.778   5.593   7.329 -0.4691  1.8058 -0.6067
50436SOL    HW257914   4.823   5.721   7.262  2.0270  1.7642  0.8879
50437SOL     OW57915   0.262   2.226   3.503  0.4276  0.0156  0.1099
50437SOL    HW157916   0.306   2.279   3.436  0.5351 -0.7630 -0.4439
50437SOL    HW257917   0.194   2.284   3.539 -1.3878 -0.3154 -2.4833
50438SOL     OW57918   6.645   9.411   0.306  0.2079  0.1609 -0.0255
50438SOL    HW157919   6.597   9.333   0.280 -2.7333  1.4485  1.0595
50438SOL    HW257920   6.632   9.472   0.233  1.3818  0.1034 -0.2979
50439SOL     OW57921   6.360   5.094   8.312  0.0242 -0.1872 -0.2110
50439SOL    HW157922   6.329   5.091   8.403  0.9144 -1.7358  0.0779
50439SOL    HW257923   6.283   5.117   8.261 -1.1376 -1.8634  0.6864
50440SOL     OW57924   6.747   9.798  11.426  0.3408  0.1697 -0.0586
50440SOL    HW157925   6.755   9.808  11.521  1.8845 -0.8412 -0.0435
50440SOL    HW257926   6.832   9.826  11.393 -0.2080  0.5639 -1.1650
50441SOL     OW57927   4.559   9.559   3.563 -0.0385 -0.1213  0.4984
50441SOL    HW157928   4.521   9.513   3.638  1.4505 -0.3289  1.1652
50441SOL    HW257929   4.648   9.581   3.591  0.5599 -0.2020 -1.2070
50442SOL     OW57930  10.429   0.485   5.825 -0.4137  0.0723 -0.0837
50442SOL    HW157931  10.431   0.459   5.733 -0.4122 -0.0323 -0.0539
50442SOL    HW257932  10.346   0.452   5.858 -0.6446  0.5460 -0.1737
50443SOL     OW57933   7.357   0.726  12.598  0.4590  0.5610  0.5009
50443SOL    HW157934   7.327   0.639  12.626  0.5804  0.2000 -0.4622
50443SOL    HW257935   7.452   0.724  12.613  0.1330  1.6630  3.4407
50444SOL     OW57936   8.095   7.168   2.334 -0.0678  0.2868  0.6064
50444SOL    HW157937   8.153   7.097   2.361 -0.7280 -0.0664  1.1175
50444SOL    HW257938   8.011   7.125   2.317 -0.6567  1.0247  1.5421
50445SOL     OW57939   6.092   6.705   7.269  0.6937 -0.2708  0.1716
50445SOL    HW157940   6.126   6.640   7.331  0.7630 -0.6640 -0.2747
50445SOL    HW257941   6.163   6.769   7.260  1.2639 -0.9770 -0.5938
50446SOL     OW57942   3.362   6.744  10.997 -0.4990  0.5616 -0.1664
50446SOL    HW157943   3.269   6.725  11.000 -0.2101 -1.1642 -0.6760
50446SOL    HW257944   3.385   6.770  11.086 -1.4230  0.7718  0.0154
50447SOL     OW57945   8.396   9.513  11.061 -0.1087 -0.0028 -0.1021
50447SOL    HW157946   8.337   9.587  11.051  1.0402  0.7425 -1.8391
50447SOL    HW257947   8.477   9.541  11.019  0.4537 -2.1390 -0.5621
50448SOL     OW57948   4.625  10.852   2.190  1.0192  0.1633 -0.6859
50448SOL    HW157949   4.601  10.760   2.181 -3.6578  1.0737 -0.0293
50448SOL    HW257950   4.658  10.859   2.280  1.9397 -0.8840 -0.9098
50449SOL     OW57951   8.478   7.615   2.781  0.2710 -0.0576  0.2911
50449SOL    HW157952   8.477   7.708   2.802 -0.6195 -0.1446  0.6450
50449SOL    HW257953   8.483   7.612   2.685  3.0822  0.3399  0.3410
50450SOL     OW57954   0.228   2.908   9.613 -0.1638  0.5194 -0.1754
50450SOL    HW157955   0.138   2.927   9.587  0.1760  0.9530 -1.0886
50450SOL    HW257956   0.224   2.822   9.654 -1.0262  0.6360 -0.0050
50451SOL     OW57957   0.715   3.393   0.739  0.1350 -0.0726 -0.4379
50451SOL    HW157958   0.719   3.330   0.666 -0.2383 -0.0349 -0.4943
50451SOL    HW257959   0.771   3.465   0.712 -0.0494 -0.0326 -0.7136
50452SOL     OW57960   0.250   0.862   0.996  0.2511  0.6214 -0.4590
50452SOL    HW157961   0.322   0.906   1.041 -0.8852  0.9961  1.0922
50452SOL    HW257962   0.211   0.805   1.063 -3.5739  3.6478  0.2707
50453SOL     OW57963   3.406   5.081   9.918 -0.4388  0.0746  0.5317
50453SOL    HW157964   3.455   4.998   9.912 -0.2896  0.1729  0.3620
50453SOL    HW257965   3.327   5.059   9.966 -0.7202 -0.3166 -0.1008
50454SOL     OW57966   6.584   6.050   6.118  0.1430 -0.1437  0.5808
50454SOL    HW157967   6.589   6.145   6.128  0.4484  0.1685 -1.7488
50454SOL    HW257968   6.514   6.036   6.054  0.6537 -1.4150  0.2639
50455SOL     OW57969   9.424   2.032   3.520 -0.6954 -0.3927  0.1815
50455SOL    HW157970   9.433   2.039   3.615 -0.9341  1.9529  0.0875
50455SOL    HW257971   9.333   2.056   3.502  0.2518  3.0255 -0.8322
50456SOL     OW57972  11.809   1.581   4.076  0.0046 -0.4302  0.5509
50456SOL    HW157973  11.743   1.512   4.063  1.2087 -1.2365 -1.8196
50456SOL    HW257974  11.884   1.553   4.023  0.2281  3.1546 -1.3438
50457SOL     OW57975   7.426   4.845   4.188 -0.2235  0.6288  0.3109
50457SOL    HW157976   7.370   4.921   4.207 -0.9323  0.1456  0.1766
50457SOL    HW257977   7.506   4.862   4.237  0.3031  2.2838 -1.0201
50458SOL     OW57978  10.064   1.743   5.301 -0.2483  0.3938  0.0072
50458SOL    HW157979  10.074   1.736   5.206 -1.2711  1.0192 -0.1586
50458SOL    HW257980  10.154   1.748   5.334  0.1309 -0.3079 -0.8829
50459SOL     OW57981  10.498   4.125   4.596 -0.0248  0.0695  0.4941
50459SOL    HW157982  10.450   4.069   4.535 -1.4718 -0.0149  1.6440
50459SOL    HW257983  10.588   4.092   4.594 -0.0636 -0.0346 -1.4336
50460SOL     OW57984   4.185   4.250  12.619 -0.6524 -0.2138 -0.3684
50460SOL    HW157985   4.219   4.259  12.708  2.1399  0.0608 -1.3522
50460SOL    HW257986   4.235   4.177  12.582 -1.6363 -0.2090 -1.7695
50461SOL     OW57987   0.711   0.389  10.484 -0.2380  0.2395  0.2917
50461SOL    HW157988   0.655   0.315  10.462 -0.3181  1.2638 -3.5774
50461SOL    HW257989   0.790   0.377  10.431  1.5449  0.9706  2.5563
50462SOL     OW57990   1.685   0.160   4.388  0.3834  0.1523  0.0251
50462SOL    HW157991   1.764   0.211   4.402 -0.3534  1.5099 -0.6011
50462SOL    HW257992   1.698   0.118   4.303 -0.3776  2.0113 -1.0618
50463SOL     OW57993   3.587  10.602   8.389  0.6101  0.3959  0.3620
50463SOL    HW157994   3.580  10.548   8.467 -1.4974  1.2876  0.8637
50463SOL    HW257995   3.534  10.680   8.408 -0.5132  0.3664 -2.1346
50464SOL     OW57996   5.281   0.730   2.563 -0.1068 -0.4649 -0.1051
50464SOL    HW157997   5.224   0.678   2.507 -1.5941  0.7854  0.1835
50464SOL    HW257998   5.233   0.812   2.577  0.7645 -0.2306  1.9383
50465SOL     OW57999   4.691   7.440   0.905 -0.4452  0.5505  0.2223
50465SOL    HW158000   4.621   7.490   0.946 -0.8017 -0.9026  1.4509
50465SOL    HW258001   4.659   7.423   0.816 -0.6937  1.7162  0.0752
50466SOL     OW58002   6.060   7.531   2.103 -0.0315  0.2679 -0.0525
50466SOL    HW158003   6.092   7.441   2.100 -2.9675 -0.8837 -2.3964
50466SOL    HW258004   6.000   7.533   2.177 -1.6578 -0.4743 -1.2785
50467SOL     OW58005   8.204   2.819   1.037 -0.2524  0.2568  0.2869
50467SOL    HW158006   8.140   2.752   1.062  1.1570 -0.4801  2.1277
50467SOL    HW258007   8.288   2.775   1.042  0.5549  1.6457 -0.4932
50468SOL     OW58008   9.279   4.472   3.472  0.1438  0.1313  0.5737
50468SOL    HW158009   9.257   4.520   3.552 -0.3400  0.4617  0.2504
50468SOL    HW258010   9.194   4.448   3.434  0.3390  0.7960 -0.3245
50469SOL     OW58011   6.523   5.599  11.468  0.3662 -0.0303 -0.1268
50469SOL    HW158012   6.484   5.615  11.382 -0.3991  2.3624  0.6132
50469SOL    HW258013   6.592   5.534  11.450 -0.8794 -0.8948 -2.2310
50470SOL     OW58014   0.963   0.805   0.582 -0.2616  1.2675  0.1479
50470SOL    HW158015   0.884   0.771   0.541  1.6963 -4.0669  0.0010
50470SOL    HW258016   0.952   0.786   0.675  1.8248 -2.7520 -0.1999
50471SOL     OW58017   1.864  12.760   4.805 -0.6696 -0.4050 -0.2774
50471SOL    HW158018   1.772  12.774   4.782 -0.5711 -1.6622 -1.5922
50471SOL    HW258019   1.902  12.848   4.806 -1.7329  0.0717 -0.3550
50472SOL     OW58020   4.294   9.324   6.790  0.2427  0.6316 -0.2323
50472SOL    HW158021   4.326   9.242   6.753  0.4925  0.8892 -0.5818
50472SOL    HW258022   4.345   9.392   6.748 -0.4098  1.0142 -0.4253
50473SOL     OW58023   8.339   9.075  10.179  0.7076 -0.1017  0.2881
50473SOL    HW158024   8.280   9.097  10.250 -2.6695 -1.8370 -1.7488
50473SOL    HW258025   8.356   9.158  10.135 -0.2041  0.4522  0.9521
50474SOL     OW58026   1.234   0.328   4.934 -0.2163  0.1201  0.4894
50474SOL    HW158027   1.242   0.419   4.963  0.3082  1.0306 -2.2033
50474SOL    HW258028   1.275   0.327   4.847 -1.9706 -2.2515 -0.4249
50475SOL     OW58029   1.980  11.808  11.942 -0.1412  0.1266 -0.3827
50475SOL    HW158030   1.993  11.718  11.973  1.1306  0.1782 -0.7128
50475SOL    HW258031   2.069  11.843  11.932 -0.6189  1.4190 -0.2832
50476SOL     OW58032   3.513   0.759   0.906 -0.3128  0.3821 -0.4860
50476SOL    HW158033   3.506   0.665   0.917  1.0434  0.3079 -0.1629
50476SOL    HW258034   3.433   0.794   0.947  0.0911 -0.4940  1.1224
50477SOL     OW58035   3.172   2.076   7.858 -0.3029 -0.1413 -0.4951
50477SOL    HW158036   3.116   2.150   7.878  0.1063  0.3002 -0.9772
50477SOL    HW258037   3.123   2.026   7.793 -1.2367 -1.1023  0.8749
50478SOL     OW58038  12.469   3.467  11.568 -0.4568 -0.4230  0.1549
50478SOL    HW158039  12.547   3.503  11.525  0.0138 -1.7546 -0.1718
50478SOL    HW258040  12.495   3.458  11.660 -1.6797  3.0363  0.9970
50479SOL     OW58041   3.677   9.136  11.737  0.3821 -0.3149 -0.2642
50479SOL    HW158042   3.671   9.054  11.689 -0.8109  0.6321 -1.8558
50479SOL    HW258043   3.758   9.177  11.706  1.0018 -0.8819  0.5659
50480SOL     OW58044   5.475   1.077  12.293 -0.3702 -0.4838 -0.2938
50480SOL    HW158045   5.402   1.016  12.298 -1.7919  1.2336  1.7413
50480SOL    HW258046   5.480   1.115  12.381  1.9023  0.7044 -0.8548
50481SOL     OW58047   4.968   0.461   7.180 -0.5068 -0.6075 -0.2220
50481SOL    HW158048   4.901   0.491   7.117 -1.9839  0.8962  1.8922
50481SOL    HW258049   4.923   0.395   7.233 -0.1077 -0.1092  0.7649
50482SOL     OW58050   8.679   9.192   8.765  0.7240 -0.3100 -0.3987
50482SOL    HW158051   8.701   9.153   8.680 -0.5485 -3.5919  0.6209
50482SOL    HW258052   8.584   9.200   8.764  0.4928 -2.0873  1.2828
50483SOL     OW58053   5.907   8.552   5.247 -0.2996  0.1051  0.3169
50483SOL    HW158054   5.995   8.516   5.242 -0.1686  0.5870 -2.2097
50483SOL    HW258055   5.860   8.493   5.305  0.8297 -2.1364 -0.9283
50484SOL     OW58056   3.346   2.720   8.767 -0.2799 -0.5444  0.6415
50484SOL    HW158057   3.392   2.658   8.824 -0.8144  0.7639  2.6065
50484SOL    HW258058   3.299   2.778   8.827 -0.3166  1.3853 -1.1149
50485SOL     OW58059  12.785   2.400   5.009 -0.5029 -0.0848  0.5963
50485SOL    HW158060  12.748   2.393   4.921  0.5124 -1.3639  0.2484
50485SOL    HW258061  12.847   2.328   5.016  2.6396  2.4069  0.8317
50486SOL     OW58062   2.316  11.754   5.358  0.2320  0.4693  0.2912
50486SOL    HW158063   2.279  11.806   5.287  2.6350  0.7701 -0.8016
50486SOL    HW258064   2.271  11.670   5.352 -2.9465  1.9099  1.4221
50487SOL     OW58065   3.650   2.677  11.870  0.3169  0.4121 -0.0741
50487SOL    HW158066   3.716   2.632  11.923  0.9013  0.6569 -0.5855
50487SOL    HW258067   3.698   2.746  11.825 -0.2103  0.3365 -0.7670
50488SOL     OW58068   3.040  11.222   1.893 -0.0456  0.1520 -0.4897
50488SOL    HW158069   2.958  11.173   1.897  0.8091 -1.3959 -1.0876
50488SOL    HW258070   3.099  11.176   1.953  1.0240 -0.0971 -1.6702
50489SOL     OW58071   1.077   5.610   5.372  0.1969 -0.0743  0.3929
50489SOL    HW158072   1.130   5.561   5.309  0.4946  1.9338 -1.0221
50489SOL    HW258073   1.110   5.700   5.366 -0.2484  0.3381  2.9325
50490SOL     OW58074   5.390   3.390   9.973 -0.1824  0.5136 -0.1103
50490SOL    HW158075   5.393   3.337   9.893 -1.2250  0.9566 -0.4682
50490SOL    HW258076   5.358   3.330  10.040  0.5622  0.1760 -0.0557
50491SOL     OW58077   9.372  12.623   9.569  0.0694 -0.4736  0.7435
50491SOL    HW158078   9.347  12.559   9.503  1.6605  1.8934 -2.4257
50491SOL    HW258079   9.461  12.651   9.544  0.5242  1.0449  3.5469
50492SOL     OW58080   0.957  10.819   0.391 -0.2421 -0.9077  0.5713
50492SOL    HW158081   0.912  10.888   0.439  0.3006 -1.6678  2.2526
50492SOL    HW258082   1.046  10.852   0.377  0.1859 -1.4267  1.8646
50493SOL     OW58083   0.484   6.316   1.629  0.5767 -0.0622  0.1985
50493SOL    HW158084   0.431   6.253   1.581  0.6480  1.4447 -2.0044
50493SOL    HW258085   0.429   6.394   1.635  1.3327  0.4454  0.7856
50494SOL     OW58086  12.348   0.875   8.807 -0.4154 -0.2772  0.6641
50494SOL    HW158087  12.267   0.912   8.771 -0.1591 -1.0698 -0.7651
50494SOL    HW258088  12.400   0.851   8.731  1.3868  0.6133  1.5504
50495SOL     OW58089  10.806  12.530   1.426  0.0644  0.0473 -0.2479
50495SOL    HW158090  10.887  12.499   1.467 -0.4283  0.3916  1.0428
50495SOL    HW258091  10.736  12.488   1.476 -0.5643  0.4569 -0.7674
50496SOL     OW58092   2.965   3.046  10.913 -0.2699  0.0594  0.4047
50496SOL    HW158093   3.003   2.958  10.907 -0.9285 -0.1964 -0.0716
50496SOL    HW258094   2.923   3.061  10.828  0.3425  1.0774  0.2677
50497SOL     OW58095  11.354   0.294   6.778 -0.0409 -0.5242  0.3683
50497SOL    HW158096  11.438   0.327   6.747 -0.7626 -0.5053 -1.7130
50497SOL    HW258097  11.371   0.202   6.802  0.6288 -0.4322  0.2501
50498SOL     OW58098   0.347  12.413   1.003  0.9581 -0.2469 -0.2145
50498SOL    HW158099   0.278  12.467   0.964  0.0602 -0.7211  0.6742
50498SOL    HW258100   0.427  12.465   0.991  0.2527  0.9026 -0.1378
50499SOL     OW58101  10.362   9.572   7.277  0.2533 -0.7101  0.6668
50499SOL    HW158102  10.377   9.548   7.185  0.6135 -0.9792  0.7906
50499SOL    HW258103  10.269   9.555   7.291  0.3027 -1.1652  0.4900
50500SOL     OW58104   2.852   5.271   3.380 -0.4054  0.0282  0.6650
50500SOL    HW158105   2.782   5.217   3.344 -0.3132 -0.0370  0.5800
50500SOL    HW258106   2.861   5.344   3.318 -0.4719  0.0944  0.7337
50501SOL     OW58107  10.614  10.265   1.964  0.1250 -0.4550 -0.3496
50501SOL    HW158108  10.632  10.337   1.904  2.7466 -0.1117  0.7124
50501SOL    HW258109  10.666  10.192   1.931 -0.7385 -1.1811 -0.1425
50502SOL     OW58110  12.395   4.057   5.038 -0.0035  0.5652 -0.7794
50502SOL    HW158111  12.441   4.135   5.008  0.6765  0.0830 -0.9952
50502SOL    HW258112  12.463   4.003   5.078 -0.0549 -0.8830 -2.5405
50503SOL     OW58113   8.113   0.595  10.484  0.4208 -0.4501  0.2096
50503SOL    HW158114   8.128   0.632  10.397  1.5858 -2.3851 -0.4708
50503SOL    HW258115   8.192   0.617  10.533 -0.7248  1.7030  1.2686
50504SOL     OW58116  11.107   2.775   0.973 -0.1405  0.3902  0.2567
50504SOL    HW158117  11.188   2.755   1.020 -0.8826  1.3786  2.0086
50504SOL    HW258118  11.070   2.850   1.018 -1.9164  0.1416 -0.6914
50505SOL     OW58119   6.490   5.906   8.900  0.9869 -0.0505 -0.2373
50505SOL    HW158120   6.419   5.968   8.917 -0.6737 -2.1138  0.9774
50505SOL    HW258121   6.484   5.887   8.807 -0.7989 -0.9448  0.0188
50506SOL     OW58122   1.721  10.036   9.335  0.1617  0.0867 -0.2749
50506SOL    HW158123   1.808  10.035   9.295 -0.4652 -1.4821 -1.7471
50506SOL    HW258124   1.717  10.118   9.384  2.8228 -0.2636  0.6812
50507SOL     OW58125   5.348   4.231   9.276 -0.0452 -0.2043  0.4930
50507SOL    HW158126   5.327   4.233   9.183 -1.6129  1.9922  0.7935
50507SOL    HW258127   5.353   4.138   9.298 -3.5894 -0.9210 -1.0276
50508SOL     OW58128  10.826  10.611   2.936 -0.3848 -0.1196  0.1776
50508SOL    HW158129  10.843  10.588   2.845  0.2428 -0.0108  0.2644
50508SOL    HW258130  10.804  10.704   2.934 -3.4610 -0.7409 -0.2438
50509SOL     OW58131   2.943   6.448   6.763  0.2544  0.2922  0.2890
50509SOL    HW158132   3.026   6.476   6.725  1.0282 -0.5453  1.2997
50509SOL    HW258133   2.940   6.492   6.848  0.5034 -0.9966  0.9964
50510SOL     OW58134   4.932   6.367   6.093  0.4420  0.0962 -0.4662
50510SOL    HW158135   4.847   6.322   6.087 -0.2039  1.4339 -1.7234
50510SOL    HW258136   4.911   6.460   6.089  1.7812  0.5691  1.8681
50511SOL     OW58137   1.263  10.387  12.056  0.4565  0.6695 -0.3117
50511SOL    HW158138   1.214  10.320  12.008  0.9610  0.1719 -0.1401
50511SOL    HW258139   1.236  10.377  12.147 -1.4075  2.3968 -0.6071
50512SOL     OW58140  11.320  11.996  10.806 -0.3282 -0.1439 -0.2477
50512SOL    HW158141  11.336  12.057  10.877  0.8604  1.1266 -1.5228
50512SOL    HW258142  11.408  11.972  10.775 -0.6854  1.7194 -3.1661
50513SOL     OW58143   1.018   0.656   2.585  0.1615 -0.0055  0.1264
50513SOL    HW158144   1.034   0.662   2.491 -0.7499 -0.4490 -0.0744
50513SOL    HW258145   0.990   0.565   2.599 -0.8434  0.3547  0.6263
50514SOL     OW58146   4.663   4.612   5.619 -0.2649  0.5276  0.1900
50514SOL    HW158147   4.656   4.578   5.708  0.7684  1.5601  0.6951
50514SOL    HW258148   4.718   4.548   5.573 -2.0298 -0.8016 -0.1703
50515SOL     OW58149   4.701   5.643   8.248 -0.1014  0.2963 -0.3016
50515SOL    HW158150   4.761   5.648   8.323  0.8332  2.8301 -1.1105
50515SOL    HW258151   4.704   5.731   8.210 -3.3818  0.1397 -1.1782
50516SOL     OW58152   9.039  10.871  12.093 -0.0674 -0.4682 -0.2292
50516SOL    HW158153   9.120  10.825  12.075 -0.1437 -1.1102  1.0224
50516SOL    HW258154   9.013  10.907  12.007  1.7745  0.2072 -0.5549
50517SOL     OW58155   3.586   1.880   8.420  0.2170  0.0314 -0.3305
50517SOL    HW158156   3.633   1.923   8.349 -0.4804 -0.0292 -0.8382
50517SOL    HW258157   3.544   1.804   8.378  1.1754 -0.9882  0.4799
50518SOL     OW58158   5.042   4.599   6.561  0.7466  0.2585 -0.3323
50518SOL    HW158159   5.040   4.566   6.472 -0.9446  0.4712 -0.4009
50518SOL    HW258160   5.041   4.694   6.552  0.5722  0.2815 -0.0874
50519SOL     OW58161   6.519   4.023   8.332  0.0752 -0.3848  0.2268
50519SOL    HW158162   6.516   3.944   8.385 -4.0154 -1.9679 -1.8487
50519SOL    HW258163   6.582   4.003   8.263  1.7059 -0.2923  1.6181
50520SOL     OW58164  11.228   4.129   9.544 -0.1407  0.8008 -0.4791
50520SOL    HW158165  11.295   4.071   9.581 -1.2868  0.2625  0.8054
50520SOL    HW258166  11.278   4.201   9.505  1.1880  0.3089  0.2644
50521SOL     OW58167   8.378   2.039   2.262 -0.7829  0.5830  0.3454
50521SOL    HW158168   8.461   2.068   2.223 -1.0840  0.6481 -0.2642
50521SOL    HW258169   8.311   2.066   2.199 -0.9786 -2.8233 -1.1614
50522SOL     OW58170   8.246  11.663   8.894  0.2244 -0.4443 -0.4338
50522SOL    HW158171   8.202  11.676   8.978  2.3301  2.2828  0.3959
50522SOL    HW258172   8.338  11.649   8.917  0.5579 -1.5136 -2.2497
50523SOL     OW58173   3.487  12.491   9.928 -0.0684 -0.2071  0.0352
50523SOL    HW158174   3.399  12.520   9.903 -1.0607 -0.6795  2.6667
50523SOL    HW258175   3.474  12.442  10.010  2.6227 -0.4528  0.4019
50524SOL     OW58176   5.937   9.046   5.852  0.3873 -0.3902 -0.4874
50524SOL    HW158177   5.920   9.025   5.943  1.5202 -0.3728 -0.2541
50524SOL    HW258178   6.023   9.007   5.834  1.2835  1.5917 -0.8553
50525SOL     OW58179   5.343  11.931   0.828 -0.2647 -0.3326  0.2806
50525SOL    HW158180   5.268  11.906   0.882 -1.0025  1.6993  0.2676
50525SOL    HW258181   5.390  11.849   0.813 -2.8348 -1.7827 -0.2624
50526SOL     OW58182   5.320   4.053   7.691 -0.4358 -0.8711 -0.7018
50526SOL    HW158183   5.315   4.000   7.770 -0.5990 -0.1945 -0.2411
50526SOL    HW258184   5.360   4.135   7.719  1.3690 -1.3511 -1.7422
50527SOL     OW58185   3.510   8.620   0.975  0.3389  0.7595 -0.3984
50527SOL    HW158186   3.454   8.543   0.975 -0.2192  1.0916  1.7830
50527SOL    HW258187   3.484   8.668   1.054  2.7642  1.6053 -0.0339
50528SOL     OW58188  10.895   3.844  12.563  0.4528 -0.2933 -0.5642
50528SOL    HW158189  10.806   3.856  12.531  0.3325  0.4684  0.0257
50528SOL    HW258190  10.942   3.806  12.489  0.3082  1.8661 -1.8451
50529SOL     OW58191   9.886  11.855   3.888  0.1092  0.2202 -0.2217
50529SOL    HW158192   9.836  11.806   3.822  0.8410  0.5522 -1.0443
50529SOL    HW258193   9.932  11.922   3.838  0.9521  0.2660  0.5876
50530SOL     OW58194   8.091   0.656   2.891 -0.5038 -0.1200  0.0882
50530SOL    HW158195   8.049   0.593   2.832 -0.6061 -0.4598  0.5168
50530SOL    HW258196   8.033   0.658   2.968 -0.0120 -0.2002  0.4635
50531SOL     OW58197  11.226   6.753   9.703 -0.0521  0.1281 -0.3662
50531SOL    HW158198  11.248   6.699   9.627  1.1411 -0.0849  0.1118
50531SOL    HW258199  11.239   6.696   9.778 -0.3521  0.6037  0.0580
50532SOL     OW58200   4.003   0.667  12.709  0.7159 -0.4317 -0.5863
50532SOL    HW158201   4.045   0.670  12.794  0.4827 -0.3701 -0.4726
50532SOL    HW258202   3.948   0.589  12.712 -1.5229  1.0728  0.3844
50533SOL     OW58203   2.657   8.596  10.509 -0.0133  0.3845  0.0283
50533SOL    HW158204   2.646   8.629  10.599  1.8053 -2.8053  1.6117
50533SOL    HW258205   2.741   8.634  10.481  1.2184 -1.3070  1.1809
50534SOL     OW58206   4.347   2.446   3.949  0.1557  0.0074 -0.3923
50534SOL    HW158207   4.423   2.416   3.899 -1.8963 -4.0843 -1.5125
50534SOL    HW258208   4.313   2.521   3.900  1.7750  0.0228 -1.5489
50535SOL     OW58209  10.243   1.861   2.242 -0.6708  0.0744  0.2893
50535SOL    HW158210  10.329   1.903   2.238 -0.8140  0.2379 -2.2405
50535SOL    HW258211  10.263   1.770   2.264  0.1737  0.0577 -0.4953
50536SOL     OW58212   8.297   9.654  11.347  0.4662 -0.0898 -0.0978
50536SOL    HW158213   8.332   9.585  11.291  2.0815 -0.5052  1.3303
50536SOL    HW258214   8.345   9.732  11.322  0.6383 -0.1096  0.1616
50537SOL     OW58215   3.046   8.064   1.116  0.2525 -0.1518  0.0400
50537SOL    HW158216   3.027   7.982   1.070 -2.5069 -0.0910  0.8868
50537SOL    HW258217   3.005   8.052   1.202  0.2273  1.9382  0.3567
50538SOL     OW58218   6.889  12.113   1.294  0.3500  0.3988  0.1457
50538SOL    HW158219   6.832  12.182   1.325 -1.7898 -1.2341  0.0843
50538SOL    HW258220   6.941  12.154   1.224  0.7553  2.4565  1.5711
50539SOL     OW58221  11.793  10.968  10.401  0.2500  0.1647  0.2180
50539SOL    HW158222  11.781  11.045  10.345 -0.0097  0.5383  0.7822
50539SOL    HW258223  11.782  11.001  10.490  0.5520 -0.4464  0.4893
50540SOL     OW58224   8.553   7.339   7.734  0.0372  0.2154 -0.2566
50540SOL    HW158225   8.560   7.349   7.829 -1.3963 -0.1404 -0.1015
50540SOL    HW258226   8.632   7.290   7.710  0.7723  0.9300  0.6432
50541SOL     OW58227   2.039  11.087   6.181 -0.3731 -0.6889  0.2827
50541SOL    HW158228   1.981  11.054   6.112  0.5435 -0.9819 -0.3698
50541SOL    HW258229   1.986  11.086   6.260 -1.3838 -0.5508 -0.3800
50542SOL     OW58230   6.802  12.333   3.125  0.0362 -0.4338 -0.4729
50542SOL    HW158231   6.812  12.314   3.218  1.7719  0.4323 -0.4372
50542SOL    HW258232   6.711  12.359   3.115 -0.3174 -1.1148  0.8706
50543SOL     OW58233  10.576   8.834   6.797 -0.7381 -0.1610 -0.0011
50543SOL    HW158234  10.522   8.798   6.867 -2.4036  1.4726 -0.3481
50543SOL    HW258235  10.566   8.929   6.805 -1.7075  0.1060 -2.8790
50544SOL     OW58236   4.265   0.070   1.464 -0.1047 -0.0462  0.3264
50544SOL    HW158237   4.314   0.135   1.515 -1.1467  1.1096 -0.1171
50544SOL    HW258238   4.331   0.004   1.441  1.1167  1.1637  0.2488
50545SOL     OW58239  12.322   8.258   3.475  0.1940 -0.1351  0.3053
50545SOL    HW158240  12.389   8.194   3.449  0.5316  0.4699 -0.3358
50545SOL    HW258241  12.309   8.242   3.568  2.6288  0.9968  0.9244
50546SOL     OW58242   5.789  11.531   0.614  0.0276 -0.1933  0.0784
50546SOL    HW158243   5.842  11.494   0.543  1.8250  2.2562  0.0248
50546SOL    HW258244   5.833  11.502   0.694  0.2022  0.0690  0.0804
50547SOL     OW58245  12.534   0.471   5.257 -0.4765  0.3912  0.0417
50547SOL    HW158246  12.571   0.405   5.198 -0.7922  0.7108 -0.5217
50547SOL    HW258247  12.606   0.531   5.274 -0.1180 -0.2176  0.7501
50548SOL     OW58248   1.645   0.576   1.358 -0.3561 -0.3918  0.8409
50548SOL    HW158249   1.574   0.543   1.413  0.8796 -2.2401  1.4090
50548SOL    HW258250   1.654   0.510   1.289 -1.2306  1.4026 -1.0958
50549SOL     OW58251  12.754   6.247   5.922  0.7497  0.2286  0.3049
50549SOL    HW158252  12.824   6.225   5.984  1.9179  0.8859 -0.7467
50549SOL    HW258253  12.796   6.303   5.857 -0.6204  0.1375 -0.6964
50550SOL     OW58254   3.826   2.314   8.668  0.6293  0.4626 -0.3070
50550SOL    HW158255   3.819   2.245   8.734  1.1636 -0.1749 -0.8998
50550SOL    HW258256   3.797   2.393   8.713 -0.4961 -0.2282  0.2412
50551SOL     OW58257  11.098   3.817   3.066 -0.6481  0.2617 -0.4424
50551SOL    HW158258  11.032   3.815   3.135  0.2414 -1.4094  0.4171
50551SOL    HW258259  11.152   3.894   3.087 -1.1153  0.4768  0.0044
50552SOL     OW58260   8.106   4.485   3.041 -0.2248 -1.1124  0.7274
50552SOL    HW158261   8.041   4.423   3.074 -0.4247 -0.8377  0.8572
50552SOL    HW258262   8.097   4.482   2.946  0.3061 -1.8604  0.6915
50553SOL     OW58263   1.532   6.236   9.524  0.0019 -0.0217  0.6066
50553SOL    HW158264   1.578   6.155   9.503 -0.9778 -0.4928  0.1940
50553SOL    HW258265   1.491   6.219   9.609  0.7465  0.4720  1.0766
50554SOL     OW58266  11.177  10.968   0.483 -0.6816  0.3541 -0.2585
50554SOL    HW158267  11.194  10.955   0.390 -0.4012 -0.1697 -0.1362
50554SOL    HW258268  11.236  11.039   0.508 -0.8957  0.6241 -0.5224
50555SOL     OW58269  12.449  12.138   8.456 -0.7920  0.1385  0.0459
50555SOL    HW158270  12.363  12.161   8.492 -0.0732 -1.3130  3.0863
50555SOL    HW258271  12.509  12.199   8.500 -0.0051 -0.7245  0.1896
50556SOL     OW58272   3.686   0.731   8.753 -0.4924  0.3285  0.3854
50556SOL    HW158273   3.719   0.655   8.800  0.7876  0.5226 -0.1443
50556SOL    HW258274   3.592   0.715   8.742 -0.1684 -1.3848 -0.1060
50557SOL     OW58275   2.989   0.303   8.638  0.0112 -0.3823  0.2547
50557SOL    HW158276   2.949   0.266   8.559 -1.4533  1.6262 -0.0145
50557SOL    HW258277   3.079   0.322   8.613 -0.6041  0.8070 -1.1847
50558SOL     OW58278   7.530   1.644   5.401 -0.0605 -0.4562  0.6630
50558SOL    HW158279   7.620   1.611   5.402  0.5657  1.0625 -0.9622
50558SOL    HW258280   7.476   1.565   5.403  1.3585 -1.5891 -1.5606
50559SOL     OW58281   6.525   6.762   1.393  0.4164 -0.4433 -0.0974
50559SOL    HW158282   6.609   6.808   1.389  0.5031 -0.4238  1.3280
50559SOL    HW258283   6.519   6.716   1.309  0.9612  1.0560 -1.0004
50560SOL     OW58284   7.022   6.651  11.016 -0.0679  0.3247 -0.3412
50560SOL    HW158285   7.009   6.558  11.037  1.0294  0.1738 -0.3039
50560SOL    HW258286   6.953   6.670  10.953 -0.4282 -0.4638 -0.2060
50561SOL     OW58287   6.728   2.066   2.294  0.5127  0.2447  0.1248
50561SOL    HW158288   6.707   2.134   2.358  0.4092  0.3293  0.0018
50561SOL    HW258289   6.657   2.003   2.302  0.0838  0.6428 -0.4485
50562SOL     OW58290   5.131  10.036   4.194  0.2168  0.1971 -0.1224
50562SOL    HW158291   5.139  10.102   4.125  1.8881  0.1003 -0.0751
50562SOL    HW258292   5.200   9.972   4.174 -1.3214 -1.5350 -0.1351
50563SOL     OW58293  12.109   1.204   9.090  0.6629 -0.5168  0.1896
50563SOL    HW158294  12.029   1.202   9.143 -0.1654  2.3543 -0.7633
50563SOL    HW258295  12.094   1.138   9.023 -0.9054 -0.1500  0.1220
50564SOL     OW58296   4.717   6.204   6.064 -0.5146  0.3577  0.2965
50564SOL    HW158297   4.709   6.170   5.975 -3.9440  0.3388  0.4943
50564SOL    HW258298   4.754   6.131   6.114  1.0699  0.2353 -0.9771
50565SOL     OW58299   7.738   7.023   1.405  0.8732 -0.7503 -0.2341
50565SOL    HW158300   7.764   7.049   1.317  2.5703 -1.6308 -0.0398
50565SOL    HW258301   7.648   7.055   1.414  1.6302  1.8691 -1.2169
50566SOL     OW58302   7.712   8.814   0.461  0.3389  0.0995 -0.2151
50566SOL    HW158303   7.791   8.844   0.506 -0.1449  1.3836 -0.2084
50566SOL    HW258304   7.727   8.833   0.369 -0.6211  1.9052 -0.0343
50567SOL     OW58305   3.526   7.016   0.479 -0.3145  0.1501  0.2311
50567SOL    HW158306   3.558   7.068   0.552  0.4718  0.6165 -0.4169
50567SOL    HW258307   3.436   6.993   0.502  0.3051 -0.7526  1.8845
50568SOL     OW58308   1.955   4.851   0.713 -0.2278 -0.3123  0.0461
50568SOL    HW158309   1.971   4.757   0.726 -0.0212 -0.0820  1.6578
50568SOL    HW258310   1.984   4.891   0.795  0.0227  1.2078 -0.7641
50569SOL     OW58311  11.637   8.508   2.092 -0.0031  0.9839 -0.0651
50569SOL    HW158312  11.569   8.486   2.029  0.4141 -0.9761  0.1046
50569SOL    HW258313  11.719   8.491   2.046  0.3086 -0.7268  1.0139
50570SOL     OW58314   7.021   7.202   5.116 -0.2911 -0.6344  0.7453
50570SOL    HW158315   7.048   7.139   5.050 -1.3723  0.8319 -1.2146
50570SOL    HW258316   6.925   7.196   5.118 -0.4425  1.0208  0.3599
50571SOL     OW58317   4.051   0.449   9.825  0.0643 -0.1457  0.1739
50571SOL    HW158318   4.088   0.368   9.860 -0.4995 -0.9714 -1.0527
50571SOL    HW258319   4.046   0.508   9.900  1.6933 -0.7869  0.8359
50572SOL     OW58320   0.786   0.313   6.759  0.9718  0.1808 -0.1494
50572SOL    HW158321   0.784   0.230   6.807 -1.2854  0.6769  0.7239
50572SOL    HW258322   0.694   0.334   6.743  1.4855  2.4122 -0.5147
50573SOL     OW58323   2.357   3.574   1.912 -0.1261  0.5555  0.3174
50573SOL    HW158324   2.422   3.548   1.977 -0.2543  1.0857  0.6601
50573SOL    HW258325   2.405   3.629   1.850  0.3546 -1.1562 -0.9055
50574SOL     OW58326   4.318   6.177   9.844 -0.1995 -0.5505 -0.2563
50574SOL    HW158327   4.251   6.131   9.793  0.6919  0.0238 -2.0119
50574SOL    HW258328   4.270   6.245   9.891 -1.1937 -1.7823  0.5804
50575SOL     OW58329  10.659   2.433  11.500  0.1009 -0.0014 -0.3163
50575SOL    HW158330  10.730   2.415  11.439 -0.0024  0.8811 -0.7219
50575SOL    HW258331  10.579   2.420  11.448  0.0101  0.6714 -0.3593
50576SOL     OW58332   9.131   3.756   6.719 -0.4547 -0.1932 -0.3145
50576SOL    HW158333   9.156   3.820   6.652 -0.3218  1.2623  1.0647
50576SOL    HW258334   9.134   3.805   6.801 -0.2020 -2.0294  0.8273
50577SOL     OW58335  10.172   8.049   8.829 -0.3635  0.0319 -0.4066
50577SOL    HW158336  10.193   8.120   8.890 -0.0008  1.7772 -2.4246
50577SOL    HW258337  10.254   7.999   8.821 -0.2341  0.1695  0.0547
50578SOL     OW58338  10.725   7.679   3.247 -0.3545  0.2896 -0.0667
50578SOL    HW158339  10.654   7.642   3.196 -1.1362 -1.9720  2.4574
50578SOL    HW258340  10.707   7.773   3.249 -1.5324  0.1458 -1.9483
50579SOL     OW58341  12.173   1.037   6.987  0.2476  0.4035  0.3114
50579SOL    HW158342  12.093   1.090   6.987  0.5879  0.9481  1.7444
50579SOL    HW258343  12.177   0.999   7.074  2.3104  1.5887  0.8041
50580SOL     OW58344   1.580   6.732   2.124 -0.7586 -0.4565  0.3117
50580SOL    HW158345   1.564   6.686   2.206  0.4979 -0.3119  0.6561
50580SOL    HW258346   1.499   6.780   2.107 -0.8976 -0.1969  1.6624
50581SOL     OW58347  10.216  10.274  10.193  0.1625 -0.1274 -0.2506
50581SOL    HW158348  10.235  10.314  10.108 -0.4014 -0.3807 -0.5053
50581SOL    HW258349  10.159  10.200  10.172  0.9297 -0.8857  0.2367
50582SOL     OW58350  10.336   9.213   0.178  0.0604 -0.0966  0.0460
50582SOL    HW158351  10.416   9.190   0.132 -0.3409  0.1736 -0.8065
50582SOL    HW258352  10.362   9.218   0.270  1.3928  1.4946 -0.3691
50583SOL     OW58353   6.798   1.026   3.100 -0.1323  0.1904  0.5893
50583SOL    HW158354   6.716   1.000   3.057 -0.0070  1.0266 -0.2011
50583SOL    HW258355   6.863   0.963   3.070 -0.1569  0.4661 -0.0557
50584SOL     OW58356   4.639   2.837   4.273 -0.1777 -0.2973 -0.2267
50584SOL    HW158357   4.708   2.902   4.267 -1.9483  1.6004 -1.6567
50584SOL    HW258358   4.604   2.847   4.361 -0.6256  0.9912 -0.5223
50585SOL     OW58359   4.421   2.057   5.588  0.3471 -0.4856 -0.1146
50585SOL    HW158360   4.456   2.035   5.502  1.0533 -1.7590  0.4673
50585SOL    HW258361   4.373   1.979   5.615  0.5511 -0.2914  0.8528
50586SOL     OW58362   8.172   9.451   1.672 -0.3153 -0.0574 -0.7627
50586SOL    HW158363   8.165   9.498   1.589 -0.4340 -0.2590 -0.8686
50586SOL    HW258364   8.267   9.445   1.688 -0.1897 -1.7801 -1.9096
50587SOL     OW58365   2.923  12.491   7.744 -0.5177 -0.1468  1.0957
50587SOL    HW158366   2.992  12.460   7.686 -1.3716  0.0973 -0.0810
50587SOL    HW258367   2.904  12.580   7.714 -0.4703  0.2683  2.2373
50588SOL     OW58368   6.390   9.724   7.901  0.5161  0.1360 -0.2671
50588SOL    HW158369   6.298   9.743   7.915  0.0709 -1.7225 -0.3777
50588SOL    HW258370   6.408   9.648   7.956  1.3983 -0.8727 -1.8613
50589SOL     OW58371   2.086  12.175  10.740 -0.2775 -0.2317 -0.1257
50589SOL    HW158372   2.016  12.126  10.782  0.5588 -0.9632  0.4614
50589SOL    HW258373   2.164  12.153  10.791  0.5887 -0.3697 -1.4661
50590SOL     OW58374   0.162   2.790   7.060 -0.4493  0.0011 -0.4396
50590SOL    HW158375   0.215   2.712   7.040  1.8673  1.2678  0.3491
50590SOL    HW258376   0.137   2.824   6.974 -0.0077 -0.6530 -0.8396
50591SOL     OW58377   9.617   6.657   9.824 -0.3464  0.2350 -0.2586
50591SOL    HW158378   9.530   6.670   9.785 -0.0793  0.7021 -0.7009
50591SOL    HW258379   9.673   6.632   9.751 -0.3814 -1.4347  0.2327
50592SOL     OW58380   8.266   3.414   3.732 -0.0976  0.1023 -0.5923
50592SOL    HW158381   8.355   3.428   3.764 -0.6182  1.7866  0.2598
50592SOL    HW258382   8.235   3.501   3.708 -1.7964 -0.3146 -0.0879
50593SOL     OW58383   1.204   1.252   2.796  0.7140  0.3410 -0.5316
50593SOL    HW158384   1.218   1.213   2.710  0.6125 -1.0029  0.0397
50593SOL    HW258385   1.214   1.346   2.781  0.0361  0.1904 -2.1352
50594SOL     OW58386   6.428   8.786   4.480 -0.1889 -0.6685  0.2442
50594SOL    HW158387   6.429   8.699   4.521 -1.0520  0.8034  3.7189
50594SOL    HW258388   6.519   8.816   4.484 -0.2826 -0.4985  1.2434
50595SOL     OW58389   9.636   0.844  11.294  0.4359 -0.5274 -0.0135
50595SOL    HW158390   9.650   0.793  11.374  3.3826 -0.3465 -0.3156
50595SOL    HW258391   9.686   0.797  11.227  1.0809  1.3323 -0.8782
50596SOL     OW58392   4.755   5.689  10.011 -0.3958 -0.3179 -0.2277
50596SOL    HW158393   4.769   5.752   9.939  1.0466 -0.8263 -0.4231
50596SOL    HW258394   4.709   5.616   9.970  0.5008 -0.6450 -0.6735
50597SOL     OW58395  10.363  12.310   0.809  0.1142  0.2298 -0.3408
50597SOL    HW158396  10.440  12.271   0.850  0.6356 -0.6115 -2.0527
50597SOL    HW258397  10.390  12.399   0.786 -0.4092  0.9801  1.6506
50598SOL     OW58398   4.954   9.407   7.568  0.1698 -0.4809  0.3487
50598SOL    HW158399   5.040   9.372   7.589  1.4565  2.5459  0.6464
50598SOL    HW258400   4.959   9.427   7.474  1.4714  3.4359  1.0519
50599SOL     OW58401   6.185  10.429  10.419  0.8834 -0.2392 -0.0562
50599SOL    HW158402   6.095  10.435  10.451  0.6160 -2.1994 -0.3314
50599SOL    HW258403   6.175  10.419  10.324  1.5174  1.5162 -0.3547
50600SOL     OW58404   3.814   0.398   5.480 -0.3107  0.1652 -0.1926
50600SOL    HW158405   3.785   0.390   5.389  0.1048 -0.7188 -0.2537
50600SOL    HW258406   3.738   0.373   5.533  0.0484 -1.2999 -0.3375
50601SOL     OW58407  11.026   4.096   3.322  0.1088 -0.1716 -0.6340
50601SOL    HW158408  10.979   4.067   3.400 -0.2348 -0.2327 -0.8626
50601SOL    HW258409  10.972   4.166   3.285  0.6480  0.3785 -0.4040
50602SOL     OW58410   0.387   7.491   3.951 -0.3458 -0.2568 -0.2247
50602SOL    HW158411   0.423   7.579   3.942 -1.5124  0.3618  0.7859
50602SOL    HW258412   0.419   7.460   4.036 -0.1180 -0.7295 -0.4776
50603SOL     OW58413  11.211   6.419   0.720  0.1390  0.7655 -0.3079
50603SOL    HW158414  11.180   6.363   0.650  1.5855 -1.7384  0.8874
50603SOL    HW258415  11.285   6.371   0.758  0.9531  3.1340  1.3730
50604SOL     OW58416  10.974  10.539   6.683 -0.3181  0.4594  0.5829
50604SOL    HW158417  10.908  10.562   6.748  0.0771  0.9413  0.8201
50604SOL    HW258418  10.932  10.473   6.629 -0.4833 -0.3258  1.6310
50605SOL     OW58419   1.438   9.217   9.482  0.4996 -0.6458 -0.3298
50605SOL    HW158420   1.451   9.189   9.392  2.9053 -0.7848 -0.0052
50605SOL    HW258421   1.426   9.136   9.532  0.5432 -0.6658 -0.3522
50606SOL     OW58422  10.150   6.952   4.894 -0.2927  0.0019 -0.3339
50606SOL    HW158423  10.245   6.962   4.880 -0.1102 -0.4312  0.5196
50606SOL    HW258424  10.142   6.869   4.940 -1.2371 -0.7403 -1.7560
50607SOL     OW58425  11.132  10.876   0.915 -0.2543 -0.4095  0.0180
50607SOL    HW158426  11.134  10.965   0.880 -0.8527 -0.4259 -0.0718
50607SOL    HW258427  11.205  10.831   0.872 -0.0088  0.0067 -0.0093
50608SOL     OW58428   0.221   9.614   1.588 -0.2054 -0.3434 -0.1185
50608SOL    HW158429   0.297   9.562   1.563  1.2099  1.6257 -0.0887
50608SOL    HW258430   0.203   9.669   1.511  0.2066  1.2119  0.8519
50609SOL     OW58431   8.196  10.285   0.799 -0.6088  0.4966 -0.0696
50609SOL    HW158432   8.160  10.346   0.734 -0.6792 -0.5095 -1.0224
50609SOL    HW258433   8.135  10.211   0.798  0.0260 -0.0455  0.2896
50610SOL     OW58434   6.791   0.958  12.648  0.2958 -0.4172  0.3978
50610SOL    HW158435   6.766   1.016  12.576  0.9387 -0.4851  0.1092
50610SOL    HW258436   6.818   1.017  12.718  0.0164 -0.3550  0.4527
50611SOL     OW58437   3.905   5.713   3.327  0.3158  0.1148  0.2734
50611SOL    HW158438   3.888   5.667   3.409 -0.6008  1.9936  1.2229
50611SOL    HW258439   3.939   5.798   3.355  0.9140  0.4291 -1.3400
50612SOL     OW58440   7.856  10.659   5.967  0.4374  1.0437  0.6684
50612SOL    HW158441   7.890  10.674   6.055  0.3974  0.6003  0.7631
50612SOL    HW258442   7.762  10.674   5.975  0.3614  0.5068  0.8210
50613SOL     OW58443   6.883   8.665   2.447  0.1850  0.4505  0.0659
50613SOL    HW158444   6.895   8.715   2.528  2.9844  1.8326 -1.0551
50613SOL    HW258445   6.965   8.616   2.437  0.1799  0.8119 -2.2088
50614SOL     OW58446   4.630   2.733   3.807 -0.0119  0.7816 -0.2182
50614SOL    HW158447   4.694   2.791   3.765  2.5216  0.6655  3.0617
50614SOL    HW258448   4.669   2.646   3.801 -0.4376  0.5116  0.8020
50615SOL     OW58449   2.586   9.694  12.415 -0.2384  0.0991  0.6416
50615SOL    HW158450   2.681   9.682  12.418 -0.0506  1.4878  1.1136
50615SOL    HW258451   2.559   9.657  12.331  1.0908  2.0354 -0.7031
50616SOL     OW58452   2.423   9.999   4.711  0.1940 -1.1173  0.1407
50616SOL    HW158453   2.392  10.009   4.621 -1.0865  0.4973  0.7183
50616SOL    HW258454   2.375   9.923   4.745 -1.8317  0.2175  0.4283
50617SOL     OW58455   4.324   3.109   1.453 -0.2242 -0.3647 -0.0548
50617SOL    HW158456   4.286   3.194   1.429  0.5864 -0.3184 -1.2562
50617SOL    HW258457   4.390   3.092   1.385  1.5402 -0.6861  1.6538
50618SOL     OW58458   2.213   6.661   8.652 -0.2631  0.1399  0.4872
50618SOL    HW158459   2.140   6.643   8.711 -0.9487 -0.4798 -0.5107
50618SOL    HW258460   2.173   6.705   8.577  0.4570  0.1342  0.0890
50619SOL     OW58461   7.161   3.603   3.913 -0.2799  0.0646  0.0649
50619SOL    HW158462   7.132   3.534   3.974 -1.3103 -2.4388 -2.9800
50619SOL    HW258463   7.081   3.652   3.894 -0.2342  0.0521 -0.1597
50620SOL     OW58464   2.561   3.308   3.214  0.3378  0.3894 -0.0546
50620SOL    HW158465   2.596   3.377   3.271  1.0779  0.3530 -0.4531
50620SOL    HW258466   2.466   3.319   3.219  0.3975  0.6253  0.8934
50621SOL     OW58467   7.912  11.925   6.281  0.3420  0.4875 -0.4931
50621SOL    HW158468   7.930  11.894   6.370 -2.5524 -1.6945 -0.5304
50621SOL    HW258469   7.843  11.991   6.292 -3.3737 -2.8942 -1.1417
50622SOL     OW58470   9.121   9.626   2.817 -0.2944  0.2281 -0.1934
50622SOL    HW158471   9.064   9.701   2.799 -0.0357  0.7270  1.0160
50622SOL    HW258472   9.209   9.664   2.825 -0.5351  0.3842  3.6510
50623SOL     OW58473   8.085   5.866   8.736 -0.5757 -0.3799  0.3901
50623SOL    HW158474   8.082   5.799   8.804  0.5089 -0.3302  0.4924
50623SOL    HW258475   7.993   5.881   8.714 -0.9364 -0.4944  1.7395
50624SOL     OW58476   6.208  11.004   2.493 -0.2898 -0.0832 -0.4080
50624SOL    HW158477   6.196  11.077   2.554  1.0664  0.0599 -0.2638
50624SOL    HW258478   6.225  11.046   2.409  1.2099 -0.1791 -0.1838
50625SOL     OW58479   0.329   9.837  11.503  0.5451  0.6378 -0.1820
50625SOL    HW158480   0.359   9.897  11.571  1.2684  0.8759 -0.7025
50625SOL    HW258481   0.409   9.809  11.458  0.5823 -2.6815  1.6055
50626SOL     OW58482   1.106   7.806   6.404 -0.3875  0.1654 -0.3034
50626SOL    HW158483   1.180   7.841   6.453 -1.6421 -0.6127  2.3312
50626SOL    HW258484   1.101   7.860   6.325  2.5414  0.6421 -0.2727
50627SOL     OW58485   3.287  12.202   8.457 -0.5608 -0.3351  0.1191
50627SOL    HW158486   3.330  12.134   8.508  1.2295  1.5193  1.1973
50627SOL    HW258487   3.356  12.237   8.400 -0.9686  1.6813  0.7922
50628SOL     OW58488   8.287   1.491   7.306  0.5569 -0.4414  0.1299
50628SOL    HW158489   8.338   1.500   7.225  1.7204 -1.4357  0.7243
50628SOL    HW258490   8.326   1.416   7.351 -0.9778 -0.7838  0.9636
50629SOL     OW58491  11.060  10.307   2.391 -0.1337 -0.4390  0.3731
50629SOL    HW158492  11.095  10.393   2.417  2.6643 -1.7578  1.3149
50629SOL    HW258493  10.966  10.323   2.380 -0.1958  2.1842  3.1535
50630SOL     OW58494   8.622   2.405   6.402  0.2378  0.1091 -0.0581
50630SOL    HW158495   8.629   2.389   6.307  0.4470 -0.0122 -0.0249
50630SOL    HW258496   8.596   2.320   6.438  1.1140 -0.1037  0.0951
50631SOL     OW58497   7.903   7.914   0.157 -0.6214  0.3090 -0.1562
50631SOL    HW158498   7.890   8.009   0.163 -1.4838  0.1979 -0.1233
50631SOL    HW258499   7.820   7.877   0.187  0.1062 -0.4799  0.9886
50632SOL     OW58500   4.354  10.071  12.561  0.5816 -0.3602 -0.6851
50632SOL    HW158501   4.352   9.983  12.522 -0.5007 -1.2178  1.1520
50632SOL    HW258502   4.290  10.067  12.632  1.2747  1.6129  0.1187
50633SOL     OW58503   3.650  10.209   0.411  0.2393 -0.4373 -0.1187
50633SOL    HW158504   3.572  10.249   0.450  0.9653 -0.0314  0.9777
50633SOL    HW258505   3.661  10.254   0.327  0.3355  0.8464  0.5441
50634SOL     OW58506   5.655   9.954   4.657  0.1144 -0.3632 -0.2898
50634SOL    HW158507   5.648  10.044   4.690 -0.8929 -0.1201 -1.1183
50634SOL    HW258508   5.703   9.907   4.725 -1.4412  0.2307  1.2860
50635SOL     OW58509   7.396   5.265   2.024 -0.5943 -0.0882 -0.2861
50635SOL    HW158510   7.460   5.197   2.046 -0.0651  0.1002 -1.2083
50635SOL    HW258511   7.443   5.347   2.038 -0.4579  0.0453 -1.4557
50636SOL     OW58512   3.792   4.919  11.748  0.3456 -0.3476 -0.1961
50636SOL    HW158513   3.805   4.870  11.667  1.6577  0.2721 -0.3744
50636SOL    HW258514   3.704   4.956  11.739  0.1223 -1.0229 -0.9273
50637SOL     OW58515   3.632   1.493   3.970 -0.3559 -0.1372  0.2620
50637SOL    HW158516   3.626   1.447   4.054  0.7348 -0.5938  0.1125
50637SOL    HW258517   3.665   1.426   3.910  0.4480  0.6290 -0.1533
50638SOL     OW58518   5.614  11.569   3.891  0.5046  0.1612 -0.0452
50638SOL    HW158519   5.617  11.508   3.818  0.3073 -0.6418  0.6089
50638SOL    HW258520   5.600  11.514   3.968  1.6971  0.8802  0.7252
50639SOL     OW58521   4.601   2.930   1.627  0.1154  0.4925  0.4020
50639SOL    HW158522   4.697   2.933   1.633  0.3246 -2.2158 -0.3777
50639SOL    HW258523   4.579   2.994   1.559  1.6803 -0.8157 -1.4342
50640SOL     OW58524   0.656   8.603   8.149  0.2055 -0.2774  0.1903
50640SOL    HW158525   0.630   8.516   8.180  1.3048 -0.4253  0.7328
50640SOL    HW258526   0.701   8.588   8.066 -0.2037 -0.1533 -0.0584
50641SOL     OW58527  11.957   3.648  10.088 -0.2506 -0.4254 -0.0855
50641SOL    HW158528  11.877   3.686  10.124  0.1016  0.5462 -0.2960
50641SOL    HW258529  11.930   3.561  10.057 -1.0727 -0.3657  0.4232
50642SOL     OW58530   6.569   7.673   4.611 -0.2488 -0.4183  0.2240
50642SOL    HW158531   6.656   7.652   4.645 -0.5363  0.1675  1.3459
50642SOL    HW258532   6.511   7.666   4.686 -1.1392 -0.5205 -0.4535
50643SOL     OW58533   6.693   1.786   1.231  0.3865  0.5340 -0.1462
50643SOL    HW158534   6.610   1.810   1.271  0.0984 -0.2047 -0.2850
50643SOL    HW258535   6.725   1.712   1.283  0.7315  0.5168 -0.3745
50644SOL     OW58536   3.974   3.729   7.456  0.6111 -0.0651  0.2629
50644SOL    HW158537   3.893   3.731   7.508  0.2945  0.2184 -0.2405
50644SOL    HW258538   3.981   3.817   7.419  1.2990 -0.0030  0.5188
50645SOL     OW58539   8.031   0.063   9.963 -0.0660  0.2560 -0.3452
50645SOL    HW158540   8.035   0.089  10.055 -0.6101  2.5458 -0.9207
50645SOL    HW258541   8.121   0.069   9.932 -0.0522  0.5622 -0.2451
50646SOL     OW58542  11.845   2.765  12.413 -0.0034 -0.0621  0.7126
50646SOL    HW158543  11.837   2.771  12.508 -0.6762 -1.6216  0.7795
50646SOL    HW258544  11.807   2.680  12.391  2.3289 -0.8215 -0.7056
50647SOL     OW58545   0.616   9.607   2.952  0.5997 -0.1690  0.2189
50647SOL    HW158546   0.705   9.586   2.923  0.2104 -0.8591 -0.5295
50647SOL    HW258547   0.595   9.690   2.909  1.5057  0.9007  1.7831
50648SOL     OW58548   7.617  12.247  10.305 -0.1517  0.3266 -0.0266
50648SOL    HW158549   7.653  12.278  10.221 -0.0121  0.0258 -0.0803
50648SOL    HW258550   7.693  12.218  10.354 -0.3938 -1.3530 -0.5689
50649SOL     OW58551   1.866   0.034   8.605 -0.3077 -0.1298 -0.1007
50649SOL    HW158552   1.851  -0.038   8.544  1.8038 -0.6879 -0.0357
50649SOL    HW258553   1.954   0.066   8.584 -0.2913  0.9196  1.3898
50650SOL     OW58554   6.689  11.255   9.658 -0.2713 -0.6094  0.1603
50650SOL    HW158555   6.619  11.298   9.608 -0.8729 -2.2211 -0.4493
50650SOL    HW258556   6.744  11.327   9.689 -1.4256  0.6092 -0.5176
50651SOL     OW58557   5.446   4.822   8.938  0.6409 -0.1876 -0.0881
50651SOL    HW158558   5.435   4.913   8.908 -0.9793 -0.0718  0.7724
50651SOL    HW258559   5.445   4.770   8.858  0.5411  0.4533 -0.5105
50652SOL     OW58560  10.237   8.492   9.609 -0.3002 -0.3504  0.7096
50652SOL    HW158561  10.234   8.400   9.636 -0.5393 -0.5296  0.0809
50652SOL    HW258562  10.145   8.517   9.602 -0.2440 -0.3323 -0.0208
50653SOL     OW58563   2.223  11.475   2.752 -0.5099 -0.0850  0.3685
50653SOL    HW158564   2.187  11.559   2.722  1.6777  0.6550 -0.3926
50653SOL    HW258565   2.233  11.424   2.672 -1.2340 -0.8695  0.7589
50654SOL     OW58566   2.550   5.340   9.422 -0.1491 -0.2535  0.2417
50654SOL    HW158567   2.540   5.266   9.481 -1.3623 -0.3068  0.0015
50654SOL    HW258568   2.572   5.300   9.337 -2.2218 -0.4774 -0.2309
50655SOL     OW58569   0.747   3.542   8.833 -0.4468  0.0836 -0.4449
50655SOL    HW158570   0.811   3.574   8.897 -1.9565  2.3389  0.0631
50655SOL    HW258571   0.793   3.545   8.749  0.5975  0.1029  0.1097
50656SOL     OW58572   5.369   3.922   5.200 -0.6203  0.7764  0.5572
50656SOL    HW158573   5.453   3.893   5.164  0.3866  2.1231  1.6941
50656SOL    HW258574   5.305   3.859   5.167  0.6245  0.4442 -1.4041
50657SOL     OW58575   4.302   6.893   7.437  0.2575 -0.6072 -0.5227
50657SOL    HW158576   4.318   6.853   7.351  0.7842 -0.1442 -0.6490
50657SOL    HW258577   4.342   6.832   7.499  1.6110 -0.0055 -0.7593
50658SOL     OW58578  12.724   6.376  11.385  0.3816  0.0280  0.4847
50658SOL    HW158579  12.708   6.335  11.470 -1.0578  1.2122  0.8224
50658SOL    HW258580  12.740   6.468  11.406  0.5394  0.2266 -0.4889
50659SOL     OW58581   8.016   1.826   4.211 -0.0468  0.7270  0.2094
50659SOL    HW158582   8.019   1.783   4.126 -1.6133  1.4545 -0.2453
50659SOL    HW258583   7.989   1.758   4.272  0.2464  0.4047 -0.0209
50660SOL     OW58584  11.625   3.246   0.749  0.1800  0.9835  0.0094
50660SOL    HW158585  11.620   3.272   0.841 -0.4447  0.6648  0.0765
50660SOL    HW258586  11.578   3.315   0.702  0.4616  1.1241 -0.0678
50661SOL     OW58587   5.598   2.563   8.968  0.4252  0.1509 -0.6151
50661SOL    HW158588   5.572   2.644   9.013 -0.7871 -0.0940 -0.8389
50661SOL    HW258589   5.539   2.558   8.893  1.1307 -0.4595 -1.1284
50662SOL     OW58590   0.892   0.500   2.054 -0.0285  0.0825  0.5211
50662SOL    HW158591   0.805   0.459   2.060 -0.3403  0.7607  0.8362
50662SOL    HW258592   0.906   0.512   1.960  0.3565 -1.3201  0.3841
50663SOL     OW58593  12.157   4.153   2.392  0.4057 -0.2010 -0.1429
50663SOL    HW158594  12.175   4.072   2.442 -1.5870 -0.0441  0.9201
50663SOL    HW258595  12.233   4.208   2.409  0.8419 -1.0600  0.8526
50664SOL     OW58596   3.588   9.977   9.399  0.3290 -0.1630  0.2920
50664SOL    HW158597   3.533   9.963   9.322 -0.9617 -0.8720  1.3061
50664SOL    HW258598   3.661   9.915   9.388  1.1229  0.9619 -1.1862
50665SOL     OW58599   3.743   8.687  11.753 -0.5201 -0.6169 -0.0044
50665SOL    HW158600   3.727   8.633  11.831 -1.3454 -0.1007  0.1934
50665SOL    HW258601   3.722   8.629  11.680  0.4528 -1.1687  0.1357
50666SOL     OW58602   9.473   0.265   9.247 -0.5363  0.5030  0.2640
50666SOL    HW158603   9.426   0.337   9.289 -1.4196  0.3260 -0.3864
50666SOL    HW258604   9.563   0.295   9.242 -0.4933  0.7101  1.8498
50667SOL     OW58605   5.923   5.454   6.576 -0.0545  0.0952  0.2962
50667SOL    HW158606   5.982   5.495   6.514  0.1424  0.0745  0.4689
50667SOL    HW258607   5.887   5.526   6.627  0.1337  0.0722  0.4622
50668SOL     OW58608   3.736   6.715   0.521  1.0641  0.0610 -0.3156
50668SOL    HW158609   3.795   6.660   0.469  0.7334 -0.7543  0.1638
50668SOL    HW258610   3.715   6.789   0.463  1.6704 -0.2080 -0.8888
50669SOL     OW58611   8.911   0.396   5.856  0.4542 -0.1961  0.3619
50669SOL    HW158612   8.965   0.336   5.804  0.8805 -0.2964  0.9085
50669SOL    HW258613   8.889   0.347   5.935  1.0465  0.4484  0.9440
50670SOL     OW58614   3.199   8.522   2.090 -0.3702  0.1228  0.1207
50670SOL    HW158615   3.107   8.504   2.111 -0.1697  1.3007  2.3810
50670SOL    HW258616   3.249   8.472   2.155  0.5714  0.0263 -0.6550
50671SOL     OW58617   1.945   2.444   2.334  0.2307 -0.0156 -0.1901
50671SOL    HW158618   1.957   2.383   2.407  1.3511 -1.2026 -1.3117
50671SOL    HW258619   2.024   2.433   2.281 -0.7346  0.5218 -1.7851
50672SOL     OW58620   9.308  12.603   9.888 -0.5865  0.8068  0.3131
50672SOL    HW158621   9.320  12.637   9.799 -0.7071  2.0976  0.7684
50672SOL    HW258622   9.395  12.610   9.928 -0.7617  1.2274  0.6250
50673SOL     OW58623   4.775   7.962   4.234  0.0703  0.2496 -0.3295
50673SOL    HW158624   4.797   8.055   4.246  1.1084 -0.1225  0.9863
50673SOL    HW258625   4.854   7.915   4.263  0.2832 -1.0263 -2.7778
50674SOL     OW58626   3.595   9.798   0.282 -0.0535 -0.5636  0.4023
50674SOL    HW158627   3.675   9.837   0.246 -0.2003 -2.5830 -2.3809
50674SOL    HW258628   3.580   9.847   0.364  3.0868  0.9593  0.2276
50675SOL     OW58629   5.912   4.532   1.821  0.6036 -0.0800  0.3078
50675SOL    HW158630   5.953   4.447   1.835  0.3053 -0.2042  0.4281
50675SOL    HW258631   5.826   4.525   1.862 -0.3079 -0.4522 -1.5700
50676SOL     OW58632   1.736   9.998   1.846 -0.3543 -0.6921  0.0936
50676SOL    HW158633   1.667   9.942   1.811 -0.0644 -1.2009  0.3386
50676SOL    HW258634   1.766  10.049   1.771 -1.2136 -0.2287  0.0418
50677SOL     OW58635  11.375   3.991   0.381  0.3040  0.1766  0.3174
50677SOL    HW158636  11.299   3.979   0.324  0.5634 -0.9536  0.1732
50677SOL    HW258637  11.443   3.935   0.342  0.8943  0.3974  1.0018
50678SOL     OW58638   2.805   0.070  11.530  0.1259 -0.1100 -0.1908
50678SOL    HW158639   2.894   0.047  11.554 -0.0801  0.1192  0.8308
50678SOL    HW258640   2.815   0.138  11.463  0.7147  0.5013  0.5086
50679SOL     OW58641   0.733   9.882   8.647  0.0937  0.6969 -0.4726
50679SOL    HW158642   0.640   9.888   8.669 -0.4371  1.8528 -2.7377
50679SOL    HW258643   0.769   9.967   8.670  0.7631  0.0606  0.9419
50680SOL     OW58644   5.771  11.561   8.335  0.5648  0.1213 -0.3633
50680SOL    HW158645   5.680  11.534   8.326  0.4821  0.9523 -2.5607
50680SOL    HW258646   5.766  11.654   8.359  0.8181  0.4099 -1.4028
50681SOL     OW58647   7.212   8.635   4.235 -0.1734 -0.6864 -1.3028
50681SOL    HW158648   7.200   8.540   4.230 -0.6379 -0.8927  1.8286
50681SOL    HW258649   7.140   8.666   4.289 -0.4643  1.6110 -2.8614
50682SOL     OW58650   0.260   4.300   3.780 -0.3134 -0.1018 -0.2707
50682SOL    HW158651   0.305   4.302   3.864  0.4290 -0.2481 -0.6542
50682SOL    HW258652   0.248   4.207   3.762 -2.0883 -0.0694  0.4948
50683SOL     OW58653   8.026   1.055  11.482  0.3537 -0.2783  0.1972
50683SOL    HW158654   8.107   1.019  11.446  1.6972 -0.2296  2.8841
50683SOL    HW258655   8.054   1.134  11.530 -1.6269  0.9433 -0.5470
50684SOL     OW58656   7.548   8.525   9.591  0.0944 -0.3558 -0.1161
50684SOL    HW158657   7.586   8.594   9.646  0.4533 -0.4773 -0.2123
50684SOL    HW258658   7.623   8.479   9.553 -0.1447 -0.2070 -0.7956
50685SOL     OW58659   5.692  10.131   2.249  0.5046 -0.2698 -0.9572
50685SOL    HW158660   5.766  10.107   2.192  0.9166 -0.4537 -0.3544
50685SOL    HW258661   5.732  10.146   2.335 -0.3104 -1.4625 -0.3464
50686SOL     OW58662   8.411   9.280   3.643 -0.2016  0.2572 -0.6701
50686SOL    HW158663   8.343   9.331   3.687  1.4589  2.2751 -0.3025
50686SOL    HW258664   8.373   9.260   3.557 -1.4340  0.9053 -0.3093
50687SOL     OW58665  10.682   1.598  12.245 -0.6140  0.1388  0.7149
50687SOL    HW158666  10.704   1.689  12.228  0.1962 -0.2641 -0.5534
50687SOL    HW258667  10.664   1.561  12.159  2.8056 -1.8074  0.6245
50688SOL     OW58668   5.494   8.443   5.102  0.2023 -0.0195  0.2294
50688SOL    HW158669   5.582   8.440   5.063 -0.3194 -2.6036 -0.8941
50688SOL    HW258670   5.442   8.383   5.050 -2.4145  1.7600  0.6021
50689SOL     OW58671   3.106   7.705   7.614  0.4618  0.0566  0.2283
50689SOL    HW158672   3.094   7.611   7.631 -2.0569  0.4194  0.9804
50689SOL    HW258673   3.183   7.729   7.665 -0.2186 -1.1937  1.9560
50690SOL     OW58674   3.415   5.254   0.116 -0.3332  0.3671 -0.2007
50690SOL    HW158675   3.447   5.164   0.105 -0.0496  0.4949 -0.4501
50690SOL    HW258676   3.369   5.273   0.034  0.1925  0.6836 -0.4262
50691SOL     OW58677   1.453   8.096   5.363  0.1102 -0.1823 -0.2150
50691SOL    HW158678   1.386   8.087   5.430 -0.5721  1.9111 -0.5669
50691SOL    HW258679   1.529   8.132   5.410 -0.2251  0.8774 -0.4800
50692SOL     OW58680   6.535   3.218  10.495 -0.3909  0.0592 -0.2853
50692SOL    HW158681   6.534   3.288  10.560  0.3617 -0.7485  0.6144
50692SOL    HW258682   6.465   3.241  10.434  0.4983  2.1365 -0.5939
50693SOL     OW58683   7.438   4.475   0.101  0.2676  0.0266 -0.1403
50693SOL    HW158684   7.523   4.503   0.068  0.8000 -2.3549 -1.0048
50693SOL    HW258685   7.375   4.512   0.040  0.7314  0.9276 -0.0969
50694SOL     OW58686   1.133   5.854   3.037 -0.0051 -0.0869 -0.3815
50694SOL    HW158687   1.041   5.865   3.063  0.2903  3.0072 -0.1958
50694SOL    HW258688   1.131   5.786   2.970 -2.2442 -0.9264  0.4245
50695SOL     OW58689   1.575   5.131  12.185 -0.6017 -0.1298  0.0362
50695SOL    HW158690   1.641   5.189  12.222  0.7689 -0.1869 -2.1364
50695SOL    HW258691   1.616   5.044  12.185 -1.2276 -0.4351 -0.0912
50696SOL     OW58692   1.562   1.395   7.886  0.3986 -0.3550 -0.7677
50696SOL    HW158693   1.543   1.487   7.870  1.4270 -0.0994 -0.5910
50696SOL    HW258694   1.642   1.378   7.836  1.4482 -0.5656  0.9172
50697SOL     OW58695  12.697   1.001   2.518 -0.7110 -0.0273 -0.2060
50697SOL    HW158696  12.608   1.023   2.489 -0.4841  0.2858 -0.7002
50697SOL    HW258697  12.746   1.082   2.505 -0.3699 -0.1773  0.1366
50698SOL     OW58698   6.367   1.053   1.048  0.0642  0.3770  0.1724
50698SOL    HW158699   6.460   1.047   1.028 -0.0645 -0.9514 -0.1000
50698SOL    HW258700   6.340   1.138   1.012  0.9201  0.2592 -0.7961
50699SOL     OW58701   4.420   2.701   4.708 -0.2266 -0.5316  0.7357
50699SOL    HW158702   4.434   2.649   4.629 -1.0726 -1.2223  1.0150
50699SOL    HW258703   4.350   2.654   4.755 -0.0918  0.1428  1.6398
50700SOL     OW58704  10.020  12.366  10.541 -0.1921 -0.6059 -0.2736
50700SOL    HW158705   9.966  12.320  10.605  0.1892  0.3476  0.7460
50700SOL    HW258706   9.957  12.411  10.485 -0.4805  0.8126  1.1383
50701SOL     OW58707   8.695   5.212   2.616  0.0146  0.2959 -0.5223
50701SOL    HW158708   8.789   5.234   2.619  0.1942 -0.5122  0.0316
50701SOL    HW258709   8.692   5.117   2.623 -0.8811  0.3607  0.2337
50702SOL     OW58710   9.367   2.368   4.427  0.2106  0.0635  0.6466
50702SOL    HW158711   9.431   2.438   4.437 -0.0153  0.2252  0.9443
50702SOL    HW258712   9.419   2.288   4.433  0.8396  0.1861 -2.0281
50703SOL     OW58713   5.693   4.288   1.110  0.4084 -0.4146 -0.2321
50703SOL    HW158714   5.608   4.307   1.070 -0.1345 -1.7775  0.2480
50703SOL    HW258715   5.756   4.312   1.042 -0.4304 -0.9824 -1.2385
50704SOL     OW58716   5.112   6.444   5.062  0.1101  0.3739  0.2943
50704SOL    HW158717   5.200   6.450   5.026 -0.2191  1.2000 -0.4041
50704SOL    HW258718   5.081   6.358   5.035  0.7318  0.0323  0.6419
50705SOL     OW58719  10.561  12.142   5.714 -0.3724  0.1602 -0.1090
50705SOL    HW158720  10.503  12.204   5.669  0.4989  0.3523 -1.0018
50705SOL    HW258721  10.609  12.196   5.777  1.4541  0.7426 -1.8931
50706SOL     OW58722   0.946   6.845   2.955 -0.2477  0.3420 -0.0917
50706SOL    HW158723   0.994   6.927   2.941  1.4975 -0.8580 -1.7226
50706SOL    HW258724   0.917   6.849   3.046  2.3098  1.5324  0.7651
50707SOL     OW58725   5.575   9.605  12.334 -0.5391 -0.1276 -0.0618
50707SOL    HW158726   5.537   9.667  12.396  1.7540 -0.1022  1.4348
50707SOL    HW258727   5.612   9.660  12.264 -0.4332  0.0356  0.1242
50708SOL     OW58728   2.408   3.427   5.318  0.1586  0.3499  0.3802
50708SOL    HW158729   2.357   3.507   5.319  0.8437  0.7996  0.1224
50708SOL    HW258730   2.470   3.438   5.246  0.4808 -0.2649  0.5506
50709SOL     OW58731   6.365   6.472   0.702  0.0168 -0.0822  0.1853
50709SOL    HW158732   6.390   6.551   0.751 -1.1664 -0.8240  2.0949
50709SOL    HW258733   6.431   6.407   0.727  0.1056 -0.1286 -0.1683
50710SOL     OW58734   5.622  10.661   7.234 -0.2652  0.0622 -0.0940
50710SOL    HW158735   5.642  10.693   7.146  0.2638  1.6273  0.5702
50710SOL    HW258736   5.659  10.726   7.293 -2.0191 -0.1045  1.2889
50711SOL     OW58737   3.104   3.699   6.342  0.5581 -0.0533 -0.1735
50711SOL    HW158738   3.171   3.636   6.370  0.6165 -0.0836 -0.3803
50711SOL    HW258739   3.144   3.746   6.269  0.3994  0.0144 -0.2174
50712SOL     OW58740   0.973   3.898   7.025  0.2475  0.1384  0.4230
50712SOL    HW158741   1.053   3.950   7.024  0.2827  0.2601 -2.6997
50712SOL    HW258742   0.904   3.960   7.048  0.8018  0.5373  1.0237
50713SOL     OW58743   2.330   1.823   1.519  0.0081 -0.4219  0.5965
50713SOL    HW158744   2.292   1.870   1.445  0.1941  1.0440  1.3748
50713SOL    HW258745   2.268   1.754   1.539  0.0098 -0.9138 -0.9786
50714SOL     OW58746   8.861   3.445   5.385  0.1520  0.4284 -0.0784
50714SOL    HW158747   8.795   3.377   5.371 -1.1407  1.4078  1.0094
50714SOL    HW258748   8.944   3.401   5.369 -0.6151 -1.5087  0.8757
50715SOL     OW58749   3.859   6.730   5.319 -0.4405 -0.1159 -0.3282
50715SOL    HW158750   3.876   6.644   5.280 -0.5931 -1.1848  1.8389
50715SOL    HW258751   3.845   6.788   5.244  0.4032 -1.8113 -1.8636
50716SOL     OW58752   2.751  11.146  11.533  0.4208 -0.1847 -0.3191
50716SOL    HW158753   2.684  11.208  11.560  0.7702  0.3153 -0.5890
50716SOL    HW258754   2.706  11.061  11.529 -0.5404  0.3605 -1.8640
50717SOL     OW58755   2.337   4.389   0.936 -0.5054  0.0221 -0.4297
50717SOL    HW158756   2.430   4.410   0.942 -0.7102  1.1067 -0.7709
50717SOL    HW258757   2.326   4.352   0.848 -0.3153 -0.5666 -0.2073
50718SOL     OW58758   5.472  10.235   8.899  0.6966 -0.3338  0.1636
50718SOL    HW158759   5.567  10.242   8.898  0.7029 -0.2276 -1.2447
50718SOL    HW258760   5.442  10.312   8.850 -0.0512 -0.9168 -0.3260
50719SOL     OW58761   6.614   4.021  12.343  0.2929 -0.3627  0.2070
50719SOL    HW158762   6.586   3.983  12.426  2.6211  0.3938  1.4602
50719SOL    HW258763   6.558   3.980  12.277 -1.1780 -1.5185  2.0634
50720SOL     OW58764   8.171   6.369  10.388 -0.3731  0.2268 -0.5258
50720SOL    HW158765   8.088   6.387  10.433  0.3434 -0.7083  1.2700
50720SOL    HW258766   8.213   6.454  10.380 -0.1457  0.3490  1.4394
50721SOL     OW58767   6.085  11.540   2.948 -0.1065 -0.8139 -0.4251
50721SOL    HW158768   6.053  11.452   2.930  1.7864 -1.6961  0.3205
50721SOL    HW258769   6.041  11.565   3.029 -0.0226 -1.4185 -0.1892
50722SOL     OW58770   8.980   7.315  10.737  0.6986  0.4864  0.2337
50722SOL    HW158771   8.920   7.315  10.812  0.1855  1.4577 -0.1568
50722SOL    HW258772   9.021   7.401  10.740 -0.3293  1.0584 -1.3704
50723SOL     OW58773  10.794   3.531   0.676 -0.2673  0.5478  0.6495
50723SOL    HW158774  10.870   3.532   0.735  0.3065  2.0722 -0.0816
50723SOL    HW258775  10.806   3.607   0.620 -0.5676 -1.0516 -1.7455
50724SOL     OW58776   1.866  10.351   7.691  0.9072  0.4527 -0.1437
50724SOL    HW158777   1.825  10.413   7.631 -0.5800  0.3312  0.6846
50724SOL    HW258778   1.834  10.377   7.778 -0.4503 -1.9135  0.1701
50725SOL     OW58779   4.532   8.142   5.998 -0.0446 -0.1758  0.5392
50725SOL    HW158780   4.592   8.210   5.969 -1.4485  0.4652 -1.0536
50725SOL    HW258781   4.537   8.075   5.931  1.2510 -1.6792  2.0451
50726SOL     OW58782   1.574   8.437  10.383  0.1607  0.0196 -0.5521
50726SOL    HW158783   1.575   8.452  10.478 -2.1179 -0.2410 -0.4181
50726SOL    HW258784   1.654   8.477  10.351  1.5828 -0.9069  1.6233
50727SOL     OW58785  11.275  12.645   8.252 -0.4764 -0.1371 -0.4165
50727SOL    HW158786  11.301  12.656   8.343 -0.2390  2.2132 -0.7214
50727SOL    HW258787  11.348  12.599   8.211  0.2909  0.5229  0.1809
50728SOL     OW58788   1.475   7.776   9.622 -0.0413  0.6839  0.0052
50728SOL    HW158789   1.476   7.843   9.690 -1.6583  0.1705  0.5821
50728SOL    HW258790   1.382   7.762   9.604  0.3171 -0.2830 -1.2287
50729SOL     OW58791   2.771  12.582   6.253  0.1346 -0.3945 -0.5249
50729SOL    HW158792   2.804  12.504   6.211  0.3067 -0.0928 -0.9587
50729SOL    HW258793   2.679  12.562   6.273  0.0745 -0.5766 -0.9673
50730SOL     OW58794   3.056   8.795  11.717  0.1051 -0.3369  0.3166
50730SOL    HW158795   3.125   8.755  11.663 -0.9969  0.5973 -1.8760
50730SOL    HW258796   3.009   8.852  11.657 -0.2957  1.9211  2.6399
50731SOL     OW58797   7.749  11.702   0.688  0.7135  0.4913 -0.4584
50731SOL    HW158798   7.788  11.780   0.650 -0.0624  0.4126 -1.4484
50731SOL    HW258799   7.823  11.648   0.714  1.2500  0.9544 -1.0236
50732SOL     OW58800  11.620   8.342   9.274  0.2546 -0.1984  0.2852
50732SOL    HW158801  11.679   8.348   9.349 -0.5546  0.6387  0.8767
50732SOL    HW258802  11.630   8.427   9.230 -0.0587 -0.2854  0.0480
50733SOL     OW58803   5.494  10.198   2.075  0.3484  0.0647  0.3688
50733SOL    HW158804   5.566  10.188   2.138  0.4258 -0.5289  0.1915
50733SOL    HW258805   5.504  10.124   2.015 -0.7262 -0.3164  0.6439
50734SOL     OW58806  10.831   6.493   1.009  0.5229 -0.2952 -0.2224
50734SOL    HW158807  10.868   6.405   1.004  1.6221  0.2176 -2.6494
50734SOL    HW258808  10.763   6.494   0.941 -0.6864  0.2626  0.9403
50735SOL     OW58809   6.385   6.322   2.406 -0.1222  0.3249  0.0542
50735SOL    HW158810   6.456   6.362   2.458  0.1907  0.7723 -0.7034
50735SOL    HW258811   6.424   6.242   2.370  0.2612  0.9855 -1.0191
50736SOL     OW58812   6.829   0.844   6.877 -0.2275 -0.4500 -0.2633
50736SOL    HW158813   6.846   0.837   6.971 -0.2107 -0.4506 -0.2667
50736SOL    HW258814   6.888   0.913   6.847 -1.1082  0.4205 -0.0443
50737SOL     OW58815   7.701   1.765   5.989 -0.5712 -0.1148 -0.0285
50737SOL    HW158816   7.710   1.770   6.084  0.6394  1.7396 -0.2149
50737SOL    HW258817   7.607   1.779   5.973 -0.7999 -0.5597  0.8706
50738SOL     OW58818   4.776  10.140   8.784  0.2046  0.3842 -0.3310
50738SOL    HW158819   4.774  10.173   8.874  1.5005 -0.0756 -0.1101
50738SOL    HW258820   4.850  10.079   8.782  1.9426  2.3275 -2.3212
50739SOL     OW58821   5.105  12.428  10.801 -0.4319 -0.3249 -0.3171
50739SOL    HW158822   5.175  12.464  10.746  0.8171 -2.5225 -0.2741
50739SOL    HW258823   5.117  12.469  10.886 -0.7061  1.0945 -0.9394
50740SOL     OW58824   3.184  11.942   8.323  0.6027 -0.2855 -0.2351
50740SOL    HW158825   3.197  11.891   8.243  1.3555 -1.0399  0.3467
50740SOL    HW258826   3.216  12.030   8.301 -1.0438  0.0822 -1.3582
50741SOL     OW58827   3.850  11.791   7.959  0.4222 -0.6075 -0.3872
50741SOL    HW158828   3.875  11.875   7.997 -0.7111 -0.5841  0.3311
50741SOL    HW258829   3.866  11.727   8.028  2.1112 -1.1489 -1.2133
50742SOL     OW58830  10.619   4.206  10.697  0.3191 -0.4370  0.2473
50742SOL    HW158831  10.573   4.284  10.668  1.1032 -0.8586 -2.3714
50742SOL    HW258832  10.553   4.137  10.695  0.6807 -0.7939 -2.3186
50743SOL     OW58833   4.487   8.760   3.972  0.6519  0.3090 -0.0705
50743SOL    HW158834   4.500   8.667   3.952 -1.3201  0.0391 -0.2460
50743SOL    HW258835   4.569   8.802   3.945  1.1753 -1.2267 -0.9681
50744SOL     OW58836   5.799   5.149   2.933 -0.4504 -0.6723  0.5660
50744SOL    HW158837   5.722   5.096   2.954 -0.1195 -1.9975 -1.3101
50744SOL    HW258838   5.763   5.232   2.901 -1.1050 -1.1445  0.0461
50745SOL     OW58839   8.867  10.226   0.049 -0.2306  0.2615 -0.5322
50745SOL    HW158840   8.884  10.251  -0.041 -0.9519  1.6675 -0.3120
50745SOL    HW258841   8.944  10.254   0.098 -0.3934  0.6951 -0.5209
50746SOL     OW58842   0.783   8.386   8.684  0.1861  0.3524  0.6699
50746SOL    HW158843   0.749   8.305   8.646  2.1802 -0.8895  1.3713
50746SOL    HW258844   0.751   8.384   8.775  0.8335 -0.0433  0.8954
50747SOL     OW58845   2.356   3.755   9.271  0.0913 -0.3217  0.1974
50747SOL    HW158846   2.263   3.733   9.262  0.3571 -1.3949 -0.1209
50747SOL    HW258847   2.400   3.670   9.274  1.0134  0.1615  0.9478
50748SOL     OW58848   7.264   1.852   0.764  0.4076  0.0385 -0.0546
50748SOL    HW158849   7.237   1.767   0.798 -0.5973  0.8057  1.1672
50748SOL    HW258850   7.280   1.905   0.842  1.6071  0.8015 -0.7911
50749SOL     OW58851   0.352  11.559   8.234  0.4690 -0.1167 -0.3567
50749SOL    HW158852   0.321  11.650   8.236 -1.4668 -0.7411  0.2799
50749SOL    HW258853   0.411  11.556   8.159 -0.3096  1.4054 -1.0868
50750SOL     OW58854   8.537   1.221   3.528 -0.1708  0.1677  0.7150
50750SOL    HW158855   8.455   1.188   3.564 -0.6615  2.1531  1.5738
50750SOL    HW258856   8.519   1.234   3.435  0.7543 -3.9175 -0.2311
50751SOL     OW58857   3.713  10.033   3.754 -0.6500 -0.1658  0.0880
50751SOL    HW158858   3.725  10.076   3.839  0.3571 -2.1066  0.9938
50751SOL    HW258859   3.801  10.029   3.716  0.0339 -4.3630  1.6179
50752SOL     OW58860  11.146   0.848   9.104  0.5869 -0.5953  0.2771
50752SOL    HW158861  11.166   0.756   9.120  0.7506 -0.7003 -0.5048
50752SOL    HW258862  11.194   0.896   9.172  0.8002 -1.0570  0.4486
50753SOL     OW58863   9.083   8.356  10.281 -0.2191  0.2862  0.4284
50753SOL    HW158864   9.052   8.447  10.279  1.2635  0.9065  2.6582
50753SOL    HW258865   9.024   8.312  10.342 -1.3378 -0.4953 -1.1216
50754SOL     OW58866  11.658   2.602   4.875 -0.1425  0.1093  0.2722
50754SOL    HW158867  11.707   2.629   4.798  0.0578 -0.0275  0.3506
50754SOL    HW258868  11.725   2.568   4.935 -0.5217 -1.8848 -0.3579
50755SOL     OW58869   0.135   7.457   4.169  0.7188  0.6259  0.1857
50755SOL    HW158870   0.098   7.385   4.118  1.0934 -0.2701  1.1571
50755SOL    HW258871   0.102   7.444   4.257  1.9289  0.8220  0.6843
50756SOL     OW58872   8.874   2.759   4.324 -0.9109 -0.1172 -0.3734
50756SOL    HW158873   8.955   2.716   4.297 -1.0262 -1.1853  0.8701
50756SOL    HW258874   8.903   2.845   4.355 -0.4569  0.0811 -1.3086
50757SOL     OW58875   7.944   4.840   4.819  0.3600  0.1932 -0.2726
50757SOL    HW158876   7.893   4.774   4.867  1.8674 -0.4309  0.5309
50757SOL    HW258877   8.005   4.790   4.766  0.6130  0.9371 -0.6954
50758SOL     OW58878   1.026   3.148   8.241  0.4758  0.7859 -0.6824
50758SOL    HW158879   0.966   3.074   8.250 -1.8521  2.4602 -1.4619
50758SOL    HW258880   1.049   3.172   8.330  0.7452 -0.4382 -0.4021
50759SOL     OW58881   5.777   6.360   7.702 -0.2030  0.1331 -0.0989
50759SOL    HW158882   5.689   6.397   7.704 -0.9569 -1.4483 -1.2014
50759SOL    HW258883   5.803   6.363   7.610  0.4973 -0.2827  0.0726
50760SOL     OW58884   4.720   2.146   8.759  0.0386 -0.3818  1.0180
50760SOL    HW158885   4.738   2.078   8.825 -0.4184 -0.3797  1.1438
50760SOL    HW258886   4.636   2.184   8.785 -0.3918 -0.7147  0.1528
50761SOL     OW58887   0.720   1.297  12.767  0.3107  0.0382 -0.3589
50761SOL    HW158888   0.807   1.333  12.782  0.1828  0.1676  0.0973
50761SOL    HW258889   0.680   1.356  12.704  0.8732 -0.5323 -1.2637
50762SOL     OW58890  10.914   6.029   0.819  0.3639 -0.0786 -0.2949
50762SOL    HW158891  10.874   5.944   0.800 -0.3316 -0.2062  1.5210
50762SOL    HW258892  11.008   6.011   0.826  0.2713 -0.6001 -0.3765
50763SOL     OW58893   7.903   6.204   2.838 -0.0019 -0.1171 -0.2000
50763SOL    HW158894   7.899   6.217   2.744 -0.3260  1.5242  0.0092
50763SOL    HW258895   7.974   6.141   2.851  1.7291  1.4924 -1.3932
50764SOL     OW58896   0.465   1.271   9.114 -0.0158 -0.1470  0.3386
50764SOL    HW158897   0.494   1.322   9.038 -3.6030 -1.0829 -1.8936
50764SOL    HW258898   0.481   1.180   9.090 -0.2207 -0.4149  1.1781
50765SOL     OW58899  11.325   6.121   3.153  0.1791 -0.3248  0.3060
50765SOL    HW158900  11.346   6.027   3.153  1.3468 -0.2220 -3.4351
50765SOL    HW258901  11.231   6.125   3.139  0.3292 -0.9915 -1.0141
50766SOL     OW58902  12.240   7.248  10.079 -0.6044 -0.3701 -0.4183
50766SOL    HW158903  12.193   7.169  10.052  0.8391 -2.1502  1.8075
50766SOL    HW258904  12.289   7.220  10.157  1.2666  2.3155 -0.5152
50767SOL     OW58905   3.852   4.488   3.420 -0.2749 -0.2795  0.7329
50767SOL    HW158906   3.816   4.478   3.332 -1.2746  2.1946  0.7751
50767SOL    HW258907   3.938   4.446   3.415 -0.8118 -1.3051 -1.0369
50768SOL     OW58908   1.949   8.608   9.536  0.1641  0.2905 -0.2154
50768SOL    HW158909   1.908   8.681   9.583  1.1631 -0.1485  1.4492
50768SOL    HW258910   1.907   8.530   9.573  0.6885 -0.0604 -0.3548
50769SOL     OW58911   3.565   8.505  10.233 -0.0978 -0.0797 -0.1191
50769SOL    HW158912   3.631   8.440  10.208  0.6084  0.3938  0.4696
50769SOL    HW258913   3.616   8.578  10.268 -0.9476  0.2365  0.4819
50770SOL     OW58914   5.278   6.760   3.292  0.2146  0.3315 -0.5222
50770SOL    HW158915   5.231   6.697   3.236 -1.0969  0.3179  0.5351
50770SOL    HW258916   5.302   6.710   3.370 -0.5809  1.0251  0.2006
50771SOL     OW58917   7.331   2.973  10.632 -0.2238 -0.4415  0.3578
50771SOL    HW158918   7.420   3.004  10.649 -0.0301 -0.7116 -0.1315
50771SOL    HW258919   7.320   2.899  10.691  0.3689 -1.2474 -0.5093
50772SOL     OW58920   5.797   4.321   9.021 -0.1045 -0.3451 -0.3325
50772SOL    HW158921   5.760   4.357   9.102 -2.3910  1.3501 -1.9795
50772SOL    HW258922   5.758   4.234   9.015 -0.8464 -0.0396 -0.1509
50773SOL     OW58923   2.888  10.459   9.810  0.5609 -0.0206 -0.1816
50773SOL    HW158924   2.883  10.367   9.783 -1.3032  0.4028 -1.4770
50773SOL    HW258925   2.955  10.460   9.878  1.2732 -2.1807 -0.7540
50774SOL     OW58926   5.732   1.197   9.674 -0.0047 -0.1215  0.4165
50774SOL    HW158927   5.713   1.231   9.761  1.2521 -1.0742  1.0995
50774SOL    HW258928   5.758   1.106   9.689  0.3464 -0.2673 -0.9300
50775SOL     OW58929   9.022   2.180   0.858 -0.1031  0.1997  0.2328
50775SOL    HW158930   8.988   2.181   0.768  0.5827 -2.4244 -0.1459
50775SOL    HW258931   9.117   2.189   0.848 -0.2155  3.3017  1.0045
50776SOL     OW58932   6.350   6.205   5.706  0.1307 -0.4000 -0.2305
50776SOL    HW158933   6.285   6.268   5.673  2.3864  2.5908  0.5360
50776SOL    HW258934   6.390   6.170   5.626 -0.3685  0.0551 -0.6966
50777SOL     OW58935   5.234   9.164   9.376 -0.5821  0.1325 -0.1068
50777SOL    HW158936   5.199   9.195   9.460 -1.8159  0.1424 -0.5954
50777SOL    HW258937   5.276   9.241   9.338 -1.2820  0.5220 -0.1213
50778SOL     OW58938   7.596   6.389  11.003 -0.0252  0.1839 -0.4754
50778SOL    HW158939   7.615   6.384  11.097  0.5497 -0.4920 -0.6150
50778SOL    HW258940   7.575   6.481  10.987 -0.1716  0.2918  0.3250
50779SOL     OW58941   0.445  10.689   3.224  0.2089  0.2395  0.5165
50779SOL    HW158942   0.502  10.688   3.147 -0.4196  2.2474 -0.0358
50779SOL    HW258943   0.463  10.606   3.269  2.2676  0.0451 -0.5630
50780SOL     OW58944   1.803   5.886   0.031 -0.0984  0.1343  0.1224
50780SOL    HW158945   1.786   5.860   0.122 -0.6208 -0.8935 -0.2540
50780SOL    HW258946   1.859   5.817  -0.004 -0.3695  0.2248 -0.4996
50781SOL     OW58947   0.630  10.542   8.971  0.1327 -0.9187  0.3031
50781SOL    HW158948   0.682  10.538   8.891  1.5411  1.2027  1.0335
50781SOL    HW258949   0.548  10.584   8.944  1.0178  0.7664  0.1125
50782SOL     OW58950   0.309   9.050   9.689 -0.5532  0.0537  0.2807
50782SOL    HW158951   0.398   9.058   9.721 -1.5270  0.3951  3.1987
50782SOL    HW258952   0.302   9.116   9.620  1.9489 -1.3751 -1.4745
50783SOL     OW58953   6.439   1.180  10.659 -0.2088 -0.0321  0.1135
50783SOL    HW158954   6.435   1.155  10.751  1.1131 -0.4084  0.0765
50783SOL    HW258955   6.495   1.115  10.618  0.7512  1.1955 -0.5876
50784SOL     OW58956   0.621   1.176   3.004 -0.2365  0.2830 -0.5141
50784SOL    HW158957   0.612   1.147   3.095  2.3834  0.2107 -0.2070
50784SOL    HW258958   0.551   1.130   2.958 -2.3154  1.1358  1.5843
50785SOL     OW58959   2.060   4.425   6.077  0.4525  0.2564  0.0781
50785SOL    HW158960   2.021   4.512   6.092 -0.1621 -0.0150  0.0708
50785SOL    HW258961   2.028   4.399   5.990  1.8221  0.6488 -0.5734
50786SOL     OW58962   5.273   6.562  10.585  0.3888 -0.4385 -0.0158
50786SOL    HW158963   5.278   6.534  10.677  1.2196 -0.7615 -0.1542
50786SOL    HW258964   5.302   6.653  10.587  2.2986 -1.0079 -0.2036
50787SOL     OW58965   0.474   1.718   3.437 -0.3553  0.2812 -0.3255
50787SOL    HW158966   0.498   1.796   3.487 -3.9512  1.5115 -0.2017
50787SOL    HW258967   0.431   1.661   3.500  0.0105 -0.6962 -0.9342
50788SOL     OW58968   5.082  12.692   0.406 -0.2211 -0.0568  0.1776
50788SOL    HW158969   5.004  12.651   0.442 -1.3667 -2.2629 -4.1755
50788SOL    HW258970   5.153  12.631   0.425 -0.5473 -0.5489 -0.1757
50789SOL     OW58971  11.921   7.466   4.051  0.0335  0.2999 -0.4411
50789SOL    HW158972  11.925   7.372   4.072  0.8783  0.7528  1.6943
50789SOL    HW258973  12.002   7.484   4.004 -0.3208 -0.0969 -1.2242
50790SOL     OW58974  11.879   5.343   3.533  0.0254 -0.3599  0.1172
50790SOL    HW158975  11.963   5.376   3.499 -1.2001  0.7104 -2.0743
50790SOL    HW258976  11.887   5.248   3.526  1.2552 -0.3097  0.4842
50791SOL     OW58977  11.589   0.208   1.926 -0.5371 -0.4718 -0.5170
50791SOL    HW158978  11.556   0.145   1.989 -0.7736  0.0274 -0.1376
50791SOL    HW258979  11.681   0.219   1.950 -0.7796  0.1912  0.1476
50792SOL     OW58980   9.972   7.763   9.812 -0.2965 -0.1690 -0.4714
50792SOL    HW158981   9.962   7.778   9.718  0.5336  0.4530 -0.4743
50792SOL    HW258982  10.059   7.798   9.833 -0.6224  0.0549  0.5937
50793SOL     OW58983   9.736   4.379   0.136  0.4578 -0.0547 -0.0510
50793SOL    HW158984   9.664   4.332   0.178  0.0924  1.7254  1.4839
50793SOL    HW258985   9.815   4.344   0.177  0.3639 -0.8290 -0.5127
50794SOL     OW58986   5.767   4.559   7.722  0.1353 -0.0842  0.5269
50794SOL    HW158987   5.724   4.611   7.790  0.4956  1.0525 -0.1018
50794SOL    HW258988   5.695   4.512   7.679 -0.0866 -0.8672  1.7124
50795SOL     OW58989   0.252   8.695   7.204  0.9357 -0.5630  0.3286
50795SOL    HW158990   0.331   8.679   7.152  0.4190 -0.1517 -0.6019
50795SOL    HW258991   0.241   8.790   7.202 -0.9239 -0.7486 -1.6219
50796SOL     OW58992  12.065   5.984   8.059  0.4149  0.0335  0.5463
50796SOL    HW158993  12.067   6.063   8.112 -0.1724 -0.3210  1.1046
50796SOL    HW258994  12.153   5.976   8.023  1.2022 -0.4005  2.4714
50797SOL     OW58995  10.953   7.923  12.115  0.0775  0.0503 -0.7282
50797SOL    HW158996  10.962   7.840  12.162 -0.8175  0.9191  1.0523
50797SOL    HW258997  10.872   7.961  12.147  0.3636  1.5375 -1.6517
50798SOL     OW58998   4.352   3.184   1.790 -0.1350  0.2269 -0.0128
50798SOL    HW158999   4.259   3.203   1.804 -0.1435  0.3144 -0.1840
50798SOL    HW259000   4.372   3.226   1.707 -0.3760 -1.3263 -0.8815
50799SOL     OW59001   0.638   4.685   5.242  0.1915  0.0454  0.2602
50799SOL    HW159002   0.657   4.655   5.331 -0.8861 -3.8159 -0.6074
50799SOL    HW259003   0.711   4.652   5.189  0.0087  0.8662 -0.5362
50800SOL     OW59004   7.875   1.456   3.441  0.5771  0.5351 -0.2896
50800SOL    HW159005   7.970   1.443   3.434  0.4596  0.5512 -2.9455
50800SOL    HW259006   7.843   1.378   3.485  1.8552  0.8851  1.3733
50801SOL     OW59007   9.886   3.735   6.169  0.3542  0.5301 -0.4722
50801SOL    HW159008   9.909   3.828   6.177  1.9691  0.3551 -2.2126
50801SOL    HW259009   9.970   3.690   6.172 -0.4224 -0.9041  0.4492
50802SOL     OW59010   3.986   9.116  12.367  0.0439  0.4087  0.4855
50802SOL    HW159011   3.914   9.114  12.304  1.6512 -0.7167 -1.4398
50802SOL    HW259012   3.952   9.068  12.442 -1.3053  0.1144 -0.2579
50803SOL     OW59013   2.450   9.908   6.615  0.3440 -0.1179 -0.0617
50803SOL    HW159014   2.464   9.826   6.568 -1.3749 -0.3955 -0.1728
50803SOL    HW259015   2.406   9.965   6.552 -2.0799 -0.5202  1.1116
50804SOL     OW59016   6.225  10.487   6.649 -0.6350 -0.6082  0.4846
50804SOL    HW159017   6.308  10.457   6.685  0.2493  1.0159 -0.1159
50804SOL    HW259018   6.162  10.473   6.720  0.7433  0.9652  2.1379
50805SOL     OW59019   7.118   9.319   8.240  0.0353 -0.5391  0.0741
50805SOL    HW159020   7.178   9.343   8.169 -1.1882 -0.2267 -0.8966
50805SOL    HW259021   7.138   9.227   8.258  2.3960  0.1629  1.4243
50806SOL     OW59022  12.666   3.329   5.869  0.3442  0.1199 -0.1542
50806SOL    HW159023  12.706   3.290   5.947 -2.9117 -2.3762  0.5172
50806SOL    HW259024  12.735   3.326   5.803  2.2183 -0.8218  1.7205
50807SOL     OW59025   2.727   6.399   6.627  0.4919 -0.4208 -0.0703
50807SOL    HW159026   2.678   6.481   6.624 -0.1550 -0.5830  2.5979
50807SOL    HW259027   2.809   6.422   6.671  0.8496 -0.9890 -0.4324
50808SOL     OW59028   6.408   5.673  11.213 -0.5557 -0.5266 -0.2767
50808SOL    HW159029   6.313   5.671  11.219 -0.6244  0.3674 -0.8149
50808SOL    HW259030   6.428   5.762  11.182  0.6112  0.1545  2.2006
50809SOL     OW59031   7.369   4.427   3.923  0.0431 -0.4681 -1.1088
50809SOL    HW159032   7.276   4.411   3.907  0.0238 -2.4163  0.5143
50809SOL    HW259033   7.371   4.496   3.988 -0.3888 -1.7146  0.2726
50810SOL     OW59034   6.973   9.763   2.948  0.1950  0.1033  0.3491
50810SOL    HW159035   6.978   9.777   3.043  0.6595 -2.1873  0.7125
50810SOL    HW259036   6.955   9.670   2.938  2.0400 -0.1119 -1.8400
50811SOL     OW59037   2.350   3.672  10.077  0.0231  0.2936  0.1519
50811SOL    HW159038   2.273   3.718  10.109  0.6124  0.9076  0.7234
50811SOL    HW259039   2.315   3.604  10.020 -0.9906 -0.0860  1.1863
50812SOL     OW59040   0.285   0.270  12.570  0.5859 -0.0112  0.0847
50812SOL    HW159041   0.256   0.343  12.514  0.9597 -0.5014 -0.7658
50812SOL    HW259042   0.378   0.288  12.586  0.6884 -0.3167 -0.1597
50813SOL     OW59043  11.310   0.496   8.626 -0.1315 -0.1249  0.2256
50813SOL    HW159044  11.387   0.486   8.683  0.6175  2.9576 -0.0306
50813SOL    HW259045  11.239   0.453   8.674  1.6977 -3.2387  0.3924
50814SOL     OW59046   7.118   8.873   7.135 -0.3334 -0.5095  0.9389
50814SOL    HW159047   7.026   8.880   7.159 -0.4957 -0.2725  0.2691
50814SOL    HW259048   7.151   8.962   7.138 -0.4407 -0.4245  0.0026
50815SOL     OW59049  11.376   4.863  11.788  0.2159 -0.4674  0.0061
50815SOL    HW159050  11.471   4.874  11.786  0.2453 -0.2239 -3.1016
50815SOL    HW259051  11.342   4.950  11.767 -0.2842 -1.5411 -5.0925
50816SOL     OW59052   1.231  11.278   8.703 -0.2232 -0.0794 -0.2217
50816SOL    HW159053   1.299  11.285   8.770  0.2381 -1.2158 -0.5378
50816SOL    HW259054   1.177  11.204   8.731 -1.5328  0.9924  0.1766
50817SOL     OW59055  12.263  10.628   7.558 -0.6236  0.4040 -0.3081
50817SOL    HW159056  12.173  10.655   7.575 -0.9228 -0.3717 -0.5755
50817SOL    HW259057  12.299  10.696   7.502 -1.8706 -0.4853 -2.3223
50818SOL     OW59058   2.169   6.864  10.616  0.1557 -0.1787  0.2351
50818SOL    HW159059   2.082   6.888  10.585  0.1146  0.0390  0.5167
50818SOL    HW259060   2.182   6.775  10.584  0.3324  0.2285 -0.8768
50819SOL     OW59061   7.386  11.958   7.446 -0.2036  0.2609 -0.3983
50819SOL    HW159062   7.456  11.929   7.387 -1.2578 -0.1127 -1.5017
50819SOL    HW259063   7.319  11.890   7.440 -0.8541  0.8199  0.3078
50820SOL     OW59064   1.812   3.990  10.465  0.0823  0.5774 -0.4298
50820SOL    HW159065   1.879   4.021  10.526  2.4676 -0.8648 -2.1444
50820SOL    HW259066   1.826   3.895  10.461 -3.5330 -0.1727  0.7071
50821SOL     OW59067   4.273   3.937   4.128 -0.6594  0.5687 -0.0756
50821SOL    HW159068   4.283   3.953   4.034 -2.0143  0.4003 -0.2730
50821SOL    HW259069   4.362   3.926   4.161 -0.0399  2.4272 -1.0171
50822SOL     OW59070  12.762   4.908   4.852 -0.3374  0.3231 -0.1745
50822SOL    HW159071  12.809   4.940   4.775  2.5312 -3.0778 -0.1452
50822SOL    HW259072  12.826   4.917   4.923 -1.9169  0.8166  1.2344
50823SOL     OW59073   0.585   9.040   9.701 -0.0033 -0.3567  0.1906
50823SOL    HW159074   0.621   9.075   9.620  0.3005  1.8706  1.2135
50823SOL    HW259075   0.636   8.960   9.717  2.4013  1.0423 -0.0205
50824SOL     OW59076   2.993   6.664   1.855  0.3489  0.2191 -0.3829
50824SOL    HW159077   2.918   6.662   1.796 -0.3377  1.0153  0.4284
50824SOL    HW259078   3.061   6.614   1.809  0.2789  1.8525 -2.4206
50825SOL     OW59079  12.305   7.756   7.672  0.4629  0.0814  0.2403
50825SOL    HW159080  12.309   7.698   7.748 -4.2262 -0.7297  0.1711
50825SOL    HW259081  12.337   7.840   7.705  0.8835 -0.8461  2.3944
50826SOL     OW59082   8.764  12.289   7.567 -0.3020 -0.5051  0.0495
50826SOL    HW159083   8.795  12.378   7.551 -0.5060 -0.5241 -0.4989
50826SOL    HW259084   8.833  12.233   7.533  0.2422 -0.5760  1.2186
50827SOL     OW59085   7.035   0.318   7.737  0.3798 -0.6966  0.3657
50827SOL    HW159086   7.023   0.292   7.829  1.7756 -0.2405  0.7143
50827SOL    HW259087   7.130   0.315   7.724  0.3986  1.3272 -0.4234
50828SOL     OW59088   5.773   0.050   8.085 -0.2872  0.2495 -0.6008
50828SOL    HW159089   5.688   0.072   8.124 -0.2517  0.3798 -0.5978
50828SOL    HW259090   5.760  -0.038   8.049 -0.4595  0.3177 -0.7072
50829SOL     OW59091   6.510   9.861   5.007 -0.2436 -0.6392 -0.7848
50829SOL    HW159092   6.539   9.952   4.999 -1.5979  0.0194  1.1083
50829SOL    HW259093   6.589   9.810   4.994  0.6970  0.8401 -1.1471
50830SOL     OW59094   6.453   0.694   6.126 -1.0237  0.1973  0.0249
50830SOL    HW159095   6.490   0.699   6.214  0.2606  1.8554 -0.5571
50830SOL    HW259096   6.414   0.780   6.112 -1.3536 -0.1072 -0.9695
50831SOL     OW59097   2.317   1.909  10.358 -0.0260 -0.0274 -0.5656
50831SOL    HW159098   2.227   1.879  10.368 -0.4616  1.1717 -0.6215
50831SOL    HW259099   2.358   1.893  10.443  0.1515 -1.8932 -0.9649
50832SOL     OW59100   7.212   0.086   3.124  0.0813 -0.3406 -0.2178
50832SOL    HW159101   7.303   0.096   3.097  0.5489 -1.5237  0.7940
50832SOL    HW259102   7.178   0.015   3.069 -0.5684  0.7511 -1.2915
50833SOL     OW59103   2.142  11.792   5.616  0.2094 -0.8983  0.4100
50833SOL    HW159104   2.099  11.736   5.681  0.4019  1.2743  2.5693
50833SOL    HW259105   2.202  11.734   5.569 -2.6340 -3.3531 -0.5043
50834SOL     OW59106  12.713   2.409   1.019  0.4163  0.0266 -0.2147
50834SOL    HW159107  12.654   2.431   0.948 -0.4231  0.3483  0.5583
50834SOL    HW259108  12.674   2.331   1.059  0.1137  0.6516  0.7400
50835SOL     OW59109   2.134   4.578   2.517 -0.1297  0.6273 -0.7535
50835SOL    HW159110   2.160   4.614   2.432 -2.1751  3.8483 -0.1659
50835SOL    HW259111   2.039   4.575   2.514 -0.1785 -2.2234  0.3965
50836SOL     OW59112   4.051   8.296   5.532  0.0157 -0.5040 -0.3143
50836SOL    HW159113   4.124   8.236   5.518  0.2815 -0.1451 -0.4638
50836SOL    HW259114   4.005   8.299   5.448 -0.7163 -1.4411  0.0344
50837SOL     OW59115   2.220   6.131   2.352 -0.0205 -0.7569  0.2870
50837SOL    HW159116   2.219   6.188   2.428  2.9050 -0.0486 -0.1088
50837SOL    HW259117   2.128   6.107   2.339 -1.0752  2.0893  1.7512
50838SOL     OW59118  11.447  10.633   2.673 -0.0694  0.7734  0.5639
50838SOL    HW159119  11.428  10.540   2.664  0.3773  0.5296  1.8665
50838SOL    HW259120  11.536  10.644   2.639  1.1439  0.0892  3.2561
50839SOL     OW59121   2.221   6.236   0.035  0.5310 -0.0887 -0.7236
50839SOL    HW159122   2.152   6.235   0.101  1.4408  0.4571  0.2564
50839SOL    HW259123   2.293   6.282   0.076  0.1818  2.8940 -3.0817
50840SOL     OW59124   6.445  10.742   9.282 -0.4157 -0.4628  0.3931
50840SOL    HW159125   6.387  10.669   9.301  0.3873 -0.7499  1.9200
50840SOL    HW259126   6.520  10.703   9.237  0.1463 -0.6589  1.4629
50841SOL     OW59127   2.552   2.523   2.107  0.4288 -0.7563 -0.4644
50841SOL    HW159128   2.612   2.595   2.089 -0.2869 -0.0341 -0.0281
50841SOL    HW259129   2.600   2.468   2.170  0.9825 -0.6703 -0.8033
50842SOL     OW59130  11.520   4.166   6.501  0.4901 -0.2002 -0.4129
50842SOL    HW159131  11.573   4.092   6.471 -1.3011 -0.8031 -2.3579
50842SOL    HW259132  11.477   4.197   6.422 -0.5737  1.4772  0.7752
50843SOL     OW59133  11.196   3.301   5.430 -0.4515  0.2595  0.0429
50843SOL    HW159134  11.175   3.394   5.432 -0.9510  0.2903 -2.6055
50843SOL    HW259135  11.222   3.285   5.340 -0.4530 -2.1976  0.4210
50844SOL     OW59136  11.868   9.545   2.501 -0.0118 -0.5933 -0.4557
50844SOL    HW159137  11.846   9.636   2.484  0.0404 -0.7112 -1.2171
50844SOL    HW259138  11.935   9.549   2.569 -0.6434 -0.1153  0.1452
50845SOL     OW59139  11.392   8.038   7.797 -0.2688 -0.6094 -0.2916
50845SOL    HW159140  11.359   7.965   7.850 -1.4291 -0.1689 -0.3743
50845SOL    HW259141  11.440   8.093   7.860  1.4310 -1.8796 -0.4020
50846SOL     OW59142   5.502  12.284   1.296  0.0144 -0.0310 -0.2141
50846SOL    HW159143   5.585  12.313   1.333  0.2748 -0.3075 -0.5697
50846SOL    HW259144   5.437  12.348   1.326  0.2727 -0.0790  0.4542
50847SOL     OW59145   4.186  12.525   2.947 -0.1798  0.1748  0.6894
50847SOL    HW159146   4.198  12.618   2.967  1.0715 -0.2264  1.9254
50847SOL    HW259147   4.129  12.492   3.016 -0.1653 -0.0960  0.5732
50848SOL     OW59148  10.649   5.690   1.142  0.3217 -0.3780 -0.6546
50848SOL    HW159149  10.633   5.716   1.051 -0.0353  1.4655 -0.1138
50848SOL    HW259150  10.742   5.668   1.145  0.1193 -1.4319 -1.6671
50849SOL     OW59151   8.231   1.704   8.392  0.1475  0.0874 -0.3727
50849SOL    HW159152   8.317   1.714   8.433 -0.7066  2.0650  1.0969
50849SOL    HW259153   8.224   1.777   8.331 -0.6000  0.1409 -0.2350
50850SOL     OW59154  11.003  11.829   3.007  0.1747 -0.3096  0.0891
50850SOL    HW159155  10.941  11.886   2.962  1.1057 -0.4510 -1.4629
50850SOL    HW259156  11.001  11.747   2.957  0.8930 -0.6502  0.5885
50851SOL     OW59157   3.418   5.539   3.262 -0.3443 -0.8159  0.0487
50851SOL    HW159158   3.437   5.632   3.262  1.5011 -1.1549 -0.3588
50851SOL    HW259159   3.330   5.532   3.299 -0.0759  0.9938  1.1245
50852SOL     OW59160   5.845  10.644   2.613  0.2719  0.7059  0.3038
50852SOL    HW159161   5.752  10.660   2.631  0.1594  0.0853  0.2801
50852SOL    HW259162   5.864  10.561   2.657  0.1931 -0.4481 -1.7270
50853SOL     OW59163   3.625  10.927   6.588 -0.4921 -0.0267 -0.0042
50853SOL    HW159164   3.594  10.867   6.656  1.6300 -2.2625 -0.8791
50853SOL    HW259165   3.679  10.873   6.531 -1.6785  1.8618 -3.2031
50854SOL     OW59166   0.284  10.094   2.444 -0.0315  0.0484  0.1611
50854SOL    HW159167   0.310  10.014   2.490  1.9752  0.8597  0.4980
50854SOL    HW259168   0.267  10.157   2.513  0.6609  0.5808 -0.1450
50855SOL     OW59169   8.439   5.143   2.163 -0.0623  0.6151  0.4886
50855SOL    HW159170   8.374   5.160   2.094 -0.1207 -0.2787  0.3104
50855SOL    HW259171   8.410   5.061   2.202  0.7058  0.4497  0.7155
50856SOL     OW59172   1.030  10.390   1.655  0.5759  0.6591  0.1474
50856SOL    HW159173   0.979  10.440   1.591  1.1089  0.3911 -0.5053
50856SOL    HW259174   1.056  10.310   1.607  0.8184  0.3661  0.7620
50857SOL     OW59175   9.113   0.583   1.489 -0.0094  0.3574 -0.9925
50857SOL    HW159176   9.078   0.671   1.475 -0.6353  0.2363 -0.2603
50857SOL    HW259177   9.193   0.598   1.540 -2.0113  0.3640  2.4318
50858SOL     OW59178   6.843   3.008  12.387 -0.3648  0.0407 -0.1496
50858SOL    HW159179   6.778   3.048  12.445 -1.8144 -0.9910 -1.0132
50858SOL    HW259180   6.908   2.970  12.447 -0.5986  0.9773  0.7287
50859SOL     OW59181   3.201   8.086   0.794  0.5080 -0.4671 -0.0516
50859SOL    HW159182   3.149   8.006   0.785 -2.2383  1.2147 -0.3118
50859SOL    HW259183   3.151   8.139   0.856  1.1880  1.7911 -1.3406
50860SOL     OW59184  11.811   0.847   2.094 -0.0317 -0.2509  0.3963
50860SOL    HW159185  11.848   0.925   2.054 -0.5087  0.6789  1.7112
50860SOL    HW259186  11.842   0.775   2.039 -0.7186  0.9497 -1.6671
50861SOL     OW59187   8.841   6.920  11.889  0.0310  0.1306 -0.5567
50861SOL    HW159188   8.834   6.849  11.952 -0.5817  0.4627 -0.2303
50861SOL    HW259189   8.831   6.878  11.804  2.2065 -0.5039 -0.5398
50862SOL     OW59190   8.718  12.421   1.262 -0.0070  0.1092  0.2968
50862SOL    HW159191   8.761  12.493   1.307  1.4261 -0.2089 -0.4994
50862SOL    HW259192   8.752  12.342   1.305 -2.3636 -0.1344  1.8754
50863SOL     OW59193   6.318   5.784   4.488  0.1030  0.0287 -0.2472
50863SOL    HW159194   6.411   5.797   4.509 -0.0392  0.1014  0.3426
50863SOL    HW259195   6.278   5.869   4.503 -0.3773 -0.4244  1.2512
50864SOL     OW59196   2.167   3.817   5.107 -0.5797 -0.2976  0.1360
50864SOL    HW159197   2.256   3.806   5.075 -0.7367 -0.3334 -0.2957
50864SOL    HW259198   2.160   3.911   5.126  0.1947 -0.5925  2.1370
50865SOL     OW59199   0.920   9.912   6.019  0.0561 -0.3083  0.0037
50865SOL    HW159200   0.866   9.922   5.941 -0.8942 -0.9220  0.5535
50865SOL    HW259201   1.010   9.914   5.987 -0.0639  3.9687 -0.6211
50866SOL     OW59202   0.188   7.323  12.494 -0.0202 -0.4370  0.2334
50866SOL    HW159203   0.251   7.259  12.460 -1.3003 -1.7049  0.1712
50866SOL    HW259204   0.141   7.276  12.562  0.0824  0.9626  1.3060
50867SOL     OW59205   5.912   0.165  10.438 -0.1487  0.1966  0.0308
50867SOL    HW159206   5.827   0.121  10.443  0.1345 -0.2515  2.2998
50867SOL    HW259207   5.892   0.253  10.408 -1.1366 -0.4903 -1.4236
50868SOL     OW59208   7.116   8.375   4.213 -0.9482 -0.1114 -0.1796
50868SOL    HW159209   7.121   8.392   4.307 -0.1131 -1.4118  0.0457
50868SOL    HW259210   7.041   8.317   4.203 -1.9874  1.2387 -0.5523
50869SOL     OW59211   8.655   4.865   2.905  0.3005  0.1753  0.2259
50869SOL    HW159212   8.744   4.831   2.907 -0.1283 -0.9991  0.8078
50869SOL    HW259213   8.600   4.788   2.922 -0.7385  1.1442  1.4974
50870SOL     OW59214   2.490   7.970   9.430 -0.5092  0.4257  0.4255
50870SOL    HW159215   2.474   7.953   9.337  0.8934 -0.0498  0.2480
50870SOL    HW259216   2.531   8.056   9.432  1.9747 -0.6718  0.2905
50871SOL     OW59217   8.691   7.108   8.118 -0.3497 -0.0150 -0.0983
50871SOL    HW159218   8.669   7.124   8.210  0.5016 -0.4523  0.1961
50871SOL    HW259219   8.783   7.134   8.111 -0.5926  0.6515 -1.0000
50872SOL     OW59220   4.064   6.235  11.053  0.2197 -0.2772  0.1124
50872SOL    HW159221   4.135   6.238  10.989 -0.2150  0.0168 -0.3595
50872SOL    HW259222   4.104   6.269  11.134  0.7074 -0.4419 -0.0530
50873SOL     OW59223   6.388   8.602   3.839 -0.1086 -0.2439  0.1145
50873SOL    HW159224   6.310   8.608   3.894 -0.6907 -0.2007 -0.6813
50873SOL    HW259225   6.367   8.533   3.776 -0.0232  0.5933 -0.8744
50874SOL     OW59226   6.168   9.845   0.703 -0.4731 -0.2124 -0.4155
50874SOL    HW159227   6.109   9.793   0.758 -0.1730  0.1561  0.2753
50874SOL    HW259228   6.111   9.910   0.661 -0.3713  1.3501  1.6730
50875SOL     OW59229   5.494   8.707   0.538  0.2706  0.4452  0.0530
50875SOL    HW159230   5.517   8.713   0.631  0.4079  0.9141 -0.0078
50875SOL    HW259231   5.399   8.716   0.536  0.2732  0.4976  0.1432
50876SOL     OW59232   2.659   4.645  12.244 -0.6592 -0.1027 -0.1202
50876SOL    HW159233   2.683   4.606  12.160 -1.8412 -1.0403 -0.0476
50876SOL    HW259234   2.682   4.579  12.309 -1.4111 -0.1293  0.1290
50877SOL     OW59235   1.469   0.110   8.890 -0.3964  0.7483  0.1750
50877SOL    HW159236   1.561   0.100   8.868 -0.3822  1.2160  0.0141
50877SOL    HW259237   1.468   0.174   8.961 -0.4654 -0.5152  1.3611
50878SOL     OW59238   3.926   9.750   8.424 -0.3484  0.0869  0.0035
50878SOL    HW159239   3.968   9.694   8.359 -0.4678 -0.1283  0.1093
50878SOL    HW259240   3.886   9.689   8.485  0.1072  0.2795  0.5043
50879SOL     OW59241   4.452   7.239   5.815 -0.1706 -0.4511  0.2298
50879SOL    HW159242   4.510   7.167   5.839  1.3261  0.6084 -0.0486
50879SOL    HW259243   4.499   7.318   5.842 -1.3787  0.4642 -0.2376
50880SOL     OW59244   1.473   8.899   4.487  0.4385 -0.0848  1.0250
50880SOL    HW159245   1.513   8.837   4.427 -0.0173  0.6824 -0.1135
50880SOL    HW259246   1.428   8.962   4.430  1.1751  1.4914  2.1238
50881SOL     OW59247  12.497   5.339  11.068 -0.7111 -0.0820 -0.4857
50881SOL    HW159248  12.566   5.274  11.079 -0.8826 -0.1281  0.3437
50881SOL    HW259249  12.543   5.423  11.060 -0.5736  0.0183  1.0464
50882SOL     OW59250   0.329   6.142   6.768 -0.4812 -0.1560  0.8599
50882SOL    HW159251   0.301   6.226   6.803  0.8555  0.8424 -0.3561
50882SOL    HW259252   0.262   6.080   6.798 -0.6294  1.0169  3.1531
50883SOL     OW59253   1.887   7.092   6.358 -0.0774  0.6274  0.4735
50883SOL    HW159254   1.917   7.002   6.371  0.1373  0.4577 -1.0366
50883SOL    HW259255   1.864   7.097   6.265 -1.9002  1.6100  0.9299
50884SOL     OW59256   1.443  12.062   5.855  0.1319  0.2079  0.0002
50884SOL    HW159257   1.505  12.130   5.826  0.2051  0.9721  1.8320
50884SOL    HW259258   1.357  12.104   5.850 -0.3737 -0.9572 -2.8600
50885SOL     OW59259   3.766   9.637   4.389 -0.1813 -0.8210 -0.0769
50885SOL    HW159260   3.842   9.579   4.396  0.3410 -0.1109  0.1953
50885SOL    HW259261   3.801   9.717   4.350 -0.9697 -0.8093 -0.7850
50886SOL     OW59262   0.321  10.760  11.506 -0.0276 -0.5191 -0.1765
50886SOL    HW159263   0.339  10.788  11.416  0.4838  0.1882  0.1366
50886SOL    HW259264   0.340  10.837  11.559 -2.0234 -0.3778  0.3871
50887SOL     OW59265   7.488   3.524   4.589 -0.1727 -0.4541 -0.0109
50887SOL    HW159266   7.459   3.456   4.650 -2.1382  1.6543  1.5873
50887SOL    HW259267   7.522   3.594   4.646  2.2897 -0.2215 -1.6087
50888SOL     OW59268   8.055   2.751   3.320  0.1179 -0.0188  0.1105
50888SOL    HW159269   8.123   2.818   3.328 -2.2356  2.4503  0.7252
50888SOL    HW259270   8.098   2.670   3.351  3.2029  0.9972 -1.1135
50889SOL     OW59271  11.335   1.171   5.845  0.2570  0.1261 -0.0508
50889SOL    HW159272  11.293   1.116   5.911 -0.1636  1.3217  0.7225
50889SOL    HW259273  11.356   1.111   5.773  0.5610 -1.1781  1.0767
50890SOL     OW59274  12.392  10.446   0.466 -0.0733  0.1259 -0.5504
50890SOL    HW159275  12.482  10.466   0.443  0.1858  1.7580  1.6049
50890SOL    HW259276  12.392  10.351   0.482  1.4604  0.2344  0.2479
50891SOL     OW59277  10.838   6.312   5.928  0.0118  0.0255 -0.3702
50891SOL    HW159278  10.752   6.295   5.888 -0.0784 -0.5858  0.0552
50891SOL    HW259279  10.817   6.351   6.013  0.0940 -1.1116  0.2041
50892SOL     OW59280   3.576   2.772   4.102 -0.3146 -0.0390 -0.3847
50892SOL    HW159281   3.496   2.784   4.153  0.8335 -0.1374  1.5187
50892SOL    HW259282   3.586   2.677   4.094 -0.0725 -0.0449 -0.0591
50893SOL     OW59283   6.726   6.242  11.849 -0.2919  0.5915 -0.4120
50893SOL    HW159284   6.817   6.213  11.845 -0.0821  1.3885 -2.3953
50893SOL    HW259285   6.710   6.286  11.765 -2.4033  0.7951  0.0233
50894SOL     OW59286   8.286  12.561   3.593 -0.2641 -0.4078 -0.3664
50894SOL    HW159287   8.218  12.595   3.535  0.9436  1.1274 -0.9563
50894SOL    HW259288   8.368  12.592   3.554  0.6730 -0.7139  1.2853
50895SOL     OW59289   0.905  11.531   4.550 -0.1385  0.5736  0.2878
50895SOL    HW159290   0.940  11.547   4.637  0.0459 -0.3869  0.3961
50895SOL    HW259291   0.821  11.489   4.565  0.3264 -0.4850  0.0037
50896SOL     OW59292  12.056   8.607  10.625  0.0809 -0.2492  0.2339
50896SOL    HW159293  12.020   8.695  10.624 -0.6672 -0.5471 -0.2247
50896SOL    HW259294  12.020   8.566  10.546  0.7101 -0.8464  0.2493
50897SOL     OW59295  10.804   4.000   9.376  0.1930 -0.4003 -0.8399
50897SOL    HW159296  10.822   4.087   9.341 -2.3519  0.0246 -1.2955
50897SOL    HW259297  10.729   3.968   9.326  1.1002 -2.9396 -0.7545
50898SOL     OW59298   0.354  11.418   7.744 -0.4080 -0.1162 -0.0652
50898SOL    HW159299   0.279  11.395   7.799 -1.0237  0.6535 -0.5578
50898SOL    HW259300   0.396  11.490   7.790 -0.6460  0.2098 -0.3470
50899SOL     OW59301   8.726  12.546   2.953 -0.2321 -0.5491 -0.6499
50899SOL    HW159302   8.746  12.488   3.027  0.1669 -0.5609 -0.7669
50899SOL    HW259303   8.806  12.597   2.941  0.4713 -1.9797 -2.4152
50900SOL     OW59304   0.608   3.461   6.901  0.1499 -0.0504 -0.5613
50900SOL    HW159305   0.611   3.439   6.808  0.7281  1.9437 -1.0629
50900SOL    HW259306   0.551   3.538   6.905 -2.0995 -1.6553  1.1293
50901SOL     OW59307   7.132   0.267  11.394 -0.7310 -0.0856 -0.2501
50901SOL    HW159308   7.123   0.205  11.466 -1.0422  2.3617  1.9500
50901SOL    HW259309   7.129   0.353  11.435 -0.6331  1.4551 -3.1812
50902SOL     OW59310   6.895   4.104   2.392  0.2205  0.2897 -0.2191
50902SOL    HW159311   6.863   4.021   2.355  1.4555 -0.0351 -0.5973
50902SOL    HW259312   6.950   4.078   2.466  0.0935  0.8106  0.0623
50903SOL     OW59313   5.097  11.030  11.756  0.3542  0.3710 -0.0433
50903SOL    HW159314   5.178  11.058  11.799  1.1305 -0.3097 -1.0248
50903SOL    HW259315   5.111  11.049  11.663 -0.0779 -0.9633 -0.4055
50904SOL     OW59316   8.556   9.433   6.526 -0.5188  0.5185  0.4407
50904SOL    HW159317   8.519   9.352   6.561 -0.4222  0.2378 -0.0998
50904SOL    HW259318   8.593   9.477   6.602  1.8774 -1.2126  0.3826
50905SOL     OW59319   8.431   9.175   3.990 -0.4496  0.5133 -0.4381
50905SOL    HW159320   8.377   9.232   3.936  1.0017  1.6212 -0.7701
50905SOL    HW259321   8.521   9.206   3.976  0.2184 -0.8481  0.5983
50906SOL     OW59322   3.706   1.502  10.472  0.1608  0.5303 -0.0854
50906SOL    HW159323   3.657   1.566  10.523 -1.5554  0.7264 -1.8456
50906SOL    HW259324   3.668   1.417  10.498 -0.0410  0.5477 -0.3185
50907SOL     OW59325   3.528   4.982  11.696 -0.3883  0.0241  0.4469
50907SOL    HW159326   3.495   4.892  11.689  1.1497 -0.4309 -2.0245
50907SOL    HW259327   3.464   5.034  11.647 -0.5232  0.0525  0.6527
50908SOL     OW59328  12.596   8.251   0.360 -0.8357  0.0984  0.3064
50908SOL    HW159329  12.524   8.302   0.398 -0.9019  0.5929 -0.4367
50908SOL    HW259330  12.628   8.306   0.288  1.7671  0.9369  1.9458
50909SOL     OW59331   7.923   6.092   1.873 -0.1420 -0.1299 -0.2349
50909SOL    HW159332   7.986   6.049   1.816 -0.6003 -0.9112 -0.1725
50909SOL    HW259333   7.943   6.059   1.960 -1.3770 -1.3398 -0.3691
50910SOL     OW59334   3.929  11.714   3.917 -0.2448  0.4868  0.0385
50910SOL    HW159335   3.978  11.648   3.966  0.0165  0.0136 -0.8475
50910SOL    HW259336   3.837  11.688   3.927 -0.0864 -0.6105 -1.1361
50911SOL     OW59337   8.681   0.569  11.339 -0.0319 -0.5685  0.2142
50911SOL    HW159338   8.703   0.594  11.428  1.0455 -1.0448  0.1000
50911SOL    HW259339   8.586   0.560  11.339  0.0040 -1.1849  1.4805
50912SOL     OW59340   9.030   7.205  12.558 -0.1733  0.3181  0.0216
50912SOL    HW159341   9.106   7.202  12.617 -0.7170 -0.4640  0.7046
50912SOL    HW259342   9.059   7.259  12.485  1.3010 -0.5557 -0.0833
50913SOL     OW59343   5.709   6.438   9.355  0.2739  0.4538  0.2163
50913SOL    HW159344   5.744   6.350   9.337 -0.7956 -0.2255  1.2634
50913SOL    HW259345   5.689   6.437   9.448 -2.0613  0.9091 -0.2135
50914SOL     OW59346  11.017   2.319   6.790 -0.1606 -0.1698 -0.0444
50914SOL    HW159347  10.995   2.258   6.720 -0.7092 -0.1851  0.1429
50914SOL    HW259348  11.037   2.263   6.865  1.1288 -0.1832 -0.3740
50915SOL     OW59349   2.977   8.907   5.886 -0.9446  0.1373  0.1763
50915SOL    HW159350   3.065   8.932   5.913  0.0226 -1.8227 -0.9562
50915SOL    HW259351   2.943   8.984   5.840  1.3804 -0.0213 -2.0270
50916SOL     OW59352  10.777   9.372   3.448  0.6062 -0.8736 -0.3738
50916SOL    HW159353  10.681   9.364   3.454  0.5517 -0.8097 -1.0734
50916SOL    HW259354  10.790   9.462   3.419  0.8411 -1.1736 -1.2049
50917SOL     OW59355   8.312   8.804   4.374 -0.0616 -0.0343  0.3527
50917SOL    HW159356   8.351   8.748   4.442  0.4976  0.4416  0.4330
50917SOL    HW259357   8.385   8.856   4.342 -0.4643  0.2292 -0.1414
50918SOL     OW59358   8.707   4.918   2.637  0.6886  0.5575 -0.2276
50918SOL    HW159359   8.777   4.858   2.612  1.1545  1.1101 -0.2756
50918SOL    HW259360   8.686   4.893   2.728 -0.5524 -1.0156 -0.9002
50919SOL     OW59361   0.694   4.643  12.533  0.6353  0.1001  0.5829
50919SOL    HW159362   0.659   4.665  12.447  1.6207 -1.4691 -0.2777
50919SOL    HW259363   0.734   4.724  12.565 -1.2611  1.1568  0.3643
50920SOL     OW59364   1.828   7.286   2.881 -0.6083 -0.3476 -0.7408
50920SOL    HW159365   1.870   7.219   2.828 -0.6712  0.0042 -1.2434
50920SOL    HW259366   1.863   7.273   2.970  0.5702 -0.0616 -1.1426
50921SOL     OW59367   7.932   3.939   3.199  0.1998 -0.8787 -0.3043
50921SOL    HW159368   7.999   3.997   3.235 -1.1368  0.1150  0.6665
50921SOL    HW259369   7.973   3.852   3.201  2.0979 -0.0943 -1.4222
50922SOL     OW59370   7.255   0.452   3.346  0.0804  0.5817 -0.1095
50922SOL    HW159371   7.285   0.542   3.343 -1.6457  1.2744  1.3991
50922SOL    HW259372   7.160   0.458   3.357 -0.1989 -1.4333 -0.9713
50923SOL     OW59373   9.530   0.956   8.203 -0.2902 -0.6278  0.4948
50923SOL    HW159374   9.552   1.045   8.233  1.2406 -0.0939 -1.8897
50923SOL    HW259375   9.535   0.902   8.281  1.2223  0.9924  1.5983
50924SOL     OW59376   3.844   2.389  11.865  0.3213 -0.1270  0.1616
50924SOL    HW159377   3.788   2.405  11.788  0.8516  2.1297  0.1783
50924SOL    HW259378   3.928   2.361  11.828 -0.1679 -1.5604  0.0638
50925SOL     OW59379   6.808   2.812   8.907 -0.1645 -0.1434  0.2308
50925SOL    HW159380   6.730   2.761   8.927  0.6233 -1.2787  0.5175
50925SOL    HW259381   6.835   2.848   8.992  1.3226 -2.2700  0.7265
50926SOL     OW59382  10.811   2.019   2.917 -1.0569 -0.5950 -0.0998
50926SOL    HW159383  10.782   1.973   2.838 -0.1232 -0.0585 -0.7775
50926SOL    HW259384  10.884   2.074   2.887  0.9091 -2.1362  1.5743
50927SOL     OW59385   1.849   6.925   8.844  0.7458 -0.2056 -0.2223
50927SOL    HW159386   1.769   6.913   8.794  1.1842 -1.7676 -0.6216
50927SOL    HW259387   1.819   6.956   8.930 -0.3693 -1.5536 -0.0915
50928SOL     OW59388   9.213  11.901  11.422  0.3005 -0.4277 -0.6738
50928SOL    HW159389   9.295  11.946  11.400 -0.3263  0.8450 -0.5222
50928SOL    HW259390   9.165  11.897  11.339 -0.3079  0.6411 -0.3972
50929SOL     OW59391   6.111   2.711   3.765  0.2072  0.3711  0.1527
50929SOL    HW159392   6.185   2.749   3.718  0.6461  0.8803  1.2447
50929SOL    HW259393   6.143   2.627   3.797  0.0939  0.2964  0.0745
50930SOL     OW59394  12.124   7.375   9.278  0.3983  0.8837 -0.0723
50930SOL    HW159395  12.137   7.295   9.329 -0.9018  0.8105  0.1671
50930SOL    HW259396  12.057   7.353   9.214  1.6010  1.1487 -1.4840
50931SOL     OW59397  11.474   4.534   9.284  0.0950 -0.0767 -0.5683
50931SOL    HW159398  11.519   4.476   9.223  0.3493 -0.8016  0.2909
50931SOL    HW259399  11.544   4.577   9.333 -0.1184 -0.8314  0.4302
50932SOL     OW59400   4.737   2.406   4.516  0.1522 -0.2527  0.1420
50932SOL    HW159401   4.755   2.312   4.523  0.3952 -0.1031  2.7645
50932SOL    HW259402   4.823   2.447   4.528 -0.0747  0.3309 -0.2024
50933SOL     OW59403  12.570   2.151   1.094  0.9754  0.2127  0.2307
50933SOL    HW159404  12.521   2.070   1.082  1.7155 -0.5889  2.2102
50933SOL    HW259405  12.519   2.201   1.158  1.0847  0.8232 -0.1508
50934SOL     OW59406  12.701   0.467   9.500 -0.4785  0.3804  0.5084
50934SOL    HW159407  12.789   0.503   9.491 -0.5480  0.5548  0.5172
50934SOL    HW259408  12.645   0.529   9.453 -0.1654 -1.6388 -2.9026
50935SOL     OW59409   4.930   4.507   2.720  0.4767 -0.0476 -0.3283
50935SOL    HW159410   4.863   4.564   2.681  1.2049 -0.2213 -1.8736
50935SOL    HW259411   4.921   4.424   2.674  2.3594  0.2084 -1.2280
50936SOL     OW59412   1.494   9.659   7.286  0.0960 -0.2246  0.2563
50936SOL    HW159413   1.455   9.747   7.283 -0.0632 -0.3058 -0.0862
50936SOL    HW259414   1.482   9.631   7.377 -0.3448 -0.1106  0.2348
50937SOL     OW59415   3.129   9.274  11.344 -0.2583 -0.2831  0.5240
50937SOL    HW159416   3.157   9.365  11.329 -0.9695 -0.1652 -0.1539
50937SOL    HW259417   3.062   9.281  11.412  0.7474 -0.4838  1.5844
50938SOL     OW59418   2.335   4.013   0.741  0.2453  0.3638  0.1053
50938SOL    HW159419   2.419   4.045   0.774  0.7898  0.9847 -1.8012
50938SOL    HW259420   2.279   4.091   0.739 -0.1530  0.0982  0.6472
50939SOL     OW59421   3.374  10.338   9.897 -0.4169 -0.4803 -0.4288
50939SOL    HW159422   3.335  10.409   9.846  2.3640  0.9279 -0.8031
50939SOL    HW259423   3.354  10.360   9.988  1.7613  1.8541 -0.3908
50940SOL     OW59424   6.098   2.989   2.713 -0.0783  0.1720 -0.0534
50940SOL    HW159425   6.074   3.070   2.759 -1.7210 -0.5144  0.3743
50940SOL    HW259426   6.112   3.017   2.622 -0.3342  0.9877  0.1445
50941SOL     OW59427   0.012   2.412   6.999  0.0684  0.3319 -0.2803
50941SOL    HW159428  -0.045   2.385   6.927 -0.0711 -0.6015  0.1612
50941SOL    HW259429   0.100   2.388   6.970  0.0253  0.0601 -0.1900
50942SOL     OW59430  11.143   2.439   6.430  0.5683  0.4150  0.5579
50942SOL    HW159431  11.079   2.369   6.440  1.8051 -0.9336 -0.5801
50942SOL    HW259432  11.222   2.406   6.472  1.4159  0.7509 -0.7123
50943SOL     OW59433   3.506   8.179   2.807  0.4067  0.1021 -0.0929
50943SOL    HW159434   3.470   8.180   2.718  2.3520  1.0659 -0.9342
50943SOL    HW259435   3.599   8.199   2.795  0.6166  0.7637  2.2154
50944SOL     OW59436   9.634   4.690   2.772 -0.7272 -0.3266 -0.1775
50944SOL    HW159437   9.604   4.632   2.702  3.9507 -0.6851 -2.2405
50944SOL    HW259438   9.672   4.631   2.837 -0.1656  0.2424  0.0152
50945SOL     OW59439   2.516   6.741  11.520  0.1157 -0.4362  0.5383
50945SOL    HW159440   2.473   6.656  11.510 -1.5170  0.3758  0.3640
50945SOL    HW259441   2.461   6.788  11.583  0.2412  0.9499 -0.3522
50946SOL     OW59442  10.724   8.872   5.196  0.0387  0.1141  0.3464
50946SOL    HW159443  10.777   8.805   5.239  0.1330 -0.6977 -0.9691
50946SOL    HW259444  10.786   8.917   5.138 -0.1282  1.0346  0.8674
50947SOL     OW59445   2.831   9.451   6.832 -0.2194 -0.0125  0.0883
50947SOL    HW159446   2.801   9.484   6.917  1.1293 -0.4916  0.7852
50947SOL    HW259447   2.755   9.407   6.795 -0.6556 -0.3486  1.3437
50948SOL     OW59448   7.188  11.512  11.872  0.3870 -0.0286  0.5383
50948SOL    HW159449   7.105  11.465  11.875  1.7461 -2.5618  2.1902
50948SOL    HW259450   7.194  11.545  11.783 -1.3519 -1.7368 -0.2824
50949SOL     OW59451   2.841   9.889   3.605  0.1674  0.2883 -0.6292
50949SOL    HW159452   2.781   9.824   3.568 -0.9934  0.3889  1.0025
50949SOL    HW259453   2.922   9.877   3.554 -0.8182 -0.6624 -2.0789
50950SOL     OW59454   1.073   8.910   9.448 -0.1970 -0.6082 -0.2398
50950SOL    HW159455   1.046   9.002   9.443 -0.6217 -0.7871 -1.5990
50950SOL    HW259456   1.084   8.893   9.542 -2.7678  0.0588  0.2363
50951SOL     OW59457   8.736   3.663   0.494  0.5472 -0.0288 -0.2633
50951SOL    HW159458   8.651   3.644   0.455  0.6204  1.8046 -1.4773
50951SOL    HW259459   8.773   3.577   0.514 -1.1810 -0.8957 -0.5985
50952SOL     OW59460  11.520   3.223  12.626  0.5594 -0.0308  0.0279
50952SOL    HW159461  11.545   3.139  12.587 -0.8766 -0.6626  0.4096
50952SOL    HW259462  11.582   3.235  12.698 -1.1420 -2.3783  2.0270
50953SOL     OW59463  10.626  12.132   9.405  0.1857  0.1976  0.1666
50953SOL    HW159464  10.546  12.121   9.457  0.7417 -0.1637  0.9675
50953SOL    HW259465  10.693  12.154   9.469  0.8475 -0.0687 -0.4278
50954SOL     OW59466  10.221   4.950   2.066 -0.7980  0.5024 -0.4362
50954SOL    HW159467  10.272   5.030   2.055 -1.2171  0.5508 -2.2852
50954SOL    HW259468  10.129   4.979   2.065 -0.9742 -0.0357 -1.7599
50955SOL     OW59469   7.273   7.919  10.896  0.1334  0.4329  0.2205
50955SOL    HW159470   7.352   7.935  10.947 -0.1026  3.7365 -0.2337
50955SOL    HW259471   7.255   8.002  10.853 -2.6651 -0.7010 -1.0420
50956SOL     OW59472   3.091  12.429   9.296 -0.1008  0.3917 -0.2428
50956SOL    HW159473   3.182  12.414   9.324 -0.4640  0.3613  1.0069
50956SOL    HW259474   3.068  12.350   9.248  0.3875  0.1812 -0.1421
50957SOL     OW59475   3.190   7.354   0.619  0.4688  0.4109  0.2821
50957SOL    HW159476   3.257   7.356   0.688  1.3494 -0.1291 -0.5188
50957SOL    HW259477   3.240   7.342   0.538 -0.7271 -4.1264 -0.0485
50958SOL     OW59478  10.587   0.592   9.567  0.0911  0.4335  0.0354
50958SOL    HW159479  10.568   0.588   9.473  0.0205  0.5988  0.0425
50958SOL    HW259480  10.679   0.619   9.571 -0.4777  2.5807  0.0268
50959SOL     OW59481   6.620   8.164  12.765  0.5723  0.0688  0.1062
50959SOL    HW159482   6.655   8.176  12.677 -0.0521  1.5454  0.0290
50959SOL    HW259483   6.692   8.191  12.823  0.3712  0.8782 -0.0056
50960SOL     OW59484   2.487   7.094   8.426 -0.0823  0.4318 -0.5597
50960SOL    HW159485   2.462   7.088   8.518 -0.7811 -0.2055 -0.7849
50960SOL    HW259486   2.408   7.127   8.382 -0.3470 -0.9720 -1.1840
50961SOL     OW59487   0.019  11.256   9.828 -0.2687 -0.2403  0.0120
50961SOL    HW159488   0.088  11.302   9.876 -0.1669  0.1681 -0.5224
50961SOL    HW259489  -0.003  11.181   9.883 -1.7810  1.4495  1.8883
50962SOL     OW59490   0.612   0.783  11.252 -0.5904  0.2658  0.0862
50962SOL    HW159491   0.643   0.846  11.317  0.2099  0.5211 -0.5254
50962SOL    HW259492   0.656   0.701  11.275 -2.0819 -0.2614  1.2401
50963SOL     OW59493   5.294   7.986  11.937 -0.0509  0.0746  0.0741
50963SOL    HW159494   5.364   8.026  11.988 -0.9396 -1.3679  2.5863
50963SOL    HW259495   5.338   7.947  11.862  1.7760 -0.3253  1.2873
50964SOL     OW59496   5.013   2.247   9.626  0.0394 -0.2421  0.4735
50964SOL    HW159497   5.013   2.164   9.675  1.9524 -0.1051  0.7882
50964SOL    HW259498   4.932   2.245   9.576 -0.8381 -1.4814  1.8428
50965SOL     OW59499   7.817  12.625   8.830  0.1708  0.6157  1.0316
50965SOL    HW159500   7.843  12.545   8.877 -0.5405  1.0635  2.2058
50965SOL    HW259501   7.800  12.689   8.899  0.2764  1.6581  0.1124
50966SOL     OW59502   4.148   9.197   4.662 -0.1610  0.0421  0.1668
50966SOL    HW159503   4.184   9.282   4.687  0.0189  0.3986 -1.2127
50966SOL    HW259504   4.175   9.138   4.732 -1.0663  1.2817  1.6439
50967SOL     OW59505   2.954   1.374   7.293  0.2418 -0.0093  0.1723
50967SOL    HW159506   2.897   1.300   7.314  0.5432  0.1560  1.6930
50967SOL    HW259507   2.944   1.386   7.199 -2.0966 -0.0989  0.3533
50968SOL     OW59508   2.065   0.163   5.987 -0.2268  0.3669  0.0373
50968SOL    HW159509   1.974   0.137   6.002 -0.3750 -0.7140 -2.2322
50968SOL    HW259510   2.093   0.109   5.913  2.6364 -0.1225  1.3336
50969SOL     OW59511   8.283   2.683   7.176 -0.0326  0.2172  0.3172
50969SOL    HW159512   8.317   2.655   7.260 -1.3264 -1.7543  0.2320
50969SOL    HW259513   8.357   2.674   7.116  0.6328  0.7363  1.0359
50970SOL     OW59514   8.222   4.912   8.592  0.2452  0.0951 -0.2262
50970SOL    HW159515   8.205   4.887   8.501  0.4015 -0.7909 -0.0195
50970SOL    HW259516   8.317   4.906   8.601  0.2941  0.8429 -0.1870
50971SOL     OW59517  12.426  12.690   8.726  0.2145 -0.2312  0.3021
50971SOL    HW159518  12.423  12.783   8.749 -0.2845 -0.3469  0.7208
50971SOL    HW259519  12.403  12.644   8.807 -3.4119 -0.6111 -0.7715
50972SOL     OW59520  12.508   8.525  10.352  0.4178 -0.1579  0.4771
50972SOL    HW159521  12.561   8.554  10.426 -0.0805  0.7302  0.4984
50972SOL    HW259522  12.423   8.566  10.366  0.9819  2.1261 -1.8495
50973SOL     OW59523  10.041   4.011   0.802 -0.2495  0.0964 -0.3477
50973SOL    HW159524  10.134   3.988   0.800  0.0142 -0.1747  3.9233
50973SOL    HW259525  10.039   4.105   0.786  1.2395  0.6676  2.1933
50974SOL     OW59526   0.547  12.673   5.624 -0.5087  0.2192 -0.7500
50974SOL    HW159527   0.461  12.634   5.643 -1.1543  1.6417 -0.5373
50974SOL    HW259528   0.585  12.617   5.557 -2.9229  1.1489 -3.1172
50975SOL     OW59529   8.476   1.605   5.960 -0.4217  0.4233  0.3197
50975SOL    HW159530   8.492   1.698   5.976 -1.2045  0.4226  1.2028
50975SOL    HW259531   8.465   1.599   5.865 -1.7431  1.4863  0.3777
50976SOL     OW59532   1.134   9.224  10.662  0.6746 -0.3285  0.1576
50976SOL    HW159533   1.225   9.249  10.676  0.7645 -1.6427  2.4948
50976SOL    HW259534   1.122   9.145  10.715 -2.1843  0.6056  1.1511
50977SOL     OW59535   3.173  12.500  11.517  0.6751 -0.1085  0.1433
50977SOL    HW159536   3.195  12.577  11.465 -0.7452  0.2517  0.0635
50977SOL    HW259537   3.256  12.477  11.560  1.8929 -0.3726 -2.1575
50978SOL     OW59538   3.139  10.307   9.399 -0.7006  0.1241  0.5567
50978SOL    HW159539   3.184  10.223   9.410 -0.8936  0.0999  1.2555
50978SOL    HW259540   3.209  10.370   9.383 -0.6359 -0.3342 -1.1223
50979SOL     OW59541   0.460   4.363  12.349 -0.0254  0.2618 -0.1142
50979SOL    HW159542   0.536   4.308  12.367 -0.0278  0.5169  0.6898
50979SOL    HW259543   0.393   4.331  12.409  0.0844  1.3823  0.6346
50980SOL     OW59544   3.523   6.139   6.805 -0.3943  0.2814 -0.1498
50980SOL    HW159545   3.564   6.092   6.878  1.9990  2.0382 -0.2514
50980SOL    HW259546   3.461   6.076   6.769  1.2503 -2.1181  0.8943
50981SOL     OW59547   5.093   2.251   3.448 -0.0556  0.2661 -0.0021
50981SOL    HW159548   5.092   2.260   3.353  0.8298  2.0433  0.1104
50981SOL    HW259549   5.176   2.206   3.467  0.6573  1.5242 -0.0055
50982SOL     OW59550   4.208   1.173   2.375 -0.4089  0.4742 -0.2510
50982SOL    HW159551   4.122   1.177   2.333 -0.2211  0.0156 -0.6873
50982SOL    HW259552   4.230   1.264   2.395 -1.1001  0.5776  0.0803
50983SOL     OW59553   4.521   3.357   3.269  0.7784  0.2406  0.2875
50983SOL    HW159554   4.540   3.319   3.183  2.3103  0.3309  0.5546
50983SOL    HW259555   4.437   3.319   3.294 -0.2859  1.0982 -1.7380
50984SOL     OW59556   3.741   0.732  12.780  0.2752 -0.3216  0.2584
50984SOL    HW159557   3.723   0.643  12.808  0.6250  0.2331  2.4359
50984SOL    HW259558   3.829   0.729  12.743  0.8977 -0.6298  1.7124
50985SOL     OW59559   9.959   2.086   2.679 -0.2241  0.3222 -0.2092
50985SOL    HW159560   9.971   1.995   2.651 -0.3326  0.5320 -0.9533
50985SOL    HW259561   9.938   2.080   2.773  0.8440 -0.3505  0.0056
50986SOL     OW59562   0.593  11.140   6.237 -0.3247 -0.4982  0.0006
50986SOL    HW159563   0.610  11.057   6.280 -0.6605  0.6181  2.4533
50986SOL    HW259564   0.499  11.139   6.218 -0.3196 -0.6692 -0.0190
50987SOL     OW59565  11.735   3.760   3.669  0.2332 -0.0796 -0.4434
50987SOL    HW159566  11.653   3.762   3.719  0.7058  1.1599  0.3349
50987SOL    HW259567  11.748   3.668   3.648 -0.7667 -0.4395  0.4333
50988SOL     OW59568   1.032   7.363   9.221 -0.7600  0.2942  0.6362
50988SOL    HW159569   1.081   7.427   9.272  1.8032 -0.0125 -1.2340
50988SOL    HW259570   0.943   7.399   9.217  0.9094  5.0461 -2.1435
50989SOL     OW59571  12.211   4.143   5.270 -0.2606 -0.1647 -0.2041
50989SOL    HW159572  12.281   4.099   5.222  1.3274  0.4544  1.4364
50989SOL    HW259573  12.247   4.230   5.289 -0.9796 -0.2482  1.7018
50990SOL     OW59574  12.513  11.038  12.639 -0.1595  0.5339 -0.2019
50990SOL    HW159575  12.473  10.987  12.709  1.8339  1.2924  1.5930
50990SOL    HW259576  12.596  10.993  12.622  0.4667  1.7119 -0.3753
50991SOL     OW59577   3.789   1.471  10.784  0.2891 -0.1670  0.5588
50991SOL    HW159578   3.857   1.495  10.721  0.3682  2.5495  1.5408
50991SOL    HW259579   3.716   1.530  10.765 -0.7768 -1.2196  1.2285
50992SOL     OW59580   3.423   3.253  11.168  0.1843  0.3830 -0.3086
50992SOL    HW159581   3.435   3.236  11.075  0.0632 -1.7606  0.0242
50992SOL    HW259582   3.328   3.262  11.178  0.1345 -0.1453 -0.2856
50993SOL     OW59583   8.367   1.695  12.115  0.2469 -0.3132 -0.8498
50993SOL    HW159584   8.421   1.618  12.102 -0.1117 -0.4467 -1.5922
50993SOL    HW259585   8.409   1.742  12.187  0.5888 -1.0873 -0.5320
50994SOL     OW59586   9.501   0.941   6.798  0.3161  0.3181  0.3792
50994SOL    HW159587   9.450   0.873   6.753  0.3094  0.4823  0.1360
50994SOL    HW259588   9.541   0.896   6.871 -1.1392  0.4231  1.2857
50995SOL     OW59589  10.003  11.317   6.005 -0.3085  0.7241 -0.0204
50995SOL    HW159590  10.096  11.326   5.983  0.0552  1.4948  1.6138
50995SOL    HW259591   9.957  11.338   5.924  0.9392 -0.1530 -0.9969
50996SOL     OW59592   4.477  12.612   3.408  0.4180  0.6370  0.2356
50996SOL    HW159593   4.401  12.635   3.462 -0.1010  1.2606 -0.7299
50996SOL    HW259594   4.552  12.623   3.466 -0.1391  1.1630  0.8663
50997SOL     OW59595   3.546  11.863   1.986  0.0324 -0.1458  0.2228
50997SOL    HW159596   3.520  11.784   1.939  1.4498  0.0709 -0.9983
50997SOL    HW259597   3.641  11.867   1.977 -0.0940  2.4433 -1.0166
50998SOL     OW59598   9.931   9.794   7.225 -0.1592  0.8734 -0.2529
50998SOL    HW159599   9.914   9.700   7.226  2.4383  0.3289  0.9307
50998SOL    HW259600   9.849   9.833   7.253 -1.0581 -1.0895  0.0367
50999SOL     OW59601   4.700   7.430  12.593 -0.1266 -0.2836  0.2471
50999SOL    HW159602   4.699   7.524  12.612 -2.1544  0.2576 -2.0312
50999SOL    HW259603   4.791   7.404  12.608  0.5137  2.0489  0.8722
51000SOL     OW59604   7.088   1.550   3.240 -0.7594  0.1070 -0.9542
51000SOL    HW159605   7.130   1.521   3.321 -0.6729  0.3113 -0.9259
51000SOL    HW259606   7.124   1.493   3.172 -1.1162 -0.3197 -0.7927
51001SOL     OW59607  11.100  10.429   8.124 -0.4262 -0.3899  0.4173
51001SOL    HW159608  11.154  10.357   8.090  0.0013  0.9736 -2.0411
51001SOL    HW259609  11.159  10.479   8.180  0.2559 -0.0987 -0.5478
51002SOL     OW59610   9.811   5.406   0.361 -0.3151 -0.1446  0.4437
51002SOL    HW159611   9.870   5.332   0.376 -1.8035 -1.3984  0.3461
51002SOL    HW259612   9.860   5.465   0.304  0.8999 -1.0619  0.5120
51003SOL     OW59613  10.048  11.224  11.854 -0.3721  0.2237  0.4021
51003SOL    HW159614  10.047  11.272  11.937  1.3272 -0.8039  1.0855
51003SOL    HW259615  10.141  11.212  11.835 -0.6818  1.3454 -2.2474
51004SOL     OW59616   1.886  11.111   6.412 -0.8560 -0.0896  0.4449
51004SOL    HW159617   1.873  11.156   6.496 -1.5594  2.1791 -0.7889
51004SOL    HW259618   1.799  11.078   6.389 -0.7308 -0.4256  0.4570
51005SOL     OW59619   5.742  11.856  11.945 -0.4623 -0.2119 -0.8476
51005SOL    HW159620   5.836  11.841  11.938 -0.3003  0.3659 -0.0096
51005SOL    HW259621   5.722  11.841  12.037 -1.0010  0.7264 -0.7999
51006SOL     OW59622   3.216  10.200   4.853 -0.4172 -0.4979 -0.0717
51006SOL    HW159623   3.169  10.232   4.776  0.5523  1.5479  0.1269
51006SOL    HW259624   3.270  10.128   4.821  1.3200  1.4444 -1.7690
51007SOL     OW59625   5.987  10.336  10.160  0.1253 -0.7842  0.1053
51007SOL    HW159626   5.959  10.414  10.207 -0.5010  0.5926 -2.3338
51007SOL    HW259627   6.068  10.362  10.116  0.2251 -1.6841 -0.2770
51008SOL     OW59628   9.348   3.802   1.623  0.2713  0.2497  0.2256
51008SOL    HW159629   9.312   3.842   1.703 -0.3125  0.3440 -0.0737
51008SOL    HW259630   9.270   3.780   1.571  0.6082 -0.8450  0.1738
51009SOL     OW59631   2.864   9.867  10.250  0.2325  0.6961 -0.0937
51009SOL    HW159632   2.908   9.792  10.292  0.6373  1.3252  0.6317
51009SOL    HW259633   2.921   9.889  10.176 -0.3464 -0.2534 -0.8444
51010SOL     OW59634  10.216   7.040   7.111 -0.4837  0.4396  0.5268
51010SOL    HW159635  10.167   7.014   7.033 -0.3287  1.8807 -0.0937
51010SOL    HW259636  10.174   6.993   7.183 -0.3109 -1.3196 -0.4678
51011SOL     OW59637  10.707   6.853   1.750 -0.6231 -0.3597 -0.0579
51011SOL    HW159638  10.722   6.883   1.839  2.2741 -1.9607  0.1046
51011SOL    HW259639  10.646   6.780   1.760  0.9339 -1.5938  0.8934
51012SOL     OW59640   6.729   9.641   9.560  0.5773  0.2133  0.3899
51012SOL    HW159641   6.707   9.554   9.595 -0.7186  0.3753  0.0299
51012SOL    HW259642   6.747   9.694   9.638 -1.2897  0.3068  0.8028
51013SOL     OW59643  11.138   8.899   3.215  1.0262 -0.1064  0.2491
51013SOL    HW159644  11.148   8.910   3.121 -1.8320 -2.3320 -0.4807
51013SOL    HW259645  11.058   8.946   3.237  0.6347 -1.1367  1.1620
51014SOL     OW59646   5.345   0.994  10.805 -0.3374 -0.3837  0.2934
51014SOL    HW159647   5.377   0.914  10.846  0.1270  0.2359  1.1616
51014SOL    HW259648   5.403   1.062  10.837 -1.6589  0.5473  0.7856
51015SOL     OW59649   5.508   6.354  12.214 -0.0538  0.3055 -0.1683
51015SOL    HW159650   5.529   6.381  12.304 -1.7250 -0.4868  0.5023
51015SOL    HW259651   5.470   6.267  12.223  0.3260 -0.0615 -1.7415
51016SOL     OW59652   3.811  11.479  10.337  0.1220  0.8831  0.4989
51016SOL    HW159653   3.722  11.471  10.371 -0.2518 -1.1034 -0.7903
51016SOL    HW259654   3.863  11.507  10.412 -1.0714 -0.9872  2.1093
51017SOL     OW59655  11.662   9.947   2.614 -0.6215  0.6756  0.3477
51017SOL    HW159656  11.656   9.894   2.693 -2.0095 -1.8789 -1.3252
51017SOL    HW259657  11.717   9.895   2.555 -1.0874  1.6513 -0.9981
51018SOL     OW59658  10.902   8.163  10.980 -0.0880 -0.2266 -0.0299
51018SOL    HW159659  10.829   8.224  10.969  0.1659  0.3162  1.0442
51018SOL    HW259660  10.977   8.220  10.997 -0.1248 -0.8153  2.5855
51019SOL     OW59661   4.372  11.682   5.582  0.2815  0.8692  0.2921
51019SOL    HW159662   4.279  11.704   5.592 -0.4608 -2.0319  0.5773
51019SOL    HW259663   4.416  11.733   5.650 -0.9335  2.8952 -0.3432
51020SOL     OW59664   0.573   5.209   0.411 -0.5452 -0.1077 -0.2943
51020SOL    HW159665   0.591   5.126   0.456 -2.0282 -1.1563 -1.5189
51020SOL    HW259666   0.566   5.274   0.481  1.9595 -0.7200  0.6026
51021SOL     OW59667  10.594   7.641   5.347  0.2123 -0.0387 -0.1657
51021SOL    HW159668  10.669   7.584   5.366  1.4535  1.6740  0.3686
51021SOL    HW259669  10.570   7.620   5.257 -0.3773 -2.4417  0.4803
51022SOL     OW59670  11.676   6.808   5.445  0.7936 -0.3736  0.8090
51022SOL    HW159671  11.665   6.737   5.381  0.6978 -2.2596  2.7808
51022SOL    HW259672  11.590   6.849   5.451 -0.3026 -2.6773  2.3877
51023SOL     OW59673   7.496   3.733   6.661  0.0981 -0.4972 -0.4560
51023SOL    HW159674   7.539   3.656   6.625  1.5667  0.0354  0.0671
51023SOL    HW259675   7.456   3.776   6.586  0.8360 -0.8074 -1.0318
51024SOL     OW59676   5.547   2.790  12.423 -0.0852  0.3001  1.0399
51024SOL    HW159677   5.546   2.696  12.407  2.0153  0.1324  1.6269
51024SOL    HW259678   5.541   2.797  12.519  0.9828  0.6708  1.0970
51025SOL     OW59679   2.598  10.229   5.967  0.1554 -0.3562 -0.5029
51025SOL    HW159680   2.545  10.166   5.918  1.9873 -2.0291 -0.4637
51025SOL    HW259681   2.671  10.249   5.909 -0.3920  1.8815 -0.5475
51026SOL     OW59682   4.613   7.447   5.907 -0.3255 -0.3968 -0.6254
51026SOL    HW159683   4.566   7.526   5.933  0.3484  0.2558 -1.3417
51026SOL    HW259684   4.695   7.479   5.869  0.4568 -1.4822  0.0775
51027SOL     OW59685   5.226  12.455   6.597  0.2824  0.2803  0.1367
51027SOL    HW159686   5.169  12.423   6.528  0.5010 -0.3322  0.2312
51027SOL    HW259687   5.219  12.389   6.667  1.1466  0.1609  0.1216
51028SOL     OW59688  10.215   3.381  12.064 -0.0035  0.1240 -0.2864
51028SOL    HW159689  10.234   3.298  12.020 -0.8759 -0.0399 -0.3838
51028SOL    HW259690  10.125   3.371  12.096  0.6233  0.2185  1.6194
51029SOL     OW59691   6.290   9.109  11.332 -0.0995  0.3126 -0.3743
51029SOL    HW159692   6.257   9.054  11.261 -0.1528 -0.0002 -0.1093
51029SOL    HW259693   6.256   9.197  11.312 -0.7192  0.0834 -0.3447
51030SOL     OW59694  10.369   6.430   8.841 -0.3888 -0.4668 -0.3744
51030SOL    HW159695  10.337   6.508   8.797 -0.2978  0.6523  1.4335
51030SOL    HW259696  10.314   6.359   8.808 -1.1031  0.5109 -1.3436
51031SOL     OW59697   8.533   0.340  12.031  0.3400  0.6293  0.4471
51031SOL    HW159698   8.532   0.279  12.105  1.4779 -0.8400 -0.6711
51031SOL    HW259699   8.450   0.324  11.986  0.2085  0.5937  0.7016
51032SOL     OW59700  10.015   7.187  10.639 -1.0526  0.3372 -0.1655
51032SOL    HW159701   9.940   7.243  10.618 -0.0536  1.6652 -0.3285
51032SOL    HW259702  10.032   7.139  10.558 -1.8683 -0.1582 -0.0528
51033SOL     OW59703  12.589  11.913   1.585  0.1112  0.1749  0.0450
51033SOL    HW159704  12.544  11.996   1.598 -0.4286  0.7478 -4.1850
51033SOL    HW259705  12.520  11.847   1.598 -0.4105  0.6543 -0.2281
51034SOL     OW59706   0.338   0.954   5.989 -0.3815 -0.2518 -0.6841
51034SOL    HW159707   0.298   0.884   5.938 -2.9118  0.5154  0.1063
51034SOL    HW259708   0.386   1.006   5.925 -1.1186 -0.9139 -1.8071
51035SOL     OW59709  12.201   6.333   8.699 -0.0269 -0.4631  0.4486
51035SOL    HW159710  12.163   6.368   8.779  0.4274 -0.5232  0.6984
51035SOL    HW259711  12.174   6.241   8.698  0.6685 -0.6864  0.9860
51036SOL     OW59712   3.668   5.565   6.166 -0.3059 -0.3279  0.1153
51036SOL    HW159713   3.719   5.633   6.122 -1.4685  0.5569  0.0548
51036SOL    HW259714   3.723   5.487   6.164 -0.2572 -0.3171 -2.8329
51037SOL     OW59715   3.881   6.239   8.773 -0.8972  0.0507 -0.4852
51037SOL    HW159716   3.799   6.196   8.799 -1.4257 -0.8839 -3.3553
51037SOL    HW259717   3.859   6.285   8.692  1.1474  0.7356 -0.7045
51038SOL     OW59718  11.169   5.005   0.006 -0.4510 -0.3990  0.0922
51038SOL    HW159719  11.183   4.917   0.040  0.5625  0.0191  0.8110
51038SOL    HW259720  11.087   4.999  -0.043  0.3717 -2.1052 -1.1742
51039SOL     OW59721   7.582   7.322  12.440 -0.6884 -0.1725 -0.4826
51039SOL    HW159722   7.493   7.337  12.472 -0.4367 -0.9110  0.6555
51039SOL    HW259723   7.585   7.228  12.420 -0.4217  0.0156 -1.3642
51040SOL     OW59724  10.733   9.562  11.285 -0.1057 -0.1075  0.3944
51040SOL    HW159725  10.784   9.490  11.250  0.1192  0.5158 -0.5895
51040SOL    HW259726  10.687   9.525  11.360 -1.5495 -1.7914 -1.2464
51041SOL     OW59727   9.164   9.081   3.111 -0.3668  0.0224 -0.0673
51041SOL    HW159728   9.204   9.087   3.198 -0.6589 -0.7747  0.1266
51041SOL    HW259729   9.074   9.054   3.128 -0.2228 -0.8626 -0.6446
51042SOL     OW59730   2.281  10.416   3.258  0.2732  0.5130 -0.3708
51042SOL    HW159731   2.359  10.419   3.202  0.0859  3.0228 -0.5978
51042SOL    HW259732   2.270  10.323   3.277  2.1265 -0.1300 -1.9956
51043SOL     OW59733   6.777  12.488  10.284  0.1534  0.1771 -0.4113
51043SOL    HW159734   6.847  12.442  10.237  4.1465  1.9549  3.1643
51043SOL    HW259735   6.765  12.438  10.365 -2.0660  0.5430 -0.4502
51044SOL     OW59736  10.066   3.045   3.978  0.2215 -0.2403 -0.5508
51044SOL    HW159737  10.014   2.966   3.991  1.2770 -0.8132  0.2395
51044SOL    HW259738  10.124   3.024   3.905  0.9071 -0.4099  0.0373
51045SOL     OW59739   9.662   3.081   5.457  0.1307  0.0480 -0.3405
51045SOL    HW159740   9.657   3.055   5.365  1.6791  0.4080 -0.5640
51045SOL    HW259741   9.742   3.039   5.489 -1.0972 -1.1629  1.2327
51046SOL     OW59742   8.321   8.182   6.039 -0.1826  0.1248 -0.1571
51046SOL    HW159743   8.253   8.219   5.983  0.5786  1.8017 -0.0503
51046SOL    HW259744   8.317   8.235   6.119  0.9023 -0.0627  0.0457
51047SOL     OW59745   5.406   1.564   5.054  0.3547 -0.1514 -0.1099
51047SOL    HW159746   5.497   1.553   5.082  0.7963 -0.5650 -1.5896
51047SOL    HW259747   5.378   1.646   5.095  1.3412 -0.0955  0.4948
51048SOL     OW59748   9.731   8.416   7.173 -0.2547 -0.2065  0.5917
51048SOL    HW159749   9.775   8.358   7.236  1.9858  0.4478 -0.2851
51048SOL    HW259750   9.672   8.358   7.125  1.0332 -1.5562  0.5657
51049SOL     OW59751   2.933   6.832   1.436 -0.4923  0.4936 -0.2069
51049SOL    HW159752   2.859   6.785   1.474 -0.9682  0.7641 -0.7811
51049SOL    HW259753   2.897   6.875   1.358  1.0102 -2.2651 -2.6237
51050SOL     OW59754   6.327   6.274   4.311  0.3936 -0.2935  0.4155
51050SOL    HW159755   6.305   6.301   4.222 -0.6083 -0.2543  0.6652
51050SOL    HW259756   6.411   6.229   4.302  0.1229 -0.6216 -0.6062
51051SOL     OW59757  10.449   9.554   4.227 -0.1477 -0.1409  0.0856
51051SOL    HW159758  10.488   9.520   4.308  0.3094  1.3569  0.5205
51051SOL    HW259759  10.381   9.614   4.256 -0.4017 -0.0617 -0.6549
51052SOL     OW59760  11.422   8.251   6.073 -0.1738  0.0902  0.1561
51052SOL    HW159761  11.478   8.263   6.149 -1.2927 -4.1102  1.9487
51052SOL    HW259762  11.333   8.261   6.107 -0.6686 -0.4987 -0.8985
51053SOL     OW59763   0.676  12.256   0.787 -0.0032  0.4855  0.0931
51053SOL    HW159764   0.603  12.198   0.768 -0.5194  0.7604  1.1856
51053SOL    HW259765   0.754  12.202   0.776 -0.1961  0.5853 -2.7223
51054SOL     OW59766   9.252   8.819   5.368  0.1125 -0.1566 -0.2862
51054SOL    HW159767   9.270   8.866   5.287  1.3455 -0.9181 -0.4713
51054SOL    HW259768   9.193   8.877   5.417 -0.1710  0.5710 -1.4602
51055SOL     OW59769   4.338  10.682  11.220  0.2778  0.7431 -0.0510
51055SOL    HW159770   4.273  10.611  11.217  1.1236 -0.2098  2.1104
51055SOL    HW259771   4.386  10.673  11.138  0.5203 -1.3854  0.2580
51056SOL     OW59772   9.316   4.390   9.815 -0.6578 -0.3576 -1.0273
51056SOL    HW159773   9.259   4.458   9.851  0.1084  0.7716 -1.8753
51056SOL    HW259774   9.295   4.312   9.866 -0.7111  0.7907  0.8133
51057SOL     OW59775   9.778   9.897   0.019  0.2472  0.1626 -0.0270
51057SOL    HW159776   9.854   9.868   0.070  0.5448  1.2184  0.1484
51057SOL    HW259777   9.703   9.875   0.074  0.3931 -1.1782 -0.3384
51058SOL     OW59778   9.211   3.247   1.714 -0.1427  0.1399 -0.2770
51058SOL    HW159779   9.148   3.182   1.746  0.8717 -0.9623 -0.4483
51058SOL    HW259780   9.163   3.295   1.647 -0.6999 -0.9220 -0.6682
51059SOL     OW59781   6.772   4.906   5.935  0.4296 -0.0545  0.2273
51059SOL    HW159782   6.756   4.994   5.901  0.3103  1.1016  2.9670
51059SOL    HW259783   6.690   4.858   5.920  0.0455  0.7163 -0.1695
51060SOL     OW59784   6.880   2.805   3.257  0.2510  0.1290 -0.1858
51060SOL    HW159785   6.890   2.811   3.352 -0.4960  2.0511 -0.1792
51060SOL    HW259786   6.948   2.864   3.223  0.4422 -0.4619 -0.8363
51061SOL     OW59787   9.993   7.840   7.394 -0.1887 -0.6090 -0.3078
51061SOL    HW159788  10.002   7.899   7.469 -2.8008  1.1574 -1.2571
51061SOL    HW259789   9.990   7.752   7.434  0.3320  0.1260  1.4572
51062SOL     OW59790   1.591   1.956   4.025 -0.5457 -0.9352 -0.0911
51062SOL    HW159791   1.660   1.967   3.960 -0.0373 -1.2337  0.3918
51062SOL    HW259792   1.519   1.915   3.976 -1.5995  2.1494 -1.3374
51063SOL     OW59793  10.215   2.458   4.768 -0.6095 -0.7212 -0.8352
51063SOL    HW159794  10.180   2.535   4.812 -1.2722 -0.8112 -1.1856
51063SOL    HW259795  10.231   2.395   4.838 -0.7632 -0.5287 -0.6272
51064SOL     OW59796  10.531   3.400   9.175  0.8169  0.2462 -0.5171
51064SOL    HW159797  10.606   3.395   9.116 -0.1762 -0.9286 -1.7248
51064SOL    HW259798  10.473   3.464   9.135  0.6310  0.2651 -0.2194
51065SOL     OW59799   1.890   9.121   3.015  0.8848 -0.6425 -0.2654
51065SOL    HW159800   1.894   9.217   3.016 -0.3777 -0.5440 -1.1000
51065SOL    HW259801   1.894   9.096   3.107  0.4537  0.2753  0.0243
51066SOL     OW59802   8.810   7.299   2.421  0.3525  0.1965  0.3897
51066SOL    HW159803   8.787   7.281   2.330 -0.7533 -0.9725  0.8642
51066SOL    HW259804   8.900   7.268   2.430 -0.1009 -1.3321  0.0914
51067SOL     OW59805   7.216   2.916   4.971 -0.1487  1.1322 -0.2309
51067SOL    HW159806   7.141   2.861   4.949  0.1417  0.6435 -0.0249
51067SOL    HW259807   7.292   2.859   4.960  0.0885  1.1916  0.9072
51068SOL     OW59808   1.592  11.542   3.369  0.5057 -0.8479  0.4182
51068SOL    HW159809   1.533  11.602   3.413  2.5673  2.2211 -0.6653
51068SOL    HW259810   1.542  11.511   3.293 -0.1249  0.8442  0.0875
51069SOL     OW59811   5.835   1.332   7.809  0.0897  0.1734 -0.4598
51069SOL    HW159812   5.887   1.357   7.733  1.0984 -2.1092 -0.6064
51069SOL    HW259813   5.879   1.374   7.883  2.2558 -1.6993 -0.5816
51070SOL     OW59814   6.211   3.013   7.464  0.1297  0.1090  0.2444
51070SOL    HW159815   6.152   2.937   7.456 -0.6545  0.7037  0.2604
51070SOL    HW259816   6.182   3.073   7.396 -0.1687  0.9794  1.1109
51071SOL     OW59817   2.818   8.370   4.185 -0.0373  0.3098  0.2190
51071SOL    HW159818   2.792   8.402   4.098 -0.0408 -2.9107 -1.0988
51071SOL    HW259819   2.789   8.439   4.245 -1.2589  2.0654 -2.2000
51072SOL     OW59820   5.026   3.535   8.220  0.3977 -0.4682  0.3292
51072SOL    HW159821   5.061   3.477   8.288  1.5992 -0.3659 -0.1706
51072SOL    HW259822   5.005   3.476   8.148  0.1911 -0.4533  0.3782
51073SOL     OW59823  12.136   1.006   2.704  0.1535  0.0887 -0.0541
51073SOL    HW159824  12.119   1.026   2.612 -0.9499  1.7430  0.4574
51073SOL    HW259825  12.231   1.007   2.712  0.3600 -1.9362 -1.5156
51074SOL     OW59826   1.830  11.167  12.344  0.5696 -0.8391 -0.2627
51074SOL    HW159827   1.833  11.097  12.278  0.7502 -1.0082 -0.0769
51074SOL    HW259828   1.887  11.235  12.310  0.5430 -0.8629 -0.3555
51075SOL     OW59829   2.318   5.983   8.311  0.7387  0.5985  0.5367
51075SOL    HW159830   2.374   5.976   8.388 -0.3255 -0.1974  1.2561
51075SOL    HW259831   2.234   6.015   8.345  0.7292  1.7925 -0.5206
51076SOL     OW59832  11.785  12.568  10.353  0.0042 -0.4937 -0.3607
51076SOL    HW159833  11.736  12.530  10.426  3.0107 -2.6789  0.7666
51076SOL    HW259834  11.867  12.597  10.393  0.6955  0.7130 -2.4911
51077SOL     OW59835   1.835   8.145   1.214  0.6931  0.0589 -0.1766
51077SOL    HW159836   1.864   8.109   1.298  0.1724 -0.0507 -0.0387
51077SOL    HW259837   1.740   8.137   1.217  0.7559 -1.8816 -1.6410
51078SOL     OW59838   4.327   2.038   3.138  0.2040  0.5073 -0.1263
51078SOL    HW159839   4.392   2.025   3.207  0.3464  0.1497 -0.3251
51078SOL    HW259840   4.378   2.056   3.059  0.1043 -0.4541 -0.4342
51079SOL     OW59841   6.473   8.688   0.813 -0.1764 -0.3815 -0.1925
51079SOL    HW159842   6.440   8.774   0.840 -2.4044 -1.5387  1.0055
51079SOL    HW259843   6.471   8.690   0.718  1.5221  1.4710 -0.2617
51080SOL     OW59844  10.015  11.557  12.630  0.0037 -0.8761  0.1808
51080SOL    HW159845  10.105  11.589  12.623 -0.2784 -0.4089 -2.3979
51080SOL    HW259846   9.974  11.616  12.693  0.6584  1.0996 -1.1340
51081SOL     OW59847   6.066   0.628   4.042  0.4517 -0.1684 -0.0777
51081SOL    HW159848   6.075   0.547   3.992  0.1860 -0.0321 -0.3470
51081SOL    HW259849   6.101   0.607   4.129  0.5783 -0.5093 -0.2124
51082SOL     OW59850  11.609   9.748   4.457 -0.1474  0.1027 -0.5365
51082SOL    HW159851  11.563   9.831   4.444 -0.9255 -0.2347 -0.0326
51082SOL    HW259852  11.597   9.701   4.375  1.3970  0.9786 -1.3143
51083SOL     OW59853   5.410   4.858  12.102 -0.1438 -0.3497 -0.5810
51083SOL    HW159854   5.444   4.945  12.085  1.0125 -0.8673 -0.9810
51083SOL    HW259855   5.477   4.798  12.070 -0.8744 -1.3966 -0.2395
51084SOL     OW59856  11.462   0.348  12.204 -0.0681  0.5809  0.0014
51084SOL    HW159857  11.448   0.436  12.168  2.8870  0.8589 -0.7747
51084SOL    HW259858  11.475   0.293  12.127  2.9652  0.5078  0.4564
51085SOL     OW59859  10.637   6.425   2.186 -0.0167 -0.3351 -0.7959
51085SOL    HW159860  10.655   6.383   2.270  0.0364 -1.2127 -1.2412
51085SOL    HW259861  10.582   6.363   2.139 -0.5429  0.4086 -1.1865
51086SOL     OW59862  11.008   0.935  10.214  0.0679 -0.1624  0.6090
51086SOL    HW159863  11.020   0.850  10.256 -1.7835 -2.1110 -2.4268
51086SOL    HW259864  11.065   0.933  10.138 -0.8539  0.8032 -0.1432
51087SOL     OW59865  11.863   7.405   2.591 -0.5777  0.2419  0.2584
51087SOL    HW159866  11.861   7.495   2.556 -2.4920 -0.4248 -1.5471
51087SOL    HW259867  11.945   7.401   2.640 -0.8148  3.2320  1.1558
51088SOL     OW59868  11.657   7.782  11.019 -0.3860  0.1635 -0.1512
51088SOL    HW159869  11.726   7.794  10.954  1.0688  1.5384  1.5662
51088SOL    HW259870  11.620   7.869  11.031 -1.1846 -0.2249  0.3099
51089SOL     OW59871  11.192  10.189  11.191 -0.1223 -0.2718  0.4831
51089SOL    HW159872  11.248  10.111  11.184  0.7972  0.2977  1.1501
51089SOL    HW259873  11.227  10.235  11.268 -1.2118  0.3550  0.6115
51090SOL     OW59874   3.616   9.725   1.289 -0.3244  0.3896 -0.4336
51090SOL    HW159875   3.535   9.729   1.341  0.6881  0.3933  1.2124
51090SOL    HW259876   3.601   9.787   1.218 -1.9630  0.0299 -0.4539
51091SOL     OW59877  12.569  10.483   2.788 -0.2102 -0.3104 -0.6006
51091SOL    HW159878  12.637  10.416   2.784 -0.6842 -0.9050  0.7593
51091SOL    HW259879  12.615  10.565   2.767  0.8472 -0.7593 -0.1175
51092SOL     OW59880   6.469   7.153   8.141  0.5186 -0.0059 -0.3624
51092SOL    HW159881   6.418   7.230   8.115 -0.8277 -1.0836 -1.0095
51092SOL    HW259882   6.559   7.186   8.147 -0.0300  1.6419 -0.4903
51093SOL     OW59883   5.158   8.025   6.313 -0.8081 -0.5421  0.5822
51093SOL    HW159884   5.099   8.036   6.388 -1.8137  1.4854 -0.4218
51093SOL    HW259885   5.246   8.024   6.351 -1.3448 -0.9470  1.8752
51094SOL     OW59886   5.715   9.860   0.690 -0.0111 -0.0976  0.5693
51094SOL    HW159887   5.695   9.794   0.623  0.1711  0.4004  0.0222
51094SOL    HW259888   5.639   9.918   0.689  0.7713  0.9490 -0.4768
51095SOL     OW59889   2.151   3.187  10.188 -0.1932 -0.4094 -0.5465
51095SOL    HW159890   2.080   3.128  10.216 -1.2081  0.7191 -0.6577
51095SOL    HW259891   2.114   3.275  10.197  1.3802  0.2426 -0.1204
51096SOL     OW59892   4.549   6.472   3.922 -0.0143 -0.5305  0.0425
51096SOL    HW159893   4.566   6.396   3.978  0.6655 -1.4248 -1.3414
51096SOL    HW259894   4.593   6.545   3.967  0.3941 -1.1883  0.7360
51097SOL     OW59895   1.620   1.113   8.437 -0.7064  0.5444 -0.1304
51097SOL    HW159896   1.647   1.080   8.522 -2.9692  1.5903  1.1029
51097SOL    HW259897   1.664   1.057   8.373 -0.8234 -1.8246  1.7520
51098SOL     OW59898  11.013   9.485   8.302 -0.0843  0.0346 -0.2973
51098SOL    HW159899  11.052   9.425   8.239 -1.5871 -1.7791  0.4330
51098SOL    HW259900  10.985   9.560   8.249 -1.0207 -1.2954 -1.7644
51099SOL     OW59901   6.097   4.374   9.680  0.1273 -0.0982  0.0015
51099SOL    HW159902   6.120   4.316   9.754  0.7728  1.6872  1.2778
51099SOL    HW259903   6.049   4.446   9.721  1.1281  1.3041 -1.2175
51100SOL     OW59904   6.910  11.882  12.468  0.0979 -0.2838 -0.1979
51100SOL    HW159905   6.943  11.867  12.557  2.5682 -1.6211 -1.2332
51100SOL    HW259906   6.901  11.795  12.431 -1.1341  0.2472 -1.1978
51101SOL     OW59907   6.910   5.034  10.718 -0.1894 -0.5485  0.0070
51101SOL    HW159908   6.821   5.017  10.749 -1.9834  3.4489 -2.1659
51101SOL    HW259909   6.952   5.078  10.791 -0.6808 -0.7380  0.4112
51102SOL     OW59910   3.650   9.826   9.652 -0.0051  0.8245 -0.2647
51102SOL    HW159911   3.570   9.835   9.702  0.5212  1.9995  0.4135
51102SOL    HW259912   3.648   9.899   9.590  0.0340  0.2314 -0.9779
51103SOL     OW59913   0.761  11.818   2.667 -0.7286  0.0842 -0.3256
51103SOL    HW159914   0.788  11.789   2.580 -0.1325 -1.2770  0.2794
51103SOL    HW259915   0.839  11.857   2.705 -0.9871  0.6738 -0.3964
51104SOL     OW59916   3.433   9.161   8.772  0.1532 -0.6833 -0.0554
51104SOL    HW159917   3.366   9.137   8.836 -0.1966 -1.0117 -0.5392
51104SOL    HW259918   3.514   9.168   8.823 -0.8324  3.5507  1.3193
51105SOL     OW59919   3.184   2.497  11.311 -0.0153  0.3991  0.1125
51105SOL    HW159920   3.198   2.408  11.344  0.7235  0.5298  0.1844
51105SOL    HW259921   3.136   2.485  11.229  0.9596 -0.1518 -0.4030
51106SOL     OW59922   2.197   3.556   6.623  0.0109  0.5407 -0.0362
51106SOL    HW159923   2.264   3.585   6.562 -0.9389  2.2657 -0.3288
51106SOL    HW259924   2.121   3.611   6.603 -2.6144 -3.1884 -1.7711
51107SOL     OW59925  10.948  12.120  12.200  0.1634 -0.2245  0.6504
51107SOL    HW159926  11.031  12.111  12.246  1.8140 -0.2617 -2.1078
51107SOL    HW259927  10.944  12.212  12.176  0.5792 -0.6402 -1.1599
51108SOL     OW59928   6.599   0.426  12.769 -0.3222 -0.4789 -0.0699
51108SOL    HW159929   6.552   0.387  12.695 -1.8121 -0.2196  0.7150
51108SOL    HW259930   6.538   0.488  12.807  0.8318  0.2037  0.7248
51109SOL     OW59931   0.458   9.062   3.098 -0.7118 -0.1216  0.0323
51109SOL    HW159932   0.375   9.050   3.146 -1.1249  0.1010 -0.6167
51109SOL    HW259933   0.478   9.155   3.111 -0.0308 -0.3885  1.0224
51110SOL     OW59934   8.245   9.472   9.935  0.6408 -0.2453 -0.1051
51110SOL    HW159935   8.176   9.436   9.879  0.3447  2.1366 -1.4076
51110SOL    HW259936   8.326   9.434   9.901  0.3115 -0.0534 -1.1540
51111SOL     OW59937   3.119   5.595   2.211  0.0163 -0.9634 -0.6298
51111SOL    HW159938   3.152   5.586   2.121 -0.4507 -2.4322 -0.6789
51111SOL    HW259939   3.040   5.648   2.203  1.2294  0.9109 -0.7626
51112SOL     OW59940  12.590   0.911   5.636 -0.3816  0.2239 -0.1429
51112SOL    HW159941  12.575   1.006   5.640 -1.9605  0.0879 -1.6239
51112SOL    HW259942  12.666   0.901   5.580  1.8996  0.6876  2.6485
51113SOL     OW59943   5.423   3.675   8.415 -0.4415 -0.2671 -0.1169
51113SOL    HW159944   5.475   3.635   8.345  1.1184  0.7985  0.3889
51113SOL    HW259945   5.399   3.601   8.472  0.2679 -0.8206 -0.5257
51114SOL     OW59946   4.833   0.147   2.971  0.3836 -0.3316  0.1594
51114SOL    HW159947   4.808   0.130   3.062 -0.1844  2.1711  0.5630
51114SOL    HW259948   4.780   0.087   2.920 -0.5064 -0.6610  1.4141
51115SOL     OW59949   6.985   5.670   4.195 -0.4469  0.3382  0.2564
51115SOL    HW159950   7.023   5.621   4.268 -1.0177 -0.8923 -0.2410
51115SOL    HW259951   7.020   5.628   4.117 -2.6854 -0.7899 -0.2133
51116SOL     OW59952   1.058   1.903   3.557  0.0889  0.0129 -0.0709
51116SOL    HW159953   1.047   1.993   3.527  0.2837 -0.1202 -0.5380
51116SOL    HW259954   1.130   1.907   3.620 -0.2926  0.2823  0.3557
51117SOL     OW59955   1.765   3.750   1.241 -0.5924 -0.4229 -0.3413
51117SOL    HW159956   1.781   3.692   1.316  0.0204  0.1760 -0.0017
51117SOL    HW259957   1.851   3.788   1.221 -1.0592  0.6861 -0.2961
51118SOL     OW59958   0.945   2.744   9.602  0.2308  0.1093 -0.5752
51118SOL    HW159959   0.950   2.665   9.549 -0.2677  0.0694 -0.5699
51118SOL    HW259960   0.996   2.809   9.554  0.2192 -0.0713 -0.8338
51119SOL     OW59961   0.085   3.832  10.627  0.6311  0.3555  0.0917
51119SOL    HW159962   0.144   3.822  10.552  0.3244 -0.0759 -0.0942
51119SOL    HW259963   0.019   3.764  10.615  0.0268  0.9107  0.2356
51120SOL     OW59964  12.479   5.428  11.511  0.1062 -0.7127  0.3742
51120SOL    HW159965  12.477   5.431  11.607 -0.5405 -0.4969  0.3620
51120SOL    HW259966  12.393   5.393  11.487 -0.6813  1.4342 -0.1883
51121SOL     OW59967   5.433   2.350   7.735  0.1788  0.0591  0.1321
51121SOL    HW159968   5.343   2.321   7.751 -0.0410  0.2494 -0.7030
51121SOL    HW259969   5.440   2.434   7.780 -0.0753  0.0706  0.1501
51122SOL     OW59970   5.279  10.066   6.021 -0.4438 -0.1148 -0.5625
51122SOL    HW159971   5.232  10.028   6.095  1.2901 -1.1004  0.0767
51122SOL    HW259972   5.314  10.148   6.054  2.0345 -1.4697  0.4520
51123SOL     OW59973   8.600   6.136   1.952 -0.2118 -0.0013 -0.0078
51123SOL    HW159974   8.602   6.188   2.033 -0.2359  0.1095 -0.0783
51123SOL    HW259975   8.507   6.126   1.932 -0.2210 -0.4201  0.2287
51124SOL     OW59976  11.624   9.503   4.284  0.0729  0.0030 -0.0284
51124SOL    HW159977  11.600   9.434   4.346 -3.9209  1.1959  0.0345
51124SOL    HW259978  11.615   9.463   4.198  0.6601 -0.3169  0.0566
51125SOL     OW59979  12.664   3.366   8.250 -0.1187  0.9310 -0.6461
51125SOL    HW159980  12.601   3.428   8.216 -0.8096  0.7465  0.2558
51125SOL    HW259981  12.659   3.375   8.345  0.8416  0.5450 -0.5366
51126SOL     OW59982   4.985  12.301   3.918  0.1739  0.1132  0.4439
51126SOL    HW159983   5.040  12.366   3.874  1.4974 -0.7174  0.7946
51126SOL    HW259984   4.995  12.321   4.011 -1.1484  0.7268  0.4777
51127SOL     OW59985   2.598   1.286   3.548 -0.5698 -0.0950 -0.0408
51127SOL    HW159986   2.531   1.303   3.614  0.2011 -2.5621  1.5451
51127SOL    HW259987   2.607   1.191   3.548  2.0474  0.0684 -1.0650
51128SOL     OW59988   3.717   9.756   5.949 -0.5656  0.2953  0.0571
51128SOL    HW159989   3.728   9.723   5.860  1.7384  0.6167  0.1689
51128SOL    HW259990   3.786   9.713   5.999 -0.1612  2.0833  1.1085
51129SOL     OW59991   4.735  10.685   1.892  0.3121 -0.2986  0.2307
51129SOL    HW159992   4.695  10.645   1.969  1.1461 -1.3755  0.1259
51129SOL    HW259993   4.661  10.709   1.836 -0.2364 -1.1440  0.5744
51130SOL     OW59994   1.193   3.128   2.317 -0.1402  0.3752  0.3094
51130SOL    HW159995   1.212   3.035   2.329  0.0314  0.0515 -2.0193
51130SOL    HW259996   1.273   3.165   2.281 -0.2713  1.4029  1.0382
51131SOL     OW59997   7.601   1.160   7.945  0.0043 -0.0716 -0.3040
51131SOL    HW159998   7.575   1.247   7.914 -1.0648  0.4386  1.8092
51131SOL    HW259999   7.674   1.135   7.888  1.6518  3.0375  0.2074
51132SOL     OW60000   9.046   4.028   0.970 -0.1972 -0.7505 -0.2876
51132SOL    HW160001   8.997   3.954   1.006 -1.2336 -0.8989 -1.8678
51132SOL    HW260002   8.997   4.053   0.891 -1.0511  2.9350  1.2103
51133SOL     OW60003   7.616   5.620   3.123  0.0967  0.0729 -0.1042
51133SOL    HW160004   7.586   5.532   3.147  0.6268 -0.9192 -2.7975
51133SOL    HW260005   7.539   5.663   3.088  0.3518 -0.1912 -1.0126
51134SOL     OW60006   4.023   0.744   7.725  0.4761 -0.3353 -0.0599
51134SOL    HW160007   4.019   0.837   7.701  0.7607  0.4179  2.5361
51134SOL    HW260008   4.094   0.709   7.672  0.5581  0.9885 -0.8774
51135SOL     OW60009   6.217   8.316   6.060 -0.6602 -0.2572 -0.4215
51135SOL    HW160010   6.152   8.386   6.067 -1.9309 -1.2635 -1.4622
51135SOL    HW260011   6.271   8.339   5.985 -0.4324  0.1024 -0.1484
51136SOL     OW60012   3.510   3.667   4.619  0.3882  0.4671 -0.6328
51136SOL    HW160013   3.556   3.689   4.538  2.8513  2.5994  1.1620
51136SOL    HW260014   3.539   3.578   4.640 -0.3031 -0.1217 -2.0280
51137SOL     OW60015   3.036   2.846   3.627  0.4937 -0.4035  0.6140
51137SOL    HW160016   3.068   2.914   3.687  0.4076 -0.6751  0.9751
51137SOL    HW260017   2.979   2.892   3.566 -0.0620 -0.2504  1.2444
51138SOL     OW60018   3.325   1.128   7.215  0.2378 -0.8135 -0.3150
51138SOL    HW160019   3.287   1.212   7.240  2.5064 -0.6022  3.1546
51138SOL    HW260020   3.278   1.064   7.267 -0.7008 -1.6577 -2.0976
51139SOL     OW60021   6.167   7.503   6.404  0.2114 -0.2321  0.0840
51139SOL    HW160022   6.083   7.472   6.370  1.3383 -1.1476 -2.0398
51139SOL    HW260023   6.197   7.433   6.461  0.2938 -0.6683 -0.4874
51140SOL     OW60024   4.650   9.842   1.756 -0.5949  0.0540  0.2775
51140SOL    HW160025   4.554   9.842   1.760 -0.5875  1.9191  2.7160
51140SOL    HW260026   4.677   9.779   1.823 -0.0983  0.5502  0.5451
51141SOL     OW60027   6.278   6.627   0.450  0.2536  0.5392  0.4664
51141SOL    HW160028   6.208   6.606   0.512  0.9658 -0.9548  0.8246
51141SOL    HW260029   6.234   6.675   0.379 -1.0181  0.1345  0.9467
51142SOL     OW60030   2.632   8.784   1.979 -0.1698 -0.2194  0.3746
51142SOL    HW160031   2.567   8.825   2.036  0.3066  1.7027 -0.3624
51142SOL    HW260032   2.709   8.841   1.987  0.6153 -1.1149 -0.5499
51143SOL     OW60033   7.272   0.642   8.666 -0.1492  0.3867  0.0346
51143SOL    HW160034   7.261   0.688   8.583  1.5225  1.1326  0.2007
51143SOL    HW260035   7.188   0.653   8.710 -0.7285  0.8214 -1.1310
51144SOL     OW60036   7.266   3.817  10.171  0.0160 -0.4845 -0.1236
51144SOL    HW160037   7.341   3.758  10.167  0.8808  0.5527  0.3018
51144SOL    HW260038   7.250   3.842  10.080  0.2769 -0.5921 -0.1990
51145SOL     OW60039   7.823   9.753   0.544 -0.1784 -0.3883  0.1196
51145SOL    HW160040   7.798   9.780   0.632  1.5643  0.9952  0.2455
51145SOL    HW260041   7.905   9.705   0.554 -1.2397 -2.4819 -0.5432
51146SOL     OW60042  11.135   7.586   4.962  0.1323 -0.4723  0.0557
51146SOL    HW160043  11.088   7.602   5.044 -0.9909  1.9431 -0.9318
51146SOL    HW260044  11.067   7.554   4.902 -0.2416  2.2390 -1.1479
51147SOL     OW60045   6.660   2.915   8.702  1.2036 -0.7567 -0.1419
51147SOL    HW160046   6.717   2.882   8.772  2.0131  0.0475 -0.3891
51147SOL    HW260047   6.627   2.837   8.658  0.6069 -1.2740  1.1920
51148SOL     OW60048   3.019   4.240   6.017 -0.0332 -0.0970 -0.2536
51148SOL    HW160049   2.924   4.240   6.030  0.1615  1.9207  2.1692
51148SOL    HW260050   3.053   4.189   6.090  0.7632 -0.2320 -0.7107
51149SOL     OW60051   5.520   1.761   1.599  0.2370 -0.4815 -0.2973
51149SOL    HW160052   5.478   1.677   1.581 -0.7705 -0.5866  2.1781
51149SOL    HW260053   5.608   1.738   1.626  0.3531 -0.6329 -0.7868
51150SOL     OW60054  11.548   0.409   6.000 -0.0077 -0.3532 -0.4412
51150SOL    HW160055  11.638   0.420   6.030  0.0969 -1.6386 -0.2134
51150SOL    HW260056  11.555   0.400   5.905  0.1660 -0.9494 -0.3750
51151SOL     OW60057   6.109  11.632   9.130 -0.1235  0.0037 -0.0350
51151SOL    HW160058   6.168  11.662   9.199 -2.5472  1.4597  1.5692
51151SOL    HW260059   6.101  11.538   9.145  2.7078 -0.5067 -1.1527
51152SOL     OW60060   8.331   1.671  11.324  0.0774 -0.2742 -0.1229
51152SOL    HW160061   8.310   1.609  11.394 -0.7104 -1.4261 -1.3224
51152SOL    HW260062   8.361   1.616  11.251 -0.9407  0.7001 -1.3314
51153SOL     OW60063   5.888  12.136   6.841 -0.2695 -0.1417 -0.3567
51153SOL    HW160064   5.795  12.144   6.818 -0.5845  1.8612  1.3018
51153SOL    HW260065   5.892  12.163   6.933  1.8380 -1.1494 -0.0911
51154SOL     OW60066   6.279   0.672   7.556 -0.6483  0.0086 -0.4531
51154SOL    HW160067   6.219   0.738   7.591 -0.5852  0.0865 -0.4900
51154SOL    HW260068   6.345   0.661   7.625 -0.5894  0.0761 -0.4975
51155SOL     OW60069   0.814   8.163   5.200  0.3013 -0.2412  0.0330
51155SOL    HW160070   0.738   8.189   5.252  0.0296 -0.8105 -0.0784
51155SOL    HW260071   0.817   8.067   5.208  2.6269 -0.1243  2.3961
51156SOL     OW60072  10.428   2.481   6.399  0.9366  0.0179  0.5137
51156SOL    HW160073  10.457   2.419   6.332 -0.2537  0.2127 -0.2088
51156SOL    HW260074  10.439   2.567   6.359  0.0439  0.1257  0.4731
51157SOL     OW60075   0.574   2.107   3.285 -0.7003 -0.1236  0.1753
51157SOL    HW160076   0.486   2.141   3.269 -0.2028  0.0389 -2.8191
51157SOL    HW260077   0.581   2.031   3.228  0.6917 -0.9441  1.3670
51158SOL     OW60078   0.288  12.538   4.485 -0.1452  0.1580 -0.0437
51158SOL    HW160079   0.353  12.547   4.416  0.0922 -1.6109 -0.1083
51158SOL    HW260080   0.319  12.596   4.555  0.3631  0.9071 -0.8597
51159SOL     OW60081   5.377   1.591   0.630  0.7972  0.1828  0.4864
51159SOL    HW160082   5.356   1.679   0.597  0.3927 -0.1991 -0.3201
51159SOL    HW260083   5.472   1.583   0.617  0.5040 -0.3923 -1.7900
51160SOL     OW60084   4.587   4.444  11.129 -0.2114 -0.4220 -0.6003
51160SOL    HW160085   4.627   4.530  11.138  1.2182 -1.1044 -0.0950
51160SOL    HW260086   4.535   4.449  11.049 -2.2717  1.6865  0.7345
51161SOL     OW60087   9.242  11.681  11.548  0.1007  0.4740 -0.2246
51161SOL    HW160088   9.262  11.755  11.490  0.7634  0.6261  0.1906
51161SOL    HW260089   9.161  11.643  11.512 -0.0523  1.1860 -0.6418
51162SOL     OW60090   7.438   0.681   6.729  0.1054  1.1955  0.1031
51162SOL    HW160091   7.350   0.666   6.694  0.8064  0.1194 -1.2954
51162SOL    HW260092   7.428   0.674   6.824 -0.9205 -1.4555 -0.1056
51163SOL     OW60093   5.797   6.516   0.967 -0.5008  0.2990  0.1062
51163SOL    HW160094   5.790   6.427   1.002 -2.0066 -0.0741 -1.0509
51163SOL    HW260095   5.741   6.569   1.023 -1.8151 -0.0420 -0.8270
51164SOL     OW60096   2.619   7.838   5.955  0.2519  0.2494  0.0847
51164SOL    HW160097   2.639   7.831   6.049  0.5628  0.1998  0.0151
51164SOL    HW260098   2.639   7.751   5.920  0.7289  0.4515 -0.1417
51165SOL     OW60099  12.619   1.301  11.885  0.8430  0.2326  0.9597
51165SOL    HW160100  12.607   1.393  11.860 -3.2035  0.1730  1.9427
51165SOL    HW260101  12.592   1.297  11.977  1.0126 -1.9498  0.9771
51166SOL     OW60102   4.032   5.725  10.335 -0.1243  0.1506  1.0077
51166SOL    HW160103   4.035   5.767  10.421 -3.2130 -0.0068  1.2916
51166SOL    HW260104   3.939   5.721  10.313  0.5802  0.5305 -2.5617
51167SOL     OW60105   8.370   5.613   5.301  0.1133 -0.7008  0.4559
51167SOL    HW160106   8.426   5.546   5.261 -1.7005 -1.8419 -0.3546
51167SOL    HW260107   8.314   5.642   5.228  1.7469  2.7814  0.4321
51168SOL     OW60108  10.816   9.202  11.983  0.1849 -0.0116  0.0863
51168SOL    HW160109  10.760   9.222  11.908  0.2718  1.4404  0.3790
51168SOL    HW260110  10.805   9.107  11.996 -0.7193 -0.0880 -1.0330
51169SOL     OW60111   7.630  10.529  11.750 -0.2682 -0.0937 -0.0084
51169SOL    HW160112   7.616  10.470  11.676 -0.4786 -0.3983  0.2717
51169SOL    HW260113   7.652  10.471  11.823 -1.9485  0.0349  0.6438
51170SOL     OW60114   9.499  10.531   3.814 -0.0703 -0.3906  0.4314
51170SOL    HW160115   9.509  10.624   3.793  2.0491 -0.2735  1.6569
51170SOL    HW260116   9.475  10.490   3.731  2.2252  0.8224 -0.9482
51171SOL     OW60117   1.021   9.446   0.269 -0.2025 -0.8972  0.2932
51171SOL    HW160118   1.012   9.526   0.218  0.7944 -1.6798 -1.2043
51171SOL    HW260119   0.946   9.392   0.243  0.2489 -1.2537 -0.3142
51172SOL     OW60120   1.125   2.537   6.842  0.4690 -0.2238 -0.9131
51172SOL    HW160121   1.205   2.496   6.876  1.1564  0.7663 -1.2844
51172SOL    HW260122   1.088   2.585   6.916 -0.4680 -1.6502 -0.4115
51173SOL     OW60123   5.526   2.890   0.445  0.2095 -0.7494  0.5905
51173SOL    HW160124   5.483   2.836   0.512 -0.0822 -0.3855  0.7016
51173SOL    HW260125   5.458   2.907   0.380  0.1168  0.0164  0.8797
51174SOL     OW60126   8.521  10.891   5.348 -0.3664  0.4095  0.4847
51174SOL    HW160127   8.610  10.888   5.312 -0.2723 -0.6126  0.7793
51174SOL    HW260128   8.471  10.830   5.293 -0.8092  0.7153  0.5422
51175SOL     OW60129   1.798   5.506   0.350  0.1291 -0.1985  0.1276
51175SOL    HW160130   1.849   5.425   0.344 -1.4124 -1.2634  0.9708
51175SOL    HW260131   1.755   5.513   0.265 -0.5819 -0.8421  0.4346
51176SOL     OW60132  11.633   8.598  11.776  0.2747 -0.2227  0.1127
51176SOL    HW160133  11.601   8.659  11.710  1.3466  0.3792  0.1181
51176SOL    HW260134  11.608   8.637  11.860  0.6141  0.0274  0.1035
51177SOL     OW60135   1.369   6.734   5.571  0.3944  0.1079 -0.3460
51177SOL    HW160136   1.379   6.820   5.614 -0.7691  0.3163 -0.4587
51177SOL    HW260137   1.459   6.705   5.555  0.8135  1.1498  0.0035
51178SOL     OW60138   3.302   0.588   7.636  0.2175  0.5125 -0.3013
51178SOL    HW160139   3.320   0.603   7.729 -1.1369 -0.7205  0.2057
51178SOL    HW260140   3.210   0.612   7.625  0.2606  0.2943 -1.2475
51179SOL     OW60141   7.249  10.744  12.257 -0.2927  0.1547  0.2365
51179SOL    HW160142   7.222  10.830  12.287 -0.7383  0.4829 -1.0563
51179SOL    HW260143   7.168  10.702  12.228 -0.1513 -0.8877  1.2753
51180SOL     OW60144   8.955  12.387   4.926 -0.3043  0.6246  0.0951
51180SOL    HW160145   8.969  12.373   5.020 -2.9265  0.9865  0.6019
51180SOL    HW260146   8.920  12.476   4.920 -0.3562  0.5371 -1.2262
51181SOL     OW60147   3.807   3.982   1.129 -0.1710  0.3532  0.2645
51181SOL    HW160148   3.898   3.990   1.103 -0.7334  0.8753 -1.7381
51181SOL    HW260149   3.762   4.052   1.081 -1.5183  0.6075  1.7985
51182SOL     OW60150   3.030   8.569   7.071 -0.5057  0.1379  0.1238
51182SOL    HW160151   3.054   8.647   7.121  0.8904 -0.2163  0.0522
51182SOL    HW260152   3.061   8.587   6.982 -1.2701 -0.0124 -0.1827
51183SOL     OW60153   3.750   7.006   6.616  0.3354 -0.0080 -0.5654
51183SOL    HW160154   3.690   7.024   6.543  2.2163  0.0804 -2.1529
51183SOL    HW260155   3.737   7.079   6.676  0.2712  1.0817 -1.8590
51184SOL     OW60156   4.419  11.670   6.502  0.0597  0.3002  0.2932
51184SOL    HW160157   4.419  11.729   6.427 -0.3305 -0.1357 -0.0584
51184SOL    HW260158   4.341  11.695   6.552 -0.5179 -0.3851 -0.2431
51185SOL     OW60159   1.375   4.100   2.902  0.7983  0.7098  0.6350
51185SOL    HW160160   1.368   4.015   2.947 -0.7052  1.0803  1.1471
51185SOL    HW260161   1.286   4.121   2.876  1.3495  1.5049 -0.7269
51186SOL     OW60162   4.369   5.906   2.186 -0.2242  0.3044 -0.0579
51186SOL    HW160163   4.370   5.821   2.230 -1.0028 -0.0476 -0.7042
51186SOL    HW260164   4.351   5.969   2.256  0.7162 -0.0168  0.4831
51187SOL     OW60165   5.145   8.042   1.019  0.4409  0.2446 -0.3715
51187SOL    HW160166   5.069   8.012   1.070 -0.1838  1.2891 -0.6477
51187SOL    HW260167   5.189   8.104   1.077  0.6882  0.1587 -0.4698
51188SOL     OW60168  11.161   1.915  11.660 -0.1771  0.1328  0.4834
51188SOL    HW160169  11.113   1.837  11.632 -1.2804  0.3912  1.5587
51188SOL    HW260170  11.106   1.988  11.634  0.6292  0.5504 -0.0906
51189SOL     OW60171   2.869  12.342   0.766 -0.1987  0.0767  0.0881
51189SOL    HW160172   2.783  12.346   0.723  0.8735  2.6459 -2.0500
51189SOL    HW260173   2.922  12.285   0.710  0.4020  1.1521 -0.4587
51190SOL     OW60174   1.561   2.484   2.740  0.2615 -0.0975  0.0914
51190SOL    HW160175   1.561   2.512   2.832 -1.7254 -1.0623  0.4445
51190SOL    HW260176   1.515   2.400   2.741  2.5299 -1.4397 -1.4726
51191SOL     OW60177   3.734   0.087   0.163 -0.5024 -0.0284 -0.1124
51191SOL    HW160178   3.689   0.114   0.084  1.8576  2.9021 -0.6411
51191SOL    HW260179   3.821   0.061   0.134  0.8780  2.3652  1.4954
51192SOL     OW60180   9.214   5.804   1.076 -0.0679  0.5225  0.1997
51192SOL    HW160181   9.295   5.823   1.029  0.0568 -1.8673 -0.7281
51192SOL    HW260182   9.145   5.846   1.025  0.3529  0.4021 -0.4698
51193SOL     OW60183   2.421  11.205   5.938 -0.0168 -0.3442 -0.3417
51193SOL    HW160184   2.436  11.206   6.032 -0.9810 -2.2906 -0.0994
51193SOL    HW260185   2.460  11.123   5.908 -0.2412 -0.0417 -1.5342
51194SOL     OW60186   7.168  11.220   7.222 -0.5308 -0.5090  0.1107
51194SOL    HW160187   7.194  11.217   7.314  0.4180  0.5664 -0.0968
51194SOL    HW260188   7.093  11.279   7.220 -0.9872 -1.0756  0.2778
51195SOL     OW60189   1.855   2.506   2.686  0.0092  0.2634 -0.0791
51195SOL    HW160190   1.764   2.484   2.663 -0.1890 -0.2087  1.1109
51195SOL    HW260191   1.853   2.522   2.780  1.0054  1.1040 -0.1830
51196SOL     OW60192   0.494   4.243   1.481 -0.1709  0.1328 -1.0775
51196SOL    HW160193   0.565   4.188   1.516 -1.2289 -0.0366  0.9052
51196SOL    HW260194   0.422   4.181   1.465 -1.1684  0.8069  0.6070
51197SOL     OW60195   9.616  12.541  11.895  0.0741 -0.3622  0.2821
51197SOL    HW160196   9.686  12.477  11.881 -1.2602 -1.9559  0.5840
51197SOL    HW260197   9.623  12.564  11.988  0.7993  0.2642  0.0846
51198SOL     OW60198   8.256  12.654  10.861 -0.5538  0.8529  0.4224
51198SOL    HW160199   8.267  12.570  10.904  2.4830  1.4341  1.0328
51198SOL    HW260200   8.275  12.719  10.929  0.2240  1.9135 -0.7487
51199SOL     OW60201  12.588   9.672   3.976  0.2769 -0.0553 -0.2153
51199SOL    HW160202  12.498   9.704   3.969 -0.1031 -1.0732 -0.1321
51199SOL    HW260203  12.620   9.672   3.886 -0.5743 -1.7867 -0.5613
51200SOL     OW60204   5.738   1.908   2.948  0.0905 -0.0902  0.2594
51200SOL    HW160205   5.778   1.956   2.876 -0.3168  1.6974  1.1556
51200SOL    HW260206   5.744   1.968   3.023  0.5815 -1.9077  1.7479
51201SOL     OW60207   0.325   5.246  11.121 -0.2014 -0.6910  0.3862
51201SOL    HW160208   0.315   5.254  11.026 -2.7548  1.5229  0.7131
51201SOL    HW260209   0.237   5.262  11.155  0.8421 -0.3872  3.2017
51202SOL     OW60210   5.682   5.657  10.986 -0.2449 -0.0173  0.7401
51202SOL    HW160211   5.599   5.612  11.001 -1.3537  1.8781  0.6439
51202SOL    HW260212   5.686   5.723  11.055  0.6218  0.6680  0.0597
51203SOL     OW60213   5.164   4.445   7.733  0.6001 -0.0994  0.2573
51203SOL    HW160214   5.110   4.397   7.795  0.6046  0.8575  1.0182
51203SOL    HW260215   5.182   4.382   7.663 -2.1378 -0.2374 -0.4138
51204SOL     OW60216  10.026   1.428   1.595  0.1568  0.2029 -1.1414
51204SOL    HW160217   9.956   1.378   1.554 -0.6302  0.2612  0.0724
51204SOL    HW260218  10.062   1.369   1.661 -1.3147  1.4215  0.8682
51205SOL     OW60219   8.250   2.056   5.091  0.4870 -0.2172 -0.2966
51205SOL    HW160220   8.285   2.142   5.114  0.6661 -0.6181  1.0159
51205SOL    HW260221   8.203   2.070   5.009  0.9202  1.0273 -0.3521
51206SOL     OW60222   8.412   5.742   3.926  0.8851  0.3119 -0.4212
51206SOL    HW160223   8.337   5.723   3.870  0.1595  1.5916  0.0561
51206SOL    HW260224   8.461   5.808   3.877  1.0735  0.3117 -0.2307
51207SOL     OW60225   1.595  10.283   8.904  0.4478 -0.1238 -0.2693
51207SOL    HW160226   1.522  10.325   8.949  1.0107  0.8895 -0.2722
51207SOL    HW260227   1.557  10.251   8.822 -0.2748 -0.7814  0.3065
51208SOL     OW60228  12.593   7.506  11.803 -0.7457 -0.1600 -0.5752
51208SOL    HW160229  12.591   7.425  11.853  0.7762 -0.0927 -0.3570
51208SOL    HW260230  12.518   7.556  11.835 -0.1542 -0.3606  1.2339
51209SOL     OW60231   8.137   6.381   1.929 -0.4800  0.3549  0.6819
51209SOL    HW160232   8.140   6.435   1.850  2.4926  0.5641  0.8220
51209SOL    HW260233   8.084   6.431   1.990 -2.3323  0.4751 -0.9126
51210SOL     OW60234   2.950  12.509   2.592  0.6072 -0.4203  0.7891
51210SOL    HW160235   3.032  12.464   2.571  1.7826  1.7798  0.2720
51210SOL    HW260236   2.963  12.541   2.682 -1.2823 -3.1885  2.2104
51211SOL     OW60237   9.637   1.829  11.542 -0.1106 -0.4258 -0.4612
51211SOL    HW160238   9.715   1.883  11.551 -0.6873  0.3167  0.1724
51211SOL    HW260239   9.587   1.871  11.472 -1.7385  1.3821  1.6613
51212SOL     OW60240   0.132   4.912   7.992 -0.0057  0.4774  0.5877
51212SOL    HW160241   0.180   4.865   8.060 -0.4735  0.8653  1.2085
51212SOL    HW260242   0.148   5.005   8.011 -0.5373  0.6004  0.4726
51213SOL     OW60243   5.565   8.114   8.640 -0.1529 -0.2593 -0.5624
51213SOL    HW160244   5.593   8.077   8.724 -0.7653 -1.5313 -0.8928
51213SOL    HW260245   5.646   8.139   8.596  0.1365  2.4688  1.2463
51214SOL     OW60246   1.048   0.408   3.323  0.7050  0.0864 -0.0403
51214SOL    HW160247   1.060   0.495   3.286 -1.1194  0.8990  1.1698
51214SOL    HW260248   1.091   0.412   3.409  1.9832 -0.7306 -0.6127
51215SOL     OW60249   0.422  11.509   3.753 -0.2729  0.2858  0.2966
51215SOL    HW160250   0.390  11.595   3.778 -1.2929  0.2270 -0.6911
51215SOL    HW260251   0.476  11.525   3.676  0.7248  0.1901  0.9632
51216SOL     OW60252   1.183   5.066   1.318 -0.1082 -0.2551  0.4087
51216SOL    HW160253   1.198   5.154   1.283 -2.4177  0.3796  0.8239
51216SOL    HW260254   1.174   5.011   1.241  2.4476 -0.4158  0.1398
51217SOL     OW60255   7.111   8.522   9.899 -0.6771 -0.1024 -0.1255
51217SOL    HW160256   7.203   8.544   9.890 -0.6887  0.5547  1.0960
51217SOL    HW260257   7.079   8.579   9.969 -1.6709 -1.2904  0.4437
51218SOL     OW60258   5.968   8.585   5.564  0.2136 -0.0622 -0.1935
51218SOL    HW160259   5.963   8.577   5.469  2.3085 -0.7322 -0.2888
51218SOL    HW260260   5.879   8.566   5.594 -0.7889  1.3571 -2.0494
51219SOL     OW60261   9.493   6.580   1.676 -0.0057 -0.1626 -0.3693
51219SOL    HW160262   9.463   6.530   1.751 -0.0146  0.0438 -0.2342
51219SOL    HW260263   9.586   6.559   1.669 -0.3038 -1.2970 -1.1761
51220SOL     OW60264  11.798  10.439  11.781 -0.3248  0.2406 -0.0621
51220SOL    HW160265  11.793  10.519  11.728  1.4844 -0.4918 -1.4344
51220SOL    HW260266  11.765  10.370  11.724  0.2688 -0.3491  0.3032
51221SOL     OW60267   1.435   5.965   0.249 -0.0444 -0.8218  0.6355
51221SOL    HW160268   1.379   6.042   0.248  0.3014 -0.5563 -0.2735
51221SOL    HW260269   1.427   5.929   0.337  0.5436  0.8108  1.4054
51222SOL     OW60270   5.485   8.014  12.352 -0.1918  0.2524 -0.1000
51222SOL    HW160271   5.446   8.071  12.418  1.2576  2.1427 -0.7819
51222SOL    HW260272   5.571   7.991  12.388 -0.4769 -0.9614 -0.1523
51223SOL     OW60273   4.074   2.723   0.798  0.1536  0.0246 -0.0511
51223SOL    HW160274   4.093   2.644   0.848  1.1707 -0.2733 -0.8671
51223SOL    HW260275   4.100   2.702   0.708 -0.6007  0.9137 -0.5001
51224SOL     OW60276   4.382   6.469   9.623 -0.0432  0.2945 -0.2098
51224SOL    HW160277   4.385   6.390   9.569  1.7113 -0.2341  0.5725
51224SOL    HW260278   4.473   6.481   9.653 -0.7475  1.1550  1.7485
51225SOL     OW60279   7.349   1.355   0.576  0.2840 -0.9940 -0.1799
51225SOL    HW160280   7.380   1.296   0.508 -0.8785  0.6692 -2.2952
51225SOL    HW260281   7.254   1.344   0.576  0.2279 -0.6760  0.9094
51226SOL     OW60282   6.592   9.604   1.705 -0.1335  0.2577 -0.1510
51226SOL    HW160283   6.607   9.517   1.742 -0.6257  0.1245 -0.2637
51226SOL    HW260284   6.680   9.640   1.692  0.0572  0.0141  0.4585
51227SOL     OW60285   6.226   7.241   2.796 -0.2483 -0.2924  0.1102
51227SOL    HW160286   6.249   7.333   2.792 -0.6469 -0.2279 -1.5465
51227SOL    HW260287   6.310   7.195   2.801  0.1424  0.0831 -1.9788
51228SOL     OW60288   4.563   0.504   7.687  0.3549  0.2220 -0.0760
51228SOL    HW160289   4.650   0.480   7.655  0.3859 -0.9000  0.7654
51228SOL    HW260290   4.503   0.445   7.641  0.3480 -0.9982  1.3770
51229SOL     OW60291   7.652   0.699   3.259 -0.2254  0.0727 -0.0698
51229SOL    HW160292   7.594   0.760   3.305 -1.2152 -0.6681 -0.2890
51229SOL    HW260293   7.594   0.654   3.197  0.4582 -1.1375  0.1410
51230SOL     OW60294   6.653   7.974   6.263  0.6274  0.3499  0.2953
51230SOL    HW160295   6.572   7.923   6.260  0.2226  0.9918  0.2416
51230SOL    HW260296   6.640   8.044   6.199  1.9730 -0.6317 -1.1428
51231SOL     OW60297   0.006   3.959   4.241 -0.0052 -0.7043  0.0024
51231SOL    HW160298   0.001   4.032   4.178  0.9248  0.2530  0.9806
51231SOL    HW260299  -0.085   3.933   4.255 -0.3021 -0.2292 -0.9358
51232SOL     OW60300   0.906   1.979  12.626 -0.3025  0.6246  0.3901
51232SOL    HW160301   0.919   2.068  12.659  0.5497  0.7294 -0.2162
51232SOL    HW260302   0.932   1.983  12.534  1.2646 -0.6055  0.7418
51233SOL     OW60303   9.295  10.254   3.386 -0.1127  0.0764  0.2075
51233SOL    HW160304   9.251  10.337   3.367  0.9780  0.8114  0.8213
51233SOL    HW260305   9.375  10.257   3.334 -0.0018 -0.5493  0.3279
51234SOL     OW60306   9.092  11.293  10.757  0.8068 -0.6975 -0.5727
51234SOL    HW160307   9.056  11.218  10.804  0.5995 -0.1236  0.2094
51234SOL    HW260308   9.137  11.344  10.824 -0.3454  0.6687 -0.7911
51235SOL     OW60309  12.523  11.769   6.318 -0.5022  0.6656 -0.0219
51235SOL    HW160310  12.496  11.741   6.405  1.2309  0.7176  0.5678
51235SOL    HW260311  12.573  11.848   6.332  1.2011 -0.2048 -0.8628
51236SOL     OW60312   9.103  11.877  11.162 -0.3497 -0.3923  0.1920
51236SOL    HW160313   9.061  11.802  11.204  0.0834 -1.0556 -0.5295
51236SOL    HW260314   9.183  11.841  11.123  2.0272  1.1771  3.2223
51237SOL     OW60315  10.541  10.952   9.362 -0.4091 -0.0260  0.0465
51237SOL    HW160316  10.626  10.953   9.318 -0.3041  2.0903  0.1927
51237SOL    HW260317  10.495  11.028   9.327 -1.6650 -0.2715  1.0925
51238SOL     OW60318   7.121  12.059  12.299  0.5687 -0.1145 -0.2188
51238SOL    HW160319   7.086  12.002  12.230  0.0466 -1.3821  1.0350
51238SOL    HW260320   7.049  12.119  12.318  0.7082  0.2292 -0.7595
51239SOL     OW60321  10.639   2.117  11.273  0.0962 -0.2811 -0.3901
51239SOL    HW160322  10.708   2.171  11.312  1.0296 -1.2736 -0.6278
51239SOL    HW260323  10.564   2.176  11.266  0.4232  0.3810  1.3266
51240SOL     OW60324   0.466   6.362   3.641  0.6209  0.1068  0.0739
51240SOL    HW160325   0.394   6.301   3.627  0.3432  0.9665 -2.6303
51240SOL    HW260326   0.435   6.421   3.710 -1.9524  1.4121 -2.0576
51241SOL     OW60327  11.885  11.426   6.379 -0.1202 -0.8207  0.0225
51241SOL    HW160328  11.968  11.462   6.348 -0.0505 -2.1979 -1.5171
51241SOL    HW260329  11.902  11.402   6.470  0.8466 -0.1614  0.0352
51242SOL     OW60330   9.864   5.495   9.616  0.1623 -0.2499 -0.2627
51242SOL    HW160331   9.959   5.490   9.609  0.1323 -0.1142 -0.8101
51242SOL    HW260332   9.840   5.415   9.663  0.5477 -0.2776 -0.1076
51243SOL     OW60333   7.891   6.485   9.340 -0.0262  0.4183  0.4289
51243SOL    HW160334   7.921   6.523   9.258 -1.0077  1.5751  0.5772
51243SOL    HW260335   7.796   6.489   9.335 -0.1534 -1.2904  0.8181
51244SOL     OW60336   0.883  10.373   7.826 -0.4849 -0.4259 -0.0358
51244SOL    HW160337   0.913  10.349   7.914 -0.7949 -1.6515 -0.2472
51244SOL    HW260338   0.946  10.439   7.797  1.0901 -1.7784  0.1578
51245SOL     OW60339  10.346   3.801   3.265 -0.4614  0.0906  0.3078
51245SOL    HW160340  10.406   3.751   3.210  0.3888 -0.1755  1.4323
51245SOL    HW260341  10.267   3.810   3.213  1.3365  2.6233 -2.3373
51246SOL     OW60342   2.985   0.529   5.184  0.4192  0.1208 -0.1187
51246SOL    HW160343   2.896   0.498   5.203  0.2729 -0.1354 -1.1601
51246SOL    HW260344   3.041   0.484   5.247 -0.0062 -0.9414 -0.4869
51247SOL     OW60345   1.769   7.823   5.496 -0.1089  0.1320  0.0047
51247SOL    HW160346   1.852   7.784   5.468  0.2931  1.3108 -0.4843
51247SOL    HW260347   1.742   7.879   5.423 -1.0418  0.2163  0.3986
51248SOL     OW60348   4.314   4.752   2.984 -0.8351 -0.0993  0.3184
51248SOL    HW160349   4.374   4.787   3.050 -1.9829 -1.9933  2.5259
51248SOL    HW260350   4.227   4.772   3.017 -1.4670 -2.0829  0.0322
51249SOL     OW60351   4.400  12.633   7.822  0.0391  0.0605 -0.5100
51249SOL    HW160352   4.466  12.617   7.889 -0.6466 -0.4269  0.0572
51249SOL    HW260353   4.451  12.650   7.742  0.8752 -2.0792 -0.5054
51250SOL     OW60354  11.963  11.697  12.157  0.0506 -0.2727 -0.4955
51250SOL    HW160355  12.039  11.722  12.104 -0.2512  0.3297 -0.6459
51250SOL    HW260356  11.942  11.608  12.128 -0.3784  0.2025 -1.7172
51251SOL     OW60357   0.983  10.715  11.415  0.3479  0.3137  0.5730
51251SOL    HW160358   1.042  10.769  11.363  1.8070 -0.1029  1.7185
51251SOL    HW260359   0.918  10.776  11.450 -0.1695  0.7230 -1.0084
51252SOL     OW60360   0.292  10.959   4.074  0.0975 -0.2228 -0.4759
51252SOL    HW160361   0.250  10.942   4.159 -1.6020  2.1866 -0.7260
51252SOL    HW260362   0.233  10.922   4.010  0.6460 -0.7539 -0.6836
51253SOL     OW60363   5.275   6.120  10.017 -0.0906  0.6624 -0.2383
51253SOL    HW160364   5.297   6.036   9.977  2.7045  0.5835  1.1744
51253SOL    HW260365   5.180   6.128  10.008 -0.0933 -1.2664 -2.9649
51254SOL     OW60366   6.939   8.567   5.191  0.5954  0.0693  0.1422
51254SOL    HW160367   6.987   8.650   5.194 -0.8749  0.9971 -0.5012
51254SOL    HW260368   6.988   8.512   5.130  1.4772  0.5396  0.4166
51255SOL     OW60369   0.139   0.341   2.200  0.5948  0.4167 -0.7872
51255SOL    HW160370   0.169   0.417   2.151  0.1604 -0.0996 -1.8712
51255SOL    HW260371   0.048   0.329   2.175  1.0687 -1.3828 -1.8764
51256SOL     OW60372   1.771   1.781   3.614  0.6198 -0.3142  0.0025
51256SOL    HW160373   1.790   1.701   3.664 -0.6914  0.6630  2.2108
51256SOL    HW260374   1.712   1.753   3.545 -0.0925 -1.2256  0.9527
51257SOL     OW60375   5.956   1.201   3.360  0.0999 -0.2059 -0.3852
51257SOL    HW160376   5.865   1.185   3.386 -0.3245 -0.2247 -1.8181
51257SOL    HW260377   5.955   1.290   3.323  1.0282  0.4793  1.1321
51258SOL     OW60378   3.460   6.944   8.526 -0.4286  0.4109 -0.8835
51258SOL    HW160379   3.451   7.011   8.594  1.5485 -0.8033  0.6740
51258SOL    HW260380   3.431   6.988   8.446 -0.8126  2.5733  0.3542
51259SOL     OW60381   3.356   6.293  10.472 -0.4359 -0.2105 -0.1611
51259SOL    HW160382   3.303   6.247  10.407 -0.7170  0.2055 -0.2281
51259SOL    HW260383   3.331   6.254  10.555  1.4542 -2.2551 -0.4559
51260SOL     OW60384  12.535  12.440  10.493  0.5643 -0.2394 -0.1416
51260SOL    HW160385  12.587  12.425  10.572 -1.4769  2.6482  1.9579
51260SOL    HW260386  12.445  12.446  10.525 -0.3864  0.5948 -2.7690
51261SOL     OW60387   2.115  11.706   2.660  0.6507  0.5795 -0.3393
51261SOL    HW160388   2.162  11.753   2.591 -0.4508  0.2019 -1.3891
51261SOL    HW260389   2.078  11.775   2.715 -0.5132  0.9761 -1.5680
51262SOL     OW60390   2.552   3.499   9.865  0.1203  0.0729  0.0636
51262SOL    HW160391   2.596   3.435   9.920  1.5966 -0.6115 -1.7886
51262SOL    HW260392   2.460   3.492   9.888  0.1727 -2.9759 -0.2766
51263SOL     OW60393   1.260  11.639   2.837 -0.3065  0.2595  0.3440
51263SOL    HW160394   1.247  11.709   2.901  1.6013  0.3351  0.7258
51263SOL    HW260395   1.252  11.558   2.888 -4.3437 -0.0294 -0.4164
51264SOL     OW60396   6.526   3.131   9.706  0.3347  0.3611 -0.3676
51264SOL    HW160397   6.450   3.170   9.749 -0.8347  0.1946 -2.1916
51264SOL    HW260398   6.515   3.150   9.613  1.7119 -1.0205 -0.8773
51265SOL     OW60399  11.804  11.073   0.687 -0.5873 -0.7892 -0.3630
51265SOL    HW160400  11.749  11.051   0.612 -2.3472 -0.9206  0.9066
51265SOL    HW260401  11.813  11.168   0.684 -1.1023 -0.7429 -0.4564
51266SOL     OW60402   7.155   9.841   5.304  0.2358 -0.6174 -0.2489
51266SOL    HW160403   7.248   9.831   5.321  0.2341 -0.6243 -0.2428
51266SOL    HW260404   7.113   9.830   5.389  0.0404 -3.0144 -0.5947
51267SOL     OW60405   3.860  11.028   1.288 -0.2933  0.3878 -0.1062
51267SOL    HW160406   3.868  10.992   1.376 -1.0510  0.5977  0.0516
51267SOL    HW260407   3.821  10.957   1.236 -0.0417  0.3356 -0.2276
51268SOL     OW60408   9.938   9.636   6.097  0.1747  0.3342 -0.0518
51268SOL    HW160409  10.016   9.612   6.048  0.3659 -2.0168  1.2340
51268SOL    HW260410   9.865   9.600   6.046  0.2185 -0.2919  0.3084
51269SOL     OW60411   3.048   1.518   1.850  0.5158 -0.1484 -0.1655
51269SOL    HW160412   3.084   1.564   1.926 -0.8717  2.7412 -1.0953
51269SOL    HW260413   2.956   1.503   1.872  0.3843 -0.3349 -0.8147
51270SOL     OW60414   1.736   5.111   1.338 -0.1258  0.4395 -0.0671
51270SOL    HW160415   1.668   5.043   1.338  0.2847  0.0110 -1.2459
51270SOL    HW260416   1.738   5.143   1.248  0.5490  1.1613  0.1936
51271SOL     OW60417  12.563  11.090   6.777 -0.6912  0.5597 -0.2453
51271SOL    HW160418  12.554  11.184   6.791 -0.5665  0.3285  1.7148
51271SOL    HW260419  12.656  11.073   6.789 -1.1205 -0.2360  3.1330
51272SOL     OW60420   8.719  11.425   9.152 -0.0098  0.0324  0.3334
51272SOL    HW160421   8.654  11.467   9.208  0.7570  1.1610  0.4091
51272SOL    HW260422   8.673  11.410   9.069 -0.4995  0.3773  0.5363
51273SOL     OW60423   2.117   8.947   7.442  0.2165 -0.8114  0.4325
51273SOL    HW160424   2.157   8.871   7.401  1.2045  0.4199 -0.9859
51273SOL    HW260425   2.127   9.017   7.378 -2.1398  0.1476  0.9997
51274SOL     OW60426  10.053   7.451   2.493  0.6259  0.3114 -0.7057
51274SOL    HW160427  10.140   7.488   2.475  0.6325 -0.1208 -1.6009
51274SOL    HW260428  10.035   7.394   2.419 -0.3914  0.3248 -0.4868
51275SOL     OW60429   9.912   6.080   3.407 -0.2254  0.0690 -0.8343
51275SOL    HW160430   9.880   6.011   3.348  0.9640  0.1911 -1.6454
51275SOL    HW260431  10.003   6.057   3.423 -0.6696 -0.3448  1.5506
51276SOL     OW60432   9.736  11.569  12.122 -0.3214 -0.5888 -0.2466
51276SOL    HW160433   9.735  11.578  12.217  1.6832 -2.6288  0.0362
51276SOL    HW260434   9.699  11.651  12.090  0.4510  0.8290  2.2471
51277SOL     OW60435  10.252   1.722   6.014 -0.4887 -0.4447 -0.0025
51277SOL    HW160436  10.280   1.810   5.989  0.6036 -0.7245  0.1981
51277SOL    HW260437  10.245   1.726   6.110  1.0533 -0.9705  0.1614
51278SOL     OW60438   1.875  10.803   0.037 -0.0189  0.1258  0.0617
51278SOL    HW160439   1.933  10.854   0.093  0.4688  0.1102 -0.4163
51278SOL    HW260440   1.932  10.738  -0.003 -0.6826 -1.0048  0.8920
51279SOL     OW60441   5.313  10.012   7.599 -0.6841  0.4061  0.1247
51279SOL    HW160442   5.249  10.073   7.563 -1.0045 -0.8719 -1.5775
51279SOL    HW260443   5.262   9.934   7.621  0.3207 -0.8960 -1.8968
51280SOL     OW60444   0.283   2.813   4.466 -0.5180  0.0869 -0.5160
51280SOL    HW160445   0.270   2.895   4.418  0.2885  0.9520  0.6896
51280SOL    HW260446   0.246   2.830   4.553  1.1699 -0.2296  0.2916
51281SOL     OW60447   6.718   0.139   5.139 -0.1446 -0.5199  0.0682
51281SOL    HW160448   6.813   0.133   5.136 -0.0322  0.8790  0.0133
51281SOL    HW260449   6.695   0.190   5.061 -0.9307 -0.8211  0.0961
51282SOL     OW60450  12.321  10.077   5.689  0.6780 -0.1757 -0.6802
51282SOL    HW160451  12.250  10.067   5.626 -0.6724 -1.0692  0.9158
51282SOL    HW260452  12.388  10.016   5.659  0.1382 -0.4531 -1.3517
51283SOL     OW60453  11.538  10.343   5.902 -0.2502  0.0317  0.0745
51283SOL    HW160454  11.568  10.263   5.859  0.6789  1.3554 -1.8912
51283SOL    HW260455  11.618  10.392   5.919 -0.8506  0.7909  0.7838
51284SOL     OW60456   2.409   3.277   0.417  0.0018 -0.1601  0.0096
51284SOL    HW160457   2.324   3.241   0.443  0.4977  0.5457  2.9629
51284SOL    HW260458   2.391   3.369   0.398  0.2684  0.3843  2.1452
51285SOL     OW60459   1.529   0.362   5.557  0.1452 -0.2695  0.2572
51285SOL    HW160460   1.477   0.439   5.581  0.7747  1.0470 -2.2472
51285SOL    HW260461   1.578   0.341   5.636 -1.8604  0.3412  1.7531
51286SOL     OW60462   3.944   7.308   9.731 -0.1004 -0.0733 -0.5950
51286SOL    HW160463   3.855   7.296   9.697 -0.0509 -0.7321 -0.4970
51286SOL    HW260464   3.986   7.223   9.718  0.5582  0.2740 -0.7624
51287SOL     OW60465   8.914  12.440   9.646 -0.2983 -0.4777  0.3355
51287SOL    HW160466   8.949  12.398   9.568 -1.1323  1.1381 -0.9580
51287SOL    HW260467   8.988  12.443   9.707 -0.0136 -3.0482  0.2232
51288SOL     OW60468   6.934   0.078   2.637  0.0914  0.2114 -0.1541
51288SOL    HW160469   6.865   0.144   2.628  0.9105  1.4420  1.8850
51288SOL    HW260470   6.886  -0.004   2.653 -0.9310  0.9434  0.6844
51289SOL     OW60471   4.237  12.627   5.270  0.5040  0.1558  0.1817
51289SOL    HW160472   4.203  12.607   5.357 -0.9269 -0.4050 -0.4719
51289SOL    HW260473   4.215  12.719   5.256 -2.3172 -0.5490 -0.8236
51290SOL     OW60474  11.340   0.547   0.737 -0.5627 -1.2376  0.5688
51290SOL    HW160475  11.287   0.502   0.803 -0.4503  0.1775  1.6659
51290SOL    HW260476  11.428   0.549   0.774  0.4563 -3.9270 -1.4154
51291SOL     OW60477   1.969   3.512   5.346  0.5357  0.2909 -0.0973
51291SOL    HW160478   1.930   3.595   5.318  0.4097  0.1601 -0.3058
51291SOL    HW260479   1.967   3.456   5.269 -0.3205 -0.2584  0.3116
51292SOL     OW60480   9.759   7.666   4.773 -0.4781 -0.4446  0.2286
51292SOL    HW160481   9.835   7.655   4.830 -0.4303  1.1026  0.5065
51292SOL    HW260482   9.685   7.641   4.829 -0.4899  1.6065  1.2462
51293SOL     OW60483   3.129   3.107   2.376 -0.1196  0.7347 -0.2906
51293SOL    HW160484   3.060   3.165   2.410  0.4336  1.2192  0.0319
51293SOL    HW260485   3.085   3.054   2.310 -1.1147  0.0942  0.8547
51294SOL     OW60486  10.938  10.038   8.022  0.1887 -0.2690  0.1070
51294SOL    HW160487  10.864  10.099   8.021  0.5159  0.1711  1.1110
51294SOL    HW260488  11.008  10.085   7.977  0.1297 -0.3235 -0.0427
51295SOL     OW60489  10.905  12.667   5.266  0.2532  0.3105  0.3591
51295SOL    HW160490  10.918  12.749   5.313  2.8205  1.0171 -1.4107
51295SOL    HW260491  10.812  12.648   5.277 -0.6189  3.8535  0.1980
51296SOL     OW60492   1.642   1.943   4.285  0.4872  0.1635  0.2992
51296SOL    HW160493   1.658   1.941   4.191 -0.3719 -1.2596  0.1423
51296SOL    HW260494   1.615   2.032   4.303 -1.3245 -0.0160 -1.1922
51297SOL     OW60495  12.587   4.123  11.813  0.4326 -0.0533 -0.0773
51297SOL    HW160496  12.570   4.113  11.719 -0.1401 -0.8919  0.1142
51297SOL    HW260497  12.682   4.110  11.821  0.7904  1.8155 -0.7581
51298SOL     OW60498   0.323   4.671   2.212  0.5080 -0.0746 -0.4760
51298SOL    HW160499   0.332   4.609   2.139 -0.1060 -0.2852 -0.3862
51298SOL    HW260500   0.245   4.722   2.189 -0.5400 -1.0875  0.6959
51299SOL     OW60501   2.411   3.046   8.588 -0.3168 -0.3124 -0.0384
51299SOL    HW160502   2.383   3.006   8.506 -0.9118 -1.5991  0.7558
51299SOL    HW260503   2.399   2.977   8.654  0.7028  0.4937  1.0366
51300SOL     OW60504  10.989   5.924  10.219 -0.0778  0.7408 -0.4625
51300SOL    HW160505  10.974   6.010  10.259  0.2618  0.2051  0.8860
51300SOL    HW260506  11.021   5.870  10.291 -0.3061 -0.5291 -1.2864
51301SOL     OW60507   5.543  11.619  11.918 -0.2553 -0.0530 -0.4589
51301SOL    HW160508   5.550  11.538  11.868 -1.5758 -1.5584  1.6150
51301SOL    HW260509   5.631  11.633  11.954 -0.1900 -1.0113 -0.2204
51302SOL     OW60510   0.896   3.103   2.112 -0.0660  0.1356 -0.0532
51302SOL    HW160511   0.959   3.045   2.155  0.5770 -0.2601 -1.4905
51302SOL    HW260512   0.811   3.063   2.130  0.2973 -0.7554 -0.2787
51303SOL     OW60513   1.323   8.892   1.979  0.1631 -0.0803 -0.0932
51303SOL    HW160514   1.412   8.926   1.978  0.2545 -0.3174 -1.8158
51303SOL    HW260515   1.330   8.810   2.029  0.9742 -0.2754 -0.5135
51304SOL     OW60516   7.924  10.522   5.232  0.0055 -0.0888 -0.1293
51304SOL    HW160517   7.989  10.552   5.295 -0.2570 -1.3773  0.7879
51304SOL    HW260518   7.841  10.557   5.265 -0.1741 -1.0201  0.4246
51305SOL     OW60519   5.915   6.279  12.387 -0.2432  0.2110  0.6474
51305SOL    HW160520   5.942   6.273  12.295 -0.6415 -0.2155  0.5515
51305SOL    HW260521   5.902   6.372  12.401 -1.4638  0.1836 -0.1276
51306SOL     OW60522   2.395   4.381  12.362  0.3302 -0.6402  0.5194
51306SOL    HW160523   2.490   4.382  12.353  0.1746 -1.8672 -3.1198
51306SOL    HW260524   2.363   4.422  12.282 -2.1756 -2.5054  0.4493
51307SOL     OW60525   0.937   8.717   4.180  0.1223 -0.0834  0.0096
51307SOL    HW160526   0.858   8.767   4.163  1.1390  1.7411  0.4385
51307SOL    HW260527   0.934   8.699   4.274  0.2189  0.0031  0.0298
51308SOL     OW60528   4.615   8.008   2.710  0.3530  0.5039 -0.0462
51308SOL    HW160529   4.558   7.942   2.749  0.8977  0.4642  0.6987
51308SOL    HW260530   4.575   8.091   2.735  0.3139  0.4736 -0.0077
51309SOL     OW60531   6.274   8.335   6.684  0.2565 -0.1949  0.2141
51309SOL    HW160532   6.285   8.241   6.698  0.7848 -0.1052  0.4288
51309SOL    HW260533   6.302   8.349   6.593 -0.6378 -0.3719 -0.0941
51310SOL     OW60534   0.869   4.758   4.239  0.2756  0.4324  0.4036
51310SOL    HW160535   0.785   4.755   4.193 -0.2113  0.0736  1.2992
51310SOL    HW260536   0.889   4.851   4.245 -0.5418  0.5819  1.0330
51311SOL     OW60537   2.818   7.410   6.964 -0.6328  0.5904 -0.1299
51311SOL    HW160538   2.868   7.471   7.018  0.3702  0.9253 -1.3863
51311SOL    HW260539   2.740   7.459   6.939 -2.1358 -0.2147  2.5313
51312SOL     OW60540   4.363   7.106   7.120  0.4949 -0.1438  0.3582
51312SOL    HW160541   4.298   7.119   7.051 -2.6468 -3.4987  2.3461
51312SOL    HW260542   4.339   7.169   7.188 -0.6853 -1.2865  1.0323
51313SOL     OW60543   0.574   9.188   1.387  0.3121  0.1986 -0.8312
51313SOL    HW160544   0.498   9.160   1.337  0.8417  0.0466 -1.5620
51313SOL    HW260545   0.648   9.181   1.326  0.7965  1.0910 -0.3765
51314SOL     OW60546   7.045   6.893  10.183 -0.0132 -0.7426 -0.0854
51314SOL    HW160547   7.080   6.981  10.197 -3.6244  1.2339 -2.0502
51314SOL    HW260548   7.029   6.860  10.271 -2.0977  2.2824  0.8521
51315SOL     OW60549   4.590   5.319   0.871 -0.6606  0.2754  0.2005
51315SOL    HW160550   4.628   5.308   0.784 -0.6590 -0.9950  0.3346
51315SOL    HW260551   4.639   5.392   0.909  2.1669 -1.6207  0.5764
51316SOL     OW60552   2.726  11.347   0.204 -0.1525  0.5561 -0.0879
51316SOL    HW160553   2.705  11.435   0.172 -1.0272  0.3127 -0.2068
51316SOL    HW260554   2.773  11.362   0.286 -0.7231  1.1340  0.1439
51317SOL     OW60555   3.905   2.464   8.111  0.0722 -0.1439 -0.0679
51317SOL    HW160556   3.874   2.379   8.142 -2.3637  0.7177  0.0723
51317SOL    HW260557   3.884   2.525   8.182  0.3587  0.8278 -0.7904
51318SOL     OW60558   9.411   8.045   2.839  0.2770 -0.2562  0.3948
51318SOL    HW160559   9.427   8.013   2.928 -1.4114 -0.5805  0.6180
51318SOL    HW260560   9.490   8.023   2.791  0.1936 -2.4970  1.1672
51319SOL     OW60561  12.671  11.440   2.614  0.1644 -0.4848 -0.3501
51319SOL    HW160562  12.760  11.443   2.647 -0.1726 -1.3923  0.6919
51319SOL    HW260563  12.679  11.396   2.529  0.5206 -2.2213  0.5335
51320SOL     OW60564   9.489   7.096   0.421 -0.3573 -0.9546 -0.2236
51320SOL    HW160565   9.487   7.101   0.517  0.7071 -0.7956 -0.1959
51320SOL    HW260566   9.535   7.014   0.402 -0.5023 -0.9500 -0.6022
51321SOL     OW60567   9.184   1.506   5.046 -0.0551 -0.0824 -0.0411
51321SOL    HW160568   9.091   1.497   5.065  0.1122 -1.2708  0.2723
51321SOL    HW260569   9.189   1.506   4.950 -0.3843  0.1407 -0.0607
51322SOL     OW60570   9.350   1.037   0.229 -0.3045 -0.1847  0.3125
51322SOL    HW160571   9.284   1.098   0.195  0.1866 -0.0194 -0.3738
51322SOL    HW260572   9.322   0.952   0.196 -0.7575 -0.2770  0.9176
51323SOL     OW60573   3.095   0.936   6.941  0.2364 -0.3014 -0.5686
51323SOL    HW160574   3.036   1.007   6.919 -0.3607 -0.1094  1.4665
51323SOL    HW260575   3.181   0.977   6.948 -0.0502  0.1644  0.2644
51324SOL     OW60576  12.090   4.829   2.358  0.2018 -0.0317 -0.5666
51324SOL    HW160577  12.057   4.897   2.417  2.1619 -1.6169  2.6322
51324SOL    HW260578  12.175   4.863   2.327 -0.7931  0.7754 -2.6336
51325SOL     OW60579   4.269  10.951   1.012 -0.0991  0.5791  0.3474
51325SOL    HW160580   4.346  11.007   1.021 -0.4613  1.0917  0.3131
51325SOL    HW260581   4.231  10.977   0.928  0.4933 -0.6893 -0.3470
51326SOL     OW60582   0.349   4.810   6.199 -0.0865  0.3480 -0.3029
51326SOL    HW160583   0.326   4.902   6.185  0.0627  0.1050 -2.4923
51326SOL    HW260584   0.351   4.772   6.111 -0.4610 -1.8462  0.5741
51327SOL     OW60585   7.334   8.120   6.845 -0.6915 -0.5637  0.2890
51327SOL    HW160586   7.394   8.175   6.896  1.5560 -0.3341 -2.3934
51327SOL    HW260587   7.263   8.179   6.820  0.7113  0.6941 -0.9247
51328SOL     OW60588   9.702   2.235  11.453  0.0976 -0.5080  0.4840
51328SOL    HW160589   9.625   2.243  11.396 -0.6721 -1.1162  1.4099
51328SOL    HW260590   9.759   2.307  11.426 -0.0278 -1.0428 -1.3649
51329SOL     OW60591  10.786   3.068  10.643  0.4362 -0.1404 -0.6472
51329SOL    HW160592  10.874   3.033  10.633  1.5738  2.2025  0.2646
51329SOL    HW260593  10.783   3.143  10.582 -0.6293  0.3022 -0.0821
51330SOL     OW60594   9.239   6.709   6.772 -1.0493  0.4901 -0.3742
51330SOL    HW160595   9.201   6.673   6.852 -1.7588  0.2031 -0.8340
51330SOL    HW260596   9.333   6.718   6.793 -0.7851 -1.8539 -0.3099
51331SOL     OW60597   0.356   6.887  12.223  0.4170 -0.3563  0.3094
51331SOL    HW160598   0.287   6.824  12.203  1.9598 -1.6093 -1.4833
51331SOL    HW260599   0.368   6.936  12.141  1.4503  0.0267  0.6652
51332SOL     OW60600   1.899   4.585  11.876  0.3315  1.0505  0.5150
51332SOL    HW160601   1.906   4.491  11.891 -1.0425  0.9208  0.4641
51332SOL    HW260602   1.990   4.616  11.872  0.7975 -0.3544 -0.0749
51333SOL     OW60603   6.305   6.703   1.940  0.4981  0.5269  0.0709
51333SOL    HW160604   6.269   6.791   1.950 -0.1541  0.2768  0.0409
51333SOL    HW260605   6.332   6.698   1.849 -0.2737  0.4161 -0.1628
51334SOL     OW60606  11.511  10.193   9.811 -0.2021 -0.6867  0.9779
51334SOL    HW160607  11.541  10.104   9.793 -1.8896 -0.8687 -1.4581
51334SOL    HW260608  11.439  10.182   9.873 -0.0498 -0.9498  1.1116
51335SOL     OW60609   0.167   6.053   8.603  0.0596  0.6874  0.4218
51335SOL    HW160610   0.126   6.043   8.689 -0.3993  0.8389  0.2206
51335SOL    HW260611   0.125   5.987   8.549 -0.5406  1.4205 -0.0170
51336SOL     OW60612   4.854   3.075   5.848 -0.2990 -0.5899 -0.1656
51336SOL    HW160613   4.903   3.007   5.802 -2.5216 -1.2830 -1.6461
51336SOL    HW260614   4.779   3.093   5.792 -0.7881  1.7532  1.1182
51337SOL     OW60615  11.037  12.288   2.695  0.2327 -0.1760  0.1605
51337SOL    HW160616  10.973  12.343   2.649 -1.1802 -1.7357  0.1879
51337SOL    HW260617  11.110  12.348   2.713 -1.3837  1.8008  0.5674
51338SOL     OW60618   6.132   5.002   7.600  0.6339 -0.0005 -0.4225
51338SOL    HW160619   6.062   4.985   7.538  2.0865  0.3303 -2.2611
51338SOL    HW260620   6.186   5.069   7.557  1.7856  0.1371  1.1449
51339SOL     OW60621   8.505   0.820   6.595 -0.0401  0.2725 -0.5427
51339SOL    HW160622   8.528   0.874   6.519  0.2602  1.7259  0.5309
51339SOL    HW260623   8.576   0.833   6.657  0.2112 -1.6742 -0.3535
51340SOL     OW60624   1.476   9.688   5.178  0.3095  0.4407 -0.0749
51340SOL    HW160625   1.425   9.737   5.242  0.7614  2.9044 -1.4631
51340SOL    HW260626   1.437   9.601   5.177  0.4533  0.1691  3.6772
51341SOL     OW60627   2.567   7.594   1.730  0.3784 -0.0323 -0.3951
51341SOL    HW160628   2.651   7.573   1.688  0.2632 -0.2873 -0.5062
51341SOL    HW260629   2.591   7.630   1.815  0.6038  0.0026 -0.4713
51342SOL     OW60630  10.103   0.929  10.535  0.1137 -0.4488  0.6830
51342SOL    HW160631  10.183   0.900  10.580 -0.1107 -0.6600  0.9501
51342SOL    HW260632  10.051   0.850  10.525 -0.2664 -0.2366  0.9297
51343SOL     OW60633   1.964   8.573   5.959  0.1980 -0.3740  0.5539
51343SOL    HW160634   2.054   8.541   5.964  0.2562 -0.2855  0.1049
51343SOL    HW260635   1.962   8.627   5.880 -0.6356 -1.5961 -0.2789
51344SOL     OW60636   2.173   0.578   2.458  0.0174  0.0823 -0.2368
51344SOL    HW160637   2.080   0.572   2.480  0.0588 -2.2126 -0.4483
51344SOL    HW260638   2.218   0.530   2.528  0.9525  0.4076 -0.5903
51345SOL     OW60639  12.507   1.001   7.731 -0.5042  0.2007 -0.0387
51345SOL    HW160640  12.439   1.065   7.713 -2.9565 -2.0199  0.7199
51345SOL    HW260641  12.519   0.954   7.648 -1.7246 -0.9977  0.4388
51346SOL     OW60642   0.526   1.461   5.956 -0.5277  0.3211 -0.3356
51346SOL    HW160643   0.474   1.514   6.016 -0.5881  1.0153 -0.9840
51346SOL    HW260644   0.471   1.453   5.878 -0.1284  0.0991 -0.5969
51347SOL     OW60645  12.736  12.365   5.812  0.0202  0.0199 -0.6833
51347SOL    HW160646  12.743  12.460   5.818 -1.8783  0.0903  1.2800
51347SOL    HW260647  12.749  12.347   5.718  1.8252  2.0173 -0.9100
51348SOL     OW60648  11.824   1.218   3.406  0.1090 -0.2417  0.1963
51348SOL    HW160649  11.914   1.237   3.432  0.0785  0.6174 -0.2932
51348SOL    HW260650  11.787   1.303   3.382 -0.7647 -0.6158  0.1708
51349SOL     OW60651   0.060   6.094   4.969  0.6673  0.2257 -0.1141
51349SOL    HW160652   0.149   6.102   5.003 -0.0332  0.7457  1.6746
51349SOL    HW260653   0.057   6.005   4.933  1.2950 -0.5932  1.7288
51350SOL     OW60654   8.122   0.280   0.145 -0.2458  1.0803 -0.3125
51350SOL    HW160655   8.093   0.262   0.055 -1.2671  0.2861  0.1463
51350SOL    HW260656   8.069   0.221   0.199  1.2761  0.5994  0.7160
51351SOL     OW60657   6.209   2.503  10.855  0.4370 -0.0043  0.3487
51351SOL    HW160658   6.275   2.551  10.805 -1.8457  1.9174 -1.0622
51351SOL    HW260659   6.181   2.432  10.797  0.6315 -0.2626  0.5710
51352SOL     OW60660   7.293   8.859   4.084 -0.4304 -0.5332  0.5321
51352SOL    HW160661   7.266   8.780   4.130  1.7363 -0.4660  2.0975
51352SOL    HW260662   7.288   8.928   4.150  2.8797 -0.4535  0.9053
51353SOL     OW60663   9.638  12.280  10.248 -0.4455  0.6005  0.2220
51353SOL    HW160664   9.553  12.317  10.226 -0.5640 -0.7120 -1.8869
51353SOL    HW260665   9.633  12.189  10.217  0.9304 -0.2243  2.1967
51354SOL     OW60666   4.343   9.559  12.359  0.5618  0.1824  0.3129
51354SOL    HW160667   4.421   9.558  12.304  0.4871 -1.5397  0.1854
51354SOL    HW260668   4.346   9.476  12.407  0.3326  1.3807  2.5231
51355SOL     OW60669   0.683   4.626   3.096  0.0860 -0.0451  0.1288
51355SOL    HW160670   0.591   4.653   3.093  0.3380  0.7992 -1.1045
51355SOL    HW260671   0.686   4.545   3.045  0.3803  1.2420 -2.0241
51356SOL     OW60672  12.298   2.730   9.907 -0.1145  0.4660 -0.0382
51356SOL    HW160673  12.286   2.662   9.973  0.3361  0.5953  0.1813
51356SOL    HW260674  12.276   2.812   9.953  0.1328  0.5488 -0.0659
51357SOL     OW60675   8.633   8.541   6.834  0.4893 -0.0387 -0.2205
51357SOL    HW160676   8.602   8.516   6.921 -1.0733 -0.7354 -0.9320
51357SOL    HW260677   8.704   8.480   6.814  0.6242 -0.0955  0.4206
51358SOL     OW60678   0.779  12.143   8.883 -0.1374 -0.1150  0.2393
51358SOL    HW160679   0.717  12.103   8.944 -3.3989 -0.4544 -2.9771
51358SOL    HW260680   0.762  12.237   8.888  1.6424  0.2048  1.7410
51359SOL     OW60681  10.390   4.901   1.199  0.0348  0.8718 -0.0189
51359SOL    HW160682  10.436   4.898   1.283 -1.1094  2.7312  0.7250
51359SOL    HW260683  10.449   4.951   1.142 -0.1282  1.4554  0.3181
51360SOL     OW60684   9.816   5.926   3.208 -0.0842 -0.0548  0.4499
51360SOL    HW160685   9.787   5.837   3.188 -2.9795  0.8382  0.2220
51360SOL    HW260686   9.787   5.979   3.134  1.3387  1.1406  0.6951
51361SOL     OW60687   4.762   7.432   2.289 -0.5989  0.1998  0.4621
51361SOL    HW160688   4.787   7.447   2.380 -0.4930  0.5687  0.3737
51361SOL    HW260689   4.817   7.492   2.238 -0.4764 -0.1845  0.1314
51362SOL     OW60690   0.226  10.470   9.924 -0.3969  0.2801  0.2085
51362SOL    HW160691   0.269  10.474  10.009  0.7504  0.5319 -0.3549
51362SOL    HW260692   0.273  10.534   9.871 -0.7279 -0.2658 -0.7710
51363SOL     OW60693   9.778   0.394   3.158  0.0719  0.4301  0.4680
51363SOL    HW160694   9.780   0.310   3.204 -1.4464  0.5368  0.7773
51363SOL    HW260695   9.870   0.413   3.139  1.0151  0.9658  4.5781
51364SOL     OW60696   2.134   1.402   3.388 -0.8790 -0.1184 -0.3097
51364SOL    HW160697   2.191   1.367   3.319 -0.4850 -1.5144  0.6686
51364SOL    HW260698   2.191   1.413   3.464 -0.9826  2.7826 -0.5349
51365SOL     OW60699   2.981   9.268  12.125 -0.0488  0.6699  0.6035
51365SOL    HW160700   2.918   9.330  12.087  0.5401  0.8289 -0.1430
51365SOL    HW260701   2.989   9.198  12.060 -0.9654 -0.3888  1.5893
51366SOL     OW60702  11.419   2.671  11.631  0.5699 -0.1479 -0.2123
51366SOL    HW160703  11.377   2.643  11.550 -0.9396  0.2381  0.4045
51366SOL    HW260704  11.411   2.766  11.630 -0.1542 -0.1856  0.7356
51367SOL     OW60705   5.773   7.831   4.102 -0.3887 -0.8081  0.9277
51367SOL    HW160706   5.684   7.816   4.072 -0.1737 -1.2337  0.4746
51367SOL    HW260707   5.824   7.761   4.061 -0.1092 -1.5444  2.4498
51368SOL     OW60708   9.856   8.491  12.151 -0.4023  0.1432 -0.3354
51368SOL    HW160709   9.897   8.414  12.189  1.9239  1.4929  0.1242
51368SOL    HW260710   9.782   8.510  12.208 -0.9413 -1.6335 -0.3950
51369SOL     OW60711   3.715   8.616  11.318  0.1586 -0.2067  0.1609
51369SOL    HW160712   3.795   8.665  11.335  1.6255 -1.8915 -1.3724
51369SOL    HW260713   3.735   8.526  11.345 -1.3825 -0.5883  0.1539
51370SOL     OW60714   8.605   2.606   2.615 -0.1877  0.1139  0.1544
51370SOL    HW160715   8.692   2.566   2.608 -0.3053 -0.3513  1.1752
51370SOL    HW260716   8.582   2.630   2.525  0.3377 -1.1841 -0.3564
51371SOL     OW60717   7.367   1.736   1.181  0.7153  0.0687 -0.4937
51371SOL    HW160718   7.390   1.645   1.201  0.2795  0.2758  1.1225
51371SOL    HW260719   7.272   1.738   1.186  0.7706  0.9932  1.5871
51372SOL     OW60720   4.252   8.767   9.475 -0.0706  0.0333  0.0714
51372SOL    HW160721   4.334   8.770   9.424  1.6918 -1.4011  2.6069
51372SOL    HW260722   4.216   8.681   9.456  0.4129 -0.3693  0.9348
51373SOL     OW60723   5.301   6.549  12.064  0.1654  0.2789 -0.1139
51373SOL    HW160724   5.225   6.493  12.046  0.3523  0.3463 -1.1605
51373SOL    HW260725   5.354   6.497  12.125  0.1590 -0.5421 -0.7823
51374SOL     OW60726   4.027   2.415   4.589  0.2848 -0.3086  0.3805
51374SOL    HW160727   4.067   2.378   4.511  1.1136 -0.0142  0.6533
51374SOL    HW260728   3.959   2.353   4.614 -2.3199  1.1284 -2.4474
51375SOL     OW60729   9.616   8.391  10.405  1.0825  0.2584 -0.3093
51375SOL    HW160730   9.523   8.403  10.388  1.0103 -0.5861 -0.5539
51375SOL    HW260731   9.623   8.389  10.500  0.6034 -1.3436 -0.2777
51376SOL     OW60732   4.055   4.058  12.097  0.4435 -0.3934  0.1418
51376SOL    HW160733   4.077   4.146  12.127  0.2186 -0.6894  1.1944
51376SOL    HW260734   3.968   4.041  12.134 -0.4101 -0.3003 -1.6881
51377SOL     OW60735   6.409   6.143   3.543 -0.3667 -0.3686 -0.2983
51377SOL    HW160736   6.380   6.187   3.464 -0.8735 -1.5998 -0.8261
51377SOL    HW260737   6.490   6.188   3.568 -0.1573 -0.0186 -1.5610
51378SOL     OW60738   7.366   0.070  10.785  0.5355  0.0729  0.3468
51378SOL    HW160739   7.348  -0.009  10.835 -0.4315 -0.0990 -0.2596
51378SOL    HW260740   7.460   0.084  10.796  1.0802 -2.1124 -0.9409
51379SOL     OW60741   6.951  12.286   6.661 -0.1231 -0.3062 -0.2552
51379SOL    HW160742   6.966  12.315   6.571  1.8986  0.4825  0.2769
51379SOL    HW260743   6.876  12.336   6.690 -1.0330 -0.8409 -1.5988
51380SOL     OW60744   4.450  11.849   6.308 -0.2025 -0.1771  0.1799
51380SOL    HW160745   4.371  11.884   6.266  1.5171  2.9793 -0.7332
51380SOL    HW260746   4.521  11.872   6.249  1.5740 -1.9829  1.4752
51381SOL     OW60747   7.316   2.911   5.357  0.0740 -0.0397  0.3515
51381SOL    HW160748   7.290   2.989   5.308 -1.4990 -0.4518  0.4796
51381SOL    HW260749   7.238   2.855   5.356  1.5415 -2.2109 -0.8766
51382SOL     OW60750   4.202  11.813   4.017 -0.0136 -0.1488  0.3218
51382SOL    HW160751   4.121  11.788   3.972  0.3436 -2.0107  0.6655
51382SOL    HW260752   4.272  11.780   3.961  0.4430 -1.7432  1.7517
51383SOL     OW60753  10.676  12.559   5.337  0.2133  0.2654 -0.5024
51383SOL    HW160754  10.614  12.515   5.279  0.8922  2.1392 -2.7966
51383SOL    HW260755  10.731  12.488   5.372 -0.2166 -0.9491 -2.1603
51384SOL     OW60756   5.958   6.495   7.091 -0.0648 -0.4598  0.3521
51384SOL    HW160757   5.929   6.551   7.163  0.7077  0.0321  0.2903
51384SOL    HW260758   5.999   6.555   7.029 -0.4323 -0.9239 -0.3520
51385SOL     OW60759  10.260   6.385   4.357  0.1183  0.3549  0.5243
51385SOL    HW160760  10.220   6.415   4.439 -0.3074 -0.8787  0.7986
51385SOL    HW260761  10.349   6.361   4.381  0.1312  0.4046  0.5255
51386SOL     OW60762  11.144   8.177   9.046 -0.2681  0.2870  0.2854
51386SOL    HW160763  11.229   8.137   9.066 -0.3827 -0.5111 -0.7115
51386SOL    HW260764  11.080   8.111   9.073 -0.5978  1.0655  1.4274
51387SOL     OW60765  12.648   0.987  12.165 -0.0563  0.1384 -0.3005
51387SOL    HW160766  12.553   0.990  12.178 -0.0212  0.0998 -0.0241
51387SOL    HW260767  12.675   0.904  12.205  0.4766  1.4294  2.1917
51388SOL     OW60768   4.231   0.409   4.022 -0.1812  0.0272 -0.2413
51388SOL    HW160769   4.180   0.343   4.069 -0.3306 -0.8983 -1.6173
51388SOL    HW260770   4.320   0.398   4.053 -0.1759 -0.9648 -0.5580
51389SOL     OW60771   6.236  10.630  11.563 -0.2959 -0.0808  0.3702
51389SOL    HW160772   6.143  10.653  11.567 -0.7239 -1.4815 -0.7643
51389SOL    HW260773   6.254  10.620  11.470  1.0051  0.1425  0.5820
51390SOL     OW60774   8.140   6.032   3.398  0.0607 -0.0447  0.2160
51390SOL    HW160775   8.061   6.066   3.439  0.2536  1.1814 -0.3847
51390SOL    HW260776   8.135   5.937   3.410 -1.7412 -0.0368 -0.2586
51391SOL     OW60777   4.354  12.474   0.984  0.1318 -0.2859  0.3032
51391SOL    HW160778   4.315  12.512   1.063 -0.5401  0.3788 -0.3259
51391SOL    HW260779   4.299  12.506   0.912  0.6699 -0.9542 -0.4305
51392SOL     OW60780   1.152   2.219  12.564  0.6193  0.0069  0.1894
51392SOL    HW160781   1.142   2.165  12.486  0.4458 -0.9543  0.8716
51392SOL    HW260782   1.063   2.236  12.594  0.2726  4.4655 -2.5029
51393SOL     OW60783   3.060   1.625   8.030 -0.4737 -0.6802  0.6390
51393SOL    HW160784   3.024   1.569   7.962 -0.3380 -0.1328  0.0981
51393SOL    HW260785   2.984   1.667   8.070 -0.4786  0.4432 -0.4723
51394SOL     OW60786   0.168  12.162   1.603 -0.3680 -0.3245  0.2207
51394SOL    HW160787   0.209  12.112   1.673 -0.3154 -2.2290 -1.0988
51394SOL    HW260788   0.238  12.217   1.569  0.8122 -2.4532 -1.0301
51395SOL     OW60789  11.497  12.578   4.672 -0.0968  0.2053 -0.0213
51395SOL    HW160790  11.576  12.616   4.711  0.8907 -1.5363 -0.2076
51395SOL    HW260791  11.512  12.483   4.676 -2.1311 -0.1700 -0.1952
51396SOL     OW60792   1.693   7.536  12.714 -0.1133 -0.1829 -0.0327
51396SOL    HW160793   1.675   7.444  12.729  1.5328 -0.5330 -0.0759
51396SOL    HW260794   1.699   7.544  12.618  1.1986 -0.3422  0.0235
51397SOL     OW60795   4.937   3.203   3.349  0.7332  0.2825  0.0661
51397SOL    HW160796   4.928   3.298   3.346  0.0942  0.2868  1.4308
51397SOL    HW260797   5.029   3.187   3.330  0.5829  1.0659 -1.5107
51398SOL     OW60798  11.128   5.332   1.558 -0.2666 -0.0518 -0.5144
51398SOL    HW160799  11.215   5.332   1.518  0.4836  0.5034  0.9993
51398SOL    HW260800  11.146   5.332   1.652 -1.9199  0.0132 -0.1717
51399SOL     OW60801   2.398  11.497   4.718 -0.3108 -0.4373  0.1248
51399SOL    HW160802   2.360  11.584   4.723 -1.9994 -1.1248 -0.0708
51399SOL    HW260803   2.491  11.512   4.703  0.1533  1.3967  3.7565
51400SOL     OW60804   3.924   2.056   5.055 -0.2925  0.1623 -0.0728
51400SOL    HW160805   3.916   2.043   4.961 -1.0176  1.3027 -0.1963
51400SOL    HW260806   3.886   2.143   5.070  0.5899  0.3592  1.1524
51401SOL     OW60807   1.248   7.177   2.347  0.0245  0.2130  0.7480
51401SOL    HW160808   1.229   7.266   2.380  0.1426  0.7559 -0.5981
51401SOL    HW260809   1.341   7.179   2.327  0.0737 -0.2993  0.9234
51402SOL     OW60810   9.973   7.007   0.648 -0.1980  0.7810  0.1009
51402SOL    HW160811   9.936   6.919   0.655  0.0086  0.7105  0.3227
51402SOL    HW260812  10.064   6.997   0.675  0.2548  0.7686 -1.3512
51403SOL     OW60813   0.667  10.125   7.391 -0.2635  0.4419  0.1570
51403SOL    HW160814   0.608  10.050   7.397 -0.3643  0.3607 -1.3141
51403SOL    HW260815   0.670  10.145   7.297  0.7136  1.5184  0.3936
51404SOL     OW60816   2.326  12.715   1.738 -0.3199  0.1250  0.0318
51404SOL    HW160817   2.258  12.693   1.801 -1.2926 -0.0093 -1.0295
51404SOL    HW260818   2.404  12.670   1.770 -0.4479  1.0701  1.8039
51405SOL     OW60819   9.333   9.804   9.763  0.0141 -0.3461  0.4497
51405SOL    HW160820   9.378   9.743   9.705  0.7734  1.0154 -0.4503
51405SOL    HW260821   9.241   9.794   9.741  0.0458 -1.6093  0.7807
51406SOL     OW60822  12.158  11.859   6.730  0.3501  1.7074 -0.0932
51406SOL    HW160823  12.176  11.932   6.670 -0.6008  1.4108 -0.7558
51406SOL    HW260824  12.091  11.893   6.789 -0.3696  1.2692 -0.6359
51407SOL     OW60825  12.461   9.020   7.912  0.5722 -0.0563  0.7267
51407SOL    HW160826  12.486   9.020   7.820 -0.8261  1.5303  0.2750
51407SOL    HW260827  12.392   8.954   7.918 -2.9819  3.0875 -0.6577
51408SOL     OW60828   1.900   9.633   2.824  0.3214 -0.8820 -0.5199
51408SOL    HW160829   1.893   9.713   2.771 -0.3862 -0.3875  0.2810
51408SOL    HW260830   1.933   9.664   2.908 -1.1413 -1.2272  0.2123
51409SOL     OW60831   5.440  12.257   0.004  0.3121 -0.7014 -0.9383
51409SOL    HW160832   5.516  12.231   0.056  0.3974 -0.1530 -0.7749
51409SOL    HW260833   5.365  12.224   0.053  0.3768  0.0826 -0.2891
51410SOL     OW60834   8.597   9.082   6.994  0.2103 -0.3575  0.3204
51410SOL    HW160835   8.570   9.115   7.080  0.9312 -0.1710  0.4785
51410SOL    HW260836   8.526   9.109   6.935 -0.3054 -0.5182  0.8558
51411SOL     OW60837   2.265   3.218   2.268 -0.0595  0.0586  0.4339
51411SOL    HW160838   2.355   3.192   2.284 -0.0786 -0.3620 -0.1096
51411SOL    HW260839   2.262   3.238   2.174 -1.0560 -2.2025 -0.0882
51412SOL     OW60840  11.256  12.321   5.238 -0.0057 -0.5514  0.2276
51412SOL    HW160841  11.210  12.402   5.260 -1.1985 -0.5163 -2.1229
51412SOL    HW260842  11.347  12.338   5.265 -0.2323  1.5636 -0.1628
51413SOL     OW60843   6.866   1.479   1.722 -0.3673  0.2960 -0.0038
51413SOL    HW160844   6.796   1.480   1.787 -0.6810  2.6888 -0.2924
51413SOL    HW260845   6.906   1.566   1.729  2.0762 -0.7035 -0.4150
51414SOL     OW60846   1.379   9.129  12.534  0.0257 -0.3465 -0.1922
51414SOL    HW160847   1.293   9.126  12.491 -0.0162  0.7215 -0.1951
51414SOL    HW260848   1.383   9.215  12.575  0.3069 -1.1149  1.4796
51415SOL     OW60849   0.721  12.650   7.191 -0.6027  0.3455 -0.2835
51415SOL    HW160850   0.625  12.644   7.184 -0.5299 -1.4046 -0.2103
51415SOL    HW260851   0.742  12.737   7.157 -2.2879  1.1050  0.4966
51416SOL     OW60852   5.002  11.944   8.477 -0.0267 -0.3753 -0.2887
51416SOL    HW160853   4.928  11.906   8.526  0.6504 -0.0223  1.0462
51416SOL    HW260854   4.965  12.021   8.434 -0.0839  0.9038  1.8781
51417SOL     OW60855   7.071  11.155   6.692 -0.3829  0.3161 -0.9985
51417SOL    HW160856   7.156  11.195   6.672  0.1149 -0.8940 -1.4111
51417SOL    HW260857   7.029  11.217   6.750  1.0680  0.6462 -0.2425
51418SOL     OW60858  11.946   8.929   2.646  0.0369 -0.2205  0.4340
51418SOL    HW160859  11.902   8.847   2.625 -1.0233  0.8624 -1.8567
51418SOL    HW260860  12.036   8.917   2.615  0.4805 -1.2235  2.0259
51419SOL     OW60861   6.841  12.172   9.020  0.2210  0.8841  0.3620
51419SOL    HW160862   6.910  12.182   9.085  0.2010  1.5682  0.2897
51419SOL    HW260863   6.830  12.078   9.010  1.1222  0.7675  0.3971
51420SOL     OW60864  12.566   8.515   2.922 -0.4993  0.5773 -0.4239
51420SOL    HW160865  12.600   8.595   2.963 -0.2079 -0.1727  0.8589
51420SOL    HW260866  12.552   8.539   2.831  0.5023  1.8138 -0.2840
51421SOL     OW60867   0.501  10.539   5.159 -0.4973  0.2306 -0.0437
51421SOL    HW160868   0.461  10.465   5.204  1.7426 -0.2272  1.3629
51421SOL    HW260869   0.588  10.547   5.198  0.1385  2.2700 -1.6663
51422SOL     OW60870   5.377   3.018  11.171 -0.2435  0.2356 -0.2608
51422SOL    HW160871   5.428   2.985  11.097  0.0699  0.1773 -0.0202
51422SOL    HW260872   5.329   2.942  11.203 -1.9057  0.6306 -1.5983
51423SOL     OW60873  10.943   7.552   2.960  0.1953 -0.6084  0.1868
51423SOL    HW160874  10.934   7.612   2.885 -1.9402 -0.4332  0.5395
51423SOL    HW260875  10.967   7.609   3.033  0.0768 -0.4651  0.1140
51424SOL     OW60876   3.478   4.249   8.795  0.4153  0.7879 -0.0311
51424SOL    HW160877   3.413   4.186   8.762 -0.5116  2.0700 -0.7754
51424SOL    HW260878   3.441   4.279   8.878  2.2989 -1.7535  1.8651
51425SOL     OW60879   0.528   6.477   9.430 -0.2279 -0.0428 -0.0399
51425SOL    HW160880   0.488   6.432   9.355 -0.4454  0.4043 -0.1932
51425SOL    HW260881   0.482   6.561   9.436  0.7616  0.5438 -0.3076
51426SOL     OW60882  10.213   3.912   2.369 -0.0987  0.1456 -0.0515
51426SOL    HW160883  10.225   3.979   2.435 -1.0899 -1.3952  1.8006
51426SOL    HW260884  10.296   3.863   2.370 -0.0998  0.1452  0.0178
51427SOL     OW60885   5.124   4.719   2.581 -0.1903  0.5829 -0.0299
51427SOL    HW160886   5.210   4.681   2.600 -0.2069  0.1902 -0.7225
51427SOL    HW260887   5.064   4.669   2.637  0.1867  1.8772  1.6345
51428SOL     OW60888   0.796   2.046   9.866 -0.0783 -0.3214 -0.4217
51428SOL    HW160889   0.721   1.989   9.847 -1.2320  0.4919  1.4516
51428SOL    HW260890   0.848   1.996   9.929 -0.0609 -0.0820 -0.2497
51429SOL     OW60891   3.507   9.558  10.508 -0.3803  0.0148  0.0715
51429SOL    HW160892   3.481   9.644  10.542  2.1459  0.4643  1.1008
51429SOL    HW260893   3.427   9.505  10.512 -1.4817  1.6814  1.5006
51430SOL     OW60894  11.942   8.233  11.672  0.2701 -0.2886  0.2717
51430SOL    HW160895  11.970   8.275  11.591  2.0739  0.9977  1.4914
51430SOL    HW260896  11.856   8.271  11.690  1.3611  2.1152  0.7432
51431SOL     OW60897   4.414   9.686   8.784  1.1212 -0.0206  0.2805
51431SOL    HW160898   4.421   9.664   8.877  0.2357 -0.8463  0.1714
51431SOL    HW260899   4.354   9.761   8.782  2.0386  0.7318  0.4509
51432SOL     OW60900   4.808   0.867   0.751 -0.3536  0.1180  0.6668
51432SOL    HW160901   4.755   0.788   0.750  0.3008 -0.3223 -0.7943
51432SOL    HW260902   4.852   0.864   0.836 -0.7103 -0.8256  0.8316
51433SOL     OW60903   0.003  11.048  11.003  0.1473  0.1028  0.5526
51433SOL    HW160904   0.043  10.969  10.967  0.0988  0.9065 -1.4043
51433SOL    HW260905   0.068  11.082  11.065  0.9395 -0.5235  0.0886
51434SOL     OW60906   7.138   7.637   8.301 -0.1841  0.3398  1.1203
51434SOL    HW160907   7.114   7.728   8.320 -2.2001 -0.0773  0.7570
51434SOL    HW260908   7.203   7.615   8.368 -0.1154  1.8537  1.5823
51435SOL     OW60909   4.536   8.505  10.753 -0.2685  0.7566 -0.1047
51435SOL    HW160910   4.472   8.567  10.718 -1.5434 -1.1084 -1.3011
51435SOL    HW260911   4.486   8.452  10.815  0.1498 -0.5437 -0.8402
51436SOL     OW60912   1.816   7.975   9.205  0.3069 -0.1464  0.2389
51436SOL    HW160913   1.867   7.896   9.188 -0.1879 -0.9729  2.2818
51436SOL    HW260914   1.831   7.994   9.297 -0.5672  1.4519  0.0904
51437SOL     OW60915   3.050   1.443   9.064  0.2523 -0.2688  0.2367
51437SOL    HW160916   2.969   1.483   9.031  0.7431  2.2262  1.8095
51437SOL    HW260917   3.059   1.362   9.013 -1.8978  0.6098 -1.7179
51438SOL     OW60918   0.978  12.216  12.192  0.1226 -0.1532 -0.8129
51438SOL    HW160919   1.054  12.158  12.195 -0.9537 -1.5834  0.8156
51438SOL    HW260920   0.960  12.228  12.099  1.9927 -0.2214 -1.2172
51439SOL     OW60921  12.415  11.541   5.039 -0.1115 -0.2364 -0.5988
51439SOL    HW160922  12.500  11.498   5.053  1.1031  1.9801 -0.8000
51439SOL    HW260923  12.429  11.597   4.963 -1.0580  1.8948  0.7376
51440SOL     OW60924   4.240   3.553  12.626 -0.3471 -0.5936 -0.0412
51440SOL    HW160925   4.284   3.506  12.555 -1.3557 -0.5155 -0.7425
51440SOL    HW260926   4.211   3.484  12.686  1.1649 -0.6096  0.7054
51441SOL     OW60927  11.138   9.400   4.336  0.4267 -0.3274 -0.3515
51441SOL    HW160928  11.107   9.477   4.289  1.2463 -0.8410 -1.7983
51441SOL    HW260929  11.215   9.372   4.287  1.6086 -0.6381  1.5863
51442SOL     OW60930   8.256   3.182  10.179 -0.7215 -0.4809 -0.4309
51442SOL    HW160931   8.214   3.097  10.189 -1.2041 -0.1537  0.4624
51442SOL    HW260932   8.311   3.173  10.101  0.0156 -1.9412  0.2142
51443SOL     OW60933  11.355   3.481  12.239 -0.4001  0.1274  0.3139
51443SOL    HW160934  11.354   3.537  12.161  0.8441  0.2022  0.3271
51443SOL    HW260935  11.286   3.416  12.223  0.0996 -0.1054 -1.0468
51444SOL     OW60936   7.772   0.738   0.371  0.2371  0.2478 -0.1576
51444SOL    HW160937   7.746   0.764   0.459  0.1676 -1.2101  0.2743
51444SOL    HW260938   7.812   0.652   0.381 -0.0854 -0.1092 -1.5866
51445SOL     OW60939   5.165   3.854   1.399  0.3506  0.2045 -0.2791
51445SOL    HW160940   5.187   3.947   1.411 -0.0906  0.4875 -1.5047
51445SOL    HW260941   5.104   3.853   1.325 -2.3010 -0.7592  1.7661
51446SOL     OW60942   9.807  12.775  11.407 -0.1126  0.8259 -0.6008
51446SOL    HW160943   9.902  12.786  11.410 -0.0750  0.4036 -0.1715
51446SOL    HW260944   9.787  12.712  11.476 -0.4223 -1.0766 -2.3177
51447SOL     OW60945  10.360   7.866   8.845  0.2511  0.1817  0.2589
51447SOL    HW160946  10.373   7.839   8.936  1.7168 -0.5249 -0.1322
51447SOL    HW260947  10.448   7.872   8.808 -0.2952  0.8451 -1.0181
51448SOL     OW60948   2.140   2.109  10.118  0.1624  0.6359 -0.3603
51448SOL    HW160949   2.083   2.032  10.119  1.1322 -0.1121  0.1126
51448SOL    HW260950   2.111   2.162  10.192  2.0991 -1.3609  2.0427
51449SOL     OW60951   0.517   2.586   3.610 -1.0958 -0.3873 -0.3429
51449SOL    HW160952   0.429   2.600   3.646 -1.2379  0.1136 -0.8691
51449SOL    HW260953   0.532   2.492   3.621 -1.1748 -0.2764  0.9079
51450SOL     OW60954  10.052   2.738   8.708 -0.0782  0.4473  0.7935
51450SOL    HW160955  10.076   2.772   8.622  2.2607 -0.3862  1.0540
51450SOL    HW260956  10.050   2.816   8.764  0.2763  0.7589  0.3832
51451SOL     OW60957   8.297  11.717   0.634 -0.4299  0.1001 -0.5306
51451SOL    HW160958   8.294  11.799   0.682  0.8297 -0.0439 -0.1906
51451SOL    HW260959   8.381  11.678   0.656 -0.4823 -0.7098 -1.6382
51452SOL     OW60960   9.889   3.634   0.969 -0.2521 -0.6103  0.0383
51452SOL    HW160961   9.801   3.650   1.002 -0.4858 -1.6463 -0.0422
51452SOL    HW260962   9.929   3.720   0.964 -1.4502 -0.0668 -0.4543
51453SOL     OW60963  10.658   8.060  10.259  0.3097  0.6318 -0.2070
51453SOL    HW160964  10.690   8.002  10.190 -2.1208  0.8898 -1.6902
51453SOL    HW260965  10.681   8.148  10.228 -0.9064  0.7568 -0.8214
51454SOL     OW60966   3.394   4.206   6.066  0.2327 -0.3761 -0.2131
51454SOL    HW160967   3.403   4.122   6.021  1.3174 -0.4528  0.1214
51454SOL    HW260968   3.441   4.195   6.148  0.9329  0.7502 -0.4333
51455SOL     OW60969   2.660   1.735   5.481  0.1372 -0.4120 -0.2193
51455SOL    HW160970   2.637   1.781   5.401 -0.8673 -0.8755 -0.2032
51455SOL    HW260971   2.576   1.708   5.519  0.6784 -1.7039  0.0960
51456SOL     OW60972  11.645   8.239   8.274  0.3589 -0.3923  0.0871
51456SOL    HW160973  11.598   8.227   8.356  2.3125 -0.4356  1.2562
51456SOL    HW260974  11.640   8.154   8.230 -0.8786 -0.3068  0.0197
51457SOL     OW60975   7.275   5.084   4.220 -0.5153  0.5432  0.4887
51457SOL    HW160976   7.242   5.032   4.293 -0.4612 -3.4965 -2.0912
51457SOL    HW260977   7.208   5.075   4.152  0.8839  1.5024 -1.0893
51458SOL     OW60978  10.402   7.260   4.193  0.2417  0.7572  0.2107
51458SOL    HW160979  10.343   7.288   4.123  0.8127 -1.9710 -1.5432
51458SOL    HW260980  10.477   7.319   4.188  0.0953  0.8525 -1.2744
51459SOL     OW60981   9.495  10.394   2.056 -0.0287  0.1398  0.0727
51459SOL    HW160982   9.445  10.460   2.104 -0.5183  0.2659 -0.5946
51459SOL    HW260983   9.542  10.444   1.989  0.0589 -0.1273 -0.0649
51460SOL     OW60984   0.232  10.557   6.431  0.0762  0.4767 -0.4735
51460SOL    HW160985   0.307  10.591   6.382  0.9904  2.0876  1.8758
51460SOL    HW260986   0.257  10.568   6.523 -1.6344 -2.2105  0.4117
51461SOL     OW60987  12.343   7.456   8.744 -0.2194 -0.4069  0.8618
51461SOL    HW160988  12.339   7.551   8.734 -0.1905 -0.5772 -1.2075
51461SOL    HW260989  12.402   7.427   8.674 -1.5723 -2.0589  0.3321
51462SOL     OW60990   8.320   1.160   7.128  0.2912 -0.3212 -0.4620
51462SOL    HW160991   8.313   1.174   7.033 -0.3011 -0.3777 -0.4299
51462SOL    HW260992   8.238   1.118   7.152 -0.4978  1.6129  0.4271
51463SOL     OW60993   1.449   1.863   1.297 -0.3236 -0.0147 -0.2105
51463SOL    HW160994   1.411   1.948   1.317  0.3473 -0.0063  1.2174
51463SOL    HW260995   1.377   1.811   1.262 -1.6377  0.0859  2.1617
51464SOL     OW60996   9.989  10.900  10.523 -0.1156  0.1380 -0.6510
51464SOL    HW160997  10.004  10.900  10.617  2.0741  0.9687 -0.9442
51464SOL    HW260998   9.901  10.937  10.512 -0.1465  0.6118  1.0230
51465SOL     OW60999   2.128   8.776   8.824 -0.1557 -0.1665  0.1431
51465SOL    HW161000   2.223   8.770   8.813 -0.0529  1.5221 -0.1024
51465SOL    HW261001   2.115   8.766   8.918  0.4095  0.9234  0.3590
51466SOL     OW61002   9.079  10.221  10.453  0.5580 -0.1779 -0.1228
51466SOL    HW161003   9.165  10.235  10.413  1.7652 -0.7706  2.1037
51466SOL    HW261004   9.062  10.127  10.439 -0.1138  0.0913 -1.2171
51467SOL     OW61005   1.238   3.837  12.673  0.3198  0.1921  0.2886
51467SOL    HW161006   1.302   3.765  12.670  1.5814  1.3024 -0.7472
51467SOL    HW261007   1.166   3.807  12.618  1.5552  0.3325 -1.4860
51468SOL     OW61008   4.310  12.610  12.482 -0.3508  0.6285 -0.9883
51468SOL    HW161009   4.240  12.617  12.547 -1.0519 -0.2824 -1.6196
51468SOL    HW261010   4.356  12.694  12.486 -0.8521  0.8647  0.1419
51469SOL     OW61011   8.593   7.112   1.268  0.0141  0.0256  0.1250
51469SOL    HW161012   8.617   7.064   1.346  0.0632 -1.0603 -0.5428
51469SOL    HW261013   8.500   7.132   1.280 -0.0083 -0.2434  0.4038
51470SOL     OW61014  10.894  12.648   9.774  0.3930  0.3053 -0.6705
51470SOL    HW161015  10.879  12.740   9.797  1.1968 -0.0675  1.5599
51470SOL    HW261016  10.813  12.621   9.731 -0.9492  1.3348  1.0850
51471SOL     OW61017   2.891   1.741   2.148  0.7385 -0.0643  0.3241
51471SOL    HW161018   2.809   1.740   2.199 -0.2524  2.4039 -1.0537
51471SOL    HW261019   2.868   1.697   2.066  0.3901  1.5714 -0.5054
51472SOL     OW61020   9.952   1.577   7.854  0.5735 -0.2091 -0.1686
51472SOL    HW161021   9.976   1.540   7.769 -1.8365 -1.1024 -0.5449
51472SOL    HW261022   9.969   1.671   7.846 -0.8666 -0.0735 -2.1585
51473SOL     OW61023   5.149   0.405   8.589  0.5461 -0.1155  0.1873
51473SOL    HW161024   5.142   0.314   8.560  0.6314 -0.2378  0.5542
51473SOL    HW261025   5.103   0.408   8.672 -0.6372  0.4801 -0.4592
51474SOL     OW61026   3.406  12.001   8.639 -0.3378 -0.4297 -0.5140
51474SOL    HW161027   3.459  12.080   8.624  0.0477 -0.6744 -0.4505
51474SOL    HW261028   3.327  12.034   8.682 -1.2670  0.2241 -2.6057
51475SOL     OW61029   9.977   1.069   2.577 -1.3097 -0.0746 -0.2566
51475SOL    HW161030  10.045   1.135   2.588 -1.1132 -0.2678 -0.3048
51475SOL    HW261031   9.919   1.082   2.652 -2.3956  1.4744 -1.3109
51476SOL     OW61032   9.339  11.417   9.993 -0.3406  0.5045 -0.2762
51476SOL    HW161033   9.323  11.511   9.985 -0.4155  0.4241 -1.1672
51476SOL    HW261034   9.261  11.376   9.955  0.6856  0.1024 -2.0059
51477SOL     OW61035   4.561   7.843   9.979 -0.5098 -0.1563 -0.3482
51477SOL    HW161036   4.603   7.837  10.065  1.6095 -0.7880 -1.3451
51477SOL    HW261037   4.623   7.894   9.926 -2.1729  0.9596 -1.2950
51478SOL     OW61038   2.936   1.166   4.897  0.2612  0.0981 -0.4085
51478SOL    HW161039   2.906   1.242   4.847  0.5713  0.9332  0.6429
51478SOL    HW261040   2.856   1.124   4.928  0.0297 -0.8226 -2.1104
51479SOL     OW61041   7.386   3.301   0.484 -0.0903  0.3032  0.4459
51479SOL    HW161042   7.336   3.326   0.407 -0.7031 -4.4296 -0.9899
51479SOL    HW261043   7.473   3.278   0.450 -0.2418 -1.4540  1.1669
51480SOL     OW61044   7.217  10.826  10.998 -0.0200 -0.4477 -0.4925
51480SOL    HW161045   7.202  10.894  10.932  0.7729 -0.1411 -0.3697
51480SOL    HW261046   7.286  10.771  10.961 -1.6842 -2.1264 -1.2684
51481SOL     OW61047   6.570   0.137   6.862  0.3940  0.1965  0.0081
51481SOL    HW161048   6.578   0.048   6.827  0.2277  0.8104 -1.6776
51481SOL    HW261049   6.532   0.188   6.790  0.1341  1.5589  1.0685
51482SOL     OW61050   8.633   4.808   6.522  0.3152 -0.1733  0.0508
51482SOL    HW161051   8.664   4.849   6.441 -0.2696 -1.2412 -0.7397
51482SOL    HW261052   8.687   4.848   6.591  1.4560  0.0960 -0.9532
51483SOL     OW61053   7.745   6.046  12.235  0.2718 -0.4218  0.2878
51483SOL    HW161054   7.797   6.110  12.282 -2.9624  1.3357  1.7705
51483SOL    HW261055   7.737   6.081  12.146 -0.4064  0.5917  0.7414
51484SOL     OW61056   0.877  10.373   0.699  0.1796 -0.3012 -0.7264
51484SOL    HW161057   0.871  10.332   0.786  0.7588  0.5981 -0.2441
51484SOL    HW261058   0.843  10.462   0.713 -3.4287 -1.2790 -2.2797
51485SOL     OW61059   1.892   5.020   9.945 -0.3389  0.0733  0.8823
51485SOL    HW161060   1.963   5.028   9.881  0.6919  0.4644  2.0228
51485SOL    HW261061   1.865   5.111   9.962 -0.0646  0.0424  1.5472
51486SOL     OW61062   9.661   0.644  11.699  0.8721 -0.5541  0.2571
51486SOL    HW161063   9.704   0.634  11.783  0.0880 -1.5319  0.5717
51486SOL    HW261064   9.670   0.736  11.677  1.7573 -0.4493  1.0408
51487SOL     OW61065   4.015   7.199   2.982  0.3283 -0.3586  0.1677
51487SOL    HW161066   3.922   7.184   2.965  0.1031 -0.1709  1.1527
51487SOL    HW261067   4.020   7.290   3.011  0.9571 -0.0804 -0.7686
51488SOL     OW61068  12.553   7.068   2.485 -0.2091  0.0870 -0.2850
51488SOL    HW161069  12.500   7.022   2.420  1.1906 -1.1187 -0.6280
51488SOL    HW261070  12.629   7.098   2.436 -0.0183  0.8045  0.4306
51489SOL     OW61071   4.849  11.347   5.488  0.0827  0.3385  0.0883
51489SOL    HW161072   4.851  11.316   5.397 -0.7248  1.3038 -0.2762
51489SOL    HW261073   4.777  11.298   5.528 -0.9093  1.3560 -0.3724
51490SOL     OW61074  12.686   8.077   9.848  0.1603  0.0806 -0.2087
51490SOL    HW161075  12.698   8.134   9.772  0.9726 -1.3463 -1.2113
51490SOL    HW261076  12.727   7.994   9.822 -1.9370 -1.3337  0.7623
51491SOL     OW61077   4.822  12.412   6.271  0.4897 -0.2914  0.8739
51491SOL    HW161078   4.750  12.367   6.316  0.3450 -0.1411  0.7930
51491SOL    HW261079   4.815  12.502   6.301 -0.6536  0.2020 -0.7292
51492SOL     OW61080  12.542  10.316  12.211  0.3953 -0.0176  0.0805
51492SOL    HW161081  12.587  10.400  12.224 -0.2227  0.5761 -1.3636
51492SOL    HW261082  12.610  10.250  12.221  1.1581  0.7388  0.0094
51493SOL     OW61083   8.483   4.502   1.310  0.5154  0.1706  0.0453
51493SOL    HW161084   8.442   4.422   1.279 -0.8502  0.4582  0.9932
51493SOL    HW261085   8.451   4.512   1.400  2.5002  0.5579  0.7680
51494SOL     OW61086   2.722   7.541   9.495 -0.4970 -0.0106 -0.0419
51494SOL    HW161087   2.700   7.605   9.427  1.9337  1.3791  0.3280
51494SOL    HW261088   2.643   7.533   9.548 -1.1132  2.2023 -0.5219
51495SOL     OW61089   7.473  12.577   3.690 -0.4758  0.2117  0.0134
51495SOL    HW161090   7.481  12.484   3.706 -0.1633 -0.2808 -2.5521
51495SOL    HW261091   7.470  12.585   3.595  0.9590  2.9305  0.0903
51496SOL     OW61092   3.693   7.390   5.435  0.1747  0.1927 -0.1937
51496SOL    HW161093   3.644   7.388   5.353  0.1015  0.1697 -0.1490
51496SOL    HW261094   3.722   7.299   5.447  1.6546  0.5137 -1.0851
51497SOL     OW61095   7.399  11.192   9.363 -0.6004  0.4799  0.2716
51497SOL    HW161096   7.367  11.236   9.442 -1.0959 -1.7132  1.3882
51497SOL    HW261097   7.326  11.136   9.336  0.0979  0.0901 -0.8718
51498SOL     OW61098   0.489  11.037   8.846  0.0510 -0.6992 -0.0530
51498SOL    HW161099   0.560  10.977   8.821  1.2441  0.9838 -0.8657
51498SOL    HW261100   0.472  11.016   8.938  2.2073 -0.6135  0.4237
51499SOL     OW61101   4.092   4.776   9.550 -0.5294  0.1598 -0.8466
51499SOL    HW161102   4.140   4.782   9.632 -1.5842 -0.8162 -0.1174
51499SOL    HW261103   4.014   4.830   9.563 -0.2612  0.7319 -1.5517
51500SOL     OW61104   7.004   0.253  10.237  0.0649 -0.1216 -0.2350
51500SOL    HW161105   7.010   0.345  10.262  0.0103  0.3620 -1.8839
51500SOL    HW261106   7.094   0.221  10.242  0.2272  0.2795 -0.5950
51501SOL     OW61107   4.320  12.451   9.832  0.0715  0.2350 -0.4730
51501SOL    HW161108   4.351  12.365   9.803 -0.5719  0.0718 -0.6953
51501SOL    HW261109   4.399  12.504   9.840  0.4679 -0.3592 -0.3998
51502SOL     OW61110   9.645  12.716   4.241 -0.0425  0.4026  0.8407
51502SOL    HW161111   9.681  12.628   4.234 -0.1216  0.4941 -1.9218
51502SOL    HW261112   9.721  12.773   4.250  0.2089  0.2234 -0.0528
51503SOL     OW61113   1.583   1.647   2.605 -0.2174 -1.0326 -0.2507
51503SOL    HW161114   1.635   1.705   2.661 -1.3262 -1.2658  1.0810
51503SOL    HW261115   1.555   1.702   2.533 -0.8079 -0.0331  0.7184
51504SOL     OW61116   9.556  12.755   3.987 -0.0782  0.1886  0.3683
51504SOL    HW161117   9.592  12.730   4.072 -1.1085 -2.1466  0.1965
51504SOL    HW261118   9.518  12.841   4.002  0.7173  0.2951  1.9858
51505SOL     OW61119  11.238  10.361   5.801 -0.0171  0.1364  0.1849
51505SOL    HW161120  11.333  10.355   5.809  0.0951  1.1720 -0.2640
51505SOL    HW261121  11.211  10.417   5.874 -0.1072  1.1088 -0.5784
51506SOL     OW61122   4.831   2.595   8.811  0.2911 -0.3400  0.6645
51506SOL    HW161123   4.831   2.610   8.717 -1.1412 -0.2166  0.6709
51506SOL    HW261124   4.915   2.632   8.841  1.4633 -1.7360 -0.7398
51507SOL     OW61125  10.906   3.960   6.649 -0.1490 -0.0136 -0.0888
51507SOL    HW161126  10.909   3.865   6.655  3.9573 -0.1463 -1.2144
51507SOL    HW261127  10.880   3.989   6.736 -2.3002 -2.0800  0.0608
51508SOL     OW61128  12.444   9.227   4.759  0.1201 -0.0873  0.2949
51508SOL    HW161129  12.424   9.134   4.754 -1.5111  0.2324  0.0521
51508SOL    HW261130  12.403   9.264   4.680 -1.4508  1.1526  1.6189
51509SOL     OW61131   4.101   2.325   0.550 -0.1344  0.1808 -0.2028
51509SOL    HW161132   4.094   2.265   0.625 -0.2947 -0.2949 -0.5939
51509SOL    HW261133   4.105   2.267   0.474  0.3495  0.6543 -0.5422
51510SOL     OW61134   5.914   3.634   1.937  0.0072 -0.4589 -0.7929
51510SOL    HW161135   5.837   3.594   1.979 -0.2645  0.3210 -0.5280
51510SOL    HW261136   5.877   3.690   1.869  0.2798  0.5953 -0.0925
51511SOL     OW61137   9.519   0.209  10.066  0.4959  0.1219 -0.1487
51511SOL    HW161138   9.545   0.281  10.123  0.3936  1.5936 -1.8472
51511SOL    HW261139   9.434   0.181  10.099  1.5808 -0.8681  1.9830
51512SOL     OW61140   3.309   8.745   4.602 -0.2329  0.5087  0.2978
51512SOL    HW161141   3.299   8.813   4.668  2.4393  1.1410  0.1954
51512SOL    HW261142   3.310   8.792   4.519 -0.6737  0.0536  0.0275
51513SOL     OW61143   0.996   4.601   7.405 -0.0605 -0.1491 -0.3676
51513SOL    HW161144   0.933   4.552   7.354  0.8774 -2.0322  0.1839
51513SOL    HW261145   0.954   4.614   7.490 -1.3751  2.4550 -1.2903
51514SOL     OW61146   0.023   8.523   0.917  0.5399 -0.5032  0.1507
51514SOL    HW161147   0.029   8.429   0.899  0.6996 -0.8769  1.9306
51514SOL    HW261148  -0.070   8.542   0.915  0.4889 -0.7510  0.0578
51515SOL     OW61149   8.521   0.572   5.385  0.3299  0.3439 -0.4104
51515SOL    HW161150   8.479   0.658   5.387 -2.2004 -0.8110 -0.1437
51515SOL    HW261151   8.518   0.541   5.476 -0.2059 -0.6395 -0.7438
51516SOL     OW61152  12.408   5.198  10.860  0.0228 -0.3809  0.3396
51516SOL    HW161153  12.448   5.243  10.935  1.1402 -1.7878  0.6441
51516SOL    HW261154  12.326   5.245  10.844  1.3421  2.1049  0.2693
51517SOL     OW61155  11.970   8.181  12.192  0.3646  0.2761 -0.8954
51517SOL    HW161156  11.875   8.193  12.205  0.0404 -1.8715 -0.9990
51517SOL    HW261157  11.982   8.189  12.098 -0.3445 -2.8899 -1.3589
51518SOL     OW61158  10.935   9.788   3.862  0.2362 -0.6462  0.2426
51518SOL    HW161159  10.940   9.696   3.890 -0.1740 -0.9879 -0.7702
51518SOL    HW261160  10.856   9.822   3.904 -0.5523 -1.2437 -0.7102
51519SOL     OW61161   0.933  12.656   8.154  0.9124  0.1350 -0.1182
51519SOL    HW161162   0.844  12.646   8.188  0.8207 -0.6101 -0.5672
51519SOL    HW261163   0.938  12.748   8.127  0.9398  0.7186  1.7254
51520SOL     OW61164   8.848   7.687   7.067 -0.1308  0.2906  0.2551
51520SOL    HW161165   8.919   7.749   7.047  0.5074 -0.8245 -1.0701
51520SOL    HW261166   8.871   7.652   7.153 -0.8594  2.3271  1.3605
51521SOL     OW61167   9.993  12.328   6.411 -0.3102  0.3412  0.3246
51521SOL    HW161168   9.967  12.268   6.481 -1.7108  1.3909  0.7650
51521SOL    HW261169   9.911  12.348   6.365 -0.5260  4.0747  1.9586
51522SOL     OW61170   8.531   5.022  12.640  0.4271  0.0167 -0.5539
51522SOL    HW161171   8.453   5.067  12.673  1.0836  1.6590 -1.0962
51522SOL    HW261172   8.605   5.069  12.680  1.1578 -0.3131 -1.4577
51523SOL     OW61173   8.599   7.624   1.548  0.2807 -0.0456  0.5278
51523SOL    HW161174   8.675   7.669   1.511  1.0981 -0.5255  1.5595
51523SOL    HW261175   8.591   7.660   1.636 -0.6596 -0.0498  0.4543
51524SOL     OW61176  10.295   2.816   2.306 -0.1148  0.2541  0.9060
51524SOL    HW161177  10.273   2.904   2.274  1.0722  0.5616  0.8898
51524SOL    HW261178  10.308   2.764   2.227  1.2556  0.6152  0.8648
51525SOL     OW61179  11.090   3.577   3.762 -0.2027  0.1506 -0.4478
51525SOL    HW161180  11.049   3.520   3.827  0.1646 -0.9007 -1.1090
51525SOL    HW261181  11.046   3.555   3.680 -0.5492  1.3465 -0.6016
51526SOL     OW61182   6.987   4.618   0.169 -0.5158  0.9918  0.3718
51526SOL    HW161183   6.931   4.545   0.195  0.3219 -0.3914 -1.4776
51526SOL    HW261184   6.952   4.646   0.084  0.8808  0.8307 -0.2793
51527SOL     OW61185   3.057  12.672   3.695 -0.1695 -0.4187 -0.5821
51527SOL    HW161186   3.078  12.693   3.786 -2.3556  1.4652 -0.4163
51527SOL    HW261187   3.124  12.718   3.644  0.1713 -0.2199  0.0295
51528SOL     OW61188   0.639   4.728   7.507 -0.2347  0.3348  0.1621
51528SOL    HW161189   0.547   4.729   7.533 -0.3900  0.4620 -0.3821
51528SOL    HW261190   0.684   4.684   7.580 -1.0743 -2.2050 -0.7552
51529SOL     OW61191  10.405   0.121   9.093 -0.0836 -0.2336  0.3007
51529SOL    HW161192  10.366   0.108   9.179 -0.7134  1.1898  0.2582
51529SOL    HW261193  10.498   0.136   9.110  0.0363 -1.2374  0.6058
51530SOL     OW61194   5.086   9.704   5.346  0.1435  0.0572 -0.1309
51530SOL    HW161195   5.026   9.748   5.286  0.1283  1.5581  0.9037
51530SOL    HW261196   5.080   9.611   5.324 -3.0674  0.0333  0.3407
51531SOL     OW61197   3.360   5.767   8.216 -0.1534  0.3751  0.0249
51531SOL    HW161198   3.281   5.821   8.210  0.3803  1.4325  1.8110
51531SOL    HW261199   3.401   5.794   8.298  0.0769 -2.8454  1.0939
51532SOL     OW61200   3.153   7.459   3.866  0.0352  0.1795 -0.1568
51532SOL    HW161201   3.170   7.480   3.958 -0.7528  1.3510 -0.2556
51532SOL    HW261202   3.210   7.384   3.847 -1.3119 -1.4953  1.8768
51533SOL     OW61203   8.920   4.486  10.234 -0.1530  0.7015 -0.3427
51533SOL    HW161204   9.003   4.472  10.280 -1.3655 -0.5075  1.6332
51533SOL    HW261205   8.874   4.403  10.240 -2.0590  1.6978 -0.1687
51534SOL     OW61206  12.113  10.484   8.164 -0.3817  0.4639  0.7277
51534SOL    HW161207  12.190  10.448   8.208  0.3006 -1.8830 -2.0892
51534SOL    HW261208  12.145  10.560   8.117  0.9750 -1.6917 -2.1894
51535SOL     OW61209   8.667  11.574   0.441 -0.1385 -0.3233  0.2193
51535SOL    HW161210   8.693  11.514   0.371  1.0145 -0.0965  0.4378
51535SOL    HW261211   8.575  11.553   0.457 -0.1508 -1.0413 -0.6967
51536SOL     OW61212   8.398  11.464   5.299  0.1303 -0.1867 -0.6659
51536SOL    HW161213   8.305  11.468   5.321 -0.4302 -1.8464 -2.4865
51536SOL    HW261214   8.433  11.550   5.325 -2.0587  0.7537 -0.6554
51537SOL     OW61215  12.458   3.363   2.035 -0.6356  0.3221  0.4468
51537SOL    HW161216  12.548   3.386   2.060 -0.3692  5.1784 -3.4262
51537SOL    HW261217  12.467   3.319   1.951 -1.7871  1.1779 -0.1610
51538SOL     OW61218  12.044   0.702   8.634 -0.5149  0.4224 -0.0363
51538SOL    HW161219  11.981   0.687   8.563 -0.6481  2.2950 -0.3587
51538SOL    HW261220  12.032   0.794   8.657  1.1064  0.4244  0.8850
51539SOL     OW61221  11.709   7.288   7.140  0.7024  0.1060 -0.3578
51539SOL    HW161222  11.796   7.255   7.119  0.4850 -0.1869 -0.8200
51539SOL    HW261223  11.723   7.348   7.213  1.5908  1.7771 -1.8394
51540SOL     OW61224   2.582  11.601   4.991  0.0052  0.5027  0.5141
51540SOL    HW161225   2.566  11.551   4.911 -0.6362  0.6889  0.5192
51540SOL    HW261226   2.668  11.573   5.020 -0.8242 -1.5212  1.2035
51541SOL     OW61227   3.833  11.260  10.155 -0.3964 -0.0246 -0.3506
51541SOL    HW161228   3.844  11.328  10.222  0.6968 -1.1772  0.6793
51541SOL    HW261229   3.852  11.178  10.200  0.5994 -0.8288 -2.1228
51542SOL     OW61230   2.412  12.497   3.194 -0.6538  0.0716 -0.5686
51542SOL    HW161231   2.500  12.496   3.232 -1.3192 -0.4641  1.0267
51542SOL    HW261232   2.363  12.559   3.248 -2.1013 -1.9947  0.6377
51543SOL     OW61233   2.481   7.845   2.115 -0.3181 -0.3242  0.1611
51543SOL    HW161234   2.442   7.931   2.132  1.9047  0.6758  0.6880
51543SOL    HW261235   2.532   7.827   2.194  0.8967 -1.1392 -0.7853
51544SOL     OW61236   2.669   4.823   6.857 -0.2933 -0.2658  0.5593
51544SOL    HW161237   2.710   4.831   6.944  0.9431  0.1668 -0.0360
51544SOL    HW261238   2.662   4.913   6.826  1.2372 -0.5078 -0.6377
51545SOL     OW61239   8.637  10.293   7.173  0.5451  0.2993 -0.0616
51545SOL    HW161240   8.716  10.346   7.166  0.8363 -0.0003  0.8752
51545SOL    HW261241   8.614  10.295   7.266  0.2373 -0.7341 -0.1048
51546SOL     OW61242   9.493   7.214   7.136 -0.3046 -0.2117 -0.3790
51546SOL    HW161243   9.569   7.158   7.150  0.5726  1.0437  0.0536
51546SOL    HW261244   9.461   7.191   7.049  0.4559 -0.8947 -0.4879
51547SOL     OW61245   1.396  12.712   7.117 -0.3056 -0.0260  0.0811
51547SOL    HW161246   1.331  12.685   7.052 -2.6607  0.0874  2.2287
51547SOL    HW261247   1.385  12.650   7.189  2.0648 -0.0313  0.5275
51548SOL     OW61248   8.005   0.365  10.575 -0.1369 -0.0970 -0.1818
51548SOL    HW161249   8.055   0.446  10.565  0.7278 -0.6145 -0.2346
51548SOL    HW261250   8.072   0.296  10.573 -1.0076 -0.9647 -2.1628
51549SOL     OW61251   3.173   0.960   7.399  0.2492  0.2533 -0.3531
51549SOL    HW161252   3.146   0.886   7.343 -0.3951  0.4339 -0.2851
51549SOL    HW261253   3.198   0.919   7.481  0.5885  0.0421 -0.5581
51550SOL     OW61254  10.882   3.788   9.523 -0.5306  0.0552 -0.2263
51550SOL    HW161255  10.873   3.859   9.460  1.7152  0.5466 -0.0948
51550SOL    HW261256  10.928   3.719   9.475  0.8993  0.3065  0.7250
51551SOL     OW61257   1.688   0.727  11.965 -0.8399  0.6193  0.5250
51551SOL    HW161258   1.694   0.703  11.872  1.8465 -0.2318  0.8328
51551SOL    HW261259   1.598   0.704  11.990 -0.6047 -2.5541 -1.0171
51552SOL     OW61260   7.538   0.869  10.468 -0.0804 -0.1329 -0.1574
51552SOL    HW161261   7.497   0.955  10.458 -0.5631 -0.3211  0.1376
51552SOL    HW261262   7.558   0.863  10.562 -0.3299 -0.4637 -0.1227
51553SOL     OW61263   0.170  11.235   1.741 -0.0186 -0.4289 -0.0651
51553SOL    HW161264   0.122  11.312   1.713  0.2647 -0.2738 -0.1246
51553SOL    HW261265   0.126  11.162   1.698 -1.4897 -0.5190  1.4820
51554SOL     OW61266  11.521   1.404   7.222  0.4416  0.0240  0.0111
51554SOL    HW161267  11.506   1.330   7.163  0.7205  0.7472 -0.9867
51554SOL    HW261268  11.615   1.402   7.239  0.6695  0.9125 -1.0700
51555SOL     OW61269   6.913   2.729   7.565  0.0853  0.3365 -0.1403
51555SOL    HW161270   6.919   2.689   7.478 -1.0765  0.4905 -0.3037
51555SOL    HW261271   6.994   2.779   7.573 -0.1304  0.9415 -1.4492
51556SOL     OW61272  12.470   2.557   1.497  0.0209 -0.4595  0.4266
51556SOL    HW161273  12.405   2.624   1.473  0.6807  0.1033  0.1661
51556SOL    HW261274  12.551   2.586   1.454  0.2950 -1.4937  0.2220
51557SOL     OW61275   8.901   1.254   0.309  0.6239  0.4815 -0.0842
51557SOL    HW161276   8.895   1.338   0.354 -1.2287 -0.6711  2.0812
51557SOL    HW261277   8.888   1.274   0.217  1.2546  2.6360  0.2506
51558SOL     OW61278  10.177  11.061   8.725  0.5468 -0.5392 -0.7079
51558SOL    HW161279  10.247  11.081   8.787  1.7207 -1.6052 -1.6494
51558SOL    HW261280  10.111  11.016   8.778 -0.2345  1.8968  0.5428
51559SOL     OW61281   0.177   3.181   3.838  0.0076 -0.0714  0.4385
51559SOL    HW161282   0.161   3.124   3.762  0.2301  1.0087 -0.4489
51559SOL    HW261283   0.163   3.269   3.805  0.0788  0.4213  1.6829
51560SOL     OW61284   0.385   1.698   3.174  0.2946 -0.1439  0.6598
51560SOL    HW161285   0.420   1.702   3.263 -3.3614  0.4849  2.2660
51560SOL    HW261286   0.312   1.636   3.179 -0.6242  0.6221 -1.6363
51561SOL     OW61287   4.170  11.223  12.603  0.1479 -0.3673 -0.0194
51561SOL    HW161288   4.199  11.139  12.569  0.4784 -0.1486 -0.2860
51561SOL    HW261289   4.098  11.249  12.545  0.5960 -0.0770 -0.4568
51562SOL     OW61290   2.301   2.300  10.787 -0.4809  0.5931 -0.2831
51562SOL    HW161291   2.332   2.302  10.878 -0.0273 -1.4592 -0.3339
51562SOL    HW261292   2.354   2.232  10.746 -1.0595  1.1093 -1.9573
51563SOL     OW61293   6.990   8.188  10.960  0.5592 -0.2871  0.2026
51563SOL    HW161294   6.977   8.248  10.886 -0.0234 -0.3145  0.2778
51563SOL    HW261295   7.082   8.197  10.982  0.2167  1.6084  1.0887
51564SOL     OW61296   6.917  12.615   5.877 -0.0182 -0.4501 -0.4089
51564SOL    HW161297   7.001  12.569   5.879  0.4151  0.2118 -1.6888
51564SOL    HW261298   6.884  12.601   5.788 -0.0367  1.3458 -0.7405
51565SOL     OW61299  11.136   5.996   0.507 -0.3642  0.1723  0.3444
51565SOL    HW161300  11.130   5.912   0.461 -0.1580 -0.0516  0.7257
51565SOL    HW261301  11.230   6.013   0.514 -0.3988  0.3150  0.4856
51566SOL     OW61302   8.008  12.496   7.350 -0.3446  0.2429 -0.4512
51566SOL    HW161303   8.097  12.517   7.378  0.2718 -0.7251 -1.6036
51566SOL    HW261304   7.973  12.441   7.420  0.4485 -0.4697 -0.6056
51567SOL     OW61305   9.994   3.772   0.166  0.4397 -0.2873 -0.2086
51567SOL    HW161306  10.074   3.794   0.119  2.2412 -1.0311  2.2987
51567SOL    HW261307  10.017   3.695   0.218 -0.7770  1.4009  3.1304
51568SOL     OW61308   0.907  11.539   3.715  0.4392  0.0022  0.1797
51568SOL    HW161309   0.951  11.468   3.668 -2.3277 -1.1280 -0.9277
51568SOL    HW261310   0.832  11.497   3.757 -1.7668  2.2990 -1.1607
51569SOL     OW61311  10.585   6.885  10.166  0.1807 -0.3410  0.2842
51569SOL    HW161312  10.626   6.956  10.216 -0.0304  0.1768 -0.2643
51569SOL    HW261313  10.496   6.879  10.202  0.1669 -0.2608  0.2651
51570SOL     OW61314   5.456   1.880   0.836  0.0579 -0.3451 -0.3252
51570SOL    HW161315   5.505   1.802   0.809 -1.2027 -1.0969 -0.5280
51570SOL    HW261316   5.371   1.847   0.864 -1.2754  1.1156 -2.3633
51571SOL     OW61317  10.409   8.192   2.668  0.0031  0.4790 -0.8665
51571SOL    HW161318  10.396   8.213   2.576  1.9874  1.4944 -0.9617
51571SOL    HW261319  10.501   8.165   2.674 -0.8573 -2.6843  0.3148
51572SOL     OW61320  10.950   2.763   5.355  0.1218 -0.5080  0.2057
51572SOL    HW161321  10.947   2.668   5.343 -0.2151 -0.7877  2.1123
51572SOL    HW261322  11.027   2.791   5.306  0.7924 -1.9112  0.4043
51573SOL     OW61323   1.786  12.314   9.846 -0.7659  0.2131 -0.0383
51573SOL    HW161324   1.850  12.269   9.790 -1.9926 -0.9932 -0.5122
51573SOL    HW261325   1.765  12.395   9.799  1.7095  1.5774  0.9781
51574SOL     OW61326   5.115   9.406   7.852 -0.4507 -0.1684 -0.3562
51574SOL    HW161327   5.193   9.455   7.827 -0.2662 -0.8989 -1.2815
51574SOL    HW261328   5.066   9.466   7.909  1.0193  0.1036  0.6800
51575SOL     OW61329   6.289   5.501   2.914 -0.2441 -0.0114 -0.0274
51575SOL    HW161330   6.312   5.472   2.826 -0.6839  0.8064 -0.4308
51575SOL    HW261331   6.240   5.428   2.952  0.2142 -0.4855 -0.3492
51576SOL     OW61332   6.504   3.040   8.394 -0.3137 -0.1261  0.6329
51576SOL    HW161333   6.544   3.128   8.392 -1.0087  0.2007 -1.3173
51576SOL    HW261334   6.563   2.987   8.341 -0.5534 -0.5381  0.7794
51577SOL     OW61335   8.396   2.453   2.639  0.0326  0.6319  0.4660
51577SOL    HW161336   8.476   2.505   2.638  0.2974  0.2331  0.3655
51577SOL    HW261337   8.401   2.402   2.558  0.7336 -0.9597  1.4577
51578SOL     OW61338   2.574  12.575   7.350  0.3342  0.1189 -0.6886
51578SOL    HW161339   2.624  12.493   7.353  0.4871  0.2266 -0.1924
51578SOL    HW261340   2.491  12.551   7.310  0.6228 -0.1476 -1.1413
51579SOL     OW61341  11.615   2.357   2.924  0.2247  0.0796  0.0273
51579SOL    HW161342  11.573   2.355   2.838  1.5134  0.4578 -0.6399
51579SOL    HW261343  11.543   2.368   2.985 -0.6469  0.9555 -1.0939
51580SOL     OW61344   8.891   4.211  10.462 -0.2114 -0.4742 -0.4623
51580SOL    HW161345   8.826   4.233  10.396  1.4984  3.7235 -1.0117
51580SOL    HW261346   8.975   4.231  10.422  1.2567 -2.3089  1.4384
51581SOL     OW61347   4.836   5.360   4.985 -0.7698  0.5563 -0.1177
51581SOL    HW161348   4.807   5.381   4.896  1.8732  1.0096 -0.9684
51581SOL    HW261349   4.873   5.271   4.978 -2.2561 -0.1994  1.0172
51582SOL     OW61350  10.608   4.532   3.746 -0.6774  0.1629  0.5178
51582SOL    HW161351  10.695   4.555   3.714 -0.4565 -2.4298 -1.0038
51582SOL    HW261352  10.551   4.546   3.671 -0.9912 -1.3187  0.4606
51583SOL     OW61353   0.331  11.671   3.328  0.2541  0.2512  0.5437
51583SOL    HW161354   0.377  11.643   3.249 -0.9897  0.5309 -0.3256
51583SOL    HW261355   0.358  11.610   3.396  1.3077 -0.0320 -0.1151
51584SOL     OW61356   0.173   3.918   5.214  0.1990  0.6281 -0.2964
51584SOL    HW161357   0.195   3.960   5.131  1.6697  1.4823  0.4768
51584SOL    HW261358   0.258   3.904   5.257 -0.5791  1.6934  1.7545
51585SOL     OW61359   5.132   1.908  10.491 -0.0522  0.1562  0.0977
51585SOL    HW161360   5.043   1.938  10.470 -0.1406  0.2270  0.5657
51585SOL    HW261361   5.119   1.828  10.542  0.1826 -0.5952 -0.9900
51586SOL     OW61362  10.546  10.666   9.809 -0.2227 -0.4064  0.1950
51586SOL    HW161363  10.608  10.700   9.745 -1.1995 -1.2241 -1.2338
51586SOL    HW261364  10.545  10.731   9.879  1.9960 -0.2322  0.1299
51587SOL     OW61365   9.653   1.329   7.158  0.1350  0.4139 -0.2010
51587SOL    HW161366   9.587   1.260   7.159  2.1731 -1.7299 -1.7841
51587SOL    HW261367   9.638   1.375   7.076 -0.5007  1.1396  0.3100
51588SOL     OW61368   1.087   9.449   2.628  0.2584  0.0893 -0.0138
51588SOL    HW161369   1.143   9.409   2.695  1.3825  0.3635 -0.7616
51588SOL    HW261370   1.023   9.381   2.608 -0.4957  0.2196  1.7570
51589SOL     OW61371   8.985  11.721   6.339 -0.1651  0.6241  0.2773
51589SOL    HW161372   8.966  11.647   6.397 -1.2010  2.0037  1.7910
51589SOL    HW261373   8.922  11.712   6.268  0.1315 -0.2765  0.1122
51590SOL     OW61374   7.072  12.692   2.994 -0.1425 -0.1434 -0.4013
51590SOL    HW161375   6.988  12.681   3.038  1.1057 -3.5646  1.5065
51590SOL    HW261376   7.068  12.636   2.917  0.1172  0.2930 -0.7370
51591SOL     OW61377  10.599  11.952   9.027  0.1895 -0.4204  0.0952
51591SOL    HW161378  10.577  12.036   9.066  0.8036 -0.1605 -0.1117
51591SOL    HW261379  10.517  11.903   9.028  0.2392 -0.5344  1.9924
51592SOL     OW61380  10.026   6.326   7.447 -0.6540  0.5287  0.2288
51592SOL    HW161381  10.054   6.373   7.368  0.6309 -1.0121 -0.3161
51592SOL    HW261382  10.012   6.394   7.512 -1.9985  1.8819 -1.3695
51593SOL     OW61383   8.340  10.047   4.516  0.2554 -0.2261  0.1205
51593SOL    HW161384   8.325  10.132   4.557 -0.6242  1.4868 -3.3173
51593SOL    HW261385   8.346  10.067   4.422  1.3469 -3.8373 -0.7331
51594SOL     OW61386   4.974   1.789   8.111 -0.2335 -0.0203  0.5626
51594SOL    HW161387   4.938   1.715   8.159  0.5565 -0.4752  0.4722
51594SOL    HW261388   5.040   1.826   8.170 -0.3701  0.3955  0.4612
51595SOL     OW61389  10.303   9.243   9.775 -0.1992 -0.6927  0.1938
51595SOL    HW161390  10.304   9.330   9.736 -1.5531 -0.5779  0.3733
51595SOL    HW261391  10.350   9.253   9.857  0.1044 -0.2595 -0.0270
51596SOL     OW61392   9.065   2.815  12.779  0.0862 -0.0825 -0.4963
51596SOL    HW161393   9.081   2.779  12.866  0.9725  1.8835  0.1985
51596SOL    HW261394   9.139   2.785  12.726  0.5008  0.2211 -0.0902
51597SOL     OW61395   1.320   6.418   3.517  0.5147  0.0700  0.4800
51597SOL    HW161396   1.283   6.331   3.529  2.0471 -0.7220 -0.2248
51597SOL    HW261397   1.396   6.421   3.574  0.4769  0.9574  0.5064
51598SOL     OW61398   4.533   0.612  10.784  0.1432 -0.3304 -0.3435
51598SOL    HW161399   4.537   0.678  10.715  2.9057 -0.3102 -0.2525
51598SOL    HW261400   4.583   0.649  10.856 -0.4774 -1.4448  0.6926
51599SOL     OW61401   6.501   3.262   2.124  0.0109 -0.2562 -0.1405
51599SOL    HW161402   6.443   3.290   2.054  0.3231 -0.5614 -0.5230
51599SOL    HW261403   6.551   3.341   2.148  0.5301 -0.3542 -0.8682
51600SOL     OW61404   2.151   8.012  10.523  0.3522  0.2747  0.1307
51600SOL    HW161405   2.196   7.987  10.442  0.7597  1.8943 -0.1694
51600SOL    HW261406   2.152   7.932  10.576  1.6803 -0.3263 -0.7393
51601SOL     OW61407   1.879   8.002   2.839  0.2005  0.7437  0.1725
51601SOL    HW161408   1.894   8.080   2.893  1.2122 -0.5303  1.8209
51601SOL    HW261409   1.891   7.929   2.899  1.8040 -0.7774 -1.8730
51602SOL     OW61410   7.571   4.993  10.659 -0.3164 -0.0237  0.5030
51602SOL    HW161411   7.652   4.970  10.705  0.2007  0.6080 -0.0779
51602SOL    HW261412   7.542   4.910  10.621  1.3825  0.1353 -1.3331
51603SOL     OW61413   5.747   4.676   9.007 -0.5785  0.5012 -0.1010
51603SOL    HW161414   5.655   4.667   9.031 -0.9037  0.9448 -1.1498
51603SOL    HW261415   5.792   4.609   9.059 -1.8072 -1.4173 -1.4206
51604SOL     OW61416   3.432   9.401   4.317 -0.1831 -0.0175  0.1982
51604SOL    HW161417   3.468   9.388   4.230  0.3068 -0.3673  0.4500
51604SOL    HW261418   3.442   9.495   4.333 -0.1413  0.0232 -0.0609
51605SOL     OW61419   0.558  11.248   7.717 -0.3132  0.4558 -0.3454
51605SOL    HW161420   0.505  11.168   7.717  2.0925 -1.2459  0.6048
51605SOL    HW261421   0.494  11.319   7.721 -2.6789 -1.2392 -3.4931
51606SOL     OW61422  12.161  11.316   0.655  0.3907 -0.0031  0.1975
51606SOL    HW161423  12.167  11.404   0.691 -1.9959 -0.2514  1.4295
51606SOL    HW261424  12.152  11.259   0.731 -1.1096 -0.9480 -0.6294
51607SOL     OW61425   5.603  11.752  10.441  0.2304 -0.0078 -0.2900
51607SOL    HW161426   5.649  11.690  10.499 -0.8303  0.0898  0.6988
51607SOL    HW261427   5.511  11.744  10.467 -0.0221  1.4096 -0.6914
51608SOL     OW61428   0.760   2.409   2.368 -0.4150 -0.3869  0.6750
51608SOL    HW161429   0.775   2.437   2.277  0.7740  0.2822  1.0559
51608SOL    HW261430   0.668   2.427   2.384 -0.3275  0.7663  0.0231
51609SOL     OW61431   7.552  10.321  11.608  0.4801  0.3465 -0.2857
51609SOL    HW161432   7.586  10.233  11.622  1.5384  0.6912 -0.5404
51609SOL    HW261433   7.528  10.323  11.515 -1.1363 -0.1731  0.0908
51610SOL     OW61434  12.285   4.858   9.727  0.1530 -0.1397  0.1873
51610SOL    HW161435  12.282   4.951   9.704 -2.1050 -0.4997 -1.2966
51610SOL    HW261436  12.252   4.855   9.817 -0.3276  0.4698  0.0402
51611SOL     OW61437   8.104   8.738   2.093 -0.1129 -0.3413 -0.0399
51611SOL    HW161438   8.186   8.699   2.124 -0.4454 -0.5898  0.5601
51611SOL    HW261439   8.083   8.804   2.160 -1.1953 -1.3548  0.6534
51612SOL     OW61440   4.945   2.620   6.946  0.1436 -0.0838 -0.1962
51612SOL    HW161441   4.893   2.541   6.933 -0.7152  0.2552  0.9568
51612SOL    HW261442   4.962   2.622   7.041  1.0123  0.5865 -0.3546
51613SOL     OW61443   8.695  11.766   9.438 -0.0255  0.0727 -0.0480
51613SOL    HW161444   8.665  11.806   9.356 -0.1438 -1.7414 -0.9480
51613SOL    HW261445   8.622  11.709   9.465  0.4427 -0.1732  0.7322
51614SOL     OW61446   5.270   6.529   9.874  0.2670  0.2949 -0.4279
51614SOL    HW161447   5.251   6.474   9.950  0.6383 -0.1938 -0.6901
51614SOL    HW261448   5.223   6.488   9.802  0.6682  0.2332 -0.6569
51615SOL     OW61449   2.274   8.121   3.805 -0.6159 -0.1413  0.2383
51615SOL    HW161450   2.230   8.040   3.780 -1.3827  0.9732 -2.4317
51615SOL    HW261451   2.212   8.190   3.782  0.5402  1.2652  1.1579
51616SOL     OW61452   9.439   8.151   0.046 -0.0894  0.0300 -0.4384
51616SOL    HW161453   9.508   8.145  -0.021 -1.0150 -2.9448 -1.2776
51616SOL    HW261454   9.469   8.221   0.105  2.2353  0.7387 -2.2934
51617SOL     OW61455   5.143  11.182   4.985  0.2839 -0.2709  0.2683
51617SOL    HW161456   5.152  11.276   4.971 -0.9558  0.2801  2.6692
51617SOL    HW261457   5.218  11.158   5.040 -0.2738 -0.3617  0.9921
51618SOL     OW61458   7.920  10.745   9.571 -0.3230  0.6674  0.5577
51618SOL    HW161459   7.881  10.657   9.578 -0.0146  0.5796  1.2857
51618SOL    HW261460   7.874  10.797   9.636  1.4032  0.3140  2.1418
51619SOL     OW61461   5.799   7.205  12.289 -0.2018  0.0533  0.5167
51619SOL    HW161462   5.703   7.208  12.293 -0.2112 -0.8057  1.2376
51619SOL    HW261463   5.817   7.146  12.215 -0.1800  2.0245 -1.1380
51620SOL     OW61464   1.783   8.350  10.739 -0.0229  0.3814  0.3119
51620SOL    HW161465   1.841   8.413  10.696  0.6562 -0.5874 -0.2310
51620SOL    HW261466   1.743   8.302  10.667  0.0201 -0.2868  0.7272
51621SOL     OW61467   7.087   6.868   1.509 -0.1244  0.2307  0.2425
51621SOL    HW161468   7.158   6.866   1.574  1.8696 -0.6320 -1.8098
51621SOL    HW261469   7.115   6.936   1.447 -1.8547  0.8684  0.1186
51622SOL     OW61470   6.882   9.136   0.715 -0.0376  0.1394 -0.0345
51622SOL    HW161471   6.889   9.226   0.748  0.0286  0.2828 -0.4391
51622SOL    HW261472   6.958   9.091   0.751  0.1353  0.3445 -0.1437
51623SOL     OW61473   6.372   1.101  10.026 -0.0080 -0.3630  0.3626
51623SOL    HW161474   6.371   1.178   9.969  5.3831  0.0709  0.3431
51623SOL    HW261475   6.368   1.027   9.965 -1.5555 -0.0855  0.0934
51624SOL     OW61476   3.059   7.005   9.256  0.4200 -0.0041  0.1431
51624SOL    HW161477   3.071   7.086   9.305  2.1102 -0.3686  0.4165
51624SOL    HW261478   3.117   7.014   9.180  1.0971 -1.1548  0.4828
51625SOL     OW61479  10.335   0.767   0.466  0.4998 -0.1591 -0.1687
51625SOL    HW161480  10.317   0.678   0.494 -1.2735  0.5097  1.0515
51625SOL    HW261481  10.265   0.787   0.404 -0.9884  1.3142  1.8509
51626SOL     OW61482   1.343   7.037   0.998  0.3849  0.3366  0.3561
51626SOL    HW161483   1.264   7.038   0.945 -0.0639 -0.1971  1.0051
51626SOL    HW261484   1.411   7.073   0.940 -0.0428 -0.4036 -0.6491
51627SOL     OW61485   5.652   0.187   5.972 -0.5382  0.5968  0.5188
51627SOL    HW161486   5.624   0.111   6.023 -0.3211  1.0612  1.3547
51627SOL    HW261487   5.594   0.189   5.896 -0.2080 -0.6969  0.2092
51628SOL     OW61488   2.925   1.907  10.790  0.1621 -0.6618  0.6190
51628SOL    HW161489   2.948   1.838  10.728  2.3630 -0.3454  0.9862
51628SOL    HW261490   2.866   1.965  10.741  2.0538 -0.2545 -1.3368
51629SOL     OW61491   8.086  11.697  12.561  0.1983  0.8394 -0.0162
51629SOL    HW161492   8.177  11.685  12.533  0.5194 -1.2443  1.7106
51629SOL    HW261493   8.086  11.779  12.610  0.7803  1.6384 -1.2944
51630SOL     OW61494   1.796   6.971   9.957 -0.0255  0.1832  0.1369
51630SOL    HW161495   1.742   6.922  10.018 -0.2355  0.5679  0.2619
51630SOL    HW261496   1.742   7.045   9.930 -0.0457 -0.1368 -0.7424
51631SOL     OW61497   1.416  10.431  11.043  0.1249  0.1557 -0.2503
51631SOL    HW161498   1.363  10.451  11.120  0.5193 -0.0881  0.0891
51631SOL    HW261499   1.497  10.394  11.079  0.5606  0.6108 -0.7553
51632SOL     OW61500   6.234   9.002   9.330 -0.0595 -0.9047 -0.4222
51632SOL    HW161501   6.252   9.007   9.237  2.2282 -3.3050 -0.2312
51632SOL    HW261502   6.193   9.086   9.352 -0.3378 -0.1475 -3.4732
51633SOL     OW61503   0.236   4.582   9.967 -0.0706 -0.6367 -0.2312
51633SOL    HW161504   0.201   4.646   9.906 -2.2726 -1.1708  0.3847
51633SOL    HW261505   0.170   4.512   9.970 -0.1994 -0.5361  2.8961
51634SOL     OW61506   2.358  11.490   4.350  0.1840 -0.6786 -0.1633
51634SOL    HW161507   2.300  11.561   4.321  1.3607  0.6807  0.6412
51634SOL    HW261508   2.300  11.429   4.396 -0.6706  0.5108  0.4185
51635SOL     OW61509   2.241   1.721   4.631 -0.6202  0.2157  0.1203
51635SOL    HW161510   2.257   1.805   4.588  0.1535  0.1478  0.2703
51635SOL    HW261511   2.220   1.661   4.560  2.9086 -0.4729 -0.5220
51636SOL     OW61512  12.651  11.826   3.153  0.5281  0.0356 -0.3295
51636SOL    HW161513  12.574  11.771   3.169 -0.2703  0.4941 -2.2785
51636SOL    HW261514  12.725  11.774   3.185 -0.5078 -0.7156  0.9390
51637SOL     OW61515   2.010   8.557   0.839 -0.1110  0.2817 -0.4749
51637SOL    HW161516   2.055   8.637   0.868  0.7837 -0.1968 -0.5237
51637SOL    HW261517   2.078   8.490   0.837 -0.9249 -0.5808 -0.0783
51638SOL     OW61518   3.346  10.401   2.572  0.3202  0.3192  0.4349
51638SOL    HW161519   3.383  10.329   2.521 -0.8740 -0.0431  0.0432
51638SOL    HW261520   3.252  10.390   2.564  0.1137  1.3129  1.2594
51639SOL     OW61521  12.163   0.656   9.321 -0.1251 -0.4819  0.2497
51639SOL    HW161522  12.089   0.711   9.346 -1.1594 -1.0386 -1.3513
51639SOL    HW261523  12.205   0.703   9.250  1.1765 -0.1078  1.2442
51640SOL     OW61524   5.963   8.758   7.239  0.2641  0.7297  0.1993
51640SOL    HW161525   5.908   8.714   7.303  0.3210 -0.2975 -0.4406
51640SOL    HW261526   5.946   8.712   7.157  2.0621  0.3820 -0.0221
51641SOL     OW61527   0.730   9.753  12.260 -0.3752  0.4484 -0.2968
51641SOL    HW161528   0.691   9.689  12.319 -4.1225  2.6919 -0.0186
51641SOL    HW261529   0.703   9.725  12.173  1.2130 -0.3070 -0.5917
51642SOL     OW61530   8.963   9.576  10.258 -0.4691 -0.2432  0.2964
51642SOL    HW161531   9.010   9.642  10.206 -1.6931  0.5064  0.0891
51642SOL    HW261532   8.932   9.512  10.193  0.9254 -1.1749  0.5261
51643SOL     OW61533   0.140   6.116   4.074  0.6383  0.1599  0.1895
51643SOL    HW161534   0.131   6.021   4.063 -0.6684  0.0676  1.7034
51643SOL    HW261535   0.099   6.134   4.158  2.0617  1.9139  0.5530
51644SOL     OW61536   1.624  11.696   0.275  0.3099  0.5599 -0.2592
51644SOL    HW161537   1.666  11.615   0.304 -1.0566 -0.0015  0.2328
51644SOL    HW261538   1.585  11.674   0.191  0.1037  0.7720 -0.2203
51645SOL     OW61539   4.918   5.827   7.802  0.3125  0.4078  0.3307
51645SOL    HW161540   4.935   5.758   7.867  0.0064 -0.5681 -0.5943
51645SOL    HW261541   4.829   5.857   7.822 -0.0429 -0.3682 -0.0466
51646SOL     OW61542   4.533  12.337   7.572  1.1376 -0.0495  0.4157
51646SOL    HW161543   4.578  12.378   7.646  1.2677 -0.1362  0.3837
51646SOL    HW261544   4.459  12.291   7.611  1.2215 -0.1167  0.4955
51647SOL     OW61545  11.961  10.795  11.033  0.1021  0.4811  0.0353
51647SOL    HW161546  11.953  10.880  10.991  1.9189  0.1459 -1.0929
51647SOL    HW261547  12.010  10.812  11.113  0.5711  0.4838 -0.2516
51648SOL     OW61548   7.308   8.785  10.536  0.2460  0.2502  0.1811
51648SOL    HW161549   7.368   8.712  10.519  0.2833  0.7885 -2.3633
51648SOL    HW261550   7.365   8.858  10.557  0.2003 -0.4164  3.0508
51649SOL     OW61551   6.911  11.484   5.396  0.3701  0.1001  0.0221
51649SOL    HW161552   6.921  11.527   5.310  1.7201  1.1148  0.6477
51649SOL    HW261553   6.984  11.518   5.448  0.4499 -1.6599  1.1187
51650SOL     OW61554   2.105   5.744  11.138 -0.2591 -0.5254  0.0524
51650SOL    HW161555   2.069   5.759  11.051  0.6596 -0.5962 -0.3606
51650SOL    HW261556   2.199   5.763  11.128 -0.2580  0.1232  1.1924
51651SOL     OW61557  11.008   7.790  11.171  0.0734  0.0244  0.1828
51651SOL    HW161558  10.960   7.822  11.095  0.3011  2.2138  0.9024
51651SOL    HW261559  11.098   7.780  11.140 -0.3091 -1.6455 -0.4894
51652SOL     OW61560   5.445   9.355   1.657 -0.0945 -0.1235  0.2621
51652SOL    HW161561   5.394   9.315   1.586  0.5840 -1.3621  0.4395
51652SOL    HW261562   5.535   9.356   1.624 -0.2531  2.6033 -0.2954
51653SOL     OW61563  10.936   8.448   5.280 -0.1807 -0.1492 -0.3319
51653SOL    HW161564  11.000   8.377   5.288 -1.3160 -1.1724  0.1178
51653SOL    HW261565  10.858   8.406   5.243 -0.4536  1.1578 -1.2938
51654SOL     OW61566   8.033   1.947   8.290  0.2923  0.1459  0.2357
51654SOL    HW161567   7.999   1.934   8.201 -1.0799  1.4471  0.5343
51654SOL    HW261568   8.128   1.956   8.278  0.2217 -0.4695 -0.9913
51655SOL     OW61569   5.649   7.050   9.149 -0.0445 -0.7909 -1.1447
51655SOL    HW161570   5.564   7.088   9.174 -0.3077 -2.0555  0.0407
51655SOL    HW261571   5.713   7.096   9.204  0.0151 -0.0448 -1.8248
51656SOL     OW61572   2.874   9.295  10.698 -0.2308 -0.0504  0.7491
51656SOL    HW161573   2.843   9.267  10.784 -1.1464  0.5415  0.6309
51656SOL    HW261574   2.882   9.215  10.647  1.0465 -0.4768  1.6135
51657SOL     OW61575   0.769   4.392  10.561 -0.5673  0.6419  0.3993
51657SOL    HW161576   0.753   4.301  10.536 -1.2300  1.1723 -1.3044
51657SOL    HW261577   0.780   4.390  10.656 -0.5650 -1.2034  0.3910
51658SOL     OW61578   1.095   5.638   2.874  0.0151 -0.3337 -0.0824
51658SOL    HW161579   1.072   5.638   2.781 -0.9387  0.7785  0.1255
51658SOL    HW261580   1.030   5.579   2.914 -1.6090  1.5905  0.2808
51659SOL     OW61581   9.065   2.685   0.231 -0.1601  0.2658 -0.2480
51659SOL    HW161582   8.989   2.673   0.288  0.2042  1.3455  0.4941
51659SOL    HW261583   9.119   2.608   0.247 -0.8662 -0.2882 -0.4475
51660SOL     OW61584   5.151   3.103   5.022 -0.6342  0.1464  0.0547
51660SOL    HW161585   5.203   3.181   4.999 -0.0181 -0.3222 -0.1845
51660SOL    HW261586   5.069   3.114   4.974  0.0722 -0.1113 -1.2531
51661SOL     OW61587   3.631   8.329   1.401  0.3939 -0.4138  0.2385
51661SOL    HW161588   3.710   8.382   1.406  0.9560 -1.2405  0.2545
51661SOL    HW261589   3.580   8.356   1.478  0.6316  0.1521  0.2065
51662SOL     OW61590   9.573   1.554  11.214  0.1612 -0.0510 -0.0202
51662SOL    HW161591   9.604   1.636  11.253  0.4703 -0.6682  1.0954
51662SOL    HW261592   9.508   1.581  11.150 -1.8330  0.9974  2.2594
51663SOL     OW61593   4.488   8.480   4.137  0.5153  0.6922  0.0430
51663SOL    HW161594   4.529   8.397   4.161  0.1054  0.4034 -0.2269
51663SOL    HW261595   4.499   8.486   4.042  1.2687  1.3492  0.1604
51664SOL     OW61596   9.701   1.626   0.853 -0.5161 -0.6803  0.1892
51664SOL    HW161597   9.739   1.538   0.846 -0.5117 -0.5437 -3.2451
51664SOL    HW261598   9.609   1.610   0.874  0.1097 -1.2495  2.9199
51665SOL     OW61599   1.805   8.625  10.451 -0.0881  0.4531  0.0694
51665SOL    HW161600   1.755   8.690  10.500  0.2054 -0.5677  1.8038
51665SOL    HW261601   1.837   8.672  10.374 -1.3343  1.8689  0.3760
51666SOL     OW61602   1.777   0.085   9.301 -0.1106  0.1938  0.3873
51666SOL    HW161603   1.683   0.104   9.299 -0.7870 -2.5405 -2.7867
51666SOL    HW261604   1.818   0.165   9.268 -1.5178  0.7419 -0.1190
51667SOL     OW61605   5.496   4.005   7.162  0.2003  0.1892  0.8116
51667SOL    HW161606   5.474   3.933   7.103 -0.2665  0.0297  1.1693
51667SOL    HW261607   5.418   4.015   7.217  1.6442 -1.5745  3.3490
51668SOL     OW61608  12.402   2.892   9.569 -0.3693  0.5500 -0.0929
51668SOL    HW161609  12.421   2.946   9.646  1.2666 -0.0269 -0.0677
51668SOL    HW261610  12.435   2.943   9.495  0.9389 -0.2637 -0.0949
51669SOL     OW61611   4.747   7.520   6.585  0.1786 -0.0913  0.1443
51669SOL    HW161612   4.762   7.578   6.510 -2.8764  1.4516  0.5537
51669SOL    HW261613   4.711   7.440   6.547 -1.4696  0.7307 -0.1166
51670SOL     OW61614  10.467  11.877   2.821 -0.0933  0.0450  0.6615
51670SOL    HW161615  10.398  11.811   2.808 -1.0254  0.9747  0.7210
51670SOL    HW261616  10.425  11.960   2.798  0.5714  0.8175  2.1101
51671SOL     OW61617   3.875   8.587   3.346  0.0198  0.3395  0.6025
51671SOL    HW161618   3.870   8.604   3.252 -0.5020 -0.5471  0.4560
51671SOL    HW261619   3.969   8.580   3.364  0.1305  0.7517  0.1984
51672SOL     OW61620   2.442   3.291   8.716  0.0620  0.1177  0.0964
51672SOL    HW161621   2.421   3.338   8.635 -1.1847 -1.2711 -0.4300
51672SOL    HW261622   2.404   3.204   8.703 -0.8469  0.0981  2.4795
51673SOL     OW61623   3.219   5.954   4.518  0.0237 -0.3950  0.2928
51673SOL    HW161624   3.262   5.868   4.518  1.2165  0.1339 -1.3888
51673SOL    HW261625   3.289   6.015   4.542 -0.4318  0.2390  0.0275
51674SOL     OW61626  10.388  11.594  10.422 -0.3994 -0.2013  0.5832
51674SOL    HW161627  10.409  11.637  10.505 -0.9265 -1.0048  1.1544
51674SOL    HW261628  10.442  11.515  10.421 -1.4277 -0.9399  0.8595
51675SOL     OW61629   2.616  10.734   6.125 -0.1488  0.2218  0.6063
51675SOL    HW161630   2.570  10.716   6.206  0.4110  0.2511  0.9365
51675SOL    HW261631   2.645  10.825   6.133 -0.8088  0.4867  0.0187
51676SOL     OW61632   8.725   1.013  10.864  0.3057  0.2878  0.1621
51676SOL    HW161633   8.727   0.965  10.946  1.1474 -2.0477 -1.1351
51676SOL    HW261634   8.636   1.046  10.857  0.1445  0.2552  1.8463
51677SOL     OW61635   0.835  10.820   6.179  0.3606 -0.2202 -0.0047
51677SOL    HW161636   0.880  10.830   6.263 -0.6375 -1.6191  0.7391
51677SOL    HW261637   0.843  10.906   6.137  1.0532  0.4472  1.4163
51678SOL     OW61638  12.448   5.022   8.185 -0.1510 -0.1332  0.3803
51678SOL    HW161639  12.502   5.090   8.146  0.6278 -0.9840 -0.0604
51678SOL    HW261640  12.369   5.018   8.130  0.0250  0.0768  0.1146
51679SOL     OW61641   0.857   9.635   3.738 -0.4943  0.5636  0.0450
51679SOL    HW161642   0.774   9.588   3.740 -0.2238  0.0972  1.1907
51679SOL    HW261643   0.869   9.668   3.828  1.5041 -1.0961  0.4716
51680SOL     OW61644   9.402   6.805  11.421 -0.2899 -0.0922 -0.2088
51680SOL    HW161645   9.450   6.764  11.493  2.1591  0.4690 -1.4098
51680SOL    HW261646   9.470   6.837  11.361 -2.1408  2.2217 -1.2749
51681SOL     OW61647   9.450  11.217   2.272 -0.3841  0.0687 -0.1010
51681SOL    HW161648   9.467  11.166   2.352  2.4359  0.1085 -0.5470
51681SOL    HW261649   9.496  11.300   2.287 -1.3735  0.8138 -1.0556
51682SOL     OW61650   2.674  10.910   6.716 -0.3404 -0.4352 -0.3182
51682SOL    HW161651   2.734  10.912   6.641  1.0010  1.3605  0.7104
51682SOL    HW261652   2.622  10.831   6.703 -0.3236 -0.0682 -3.2473
51683SOL     OW61653   6.154   3.490   4.122  0.1821  0.0148 -0.7075
51683SOL    HW161654   6.146   3.455   4.211  0.8527  0.6438 -0.3918
51683SOL    HW261655   6.247   3.510   4.113  0.2661 -0.8022 -1.8482
51684SOL     OW61656  12.238   0.111   4.475 -0.1951 -0.5993 -0.7944
51684SOL    HW161657  12.238   0.201   4.442  1.4215 -0.5418 -0.6894
51684SOL    HW261658  12.158   0.072   4.438 -1.2912  1.0496 -0.2874
51685SOL     OW61659   2.183   5.148   4.439 -0.5140  0.8473  1.0983
51685SOL    HW161660   2.178   5.229   4.388 -0.7780  0.7576  0.9831
51685SOL    HW261661   2.250   5.166   4.506  0.0056  0.8832  0.5779
51686SOL     OW61662   0.234  12.078   9.424 -0.3967 -0.2143 -0.5665
51686SOL    HW161663   0.194  12.158   9.389 -2.7005 -1.0625 -0.0429
51686SOL    HW261664   0.249  12.023   9.347 -0.0719  0.1691 -0.7852
51687SOL     OW61665  11.890  10.477  12.279 -0.3003 -0.0951  0.2491
51687SOL    HW161666  11.924  10.567  12.274 -0.8583  0.0730 -0.6947
51687SOL    HW261667  11.855  10.460  12.192 -2.9323 -0.1464  1.2344
51688SOL     OW61668  12.735  12.507  11.745 -0.9707 -0.1550  0.1212
51688SOL    HW161669  12.749  12.456  11.666 -0.8586 -0.4698  0.3432
51688SOL    HW261670  12.658  12.561  11.726 -1.2615 -0.6147 -0.0064
51689SOL     OW61671   7.869   6.570  10.886  0.0300  0.1431  0.2055
51689SOL    HW161672   7.938   6.546  10.948 -0.5120 -0.4516  0.5910
51689SOL    HW261673   7.836   6.654  10.917 -0.4659 -0.3097  0.9361
51690SOL     OW61674   6.479   0.319   1.550  0.0030 -0.3656 -0.3194
51690SOL    HW161675   6.557   0.368   1.578  0.9314 -1.1443 -1.4151
51690SOL    HW261676   6.444   0.369   1.477 -0.3170 -0.2008 -0.0522
51691SOL     OW61677  11.056   9.677   6.077 -0.1484  0.3908  0.1758
51691SOL    HW161678  11.116   9.718   6.015  0.7168  0.4535  1.0203
51691SOL    HW261679  10.970   9.714   6.057 -0.1055 -0.4528 -1.7175
51692SOL     OW61680   9.308  10.964   5.423 -0.1867 -0.1264  0.2601
51692SOL    HW161681   9.232  10.937   5.372  0.0476 -1.2148  0.4527
51692SOL    HW261682   9.349  11.033   5.371  0.3546 -1.5713 -1.3225
51693SOL     OW61683  10.296   7.764   2.336 -0.0032 -0.8971 -0.0684
51693SOL    HW161684  10.383   7.804   2.343  1.2937 -3.2544 -1.2421
51693SOL    HW261685  10.256   7.805   2.259  0.7116 -0.8371 -0.4166
51694SOL     OW61686   6.126   0.251  10.241 -0.5596 -0.2669 -0.3651
51694SOL    HW161687   6.088   0.224  10.324 -0.8931 -1.0602 -0.7593
51694SOL    HW261688   6.203   0.194  10.231  0.4548  0.9713  0.1862
51695SOL     OW61689   4.634   1.540   4.928  0.0935 -0.1211  0.0898
51695SOL    HW161690   4.663   1.592   4.853  1.1021 -1.6608 -0.6321
51695SOL    HW261691   4.633   1.602   5.001  1.6538  0.8444 -0.6568
51696SOL     OW61692   6.463   7.984   3.087  0.5157 -0.2480  0.0772
51696SOL    HW161693   6.547   8.018   3.118 -0.5019  2.2638  0.3175
51696SOL    HW261694   6.449   7.904   3.138  1.6824  0.5667  1.7709
51697SOL     OW61695   1.055   4.100   4.869 -0.0213 -0.3195 -0.2951
51697SOL    HW161696   1.063   4.005   4.878 -0.7264 -0.4913 -1.2526
51697SOL    HW261697   1.108   4.120   4.792  0.9161  0.2164  0.4676
51698SOL     OW61698   5.743   0.401   2.262  0.0811 -0.1850  0.4387
51698SOL    HW161699   5.820   0.430   2.213  0.3234  0.5073  1.2281
51698SOL    HW261700   5.679   0.471   2.250 -0.4487 -0.7596 -0.2189
51699SOL     OW61701   0.831   8.340   1.966 -0.3346  0.3706  0.2098
51699SOL    HW161702   0.826   8.431   1.938 -1.0792 -0.1278 -1.3884
51699SOL    HW261703   0.775   8.337   2.044  0.8274  1.5363  1.1482
51700SOL     OW61704   3.965   1.598   7.950 -0.1311  0.1710  0.0800
51700SOL    HW161705   3.911   1.575   7.875  1.3940  0.3666 -1.1038
51700SOL    HW261706   3.997   1.687   7.931  0.2597  0.2336  0.9724
51701SOL     OW61707   9.358   3.607   7.698 -0.4652  1.0143 -0.3959
51701SOL    HW161708   9.304   3.661   7.755  0.1955  3.0706 -1.6002
51701SOL    HW261709   9.364   3.657   7.616  2.2332  0.3077 -0.7346
51702SOL     OW61710   6.987   0.495   3.379 -0.4635  0.0471 -0.0959
51702SOL    HW161711   6.953   0.408   3.399  1.1333 -0.3544  1.0877
51702SOL    HW261712   6.953   0.551   3.449 -0.2681  0.0530 -0.0050
51703SOL     OW61713   6.565   0.925   1.337 -0.0991  0.3511  0.0346
51703SOL    HW161714   6.555   0.891   1.248  0.4855 -0.7914  0.3919
51703SOL    HW261715   6.636   0.989   1.329  1.0176 -0.8504 -0.0611
51704SOL     OW61716   1.330   0.168   3.665  0.0218 -0.0716 -0.1167
51704SOL    HW161717   1.245   0.161   3.708 -0.7848  0.8123 -1.4755
51704SOL    HW261718   1.354   0.260   3.674 -0.3903  0.2512 -1.8666
51705SOL     OW61719   9.383   0.051   4.620 -0.5452  0.3544 -0.4549
51705SOL    HW161720   9.392   0.125   4.560 -1.6722  0.7536 -0.1748
51705SOL    HW261721   9.386   0.090   4.707  0.0987 -0.0960 -0.2686
51706SOL     OW61722  12.315   1.594   0.406  0.0533 -0.4076 -0.0236
51706SOL    HW161723  12.376   1.521   0.419  0.7291  0.3248  1.0659
51706SOL    HW261724  12.231   1.561   0.436  0.8950  0.0989  3.2610
51707SOL     OW61725   1.879  10.724   4.847 -0.3580 -0.0177 -0.3498
51707SOL    HW161726   1.815  10.726   4.775  0.6757 -0.7035 -1.3125
51707SOL    HW261727   1.833  10.679   4.917 -0.6183 -1.4197 -1.3776
51708SOL     OW61728  11.647   0.450   4.226 -0.5836  0.7185  0.5760
51708SOL    HW161729  11.678   0.391   4.295 -0.6021  0.9931  0.8215
51708SOL    HW261730  11.723   0.506   4.207 -0.8245  1.1868  0.9586
51709SOL     OW61731   1.778   7.058   7.141  0.2146  0.0674  0.3326
51709SOL    HW161732   1.742   6.971   7.161  0.6059 -0.2592 -0.3428
51709SOL    HW261733   1.806   7.052   7.050  3.0995 -0.1415  1.1030
51710SOL     OW61734   9.187  11.070   2.389 -0.2913 -0.5907  0.0136
51710SOL    HW161735   9.282  11.060   2.391 -0.4001 -1.7068  0.6694
51710SOL    HW261736   9.171  11.155   2.429  0.3858 -0.9337  1.0741
51711SOL     OW61737   0.969   9.310   7.131  0.3592 -0.0088 -0.2021
51711SOL    HW161738   0.995   9.227   7.171  0.9391  0.2312 -0.0665
51711SOL    HW261739   0.896   9.288   7.073  0.8129 -0.6859 -0.5174
51712SOL     OW61740   7.785   9.434  10.469 -0.1599 -0.1286  0.1266
51712SOL    HW161741   7.826   9.445  10.555 -1.9893 -0.3765  1.0679
51712SOL    HW261742   7.797   9.519  10.426 -0.7265  0.5809  1.3173
51713SOL     OW61743   6.434   7.717   4.348 -0.3263 -0.0824 -0.6246
51713SOL    HW161744   6.342   7.704   4.368 -0.5878  2.7493  0.4691
51713SOL    HW261745   6.479   7.703   4.431  0.1182 -0.3608 -0.9047
51714SOL     OW61746   8.163   9.763   5.745 -0.0230  0.5514  0.0474
51714SOL    HW161747   8.109   9.705   5.691  0.8277  1.0440 -1.3843
51714SOL    HW261748   8.100   9.821   5.788 -0.7114  0.4300 -0.7689
51715SOL     OW61749   5.956   6.674   9.280 -0.0339 -0.4371  0.4512
51715SOL    HW161750   5.863   6.676   9.257 -0.6248  1.3388  2.5821
51715SOL    HW261751   5.988   6.760   9.252  0.7460 -0.6812  0.5945
51716SOL     OW61752   4.303   8.026  10.073 -0.4992 -0.3028  0.2410
51716SOL    HW161753   4.324   7.935  10.092  1.0515  0.2780  1.5700
51716SOL    HW261754   4.304   8.069  10.159 -2.6353  0.7374 -0.1750
51717SOL     OW61755   7.339   6.401   3.176  0.3637  0.2358  0.3092
51717SOL    HW161756   7.315   6.313   3.205 -0.9524 -0.3762 -2.3574
51717SOL    HW261757   7.435   6.401   3.176  0.4641 -2.0275 -1.7205
51718SOL     OW61758  11.374   5.612   9.346  0.3246  0.0046 -0.4653
51718SOL    HW161759  11.315   5.546   9.383  1.4090 -0.9250 -0.3558
51718SOL    HW261760  11.323   5.693   9.349 -0.5609 -0.5620  0.6069
51719SOL     OW61761   9.530   3.338   0.719  1.0002  0.2005 -0.2067
51719SOL    HW161762   9.513   3.382   0.802 -0.3800  0.2419 -0.5023
51719SOL    HW261763   9.624   3.351   0.705  0.6657  3.2355 -0.3672
51720SOL     OW61764   8.102   0.631  11.272  0.3906 -0.0708 -0.0823
51720SOL    HW161765   8.182   0.667  11.233  0.4537  1.3234  1.2481
51720SOL    HW261766   8.115   0.536  11.268  1.5776  0.1003 -0.9658
51721SOL     OW61767   9.952   7.789   8.488  0.7913  0.1052  0.3553
51721SOL    HW161768  10.041   7.818   8.507  1.4904 -1.9937  0.4674
51721SOL    HW261769   9.945   7.704   8.530 -1.3647  0.3150  0.5303
51722SOL     OW61770  10.656   7.655   5.686  0.3828  0.0454 -0.0427
51722SOL    HW161771  10.581   7.595   5.690  0.4077 -0.0083 -0.3274
51722SOL    HW261772  10.647   7.711   5.763  0.8098 -0.8598  0.6904
51723SOL     OW61773   2.615  11.893   3.689 -0.1256  0.6288  0.1439
51723SOL    HW161774   2.683  11.938   3.739  0.6701 -0.3592 -0.0120
51723SOL    HW261775   2.600  11.949   3.613  0.2427  1.0459  0.3689
51724SOL     OW61776  12.555   7.579   6.797  0.1541  1.0473 -0.5743
51724SOL    HW161777  12.571   7.487   6.777  0.6719  0.9498  0.2250
51724SOL    HW261778  12.475   7.579   6.848  0.4649  0.9717 -0.0792
51725SOL     OW61779  10.497   2.762  11.320  0.6315 -0.0332  0.4350
51725SOL    HW161780  10.494   2.820  11.244  1.1158 -0.9843 -0.3369
51725SOL    HW261781  10.415   2.714  11.317  1.1153 -0.8384 -0.1222
51726SOL     OW61782  12.504   6.733  12.534  0.0803  0.0178 -0.4285
51726SOL    HW161783  12.442   6.772  12.595 -0.1619 -1.0108  0.0039
51726SOL    HW261784  12.507   6.641  12.559  1.8918  0.0667 -0.3389
51727SOL     OW61785   5.912  10.136  10.555  0.1705 -0.0245 -0.6265
51727SOL    HW161786   5.977  10.204  10.535  0.0862 -0.1682 -1.4326
51727SOL    HW261787   5.947  10.092  10.632  0.8892  0.0943 -0.8701
51728SOL     OW61788   2.597   8.275   7.600  0.1541 -0.2607  0.3011
51728SOL    HW161789   2.650   8.275   7.679 -0.1430 -0.5034  0.5019
51728SOL    HW261790   2.658   8.250   7.530  0.4292  0.0155  0.4397
51729SOL     OW61791   8.439   4.907   1.333  0.1307 -0.2818 -0.4879
51729SOL    HW161792   8.448   4.994   1.294  1.8805 -0.4085 -0.4244
51729SOL    HW261793   8.401   4.853   1.264 -1.4673  0.6109 -0.3699
51730SOL     OW61794   5.357   7.485   3.542  0.4526 -0.3900  0.4300
51730SOL    HW161795   5.364   7.391   3.531 -2.2375 -0.6383  0.3389
51730SOL    HW261796   5.354   7.499   3.637 -0.9516 -0.6111  0.4397
51731SOL     OW61797   0.798   0.235   8.645 -0.0963 -0.5198  1.1720
51731SOL    HW161798   0.725   0.228   8.585 -0.2249  1.7986  0.9756
51731SOL    HW261799   0.859   0.166   8.618 -0.8740 -0.5587 -0.5625
51732SOL     OW61800   1.023  10.467  11.541 -0.2816  0.5067 -0.3163
51732SOL    HW161801   0.960  10.413  11.494  0.7294 -0.8498 -0.1534
51732SOL    HW261802   1.014  10.554  11.500 -1.1841 -0.0190 -1.2937
51733SOL     OW61803   5.681  10.904   7.440  0.1504  0.2887 -0.2805
51733SOL    HW161804   5.684  10.847   7.517  1.1537  0.8832  0.1451
51733SOL    HW261805   5.621  10.974   7.465 -2.8594 -1.6172 -1.6056
51734SOL     OW61806   4.943   5.275  10.220  0.3876  0.2748 -0.7682
51734SOL    HW161807   4.958   5.362  10.182 -1.5883  0.1921 -1.8517
51734SOL    HW261808   4.930   5.292  10.313  0.1108  1.1501 -0.9541
51735SOL     OW61809   7.826  11.203   8.165 -0.1084 -0.1392  0.2342
51735SOL    HW161810   7.913  11.236   8.146 -0.7332  1.7857  0.4503
51735SOL    HW261811   7.795  11.166   8.082  0.7646 -0.5291  0.0740
51736SOL     OW61812  12.393   0.066   5.175 -0.5492  0.0381 -0.2123
51736SOL    HW161813  12.354   0.102   5.095 -0.5263  0.0974 -0.1970
51736SOL    HW261814  12.487   0.075   5.162 -0.5735  1.1533  0.3328
51737SOL     OW61815   9.866   3.194   6.078 -0.6149  0.3486  0.3063
51737SOL    HW161816   9.924   3.137   6.027 -1.7083 -0.3959 -0.1677
51737SOL    HW261817   9.924   3.258   6.119  0.4193  0.3154 -1.0216
51738SOL     OW61818  12.391   7.704   4.034 -0.0851  0.7207  0.3606
51738SOL    HW161819  12.421   7.614   4.044 -1.0630  0.2448 -0.7147
51738SOL    HW261820  12.430   7.751   4.108 -0.8580 -0.9056  1.8744
51739SOL     OW61821   9.194   3.708   6.288  0.5539 -0.1189 -0.2517
51739SOL    HW161822   9.192   3.697   6.193  2.8649  0.6049 -0.4506
51739SOL    HW261823   9.102   3.709   6.314 -0.1704  0.5478 -2.5822
51740SOL     OW61824   8.185  12.661  10.167  0.2421 -0.1354 -0.4939
51740SOL    HW161825   8.143  12.723  10.226 -1.8667 -0.1124 -1.9165
51740SOL    HW261826   8.247  12.713  10.116  2.0289 -0.1450  1.5401
51741SOL     OW61827   2.456   1.059   1.889 -0.1276 -0.2985 -0.0883
51741SOL    HW161828   2.475   1.141   1.934 -0.3143  0.0742 -0.6842
51741SOL    HW261829   2.434   0.998   1.959  2.8802 -0.6954  0.6660
51742SOL     OW61830   8.146   4.293   4.930  0.0902  0.1640  0.4074
51742SOL    HW161831   8.105   4.347   4.863 -1.9058  0.7663  2.0113
51742SOL    HW261832   8.174   4.355   4.997 -0.7128 -0.5940  1.4975
51743SOL     OW61833   9.545   1.526   9.374  0.4976 -0.5136 -0.3888
51743SOL    HW161834   9.513   1.518   9.284  0.5444 -1.7539 -0.3109
51743SOL    HW261835   9.494   1.597   9.411  0.6909  0.2156 -1.4865
51744SOL     OW61836   9.423   6.314   3.355  0.0427 -0.0297  0.0256
51744SOL    HW161837   9.467   6.391   3.391  0.0482  0.4396 -0.9543
51744SOL    HW261838   9.426   6.327   3.260  0.1709 -1.3068 -0.1625
51745SOL     OW61839  10.039   2.708   5.350  0.4717 -0.1478 -0.4380
51745SOL    HW161840   9.989   2.642   5.302  0.5484 -0.1313 -0.5396
51745SOL    HW261841  10.089   2.754   5.283  0.8433 -0.3507 -0.3019
51746SOL     OW61842   8.825  11.104   3.199  0.3411  0.0766 -0.0259
51746SOL    HW161843   8.748  11.155   3.176  1.5410  1.8521 -0.2995
51746SOL    HW261844   8.832  11.038   3.130 -0.8301 -0.0087 -0.0774
51747SOL     OW61845   4.521   8.107  11.853  0.6692 -0.3311 -0.1787
51747SOL    HW161846   4.531   8.123  11.760 -2.6170  0.9077 -0.4627
51747SOL    HW261847   4.573   8.175  11.895  0.9321  0.0817 -1.1547
51748SOL     OW61848  10.424  12.097  11.842  0.3534 -0.5079 -0.2422
51748SOL    HW161849  10.332  12.068  11.838 -0.3050  1.5362 -0.9682
51748SOL    HW261850  10.448  12.086  11.934 -1.4599  1.2525  0.5219
51749SOL     OW61851   0.798   7.276  11.488  0.1145 -0.0970  0.5727
51749SOL    HW161852   0.748   7.201  11.518 -0.1797  0.5533  1.7653
51749SOL    HW261853   0.854   7.300  11.562  1.1218  0.0996 -0.2188
51750SOL     OW61854   7.451   2.514   1.304 -0.6523  0.2110  0.7690
51750SOL    HW161855   7.388   2.509   1.376 -0.5288 -1.7039  0.7747
51750SOL    HW261856   7.417   2.454   1.238  0.4525  0.2107  0.1828
51751SOL     OW61857   1.213   9.163   3.616 -0.8227 -0.0019  0.0011
51751SOL    HW161858   1.217   9.218   3.694 -2.1054 -0.7645  0.6308
51751SOL    HW261859   1.140   9.199   3.565 -0.2553  0.2367 -0.6548
51752SOL     OW61860  12.531   9.403  10.464 -0.4223 -0.5571  0.6843
51752SOL    HW161861  12.584   9.386  10.542  0.2297 -1.8288  0.0093
51752SOL    HW261862  12.534   9.498  10.453  1.7538 -0.5724  0.6654
51753SOL     OW61863   8.090   8.923   5.919 -0.4144  0.1377  0.1269
51753SOL    HW161864   8.171   8.952   5.961  1.1054 -0.8173 -1.9413
51753SOL    HW261865   8.021   8.950   5.978  1.5184 -0.7879  3.0055
51754SOL     OW61866   9.423   3.537   0.967 -0.2898  0.3785 -0.0233
51754SOL    HW161867   9.497   3.586   1.002 -0.4126  1.5736 -1.3640
51754SOL    HW261868   9.397   3.479   1.039  2.4856 -0.7518  0.1992
51755SOL     OW61869   3.308   9.010   4.718 -0.2351  0.2247 -0.4102
51755SOL    HW161870   3.241   9.034   4.782  1.2615  1.2018  0.8577
51755SOL    HW261871   3.374   9.079   4.724  1.0340 -0.8329 -1.4218
51756SOL     OW61872   2.355   8.579  11.431  0.3180  0.4785  0.6992
51756SOL    HW161873   2.315   8.643  11.373 -1.1637  0.0445  1.1793
51756SOL    HW261874   2.409   8.630  11.491 -0.1904  1.1987  0.5537
51757SOL     OW61875   9.182   8.877   8.226 -0.1499 -0.1153 -0.3836
51757SOL    HW161876   9.271   8.886   8.192  0.4748 -0.4938  1.0537
51757SOL    HW261877   9.187   8.910   8.316 -1.8325  1.3274 -0.7526
51758SOL     OW61878  12.408  11.060   6.118 -0.3811 -0.1663  0.0754
51758SOL    HW161879  12.476  11.009   6.161 -0.2732  1.1158  1.5289
51758SOL    HW261880  12.332  11.002   6.116  0.3877 -1.1684 -0.4067
51759SOL     OW61881  10.529  12.721   9.472  0.1158  0.3721 -0.4910
51759SOL    HW161882  10.533  12.748   9.563  2.0513  0.0530 -0.4398
51759SOL    HW261883  10.565  12.632   9.471  1.2710  0.8086 -1.6737
51760SOL     OW61884   7.926  10.684   1.659  0.5090 -0.3425 -0.2057
51760SOL    HW161885   7.871  10.627   1.604 -0.5435 -1.0850  1.5346
51760SOL    HW261886   7.966  10.745   1.597 -0.7893 -0.9974 -1.7744
51761SOL     OW61887   9.636  10.691  11.036 -0.5523  0.0928  0.1830
51761SOL    HW161888   9.691  10.659  11.107  0.8749 -1.3305 -1.4786
51761SOL    HW261889   9.586  10.763  11.075  2.3297  1.3790  1.8338
51762SOL     OW61890   3.886  12.676   1.938  0.2972 -0.2820 -0.6790
51762SOL    HW161891   3.862  12.633   1.856  1.1383 -1.0403 -0.5384
51762SOL    HW261892   3.945  12.614   1.981 -1.8908 -0.9630  1.5890
51763SOL     OW61893  11.659   5.055   3.038  0.3982  0.2801 -0.0425
51763SOL    HW161894  11.749   5.075   3.063  0.2400  1.4526 -0.3164
51763SOL    HW261895  11.607   5.122   3.083 -0.2843 -0.1086 -0.2497
51764SOL     OW61896  12.317  12.138   8.937  0.1995 -0.2364 -0.4370
51764SOL    HW161897  12.244  12.191   8.905  0.5965 -0.1980 -1.3116
51764SOL    HW261898  12.276  12.069   8.989 -0.4288  0.0437 -0.5593
51765SOL     OW61899   3.955   2.994   8.870  0.5012  0.0452  0.2327
51765SOL    HW161900   3.951   3.028   8.960 -1.2435  0.2252  0.1185
51765SOL    HW261901   3.986   3.068   8.818 -1.6383  0.9970  0.2364
51766SOL     OW61902   3.026   7.328   9.622 -0.0272  0.6517 -0.1126
51766SOL    HW161903   3.051   7.262   9.687 -0.8937  0.1345 -0.2865
51766SOL    HW261904   3.054   7.411   9.660 -1.4459  0.4731  1.4137
51767SOL     OW61905  10.709  12.175   5.509 -0.4791  0.0537  0.0983
51767SOL    HW161906  10.666  12.107   5.560 -0.3726 -0.6386 -0.7062
51767SOL    HW261907  10.642  12.204   5.446 -0.5099  0.6650  0.4024
51768SOL     OW61908   0.752   5.053   9.961  0.0455 -0.4385  0.0440
51768SOL    HW161909   0.705   5.054  10.044 -0.5114  0.1013 -0.2714
51768SOL    HW261910   0.683   5.064   9.895  0.6654  0.8590 -0.4047
51769SOL     OW61911  12.693   2.305   8.462  0.1032  0.0494  0.4185
51769SOL    HW161912  12.771   2.253   8.477  0.5781  0.4454 -0.6012
51769SOL    HW261913  12.641   2.253   8.400  0.2154  0.4207  0.0080
51770SOL     OW61914   2.779  10.707  11.508  0.0597  0.2820 -0.3611
51770SOL    HW161915   2.768  10.647  11.435 -1.1755 -1.0183  0.8286
51770SOL    HW261916   2.698  10.759  11.509 -0.5692 -0.6579  0.8644
51771SOL     OW61917   4.713   8.109   9.891  0.0846  0.3707 -0.2507
51771SOL    HW161918   4.788   8.136   9.837 -0.3424  0.0812 -0.9999
51771SOL    HW261919   4.749   8.103   9.980  1.0376 -0.1241 -0.6563
51772SOL     OW61920   7.606   5.611   0.803 -0.2742 -0.5857  1.0678
51772SOL    HW161921   7.547   5.546   0.765  0.3286 -0.7539  0.3951
51772SOL    HW261922   7.647   5.653   0.727 -0.9164  0.8366  1.4810
51773SOL     OW61923  12.430   9.938   9.559  0.4940  0.3885 -0.4613
51773SOL    HW161924  12.363   9.886   9.514  0.9564  1.1750 -2.1348
51773SOL    HW261925  12.380   9.996   9.617 -0.1661 -0.1143 -0.5152
51774SOL     OW61926   5.266   0.045   7.293  0.0069 -0.1648  0.2593
51774SOL    HW161927   5.325  -0.003   7.235  0.5142  0.2065  0.4611
51774SOL    HW261928   5.249   0.128   7.249 -0.1548 -0.1597  0.3265
51775SOL     OW61929   5.026  10.853   8.635  0.3615 -0.2161  0.3076
51775SOL    HW161930   4.978  10.927   8.672 -0.0194 -0.6535  0.7177
51775SOL    HW261931   5.065  10.810   8.711 -1.1260 -1.6149  0.3299
51776SOL     OW61932  12.303   7.421   6.990 -0.1266  0.4823  0.1915
51776SOL    HW161933  12.309   7.326   6.995 -2.2184  0.2749 -0.4004
51776SOL    HW261934  12.337   7.452   7.074 -0.3001 -0.8340  0.7647
51777SOL     OW61935   6.768   9.684   6.924  0.2642  0.3131  0.1132
51777SOL    HW161936   6.699   9.726   6.975 -0.1814  1.2691 -1.2277
51777SOL    HW261937   6.762   9.724   6.837  0.8619 -1.4087 -0.7717
51778SOL     OW61938   2.604   4.951  10.725 -0.2429 -0.3017  0.1473
51778SOL    HW161939   2.691   4.988  10.742 -0.7946  1.6091 -0.8734
51778SOL    HW261940   2.611   4.909  10.640 -0.1902 -0.6066  0.3011
51779SOL     OW61941   4.137   2.071  10.058 -0.2153 -0.0830 -0.7125
51779SOL    HW161942   4.226   2.036  10.062  0.1260  0.4745 -2.4831
51779SOL    HW261943   4.096   2.023   9.986 -1.4491 -0.4963  0.2264
51780SOL     OW61944   5.840   8.772  10.619 -0.0125  0.3533  0.3388
51780SOL    HW161945   5.840   8.839  10.550 -0.7981 -0.0289 -0.0410
51780SOL    HW261946   5.748   8.755  10.637  0.0229 -2.6292 -1.5653
51781SOL     OW61947   1.747  10.812   6.949  0.5010 -0.4701 -0.1221
51781SOL    HW161948   1.756  10.898   6.909 -0.6055 -0.0491  0.5179
51781SOL    HW261949   1.833  10.771   6.937  1.2159  0.9244  0.0654
51782SOL     OW61950   9.499   6.830   0.968  0.3527  0.1478  0.6138
51782SOL    HW161951   9.522   6.915   0.931  1.8899 -0.6365 -0.3676
51782SOL    HW261952   9.458   6.783   0.895  1.0899 -0.5351  0.6277
51783SOL     OW61953   1.728   7.672   1.702  0.3043  0.2839 -0.4207
51783SOL    HW161954   1.688   7.739   1.648  0.1796  0.7881  0.2841
51783SOL    HW261955   1.679   7.592   1.683 -1.4386  0.9998  0.8272
51784SOL     OW61956  11.248   4.037   5.005  0.0877 -0.1848  0.1250
51784SOL    HW161957  11.340   4.062   5.007 -0.2963  2.3602 -3.8479
51784SOL    HW261958  11.221   4.038   5.097  3.2772  1.9334  1.2121
51785SOL     OW61959   0.448  10.249   6.152 -0.5438  0.1697 -0.0307
51785SOL    HW161960   0.469  10.180   6.215 -0.9514  0.3254  0.2819
51785SOL    HW261961   0.531  10.295   6.138 -0.0382 -1.0179 -1.0303
51786SOL     OW61962   8.767   5.668   4.453 -0.8090 -0.5010 -0.2182
51786SOL    HW161963   8.745   5.748   4.406 -0.0443  0.6651  1.3062
51786SOL    HW261964   8.688   5.649   4.505 -1.4001 -1.4019 -1.3936
51787SOL     OW61965   1.305   2.794  12.528 -0.0562 -0.1504  0.1711
51787SOL    HW161966   1.371   2.850  12.569  0.3817 -0.1122 -0.5483
51787SOL    HW261967   1.282   2.730  12.595  1.0611 -0.4479  0.2909
51788SOL     OW61968   7.393   7.605   9.381  0.0851 -0.1222 -0.4589
51788SOL    HW161969   7.325   7.591   9.446 -1.5317  2.5593 -1.4215
51788SOL    HW261970   7.368   7.548   9.307 -0.3363 -0.1893 -0.2672
51789SOL     OW61971   1.422   0.229  12.439  0.0056 -0.2786  0.1141
51789SOL    HW161972   1.335   0.193  12.459 -0.3734 -0.6173 -1.9395
51789SOL    HW261973   1.420   0.318  12.474 -1.6292  0.1430 -0.9514
51790SOL     OW61974   0.486   7.572  10.216 -0.5827  0.2133  0.2186
51790SOL    HW161975   0.480   7.515  10.292 -0.7288 -1.0763 -0.7272
51790SOL    HW261976   0.579   7.590  10.206 -0.4156 -0.7471 -0.0832
51791SOL     OW61977   5.931   4.740   1.650 -0.0964 -0.2233  0.2225
51791SOL    HW161978   5.943   4.660   1.701 -0.2344 -2.0760 -2.4549
51791SOL    HW261979   5.841   4.734   1.617  0.6988 -0.3051 -2.0764
51792SOL     OW61980   4.888   8.963  10.350 -0.0105  0.4055 -0.2553
51792SOL    HW161981   4.864   9.053  10.325 -1.2239 -0.3766 -2.1340
51792SOL    HW261982   4.864   8.910  10.274  1.6484 -1.3962  0.3975
51793SOL     OW61983   4.795   7.798  11.824 -0.1557 -0.4474 -0.1104
51793SOL    HW161984   4.786   7.832  11.735 -1.0824 -0.1049  0.0965
51793SOL    HW261985   4.873   7.840  11.858 -0.3656  0.2179 -0.4189
51794SOL     OW61986  12.596   7.429   7.810 -0.1055 -0.2569 -0.0671
51794SOL    HW161987  12.534   7.449   7.739  0.6622 -1.2960 -1.0861
51794SOL    HW261988  12.681   7.424   7.766  0.1743 -2.5840  0.5781
51795SOL     OW61989  10.537   6.573   4.518 -0.4575  0.2512 -0.3620
51795SOL    HW161990  10.628   6.603   4.525  0.0530 -1.3249  0.2364
51795SOL    HW261991  10.543   6.488   4.476 -1.3262 -1.2692  2.3534
51796SOL     OW61992   8.415   6.923  10.371 -0.6688 -0.2463 -0.1015
51796SOL    HW161993   8.442   6.974  10.295  0.6681 -0.3460  0.2820
51796SOL    HW261994   8.416   6.985  10.443 -1.6787 -0.2136 -0.1053
51797SOL     OW61995   1.334   8.951   7.845  0.0171 -0.1576 -0.2752
51797SOL    HW161996   1.373   8.931   7.930 -0.9952  0.3826  0.3379
51797SOL    HW261997   1.372   9.036   7.821  0.2340 -0.2675 -0.3286
51798SOL     OW61998  10.824   0.249   9.787 -0.7517 -0.4066 -0.5906
51798SOL    HW161999  10.740   0.276   9.748 -0.3828  1.8258  0.0478
51798SOL    HW262000  10.867   0.200   9.717 -0.7220  2.2758 -2.6152
51799SOL     OW62001   2.477   1.212   4.749 -0.1473 -0.1282 -0.1085
51799SOL    HW162002   2.418   1.249   4.816  0.9505  1.3406  0.1001
51799SOL    HW262003   2.544   1.166   4.799  0.0182 -0.0457 -0.2545
51800SOL     OW62004   5.257   5.964   2.914  0.1086 -0.1693  0.0318
51800SOL    HW162005   5.267   6.057   2.893  0.6531 -0.6349 -1.9666
51800SOL    HW262006   5.333   5.943   2.968 -0.0361  0.5447  0.5247
51801SOL     OW62007   1.954  12.489   2.001 -0.1179  0.0525 -0.6518
51801SOL    HW162008   1.954  12.401   2.038 -0.1433  0.2616 -0.1470
51801SOL    HW262009   1.873  12.529   2.035  0.7339  0.8449  0.5327
51802SOL     OW62010  10.226   1.171   7.960  0.1312 -0.3291 -0.0223
51802SOL    HW162011  10.320   1.188   7.965 -0.0182  0.3739  0.6946
51802SOL    HW262012  10.186   1.257   7.975 -0.6221 -0.4697 -1.1324
51803SOL     OW62013  11.882   5.732   3.837 -0.1879 -0.1324  0.6439
51803SOL    HW162014  11.931   5.744   3.756  1.3680 -0.5174  1.4848
51803SOL    HW262015  11.845   5.644   3.829  1.9373 -1.1735  1.2788
51804SOL     OW62016   6.457   2.840  11.021 -0.0432 -0.2310  0.6117
51804SOL    HW162017   6.482   2.766  11.077  0.1162 -0.0916  0.7243
51804SOL    HW262018   6.524   2.843  10.953  0.5148  0.4375  1.1856
51805SOL     OW62019   8.923   5.771   4.114  0.2040 -0.0199  0.0597
51805SOL    HW162020   8.853   5.718   4.075 -1.0929  0.0819  2.1006
51805SOL    HW262021   8.997   5.711   4.121  0.6011  0.0421 -2.7109
51806SOL     OW62022   9.115  11.741   4.735  0.4300 -0.1354 -0.2313
51806SOL    HW162023   9.187  11.804   4.741  0.8155 -0.5858 -0.0088
51806SOL    HW262024   9.116  11.712   4.644  1.1176 -0.8020 -0.0254
51807SOL     OW62025  11.320   9.595   9.216  0.2068 -0.5044  0.1838
51807SOL    HW162026  11.343   9.685   9.194  1.4767 -0.8888 -0.1215
51807SOL    HW262027  11.300   9.554   9.132  0.7622 -0.8078  0.1970
51808SOL     OW62028   1.515   2.957   0.443 -0.0997 -0.3556  0.2581
51808SOL    HW162029   1.536   2.961   0.536 -0.2323 -0.3086  0.2856
51808SOL    HW262030   1.582   3.011   0.401 -0.8898  0.8047  0.4634
51809SOL     OW62031  11.400  12.084   0.168  0.4844 -0.3110  0.0039
51809SOL    HW162032  11.348  12.090   0.087  0.0209  0.4833  0.3506
51809SOL    HW262033  11.420  12.174   0.191  1.8951 -0.6033 -0.0195
51810SOL     OW62034  10.354  10.863   7.503 -0.0890  0.5312 -0.2254
51810SOL    HW162035  10.352  10.927   7.574 -1.8254  0.3604 -0.0662
51810SOL    HW262036  10.385  10.912   7.427  0.5583  1.0371  0.3583
51811SOL     OW62037   2.472   1.539   3.825 -0.2100 -0.1472 -0.2353
51811SOL    HW162038   2.417   1.605   3.867  1.3792 -0.2273  2.1822
51811SOL    HW262039   2.556   1.584   3.810  0.4530 -1.2128  0.1779
51812SOL     OW62040  11.822  11.061   2.329 -0.8119 -0.3448  0.0621
51812SOL    HW162041  11.911  11.033   2.351 -0.4649  0.1293 -0.7130
51812SOL    HW262042  11.769  11.031   2.403  0.1398  0.1988  0.9944
51813SOL     OW62043   8.598  11.853  10.272 -0.1459  0.3623 -0.1096
51813SOL    HW162044   8.578  11.773  10.319  1.0437 -0.1269 -0.4024
51813SOL    HW262045   8.609  11.825  10.181  0.4331  0.8354 -0.1875
51814SOL     OW62046  10.434  11.520   1.935 -0.5498  0.0925 -0.2267
51814SOL    HW162047  10.438  11.430   1.968  1.5430  0.2507  0.0719
51814SOL    HW262048  10.517  11.533   1.891 -0.7685  1.9335 -0.1731
51815SOL     OW62049  10.940  11.101   9.548  0.3988 -0.2511  0.0738
51815SOL    HW162050  10.920  11.189   9.580  1.3774 -0.3719  1.0626
51815SOL    HW262051  10.992  11.115   9.469  0.4367  0.0547  0.1524
51816SOL     OW62052   2.952   2.414   6.179 -0.2483  0.0785 -0.1637
51816SOL    HW162053   2.995   2.500   6.180 -1.2003  0.5763  1.5481
51816SOL    HW262054   2.874   2.428   6.126  0.5180 -0.2479 -1.4247
51817SOL     OW62055   2.574   7.391  11.116 -0.1803  0.3583 -0.5164
51817SOL    HW162056   2.615   7.439  11.044 -0.1959 -1.2977 -1.6760
51817SOL    HW262057   2.554   7.305  11.080  0.0455 -0.6240  1.5426
51818SOL     OW62058   2.081   4.141   7.243 -0.8677  0.0272  0.0042
51818SOL    HW162059   2.171   4.127   7.212 -0.9243  0.9130 -0.6339
51818SOL    HW262060   2.047   4.210   7.185 -1.4249  0.8266  1.2334
51819SOL     OW62061  10.481   1.338   6.517  0.3687  0.3248 -0.0200
51819SOL    HW162062  10.500   1.250   6.486 -0.6326  0.8078 -2.1426
51819SOL    HW262063  10.428   1.325   6.596  2.3440 -0.9413  1.1603
51820SOL     OW62064   1.935   5.984   2.908  0.1415 -0.9236  0.3026
51820SOL    HW162065   1.870   5.947   2.968 -0.8641  1.2014  0.6115
51820SOL    HW262066   1.884   6.008   2.830  0.9267 -1.0154 -0.2504
51821SOL     OW62067   4.291   0.634   3.269 -0.1205 -0.3988 -0.1129
51821SOL    HW162068   4.309   0.643   3.175  0.7334  0.7078  0.1407
51821SOL    HW262069   4.286   0.539   3.283 -1.6621 -0.5806 -1.5094
51822SOL     OW62070   5.696   1.534   2.039  0.3241  0.3843 -0.3407
51822SOL    HW162071   5.617   1.496   2.000 -1.1100  1.1822  1.6443
51822SOL    HW262072   5.767   1.478   2.008 -1.2245 -1.4919 -0.6867
51823SOL     OW62073   6.370   9.218   0.435 -0.3608  0.1543  0.1258
51823SOL    HW162074   6.409   9.240   0.351 -1.5076 -0.5667 -0.6186
51823SOL    HW262075   6.283   9.184   0.414 -0.4711 -0.5560  1.5636
51824SOL     OW62076  12.559   6.350   6.311  0.3029 -0.2305 -0.2578
51824SOL    HW162077  12.535   6.269   6.356  0.1896  0.1632  0.3980
51824SOL    HW262078  12.480   6.404   6.316  1.0112  0.7216  1.1160
51825SOL     OW62079   2.054   6.864   2.681  0.4619 -0.2526  0.2020
51825SOL    HW162080   2.052   6.769   2.676 -1.0161 -0.1666 -2.0773
51825SOL    HW262081   2.108   6.891   2.607 -2.7303  0.6977 -1.9912
51826SOL     OW62082   5.243  11.687   2.554 -0.6705 -0.7058  0.0798
51826SOL    HW162083   5.336  11.683   2.573 -0.7541  0.2220  0.7431
51826SOL    HW262084   5.206  11.610   2.599 -0.5413  0.2242  1.8823
51827SOL     OW62085   4.705   0.073   1.436  0.0922 -0.2947 -0.2831
51827SOL    HW162086   4.685   0.166   1.452  2.1703  0.2831 -0.7951
51827SOL    HW262087   4.722   0.037   1.523  1.2116  0.3010 -0.2414
51828SOL     OW62088   2.113  10.295   8.400 -0.5808  0.8013  0.5601
51828SOL    HW162089   2.018  10.298   8.391 -0.5137  2.1757  0.0344
51828SOL    HW262090   2.135  10.202   8.391 -1.8990  0.4172  1.0623
51829SOL     OW62091  10.638   2.768  10.550 -0.3947 -0.3785 -0.0871
51829SOL    HW162092  10.652   2.838  10.613 -1.0462  0.8599 -1.2774
51829SOL    HW262093  10.673   2.690  10.593  1.9407  0.9502  0.5907
51830SOL     OW62094  11.827  10.261  11.130  0.3148  0.0859 -0.3400
51830SOL    HW162095  11.750  10.266  11.187 -0.0108  0.7640 -0.8301
51830SOL    HW262096  11.883  10.333  11.159  0.5953 -0.1778 -0.2283
51831SOL     OW62097   1.172  10.865  12.008 -0.1320 -0.5640  0.3071
51831SOL    HW162098   1.206  10.789  12.056 -1.0765 -0.4976  1.0976
51831SOL    HW262099   1.242  10.931  12.016 -0.0349 -0.7535  1.1005
51832SOL     OW62100  11.112   3.116   4.362 -0.3916  0.1893  0.0253
51832SOL    HW162101  11.143   3.085   4.277 -0.3652 -1.5666  0.6327
51832SOL    HW262102  11.031   3.163   4.344 -0.8915 -1.0010 -0.8677
51833SOL     OW62103   6.969   0.643   6.742  0.8181  0.0541 -0.3954
51833SOL    HW162104   7.007   0.623   6.827  0.3873  0.9539  0.0187
51833SOL    HW262105   6.926   0.728   6.754  1.0854  0.3810 -1.6141
51834SOL     OW62106   6.172   1.882   3.347 -0.2696 -0.4796 -0.1193
51834SOL    HW162107   6.243   1.919   3.399  1.6162 -1.0886 -2.0941
51834SOL    HW262108   6.170   1.789   3.370  0.5316 -0.7389 -0.9986
51835SOL     OW62109   0.317  11.276   8.292 -0.6031 -0.2717  0.1529
51835SOL    HW162110   0.308  11.251   8.384  0.9457 -0.8337  0.1846
51835SOL    HW262111   0.308  11.371   8.292 -0.4605 -0.2525  0.9087
51836SOL     OW62112  10.577   4.417  11.440 -0.1005  0.1020 -0.2455
51836SOL    HW162113  10.624   4.497  11.416 -0.5003 -0.1171 -1.9008
51836SOL    HW262114  10.624   4.383  11.516  0.3155  1.6889  0.2353
51837SOL     OW62115   6.143   6.662   6.971 -0.1417 -0.2524 -0.0211
51837SOL    HW162116   6.218   6.719   6.986 -0.6457  0.4785 -0.1881
51837SOL    HW262117   6.072   6.722   6.948 -0.8838 -0.8953  0.5281
51838SOL     OW62118  11.557   3.176  11.675  0.2271 -0.1387  0.5679
51838SOL    HW162119  11.478   3.229  11.680  0.0560 -0.3460  0.1413
51838SOL    HW262120  11.547   3.111  11.745 -0.0966 -0.3143  0.3623
51839SOL     OW62121   3.642   0.122   5.817  0.2485  0.0518 -0.3365
51839SOL    HW162122   3.655   0.194   5.756 -1.5593  0.9860  0.3080
51839SOL    HW262123   3.556   0.087   5.795 -1.4436  1.7316  2.8426
51840SOL     OW62124   9.382  10.846   8.490  0.0880 -0.3675  0.2305
51840SOL    HW162125   9.379  10.806   8.403  0.3990 -0.7806  0.4082
51840SOL    HW262126   9.475  10.846   8.512 -0.1515 -2.0444  1.3874
51841SOL     OW62127  11.573  11.910  11.411  0.3061  0.1121 -0.0315
51841SOL    HW162128  11.558  11.950  11.326 -0.7487  0.1998  0.1846
51841SOL    HW262129  11.485  11.901  11.449  0.6743 -0.8282  0.6291
51842SOL     OW62130   7.734   2.102   4.480 -0.8811 -0.0904 -0.1177
51842SOL    HW162131   7.689   2.185   4.462 -1.1439  0.0245  1.0055
51842SOL    HW262132   7.787   2.120   4.557 -2.5027 -1.5085  1.4042
51843SOL     OW62133   4.304   7.120  12.580 -0.1586  0.0977 -0.1577
51843SOL    HW162134   4.260   7.204  12.568 -0.4964  0.0594  0.7801
51843SOL    HW262135   4.246   7.071  12.638  1.1915  0.1137  1.2422
51844SOL     OW62136   5.450  11.940   5.174  0.1925  0.3401 -0.1954
51844SOL    HW162137   5.497  11.870   5.128 -2.0836  0.2870 -2.7343
51844SOL    HW262138   5.411  11.896   5.250 -0.6490 -1.0638 -1.3743
51845SOL     OW62139  11.058   3.051   5.446 -0.6054  0.4178 -0.0560
51845SOL    HW162140  11.032   3.085   5.360  1.1990 -0.1899 -0.8952
51845SOL    HW262141  11.064   3.128   5.501 -0.6340  0.9733 -0.8091
51846SOL     OW62142   0.658   2.396  12.589  0.4693  0.2364 -0.1071
51846SOL    HW162143   0.688   2.438  12.670  0.5721  0.9376 -0.5026
51846SOL    HW262144   0.573   2.437  12.571 -0.0847 -0.7228  0.2431
51847SOL     OW62145   3.720   0.968   1.240  0.2563 -0.9193  0.0665
51847SOL    HW162146   3.796   1.014   1.273  0.7161 -0.7999 -1.1334
51847SOL    HW262147   3.645   1.016   1.276  0.7290  0.3217 -0.5646
51848SOL     OW62148   8.078  10.614  10.032  0.0623 -0.3600 -0.2611
51848SOL    HW162149   8.074  10.614   9.937 -0.9796 -0.8783 -0.2379
51848SOL    HW262150   8.018  10.544  10.058  0.5919 -0.4482  0.7647
51849SOL     OW62151  10.861  11.557   3.993 -0.2000  0.4064  0.1568
51849SOL    HW162152  10.929  11.494   4.017 -1.1836 -0.2987  1.2198
51849SOL    HW262153  10.782  11.503   3.983 -0.7908  1.3178 -0.1990
51850SOL     OW62154   1.658   5.428   9.523  0.1267 -0.5014 -0.1147
51850SOL    HW162155   1.619   5.406   9.607  0.6191 -2.1371 -0.2704
51850SOL    HW262156   1.741   5.469   9.545  0.0790 -0.5729  0.2004
51851SOL     OW62157  10.675   5.953   3.138  0.0111 -0.4086  0.2248
51851SOL    HW162158  10.676   6.048   3.124 -1.1184  0.0162  2.5851
51851SOL    HW262159  10.675   5.916   3.049 -0.5245  1.8032 -0.7760
51852SOL     OW62160   5.677   6.974   8.206 -0.0678 -0.1049 -0.5903
51852SOL    HW162161   5.653   7.014   8.122  1.3234 -0.3315 -1.1244
51852SOL    HW262162   5.659   6.881   8.193  0.7607 -0.2328 -0.8859
51853SOL     OW62163   2.934   1.744   5.494  0.3503 -0.0559 -0.2219
51853SOL    HW162164   2.961   1.722   5.583 -0.1022 -2.1471 -0.5446
51853SOL    HW262165   2.838   1.744   5.498  0.3251 -0.4691 -0.7736
51854SOL     OW62166   2.222  11.182   8.912 -0.1115  0.5410  0.1531
51854SOL    HW162167   2.127  11.175   8.918  0.0054 -0.1878  1.8071
51854SOL    HW262168   2.248  11.226   8.994  1.0921 -0.8988  0.6006
51855SOL     OW62169   8.566  11.499  11.215 -0.0522  0.0720 -0.5909
51855SOL    HW162170   8.522  11.452  11.286 -0.9048  0.9614 -0.5054
51855SOL    HW262171   8.527  11.587  11.217  0.2130  0.2357 -1.8902
51856SOL     OW62172  11.504   5.639   3.290 -0.0911 -0.3332 -0.1290
51856SOL    HW162173  11.558   5.604   3.361 -1.8863 -1.5463  0.7160
51856SOL    HW262174  11.539   5.598   3.211  1.9697  1.0800 -0.0293
51857SOL     OW62175   0.651  12.257   5.808  0.1164 -0.3032  0.0227
51857SOL    HW162176   0.558  12.237   5.822  0.1022 -0.2144  0.0564
51857SOL    HW262177   0.669  12.328   5.871 -0.2840  1.0388 -1.3035
51858SOL     OW62178   3.438   7.597   7.982 -0.1593 -0.7032 -0.4257
51858SOL    HW162179   3.467   7.507   7.962  0.3156 -0.3994 -1.1560
51858SOL    HW262180   3.519   7.646   7.994 -0.4229 -0.4131  0.1821
51859SOL     OW62181   8.322   7.358   0.863  0.4005  0.3020 -0.5436
51859SOL    HW162182   8.316   7.451   0.884 -0.2374 -0.0288  0.8559
51859SOL    HW262183   8.231   7.327   0.866  0.8412 -1.2566  3.6044
51860SOL     OW62184   6.353  11.816   7.155  0.1430  0.0360 -0.3431
51860SOL    HW162185   6.299  11.738   7.145  0.8952 -0.7489  1.4014
51860SOL    HW262186   6.396  11.826   7.070 -1.0056 -0.6215 -1.0255
51861SOL     OW62187   5.678   3.620   3.890 -0.0978  0.0296 -0.6783
51861SOL    HW162188   5.604   3.654   3.839  0.4795  1.0900 -0.8323
51861SOL    HW262189   5.736   3.695   3.901  1.0977 -0.8471 -0.7989
51862SOL     OW62190  11.224   0.724   8.242 -0.0664  0.3342 -0.2736
51862SOL    HW162191  11.152   0.776   8.207 -1.0053 -1.8837 -1.8130
51862SOL    HW262192  11.220   0.739   8.337 -1.8133  1.1375 -0.4398
51863SOL     OW62193   1.853   8.212   5.713 -0.1948 -0.5545 -0.4318
51863SOL    HW162194   1.938   8.196   5.754  0.1841 -0.7464 -1.2902
51863SOL    HW262195   1.864   8.294   5.666  0.2562 -1.7186 -2.4651
51864SOL     OW62196   8.163   5.180   5.509  0.3605 -0.8861  0.0448
51864SOL    HW162197   8.072   5.192   5.480  0.4393  1.5684  0.6108
51864SOL    HW262198   8.206   5.137   5.435 -0.0542  2.8105 -2.5902
51865SOL     OW62199   0.145   1.765   3.016 -0.2573  0.1230 -0.3355
51865SOL    HW162200   0.072   1.765   3.078 -0.2815 -1.1734 -0.3436
51865SOL    HW262201   0.222   1.747   3.070 -0.3555 -1.6565 -0.7214
51866SOL     OW62202   8.227   3.519  11.902 -1.0361 -0.4621 -0.1756
51866SOL    HW162203   8.160   3.510  11.970 -0.5945  1.3446  0.5572
51866SOL    HW262204   8.180   3.508  11.820 -2.2635  0.8123  0.3306
51867SOL     OW62205   1.255   0.420   7.314  0.7583 -0.2691 -0.1642
51867SOL    HW162206   1.289   0.331   7.322  2.0196  0.1843 -0.1887
51867SOL    HW262207   1.175   0.421   7.366  1.0060 -1.2773  0.2537
51868SOL     OW62208   1.228  12.687   1.404 -0.3401  0.3077 -0.5433
51868SOL    HW162209   1.242  12.641   1.321  0.4749  1.0448 -0.8293
51868SOL    HW262210   1.139  12.722   1.398 -0.7634 -0.7439 -0.5563
51869SOL     OW62211   7.937   5.589   0.723  0.5581 -0.4152 -0.0463
51869SOL    HW162212   7.981   5.652   0.779  1.7697 -1.1969 -0.0815
51869SOL    HW262213   7.887   5.642   0.662  1.4523  0.5117  0.0002
51870SOL     OW62214  10.947  10.791   0.190  0.2088  0.3777  0.3658
51870SOL    HW162215  10.983  10.703   0.177  1.2507  0.8065  0.2240
51870SOL    HW262216  10.860  10.776   0.225  0.7239 -0.7174  1.2642
51871SOL     OW62217   3.813   7.140   1.720  0.5682  0.6721  0.4504
51871SOL    HW162218   3.858   7.101   1.645 -0.1942 -1.1966  0.9141
51871SOL    HW262219   3.720   7.130   1.701  0.3611  0.5601  1.4488
51872SOL     OW62220   6.076   2.468   4.312 -0.2603  0.2004 -0.6825
51872SOL    HW162221   6.047   2.480   4.403  1.4083  0.3262 -0.1475
51872SOL    HW262222   6.139   2.537   4.297 -0.0906 -0.1708 -1.7684
51873SOL     OW62223  10.948  12.217   6.265  0.6980  0.2109  0.5673
51873SOL    HW162224  11.028  12.222   6.317 -0.0751 -0.4085  1.8623
51873SOL    HW262225  10.967  12.150   6.199  0.9924 -0.4714  1.3369
51874SOL     OW62226   9.517   1.149   5.869  0.2470 -0.1573 -0.2185
51874SOL    HW162227   9.476   1.125   5.787 -0.0516 -1.5973  0.3198
51874SOL    HW262228   9.456   1.209   5.911  0.7984  1.2786 -1.4061
51875SOL     OW62229   2.108   1.351   4.739 -0.3673  0.5431 -0.1509
51875SOL    HW162230   2.075   1.263   4.754  0.8218 -0.4638 -2.8565
51875SOL    HW262231   2.172   1.365   4.809 -0.1065 -1.0087 -0.0604
51876SOL     OW62232  11.602  12.220  10.948 -0.5506 -0.1559 -0.0379
51876SOL    HW162233  11.615  12.268  11.031  2.5795 -0.0533 -0.5016
51876SOL    HW262234  11.590  12.289  10.883  1.2746 -0.0515 -0.2920
51877SOL     OW62235   8.981   7.324  11.349 -0.7538  0.1648 -0.2353
51877SOL    HW162236   8.903   7.270  11.336 -1.3762  1.1890 -0.9401
51877SOL    HW262237   9.024   7.325  11.264  0.8153 -1.5230  0.4946
51878SOL     OW62238   7.048   8.821   0.934  0.2582  0.3065 -0.5324
51878SOL    HW162239   7.131   8.868   0.927  0.9711 -1.0224 -1.2918
51878SOL    HW262240   7.010   8.825   0.846 -1.0784  1.8975  0.0597
51879SOL     OW62241   9.976   7.651   4.916 -0.1743  0.3783 -0.5925
51879SOL    HW162242   9.980   7.730   4.970  0.6240 -0.3378  0.4107
51879SOL    HW262243  10.019   7.583   4.968 -1.6786 -0.9702 -1.0283
51880SOL     OW62244  12.724  11.016   7.308 -0.4285 -0.7415  0.0097
51880SOL    HW162245  12.664  10.985   7.241  0.8434 -1.7598 -0.7026
51880SOL    HW262246  12.715  10.954   7.380  0.4906 -1.4949 -0.5111
51881SOL     OW62247   4.276  12.525   0.011  0.4214 -0.2012  0.7509
51881SOL    HW162248   4.357  12.576   0.006  0.8713 -1.0188 -0.7221
51881SOL    HW262249   4.279  12.484   0.097  1.4059  0.0524  0.8525
51882SOL     OW62250   0.797   1.048   8.878  0.0700 -0.3934 -0.6198
51882SOL    HW162251   0.768   1.027   8.790  1.4911 -0.7595 -1.0216
51882SOL    HW262252   0.828   1.139   8.872 -0.6667 -0.1082 -0.2670
51883SOL     OW62253  12.095   1.757   3.445  0.6541 -0.3700 -0.0213
51883SOL    HW162254  12.040   1.687   3.481  2.4041 -0.2140  3.2519
51883SOL    HW262255  12.117   1.727   3.356 -2.5552 -1.5811 -0.5387
51884SOL     OW62256   0.916   1.007   5.947 -0.8074  0.4537 -0.0608
51884SOL    HW162257   0.915   0.998   6.042  0.8191  0.7680  0.0010
51884SOL    HW262258   0.915   0.918   5.914  1.0549  0.2756  0.3072
51885SOL     OW62259   9.950  10.442   3.700  0.3353  0.0432 -0.2164
51885SOL    HW162260   9.943  10.478   3.788 -0.5014 -2.9850  1.0713
51885SOL    HW262261   9.860  10.440   3.668  0.6017  0.8572 -1.0775
51886SOL     OW62262   1.248   3.516   0.355  0.2610 -0.1597 -0.3811
51886SOL    HW162263   1.261   3.539   0.447  0.0707 -0.1660 -0.3505
51886SOL    HW262264   1.274   3.425   0.348  0.9229  0.0305 -0.4803
51887SOL     OW62265   7.050   9.580   0.433  0.8990 -0.1393  0.4967
51887SOL    HW162266   6.961   9.548   0.451  0.3030  0.8856 -0.4428
51887SOL    HW262267   7.061   9.566   0.339  1.5224  0.2470  0.5123
51888SOL     OW62268   6.733   8.994   7.443  0.2698  0.0071  0.6060
51888SOL    HW162269   6.803   9.058   7.453 -0.1945  0.6484 -0.1581
51888SOL    HW262270   6.657   9.035   7.483 -1.3218  2.1179 -3.9429
51889SOL     OW62271   7.494   6.546  12.500 -0.1731 -0.4028 -0.0251
51889SOL    HW162272   7.446   6.599  12.436 -1.1071 -1.1688  0.0217
51889SOL    HW262273   7.515   6.466  12.453  1.1605 -0.0602 -0.0686
51890SOL     OW62274   1.656   2.837   9.902  0.1790 -0.0396 -0.0794
51890SOL    HW162275   1.627   2.916   9.855 -0.2779 -0.7643 -1.0607
51890SOL    HW262276   1.698   2.784   9.834 -0.0625 -0.9045  0.4410
51891SOL     OW62277   8.215   9.911   6.067 -0.8889 -0.2271 -0.0166
51891SOL    HW162278   8.142   9.850   6.061 -1.0204 -0.1897  1.0674
51891SOL    HW262279   8.202   9.971   5.993 -2.5280  0.3910  0.7327
51892SOL     OW62280   4.820   5.922  10.394  0.6388 -0.3245  0.4427
51892SOL    HW162281   4.807   5.976  10.316 -2.9472  1.4206  2.0211
51892SOL    HW262282   4.913   5.902  10.394  1.4181  2.4516 -2.4396
51893SOL     OW62283   5.582   0.255  10.305  0.1121 -0.1139  0.4238
51893SOL    HW162284   5.538   0.210  10.233  0.9175 -1.3176  0.6494
51893SOL    HW262285   5.610   0.339  10.267 -2.0231  0.5487  0.1988
51894SOL     OW62286  12.077   4.398  11.382 -0.3327  0.4624  0.2786
51894SOL    HW162287  11.988   4.402  11.418  0.3297  2.0740  1.8563
51894SOL    HW262288  12.114   4.318  11.418 -1.0194 -0.0827 -0.1791
51895SOL     OW62289   0.201   9.638   2.392  0.1880  0.0023 -0.3769
51895SOL    HW162290   0.251   9.556   2.396 -0.5394 -0.3984  1.1519
51895SOL    HW262291   0.220   9.673   2.305  1.4445 -1.1954 -0.6252
51896SOL     OW62292   7.273   4.268  11.382 -0.2734 -0.1001 -0.4150
51896SOL    HW162293   7.226   4.299  11.305  0.1998 -0.2087 -0.7571
51896SOL    HW262294   7.318   4.189  11.352 -0.2949 -0.2923  0.0464
51897SOL     OW62295   3.084  11.287  12.336 -0.2190 -0.1293 -0.0430
51897SOL    HW162296   3.024  11.227  12.380 -0.0759  0.0743  0.4415
51897SOL    HW262297   3.130  11.233  12.272  1.3227 -1.0168  1.7086
51898SOL     OW62298  12.566   7.321   1.036  0.7823  0.2797 -1.1165
51898SOL    HW162299  12.533   7.289   1.120  0.1766  0.9958 -1.0696
51898SOL    HW262300  12.536   7.412   1.032  1.0101  0.3226 -2.0060
51899SOL     OW62301   5.657   8.948   4.280 -1.1401  0.1975 -0.4851
51899SOL    HW162302   5.692   8.994   4.204 -0.3126  0.8987  0.2974
51899SOL    HW262303   5.657   8.856   4.255  0.4603  0.2684 -0.8343
51900SOL     OW62304   7.769   0.294   1.097 -0.0263  0.1839 -0.5943
51900SOL    HW162305   7.728   0.263   1.178  0.7043  2.0446  0.5630
51900SOL    HW262306   7.861   0.269   1.106  0.0425  0.3440 -0.8649
51901SOL     OW62307   5.260   0.150   7.737  0.0652  0.4002 -0.5329
51901SOL    HW162308   5.203   0.073   7.742 -1.6649  1.6830  1.3862
51901SOL    HW262309   5.348   0.115   7.749 -0.4933 -1.4269 -1.3785
51902SOL     OW62310   8.318   2.562   1.033 -0.4753  0.6929  0.3683
51902SOL    HW162311   8.380   2.516   1.089  0.5352 -0.0666 -1.2798
51902SOL    HW262312   8.249   2.498   1.015  0.9623 -0.3445 -1.9762
51903SOL     OW62313   5.624   5.709   2.631  0.0381  0.1322  0.0988
51903SOL    HW162314   5.699   5.673   2.677 -0.7870 -0.9429  0.6566
51903SOL    HW262315   5.554   5.645   2.644 -1.6958  2.1803  1.6465
51904SOL     OW62316   5.559   6.949   7.079 -0.3550  0.1612  0.5565
51904SOL    HW162317   5.505   7.027   7.064  2.3492  2.6651  2.4774
51904SOL    HW262318   5.603   6.933   6.996 -0.6944  0.9198  0.2226
51905SOL     OW62319   2.288  11.676   2.384 -0.7622 -0.5723 -0.3372
51905SOL    HW162320   2.328  11.692   2.298 -0.5971  0.2779 -0.1149
51905SOL    HW262321   2.361  11.655   2.442 -0.8532 -0.9516 -0.3568
51906SOL     OW62322   2.766   8.660   3.941 -0.1969 -0.5553 -0.1470
51906SOL    HW162323   2.824   8.703   3.878  2.0830 -3.1592 -0.0291
51906SOL    HW262324   2.738   8.579   3.898 -0.0412 -1.5291  1.4608
51907SOL     OW62325   9.281   9.292   8.399  0.1077 -0.3554  0.7342
51907SOL    HW162326   9.191   9.269   8.379  0.5173 -2.1185  0.7315
51907SOL    HW262327   9.316   9.327   8.318 -0.6467  0.6305  0.8205
51908SOL     OW62328   4.426   0.077  12.764  0.0609  0.4522 -0.1299
51908SOL    HW162329   4.457  -0.010  12.742 -0.5480 -0.2426  1.5767
51908SOL    HW262330   4.505   0.127  12.784  0.3285 -0.1757  0.4062
51909SOL     OW62331   0.369   7.204   9.490 -0.0837  0.3325  0.3227
51909SOL    HW162332   0.395   7.121   9.531  0.3812  0.0108 -0.5868
51909SOL    HW262333   0.383   7.270   9.557 -1.3209 -0.4323  1.3781
51910SOL     OW62334   0.256   9.591   4.697  0.2548  0.3053 -0.3102
51910SOL    HW162335   0.211   9.579   4.781  2.7479  1.2365  1.2544
51910SOL    HW262336   0.214   9.668   4.659  0.2305  0.9351  0.9327
51911SOL     OW62337   4.087  11.242  10.606  0.4207 -0.4378  0.4240
51911SOL    HW162338   4.123  11.320  10.564  2.5468 -1.0533  0.9921
51911SOL    HW262339   4.162  11.198  10.645 -0.4163 -3.6351 -1.1723
51912SOL     OW62340   9.240  11.739   9.061 -0.3198 -0.2560  0.1461
51912SOL    HW162341   9.228  11.833   9.049 -1.5548 -0.5048 -0.7045
51912SOL    HW262342   9.278  11.709   8.978 -2.3761 -0.8894 -0.6252
51913SOL     OW62343   1.887   7.412   6.980 -0.6789  0.3255  0.1081
51913SOL    HW162344   1.919   7.332   7.021 -0.2208  0.6818  0.4474
51913SOL    HW262345   1.951   7.479   7.003 -0.4263  0.5461 -1.1544
51914SOL     OW62346   2.730   0.275   0.958  0.7636  0.1490 -0.9201
51914SOL    HW162347   2.713   0.368   0.945  0.8978  0.2578 -0.3514
51914SOL    HW262348   2.648   0.232   0.937  0.0399  0.5790  0.8636
51915SOL     OW62349  12.184  12.305   8.523 -0.0470 -0.3917 -0.0604
51915SOL    HW162350  12.135  12.365   8.580  0.9504 -0.4669  0.8996
51915SOL    HW262351  12.266  12.350   8.506 -0.8678  0.2759 -2.6719
51916SOL     OW62352   9.819   5.722   5.234  0.2981 -0.2042 -0.1768
51916SOL    HW162353   9.893   5.755   5.286  0.3783  0.4263 -0.6785
51916SOL    HW262354   9.753   5.699   5.300  1.8818 -3.4054  0.5109
51917SOL     OW62355   1.449   1.850   1.869 -0.3380  0.9590  0.4984
51917SOL    HW162356   1.446   1.906   1.792  2.1741  0.4502 -0.0749
51917SOL    HW262357   1.492   1.903   1.936 -1.6109  1.0607  1.2667
51918SOL     OW62358   1.211   8.524   3.143 -0.0858 -0.2612 -0.0338
51918SOL    HW162359   1.229   8.534   3.236  1.0983 -0.2782 -0.2442
51918SOL    HW262360   1.117   8.505   3.138 -0.4858  1.2600  1.0497
51919SOL     OW62361   1.355  12.174  10.985 -0.3344  0.1393 -0.0173
51919SOL    HW162362   1.372  12.104  10.921 -0.9713 -0.2249  0.2004
51919SOL    HW262363   1.300  12.236  10.937 -1.3798 -0.4648  0.3574
51920SOL     OW62364  12.495  10.061   8.340  0.4082 -0.6320 -0.1854
51920SOL    HW162365  12.450  10.129   8.289 -1.7597 -1.9025 -0.0756
51920SOL    HW262366  12.528  10.000   8.274  1.1193 -0.2227 -0.2180
51921SOL     OW62367   9.560   7.404  11.491  0.3405 -0.5234  0.1957
51921SOL    HW162368   9.596   7.316  11.498 -1.1160 -1.0742  1.5650
51921SOL    HW262369   9.503   7.413  11.568 -1.3529  0.7584 -1.1041
51922SOL     OW62370  10.451   9.036   1.176  0.2225  0.4699 -0.1640
51922SOL    HW162371  10.444   8.947   1.211  1.1981  0.8706  1.1377
51922SOL    HW262372  10.425   9.092   1.249 -1.2702  1.2468 -1.2552
51923SOL     OW62373  11.039  12.135  10.358  0.1285  0.3153  0.1657
51923SOL    HW162374  11.094  12.151  10.281  1.1755 -1.7520  0.4041
51923SOL    HW262375  10.964  12.087  10.325 -0.5951  1.4465  0.1271
51924SOL     OW62376   9.752   7.618   2.855  0.1076 -0.8483  0.6904
51924SOL    HW162377   9.833   7.623   2.805 -0.7856  3.0995 -0.7109
51924SOL    HW262378   9.697   7.557   2.805  1.2898 -1.5097  0.1676
51925SOL     OW62379   5.315   8.792  11.129 -0.5799 -0.1474  0.0003
51925SOL    HW162380   5.269   8.826  11.052 -0.6084 -1.0091 -0.3877
51925SOL    HW262381   5.282   8.844  11.202  1.6832  2.7715 -0.9019
51926SOL     OW62382   5.628  10.331  11.023  0.1391 -0.1955  0.1135
51926SOL    HW162383   5.613  10.250  10.975  1.1479 -1.0416  1.1698
51926SOL    HW262384   5.695  10.378  10.972  0.8210 -0.8407  0.4046
51927SOL     OW62385  10.733  12.765   2.763 -0.0194 -0.1954 -0.6275
51927SOL    HW162386  10.659  12.764   2.703 -0.4504 -1.0340 -0.1077
51927SOL    HW262387  10.718  12.841   2.819 -0.1076  0.0521 -0.9864
51928SOL     OW62388  12.577   5.804   8.505  0.2009  0.1710 -0.3275
51928SOL    HW162389  12.655   5.840   8.463  2.4042 -3.3264  0.4188
51928SOL    HW262390  12.530   5.761   8.434  0.0292  0.4792 -0.4049
51929SOL     OW62391   0.933   0.125   0.480 -0.1147 -0.1994 -0.3342
51929SOL    HW162392   0.883   0.206   0.488 -3.0905 -2.0386  1.6550
51929SOL    HW262393   0.940   0.092   0.569 -0.7719 -3.0470 -1.2182
51930SOL     OW62394   8.703  10.901   7.017  0.3398 -0.2509 -0.2743
51930SOL    HW162395   8.724  10.808   7.027  0.9832  0.0389  1.4941
51930SOL    HW262396   8.624  10.913   7.068  1.8560  0.6760  2.0117
51931SOL     OW62397   9.071   8.349   8.031  0.0512  0.0078 -0.3143
51931SOL    HW162398   9.011   8.340   8.105  0.7151 -0.1441  0.2225
51931SOL    HW262399   9.067   8.264   7.986 -0.4868  0.1621 -0.5606
51932SOL     OW62400   8.860  11.954   8.494  0.2381  0.4155 -0.8703
51932SOL    HW162401   8.836  12.022   8.558 -0.2901 -1.5571  1.1573
51932SOL    HW262402   8.951  11.973   8.473  1.2866 -0.1833  2.4363
51933SOL     OW62403   4.587   7.524  12.275  0.5600 -0.1390 -0.0861
51933SOL    HW162404   4.614   7.455  12.214 -0.6186 -2.1767  1.5655
51933SOL    HW262405   4.511   7.564  12.232  0.7256 -0.4468 -0.6845
51934SOL     OW62406   6.873   5.544   3.152 -0.4925  0.2727 -0.4008
51934SOL    HW162407   6.893   5.637   3.158 -0.0151  0.4187 -3.0708
51934SOL    HW262408   6.780   5.539   3.134 -0.3802  0.2921 -1.0093
51935SOL     OW62409   7.788  11.147  12.277  0.0257  0.1599 -0.4510
51935SOL    HW162410   7.812  11.057  12.299  0.5501  0.6101  0.8719
51935SOL    HW262411   7.846  11.201  12.329 -1.2354  1.2706 -0.1564
51936SOL     OW62412   3.919   9.674   3.526 -0.0387  0.1104 -0.2607
51936SOL    HW162413   3.978   9.653   3.453 -0.5981 -1.4294 -0.3168
51936SOL    HW262414   3.910   9.769   3.523  0.4092  0.1324 -1.8390
51937SOL     OW62415  11.890  10.482   0.869  0.2157 -0.0427  0.1854
51937SOL    HW162416  11.846  10.438   0.941 -0.5266 -2.0354 -1.3836
51937SOL    HW262417  11.857  10.571   0.871 -2.4700 -0.9436  0.2870
51938SOL     OW62418  11.425   7.800   7.245  0.3349  0.3715 -0.6503
51938SOL    HW162419  11.460   7.758   7.323 -1.6272  0.6654  0.4586
51938SOL    HW262420  11.470   7.885   7.241  2.4433 -0.7205 -1.4522
51939SOL     OW62421   7.175   0.709   9.287  0.6405 -0.1083  0.7632
51939SOL    HW162422   7.140   0.725   9.200  2.3463 -0.8048 -0.0970
51939SOL    HW262423   7.140   0.780   9.341 -1.6228 -0.4766 -0.1084
51940SOL     OW62424   3.663   4.253   0.113 -0.4504  0.2631  0.4002
51940SOL    HW162425   3.633   4.164   0.131 -0.6044  0.0315 -0.9218
51940SOL    HW262426   3.633   4.304   0.188  0.6561 -0.9930  1.7491
51941SOL     OW62427   5.311  11.905  12.089 -0.9026 -0.2318 -0.1887
51941SOL    HW162428   5.338  11.821  12.125 -1.7423  0.1267  1.3624
51941SOL    HW262429   5.232  11.885  12.039 -1.1498 -0.3611  0.2499
51942SOL     OW62430   6.851  10.220   3.802  0.0820 -0.7330  0.1769
51942SOL    HW162431   6.761  10.241   3.826  0.2083 -0.8502  0.7637
51942SOL    HW262432   6.852  10.225   3.706 -0.0274  1.4663  0.2270
51943SOL     OW62433   7.835   6.690  10.591  0.0459  0.3248 -0.9609
51943SOL    HW162434   7.872   6.707  10.504  0.0794  0.8518 -0.8489
51943SOL    HW262435   7.910   6.700  10.650  0.1944 -0.8065 -0.9369
51944SOL     OW62436  10.061   4.940   0.451  0.4119  0.2419 -0.8244
51944SOL    HW162437  10.071   4.912   0.542 -0.6656  0.3627 -0.6465
51944SOL    HW262438  10.035   5.032   0.457  3.1371  1.1362 -1.3807
51945SOL     OW62439   6.726   5.322  10.450 -0.2495  0.9862  0.2784
51945SOL    HW162440   6.816   5.296  10.471 -0.7122 -0.1403  1.0128
51945SOL    HW262441   6.696   5.368  10.528  0.0063  2.3051 -0.3705
51946SOL     OW62442   7.467   7.421   2.742  0.2216  0.5097  0.1891
51946SOL    HW162443   7.456   7.514   2.756 -0.5669  0.1249  2.3779
51946SOL    HW262444   7.396   7.396   2.683  1.1946  1.4557 -1.4767
51947SOL     OW62445   3.647   8.433   8.957 -0.2319 -0.3547 -0.2681
51947SOL    HW162446   3.596   8.509   8.986 -0.3255 -0.5223  0.0122
51947SOL    HW262447   3.698   8.465   8.883 -0.4558 -0.0826 -0.3068
51948SOL     OW62448  11.395   5.939   0.258 -0.4799 -0.1888 -0.0071
51948SOL    HW162449  11.385   5.961   0.165  0.8618 -1.4826 -0.5009
51948SOL    HW262450  11.371   6.019   0.304 -0.8107  0.6003 -1.4791
51949SOL     OW62451   0.622   8.416   6.350  0.2839 -0.0543  0.5621
51949SOL    HW162452   0.643   8.451   6.436 -0.6633 -1.4247  1.3817
51949SOL    HW262453   0.589   8.491   6.301  0.1627  0.6074  1.6312
51950SOL     OW62454   2.258   1.190   7.508  0.5270 -0.4049 -0.4054
51950SOL    HW162455   2.194   1.124   7.481 -0.6430  0.7252 -0.4652
51950SOL    HW262456   2.232   1.270   7.462  1.1473  0.4312  0.6491
51951SOL     OW62457   1.322   2.846   7.395 -0.0482  0.2589 -0.6190
51951SOL    HW162458   1.253   2.850   7.462  1.1131 -3.4162  1.0130
51951SOL    HW262459   1.274   2.839   7.312 -1.6364 -0.4752  0.3098
51952SOL     OW62460   8.776   7.219   7.823  0.7566 -0.3792 -0.1188
51952SOL    HW162461   8.858   7.195   7.865  0.6397 -1.2395 -0.3577
51952SOL    HW262462   8.744   7.138   7.784  0.2370  0.1309 -0.7966
51953SOL     OW62463   2.193   9.136   7.658  0.1262  0.1520 -0.3982
51953SOL    HW162464   2.122   9.196   7.679 -0.5739 -1.1988  1.3575
51953SOL    HW262465   2.168   9.097   7.574 -1.8064 -1.0532  0.6691
51954SOL     OW62466  12.199   0.678   3.110 -0.5528 -0.4862  0.1132
51954SOL    HW162467  12.212   0.664   3.016  1.3992 -0.4327  0.3294
51954SOL    HW262468  12.225   0.595   3.151  1.5951  0.4229  0.7542
51955SOL     OW62469   5.878   5.437   9.904  0.0753 -0.2681  0.5538
51955SOL    HW162470   5.885   5.399   9.816  1.5838  2.0353 -0.4184
51955SOL    HW262471   5.849   5.364   9.959  0.2158 -2.0901 -1.6251
51956SOL     OW62472   3.953   8.920  10.185 -0.6178 -0.6800  0.1581
51956SOL    HW162473   3.887   8.973  10.229 -0.0481  0.8129 -0.7094
51956SOL    HW262474   3.991   8.866  10.255 -0.7511  0.5504  1.2154
51957SOL     OW62475  11.681  10.698  10.918 -0.3077 -0.2257  0.1697
51957SOL    HW162476  11.761  10.723  10.965  0.2236 -0.6381 -0.4882
51957SOL    HW262477  11.628  10.653  10.983  0.1000 -0.1612  0.5537
51958SOL     OW62478  10.451  10.682   2.273  0.0097 -0.3346  0.3357
51958SOL    HW162479  10.399  10.702   2.196  1.2933  1.1181 -0.1945
51958SOL    HW262480  10.481  10.592   2.259  0.7056  0.1085 -1.1481
51959SOL     OW62481  10.501   4.995  12.202 -0.2857 -0.0807  0.1257
51959SOL    HW162482  10.562   5.001  12.129 -0.3250  0.6138  0.1467
51959SOL    HW262483  10.427   4.946  12.167 -0.4418  0.5132 -0.4052
51960SOL     OW62484   5.835  11.618  10.286  0.1521 -0.2853 -0.3872
51960SOL    HW162485   5.761  11.675  10.305 -1.0912 -1.9757  0.0896
51960SOL    HW262486   5.798  11.530  10.282  1.8356 -1.0033 -1.9989
51961SOL     OW62487   3.040  10.018   5.631  0.0097 -0.2857 -0.2274
51961SOL    HW162488   3.111   9.955   5.642  1.2075  0.4504 -2.9364
51961SOL    HW262489   3.015  10.011   5.539 -1.5666  1.4094  0.0002
51962SOL     OW62490   9.006   0.307  10.531 -0.1096 -0.0286 -0.1926
51962SOL    HW162491   9.092   0.287  10.567 -0.6981 -0.9361  0.7550
51962SOL    HW262492   9.024   0.364  10.457  1.2274  0.8110  0.7400
51963SOL     OW62493  10.031  11.103   3.256 -0.5778 -0.3098  0.0053
51963SOL    HW162494   9.971  11.072   3.188 -0.9101  0.6927 -0.1890
51963SOL    HW262495  10.013  11.048   3.331 -2.1934  0.3396  0.1418
51964SOL     OW62496   7.176  12.446  10.342 -0.1829 -0.1029 -0.9532
51964SOL    HW162497   7.221  12.422  10.424  1.5990  2.9246 -0.9102
51964SOL    HW262498   7.090  12.478  10.371  0.2058  0.3846 -0.2913
51965SOL     OW62499   8.558   4.542   9.099 -0.0803 -0.9508 -0.0055
51965SOL    HW162500   8.464   4.553   9.108  0.1317  1.7547 -0.1577
51965SOL    HW262501   8.595   4.583   9.177  1.0135  1.8649 -1.8378
51966SOL     OW62502   0.442   1.671   4.083  0.4259 -0.7008 -0.2541
51966SOL    HW162503   0.476   1.740   4.139 -1.1387  0.8428 -1.1375
51966SOL    HW262504   0.431   1.596   4.142 -0.6066  0.6818  1.4110
51967SOL     OW62505   3.833   4.099   9.077 -0.0151  0.0698 -0.2213
51967SOL    HW162506   3.883   4.180   9.076  0.5192 -0.2457  0.2448
51967SOL    HW262507   3.743   4.125   9.057  0.0644  0.8323  0.3807
51968SOL     OW62508  12.610  11.641  12.184  0.1730 -0.1894  0.3456
51968SOL    HW162509  12.553  11.698  12.235  0.4594 -0.9574  1.5693
51968SOL    HW262510  12.651  11.699  12.119 -0.9720  0.6108  0.3114
51969SOL     OW62511   5.914   5.131   4.227 -0.3318 -0.2163 -0.2656
51969SOL    HW162512   5.821   5.131   4.206 -0.3673  0.1487 -0.1275
51969SOL    HW262513   5.958   5.138   4.143 -0.4177 -0.7601 -0.3594
51970SOL     OW62514   5.013   6.190  10.180 -0.0574  0.5105 -0.1299
51970SOL    HW162515   5.076   6.215  10.248 -0.5824  1.0419  0.1727
51970SOL    HW262516   4.928   6.193  10.224 -0.3640  0.4760 -0.7102
51971SOL     OW62517   9.544  11.433   0.963  0.4504  0.4999  0.1632
51971SOL    HW162518   9.633  11.462   0.979  0.5253 -0.4264  1.6524
51971SOL    HW262519   9.489  11.498   1.006  0.5070  0.0301  0.9730
51972SOL     OW62520   6.231   9.471   0.223 -0.1682 -0.2041 -0.5771
51972SOL    HW162521   6.324   9.463   0.204  0.3023 -1.8957  1.8672
51972SOL    HW262522   6.219   9.561   0.250  0.6737  0.1106 -1.2135
51973SOL     OW62523  10.287   2.335   3.885 -0.5982  0.5065 -0.3487
51973SOL    HW162524  10.231   2.336   3.962 -0.2380 -0.5707 -0.0461
51973SOL    HW262525  10.238   2.284   3.821  1.1096 -2.9934  0.8583
51974SOL     OW62526   9.947  10.812   6.718 -0.3064  0.2078  0.0708
51974SOL    HW162527   9.997  10.888   6.748 -1.3230  0.9717 -0.1216
51974SOL    HW262528   9.875  10.805   6.781 -0.9434  0.1964 -0.6467
51975SOL     OW62529   2.258   9.224   7.908  0.0256 -0.8702 -0.5165
51975SOL    HW162530   2.324   9.292   7.888  2.7333 -3.0016  0.5286
51975SOL    HW262531   2.230   9.192   7.822 -0.5161  0.7999 -0.9989
51976SOL     OW62532   5.218   7.865   4.781  0.1483 -0.0286 -0.0707
51976SOL    HW162533   5.169   7.796   4.827 -1.1344 -0.0315 -1.3637
51976SOL    HW262534   5.242   7.927   4.850  2.6686 -2.4250  1.4139
51977SOL     OW62535   1.209   7.042  12.103  0.3732  0.0126  0.1149
51977SOL    HW162536   1.288   7.094  12.122  0.4096 -0.5574  1.6497
51977SOL    HW262537   1.203   6.980  12.176 -0.0069 -1.7544 -1.3740
51978SOL     OW62538   6.312   8.054   1.116 -0.0804  0.2775  0.7167
51978SOL    HW162539   6.255   8.093   1.050 -0.2840  0.5946  1.0706
51978SOL    HW262540   6.352   8.129   1.160  0.7662  0.0551  0.3445
51979SOL     OW62541   3.414   0.876  11.207  0.4515 -0.0575 -0.1927
51979SOL    HW162542   3.445   0.806  11.150  0.4752 -0.2312  0.0309
51979SOL    HW262543   3.363   0.831  11.274 -0.3411  0.2341 -0.5947
51980SOL     OW62544   4.661  10.984   6.275 -0.4869  0.1540 -0.1153
51980SOL    HW162545   4.674  11.033   6.194  0.5938  0.9398  0.5065
51980SOL    HW262546   4.595  10.918   6.253 -0.3456  0.4662 -1.5765
51981SOL     OW62547   4.034   9.844  11.201  0.1721 -0.5062 -0.0759
51981SOL    HW162548   4.066   9.933  11.183 -1.5682  0.1558 -0.0764
51981SOL    HW262549   3.963   9.857  11.264 -0.3105 -1.8806 -0.3144
51982SOL     OW62550   1.618   3.206   5.215 -0.1904  0.1457 -0.2671
51982SOL    HW162551   1.604   3.258   5.136 -2.9138  0.9505  0.6017
51982SOL    HW262552   1.594   3.117   5.189  1.5760 -0.1486 -0.9960
51983SOL     OW62553   8.232  10.146   8.418  1.1086 -0.1937 -0.5282
51983SOL    HW162554   8.138  10.132   8.429  1.2851 -1.3367 -0.2710
51983SOL    HW262555   8.247  10.139   8.323  1.2464 -2.4761 -0.3900
51984SOL     OW62556  10.554   0.192   3.674 -0.2564 -0.0273 -0.2940
51984SOL    HW162557  10.556   0.107   3.628 -2.8761  0.8635 -2.3392
51984SOL    HW262558  10.491   0.178   3.745  1.5991 -0.5753  1.3098
51985SOL     OW62559   1.446   0.295   9.059 -0.1650 -0.1527  0.1062
51985SOL    HW162560   1.359   0.327   9.035  1.3257  3.2239 -1.5324
51985SOL    HW262561   1.436   0.264   9.149 -2.9648  0.3830  0.0794
51986SOL     OW62562   7.094   7.710   6.110  0.1073 -0.5262 -0.2393
51986SOL    HW162563   7.000   7.711   6.092 -0.4520 -0.1792  2.2496
51986SOL    HW262564   7.100   7.715   6.206  2.6639 -1.2033 -0.2825
51987SOL     OW62565   2.769   1.994   5.037 -0.0969 -0.1005 -0.3474
51987SOL    HW162566   2.746   2.074   4.989  1.2316  0.3035 -0.3606
51987SOL    HW262567   2.856   1.971   5.005 -1.1712 -2.6247 -1.6751
51988SOL     OW62568   7.388   8.113   9.868 -0.8272 -0.4551  0.4970
51988SOL    HW162569   7.386   8.174   9.795 -0.0034 -1.5327 -0.4627
51988SOL    HW262570   7.432   8.160   9.939  1.1978 -0.4116 -0.7194
51989SOL     OW62571   6.621   4.613   9.049  0.1320 -0.2534  0.2273
51989SOL    HW162572   6.673   4.685   9.014  1.8939 -1.4900  0.1792
51989SOL    HW262573   6.616   4.630   9.143  1.0292 -0.3609  0.2985
51990SOL     OW62574   6.681   9.144  11.166 -0.0677 -0.0924 -0.1443
51990SOL    HW162575   6.668   9.072  11.104  0.4390 -1.5558  1.3884
51990SOL    HW262576   6.615   9.209  11.141 -0.6200 -1.1206 -1.4877
51991SOL     OW62577   6.074   2.411   0.165  0.5963 -0.2268 -0.5463
51991SOL    HW162578   6.077   2.488   0.108  0.4608  0.3781  0.2556
51991SOL    HW262579   5.982   2.384   0.165  0.4216  0.3456  0.1302
51992SOL     OW62580   9.832   9.361   4.484 -0.8478  0.5652 -0.2131
51992SOL    HW162581   9.917   9.364   4.527 -0.8398  0.1914 -0.2000
51992SOL    HW262582   9.771   9.339   4.555 -0.6754 -1.2921 -0.6121
51993SOL     OW62583   3.196   0.090   4.220  0.5359  0.2218  0.0454
51993SOL    HW162584   3.229   0.018   4.165  1.5932  1.6450 -1.2638
51993SOL    HW262585   3.274   0.122   4.266 -0.0051  0.3000  0.9322
51994SOL     OW62586   8.065  11.214  12.696 -0.3039 -0.0016 -0.2508
51994SOL    HW162587   8.005  11.255  12.758  0.5351  1.6043 -0.4423
51994SOL    HW262588   8.083  11.283  12.631  3.3130  0.3398  0.8921
51995SOL     OW62589   3.035   8.258   4.695  0.4377  0.3265  0.2357
51995SOL    HW162590   3.107   8.318   4.716 -2.2445  3.3342  1.8447
51995SOL    HW262591   3.034   8.195   4.766  1.2838  0.4141  0.3352
51996SOL     OW62592  10.283   0.144   3.760  0.1992  0.6647  0.1875
51996SOL    HW162593  10.213   0.204   3.737 -1.3944 -1.1221  0.0604
51996SOL    HW262594  10.336   0.191   3.824 -0.4751  2.4671 -0.5412
51997SOL     OW62595   9.615   1.513   3.307  0.1261 -0.4964  0.2573
51997SOL    HW162596   9.560   1.574   3.259  0.7314 -0.6376 -0.6412
51997SOL    HW262597   9.588   1.522   3.398  1.7432  2.8618  0.5514
51998SOL     OW62598   0.949   7.770   9.219  0.3447  0.1569  0.3573
51998SOL    HW162599   1.012   7.789   9.288  0.8206  0.5296 -0.1655
51998SOL    HW262600   1.003   7.760   9.140 -0.0602 -1.5091  0.2561
51999SOL     OW62601   1.411   7.721   5.998  0.1582 -0.0928 -0.5029
51999SOL    HW162602   1.317   7.704   5.994  0.2974 -1.0321 -0.1148
51999SOL    HW262603   1.449   7.665   5.930  0.4942 -0.2259 -0.2129
52000SOL     OW62604  11.528  10.007   3.444  0.6125  0.2191  0.4206
52000SOL    HW162605  11.486   9.953   3.377  0.6119 -0.3849  0.8977
52000SOL    HW262606  11.469  10.081   3.455  0.4671  0.1756 -0.0435
52001SOL     OW62607  11.191   4.522   0.761  0.6247 -0.1116  0.3950
52001SOL    HW162608  11.097   4.518   0.743  0.5190  0.8368  0.7056
52001SOL    HW262609  11.200   4.486   0.849  0.4052  0.8472  0.8204
52002SOL     OW62610   8.178   9.707   2.162 -0.6438  0.0228  0.5308
52002SOL    HW162611   8.252   9.767   2.153 -0.4284 -0.5022 -1.8785
52002SOL    HW262612   8.217   9.620   2.164 -1.1470 -0.2331 -0.2980
52003SOL     OW62613   6.306  11.397   2.778  0.3831  0.0096 -0.3061
52003SOL    HW162614   6.275  11.436   2.860  2.8889  0.2928  0.5878
52003SOL    HW262615   6.295  11.467   2.713  1.6483  1.0663  0.5661
52004SOL     OW62616  12.593   0.910   8.994 -0.0139  0.4370 -0.0223
52004SOL    HW162617  12.586   1.006   8.991 -0.0379  0.4203 -1.3733
52004SOL    HW262618  12.512   0.880   8.952  2.0646 -0.0226 -4.2325
52005SOL     OW62619  12.134   8.564  11.165  0.0039 -0.1754  0.6745
52005SOL    HW162620  12.164   8.652  11.143  1.1143 -0.3907  1.2561
52005SOL    HW262621  12.214   8.512  11.172 -0.7040 -2.1809 -3.2566
52006SOL     OW62622   0.818   1.066   4.014 -0.1489  0.0687 -0.3452
52006SOL    HW162623   0.837   1.157   3.991 -2.7365  0.2067 -2.2783
52006SOL    HW262624   0.803   1.022   3.931  1.9305 -2.4586  0.4540
52007SOL     OW62625   6.836   8.078  10.596  0.2205 -0.5686  0.3314
52007SOL    HW162626   6.804   8.105  10.510 -0.5789 -0.0595  0.7722
52007SOL    HW262627   6.851   8.160  10.643  1.3477 -0.8210  0.4471
52008SOL     OW62628   9.899  11.165   7.057  0.0253  0.6625  0.8403
52008SOL    HW162629   9.815  11.119   7.065  0.9760 -0.8872  3.1190
52008SOL    HW262630   9.888  11.245   7.107 -0.7820  1.6699 -0.8641
52009SOL     OW62631   7.537   6.024   4.584 -0.4369 -0.2895 -0.4466
52009SOL    HW162632   7.586   6.001   4.505  1.8598 -1.0280  1.0740
52009SOL    HW262633   7.550   6.119   4.594  0.8302 -0.4868 -0.0290
52010SOL     OW62634   2.619   2.560  12.559 -0.3466 -0.1984  0.2472
52010SOL    HW162635   2.636   2.634  12.502 -0.2998 -0.2050  0.2523
52010SOL    HW262636   2.554   2.508  12.512  0.3016 -0.6346 -0.1796
52011SOL     OW62637   0.722   6.270   7.202  0.2447  0.1700  0.5790
52011SOL    HW162638   0.721   6.175   7.193  0.0634 -0.0374  2.3618
52011SOL    HW262639   0.692   6.303   7.118 -1.0999 -1.3889  0.4103
52012SOL     OW62640   0.565  10.007  10.459 -0.3379 -0.3056  0.1405
52012SOL    HW162641   0.631  10.073  10.480 -0.7926  0.0695  0.3791
52012SOL    HW262642   0.505  10.007  10.534 -1.4681  0.4233 -0.7355
52013SOL     OW62643   2.341   5.995   5.854 -0.2627  0.3734 -0.0921
52013SOL    HW162644   2.358   6.055   5.926 -0.3770  0.2375  0.0504
52013SOL    HW262645   2.401   5.922   5.869 -1.0063 -0.1482  0.4599
52014SOL     OW62646  11.578   6.825   1.531 -0.4106  0.1817  0.3818
52014SOL    HW162647  11.574   6.898   1.469 -2.6152 -1.0919 -1.0621
52014SOL    HW262648  11.658   6.777   1.506 -0.3521  0.6443 -0.3488
52015SOL     OW62649   6.496  10.362   8.345  0.3331  0.0251 -0.0914
52015SOL    HW162650   6.437  10.289   8.364  0.0109  0.2535 -0.2008
52015SOL    HW262651   6.465  10.433   8.402  0.5862  0.1051 -0.0516
52016SOL     OW62652   2.397   6.785   8.891  0.5691  0.1582  0.2402
52016SOL    HW162653   2.414   6.755   8.801  1.6934  1.2473  0.0677
52016SOL    HW262654   2.320   6.841   8.882 -0.0234 -0.6566  0.1553
52017SOL     OW62655   3.199   9.961   6.388  0.3884 -0.1431 -0.3297
52017SOL    HW162656   3.272  10.023   6.381  2.7574 -2.3854  2.1281
52017SOL    HW262657   3.158   9.982   6.472 -0.3057 -0.3626 -0.6130
52018SOL     OW62658   8.342   8.165   8.250 -0.2586  0.2579 -0.1823
52018SOL    HW162659   8.261   8.115   8.256  0.1071 -0.2981  0.2340
52018SOL    HW262660   8.316   8.255   8.272 -0.9339  0.2739 -1.0067
52019SOL     OW62661   3.826   7.500   4.034  0.1097 -0.6168 -0.5712
52019SOL    HW162662   3.795   7.485   3.945  0.3651  0.0727 -0.7837
52019SOL    HW262663   3.913   7.539   4.023  0.7595 -1.8491 -0.0003
52020SOL     OW62664   4.636  10.902   3.647  0.2642 -0.7814 -0.2646
52020SOL    HW162665   4.643  10.919   3.553  0.3840  3.8958  0.3524
52020SOL    HW262666   4.714  10.851   3.669 -0.1195 -2.5899 -2.7171
52021SOL     OW62667   7.612  11.910   1.638  0.4700 -0.2643  0.5409
52021SOL    HW162668   7.612  11.997   1.598  0.3324 -0.0181  1.0665
52021SOL    HW262669   7.702  11.880   1.631  0.1817 -0.8459 -1.2616
52022SOL     OW62670   7.743   7.561   0.681  0.9216  0.6551  0.7112
52022SOL    HW162671   7.805   7.520   0.742 -0.0825  0.3719  1.5581
52022SOL    HW262672   7.700   7.629   0.731  1.6758  1.9523 -0.3428
52023SOL     OW62673   8.089   3.734   3.175  0.0519 -0.3242  0.2764
52023SOL    HW162674   8.050   3.655   3.135  0.2152 -0.6102  0.6760
52023SOL    HW262675   8.169   3.748   3.125  0.6019 -1.0753  0.9156
52024SOL     OW62676  12.186   5.186   3.296  0.5296 -0.7093  0.1662
52024SOL    HW162677  12.192   5.264   3.240 -1.3050 -0.8157 -0.2375
52024SOL    HW262678  12.175   5.113   3.234 -1.1769 -0.8710  0.6076
52025SOL     OW62679   9.099   8.248   9.018 -0.6202 -0.0367 -0.5520
52025SOL    HW162680   9.057   8.236   9.103  2.3374  0.2907  1.1046
52025SOL    HW262681   9.151   8.169   9.006 -0.8516  0.0030 -2.0227
52026SOL     OW62682  11.830   2.801   1.668  0.8125 -0.2006  0.0028
52026SOL    HW162683  11.788   2.820   1.585  2.5964  0.0606 -0.8927
52026SOL    HW262684  11.779   2.849   1.733 -1.7258 -1.8486 -0.6134
52027SOL     OW62685  12.303   2.897   0.869 -0.6900  0.1618  0.2824
52027SOL    HW162686  12.218   2.882   0.910 -1.0666 -2.1658 -1.1689
52027SOL    HW262687  12.283   2.919   0.779  0.2264  1.1215  0.2964
52028SOL     OW62688  10.603   9.856   8.739 -0.3394 -0.1488  0.2392
52028SOL    HW162689  10.581   9.949   8.747 -1.1252 -0.4222  1.6758
52028SOL    HW262690  10.578   9.833   8.649 -0.6328  0.8957  0.0389
52029SOL     OW62691   3.938   1.669   6.706 -0.1921  0.1765  0.2355
52029SOL    HW162692   4.015   1.717   6.675  1.0826 -1.7425  0.2293
52029SOL    HW262693   3.890   1.647   6.627 -0.4530  0.8659  0.1924
52030SOL     OW62694   3.533   6.831  10.105  0.5779  0.1330  0.5589
52030SOL    HW162695   3.504   6.861  10.191 -0.8159 -1.4245  0.6900
52030SOL    HW262696   3.454   6.793  10.065  1.3037  0.4154 -1.2289
52031SOL     OW62697   6.744  10.420   8.051  0.4327 -0.6759  0.2395
52031SOL    HW162698   6.738  10.515   8.044  1.2977 -0.6101  0.2345
52031SOL    HW262699   6.661  10.387   8.016 -0.2816  0.1034  1.1420
52032SOL     OW62700   5.013   3.501   2.137 -0.3675 -0.3709  0.0539
52032SOL    HW162701   4.984   3.558   2.066 -0.5585 -0.2036  0.2656
52032SOL    HW262702   5.087   3.453   2.100  0.4964  0.7946  0.2260
52033SOL     OW62703  12.337   8.025   4.351  0.3714 -0.3162 -0.5236
52033SOL    HW162704  12.302   7.940   4.377  0.9533 -0.8095 -1.3089
52033SOL    HW262705  12.280   8.054   4.281  0.3775 -0.2203 -0.4887
52034SOL     OW62706   0.886  11.205   4.295 -0.3434  0.0976  0.2329
52034SOL    HW162707   0.795  11.178   4.305  0.1529 -1.4939  0.9106
52034SOL    HW262708   0.882  11.295   4.263 -2.1473 -0.3959 -1.0835
52035SOL     OW62709   0.927   1.695   1.053 -0.0261  1.0626  0.0127
52035SOL    HW162710   0.839   1.725   1.030 -0.3386 -0.9350 -1.7804
52035SOL    HW262711   0.915   1.602   1.073  1.6327  0.8556  0.1382
52036SOL     OW62712   6.784   7.143   9.236 -0.3668 -0.4616 -0.1713
52036SOL    HW162713   6.756   7.059   9.201  0.2777 -0.5706 -0.4519
52036SOL    HW262714   6.793   7.129   9.330 -0.3761 -0.6737 -0.2019
52037SOL     OW62715   9.379  12.028   1.998 -0.0394 -0.2042 -1.0823
52037SOL    HW162716   9.394  11.980   1.916 -0.5460 -1.4434 -0.4761
52037SOL    HW262717   9.287  12.053   1.996 -0.8231 -2.6552  0.2831
52038SOL     OW62718   8.428  10.971   5.074 -0.7476 -0.0664  0.4318
52038SOL    HW162719   8.494  10.988   5.141 -0.1632 -0.8819  0.0761
52038SOL    HW262720   8.423  11.053   5.024  0.6666 -0.2833 -0.1090
52039SOL     OW62721   6.677   9.474   3.799  0.3010  0.0026  0.0955
52039SOL    HW162722   6.739   9.464   3.727  1.5043  3.4114  0.4500
52039SOL    HW262723   6.729   9.459   3.877 -0.8320 -2.9531  0.3883
52040SOL     OW62724   3.192   8.023   0.332  0.4727  0.5393  0.6119
52040SOL    HW162725   3.227   8.112   0.328  2.9843 -0.4149 -2.0808
52040SOL    HW262726   3.199   7.990   0.242 -1.2752 -2.0897  1.3183
52041SOL     OW62727   3.358   5.380   0.837 -0.0000 -0.1643  0.5601
52041SOL    HW162728   3.438   5.425   0.811  1.1493 -1.0228  2.3463
52041SOL    HW262729   3.361   5.297   0.789 -0.5259  0.3447 -0.3773
52042SOL     OW62730   6.830  10.544   8.641 -0.1056 -0.2683 -0.0755
52042SOL    HW162731   6.876  10.577   8.719 -1.3264 -0.7966  0.8973
52042SOL    HW262732   6.898  10.501   8.590  1.0866  1.7285 -0.2565
52043SOL     OW62733  11.530   0.484   0.129  0.5489 -0.3813  0.1781
52043SOL    HW162734  11.453   0.538   0.112  0.4249 -0.5248  0.2811
52043SOL    HW262735  11.494   0.395   0.140  0.6996 -0.3996  0.5183
52044SOL     OW62736   8.816   6.673   5.364 -0.4685  0.0249 -0.1034
52044SOL    HW162737   8.778   6.604   5.418 -1.7817  0.4793 -0.4215
52044SOL    HW262738   8.743   6.706   5.311 -0.0725  2.2051  0.6213
52045SOL     OW62739   6.389   3.477   1.591  0.4985  0.1418  0.0136
52045SOL    HW162740   6.348   3.391   1.598  0.4100  0.2416  0.7679
52045SOL    HW262741   6.434   3.489   1.675 -1.7527  1.9909  1.0487
52046SOL     OW62742   7.242   5.888  12.053 -0.0971  0.1075  0.2411
52046SOL    HW162743   7.335   5.911  12.045  0.0086 -0.5679 -0.6595
52046SOL    HW262744   7.196   5.972  12.050  0.4842  0.4635  0.8935
52047SOL     OW62745   3.425   8.426   0.526  0.0359 -0.3682 -0.4224
52047SOL    HW162746   3.515   8.400   0.545 -0.2872  0.6632  3.2468
52047SOL    HW262747   3.422   8.520   0.544 -1.4063  0.0051 -2.2516
52048SOL     OW62748  12.098  10.663   5.159  0.0890  0.1201 -0.6944
52048SOL    HW162749  12.132  10.719   5.090  0.1577 -0.7446 -1.3705
52048SOL    HW262750  12.164  10.595   5.170  0.9043  1.1532  1.4089
52049SOL     OW62751   2.553   6.814   9.118 -0.5911 -0.3529  0.2653
52049SOL    HW162752   2.504   6.815   9.036 -0.1554  0.3605  0.0091
52049SOL    HW262753   2.633   6.765   9.098 -1.0454 -1.2589  0.6051
52050SOL     OW62754   3.833   6.386   6.067  0.5059 -0.7111 -0.0503
52050SOL    HW162755   3.890   6.335   6.010  2.1195 -0.5187  1.3004
52050SOL    HW262756   3.888   6.458   6.098 -1.6594  1.9015 -1.8229
52051SOL     OW62757   7.539   6.261   2.306 -0.0432  0.0451  0.2378
52051SOL    HW162758   7.632   6.240   2.306 -0.2932 -1.2026  1.5136
52051SOL    HW262759   7.502   6.209   2.235 -0.2121 -1.7986  1.6224
52052SOL     OW62760   6.496   2.612  11.153  0.3193  0.2815 -0.1611
52052SOL    HW162761   6.486   2.537  11.211  0.4483 -0.4955 -1.1117
52052SOL    HW262762   6.583   2.602  11.115 -0.4846 -0.3153 -1.9448
52053SOL     OW62763   9.473   8.734   1.634 -0.2202 -0.6754 -0.4059
52053SOL    HW162764   9.505   8.788   1.562 -0.4949  0.0687  0.0231
52053SOL    HW262765   9.428   8.795   1.692 -0.7283 -1.3990 -0.0213
52054SOL     OW62766   6.677   9.297   4.159  0.0157  0.1327 -0.2975
52054SOL    HW162767   6.691   9.205   4.137  0.8448  0.6555 -2.1873
52054SOL    HW262768   6.754   9.322   4.211  1.3786  0.4665 -2.3349
52055SOL     OW62769   0.966   8.069   9.201  0.0306 -0.0554  0.1803
52055SOL    HW162770   0.887   8.108   9.162 -0.3363  0.5007  1.3894
52055SOL    HW262771   0.935   7.988   9.240  0.3386 -0.4824 -0.4552
52056SOL     OW62772   6.094   1.653  11.721  0.2281 -0.2511 -0.1035
52056SOL    HW162773   6.170   1.695  11.680  0.1835 -0.4541 -0.4029
52056SOL    HW262774   6.019   1.686  11.672  0.0979  0.1398  0.3514
52057SOL     OW62775   1.206  11.595   6.953  0.2160 -0.0613 -0.3101
52057SOL    HW162776   1.154  11.644   6.889 -0.1981  1.2816  1.0120
52057SOL    HW262777   1.284  11.648   6.967 -0.9611  1.1442  2.3218
52058SOL     OW62778   3.331   6.294  11.181  0.2774  0.1631  0.5888
52058SOL    HW162779   3.258   6.335  11.134  0.8467 -0.3511 -0.8120
52058SOL    HW262780   3.314   6.312  11.273  0.1018  2.8636  0.1015
52059SOL     OW62781   3.916   9.631  11.481  0.2466 -0.4015  0.3151
52059SOL    HW162782   3.871   9.548  11.500  1.5300 -1.2286 -0.1411
52059SOL    HW262783   3.915   9.678  11.565  1.6774 -1.9750  1.2771
52060SOL     OW62784   3.168   3.598   3.611  0.6618  0.1309  0.5683
52060SOL    HW162785   3.232   3.595   3.540  0.6766 -0.4843  0.5997
52060SOL    HW262786   3.169   3.689   3.641 -0.4566  0.7619 -1.2085
52061SOL     OW62787   0.596   6.932  11.859 -0.9426 -0.3519  0.2610
52061SOL    HW162788   0.616   6.965  11.771  1.0104  0.5412  0.9631
52061SOL    HW262789   0.671   6.875  11.880 -1.7413 -1.1317  1.0824
52062SOL     OW62790   2.219   6.666   8.271 -0.1203  0.0285 -0.6652
52062SOL    HW162791   2.180   6.748   8.301  2.0196  0.6887  0.4850
52062SOL    HW262792   2.295   6.693   8.219  0.8722 -1.2015  0.1025
52063SOL     OW62793   8.832   3.305   4.123 -0.1663 -0.2420 -0.1210
52063SOL    HW162794   8.872   3.308   4.210  0.6842 -0.1755 -0.4969
52063SOL    HW262795   8.891   3.357   4.068 -0.7204 -0.2410 -0.7225
52064SOL     OW62796   8.655   6.966   3.462  0.0268 -0.1090  0.4525
52064SOL    HW162797   8.627   6.886   3.418 -0.2916 -0.6433  1.5765
52064SOL    HW262798   8.749   6.971   3.447  0.0685 -0.7675  0.4945
52065SOL     OW62799  10.540   5.433  10.629  0.3058  0.0498  1.0361
52065SOL    HW162800  10.600   5.379  10.579 -0.0140  1.1962 -0.6566
52065SOL    HW262801  10.501   5.373  10.693  0.1425 -1.6515 -0.6044
52066SOL     OW62802   1.634   4.242   2.104  0.0990 -0.2283  0.6064
52066SOL    HW162803   1.579   4.203   2.172 -1.1487 -0.6944 -0.6370
52066SOL    HW262804   1.596   4.329   2.091 -0.7594 -0.7760 -0.6851
52067SOL     OW62805   5.493   8.940   1.884  0.2230 -0.4544  0.6921
52067SOL    HW162806   5.544   8.989   1.819  0.5692 -0.3294  1.0566
52067SOL    HW262807   5.540   8.857   1.895  0.3534 -0.3335  1.0398
52068SOL     OW62808   9.127   8.954   6.154 -0.2938 -0.0755 -0.0151
52068SOL    HW162809   9.040   8.914   6.152 -0.9184  1.2541 -1.9112
52068SOL    HW262810   9.131   9.007   6.075  2.0604  0.3362  0.3091
52069SOL     OW62811   1.655   8.502   9.657 -0.6235 -0.4003 -0.2711
52069SOL    HW162812   1.601   8.462   9.726  0.4069  0.8974  1.3848
52069SOL    HW262813   1.743   8.468   9.674 -0.0552  1.2038  0.1140
52070SOL     OW62814  12.501   4.317   6.840 -0.1744 -0.4931  0.3023
52070SOL    HW162815  12.436   4.262   6.885  0.6602 -1.2860  0.5591
52070SOL    HW262816  12.568   4.334   6.905  0.2721 -0.3477 -0.1862
52071SOL     OW62817   8.294   1.169   3.630  0.0064 -0.1705 -0.0212
52071SOL    HW162818   8.225   1.103   3.626  0.0567 -0.1814 -1.4075
52071SOL    HW262819   8.247   1.252   3.633 -0.0668 -0.2122 -0.0016
52072SOL     OW62820   9.527   1.056   1.849 -0.1906 -0.4317  0.3276
52072SOL    HW162821   9.500   1.099   1.930  0.0046  0.5976 -0.1297
52072SOL    HW262822   9.598   0.997   1.875  1.1747  1.2648  0.6619
52073SOL     OW62823  10.668   6.406   2.486  0.0781  0.3631  0.0553
52073SOL    HW162824  10.590   6.375   2.534  1.1732  0.6227  2.1063
52073SOL    HW262825  10.712   6.464   2.547  0.2550  2.8007 -2.2363
52074SOL     OW62826   2.368   2.547   7.448 -0.4217  0.6961  0.3447
52074SOL    HW162827   2.274   2.529   7.443 -0.3506 -0.1791  1.7133
52074SOL    HW262828   2.410   2.468   7.414 -0.1779  0.1913  1.7428
52075SOL     OW62829   8.802   1.110  10.063 -0.3065 -0.0508 -0.5470
52075SOL    HW162830   8.819   1.171  10.136 -0.2188 -1.6333  0.8082
52075SOL    HW262831   8.887   1.099  10.021 -0.1718  0.1786 -0.3390
52076SOL     OW62832   4.678   1.655   4.038  0.1534  0.0005 -0.2051
52076SOL    HW162833   4.606   1.704   4.077 -0.3792  0.0619 -1.2255
52076SOL    HW262834   4.666   1.565   4.069  0.3687  0.2507  0.6198
52077SOL     OW62835   4.124   4.830   5.160  0.0239 -0.1805 -0.0412
52077SOL    HW162836   4.096   4.902   5.216 -0.1728 -0.2410 -0.0617
52077SOL    HW262837   4.142   4.758   5.221  0.8608  0.0882  0.0381
52078SOL     OW62838   0.789   5.013  10.392  0.6462  0.2863 -0.1638
52078SOL    HW162839   0.732   5.020  10.469 -1.1745 -0.7910 -1.3417
52078SOL    HW262840   0.730   5.026  10.317  2.1146  0.0052 -1.4108
52079SOL     OW62841   9.391  10.342  11.311 -0.3643 -0.1444 -0.1452
52079SOL    HW162842   9.396  10.393  11.392 -1.8637  0.1264 -0.2057
52079SOL    HW262843   9.480  10.307  11.300  0.3436  1.3008  0.6412
52080SOL     OW62844   8.640   5.315   2.075  0.3446 -0.2726  0.2092
52080SOL    HW162845   8.724   5.324   2.121  0.2709 -0.2770  0.3475
52080SOL    HW262846   8.593   5.248   2.125 -0.0254  0.2403  0.5553
52081SOL     OW62847   5.677   8.365   9.172 -0.0526 -0.4148  0.9117
52081SOL    HW162848   5.755   8.311   9.180 -1.2497 -2.8321 -1.9992
52081SOL    HW262849   5.705   8.440   9.119  0.2916 -1.4302 -0.3994
52082SOL     OW62850   6.878   7.224  11.874  0.4244  0.3896 -0.0383
52082SOL    HW162851   6.955   7.215  11.931  0.1053  0.1217  0.3599
52082SOL    HW262852   6.806   7.243  11.934 -0.2048 -1.3762 -0.1681
52083SOL     OW62853  11.223   6.745  10.069 -0.1283 -0.5116 -0.3017
52083SOL    HW162854  11.253   6.836  10.065 -1.4987 -0.0910 -1.9902
52083SOL    HW262855  11.241   6.718  10.159  1.3982  1.0304 -0.0905
52084SOL     OW62856   3.579   9.285   8.514  0.3844 -0.0496 -0.2640
52084SOL    HW162857   3.540   9.225   8.577  0.8639  0.1961  0.2751
52084SOL    HW262858   3.672   9.263   8.515  0.2618 -0.7814 -1.6945
52085SOL     OW62859  10.917   9.970   2.075 -0.0488 -0.1703  0.3327
52085SOL    HW162860  10.971  10.017   2.138  0.6755 -0.3437 -0.1529
52085SOL    HW262861  10.907   9.883   2.113 -1.8028  0.4581  1.4796
52086SOL     OW62862   4.001  11.716   3.037  0.4883  0.1852  0.5950
52086SOL    HW162863   3.945  11.767   3.095  2.5080  0.8354  2.0825
52086SOL    HW262864   4.041  11.781   2.979  1.7699  0.1399  1.3780
52087SOL     OW62865   4.157   6.804  11.000 -0.6314 -0.2297 -0.0942
52087SOL    HW162866   4.148   6.815  11.094  0.0241  0.0080 -0.0549
52087SOL    HW262867   4.068   6.794  10.968 -0.7731 -2.5585  0.8120
52088SOL     OW62868   0.922   5.133   3.006  0.1893  0.1405  0.1521
52088SOL    HW162869   0.881   5.048   2.987  1.4388 -0.6870  1.0242
52088SOL    HW262870   0.913   5.182   2.924  0.7282 -1.3802 -0.8730
52089SOL     OW62871   6.624   9.890   8.493 -0.2303  0.4001 -0.3225
52089SOL    HW162872   6.553   9.827   8.503  0.9475 -0.9351 -0.1540
52089SOL    HW262873   6.597   9.943   8.418 -0.4052 -1.5068 -1.6852
52090SOL     OW62874  10.068   8.921   0.396 -0.3140  0.0224 -0.8998
52090SOL    HW162875  10.108   8.896   0.312 -1.0983 -0.6816 -1.0747
52090SOL    HW262876  10.127   8.987   0.431  0.2621  0.0127 -1.8053
52091SOL     OW62877   9.987   0.607   2.434  0.4423  0.0661  0.2467
52091SOL    HW162878   9.943   0.525   2.453 -2.1938  1.5392  0.9709
52091SOL    HW262879  10.014   0.641   2.519 -0.6472  1.0510  0.2193
52092SOL     OW62880   3.254   9.948  10.890  0.1366  0.4386 -0.0769
52092SOL    HW162881   3.314  10.019  10.865  0.6454  0.2295  0.5141
52092SOL    HW262882   3.185   9.991  10.941 -0.6446  0.7939 -1.4033
52093SOL     OW62883   6.392   3.217   8.935 -0.3411  0.1841 -0.5802
52093SOL    HW162884   6.303   3.182   8.947 -0.6696  1.0061 -0.5545
52093SOL    HW262885   6.379   3.299   8.888  0.5773 -0.6950 -2.4416
52094SOL     OW62886   4.744   8.631   1.287 -0.9466 -0.6547 -0.2229
52094SOL    HW162887   4.806   8.558   1.292 -1.2534 -0.8791  0.3938
52094SOL    HW262888   4.774   8.692   1.355 -1.0743 -0.5003 -0.3043
52095SOL     OW62889   9.773   1.189   3.770 -0.6184 -0.5820  0.2298
52095SOL    HW162890   9.723   1.191   3.688 -1.5964 -1.0340  0.8031
52095SOL    HW262891   9.850   1.243   3.752 -1.6807  0.7725 -0.4404
52096SOL     OW62892   5.519   7.609   4.785 -0.4692  0.5787  0.5326
52096SOL    HW162893   5.503   7.672   4.715 -1.2524 -0.7169 -0.5052
52096SOL    HW262894   5.450   7.626   4.849 -1.4768 -0.0297 -0.3574
52097SOL     OW62895   8.911  12.142   3.190 -0.1527  0.2909  0.1672
52097SOL    HW162896   8.895  12.065   3.244  0.9531 -0.1565 -0.1121
52097SOL    HW262897   8.847  12.207   3.221 -0.3705 -0.3681  1.1464
52098SOL     OW62898   2.241   7.394  11.580  0.2101 -0.0229  0.6504
52098SOL    HW162899   2.267   7.454  11.650 -2.2580  0.1966  1.4788
52098SOL    HW262900   2.248   7.446  11.500  1.7129  0.1606  0.8803
52099SOL     OW62901  12.623   8.864   3.996 -0.4996 -0.2509 -0.5220
52099SOL    HW162902  12.529   8.880   4.003 -0.4684  0.0551 -0.8126
52099SOL    HW262903  12.652   8.919   3.923  0.2545  1.1822  0.8070
52100SOL     OW62904   2.957   1.816   4.636  0.1521  0.0371 -0.0625
52100SOL    HW162905   2.906   1.817   4.556 -0.3825  1.6642  0.2615
52100SOL    HW262906   3.048   1.829   4.607  0.5559 -3.2269 -0.6692
52101SOL     OW62907  11.657   5.250  12.584  0.2892  0.7017 -0.5282
52101SOL    HW162908  11.715   5.321  12.557  2.0712  0.0114  1.2209
52101SOL    HW262909  11.586   5.251  12.520  2.1430  1.7002 -2.6899
52102SOL     OW62910   2.879   3.419  11.116  0.2372 -0.6647  0.0096
52102SOL    HW162911   2.815   3.485  11.145  1.2409 -0.2204  1.2799
52102SOL    HW262912   2.887   3.435  11.022 -0.4864  0.1858  0.0714
52103SOL     OW62913  10.809   2.075  10.044  0.4011 -0.5697  0.0166
52103SOL    HW162914  10.772   2.007   9.988 -2.2135  0.4165  0.4355
52103SOL    HW262915  10.817   2.034  10.130  0.0897 -0.7246 -0.0296
52104SOL     OW62916   0.648   0.735  10.186  0.7972 -0.3378  0.0761
52104SOL    HW162917   0.678   0.680  10.113 -0.1647 -1.7420  0.6857
52104SOL    HW262918   0.555   0.715  10.194  0.6180  0.7528  0.8845
52105SOL     OW62919   5.998   2.828   5.072 -0.2004 -0.0506  0.1836
52105SOL    HW162920   5.943   2.866   5.004 -2.1800  1.2241  2.3778
52105SOL    HW262921   6.075   2.886   5.075  0.3072 -0.5776 -1.4207
52106SOL     OW62922   7.380   1.009   4.052 -0.1824 -0.1477 -0.3567
52106SOL    HW162923   7.320   1.079   4.077  2.0160  1.3214  1.2539
52106SOL    HW262924   7.380   0.950   4.127  0.3939 -0.1126 -0.3271
52107SOL     OW62925   7.647   2.878   3.844 -0.2523  0.3636 -0.6884
52107SOL    HW162926   7.649   2.843   3.754 -1.6126  0.4400 -0.7613
52107SOL    HW262927   7.605   2.809   3.895 -1.0958  1.0455 -0.4496
52108SOL     OW62928  10.279  12.728  12.293 -0.1102 -0.0335  0.0073
52108SOL    HW162929  10.298  12.637  12.272 -1.4572  0.0628 -1.9974
52108SOL    HW262930  10.204  12.724  12.353 -0.5506 -0.2627 -0.5449
52109SOL     OW62931   6.511   5.296   6.097  0.3971  0.3285  0.1835
52109SOL    HW162932   6.517   5.324   6.188  0.5396  0.8509  0.0181
52109SOL    HW262933   6.417   5.290   6.080  0.3577 -1.2375  0.7935
52110SOL     OW62934   7.501   6.350   3.888 -0.4512  0.1372 -0.1924
52110SOL    HW162935   7.592   6.381   3.892 -0.1296 -0.5860 -1.4221
52110SOL    HW262936   7.509   6.255   3.882 -1.2852  0.0891 -0.5796
52111SOL     OW62937   2.041   5.363   8.996  0.0166  0.5343  0.4659
52111SOL    HW162938   2.066   5.421   8.924 -3.1928  0.7923 -0.6462
52111SOL    HW262939   2.031   5.277   8.954 -1.1307  0.5245  0.7215
52112SOL     OW62940   5.824   0.618   1.564 -0.0244  0.5221  0.3827
52112SOL    HW162941   5.744   0.568   1.548  0.4698 -0.1916  0.1283
52112SOL    HW262942   5.853   0.647   1.478  0.9999 -0.7976  0.2592
52113SOL     OW62943   6.078   9.468   8.754  0.5449 -0.1886 -0.4580
52113SOL    HW162944   6.039   9.554   8.771  0.2649 -0.7505  2.3270
52113SOL    HW262945   6.144   9.484   8.687 -0.9980  1.7432 -1.6158
52114SOL     OW62946   0.319   5.320   9.213  0.3602  0.0835 -0.6079
52114SOL    HW162947   0.259   5.300   9.284  1.3187  0.2292  0.2646
52114SOL    HW262948   0.298   5.255   9.145 -0.6786  0.0545 -0.2817
52115SOL     OW62949   4.670   3.282   1.960  0.3433  0.3641  0.0299
52115SOL    HW162950   4.636   3.197   1.935  0.4217  0.7133 -1.3638
52115SOL    HW262951   4.706   3.269   2.048  2.1040 -1.5417 -0.8889
52116SOL     OW62952   2.871   2.263  11.426 -0.4941 -0.3501  0.3408
52116SOL    HW162953   2.791   2.211  11.419 -0.7393 -0.0079  0.5554
52116SOL    HW262954   2.936   2.203  11.463  0.1984 -1.5257 -2.5089
52117SOL     OW62955   5.122  12.417   8.970  0.0757  0.1590  0.1820
52117SOL    HW162956   5.184  12.350   8.944  1.3487  1.7903 -1.2001
52117SOL    HW262957   5.037  12.385   8.940  0.6403 -0.8282 -0.3993
52118SOL     OW62958   6.302   9.407   1.415  0.2336 -0.4428 -0.0540
52118SOL    HW162959   6.308   9.483   1.358 -1.5596 -0.0310  0.2625
52118SOL    HW262960   6.370   9.347   1.384 -0.8376 -0.3535 -2.7833
52119SOL     OW62961  11.966  11.757  11.747 -0.2201 -0.6079  0.4288
52119SOL    HW162962  12.034  11.690  11.757 -1.3129 -1.4404  2.9896
52119SOL    HW262963  11.912  11.726  11.675 -0.4325 -2.2892  1.2673
52120SOL     OW62964   2.267   6.306   4.077  0.3254 -0.5214 -0.1817
52120SOL    HW162965   2.205   6.335   4.010 -1.0982  1.3097  1.7957
52120SOL    HW262966   2.230   6.224   4.110 -0.1780 -0.2719 -0.1192
52121SOL     OW62967   5.689   0.890   2.640  0.1401 -0.3438  0.1949
52121SOL    HW162968   5.727   0.972   2.610 -0.5520  0.7919  2.1875
52121SOL    HW262969   5.613   0.876   2.584 -0.2210  0.8389  0.3685
52122SOL     OW62970   2.085   2.769  11.341 -0.5637  0.0416 -0.4286
52122SOL    HW162971   2.110   2.679  11.360  1.6863  0.0156 -2.8868
52122SOL    HW262972   2.157   2.822  11.376 -1.3586  0.8195  0.0708
52123SOL     OW62973   7.036   9.908   8.089 -0.4604 -0.3721 -0.0635
52123SOL    HW162974   7.106   9.915   8.154  1.0830  0.2428 -1.7167
52123SOL    HW262975   6.957   9.896   8.141  0.6390  0.5392  1.9372
52124SOL     OW62976   4.045   7.031   8.818  0.3539  0.1752 -0.4483
52124SOL    HW162977   3.954   7.043   8.845  0.3111 -0.8433 -0.0950
52124SOL    HW262978   4.058   7.095   8.748 -0.4645  0.7131 -0.1211
52125SOL     OW62979   6.269  11.009   8.677 -0.0399  0.1098  0.5607
52125SOL    HW162980   6.293  11.087   8.728 -0.3564 -0.1707  1.1519
52125SOL    HW262981   6.197  11.038   8.621  0.5360  0.5101  0.0216
52126SOL     OW62982   8.587   9.099   1.802  0.5633 -0.4534  0.0590
52126SOL    HW162983   8.625   9.160   1.738 -0.9342 -0.4920 -0.9182
52126SOL    HW262984   8.610   9.013   1.767 -0.0914 -0.4720 -0.3407
52127SOL     OW62985   9.002   2.923  10.088 -0.1875  0.4984 -0.5153
52127SOL    HW162986   8.979   2.936   9.996  1.8438  0.1985 -1.1187
52127SOL    HW262987   8.943   2.854  10.119  0.5656 -0.9852 -2.2396
52128SOL     OW62988   8.658   8.041   9.225  0.5070 -0.1364 -0.3682
52128SOL    HW162989   8.584   8.102   9.233  1.2660  0.7175  0.4321
52128SOL    HW262990   8.676   8.014   9.315  0.2112 -1.5351 -0.7065
52129SOL     OW62991   3.334   0.252   2.362  0.7065  0.2015 -0.5624
52129SOL    HW162992   3.293   0.267   2.447  1.5164  0.3465 -0.1815
52129SOL    HW262993   3.425   0.282   2.374  1.0954 -0.6879 -1.1858
52130SOL     OW62994   2.521   7.661  11.245 -0.4379  0.0206 -0.0701
52130SOL    HW162995   2.555   7.576  11.217  0.3144  0.1136  0.5377
52130SOL    HW262996   2.596   7.720  11.242 -0.1471 -0.0831  2.6046
52131SOL     OW62997   2.790   1.706  10.408  0.0405 -0.0160  0.0993
52131SOL    HW162998   2.782   1.612  10.390  0.9692  0.0298 -0.6842
52131SOL    HW262999   2.717   1.746  10.360  1.1256 -0.1293 -1.7641
52132SOL     OW63000   1.042   3.616   2.755  0.9337  0.6560 -0.5358
52132SOL    HW163001   1.006   3.562   2.685 -0.6274  1.0094 -0.0432
52132SOL    HW263002   1.137   3.599   2.753  0.5182 -2.0817 -0.3747
52133SOL     OW63003   4.149   6.842   0.604 -0.3304  0.4223 -0.2335
52133SOL    HW163004   4.146   6.936   0.619 -0.8413  0.0958  1.9753
52133SOL    HW263005   4.156   6.803   0.691 -0.0867 -1.6012 -1.0860
52134SOL     OW63006   2.767   8.037   2.807 -0.1835  0.4110  0.1264
52134SOL    HW163007   2.729   7.983   2.737  0.6533 -2.5937  1.7927
52134SOL    HW263008   2.849   8.069   2.771 -1.5272  2.2066 -1.5315
52135SOL     OW63009   6.969  10.451   0.177  0.2548 -0.0174 -0.0518
52135SOL    HW163010   6.950  10.371   0.226 -0.6972 -0.8782 -1.7516
52135SOL    HW263011   7.042  10.428   0.120 -0.5132  0.0566 -1.0975
52136SOL     OW63012   5.705   4.567   8.747 -0.1816  0.6459  0.1084
52136SOL    HW163013   5.634   4.503   8.753 -0.5503  0.9923 -0.4866
52136SOL    HW263014   5.703   4.614   8.830 -0.5348  0.5358  0.1630
52137SOL     OW63015   2.997   5.272   9.033  0.5440  0.2113  0.7724
52137SOL    HW163016   2.992   5.202   8.967 -0.6729  0.4601  0.5698
52137SOL    HW263017   3.091   5.284   9.049  1.0653  1.7206 -2.6009
52138SOL     OW63018  10.561   3.435   1.126 -0.2487  0.3699 -0.4390
52138SOL    HW163019  10.481   3.388   1.153 -1.0526  1.3600 -1.0564
52138SOL    HW263020  10.600   3.464   1.209  1.0930 -2.5679  0.1199
52139SOL     OW63021   9.001   4.721   9.716 -0.3109 -0.6726 -0.3906
52139SOL    HW163022   8.991   4.719   9.811 -1.8870 -0.1433 -0.5076
52139SOL    HW263023   8.919   4.760   9.684  0.7452  0.4325 -1.8821
52140SOL     OW63024  11.887   8.787  12.117 -0.0496 -0.0535 -0.0195
52140SOL    HW163025  11.883   8.692  12.122  1.9111 -0.1935 -0.2644
52140SOL    HW263026  11.976   8.806  12.086 -0.4598  1.8521 -0.1865
52141SOL     OW63027   9.966   8.503   9.592  0.2817 -0.0632  0.0254
52141SOL    HW163028   9.889   8.560   9.590 -0.3697 -0.9379 -0.4116
52141SOL    HW263029   9.940   8.425   9.543  0.8756 -1.1138  1.3297
52142SOL     OW63030   1.072   0.704  10.860 -0.4977  0.2672 -0.1364
52142SOL    HW163031   1.023   0.722  10.940  0.1570  0.3808  0.2431
52142SOL    HW263032   1.030   0.758  10.793 -0.5560  0.7749  0.3056
52143SOL     OW63033   6.346  11.639  10.994  0.6650 -0.4700 -0.3199
52143SOL    HW163034   6.260  11.648  10.953  1.5458 -0.0607 -2.2189
52143SOL    HW263035   6.400  11.705  10.949  1.5513  0.5385  2.0891
52144SOL     OW63036   6.684   7.205   2.853  0.0656  0.1437 -0.0078
52144SOL    HW163037   6.590   7.202   2.836  0.2378  0.0747 -0.9605
52144SOL    HW263038   6.695   7.156   2.935 -0.6601 -0.2475 -0.1395
52145SOL     OW63039   6.602   5.498  11.114 -0.0802  0.1920 -0.0947
52145SOL    HW163040   6.680   5.554  11.112 -0.4018  0.6233 -0.9493
52145SOL    HW263041   6.530   5.558  11.134 -0.3192 -0.0493 -0.2321
52146SOL     OW63042   5.175   4.413  11.577 -0.0319 -0.2839  0.2143
52146SOL    HW163043   5.232   4.371  11.641 -0.0810 -1.1020 -0.2611
52146SOL    HW263044   5.235   4.462  11.520  0.2031 -1.0910 -0.2471
52147SOL     OW63045   6.026   9.274   3.151  0.0998 -0.2419 -0.2759
52147SOL    HW163046   6.031   9.271   3.247 -1.9736 -0.6912 -0.1399
52147SOL    HW263047   6.007   9.184   3.126 -2.5422  0.3856 -0.8234
52148SOL     OW63048   0.974   1.136   7.261  0.2666  0.1212 -0.5730
52148SOL    HW163049   1.034   1.210   7.248  0.0646  0.4674  0.4281
52148SOL    HW263050   0.940   1.117   7.173  1.9112 -0.1495 -1.1907
52149SOL     OW63051   6.532   7.933   2.369 -0.1263 -0.8185 -0.2420
52149SOL    HW163052   6.460   7.894   2.419  0.9547 -0.9619  1.2656
52149SOL    HW263053   6.497   7.942   2.281 -2.1536 -0.4392  0.5475
52150SOL     OW63054  10.199   2.401  11.299 -0.1951  0.0943  0.2028
52150SOL    HW163055  10.173   2.493  11.291 -0.9637 -0.1569 -0.3135
52150SOL    HW263056  10.151   2.356  11.229 -0.5308 -0.8457  1.0177
52151SOL     OW63057   3.162  12.106   5.154  0.4212 -0.1243 -0.1638
52151SOL    HW163058   3.136  12.021   5.189  0.6945 -0.6302 -1.1480
52151SOL    HW263059   3.086  12.162   5.166 -0.7127 -1.2162 -1.8056
52152SOL     OW63060   9.107   1.164   9.988 -0.1821  0.3420 -0.2544
52152SOL    HW163061   9.068   1.251   9.995  0.3942  0.5227  0.9435
52152SOL    HW263062   9.142   1.145  10.075 -1.0364 -1.4556 -0.2441
52153SOL     OW63063  11.108   1.180   0.596  0.0550 -0.2675  0.0952
52153SOL    HW163064  11.132   1.210   0.508  0.8516  1.4696  0.8420
52153SOL    HW263065  11.136   1.089   0.598  0.1753 -0.3032 -1.3954
52154SOL     OW63066   6.777   9.423   7.616 -0.3715  0.6992 -0.0398
52154SOL    HW163067   6.691   9.461   7.633 -0.0708  0.5291  2.1609
52154SOL    HW263068   6.839   9.487   7.650  0.1533 -1.3275  3.2860
52155SOL     OW63069   0.666   3.027   5.995 -0.1953 -0.0790 -0.0688
52155SOL    HW163070   0.642   3.008   6.085  0.3676  2.3317  0.6575
52155SOL    HW263071   0.761   3.036   5.997 -0.3001  1.3678 -0.5959
52156SOL     OW63072   1.467   8.606   5.158 -0.1068  0.0178  0.0406
52156SOL    HW163073   1.541   8.641   5.206  0.8875 -1.2800 -0.4891
52156SOL    HW263074   1.441   8.528   5.207 -0.9903  0.3275  0.0937
52157SOL     OW63075  12.298   2.345   8.905  0.1576  0.4862  1.2233
52157SOL    HW163076  12.286   2.293   8.825 -0.1786 -0.4673  1.8799
52157SOL    HW263077  12.343   2.425   8.875  1.1700 -0.4035  0.2774
52158SOL     OW63078  12.234  12.603   2.429 -0.0378 -0.3050  0.7440
52158SOL    HW163079  12.327  12.600   2.448 -0.0696 -0.0839  0.9290
52158SOL    HW263080  12.193  12.637   2.509 -0.2508 -0.1584  0.5747
52159SOL     OW63081   5.389   6.949   7.984 -0.6083 -0.1090  0.2637
52159SOL    HW163082   5.405   6.923   7.893  1.9808 -0.4292  0.7545
52159SOL    HW263083   5.349   7.036   7.977 -1.8550 -0.7548 -1.1848
52160SOL     OW63084   8.749   9.126   2.041  0.1741  0.9116  0.2832
52160SOL    HW163085   8.677   9.112   1.979 -1.0496 -1.0188  2.0453
52160SOL    HW263086   8.825   9.086   1.998 -1.1532 -2.6140  0.8763
52161SOL     OW63087  12.063  10.160   8.536 -0.0077 -0.1186 -0.0589
52161SOL    HW163088  12.103  10.110   8.465  1.6098 -1.0643  1.4636
52161SOL    HW263089  12.005  10.097   8.579  2.6396 -1.1175  2.3649
52162SOL     OW63090  10.976  11.010   0.025 -0.7217 -0.1242  0.6191
52162SOL    HW163091  10.967  10.947   0.097 -1.2351 -0.5081  0.2264
52162SOL    HW263092  10.987  10.955  -0.053 -0.8820  0.2781  0.3120
52163SOL     OW63093   3.372   9.819  11.260  0.1373 -0.5251  0.5932
52163SOL    HW163094   3.464   9.810  11.236  0.1544 -1.4508  0.9703
52163SOL    HW263095   3.363   9.911  11.285  1.0329 -0.4930  0.8369
52164SOL     OW63096   4.895   5.695   5.987  0.0859 -0.5318 -0.3803
52164SOL    HW163097   4.832   5.710   5.916  0.4715 -2.3798 -1.1747
52164SOL    HW263098   4.846   5.647   6.054  0.4408 -1.3349 -0.6829
52165SOL     OW63099   0.720  10.172   1.882  0.1152 -0.3714  0.0169
52165SOL    HW163100   0.748  10.170   1.974 -0.4580  0.3831  0.2200
52165SOL    HW263101   0.700  10.264   1.866 -0.1125 -0.5543 -0.7722
52166SOL     OW63102  11.983   6.693  11.456 -0.2785  0.5860  0.5295
52166SOL    HW163103  12.063   6.724  11.413 -0.5755  1.0426  0.2876
52166SOL    HW263104  11.954   6.618  11.403  0.4917 -0.1752  1.1671
52167SOL     OW63105   0.040   6.089   8.122  0.8093 -0.0362  0.2829
52167SOL    HW163106   0.011   6.139   8.198  1.8636  1.3179 -0.1556
52167SOL    HW263107   0.124   6.129   8.097 -0.5068  1.0760 -2.9051
52168SOL     OW63108   5.152   3.215   8.484  0.2144 -0.0719 -0.6683
52168SOL    HW163109   5.248   3.220   8.480  0.1340  1.9059 -0.7062
52168SOL    HW263110   5.135   3.126   8.516  2.1558  0.5230  2.3813
52169SOL     OW63111  10.884   8.250   3.780  0.7101 -0.1011 -0.1198
52169SOL    HW163112  10.792   8.230   3.797 -0.0597  1.1302 -2.3520
52169SOL    HW263113  10.932   8.174   3.812 -0.9361 -0.2178  2.2754
52170SOL     OW63114   1.716   4.540   7.185  0.4606  0.1208  0.2044
52170SOL    HW163115   1.638   4.488   7.202 -1.1012  1.6130 -1.9397
52170SOL    HW263116   1.683   4.622   7.150  2.9827  0.9745 -0.3680
52171SOL     OW63117  10.918   9.165   9.486 -0.0663  0.2981  0.5404
52171SOL    HW163118  10.857   9.238   9.477 -0.3640  0.1613  1.3546
52171SOL    HW263119  10.894   9.124   9.569 -0.1097 -0.9031 -0.0441
52172SOL     OW63120   9.911   8.183   3.857  0.7497 -0.2565  0.4892
52172SOL    HW163121   9.888   8.094   3.830  2.7479 -1.0668  1.2851
52172SOL    HW263122   9.970   8.214   3.788 -0.1398  0.5960  0.0782
52173SOL     OW63123   2.208   2.564   6.119 -0.1291  0.4388 -0.1927
52173SOL    HW163124   2.176   2.632   6.060 -0.9875 -0.9376 -1.3661
52173SOL    HW263125   2.277   2.519   6.070 -0.8014 -0.6800 -0.1394
52174SOL     OW63126   3.322   9.796   4.558  0.0284  0.0540 -0.4632
52174SOL    HW163127   3.302   9.774   4.467  1.9231 -1.1977 -0.6312
52174SOL    HW263128   3.238   9.788   4.604 -0.8194  0.0557 -1.9758
52175SOL     OW63129   3.699   8.131   6.749  0.3709  0.3606 -0.3753
52175SOL    HW163130   3.764   8.141   6.680  0.8663  1.8953  0.2814
52175SOL    HW263131   3.748   8.141   6.830 -0.3953 -0.3110  0.1882
52176SOL     OW63132   6.318   6.201   8.919  0.0648 -0.6543  0.0602
52176SOL    HW163133   6.249   6.207   8.984  0.6867  0.5994  0.6512
52176SOL    HW263134   6.277   6.232   8.838 -0.2047 -0.3839  0.2941
52177SOL     OW63135   7.208   0.621  10.547  0.6671  0.1490 -0.3531
52177SOL    HW163136   7.235   0.696  10.494 -0.0580 -0.3622 -1.5054
52177SOL    HW263137   7.131   0.586  10.501 -0.3270 -0.0125  1.3375
52178SOL     OW63138   1.522   7.888  10.553 -0.3031 -0.1294 -0.2640
52178SOL    HW163139   1.558   7.801  10.571 -0.2362 -0.2193 -0.7952
52178SOL    HW263140   1.474   7.912  10.632  0.9552  0.0068  0.4869
52179SOL     OW63141   3.024   4.568  11.380 -0.5332 -0.3169  0.5006
52179SOL    HW163142   2.970   4.494  11.352 -0.0392 -0.6559  0.4209
52179SOL    HW263143   2.975   4.608  11.451 -0.7856 -0.7541  0.5783
52180SOL     OW63144   6.924   6.385  11.103 -0.4013  0.0448 -0.0813
52180SOL    HW163145   6.969   6.384  11.019  0.5731  0.0427  0.4279
52180SOL    HW263146   6.883   6.298  11.110  0.0100 -0.1651 -0.2895
52181SOL     OW63147   0.470  11.623  11.402 -0.0136 -0.0807  0.0281
52181SOL    HW163148   0.446  11.708  11.440  0.1092  0.7567 -1.6692
52181SOL    HW263149   0.467  11.562  11.475  0.6173  1.5206  1.4433
52182SOL     OW63150   1.311   3.704  12.064 -0.2110 -0.0666 -0.0084
52182SOL    HW163151   1.341   3.783  12.107  1.0757  0.0310 -1.0091
52182SOL    HW263152   1.391   3.660  12.034 -0.9260 -1.3600 -0.1403
52183SOL     OW63153  11.350   7.443   9.818 -0.4040  0.0929  0.6917
52183SOL    HW163154  11.409   7.429   9.892 -0.4228 -0.1918  0.6539
52183SOL    HW263155  11.276   7.492   9.856  0.0063  0.7412  0.6657
52184SOL     OW63156   0.652   5.601   9.377  0.2512 -0.1954 -0.0571
52184SOL    HW163157   0.631   5.660   9.449  0.0455  0.5313 -0.6957
52184SOL    HW263158   0.645   5.656   9.299  1.0918 -0.8136 -0.5781
52185SOL     OW63159   6.588   9.401   9.634  0.1304 -0.4941 -0.3928
52185SOL    HW163160   6.562   9.349   9.558 -0.1323 -1.2089  0.1675
52185SOL    HW263161   6.649   9.345   9.682  0.4759  0.0410 -0.1953
52186SOL     OW63162   5.129   8.604   6.993 -0.5134 -0.5712 -0.1984
52186SOL    HW163163   5.083   8.656   6.927 -0.9259  0.5855  0.9576
52186SOL    HW263164   5.065   8.540   7.022 -2.1618  2.0465  2.5830
52187SOL     OW63165   7.100   6.418  11.325  0.0523 -0.0121 -0.3059
52187SOL    HW163166   7.031   6.439  11.388 -0.1252 -1.0780 -0.1259
52187SOL    HW263167   7.055   6.416  11.240  0.1435  0.6730 -0.3751
52188SOL     OW63168   6.628   6.060   3.887  0.2012  0.1838 -0.2917
52188SOL    HW163169   6.563   6.012   3.937 -0.4066  0.4462 -0.8197
52188SOL    HW263170   6.653   6.133   3.943 -1.5690  1.3354 -0.9378
52189SOL     OW63171   7.162  12.226   7.871 -0.9885 -0.4490  0.3905
52189SOL    HW163172   7.090  12.240   7.809 -0.3227  0.2768 -0.2455
52189SOL    HW263173   7.121  12.185   7.947 -1.9674 -0.5967 -0.2023
52190SOL     OW63174   4.932   3.331   1.842  0.3403  0.0031 -0.1686
52190SOL    HW163175   4.988   3.409   1.838  1.1032 -0.4358  1.1591
52190SOL    HW263176   4.845   3.364   1.864  0.5866  0.5010  0.0629
52191SOL     OW63177   6.534   3.388  10.083  0.8623  0.3287  0.4134
52191SOL    HW163178   6.600   3.455  10.100  0.0533  0.9158  1.3703
52191SOL    HW263179   6.486   3.380  10.166 -0.7760  0.4821 -0.4853
52192SOL     OW63180   2.342   1.408  11.057  0.1031  0.7370 -0.2684
52192SOL    HW163181   2.262   1.423  11.107  0.7566 -0.9208  1.3508
52192SOL    HW263182   2.373   1.322  11.085  0.8654 -0.0029 -3.0662
52193SOL     OW63183   4.372   3.741  12.771 -0.5830 -0.1316 -0.4674
52193SOL    HW163184   4.463   3.743  12.744 -0.3519 -0.8499  0.2284
52193SOL    HW263185   4.328   3.692  12.701 -0.6620  1.1653 -1.3748
52194SOL     OW63186   1.377   5.278   6.460 -0.3540 -0.1613  0.1930
52194SOL    HW163187   1.379   5.373   6.467 -1.0525  0.0612 -1.8037
52194SOL    HW263188   1.381   5.246   6.550  2.3388  1.6677  0.8337
52195SOL     OW63189  11.019   2.547   0.441 -0.2994 -0.2286 -0.3251
52195SOL    HW163190  11.026   2.641   0.426 -1.1422  0.5020  3.0169
52195SOL    HW263191  11.110   2.516   0.439  0.2173  1.1079  0.7199
52196SOL     OW63192   4.830   1.274   7.513  0.2387  0.2285  0.1653
52196SOL    HW163193   4.844   1.311   7.601  1.5229  2.3669 -0.8528
52196SOL    HW263194   4.746   1.310   7.485  0.6588  1.0100 -0.1332
52197SOL     OW63195   9.047   8.623   9.938 -0.3067  0.3195  0.6171
52197SOL    HW163196   8.968   8.676   9.945 -0.5617  0.0836 -0.3182
52197SOL    HW263197   9.051   8.598   9.846  1.3937  1.1320  0.4331
52198SOL     OW63198   4.274   7.330  12.345  0.4788 -0.1146 -0.2510
52198SOL    HW163199   4.232   7.393  12.286  0.5830  0.5227  0.3469
52198SOL    HW263200   4.341   7.380  12.391  1.6045 -1.0273 -0.8677
52199SOL     OW63201  10.804   8.430   7.049  0.2241  0.4522  0.2928
52199SOL    HW163202  10.823   8.362   7.114  0.7986  0.0738 -0.2644
52199SOL    HW263203  10.741   8.390   6.989  0.1143  0.6158  0.2961
52200SOL     OW63204   1.100  11.521  11.149 -0.0598 -0.6139 -0.4399
52200SOL    HW163205   1.121  11.427  11.144  1.3872 -0.2936 -0.9483
52200SOL    HW263206   1.092  11.538  11.243  2.5808 -0.7121 -0.1087
52201SOL     OW63207   0.263   2.719   3.689  1.0359  0.2371  0.0283
52201SOL    HW163208   0.193   2.701   3.626 -0.4535  0.6975  1.4712
52201SOL    HW263209   0.252   2.811   3.712  0.3837 -0.3145  2.2288
52202SOL     OW63210   8.898   9.607   1.758  0.1174 -0.0512 -0.5360
52202SOL    HW163211   8.898   9.658   1.839  0.4315  0.6341 -0.9570
52202SOL    HW263212   8.865   9.667   1.692 -0.0640 -0.5849 -0.9358
52203SOL     OW63213   5.032   7.206  11.602  0.3840  0.0748 -0.2698
52203SOL    HW163214   5.025   7.153  11.523 -1.7613  0.9918 -0.7854
52203SOL    HW263215   4.957   7.266  11.597  0.1535  0.1472  2.4643
52204SOL     OW63216   8.784  12.503  10.205  0.5660  0.2507  0.1988
52204SOL    HW163217   8.784  12.446  10.281 -1.5266 -0.2964 -0.1356
52204SOL    HW263218   8.814  12.448  10.133 -0.0875 -0.0424  0.1423
52205SOL     OW63219   5.873   9.071   6.417  0.6588  0.1506  0.4045
52205SOL    HW163220   5.959   9.033   6.437  0.0579 -0.6769  1.5738
52205SOL    HW263221   5.865   9.145   6.477 -0.1234 -0.8291  1.5711
52206SOL     OW63222   5.626   3.506  12.301 -0.1306  0.3735 -0.3168
52206SOL    HW163223   5.670   3.563  12.238 -0.9740 -0.2504 -1.5100
52206SOL    HW263224   5.622   3.421  12.258 -0.5020 -0.1323  0.6932
52207SOL     OW63225   0.700   9.060   0.943 -0.4442 -0.7509 -0.1579
52207SOL    HW163226   0.687   9.154   0.947 -0.6982 -0.7670 -0.5243
52207SOL    HW263227   0.763   9.048   0.872  1.6573 -0.6652  1.5931
52208SOL     OW63228   1.903   9.667  10.503  0.3268  0.0972 -0.4336
52208SOL    HW163229   1.982   9.720  10.507  1.1536 -1.0146 -1.2684
52208SOL    HW263230   1.887   9.641  10.594  0.5472  0.8583 -0.1733
52209SOL     OW63231   9.021  11.503  10.624 -0.0004 -0.0982 -0.2987
52209SOL    HW163232   9.039  11.410  10.638 -0.0252 -0.0356  0.1972
52209SOL    HW263233   8.944  11.505  10.569  0.3580 -0.3733 -0.8189
52210SOL     OW63234   7.916   2.375   4.267 -0.1388  0.4487 -0.2671
52210SOL    HW163235   7.884   2.455   4.226 -0.7320 -0.5855 -1.9306
52210SOL    HW263236   7.851   2.356   4.335 -0.0137  1.3417  0.1184
52211SOL     OW63237   0.268   9.178  11.931 -0.0157  0.5932 -0.4479
52211SOL    HW163238   0.298   9.250  11.876  1.0643 -0.2373 -0.9760
52211SOL    HW263239   0.247   9.108  11.870  0.1098  0.0491  0.1250
52212SOL     OW63240   2.349   6.900   1.715 -0.2133 -0.5831  0.3214
52212SOL    HW163241   2.284   6.949   1.663 -0.7112  0.3587  1.7572
52212SOL    HW263242   2.433   6.931   1.683 -0.5188  0.5806  0.6087
52213SOL     OW63243   7.067   7.423   9.274 -0.1191 -0.0817 -0.2439
52213SOL    HW163244   6.978   7.401   9.303  0.1509 -3.6656 -1.6233
52213SOL    HW263245   7.060   7.430   9.179  1.0619 -0.5683 -0.3810
52214SOL     OW63246   0.918   7.697   8.739 -0.1661 -0.4456  0.4628
52214SOL    HW163247   0.967   7.721   8.660  0.6693 -1.3058  0.7105
52214SOL    HW263248   0.840   7.752   8.735 -0.1074 -0.4126 -0.9343
52215SOL     OW63249   3.524   0.039   7.560 -0.0505 -0.8020  0.0438
52215SOL    HW163250   3.579   0.112   7.588  0.2370 -0.5144 -1.2151
52215SOL    HW263251   3.570   0.002   7.485 -0.8076 -1.5164 -0.0850
52216SOL     OW63252   7.390  10.308  10.491 -0.4938  0.0357  0.1553
52216SOL    HW163253   7.309  10.358  10.481 -0.2800  0.2851 -0.3278
52216SOL    HW263254   7.458  10.363  10.453 -0.2191 -0.5147 -0.1709
52217SOL     OW63255   1.772   9.868   3.456  0.4302  0.2317 -0.7481
52217SOL    HW163256   1.783   9.936   3.523 -0.0345  0.4566 -0.8967
52217SOL    HW263257   1.686   9.831   3.474 -0.1602  1.0105 -1.8626
52218SOL     OW63258   7.659   5.315   0.032  0.0852 -0.0671  0.3500
52218SOL    HW163259   7.609   5.339  -0.046 -0.8408 -0.5189  0.7933
52218SOL    HW263260   7.735   5.373   0.030 -1.2330  1.7518  0.5052
52219SOL     OW63261  11.572  10.622  10.439 -0.3379  0.4189  0.0758
52219SOL    HW163262  11.579  10.665  10.524 -1.1440  0.8356 -0.0527
52219SOL    HW263263  11.488  10.576  10.442  0.3447 -0.8604  0.0695
52220SOL     OW63264   3.301   7.830   1.018  0.3430 -0.5784  0.0291
52220SOL    HW163265   3.371   7.894   1.003 -1.2199  1.6823  1.6757
52220SOL    HW263266   3.313   7.804   1.110 -0.6038 -0.6772  0.1272
52221SOL     OW63267   9.630   1.642   9.036  0.1409 -0.9412 -0.0168
52221SOL    HW163268   9.572   1.565   9.041  1.2987 -1.7835  0.9441
52221SOL    HW263269   9.592   1.704   9.098 -0.2501 -1.1295 -0.0613
52222SOL     OW63270   1.630   0.956   3.513 -0.2911  0.0896 -0.5956
52222SOL    HW163271   1.592   0.897   3.578  0.6796 -0.2852 -0.3516
52222SOL    HW263272   1.567   0.956   3.441 -0.2260 -1.3898 -0.6759
52223SOL     OW63273   4.318  11.692   1.453 -0.0863 -0.7415 -0.1775
52223SOL    HW163274   4.224  11.697   1.436 -0.0659 -0.3524 -0.1930
52223SOL    HW263275   4.355  11.653   1.374 -0.1168  0.0948 -0.6259
52224SOL     OW63276   7.467   6.094   2.079  0.1248  0.2341  0.1732
52224SOL    HW163277   7.523   6.030   2.035 -0.4308  0.0385 -0.2738
52224SOL    HW263278   7.411   6.128   2.010  0.1646  0.9439  0.4795
52225SOL     OW63279  11.455   8.185   2.802 -0.3446 -0.1020 -0.2997
52225SOL    HW163280  11.505   8.105   2.786  0.5958  0.5997 -0.9474
52225SOL    HW263281  11.490   8.218   2.885  0.4451  0.5052 -0.8622
52226SOL     OW63282   8.537  12.449   7.471  0.4626  0.2880 -0.0754
52226SOL    HW163283   8.601  12.485   7.409  1.8347 -0.9730  0.5366
52226SOL    HW263284   8.501  12.373   7.427 -0.5211  0.8955 -0.3451
52227SOL     OW63285   6.900   5.838   1.056  0.1598 -0.5849 -0.0085
52227SOL    HW163286   6.878   5.815   1.147 -0.7549  1.1991  0.2680
52227SOL    HW263287   6.837   5.788   1.003  0.1509 -0.9974  0.3800
52228SOL     OW63288   3.188   1.832   9.947 -0.2261 -0.2262  0.1510
52228SOL    HW163289   3.252   1.878  10.001 -1.1162 -0.2408  1.2772
52228SOL    HW263290   3.236   1.759   9.909  0.0135 -1.3723  2.5032
52229SOL     OW63291   0.214   3.166   8.939 -0.5863  0.6009 -0.5824
52229SOL    HW163292   0.225   3.083   8.892 -2.4696 -0.2273  0.3552
52229SOL    HW263293   0.135   3.154   8.991  1.6524  1.2310  3.3254
52230SOL     OW63294   0.224   9.136  12.575 -0.3336 -0.5301 -0.5496
52230SOL    HW163295   0.130   9.125  12.562 -0.7143  1.7413 -0.2350
52230SOL    HW263296   0.232   9.187  12.656  1.0092  0.9636 -1.5386
52231SOL     OW63297  10.374   1.961   0.728 -0.0207  0.2922 -0.0599
52231SOL    HW163298  10.458   1.953   0.685  0.3265 -1.0319  0.7899
52231SOL    HW263299  10.372   1.888   0.790 -2.8702 -1.3975 -1.8897
52232SOL     OW63300   1.932   1.515  11.775 -0.0985  0.2044 -0.1006
52232SOL    HW163301   1.990   1.583  11.741  0.6225  2.3244  4.5542
52232SOL    HW263302   1.988   1.463  11.832 -1.7564 -1.0766  0.4403
52233SOL     OW63303   7.133  11.043  11.719 -0.9416  0.4440 -0.0561
52233SOL    HW163304   7.140  10.948  11.732  0.5824  0.4096 -0.9618
52233SOL    HW263305   7.046  11.055  11.679 -0.6951 -0.7015 -0.9876
52234SOL     OW63306   1.475   9.103   9.220  0.1437 -0.2390  0.4413
52234SOL    HW163307   1.458   9.147   9.137  0.7336  0.8275  0.8624
52234SOL    HW263308   1.569   9.113   9.234  0.3103 -1.6994  0.5438
52235SOL     OW63309   9.920   1.140  10.586 -0.2033  0.3179  0.3388
52235SOL    HW163310   9.985   1.070  10.597  1.0400  1.6148  1.8413
52235SOL    HW263311   9.850   1.100  10.535  0.3277 -2.0886  1.3574
52236SOL     OW63312   5.605   9.583   0.964 -0.3463 -0.2604 -0.3573
52236SOL    HW163313   5.686   9.550   0.925  0.1829  1.0223 -0.4039
52236SOL    HW263314   5.621   9.677   0.975 -2.1912  0.1961 -1.2536
52237SOL     OW63315   8.299  10.349  10.342  0.3315 -0.1181  0.0346
52237SOL    HW163316   8.208  10.320  10.341  0.2300  0.1601  0.8509
52237SOL    HW263317   8.301  10.423  10.281 -0.1761  0.4149  0.6489
52238SOL     OW63318  10.756   0.797   6.855  0.5156 -0.0709  0.4727
52238SOL    HW163319  10.849   0.775   6.861  0.6777  0.4449 -0.1088
52238SOL    HW263320  10.711   0.716   6.880  1.1130 -0.1150  1.4536
52239SOL     OW63321   8.550   3.384   4.794  0.3713  0.3511  0.1695
52239SOL    HW163322   8.636   3.421   4.775  0.9630 -1.3718 -0.6783
52239SOL    HW263323   8.495   3.409   4.720  0.3970  0.6241  0.2406
52240SOL     OW63324   2.742   2.136   5.379 -0.5932 -0.3860  0.0100
52240SOL    HW163325   2.743   2.228   5.406 -2.8873 -0.1093 -0.6018
52240SOL    HW263326   2.682   2.093   5.441  0.4904 -1.5101  0.3239
52241SOL     OW63327  10.176   7.141   9.865  0.2021  0.3501  0.1541
52241SOL    HW163328  10.187   7.211   9.931  0.3531 -1.1598  1.8065
52241SOL    HW263329  10.266   7.117   9.842  0.1615  1.4963 -1.3720
52242SOL     OW63330   9.784   7.324   2.409  0.4588 -0.2453  0.2010
52242SOL    HW163331   9.693   7.351   2.412  1.2092  2.4882  0.9909
52242SOL    HW263332   9.796   7.290   2.320 -1.1030  0.2388 -0.2215
52243SOL     OW63333   2.416   5.338  10.018 -0.2163  0.5199 -0.1700
52243SOL    HW163334   2.322   5.321  10.024  0.0381 -1.4274 -1.0386
52243SOL    HW263335   2.438   5.321   9.927  0.7617  2.4114 -0.3370
52244SOL     OW63336   1.527   9.061   8.027 -0.5726 -0.1278  0.3130
52244SOL    HW163337   1.539   9.125   7.957  1.9033  0.5094  1.2181
52244SOL    HW263338   1.595   9.082   8.091 -0.7316 -2.6494  1.4408
52245SOL     OW63339   9.997   9.300   8.585  0.6905 -0.5874  0.8846
52245SOL    HW163340  10.065   9.351   8.630 -0.5949  0.0684  2.1801
52245SOL    HW263341   9.984   9.344   8.502 -0.4415  1.3375  2.0040
52246SOL     OW63342   6.285   0.758   2.998  0.3403  0.0404  0.4315
52246SOL    HW163343   6.276   0.832   3.058  0.4293  0.1347  0.3275
52246SOL    HW263344   6.242   0.685   3.044  0.1117  0.1939  0.4638
52247SOL     OW63345  10.829   6.397  11.925 -0.4104 -0.0950  0.0799
52247SOL    HW163346  10.923   6.411  11.914 -0.4140  0.8095  1.1063
52247SOL    HW263347  10.788   6.475  11.888 -0.7061 -0.0024  0.5913
52248SOL     OW63348   4.776   5.908   9.495 -0.1259 -0.0708  0.0473
52248SOL    HW163349   4.748   5.873   9.411 -1.7228 -0.2196  0.6077
52248SOL    HW263350   4.754   5.840   9.559 -0.7906  0.8215  0.8155
52249SOL     OW63351   9.430  11.641  10.282  0.2145 -0.1346 -0.2109
52249SOL    HW163352   9.518  11.652  10.247  0.0110  1.8671 -0.2113
52249SOL    HW263353   9.423  11.708  10.350 -1.7330  0.6644 -1.1269
52250SOL     OW63354   3.271  10.888  10.027 -0.2570 -0.0740  0.5871
52250SOL    HW163355   3.205  10.819  10.034  0.4776 -1.0508 -1.2815
52250SOL    HW263356   3.243  10.955  10.090 -2.3451 -0.9831  0.7125
52251SOL     OW63357  11.220  11.296   7.064 -0.5641  0.0602 -0.3875
52251SOL    HW163358  11.244  11.220   7.117  0.5832  1.3664  1.0846
52251SOL    HW263359  11.197  11.260   6.978 -0.1189 -1.9236  0.2730
52252SOL     OW63360   4.398   3.135  12.366 -0.3643 -0.3413 -0.0348
52252SOL    HW163361   4.490   3.152  12.347 -0.0722 -0.5856  1.0561
52252SOL    HW263362   4.358   3.118  12.281  0.7961 -1.1580 -0.4371
52253SOL     OW63363   6.765   8.467  10.925 -0.4297  0.1623  0.0710
52253SOL    HW163364   6.755   8.557  10.956 -1.8988  0.2568 -0.5968
52253SOL    HW263365   6.806   8.421  10.998 -2.4411  0.7078  1.6116
52254SOL     OW63366   6.489   7.195  10.246  0.1486 -0.0975 -0.1018
52254SOL    HW163367   6.507   7.111  10.289 -1.0551 -1.1235 -1.4990
52254SOL    HW263368   6.399   7.187  10.216  0.3944  1.2641 -1.2538
52255SOL     OW63369   0.871   9.040   0.718 -0.3344  0.0479 -0.1303
52255SOL    HW163370   0.862   9.062   0.626 -1.5890  0.8937  0.1613
52255SOL    HW263371   0.874   8.944   0.720 -3.1488 -0.1290 -0.8750
52256SOL     OW63372   9.922   7.148   7.180 -0.0079  0.3105  0.3512
52256SOL    HW163373   9.979   7.071   7.187 -1.0090 -0.3999  0.9875
52256SOL    HW263374   9.834   7.114   7.195 -1.0809  0.8182 -3.5562
52257SOL     OW63375  12.054   0.679   8.073 -0.0899  0.0923  0.2760
52257SOL    HW163376  12.014   0.762   8.046 -0.6388  0.3211  1.6603
52257SOL    HW263377  11.993   0.612   8.044  1.8753 -0.2066 -3.7776
52258SOL     OW63378   8.759  11.777   4.610 -0.2835  0.3407  0.4408
52258SOL    HW163379   8.677  11.791   4.563 -1.4775  1.6586  2.7246
52258SOL    HW263380   8.785  11.688   4.588 -1.0009  0.7127 -2.2176
52259SOL     OW63381   8.602   7.785   9.764  0.3107 -0.4693 -0.3360
52259SOL    HW163382   8.510   7.803   9.785 -0.0983 -1.7370 -0.9231
52259SOL    HW263383   8.640   7.755   9.847  0.8576  2.2947  0.5133
52260SOL     OW63384  12.627   1.823   8.716  0.7467  0.2233  0.3297
52260SOL    HW163385  12.570   1.751   8.691 -1.3567  1.5648  0.9755
52260SOL    HW263386  12.716   1.787   8.712 -0.1695 -2.1182 -0.1687
52261SOL     OW63387   4.631   3.223   4.740  0.1330 -0.0925 -0.1383
52261SOL    HW163388   4.556   3.183   4.697 -0.4907  0.0530  0.7934
52261SOL    HW263389   4.610   3.315   4.746  1.0266  0.2067 -1.1481
52262SOL     OW63390   4.881   9.411   2.386 -0.4316 -0.2736 -0.4707
52262SOL    HW163391   4.921   9.424   2.473  0.8987  1.6425 -1.3087
52262SOL    HW263392   4.906   9.488   2.336 -0.8039 -1.5133 -2.7206
52263SOL     OW63393   6.438  11.232  11.054  0.2649  0.7634  0.6854
52263SOL    HW163394   6.344  11.243  11.069 -0.3868 -2.5710 -0.0807
52263SOL    HW263395   6.467  11.175  11.124  0.8474 -1.2078 -1.0513
52264SOL     OW63396   9.481   1.104   7.602 -0.1127  0.1589  0.4863
52264SOL    HW163397   9.559   1.132   7.554  0.7114 -1.1864  0.9992
52264SOL    HW263398   9.495   1.133   7.692  0.2545 -0.9377  0.7885
52265SOL     OW63399  10.545   7.406   0.789  0.1472 -0.1003  0.2078
52265SOL    HW163400  10.570   7.475   0.850 -0.0346  1.1089 -1.0513
52265SOL    HW263401  10.622   7.394   0.733 -0.2180 -0.1299 -0.2898
52266SOL     OW63402  11.845   6.868  11.235  0.0498  0.2575  0.2079
52266SOL    HW163403  11.807   6.954  11.218 -0.0305  0.5766  1.9049
52266SOL    HW263404  11.911   6.884  11.302  1.5393 -0.6848 -0.9628
52267SOL     OW63405  11.195   3.335   3.404  0.2074 -0.3577  0.4040
52267SOL    HW163406  11.186   3.307   3.313  1.0920  2.3464 -0.6370
52267SOL    HW263407  11.219   3.256   3.452 -0.1996 -1.8432 -1.7258
52268SOL     OW63408   8.544  10.337   0.565 -0.1163  0.2162 -0.3601
52268SOL    HW163409   8.536  10.331   0.660  2.3046 -3.4791 -0.2014
52268SOL    HW263410   8.478  10.277   0.531 -2.1491  2.7624 -1.2711
52269SOL     OW63411   1.972   9.307   4.916  0.0956  0.0685  0.2758
52269SOL    HW163412   1.897   9.343   4.868  0.0132  1.3071  1.2824
52269SOL    HW263413   1.944   9.308   5.008  1.1427  0.0408  0.6043
52270SOL     OW63414  11.611   9.743  12.645  0.0327 -0.1727 -0.3520
52270SOL    HW163415  11.518   9.721  12.647  0.2675 -1.8689 -2.8863
52270SOL    HW263416  11.615   9.829  12.602 -0.3546 -0.2172 -0.4817
52271SOL     OW63417   7.536  12.145   7.580 -0.1557 -0.1572  0.0674
52271SOL    HW163418   7.614  12.089   7.582  0.0691  0.1204 -0.5938
52271SOL    HW263419   7.470  12.093   7.536  0.1391  0.1990 -0.8048
52272SOL     OW63420   3.829   1.207   9.999  0.1064  0.7387 -0.4695
52272SOL    HW163421   3.797   1.294   9.976  0.0914  0.7656 -0.3429
52272SOL    HW263422   3.758   1.148   9.972 -0.2534  0.8355  0.2404
52273SOL     OW63423   0.856   0.557   1.083 -0.6211  0.2093  0.2648
52273SOL    HW163424   0.899   0.478   1.114 -0.6206 -0.0492 -0.3672
52273SOL    HW263425   0.767   0.528   1.060  0.1232 -0.2433 -2.4486
52274SOL     OW63426   8.037   5.032   4.503  0.5468 -0.0693  0.0334
52274SOL    HW163427   8.105   4.964   4.504 -0.8695 -1.5485  0.8536
52274SOL    HW263428   8.042   5.070   4.416  1.9118 -0.6581 -0.1737
52275SOL     OW63429  10.902   8.827  10.191  0.8848  0.0819  0.2709
52275SOL    HW163430  10.985   8.850  10.148  1.4970 -1.9009  0.2805
52275SOL    HW263431  10.914   8.736  10.218 -1.1162 -0.0735  0.7659
52276SOL     OW63432  10.485   2.539  10.775 -0.2075  0.2464 -0.2138
52276SOL    HW163433  10.400   2.528  10.818 -0.5310 -2.7177 -1.3344
52276SOL    HW263434  10.470   2.512  10.684  1.2214  3.0188 -1.3739
52277SOL     OW63435  10.770   2.310   2.611  0.2181 -0.3216  0.0191
52277SOL    HW163436  10.679   2.300   2.637  0.5542 -0.3209  1.3016
52277SOL    HW263437  10.791   2.230   2.563 -0.3222 -0.5560  0.1716
52278SOL     OW63438   4.530  10.916  10.369 -0.2393 -0.2082  0.0879
52278SOL    HW163439   4.466  10.982  10.398 -1.1201  0.4411 -2.9053
52278SOL    HW263440   4.533  10.852  10.440 -3.7552  0.0973  0.6913
52279SOL     OW63441   0.620  10.446  11.663  0.1734 -0.0874  0.1279
52279SOL    HW163442   0.705  10.482  11.685  0.8020 -1.1595 -0.4653
52279SOL    HW263443   0.595  10.490  11.581  0.0878  0.3263  0.3748
52280SOL     OW63444  10.629   1.043   9.489  0.0379 -0.1972  0.6618
52280SOL    HW163445  10.608   0.962   9.442 -1.0658  1.2040 -1.4232
52280SOL    HW263446  10.565   1.047   9.559 -1.6650  0.1115 -0.8380
52281SOL     OW63447   9.223   6.056  11.743 -0.2069  0.3703 -0.1655
52281SOL    HW163448   9.252   6.013  11.663  0.1415  1.7258 -0.7944
52281SOL    HW263449   9.188   5.985  11.797  2.0750 -1.0063 -0.3500
52282SOL     OW63450   4.882   2.956   2.517 -0.3181 -0.2377 -0.2942
52282SOL    HW163451   4.788   2.968   2.530 -0.0085  1.3906  0.6224
52282SOL    HW263452   4.918   3.044   2.518  1.5668 -0.9318  2.1807
52283SOL     OW63453   1.860   7.567   7.307 -0.1248  0.5083  0.0021
52283SOL    HW163454   1.947   7.531   7.318 -0.7565 -1.1003  0.0358
52283SOL    HW263455   1.804   7.490   7.295 -1.9315  1.2676  2.5716
52284SOL     OW63456   7.084  10.907  10.606  0.3459  0.2493  0.1052
52284SOL    HW163457   7.107  10.915  10.699  1.6395  1.0889 -0.2613
52284SOL    HW263458   7.151  10.957  10.561 -0.5710  0.2777 -1.2622
52285SOL     OW63459   1.256   6.515   9.560  0.4451  0.0648  0.4039
52285SOL    HW163460   1.345   6.537   9.589  0.4190 -1.9360  2.2657
52285SOL    HW263461   1.199   6.569   9.615  0.4814 -0.7304  1.2432
52286SOL     OW63462   2.722   0.755   3.619  0.3403 -0.2481  0.0628
52286SOL    HW163463   2.756   0.696   3.687  0.8476  1.2487  1.1676
52286SOL    HW263464   2.634   0.777   3.648  0.3384 -0.0746 -0.0675
52287SOL     OW63465   1.932   8.826   1.562  0.0016 -0.2625 -0.1661
52287SOL    HW163466   1.858   8.887   1.566  1.0602  1.0389  0.3624
52287SOL    HW263467   1.946   8.801   1.654  1.4412  1.0838  0.0294
52288SOL     OW63468  10.406   0.447   0.642 -0.0807 -0.3270 -0.1862
52288SOL    HW163469  10.313   0.463   0.630 -0.6593 -0.9974  2.5912
52288SOL    HW263470  10.433   0.511   0.708  1.2625 -0.5754 -0.4666
52289SOL     OW63471   5.059   2.894   8.020 -0.0227 -0.4252  0.0855
52289SOL    HW163472   5.115   2.859   7.951 -0.2054 -2.3123  0.8542
52289SOL    HW263473   5.001   2.822   8.044 -1.0493  0.6839  1.1216
52290SOL     OW63474   6.610   0.133  10.157 -0.0246  0.2137  0.9813
52290SOL    HW163475   6.695   0.135  10.112  1.4723  0.1178  3.6134
52290SOL    HW263476   6.574   0.220  10.142 -0.7284 -0.4941 -2.2425
52291SOL     OW63477   7.190   7.696   5.425 -0.3827 -0.1034 -0.1942
52291SOL    HW163478   7.231   7.634   5.365 -0.2523 -2.0735  1.7921
52291SOL    HW263479   7.238   7.686   5.507 -2.2960  0.4022  1.0784
52292SOL     OW63480   5.651   8.764   7.307  0.1334  0.2415  0.1958
52292SOL    HW163481   5.679   8.831   7.244 -1.4521  0.4349 -0.3381
52292SOL    HW263482   5.707   8.778   7.383  1.0383  1.0067 -0.5754
52293SOL     OW63483   9.504   4.914   0.653  0.6227 -0.1746  0.3163
52293SOL    HW163484   9.470   4.853   0.719 -1.0099 -0.2150 -0.5059
52293SOL    HW263485   9.495   5.000   0.695 -1.4437 -0.0913 -0.1979
52294SOL     OW63486   6.829   5.530   8.599  0.1079 -0.7198  0.4866
52294SOL    HW163487   6.911   5.520   8.551 -0.0042 -1.8053  0.4963
52294SOL    HW263488   6.761   5.515   8.533 -0.0966  0.1171  0.4916
52295SOL     OW63489  10.727   0.187   7.489  0.5220 -0.7067  0.3817
52295SOL    HW163490  10.683   0.269   7.510 -1.6347 -1.5038 -0.6955
52295SOL    HW263491  10.662   0.119   7.508  1.4016 -1.9896 -0.9384
52296SOL     OW63492  11.776   1.480   1.008  0.1531  0.2997 -0.0434
52296SOL    HW163493  11.808   1.417   1.072  1.4727 -0.7481 -1.6360
52296SOL    HW263494  11.699   1.439   0.970  0.1004  0.3472  0.0138
52297SOL     OW63495   2.748   6.836   5.462 -0.2072  0.1229 -0.0446
52297SOL    HW163496   2.690   6.760   5.447 -0.0011  0.0337 -0.4004
52297SOL    HW263497   2.795   6.846   5.379  1.7747 -1.0594  0.8882
52298SOL     OW63498   0.446   9.736   5.353 -0.1345 -0.0378 -0.1304
52298SOL    HW163499   0.364   9.761   5.310 -0.8849 -0.2970  1.0869
52298SOL    HW263500   0.459   9.644   5.329 -0.3330 -0.0602 -0.1539
52299SOL     OW63501   9.041   9.281   9.058  0.0673  0.1233  0.0639
52299SOL    HW163502   9.130   9.304   9.029  0.6020 -2.8682 -0.9873
52299SOL    HW263503   8.985   9.304   8.984 -0.0299  1.6544  0.5810
52300SOL     OW63504   0.989  11.944   0.313  0.0440 -0.7723 -0.0748
52300SOL    HW163505   0.991  12.037   0.293 -2.2676 -0.5542  0.4761
52300SOL    HW263506   1.003  11.901   0.229  2.9033 -0.0104 -0.0897
52301SOL     OW63507   4.515   7.275   0.050  0.4333  0.2719 -0.4298
52301SOL    HW163508   4.547   7.197   0.004  1.2604 -0.3652  1.1292
52301SOL    HW263509   4.592   7.331   0.059  0.5069 -0.0141  0.9030
52302SOL     OW63510   5.317   8.040   0.749  0.4871 -0.2618 -0.1071
52302SOL    HW163511   5.312   8.002   0.836  1.9966  0.2218  0.2091
52302SOL    HW263512   5.341   8.131   0.763 -0.1155  0.0528 -0.9984
52303SOL     OW63513   6.848  12.027   6.264 -0.4521  0.1533  0.2582
52303SOL    HW163514   6.832  12.119   6.285  0.7180  0.6620 -0.9065
52303SOL    HW263515   6.762  11.987   6.262 -0.9446  1.1147  1.2679
52304SOL     OW63516   1.378   3.002   6.367 -0.1124  0.4517 -0.0272
52304SOL    HW163517   1.364   3.087   6.325  1.4328  0.0553 -1.4839
52304SOL    HW263518   1.452   3.016   6.426 -2.3018  1.0140  2.7918
52305SOL     OW63519   2.679  10.842   7.720 -0.3687 -0.5401  0.6610
52305SOL    HW163520   2.618  10.769   7.727 -0.9193 -0.3278 -1.3689
52305SOL    HW263521   2.682  10.862   7.627  2.1900  0.0096  0.8100
52306SOL     OW63522   2.200   8.294   8.617  0.0399 -0.0200 -0.4667
52306SOL    HW163523   2.150   8.368   8.651  1.1580  0.0727  1.0476
52306SOL    HW263524   2.189   8.300   8.522  0.0231  2.0408 -0.3810
52307SOL     OW63525  11.235   6.889   7.624  0.1288 -0.0667 -1.2542
52307SOL    HW163526  11.213   6.982   7.634  0.3003 -0.0149 -1.3628
52307SOL    HW263527  11.243   6.876   7.530  0.6636 -0.0641 -1.2090
52308SOL     OW63528   8.550   5.465   3.174  0.2708  0.2841 -0.1716
52308SOL    HW163529   8.546   5.473   3.079 -1.3505 -0.8737 -0.2427
52308SOL    HW263530   8.504   5.542   3.207 -1.1968 -0.4576 -0.4150
52309SOL     OW63531  11.708   4.259   0.645  0.1932  0.3713 -0.6243
52309SOL    HW163532  11.697   4.267   0.551  1.0940  0.8801 -0.7017
52309SOL    HW263533  11.763   4.181   0.657  0.8166  0.8008 -0.5940
52310SOL     OW63534   5.397   0.153   0.549  0.2482  0.3542 -0.0691
52310SOL    HW163535   5.471   0.184   0.602  0.3382 -0.0584  0.0494
52310SOL    HW263536   5.344   0.101   0.610  0.5862 -0.4937 -0.4844
52311SOL     OW63537  10.068   6.179   5.342  0.5825 -0.2185 -0.1109
52311SOL    HW163538  10.087   6.088   5.320 -0.6876 -0.4906 -0.1292
52311SOL    HW263539  10.130   6.230   5.289  0.3719 -1.0218 -1.1472
52312SOL     OW63540  12.076   5.593   8.523  0.0698 -0.8596 -0.7299
52312SOL    HW163541  12.128   5.546   8.587 -0.6497 -2.2728 -1.1381
52312SOL    HW263542  12.115   5.570   8.439  0.2715  0.0160 -0.8831
52313SOL     OW63543  12.245   2.188  12.769 -0.4648 -0.2188 -0.6399
52313SOL    HW163544  12.201   2.209  12.851  0.3914 -1.2657  0.1205
52313SOL    HW263545  12.260   2.273  12.728 -0.6621  0.3568  0.4317
52314SOL     OW63546  10.480  11.189   5.385  0.1146  0.1668  0.5975
52314SOL    HW163547  10.449  11.162   5.299  0.9378 -0.7197  0.5663
52314SOL    HW263548  10.484  11.284   5.380 -2.1494  0.3058  0.4719
52315SOL     OW63549   7.954  11.531   0.794  0.2962 -0.4161  0.0327
52315SOL    HW163550   7.892  11.487   0.853  1.6807 -0.5138  1.4797
52315SOL    HW263551   7.978  11.463   0.731 -0.9587 -0.4106 -0.4755
52316SOL     OW63552  11.490   4.355   1.006  0.2234 -0.1604 -0.6149
52316SOL    HW163553  11.433   4.431   1.014  0.2140 -0.1805 -0.4909
52316SOL    HW263554  11.534   4.348   1.091  0.1605 -0.3438 -0.5974
52317SOL     OW63555   5.068   2.321   8.682 -0.2154 -0.1000 -0.1399
52317SOL    HW163556   5.089   2.410   8.710 -0.9058  0.8807 -2.5429
52317SOL    HW263557   4.986   2.330   8.633  0.3146 -1.8606 -1.4469
52318SOL     OW63558   2.908   5.647   5.381  0.5408 -0.1656  0.0779
52318SOL    HW163559   2.988   5.617   5.425 -0.3646 -1.7034  0.8014
52318SOL    HW263560   2.881   5.572   5.328 -0.8744 -0.0006  0.5247
52319SOL     OW63561   2.279   0.273   8.281  0.0450  0.1298 -0.5231
52319SOL    HW163562   2.239   0.278   8.194  0.8452  0.3459 -0.8880
52319SOL    HW263563   2.274   0.363   8.314  0.8692  0.3109 -0.8701
52320SOL     OW63564   0.072   6.610   0.654  0.2298 -0.5212  0.7412
52320SOL    HW163565   0.073   6.563   0.570  0.9353 -2.6160  1.8522
52320SOL    HW263566   0.083   6.702   0.630  0.1804 -1.0393 -1.4716
52321SOL     OW63567  11.815   0.687   1.558  0.0432 -0.2057 -0.1675
52321SOL    HW163568  11.814   0.595   1.583  0.5068 -0.1411  0.0933
52321SOL    HW263569  11.752   0.728   1.616 -1.4830 -0.6420 -1.4365
52322SOL     OW63570   7.327  11.577   3.526  0.4516  0.1128 -0.0325
52322SOL    HW163571   7.411  11.574   3.479  0.0088  0.2805 -0.8510
52322SOL    HW263572   7.307  11.486   3.546  0.8904  0.0817  0.2832
52323SOL     OW63573   6.020   7.518   0.628 -0.7411  0.1417  0.0046
52323SOL    HW163574   5.957   7.474   0.685  0.4693  0.0573  1.3263
52323SOL    HW263575   5.969   7.586   0.584 -1.9672 -0.5884  0.2437
52324SOL     OW63576   1.941   6.608   7.171 -0.2314  0.1326 -0.3559
52324SOL    HW163577   1.999   6.646   7.237 -0.4527  1.1588 -0.7208
52324SOL    HW263578   2.000   6.562   7.111 -0.0034 -0.5444  0.3704
52325SOL     OW63579   5.412   4.332   4.312  0.4768  0.0472 -0.4282
52325SOL    HW163580   5.485   4.360   4.257  1.9528  1.0732  1.8956
52325SOL    HW263581   5.452   4.310   4.396 -1.8621  0.5753  0.9238
52326SOL     OW63582   2.812   2.311   9.230 -0.9656 -0.1423 -0.4496
52326SOL    HW163583   2.838   2.361   9.307 -0.9740 -0.9768  0.1069
52326SOL    HW263584   2.893   2.302   9.179 -0.9958  0.5579 -0.6330
52327SOL     OW63585  12.312   6.812  12.334 -0.4309 -0.2779  0.3523
52327SOL    HW163586  12.264   6.731  12.317  0.5479 -1.3863  2.4834
52327SOL    HW263587  12.379   6.788  12.398  0.4585  2.0483  0.4120
52328SOL     OW63588   8.712  11.309  10.284 -0.5002  0.0708  0.1605
52328SOL    HW163589   8.769  11.236  10.308 -0.9390 -0.0085  0.9728
52328SOL    HW263590   8.640  11.268  10.237  0.3690  0.2288 -1.3865
52329SOL     OW63591   3.927   2.495  10.552 -0.0291 -0.1970  0.1133
52329SOL    HW163592   3.958   2.404  10.557  1.8393  0.3383 -0.8936
52329SOL    HW263593   4.007   2.547  10.544 -1.1390  1.4025 -1.2376
52330SOL     OW63594  10.094   2.831   4.248 -0.2391  0.5078  0.3574
52330SOL    HW163595  10.035   2.829   4.173  0.6549 -0.6049 -0.3500
52330SOL    HW263596  10.109   2.739   4.269 -0.6306  0.7972  2.0510
52331SOL     OW63597   0.334   5.479   6.318 -0.2494 -0.1281  0.7224
52331SOL    HW163598   0.290   5.550   6.365 -0.7539  0.0490 -0.0012
52331SOL    HW263599   0.347   5.411   6.384 -0.1801  0.4484  1.3169
52332SOL     OW63600   1.135   6.482   9.315 -0.5964 -0.5724 -0.2338
52332SOL    HW163601   1.121   6.388   9.303 -2.6592 -0.4111  0.4486
52332SOL    HW263602   1.167   6.491   9.404  0.8785 -0.7057 -0.7357
52333SOL     OW63603   9.783  12.200   9.408 -0.3253 -0.0833  0.2667
52333SOL    HW163604   9.813  12.121   9.363 -0.4566  0.1688 -0.2823
52333SOL    HW263605   9.824  12.272   9.359  2.6420  0.1656  2.8280
52334SOL     OW63606   4.916   8.946   8.022  0.8082 -0.0522  0.1619
52334SOL    HW163607   4.975   9.015   7.991  1.3642 -0.0629  1.1424
52334SOL    HW263608   4.931   8.943   8.117 -0.6122 -0.2207  0.3953
52335SOL     OW63609   1.105   5.320   9.761 -0.1056  0.1020  0.2143
52335SOL    HW163610   1.060   5.235   9.768  0.5395 -0.4505 -1.7129
52335SOL    HW263611   1.140   5.336   9.848  0.1781 -1.8616  0.5065
52336SOL     OW63612   5.254  11.582   3.812 -0.2457  0.1341 -0.1199
52336SOL    HW163613   5.215  11.507   3.857  1.7091 -0.3971  0.7795
52336SOL    HW263614   5.306  11.626   3.880  3.3731 -1.0818 -1.8450
52337SOL     OW63615   7.092   8.810   5.566  0.2657 -0.9314 -0.3719
52337SOL    HW163616   6.997   8.824   5.561  0.5165  1.2100 -0.2489
52337SOL    HW263617   7.124   8.885   5.615  1.9081 -2.3772  0.8838
52338SOL     OW63618  11.312   9.897   0.151  0.0177  0.0869  0.5263
52338SOL    HW163619  11.278   9.913   0.239  0.1425  1.0851  0.4016
52338SOL    HW263620  11.389   9.953   0.144 -0.3272  0.4632 -0.4306
52339SOL     OW63621   5.627   8.719  11.167  0.0342 -0.0839 -0.2150
52339SOL    HW163622   5.591   8.681  11.247 -0.4697 -1.0716 -0.8850
52339SOL    HW263623   5.643   8.811  11.189  0.4114 -0.4477  1.1740
52340SOL     OW63624   7.105   9.503   0.990  0.4061  0.3398  0.4497
52340SOL    HW163625   7.042   9.507   1.063  0.6468  0.2825  0.6614
52340SOL    HW263626   7.063   9.554   0.920 -0.0859 -0.0877  0.4262
52341SOL     OW63627  10.654   3.057  12.718 -0.3317 -0.0295 -0.2494
52341SOL    HW163628  10.739   3.020  12.696 -0.5685 -0.4188 -0.5510
52341SOL    HW263629  10.592   3.003  12.668 -1.0516 -2.0374  2.5651
52342SOL     OW63630   3.142   9.845   7.356  0.5929  0.5333  0.9537
52342SOL    HW163631   3.105   9.902   7.424  0.8331  0.4069  1.1936
52342SOL    HW263632   3.123   9.756   7.387  0.9915  0.4703  1.0187
52343SOL     OW63633  12.640   6.622  10.911 -0.8462 -0.5446 -0.1915
52343SOL    HW163634  12.584   6.544  10.912 -0.0887 -1.1286 -1.4105
52343SOL    HW263635  12.614   6.669  10.831  0.0348 -0.5424 -0.4782
52344SOL     OW63636   8.795  12.723   7.723  0.3441 -0.1949  0.1674
52344SOL    HW163637   8.826  12.689   7.639 -1.7861 -1.1063 -0.3237
52344SOL    HW263638   8.724  12.664   7.748  0.0441  0.8476  1.9704
52345SOL     OW63639   7.304   1.696   0.550 -0.1039  0.2388  0.8325
52345SOL    HW163640   7.346   1.621   0.592 -0.4947 -0.2736  0.3180
52345SOL    HW263641   7.295   1.761   0.621 -0.3566 -0.4454  1.4340
52346SOL     OW63642   0.026   0.806   0.818 -0.4915  0.5550  0.4260
52346SOL    HW163643   0.094   0.850   0.870  0.1177  1.7215 -1.2693
52346SOL    HW263644   0.041   0.836   0.728 -0.7778 -2.2770 -0.6741
52347SOL     OW63645   4.712   1.521   3.788  0.4222 -0.1466 -0.1398
52347SOL    HW163646   4.790   1.473   3.816 -0.4524 -1.1027  0.7203
52347SOL    HW263647   4.696   1.584   3.858  1.3800  1.2623 -1.1174
52348SOL     OW63648   7.067   0.742  11.325  0.0021 -0.1199  0.0805
52348SOL    HW163649   7.154   0.704  11.320  0.4384  1.0430 -1.9856
52348SOL    HW263650   7.058   0.794  11.245 -1.4351  2.2208  1.6363
52349SOL     OW63651   5.301   3.621  11.554 -0.0613  0.2772  0.3765
52349SOL    HW163652   5.373   3.593  11.498  0.6915  0.5143  1.2084
52349SOL    HW263653   5.299   3.716  11.546 -0.1863  0.2826  0.4610
52350SOL     OW63654   1.822   5.983   4.564  0.9675 -0.0259  0.0720
52350SOL    HW163655   1.796   6.073   4.582  0.7260 -0.0411 -0.2069
52350SOL    HW263656   1.742   5.940   4.535  1.0166 -0.4105  0.5004
52351SOL     OW63657   0.241   8.084   6.044  0.2331 -0.1669 -0.0857
52351SOL    HW163658   0.218   8.020   5.976  0.5801  0.7262 -1.0749
52351SOL    HW263659   0.193   8.163   6.019  2.5671  1.0553 -0.9256
52352SOL     OW63660   3.122  10.673   8.168  0.1744  0.1970 -0.2077
52352SOL    HW163661   3.159  10.714   8.246 -0.3993 -0.6365  0.5254
52352SOL    HW263662   3.053  10.732   8.140  0.4966  0.5851 -0.1891
52353SOL     OW63663   6.301   4.432   4.225 -0.2155 -0.7034 -0.0773
52353SOL    HW163664   6.321   4.525   4.218 -1.4886 -0.3913  0.1149
52353SOL    HW263665   6.230   4.418   4.161 -1.0218 -1.2147  0.9012
52354SOL     OW63666   1.054   6.680   3.813  0.2292 -0.0955  0.2295
52354SOL    HW163667   1.069   6.762   3.859 -2.2905 -0.7242  2.4308
52354SOL    HW263668   1.055   6.613   3.881 -0.8741 -1.4673 -1.0215
52355SOL     OW63669   2.888   7.382   0.159 -0.0917 -0.0246  0.0300
52355SOL    HW163670   2.808   7.383   0.211 -0.9958 -1.8159 -1.2235
52355SOL    HW263671   2.928   7.467   0.175 -1.6631  0.4803  1.5707
52356SOL     OW63672   3.890   3.281   6.664  0.1275  0.4829  0.5021
52356SOL    HW163673   3.869   3.251   6.753  0.4476  1.1849  0.8215
52356SOL    HW263674   3.887   3.376   6.670 -1.6539  0.5381 -0.6831
52357SOL     OW63675   2.465   3.409  12.478 -0.2164  0.5799 -0.4079
52357SOL    HW163676   2.483   3.420  12.384 -0.7159  1.8686 -0.3720
52357SOL    HW263677   2.420   3.489  12.503 -0.7714 -0.0819  0.7831
52358SOL     OW63678   6.720   0.784   1.093  0.5815  0.4256  0.4418
52358SOL    HW163679   6.701   0.756   1.003 -0.6959  1.9470  0.2019
52358SOL    HW263680   6.815   0.771   1.102  0.7038  0.0457 -1.0485
52359SOL     OW63681   7.147   1.222   6.341  0.2742  0.6222  0.3621
52359SOL    HW163682   7.151   1.316   6.356 -0.0407  0.9113 -1.2600
52359SOL    HW263683   7.054   1.203   6.328  0.4584  0.3162 -0.5938
52360SOL     OW63684  11.864   6.413   1.518  0.5413 -0.2020 -0.0582
52360SOL    HW163685  11.901   6.385   1.602  0.9531 -0.0205 -0.1762
52360SOL    HW263686  11.936   6.402   1.456  0.6340  0.8772 -0.1585
52361SOL     OW63687   2.262  12.747   0.883 -1.0383  0.8188 -0.6392
52361SOL    HW163688   2.169  12.754   0.902 -0.9704  1.4335 -0.5069
52361SOL    HW263689   2.301  12.711   0.963 -1.3653 -0.9775 -1.2477
52362SOL     OW63690  10.379   8.601  11.426 -0.1152 -0.2551 -0.1103
52362SOL    HW163691  10.401   8.613  11.519  2.7280 -1.9778 -0.4488
52362SOL    HW263692  10.394   8.687  11.387  1.5545 -0.1790  0.5839
52363SOL     OW63693   7.427  11.578   4.828  0.5825  0.0139 -0.4069
52363SOL    HW163694   7.373  11.621   4.761 -0.2518 -1.9247 -1.0571
52363SOL    HW263695   7.476  11.650   4.869 -1.3376  1.6699 -0.8319
52364SOL     OW63696  12.530   3.548   3.195 -0.0274  0.2381 -0.0405
52364SOL    HW163697  12.591   3.512   3.131  0.1325  2.1019 -1.0191
52364SOL    HW263698  12.518   3.478   3.259  1.6739 -0.8403 -0.8240
52365SOL     OW63699   2.731   2.451  10.793  0.0369  0.1476 -0.5510
52365SOL    HW163700   2.796   2.420  10.729 -1.3950 -0.5309 -1.7389
52365SOL    HW263701   2.713   2.375  10.848  0.8186  0.5614  0.2919
52366SOL     OW63702   7.086  11.881  12.035 -0.5366 -0.2333 -0.2462
52366SOL    HW163703   7.064  11.941  11.964  1.3456  1.4253  0.4894
52366SOL    HW263704   7.173  11.848  12.013  0.0694  0.2902  1.2349
52367SOL     OW63705   1.648   9.915  10.506  0.1739  0.6361 -0.3094
52367SOL    HW163706   1.606   9.863  10.437  0.2592 -0.7430  0.6312
52367SOL    HW263707   1.721   9.860  10.536 -1.3000  0.0453  2.5281
52368SOL     OW63708   7.012   8.974   8.701 -0.5603  0.2909  0.6741
52368SOL    HW163709   6.984   8.984   8.610 -0.7676 -1.8409  0.4533
52368SOL    HW263710   7.106   8.960   8.696 -1.0529 -4.2801  0.2397
52369SOL     OW63711   2.208   0.322   5.078 -0.4690 -0.2518 -0.0983
52369SOL    HW163712   2.252   0.392   5.126  0.5405 -0.1512 -1.1161
52369SOL    HW263713   2.275   0.289   5.017 -0.9562 -2.0048  0.2507
52370SOL     OW63714  10.929   0.071   3.595  0.7256  0.0292  0.3940
52370SOL    HW163715  11.014   0.112   3.580  0.2522  1.2054  0.7833
52370SOL    HW263716  10.904   0.101   3.683  0.9553 -2.2008  1.2946
52371SOL     OW63717   5.236   5.405  10.063 -0.2692 -0.4388 -0.4165
52371SOL    HW163718   5.205   5.333  10.008 -0.3385 -0.3636 -0.4776
52371SOL    HW263719   5.161   5.465  10.066 -0.7134 -1.0204  0.7689
52372SOL     OW63720  12.211   6.485   4.448 -0.1186 -0.4886 -0.3501
52372SOL    HW163721  12.290   6.526   4.414 -0.0811 -0.4166 -0.1747
52372SOL    HW263722  12.231   6.391   4.448  0.2260 -0.4194  0.3542
52373SOL     OW63723   8.024   1.048   4.284 -0.1043  0.4091 -0.3047
52373SOL    HW163724   8.063   0.984   4.225 -0.3460  0.4471 -0.5050
52373SOL    HW263725   8.098   1.081   4.336 -0.2158 -1.2736  0.9958
52374SOL     OW63726   8.361   2.757   4.039 -0.0892  0.2390  0.6978
52374SOL    HW163727   8.270   2.732   4.054 -0.4706  2.6427  3.1522
52374SOL    HW263728   8.411   2.677   4.057 -1.5171 -0.2858  2.6514
52375SOL     OW63729   8.682  10.445   6.272 -0.4337 -0.1783  0.3962
52375SOL    HW163730   8.692  10.387   6.196 -0.0823  0.3540  0.0285
52375SOL    HW263731   8.587  10.451   6.285 -0.5005 -0.2308 -0.0365
52376SOL     OW63732   5.716   9.553   4.426 -0.2830  0.5582 -0.1556
52376SOL    HW163733   5.784   9.501   4.470 -0.7544 -0.5861 -0.7245
52376SOL    HW263734   5.742   9.644   4.441  0.4917  0.1770  1.0148
52377SOL     OW63735   2.190   0.130   3.461 -0.4215 -0.1374 -0.3595
52377SOL    HW163736   2.208   0.088   3.545 -1.7480 -0.1182 -0.0474
52377SOL    HW263737   2.276   0.151   3.425  0.1479  0.3938  1.2628
52378SOL     OW63738  12.352   6.901   9.382  0.2131 -0.1485  0.1513
52378SOL    HW163739  12.268   6.945   9.379  0.7060  0.8062 -0.1459
52378SOL    HW263740  12.361   6.869   9.472  0.4992  1.7009  0.8150
52379SOL     OW63741  10.299   5.125  11.335 -0.0017  0.1416  0.0423
52379SOL    HW163742  10.345   5.190  11.282  1.4297  0.3130  1.4530
52379SOL    HW263743  10.355   5.110  11.411 -1.0257 -1.6234  0.5184
52380SOL     OW63744   7.565  12.661   9.147 -0.3286  0.4196 -0.2046
52380SOL    HW163745   7.495  12.665   9.212  0.3843  1.8409  0.5315
52380SOL    HW263746   7.547  12.582   9.096 -3.2577  1.4345 -0.9617
52381SOL     OW63747   8.266  10.824   9.840 -0.1630  0.4544  0.4247
52381SOL    HW163748   8.216  10.900   9.871 -0.8900 -0.1627  0.7803
52381SOL    HW263749   8.201  10.767   9.799  0.4356  0.1794 -0.1571
52382SOL     OW63750   9.986  11.948   2.938  0.2632  0.0607  0.4133
52382SOL    HW163751   9.977  11.854   2.924  1.4449 -0.2374  1.4774
52382SOL    HW263752   9.913  11.970   2.996 -0.1698 -0.1446 -0.0486
52383SOL     OW63753   6.777   8.172   3.562 -0.4105 -0.0042 -0.2242
52383SOL    HW163754   6.800   8.120   3.639 -2.0439 -0.4898 -0.0164
52383SOL    HW263755   6.852   8.164   3.504  0.8080  0.2603  1.2468
52384SOL     OW63756   0.442   5.453   3.655 -0.7493  0.4823 -0.2390
52384SOL    HW163757   0.447   5.513   3.729  2.5160 -0.6327  0.6190
52384SOL    HW263758   0.398   5.375   3.690 -0.5746  0.5202  0.0598
52385SOL     OW63759   1.012   3.417   8.116  0.3006 -0.1863  0.0512
52385SOL    HW163760   1.013   3.339   8.171  0.4961  0.7667  1.4830
52385SOL    HW263761   1.061   3.393   8.038  1.0106 -1.2655  0.8010
52386SOL     OW63762   4.291   8.937   9.169  0.9449 -0.5638 -0.0964
52386SOL    HW163763   4.303   8.848   9.203  0.5645 -0.4397  0.3850
52386SOL    HW263764   4.346   8.941   9.092 -0.0305 -1.6556 -0.8869
52387SOL     OW63765   5.242   5.439   2.439 -0.1480 -0.2673 -0.4616
52387SOL    HW163766   5.264   5.511   2.379  0.4421 -0.2520 -0.2393
52387SOL    HW263767   5.205   5.483   2.516  2.0478  0.0019  0.5228
52388SOL     OW63768   1.219   8.484  11.702  0.1052 -0.2844 -0.0770
52388SOL    HW163769   1.246   8.516  11.788  0.6897 -1.7753  0.3339
52388SOL    HW263770   1.177   8.400  11.720  2.8762 -2.1063 -1.4290
52389SOL     OW63771  11.230   5.635   9.686  0.3551 -0.7380  0.1492
52389SOL    HW163772  11.202   5.545   9.670 -2.5271 -0.5789  3.2147
52389SOL    HW263773  11.268   5.633   9.774  1.3824  0.8556 -0.2176
52390SOL     OW63774   5.132   8.807  10.909  0.0640  0.4032  0.7869
52390SOL    HW163775   5.210   8.769  10.868  0.0967  0.7403  0.5297
52390SOL    HW263776   5.078   8.732  10.933  0.0150  0.1980  0.0556
52391SOL     OW63777   9.314  10.205   0.570 -0.1705  0.1245 -0.2221
52391SOL    HW163778   9.246  10.140   0.551 -0.0722  0.2319 -0.9691
52391SOL    HW263779   9.357  10.173   0.649 -1.1306  0.0842  0.3028
52392SOL     OW63780  10.842   1.619   0.618  0.2845 -0.2367  0.2629
52392SOL    HW163781  10.876   1.694   0.570  0.3735  0.1237  0.8784
52392SOL    HW263782  10.919   1.582   0.662  0.0727 -0.0735  0.7779
52393SOL     OW63783   0.219   7.477  10.143 -0.3465  0.0891 -0.2078
52393SOL    HW163784   0.296   7.534  10.142  0.8305 -1.4393 -0.2267
52393SOL    HW263785   0.157   7.519  10.083  1.3287  0.2075 -1.9260
52394SOL     OW63786   8.887   2.696   3.618 -0.3517  0.0571 -0.1073
52394SOL    HW163787   8.902   2.708   3.525  0.5788  0.7001  0.1081
52394SOL    HW263788   8.937   2.618   3.641  0.0977  0.3743  0.0052
52395SOL     OW63789   1.274   4.943   2.599 -0.0310  0.0434  0.0542
52395SOL    HW163790   1.248   4.903   2.682 -0.5386  0.4733  0.1093
52395SOL    HW263791   1.257   5.036   2.611  0.1494  0.1406 -0.4374
52396SOL     OW63792   6.713   0.583   3.296 -0.5480  0.2078 -0.1116
52396SOL    HW163793   6.777   0.560   3.228 -0.3001  1.0203 -0.1680
52396SOL    HW263794   6.645   0.516   3.289  0.1689 -0.5310 -0.2202
52397SOL     OW63795   6.851   0.972   7.777  0.0628 -0.1626 -0.3060
52397SOL    HW163796   6.886   0.900   7.724  1.4893 -0.9368  1.5531
52397SOL    HW263797   6.917   0.985   7.845 -0.0125  3.1144 -0.6869
52398SOL     OW63798   5.224   8.220   1.208 -0.9067 -0.5920 -0.4974
52398SOL    HW163799   5.225   8.316   1.203  2.2635 -0.5084 -0.1179
52398SOL    HW263800   5.173   8.201   1.287 -1.8094  0.7222 -0.7190
52399SOL     OW63801   7.553   1.714   2.169 -0.3292  0.0548 -0.6767
52399SOL    HW163802   7.560   1.806   2.144  0.9378 -0.3101 -1.8035
52399SOL    HW263803   7.627   1.699   2.228  1.7628 -1.0200 -3.3138
52400SOL     OW63804   0.952   6.416   0.723 -0.1851 -0.6801 -0.5864
52400SOL    HW163805   0.900   6.430   0.644  0.6455 -1.7536 -1.3564
52400SOL    HW263806   1.036   6.385   0.691  0.3218 -0.7053  0.7128
52401SOL     OW63807   7.848   7.989   2.124  0.0523 -0.1698  0.4117
52401SOL    HW163808   7.905   7.937   2.180 -0.0723 -2.2019 -1.2185
52401SOL    HW263809   7.803   7.924   2.069 -1.0739  1.6076 -0.8686
52402SOL     OW63810   7.230   6.726  11.500  0.0974 -0.0928  0.1988
52402SOL    HW163811   7.187   6.712  11.416 -0.3188 -0.1832  0.4221
52402SOL    HW263812   7.222   6.820  11.516 -1.7743 -0.3590  1.1485
52403SOL     OW63813   7.557  10.478   7.263 -0.3832  0.6978 -0.3599
52403SOL    HW163814   7.561  10.473   7.359  0.8603 -1.1706 -0.4602
52403SOL    HW263815   7.484  10.422   7.239  0.7123 -0.6926 -0.5702
52404SOL     OW63816   3.889  10.995   2.692  0.1867 -0.3606 -0.0756
52404SOL    HW163817   3.898  11.080   2.736 -0.1108 -0.9821  1.2289
52404SOL    HW263818   3.866  11.018   2.602  0.1085  0.9470  0.2480
52405SOL     OW63819   4.284   9.247   4.225 -0.0630  0.3673  0.1294
52405SOL    HW163820   4.363   9.285   4.263  0.5357 -2.0626  1.5960
52405SOL    HW263821   4.230   9.322   4.199  3.0925  2.1333 -1.9184
52406SOL     OW63822  10.335   6.852   9.585 -0.4993  0.5961 -0.1111
52406SOL    HW163823  10.335   6.934   9.634 -0.5086 -0.2542  1.3744
52406SOL    HW263824  10.283   6.792   9.638 -0.8221 -0.2757 -1.3589
52407SOL     OW63825   4.664   8.364   4.574  0.0071 -0.0741 -0.5444
52407SOL    HW163826   4.706   8.394   4.655 -1.1448  0.2713 -0.0489
52407SOL    HW263827   4.731   8.314   4.529  0.4602 -0.9014  0.9749
52408SOL     OW63828   1.763   7.560   0.406  0.3793  0.0797 -0.5697
52408SOL    HW163829   1.826   7.502   0.449  0.1125 -0.3741 -0.7781
52408SOL    HW263830   1.690   7.502   0.383 -1.0553  0.9322  1.4960
52409SOL     OW63831   5.023   3.028   9.923 -0.1023 -0.2354  0.0177
52409SOL    HW163832   4.988   3.000   9.838  1.2102  0.8121 -0.9152
52409SOL    HW263833   5.020   3.123   9.920  0.0099 -0.1841  1.1428
52410SOL     OW63834   7.853   1.307   2.923 -0.4657  0.2326 -0.2098
52410SOL    HW163835   7.864   1.348   3.009 -2.8736 -0.3623  0.4449
52410SOL    HW263836   7.942   1.296   2.890  0.4291  2.5529  1.1904
52411SOL     OW63837   6.961   2.464   0.490  0.6354  0.1073 -0.3990
52411SOL    HW163838   6.909   2.499   0.562 -0.8237 -0.3368 -1.2128
52411SOL    HW263839   7.042   2.515   0.492  0.1786  0.8169  0.8858
52412SOL     OW63840   2.935   4.864  11.811  0.3040 -0.3177 -0.0879
52412SOL    HW163841   2.864   4.911  11.855 -2.6221 -2.6337 -1.9507
52412SOL    HW263842   2.952   4.916  11.732 -1.1814 -0.9705 -0.8891
52413SOL     OW63843   4.111   6.640   5.945 -0.1042  0.8356  0.4059
52413SOL    HW163844   4.083   6.622   5.855 -0.5913  0.1673  0.6866
52413SOL    HW263845   4.099   6.734   5.955 -0.0447  0.9169 -0.2285
52414SOL     OW63846   5.992  11.283   7.735  0.1095  0.5261 -0.0132
52414SOL    HW163847   5.900  11.295   7.714  0.0505  0.1157  0.0080
52414SOL    HW263848   6.016  11.361   7.785 -0.0299  0.9884 -0.6534
52415SOL     OW63849   2.204   7.301   7.859  0.2210 -0.4763  0.2859
52415SOL    HW163850   2.158   7.316   7.776  0.8292 -0.0226  0.0212
52415SOL    HW263851   2.135   7.293   7.924 -0.2306  0.6941 -0.0224
52416SOL     OW63852  12.631  10.807   1.476  0.0666  0.3334  0.0110
52416SOL    HW163853  12.610  10.900   1.481 -2.2783 -0.1347 -0.3280
52416SOL    HW263854  12.588  10.776   1.397 -2.9649 -1.8815  2.2875
52417SOL     OW63855   2.981   8.393   2.516 -0.0345  0.3534  0.1052
52417SOL    HW163856   2.942   8.480   2.530 -0.9941 -0.1416  0.5491
52417SOL    HW263857   3.074   8.412   2.500 -0.1271  1.4280  0.6999
52418SOL     OW63858  10.784   5.531   2.054 -0.4874  0.2352 -0.0217
52418SOL    HW163859  10.776   5.441   2.086 -1.5533  0.5979  0.8129
52418SOL    HW263860  10.756   5.527   1.962  0.6714 -0.4836 -0.3523
52419SOL     OW63861  12.453   9.246   4.090  0.0410 -0.0396 -0.4843
52419SOL    HW163862  12.403   9.170   4.118 -1.0948  1.1148  0.7078
52419SOL    HW263863  12.414   9.271   4.006  0.0362 -0.4182 -0.5961
52420SOL     OW63864   5.560   2.705   3.125 -0.7544  0.0488 -0.1499
52420SOL    HW163865   5.644   2.668   3.100 -0.4017 -0.1127  1.1968
52420SOL    HW263866   5.511   2.631   3.161 -1.1037  0.3340 -0.0273
52421SOL     OW63867  10.851   1.679   5.961 -0.4416 -0.3907  0.1512
52421SOL    HW163868  10.888   1.752   6.010  1.0352 -0.5073 -0.7457
52421SOL    HW263869  10.792   1.636   6.023  1.4055 -0.5625  1.8677
52422SOL     OW63870  10.956  11.615  10.695  0.3757 -0.0141 -0.5497
52422SOL    HW163871  10.993  11.684  10.750 -1.2255  1.5954 -1.4014
52422SOL    HW263872  10.863  11.635  10.690  0.2757 -0.7431 -2.9506
52423SOL     OW63873   5.049   8.161   5.691  0.0111  0.2515  0.1043
52423SOL    HW163874   5.058   8.256   5.687  0.8059  0.1457 -1.3306
52423SOL    HW263875   5.010   8.144   5.777  0.8972  1.7851  0.8527
52424SOL     OW63876   8.568   6.719   3.295  0.4279 -0.3362 -0.7150
52424SOL    HW163877   8.506   6.662   3.249  1.1523 -0.8525 -1.0739
52424SOL    HW263878   8.653   6.676   3.283  0.4519 -1.5112  2.6411
52425SOL     OW63879   5.965   8.925  12.077 -0.2148 -0.1282 -0.0868
52425SOL    HW163880   6.060   8.933  12.083  0.0092 -0.4950 -2.4175
52425SOL    HW263881   5.931   9.007  12.114  1.1383  1.3934 -2.0410
52426SOL     OW63882   5.173   1.341   8.255  0.3387  0.2902 -0.1053
52426SOL    HW163883   5.194   1.254   8.221  1.5300  0.6608 -0.3542
52426SOL    HW263884   5.231   1.400   8.208 -0.4871  1.2351  0.0361
52427SOL     OW63885   7.948   9.367   0.411 -0.3084 -0.0082 -0.3629
52427SOL    HW163886   7.918   9.359   0.320 -0.5036  0.3886 -0.3394
52427SOL    HW263887   8.023   9.426   0.406 -0.3216  0.0163 -0.2676
52428SOL     OW63888   0.982   9.489   8.472  0.7467  0.1394  0.2066
52428SOL    HW163889   0.901   9.484   8.422  1.2585 -0.7350 -0.5588
52428SOL    HW263890   0.972   9.568   8.526 -0.8233 -0.2409  0.5141
52429SOL     OW63891   1.515   5.665   7.739  0.3350 -0.1706 -0.0847
52429SOL    HW163892   1.515   5.630   7.650  2.0939  1.4189 -0.7708
52429SOL    HW263893   1.424   5.687   7.757 -0.0111 -0.3183 -1.5758
52430SOL     OW63894  12.417   4.306   9.207 -0.5345 -0.3372  0.1090
52430SOL    HW163895  12.444   4.265   9.125  1.6303  1.8081 -0.3551
52430SOL    HW263896  12.352   4.371   9.180  0.3334  0.5165  0.0004
52431SOL     OW63897   8.169   7.463   4.076  0.0050  0.3008 -0.0051
52431SOL    HW163898   8.170   7.368   4.062  2.7331 -0.3173  3.1477
52431SOL    HW263899   8.081   7.482   4.110 -1.1082 -0.7347 -2.1294
52432SOL     OW63900   7.493   4.592  11.636  0.3871 -0.5093 -0.1280
52432SOL    HW163901   7.428   4.577  11.705 -0.2070 -0.4183 -0.6630
52432SOL    HW263902   7.447   4.571  11.554  0.9953 -0.3304 -0.5222
52433SOL     OW63903  12.276   2.211   8.648 -0.1784 -0.2060  0.1434
52433SOL    HW163904  12.228   2.252   8.576  2.1145 -0.6260 -1.7741
52433SOL    HW263905  12.362   2.254   8.646  0.2495 -0.9005  2.0546
52434SOL     OW63906   9.113   0.076  11.325 -0.1047 -0.2168 -0.2218
52434SOL    HW163907   9.151  -0.002  11.366 -1.4540 -0.2535  1.0665
52434SOL    HW263908   9.105   0.139  11.396  0.1214  0.7747 -1.0595
52435SOL     OW63909   4.369   5.128   5.712 -0.3986 -0.2197 -0.0784
52435SOL    HW163910   4.374   5.219   5.684 -0.2653  0.7099  2.6260
52435SOL    HW263911   4.460   5.101   5.722 -0.3799  0.4316  2.0378
52436SOL     OW63912  11.976   2.942  11.050 -0.6824 -0.2213  0.4871
52436SOL    HW163913  11.968   3.027  11.006 -0.8927 -0.1109  0.7380
52436SOL    HW263914  11.897   2.935  11.103  0.9898  1.1487  3.4354
52437SOL     OW63915   8.088   3.217   2.030  0.0811 -0.3229 -0.1330
52437SOL    HW163916   7.993   3.214   2.041  0.0876  1.6236  0.6657
52437SOL    HW263917   8.124   3.203   2.117  0.4057  2.3593  0.2422
52438SOL     OW63918   3.454   6.128   8.513 -0.1290 -0.1215 -0.4864
52438SOL    HW163919   3.363   6.101   8.510 -0.1321 -0.3087  0.8393
52438SOL    HW263920   3.450   6.224   8.515 -0.3064 -0.1322 -0.2541
52439SOL     OW63921   5.146   0.017   4.602  0.5307  0.3779 -0.4706
52439SOL    HW163922   5.217   0.004   4.539  0.6448  1.0902 -0.4906
52439SOL    HW263923   5.099   0.094   4.570  1.1116  1.2842  0.7697
52440SOL     OW63924   9.322   1.936  10.578 -0.0217 -0.4835  0.0948
52440SOL    HW163925   9.361   1.954  10.492  0.0869  0.7854  0.3948
52440SOL    HW263926   9.264   2.010  10.594 -0.3016 -0.8829  0.9760
52441SOL     OW63927   9.554   8.468   3.470 -0.2837  0.3636 -0.1863
52441SOL    HW163928   9.646   8.489   3.487 -0.5630  0.5486  1.3059
52441SOL    HW263929   9.546   8.374   3.491 -0.7543  0.7178  1.3796
52442SOL     OW63930   3.062   8.939   2.740  0.1624  0.0291 -0.4500
52442SOL    HW163931   3.148   8.977   2.756 -0.2963  0.6534  0.6471
52442SOL    HW263932   3.027   8.921   2.827 -0.1460 -1.7966 -0.9152
52443SOL     OW63933   5.946   6.192  10.389 -0.1303 -0.3542 -0.4169
52443SOL    HW163934   5.951   6.101  10.416 -1.1172 -0.1579  0.5022
52443SOL    HW263935   5.889   6.191  10.312 -0.3305 -0.4844 -0.2669
52444SOL     OW63936   0.103   2.968   5.378 -0.4498 -0.1602 -0.4181
52444SOL    HW163937   0.053   2.921   5.310  0.5571  1.1210 -2.1452
52444SOL    HW263938   0.120   3.054   5.338  0.2555  0.6140  1.4715
52445SOL     OW63939   0.794   7.539   9.307  0.2081 -0.1619 -0.4161
52445SOL    HW163940   0.756   7.502   9.228 -0.6865 -0.7588  0.2663
52445SOL    HW263941   0.830   7.623   9.280 -0.6136 -0.0881 -1.3328
52446SOL     OW63942   6.555   2.212   8.894  0.2579  0.4414 -0.0814
52446SOL    HW163943   6.550   2.267   8.972 -2.9953  1.4587 -0.8540
52446SOL    HW263944   6.633   2.242   8.848 -0.0983  2.7962  0.7366
52447SOL     OW63945   0.576   7.469   9.926 -0.6166 -0.3282 -0.5431
52447SOL    HW163946   0.599   7.378   9.946 -0.2479  0.2161  1.8837
52447SOL    HW263947   0.550   7.506  10.010  1.0368  2.3154 -1.0720
52448SOL     OW63948   0.549  11.012   4.031 -0.1218  0.1757  0.6674
52448SOL    HW163949   0.462  10.973   4.041 -0.1119  0.3481  1.5016
52448SOL    HW263950   0.546  11.092   4.084  1.2396 -0.9512  2.5468
52449SOL     OW63951   2.619   2.627   3.381  0.3676  0.1649 -0.3620
52449SOL    HW163952   2.557   2.558   3.358 -1.6697  1.7220  0.1742
52449SOL    HW263953   2.672   2.589   3.451  0.6038 -1.4869 -1.3800
52450SOL     OW63954   0.750  12.589   6.858  0.2992 -0.8361  0.6825
52450SOL    HW163955   0.805  12.565   6.932  0.5240  0.6033  1.0071
52450SOL    HW263956   0.781  12.534   6.786  1.2973 -0.9606  1.1962
52451SOL     OW63957  12.522  11.251   8.562 -0.0915  0.4137  0.2646
52451SOL    HW163958  12.586  11.300   8.614 -1.2146 -0.5575  2.7646
52451SOL    HW263959  12.552  11.161   8.567  0.8657  0.4658 -2.6213
52452SOL     OW63960   2.627   1.385  12.531  0.2222 -0.6973 -0.1719
52452SOL    HW163961   2.614   1.461  12.474 -0.9264  0.1023  1.0806
52452SOL    HW263962   2.557   1.325  12.507 -0.0963 -0.4754  0.1742
52453SOL     OW63963   1.380  10.851   5.338  1.1285  0.3384 -0.6332
52453SOL    HW163964   1.298  10.838   5.386  0.2649 -3.1819 -2.6885
52453SOL    HW263965   1.365  10.928   5.284 -1.4253 -0.9292 -1.8978
52454SOL     OW63966  11.494  12.673   3.862  0.5045  0.2419 -0.2479
52454SOL    HW163967  11.455  12.713   3.785  1.4723  1.1548 -0.2858
52454SOL    HW263968  11.587  12.663   3.840  0.9321  1.0874  0.9922
52455SOL     OW63969   5.309   2.342   2.544 -0.2241 -0.7085 -0.3602
52455SOL    HW163970   5.234   2.356   2.602 -0.8906 -0.9090 -1.1659
52455SOL    HW263971   5.275   2.288   2.473 -0.1110  1.6875 -2.3402
52456SOL     OW63972   0.220   8.641  12.318 -0.5133  0.4877  0.0611
52456SOL    HW163973   0.138   8.597  12.296 -0.7865  1.1590 -0.2818
52456SOL    HW263974   0.194   8.731  12.336  0.2835  0.9857 -1.1479
52457SOL     OW63975  12.137   5.181   3.546 -0.3900 -0.6019  0.0569
52457SOL    HW163976  12.151   5.171   3.452  0.3433  0.1878  0.0735
52457SOL    HW263977  12.058   5.129   3.564  0.0153 -1.5445 -0.8181
52458SOL     OW63978  12.699   4.200   5.538 -0.3015 -0.5325  0.5539
52458SOL    HW163979  12.694   4.230   5.629 -0.9115  0.5261  0.1888
52458SOL    HW263980  12.608   4.188   5.512 -0.1061 -1.4536  0.2764
52459SOL     OW63981   3.156   8.613  11.520  0.1445 -0.3588 -0.2448
52459SOL    HW163982   3.230   8.553  11.505  1.5125  0.8975  1.0439
52459SOL    HW263983   3.080   8.556  11.525  1.1460 -1.8112 -0.7714
52460SOL     OW63984  10.203   3.139   3.052 -0.0967  0.3164 -0.0798
52460SOL    HW163985  10.222   3.072   2.987 -0.4700 -2.1763  2.1762
52460SOL    HW263986  10.113   3.165   3.035  0.1309  0.4417 -1.1352
52461SOL     OW63987   4.402   3.309   2.100  0.1094  0.1654 -0.3915
52461SOL    HW163988   4.466   3.289   2.031  0.1094  1.6103 -0.8464
52461SOL    HW263989   4.455   3.341   2.173 -0.1081  2.7077 -1.2592
52462SOL     OW63990   6.343   8.632   4.888 -0.6285 -0.3517  0.4413
52462SOL    HW163991   6.360   8.614   4.795  0.4147  0.8682  0.3610
52462SOL    HW263992   6.269   8.692   4.888 -1.1072 -0.9359  0.4485
52463SOL     OW63993   3.807   3.436   6.071  0.3148  0.2571  0.0869
52463SOL    HW163994   3.744   3.465   6.137 -1.0326 -2.7263  0.2890
52463SOL    HW263995   3.793   3.495   5.997 -3.3806 -0.7045 -0.1647
52464SOL     OW63996   7.807   0.103   8.264  0.4638 -0.0680  0.7409
52464SOL    HW163997   7.779   0.017   8.234 -0.3565 -0.2220  1.9307
52464SOL    HW263998   7.727   0.147   8.292  0.8285  1.2075 -0.0888
52465SOL     OW63999   4.085  11.019   1.548  0.2410 -0.0953  0.2316
52465SOL    HW164000   4.171  11.006   1.507  1.4475  1.4415  2.0948
52465SOL    HW264001   4.105  11.027   1.641 -1.9563  0.3278  0.6968
52466SOL     OW64002   1.498   7.414  10.739 -0.7344  0.3056 -0.5367
52466SOL    HW164003   1.542   7.489  10.777 -0.9904  0.8365 -1.2669
52466SOL    HW264004   1.408   7.420  10.769 -0.9278  0.7044 -1.1694
52467SOL     OW64005  11.384   9.270   4.266  0.7720  0.3364  0.2655
52467SOL    HW164006  11.478   9.254   4.280  0.6068 -1.4897 -0.4416
52467SOL    HW264007  11.371   9.257   4.172 -0.4627 -1.1187  0.6063
52468SOL     OW64008   6.530   9.130   5.166 -0.2338 -0.0001 -0.1238
52468SOL    HW164009   6.519   9.152   5.074 -1.8650 -0.6394 -0.1165
52468SOL    HW264010   6.525   9.034   5.169 -0.5432  0.0289  0.6458
52469SOL     OW64011   4.448   3.955   9.638 -0.3379  0.5605  0.3283
52469SOL    HW164012   4.374   3.995   9.593  0.5917  2.5294  0.4506
52469SOL    HW264013   4.525   4.001   9.604  0.5600  0.7139  2.4073
52470SOL     OW64014  10.429   5.798  10.394 -0.2210 -0.6535  0.3034
52470SOL    HW164015  10.443   5.753  10.311 -1.8415  0.3588 -0.5796
52470SOL    HW264016  10.368   5.869  10.373  1.3837  1.3084  1.8404
52471SOL     OW64017   0.323   4.099   2.268 -0.6718 -0.2156 -0.0613
52471SOL    HW164018   0.391   4.080   2.333 -1.4711 -0.3144  0.7784
52471SOL    HW264019   0.371   4.118   2.187  0.4197  1.0059  0.8163
52472SOL     OW64020   2.761   5.768   5.065 -0.3492 -0.1839 -0.4530
52472SOL    HW164021   2.689   5.757   5.128  0.3192 -1.2225  0.1733
52472SOL    HW264022   2.838   5.784   5.120  0.1009 -0.2690 -1.0543
52473SOL     OW64023   5.635   1.483  11.998 -0.5048 -0.3824 -0.1404
52473SOL    HW164024   5.576   1.410  12.015  0.3570 -0.5313  2.6593
52473SOL    HW264025   5.697   1.482  12.070  0.9258  1.7798 -1.2097
52474SOL     OW64026  12.213  10.646   4.678  0.4559 -0.2480 -0.1054
52474SOL    HW164027  12.159  10.634   4.600  1.0447 -1.0330 -0.4095
52474SOL    HW264028  12.301  10.621   4.650  0.7207 -0.2871  0.7430
52475SOL     OW64029  10.901   5.638   4.028 -0.6393  0.1367 -0.0041
52475SOL    HW164030  10.831   5.644   4.093 -1.7347  0.9188 -1.2137
52475SOL    HW264031  10.856   5.637   3.944  0.8074  0.5675 -0.8174
52476SOL     OW64032   0.306  11.006   6.711  1.1737 -0.3817  0.4815
52476SOL    HW164033   0.331  10.964   6.629  0.0125 -1.2461  0.5525
52476SOL    HW264034   0.317  10.938   6.778  0.2964 -0.2697  0.7537
52477SOL     OW64035   2.714   7.839   2.265  0.5292  0.2621  0.8072
52477SOL    HW164036   2.730   7.933   2.265 -0.5836  0.5365  3.3184
52477SOL    HW264037   2.801   7.800   2.276  1.0143  0.9514 -0.3722
52478SOL     OW64038   0.513  11.237   3.018  0.0739  0.1685  0.3608
52478SOL    HW164039   0.474  11.290   3.088 -0.6632  0.8236 -0.5238
52478SOL    HW264040   0.440  11.218   2.959  0.7642 -0.0109 -0.4532
52479SOL     OW64041   5.393  11.454  10.061 -0.8779  0.1379  1.0628
52479SOL    HW164042   5.304  11.475  10.031 -0.3393  0.6786 -0.2690
52479SOL    HW264043   5.423  11.386  10.001 -0.3623  0.0304  1.4418
52480SOL     OW64044   1.251  12.561   4.811  0.2414 -0.0709  0.0526
52480SOL    HW164045   1.288  12.642   4.775  1.7726 -0.6664  0.2356
52480SOL    HW264046   1.191  12.530   4.743  1.7032 -0.2118 -1.2417
52481SOL     OW64047   3.046  10.471   9.124 -0.0825 -0.2909  0.3769
52481SOL    HW164048   3.079  10.416   9.195  0.2571 -0.4510  0.1025
52481SOL    HW264049   3.105  10.546   9.122  1.4870 -1.4573 -1.3143
52482SOL     OW64050  12.607   9.705  11.761 -0.5399 -0.1898 -0.0234
52482SOL    HW164051  12.659   9.742  11.691  0.3211 -2.0707 -0.4341
52482SOL    HW264052  12.536   9.658  11.716 -0.5105 -0.6322  0.3795
52483SOL     OW64053   9.820   0.109   9.244 -0.0331  0.0897  0.2984
52483SOL    HW164054   9.759   0.072   9.179 -1.6153 -0.8046  2.1652
52483SOL    HW264055   9.886   0.155   9.193 -0.6489 -1.4046 -1.9682
52484SOL     OW64056   0.650   1.166   7.127  0.0109 -0.0570 -0.5838
52484SOL    HW164057   0.736   1.135   7.098  1.1310  3.3375 -1.3576
52484SOL    HW264058   0.596   1.161   7.049  0.4991  0.9111 -0.9962
52485SOL     OW64059  12.016   2.994   2.724  0.0449  0.2821  0.1360
52485SOL    HW164060  11.953   2.992   2.796  0.5697  3.3164  0.8324
52485SOL    HW264061  11.964   3.019   2.647  0.0854  1.1704  0.3786
52486SOL     OW64062   5.057  11.639   6.737  0.0920 -0.1119  0.4786
52486SOL    HW164063   4.981  11.618   6.791  0.3787 -1.2227  0.4828
52486SOL    HW264064   5.035  11.607   6.650  0.7168 -0.8749  0.5839
52487SOL     OW64065   7.406   7.199   9.325 -0.3933 -0.0365 -0.7375
52487SOL    HW164066   7.402   7.295   9.333  1.2003  0.0702 -0.8057
52487SOL    HW264067   7.331   7.176   9.272 -0.2276  1.3116 -1.6044
52488SOL     OW64068   5.709   9.331   4.647  0.4359 -0.6930  0.0348
52488SOL    HW164069   5.785   9.273   4.655  0.7551 -0.3554 -0.4777
52488SOL    HW264070   5.708   9.381   4.728  1.4361  0.0947 -0.4146
52489SOL     OW64071   4.035  11.431   3.006  0.2593  0.1482  0.6403
52489SOL    HW164072   4.102  11.470   2.950  1.6405  0.0630  2.1625
52489SOL    HW264073   3.988  11.506   3.043  0.5726  0.2574  0.8157
52490SOL     OW64074   0.103   0.460   7.734  0.1643 -0.1610  0.2157
52490SOL    HW164075   0.038   0.500   7.675  1.6965  1.1381 -0.6573
52490SOL    HW264076   0.126   0.530   7.795  0.0937 -0.8982  1.1126
52491SOL     OW64077   2.923   5.707   8.114 -0.1979  0.4176 -0.1348
52491SOL    HW164078   2.907   5.798   8.139  1.6703  0.7118  0.1712
52491SOL    HW264079   2.955   5.711   8.024 -0.9206 -0.0221 -0.4144
52492SOL     OW64080   8.808  10.913   9.581  0.1910 -0.5260  0.0842
52492SOL    HW164081   8.862  10.859   9.524 -0.1148 -0.4304 -0.3046
52492SOL    HW264082   8.870  10.972   9.624  0.5382 -1.2482  0.5932
52493SOL     OW64083   0.473   4.496   4.724  0.1127 -0.2024  0.2778
52493SOL    HW164084   0.484   4.487   4.819  0.8052  0.9187  0.3163
52493SOL    HW264085   0.559   4.521   4.692 -0.1458 -0.4549 -0.6441
52494SOL     OW64086   0.574  10.858   9.365  0.2086 -0.3879 -0.4845
52494SOL    HW164087   0.624  10.890   9.440 -0.6648 -1.5478  0.6398
52494SOL    HW264088   0.483  10.870   9.391 -0.1269 -2.0005 -0.7787
52495SOL     OW64089  10.180   6.760   0.562  0.4951  0.4433 -0.2146
52495SOL    HW164090  10.148   6.803   0.483  1.3112  0.5166 -0.5113
52495SOL    HW264091  10.226   6.829   0.610 -1.7413  0.9608  1.3865
52496SOL     OW64092   5.195   5.691   3.298 -0.3120 -0.3499 -0.6314
52496SOL    HW164093   5.134   5.720   3.231  0.2522  1.2135 -0.4964
52496SOL    HW264094   5.183   5.752   3.370  2.4172  0.9622 -1.1662
52497SOL     OW64095   0.792  12.286   6.442 -0.0055  0.1671 -0.5117
52497SOL    HW164096   0.851  12.359   6.423  2.5025 -1.2263  1.3227
52497SOL    HW264097   0.816  12.218   6.379 -1.3420  0.3548 -1.2728
52498SOL     OW64098   7.644   3.185  11.045  0.2100 -0.3137 -0.4673
52498SOL    HW164099   7.662   3.108  10.992  1.0085  0.3824 -1.2314
52498SOL    HW264100   7.701   3.253  11.010  1.0456  0.0867  1.5234
52499SOL     OW64101   3.331   0.305   5.124 -0.5218 -0.3527  0.2856
52499SOL    HW164102   3.387   0.258   5.186 -1.0262  0.9265  1.7670
52499SOL    HW264103   3.328   0.248   5.047  1.5074 -1.1907  0.7722
52500SOL     OW64104   3.670   3.164  11.260  0.2854  0.0614  0.2075
52500SOL    HW164105   3.583   3.140  11.229  0.6500 -0.8587 -0.1421
52500SOL    HW264106   3.655   3.205  11.345 -0.4261 -0.8711  0.5523
52501SOL     OW64107  10.336   2.204  12.331 -0.0099  0.0671 -0.1767
52501SOL    HW164108  10.321   2.288  12.376  0.2564 -0.0540  0.1406
52501SOL    HW264109  10.271   2.145  12.369  0.0745  0.0205 -0.1055
52502SOL     OW64110  12.177   8.418   0.981 -0.0652 -0.0381  0.1487
52502SOL    HW164111  12.268   8.399   1.001 -0.2668 -0.0604  1.1240
52502SOL    HW264112  12.176   8.510   0.956  0.0434  0.3443  1.4877
52503SOL     OW64113   7.156   8.476   7.086  0.3634  0.2318  0.3556
52503SOL    HW164114   7.144   8.536   7.160 -0.0506 -1.0667  1.3952
52503SOL    HW264115   7.077   8.423   7.086  1.8395 -2.1277  1.2450
52504SOL     OW64116   7.177   8.422  10.605  0.1347  0.1657 -0.0073
52504SOL    HW164117   7.138   8.489  10.661  1.3362 -1.2943  2.7747
52504SOL    HW264118   7.178   8.462  10.518 -2.2529  2.4038  0.8346
52505SOL     OW64119   0.302   6.640   2.811  0.0838 -0.4683  0.0570
52505SOL    HW164120   0.280   6.585   2.736  0.5701 -0.8916  0.2152
52505SOL    HW264121   0.228   6.628   2.871  0.8118 -2.0568  0.6856
52506SOL     OW64122   0.827   9.374   1.755  0.0630  0.1070 -0.6924
52506SOL    HW164123   0.734   9.363   1.732  0.0259  1.9903 -1.6621
52506SOL    HW264124   0.826   9.437   1.827  0.4889 -1.9912  1.2578
52507SOL     OW64125   3.250   3.051   9.983  0.1509  0.8021  0.3894
52507SOL    HW164126   3.296   3.075   9.902 -2.5211 -1.4358 -2.0436
52507SOL    HW264127   3.288   2.967  10.009 -0.3315  0.5246  0.2281
52508SOL     OW64128   6.912   4.785   0.729  0.1582  0.5541  0.1945
52508SOL    HW164129   6.922   4.813   0.638 -2.5756  0.7973 -0.0962
52508SOL    HW264130   6.943   4.695   0.730  2.2184  1.2035 -0.4565
52509SOL     OW64131   7.478   1.336   1.923 -0.1255  0.0054 -0.0071
52509SOL    HW164132   7.466   1.429   1.903 -0.7154 -0.1878 -0.5578
52509SOL    HW264133   7.573   1.324   1.923 -0.0290  0.6898  0.4536
52510SOL     OW64134   8.429   7.111   7.529 -0.1750  0.1570  0.2507
52510SOL    HW164135   8.490   7.184   7.525 -0.7117  0.5803 -0.6799
52510SOL    HW264136   8.345   7.149   7.504 -0.9461 -0.2886  2.0590
52511SOL     OW64137   9.252  10.685   9.546 -0.1514  0.2178  0.1876
52511SOL    HW164138   9.320  10.689   9.613 -0.2556  0.7934  0.2628
52511SOL    HW264139   9.174  10.656   9.593 -0.2504  0.7230  0.3437
52512SOL     OW64140  11.281  12.230   1.016  0.1665 -0.6188  0.2773
52512SOL    HW164141  11.338  12.294   1.058  0.8220 -1.6847  1.0520
52512SOL    HW264142  11.315  12.222   0.927 -0.1993  0.4279  0.0355
52513SOL     OW64143   2.451   7.801   7.795  0.1245  0.0320 -0.2131
52513SOL    HW164144   2.450   7.883   7.746  0.0075 -0.3905 -0.9311
52513SOL    HW264145   2.358   7.778   7.805  0.1875 -0.9015 -1.5513
52514SOL     OW64146  10.861  12.588   5.668  0.0737  0.0749  0.6076
52514SOL    HW164147  10.839  12.565   5.759  0.7529  1.6619  1.2144
52514SOL    HW264148  10.815  12.670   5.653  2.0071  1.1841  0.4313
52515SOL     OW64149   6.135   9.320   3.415  1.0046  0.0769  0.2224
52515SOL    HW164150   6.082   9.394   3.446 -1.1524 -0.2950 -2.1897
52515SOL    HW264151   6.111   9.248   3.474 -0.5133  0.1686 -0.2351
52516SOL     OW64152   4.213   3.466   8.705  0.2877  0.5712  0.4943
52516SOL    HW164153   4.240   3.554   8.730  0.7817  0.2837  1.0023
52516SOL    HW264154   4.294   3.423   8.677 -0.0503  0.4724 -0.3429
52517SOL     OW64155  10.138  12.574  11.342  0.1872  0.5463  0.2782
52517SOL    HW164156  10.142  12.589  11.436 -0.0258 -2.8517  0.9507
52517SOL    HW264157  10.228  12.588  11.312  0.3367  1.3068  1.0392
52518SOL     OW64158   3.027   0.869  12.785  0.3699 -0.2825  0.5145
52518SOL    HW164159   2.964   0.908  12.845  0.2543 -0.3641  0.4473
52518SOL    HW264160   3.069   0.943  12.741 -0.7857 -0.2422 -0.5900
52519SOL     OW64161   0.763   6.566   5.744  0.1127  0.1110  0.3694
52519SOL    HW164162   0.838   6.600   5.792  1.9368 -0.7274 -1.6914
52519SOL    HW264163   0.721   6.505   5.805  0.3530  1.5086  1.9896
52520SOL     OW64164   8.321   6.488   9.479 -0.2053 -0.5630  0.3923
52520SOL    HW164165   8.411   6.496   9.511 -0.3491 -0.1062  0.6959
52520SOL    HW264166   8.267   6.498   9.558 -0.5192 -0.9141  0.2227
52521SOL     OW64167   9.439   7.064   1.758  0.5978 -0.3038 -0.0146
52521SOL    HW164168   9.428   6.971   1.737 -0.6409 -0.6499  1.8471
52521SOL    HW264169   9.428   7.109   1.675 -2.1131 -1.6378 -0.5041
52522SOL     OW64170   1.421   5.924   7.708  0.2675 -0.4318 -1.0191
52522SOL    HW164171   1.500   5.975   7.688  0.3529 -0.8011 -1.6546
52522SOL    HW264172   1.409   5.934   7.803  1.4390 -0.8891 -0.8143
52523SOL     OW64173  11.554   8.198  12.516 -0.5572  0.1207  0.4117
52523SOL    HW164174  11.559   8.293  12.522 -0.1458  0.1898 -0.6512
52523SOL    HW264175  11.477   8.181  12.461 -2.3722 -0.3061  2.9165
52524SOL     OW64176   6.094   2.691   2.807 -0.6078 -0.1088 -0.4204
52524SOL    HW164177   6.175   2.734   2.781 -0.2639 -0.8188 -0.5649
52524SOL    HW264178   6.026   2.734   2.755 -0.4633  1.1057  0.3660
52525SOL     OW64179   5.900  12.485   8.764  0.6692  0.3325  0.4981
52525SOL    HW164180   5.908  12.577   8.790 -0.7928  0.4316  0.6876
52525SOL    HW264181   5.834  12.486   8.694  1.7761 -0.4008 -0.5888
52526SOL     OW64182   6.162   1.070  10.211 -0.0676 -0.8883  0.0761
52526SOL    HW164183   6.216   1.001  10.250  0.2951 -1.0411 -0.6892
52526SOL    HW264184   6.207   1.093  10.130 -1.4871 -1.4773 -0.9148
52527SOL     OW64185  12.006   5.140   8.009 -0.3213 -0.4029 -0.3386
52527SOL    HW164186  11.934   5.184   8.053  1.5174  0.8573  1.6125
52527SOL    HW264187  12.071   5.209   7.993  1.3705 -1.8490  0.0003
52528SOL     OW64188   2.486   3.870   9.046 -0.6398 -0.4473 -0.0258
52528SOL    HW164189   2.460   3.860   9.138 -2.0554  0.7417 -0.2517
52528SOL    HW264190   2.523   3.786   9.022 -2.3790 -1.5753  1.0018
52529SOL     OW64191   0.866   7.195   2.350 -0.5516  0.0589  0.2586
52529SOL    HW164192   0.911   7.112   2.364 -0.9012 -0.1313  0.2805
52529SOL    HW264193   0.801   7.176   2.281  2.2242  1.3559 -3.0291
52530SOL     OW64194  10.235   1.386   6.317  0.2219 -0.3910  0.1803
52530SOL    HW164195  10.158   1.329   6.313 -0.8622  1.0465 -1.1942
52530SOL    HW264196  10.289   1.359   6.243 -0.3640  0.4101 -0.5614
52531SOL     OW64197   2.407   6.136   7.137 -0.4011 -0.6125 -0.5617
52531SOL    HW164198   2.317   6.139   7.105 -0.9583 -0.9888  0.9285
52531SOL    HW264199   2.403   6.086   7.218  0.8069  1.0844  0.6144
52532SOL     OW64200   5.612   9.931   3.119  0.2541  0.1824 -0.2218
52532SOL    HW164201   5.661   9.853   3.094  0.5984  0.0784  0.7304
52532SOL    HW264202   5.677  10.001   3.121  0.0499  0.3873 -0.5362
52533SOL     OW64203   6.883  12.199   4.606  0.5535 -0.2475  0.2715
52533SOL    HW164204   6.823  12.198   4.532 -0.7197 -1.8885  1.2613
52533SOL    HW264205   6.830  12.232   4.679  1.8437  1.5595  0.4471
52534SOL     OW64206  12.616   0.227   1.263  0.5212  0.0186 -0.0826
52534SOL    HW164207  12.639   0.280   1.339  1.4027 -0.7541  0.2068
52534SOL    HW264208  12.686   0.244   1.200  0.5756 -0.4603 -0.1535
52535SOL     OW64209  11.082  11.442   7.975  0.0551  0.2552  0.3092
52535SOL    HW164210  11.145  11.470   8.041 -0.1649  2.0694 -0.1918
52535SOL    HW264211  11.009  11.405   8.025 -0.0844  1.5528  1.1216
52536SOL     OW64212   0.700   3.410   4.596 -0.2335 -0.0549  0.4980
52536SOL    HW164213   0.777   3.457   4.628 -1.0906  1.6097  0.1817
52536SOL    HW264214   0.687   3.340   4.660  2.3691 -1.3213 -0.2094
52537SOL     OW64215  10.022  10.680   0.376  0.1410  0.6501 -0.4770
52537SOL    HW164216  10.049  10.622   0.305 -1.1396  0.9747 -1.2557
52537SOL    HW264217   9.933  10.706   0.354  0.4205  2.3592  0.1973
52538SOL     OW64218   5.758   3.641   5.394  0.0547 -0.2306  0.1937
52538SOL    HW164219   5.674   3.677   5.365  0.0750 -0.1657  0.2140
52538SOL    HW264220   5.816   3.717   5.398  0.4164 -0.4432 -0.8673
52539SOL     OW64221   4.344   6.114   2.854  0.1847 -0.4636 -0.6898
52539SOL    HW164222   4.270   6.133   2.795 -0.6753 -1.6045 -0.0256
52539SOL    HW264223   4.307   6.055   2.920  0.2316  3.0786  2.9064
52540SOL     OW64224   8.041   8.718   1.558 -0.6530  0.0232  0.0135
52540SOL    HW164225   8.047   8.697   1.651 -0.8836  1.3117  0.3254
52540SOL    HW264226   8.034   8.813   1.554 -0.9792 -0.0304 -1.3060
52541SOL     OW64227   8.575   8.139   8.386  0.9598 -0.1589 -0.0041
52541SOL    HW164228   8.486   8.142   8.352  0.4357 -0.5637  1.2712
52541SOL    HW264229   8.599   8.047   8.383  1.5444  0.0074 -0.8176
52542SOL     OW64230   0.318   0.551   5.901  0.5257  0.5100  0.3032
52542SOL    HW164231   0.228   0.555   5.868  0.6616 -0.2014 -0.1866
52542SOL    HW264232   0.370   0.599   5.836  0.4987  0.9664  0.6128
52543SOL     OW64233   1.878   9.733   2.303 -0.1633  0.2469 -0.0093
52543SOL    HW164234   1.793   9.761   2.272 -0.8959 -0.2548  1.4320
52543SOL    HW264235   1.880   9.639   2.285 -0.1890  0.1391  0.5327
52544SOL     OW64236   8.072   9.679  12.233 -0.8714 -0.5301 -0.1962
52544SOL    HW164237   8.025   9.708  12.154 -0.9476 -0.4507 -0.1220
52544SOL    HW264238   8.036   9.592  12.252 -1.2084 -0.3405  0.0380
52545SOL     OW64239   1.022   6.431   2.131  0.3855 -0.2338 -0.2442
52545SOL    HW164240   1.065   6.400   2.052  2.0039  0.9951  0.0991
52545SOL    HW264241   1.018   6.526   2.120 -0.1956 -0.1331  0.7490
52546SOL     OW64242   8.141   3.628   2.417  0.4144  0.3907  0.2724
52546SOL    HW164243   8.212   3.677   2.459  0.2006  1.3788 -0.4983
52546SOL    HW264244   8.077   3.695   2.392 -0.1906 -0.3536 -0.2152
52547SOL     OW64245   7.543  10.597  10.563  0.2321  0.5033  0.1055
52547SOL    HW164246   7.604  10.594  10.489 -1.1173  1.7951 -1.1420
52547SOL    HW264247   7.589  10.648  10.630  1.6757 -1.1085  0.4013
52548SOL     OW64248  12.515   8.342   7.360  0.3561 -0.1417  0.1410
52548SOL    HW164249  12.590   8.296   7.321  0.4697  1.4790 -1.7228
52548SOL    HW264250  12.439   8.292   7.332  0.6605 -1.3198  1.3374
52549SOL     OW64251  10.575   2.833  12.060  0.4848 -0.2343 -0.1865
52549SOL    HW164252  10.522   2.759  12.030  0.7163 -1.1613  1.5592
52549SOL    HW264253  10.666   2.805  12.045  0.6001 -0.6365  1.0976
52550SOL     OW64254   3.519   4.476   3.517  0.4458 -0.0609 -0.2846
52550SOL    HW164255   3.609   4.457   3.545  1.0722  1.2260 -1.3082
52550SOL    HW264256   3.470   4.482   3.598  1.5385  0.3576  0.3766
52551SOL     OW64257   9.077   4.122   1.708 -0.0402  0.2805 -0.1270
52551SOL    HW164258   9.172   4.128   1.725 -0.1701  0.0549  0.7090
52551SOL    HW264259   9.053   4.210   1.680  0.4793  0.2523 -0.6891
52552SOL     OW64260   1.844   5.607   5.078  0.1485  0.1615  0.2688
52552SOL    HW164261   1.750   5.591   5.090  0.3452 -0.1001  1.6010
52552SOL    HW264262   1.885   5.566   5.154  1.7039 -2.8480 -1.9641
52553SOL     OW64263   5.956   9.142   5.073 -0.2310 -0.0044 -0.7647
52553SOL    HW164264   6.037   9.168   5.116 -1.2129  0.3513  0.9490
52553SOL    HW264265   5.899   9.111   5.144 -1.8653  0.4534 -1.8044
52554SOL     OW64266   8.623  10.624   5.752 -0.1472 -0.5445  0.2129
52554SOL    HW164267   8.609  10.596   5.662  1.2474  1.8793 -0.8618
52554SOL    HW264268   8.546  10.678   5.773  0.7526  1.0880 -0.5434
52555SOL     OW64269   8.759   2.028   3.323  0.0098 -0.3041 -0.8912
52555SOL    HW164270   8.710   1.998   3.399  0.8089  1.2332  0.2833
52555SOL    HW264271   8.836   1.971   3.321 -0.8063 -1.4238 -1.5674
52556SOL     OW64272   9.444   3.354   3.519 -0.5339 -0.2859 -0.3574
52556SOL    HW164273   9.353   3.381   3.527 -0.0154  1.3054  0.6248
52556SOL    HW264274   9.454   3.284   3.584 -0.7226  0.5157  0.5541
52557SOL     OW64275   9.694   0.246  12.676 -0.3431  0.0233  0.2528
52557SOL    HW164276   9.683   0.337  12.650  0.7091 -0.0004 -0.3485
52557SOL    HW264277   9.772   0.216  12.628  0.9509 -0.4078  2.4505
52558SOL     OW64278  10.174   0.211  12.291 -0.0613 -0.7728  0.1342
52558SOL    HW164279  10.216   0.127  12.308  0.3175 -0.7222 -0.5222
52558SOL    HW264280  10.103   0.191  12.230 -0.6405 -0.7692  0.7909
52559SOL     OW64281   9.463  12.241   7.879  0.4400 -0.4414 -0.3995
52559SOL    HW164282   9.491  12.186   7.953 -0.2736 -0.7342 -0.3305
52559SOL    HW264283   9.429  12.178   7.815  1.4730 -0.2235 -1.1816
52560SOL     OW64284   6.592   5.075   1.833  0.3732 -0.4076  0.1638
52560SOL    HW164285   6.512   5.073   1.886 -1.4670 -2.0875 -2.4209
52560SOL    HW264286   6.588   5.158   1.787  1.8892  0.9780  2.3256
52561SOL     OW64287   3.039  12.218   3.826 -0.2067 -0.0430 -0.6688
52561SOL    HW164288   3.122  12.257   3.855 -0.4368  0.8345 -1.1540
52561SOL    HW264289   3.049  12.209   3.732 -0.3217 -0.7995 -0.6156
52562SOL     OW64290  12.121  11.029   5.058  0.0633 -0.5873 -0.1509
52562SOL    HW164291  12.085  10.965   5.120 -1.2471 -1.0542 -1.3500
52562SOL    HW264292  12.078  11.009   4.975 -1.1957  2.4471 -0.3745
52563SOL     OW64293   2.569   9.058  11.345  0.1027 -0.5919  0.3373
52563SOL    HW164294   2.575   9.152  11.364 -1.0679 -0.3462 -0.4007
52563SOL    HW264295   2.515   9.023  11.416 -1.9338 -0.1535 -0.8876
52564SOL     OW64296   4.238   3.144   2.589 -0.3513 -0.4026 -0.2685
52564SOL    HW164297   4.331   3.128   2.574 -0.2289  1.7471 -2.5062
52564SOL    HW264298   4.195   3.063   2.562  0.7545 -0.6175 -1.5454
52565SOL     OW64299  10.132   1.373   8.985 -0.3418 -0.0610 -0.1983
52565SOL    HW164300  10.077   1.350   9.059  0.8555 -2.4963  0.0311
52565SOL    HW264301  10.215   1.402   9.024 -0.6176  1.2923 -0.5735
52566SOL     OW64302   9.828   3.070  11.144 -0.2405 -0.4394  0.3536
52566SOL    HW164303   9.912   3.093  11.106 -0.8224 -1.2355 -1.5212
52566SOL    HW264304   9.773   3.147  11.129 -0.3504 -0.5978 -0.0758
52567SOL     OW64305  10.267   7.257   6.515 -0.3515 -0.9075  0.0843
52567SOL    HW164306  10.220   7.302   6.445  0.9554 -1.0378 -0.9049
52567SOL    HW264307  10.216   7.177   6.531 -0.1437 -1.3762 -1.4279
52568SOL     OW64308   3.223   1.020   8.526 -0.5873 -0.3473 -0.0313
52568SOL    HW164309   3.316   1.013   8.504 -0.7231  1.8121 -1.6410
52568SOL    HW264310   3.180   1.037   8.442 -2.0675  1.4213  1.0164
52569SOL     OW64311  11.433   1.389   3.255  0.7640  0.5363 -0.0340
52569SOL    HW164312  11.431   1.410   3.349  0.6628  0.8773 -0.1098
52569SOL    HW264313  11.380   1.459   3.215 -1.0664 -0.8091 -0.1102
52570SOL     OW64314   8.658   8.462   4.656  0.6144 -0.1517  0.2481
52570SOL    HW164315   8.611   8.545   4.650 -0.3138 -0.5984  0.9572
52570SOL    HW264316   8.649   8.423   4.569  0.1375  0.0197  0.2154
52571SOL     OW64317   7.841   0.529   2.419  0.0492 -0.2493 -0.1045
52571SOL    HW164318   7.856   0.469   2.346 -0.3708  0.7141 -1.0136
52571SOL    HW264319   7.818   0.472   2.492 -2.4805 -1.1223 -1.4693
52572SOL     OW64320   3.516   2.977   6.027 -0.4621  0.0383  0.0663
52572SOL    HW164321   3.479   3.064   6.017  2.0094  1.4402  1.9623
52572SOL    HW264322   3.486   2.948   6.114 -0.1330 -0.4022  0.0394
52573SOL     OW64323   5.003  11.536   5.577  0.1959  0.4376  0.3654
52573SOL    HW164324   4.938  11.478   5.538 -0.0408  1.3228 -0.6069
52573SOL    HW264325   5.085  11.511   5.536  0.1770  0.4679  0.3092
52574SOL     OW64326   1.959   2.948  12.269 -0.2665 -0.5927 -0.2035
52574SOL    HW164327   2.031   2.900  12.309 -0.8143 -1.0161  0.2921
52574SOL    HW264328   1.933   2.895  12.194  0.3326 -0.1270 -0.7537
52575SOL     OW64329   8.045  11.765  11.495  0.3477  0.3545 -0.1026
52575SOL    HW164330   7.976  11.727  11.441  0.2407  0.6685 -0.1879
52575SOL    HW264331   8.097  11.818  11.435  0.2606  0.6624  0.0883
52576SOL     OW64332   1.036   4.975   4.221 -0.6673 -0.6873  0.8979
52576SOL    HW164333   1.126   4.997   4.197 -0.5312 -2.2932 -0.2380
52576SOL    HW264334   0.981   5.030   4.164 -0.3417 -3.2482 -2.1277
52577SOL     OW64335   7.086   3.722   9.692  0.7729  0.3145  0.6050
52577SOL    HW164336   7.160   3.665   9.672  1.4556  1.4904 -0.3434
52577SOL    HW264337   7.024   3.665   9.740  1.2493 -1.3135 -0.6155
52578SOL     OW64338  10.701   8.722   6.301 -0.5515  0.3831 -0.1467
52578SOL    HW164339  10.761   8.720   6.226  2.1216 -1.9151  1.8702
52578SOL    HW264340  10.680   8.630   6.317 -0.9817  0.8091  1.9447
52579SOL     OW64341   5.794   1.529   8.509 -0.4173 -0.1938 -0.2153
52579SOL    HW164342   5.723   1.524   8.572 -0.7675  1.0387 -0.5008
52579SOL    HW264343   5.792   1.619   8.476  0.9973 -0.2557 -0.5429
52580SOL     OW64344   3.107   6.026   1.709  0.5183  0.4291 -0.0639
52580SOL    HW164345   3.084   5.942   1.670 -1.0260  1.2366 -0.9936
52580SOL    HW264346   3.187   6.053   1.665  0.5358 -0.1491 -0.3873
52581SOL     OW64347  11.892   9.939  10.565  0.2466  0.5666 -0.4431
52581SOL    HW164348  11.963   9.879  10.542  0.3022  0.2131  0.6187
52581SOL    HW264349  11.821   9.916  10.505  0.6368  0.1645 -0.7533
52582SOL     OW64350   2.120   3.545   3.425  0.7376 -0.4015 -0.0087
52582SOL    HW164351   2.146   3.569   3.514  0.1409  0.8095 -0.1385
52582SOL    HW264352   2.105   3.450   3.428  0.1419 -0.2801  1.3264
52583SOL     OW64353  10.560   8.482   6.269 -0.1746 -0.1376  0.2189
52583SOL    HW164354  10.653   8.457   6.272 -0.5779 -1.5998  2.2546
52583SOL    HW264355  10.518   8.411   6.221 -0.2755  0.4775 -0.6153
52584SOL     OW64356  10.947   5.323   9.382  0.4141 -0.1900  0.1712
52584SOL    HW164357  10.952   5.413   9.351  2.2550  0.1353  1.2029
52584SOL    HW264358  10.862   5.291   9.353  0.3988  1.3449 -1.6295
52585SOL     OW64359   6.946  12.257   1.848  0.0358 -1.0813 -0.5419
52585SOL    HW164360   7.023  12.273   1.793  0.6623  0.9920  0.8353
52585SOL    HW264361   6.982  12.230   1.932 -0.8032 -1.3189 -0.2497
52586SOL     OW64362   0.728   0.046  12.307  0.2212 -0.8385 -0.1239
52586SOL    HW164363   0.746   0.001  12.390 -0.8721 -0.0488  0.5706
52586SOL    HW264364   0.771  -0.008  12.241  2.7104 -0.4901  1.1205
52587SOL     OW64365   4.354   5.178   5.087  0.3446  0.0635  0.4082
52587SOL    HW164366   4.389   5.221   5.009  0.8873  0.1515  0.6967
52587SOL    HW264367   4.264   5.209   5.094  0.3252  0.1265 -0.1301
52588SOL     OW64368  11.839   6.879   2.627  0.4938  0.1532  0.0112
52588SOL    HW164369  11.830   6.932   2.548 -0.8762 -1.5499 -1.0549
52588SOL    HW264370  11.812   6.937   2.698 -0.5514  1.0318 -1.0480
52589SOL     OW64371  11.802   5.867  12.591 -0.6243  0.3318  0.2155
52589SOL    HW164372  11.831   5.886  12.681  0.5729 -1.9156  0.3563
52589SOL    HW264373  11.857   5.794  12.563 -1.4185  0.5758 -2.1431
52590SOL     OW64374   4.478  10.467   1.595  0.1717  0.5520  0.4896
52590SOL    HW164375   4.453  10.501   1.509  2.4403  1.7031  0.1856
52590SOL    HW264376   4.410  10.404   1.617  0.4687 -1.2417 -3.0300
52591SOL     OW64377   5.459   3.012   7.130 -0.4083 -0.3358  0.5888
52591SOL    HW164378   5.489   3.012   7.221  4.0253 -1.0256 -0.6195
52591SOL    HW264379   5.462   3.104   7.104 -2.3511 -0.0496  1.2252
52592SOL     OW64380   9.038   8.106   7.918 -0.6918  0.2804  0.2618
52592SOL    HW164381   8.958   8.096   7.970 -2.2124  1.4954 -1.6799
52592SOL    HW264382   9.072   8.017   7.909 -2.3700 -0.4051  0.3568
52593SOL     OW64383  10.995   1.380   7.668 -0.0511 -0.2329 -0.5197
52593SOL    HW164384  11.042   1.444   7.616 -0.9992  0.7157 -0.2537
52593SOL    HW264385  11.044   1.375   7.750 -0.9428  1.5325  0.1698
52594SOL     OW64386   4.696  12.611   1.616  0.7909 -0.3981  0.5615
52594SOL    HW164387   4.737  12.538   1.662 -0.1161 -2.4734 -1.7057
52594SOL    HW264388   4.647  12.570   1.544  0.5644  2.4805 -1.0814
52595SOL     OW64389   4.552   9.391  11.277 -0.1737  0.8009 -0.0918
52595SOL    HW164390   4.629   9.431  11.236  0.4464  0.7080  0.9325
52595SOL    HW264391   4.586   9.352  11.358 -1.1641  0.0822 -0.0086
52596SOL     OW64392   1.779   0.285  11.716 -0.1634 -0.4801  0.2579
52596SOL    HW164393   1.703   0.339  11.737 -0.5454 -1.2072  0.7992
52596SOL    HW264394   1.849   0.348  11.698 -0.8231  0.1921  0.0210
52597SOL     OW64395   0.943   6.734   2.275  0.1515 -0.2957 -0.1128
52597SOL    HW164396   0.966   6.814   2.321  0.8964 -1.2503  1.2502
52597SOL    HW264397   1.020   6.715   2.221 -0.3464  0.3192 -1.0592
52598SOL     OW64398   3.674   7.430  12.326  0.4944  0.5606  0.0707
52598SOL    HW164399   3.667   7.337  12.303  0.5820  1.1560 -2.6702
52598SOL    HW264400   3.711   7.430  12.414 -1.7468 -2.0186  1.1693
52599SOL     OW64401   4.226  12.552   0.739 -0.2786  0.2398 -0.5127
52599SOL    HW164402   4.209  12.484   0.674  1.5795 -0.3754 -0.3968
52599SOL    HW264403   4.243  12.631   0.688 -0.8041  0.2458 -0.6888
52600SOL     OW64404   7.987   0.409   1.668  0.0537  0.2862 -0.3606
52600SOL    HW164405   7.892   0.404   1.667  0.0700 -0.8835  0.8105
52600SOL    HW264406   8.013   0.356   1.744  1.5866  1.3644 -0.0860
52601SOL     OW64407   2.348   2.629   2.261  0.3198  0.4687 -0.1077
52601SOL    HW164408   2.412   2.576   2.213  1.1513  1.3220  0.0351
52601SOL    HW264409   2.400   2.678   2.324 -0.5213  0.9331  0.2358
52602SOL     OW64410   4.831   9.025  10.736  0.3804 -0.4928 -0.1923
52602SOL    HW164411   4.782   9.031  10.655  0.6717 -0.1202 -0.3427
52602SOL    HW264412   4.792   8.951  10.782  0.3700 -0.8530 -0.7736
52603SOL     OW64413   6.032   4.640   6.117 -0.2748  0.0742 -0.3578
52603SOL    HW164414   6.036   4.581   6.192  0.1829  0.0954 -0.3576
52603SOL    HW264415   5.954   4.613   6.068  0.2178 -0.8877 -0.6452
52604SOL     OW64416   9.079   7.577   2.717 -0.6169  0.4625  0.1223
52604SOL    HW164417   9.014   7.600   2.651 -2.4603  3.2384  2.6001
52604SOL    HW264418   9.140   7.651   2.717 -0.1499  0.0881  0.9205
52605SOL     OW64419   8.731   5.188  12.719 -0.2255  0.2374  0.1871
52605SOL    HW164420   8.715   5.178  12.813  1.2534  1.7593  0.6567
52605SOL    HW264421   8.813   5.141  12.704 -0.7448 -0.4790 -0.4807
52606SOL     OW64422   1.045   2.957   0.397  0.0319  0.2752 -0.3089
52606SOL    HW164423   0.965   3.000   0.367 -1.9086 -2.1914  0.8669
52606SOL    HW264424   1.094   2.939   0.317 -0.5732  1.8431 -1.0627
52607SOL     OW64425   1.900   8.377   8.198  0.1603 -0.4367  0.1959
52607SOL    HW164426   1.829   8.354   8.258 -0.7792  0.7761 -0.4061
52607SOL    HW264427   1.870   8.345   8.113  0.5829 -0.3721  0.0222
52608SOL     OW64428  11.281   9.433   2.067 -0.2641  0.1960  0.1581
52608SOL    HW164429  11.205   9.454   2.011  0.6847 -0.4450 -1.4469
52608SOL    HW264430  11.284   9.504   2.131 -2.5398 -0.0517  0.6336
52609SOL     OW64431   7.838  10.228   0.822 -0.4522 -0.0418  0.2105
52609SOL    HW164432   7.866  10.240   0.913 -1.1323 -0.8794  0.5492
52609SOL    HW264433   7.903  10.168   0.785 -0.8508 -0.6673  0.5092
52610SOL     OW64434   5.133  11.962   3.572 -0.4207 -0.0600 -0.1570
52610SOL    HW164435   5.076  11.970   3.496  0.4891  3.0048 -0.6757
52610SOL    HW264436   5.082  12.000   3.644  0.4132  1.4825 -0.3419
52611SOL     OW64437   9.912   5.496   4.882  0.0975  0.1940  0.2160
52611SOL    HW164438   9.895   5.406   4.855 -1.2601  0.0145  1.5356
52611SOL    HW264439   9.864   5.549   4.818  1.2551  0.0414 -0.8277
52612SOL     OW64440   1.556   7.522   7.475 -0.5129 -0.1762  0.0939
52612SOL    HW164441   1.567   7.550   7.384  0.7278  0.7433  0.4982
52612SOL    HW264442   1.468   7.552   7.498 -0.2721  0.9360 -0.3552
52613SOL     OW64443  10.706   0.258   6.230 -0.2242 -0.0420 -0.0087
52613SOL    HW164444  10.766   0.274   6.158 -0.4156 -1.4470 -0.5070
52613SOL    HW264445  10.762   0.242   6.306  0.0849 -1.9591 -0.6000
52614SOL     OW64446   7.565   1.511  12.529 -0.1354 -0.2832  0.1275
52614SOL    HW164447   7.492   1.551  12.483  0.7269 -0.3222 -1.3417
52614SOL    HW264448   7.601   1.583  12.582  0.8981  0.7623 -1.8673
52615SOL     OW64449   0.298   2.327   5.104 -0.1550 -0.1903  0.5967
52615SOL    HW164450   0.244   2.291   5.033 -0.7476  1.4414  0.1744
52615SOL    HW264451   0.362   2.382   5.059 -0.5454  0.8754  1.3350
52616SOL     OW64452  12.285   9.593   8.531  0.5030  0.6243 -0.5117
52616SOL    HW164453  12.333   9.675   8.516  1.2632  0.0277 -1.4081
52616SOL    HW264454  12.253   9.568   8.444 -0.7457  0.5720 -0.0587
52617SOL     OW64455   6.489   0.001   5.969 -0.1054 -0.1412 -0.3031
52617SOL    HW164456   6.574   0.041   5.989  0.5590 -0.7000 -1.9133
52617SOL    HW264457   6.508  -0.092   5.957 -1.4043 -0.7763  1.9524
52618SOL     OW64458   9.577   3.617  10.604 -0.3269  0.0891  0.0763
52618SOL    HW164459   9.569   3.525  10.581  0.1801  0.4163 -1.5192
52618SOL    HW264460   9.592   3.617  10.699 -1.0364 -1.4129  0.2106
52619SOL     OW64461   1.848   6.912   3.526  0.3575  0.1866  0.0975
52619SOL    HW164462   1.829   7.005   3.515  1.4669  0.3576 -0.5468
52619SOL    HW264463   1.771   6.867   3.490 -0.1321  0.8507  0.3046
52620SOL     OW64464   4.471  10.729  12.072  0.4379 -0.3304  0.0547
52620SOL    HW164465   4.414  10.760  12.142  1.3562 -0.9492  1.1024
52620SOL    HW264466   4.492  10.638  12.096 -1.5791 -1.6206 -2.5273
52621SOL     OW64467   0.803   5.546  12.476 -0.2482  0.0662  0.2713
52621SOL    HW164468   0.885   5.565  12.430 -1.0366 -0.8729 -1.6406
52621SOL    HW264469   0.823   5.469  12.529 -0.1759 -0.9248 -1.1423
52622SOL     OW64470   7.383  12.501   1.835  0.1399  0.3581 -0.6235
52622SOL    HW164471   7.432  12.444   1.894 -0.7187 -2.6259 -2.5677
52622SOL    HW264472   7.451  12.544   1.783  0.8003 -0.1928 -0.2494
52623SOL     OW64473   5.207   4.711  10.075 -0.1465 -0.1733  0.2442
52623SOL    HW164474   5.204   4.771  10.001  0.3646  1.5642  1.5831
52623SOL    HW264475   5.125   4.662  10.069 -1.5578  2.0802  0.2642
52624SOL     OW64476   9.441   2.702   0.552 -0.1447 -0.2484  0.7397
52624SOL    HW164477   9.531   2.734   0.567 -0.8994  1.9063  1.0751
52624SOL    HW264478   9.430   2.632   0.616  1.7468 -1.5897 -0.2884
52625SOL     OW64479   3.872  11.112   0.735  0.3610 -0.2348  0.4844
52625SOL    HW164480   3.780  11.140   0.734  0.6032  0.5824 -0.1891
52625SOL    HW264481   3.872  11.028   0.690 -0.3690 -1.3648  2.4480
52626SOL     OW64482   8.158   4.896  12.536 -0.2112 -0.0689 -0.2067
52626SOL    HW164483   8.204   4.965  12.490  1.1424  0.3859  1.6940
52626SOL    HW264484   8.082   4.939  12.574  1.0712  0.6666  1.6781
52627SOL     OW64485  10.122  10.566  10.889  0.0341  0.0560 -0.1758
52627SOL    HW164486  10.194  10.531  10.942 -0.6645 -0.1814  0.6416
52627SOL    HW264487  10.157  10.647  10.853  1.0062 -0.4868 -0.4978
52628SOL     OW64488  11.965   4.373   1.683 -0.1792 -0.3322  0.3481
52628SOL    HW164489  11.877   4.400   1.657 -0.4319 -2.7433 -1.5492
52628SOL    HW264490  11.955   4.343   1.773 -1.4584 -1.1938 -0.0616
52629SOL     OW64491   9.861  10.581   7.999 -0.9562  0.6294 -0.3722
52629SOL    HW164492   9.955  10.573   7.984 -1.0762 -0.5610 -0.5952
52629SOL    HW264493   9.821  10.530   7.929 -1.6902 -0.5979  0.8777
52630SOL     OW64494   6.990   6.606   3.759  0.0612  0.0831  0.0328
52630SOL    HW164495   6.932   6.671   3.721  1.4088  0.9814 -0.5869
52630SOL    HW264496   6.934   6.531   3.779 -1.3601  1.0927 -0.0765
52631SOL     OW64497  10.227   9.065   7.675 -0.1325  0.1825  0.0310
52631SOL    HW164498  10.258   9.150   7.704 -0.1697 -0.0994  0.9071
52631SOL    HW264499  10.270   9.002   7.733 -2.3928 -0.2186  1.3517
52632SOL     OW64500   0.539   0.865  11.003 -0.4777 -0.5813 -0.2842
52632SOL    HW164501   0.582   0.950  10.997 -1.5794  0.0049 -0.2291
52632SOL    HW264502   0.542   0.843  11.096 -0.9438 -0.1758 -0.1640
52633SOL     OW64503  10.217  11.513   0.357 -0.2459 -0.1326 -0.1826
52633SOL    HW164504  10.164  11.565   0.418 -0.0059 -0.7028  0.5283
52633SOL    HW264505  10.160  11.500   0.281  0.0781  2.1209 -0.8822
52634SOL     OW64506   9.101   8.300   2.395  0.1777 -0.0026 -1.0176
52634SOL    HW164507   9.135   8.217   2.361  2.4594  0.4029  0.0091
52634SOL    HW264508   9.072   8.279   2.484  0.5823  0.2316 -0.8239
52635SOL     OW64509   2.682  12.732  11.778 -0.3785 -0.6716  0.3739
52635SOL    HW164510   2.702  12.806  11.720 -1.5079 -1.3595 -0.9391
52635SOL    HW264511   2.768  12.693  11.796 -0.0070 -0.5931 -1.0528
52636SOL     OW64512  10.441   5.574   1.015  0.8483 -0.1672  0.4860
52636SOL    HW164513  10.520   5.582   1.069  1.0381 -0.6785  0.2877
52636SOL    HW264514  10.376   5.629   1.060  0.9043 -0.8390  1.4169
52637SOL     OW64515   6.086  11.051   5.142 -0.0363  0.2716 -0.1662
52637SOL    HW164516   6.174  11.047   5.104 -0.6456 -0.7148 -1.5374
52637SOL    HW264517   6.043  10.972   5.112 -0.9257 -0.0268  1.7510
52638SOL     OW64518   1.472  12.762   6.678  0.2201  0.3103 -0.4003
52638SOL    HW164519   1.511  12.680   6.708  0.4170  0.6274  0.2264
52638SOL    HW264520   1.546  12.821   6.668 -0.0792  0.9088  0.7707
52639SOL     OW64521   8.976  12.197   2.900  0.1725  0.3987 -0.5440
52639SOL    HW164522   8.977  12.191   2.995 -0.1993 -0.0350 -0.5621
52639SOL    HW264523   8.985  12.106   2.870 -2.0198  0.2431 -0.8885
52640SOL     OW64524   6.756   9.590   8.179  0.1334  0.6082 -0.3019
52640SOL    HW164525   6.664   9.568   8.195  0.3491  0.4726  0.8243
52640SOL    HW264526   6.770   9.566   8.087 -1.7605  3.4524 -1.4747
52641SOL     OW64527   2.521  10.849   1.849 -0.1372  0.5040  0.2685
52641SOL    HW164528   2.503  10.904   1.773 -2.3434 -0.5982 -0.0758
52641SOL    HW264529   2.542  10.763   1.812 -0.5677  0.1304  0.8703
52642SOL     OW64530  10.274  12.611   9.154  0.5955 -0.0132  0.2775
52642SOL    HW164531  10.281  12.680   9.219 -1.8592 -0.4738  1.1090
52642SOL    HW264532  10.210  12.643   9.091 -0.0822 -1.2415  0.3185
52643SOL     OW64533  12.326   0.527   7.789  0.6825  0.3187 -0.7517
52643SOL    HW164534  12.259   0.478   7.837  3.6466 -0.8481  2.6834
52643SOL    HW264535  12.335   0.609   7.838  1.6360  0.5047 -1.2194
52644SOL     OW64536   7.410   7.083   3.558  0.2266  0.0305  0.1739
52644SOL    HW164537   7.421   6.990   3.541 -0.9192  0.0358 -0.7622
52644SOL    HW264538   7.431   7.126   3.475 -0.7268  0.4709  0.1444
52645SOL     OW64539  12.160   4.753   1.614 -0.1538  0.6715  0.0835
52645SOL    HW164540  12.138   4.686   1.678  1.9182 -0.2496 -0.0982
52645SOL    HW264541  12.228   4.806   1.657  1.1544  0.1305 -1.2317
52646SOL     OW64542  12.240   7.836   9.010  0.1641  0.1845 -0.2955
52646SOL    HW164543  12.323   7.878   8.992  1.6273 -1.6900  1.5321
52646SOL    HW264544  12.263   7.758   9.062 -2.8054  0.3193  1.4830
52647SOL     OW64545   3.346   3.403  12.131 -0.4311  0.1464  0.2362
52647SOL    HW164546   3.404   3.420  12.057  1.8134  0.6554  2.0210
52647SOL    HW264547   3.265   3.448  12.109  1.1356  2.6968 -0.6969
52648SOL     OW64548   4.209  12.361   0.562 -0.0207 -0.0263  0.1985
52648SOL    HW164549   4.134  12.320   0.518  1.1049 -0.5780 -1.2849
52648SOL    HW264550   4.281  12.299   0.550  1.7058  2.1889 -1.9628
52649SOL     OW64551   8.016   7.790   7.447 -0.0682 -0.0896  0.2696
52649SOL    HW164552   8.092   7.803   7.390 -0.7840  0.6429 -0.5531
52649SOL    HW264553   8.042   7.830   7.530  0.3483  0.4315 -0.0979
52650SOL     OW64554   2.552  11.140   6.675  0.1441 -0.7888 -0.1083
52650SOL    HW164555   2.589  11.053   6.682 -0.1280 -0.9184 -0.2483
52650SOL    HW264556   2.564  11.179   6.761  0.6193 -0.8215 -0.1583
52651SOL     OW64557  10.564   9.426  11.905 -0.2578  0.5957  0.2407
52651SOL    HW164558  10.493   9.440  11.842 -1.5900 -0.6830  1.3653
52651SOL    HW264559  10.532   9.356  11.962  2.1426 -0.3962  0.5038
52652SOL     OW64560   5.460   1.026   8.320  0.6863  0.3506 -0.2833
52652SOL    HW164561   5.535   1.056   8.268 -0.4922  2.0396 -1.0897
52652SOL    HW264562   5.385   1.039   8.262 -0.5033  0.9162  1.3399
52653SOL     OW64563  10.787  11.786   7.682 -0.3518 -0.3262  0.7286
52653SOL    HW164564  10.762  11.865   7.729  1.4600  1.2585 -0.8250
52653SOL    HW264565  10.778  11.808   7.590  2.0974 -1.1750  0.1999
52654SOL     OW64566   2.898   7.827   7.768  0.5098 -0.1278 -0.1394
52654SOL    HW164567   2.878   7.803   7.859 -0.0394  0.8425  0.0058
52654SOL    HW264568   2.988   7.795   7.755  0.1931 -1.2957  0.3625
52655SOL     OW64569   9.564  12.140   5.975 -0.3533  0.1992  0.0049
52655SOL    HW164570   9.635  12.204   5.980 -0.4619  0.6978 -2.7494
52655SOL    HW264571   9.502  12.168   6.042  1.5060  0.4007  1.7354
52656SOL     OW64572   0.905   1.083  10.369  0.4274  0.2556 -0.0979
52656SOL    HW164573   0.878   1.174  10.381  1.6959  0.5740  0.5878
52656SOL    HW264574   0.955   1.084  10.287 -1.8448 -0.4133 -1.5955
52657SOL     OW64575  11.030   5.940   2.566  0.2325 -0.2648 -0.1127
52657SOL    HW164576  11.066   5.958   2.479 -0.3911  2.3595  0.0956
52657SOL    HW264577  11.025   5.845   2.570  6.7599 -1.0960 -0.3020
52658SOL     OW64578   7.499   8.727   6.854  0.3183  0.8497  0.0026
52658SOL    HW164579   7.405   8.718   6.868  0.4544 -0.6043  0.1640
52658SOL    HW264580   7.510   8.714   6.760  0.5027 -0.6751  0.2139
52659SOL     OW64581   1.967   2.312   2.990 -0.2051  0.0234  0.1936
52659SOL    HW164582   2.008   2.270   2.914 -1.7364  0.4832 -0.9425
52659SOL    HW264583   1.883   2.268   2.998  0.6186 -1.2608  2.7940
52660SOL     OW64584   2.448   5.177  10.740  0.1561 -0.3311  0.0451
52660SOL    HW164585   2.502   5.243  10.696  1.3327 -0.3936  1.3089
52660SOL    HW264586   2.503   5.099  10.741 -0.3123 -0.6559  0.5814
52661SOL     OW64587   8.249   9.069   7.414  0.1615 -0.1933 -0.0142
52661SOL    HW164588   8.315   9.092   7.480 -1.3340  0.0224  1.4516
52661SOL    HW264589   8.226   9.153   7.374  2.9455 -0.5470 -2.8159
52662SOL     OW64590   8.705   0.836   8.646  0.0344  0.1987 -0.2204
52662SOL    HW164591   8.616   0.810   8.623  0.6218 -2.1279 -0.1414
52662SOL    HW264592   8.695   0.907   8.709 -1.7568 -0.1370 -0.0929
52663SOL     OW64593   2.152  12.435   7.135 -0.2022 -0.0358  0.3519
52663SOL    HW164594   2.088  12.506   7.141 -0.1767  0.0987 -0.7593
52663SOL    HW264595   2.100  12.357   7.118 -0.2093 -0.2644  1.3373
52664SOL     OW64596  10.715   1.133   2.423 -0.2124  0.0378  0.3471
52664SOL    HW164597  10.786   1.195   2.404 -0.6278  0.3621 -0.2028
52664SOL    HW264598  10.650   1.185   2.471  0.3072 -0.4834  1.6459
52665SOL     OW64599   6.353   2.286   5.092  0.7450  0.2362  0.2131
52665SOL    HW164600   6.264   2.310   5.119  0.6528 -0.1312  0.2405
52665SOL    HW264601   6.359   2.317   5.001  0.6987  0.5436  0.3141
52666SOL     OW64602   6.139   6.593   4.378  0.3247  0.3603 -0.6188
52666SOL    HW164603   6.050   6.600   4.412 -0.4762  1.9976 -2.8004
52666SOL    HW264604   6.177   6.519   4.424 -2.1348 -0.3405  0.4321
52667SOL     OW64605  12.577   3.663   3.469  0.4873  0.1165  0.5557
52667SOL    HW164606  12.546   3.730   3.408  0.2005 -1.4034 -1.0455
52667SOL    HW264607  12.498   3.614   3.492  0.8451 -0.3050  0.8932
52668SOL     OW64608  12.691   8.721  12.675 -0.1551  0.1288  0.5066
52668SOL    HW164609  12.719   8.644  12.626  1.6099  0.7979  0.4150
52668SOL    HW264610  12.672   8.787  12.608 -1.5674 -0.1614  0.5889
52669SOL     OW64611  12.322  10.861   3.865  0.1608  0.2712  0.8172
52669SOL    HW164612  12.344  10.791   3.926  1.2718  0.4306  0.6257
52669SOL    HW264613  12.234  10.840   3.834 -0.0319 -0.3211  1.7515
52670SOL     OW64614   7.752   3.295  10.682 -0.0611 -0.3823  0.4195
52670SOL    HW164615   7.816   3.297  10.753 -0.0845 -0.2981  0.4378
52670SOL    HW264616   7.704   3.378  10.690  0.8094  0.2254 -0.5075
52671SOL     OW64617   5.341  12.706   7.530 -0.1226 -0.2863  0.0715
52671SOL    HW164618   5.384  12.771   7.475 -2.9312  0.4516 -1.4425
52671SOL    HW264619   5.313  12.637   7.470 -0.7421 -0.8978  1.0230
52672SOL     OW64620   9.392   5.116  10.171  0.1978  0.2939 -0.3904
52672SOL    HW164621   9.350   5.091  10.088  3.7353 -1.2452 -1.9297
52672SOL    HW264622   9.331   5.087  10.238 -1.6428 -0.8285 -2.4042
52673SOL     OW64623  11.038   5.998   7.424 -0.4147  0.0722  0.4812
52673SOL    HW164624  11.026   5.947   7.344  2.2962 -0.2709  0.1880
52673SOL    HW264625  10.999   6.083   7.405  0.1808 -0.0053 -1.2596
52674SOL     OW64626   4.688   5.611   1.446  0.5420 -0.2686  0.3089
52674SOL    HW164627   4.703   5.700   1.477  2.0665 -0.3864  0.0068
52674SOL    HW264628   4.635   5.570   1.514 -0.8612  1.0799  0.0806
52675SOL     OW64629   3.296   5.376   4.728 -0.3301  0.2930  0.4441
52675SOL    HW164630   3.374   5.338   4.767 -0.0061 -0.6918 -1.0857
52675SOL    HW264631   3.231   5.306   4.730 -0.1602  0.0457 -1.1521
52676SOL     OW64632   2.439   9.542   0.542 -0.2073 -0.4283  0.2073
52676SOL    HW164633   2.446   9.560   0.448  3.1261  2.2858  0.8140
52676SOL    HW264634   2.513   9.485   0.561 -1.0101 -1.1766  1.2274
52677SOL     OW64635   1.346   7.918   3.348 -0.3694 -0.2625 -0.1200
52677SOL    HW164636   1.271   7.860   3.339 -1.1388  0.7512 -0.3630
52677SOL    HW264637   1.311   8.005   3.333  0.7206  0.2981  0.4713
52678SOL     OW64638   5.568   4.310   4.568 -0.3363 -0.0391 -0.2184
52678SOL    HW164639   5.548   4.331   4.659 -0.1665 -1.2575  0.1201
52678SOL    HW264640   5.647   4.257   4.572 -0.7604 -0.7645 -0.9945
52679SOL     OW64641   5.949   0.144  11.038  0.1434 -0.1555  0.0669
52679SOL    HW164642   5.856   0.167  11.044  0.0592 -0.5180  0.1234
52679SOL    HW264643   5.951   0.066  10.982  0.3154 -0.8259  0.9965
52680SOL     OW64644   7.797   4.615   9.279 -0.5182  0.2327 -0.2556
52680SOL    HW164645   7.794   4.542   9.218  1.7965 -2.4203  2.4406
52680SOL    HW264646   7.877   4.662   9.255  0.5901 -1.0207  0.7910
52681SOL     OW64647   7.515  10.271   8.285 -0.2886  0.2491 -0.4073
52681SOL    HW164648   7.595  10.254   8.235  0.9191  1.4995  0.9916
52681SOL    HW264649   7.471  10.342   8.238 -0.5688 -0.3824 -1.1298
52682SOL     OW64650   8.006   7.568  11.470  0.2808 -0.1193  0.0009
52682SOL    HW164651   7.956   7.561  11.389  1.6825 -2.1030 -0.7696
52682SOL    HW264652   8.090   7.606  11.444  0.0540  1.0627  0.8971
52683SOL     OW64653   0.356   5.790   5.662 -0.2987  0.3207 -0.3027
52683SOL    HW164654   0.358   5.886   5.658 -0.5925  0.2821 -2.4328
52683SOL    HW264655   0.369   5.770   5.755 -2.5431  2.4767  0.6034
52684SOL     OW64656   6.364   1.355  10.279 -0.4353  0.3415  0.2153
52684SOL    HW164657   6.381   1.264  10.302 -3.3266 -0.1294  0.7947
52684SOL    HW264658   6.337   1.396  10.360  0.2534  1.6168 -0.1647
52685SOL     OW64659   0.916   3.744   9.823  0.4355 -0.6965 -0.0117
52685SOL    HW164660   0.914   3.762   9.917 -1.0172 -0.6725 -0.0301
52685SOL    HW264661   0.843   3.684   9.808  0.4603 -0.4659 -1.1835
52686SOL     OW64662   5.418  10.493   8.808 -0.2944  0.3599 -0.4438
52686SOL    HW164663   5.373  10.465   8.729  0.8182 -1.0953 -0.6170
52686SOL    HW264664   5.485  10.554   8.778  2.1698 -2.4213 -1.1946
52687SOL     OW64665   8.663   1.376   5.721  0.1539 -0.0788 -0.3438
52687SOL    HW164666   8.683   1.455   5.669 -2.4422  1.0618  0.2458
52687SOL    HW264667   8.735   1.371   5.784  0.7929  1.3419 -0.9047
52688SOL     OW64668  12.693   6.555   8.994 -0.0046  0.8161 -0.3129
52688SOL    HW164669  12.733   6.535   8.909  0.6678  1.7787 -0.2372
52688SOL    HW264670  12.680   6.650   8.993  0.4774  0.9156  0.8512
52689SOL     OW64671   4.072  10.802   7.830 -0.5643  0.7326  0.1281
52689SOL    HW164672   4.121  10.864   7.885  0.1844  0.5730 -0.3359
52689SOL    HW264673   4.033  10.740   7.891  2.0273 -0.7363  0.4254
52690SOL     OW64674  10.827   5.959   4.285  0.1474  0.1863 -0.8603
52690SOL    HW164675  10.778   5.936   4.365 -1.3853 -0.0467 -1.8097
52690SOL    HW264676  10.854   6.049   4.299  0.0156  0.1100 -0.0208
52691SOL     OW64677   7.601   5.123   2.178 -0.2382 -0.5107  0.1725
52691SOL    HW164678   7.558   5.146   2.261 -3.1391  3.2172 -2.0491
52691SOL    HW264679   7.679   5.177   2.175 -0.4349 -0.2202  0.2447
52692SOL     OW64680   4.390   8.725   5.946 -0.7052 -0.4133 -0.1260
52692SOL    HW164681   4.338   8.722   5.866 -1.0720  1.5670 -0.0154
52692SOL    HW264682   4.360   8.804   5.991  3.0784  1.4603 -0.5368
52693SOL     OW64683   6.757   1.270   3.629 -0.2403 -0.0394  0.4949
52693SOL    HW164684   6.731   1.205   3.694  1.1233  0.0228  1.1397
52693SOL    HW264685   6.716   1.240   3.547 -2.0121 -0.1040  1.3500
52694SOL     OW64686   7.319   1.048   1.259  0.2363  0.4405  0.2522
52694SOL    HW164687   7.265   1.125   1.275 -0.3520  0.1985 -0.4674
52694SOL    HW264688   7.365   1.067   1.177  0.7479  0.3771  0.5223
52695SOL     OW64689  12.007   8.469  12.473  0.1053  0.2376  0.1176
52695SOL    HW164690  12.002   8.380  12.509  0.6488  0.7950  1.6501
52695SOL    HW264691  12.067   8.461  12.398  0.4438 -0.6279  0.4638
52696SOL     OW64692   3.622   0.815   5.745 -0.7582 -0.2196 -0.1400
52696SOL    HW164693   3.532   0.841   5.724 -1.8975 -1.6599  2.4092
52696SOL    HW264694   3.668   0.898   5.758 -2.1788  0.5591  0.1768
52697SOL     OW64695   0.703  10.050  11.439  0.0305 -0.4897  0.6392
52697SOL    HW164696   0.782  10.035  11.491  0.4508  1.6318  0.7045
52697SOL    HW264697   0.658  10.122  11.484 -1.5253 -1.0989  0.1356
52698SOL     OW64698   1.142   7.984   6.855  0.4568 -0.0218 -0.0371
52698SOL    HW164699   1.172   8.004   6.766  0.4397  1.0253  0.1890
52698SOL    HW264700   1.217   7.942   6.897  0.6162 -0.1019 -0.3995
52699SOL     OW64701   3.404   4.662   0.709  0.0534  0.0807  0.6166
52699SOL    HW164702   3.364   4.748   0.721  1.0477  0.4746  1.2185
52699SOL    HW264703   3.465   4.654   0.782  0.7667 -0.6756 -0.0513
52700SOL     OW64704   0.504   9.116   0.279 -0.2195  0.5362  0.3447
52700SOL    HW164705   0.466   9.040   0.324  3.2624 -0.3851  2.0706
52700SOL    HW264706   0.444   9.188   0.298 -1.3566 -0.8760  2.4753
52701SOL     OW64707   1.690   6.029   9.411 -0.2381 -0.4366 -0.3984
52701SOL    HW164708   1.672   6.007   9.320  0.8630  0.8643 -0.9639
52701SOL    HW264709   1.777   6.069   9.409 -1.0643  1.5712  0.8892
52702SOL     OW64710   4.785   4.035   7.214  0.3151 -0.0475  0.3755
52702SOL    HW164711   4.797   4.045   7.309 -1.7308 -0.7576  0.7648
52702SOL    HW264712   4.782   3.941   7.200 -0.6496  0.0538 -0.1871
52703SOL     OW64713  12.612  12.372  12.677  0.9807  0.1607 -0.5518
52703SOL    HW164714  12.549  12.399  12.610  0.8965  0.5609 -0.3099
52703SOL    HW264715  12.674  12.317  12.630  0.5549 -0.0934 -0.8317
52704SOL     OW64716   5.937   2.767   5.342 -0.0485  0.1318  0.1643
52704SOL    HW164717   5.971   2.854   5.360 -1.7538  0.8556  0.0741
52704SOL    HW264718   5.924   2.766   5.247  0.9096 -0.6161  0.0175
52705SOL     OW64719  10.819   9.491  11.830  0.0982 -0.2205  0.2846
52705SOL    HW164720  10.800   9.571  11.782  0.3580  0.7798  1.7765
52705SOL    HW264721  10.734   9.452  11.849 -0.3543  1.7273  2.7979
52706SOL     OW64722   0.613   0.624   2.547  0.3287  0.7395 -0.3048
52706SOL    HW164723   0.629   0.672   2.628 -0.4271 -0.5473  0.6457
52706SOL    HW264724   0.526   0.586   2.558  1.9981 -3.4933  0.4616
52707SOL     OW64725   7.630   0.619   9.059  0.5759  0.3270  0.0562
52707SOL    HW164726   7.613   0.605   9.152  2.1833 -2.1560  0.0565
52707SOL    HW264727   7.572   0.556   9.015 -1.0018  2.2508 -0.7531
52708SOL     OW64728   1.907   2.514   5.849  0.7230 -0.3283 -0.1522
52708SOL    HW164729   1.889   2.493   5.941  1.9605  0.7488  0.3724
52708SOL    HW264730   1.879   2.605   5.840 -0.1884 -0.6809 -1.1025
52709SOL     OW64731   1.859   6.295  10.548  0.1142 -0.1614 -0.5833
52709SOL    HW164732   1.772   6.328  10.572 -0.5450 -2.2003  0.0181
52709SOL    HW264733   1.919   6.338  10.609 -0.8164 -0.7161  0.7662
52710SOL     OW64734   9.695   5.041   1.780 -0.3415 -0.0016  0.0716
52710SOL    HW164735   9.718   5.058   1.688 -1.0578  1.5500  0.1456
52710SOL    HW264736   9.601   5.029   1.779 -0.1279 -1.9658  0.3701
52711SOL     OW64737  12.430   5.981   5.184 -0.2417  0.3162  0.5316
52711SOL    HW164738  12.502   5.930   5.146 -0.2620  0.7468 -0.0873
52711SOL    HW264739  12.373   5.915   5.223 -1.2366 -0.3441 -1.8596
52712SOL     OW64740  10.691   1.071   1.245 -0.0989  0.4056  0.1994
52712SOL    HW164741  10.645   1.017   1.180 -3.4542  1.4462  1.4904
52712SOL    HW264742  10.721   1.147   1.196 -0.2280 -0.0468 -0.6053
52713SOL     OW64743   7.394  12.697  12.191 -0.1893 -0.0618 -0.3412
52713SOL    HW164744   7.328  12.735  12.249  0.2688 -0.7887  0.6724
52713SOL    HW264745   7.468  12.678  12.247  0.3925 -0.4800 -1.2297
52714SOL     OW64746   5.185  10.759   1.803  0.3620  0.1268 -0.3746
52714SOL    HW164747   5.211  10.667   1.808 -1.6082 -0.4592 -0.0540
52714SOL    HW264748   5.092  10.756   1.779 -1.2109  1.8318  4.4967
52715SOL     OW64749   9.770   8.708   4.343 -0.3143 -0.6598 -0.2654
52715SOL    HW164750   9.817   8.767   4.283 -0.9617 -1.5483 -1.7118
52715SOL    HW264751   9.702   8.763   4.381 -0.1793 -0.1765 -0.7016
52716SOL     OW64752   1.673   5.749   0.702  0.7425  0.5672  0.2596
52716SOL    HW164753   1.584   5.734   0.733  1.3432 -0.7671  1.4983
52716SOL    HW264754   1.676   5.706   0.616 -0.3080  2.2943 -0.6829
52717SOL     OW64755   3.828  12.361   8.986  0.5857 -0.5686  0.1996
52717SOL    HW164756   3.847  12.415   8.910 -0.5141 -1.1501 -0.5224
52717SOL    HW264757   3.877  12.280   8.971  0.6284 -0.5558  0.2709
52718SOL     OW64758   5.438   8.620  11.737 -0.6101 -0.5876 -0.1809
52718SOL    HW164759   5.445   8.554  11.668 -2.4750  0.1012 -1.0919
52718SOL    HW264760   5.408   8.571  11.813 -1.5622 -0.8818 -0.7306
52719SOL     OW64761   1.489   6.370  12.044  0.1451 -0.5751  0.1659
52719SOL    HW164762   1.454   6.281  12.041 -0.9130 -0.1591 -0.3854
52719SOL    HW264763   1.418   6.425  12.012  1.2162  0.3352 -0.7722
52720SOL     OW64764  11.287  11.198   1.196 -0.1863  0.2398 -0.6227
52720SOL    HW164765  11.277  11.128   1.261  0.4531  2.3268  1.9112
52720SOL    HW264766  11.201  11.204   1.154 -0.2025 -2.1281 -1.0525
52721SOL     OW64767   5.850   8.405   6.133 -0.4183 -0.4909  0.6601
52721SOL    HW164768   5.863   8.315   6.163  0.1146 -0.3109  0.9851
52721SOL    HW264769   5.938   8.435   6.109 -0.6680 -0.2279  0.0543
52722SOL     OW64770  10.088   7.619   8.225  0.2953  0.0446 -0.3719
52722SOL    HW164771  10.071   7.591   8.136 -1.2580  0.3641 -0.1966
52722SOL    HW264772  10.174   7.661   8.221  0.7143 -0.8714 -1.4906
52723SOL     OW64773   1.013   6.881   4.438  0.6947 -0.4225  0.5609
52723SOL    HW164774   0.960   6.849   4.365  1.4429 -0.9713  0.2537
52723SOL    HW264775   1.044   6.967   4.409  0.8097 -0.5432  0.3296
52724SOL     OW64776   7.024  11.345  11.581  0.4877  0.3429 -0.0276
52724SOL    HW164777   7.064  11.282  11.520  0.0289 -0.0846  0.1087
52724SOL    HW264778   7.069  11.331  11.664 -0.5938 -0.8238  0.3872
52725SOL     OW64779   0.220   8.032   4.135 -0.3951 -0.1602 -0.0888
52725SOL    HW164780   0.148   8.046   4.074 -0.7773  0.8143  0.5634
52725SOL    HW264781   0.250   7.942   4.117 -0.9129 -0.1161 -1.2466
52726SOL     OW64782   1.208   3.874   5.368  0.0521  0.2760  0.7472
52726SOL    HW164783   1.251   3.861   5.452 -0.1873 -1.3287  0.6445
52726SOL    HW264784   1.278   3.871   5.303 -0.0663 -1.5340  0.6524
52727SOL     OW64785   2.245   6.047   7.380  0.0887 -0.0863  0.8786
52727SOL    HW164786   2.164   6.064   7.428 -1.5064  1.2340 -2.0212
52727SOL    HW264787   2.297   6.126   7.392 -0.1471  0.0901  0.7589
52728SOL     OW64788  10.609   0.257   7.870  0.5685  0.5149 -0.4614
52728SOL    HW164789  10.669   0.319   7.912 -0.4013  0.7721  0.6108
52728SOL    HW264790  10.539   0.312   7.835  0.2698  0.1165 -0.4931
52729SOL     OW64791   3.339   3.161   9.065 -0.0737 -0.1658  0.1636
52729SOL    HW164792   3.426   3.156   9.106 -0.2324  0.9248  0.6686
52729SOL    HW264793   3.352   3.218   8.989 -0.0012 -1.3642 -0.7554
52730SOL     OW64794  12.274  11.996   5.806  0.1999  0.5139  0.0021
52730SOL    HW164795  12.354  11.946   5.819 -0.3406 -0.7610 -1.2488
52730SOL    HW264796  12.238  11.962   5.724  0.2313  3.5445 -1.4200
52731SOL     OW64797   3.315   9.673   5.948  0.2855  0.4279 -0.5582
52731SOL    HW164798   3.344   9.591   5.988  1.3076  1.2162  0.3466
52731SOL    HW264799   3.227   9.686   5.983 -0.2837 -0.7655 -1.4719
52732SOL     OW64800   9.006   4.090   2.590  0.1084 -0.0295 -0.0042
52732SOL    HW164801   9.022   4.074   2.683  4.0821 -1.4564 -0.7479
52732SOL    HW264802   9.030   4.182   2.578 -0.4876  0.1795  0.3870
52733SOL     OW64803   4.285   0.669   9.112 -0.1555 -0.2563 -0.8470
52733SOL    HW164804   4.235   0.642   9.035 -1.0609 -0.4901 -0.2089
52733SOL    HW264805   4.293   0.589   9.164  2.0775 -0.5322 -1.5392
52734SOL     OW64806   8.937   8.111   0.616 -0.1700  0.3536  0.1144
52734SOL    HW164807   8.911   8.019   0.624  0.7229  0.0110 -0.6899
52734SOL    HW264808   8.927   8.131   0.523 -1.0658  1.3031  0.4039
52735SOL     OW64809  11.625  11.509   0.140 -0.4557  0.6425 -0.1741
52735SOL    HW164810  11.676  11.429   0.153 -0.9428  0.0909 -1.4567
52735SOL    HW264811  11.587  11.527   0.226  2.6399  1.6698  1.1190
52736SOL     OW64812   9.041  12.692   9.901  0.2900 -0.5403 -0.2861
52736SOL    HW164813   9.017  12.761   9.963 -1.2605 -0.1896 -1.1938
52736SOL    HW264814   9.135  12.682   9.910  0.4473  1.2304  0.3543
52737SOL     OW64815  12.206   1.935  12.712 -0.0101  0.0966 -0.0243
52737SOL    HW164816  12.228   1.904  12.800 -1.8273 -1.3721 -0.0101
52737SOL    HW264817  12.227   2.028  12.714 -0.8542  0.3348  2.3175
52738SOL     OW64818   6.553  11.088   1.938  0.1136 -0.0613 -0.1359
52738SOL    HW164819   6.527  11.024   2.004  0.5878 -0.8228 -0.6734
52738SOL    HW264820   6.477  11.095   1.880  0.7933 -1.7419 -1.2891
52739SOL     OW64821   9.903   1.628   8.446 -0.1641 -0.0447  0.3159
52739SOL    HW164822   9.941   1.549   8.483 -0.7995 -0.2466  0.5508
52739SOL    HW264823   9.961   1.651   8.374 -0.0533 -0.8060  0.1540
52740SOL     OW64824   5.076   0.024   3.177  0.2624  0.2987  0.1815
52740SOL    HW164825   5.046  -0.049   3.123 -1.4139  1.4802 -0.5658
52740SOL    HW264826   5.125   0.080   3.116  1.8667 -0.3216  0.8296
52741SOL     OW64827   3.301   2.984   0.040  0.4858 -0.3782 -0.3611
52741SOL    HW164828   3.274   2.903  -0.004 -1.7996 -0.8781  1.7286
52741SOL    HW264829   3.382   2.960   0.085  0.9630 -0.8606 -1.4373
52742SOL     OW64830   6.715   8.373   4.797 -0.5252 -0.2115  0.0454
52742SOL    HW164831   6.704   8.406   4.707  0.0832  0.0497  0.0574
52742SOL    HW264832   6.655   8.425   4.849 -0.4753  0.0308 -0.1307
52743SOL     OW64833   5.657   2.875   5.804  0.3328 -0.2350 -0.6177
52743SOL    HW164834   5.689   2.935   5.736 -2.3923  1.5829 -0.4674
52743SOL    HW264835   5.634   2.933   5.877 -2.6210 -1.3519 -0.5287
52744SOL     OW64836   4.862   7.262  12.764 -0.1035 -0.0372  0.1685
52744SOL    HW164837   4.873   7.169  12.744  0.1456  0.3151 -1.5353
52744SOL    HW264838   4.946   7.289  12.801  0.3633 -0.1826 -0.7508
52745SOL     OW64839   0.291   5.942   8.298  0.7136 -0.7838 -0.1970
52745SOL    HW164840   0.322   5.969   8.212  0.8902 -0.1894  0.0480
52745SOL    HW264841   0.269   6.023   8.343 -0.1233 -1.1308  0.0435
52746SOL     OW64842   3.071  11.155   0.012 -0.1665 -0.4328 -0.1164
52746SOL    HW164843   2.976  11.159   0.014 -0.1385  0.8215 -0.4352
52746SOL    HW264844   3.092  11.063   0.028 -1.4670 -0.9858 -1.3846
52747SOL     OW64845  11.948  11.622   1.644 -0.2712 -0.0044  0.4316
52747SOL    HW164846  11.896  11.702   1.640  0.9283  0.7684 -0.4893
52747SOL    HW264847  11.903  11.567   1.709 -1.2111  1.3364  0.9654
52748SOL     OW64848   3.785   0.964   7.010 -0.4099 -0.2706  0.6518
52748SOL    HW164849   3.729   0.960   6.933  0.1852  0.0550  0.1885
52748SOL    HW264850   3.733   1.011   7.076 -0.7497 -0.1378  0.2942
52749SOL     OW64851   4.623   2.254   7.285 -0.1303  0.6496  0.3581
52749SOL    HW164852   4.627   2.300   7.368 -0.8469  2.4296 -0.5324
52749SOL    HW264853   4.536   2.213   7.284  1.0998 -2.2866  1.8547
52750SOL     OW64854   0.810   3.644  10.851 -0.4649 -0.3826 -0.0481
52750SOL    HW164855   0.848   3.569  10.805 -0.7139 -0.5808  0.0646
52750SOL    HW264856   0.878   3.672  10.912  0.1499  0.3483 -1.0459
52751SOL     OW64857   4.474   5.647   3.820 -0.3207  0.5094 -0.9035
52751SOL    HW164858   4.560   5.664   3.856  0.0600  1.8546 -2.3144
52751SOL    HW264859   4.420   5.624   3.895  0.8184  1.5433  0.2792
52752SOL     OW64860   5.727   6.783   8.471  0.1278  0.6644  0.2497
52752SOL    HW164861   5.769   6.763   8.387  0.0014  3.0042 -0.4523
52752SOL    HW264862   5.638   6.808   8.448 -0.0460  0.8696  1.1267
52753SOL     OW64863  12.389   4.126  10.607 -0.0757 -0.3681  0.0945
52753SOL    HW164864  12.421   4.049  10.654 -0.7169 -0.2240  0.7933
52753SOL    HW264865  12.466   4.182  10.598  0.0112 -0.2671  1.2639
52754SOL     OW64866   4.597   5.095  12.738  0.3222 -0.2901  0.2575
52754SOL    HW164867   4.529   5.152  12.775 -0.2883 -0.6667 -0.2537
52754SOL    HW264868   4.677   5.122  12.783  0.7624  3.2519 -2.2159
52755SOL     OW64869   1.893   6.306   6.544  0.4988  0.2725 -0.1892
52755SOL    HW164870   1.969   6.259   6.508  1.9021  1.0046  1.6732
52755SOL    HW264871   1.819   6.272   6.493  2.2868  1.6533 -4.1802
52756SOL     OW64872   5.013   6.695   9.534  0.4460  0.0847  0.0521
52756SOL    HW164873   4.954   6.639   9.484  1.1560 -2.6532  2.0077
52756SOL    HW264874   5.101   6.671   9.504  0.8245 -0.8833  1.7414
52757SOL     OW64875   6.054   8.229  11.045  1.0898  0.0191 -0.2223
52757SOL    HW164876   6.113   8.157  11.067  1.6139 -0.4368 -2.7233
52757SOL    HW264877   5.994   8.191  10.980  0.6065  1.5118 -0.6889
52758SOL     OW64878   5.586   0.969   9.310  0.1708  0.1019  0.0601
52758SOL    HW164879   5.510   1.001   9.359  0.1489  0.7320 -0.3679
52758SOL    HW264880   5.558   0.884   9.275 -0.7641  0.8109 -1.0123
52759SOL     OW64881   1.345   0.080   2.026 -0.3961 -0.0825 -0.3539
52759SOL    HW164882   1.430   0.091   2.068 -1.1405 -0.5019  1.3493
52759SOL    HW264883   1.291   0.037   2.092 -1.8275 -0.1766 -1.5335
52760SOL     OW64884   5.592   6.771   8.046  0.3054 -0.3071  0.5321
52760SOL    HW164885   5.532   6.839   8.016  0.3413 -0.3397  0.3843
52760SOL    HW264886   5.662   6.771   7.981  0.7333  0.0871  0.9831
52761SOL     OW64887   6.215   0.081   0.887  0.5069  0.3932 -0.6832
52761SOL    HW164888   6.170   0.041   0.962 -0.5436 -1.1034 -2.0574
52761SOL    HW264889   6.261   0.156   0.925  2.8224 -2.1754  2.1639
52762SOL     OW64890   0.897   2.293  10.026  0.4592  0.0699  0.5489
52762SOL    HW164891   0.951   2.223  10.063  0.5906 -0.0577  0.1238
52762SOL    HW264892   0.820   2.248   9.991  0.7054  0.0887 -0.0359
52763SOL     OW64893   9.770  10.037   3.374  0.0110 -0.4414  0.1085
52763SOL    HW164894   9.725   9.959   3.342 -2.9617  0.5322  1.5720
52763SOL    HW264895   9.749  10.105   3.310 -1.1001  0.1264  1.0337
52764SOL     OW64896   7.766   6.570   2.286  0.0482 -0.2193 -0.1763
52764SOL    HW164897   7.774   6.665   2.292 -0.9746 -0.1950  1.3586
52764SOL    HW264898   7.828   6.545   2.218  0.9684  1.4581 -0.0059
52765SOL     OW64899   6.519  12.265   9.387  0.0010 -0.0398  1.1004
52765SOL    HW164900   6.478  12.179   9.375 -0.1540  0.0627  0.8918
52765SOL    HW264901   6.447  12.321   9.417 -0.1043  0.2337  0.3667
52766SOL     OW64902   5.252   0.817  12.046  0.5278 -0.1073  0.5841
52766SOL    HW164903   5.269   0.849  12.135 -0.5445  1.3988  0.2863
52766SOL    HW264904   5.252   0.896  11.992  1.2172 -1.0075 -0.7846
52767SOL     OW64905   2.049   6.566  10.225 -0.2019  0.2248 -0.0747
52767SOL    HW164906   2.050   6.472  10.241  2.2975 -0.2508 -2.4014
52767SOL    HW264907   1.981   6.579  10.159 -1.6373  0.3750  1.3490
52768SOL     OW64908   4.285  10.634   9.961  0.3431  0.2285  0.0700
52768SOL    HW164909   4.334  10.690  10.021  0.7794  0.0957 -0.1604
52768SOL    HW264910   4.193  10.648   9.985  0.5301 -0.2132  1.1211
52769SOL     OW64911   0.880  10.081  11.674 -0.2041  0.2859 -0.2228
52769SOL    HW164912   0.957  10.137  11.683  0.1143 -0.2446  0.4096
52769SOL    HW264913   0.904   9.999  11.718 -1.5497  0.5247  1.0310
52770SOL     OW64914   4.755  10.616   8.659 -0.5505  0.2870  0.8129
52770SOL    HW164915   4.821  10.576   8.716 -0.1069  1.4320  1.1239
52770SOL    HW264916   4.696  10.544   8.636 -0.4457 -0.2986  2.2975
52771SOL     OW64917   4.753   2.137   4.533 -0.4623  0.1819  0.3162
52771SOL    HW164918   4.744   2.117   4.626  2.2561 -0.0744  0.6202
52771SOL    HW264919   4.779   2.054   4.493 -1.2202  0.3797 -0.6261
52772SOL     OW64920  11.022  12.285   3.750 -0.1762 -0.0651 -0.0442
52772SOL    HW164921  11.009  12.342   3.826 -0.6288  0.2122 -0.3187
52772SOL    HW264922  10.978  12.203   3.774 -2.9282  0.9668 -1.0781
52773SOL     OW64923  12.237  10.221   2.017  0.2360 -0.0891  0.1213
52773SOL    HW164924  12.181  10.143   2.022 -2.3158  1.5503 -0.7105
52773SOL    HW264925  12.316  10.198   2.067 -0.0344 -3.4478 -0.7571
52774SOL     OW64926   1.814   7.456  11.989  0.5636  0.2152  0.1309
52774SOL    HW164927   1.895   7.470  11.940  0.3302 -0.8249 -0.5850
52774SOL    HW264928   1.790   7.543  12.021  1.4065  0.7062 -0.5237
52775SOL     OW64929   9.889   7.796   6.111  0.6348  0.1007 -0.0461
52775SOL    HW164930   9.861   7.715   6.154 -0.8932  1.2325  1.2182
52775SOL    HW264931   9.857   7.789   6.022  0.5854 -0.7103  0.0310
52776SOL     OW64932  10.681   0.476   1.960  0.1166 -0.2602  0.0842
52776SOL    HW164933  10.710   0.535   1.890 -1.2979 -0.7385 -0.9568
52776SOL    HW264934  10.604   0.518   1.997 -0.9517 -1.4521 -0.7224
52777SOL     OW64935   4.055   8.355  10.568 -0.0166 -0.2982  0.3148
52777SOL    HW164936   4.051   8.306  10.486  1.8446  1.5869 -1.0124
52777SOL    HW264937   3.995   8.428  10.556 -0.6540 -0.6783  1.1374
52778SOL     OW64938   8.559   9.367   1.260 -0.1998 -0.0541 -0.3680
52778SOL    HW164939   8.589   9.457   1.261 -0.1066 -0.0820  0.1806
52778SOL    HW264940   8.636   9.316   1.235 -0.1694 -0.0041 -0.3769
52779SOL     OW64941  11.393   8.642   6.208  0.2371  0.4626  0.2039
52779SOL    HW164942  11.419   8.676   6.123  1.5613 -1.1774 -0.0872
52779SOL    HW264943  11.427   8.706   6.271  1.0533  0.6522 -0.4135
52780SOL     OW64944  10.951   9.979   6.730 -0.0716  0.4095  0.7154
52780SOL    HW164945  10.965   9.933   6.812  1.8885  0.9742  0.7603
52780SOL    HW264946  10.997   9.926   6.664 -1.8835 -0.2036 -0.1032
52781SOL     OW64947   1.668  10.978   6.360 -0.1408  0.3468  0.1362
52781SOL    HW164948   1.604  11.046   6.339 -0.3679  0.4825  1.2121
52781SOL    HW264949   1.621  10.918   6.417 -0.4790 -1.6815 -2.1420
52782SOL     OW64950   4.680   0.963   9.338  0.2009 -0.4738  0.7960
52782SOL    HW164951   4.638   0.896   9.392  0.1892  1.0476  2.8271
52782SOL    HW264952   4.608   1.009   9.296  0.2011 -1.5786 -0.4712
52783SOL     OW64953   5.027   7.917  11.932 -0.0450 -0.2219  0.1067
52783SOL    HW164954   4.979   7.995  11.960  0.0278  1.1632 -3.2140
52783SOL    HW264955   5.115   7.929  11.968 -0.1520  1.0516  0.0100
52784SOL     OW64956  12.315  12.202   3.586  0.0791  0.4524  0.0587
52784SOL    HW164957  12.329  12.154   3.505  1.4872 -0.4465  0.7786
52784SOL    HW264958  12.314  12.134   3.654 -1.3934  1.1508  0.7845
52785SOL     OW64959   0.599   1.074   8.057 -0.8249  0.6090  0.2099
52785SOL    HW164960   0.597   1.059   8.152  0.3146  0.5960  0.2494
52785SOL    HW264961   0.522   1.028   8.024  0.0668 -1.4573  0.8589
52786SOL     OW64962   1.217   0.944   6.195  0.1244 -0.2135  0.2664
52786SOL    HW164963   1.245   0.991   6.274  0.9022  1.1012 -0.7568
52786SOL    HW264964   1.124   0.928   6.209 -0.0804  1.3241  0.8199
52787SOL     OW64965   2.976   0.120   1.588  0.3024  0.4071  0.2466
52787SOL    HW164966   3.024   0.113   1.506 -1.3132  2.3379 -0.9531
52787SOL    HW264967   3.024   0.184   1.640  1.5104 -1.0575  1.0156
52788SOL     OW64968  11.332   2.368   2.965  0.1962 -0.3934  0.0457
52788SOL    HW164969  11.254   2.321   2.936 -0.0510  0.0162  0.0513
52788SOL    HW264970  11.318   2.458   2.937  0.2065 -0.1001  0.9372
52789SOL     OW64971   9.359   8.503   0.399  0.2459 -0.5648  0.5914
52789SOL    HW164972   9.391   8.526   0.486  1.2163  0.0108  0.0927
52789SOL    HW264973   9.371   8.408   0.393  0.9248 -0.4940  0.7897
52790SOL     OW64974   8.235   3.033  12.346  0.1050 -0.4856  0.3281
52790SOL    HW164975   8.168   2.972  12.314 -0.0016 -1.0563  1.5604
52790SOL    HW264976   8.196   3.072  12.424 -0.2451  1.9858 -1.0133
52791SOL     OW64977   4.001   8.657   9.738 -0.0704  0.8148 -0.3834
52791SOL    HW164978   3.949   8.682   9.814 -0.5605  0.7332 -0.6833
52791SOL    HW264979   3.944   8.598   9.688 -0.2967  1.9264 -1.5024
52792SOL     OW64980   5.086   8.426   6.332 -0.7094  0.3210 -0.4638
52792SOL    HW164981   5.031   8.413   6.254  0.4795 -1.4895 -1.0751
52792SOL    HW264982   5.176   8.423   6.298 -0.1823  0.1612  0.8973
52793SOL     OW64983   6.475   2.635  12.184 -0.3101  0.4829 -0.3450
52793SOL    HW164984   6.514   2.663  12.101  0.3381  0.3585 -0.0802
52793SOL    HW264985   6.503   2.701  12.247 -0.3517  0.2745 -0.1089
52794SOL     OW64986   2.635  10.620   3.195  0.5152  0.3089 -0.5106
52794SOL    HW164987   2.592  10.702   3.171 -1.9160 -0.4690  0.8676
52794SOL    HW264988   2.588  10.552   3.148  1.8367 -0.4147 -0.8364
52795SOL     OW64989   4.422   6.623   1.227  0.9530  0.0830 -0.3370
52795SOL    HW164990   4.349   6.602   1.169 -1.0418  1.1270  1.6203
52795SOL    HW264991   4.467   6.696   1.184 -0.2425  0.5926 -0.7626
52796SOL     OW64992   5.300  11.403   2.192  0.2642  0.1624  0.0125
52796SOL    HW164993   5.386  11.362   2.201  0.2828  0.3139  0.5667
52796SOL    HW264994   5.253  11.348   2.130  0.5795 -0.2273  0.1170
52797SOL     OW64995   2.560   7.327  11.878  0.2842  0.7869 -0.4215
52797SOL    HW164996   2.476   7.303  11.840  1.1608 -3.1249 -0.2853
52797SOL    HW264997   2.546   7.322  11.973  0.7986 -0.7160 -0.3979
52798SOL     OW64998   8.004  11.326   0.580  0.1445 -0.1224  0.5254
52798SOL    HW164999   7.991  11.267   0.506 -0.9697  0.1849  0.4656
52798SOL    HW265000   8.018  11.268   0.655 -1.6727 -0.5199  0.6041
52799SOL     OW65001   2.303  11.537   6.264  0.3140  0.1155 -0.3914
52799SOL    HW165002   2.359  11.466   6.234 -0.5614 -1.3210  1.1868
52799SOL    HW265003   2.232  11.493   6.311  0.2320  2.0808  1.4470
52800SOL     OW65004   9.720   9.858   9.696 -0.1367 -0.0040 -0.0040
52800SOL    HW165005   9.743   9.811   9.616 -0.8528  0.2455 -0.3605
52800SOL    HW265006   9.648   9.915   9.671 -2.0310 -1.6528  1.3754
52801SOL     OW65007   5.912   1.037  10.285  0.1391 -0.5346  0.0651
52801SOL    HW165008   6.003   1.054  10.263  1.3943 -2.8739  2.7936
52801SOL    HW265009   5.892   0.953  10.243 -0.5735 -0.3168 -0.0532
52802SOL     OW65010   0.866   7.511   3.547 -0.0440 -0.0007 -0.1689
52802SOL    HW165011   0.933   7.579   3.542 -1.0050  0.9707 -0.4615
52802SOL    HW265012   0.851   7.484   3.456  0.2957 -0.5702 -0.0586
52803SOL     OW65013   4.818   7.517   3.389 -0.2159  0.0002 -0.2249
52803SOL    HW165014   4.835   7.578   3.460 -3.2348 -2.9492  3.4578
52803SOL    HW265015   4.869   7.440   3.411 -1.5350 -1.1358 -0.9863
52804SOL     OW65016   4.587   8.954  12.264 -0.5612 -0.2854  0.3345
52804SOL    HW165017   4.597   9.037  12.311 -1.1601 -0.8952  1.6099
52804SOL    HW265018   4.663   8.950  12.206  0.3633  0.4195  1.4363
52805SOL     OW65019   4.889   7.714   7.088 -0.3941  0.3568  0.0404
52805SOL    HW165020   4.941   7.679   7.015 -2.2317  1.2312 -1.8011
52805SOL    HW265021   4.915   7.806   7.094 -1.3632  0.6929 -0.6196
52806SOL     OW65022   0.547   6.895   4.794  0.5749 -0.1651 -0.0757
52806SOL    HW165023   0.580   6.807   4.774 -1.4854 -1.4515  1.7863
52806SOL    HW265024   0.472   6.907   4.735 -0.3176 -0.4725  0.9764
52807SOL     OW65025  12.546   1.948  11.015  1.1636  0.0546 -0.2270
52807SOL    HW165026  12.526   1.938  10.922  0.1334 -0.5069  0.0394
52807SOL    HW265027  12.558   2.042  11.026 -0.8772  0.4179 -0.5428
52808SOL     OW65028   9.714   8.396   5.762  0.2104  0.0177  0.5578
52808SOL    HW165029   9.733   8.428   5.674 -0.6316  0.8821  0.6734
52808SOL    HW265030   9.769   8.449   5.819  0.5621 -0.3643  0.5789
52809SOL     OW65031   3.004   5.810   9.989 -0.0443 -0.5317 -0.0845
52809SOL    HW165032   2.954   5.888  10.015  0.2928 -0.3099 -0.0885
52809SOL    HW265033   2.947   5.737  10.011 -1.2108 -0.2380 -1.9205
52810SOL     OW65034   0.105  11.860   6.107  0.3272  0.5815  0.5212
52810SOL    HW165035   0.151  11.817   6.035  0.1528 -0.2407  0.8909
52810SOL    HW265036   0.129  11.953   6.099 -0.7914  0.7377 -1.4135
52811SOL     OW65037   9.068   7.404   3.551 -0.2616 -0.1953 -0.1372
52811SOL    HW165038   9.042   7.496   3.551 -0.9597 -0.3760 -0.9186
52811SOL    HW265039   9.157   7.404   3.517  0.4134  0.3385  1.5314
52812SOL     OW65040   7.472   5.258  12.585  0.2149 -0.1487  0.5275
52812SOL    HW165041   7.458   5.353  12.579 -0.2045 -0.2878 -1.0941
52812SOL    HW265042   7.401   5.227  12.641 -0.1260  0.3885  0.4026
52813SOL     OW65043   8.813   1.319   6.440 -0.5823  0.6295 -0.5359
52813SOL    HW165044   8.756   1.304   6.364 -0.9252  0.3478 -0.2265
52813SOL    HW265045   8.884   1.256   6.429 -0.5561  0.6867 -0.6978
52814SOL     OW65046   0.545   2.516   9.586 -0.1674 -0.2820 -0.0490
52814SOL    HW165047   0.462   2.471   9.574  0.5521 -1.0222 -3.3052
52814SOL    HW265048   0.536   2.597   9.536  0.8157 -0.0458  0.1371
52815SOL     OW65049   8.670   0.593   9.103 -0.0935 -0.3460 -0.2985
52815SOL    HW165050   8.692   0.542   9.025  0.0811 -0.3743 -0.2307
52815SOL    HW265051   8.605   0.540   9.149 -0.6721 -0.0332 -0.7500
52816SOL     OW65052  11.726  12.217  11.912 -0.4030  0.2226  0.2817
52816SOL    HW165053  11.815  12.215  11.948 -0.1719 -1.6081 -0.2622
52816SOL    HW265054  11.681  12.143  11.953 -0.9440 -0.2782 -1.1330
52817SOL     OW65055   8.827   2.930   0.160  0.3611 -0.5327  0.3342
52817SOL    HW165056   8.892   2.940   0.090 -0.4374  1.6871 -0.1704
52817SOL    HW265057   8.745   2.913   0.114  0.4464 -2.9351  0.9515
52818SOL     OW65058   0.482   6.523  10.455 -0.5296  0.2887 -0.1828
52818SOL    HW165059   0.470   6.593  10.519 -1.2146  1.2540 -1.3289
52818SOL    HW265060   0.502   6.445  10.508 -0.4818  1.1738  1.1517
52819SOL     OW65061   5.432   9.280   4.947  0.1903  0.2860 -0.0927
52819SOL    HW165062   5.419   9.194   4.909 -1.7001  0.5412 -0.0833
52819SOL    HW265063   5.412   9.341   4.877  0.5558  0.7413  0.1861
52820SOL     OW65064   0.655   1.881  11.718  0.0782 -0.5879 -0.3868
52820SOL    HW165065   0.724   1.872  11.653  1.6546 -1.8206  1.3555
52820SOL    HW265066   0.695   1.929  11.790 -1.7981  1.2674 -0.4697
52821SOL     OW65067   4.224   1.084   7.870  0.0984  0.6255  0.2362
52821SOL    HW165068   4.301   1.137   7.849  0.1845 -0.1233 -1.4009
52821SOL    HW265069   4.169   1.143   7.922  0.6322  1.9973 -0.7049
52822SOL     OW65070  11.572  12.129   4.446  0.4270  0.8103  0.2906
52822SOL    HW165071  11.562  12.201   4.384  1.7794  0.6652 -0.1343
52822SOL    HW265072  11.639  12.073   4.407  0.4772  0.1123  1.3354
52823SOL     OW65073   1.898  10.040  11.014 -0.7204  0.1250  0.2533
52823SOL    HW165074   1.814   9.999  10.994  0.2253 -1.8033  0.0916
52823SOL    HW265075   1.946   9.974  11.063  1.4950  0.4088 -1.3998
52824SOL     OW65076   6.928  12.230   9.310 -0.3579  0.7481  0.1337
52824SOL    HW165077   6.841  12.269   9.318 -1.2015 -0.9694 -0.2503
52824SOL    HW265078   6.939  12.179   9.390  0.5123  1.3172  0.3959
52825SOL     OW65079   6.003   2.208   2.564  0.1611 -0.2977 -0.1108
52825SOL    HW165080   6.046   2.288   2.596  1.2200 -0.9051  0.0303
52825SOL    HW265081   6.038   2.197   2.475 -1.3322  0.3478 -0.8140
52826SOL     OW65082   4.679  10.152   7.722 -0.1424 -0.0113 -0.1947
52826SOL    HW165083   4.622  10.090   7.677 -1.4981  1.0320  0.0299
52826SOL    HW265084   4.619  10.213   7.765  1.1452  0.9189  0.3434
52827SOL     OW65085   7.080   9.424   1.836  0.0197  0.1368  0.4619
52827SOL    HW165086   7.142   9.483   1.881  0.3316 -0.4483  0.8134
52827SOL    HW265087   6.996   9.440   1.880  0.4351 -0.8258  1.6528
52828SOL     OW65088  11.273   2.521   9.034 -0.4474  0.5572 -0.4999
52828SOL    HW165089  11.313   2.487   9.114 -0.6580  0.5805 -0.3832
52828SOL    HW265090  11.187   2.479   9.031  0.7544 -2.0513 -2.4341
52829SOL     OW65091   1.145   7.508   1.531  0.1033 -0.3796  0.4565
52829SOL    HW165092   1.142   7.417   1.505 -1.2135 -0.1700 -0.2051
52829SOL    HW265093   1.066   7.547   1.494 -0.2246  0.6555  2.0937
52830SOL     OW65094   2.962   2.360   6.522  0.5349 -0.3801  0.0566
52830SOL    HW165095   3.025   2.292   6.498  0.1288 -1.5249  2.0623
52830SOL    HW265096   3.016   2.436   6.545  1.1728 -1.1501  1.1650
52831SOL     OW65097   6.555   6.919   9.947 -0.0844 -0.4266 -0.8482
52831SOL    HW165098   6.631   6.971   9.975  0.1690 -1.2809  0.1524
52831SOL    HW265099   6.484   6.946  10.005 -0.3669 -0.1125 -1.3351
52832SOL     OW65100   1.040   8.699   0.093 -0.4208 -0.5863 -0.3546
52832SOL    HW165101   1.091   8.710   0.173 -0.6686 -1.0368 -0.1308
52832SOL    HW265102   0.966   8.759   0.103 -0.4094 -0.5844 -0.2857
52833SOL     OW65103   4.371   8.796   0.862  0.2808 -0.4920  0.0984
52833SOL    HW165104   4.417   8.861   0.809 -0.8339 -1.1668 -1.7746
52833SOL    HW265105   4.352   8.842   0.944  3.0301  0.2365  0.4310
52834SOL     OW65106   5.853   9.992  11.535 -0.4320 -0.1347 -0.3801
52834SOL    HW165107   5.838  10.027  11.447  2.0283 -0.5683 -1.0344
52834SOL    HW265108   5.812   9.905  11.533 -0.1408 -0.2618 -1.2187
52835SOL     OW65109   7.550   9.830   7.023 -0.3964  0.4828 -0.2196
52835SOL    HW165110   7.639   9.831   6.988 -0.0473  0.9289  0.6454
52835SOL    HW265111   7.561   9.818   7.117 -1.1878  1.6137  0.0448
52836SOL     OW65112   5.258   5.350   6.935 -0.0436 -0.1133  0.4263
52836SOL    HW165113   5.211   5.267   6.943  0.0622 -0.2383 -0.1939
52836SOL    HW265114   5.196   5.416   6.966 -1.4877 -0.0138 -2.3558
52837SOL     OW65115  12.701   8.295   9.670 -0.6095 -0.4671 -0.2025
52837SOL    HW165116  12.758   8.358   9.715 -2.3965  0.8586  0.3232
52837SOL    HW265117  12.724   8.303   9.578 -1.2726  1.5669 -0.2542
52838SOL     OW65118   2.596  12.448  10.271  0.0369 -0.9180  0.2690
52838SOL    HW165119   2.648  12.527  10.285 -0.3636 -0.4332 -0.8417
52838SOL    HW265120   2.536  12.471  10.200 -0.7290 -1.9192  0.5623
52839SOL     OW65121   7.008   5.980   5.859  0.9964  0.1190  0.3646
52839SOL    HW165122   6.935   6.028   5.819  0.2264 -0.5212  0.9831
52839SOL    HW265123   7.079   6.045   5.865 -0.1302  1.3034  1.4767
52840SOL     OW65124  11.360   7.349   9.510 -0.2592 -0.1083  0.3792
52840SOL    HW165125  11.443   7.327   9.552  0.8352  1.9931 -0.5373
52840SOL    HW265126  11.350   7.282   9.442  1.2066  0.1582 -0.1390
52841SOL     OW65127   2.776  12.246   6.454 -0.1819 -0.4107 -0.6078
52841SOL    HW165128   2.703  12.282   6.505 -1.1806  0.7012 -2.6858
52841SOL    HW265129   2.737  12.173   6.405  0.7106 -1.3367  0.0325
52842SOL     OW65130   9.249   2.024   1.036  0.2438  0.4336  0.0973
52842SOL    HW165131   9.270   2.114   1.013  2.5299  0.3727  1.6047
52842SOL    HW265132   9.303   2.005   1.113 -1.0683 -1.8490  0.5645
52843SOL     OW65133  11.208   8.236   4.118 -0.0367  0.6593 -0.1021
52843SOL    HW165134  11.125   8.187   4.115 -0.6979  1.6820  0.6418
52843SOL    HW265135  11.273   8.171   4.142 -0.8160  0.0489  0.4276
52844SOL     OW65136   0.580  11.734  10.643  0.1406  0.4121 -0.1644
52844SOL    HW165137   0.627  11.735  10.726  0.7529 -2.4481 -0.3426
52844SOL    HW265138   0.487  11.736  10.667  0.3164 -0.2313  0.6064
52845SOL     OW65139   6.162   7.604  12.079  0.6586 -0.1017  0.2125
52845SOL    HW165140   6.144   7.602  11.985  0.2143 -0.3322  0.3001
52845SOL    HW265141   6.131   7.520  12.111  0.5943  0.0704  0.6068
52846SOL     OW65142   0.063   2.470  10.292  0.6553 -0.1544  0.3046
52846SOL    HW165143   0.127   2.540  10.290  0.1485  0.3482 -2.6928
52846SOL    HW265144   0.106   2.397  10.248 -0.4233 -0.1450 -0.8163
52847SOL     OW65145  12.486   8.455  11.992  0.0463 -0.0936  0.1063
52847SOL    HW165146  12.439   8.498  12.064  0.5221  0.3885  0.1315
52847SOL    HW265147  12.567   8.423  12.031  0.3076  0.1704 -0.2143
52848SOL     OW65148   6.206   8.006  11.118  0.8696  0.1884  0.1010
52848SOL    HW165149   6.175   7.946  11.185  1.4302  0.7668  0.8962
52848SOL    HW265150   6.289   7.967  11.089  0.4738 -0.2303 -0.5025
52849SOL     OW65151   9.008   9.437   4.196  0.2625 -0.1744 -0.0388
52849SOL    HW165152   9.067   9.403   4.262 -0.4198 -0.4143  0.4543
52849SOL    HW265153   8.921   9.407   4.222 -0.1610  0.6417 -0.4387
52850SOL     OW65154   8.634   2.263   2.744 -0.0573  0.0228  0.3767
52850SOL    HW165155   8.706   2.320   2.715  0.4496 -0.9259 -0.2790
52850SOL    HW265156   8.589   2.239   2.663 -0.1166 -0.7021  0.6174
52851SOL     OW65157   7.880   5.398   9.594  0.0908  0.4508  0.4751
52851SOL    HW165158   7.839   5.454   9.528 -1.2013 -1.1638 -0.1550
52851SOL    HW265159   7.935   5.458   9.645 -1.8397  2.4639  0.3628
52852SOL     OW65160   5.277   3.642   8.037 -0.1705 -0.4995  0.1444
52852SOL    HW165161   5.260   3.600   7.953 -0.9696  0.5146 -0.2146
52852SOL    HW265162   5.313   3.572   8.091 -1.3444 -1.6284 -0.4700
52853SOL     OW65163   1.175  12.588  12.703  0.2320  0.2791 -0.2527
52853SOL    HW165164   1.183  12.502  12.662 -1.4248  0.9704 -2.1957
52853SOL    HW265165   1.237  12.643  12.656 -0.7439  0.7731 -1.0075
52854SOL     OW65166  12.086   5.108  10.702  0.2831 -0.0554 -0.0936
52854SOL    HW165167  12.026   5.106  10.627 -1.3852 -0.7369  1.2022
52854SOL    HW265168  12.145   5.034  10.687  1.0200  0.7741 -1.5165
52855SOL     OW65169   7.722   5.720   0.584 -0.6656 -0.0617 -0.5511
52855SOL    HW165170   7.731   5.672   0.502 -2.8057  0.4241 -1.1252
52855SOL    HW265171   7.724   5.812   0.558 -1.8756  0.0930 -0.1585
52856SOL     OW65172   2.219  11.087  12.592  0.1538  0.3153 -0.0656
52856SOL    HW165173   2.127  11.112  12.581  0.0661  0.5715  1.1819
52856SOL    HW265174   2.242  11.115  12.680  0.8370 -1.6047  0.4081
52857SOL     OW65175  12.367   9.410  11.936 -0.0734 -0.4336 -0.0388
52857SOL    HW165176  12.453   9.381  11.967  2.2154  1.6634 -3.6814
52857SOL    HW265177  12.349   9.354  11.860  0.1014  1.6496 -1.6935
52858SOL     OW65178   6.726   4.021   7.588  0.1617  0.2716  0.1992
52858SOL    HW165179   6.675   3.957   7.539  1.5966 -0.6996 -0.0854
52858SOL    HW265180   6.676   4.035   7.669 -0.5456 -0.6315 -0.0675
52859SOL     OW65181   1.318   4.702   4.145 -0.0899  0.1401  0.5518
52859SOL    HW165182   1.394   4.757   4.123  0.1284 -0.5398 -0.4157
52859SOL    HW265183   1.353   4.639   4.209  0.0628  0.0735  0.4039
52860SOL     OW65184   4.890   9.129   1.578 -0.7353  0.1675 -0.2739
52860SOL    HW165185   4.900   9.039   1.547 -2.4563 -1.0694  2.4081
52860SOL    HW265186   4.796   9.144   1.581 -0.4865  2.1076 -0.6645
52861SOL     OW65187  11.928   5.777   2.447 -0.1367  0.1048 -0.0001
52861SOL    HW165188  11.904   5.763   2.356  0.2590 -0.9178  0.0410
52861SOL    HW265189  11.855   5.826   2.485 -0.0221  1.0876 -1.0119
52862SOL     OW65190   3.306  12.570   2.822  0.3091  0.4417 -0.2050
52862SOL    HW165191   3.299  12.497   2.760  0.5282  0.1927  0.0631
52862SOL    HW265192   3.398  12.597   2.816  0.0760  1.1219 -0.7861
52863SOL     OW65193   4.323  12.004  10.820  0.1239  0.0021  0.3345
52863SOL    HW165194   4.329  11.981  10.913 -2.4418  2.9509  1.3936
52863SOL    HW265195   4.364  12.091  10.815  1.2861 -0.6110 -1.5942
52864SOL     OW65196   8.783  10.876   2.377 -0.3045  0.5735 -0.6504
52864SOL    HW165197   8.798  10.925   2.458 -0.9245 -0.4003  0.0880
52864SOL    HW265198   8.870  10.846   2.351 -0.1927  0.1194  0.1838
52865SOL     OW65199   5.499   7.334   7.869  0.2409  0.3325 -0.2279
52865SOL    HW165200   5.452   7.399   7.816  2.0113  1.5907 -0.3771
52865SOL    HW265201   5.565   7.299   7.810  1.1561  0.5126  0.6585
52866SOL     OW65202   5.272   6.522  10.163  0.1425  0.0370 -0.6085
52866SOL    HW165203   5.347   6.465  10.183  1.8337  2.4821  0.6166
52866SOL    HW265204   5.221   6.523  10.244 -1.5774 -1.9929 -1.5920
52867SOL     OW65205   6.406   2.812   7.615  0.1571 -0.2287 -0.4102
52867SOL    HW165206   6.430   2.901   7.588  0.3022 -0.0456  0.2898
52867SOL    HW265207   6.473   2.756   7.575  0.9067  0.1304  0.2903
52868SOL     OW65208  10.996   0.843   7.701 -0.3160 -0.4087  0.5746
52868SOL    HW165209  10.974   0.750   7.712  0.1517 -0.7840 -1.2245
52868SOL    HW265210  11.032   0.848   7.612 -1.6007  1.7479  0.1030
52869SOL     OW65211   1.510  11.504   4.545 -0.7713 -0.0353 -0.3066
52869SOL    HW165212   1.536  11.419   4.510 -1.7649 -0.5929  0.2604
52869SOL    HW265213   1.455  11.541   4.476 -0.4144  0.1134 -0.5144
52870SOL     OW65214   9.441   3.539   3.011 -0.2884 -0.0379  0.3764
52870SOL    HW165215   9.454   3.506   2.922 -0.3106  1.7383 -0.3240
52870SOL    HW265216   9.365   3.490   3.044  1.2381 -2.5226  0.3950
52871SOL     OW65217   1.761   3.846   6.541 -0.3034 -0.2092  0.3225
52871SOL    HW165218   1.750   3.875   6.631  0.8008 -0.7552  0.6585
52871SOL    HW265219   1.847   3.803   6.540 -0.3382 -0.3007 -0.9640
52872SOL     OW65220   0.522   2.330  11.349  0.1745  0.2245 -0.2178
52872SOL    HW165221   0.430   2.335  11.323 -0.0793  1.0309  0.7832
52872SOL    HW265222   0.560   2.265  11.289 -1.1164 -0.3980 -0.4026
52873SOL     OW65223  12.472   8.380  10.638  0.0121 -0.3667  0.4655
52873SOL    HW165224  12.443   8.342  10.720  0.3886  0.5968  1.0688
52873SOL    HW265225  12.395   8.426  10.604 -0.0502 -0.4761  0.4601
52874SOL     OW65226   0.252   3.841  11.772 -0.2215  0.2214  0.3284
52874SOL    HW165227   0.229   3.825  11.863  1.7407  0.4591  0.9041
52874SOL    HW265228   0.234   3.759  11.727  0.8470 -0.6254  1.3928
52875SOL     OW65229   2.817  10.776   0.191 -0.4784 -0.3617  0.2204
52875SOL    HW165230   2.878  10.843   0.222 -1.2122  0.4725 -0.1283
52875SOL    HW265231   2.762  10.757   0.267 -0.7462 -0.0441  0.1020
52876SOL     OW65232   3.706   1.773   1.028  0.5870  0.0726  0.0944
52876SOL    HW165233   3.649   1.830   1.079  0.7610 -0.8796  1.3787
52876SOL    HW265234   3.647   1.724   0.971  0.1312 -0.6579  1.1694
52877SOL     OW65235   9.231   2.700   2.394  0.2211 -0.9177  0.2134
52877SOL    HW165236   9.269   2.712   2.481 -1.2070 -0.9543  0.8624
52877SOL    HW265237   9.211   2.788   2.363 -0.7429 -0.9930  0.6056
52878SOL     OW65238   1.768   0.690   3.481  0.2049  0.7186  0.0274
52878SOL    HW165239   1.699   0.733   3.432 -0.7276 -0.9702 -0.1996
52878SOL    HW265240   1.791   0.753   3.550 -0.4534  1.9352 -0.8301
52879SOL     OW65241   3.145   5.898  11.519 -0.7147 -0.2141 -0.3541
52879SOL    HW165242   3.050   5.905  11.510 -0.5640  0.1996 -1.8544
52879SOL    HW265243   3.163   5.804  11.517 -1.0236 -0.2624 -0.9469
52880SOL     OW65244   2.781   6.143   3.742 -0.4878 -0.2273  0.5110
52880SOL    HW165245   2.783   6.061   3.793  0.1439 -0.2864  0.4062
52880SOL    HW265246   2.688   6.160   3.728 -0.6379 -0.7883  0.7628
52881SOL     OW65247   4.552   4.824   7.319 -0.4120 -0.2478 -0.0601
52881SOL    HW165248   4.558   4.908   7.364  1.1345 -0.3258 -0.0594
52881SOL    HW265249   4.549   4.846   7.226 -0.2574 -0.1801 -0.0490
52882SOL     OW65250   3.319   1.484   5.530 -0.4692 -1.3582  0.1897
52882SOL    HW165251   3.334   1.392   5.550  1.0385 -0.9653  1.0347
52882SOL    HW265252   3.372   1.501   5.452 -1.3155 -1.3725 -0.3924
52883SOL     OW65253   0.566  10.695   6.749  0.5364  0.7519  0.2146
52883SOL    HW165254   0.619  10.723   6.823  0.0098  2.1459  0.0872
52883SOL    HW265255   0.615  10.724   6.672  0.2776  0.7729  0.0565
52884SOL     OW65256   4.067   7.000   7.571 -0.6666 -0.4095 -0.0148
52884SOL    HW165257   4.103   7.074   7.619  1.2277 -1.9587  1.1271
52884SOL    HW265258   4.140   6.968   7.518 -1.3403 -1.6369 -0.2509
52885SOL     OW65259   8.070   7.757   4.766 -0.0617 -0.3954 -0.0309
52885SOL    HW165260   8.090   7.665   4.782  1.2092 -0.1376 -0.1002
52885SOL    HW265261   8.010   7.756   4.691 -2.0292 -1.2863  1.4379
52886SOL     OW65262  11.923  11.977   7.544 -0.0400  0.1444 -0.2176
52886SOL    HW165263  12.009  12.017   7.528  0.6447 -1.1600 -0.0076
52886SOL    HW265264  11.925  11.896   7.493 -1.0972  0.0283 -0.0962
52887SOL     OW65265   8.114  11.045   3.716  0.1875  0.1041  0.1530
52887SOL    HW165266   8.093  10.992   3.639 -1.2480 -1.1158  1.3324
52887SOL    HW265267   8.109  11.135   3.684 -0.0252 -0.3809 -1.2652
52888SOL     OW65268   8.823   4.309  12.726 -0.0638  0.0333 -0.2271
52888SOL    HW165269   8.742   4.361  12.729 -0.9562 -1.3493  1.0667
52888SOL    HW265270   8.842   4.288  12.817  1.6165  0.0875 -0.5388
52889SOL     OW65271  10.240   1.290   3.812  0.0378 -0.1900 -0.3490
52889SOL    HW165272  10.312   1.342   3.847 -0.7224 -0.4783  1.7434
52889SOL    HW265273  10.207   1.240   3.886 -0.7452 -1.9538 -1.8003
52890SOL     OW65274  10.552  11.638  11.689  0.5106  0.0520 -0.0451
52890SOL    HW165275  10.506  11.704  11.637 -0.4095 -1.0945 -0.7378
52890SOL    HW265276  10.639  11.632  11.649  0.6950  0.9811  0.1743
52891SOL     OW65277   3.628  11.335   8.932 -0.4596 -0.2185  0.1288
52891SOL    HW165278   3.661  11.418   8.967  0.1196  0.3732 -1.7123
52891SOL    HW265279   3.602  11.285   9.009 -0.6968  1.6128  1.2892
52892SOL     OW65280   8.578   4.883  10.273  0.2820  0.5281  0.3487
52892SOL    HW165281   8.600   4.974  10.290 -0.4209  0.5297  1.3062
52892SOL    HW265282   8.585   4.840  10.358  0.7307 -0.3447 -0.1113
52893SOL     OW65283   8.108   7.448   2.366 -0.2435  0.4342 -0.4780
52893SOL    HW165284   8.081   7.356   2.380  2.0622 -0.1488  0.5844
52893SOL    HW265285   8.059   7.497   2.432 -1.5378  0.0067 -1.0869
52894SOL     OW65286   4.272   5.123   7.123  0.0248 -0.3982 -0.3819
52894SOL    HW165287   4.248   5.067   7.196 -0.0001 -1.4808 -1.1926
52894SOL    HW265288   4.236   5.209   7.145  0.5948 -0.5362  1.1689
52895SOL     OW65289   0.424   0.906   3.107  0.0857 -0.3219 -0.1224
52895SOL    HW165290   0.451   0.936   3.194 -1.7957 -0.6352  0.6253
52895SOL    HW265291   0.482   0.833   3.087  0.0638 -0.7299  1.2279
52896SOL     OW65292   1.053   5.155   4.883 -0.5926  0.1989 -0.3261
52896SOL    HW165293   1.000   5.221   4.838 -2.9489 -1.2345  0.2028
52896SOL    HW265294   1.020   5.071   4.852  0.6787 -0.7800  0.8302
52897SOL     OW65295   7.427   6.142   0.376 -0.1179  0.3083  0.1108
52897SOL    HW165296   7.403   6.220   0.326  0.4889  0.6133  0.2833
52897SOL    HW265297   7.412   6.166   0.467 -0.9047 -0.1342  0.1120
52898SOL     OW65298   7.473   2.950   4.740 -0.3308  0.5688 -0.6626
52898SOL    HW165299   7.477   2.932   4.834 -0.8025 -1.3042 -0.9599
52898SOL    HW265300   7.563   2.938   4.709 -0.5226 -0.7468 -0.7456
52899SOL     OW65301   1.420  10.617   8.107  0.4871  0.2584  0.2121
52899SOL    HW165302   1.515  10.619   8.118  1.0192 -1.7517 -2.7525
52899SOL    HW265303   1.398  10.704   8.073  1.2273  0.7430  0.9367
52900SOL     OW65304   6.215  12.066   1.889 -0.2417  0.3296 -0.2756
52900SOL    HW165305   6.191  12.152   1.924  1.5074  0.6306  0.3152
52900SOL    HW265306   6.210  12.007   1.964  1.1170  0.4742 -0.0490
52901SOL     OW65307   4.322   1.333  12.044  0.2683 -0.1898 -0.2739
52901SOL    HW165308   4.325   1.422  12.008  2.3695 -0.6532 -1.4260
52901SOL    HW265309   4.379   1.337  12.121 -0.4612 -0.3323  0.2917
52902SOL     OW65310  10.109   8.972   1.830  0.2643  0.0113  0.4945
52902SOL    HW165311  10.052   8.911   1.784 -0.5202 -0.6829  2.2643
52902SOL    HW265312  10.084   9.059   1.797 -0.9570 -0.3843  0.3088
52903SOL     OW65313   3.198   7.538   1.019 -0.5221  0.4171 -0.1380
52903SOL    HW165314   3.208   7.570   1.108 -2.5937  0.4591  0.1273
52903SOL    HW265315   3.249   7.599   0.966 -0.6252  1.4025  0.8512
52904SOL     OW65316   9.950   7.842  10.816 -0.9873 -0.2667  0.8338
52904SOL    HW165317   9.953   7.748  10.797  0.2290 -0.2716  0.9537
52904SOL    HW265318   9.993   7.850  10.902 -0.8134  0.4306  0.6889
52905SOL     OW65319   3.512   9.654   4.352 -0.4551 -0.3998  0.2559
52905SOL    HW165320   3.607   9.652   4.365 -0.3752 -2.0101 -0.3954
52905SOL    HW265321   3.500   9.706   4.273 -0.1227 -0.1936  0.3365
52906SOL     OW65322   5.632   9.431   5.859  0.0044  0.1140 -0.0281
52906SOL    HW165323   5.570   9.384   5.914 -0.0431  1.0404  0.7449
52906SOL    HW265324   5.715   9.425   5.906  0.3206 -0.4427 -0.6560
52907SOL     OW65325   2.034   0.569   4.432 -0.2781 -0.1433  0.2204
52907SOL    HW165326   2.090   0.543   4.505 -0.0337  0.3979  0.2347
52907SOL    HW265327   2.036   0.665   4.433  0.6032 -0.1167 -1.1420
52908SOL     OW65328   2.100  10.399  10.222  0.1946 -0.4141  0.3544
52908SOL    HW165329   2.007  10.407  10.242  0.1871 -1.5586  0.8942
52908SOL    HW265330   2.143  10.409  10.307  0.4602 -1.1588  0.3147
52909SOL     OW65331   3.748   3.274   7.167  0.4282 -0.1066  0.7266
52909SOL    HW165332   3.774   3.363   7.192  1.1014 -0.0144 -0.2379
52909SOL    HW265333   3.779   3.219   7.239 -1.8165  0.6197  2.3695
52910SOL     OW65334   6.404   5.030   9.474 -0.3590  0.2073  0.1380
52910SOL    HW165335   6.453   5.006   9.553 -0.4965  1.2396  0.5436
52910SOL    HW265336   6.471   5.064   9.415 -0.7093  3.4122  1.3761
52911SOL     OW65337   3.131  12.687   8.060 -0.2937  0.2584 -0.4560
52911SOL    HW165338   3.143  12.754   7.992 -1.6068  2.7552  1.5868
52911SOL    HW265339   3.193  12.713   8.129 -0.6791 -0.7655  0.2922
52912SOL     OW65340  10.085   3.495  12.666  0.3822  0.2244  0.1479
52912SOL    HW165341  10.075   3.402  12.648  2.0311 -0.1713  1.0679
52912SOL    HW265342  10.043   3.508  12.751  1.0362  0.0856  0.5035
52913SOL     OW65343   2.125   1.604   4.366 -0.1643  0.0191  0.2535
52913SOL    HW165344   2.033   1.621   4.348 -0.7362 -0.3590  2.4774
52913SOL    HW265345   2.124   1.531   4.429  1.5796  0.7307  1.1682
52914SOL     OW65346  11.496   1.309   2.242  0.0816  0.0786 -0.3693
52914SOL    HW165347  11.512   1.242   2.309 -0.2652 -0.6035 -0.9574
52914SOL    HW265348  11.427   1.364   2.279  0.6690  0.3789  0.3013
52915SOL     OW65349   2.163  12.294   2.263 -0.2036 -0.5165 -0.4837
52915SOL    HW165350   2.191  12.380   2.292 -2.7554  1.2604 -2.7690
52915SOL    HW265351   2.224  12.270   2.193 -1.1043  0.8343 -1.7885
52916SOL     OW65352   9.035  10.206   9.351  0.5398 -0.1944 -0.5750
52916SOL    HW165353   8.977  10.137   9.320 -0.9733  0.5514  0.4728
52916SOL    HW265354   9.112  10.201   9.294  0.0304 -2.0745 -1.1421
52917SOL     OW65355  12.726   4.192   2.665  0.3883 -0.0416 -0.6168
52917SOL    HW165356  12.757   4.194   2.574 -0.2191 -2.4753 -0.9271
52917SOL    HW265357  12.785   4.131   2.709  0.4797  0.8803  0.5975
52918SOL     OW65358   8.535   1.717   1.913 -0.1063 -0.2683 -0.2326
52918SOL    HW165359   8.549   1.709   1.818  2.0080 -0.6748  0.0659
52918SOL    HW265360   8.576   1.638   1.949 -0.7232 -0.0188  1.0497
52919SOL     OW65361   0.113  12.657  10.962  0.2031 -0.1151  0.4393
52919SOL    HW165362   0.183  12.720  10.978  0.1830 -0.4913  2.2162
52919SOL    HW265363   0.150  12.594  10.900  1.6574 -0.6210  1.7623
52920SOL     OW65364  12.208   7.800   5.311 -0.1730  0.3452 -0.5016
52920SOL    HW165365  12.242   7.885   5.338  0.6564 -0.5165  1.2794
52920SOL    HW265366  12.213   7.745   5.389 -0.0618 -1.5521 -1.7661
52921SOL     OW65367   4.761   8.344   5.257 -0.0201  0.0336  0.3329
52921SOL    HW165368   4.767   8.278   5.188  0.2404 -1.1676  1.4490
52921SOL    HW265369   4.823   8.315   5.323  0.2334  1.5216  0.7864
52922SOL     OW65370   1.880   4.927  10.513 -0.4199 -0.3725  1.0717
52922SOL    HW165371   1.813   4.860  10.505  0.1136 -0.8718  0.7312
52922SOL    HW265372   1.963   4.880  10.506  0.0219  0.6150 -2.6619
52923SOL     OW65373   6.650   2.721   7.438  0.1095 -0.3689 -0.6170
52923SOL    HW165374   6.735   2.723   7.484 -0.4025 -0.7963  0.3695
52923SOL    HW265375   6.627   2.814   7.428 -0.8220 -0.2005  2.0672
52924SOL     OW65376  12.147   2.752   6.967 -0.0821  0.2290 -0.1587
52924SOL    HW165377  12.078   2.698   7.004 -0.3207 -0.2764 -1.3003
52924SOL    HW265378  12.126   2.841   6.995 -1.4565  0.1460 -0.8418
52925SOL     OW65379   7.602   1.426   2.591  0.3457 -0.0972 -0.0436
52925SOL    HW165380   7.646   1.454   2.511  0.6123 -0.8221 -0.1620
52925SOL    HW265381   7.634   1.486   2.658 -1.9570  2.3421 -0.9114
52926SOL     OW65382   3.498  11.915   7.179  0.1034  0.4526 -0.5422
52926SOL    HW165383   3.523  11.969   7.253 -1.5401  0.8569 -0.2393
52926SOL    HW265384   3.474  11.978   7.110 -1.3192  0.1541 -0.3588
52927SOL     OW65385   8.954   4.677  10.043  0.6397 -0.3667  0.7154
52927SOL    HW165386   8.985   4.593  10.011 -0.4974 -1.0812  1.3889
52927SOL    HW265387   8.911   4.656  10.126 -0.4434  0.7397  0.4637
52928SOL     OW65388  11.967  11.402   6.650  0.5130  0.3582  0.4310
52928SOL    HW165389  11.895  11.379   6.709  0.2222  1.6268  0.6017
52928SOL    HW265390  12.013  11.474   6.694 -0.2959  2.0177 -1.2768
52929SOL     OW65391   1.486   1.728  11.833 -0.1022 -0.2044  0.0545
52929SOL    HW165392   1.506   1.806  11.781 -1.2331 -0.2435 -0.4651
52929SOL    HW265393   1.493   1.757  11.924 -0.6436  0.5531 -0.1327
52930SOL     OW65394   9.588  11.120   3.641 -0.1237 -0.1059 -0.7094
52930SOL    HW165395   9.627  11.150   3.559 -0.6354  0.7201 -0.6506
52930SOL    HW265396   9.605  11.190   3.703 -2.6720  0.8128 -0.9579
52931SOL     OW65397   7.865   1.472   3.142 -0.0375 -0.2388 -0.2190
52931SOL    HW165398   7.917   1.505   3.215  0.0989 -1.2165  0.1413
52931SOL    HW265399   7.787   1.527   3.141 -0.3060 -0.5568  1.0207
52932SOL     OW65400  11.441   9.611  10.541 -0.1432  0.2535  0.1211
52932SOL    HW165401  11.398   9.534  10.504  1.0274 -0.3621  0.0014
52932SOL    HW265402  11.411   9.683  10.487 -0.8434 -0.1911 -0.1009
52933SOL     OW65403   3.925   3.512  11.211  0.0227  0.0302 -0.0933
52933SOL    HW165404   3.936   3.594  11.259  0.4724 -0.2029  0.2012
52933SOL    HW265405   3.832   3.491  11.220  0.4377 -1.0375  2.3455
52934SOL     OW65406   9.716   7.685   9.353 -0.0210 -0.1665 -0.5750
52934SOL    HW165407   9.767   7.685   9.435  1.0234  1.8026 -1.1835
52934SOL    HW265408   9.781   7.697   9.284 -0.9454 -1.3328 -1.7043
52935SOL     OW65409   1.433   5.138   7.564  0.1775  0.1440  0.2759
52935SOL    HW165410   1.447   5.076   7.636 -1.6187 -0.6336  0.0137
52935SOL    HW265411   1.377   5.206   7.602  0.7961  0.7626  0.1082
52936SOL     OW65412   4.403   0.471   2.253 -0.6204  0.0587 -0.4066
52936SOL    HW165413   4.311   0.447   2.247 -0.6613 -0.5796  1.8707
52936SOL    HW265414   4.411   0.549   2.199 -2.3078 -0.3048 -1.2617
52937SOL     OW65415   6.013   5.869   3.388  0.1792 -0.5211 -0.0577
52937SOL    HW165416   6.085   5.916   3.346 -1.5153  1.0924 -1.3451
52937SOL    HW265417   6.007   5.786   3.340 -0.2464  0.3167 -1.5085
52938SOL     OW65418   7.816   9.958   9.906 -0.1691 -0.0362 -0.3546
52938SOL    HW165419   7.906   9.987   9.916 -0.6621  1.3291  0.3095
52938SOL    HW265420   7.817   9.906   9.825  0.8903  1.3635 -1.3025
52939SOL     OW65421  11.155  12.268   0.676 -0.0925  0.1338 -0.3872
52939SOL    HW165422  11.227  12.291   0.734 -1.3107  0.6992  0.9484
52939SOL    HW265423  11.122  12.352   0.644 -0.4954 -0.0954 -0.5777
52940SOL     OW65424   2.328   0.912   5.331  0.0386 -0.2695 -0.0297
52940SOL    HW165425   2.294   0.886   5.417  0.3724  0.9198  0.4755
52940SOL    HW265426   2.422   0.896   5.336 -0.0074 -0.6653 -0.3572
52941SOL     OW65427   1.951   0.777   5.997 -0.6662  0.3657 -0.6576
52941SOL    HW165428   1.924   0.866   5.974  0.3484  0.9218  0.2293
52941SOL    HW265429   2.029   0.789   6.051 -0.3724 -1.0770 -0.7321
52942SOL     OW65430  12.756   0.844   6.239  0.1564 -0.1061  0.3048
52942SOL    HW165431  12.775   0.752   6.257 -0.5494  0.0334  1.9391
52942SOL    HW265432  12.781   0.856   6.147  3.6870 -0.9997  1.0160
52943SOL     OW65433   2.234   3.060   1.224 -0.1389 -0.1219 -0.3002
52943SOL    HW165434   2.142   3.035   1.232 -0.0243 -1.0290 -1.5447
52943SOL    HW265435   2.231   3.151   1.194 -0.5880  0.4454  1.3541
52944SOL     OW65436   8.575   9.911  11.957 -0.2357 -0.1215  0.0124
52944SOL    HW165437   8.512   9.859  11.907  1.5891 -1.3073 -1.2009
52944SOL    HW265438   8.568   9.878  12.046 -2.0749  0.5534  0.1433
52945SOL     OW65439   6.751   9.613  11.232  0.1636 -0.5176 -0.3276
52945SOL    HW165440   6.747   9.670  11.309  3.3940  0.0251 -0.4176
52945SOL    HW265441   6.794   9.533  11.263 -1.7117 -1.8169 -0.8648
52946SOL     OW65442   7.554   1.604  10.968 -0.2873 -0.2875  0.3381
52946SOL    HW165443   7.519   1.526  10.925  0.6046 -0.3605 -0.2857
52946SOL    HW265444   7.520   1.677  10.917  0.8916 -0.3792 -0.6342
52947SOL     OW65445   9.291   8.471   8.329  0.2442 -0.8999 -0.1713
52947SOL    HW165446   9.294   8.517   8.245  1.7051 -0.2166  0.2305
52947SOL    HW265447   9.370   8.418   8.330  0.7289 -0.1935  1.1549
52948SOL     OW65448   7.789   1.907   1.272  0.4738 -0.4793  0.1203
52948SOL    HW165449   7.748   1.828   1.237  2.5586 -1.4868 -0.2545
52948SOL    HW265450   7.875   1.877   1.303  0.9810  1.4908  0.7622
52949SOL     OW65451   7.958   0.690   8.324  0.6089 -0.3551  0.2974
52949SOL    HW165452   7.998   0.613   8.365 -1.2537 -0.8135  1.4002
52949SOL    HW265453   8.021   0.718   8.258  1.7983 -2.2166  0.5710
52950SOL     OW65454   7.995   8.959   9.909 -0.0303  0.3593  0.0865
52950SOL    HW165455   7.967   8.899   9.979  0.4684  1.0814  0.9147
52950SOL    HW265456   7.915   9.005   9.884 -0.4906 -0.8593 -0.7853
52951SOL     OW65457  10.005   0.656   5.836 -0.0713  0.1690  0.4071
52951SOL    HW165458  10.011   0.684   5.927 -1.2410  0.3334  0.4500
52951SOL    HW265459  10.091   0.618   5.816 -0.1249 -0.7549  1.8629
52952SOL     OW65460   6.217   5.952  10.315 -0.3650 -0.1178  0.0732
52952SOL    HW165461   6.124   5.952  10.337 -0.6697  2.3777 -0.8401
52952SOL    HW265462   6.224   5.896  10.239 -1.9567  2.6751 -2.3627
52953SOL     OW65463  11.198   3.295   0.077  0.4691  0.4496  0.1787
52953SOL    HW165464  11.117   3.266   0.034  0.9960  0.6700 -1.0067
52953SOL    HW265465  11.169   3.364   0.137 -0.1218  1.2245 -0.9522
52954SOL     OW65466   9.058   7.595  10.786 -0.0629 -0.1869  0.4919
52954SOL    HW165467   8.995   7.660  10.818 -0.6320 -0.3027 -0.3566
52954SOL    HW265468   9.117   7.581  10.860 -1.5189 -0.6952  1.6212
52955SOL     OW65469   1.959   5.999   7.868 -0.7714 -0.5602 -0.1625
52955SOL    HW165470   1.998   5.983   7.955  3.0991  0.0189 -1.5929
52955SOL    HW265471   1.964   5.913   7.825 -0.7523 -0.3904 -0.4940
52956SOL     OW65472   8.233   3.432   2.256 -0.9282 -0.6484 -0.1950
52956SOL    HW165473   8.287   3.495   2.208  0.4005 -2.5537 -1.3610
52956SOL    HW265474   8.205   3.479   2.335  1.4576  0.8058 -0.1272
52957SOL     OW65475   8.232   5.288  11.393 -0.1724 -0.1907 -0.7331
52957SOL    HW165476   8.321   5.271  11.425  0.0653 -0.9097 -1.7357
52957SOL    HW265477   8.240   5.285  11.298 -1.4208 -1.1372 -0.8317
52958SOL     OW65478   9.623  10.234  11.204 -0.1746 -0.0179 -0.4539
52958SOL    HW165479   9.672  10.162  11.242 -0.7518 -0.1385  0.0658
52958SOL    HW265480   9.603  10.205  11.115  1.5082  0.4211 -1.0253
52959SOL     OW65481   8.569   7.156   3.006 -0.4638  0.2053 -0.7481
52959SOL    HW165482   8.568   7.062   2.988  0.8558  0.4910 -2.6060
52959SOL    HW265483   8.648   7.169   3.058 -0.1382  0.3849 -1.2771
52960SOL     OW65484   1.088   7.639   0.387  0.2213 -0.1020  0.2223
52960SOL    HW165485   1.143   7.641   0.466  0.7547  0.2973 -0.1507
52960SOL    HW265486   1.149   7.651   0.315 -0.2786 -0.3529 -0.2493
52961SOL     OW65487   2.510   6.451  12.622 -0.0537  0.6021 -0.4610
52961SOL    HW165488   2.584   6.511  12.634 -0.3479  1.0293 -0.8075
52961SOL    HW265489   2.446   6.500  12.572 -2.0297  1.4424  2.5942
52962SOL     OW65490  12.479  11.423   7.899  0.6345 -0.3914  0.1776
52962SOL    HW165491  12.434  11.413   7.815 -0.6503  1.5074  0.5649
52962SOL    HW265492  12.409  11.424   7.964  1.3385  1.1184  0.9658
52963SOL     OW65493   9.057   1.652   2.923 -0.0988 -0.1185 -0.3195
52963SOL    HW165494   9.078   1.710   2.850 -0.0224 -0.3086 -0.4452
52963SOL    HW265495   9.122   1.674   2.990  0.0982 -0.2511 -0.4677
52964SOL     OW65496  10.312   3.358  10.012  0.6275  0.7473  0.1744
52964SOL    HW165497  10.326   3.382  10.104  0.8652 -0.6133  0.5168
52964SOL    HW265498  10.242   3.293  10.015  0.5958  0.7460 -0.6111
52965SOL     OW65499   8.127   9.407   8.864 -0.0791 -0.6167  0.0368
52965SOL    HW165500   8.048   9.447   8.899 -0.4485 -1.4489  0.1851
52965SOL    HW265501   8.100   9.368   8.781  0.1687 -0.8994  0.0855
52966SOL     OW65502   8.967  11.000   0.438 -0.2133  0.0381  0.1383
52966SOL    HW165503   9.041  11.061   0.439 -0.5213  0.4618  1.9732
52966SOL    HW265504   8.902  11.041   0.381  0.6326  0.0632 -0.8284
52967SOL     OW65505   4.478   9.526   7.387  0.6642 -0.2157  0.8129
52967SOL    HW165506   4.438   9.485   7.310 -0.5868 -0.0343  1.3408
52967SOL    HW265507   4.553   9.471   7.407  1.5591  0.2471 -1.0728
52968SOL     OW65508   6.835  10.938   0.270 -0.4006  0.3080  0.1254
52968SOL    HW165509   6.920  10.954   0.231  0.0471  0.5044  1.1529
52968SOL    HW265510   6.784  10.895   0.201  0.9759 -1.1201 -0.0524
52969SOL     OW65511   0.746   5.018   6.722 -0.2526 -0.1920 -0.1572
52969SOL    HW165512   0.809   4.956   6.687  0.0634  0.4658 -0.7680
52969SOL    HW265513   0.661   4.977   6.707 -0.0755 -0.2406 -1.0362
52970SOL     OW65514  11.406   0.706  10.301 -0.0300  0.1522  0.2006
52970SOL    HW165515  11.442   0.792  10.323 -1.2329  0.4936  0.9470
52970SOL    HW265516  11.318   0.707  10.339 -0.2766 -1.1953 -0.2900
52971SOL     OW65517  12.359   3.624   0.415  0.2191 -0.2874 -0.3181
52971SOL    HW165518  12.335   3.543   0.460  0.4872  0.2344  0.7995
52971SOL    HW265519  12.381   3.597   0.326 -0.3713 -1.3421 -0.1518
52972SOL     OW65520   6.527   1.438  10.636  0.2371  0.3890 -0.0751
52972SOL    HW165521   6.487   1.352  10.645 -0.3833  0.5715 -0.9098
52972SOL    HW265522   6.613   1.429  10.676 -1.3718  0.5776  3.9930
52973SOL     OW65523   0.577   6.309   7.909  0.2516 -0.4570  0.4054
52973SOL    HW165524   0.523   6.236   7.939 -0.9419 -0.0726 -0.7155
52973SOL    HW265525   0.562   6.313   7.814 -0.2696  1.6462  0.5142
52974SOL     OW65526   8.148   3.594   9.244 -0.0582 -1.3511 -0.0026
52974SOL    HW165527   8.110   3.624   9.327  0.0714 -0.3485 -0.2902
52974SOL    HW265528   8.078   3.604   9.180 -0.1371 -2.0586 -0.0283
52975SOL     OW65529   3.968   9.281   1.282 -0.2114 -0.2142 -0.0535
52975SOL    HW165530   3.949   9.361   1.233  0.6896 -1.1143 -2.0234
52975SOL    HW265531   3.903   9.218   1.252 -0.5407 -0.4049  1.0203
52976SOL     OW65532   5.376   9.601   4.068 -0.0531  0.4491  0.5143
52976SOL    HW165533   5.314   9.625   3.999 -0.2255 -0.7804  0.2262
52976SOL    HW265534   5.448   9.663   4.058  0.9165 -0.9568 -2.1359
52977SOL     OW65535   3.548   5.468   8.387 -0.2485 -0.2524 -0.5331
52977SOL    HW165536   3.598   5.387   8.376 -0.5894 -0.5716  0.1639
52977SOL    HW265537   3.613   5.537   8.395  0.1669 -0.8116  1.6256
52978SOL     OW65538   3.679   0.319   8.307  0.4969  0.3147  0.1529
52978SOL    HW165539   3.757   0.316   8.250  1.2387 -0.9643  1.1816
52978SOL    HW265540   3.623   0.248   8.275  0.4084  0.3149  0.3086
52979SOL     OW65541   7.453   1.779   3.059 -0.3170  0.0268  0.2274
52979SOL    HW165542   7.485   1.788   2.969 -2.3870 -1.7963 -0.8024
52979SOL    HW265543   7.384   1.846   3.066 -0.0753  0.2491  0.5168
52980SOL     OW65544   7.123  10.419   2.978  0.2310 -0.4757  0.1210
52980SOL    HW165545   7.196  10.481   2.991  0.1240 -0.6404  1.7518
52980SOL    HW265546   7.164  10.344   2.935  0.7351  0.0176 -0.2789
52981SOL     OW65547   8.874   4.963  10.105 -0.4570  0.0737  0.0566
52981SOL    HW165548   8.827   4.999  10.029 -0.7761  0.1041  0.2678
52981SOL    HW265549   8.922   4.888  10.069  1.0577  1.3016 -0.6071
52982SOL     OW65550   8.941   2.271   8.055 -0.1288  0.5269 -0.8117
52982SOL    HW165551   8.901   2.260   7.969 -1.1742  2.5940 -0.6632
52982SOL    HW265552   8.945   2.366   8.067  0.5333  0.2951  1.1835
52983SOL     OW65553   6.057   6.851   0.016 -0.0501  0.3567  0.3380
52983SOL    HW165554   6.091   6.940   0.014 -0.0777  0.4614 -3.5027
52983SOL    HW265555   5.962   6.861   0.019 -0.0430  0.4436  0.2513
52984SOL     OW65556   6.561   2.154  10.490  0.1557 -0.3913 -0.0230
52984SOL    HW165557   6.548   2.080  10.549 -1.6704  0.6627  0.9818
52984SOL    HW265558   6.559   2.115  10.403  0.4688 -1.6671  0.5077
52985SOL     OW65559   4.699   7.275   6.469 -0.6846  0.5738 -0.6106
52985SOL    HW165560   4.654   7.290   6.386 -1.4459 -1.9367 -0.7226
52985SOL    HW265561   4.656   7.198   6.506  1.3355  0.0872  0.9071
52986SOL     OW65562   6.067   3.197  12.155  0.1414 -0.5163 -0.3435
52986SOL    HW165563   6.159   3.171  12.159  0.0800 -0.7428 -0.4178
52986SOL    HW265564   6.047   3.201  12.062  0.3835  0.6220 -0.3666
52987SOL     OW65565   8.906   8.378   0.986 -0.0099  0.1089  0.2004
52987SOL    HW165566   8.883   8.439   1.056  0.4344  1.8630 -1.1346
52987SOL    HW265567   8.955   8.430   0.923  1.6533 -1.9655 -0.3247
52988SOL     OW65568   1.354   8.594   7.761 -0.0638 -0.3556 -0.0010
52988SOL    HW165569   1.325   8.610   7.851 -2.1150 -0.2404 -0.6265
52988SOL    HW265570   1.448   8.579   7.768  0.2347  1.8031  1.9099
52989SOL     OW65571   6.628   3.656  11.946  0.3310 -0.5266  0.2334
52989SOL    HW165572   6.573   3.680  11.871 -1.3971 -1.7967  1.0274
52989SOL    HW265573   6.692   3.595  11.911 -1.6506 -2.6266  0.0633
52990SOL     OW65574   7.594   0.243   8.337  0.4818 -0.1702  0.4241
52990SOL    HW165575   7.530   0.238   8.266  0.8002  1.4758 -0.0259
52990SOL    HW265576   7.567   0.319   8.389  1.6213  0.1123  0.6449
52991SOL     OW65577   4.928  10.470  11.048  0.2911 -0.1576 -0.0884
52991SOL    HW165578   5.005  10.510  11.088  0.2103  2.6954 -2.4388
52991SOL    HW265579   4.960  10.435  10.965 -0.6304 -0.4845 -0.3117
52992SOL     OW65580  11.165   6.294   0.479  0.7908  0.0437  0.0876
52992SOL    HW165581  11.220   6.307   0.401  0.7703 -1.6689 -0.2525
52992SOL    HW265582  11.115   6.214   0.459 -0.9546  0.8925  0.8885
52993SOL     OW65583   9.004   2.942   2.391  0.4093  0.4549  0.0859
52993SOL    HW165584   9.085   2.992   2.398  0.9214 -0.1633 -1.1381
52993SOL    HW265585   8.993   2.927   2.297 -0.4132 -0.5982  0.3287
52994SOL     OW65586   4.205   2.750   1.291  0.7741 -0.2136 -0.6896
52994SOL    HW165587   4.204   2.831   1.343 -0.0710 -0.6369 -0.0154
52994SOL    HW265588   4.254   2.772   1.212 -0.5308  1.3221 -1.1095
52995SOL     OW65589   2.608   9.540   7.285 -0.0209  0.2045  0.5011
52995SOL    HW165590   2.644   9.549   7.373 -0.3445 -0.6873  0.7421
52995SOL    HW265591   2.534   9.480   7.297 -0.2139  0.2733 -0.3385
52996SOL     OW65592  11.443   1.376   6.294 -0.6754  0.4759  0.2396
52996SOL    HW165593  11.453   1.306   6.230 -0.0278  1.3818 -0.6798
52996SOL    HW265594  11.413   1.451   6.242 -0.0031  1.2639  0.9754
52997SOL     OW65595   4.054   3.135   1.842  0.2431 -0.0732 -0.3885
52997SOL    HW165596   4.015   3.094   1.765  0.9066 -0.7749 -0.3645
52997SOL    HW265597   4.021   3.225   1.841  1.2194  0.3229 -2.2206
52998SOL     OW65598   8.812   3.036   4.702  1.0322  0.0481 -0.4002
52998SOL    HW165599   8.870   3.003   4.771  0.9129  1.4556  0.4064
52998SOL    HW265600   8.731   3.056   4.747  0.1685 -1.0946 -1.3765
52999SOL     OW65601   5.627   4.495  11.446 -0.5902 -0.3406 -0.3525
52999SOL    HW165602   5.598   4.404  11.455  0.1630 -0.6466 -0.9269
52999SOL    HW265603   5.657   4.502  11.356 -0.7053  0.5086 -0.3354
53000SOL     OW65604   9.611  10.777  12.507  0.6051 -0.0339 -0.2308
53000SOL    HW165605   9.593  10.781  12.601 -0.3505 -0.3777 -0.3975
53000SOL    HW265606   9.569  10.697  12.477  0.9652  0.0339 -0.9507
53001SOL     OW65607   1.994   6.494   8.029  0.3996  0.3589 -0.1179
53001SOL    HW165608   2.061   6.538   7.977  0.0121  2.0185  0.7299
53001SOL    HW265609   1.913   6.542   8.009  0.0248  0.2625  1.0799
53002SOL     OW65610   4.874  10.206   5.460  0.5011 -0.3093  0.1649
53002SOL    HW165611   4.868  10.289   5.414  1.4799  0.1677  0.8635
53002SOL    HW265612   4.901  10.229   5.549 -0.1908 -1.2986  0.6621
53003SOL     OW65613   8.142   4.148   1.918  0.4826  0.2074 -0.4609
53003SOL    HW165614   8.178   4.211   1.981 -0.9144  0.9520 -0.3607
53003SOL    HW265615   8.192   4.163   1.838 -0.4826  2.1750 -0.7395
53004SOL     OW65616   0.069   4.143   2.415 -0.1511  0.2164  0.0624
53004SOL    HW165617   0.032   4.202   2.349 -0.6602  0.7015  0.7700
53004SOL    HW265618   0.160   4.130   2.387 -0.3992  0.2966 -0.8147
53005SOL     OW65619   1.328  12.460   8.481 -0.4232  0.3369  0.1399
53005SOL    HW165620   1.239  12.457   8.447 -0.8112  0.0818  1.1438
53005SOL    HW265621   1.322  12.423   8.569  0.6128  0.6418  0.3588
53006SOL     OW65622   5.434  10.806   9.831 -0.4781 -0.6741  0.2497
53006SOL    HW165623   5.342  10.818   9.851 -0.5138 -0.9251  0.2412
53006SOL    HW265624   5.479  10.878   9.875 -0.2938 -2.3967  3.1054
53007SOL     OW65625   5.857   1.623   9.196  0.1199  0.4442 -0.5732
53007SOL    HW165626   5.830   1.691   9.257 -1.3573  0.2981 -1.0338
53007SOL    HW265627   5.796   1.551   9.212  0.8559 -0.2854 -0.9787
53008SOL     OW65628   6.819   4.398   3.853  0.3603  0.0932 -1.1142
53008SOL    HW165629   6.745   4.412   3.912  0.2407 -1.5238 -0.8325
53008SOL    HW265630   6.786   4.336   3.788  2.1439 -2.8016  0.5102
53009SOL     OW65631   6.247   0.995  10.549 -0.1007 -0.9024  0.4218
53009SOL    HW165632   6.248   0.921  10.609  0.3534 -0.0938  1.4541
53009SOL    HW265633   6.179   1.053  10.583 -0.5620 -0.9023 -0.4627
53010SOL     OW65634   4.549  11.200   3.035 -0.0435 -0.6738 -0.3495
53010SOL    HW165635   4.616  11.255   3.075  0.2908 -0.2886 -1.4219
53010SOL    HW265636   4.469  11.220   3.084  0.1270  0.5771 -0.5580
53011SOL     OW65637   5.473  12.039   5.608 -0.8398 -0.0929 -0.4919
53011SOL    HW165638   5.543  12.101   5.589 -0.4841 -0.5201 -0.5934
53011SOL    HW265639   5.415  12.086   5.668  0.1841 -0.1440  0.5847
53012SOL     OW65640   1.242   5.973   5.733 -0.3682 -0.1058  0.6543
53012SOL    HW165641   1.289   5.890   5.723 -0.5507 -0.3091  1.4054
53012SOL    HW265642   1.311   6.038   5.747 -0.1255  0.1362 -1.3981
53013SOL     OW65643   1.909   6.664   2.382 -0.1241 -0.1271 -0.1598
53013SOL    HW165644   1.857   6.711   2.447 -0.0176  0.7417 -0.6778
53013SOL    HW265645   1.992   6.646   2.426  1.0153  2.8642 -0.8277
53014SOL     OW65646   8.017  10.900   7.128 -0.6729 -0.5072  0.6305
53014SOL    HW165647   8.014  10.860   7.215 -0.4060 -0.3330  0.7206
53014SOL    HW265648   8.100  10.948   7.127 -0.9225 -0.0789  0.4689
53015SOL     OW65649   5.816   2.388  12.321  0.1935 -0.2258  0.2134
53015SOL    HW165650   5.804   2.437  12.240  0.8667 -1.0718 -0.4240
53015SOL    HW265651   5.909   2.365  12.321  0.1610 -0.3633  1.1461
53016SOL     OW65652   6.007   7.889  11.727  0.9686  0.0032 -0.2633
53016SOL    HW165653   6.100   7.865  11.737  1.2485  0.3508 -1.7841
53016SOL    HW265654   5.996   7.903  11.633 -0.6062  0.1157 -0.0851
53017SOL     OW65655   9.190  10.028   2.302 -0.2250 -0.8633  0.1083
53017SOL    HW165656   9.270   9.976   2.312 -0.7469 -2.1092 -1.7207
53017SOL    HW265657   9.219  10.109   2.261  0.0490 -1.5399 -1.0680
53018SOL     OW65658  11.624  10.921   2.172  0.3690 -0.2011  0.0717
53018SOL    HW165659  11.556  10.986   2.189 -0.3946 -1.0582  0.3721
53018SOL    HW265660  11.706  10.963   2.199 -0.0835  0.7178  0.0144
53019SOL     OW65661   8.125   8.295   3.073 -0.1115 -0.1403 -0.3309
53019SOL    HW165662   8.084   8.255   2.995  1.9942 -0.5264 -1.3063
53019SOL    HW265663   8.125   8.388   3.054  1.2597 -0.3075 -1.2765
53020SOL     OW65664   2.036   5.860   7.027 -0.2644  0.2781  0.1497
53020SOL    HW165665   2.042   5.852   7.123  1.3152  0.4135  0.0945
53020SOL    HW265666   2.029   5.769   6.997  0.6741  0.1297  0.3405
53021SOL     OW65667   6.481  12.652   0.170 -0.0286  0.1735 -0.6460
53021SOL    HW165668   6.534  12.596   0.227 -3.2885 -1.1343  1.4021
53021SOL    HW265669   6.498  12.741   0.200 -1.5267 -0.4670  2.4785
53022SOL     OW65670   1.349   7.566   2.916 -0.0657 -0.3632 -0.0007
53022SOL    HW165671   1.325   7.490   2.970  0.1060 -1.1032 -0.9378
53022SOL    HW265672   1.287   7.634   2.941 -1.9488 -1.6369 -1.0244
53023SOL     OW65673   7.926   2.642  11.308 -0.1333  0.1261 -0.3313
53023SOL    HW165674   8.008   2.687  11.332  0.9846 -1.1793 -1.4961
53023SOL    HW265675   7.911   2.667  11.217 -1.6936  1.2347  0.1861
53024SOL     OW65676   6.886   2.934   9.421  0.0449 -0.0258 -0.3254
53024SOL    HW165677   6.938   3.014   9.427 -1.3364  0.8136  0.7081
53024SOL    HW265678   6.804   2.954   9.466 -0.1837 -2.1438  0.3018
53025SOL     OW65679  10.543   9.766   9.143  0.1791 -0.6395  0.1209
53025SOL    HW165680  10.518   9.834   9.081 -0.5574  0.2871  1.3708
53025SOL    HW265681  10.489   9.690   9.120 -1.5860  0.3386  0.8279
53026SOL     OW65682   9.371   7.167  12.434  0.6939 -0.3419 -0.3195
53026SOL    HW165683   9.337   7.135  12.517 -2.3550  0.7857 -0.9973
53026SOL    HW265684   9.420   7.246  12.457  0.4947 -0.4375  0.4669
53027SOL     OW65685   4.476  10.021   6.861 -0.2632  0.8149 -0.5299
53027SOL    HW165686   4.526  10.100   6.842  0.3753  0.4775 -0.2848
53027SOL    HW265687   4.470   9.976   6.777  1.4220 -0.0289 -0.2495
53028SOL     OW65688  10.012   7.892   6.407  0.3569 -0.3126 -0.1013
53028SOL    HW165689   9.958   7.956   6.453  1.8418  0.1710  1.0349
53028SOL    HW265690   9.968   7.880   6.323  0.5413  2.9969 -0.8087
53029SOL     OW65691  12.733   5.046  10.494  0.5174 -0.4024 -0.7877
53029SOL    HW165692  12.670   5.004  10.435  1.6225 -0.3791 -2.0344
53029SOL    HW265693  12.709   5.016  10.581 -0.3632 -1.4892 -1.3896
53030SOL     OW65694  10.463   9.524   1.434 -0.2305 -0.0343  0.1550
53030SOL    HW165695  10.414   9.513   1.515 -0.5970 -0.9960 -0.1878
53030SOL    HW265696  10.550   9.553   1.463 -0.6760  0.6736  0.8169
53031SOL     OW65697   6.647   9.011   4.474  0.3477 -0.3673  0.3638
53031SOL    HW165698   6.593   9.034   4.549 -0.1572 -1.8192  0.4700
53031SOL    HW265699   6.727   8.975   4.511  0.3342 -0.5682  0.1998
53032SOL     OW65700   3.045   6.104   2.809 -0.1413  0.3685  0.1346
53032SOL    HW165701   3.036   6.101   2.904 -1.1677  3.2308  0.2152
53032SOL    HW265702   3.042   6.197   2.787  2.6808 -0.0015 -2.5056
53033SOL     OW65703   1.390   1.090  11.565  0.4061  0.1727 -0.2724
53033SOL    HW165704   1.438   1.042  11.633  0.1188 -0.1181 -0.2729
53033SOL    HW265705   1.300   1.095  11.599  0.2661  0.0438 -0.6229
53034SOL     OW65706   4.730  11.377   4.188  0.1860 -0.4730 -0.2276
53034SOL    HW165707   4.795  11.415   4.129 -0.5483 -1.0287 -1.4629
53034SOL    HW265708   4.670  11.330   4.129 -0.4073 -1.3189  1.0075
53035SOL     OW65709   2.183   8.779  10.911  0.1377 -0.1193 -0.4561
53035SOL    HW165710   2.149   8.809  10.826  1.6659 -2.4066 -1.9815
53035SOL    HW265711   2.246   8.847  10.936  1.0254 -0.2587 -2.1209
53036SOL     OW65712   4.608  10.796  11.240 -0.5237  0.2067 -0.9952
53036SOL    HW165713   4.532  10.763  11.287  0.0674 -0.5715 -0.5720
53036SOL    HW265714   4.601  10.756  11.153  0.1659 -1.0480 -0.4999
53037SOL     OW65715   1.549   9.928   5.056 -0.3062  0.0857  0.3930
53037SOL    HW165716   1.576   9.888   4.973 -0.6485  1.0830 -0.2294
53037SOL    HW265717   1.528   9.855   5.113  0.6224 -0.6365 -0.1704
53038SOL     OW65718   1.117   8.743   7.255  0.3846 -0.0043 -0.2053
53038SOL    HW165719   1.044   8.773   7.201  0.5870  1.7128  0.4199
53038SOL    HW265720   1.079   8.732   7.342  1.4042  4.0924  0.9514
53039SOL     OW65721   8.534   4.152   8.278 -0.2430  0.4928  0.0559
53039SOL    HW165722   8.594   4.096   8.328 -0.0819  0.0264 -0.6476
53039SOL    HW265723   8.465   4.093   8.248 -1.1920  1.0681  1.0398
53040SOL     OW65724   8.519  10.672   0.751  0.1022  0.7104  0.4378
53040SOL    HW165725   8.526  10.682   0.846 -0.1540 -0.1336  0.5620
53040SOL    HW265726   8.566  10.747   0.715  1.2317  0.4116  1.2218
53041SOL     OW65727  10.337   8.233   6.956 -0.2612  0.2635  0.5245
53041SOL    HW165728  10.315   8.140   6.949 -0.7498  0.3159  1.2763
53041SOL    HW265729  10.264   8.279   6.915 -0.3318  0.3374  0.7299
53042SOL     OW65730   2.978   5.429   4.101 -0.4545  0.2640  0.2972
53042SOL    HW165731   2.933   5.434   4.016 -0.2405 -1.5012  0.0259
53042SOL    HW265732   3.070   5.439   4.080 -0.4625  0.5997  0.4225
53043SOL     OW65733   3.581   4.246   8.367 -0.0887 -0.1581  0.1724
53043SOL    HW165734   3.673   4.247   8.341 -0.2809 -1.9809 -0.7089
53043SOL    HW265735   3.559   4.154   8.377 -1.9262  0.2113  0.0254
53044SOL     OW65736   5.498   3.902   8.560 -0.0752 -0.1308 -0.0674
53044SOL    HW165737   5.474   3.820   8.516  0.6040  0.3241 -1.3518
53044SOL    HW265738   5.503   3.967   8.489  1.5846  0.5128  0.5722
53045SOL     OW65739   3.713   5.022   8.850 -0.4468  0.2093  0.0205
53045SOL    HW165740   3.753   5.087   8.907 -2.6149 -0.1781  2.2006
53045SOL    HW265741   3.623   5.054   8.837 -0.5454 -0.6603 -1.6886
53046SOL     OW65742  11.232   8.626  12.120  0.4648  0.1154 -0.1709
53046SOL    HW165743  11.257   8.549  12.170 -0.8886  0.8880  1.8349
53046SOL    HW265744  11.137   8.632  12.130  0.4256  1.5300 -1.0478
53047SOL     OW65745   0.646   1.696  10.412 -0.2829 -0.3010  0.7625
53047SOL    HW165746   0.694   1.629  10.362  1.6149  2.0169 -0.7746
53047SOL    HW265747   0.554   1.676  10.396  0.2375 -1.8104 -0.7021
53048SOL     OW65748   8.641   7.828   6.636 -0.1211  0.8506  0.2071
53048SOL    HW165749   8.559   7.830   6.588  1.2202 -3.0806 -2.8370
53048SOL    HW265750   8.625   7.770   6.710 -0.4753  1.5198  0.6663
53049SOL     OW65751   9.173   0.272   5.742 -0.0711 -0.4337 -0.3940
53049SOL    HW165752   9.204   0.293   5.831  0.6924 -0.9218 -0.5299
53049SOL    HW265753   9.144   0.356   5.706  0.7370 -0.0192 -0.1022
53050SOL     OW65754   7.077   9.572  10.531 -0.0985  0.1052 -0.3873
53050SOL    HW165755   7.026   9.505  10.486 -0.9268 -0.0105  0.6955
53050SOL    HW265756   7.017   9.645  10.541  0.3222  0.4224 -0.1648
53051SOL     OW65757   2.030  12.305   5.427  0.2838 -0.4015 -0.4143
53051SOL    HW165758   2.002  12.331   5.515  0.1923  0.5943 -0.7174
53051SOL    HW265759   2.064  12.217   5.437 -2.2602 -1.4265  0.1204
53052SOL     OW65760   8.820  11.674   0.661 -0.6264  0.2886 -0.1586
53052SOL    HW165761   8.741  11.626   0.637  0.2654 -1.1445 -0.3430
53052SOL    HW265762   8.811  11.759   0.617 -1.7183 -0.1152 -0.7565
53053SOL     OW65763   3.559  12.398  12.382 -0.2143 -0.7198 -0.1270
53053SOL    HW165764   3.623  12.344  12.336  0.9146 -0.0952  0.6404
53053SOL    HW265765   3.587  12.395  12.474 -1.6523 -0.9097  0.3282
53054SOL     OW65766  11.945   9.455  10.168  0.0014 -0.3633 -0.1862
53054SOL    HW165767  11.958   9.549  10.173 -0.7461 -0.3288  2.1142
53054SOL    HW265768  11.869   9.444  10.110 -0.9122  0.5918  0.7832
53055SOL     OW65769   4.725   3.423  10.382  0.0839  0.0147 -0.0586
53055SOL    HW165770   4.721   3.380  10.297  0.0597  0.5941 -0.3544
53055SOL    HW265771   4.801   3.383  10.426 -0.0070 -0.4046 -0.2828
53056SOL     OW65772  11.178   2.890  12.095 -0.2130  0.0521  0.1024
53056SOL    HW165773  11.106   2.936  12.139  0.4167  0.3080  0.9061
53056SOL    HW265774  11.163   2.798  12.115  0.3338  0.1998  1.3254
53057SOL     OW65775  10.044   2.787   7.039  0.2584  0.3428 -0.7620
53057SOL    HW165776   9.987   2.863   7.033 -4.0976 -2.5821 -0.5500
53057SOL    HW265777  10.060   2.776   7.132  0.6028  0.7498 -0.7686
53058SOL     OW65778   6.930   5.554   5.662 -0.1061  0.2424  0.0676
53058SOL    HW165779   6.985   5.607   5.719  0.2195  0.7527 -0.7104
53058SOL    HW265780   6.851   5.539   5.713 -0.2052  1.4683  0.3064
53059SOL     OW65781   5.658   6.165   7.478 -0.0352  0.1537 -0.0757
53059SOL    HW165782   5.572   6.202   7.495  1.1735  2.3328  1.8530
53059SOL    HW265783   5.714   6.240   7.460  1.8532 -1.0198  0.5135
53060SOL     OW65784   4.339  10.535   1.859  0.0826 -0.1081 -0.1718
53060SOL    HW165785   4.393  10.469   1.904 -0.1907 -1.0425 -1.1573
53060SOL    HW265786   4.363  10.526   1.767 -1.6447 -0.4819 -0.6339
53061SOL     OW65787   9.935  12.341   4.865  0.3921 -0.3938 -0.1800
53061SOL    HW165788   9.918  12.431   4.834 -0.6018 -0.3138  0.5273
53061SOL    HW265789   9.926  12.287   4.787 -0.4884 -0.0254 -0.3454
53062SOL     OW65790   4.022   8.909   9.220  0.4383  0.3292  0.3156
53062SOL    HW165791   4.114   8.927   9.205 -0.0190  2.8164  0.0259
53062SOL    HW265792   4.015   8.893   9.314  1.0980  0.6416  0.4234
53063SOL     OW65793   3.055   5.758  10.677  0.0661  0.2291  0.4375
53063SOL    HW165794   2.962   5.780  10.682  0.3514  1.7693 -0.5325
53063SOL    HW265795   3.070   5.734  10.586 -0.1395 -3.9892  1.2863
53064SOL     OW65796   5.000   9.056   3.304  0.0324 -0.4667 -0.1774
53064SOL    HW165797   5.024   9.054   3.211 -0.6163 -0.7910 -0.3419
53064SOL    HW265798   5.084   9.058   3.350  0.3605  0.4950 -0.7855
53065SOL     OW65799   5.073  12.368   6.398 -0.4281 -0.1042  0.2887
53065SOL    HW165800   4.987  12.331   6.378 -0.5866  0.0151  0.7331
53065SOL    HW265801   5.062  12.462   6.381 -0.1365 -0.1966 -0.4702
53066SOL     OW65802  12.389   2.971   3.855 -0.6916 -0.2318  0.7766
53066SOL    HW165803  12.406   2.994   3.764 -0.7308 -2.2626  0.2015
53066SOL    HW265804  12.440   3.034   3.906 -0.4487  0.7649 -0.6392
53067SOL     OW65805   9.235   7.199   3.106  0.7086 -0.4247 -0.2998
53067SOL    HW165806   9.298   7.181   3.036 -0.3140 -1.6589 -0.9457
53067SOL    HW265807   9.165   7.135   3.093  0.2347 -0.3486  1.5628
53068SOL     OW65808  12.401   7.333   5.876 -0.2696  0.1693  0.3887
53068SOL    HW165809  12.430   7.256   5.829  1.0108  1.2030 -0.5685
53068SOL    HW265810  12.310   7.314   5.899 -0.0148 -1.5609  0.1076
53069SOL     OW65811  11.037   3.639   4.772 -0.0034 -0.2677  0.1218
53069SOL    HW165812  11.080   3.554   4.778 -0.0006 -0.2142  0.8818
53069SOL    HW265813  11.103   3.701   4.802 -0.1599 -0.0443 -0.0003
53070SOL     OW65814   5.211   2.737   6.077 -0.1691  0.6528 -0.2916
53070SOL    HW165815   5.282   2.769   6.132  0.4867 -0.9510 -0.1466
53070SOL    HW265816   5.234   2.767   5.989  1.7525 -1.3844 -0.5761
53071SOL     OW65817   7.041   1.118   4.033 -0.2903 -0.4865 -0.0042
53071SOL    HW165818   7.078   1.161   3.956  0.8648 -0.5910  0.4612
53071SOL    HW265819   7.088   1.158   4.107 -0.1513 -1.5797  0.5195
53072SOL     OW65820   0.785   9.331   4.751  0.0659  0.2922  0.2381
53072SOL    HW165821   0.862   9.338   4.695 -0.2214 -1.5805 -0.4714
53072SOL    HW265822   0.713   9.365   4.697  0.0284 -0.1282  0.0209
53073SOL     OW65823   2.382   8.743   7.652 -0.5255  0.1516 -0.7283
53073SOL    HW165824   2.409   8.835   7.654 -0.1977  0.0770 -1.3510
53073SOL    HW265825   2.425   8.707   7.574 -1.3105 -0.3208 -0.9600
53074SOL     OW65826   8.752   8.370   1.330 -0.2145 -0.2737 -0.7343
53074SOL    HW165827   8.830   8.352   1.382 -0.0237 -0.1531 -0.9790
53074SOL    HW265828   8.738   8.464   1.341  1.1313  0.2112 -2.7007
53075SOL     OW65829   9.651  11.382  11.061  0.6274  0.1392 -0.0690
53075SOL    HW165830   9.686  11.417  11.143  0.0112  0.4430  0.0746
53075SOL    HW265831   9.596  11.308  11.087  0.1464  0.4553 -0.1681
53076SOL     OW65832   3.502   9.029   9.308  0.2799  0.2691  0.0722
53076SOL    HW165833   3.439   9.045   9.377 -3.0363 -0.7118 -2.4802
53076SOL    HW265834   3.501   8.935   9.295  2.8692  0.1156  0.3256
53077SOL     OW65835   2.044   6.638   1.843 -0.3802  0.1865 -0.0176
53077SOL    HW165836   2.047   6.560   1.788 -0.6073  0.6954 -0.7709
53077SOL    HW265837   2.003   6.609   1.925 -0.4364 -0.4802 -0.2764
53078SOL     OW65838   1.642   2.897  11.520 -0.0726 -0.0114 -0.3290
53078SOL    HW165839   1.717   2.887  11.461  0.2354 -0.1331  0.0742
53078SOL    HW265840   1.648   2.987  11.552  0.2064 -0.1789  0.1024
53079SOL     OW65841   2.492   5.718  11.427  0.6709 -0.5164 -0.5088
53079SOL    HW165842   2.547   5.708  11.505  0.1269 -1.0048 -0.1783
53079SOL    HW265843   2.503   5.636  11.379  0.2818 -0.5944 -0.4702
53080SOL     OW65844   6.240  10.038   6.259  0.1791  0.2326  0.1487
53080SOL    HW165845   6.332  10.058   6.238  0.1258  0.4044  0.0790
53080SOL    HW265846   6.214  10.108   6.319  0.9960 -1.4212  2.6190
53081SOL     OW65847   6.274  10.988   6.929 -0.1451 -0.2310  0.7572
53081SOL    HW165848   6.344  10.930   6.958  1.9297  2.1134  0.6987
53081SOL    HW265849   6.255  11.043   7.006 -0.5315  0.4430  0.1929
53082SOL     OW65850   1.516   9.003   3.264  0.1726  0.1937  0.2150
53082SOL    HW165851   1.462   9.065   3.314 -0.8276  1.3093 -2.1135
53082SOL    HW265852   1.452   8.949   3.218  1.0283 -2.6569  2.1407
53083SOL     OW65853  10.224  11.289   2.335  0.4741 -0.4290  0.5981
53083SOL    HW165854  10.134  11.321   2.334  0.8335  0.6105  0.3441
53083SOL    HW265855  10.220  11.210   2.388 -0.3445  0.3595  1.7735
53084SOL     OW65856   3.866   3.912   6.032  0.6336  0.2148  0.3115
53084SOL    HW165857   3.844   3.949   6.118  0.7717  0.0371  0.4259
53084SOL    HW265858   3.962   3.920   6.027  0.7542 -0.8090  0.6631
53085SOL     OW65859   2.182   5.281  12.359 -0.2908 -0.3251 -0.1751
53085SOL    HW165860   2.224   5.359  12.395  0.8378 -1.3403  0.8188
53085SOL    HW265861   2.201   5.285  12.265 -0.6433  0.8058 -0.2125
53086SOL     OW65862   4.397   0.395  10.856 -0.7082  0.0175  0.0391
53086SOL    HW165863   4.456   0.463  10.822  0.0358 -0.2877  0.6830
53086SOL    HW265864   4.397   0.409  10.951 -1.3795 -0.2325  0.0782
53087SOL     OW65865  10.874   1.549   8.473  0.4308  0.2095 -0.3024
53087SOL    HW165866  10.938   1.477   8.468 -0.3672 -0.4148 -3.4832
53087SOL    HW265867  10.919   1.624   8.433 -0.6703 -0.2215 -2.5224
53088SOL     OW65868   3.790   3.506  11.661 -0.0076  0.6724 -0.0077
53088SOL    HW165869   3.875   3.545  11.639 -0.0588  0.4861 -0.5344
53088SOL    HW265870   3.752   3.568  11.724 -0.1037  1.5053 -0.8538
53089SOL     OW65871   4.881   5.811   1.089 -0.1772  0.1260 -0.1971
53089SOL    HW165872   4.946   5.750   1.123 -0.2818 -0.1725 -0.5282
53089SOL    HW265873   4.931   5.888   1.062 -0.1495  0.6333  1.1963
53090SOL     OW65874   3.783   3.934   2.549 -0.1455 -0.0829 -0.4128
53090SOL    HW165875   3.856   3.893   2.596 -1.5303 -1.3879  0.7071
53090SOL    HW265876   3.784   4.025   2.577  1.6611  0.1801 -1.2311
53091SOL     OW65877   9.865   4.573   1.091 -0.0625  0.6642  0.4497
53091SOL    HW165878   9.776   4.556   1.061  0.0500  1.1325 -0.1609
53091SOL    HW265879   9.855   4.631   1.166 -0.2318  1.6193 -0.2936
53092SOL     OW65880   4.223   8.028   7.104 -0.2931 -0.1541  0.1156
53092SOL    HW165881   4.244   7.935   7.113 -2.1189 -0.5874  0.1847
53092SOL    HW265882   4.297   8.064   7.054  0.3637 -1.6655 -0.0617
53093SOL     OW65883   8.514   0.280  12.569 -0.0175 -0.7656  0.1426
53093SOL    HW165884   8.549   0.322  12.647 -1.1096  1.2000 -0.3605
53093SOL    HW265885   8.424   0.258  12.592 -1.1777  2.0178 -1.1971
53094SOL     OW65886   8.251   0.610   8.734  0.2654 -0.0480  0.6386
53094SOL    HW165887   8.292   0.642   8.815 -0.9397  0.2375  1.1578
53094SOL    HW265888   8.161   0.588   8.760 -0.0978 -0.0922 -0.5974
53095SOL     OW65889   0.367   5.744   1.117 -0.4711 -0.3211 -0.8116
53095SOL    HW165890   0.413   5.825   1.138  0.8997 -1.2623 -0.0161
53095SOL    HW265891   0.319   5.722   1.196  0.0316 -0.8288 -0.6355
53096SOL     OW65892  10.561   8.335   6.880  0.1840  0.4730 -0.6542
53096SOL    HW165893  10.503   8.269   6.918  0.9116 -0.9376 -1.9370
53096SOL    HW265894  10.511   8.417   6.888 -1.2306 -0.4062 -0.1071
53097SOL     OW65895  11.642   9.702   1.097  0.3651  0.2604  0.3218
53097SOL    HW165896  11.596   9.763   1.156  1.4134  1.9997 -0.5711
53097SOL    HW265897  11.673   9.757   1.026  0.7824 -1.4809 -0.8998
53098SOL     OW65898   2.061   8.541   6.768 -0.1283  0.0222  0.1198
53098SOL    HW165899   1.988   8.484   6.791 -0.6514  0.6399  0.0509
53098SOL    HW265900   2.072   8.528   6.673 -0.0578 -0.1727  0.1543
53099SOL     OW65901  10.846   5.155   0.149 -0.7385 -0.2223 -0.1726
53099SOL    HW165902  10.846   5.209   0.070 -0.8994 -0.8070 -0.5747
53099SOL    HW265903  10.772   5.188   0.200 -1.1707 -0.4189 -0.6636
53100SOL     OW65904   6.345   5.493   5.944 -0.2242 -0.1312 -0.0769
53100SOL    HW165905   6.343   5.585   5.918  2.1397  0.2003  0.6496
53100SOL    HW265906   6.381   5.447   5.869 -0.6012 -0.3490 -0.1286
53101SOL     OW65907  10.677   5.514  10.050 -0.2701  0.3355  0.3534
53101SOL    HW165908  10.596   5.565  10.053  0.7116  2.0483 -0.9015
53101SOL    HW265909  10.743   5.574  10.015  1.3049 -1.3512  0.2551
53102SOL     OW65910  11.927   4.098   3.748 -0.1326  0.0778  0.1719
53102SOL    HW165911  11.833   4.081   3.750 -0.3835  0.9767 -1.7565
53102SOL    HW265912  11.943   4.153   3.825 -0.9326 -1.0513  1.1846
53103SOL     OW65913   4.164   9.553   1.195  0.3994 -0.5409  0.3112
53103SOL    HW165914   4.134   9.480   1.141  0.4092 -1.3438  1.3805
53103SOL    HW265915   4.103   9.624   1.174  0.0845 -1.0000 -0.3681
53104SOL     OW65916   3.709  10.236   7.582 -0.2976 -0.2686 -0.2002
53104SOL    HW165917   3.792  10.273   7.552  1.0089 -1.5197  1.6624
53104SOL    HW265918   3.679  10.297   7.649 -1.0317  0.3050 -1.0345
53105SOL     OW65919   3.492   1.382  11.037 -0.0872 -0.2297 -0.2361
53105SOL    HW165920   3.580   1.386  11.075  0.7207 -0.3623 -1.9766
53105SOL    HW265921   3.464   1.291  11.050  1.0075 -0.8080 -1.6355
53106SOL     OW65922   4.322   1.294  11.654 -0.0602 -0.6062 -0.1211
53106SOL    HW165923   4.323   1.389  11.641 -0.1719 -0.0803  2.9678
53106SOL    HW265924   4.414   1.269  11.656  0.1494  0.0974  2.4640
53107SOL     OW65925   9.258  11.540   9.415  0.0449  0.5643  0.4453
53107SOL    HW165926   9.344  11.570   9.386  0.6011  0.3069  1.7605
53107SOL    HW265927   9.198  11.610   9.389  0.4446  0.2686 -1.4512
53108SOL     OW65928  10.556   4.265   0.114  0.4085  0.0309  0.1494
53108SOL    HW165929  10.585   4.356   0.123  2.3677 -0.5374  0.0951
53108SOL    HW265930  10.495   4.253   0.186  0.7497  1.1628  0.6657
53109SOL     OW65931  12.404   9.073   3.709  0.6321  0.4555  0.3120
53109SOL    HW165932  12.419   8.979   3.705  2.4260  0.6890  0.7138
53109SOL    HW265933  12.432   9.105   3.624 -0.5539  0.5718 -0.0461
53110SOL     OW65934  11.037   4.357  12.266  0.1544 -0.0190  0.1113
53110SOL    HW165935  10.988   4.288  12.311 -0.3620 -0.5390 -1.1858
53110SOL    HW265936  11.117   4.314  12.237 -0.7984 -0.5432 -1.9617
53111SOL     OW65937  11.077   9.840   6.311  0.1947 -0.0097  0.1570
53111SOL    HW165938  11.062   9.783   6.236  0.7788 -0.1061  0.1113
53111SOL    HW265939  11.039   9.924   6.285  0.0414 -0.1516 -0.0860
53112SOL     OW65940   7.222   3.486   1.894 -0.0563  0.9433 -0.1856
53112SOL    HW165941   7.311   3.463   1.923 -0.3450  0.3015  0.2069
53112SOL    HW265942   7.198   3.561   1.948 -0.5033 -0.1010  1.1471
53113SOL     OW65943   1.337   1.017   7.593  0.1077  0.3033  0.2667
53113SOL    HW165944   1.268   1.075   7.625 -0.9408 -0.1832 -1.0225
53113SOL    HW265945   1.394   1.073   7.542 -0.8191  0.2521 -0.8508
53114SOL     OW65946   4.164   4.075   2.918  0.1984 -0.3507  0.3300
53114SOL    HW165947   4.231   4.134   2.952  0.5018 -0.3078 -0.3228
53114SOL    HW265948   4.205   3.989   2.918 -0.5352 -0.7489  2.1119
53115SOL     OW65949  10.614   7.100  12.147  0.3053 -0.1743 -0.2615
53115SOL    HW165950  10.585   7.012  12.172 -0.5867  0.5772  1.5070
53115SOL    HW265951  10.600   7.103  12.052  1.2471 -2.2387 -0.5164
53116SOL     OW65952   9.264   9.183   5.642 -0.3502 -0.2939  0.2355
53116SOL    HW165953   9.326   9.176   5.570  0.3234 -0.6394  0.8339
53116SOL    HW265954   9.194   9.121   5.620 -0.2751 -0.2177 -0.2301
53117SOL     OW65955   7.269   6.524   6.263  0.0729  0.3215 -0.2056
53117SOL    HW165956   7.327   6.571   6.203  2.0192 -3.2198 -1.4490
53117SOL    HW265957   7.204   6.482   6.205 -0.2254 -0.3036  0.5685
53118SOL     OW65958   7.987   0.891   9.220  0.3274  0.8541 -0.5493
53118SOL    HW165959   7.920   0.956   9.197 -0.6484 -0.6515 -2.1357
53118SOL    HW265960   8.045   0.938   9.280 -2.8354  1.8493  2.0380
53119SOL     OW65961  11.182   2.557   6.796 -0.3618 -0.5388  0.2271
53119SOL    HW165962  11.239   2.605   6.735 -0.0436  0.1587  1.0482
53119SOL    HW265963  11.241   2.524   6.863 -0.8081 -0.5792  0.6067
53120SOL     OW65964  10.390  11.059  10.457  0.2489 -0.2497  0.1743
53120SOL    HW165965  10.308  11.044  10.505  1.3138 -0.4768  2.0166
53120SOL    HW265966  10.362  11.084  10.369 -1.7999  0.0340  0.8512
53121SOL     OW65967   2.538  11.282  10.928  0.3485  0.0116  0.3178
53121SOL    HW165968   2.606  11.215  10.923 -0.4223 -0.8244  0.8058
53121SOL    HW265969   2.583  11.363  10.904  1.3437 -0.6361 -0.0966
53122SOL     OW65970   8.472  11.952   9.668 -0.4723 -0.7974 -0.0863
53122SOL    HW165971   8.389  11.910   9.647 -0.3022 -0.5004 -1.5093
53122SOL    HW265972   8.531  11.880   9.689 -1.5161 -0.9206  2.8541
53123SOL     OW65973   9.548   7.477  11.222 -0.2393  0.0296 -0.0952
53123SOL    HW165974   9.475   7.538  11.226  0.3733  0.7257  2.5803
53123SOL    HW265975   9.552   7.438  11.309  0.5556 -2.4940 -1.1714
53124SOL     OW65976   0.033  11.483   1.336  0.7657  0.6523  0.0690
53124SOL    HW165977   0.121  11.504   1.308  0.7732  2.2330  1.1446
53124SOL    HW265978   0.038  11.482   1.432  0.1808 -1.8955  0.1419
53125SOL     OW65979   3.470  10.639   4.579  0.2887 -0.3361 -0.3701
53125SOL    HW165980   3.435  10.727   4.596 -0.6261 -0.5188 -1.2203
53125SOL    HW265981   3.561  10.654   4.555  0.4878  0.2638  0.6629
53126SOL     OW65982   9.521   9.550   2.224  0.6694  0.7233 -0.3765
53126SOL    HW165983   9.594   9.571   2.283  0.3099 -1.3462  0.8875
53126SOL    HW265984   9.443   9.580   2.270  0.4912  0.2357 -0.3524
53127SOL     OW65985   1.179  12.232   0.940 -0.1475 -0.9805  0.1285
53127SOL    HW165986   1.225  12.175   1.002  0.9158 -1.0790 -0.7273
53127SOL    HW265987   1.151  12.173   0.870 -1.1352 -0.8277  0.3780
53128SOL     OW65988  11.287  12.465  11.366  0.3925 -0.2610  0.0487
53128SOL    HW165989  11.201  12.506  11.357 -0.4313 -1.8414  0.3814
53128SOL    HW265990  11.270  12.371  11.353  2.3264 -0.4571 -1.5871
53129SOL     OW65991   4.805  11.568   7.611 -0.3108 -0.2563 -0.7920
53129SOL    HW165992   4.723  11.595   7.570  0.2480 -0.5018 -2.1436
53129SOL    HW265993   4.786  11.481   7.646 -0.5962 -0.3648 -1.2036
53130SOL     OW65994   6.350   5.594   7.692  0.3140  0.0002 -0.4186
53130SOL    HW165995   6.405   5.527   7.732 -1.5554 -1.2500  0.2152
53130SOL    HW265996   6.306   5.549   7.620 -0.9390  0.5392 -0.0167
53131SOL     OW65997   3.929   6.018   6.795 -0.1194  0.1429  0.2139
53131SOL    HW165998   4.022   6.002   6.777 -0.4318 -2.1279  0.3722
53131SOL    HW265999   3.886   5.936   6.771 -1.7556  0.2180  2.6341
53132SOL     OW66000   5.621   2.404   0.422  0.0053 -0.0522  0.2943
53132SOL    HW166001   5.566   2.327   0.406  0.2971 -0.4396  1.0824
53132SOL    HW266002   5.603   2.462   0.349 -0.2410 -0.8665 -0.3061
53133SOL     OW66003   3.562  12.084   2.771 -0.0949  0.2628 -0.0047
53133SOL    HW166004   3.524  12.104   2.685 -0.4083 -1.9392 -0.4359
53133SOL    HW266005   3.656  12.079   2.754 -0.1799 -0.4667 -0.3131
53134SOL     OW66006   4.667   7.806   9.640  0.3265  0.4318  0.5157
53134SOL    HW166007   4.663   7.885   9.585  1.2217 -0.3346 -0.7155
53134SOL    HW266008   4.745   7.819   9.694 -0.1588  0.8738  1.1228
53135SOL     OW66009   3.316   8.562  12.454 -0.6276  0.0919 -0.7890
53135SOL    HW166010   3.232   8.536  12.492 -0.2057  0.0407  0.1237
53135SOL    HW266011   3.358   8.614  12.522  0.6733 -1.0243 -0.6891
53136SOL     OW66012  10.212  10.091   5.568  0.5925  0.0509 -0.0637
53136SOL    HW166013  10.131  10.044   5.548  1.0359 -0.2581 -1.1621
53136SOL    HW266014  10.234  10.063   5.657  0.0437 -0.6463 -0.1349
53137SOL     OW66015   1.430   7.997  11.152  0.2681  0.2562 -0.0874
53137SOL    HW166016   1.398   8.074  11.200  1.4279  0.9644 -0.3894
53137SOL    HW266017   1.354   7.965  11.104 -0.1842  1.3800 -0.1552
53138SOL     OW66018   5.785  12.234   4.588  0.4939 -0.1204  0.1031
53138SOL    HW166019   5.830  12.219   4.671 -0.5641  0.3528  0.7931
53138SOL    HW266020   5.692  12.221   4.609  0.2302 -0.3215 -1.0890
53139SOL     OW66021  12.405   4.455   6.632 -0.1663 -0.3717 -0.2438
53139SOL    HW166022  12.463   4.417   6.697  1.3160  1.8692 -0.1345
53139SOL    HW266023  12.352   4.518   6.681 -0.7186 -0.3831 -0.8150
53140SOL     OW66024   6.273  12.759   5.146 -0.8168 -0.0282  0.3189
53140SOL    HW166025   6.363  12.728   5.149 -0.4388  1.0893  1.1788
53140SOL    HW266026   6.241  12.751   5.235 -0.2787  3.1064  0.8968
53141SOL     OW66027   8.228   6.299  12.268 -0.0908 -0.1166  0.7602
53141SOL    HW166028   8.142   6.330  12.242  0.7173  2.3379  0.7752
53141SOL    HW266029   8.221   6.286  12.363 -0.4604 -0.0747  0.7405
53142SOL     OW66030  10.454   6.986   6.393  0.5300  0.0839  0.0450
53142SOL    HW166031  10.522   6.958   6.332 -1.0315 -1.8081 -0.9108
53142SOL    HW266032  10.500   7.043   6.455  2.4265  1.0799 -2.1143
53143SOL     OW66033   0.749   4.001   8.224  0.5522  0.5476  0.3148
53143SOL    HW166034   0.830   3.966   8.261 -1.1310 -0.8275  3.0404
53143SOL    HW266035   0.713   3.927   8.174 -0.5412  0.0248  1.8249
53144SOL     OW66036   2.162   8.517  11.640  0.1201  0.7538  0.0168
53144SOL    HW166037   2.081   8.493  11.594  1.0795 -0.8148 -0.9489
53144SOL    HW266038   2.212   8.567  11.577  0.1988  1.1592  0.3928
53145SOL     OW66039   7.942   9.487   5.143 -0.1214  0.5685 -0.1893
53145SOL    HW166040   7.944   9.418   5.209  0.3586  1.2919  0.5654
53145SOL    HW266041   7.945   9.440   5.059  0.2483 -0.3229  0.3122
53146SOL     OW66042   2.386   3.363   1.636  0.6301 -0.0580  0.1897
53146SOL    HW166043   2.438   3.441   1.659  1.2743 -0.9438  1.8971
53146SOL    HW266044   2.423   3.334   1.553  3.0750 -0.7619  1.4354
53147SOL     OW66045   8.081   6.989  11.947 -0.2141 -0.1101 -0.3078
53147SOL    HW166046   8.034   7.021  12.023 -0.0519 -1.0202  0.1905
53147SOL    HW266047   8.095   7.066  11.892  0.7370  0.7886  1.1452
53148SOL     OW66048   6.466   9.239   0.196 -0.0353 -0.2244  0.0406
53148SOL    HW166049   6.512   9.246   0.112 -2.6003 -2.6826 -1.7452
53148SOL    HW266050   6.431   9.150   0.196 -1.3666  0.2083  3.0941
53149SOL     OW66051   6.081   4.452   0.624 -0.6389  0.5740 -0.8515
53149SOL    HW166052   5.996   4.451   0.668 -0.4038 -0.7030 -0.3880
53149SOL    HW266053   6.138   4.503   0.681  0.1247 -2.4728  1.3094
53150SOL     OW66054   4.001   2.840  11.502  0.4636  0.4359  1.0579
53150SOL    HW166055   3.922   2.824  11.554 -0.7961 -1.1325 -1.1367
53150SOL    HW266056   4.034   2.753  11.480 -0.7620  0.7623 -2.9753
53151SOL     OW66057   0.558   7.516   3.173 -0.3708  0.1902 -0.0164
53151SOL    HW166058   0.533   7.424   3.180 -0.0948  0.2664  2.9555
53151SOL    HW266059   0.654   7.516   3.176 -0.3845  0.6047  0.5535
53152SOL     OW66060   8.734  11.237   7.239 -0.4909  0.2606 -0.2358
53152SOL    HW166061   8.764  11.195   7.319  1.0569 -0.7609 -1.2984
53152SOL    HW266062   8.647  11.272   7.261 -0.4563 -0.7134  1.6187
53153SOL     OW66063  10.526   6.547   3.541  0.3953 -0.3263 -0.2195
53153SOL    HW166064  10.572   6.599   3.475  0.0841 -0.4751 -0.5590
53153SOL    HW266065  10.571   6.463   3.541  0.3730 -0.3383 -0.2688
53154SOL     OW66066  10.074   4.639  12.666  0.4738 -0.2962 -0.4586
53154SOL    HW166067   9.990   4.603  12.694  0.6122  0.1727  0.5949
53154SOL    HW266068  10.123   4.563  12.633 -0.9617 -0.3429 -2.7413
53155SOL     OW66069   1.402   5.549   6.817 -0.5818 -0.4426  0.2902
53155SOL    HW166070   1.380   5.565   6.908 -0.7797 -1.6187  0.4658
53155SOL    HW266071   1.318   5.528   6.775 -0.6549  1.1419 -0.4128
53156SOL     OW66072   4.982   5.131  11.719  0.3170  0.9104  0.1779
53156SOL    HW166073   4.900   5.134  11.769 -1.3656  1.6877 -2.3989
53156SOL    HW266074   4.954   5.132  11.627  3.1882 -0.9854 -0.8531
53157SOL     OW66075   4.200   1.057   5.969  0.1413  0.8532 -0.5248
53157SOL    HW166076   4.246   1.016   5.895 -0.9298 -1.8215  0.1750
53157SOL    HW266077   4.121   1.094   5.930  0.1381  0.4559 -0.9163
53158SOL     OW66078   6.833   0.237   6.959  0.0560 -0.5830  0.1284
53158SOL    HW166079   6.795   0.260   6.874  1.1887  1.1516  0.0592
53158SOL    HW266080   6.757   0.226   7.016 -0.6686  2.0684 -0.1817
53159SOL     OW66081  10.020   4.459  12.397  0.0671 -0.2557 -0.1573
53159SOL    HW166082  10.057   4.491  12.314  0.4653 -0.8602 -0.2225
53159SOL    HW266083  10.096   4.432  12.448 -0.2644 -1.2799 -0.1858
53160SOL     OW66084   0.819   2.024  11.946 -0.5256 -0.2032  0.3143
53160SOL    HW166085   0.796   1.942  11.989 -1.1984  0.0667  0.4640
53160SOL    HW266086   0.762   2.089  11.985  0.8134  0.5716  1.0471
53161SOL     OW66087   2.166   8.586  11.148 -1.0651 -0.0823 -0.1784
53161SOL    HW166088   2.101   8.627  11.205  0.2992 -0.7512  2.0279
53161SOL    HW266089   2.130   8.499  11.129 -0.0782 -1.2445  2.7079
53162SOL     OW66090  11.730  10.363  11.494  0.4750 -0.3875 -0.0153
53162SOL    HW166091  11.813  10.339  11.452  0.5928 -1.5196  0.8167
53162SOL    HW266092  11.663  10.342  11.428  0.7266 -1.2357 -0.0152
53163SOL     OW66093  11.604   7.832  10.393  0.1005  0.9592  0.5937
53163SOL    HW166094  11.648   7.821  10.309  0.9813  1.8788  0.9158
53163SOL    HW266095  11.520   7.874  10.371  0.6305  1.8509  0.2254
53164SOL     OW66096   8.272   8.936   1.604  0.2945  0.0144 -0.1652
53164SOL    HW166097   8.255   8.942   1.510 -0.7304 -1.2868 -0.0855
53164SOL    HW266098   8.269   8.842   1.623 -2.9210  0.3864  1.7521
53165SOL     OW66099   7.675   9.542   6.647  0.2339  0.2008  0.0397
53165SOL    HW166100   7.598   9.587   6.680  0.5934  0.1952  0.8994
53165SOL    HW266101   7.664   9.451   6.676  0.2237  0.0471 -0.4364
53166SOL     OW66102  12.333   1.358   8.287  0.0184 -0.2483  0.2444
53166SOL    HW166103  12.294   1.347   8.373 -0.6277 -1.8193 -0.2223
53166SOL    HW266104  12.323   1.452   8.268  0.1291  0.1054  1.8348
53167SOL     OW66105   8.645   2.748  12.641  0.4387  0.2123 -0.2303
53167SOL    HW166106   8.682   2.764  12.728  0.4886 -0.8379 -0.0380
53167SOL    HW266107   8.718   2.717  12.588  0.2392  0.0413 -0.4102
53168SOL     OW66108  12.043   9.649  11.373  0.4266 -0.1996  0.6961
53168SOL    HW166109  11.982   9.580  11.350  0.5104  0.3895 -1.4791
53168SOL    HW266110  12.041   9.652  11.469 -2.9180 -0.2017  0.7193
53169SOL     OW66111   9.950  10.197   1.651  0.2565 -0.2388  0.3981
53169SOL    HW166112   9.973  10.225   1.563 -1.6962 -0.0776 -0.1164
53169SOL    HW266113   9.854  10.202   1.653  0.2541 -0.3499  2.4948
53170SOL     OW66114   5.106  12.788  10.649  0.0651 -0.1544 -0.3668
53170SOL    HW166115   5.029  12.742  10.616 -1.2908  1.6737  0.1276
53170SOL    HW266116   5.081  12.818  10.736  0.6808  1.9563 -0.8680
53171SOL     OW66117   5.342   7.518   9.509  0.3807  0.5072 -0.0010
53171SOL    HW166118   5.422   7.518   9.561  0.6614  1.4685 -0.4283
53171SOL    HW266119   5.276   7.556   9.566 -0.1663 -1.6408  0.9023
53172SOL     OW66120   0.866   0.890   9.567  0.2553  0.1041  0.7426
53172SOL    HW166121   0.946   0.844   9.594 -0.2668 -1.3804 -0.0780
53172SOL    HW266122   0.802   0.868   9.635  0.0955 -0.1096  0.5242
53173SOL     OW66123   3.960   3.753   2.927  0.2364  0.6523 -0.4450
53173SOL    HW166124   3.909   3.816   2.977  1.1436  2.2584 -1.4672
53173SOL    HW266125   4.032   3.728   2.986  0.3008  1.1522 -0.3129
53174SOL     OW66126   0.499  10.220   3.831  0.0696  0.0081 -0.2190
53174SOL    HW166127   0.522  10.312   3.830  1.7768 -0.3303  1.5232
53174SOL    HW266128   0.577  10.175   3.799 -0.6525 -0.8655 -0.8164
53175SOL     OW66129   9.608   5.793   4.311 -0.2064 -0.2196 -0.0679
53175SOL    HW166130   9.677   5.838   4.262  1.3454 -3.3724 -1.0089
53175SOL    HW266131   9.644   5.785   4.400 -0.0797 -0.3739 -0.1315
53176SOL     OW66132  11.810  10.527  11.232  0.4796  0.4157  0.5615
53176SOL    HW166133  11.800  10.616  11.198  2.4126  0.7696  0.8074
53176SOL    HW266134  11.840  10.540  11.322  0.8107 -0.4901  0.5816
53177SOL     OW66135   7.786   7.667   8.944  0.5630 -0.2611 -0.4989
53177SOL    HW166136   7.876   7.649   8.972 -0.2861 -2.7238  1.0173
53177SOL    HW266137   7.777   7.622   8.860  0.9994  0.8637 -1.1697
53178SOL     OW66138   2.916   9.026   8.366  0.4808  0.7141 -0.2291
53178SOL    HW166139   2.895   8.938   8.337 -2.1193  1.5029 -1.0130
53178SOL    HW266140   2.943   9.017   8.457 -0.8004 -0.7722  0.0235
53179SOL     OW66141   4.696   8.464   8.722  0.0122  0.2126  0.3843
53179SOL    HW166142   4.792   8.465   8.729  0.0892  1.2872 -0.4450
53179SOL    HW266143   4.676   8.541   8.669 -1.1907 -0.9377 -0.9134
53180SOL     OW66144   1.156   8.726   5.757 -0.5009 -0.6179  0.1231
53180SOL    HW166145   1.088   8.660   5.744 -1.7324  0.4221  0.9650
53180SOL    HW266146   1.122   8.804   5.713  0.2025 -0.1085  0.4699
53181SOL     OW66147   7.340   7.733  12.129 -0.1917 -0.3546  0.1473
53181SOL    HW166148   7.402   7.667  12.098  0.7321 -1.0849  3.1910
53181SOL    HW266149   7.279   7.746  12.056  2.2314 -1.2150 -2.1752
53182SOL     OW66150   4.501   5.685   5.209  0.2780  0.6126  0.4873
53182SOL    HW166151   4.577   5.640   5.246 -0.1649  0.2022  0.9089
53182SOL    HW266152   4.510   5.672   5.114 -1.1369 -2.5942  0.6491
53183SOL     OW66153  12.452   9.897   7.984 -0.3776  0.5001 -0.5499
53183SOL    HW166154  12.417   9.942   7.907  0.6168  1.3553 -0.5185
53183SOL    HW266155  12.540   9.933   7.995  0.6421 -1.7320 -0.7527
53184SOL     OW66156  12.564   3.934   9.238  0.1979 -0.2200 -0.8799
53184SOL    HW166157  12.544   3.880   9.315  0.5086 -0.3377 -0.8826
53184SOL    HW266158  12.481   3.938   9.190  0.5603 -2.0772 -1.7378
53185SOL     OW66159   0.593   7.177   6.454 -0.3750  0.2437  0.1591
53185SOL    HW166160   0.602   7.187   6.549 -1.3576  1.3991  0.1419
53185SOL    HW266161   0.498   7.178   6.439 -0.2069  0.6436 -0.8977
53186SOL     OW66162   7.523   3.234  11.507  0.2117 -0.2014  0.4583
53186SOL    HW166163   7.493   3.149  11.476  0.9682  0.3458 -2.0076
53186SOL    HW266164   7.562   3.276  11.430  2.7302  1.1297  2.2732
53187SOL     OW66165   9.492   7.362  12.588 -0.0035 -0.5334  0.4965
53187SOL    HW166166   9.508   7.322  12.674 -0.8344 -0.8371  0.5093
53187SOL    HW266167   9.429   7.432  12.605 -0.2154 -0.6307  0.1218
53188SOL     OW66168   9.081   4.458   9.939  1.0296 -0.7454 -0.1094
53188SOL    HW166169   9.031   4.440   9.860  0.4339  0.6173 -0.0646
53188SOL    HW266170   9.071   4.379   9.992  0.5060 -1.2320 -0.9217
53189SOL     OW66171  12.718   2.889   4.527 -0.3133 -0.3131 -0.2506
53189SOL    HW166172  12.667   2.965   4.499  0.2728  0.0242 -0.4258
53189SOL    HW266173  12.662   2.814   4.506 -0.3683 -0.0069 -1.3039
53190SOL     OW66174   7.421   6.724  12.041  0.1014 -0.1839 -0.2710
53190SOL    HW166175   7.379   6.655  11.990 -3.5196  0.3246  1.7128
53190SOL    HW266176   7.410   6.804  11.989 -0.6804 -0.1967 -0.1276
53191SOL     OW66177   3.832   4.389   7.665 -0.1366  0.2819  0.3974
53191SOL    HW166178   3.867   4.463   7.616  1.3834 -0.3446  0.4911
53191SOL    HW266179   3.747   4.419   7.697 -0.0826  1.5400 -0.5910
53192SOL     OW66180   9.857   6.202  11.080 -0.0028  0.0301  0.1764
53192SOL    HW166181   9.840   6.247  10.997  0.6827  1.1025  0.6058
53192SOL    HW266182   9.810   6.252  11.146  1.0093  0.3178  0.7032
53193SOL     OW66183   0.807  11.345   5.674 -0.3481 -0.0417 -0.0274
53193SOL    HW166184   0.840  11.430   5.644 -0.9458  0.2610  0.1667
53193SOL    HW266185   0.736  11.366   5.734 -0.2717 -0.6764  0.3018
53194SOL     OW66186   2.248   0.382   7.801 -0.5413  0.1585  0.4281
53194SOL    HW166187   2.321   0.372   7.739 -0.2874 -2.0219  1.0107
53194SOL    HW266188   2.289   0.412   7.882 -0.3782 -0.3880  0.5510
53195SOL     OW66189  10.190   1.100  10.345  0.2366  0.2263 -0.0520
53195SOL    HW166190  10.207   1.169  10.409 -0.2515 -0.0800  0.4124
53195SOL    HW266191  10.152   1.028  10.395  3.8460 -1.7935  0.0914
53196SOL     OW66192   2.535  11.063   0.480 -0.2316 -0.1672  0.2442
53196SOL    HW166193   2.441  11.081   0.492 -0.8700 -1.1184 -2.5229
53196SOL    HW266194   2.563  11.129   0.416  0.5780 -0.8685 -0.1343
53197SOL     OW66195   4.372   9.577   4.536  0.2533  0.2304 -0.0499
53197SOL    HW166196   4.288   9.586   4.581 -0.2089 -2.6227 -0.1223
53197SOL    HW266197   4.427   9.646   4.572 -1.7740  1.4944  0.8056
53198SOL     OW66198   6.312  12.367   1.559  0.0706  0.4520 -0.7534
53198SOL    HW166199   6.223  12.364   1.594  0.6036 -1.0800  0.6200
53198SOL    HW266200   6.329  12.278   1.529  2.0683 -0.0775  1.6276
53199SOL     OW66201  10.070   1.083   7.419  0.0524 -0.0536  0.0196
53199SOL    HW166202  10.147   1.067   7.473  0.3086  1.2409  0.0653
53199SOL    HW266203  10.103   1.134   7.345 -0.5317 -0.6422 -0.6702
53200SOL     OW66204   9.757   6.149   5.101 -0.5044 -0.4603  0.0187
53200SOL    HW166205   9.715   6.097   5.170 -1.4329  1.2973  0.8616
53200SOL    HW266206   9.751   6.240   5.133 -1.0525  0.4297 -2.4168
53201SOL     OW66207   7.183   3.860   3.581  0.8880  0.1048  0.0304
53201SOL    HW166208   7.096   3.831   3.609  0.0953  2.0337 -0.2226
53201SOL    HW266209   7.237   3.852   3.659  0.3092 -0.4647  0.3855
53202SOL     OW66210   7.654   1.376  11.723 -0.3974 -0.3376 -0.2327
53202SOL    HW166211   7.669   1.338  11.637 -0.1259 -0.4847 -0.1225
53202SOL    HW266212   7.677   1.306  11.784 -1.6856 -0.6278 -0.0527
53203SOL     OW66213   6.042   2.678  11.597  0.4733 -0.0667  0.0430
53203SOL    HW166214   6.026   2.682  11.503  1.4151  1.8582 -0.0849
53203SOL    HW266215   6.036   2.585  11.619 -1.0850 -0.4234 -1.6632
53204SOL     OW66216   9.647   7.956   9.459 -0.3749 -0.2990  0.2931
53204SOL    HW166217   9.684   7.878   9.500 -0.0353 -0.6323 -0.6322
53204SOL    HW266218   9.678   7.954   9.369 -2.3130 -0.3907 -0.4210
53205SOL     OW66219  12.217   5.660   9.852 -0.1249 -0.5008  0.5236
53205SOL    HW166220  12.280   5.642   9.923 -0.1022  2.5330  1.3968
53205SOL    HW266221  12.239   5.748   9.822 -2.9572  0.0392 -0.2294
53206SOL     OW66222  10.366   0.264  11.231 -0.4227 -0.5516 -0.4475
53206SOL    HW166223  10.380   0.259  11.136  2.0142 -0.4718 -0.1527
53206SOL    HW266224  10.357   0.357  11.249 -1.5278 -0.6066 -0.6525
53207SOL     OW66225   1.553   9.356  10.036 -0.5542 -0.5700 -0.3560
53207SOL    HW166226   1.474   9.404  10.011 -1.7978 -0.3532  3.3759
53207SOL    HW266227   1.623   9.420  10.031 -1.4359  0.4845  0.4461
53208SOL     OW66228   4.079   3.030   1.224  0.7570 -0.0189  0.7745
53208SOL    HW166229   4.117   2.963   1.167 -1.6245 -0.6917 -0.1520
53208SOL    HW266230   4.116   3.112   1.193  1.8567 -0.6779  0.3052
53209SOL     OW66231   3.357   1.083   5.834 -0.0624  0.2457 -0.4350
53209SOL    HW166232   3.440   1.118   5.864 -0.5175  0.3681  0.7349
53209SOL    HW266233   3.310   1.158   5.798 -0.4098  0.5577  0.6387
53210SOL     OW66234  11.508   7.584  12.378 -0.4569  0.0868 -0.1339
53210SOL    HW166235  11.590   7.616  12.341  0.5326 -2.2409 -0.0953
53210SOL    HW266236  11.532   7.543  12.461 -1.2422 -2.4492 -1.0434
53211SOL     OW66237   5.273   4.418   0.496  0.3845 -0.7760 -0.8147
53211SOL    HW166238   5.362   4.448   0.478  0.6178 -1.1476 -0.3083
53211SOL    HW266239   5.284   4.330   0.533 -0.0688 -0.2037  0.7929
53212SOL     OW66240   5.920  11.305   6.158  0.8916  0.2727  0.0206
53212SOL    HW166241   5.837  11.304   6.206  0.9811  1.4094  0.2318
53212SOL    HW266242   5.896  11.290   6.067  0.5382 -0.2100  0.1941
53213SOL     OW66243   1.325   7.464   8.881 -0.1199  0.3861 -0.0038
53213SOL    HW166244   1.271   7.472   8.803  1.3348 -1.4490 -1.2590
53213SOL    HW266245   1.385   7.538   8.876 -0.4587  0.6490 -0.2572
53214SOL     OW66246   7.951  12.016   3.488 -0.8113  0.2068  0.3287
53214SOL    HW166247   7.956  12.000   3.394 -1.2847 -1.2802  0.5272
53214SOL    HW266248   7.977  12.108   3.499 -0.4075  0.2944 -1.2037
53215SOL     OW66249   9.430   9.126  12.222  0.0512 -0.6216 -0.2861
53215SOL    HW166250   9.463   9.131  12.132  0.4328 -0.2918 -0.1313
53215SOL    HW266251   9.479   9.054  12.261 -0.4859 -1.1060 -0.4883
53216SOL     OW66252   7.454  11.727  11.386 -0.0789 -0.2749 -0.6887
53216SOL    HW166253   7.456  11.817  11.420  1.1120 -0.1864 -0.9741
53216SOL    HW266254   7.509  11.729  11.308  2.3028 -1.8570  0.8136
53217SOL     OW66255   4.610   2.179   8.079 -0.1130 -0.3128 -0.2260
53217SOL    HW166256   4.592   2.172   7.986  0.4571  0.7112 -0.4217
53217SOL    HW266257   4.699   2.146   8.090  0.6017  1.4216 -0.3810
53218SOL     OW66258  11.178  11.569  11.226 -0.5208  0.1282  0.0524
53218SOL    HW166259  11.222  11.491  11.191 -0.6694  0.1657 -0.2144
53218SOL    HW266260  11.231  11.642  11.194 -0.0042  0.1121  0.8325
53219SOL     OW66261   6.426  10.722  12.440  0.4812  0.1441  0.0793
53219SOL    HW166262   6.384  10.677  12.367  0.6141  0.5182 -0.2329
53219SOL    HW266263   6.375  10.696  12.517 -0.6994  1.0692 -0.3625
53220SOL     OW66264   7.399   5.793   3.068 -0.1549 -0.3623  0.4261
53220SOL    HW166265   7.420   5.877   3.107 -0.1315 -1.1457  2.1985
53220SOL    HW266266   7.355   5.814   2.986 -0.1360  1.3614  0.8367
53221SOL     OW66267   2.813   9.641  11.806  0.4088 -0.5451  0.1003
53221SOL    HW166268   2.899   9.616  11.774  0.6422 -1.6211  1.4817
53221SOL    HW266269   2.813   9.737  11.804  1.9466 -0.5115  0.8672
53222SOL     OW66270   2.121   5.276   9.801 -0.0642  0.0726  0.5708
53222SOL    HW166271   2.104   5.293   9.893  1.4807 -0.8737  1.0683
53222SOL    HW266272   2.034   5.273   9.761 -0.7361  1.0728  1.8639
53223SOL     OW66273   6.571   1.869   2.398  0.1733 -0.0341 -0.3130
53223SOL    HW166274   6.610   1.843   2.482 -0.8876  0.6222  0.4150
53223SOL    HW266275   6.478   1.846   2.407 -0.0773  0.6517 -1.0397
53224SOL     OW66276   1.435   2.986   8.972  0.2858  0.4401 -0.2559
53224SOL    HW166277   1.406   2.955   9.058 -0.3221  0.3952 -0.4718
53224SOL    HW266278   1.407   3.077   8.969 -0.4418  0.2124 -0.7258
53225SOL     OW66279   2.277   6.586  10.343 -0.3051  0.2794 -0.6726
53225SOL    HW166280   2.193   6.587  10.297 -0.9620 -0.4741  0.4499
53225SOL    HW266281   2.255   6.612  10.432  0.8913  1.3949 -0.6796
53226SOL     OW66282  12.670   0.421   3.251 -1.1544 -0.0438  0.2374
53226SOL    HW166283  12.711   0.373   3.323 -0.2998  0.1758 -0.0918
53226SOL    HW266284  12.709   0.509   3.255 -0.3091 -0.3310 -1.1161
53227SOL     OW66285   2.591   8.414   1.361  0.2444  0.1419  0.1146
53227SOL    HW166286   2.666   8.391   1.415 -0.5800  0.2827  1.3629
53227SOL    HW266287   2.521   8.435   1.423 -0.5658  0.9217 -0.9945
53228SOL     OW66288   8.033   7.010   2.925 -0.2303  0.4799 -0.5063
53228SOL    HW166289   8.091   7.019   2.849 -1.3859  1.8722 -1.2736
53228SOL    HW266290   7.954   7.059   2.901 -2.2636 -2.2997  0.0108
53229SOL     OW66291   0.853   3.888  10.395 -0.4612  0.3738  0.1391
53229SOL    HW166292   0.819   3.900  10.483  0.8724  1.2976  0.5701
53229SOL    HW266293   0.912   3.813  10.401  1.7073  1.9958  0.7579
53230SOL     OW66294   3.682   3.263   5.755 -0.0805 -0.3300 -0.5721
53230SOL    HW166295   3.634   3.302   5.828  1.2203  1.5757 -0.6725
53230SOL    HW266296   3.763   3.229   5.794  0.9887  1.3934 -1.1777
53231SOL     OW66297   3.024   1.104   3.761 -0.1747  0.3346 -0.4357
53231SOL    HW166298   3.075   1.157   3.822  0.7573 -0.3613 -0.5938
53231SOL    HW266299   3.000   1.026   3.810  2.7040 -1.4185 -1.6064
53232SOL     OW66300   7.000   7.855   4.357 -0.1678 -0.3279  0.0445
53232SOL    HW166301   6.993   7.880   4.265  0.4001 -0.5197 -0.0550
53232SOL    HW266302   6.932   7.906   4.401 -0.5773 -0.3870 -0.5097
53233SOL     OW66303   3.111   2.630   6.630 -0.2118 -0.3867 -0.1939
53233SOL    HW166304   3.159   2.699   6.676  0.1205  0.0901 -1.2198
53233SOL    HW266305   3.172   2.558   6.622 -0.0068 -0.1790 -0.5520
53234SOL     OW66306   7.906   4.314   3.035 -0.1255 -0.3020  0.3261
53234SOL    HW166307   7.855   4.349   2.962  1.4956  2.9661  0.5778
53234SOL    HW266308   7.948   4.236   3.000  0.7513  1.2590 -2.3989
53235SOL     OW66309   0.809   5.459   6.811 -0.3669 -0.4252 -0.0788
53235SOL    HW166310   0.847   5.519   6.875 -1.1148  0.8751 -0.8121
53235SOL    HW266311   0.866   5.466   6.734 -2.2906  1.9952 -1.4073
53236SOL     OW66312   5.242   9.411   5.759  0.1233  0.4741  0.2317
53236SOL    HW166313   5.303   9.364   5.817 -0.7696 -1.9667 -0.6951
53236SOL    HW266314   5.297   9.476   5.715  1.4426  0.2942  1.5072
53237SOL     OW66315   8.018   8.711   9.624 -0.7951 -0.2028 -0.1212
53237SOL    HW166316   8.035   8.772   9.552  1.0417 -2.2227 -1.5236
53237SOL    HW266317   8.084   8.733   9.690 -0.0781 -0.6908 -0.6628
53238SOL     OW66318   5.669   0.858   2.919  0.5065  0.2392  0.5948
53238SOL    HW166319   5.664   0.869   2.824  1.7474  0.2817  0.5150
53238SOL    HW266320   5.762   0.843   2.936  0.7421  2.7803  2.0380
53239SOL     OW66321   3.443   4.128   4.958 -0.3804  0.0468  0.6314
53239SOL    HW166322   3.484   4.064   4.900  0.2377 -0.2251  1.3372
53239SOL    HW266323   3.377   4.171   4.905 -2.0424 -2.3771  0.6022
53240SOL     OW66324   5.986   7.408   9.265  0.4430 -0.3888 -0.1780
53240SOL    HW166325   6.079   7.410   9.242  0.1811 -1.5606 -1.4932
53240SOL    HW266326   5.941   7.423   9.181 -0.5621 -0.5921  0.3101
53241SOL     OW66327   3.468   1.678  11.228  0.6649 -0.2577 -0.6625
53241SOL    HW166328   3.519   1.618  11.173  1.5691  0.1767 -0.3148
53241SOL    HW266329   3.454   1.631  11.310  0.1651 -0.5224 -0.8930
53242SOL     OW66330   4.415  12.695   8.615 -0.5068 -0.0026 -0.2454
53242SOL    HW166331   4.399  12.704   8.521 -0.5241 -2.3390 -0.5066
53242SOL    HW266332   4.447  12.606   8.626 -0.7602  0.1298  2.0223
53243SOL     OW66333  10.577   4.339   1.320 -0.2291 -0.2383 -0.2202
53243SOL    HW166334  10.597   4.335   1.226  1.7084 -0.0650  0.1579
53243SOL    HW266335  10.482   4.330   1.324 -0.4316  0.4475 -2.2504
53244SOL     OW66336   6.605   6.904   6.723  0.0424  0.0966 -0.0783
53244SOL    HW166337   6.601   6.994   6.756  2.1715  0.0978  0.3029
53244SOL    HW266338   6.515   6.872   6.730 -0.7643  2.1903 -0.2419
53245SOL     OW66339   2.756   8.315   1.553  0.2554 -0.3657 -0.7539
53245SOL    HW166340   2.745   8.237   1.607 -0.5385 -0.2366 -0.7146
53245SOL    HW266341   2.835   8.357   1.588 -0.0456 -0.4695  0.0741
53246SOL     OW66342  10.572   4.750   7.591 -0.0292 -0.1059  0.5205
53246SOL    HW166343  10.643   4.752   7.527 -1.0553 -0.9124 -0.6934
53246SOL    HW266344  10.615   4.765   7.675  1.2047  2.1492 -0.4354
53247SOL     OW66345  10.713   9.858   4.007  0.5728 -0.3898 -0.5485
53247SOL    HW166346  10.638   9.804   4.030  0.8185 -0.4398  0.1378
53247SOL    HW266347  10.687   9.947   4.031  0.4090 -0.2833 -1.1009
53248SOL     OW66348   1.453  11.559   6.120  0.6017  0.0458  0.1615
53248SOL    HW166349   1.432  11.625   6.186  1.3379 -0.6055  1.0815
53248SOL    HW266350   1.399  11.483   6.144  1.3927 -0.4391  0.4633
53249SOL     OW66351   5.266   4.195  10.972 -0.1366 -0.0726 -0.3936
53249SOL    HW166352   5.207   4.181  10.898 -0.4752 -1.3015  0.0897
53249SOL    HW266353   5.209   4.219  11.045  0.1257  0.3684 -0.3238
53250SOL     OW66354  10.093  11.288   6.768 -0.0361 -0.2512  0.0749
53250SOL    HW166355  10.187  11.305   6.771 -0.0355 -0.2107  3.2823
53250SOL    HW266356  10.082  11.230   6.692  2.6173 -0.5904 -0.1629
53251SOL     OW66357   4.158   2.467  11.255  0.1795  0.2640  0.7907
53251SOL    HW166358   4.136   2.422  11.174 -1.2488 -0.6543  1.6426
53251SOL    HW266359   4.253   2.480  11.250  0.3371 -1.0640 -0.3738
53252SOL     OW66360   0.999   0.924   4.208 -0.1065  0.3671 -0.0226
53252SOL    HW166361   0.983   0.988   4.139  1.3597  0.9527  0.1423
53252SOL    HW266362   0.958   0.961   4.286 -1.8133 -0.3195 -0.5477
53253SOL     OW66363  11.527  11.803  12.082  0.8739 -0.1925 -0.1897
53253SOL    HW166364  11.589  11.743  12.125  1.1750  0.1800 -0.1020
53253SOL    HW266365  11.581  11.856  12.024  0.3861 -1.1465 -1.5622
53254SOL     OW66366   9.840   4.257  12.400  0.2239 -0.1997  0.1684
53254SOL    HW166367   9.776   4.306  12.347 -0.4486 -1.8097 -0.5700
53254SOL    HW266368   9.901   4.324  12.430  1.4945  0.7082 -3.7996
53255SOL     OW66369   8.968   6.639  10.100 -0.7775  0.0058 -0.0160
53255SOL    HW166370   8.960   6.734  10.094  1.6287  0.3099  0.6651
53255SOL    HW266371   8.948   6.618  10.191 -0.5105 -0.0407  0.0330
53256SOL     OW66372   7.907   0.099   4.761  0.2801  0.0874  0.2029
53256SOL    HW166373   7.844   0.163   4.795  0.3614  0.0883  0.3562
53256SOL    HW266374   7.900   0.024   4.821 -1.1811 -0.8457 -1.0408
53257SOL     OW66375   7.101   2.390   5.398 -0.2335  0.2678 -0.0276
53257SOL    HW166376   7.128   2.311   5.352 -1.1077  1.0344 -1.9829
53257SOL    HW266377   7.160   2.458   5.366  1.7547  0.1416  3.0442
53258SOL     OW66378   9.630   2.110   2.448 -0.2883  0.1229 -0.4847
53258SOL    HW166379   9.535   2.103   2.442 -0.2667  0.7937 -2.4800
53258SOL    HW266380   9.660   2.115   2.357  1.6273  0.3749  0.0970
53259SOL     OW66381   9.204  12.460   2.115 -0.4248  0.5277 -0.2992
53259SOL    HW166382   9.270  12.524   2.143  1.0219 -1.4046  1.0549
53259SOL    HW266383   9.256  12.386   2.082 -1.9580 -0.5991 -0.2889
53260SOL     OW66384   8.998  11.986   2.263  0.7481  0.3981 -0.2272
53260SOL    HW166385   8.965  11.911   2.312  1.7386 -0.1833 -0.4161
53260SOL    HW266386   9.086  12.001   2.298  0.4766  1.6356 -0.0206
53261SOL     OW66387  10.397   8.881   7.936 -0.2428  0.2272  0.1958
53261SOL    HW166388  10.353   8.811   7.888  1.3848 -0.7925  0.1162
53261SOL    HW266389  10.351   8.885   8.020 -0.7089 -0.5565 -0.0137
53262SOL     OW66390   4.604  12.666   5.569 -0.5012 -0.3205 -0.4424
53262SOL    HW166391   4.700  12.659   5.564 -0.1289  0.5294  2.9532
53262SOL    HW266392   4.576  12.581   5.604 -0.8414 -0.2004 -0.4173
53263SOL     OW66393   0.344   1.138   0.682  0.3697  0.1779  0.3172
53263SOL    HW166394   0.321   1.230   0.673 -0.0143  0.0394 -0.1552
53263SOL    HW266395   0.434   1.132   0.650  0.4619  0.4207  0.5324
53264SOL     OW66396   8.289   6.866  10.056 -0.3182  0.0300 -0.1614
53264SOL    HW166397   8.373   6.826  10.076  0.2931  0.7903 -1.1341
53264SOL    HW266398   8.293   6.952  10.098 -0.3329  0.3336 -0.7708
53265SOL     OW66399  12.555   0.941   5.056 -0.2194  0.3851  0.2371
53265SOL    HW166400  12.510   0.900   5.130 -1.1076 -0.3455 -0.6663
53265SOL    HW266401  12.612   0.872   5.022  0.5892  0.8888  0.5739
53266SOL     OW66402   1.285   0.429   5.945  0.7266  0.2624 -0.3182
53266SOL    HW166403   1.209   0.396   5.896  0.2720  1.1308 -0.2085
53266SOL    HW266404   1.261   0.517   5.972  1.6319  0.4151  0.0500
53267SOL     OW66405   9.681   8.561   7.834 -0.3454 -0.0949  0.1392
53267SOL    HW166406   9.757   8.618   7.843 -1.8382  2.0233 -0.0605
53267SOL    HW266407   9.656   8.569   7.742 -0.2059 -1.6313 -0.0592
53268SOL     OW66408   2.684  10.703  11.215  0.1686 -0.5852  0.4487
53268SOL    HW166409   2.595  10.687  11.248  0.5642 -1.4306  1.1352
53268SOL    HW266410   2.678  10.684  11.121 -1.0390  2.1275 -0.1419
53269SOL     OW66411   5.078   3.437  10.761 -0.6505 -0.3807 -0.0004
53269SOL    HW166412   5.015   3.377  10.802 -1.8597  0.5322 -0.4392
53269SOL    HW266413   5.066   3.423  10.667  0.0231 -0.3998 -0.0840
53270SOL     OW66414   8.088   0.921  11.979  0.1953  0.3382  0.1539
53270SOL    HW166415   8.002   0.945  11.944 -0.0016  0.1029  0.4670
53270SOL    HW266416   8.110   0.991  12.040  0.3452  0.5285 -0.1130
53271SOL     OW66417  12.417  12.729   1.438 -0.1674 -0.2503 -0.0441
53271SOL    HW166418  12.476  12.654   1.443 -0.4208 -0.4577 -0.1182
53271SOL    HW266419  12.339  12.701   1.485  0.2003  0.4141  0.9764
53272SOL     OW66420  11.276   1.949   9.098  0.0120 -0.0983 -0.2807
53272SOL    HW166421  11.364   1.973   9.068  0.7210  0.2974  1.9208
53272SOL    HW266422  11.224   2.028   9.086  0.8970  0.8515  1.6308
53273SOL     OW66423   0.000   3.541   3.582  0.0444 -0.2124 -0.0048
53273SOL    HW166424  -0.075   3.599   3.565 -0.0876 -0.3406  0.1404
53273SOL    HW266425   0.065   3.567   3.516 -0.1759 -0.1886 -0.2150
53274SOL     OW66426   4.859  11.969   1.582 -0.0417 -0.0349  0.1488
53274SOL    HW166427   4.909  11.916   1.644 -1.2717  0.4630  1.6531
53274SOL    HW266428   4.879  11.933   1.496  2.0330 -0.5078  0.7884
53275SOL     OW66429  11.230   2.976   2.766 -0.3396 -0.2460  0.3504
53275SOL    HW166430  11.322   2.963   2.788 -1.0260 -2.1693  2.3913
53275SOL    HW266431  11.229   2.983   2.670  1.9360  0.2073  0.3085
53276SOL     OW66432   9.434  11.614  12.583 -0.6869 -0.1712  0.2734
53276SOL    HW166433   9.502  11.647  12.641 -0.4158 -0.4939  0.1384
53276SOL    HW266434   9.374  11.688  12.572 -0.1790  0.2190  0.1174
53277SOL     OW66435   6.096   0.387   3.888 -0.1759 -0.2143 -0.3536
53277SOL    HW166436   6.191   0.397   3.895 -0.2917  0.3975  0.5791
53277SOL    HW266437   6.083   0.310   3.833  0.8714 -0.9731  0.4401
53278SOL     OW66438  11.092   9.792   5.677 -0.6950 -0.0257  0.1899
53278SOL    HW166439  10.999   9.780   5.694 -0.4787 -1.9840  0.1630
53278SOL    HW266440  11.125   9.833   5.757 -1.1529 -1.6263  1.2446
53279SOL     OW66441   5.795  10.583  10.912 -0.0815 -0.0977  0.3191
53279SOL    HW166442   5.796  10.591  11.008 -1.2634 -0.7577  0.4096
53279SOL    HW266443   5.783  10.672  10.880  1.8050  0.3399  0.7120
53280SOL     OW66444  12.780   2.656   2.283  0.5308  0.0063  0.5194
53280SOL    HW166445  12.864   2.638   2.242  0.2026 -1.0818  0.3060
53280SOL    HW266446  12.791   2.627   2.374  0.0154 -1.2616  0.1870
53281SOL     OW66447  10.664   6.555   6.713 -0.0709  0.2687 -0.2242
53281SOL    HW166448  10.717   6.630   6.740  0.8090  0.1744 -1.6234
53281SOL    HW266449  10.631   6.578   6.627  0.1236 -0.8966 -0.6252
53282SOL     OW66450  10.315   9.175   6.620  0.1648 -0.0690 -0.1653
53282SOL    HW166451  10.392   9.138   6.576  1.2465  1.3393  0.4277
53282SOL    HW266452  10.305   9.262   6.580  0.7251  0.9520  1.7817
53283SOL     OW66453   3.517  10.206   2.219  0.3569  0.0715 -0.0166
53283SOL    HW166454   3.511  10.150   2.297  0.3941  0.1337  0.0318
53283SOL    HW266455   3.451  10.173   2.160  0.4435 -0.0842 -0.0255
53284SOL     OW66456  12.278   8.501   3.374  0.5347 -0.6489 -0.6857
53284SOL    HW166457  12.304   8.423   3.422  0.8220 -1.2671 -1.8131
53284SOL    HW266458  12.328   8.497   3.292 -1.7532 -0.9251 -2.1399
53285SOL     OW66459   1.510   2.321   7.901  0.0260  0.2767 -0.1038
53285SOL    HW166460   1.434   2.366   7.939  1.0805  0.3255  2.1432
53285SOL    HW266461   1.473   2.257   7.841 -1.8055  0.3197  0.9038
53286SOL     OW66462  11.137   2.130   3.733  1.1672  0.1876 -0.0076
53286SOL    HW166463  11.113   2.221   3.747 -2.1670 -0.6602  0.7804
53286SOL    HW266464  11.182   2.104   3.812  0.0999  0.6104  0.7647
53287SOL     OW66465   7.979  11.002   1.995  0.1350  0.6671 -0.7760
53287SOL    HW166466   8.028  11.049   2.063 -0.7311 -1.3018  1.3464
53287SOL    HW266467   7.895  11.047   1.990 -0.0411  0.4461 -0.0258
53288SOL     OW66468  10.620   3.875  10.923 -0.2287  0.2003  0.6344
53288SOL    HW166469  10.688   3.840  10.865 -0.1738 -1.5152  1.6907
53288SOL    HW266470  10.557   3.915  10.863  0.8759  0.3672 -0.4673
53289SOL     OW66471   1.474  11.717   8.237 -0.2048  1.0667 -0.7786
53289SOL    HW166472   1.415  11.765   8.179 -2.1274  1.3807  1.3047
53289SOL    HW266473   1.532  11.783   8.273 -0.6268  1.2960 -0.5056
53290SOL     OW66474   7.287   4.416   1.174  0.3021  0.2161  0.1852
53290SOL    HW166475   7.261   4.365   1.097  1.7479  1.2228 -1.0394
53290SOL    HW266476   7.206   4.430   1.222 -0.5855 -0.7656 -0.9573
53291SOL     OW66477   7.300  11.020   7.665 -0.0024 -0.2707  0.4554
53291SOL    HW166478   7.292  10.970   7.584 -1.0478  1.2803 -0.4585
53291SOL    HW266479   7.248  10.971   7.729 -2.4952  0.4482 -0.8716
53292SOL     OW66480   1.879   8.065  12.379 -0.0626  0.5766 -0.4932
53292SOL    HW166481   1.815   7.994  12.374  2.6686 -2.0996 -0.3272
53292SOL    HW266482   1.860   8.108  12.462 -0.6847 -1.1623  0.3253
53293SOL     OW66483   3.224   1.148   9.704 -0.3465  0.0990  0.0734
53293SOL    HW166484   3.131   1.130   9.715 -0.2209 -0.5642  0.0822
53293SOL    HW266485   3.246   1.208   9.776 -1.0134  1.2147 -0.6150
53294SOL     OW66486   3.933   0.772   7.141 -0.5443  0.2841 -0.1070
53294SOL    HW166487   3.871   0.812   7.079 -0.2940  1.1958  0.2145
53294SOL    HW266488   4.014   0.821   7.129 -0.1002 -0.4085  0.0114
53295SOL     OW66489   3.517   0.672   4.679  0.5054  0.2682 -0.1035
53295SOL    HW166490   3.606   0.643   4.697  0.4849 -1.2448 -2.1516
53295SOL    HW266491   3.461   0.614   4.731  0.6479  0.1025 -0.1378
53296SOL     OW66492   0.777  11.856  10.205  0.3376  0.0871 -0.6367
53296SOL    HW166493   0.751  11.808  10.284  0.6347 -1.5493 -1.4783
53296SOL    HW266494   0.793  11.787  10.140  0.4833  1.3718 -2.0109
53297SOL     OW66495   6.802   5.157  12.396  0.4073 -0.1098  0.3094
53297SOL    HW166496   6.895   5.159  12.418  0.0837  1.3158  1.7467
53297SOL    HW266497   6.757   5.140  12.479 -0.6872  0.9599 -0.0307
53298SOL     OW66498   4.657  10.625   8.268  0.2815  0.2734  0.3704
53298SOL    HW166499   4.739  10.659   8.305  0.8114 -2.3415  1.7903
53298SOL    HW266500   4.588  10.673   8.314  0.9851  1.0288  0.6602
53299SOL     OW66501  10.406   6.216  10.195 -0.6445 -0.2364 -0.4052
53299SOL    HW166502  10.370   6.132  10.223 -0.9295 -0.0487 -0.2149
53299SOL    HW266503  10.335   6.257  10.146 -0.3832 -0.2618 -0.8141
53300SOL     OW66504   2.126   2.145   2.809 -0.0414 -0.4668 -0.6024
53300SOL    HW166505   2.221   2.153   2.824 -0.3540  0.3510  1.1387
53300SOL    HW266506   2.109   2.051   2.813  0.6626 -0.6099 -0.7745
53301SOL     OW66507   9.211   5.886   1.671 -0.1174  0.0650  0.4826
53301SOL    HW166508   9.156   5.946   1.620 -1.1099  0.1393  1.6171
53301SOL    HW266509   9.158   5.862   1.747 -0.1295 -2.9395 -0.3125
53302SOL     OW66510   0.778   6.243   4.544  0.1276 -0.0769  0.4263
53302SOL    HW166511   0.710   6.231   4.477 -0.7209 -1.4475  1.4718
53302SOL    HW266512   0.822   6.323   4.519 -0.2375 -0.4805 -1.7086
53303SOL     OW66513  11.187   1.959  12.495 -0.1206 -0.2405 -0.3392
53303SOL    HW166514  11.169   1.947  12.588 -2.8877  0.3952 -0.7106
53303SOL    HW266515  11.115   2.013  12.463 -0.5039 -2.2506 -3.2808
53304SOL     OW66516   7.057  11.955   3.162  0.3692  0.3175 -0.1537
53304SOL    HW166517   7.000  12.023   3.125  0.7474  1.3971  1.1333
53304SOL    HW266518   7.133  12.003   3.195  0.2514 -0.5974  1.5794
53305SOL     OW66519   6.424   5.441   8.104  0.3049  0.5709 -0.8650
53305SOL    HW166520   6.485   5.469   8.036  0.9444 -1.4744 -1.1985
53305SOL    HW266521   6.480   5.411   8.176 -0.3156 -0.1604 -0.6755
53306SOL     OW66522   0.998  11.611  11.408  0.6451 -0.2414 -0.6381
53306SOL    HW166523   0.972  11.572  11.492 -1.5306 -0.9434 -1.5769
53306SOL    HW266524   1.072  11.668  11.430  0.0142 -0.2573  1.7879
53307SOL     OW66525  11.598   5.755   0.404 -0.1686  0.0719  0.1576
53307SOL    HW166526  11.540   5.686   0.436 -0.9700 -0.0501 -1.4654
53307SOL    HW266527  11.548   5.798   0.335  1.4909  0.2748 -0.9654
53308SOL     OW66528  11.132   6.958   1.511  0.3798 -0.1380  0.4069
53308SOL    HW166529  11.090   7.009   1.442  0.4698  0.6085  0.8963
53308SOL    HW266530  11.071   6.963   1.585  1.0639  0.5055  0.9445
53309SOL     OW66531   7.130   0.109   0.387 -0.5078  0.3531 -0.1509
53309SOL    HW166532   7.157   0.030   0.340 -0.7731 -0.1755  0.5685
53309SOL    HW266533   7.165   0.181   0.335  1.4438 -0.2702  0.2366
53310SOL     OW66534   0.233   3.493   2.829  0.1759 -0.5203  0.3242
53310SOL    HW166535   0.286   3.496   2.909  1.6692  0.3521 -0.6766
53310SOL    HW266536   0.253   3.407   2.791 -1.0166 -1.2058  1.1598
53311SOL     OW66537   5.673   9.206   3.449 -0.7735 -0.9846  0.2496
53311SOL    HW166538   5.666   9.288   3.398  0.9303  0.1368  1.7243
53311SOL    HW266539   5.612   9.219   3.522 -1.1691 -1.4303  0.0021
53312SOL     OW66540   9.349   9.571   5.733  0.0371  0.5574 -0.3765
53312SOL    HW166541   9.425   9.626   5.750 -0.5377  1.0233  0.7897
53312SOL    HW266542   9.275   9.620   5.770 -0.9181  0.3672 -1.9473
53313SOL     OW66543   8.362  10.682   2.907  0.0629 -0.4525 -0.1355
53313SOL    HW166544   8.324  10.762   2.870 -2.5800 -1.7477 -0.4993
53313SOL    HW266545   8.387  10.630   2.831  1.2589 -0.2251  0.0889
53314SOL     OW66546   5.946   1.948   3.485 -0.7061  0.0009 -0.2332
53314SOL    HW166547   5.929   1.873   3.541 -2.4235 -0.1306 -0.8924
53314SOL    HW266548   6.004   1.914   3.416 -0.5463 -0.4257  0.1119
53315SOL     OW66549  11.699   9.337  12.008  0.2686 -0.1143 -0.3003
53315SOL    HW166550  11.743   9.278  12.069  2.1391 -0.1459 -1.5806
53315SOL    HW266551  11.607   9.331  12.030  0.7667 -1.0334  1.7060
53316SOL     OW66552   3.354   9.586   8.037  0.4161  0.0754 -0.0130
53316SOL    HW166553   3.391   9.540   8.112  0.2174 -3.1842 -1.7576
53316SOL    HW266554   3.426   9.589   7.974  0.4833  2.4958  0.0637
53317SOL     OW66555   2.123   8.733   3.905  0.4084 -0.8890  0.0102
53317SOL    HW166556   2.033   8.707   3.885  0.0226 -0.2879  0.9059
53317SOL    HW266557   2.142   8.692   3.989  0.9215 -0.8695 -0.0908
53318SOL     OW66558   1.846  10.056   3.273  0.1837 -0.6800  0.1552
53318SOL    HW166559   1.802  10.041   3.189 -1.0003  0.0475  0.6207
53318SOL    HW266560   1.810   9.988   3.330 -0.6737  0.1599  0.6443
53319SOL     OW66561   8.236   5.383   9.991  0.0783 -0.0065  0.2365
53319SOL    HW166562   8.198   5.470  10.002  0.0783 -0.0679  0.7809
53319SOL    HW266563   8.278   5.385   9.905 -0.3816  0.3542  0.0186
53320SOL     OW66564   3.773  12.237  12.279  0.0345 -0.3058 -0.2426
53320SOL    HW166565   3.845  12.299  12.271  1.7698 -2.3533 -1.6566
53320SOL    HW266566   3.805  12.157  12.236 -3.0934 -1.3185 -0.9324
53321SOL     OW66567   1.130   4.866   5.089 -0.1497 -0.3468 -0.1138
53321SOL    HW166568   1.158   4.815   5.014  1.4026  0.6688 -0.2668
53321SOL    HW266569   1.158   4.815   5.165 -0.1549 -0.5401 -0.2434
53322SOL     OW66570   2.984   2.052   9.526  0.0028  0.3300 -0.0232
53322SOL    HW166571   2.989   2.145   9.505 -0.2795  0.2434 -0.4900
53322SOL    HW266572   3.021   2.045   9.614 -0.3331  0.9373  0.1729
53323SOL     OW66573   8.054   1.358   7.938 -1.0514  0.2074 -0.4092
53323SOL    HW166574   8.129   1.377   7.995 -0.0721  0.4471 -1.7290
53323SOL    HW266575   8.022   1.272   7.968 -1.2482  0.8053  1.1762
53324SOL     OW66576  12.056  12.549  11.920  0.4302 -0.8410 -0.7956
53324SOL    HW166577  12.100  12.491  11.982 -0.4334 -0.8538 -0.1761
53324SOL    HW266578  12.104  12.631  11.926 -0.6231 -0.2967  1.1572
53325SOL     OW66579   6.665   8.731  12.149 -0.4190  0.8739 -0.4835
53325SOL    HW166580   6.584   8.782  12.159 -0.1502  1.2273 -0.0804
53325SOL    HW266581   6.708   8.771  12.073 -0.7460  0.5093 -0.8692
53326SOL     OW66582   5.255  12.758   2.066 -0.4940 -0.5206  0.6046
53326SOL    HW166583   5.241  12.828   2.131  0.6143  0.0237  0.2878
53326SOL    HW266584   5.167  12.730   2.042 -0.9464  0.1370  1.4208
53327SOL     OW66585   1.230   2.732   2.032 -0.1528 -0.1573  0.3259
53327SOL    HW166586   1.241   2.671   1.959 -0.6957 -0.3597  0.4090
53327SOL    HW266587   1.186   2.808   1.994 -1.2570 -0.6314  0.6065
53328SOL     OW66588   6.194   9.513  10.254  0.1455 -0.4703  0.5204
53328SOL    HW166589   6.179   9.487  10.163 -1.4012  1.5393  0.1265
53328SOL    HW266590   6.256   9.586  10.248 -1.2048  0.7556  0.8807
53329SOL     OW66591   7.732   9.088   4.517 -0.0689  0.1060 -0.9029
53329SOL    HW166592   7.721   8.997   4.489 -0.6620  0.4431 -1.8236
53329SOL    HW266593   7.827   9.100   4.522  0.0079 -0.8630  0.2696
53330SOL     OW66594   2.793   8.287   0.726 -0.0321 -0.3156 -0.0882
53330SOL    HW166595   2.850   8.341   0.782  0.2070 -1.8872  1.2605
53330SOL    HW266596   2.705   8.320   0.743  0.1128 -0.3057  0.6882
53331SOL     OW66597  10.214   8.981   4.981  0.0215  0.3842 -1.3641
53331SOL    HW166598  10.300   8.947   5.006 -0.2681  0.6953  0.1402
53331SOL    HW266599  10.206   9.063   5.029 -1.5685 -0.1908 -0.5567
53332SOL     OW66600  12.045   7.899  11.234 -0.0242 -0.1270 -0.2665
53332SOL    HW166601  12.002   7.826  11.277 -0.7941  0.3060 -0.2757
53332SOL    HW266602  12.014   7.895  11.143  2.7671 -1.9650 -1.2799
53333SOL     OW66603   3.751  10.124  12.626  1.0288 -0.3365  0.0554
53333SOL    HW166604   3.682  10.075  12.671  0.7444 -0.3020 -0.3362
53333SOL    HW266605   3.716  10.213  12.621  2.0727  0.2198  1.8971
53334SOL     OW66606   0.550  10.077   0.444 -0.3204  0.6830  0.5780
53334SOL    HW166607   0.472  10.058   0.496 -1.2304  0.0375 -0.9467
53334SOL    HW266608   0.518  10.132   0.372  0.4935 -0.1271 -0.4367
53335SOL     OW66609   0.319   6.800   7.292 -0.0603  0.1072  0.6697
53335SOL    HW166610   0.357   6.794   7.204 -2.1187 -0.7393 -0.2235
53335SOL    HW266611   0.347   6.886   7.324  0.7781  0.4072 -0.7692
53336SOL     OW66612   1.972   1.642   2.547  0.1844 -0.0079 -0.3047
53336SOL    HW166613   1.892   1.610   2.588  0.0736 -0.7527 -1.0661
53336SOL    HW266614   1.946   1.723   2.504  0.0204  0.1468  0.0817
53337SOL     OW66615  11.025  11.717   4.975  0.2454 -0.0076  0.0433
53337SOL    HW166616  11.106  11.729   5.025 -0.8946  1.0464  1.7617
53337SOL    HW266617  10.968  11.788   5.006 -1.8848 -1.6447  0.0444
53338SOL     OW66618   3.504   9.871   7.099  0.0018 -0.0051 -0.4306
53338SOL    HW166619   3.585   9.914   7.072  0.2354  0.4815  0.9699
53338SOL    HW266620   3.437   9.907   7.041  0.6892 -0.0667 -1.2966
53339SOL     OW66621   6.320  12.636  12.674 -0.8111  0.0619 -0.0741
53339SOL    HW166622   6.258  12.588  12.729 -0.8825  0.8097  0.5041
53339SOL    HW266623   6.399  12.644  12.728 -1.6755  2.8897  0.9052
53340SOL     OW66624   2.539   6.928  11.258 -0.3193 -0.1735  0.9719
53340SOL    HW166625   2.491   7.007  11.280 -0.5362  0.0395 -0.1717
53340SOL    HW266626   2.554   6.884  11.342 -2.1536 -0.0428  1.4101
53341SOL     OW66627  12.752   8.897   6.978 -0.0362  0.4629 -0.1764
53341SOL    HW166628  12.768   8.820   6.923  1.0569  0.0299  0.7042
53341SOL    HW266629  12.730   8.967   6.917  1.1350 -0.0135 -1.1699
53342SOL     OW66630  10.731   4.500  10.091 -0.3099  0.0068  0.2514
53342SOL    HW166631  10.726   4.442  10.015  0.7766 -1.9316  1.5769
53342SOL    HW266632  10.689   4.451  10.162 -0.3351  1.2978  1.1702
53343SOL     OW66633   7.715   0.231   0.348  0.7041  0.9053 -0.2389
53343SOL    HW166634   7.677   0.143   0.349 -0.1858  1.2675  0.8579
53343SOL    HW266635   7.644   0.287   0.315  0.1482  1.6155  1.9707
53344SOL     OW66636   8.593   4.172   3.346 -0.8796  0.1310 -0.3157
53344SOL    HW166637   8.547   4.234   3.403 -1.5661 -1.0835  0.5101
53344SOL    HW266638   8.637   4.226   3.282 -2.8721  1.4306 -0.6902
53345SOL     OW66639   8.106   4.423   0.203  0.1289 -0.0260 -0.6132
53345SOL    HW166640   8.076   4.447   0.116  0.0755  0.0135 -0.5840
53345SOL    HW266641   8.151   4.501   0.236 -1.7408  0.7415  0.2656
53346SOL     OW66642   8.488   7.378   8.252  0.4023 -0.1387  0.4779
53346SOL    HW166643   8.554   7.344   8.313 -2.2846 -3.7182  1.7387
53346SOL    HW266644   8.413   7.398   8.308 -0.3285  1.8674 -1.1291
53347SOL     OW66645  12.348   0.199   7.545 -0.2809  0.3426  0.3036
53347SOL    HW166646  12.384   0.255   7.475 -1.8393  1.9624  0.7131
53347SOL    HW266647  12.356   0.110   7.511  1.2899  0.8674 -0.8549
53348SOL     OW66648   1.019  10.259   9.791  0.0457  0.0094 -0.3875
53348SOL    HW166649   1.100  10.242   9.744 -0.0931  0.5137 -0.8148
53348SOL    HW266650   0.959  10.294   9.725 -1.7535 -3.6884 -0.9882
53349SOL     OW66651   8.989   1.304  11.908  0.2170  0.4070 -0.6464
53349SOL    HW166652   9.072   1.265  11.935 -0.1850 -0.1198 -0.1423
53349SOL    HW266653   8.939   1.313  11.990 -0.8674 -0.8441 -1.1481
53350SOL     OW66654   6.043   9.273  11.899 -0.4276 -0.2474 -0.1464
53350SOL    HW166655   5.983   9.251  11.969 -0.6057 -2.0893 -0.8250
53350SOL    HW266656   6.129   9.277  11.941 -0.7312  0.3396  0.4463
53351SOL     OW66657   0.954   9.515   7.316 -0.2940  0.4690 -0.6180
53351SOL    HW166658   0.967   9.449   7.248 -1.0794  0.1898 -0.5127
53351SOL    HW266659   0.899   9.581   7.275 -1.2396  0.0244 -0.1002
53352SOL     OW66660   6.050   5.792   4.081  0.0351  0.5676  0.4414
53352SOL    HW166661   6.061   5.868   4.024  3.8833 -0.1451  0.0030
53352SOL    HW266662   6.129   5.740   4.067 -2.2373 -3.4267  0.9672
53353SOL     OW66663   3.998   5.351   8.236 -0.4935 -0.1666  0.3252
53353SOL    HW166664   4.053   5.311   8.168 -0.1680 -0.9033  1.0093
53353SOL    HW266665   4.034   5.438   8.248  0.2128 -0.4626  0.3944
53354SOL     OW66666   8.805   9.069   4.799 -0.0932 -0.2072  0.1843
53354SOL    HW166667   8.743   9.058   4.727  2.0142  0.0032 -1.7906
53354SOL    HW266668   8.839   8.981   4.815  2.3820  0.2178 -2.0025
53355SOL     OW66669   4.846   0.119   1.053 -0.1134 -0.5006 -0.2153
53355SOL    HW166670   4.841   0.032   1.014 -0.2077 -0.7329  0.2976
53355SOL    HW266671   4.838   0.103   1.147 -0.7470  0.1138 -0.1577
53356SOL     OW66672   0.559   0.755   8.048  0.3179  0.2101 -0.2604
53356SOL    HW166673   0.501   0.683   8.026 -0.5761  0.5431  0.9388
53356SOL    HW266674   0.506   0.834   8.035  1.0364  0.6258 -0.7822
53357SOL     OW66675   2.472   8.420   0.060 -0.5930  0.5789  0.5249
53357SOL    HW166676   2.496   8.327   0.063 -1.2765  0.1995 -2.5351
53357SOL    HW266677   2.411   8.431   0.133 -2.4860 -2.0363 -0.5105
53358SOL     OW66678   1.354  12.751   0.453  0.0185 -0.0921  0.1659
53358SOL    HW166679   1.337  12.841   0.425 -0.0949 -0.1035  0.1983
53358SOL    HW266680   1.436  12.756   0.502  1.0460 -0.3193 -1.4510
53359SOL     OW66681  11.290  10.768   9.943  0.3674 -0.3653 -0.3243
53359SOL    HW166682  11.260  10.697  10.000 -0.7709  0.4522  0.1250
53359SOL    HW266683  11.363  10.807   9.990  2.3017 -2.3983 -1.4426
53360SOL     OW66684  10.585   5.096   1.080 -0.3374  0.4643 -0.5187
53360SOL    HW166685  10.646   5.022   1.077 -0.7174  0.1370 -0.2557
53360SOL    HW266686  10.631   5.163   1.130 -0.9828 -0.5427  1.5606
53361SOL     OW66687  10.227  11.058   1.228 -0.2102 -0.0708 -0.4718
53361SOL    HW166688  10.287  11.085   1.159 -0.0710 -0.1107 -0.3650
53361SOL    HW266689  10.153  11.020   1.181 -2.2800  3.9103 -0.9122
53362SOL     OW66690   0.473  10.247  11.426 -0.2668 -0.0413 -0.8298
53362SOL    HW166691   0.495  10.188  11.354 -0.5810  1.3208 -2.0902
53362SOL    HW266692   0.499  10.334  11.395 -1.6340  0.7672  0.1724
53363SOL     OW66693  12.685   8.073   5.362  0.0068 -0.5587  1.0873
53363SOL    HW166694  12.629   8.146   5.336  0.0763 -1.1166 -0.7913
53363SOL    HW266695  12.773   8.100   5.336  0.2356 -0.7729  1.6200
53364SOL     OW66696   4.610   0.463   6.836  0.5976  0.2030  0.0063
53364SOL    HW166697   4.662   0.515   6.897 -0.4654  1.3152  0.0125
53364SOL    HW266698   4.519   0.486   6.857  0.0271 -2.3064  0.5634
53365SOL     OW66699   1.689   3.114   3.311 -0.5439 -0.1432 -0.4630
53365SOL    HW166700   1.733   3.151   3.235 -0.8875  0.0304 -0.5747
53365SOL    HW266701   1.757   3.062   3.354  0.0018  0.7794 -0.1859
53366SOL     OW66702   4.579   6.783  12.409 -0.0065 -0.0518  0.5031
53366SOL    HW166703   4.651   6.844  12.394 -1.3214  1.5172  0.2924
53366SOL    HW266704   4.502   6.838  12.420 -1.1811 -1.6664  0.8653
53367SOL     OW66705   0.637  10.187   7.140  0.0453  0.0262  0.1671
53367SOL    HW166706   0.607  10.117   7.083 -1.3301  1.3492 -0.8242
53367SOL    HW266707   0.703  10.233   7.088 -0.5312  0.6650 -0.0199
53368SOL     OW66708   4.770   8.717   4.818 -0.4113  0.2412  0.9292
53368SOL    HW166709   4.764   8.736   4.724 -0.0714  1.8139  1.2061
53368SOL    HW266710   4.843   8.771   4.849 -2.1308  1.7534  2.5740
53369SOL     OW66711  12.290  12.329   4.973  0.4557 -0.4391  0.6737
53369SOL    HW166712  12.263  12.412   5.012  0.1019 -1.5488  2.9425
53369SOL    HW266713  12.235  12.320   4.895 -0.0662  1.0576  0.8381
53370SOL     OW66714   1.207   2.495   1.872 -0.4930 -0.2342  0.0702
53370SOL    HW166715   1.229   2.457   1.788 -1.1255  0.5331 -0.4574
53370SOL    HW266716   1.124   2.454   1.896 -0.3640 -0.3776  0.2743
53371SOL     OW66717   0.954   9.783   3.340 -0.5260 -0.6377  0.1669
53371SOL    HW166718   0.944   9.747   3.253 -0.4994 -0.7419  0.2071
53371SOL    HW266719   1.037   9.831   3.337 -1.0155  0.2247 -0.1661
53372SOL     OW66720  11.728  11.136   7.922  0.5596  0.1124 -0.2686
53372SOL    HW166721  11.796  11.199   7.946  1.1540 -0.9521  1.0209
53372SOL    HW266722  11.653  11.159   7.978  0.1922  0.6580 -0.9662
53373SOL     OW66723   2.198   4.853   9.470  0.5118  0.0493  0.2002
53373SOL    HW166724   2.176   4.886   9.383 -3.3196 -0.4926  0.8113
53373SOL    HW266725   2.222   4.762   9.456  4.1375  0.9443 -0.6233
53374SOL     OW66726   4.983   6.714   8.392  0.3215  0.6271 -0.3222
53374SOL    HW166727   5.014   6.748   8.476 -0.3577  2.2255 -0.6758
53374SOL    HW266728   5.061   6.709   8.338  0.7247 -0.1659  0.3076
53375SOL     OW66729  10.325   8.107   2.912 -0.1554  0.3056  0.7516
53375SOL    HW166730  10.318   8.112   2.817  1.3818  0.3796  0.6201
53375SOL    HW266731  10.272   8.180   2.944  0.1217  0.8839 -0.0852
53376SOL     OW66732   7.706  12.196   7.947  0.1088  0.0140 -0.1098
53376SOL    HW166733   7.626  12.151   7.974  1.3086 -2.1436  0.0775
53376SOL    HW266734   7.748  12.222   8.029  1.5935 -2.6160  0.0541
53377SOL     OW66735  11.022   4.150   7.637 -0.2235 -0.1520  0.4769
53377SOL    HW166736  11.053   4.088   7.702 -0.0977 -0.3367  0.2412
53377SOL    HW266737  11.052   4.115   7.553  1.2533  1.0663  0.4549
53378SOL     OW66738  11.277   4.209   8.838  0.9194 -0.0247  0.2505
53378SOL    HW166739  11.305   4.212   8.747  2.6100 -2.5306  0.5855
53378SOL    HW266740  11.272   4.301   8.864  0.5986  0.7450 -2.2621
53379SOL     OW66741   4.904   4.668   9.391 -0.8762 -0.0346  0.1474
53379SOL    HW166742   4.823   4.684   9.342 -1.4522 -2.0524  0.3123
53379SOL    HW266743   4.937   4.586   9.354  0.3878  0.0814  0.9851
53380SOL     OW66744   8.611   8.729   5.915 -0.2289 -0.1963  0.2378
53380SOL    HW166745   8.699   8.698   5.894 -0.2354  0.9643 -1.7543
53380SOL    HW266746   8.562   8.650   5.938  0.4140 -1.3848 -2.2070
53381SOL     OW66747   0.221   0.634   6.145  0.0529  0.1164 -0.1899
53381SOL    HW166748   0.188   0.700   6.084  1.4575 -0.8632 -2.0927
53381SOL    HW266749   0.148   0.574   6.158 -0.6989  1.1021  0.2327
53382SOL     OW66750   0.900   2.521   7.511 -0.3911  0.8350  0.9718
53382SOL    HW166751   0.924   2.599   7.460  0.6996 -0.3765 -0.4556
53382SOL    HW266752   0.965   2.455   7.486 -1.0040 -0.4060  2.4971
53383SOL     OW66753   3.588   0.948   7.366  0.5147 -0.3575 -0.5833
53383SOL    HW166754   3.537   0.899   7.301 -0.3751 -0.6692  0.3232
53383SOL    HW266755   3.630   0.880   7.419  1.6169 -0.1039 -1.0960
53384SOL     OW66756   1.610   6.507   0.467 -0.5387  0.0885 -0.5558
53384SOL    HW166757   1.640   6.537   0.553  1.2684  0.8507 -1.4002
53384SOL    HW266758   1.648   6.569   0.405  0.6311 -2.0506 -2.1229
53385SOL     OW66759  11.343   4.993   9.121  0.4115  0.0620 -0.7434
53385SOL    HW166760  11.281   4.936   9.167 -0.6488  0.0870 -2.0678
53385SOL    HW266761  11.299   5.078   9.119  0.6262  0.1635 -1.4214
53386SOL     OW66762  12.603  11.172  10.194  0.0206  0.2830  0.0432
53386SOL    HW166763  12.528  11.174  10.135 -0.5109 -1.2672  0.6166
53386SOL    HW266764  12.669  11.121  10.146  0.3725  0.8324 -0.0671
53387SOL     OW66765   3.086   3.370   9.567  0.6091 -0.5525  0.4700
53387SOL    HW166766   3.023   3.418   9.514 -0.7355 -1.9181  0.7579
53387SOL    HW266767   3.148   3.333   9.504  0.2290 -0.4527  0.0351
53388SOL     OW66768   2.030  11.827   3.498 -0.1542 -0.2378 -0.0324
53388SOL    HW166769   2.049  11.740   3.463 -0.8498 -0.9655  1.3256
53388SOL    HW266770   1.935  11.836   3.490 -0.0153  0.7443 -0.8764
53389SOL     OW66771   1.969   7.848  10.889  0.3503  0.8294 -0.3623
53389SOL    HW166772   1.933   7.912  10.828 -1.8827  0.8233  0.8532
53389SOL    HW266773   1.908   7.847  10.962  0.9355 -1.8463  0.2008
53390SOL     OW66774   5.232  11.052  12.550  0.2150  0.4265  0.0632
53390SOL    HW166775   5.152  11.059  12.498  0.3953 -1.7832 -0.6042
53390SOL    HW266776   5.300  11.089  12.494 -0.1747  1.4925  0.2720
53391SOL     OW66777   8.421   5.303   2.637 -0.1701 -0.4616 -0.6582
53391SOL    HW166778   8.505   5.278   2.598  0.3070 -1.8102  1.0832
53391SOL    HW266779   8.399   5.231   2.695 -2.2293  0.1817 -0.5522
53392SOL     OW66780   8.653   8.402   8.300 -0.3798 -0.6926  0.5367
53392SOL    HW166781   8.625   8.341   8.368 -0.2810  0.1195  1.3120
53392SOL    HW266782   8.662   8.347   8.222 -0.2746 -1.6757  1.2201
53393SOL     OW66783   4.543  11.460   2.373  0.4298  0.1941  0.0433
53393SOL    HW166784   4.500  11.495   2.451 -0.1518 -0.9492  0.2678
53393SOL    HW266785   4.618  11.518   2.358 -0.5263  1.5502  0.3223
53394SOL     OW66786   5.788   9.111   4.457  0.0924 -0.5516  0.1442
53394SOL    HW166787   5.809   9.199   4.424 -1.6668  0.3121  1.1742
53394SOL    HW266788   5.724   9.077   4.394 -0.7278 -0.2671  0.8097
53395SOL     OW66789   1.118   7.110   0.857  0.1480  0.0748  0.2734
53395SOL    HW166790   1.128   7.203   0.840  1.0441  0.0806  0.7738
53395SOL    HW266791   1.059   7.079   0.788  0.9127  0.7556 -0.7158
53396SOL     OW66792   3.815   5.349  10.353 -0.4142  0.2341  0.4330
53396SOL    HW166793   3.890   5.391  10.395 -0.0910  0.2783 -0.1676
53396SOL    HW266794   3.739   5.382  10.399 -0.1040  0.7694  0.5630
53397SOL     OW66795   0.501  10.865   2.311 -0.3010  0.0007  0.0380
53397SOL    HW166796   0.487  10.882   2.218 -1.0127 -0.2904  0.0888
53397SOL    HW266797   0.596  10.870   2.322 -0.1595 -0.5454 -0.8194
53398SOL     OW66798   3.741   7.284   2.081  0.2500 -0.1737 -0.4795
53398SOL    HW166799   3.723   7.195   2.112  0.0365  0.4032  1.1571
53398SOL    HW266800   3.671   7.302   2.019 -1.5745 -0.0523  1.5139
53399SOL     OW66801   1.503   8.671   6.359  0.6213  0.0055  0.8257
53399SOL    HW166802   1.550   8.606   6.306  0.6758  0.2368  0.5864
53399SOL    HW266803   1.481   8.625   6.440 -1.1443 -0.9630 -0.1413
53400SOL     OW66804  10.185   4.939   9.536 -0.6233 -0.1619  0.1971
53400SOL    HW166805  10.156   5.024   9.501  0.3054  0.3136  0.5534
53400SOL    HW266806  10.280   4.945   9.537 -0.4943 -1.6159 -0.7450
53401SOL     OW66807   1.387   9.928   1.552  0.4195 -0.1694  0.0338
53401SOL    HW166808   1.333   9.956   1.626  0.7771 -1.7147  0.9203
53401SOL    HW266809   1.463   9.887   1.592  0.3109 -1.6237 -1.1879
53402SOL     OW66810   0.692   4.798   8.898 -0.5864 -0.7797  1.1819
53402SOL    HW166811   0.620   4.788   8.836  0.6840  0.2364 -0.5306
53402SOL    HW266812   0.670   4.878   8.947 -0.7160 -0.5888  0.8165
53403SOL     OW66813   8.693   3.430   8.998 -0.0215 -0.0565 -0.5492
53403SOL    HW166814   8.662   3.341   9.013  0.2376 -0.0453  0.0899
53403SOL    HW266815   8.614   3.478   8.971 -0.6519  0.0261  1.2763
53404SOL     OW66816   4.969   7.845   1.176 -0.1607  0.0332 -0.3893
53404SOL    HW166817   4.900   7.861   1.241  0.3908 -0.1264  0.2429
53404SOL    HW266818   4.922   7.828   1.094 -0.8619  0.2912 -0.0440
53405SOL     OW66819   7.629   8.604   0.604 -0.2863 -0.2647 -0.4185
53405SOL    HW166820   7.655   8.663   0.533  0.0773 -0.5337 -0.5126
53405SOL    HW266821   7.594   8.527   0.559 -0.9790 -0.0334 -0.2953
53406SOL     OW66822   3.206   6.208   0.478 -0.3950 -0.9834  0.4533
53406SOL    HW166823   3.115   6.188   0.498 -1.5077  1.0964 -2.0138
53406SOL    HW266824   3.238   6.256   0.556 -1.3849 -1.7039  1.3233
53407SOL     OW66825  12.697   0.797   7.765 -0.3756 -0.5671  0.1167
53407SOL    HW166826  12.649   0.879   7.756  1.1698  0.7147  2.4473
53407SOL    HW266827  12.659   0.754   7.841  0.5034 -0.7193  0.4900
53408SOL     OW66828   7.165  11.343   5.120  0.4258 -0.8520  0.0103
53408SOL    HW166829   7.164  11.428   5.164  0.8590 -1.7348  1.8063
53408SOL    HW266830   7.255  11.332   5.090  1.0699 -1.7578  2.0924
53409SOL     OW66831   2.799   3.514   6.683  0.0390  0.3398  0.0672
53409SOL    HW166832   2.814   3.527   6.777  0.6164 -1.0123  0.1854
53409SOL    HW266833   2.777   3.421   6.675  1.1248  0.1678 -1.2675
53410SOL     OW66834   3.415  11.679  11.440  0.1815 -0.3980  0.3688
53410SOL    HW166835   3.454  11.759  11.475 -1.3507  0.3994  0.3400
53410SOL    HW266836   3.392  11.627  11.516  1.3783 -0.9315  0.3829
53411SOL     OW66837   2.144  11.256   2.363  0.0183 -0.4706 -0.1247
53411SOL    HW166838   2.211  11.275   2.429 -0.5822 -2.4134  1.1240
53411SOL    HW266839   2.187  11.273   2.279  1.8483 -1.0066  0.6616
53412SOL     OW66840   0.191  10.505   4.811 -0.0371 -0.0483 -0.1195
53412SOL    HW166841   0.146  10.537   4.890 -0.0734 -2.0686  0.7447
53412SOL    HW266842   0.265  10.564   4.801  1.4563 -1.1649  2.9994
53413SOL     OW66843   7.780   3.310   0.823  0.5890  0.1201 -0.0167
53413SOL    HW166844   7.755   3.221   0.849 -0.8432  0.4146 -0.2857
53413SOL    HW266845   7.872   3.303   0.798  0.2971 -1.4597 -0.7790
53414SOL     OW66846  10.825   3.625   4.602 -0.5852  0.2943 -0.1430
53414SOL    HW166847  10.915   3.633   4.633 -0.3019  2.3921 -1.3119
53414SOL    HW266848  10.771   3.656   4.675 -0.1784  1.3064 -0.2492
53415SOL     OW66849   6.158   1.412   1.878  0.5149  0.2911 -0.0387
53415SOL    HW166850   6.169   1.318   1.897 -1.3942  0.1078  0.3469
53415SOL    HW266851   6.129   1.415   1.787  0.2607  0.4709  0.0471
53416SOL     OW66852   2.787   9.768   5.198  0.0924 -0.5587  0.1609
53416SOL    HW166853   2.878   9.794   5.210 -0.4765  1.0939  1.2621
53416SOL    HW266854   2.791   9.678   5.166  2.1032 -0.4237 -0.0391
53417SOL     OW66855   2.102   6.370   3.129  0.1851 -0.4775 -0.2601
53417SOL    HW166856   2.158   6.327   3.066  2.3098 -0.9488  1.8143
53417SOL    HW266857   2.041   6.302   3.159  1.9040 -1.4723  1.1746
53418SOL     OW66858   2.987   3.414   7.278 -0.6775 -0.3754  0.3164
53418SOL    HW166859   2.903   3.438   7.318 -0.9201 -0.9179  0.1422
53418SOL    HW266860   2.968   3.334   7.229 -0.1435 -0.2874 -0.0404
53419SOL     OW66861   1.487  12.099  10.429  0.0778 -0.5656  0.2394
53419SOL    HW166862   1.430  12.175  10.442  1.0546  0.0800  0.7992
53419SOL    HW266863   1.426  12.028  10.408 -0.7797  0.5926 -1.4689
53420SOL     OW66864   1.760   2.224   7.665  0.4396  0.7235  0.1000
53420SOL    HW166865   1.696   2.179   7.720  0.6001 -0.8579 -0.9435
53420SOL    HW266866   1.811   2.277   7.726 -1.2966  1.3619  1.0558
53421SOL     OW66867   4.947   5.490   0.348 -0.7010 -0.5007 -0.4238
53421SOL    HW166868   4.915   5.490   0.257 -1.3579  0.0195 -0.1988
53421SOL    HW266869   5.027   5.437   0.345  0.0576  0.6441 -1.5738
53422SOL     OW66870   8.755   7.868  11.892  0.5700  0.5442 -0.4019
53422SOL    HW166871   8.670   7.850  11.931  0.6818  0.7878 -0.0345
53422SOL    HW266872   8.746   7.956  11.855  1.0692  1.1573  0.8529
53423SOL     OW66873  11.749   8.891   0.629 -0.8983  0.0272 -0.4433
53423SOL    HW166874  11.721   8.814   0.578 -1.1984 -0.3060  0.2079
53423SOL    HW266875  11.668   8.924   0.668 -1.0790  1.7835 -2.1627
53424SOL     OW66876   0.592  12.742   2.432 -0.4081  0.3769  0.3042
53424SOL    HW166877   0.663  12.793   2.393  0.4656  0.0805  1.4739
53424SOL    HW266878   0.633  12.695   2.504 -1.7460  0.0092  0.8478
53425SOL     OW66879   3.318   9.532   8.865 -0.1407 -0.1771 -0.6708
53425SOL    HW166880   3.299   9.478   8.788 -2.1775 -1.5903  0.7166
53425SOL    HW266881   3.249   9.598   8.865 -0.9926 -1.0206  0.6186
53426SOL     OW66882   1.263   2.059   7.386  0.2093  0.0310 -0.3325
53426SOL    HW166883   1.347   2.104   7.378 -0.2600  1.5285  1.9093
53426SOL    HW266884   1.284   1.975   7.426  0.8328 -0.5943 -1.9280
53427SOL     OW66885   2.736   9.004   7.030  0.2153 -0.4185 -0.3048
53427SOL    HW166886   2.804   9.025   6.966  0.3307 -2.3815 -0.8941
53427SOL    HW266887   2.751   9.065   7.102  0.7077  1.1850 -1.6965
53428SOL     OW66888   0.786   1.170   5.777 -0.8000 -0.6835 -0.0409
53428SOL    HW166889   0.837   1.115   5.837  0.4658 -0.3991 -0.8141
53428SOL    HW266890   0.847   1.240   5.753 -2.1535  0.6945  0.3940
53429SOL     OW66891   8.075   8.469   0.724 -0.8373 -0.4623 -0.2414
53429SOL    HW166892   8.054   8.400   0.662 -0.6103 -0.8705  0.1314
53429SOL    HW266893   8.009   8.460   0.793 -1.2160  0.1202 -0.5114
53430SOL     OW66894   3.268  11.138   4.946  0.1356 -0.1096  0.8378
53430SOL    HW166895   3.184  11.116   4.907  1.0439 -1.9394 -0.2253
53430SOL    HW266896   3.279  11.074   5.016  0.6913  0.0475  0.9004
53431SOL     OW66897   5.612   2.270  10.811  0.7224 -0.2644 -0.1817
53431SOL    HW166898   5.521   2.280  10.785  0.6649 -0.8838 -0.2264
53431SOL    HW266899   5.637   2.356  10.845  0.3321  0.1026 -0.8146
53432SOL     OW66900   4.255  12.607   1.215 -0.5058 -0.5070 -0.1098
53432SOL    HW166901   4.336  12.622   1.264 -0.4061 -1.3259  0.0009
53432SOL    HW266902   4.189  12.592   1.282 -0.3378 -1.7853 -0.1983
53433SOL     OW66903   5.905   3.468  12.579  0.1638 -0.2204 -0.2830
53433SOL    HW166904   5.884   3.560  12.595  1.4613 -0.0168  0.3448
53433SOL    HW266905   5.866   3.449  12.494 -1.5921  0.4174  0.3367
53434SOL     OW66906   8.659   6.088  11.686  0.2265  0.3107  0.0917
53434SOL    HW166907   8.668   6.166  11.741  1.6047 -0.0041  0.3644
53434SOL    HW266908   8.732   6.032  11.713 -0.9437 -1.2434  0.1622
53435SOL     OW66909  11.274   3.169  11.260  0.4148 -0.0900  0.0868
53435SOL    HW166910  11.324   3.108  11.205  1.0572 -1.2289  1.8341
53435SOL    HW266911  11.340   3.208  11.317 -0.1873  1.3209 -0.1459
53436SOL     OW66912   1.952  11.282   9.314 -0.1660  0.4731  0.1966
53436SOL    HW166913   2.038  11.322   9.306 -0.4816  1.3167  0.9015
53436SOL    HW266914   1.961  11.197   9.270  1.4912 -0.1637  1.6216
53437SOL     OW66915   7.928   7.061   8.605  0.0651  0.0298  0.1164
53437SOL    HW166916   7.934   7.120   8.680 -2.1879  2.1503 -1.2355
53437SOL    HW266917   7.901   7.117   8.533 -2.6747 -2.7231 -1.1884
53438SOL     OW66918  12.569   7.772   5.451 -0.0363 -0.2623 -0.0169
53438SOL    HW166919  12.598   7.692   5.407  1.7560  0.6133 -0.5359
53438SOL    HW266920  12.481   7.752   5.482 -0.0392 -2.0671 -1.0511
53439SOL     OW66921   7.807   3.994  10.460 -0.3008  0.1919 -0.1053
53439SOL    HW166922   7.724   3.950  10.475  0.0202 -0.9015 -1.3504
53439SOL    HW266923   7.873   3.924  10.465  0.8744  1.3317  3.0563
53440SOL     OW66924   4.404  10.699   9.387  0.8328  0.1384 -0.2205
53440SOL    HW166925   4.404  10.793   9.372  0.0847  0.0571 -0.8091
53440SOL    HW266926   4.317  10.671   9.360  0.7012 -0.5791  0.8902
53441SOL     OW66927  11.314   6.088   3.563  0.1677  0.2177  0.0651
53441SOL    HW166928  11.390   6.115   3.512 -1.1128  1.4594 -1.2914
53441SOL    HW266929  11.302   6.158   3.628  0.4735 -0.2326  0.6137
53442SOL     OW66930   5.615   2.390  10.031 -0.5004 -0.8463  0.0077
53442SOL    HW166931   5.642   2.409  10.120  0.2103 -1.7771  0.0067
53442SOL    HW266932   5.601   2.476   9.991  0.5504 -0.3882  0.5965
53443SOL     OW66933   4.625   9.993  10.850  0.3563 -0.2736  0.5690
53443SOL    HW166934   4.564   9.965  10.919  0.2448 -1.0463  0.1619
53443SOL    HW266935   4.571  10.042  10.789  0.8031  2.2051  2.0149
53444SOL     OW66936   7.746   5.156   7.467 -0.0419 -0.4264 -0.2276
53444SOL    HW166937   7.721   5.121   7.382 -2.2805 -1.1729  0.6530
53444SOL    HW266938   7.787   5.082   7.512 -0.5956 -0.6106 -0.0095
53445SOL     OW66939   6.850   0.128   5.469  0.3419 -0.1430  0.0287
53445SOL    HW166940   6.834   0.141   5.562  0.6274 -1.8280  0.3423
53445SOL    HW266941   6.818   0.208   5.427 -2.6156 -0.5782  1.2454
53446SOL     OW66942  11.907  10.017   9.563  0.2257 -0.8324  0.2993
53446SOL    HW166943  11.894   9.958   9.488  0.7775 -1.2536  0.5305
53446SOL    HW266944  11.996  10.049   9.553 -0.3468  0.6770 -0.3118
53447SOL     OW66945   6.876   1.407   0.182 -0.3925  0.5103  0.4527
53447SOL    HW166946   6.785   1.420   0.156 -0.0708 -0.1543 -1.1388
53447SOL    HW266947   6.874   1.408   0.277 -2.0529  0.5794  0.4505
53448SOL     OW66948  11.087   8.980   9.984 -0.0999  0.3262  0.7285
53448SOL    HW166949  11.134   9.030   9.918 -0.9842 -0.6424 -0.7025
53448SOL    HW266950  11.134   8.896   9.988 -0.1209  0.3373  1.2425
53449SOL     OW66951   4.432  12.232   5.027 -0.2311 -0.1910 -0.4660
53449SOL    HW166952   4.496  12.264   4.962 -0.4012  0.3827 -0.3588
53449SOL    HW266953   4.389  12.312   5.059 -1.0690 -0.5825 -0.6032
53450SOL     OW66954  10.198   3.128   6.903 -0.3808  0.2126 -0.2164
53450SOL    HW166955  10.204   3.144   6.809  1.7671  0.3543 -0.1036
53450SOL    HW266956  10.196   3.032   6.911 -1.5769  0.2040 -0.4168
53451SOL     OW66957   9.074   8.260   2.021 -0.0597  0.4758 -0.3081
53451SOL    HW166958   9.007   8.261   1.953 -1.7482  0.0388  1.2697
53451SOL    HW266959   9.082   8.168   2.046  0.9897  0.5560 -0.3106
53452SOL     OW66960   5.118   9.560  11.810 -0.3787 -0.3939  0.0399
53452SOL    HW166961   5.097   9.466  11.811  0.5499 -0.6294 -0.8896
53452SOL    HW266962   5.087   9.592  11.895 -2.6398 -1.0904 -0.4639
53453SOL     OW66963   0.699   3.139   3.965  0.3242 -0.3059  0.1538
53453SOL    HW166964   0.743   3.059   3.994 -0.0591 -0.6276 -0.1464
53453SOL    HW266965   0.652   3.114   3.886 -0.3782  0.0434  0.4549
53454SOL     OW66966  12.733   6.631   7.536  0.1489 -0.4619 -0.5175
53454SOL    HW166967  12.653   6.645   7.587 -0.2279 -1.6544 -0.7511
53454SOL    HW266968  12.724   6.687   7.460  0.4190  0.8487  0.3825
53455SOL     OW66969  10.805   9.613   5.552  0.4146  0.2176 -0.1473
53455SOL    HW166970  10.844   9.674   5.490 -0.1927  1.3571  0.5633
53455SOL    HW266971  10.788   9.665   5.630 -1.7492 -0.4175 -0.1261
53456SOL     OW66972   0.506   7.560   6.515 -0.5340 -0.1193  0.1326
53456SOL    HW166973   0.496   7.640   6.463  0.4309  1.3381  2.0849
53456SOL    HW266974   0.586   7.519   6.481 -0.4547  0.2873 -0.1773
53457SOL     OW66975   2.110   6.920   3.530 -0.2587  0.0392 -0.0330
53457SOL    HW166976   2.019   6.901   3.552 -0.8419  1.2803 -1.2253
53457SOL    HW266977   2.127   6.869   3.451  0.5109 -1.1570  0.8613
53458SOL     OW66978   5.080   6.695  12.205 -1.0418  0.0373  0.6355
53458SOL    HW166979   5.118   6.610  12.181  2.8695  0.7694  3.3012
53458SOL    HW266980   5.015   6.674  12.273 -2.1963 -0.9296 -0.7088
53459SOL     OW66981   5.702   0.273   0.083 -0.6124  0.3607  0.1044
53459SOL    HW166982   5.616   0.231   0.087  0.4741 -2.3418 -1.9316
53459SOL    HW266983   5.755   0.224   0.145  0.2502 -0.2420 -1.0692
53460SOL     OW66984  11.043   4.044   4.475  0.1595  0.0724 -0.0371
53460SOL    HW166985  11.102   3.977   4.510 -0.9985 -0.1567  1.5827
53460SOL    HW266986  11.101   4.112   4.443  1.3530 -1.3212 -1.0024
53461SOL     OW66987   5.906  11.767   0.863  0.3610  0.3522  0.1518
53461SOL    HW166988   5.857  11.724   0.934  1.5122  0.7444  1.2224
53461SOL    HW266989   5.854  11.843   0.840 -1.0657 -0.8820 -0.8819
53462SOL     OW66990   6.919   3.488   3.582  0.6720  0.3151 -0.8327
53462SOL    HW166991   7.006   3.457   3.557  0.9172  0.8860 -0.7168
53462SOL    HW266992   6.920   3.582   3.562  0.4655  0.5573  0.2018
53463SOL     OW66993  11.668   0.188   5.111 -0.3131 -0.3340 -1.0072
53463SOL    HW166994  11.617   0.113   5.141  1.2309 -0.7724  0.7948
53463SOL    HW266995  11.609   0.263   5.120 -1.0205 -0.9751 -0.0878
53464SOL     OW66996   1.683  11.802  10.647  0.4094 -0.7505 -0.8845
53464SOL    HW166997   1.664  11.808  10.554  0.2382 -0.7278 -0.8485
53464SOL    HW266998   1.684  11.893  10.677  0.1655 -0.7722 -0.8057
53465SOL     OW66999   9.310   6.094  10.675  0.3668 -0.0151  0.8357
53465SOL    HW167000   9.235   6.034  10.673 -0.6655  1.2339  1.2740
53465SOL    HW267001   9.320   6.122  10.584  2.2671 -2.4801  0.1759
53466SOL     OW67002  12.272   2.064  12.037  0.0802  0.4445  0.2324
53466SOL    HW167003  12.287   1.974  12.006 -0.6377  0.2036  0.5726
53466SOL    HW267004  12.192   2.091  11.993  0.1479  0.8286  0.3442
53467SOL     OW67005  11.331  10.991   3.573 -0.2054  0.4779  0.1010
53467SOL    HW167006  11.330  11.085   3.593  1.0458  0.5037  0.0980
53467SOL    HW267007  11.367  10.950   3.652 -1.0602 -0.0446  0.2338
53468SOL     OW67008   3.121   7.293   2.494 -0.5533 -0.2444 -0.7084
53468SOL    HW167009   3.055   7.331   2.553 -0.6022 -0.1844 -0.8019
53468SOL    HW267010   3.189   7.260   2.553  0.6222  2.0344 -0.6456
53469SOL     OW67011   1.269   5.552   6.250  0.0228  0.2026  0.0882
53469SOL    HW167012   1.296   5.535   6.340 -1.5484  0.7792  0.6987
53469SOL    HW267013   1.212   5.628   6.256  2.2186  2.1934 -1.7742
53470SOL     OW67014  11.499   1.297  11.896 -0.0292  0.2841  0.0298
53470SOL    HW167015  11.435   1.367  11.885  0.7969  0.8974 -1.0934
53470SOL    HW267016  11.523   1.300  11.988  0.1651  1.6563 -0.0409
53471SOL     OW67017  12.595   5.147  12.696  0.1236 -0.2952  0.3135
53471SOL    HW167018  12.630   5.199  12.769 -0.1722  0.4339 -0.0504
53471SOL    HW267019  12.666   5.090  12.670  0.3477 -0.3080  0.9498
53472SOL     OW67020   3.436   0.528   1.837 -0.3134 -0.1442 -0.1060
53472SOL    HW167021   3.352   0.531   1.790  0.5006 -1.3106 -1.7412
53472SOL    HW267022   3.436   0.443   1.881 -1.0010  0.8800  1.9639
53473SOL     OW67023   0.062  12.366   7.640 -0.4575 -0.2157 -0.0633
53473SOL    HW167024   0.081  12.397   7.551 -0.7514  1.2264  0.3430
53473SOL    HW267025   0.004  12.433   7.676  1.2167  0.2840  1.8945
53474SOL     OW67026   4.272   9.773   2.222 -0.0600  0.4694 -0.2434
53474SOL    HW167027   4.199   9.822   2.185 -0.1585  0.9780  0.5822
53474SOL    HW267028   4.267   9.687   2.181 -0.5372  0.8024 -0.9144
53475SOL     OW67029   1.828  12.603   2.374 -0.3492 -0.1262  0.9284
53475SOL    HW167030   1.911  12.629   2.334 -1.4093 -0.0599 -1.4143
53475SOL    HW267031   1.851  12.530   2.431  1.4135  0.3579  0.8954
53476SOL     OW67032   8.123   5.108   4.205 -0.0610 -0.1130 -0.0063
53476SOL    HW167033   8.152   5.076   4.120 -0.9708 -1.0753  0.0171
53476SOL    HW267034   8.191   5.169   4.233 -0.2773  1.1061 -1.9202
53477SOL     OW67035   3.821   3.209   9.723 -0.0994 -0.6434  0.1853
53477SOL    HW167036   3.897   3.228   9.779 -0.5797 -2.1008  1.4380
53477SOL    HW267037   3.801   3.291   9.679  1.9103 -0.1094  0.1852
53478SOL     OW67038   7.484   5.589   1.367  0.0338  0.0048 -0.4001
53478SOL    HW167039   7.531   5.566   1.287  0.3971 -1.7160  0.2648
53478SOL    HW267040   7.402   5.541   1.361  0.2871 -0.5473  0.5005
53479SOL     OW67041   5.642   5.343   3.258 -0.2563 -0.1290 -0.0933
53479SOL    HW167042   5.603   5.354   3.344  0.4269  0.1460  0.1924
53479SOL    HW267043   5.644   5.432   3.221 -2.7518 -0.5458 -1.4018
53480SOL     OW67044   3.693   9.614  10.707 -0.1458 -0.1259 -0.5524
53480SOL    HW167045   3.650   9.681  10.759 -0.7364 -0.7494 -0.2228
53480SOL    HW267046   3.627   9.586  10.644 -0.2869 -1.1897  0.0478
53481SOL     OW67047   1.877   3.357   4.583  0.2803  0.0053 -0.2545
53481SOL    HW167048   1.828   3.387   4.507 -0.3501 -0.0545  0.1222
53481SOL    HW267049   1.818   3.373   4.657 -0.1111 -2.1658 -0.0346
53482SOL     OW67050   0.309  10.952   9.405 -0.9987 -0.4267 -0.0529
53482SOL    HW167051   0.261  10.886   9.354 -2.9953  1.0251 -0.1602
53482SOL    HW267052   0.242  10.996   9.456  0.2139  1.7837 -0.2662
53483SOL     OW67053   7.047   8.690  12.784 -0.1481 -0.3123  0.8622
53483SOL    HW167054   6.996   8.642  12.848  2.7149 -2.2188  1.9213
53483SOL    HW267055   7.005   8.671  12.700 -1.0098 -2.0407  1.6451
53484SOL     OW67056   6.448   8.585   1.856 -0.0311 -0.5254  0.0322
53484SOL    HW167057   6.447   8.494   1.827 -3.4705 -2.0240  3.7706
53484SOL    HW267058   6.372   8.624   1.813  0.0614 -0.1524  0.2108
53485SOL     OW67059   1.964  10.492   8.039  0.6594 -0.1667  0.7005
53485SOL    HW167060   1.991  10.431   7.970 -0.6977 -0.1722  0.1523
53485SOL    HW267061   2.044  10.506   8.091  2.0581  0.7683 -1.5474
53486SOL     OW67062   7.466   9.010   2.455  0.0759  0.1984  0.0093
53486SOL    HW167063   7.446   8.958   2.377  1.1732 -1.6178  0.8834
53486SOL    HW267064   7.561   9.012   2.459  0.0380  0.1215  1.3821
53487SOL     OW67065   1.974   7.838   5.277 -0.5505 -0.3437 -0.0584
53487SOL    HW167066   1.936   7.809   5.195  0.6894  0.1015 -0.8217
53487SOL    HW267067   1.946   7.929   5.286 -0.5585 -0.3458 -0.0591
53488SOL     OW67068   2.447   2.393  12.408 -0.4030  0.3790  0.1027
53488SOL    HW167069   2.494   2.383  12.325 -2.8191  2.9302 -1.7627
53488SOL    HW267070   2.408   2.307  12.425 -0.2395 -0.0767 -1.6788
53489SOL     OW67071   1.258   0.714   9.013  0.5286 -0.1451 -0.0500
53489SOL    HW167072   1.309   0.794   9.027 -0.5756  0.6444 -0.3816
53489SOL    HW267073   1.187   0.718   9.078  1.3804 -1.6993  1.0507
53490SOL     OW67074   3.001   3.428   4.010  0.2985  0.2946  0.4050
53490SOL    HW167075   3.006   3.448   4.104  0.1176 -0.1810  0.5184
53490SOL    HW267076   2.913   3.394   3.997  0.8474 -1.2211  0.3865
53491SOL     OW67077   2.362   0.667   0.202  0.3012  0.0786  0.0071
53491SOL    HW167078   2.356   0.602   0.132 -0.1071  0.3715 -0.2323
53491SOL    HW267079   2.329   0.622   0.280 -0.1040  0.0394 -0.1867
53492SOL     OW67080  10.327   2.224  10.537  0.6127  0.0561 -0.2846
53492SOL    HW167081  10.237   2.197  10.553  0.4275  0.4086 -0.7093
53492SOL    HW267082  10.320   2.305  10.487  1.1612 -0.3546 -1.0689
53493SOL     OW67083  12.577   3.069   9.410  0.4376  0.0919  0.0278
53493SOL    HW167084  12.528   3.143   9.374 -0.6539 -0.2346  0.7825
53493SOL    HW267085  12.652   3.058   9.352  0.1454  1.2446 -0.5828
53494SOL     OW67086   3.637   5.210  10.808  0.0937  0.8440  0.2669
53494SOL    HW167087   3.701   5.201  10.738 -1.8471 -0.2552 -1.4962
53494SOL    HW267088   3.675   5.163  10.882  2.1957  2.0238 -0.0119
53495SOL     OW67089   3.145  11.074  11.834  0.8896 -0.0638 -0.7394
53495SOL    HW167090   3.227  11.114  11.863  1.1802 -0.6032 -0.8048
53495SOL    HW267091   3.171  10.989  11.797  0.0167 -1.5803  1.8762
53496SOL     OW67092   8.850  10.158   0.703 -0.1483 -0.4736 -0.2878
53496SOL    HW167093   8.788  10.226   0.729  1.7690  0.3985  2.4603
53496SOL    HW267094   8.881  10.186   0.617 -1.8676  0.2567 -0.7213
53497SOL     OW67095   4.305   3.368   9.572  0.8521 -0.2304 -0.0312
53497SOL    HW167096   4.281   3.336   9.485 -1.1662 -0.6728  0.6284
53497SOL    HW267097   4.333   3.290   9.619  0.9424 -0.1713  0.0116
53498SOL     OW67098   6.559   6.133   4.256  0.0026 -0.4430  0.1714
53498SOL    HW167099   6.596   6.123   4.343 -0.3024  2.4856  0.7299
53498SOL    HW267100   6.633   6.161   4.201 -0.1216 -0.7407 -0.1523
53499SOL     OW67101  12.559   8.132   6.688 -0.0141  0.2941  0.3686
53499SOL    HW167102  12.566   8.054   6.742  0.6643 -0.5412 -0.8648
53499SOL    HW267103  12.623   8.119   6.618  0.5895  2.2609  0.4802
53500SOL     OW67104  10.046   7.549  10.976 -0.0475  0.2283 -0.1204
53500SOL    HW167105  10.105   7.610  10.932 -0.4808 -1.6775 -3.7717
53500SOL    HW267106   9.979   7.529  10.910 -4.0339  1.1203  3.2626
53501SOL     OW67107   1.042   8.001   8.827 -0.1043 -0.3545  0.2125
53501SOL    HW167108   1.018   7.978   8.737 -0.9478  1.6271 -0.1230
53501SOL    HW267109   1.056   8.096   8.825  0.8014 -0.4065  1.9859
53502SOL     OW67110  12.535   9.961   3.973 -0.0284  0.3539 -0.2269
53502SOL    HW167111  12.575   9.881   4.007 -0.4178  0.3901  0.3225
53502SOL    HW267112  12.592  10.031   4.004  0.4347  0.2831 -0.8906
53503SOL     OW67113   4.376   7.519   2.528  0.8609  0.1755  0.2898
53503SOL    HW167114   4.394   7.431   2.561  0.2938 -0.2872 -0.5665
53503SOL    HW267115   4.286   7.537   2.557  0.4979 -0.0797 -0.6069
53504SOL     OW67116   8.980  12.702  10.994 -0.4769 -0.3898  0.2945
53504SOL    HW167117   9.074  12.718  10.998 -0.5099  0.0954 -0.4650
53504SOL    HW267118   8.959  12.710  10.901 -1.7571  2.6454  0.7087
53505SOL     OW67119  10.960  11.262   5.822 -0.0607  0.4706  0.1305
53505SOL    HW167120  10.894  11.292   5.885  0.6968  1.5297  0.4475
53505SOL    HW267121  10.999  11.342   5.787 -1.6948 -0.0024 -3.1167
53506SOL     OW67122   5.252   4.300   0.879 -0.1088 -0.3258 -0.0870
53506SOL    HW167123   5.158   4.316   0.880 -0.1015 -0.1524 -1.4843
53506SOL    HW267124   5.261   4.209   0.848  0.1967 -0.2164 -0.3258
53507SOL     OW67125   5.904   4.910   8.111 -0.6761  0.0488 -0.8422
53507SOL    HW167126   5.977   4.893   8.171 -1.0506  1.3337  0.0078
53507SOL    HW267127   5.946   4.927   8.027  0.0218  0.7516 -0.3657
53508SOL     OW67128   6.235   4.288  11.381 -0.7770  0.1745  0.5064
53508SOL    HW167129   6.248   4.291  11.475  0.1791  1.1972  0.3678
53508SOL    HW267130   6.141   4.278  11.369 -0.7070 -2.3486  1.5649
53509SOL     OW67131   0.369   0.956   7.989  0.2073  0.2943 -0.5499
53509SOL    HW167132   0.359   1.022   7.921 -0.3614 -0.0906 -0.8539
53509SOL    HW267133   0.291   0.965   8.043  0.0395 -0.2269 -0.6912
53510SOL     OW67134   8.274   5.588  11.787 -0.2622  0.0322 -0.1447
53510SOL    HW167135   8.229   5.670  11.769  0.1652  0.5684  1.1244
53510SOL    HW267136   8.207   5.531  11.824 -0.3360  0.1489 -0.0993
53511SOL     OW67137   6.640   3.835   9.014  0.1199 -1.1854 -0.1684
53511SOL    HW167138   6.678   3.909   9.063  0.7664  0.4017 -2.8453
53511SOL    HW267139   6.546   3.841   9.032  0.2375 -0.1084  0.2118
53512SOL     OW67140   0.859   5.540   7.162 -0.0256 -0.0524 -0.5782
53512SOL    HW167141   0.933   5.484   7.139  0.7455  0.0228  1.5786
53512SOL    HW267142   0.786   5.479   7.176  0.3018 -0.3567 -0.1766
53513SOL     OW67143   6.542   4.610  12.681  0.1407 -0.0941  0.4951
53513SOL    HW167144   6.457   4.646  12.653 -0.5841 -1.2753  1.1040
53513SOL    HW267145   6.580   4.573  12.601 -0.3896 -0.4752  0.4144
53514SOL     OW67146   8.528  12.227  12.605 -0.0479  0.2440 -0.1029
53514SOL    HW167147   8.563  12.295  12.663 -0.4284  3.0850 -2.9181
53514SOL    HW267148   8.437  12.217  12.631  0.5842 -0.9891  1.8197
53515SOL     OW67149   0.480   7.495  10.858 -0.2915  0.0327 -0.0800
53515SOL    HW167150   0.405   7.536  10.814 -0.4152  3.2241  2.7123
53515SOL    HW267151   0.442   7.440  10.926 -0.0787 -0.6828 -0.5288
53516SOL     OW67152  10.604   0.744  11.727  0.2067 -0.1712 -0.0837
53516SOL    HW167153  10.642   0.670  11.774 -0.4301 -0.2863  0.2758
53516SOL    HW267154  10.518   0.712  11.698  0.4827 -0.0119 -1.1000
53517SOL     OW67155   2.276   7.179   1.895 -0.2670 -0.1229 -0.3022
53517SOL    HW167156   2.321   7.263   1.889  0.0763 -0.3727 -1.3982
53517SOL    HW267157   2.292   7.150   1.985 -1.2245  1.4322  0.4091
53518SOL     OW67158  11.257  12.269   8.601 -0.1505  0.0789  0.1408
53518SOL    HW167159  11.279  12.176   8.605 -0.3501 -0.1546 -2.5548
53518SOL    HW267160  11.342  12.314   8.607 -0.0441 -0.2532  1.3298
53519SOL     OW67161   6.656   5.081   5.169 -0.3095  0.3582 -0.1161
53519SOL    HW167162   6.702   5.109   5.090 -0.7255 -0.5313 -0.6876
53519SOL    HW267163   6.662   4.985   5.167 -1.1074  0.2911  0.4491
53520SOL     OW67164   3.406   7.682  12.726 -0.1329 -0.1040 -0.2556
53520SOL    HW167165   3.369   7.759  12.769  0.7470  1.4018 -2.1186
53520SOL    HW267166   3.331   7.642  12.681 -0.3854  0.2424 -0.1490
53521SOL     OW67167   8.295   1.456   1.621  0.2629  0.1569 -0.0282
53521SOL    HW167168   8.215   1.415   1.587  1.2030 -1.5055 -0.3082
53521SOL    HW267169   8.334   1.498   1.545  0.4879 -0.4315 -0.2420
53522SOL     OW67170   3.814   8.483  10.079  0.3196 -0.2086  0.0050
53522SOL    HW167171   3.902   8.445  10.082  0.2646 -0.4494 -1.0318
53522SOL    HW267172   3.826   8.570  10.044  0.1615 -0.1763  0.0257
53523SOL     OW67173   0.766   0.515   3.289  0.2274  0.0365  0.0138
53523SOL    HW167174   0.840   0.536   3.233  0.1006 -1.5333 -0.8051
53523SOL    HW267175   0.804   0.494   3.374  0.9849 -2.6887 -0.9091
53524SOL     OW67176   6.760   3.632  11.631 -0.0657  0.1667 -0.2801
53524SOL    HW167177   6.674   3.611  11.593  0.3751 -1.3122 -0.5190
53524SOL    HW267178   6.768   3.572  11.706 -0.0618  1.6573  0.9711
53525SOL     OW67179  11.699   7.551   1.090  0.1621  0.1869 -0.6895
53525SOL    HW167180  11.785   7.519   1.061  0.3780 -0.1636  0.3093
53525SOL    HW267181  11.661   7.478   1.139 -0.0466  0.8715  0.1996
53526SOL     OW67182   5.210   6.515   6.262  0.3765  0.2032 -0.2154
53526SOL    HW167183   5.194   6.448   6.329  1.9213  0.8197  0.8394
53526SOL    HW267184   5.129   6.566   6.260 -0.0600 -0.4319  0.4641
53527SOL     OW67185   6.344   3.909   1.363  0.5174  0.3121  0.3678
53527SOL    HW167186   6.391   3.936   1.284 -1.5494  0.6406 -0.8181
53527SOL    HW267187   6.388   3.829   1.390  0.4121 -0.6177 -1.9699
53528SOL     OW67188   3.275   6.499   5.570 -0.0864  0.3741  0.0851
53528SOL    HW167189   3.286   6.538   5.657  1.4956 -2.2465  1.2018
53528SOL    HW267190   3.314   6.563   5.510  1.1899  1.1300  1.6281
53529SOL     OW67191   8.265   0.717  10.945 -0.0101 -0.2020 -0.5025
53529SOL    HW167192   8.269   0.761  11.030 -0.6947  0.8305 -0.9726
53529SOL    HW267193   8.216   0.636  10.962 -1.2942  0.6113 -0.1213
53530SOL     OW67194   6.650   0.380   5.735  0.0864 -0.1669  0.4383
53530SOL    HW167195   6.594   0.355   5.661  1.0948 -1.2758  0.0153
53530SOL    HW267196   6.590   0.391   5.808 -0.7123 -1.1212 -0.0452
53531SOL     OW67197   7.317  10.078   7.141  0.1769 -0.1317 -0.1694
53531SOL    HW167198   7.335   9.988   7.166  0.8142  0.0683  0.1083
53531SOL    HW267199   7.232  10.075   7.098 -0.1078 -0.7634  0.4266
53532SOL     OW67200   8.386   2.659   1.930 -0.0728 -0.1504  0.0915
53532SOL    HW167201   8.359   2.732   1.985 -1.5584 -0.8030  0.2824
53532SOL    HW267202   8.456   2.617   1.979  0.0124  0.4800  0.5185
53533SOL     OW67203   7.603   8.656   3.739  0.2811 -0.3178 -0.0343
53533SOL    HW167204   7.690   8.617   3.748  0.7726  0.9148  0.8256
53533SOL    HW267205   7.555   8.595   3.683  2.0600 -0.4516 -1.5279
53534SOL     OW67206   0.607   8.090   3.505  0.5550  0.1969  0.6069
53534SOL    HW167207   0.569   8.007   3.532  3.3215 -0.5400  2.8435
53534SOL    HW267208   0.697   8.068   3.481  0.5747  2.1892 -1.4404
53535SOL     OW67209   3.306   6.541   1.095 -0.2431 -0.4143 -0.3988
53535SOL    HW167210   3.278   6.469   1.038  0.0877 -2.2368  1.6060
53535SOL    HW267211   3.380   6.581   1.048 -1.4907 -0.2397 -2.3291
53536SOL     OW67212   3.283   2.699   9.597  0.2058  0.0188 -0.3703
53536SOL    HW167213   3.202   2.722   9.643  0.0444 -1.3332  0.0698
53536SOL    HW267214   3.338   2.659   9.664  2.8678  4.1851  0.3206
53537SOL     OW67215   9.648   4.714   0.925  0.0602 -0.3548  0.0320
53537SOL    HW167216   9.621   4.770   0.997 -0.9804 -0.5660 -0.1713
53537SOL    HW267217   9.566   4.686   0.884  0.6195  0.7361 -2.0037
53538SOL     OW67218   7.471   6.586   2.166 -0.6551  0.5816  0.1593
53538SOL    HW167219   7.563   6.605   2.184 -0.6732 -0.5288  1.5668
53538SOL    HW267220   7.472   6.531   2.088 -0.2594  1.9242 -0.8063
53539SOL     OW67221   0.255   7.918   2.346 -0.4175 -0.0492 -0.4406
53539SOL    HW167222   0.271   7.950   2.257 -0.1188  0.2749 -0.2744
53539SOL    HW267223   0.236   7.825   2.335 -1.4189  0.1978 -0.9484
53540SOL     OW67224   4.528   9.429  11.897  0.0075  0.4172  0.3371
53540SOL    HW167225   4.470   9.473  11.834  0.6183 -0.6104 -1.0016
53540SOL    HW267226   4.505   9.467  11.982 -0.6822  2.0210 -0.5329
53541SOL     OW67227   7.918   1.719   6.320 -0.5107  0.2762 -0.0552
53541SOL    HW167228   7.847   1.782   6.311  0.3952  1.2806 -0.4528
53541SOL    HW267229   7.943   1.699   6.230  1.0349  1.5146  0.0593
53542SOL     OW67230   5.083   7.961   2.290 -0.5041 -0.2101 -0.3852
53542SOL    HW167231   5.044   7.972   2.204 -2.0569  0.4894  0.3657
53542SOL    HW267232   5.065   8.043   2.336 -0.4412 -0.8679  0.8743
53543SOL     OW67233   8.577   7.050   2.442  0.8100  0.5432 -0.2862
53543SOL    HW167234   8.507   7.035   2.379 -1.0450  0.6982  1.6361
53543SOL    HW267235   8.571   7.144   2.462  0.3368  0.2160  1.2264
53544SOL     OW67236  12.484   2.646   0.232 -0.2806  0.2892 -0.5431
53544SOL    HW167237  12.445   2.571   0.276 -0.4807 -0.1267 -1.3963
53544SOL    HW267238  12.421   2.667   0.162  0.7757 -0.0860 -1.6403
53545SOL     OW67239   9.399   9.770   8.446 -0.0664  0.1585  0.4301
53545SOL    HW167240   9.390   9.866   8.448 -2.8133 -0.0006 -0.6464
53545SOL    HW267241   9.429   9.751   8.358  0.3151 -0.0068  0.5928
53546SOL     OW67242   8.186   6.310   3.660 -0.2835  0.3678  0.3654
53546SOL    HW167243   8.128   6.236   3.678  0.3612 -0.6076 -1.3353
53546SOL    HW267244   8.151   6.349   3.580 -0.0089  1.2880  0.6794
53547SOL     OW67245   1.484   4.206   8.753 -0.2511 -0.1986  0.4224
53547SOL    HW167246   1.559   4.174   8.703 -1.2317 -1.0455 -0.5921
53547SOL    HW267247   1.470   4.295   8.721  1.3796  0.6367  1.9193
53548SOL     OW67248  12.012  11.043   3.856  0.2514  0.1915  0.0072
53548SOL    HW167249  11.954  10.991   3.799 -0.9123  0.5083  0.8649
53548SOL    HW267250  12.031  10.985   3.930  0.7152  0.2302 -0.0809
53549SOL     OW67251   1.267   6.433   6.917  0.2522 -0.2212 -0.2745
53549SOL    HW167252   1.265   6.460   6.826  2.6205  2.5017  0.3492
53549SOL    HW267253   1.243   6.340   6.915 -0.2425 -0.1294 -3.5536
53550SOL     OW67254   6.528   8.694   8.913  0.3155 -0.0838  0.3067
53550SOL    HW167255   6.442   8.706   8.954 -0.3139 -1.1030 -0.6546
53550SOL    HW267256   6.508   8.656   8.828  1.6578  0.9282 -0.4893
53551SOL     OW67257   8.388   8.108   8.647  0.3069 -0.3335  0.0533
53551SOL    HW167258   8.336   8.033   8.617  1.8380 -1.0404 -0.9894
53551SOL    HW267259   8.325   8.167   8.688 -1.3600 -0.9515 -1.5108
53552SOL     OW67260   8.603   6.711   5.182  0.3507 -0.8143 -0.6139
53552SOL    HW167261   8.523   6.676   5.221 -0.1531  0.3317 -0.5875
53552SOL    HW267262   8.579   6.731   5.091  0.7385 -0.8955 -0.7366
53553SOL     OW67263   7.460  12.341   2.118 -0.4505  0.0172 -0.2319
53553SOL    HW167264   7.430  12.250   2.112 -0.8302  0.1912 -1.1929
53553SOL    HW267265   7.521  12.341   2.192  2.5448 -1.8901 -2.4597
53554SOL     OW67266  10.327   1.995   6.017 -0.5953 -0.0944 -0.2259
53554SOL    HW167267  10.415   2.027   6.034 -0.7993  0.3303  0.0643
53554SOL    HW267268  10.274   2.034   6.087 -1.4283  1.5201 -1.6839
53555SOL     OW67269   3.587   6.390   5.381 -0.2492  0.5396  0.3363
53555SOL    HW167270   3.548   6.478   5.382  0.7370  0.9941 -0.2462
53555SOL    HW267271   3.550   6.349   5.303  1.2929  1.3930 -0.8930
53556SOL     OW67272   5.820   2.261   3.962 -0.1145  0.0172 -0.3278
53556SOL    HW167273   5.843   2.285   4.052 -1.5562 -1.3360  0.4594
53556SOL    HW267274   5.725   2.245   3.965 -0.3518  0.8266 -2.3104
53557SOL     OW67275  12.007   0.494  12.668  0.0804 -0.0465  0.1229
53557SOL    HW167276  12.096   0.508  12.702  0.4551  0.1473 -0.8758
53557SOL    HW267277  11.949   0.533  12.733  0.7908  0.7510  0.2912
53558SOL     OW67278   2.043  10.304   5.060 -0.5015  0.3502 -0.1910
53558SOL    HW167279   1.953  10.323   5.089 -0.2842  1.4192 -0.1868
53558SOL    HW267280   2.031  10.257   4.978 -1.0739 -0.0731  0.1203
53559SOL     OW67281   0.139   5.783   9.020  0.0506  0.1745  0.0137
53559SOL    HW167282   0.165   5.693   9.038  0.4742 -0.2365 -2.3759
53559SOL    HW267283   0.208   5.817   8.963 -0.8153  1.5717 -0.2567
53560SOL     OW67284  12.258   3.419   2.395  0.4954 -0.3998  0.3260
53560SOL    HW167285  12.206   3.374   2.462 -0.1266 -0.8139 -0.4188
53560SOL    HW267286  12.335   3.451   2.442  0.4600 -1.3785  1.0726
53561SOL     OW67287  11.487   6.730   8.831 -0.0283  1.0077 -0.0359
53561SOL    HW167288  11.462   6.672   8.759  2.5044 -0.8962  0.4803
53561SOL    HW267289  11.454   6.816   8.805 -0.4178  0.1253 -2.7897
53562SOL     OW67290   4.312  11.472  10.905  0.0629 -0.5023  0.6719
53562SOL    HW167291   4.245  11.538  10.888  0.4840  0.5569  2.7278
53562SOL    HW267292   4.346  11.449  10.819 -1.9235  0.0025 -0.2985
53563SOL     OW67293   1.090  12.547   0.548 -0.9493 -0.1410 -0.4595
53563SOL    HW167294   1.043  12.585   0.474  0.4910 -2.3060 -2.6467
53563SOL    HW267295   1.060  12.456   0.552  1.3094 -0.9486 -0.4743
53564SOL     OW67296   2.324   1.929   3.545  0.5128 -0.1374 -0.6711
53564SOL    HW167297   2.294   1.973   3.465  0.0871  0.5132 -0.1738
53564SOL    HW267298   2.419   1.921   3.535  0.8855  2.4607 -0.0885
53565SOL     OW67299  10.028   8.777   4.985 -0.3297  0.3282 -0.1252
53565SOL    HW167300   9.947   8.818   5.016  0.4790  0.0542  2.6169
53565SOL    HW267301  10.089   8.850   4.975 -0.8540  0.5376 -2.2148
53566SOL     OW67302   1.212   8.002  10.983 -0.1309  0.0179  0.3091
53566SOL    HW167303   1.189   8.083  10.939 -0.9476 -0.8794 -0.9939
53566SOL    HW267304   1.166   8.006  11.067  0.8930  1.4485  0.8386
53567SOL     OW67305  10.278   0.626   7.487  0.2915  0.4134 -0.4370
53567SOL    HW167306  10.310   0.542   7.519  1.0941  1.0124  0.3759
53567SOL    HW267307  10.210   0.651   7.548 -0.6307 -0.0893 -1.2364
53568SOL     OW67308   8.023   5.831   0.844  0.1053  0.2533  0.2464
53568SOL    HW167309   7.937   5.872   0.845  0.5304  1.1534  0.7026
53568SOL    HW267310   8.073   5.878   0.911  0.9242 -0.3073  0.0383
53569SOL     OW67311   3.884   6.634   7.877  0.4534 -0.0684 -0.1676
53569SOL    HW167312   3.898   6.715   7.827  0.5032 -0.1300 -0.2540
53569SOL    HW267313   3.946   6.640   7.949  2.2251 -1.1499 -1.5035
53570SOL     OW67314  10.211  12.551  10.653  0.0663  0.0154 -0.2956
53570SOL    HW167315  10.196  12.637  10.693 -0.2039 -0.6959  1.1928
53570SOL    HW267316  10.129  12.531  10.608  0.6898  1.2336 -2.0534
53571SOL     OW67317  10.408   5.060   8.230 -0.2356  0.1581  0.2187
53571SOL    HW167318  10.365   5.096   8.308 -1.7147 -0.8096 -0.1138
53571SOL    HW267319  10.489   5.022   8.263 -0.5319  0.3273  1.1789
53572SOL     OW67320   5.319   0.406   5.379 -0.3772 -0.2412  0.3752
53572SOL    HW167321   5.391   0.394   5.317 -0.5229  1.1315 -0.0923
53572SOL    HW267322   5.273   0.322   5.379  0.5549 -0.7669 -0.1794
53573SOL     OW67323   5.850   0.637   2.645 -0.0476 -0.3184  0.6994
53573SOL    HW167324   5.787   0.703   2.617 -0.3325 -0.9516 -0.2098
53573SOL    HW267325   5.910   0.629   2.570 -0.1134 -1.1941  0.7288
53574SOL     OW67326   6.853   5.104   9.609  0.6002  0.1894  0.1932
53574SOL    HW167327   6.787   5.036   9.627  0.5860  0.3034  0.5852
53574SOL    HW267328   6.926   5.082   9.666 -0.0041  1.3701  1.4865
53575SOL     OW67329   0.735   3.730   2.185  0.4977 -0.7134 -0.0475
53575SOL    HW167330   0.790   3.684   2.121  2.9996  2.9294 -0.8096
53575SOL    HW267331   0.796   3.786   2.233 -2.3042  2.7522 -0.0983
53576SOL     OW67332   9.809   1.720   4.221 -0.0284  0.5836 -0.0672
53576SOL    HW167333   9.747   1.757   4.284 -0.0118  1.4670 -0.5562
53576SOL    HW267334   9.755   1.668   4.161 -0.0175 -0.4572  0.7910
53577SOL     OW67335   3.656   0.685   1.240  0.1826 -0.2549 -0.6473
53577SOL    HW167336   3.696   0.654   1.321  2.2486 -0.1751 -1.5703
53577SOL    HW267337   3.674   0.779   1.240 -2.0078  0.2215 -0.0591
53578SOL     OW67338   9.152  10.315   6.549  0.1970 -0.5240  0.0000
53578SOL    HW167339   9.243  10.306   6.519  0.7591 -1.1169  1.7780
53578SOL    HW267340   9.125  10.401   6.516  1.6213 -0.0523 -0.0109
53579SOL     OW67341   3.134   7.464  11.488  0.3766  0.8489 -0.3314
53579SOL    HW167342   3.153   7.437  11.398  1.6593  1.0799 -0.1478
53579SOL    HW267343   3.081   7.393  11.524 -1.0572  1.2406 -1.5795
53580SOL     OW67344   3.305   2.284   1.659 -0.6534 -0.0820 -0.0682
53580SOL    HW167345   3.348   2.369   1.668 -0.3906 -0.1776 -0.4266
53580SOL    HW267346   3.350   2.227   1.721 -0.9928  0.0972  0.3550
53581SOL     OW67347   1.250   1.516   4.249  0.1595 -0.3102  0.1727
53581SOL    HW167348   1.289   1.595   4.211 -1.9368  0.3858 -0.6527
53581SOL    HW267349   1.280   1.445   4.192  1.6040 -0.0726  0.5913
53582SOL     OW67350   9.358   1.965  12.039 -0.4965  0.3815 -0.6359
53582SOL    HW167351   9.333   1.882  11.999 -0.0085  0.1410 -0.4547
53582SOL    HW267352   9.432   1.995  11.986  0.1703  0.0484  0.0911
53583SOL     OW67353   0.207   2.361   0.889 -0.3826 -0.3757 -0.1687
53583SOL    HW167354   0.131   2.368   0.831 -0.4142  2.3449  0.0703
53583SOL    HW267355   0.209   2.444   0.935  1.2275 -1.4233  1.8028
53584SOL     OW67356  10.264   1.080   1.726 -0.7988 -0.0945 -0.7637
53584SOL    HW167357  10.253   0.985   1.718 -1.3200 -0.1257  0.1597
53584SOL    HW267358  10.355   1.092   1.751 -1.3008 -0.5389  1.5094
53585SOL     OW67359   8.366   5.589   0.228 -0.0495 -0.0579  0.2794
53585SOL    HW167360   8.454   5.555   0.243 -0.0924 -0.2039  0.1989
53585SOL    HW267361   8.340   5.552   0.144 -0.8073 -1.2897  1.0345
53586SOL     OW67362   5.062   0.198  12.098  0.4577 -0.2228 -0.1085
53586SOL    HW167363   5.151   0.212  12.130  0.6378 -0.8091 -0.3374
53586SOL    HW267364   5.034   0.117  12.140  0.1223 -0.1723 -0.2321
53587SOL     OW67365   8.159   2.156   4.010 -0.0629  1.1715  0.0402
53587SOL    HW167366   8.177   2.102   3.933  0.0594  1.9345 -0.4865
53587SOL    HW267367   8.073   2.127   4.041  0.3383  0.1636  0.2347
53588SOL     OW67368   8.192   7.611   0.918 -0.2716  0.8477  0.1450
53588SOL    HW167369   8.124   7.636   0.980 -0.7106 -0.2681  0.1379
53588SOL    HW267370   8.197   7.684   0.857 -0.0030  1.8570  1.3390
53589SOL     OW67371   1.774   5.492   2.700  0.3834  1.2973 -0.2758
53589SOL    HW167372   1.865   5.469   2.714  0.6281  1.5517 -1.4085
53589SOL    HW267373   1.736   5.417   2.655 -0.5640  0.2143  2.1675
53590SOL     OW67374  12.290   0.107   6.288  0.3906 -0.1270  0.1345
53590SOL    HW167375  12.263   0.085   6.199  0.5775 -1.1192  0.3210
53590SOL    HW267376  12.381   0.136   6.278  0.5785 -0.7286  0.0698
53591SOL     OW67377   5.915   5.614  10.435 -0.0445 -0.4115 -0.6148
53591SOL    HW167378   5.902   5.625  10.529 -0.7854 -0.1924 -0.7323
53591SOL    HW267379   6.010   5.613  10.423  0.0614 -1.4425  0.2392
53592SOL     OW67380  12.731   4.835   9.183  0.3586 -0.5893 -0.7382
53592SOL    HW167381  12.786   4.873   9.114  1.3961 -0.2484  0.2542
53592SOL    HW267382  12.736   4.740   9.168  2.1116 -0.6460 -0.0491
53593SOL     OW67383   3.676  12.223   3.831 -0.6878 -0.2768  0.2358
53593SOL    HW167384   3.644  12.148   3.782 -0.9829 -0.7234  1.0913
53593SOL    HW267385   3.642  12.210   3.920  0.6684 -0.0292  0.8190
53594SOL     OW67386   6.643  11.192   4.972  0.1729  0.5131 -0.2276
53594SOL    HW167387   6.575  11.243   5.015 -0.6220 -0.7070  0.0235
53594SOL    HW267388   6.613  11.185   4.881  0.1753  0.3395 -0.2157
53595SOL     OW67389   1.334   1.986  12.001 -0.2320 -0.7619 -0.1449
53595SOL    HW167390   1.359   1.979  11.909  0.2064  2.0864 -0.3339
53595SOL    HW267391   1.246   2.022  11.999 -0.1987 -0.6294  0.5584
53596SOL     OW67392   8.336   1.901   9.878 -0.0485 -0.0340  0.2121
53596SOL    HW167393   8.328   1.806   9.868 -1.8139  0.0437  0.5396
53596SOL    HW267394   8.252   1.928   9.916  1.0060  1.4588  1.6004
53597SOL     OW67395   4.185  10.258  10.307 -0.0903 -0.3485  0.8251
53597SOL    HW167396   4.207  10.324  10.373 -1.3445  0.3234  0.6014
53597SOL    HW267397   4.206  10.299  10.224 -1.0499 -0.1264  0.6745
53598SOL     OW67398  12.038   7.565   3.415  0.4128  0.8147  0.7090
53598SOL    HW167399  12.124   7.537   3.445  0.0485 -1.1204  0.0942
53598SOL    HW267400  11.980   7.551   3.490  0.3528  0.5807  0.6195
53599SOL     OW67401   6.608   2.049   7.645 -0.3403 -0.1648  0.9109
53599SOL    HW167402   6.577   1.993   7.573 -0.6160 -1.3615  1.9320
53599SOL    HW267403   6.564   2.132   7.631  0.1292 -0.1519 -0.6952
53600SOL     OW67404   5.353   9.830   7.893  0.3006  0.0793 -0.9901
53600SOL    HW167405   5.316   9.742   7.883 -0.2321  0.3625 -1.5850
53600SOL    HW267406   5.446   9.820   7.872  0.2917 -0.3916 -0.8009
53601SOL     OW67407   0.762  10.128   7.760  0.6657 -0.1571  0.4940
53601SOL    HW167408   0.766  10.047   7.709  0.5518  0.0043  0.2252
53601SOL    HW267409   0.804  10.106   7.843 -0.4922 -0.8565  0.9207
53602SOL     OW67410  11.939  11.091   4.147 -0.1311 -0.1926 -0.6809
53602SOL    HW167411  11.962  11.173   4.103  1.1296  0.4865  1.0912
53602SOL    HW267412  11.848  11.101   4.173 -0.6230 -0.2502 -2.2579
53603SOL     OW67413   5.618  10.888   5.751  0.5479  0.4144 -0.3693
53603SOL    HW167414   5.536  10.850   5.719 -0.2015  2.0397 -0.4904
53603SOL    HW267415   5.592  10.972   5.789  1.7795 -0.2169  2.0884
53604SOL     OW67416   0.539   6.722   6.249  0.0058  0.1470 -0.9243
53604SOL    HW167417   0.478   6.664   6.296 -0.5686  1.0732 -0.5028
53604SOL    HW267418   0.600   6.752   6.317  0.1214  0.2662 -1.0819
53605SOL     OW67419  11.400  11.000   8.666 -0.0207  0.3329  0.5486
53605SOL    HW167420  11.477  11.043   8.705  0.8141 -0.4904 -0.1339
53605SOL    HW267421  11.405  10.909   8.697 -1.0514  0.4105  0.9619
53606SOL     OW67422  11.135  10.312   0.588  0.4895 -0.6561  0.0792
53606SOL    HW167423  11.126  10.366   0.510  0.8781  1.0903  1.1702
53606SOL    HW267424  11.066  10.344   0.647  1.3349 -0.6858  1.1073
53607SOL     OW67425   3.232   9.724  10.058 -0.4717 -0.0336  0.1391
53607SOL    HW167426   3.259   9.811  10.030 -0.2262  0.2417  1.2150
53607SOL    HW267427   3.251   9.721  10.151 -0.7866 -1.1255  0.1847
53608SOL     OW67428   0.752   2.766   6.161 -0.1547 -0.5611 -0.2738
53608SOL    HW167429   0.731   2.694   6.221  0.2285 -1.2047 -0.9008
53608SOL    HW267430   0.790   2.723   6.085  1.4562  0.4043 -0.0587
53609SOL     OW67431   6.658   3.182   5.703  0.1500  0.0545  0.0636
53609SOL    HW167432   6.604   3.113   5.664 -1.4980 -0.2445  2.6417
53609SOL    HW267433   6.604   3.260   5.699  0.8385  0.5340 -0.1749
53610SOL     OW67434   6.782   6.793  12.379 -0.3628  0.0032 -0.3459
53610SOL    HW167435   6.750   6.873  12.337  0.0754  0.4316  0.1267
53610SOL    HW267436   6.786   6.815  12.472 -0.0427 -0.5005 -0.2381
53611SOL     OW67437   0.471   3.786   2.222  0.0402  0.5329 -0.9992
53611SOL    HW167438   0.546   3.772   2.164  1.0040  1.7722 -0.0984
53611SOL    HW267439   0.509   3.789   2.310 -1.1617  0.4484 -0.4694
53612SOL     OW67440   9.404   2.429  12.091 -0.2381 -0.2119 -0.1554
53612SOL    HW167441   9.466   2.408  12.162 -0.1659  1.7726  0.4356
53612SOL    HW267442   9.337   2.361  12.097  0.4040 -0.7759  1.0375
53613SOL     OW67443   7.515   8.980  10.653  0.6405 -0.0097 -0.0250
53613SOL    HW167444   7.437   9.011  10.697  0.6368 -1.1738  0.8522
53613SOL    HW267445   7.587   9.027  10.695  0.5653 -0.4562  0.6111
53614SOL     OW67446   5.477   7.107   1.695 -0.5829  0.4733  0.0419
53614SOL    HW167447   5.458   7.014   1.704 -0.0479  0.4305  0.8231
53614SOL    HW267448   5.573   7.111   1.685 -0.4442  1.0260  1.4346
53615SOL     OW67449   8.494   1.345   1.757  0.1224 -0.2399 -0.2487
53615SOL    HW167450   8.529   1.270   1.707  0.1616 -0.8749  0.7080
53615SOL    HW267451   8.412   1.367   1.713 -0.4632 -1.5817  0.1133
53616SOL     OW67452  11.378  11.798   4.381 -0.0642 -0.6013  0.0656
53616SOL    HW167453  11.307  11.850   4.343 -0.2978 -1.2077 -0.3370
53616SOL    HW267454  11.391  11.836   4.468  0.8929  1.2210 -0.7960
53617SOL     OW67455   6.499   7.776   1.502  0.4526  0.4062  0.5246
53617SOL    HW167456   6.492   7.838   1.429  2.8889  1.2746  0.9599
53617SOL    HW267457   6.451   7.699   1.471 -1.9606  2.1290 -0.3691
53618SOL     OW67458   8.407   7.091  11.301  0.1875 -0.0787  0.2313
53618SOL    HW167459   8.364   7.173  11.323 -1.0600 -0.6730  0.1310
53618SOL    HW267460   8.407   7.041  11.383 -1.2200 -0.8876 -0.2316
53619SOL     OW67461   0.811   6.833   1.658  0.5264  0.0394  0.1591
53619SOL    HW167462   0.784   6.911   1.707 -1.3443  1.0216 -2.2460
53619SOL    HW267463   0.729   6.792   1.633  1.4788 -1.7369 -0.1784
53620SOL     OW67464   3.929   3.228  11.926  0.4880 -0.2151 -0.5981
53620SOL    HW167465   3.993   3.249  11.858  1.5385 -1.3306 -0.0133
53620SOL    HW267466   3.876   3.307  11.935 -1.3815 -0.7863 -4.4460
53621SOL     OW67467   8.422   3.125  11.421 -0.0256 -0.0160  0.5604
53621SOL    HW167468   8.497   3.132  11.362 -1.2119  0.8156 -0.9035
53621SOL    HW267469   8.461   3.128  11.509  1.5943  1.0285 -0.1399
53622SOL     OW67470   5.778   4.107  10.111  0.0219  0.2478  0.2871
53622SOL    HW167471   5.760   4.181  10.053 -1.7449 -0.5396 -0.2353
53622SOL    HW267472   5.700   4.099  10.165  0.7825 -0.3672  1.3402
53623SOL     OW67473   4.985  10.634   3.963 -0.3548 -0.2035 -0.5008
53623SOL    HW167474   4.893  10.638   3.991  0.1365  0.3268  1.1313
53623SOL    HW267475   5.026  10.572   4.023  0.4549 -0.0976 -0.9332
53624SOL     OW67476  10.479  12.747   2.180 -0.5258  0.0358  0.3057
53624SOL    HW167477  10.551  12.747   2.117 -0.3781 -0.2032  0.4742
53624SOL    HW267478  10.459  12.840   2.192  2.1885  0.4550  2.9990
53625SOL     OW67479   4.744   0.308   3.405  0.3589  0.2448  0.4028
53625SOL    HW167480   4.721   0.339   3.317 -1.1278  1.5028  1.1919
53625SOL    HW267481   4.781   0.221   3.390 -0.5947  0.0892 -1.4068
53626SOL     OW67482   6.826   8.849   3.973  0.2529  0.0491 -0.4247
53626SOL    HW167483   6.855   8.773   4.023  0.6943  1.1426  1.0551
53626SOL    HW267484   6.751   8.818   3.923 -1.3999 -0.7000  2.3088
53627SOL     OW67485   9.415   9.032  10.804  0.6047 -0.3629 -0.4899
53627SOL    HW167486   9.483   9.095  10.781 -0.2699  0.6797 -0.3105
53627SOL    HW267487   9.374   9.010  10.720 -0.1313  0.5568 -0.3881
53628SOL     OW67488   1.886   2.920  10.758 -0.3865  0.3976 -0.1257
53628SOL    HW167489   1.956   2.918  10.823 -0.2031 -1.3346 -0.3458
53628SOL    HW267490   1.834   2.841  10.775 -1.4530  0.9020 -0.8802
53629SOL     OW67491   1.231   8.614   6.835 -0.1120 -0.1047  0.0901
53629SOL    HW167492   1.167   8.544   6.845 -0.1718  0.0925  1.2406
53629SOL    HW267493   1.218   8.646   6.745 -1.2038 -0.4766  0.0997
53630SOL     OW67494   3.787   8.838   1.224  0.0454 -0.1179 -0.0326
53630SOL    HW167495   3.848   8.823   1.296  0.7044  0.3894 -0.4654
53630SOL    HW267496   3.830   8.799   1.148 -0.5116 -0.3971 -0.2141
53631SOL     OW67497  10.284   4.422   2.719  0.2837  0.2059 -0.3036
53631SOL    HW167498  10.268   4.495   2.658 -2.5530  0.1917  0.2836
53631SOL    HW267499  10.378   4.426   2.737  0.2053  4.0822  0.1031
53632SOL     OW67500   4.361   1.705   2.898  0.7954 -0.2496 -0.6060
53632SOL    HW167501   4.371   1.788   2.945  0.0478 -0.0038 -0.8629
53632SOL    HW267502   4.360   1.638   2.966  1.2223 -0.0389 -0.3849
53633SOL     OW67503   1.377   6.222   9.742 -0.1030  0.7146 -0.5346
53633SOL    HW167504   1.416   6.226   9.829  0.7390  1.0078 -0.9156
53633SOL    HW267505   1.283   6.227   9.758 -0.0663 -1.0467  0.4770
53634SOL     OW67506   3.045   0.564   8.252 -0.2362  0.0808  0.4166
53634SOL    HW167507   3.055   0.657   8.232  1.0147 -0.0273  0.4729
53634SOL    HW267508   2.950   0.550   8.250 -0.4238  1.2427 -0.0763
53635SOL     OW67509  12.481   6.532   1.912  0.4958 -0.7796 -0.5304
53635SOL    HW167510  12.510   6.594   1.845 -1.2421 -0.0157 -0.6101
53635SOL    HW267511  12.431   6.585   1.974 -1.0392 -2.0762 -0.6098
53636SOL     OW67512   1.371   8.699   3.927 -0.3598  0.5670 -0.2188
53636SOL    HW167513   1.321   8.665   4.002 -2.0965  1.6665 -0.8087
53636SOL    HW267514   1.430   8.628   3.904  0.4744  0.3093  2.3800
53637SOL     OW67515   4.995   3.460   4.685  0.2623  0.6616  0.2812
53637SOL    HW167516   5.011   3.415   4.602  0.8010  0.9727  0.2104
53637SOL    HW267517   4.999   3.390   4.750  1.8783  0.6904  0.2576
53638SOL     OW67518   4.079   6.193   2.154 -0.4655 -0.7080  0.2315
53638SOL    HW167519   3.998   6.241   2.138 -0.9993 -1.0220  1.7696
53638SOL    HW267520   4.076   6.119   2.094 -1.1091 -0.4656 -0.0370
53639SOL     OW67521  10.865  11.727   7.110 -0.0020 -0.3221  0.4816
53639SOL    HW167522  10.834  11.636   7.111 -4.0888  0.8859  1.7063
53639SOL    HW267523  10.814  11.769   7.041  1.7029  1.1664  0.0516
53640SOL     OW67524   3.760   6.360   7.929  0.3161 -0.0677  0.0333
53640SOL    HW167525   3.771   6.451   7.956  0.6373 -0.0318 -0.2103
53640SOL    HW267526   3.752   6.363   7.834  0.4804 -0.3059  0.0104
53641SOL     OW67527   6.903   4.779  11.951  0.0357 -0.4821 -0.5160
53641SOL    HW167528   6.933   4.828  12.028 -0.6794 -0.9235  0.0521
53641SOL    HW267529   6.966   4.802  11.883 -0.3593  1.3585 -0.3243
53642SOL     OW67530   3.399   3.315   7.385  0.1018 -0.0599 -0.5076
53642SOL    HW167531   3.466   3.296   7.450 -0.3626  1.1201  0.3275
53642SOL    HW267532   3.319   3.276   7.421 -0.0406  0.1182 -0.6305
53643SOL     OW67533   2.836   1.244   4.562  0.4521  0.1340 -0.8043
53643SOL    HW167534   2.809   1.270   4.474  0.5958 -3.0865 -1.9429
53643SOL    HW267535   2.774   1.175   4.587  2.2293 -1.1510  0.3069
53644SOL     OW67536  11.765   1.946  12.145 -0.2642 -0.5619 -0.4545
53644SOL    HW167537  11.737   1.963  12.056 -0.9896  0.6734 -0.0240
53644SOL    HW267538  11.834   2.010  12.161 -0.2203 -0.6946 -0.1003
53645SOL     OW67539  11.815   3.886   3.419 -0.3484 -0.1440 -0.1698
53645SOL    HW167540  11.837   3.980   3.418 -0.5379 -0.0281  1.8430
53645SOL    HW267541  11.748   3.878   3.487 -0.3860 -1.7375 -0.3643
53646SOL     OW67542   6.939   7.244   7.238 -0.3535  0.2856 -0.4708
53646SOL    HW167543   6.864   7.282   7.192 -1.3696 -1.2413 -0.1822
53646SOL    HW267544   6.903   7.166   7.280  1.2510 -0.0626  0.3210
53647SOL     OW67545   6.868  10.242   5.503  0.1267  0.1696  0.0427
53647SOL    HW167546   6.895  10.179   5.569 -0.1822  0.0335  0.0420
53647SOL    HW267547   6.838  10.188   5.429  1.4741  0.3102 -0.6337
53648SOL     OW67548  12.429   8.068  10.710  0.2935  0.7300  0.7353
53648SOL    HW167549  12.335   8.048  10.714  0.5098 -0.2000  1.6598
53648SOL    HW267550  12.440   8.144  10.767  0.3719 -0.3668  2.2466
53649SOL     OW67551   3.471   8.081   8.570 -0.2132 -0.0377  0.2157
53649SOL    HW167552   3.452   8.075   8.476 -0.0063  0.7375  0.1175
53649SOL    HW267553   3.473   8.175   8.588  1.2854 -0.1397  0.6787
53650SOL     OW67554   7.669   1.259  12.540 -0.1124 -0.0023 -0.5867
53650SOL    HW167555   7.713   1.281  12.458  1.2458  0.1625  0.1432
53650SOL    HW267556   7.619   1.337  12.562  1.4720  0.9064 -0.0498
53651SOL     OW67557   6.975   5.449   9.179 -0.1736 -0.1216 -0.0251
53651SOL    HW167558   6.946   5.467   9.268 -1.8294  0.2635 -0.6047
53651SOL    HW267559   6.930   5.368   9.155  1.7577 -1.2963  0.1142
53652SOL     OW67560   5.496   2.932   5.390  0.5780 -0.0919  0.3114
53652SOL    HW167561   5.436   2.941   5.315  3.7590  1.1739 -2.2939
53652SOL    HW267562   5.543   2.850   5.373  1.5932  0.4012  0.7056
53653SOL     OW67563   2.107  12.036   0.415  0.6638 -0.1971  0.1039
53653SOL    HW167564   2.030  12.085   0.444  0.9820  0.3361  0.0560
53653SOL    HW267565   2.095  12.025   0.321  0.5491 -0.2870  0.1291
53654SOL     OW67566   8.873   0.651   0.129  0.0093 -0.3123  0.7605
53654SOL    HW167567   8.798   0.709   0.114 -0.1319 -0.5639  0.4851
53654SOL    HW267568   8.906   0.631   0.042  0.7895  0.2989  0.9053
53655SOL     OW67569   2.667  12.325   7.333  0.3745  0.0756 -0.6559
53655SOL    HW167570   2.762  12.326   7.331  0.5903  1.5529  2.7502
53655SOL    HW267571   2.645  12.287   7.417 -1.8535  2.7002  0.1060
53656SOL     OW67572   2.358   1.508   9.939 -0.2838  0.0109  0.2501
53656SOL    HW167573   2.290   1.542   9.881  1.2414 -0.8465 -2.1439
53656SOL    HW267574   2.311   1.452  10.001 -2.0250  1.3773  0.2227
53657SOL     OW67575   4.136   5.665   4.461 -0.2047  0.9028 -0.6221
53657SOL    HW167576   4.168   5.651   4.550  0.2695  0.7320 -0.8196
53657SOL    HW267577   4.182   5.744   4.431 -0.7146  1.2342 -0.5506
53658SOL     OW67578   3.270   7.234  12.599 -0.1828 -0.1965  0.3813
53658SOL    HW167579   3.205   7.231  12.670  1.0564 -0.9563  1.5223
53658SOL    HW267580   3.344   7.183  12.632  0.6885 -0.0125 -1.2123
53659SOL     OW67581   3.536   8.388   6.162  0.4244  0.5596  0.4731
53659SOL    HW167582   3.567   8.323   6.224  2.7639  0.7362 -0.4285
53659SOL    HW267583   3.581   8.469   6.186  0.4213  0.9234 -0.6641
53660SOL     OW67584  12.212   1.704   3.824 -0.2705  0.3161 -0.2879
53660SOL    HW167585  12.170   1.625   3.858 -0.4802  0.7051  0.3819
53660SOL    HW267586  12.142   1.755   3.784 -0.1306  0.1498 -0.7452
53661SOL     OW67587   0.963   2.349   1.899  0.0970 -0.3804  0.0207
53661SOL    HW167588   0.877   2.385   1.876  0.1663 -1.0003 -1.2648
53661SOL    HW267589   0.956   2.256   1.882  0.7754 -0.5722  0.7227
53662SOL     OW67590   9.271   8.204   1.730 -0.0752  0.3725 -0.2260
53662SOL    HW167591   9.232   8.285   1.762 -0.3158  0.3194 -0.3832
53662SOL    HW267592   9.365   8.219   1.734 -0.1162  0.5973 -0.0907
53663SOL     OW67593  11.330   4.473   9.878  0.2365 -0.1522  0.0731
53663SOL    HW167594  11.426   4.469   9.875  0.1879 -1.5488 -0.3299
53663SOL    HW267595  11.305   4.398   9.932 -0.5406  1.8611  2.7267
53664SOL     OW67596  12.502   9.914   3.340 -0.3333  0.1211 -0.6074
53664SOL    HW167597  12.420   9.884   3.380 -0.3402 -0.1102 -0.7896
53664SOL    HW267598  12.571   9.877   3.394 -0.3324  2.1653  0.8993
53665SOL     OW67599   2.411   6.258   2.731  0.0827 -0.2271  0.2205
53665SOL    HW167600   2.375   6.334   2.686  2.3392 -0.0064 -1.3849
53665SOL    HW267601   2.459   6.295   2.805 -1.5636 -0.4080  1.4375
53666SOL     OW67602   6.729   2.373  10.510  0.1322 -0.1569 -0.1024
53666SOL    HW167603   6.682   2.290  10.515  2.6309 -1.6899 -0.1259
53666SOL    HW267604   6.776   2.368  10.427  1.0594  0.8674  0.3417
53667SOL     OW67605   9.532   0.733   2.793 -0.1930 -0.6467  0.0062
53667SOL    HW167606   9.614   0.765   2.831 -0.6185 -0.9378  1.2270
53667SOL    HW267607   9.475   0.810   2.789  0.2188 -0.3833 -1.1134
53668SOL     OW67608   7.254   0.867   8.148  0.8613 -0.9034 -0.0261
53668SOL    HW167609   7.300   0.863   8.064  1.6373 -0.2892  0.3611
53668SOL    HW267610   7.162   0.875   8.124  1.0098 -1.4211 -0.8110
53669SOL     OW67611   1.474   1.232   6.840 -0.1868  0.5131  0.1146
53669SOL    HW167612   1.426   1.288   6.901 -0.7225  0.3698 -0.1727
53669SOL    HW267613   1.564   1.264   6.844 -0.6322  1.9299 -0.6633
53670SOL     OW67614   7.522   0.466   6.062 -0.0773  0.1938 -0.2431
53670SOL    HW167615   7.442   0.465   6.010 -1.3486 -1.2249  1.6009
53670SOL    HW267616   7.492   0.458   6.153  1.9651  3.4437  0.9005
53671SOL     OW67617   7.127   0.924   9.430  0.9344  0.4104  0.8470
53671SOL    HW167618   7.122   0.979   9.508 -1.0198  1.4627  0.0702
53671SOL    HW267619   7.172   0.978   9.365 -0.4310  0.9048  0.2719
53672SOL     OW67620   8.723   6.546   2.054 -0.7709 -0.7168 -0.1614
53672SOL    HW167621   8.807   6.525   2.012 -0.2187  0.5624  0.2495
53672SOL    HW267622   8.702   6.468   2.105  0.5012 -0.8334  0.2298
53673SOL     OW67623  12.135  11.979  11.623  0.3560  0.4600 -0.3600
53673SOL    HW167624  12.067  11.922  11.659  0.5244  0.0038 -0.7514
53673SOL    HW267625  12.153  11.942  11.537  0.4061  1.1623 -0.6557
53674SOL     OW67626   0.650   5.944  10.039 -0.0806 -0.5551  0.1594
53674SOL    HW167627   0.607   5.865  10.073 -2.4123  0.4886 -0.1404
53674SOL    HW267628   0.682   5.989  10.116  0.6337 -1.4377  0.3926
53675SOL     OW67629   7.644   9.318  10.900 -0.0561  0.0548  0.5729
53675SOL    HW167630   7.719   9.376  10.912  0.0986  0.1067 -0.5146
53675SOL    HW267631   7.594   9.326  10.981  0.4730  0.9578  0.8256
53676SOL     OW67632  12.210   9.530  10.808 -0.4003 -0.3722 -0.5192
53676SOL    HW167633  12.163   9.573  10.879  1.9334  0.9646  0.3120
53676SOL    HW267634  12.247   9.451  10.848  0.6606  0.2228 -0.2904
53677SOL     OW67635   0.900   5.156   2.712  0.3840 -0.0497  0.3664
53677SOL    HW167636   0.883   5.075   2.664 -1.7891  0.7065 -0.2596
53677SOL    HW267637   0.932   5.217   2.646 -0.2994  0.2862  0.3362
53678SOL     OW67638   7.405  10.221  10.117 -0.2988  0.3603 -0.0926
53678SOL    HW167639   7.485  10.272  10.133 -0.1844 -0.1786  1.2667
53678SOL    HW267640   7.399  10.163  10.194 -1.1230 -0.7389 -0.9582
53679SOL     OW67641   2.280   7.196   8.299  0.0669  0.8246 -0.0766
53679SOL    HW167642   2.232   7.224   8.377  1.2713 -0.0387  1.0234
53679SOL    HW267643   2.216   7.147   8.247 -1.1790  2.7387 -0.4465
53680SOL     OW67644   7.646   9.564   0.532  0.3577 -0.3495  0.1357
53680SOL    HW167645   7.712   9.633   0.528  0.0608  0.0038  0.9994
53680SOL    HW267646   7.565   9.607   0.502  0.3653 -0.5815 -0.2220
53681SOL     OW67647   0.090   4.615  11.803 -0.7669 -0.6644  0.3515
53681SOL    HW167648   0.040   4.559  11.744 -1.2943  0.4494 -0.3053
53681SOL    HW267649   0.181   4.593  11.787 -0.9577 -1.1683 -0.0544
53682SOL     OW67650   4.829   3.635   5.690 -0.6554  0.5845 -0.1035
53682SOL    HW167651   4.774   3.659   5.616 -1.1207  1.7198  0.5814
53682SOL    HW267652   4.910   3.603   5.650 -1.9761 -1.7069 -1.1458
53683SOL     OW67653   5.939   1.533   7.237 -0.1554  0.3621  0.0393
53683SOL    HW167654   5.849   1.559   7.254 -0.8425 -0.7792 -1.7126
53683SOL    HW267655   5.964   1.482   7.314 -0.8255  1.0792  0.7523
53684SOL     OW67656  10.638   9.310   7.253 -0.0949  0.2818  0.2454
53684SOL    HW167657  10.641   9.214   7.255  1.9993  0.2443 -1.0731
53684SOL    HW267658  10.573   9.334   7.318 -0.4125 -2.0342  0.8529
53685SOL     OW67659  11.624   9.355   6.972 -0.1866  0.3944  0.2744
53685SOL    HW167660  11.639   9.305   7.052 -1.1137  0.1383  0.2965
53685SOL    HW267661  11.663   9.441   6.989 -0.8985  0.5434  1.2334
53686SOL     OW67662  12.044   8.746   9.412 -0.2043  0.3344  0.3519
53686SOL    HW167663  12.102   8.728   9.486  0.2414  1.4928  0.3121
53686SOL    HW267664  12.059   8.673   9.352  0.1310 -0.1292  0.9875
53687SOL     OW67665   9.464   9.124   4.144  0.0869  0.2896  0.0696
53687SOL    HW167666   9.533   9.190   4.136 -1.2482  1.5913 -1.4459
53687SOL    HW267667   9.423   9.122   4.057 -1.8568 -0.3435  0.9475
53688SOL     OW67668   1.923   4.795  11.127  0.1750  0.0406  0.0960
53688SOL    HW167669   1.890   4.852  11.197  2.1706 -0.1342  1.2286
53688SOL    HW267670   1.846   4.778  11.073 -1.6239 -0.4418  2.6486
53689SOL     OW67671  12.099   3.677  10.338 -0.2968 -0.8959 -0.3509
53689SOL    HW167672  12.127   3.764  10.312  3.1017 -2.4701 -2.7650
53689SOL    HW267673  12.043   3.648  10.266 -0.1756 -1.2029 -0.3228
53690SOL     OW67674   2.069   8.739  10.654 -0.5721  0.1249  0.3411
53690SOL    HW167675   2.133   8.734  10.584  0.1659  1.0593  0.9189
53690SOL    HW267676   2.053   8.648  10.680  1.6682 -0.0887  1.1969
53691SOL     OW67677   4.994   3.165  11.581  0.2836 -0.0259 -0.1471
53691SOL    HW167678   4.972   3.192  11.670 -0.0129 -0.2772 -0.1441
53691SOL    HW267679   5.039   3.241  11.544 -1.5354  0.9221 -0.5093
53692SOL     OW67680   0.919   3.023   1.666  0.1258  0.3142 -0.0620
53692SOL    HW167681   0.982   3.052   1.600  0.3646  0.7428  0.3415
53692SOL    HW267682   0.838   3.069   1.644  0.3185  0.7791  0.1795
53693SOL     OW67683   5.009  12.084   9.437 -0.2150  0.6501 -0.0723
53693SOL    HW167684   5.039  12.166   9.476  0.0766  0.3349  0.3832
53693SOL    HW267685   5.039  12.088   9.346  1.0416  0.4310  0.3160
53694SOL     OW67686   1.455   4.147  12.326 -0.3598 -0.1377  0.4818
53694SOL    HW167687   1.415   4.230  12.350 -1.2696 -0.0323 -1.2474
53694SOL    HW267688   1.540   4.147  12.370 -0.4549  1.5910  0.7160
53695SOL     OW67689  12.698  10.643   8.798  0.1394  0.0082 -0.5311
53695SOL    HW167690  12.720  10.728   8.837  1.6039 -0.2250 -0.7757
53695SOL    HW267691  12.735  10.579   8.859  0.2110 -0.4205 -1.0204
53696SOL     OW67692   7.297   4.152   2.385 -0.1391  0.0547  0.1271
53696SOL    HW167693   7.305   4.119   2.475 -1.8529 -1.5402 -0.2346
53696SOL    HW267694   7.247   4.084   2.339 -1.8990  2.1647 -1.2831
53697SOL     OW67695   5.789   9.954   2.833  0.6916  0.0090 -0.2540
53697SOL    HW167696   5.708   9.994   2.802  0.2460 -0.2569  0.5402
53697SOL    HW267697   5.789   9.866   2.794  2.2400  1.0832 -2.9599
53698SOL     OW67698  11.892  10.888  12.527  0.2959  0.0060 -0.0077
53698SOL    HW167699  11.913  10.812  12.581  0.4346  0.1831  0.1913
53698SOL    HW267700  11.872  10.851  12.441 -0.5832 -0.3257  0.3337
53699SOL     OW67701   3.699   1.919   9.546  0.0908  0.5274  0.3409
53699SOL    HW167702   3.666   1.833   9.522  0.2937  0.3636  0.6361
53699SOL    HW267703   3.625   1.978   9.532 -0.2355  0.2120  0.6996
53700SOL     OW67704   0.368   2.240   9.416 -0.0870  0.4528 -0.2220
53700SOL    HW167705   0.346   2.260   9.507  1.2435 -0.1771  0.2680
53700SOL    HW267706   0.304   2.174   9.390  0.8254 -0.9858  1.0019
53701SOL     OW67707  10.086   4.204   0.599  0.7407 -0.1756 -0.2591
53701SOL    HW167708  10.065   4.264   0.528  0.5286  0.5454  0.3921
53701SOL    HW267709  10.171   4.167   0.575  0.7841  0.2429 -0.7672
53702SOL     OW67710   1.586   0.924  11.702  0.1514  0.2188 -0.3370
53702SOL    HW167711   1.629   0.839  11.695  1.7325  0.9340  0.3382
53702SOL    HW267712   1.629   0.967  11.775 -1.4435  1.1590  0.1051
53703SOL     OW67713   5.741  11.782   8.958 -0.2714 -0.0340  0.0223
53703SOL    HW167714   5.749  11.857   8.899  0.5699 -0.8324 -0.9108
53703SOL    HW267715   5.781  11.812   9.039 -0.0497  0.5733 -0.2994
53704SOL     OW67716   4.641  12.166   3.587  0.6367 -0.4759 -0.1899
53704SOL    HW167717   4.681  12.165   3.500 -1.8319 -0.5660 -1.4095
53704SOL    HW267718   4.607  12.255   3.597  3.2634  0.4258  1.9469
53705SOL     OW67719   5.030   1.363   9.877 -0.5404 -0.0544 -0.4971
53705SOL    HW167720   4.977   1.442   9.872 -0.4004  0.1002  0.2317
53705SOL    HW267721   5.092   1.370   9.804 -1.6262 -0.3362 -1.4768
53706SOL     OW67722   3.766   0.197  10.942 -0.3432 -0.2189 -0.1321
53706SOL    HW167723   3.711   0.131  10.985  0.4782 -0.5622  0.4130
53706SOL    HW267724   3.798   0.153  10.863 -0.6598 -0.0970 -0.3303
53707SOL     OW67725   7.962   0.085   9.595  0.3031 -0.7605  0.9990
53707SOL    HW167726   7.962   0.065   9.502  0.4959  0.3658  0.7445
53707SOL    HW267727   7.898   0.155   9.605  0.0904 -1.0489  1.7587
53708SOL     OW67728   1.299  10.589   9.803 -0.1259 -0.5877  0.1718
53708SOL    HW167729   1.232  10.632   9.856  0.9410  1.6592 -0.1987
53708SOL    HW267730   1.282  10.618   9.713  1.8614  0.8567  0.1917
53709SOL     OW67731   3.285   6.170   5.430 -0.0611  0.5859  0.8906
53709SOL    HW167732   3.298   6.246   5.373 -0.4482  0.3457  0.4775
53709SOL    HW267733   3.350   6.181   5.499  0.0549  1.1635  0.6986
53710SOL     OW67734  12.190  12.369   7.746  0.6498 -0.1639  0.0738
53710SOL    HW167735  12.257  12.436   7.737  0.6724 -0.4290 -2.1588
53710SOL    HW267736  12.238  12.286   7.748  0.4765 -0.2690 -0.0237
53711SOL     OW67737   1.960   6.460   4.931 -0.6058 -0.0142  0.3683
53711SOL    HW167738   1.929   6.526   4.993 -2.0440 -0.4459  0.1484
53711SOL    HW267739   1.946   6.376   4.975 -2.3443 -0.3750 -0.7741
53712SOL     OW67740   9.478   7.142   2.407  0.7661  0.0511 -0.2699
53712SOL    HW167741   9.491   7.198   2.331  2.3974  0.3321  0.1814
53712SOL    HW267742   9.480   7.053   2.372 -1.3248  0.2215 -0.9156
53713SOL     OW67743   9.701   6.756   3.755  0.3916  0.4250  0.3057
53713SOL    HW167744   9.706   6.851   3.744 -0.4308  0.3722 -0.6669
53713SOL    HW267745   9.750   6.721   3.681  0.1019  0.0841  0.2745
53714SOL     OW67746   9.598  12.202   8.470  0.1514  0.2512  0.0165
53714SOL    HW167747   9.506  12.213   8.445  0.6997  2.7594 -1.1984
53714SOL    HW267748   9.597  12.128   8.531 -2.4768 -0.6006 -0.9125
53715SOL     OW67749   8.726  10.519   3.145  0.2960  0.1704 -0.3460
53715SOL    HW167750   8.686  10.605   3.158 -0.0419  0.0375 -0.4958
53715SOL    HW267751   8.754  10.492   3.233 -1.3166 -0.4000  0.0258
53716SOL     OW67752   2.179   9.882   9.789  0.0876 -0.3919 -0.0635
53716SOL    HW167753   2.097   9.898   9.742  0.1328 -1.7548 -0.6488
53716SOL    HW267754   2.193   9.788   9.782  0.4404 -0.5560  2.1565
53717SOL     OW67755   2.633   1.410   7.358  0.0293 -0.2267 -0.1454
53717SOL    HW167756   2.546   1.407   7.318  0.3952 -1.4887 -0.8912
53717SOL    HW267757   2.656   1.503   7.359 -0.5723 -0.0347 -1.6191
53718SOL     OW67758   3.267   5.640   1.482  0.3267  0.5614 -0.4502
53718SOL    HW167759   3.289   5.574   1.416  0.7578 -2.2930  2.3079
53718SOL    HW267760   3.350   5.661   1.523 -0.2348  0.3713  0.8175
53719SOL     OW67761   7.319  10.102   4.452  0.0279 -0.2103  0.3564
53719SOL    HW167762   7.387  10.051   4.407  0.7862  2.4921 -1.8180
53719SOL    HW267763   7.353  10.114   4.541  1.2566 -0.9024  0.0049
53720SOL     OW67764   5.002   9.300   8.618 -0.5467 -0.3780  0.1962
53720SOL    HW167765   4.988   9.209   8.643  2.5371 -1.1315 -0.4302
53720SOL    HW267766   4.930   9.348   8.660 -3.3492 -3.2377 -0.9447
53721SOL     OW67767  11.209   0.755   7.889 -0.0777 -0.5122 -0.1299
53721SOL    HW167768  11.168   0.685   7.940 -0.7498 -0.3721 -0.4687
53721SOL    HW267769  11.141   0.783   7.828  0.3492  0.0958 -0.3339
53722SOL     OW67770   2.986   9.216   5.335 -0.1581  0.7506 -0.0765
53722SOL    HW167771   3.031   9.263   5.404 -0.1348 -0.7954  1.0227
53722SOL    HW267772   3.036   9.235   5.256  0.2497  1.9530  0.4553
53723SOL     OW67773   4.151   9.748   5.113 -0.0364  0.0807 -0.8134
53723SOL    HW167774   4.115   9.788   5.192  0.2101  1.3403 -1.3222
53723SOL    HW267775   4.074   9.730   5.058 -0.3085 -1.6847  0.0664
53724SOL     OW67776  12.049  11.939   2.730 -0.1806  0.1958 -0.1931
53724SOL    HW167777  11.994  11.922   2.654 -0.5181 -1.1665  0.3198
53724SOL    HW267778  12.135  11.961   2.694  0.1644 -2.1983 -1.0109
53725SOL     OW67779   8.459  10.529   1.981 -0.3555 -0.2924  0.1425
53725SOL    HW167780   8.420  10.616   1.974 -0.0703  0.0565  2.2353
53725SOL    HW267781   8.522  10.525   1.909 -0.8894  0.9324 -0.4248
53726SOL     OW67782   3.437   4.823   9.795  0.1721 -0.0111  0.2365
53726SOL    HW167783   3.467   4.753   9.852 -0.0484  0.5343  1.0434
53726SOL    HW267784   3.387   4.779   9.726  1.8514 -0.8429 -0.5243
53727SOL     OW67785   9.912   0.479   8.784 -0.3481 -0.5467  0.5030
53727SOL    HW167786   9.948   0.487   8.873  0.4224 -1.4025  0.2777
53727SOL    HW267787   9.979   0.433   8.735 -0.3191  0.8557 -0.8177
53728SOL     OW67788   0.054  11.693   8.896  0.3510  0.6746 -0.3387
53728SOL    HW167789   0.029  11.702   8.988 -1.1215  0.5848 -0.7166
53728SOL    HW267790   0.139  11.649   8.899  0.3110  0.6440  0.9764
53729SOL     OW67791   3.100   4.299   4.061 -0.1156 -0.3384 -0.0734
53729SOL    HW167792   3.074   4.216   4.021  0.3195 -0.5981  0.1765
53729SOL    HW267793   3.034   4.315   4.128 -0.5748 -0.1451 -0.5672
53730SOL     OW67794   1.260  12.241   5.434 -0.2380 -0.3017 -0.3807
53730SOL    HW167795   1.272  12.205   5.522 -1.6793  0.3898  0.1326
53730SOL    HW267796   1.193  12.186   5.395 -2.2915  1.5752  0.3256
53731SOL     OW67797   6.171   8.742   9.835 -0.1536  0.2915 -0.0797
53731SOL    HW167798   6.199   8.750   9.926  0.5148 -0.5246 -0.1974
53731SOL    HW267799   6.209   8.818   9.792 -2.4446  2.0003  0.7502
53732SOL     OW67800   4.416  12.187   0.544  0.1821 -0.1178  0.3196
53732SOL    HW167801   4.481  12.157   0.481 -0.6985  0.9398 -1.1468
53732SOL    HW267802   4.356  12.114   0.554  0.8595 -0.6373  0.7007
53733SOL     OW67803   2.835   1.068   9.000  0.6235 -0.4161 -1.0083
53733SOL    HW167804   2.833   0.991   9.058 -1.1291 -0.4379 -1.0407
53733SOL    HW267805   2.818   1.033   8.913 -0.6358  0.0156 -0.9648
53734SOL     OW67806   6.241  10.904   4.601  0.1017  0.6230 -0.6623
53734SOL    HW167807   6.273  10.912   4.511 -0.3501  0.4185 -0.8444
53734SOL    HW267808   6.151  10.873   4.592 -0.1305  1.1212 -0.1602
53735SOL     OW67809   7.836   6.967   1.008 -0.8258 -0.2083 -0.1278
53735SOL    HW167810   7.899   6.914   1.057  0.1211  0.1217 -0.9412
53735SOL    HW267811   7.851   7.057   1.037 -0.8241 -0.1125 -0.4152
53736SOL     OW67812  10.553   2.409  10.463 -0.0700 -0.2220  0.1824
53736SOL    HW167813  10.628   2.401  10.523 -1.0029 -2.2502  1.1928
53736SOL    HW267814  10.577   2.355  10.388  0.7315  1.6324 -0.9725
53737SOL     OW67815   3.235   1.131   1.758  0.1861  0.6650  0.7619
53737SOL    HW167816   3.150   1.087   1.758  0.6228 -0.2125  1.6228
53737SOL    HW267817   3.234   1.185   1.680 -0.7144 -0.2244  0.1389
53738SOL     OW67818   8.371   0.238  11.277 -0.1505  0.2652 -0.4038
53738SOL    HW167819   8.334   0.316  11.318  0.0069  1.0230 -1.6277
53738SOL    HW267820   8.296   0.196  11.234 -0.5990 -1.3238  1.7607
53739SOL     OW67821  12.482  11.794   9.040 -0.1153 -0.2655 -0.2670
53739SOL    HW167822  12.487  11.821   8.949  0.7671  1.9191  0.3780
53739SOL    HW267823  12.572  11.778   9.066 -0.0979  1.4144  0.8281
53740SOL     OW67824   0.848   2.586   7.974  0.3752  0.5137 -0.0104
53740SOL    HW167825   0.892   2.525   7.916 -0.3479 -1.3515  1.3249
53740SOL    HW267826   0.756   2.562   7.969 -0.2273  2.7119 -0.8219
53741SOL     OW67827  11.767   9.870   7.457  0.2750 -0.1814 -0.4422
53741SOL    HW167828  11.738   9.818   7.531 -0.6647  0.2586 -0.4921
53741SOL    HW267829  11.687   9.909   7.421  0.8381  0.4932 -1.0104
53742SOL     OW67830   4.621   5.020   6.798  0.3789 -0.4485  0.2950
53742SOL    HW167831   4.658   5.096   6.754  0.1441 -0.3385  0.2815
53742SOL    HW267832   4.608   4.955   6.728 -0.2216 -0.1845  0.1552
53743SOL     OW67833  11.145   0.799   1.227  0.0551 -0.8684  0.1157
53743SOL    HW167834  11.110   0.713   1.252  0.7643 -1.4796 -0.9367
53743SOL    HW267835  11.090   0.827   1.154 -0.7794  0.0304  1.0539
53744SOL     OW67836   2.344   2.339   9.889  0.3945  0.3088  0.1384
53744SOL    HW167837   2.370   2.254   9.925  0.1769  0.3696  0.4364
53744SOL    HW267838   2.422   2.370   9.844 -0.2722 -1.2922 -2.3589
53745SOL     OW67839   9.373   5.596   0.334 -0.0334 -0.4662  0.4294
53745SOL    HW167840   9.327   5.574   0.253 -0.5018 -0.5419  0.7137
53745SOL    HW267841   9.328   5.545   0.402  0.9684 -1.1593  0.5957
53746SOL     OW67842   9.800   5.210   2.799  0.0777 -0.2172 -0.0935
53746SOL    HW167843   9.750   5.270   2.744 -0.3516 -0.3875  0.1025
53746SOL    HW267844   9.802   5.253   2.885  0.3095 -0.1917 -0.1101
53747SOL     OW67845   2.835  12.354   4.363 -0.0206  0.1535  0.1411
53747SOL    HW167846   2.927  12.340   4.342 -0.1003  0.3682 -0.3634
53747SOL    HW267847   2.837  12.402   4.446  0.3491  0.8909 -0.2790
53748SOL     OW67848   7.687   1.120   9.769 -0.1498 -0.4221 -0.4077
53748SOL    HW167849   7.718   1.035   9.738  1.1626  0.0182 -0.3924
53748SOL    HW267850   7.743   1.140   9.844 -0.9525  0.1122  0.0566
53749SOL     OW67851   7.200   9.176  10.649  0.6119 -0.2587 -0.1545
53749SOL    HW167852   7.248   9.151  10.570 -0.3543 -0.9954 -0.5422
53749SOL    HW267853   7.116   9.209  10.616  0.3473 -0.2198  0.5420
53750SOL     OW67854  12.365   1.405   1.324 -0.3841  0.2093  0.1880
53750SOL    HW167855  12.438   1.459   1.353  0.4644 -0.9150  0.2118
53750SOL    HW267856  12.304   1.467   1.284  1.0681  1.0495 -0.8212
53751SOL     OW67857   3.460   9.036   7.466 -0.0534 -0.3218  0.6642
53751SOL    HW167858   3.430   9.003   7.382 -0.0689 -0.8533  0.8700
53751SOL    HW267859   3.497   9.122   7.447 -0.5843 -0.1908  0.2120
53752SOL     OW67860  10.650   2.802   1.391 -0.4619 -0.2971  0.5075
53752SOL    HW167861  10.608   2.717   1.389  0.2195 -0.6738 -2.3634
53752SOL    HW267862  10.598   2.856   1.331  1.2915  0.1288 -0.7011
53753SOL     OW67863   2.607   6.890   6.081 -0.7165 -0.0878 -0.0834
53753SOL    HW167864   2.629   6.833   6.007 -0.1643  0.2315 -0.1715
53753SOL    HW267865   2.516   6.870   6.100 -0.7423 -0.4742 -0.5834
53754SOL     OW67866   8.169   9.646  10.789  0.0086  0.5545 -0.4802
53754SOL    HW167867   8.185   9.577  10.725 -1.9360  0.0847 -0.5117
53754SOL    HW267868   8.074   9.650  10.797  0.1805  1.0008  1.9694
53755SOL     OW67869   2.030   8.161   9.514 -0.2064 -0.0617 -0.0300
53755SOL    HW167870   2.082   8.165   9.434  1.2410  0.0582  0.8869
53755SOL    HW267871   2.082   8.208   9.579 -2.3485  1.7803  0.4750
53756SOL     OW67872   8.016   6.192   9.900 -0.1585  0.6746 -0.6978
53756SOL    HW167873   8.080   6.199   9.829 -0.8717 -0.0488 -1.4279
53756SOL    HW267874   8.067   6.210   9.979  1.0889 -0.4732 -1.1988
53757SOL     OW67875   1.111  12.388   5.201  0.1849 -0.1752  0.2856
53757SOL    HW167876   1.167  12.324   5.158  0.5889  1.1832 -1.2923
53757SOL    HW267877   1.171  12.443   5.251  0.3505  1.2783 -1.3999
53758SOL     OW67878   3.544   0.305   1.526  0.0616 -0.2128  0.1131
53758SOL    HW167879   3.592   0.301   1.609 -2.2514 -1.0348  1.4959
53758SOL    HW267880   3.498   0.389   1.529  0.8664  0.2998 -0.9350
53759SOL     OW67881  10.817   2.168   6.335 -0.2632 -0.5716 -0.1045
53759SOL    HW167882  10.722   2.155   6.338 -0.2479 -1.0161 -1.0415
53759SOL    HW267883  10.851   2.082   6.308  0.5676 -0.9683  2.0263
53760SOL     OW67884   2.499   5.809   2.762 -0.1886 -0.4107 -0.4026
53760SOL    HW167885   2.465   5.822   2.850 -1.4329  1.1271 -1.0539
53760SOL    HW267886   2.452   5.873   2.708  2.0318  0.1592 -1.8090
53761SOL     OW67887  11.200   9.218   6.657  0.4236  0.0355 -0.5754
53761SOL    HW167888  11.270   9.273   6.692 -0.8601  1.6669 -0.4224
53761SOL    HW267889  11.206   9.227   6.562  2.0296 -1.9756 -0.7231
53762SOL     OW67890   0.505  11.773   5.681  0.3313 -0.1090  0.1508
53762SOL    HW167891   0.545  11.789   5.595  0.8744 -0.3580  0.3525
53762SOL    HW267892   0.420  11.734   5.661 -0.6106  2.0235 -0.3376
53763SOL     OW67893   8.781  12.137   2.082  0.2038 -0.4307 -0.3277
53763SOL    HW167894   8.701  12.118   2.131 -0.0696 -2.3837 -1.3915
53763SOL    HW267895   8.844  12.072   2.113  1.1393  0.5597 -0.0952
53764SOL     OW67896   8.871   2.277   3.370  0.3675  0.3690 -0.0287
53764SOL    HW167897   8.831   2.192   3.347  0.0883  0.2813  0.7522
53764SOL    HW267898   8.909   2.263   3.457  1.0334  0.8165 -0.2405
53765SOL     OW67899   0.705   4.135  10.336 -0.9179 -0.8503  0.3938
53765SOL    HW167900   0.784   4.081  10.335 -0.5979 -0.3951  0.2306
53765SOL    HW267901   0.737   4.223  10.312 -1.1352 -0.1884  2.4020
53766SOL     OW67902   9.799  10.258  10.176  0.5087 -0.9809  0.4173
53766SOL    HW167903   9.877  10.286  10.225 -0.6096 -0.0320  1.7140
53766SOL    HW267904   9.834  10.229  10.092  2.4122 -1.8774  1.4385
53767SOL     OW67905  10.480   8.638   2.605  0.2198  0.0934  0.1411
53767SOL    HW167906  10.570   8.605   2.603  0.4539  0.7126  0.4153
53767SOL    HW267907  10.429   8.563   2.634  0.5858 -0.3930 -0.4386
53768SOL     OW67908   2.228   5.661   7.869  0.5654  0.5698 -0.1751
53768SOL    HW167909   2.193   5.572   7.859 -1.2224  1.1723  0.3099
53768SOL    HW267910   2.258   5.685   7.781 -1.2131  0.3572 -0.8890
53769SOL     OW67911  11.057   9.072   5.789 -0.4278 -0.0754  0.2491
53769SOL    HW167912  11.149   9.098   5.790  0.2316 -2.1992  0.9996
53769SOL    HW267913  11.056   8.987   5.744 -2.1125  0.1619 -0.2359
53770SOL     OW67914   2.052   8.442   9.216  0.1513 -0.5136  0.0974
53770SOL    HW167915   1.968   8.486   9.199  0.2310  0.7851  2.5751
53770SOL    HW267916   2.028   8.353   9.239 -0.7176  0.1379  1.8883
53771SOL     OW67917   8.833   8.642   2.827  0.6108  0.2132 -0.1704
53771SOL    HW167918   8.763   8.578   2.836  1.0111 -0.1269  0.6148
53771SOL    HW267919   8.847   8.651   2.733 -0.0371 -0.2042 -0.3036
53772SOL     OW67920  12.107   0.765   6.060 -0.1799 -0.1662 -0.2941
53772SOL    HW167921  12.053   0.802   5.990 -0.2368  1.0458  0.3698
53772SOL    HW267922  12.196   0.793   6.041 -0.1883  0.1363  0.0787
53773SOL     OW67923   3.781   0.332   6.377  0.3398  0.1029  0.0756
53773SOL    HW167924   3.705   0.298   6.330  0.6687 -0.1068 -0.3099
53773SOL    HW267925   3.856   0.308   6.323  0.7141  0.0025  0.6214
53774SOL     OW67926   8.203  11.331  11.468  0.1624  0.6168  0.3024
53774SOL    HW167927   8.141  11.355  11.398 -1.5457 -2.8964  0.3962
53774SOL    HW267928   8.176  11.384  11.543  0.0291  2.1664 -0.7776
53775SOL     OW67929  11.397   4.826   3.574 -0.1873 -0.1219 -0.1783
53775SOL    HW167930  11.424   4.918   3.575  0.5602 -0.3343 -0.2948
53775SOL    HW267931  11.363   4.812   3.486 -0.6835  0.1453 -0.0334
53776SOL     OW67932   6.105   3.352   4.369 -0.0802  0.5064  0.3180
53776SOL    HW167933   6.114   3.317   4.458  0.2609  1.6687  0.7512
53776SOL    HW267934   6.033   3.302   4.331 -0.7633  0.5429  1.5163
53777SOL     OW67935   0.242   6.836  12.526 -0.5406  0.3346 -0.0721
53777SOL    HW167936   0.261   6.896  12.454 -0.3261  0.8689  0.4216
53777SOL    HW267937   0.152   6.856  12.551 -0.5879  0.2030 -0.1316
53778SOL     OW67938   3.448   4.885   4.618 -0.2191 -0.2203  0.3750
53778SOL    HW167939   3.481   4.802   4.653  1.9827  0.7647  0.7796
53778SOL    HW267940   3.459   4.877   4.523  0.7951 -0.0939  0.4719
53779SOL     OW67941   8.398   8.117   5.077 -0.1868  0.1587 -0.2862
53779SOL    HW167942   8.319   8.167   5.098  0.5383  1.0267  0.4283
53779SOL    HW267943   8.459   8.137   5.147  1.3772  1.0340 -1.8154
53780SOL     OW67944   9.919  12.552  11.165 -0.0936 -0.5488 -0.1370
53780SOL    HW167945   9.978  12.556  11.240 -1.9647 -2.6994  1.5821
53780SOL    HW267946   9.925  12.639  11.125  1.0290  0.6676  2.4495
53781SOL     OW67947   7.526   9.957   5.119  0.5801  0.1682  0.2918
53781SOL    HW167948   7.550   9.864   5.122  1.3421  0.3614  0.3287
53781SOL    HW267949   7.586   9.996   5.055 -2.7223 -0.2040 -3.4255
53782SOL     OW67950   9.918   3.213   3.023 -0.4128 -0.1600  0.0509
53782SOL    HW167951   9.937   3.306   3.007  1.5867 -0.3834  0.7601
53782SOL    HW267952   9.827   3.212   3.052 -0.6498  1.5157 -0.5042
53783SOL     OW67953   7.284   0.167  11.650  0.4164 -0.0107  0.2444
53783SOL    HW167954   7.239   0.217  11.719 -0.4065  0.0020 -0.2837
53783SOL    HW267955   7.331   0.098  11.697  0.8667  0.7397  0.9124
53784SOL     OW67956   2.216  11.513   5.566 -0.1761  0.3800  0.9960
53784SOL    HW167957   2.184  11.449   5.502 -0.4801 -0.8635  2.3478
53784SOL    HW267958   2.156  11.504   5.640  1.8859 -0.3663  2.6633
53785SOL     OW67959   3.937   9.779  11.721  0.3884  0.1974 -0.8938
53785SOL    HW167960   3.845   9.765  11.744  0.0676  3.6014  0.4932
53785SOL    HW267961   3.986   9.725  11.783 -0.6830  1.2809  0.9962
53786SOL     OW67962   5.350   4.757   0.441 -0.0750 -0.0102  0.0501
53786SOL    HW167963   5.266   4.746   0.396 -0.8864  0.6337  1.3718
53786SOL    HW267964   5.408   4.693   0.399 -0.8827  0.3254 -1.6585
53787SOL     OW67965   0.476   4.585   8.448  0.1453  0.0164 -0.5982
53787SOL    HW167966   0.393   4.627   8.425 -0.4368 -0.6080  0.2813
53787SOL    HW267967   0.495   4.528   8.374 -1.0629 -1.0418 -0.1291
53788SOL     OW67968   5.424   3.640   0.456  0.0085 -0.7681 -0.5448
53788SOL    HW167969   5.473   3.590   0.391 -0.2466 -0.0730 -1.2923
53788SOL    HW267970   5.423   3.585   0.534  2.9490 -0.3835 -0.1069
53789SOL     OW67971   1.938   1.046   8.560 -0.4897 -0.0651  0.5728
53789SOL    HW167972   1.929   0.985   8.486 -0.6861  1.3070 -0.5708
53789SOL    HW267973   1.944   0.989   8.637 -0.8440 -1.5233 -0.4326
53790SOL     OW67974   9.897  10.317   4.781 -0.3032 -0.3383 -0.1557
53790SOL    HW167975   9.811  10.316   4.738 -0.7343  2.0410  0.4646
53790SOL    HW267976   9.895  10.242   4.840 -1.2171 -1.3884 -1.4361
53791SOL     OW67977  11.817  11.367   9.695  0.0159  0.3837 -0.4217
53791SOL    HW167978  11.871  11.327   9.764 -0.8632  0.6086  0.4318
53791SOL    HW267979  11.740  11.310   9.690 -1.0077  1.6230  0.4357
53792SOL     OW67980  10.819   2.167  12.131 -0.2271  0.7414 -0.3088
53792SOL    HW167981  10.899   2.184  12.080 -0.2035  1.0355 -0.1746
53792SOL    HW267982  10.748   2.172  12.067 -0.1742  0.8607 -0.3572
53793SOL     OW67983  10.908   1.445   9.372 -0.1035 -0.3785  0.1520
53793SOL    HW167984  10.914   1.355   9.404 -3.0457 -1.2510 -1.3529
53793SOL    HW267985  10.910   1.436   9.276 -1.9632  0.9171 -0.0722
53794SOL     OW67986   9.787   8.100   5.258 -0.1509  0.5410 -0.1947
53794SOL    HW167987   9.833   8.016   5.260  0.1676  0.6960 -0.6862
53794SOL    HW267988   9.769   8.120   5.350 -2.3463 -1.1913 -0.1601
53795SOL     OW67989  11.962   0.931   7.971  0.6187  0.1417 -0.0342
53795SOL    HW167990  11.868   0.915   7.984  0.4084  0.0761 -1.5368
53795SOL    HW267991  11.971   1.025   7.979  0.2911  0.2284 -0.6236
53796SOL     OW67992   9.179   3.190   4.288  0.0397  0.2210 -0.5348
53796SOL    HW167993   9.237   3.235   4.226 -1.1324  0.3086 -1.6100
53796SOL    HW267994   9.207   3.098   4.283  0.5076  0.3577 -0.5427
53797SOL     OW67995  10.797   1.868   1.067  0.7715 -0.4045 -0.0683
53797SOL    HW167996  10.850   1.926   1.122  1.1965  0.6901 -1.5742
53797SOL    HW267997  10.859   1.805   1.031  1.2412  1.2192 -2.2801
53798SOL     OW67998   7.254  11.341   6.063  0.0728 -0.3891 -0.0223
53798SOL    HW167999   7.170  11.343   6.017 -0.0836  0.3876  0.2809
53798SOL    HW268000   7.302  11.269   6.023 -1.0083 -1.2934  0.2671
53799SOL     OW68001  10.814  10.532  12.314 -0.1212 -0.2932  0.5695
53799SOL    HW168002  10.870  10.523  12.391 -0.9239 -0.4143  1.1483
53799SOL    HW268003  10.725  10.525  12.348 -0.5334  0.9007 -0.1967
53800SOL     OW68004   2.250   9.715   5.158 -0.0708 -0.3699  0.1303
53800SOL    HW168005   2.281   9.759   5.237 -1.3485  0.8164  0.0118
53800SOL    HW268006   2.157   9.735   5.155  0.0575  0.0742 -1.9762
53801SOL     OW68007  12.090   5.785  10.076 -0.4034 -0.3634  0.1702
53801SOL    HW168008  12.103   5.724  10.004 -1.2838 -0.7746  0.3500
53801SOL    HW268009  12.149   5.754  10.144 -1.0764 -1.2301  0.3837
53802SOL     OW68010  12.763   8.070   4.589  0.6157 -0.1444  0.4794
53802SOL    HW168011  12.723   8.023   4.663 -0.9035  0.1774 -0.1032
53802SOL    HW268012  12.841   8.111   4.627  0.4639 -0.8702  1.6487
53803SOL     OW68013  12.049   6.329   5.518  0.0044 -0.1544  0.3702
53803SOL    HW168014  12.140   6.300   5.510  0.3389  0.7711  0.6835
53803SOL    HW268015  12.049   6.417   5.481 -0.7160 -0.0522  0.6054
53804SOL     OW68016   5.236   1.058   2.136  0.4251  0.7159 -0.0060
53804SOL    HW168017   5.233   0.977   2.187 -0.1965  1.0663  0.5255
53804SOL    HW268018   5.197   1.124   2.193 -1.4420  0.8793 -1.3815
53805SOL     OW68019   9.882  11.289   9.288 -0.2537 -0.0461  0.2788
53805SOL    HW168020   9.866  11.279   9.382 -1.8066 -1.0698 -0.0455
53805SOL    HW268021   9.957  11.347   9.282  2.0149 -2.5103  2.2452
53806SOL     OW68022  10.618   6.382   6.366  0.1950  0.0712  0.3595
53806SOL    HW168023  10.563   6.429   6.428 -0.9560 -0.8552  0.0784
53806SOL    HW268024  10.632   6.297   6.406  1.2507  0.2122  0.3182
53807SOL     OW68025   9.111   1.695  10.099 -0.1335  0.1445  0.5844
53807SOL    HW168026   9.117   1.698  10.194  0.8106  0.6136  0.5232
53807SOL    HW268027   9.044   1.760  10.077 -0.2061  0.1859  0.9161
53808SOL     OW68028   5.203   9.762   4.609  0.0011  0.3626  0.1285
53808SOL    HW168029   5.200   9.740   4.516  0.3248 -1.3449  0.4932
53808SOL    HW268030   5.293   9.746   4.636  0.0798  1.4926  0.6084
53809SOL     OW68031   3.136   3.057   7.976  1.0525 -0.5794 -0.9136
53809SOL    HW168032   3.074   3.073   8.047  0.2236 -0.5804 -1.6119
53809SOL    HW268033   3.195   3.132   7.979 -0.0069  0.3109 -1.2701
53810SOL     OW68034   5.515  11.363   4.907  0.3016 -0.8460  0.0053
53810SOL    HW168035   5.445  11.391   4.966  0.9734  1.2580 -0.1060
53810SOL    HW268036   5.519  11.432   4.841  3.0632 -0.4414  0.5154
53811SOL     OW68037  10.525   6.810  10.524 -0.7672  0.5134 -0.1820
53811SOL    HW168038  10.576   6.883  10.490  2.0552 -0.6847  1.2082
53811SOL    HW268039  10.473   6.847  10.595 -1.0272  1.5354 -0.8791
53812SOL     OW68040   8.417  11.876   4.021  0.6973  0.1312  0.1159
53812SOL    HW168041   8.465  11.905   4.098  2.1639  0.9813 -1.0658
53812SOL    HW268042   8.340  11.933   4.017  1.3834  1.0677  0.1497
53813SOL     OW68043   4.089   5.727   7.833  0.2888 -0.3689 -0.2122
53813SOL    HW168044   4.047   5.656   7.784 -0.6027 -0.1229  0.1735
53813SOL    HW268045   4.130   5.683   7.908 -0.3955 -0.4745  0.1135
53814SOL     OW68046   1.054   4.303   4.622 -0.0975 -0.3562 -0.3631
53814SOL    HW168047   1.098   4.303   4.537  1.9849 -3.6018  0.5566
53814SOL    HW268048   1.098   4.371   4.672  1.5141 -1.1753 -0.6153
53815SOL     OW68049   9.700   7.981   1.834 -0.0875  0.1839 -0.2231
53815SOL    HW168050   9.665   8.039   1.767 -0.0419 -0.7010 -1.0329
53815SOL    HW268051   9.656   8.008   1.915 -2.2768 -0.5497 -1.1002
53816SOL     OW68052  11.767   1.894  11.217  0.1125  0.7171  0.0767
53816SOL    HW168053  11.838   1.882  11.153  1.3049  0.7663  1.3481
53816SOL    HW268054  11.691   1.851  11.176  1.5284 -1.7491 -0.1868
53817SOL     OW68055   4.115   6.897  11.588  0.1218  0.3702  0.4592
53817SOL    HW168056   4.210   6.884  11.591 -0.0766 -2.3828 -1.7449
53817SOL    HW268057   4.095   6.907  11.495 -1.7763  0.8742  0.8837
53818SOL     OW68058   5.741   0.535   7.696  0.3311 -0.4291  0.4194
53818SOL    HW168059   5.757   0.624   7.665  0.3463 -0.6112 -0.1016
53818SOL    HW268060   5.804   0.480   7.649 -0.9158 -0.9685 -0.6923
53819SOL     OW68061   8.787  10.313   9.260  0.0406 -0.2019 -0.1406
53819SOL    HW168062   8.840  10.389   9.237  0.1889 -0.3885 -0.4294
53819SOL    HW268063   8.831  10.240   9.217 -0.5431 -0.3358 -0.5100
53820SOL     OW68064  10.498   1.763   1.609 -0.1731 -0.0807  0.2383
53820SOL    HW168065  10.439   1.808   1.669 -0.5396  0.0529 -0.2169
53820SOL    HW268066  10.462   1.675   1.601 -1.0027  0.3523 -0.9647
53821SOL     OW68067  10.756   1.715  10.177  0.0249 -0.0326 -0.6053
53821SOL    HW168068  10.719   1.779  10.116  1.2430 -0.9209 -2.3674
53821SOL    HW268069  10.734   1.630  10.138 -1.2483 -0.7517  1.4989
53822SOL     OW68070  10.409   7.262   5.775 -0.3037  0.2841 -0.3796
53822SOL    HW168071  10.380   7.190   5.832  0.5151  1.2287  1.3259
53822SOL    HW268072  10.501   7.245   5.760  0.2474  1.5921  1.1422
53823SOL     OW68073  11.835   7.697  11.971  0.6715  0.1231 -0.6009
53823SOL    HW168074  11.829   7.708  11.876  1.0969  0.8641 -0.5530
53823SOL    HW268075  11.837   7.602  11.984 -2.7919 -0.1389 -1.0931
53824SOL     OW68076   7.185   8.196  11.621  0.1699 -0.0712  0.0433
53824SOL    HW168077   7.137   8.278  11.636  2.1994  1.1621  0.2331
53824SOL    HW268078   7.180   8.183  11.526  0.5981  0.7973 -0.1135
53825SOL     OW68079   6.396  11.844  11.200  0.3308  0.0171  0.1700
53825SOL    HW168080   6.446  11.812  11.275  1.5741 -1.2466 -1.1194
53825SOL    HW268081   6.378  11.765  11.148  1.1133  1.0474 -1.7585
53826SOL     OW68082   5.374   8.903   2.685 -0.0625  0.4029 -0.4458
53826SOL    HW168083   5.375   8.982   2.739  2.2667 -0.7978  1.4551
53826SOL    HW268084   5.338   8.835   2.742  1.1732 -0.6079 -0.8082
53827SOL     OW68085   4.045   1.890   2.979 -0.5548  0.5858 -0.4969
53827SOL    HW168086   4.088   1.856   2.900  0.6421 -0.7999  0.6735
53827SOL    HW268087   4.102   1.961   3.009  0.1911 -0.2944  0.2520
53828SOL     OW68088   1.313  12.601  10.636 -0.5932  0.0403  0.3408
53828SOL    HW168089   1.222  12.574  10.641 -0.4005 -0.4348  1.9814
53828SOL    HW268090   1.358  12.527  10.595 -0.6782 -0.5481  1.2652
53829SOL     OW68091   1.275   6.118   0.970 -0.2320  0.3300 -0.1066
53829SOL    HW168092   1.251   6.156   1.054 -0.9374 -0.6497  0.1594
53829SOL    HW268093   1.334   6.182   0.930 -0.1586  0.9588  0.9791
53830SOL     OW68094   7.464   6.498  11.850 -0.1411 -0.0398 -0.7023
53830SOL    HW168095   7.396   6.505  11.784 -0.9149  2.6716  0.2505
53830SOL    HW268096   7.541   6.538  11.810 -0.2667  0.5050 -0.4102
53831SOL     OW68097   0.693   7.401  11.058  0.2661 -0.1383  0.4085
53831SOL    HW168098   0.611   7.389  11.105 -0.1740  0.0720 -0.3079
53831SOL    HW268099   0.668   7.417  10.967  1.0733  0.5614  0.2979
53832SOL     OW68100   6.341  12.245   5.872  0.2643 -0.0267  0.1620
53832SOL    HW168101   6.338  12.153   5.899  1.2813 -0.1404 -0.0674
53832SOL    HW268102   6.288  12.248   5.792  0.2516 -0.4238  0.1517
53833SOL     OW68103   3.617   6.482   1.203  0.1751 -0.4610 -0.2678
53833SOL    HW168104   3.614   6.551   1.269  1.9698 -0.8326  0.2757
53833SOL    HW268105   3.554   6.509   1.137 -0.8424  0.5122  1.0362
53834SOL     OW68106   2.107   9.372   4.307 -0.3539 -0.2115 -0.0947
53834SOL    HW168107   2.033   9.407   4.257 -1.0214 -0.7010  0.5249
53834SOL    HW268108   2.074   9.290   4.343 -0.1195  0.4506  1.6936
53835SOL     OW68109  12.750   8.998   5.361  0.1521  0.2974 -0.0487
53835SOL    HW168110  12.811   8.956   5.420 -1.2414  1.2284  2.1872
53835SOL    HW268111  12.674   8.940   5.360  0.0515  0.4342 -0.7313
53836SOL     OW68112  11.233  10.595   9.059  0.1186  0.0388 -0.1396
53836SOL    HW168113  11.302  10.641   9.106  1.2773 -2.3668  0.6781
53836SOL    HW268114  11.177  10.557   9.127 -0.4067 -0.3369 -0.7569
53837SOL     OW68115   8.525   6.163  11.459  0.0491 -0.4888  0.0245
53837SOL    HW168116   8.559   6.148  11.547 -0.0637 -1.5530 -0.0994
53837SOL    HW268117   8.535   6.257  11.445 -0.9979 -0.0969  1.6218
53838SOL     OW68118   5.635   6.916   1.009  0.3041  0.0672  0.0885
53838SOL    HW168119   5.595   6.877   0.931  0.7224 -1.2684  0.5145
53838SOL    HW268120   5.565   6.917   1.074 -0.4428  2.4502 -0.6702
53839SOL     OW68121  11.843   9.135   8.726  0.2420 -0.7715  0.4442
53839SOL    HW168122  11.850   9.170   8.637 -1.2739  0.9208  0.9196
53839SOL    HW268123  11.926   9.092   8.742  1.1039  0.1509 -1.2768
53840SOL     OW68124   6.339   6.229   0.166  0.6211  0.5884  0.3533
53840SOL    HW168125   6.421   6.188   0.195 -0.9903 -1.7134  2.0214
53840SOL    HW268126   6.302   6.267   0.246 -0.4702  0.6524 -0.1666
53841SOL     OW68127   8.902   8.669   6.956 -0.0966 -0.2612  0.9019
53841SOL    HW168128   8.881   8.762   6.967  1.4791  0.0903  1.1239
53841SOL    HW268129   8.844   8.640   6.885  0.4877  1.2986 -0.2878
53842SOL     OW68130   6.148   1.767   8.373  0.3604 -0.1283 -0.0738
53842SOL    HW168131   6.073   1.714   8.346  0.8116 -0.4738 -0.6863
53842SOL    HW268132   6.168   1.737   8.462  0.7088 -1.1173 -0.4712
53843SOL     OW68133  10.035   9.111   5.182  0.1087 -0.2484 -0.5680
53843SOL    HW168134  10.087   9.191   5.174  0.8593 -0.8034 -1.3376
53843SOL    HW268135  10.086   9.054   5.239 -0.7623  0.0710  0.5647
53844SOL     OW68136   0.578  11.583   9.030  0.5453  0.5822  0.1947
53844SOL    HW168137   0.598  11.507   8.975  0.0878  0.9749 -0.5236
53844SOL    HW268138   0.546  11.545   9.112  1.3368 -0.0077  0.2437
53845SOL     OW68139   3.537   8.580   8.732 -0.3887  0.2308 -0.0886
53845SOL    HW168140   3.452   8.545   8.759 -0.1067 -1.1113 -0.8699
53845SOL    HW268141   3.538   8.669   8.768 -2.2026  0.3603 -0.2514
53846SOL     OW68142   3.315  10.551  11.869  0.1183  0.0565 -0.2066
53846SOL    HW168143   3.244  10.494  11.838  0.5400 -0.0611 -0.9864
53846SOL    HW268144   3.363  10.496  11.931 -1.9642  0.9686  2.4061
53847SOL     OW68145   7.641   2.600   4.898  0.0358  1.0861  0.2126
53847SOL    HW168146   7.635   2.520   4.951  0.3933 -0.1744 -1.5514
53847SOL    HW268147   7.704   2.655   4.945 -0.6276  0.6055  1.7478
53848SOL     OW68148   5.304   1.248   2.702 -0.2224 -0.1158 -0.2427
53848SOL    HW168149   5.348   1.210   2.779  2.0035  0.2158 -1.2831
53848SOL    HW268150   5.296   1.341   2.723  2.5110  0.4380 -1.2451
53849SOL     OW68151   9.999   4.052  11.257 -0.2728 -0.2773  0.0602
53849SOL    HW168152   9.951   4.125  11.217 -1.9204 -1.5386 -0.3846
53849SOL    HW268153  10.087   4.086  11.272 -1.2182  2.0597  0.6521
53850SOL     OW68154   7.923   8.803   3.125  0.0396 -0.3239  0.1524
53850SOL    HW168155   7.880   8.878   3.084  0.2707  0.7051  1.7090
53850SOL    HW268156   8.017   8.820   3.114  0.0822 -0.9965 -0.5365
53851SOL     OW68157   1.758   6.921   2.213  0.3197  0.0192 -0.3123
53851SOL    HW168158   1.698   6.846   2.221 -0.0696  0.2579 -0.8995
53851SOL    HW268159   1.746   6.951   2.123  1.1166  0.2513 -0.3490
53852SOL     OW68160   6.627   2.554   2.882  0.3769  0.2297 -0.2164
53852SOL    HW168161   6.685   2.497   2.933 -0.9300  1.7233  3.2484
53852SOL    HW268162   6.683   2.624   2.851  1.5792 -1.6681 -2.7244
53853SOL     OW68163  11.113   0.652   9.985 -0.1720  0.1769  0.3111
53853SOL    HW168164  11.028   0.688   9.960 -0.4399  0.4134  1.5118
53853SOL    HW268165  11.176   0.722   9.965 -0.1952 -0.1327 -0.9147
53854SOL     OW68166   4.203  12.345   3.896  0.5717  0.1787  0.5667
53854SOL    HW168167   4.283  12.292   3.890 -0.1103 -0.7803 -0.1656
53854SOL    HW268168   4.148  12.315   3.824 -0.3750  0.9783  0.9372
53855SOL     OW68169   0.183   8.153   1.148  0.3403  0.3507 -0.2782
53855SOL    HW168170   0.196   8.175   1.056  0.2802 -0.9534 -0.6138
53855SOL    HW268171   0.255   8.197   1.194  1.2144 -0.1735 -1.1284
53856SOL     OW68172   3.344   0.194   8.074 -0.0122  0.6011  0.3399
53856SOL    HW168173   3.301   0.215   7.992  0.3590 -0.8467 -0.2694
53856SOL    HW268174   3.418   0.139   8.049  0.1455  0.1726  1.6295
53857SOL     OW68175  11.288  10.907   2.393  0.0410  0.2225  0.6437
53857SOL    HW168176  11.251  10.995   2.399 -0.5005  0.1324 -0.9475
53857SOL    HW268177  11.238  10.856   2.457  1.6708  1.4266  3.0247
53858SOL     OW68178   2.939  11.840   6.339  0.0511 -0.1157  0.1829
53858SOL    HW168179   2.937  11.877   6.427 -2.3439  0.5948 -0.1087
53858SOL    HW268180   2.911  11.749   6.350 -1.0172  0.1874  0.1048
53859SOL     OW68181   2.042   0.764   9.060  0.0673  0.1078 -0.5511
53859SOL    HW168182   2.030   0.859   9.055 -1.9071 -0.0593  0.0930
53859SOL    HW268183   1.976   0.728   9.002 -1.0389 -0.9142  1.2611
53860SOL     OW68184   5.751   0.742   6.155  0.5059 -0.4746 -0.0143
53860SOL    HW168185   5.713   0.667   6.108  1.0039 -0.8290  0.1454
53860SOL    HW268186   5.825   0.770   6.101  0.6569 -0.4443  0.2082
53861SOL     OW68187  11.100   3.089   5.843  0.0469 -0.2499 -0.3659
53861SOL    HW168188  11.040   3.104   5.771  0.2458 -2.0739 -0.9766
53861SOL    HW268189  11.075   3.003   5.877  0.0467  0.4960  1.6713
53862SOL     OW68190   4.248   1.873   8.254  0.4646  0.5241 -0.0144
53862SOL    HW168191   4.278   1.896   8.166  0.1365  0.2240 -0.2082
53862SOL    HW268192   4.243   1.777   8.253  0.0988  0.5416  0.2115
53863SOL     OW68193   9.843   0.302   1.328  0.0734  0.3345  0.0265
53863SOL    HW168194   9.907   0.311   1.258 -1.4513 -1.7236 -1.7847
53863SOL    HW268195   9.768   0.353   1.298 -0.9783 -1.4005 -0.4224
53864SOL     OW68196   0.687   3.339   6.678 -0.6049  0.2301  0.2298
53864SOL    HW168197   0.764   3.290   6.708  0.5954 -0.3852 -3.3557
53864SOL    HW268198   0.630   3.273   6.640 -0.5645  1.1453 -1.5398
53865SOL     OW68199   9.665   3.756   9.071 -0.2628 -0.2383 -0.1323
53865SOL    HW168200   9.702   3.840   9.045 -1.2655  0.4918  0.7313
53865SOL    HW268201   9.733   3.716   9.125  0.1867  0.0335 -0.4862
53866SOL     OW68202   2.095   3.441   1.975 -0.0125 -0.1529  0.2499
53866SOL    HW168203   2.071   3.460   1.885  1.4326 -1.8071 -0.5366
53866SOL    HW268204   2.164   3.504   1.996 -0.4648  0.3399  0.2630
53867SOL     OW68205  10.102  11.277   7.723 -0.0357  0.9613 -0.3045
53867SOL    HW168206  10.104  11.201   7.665 -0.2027  1.8689 -1.5393
53867SOL    HW268207  10.194  11.291   7.749 -0.1562 -0.4011  0.9696
53868SOL     OW68208   1.544   3.181   0.931  0.2147  0.1299 -0.5951
53868SOL    HW168209   1.478   3.111   0.930 -1.5440  1.6739  0.3682
53868SOL    HW268210   1.607   3.153   0.996 -0.6904 -0.3976  0.0834
53869SOL     OW68211   6.225   4.723   5.890  0.2043 -0.2950 -0.1729
53869SOL    HW168212   6.164   4.714   5.963 -0.9279 -0.4768 -1.0982
53869SOL    HW268213   6.309   4.746   5.930 -0.2469 -0.9741  1.2105
53870SOL     OW68214   6.717   7.171   2.546 -0.1229 -0.0503  0.4327
53870SOL    HW168215   6.748   7.205   2.630  1.7934 -1.1115  0.2164
53870SOL    HW268216   6.791   7.120   2.512 -0.9293  0.1667 -1.7999
53871SOL     OW68217   7.539   7.721   4.952  0.0197  0.4495  0.0775
53871SOL    HW168218   7.483   7.735   4.875 -0.2648  0.8521  0.3532
53871SOL    HW268219   7.518   7.633   4.982  0.3408  0.1770 -0.4734
53872SOL     OW68220   7.661  12.371  12.696 -0.3042 -0.5102 -0.2807
53872SOL    HW168221   7.602  12.296  12.700  0.0239 -0.8207 -1.1033
53872SOL    HW268222   7.705  12.372  12.782 -2.8986  0.9237  1.1444
53873SOL     OW68223   7.164   8.372   8.844  0.0221 -0.1705 -0.2300
53873SOL    HW168224   7.133   8.310   8.910  0.6930  0.3740  0.6165
53873SOL    HW268225   7.087   8.425   8.822 -0.2188 -0.3952  0.0694
53874SOL     OW68226   5.678   7.812  10.757  0.2424  0.1482  0.5083
53874SOL    HW168227   5.758   7.860  10.781  0.0818  1.0772 -0.7088
53874SOL    HW268228   5.681   7.809  10.661  0.6252 -2.9661  0.5198
53875SOL     OW68229   2.030   8.171   5.999 -0.0871 -0.2174  0.3797
53875SOL    HW168230   2.080   8.145   6.076 -0.8001  1.4565  1.4609
53875SOL    HW268231   2.089   8.152   5.925  1.8705  0.9589  1.5443
53876SOL     OW68232  11.871  10.226   4.607  0.5432  0.0144  0.2676
53876SOL    HW168233  11.924  10.281   4.549 -0.3110 -0.3120 -0.8508
53876SOL    HW268234  11.869  10.140   4.565 -1.7577  0.2913 -0.3359
53877SOL     OW68235   7.285   7.687  12.722 -0.2286 -0.5250 -0.2433
53877SOL    HW168236   7.285   7.634  12.642  1.2620 -1.6928  0.4724
53877SOL    HW268237   7.276   7.623  12.793  2.4167 -0.0134  0.6938
53878SOL     OW68238   8.036   5.766   8.063  0.1892  0.4896 -0.9802
53878SOL    HW168239   7.982   5.827   8.114 -0.0233  0.1640 -0.8093
53878SOL    HW268240   8.032   5.800   7.974 -1.2124 -0.1325 -1.1860
53879SOL     OW68241   1.540   6.656   5.027 -0.1551 -0.0292 -0.1608
53879SOL    HW168242   1.528   6.670   5.121 -1.3309  0.4333 -0.3567
53879SOL    HW268243   1.455   6.678   4.989  0.0999 -0.8542 -1.2678
53880SOL     OW68244   0.223  11.639   0.491 -0.0737 -0.1132 -0.5177
53880SOL    HW168245   0.167  11.617   0.566 -0.8957  1.3546 -0.6548
53880SOL    HW268246   0.161  11.664   0.422  0.6472  3.4174 -0.1088
53881SOL     OW68247  11.571   0.727   1.718 -0.2735 -0.1751 -0.2494
53881SOL    HW168248  11.510   0.682   1.776  0.1225  0.4516  0.6744
53881SOL    HW268249  11.524   0.806   1.691  0.3923  0.7086  1.0915
53882SOL     OW68250   7.079   9.201  12.514  0.2087 -0.3030  0.2236
53882SOL    HW168251   7.173   9.186  12.517  0.3756  0.6136 -0.2007
53882SOL    HW268252   7.046   9.167  12.597  0.6621 -2.2102 -0.3106
53883SOL     OW68253   9.197   4.045   6.201  0.1881  0.1053  0.2820
53883SOL    HW168254   9.282   4.066   6.240  0.5602  1.7647 -1.3114
53883SOL    HW268255   9.218   4.019   6.111 -0.8633 -1.2054  0.3906
53884SOL     OW68256   8.476  10.333   0.860 -0.2956 -0.4409  0.4542
53884SOL    HW168257   8.382  10.319   0.847 -0.6050  0.9798  0.9633
53884SOL    HW268258   8.484  10.369   0.948  0.6332  0.1620  0.1519
53885SOL     OW68259  11.336  10.954  10.619 -0.1353  0.4116  0.8336
53885SOL    HW168260  11.369  11.041  10.595 -0.0650 -0.5404 -3.3878
53885SOL    HW268261  11.414  10.902  10.637  0.4972 -0.1988 -2.8348
53886SOL     OW68262   3.342  12.613   7.518  0.5033  0.4469 -0.0934
53886SOL    HW168263   3.414  12.561   7.555  0.6769  1.0356  0.4152
53886SOL    HW268264   3.361  12.703   7.545 -1.2375  0.4144  1.3958
53887SOL     OW68265   4.172   5.734  10.915  0.5788  0.1851 -0.6906
53887SOL    HW168266   4.213   5.717  10.830  1.1328  1.1030 -0.6200
53887SOL    HW268267   4.225   5.685  10.977  2.0789  1.9480 -0.5057
53888SOL     OW68268   8.892   1.830   3.081 -0.0241 -0.2780 -0.0442
53888SOL    HW168269   8.804   1.850   3.050 -0.5498  0.2511  1.6804
53888SOL    HW268270   8.922   1.758   3.026 -2.5324 -2.2032  0.9468
53889SOL     OW68271   7.953   4.170  10.857  0.0846 -0.3669 -0.1924
53889SOL    HW168272   7.865   4.155  10.891  1.3041 -0.1192  3.4562
53889SOL    HW268273   7.957   4.264  10.843 -0.3404 -0.4305 -0.7799
53890SOL     OW68274   7.223   6.916   6.771 -0.5392 -0.1420 -0.3999
53890SOL    HW168275   7.306   6.869   6.773  0.1248  0.8035 -2.7984
53890SOL    HW268276   7.208   6.936   6.679 -4.4758 -2.0191 -0.3596
53891SOL     OW68277   8.094   0.086   6.295 -0.5820 -0.4930 -0.4293
53891SOL    HW168278   8.076   0.053   6.383  0.8798 -1.1448 -0.3437
53891SOL    HW268279   8.010   0.122   6.265 -0.8415  0.8054  1.6534
53892SOL     OW68280   2.127   2.791   5.148 -0.0235  0.0939 -0.1094
53892SOL    HW168281   2.215   2.803   5.184 -0.9467 -0.9067  2.7187
53892SOL    HW268282   2.134   2.824   5.058  2.9865  0.8697  0.2839
53893SOL     OW68283  10.583   9.326   6.982 -0.5841 -0.5094 -0.0692
53893SOL    HW168284  10.619   9.321   7.071  0.6254 -0.2447 -0.5291
53893SOL    HW268285  10.653   9.365   6.930 -0.5986 -2.3055 -1.5151
53894SOL     OW68286   4.966   1.198   6.525 -0.8299  0.2194  0.0679
53894SOL    HW168287   4.913   1.182   6.603 -0.2636 -1.7318  0.1024
53894SOL    HW268288   5.056   1.187   6.554 -0.6472 -1.6954 -1.0410
53895SOL     OW68289   0.606   8.836   3.489 -0.3311  0.3297  0.2127
53895SOL    HW168290   0.646   8.749   3.494  0.4507  0.6490 -0.3735
53895SOL    HW268291   0.588   8.849   3.396  1.7921  1.7616 -0.0583
53896SOL     OW68292   6.326   6.457   1.531  0.2469  0.0009 -0.0524
53896SOL    HW168293   6.241   6.467   1.573  0.3826  0.3761  0.1341
53896SOL    HW268294   6.311   6.484   1.440  0.1597  0.0301 -0.0293
53897SOL     OW68295   1.983   7.310   9.307 -0.4252  0.2993  0.0665
53897SOL    HW168296   1.925   7.381   9.280  0.5977  0.6397 -1.3538
53897SOL    HW268297   2.040   7.350   9.373  0.0213  0.7740 -0.5887
53898SOL     OW68298  11.196  11.293   5.552  0.4595  0.5456  0.2163
53898SOL    HW168299  11.134  11.222   5.537  0.7278  0.5533 -1.0614
53898SOL    HW268300  11.254  11.259   5.620 -0.4516  0.2318  0.8610
53899SOL     OW68301   4.064   9.871   9.428  0.1645 -0.8302  0.0669
53899SOL    HW168302   3.995   9.860   9.362  1.7082 -1.1053 -1.5823
53899SOL    HW268303   4.016   9.883   9.510 -1.8620  0.4538 -1.2072
53900SOL     OW68304  11.002   7.101   1.293 -0.9328  0.4674 -0.0946
53900SOL    HW168305  10.984   7.072   1.203  0.3960 -1.0775  0.0872
53900SOL    HW268306  11.063   7.174   1.283 -1.6086  0.9984 -0.4591
53901SOL     OW68307   5.717   4.671   4.939 -0.1157 -0.4240  0.0397
53901SOL    HW168308   5.690   4.763   4.935  2.0653  0.2463 -0.3530
53901SOL    HW268309   5.659   4.627   4.876 -0.4947  0.8685 -0.5482
53902SOL     OW68310   0.669  10.638   2.714 -0.3984  0.5764 -0.4250
53902SOL    HW168311   0.698  10.661   2.625  1.8889 -0.3314  0.0176
53902SOL    HW268312   0.619  10.558   2.703 -1.2584  1.1751 -1.0163
53903SOL     OW68313   8.972   0.244   6.759  0.1140  0.2193  0.4811
53903SOL    HW168314   9.023   0.265   6.838  1.1141  1.2510 -0.4028
53903SOL    HW268315   9.035   0.249   6.688 -0.6870 -1.1134 -0.3662
53904SOL     OW68316   8.458   0.907   4.348 -0.0359  0.9340  0.2198
53904SOL    HW168317   8.422   0.825   4.381  2.1589 -0.9557 -1.7406
53904SOL    HW268318   8.476   0.959   4.427  0.0589 -1.1257  1.6138
53905SOL     OW68319  12.103  10.622   8.446 -0.7398  0.0773  0.6022
53905SOL    HW168320  12.054  10.552   8.401 -0.1531 -0.2869  0.5163
53905SOL    HW268321  12.062  10.703   8.416 -1.0200 -0.2051  0.2017
53906SOL     OW68322   7.379   3.899  11.707 -0.0372 -0.0082  0.8219
53906SOL    HW168323   7.293   3.925  11.675  0.1952 -0.7586 -0.4871
53906SOL    HW268324   7.431   3.979  11.705 -0.8231  0.5615  2.1177
53907SOL     OW68325   2.914  10.988   1.550 -0.0840  0.2417  0.6883
53907SOL    HW168326   2.845  11.036   1.596 -1.3091 -0.2795 -0.5090
53907SOL    HW268327   2.884  10.897   1.551 -0.2842  0.2291 -1.2533
53908SOL     OW68328   5.887   9.407   0.200  0.2051  0.0947 -0.8307
53908SOL    HW168329   5.814   9.393   0.139  0.8504 -1.0530 -1.3664
53908SOL    HW268330   5.940   9.327   0.193 -0.5688 -0.8531  2.4568
53909SOL     OW68331   1.462  12.627   9.726 -0.4181  0.2526  0.0583
53909SOL    HW168332   1.440  12.721   9.727  0.0072  0.3580  1.5440
53909SOL    HW268333   1.397  12.587   9.784 -0.4665 -0.3629 -0.4058
53910SOL     OW68334   9.557   3.411   8.099  0.9795 -0.8034  0.1248
53910SOL    HW168335   9.606   3.472   8.044  1.6933 -1.9369 -0.5442
53910SOL    HW268336   9.523   3.346   8.037  3.0266 -2.9376  1.1400
53911SOL     OW68337   0.051   3.470  12.306 -0.3528 -0.2747  0.1860
53911SOL    HW168338   0.126   3.527  12.321 -0.8507  0.4777 -0.0958
53911SOL    HW268339   0.088   3.388  12.275  0.4047 -0.2684  1.0421
53912SOL     OW68340   1.803   3.709   4.355  0.1950  0.1020 -0.2030
53912SOL    HW168341   1.828   3.738   4.267 -1.1517  2.4223  0.1029
53912SOL    HW268342   1.729   3.766   4.379  0.3205 -0.6794  2.2971
53913SOL     OW68343  11.508  10.679   8.560  0.3622  0.0156  0.1837
53913SOL    HW168344  11.471  10.679   8.649  0.3463  0.8109  0.1802
53913SOL    HW268345  11.583  10.738   8.565  1.5771 -1.4450  0.1482
53914SOL     OW68346   6.116   8.476   0.844  0.6580 -0.7922  0.3021
53914SOL    HW168347   6.131   8.566   0.873 -0.6631 -1.0573  1.9476
53914SOL    HW268348   6.026   8.475   0.813  0.9028 -1.4001 -0.4396
53915SOL     OW68349  11.371   0.489   4.470 -0.3369  0.3145  0.5030
53915SOL    HW168350  11.380   0.464   4.562  1.4103  1.5396  0.7036
53915SOL    HW268351  11.422   0.423   4.422 -0.4507  0.2377  0.4848
53916SOL     OW68352   3.899   1.361  12.439  0.2047  0.6207 -0.2308
53916SOL    HW168353   3.963   1.355  12.510 -0.4519 -0.6464  0.2897
53916SOL    HW268354   3.949   1.341  12.360  0.7362  1.0304 -0.0024
53917SOL     OW68355  12.665  11.258   1.295  0.1606  0.1877 -0.8025
53917SOL    HW168356  12.704  11.344   1.305 -1.0308  0.7963 -1.1907
53917SOL    HW268357  12.590  11.272   1.237 -0.0041 -1.1232 -0.9474
53918SOL     OW68358   4.099   8.743   0.777 -0.4341  0.8145 -0.2974
53918SOL    HW168359   4.191   8.720   0.767 -0.8583 -0.4062 -1.7357
53918SOL    HW268360   4.100   8.824   0.828  1.2323 -1.3783  3.6131
53919SOL     OW68361  11.604   0.277   2.468  0.0099 -0.0902  0.2513
53919SOL    HW168362  11.521   0.327   2.468 -0.4263 -0.7798  1.3289
53919SOL    HW268363  11.634   0.282   2.559  1.0464 -0.0466 -0.0873
53920SOL     OW68364  12.429  12.678   6.933 -0.0380  0.4609  0.1751
53920SOL    HW168365  12.437  12.680   6.837  0.2424 -0.1886  0.1746
53920SOL    HW268366  12.388  12.593   6.951  0.1994  0.4451  0.6479
53921SOL     OW68367  10.304   9.483   8.006  0.2755 -0.2071  0.1530
53921SOL    HW168368  10.237   9.547   7.983  0.0941 -1.4149 -3.3084
53921SOL    HW268369  10.263   9.398   7.990  2.1369 -1.0090 -0.7854
53922SOL     OW68370   1.887   1.089   3.643  0.0555  0.1950 -0.1081
53922SOL    HW168371   1.802   1.078   3.601  0.7225  0.6166 -1.6246
53922SOL    HW268372   1.891   1.018   3.707 -1.2697 -0.0522 -0.2681
53923SOL     OW68373  10.591   6.859   6.813 -0.3002 -0.3191  0.6361
53923SOL    HW168374  10.685   6.861   6.796 -0.3531 -0.5910  0.2993
53923SOL    HW268375  10.561   6.946   6.789 -0.1021 -0.1626  0.9445
53924SOL     OW68376   1.124   8.949   8.387  0.8029  0.3257  0.5071
53924SOL    HW168377   1.117   8.870   8.441  1.0706  1.5985  2.5327
53924SOL    HW268378   1.048   8.946   8.329  0.8844 -1.4568  0.4246
53925SOL     OW68379   3.166   4.382   9.713  0.0274 -0.4504 -0.7573
53925SOL    HW168380   3.184   4.288   9.709 -2.0818 -0.9623  0.3790
53925SOL    HW268381   3.244   4.419   9.755  0.6150 -1.7818 -0.6155
53926SOL     OW68382  10.805  10.213   4.435 -0.5122  0.0970 -0.2255
53926SOL    HW168383  10.723  10.238   4.393 -0.6333 -0.2481 -0.1995
53926SOL    HW268384  10.786  10.217   4.529 -0.9947 -1.5285 -0.2149
53927SOL     OW68385   4.144   3.738   5.713 -0.3695 -0.4816  0.0717
53927SOL    HW168386   4.113   3.651   5.738  0.4504 -1.0217 -0.7366
53927SOL    HW268387   4.116   3.795   5.785 -1.7341 -1.2344  0.1712
53928SOL     OW68388   9.666  11.933   2.664 -0.1136  0.2268  0.0677
53928SOL    HW168389   9.753  11.892   2.659 -0.1443  0.2730 -0.9872
53928SOL    HW268390   9.668  11.983   2.745  0.4956 -0.5750  0.5629
53929SOL     OW68391   9.115  11.039   1.180 -0.3262  0.1620 -0.0495
53929SOL    HW168392   9.064  11.106   1.135  0.7904  1.0149 -0.0845
53929SOL    HW268393   9.196  11.034   1.130 -0.6475 -1.7199 -0.4483
53930SOL     OW68394   7.287   7.696   3.667 -0.4775  0.0591  0.9995
53930SOL    HW168395   7.331   7.637   3.729 -0.7238  1.4447  2.5720
53930SOL    HW268396   7.292   7.782   3.708 -0.5219  1.0824 -1.0206
53931SOL     OW68397   4.520   8.897   9.719 -0.7849  0.0983  0.7734
53931SOL    HW168398   4.521   8.818   9.664 -0.7929 -1.3773  2.7784
53931SOL    HW268399   4.448   8.883   9.780 -1.2869  2.0660  0.6896
53932SOL     OW68400   0.868  10.142  10.266 -0.1920 -0.3366 -0.1576
53932SOL    HW168401   0.904  10.060  10.300 -0.1781 -0.1529  0.2721
53932SOL    HW268402   0.787  10.116  10.222  1.3577 -1.0486 -2.8369
53933SOL     OW68403   7.297   8.016   2.231 -0.0245  0.1942  0.4961
53933SOL    HW168404   7.283   8.001   2.137  4.1621 -0.2453 -0.2914
53933SOL    HW268405   7.321   8.108   2.238  0.0144  0.1464  1.0613
53934SOL     OW68406   4.212   7.428   4.855 -0.1851  0.1293  0.0130
53934SOL    HW168407   4.295   7.386   4.832 -0.4047 -0.5006  0.3516
53934SOL    HW268408   4.228   7.467   4.941 -0.2429 -0.0003  0.0825
53935SOL     OW68409   4.717   0.629   7.023  0.1623 -0.3053 -0.3189
53935SOL    HW168410   4.809   0.654   7.020  0.0698  0.1447  0.2947
53935SOL    HW268411   4.675   0.700   7.072 -0.3794 -0.8893  0.0743
53936SOL     OW68412   1.101   1.412  10.676  0.5011  0.1362 -0.6518
53936SOL    HW168413   1.021   1.431  10.627 -0.3755  0.2849  0.7843
53936SOL    HW268414   1.165   1.476  10.644 -0.7851  1.8950  0.1429
53937SOL     OW68415   4.042   2.403   1.562 -0.2221  0.4607  0.0735
53937SOL    HW168416   4.075   2.340   1.626 -1.3833 -0.5125 -0.2385
53937SOL    HW268417   4.106   2.400   1.490 -0.6988 -1.0730 -0.3383
53938SOL     OW68418   3.268   3.586   4.694 -0.3829 -0.6311  0.1425
53938SOL    HW168419   3.288   3.504   4.648  0.0330  0.7226 -2.2545
53938SOL    HW268420   3.350   3.634   4.694 -0.4050 -0.5321  2.3126
53939SOL     OW68421  12.660   7.215   0.129 -0.1963  0.1839 -0.2075
53939SOL    HW168422  12.593   7.149   0.113  0.3963 -0.4667 -0.0424
53939SOL    HW268423  12.624   7.268   0.201 -0.1949 -0.6432  0.4140
53940SOL     OW68424   0.851   6.742   0.172 -0.3669 -0.2187  0.1830
53940SOL    HW168425   0.793   6.704   0.238  1.2676 -1.5087  0.9519
53940SOL    HW268426   0.874   6.668   0.116 -0.4898  0.5498 -0.9204
53941SOL     OW68427   4.612  10.403   3.122 -0.1851 -0.5144 -0.2837
53941SOL    HW168428   4.528  10.378   3.083 -0.1020 -0.2074 -0.6577
53941SOL    HW268429   4.590  10.424   3.213 -1.0286  2.3601 -1.0659
53942SOL     OW68430   5.526   1.711   3.762 -0.3386 -0.3549  0.1647
53942SOL    HW168431   5.571   1.641   3.809 -0.1576 -0.7400 -0.5615
53942SOL    HW268432   5.467   1.664   3.702  0.4178  0.0822 -0.9560
53943SOL     OW68433   8.013   3.507   6.734  0.3237 -0.4499 -0.2243
53943SOL    HW168434   7.998   3.451   6.809  0.2287 -1.0821 -0.7097
53943SOL    HW268435   8.107   3.526   6.736  0.2030  0.1214  0.4506
53944SOL     OW68436   0.999   2.421   2.989  0.0289  0.3367 -0.4023
53944SOL    HW168437   0.988   2.363   3.065  2.1971 -1.1283 -1.1110
53944SOL    HW268438   0.963   2.505   3.018  0.9479 -0.1180  2.3463
53945SOL     OW68439   1.400  12.009   0.900 -0.4058  0.1618  0.8736
53945SOL    HW168440   1.379  12.002   0.993  0.2117  0.2903  1.0283
53945SOL    HW268441   1.443  12.094   0.892 -1.7502  0.8174  0.2086
53946SOL     OW68442   6.683   3.538   1.108  0.6356 -0.2480 -0.1111
53946SOL    HW168443   6.649   3.453   1.078  0.4599  0.0402 -0.7375
53946SOL    HW268444   6.626   3.562   1.181 -0.1209 -0.0655 -0.7496
53947SOL     OW68445   2.632   1.195  10.391  0.4002  0.1550 -0.2874
53947SOL    HW168446   2.658   1.158  10.475 -1.0913  0.1901  0.2209
53947SOL    HW268447   2.536   1.194  10.392  0.2851 -1.4673 -2.7012
53948SOL     OW68448  11.605   3.233   9.138  0.0689 -0.0166 -0.4963
53948SOL    HW168449  11.598   3.324   9.168 -0.3960  0.2348 -1.3108
53948SOL    HW268450  11.515   3.207   9.120  0.1887 -0.6947 -0.1134
53949SOL     OW68451   2.713   6.886   4.847 -0.1911 -0.3637 -0.2057
53949SOL    HW168452   2.698   6.951   4.916 -1.7518  0.1552 -0.9842
53949SOL    HW268453   2.700   6.934   4.765  0.8674 -1.1509 -0.8654
53950SOL     OW68454   0.435  11.640   9.612  0.3385  0.3318  0.2598
53950SOL    HW168455   0.451  11.724   9.654  0.3574 -0.4570  1.9189
53950SOL    HW268456   0.484  11.644   9.530  1.5663  1.3870  1.0073
53951SOL     OW68457   0.407   1.078   4.363 -0.5156  0.1633  0.1144
53951SOL    HW168458   0.394   0.984   4.356 -1.5623  0.3391 -0.5556
53951SOL    HW268459   0.397   1.110   4.273 -2.7711  1.1928  0.6581
53952SOL     OW68460   3.501   9.218   4.748  0.4360 -0.0912  0.4095
53952SOL    HW168461   3.453   9.274   4.809 -1.2979  0.0353 -0.9934
53952SOL    HW268462   3.546   9.279   4.690  2.0099 -0.2115  1.4505
53953SOL     OW68463   8.069   2.150   4.902 -0.2761 -0.0657 -0.1533
53953SOL    HW168464   8.011   2.187   4.968 -1.1737  1.3952 -1.6956
53953SOL    HW268465   8.071   2.215   4.832  2.4484 -0.5196 -0.6209
53954SOL     OW68466   1.025   2.780  11.143  0.0062  0.4115 -0.0479
53954SOL    HW168467   1.098   2.824  11.187  0.2872 -1.4478  1.4713
53954SOL    HW268468   0.966   2.755  11.214 -0.1052 -1.6553 -0.8104
53955SOL     OW68469  11.978  12.277   6.659  0.3499 -0.0106  0.2772
53955SOL    HW168470  11.916  12.288   6.587 -0.0196 -2.1100  0.2244
53955SOL    HW268471  12.006  12.366   6.679 -0.4222  0.7413 -1.6735
53956SOL     OW68472  12.134   0.440  10.791 -0.4485 -0.1613  0.4519
53956SOL    HW168473  12.206   0.503  10.793 -1.3979  1.0170 -0.7033
53956SOL    HW268474  12.162   0.370  10.850  2.6926 -0.9335 -1.6988
53957SOL     OW68475   3.539   7.147   1.136 -0.5311  0.7424  0.0619
53957SOL    HW168476   3.552   7.187   1.222  0.8721 -0.7636  0.6182
53957SOL    HW268477   3.568   7.213   1.074  0.0796  1.2349  0.8493
53958SOL     OW68478   3.179   8.141   2.978  0.5357 -0.4131 -0.2767
53958SOL    HW168479   3.171   8.219   2.924  0.7273  0.4604  0.9217
53958SOL    HW268480   3.121   8.157   3.052  1.4710 -0.8809  0.5811
53959SOL     OW68481   5.918   3.100   1.875 -0.0746 -0.7271  0.3422
53959SOL    HW168482   5.873   3.024   1.911 -1.7587  0.0517 -0.0096
53959SOL    HW268483   5.976   3.128   1.946 -1.3379 -0.8401  1.4887
53960SOL     OW68484   7.333   5.826   1.280 -0.1188 -0.1004 -1.0545
53960SOL    HW168485   7.399   5.762   1.307 -0.3834 -0.6305 -1.6481
53960SOL    HW268486   7.367   5.863   1.199 -0.8309 -0.8282 -1.7031
53961SOL     OW68487  10.264  12.136   7.288 -0.0313  0.3511  0.1664
53961SOL    HW168488  10.274  12.193   7.211  0.1925 -0.4544 -0.4229
53961SOL    HW268489  10.198  12.179   7.341 -0.9168  0.4370 -0.9621
53962SOL     OW68490   0.630   4.597   5.798 -0.1166  0.4132  0.2174
53962SOL    HW168491   0.665   4.510   5.815  1.1065  0.8936  0.2540
53962SOL    HW268492   0.642   4.610   5.704 -1.4747  0.0593 -0.0261
53963SOL     OW68493   4.083   3.748  12.502  0.1866  0.0169  1.2578
53963SOL    HW168494   4.060   3.720  12.414  1.8468  1.2551  0.3816
53963SOL    HW268495   4.126   3.672  12.541  2.2714  0.3847 -0.1555
53964SOL     OW68496  12.374  10.177  10.340  0.3313 -0.2112 -0.7100
53964SOL    HW168497  12.296  10.168  10.395  1.3442  0.0978  0.8441
53964SOL    HW268498  12.347  10.237  10.270 -0.5419  0.7007  0.3655
53965SOL     OW68499   9.094  11.931   8.336  0.5409 -0.1762 -0.0779
53965SOL    HW168500   9.090  11.968   8.248  1.4021 -0.1187 -0.0992
53965SOL    HW268501   9.071  11.839   8.325 -0.0630 -0.0102 -0.2531
53966SOL     OW68502   3.644  11.902   3.404 -0.3952  0.0857  0.3586
53966SOL    HW168503   3.574  11.948   3.357 -0.5430  0.4170  0.8853
53966SOL    HW268504   3.599  11.831   3.450 -0.1197 -0.8054 -0.7169
53967SOL     OW68505  10.994   7.036   2.743  0.2257 -0.3193  0.0683
53967SOL    HW168506  11.088   7.024   2.731 -0.2022 -3.0065 -1.2700
53967SOL    HW268507  10.987   7.114   2.798  3.2778 -0.9359  1.5505
53968SOL     OW68508   2.837   8.609  10.085 -0.1370 -1.0572  0.1923
53968SOL    HW168509   2.825   8.574   9.997 -0.8445 -0.4380  0.0351
53968SOL    HW268510   2.851   8.532  10.140  0.5511 -1.4323 -0.4929
53969SOL     OW68511   5.219   0.617   2.925  0.8971 -0.6736  0.3615
53969SOL    HW168512   5.266   0.699   2.911  0.8130 -0.7411 -0.3432
53969SOL    HW268513   5.127   0.640   2.920  0.8362 -0.5793  1.5396
53970SOL     OW68514   0.708   5.022   7.829 -0.0636  0.1268  0.4784
53970SOL    HW168515   0.789   5.019   7.880  0.7725  0.1279 -0.7787
53970SOL    HW268516   0.658   5.093   7.867  0.2069 -0.3186  1.7227
53971SOL     OW68517   9.067  10.188   3.715 -0.0122 -0.5912  0.3303
53971SOL    HW168518   9.106  10.273   3.694 -0.6914 -0.4175 -0.2422
53971SOL    HW268519   8.999  10.208   3.780 -1.4889 -0.4063 -1.2016
53972SOL     OW68520   5.566   1.654  10.447  0.2643 -0.2246  0.0790
53972SOL    HW168521   5.513   1.719  10.402 -0.0143  1.7061  2.9064
53972SOL    HW268522   5.654   1.691  10.447  0.1552  0.1099  1.4923
53973SOL     OW68523   4.350   6.231   4.152 -0.4271 -0.0931  0.0725
53973SOL    HW168524   4.434   6.270   4.178 -0.4198  0.6426 -1.0108
53973SOL    HW268525   4.293   6.244   4.228  0.1699  0.2018  0.4787
53974SOL     OW68526   1.701   7.625   1.996  0.0387 -0.3064 -0.1352
53974SOL    HW168527   1.729   7.659   1.911 -0.4953 -0.1768 -0.2590
53974SOL    HW268528   1.782   7.591   2.035  0.6858  1.5021  0.1910
53975SOL     OW68529   6.701   9.721   0.627  0.0267 -0.0119  0.3194
53975SOL    HW168530   6.728   9.709   0.718 -0.4571 -2.6196  0.1877
53975SOL    HW268531   6.609   9.744   0.631  0.5350  2.2018  0.5151
53976SOL     OW68532   4.086   0.871  10.244 -0.3246 -0.2150  0.6630
53976SOL    HW168533   4.099   0.788  10.199 -1.4696 -0.1391  0.1399
53976SOL    HW268534   4.130   0.936  10.189 -1.4249 -0.1724 -0.2191
53977SOL     OW68535   5.374   0.889   3.656  0.0445 -0.9312 -0.2924
53977SOL    HW168536   5.382   0.955   3.725 -2.8857 -1.3226  0.5278
53977SOL    HW268537   5.460   0.846   3.654  1.1853  1.1223  0.9496
53978SOL     OW68538   5.884   8.283   4.840 -0.4575 -0.0699  0.3007
53978SOL    HW168539   5.809   8.287   4.899 -1.1537  1.6828 -0.6596
53978SOL    HW268540   5.868   8.350   4.774  1.9418  0.3633  0.0470
53979SOL     OW68541  10.177   3.044  10.467  0.6265  0.9403 -0.2611
53979SOL    HW168542  10.205   3.054  10.558  4.5111  1.7529 -1.3519
53979SOL    HW268543  10.150   2.952  10.460  1.4997  0.5120  1.4235
53980SOL     OW68544   1.748   6.754  12.230  0.0517 -0.2400 -0.0592
53980SOL    HW168545   1.732   6.681  12.170 -1.2695 -0.0843  0.0610
53980SOL    HW268546   1.665   6.764  12.278  0.0567  1.5724 -0.3383
53981SOL     OW68547   8.140   5.068   9.472  0.5686 -0.2673 -0.3728
53981SOL    HW168548   8.139   5.090   9.565 -3.3528 -1.3366  0.0444
53981SOL    HW268549   8.189   4.986   9.467  0.3367 -0.4988  0.8557
53982SOL     OW68550  10.275   8.486   8.416  0.0984  0.4748  0.1525
53982SOL    HW168551  10.335   8.455   8.483 -1.0519  0.2565  1.1137
53982SOL    HW268552  10.278   8.581   8.421 -0.6438  0.4605  1.1501
53983SOL     OW68553   4.693  10.045  12.075 -0.1800  0.0493 -0.4253
53983SOL    HW168554   4.772  10.031  12.127 -0.7839  1.5733  0.9867
53983SOL    HW268555   4.725  10.049  11.985  1.1068 -1.0426 -0.0627
53984SOL     OW68556   1.749   2.002   3.802 -0.2797  0.1288  0.1853
53984SOL    HW168557   1.759   1.931   3.738  1.7348 -1.8656  2.4956
53984SOL    HW268558   1.830   2.000   3.852 -2.1917  0.7842  3.5799
53985SOL     OW68559   4.525  12.516   7.205  0.9963 -0.1501 -0.3599
53985SOL    HW168560   4.605  12.564   7.227  0.9998 -0.1561 -0.3607
53985SOL    HW268561   4.542  12.480   7.118  0.3212  1.3287 -1.1314
53986SOL     OW68562   6.419   8.086  10.145  0.3728  0.4648 -0.1101
53986SOL    HW168563   6.364   8.053  10.074  1.1213 -0.9679 -0.0598
53986SOL    HW268564   6.480   8.147  10.102 -1.3978  2.3118 -0.1161
53987SOL     OW68565   8.072   6.872   9.716  0.3866 -0.5604 -0.6966
53987SOL    HW168566   8.018   6.909   9.786 -0.1797 -0.5226 -1.1483
53987SOL    HW268567   8.021   6.798   9.683  0.7101 -0.6556 -0.9858
53988SOL     OW68568   7.772   8.492  11.257 -0.4818  0.3244  0.1377
53988SOL    HW168569   7.764   8.585  11.236  0.0816  0.4776  0.5688
53988SOL    HW268570   7.704   8.450  11.206  0.4641  0.7414 -1.5409
53989SOL     OW68571   4.643   5.495   3.586  0.4054  0.2563  0.2455
53989SOL    HW168572   4.730   5.489   3.546  0.8877 -1.2816  1.4148
53989SOL    HW268573   4.657   5.547   3.665 -0.1105  1.4380 -0.4097
53990SOL     OW68574   4.162  10.768   1.833  0.1676  0.4255 -0.0779
53990SOL    HW168575   4.218  10.845   1.833  0.1455  0.5504  2.7520
53990SOL    HW268576   4.221  10.694   1.849  0.1242 -0.1513 -2.2662
53991SOL     OW68577   1.427   4.911  11.617  0.1209  0.1690  0.1213
53991SOL    HW168578   1.354   4.973  11.614 -1.3466 -1.3477  1.7791
53991SOL    HW268579   1.471   4.929  11.700  0.4267 -0.1989  0.0435
53992SOL     OW68580   9.873   7.979   0.564  0.1201  0.9475 -0.0074
53992SOL    HW168581   9.878   7.915   0.492  0.4866 -0.4771  1.2216
53992SOL    HW268582   9.796   7.951   0.614 -0.1661  1.9574  0.1228
53993SOL     OW68583   7.108   7.734   0.997 -0.4112  0.6467 -0.6224
53993SOL    HW168584   7.101   7.671   0.926 -0.1852 -2.0403  1.5752
53993SOL    HW268585   7.026   7.724   1.046 -0.1427  1.7045  0.0911
53994SOL     OW68586   7.189   7.975   4.723  0.1684  0.0086  0.9457
53994SOL    HW168587   7.228   8.062   4.729 -1.3579  0.7132  1.1497
53994SOL    HW268588   7.098   7.988   4.750 -0.7104 -1.2096 -1.2192
53995SOL     OW68589  10.282   8.853   9.424 -0.1261  0.4394 -0.0451
53995SOL    HW168590  10.285   8.892   9.511 -2.6839 -0.7360  0.6891
53995SOL    HW268591  10.344   8.904   9.372  0.3397  2.1684  2.0693
53996SOL     OW68592  11.464   3.651   0.840 -0.0783  0.3141 -0.4400
53996SOL    HW168593  11.535   3.634   0.903  1.5266 -0.1388 -2.2817
53996SOL    HW268594  11.477   3.586   0.771 -2.7940 -0.2712 -0.5033
53997SOL     OW68595  10.193   8.618  10.560  0.2326 -1.0492 -0.6272
53997SOL    HW168596  10.246   8.540  10.541 -1.4682 -2.4530  0.0345
53997SOL    HW268597  10.255   8.690  10.559  1.9811 -2.4771 -0.8237
53998SOL     OW68598   3.563   8.925   2.339 -0.4112  0.0245  0.2758
53998SOL    HW168599   3.550   8.831   2.326  0.7739 -0.0609 -0.3643
53998SOL    HW268600   3.564   8.962   2.251  1.5410  0.2837  0.3680
53999SOL     OW68601  11.398   2.193   9.602 -0.3899 -0.4701 -0.0879
53999SOL    HW168602  11.352   2.119   9.641  0.3173 -0.7556  0.2209
53999SOL    HW268603  11.405   2.258   9.672  0.4419 -0.7848  0.1377
54000SOL     OW68604   7.216   5.665  10.974 -0.3117 -0.0870 -0.1494
54000SOL    HW168605   7.167   5.715  11.039  0.1538  2.1395 -1.3889
54000SOL    HW268606   7.194   5.706  10.890  2.3427 -0.0501 -0.9370
54001SOL     OW68607   0.540   6.373   2.398 -0.1327 -0.2666  0.3046
54001SOL    HW168608   0.497   6.298   2.440 -0.9771 -0.0848 -0.2078
54001SOL    HW268609   0.628   6.374   2.435 -0.4671 -0.8442  1.1473
54002SOL     OW68610  12.279  10.528   5.370 -0.1106 -0.1057  0.3562
54002SOL    HW168611  12.301  10.488   5.285 -0.0756  0.6045  0.0269
54002SOL    HW268612  12.348  10.498   5.429  1.1157  1.1582 -0.3906
54003SOL     OW68613   0.165   3.755   3.795  0.4477  0.0645 -0.1713
54003SOL    HW168614   0.159   3.816   3.721  1.7441  2.1540  1.3278
54003SOL    HW268615   0.089   3.775   3.849  0.5360 -0.0871  0.0098
54004SOL     OW68616  12.217   3.814  11.842  0.3066 -0.2133  0.0964
54004SOL    HW168617  12.275   3.837  11.769 -0.1449 -0.0727 -0.2287
54004SOL    HW268618  12.215   3.892  11.897  2.7742 -1.2002  1.7433
54005SOL     OW68619   3.730   4.182  12.641 -0.3083 -0.5080  0.1569
54005SOL    HW168620   3.662   4.125  12.607  1.3221 -1.7270 -1.1930
54005SOL    HW268621   3.707   4.195  12.733 -1.6695 -1.8894  0.0421
54006SOL     OW68622   4.983  10.866   7.591 -1.1007  1.0262 -0.2588
54006SOL    HW168623   5.024  10.783   7.615 -0.3307  1.0588 -1.3542
54006SOL    HW268624   4.939  10.848   7.508 -1.4590  1.5573 -0.1915
54007SOL     OW68625   1.029  11.128   4.071  0.0584  0.1534 -0.7202
54007SOL    HW168626   1.103  11.076   4.103  2.4507  2.0127 -2.7391
54007SOL    HW268627   0.990  11.166   4.150  2.8318  0.9881  0.3878
54008SOL     OW68628   9.754   1.031  12.249 -0.4694 -1.0610  0.2746
54008SOL    HW168629   9.666   1.002  12.274 -0.9061 -0.1721 -0.1800
54008SOL    HW268630   9.812   0.980  12.304 -1.3347 -0.4061  1.8817
54009SOL     OW68631  10.873   2.849   2.308  0.3358  0.4578  0.5943
54009SOL    HW168632  10.832   2.779   2.256  1.7384  0.8313 -1.1225
54009SOL    HW268633  10.800   2.898   2.344 -0.7634  0.5864 -1.6423
54010SOL     OW68634   8.708   8.403   3.724 -0.0282 -0.4087  0.6529
54010SOL    HW168635   8.668   8.465   3.663  3.3866 -0.0458 -1.4900
54010SOL    HW268636   8.693   8.440   3.811 -0.3323  2.0629 -0.3950
54011SOL     OW68637   0.897   6.713   0.726 -0.0598 -0.4104  0.1568
54011SOL    HW168638   0.915   6.621   0.743  1.9138 -0.1309 -0.1502
54011SOL    HW268639   0.850   6.714   0.643  1.3084 -1.1007 -0.6761
54012SOL     OW68640  12.661  12.188   8.241 -0.5795 -0.0278 -0.0266
54012SOL    HW168641  12.657  12.222   8.330 -0.0255 -1.3254  0.5061
54012SOL    HW268642  12.682  12.096   8.251  0.0549 -0.0744 -1.5247
54013SOL     OW68643   7.249   2.649   2.432  0.2051  0.2760  0.0263
54013SOL    HW168644   7.240   2.554   2.443  1.2162  0.1718  0.0310
54013SOL    HW268645   7.186   2.686   2.494 -1.1877 -0.3809 -0.9359
54014SOL     OW68646   8.899  10.671   5.814 -0.3184  0.0014  0.2334
54014SOL    HW168647   8.920  10.637   5.901 -1.3218  2.8699  1.7477
54014SOL    HW268648   8.806  10.651   5.802 -0.9364  1.9990  1.1675
54015SOL     OW68649   3.486   8.853   8.869 -0.0085 -0.0026 -0.1722
54015SOL    HW168650   3.438   8.876   8.789 -0.8352 -1.4833 -0.1293
54015SOL    HW268651   3.487   8.934   8.920  0.7032  1.0332 -1.7373
54016SOL     OW68652  11.205   7.806  11.834  0.1532 -0.6762 -0.1808
54016SOL    HW168653  11.291   7.848  11.843  0.4317 -1.4686  1.1864
54016SOL    HW268654  11.198   7.785  11.741  1.9350 -1.5913 -0.1485
54017SOL     OW68655   5.919   9.366   4.375  0.2038  0.5071 -0.2052
54017SOL    HW168656   6.005   9.328   4.355  0.4121  0.5104  0.6088
54017SOL    HW268657   5.912   9.441   4.317  0.9506  0.7617  0.0166
54018SOL     OW68658   9.643   1.722  10.883 -0.1770 -0.7197 -0.1525
54018SOL    HW168659   9.725   1.678  10.907 -1.5496 -2.5954  1.3902
54018SOL    HW268660   9.580   1.652  10.872 -1.5485  0.6616 -1.6810
54019SOL     OW68661  10.845  12.081   7.246 -0.3080  0.0266 -1.0784
54019SOL    HW168662  10.888  12.166   7.251  0.1509 -0.2657  0.7111
54019SOL    HW268663  10.917  12.018   7.240 -0.1874 -0.5538  3.0828
54020SOL     OW68664   2.319   9.575   8.796  0.4155 -0.4420 -0.4445
54020SOL    HW168665   2.230   9.546   8.816 -0.0864  0.8173 -0.7405
54020SOL    HW268666   2.333   9.550   8.705 -0.0188  0.2253 -0.7027
54021SOL     OW68667  11.245   9.322   5.766 -0.0228 -0.9684 -0.1407
54021SOL    HW168668  11.169   9.331   5.707 -0.0422 -1.0075 -0.1221
54021SOL    HW268669  11.254   9.408   5.806  0.6425 -0.6178 -0.9938
54022SOL     OW68670  11.130   5.782   7.814  0.2466  0.3407  0.1956
54022SOL    HW168671  11.222   5.806   7.802 -0.0037  1.3432  0.1823
54022SOL    HW268672  11.133   5.695   7.854  1.1853  0.0811 -0.3934
54023SOL     OW68673   0.086   6.387   4.912 -0.0222 -0.1243 -0.4345
54023SOL    HW168674   0.097   6.308   4.859  1.0793  0.0946 -0.5553
54023SOL    HW268675   0.122   6.363   4.997  0.2875  0.2375 -0.4621
54024SOL     OW68676   6.889   3.383  11.238  0.1312  0.1409 -0.5307
54024SOL    HW168677   6.956   3.435  11.193 -0.0864 -0.1160 -1.1582
54024SOL    HW268678   6.807   3.430  11.222 -0.0175 -0.2106 -0.8115
54025SOL     OW68679  11.563   0.502  12.555  0.1159 -0.1169 -0.0992
54025SOL    HW168680  11.644   0.497  12.605  0.1051 -0.4876 -0.1190
54025SOL    HW268681  11.547   0.596  12.546 -0.4605 -0.0252  1.5169
54026SOL     OW68682   8.633   8.549   7.809  0.3584  0.4357  0.2800
54026SOL    HW168683   8.658   8.475   7.755 -1.3878 -0.0654  0.1071
54026SOL    HW268684   8.646   8.625   7.753  0.1593  0.0726 -0.2651
54027SOL     OW68685   1.185   5.736   5.084  0.6286  0.1727  0.3205
54027SOL    HW168686   1.138   5.653   5.088  0.8124  0.0663  0.3059
54027SOL    HW268687   1.160   5.782   5.164 -1.7905  1.3766 -0.9915
54028SOL     OW68688  10.126   9.974   7.094  1.0100 -0.0299  0.2276
54028SOL    HW168689  10.075   9.910   7.144 -0.0539  1.7312  1.4844
54028SOL    HW268690  10.075   9.988   7.015  1.5928 -1.1759 -0.3912
54029SOL     OW68691   1.987   9.884   1.652 -0.0335  0.5141 -0.1014
54029SOL    HW168692   2.032   9.968   1.655  0.3728  0.2925 -0.0339
54029SOL    HW268693   1.983   9.855   1.743 -1.3792  1.0945  0.0561
54030SOL     OW68694   5.845   4.561  11.611 -0.5642 -0.1344 -0.1198
54030SOL    HW168695   5.779   4.546  11.543 -1.4670  1.3085  0.3930
54030SOL    HW268696   5.840   4.654  11.629 -0.3549 -0.4702  1.9204
54031SOL     OW68697   9.923   6.378   1.423  0.4122 -0.2366 -0.5073
54031SOL    HW168698  10.000   6.336   1.461 -0.5575 -1.0236  0.6530
54031SOL    HW268699   9.895   6.319   1.353  0.5968 -0.1668 -0.6417
54032SOL     OW68700   7.642   9.031   4.164  0.2926  0.0925 -0.1685
54032SOL    HW168701   7.633   8.956   4.106  0.4100 -0.0489 -0.0071
54032SOL    HW268702   7.611   9.105   4.113 -0.2850 -0.1370 -0.1627
54033SOL     OW68703   9.430   5.792   9.539 -0.7287  0.0241  0.1890
54033SOL    HW168704   9.431   5.829   9.451 -1.0828 -2.5590 -1.0080
54033SOL    HW268705   9.522   5.780   9.561 -0.6421  0.5615  0.1274
54034SOL     OW68706   0.622   2.734  10.447 -0.7617 -0.5473 -0.2997
54034SOL    HW168707   0.705   2.689  10.434 -1.1250 -1.3904  0.2796
54034SOL    HW268708   0.631   2.815  10.396  0.4608 -0.5604 -0.1305
54035SOL     OW68709   2.904   6.608   2.612 -0.0117  0.0843  0.1808
54035SOL    HW168710   2.851   6.559   2.549 -0.7707 -0.5036  1.2384
54035SOL    HW268711   2.974   6.548   2.637 -0.3986 -0.1304  0.7724
54036SOL     OW68712   1.550   5.665   4.990 -0.2246 -0.0217  0.1777
54036SOL    HW168713   1.533   5.571   4.995  2.9701 -0.7200  0.3081
54036SOL    HW268714   1.481   5.700   4.933 -0.0385 -2.8812 -2.0040
54037SOL     OW68715   6.716   9.592   7.334  0.3851 -0.2364  0.4305
54037SOL    HW168716   6.786   9.527   7.343  0.2686 -0.2929  0.9478
54037SOL    HW268717   6.719   9.617   7.241  0.2403 -1.1891  0.1552
54038SOL     OW68718   5.944   9.713  11.246  0.1124  0.3358 -0.0152
54038SOL    HW168719   5.851   9.725  11.265 -0.3196 -0.7346 -1.3338
54038SOL    HW268720   5.985   9.709  11.333 -1.2840 -0.7531  0.6417
54039SOL     OW68721   1.404   9.576   8.407  0.5594 -0.2499  0.6445
54039SOL    HW168722   1.450   9.614   8.332 -1.5584  1.5712  0.1870
54039SOL    HW268723   1.383   9.651   8.463 -1.1161 -1.1063  1.2328
54040SOL     OW68724  12.181   3.484  12.454  0.6983 -0.1015  0.3568
54040SOL    HW168725  12.172   3.507  12.362 -0.7051 -2.8872 -0.3175
54040SOL    HW268726  12.275   3.483  12.470  1.0809 -1.4303 -1.6205
54041SOL     OW68727   3.089   7.496   7.088 -0.4411 -0.0962  0.0860
54041SOL    HW168728   3.176   7.526   7.113 -0.1999 -1.7119  1.3478
54041SOL    HW268729   3.041   7.492   7.171 -1.6020  0.3877 -0.5443
54042SOL     OW68730  12.697   9.393   8.263 -0.3703 -0.0914 -0.0924
54042SOL    HW168731  12.791   9.385   8.282 -0.5524 -1.2955  0.4169
54042SOL    HW268732  12.684   9.337   8.186 -0.6065  0.3697 -0.3871
54043SOL     OW68733   4.861   2.193   0.527 -0.2287 -0.3170 -0.1361
54043SOL    HW168734   4.800   2.151   0.588 -0.7828  0.3892 -0.1915
54043SOL    HW268735   4.857   2.286   0.550  0.9985 -0.2774  0.0032
54044SOL     OW68736   1.709   8.873   6.338  0.6810  0.0479 -0.3099
54044SOL    HW168737   1.657   8.951   6.321  0.3032  0.2626  1.6186
54044SOL    HW268738   1.645   8.802   6.342  0.8546 -0.1267 -0.5972
54045SOL     OW68739   2.512  10.262   3.592  0.4192  0.0842  0.4064
54045SOL    HW168740   2.550  10.348   3.606 -1.6838  0.8754  1.8502
54045SOL    HW268741   2.568  10.202   3.641  1.7994  0.6161 -0.4693
54046SOL     OW68742   0.769   4.356  12.553  0.0345  0.2359 -0.1222
54046SOL    HW168743   0.733   4.445  12.553  0.3032  0.3427 -0.3672
54046SOL    HW268744   0.832   4.355  12.482 -0.8335 -0.5048 -0.9118
54047SOL     OW68745  11.780   8.198   4.617  0.1190  0.2087  0.2008
54047SOL    HW168746  11.817   8.175   4.702  0.5061 -0.8224 -0.2213
54047SOL    HW268747  11.817   8.284   4.597  0.7649  0.0535  0.6637
54048SOL     OW68748   2.325   2.669   3.798  0.2954  0.0181 -0.0642
54048SOL    HW168749   2.231   2.665   3.813  0.6071  0.7447  2.6090
54048SOL    HW268750   2.339   2.618   3.718 -2.3290 -0.1504 -0.5013
54049SOL     OW68751  11.543   1.519   9.475 -0.4318 -0.5966 -0.6028
54049SOL    HW168752  11.512   1.452   9.535 -1.1919  1.3631  1.3266
54049SOL    HW268753  11.464   1.569   9.452  0.4375  1.1727  0.0825
54050SOL     OW68754   7.071   4.835   4.859  0.6765 -0.5456 -0.0397
54050SOL    HW168755   7.013   4.901   4.895  0.2889 -0.6043 -0.5354
54050SOL    HW268756   7.136   4.819   4.927  0.8643  0.4475  0.0242
54051SOL     OW68757   3.985   2.434  12.272 -0.2095  0.3571 -0.3694
54051SOL    HW168758   3.933   2.488  12.213 -0.5440  0.8556  0.3780
54051SOL    HW268759   3.963   2.344  12.248 -0.7940  0.5589 -0.6012
54052SOL     OW68760   2.681   9.731  11.140  0.1379  0.3241  0.3723
54052SOL    HW168761   2.772   9.700  11.132  0.0461 -1.0299  3.2271
54052SOL    HW268762   2.628   9.658  11.108  0.0387 -0.2017  1.6742
54053SOL     OW68763   0.772   4.727   6.022 -0.0884 -0.5022 -0.2380
54053SOL    HW168764   0.812   4.793   5.965 -0.9864  1.0969  0.9075
54053SOL    HW268765   0.701   4.690   5.969  0.6388 -0.8216 -1.0138
54054SOL     OW68766   9.230   5.197   1.302  0.1772  0.4996 -0.1259
54054SOL    HW168767   9.175   5.156   1.235  0.7814  0.4896 -0.6254
54054SOL    HW268768   9.168   5.228   1.368 -0.3970  0.1399 -0.4864
54055SOL     OW68769   4.037   7.072   8.336  0.5747 -0.4410 -0.4269
54055SOL    HW168770   4.111   7.015   8.356  0.8043 -0.0636 -0.1744
54055SOL    HW268771   4.003   7.098   8.422  1.9958  1.7494 -0.4458
54056SOL     OW68772   1.825   3.913   1.497  0.4282  0.2813 -0.3582
54056SOL    HW168773   1.912   3.879   1.515  0.8013  1.1962 -0.3714
54056SOL    HW268774   1.807   3.971   1.571  0.2739  0.9165 -0.8866
54057SOL     OW68775   9.432   0.410   7.618  0.4225 -0.2813 -0.0752
54057SOL    HW168776   9.512   0.439   7.575 -1.4513  1.1101 -2.9612
54057SOL    HW268777   9.426   0.316   7.600  1.1394 -0.2910 -0.2672
54058SOL     OW68778   6.387   2.535   2.727  0.0400  0.1985 -0.6601
54058SOL    HW168779   6.369   2.629   2.724  0.7452  0.5312  2.3885
54058SOL    HW268780   6.454   2.525   2.794 -1.7990 -2.6884  0.9780
54059SOL     OW68781   1.607   5.038  10.214 -0.1170 -0.1890  0.2099
54059SOL    HW168782   1.641   4.949  10.223 -2.0337 -0.9656  0.4074
54059SOL    HW268783   1.519   5.026  10.178 -0.8652  1.5500  1.3213
54060SOL     OW68784   5.789  11.392  11.121 -0.3351 -0.0810  0.7740
54060SOL    HW168785   5.764  11.448  11.048  0.4690  1.4304  1.6209
54060SOL    HW268786   5.736  11.313  11.109 -1.5426  0.8574 -0.4092
54061SOL     OW68787   4.457   6.077   3.258 -0.3603  0.5428 -0.4222
54061SOL    HW168788   4.369   6.114   3.270 -0.1995  1.4914 -1.8844
54061SOL    HW268789   4.447   6.016   3.185  0.2777  0.9882 -0.8894
54062SOL     OW68790   6.785  12.674  11.894 -0.3832 -0.1036 -0.1399
54062SOL    HW168791   6.856  12.618  11.862 -0.6290 -0.3700 -0.2215
54062SOL    HW268792   6.788  12.664  11.989  0.8023  1.2415 -0.0143
54063SOL     OW68793   2.672   4.925  10.476  0.5933 -0.2436 -0.1022
54063SOL    HW168794   2.706   4.967  10.397  1.4943  1.2440  1.0406
54063SOL    HW268795   2.577   4.925  10.463  0.5359  2.2456 -0.1397
54064SOL     OW68796   3.593   4.254   9.073  0.4728  0.1079  0.1372
54064SOL    HW168797   3.541   4.175   9.089 -0.6106  0.7263 -0.2439
54064SOL    HW268798   3.594   4.264   8.978  1.6695 -0.1175  0.1004
54065SOL     OW68799   3.545   7.939   5.571 -0.1073  0.1236 -0.1083
54065SOL    HW168800   3.561   8.034   5.569 -0.0467  0.1210  0.2179
54065SOL    HW268801   3.539   7.914   5.479  0.7787  0.2919 -0.2168
54066SOL     OW68802  11.346   8.237  11.701  0.2450  0.3838  0.0370
54066SOL    HW168803  11.388   8.301  11.758 -0.2306  2.3885 -1.7335
54066SOL    HW268804  11.384   8.254  11.615 -1.0953 -0.6347 -0.7822
54067SOL     OW68805  10.574   8.174  10.513  0.1096 -0.4281  0.0400
54067SOL    HW168806  10.659   8.216  10.505  0.4850 -1.2323 -0.2812
54067SOL    HW268807  10.559   8.132  10.428 -1.1701  0.7302 -0.3391
54068SOL     OW68808   4.469  12.524  11.742 -0.3718 -0.0344 -0.4002
54068SOL    HW168809   4.540  12.587  11.726 -0.1116 -0.2827 -0.2302
54068SOL    HW268810   4.498  12.474  11.819 -1.3361  0.7537  0.5099
54069SOL     OW68811   8.651  11.931   4.190 -0.0599 -0.1301 -0.1861
54069SOL    HW168812   8.731  11.968   4.151 -0.6173  1.9976  0.5424
54069SOL    HW268813   8.622  11.998   4.252 -2.2185 -1.0162 -0.1673
54070SOL     OW68814   9.074   0.706   5.269  0.5782 -0.4715  0.2344
54070SOL    HW168815   9.080   0.755   5.352 -0.0007  0.3182 -0.1755
54070SOL    HW268816   8.996   0.651   5.280 -0.3327  0.6732 -0.3025
54071SOL     OW68817   4.668   8.354   6.268 -0.3125  0.1696 -0.2671
54071SOL    HW168818   4.576   8.360   6.240 -0.7938  0.6893  1.2958
54071SOL    HW268819   4.675   8.266   6.305 -0.5751  0.6061  0.8525
54072SOL     OW68820   2.848  10.382  12.242 -0.0438 -0.2518  0.5630
54072SOL    HW168821   2.772  10.347  12.195  0.2314  1.4475 -1.2892
54072SOL    HW268822   2.921  10.326  12.217 -0.0379  0.2218 -0.5333
54073SOL     OW68823   7.742   4.444   9.050  0.9769  0.2214 -0.3620
54073SOL    HW168824   7.788   4.362   9.036  1.8167  0.4447  0.9299
54073SOL    HW268825   7.681   4.426   9.121  0.9055  0.6191 -0.3173
54074SOL     OW68826   3.244  10.073   8.941 -0.0605 -0.1540  0.3883
54074SOL    HW168827   3.207  10.055   9.028 -0.0270 -0.9302  0.2537
54074SOL    HW268828   3.187  10.141   8.904 -1.4925 -1.4346  0.1159
54075SOL     OW68829  11.473   3.649  12.608  0.6213  0.1629  0.3076
54075SOL    HW168830  11.378   3.666  12.605  0.2925 -1.5768 -1.9859
54075SOL    HW268831  11.483   3.581  12.674  0.2860  0.3973  0.6061
54076SOL     OW68832   8.791   2.873   3.797 -0.1885 -0.2835  0.2231
54076SOL    HW168833   8.744   2.841   3.873 -0.2727  0.0857  0.3302
54076SOL    HW268834   8.839   2.797   3.764  0.4538 -0.2673  1.0928
54077SOL     OW68835   4.499   2.750   5.794 -0.1587  0.0286 -0.4157
54077SOL    HW168836   4.466   2.765   5.705 -1.8427 -1.4123 -0.1023
54077SOL    HW268837   4.561   2.677   5.785  1.1344  1.1256 -0.6489
54078SOL     OW68838   0.009   3.410   4.820  0.2364 -0.2713  0.1611
54078SOL    HW168839   0.004   3.413   4.725 -2.4363 -0.9040  0.1872
54078SOL    HW268840   0.014   3.502   4.847  0.5113 -0.0676 -0.5761
54079SOL     OW68841   9.484   4.080   3.391 -0.6809  0.1290 -0.1492
54079SOL    HW168842   9.486   4.140   3.466  0.0162 -0.5942  0.4354
54079SOL    HW268843   9.402   4.031   3.402  0.4548 -1.5804  1.4950
54080SOL     OW68844   7.577   2.528   2.126  0.9088 -0.0863 -0.2679
54080SOL    HW168845   7.649   2.579   2.162  0.2115  0.0306  1.0352
54080SOL    HW268846   7.542   2.582   2.055  0.3064  1.2040  0.9607
54081SOL     OW68847  10.575  11.995   8.745 -0.1609  0.3935 -0.3308
54081SOL    HW168848  10.600  12.007   8.837 -0.8901 -1.5862  0.1684
54081SOL    HW268849  10.651  12.024   8.695  1.2392 -0.8350  0.9928
54082SOL     OW68850   2.925   1.829   9.916 -0.2638 -0.2297 -0.0465
54082SOL    HW168851   2.912   1.765   9.846  2.1541 -0.3901 -0.4268
54082SOL    HW268852   3.020   1.838   9.923 -0.4721  0.8077  2.3134
54083SOL     OW68853  12.490  11.043  12.354 -0.1861 -0.4731  0.0666
54083SOL    HW168854  12.505  11.044  12.449 -2.8200  1.5695  0.5842
54083SOL    HW268855  12.566  11.089  12.317 -0.6982  1.7800  1.5933
54084SOL     OW68856   6.359  11.168   9.157 -0.1122  0.0913  0.2468
54084SOL    HW168857   6.393  11.247   9.198 -0.6119  0.4369  0.0050
54084SOL    HW268858   6.406  11.096   9.200  0.0150  0.4908  0.7837
54085SOL     OW68859   8.743   5.310   8.488 -0.0995 -0.2469  0.4045
54085SOL    HW168860   8.745   5.369   8.563 -0.6025  1.0455 -0.5635
54085SOL    HW268861   8.650   5.304   8.465  0.0151 -0.9183  0.0929
54086SOL     OW68862   0.067   7.665   9.080 -0.7978 -0.0182  0.8721
54086SOL    HW168863   0.138   7.715   9.118  0.0451 -0.9243  0.5278
54086SOL    HW268864   0.110   7.591   9.037 -1.7769  0.3706 -0.8888
54087SOL     OW68865   1.873   8.408   4.618  0.2536 -0.2055  0.0021
54087SOL    HW168866   1.778   8.397   4.619  0.3744 -2.2342 -2.2766
54087SOL    HW268867   1.886   8.503   4.614 -1.7004  0.0910 -0.5104
54088SOL     OW68868   1.801  11.925   1.878 -0.3439  0.0738 -0.2383
54088SOL    HW168869   1.842  11.971   1.805 -1.5832 -0.7387 -1.4861
54088SOL    HW268870   1.778  11.995   1.939  0.3160  0.8156 -0.8044
54089SOL     OW68871   0.593   5.624  11.691  0.2798  0.0145 -0.2910
54089SOL    HW168872   0.593   5.531  11.671  1.5362 -0.8147  2.8846
54089SOL    HW268873   0.524   5.635  11.757  0.0341  1.3800 -0.7332
54090SOL     OW68874   1.914   4.346   0.863 -0.2733  0.1550 -0.1966
54090SOL    HW168875   1.967   4.292   0.923  0.2813 -0.1622 -0.9464
54090SOL    HW268876   1.836   4.293   0.847  0.4265 -0.6190 -1.2035
54091SOL     OW68877   5.269   4.372   3.388 -0.4980  0.0991  0.1305
54091SOL    HW168878   5.184   4.408   3.363 -0.9018 -1.2291 -0.4821
54091SOL    HW268879   5.332   4.430   3.345 -1.0885  0.8753  0.2810
54092SOL     OW68880   3.365  11.594   8.347 -0.3116 -0.6806  0.0625
54092SOL    HW168881   3.315  11.632   8.419  0.9899  1.2655  0.0306
54092SOL    HW268882   3.369  11.501   8.366  0.6762 -0.1422  3.0031
54093SOL     OW68883  12.285  10.621   9.047 -0.1149  0.0249  0.1702
54093SOL    HW168884  12.306  10.527   9.049 -1.4020 -0.3704 -1.9856
54093SOL    HW268885  12.324  10.656   9.128 -0.0041 -2.4329  1.2735
54094SOL     OW68886  12.556  12.141   2.868  0.0802  0.1172 -0.1325
54094SOL    HW168887  12.551  12.181   2.781 -2.7202  0.9217  0.3120
54094SOL    HW268888  12.563  12.215   2.928  1.7996 -0.4263  0.3936
54095SOL     OW68889   2.375   3.621   1.394 -0.0649 -0.4717  0.1456
54095SOL    HW168890   2.438   3.670   1.340  0.5923  0.4941  1.7084
54095SOL    HW268891   2.373   3.533   1.355  0.4667  0.1410 -1.3466
54096SOL     OW68892   7.098   0.717   3.273 -0.3228 -0.6777 -0.2023
54096SOL    HW168893   7.055   0.634   3.292 -0.9239  0.1868  2.6500
54096SOL    HW268894   7.028   0.776   3.246 -0.3396 -0.3799  0.4640
54097SOL     OW68895   6.147  10.013   7.053  0.4880 -0.3625 -0.4161
54097SOL    HW168896   6.071   9.991   6.999  0.2782  0.7125 -0.5835
54097SOL    HW268897   6.151   9.943   7.119 -1.3445  0.1669  0.3172
54098SOL     OW68898   6.913   9.402   2.237  0.1251 -0.2856  0.0447
54098SOL    HW168899   6.818   9.407   2.247 -0.3409 -0.3540 -3.2878
54098SOL    HW268900   6.945   9.483   2.278 -1.5478  0.6609 -0.4003
54099SOL     OW68901   1.332   3.185   7.335  0.0484  0.0402  0.3606
54099SOL    HW168902   1.244   3.152   7.316  1.1658 -3.3603  0.3522
54099SOL    HW268903   1.323   3.234   7.416 -2.0470  0.9357 -0.3658
54100SOL     OW68904   6.845  12.336  12.065  0.5459  0.1282  0.1939
54100SOL    HW168905   6.853  12.288  12.148 -0.9398  0.7639  0.7337
54100SOL    HW268906   6.838  12.268  11.999  0.6954 -0.3953  0.7057
54101SOL     OW68907   9.469   0.681   9.288  0.1861  0.3084  0.1481
54101SOL    HW168908   9.544   0.737   9.309  0.4142  0.7459 -1.6410
54101SOL    HW268909   9.481   0.603   9.342  1.0186  1.0797  1.1140
54102SOL     OW68910   7.973   3.421   3.490  0.3462  0.6920 -0.3939
54102SOL    HW168911   8.046   3.419   3.428  0.5389  1.0195 -0.1800
54102SOL    HW268912   7.966   3.513   3.516  1.8811  0.1924  1.9813
54103SOL     OW68913  10.023   8.633  11.656  0.6408 -0.5559  0.0054
54103SOL    HW168914   9.972   8.616  11.577  0.4104 -1.1612  0.2792
54103SOL    HW268915  10.005   8.724  11.678 -0.3663 -0.7776  0.1273
54104SOL     OW68916   2.317   7.914   0.641 -0.1330  0.2681  0.1060
54104SOL    HW168917   2.314   7.870   0.556  0.2245  0.1435  0.1595
54104SOL    HW268918   2.397   7.882   0.682  1.4456  2.7740 -0.8313
54105SOL     OW68919   2.805   3.116   7.968 -0.1474 -0.5876  0.5652
54105SOL    HW168920   2.751   3.037   7.957  1.1832 -1.4426 -0.0487
54105SOL    HW268921   2.864   3.095   8.040 -1.6024  0.9463  2.3293
54106SOL     OW68922   2.466   5.975   0.289 -0.0745  0.0467 -0.2916
54106SOL    HW168923   2.410   5.904   0.258  0.7106 -0.3108 -0.9205
54106SOL    HW268924   2.409   6.029   0.344 -1.5597  0.7399 -2.4053
54107SOL     OW68925   3.821   9.131  10.757  0.0624 -0.3289 -0.0438
54107SOL    HW168926   3.866   9.049  10.737  0.8370 -0.0339  0.4375
54107SOL    HW268927   3.814   9.176  10.673 -1.0886 -1.2175 -0.4605
54108SOL     OW68928   7.164   8.180   9.192 -0.9462 -0.3026  0.0241
54108SOL    HW168929   7.130   8.206   9.106  1.8483 -0.1482 -1.1644
54108SOL    HW268930   7.173   8.085   9.186 -0.8129 -0.2988  0.1658
54109SOL     OW68931   4.162  10.162   5.433 -0.0711  0.8806 -0.1715
54109SOL    HW168932   4.231  10.211   5.388  2.1057  0.6201  2.5890
54109SOL    HW268933   4.103  10.229   5.467  1.2877  1.4890  1.1067
54110SOL     OW68934   4.268   5.318   4.123 -0.4556  0.5473 -0.2012
54110SOL    HW168935   4.202   5.252   4.146  0.0410  0.1018 -0.0408
54110SOL    HW268936   4.305   5.346   4.207  0.6046 -0.2958 -0.3681
54111SOL     OW68937   6.309  12.234   1.002  0.1610 -0.1343  0.3209
54111SOL    HW168938   6.355  12.168   1.054  0.2247 -0.5290 -0.2232
54111SOL    HW268939   6.245  12.272   1.062 -1.2733 -2.0959  0.1242
54112SOL     OW68940   4.430  12.669   2.184 -0.5828  0.0430 -0.1197
54112SOL    HW168941   4.443  12.745   2.127  0.0096  1.5949  1.9467
54112SOL    HW268942   4.359  12.695   2.243 -0.1271 -0.8556  0.8627
54113SOL     OW68943   0.454   7.333   7.235  0.1908 -0.0549 -0.7234
54113SOL    HW168944   0.405   7.378   7.304  0.9384  0.4287 -0.5044
54113SOL    HW268945   0.528   7.390   7.217  2.9307 -2.5006  1.6799
54114SOL     OW68946   7.658   9.414   0.127  0.0650  0.6049  0.1289
54114SOL    HW168947   7.660   9.404   0.222 -1.0958  1.5889  0.2894
54114SOL    HW268948   7.657   9.509   0.113  2.0139  0.5035 -0.9414
54115SOL     OW68949   6.131  10.864   1.395  0.6770  0.0257 -0.0163
54115SOL    HW168950   6.139  10.959   1.383  1.7276 -0.2513 -1.7415
54115SOL    HW268951   6.074  10.835   1.324 -0.8246 -0.5139  1.3172
54116SOL     OW68952   1.227   2.539   3.699 -0.4001 -0.4463  0.0262
54116SOL    HW168953   1.302   2.553   3.756 -0.5125  0.6418 -0.0700
54116SOL    HW268954   1.164   2.607   3.724 -1.2540 -1.1711 -0.0764
54117SOL     OW68955   0.489  10.786   8.575  0.2896 -0.7795  0.3579
54117SOL    HW168956   0.583  10.793   8.556  0.4473 -1.2484  0.9395
54117SOL    HW268957   0.485  10.740   8.659 -0.4832 -1.8079 -0.2100
54118SOL     OW68958   9.370   3.004   3.638  0.5074 -0.2459  0.1795
54118SOL    HW168959   9.434   2.958   3.584  0.0261  0.0748 -0.6698
54118SOL    HW268960   9.294   3.017   3.582  0.2940  0.8066  0.6691
54119SOL     OW68961   5.853   8.155   8.445  0.0246 -0.4236  0.7603
54119SOL    HW168962   5.891   8.215   8.381 -3.9496  0.9962 -0.5606
54119SOL    HW268963   5.857   8.201   8.528 -0.7639  0.6730  0.2125
54120SOL     OW68964   1.697   5.370  10.311  0.1716 -0.5335  0.0299
54120SOL    HW168965   1.738   5.455  10.295  0.9516 -0.6216  1.3521
54120SOL    HW268966   1.765   5.306  10.291 -0.7614 -0.9338 -2.0261
54121SOL     OW68967  11.021  12.641  10.975 -0.0920 -0.3113  0.7899
54121SOL    HW168968  11.015  12.636  11.070  1.1517  2.8617  1.1396
54121SOL    HW268969  11.114  12.627  10.956 -0.2644 -0.5215  0.0662
54122SOL     OW68970   6.639   2.872   4.882  0.4138 -0.1121 -0.2428
54122SOL    HW168971   6.661   2.891   4.973 -0.6511  1.9665 -0.3691
54122SOL    HW268972   6.580   2.942   4.856 -0.8279 -1.7045 -1.9821
54123SOL     OW68973  10.266  10.205   6.665 -0.0521  0.6160 -0.4406
54123SOL    HW168974  10.296  10.214   6.755 -1.3472 -0.2735  0.1072
54123SOL    HW268975  10.329  10.145   6.625 -1.3955 -1.8345  0.9044
54124SOL     OW68976  12.786   7.687   2.099 -0.5208 -0.1030  0.0583
54124SOL    HW168977  12.714   7.633   2.066 -0.8903  0.7045 -0.4816
54124SOL    HW268978  12.819   7.732   2.022  3.0883 -3.2474 -0.4911
54125SOL     OW68979   3.397  12.603  11.269  0.4337  0.0822 -0.2071
54125SOL    HW168980   3.308  12.627  11.294  0.8293  1.1263  0.2568
54125SOL    HW268981   3.392  12.510  11.247 -0.0852 -0.7867  3.1281
54126SOL     OW68982   2.663   5.546   7.145 -0.2844 -0.8319  0.0051
54126SOL    HW168983   2.706   5.471   7.104 -1.2337 -1.1476 -0.4495
54126SOL    HW268984   2.729   5.615   7.144  0.2404 -1.3290 -0.5638
54127SOL     OW68985   2.176   7.857  12.529  0.0854  0.2354 -0.2718
54127SOL    HW168986   2.115   7.842  12.601  1.7257 -0.2643  1.0756
54127SOL    HW268987   2.185   7.771  12.488  1.9086 -0.3729  1.2559
54128SOL     OW68988   2.527  12.492   0.768  0.1385 -0.2579  0.2224
54128SOL    HW168989   2.552  12.582   0.790  0.2150  0.3143 -1.9748
54128SOL    HW268990   2.496  12.497   0.677  0.5714 -2.5281 -0.1102
54129SOL     OW68991  11.261   0.402   5.280 -0.2016 -0.4912 -0.1397
54129SOL    HW168992  11.280   0.442   5.195  1.7844  0.2896  0.6211
54129SOL    HW268993  11.316   0.449   5.342 -2.3833 -0.2978  1.8122
54130SOL     OW68994   3.240   0.303   3.955  0.1918 -0.2635 -0.0527
54130SOL    HW168995   3.250   0.391   3.919  0.8034  0.3450  1.5155
54130SOL    HW268996   3.294   0.248   3.898  0.0237  0.4158 -0.8841
54131SOL     OW68997   3.103   8.615   8.582  0.4821  0.0286  0.1842
54131SOL    HW168998   3.112   8.520   8.569  2.3873  0.0358  1.0048
54131SOL    HW268999   3.075   8.624   8.672  0.0454  0.2452  0.0273
54132SOL     OW69000  11.561   4.293   3.327 -0.1652  0.1804  0.2655
54132SOL    HW169001  11.649   4.313   3.358 -0.7775  1.9515  0.9904
54132SOL    HW269002  11.510   4.371   3.348 -2.2503 -1.3225  1.1267
54133SOL     OW69003   9.766   0.139   3.269 -0.4289 -0.4314 -0.1457
54133SOL    HW169004   9.738   0.078   3.201 -0.1143  0.3668 -1.0214
54133SOL    HW269005   9.848   0.102   3.302 -0.7113 -0.9537 -0.0229
54134SOL     OW69006   3.564   9.340   1.027 -0.8233  0.2030  0.1571
54134SOL    HW169007   3.533   9.251   1.012  1.1449 -0.2037 -2.3136
54134SOL    HW269008   3.524   9.391   0.956 -2.7132  1.6123  2.0895
54135SOL     OW69009   4.495   4.674   0.935  0.0216  0.0069 -0.0372
54135SOL    HW169010   4.499   4.769   0.945 -0.1541  0.2738 -2.0846
54135SOL    HW269011   4.583   4.644   0.956 -0.0562  0.5292  1.1382
54136SOL     OW69012   0.210   4.984   4.671 -0.1146  0.5617 -0.0355
54136SOL    HW169013   0.237   4.901   4.709  0.3979  0.7606  0.0430
54136SOL    HW269014   0.247   5.051   4.728 -0.3022  0.8492 -0.2428
54137SOL     OW69015   2.506   5.840  12.567  0.7127 -0.1969  0.0279
54137SOL    HW169016   2.567   5.911  12.550 -0.4319  0.5576 -1.1514
54137SOL    HW269017   2.491   5.844  12.662  0.5789  1.2501 -0.0175
54138SOL     OW69018   4.221   9.710  10.623 -0.2578  0.3246  0.6586
54138SOL    HW169019   4.131   9.691  10.648 -0.6351  0.5354 -0.5016
54138SOL    HW269020   4.248   9.634  10.572 -0.3337  0.9721 -0.3715
54139SOL     OW69021   7.819   8.585   6.575 -0.2380  0.4896  0.6272
54139SOL    HW169022   7.790   8.516   6.516  0.0246 -0.5734  1.6896
54139SOL    HW269023   7.911   8.600   6.552 -0.5542  1.1639 -0.2254
54140SOL     OW69024  11.214   4.672  12.238 -0.4505  0.2819  0.1238
54140SOL    HW169025  11.129   4.632  12.253 -0.5477 -0.0824 -1.2683
54140SOL    HW269026  11.217   4.687  12.144  0.9473  0.4927  0.1837
54141SOL     OW69027  10.440   0.513   9.801 -0.2201  0.5131 -0.9555
54141SOL    HW169028  10.470   0.510   9.710  0.4987  1.0603 -0.7427
54141SOL    HW269029  10.519   0.500   9.853 -0.0856  3.1974 -0.3528
54142SOL     OW69030   4.252   4.503   6.083  0.4286 -0.0860  0.2369
54142SOL    HW169031   4.346   4.510   6.103  0.6017 -0.6939 -0.3014
54142SOL    HW269032   4.209   4.501   6.169  0.9494 -0.2497  0.5009
54143SOL     OW69033   9.123  12.723   7.263 -0.2236 -0.1475 -0.9136
54143SOL    HW169034   9.102  12.697   7.353  0.0595  0.6819 -0.6049
54143SOL    HW269035   9.086  12.810   7.254 -0.5257 -0.3552 -1.7120
54144SOL     OW69036   2.521   1.200  12.715  0.1065  0.4176  0.3436
54144SOL    HW169037   2.604   1.246  12.706  1.0657 -1.4588 -0.9007
54144SOL    HW269038   2.475   1.217  12.633  0.0793 -0.0958  0.2520
54145SOL     OW69039   8.291   1.752   0.807 -0.1268 -0.1391 -0.4976
54145SOL    HW169040   8.241   1.682   0.847  1.5168 -0.1093  1.8186
54145SOL    HW269041   8.383   1.728   0.821  0.5197  2.7972  1.1468
54146SOL     OW69042   5.228   9.369   9.995  0.5622 -0.1955 -0.2695
54146SOL    HW169043   5.214   9.292  10.051 -0.2204 -0.1070 -0.3428
54146SOL    HW269044   5.323   9.379   9.993  0.6189 -0.3420  0.8621
54147SOL     OW69045   6.047   4.589  10.396 -0.1791 -0.0443 -0.2472
54147SOL    HW169046   5.998   4.588  10.478 -0.1553 -1.1567 -0.2273
54147SOL    HW269047   6.000   4.651  10.340 -0.9513 -0.2529  0.1625
54148SOL     OW69048   1.435   9.278   2.184 -0.3015 -0.9326 -0.3679
54148SOL    HW169049   1.340   9.285   2.188 -0.1805  0.7496  0.1514
54148SOL    HW269050   1.452   9.216   2.112 -1.7726 -1.6152 -0.1538
54149SOL     OW69051   2.429   8.202   4.347  0.2608 -1.0949  0.0689
54149SOL    HW169052   2.344   8.171   4.317 -0.2875  0.2240  0.1973
54149SOL    HW269053   2.486   8.196   4.270 -0.9062  1.4370 -1.1076
54150SOL     OW69054   2.612   5.497   1.336  0.2999  0.1498  0.6321
54150SOL    HW169055   2.541   5.555   1.363 -1.0756 -0.3330 -1.6464
54150SOL    HW269056   2.686   5.556   1.322 -0.8287  1.3053 -0.8165
54151SOL     OW69057   7.171   7.155   9.134 -0.2299 -0.3807  0.5579
54151SOL    HW169058   7.214   7.148   9.049  0.1288 -0.2293  0.7253
54151SOL    HW269059   7.079   7.172   9.113  0.3297  2.9080  0.1592
54152SOL     OW69060   2.164  11.554   6.668  0.2262 -0.2402 -0.2111
54152SOL    HW169061   2.113  11.534   6.746  1.3781  0.0289  0.6335
54152SOL    HW269062   2.237  11.606   6.700  0.7414 -0.1606 -1.4712
54153SOL     OW69063   2.199   6.854   9.451  0.3239 -0.1230  0.4945
54153SOL    HW169064   2.291   6.879   9.443  0.2766 -0.2944 -0.8430
54153SOL    HW269065   2.152   6.936   9.463  0.2351  0.5116 -3.1698
54154SOL     OW69066   0.660   8.987  12.615  0.0958 -0.2085 -0.3764
54154SOL    HW169067   0.619   8.978  12.529  0.0109  3.5498 -0.9230
54154SOL    HW269068   0.586   9.000  12.675  0.2521  0.3009 -0.2891
54155SOL     OW69069   7.774  11.566   5.395 -0.2117 -0.4061  0.2741
54155SOL    HW169070   7.857  11.596   5.431 -0.0779 -1.0945  0.5554
54155SOL    HW269071   7.797  11.488   5.344 -0.8551 -1.4333  1.4993
54156SOL     OW69072   3.962   0.423  11.335  0.2214 -0.0490 -0.5522
54156SOL    HW169073   3.908   0.488  11.291  0.9236  0.1513 -1.1423
54156SOL    HW269074   3.939   0.340  11.292 -0.0702 -0.0636 -0.3702
54157SOL     OW69075   3.904   3.113  12.602  0.1953 -0.5424 -0.7283
54157SOL    HW169076   3.947   3.162  12.532  0.4438  0.0707 -0.1625
54157SOL    HW269077   3.973   3.057  12.637  1.4382  2.3862  1.9949
54158SOL     OW69078   3.392   9.265   7.981 -0.2943  0.3764 -0.6325
54158SOL    HW169079   3.440   9.221   8.051 -1.3145 -0.8403 -0.6501
54158SOL    HW269080   3.451   9.333   7.950  0.5559  0.3151  0.7600
54159SOL     OW69081   4.284   6.265   7.619  0.2793 -0.5772  0.5566
54159SOL    HW169082   4.299   6.174   7.596 -0.7770 -0.7170  0.3889
54159SOL    HW269083   4.226   6.299   7.550  1.2711  0.4364  0.1883
54160SOL     OW69084  10.701   9.771  12.725 -0.3432 -0.1896  0.2530
54160SOL    HW169085  10.752   9.690  12.723 -1.0039 -0.7454  2.7188
54160SOL    HW269086  10.767   9.840  12.720  0.5979 -0.9016  2.0093
54161SOL     OW69087   1.693  12.376   4.005 -0.6384 -0.0419 -0.2859
54161SOL    HW169088   1.783  12.364   4.034 -0.3881 -0.1869 -1.0851
54161SOL    HW269089   1.698  12.446   3.939 -1.1203  0.0083 -0.2735
54162SOL     OW69090   3.546  10.297   1.350  0.0170 -0.1018  0.1107
54162SOL    HW169091   3.626  10.266   1.307 -0.0458  1.3025 -1.1043
54162SOL    HW269092   3.491  10.327   1.278 -0.6172  1.1820  1.0906
54163SOL     OW69093   6.390   9.089   3.635  0.3686 -0.1357 -0.7947
54163SOL    HW169094   6.412   9.179   3.660 -2.0512  0.2557  0.2344
54163SOL    HW269095   6.399   9.088   3.540  2.0907  0.6675 -0.6821
54164SOL     OW69096   3.392   2.330   1.028 -0.1871  0.2586 -0.1444
54164SOL    HW169097   3.372   2.263   1.094 -0.3059  0.5787  0.1443
54164SOL    HW269098   3.320   2.391   1.033  1.4868  2.2416  1.9551
54165SOL     OW69099   6.609   2.237   4.797  0.0695  0.4865 -0.0337
54165SOL    HW169100   6.574   2.151   4.823  1.4106  0.3444  1.4750
54165SOL    HW269101   6.540   2.299   4.821  0.1110  0.0554  1.3034
54166SOL     OW69102  12.329   1.484   4.068  0.3570 -0.4684  0.0499
54166SOL    HW169103  12.238   1.487   4.098 -1.1622 -0.5127 -3.9116
54166SOL    HW269104  12.364   1.571   4.088 -1.3710  0.3710 -0.3989
54167SOL     OW69105   7.873   9.696  12.031  0.1552 -0.1150 -0.6335
54167SOL    HW169106   7.844   9.613  12.068 -0.3181 -0.1767 -1.1291
54167SOL    HW269107   7.793   9.737  11.998  0.5861 -0.1913 -1.8373
54168SOL     OW69108   4.989   1.044   7.536  0.3220 -0.4101  0.8895
54168SOL    HW169109   4.964   1.137   7.528  0.5230 -0.5015 -1.7455
54168SOL    HW269110   5.084   1.045   7.534  0.3091 -0.7222 -0.3696
54169SOL     OW69111   2.096   3.652   4.476 -0.5055  0.0251 -0.2532
54169SOL    HW169112   2.028   3.702   4.521 -0.2287  0.2909 -0.1198
54169SOL    HW269113   2.115   3.703   4.397 -0.2637  0.1072 -0.1460
54170SOL     OW69114  10.486   3.427   3.283  0.1588 -0.1475  0.8350
54170SOL    HW169115  10.423   3.475   3.337 -0.1013  0.0004  0.4021
54170SOL    HW269116  10.437   3.352   3.249  0.4287 -0.4558  1.1126
54171SOL     OW69117   1.738   8.117  11.658  0.3399  0.3501  0.5828
54171SOL    HW169118   1.756   8.167  11.579  0.6845 -0.4954  0.1055
54171SOL    HW269119   1.823   8.083  11.686 -0.0335 -1.0039  0.1606
54172SOL     OW69120   2.570   3.400  12.169  0.5614 -0.2618 -0.0452
54172SOL    HW169121   2.542   3.311  12.149 -1.0273  0.4265 -1.0861
54172SOL    HW269122   2.519   3.455  12.109  1.7486  1.3285  0.3448
54173SOL     OW69123   4.332   5.859  11.420 -0.0867  0.0741  0.1128
54173SOL    HW169124   4.400   5.926  11.427 -2.0571  2.1841  0.2859
54173SOL    HW269125   4.374   5.787  11.373  2.6472  0.6584  1.4656
54174SOL     OW69126  11.599   7.379   4.061  0.2499  0.5568 -0.4095
54174SOL    HW169127  11.689   7.362   4.090 -0.9476 -2.6553  2.0158
54174SOL    HW269128  11.596   7.344   3.972  1.3768  0.6846 -0.5212
54175SOL     OW69129   0.095   3.069   0.869  0.0441 -0.2534  0.2785
54175SOL    HW169130   0.095   3.076   0.773 -2.0595  1.2189  0.3122
54175SOL    HW269131   0.021   3.011   0.889  1.7473 -2.3087  1.0166
54176SOL     OW69132   1.712   7.596   4.588 -0.6636 -0.4140 -0.4843
54176SOL    HW169133   1.667   7.518   4.558 -2.4681 -0.5821  2.2539
54176SOL    HW269134   1.803   7.569   4.600 -1.2862 -2.2169  0.5930
54177SOL     OW69135  10.883   1.289   0.682 -0.0177  0.1867  1.2435
54177SOL    HW169136  10.978   1.279   0.677  0.0804  0.7846  1.8276
54177SOL    HW269137  10.855   1.294   0.590  0.4846 -0.1843  1.0641
54178SOL     OW69138   4.099   0.017   1.775 -0.0041  0.2056 -0.1031
54178SOL    HW169139   4.064   0.000   1.687  0.5520 -1.3193 -0.0527
54178SOL    HW269140   4.027  -0.004   1.834  0.9301 -3.1780  0.0144
54179SOL     OW69141   8.037   3.103   4.595  0.0280 -0.4657 -0.6470
54179SOL    HW169142   8.090   3.153   4.533  0.7094 -1.1093 -0.5989
54179SOL    HW269143   7.995   3.170   4.650  2.1948  0.0830  0.4955
54180SOL     OW69144   7.632  10.490   7.588 -0.3363 -0.3275 -0.1814
54180SOL    HW169145   7.580  10.549   7.642  1.0538 -0.1310  1.0150
54180SOL    HW269146   7.710  10.540   7.565 -0.7970 -0.4711 -2.2981
54181SOL     OW69147   5.646   3.430   6.674  0.1299 -0.1507  0.6229
54181SOL    HW169148   5.681   3.406   6.588 -1.9258 -0.2950 -0.2362
54181SOL    HW269149   5.603   3.515   6.659  1.6991  0.9710  2.0940
54182SOL     OW69150  12.091   8.362   1.232  0.2802 -0.1530  0.5178
54182SOL    HW169151  12.076   8.268   1.228  1.7238 -0.3754 -1.2052
54182SOL    HW269152  12.138   8.382   1.150 -1.8523  2.4144 -0.2333
54183SOL     OW69153   6.517   7.737   7.428 -0.1917  0.0769 -0.2489
54183SOL    HW169154   6.597   7.694   7.398 -1.3211 -0.9888 -1.8925
54183SOL    HW269155   6.460   7.665   7.458 -0.8955  0.7225  0.0004
54184SOL     OW69156   5.223  11.590  12.502  0.9388  0.0403  0.5842
54184SOL    HW169157   5.302  11.643  12.490  0.4016  0.7406  0.1279
54184SOL    HW269158   5.155  11.634  12.452  0.3712 -0.8497  0.5372
54185SOL     OW69159   2.914   9.407   6.008  0.0394  0.1850  0.3586
54185SOL    HW169160   2.855   9.474   6.043 -1.9236 -1.0509 -0.4635
54185SOL    HW269161   2.928   9.347   6.081  0.3341  0.4963  0.5622
54186SOL     OW69162   1.806  11.345   6.631 -0.4942 -0.2601 -0.3379
54186SOL    HW169163   1.873  11.295   6.678 -0.5908  0.2438  0.3420
54186SOL    HW269164   1.731  11.347   6.690 -0.6463  0.3113 -0.5404
54187SOL     OW69165   6.953   9.845   8.471  0.2016  0.6456  0.0278
54187SOL    HW169166   6.874   9.817   8.423  0.7451  1.6068 -1.5096
54187SOL    HW269167   7.018   9.860   8.402  1.4799  0.7107  1.2070
54188SOL     OW69168   5.289   0.297  11.175  0.3260  0.0200 -0.0746
54188SOL    HW169169   5.288   0.210  11.136 -3.2504  0.2746 -0.9059
54188SOL    HW269170   5.322   0.284  11.264 -0.5817 -2.2815 -0.0250
54189SOL     OW69171   7.418   4.235   3.745  0.1022  0.2448 -0.5704
54189SOL    HW169172   7.340   4.183   3.763  0.4653 -0.0236  0.2519
54189SOL    HW269173   7.412   4.308   3.807  1.0949 -0.4004  0.3092
54190SOL     OW69174   5.555   7.948   6.159  0.4142 -0.0585  0.2863
54190SOL    HW169175   5.518   7.906   6.081 -1.4508 -0.9279  1.5806
54190SOL    HW269176   5.633   7.896   6.179 -0.0763 -0.9121  0.0124
54191SOL     OW69177   5.162   5.646   8.188  0.0079  0.0754 -0.3426
54191SOL    HW169178   5.143   5.622   8.278  0.0460 -0.5277 -0.4883
54191SOL    HW269179   5.219   5.723   8.195 -2.0415  1.6155  0.0985
54192SOL     OW69180   9.584   7.560   1.705  0.2722 -0.5799  0.5835
54192SOL    HW169181   9.569   7.496   1.774 -0.0319 -0.9667  0.1699
54192SOL    HW269182   9.607   7.507   1.628 -1.2673 -0.2893 -0.1152
54193SOL     OW69183   7.268   0.787   1.071 -0.6874  0.7345 -0.0588
54193SOL    HW169184   7.302   0.868   1.033  0.3834 -0.2784 -1.3599
54193SOL    HW269185   7.272   0.802   1.166 -0.6834  2.2508 -0.2785
54194SOL     OW69186   7.349   6.600   9.217  0.4758  0.2170  0.2607
54194SOL    HW169187   7.336   6.695   9.215  2.0681  0.4521 -1.6365
54194SOL    HW269188   7.317   6.569   9.133  0.1004 -0.9408  0.8023
54195SOL     OW69189   7.222   7.886  11.514  0.1910 -0.4122 -0.0726
54195SOL    HW169190   7.273   7.806  11.529  1.1168  0.4618  1.7159
54195SOL    HW269191   7.164   7.891  11.589 -0.5897  0.0816 -0.6972
54196SOL     OW69192  11.974   7.894  10.548 -0.4148  0.5510  0.1039
54196SOL    HW169193  12.038   7.843  10.598 -2.7617  0.4356  3.3689
54196SOL    HW269194  11.934   7.831  10.489 -0.8230 -0.5966  1.5459
54197SOL     OW69195   6.404  10.291   9.060  0.7151  0.4155 -0.3552
54197SOL    HW169196   6.406  10.387   9.051 -0.1092  0.2806 -2.3373
54197SOL    HW269197   6.441  10.258   8.978 -0.1368 -0.9788 -0.2085
54198SOL     OW69198   3.675   2.269   8.945  0.3229 -0.0492  0.2215
54198SOL    HW169199   3.648   2.268   9.037  2.0282  1.9410  0.8093
54198SOL    HW269200   3.752   2.212   8.942 -0.0372 -0.5273 -0.1023
54199SOL     OW69201   4.286   3.139  10.981 -0.5472 -0.0362 -0.0376
54199SOL    HW169202   4.339   3.096  11.049  0.7318  1.9162  0.2820
54199SOL    HW269203   4.197   3.138  11.017 -0.2780 -1.0125  0.6466
54200SOL     OW69204  12.540   4.837   1.036 -0.7458  0.3355  0.4233
54200SOL    HW169205  12.603   4.766   1.022 -0.1103  0.5881  1.7736
54200SOL    HW269206  12.547   4.891   0.957 -1.2364 -1.0734 -0.6234
54201SOL     OW69207   6.523   0.815   0.168  0.3323 -0.5789 -0.2865
54201SOL    HW169208   6.574   0.815   0.249 -0.6906 -0.6160  0.3734
54201SOL    HW269209   6.534   0.903   0.132  0.8674 -0.5938 -0.1694
54202SOL     OW69210   9.610   3.132   1.624  0.5866 -0.3047 -0.6397
54202SOL    HW169211   9.648   3.131   1.712 -2.4128 -2.1192  0.7747
54202SOL    HW269212   9.599   3.040   1.601 -1.9617  0.1168 -1.3633
54203SOL     OW69213   1.321   9.560  12.411  0.2673 -0.3830  0.3871
54203SOL    HW169214   1.293   9.484  12.359 -0.2591  1.0894 -1.5667
54203SOL    HW269215   1.242   9.612  12.423  0.7188  0.1316  1.2865
54204SOL     OW69216   5.111   7.420   8.943  0.4316 -0.0259 -0.0832
54204SOL    HW169217   5.057   7.473   9.001 -0.1422  1.0449 -1.5337
54204SOL    HW269218   5.049   7.371   8.889  0.8909  0.4022 -1.0349
54205SOL     OW69219  11.752   2.568   7.564 -0.8276  0.0581 -0.4450
54205SOL    HW169220  11.784   2.578   7.654 -0.8983 -0.5538 -0.3490
54205SOL    HW269221  11.657   2.559   7.573 -0.6897 -1.5986 -0.4391
54206SOL     OW69222   6.019   7.537  10.110 -0.3965 -0.0868 -0.3384
54206SOL    HW169223   6.015   7.497  10.024  0.6519 -1.9873  0.4259
54206SOL    HW269224   6.043   7.628  10.094  1.1305 -0.7393 -1.9850
54207SOL     OW69225   5.579   3.063   9.829 -0.8101  0.4691  0.1418
54207SOL    HW169226   5.612   3.100   9.911  0.2965 -0.0385 -0.0608
54207SOL    HW269227   5.492   3.029   9.852 -0.1616 -0.4700  1.3428
54208SOL     OW69228   3.420   0.097   0.437  0.0805  0.6643 -0.2857
54208SOL    HW169229   3.453   0.015   0.475  2.1277  1.4504 -0.2435
54208SOL    HW269230   3.440   0.089   0.344 -2.3397 -0.0505 -0.8032
54209SOL     OW69231   7.074  11.931   1.445 -0.0751 -0.0086 -0.5580
54209SOL    HW169232   6.996  11.979   1.416 -0.9864 -0.7772  0.4882
54209SOL    HW269233   7.147  11.973   1.400 -0.6170  3.2633  1.3196
54210SOL     OW69234   1.143   5.233  10.066  0.5054  0.0756  0.3709
54210SOL    HW169235   1.208   5.287  10.109 -1.0765  1.5363  1.0432
54210SOL    HW269236   1.096   5.189  10.137 -0.7565  0.8833  0.0836
54211SOL     OW69237  11.537   7.018   2.172  0.2418  0.3749  0.8524
54211SOL    HW169238  11.623   7.054   2.195 -0.8637  2.0189  2.7059
54211SOL    HW269239  11.496   7.000   2.256 -1.9108  1.3398  0.0744
54212SOL     OW69240   1.820   9.982   5.624  0.0418 -0.1140 -0.2002
54212SOL    HW169241   1.893   9.922   5.632  1.6512  1.7162 -0.3610
54212SOL    HW269242   1.797   9.980   5.531  1.3648  0.8771 -0.5827
54213SOL     OW69243   3.124   5.500   4.524  0.4083  0.0878 -0.1170
54213SOL    HW169244   3.200   5.479   4.577  0.3048 -1.4190 -0.5281
54213SOL    HW269245   3.068   5.552   4.582  0.4045 -1.2993  1.1952
54214SOL     OW69246   9.234  12.607   4.053 -0.5363  0.0376 -0.1081
54214SOL    HW169247   9.293  12.545   4.096 -0.0760  1.1552  0.9053
54214SOL    HW269248   9.192  12.555   3.985 -0.0136 -1.3467  0.5745
54215SOL     OW69249   8.289   2.988   6.099 -0.6119  0.0620  0.4059
54215SOL    HW169250   8.278   3.011   6.192 -0.5488  1.2266  0.1438
54215SOL    HW269251   8.200   2.996   6.063 -0.0907  3.4123 -0.4148
54216SOL     OW69252   3.634   3.273   6.303 -0.0959  0.5164 -0.5516
54216SOL    HW169253   3.592   3.239   6.382  0.1663  1.3486 -0.0367
54216SOL    HW269254   3.723   3.238   6.307 -0.5997 -0.9775 -1.4732
54217SOL     OW69255  12.464   8.367   2.135  0.0008 -0.1201  0.2048
54217SOL    HW169256  12.491   8.424   2.208  2.5747 -0.9731  0.0096
54217SOL    HW269257  12.410   8.300   2.176  0.9829 -0.2855  1.2835
54218SOL     OW69258   5.980   2.933  10.676  0.2934 -0.2114 -0.1246
54218SOL    HW169259   5.920   2.972  10.613  1.6631  1.0911 -0.6788
54218SOL    HW269260   6.013   2.854  10.632  0.9223  0.4628 -0.8973
54219SOL     OW69261   6.214   3.404   1.175  0.3846 -0.2094 -0.1921
54219SOL    HW169262   6.126   3.380   1.205  0.1866  0.8810  0.1725
54219SOL    HW269263   6.198   3.456   1.096  0.7822 -1.0630 -0.8480
54220SOL     OW69264  10.607  12.411   1.596  0.0077  0.0583  0.3321
54220SOL    HW169265  10.595  12.441   1.686 -1.6231  0.2412  0.0886
54220SOL    HW269266  10.523  12.371   1.573  0.4706 -0.1816 -1.0365
54221SOL     OW69267  10.737  10.510   6.880 -1.1803  0.1175 -0.2584
54221SOL    HW169268  10.776  10.465   6.956  0.6950  0.8770 -0.7119
54221SOL    HW269269  10.673  10.447   6.845 -0.4888 -1.1398  0.6431
54222SOL     OW69270   0.673   7.082  11.256  0.0316 -0.2041 -0.3014
54222SOL    HW169271   0.728   7.142  11.307 -0.1929  0.4611 -0.8251
54222SOL    HW269272   0.728   7.055  11.183 -0.0937 -0.1111 -0.4307
54223SOL     OW69273  11.298   0.012   9.437  0.0293  0.2271  0.0561
54223SOL    HW169274  11.246   0.038   9.513  0.5965 -0.8054  0.8199
54223SOL    HW269275  11.261  -0.072   9.410  1.0486 -0.3546  0.3993
54224SOL     OW69276   1.637   4.339  10.031  0.2483  0.1601 -0.3756
54224SOL    HW169277   1.608   4.417  10.078  0.9596  0.8586 -1.0448
54224SOL    HW269278   1.651   4.370   9.941 -2.5824 -1.4613 -1.4918
54225SOL     OW69279   1.207   7.776   5.513 -0.5765 -0.0763  0.3523
54225SOL    HW169280   1.143   7.759   5.582  0.6963  1.8671  2.1320
54225SOL    HW269281   1.290   7.744   5.549 -0.2188 -0.9250 -1.1651
54226SOL     OW69282   7.703   0.327   5.760  0.0063 -0.5044 -0.2460
54226SOL    HW169283   7.644   0.397   5.731 -0.0952 -0.5109 -0.0565
54226SOL    HW269284   7.735   0.288   5.679  0.7128  0.3015 -0.3735
54227SOL     OW69285   8.927   7.799   8.455  0.2167 -0.3521  0.3442
54227SOL    HW169286   9.001   7.748   8.488  0.8759  0.7210  0.5783
54227SOL    HW269287   8.934   7.883   8.500  0.3146  0.6561 -1.4567
54228SOL     OW69288  11.621   5.667   9.119  0.5046  0.0260  0.6265
54228SOL    HW169289  11.592   5.758   9.124  0.8154  0.1339  0.5214
54228SOL    HW269290  11.648   5.645   9.208  1.2442  0.3155  0.4827
54229SOL     OW69291   8.623  11.705  12.440 -0.3056 -0.3670 -0.3812
54229SOL    HW169292   8.685  11.664  12.380  1.1478  0.4127  0.5481
54229SOL    HW269293   8.671  11.716  12.522 -1.3002  1.2788  0.0323
54230SOL     OW69294   1.948   8.076   7.418 -0.4630  0.3892  0.0672
54230SOL    HW169295   1.866   8.115   7.386 -1.2020 -0.7050  0.5546
54230SOL    HW269296   1.921   7.990   7.451  1.0838 -0.5105 -0.9190
54231SOL     OW69297   8.181   9.698  10.104 -0.3484  0.5596 -0.0228
54231SOL    HW169298   8.161   9.662  10.190  1.9442 -0.4721  0.1513
54231SOL    HW269299   8.184   9.622  10.046  1.7657  0.7195 -0.2221
54232SOL     OW69300  12.280   6.458  11.785 -0.0991  0.2130 -0.6580
54232SOL    HW169301  12.300   6.436  11.694 -1.4036 -0.5489 -0.7888
54232SOL    HW269302  12.210   6.523  11.779 -0.5828 -0.2550 -0.2082
54233SOL     OW69303   5.562   7.303  10.743 -0.1741  0.4096  0.2690
54233SOL    HW169304   5.486   7.342  10.786 -0.1683  1.1034 -0.3337
54233SOL    HW269305   5.637   7.355  10.774 -0.2142  1.1948 -0.8619
54234SOL     OW69306   8.305   3.439   4.320 -0.4608 -0.9016 -0.0876
54234SOL    HW169307   8.260   3.362   4.284  0.8753 -1.7283 -0.0758
54234SOL    HW269308   8.354   3.474   4.245 -0.5330 -0.4624  0.0715
54235SOL     OW69309  11.656   7.544   3.720  0.4914 -0.0342 -0.0294
54235SOL    HW169310  11.697   7.462   3.747 -1.3518 -1.3156 -0.8978
54235SOL    HW269311  11.673   7.604   3.793  1.2121 -1.4227  0.9998
54236SOL     OW69312   0.322   6.504   7.845  0.2763  0.1563  0.5066
54236SOL    HW169313   0.269   6.479   7.768 -0.4681 -0.4233  1.1931
54236SOL    HW269314   0.266   6.483   7.920  0.3899  2.0858  1.1854
54237SOL     OW69315   2.068   7.574   7.532  0.3306  0.3418  0.3972
54237SOL    HW169316   2.089   7.529   7.450  0.8599 -0.7180  1.0918
54237SOL    HW269317   2.133   7.644   7.538  0.2033  0.5164 -0.1500
54238SOL     OW69318   8.664   1.661   7.764 -0.4807  0.2559 -0.5654
54238SOL    HW169319   8.704   1.608   7.694  0.9394  0.6228 -0.0721
54238SOL    HW269320   8.662   1.602   7.840 -0.6305  0.3257 -0.5160
54239SOL     OW69321   2.478   2.554   6.457 -0.3344  0.3896 -0.0736
54239SOL    HW169322   2.538   2.510   6.397  0.6390 -0.6550  1.6033
54239SOL    HW269323   2.534   2.604   6.515 -1.2668  1.4751 -0.0739
54240SOL     OW69324  10.305   0.358   7.581  0.0429 -0.1051  0.1388
54240SOL    HW169325  10.293   0.362   7.677  0.4726  1.4514  0.1645
54240SOL    HW269326  10.230   0.307   7.550 -0.5612  0.0583  1.2535
54241SOL     OW69327   1.211   4.502   5.216 -0.8300 -0.2341 -0.3357
54241SOL    HW169328   1.286   4.558   5.234 -0.8311 -0.2382 -0.3189
54241SOL    HW269329   1.229   4.422   5.266 -0.5705 -0.4595 -0.7819
54242SOL     OW69330   1.989   7.703  12.264  0.0789 -0.5790  0.0965
54242SOL    HW169331   1.969   7.666  12.350  0.3700  0.5256  0.6606
54242SOL    HW269332   1.907   7.742  12.234  0.5306  1.1469  0.9780
54243SOL     OW69333   5.478   9.564  10.762  0.2505 -0.1114  0.4002
54243SOL    HW169334   5.414   9.556  10.691  1.1495 -1.2036 -0.3420
54243SOL    HW269335   5.445   9.634  10.817  0.5715  2.3448 -2.2779
54244SOL     OW69336   4.190  10.006   6.987  0.1740 -0.1389 -0.0527
54244SOL    HW169337   4.232  10.086   6.955  0.3121  0.2036  0.9473
54244SOL    HW269338   4.154   9.965   6.908 -1.2185  1.6656 -0.4291
54245SOL     OW69339   5.152   3.888   4.389 -0.6191 -0.2884 -0.8021
54245SOL    HW169340   5.189   3.800   4.381 -2.4144 -1.1514 -0.0336
54245SOL    HW269341   5.227   3.947   4.374  0.7634 -1.9253 -0.6019
54246SOL     OW69342  11.476   5.305  11.754  0.8529  0.3908  0.1265
54246SOL    HW169343  11.562   5.335  11.783  1.4322 -0.0741 -1.0433
54246SOL    HW269344  11.469   5.216  11.789  1.3320  0.0198 -0.6999
54247SOL     OW69345  12.496   5.695   7.272  0.1173 -0.4549 -0.4322
54247SOL    HW169346  12.513   5.752   7.347 -0.7506  0.6404 -1.0290
54247SOL    HW269347  12.420   5.643   7.299  0.2524 -0.5729 -0.2799
54248SOL     OW69348   3.260  10.605   9.254  0.7884  0.2873  0.4238
54248SOL    HW169349   3.316  10.652   9.192  0.4370  0.8887  0.5559
54248SOL    HW269350   3.321  10.562   9.314  1.1223  0.0764 -0.0602
54249SOL     OW69351  10.470  12.532   4.595 -0.0224  0.3452 -0.0908
54249SOL    HW169352  10.503  12.472   4.661 -1.0728 -2.1587 -1.6921
54249SOL    HW269353  10.527  12.518   4.519 -2.0762 -0.9371 -1.4888
54250SOL     OW69354  10.636  11.723   3.421 -0.4997  0.1543  0.5741
54250SOL    HW169355  10.579  11.682   3.356  0.5960  0.8132 -0.8522
54250SOL    HW269356  10.646  11.656   3.489  0.7191 -1.7484 -1.3621
54251SOL     OW69357   5.672   8.287   0.301  0.1266 -0.0863  0.2451
54251SOL    HW169358   5.679   8.193   0.316 -3.4177 -0.4769  0.1829
54251SOL    HW269359   5.694   8.327   0.385  2.2913 -0.8482  0.1036
54252SOL     OW69360   4.852   2.677  12.552  0.6326 -0.5001 -0.3892
54252SOL    HW169361   4.791   2.665  12.625  2.1174 -1.0928  0.8154
54252SOL    HW269362   4.797   2.677  12.474 -0.8350 -1.7283  0.5943
54253SOL     OW69363   0.931  10.874   7.771  0.6291  0.0215 -0.0304
54253SOL    HW169364   0.865  10.943   7.764 -0.0937 -0.5646  0.7721
54253SOL    HW269365   1.015  10.919   7.760  0.0846  0.5912 -2.3916
54254SOL     OW69366  10.218  10.308  12.496  0.0532 -0.4147  0.3803
54254SOL    HW169367  10.132  10.274  12.522  0.6006 -2.1609  0.0824
54254SOL    HW269368  10.240  10.259  12.417  1.4492 -0.2236  0.6134
54255SOL     OW69369   5.238   5.109   1.983  0.1090  0.2055 -0.0712
54255SOL    HW169370   5.248   5.076   1.894  4.0587 -0.6132  0.4757
54255SOL    HW269371   5.206   5.033   2.033 -0.4376  0.1587 -0.4865
54256SOL     OW69372   5.588   7.716  10.512 -0.6062  0.4915 -0.0031
54256SOL    HW169373   5.562   7.756  10.429 -2.0744  0.1096  0.2451
54256SOL    HW269374   5.608   7.625  10.490  0.5521  0.7722 -0.1837
54257SOL     OW69375   6.002   2.093   9.117 -0.3481  0.1853  0.1060
54257SOL    HW169376   5.990   1.998   9.120 -0.0467  0.1154 -0.6500
54257SOL    HW269377   6.035   2.116   9.205 -2.5353 -0.0768  1.0501
54258SOL     OW69378   0.084  12.665   5.847  0.1336 -0.3163  0.0259
54258SOL    HW169379  -0.003  12.687   5.814  0.4518  1.4548  0.2952
54258SOL    HW269380   0.126  12.619   5.774  0.2228  2.0226 -1.4850
54259SOL     OW69381   5.768   7.665   6.464 -0.0679 -0.1886  0.3592
54259SOL    HW169382   5.833   7.706   6.521 -1.9905  2.3779  0.8902
54259SOL    HW269383   5.793   7.692   6.375 -0.7948  1.5133  0.6317
54260SOL     OW69384  12.619  10.821   5.176  0.1719 -0.5466  0.5675
54260SOL    HW169385  12.526  10.801   5.165  0.2813 -1.3369  0.9849
54260SOL    HW269386  12.621  10.903   5.224 -0.3019  1.4369 -2.5750
54261SOL     OW69387   0.893   5.669  10.416  0.3895  0.0494  0.2318
54261SOL    HW169388   0.942   5.671  10.498 -0.0642 -0.5590  0.5281
54261SOL    HW269389   0.877   5.576  10.400  1.7901  0.0411 -1.3574
54262SOL     OW69390   3.264   2.040   8.127 -0.3170  0.6090 -0.3428
54262SOL    HW169391   3.223   2.071   8.047  0.4589  0.5698 -0.7678
54262SOL    HW269392   3.337   1.985   8.097 -0.5975 -0.1966  0.3897
54263SOL     OW69393  10.694   1.853   9.934 -0.2456 -0.1922 -0.7250
54263SOL    HW169394  10.633   1.790   9.895  0.3085 -0.2385 -1.5344
54263SOL    HW269395  10.773   1.848   9.880 -0.1054  1.0334 -0.6749
54264SOL     OW69396  11.841  12.657   0.376 -0.3093  0.1731  0.4919
54264SOL    HW169397  11.909  12.605   0.332 -0.5664  1.7213 -1.9347
54264SOL    HW269398  11.771  12.594   0.394 -0.2843 -0.5591 -1.6475
54265SOL     OW69399   9.112   9.693   8.419  0.3341  0.2473 -0.2253
54265SOL    HW169400   9.105   9.787   8.435 -0.7842  0.0585  0.4587
54265SOL    HW269401   9.206   9.674   8.429  0.7640  1.4696 -1.5579
54266SOL     OW69402  11.447  11.710   3.927 -0.0129 -0.2817  0.3222
54266SOL    HW169403  11.467  11.627   3.883  0.4109 -0.0527  0.0749
54266SOL    HW269404  11.442  11.774   3.855  0.4924  0.0592  0.5892
54267SOL     OW69405  11.853   0.370  10.778 -0.1857  0.0035 -0.4604
54267SOL    HW169406  11.822   0.374  10.869 -1.2360 -1.5435 -0.7000
54267SOL    HW269407  11.941   0.408  10.781  0.6173 -1.7791  1.6243
54268SOL     OW69408   5.042   2.881   4.131  0.2179  0.4044 -0.5594
54268SOL    HW169409   5.039   2.788   4.106  0.7073  0.2537 -0.0928
54268SOL    HW269410   4.997   2.927   4.061  0.7670 -0.0988 -1.2554
54269SOL     OW69411   7.221   3.297   7.137  0.1292  0.1616 -0.4889
54269SOL    HW169412   7.211   3.211   7.177 -0.2198 -0.0057 -0.9193
54269SOL    HW269413   7.315   3.310   7.130  0.1884  0.1792  0.3454
54270SOL     OW69414   0.727   6.934  10.854  0.8216  0.1304  0.2252
54270SOL    HW169415   0.727   6.889  10.939 -2.6441 -2.4324 -0.9217
54270SOL    HW269416   0.667   7.008  10.866  0.9560  0.2372  0.2362
54271SOL     OW69417   1.119  10.734   5.957  0.2283 -0.0143 -0.2525
54271SOL    HW169418   1.152  10.679   5.886  1.0877 -0.0406  0.1545
54271SOL    HW269419   1.171  10.814   5.952  0.7668 -0.2835  0.7485
54272SOL     OW69420   8.656   0.803   1.124  0.1609  0.0050 -0.5036
54272SOL    HW169421   8.614   0.742   1.064 -0.6782 -0.0739  0.1447
54272SOL    HW269422   8.733   0.755   1.157 -0.6927 -0.8686  0.2835
54273SOL     OW69423   3.862   1.793   2.492 -0.0661  0.2137  0.4453
54273SOL    HW169424   3.847   1.719   2.551  1.0043  0.4345  1.0370
54273SOL    HW269425   3.853   1.757   2.404  1.1348 -0.8102  0.7123
54274SOL     OW69426   6.445   9.286   8.496  0.0789  0.2150  0.2184
54274SOL    HW169427   6.429   9.261   8.406  0.9576  3.3190 -0.9409
54274SOL    HW269428   6.455   9.204   8.544 -3.7790 -1.6695 -1.7686
54275SOL     OW69429   8.851   3.388   8.792 -0.0547 -0.6340  0.4194
54275SOL    HW169430   8.905   3.465   8.777  0.6038 -0.9687  1.0045
54275SOL    HW269431   8.808   3.405   8.876 -0.3608 -0.6528  0.2677
54276SOL     OW69432   0.789   8.677  10.627 -0.0863 -0.2330  0.2660
54276SOL    HW169433   0.773   8.612  10.559  0.4544  0.4077 -0.4999
54276SOL    HW269434   0.769   8.632  10.709 -0.1575 -1.2131 -0.2750
54277SOL     OW69435  12.245   9.220   7.610 -0.5935  0.3006 -0.4531
54277SOL    HW169436  12.196   9.300   7.628 -0.9252  0.2112 -0.9214
54277SOL    HW269437  12.261   9.181   7.696  0.8434  1.5997 -0.0957
54278SOL     OW69438   7.102  10.025   2.807  0.3750  0.0890 -0.1062
54278SOL    HW169439   7.151   9.966   2.751 -0.5413 -1.5349  0.7417
54278SOL    HW269440   7.125   9.999   2.896  0.9575  1.8962  0.3301
54279SOL     OW69441   8.852   7.687  11.231 -0.6261 -0.2425 -0.2147
54279SOL    HW169442   8.915   7.759  11.239 -0.6320 -0.0665 -1.5444
54279SOL    HW269443   8.903   7.608  11.249  0.1424 -0.1572 -1.8844
54280SOL     OW69444  10.862   1.221   6.101 -0.0041  0.3224 -0.2029
54280SOL    HW169445  10.801   1.232   6.027  0.5930  1.8115 -0.4977
54280SOL    HW269446  10.851   1.129   6.126 -0.2525 -0.2394 -2.1320
54281SOL     OW69447   3.724   1.635   4.943  0.2768 -0.0346  0.0178
54281SOL    HW169448   3.671   1.713   4.957  0.6154  0.2582 -0.3302
54281SOL    HW269449   3.785   1.634   5.017  0.3154  0.0680 -0.0120
54282SOL     OW69450   0.525  12.245   1.779  0.1430 -0.3817  0.4468
54282SOL    HW169451   0.460  12.293   1.831  0.7036  1.6143 -0.5777
54282SOL    HW269452   0.510  12.153   1.801 -0.1774  0.2675  3.5315
54283SOL     OW69453   0.764   7.374  12.251  0.3905 -0.2651  0.5498
54283SOL    HW169454   0.703   7.405  12.183 -0.4836 -1.3842  0.7933
54283SOL    HW269455   0.822   7.448  12.266  0.9387 -0.1505 -1.7692
54284SOL     OW69456   0.329   5.126   0.005 -0.1319  0.0450  0.5554
54284SOL    HW169457   0.391   5.108  -0.065 -1.5525 -1.1865 -0.4554
54284SOL    HW269458   0.325   5.046   0.056 -1.3344 -0.1310  0.2190
54285SOL     OW69459   8.369   7.908   9.321  0.6851  0.4092  0.5004
54285SOL    HW169460   8.422   7.833   9.294  1.2654  0.4857  1.4048
54285SOL    HW269461   8.330   7.940   9.240  0.4483 -0.8524  0.0930
54286SOL     OW69462   5.723   3.921  12.777 -0.4623  0.3975  0.3122
54286SOL    HW169463   5.762   3.836  12.754  0.2701  0.7310  0.2913
54286SOL    HW269464   5.760   3.982  12.713 -0.2974  0.8910  0.8740
54287SOL     OW69465   1.513   1.165   4.542 -0.6388  0.1842  0.0848
54287SOL    HW169466   1.467   1.236   4.497 -2.5137 -0.3902  0.9996
54287SOL    HW269467   1.468   1.157   4.626 -0.5019 -2.1375 -0.0147
54288SOL     OW69468   3.804   1.817   9.799  0.6367  0.5132 -0.2260
54288SOL    HW169469   3.723   1.768   9.784  1.6047 -1.2827  0.1717
54288SOL    HW269470   3.808   1.880   9.726 -0.5060 -0.2000 -0.9296
54289SOL     OW69471   3.313   3.740   8.805 -0.9240 -0.1849  0.1458
54289SOL    HW169472   3.294   3.653   8.769  0.9075 -0.5737 -0.0162
54289SOL    HW269473   3.409   3.747   8.799 -1.1023  2.2691 -0.7780
54290SOL     OW69474   2.665   6.079   5.980  0.2765  0.0363 -0.0892
54290SOL    HW169475   2.740   6.118   5.934  0.9213 -0.6372  0.3759
54290SOL    HW269476   2.691   5.989   5.996 -1.0560 -0.5029 -0.8205
54291SOL     OW69477   3.359   6.969   8.260  0.6042 -0.0987 -0.1467
54291SOL    HW169478   3.284   6.942   8.208  0.9550  0.5573 -1.0171
54291SOL    HW269479   3.357   7.065   8.257  0.8945 -0.0600  0.6644
54292SOL     OW69480   1.968   5.137   7.905  0.0589 -0.4689  0.0679
54292SOL    HW169481   1.998   5.047   7.887  0.8127 -0.0470 -0.8953
54292SOL    HW269482   2.008   5.160   7.988 -0.0636 -0.9931  0.2754
54293SOL     OW69483   3.997   1.934  10.573  0.6136 -0.3305 -0.6868
54293SOL    HW169484   3.936   1.907  10.641  2.0045 -0.9847  0.3380
54293SOL    HW269485   3.942   1.942  10.494 -0.9750  0.1831  0.4065
54294SOL     OW69486  12.081   1.786  11.202  0.3372  0.1745  0.2521
54294SOL    HW169487  12.066   1.705  11.152  0.4129 -0.8547  1.8252
54294SOL    HW269488  12.099   1.852  11.135 -0.0828 -1.0238 -1.1022
54295SOL     OW69489   8.687  12.578  10.903  0.2639 -0.4707  0.0927
54295SOL    HW169490   8.765  12.553  10.951 -0.1176  0.2680  1.1306
54295SOL    HW269491   8.633  12.498  10.902  0.7009 -0.7649  0.0412
54296SOL     OW69492   6.065   3.419   1.721  0.3084 -0.1494 -0.3019
54296SOL    HW169493   6.089   3.502   1.679  0.8470  0.7025  1.6092
54296SOL    HW269494   6.018   3.444   1.800  0.4067 -1.6680  0.2692
54297SOL     OW69495   3.361   7.030   7.407  0.1363 -0.6922  0.1960
54297SOL    HW169496   3.299   6.962   7.436  0.9851 -1.4974  0.1446
54297SOL    HW269497   3.444   6.984   7.396  0.2461 -0.0721 -1.9128
54298SOL     OW69498   7.457   3.784   4.112  0.2747 -0.2248 -0.1838
54298SOL    HW169499   7.385   3.722   4.116  0.3144 -0.2108  1.7082
54298SOL    HW269500   7.523   3.748   4.172  1.3008  0.4468 -0.8621
54299SOL     OW69501   6.486   0.045  11.101 -0.6997 -0.2641  0.2295
54299SOL    HW169502   6.416   0.109  11.102 -0.0550  0.4529  1.2335
54299SOL    HW269503   6.530   0.057  11.016 -1.4219 -0.3302 -0.1564
54300SOL     OW69504  10.646   6.023   6.624 -0.1229  0.4589  0.4752
54300SOL    HW169505  10.739   6.044   6.635 -0.0016  0.3798 -0.3050
54300SOL    HW269506  10.600   6.093   6.670  0.3179  0.9642  0.1606
54301SOL     OW69507   9.685   5.734   6.715 -0.1171  0.1353 -0.1186
54301SOL    HW169508   9.622   5.752   6.645  1.2927 -0.1268 -1.5101
54301SOL    HW269509   9.725   5.819   6.734  0.1602  0.0520 -0.3139
54302SOL     OW69510   7.406   6.558   9.698  0.0976  0.0334  0.0042
54302SOL    HW169511   7.400   6.595   9.787  1.4076  0.5211 -0.0808
54302SOL    HW269512   7.326   6.586   9.655 -1.8074 -2.3330  1.7694
54303SOL     OW69513   3.742   5.283  12.714 -0.2626 -0.0025 -0.2807
54303SOL    HW169514   3.764   5.239  12.632  1.5471  0.2196  0.0482
54303SOL    HW269515   3.689   5.220  12.763  0.2739 -0.8719 -0.8222
54304SOL     OW69516   4.788   6.474   1.435  0.6069 -0.1291 -0.2401
54304SOL    HW169517   4.870   6.473   1.387  0.8934  0.7376  0.2193
54304SOL    HW269518   4.798   6.405   1.501 -0.5389 -2.7241 -2.5734
54305SOL     OW69519  11.305  11.452   5.833  0.1952  0.3084 -0.5769
54305SOL    HW169520  11.360  11.503   5.892 -0.2668 -1.2495  1.2653
54305SOL    HW269521  11.221  11.497   5.834 -0.0803 -0.2001  0.6893
54306SOL     OW69522   5.383  11.454  10.456  0.4725 -0.4107 -0.0027
54306SOL    HW169523   5.417  11.527  10.507 -0.6012 -0.5753  0.9796
54306SOL    HW269524   5.302  11.429  10.500 -0.4772 -0.5913 -1.7630
54307SOL     OW69525   2.499   1.110   1.037  0.3867  0.0482  0.3106
54307SOL    HW169526   2.531   1.151   1.118 -0.2241  0.3910  0.3840
54307SOL    HW269527   2.556   1.145   0.969  2.5857 -2.1428  0.8429
54308SOL     OW69528   7.366   0.416   3.961 -0.3059 -0.5116 -0.1729
54308SOL    HW169529   7.430   0.352   3.928 -0.7084 -0.9687 -0.0725
54308SOL    HW269530   7.419   0.491   3.988 -0.0032  0.4762 -3.1201
54309SOL     OW69531   1.129   0.752  11.308 -0.1609 -0.6312 -0.5131
54309SOL    HW169532   1.077   0.819  11.264 -2.1051 -1.2177  0.7934
54309SOL    HW269533   1.098   0.753  11.399  0.2569 -2.7969 -0.2915
54310SOL     OW69534   1.037   4.319   8.012 -0.0577  0.0979  0.3342
54310SOL    HW169535   0.944   4.305   8.030 -0.3846  0.7882 -0.7633
54310SOL    HW269536   1.061   4.392   8.070 -0.6422  1.0591 -0.5956
54311SOL     OW69537   0.710   9.527   6.475  0.2248 -0.5939 -0.2110
54311SOL    HW169538   0.753   9.466   6.534  0.1588  0.8258  1.3674
54311SOL    HW269539   0.773   9.540   6.404  0.8219 -1.4001  0.1615
54312SOL     OW69540   7.126   2.655   1.721 -0.2325 -0.6169 -0.3080
54312SOL    HW169541   7.215   2.683   1.701 -0.1413  0.5974  1.5647
54312SOL    HW269542   7.103   2.595   1.649  1.4943  0.2534 -1.6639
54313SOL     OW69543  11.420  10.712   9.255  0.2886 -0.8318  0.4768
54313SOL    HW169544  11.429  10.765   9.334  0.9072 -2.0553  1.2538
54313SOL    HW269545  11.468  10.632   9.274 -0.4162 -1.5799 -0.7643
54314SOL     OW69546   9.140   6.743  11.781 -1.0669  0.0914  0.8355
54314SOL    HW169547   9.200   6.714  11.849  0.7791 -1.4246 -1.2651
54314SOL    HW269548   9.098   6.662  11.750 -1.2461  0.6052 -0.3438
54315SOL     OW69549  11.583   5.572   2.532 -0.6372 -0.2433 -0.1231
54315SOL    HW169550  11.634   5.653   2.527  0.0926 -0.7628 -1.4239
54315SOL    HW269551  11.496   5.600   2.562 -0.2467  0.9474 -0.0603
54316SOL     OW69552   7.449   3.445   1.265  0.0341 -0.2153 -0.1420
54316SOL    HW169553   7.434   3.446   1.170  0.1486 -0.9996 -0.1736
54316SOL    HW269554   7.409   3.363   1.295 -0.4850  0.2901  0.5754
54317SOL     OW69555  12.306   3.741   4.224 -0.6220  0.3802 -0.3327
54317SOL    HW169556  12.240   3.687   4.180 -0.7184 -0.7155  1.1011
54317SOL    HW269557  12.269   3.829   4.222 -0.8815  0.2657 -1.9054
54318SOL     OW69558   4.737   8.242  10.996 -0.5277  0.2849 -0.8449
54318SOL    HW169559   4.711   8.151  10.990  0.2654  0.1179 -2.0697
54318SOL    HW269560   4.833   8.240  10.994 -0.4094  1.0302  1.1389
54319SOL     OW69561  10.299   4.177  12.399 -0.8519 -0.5654  0.5028
54319SOL    HW169562  10.286   4.104  12.459 -0.4593 -0.8993  0.1921
54319SOL    HW269563  10.308   4.136  12.313  0.1266 -0.2101  0.4220
54320SOL     OW69564   2.302   7.768   3.155  0.4337  0.2739  0.0159
54320SOL    HW169565   2.325   7.849   3.201  0.8214 -0.1922  0.6539
54320SOL    HW269566   2.264   7.712   3.223 -0.0734  0.0172 -0.4746
54321SOL     OW69567   4.841   4.922   7.445  0.0659 -0.0279  0.3544
54321SOL    HW169568   4.903   4.854   7.471  0.0769 -0.5270 -0.9053
54321SOL    HW269569   4.894   4.987   7.400 -0.1401  0.1399  0.3539
54322SOL     OW69570   5.596   9.115   9.521 -1.0692 -1.2096 -0.6102
54322SOL    HW169571   5.555   9.117   9.607  0.8816  0.5991  0.3702
54322SOL    HW269572   5.579   9.202   9.484 -0.0452 -1.2053 -1.1124
54323SOL     OW69573   0.528   3.404   9.676 -0.0489  0.2867  0.8795
54323SOL    HW169574   0.577   3.341   9.623 -0.8346  0.8756 -0.6092
54323SOL    HW269575   0.490   3.352   9.746  0.3175 -0.6860  0.3791
54324SOL     OW69576   9.924   1.455   2.377  0.3882  0.1247  0.5333
54324SOL    HW169577   9.908   1.523   2.310  1.5179  0.0933  0.2191
54324SOL    HW269578   9.869   1.481   2.451 -0.4469  0.4787 -0.1919
54325SOL     OW69579  10.784   3.696   5.492  0.1880 -0.0919  0.0315
54325SOL    HW169580  10.835   3.764   5.449  0.3236 -0.3429 -0.2073
54325SOL    HW269581  10.728   3.660   5.423 -0.2283  0.1008  0.2645
54326SOL     OW69582   7.134  10.231   8.125 -0.4306  0.0413  0.5704
54326SOL    HW169583   7.055  10.210   8.175 -0.8978  1.6811  0.5851
54326SOL    HW269584   7.111  10.210   8.034 -1.5211  1.9572  0.3318
54327SOL     OW69585  11.526   5.706   3.802 -0.3182 -0.5138 -0.4338
54327SOL    HW169586  11.523   5.736   3.893 -1.4966 -0.7732 -0.3615
54327SOL    HW269587  11.611   5.664   3.793 -0.3622 -0.8846  0.6916
54328SOL     OW69588  10.909   1.379   6.329 -0.0292 -0.1532  0.2923
54328SOL    HW169589  10.946   1.466   6.314 -1.4736  0.3279 -0.6818
54328SOL    HW269590  10.897   1.343   6.242 -0.9306 -0.6780  0.6189
54329SOL     OW69591   5.752   1.390   3.620  0.1112  0.3656 -0.1965
54329SOL    HW169592   5.697   1.441   3.679  0.8371  0.0739  0.7623
54329SOL    HW269593   5.841   1.405   3.651  0.5186  0.3355 -1.3339
54330SOL     OW69594  11.386   4.302   1.881 -0.1374 -0.0044  0.3996
54330SOL    HW169595  11.305   4.324   1.835 -0.7071 -1.3747  0.6828
54330SOL    HW269596  11.429   4.238   1.825  0.3697  0.1420  0.6158
54331SOL     OW69597   9.297   0.906   9.337  0.7032  0.3386  0.3447
54331SOL    HW169598   9.312   0.822   9.293  0.8408 -0.7879  2.4577
54331SOL    HW269599   9.379   0.925   9.382 -0.3006 -0.0149  2.4373
54332SOL     OW69600   1.127   9.064   7.221 -0.6102 -0.1355  0.1449
54332SOL    HW169601   1.136   9.025   7.308 -0.6887  0.3555  0.3761
54332SOL    HW269602   1.216   9.086   7.195 -0.2688 -2.5983 -0.9990
54333SOL     OW69603  10.434  12.023  10.464 -0.5507 -0.7775 -0.3437
54333SOL    HW169604  10.528  12.040  10.471 -0.8251  0.2498  1.4437
54333SOL    HW269605  10.395  12.109  10.448 -1.1682 -1.2703 -1.6207
54334SOL     OW69606   9.354  12.439   3.601  0.0201  0.3096 -0.1180
54334SOL    HW169607   9.405  12.464   3.678  0.7763 -0.5419 -0.3212
54334SOL    HW269608   9.318  12.521   3.568 -0.1050  0.7141  0.9960
54335SOL     OW69609   9.253   0.552   5.125 -0.3533 -0.1181  0.2146
54335SOL    HW169610   9.198   0.615   5.171 -0.8744 -0.2854 -0.1610
54335SOL    HW269611   9.262   0.479   5.185  0.1911  0.2780  0.6231
54336SOL     OW69612   1.616   6.491  10.767 -0.7552 -0.0257 -0.1225
54336SOL    HW169613   1.552   6.555  10.800 -1.1359  0.5683 -1.8879
54336SOL    HW269614   1.696   6.542  10.755 -0.7401 -0.1321 -0.4874
54337SOL     OW69615   3.718   6.664   5.915  0.1792  0.1054 -0.4294
54337SOL    HW169616   3.698   6.576   5.947  0.8417  0.1185  0.0457
54337SOL    HW269617   3.791   6.652   5.854 -0.3650  0.2141 -1.1135
54338SOL     OW69618  10.473   1.113   4.285  0.1310  0.2410 -0.6849
54338SOL    HW169619  10.521   1.040   4.247 -1.3489 -0.6196 -0.9884
54338SOL    HW269620  10.383   1.081   4.294 -0.2303  1.4902  0.6435
54339SOL     OW69621   3.000   4.144   9.149  0.3332  0.3738  0.2185
54339SOL    HW169622   2.912   4.152   9.114  0.0898  1.2668  1.0242
54339SOL    HW269623   3.024   4.232   9.177  2.2616  0.5917 -1.8165
54340SOL     OW69624   6.540   0.117   1.705  0.3055  0.0734 -0.4008
54340SOL    HW169625   6.592   0.052   1.657 -0.2750 -0.7440  0.0582
54340SOL    HW269626   6.520   0.185   1.640 -0.0547 -0.7771 -1.2006
54341SOL     OW69627   6.844  10.611   4.196  0.1440 -0.0799 -0.7829
54341SOL    HW169628   6.836  10.594   4.102  1.5201  1.5955 -1.2541
54341SOL    HW269629   6.936  10.636   4.208  0.2106 -1.0861  1.1717
54342SOL     OW69630   7.426  10.931  11.987  0.0545  0.2287 -0.3336
54342SOL    HW169631   7.458  10.917  12.076 -1.0547  2.8515  0.5946
54342SOL    HW269632   7.450  10.852  11.939  1.9850 -0.6392  1.9102
54343SOL     OW69633   2.933   4.702  11.580  0.2560  0.0546 -0.7483
54343SOL    HW169634   2.941   4.698  11.675 -1.8985 -1.2360 -0.5377
54343SOL    HW269635   2.906   4.792  11.562  1.0483  0.4100 -0.1944
54344SOL     OW69636  11.678   9.293   4.680 -0.1699 -0.5736 -0.0356
54344SOL    HW169637  11.753   9.318   4.734  0.0175 -1.2587  0.0293
54344SOL    HW269638  11.611   9.265   4.743 -0.3107 -0.4135 -0.1139
54345SOL     OW69639   2.355   2.203   7.560 -0.1142  1.1972  0.6638
54345SOL    HW169640   2.420   2.227   7.494  0.4958  1.2454  1.2633
54345SOL    HW269641   2.356   2.276   7.622 -0.4082  0.9822  0.9246
54346SOL     OW69642   8.312   2.582  10.359  0.0995  0.1202  0.0068
54346SOL    HW169643   8.225   2.623  10.354 -0.9516 -1.6870  1.9187
54346SOL    HW269644   8.334   2.586  10.452  0.6806 -2.1210  0.0063
54347SOL     OW69645   5.531  10.770   8.846  0.3445 -0.0972  0.4116
54347SOL    HW169646   5.562  10.854   8.813 -1.3604  0.2437 -0.4499
54347SOL    HW269647   5.502  10.789   8.936 -2.3188  0.9081 -0.5562
54348SOL     OW69648   7.741   7.539  12.370  0.4058 -0.6351 -0.3357
54348SOL    HW169649   7.719   7.523  12.279 -0.6371 -1.3887  0.0297
54348SOL    HW269650   7.698   7.468  12.418 -0.0781  0.4339  0.8612
54349SOL     OW69651  10.218   3.221   1.781  0.1847  0.5118 -0.5107
54349SOL    HW169652  10.286   3.249   1.843  0.2904 -1.0024  0.0887
54349SOL    HW269653  10.265   3.213   1.698  0.0760  2.3841 -0.8093
54350SOL     OW69654   2.125   0.568   0.725  0.7062  0.2000 -0.2660
54350SOL    HW169655   2.157   0.631   0.661  1.4463 -0.4050 -0.5092
54350SOL    HW269656   2.031   0.583   0.730  0.9192  1.5299 -0.0807
54351SOL     OW69657   0.503   1.197   2.676  0.3296 -0.1461 -0.3112
54351SOL    HW169658   0.598   1.202   2.679  0.2533  2.2732  0.1404
54351SOL    HW269659   0.481   1.121   2.730  2.0081 -1.0401 -0.8389
54352SOL     OW69660   8.078   5.485   1.856  0.5811  0.1978 -0.1326
54352SOL    HW169661   8.080   5.470   1.950  0.4743  2.3910  0.2903
54352SOL    HW269662   7.989   5.459   1.830  0.8178 -1.0284  0.2228
54353SOL     OW69663   0.394  12.268   4.710  0.3565 -0.1485 -0.5619
54353SOL    HW169664   0.309  12.231   4.685 -0.8722  2.2318 -0.2043
54353SOL    HW269665   0.380  12.304   4.797  0.7011  3.1667 -1.7568
54354SOL     OW69666   9.064   9.629   8.891 -0.3943  0.4217  0.0894
54354SOL    HW169667   8.997   9.604   8.954  0.4841 -0.3080  0.7665
54354SOL    HW269668   9.064   9.558   8.826  0.1710  0.0714  0.4627
54355SOL     OW69669   0.994   6.354   3.329 -0.0287 -0.3952 -0.2765
54355SOL    HW169670   1.053   6.323   3.398 -0.5412 -0.7925 -0.0094
54355SOL    HW269671   1.048   6.354   3.250  0.6555  0.3793  0.1783
54356SOL     OW69672   0.403  10.646   9.769 -0.5396 -0.1694  0.0929
54356SOL    HW169673   0.365  10.734   9.764  0.0825  0.1282  0.5422
54356SOL    HW269674   0.484  10.652   9.718 -0.2348 -0.3420  0.5554
54357SOL     OW69675   9.942   6.585  10.788  0.6454  0.1039 -0.2608
54357SOL    HW169676  10.017   6.585  10.728  1.5569 -2.8945  0.6880
54357SOL    HW269677   9.903   6.499  10.778 -1.1845  0.6999  1.1058
54358SOL     OW69678  12.004   9.682   8.790  0.3270  0.2097 -0.0653
54358SOL    HW169679  12.012   9.650   8.880 -0.1286  1.4021  0.4184
54358SOL    HW269680  11.950   9.761   8.797  0.5344  0.4919 -1.3477
54359SOL     OW69681   5.702  12.118  11.817  0.3089 -0.2684  0.9764
54359SOL    HW169682   5.786  12.163  11.832  1.9322 -2.6461 -0.2456
54359SOL    HW269683   5.696  12.055  11.890 -0.3136 -0.2533  0.9403
54360SOL     OW69684  10.514  10.238   8.741 -0.0301 -0.3907  0.2682
54360SOL    HW169685  10.523  10.323   8.697 -1.4720 -0.7302 -0.7392
54360SOL    HW269686  10.502  10.175   8.670  0.2485 -1.3466  1.0400
54361SOL     OW69687  12.568   7.758  10.479  0.0039 -0.1305  0.7709
54361SOL    HW169688  12.556   7.779  10.571 -0.3894 -0.9345  0.9043
54361SOL    HW269689  12.506   7.687  10.461 -1.8625  1.7560 -0.7654
54362SOL     OW69690   9.634   6.912  11.328 -0.2049 -0.2941  0.1600
54362SOL    HW169691   9.607   6.904  11.236  1.7379 -1.4997 -0.3498
54362SOL    HW269692   9.711   6.969  11.325 -0.0012 -0.5154  1.0311
54363SOL     OW69693   0.467   1.071  11.753 -0.2081  0.4415  0.0166
54363SOL    HW169694   0.547   1.121  11.763  1.5219 -2.4648  2.1296
54363SOL    HW269695   0.446   1.041  11.841 -2.3726 -0.7600 -0.8249
54364SOL     OW69696  12.622  12.022   8.690  0.2797 -0.1721  0.5762
54364SOL    HW169697  12.638  12.057   8.602 -1.6495  0.4039  0.3903
54364SOL    HW269698  12.685  11.951   8.700  0.4429 -0.3510 -1.3367
54365SOL     OW69699  11.647   9.213   2.498 -0.6905 -0.5336 -0.1102
54365SOL    HW169700  11.696   9.198   2.578  1.1818  1.0099 -0.8851
54365SOL    HW269701  11.584   9.282   2.520 -1.0617 -1.0152  0.3436
54366SOL     OW69702   1.402   1.675   3.090 -0.1941 -0.0335  0.0992
54366SOL    HW169703   1.351   1.625   3.153 -0.4478  0.1413  0.0338
54366SOL    HW269704   1.379   1.766   3.107 -0.9644 -0.0366 -0.8456
54367SOL     OW69705   1.261   5.529   1.045  0.1730  0.2234 -0.1813
54367SOL    HW169706   1.229   5.588   1.114  0.3341  0.2667 -0.1424
54367SOL    HW269707   1.355   5.545   1.042  0.9343 -2.8062  2.5249
54368SOL     OW69708   5.707   9.789   0.149  0.2409 -0.2101  0.3237
54368SOL    HW169709   5.689   9.875   0.112 -1.6742 -1.0911 -0.9950
54368SOL    HW269710   5.790   9.762   0.109 -0.6451 -0.1772 -1.6656
54369SOL     OW69711   4.243   2.747   4.114 -0.3287  0.0451  0.1233
54369SOL    HW169712   4.327   2.758   4.071 -0.2475 -1.5616 -0.2215
54369SOL    HW269713   4.265   2.708   4.199 -0.7189 -0.7404 -0.1224
54370SOL     OW69714   2.525  12.763   2.366  0.2764 -0.7747  0.1542
54370SOL    HW169715   2.522  12.667   2.364  1.7578 -0.8432  0.1567
54370SOL    HW269716   2.459  12.790   2.302 -0.4891 -1.7749  0.4926
54371SOL     OW69717   8.595  11.622   6.976 -0.3862  0.5425  0.5674
54371SOL    HW169718   8.622  11.635   7.067 -0.7968  0.2387  0.7346
54371SOL    HW269719   8.637  11.540   6.950 -1.1826  0.0374  0.8477
54372SOL     OW69720   7.004   9.421   9.784 -0.4684 -0.6846  0.4958
54372SOL    HW169721   7.029   9.380   9.701 -1.4294 -2.1156  0.8777
54372SOL    HW269722   6.917   9.386   9.804 -0.2678 -0.3807  2.0963
54373SOL     OW69723   3.762   0.135   4.376  0.6110 -0.6861  0.7256
54373SOL    HW169724   3.763   0.051   4.329  0.8825 -0.3531  0.1254
54373SOL    HW269725   3.803   0.116   4.460  1.0202 -1.0749  0.4427
54374SOL     OW69726  11.714   3.049  10.046  0.3194 -0.2430 -0.2440
54374SOL    HW169727  11.751   3.042   9.958 -0.2930 -0.8684 -0.4594
54374SOL    HW269728  11.632   3.001  10.042  1.2556 -2.1314  1.2175
54375SOL     OW69729   1.473   2.674   5.656  0.0477  0.3050 -0.3480
54375SOL    HW169730   1.556   2.716   5.679  0.1131 -1.0927  2.5007
54375SOL    HW269731   1.462   2.605   5.723 -2.8133 -0.3548 -1.3460
54376SOL     OW69732   1.236  12.353   3.461 -0.1328  0.2475  0.7443
54376SOL    HW169733   1.213  12.432   3.413  1.6536  0.7067  0.5562
54376SOL    HW269734   1.320  12.326   3.424 -0.9274 -2.0519  0.4469
54377SOL     OW69735   4.891   3.992  11.057  0.6555  0.1572  0.0767
54377SOL    HW169736   4.889   3.956  11.146 -0.3961 -2.1790 -0.8209
54377SOL    HW269737   4.820   4.056  11.055  1.6828  1.4307  1.3024
54378SOL     OW69738   4.521  10.772   7.387  0.3525  0.0548  0.7979
54378SOL    HW169739   4.504  10.861   7.357  1.8415 -0.1862 -0.9378
54378SOL    HW269740   4.495  10.717   7.313  0.6333 -0.8656  1.3707
54379SOL     OW69741   1.819   1.597   7.716  0.3365  0.2126  0.5892
54379SOL    HW169742   1.865   1.645   7.646  0.5826  1.1198  1.3599
54379SOL    HW269743   1.841   1.505   7.700 -0.5114  0.2704 -1.1854
54380SOL     OW69744   6.600   6.047   5.107  0.2460 -0.0233 -0.0764
54380SOL    HW169745   6.648   6.084   5.181 -0.3560 -0.0305  0.3235
54380SOL    HW269746   6.616   5.953   5.112 -0.6760 -0.1495  0.6959
54381SOL     OW69747   0.623   8.630  12.110  0.0342 -0.1984  0.2498
54381SOL    HW169748   0.623   8.534  12.106  0.1539 -0.2312  0.8882
54381SOL    HW269749   0.711   8.652  12.141  0.4789  0.1948 -1.2186
54382SOL     OW69750   9.758   3.658   7.555 -0.1982 -0.0968 -0.1287
54382SOL    HW169751   9.780   3.611   7.475 -2.2450 -0.1244 -0.7469
54382SOL    HW269752   9.828   3.722   7.566  1.3974 -1.6838 -0.5704
54383SOL     OW69753   0.082  11.668   3.217  0.0254 -0.1357 -0.8701
54383SOL    HW169754   0.161  11.680   3.269  0.1100 -0.0137 -1.0272
54383SOL    HW269755   0.110  11.677   3.126  0.2698 -2.4591 -1.0720
54384SOL     OW69756   5.447   3.206   4.159  0.5663  0.6451  0.3481
54384SOL    HW169757   5.509   3.136   4.137  1.4242  1.3252  0.5428
54384SOL    HW269758   5.366   3.161   4.181  0.5697 -0.2118 -1.2291
54385SOL     OW69759   0.402   7.132   2.084  0.0686 -0.8607  0.1400
54385SOL    HW169760   0.341   7.132   2.157  0.8591 -2.4240  0.8437
54385SOL    HW269761   0.347   7.128   2.006 -0.7564 -0.2845  0.6721
54386SOL     OW69762  12.711   1.299   1.891  0.4395  0.2316 -0.0828
54386SOL    HW169763  12.689   1.207   1.903 -1.2157  0.7173  0.8328
54386SOL    HW269764  12.803   1.298   1.864  0.6417 -1.6333  0.5417
54387SOL     OW69765   6.494   1.706  10.905 -0.1448 -0.6636  0.1012
54387SOL    HW169766   6.426   1.697  10.839 -1.1157  2.3487  0.5127
54387SOL    HW269767   6.447   1.703  10.988  0.6459 -1.4111  0.5329
54388SOL     OW69768   0.327   9.811   3.753  0.3094 -0.6203  0.2495
54388SOL    HW169769   0.303   9.820   3.845 -2.8769  0.4104 -0.5649
54388SOL    HW269770   0.267   9.868   3.706  2.2493 -0.5975 -2.4830
54389SOL     OW69771  10.253   3.127  12.011 -0.3141  0.6592  0.8278
54389SOL    HW169772  10.186   3.061  12.028 -0.0787  0.3590  0.5981
54389SOL    HW269773  10.319   3.112  12.078 -0.4093  0.8618  0.9656
54390SOL     OW69774   3.199   3.563   3.249  0.3323 -0.3578  0.4901
54390SOL    HW169775   3.105   3.579   3.237  0.5167  1.0667  0.7515
54390SOL    HW269776   3.226   3.627   3.315  1.7974  0.4238 -0.7997
54391SOL     OW69777  10.159   9.825   3.098  0.2205  0.2231  0.5744
54391SOL    HW169778  10.244   9.783   3.089  0.6043  0.8701  1.0964
54391SOL    HW269779  10.155   9.889   3.027 -0.0274 -0.1199  0.2735
54392SOL     OW69780   9.523   8.237   5.451  0.5517 -0.8165  0.4182
54392SOL    HW169781   9.522   8.332   5.440  3.4890 -0.4854  2.0793
54392SOL    HW269782   9.499   8.203   5.364  1.1699  1.4376 -0.7161
54393SOL     OW69783   5.239   9.547   1.016 -0.0108  0.6502 -0.0258
54393SOL    HW169784   5.303   9.502   0.961  0.4295  0.2550  0.7973
54393SOL    HW269785   5.177   9.586   0.954 -0.8541 -1.7150 -0.7470
54394SOL     OW69786   3.926   9.229   9.714 -0.6197  0.0887 -0.2724
54394SOL    HW169787   3.978   9.150   9.729  0.8153  1.1158  0.4030
54394SOL    HW269788   3.976   9.299   9.755 -3.5027  0.9173  2.1838
54395SOL     OW69789   1.828   2.263   4.796  0.3675 -0.3439 -0.2043
54395SOL    HW169790   1.827   2.356   4.773 -1.4769 -0.4962 -0.9268
54395SOL    HW269791   1.737   2.244   4.819  0.7353 -1.9694  0.0047
54396SOL     OW69792   1.144  10.084   8.828  0.2171  0.3379  0.6546
54396SOL    HW169793   1.142  10.039   8.744 -1.2624  0.5058  0.5590
54396SOL    HW269794   1.214  10.042   8.877 -2.2606 -3.5668  1.3164
54397SOL     OW69795   0.091   5.314   9.397  0.4179  0.2487  0.2551
54397SOL    HW169796   0.020   5.261   9.360  0.8578  0.6564 -1.2741
54397SOL    HW269797   0.047   5.389   9.437 -0.0684  0.1164 -0.0232
54398SOL     OW69798  11.842   4.556   4.411  0.4045 -0.5066 -0.4820
54398SOL    HW169799  11.912   4.510   4.458  0.7397 -0.6450 -1.1031
54398SOL    HW269800  11.860   4.537   4.319 -2.6229 -3.8008 -0.6053
54399SOL     OW69801  10.312   7.777   8.155  0.2301 -0.6755  0.5408
54399SOL    HW169802  10.386   7.834   8.178  1.0512 -0.9974 -1.0692
54399SOL    HW269803  10.275   7.818   8.077 -0.3621 -1.3272  0.4778
54400SOL     OW69804   7.692   5.734   9.030 -0.1999  0.1718 -0.2146
54400SOL    HW169805   7.746   5.755   9.106 -0.3141  0.9775 -0.3435
54400SOL    HW269806   7.731   5.655   8.993  0.4882  0.3708  0.0755
54401SOL     OW69807   2.888   4.303  12.643  0.0171 -0.5448  0.2160
54401SOL    HW169808   2.973   4.272  12.673  0.6283  1.4400  0.6990
54401SOL    HW269809   2.834   4.308  12.723  0.3052  0.6840  0.3575
54402SOL     OW69810  10.425   9.574   8.987 -0.2070 -0.0806 -0.3190
54402SOL    HW169811  10.342   9.578   8.940 -0.7729 -0.7770  0.6011
54402SOL    HW269812  10.486   9.534   8.925 -0.4821  0.6425 -1.0767
54403SOL     OW69813  10.871  11.283   1.437 -0.2089  0.4520 -0.2199
54403SOL    HW169814  10.900  11.287   1.346  1.2364  1.4785  0.2622
54403SOL    HW269815  10.888  11.193   1.464  5.0733  1.4121  0.7515
54404SOL     OW69816   8.719   8.554  10.408  0.5095 -0.0033 -0.1810
54404SOL    HW169817   8.735   8.619  10.339  1.6780  0.3294  0.3757
54404SOL    HW269818   8.628   8.527  10.395 -0.3342  2.4161  0.1396
54405SOL     OW69819  10.507  10.600   3.120  0.2585  0.8928 -0.0440
54405SOL    HW169820  10.503  10.627   3.029  0.3215 -3.1100 -1.4331
54405SOL    HW269821  10.426  10.550   3.134  2.2223 -2.4833  0.4924
54406SOL     OW69822   3.714   2.766   9.815  0.2662  0.1189 -0.0708
54406SOL    HW169823   3.738   2.816   9.737 -0.1034 -0.1761 -0.3751
54406SOL    HW269824   3.740   2.677   9.795 -1.5171 -0.3131 -0.6143
54407SOL     OW69825   9.560   4.501  12.081  0.4968  0.2131 -0.3534
54407SOL    HW169826   9.597   4.427  12.129  0.3343 -0.5882 -1.4253
54407SOL    HW269827   9.470   4.475  12.062  0.8206  0.0881 -1.8771
54408SOL     OW69828   2.897   1.054   9.843  0.2249 -0.0929  0.0189
54408SOL    HW169829   2.941   0.981   9.889  0.0004  1.3043  2.6506
54408SOL    HW269830   2.804   1.032   9.848 -0.0040  1.1254  2.4388
54409SOL     OW69831   2.688   8.299   7.858  0.2871  0.2970 -0.1152
54409SOL    HW169832   2.607   8.328   7.900  1.2463  1.9714  0.6766
54409SOL    HW269833   2.716   8.223   7.908  0.4128  1.1376  1.1321
54410SOL     OW69834   3.460  12.374   6.329 -0.1487 -0.0824  0.2038
54410SOL    HW169835   3.396  12.366   6.399 -0.0788 -0.2751  0.2469
54410SOL    HW269836   3.541  12.340   6.366 -0.0013  0.2372  0.1754
54411SOL     OW69837   8.708   1.683   4.021  0.1785 -0.5629  0.0377
54411SOL    HW169838   8.729   1.691   4.114 -2.0094  2.0307  0.4214
54411SOL    HW269839   8.634   1.623   4.019 -0.0829 -0.2394  0.0201
54412SOL     OW69840   4.896  12.622   5.567  0.1089 -0.6249 -0.8044
54412SOL    HW169841   4.935  12.544   5.605  0.7663 -0.0768 -0.3407
54412SOL    HW269842   4.931  12.626   5.478  0.2078 -0.7605 -0.7710
54413SOL     OW69843  12.395   0.320   9.483 -0.1267 -0.2475  0.4872
54413SOL    HW169844  12.376   0.414   9.491  0.4747  0.1591 -1.9171
54413SOL    HW269845  12.459   0.303   9.552  0.4085  1.3192  0.4245
54414SOL     OW69846  12.254   9.351   4.604 -0.0926  0.4205 -0.1209
54414SOL    HW169847  12.173   9.367   4.555  0.0332 -0.5045 -0.6618
54414SOL    HW269848  12.284   9.437   4.632  0.3292  1.0759 -2.4487
54415SOL     OW69849  12.300  10.459  11.132  0.1084  0.2206 -0.5318
54415SOL    HW169850  12.355  10.521  11.084 -0.2548 -0.0192 -1.2615
54415SOL    HW269851  12.212  10.473  11.097 -0.0512 -0.3925 -0.3809
54416SOL     OW69852   9.379   1.553  10.363  0.1831 -0.0046  0.0522
54416SOL    HW169853   9.463   1.577  10.323  0.8297  0.3579  1.5674
54416SOL    HW269854   9.323   1.629  10.349 -0.3934 -0.7493 -2.1623
54417SOL     OW69855   6.296   0.691   2.171 -0.2742 -0.5916  0.1936
54417SOL    HW169856   6.213   0.738   2.180 -0.7804 -1.8324  4.2410
54417SOL    HW269857   6.360   0.759   2.151 -1.6364  1.1389  1.3501
54418SOL     OW69858   1.659   8.887  11.470  0.2457  0.0480 -0.0839
54418SOL    HW169859   1.700   8.864  11.387 -2.2995 -0.0527 -1.3950
54418SOL    HW269860   1.595   8.954  11.448 -1.3220 -0.8209  1.5469
54419SOL     OW69861   4.272   5.664   4.942  0.6456  0.1994  0.0801
54419SOL    HW169862   4.365   5.676   4.920  0.7537 -1.1232 -0.2328
54419SOL    HW269863   4.260   5.717   5.022  1.7138  0.2409  0.2314
54420SOL     OW69864  11.720   8.198   5.079 -0.0419 -0.5657 -0.2977
54420SOL    HW169865  11.790   8.239   5.129  0.6540 -0.9916 -0.8983
54420SOL    HW269866  11.669   8.271   5.044  0.0904 -0.2559  0.1543
54421SOL     OW69867  12.288  11.952   9.609  0.2846  0.4221 -0.1663
54421SOL    HW169868  12.355  11.886   9.590  1.3841  1.4613  0.0071
54421SOL    HW269869  12.327  12.035   9.582 -1.7854  0.8475 -2.1815
54422SOL     OW69870  11.711   1.442   9.273  0.0872 -0.3947 -0.0050
54422SOL    HW169871  11.655   1.448   9.350  1.0610 -0.7211  0.7504
54422SOL    HW269872  11.773   1.514   9.282  1.1696 -1.3366  0.3392
54423SOL     OW69873   5.851   7.987   3.574 -0.1099  0.0690 -0.2986
54423SOL    HW169874   5.851   7.930   3.497 -1.7030 -1.1368  0.5425
54423SOL    HW269875   5.938   7.977   3.612 -0.1460 -1.2868 -0.5486
54424SOL     OW69876   8.491   2.842   9.793 -0.1170 -0.6446 -0.8485
54424SOL    HW169877   8.581   2.858   9.822  0.6750  1.0526 -3.7583
54424SOL    HW269878   8.491   2.752   9.762  0.7823 -0.4669 -1.4017
54425SOL     OW69879   2.365  12.153   0.522 -0.5047  0.0769 -0.1972
54425SOL    HW169880   2.425  12.154   0.448 -0.0344 -0.3024  0.1675
54425SOL    HW269881   2.279  12.138   0.483 -0.0044 -2.4767 -0.5277
54426SOL     OW69882   9.897   7.990   1.607  0.3760  0.5805 -0.5267
54426SOL    HW169883   9.832   7.935   1.650 -0.9035  2.3979 -0.0424
54426SOL    HW269884   9.922   7.939   1.529 -1.8571 -0.0762 -0.9062
54427SOL     OW69885   1.747   4.839   7.693  0.1466 -0.3727 -0.0541
54427SOL    HW169886   1.826   4.890   7.710  0.0666  0.1121 -1.0482
54427SOL    HW269887   1.774   4.775   7.626 -0.0585 -0.8429  0.3058
54428SOL     OW69888   6.288   2.834  10.516 -0.4449 -0.6823  0.3898
54428SOL    HW169889   6.224   2.903  10.497  0.2151 -0.6626 -2.0947
54428SOL    HW269890   6.294   2.784  10.435  1.4363 -1.7297  1.1177
54429SOL     OW69891   1.906   4.621   5.872  0.3518  0.3065 -0.3674
54429SOL    HW169892   1.961   4.663   5.806 -1.4573  2.2175 -0.7716
54429SOL    HW269893   1.911   4.680   5.948 -0.7384  0.2901 -0.2601
54430SOL     OW69894   2.371   3.968   8.342  0.3466 -0.3478 -0.0473
54430SOL    HW169895   2.423   3.977   8.422 -0.3183 -0.1063  0.3695
54430SOL    HW269896   2.345   3.875   8.341  0.9545 -0.5143 -0.3640
54431SOL     OW69897  11.359   4.023   2.022 -0.2147  0.8421 -0.8595
54431SOL    HW169898  11.344   4.068   1.939 -0.8070  0.1869 -1.1214
54431SOL    HW269899  11.447   3.986   2.015  0.8702  3.0889 -0.0895
54432SOL     OW69900  10.742   0.867   4.139 -0.3000  0.0619 -0.0045
54432SOL    HW169901  10.743   0.897   4.048 -0.4798  2.0568  0.6084
54432SOL    HW269902  10.823   0.816   4.148  0.3206  0.8476 -0.9614
54433SOL     OW69903  12.642  11.700   2.544  0.3862  0.3092  0.1188
54433SOL    HW169904  12.636  11.609   2.573 -0.4296  0.8373  1.7732
54433SOL    HW269905  12.632  11.696   2.449  2.0241 -1.4501 -0.0323
54434SOL     OW69906   3.388   8.258   5.350  0.4919 -0.4463  0.1745
54434SOL    HW169907   3.464   8.296   5.307  0.3043  0.1881  0.3865
54434SOL    HW269908   3.421   8.230   5.436  1.0885 -2.5736 -0.6858
54435SOL     OW69909   5.351   3.678  11.270 -0.4333  0.2333 -0.2161
54435SOL    HW169910   5.354   3.611  11.202  0.1468  1.9072 -1.9274
54435SOL    HW269911   5.421   3.654  11.331  1.3319  0.5265 -2.0437
54436SOL     OW69912   3.167   7.366   6.867 -0.2502  0.4047 -0.6251
54436SOL    HW169913   3.262   7.357   6.871 -0.2853 -0.2531 -1.0252
54436SOL    HW269914   3.144   7.420   6.942  0.5320  1.3896 -1.0870
54437SOL     OW69915  11.847   4.754   3.537  0.1319  0.1066 -0.2739
54437SOL    HW169916  11.787   4.740   3.465  0.3335  0.4059 -0.5042
54437SOL    HW269917  11.792   4.781   3.610 -0.2140 -1.4422  0.0602
54438SOL     OW69918  11.181  10.969   3.992  0.1293 -0.3810  0.1112
54438SOL    HW169919  11.203  11.054   3.955 -0.0479  0.0407  0.9655
54438SOL    HW269920  11.240  10.958   4.066 -0.6372 -0.4843  0.7150
54439SOL     OW69921   9.777   2.610   3.551 -0.2412 -0.3818  0.2086
54439SOL    HW169922   9.725   2.672   3.603  1.8236 -0.6397  2.8024
54439SOL    HW269923   9.747   2.524   3.580 -0.0363 -0.5522 -0.0811
54440SOL     OW69924   9.966  10.523   2.671  0.2192 -0.1081  0.4792
54440SOL    HW169925  10.028  10.574   2.724 -1.3572  0.5022  1.7994
54440SOL    HW269926  10.022  10.469   2.616  1.9513 -0.2044  2.2104
54441SOL     OW69927   3.453   2.660   9.808 -0.2743  0.3465 -0.2879
54441SOL    HW169928   3.530   2.713   9.788 -0.0858  1.2458  2.4449
54441SOL    HW269929   3.488   2.582   9.853 -0.7373 -1.1403 -2.3362
54442SOL     OW69930   4.071  11.477   4.371 -0.2298 -0.1210 -0.8585
54442SOL    HW169931   4.092  11.389   4.339 -0.2137 -0.7006  0.6495
54442SOL    HW269932   4.146  11.501   4.425 -1.3534 -0.2715  0.8268
54443SOL     OW69933   8.493   6.939   9.427 -0.7448  0.1295  0.5163
54443SOL    HW169934   8.559   6.916   9.492  0.2754 -0.3068 -0.6216
54443SOL    HW269935   8.410   6.924   9.470 -0.1188 -2.4275  0.9864
54444SOL     OW69936   5.531  10.357  11.450 -0.1943 -0.0985 -0.1429
54444SOL    HW169937   5.489  10.403  11.522 -1.2505 -0.8135 -0.2762
54444SOL    HW269938   5.508  10.408  11.372 -0.3945 -0.2026 -0.1541
54445SOL     OW69939   1.673   5.486   9.065  0.6630 -1.2380 -0.0858
54445SOL    HW169940   1.687   5.435   8.986 -2.3786 -2.7121  0.1823
54445SOL    HW269941   1.647   5.422   9.131  1.4879  0.1449  1.6766
54446SOL     OW69942   5.906  11.798   7.784 -0.0476  0.4025  0.6244
54446SOL    HW169943   5.904  11.850   7.704 -0.0628 -2.3239 -1.2788
54446SOL    HW269944   5.850  11.723   7.766  0.8956 -0.9118  2.7549
54447SOL     OW69945   6.725   9.409   6.240  0.1765 -0.3437 -0.1346
54447SOL    HW169946   6.729   9.485   6.181 -0.1010 -0.9792 -0.9771
54447SOL    HW269947   6.697   9.446   6.324  0.5195  0.5622 -0.4027
54448SOL     OW69948   6.095  12.111  11.649 -0.5098 -0.5913 -0.7737
54448SOL    HW169949   6.061  12.165  11.577 -0.8294  0.3775  0.0750
54448SOL    HW269950   6.062  12.154  11.728  2.1079 -0.0102  0.0824
54449SOL     OW69951   1.420   3.243   9.041 -0.5015 -0.2865  0.0512
54449SOL    HW169952   1.511   3.273   9.047 -0.5771  0.0901 -0.6008
54449SOL    HW269953   1.396   3.222   9.131 -0.1031  0.5960  0.3756
54450SOL     OW69954   4.511   1.220   0.925 -0.0382  0.1131 -0.2851
54450SOL    HW169955   4.554   1.165   0.859  0.9494  0.8471 -0.2806
54450SOL    HW269956   4.582   1.271   0.963 -1.0218  1.8619 -0.7263
54451SOL     OW69957   9.926  11.771  10.781  0.2456  0.3719  0.1011
54451SOL    HW169958   9.849  11.740  10.732  1.1389  1.2077 -1.9405
54451SOL    HW269959   9.985  11.696  10.783 -0.2242  0.0030  0.9038
54452SOL     OW69960   8.192   2.015  10.391  0.5121  0.0465  0.7869
54452SOL    HW169961   8.109   2.063  10.395  0.3743  0.1720 -1.7643
54452SOL    HW269962   8.167   1.923  10.389  0.4996  0.0440  1.0271
54453SOL     OW69963   3.463   8.334  11.528  0.4811 -0.6764  0.3684
54453SOL    HW169964   3.437   8.405  11.587 -0.5674 -0.2841 -0.5249
54453SOL    HW269965   3.427   8.255  11.567  2.1632 -0.8435  1.6885
54454SOL     OW69966   0.857  12.166  10.382 -0.2566  0.6494  0.0758
54454SOL    HW169967   0.898  12.174  10.295  0.4370  0.9356  0.4210
54454SOL    HW269968   0.905  12.095  10.424 -0.1075  0.9939  0.4883
54455SOL     OW69969   3.986   4.012   0.766 -0.2790  0.3650  0.2285
54455SOL    HW169970   4.061   4.071   0.773 -0.9462  1.0792  2.5163
54455SOL    HW269971   3.909   4.070   0.772 -1.0934 -0.3058 -2.4096
54456SOL     OW69972   2.024   6.655   4.466 -0.1311  0.3906 -0.5987
54456SOL    HW169973   2.108   6.690   4.436  1.0046 -0.8543  0.9399
54456SOL    HW269974   1.979   6.628   4.385  1.1399  0.6614 -1.4239
54457SOL     OW69975   6.572   4.421   3.675  0.3219 -0.4814  0.5708
54457SOL    HW169976   6.481   4.443   3.694 -0.0801 -0.7715 -0.8639
54457SOL    HW269977   6.620   4.502   3.691  0.0877 -0.7240  2.8360
54458SOL     OW69978  12.513   4.834   4.923  0.3759  0.1606 -0.0129
54458SOL    HW169979  12.530   4.783   5.003 -1.9989  2.7229  2.3404
54458SOL    HW269980  12.599   4.872   4.901  1.0593 -0.4190  1.4844
54459SOL     OW69981   4.876   5.369  11.064  0.8136 -0.6604 -0.2441
54459SOL    HW169982   4.951   5.309  11.061  0.5293 -1.1242  1.0285
54459SOL    HW269983   4.890   5.420  11.144 -0.5394 -1.2077  0.3677
54460SOL     OW69984   6.972   8.104   0.896 -0.2442  0.4497  0.6207
54460SOL    HW169985   7.013   8.046   0.831  0.0808  1.3705 -0.0271
54460SOL    HW269986   7.045   8.132   0.952 -0.6028 -0.7426  1.7394
54461SOL     OW69987  11.355  12.369  10.520 -0.1832  0.1971 -0.4427
54461SOL    HW169988  11.384  12.285  10.484  1.1416  0.7642 -0.7725
54461SOL    HW269989  11.397  12.435  10.464 -1.9367  1.0961 -0.7736
54462SOL     OW69990   1.657   3.512   6.506 -0.6413 -0.2812 -0.8596
54462SOL    HW169991   1.751   3.511   6.490 -0.5938 -1.2541 -0.5478
54462SOL    HW269992   1.648   3.553   6.592 -0.3143 -2.2643  0.1653
54463SOL     OW69993  10.812   6.329   3.728 -0.8183  0.3139  0.2575
54463SOL    HW169994  10.833   6.415   3.765 -0.5953  0.3661  0.0151
54463SOL    HW269995  10.877   6.270   3.767  0.8257  0.7446 -1.6692
54464SOL     OW69996   6.349   6.145  10.725 -0.2126 -0.1021  0.0699
54464SOL    HW169997   6.288   6.162  10.653  0.2554  0.7001 -0.1533
54464SOL    HW269998   6.409   6.078  10.691  0.3119  0.6323 -0.4783
54465SOL     OW69999  10.839   0.386  11.354  0.6730  0.3003  0.3591
54465SOL    HW170000  10.778   0.429  11.413  1.3178  2.9578 -0.7765
54465SOL    HW270001  10.789   0.314  11.315 -0.7562  0.5663  1.6340
54466SOL     OW70002   3.917   8.686   0.360  0.3021  0.3919 -0.2224
54466SOL    HW170003   3.993   8.645   0.401 -0.4524 -0.4020  0.4462
54466SOL    HW270004   3.842   8.647   0.405 -0.5292  0.4772 -1.4801
54467SOL     OW70005   4.412   0.818   0.663  0.2640  0.2762  0.0675
54467SOL    HW170006   4.364   0.805   0.582  0.2515 -0.3475  0.1687
54467SOL    HW270007   4.351   0.791   0.732  0.5539  0.0343  0.2341
54468SOL     OW70008   2.010   0.648   8.784  0.1170 -0.1718 -0.6985
54468SOL    HW170009   2.058   0.602   8.716  0.4165 -0.5591 -0.2269
54468SOL    HW270010   2.050   0.735   8.788 -0.7796  0.3406 -1.9436
54469SOL     OW70011   6.743   9.245   5.936  0.3062 -0.1610  0.4795
54469SOL    HW170012   6.836   9.245   5.957  0.2496 -1.6888  0.8460
54469SOL    HW270013   6.730   9.165   5.886 -0.5310  0.8328 -0.9860
54470SOL     OW70014  11.242  10.187   4.524 -0.1758 -0.2913 -0.1436
54470SOL    HW170015  11.220  10.202   4.616 -2.8034 -1.5350 -0.4892
54470SOL    HW270016  11.250  10.092   4.516 -1.2440 -0.3008 -1.4220
54471SOL     OW70017   8.971   4.034  11.460  0.4816 -0.2227 -0.2064
54471SOL    HW170018   8.895   4.050  11.515  0.8963 -0.2930  0.4024
54471SOL    HW270019   9.001   4.121  11.434  2.2638  0.0802  2.4502
54472SOL     OW70020   1.671   9.986   8.567  0.1169 -0.1586  0.1245
54472SOL    HW170021   1.621  10.052   8.519 -2.0728 -0.7927  1.3781
54472SOL    HW270022   1.740  10.035   8.611 -1.4276  1.3396  0.9956
54473SOL     OW70023   1.336  10.674   7.509  0.1180 -0.3382  0.0552
54473SOL    HW170024   1.339  10.741   7.578 -1.2434  0.1206 -0.2976
54473SOL    HW270025   1.428  10.652   7.494  0.5130  0.4223  1.1764
54474SOL     OW70026   5.197   1.830   1.673  0.2042  0.6435 -0.0224
54474SOL    HW170027   5.242   1.765   1.727  0.3901  0.3958 -0.4721
54474SOL    HW270028   5.116   1.788   1.646  0.9317  0.0856 -1.4142
54475SOL     OW70029   2.453   9.281   7.416 -0.1277 -0.1957 -0.1508
54475SOL    HW170030   2.450   9.264   7.322  0.7322  0.3411 -0.2876
54475SOL    HW270031   2.473   9.196   7.456 -0.2820 -0.3809 -0.4641
54476SOL     OW70032   9.785  12.426   1.136 -0.3855  0.1040 -0.1952
54476SOL    HW170033   9.790  12.435   1.231  2.1180 -1.1411 -0.1446
54476SOL    HW270034   9.714  12.485   1.110 -2.8982 -1.3677  2.6503
54477SOL     OW70035   6.344   1.769   6.010 -0.6468 -0.0079 -0.1411
54477SOL    HW170036   6.394   1.840   5.970 -0.1162  0.7787  1.8270
54477SOL    HW270037   6.258   1.808   6.028 -0.7232 -0.1996 -0.0927
54478SOL     OW70038  11.528   7.413  12.133  0.0210  0.4074  0.1163
54478SOL    HW170039  11.484   7.416  12.218 -1.6713  0.3361 -0.7267
54478SOL    HW270040  11.504   7.495  12.090 -0.1559 -0.0986 -0.7771
54479SOL     OW70041  12.714  11.438   7.210  0.0022 -0.3123  0.8102
54479SOL    HW170042  12.628  11.403   7.230  0.1088 -0.4754  0.9978
54479SOL    HW270043  12.766  11.362   7.186  0.4191 -0.3942  1.8803
54480SOL     OW70044   5.022   6.626   7.366  0.5024 -0.4539  0.4045
54480SOL    HW170045   4.957   6.555   7.371  0.4906 -0.5452 -0.7710
54480SOL    HW270046   5.000   6.684   7.439  1.0414 -2.0886  1.9278
54481SOL     OW70047   9.416  11.711   8.849  0.1495  0.0743 -0.5352
54481SOL    HW170048   9.494  11.755   8.884 -0.9284  3.0636 -1.5691
54481SOL    HW270049   9.450  11.653   8.781  1.5541  0.4854 -0.2282
54482SOL     OW70050   7.060   9.650   6.985  0.2596  0.4782 -0.1108
54482SOL    HW170051   7.026   9.670   6.898  0.1167 -0.8399 -0.3838
54482SOL    HW270052   6.996   9.688   7.045  0.8603  2.2507 -0.5424
54483SOL     OW70053   4.086   1.852   3.341 -0.2594  0.1668 -0.1928
54483SOL    HW170054   4.136   1.772   3.355 -0.0555  0.0694 -1.3823
54483SOL    HW270055   4.152   1.922   3.339 -0.5532  0.6509  2.4883
54484SOL     OW70056   9.521   3.461   2.762  0.1070 -0.1628 -0.0889
54484SOL    HW170057   9.582   3.398   2.726  1.4600  0.3214  1.2218
54484SOL    HW270058   9.527   3.537   2.703  0.7501 -0.1443 -0.0122
54485SOL     OW70059   9.487   8.664   8.792  0.7361 -0.7899 -0.0996
54485SOL    HW170060   9.473   8.750   8.831  0.3058 -1.6874  1.8650
54485SOL    HW270061   9.418   8.657   8.725 -0.6324 -0.4221  1.2110
54486SOL     OW70062   6.160   5.299   4.840 -0.1950  0.1288  0.1514
54486SOL    HW170063   6.134   5.224   4.786 -0.5740 -0.8251  1.5949
54486SOL    HW270064   6.256   5.293   4.845 -0.0128  1.0746 -1.5601
54487SOL     OW70065   1.552   8.070   3.434  0.1913  0.0207  0.2697
54487SOL    HW170066   1.503   8.010   3.378  0.4563 -0.1906  0.2665
54487SOL    HW270067   1.578   8.141   3.375  1.6978 -0.8898 -0.2203
54488SOL     OW70068   9.291   3.442  12.499 -0.4649 -0.0130 -0.3979
54488SOL    HW170069   9.285   3.527  12.454 -0.2700 -0.4999 -1.3681
54488SOL    HW270070   9.205   3.402  12.486 -0.0900 -0.5837 -1.2440
54489SOL     OW70071   7.651   2.181   3.593  0.1699 -1.0810 -0.6140
54489SOL    HW170072   7.669   2.088   3.576 -1.3167 -1.4913 -0.0668
54489SOL    HW270073   7.561   2.183   3.623  0.8762  0.2690  1.6675
54490SOL     OW70074   3.712   1.758   5.360 -0.0891 -0.7425  0.5307
54490SOL    HW170075   3.732   1.767   5.453  0.2804 -0.3748  0.4173
54490SOL    HW270076   3.647   1.688   5.356  0.1563 -0.9981  1.0325
54491SOL     OW70077  11.716  10.831   1.436 -0.0514  0.5629 -0.2314
54491SOL    HW170078  11.731  10.924   1.421 -0.7691  0.5846 -0.8998
54491SOL    HW270079  11.678  10.800   1.354 -0.1705 -0.2400  0.1219
54492SOL     OW70080   4.132   4.573   3.335  0.1205 -0.0113  0.0630
54492SOL    HW170081   4.120   4.485   3.299 -1.5045  0.3948 -0.4755
54492SOL    HW270082   4.149   4.558   3.428 -1.6052 -0.8891  0.2936
54493SOL     OW70083   6.290   4.716  12.567  0.1810  0.3643  0.5217
54493SOL    HW170084   6.238   4.744  12.642 -0.0678  1.4361 -0.0350
54493SOL    HW270085   6.283   4.788  12.504 -0.4493 -0.9052 -0.9446
54494SOL     OW70086   4.484   2.810   3.033 -0.3784 -0.1184 -0.1332
54494SOL    HW170087   4.420   2.846   3.094  0.5991 -1.2627  1.6470
54494SOL    HW270088   4.537   2.886   3.006 -2.1612  0.7702 -1.3400
54495SOL     OW70089   8.769   3.650  11.218  0.0016  0.5843  0.3436
54495SOL    HW170090   8.790   3.576  11.162 -0.1794  1.1709 -0.5151
54495SOL    HW270091   8.788   3.727  11.164 -0.3267  1.1564  1.0304
54496SOL     OW70092   7.962   8.737   5.127 -0.0657  0.2832  0.3962
54496SOL    HW170093   7.902   8.812   5.119  1.2876  1.2647 -1.1565
54496SOL    HW270094   7.908   8.661   5.103 -0.9543  1.0210 -0.0236
54497SOL     OW70095  12.694   4.123  10.726  0.3737  0.0768 -0.0836
54497SOL    HW170096  12.650   4.038  10.733  1.0957 -0.1929  1.5572
54497SOL    HW270097  12.652   4.178  10.792  1.0022  0.4896 -0.0176
54498SOL     OW70098   3.896   5.097   4.977 -0.1760 -0.2110  0.0266
54498SOL    HW170099   3.934   5.023   4.930  2.5547 -0.0353  1.7175
54498SOL    HW270100   3.836   5.056   5.040 -2.5615 -0.5372 -2.2624
54499SOL     OW70101   9.440   7.088   7.391 -0.2834 -0.1315 -0.0416
54499SOL    HW170102   9.406   7.011   7.436 -0.0526 -0.2921 -0.1381
54499SOL    HW270103   9.527   7.061   7.359  0.1218  0.4030  0.5734
54500SOL     OW70104  10.154   5.236   9.492  0.4430  0.3179 -0.0584
54500SOL    HW170105  10.142   5.330   9.506 -0.8909  0.1598  0.0073
54500SOL    HW270106  10.243   5.219   9.522 -0.2827  1.0289  2.8913
54501SOL     OW70107   4.739   5.283  11.828 -0.0712 -0.6219  0.2640
54501SOL    HW170108   4.717   5.258  11.918  0.8566  1.1420  1.0214
54501SOL    HW270109   4.716   5.375  11.823  0.8405 -0.4474 -0.9985
54502SOL     OW70110   8.257   3.432   3.436  0.2588 -0.0265 -0.0610
54502SOL    HW170111   8.306   3.376   3.375 -1.5322 -1.5436 -0.2128
54502SOL    HW270112   8.232   3.373   3.507 -1.6586  0.5356 -0.1981
54503SOL     OW70113   8.767   3.581  12.104  0.3529  0.1200 -0.2093
54503SOL    HW170114   8.788   3.674  12.104  0.3246  0.1450  1.0856
54503SOL    HW270115   8.676   3.576  12.074  0.9518  0.3197 -2.2055
54504SOL     OW70116   0.325   1.324   7.352  0.4197 -0.1821 -0.0130
54504SOL    HW170117   0.370   1.365   7.426  1.6378 -3.2670  1.1114
54504SOL    HW270118   0.328   1.389   7.283  3.5696  1.0742  1.1319
54505SOL     OW70119  11.652  10.329   0.740 -0.6655 -0.5495  0.4417
54505SOL    HW170120  11.558  10.342   0.730 -0.5531  0.1316  0.1880
54505SOL    HW270121  11.684  10.412   0.775  0.0337 -0.2891 -0.7678
54506SOL     OW70122   1.259  10.988   0.089  0.3633 -0.0782  0.0826
54506SOL    HW170123   1.336  11.045   0.086  1.4377 -1.5140 -0.7223
54506SOL    HW270124   1.214  11.004   0.005 -0.1665  0.6555  0.4927
54507SOL     OW70125   3.721   5.221   7.741 -0.1197 -0.1875 -0.3103
54507SOL    HW170126   3.789   5.234   7.808 -1.0199  1.5673  0.3084
54507SOL    HW270127   3.704   5.308   7.706  0.6531 -1.0921 -3.2466
54508SOL     OW70128   9.258   2.383  11.317 -0.4006 -0.0706 -0.4548
54508SOL    HW170129   9.176   2.420  11.284 -1.0141  0.1656  1.2619
54508SOL    HW270130   9.232   2.301  11.358  0.0781  0.4067  0.8339
54509SOL     OW70131   8.855  12.769   9.223  0.4334 -0.0679  0.1385
54509SOL    HW170132   8.858  12.754   9.317 -0.1890 -0.1556  0.1485
54509SOL    HW270133   8.856  12.864   9.214  0.1398 -0.0513  0.2539
54510SOL     OW70134   3.860  12.648  12.149  0.1400  0.4471 -0.6529
54510SOL    HW170135   3.941  12.601  12.167 -0.5346  0.6902  4.2126
54510SOL    HW270136   3.864  12.726  12.203 -4.0856 -0.5524  1.5699
54511SOL     OW70137   5.365   8.322   4.490  0.1066 -0.3587  0.6327
54511SOL    HW170138   5.387   8.265   4.416 -1.6114  2.1809 -2.0522
54511SOL    HW270139   5.315   8.265   4.549 -0.8235 -1.8849 -1.4950
54512SOL     OW70140  12.697   1.720   9.632 -0.2677 -0.3566  0.0506
54512SOL    HW170141  12.671   1.634   9.664  0.4056 -0.1822  1.0885
54512SOL    HW270142  12.768   1.702   9.570 -0.7079 -0.6018 -0.3881
54513SOL     OW70143   3.952  12.594   5.733 -0.8154  0.6393  0.1307
54513SOL    HW170144   4.022  12.537   5.765 -0.1872  0.7511 -1.0217
54513SOL    HW270145   3.886  12.534   5.699 -0.8798  0.5574  0.3980
54514SOL     OW70146   3.583  11.295   0.416  0.4745 -0.8252  0.3224
54514SOL    HW170147   3.522  11.360   0.451  2.2355  0.0301  1.9553
54514SOL    HW270148   3.665  11.312   0.461  1.9781 -1.9146 -1.8116
54515SOL     OW70149   6.952   4.233  12.265  0.1939 -0.2761 -0.2145
54515SOL    HW170150   7.033   4.265  12.305  2.0854 -2.3426 -2.0916
54515SOL    HW270151   6.928   4.302  12.203  0.9188  0.0641 -0.1341
54516SOL     OW70152  11.119   1.151   5.172 -0.1762 -0.7822 -0.2318
54516SOL    HW170153  11.169   1.188   5.245  1.2013 -0.4863 -1.2759
54516SOL    HW270154  11.092   1.227   5.120 -0.2402 -1.0386 -0.5804
54517SOL     OW70155   3.206   7.125  12.349 -0.3005 -0.2299 -0.0736
54517SOL    HW170156   3.225   7.185  12.278 -1.6899  0.8659  0.4342
54517SOL    HW270157   3.243   7.166  12.427  1.6387 -1.6510 -0.1844
54518SOL     OW70158   1.856   2.537   1.531  0.1175  0.1335  0.3966
54518SOL    HW170159   1.940   2.536   1.485  0.9260 -0.3576  1.8130
54518SOL    HW270160   1.832   2.630   1.536  0.2599  0.2269 -0.5649
54519SOL     OW70161   8.869   6.300   2.943  0.0875 -0.3284 -0.2927
54519SOL    HW170162   8.852   6.282   3.035  0.4772 -1.4463 -0.4158
54519SOL    HW270163   8.782   6.312   2.904 -0.0460  0.9946  0.3536
54520SOL     OW70164   7.677   1.021  11.202  0.2560 -0.2928 -0.3325
54520SOL    HW170165   7.679   0.929  11.175  0.5376 -0.1748 -0.7310
54520SOL    HW270166   7.636   1.020  11.288  2.3541 -1.0510  0.7348
54521SOL     OW70167   1.794  10.459   4.695 -0.3762 -0.3480  0.2682
54521SOL    HW170168   1.823  10.429   4.609  0.2489 -0.3382  0.4706
54521SOL    HW270169   1.863  10.519   4.724 -1.2857  0.7751  0.1571
54522SOL     OW70170   3.537  11.679   2.276  0.1407 -0.9367 -0.1709
54522SOL    HW170171   3.495  11.718   2.353  1.5211  0.1589  0.0700
54522SOL    HW270172   3.514  11.738   2.204  0.3580 -0.9376 -0.2419
54523SOL     OW70173   8.356   7.537  10.664  0.0663 -0.7801 -0.3970
54523SOL    HW170174   8.276   7.587  10.652  0.0073 -0.5282  0.9371
54523SOL    HW270175   8.327   7.454  10.702  0.5951  0.2811  2.5700
54524SOL     OW70176   7.611   4.569   0.380  0.1800 -0.1317 -0.0787
54524SOL    HW170177   7.671   4.596   0.450 -0.4274  0.5091  0.2039
54524SOL    HW270178   7.547   4.641   0.374  0.3872 -0.0319 -1.4843
54525SOL     OW70179  11.809   8.875   4.600 -0.2031 -0.0296  0.2426
54525SOL    HW170180  11.877   8.929   4.640  0.1536  0.0981 -0.5248
54525SOL    HW270181  11.727   8.914   4.630  0.0068  1.8510 -1.3927
54526SOL     OW70182   4.535   4.583   5.059  0.2372 -0.1960  0.6800
54526SOL    HW170183   4.577   4.555   4.978  1.6416 -0.8112  1.5784
54526SOL    HW270184   4.579   4.664   5.083  1.1456 -0.9875  1.7724
54527SOL     OW70185   4.271   3.203   5.386 -0.6888  0.3965  0.1901
54527SOL    HW170186   4.344   3.172   5.333  0.0820  1.0255  0.8697
54527SOL    HW270187   4.197   3.206   5.325  0.2338  1.3228 -0.9130
54528SOL     OW70188   6.217   9.265   8.855  0.5644  0.6071  0.2974
54528SOL    HW170189   6.145   9.322   8.825  0.3687 -0.6419 -1.8442
54528SOL    HW270190   6.294   9.322   8.855  0.3340  1.0165 -1.6023
54529SOL     OW70191   7.923  11.206   8.567  0.4319 -1.2326 -0.2979
54529SOL    HW170192   7.840  11.223   8.523 -0.7792  0.7092  2.4182
54529SOL    HW270193   7.930  11.276   8.633  3.3359 -2.4054  0.8264
54530SOL     OW70194   2.364  12.515   1.528  0.1070 -0.1604 -0.2311
54530SOL    HW170195   2.348  12.595   1.578 -2.2228 -1.9206  2.1397
54530SOL    HW270196   2.336  12.445   1.586 -1.7634 -2.4872 -3.6008
54531SOL     OW70197   1.338   5.631   2.085 -0.0155  0.1960  0.8131
54531SOL    HW170198   1.260   5.635   2.030  0.8619 -0.5997 -0.5540
54531SOL    HW270199   1.308   5.593   2.168 -0.6381 -2.7540 -0.6534
54532SOL     OW70200   6.722   7.188   5.698 -0.5299  0.5836 -0.1892
54532SOL    HW170201   6.813   7.180   5.668 -0.5394  0.3311 -0.1486
54532SOL    HW270202   6.670   7.181   5.618 -0.5160  0.6986 -0.2085
54533SOL     OW70203   4.223   9.055   6.893  0.3540  0.2528 -0.1036
54533SOL    HW170204   4.254   9.048   6.983  1.2466  2.3371 -0.1891
54533SOL    HW270205   4.192   8.967   6.871 -2.7598  0.3189  3.2083
54534SOL     OW70206   2.496   8.983   8.121  0.5680 -0.3939 -0.1645
54534SOL    HW170207   2.536   8.902   8.152 -1.0859 -0.7400  1.1919
54534SOL    HW270208   2.431   8.955   8.056  1.3330  0.0335 -1.1456
54535SOL     OW70209   3.886  10.131   9.304 -0.5219  0.3426 -0.5482
54535SOL    HW170210   3.951  10.090   9.361 -1.1117  1.2185  0.8135
54535SOL    HW270211   3.930  10.139   9.219  1.1375  0.8625  0.3205
54536SOL     OW70212   1.105   6.157   3.885 -0.1975  0.3247 -0.1945
54536SOL    HW170213   1.083   6.070   3.917  2.4242 -1.0246 -1.7218
54536SOL    HW270214   1.189   6.178   3.926 -0.0414  1.4464 -1.0297
54537SOL     OW70215  10.035   2.785  10.350 -0.3160  0.5160 -0.0952
54537SOL    HW170216   9.953   2.782  10.301 -0.7298  2.1458  0.4060
54537SOL    HW270217  10.099   2.818  10.288  0.0210 -0.8769 -0.5234
54538SOL     OW70218   7.677   7.296   7.488  0.2686 -0.8312  0.0674
54538SOL    HW170219   7.692   7.205   7.463  0.4764 -0.5787 -0.7199
54538SOL    HW270220   7.582   7.301   7.503 -0.1531 -0.5829 -2.3464
54539SOL     OW70221   0.571   8.544   3.113 -0.2847  0.2938 -0.0774
54539SOL    HW170222   0.536   8.625   3.074 -0.2528 -0.1199 -0.9940
54539SOL    HW270223   0.546   8.475   3.051 -0.3047 -0.4031  0.6964
54540SOL     OW70224   0.591   9.196   4.932 -0.1704  0.0832  0.3000
54540SOL    HW170225   0.520   9.160   4.878 -0.1053 -1.1543  1.0077
54540SOL    HW270226   0.667   9.196   4.874 -0.2287 -0.7084  0.2120
54541SOL     OW70227  11.380   5.133  12.739  0.0056  0.3877  0.1573
54541SOL    HW170228  11.354   5.160  12.651 -1.0866  1.7507  0.8486
54541SOL    HW270229  11.314   5.069  12.765  0.7602 -0.5964 -0.2642
54542SOL     OW70230   1.887   4.607  10.290 -0.3940  0.0826 -0.1296
54542SOL    HW170231   1.833   4.638  10.363 -0.4028 -0.3365  0.0425
54542SOL    HW270232   1.899   4.685  10.234 -0.0755  0.4948  0.5062
54543SOL     OW70233   7.921   1.902   9.278  0.0254  0.0305  0.1127
54543SOL    HW170234   7.939   1.814   9.311  0.4012  0.3599  0.8023
54543SOL    HW270235   7.997   1.925   9.225 -0.2428 -0.2057 -0.3775
54544SOL     OW70236  10.370   1.558   1.765  0.1833  0.0250  0.7235
54544SOL    HW170237  10.283   1.585   1.735  0.0322 -2.4996 -1.4849
54544SOL    HW270238  10.355   1.513   1.848 -0.4308  0.6620  0.9647
54545SOL     OW70239   7.779   0.860  11.845  0.0800 -0.0636 -0.4434
54545SOL    HW170240   7.769   0.840  11.752  1.0862 -0.7110 -0.4354
54545SOL    HW270241   7.718   0.801  11.889  1.7098 -1.9280 -0.5404
54546SOL     OW70242   5.967  12.227  11.436  0.5005  0.1770  0.2732
54546SOL    HW170243   5.908  12.153  11.421  0.1710  0.3768  0.5551
54546SOL    HW270244   5.917  12.286  11.493  1.3699 -0.1350  1.3812
54547SOL     OW70245   2.894   7.460   3.775  0.0721  0.2120  0.7540
54547SOL    HW170246   2.986   7.457   3.798  0.7189 -1.5399 -1.6546
54547SOL    HW270247   2.893   7.486   3.683 -1.9457  1.3778  1.0399
54548SOL     OW70248  11.157   0.212   7.967 -0.7328 -0.1522  0.2188
54548SOL    HW170249  11.198   0.271   7.903  2.4860 -1.5625  0.7682
54548SOL    HW270250  11.155   0.262   8.048 -0.3325  0.0379  0.1131
54549SOL     OW70251   2.758   3.497   4.636 -0.1826  0.0059  0.1148
54549SOL    HW170252   2.693   3.449   4.688  0.0720  0.8553  1.2557
54549SOL    HW270253   2.825   3.431   4.616 -0.3143 -0.3578  0.8214
54550SOL     OW70254   3.577   7.487   2.471  0.2779  0.2760 -0.2756
54550SOL    HW170255   3.630   7.511   2.395 -0.4013 -0.3012 -0.9502
54550SOL    HW270256   3.540   7.402   2.448  1.5195 -0.7958  1.4846
54551SOL     OW70257   1.727   3.587   8.409 -0.5911 -0.1955 -0.4096
54551SOL    HW170258   1.740   3.609   8.316 -1.0679 -0.8610 -0.6388
54551SOL    HW270259   1.725   3.672   8.453  0.8277  0.0974 -0.8441
54552SOL     OW70260   6.460   1.197   4.322  0.3753 -0.3243  0.0582
54552SOL    HW170261   6.420   1.118   4.287  1.3501 -0.4813 -0.7201
54552SOL    HW270262   6.504   1.237   4.248 -1.0872  1.6029  0.1422
54553SOL     OW70263   5.735  12.055   3.197 -0.2759  0.2139 -0.4761
54553SOL    HW170264   5.662  12.117   3.198  0.0337  0.5842  0.0355
54553SOL    HW270265   5.732  12.013   3.283  0.1056  0.2213 -0.4583
54554SOL     OW70266  10.412  12.161   4.362  0.3550  0.0900 -0.0870
54554SOL    HW170267  10.473  12.185   4.432 -0.7378  3.0549 -0.0208
54554SOL    HW270268  10.366  12.085   4.396  1.9163 -0.3756  1.1226
54555SOL     OW70269   7.965  10.945   8.662 -0.0275 -0.1850  0.1744
54555SOL    HW170270   7.960  11.040   8.653  1.8711  0.0324  0.8796
54555SOL    HW270271   7.962  10.930   8.757  1.3560 -0.6513  0.1707
54556SOL     OW70272   7.563   0.534   7.559 -0.5936 -0.4619  0.0214
54556SOL    HW170273   7.648   0.579   7.555 -0.4867 -0.7305 -1.0282
54556SOL    HW270274   7.579   0.459   7.617  0.5988 -1.8961 -2.0328
54557SOL     OW70275   1.232   0.857   2.074 -0.1994  0.1863  0.2097
54557SOL    HW170276   1.273   0.862   1.988 -2.0363 -0.3731 -0.7456
54557SOL    HW270277   1.219   0.763   2.089 -1.0377  0.3469  0.5173
54558SOL     OW70278   8.669   8.521   1.924 -0.2517 -0.3041 -0.0545
54558SOL    HW170279   8.689   8.493   2.013  1.3651  1.5243  0.2461
54558SOL    HW270280   8.651   8.615   1.932 -0.3019 -0.1498 -1.6108
54559SOL     OW70281   3.326   0.852  12.167 -0.1564 -0.6616 -0.9627
54559SOL    HW170282   3.395   0.902  12.211 -0.6002 -0.7134 -0.1789
54559SOL    HW270283   3.372   0.799  12.102  0.7106 -1.6415  0.3953
54560SOL     OW70284   1.558  11.133   9.223  0.4768 -0.3895  0.1782
54560SOL    HW170285   1.495  11.082   9.171 -0.7849  1.0885  0.1658
54560SOL    HW270286   1.618  11.068   9.259  0.3594 -1.6279 -1.7252
54561SOL     OW70287  11.486   0.066   6.424 -0.4979  0.4418 -0.7140
54561SOL    HW170288  11.511   0.149   6.464  0.1954  1.2012 -2.6264
54561SOL    HW270289  11.451   0.090   6.338  1.1817 -1.3087 -1.9781
54562SOL     OW70290   0.508  10.385   2.922 -0.2887  0.2468 -0.0437
54562SOL    HW170291   0.417  10.370   2.946  0.1419 -1.7665  0.5647
54562SOL    HW270292   0.508  10.393   2.827 -0.8881 -1.9706 -0.2798
54563SOL     OW70293   4.273   8.249   1.609  0.2428 -0.0962 -0.2669
54563SOL    HW170294   4.309   8.278   1.692 -1.1154  1.3259 -0.1332
54563SOL    HW270295   4.187   8.214   1.631 -0.0858  0.1882 -1.0610
54564SOL     OW70296   4.673   5.594   0.799  0.0796  0.6033  0.2409
54564SOL    HW170297   4.704   5.560   0.715 -0.1163  0.5399  0.1926
54564SOL    HW270298   4.730   5.669   0.817  0.7696  0.0012  0.5537
54565SOL     OW70299   0.252   8.232   9.311  0.5651 -0.0010 -0.1868
54565SOL    HW170300   0.336   8.211   9.351 -0.2084  1.0637  2.2053
54565SOL    HW270301   0.267   8.225   9.217  2.3627 -3.2316  0.2014
54566SOL     OW70302  11.299   8.347   1.950  0.8623 -0.4459  0.2511
54566SOL    HW170303  11.279   8.436   1.980 -2.5112 -0.4305 -1.5315
54566SOL    HW270304  11.371   8.358   1.888  0.2771  1.1211 -0.1985
54567SOL     OW70305   5.769  10.556   2.961  0.1642  0.6831  0.4787
54567SOL    HW170306   5.750  10.505   3.040 -0.5501  0.8605  0.4280
54567SOL    HW270307   5.717  10.636   2.971  2.2218  2.0187  1.1614
54568SOL     OW70308   7.871   3.675   1.282 -0.0947 -0.6379  0.2191
54568SOL    HW170309   7.842   3.586   1.261  0.0231 -0.1391 -2.4163
54568SOL    HW270310   7.800   3.731   1.250 -0.2403  0.2524  1.9998
54569SOL     OW70311   4.822   3.879   0.425 -0.2264 -0.3512  0.4182
54569SOL    HW170312   4.898   3.823   0.442 -0.1472  0.1151  1.7275
54569SOL    HW270313   4.843   3.962   0.469 -1.3259 -0.0867  0.4733
54570SOL     OW70314   8.900   0.128   4.103  0.2201  0.2642 -0.5396
54570SOL    HW170315   8.960   0.079   4.046 -0.5084 -0.2485 -0.8816
54570SOL    HW270316   8.949   0.206   4.128 -0.4762  2.1680 -4.4065
54571SOL     OW70317  10.071   5.472   3.668 -0.2427 -0.1428 -0.0552
54571SOL    HW170318   9.995   5.416   3.684 -1.8591  2.1994  1.0908
54571SOL    HW270319  10.042   5.531   3.598  0.4435  0.8925  0.5135
54572SOL     OW70320   0.508   3.780  12.655 -0.1425  0.0340  0.0181
54572SOL    HW170321   0.424   3.801  12.695 -0.0437 -0.2521  0.3807
54572SOL    HW270322   0.496   3.799  12.562 -0.2184  1.2091  0.2502
54573SOL     OW70323   0.868   0.504   8.698 -0.3558 -0.1013  0.3041
54573SOL    HW170324   0.945   0.504   8.640 -0.6509 -0.1998 -0.0951
54573SOL    HW270325   0.827   0.419   8.683 -0.8160  0.1448  0.1455
54574SOL     OW70326  10.420   7.443   0.263 -0.1132  0.0593  0.3439
54574SOL    HW170327  10.515   7.454   0.263  0.0114 -0.9046 -0.0416
54574SOL    HW270328  10.405   7.361   0.310 -0.9195  1.2101  2.2377
54575SOL     OW70329   7.465   2.681  10.743 -0.8603  0.1954  0.4670
54575SOL    HW170330   7.557   2.706  10.746 -0.9877  0.6099  2.0047
54575SOL    HW270331   7.466   2.586  10.750 -0.5468  0.2809  2.2409
54576SOL     OW70332   1.731  10.476  10.130  0.0443  0.4208 -0.5028
54576SOL    HW170333   1.799  10.486  10.197 -0.2566 -0.9500  0.0317
54576SOL    HW270334   1.780  10.453  10.051  0.1789 -1.4508  0.0850
54577SOL     OW70335   5.752   8.860   6.798  0.1411  0.2755 -0.4138
54577SOL    HW170336   5.771   8.767   6.815 -1.4268 -0.1626 -0.8855
54577SOL    HW270337   5.838   8.900   6.788  0.8911 -0.9248  0.7905
54578SOL     OW70338   1.638   1.664   2.958  0.1447 -0.3654  0.1176
54578SOL    HW170339   1.550   1.653   2.995  0.1592 -2.6845 -0.3497
54578SOL    HW270340   1.687   1.590   2.992  1.5805  0.2145 -0.6233
54579SOL     OW70341  11.415   2.594  10.440  0.3863  0.6807  0.0112
54579SOL    HW170342  11.429   2.516  10.386  1.1548  1.0536 -0.3359
54579SOL    HW270343  11.466   2.579  10.519 -0.1615  0.4559  0.3304
54580SOL     OW70344   3.266  10.675   1.135  0.0448  0.4665  0.1414
54580SOL    HW170345   3.316  10.750   1.167 -0.2463  0.1597  1.3943
54580SOL    HW270346   3.299  10.659   1.047 -0.1673  2.2904 -0.2876
54581SOL     OW70347   8.136   6.734  12.587  0.2504  0.5980  0.5146
54581SOL    HW170348   8.041   6.743  12.577  0.3561 -0.1992 -1.7913
54581SOL    HW270349   8.147   6.667  12.655 -0.8670 -0.0721  0.0623
54582SOL     OW70350   9.104   8.142   6.650 -0.2743  0.3698 -0.1036
54582SOL    HW170351   9.172   8.097   6.598  1.0756  3.1408 -0.9014
54582SOL    HW270352   9.131   8.130   6.741  1.0343  0.9792 -0.3916
54583SOL     OW70353   2.073  11.984   4.379  0.2738 -0.3910 -0.0874
54583SOL    HW170354   1.978  11.978   4.373  0.0978  1.0950  0.7958
54583SOL    HW270355   2.098  12.041   4.306  0.1939  1.2461  1.1094
54584SOL     OW70356   0.185   3.230   5.644  0.0988  0.1439  0.0502
54584SOL    HW170357   0.113   3.169   5.627  0.3970 -0.0755 -0.4287
54584SOL    HW270358   0.145   3.316   5.635 -0.3397  0.0309  0.7871
54585SOL     OW70359   1.590   3.394  10.749  0.5723 -0.1926 -0.3120
54585SOL    HW170360   1.671   3.344  10.749  0.2986 -0.6392 -0.1310
54585SOL    HW270361   1.572   3.413  10.841  0.7781  0.4154 -0.3903
54586SOL     OW70362   6.998   7.346   9.740  0.3248  0.1741  0.3008
54586SOL    HW170363   7.022   7.393   9.820  1.2972  1.7601 -0.8753
54586SOL    HW270364   6.909   7.314   9.757  0.3689  0.7981  1.8655
54587SOL     OW70365   4.993   4.560  11.296  0.1498  0.4251 -0.2871
54587SOL    HW170366   5.080   4.589  11.268  0.3037 -1.1831 -1.6738
54587SOL    HW270367   4.960   4.510  11.221 -1.2998 -0.3639  0.8324
54588SOL     OW70368   4.077  10.619   0.584  0.1465  0.6321  0.6684
54588SOL    HW170369   4.039  10.703   0.611  0.6455  0.5741  1.6227
54588SOL    HW270370   4.119  10.637   0.500 -1.4507  0.8330 -0.1327
54589SOL     OW70371   8.871   6.336  10.711 -0.7730 -0.4617 -0.7415
54589SOL    HW170372   8.929   6.279  10.762 -1.8227 -0.7538  0.1530
54589SOL    HW270373   8.910   6.423  10.720 -0.8605 -0.5321  0.4653
54590SOL     OW70374   7.268  10.162  11.693  0.1239  0.5051  0.1863
54590SOL    HW170375   7.266  10.257  11.704 -0.0898  0.5311 -0.0756
54590SOL    HW270376   7.292  10.128  11.779  1.4605  0.8649 -0.0224
54591SOL     OW70377   5.445   0.123   0.063 -0.0719  0.2679  0.4507
54591SOL    HW170378   5.388   0.088   0.131 -0.5913 -0.3344 -0.2854
54591SOL    HW270379   5.487   0.046   0.024  2.0424  0.7511  1.6413
54592SOL     OW70380   6.184   9.680   5.686 -0.5045  0.3959 -0.5496
54592SOL    HW170381   6.189   9.705   5.778  0.5664  1.6680 -0.9173
54592SOL    HW270382   6.235   9.599   5.680 -2.6326 -1.0876  0.3750
54593SOL     OW70383   9.264   7.518   2.274  0.2242  0.4096 -0.7195
54593SOL    HW170384   9.284   7.430   2.243  0.4286  0.6553 -1.2867
54593SOL    HW270385   9.213   7.558   2.204  0.5952  0.9306 -0.6979
54594SOL     OW70386   0.440   4.857  12.458 -0.7177  0.1971  0.6788
54594SOL    HW170387   0.373   4.851  12.526 -1.0374  0.2531  0.3699
54594SOL    HW270388   0.406   4.806  12.385  0.0380 -0.6322  0.8924
54595SOL     OW70389  10.747  10.543   9.098  0.5937 -0.2678  0.1951
54595SOL    HW170390  10.800  10.621   9.082  0.1249 -0.1557 -0.9075
54595SOL    HW270391  10.725  10.548   9.191  0.2781  1.1140  0.0791
54596SOL     OW70392  11.445   8.731   7.376  0.0132 -0.0081  0.2781
54596SOL    HW170393  11.358   8.712   7.341  0.9273 -2.2380 -0.9754
54596SOL    HW270394  11.461   8.822   7.352 -1.7685  0.2863  0.1087
54597SOL     OW70395   5.141   6.489   8.482 -0.1669  0.2820 -0.9615
54597SOL    HW170396   5.235   6.495   8.465  0.0345  2.0424  0.4734
54597SOL    HW270397   5.134   6.431   8.558 -0.4425 -1.3488 -2.1715
54598SOL     OW70398   7.242  12.786   6.716 -0.0514  0.2082  0.1528
54598SOL    HW170399   7.183  12.731   6.768 -0.5699  2.6950  2.4594
54598SOL    HW270400   7.265  12.733   6.640 -3.0051 -1.9327  0.5903
54599SOL     OW70401   5.480  12.449  10.592 -0.1194  0.4351  0.1246
54599SOL    HW170402   5.462  12.517  10.527  0.2531  1.3529  0.9585
54599SOL    HW270403   5.444  12.484  10.673  1.1143  0.1447  0.8101
54600SOL     OW70404   2.616  11.424  11.224 -0.0009  0.0457  0.3071
54600SOL    HW170405   2.559  11.366  11.275 -0.5116  0.1350 -0.1612
54600SOL    HW270406   2.636  11.374  11.145 -0.3250  0.4489 -0.0302
54601SOL     OW70407   6.995   4.812   1.814  0.1110 -0.1103  0.4615
54601SOL    HW170408   7.071   4.821   1.872  0.7002  0.1915 -0.3328
54601SOL    HW270409   6.960   4.901   1.806 -0.2200 -0.2176  0.6698
54602SOL     OW70410  11.760   1.846   0.365 -0.3678  0.1278 -0.1846
54602SOL    HW170411  11.717   1.887   0.440 -0.3696 -0.3511  0.0793
54602SOL    HW270412  11.697   1.782   0.333 -1.1586  1.6206 -1.7835
54603SOL     OW70413   7.859   8.664   4.062  0.0200 -0.8602 -0.5501
54603SOL    HW170414   7.872   8.638   3.971 -0.8105  0.7325 -1.1528
54603SOL    HW270415   7.800   8.739   4.058  2.4910  1.3294  1.0601
54604SOL     OW70416   2.194   3.412   6.234  0.1372  0.3904  0.6953
54604SOL    HW170417   2.235   3.326   6.238 -0.1050  0.2410  0.0706
54604SOL    HW270418   2.264   3.471   6.207 -0.3525 -0.1211 -2.0442
54605SOL     OW70419   3.182   5.459   1.990 -0.0025  0.0986 -0.1295
54605SOL    HW170420   3.202   5.366   1.996 -0.9168 -0.1731 -0.8952
54605SOL    HW270421   3.211   5.484   1.902 -0.1504  0.4213 -0.0883
54606SOL     OW70422   0.197   3.771  10.381 -0.2237  0.3371  0.4901
54606SOL    HW170423   0.260   3.821  10.329  0.7878  0.6425  1.9424
54606SOL    HW270424   0.181   3.692  10.330  1.6084  0.0969  0.2299
54607SOL     OW70425   0.611  12.377   4.401 -0.8079 -0.0952  0.7342
54607SOL    HW170426   0.629  12.311   4.467  1.6092 -1.0222 -0.7043
54607SOL    HW270427   0.617  12.330   4.318  0.6027  1.7860 -0.3162
54608SOL     OW70428   8.511   5.645  11.892 -0.4069  0.5454 -0.3217
54608SOL    HW170429   8.524   5.736  11.866  1.6326  1.3036  2.9146
54608SOL    HW270430   8.417   5.630  11.878 -0.8665  3.2068 -0.6593
54609SOL     OW70431  11.505   9.577  11.933  0.3110 -0.5524 -0.0675
54609SOL    HW170432  11.545   9.535  11.858  2.9189  0.8575  0.4101
54609SOL    HW270433  11.524   9.518  12.007 -0.0987 -0.7565 -0.1244
54610SOL     OW70434   4.516  10.794   0.328 -0.1591  0.3989 -0.1299
54610SOL    HW170435   4.608  10.796   0.355  0.0563  0.4253 -0.8446
54610SOL    HW270436   4.497  10.701   0.315  0.1618  0.4805 -1.2706
54611SOL     OW70437   4.285  11.568   6.153 -0.1868  0.7055  0.2215
54611SOL    HW170438   4.229  11.641   6.180 -1.6558 -0.0183 -0.7520
54611SOL    HW270439   4.296  11.515   6.231 -0.9381  0.8199  0.4107
54612SOL     OW70440   4.706   5.726   4.647  0.5046  0.1476 -0.1313
54612SOL    HW170441   4.748   5.724   4.562 -1.3205  2.7522 -1.2073
54612SOL    HW270442   4.778   5.721   4.710  1.9997 -0.3426 -1.8107
54613SOL     OW70443  11.996   0.788   0.036 -0.0965 -0.0666 -0.5487
54613SOL    HW170444  11.928   0.745  -0.015  1.9726 -0.8601 -2.8529
54613SOL    HW270445  12.003   0.734   0.116 -0.8721 -1.0844 -1.1378
54614SOL     OW70446   0.101  12.599   2.090  0.0659 -0.0992  0.4778
54614SOL    HW170447   0.086  12.624   1.999  1.6565  0.5257  0.3443
54614SOL    HW270448   0.070  12.674   2.141  2.0639  0.9708  0.2361
54615SOL     OW70449   5.802   8.999   9.234 -0.2436  0.2449 -0.2984
54615SOL    HW170450   5.814   9.090   9.261 -0.9291  0.3428 -0.3280
54615SOL    HW270451   5.710   8.993   9.209 -0.0206 -0.2674 -1.0243
54616SOL     OW70452   0.268  10.410   1.128  0.2340  0.0331  0.0029
54616SOL    HW170453   0.174  10.415   1.147 -0.1191  1.1411 -1.7706
54616SOL    HW270454   0.297  10.331   1.173 -1.8510 -1.1478 -0.5429
54617SOL     OW70455   5.116  10.177   7.531 -0.2384  0.0048  0.0382
54617SOL    HW170456   5.065  10.227   7.467  0.1777 -0.4706 -0.6747
54617SOL    HW270457   5.052  10.143   7.593 -0.6298  0.5720 -0.0482
54618SOL     OW70458  10.561   9.122   8.989 -0.2416 -0.0757 -0.4286
54618SOL    HW170459  10.615   9.107   9.067 -2.1240  1.3846  1.2857
54618SOL    HW270460  10.474   9.091   9.014 -1.0479  1.0672 -1.6859
54619SOL     OW70461   9.026   4.679  12.181  0.5756  0.0471 -0.3656
54619SOL    HW170462   8.982   4.759  12.154  1.6940  0.5877 -0.6239
54619SOL    HW270463   9.115   4.706  12.204  0.8389 -1.0437 -0.0130
54620SOL     OW70464  11.941   0.075   2.994  0.2661  0.3680  0.1728
54620SOL    HW170465  11.958   0.003   3.055  0.6071 -1.7778 -2.2976
54620SOL    HW270466  11.858   0.112   3.025  0.5818 -0.3929  2.1122
54621SOL     OW70467   0.043  11.451  11.096  0.3801 -0.0586 -0.3289
54621SOL    HW170468   0.133  11.462  11.065  0.3523  2.7202  0.3294
54621SOL    HW270469   0.046  11.481  11.187 -1.0529 -0.8069 -0.0135
54622SOL     OW70470   3.720   9.720  10.283  0.0690  0.1817 -0.5204
54622SOL    HW170471   3.782   9.734  10.354 -0.9308  1.5787  0.0988
54622SOL    HW270472   3.687   9.807  10.261 -3.1305 -0.6468  0.4943
54623SOL     OW70473   7.009   7.097  10.901 -0.6341  0.2793 -0.0798
54623SOL    HW170474   6.976   7.117  10.988  0.2534  0.9100  0.1285
54623SOL    HW270475   7.066   7.020  10.914  0.1235  0.8493  0.0492
54624SOL     OW70476   4.481   0.312   8.295 -0.1939  0.2116 -0.4056
54624SOL    HW170477   4.455   0.396   8.332 -2.8867  0.4431 -2.4790
54624SOL    HW270478   4.438   0.247   8.350  1.1147  0.1824  0.6313
54625SOL     OW70479   5.669   6.329   0.125 -0.5314  0.2685 -0.5315
54625SOL    HW170480   5.737   6.343   0.191  1.3345 -1.9285 -1.8615
54625SOL    HW270481   5.620   6.253   0.157 -1.0367  0.5596 -0.6061
54626SOL     OW70482   7.611  12.506   7.182 -0.3404  0.1180  0.6684
54626SOL    HW170483   7.575  12.461   7.258 -1.2916 -1.5909 -0.7252
54626SOL    HW270484   7.550  12.578   7.165 -0.7937 -0.2374  0.7911
54627SOL     OW70485   6.345   2.348  12.556 -0.2032  0.0890 -0.1193
54627SOL    HW170486   6.403   2.424  12.555  1.4607 -1.1318  0.3904
54627SOL    HW270487   6.336   2.325  12.649 -2.2297  0.7238 -0.0874
54628SOL     OW70488   7.744   9.715  12.368  0.0357 -0.2652  0.1809
54628SOL    HW170489   7.663   9.761  12.391 -0.3676 -1.8930  2.2304
54628SOL    HW270490   7.718   9.655  12.298 -0.8349 -1.5199  1.5234
54629SOL     OW70491   6.476   8.721   1.482  0.1263 -0.1324 -0.4929
54629SOL    HW170492   6.416   8.790   1.510  0.8608  0.2014  0.3219
54629SOL    HW270493   6.433   8.639   1.506  0.6552  0.1400  1.5595
54630SOL     OW70494   2.091   6.086   8.447 -0.0566  0.2615 -0.1543
54630SOL    HW170495   2.008   6.046   8.470 -0.3006  1.3204  0.9293
54630SOL    HW270496   2.102   6.156   8.511  1.7315  0.0578 -0.1905
54631SOL     OW70497   6.169   5.343   3.887  0.0563 -0.0883  0.1206
54631SOL    HW170498   6.176   5.314   3.796 -2.5100 -0.4924 -0.0211
54631SOL    HW270499   6.259   5.344   3.919  1.0601  0.3824 -2.5033
54632SOL     OW70500   0.739   4.661  10.275  0.1082  0.5019 -0.6313
54632SOL    HW170501   0.649   4.660  10.310  0.5255  1.1810  0.5171
54632SOL    HW270502   0.730   4.697  10.187 -0.7849  0.2954 -0.6384
54633SOL     OW70503   3.580   0.347   5.647 -0.6997  0.7282 -0.1883
54633SOL    HW170504   3.621   0.423   5.690 -1.2628  1.2164 -0.4957
54633SOL    HW270505   3.486   0.358   5.666 -1.0218  1.1699 -1.8488
54634SOL     OW70506   2.148   2.088  11.900  0.2567 -0.5815 -0.0651
54634SOL    HW170507   2.104   2.155  11.848 -2.1927 -2.2481 -0.2778
54634SOL    HW270508   2.142   2.120  11.990  0.7716  0.3136 -0.3263
54635SOL     OW70509   2.804   5.671   0.978 -0.6512  0.1858  0.3935
54635SOL    HW170510   2.739   5.730   0.939 -1.8168 -1.3428 -0.0882
54635SOL    HW270511   2.875   5.668   0.914 -1.1722  0.0816 -0.1953
54636SOL     OW70512  12.726   4.553   2.318  0.2362 -0.4069 -0.2355
54636SOL    HW170513  12.772   4.595   2.391  0.9841 -1.6879  0.0621
54636SOL    HW270514  12.796   4.526   2.258 -0.3737  0.6996 -1.4890
54637SOL     OW70515  11.489   7.626   8.496  0.4060 -0.1018 -0.5477
54637SOL    HW170516  11.554   7.683   8.536  0.0785 -0.1847  0.1292
54637SOL    HW270517  11.454   7.574   8.569  0.0091 -0.4797 -0.9910
54638SOL     OW70518   1.350   3.812  10.420 -0.0877  0.0141  0.0898
54638SOL    HW170519   1.437   3.846  10.399  0.1263  0.9499  2.2665
54638SOL    HW270520   1.341   3.734  10.365  1.6153  0.5708 -1.0631
54639SOL     OW70521   5.186   8.768   0.506 -0.1828 -0.1012  0.6682
54639SOL    HW170522   5.151   8.775   0.595  0.2734 -1.5011  0.9811
54639SOL    HW270523   5.122   8.716   0.458 -0.2227  0.2926  0.2838
54640SOL     OW70524   0.273   7.170   7.584  0.2010 -0.5973 -0.2678
54640SOL    HW170525   0.239   7.227   7.516 -1.3706 -0.6227  0.4415
54640SOL    HW270526   0.349   7.127   7.544  2.6468  3.2597 -0.2519
54641SOL     OW70527  11.718   8.684   1.761 -0.0528 -0.3886 -0.2949
54641SOL    HW170528  11.813   8.672   1.758 -0.1835 -1.4370 -0.7816
54641SOL    HW270529  11.702   8.735   1.841  0.7145 -2.2828  1.1367
54642SOL     OW70530   7.048  11.958   0.768  0.0632  0.7092 -0.6921
54642SOL    HW170531   7.086  11.971   0.681 -1.0281 -0.0470 -1.3120
54642SOL    HW270532   7.003  11.873   0.761 -0.7658  1.0501  0.3393
54643SOL     OW70533  10.857   1.868   6.280  0.6311  0.2439 -0.1274
54643SOL    HW170534  10.921   1.871   6.209 -0.2516 -1.8262 -1.0912
54643SOL    HW270535  10.909   1.873   6.360  1.7931  0.7983 -0.8938
54644SOL     OW70536  11.192   6.279  10.036 -0.0856 -0.0514 -0.3926
54644SOL    HW170537  11.193   6.261  10.130 -0.7602  0.3422 -0.3074
54644SOL    HW270538  11.149   6.203   9.997 -1.0302  0.3940 -0.2416
54645SOL     OW70539   4.754   1.071   9.742  0.2502  0.2938 -0.2699
54645SOL    HW170540   4.815   1.086   9.670  0.3098 -1.4747 -0.6355
54645SOL    HW270541   4.670   1.054   9.698 -0.1428  1.0783  0.1641
54646SOL     OW70542   5.137   6.588   5.912  0.0958 -0.5954 -0.2687
54646SOL    HW170543   5.059   6.607   5.860 -1.2921  0.2966  1.9782
54646SOL    HW270544   5.134   6.493   5.925  0.7355 -0.9083 -2.1265
54647SOL     OW70545   6.486   7.993   1.784  0.1758 -0.8676 -0.2308
54647SOL    HW170546   6.530   7.972   1.866  0.8364 -0.7625 -0.5520
54647SOL    HW270547   6.539   8.063   1.746 -0.1072 -0.9368 -0.7584
54648SOL     OW70548  12.752   7.271  12.191  0.9342 -0.2193 -0.0878
54648SOL    HW170549  12.819   7.300  12.129 -0.7465  1.1724 -1.3407
54648SOL    HW270550  12.737   7.346  12.248  0.4875 -0.5487  0.2371
54649SOL     OW70551  11.458   9.206   1.638 -0.5063  0.3792  0.0460
54649SOL    HW170552  11.371   9.211   1.678 -1.2246 -1.6120 -1.1373
54649SOL    HW270553  11.512   9.164   1.706 -0.6703  0.8172  0.4557
54650SOL     OW70554   3.385   6.401   3.157 -0.6879 -0.0586 -0.4149
54650SOL    HW170555   3.337   6.333   3.110 -0.4961 -0.0056 -0.6913
54650SOL    HW270556   3.477   6.382   3.140 -0.6475  0.6121 -0.9918
54651SOL     OW70557   9.462   0.748   0.648 -0.1671 -0.0035 -0.3814
54651SOL    HW170558   9.461   0.811   0.721 -0.8036  0.8283 -1.0881
54651SOL    HW270559   9.446   0.802   0.570  1.1726 -0.7696 -1.2289
54652SOL     OW70560  10.036   4.055  11.637 -0.2344 -0.7298  0.4504
54652SOL    HW170561  10.087   4.015  11.567 -1.8339  0.2853 -1.3855
54652SOL    HW270562  10.082   4.137  11.656 -1.0948  0.1556 -1.1559
54653SOL     OW70563   6.767   8.219   1.982 -0.0905 -0.2105  0.5503
54653SOL    HW170564   6.687   8.203   2.032  0.5541 -1.5340  1.2040
54653SOL    HW270565   6.798   8.304   2.013 -0.3799 -0.4379  1.4862
54654SOL     OW70566   3.259   3.540   8.237 -0.2407  0.3491 -0.1755
54654SOL    HW170567   3.353   3.530   8.224 -0.2770 -0.8451  0.3258
54654SOL    HW270568   3.222   3.536   8.148  0.0542 -1.0306 -0.2676
54655SOL     OW70569  11.897   1.309   5.227  0.4357  0.1164 -0.1249
54655SOL    HW170570  11.818   1.314   5.173  0.4190  0.4662 -0.0656
54655SOL    HW270571  11.915   1.215   5.232 -0.6652 -0.0735  0.8576
54656SOL     OW70572   5.163   5.942   9.097  0.2774 -0.8893 -0.0778
54656SOL    HW170573   5.162   5.938   9.002 -0.6950 -0.3443 -0.1079
54656SOL    HW270574   5.123   6.027   9.118  3.4577  0.5322  0.7814
54657SOL     OW70575   3.577   7.989  12.436  0.6417  0.0917  0.1986
54657SOL    HW170576   3.555   8.055  12.501  2.8905 -0.9465  2.1752
54657SOL    HW270577   3.564   7.906  12.480 -0.9090 -0.8201 -1.8143
54658SOL     OW70578   5.956   5.102  10.546  0.5837  0.4000  0.2570
54658SOL    HW170579   5.954   5.167  10.476  0.6047 -0.0803 -0.1922
54658SOL    HW270580   6.017   5.035  10.516 -1.5090 -1.2663 -0.5949
54659SOL     OW70581   0.864  11.512   7.444 -0.6800  0.0839 -0.3349
54659SOL    HW170582   0.905  11.589   7.485 -2.3574  1.6720 -1.4591
54659SOL    HW270583   0.819  11.468   7.516 -1.9098  1.6857 -0.0573
54660SOL     OW70584   3.877   1.678   3.351  0.0334 -0.3470  0.0618
54660SOL    HW170585   3.953   1.733   3.335  1.3154 -1.6979  1.2057
54660SOL    HW270586   3.913   1.596   3.385 -1.8061 -1.7890 -1.2002
54661SOL     OW70587  12.063   6.615   3.813  0.1162  0.5318  0.2947
54661SOL    HW170588  12.102   6.592   3.898  0.2257  0.8869  0.3437
54661SOL    HW270589  11.986   6.666   3.835 -0.1375  0.1983  0.1870
54662SOL     OW70590   5.837   4.501  10.650  0.3743  0.1361 -0.3343
54662SOL    HW170591   5.792   4.575  10.608  1.2802  1.5467  1.0572
54662SOL    HW270592   5.914   4.540  10.690  1.2151 -1.7092 -0.0667
54663SOL     OW70593   7.057  12.331   8.789 -0.0488 -0.3995  0.1329
54663SOL    HW170594   7.133  12.300   8.838 -0.6143  0.9129  1.9494
54663SOL    HW270595   6.999  12.255   8.784  1.6798 -1.7056 -2.1256
54664SOL     OW70596   8.068  10.838  10.834 -0.1506  0.2146 -0.0662
54664SOL    HW170597   8.093  10.794  10.753 -2.2434 -0.6363 -0.3184
54664SOL    HW270598   8.073  10.931  10.813 -0.1502  0.0172 -1.0089
54665SOL     OW70599   9.254   5.664  10.016 -0.0619  0.8192  0.1627
54665SOL    HW170600   9.248   5.725   9.942  1.1176 -0.3181 -0.9266
54665SOL    HW270601   9.202   5.589   9.989 -3.8281  2.2821  2.6379
54666SOL     OW70602  12.777   4.688   1.209 -0.1727 -0.4138  0.5987
54666SOL    HW170603  12.869   4.670   1.229 -0.2004 -1.1514  0.0852
54666SOL    HW270604  12.739   4.602   1.191 -0.5684  0.0299 -0.8409
54667SOL     OW70605   1.353   5.808  11.762 -0.1409 -0.1809 -0.0548
54667SOL    HW170606   1.418   5.738  11.769 -1.0899 -1.0175  0.8350
54667SOL    HW270607   1.367   5.862  11.839 -0.6894 -0.5485  0.3109
54668SOL     OW70608   1.089  11.388   9.461  0.0280  0.3978 -0.0178
54668SOL    HW170609   1.142  11.343   9.528 -1.4252 -1.7954 -0.2395
54668SOL    HW270610   1.130  11.362   9.378 -0.7519 -0.4949 -0.1405
54669SOL     OW70611   9.663   4.257   3.246  0.2673 -0.0005 -1.0035
54669SOL    HW170612   9.606   4.195   3.291  2.0807 -1.2254 -0.2750
54669SOL    HW270613   9.702   4.207   3.174 -0.1724  1.0579 -2.0326
54670SOL     OW70614   5.542   0.250   1.022  0.2155 -0.3944  0.0168
54670SOL    HW170615   5.602   0.178   1.006 -0.0686 -0.3153 -1.4880
54670SOL    HW270616   5.455   0.210   1.024  0.0684 -0.1317 -0.6904
54671SOL     OW70617   0.729  11.818   0.737  0.1555 -0.2301  0.2871
54671SOL    HW170618   0.708  11.762   0.812 -0.5950  0.1667  0.3786
54671SOL    HW270619   0.731  11.759   0.662 -1.7189 -0.2361  0.1996
54672SOL     OW70620   8.098   9.373   0.121 -0.2135  0.0953  0.6622
54672SOL    HW170621   8.125   9.281   0.117 -1.1182 -0.1492 -0.4241
54672SOL    HW270622   8.107   9.405   0.031  0.8106  1.3005  1.1663
54673SOL     OW70623   7.525   0.501   4.659 -0.4890 -0.0786 -0.2217
54673SOL    HW170624   7.440   0.546   4.657 -0.1694  0.5232 -1.5249
54673SOL    HW270625   7.546   0.485   4.567  0.9562  0.0555  0.0569
54674SOL     OW70626  10.212   9.033   2.527  0.2269  0.5256  0.0214
54674SOL    HW170627  10.185   8.965   2.466  0.5333 -0.8138  1.2939
54674SOL    HW270628  10.283   8.992   2.577 -0.0012  1.5590  1.2426
54675SOL     OW70629   3.640   7.033   6.210 -0.2048 -0.8247  0.2550
54675SOL    HW170630   3.652   7.118   6.169 -2.0155 -0.7272 -0.1745
54675SOL    HW270631   3.594   7.052   6.292  2.8601 -1.0690  2.1711
54676SOL     OW70632  10.062   8.607   2.955 -0.5446  0.4749  0.1615
54676SOL    HW170633  10.055   8.612   3.050  1.3206  0.7557  0.3184
54676SOL    HW270634   9.983   8.651   2.923 -1.3709  0.0735  1.5566
54677SOL     OW70635   8.213   9.284  10.446  0.3497  0.0588 -0.2741
54677SOL    HW170636   8.224   9.314  10.356  1.4964 -0.9274 -0.5020
54677SOL    HW270637   8.126   9.313  10.471 -0.0502  0.2216 -1.7530
54678SOL     OW70638   5.572   5.529   6.605 -0.0926  0.2400 -0.3268
54678SOL    HW170639   5.618   5.458   6.652 -0.2684  0.1440 -0.2976
54678SOL    HW270640   5.488   5.536   6.650 -0.0635  0.4882 -0.3126
54679SOL     OW70641   5.160   4.289   4.379  0.0315 -0.3947  0.0650
54679SOL    HW170642   5.189   4.204   4.413 -0.0309 -0.3714  0.1769
54679SOL    HW270643   5.240   4.331   4.348 -0.0556 -0.8566 -0.8064
54680SOL     OW70644   4.884  12.173   6.659  0.1662 -0.8668  0.1328
54680SOL    HW170645   4.968  12.199   6.695 -0.8786  0.3438  1.8343
54680SOL    HW270646   4.839  12.256   6.641 -0.2276 -1.4699 -1.9266
54681SOL     OW70647   4.628   7.411   6.245 -0.4079 -0.6263 -0.6040
54681SOL    HW170648   4.702   7.455   6.286 -2.4167  2.5999 -0.0936
54681SOL    HW270649   4.637   7.429   6.152 -1.1352  0.8345 -0.4128
54682SOL     OW70650   8.889   9.778   1.521 -0.4617  0.4308 -0.2209
54682SOL    HW170651   8.803   9.771   1.480 -1.4300  1.3202  1.5367
54682SOL    HW270652   8.930   9.853   1.479 -0.6509  0.1839 -0.8606
54683SOL     OW70653   3.285   2.636   7.696  0.1305  0.3812  0.2080
54683SOL    HW170654   3.199   2.677   7.703  0.0158  0.0353  0.8804
54683SOL    HW270655   3.341   2.689   7.752 -0.3488 -1.2286  2.3330
54684SOL     OW70656   2.781  12.302   2.529  0.4112 -0.2198  0.4133
54684SOL    HW170657   2.829  12.385   2.522  0.3600 -0.2243 -0.0060
54684SOL    HW270658   2.848  12.235   2.518  0.2555 -0.2233 -0.5771
54685SOL     OW70659   2.661   5.106   3.285 -0.2952  0.1259  0.0673
54685SOL    HW170660   2.630   5.017   3.268 -0.0008  0.1211 -0.4314
54685SOL    HW270661   2.588   5.162   3.257 -0.0003  0.0975 -0.7758
54686SOL     OW70662   9.389  12.759   0.301 -0.0551 -0.0542  0.3611
54686SOL    HW170663   9.381  12.813   0.222 -1.2279 -2.0117 -0.9420
54686SOL    HW270664   9.412  12.821   0.370  2.2661  1.6010 -1.6973
54687SOL     OW70665   3.009   2.949  10.114  0.2005 -0.2330 -0.0235
54687SOL    HW170666   2.974   3.010  10.179 -0.5280 -0.7992  0.1296
54687SOL    HW270667   3.037   3.004  10.041  0.1201  0.3279  0.3665
54688SOL     OW70668   6.797   0.387   4.791 -0.0934 -0.3617  0.2515
54688SOL    HW170669   6.808   0.482   4.794  1.7620 -0.5480  3.6983
54688SOL    HW270670   6.856   0.358   4.721 -1.8840  1.0112 -1.9847
54689SOL     OW70671   4.864   9.846   3.474 -0.4290  0.2553 -0.3588
54689SOL    HW170672   4.824   9.801   3.399 -0.5924  0.2683 -0.2785
54689SOL    HW270673   4.799   9.909   3.503 -0.2733  0.4140 -0.3509
54690SOL     OW70674   1.040   5.566   2.598 -0.2323  0.3941  0.0624
54690SOL    HW170675   1.012   5.605   2.515  0.5345 -3.4103 -2.1851
54690SOL    HW270676   0.958   5.545   2.644 -0.7692 -0.0771 -1.0856
54691SOL     OW70677   3.744  10.292   6.678 -0.7108  0.8545 -0.1404
54691SOL    HW170678   3.755  10.375   6.724  0.9164  0.7123 -0.2116
54691SOL    HW270679   3.728  10.228   6.748  0.6998  0.8128  0.1729
54692SOL     OW70680   3.512   6.010   0.255  0.6525 -0.0993 -0.1618
54692SOL    HW170681   3.430   6.060   0.244  0.9056  0.2145 -0.6664
54692SOL    HW270682   3.559   6.024   0.173  0.2179 -2.1468 -0.8017
54693SOL     OW70683  12.722   3.615   9.986  0.2358 -0.0048 -0.0111
54693SOL    HW170684  12.800   3.618  10.041  1.3571 -1.7898 -1.4060
54693SOL    HW270685  12.652   3.586  10.045  0.8431  0.5406  1.0058
54694SOL     OW70686   2.283   7.787   7.524 -0.0445 -0.1636  0.1083
54694SOL    HW170687   2.274   7.868   7.472 -0.3477 -0.3467 -0.1313
54694SOL    HW270688   2.377   7.773   7.531  0.0037  0.0186 -0.1543
54695SOL     OW70689   2.117   7.755   0.262 -0.4897 -0.2086  0.1556
54695SOL    HW170690   2.183   7.785   0.199 -0.2526 -0.8468  0.0948
54695SOL    HW270691   2.100   7.832   0.317  1.1506 -0.3347  0.9082
54696SOL     OW70692   9.026   7.052   3.928 -0.2556  0.2088 -0.4080
54696SOL    HW170693   8.977   7.085   4.003 -0.1630  0.2284 -0.3554
54696SOL    HW270694   8.968   7.066   3.853 -1.6135 -2.5023  0.0066
54697SOL     OW70695   0.640  12.049   8.225 -0.1455  0.1910  0.1308
54697SOL    HW170696   0.701  12.102   8.174  0.1968  0.3971  0.7415
54697SOL    HW270697   0.598  11.992   8.161 -0.9804  1.6308 -0.6283
54698SOL     OW70698   3.363   3.532   5.191  0.3409  0.1516  0.0718
54698SOL    HW170699   3.398   3.590   5.124 -0.9430  0.2700 -0.5426
54698SOL    HW270700   3.388   3.444   5.162 -2.5813 -0.0993 -2.2426
54699SOL     OW70701   9.647   7.658  10.427 -0.1308 -0.3013 -0.0955
54699SOL    HW170702   9.626   7.665  10.520  1.1606 -2.0103  0.3654
54699SOL    HW270703   9.569   7.691  10.382 -0.6601  0.8398  1.5661
54700SOL     OW70704   5.121  12.647   4.026  0.1240 -0.3530 -0.3283
54700SOL    HW170705   5.035  12.660   3.986  0.3110  0.1017 -0.5795
54700SOL    HW270706   5.102  12.600   4.107 -0.4188  0.2626 -0.0914
54701SOL     OW70707   4.355  10.355   1.310 -0.1990 -0.0924 -0.5643
54701SOL    HW170708   4.279  10.307   1.345 -0.3062  0.7396  0.3809
54701SOL    HW270709   4.326  10.446   1.307  0.9724  0.3237  0.3932
54702SOL     OW70710  10.331   6.701   3.411 -0.4646 -0.0145 -0.6454
54702SOL    HW170711  10.394   6.646   3.457 -0.9080  1.3595  1.7631
54702SOL    HW270712  10.247   6.683   3.454 -1.1066  0.5732 -1.6094
54703SOL     OW70713   3.248   6.481   6.084  0.0939  0.7273  0.2156
54703SOL    HW170714   3.182   6.533   6.131 -1.4663 -0.5914 -0.4304
54703SOL    HW270715   3.202   6.448   6.007  1.7192  0.2984 -0.6070
54704SOL     OW70716   3.355  10.426   2.202 -0.1868 -0.4361 -0.1314
54704SOL    HW170717   3.414  10.499   2.220 -0.1790  0.0873 -2.0266
54704SOL    HW270718   3.404  10.348   2.229  0.4254  0.1507  0.4841
54705SOL     OW70719   9.624   0.391   5.060 -0.4813 -0.1485  0.7111
54705SOL    HW170720   9.543   0.400   5.011  0.9114 -0.0663 -1.7099
54705SOL    HW270721   9.642   0.478   5.096 -1.8824 -0.3799  2.0862
54706SOL     OW70722   8.871   8.347  10.045 -0.3666 -0.1424 -0.1492
54706SOL    HW170723   8.821   8.413  10.093  0.7011  1.3727 -1.0315
54706SOL    HW270724   8.957   8.349  10.086 -0.3134 -0.9796 -0.2171
54707SOL     OW70725  10.821   8.679   2.000 -0.3610 -0.5265  0.1213
54707SOL    HW170726  10.844   8.626   2.076  1.7903 -0.4114 -0.3931
54707SOL    HW270727  10.875   8.645   1.929 -1.6081  0.0016 -1.1317
54708SOL     OW70728  11.884   9.628   4.306 -0.1066 -1.2320 -0.2184
54708SOL    HW170729  11.795   9.601   4.329  0.9523 -3.2520  1.8638
54708SOL    HW270730  11.879   9.648   4.212 -2.6728 -1.4608 -0.2121
54709SOL     OW70731   0.718   9.398  11.895  0.1123  0.4954  0.6514
54709SOL    HW170732   0.764   9.314  11.899  0.1117  0.5376  2.2601
54709SOL    HW270733   0.695   9.409  11.802  0.8499 -0.8679  0.2848
54710SOL     OW70734   4.808   5.375   2.971 -0.1890  0.3545  0.7422
54710SOL    HW170735   4.770   5.405   3.054 -1.6295 -1.2666  0.7177
54710SOL    HW270736   4.756   5.298   2.947  0.0932  0.8663 -1.7613
54711SOL     OW70737   7.037   4.104  11.909  0.1931 -0.0145 -0.4649
54711SOL    HW170738   6.991   4.169  11.855 -0.6055 -0.2324 -0.0570
54711SOL    HW270739   6.973   4.035  11.923  0.2492  0.2164  1.0781
54712SOL     OW70740   3.201   9.078  12.469  0.2643  0.2355  0.0384
54712SOL    HW170741   3.234   9.040  12.550  1.3866  0.8239 -0.1296
54712SOL    HW270742   3.208   9.007  12.405 -2.6170 -0.9375  0.8627
54713SOL     OW70743   1.685   2.557   1.309 -0.1164 -0.0489  0.2516
54713SOL    HW170744   1.753   2.493   1.331 -0.7932 -0.5586  0.8806
54713SOL    HW270745   1.715   2.638   1.350 -0.3528 -0.5014  1.3283
54714SOL     OW70746   8.532  11.496   5.040 -0.3340 -0.0119 -0.4073
54714SOL    HW170747   8.617  11.478   5.001 -0.8378 -0.9077 -1.1550
54714SOL    HW270748   8.514  11.587   5.019 -0.5370 -0.4371 -2.2096
54715SOL     OW70749  11.899   6.412   1.792 -0.0418  0.0421 -0.3402
54715SOL    HW170750  11.913   6.374   1.879  0.0775  0.1916 -0.2936
54715SOL    HW270751  11.833   6.479   1.805  0.6491  0.7059 -0.1871
54716SOL     OW70752   7.409  10.081   8.440 -0.0608  0.1549 -0.4341
54716SOL    HW170753   7.407  10.153   8.377  1.2482  0.4975 -0.1248
54716SOL    HW270754   7.497  10.044   8.430 -0.5470 -1.0932 -0.2415
54717SOL     OW70755   7.732   1.103   7.521  0.1805 -0.1384 -0.1623
54717SOL    HW170756   7.725   1.017   7.479  0.1207  0.3743 -1.2487
54717SOL    HW270757   7.757   1.084   7.611 -0.3301 -1.3196 -0.2474
54718SOL     OW70758   7.551   8.515   7.680  0.4148 -0.2050  0.8314
54718SOL    HW170759   7.566   8.450   7.611  2.4082  1.4196 -0.4094
54718SOL    HW270760   7.517   8.591   7.634  1.1993  0.7143  1.7243
54719SOL     OW70761   2.624   8.641  11.910 -0.0958  0.0894  0.0749
54719SOL    HW170762   2.716   8.668  11.905 -0.3037  0.7101 -0.3891
54719SOL    HW270763   2.574   8.716  11.878 -0.8051 -0.0534  0.8048
54720SOL     OW70764   8.361  11.420   5.594  0.5008 -0.2260  0.3021
54720SOL    HW170765   8.304  11.381   5.527  0.0762 -0.0558  0.5631
54720SOL    HW270766   8.311  11.412   5.675  0.6788  0.2977  0.4618
54721SOL     OW70767  11.005   7.932   9.098 -0.2122  0.5644 -0.3195
54721SOL    HW170768  10.961   7.858   9.057 -1.2708  1.3284 -0.5976
54721SOL    HW270769  11.018   7.904   9.189 -1.0821  0.2274 -0.2874
54722SOL     OW70770   7.402   5.573  11.167 -0.0814  0.3550  0.0151
54722SOL    HW170771   7.331   5.579  11.102  0.8722  0.6546 -1.0266
54722SOL    HW270772   7.458   5.503  11.135  1.5205  1.8549 -0.6481
54723SOL     OW70773   6.570   0.143   8.942  0.0846 -0.2301  0.1579
54723SOL    HW170774   6.545   0.060   8.982 -0.5482  0.9565  2.4433
54723SOL    HW270775   6.656   0.163   8.981  0.8658 -0.4018 -1.3998
54724SOL     OW70776   2.213  11.492   8.054  0.0850  0.4783 -0.1428
54724SOL    HW170777   2.189  11.584   8.044  0.9933  0.7063 -0.3191
54724SOL    HW270778   2.165  11.463   8.132  0.4845  1.3507  0.4450
54725SOL     OW70779   8.045   6.714   7.411  0.0554  0.4597  0.3714
54725SOL    HW170780   8.100   6.790   7.390  0.6807  0.1668  0.9169
54725SOL    HW270781   7.956   6.751   7.420  0.0381  0.8412 -1.1168
54726SOL     OW70782   0.016  10.493  11.229 -0.3335 -0.6815 -0.4050
54726SOL    HW170783  -0.049  10.557  11.199 -1.5662 -2.0814 -0.8265
54726SOL    HW270784   0.041  10.524  11.317  1.4651  2.0815 -1.7375
54727SOL     OW70785   3.979   0.665  11.995  0.5311  0.2246 -0.2305
54727SOL    HW170786   4.005   0.627  12.078  0.6265 -0.3819 -0.5368
54727SOL    HW270787   4.047   0.729  11.975  1.2581 -0.6215 -0.5228
54728SOL     OW70788   0.350  12.514   7.238 -0.2638 -0.0441  0.8360
54728SOL    HW170789   0.434  12.469   7.244 -0.4559 -0.9047 -1.7211
54728SOL    HW270790   0.373  12.606   7.222  0.1316  0.2177  2.7057
54729SOL     OW70791   8.376   6.406   5.498 -0.5365  0.1709  0.3867
54729SOL    HW170792   8.324   6.473   5.544  0.2176  0.0586  1.4501
54729SOL    HW270793   8.403   6.346   5.567  0.9469  0.1930 -0.1406
54730SOL     OW70794   2.033   0.254   8.838  0.0492 -0.1186 -0.3724
54730SOL    HW170795   2.108   0.298   8.877 -0.2520  1.5545 -1.5612
54730SOL    HW270796   2.064   0.166   8.816  1.0490 -0.1087  0.9340
54731SOL     OW70797   9.247   0.934   6.195 -0.2659  0.2793  0.4513
54731SOL    HW170798   9.234   1.020   6.156  1.0540  0.7637  1.0204
54731SOL    HW270799   9.160   0.905   6.221 -0.9670  0.6168 -1.4291
54732SOL     OW70800   2.793   8.359   4.687 -0.7573 -0.7067  0.0581
54732SOL    HW170801   2.882   8.326   4.675  0.0960  1.3658  0.2575
54732SOL    HW270802   2.741   8.313   4.621  0.3986 -2.0970  0.0699
54733SOL     OW70803   0.056   5.968   2.884  0.2911  0.6697 -1.0622
54733SOL    HW170804   0.084   5.989   2.973 -1.0106  3.1152 -1.1435
54733SOL    HW270805   0.028   5.877   2.888  2.2778  0.0493  0.4636
54734SOL     OW70806   6.945   8.604  12.312  0.2148 -0.1982 -0.6153
54734SOL    HW170807   6.873   8.593  12.249  0.4693 -1.8939 -0.6587
54734SOL    HW270808   7.012   8.543  12.282  2.2097  2.1280 -1.2431
54735SOL     OW70809   9.999   0.287  10.568 -0.2951 -0.3735 -0.5828
54735SOL    HW170810   9.932   0.325  10.511  0.3284  1.2379 -0.2886
54735SOL    HW270811   9.949   0.239  10.634 -1.2616  1.6273  0.2169
54736SOL     OW70812  11.311   8.919  12.046 -0.0845  0.6396  0.4343
54736SOL    HW170813  11.268   8.838  12.075 -0.5223  0.2574 -1.1467
54736SOL    HW270814  11.240   8.970  12.007  0.6720  0.5052 -1.1871
54737SOL     OW70815   5.381   0.007   6.340 -0.0754  0.1012  0.8798
54737SOL    HW170816   5.315   0.069   6.372 -1.0054 -0.0334 -0.6546
54737SOL    HW270817   5.382  -0.063   6.406 -1.4685  0.1222  0.9620
54738SOL     OW70818   1.341  12.708   5.055  0.1210 -0.0526 -0.0357
54738SOL    HW170819   1.303  12.641   4.998  2.8173 -0.8259 -1.1034
54738SOL    HW270820   1.274  12.775   5.061 -0.8631 -0.6183 -2.9831
54739SOL     OW70821  10.845  11.408   3.472  0.1310 -0.1382 -0.3235
54739SOL    HW170822  10.761  11.439   3.506 -0.3606 -1.0950 -0.6176
54739SOL    HW270823  10.903  11.483   3.480 -0.8026  0.6081 -0.2842
54740SOL     OW70824   8.773   9.197   6.496 -0.3829  0.1132  0.9508
54740SOL    HW170825   8.810   9.217   6.582 -1.3227 -0.0202  1.4048
54740SOL    HW270826   8.679   9.213   6.506 -0.9434 -2.5548  0.7745
54741SOL     OW70827   8.342  11.647  12.453  0.7518 -0.4928  0.5867
54741SOL    HW170828   8.436  11.637  12.472  1.1282  2.0783  0.4267
54741SOL    HW270829   8.339  11.677  12.362 -0.2856 -1.1714  0.3826
54742SOL     OW70830   7.248   6.520   8.715  0.1342 -0.0574  0.0205
54742SOL    HW170831   7.178   6.456   8.732  0.1528 -0.2730 -0.7024
54742SOL    HW270832   7.261   6.517   8.620  2.8706 -1.9000  0.3220
54743SOL     OW70833   2.452   5.774  12.276  0.1055 -0.1159  0.0893
54743SOL    HW170834   2.537   5.729  12.273 -1.1067 -2.8479  2.4374
54743SOL    HW270835   2.448   5.813  12.363 -1.6590 -1.5325  0.7111
54744SOL     OW70836   5.397  11.639   0.081 -0.2592 -0.1671  0.1872
54744SOL    HW170837   5.360  11.577   0.018  0.8980  0.0677 -0.7534
54744SOL    HW270838   5.321  11.685   0.117 -0.9254 -0.0332 -1.3171
54745SOL     OW70839   7.503   2.167   2.790  0.6725  0.8685 -0.8692
54745SOL    HW170840   7.499   2.258   2.759  0.3494  0.9950 -0.4719
54745SOL    HW270841   7.522   2.175   2.883 -1.4785  0.6175 -0.3538
54746SOL     OW70842  12.744   2.273   6.388 -0.1041  0.6106 -0.2094
54746SOL    HW170843  12.675   2.301   6.329  0.6192 -0.5647 -1.6748
54746SOL    HW270844  12.823   2.316   6.356  0.2598  0.1192  0.0142
54747SOL     OW70845   7.295   6.421   9.425 -0.2385 -0.0286 -0.3439
54747SOL    HW170846   7.268   6.492   9.483  2.1622  0.1931  0.6156
54747SOL    HW270847   7.314   6.464   9.342 -0.2455  0.2246 -0.2154
54748SOL     OW70848  11.362   0.152  10.493 -0.4853  0.2534 -0.4981
54748SOL    HW170849  11.424   0.204  10.442 -0.2733 -1.4429 -2.0698
54748SOL    HW270850  11.283   0.148  10.438 -1.4162  0.9701  0.7198
54749SOL     OW70851   5.412   3.004  12.773  0.1437  0.3754 -0.9494
54749SOL    HW170852   5.505   2.993  12.753  0.1019 -1.2318 -0.3692
54749SOL    HW270853   5.373   3.030  12.689  0.6984 -1.6688 -1.8946
54750SOL     OW70854   8.104  12.210  12.442  0.3805 -0.2491 -0.1179
54750SOL    HW170855   8.173  12.275  12.436  2.2429 -2.1994 -1.1201
54750SOL    HW270856   8.023  12.259  12.423  1.7725  1.5952 -1.6921
54751SOL     OW70857   8.840   9.437   7.773  0.1570  0.6023 -0.5985
54751SOL    HW170858   8.796   9.364   7.817  0.0019  0.8598 -0.3274
54751SOL    HW270859   8.933   9.425   7.794  0.1658  0.3275 -0.7828
54752SOL     OW70860   6.439   2.730   7.993 -0.1731 -0.3302  0.3225
54752SOL    HW170861   6.519   2.744   7.943 -0.2408 -0.9111  0.0425
54752SOL    HW270862   6.457   2.769   8.079 -0.5122  1.8488 -0.5360
54753SOL     OW70863   7.879  11.961   6.900  0.0769 -0.2675 -0.0845
54753SOL    HW170864   7.968  11.959   6.937  0.1174  0.0323 -0.1622
54753SOL    HW270865   7.825  11.997   6.970 -0.1886 -1.4871  0.3726
54754SOL     OW70866  11.259   7.082   6.781  0.5096  0.1549 -0.2464
54754SOL    HW170867  11.300   7.159   6.820  0.3693  0.1675 -0.1269
54754SOL    HW270868  11.301   7.074   6.695  1.3160 -0.2721  0.1711
54755SOL     OW70869   9.775   6.564   9.081  0.0470 -0.2457  0.0324
54755SOL    HW170870   9.798   6.652   9.051  2.0715  0.2236  2.6385
54755SOL    HW270871   9.791   6.507   9.006  1.3445  1.2857 -0.8970
54756SOL     OW70872   0.069   0.133   1.626 -0.1786 -0.2172  0.3955
54756SOL    HW170873   0.058   0.145   1.531 -0.0525  1.8704  0.6113
54756SOL    HW270874   0.152   0.086   1.634 -1.0436 -2.0293 -0.5661
54757SOL     OW70875   1.129   9.272   8.780 -0.2155  0.6284 -0.1173
54757SOL    HW170876   1.092   9.229   8.702  2.0113  0.2138 -1.0264
54757SOL    HW270877   1.151   9.200   8.839 -1.4500  0.9167  0.7411
54758SOL     OW70878   1.185  11.161   1.685 -0.0553  0.4812 -0.1816
54758SOL    HW170879   1.249  11.100   1.649  0.1790  1.0564 -0.7457
54758SOL    HW270880   1.227  11.247   1.681 -0.7247  0.8144 -0.2359
54759SOL     OW70881   1.572   1.040   0.524  0.6310 -0.1202 -0.4097
54759SOL    HW170882   1.496   1.095   0.544  1.6426  0.6650  1.5765
54759SOL    HW270883   1.535   0.953   0.510 -0.6673  0.2871  0.2719
54760SOL     OW70884   5.985   6.921  10.247  0.1957 -0.1030 -0.0617
54760SOL    HW170885   5.904   6.888  10.285  0.8006 -1.5999 -0.0005
54760SOL    HW270886   6.025   6.974  10.316  0.4286 -1.3508  0.7835
54761SOL     OW70887   5.847   1.055   3.659  0.2997  0.6154  0.4475
54761SOL    HW170888   5.917   1.121   3.653  0.4102  0.6713  1.8593
54761SOL    HW270889   5.859   1.000   3.582  0.6846  1.7841 -0.3609
54762SOL     OW70890   2.007   2.312   1.706  0.1193 -0.2114 -0.1472
54762SOL    HW170891   2.018   2.319   1.801 -2.6799  1.7056  0.1556
54762SOL    HW270892   2.058   2.385   1.671 -0.1755  0.0662  0.0059
54763SOL     OW70893   8.944   0.715   4.457  0.0903 -0.1020 -0.3821
54763SOL    HW170894   8.980   0.627   4.467 -0.4212 -0.3566 -0.7130
54763SOL    HW270895   8.981   0.765   4.530  0.9473 -0.4000 -0.6031
54764SOL     OW70896   0.635   1.897  10.203 -0.0402  0.3486 -0.1086
54764SOL    HW170897   0.700   1.834  10.171 -0.1599 -0.6154  1.4427
54764SOL    HW270898   0.581   1.846  10.264  1.0192  2.3287  2.6955
54765SOL     OW70899   2.509   4.876   6.100 -0.0408  0.4267 -0.7942
54765SOL    HW170900   2.524   4.932   6.024  0.8767  1.6063  0.2256
54765SOL    HW270901   2.426   4.832   6.081  0.2893  0.5189 -2.5730
54766SOL     OW70902  11.785   9.422  11.595  0.3127  0.5016  0.2164
54766SOL    HW170903  11.869   9.425  11.641 -0.5076  2.2726  1.7387
54766SOL    HW270904  11.806   9.445  11.505  1.7779 -1.6864 -0.0771
54767SOL     OW70905   3.886   4.041   9.780  0.0488 -0.2153  0.3247
54767SOL    HW170906   3.868   3.950   9.757 -0.4097  0.4122 -2.0058
54767SOL    HW270907   3.843   4.093   9.712  1.8755  1.6903  0.4970
54768SOL     OW70908   5.585   8.169   1.972  0.0353  0.1661 -0.0599
54768SOL    HW170909   5.653   8.205   2.029  1.4737 -1.1286 -0.8597
54768SOL    HW270910   5.634   8.121   1.905 -1.7033 -1.5674 -0.1586
54769SOL     OW70911   9.983   9.807   0.223  0.3531 -0.7287  0.4119
54769SOL    HW170912  10.047   9.877   0.232 -0.6205  0.4267 -1.2227
54769SOL    HW270913  10.030   9.736   0.180  1.0335 -0.6388  0.9987
54770SOL     OW70914   3.149  10.665   4.318 -0.3262  0.1760 -0.5152
54770SOL    HW170915   3.089  10.739   4.308  0.8170  0.9987 -1.7571
54770SOL    HW270916   3.235  10.706   4.329  0.1206 -0.9749  0.4472
54771SOL     OW70917   0.991  11.039   8.311 -0.5523 -0.4179  0.7530
54771SOL    HW170918   0.898  11.030   8.332 -0.9038  4.0590  2.1618
54771SOL    HW270919   1.034  11.040   8.397  0.6752 -1.1537  0.1688
54772SOL     OW70920   8.531  12.529   6.202  0.2263  0.3388  0.3019
54772SOL    HW170921   8.605  12.489   6.248  0.1662 -0.3722 -0.2103
54772SOL    HW270922   8.565  12.613   6.170  0.2197  0.9292  1.7623
54773SOL     OW70923   6.720   0.489  10.352  0.3192 -0.7232  0.8795
54773SOL    HW170924   6.654   0.539  10.398 -1.4110 -1.9217 -0.1664
54773SOL    HW270925   6.682   0.472  10.265  1.8028 -1.8370  0.3887
54774SOL     OW70926   0.389   1.682  10.368  0.5894  0.2612  0.4648
54774SOL    HW170927   0.336   1.644  10.439  1.0714 -0.1101  0.6294
54774SOL    HW270928   0.371   1.775  10.373  0.1884  0.1741  0.7226
54775SOL     OW70929   7.809  11.363   6.059  0.1850 -0.6940  0.2221
54775SOL    HW170930   7.841  11.318   6.137  0.1264  0.1623  0.7596
54775SOL    HW270931   7.718  11.336   6.050  0.2374 -0.9139  0.3663
54776SOL     OW70932   9.098  11.863   7.136 -0.4732  0.2331 -0.2449
54776SOL    HW170933   9.094  11.958   7.140 -2.0621  0.1426  1.9717
54776SOL    HW270934   9.030  11.833   7.197 -2.4215 -2.3665 -3.3576
54777SOL     OW70935   0.708   2.813   6.743 -0.0919  0.3504  0.5590
54777SOL    HW170936   0.794   2.828   6.780 -0.1223  2.3359 -0.0778
54777SOL    HW270937   0.723   2.805   6.648 -0.5717  0.3810  0.4780
54778SOL     OW70938   8.352   8.821   7.758 -1.0732  0.3033  0.0663
54778SOL    HW170939   8.420   8.865   7.707 -0.7564  0.2360  0.4310
54778SOL    HW270940   8.293   8.785   7.692 -1.5192  1.5349 -0.2445
54779SOL     OW70941   6.805  12.666   0.599 -0.0315  0.1617 -0.1757
54779SOL    HW170942   6.836  12.578   0.577 -0.1176  0.3308 -1.0278
54779SOL    HW270943   6.825  12.676   0.692 -2.2900 -1.6907  0.6114
54780SOL     OW70944   8.715   8.999   9.137  0.4353 -0.2000 -0.1800
54780SOL    HW170945   8.734   9.060   9.065  2.5310  0.3385  0.7349
54780SOL    HW270946   8.711   8.913   9.095 -0.6960  0.3459 -1.2392
54781SOL     OW70947  11.377   5.934  10.182 -0.2430 -0.7695  0.2246
54781SOL    HW170948  11.382   6.026  10.156  2.0155 -0.1694  2.4098
54781SOL    HW270949  11.343   5.889  10.104  0.5698  1.6086 -1.6425
54782SOL     OW70950   9.426   3.845  10.537  1.2001 -0.1280  0.3413
54782SOL    HW170951   9.337   3.824  10.566  0.2316  0.5625 -1.8845
54782SOL    HW270952   9.479   3.772  10.568  0.1395  0.0555  2.8216
54783SOL     OW70953   4.990  11.195   1.517 -0.1648  0.7101  0.0916
54783SOL    HW170954   5.085  11.183   1.514 -0.3919 -1.0570 -0.8364
54783SOL    HW270955   4.960  11.181   1.427 -1.2889  1.5169  0.3134
54784SOL     OW70956  11.559   1.112   2.485 -0.6872  0.0084 -0.8319
54784SOL    HW170957  11.636   1.083   2.437  0.1587 -1.0452  1.0663
54784SOL    HW270958  11.517   1.031   2.515 -0.8382  0.6180  0.6955
54785SOL     OW70959   9.632   0.737  12.690 -0.2472  0.1089  0.2320
54785SOL    HW170960   9.712   0.685  12.696 -0.8230 -0.6591  1.7487
54785SOL    HW270961   9.631   0.769  12.600  1.2082 -0.7585 -0.1249
54786SOL     OW70962   7.143   7.931   9.063 -0.0970  0.0524  0.4020
54786SOL    HW170963   7.097   7.993   9.006  0.3682 -1.4040 -1.6577
54786SOL    HW270964   7.082   7.858   9.072  0.6337 -0.6077  0.0816
54787SOL     OW70965   0.353   4.884  10.572 -0.0629  0.0761 -0.1333
54787SOL    HW170966   0.288   4.876  10.502 -1.5092  2.0381  0.8732
54787SOL    HW270967   0.305   4.925  10.644  2.0462  0.6035  1.0521
54788SOL     OW70968  10.341   4.830   8.082  0.1351 -0.2721  0.6651
54788SOL    HW170969  10.414   4.769   8.091  2.2867  1.8949 -0.8200
54788SOL    HW270970  10.373   4.911   8.122 -0.3726  1.5098 -2.2665
54789SOL     OW70971  10.939   7.512  11.284 -0.2426 -0.1396  1.0576
54789SOL    HW170972  11.035   7.505  11.281 -0.3174 -1.5440  1.1565
54789SOL    HW270973  10.920   7.595  11.241  1.0527  0.5343  1.7135
54790SOL     OW70974   9.785  12.150   3.857  0.4338 -0.4117 -0.1504
54790SOL    HW170975   9.792  12.143   3.761 -0.1342 -1.7895 -0.1147
54790SOL    HW270976   9.875  12.156   3.887  0.5973  0.7454 -0.8023
54791SOL     OW70977  12.469   1.438   9.848 -0.3901  0.0226 -0.1302
54791SOL    HW170978  12.544   1.496   9.864 -0.2528 -0.4328  0.9482
54791SOL    HW270979  12.394   1.498   9.838 -0.1231  0.4205  0.2172
54792SOL     OW70980   8.983   5.443   8.386 -0.3695 -0.1311  0.0169
54792SOL    HW170981   8.893   5.434   8.418  0.0585 -0.3100  1.2159
54792SOL    HW270982   9.016   5.353   8.383 -0.1662 -0.0489 -0.2376
54793SOL     OW70983   8.637   6.131   4.054  0.2181  0.3598  0.2182
54793SOL    HW170984   8.714   6.079   4.077 -0.0208  0.5586  1.5764
54793SOL    HW270985   8.635   6.131   3.959 -0.4463 -3.1874  0.0783
54794SOL     OW70986   3.426   0.521   1.179 -0.3581 -0.0912  0.2827
54794SOL    HW170987   3.441   0.469   1.258 -0.0208 -0.5070 -0.0488
54794SOL    HW270988   3.486   0.596   1.189 -0.6320  0.0886  0.6212
54795SOL     OW70989   9.064   6.367   1.684  0.6643 -0.1630 -0.1072
54795SOL    HW170990   9.135   6.375   1.621  0.2701  0.0689 -0.5256
54795SOL    HW270991   9.095   6.415   1.761  1.6185 -1.3911  0.3035
54796SOL     OW70992   4.132  12.337   6.849 -0.0539 -0.0027 -0.0806
54796SOL    HW170993   4.128  12.382   6.933 -2.6280  3.2950 -1.7490
54796SOL    HW270994   4.111  12.245   6.869 -0.6324  0.6741  2.8219
54797SOL     OW70995   2.053   8.536   6.484  0.6312  0.0909  0.3435
54797SOL    HW170996   2.112   8.505   6.414  0.0497 -0.7601  0.2207
54797SOL    HW270997   1.994   8.596   6.440 -1.7823 -2.7712 -0.6836
54798SOL     OW70998   1.976  12.239   7.572  0.1794 -0.0252 -0.1789
54798SOL    HW170999   2.046  12.201   7.623  0.1163 -1.4694 -1.1067
54798SOL    HW271000   2.001  12.331   7.561  1.4763 -0.3101  0.2345
54799SOL     OW71001   4.704  10.359  11.206 -0.0528  0.3869 -0.0385
54799SOL    HW171002   4.669  10.315  11.128 -0.5101 -1.8327  1.3313
54799SOL    HW271003   4.773  10.416  11.172  0.0457 -0.8189 -2.0452
54800SOL     OW71004   8.118   6.146   2.460 -0.2913  0.0365  0.0312
54800SOL    HW171005   8.042   6.193   2.492  0.4143 -0.2979  2.3834
54800SOL    HW271006   8.084   6.061   2.431 -0.9876  0.4368 -0.3563
54801SOL     OW71007   1.279   9.121   5.691  0.0445  0.7229  0.5141
54801SOL    HW171008   1.360   9.078   5.716  0.7959  2.0144  0.3878
54801SOL    HW271009   1.223   9.050   5.658  1.2179 -0.1472  0.3416
54802SOL     OW71010   2.698   4.367   5.445 -0.2695  0.1006 -0.4036
54802SOL    HW171011   2.743   4.363   5.530  1.0829 -3.5904 -1.1201
54802SOL    HW271012   2.611   4.401   5.466  0.2841  0.0412  2.3361
54803SOL     OW71013   8.798   3.180   1.957  0.3586  0.4271 -0.1070
54803SOL    HW171014   8.854   3.238   2.008 -1.1037  1.1299  0.7514
54803SOL    HW271015   8.726   3.158   2.016 -0.9264  0.5529 -1.5808
54804SOL     OW71016  12.580  12.035  11.798  0.1003 -0.1443  0.2894
54804SOL    HW171017  12.495  12.050  11.840  0.0108  0.2765 -0.0286
54804SOL    HW271018  12.557  12.000  11.712  0.2619 -0.4044  0.3520
54805SOL     OW71019   2.853  12.768   9.974 -0.4587 -0.2843  0.2157
54805SOL    HW171020   2.758  12.779   9.974 -0.5969 -1.3341  0.8296
54805SOL    HW271021   2.873  12.735   9.887 -0.8786 -1.6432  0.6104
54806SOL     OW71022  11.288   8.317  10.655 -0.3771 -0.0395 -0.4716
54806SOL    HW171023  11.363   8.300  10.597  1.1208  2.6878  0.5317
54806SOL    HW271024  11.327   8.343  10.738 -2.5017 -1.2551  1.0027
54807SOL     OW71025   5.731  10.155   8.890 -0.2800 -0.3358  0.5597
54807SOL    HW171026   5.799  10.222   8.899 -0.4601  0.0208 -0.5324
54807SOL    HW271027   5.753  10.109   8.809 -1.6683  0.1982 -0.1563
54808SOL     OW71028   6.400  11.033   4.790  0.0274 -0.0435  0.1355
54808SOL    HW171029   6.347  10.982   4.729 -0.1664  1.3316 -0.8915
54808SOL    HW271030   6.456  11.086   4.733  0.0237  1.0803  1.1598
54809SOL     OW71031   9.924   8.614   7.136  0.2253 -0.0696 -0.4546
54809SOL    HW171032   9.842   8.563   7.130  0.4663 -0.4113 -1.0404
54809SOL    HW271033   9.899   8.702   7.108  0.1468 -0.2862 -1.0829
54810SOL     OW71034   5.324  11.434  12.695 -0.0222  0.4117 -0.1760
54810SOL    HW171035   5.282  11.349  12.685 -1.1426  0.7748  1.1614
54810SOL    HW271036   5.292  11.486  12.621 -1.0775  0.3319  0.2078
54811SOL     OW71037   9.645  11.729  10.133 -0.1140 -0.0394  0.7049
54811SOL    HW171038   9.718  11.758  10.186 -1.1407  2.1163  1.0647
54811SOL    HW271039   9.638  11.795  10.063 -0.8715 -0.9483 -0.1195
54812SOL     OW71040  12.710   4.001   4.648 -0.1676  0.3546 -0.1380
54812SOL    HW171041  12.664   3.945   4.711 -3.6869 -0.2677 -2.9345
54812SOL    HW271042  12.764   3.941   4.598 -1.5974 -0.1756 -1.1366
54813SOL     OW71043   2.338   3.089   1.684  0.1383 -0.3237  0.1973
54813SOL    HW171044   2.420   3.068   1.729 -1.1913 -0.7430  2.6096
54813SOL    HW271045   2.342   3.184   1.672  1.1701 -0.3990 -0.1696
54814SOL     OW71046  12.358  11.901   7.838 -0.1613 -0.0901  0.6155
54814SOL    HW171047  12.420  11.829   7.853  2.5860  1.9610 -0.0644
54814SOL    HW271048  12.323  11.921   7.925  1.2228 -0.4167  1.2719
54815SOL     OW71049   1.621   6.373   2.021 -0.0084  0.0822 -0.0959
54815SOL    HW171050   1.613   6.439   2.090 -0.4515  0.3619 -0.4103
54815SOL    HW271051   1.609   6.289   2.066 -2.3577  0.3478 -0.1243
54816SOL     OW71052  11.138  11.780   2.002 -0.5745  0.0794  0.4746
54816SOL    HW171053  11.200  11.749   2.068 -0.7738 -0.3894  0.4484
54816SOL    HW271054  11.052  11.752   2.035 -0.5896 -1.1473 -0.5030
54817SOL     OW71055  10.200  10.812   7.799  0.0735  0.3481  0.2962
54817SOL    HW171056  10.173  10.884   7.857  0.4431  0.6175  0.1407
54817SOL    HW271057  10.146  10.823   7.721 -1.0457 -0.5279  0.9197
54818SOL     OW71058   7.210   5.367   8.028  0.3169 -0.5471 -0.4766
54818SOL    HW171059   7.299   5.392   8.052 -0.5676 -0.0859  2.8141
54818SOL    HW271060   7.157   5.443   8.052 -1.0660 -1.0824 -1.7138
54819SOL     OW71061   3.822  10.334  10.285 -0.3080 -0.1649 -0.1541
54819SOL    HW171062   3.811  10.418  10.330 -0.7569 -0.2246 -0.1520
54819SOL    HW271063   3.863  10.357  10.201 -0.8598  0.1067 -0.3507
54820SOL     OW71064   9.408   8.299   6.754  0.2422  0.1217  0.3120
54820SOL    HW171065   9.338   8.234   6.763  0.8747 -0.6997 -0.5557
54820SOL    HW271066   9.381   8.371   6.811 -0.8492 -0.5743  0.7042
54821SOL     OW71067   5.371  11.643   1.996 -0.7725  0.7205  0.5404
54821SOL    HW171068   5.454  11.657   2.041  1.4350 -2.0973 -2.1649
54821SOL    HW271069   5.322  11.583   2.052 -0.3872  1.2880  1.5011
54822SOL     OW71070   6.138  10.459   9.072  0.1182 -0.1561  0.3823
54822SOL    HW171071   6.225  10.469   9.033 -0.2799  0.5871 -0.3422
54822SOL    HW271072   6.123  10.540   9.120 -0.5363  0.1216 -0.2592
54823SOL     OW71073  10.366  10.946   3.432 -0.1389  0.1748 -0.4533
54823SOL    HW171074  10.422  10.869   3.419 -0.6211 -0.3176  0.3458
54823SOL    HW271075  10.294  10.915   3.487 -0.1245  1.2957  0.2328
54824SOL     OW71076   7.864   4.863   9.490  0.2348 -0.0366 -0.4506
54824SOL    HW171077   7.784   4.883   9.442  0.1000  0.9437  0.1463
54824SOL    HW271078   7.905   4.948   9.505 -0.2020 -0.1730  1.9599
54825SOL     OW71079   8.624  11.045   9.880  0.2311 -0.5329  0.0430
54825SOL    HW171080   8.536  11.080   9.883 -0.2321 -1.6945  0.7387
54825SOL    HW271081   8.672  11.103   9.821 -1.5539 -1.1364 -2.0932
54826SOL     OW71082   9.735   3.613   5.967  0.6142  0.0042 -0.9042
54826SOL    HW171083   9.792   3.678   6.008 -0.0262  0.2979 -0.4816
54826SOL    HW271084   9.793   3.538   5.951  0.7121 -0.4979  1.3965
54827SOL     OW71085  11.251   7.676   3.240  0.1177  0.0437 -0.4400
54827SOL    HW171086  11.327   7.734   3.239 -0.3558  0.6728 -1.5010
54827SOL    HW271087  11.176   7.735   3.253 -0.0919 -0.7715  3.4977
54828SOL     OW71088  10.593   4.598  11.030 -0.2533 -0.1788  0.0218
54828SOL    HW171089  10.642   4.541  11.090 -2.2339 -0.2439  1.7221
54828SOL    HW271090  10.563   4.540  10.960  0.0002 -0.6670  0.3135
54829SOL     OW71091   0.284   7.891   0.817  0.0753  0.1971  0.4459
54829SOL    HW171092   0.343   7.888   0.742 -1.7163 -1.0931 -1.0074
54829SOL    HW271093   0.216   7.953   0.792  0.4080  1.1952  1.8383
54830SOL     OW71094  10.818   6.251  11.063 -0.0506 -0.5883  0.0525
54830SOL    HW171095  10.759   6.320  11.031 -2.6097 -1.5289  2.3825
54830SOL    HW271096  10.814   6.183  10.997  0.2669  0.2958 -0.9046
54831SOL     OW71097   1.912   4.321   5.825  0.3499 -0.0851 -0.3339
54831SOL    HW171098   1.864   4.289   5.748  0.1405  0.0665 -0.2661
54831SOL    HW271099   1.844   4.348   5.886  0.5319  0.8371 -0.5352
54832SOL     OW71100   9.342   1.689   6.964  0.0381 -0.1259  0.1678
54832SOL    HW171101   9.337   1.713   6.871  1.0256  0.7667  0.3214
54832SOL    HW271102   9.314   1.768   7.010 -2.2132 -1.1123  0.6480
54833SOL     OW71103  12.493  10.925   2.608  0.3753  0.1581  0.8599
54833SOL    HW171104  12.475  10.893   2.697 -2.0043  0.2865  0.4715
54833SOL    HW271105  12.447  10.864   2.551  0.3665  1.1184 -0.1924
54834SOL     OW71106   7.268   3.632   2.568  0.0056 -0.0319  0.0632
54834SOL    HW171107   7.262   3.560   2.504 -1.0546 -0.5470  0.7122
54834SOL    HW271108   7.215   3.702   2.531 -0.3066 -0.1934  0.2063
54835SOL     OW71109   3.804   7.892  11.473 -0.4527 -0.3548 -0.5387
54835SOL    HW171110   3.770   7.803  11.484  1.0758 -0.8453  0.5859
54835SOL    HW271111   3.899   7.882  11.481 -0.3304  1.5838  1.3592
54836SOL     OW71112   7.476   5.089   8.302  0.0542 -0.0874  0.2197
54836SOL    HW171113   7.455   5.003   8.339  0.5471  0.2701  1.3874
54836SOL    HW271114   7.503   5.071   8.212 -1.4612 -0.9593 -0.0998
54837SOL     OW71115  10.154   4.595  12.165 -0.2897  0.1774  0.4614
54837SOL    HW171116  10.240   4.579  12.126 -0.8427  2.0431 -1.7393
54837SOL    HW271117  10.096   4.534  12.120  0.0435 -2.5617  3.3704
54838SOL     OW71118   0.104   2.492   8.779 -0.8184 -0.5376  0.4771
54838SOL    HW171119   0.131   2.583   8.779 -1.0083 -0.4718  1.2721
54838SOL    HW271120   0.120   2.462   8.690  1.5372 -0.4012  0.7868
54839SOL     OW71121   6.402  12.670  11.296  0.2645 -0.7265  0.4547
54839SOL    HW171122   6.361  12.602  11.243 -0.8225  0.6494 -0.5387
54839SOL    HW271123   6.438  12.732  11.233 -1.4897  1.2125  1.2341
54840SOL     OW71124   0.035   1.996   0.625 -0.1422 -0.0962  0.0263
54840SOL    HW171125   0.038   2.085   0.591 -0.2874 -0.4448 -0.9370
54840SOL    HW271126  -0.057   1.970   0.615 -0.2169 -0.1501  0.8424
54841SOL     OW71127   1.769   6.642   9.001 -0.3065 -0.3550  0.6709
54841SOL    HW171128   1.764   6.559   8.953  0.6396 -0.2070  0.2953
54841SOL    HW271129   1.678   6.670   9.010 -0.6548 -1.4809  0.8824
54842SOL     OW71130   6.582   5.816   6.999  0.5742  0.3877  0.3706
54842SOL    HW171131   6.515   5.752   6.974  0.6538 -0.0487  1.2329
54842SOL    HW271132   6.605   5.792   7.089  1.3073  1.0365  0.3622
54843SOL     OW71133   4.763   4.740   9.998  0.2379  0.3232 -0.3819
54843SOL    HW171134   4.821   4.732  10.073 -2.0326 -2.1314  1.3033
54843SOL    HW271135   4.810   4.698   9.926  0.5218 -1.9533  1.0255
54844SOL     OW71136   8.769  12.085   3.831 -0.2721  0.0420  0.7733
54844SOL    HW171137   8.761  12.013   3.894  0.2976  1.0290  2.0193
54844SOL    HW271138   8.861  12.084   3.804 -0.6233 -0.6964 -0.4741
54845SOL     OW71139   8.703   6.549   2.605 -0.6132 -0.5103  0.3143
54845SOL    HW171140   8.697   6.628   2.658  1.4544 -2.0071  3.0487
54845SOL    HW271141   8.728   6.580   2.518  1.4465  1.7951  1.6014
54846SOL     OW71142   1.789   1.898   5.972  0.0101 -0.8805 -0.0590
54846SOL    HW171143   1.811   1.882   5.880 -0.9163 -0.5096 -0.3508
54846SOL    HW271144   1.702   1.860   5.983 -0.2174 -0.2177  0.4640
54847SOL     OW71145   8.056   4.921   2.764  0.2751  0.2147 -0.1619
54847SOL    HW171146   8.010   4.842   2.793  1.3507  0.0583  1.1999
54847SOL    HW271147   8.114   4.891   2.694 -1.2197  0.3161 -1.5147
54848SOL     OW71148   4.800   2.758   9.938  0.3432 -0.6042  0.0706
54848SOL    HW171149   4.888   2.796   9.936  0.5174 -0.9579  0.6721
54848SOL    HW271150   4.797   2.699   9.863  0.1057  0.4914 -0.8134
54849SOL     OW71151   4.283  11.115   2.246 -0.1313 -0.0183  0.0563
54849SOL    HW171152   4.368  11.101   2.289  0.0858 -0.6130 -0.5480
54849SOL    HW271153   4.305  11.154   2.161 -0.4104 -0.7188 -0.3494
54850SOL     OW71154   0.766  10.888   2.305 -0.2307 -0.3828 -0.4451
54850SOL    HW171155   0.837  10.938   2.346  0.1590 -0.4923 -0.9775
54850SOL    HW271156   0.776  10.903   2.211 -0.4906 -0.9552 -0.5730
54851SOL     OW71157   7.328  10.147   0.177 -0.5879  0.0545  0.3485
54851SOL    HW171158   7.420  10.129   0.158 -0.2991 -0.0067  1.7022
54851SOL    HW271159   7.321  10.137   0.272 -1.6064  1.8150  0.4935
54852SOL     OW71160   4.873   9.886   7.497  0.7986 -0.5135 -0.0830
54852SOL    HW171161   4.781   9.861   7.504  0.3111  1.0798 -0.5195
54852SOL    HW271162   4.920   9.819   7.547 -0.6615 -0.8660  0.8690
54853SOL     OW71163   3.907   0.614   8.248  0.1846 -0.1373  0.0990
54853SOL    HW171164   3.950   0.579   8.326  0.0280  1.7384  1.0898
54853SOL    HW271165   3.979   0.652   8.196  0.6246 -3.2592 -1.8743
54854SOL     OW71166  10.484   7.412  10.669 -0.3416  0.0521 -0.3386
54854SOL    HW171167  10.480   7.423  10.764 -0.4789 -1.1397 -0.1857
54854SOL    HW271168  10.518   7.495  10.636 -1.3303  0.8786  0.6535
54855SOL     OW71169  12.035   9.966   2.140  0.6024  0.4453 -0.1053
54855SOL    HW171170  12.104   9.923   2.191  0.7410 -1.3976 -1.7408
54855SOL    HW271171  11.966   9.900   2.131 -1.1680  2.0516  0.9565
54856SOL     OW71172   7.740   1.350   8.598  0.0544  0.0456 -0.3181
54856SOL    HW171173   7.749   1.323   8.690  2.5314 -1.3158 -0.8497
54856SOL    HW271174   7.815   1.407   8.583 -0.5235  0.5362 -1.4240
54857SOL     OW71175   8.333  11.371   1.589  0.0713 -0.3971 -0.0794
54857SOL    HW171176   8.369  11.318   1.660 -0.2404  1.5788  1.6399
54857SOL    HW271177   8.259  11.417   1.628  0.1711  1.1123 -1.5383
54858SOL     OW71178   1.760   7.562   9.920 -0.3730  0.2507  0.6597
54858SOL    HW171179   1.801   7.527   9.999  2.4866 -0.3788 -0.9715
54858SOL    HW271180   1.751   7.656   9.937  0.9947  0.2647  1.4287
54859SOL     OW71181   5.934   8.293  12.623 -0.2658  0.9634 -0.3610
54859SOL    HW171182   5.872   8.239  12.574 -1.8637  2.4061 -0.0374
54859SOL    HW271183   5.884   8.325  12.698  0.4927  3.1164 -0.7036
54860SOL     OW71184   5.238   6.011   1.820  0.0291 -0.4035 -0.6396
54860SOL    HW171185   5.312   6.008   1.759 -0.4988  0.8914 -1.3705
54860SOL    HW271186   5.274   6.051   1.899 -0.3385  2.2359 -1.7260
54861SOL     OW71187  12.696   9.119   4.166 -0.2332  0.7330  0.0125
54861SOL    HW171188  12.623   9.168   4.128 -2.0502 -0.6553  1.5220
54861SOL    HW271189  12.678   9.027   4.145  2.2461  0.4571 -1.3657
54862SOL     OW71190   0.343   6.860   0.655 -0.5859 -0.0559  0.0358
54862SOL    HW171191   0.256   6.848   0.617 -0.4707 -0.9384  0.0262
54862SOL    HW271192   0.355   6.955   0.658 -1.4082  0.0683 -0.2751
54863SOL     OW71193   6.468   7.044   7.480  0.2447 -0.5774  0.2709
54863SOL    HW171194   6.444   7.121   7.530  0.2334 -0.3779 -0.0423
54863SOL    HW271195   6.523   7.077   7.410 -1.0085 -0.6395 -0.7870
54864SOL     OW71196   2.883   9.162   9.867  0.0974 -0.4016 -0.2013
54864SOL    HW171197   2.927   9.245   9.886  0.4502 -1.1549  2.6929
54864SOL    HW271198   2.950   9.108   9.826  0.4337  0.1055 -0.3274
54865SOL     OW71199  11.001  12.340   0.024  0.3786 -0.5342 -0.3627
54865SOL    HW171200  10.962  12.348  -0.064  3.3998 -1.4858 -1.9396
54865SOL    HW271201  10.928  12.314   0.080 -1.9819  1.4626 -2.2649
54866SOL     OW71202   1.810   9.930   8.943 -0.1566 -0.0554  0.1662
54866SOL    HW171203   1.812   9.904   9.035 -0.1521 -0.8471 -0.0499
54866SOL    HW271204   1.865   9.867   8.898  0.5943  0.8720 -0.2591
54867SOL     OW71205  11.700   4.519   2.178  0.4361  0.3614 -0.2493
54867SOL    HW171206  11.663   4.458   2.242  0.2297 -0.3977 -1.0854
54867SOL    HW271207  11.658   4.497   2.095 -0.1370  2.0753 -0.4524
54868SOL     OW71208   2.355   9.135   0.944  0.1899 -0.5335 -0.0023
54868SOL    HW171209   2.263   9.159   0.931  0.6451  1.3540  0.0713
54868SOL    HW271210   2.395   9.146   0.858  0.5628 -0.3724  0.1896
54869SOL     OW71211  10.837  11.383   6.038 -0.6284 -0.3113 -0.1612
54869SOL    HW171212  10.851  11.477   6.047 -2.5273  0.3466 -2.8654
54869SOL    HW271213  10.916  11.343   6.076  0.4098  2.3477  0.6945
54870SOL     OW71214   9.416   5.732   1.580  0.1539  0.1451  0.3938
54870SOL    HW171215   9.419   5.657   1.639  0.7779 -0.9781 -1.0110
54870SOL    HW271216   9.345   5.786   1.613 -1.5125 -1.9612  0.4125
54871SOL     OW71217   0.558  11.959   9.434 -0.1445  0.1446  0.0375
54871SOL    HW171218   0.519  12.036   9.391  0.0015 -0.3689 -1.0638
54871SOL    HW271219   0.486  11.920   9.483 -0.0840  1.2928  1.0974
54872SOL     OW71220   1.328   8.386   5.236 -0.0805 -0.4776 -0.4469
54872SOL    HW171221   1.277   8.315   5.275  0.1579  0.1431  1.0822
54872SOL    HW271222   1.265   8.456   5.222  0.2939  0.3176  1.5140
54873SOL     OW71223   5.211   7.158   0.981  0.2738  0.0553 -0.1470
54873SOL    HW171224   5.270   7.220   0.938 -1.3384  1.6087 -0.2305
54873SOL    HW271225   5.156   7.125   0.910 -0.2056  0.0816  0.2109
54874SOL     OW71226   6.310   6.939  11.559  0.2202 -0.3196  0.2362
54874SOL    HW171227   6.262   7.008  11.513  1.6215  0.7964  0.3832
54874SOL    HW271228   6.243   6.873  11.579 -1.2417  1.1526  0.4270
54875SOL     OW71229   6.798   6.176   5.250 -0.1539  0.0730 -0.6823
54875SOL    HW171230   6.833   6.162   5.338 -1.4576 -2.0348 -0.4245
54875SOL    HW271231   6.762   6.265   5.252 -1.2135 -0.3493  1.3086
54876SOL     OW71232   9.411   0.159   7.576  0.2092  0.0826  0.8264
54876SOL    HW171233   9.323   0.159   7.613  0.2710 -0.6533  0.9913
54876SOL    HW271234   9.405   0.103   7.499  0.0425  1.7369 -0.4294
54877SOL     OW71235   2.137   5.458   0.545 -0.0945  0.6951  1.0777
54877SOL    HW171236   2.152   5.434   0.453 -1.5795 -2.0193  1.4564
54877SOL    HW271237   2.219   5.500   0.572  0.4468  1.4033 -1.4053
54878SOL     OW71238  10.632   9.606   1.206 -0.4635 -0.2902 -0.5111
54878SOL    HW171239  10.686   9.540   1.161  0.0385  0.0675 -0.4414
54878SOL    HW271240  10.591   9.558   1.278 -0.0042 -0.5014 -0.3844
54879SOL     OW71241   9.273   6.413   1.524  0.0227 -0.3751 -0.6099
54879SOL    HW171242   9.274   6.478   1.454 -1.0272  0.5578  0.2047
54879SOL    HW271243   9.354   6.427   1.571 -1.4947  2.5875  1.4679
54880SOL     OW71244   7.162   6.856   6.077  0.2542  0.4025 -0.5049
54880SOL    HW171245   7.145   6.822   6.165  0.9126  1.5456  0.0802
54880SOL    HW271246   7.126   6.945   6.078 -1.3664 -0.1697 -1.9832
54881SOL     OW71247  10.492  11.074   9.047 -0.0912 -0.2966  0.5097
54881SOL    HW171248  10.407  11.037   9.025  0.7805 -1.1168 -1.7688
54881SOL    HW271249  10.555  11.018   9.002  1.5954  0.9918  1.1532
54882SOL     OW71250   2.600   3.308   7.902  0.0062  0.0285  0.2842
54882SOL    HW171251   2.625   3.398   7.921 -0.2194  0.0092  0.6839
54882SOL    HW271252   2.672   3.256   7.935 -0.7057 -0.0497  1.7728
54883SOL     OW71253   6.477   1.609   4.243 -0.3310 -0.1857  0.1997
54883SOL    HW171254   6.435   1.643   4.322  1.3323  0.4448  0.8693
54883SOL    HW271255   6.464   1.678   4.178 -1.3542 -0.5264  0.0295
54884SOL     OW71256  11.276  10.481  12.086 -0.1729 -0.5221 -0.1647
54884SOL    HW171257  11.218  10.508  12.157 -1.5356 -2.0498 -0.6247
54884SOL    HW271258  11.352  10.538  12.093 -1.2327  0.7880  1.1817
54885SOL     OW71259   0.899   0.007   8.530 -0.0585 -0.2396 -0.2703
54885SOL    HW171260   0.987   0.024   8.496  0.8149 -1.0498  1.4317
54885SOL    HW271261   0.893  -0.089   8.532 -0.1977 -0.2183  1.4356
54886SOL     OW71262   4.735   2.405   7.855 -0.2028 -0.0591  0.6352
54886SOL    HW171263   4.775   2.427   7.939 -1.3457 -0.1223  1.2219
54886SOL    HW271264   4.641   2.416   7.870 -0.3472  1.4488 -1.0854
54887SOL     OW71265   5.906   2.626   3.996 -0.5150 -0.5303 -0.0207
54887SOL    HW171266   5.837   2.615   4.061 -0.8009 -0.8185 -0.3691
54887SOL    HW271267   5.965   2.691   4.034 -1.4925  0.4616 -0.1475
54888SOL     OW71268  12.066   0.375   3.206 -0.1698 -0.5309 -0.5441
54888SOL    HW171269  12.116   0.376   3.288  0.2277  1.5665 -0.7571
54888SOL    HW271270  12.106   0.304   3.155  0.9679 -0.4924  0.2460
54889SOL     OW71271   2.286   6.303  11.883 -0.0104  0.6385  0.7828
54889SOL    HW171272   2.218   6.260  11.935  0.9021  0.4833  1.8863
54889SOL    HW271273   2.247   6.312  11.796 -1.1060 -0.2496  1.1542
54890SOL     OW71274   4.560   7.133   4.200  0.5187 -0.6881  0.4196
54890SOL    HW171275   4.560   7.089   4.115 -0.1509 -0.4057  0.2739
54890SOL    HW271276   4.468   7.144   4.222  0.6625  0.9808  0.2766
54891SOL     OW71277   0.572   7.147   4.909  0.1519  0.3196 -0.0612
54891SOL    HW171278   0.580   7.053   4.900 -2.6533 -0.4222  2.8739
54891SOL    HW271279   0.508   7.173   4.843 -0.3541 -0.1675  0.2332
54892SOL     OW71280   6.319  10.110   1.956 -0.0517  0.0534 -0.0701
54892SOL    HW171281   6.343  10.102   2.049  1.7273 -0.0918 -0.5143
54892SOL    HW271282   6.252  10.178   1.955 -0.3044 -0.1325  1.3433
54893SOL     OW71283   6.258  10.200   8.370 -0.2155 -0.0902  0.1568
54893SOL    HW171284   6.193  10.190   8.438  1.0374 -0.1047  1.4042
54893SOL    HW271285   6.245  10.125   8.311 -0.3170 -0.9385  1.2429
54894SOL     OW71286   7.087   1.639   5.566  0.5999 -0.1453 -0.6068
54894SOL    HW171287   7.125   1.723   5.540 -0.3183 -0.4827 -3.3926
54894SOL    HW271288   7.162   1.579   5.569  1.1114  0.5203  0.3128
54895SOL     OW71289   2.541   2.373   0.528 -0.0880 -0.1417 -0.4507
54895SOL    HW171290   2.553   2.452   0.474 -1.0441 -0.8177 -1.6881
54895SOL    HW271291   2.447   2.356   0.525  0.0820 -1.2154  0.0039
54896SOL     OW71292   8.256   8.461   5.093 -0.0538 -0.2729 -0.6220
54896SOL    HW171293   8.270   8.435   5.184 -1.1747  1.3888  0.0869
54896SOL    HW271294   8.222   8.382   5.051  1.5763 -1.4057  0.0765
54897SOL     OW71295   3.647  11.836  12.156  0.5355  0.4642 -0.2154
54897SOL    HW171296   3.699  11.858  12.079 -0.9020  0.7711 -1.1481
54897SOL    HW271297   3.607  11.919  12.182  2.5440  0.7988  2.1344
54898SOL     OW71298   2.921   7.076  12.302 -0.6667 -0.7541 -0.4799
54898SOL    HW171299   2.908   7.050  12.393 -1.1058  0.1432 -0.2829
54898SOL    HW271300   3.016   7.075  12.290 -0.6354 -1.6847 -0.2638
54899SOL     OW71301   2.125  11.006   2.964 -0.4437  0.2333  0.5214
54899SOL    HW171302   2.195  11.071   2.970 -1.4904  1.4316 -0.0531
54899SOL    HW271303   2.054  11.040   3.018 -0.9284 -0.5466  0.4033
54900SOL     OW71304  11.049   4.682  11.519 -0.1877 -0.3095  0.0772
54900SOL    HW171305  11.038   4.773  11.491 -0.8319 -0.7104 -1.0194
54900SOL    HW271306  10.961   4.645  11.514 -0.2130 -0.6134  1.9710
54901SOL     OW71307  11.540   7.955   6.751  0.0291  0.1368 -0.0924
54901SOL    HW171308  11.465   7.960   6.692 -0.4130 -0.0209  0.4564
54901SOL    HW271309  11.503   7.953   6.839  0.5654 -2.1873  0.1405
54902SOL     OW71310   6.198   9.780  10.857 -0.0107 -0.1104 -0.5135
54902SOL    HW171311   6.251   9.733  10.922  0.0422 -0.4394 -0.7935
54902SOL    HW271312   6.188   9.718  10.785 -0.6116  0.0250 -0.5474
54903SOL     OW71313   1.595   5.864   5.653  0.6533 -0.0889 -0.4657
54903SOL    HW171314   1.618   5.802   5.584  2.7474  1.0174 -0.8221
54903SOL    HW271315   1.605   5.814   5.734 -0.3150 -0.9517 -0.8459
54904SOL     OW71316   0.394   1.351   3.551  0.2875  0.3358 -0.1885
54904SOL    HW171317   0.378   1.432   3.600  1.9156  0.8067 -0.3737
54904SOL    HW271318   0.342   1.361   3.471 -1.3587  0.1350  0.8052
54905SOL     OW71319   7.938   0.685  10.690 -0.1926  0.0363 -0.1316
54905SOL    HW171320   7.963   0.655  10.602  1.3028  0.9243 -0.0482
54905SOL    HW271321   7.920   0.604  10.739 -2.4622 -0.4445 -1.5915
54906SOL     OW71322   4.753   2.591   1.558 -0.1066 -0.0728 -0.2046
54906SOL    HW171323   4.823   2.593   1.492 -1.0678 -1.6361 -1.3295
54906SOL    HW271324   4.673   2.610   1.509 -0.5606  1.2682  0.9891
54907SOL     OW71325   5.842   8.262   9.771 -0.3715 -0.1082  0.0767
54907SOL    HW171326   5.844   8.321   9.696  0.1452 -0.4966 -0.2197
54907SOL    HW271327   5.921   8.285   9.821 -0.0968 -0.6353 -0.1089
54908SOL     OW71328  11.279   5.335  11.550  0.1980  0.4805 -0.4610
54908SOL    HW171329  11.321   5.268  11.495  0.0593  1.6423 -2.0756
54908SOL    HW271330  11.328   5.332  11.632  0.1439 -1.6289 -0.4440
54909SOL     OW71331   9.904  12.210   9.100  0.1638 -0.5461  0.6820
54909SOL    HW171332   9.957  12.130   9.098  0.2857 -0.5128  1.8555
54909SOL    HW271333   9.819  12.184   9.064 -0.4262 -1.7138  2.7789
54910SOL     OW71334   3.091   6.813  12.124  0.2613 -0.1108 -0.1785
54910SOL    HW171335   2.997   6.828  12.114  0.3278  1.8586  1.5204
54910SOL    HW271336   3.102   6.796  12.218  1.6573  0.3203 -0.2431
54911SOL     OW71337  11.152   3.899   2.631  0.1360 -0.5674  0.3476
54911SOL    HW171338  11.206   3.977   2.643  0.6720 -1.0441  1.1372
54911SOL    HW271339  11.081   3.927   2.573  1.5539 -0.0757 -1.2242
54912SOL     OW71340   4.988   6.683   4.503  0.1432  0.0259  0.0715
54912SOL    HW171341   5.058   6.619   4.486 -0.9263 -1.2176  0.1538
54912SOL    HW271342   5.034   6.766   4.513  1.8544 -1.0604  2.2548
54913SOL     OW71343  11.348   2.167   7.424 -0.4435  0.3925 -0.0594
54913SOL    HW171344  11.325   2.231   7.491  0.2703  0.7424 -0.1378
54913SOL    HW271345  11.433   2.196   7.391  0.0213 -0.7583  0.0941
54914SOL     OW71346   5.836   4.807  11.682  0.2891  0.2050  0.2542
54914SOL    HW171347   5.905   4.858  11.640  2.1538 -1.4837  1.0907
54914SOL    HW271348   5.770   4.872  11.708  2.0199  2.0294  0.3178
54915SOL     OW71349   6.546   9.448   6.842  0.5431  0.0291 -0.2973
54915SOL    HW171350   6.632   9.423   6.875  0.0519 -0.7634  0.4381
54915SOL    HW271351   6.499   9.365   6.834 -0.1773  0.4579 -0.6442
54916SOL     OW71352   4.973  12.590   5.315 -0.0297 -0.2052  0.3420
54916SOL    HW171353   5.021  12.524   5.265  0.1535  0.3991 -0.3035
54916SOL    HW271354   4.893  12.605   5.264 -0.0619  0.0840  0.4748
54917SOL     OW71355   5.339   8.831   2.996 -0.3637 -0.6464  0.4846
54917SOL    HW171356   5.427   8.869   2.994 -0.0331 -1.2479  1.9555
54917SOL    HW271357   5.354   8.737   3.003 -1.1086 -0.7295  1.1295
54918SOL     OW71358   4.760  10.549   3.596  0.7102  0.3754  0.5349
54918SOL    HW171359   4.822  10.551   3.524 -1.6717  1.3028 -1.6690
54918SOL    HW271360   4.770  10.634   3.640  0.8157  0.6283  0.0227
54919SOL     OW71361   3.754   4.960   5.152 -0.0076  0.3425  0.1930
54919SOL    HW171362   3.742   5.025   5.221  0.1644  1.5724 -0.9002
54919SOL    HW271363   3.756   4.876   5.198  1.0227  1.1922  1.7634
54920SOL     OW71364   1.078   5.025   9.456 -0.2197  0.4663  0.6208
54920SOL    HW171365   1.109   4.936   9.447  1.6972  1.1463  0.0403
54920SOL    HW271366   1.143   5.068   9.512 -0.7651  1.6678  0.3792
54921SOL     OW71367  10.684   1.449   8.834  0.4274 -0.1741  0.2036
54921SOL    HW171368  10.655   1.540   8.833 -0.9202 -0.5825 -1.1588
54921SOL    HW271369  10.612   1.401   8.876 -1.3049 -1.2621 -3.5870
54922SOL     OW71370   7.551  12.211   5.997 -0.9378 -0.4798  0.0835
54922SOL    HW171371   7.567  12.283   6.058  1.1718 -0.9354  0.1435
54922SOL    HW271372   7.539  12.254   5.912  1.1987 -0.0061 -0.0485
54923SOL     OW71373  12.498   3.066   8.943 -0.2175 -0.2051 -0.1731
54923SOL    HW171374  12.545   3.016   8.876 -0.5758  0.1726 -0.7118
54923SOL    HW271375  12.564   3.126   8.979  0.3824 -1.4456  0.9052
54924SOL     OW71376   4.976   9.647   2.329  0.1203 -0.0960 -0.0369
54924SOL    HW171377   4.989   9.712   2.261  1.1937  0.5140  0.7197
54924SOL    HW271378   5.043   9.666   2.394 -1.4360 -0.0462  1.6521
54925SOL     OW71379   9.455   2.380   4.804  0.2002  0.0368  0.7445
54925SOL    HW171380   9.520   2.311   4.813 -0.0748 -0.6743 -1.8016
54925SOL    HW271381   9.501   2.451   4.759 -0.3560  0.1428  0.3222
54926SOL     OW71382   7.654  10.203   5.509 -0.9237  0.3428 -0.1443
54926SOL    HW171383   7.582  10.266   5.515 -0.7812  0.4148  0.9359
54926SOL    HW271384   7.732  10.257   5.499 -0.6621  0.4333  1.9565
54927SOL     OW71385   7.841   2.332  10.880 -0.5436  0.2975 -0.0135
54927SOL    HW171386   7.785   2.404  10.908  0.6961  1.1944  0.2780
54927SOL    HW271387   7.885   2.304  10.960  1.1648  1.2157 -0.5771
54928SOL     OW71388   0.289   9.545   2.094 -0.0261  0.2851  0.3342
54928SOL    HW171389   0.295   9.470   2.035 -0.4004  1.1837 -0.8923
54928SOL    HW271390   0.380   9.572   2.107  0.2130 -1.0029  1.6773
54929SOL     OW71391   9.885   5.892   4.240  0.4602 -0.0298  0.7468
54929SOL    HW171392   9.968   5.939   4.244  1.0774 -1.0753  0.5038
54929SOL    HW271393   9.909   5.802   4.220 -0.7545 -0.3003  0.4213
54930SOL     OW71394  11.788   7.047   0.764  0.4616 -0.3769  0.0407
54930SOL    HW171395  11.706   7.079   0.726  0.4341  0.6529  0.9119
54930SOL    HW271396  11.819   7.120   0.818  0.7508 -1.6009  1.6027
54931SOL     OW71397   8.611   1.431   2.880  0.1610  0.1339  0.1180
54931SOL    HW171398   8.586   1.365   2.816 -1.3696 -2.1650  2.8911
54931SOL    HW271399   8.703   1.411   2.900 -0.3094 -1.2911  0.9860
54932SOL     OW71400   4.073  11.176   1.185 -0.2815  0.5781 -0.1156
54932SOL    HW171401   4.060  11.175   1.090  1.1114 -0.2871 -0.3249
54932SOL    HW271402   4.012  11.110   1.218 -0.4499  0.5578 -0.4543
54933SOL     OW71403   6.372   6.887   8.869  0.5231 -0.2733 -0.4202
54933SOL    HW171404   6.283   6.863   8.842  0.8591 -1.2374 -0.7470
54933SOL    HW271405   6.360   6.953   8.937 -0.4298 -0.0740 -0.7652
54934SOL     OW71406   9.313   9.390   1.871 -0.0893  0.3757  0.3216
54934SOL    HW171407   9.242   9.414   1.811 -0.5426 -0.4936  0.4880
54934SOL    HW271408   9.285   9.422   1.956  1.1107  2.6969 -0.0873
54935SOL     OW71409   3.474  10.147  10.864  0.1189 -0.1324  0.1958
54935SOL    HW171410   3.469  10.220  10.926  0.8160 -1.0873  1.4260
54935SOL    HW271411   3.540  10.089  10.901 -0.4057 -1.3834 -0.7690
54936SOL     OW71412   5.106  10.654   5.027 -0.0768 -0.7161  0.2782
54936SOL    HW171413   5.085  10.649   4.934  0.0369  1.0082  0.1328
54936SOL    HW271414   5.119  10.563   5.053 -2.4116 -1.4619 -0.8431
54937SOL     OW71415   0.871   8.042  11.543 -0.3920  0.0134  0.1376
54937SOL    HW171416   0.893   8.024  11.634  0.7670  2.1013  0.3114
54937SOL    HW271417   0.905   8.130  11.526 -0.8894 -0.1780 -2.2131
54938SOL     OW71418   7.409   7.506   8.693 -0.6116  0.4959  0.6141
54938SOL    HW171419   7.416   7.566   8.619  1.1832  0.2903  0.5617
54938SOL    HW271420   7.418   7.419   8.654  0.7903  0.4020  1.0610
54939SOL     OW71421   9.993   8.502   7.399  0.1484  0.4022 -0.3643
54939SOL    HW171422   9.934   8.427   7.395 -0.4597  0.9064 -1.0123
54939SOL    HW271423   9.977   8.550   7.318  1.1474  0.7793 -0.3501
54940SOL     OW71424  10.509   2.658  10.337 -0.0663 -0.2239  0.3154
54940SOL    HW171425  10.563   2.701  10.404 -0.5150  0.2276  0.3970
54940SOL    HW271426  10.498   2.568  10.369  0.8365 -0.3896  0.1695
54941SOL     OW71427   9.902   1.337   9.576  0.4131  0.1084 -0.0595
54941SOL    HW171428   9.881   1.430   9.571  1.4784  0.5538  2.4121
54941SOL    HW271429   9.891   1.315   9.669 -2.6902 -2.9864 -0.9472
54942SOL     OW71430  12.096   0.494   6.162  0.3009  0.9711  0.1171
54942SOL    HW171431  12.096   0.527   6.072  0.7495  0.3469 -0.1208
54942SOL    HW271432  12.157   0.553   6.208  0.6620  0.8327 -0.1718
54943SOL     OW71433   2.459   4.113  12.777  0.0881 -1.0437 -0.0827
54943SOL    HW171434   2.494   4.198  12.752  0.1817 -1.5666 -1.8912
54943SOL    HW271435   2.364   4.125  12.778  0.1395 -0.6337  0.8683
54944SOL     OW71436  12.175   9.698   6.674  0.4938 -0.9107 -0.2265
54944SOL    HW171437  12.082   9.677   6.676  0.5469 -1.1874 -0.6211
54944SOL    HW271438  12.189   9.737   6.588  0.6718 -0.5185 -0.0260
54945SOL     OW71439   7.617   8.603   6.112  0.0078  0.0903 -0.0535
54945SOL    HW171440   7.589   8.541   6.045  1.5114  0.4202 -1.0476
54945SOL    HW271441   7.565   8.681   6.095 -0.9121 -0.4314  0.3301
54946SOL     OW71442   3.062   6.807   9.474 -0.1575  0.2212 -0.1008
54946SOL    HW171443   2.972   6.836   9.463 -0.6560 -1.1424  0.1560
54946SOL    HW271444   3.115   6.874   9.430 -1.2820  1.0557 -0.2221
54947SOL     OW71445   8.432   2.549  10.612 -0.0316 -0.1028  0.7470
54947SOL    HW171446   8.484   2.490  10.667  1.5239 -1.0813 -1.5836
54947SOL    HW271447   8.473   2.635  10.622  1.5501 -0.6842 -0.3418
54948SOL     OW71448   3.995   7.158  11.447  0.0598  0.1646  0.0206
54948SOL    HW171449   3.940   7.095  11.493  2.1776 -1.9870 -0.1838
54948SOL    HW271450   3.934   7.223  11.412 -2.3366 -2.0605 -0.1905
54949SOL     OW71451   7.059  10.040   3.659  0.6266  0.0881 -0.3565
54949SOL    HW171452   7.031   9.975   3.724 -0.7447 -0.9181 -1.8498
54949SOL    HW271453   6.989  10.039   3.593  1.6568  1.4959 -1.5480
54950SOL     OW71454   5.336   6.839   8.598  0.2319  0.5243 -0.2044
54950SOL    HW171455   5.361   6.813   8.510  1.4385  0.2966  0.1969
54950SOL    HW271456   5.348   6.934   8.600 -2.4812  0.9896 -1.1149
54951SOL     OW71457  10.392  12.673   1.555 -0.5168 -0.1295  0.0128
54951SOL    HW171458  10.320  12.635   1.505  0.5803  0.5421 -2.1869
54951SOL    HW271459  10.364  12.763   1.572 -0.6281 -0.1792  0.0965
54952SOL     OW71460   2.938   3.943  10.688  0.3646  0.2970  0.0474
54952SOL    HW171461   2.861   3.890  10.665  1.0550 -0.4484 -0.5911
54952SOL    HW271462   2.988   3.949  10.607 -0.2348  2.9217 -0.2394
54953SOL     OW71463   1.467   5.093  10.807  0.4420  0.1834  0.1828
54953SOL    HW171464   1.534   5.028  10.787 -0.1340 -1.1872  2.4320
54953SOL    HW271465   1.392   5.042  10.837 -0.5191  1.8370  0.7022
54954SOL     OW71466   4.028   8.450   4.055  0.2348 -0.5894  0.1803
54954SOL    HW171467   4.023   8.466   3.961 -0.6244 -1.6819  0.0170
54954SOL    HW271468   3.943   8.411   4.077  1.3407 -2.7781  0.8994
54955SOL     OW71469   3.665  10.355   5.461 -0.0737 -0.0997 -0.1919
54955SOL    HW171470   3.607  10.281   5.477  1.1894 -0.9235  0.8142
54955SOL    HW271471   3.613  10.416   5.409 -1.6576 -1.0010  0.2760
54956SOL     OW71472  12.281   2.705   0.065  0.4511  0.1059 -0.4609
54956SOL    HW171473  12.271   2.760  -0.013  1.0543 -1.2903 -1.5918
54956SOL    HW271474  12.207   2.644   0.060  1.5652 -1.2647 -1.0887
54957SOL     OW71475   4.622  12.045   3.094  0.5125 -0.0329 -0.1081
54957SOL    HW171476   4.621  12.140   3.087 -1.8004 -0.0867 -1.5425
54957SOL    HW271477   4.583  12.014   3.012  3.9485 -2.4023 -1.0599
54958SOL     OW71478   7.466   9.166   1.974  0.0172  0.8527  0.1082
54958SOL    HW171479   7.379   9.183   1.938  0.0017 -0.3466 -0.4829
54958SOL    HW271480   7.526   9.213   1.916 -0.0531 -0.5932 -1.2132
54959SOL     OW71481   3.098  10.200   6.833 -0.4624  0.4182 -0.1282
54959SOL    HW171482   3.091  10.207   6.928 -1.2144  0.3616 -0.1706
54959SOL    HW271483   3.046  10.272   6.799 -1.0049 -0.1347 -0.5002
54960SOL     OW71484  12.493   9.435   7.803  0.1559 -0.6832 -0.4325
54960SOL    HW171485  12.549   9.383   7.746 -0.1117  0.0420 -1.3868
54960SOL    HW271486  12.529   9.524   7.796  0.1116 -0.5808  0.5327
54961SOL     OW71487   6.104   0.431   1.943 -0.0624 -0.0302  0.7628
54961SOL    HW171488   6.050   0.431   1.864  0.2041 -1.0549  0.5734
54961SOL    HW271489   6.183   0.480   1.917 -0.5811  0.8819  0.8418
54962SOL     OW71490  12.052   7.671   6.652  0.5026 -0.5785 -0.2234
54962SOL    HW171491  12.108   7.594   6.661 -1.3488 -1.9932 -0.2256
54962SOL    HW271492  12.040   7.682   6.558  0.6446 -0.3550 -0.2181
54963SOL     OW71493  11.445   5.080   2.171 -0.2652 -0.5572  0.0699
54963SOL    HW171494  11.366   5.038   2.137 -0.0362 -1.6673  0.8348
54963SOL    HW271495  11.463   5.034   2.254  0.4260  0.5782  0.5771
54964SOL     OW71496  11.752   1.403   5.826 -0.0447  0.3155  0.1452
54964SOL    HW171497  11.718   1.343   5.760  1.1815  1.4972 -1.6899
54964SOL    HW271498  11.847   1.404   5.810  0.2112  1.1060  1.5382
54965SOL     OW71499   5.600   1.319   5.238  0.5052 -0.3610 -0.0464
54965SOL    HW171500   5.669   1.371   5.279  0.6591 -1.3745  1.0267
54965SOL    HW271501   5.644   1.273   5.166  0.8373 -0.6123  0.3166
54966SOL     OW71502   6.205   6.371   0.354  0.2768 -0.0405  0.2429
54966SOL    HW171503   6.153   6.332   0.425 -0.4478  0.5944  0.0681
54966SOL    HW271504   6.273   6.422   0.399 -0.1403  0.3052  0.4824
54967SOL     OW71505   3.860   7.801   8.380  0.5369  0.5686  0.4747
54967SOL    HW171506   3.833   7.889   8.407  1.1002  0.4505  1.4924
54967SOL    HW271507   3.930   7.778   8.441  0.4632 -0.5521  0.1603
54968SOL     OW71508   9.438  11.790   9.576  0.2025 -0.6262  0.1974
54968SOL    HW171509   9.454  11.882   9.554 -2.4060 -0.4629 -1.4648
54968SOL    HW271510   9.350  11.773   9.544 -0.2226 -3.1617  2.3840
54969SOL     OW71511   1.362  12.018   2.992 -0.0506 -0.2861  0.2028
54969SOL    HW171512   1.366  12.037   2.898  1.4168 -0.1576  0.2594
54969SOL    HW271513   1.327  11.930   2.998  1.4419 -0.9774 -0.5985
54970SOL     OW71514   6.695  12.466  10.711 -0.3086  0.1064 -0.1034
54970SOL    HW171515   6.719  12.504  10.796  0.6289  0.1653 -0.3843
54970SOL    HW271516   6.632  12.528  10.674 -0.9223 -0.0424  0.6403
54971SOL     OW71517  11.565   6.490   8.311  0.0909  0.9051  0.2259
54971SOL    HW171518  11.517   6.413   8.341 -0.8400  2.5063  3.2744
54971SOL    HW271519  11.657   6.467   8.325 -0.1610  0.3100  0.9848
54972SOL     OW71520   4.694   5.689  11.036 -0.2838 -0.2859 -0.3470
54972SOL    HW171521   4.694   5.753  10.965  2.1354 -1.7848 -1.8365
54972SOL    HW271522   4.642   5.616  11.004 -0.1577 -0.4956 -0.0770
54973SOL     OW71523   9.843   3.674   3.254  0.3064  0.1312  0.5866
54973SOL    HW171524   9.755   3.660   3.218  0.9644 -0.0967 -0.9547
54973SOL    HW271525   9.886   3.589   3.248  0.5680  0.1717  1.6043
54974SOL     OW71526   6.659   8.564   6.924  0.2593 -0.0561 -0.0031
54974SOL    HW171527   6.575   8.526   6.898 -0.1741  0.6238  0.3627
54974SOL    HW271528   6.717   8.489   6.936 -0.1830 -0.5059 -0.6550
54975SOL     OW71529   8.462   9.967   3.483 -0.1648 -0.0192 -0.5155
54975SOL    HW171530   8.553   9.968   3.510  0.0606 -1.4486 -1.1382
54975SOL    HW271531   8.424  10.046   3.522  1.1046  0.1095  0.5036
54976SOL     OW71532   0.616   8.048   8.932  0.1789  0.1167  0.3344
54976SOL    HW171533   0.666   8.019   9.008  1.4274  0.2215 -0.4231
54976SOL    HW271534   0.645   8.137   8.916  2.0506 -0.7899 -1.9101
54977SOL     OW71535   5.357  11.970   9.109 -0.2985 -0.3734 -0.1171
54977SOL    HW171536   5.391  12.030   9.176 -3.7173  2.0993 -0.3378
54977SOL    HW271537   5.334  11.890   9.157 -1.6209  0.9261  1.5295
54978SOL     OW71538  10.453   7.696   6.332  0.6048 -0.3546  0.3899
54978SOL    HW171539  10.375   7.698   6.388  1.4756  1.1516  1.6362
54978SOL    HW271540  10.519   7.744   6.382  1.9619 -0.4952 -1.1969
54979SOL     OW71541   8.239  10.914   0.104 -0.2222  0.2524 -0.2850
54979SOL    HW171542   8.259  10.969   0.180 -1.0320 -0.1172  0.2009
54979SOL    HW271543   8.306  10.938   0.039  0.5567  0.4710  0.5850
54980SOL     OW71544  12.084   1.314  10.061  0.1596 -0.2835 -0.1158
54980SOL    HW171545  12.034   1.345   9.986 -0.4363 -3.2434 -1.0865
54980SOL    HW271546  12.089   1.219  10.049  3.3947 -0.4713  1.5895
54981SOL     OW71547   8.990   8.206   2.653 -0.1277  0.3208  0.6023
54981SOL    HW171548   8.895   8.204   2.665 -0.1631 -3.4907  0.8697
54981SOL    HW271549   9.024   8.252   2.730 -1.6771  1.0577  0.8794
54982SOL     OW71550   7.514  11.665   1.764  0.0521  0.3178 -0.0063
54982SOL    HW171551   7.525  11.738   1.704 -1.0607  0.7035  0.2419
54982SOL    HW271552   7.599  11.621   1.764  0.0766  0.2945 -1.8590
54983SOL     OW71553   7.633   2.096   1.393  0.3741 -0.0437 -0.0265
54983SOL    HW171554   7.705   2.053   1.347  0.3190  0.7747 -0.9056
54983SOL    HW271555   7.564   2.105   1.326 -0.7204 -1.1705  0.8930
54984SOL     OW71556   6.452   9.405   8.940  0.3202 -0.2471  0.0270
54984SOL    HW171557   6.499   9.440   8.865 -0.1513  1.6561  0.5624
54984SOL    HW271558   6.513   9.412   9.013  0.4753 -1.2621  0.0014
54985SOL     OW71559   5.135   5.377   1.005  0.0495  0.2170 -0.4470
54985SOL    HW171560   5.166   5.296   1.046  1.5859  1.0053  0.0373
54985SOL    HW271561   5.215   5.421   0.976 -0.7455  1.5951 -0.6332
54986SOL     OW71562  10.890   9.990   9.691  0.4163  0.7866 -0.0801
54986SOL    HW171563  10.834   9.997   9.768  0.7304  1.8377  0.0562
54986SOL    HW271564  10.934   9.905   9.701 -1.8450 -0.5450 -0.6705
54987SOL     OW71565  10.135   9.711   3.378  0.1965  0.3211  0.3764
54987SOL    HW171566  10.223   9.747   3.382  0.5163 -0.4513  0.5601
54987SOL    HW271567  10.117   9.702   3.284 -0.4012  2.1391  0.2958
54988SOL     OW71568   5.939  10.124   2.954  0.3018 -0.3037  0.4805
54988SOL    HW171569   5.884  10.061   2.908  0.8256 -0.8601  0.6103
54988SOL    HW271570   5.994  10.071   3.012  1.3669  0.1884 -0.0455
54989SOL     OW71571   7.077   3.808   7.387  0.2315  0.3652 -0.6977
54989SOL    HW171572   6.997   3.763   7.416  0.8362  0.4486  1.2593
54989SOL    HW271573   7.050   3.900   7.379 -0.1708  0.1984 -1.2961
54990SOL     OW71574   4.068   0.161   7.868  0.0707 -0.2219  0.1390
54990SOL    HW171575   4.090   0.214   7.944  0.9078  0.3613 -0.4849
54990SOL    HW271576   4.115   0.078   7.882 -1.9253 -1.1724  1.5268
54991SOL     OW71577  12.012   8.775   9.763  0.2278  0.0530  0.2934
54991SOL    HW171578  12.048   8.687   9.759 -0.2544 -0.1396  0.1416
54991SOL    HW271579  12.012   8.797   9.856 -0.0871 -0.2892  0.3754
54992SOL     OW71580   6.566   0.316  11.756  0.3566  0.2334  0.4022
54992SOL    HW171581   6.604   0.230  11.739 -0.3886  0.1823 -1.3365
54992SOL    HW271582   6.517   0.306  11.837 -1.9810 -1.8587 -1.1270
54993SOL     OW71583   8.600   6.125   2.891  0.2108 -0.0683 -0.1888
54993SOL    HW171584   8.631   6.194   2.833  2.6005 -0.1201  0.9033
54993SOL    HW271585   8.632   6.044   2.852 -0.5789 -0.3623 -0.2416
54994SOL     OW71586  11.355   9.659  11.225 -0.1265  0.6445 -0.0394
54994SOL    HW171587  11.308   9.731  11.268 -0.5230 -0.4916  1.5484
54994SOL    HW271588  11.296   9.584  11.233  1.1270 -0.3449  0.2377
54995SOL     OW71589  11.986   2.729   2.965  0.1280 -0.1682  0.2332
54995SOL    HW171590  11.941   2.813   2.973  0.3666  0.1728 -1.6451
54995SOL    HW271591  11.942   2.686   2.892  0.4623 -1.4079  0.7396
54996SOL     OW71592  10.726  11.904   3.929 -0.1432 -0.5417 -0.1244
54996SOL    HW171593  10.666  11.901   4.004 -0.3724 -1.2113 -0.3285
54996SOL    HW271594  10.805  11.946   3.963 -0.3620 -0.5592  0.4158
54997SOL     OW71595   0.017  12.222   7.875  0.1996  0.3801  0.0907
54997SOL    HW171596   0.006  12.293   7.811  1.7630  1.3236  0.8258
54997SOL    HW271597  -0.068  12.217   7.919 -1.5019 -1.3278 -2.9790
54998SOL     OW71598  11.626   5.489  10.673 -0.0850  1.0249  0.2164
54998SOL    HW171599  11.569   5.510  10.599  0.1319 -0.7601 -0.5159
54998SOL    HW271600  11.686   5.423  10.638  0.6488  0.8639  1.7327
54999SOL     OW71601  11.554   5.258   9.171  0.8635  0.3043 -0.1147
54999SOL    HW171602  11.503   5.322   9.122  1.1895 -0.7698 -1.9358
54999SOL    HW271603  11.522   5.265   9.261  0.0557  2.1458 -0.5014
55000SOL     OW71604   6.235  10.263   1.247 -0.6003 -0.3354  0.6310
55000SOL    HW171605   6.246  10.335   1.184 -0.4014 -0.6353  0.3182
55000SOL    HW271606   6.141  10.258   1.261 -0.6020  0.1267  0.8217
55001SOL     OW71607   0.317   7.641   6.063  0.0477 -0.0942 -0.3854
55001SOL    HW171608   0.365   7.560   6.081 -0.2374 -0.1611  0.0993
55001SOL    HW271609   0.361   7.679   5.986 -0.5707 -1.3328 -1.3945
55002SOL     OW71610   8.751   6.778   7.440 -0.3571 -0.1957  0.7917
55002SOL    HW171611   8.779   6.723   7.367 -1.7032 -0.3589  0.3762
55002SOL    HW271612   8.665   6.811   7.413 -1.1385 -0.7050  2.5383
55003SOL     OW71613   8.855  11.363   0.355 -0.1655  0.6393  0.0995
55003SOL    HW171614   8.855  11.271   0.329  1.2902  0.4986  0.5146
55003SOL    HW271615   8.877  11.362   0.448 -0.8364  1.3851  0.2823
55004SOL     OW71616  12.775   7.249   4.081 -0.3101 -0.5611 -0.3927
55004SOL    HW171617  12.722   7.184   4.128 -2.5917  1.1317 -0.4508
55004SOL    HW271618  12.755   7.233   3.989 -1.0133  0.2561 -0.4013
55005SOL     OW71619   9.707   0.685   6.406 -0.2096 -1.0215  0.3561
55005SOL    HW171620   9.791   0.671   6.361 -0.3469  0.7631 -0.5456
55005SOL    HW271621   9.666   0.757   6.358 -0.6558  0.5819  2.9695
55006SOL     OW71622   2.408   2.417   3.322 -0.1836 -0.3354  0.3833
55006SOL    HW171623   2.407   2.345   3.258 -1.9428 -1.2784  1.3911
55006SOL    HW271624   2.342   2.478   3.290 -0.0101 -0.0783  0.5183
55007SOL     OW71625   9.479  11.812  10.522 -1.0052 -0.0786 -0.0571
55007SOL    HW171626   9.445  11.827  10.611 -0.7894 -0.1771  0.0440
55007SOL    HW271627   9.532  11.890  10.504 -3.0268  1.1468 -1.0841
55008SOL     OW71628   7.228   8.618   3.059  0.3902  0.0920 -0.1344
55008SOL    HW171629   7.221   8.698   3.006 -0.7633 -0.1297 -0.3282
55008SOL    HW271630   7.322   8.601   3.063  0.8171  2.2891  1.1465
55009SOL     OW71631  11.093   4.292  12.617  0.0711  0.3740  0.0315
55009SOL    HW171632  11.127   4.357  12.556  1.1106 -0.1137  0.0699
55009SOL    HW271633  11.170   4.243  12.645 -0.4984  0.0629  1.1172
55010SOL     OW71634   0.233   4.754   8.721 -0.1663  0.0711 -0.0553
55010SOL    HW171635   0.229   4.712   8.635 -0.1260 -1.2475  0.5739
55010SOL    HW271636   0.326   4.758   8.742 -0.1520  0.6997 -0.2007
55011SOL     OW71637   7.016   8.721  11.139 -0.5536  0.2094  0.4267
55011SOL    HW171638   7.003   8.732  11.233 -1.1919 -0.7107  0.4626
55011SOL    HW271639   7.085   8.783  11.117 -1.2027  1.2733  1.2836
55012SOL     OW71640  10.389  11.731   2.143 -0.0537  0.3064 -0.3305
55012SOL    HW171641  10.417  11.668   2.077 -1.6867  2.0133 -2.8282
55012SOL    HW271642  10.300  11.703   2.165  0.4336 -0.1750  1.1354
55013SOL     OW71643   2.846   5.150   6.424 -0.2695 -0.5753 -0.2798
55013SOL    HW171644   2.850   5.211   6.350  1.9800  0.1116  0.3136
55013SOL    HW271645   2.754   5.126   6.431 -1.0926  1.9988 -1.1732
55014SOL     OW71646   6.115  11.674   8.570 -0.2863  0.5095  0.1830
55014SOL    HW171647   6.150  11.587   8.586  0.0406  0.4393 -0.8219
55014SOL    HW271648   6.110  11.715   8.656  1.9592  0.4033  0.4177
55015SOL     OW71649   2.086   2.278   3.944  0.3044 -0.4058  0.3077
55015SOL    HW171650   2.099   2.217   3.872 -0.6550 -0.4520  0.1575
55015SOL    HW271651   2.008   2.328   3.919  0.6693  0.4062  0.7494
55016SOL     OW71652  12.052  11.826  11.365 -0.4633  0.7738 -0.1118
55016SOL    HW171653  12.006  11.748  11.395  1.1993  0.1427  0.9235
55016SOL    HW271654  11.992  11.898  11.385 -1.4099 -0.1000  0.2752
55017SOL     OW71655   3.484   2.597   2.207  0.4451 -0.0796  0.1308
55017SOL    HW171656   3.534   2.529   2.251 -0.4436 -0.2289  0.9445
55017SOL    HW271657   3.504   2.585   2.114  0.2497 -1.4961  0.2515
55018SOL     OW71658   3.952  10.892   7.590  0.0239 -0.3060  0.7703
55018SOL    HW171659   3.869  10.909   7.633 -0.2142  0.7995 -0.0804
55018SOL    HW271660   4.016  10.890   7.662 -0.2331  2.3477  1.1998
55019SOL     OW71661  12.546   7.117   7.996 -0.1715  0.1497 -0.4531
55019SOL    HW171662  12.469   7.063   8.017 -1.9527  1.1428 -3.6996
55019SOL    HW271663  12.526   7.203   8.034 -0.0516  0.0737 -0.2159
55020SOL     OW71664   0.546   7.112  10.239  0.5901  0.2378 -0.3642
55020SOL    HW171665   0.467   7.162  10.215 -1.1313 -3.5591 -3.8638
55020SOL    HW271666   0.513   7.041  10.293  2.0304 -0.1646  0.0185
55021SOL     OW71667  10.793   2.289   1.723  0.6110  0.3054 -0.3472
55021SOL    HW171668  10.867   2.320   1.777  0.1566 -0.4882  0.7746
55021SOL    HW271669  10.764   2.208   1.767  0.3341 -0.4741 -1.9075
55022SOL     OW71670   8.567  12.059   2.224 -0.2829 -0.5282  0.4266
55022SOL    HW171671   8.592  11.966   2.223  0.6081 -0.3024  0.7838
55022SOL    HW271672   8.548  12.077   2.317 -1.9500 -0.7163  0.1673
55023SOL     OW71673  10.648   7.968  12.449 -0.0747 -0.2968  0.0019
55023SOL    HW171674  10.578   8.023  12.484  0.5216  1.3054 -1.1761
55023SOL    HW271675  10.606   7.885  12.429 -2.0599  1.0906 -2.0888
55024SOL     OW71676   4.358  10.307   2.663  0.2206 -0.4621  0.3365
55024SOL    HW171677   4.319  10.282   2.579 -0.0788 -0.2391  0.4065
55024SOL    HW271678   4.367  10.402   2.657 -2.0408 -0.1129  1.4723
55025SOL     OW71679   6.139  10.699   0.865  0.0233 -0.6723 -0.5156
55025SOL    HW171680   6.224  10.738   0.842 -0.9971  1.9934 -0.1384
55025SOL    HW271681   6.119  10.641   0.793  1.1338  0.4188 -1.7685
55026SOL     OW71682   2.792   3.161  11.097  0.1447 -0.2266  0.4048
55026SOL    HW171683   2.847   3.121  11.030 -1.5906  0.6147 -1.6201
55026SOL    HW271684   2.832   3.246  11.114 -1.2624  1.0941 -2.2678
55027SOL     OW71685   9.736   4.298   7.821 -0.2610 -0.1214 -0.2135
55027SOL    HW171686   9.815   4.296   7.767  0.5905  0.4326  0.9574
55027SOL    HW271687   9.690   4.377   7.794 -0.2946 -0.3208 -0.7420
55028SOL     OW71688  10.317   4.885   2.835  0.5624  0.0332  0.0635
55028SOL    HW171689  10.233   4.838   2.831  1.3639 -1.3297 -2.7325
55028SOL    HW271690  10.379   4.820   2.868  1.0265  0.1724 -0.5250
55029SOL     OW71691   8.556   9.316   5.056 -0.4242 -0.2912 -0.7882
55029SOL    HW171692   8.600   9.245   5.104  0.3558  0.6442 -0.0926
55029SOL    HW271693   8.608   9.394   5.074 -1.8010  0.6611 -0.7550
55030SOL     OW71694   2.859   9.996   6.969  0.3145 -0.1765  0.3588
55030SOL    HW171695   2.930   9.943   7.005  1.1716  0.5339 -0.2641
55030SOL    HW271696   2.861   9.979   6.875 -0.1703  0.0627  0.3006
55031SOL     OW71697   6.785  10.656   5.318 -0.3557 -0.3279  0.2697
55031SOL    HW171698   6.776  10.569   5.281  0.0810  0.3407 -1.5104
55031SOL    HW271699   6.826  10.642   5.403 -0.4351 -1.8603  0.0752
55032SOL     OW71700   9.237  11.546   1.278 -0.8705 -0.8032  0.4708
55032SOL    HW171701   9.256  11.486   1.206  1.7038  2.2634 -1.7407
55032SOL    HW271702   9.227  11.490   1.355  0.9159 -4.0241 -1.4210
55033SOL     OW71703   9.263   8.689   8.657  0.1134 -0.6348  0.4594
55033SOL    HW171704   9.181   8.708   8.702 -0.3755  0.7807 -0.9191
55033SOL    HW271705   9.246   8.608   8.610 -0.0193 -1.0725  1.2423
55034SOL     OW71706   3.064   0.467   9.804  0.1200 -0.6831 -0.7831
55034SOL    HW171707   2.987   0.421   9.770 -2.4017  2.0882  0.7084
55034SOL    HW271708   3.050   0.470   9.899  0.5306  2.2794 -0.7255
55035SOL     OW71709   9.743   0.102   0.386  0.3621  0.2304 -0.4235
55035SOL    HW171710   9.711   0.025   0.339  1.0382 -0.2682 -0.0852
55035SOL    HW271711   9.786   0.155   0.319  1.7356 -0.6979 -0.3268
55036SOL     OW71712  10.119   8.254   5.345 -0.1302 -0.2196  0.0045
55036SOL    HW171713  10.192   8.193   5.331  1.0972  1.4815 -1.4621
55036SOL    HW271714  10.145   8.305   5.422  1.2808  1.7085 -1.6459
55037SOL     OW71715   5.186   8.454   7.421 -0.4034  0.2138 -0.1060
55037SOL    HW171716   5.211   8.417   7.506 -2.3522  1.8187  1.2652
55037SOL    HW271717   5.105   8.408   7.399 -0.7790  0.9372 -0.2626
55038SOL     OW71718   0.971   2.238   6.381 -0.3418 -0.8513 -0.2670
55038SOL    HW171719   0.882   2.271   6.375 -0.4133 -1.1243 -0.7352
55038SOL    HW271720   0.961   2.144   6.394 -0.1316 -0.7658  0.5741
55039SOL     OW71721   5.984   5.279   7.641 -0.1625  0.0638  0.1463
55039SOL    HW171722   5.909   5.316   7.687 -1.1107  0.4242 -1.5777
55039SOL    HW271723   5.966   5.185   7.637  0.7848 -0.2240  1.9648
55040SOL     OW71724   9.177  10.163  12.655 -0.4008 -0.0093  0.0488
55040SOL    HW171725   9.157  10.198  12.742  0.5636 -0.4010  0.4464
55040SOL    HW271726   9.268  10.135  12.661 -0.2806  0.0754 -1.1354
55041SOL     OW71727   4.255   1.894   1.687 -0.7841  0.3174  0.0940
55041SOL    HW171728   4.313   1.943   1.744  0.7117 -0.3859 -0.7645
55041SOL    HW271729   4.282   1.803   1.697  1.9380  0.3842 -4.1570
55042SOL     OW71730  11.578   1.118   3.561 -0.3614  0.3090 -0.0346
55042SOL    HW171731  11.599   1.083   3.648  0.2973 -0.6454 -0.5694
55042SOL    HW271732  11.663   1.141   3.523 -0.4942 -0.8393 -1.0721
55043SOL     OW71733   0.498   0.942  12.021  0.1761  0.0573  0.2739
55043SOL    HW171734   0.437   0.871  12.002  0.8213  0.0843 -2.4180
55043SOL    HW271735   0.519   0.932  12.114 -1.2681 -2.0326  0.4546
55044SOL     OW71736   3.458   1.695  10.113  0.1138  0.1774 -0.0220
55044SOL    HW171737   3.468   1.599  10.118  0.5880  0.1097 -1.5432
55044SOL    HW271738   3.417   1.719  10.196  1.3148 -1.1695  1.0361
55045SOL     OW71739   1.456   7.395   2.567 -0.0811  0.0757  0.1661
55045SOL    HW171740   1.516   7.470   2.562 -2.3792  2.0080 -0.0553
55045SOL    HW271741   1.481   7.340   2.493  2.5718 -0.1952  1.1351
55046SOL     OW71742  12.180  12.281  11.542 -0.2683 -0.5755 -0.2426
55046SOL    HW171743  12.268  12.246  11.523 -1.0605 -2.0102 -1.4988
55046SOL    HW271744  12.131  12.204  11.572 -1.3216  0.0501 -0.3376
55047SOL     OW71745   1.877   1.422   3.306  0.5972 -0.0225 -0.4556
55047SOL    HW171746   1.810   1.435   3.373  0.7126  0.6300 -0.4551
55047SOL    HW271747   1.959   1.425   3.353  0.7177  1.1931 -0.7094
55048SOL     OW71748  10.875   6.953   7.709 -0.0038  0.3841 -0.3631
55048SOL    HW171749  10.784   6.930   7.694  0.0593  0.2782 -0.5905
55048SOL    HW271750  10.908   6.886   7.768  0.4173 -0.6503 -1.7077
55049SOL     OW71751   8.441  11.998   9.946  0.1409 -0.8703  0.1706
55049SOL    HW171752   8.534  11.977   9.958  0.1413 -1.5124 -0.8583
55049SOL    HW271753   8.429  12.002   9.851 -0.1527  2.6599  0.2522
55050SOL     OW71754   4.484  10.671  10.951  0.1963  0.1573 -0.5760
55050SOL    HW171755   4.490  10.764  10.972 -0.3365  0.1985 -0.5855
55050SOL    HW271756   4.574  10.645  10.930  0.4213  0.5676 -0.1490
55051SOL     OW71757   1.299  12.627   8.203  0.1185 -0.0742 -0.4512
55051SOL    HW171758   1.294  12.600   8.294 -0.5221 -0.3676 -0.5674
55051SOL    HW271759   1.237  12.570   8.157  0.0842  0.3835 -0.9928
55052SOL     OW71760   1.190  12.253  10.786 -0.1900  0.4063  0.1591
55052SOL    HW171761   1.128  12.185  10.761  2.1421 -1.9228  0.2860
55052SOL    HW271762   1.137  12.319  10.830 -2.6296 -1.1220 -0.3041
55053SOL     OW71763   3.740   1.440   2.014 -0.6345 -0.1984 -0.5175
55053SOL    HW171764   3.785   1.503   1.958 -0.8156 -0.3475 -0.8334
55053SOL    HW271765   3.651   1.474   2.021 -0.8977 -0.7264 -1.1776
55054SOL     OW71766   6.750  10.589   1.544 -0.5688  0.4086 -0.4200
55054SOL    HW171767   6.661  10.554   1.546 -0.9850  1.4434  0.7416
55054SOL    HW271768   6.799  10.529   1.488 -2.1663  0.2287 -1.7005
55055SOL     OW71769   4.132   8.969   7.925 -0.0100  0.2922 -0.1553
55055SOL    HW171770   4.092   9.056   7.925 -2.1067 -0.6198  1.0299
55055SOL    HW271771   4.186   8.967   8.004 -1.8622 -0.2401  1.1657
55056SOL     OW71772   4.764   8.159   5.046  0.3755  0.0601  0.4563
55056SOL    HW171773   4.697   8.096   5.018 -0.4086  0.4702  1.3500
55056SOL    HW271774   4.811   8.113   5.115 -1.3213  1.0161  2.3433
55057SOL     OW71775   3.420   1.116  11.088  0.6544  0.7438  0.1859
55057SOL    HW171776   3.338   1.121  11.039  0.5595  0.4691  0.3118
55057SOL    HW271777   3.421   1.027  11.124  0.3938  1.1730  1.2686
55058SOL     OW71778   5.001   6.991   8.112 -0.5052 -0.2315  0.2305
55058SOL    HW171779   5.023   6.900   8.134  0.1314 -0.5603 -1.5460
55058SOL    HW271780   4.907   6.998   8.130 -0.9271 -1.7512 -1.0583
55059SOL     OW71781   8.065   1.156   2.222  0.0435 -0.2741 -0.6892
55059SOL    HW171782   8.063   1.229   2.161  0.5235  0.7739  0.5012
55059SOL    HW271783   8.148   1.112   2.206  2.0758  2.3179  1.7221
55060SOL     OW71784   9.784   1.431  12.075  0.1381 -0.1620  0.6264
55060SOL    HW171785   9.838   1.371  12.126  0.6938  1.3214  1.8756
55060SOL    HW271786   9.698   1.388  12.070  0.3783 -0.8310  1.8915
55061SOL     OW71787   9.068   8.644   8.331 -0.0466 -0.9360  0.3146
55061SOL    HW171788   9.125   8.693   8.272 -0.5528 -0.2870  0.3630
55061SOL    HW271789   9.104   8.555   8.330  1.1310 -0.4881  0.5433
55062SOL     OW71790  10.316  11.083  12.709  0.3451  0.0390 -0.3916
55062SOL    HW171791  10.386  11.024  12.738  1.9009  1.4417 -1.1778
55062SOL    HW271792  10.304  11.062  12.616 -1.3363 -1.1695  0.0375
55063SOL     OW71793   3.250   6.409  11.472 -0.6606 -0.4074  0.0515
55063SOL    HW171794   3.211   6.473  11.413 -1.5164  0.3721  1.3933
55063SOL    HW271795   3.301   6.461  11.534 -0.7869 -1.0853  0.7415
55064SOL     OW71796   3.659   9.029   4.862  0.3459  0.0524 -0.0302
55064SOL    HW171797   3.729   9.005   4.802 -0.2184  0.4216 -0.8566
55064SOL    HW271798   3.621   9.108   4.825  0.0942  0.3980  0.9191
55065SOL     OW71799   7.714   9.941  12.024  0.3297 -0.4783  0.2022
55065SOL    HW171800   7.752   9.964  12.109  1.8396 -0.5125 -0.4195
55065SOL    HW271801   7.750  10.007  11.964  0.4180 -1.2800 -0.6452
55066SOL     OW71802   3.944   1.526  11.017  0.0484 -0.8756  0.0690
55066SOL    HW171803   3.898   1.490  10.941  1.3562 -3.1516  0.2646
55066SOL    HW271804   4.011   1.460  11.037  1.4228  0.9101  1.6043
55067SOL     OW71805   7.176   9.140   6.388  0.4375 -0.4266  0.3177
55067SOL    HW171806   7.113   9.068   6.392  0.5628 -0.6499 -1.0557
55067SOL    HW271807   7.130   9.209   6.340  0.7049 -0.0053  0.6588
55068SOL     OW71808   6.896   9.647   5.860  0.2041 -0.2236 -0.0619
55068SOL    HW171809   6.891   9.627   5.954  0.3181 -0.7691 -0.1688
55068SOL    HW271810   6.988   9.672   5.846  0.5498 -1.4992 -0.2768
55069SOL     OW71811   3.527   4.956   6.117  0.2427  0.3259 -0.1174
55069SOL    HW171812   3.622   4.956   6.110  0.1995 -0.2714 -0.7689
55069SOL    HW271813   3.505   5.048   6.136  0.8046  0.9016 -2.0901
55070SOL     OW71814  11.126   5.595   8.592 -0.1853  0.0347 -0.0009
55070SOL    HW171815  11.112   5.688   8.576  1.7179  0.7778  2.1517
55070SOL    HW271816  11.203   5.572   8.539 -0.6140 -0.3314 -0.4806
55071SOL     OW71817   6.806   9.004   2.296  0.1130  0.0255  0.6324
55071SOL    HW171818   6.774   8.915   2.281  0.1203 -0.0989  1.3407
55071SOL    HW271819   6.897   9.002   2.267  0.3221 -0.3915  1.2885
55072SOL     OW71820  11.629   1.594   1.815  0.0956 -0.2359  0.9245
55072SOL    HW171821  11.581   1.640   1.884  1.2220  2.3094  0.1342
55072SOL    HW271822  11.567   1.590   1.742 -0.5022 -1.3776  1.4589
55073SOL     OW71823   7.944  11.297  11.675  0.0856  0.0991  0.1316
55073SOL    HW171824   7.945  11.244  11.596  0.4118  1.2824 -0.6950
55073SOL    HW271825   7.853  11.293  11.705 -0.7001  1.6617 -1.7804
55074SOL     OW71826  11.750   7.875   9.353 -0.4036  0.2575  0.1847
55074SOL    HW171827  11.660   7.850   9.333 -0.3408 -0.0366  0.2600
55074SOL    HW271828  11.776   7.933   9.281 -1.0244  1.2555  0.7390
55075SOL     OW71829   6.323   4.742   4.493  0.2494 -0.5845 -0.1051
55075SOL    HW171830   6.345   4.835   4.502  1.3422 -0.8681  0.3074
55075SOL    HW271831   6.269   4.738   4.414  1.1119  0.2497 -0.7626
55076SOL     OW71832   3.198   9.848   7.992  0.2721  0.1812 -0.3629
55076SOL    HW171833   3.239   9.931   7.970  0.0780  0.5266  0.5596
55076SOL    HW271834   3.265   9.798   8.038 -0.2640  0.6905  1.0199
55077SOL     OW71835   3.504   0.204  12.186  0.2655 -0.5110 -0.2602
55077SOL    HW171836   3.577   0.251  12.225 -0.2236  1.1068 -1.2120
55077SOL    HW271837   3.541   0.161  12.109  1.0358 -2.9862  1.3874
55078SOL     OW71838  11.569   1.169   8.883 -0.0259 -0.2842  0.2591
55078SOL    HW171839  11.621   1.134   8.955 -1.1427 -0.6542  0.9146
55078SOL    HW271840  11.486   1.195   8.923 -0.3186  0.4013 -0.7336
55079SOL     OW71841  11.135   7.390   6.823 -0.0937 -0.9616 -0.5508
55079SOL    HW171842  11.080   7.394   6.745 -0.4567 -1.1439 -0.3098
55079SOL    HW271843  11.078   7.351   6.890  1.0077 -3.3022 -0.8788
55080SOL     OW71844   7.431   6.644   9.953 -0.4906 -0.3506 -0.4101
55080SOL    HW171845   7.397   6.698  10.024 -0.5329 -0.4737 -0.3373
55080SOL    HW271846   7.469   6.567   9.997  1.4718  0.5940 -0.3369
55081SOL     OW71847   0.824   9.081  11.196 -0.2726 -0.6983 -0.4484
55081SOL    HW171848   0.868   8.996  11.198  0.2195 -0.5910 -3.1570
55081SOL    HW271849   0.754   9.070  11.132 -1.1151  0.5701  0.2114
55082SOL     OW71850  12.238   1.631   8.291  0.2339 -0.3357  0.1601
55082SOL    HW171851  12.194   1.634   8.376 -1.1208  3.8189 -0.4789
55082SOL    HW271852  12.167   1.614   8.229  0.1359  2.1316 -0.5000
55083SOL     OW71853   0.354  12.786  10.722  0.4609  0.2513 -0.0797
55083SOL    HW171854   0.316  12.703  10.696  1.7545 -0.6212  0.7253
55083SOL    HW271855   0.448  12.771  10.722  0.6561  1.1481  1.8511
55084SOL     OW71856   4.403   6.086   9.176 -0.2945  0.0714  0.1047
55084SOL    HW171857   4.466   6.045   9.117 -0.1328 -0.1371  0.4198
55084SOL    HW271858   4.389   6.173   9.139  1.2445  0.6413  0.7965
55085SOL     OW71859  10.393  11.626   8.660 -0.0084  0.1553  0.0183
55085SOL    HW171860  10.353  11.620   8.747 -2.2022  2.2528 -0.7445
55085SOL    HW271861  10.329  11.585   8.601  0.1800  1.1891 -0.9405
55086SOL     OW71862  10.812   0.492   1.429 -0.5886  0.9141  0.2690
55086SOL    HW171863  10.877   0.523   1.492 -0.2300 -0.1906  0.4495
55086SOL    HW271864  10.734   0.544   1.449  0.8184  3.9847 -1.4790
55087SOL     OW71865  10.697   8.204   5.983  0.3370  0.1644  0.4380
55087SOL    HW171866  10.774   8.253   6.013  0.5513  0.7959 -1.0281
55087SOL    HW271867  10.732   8.130   5.935  0.0145 -0.2889  0.8929
55088SOL     OW71868  12.133   4.739   4.239  0.1804 -0.1718  0.2042
55088SOL    HW171869  12.176   4.758   4.156 -1.1178  1.2022 -0.1993
55088SOL    HW271870  12.119   4.644   4.238 -0.2559 -0.1241 -1.3765
55089SOL     OW71871   5.298   0.146   0.997 -0.6270 -0.2630  0.0121
55089SOL    HW171872   5.334   0.075   0.944 -1.7543 -1.2704  0.5429
55089SOL    HW271873   5.269   0.103   1.078  0.1253  1.0680  1.0441
55090SOL     OW71874   2.773   4.945   3.541 -0.1222 -0.3664 -0.1891
55090SOL    HW171875   2.746   4.921   3.630  1.3827 -2.4534 -0.2361
55090SOL    HW271876   2.692   4.942   3.490 -1.3321  2.4535  1.3177
55091SOL     OW71877   0.810   1.637  10.109  0.2031  0.6098 -0.6777
55091SOL    HW171878   0.904   1.629  10.127  0.2808  1.5467 -0.6239
55091SOL    HW271879   0.798   1.590  10.027  0.6249  0.0393 -0.4187
55092SOL     OW71880   8.270   5.176   8.654  0.0766  0.6238 -0.0273
55092SOL    HW171881   8.327   5.108   8.617 -0.4168 -0.0891  0.5015
55092SOL    HW271882   8.193   5.129   8.684 -0.2131  1.4083  0.4811
55093SOL     OW71883  10.246  11.351  10.333  0.3115  0.1409 -0.1194
55093SOL    HW171884  10.173  11.316  10.383  1.4396 -0.2079  1.3414
55093SOL    HW271885  10.242  11.446  10.346 -0.8965  0.3169 -1.5160
55094SOL     OW71886   4.869   1.509  11.346  0.1934  0.4948 -0.1783
55094SOL    HW171887   4.860   1.546  11.258  0.0526  1.3349  0.1847
55094SOL    HW271888   4.945   1.553  11.383 -1.4763  2.3889  1.1978
55095SOL     OW71889   3.967   7.610   7.495 -0.3449 -0.3109 -0.4820
55095SOL    HW171890   4.047   7.661   7.511 -0.2728 -0.8562  1.0317
55095SOL    HW271891   3.954   7.617   7.401  1.0481  0.4444 -0.6603
55096SOL     OW71892  10.825  10.007   0.677 -0.1146 -0.3006 -0.7910
55096SOL    HW171893  10.910  10.032   0.715 -0.2857  0.2185 -0.7372
55096SOL    HW271894  10.839   9.920   0.642  0.6245  0.0213 -1.3241
55097SOL     OW71895  12.241  12.517  11.668 -0.4460 -0.5353 -0.1021
55097SOL    HW171896  12.293  12.492  11.744  0.7315 -0.3666 -0.8212
55097SOL    HW271897  12.217  12.435  11.626  0.6903 -0.5830 -0.6911
55098SOL     OW71898   8.080   2.430   0.638 -0.2884  0.2416 -0.0354
55098SOL    HW171899   8.063   2.505   0.582 -1.1024  0.8059  0.9322
55098SOL    HW271900   8.174   2.435   0.658 -0.2895  0.8623 -0.1823
55099SOL     OW71901  10.211   9.773   0.733  0.6767 -0.0422 -0.0778
55099SOL    HW171902  10.167   9.747   0.652  0.4931  0.7907 -0.2534
55099SOL    HW271903  10.269   9.844   0.708  0.7376  0.1189  0.4935
55100SOL     OW71904   7.465   4.973   3.588  0.2859  0.0506  0.4401
55100SOL    HW171905   7.406   4.935   3.652 -0.4782  1.9571  0.9131
55100SOL    HW271906   7.428   4.947   3.503 -0.6695  0.4086  0.7404
55101SOL     OW71907   0.188   1.636   9.539 -0.0759  0.3941  0.0322
55101SOL    HW171908   0.243   1.588   9.600  1.0729  2.3153  0.6039
55101SOL    HW271909   0.248   1.665   9.471 -1.5983 -3.2990 -3.2677
55102SOL     OW71910   4.488   6.074   8.180  0.5282  0.1954  0.2329
55102SOL    HW171911   4.506   6.015   8.253 -0.5351 -0.2590  0.1427
55102SOL    HW271912   4.540   6.153   8.199  1.1834 -0.3766  0.8588
55103SOL     OW71913   1.396   0.236   6.430 -0.0595 -0.5216 -0.2712
55103SOL    HW171914   1.328   0.186   6.473  0.2503  0.0821  0.9475
55103SOL    HW271915   1.377   0.328   6.452 -0.0639 -0.1550 -1.6696
55104SOL     OW71916   4.276   5.318  11.390 -0.0101  0.8467 -0.3037
55104SOL    HW171917   4.353   5.354  11.434 -0.2849  0.2908  0.6568
55104SOL    HW271918   4.205   5.329  11.454 -0.6509  1.0215 -1.0365
55105SOL     OW71919   9.924  12.322  12.266  0.2419 -0.1361 -0.2437
55105SOL    HW171920  10.014  12.325  12.300 -0.3827  0.9793  1.4461
55105SOL    HW271921   9.876  12.384  12.320 -1.2728  0.3454 -2.0331
55106SOL     OW71922  10.818   7.742   7.360  0.1349 -0.1782 -0.3555
55106SOL    HW171923  10.832   7.798   7.284  0.6502 -0.2034 -0.2852
55106SOL    HW271924  10.889   7.677   7.355 -0.7979 -1.1933 -0.7633
55107SOL     OW71925   3.597   0.745   1.953 -0.2941  0.5793 -0.4001
55107SOL    HW171926   3.560   0.690   1.884  0.3412  0.3789 -0.5912
55107SOL    HW271927   3.565   0.833   1.933 -0.7563  0.3919 -0.4923
55108SOL     OW71928   3.522   6.432   0.315  0.3725 -0.1653  0.2210
55108SOL    HW171929   3.504   6.491   0.388  1.7495 -0.7534  1.0811
55108SOL    HW271930   3.500   6.482   0.237  0.9202  1.2763  0.9544
55109SOL     OW71931   3.655  10.085   3.017 -0.9270 -0.4202  0.6283
55109SOL    HW171932   3.667  10.084   2.922  0.3838 -2.0718  0.7599
55109SOL    HW271933   3.739  10.118   3.051 -1.1336 -0.5037  1.2277
55110SOL     OW71934   7.653  11.688  10.672  0.0489 -0.5893 -0.1686
55110SOL    HW171935   7.610  11.755  10.725 -0.9718 -0.6940 -0.8254
55110SOL    HW271936   7.695  11.736  10.601  0.0636 -0.5665 -0.1440
55111SOL     OW71937   0.593   7.883  11.573  0.1993  0.5926 -0.5974
55111SOL    HW171938   0.627   7.841  11.495  0.3571 -0.4124 -0.0135
55111SOL    HW271939   0.498   7.872  11.567  0.2643 -0.2929 -0.2298
55112SOL     OW71940   5.942   4.920   0.292  0.1246  0.3827  0.1237
55112SOL    HW171941   5.891   4.997   0.265  1.3124 -0.3018 -5.3312
55112SOL    HW271942   6.033   4.951   0.295  0.3989 -0.3791 -0.1081
55113SOL     OW71943   5.719   4.382   1.350 -0.5843 -0.1197 -0.2737
55113SOL    HW171944   5.634   4.388   1.394 -0.2873 -2.6231  0.8259
55113SOL    HW271945   5.700   4.337   1.267 -0.4097 -0.2847 -0.2251
55114SOL     OW71946   0.263   6.582   2.089 -0.3405 -0.5647 -0.4836
55114SOL    HW171947   0.344   6.530   2.094 -0.0917 -0.2015 -0.6830
55114SOL    HW271948   0.285   6.654   2.030 -0.7477 -0.3470 -0.3687
55115SOL     OW71949   4.687   3.698   5.286  0.1145  0.0257 -0.1256
55115SOL    HW171950   4.677   3.608   5.254  0.6105 -0.6167  1.4197
55115SOL    HW271951   4.626   3.704   5.359  1.2130  0.4109  0.7916
55116SOL     OW71952   6.032   3.378   0.527 -0.4472  0.4674  0.3221
55116SOL    HW171953   5.989   3.431   0.595  1.8999  2.5155  0.3214
55116SOL    HW271954   5.980   3.394   0.448 -1.0846  0.9747  0.8287
55117SOL     OW71955   4.207   2.243   0.858  0.3703  0.4349  0.2917
55117SOL    HW171956   4.196   2.152   0.886 -1.4737  0.1087 -1.3042
55117SOL    HW271957   4.222   2.292   0.940 -0.0806 -1.0794  1.3176
55118SOL     OW71958  11.450   6.761   1.168  0.2336 -0.0070 -0.7005
55118SOL    HW171959  11.499   6.683   1.194 -0.1744  0.5137  1.9769
55118SOL    HW271960  11.362   6.729   1.150 -0.3542 -0.0958  1.8811
55119SOL     OW71961   3.279  11.710   4.502 -0.3629  0.1515  0.2927
55119SOL    HW171962   3.267  11.775   4.571  1.3802  0.4405  0.3632
55119SOL    HW271963   3.308  11.631   4.548 -0.1705  0.0436 -0.0043
55120SOL     OW71964   4.748   3.491   9.088 -0.3768 -0.3523 -0.1254
55120SOL    HW171965   4.707   3.461   9.007  1.1366  0.8404 -1.4228
55120SOL    HW271966   4.816   3.426   9.106 -1.3697 -1.1592  0.7867
55121SOL     OW71967   8.219   1.240  10.420  0.1405  0.2086  0.0398
55121SOL    HW171968   8.139   1.213  10.375  0.9445 -0.9922 -0.7201
55121SOL    HW271969   8.220   1.188  10.501  0.5840 -0.4565 -0.3808
55122SOL     OW71970  12.260   8.529   4.955  0.2627  0.5599 -0.3548
55122SOL    HW171971  12.237   8.437   4.941  1.1089  0.2689  0.1486
55122SOL    HW271972  12.204   8.557   5.028  2.2814 -0.5035  1.7284
55123SOL     OW71973  11.779   7.139  11.808  0.0680 -0.9198  0.8362
55123SOL    HW171974  11.730   7.132  11.890  1.7804 -0.3406  1.9556
55123SOL    HW271975  11.854   7.195  11.829  1.7471 -2.5216 -0.5465
55124SOL     OW71976  11.717   0.748   7.351  0.3678  0.1875 -0.1297
55124SOL    HW171977  11.723   0.655   7.330  0.3794  0.8718 -3.9850
55124SOL    HW271978  11.681   0.751   7.439 -1.2522 -3.4689 -0.4883
55125SOL     OW71979   7.304  11.518   8.709  0.0765 -0.2764  0.2363
55125SOL    HW171980   7.296  11.451   8.777 -0.8478  0.0316  0.4533
55125SOL    HW271981   7.335  11.471   8.632  1.1521 -0.6320  0.8679
55126SOL     OW71982  10.303   6.612   9.802 -0.1658 -0.1901  0.3836
55126SOL    HW171983  10.276   6.574   9.885  1.1662 -0.6622  0.6236
55126SOL    HW271984  10.247   6.570   9.737 -0.6376 -0.4507  0.9434
55127SOL     OW71985   0.054   5.337  11.132 -0.1282  0.4987  0.0874
55127SOL    HW171986   0.087   5.427  11.129 -1.8542  1.1317 -0.8304
55127SOL    HW271987  -0.008   5.337  11.206 -1.3747  0.5415 -0.9267
55128SOL     OW71988   5.153  11.134   2.840  0.8133 -0.6415  0.2058
55128SOL    HW171989   5.146  11.156   2.933  0.2402  1.7789 -0.3578
55128SOL    HW271990   5.065  11.146   2.805  1.1654 -0.8831 -0.8038
55129SOL     OW71991  11.367  10.213  10.486 -0.1006 -0.5677  0.4698
55129SOL    HW171992  11.419  10.220  10.406  0.9763 -1.6931  1.0304
55129SOL    HW271993  11.312  10.291  10.486 -0.7843 -0.9795 -1.8101
55130SOL     OW71994   9.998   1.375   3.385  0.0969  0.0943 -0.5482
55130SOL    HW171995  10.030   1.362   3.474  0.0437 -0.8970 -0.6689
55130SOL    HW271996   9.974   1.468   3.382 -0.9309 -0.0942  0.8089
55131SOL     OW71997  10.856   0.175   1.446  0.0199  0.0596 -0.3616
55131SOL    HW171998  10.891   0.243   1.388  1.7853 -0.4423  0.0606
55131SOL    HW271999  10.888   0.198   1.533 -1.2790 -0.0804  0.1884
55132SOL     OW72000   5.394   9.824  10.076  0.0099  0.1550 -0.1151
55132SOL    HW172001   5.445   9.870  10.009  0.8869 -0.4951  0.0927
55132SOL    HW272002   5.444   9.744  10.093 -1.7189 -1.1356 -0.8143
55133SOL     OW72003   4.144  10.638   9.560 -0.0456 -0.2123  0.2046
55133SOL    HW172004   4.136  10.608   9.469  1.8338  1.0130 -0.4056
55133SOL    HW272005   4.056  10.625   9.596 -1.1680  0.3071 -2.1100
55134SOL     OW72006   1.497  11.990   6.205 -0.8106  0.7158 -0.1304
55134SOL    HW172007   1.493  11.985   6.109  2.1377 -0.7781 -0.2954
55134SOL    HW272008   1.474  11.902   6.235  1.4970  0.1932  0.2683
55135SOL     OW72009   0.072   9.753  12.722  0.1228  0.1343  0.3348
55135SOL    HW172010   0.004   9.718  12.665  0.8884 -1.5065  0.3679
55135SOL    HW272011   0.036   9.746  12.810  0.2541 -0.5773  0.3385
55136SOL     OW72012   5.453  12.131   2.116  0.1611  0.2665 -0.2946
55136SOL    HW172013   5.365  12.158   2.092 -0.4918 -0.9818  0.5967
55136SOL    HW272014   5.481  12.194   2.183 -0.7545 -0.3369  0.6822
55137SOL     OW72015   0.844   9.272  10.886 -0.7111 -0.2695 -0.3814
55137SOL    HW172016   0.789   9.308  10.955 -0.6494  0.5066 -0.7222
55137SOL    HW272017   0.808   9.309  10.805  0.8491  1.0053 -0.5485
55138SOL     OW72018  11.417   2.410   0.674  0.0331  0.0385 -0.6631
55138SOL    HW172019  11.354   2.416   0.746 -0.4970 -1.6334 -0.9631
55138SOL    HW272020  11.491   2.362   0.711  1.1178  1.8509 -0.3624
55139SOL     OW72021   5.212  11.078   1.118  0.4564  0.1481 -0.4374
55139SOL    HW172022   5.262  11.153   1.084  2.1466 -1.2054 -1.0772
55139SOL    HW272023   5.202  11.020   1.043  0.1002 -0.7499  0.2895
55140SOL     OW72024   4.281   8.891   7.140  0.3514  0.1359  0.6083
55140SOL    HW172025   4.334   8.819   7.174 -0.5864  0.0765  2.0700
55140SOL    HW272026   4.307   8.967   7.193  1.1011  0.8297 -0.6980
55141SOL     OW72027   3.885   6.785   0.765 -0.1240  0.1540  0.2083
55141SOL    HW172028   3.919   6.697   0.779 -0.5784  0.0229  0.5368
55141SOL    HW272029   3.842   6.782   0.680  1.9392  0.7235 -0.9068
55142SOL     OW72030   2.019   3.764  12.520  0.0908  0.1686  0.1075
55142SOL    HW172031   2.059   3.731  12.440  0.0061 -0.6503  0.3969
55142SOL    HW272032   2.041   3.700  12.587 -0.3240  0.5474  0.6221
55143SOL     OW72033  12.075   6.877   5.579  0.0344 -0.4205 -0.4357
55143SOL    HW172034  12.023   6.800   5.604 -0.9078  0.6184  0.9435
55143SOL    HW272035  12.010   6.946   5.565  0.9890  0.8907  1.2451
55144SOL     OW72036   7.606   8.215  12.089 -0.1242  0.1145 -0.4637
55144SOL    HW172037   7.570   8.147  12.146  0.7513  0.4218  0.4949
55144SOL    HW272038   7.629   8.168  12.008  0.3194 -0.7130  0.1184
55145SOL     OW72039  10.454   4.791  11.913 -0.2408 -0.1457 -0.4810
55145SOL    HW172040  10.366   4.828  11.918 -0.1259  0.5456 -2.4854
55145SOL    HW272041  10.512   4.866  11.903  0.5870 -0.6011  0.7116
55146SOL     OW72042   2.875   4.707   5.267  0.7828  0.1868 -0.4177
55146SOL    HW172043   2.914   4.790   5.293 -0.6739  1.3613 -1.7178
55146SOL    HW272044   2.780   4.724   5.270  0.4910 -0.7597 -2.6567
55147SOL     OW72045  11.987   1.895   6.570  0.4149 -0.2380  0.7035
55147SOL    HW172046  11.897   1.912   6.598 -0.1901 -2.8193  0.5521
55147SOL    HW272047  11.991   1.929   6.481 -0.9383 -1.5495  0.1130
55148SOL     OW72048   7.698  10.839  11.737  0.0969  0.3550 -0.6032
55148SOL    HW172049   7.685  10.745  11.750 -1.0190  0.5010 -0.5340
55148SOL    HW272050   7.793  10.849  11.731  0.3400 -0.5704  1.0277
55149SOL     OW72051   8.743  10.722   9.779  0.3559  0.1314 -0.0894
55149SOL    HW172052   8.745  10.789   9.711 -0.0777  0.3286  0.0862
55149SOL    HW272053   8.650  10.699   9.787  0.5495 -0.8116 -0.4578
55150SOL     OW72054   3.625   9.170   1.487  0.0235  0.9702 -0.4904
55150SOL    HW172055   3.671   9.107   1.432  0.9307  0.9086  0.3239
55150SOL    HW272056   3.620   9.250   1.434  1.8294  1.2509 -0.2851
55151SOL     OW72057   8.044   5.346   1.443 -0.2569  0.5559 -0.4984
55151SOL    HW172058   8.019   5.303   1.525  0.9708  1.7703  0.5654
55151SOL    HW272059   7.972   5.407   1.426 -1.6123 -1.2759 -1.5830
55152SOL     OW72060   0.365  12.406   3.721 -0.2258 -0.1136  0.4583
55152SOL    HW172061   0.423  12.375   3.651 -0.9617 -0.3167 -0.0686
55152SOL    HW272062   0.277  12.389   3.689 -0.6054  0.8632  0.9381
55153SOL     OW72063   6.720   6.089   1.741  0.1026 -0.2347 -0.1445
55153SOL    HW172064   6.651   6.144   1.778  0.1399  1.4783 -2.3823
55153SOL    HW272065   6.695   6.000   1.765 -1.5650  0.5046  1.1283
55154SOL     OW72066   1.995   3.440  10.663  0.4075  0.2953 -0.1960
55154SOL    HW172067   2.025   3.349  10.663  0.4305  0.2996  0.1986
55154SOL    HW272068   1.978   3.459  10.756 -1.7824 -0.0381 -0.4675
55155SOL     OW72069   6.176   5.537  10.433  0.0765 -0.2652  0.2797
55155SOL    HW172070   6.194   5.504  10.345 -0.6886  0.8957 -0.3427
55155SOL    HW272071   6.136   5.464  10.479 -0.5449 -0.5485 -0.6905
55156SOL     OW72072   2.678   3.310  10.575 -0.9391 -0.1583  0.3635
55156SOL    HW172073   2.654   3.275  10.661  1.6057 -0.6973  0.9188
55156SOL    HW272074   2.706   3.399  10.592 -1.7602  0.2217 -0.1680
55157SOL     OW72075   5.991   3.413   7.122 -0.4984  0.3002 -0.0549
55157SOL    HW172076   6.049   3.422   7.047  0.8030  0.0511  0.8845
55157SOL    HW272077   6.004   3.494   7.172 -2.1321  0.9301 -0.6037
55158SOL     OW72078  11.570  11.646   0.741 -0.1531  0.1719  0.4390
55158SOL    HW172079  11.631  11.712   0.773  1.1090 -1.2592  1.1424
55158SOL    HW272080  11.572  11.657   0.645  2.8005 -1.0285  0.2327
55159SOL     OW72081   4.470   4.871  11.317  0.0214  0.7015 -0.2062
55159SOL    HW172082   4.400   4.845  11.377 -0.2618 -0.0155 -0.8334
55159SOL    HW272083   4.439   4.845  11.230  0.7152  1.1135 -0.5943
55160SOL     OW72084  11.472   2.463   7.813 -0.5536  0.6538  0.0445
55160SOL    HW172085  11.492   2.538   7.756  0.6532 -0.1691 -0.6510
55160SOL    HW272086  11.493   2.493   7.901  0.4267  0.9736 -0.2886
55161SOL     OW72087   2.503   3.666   6.807 -0.2750  0.5695 -0.0233
55161SOL    HW172088   2.487   3.676   6.901  0.7976  1.6368  0.0700
55161SOL    HW272089   2.550   3.582   6.799  0.3614  0.8688  0.4981
55162SOL     OW72090   1.317  10.497   5.911 -0.0002 -0.3157 -0.6102
55162SOL    HW172091   1.406  10.465   5.896 -0.1137 -0.4898 -0.9239
55162SOL    HW272092   1.271  10.423   5.951  0.4564  0.3287  1.2074
55163SOL     OW72093   4.104   8.481   0.126 -0.0438  0.1579 -0.0965
55163SOL    HW172094   4.063   8.395   0.129 -0.8249  0.4356 -1.5583
55163SOL    HW272095   4.127   8.501   0.217  1.5357 -2.2124  0.1116
55164SOL     OW72096   5.652   3.019  12.641  0.0031 -0.4920  0.0364
55164SOL    HW172097   5.661   3.112  12.619 -1.3706 -0.0178  1.2784
55164SOL    HW272098   5.740   2.982  12.628  0.4752  0.8764 -0.8733
55165SOL     OW72099   8.040   6.226  11.898  0.0934  0.6477  0.6757
55165SOL    HW172100   8.037   6.306  11.950  1.6751  0.2207  1.5035
55165SOL    HW272101   8.026   6.255  11.808  0.1253  1.7853  1.0212
55166SOL     OW72102  10.007   1.874   5.899 -0.1179 -0.8837  0.0540
55166SOL    HW172103   9.956   1.857   5.978  1.6356 -1.2421  1.1527
55166SOL    HW272104   9.966   1.819   5.832 -1.9783 -0.1440  0.5356
55167SOL     OW72105   1.686   9.179   8.798 -0.7170 -0.2345 -0.1781
55167SOL    HW172106   1.699   9.103   8.741 -1.7676 -0.8425  0.3734
55167SOL    HW272107   1.711   9.149   8.885 -0.4140  0.2899 -0.0765
55168SOL     OW72108   7.186  11.585   5.232 -0.6924  0.5905 -0.0858
55168SOL    HW172109   7.276  11.590   5.265 -0.3807 -0.4917 -0.7063
55168SOL    HW272110   7.132  11.617   5.304  0.0592 -0.5754  1.0314
55169SOL     OW72111   2.159   9.434   1.932  0.5455  0.1184 -0.1217
55169SOL    HW172112   2.207   9.515   1.951  0.1122  0.2838  0.3093
55169SOL    HW272113   2.227   9.367   1.925  0.7966  0.2083  1.2166
55170SOL     OW72114  11.254   8.450   5.962  0.0429 -0.0561  0.0369
55170SOL    HW172115  11.199   8.455   6.039  0.7105  1.1900  0.4715
55170SOL    HW272116  11.320   8.384   5.982 -0.9847 -1.2312 -0.3138
55171SOL     OW72117   0.103   0.914   8.152 -0.3362  0.0893 -0.7980
55171SOL    HW172118   0.038   0.861   8.198  0.3890 -1.4040 -1.4320
55171SOL    HW272119   0.096   1.001   8.192 -1.4750 -0.5029  0.3517
55172SOL     OW72120   2.556   2.719   6.027 -0.6328 -0.0489  0.2048
55172SOL    HW172121   2.630   2.704   5.968 -1.4738 -1.0788 -0.6250
55172SOL    HW272122   2.502   2.641   6.017 -1.0386 -0.0414  2.0039
55173SOL     OW72123   6.029   2.756  12.125 -0.1604 -0.6912  0.0935
55173SOL    HW172124   5.952   2.700  12.137 -0.5439 -0.4029 -0.8839
55173SOL    HW272125   6.025   2.817  12.198 -2.2855  0.8986 -1.2246
55174SOL     OW72126   0.130   9.135   3.681  0.2768  0.4140  0.2398
55174SOL    HW172127   0.142   9.225   3.651 -0.1210  0.5741  0.5573
55174SOL    HW272128   0.211   9.115   3.729 -0.3344  1.2060  1.6595
55175SOL     OW72129   3.951  10.808   0.110  0.1446  0.2375  0.4207
55175SOL    HW172130   3.895  10.744   0.153 -0.4561 -0.3375 -1.1385
55175SOL    HW272131   3.893  10.857   0.052  1.0463  0.4332 -0.3484
55176SOL     OW72132   7.485   2.419   9.129  0.1042  0.1853 -0.5638
55176SOL    HW172133   7.408   2.457   9.087  0.3124 -0.0233 -1.1521
55176SOL    HW272134   7.503   2.475   9.204 -1.4210 -0.5211  0.3758
55177SOL     OW72135   3.578  10.233  10.251 -0.1050 -0.0194 -0.4666
55177SOL    HW172136   3.562  10.298  10.320 -0.9735 -1.4518  0.7401
55177SOL    HW272137   3.671  10.242  10.230  0.2816  0.1504  1.2075
55178SOL     OW72138   3.889   9.044  11.284  0.1581 -0.6052 -0.0957
55178SOL    HW172139   3.922   9.095  11.357 -2.0311 -0.3668  0.8221
55178SOL    HW272140   3.941   8.964  11.284  0.9493 -0.1023  0.9888
55179SOL     OW72141   1.794   2.295  10.912 -0.1522 -0.5005  0.0234
55179SOL    HW172142   1.798   2.228  10.980 -0.3690 -1.9681 -1.3409
55179SOL    HW272143   1.856   2.266  10.845  0.4446  1.1721 -0.2073
55180SOL     OW72144   0.778   2.487   0.019  0.3286 -0.4143 -0.3607
55180SOL    HW172145   0.692   2.480   0.061  0.4482 -1.5349 -0.2630
55180SOL    HW272146   0.839   2.493   0.092  0.3084  0.8815 -0.4368
55181SOL     OW72147   2.130   3.907   7.587  0.2102 -0.4635  0.4294
55181SOL    HW172148   2.073   3.910   7.664  1.6430 -1.9506  1.6348
55181SOL    HW272149   2.089   3.842   7.530 -0.9422  0.7574 -0.1857
55182SOL     OW72150  10.037   9.503   4.320 -0.3885  0.0682 -0.0501
55182SOL    HW172151   9.956   9.498   4.371  0.1412  2.0626  1.1333
55182SOL    HW272152  10.103   9.529   4.384  0.6438  1.0477 -1.4557
55183SOL     OW72153   3.853  11.644   1.370 -0.4319  0.4914  1.0171
55183SOL    HW172154   3.877  11.552   1.359  1.6560  0.8919  1.7816
55183SOL    HW272155   3.875  11.664   1.461 -1.1178  1.6801  0.9433
55184SOL     OW72156   0.353  11.385   6.808 -0.3330  0.0178  0.6095
55184SOL    HW172157   0.343  11.479   6.822 -2.9816 -0.2926  1.2869
55184SOL    HW272158   0.272  11.358   6.765  0.7636 -1.8451 -0.4184
55185SOL     OW72159   1.522   2.586   6.445 -0.0121  0.5528  0.1012
55185SOL    HW172160   1.509   2.606   6.538 -2.8118  0.1427 -0.1157
55185SOL    HW272161   1.614   2.563   6.438  0.2657  0.5365  2.7873
55186SOL     OW72162   2.918   6.296   5.018 -0.7435 -0.2354  0.3770
55186SOL    HW172163   2.882   6.210   5.040 -0.1407 -0.2367  1.4164
55186SOL    HW272164   2.958   6.284   4.932 -1.2541 -0.8129  0.2170
55187SOL     OW72165   4.884   0.687   6.716  0.0557 -0.0954  0.2708
55187SOL    HW172166   4.790   0.701   6.702  0.4761  1.7372 -0.9912
55187SOL    HW272167   4.904   0.736   6.796  0.1196  0.2746  0.0259
55188SOL     OW72168   1.185   9.274  10.021  0.2340  0.7011  0.2890
55188SOL    HW172169   1.247   9.307  10.086  0.5341  1.1754 -0.2370
55188SOL    HW272170   1.105   9.324  10.036  0.0089  0.1753  0.8860
55189SOL     OW72171   4.647   7.081   6.708 -0.2783  0.1827 -0.1376
55189SOL    HW172172   4.621   7.159   6.757  1.9843 -0.6140  2.6165
55189SOL    HW272173   4.708   7.036   6.767 -0.2236 -2.8158 -2.3003
55190SOL     OW72174   5.525   4.484   7.607  0.6315  0.9478  0.6822
55190SOL    HW172175   5.469   4.430   7.663  1.0449  0.9230  1.0798
55190SOL    HW272176   5.475   4.495   7.526  0.3163  0.4200  0.8016
55191SOL     OW72177   4.806   0.877   2.095 -0.1444  0.1741 -0.5359
55191SOL    HW172178   4.781   0.787   2.073 -0.7540  0.5129 -1.2960
55191SOL    HW272179   4.813   0.878   2.190 -0.9663 -0.4780 -0.4581
55192SOL     OW72180   2.216   0.739   0.544 -0.0432  0.0531 -0.2421
55192SOL    HW172181   2.212   0.812   0.607  0.1039 -0.6791  0.6339
55192SOL    HW272182   2.295   0.757   0.493  0.0990  0.4109  0.0926
55193SOL     OW72183   1.171   3.919   1.241  0.0667  0.0993 -0.7122
55193SOL    HW172184   1.136   4.008   1.253 -0.2550 -0.3713  2.5724
55193SOL    HW272185   1.096   3.862   1.257  0.9356 -0.7960  0.2368
55194SOL     OW72186  11.411   9.472   7.786 -0.2694 -0.4949  0.1059
55194SOL    HW172187  11.418   9.384   7.749 -0.2090 -0.5155  0.1663
55194SOL    HW272188  11.450   9.465   7.873  0.4575 -0.2223 -0.1902
55195SOL     OW72189   4.378   8.308   6.450 -0.3652  0.0267  0.0797
55195SOL    HW172190   4.363   8.331   6.358 -0.1464 -0.3752 -0.0614
55195SOL    HW272191   4.301   8.341   6.496 -0.2261  0.7064 -0.1677
55196SOL     OW72192   1.178   1.672   9.136 -0.2730  0.2666  0.0818
55196SOL    HW172193   1.226   1.669   9.053 -1.0451  0.7556 -0.3900
55196SOL    HW272194   1.161   1.580   9.157  0.4242  0.1137 -0.0039
55197SOL     OW72195  10.790   2.780   4.539  0.4707 -0.1111  0.0085
55197SOL    HW172196  10.759   2.818   4.457  2.0835  0.7917 -0.2211
55197SOL    HW272197  10.850   2.846   4.576 -0.7704 -0.1470  2.3141
55198SOL     OW72198   0.527   0.343   7.563  0.3703 -0.5708  0.6933
55198SOL    HW172199   0.582   0.277   7.604 -0.8080  0.5440  4.5272
55198SOL    HW272200   0.438   0.311   7.574 -0.0686  0.2656 -0.2157
55199SOL     OW72201  11.959   4.545   2.502 -0.0098 -0.1831  0.4271
55199SOL    HW172202  12.050   4.556   2.530 -0.1895 -0.4963  1.1620
55199SOL    HW272203  11.933   4.632   2.471  0.4941 -0.0602  0.3250
55200SOL     OW72204   3.593  10.423  11.478 -0.6648  0.4844 -0.4140
55200SOL    HW172205   3.608  10.407  11.571 -0.1088 -1.5346 -0.8011
55200SOL    HW272206   3.503  10.397  11.463 -1.0296  1.6315 -0.3003
55201SOL     OW72207  11.483   6.418  10.307 -0.4088  0.0111  0.2916
55201SOL    HW172208  11.466   6.352  10.375 -1.5221  1.0034  1.0217
55201SOL    HW272209  11.474   6.502  10.352 -2.5824  0.7507 -1.3171
55202SOL     OW72210   1.513   2.273  11.273 -0.1623  0.0320  0.2070
55202SOL    HW172211   1.570   2.233  11.339  0.9936  0.1827 -0.6594
55202SOL    HW272212   1.439   2.213  11.265  1.0329 -1.4338 -0.3147
55203SOL     OW72213   0.516   9.739   7.899  0.4327  0.1421 -0.8345
55203SOL    HW172214   0.434   9.766   7.858 -0.1228  1.5928  1.0853
55203SOL    HW272215   0.496   9.655   7.941 -0.3587  0.9229  0.3845
55204SOL     OW72216   5.148  11.777   4.433 -0.1876 -0.2007 -0.5070
55204SOL    HW172217   5.128  11.683   4.440  1.3407 -0.4637  0.6629
55204SOL    HW272218   5.099  11.817   4.505 -0.9467 -0.0601 -1.0871
55205SOL     OW72219  12.733  10.552   6.936  0.1216  0.1673  0.2128
55205SOL    HW172220  12.729  10.559   6.841 -1.1937  0.2701  0.2476
55205SOL    HW272221  12.714  10.640   6.968 -1.4022 -0.2409  0.5510
55206SOL     OW72222   9.758  10.414  12.609  0.1521 -0.2454 -0.9774
55206SOL    HW172223   9.686  10.448  12.555  0.1473 -0.6054 -1.2032
55206SOL    HW272224   9.733  10.436  12.699 -0.0767 -0.0645 -1.0843
55207SOL     OW72225  11.088   9.823   6.566  0.1645  0.0015 -0.1493
55207SOL    HW172226  11.091   9.829   6.470  0.9883  2.9096 -0.0362
55207SOL    HW272227  11.154   9.758   6.588 -0.2567 -0.9552 -1.5369
55208SOL     OW72228   8.523   2.667   7.054 -0.2497  0.3206 -0.7327
55208SOL    HW172229   8.584   2.714   6.996 -0.6956 -0.4348 -1.8502
55208SOL    HW272230   8.579   2.614   7.110  0.1560  0.4709 -0.9922
55209SOL     OW72231  12.787   9.579   4.355 -0.0579 -0.3528 -0.0457
55209SOL    HW172232  12.728   9.574   4.280  0.9864 -0.3300 -0.8722
55209SOL    HW272233  12.729   9.601   4.428 -0.8124  1.8346 -1.2152
55210SOL     OW72234   4.263   4.808   9.171  0.1479 -0.0377 -0.0614
55210SOL    HW172235   4.324   4.854   9.113 -0.6344 -0.9224 -1.6585
55210SOL    HW272236   4.194   4.872   9.188  0.5815  0.3590  0.2334
55211SOL     OW72237   5.210   5.835   2.533  0.2371 -0.5584 -0.0438
55211SOL    HW172238   5.119   5.864   2.522  0.9163  1.1931 -1.6273
55211SOL    HW272239   5.212   5.797   2.621 -2.3319 -2.0303 -0.5190
55212SOL     OW72240   3.211   2.954   3.045  0.4402 -0.0820 -0.3356
55212SOL    HW172241   3.299   2.957   3.006  0.5354  0.3159 -0.1028
55212SOL    HW272242   3.220   3.002   3.128 -0.1113  0.4280 -0.5588
55213SOL     OW72243   6.247   4.763   9.627  0.5472  0.1089  0.2655
55213SOL    HW172244   6.260   4.844   9.579  2.1902 -0.4737 -0.3631
55213SOL    HW272245   6.162   4.730   9.597  1.1624  0.1617 -1.6888
55214SOL     OW72246   2.709   9.243  10.392 -0.0208  0.9114  0.2839
55214SOL    HW172247   2.716   9.337  10.408  0.5168  0.7832  0.8409
55214SOL    HW272248   2.637   9.234  10.329  1.4029  1.8770 -1.5670
55215SOL     OW72249   3.667   5.378   9.652 -0.1926  0.1016  0.1453
55215SOL    HW172250   3.683   5.435   9.726  1.2671  0.6937 -0.5916
55215SOL    HW272251   3.572   5.369   9.648 -0.3248  0.7561  1.5450
55216SOL     OW72252   4.332   3.983  11.757  0.1286  0.2982  0.1879
55216SOL    HW172253   4.323   4.079  11.754 -0.8885  0.2205  0.3207
55216SOL    HW272254   4.425   3.968  11.771  0.2822  1.2766  0.2973
55217SOL     OW72255   6.796   4.377  11.386 -0.5887  0.0653  0.1331
55217SOL    HW172256   6.852   4.346  11.457  0.1694 -1.8643 -1.2252
55217SOL    HW272257   6.762   4.461  11.417  3.1269  1.4248  0.9977
55218SOL     OW72258  10.202   3.013   1.954 -0.1429 -0.4891  0.3143
55218SOL    HW172259  10.273   2.968   1.909  0.0253  0.0952 -0.0112
55218SOL    HW272260  10.186   3.091   1.902 -0.4687 -0.1940  0.8478
55219SOL     OW72261   5.481   0.462   0.862  0.2181 -0.3713 -0.0237
55219SOL    HW172262   5.461   0.415   0.781 -1.0628  0.0189  0.0414
55219SOL    HW272263   5.513   0.395   0.922 -3.9266 -1.8236  0.9249
55220SOL     OW72264   7.990  12.743   8.384  0.0632 -0.0142 -0.3136
55220SOL    HW172265   7.916  12.799   8.362 -0.3288 -0.1884  0.5503
55220SOL    HW272266   8.027  12.782   8.463  0.6220 -0.1918 -0.4828
55221SOL     OW72267   8.260   8.110   9.478 -0.0362 -0.1031  0.2101
55221SOL    HW172268   8.282   8.057   9.401  1.2102  0.2095  0.3287
55221SOL    HW272269   8.308   8.070   9.550  0.4242  0.7952  0.4253
55222SOL     OW72270   2.904   2.766   7.693 -0.1834 -0.0233  0.4103
55222SOL    HW172271   2.844   2.782   7.767 -1.6456  0.7070 -0.8596
55222SOL    HW272272   2.930   2.854   7.666 -0.4483 -0.2290 -0.5349
55223SOL     OW72273   3.819   2.325   3.785 -0.4185 -0.5679 -0.5272
55223SOL    HW172274   3.881   2.395   3.806 -1.4963 -0.1733  1.6015
55223SOL    HW272275   3.807   2.331   3.690  2.2198 -0.2247 -0.9038
55224SOL     OW72276   9.461  12.009   8.155 -0.2339  0.0532 -0.1278
55224SOL    HW172277   9.436  11.916   8.158 -0.1461 -0.0141 -1.1483
55224SOL    HW272278   9.548  12.009   8.115 -0.6705  0.6419 -1.1165
55225SOL     OW72279   6.988   0.809   1.146 -0.4348  0.4521 -0.1111
55225SOL    HW172280   7.005   0.867   1.219  0.5518  2.3405 -1.7387
55225SOL    HW272281   7.074   0.798   1.103 -1.3071  1.1562 -2.1735
55226SOL     OW72282  12.307   7.061   9.715 -0.0487 -0.4793  0.0835
55226SOL    HW172283  12.250   7.018   9.780  0.4793 -1.4911 -0.1017
55226SOL    HW272284  12.379   7.097   9.766 -0.1078 -0.4786  0.1657
55227SOL     OW72285  11.951  10.371   4.952  0.4004 -0.1255  0.4562
55227SOL    HW172286  11.897  10.447   4.969  1.1683  0.5300  0.0424
55227SOL    HW272287  12.001  10.358   5.033  0.1500 -0.2978  0.5852
55228SOL     OW72288  10.349   2.776   1.076  0.0967  0.5236  0.2436
55228SOL    HW172289  10.391   2.692   1.098 -1.1092 -0.3210 -0.5449
55228SOL    HW272290  10.291   2.794   1.150 -0.3948  0.1381 -0.0447
55229SOL     OW72291   2.376  12.197   4.676  0.2354  0.1640 -0.5570
55229SOL    HW172292   2.377  12.212   4.770  3.9441  2.0494 -0.6923
55229SOL    HW272293   2.341  12.108   4.665  0.7815 -0.5597  2.6855
55230SOL     OW72294   7.830   0.555   8.694  0.1411  0.9971  0.6412
55230SOL    HW172295   7.753   0.519   8.738  1.2669 -0.9830  1.1281
55230SOL    HW272296   7.823   0.525   8.604  0.1218  1.2257  0.5648
55231SOL     OW72297   1.947   1.083   1.050 -0.0402 -0.1105 -0.8367
55231SOL    HW172298   1.967   1.131   0.969 -1.0781  1.3533 -0.2460
55231SOL    HW272299   2.030   1.081   1.097  0.1090  0.8015 -1.0368
55232SOL     OW72300   4.583   3.176   4.344  0.0960  0.2595  0.3777
55232SOL    HW172301   4.662   3.174   4.289 -0.5404  0.3877 -0.5554
55232SOL    HW272302   4.596   3.104   4.407  0.9880  0.3273  0.2832
55233SOL     OW72303  10.302   9.287   3.257  0.5122 -0.1952  0.4524
55233SOL    HW172304  10.224   9.301   3.203  0.6831  0.4332  0.3659
55233SOL    HW272305  10.329   9.198   3.237  0.0526 -0.2743  0.1744
55234SOL     OW72306   9.612  12.725  12.679  0.1867  0.2803  0.6573
55234SOL    HW172307   9.627  12.635  12.650 -4.0911 -1.4324  2.8965
55234SOL    HW272308   9.679  12.741  12.745  0.4741 -1.6372  0.8819
55235SOL     OW72309   5.693   7.393   6.431  0.5820 -0.3647 -0.5390
55235SOL    HW172310   5.767   7.370   6.374  0.9432 -0.4179 -0.0511
55235SOL    HW272311   5.705   7.486   6.448 -0.2712 -0.0311 -1.6210
55236SOL     OW72312   3.585   5.949   1.272 -0.3627  0.6372 -0.1908
55236SOL    HW172313   3.626   5.949   1.185 -1.2791  0.9720 -0.6426
55236SOL    HW272314   3.532   5.869   1.274  0.3763  0.1524  0.4276
55237SOL     OW72315   7.285   9.867   0.080 -0.3409  0.0109 -0.7063
55237SOL    HW172316   7.308   9.898  -0.008  0.0261  1.0277 -0.2732
55237SOL    HW272317   7.250   9.779   0.066 -2.0741  0.8453 -2.0802
55238SOL     OW72318   7.404  10.022   9.535  0.4013 -0.2834  0.0646
55238SOL    HW172319   7.363  10.055   9.456 -0.4552  0.9312  0.9815
55238SOL    HW272320   7.497  10.043   9.524  0.3973 -0.6813 -0.8596
55239SOL     OW72321   0.047   3.264   2.880 -0.3347  0.1480 -0.1221
55239SOL    HW172322   0.105   3.272   2.956 -0.0140 -1.4739 -0.1714
55239SOL    HW272323   0.105   3.277   2.805 -0.5009  0.9348 -0.1216
55240SOL     OW72324  10.207   7.861   8.547 -0.0142 -0.1782  0.1727
55240SOL    HW172325  10.267   7.935   8.540 -0.0426 -0.2290 -0.8425
55240SOL    HW272326  10.262   7.784   8.530  0.1002 -0.4411  1.6430
55241SOL     OW72327   9.651   1.157   3.520 -0.4100 -0.3951  0.2540
55241SOL    HW172328   9.565   1.122   3.544 -0.5590 -0.0692  0.2068
55241SOL    HW272329   9.679   1.104   3.446 -1.0878  0.2421 -0.4721
55242SOL     OW72330   5.867   9.404  10.942 -0.0046 -0.1159 -0.0127
55242SOL    HW172331   5.792   9.378  10.889 -0.8996  0.7862  0.7660
55242SOL    HW272332   5.882   9.495  10.919  2.3698 -0.8736 -1.8753
55243SOL     OW72333   9.738   0.075   1.574  0.5218 -0.0585  0.0318
55243SOL    HW172334   9.820   0.070   1.524  0.0563 -1.8905 -0.6294
55243SOL    HW272335   9.766   0.089   1.665  1.8014 -3.3949  0.2736
55244SOL     OW72336   1.007   8.352  12.117  0.0680 -0.1781 -0.2184
55244SOL    HW172337   1.011   8.414  12.044  0.9983 -0.1770 -0.1784
55244SOL    HW272338   1.071   8.285  12.094 -1.5572 -1.6244 -0.6944
55245SOL     OW72339   5.431  10.872  11.604 -0.1894  0.0361 -0.5338
55245SOL    HW172340   5.452  10.841  11.692 -1.6672 -0.2479 -0.2536
55245SOL    HW272341   5.470  10.959  11.599 -1.1538  0.6056  0.8971
55246SOL     OW72342   5.972  10.178   3.607 -0.4250 -0.1593 -0.0592
55246SOL    HW172343   5.889  10.205   3.646  0.6000  2.2123  0.6192
55246SOL    HW272344   6.020  10.138   3.680 -0.1949  0.3299  0.0613
55247SOL     OW72345  12.231   7.107   8.228 -0.2025  0.0377 -0.2155
55247SOL    HW172346  12.235   7.029   8.172  0.3244 -0.2016  0.1567
55247SOL    HW272347  12.150   7.150   8.201 -1.3938 -1.4991  0.7003
55248SOL     OW72348   8.232   0.795   7.813  0.3169  0.1752  0.1525
55248SOL    HW172349   8.291   0.869   7.823  0.0696  0.2815  0.9020
55248SOL    HW272350   8.252   0.738   7.888  0.4931 -0.5101 -0.4004
55249SOL     OW72351   1.695   9.312   7.554  0.1502 -0.1677  0.2304
55249SOL    HW172352   1.738   9.230   7.528  0.1593 -0.5214  1.3087
55249SOL    HW272353   1.765   9.377   7.552  0.0062 -0.0220 -1.2877
55250SOL     OW72354  10.371   3.762  10.218  0.3587 -0.0773  0.0868
55250SOL    HW172355  10.365   3.847  10.174 -0.4299 -0.3629 -0.3882
55250SOL    HW272356  10.289   3.754  10.266  0.2633 -0.7250 -0.1687
55251SOL     OW72357   8.149   0.407   5.673  0.0591  0.2043 -0.1463
55251SOL    HW172358   8.241   0.397   5.698  0.6041  2.3060 -1.0125
55251SOL    HW272359   8.106   0.329   5.707  2.6059 -2.2413 -1.9976
55252SOL     OW72360  11.045   5.384  11.368 -0.1273 -0.1642 -0.5881
55252SOL    HW172361  11.114   5.358  11.429 -0.8578 -0.7346  0.0165
55252SOL    HW272362  11.069   5.473  11.340 -0.3805  0.5944  1.4490
55253SOL     OW72363   8.694  11.453   2.531 -0.2135  0.1438  0.0392
55253SOL    HW172364   8.689  11.448   2.436  0.8078 -0.6138  0.0079
55253SOL    HW272365   8.637  11.526   2.555  0.0404  0.7572 -1.1915
55254SOL     OW72366  11.798   1.972   7.925 -0.5356 -0.4614 -0.5047
55254SOL    HW172367  11.872   2.020   7.890  0.0873 -0.5891  0.5833
55254SOL    HW272368  11.815   1.881   7.902  0.3347 -0.6683  0.8454
55255SOL     OW72369   8.478  12.697   2.929 -0.5987 -0.6471  0.4891
55255SOL    HW172370   8.479  12.739   3.015  1.3219 -1.0538  0.7064
55255SOL    HW272371   8.541  12.626   2.936 -0.8668 -1.0853 -1.0836
55256SOL     OW72372   1.789   9.290   0.271 -0.7588  0.6850 -0.3158
55256SOL    HW172373   1.771   9.376   0.309  0.5517  0.6153  0.5190
55256SOL    HW272374   1.807   9.234   0.346 -1.6256 -0.3476 -0.8443
55257SOL     OW72375   7.654   4.170  11.387  0.1122 -0.1102 -0.1679
55257SOL    HW172376   7.582   4.107  11.389  1.5437 -1.7766  1.2920
55257SOL    HW272377   7.677   4.184  11.478  1.6816  0.3550 -0.6078
55258SOL     OW72378   1.567   0.714   8.147  0.9747 -0.8278 -1.0967
55258SOL    HW172379   1.564   0.655   8.222 -0.2420 -0.2717 -0.6891
55258SOL    HW272380   1.613   0.664   8.079  1.6904 -1.4985 -0.1335
55259SOL     OW72381   9.367   1.050  10.080  0.2502  0.2081 -0.2588
55259SOL    HW172382   9.386   1.009  10.164 -1.1856  1.1488  0.5610
55259SOL    HW272383   9.404   0.989  10.016  1.5950 -0.4005  1.0360
55260SOL     OW72384   4.453   2.854   8.607 -0.1435 -0.0552 -0.0902
55260SOL    HW172385   4.387   2.829   8.671 -0.3832 -1.3941 -0.8362
55260SOL    HW272386   4.515   2.781   8.607  1.0352  0.9087  0.1679
55261SOL     OW72387   0.996   9.701  11.313 -0.8051 -0.1108  0.0546
55261SOL    HW172388   1.090   9.707  11.332 -0.6585 -1.7292  0.0362
55261SOL    HW272389   0.985   9.746  11.230 -0.0516  0.1384  0.0813
55262SOL     OW72390   0.354   4.725   7.719  0.3683 -0.1226 -0.6098
55262SOL    HW172391   0.437   4.695   7.756  0.0901 -0.5733 -0.3415
55262SOL    HW272392   0.371   4.816   7.693  0.1928  0.6683  1.8498
55263SOL     OW72393   7.004   4.155   9.642  0.2056  0.3741 -0.1237
55263SOL    HW172394   7.078   4.167   9.701 -0.1255 -1.6319  0.7880
55263SOL    HW272395   7.042   4.112   9.565 -0.1708 -2.3848  1.0979
55264SOL     OW72396   5.064   4.981   1.328  0.1783 -0.3329  0.1402
55264SOL    HW172397   5.123   4.919   1.372 -0.9537 -1.6960 -0.1908
55264SOL    HW272398   4.979   4.966   1.368 -0.8428 -1.4545 -2.2672
55265SOL     OW72399   8.936  11.306   0.603 -0.4086  0.0654  0.2995
55265SOL    HW172400   9.014  11.261   0.569 -1.6604 -1.5286 -0.6008
55265SOL    HW272401   8.934  11.282   0.695 -0.6072 -1.1041  0.0100
55266SOL     OW72402  11.389   7.686   4.843  0.1996 -0.4269  0.1196
55266SOL    HW172403  11.426   7.757   4.896 -0.7041 -0.1802  0.4408
55266SOL    HW272404  11.317   7.652   4.896  1.4417 -2.4973  0.5887
55267SOL     OW72405   5.035  10.473   9.398 -0.6219  0.0723 -0.0071
55267SOL    HW172406   4.998  10.388   9.425  0.1901 -0.3172 -0.1087
55267SOL    HW272407   4.959  10.532   9.397 -0.9149 -0.2096  1.8255
55268SOL     OW72408  12.569   5.301   2.233 -0.5547 -0.4193  0.1031
55268SOL    HW172409  12.521   5.380   2.209  0.7781  0.0249 -1.2740
55268SOL    HW272410  12.523   5.267   2.310 -0.9136  1.9357  1.0266
55269SOL     OW72411   3.815   2.752  10.589 -0.0863 -0.1959 -0.3765
55269SOL    HW172412   3.723   2.751  10.616 -0.2082  0.1910 -0.7633
55269SOL    HW272413   3.837   2.659  10.578 -1.4260 -0.2960 -3.4929
55270SOL     OW72414   4.837   1.988  10.208 -0.5802 -0.0304 -0.1471
55270SOL    HW172415   4.766   2.007  10.269 -0.4405  1.3727 -0.3785
55270SOL    HW272416   4.899   2.060  10.220  0.0379 -0.3860 -1.0746
55271SOL     OW72417   2.000   8.805  12.355  0.1000 -0.0604  0.3096
55271SOL    HW172418   2.008   8.812  12.450  0.0065  2.1270  0.2082
55271SOL    HW272419   1.921   8.753  12.341  0.5711 -1.1258  1.3943
55272SOL     OW72420   5.963   8.986   3.365 -0.1598 -1.0214 -0.6899
55272SOL    HW172421   5.999   8.898   3.378  1.6972 -0.5982 -2.3702
55272SOL    HW272422   6.013   9.041   3.425 -1.1518 -1.0644  0.1863
55273SOL     OW72423  10.497   8.044   1.057 -0.2511 -0.2071 -0.1560
55273SOL    HW172424  10.483   8.116   0.994 -0.2193  1.3516  1.5346
55273SOL    HW272425  10.590   8.024   1.050  0.2804  1.5847  0.9706
55274SOL     OW72426   7.811   8.444   4.317 -0.3289  0.7162 -0.1350
55274SOL    HW172427   7.836   8.517   4.374  1.5931  0.6021 -0.7415
55274SOL    HW272428   7.848   8.467   4.232 -2.0605  0.2884 -1.0530
55275SOL     OW72429   3.820   2.859   1.193 -0.0885 -0.5798 -0.4238
55275SOL    HW172430   3.897   2.910   1.165 -0.7055  0.7965  0.2962
55275SOL    HW272431   3.822   2.781   1.136  1.8172 -0.5877 -0.4374
55276SOL     OW72432   1.527   4.338   0.446  0.2907 -0.1404 -0.2938
55276SOL    HW172433   1.597   4.284   0.408  0.1010 -1.4159  1.1213
55276SOL    HW272434   1.474   4.278   0.497 -0.1864  1.3074  0.9951
55277SOL     OW72435   0.640   1.594   3.270 -0.3937 -0.3914 -0.3273
55277SOL    HW172436   0.579   1.611   3.341 -1.2139 -1.6509 -0.7062
55277SOL    HW272437   0.593   1.536   3.211  1.6633 -2.7063  0.1317
55278SOL     OW72438   2.097   5.265  11.928  0.2936  0.0171 -0.4544
55278SOL    HW172439   2.025   5.318  11.895  0.2339  0.3491  0.1800
55278SOL    HW272440   2.060   5.179  11.942 -1.3020  1.1455  4.0365
55279SOL     OW72441  11.125   6.723   8.148 -0.3677 -0.2530 -0.7542
55279SOL    HW172442  11.108   6.650   8.207 -0.1778 -1.0476 -1.6742
55279SOL    HW272443  11.217   6.713   8.123 -0.5491 -0.1334 -1.4742
55280SOL     OW72444   7.180   4.207  12.657 -0.4612 -0.3043 -0.2649
55280SOL    HW172445   7.225   4.130  12.692  0.5024  0.4055  0.0939
55280SOL    HW272446   7.094   4.205  12.699 -1.3918 -2.4455 -1.9986
55281SOL     OW72447   2.674   9.103   5.275 -0.5758  0.1896 -0.0897
55281SOL    HW172448   2.759   9.087   5.314 -1.5402 -1.6966  1.4078
55281SOL    HW272449   2.669   9.041   5.202 -0.1927  1.2049 -1.0066
55282SOL     OW72450   5.590  10.855   0.693 -0.4494 -0.3153 -0.0682
55282SOL    HW172451   5.631  10.941   0.686 -2.2454  1.0143  3.3903
55282SOL    HW272452   5.655  10.801   0.738 -0.7780  0.4677  1.3851
55283SOL     OW72453   6.063   1.697   7.814  0.3605  0.3886 -0.6631
55283SOL    HW172454   6.107   1.781   7.801 -0.3282  0.7206 -0.9112
55283SOL    HW272455   6.129   1.631   7.794  1.2151  0.8601  0.5165
55284SOL     OW72456   4.130   2.984   4.043  0.4369  0.0220  0.2014
55284SOL    HW172457   4.204   2.928   4.066 -0.0753 -0.9672 -0.5196
55284SOL    HW272458   4.053   2.929   4.055 -0.0772  0.5527 -0.5792
55285SOL     OW72459   8.893   6.149  11.197  0.2842 -0.2299  0.3748
55285SOL    HW172460   8.891   6.087  11.270  1.1488 -1.4355 -0.5753
55285SOL    HW272461   8.981   6.185  11.199  0.2498 -0.1249  0.0442
55286SOL     OW72462   0.173   9.867   8.030 -0.2673  0.2397  0.1406
55286SOL    HW172463   0.182   9.798   8.096 -1.2037  1.2176  1.3561
55286SOL    HW272464   0.235   9.935   8.058 -2.0998  1.5573  1.3019
55287SOL     OW72465   9.649   3.558   9.700  0.2248 -0.0385 -0.2632
55287SOL    HW172466   9.738   3.525   9.686  0.1015 -0.5791  0.1873
55287SOL    HW272467   9.653   3.601   9.785 -0.1942 -0.9831  0.2458
55288SOL     OW72468  11.241   9.824   1.958 -1.1156  0.5634  0.4762
55288SOL    HW172469  11.186   9.902   1.962 -2.9700 -0.5745 -1.2351
55288SOL    HW272470  11.201   9.769   1.891  0.7418 -1.4155  0.8672
55289SOL     OW72471   0.843  10.049  11.188  0.0496 -0.2165  0.0877
55289SOL    HW172472   0.806  10.024  11.273 -2.3711  1.8345 -0.2629
55289SOL    HW272473   0.805   9.986  11.126  0.4695 -0.6523  0.2607
55290SOL     OW72474   6.005  11.291   2.592 -0.3828  0.5756  0.3154
55290SOL    HW172475   6.053  11.373   2.581  0.2443  0.4683  1.9729
55290SOL    HW272476   6.056  11.241   2.656 -1.7328 -0.3298  0.7449
55291SOL     OW72477  10.200   0.833   4.650 -0.0973  0.6460  0.0568
55291SOL    HW172478  10.267   0.789   4.701 -0.8224 -1.3522 -0.6307
55291SOL    HW272479  10.248   0.899   4.600  1.2488 -0.2575  0.0995
55292SOL     OW72480   0.836  10.833  11.057  0.1787  0.3510  0.4694
55292SOL    HW172481   0.806  10.847  11.147  1.3699 -0.7974  1.0684
55292SOL    HW272482   0.756  10.841  11.004 -0.8185 -0.5341  1.7801
55293SOL     OW72483   5.630   2.146  10.584  0.7066 -0.2551  0.7030
55293SOL    HW172484   5.645   2.139  10.678 -1.3888 -0.7882  1.0556
55293SOL    HW272485   5.672   2.228  10.559  0.5841  0.3280  2.2833
55294SOL     OW72486  12.714   6.178   3.540  0.0705 -0.3161 -0.1271
55294SOL    HW172487  12.764   6.161   3.620  0.5460  0.4529 -0.2513
55294SOL    HW272488  12.735   6.104   3.483  0.5471 -0.3415  0.0752
55295SOL     OW72489   2.306   4.555   3.448 -0.7196 -0.0914 -0.8129
55295SOL    HW172490   2.220   4.514   3.449 -1.2997  1.0604  1.2841
55295SOL    HW272491   2.366   4.489   3.481 -1.6039  0.5287  2.3116
55296SOL     OW72492  11.631  10.142   4.058  0.3201 -0.3577  0.2454
55296SOL    HW172493  11.708  10.163   4.110  1.5660  1.6737 -2.2372
55296SOL    HW272494  11.577  10.221   4.061 -0.3282 -0.7679 -0.2821
55297SOL     OW72495   8.634   2.397   3.832  0.2015  0.4173 -0.6214
55297SOL    HW172496   8.622   2.481   3.786 -2.9199  0.6866  0.4286
55297SOL    HW272497   8.680   2.420   3.913 -0.4697  1.1233 -0.4255
55298SOL     OW72498   4.135   3.009  10.334 -0.3517 -0.2457  0.0558
55298SOL    HW172499   4.134   3.104  10.348 -0.3864 -0.1044 -0.8343
55298SOL    HW272500   4.044   2.988  10.313  0.1397  0.0049 -2.6210
55299SOL     OW72501  11.773   8.223   6.115  0.0168 -0.2006  0.4727
55299SOL    HW172502  11.770   8.162   6.188  0.3663 -0.2594  0.4397
55299SOL    HW272503  11.811   8.303   6.151 -0.9859  0.2065  0.6578
55300SOL     OW72504   4.591  12.537   9.802  0.3284 -0.3046  0.3286
55300SOL    HW172505   4.683  12.531   9.828  0.3327 -1.1296  0.1509
55300SOL    HW272506   4.593  12.528   9.707  0.0662 -0.3433  0.3268
55301SOL     OW72507   4.599   3.460   2.579 -0.5213 -0.3557  0.3228
55301SOL    HW172508   4.594   3.395   2.649  0.8336  0.8382  1.6035
55301SOL    HW272509   4.681   3.507   2.595 -1.3073  1.4959 -0.6806
55302SOL     OW72510   2.556   3.747  11.305  0.1911  0.5041 -0.2080
55302SOL    HW172511   2.620   3.767  11.374  0.0313 -0.5680  0.2692
55302SOL    HW272512   2.475   3.787  11.337  0.2277  0.4118  0.0046
55303SOL     OW72513   0.493   0.534  11.963  0.5922 -0.2539 -0.0689
55303SOL    HW172514   0.501   0.590  12.041 -1.0858 -1.6646  1.1957
55303SOL    HW272515   0.416   0.567  11.917  0.0107 -1.0337  0.3131
55304SOL     OW72516   3.492   9.769   2.728  0.1799  0.3654 -0.0676
55304SOL    HW172517   3.436   9.847   2.725 -0.6762 -0.1471  1.5041
55304SOL    HW272518   3.440   9.704   2.776  2.3338  0.0578  2.0127
55305SOL     OW72519  11.483   7.542   9.043  0.4166  0.3244 -0.3367
55305SOL    HW172520  11.485   7.637   9.054  0.6730  0.3236 -0.3555
55305SOL    HW272521  11.415   7.512   9.103  1.2150  0.4048  0.6435
55306SOL     OW72522   2.845   8.735   3.573 -0.0405  0.2780 -0.2435
55306SOL    HW172523   2.830   8.738   3.479  0.4839  0.6093 -0.3199
55306SOL    HW272524   2.759   8.746   3.612 -0.1550  0.9601 -0.6777
55307SOL     OW72525   3.399   7.150   8.681  0.1763  0.0888  0.5833
55307SOL    HW172526   3.458   7.226   8.681  2.3603 -1.4909  0.6860
55307SOL    HW272527   3.314   7.185   8.657  1.1053  2.5613  0.6265
55308SOL     OW72528   0.855   3.731   8.988  1.0943  0.3768  0.0880
55308SOL    HW172529   0.909   3.750   9.064 -1.0696 -0.1621  1.8636
55308SOL    HW272530   0.793   3.803   8.983  0.8304  0.1075 -0.8245
55309SOL     OW72531  11.180   1.876   8.811  0.1164 -0.1842 -0.6322
55309SOL    HW172532  11.177   1.966   8.843 -2.4615 -0.0528 -1.0352
55309SOL    HW272533  11.273   1.859   8.794  0.7220  2.1607  0.0526
55310SOL     OW72534   7.712  11.596   4.615 -0.1475  0.7226 -0.0823
55310SOL    HW172535   7.793  11.586   4.565  0.2771 -1.1376  0.8721
55310SOL    HW272536   7.642  11.583   4.551  0.3608 -0.2248 -0.4695
55311SOL     OW72537   8.955   3.178   1.043 -0.0385 -0.2220 -0.0002
55311SOL    HW172538   8.976   3.211   0.955  0.2644  0.2719  0.2530
55311SOL    HW272539   8.863   3.200   1.055 -0.1847 -0.6432 -0.3510
55312SOL     OW72540   1.604   8.175   5.798  0.3463 -0.0681 -0.3095
55312SOL    HW172541   1.581   8.263   5.829 -0.2926 -1.1476  2.6058
55312SOL    HW272542   1.698   8.178   5.783  1.0551  0.2648  3.3517
55313SOL     OW72543   8.917   0.687   1.144 -0.3881 -0.6604  0.1317
55313SOL    HW172544   8.938   0.769   1.189 -0.9987 -0.8066  0.7035
55313SOL    HW272545   8.987   0.627   1.169 -0.1085 -0.4044 -0.0364
55314SOL     OW72546   2.475  10.317   0.124 -0.0483 -0.2483  0.1124
55314SOL    HW172547   2.486  10.283   0.035  0.9797  2.0876 -0.7198
55314SOL    HW272548   2.541  10.270   0.175 -0.0711 -1.0073 -0.5241
55315SOL     OW72549   1.042   8.023   2.918  0.2705  0.1418 -0.4484
55315SOL    HW172550   1.043   8.105   2.967 -0.4046  0.7302 -1.3870
55315SOL    HW272551   1.101   7.965   2.966  1.5557  1.4969 -0.3247
55316SOL     OW72552   2.702   9.361   4.454 -0.3684  0.6228  0.1728
55316SOL    HW172553   2.767   9.413   4.502 -0.0695  0.5615 -0.1642
55316SOL    HW272554   2.750   9.284   4.425 -0.3100  1.0688 -0.9690
55317SOL     OW72555   5.329   4.563   5.985 -0.0897 -0.1612  0.0457
55317SOL    HW172556   5.344   4.492   5.923  0.9370 -0.4883  0.6487
55317SOL    HW272557   5.392   4.547   6.055 -1.2807  0.1545  1.2217
55318SOL     OW72558   8.330   6.623   1.777  0.0698 -0.8488  0.0063
55318SOL    HW172559   8.369   6.592   1.859 -0.6761 -1.7141  0.0503
55318SOL    HW272560   8.399   6.675   1.736  0.7528 -1.1213  0.7795
55319SOL     OW72561   7.727   8.190  11.218  0.3681  0.0470  0.0690
55319SOL    HW172562   7.750   8.110  11.173 -0.4011 -0.2665  0.2237
55319SOL    HW272563   7.675   8.240  11.155 -0.7072 -0.3928  0.6021
55320SOL     OW72564   0.715   7.988  10.721 -0.1943  0.1394 -0.5359
55320SOL    HW172565   0.696   8.061  10.662 -0.3995  1.3900  1.0295
55320SOL    HW272566   0.636   7.977  10.772  0.3427 -0.2441  0.2313
55321SOL     OW72567   4.462   2.803   7.925  0.0931 -0.0431  0.2267
55321SOL    HW172568   4.535   2.863   7.911  1.1095 -0.0603  4.2371
55321SOL    HW272569   4.495   2.718   7.897  2.0006 -0.1612  2.4647
55322SOL     OW72570  11.166  12.229   6.870  0.4530  0.2266 -0.4909
55322SOL    HW172571  11.128  12.166   6.809  3.1019 -1.7196 -0.3288
55322SOL    HW272572  11.197  12.175   6.944  2.4104  1.7355 -0.1090
55323SOL     OW72573   1.914   3.510   6.177  0.1114  1.3429 -0.7354
55323SOL    HW172574   1.992   3.456   6.191 -0.0260  1.2586 -0.2708
55323SOL    HW272575   1.940   3.574   6.110  0.9399  2.0485  0.2370
55324SOL     OW72576  11.547   9.218  10.352  0.5056  0.2244  0.0533
55324SOL    HW172577  11.633   9.182  10.331  0.8537  0.3851  1.0897
55324SOL    HW272578  11.516   9.165  10.426  0.1512  0.7740  0.3115
55325SOL     OW72579   2.000  12.304   5.713 -0.6206 -0.0489 -0.2694
55325SOL    HW172580   2.038  12.217   5.725 -0.8832 -0.1420 -0.0915
55325SOL    HW272581   2.035  12.355   5.785  0.8351  0.4556 -1.2919
55326SOL     OW72582   4.899  12.078   0.999 -0.3054 -0.1075  0.4252
55326SOL    HW172583   4.939  12.094   0.913  0.2199  0.5011  0.7701
55326SOL    HW272584   4.973  12.078   1.060 -0.6991 -0.3077  0.9109
55327SOL     OW72585  12.078  11.432   4.598 -0.0204  0.3469  0.3265
55327SOL    HW172586  12.054  11.423   4.690 -0.8436  0.0194  0.0810
55327SOL    HW272587  12.144  11.364   4.583 -0.8958 -0.5106  0.3275
55328SOL     OW72588   6.794   7.984   7.475  0.0025  0.1449  0.6133
55328SOL    HW172589   6.729   7.948   7.535 -0.0893 -0.4757  0.1553
55328SOL    HW272590   6.745   8.002   7.395  0.6408 -1.8321 -0.3061
55329SOL     OW72591   8.079   0.060   5.401 -0.1651 -0.5281  0.1942
55329SOL    HW172592   8.043  -0.025   5.378  2.3396 -1.1670 -1.9008
55329SOL    HW272593   8.136   0.082   5.328  2.0122  1.2811  2.2624
55330SOL     OW72594   7.524   6.471  10.141  0.5424  0.0620  0.3681
55330SOL    HW172595   7.436   6.443  10.166  0.4281  0.1038  0.0189
55330SOL    HW272596   7.579   6.443  10.214  0.4506 -1.1893 -0.0168
55331SOL     OW72597   9.467  10.979   1.563 -0.0334  0.0923 -0.1259
55331SOL    HW172598   9.437  10.911   1.502  2.0343 -1.8161  0.8489
55331SOL    HW272599   9.525  11.034   1.510  1.0810 -1.0547 -0.1573
55332SOL     OW72600  10.101   7.652   0.276 -0.0998 -0.1508 -0.1366
55332SOL    HW172601  10.171   7.620   0.333  0.1610  1.0620  0.2483
55332SOL    HW272602  10.095   7.586   0.207  0.6584 -0.8391  0.4286
55333SOL     OW72603   0.174   9.419   8.768 -0.2970 -0.1702 -0.3188
55333SOL    HW172604   0.089   9.433   8.727 -0.5779 -0.7586  0.0549
55333SOL    HW272605   0.155   9.409   8.861  0.3053  0.8515 -0.0582
55334SOL     OW72606   6.599   7.259  12.727  0.1174  0.1140 -0.2431
55334SOL    HW172607   6.687   7.238  12.758 -0.2472 -0.7338  0.2480
55334SOL    HW272608   6.598   7.355  12.721  1.3152  0.1007 -1.0105
55335SOL     OW72609   9.068   4.817   8.172 -0.1832  0.0080  0.4538
55335SOL    HW172610   9.015   4.853   8.244  0.7412 -0.6455  1.4831
55335SOL    HW272611   9.103   4.894   8.128 -1.4138  0.4395  0.1688
55336SOL     OW72612   3.707   3.336  11.490 -0.4976  0.4750  1.0452
55336SOL    HW172613   3.689   3.383  11.409  2.1800  0.6130  0.4172
55336SOL    HW272614   3.742   3.402  11.549 -0.6688  0.0279  1.6636
55337SOL     OW72615  11.663   8.393   4.315  0.4042 -0.1697  0.1952
55337SOL    HW172616  11.759   8.391   4.319  0.3873  0.3817  1.2477
55337SOL    HW272617  11.638   8.305   4.287  1.1536 -1.0800  2.1885
55338SOL     OW72618   5.948   7.899   7.195 -0.2776 -0.4736 -0.1567
55338SOL    HW172619   5.977   7.988   7.178  0.8558 -1.0872 -1.6831
55338SOL    HW272620   5.868   7.889   7.144  0.5602 -0.8458 -1.4457
55339SOL     OW72621   7.140  12.556   3.837 -0.0967  0.0200  0.1041
55339SOL    HW172622   7.198  12.628   3.860 -0.0449 -0.0100  0.0661
55339SOL    HW272623   7.057  12.598   3.816  0.2323  0.1565 -0.9539
55340SOL     OW72624  12.783   6.844   8.785  0.1295  0.5837  0.2564
55340SOL    HW172625  12.716   6.874   8.724  1.4832 -0.2441 -1.7608
55340SOL    HW272626  12.743   6.851   8.871 -2.6342 -0.1660 -0.8687
55341SOL     OW72627   5.474   7.777   1.794  0.8564 -0.5341 -0.2684
55341SOL    HW172628   5.419   7.704   1.823 -0.7706  0.9036  0.4096
55341SOL    HW272629   5.553   7.770   1.847 -0.3460 -0.3453  1.6335
55342SOL     OW72630   6.165   2.641  12.497  0.4126  0.0885  0.1223
55342SOL    HW172631   6.153   2.547  12.509  1.8184 -0.0195  0.9345
55342SOL    HW272632   6.081   2.672  12.465 -0.6682 -1.1507  1.5957
55343SOL     OW72633   8.783   0.266   2.437  0.2696 -0.0061  0.3194
55343SOL    HW172634   8.798   0.335   2.372 -0.1436  0.0293  0.2628
55343SOL    HW272635   8.850   0.200   2.416 -0.4003 -0.3958 -0.7113
55344SOL     OW72636  10.103   7.036   6.535 -0.6439  0.3907 -0.1612
55344SOL    HW172637  10.020   7.030   6.488 -0.5491  0.6047 -0.3546
55344SOL    HW272638  10.146   6.953   6.518 -0.8136  0.2799 -0.0643
55345SOL     OW72639  12.533   0.427  10.913  0.4787  0.2880 -0.5580
55345SOL    HW172640  12.468   0.427  10.983  0.9229 -0.4167 -0.1282
55345SOL    HW272641  12.503   0.494  10.851 -0.6158  0.0199 -0.3380
55346SOL     OW72642  10.155  11.052  12.192  0.5607  0.2051  0.6974
55346SOL    HW172643  10.148  11.123  12.129 -2.0067 -0.2506  0.3847
55346SOL    HW272644  10.211  10.988  12.150  0.0453  0.5311 -0.5189
55347SOL     OW72645   6.827   0.760  11.674  0.1852  0.5274 -0.2534
55347SOL    HW172646   6.813   0.803  11.758 -0.2386 -0.2346  0.0748
55347SOL    HW272647   6.808   0.668  11.690  1.4251  0.1350 -0.8516
55348SOL     OW72648   1.449   9.439   3.504 -0.2351  0.1446  0.0059
55348SOL    HW172649   1.519   9.414   3.564 -1.0400  0.0818  0.9481
55348SOL    HW272650   1.427   9.358   3.458 -0.8551 -0.2369  0.9529
55349SOL     OW72651   3.982   8.282   1.798 -0.1640 -0.7942 -0.5056
55349SOL    HW172652   3.984   8.234   1.715 -0.1875 -3.7365  1.0674
55349SOL    HW272653   4.028   8.226   1.860  1.8035  2.3116  1.0722
55350SOL     OW72654   5.231  10.213   4.420  0.0857 -0.3967 -0.0718
55350SOL    HW172655   5.187  10.153   4.360  1.2217 -0.2376 -1.1159
55350SOL    HW272656   5.260  10.159   4.493 -2.2827 -0.4063  0.9349
55351SOL     OW72657   3.372   6.151   2.999  0.6683  0.3965 -0.1569
55351SOL    HW172658   3.334   6.065   2.978  0.3137  0.8217 -1.3548
55351SOL    HW272659   3.464   6.131   3.019  0.4763 -0.3169  0.0657
55352SOL     OW72660   3.475   3.200  12.573  0.3931  0.0350  0.0809
55352SOL    HW172661   3.480   3.282  12.524  0.8847 -1.0942 -1.8625
55352SOL    HW272662   3.395   3.158  12.541 -0.2160 -0.0095  1.5425
55353SOL     OW72663  10.034   9.327   2.355  0.4151  0.2245  0.0828
55353SOL    HW172664  10.019   9.243   2.399  0.0867 -0.0643 -0.5535
55353SOL    HW272665   9.947   9.360   2.336  0.5397 -0.0079 -0.9725
55354SOL     OW72666   7.479   1.377  10.818  0.1257  0.2253 -0.1146
55354SOL    HW172667   7.390   1.340  10.815  0.4543 -0.6706  0.5578
55354SOL    HW272668   7.536   1.301  10.828  0.7941  0.9286  1.9977
55355SOL     OW72669   0.164   7.593  11.024 -0.1456  0.0180 -0.2819
55355SOL    HW172670   0.075   7.622  11.001 -0.6299 -2.9714 -2.8584
55355SOL    HW272671   0.221   7.653  10.975 -0.7907  0.6999 -0.2232
55356SOL     OW72672  12.605   2.510   7.190  0.3115  0.2110  0.4294
55356SOL    HW172673  12.685   2.500   7.139  0.1779 -3.1274  0.6353
55356SOL    HW272674  12.625   2.579   7.253  1.9775  1.4162 -1.3209
55357SOL     OW72675   4.297   2.166  11.123  0.1203  0.3342  0.2712
55357SOL    HW172676   4.300   2.147  11.217 -1.5702 -2.1834 -0.0923
55357SOL    HW272677   4.382   2.139  11.090  0.7003  1.1735  1.0450
55358SOL     OW72678  10.175   6.826   6.918  0.0842 -0.1427  0.2624
55358SOL    HW172679  10.176   6.918   6.889 -1.1267  0.0382  0.7335
55358SOL    HW272680  10.266   6.799   6.913  0.7805  1.6480  1.8127
55359SOL     OW72681   0.494   5.090  12.586 -0.0549  0.4035  0.6644
55359SOL    HW172682   0.547   5.158  12.544 -0.2022  0.7190  0.9781
55359SOL    HW272683   0.487   5.021  12.520  0.8139  0.3191  0.6493
55360SOL     OW72684   8.031   5.141   1.640  0.5571  0.5487 -0.2035
55360SOL    HW172685   7.984   5.167   1.719  1.1134  1.2178 -0.0793
55360SOL    HW272686   7.963   5.120   1.576  0.0970  1.2999  0.0340
55361SOL     OW72687   8.864   7.256  10.477  0.3991 -0.1472  0.3979
55361SOL    HW172688   8.778   7.298  10.472  0.3711 -0.1818  0.6021
55361SOL    HW272689   8.896   7.277  10.565 -0.1129 -1.5271  0.9298
55362SOL     OW72690   8.513   1.105   0.602 -0.5195  0.0651  0.3564
55362SOL    HW172691   8.490   1.018   0.635 -0.2334 -0.5451 -0.9720
55362SOL    HW272692   8.569   1.143   0.670 -2.7834  0.3200  2.1917
55363SOL     OW72693   5.659   4.013  11.822 -0.4489  0.2936  0.6721
55363SOL    HW172694   5.709   4.089  11.792 -0.3504 -0.2766 -0.6823
55363SOL    HW272695   5.592   4.049  11.880  0.3492  1.2731  1.0155
55364SOL     OW72696  12.059   4.658   5.079  0.0344  0.4312  0.4144
55364SOL    HW172697  12.105   4.687   5.001  0.7682 -0.0689  0.6506
55364SOL    HW272698  12.023   4.738   5.117 -2.8575  0.4295 -1.9536
55365SOL     OW72699   4.464  11.373   5.079 -0.1646  0.3038 -0.7643
55365SOL    HW172700   4.539  11.417   5.038 -0.6804  1.7701 -0.2065
55365SOL    HW272701   4.392  11.436   5.071 -1.6378 -1.4633 -2.1619
55366SOL     OW72702   8.684  12.451   9.420 -0.3112  0.6024  0.3597
55366SOL    HW172703   8.618  12.403   9.469 -0.8913 -1.2367 -2.0584
55366SOL    HW272704   8.758  12.390   9.413  0.8570  1.8529  1.2129
55367SOL     OW72705   1.163   0.219   1.906  0.5806  0.1735  0.1937
55367SOL    HW172706   1.194   0.238   1.817  0.4092  1.2371  0.3416
55367SOL    HW272707   1.236   0.177   1.949  0.4241 -1.0319 -0.6652
55368SOL     OW72708   8.093   8.589   5.328  0.5678  0.3293 -0.2461
55368SOL    HW172709   8.147   8.650   5.378 -0.0184  0.8809 -0.2734
55368SOL    HW272710   8.062   8.640   5.254 -0.1697  0.0904 -0.1106
55369SOL     OW72711   7.785   6.829   0.785  0.3375 -0.0611  0.2395
55369SOL    HW172712   7.786   6.878   0.867  2.7100 -1.5629  1.2029
55369SOL    HW272713   7.805   6.895   0.718 -0.6145  1.0005  0.9501
55370SOL     OW72714   3.991   9.282   6.217  0.1349 -0.4457 -0.2328
55370SOL    HW172715   4.018   9.374   6.220 -2.4571  0.3878  0.4208
55370SOL    HW272716   3.927   9.274   6.287 -0.2423 -2.5810 -0.7617
55371SOL     OW72717   3.586   9.228   2.580 -0.2239  0.3594 -0.4987
55371SOL    HW172718   3.595   9.288   2.506 -0.4751 -0.9072 -1.5744
55371SOL    HW272719   3.603   9.142   2.544  1.3049 -0.1536  1.2567
55372SOL     OW72720   8.521   1.361   5.186  0.5154 -0.6130 -0.5857
55372SOL    HW172721   8.570   1.309   5.250  1.3843 -0.6799 -1.2709
55372SOL    HW272722   8.588   1.388   5.122 -0.1182  0.4083 -0.8427
55373SOL     OW72723   7.855   1.558  10.155  0.3747 -0.4013 -0.0206
55373SOL    HW172724   7.873   1.648  10.127  0.6910 -0.2730  0.5835
55373SOL    HW272725   7.907   1.504  10.096 -1.3673 -0.3232 -1.7379
55374SOL     OW72726   3.137   6.741   0.925 -0.4242  0.3869 -0.0161
55374SOL    HW172727   3.047   6.710   0.915 -1.4371  2.8482  0.7403
55374SOL    HW272728   3.139   6.782   1.012  1.9305 -1.0906  0.7106
55375SOL     OW72729  11.815   8.993   5.941 -0.1655 -0.4090  0.0958
55375SOL    HW172730  11.738   8.957   5.897  0.8522 -2.0715 -0.4154
55375SOL    HW272731  11.806   9.088   5.931 -2.6767 -0.4773  1.0125
55376SOL     OW72732   2.404   0.713   6.632 -0.1201  0.1025  0.1605
55376SOL    HW172733   2.456   0.740   6.707 -0.3045 -1.6914  0.9630
55376SOL    HW272734   2.466   0.709   6.560 -0.0685  2.5426 -0.0315
55377SOL     OW72735  12.029   3.155   4.262  0.7451 -0.3543  0.0861
55377SOL    HW172736  12.109   3.172   4.211  2.6833 -3.1440  1.8913
55377SOL    HW272737  12.033   3.217   4.334 -0.5768  1.7645 -1.5617
55378SOL     OW72738   3.929   9.485   3.888 -0.8323 -0.5050 -0.9522
55378SOL    HW172739   3.972   9.474   3.803  0.4342 -1.9391 -0.1537
55378SOL    HW272740   3.882   9.569   3.880  0.0619 -0.1293 -2.7113
55379SOL     OW72741   7.090   6.475  12.288 -0.2145 -0.6453  0.4186
55379SOL    HW172742   7.022   6.443  12.347 -0.2206  0.7024  1.1791
55379SOL    HW272743   7.170   6.473  12.340  0.8671 -4.1223 -1.0421
55380SOL     OW72744   5.585  10.626   2.211 -0.3962  0.0137  0.7085
55380SOL    HW172745   5.496  10.594   2.194 -0.0328 -0.6711  0.0516
55380SOL    HW272746   5.617  10.657   2.127 -0.2310  0.8555  1.0662
55381SOL     OW72747   3.278  11.685   7.591 -0.0791 -0.2614 -0.1672
55381SOL    HW172748   3.255  11.724   7.507  1.7093 -0.1651 -0.6388
55381SOL    HW272749   3.206  11.711   7.649 -0.6983  0.7474 -1.3365
55382SOL     OW72750  10.176   3.034   1.058 -0.0850  0.2463 -0.1986
55382SOL    HW172751  10.192   2.945   1.089 -0.7267  0.7547  1.7132
55382SOL    HW272752  10.111   3.024   0.988  0.7352 -0.8742 -0.8259
55383SOL     OW72753   4.605   9.219  12.346 -0.2921 -0.0883 -0.5323
55383SOL    HW172754   4.657   9.297  12.330 -1.8799  1.7463  2.4266
55383SOL    HW272755   4.543   9.217  12.273  0.4085  0.8299 -1.1819
55384SOL     OW72756   8.329  10.745   5.183  0.5201 -0.6623  0.5225
55384SOL    HW172757   8.344  10.823   5.131 -0.8553 -1.4010 -1.0711
55384SOL    HW272758   8.242  10.758   5.223  1.1448 -0.5231  1.9012
55385SOL     OW72759   3.595   3.262   6.596  0.1256  0.2979 -0.1010
55385SOL    HW172760   3.690   3.247   6.595  0.1860  0.6357 -1.6915
55385SOL    HW272761   3.574   3.271   6.689  1.4966 -0.7133  0.3587
55386SOL     OW72762   9.207   7.691   8.126 -0.2904 -0.5281  0.3481
55386SOL    HW172763   9.114   7.714   8.123  0.0215  0.7905 -0.1483
55386SOL    HW272764   9.209   7.598   8.148 -1.7022 -0.4105  1.0467
55387SOL     OW72765   5.219   5.748   7.798  0.4432 -0.5274 -0.0007
55387SOL    HW172766   5.135   5.791   7.784  0.6047 -0.1865  0.0788
55387SOL    HW272767   5.207   5.700   7.880 -0.4722 -2.4627 -1.1988
55388SOL     OW72768   8.672   7.722   4.477 -0.2304 -0.1626  0.2629
55388SOL    HW172769   8.687   7.652   4.540  1.5038  1.7484  2.1097
55388SOL    HW272770   8.702   7.686   4.393  2.1650 -1.1347  1.4531
55389SOL     OW72771  11.088   3.043   9.063  0.2855 -0.2788  0.6525
55389SOL    HW172772  11.158   3.067   9.123  1.3684  1.7435 -1.3172
55389SOL    HW272773  11.037   2.977   9.112  2.6565 -0.7546  2.6864
55390SOL     OW72774  11.191  11.435  10.388  0.2164 -0.6013  0.0414
55390SOL    HW172775  11.262  11.438  10.452  0.1288 -0.1798  0.1247
55390SOL    HW272776  11.116  11.400  10.436  1.3673 -5.1918 -1.0547
55391SOL     OW72777   2.830   7.567  12.300 -0.4063 -0.2166  0.1578
55391SOL    HW172778   2.868   7.644  12.342  1.9590 -0.7386 -0.8920
55391SOL    HW272779   2.802   7.511  12.372  0.0981  0.5488  0.9580
55392SOL     OW72780   4.064   1.476   7.074  0.6766  0.4362  0.6451
55392SOL    HW172781   4.072   1.465   6.979 -0.3402  0.8099  0.5003
55392SOL    HW272782   3.981   1.523   7.086 -0.1874 -1.2901  1.8309
55393SOL     OW72783   4.139   9.292  10.173 -0.0749  0.3642  0.0587
55393SOL    HW172784   4.165   9.313  10.083  0.9319  0.2305  0.3058
55393SOL    HW272785   4.222   9.290  10.221 -0.5947  0.2517  0.9503
55394SOL     OW72786  11.705  12.630   5.024 -0.0200  0.1589 -0.5841
55394SOL    HW172787  11.613  12.655   5.035  0.0590  1.1429 -1.8576
55394SOL    HW272788  11.713  12.544   5.065 -1.1117  0.8008  1.0374
55395SOL     OW72789  10.698   6.937   0.300 -0.0371  0.4368  0.2641
55395SOL    HW172790  10.780   6.895   0.324  0.0814  0.5594  0.0773
55395SOL    HW272791  10.724   7.011   0.244 -0.2745  0.4481  0.1659
55396SOL     OW72792   5.339   6.824  10.614 -0.1768 -0.1804 -0.3837
55396SOL    HW172793   5.423   6.863  10.637 -0.1808 -0.3991  0.0028
55396SOL    HW272794   5.282   6.842  10.688 -0.2064 -0.8290 -0.2427
55397SOL     OW72795   7.748   3.782   0.588 -0.0632 -0.1741  0.0079
55397SOL    HW172796   7.692   3.730   0.647  0.5434 -1.3303 -0.4160
55397SOL    HW272797   7.835   3.743   0.597  0.5143  1.0563 -0.0050
55398SOL     OW72798   2.905   9.670  12.141  0.1193 -0.0980  0.5046
55398SOL    HW172799   3.000   9.679  12.133  0.0154  0.6362 -0.0058
55398SOL    HW272800   2.881   9.606  12.074  0.0662  0.9657 -0.5189
55399SOL     OW72801   3.653  10.537   5.204 -0.0770 -0.2141  0.2149
55399SOL    HW172802   3.724  10.590   5.240 -0.0914  0.2748 -0.4511
55399SOL    HW272803   3.615  10.591   5.135 -1.2353 -0.3738  0.6902
55400SOL     OW72804   7.469   2.821   2.609 -0.0956  0.0425 -0.3380
55400SOL    HW172805   7.423   2.745   2.573 -0.1493 -0.7455  1.3131
55400SOL    HW272806   7.551   2.825   2.559  0.2059 -1.5097 -0.0304
55401SOL     OW72807   9.492   5.494  10.620  0.1738 -0.0335 -0.2172
55401SOL    HW172808   9.457   5.583  10.627 -0.8310 -0.4640  0.4631
55401SOL    HW272809   9.561   5.491  10.686 -1.1922 -0.3686  1.2569
55402SOL     OW72810   2.575   0.080   7.900  0.1496  0.0762 -0.7233
55402SOL    HW172811   2.654   0.026   7.897  0.0942 -0.0647  0.1227
55402SOL    HW272812   2.506   0.021   7.930  0.0026  0.5134 -0.1716
55403SOL     OW72813   6.672   4.940  11.602  0.0392 -0.0824  0.0078
55403SOL    HW172814   6.638   4.854  11.625  1.2289 -0.4168  0.5474
55403SOL    HW272815   6.754   4.923  11.557 -0.5382  0.7109 -1.4398
55404SOL     OW72816   2.458   7.425  12.363  0.1436  0.2724  0.3286
55404SOL    HW172817   2.418   7.462  12.441 -3.2545  0.2038 -1.1939
55404SOL    HW272818   2.499   7.500  12.319 -0.3969  0.8329  0.7704
55405SOL     OW72819   4.960   4.497   3.781 -0.2140 -0.2049  0.0939
55405SOL    HW172820   4.885   4.549   3.753 -0.8840 -1.4766 -0.5834
55405SOL    HW272821   4.930   4.406   3.773  0.2559 -0.7163  2.9966
55406SOL     OW72822  11.636   5.609  11.204 -0.0040  0.1510  0.2548
55406SOL    HW172823  11.718   5.580  11.245  1.0362  0.6799 -1.3565
55406SOL    HW272824  11.652   5.602  11.110 -0.8202  2.8781 -0.1790
55407SOL     OW72825   7.832   0.049   2.579  0.3593 -0.4601  0.5289
55407SOL    HW172826   7.757   0.037   2.638 -0.1292  2.3290  0.5991
55407SOL    HW272827   7.801   0.112   2.514  2.7757  1.1634  0.8447
55408SOL     OW72828   9.761  12.775   9.847  0.2877  0.4487  0.4473
55408SOL    HW172829   9.834  12.812   9.895  0.3717  0.8803  0.0037
55408SOL    HW272830   9.705  12.850   9.827  0.3360  0.3068 -0.2566
55409SOL     OW72831   8.433   3.801   5.060 -0.0923 -0.3043  0.2552
55409SOL    HW172832   8.525   3.796   5.035 -0.2863 -0.6793 -0.4007
55409SOL    HW272833   8.385   3.775   4.981 -0.7208 -1.3537  0.9544
55410SOL     OW72834   7.307   1.838   8.458 -0.1996  0.2829  0.0561
55410SOL    HW172835   7.322   1.772   8.526  0.6734  0.1417 -0.2667
55410SOL    HW272836   7.372   1.906   8.475  1.0252 -0.4380 -1.4841
55411SOL     OW72837   0.443   9.371   9.282 -0.5010 -0.4908  0.5638
55411SOL    HW172838   0.368   9.383   9.341 -0.2131  1.7488  0.5671
55411SOL    HW272839   0.503   9.442   9.305 -0.2628  0.3295 -2.2522
55412SOL     OW72840   7.607   6.279   9.915  1.5734 -0.1144  0.3885
55412SOL    HW172841   7.591   6.339   9.988 -3.9000  2.2854 -2.2062
55412SOL    HW272842   7.655   6.332   9.851 -0.0042  0.3425 -0.4576
55413SOL     OW72843  12.638  11.376   5.076  0.1906  0.7088 -0.6417
55413SOL    HW172844  12.650  11.294   5.028 -0.7637 -0.6737  1.3438
55413SOL    HW272845  12.694  11.367   5.153  0.4205  2.1302 -0.6243
55414SOL     OW72846   7.011   6.922   3.443  0.2290  1.3144 -0.0253
55414SOL    HW172847   7.089   6.931   3.388 -0.2697  2.2442 -0.5854
55414SOL    HW272848   6.957   6.858   3.397  0.8509  0.3017  0.6068
55415SOL     OW72849   8.806  12.255   2.454  0.7977 -0.0853 -0.9480
55415SOL    HW172850   8.841  12.342   2.434  0.1646  0.3196 -0.3681
55415SOL    HW272851   8.857  12.195   2.400  3.0346  0.3451  0.5527
55416SOL     OW72852   1.147   7.391   0.800 -0.1117  0.4116  0.5363
55416SOL    HW172853   1.156   7.414   0.893 -0.0970  1.2621  0.3312
55416SOL    HW272854   1.067   7.435   0.772  0.9836  1.9258 -0.3705
55417SOL     OW72855  11.849   0.919  11.185 -0.8017 -0.3359 -0.5998
55417SOL    HW172856  11.755   0.931  11.198 -0.6816 -0.1028  0.1027
55417SOL    HW272857  11.865   0.827  11.202 -1.1119 -0.6997 -2.1211
55418SOL     OW72858   7.674   7.507   4.356 -0.8990 -0.6165  0.1622
55418SOL    HW172859   7.626   7.424   4.346 -3.8418  1.0305 -0.4913
55418SOL    HW272860   7.659   7.554   4.274  1.1712  0.4194  0.3010
55419SOL     OW72861   4.985   2.871   2.998  0.1835  0.1486  0.3436
55419SOL    HW172862   5.031   2.876   3.082  0.9273  2.4943 -0.1431
55419SOL    HW272863   5.052   2.843   2.936 -0.0034 -0.1461  0.2737
55420SOL     OW72864   9.829   7.779   4.219 -0.4534 -0.0526 -0.1829
55420SOL    HW172865   9.859   7.751   4.305 -1.0575 -1.6368 -0.4508
55420SOL    HW272866   9.821   7.698   4.169 -0.6158  0.7875 -1.5713
55421SOL     OW72867   1.415   6.997   3.181 -0.4131 -0.0707  0.2960
55421SOL    HW172868   1.351   7.027   3.116 -0.6232  1.1738  1.0455
55421SOL    HW272869   1.363   6.949   3.246 -0.7265  1.4642  1.2303
55422SOL     OW72870   6.367   3.640   1.047 -0.3632 -0.1868 -0.5375
55422SOL    HW172871   6.402   3.601   1.128 -0.4596  0.9883  0.0908
55422SOL    HW272872   6.396   3.581   0.978  1.7572  0.0161  0.1035
55423SOL     OW72873   7.024  11.674   9.228 -0.2183 -0.4515 -0.1585
55423SOL    HW172874   6.978  11.738   9.283 -1.2716 -1.4412  0.1418
55423SOL    HW272875   6.954  11.622   9.188  0.6193 -1.6992 -0.0546
55424SOL     OW72876   5.739   7.244   5.308 -0.5975 -0.5964  0.0082
55424SOL    HW172877   5.827   7.208   5.320  0.2906  0.9909 -1.2006
55424SOL    HW272878   5.747   7.335   5.338 -2.0363 -0.6248  0.5378
55425SOL     OW72879  12.218  10.502   2.315  0.0156 -0.0739 -0.6693
55425SOL    HW172880  12.262  10.519   2.231 -2.6791  1.4105 -1.9260
55425SOL    HW272881  12.212  10.407   2.319  1.0703 -0.2164 -1.6604
55426SOL     OW72882  11.092   5.979  12.108  0.6581 -0.2535  0.2654
55426SOL    HW172883  11.066   5.918  12.039  2.3196 -0.8131  0.0652
55426SOL    HW272884  11.060   6.064  12.079  0.4073 -0.6523 -0.6657
55427SOL     OW72885   2.283   3.958   2.414 -0.0974 -0.7868  0.2912
55427SOL    HW172886   2.192   3.957   2.387 -0.1172  1.1166  0.1154
55427SOL    HW272887   2.308   4.051   2.410  2.2723 -1.4006 -1.1101
55428SOL     OW72888   5.798   6.324   3.807  0.0708  0.3058  0.5124
55428SOL    HW172889   5.866   6.302   3.743  0.8100 -0.3452  1.4896
55428SOL    HW272890   5.845   6.335   3.889 -0.9402  0.4639  1.0824
55429SOL     OW72891   3.196   0.781   1.605 -0.5799  0.7429 -0.1712
55429SOL    HW172892   3.136   0.732   1.661  0.6490 -0.1614  0.4045
55429SOL    HW272893   3.173   0.873   1.620 -1.1048  0.4614  0.8509
55430SOL     OW72894   6.030   6.176   0.826 -0.0302 -0.3129 -0.1157
55430SOL    HW172895   5.968   6.158   0.897  0.5900 -0.5355  0.3852
55430SOL    HW272896   6.065   6.263   0.847 -2.1251  1.0449 -1.8654
55431SOL     OW72897   9.304  10.318  11.026 -0.2308  0.2703  0.0347
55431SOL    HW172898   9.376  10.371  10.993 -0.6425  0.1091 -1.1647
55431SOL    HW272899   9.315  10.319  11.121  0.8283  0.9780 -0.0818
55432SOL     OW72900   7.431   3.110   4.147 -0.2191 -0.0109  0.0066
55432SOL    HW172901   7.450   3.195   4.107  0.3671  0.1137  0.5307
55432SOL    HW272902   7.359   3.075   4.095  1.7231 -0.7027 -2.4129
55433SOL     OW72903   7.790  12.066  12.649 -0.1203 -0.1456  0.1235
55433SOL    HW172904   7.780  11.992  12.590  0.7245 -1.8189  1.9436
55433SOL    HW272905   7.701  12.083  12.681 -0.0680 -1.8238  1.2806
55434SOL     OW72906   0.498  12.367   6.464 -0.0722  0.7767 -0.1545
55434SOL    HW172907   0.593  12.377   6.475  0.0674 -0.8089  0.3854
55434SOL    HW272908   0.488  12.279   6.427 -1.4880 -1.1349  4.0514
55435SOL     OW72909  10.260   6.961   2.597 -0.3345 -0.0670 -0.1825
55435SOL    HW172910  10.235   6.945   2.506  1.8827  1.8360 -1.2242
55435SOL    HW272911  10.307   6.881   2.622 -0.8954 -0.5815 -0.7155
55436SOL     OW72912   8.053   0.924   8.819 -0.2708  0.1239  0.2973
55436SOL    HW172913   8.139   0.906   8.780 -1.3774 -1.3833 -1.6383
55436SOL    HW272914   8.043   0.858   8.888  0.6603  1.2100  1.5250
55437SOL     OW72915   0.900   0.151   8.141  0.0804 -0.0149  0.5137
55437SOL    HW172916   0.921   0.242   8.120 -0.9191 -0.1228 -1.0915
55437SOL    HW272917   0.816   0.156   8.188 -0.3913 -0.1592 -0.3065
55438SOL     OW72918   2.062   2.732   4.740  0.2500  1.0861  0.1359
55438SOL    HW172919   2.065   2.748   4.645  0.5200  1.8689  0.2678
55438SOL    HW272920   2.118   2.656   4.753  2.5699  2.6591 -0.0189
55439SOL     OW72921  12.045   8.050   5.254  0.2481 -0.2517  0.3156
55439SOL    HW172922  12.040   8.022   5.346  1.1063  0.3483  0.5639
55439SOL    HW272923  12.125   8.102   5.250  0.3383 -0.4575 -0.8323
55440SOL     OW72924   4.668   3.250   6.854  0.0211  0.1260 -0.0904
55440SOL    HW172925   4.574   3.232   6.846  0.0891  0.4495 -1.8417
55440SOL    HW272926   4.675   3.302   6.934 -1.2118 -0.3675  0.3673
55441SOL     OW72927  12.501   2.878   6.482  0.1250  0.3383 -0.2751
55441SOL    HW172928  12.478   2.825   6.405 -1.9319  1.6045 -0.6124
55441SOL    HW272929  12.571   2.828   6.525 -1.2013 -2.2952 -0.9310
55442SOL     OW72930  12.764   0.707  10.296  0.3557 -0.5219 -0.8119
55442SOL    HW172931  12.849   0.747  10.315  0.1590 -1.2882  2.2806
55442SOL    HW272932  12.775   0.615  10.319 -1.7987 -0.2381  1.9196
55443SOL     OW72933   1.582   1.254  12.299 -0.6575  0.0807 -0.2048
55443SOL    HW172934   1.583   1.198  12.222 -0.1697 -0.6792  0.3407
55443SOL    HW272935   1.523   1.326  12.276  1.2891  1.1667 -2.2070
55444SOL     OW72936   7.117   9.718   6.094 -0.0978  0.1378 -0.3645
55444SOL    HW172937   7.133   9.722   6.188 -1.7532  0.6064 -0.0708
55444SOL    HW272938   7.135   9.627   6.070  1.0483  0.1830  0.2388
55445SOL     OW72939   0.223  12.412   5.206  0.0551  0.4866  0.5035
55445SOL    HW172940   0.138  12.368   5.211 -0.3179  1.1416  0.1270
55445SOL    HW272941   0.270  12.382   5.284 -0.3725 -0.1799  0.5140
55446SOL     OW72942   6.064   6.190  11.564 -0.1752  0.0138 -0.0896
55446SOL    HW172943   6.148   6.213  11.524 -0.4803  0.1357 -0.6786
55446SOL    HW272944   6.000   6.246  11.519 -0.7570 -1.0789 -0.6752
55447SOL     OW72945   8.125   2.546   9.704  0.0590 -0.1683  0.0036
55447SOL    HW172946   8.070   2.513   9.776 -0.0314  1.0273  0.5059
55447SOL    HW272947   8.066   2.547   9.629 -1.0377  2.2563  0.8035
55448SOL     OW72948   2.400  12.707   4.953  0.4500 -0.2583 -0.2885
55448SOL    HW172949   2.392  12.643   4.883  1.4876  0.4302 -1.0720
55448SOL    HW272950   2.481  12.682   4.998 -1.0530 -1.7250  1.7904
55449SOL     OW72951   0.788   2.842   3.962  0.1851  0.1758  0.4475
55449SOL    HW172952   0.787   2.753   3.926 -0.1176  1.1669 -2.1410
55449SOL    HW272953   0.835   2.833   4.045 -0.0434 -2.4219  0.3908
55450SOL     OW72954  11.317  10.146   1.380  0.1772  0.1011  0.0637
55450SOL    HW172955  11.226  10.176   1.382  0.4713  1.0437  2.2929
55450SOL    HW272956  11.362  10.209   1.324 -0.4486 -0.0967 -0.6711
55451SOL     OW72957  10.585   5.496   9.641  0.4722 -0.1110 -0.2044
55451SOL    HW172958  10.543   5.581   9.651  0.1480 -0.3935  0.9289
55451SOL    HW272959  10.560   5.467   9.553 -3.2588 -1.0871  0.9966
55452SOL     OW72960   1.136   5.767   7.759 -0.2372 -0.0195 -0.2810
55452SOL    HW172961   1.216   5.803   7.796 -0.4616  0.4627 -0.2562
55452SOL    HW272962   1.160   5.741   7.670 -0.0748  0.2096 -0.3045
55453SOL     OW72963   2.068   9.337   8.997 -0.3282  0.6846 -0.1085
55453SOL    HW172964   2.070   9.432   8.993  1.4888  0.6663 -0.3521
55453SOL    HW272965   2.127   9.314   9.069 -0.1083 -0.2616 -0.5630
55454SOL     OW72966   7.608  10.344  12.219 -0.7629  0.0407 -0.1775
55454SOL    HW172967   7.619  10.332  12.314 -1.6409  1.7784  0.1808
55454SOL    HW272968   7.589  10.437  12.209 -1.8450 -0.3327 -1.9644
55455SOL     OW72969   0.133   8.468   7.864  0.0633  0.2128 -0.1387
55455SOL    HW172970   0.058   8.526   7.873  0.5366  0.9596 -0.7660
55455SOL    HW272971   0.161   8.450   7.953  1.1293  2.6238  0.0924
55456SOL     OW72972   8.356   2.329   0.031 -0.8028  0.0358 -0.0252
55456SOL    HW172973   8.388   2.247  -0.006 -0.1885  0.4046 -0.3162
55456SOL    HW272974   8.386   2.328   0.122  2.9405  1.8188 -1.0552
55457SOL     OW72975   2.259   7.845   7.130 -0.7107 -0.7031 -0.1049
55457SOL    HW172976   2.292   7.929   7.162 -1.0558 -0.5372 -0.1811
55457SOL    HW272977   2.168   7.843   7.159  0.0314 -2.3226  2.4487
55458SOL     OW72978   9.400   5.395   9.024 -0.3399  0.1400 -0.7643
55458SOL    HW172979   9.423   5.307   8.994 -0.7525  0.0558 -0.8372
55458SOL    HW272980   9.329   5.423   8.966 -2.0829 -0.5606  0.9222
55459SOL     OW72981  11.885   5.224   4.300  0.3455 -0.1852 -0.2346
55459SOL    HW172982  11.973   5.190   4.312  0.4358  0.5735  1.5394
55459SOL    HW272983  11.894   5.291   4.233  1.5333  1.1973  1.2182
55460SOL     OW72984  11.402   8.912   3.856  0.0063 -0.1823  0.3356
55460SOL    HW172985  11.362   8.897   3.941 -1.1159  0.0947 -0.1219
55460SOL    HW272986  11.404   8.825   3.815 -0.7938 -0.0907  0.0883
55461SOL     OW72987   2.783   9.384   9.226  0.0015 -0.3193  0.8148
55461SOL    HW172988   2.690   9.392   9.208  0.1684 -0.9265 -0.4220
55461SOL    HW272989   2.811   9.472   9.248 -0.1134  0.6986 -2.6688
55462SOL     OW72990   8.921   1.488   2.515  0.5527  0.7872 -0.4241
55462SOL    HW172991   8.933   1.455   2.604  1.0988  2.5263  0.1979
55462SOL    HW272992   8.995   1.451   2.465 -0.1893 -0.8120 -0.3725
55463SOL     OW72993   4.918   0.898  10.135  0.8167  0.4829 -0.6925
55463SOL    HW172994   4.897   0.881  10.043 -0.0780 -0.5432 -0.3161
55463SOL    HW272995   4.833   0.899  10.180  0.8010  4.7057 -0.3795
55464SOL     OW72996   1.330   6.237  11.752 -0.5645  0.2822 -0.1261
55464SOL    HW172997   1.325   6.279  11.838 -0.1673  1.9731 -0.8675
55464SOL    HW272998   1.404   6.177  11.758 -1.9420 -1.3390  1.3756
55465SOL     OW72999   3.350  10.947   3.802 -0.5624 -0.5196 -0.4435
55465SOL    HW173000   3.295  10.945   3.724 -0.6389  1.2292 -0.4666
55465SOL    HW273001   3.296  10.907   3.871 -0.2901 -2.5925 -1.3567
55466SOL     OW73002   9.454   5.235  11.765  0.3538 -0.3825  0.3622
55466SOL    HW173003   9.523   5.198  11.820 -0.1085  1.2594  2.1190
55466SOL    HW273004   9.443   5.325  11.795 -3.6673 -0.9910  1.3622
55467SOL     OW73005   2.611   7.529   7.631 -0.2997  0.7167  0.4421
55467SOL    HW173006   2.693   7.519   7.680 -0.4049 -0.4315  0.4258
55467SOL    HW273007   2.550   7.469   7.674 -0.0422 -1.3116 -1.7753
55468SOL     OW73008   8.178   4.724   0.835  0.1539 -0.1947 -0.4736
55468SOL    HW173009   8.112   4.654   0.841  0.4327 -0.4421 -0.2493
55468SOL    HW273010   8.175   4.767   0.921 -0.5256  0.5423 -0.8501
55469SOL     OW73011   0.258  12.165  12.627  0.1383 -0.3406 -0.7388
55469SOL    HW173012   0.222  12.083  12.661 -0.7462 -0.1257 -1.1116
55469SOL    HW273013   0.346  12.170  12.663  1.1427 -2.6401 -2.6160
55470SOL     OW73014  10.990   8.918   6.738 -0.1360  0.6327 -0.2890
55470SOL    HW173015  10.933   8.981   6.694  1.1915  1.7128 -0.5442
55470SOL    HW273016  10.931   8.866   6.792 -1.4144  1.3794 -0.9022
55471SOL     OW73017   9.868   7.074   8.965 -0.0242  0.6895  0.3674
55471SOL    HW173018   9.961   7.054   8.975  0.7135  2.8870 -1.2534
55471SOL    HW273019   9.857   7.159   9.006 -0.6623  1.7526 -1.8603
55472SOL     OW73020  11.746   8.128   1.188 -0.0566  0.3191 -0.0982
55472SOL    HW173021  11.692   8.061   1.228 -0.3432 -0.0139 -1.0178
55472SOL    HW273022  11.685   8.183   1.140  0.4746 -0.6846 -2.0366
55473SOL     OW73023   4.707   9.717   6.804  0.6929  0.2606  0.4623
55473SOL    HW173024   4.653   9.775   6.859  0.8568 -0.6009  1.5751
55473SOL    HW273025   4.797   9.744   6.822  0.7469 -0.0347  0.6557
55474SOL     OW73026   6.507  12.267   1.978 -0.3723  0.5938 -0.3656
55474SOL    HW173027   6.486  12.238   2.067  0.2550 -0.5277 -0.5713
55474SOL    HW273028   6.502  12.188   1.925  0.4287  1.0271 -1.1127
55475SOL     OW73029   1.810  10.384   8.451  0.1524 -0.2017  0.0007
55475SOL    HW173030   1.836  10.464   8.406 -0.0053  1.9138  3.3940
55475SOL    HW273031   1.714  10.383   8.447  0.1684 -0.5113 -0.4354
55476SOL     OW73032   9.547  11.728   1.606  0.2384  0.2000  0.0346
55476SOL    HW173033   9.581  11.641   1.627 -0.7529 -0.0642  0.6432
55476SOL    HW273034   9.481  11.712   1.539 -1.4151  0.1868  1.5894
55477SOL     OW73035  10.621   5.073   9.739 -0.2520  0.3396  0.6288
55477SOL    HW173036  10.696   5.016   9.757 -0.2870  0.3728  0.8758
55477SOL    HW273037  10.623   5.138   9.809 -1.8466 -0.9842  1.9986
55478SOL     OW73038   9.532  11.621   0.354 -0.0922  0.0938 -0.0032
55478SOL    HW173039   9.486  11.596   0.274 -0.5783  2.5894 -0.5729
55478SOL    HW273040   9.464  11.621   0.422 -0.0272 -0.3576  0.0667
55479SOL     OW73041   3.755  11.252   4.871  0.2006  0.4678 -0.3172
55479SOL    HW173042   3.683  11.315   4.876  0.0936  0.3372 -0.2171
55479SOL    HW273043   3.744  11.211   4.785 -0.7470 -0.6282  0.3028
55480SOL     OW73044   7.247   8.701  10.153  0.2482 -0.0580  0.4919
55480SOL    HW173045   7.249   8.796  10.138 -0.9027  0.0944  1.1878
55480SOL    HW273046   7.326   8.669  10.111  0.7249  1.2348  0.3484
55481SOL     OW73047  11.801   2.011   0.156 -0.6750 -0.0021 -0.2409
55481SOL    HW173048  11.821   1.935   0.210  2.7990  0.5970 -0.4463
55481SOL    HW273049  11.747   2.067   0.212 -0.6013 -1.1952  1.0762
55482SOL     OW73050   3.913   7.348   0.286 -0.4090 -0.2051 -0.6460
55482SOL    HW173051   3.866   7.278   0.331  1.5329 -0.2676  1.4624
55482SOL    HW273052   3.979   7.302   0.233 -0.2373 -0.0224 -0.5937
55483SOL     OW73053   1.237   2.537   7.397  0.3947  0.0227  0.1947
55483SOL    HW173054   1.290   2.582   7.463 -0.5370  0.5784  0.5858
55483SOL    HW273055   1.271   2.569   7.313  0.8280  0.1998  0.4370
55484SOL     OW73056   1.922   8.414   1.740 -0.1831 -0.1786  0.2016
55484SOL    HW173057   1.975   8.493   1.741 -2.5510  1.5530 -1.5093
55484SOL    HW273058   1.958   8.361   1.812  2.4786  1.7038  0.4250
55485SOL     OW73059   6.732  10.882   5.186 -0.7761  0.4824 -0.4196
55485SOL    HW173060   6.638  10.881   5.204 -0.4444  1.3061  1.6342
55485SOL    HW273061   6.769  10.816   5.245  0.1736  1.9651  0.7385
55486SOL     OW73062   6.307  11.990  12.198 -0.0142 -0.0393 -0.6115
55486SOL    HW173063   6.344  12.000  12.111 -0.5954 -0.9540 -0.9684
55486SOL    HW273064   6.229  12.045  12.198  0.6900  0.9975 -0.2245
55487SOL     OW73065  11.755  10.187   3.149  0.0056  0.1007 -0.1760
55487SOL    HW173066  11.836  10.136   3.151  1.0113  1.6586  0.4700
55487SOL    HW273067  11.759  10.242   3.228 -1.0095  1.2136 -0.8683
55488SOL     OW73068  11.215  11.783  12.315  0.3935  0.4414 -0.1012
55488SOL    HW173069  11.126  11.757  12.338  0.1416  0.9625 -0.4543
55488SOL    HW273070  11.256  11.704  12.282  0.4266 -0.0744  1.1208
55489SOL     OW73071   2.376   4.839   0.191 -0.4229 -0.0810  0.3661
55489SOL    HW173072   2.428   4.763   0.216 -0.4390 -0.0199  0.5831
55489SOL    HW273073   2.289   4.804   0.171 -0.0642 -0.3168 -0.8937
55490SOL     OW73074   7.811   3.597   3.655  0.0405  0.7684 -0.5648
55490SOL    HW173075   7.804   3.650   3.735 -1.1834 -0.9809  0.5688
55490SOL    HW273076   7.798   3.507   3.685 -1.7402  0.1529 -2.8815
55491SOL     OW73077  10.137   1.216  12.421  0.3576  0.0809  0.1115
55491SOL    HW173078  10.049   1.253  12.418 -0.3082 -1.4110  0.0691
55491SOL    HW273079  10.191   1.275  12.369 -0.7858  0.5981 -0.5066
55492SOL     OW73080   2.712   4.030   5.782  0.1159 -0.4276 -0.3513
55492SOL    HW173081   2.643   4.071   5.835  2.1085  0.7952  1.4903
55492SOL    HW273082   2.693   3.936   5.787 -2.0465 -0.0744 -0.9105
55493SOL     OW73083  10.359   4.174   1.416  0.1666 -0.3840  0.4952
55493SOL    HW173084  10.321   4.205   1.334  0.5177  0.8479  0.7789
55493SOL    HW273085  10.410   4.097   1.392  0.3559  0.0330 -0.4601
55494SOL     OW73086   3.216   6.009   0.909  0.1930 -0.0867  0.0166
55494SOL    HW173087   3.144   5.998   0.847 -1.1326 -0.4568  1.5682
55494SOL    HW273088   3.181   5.981   0.993  0.5704  4.0207  1.8203
55495SOL     OW73089  10.710   0.641  11.078  0.1873  0.1036  1.0125
55495SOL    HW173090  10.628   0.614  11.037 -0.9865  0.7827  2.7702
55495SOL    HW273091  10.767   0.564  11.071 -0.2906 -0.1218 -0.9296
55496SOL     OW73092  11.322   3.290   4.466  0.0940  0.1974 -0.5642
55496SOL    HW173093  11.241   3.260   4.425 -0.3128  2.6367 -1.7555
55496SOL    HW273094  11.392   3.246   4.416 -0.4600 -0.4819 -0.7555
55497SOL     OW73095  12.007   0.574   0.224  0.4128 -0.1288 -0.5759
55497SOL    HW173096  12.086   0.538   0.185 -1.6907 -2.0069 -3.5519
55497SOL    HW273097  11.949   0.498   0.237 -1.1942  1.2334  0.8035
55498SOL     OW73098   9.142   8.470   9.676  0.2516  0.1331  0.0280
55498SOL    HW173099   9.079   8.398   9.680  0.7611 -0.2655  1.1924
55498SOL    HW273100   9.220   8.432   9.636 -0.6063  0.9450 -2.6250
55499SOL     OW73101   0.001   9.299   7.978  0.0820 -0.1448  0.2876
55499SOL    HW173102   0.013   9.385   7.937 -1.1005  0.0038  0.1960
55499SOL    HW273103   0.089   9.266   7.992  0.5484  0.9063 -0.0630
55500SOL     OW73104   4.331   6.323   0.645 -0.0818  0.2524  0.1803
55500SOL    HW173105   4.348   6.384   0.573 -0.1742  0.2665  0.1706
55500SOL    HW273106   4.408   6.265   0.645 -0.2861 -0.0314 -0.2255
55501SOL     OW73107   4.660   8.512   2.748  0.3667  0.1735 -0.5665
55501SOL    HW173108   4.628   8.570   2.680  2.1207  1.9882  0.0550
55501SOL    HW273109   4.755   8.519   2.743  0.5687 -0.7703  1.1160
55502SOL     OW73110  11.236   7.713   6.626 -0.2655  0.3742  0.3496
55502SOL    HW173111  11.268   7.693   6.714  0.0083  2.6944  0.8538
55502SOL    HW273112  11.151   7.669   6.621  0.8681 -1.9651  0.7515
55503SOL     OW73113  10.662   2.301   5.002  0.0341  0.1738  0.2508
55503SOL    HW173114  10.569   2.283   5.011 -0.6711  2.7813 -0.8964
55503SOL    HW273115  10.684   2.269   4.915  0.0625  0.1075  0.2823
55504SOL     OW73116  12.180   0.010   2.195  0.2303 -0.0007 -0.4508
55504SOL    HW173117  12.237   0.067   2.142 -0.8673  0.5482 -1.0773
55504SOL    HW273118  12.230  -0.071   2.205  0.8386  0.2010 -1.6088
55505SOL     OW73119   0.918   3.595   0.648 -0.2004  0.4284 -0.5774
55505SOL    HW173120   0.967   3.527   0.602 -1.0876 -0.0666 -0.8282
55505SOL    HW273121   0.940   3.583   0.740 -0.7190 -0.5317 -0.5625
55506SOL     OW73122   7.654   4.921   8.662  0.2698 -0.5898  0.0585
55506SOL    HW173123   7.639   4.917   8.567 -0.7160  0.6385  0.1446
55506SOL    HW273124   7.730   4.979   8.672 -0.5218  0.4628  0.0805
55507SOL     OW73125   6.445   4.731   1.807 -0.5803  0.0563 -0.1412
55507SOL    HW173126   6.443   4.652   1.861  0.9654  0.7440  0.9974
55507SOL    HW273127   6.478   4.701   1.722 -1.3062 -0.7331 -0.1599
55508SOL     OW73128   2.682   3.725   6.082  0.7727  0.3785  0.0472
55508SOL    HW173129   2.778   3.729   6.083  0.8381 -0.5650 -0.6204
55508SOL    HW273130   2.656   3.792   6.019  1.0313  0.2198 -0.2336
55509SOL     OW73131   2.915   3.687   4.400  0.5704 -0.4073 -0.0366
55509SOL    HW173132   2.972   3.674   4.475  0.7475 -1.6580 -0.3755
55509SOL    HW273133   2.829   3.655   4.428  0.1096  1.0348  0.3121
55510SOL     OW73134  12.246  11.986  12.083 -0.1259 -0.3993 -0.1347
55510SOL    HW173135  12.190  12.029  12.148 -2.0651 -1.7869 -0.7928
55510SOL    HW273136  12.277  12.058  12.028  2.6469  1.0178  2.9264
55511SOL     OW73137   1.949   4.433  12.510  0.2226 -0.4266  0.2237
55511SOL    HW173138   1.941   4.485  12.430  0.3734  1.0425  1.1374
55511SOL    HW273139   2.017   4.369  12.489  1.0725  0.6655 -0.4480
55512SOL     OW73140   5.443  12.707   2.275  0.5903  0.6760  0.0301
55512SOL    HW173141   5.398  12.708   2.190  0.7810  1.9172 -0.0779
55512SOL    HW273142   5.491  12.790   2.277  1.9976 -0.1201  0.6195
55513SOL     OW73143   2.225  11.108   1.692 -0.1838  0.0107  0.0385
55513SOL    HW173144   2.272  11.177   1.738 -0.5787  0.3546 -0.0738
55513SOL    HW273145   2.139  11.105   1.734 -0.5187  0.2680 -0.6151
55514SOL     OW73146  12.477   6.903   7.801  0.4526 -0.1353  0.5640
55514SOL    HW173147  12.569   6.900   7.829 -0.4121  0.2237  3.8701
55514SOL    HW273148  12.461   6.996   7.782  1.4057 -0.5513 -2.9263
55515SOL     OW73149   4.909   8.276  10.342 -0.3965 -0.0033  0.2968
55515SOL    HW173150   4.831   8.328  10.366 -0.8759 -0.7826  0.4512
55515SOL    HW273151   4.936   8.236  10.425 -0.1024 -0.1025  0.1509
55516SOL     OW73152  10.446   9.253   2.344  0.2046 -0.0977 -0.4619
55516SOL    HW173153  10.480   9.336   2.310 -1.4380  2.6305  3.6397
55516SOL    HW273154  10.519   9.216   2.393 -0.0117  0.9598  0.7283
55517SOL     OW73155   1.108   8.021   0.629 -0.0255 -0.2138 -0.0821
55517SOL    HW173156   1.100   7.960   0.702 -2.4722  0.6601  0.5096
55517SOL    HW273157   1.168   8.088   0.661  1.8512 -1.7076 -0.3437
55518SOL     OW73158   6.553   5.222   4.454 -0.6072 -0.4519  0.6550
55518SOL    HW173159   6.496   5.290   4.420 -0.7346 -0.4749  0.8182
55518SOL    HW273160   6.610   5.199   4.381 -0.6463 -0.2578  0.5634
55519SOL     OW73161   1.394   0.184   3.233 -0.3301  0.1156  0.1269
55519SOL    HW173162   1.363   0.243   3.165  1.9988  2.2985  0.8149
55519SOL    HW273163   1.327   0.187   3.301 -1.5462 -0.2509 -1.0155
55520SOL     OW73164   9.390   1.923  11.338 -0.3962  0.0178 -0.6185
55520SOL    HW173165   9.441   1.930  11.258  0.3188 -0.7686 -0.2498
55520SOL    HW273166   9.333   1.847  11.325 -0.2421 -0.1449 -0.3789
55521SOL     OW73167   8.428   2.484   5.600 -0.7794 -0.4686 -0.1463
55521SOL    HW173168   8.371   2.407   5.594 -3.1278  1.1171  0.1291
55521SOL    HW273169   8.451   2.488   5.693 -1.7379 -0.1432  0.0896
55522SOL     OW73170   2.536   5.395   3.307 -0.6833 -0.2459 -0.0218
55522SOL    HW173171   2.619   5.422   3.269 -0.2756 -0.3954  0.7548
55522SOL    HW273172   2.484   5.367   3.232  0.1512 -0.6357 -0.4702
55523SOL     OW73173   8.144   5.234   2.495 -0.3702  0.2437 -0.1213
55523SOL    HW173174   8.122   5.265   2.583 -0.2557  0.0743 -0.0322
55523SOL    HW273175   8.175   5.312   2.449  0.0357  0.2440  0.1418
55524SOL     OW73176   5.039   3.401  11.930 -0.6116 -0.3910 -0.0923
55524SOL    HW173177   5.085   3.465  11.874 -0.5082 -0.9205 -0.6219
55524SOL    HW273178   4.993   3.345  11.868  0.4567 -1.7284  0.2765
55525SOL     OW73179   2.949  11.526   9.934  0.3978  0.1580 -0.2917
55525SOL    HW173180   2.970  11.485   9.850 -2.0669  0.5113 -1.1583
55525SOL    HW273181   2.877  11.474   9.969 -0.2126  1.4382  0.4284
55526SOL     OW73182  11.942  10.363   6.358 -0.3241  0.3537  0.4046
55526SOL    HW173183  11.885  10.304   6.407  0.1171 -0.9072 -0.5389
55526SOL    HW273184  12.030  10.340   6.386 -0.2112  2.1254  1.6754
55527SOL     OW73185  11.997   3.836   0.066 -0.6166 -0.0708 -0.0785
55527SOL    HW173186  11.944   3.761   0.093 -1.3891 -0.4890 -2.5130
55527SOL    HW273187  11.987   3.840  -0.029  0.5642  2.2745 -0.1849
55528SOL     OW73188  11.595   8.265   7.575 -0.1364  0.3052 -0.5687
55528SOL    HW173189  11.605   8.282   7.669 -1.5152 -1.0460 -0.1481
55528SOL    HW273190  11.508   8.300   7.554 -0.4170 -0.6629 -1.0339
55529SOL     OW73191   7.103  12.531  11.056  0.0225  0.5043 -0.6006
55529SOL    HW173192   7.076  12.570  10.973  0.6640  1.1985 -0.4892
55529SOL    HW273193   7.090  12.600  11.121  0.2010  0.1965 -0.2293
55530SOL     OW73194   2.444   1.112   2.237  0.4869 -0.1609 -0.4307
55530SOL    HW173195   2.441   1.028   2.282  1.6662 -0.5593 -1.0818
55530SOL    HW273196   2.521   1.156   2.273  0.9544 -0.1338 -1.4600
55531SOL     OW73197   6.965  10.709  12.165 -0.2487  0.1091  0.5506
55531SOL    HW173198   6.924  10.783  12.120 -0.3044 -0.2485  0.0048
55531SOL    HW273199   6.924  10.632  12.127  0.8147 -0.2571  0.0938
55532SOL     OW73200  12.196   2.473   1.045  0.3879  0.2059  0.1088
55532SOL    HW173201  12.236   2.406   0.989 -0.4143 -2.1828  2.2279
55532SOL    HW273202  12.270   2.515   1.088  0.9100  0.7201 -1.2362
55533SOL     OW73203   4.884  12.500   2.443  0.3001  0.9046 -0.0218
55533SOL    HW173204   4.812  12.549   2.404 -0.6553 -1.9230 -2.1766
55533SOL    HW273205   4.956  12.509   2.380  0.3622  0.2614 -0.0560
55534SOL     OW73206   3.947  11.465   0.287 -0.5317 -0.0143 -0.2232
55534SOL    HW173207   3.909  11.380   0.270  1.3413 -1.2748  1.3846
55534SOL    HW273208   3.916  11.489   0.375  1.0817 -0.3881  0.4930
55535SOL     OW73209   3.141   5.187   4.249  0.3077 -0.1535  0.0570
55535SOL    HW173210   3.074   5.178   4.181 -0.0485  3.4805 -0.2646
55535SOL    HW273211   3.097   5.162   4.330 -0.3236 -1.1613 -0.5645
55536SOL     OW73212   6.317   1.513   7.836 -0.0259  0.4662  0.3583
55536SOL    HW173213   6.301   1.522   7.930  2.7721 -1.9133  1.2242
55536SOL    HW273214   6.408   1.542   7.824  0.6569 -1.9048 -0.9924
55537SOL     OW73215   3.855   5.532  12.715 -0.2234  0.3754  0.2015
55537SOL    HW173216   3.789   5.573  12.771 -2.3672 -0.1819 -1.7440
55537SOL    HW273217   3.815   5.449  12.688  1.3681 -0.0723 -0.9198
55538SOL     OW73218   2.523  11.696   4.489  0.6584  0.0557 -0.4249
55538SOL    HW173219   2.447  11.752   4.505  1.5299  1.0749  0.2743
55538SOL    HW273220   2.491  11.607   4.505 -0.5045  0.4234 -0.6218
55539SOL     OW73221   0.553   3.951   3.284 -0.1803 -0.2855 -0.1382
55539SOL    HW173222   0.647   3.951   3.267 -0.3678  0.0750 -1.2633
55539SOL    HW273223   0.521   4.032   3.243 -1.0227 -0.5453 -0.0161
55540SOL     OW73224   2.123   3.498  10.198 -0.1385  0.4433 -0.1039
55540SOL    HW173225   2.105   3.498  10.104 -1.8209 -0.0932  0.1905
55540SOL    HW273226   2.146   3.589  10.218 -2.6660  1.2618 -0.5732
55541SOL     OW73227   5.238  10.902   4.436  0.2147 -0.4682  0.4928
55541SOL    HW173228   5.166  10.923   4.377  0.1005 -1.0573  0.4158
55541SOL    HW273229   5.268  10.987   4.469 -1.0261 -0.2529  1.1386
55542SOL     OW73230   2.600   7.438   0.937  0.1467 -0.0803 -0.4233
55542SOL    HW173231   2.537   7.511   0.936  0.2906  0.0433 -0.5352
55542SOL    HW273232   2.652   7.452   1.016  0.1516 -0.0835 -0.4260
55543SOL     OW73233   8.948   2.297   0.616 -0.2796 -0.1591 -0.2129
55543SOL    HW173234   8.884   2.341   0.672 -0.2834  1.3176 -1.2987
55543SOL    HW273235   8.929   2.330   0.528  0.9182 -0.9596 -0.7958
55544SOL     OW73236   7.020   3.442   9.305  0.1715  0.4952 -0.1733
55544SOL    HW173237   6.934   3.447   9.347  0.2127  0.4468 -0.0816
55544SOL    HW273238   7.059   3.528   9.321  0.0229  0.6190 -0.4699
55545SOL     OW73239   8.829   6.752   7.071  0.2321 -0.6955 -0.3909
55545SOL    HW173240   8.901   6.722   7.016  2.1165  0.8353  1.0706
55545SOL    HW273241   8.836   6.700   7.151  0.7247  0.4488  0.3535
55546SOL     OW73242   6.613   3.310   4.496  0.2054  0.1412 -0.1728
55546SOL    HW173243   6.542   3.293   4.434  0.5687 -1.9785 -0.0783
55546SOL    HW273244   6.660   3.385   4.459 -0.7113  0.1123 -1.4466
55547SOL     OW73245   7.390   5.273   9.757  0.2260 -0.3066  0.2882
55547SOL    HW173246   7.482   5.287   9.780 -0.4477  3.9340  1.2707
55547SOL    HW273247   7.344   5.269   9.841 -0.6153 -1.3643 -0.2017
55548SOL     OW73248  12.541   0.813   8.543  0.0094 -0.0103 -0.2581
55548SOL    HW173249  12.614   0.874   8.552  0.1105  0.1359 -1.7337
55548SOL    HW273250  12.485   0.853   8.476 -0.2473 -1.2223 -0.7837
55549SOL     OW73251  10.017   9.897   4.745 -0.1115 -0.3109 -0.3982
55549SOL    HW173252   9.989   9.942   4.666  0.6006 -0.6926 -0.8823
55549SOL    HW273253  10.018   9.964   4.813  0.1426  0.2206 -0.9251
55550SOL     OW73254   0.645  11.369   2.683 -0.5199 -0.2001  0.6927
55550SOL    HW173255   0.560  11.414   2.677  0.0562  0.6903 -2.7412
55550SOL    HW273256   0.630  11.285   2.639  0.5148  0.3008 -0.6748
55551SOL     OW73257   6.292   1.339   1.390  0.2534 -0.5348  0.2748
55551SOL    HW173258   6.322   1.385   1.312  0.6887  0.3218  0.9332
55551SOL    HW273259   6.241   1.404   1.438  0.6233 -0.8313  1.0763
55552SOL     OW73260  10.458   2.319  11.260  0.0512 -0.1364  0.6811
55552SOL    HW173261  10.505   2.394  11.223 -1.4451 -0.4589 -2.1402
55552SOL    HW273262  10.372   2.354  11.282 -0.7837 -1.0155 -1.0019
55553SOL     OW73263   6.976   6.868   5.621 -0.5134  0.7300 -0.0524
55553SOL    HW173264   6.938   6.953   5.642 -0.8700  0.6618 -0.4170
55553SOL    HW273265   7.022   6.882   5.538  2.3801  1.4601  1.5088
55554SOL     OW73266   9.532   9.811   4.814 -0.4044 -0.0810 -0.8173
55554SOL    HW173267   9.466   9.870   4.778 -1.5324  1.1828  2.9107
55554SOL    HW273268   9.483   9.753   4.873  1.5527 -0.2615  0.7345
55555SOL     OW73269   4.983  11.117   7.225  0.2183  0.2945 -0.1173
55555SOL    HW173270   4.974  11.077   7.138 -0.8308 -0.4825  0.3326
55555SOL    HW273271   5.060  11.076   7.263  3.6685  3.9549 -2.3867
55556SOL     OW73272   1.894  10.191   8.621  0.0375  0.5842 -0.0430
55556SOL    HW173273   1.908  10.233   8.706 -1.9409 -0.7752  1.0522
55556SOL    HW273274   1.845  10.254   8.570 -2.1312  0.0465  1.2623
55557SOL     OW73275  11.607   0.675  10.654  0.2988 -0.4337  0.0226
55557SOL    HW173276  11.566   0.608  10.709  2.2832  0.8273  3.3459
55557SOL    HW273277  11.701   0.657  10.661  0.7580  1.4463 -0.7134
55558SOL     OW73278   8.341   5.611   0.909 -0.1772  0.1089  0.1812
55558SOL    HW173279   8.419   5.655   0.942 -0.7839  2.1877 -0.9781
55558SOL    HW273280   8.365   5.518   0.906  2.8292  0.8040 -1.6303
55559SOL     OW73281  11.010   1.819   9.980  0.4164 -0.1872 -0.3195
55559SOL    HW173282  10.992   1.859  10.065 -1.3315  1.2164 -1.2854
55559SOL    HW273283  10.972   1.731   9.987  1.3643 -0.5443  0.7156
55560SOL     OW73284   0.120   6.198   0.809  0.4564  0.0770 -1.1671
55560SOL    HW173285   0.033   6.187   0.848  0.8038  0.1378 -0.3706
55560SOL    HW273286   0.158   6.111   0.809  1.1075  0.3295  0.2034
55561SOL     OW73287  10.538   1.058   4.893  0.1888 -1.2359  0.1357
55561SOL    HW173288  10.555   1.043   4.800 -2.1279  0.8151 -0.7372
55561SOL    HW273289  10.457   1.011   4.910 -1.7402  1.7402 -0.1075
55562SOL     OW73290   2.149   5.799   1.154  0.4444  0.1527 -0.1811
55562SOL    HW173291   2.141   5.835   1.242  0.0844  0.8684 -0.5060
55562SOL    HW273292   2.222   5.846   1.115 -0.7046  1.3141 -0.9785
55563SOL     OW73293   8.585   4.173   2.064 -0.3122  0.1822  0.1743
55563SOL    HW173294   8.648   4.113   2.025  1.2262  1.1988  1.0215
55563SOL    HW273295   8.520   4.115   2.105 -0.9129 -0.8916 -2.1190
55564SOL     OW73296   8.962   1.567  10.491  0.6851  0.9153 -0.0144
55564SOL    HW173297   9.006   1.535  10.412  0.5127  1.5125 -0.3610
55564SOL    HW273298   8.996   1.513  10.562  2.2964  1.6139 -0.2076
55565SOL     OW73299   4.409   1.891   2.558  0.5866  0.0511 -0.1668
55565SOL    HW173300   4.328   1.840   2.563  0.6650 -0.0615  0.0230
55565SOL    HW273301   4.408   1.932   2.472  0.9038 -0.9253 -0.6514
55566SOL     OW73302   7.274   0.818   5.854  0.0595  0.1576 -0.3101
55566SOL    HW173303   7.367   0.831   5.833 -0.1349 -0.6973 -1.8203
55566SOL    HW273304   7.265   0.852   5.943  1.5994  1.1896 -0.5036
55567SOL     OW73305   5.396  12.458   1.930 -0.1378  0.3097 -0.1194
55567SOL    HW173306   5.396  12.537   1.984  0.3608  0.1730  0.0835
55567SOL    HW273307   5.352  12.392   1.983 -0.2024  0.3411 -0.1329
55568SOL     OW73308   2.311   8.553   6.917  0.1600 -0.0384  0.3719
55568SOL    HW173309   2.226   8.547   6.872 -0.4854  2.3811  1.1184
55568SOL    HW273310   2.320   8.646   6.939  1.6735 -0.6936  2.8959
55569SOL     OW73311   3.046   4.588   6.488 -0.2220 -0.2253 -0.5102
55569SOL    HW173312   3.013   4.678   6.494 -0.4143 -0.2687 -0.8444
55569SOL    HW273313   2.967   4.533   6.491 -0.0847 -0.3953 -0.0348
55570SOL     OW73314   7.949  12.216   7.148 -0.4757 -0.0809  0.6695
55570SOL    HW173315   7.984  12.130   7.169 -1.0265 -0.1540  1.3422
55570SOL    HW273316   7.967  12.269   7.226  2.0686  1.1461 -0.6445
55571SOL     OW73317   1.292   0.509   6.519 -0.2963 -0.0786 -0.1736
55571SOL    HW173318   1.272   0.527   6.611  1.7295 -0.7267  0.4363
55571SOL    HW273319   1.224   0.556   6.471 -0.5746  1.4757  1.6027
55572SOL     OW73320   2.582   2.327   7.025 -0.2995 -0.8313 -0.9101
55572SOL    HW173321   2.553   2.242   6.993 -0.4496 -1.0589 -0.1724
55572SOL    HW273322   2.619   2.370   6.947  0.5902 -1.9036 -1.1018
55573SOL     OW73323   0.034  11.967   8.268  0.0105 -0.4954  0.0996
55573SOL    HW173324   0.038  11.944   8.175 -0.5119  0.4402 -0.1641
55573SOL    HW273325   0.082  12.049   8.275  1.3338 -1.2965  0.9285
55574SOL     OW73326   9.607   7.920   0.337 -0.2990  0.2382 -0.2917
55574SOL    HW173327   9.602   7.849   0.400 -0.2732  0.4592 -0.0362
55574SOL    HW273328   9.698   7.920   0.307  0.0336  0.9529  0.6484
55575SOL     OW73329   0.787   3.016   5.499 -0.2792  0.5095  0.0266
55575SOL    HW173330   0.734   2.986   5.425 -0.1628 -0.0897  0.1824
55575SOL    HW273331   0.787   2.942   5.560 -0.3972  1.0123  0.6397
55576SOL     OW73332  10.078  12.544   8.671 -0.5112  0.2764 -0.3139
55576SOL    HW173333  10.101  12.459   8.632  0.6647 -0.5371  1.9729
55576SOL    HW273334  10.044  12.521   8.758 -0.6490  2.1276  0.1501
55577SOL     OW73335   7.623  10.829   1.581  0.0323 -0.5607  0.3599
55577SOL    HW173336   7.575  10.748   1.567 -0.4824 -0.1404 -0.3401
55577SOL    HW273337   7.557  10.893   1.605  0.2949 -0.0926 -0.1397
55578SOL     OW73338   6.728   0.482   1.591  0.4303  0.4998 -0.1004
55578SOL    HW173339   6.795   0.522   1.647 -0.7989  1.8047  0.4903
55578SOL    HW273340   6.661   0.549   1.582 -1.5934 -1.3234  0.6740
55579SOL     OW73341   5.409   6.805   5.630 -0.1941  0.7331  0.6272
55579SOL    HW173342   5.475   6.742   5.601 -0.5485  0.5807  0.1439
55579SOL    HW273343   5.369   6.765   5.707 -0.8038  0.1029 -0.0031
55580SOL     OW73344   2.531  10.372  11.495 -0.2577 -1.3211 -0.3464
55580SOL    HW173345   2.571  10.286  11.512 -0.4413 -1.5614 -1.0837
55580SOL    HW273346   2.446  10.367  11.538 -0.6063 -1.8160 -1.0806
55581SOL     OW73347   1.336   4.779   3.281 -0.5369 -0.4865  0.0970
55581SOL    HW173348   1.418   4.749   3.241 -0.3831  1.4944 -1.2097
55581SOL    HW273349   1.359   4.798   3.372 -0.1968 -2.3190  0.4396
55582SOL     OW73350   4.852  10.281   9.518  0.0448  0.1232  0.5670
55582SOL    HW173351   4.794  10.259   9.445 -0.0773  1.2702  0.3023
55582SOL    HW273352   4.814  10.236   9.593 -0.5966  0.0363  0.1940
55583SOL     OW73353   0.722   0.396   2.458 -0.1749  0.6529  0.1560
55583SOL    HW173354   0.654   0.361   2.515 -0.4924  2.2759  0.8131
55583SOL    HW273355   0.708   0.490   2.458  2.2315  1.0750  0.5194
55584SOL     OW73356  10.502   0.574   9.298 -0.2415 -0.2560 -0.5364
55584SOL    HW173357  10.538   0.488   9.318 -1.5742 -1.1474 -1.7630
55584SOL    HW273358  10.525   0.588   9.206 -1.6062 -0.1377 -0.8755
55585SOL     OW73359   3.140   9.708   1.920  0.8949  0.2063 -0.2212
55585SOL    HW173360   3.066   9.647   1.927 -1.1262  2.6504  1.6454
55585SOL    HW273361   3.108   9.778   1.863  1.9827  1.0478  0.1694
55586SOL     OW73362  12.376  11.582   4.267 -0.2697 -0.0953 -0.6588
55586SOL    HW173363  12.332  11.665   4.284 -1.7880 -0.6398 -1.6592
55586SOL    HW273364  12.319  11.538   4.203  1.6305 -0.9593 -1.8349
55587SOL     OW73365  10.951  11.105  12.199  0.4492 -0.0833 -0.5208
55587SOL    HW173366  10.896  11.040  12.243  0.8916 -2.1550 -2.8204
55587SOL    HW273367  10.890  11.170  12.165 -0.2658 -0.7058 -0.4428
55588SOL     OW73368   6.561   8.139   3.405 -0.6925  0.2993 -0.2425
55588SOL    HW173369   6.521   8.071   3.460  0.6302 -0.6902 -0.4420
55588SOL    HW273370   6.630   8.176   3.461  1.2023 -1.2585 -1.4094
55589SOL     OW73371  10.929   4.286  12.006  0.6603 -0.2099  0.3284
55589SOL    HW173372  10.841   4.262  12.037  0.2526  0.8817  0.0460
55589SOL    HW273373  10.966   4.338  12.078  1.1506 -0.7883  0.5087
55590SOL     OW73374   5.942   9.919   8.491 -0.3850 -0.1189 -0.2423
55590SOL    HW173375   5.885   9.983   8.447 -2.5802 -1.3593  0.6300
55590SOL    HW273376   5.972   9.861   8.421  0.7210  1.1629 -0.8712
55591SOL     OW73377   5.076   8.509   1.860  0.2983 -0.5626  0.3452
55591SOL    HW173378   5.022   8.486   1.936 -1.9939 -1.4886 -1.4224
55591SOL    HW273379   5.122   8.428   1.838  0.5148 -0.4542  0.3931
55592SOL     OW73380  11.381  12.305   1.637  0.2973  0.1926  0.2568
55592SOL    HW173381  11.312  12.245   1.667  2.1659 -1.8686  0.6998
55592SOL    HW273382  11.399  12.277   1.547  0.0682  1.2050 -0.1150
55593SOL     OW73383   1.071   4.803   6.275 -0.0741 -0.1437  0.0762
55593SOL    HW173384   1.127   4.777   6.348  0.3104  0.5045  0.0182
55593SOL    HW273385   1.131   4.838   6.209 -0.5730  1.0373  0.2150
55594SOL     OW73386   8.967   7.105   6.644  0.1892  0.1453 -0.1908
55594SOL    HW173387   8.958   7.201   6.649 -1.2902 -0.0033  0.7285
55594SOL    HW273388   8.982   7.088   6.551  0.7238  1.2899 -0.3346
55595SOL     OW73389   4.621   0.556   0.475 -0.0902  0.2926 -0.1753
55595SOL    HW173390   4.630   0.465   0.446  2.4481 -0.1157  1.5457
55595SOL    HW273391   4.542   0.555   0.530 -0.5073 -0.6873 -0.7534
55596SOL     OW73392   2.825   9.211   4.160 -0.6126 -0.3284  0.1458
55596SOL    HW173393   2.782   9.193   4.243  0.3306 -1.6686  0.3766
55596SOL    HW273394   2.790   9.146   4.100 -1.2110  0.5688 -0.4960
55597SOL     OW73395   6.119   4.981  12.047 -0.1261 -0.0334 -0.0855
55597SOL    HW173396   6.146   4.937  11.966  0.1163  0.1437 -0.1012
55597SOL    HW273397   6.163   5.065  12.044 -0.0163 -0.0770  0.2957
55598SOL     OW73398   1.625   7.032   0.517  0.2741 -0.5102  0.1438
55598SOL    HW173399   1.533   7.047   0.537 -0.0313 -0.9933 -0.8468
55598SOL    HW273400   1.648   6.953   0.565  0.5006  0.2141  1.2844
55599SOL     OW73401   5.588   0.925   4.280 -0.6186 -0.6413 -0.4791
55599SOL    HW173402   5.509   0.934   4.332 -0.2133 -2.2022  0.4810
55599SOL    HW273403   5.651   0.983   4.322 -1.2764  0.7877 -1.3888
55600SOL     OW73404   5.986   9.951   7.770 -0.8270 -0.4750  0.5043
55600SOL    HW173405   6.005   9.986   7.683 -0.9155 -1.5020  0.0590
55600SOL    HW273406   6.000  10.025   7.829  0.0304  0.0210 -0.2931
55601SOL     OW73407   8.703   6.268   0.963  0.0519  0.0741 -0.1892
55601SOL    HW173408   8.777   6.210   0.978 -0.1964  0.0242  0.9865
55601SOL    HW273409   8.631   6.228   1.013 -0.1040  1.4175  0.7057
55602SOL     OW73410  10.334   2.061   3.472  0.1487 -0.3397  0.3254
55602SOL    HW173411  10.330   2.073   3.377 -0.1012 -1.3787  0.1850
55602SOL    HW273412  10.425   2.078   3.495 -0.2055  2.0242  0.2409
55603SOL     OW73413   7.097   6.332   5.832  0.1132  0.6951 -0.1670
55603SOL    HW173414   7.179   6.379   5.845  0.6059 -0.5396  1.4698
55603SOL    HW273415   7.047   6.389   5.773  1.5693  2.1506 -0.0911
55604SOL     OW73416   6.074   2.138   1.850 -0.1164 -1.0177  0.2998
55604SOL    HW173417   6.083   2.051   1.813 -0.5076 -0.8422 -0.2148
55604SOL    HW273418   5.987   2.140   1.889 -0.7005 -0.3888 -0.9764
55605SOL     OW73419   6.821   7.052   6.629  0.1763  0.0130 -0.2067
55605SOL    HW173420   6.879   7.112   6.677  1.2708  0.2022 -1.7059
55605SOL    HW273421   6.826   6.970   6.678  0.3613  0.5136  0.6428
55606SOL     OW73422   8.951   8.313   8.287  0.2618 -0.3066  0.5107
55606SOL    HW173423   8.896   8.237   8.267 -1.1026  0.5717  0.7794
55606SOL    HW273424   8.944   8.323   8.382  0.4715  0.1219  0.4850
55607SOL     OW73425   4.281   8.775  12.570 -0.1758 -0.1924  0.1281
55607SOL    HW173426   4.322   8.761  12.655 -1.0420 -1.8592  0.3131
55607SOL    HW273427   4.318   8.706  12.514 -0.5234  0.1290 -0.5081
55608SOL     OW73428   8.855   9.548   8.416 -0.0061  0.0973  0.7841
55608SOL    HW173429   8.842   9.641   8.400  2.0506  0.1199 -1.5151
55608SOL    HW273430   8.927   9.543   8.478  0.1628  0.0551  0.5874
55609SOL     OW73431  11.769   1.836   4.801  0.3900 -0.1432 -0.1301
55609SOL    HW173432  11.733   1.912   4.847 -0.8630 -0.4288 -0.5834
55609SOL    HW273433  11.798   1.777   4.870  0.2415  0.2302  0.2531
55610SOL     OW73434   8.285   7.870   2.444  0.1476  0.3233  0.2303
55610SOL    HW173435   8.297   7.785   2.402 -1.9581  0.2464 -0.3204
55610SOL    HW273436   8.351   7.872   2.514 -0.4035 -2.1851  0.9027
55611SOL     OW73437   6.579  10.985   7.324 -0.2231 -0.3876 -0.0423
55611SOL    HW173438   6.533  10.907   7.293 -1.5145 -0.2265  1.3742
55611SOL    HW273439   6.538  11.006   7.408  2.3805 -0.1765  1.2816
55612SOL     OW73440   7.521  11.320   5.701 -0.3383  0.3657 -0.5781
55612SOL    HW173441   7.437  11.311   5.655 -0.3379  0.4677 -0.5994
55612SOL    HW273442   7.585  11.282   5.642 -0.1748  1.5130 -1.1689
55613SOL     OW73443   4.287  11.004   4.276 -0.8343  0.0109  0.3290
55613SOL    HW173444   4.325  10.939   4.217 -1.2450 -1.1877  1.3297
55613SOL    HW273445   4.279  10.958   4.360  1.2778  2.1384  1.8394
55614SOL     OW73446  10.273   3.852  12.237 -0.1274 -1.2062 -0.9333
55614SOL    HW173447  10.259   3.858  12.332  0.1182  2.8332 -0.9681
55614SOL    HW273448  10.212   3.785  12.208 -1.3451 -1.4696  1.9057
55615SOL     OW73449  10.170  10.036   2.112 -0.1324 -0.3596 -0.5025
55615SOL    HW173450  10.258  10.045   2.076  0.3912  0.6070  0.8982
55615SOL    HW273451  10.169   9.950   2.152  0.2977 -0.2488 -0.2466
55616SOL     OW73452  12.426   7.116   3.065  0.2232 -0.2965  0.0296
55616SOL    HW173453  12.332   7.104   3.080  0.3005 -0.1958  0.6210
55616SOL    HW273454  12.439   7.094   2.973 -0.2127 -1.3890  0.2156
55617SOL     OW73455  10.374   8.569   5.476  0.1433 -0.4815  0.2844
55617SOL    HW173456  10.468   8.588   5.471  0.1897 -0.2760  1.5951
55617SOL    HW273457  10.333   8.635   5.421  0.6720  0.3239  0.8426
55618SOL     OW73458   3.250   1.348  12.205  0.2891 -0.4369 -0.5249
55618SOL    HW173459   3.184   1.298  12.253  0.6772 -0.4760 -0.0172
55618SOL    HW273460   3.258   1.303  12.121 -2.2321  1.0925 -1.6929
55619SOL     OW73461   1.580   2.257   6.051  0.4810 -0.1392 -0.7692
55619SOL    HW173462   1.531   2.261   6.133  0.9586 -0.6672 -0.4513
55619SOL    HW273463   1.543   2.183   6.004  1.0255 -0.5972 -0.4874
55620SOL     OW73464   0.520   8.573   8.500  0.5164  0.4888  0.5951
55620SOL    HW173465   0.497   8.509   8.433 -1.5517  1.1578  0.6096
55620SOL    HW273466   0.614   8.560   8.514  0.3697 -1.7995 -0.1596
55621SOL     OW73467   8.982   1.214  10.302 -0.5819 -0.5316  0.5007
55621SOL    HW173468   9.044   1.283  10.325 -0.8413  0.0650 -0.5292
55621SOL    HW273469   9.032   1.133  10.313 -0.5986 -0.2902  2.7746
55622SOL     OW73470   4.006   1.011   4.524  0.0377  0.6932  0.4725
55622SOL    HW173471   3.956   0.990   4.602 -0.7942 -2.7900 -0.8554
55622SOL    HW273472   3.949   0.988   4.451  1.3707  2.3750 -1.2045
55623SOL     OW73473   2.326   1.997   3.818 -0.3633 -0.6784 -0.0093
55623SOL    HW173474   2.313   1.970   3.727  1.6091  2.8470 -1.5637
55623SOL    HW273475   2.256   2.060   3.834 -0.3301 -0.8121  0.7012
55624SOL     OW73476   7.167   2.530  12.108  0.1135  0.3499  0.7743
55624SOL    HW173477   7.218   2.456  12.141  0.8722  0.4380 -0.1734
55624SOL    HW273478   7.076   2.508  12.129  0.2463 -1.1955 -0.1313
55625SOL     OW73479   1.318  10.350   4.414  0.2894  0.2757 -0.2709
55625SOL    HW173480   1.269  10.307   4.484 -0.7180 -2.4050 -2.4449
55625SOL    HW273481   1.383  10.286   4.387  1.0978  1.4928 -1.3472
55626SOL     OW73482   7.146   0.249   2.914  0.0517 -0.2089  0.0557
55626SOL    HW173483   7.119   0.209   2.997 -2.0642 -0.7529 -0.8222
55626SOL    HW273484   7.149   0.343   2.933  0.4119 -0.3892  0.9531
55627SOL     OW73485   0.167   1.789  11.664  0.2356 -0.3259 -0.5167
55627SOL    HW173486   0.100   1.832  11.611  2.2653 -0.3268 -3.3425
55627SOL    HW273487   0.177   1.844  11.741 -0.6883  1.5141 -1.6600
55628SOL     OW73488  11.795  11.711  11.046 -0.7186 -0.2496  0.3133
55628SOL    HW173489  11.845  11.793  11.051  0.5731 -1.0671  1.4637
55628SOL    HW273490  11.786  11.682  11.137  0.0912 -2.1158 -0.1555
55629SOL     OW73491   9.579   8.612   6.412  0.2590  0.5548 -0.3778
55629SOL    HW173492   9.601   8.648   6.498  0.3408 -1.1193  0.3340
55629SOL    HW273493   9.526   8.534   6.431  1.4889 -0.6849 -1.7732
55630SOL     OW73494   5.088   0.350  10.830  0.8609  0.0462 -0.0279
55630SOL    HW173495   5.108   0.260  10.853 -1.7797 -0.5837  0.1341
55630SOL    HW273496   5.015   0.374  10.888  1.7256  2.4269  0.1937
55631SOL     OW73497   8.428   4.496   1.602 -0.4910 -0.1871 -0.0138
55631SOL    HW173498   8.493   4.426   1.611 -0.3499  0.0629  1.0323
55631SOL    HW273499   8.374   4.488   1.681 -0.5504  0.7999  0.0483
55632SOL     OW73500   6.767  11.578  11.068  0.1539  0.1595 -0.2799
55632SOL    HW173501   6.708  11.590  10.994 -0.0727  0.5844 -0.0324
55632SOL    HW273502   6.737  11.641  11.134 -0.8096 -1.4539  0.9066
55633SOL     OW73503  12.164   2.726  11.865  0.3229  0.0281 -0.4209
55633SOL    HW173504  12.101   2.655  11.860 -0.3794  0.2501  2.9307
55633SOL    HW273505  12.112   2.802  11.891  1.7086  0.4965  1.2076
55634SOL     OW73506   4.736   8.995   9.794  0.1449  0.0781  0.1186
55634SOL    HW173507   4.724   9.083   9.761  0.0701  0.1488  0.3320
55634SOL    HW273508   4.655   8.949   9.771  0.4847 -0.1508 -0.6629
55635SOL     OW73509   0.611   7.379   1.709  0.7177 -0.1999  0.5648
55635SOL    HW173510   0.652   7.398   1.625 -0.3320 -0.2998  0.0207
55635SOL    HW273511   0.676   7.406   1.774  1.7529 -0.6205 -0.2727
55636SOL     OW73512  10.276   5.708   6.651 -0.7471  0.2836  0.2587
55636SOL    HW173513  10.217   5.687   6.723 -2.1981 -0.3387 -1.0574
55636SOL    HW273514  10.331   5.630   6.641  0.0229  0.6770  1.1624
55637SOL     OW73515   5.336  12.591   5.377  0.1502 -0.0795  0.3203
55637SOL    HW173516   5.358  12.497   5.379  1.6309  0.2332  2.3962
55637SOL    HW273517   5.313  12.608   5.286 -0.6895 -2.5692 -0.0166
55638SOL     OW73518   0.760   6.738   9.706 -0.3043  0.2574  0.0936
55638SOL    HW173519   0.790   6.698   9.625 -1.6872 -0.7657  0.0513
55638SOL    HW273520   0.790   6.679   9.775 -2.0655 -0.7522  0.0537
55639SOL     OW73521   8.084   3.502  12.153  0.2119 -0.5017 -0.1179
55639SOL    HW173522   8.080   3.446  12.230  2.4139 -1.9605 -0.9662
55639SOL    HW273523   8.098   3.590  12.187 -1.6485 -0.6510  1.1826
55640SOL     OW73524   0.220   3.907   1.954 -0.5469  0.1406 -0.2699
55640SOL    HW173525   0.205   3.908   1.860 -0.4425  2.2870 -0.3166
55640SOL    HW273526   0.291   3.971   1.968 -0.3604 -0.3431  1.2308
55641SOL     OW73527  11.830   5.966   5.252 -0.3237  0.1279  0.0994
55641SOL    HW173528  11.771   6.040   5.261 -1.7043 -0.8697 -0.2622
55641SOL    HW273529  11.811   5.931   5.165 -0.5317 -1.3173  0.6951
55642SOL     OW73530   2.786  11.473   5.617  0.1801 -0.8114 -1.0208
55642SOL    HW173531   2.879  11.466   5.641  0.2050 -1.8691 -1.3880
55642SOL    HW273532   2.784  11.538   5.548  0.3118  1.1281  0.6973
55643SOL     OW73533   4.739   1.331   0.793  0.5088  0.1821 -0.5290
55643SOL    HW173534   4.716   1.423   0.808  1.2825  0.2481  0.3513
55643SOL    HW273535   4.708   1.313   0.705  2.5947  2.0512 -1.7448
55644SOL     OW73536   0.458   4.950   8.164  0.0793  0.0893 -0.6739
55644SOL    HW173537   0.378   4.931   8.212 -0.4145  0.3948 -1.3636
55644SOL    HW273538   0.490   5.032   8.201  0.1927 -0.1464 -0.2479
55645SOL     OW73539   7.898   8.026   6.108 -0.2881  0.2563 -0.4909
55645SOL    HW173540   7.849   8.107   6.101 -0.0482  0.5157  0.6441
55645SOL    HW273541   7.932   8.026   6.198  0.5414 -0.6183 -0.7855
55646SOL     OW73542   6.383   6.745   2.976  0.3580  0.0032 -0.0874
55646SOL    HW173543   6.424   6.663   2.948  1.6271  0.4673  0.3578
55646SOL    HW273544   6.333   6.774   2.900 -0.6371 -1.4920 -0.0449
55647SOL     OW73545   1.244   8.711  10.064  0.0308 -0.6027 -0.2341
55647SOL    HW173546   1.274   8.801  10.055 -1.0476 -0.2888 -0.9798
55647SOL    HW273547   1.318   8.664  10.103 -0.3222  1.1378  2.8127
55648SOL     OW73548   5.842   6.682   6.687 -0.3025 -0.1368 -0.1775
55648SOL    HW173549   5.905   6.611   6.691 -1.3372 -1.1035 -0.5293
55648SOL    HW273550   5.769   6.648   6.635 -1.3478  0.7500  0.6353
55649SOL     OW73551  12.744   5.980  10.666 -0.4220 -0.2166 -0.0971
55649SOL    HW173552  12.652   5.999  10.683 -0.1889  1.2653 -0.3182
55649SOL    HW273553  12.782   5.969  10.754 -0.7361 -0.4569  0.0098
55650SOL     OW73554   5.419  10.595   5.357  0.1606  0.2573  0.1518
55650SOL    HW173555   5.452  10.564   5.272  1.0530 -0.4326  0.7338
55650SOL    HW273556   5.431  10.521   5.416 -2.2900  0.0296  0.4640
55651SOL     OW73557  10.479   7.308   7.090 -0.3041 -0.1440 -0.5480
55651SOL    HW173558  10.385   7.318   7.107 -0.4238 -1.4347 -0.2836
55651SOL    HW273559  10.502   7.226   7.134  0.8409 -0.0979 -1.0270
55652SOL     OW73560   3.836   4.633   9.921 -0.3082 -0.0044 -0.4638
55652SOL    HW173561   3.762   4.638   9.981  2.2656 -0.1279  2.9921
55652SOL    HW273562   3.848   4.722   9.889 -0.1929  0.6428  1.2952
55653SOL     OW73563   7.487   1.229   8.513  0.5883 -0.1741  0.1938
55653SOL    HW173564   7.398   1.235   8.480  0.1790 -2.2760  0.7361
55653SOL    HW273565   7.487   1.150   8.567  2.5369  0.3222  1.0079
55654SOL     OW73566  12.031   1.245   0.435  0.4920 -0.7899  0.2514
55654SOL    HW173567  11.982   1.201   0.365  0.7401 -0.8298  0.1027
55654SOL    HW273568  12.009   1.195   0.514 -0.8832  0.0791  0.4591
55655SOL     OW73569   0.811  12.354  10.640  0.6740  0.1244 -0.2366
55655SOL    HW173570   0.803  12.365  10.545 -2.8563  2.2155  0.1144
55655SOL    HW273571   0.748  12.286  10.662 -1.8830  2.6787  0.8950
55656SOL     OW73572   1.085   6.221   9.255  0.1989 -0.0007  0.1439
55656SOL    HW173573   1.125   6.213   9.169 -0.6775 -1.4251 -0.1802
55656SOL    HW273574   1.141   6.168   9.312 -1.0077 -1.7943 -0.2612
55657SOL     OW73575  10.947   6.835   0.420 -0.1698  0.9715  0.0667
55657SOL    HW173576  10.972   6.748   0.451 -0.6611  0.4140 -1.0316
55657SOL    HW273577  11.030   6.877   0.396 -0.0879 -0.2208 -1.9362
55658SOL     OW73578   2.478   4.339   3.444 -0.6110 -0.1275 -0.4432
55658SOL    HW173579   2.511   4.256   3.409 -0.6647  0.4041 -1.7971
55658SOL    HW273580   2.511   4.342   3.534 -1.1412 -1.9026 -0.1527
55659SOL     OW73581   0.923   1.109   1.774  0.5579 -0.6352  0.0462
55659SOL    HW173582   1.012   1.072   1.778  1.9806  2.3373 -0.7999
55659SOL    HW273583   0.902   1.131   1.865  0.7744 -1.1575  0.2249
55660SOL     OW73584   8.541  12.422   0.597  0.0196  0.0494 -0.0132
55660SOL    HW173585   8.598  12.498   0.599  0.8085 -0.5106 -0.7629
55660SOL    HW273586   8.479  12.437   0.669  2.0419 -0.0551  1.8669
55661SOL     OW73587  10.220   7.988   9.161 -0.2044  0.2370  0.3546
55661SOL    HW173588  10.302   7.942   9.145 -0.7072 -0.7719  0.6388
55661SOL    HW273589  10.236   8.077   9.127  0.6462 -0.2359 -0.5459
55662SOL     OW73590  11.050   1.569  12.707 -0.0864  0.1448 -0.1845
55662SOL    HW173591  11.011   1.547  12.792  1.1023 -3.1255 -0.3452
55662SOL    HW273592  10.978   1.557  12.645 -0.4379  0.4644  0.1602
55663SOL     OW73593   6.264  10.548   5.457 -0.0059  0.2585  0.0915
55663SOL    HW173594   6.252  10.470   5.511  0.6123  0.4745  0.5530
55663SOL    HW273595   6.281  10.514   5.369  1.5757 -0.1769  0.5403
55664SOL     OW73596  12.645   1.885   7.751 -0.3991 -0.0806 -0.0061
55664SOL    HW173597  12.677   1.800   7.779  1.0320  0.6944  0.8504
55664SOL    HW273598  12.706   1.948   7.792 -2.3864  1.4345  0.7691
55665SOL     OW73599   7.004   6.686   8.214 -0.0111  0.1600 -0.3239
55665SOL    HW173600   7.021   6.775   8.182  1.2234  0.3316  0.7479
55665SOL    HW273601   6.978   6.698   8.306  0.0965 -0.5720 -0.1895
55666SOL     OW73602  11.797   2.981   2.880 -0.0031  0.6222  0.0512
55666SOL    HW173603  11.758   2.944   2.960  0.9290  1.4932  0.9354
55666SOL    HW273604  11.826   3.068   2.906  1.4334  0.4592 -0.9145
55667SOL     OW73605   2.298   3.569   0.431  0.2429 -0.5968  0.0180
55667SOL    HW173606   2.382   3.613   0.416 -0.6005  0.4938 -1.7218
55667SOL    HW273607   2.277   3.587   0.522  1.8036 -0.7426  0.4330
55668SOL     OW73608   1.791   9.081  11.980 -0.0806 -0.5130 -0.8773
55668SOL    HW173609   1.766   9.025  11.907 -1.6460 -1.7369  0.4960
55668SOL    HW273610   1.885   9.067  11.990  0.0788 -0.6327 -2.3740
55669SOL     OW73611  10.779   9.360  10.326 -0.2722  0.3860 -0.1905
55669SOL    HW173612  10.873   9.372  10.341 -0.0701  1.3736 -2.0056
55669SOL    HW273613  10.769   9.267  10.307  0.1411  0.0557  1.0891
55670SOL     OW73614   5.831   1.488   5.258 -0.4742 -0.2209  0.0044
55670SOL    HW173615   5.856   1.557   5.319  0.5895 -1.4770  1.0689
55670SOL    HW273616   5.913   1.444   5.237 -1.0819 -0.9497 -0.9059
55671SOL     OW73617   2.318  11.230  12.327  0.0331 -0.0448 -0.0204
55671SOL    HW173618   2.379  11.156  12.328 -0.9013 -0.8296  0.8259
55671SOL    HW273619   2.284  11.234  12.416 -2.1481 -0.4746 -0.7790
55672SOL     OW73620  11.971   6.411  10.856 -0.5124 -0.6349 -0.5681
55672SOL    HW173621  11.966   6.464  10.777  1.2561 -0.7881 -0.8185
55672SOL    HW273622  12.023   6.334  10.830  0.2005 -0.6221  0.7633
55673SOL     OW73623   3.773   0.498   6.602 -0.4014  0.1492  0.1966
55673SOL    HW173624   3.855   0.492   6.652 -0.3885 -1.8988 -0.0130
55673SOL    HW273625   3.785   0.439   6.529 -1.3050  1.4264 -1.0310
55674SOL     OW73626  12.159  11.347  11.497 -0.3921 -0.0198  0.1621
55674SOL    HW173627  12.090  11.322  11.559 -0.5931 -1.2133 -0.5261
55674SOL    HW273628  12.145  11.292  11.421  1.8428 -0.9110  0.3290
55675SOL     OW73629   7.192   0.236   1.508 -0.0810  0.1359 -0.8136
55675SOL    HW173630   7.115   0.201   1.463 -0.5088  1.8751 -1.5051
55675SOL    HW273631   7.157   0.277   1.587  0.7810 -4.0523  2.0807
55676SOL     OW73632   5.389   0.990  10.223 -0.2560  0.2409  0.3045
55676SOL    HW173633   5.408   1.081  10.246  0.8367 -0.1269  0.9274
55676SOL    HW273634   5.303   0.993  10.181  0.1189  1.6733 -0.4165
55677SOL     OW73635   7.010   8.147   7.559  0.1610 -0.4248 -0.1751
55677SOL    HW173636   6.933   8.095   7.538 -1.4390  1.7706 -0.0568
55677SOL    HW273637   7.025   8.132   7.652 -1.1742  0.3805  0.1924
55678SOL     OW73638   7.821   6.029   9.188  0.3016  0.1359 -0.1685
55678SOL    HW173639   7.887   5.959   9.195  1.3284  1.2395  2.1913
55678SOL    HW273640   7.865   6.098   9.138  0.2874  0.1844 -0.1139
55679SOL     OW73641  11.987   1.527   3.536  0.2294  0.3746 -0.5457
55679SOL    HW173642  11.895   1.499   3.531  0.6281 -0.7520 -2.6236
55679SOL    HW273643  12.037   1.451   3.507  1.8684  0.9339  0.6619
55680SOL     OW73644   2.654   9.593   7.544 -0.0520  0.0694  0.2628
55680SOL    HW173645   2.583   9.647   7.579  2.1772  1.9691  2.2103
55680SOL    HW273646   2.647   9.511   7.592 -1.3899 -0.0893 -0.1659
55681SOL     OW73647   6.642  11.297   3.378  0.1430 -0.2787 -0.5128
55681SOL    HW173648   6.561  11.340   3.406 -0.8316 -1.7747 -0.9127
55681SOL    HW273649   6.705  11.368   3.368 -1.2685  0.9871 -0.6991
55682SOL     OW73650   9.500   6.497   2.748  0.0723 -0.0299 -0.1714
55682SOL    HW173651   9.471   6.436   2.680 -0.7316  1.0993 -0.8725
55682SOL    HW273652   9.425   6.505   2.807 -0.1764  0.9911 -0.6072
55683SOL     OW73653   8.841   6.337  10.440 -0.1959 -0.2950 -0.5683
55683SOL    HW173654   8.870   6.251  10.410 -0.4014 -1.6385  2.6278
55683SOL    HW273655   8.825   6.326  10.534 -3.7221  2.3264 -0.6273
55684SOL     OW73656   9.773   8.831   8.325 -0.3139  0.3436  0.3795
55684SOL    HW173657   9.817   8.790   8.251  1.0463  0.4546  1.0882
55684SOL    HW273658   9.721   8.761   8.365  0.6556 -0.2844  0.5812
55685SOL     OW73659   8.693   7.117   9.223  0.4344 -0.5183 -0.1164
55685SOL    HW173660   8.777   7.090   9.185  0.7715 -0.2548  0.4285
55685SOL    HW273661   8.703   7.100   9.317  0.1439  0.1912  0.0461
55686SOL     OW73662   3.346   0.531   1.500 -0.0124 -0.0131 -0.0203
55686SOL    HW173663   3.286   0.460   1.477  1.3522 -1.7063  1.2977
55686SOL    HW273664   3.321   0.556   1.589  1.4963 -1.1645  0.7926
55687SOL     OW73665   5.433   3.123   2.593 -0.4167  0.0027  0.0505
55687SOL    HW173666   5.355   3.097   2.642 -0.6448 -2.1151 -1.3046
55687SOL    HW273667   5.490   3.166   2.657 -2.3256  0.8688  1.2384
55688SOL     OW73668   8.819   4.852  10.647  0.3275  0.1021  0.2010
55688SOL    HW173669   8.782   4.782  10.595  1.6584 -1.3442  1.0935
55688SOL    HW273670   8.887   4.891  10.592 -1.0641  1.3987 -0.6655
55689SOL     OW73671   1.189  10.634  12.152  0.0768 -0.4579 -0.3934
55689SOL    HW173672   1.238  10.656  12.232  1.3174  0.2578 -1.3147
55689SOL    HW273673   1.224  10.549  12.126 -0.8250 -1.0167  0.1885
55690SOL     OW73674  11.554  10.160   7.695  0.8357 -0.1673 -0.3886
55690SOL    HW173675  11.510  10.225   7.750 -2.1012 -0.9683 -1.5637
55690SOL    HW273676  11.590  10.211   7.622  1.1457  0.4271  0.1666
55691SOL     OW73677   1.002   1.361  12.748 -0.1043  0.6006  0.1890
55691SOL    HW173678   1.036   1.302  12.680 -1.3488  0.0848 -0.0047
55691SOL    HW273679   1.055   1.341  12.825 -0.3029 -0.5586  0.0386
55692SOL     OW73680   3.961   8.917  10.579  0.3245  0.1558  0.1150
55692SOL    HW173681   3.914   8.849  10.628  0.8559  0.2046  0.6982
55692SOL    HW273682   3.900   8.942  10.509 -0.4743  0.1197  0.7706
55693SOL     OW73683   3.058   8.771  12.098 -0.1033  0.1825  0.4579
55693SOL    HW173684   2.997   8.730  12.037  2.1689 -1.0471 -1.1311
55693SOL    HW273685   3.024   8.859  12.111 -2.6378 -0.6873  0.3446
55694SOL     OW73686   4.968  12.232   8.127 -0.2223  0.8020 -0.2442
55694SOL    HW173687   4.896  12.295   8.120 -0.6978  0.2568 -0.3307
55694SOL    HW273688   4.945  12.163   8.065 -0.3969 -0.1288  0.8256
55695SOL     OW73689   8.889   1.418   2.927 -0.7172  0.0759 -0.9300
55695SOL    HW173690   8.939   1.499   2.922  0.0481 -0.4408 -1.8941
55695SOL    HW273691   8.937   1.365   2.991 -0.8750  0.1420 -0.7547
55696SOL     OW73692   4.679   4.438   0.730 -0.0353  0.8606 -0.1161
55696SOL    HW173693   4.698   4.481   0.814  2.5149 -0.0168 -0.1383
55696SOL    HW273694   4.738   4.362   0.729 -0.4473  0.5107 -2.4384
55697SOL     OW73695  10.601   8.485   0.761  0.0782 -0.0707 -0.2617
55697SOL    HW173696  10.634   8.415   0.705  0.7711  1.2163 -1.5467
55697SOL    HW273697  10.523   8.517   0.716 -0.7371 -0.5700  0.7661
55698SOL     OW73698   3.975  10.023   8.659  0.1742 -0.0145  0.3784
55698SOL    HW173699   3.957  10.103   8.708 -2.1036 -0.1258 -0.1531
55698SOL    HW273700   3.935   9.953   8.710 -1.2953 -0.2655 -1.0152
55699SOL     OW73701   9.796   8.444   4.867  0.6838 -0.3232 -0.3601
55699SOL    HW173702   9.723   8.383   4.860  0.2624  0.1281  0.0775
55699SOL    HW273703   9.784   8.505   4.795  0.9757 -0.6032 -0.6549
55700SOL     OW73704   3.394   2.543  12.533 -0.1852  0.2132  0.0622
55700SOL    HW173705   3.319   2.529  12.475  0.6000  1.5489 -1.3478
55700SOL    HW273706   3.361   2.524  12.621 -1.6349 -1.0561 -0.7195
55701SOL     OW73707  11.312   3.891  11.620 -0.8080 -0.0084  0.3631
55701SOL    HW173708  11.356   3.934  11.546 -1.2944 -0.0938  0.0119
55701SOL    HW273709  11.218   3.906  11.603 -0.9042  0.6202  1.3673
55702SOL     OW73710  10.961   6.951  10.563 -0.0534  0.4402 -0.4828
55702SOL    HW173711  10.948   6.874  10.619 -0.4662  1.5738  1.0579
55702SOL    HW273712  10.876   6.967  10.523  0.0092  0.1524 -0.7324
55703SOL     OW73713   2.292   8.534   6.312 -0.5885 -0.8204  0.3914
55703SOL    HW173714   2.266   8.625   6.294  0.0332 -0.1891  2.3945
55703SOL    HW273715   2.309   8.497   6.226 -0.4192  1.1016 -0.4671
55704SOL     OW73716   3.890   3.062  12.301 -0.4575  0.4782 -0.4035
55704SOL    HW173717   3.842   3.052  12.219 -0.7470  1.4355 -0.3691
55704SOL    HW273718   3.822   3.061  12.369 -0.1800 -0.7386 -0.1352
55705SOL     OW73719   0.568  11.764   6.917  0.3696  0.2093 -0.5080
55705SOL    HW173720   0.650  11.796   6.957  0.0903 -0.4168  0.6140
55705SOL    HW273721   0.502  11.778   6.985 -0.1310 -0.8537 -0.7650
55706SOL     OW73722   2.385   5.695   5.628  0.2593  0.3962  0.5288
55706SOL    HW173723   2.454   5.674   5.565 -0.1666  2.6948 -0.8182
55706SOL    HW273724   2.332   5.615   5.633  2.4561 -1.1355  0.9480
55707SOL     OW73725  12.541   7.158   9.837  0.0815  0.3974  0.0216
55707SOL    HW173726  12.533   7.242   9.884 -0.6365  0.6468 -0.5345
55707SOL    HW273727  12.630   7.159   9.803  1.2261 -0.5056  2.7007
55708SOL     OW73728   0.974   3.801   1.922 -0.2678 -0.3063  0.2331
55708SOL    HW173729   0.936   3.770   1.840  0.6968  1.5244 -0.9619
55708SOL    HW273730   0.938   3.741   1.989 -2.5527 -0.7129 -1.2411
55709SOL     OW73731   0.944   4.213  11.982  0.0591 -0.2016  0.3477
55709SOL    HW173732   0.887   4.274  12.029  0.1288 -0.5156  0.8537
55709SOL    HW273733   1.005   4.182  12.049  0.9152  0.2348 -0.2118
55710SOL     OW73734   0.054   2.026   5.427  0.1114 -0.0294 -0.1902
55710SOL    HW173735   0.067   1.942   5.472  0.4995 -0.7605 -1.5948
55710SOL    HW273736   0.107   2.088   5.476  1.9298 -1.1637 -0.6320
55711SOL     OW73737   4.439   3.160  12.737 -0.5893 -0.4127  0.2916
55711SOL    HW173738   4.492   3.211  12.677 -1.7480  0.6625  0.1529
55711SOL    HW273739   4.399   3.092  12.683 -0.4212 -0.3927  0.1422
55712SOL     OW73740   1.002   3.252   6.198 -0.5627 -0.7606 -0.0987
55712SOL    HW173741   1.002   3.333   6.148  0.0404 -1.1092 -0.6839
55712SOL    HW273742   0.958   3.189   6.142 -2.5340 -0.4689  1.0276
55713SOL     OW73743   2.239   9.983   6.189 -0.6087 -0.3289 -0.2168
55713SOL    HW173744   2.156  10.017   6.221 -1.8400 -0.2230 -3.2341
55713SOL    HW273745   2.302  10.007   6.257 -3.0864 -1.1228  2.5943
55714SOL     OW73746   8.216   8.614  11.332  0.3200  0.1255 -0.1072
55714SOL    HW173747   8.146   8.579  11.277 -1.4981  1.4633  1.2463
55714SOL    HW273748   8.250   8.689  11.283 -1.2933  1.3153  0.4997
55715SOL     OW73749   7.246   3.564   7.234  0.0107 -0.0983  0.2760
55715SOL    HW173750   7.244   3.472   7.206  0.5792 -0.4490  1.3279
55715SOL    HW273751   7.154   3.591   7.234 -0.1551 -0.6405 -0.1221
55716SOL     OW73752   9.161  10.637  11.477 -0.1122 -0.4376  0.1840
55716SOL    HW173753   9.147  10.615  11.384 -1.1296  0.9736 -0.0153
55716SOL    HW273754   9.148  10.554  11.523  0.3822 -1.1528 -0.9219
55717SOL     OW73755   5.073   8.902  10.025 -0.4731  0.3885 -0.0139
55717SOL    HW173756   5.098   8.966   9.958  0.7724  1.3847  1.3196
55717SOL    HW273757   5.070   8.818   9.979 -2.0867  1.3428 -1.8072
55718SOL     OW73758   3.365  12.521   1.785  0.2661 -0.0260  0.2379
55718SOL    HW173759   3.440  12.580   1.782  0.0331  0.3507  1.3023
55718SOL    HW273760   3.395  12.440   1.745  0.2433  1.1763 -2.4062
55719SOL     OW73761   3.129   7.677   1.800 -0.4802 -0.5009 -0.0227
55719SOL    HW173762   3.078   7.599   1.778  0.7451 -1.8828  1.7700
55719SOL    HW273763   3.195   7.682   1.731 -0.6024 -1.0037 -0.1818
55720SOL     OW73764   2.905  11.199   7.633  0.0050 -0.2148 -0.3019
55720SOL    HW173765   2.934  11.272   7.578  0.1868  0.3317  0.5038
55720SOL    HW273766   2.839  11.237   7.691 -1.2834 -1.1185 -1.1177
55721SOL     OW73767   0.477  11.447   2.379  0.0044 -0.0477  0.4127
55721SOL    HW173768   0.404  11.446   2.318  1.1728 -0.7052 -1.0300
55721SOL    HW273769   0.436  11.444   2.466 -1.6542 -0.5647 -0.3584
55722SOL     OW73770   7.026  12.443   0.857  0.0634 -0.1268  0.0207
55722SOL    HW173771   7.105  12.491   0.879 -0.4037  1.4386 -1.5222
55722SOL    HW273772   7.053  12.384   0.786  0.0956 -0.3866  0.2492
55723SOL     OW73773   4.800  12.509   4.491 -1.1104 -0.1230  0.1460
55723SOL    HW173774   4.874  12.530   4.547 -0.1502  0.1933 -1.1722
55723SOL    HW273775   4.752  12.441   4.538 -1.6118  1.6698  2.3290
55724SOL     OW73776   5.370   0.026   4.066  0.2230 -0.0543  0.1522
55724SOL    HW173777   5.292  -0.021   4.035  0.3335 -0.5529  0.6159
55724SOL    HW273778   5.443  -0.030   4.040  0.4099  0.2576 -0.0013
55725SOL     OW73779   4.332   4.645   5.279 -0.6405 -0.7470  0.1246
55725SOL    HW173780   4.363   4.590   5.207 -0.3851 -1.6957  0.9473
55725SOL    HW273781   4.409   4.695   5.306 -0.6077 -0.7870  0.1043
55726SOL     OW73782   4.468   4.317   9.781 -0.4989 -0.0448 -0.3314
55726SOL    HW173783   4.410   4.241   9.771  1.1450 -1.1353 -2.4638
55726SOL    HW273784   4.433   4.382   9.719 -1.6893  0.8854  1.2320
55727SOL     OW73785   7.664  12.675  11.127 -0.2990  0.6336  0.3559
55727SOL    HW173786   7.585  12.701  11.174 -1.3523 -0.5822 -0.6412
55727SOL    HW273787   7.679  12.585  11.154  1.6558  1.2979  1.6558
55728SOL     OW73788  11.649   0.040   9.766 -0.1692  0.0856 -0.0105
55728SOL    HW173789  11.583  -0.029   9.778 -0.4741  0.1340 -1.2945
55728SOL    HW273790  11.733  -0.007   9.768 -0.2998 -0.1388  0.4160
55729SOL     OW73791   3.679   0.695   5.364  0.2590 -0.1108  0.4743
55729SOL    HW173792   3.605   0.738   5.407 -0.5201 -0.9227  0.0094
55729SOL    HW273793   3.745   0.686   5.433  0.5375  1.9418  0.5380
55730SOL     OW73794   2.143   9.173   9.991 -0.0737 -0.8541  0.2698
55730SOL    HW173795   2.147   9.219   9.907  1.2427  0.2139  0.8760
55730SOL    HW273796   2.094   9.233  10.048  2.5245  0.4024  1.3534
55731SOL     OW73797  10.628   9.198   5.113  0.0749  0.6044 -0.1158
55731SOL    HW173798  10.721   9.206   5.089 -0.4265  1.8732 -1.8308
55731SOL    HW273799  10.603   9.110   5.085  0.8126  0.1356  0.6485
55732SOL     OW73800  11.268   1.705   2.033  0.4508 -0.0377 -0.6597
55732SOL    HW173801  11.257   1.752   1.950  0.5193  0.6669 -0.2651
55732SOL    HW273802  11.280   1.613   2.006 -4.1702 -0.7092 -1.3273
55733SOL     OW73803   2.830  11.281  10.707 -0.0388  0.3043 -0.2226
55733SOL    HW173804   2.760  11.237  10.658 -0.3731 -0.2097  0.6995
55733SOL    HW273805   2.802  11.277  10.798  0.7085  1.0126  0.0498
55734SOL     OW73806  12.531   3.045   4.756 -0.3107  0.1291 -0.2914
55734SOL    HW173807  12.481   2.964   4.763  0.6217 -0.4113  0.2683
55734SOL    HW273808  12.529   3.066   4.663 -1.6008  0.1445 -0.2762
55735SOL     OW73809   0.021  10.406   8.153 -0.4328 -0.2609  0.2489
55735SOL    HW173810  -0.036  10.329   8.163  1.0212 -1.7599 -1.9748
55735SOL    HW273811   0.048  10.427   8.242 -2.5704 -0.9399  1.1374
55736SOL     OW73812   2.316  10.353  11.721 -0.4534  0.1752  0.0533
55736SOL    HW173813   2.391  10.300  11.746 -0.3938  0.3387  0.2316
55736SOL    HW273814   2.250  10.333  11.787 -0.1932  0.8300  0.5241
55737SOL     OW73815   0.240   5.201   0.306  0.1510 -0.1778  0.1116
55737SOL    HW173816   0.177   5.271   0.324  2.1228  1.6071  0.3643
55737SOL    HW273817   0.246   5.199   0.210  0.6139  0.4950  0.1236
55738SOL     OW73818   5.131  10.007   6.237  0.0356  0.6236  0.3651
55738SOL    HW173819   5.050   9.957   6.227  0.2105  0.5550 -0.8856
55738SOL    HW273820   5.181   9.959   6.303  0.3763 -1.1310 -1.0900
55739SOL     OW73821  10.585   9.014   0.834  0.4389  0.1500 -0.0605
55739SOL    HW173822  10.545   9.056   0.910  0.9634  0.5574 -0.0061
55739SOL    HW273823  10.511   8.987   0.780  0.0263 -0.9088  0.9917
55740SOL     OW73824   2.796   6.708  11.218 -0.0082 -0.2487  0.3491
55740SOL    HW173825   2.888   6.684  11.204  0.2232 -0.0344  1.4130
55740SOL    HW273826   2.760   6.718  11.130  0.6506 -1.5859 -0.0919
55741SOL     OW73827   4.727   3.555   4.581  0.6739 -0.0403  0.1518
55741SOL    HW173828   4.715   3.522   4.492  0.4840 -3.2397  1.2463
55741SOL    HW273829   4.811   3.519   4.608  0.2250 -0.0146  1.6369
55742SOL     OW73830  11.387   7.129   5.029 -0.2892 -0.7741 -0.3710
55742SOL    HW173831  11.335   7.162   4.955  0.4461  0.2319 -0.4582
55742SOL    HW273832  11.447   7.200   5.049  0.1245 -1.3926  0.6268
55743SOL     OW73833   9.722   7.006   1.230 -0.2332  0.4514 -0.4227
55743SOL    HW173834   9.758   6.992   1.142  0.8998 -0.1302  0.1078
55743SOL    HW273835   9.706   6.918   1.264 -1.4644  0.6880 -0.3483
55744SOL     OW73836   2.677   4.809   6.498  0.4028 -0.3709  0.1354
55744SOL    HW173837   2.699   4.840   6.410 -1.1505 -0.3941 -0.2971
55744SOL    HW273838   2.602   4.751   6.484  0.4354 -0.7396  1.4332
55745SOL     OW73839  10.881   1.290  10.638 -0.2602  0.1137  0.1894
55745SOL    HW173840  10.963   1.293  10.686 -0.4557 -0.0545  0.5338
55745SOL    HW273841  10.903   1.242  10.557  0.2578  1.1000 -0.2814
55746SOL     OW73842  11.528  12.547   8.472  0.3233 -0.2148  0.1172
55746SOL    HW173843  11.539  12.492   8.394 -1.2882  2.6244 -2.2867
55746SOL    HW273844  11.603  12.607   8.469 -0.8302  1.2388 -0.4867
55747SOL     OW73845   0.865  11.324  10.322  0.3404 -0.0350 -0.2217
55747SOL    HW173846   0.895  11.261  10.256  0.0301 -0.4180  0.0057
55747SOL    HW273847   0.841  11.271  10.397  0.7969  0.4112  0.2469
55748SOL     OW73848  11.767   0.456  12.003 -0.1371  0.0879 -0.1098
55748SOL    HW173849  11.764   0.368  11.964  0.3740 -0.1100  0.2890
55748SOL    HW273850  11.780   0.514  11.928 -1.3298 -0.0921 -0.4808
55749SOL     OW73851  10.950   8.177   2.392  0.8346 -0.7401  0.0629
55749SOL    HW173852  10.969   8.152   2.302  1.9323  1.5828 -0.4209
55749SOL    HW273853  11.015   8.130   2.444  0.4667 -1.7575 -0.3705
55750SOL     OW73854   0.110   2.869  10.202  0.5646  0.0942 -0.0873
55750SOL    HW173855   0.048   2.908  10.264  0.8167  1.1282 -0.4621
55750SOL    HW273856   0.182   2.933  10.197  2.2802 -1.6293  1.2870
55751SOL     OW73857   5.017   4.123   7.093 -0.0286  0.7524 -0.4488
55751SOL    HW173858   4.930   4.087   7.109  0.2974  1.2592  3.8334
55751SOL    HW273859   5.077   4.060   7.133  1.5221  1.0250 -2.1963
55752SOL     OW73860   8.678   4.345   6.509 -0.0671 -0.5317 -0.4223
55752SOL    HW173861   8.733   4.382   6.440 -0.5672 -0.0192 -0.5516
55752SOL    HW273862   8.657   4.420   6.565 -3.4091  0.0700 -2.1976
55753SOL     OW73863  10.646   3.352  12.335 -0.0105  0.1739  0.1060
55753SOL    HW173864  10.740   3.340  12.346  0.5872  3.5368 -0.2169
55753SOL    HW273865  10.608   3.323  12.418  1.2807 -1.2492  0.2372
55754SOL     OW73866   4.458   3.813   7.708 -0.3896 -0.0973  0.4662
55754SOL    HW173867   4.439   3.823   7.615  1.1795  0.7565  0.1998
55754SOL    HW273868   4.435   3.897   7.746  1.5455  0.5426  0.3338
55755SOL     OW73869   8.865   9.810  12.518  0.0403  0.2641  0.2265
55755SOL    HW173870   8.782   9.838  12.556  0.5201  2.0690  0.0214
55755SOL    HW273871   8.928   9.816  12.589 -0.1769 -2.4102  0.7620
55756SOL     OW73872   9.052  10.228   5.417 -0.4646  0.2037  0.4613
55756SOL    HW173873   9.029  10.209   5.326  0.0186  0.5710  0.2603
55756SOL    HW273874   9.084  10.317   5.416  1.5760 -0.4886  0.6080
55757SOL     OW73875   4.777  10.083   6.738  1.3430  0.3671  0.2377
55757SOL    HW173876   4.746  10.157   6.790 -0.3692 -0.2541  0.1780
55757SOL    HW273877   4.808  10.020   6.803  0.1065 -0.0151  0.4792
55758SOL     OW73878   2.036   0.234   0.638 -0.0167  0.1168 -0.3335
55758SOL    HW173879   2.097   0.304   0.615  2.5131 -1.0307  2.1780
55758SOL    HW273880   1.991   0.267   0.716 -0.2685 -0.2628 -0.3160
55759SOL     OW73881  12.064   2.039   8.780  0.3690 -0.3826  0.5966
55759SOL    HW173882  12.140   2.096   8.765 -0.5060  0.5880 -0.4216
55759SOL    HW273883  12.038   2.011   8.692  0.8114 -2.4588  1.0872
55760SOL     OW73884   3.430   5.264  11.000 -0.1709  0.2733  0.2092
55760SOL    HW173885   3.519   5.265  10.966 -0.2800 -0.8260 -0.1349
55760SOL    HW273886   3.394   5.179  10.974 -1.3639  0.7433  0.2249
55761SOL     OW73887   9.427   0.039   3.379  0.7417  0.7398 -0.2201
55761SOL    HW173888   9.441   0.078   3.293 -0.9676  0.1432 -0.8051
55761SOL    HW273889   9.392   0.110   3.433  2.4488  1.2984  0.2387
55762SOL     OW73890  11.883   9.204   0.594  0.1238  0.0650 -0.3023
55762SOL    HW173891  11.912   9.118   0.625 -2.6631 -0.6262  0.7161
55762SOL    HW273892  11.928   9.267   0.649  1.7543 -0.7413 -0.6600
55763SOL     OW73893   5.669   4.546   4.461  0.2022 -0.1980  0.7366
55763SOL    HW173894   5.619   4.468   4.483 -1.3738  0.7909  0.8492
55763SOL    HW273895   5.748   4.513   4.418 -1.3623 -1.8150 -1.1012
55764SOL     OW73896   4.359   9.276  11.131  0.4853  0.1119 -0.1041
55764SOL    HW173897   4.389   9.297  11.042 -2.3281  4.1937 -0.3608
55764SOL    HW273898   4.424   9.317  11.188  0.7812 -0.0306 -0.3322
55765SOL     OW73899   2.356   3.534   1.038  0.6685  0.4438 -0.5112
55765SOL    HW173900   2.387   3.586   0.964  1.0574  0.5147 -0.3011
55765SOL    HW273901   2.436   3.496   1.076  0.3924 -0.3084 -0.6657
55766SOL     OW73902   5.228  10.993   5.682  0.3400  0.6800  0.1393
55766SOL    HW173903   5.143  10.996   5.726  0.4330 -0.5609  0.4492
55766SOL    HW273904   5.207  11.008   5.590 -0.1251  1.1324  0.3129
55767SOL     OW73905   1.410   0.587   6.794  0.6040  0.5327  0.0401
55767SOL    HW173906   1.458   0.647   6.738 -1.3203  1.4401 -0.7324
55767SOL    HW273907   1.424   0.501   6.754 -0.0798  1.0538 -1.4054
55768SOL     OW73908   2.435   8.105   7.733  0.2384 -0.4089  0.2716
55768SOL    HW173909   2.521   8.142   7.714  0.4247 -0.4252  1.0517
55768SOL    HW273910   2.392   8.098   7.648  0.6128  0.5811 -0.0079
55769SOL     OW73911   2.961   1.566   1.230 -0.4230 -0.0656 -0.5697
55769SOL    HW173912   3.040   1.537   1.184  0.3754 -0.3708  0.9459
55769SOL    HW273913   2.899   1.494   1.219  0.1583 -0.6272 -0.2256
55770SOL     OW73914   2.302   8.640  12.769  0.0381  0.1981  0.4237
55770SOL    HW173915   2.295   8.620  12.676  0.4658 -0.8091  0.5870
55770SOL    HW273916   2.332   8.558  12.809  0.7859  0.8744  1.3134
55771SOL     OW73917  12.690   9.074   7.200 -0.2712  0.0032 -0.1397
55771SOL    HW173918  12.778   9.072   7.239 -0.6271 -1.7547  0.6563
55771SOL    HW273919  12.705   9.049   7.109  0.1447  0.5199 -0.2200
55772SOL     OW73920   0.101  11.857   7.325  0.7253 -0.2524  0.1874
55772SOL    HW173921   0.116  11.896   7.411  0.8955 -0.5179  0.2805
55772SOL    HW273922   0.040  11.785   7.342 -1.2044  1.1973 -0.2750
55773SOL     OW73923   3.461   7.718  10.373 -0.3853  0.1474  0.2668
55773SOL    HW173924   3.374   7.750  10.397 -0.6368 -0.9610  0.8859
55773SOL    HW273925   3.467   7.733  10.279 -1.0124  0.7642  0.3134
55774SOL     OW73926  10.888  10.664   8.402 -0.5130 -0.0465  0.1103
55774SOL    HW173927  10.840  10.720   8.463 -0.0309  0.6735 -0.1521
55774SOL    HW273928  10.904  10.721   8.326 -2.0122 -1.2254 -1.1505
55775SOL     OW73929   9.701   4.336  11.301  0.7712 -0.0932 -0.6753
55775SOL    HW173930   9.766   4.348  11.231  0.2560 -0.1869 -1.1844
55775SOL    HW273931   9.650   4.260  11.272 -1.2786  1.5800 -1.6599
55776SOL     OW73932   1.463   7.544   3.300 -0.0977 -0.3705  0.3257
55776SOL    HW173933   1.459   7.466   3.245  0.6415 -0.7633  0.8067
55776SOL    HW273934   1.436   7.514   3.387 -0.4571  0.0609  0.3683
55777SOL     OW73935   9.056   1.886   6.155  0.2404  0.0016  0.4027
55777SOL    HW173936   9.073   1.980   6.150  0.4762 -0.0794 -0.6118
55777SOL    HW273937   9.096   1.859   6.237  1.3811  0.5575  0.0563
55778SOL     OW73938   7.218  10.884   8.368  0.6796 -0.0601 -0.4447
55778SOL    HW173939   7.295  10.846   8.326  0.1936 -0.7140 -0.7503
55778SOL    HW273940   7.173  10.810   8.409  1.3978  0.5995  1.7014
55779SOL     OW73941  10.078   9.624   7.764 -0.5543 -0.2612 -0.3619
55779SOL    HW173942  10.103   9.681   7.691 -0.3695 -0.0169 -0.1091
55779SOL    HW273943  10.117   9.539   7.742 -0.6460 -0.2352 -0.6330
55780SOL     OW73944   0.081   2.074   6.532  0.0716 -0.3095  1.2511
55780SOL    HW173945   0.028   2.137   6.484  0.7645  0.2878  1.2539
55780SOL    HW273946   0.021   2.002   6.552 -0.5241 -0.0177  0.5490
55781SOL     OW73947   2.035   8.034   8.043 -0.0407  0.5671 -0.0148
55781SOL    HW173948   2.043   7.951   8.089  0.1799  0.9492  0.6472
55781SOL    HW273949   2.117   8.045   7.996  0.5569  1.1162  1.1094
55782SOL     OW73950  12.160   9.984   8.353  0.1659 -0.4023  0.3645
55782SOL    HW173951  12.110   9.913   8.311 -2.0769  0.8914  0.6869
55782SOL    HW273952  12.233   9.940   8.395  0.2055 -2.2346 -1.4460
55783SOL     OW73953   0.085  10.984   3.258 -0.2953  0.5401 -0.1530
55783SOL    HW173954   0.144  11.059   3.265 -0.6581  1.0335 -1.7962
55783SOL    HW273955   0.143  10.908   3.249  0.1258  0.9512 -1.1099
55784SOL     OW73956  11.648   4.965   6.843 -0.4498 -0.4901  0.4718
55784SOL    HW173957  11.566   4.931   6.809 -1.2086 -1.3569  2.9068
55784SOL    HW273958  11.716   4.925   6.788 -1.5951 -0.5610 -0.9406
55785SOL     OW73959   2.006   2.765   3.200 -0.3318 -0.0274  0.4420
55785SOL    HW173960   2.079   2.797   3.148  1.1507 -0.8162  1.9283
55785SOL    HW273961   1.983   2.838   3.258 -1.4963  0.5974 -0.7575
55786SOL     OW73962   0.094   7.695   3.700  0.4851 -0.0608 -0.0169
55786SOL    HW173963   0.104   7.626   3.765  0.3239  0.1275  0.2127
55786SOL    HW273964   0.089   7.776   3.752 -3.4076 -0.1786  0.0837
55787SOL     OW73965   2.799   5.870  10.556  0.0660  0.6248 -0.3747
55787SOL    HW173966   2.716   5.913  10.575  0.9210  1.3309  2.1671
55787SOL    HW273967   2.846   5.931  10.500 -0.1012  1.4609  0.3783
55788SOL     OW73968  12.622   6.356   3.853 -0.2239  0.6759 -0.3298
55788SOL    HW173969  12.644   6.329   3.764  0.0481  2.1323 -0.7258
55788SOL    HW273970  12.609   6.451   3.847 -0.6686  0.7283  1.0932
55789SOL     OW73971   9.896  12.673  10.512  0.5001 -0.3850  0.2171
55789SOL    HW173972   9.856  12.601  10.463  0.7858 -0.7545  0.5108
55789SOL    HW273973   9.898  12.641  10.602  1.6892 -0.5030  0.1713
55790SOL     OW73974  10.221  12.004   3.066 -0.2469 -0.0813 -0.5855
55790SOL    HW173975  10.218  12.100   3.069 -0.0444 -0.0662 -0.8002
55790SOL    HW273976  10.135  11.978   3.033 -0.2494  0.0331 -0.6703
55791SOL     OW73977   7.840   9.050  10.508 -0.1249  0.2160 -0.5725
55791SOL    HW173978   7.919   9.095  10.536  0.1116  0.3490 -1.4154
55791SOL    HW273979   7.783   9.052  10.585  0.9821 -0.5846  0.3065
55792SOL     OW73980   5.878   4.280   6.436  0.2342  0.1732  0.2906
55792SOL    HW173981   5.820   4.228   6.380  1.1625 -0.2556 -0.2907
55792SOL    HW273982   5.904   4.220   6.506  0.5877  0.1309  0.1230
55793SOL     OW73983   1.163   2.061   4.004  0.3732 -0.5027 -0.0350
55793SOL    HW173984   1.143   1.990   3.943 -2.9489 -0.3784  0.7111
55793SOL    HW273985   1.132   2.140   3.960 -0.9733 -0.2651  1.2551
55794SOL     OW73986   0.467   5.524   3.929 -0.2996  0.2468 -0.1924
55794SOL    HW173987   0.384   5.478   3.940  0.1782 -0.6670 -0.3552
55794SOL    HW273988   0.449   5.613   3.959 -2.2658  1.0426 -3.3580
55795SOL     OW73989   0.543   3.967  11.931  0.2691 -0.1764 -0.7540
55795SOL    HW173990   0.494   3.887  11.948 -1.6404  1.3634  1.8669
55795SOL    HW273991   0.633   3.947  11.959 -0.2007 -1.3660 -0.0428
55796SOL     OW73992   2.927   6.251   9.650  0.3228  0.6706 -0.0536
55796SOL    HW173993   3.020   6.241   9.629  0.3672  0.0498  0.4201
55796SOL    HW273994   2.894   6.162   9.655 -0.5041  0.8971 -1.0537
55797SOL     OW73995   6.882  11.426   9.782  0.5268  0.0782 -0.3015
55797SOL    HW173996   6.834  11.507   9.799 -1.5599 -0.8591 -1.2986
55797SOL    HW273997   6.914  11.399   9.867 -0.8802  0.7027  0.4682
55798SOL     OW73998   5.256   9.661   3.110  0.4772 -0.5258 -0.2880
55798SOL    HW173999   5.207   9.708   3.042  0.1856 -0.7738 -0.2515
55798SOL    HW274000   5.251   9.718   3.187  1.0324 -0.1185 -0.5468
55799SOL     OW74001  10.104   3.434   9.759  0.2445 -0.5563  0.2023
55799SOL    HW174002  10.138   3.480   9.835 -1.2796 -0.2589  0.7530
55799SOL    HW274003  10.040   3.495   9.721 -1.5072 -1.9967  0.6894
55800SOL     OW74004   6.652   2.545   8.840  0.6338 -0.4886  0.5872
55800SOL    HW174005   6.579   2.528   8.780 -0.1170 -0.8313  1.5838
55800SOL    HW274006   6.713   2.473   8.822  0.8596 -0.0730 -0.4124
55801SOL     OW74007   6.927  11.460  10.222  0.3248  0.3506  0.6883
55801SOL    HW174008   6.964  11.538  10.264 -0.0199  0.7277  0.2978
55801SOL    HW274009   6.942  11.390  10.285  1.5139  0.5357  0.6341
55802SOL     OW74010   5.900   8.599   9.943 -0.2066  0.0079 -0.0363
55802SOL    HW174011   5.827   8.632   9.995 -0.2330 -0.3902  0.1851
55802SOL    HW274012   5.942   8.677   9.907 -2.5986  0.1927 -2.7524
55803SOL     OW74013   5.801  12.658   2.235 -0.5742  0.0501  0.3367
55803SOL    HW174014   5.711  12.670   2.203 -0.2744  1.6261 -0.0072
55803SOL    HW274015   5.824  12.569   2.208 -2.2465 -0.6333  1.0139
55804SOL     OW74016   0.521   8.126   5.988  0.0577 -0.3955 -0.5239
55804SOL    HW174017   0.426   8.121   5.995 -0.1992  3.4891  1.3285
55804SOL    HW274018   0.552   8.122   6.079  1.2883  1.6516 -0.7777
55805SOL     OW74019  12.638   0.514   9.117 -0.1648 -0.0980  0.0493
55805SOL    HW174020  12.619   0.548   9.204  1.4768  1.0259  0.0109
55805SOL    HW274021  12.554   0.514   9.072 -0.5422  2.2371  0.6583
55806SOL     OW74022   9.752   5.357   9.832 -0.2305  0.2863 -0.4321
55806SOL    HW174023   9.794   5.408   9.901  0.2679  0.9002 -1.1673
55806SOL    HW274024   9.659   5.355   9.856 -0.0969  0.6570  0.1430
55807SOL     OW74025   4.030  12.024   3.800  0.5657  0.1084  0.1592
55807SOL    HW174026   3.957  11.990   3.748  1.8590 -0.2402 -1.5392
55807SOL    HW274027   3.997  12.027   3.890 -0.9663 -1.6561 -0.2876
55808SOL     OW74028   7.517   5.968   9.220 -0.2677  0.4013  0.2069
55808SOL    HW174029   7.493   5.925   9.138 -0.3308 -0.9866  0.9216
55808SOL    HW274030   7.604   6.005   9.204 -0.6283  0.8779 -0.7315
55809SOL     OW74031   7.483  10.733   9.432  0.9329 -0.6045  0.2984
55809SOL    HW174032   7.476  10.819   9.474 -2.9256 -1.8078  2.7246
55809SOL    HW274033   7.473  10.750   9.339  0.9359  1.6177  0.6684
55810SOL     OW74034   5.194   9.474  12.169  0.1067  0.6940  0.2303
55810SOL    HW174035   5.179   9.406  12.103  3.3661  0.3718 -0.3326
55810SOL    HW274036   5.153   9.552  12.133 -1.8221 -0.3956 -0.1183
55811SOL     OW74037   0.923   4.541  11.949  0.0717  0.1061  0.5776
55811SOL    HW174038   0.873   4.623  11.940  0.4861  0.1662 -1.6041
55811SOL    HW274039   0.857   4.472  11.950 -0.1782  0.3368  0.1631
55812SOL     OW74040  11.770   5.565  11.533  0.3783  0.7229  0.0374
55812SOL    HW174041  11.677   5.586  11.534  0.0978 -0.4673  0.6291
55812SOL    HW274042  11.810   5.634  11.481 -0.7885  1.4393  0.0729
55813SOL     OW74043   8.492   9.517   6.035 -0.0350  0.0894  0.0778
55813SOL    HW174044   8.521   9.605   6.057  0.1719 -0.3369  1.5842
55813SOL    HW274045   8.572   9.471   6.011  0.1735 -0.2886  1.4456
55814SOL     OW74046   7.609   5.762   2.585 -0.9451 -0.2563  0.6723
55814SOL    HW174047   7.557   5.693   2.544 -0.0813 -1.4652  1.5327
55814SOL    HW274048   7.598   5.748   2.679  0.0188  0.1723  0.8678
55815SOL     OW74049   6.915   7.031   2.388  0.0326 -0.4088  0.1393
55815SOL    HW174050   6.991   7.065   2.341  1.0689  0.3504  2.2226
55815SOL    HW274051   6.925   6.936   2.386  2.3099 -0.3088  2.1837
55816SOL     OW74052   5.899   7.280   2.805  0.1059 -0.0415  0.2320
55816SOL    HW174053   5.961   7.217   2.768 -0.5223 -1.0213  0.8076
55816SOL    HW274054   5.909   7.271   2.900 -1.0818 -0.3995  0.3366
55817SOL     OW74055  10.408  12.442  10.823  0.4259  0.1578 -0.1051
55817SOL    HW174056  10.478  12.507  10.814  2.2383 -1.6700  0.2470
55817SOL    HW274057  10.362  12.444  10.739  2.4965 -0.3439 -1.3159
55818SOL     OW74058  10.789   9.431   6.809  0.2011 -0.2914  0.6595
55818SOL    HW174059  10.782   9.526   6.812 -0.1280 -0.3327  1.1048
55818SOL    HW274060  10.880   9.415   6.783  0.0765  0.1489 -0.0819
55819SOL     OW74061   8.166   6.938   4.779 -0.8767 -0.4485  0.6438
55819SOL    HW174062   8.077   6.905   4.787 -0.8580 -0.3776  1.1623
55819SOL    HW274063   8.218   6.861   4.753 -1.3175 -0.1877 -1.1432
55820SOL     OW74064   2.746  12.035   6.091 -0.5667 -0.2471 -0.1629
55820SOL    HW174065   2.747  11.952   6.139 -1.4107  0.5138  1.2251
55820SOL    HW274066   2.838  12.054   6.075 -0.1135  0.2053  2.5238
55821SOL     OW74067   3.807  11.775   0.087  0.6208  0.4548  0.2140
55821SOL    HW174068   3.745  11.713   0.049  2.5520 -1.8915  0.6541
55821SOL    HW274069   3.868  11.794   0.016  1.3689 -0.0094  0.7161
55822SOL     OW74070   4.926   9.906   9.078  0.1849 -0.5214  0.5286
55822SOL    HW174071   4.897   9.996   9.061  1.0264 -0.3385  0.0003
55822SOL    HW274072   4.907   9.858   8.997  1.6948 -0.2900 -0.0113
55823SOL     OW74073   2.080   0.560   0.361 -0.2502  0.2270 -0.0979
55823SOL    HW174074   2.114   0.623   0.425  0.8255  1.0892 -1.4639
55823SOL    HW274075   2.157   0.508   0.336 -0.8328 -0.6686 -0.0945
55824SOL     OW74076  11.689   2.252  12.321 -0.3879 -0.5255  0.6866
55824SOL    HW174077  11.616   2.225  12.265  0.8116 -1.7758 -0.3509
55824SOL    HW274078  11.688   2.189  12.393  0.4672 -1.4208 -0.0544
55825SOL     OW74079   5.812  10.547   4.265  0.3274 -0.0601 -0.2538
55825SOL    HW174080   5.724  10.556   4.228  0.4521  0.0349 -0.5297
55825SOL    HW274081   5.817  10.455   4.292  0.2710 -0.1564 -0.5685
55826SOL     OW74082  10.768   9.121   4.794 -0.3914 -0.0424  0.0020
55826SOL    HW174083  10.711   9.193   4.767 -0.7370 -0.6322 -0.9098
55826SOL    HW274084  10.781   9.070   4.714  1.4826  0.1108  0.1723
55827SOL     OW74085   0.914  12.750  12.552 -0.4417  0.2678  0.2019
55827SOL    HW174086   0.896  12.764  12.645 -2.2051 -1.6600  0.2343
55827SOL    HW274087   0.943  12.659  12.547  1.3986  0.8847 -0.9519
55828SOL     OW74088   4.361   6.002   4.540  0.3330  0.1987 -0.3080
55828SOL    HW174089   4.453   6.023   4.520  0.3902 -0.0734 -0.3349
55828SOL    HW274090   4.337   6.063   4.609  0.3832  0.6066 -0.6456
55829SOL     OW74091  10.392   9.941   7.172  0.5582  0.0764 -0.2394
55829SOL    HW174092  10.364   9.978   7.255  0.1759 -0.2044 -0.2392
55829SOL    HW274093  10.313   9.899   7.136  0.9214 -0.5265 -0.3466
55830SOL     OW74094  12.310   6.508   0.121  0.5719 -0.5037 -0.3136
55830SOL    HW174095  12.235   6.451   0.134  1.0526 -1.4964 -1.7723
55830SOL    HW274096  12.320   6.516   0.026  0.4805  2.0835 -0.1977
55831SOL     OW74097   4.258   2.907   5.046  0.0316 -0.3295 -0.1901
55831SOL    HW174098   4.287   2.833   4.993  2.2024  0.4590 -0.1679
55831SOL    HW274099   4.191   2.869   5.104 -2.7899 -1.1265 -3.6214
55832SOL     OW74100   6.663   6.946   0.562  0.7822  0.2406 -0.0265
55832SOL    HW174101   6.631   7.027   0.522  1.6734 -0.2418 -1.8288
55832SOL    HW274102   6.758   6.958   0.567  0.7017  0.3663  2.2644
55833SOL     OW74103   9.966  11.849  11.362 -0.0345  0.0427 -0.1260
55833SOL    HW174104  10.057  11.866  11.338 -0.3696  1.0775 -0.7297
55833SOL    HW274105   9.971  11.786  11.434  1.1683  0.4547  0.1687
55834SOL     OW74106   7.263   1.443   5.569  0.0281 -0.4086  0.2627
55834SOL    HW174107   7.304   1.438   5.483  2.1805  0.0464  1.2030
55834SOL    HW274108   7.333   1.422   5.631 -1.4857 -0.8491  1.9107
55835SOL     OW74109   7.052  12.703   9.371 -0.2943 -0.0827 -0.2545
55835SOL    HW174110   7.021  12.638   9.307  0.3190 -2.4049  1.6704
55835SOL    HW274111   6.972  12.741   9.408 -0.7812 -1.8133  0.5589
55836SOL     OW74112   7.912   9.965   3.540  0.0382 -0.2000 -0.0598
55836SOL    HW174113   7.863  10.040   3.508  0.7951  0.5123  0.3958
55836SOL    HW274114   8.001   9.978   3.506 -0.0339 -1.3998 -0.7813
55837SOL     OW74115   8.002   5.200  10.602  0.2170  0.4975 -0.2735
55837SOL    HW174116   7.932   5.154  10.556 -0.3180  0.6463  0.3811
55837SOL    HW274117   8.059   5.233  10.532 -0.7198  0.9393 -0.8512
55838SOL     OW74118   9.220   9.162   4.566  0.5446 -0.1995 -0.6467
55838SOL    HW174119   9.299   9.154   4.620  0.6276  0.3320 -0.6809
55838SOL    HW274120   9.251   9.151   4.476  0.4003 -1.1313 -0.5884
55839SOL     OW74121   1.487  10.247   9.503 -0.0240 -0.5580 -0.1331
55839SOL    HW174122   1.540  10.321   9.475  0.4328 -1.3124 -1.3478
55839SOL    HW274123   1.545  10.196   9.560 -0.2282 -0.1886  0.4234
55840SOL     OW74124   9.365   8.452  10.169  0.3026  0.3949 -0.4322
55840SOL    HW174125   9.314   8.422  10.244 -0.4941  1.2831 -0.5928
55840SOL    HW274126   9.391   8.541  10.192  3.0957 -0.5099  0.2855
55841SOL     OW74127   4.115   3.361  12.766  0.0699 -0.5072  0.2489
55841SOL    HW174128   4.122   3.278  12.813  0.4274 -1.6891 -1.7344
55841SOL    HW274129   4.035   3.401  12.798 -0.6403 -2.1051  0.5763
55842SOL     OW74130   3.638  12.446   5.709  0.4066  0.3608  0.0827
55842SOL    HW174131   3.554  12.471   5.746 -0.0500  0.2386 -0.8380
55842SOL    HW274132   3.617  12.379   5.644  1.1994  0.3985 -0.2271
55843SOL     OW74133   6.299   1.283   9.838  0.4100  0.1376  0.2179
55843SOL    HW174134   6.215   1.277   9.793  0.6679 -2.4006 -0.0893
55843SOL    HW274135   6.328   1.373   9.824 -1.3121  0.5011 -1.3745
55844SOL     OW74136  10.727   1.575  11.761 -0.0675  0.5391 -0.7365
55844SOL    HW174137  10.773   1.656  11.782 -1.1866  0.9818  0.0788
55844SOL    HW274138  10.662   1.599  11.696 -0.7500  0.4152 -0.1154
55845SOL     OW74139  12.472   6.814   6.635  0.5975 -0.2957 -0.4672
55845SOL    HW174140  12.522   6.860   6.568  1.4442  0.6419  0.7769
55845SOL    HW274141  12.453   6.728   6.596  0.5554  0.4190 -2.1157
55846SOL     OW74142   9.233   6.491   1.251 -0.3338 -0.4578 -0.6972
55846SOL    HW174143   9.226   6.515   1.159 -1.3468  0.7829 -0.3224
55846SOL    HW274144   9.325   6.468   1.263 -0.5302 -2.4747 -2.4230
55847SOL     OW74145   5.593   3.309   3.924 -0.0104  0.3089  0.1665
55847SOL    HW174146   5.562   3.334   4.011  0.5649  1.3293  0.0882
55847SOL    HW274147   5.568   3.382   3.867  1.0865  0.4094 -0.2057
55848SOL     OW74148   6.143   1.967  11.388  0.4464  0.3243 -0.4027
55848SOL    HW174149   6.208   1.925  11.446 -0.7585 -0.4484  0.4272
55848SOL    HW274150   6.078   1.899  11.372 -0.1718  1.0942 -1.2344
55849SOL     OW74151   2.612   1.679   9.990  0.3200 -0.7529 -0.6500
55849SOL    HW174152   2.570   1.593   9.982 -1.2521 -0.2876  1.5930
55849SOL    HW274153   2.566   1.734   9.927 -3.1042 -0.1279  2.0664
55850SOL     OW74154   0.642   7.300   5.584 -0.2328 -0.1699  0.4149
55850SOL    HW174155   0.677   7.271   5.500 -1.9869 -0.0052 -0.4144
55850SOL    HW274156   0.548   7.310   5.569 -0.5062  0.4196  2.2466
55851SOL     OW74157   7.818   9.506   2.286  0.2024  0.4813  0.4243
55851SOL    HW174158   7.795   9.582   2.340 -0.1352 -0.3349  1.4536
55851SOL    HW274159   7.757   9.438   2.313 -0.1813  0.1256 -1.2216
55852SOL     OW74160   7.062   9.675   9.831  0.3011  0.5848  0.0867
55852SOL    HW174161   7.054   9.581   9.816 -0.4141  0.3597  1.6632
55852SOL    HW274162   7.113   9.707   9.757  0.2706 -0.9850 -0.6545
55853SOL     OW74163   0.010   0.341   3.498 -0.3204 -0.0933  0.3831
55853SOL    HW174164  -0.025   0.420   3.538  0.8740  0.7920 -0.2402
55853SOL    HW274165   0.052   0.294   3.569 -1.3518 -0.3762  0.8288
55854SOL     OW74166   2.984   4.326   7.397 -0.5348  0.1724 -0.3738
55854SOL    HW174167   3.077   4.329   7.419 -0.7648 -0.1375  0.7133
55854SOL    HW274168   2.981   4.282   7.312  0.2165 -1.0376  0.2027
55855SOL     OW74169  12.311   6.368  11.530 -0.0712  0.2110  0.8645
55855SOL    HW174170  12.242   6.303  11.520 -0.9072  0.7476  2.6947
55855SOL    HW274171  12.384   6.333  11.479 -0.6348 -1.9450  1.4092
55856SOL     OW74172   8.262  11.315   5.883  0.1467  0.1325  0.0657
55856SOL    HW174173   8.226  11.292   5.968  1.6383  0.8610  0.9449
55856SOL    HW274174   8.301  11.233   5.851 -0.3085 -0.1129  0.1292
55857SOL     OW74175   1.313   3.823   1.906 -0.2006  0.7964 -0.0507
55857SOL    HW174176   1.364   3.790   1.832  0.4330  2.7557 -0.5236
55857SOL    HW274177   1.224   3.792   1.889  0.5263 -1.7160  0.2151
55858SOL     OW74178  10.957  11.984   0.549 -0.6505 -0.5610 -0.6509
55858SOL    HW174179  10.896  12.050   0.580 -1.5194 -0.8919 -1.5797
55858SOL    HW274180  10.901  11.917   0.508  0.2187 -1.7378  0.0224
55859SOL     OW74181   4.289   2.509   7.158 -0.2586 -0.1979  0.4359
55859SOL    HW174182   4.223   2.486   7.224  0.2367 -0.5349  0.8242
55859SOL    HW274183   4.289   2.435   7.097 -1.4028  0.5499 -0.5046
55860SOL     OW74184   4.416   0.039   4.958  0.3935 -0.3040  0.6803
55860SOL    HW174185   4.333   0.001   4.929  1.3467 -1.0341 -1.2583
55860SOL    HW274186   4.394   0.129   4.983 -1.0107 -0.5589  0.4621
55861SOL     OW74187   0.037   0.626   2.278 -0.3316  0.2296 -0.0878
55861SOL    HW174188   0.020   0.662   2.365  1.5465  0.6310  0.1709
55861SOL    HW274189   0.019   0.532   2.286  1.9330 -0.1586  1.4362
55862SOL     OW74190   9.314  12.760   2.888 -0.2807  0.5242  0.6166
55862SOL    HW174191   9.268  12.821   2.831 -0.5310  0.2770  0.5472
55862SOL    HW274192   9.372  12.711   2.829  2.0173  2.5475  1.0344
55863SOL     OW74193   4.463  12.697   0.252 -0.3667 -0.1245 -0.4954
55863SOL    HW174194   4.528  12.719   0.186 -0.2260 -1.2928 -0.7730
55863SOL    HW274195   4.507  12.635   0.310 -0.1813  1.6020  1.2840
55864SOL     OW74196   9.984  10.595   1.975  0.2205 -0.1771  0.8390
55864SOL    HW174197  10.047  10.554   1.916  1.1170  0.0551  1.6058
55864SOL    HW274198   9.899  10.567   1.942  0.7091 -0.3977 -0.2962
55865SOL     OW74199   1.152   4.905  10.600 -0.1369 -0.1041  0.3400
55865SOL    HW174200   1.075   4.919  10.655 -1.2001 -1.4668 -0.7294
55865SOL    HW274201   1.140   4.818  10.562  0.2674  0.9276 -2.4328
55866SOL     OW74202   4.873  12.414  10.629  0.1657 -0.1040 -0.2473
55866SOL    HW174203   4.792  12.372  10.658 -0.1475  0.5313 -0.1912
55866SOL    HW274204   4.939  12.385  10.692 -0.3802  0.7879  0.7622
55867SOL     OW74205   4.219  10.035  12.784  0.3716 -0.2702  0.1204
55867SOL    HW174206   4.195   9.970  12.849  1.5553 -1.6530 -0.7484
55867SOL    HW274207   4.234  10.115  12.834  0.1215 -0.9920  1.3881
55868SOL     OW74208   3.143   3.379   5.406  0.1561 -0.0533 -0.4868
55868SOL    HW174209   3.205   3.440   5.367  0.2410  1.0680  1.2716
55868SOL    HW274210   3.076   3.366   5.339  1.2991  0.1846 -1.7200
55869SOL     OW74211   8.157  10.460   1.483 -0.2344  0.1605 -0.1541
55869SOL    HW174212   8.071  10.503   1.489 -1.1896 -1.2320 -2.4506
55869SOL    HW274213   8.154  10.390   1.548 -0.7469  0.2512 -0.0755
55870SOL     OW74214   6.881   0.821  10.771 -0.2469  0.6527 -0.5301
55870SOL    HW174215   6.951   0.834  10.835 -0.7391 -0.5730  0.2767
55870SOL    HW274216   6.844   0.908  10.758 -0.6914  0.8024  1.4857
55871SOL     OW74217   1.206   2.596   0.860  0.1682 -0.2448  0.1908
55871SOL    HW174218   1.129   2.613   0.913 -1.1798 -0.9315 -1.4559
55871SOL    HW274219   1.193   2.647   0.781  3.1583  2.4793  1.2337
55872SOL     OW74220  12.750  10.077  10.979  0.0542  0.8516  0.0284
55872SOL    HW174221  12.846  10.076  10.973 -0.0149 -0.7252 -1.8108
55872SOL    HW274222  12.729  10.015  11.048  0.3505  1.2310  0.4644
55873SOL     OW74223   3.652   7.739  10.886 -0.1976  0.3532  0.5971
55873SOL    HW174224   3.710   7.783  10.824 -1.8704  1.5097 -0.1976
55873SOL    HW274225   3.581   7.801  10.901 -2.0155 -1.5681  0.4017
55874SOL     OW74226   8.139  10.750  11.174  0.0901 -0.0790  0.6613
55874SOL    HW174227   8.122  10.674  11.229 -0.4396  0.3795  1.1333
55874SOL    HW274228   8.067  10.810  11.192  1.2110  1.1272  1.3282
55875SOL     OW74229   7.186  12.258   5.242 -0.1430  0.3306  0.4797
55875SOL    HW174230   7.265  12.296   5.280 -0.1114  2.1022 -1.1608
55875SOL    HW274231   7.122  12.329   5.244 -0.1123  0.5925 -2.6501
55876SOL     OW74232   7.476   1.269   9.137 -0.4002 -0.2025  0.3693
55876SOL    HW174233   7.520   1.222   9.066  1.0017 -1.6196  2.0863
55876SOL    HW274234   7.518   1.355   9.139  1.8895 -1.2466  1.4426
55877SOL     OW74235   0.547   8.771  11.175  0.0207  0.0403  0.7617
55877SOL    HW174236   0.629   8.803  11.137 -0.4599  1.7016  1.0088
55877SOL    HW274237   0.508   8.849  11.216 -1.6479 -0.7118  0.6909
55878SOL     OW74238   6.640   6.447   3.321  0.4371 -0.1121 -0.3246
55878SOL    HW174239   6.584   6.397   3.381  0.9810 -0.1181  0.1878
55878SOL    HW274240   6.580   6.476   3.252 -0.2687  0.1379  0.3676
55879SOL     OW74241   1.528   9.002   4.864 -0.3211 -0.0101 -0.4332
55879SOL    HW174242   1.439   9.038   4.866 -0.4956 -0.4620  0.1209
55879SOL    HW274243   1.517   8.909   4.845 -0.0136 -0.1876  0.2134
55880SOL     OW74244   1.024   2.263   5.777  0.3134 -0.0864  0.2788
55880SOL    HW174245   1.050   2.305   5.695 -0.0447 -2.5078 -1.1732
55880SOL    HW274246   0.949   2.315   5.808  0.1074  0.5615 -1.2183
55881SOL     OW74247   1.226   7.031  10.782 -0.4498 -0.3399 -0.0496
55881SOL    HW174248   1.151   6.971  10.782  0.7494 -1.9023 -0.1969
55881SOL    HW274249   1.258   7.028  10.692 -0.1895  0.3171  0.0159
55882SOL     OW74250   3.983   9.849   0.834 -0.2756  0.5182  0.1883
55882SOL    HW174251   3.904   9.835   0.887 -1.1774  0.3468 -1.1393
55882SOL    HW274252   3.978   9.941   0.808 -2.0703 -0.3109 -2.9042
55883SOL     OW74253   1.865  11.296   2.148  0.1638  1.0021 -0.2529
55883SOL    HW174254   1.865  11.272   2.241  0.5721 -0.7078 -0.6659
55883SOL    HW274255   1.776  11.275   2.118  0.1425  1.2095 -0.3388
55884SOL     OW74256  12.066  10.207   4.322 -0.2039  0.6959  0.8803
55884SOL    HW174257  12.154  10.190   4.355 -0.2425 -1.6719  0.0116
55884SOL    HW274258  12.016  10.129   4.347 -2.5732  2.6603  2.8190
55885SOL     OW74259   7.133   4.525   5.002  0.5138 -0.3107  0.0957
55885SOL    HW174260   7.042   4.553   5.015  0.4876 -0.6429  0.6945
55885SOL    HW274261   7.132   4.477   4.919 -0.2480 -1.8771  0.9673
55886SOL     OW74262   1.398  12.048   7.804  0.1620  0.3584  0.0783
55886SOL    HW174263   1.401  12.105   7.727 -0.3365  0.8401  0.4115
55886SOL    HW274264   1.423  12.105   7.877 -0.7205  0.2565  0.4731
55887SOL     OW74265   6.603  10.221   3.683  0.0999 -0.6066  0.7067
55887SOL    HW174266   6.551  10.151   3.722 -0.8568 -0.1516  0.2639
55887SOL    HW274267   6.569  10.302   3.722 -1.8106  0.0029 -1.9766
55888SOL     OW74268  11.649  10.697   9.456 -0.4739 -0.2174  0.2345
55888SOL    HW174269  11.663  10.713   9.549 -0.1945 -1.4978  0.4437
55888SOL    HW274270  11.709  10.757   9.412 -0.6203  0.4125  0.8794
55889SOL     OW74271   8.409  10.816   5.619  0.0382 -0.6026  0.3890
55889SOL    HW174272   8.455  10.850   5.542 -0.1310  0.5064  0.7581
55889SOL    HW274273   8.319  10.803   5.589  0.5377 -2.8419 -0.3537
55890SOL     OW74274   5.067   9.912   0.901 -0.3107  0.5748  0.5043
55890SOL    HW174275   5.064   9.869   0.986 -0.7460  2.1985  1.3529
55890SOL    HW274276   4.983   9.958   0.894  0.3781  1.7789 -0.0843
55891SOL     OW74277   1.225  11.553   1.087 -0.1721 -0.2611 -0.0069
55891SOL    HW174278   1.205  11.608   1.011 -0.3805  0.3643  0.4914
55891SOL    HW274279   1.320  11.547   1.088 -0.0944  0.7631  0.3848
55892SOL     OW74280  10.394  12.442   6.200 -0.0805  0.1914 -0.1723
55892SOL    HW174281  10.423  12.436   6.109 -0.4321 -0.9207 -0.2297
55892SOL    HW274282  10.367  12.353   6.223  1.2529  0.1475  1.4526
55893SOL     OW74283   4.940   7.866  12.471 -0.1936 -0.2545 -0.6783
55893SOL    HW174284   4.906   7.777  12.460 -1.7609  0.3891 -1.2534
55893SOL    HW274285   5.023   7.853  12.517 -0.6124 -1.9814 -0.3004
55894SOL     OW74286   0.964   3.781   9.576  0.4449 -0.1891 -0.0133
55894SOL    HW174287   0.945   3.768   9.669  0.8507 -1.7214 -0.1281
55894SOL    HW274288   0.906   3.852   9.549 -0.6327 -0.6263  1.0931
55895SOL     OW74289   4.198   0.362  11.454  0.5570 -0.0576  0.4701
55895SOL    HW174290   4.233   0.436  11.503  1.0195  0.4302 -0.5623
55895SOL    HW274291   4.119   0.397  11.411 -0.1795 -0.6392  1.3009
55896SOL     OW74292   0.332   1.996   3.886 -0.1465 -0.1610  0.7149
55896SOL    HW174293   0.397   1.976   3.819 -0.3392 -0.0893  0.5067
55896SOL    HW274294   0.381   2.048   3.951 -0.2822  1.0024 -0.0677
55897SOL     OW74295  10.570  11.086   2.173  0.1792  0.1838 -0.1575
55897SOL    HW174296  10.591  10.996   2.198  0.7240  0.0191 -1.1470
55897SOL    HW274297  10.619  11.140   2.236 -0.4714 -0.1987  0.6897
55898SOL     OW74298   3.943   0.050   9.802 -0.3227 -0.2373 -0.3537
55898SOL    HW174299   4.001  -0.025   9.797  2.3832  1.6612  0.3930
55898SOL    HW274300   3.958   0.087   9.889 -3.2643 -0.0376  0.1845
55899SOL     OW74301   3.710   3.215   7.924  0.5432  0.8120  0.2684
55899SOL    HW174302   3.627   3.232   7.968  0.7399  0.9573  0.5904
55899SOL    HW274303   3.726   3.122   7.939  0.3397  0.7397  0.0337
55900SOL     OW74304  11.652   2.864   1.881  0.2074  0.1150 -0.0947
55900SOL    HW174305  11.589   2.817   1.935  0.6444 -1.0888 -0.6015
55900SOL    HW274306  11.703   2.916   1.944  1.0592 -1.6562  0.7603
55901SOL     OW74307  10.351   7.491   6.683 -0.7758  0.1848  0.0833
55901SOL    HW174308  10.336   7.568   6.629 -0.5033  0.9662  1.0732
55901SOL    HW274309  10.346   7.417   6.623 -0.3145  1.0304 -1.0273
55902SOL     OW74310   4.061   6.313   6.276 -0.3092  0.1250 -1.1602
55902SOL    HW174311   3.997   6.348   6.213 -1.2682 -1.4656 -1.1158
55902SOL    HW274312   4.008   6.282   6.349  0.6444  0.0949 -0.4696
55903SOL     OW74313   7.080   9.948   0.329  0.0997  0.2495  0.2200
55903SOL    HW174314   7.157   9.903   0.293  0.3240  0.2513  0.6980
55903SOL    HW274315   7.102   9.963   0.421 -0.4570  0.2857  0.3458
55904SOL     OW74316   0.387   7.132   0.634  0.1960 -0.1833  0.0918
55904SOL    HW174317   0.482   7.137   0.643  0.1013  0.3923  0.9032
55904SOL    HW274318   0.354   7.146   0.723 -0.6279 -1.0746 -0.0620
55905SOL     OW74319   8.015   2.232   0.170  0.4745  0.4707 -0.0692
55905SOL    HW174320   8.067   2.312   0.163  1.4337 -0.2586 -2.5135
55905SOL    HW274321   8.057   2.183   0.240  1.0658  1.2847  0.1686
55906SOL     OW74322  12.599   4.699  12.530  0.0578  0.2746 -0.2426
55906SOL    HW174323  12.626   4.610  12.504  0.1232  0.3622 -0.4818
55906SOL    HW274324  12.580   4.743  12.447  2.3817  1.2503 -0.3236
55907SOL     OW74325   0.279   1.197   2.497  0.3992 -0.1277  0.0957
55907SOL    HW174326   0.334   1.169   2.570  2.1682  0.8645 -0.7794
55907SOL    HW274327   0.340   1.206   2.423 -1.6179 -3.5021 -2.2799
55908SOL     OW74328   2.003  12.368   3.324  0.4250  0.5332 -0.0173
55908SOL    HW174329   2.096  12.379   3.342  0.3557 -1.2356  1.7956
55908SOL    HW274330   1.959  12.432   3.379  0.5489  1.9568 -1.5072
55909SOL     OW74331   3.407   7.707   6.583 -0.1477  0.0064 -0.1638
55909SOL    HW174332   3.474   7.735   6.645 -1.1944  3.8843 -0.5442
55909SOL    HW274333   3.363   7.634   6.627  1.2973  0.4016  2.1139
55910SOL     OW74334   6.533   0.800   7.999  0.1998 -0.4050  0.7112
55910SOL    HW174335   6.514   0.708   8.018 -1.3642 -0.1641  0.4114
55910SOL    HW274336   6.477   0.849   8.060 -2.3027  0.3532 -1.9779
55911SOL     OW74337   3.450   4.533   8.063  0.0809  0.3215  0.0720
55911SOL    HW174338   3.361   4.561   8.040 -0.5865  0.8249  2.9371
55911SOL    HW274339   3.506   4.590   8.011 -1.2215  0.0009 -1.8050
55912SOL     OW74340   3.451   0.028   2.597 -0.1404 -0.1430  0.5042
55912SOL    HW174341   3.490  -0.014   2.674 -0.0120 -1.0713 -0.0512
55912SOL    HW274342   3.358   0.035   2.617  0.0366  0.5140  1.1359
55913SOL     OW74343   4.428   6.679   6.916 -0.3528  0.9167  0.8170
55913SOL    HW174344   4.365   6.704   6.849 -0.8612 -0.1977  0.8555
55913SOL    HW274345   4.435   6.584   6.908  0.5391  0.9108  1.5066
55914SOL     OW74346   2.927   1.677  12.737 -0.5115  0.1672 -0.5088
55914SOL    HW174347   2.978   1.756  12.719 -0.4632  0.0063 -1.0951
55914SOL    HW274348   2.843   1.693  12.693 -1.1326  0.6063  0.7817
55915SOL     OW74349  11.773   8.867  12.612 -0.1261 -0.0196 -0.2147
55915SOL    HW174350  11.765   8.865  12.517  0.2754  0.5925 -0.2659
55915SOL    HW274351  11.773   8.960  12.634 -1.0954 -0.1718  0.4631
55916SOL     OW74352  11.314   4.479   8.811  0.5454 -0.6852 -0.1058
55916SOL    HW174353  11.393   4.509   8.856  0.7476 -1.1867 -0.1248
55916SOL    HW274354  11.341   4.465   8.721  0.3405 -0.4867 -0.1992
55917SOL     OW74355   9.436   8.920   1.389  0.1580 -0.0919  0.5957
55917SOL    HW174356   9.347   8.885   1.384 -0.4160  1.3969 -0.2871
55917SOL    HW274357   9.481   8.881   1.315  0.4632 -1.3253  1.3871
55918SOL     OW74358   8.376   9.399   7.053  0.0926  0.0313 -0.1722
55918SOL    HW174359   8.353   9.491   7.045 -0.9802 -0.2627 -0.6822
55918SOL    HW274360   8.470   9.396   7.040  0.4571  1.2817  1.7529
55919SOL     OW74361   6.992   0.900  11.518  0.2260  0.0273  0.4256
55919SOL    HW174362   6.928   0.854  11.572 -1.3384  2.2708  0.6395
55919SOL    HW274363   7.026   0.834  11.459 -3.6652 -0.9993 -0.9745
55920SOL     OW74364   6.411   9.872   6.943 -0.3800  0.2670  0.0523
55920SOL    HW174365   6.320   9.840   6.942  0.2569 -1.8314  1.6172
55920SOL    HW274366   6.406   9.958   6.902 -2.9735 -0.0428 -0.4956
55921SOL     OW74367   1.768   9.301   4.444 -0.2311  0.7363  0.3824
55921SOL    HW174368   1.742   9.391   4.424 -0.0409  0.9078  0.8938
55921SOL    HW274369   1.689   9.262   4.481 -1.5391 -0.4574 -3.2197
55922SOL     OW74370   5.528   9.714   4.958 -0.7434  0.5689 -0.2466
55922SOL    HW174371   5.538   9.635   5.011  0.1655 -0.0765 -1.3409
55922SOL    HW274372   5.607   9.765   4.976  0.0136 -0.0687 -1.6174
55923SOL     OW74373   2.589   9.093   3.231  0.1377 -0.0052 -0.3132
55923SOL    HW174374   2.514   9.049   3.273  0.3921  0.9621  1.2405
55923SOL    HW274375   2.576   9.186   3.250  0.9744  0.3277 -1.2955
55924SOL     OW74376   7.849   7.193   8.363  0.1361 -0.3363  0.0193
55924SOL    HW174377   7.929   7.241   8.385 -0.6519  0.0465  2.3721
55924SOL    HW274378   7.778   7.253   8.385 -0.8329 -1.5858  0.4239
55925SOL     OW74379   7.613  11.232   7.104 -0.4372 -0.5290  0.1485
55925SOL    HW174380   7.571  11.216   7.019  1.2394 -0.4195 -0.7293
55925SOL    HW274381   7.610  11.147   7.148 -1.4810 -0.5441  0.0841
55926SOL     OW74382  10.881  10.624   4.649  0.2373 -0.0124 -0.6743
55926SOL    HW174383  10.896  10.719   4.649  0.7431 -0.0311  1.4569
55926SOL    HW274384  10.883  10.600   4.557 -1.0394  2.1995 -1.3746
55927SOL     OW74385   1.164   7.741   9.645  0.5666  0.5316 -0.0502
55927SOL    HW174386   1.085   7.770   9.691 -1.5629 -0.1739 -2.9435
55927SOL    HW274387   1.209   7.684   9.707 -2.7511 -1.4037  0.8132
55928SOL     OW74388  12.590   5.088   9.972  0.2880  0.1592  0.8045
55928SOL    HW174389  12.551   5.052  10.052 -1.4537  2.3261  0.9965
55928SOL    HW274390  12.571   5.181   9.976  1.0294  0.4742 -1.6976
55929SOL     OW74391   4.474   4.082   0.536  0.3171  0.4333  0.9581
55929SOL    HW174392   4.430   4.041   0.461  0.7629 -0.3498  1.1113
55929SOL    HW274393   4.427   4.164   0.550  1.5403  1.6732 -1.5334
55930SOL     OW74394   7.515   7.520   6.434 -0.2778  0.2606  0.4011
55930SOL    HW174395   7.462   7.573   6.374 -1.9719 -1.3077  0.4241
55930SOL    HW274396   7.554   7.584   6.494  0.1872  1.7178 -1.3614
55931SOL     OW74397   5.979   5.680   8.486  0.0400 -0.2179  0.2193
55931SOL    HW174398   5.927   5.602   8.468 -2.0984  1.1027  0.3402
55931SOL    HW274399   5.937   5.749   8.435  0.6817  1.2530  1.6046
55932SOL     OW74400   6.009  11.113   1.991 -0.6638 -0.1621  0.6515
55932SOL    HW174401   5.927  11.063   1.995 -1.5206  1.0082 -1.2372
55932SOL    HW274402   6.036  11.110   1.899 -0.7800  2.8075  0.4150
55933SOL     OW74403   5.655  11.985  10.259  0.6345 -0.0957  0.0565
55933SOL    HW174404   5.645  11.909  10.317 -0.4460 -1.2570 -1.5706
55933SOL    HW274405   5.719  11.957  10.194  2.0569  1.3015  0.7866
55934SOL     OW74406   6.564   4.888  12.354  0.2794  0.4789  0.4461
55934SOL    HW174407   6.498   4.899  12.286  0.8948  5.2541  0.2733
55934SOL    HW274408   6.519   4.912  12.436  1.2699  1.9854  0.5822
55935SOL     OW74409   6.404   0.061   0.601 -0.4219 -0.0120 -0.3842
55935SOL    HW174410   6.436   0.107   0.679 -0.3067 -2.2543  0.9828
55935SOL    HW274411   6.480   0.059   0.542 -0.0603  0.4091  0.0577
55936SOL     OW74412   4.998  11.435   1.986 -0.0352  0.0252  0.0518
55936SOL    HW174413   5.043  11.381   1.922 -0.3037  0.7568 -0.7846
55936SOL    HW274414   4.986  11.519   1.942  0.1776  0.6998  1.2343
55937SOL     OW74415  10.640   0.230   4.293 -0.2222 -0.2306  0.0073
55937SOL    HW174416  10.582   0.294   4.251  1.2457  0.5892 -0.8577
55937SOL    HW274417  10.682   0.279   4.364 -1.5522 -1.1952  1.5303
55938SOL     OW74418   4.093   8.318  10.107 -0.1300 -0.0247  0.0341
55938SOL    HW174419   4.186   8.333  10.123 -0.3443  1.6540 -0.1033
55938SOL    HW274420   4.073   8.239  10.156  1.1926  0.0386  0.7310
55939SOL     OW74421   5.561   7.278   7.187 -0.5005 -0.6434 -0.2322
55939SOL    HW174422   5.637   7.276   7.129  0.0581 -1.2646  0.4935
55939SOL    HW274423   5.491   7.235   7.137 -0.4706  0.2178 -1.0216
55940SOL     OW74424   3.797   3.503  10.893 -0.4059 -0.1417  1.0033
55940SOL    HW174425   3.786   3.411  10.919 -2.2283  0.3538  2.2004
55940SOL    HW274426   3.825   3.547  10.974 -0.3115  0.4812  0.6367
55941SOL     OW74427   6.820   6.198  10.837  0.1630  0.1513 -0.6064
55941SOL    HW174428   6.764   6.150  10.776 -0.8744 -0.3533  0.6928
55941SOL    HW274429   6.777   6.283  10.847 -2.0475 -1.1760  2.5000
55942SOL     OW74430   2.689   4.403  12.413  0.3755 -0.3990 -0.1273
55942SOL    HW174431   2.687   4.367  12.501 -0.3702  0.7691  0.3560
55942SOL    HW274432   2.745   4.343  12.363  2.1281 -0.2059  1.5162
55943SOL     OW74433  11.775   4.919   1.070 -0.1293 -0.1403  0.0302
55943SOL    HW174434  11.821   4.842   1.036 -1.8394 -1.6218  0.8921
55943SOL    HW274435  11.819   4.938   1.153 -0.5974 -1.0983  0.5080
55944SOL     OW74436   8.038   5.568   3.669 -0.5035 -0.0140 -0.0872
55944SOL    HW174437   7.982   5.587   3.594  0.3831 -0.9410 -1.0135
55944SOL    HW274438   8.005   5.486   3.706 -1.6998  1.0438  1.3307
55945SOL     OW74439   9.606   9.812   0.590  0.1005  0.0108  0.7272
55945SOL    HW174440   9.617   9.769   0.506 -1.5408  0.9378 -0.0130
55945SOL    HW274441   9.597   9.905   0.569  1.1312  0.4528  2.0665
55946SOL     OW74442   9.899   0.235   0.586 -0.1687 -0.2648  0.6581
55946SOL    HW174443   9.832   0.213   0.521  0.2977 -1.7376  0.6423
55946SOL    HW274444   9.974   0.266   0.535 -0.2400 -0.2237  0.5786
55947SOL     OW74445  10.340   2.829   9.484 -0.0988 -0.9288  0.3259
55947SOL    HW174446  10.297   2.890   9.544 -0.8279 -0.5090 -0.6000
55947SOL    HW274447  10.432   2.830   9.512  0.3560  2.1519 -0.8437
55948SOL     OW74448   3.781   5.394   5.440  0.0687 -0.1697 -0.1687
55948SOL    HW174449   3.768   5.489   5.448  3.0063  0.4184 -1.2888
55948SOL    HW274450   3.796   5.364   5.530  1.1236  0.7870 -0.0085
55949SOL     OW74451   8.441   9.432   0.492 -0.3057  0.0654 -0.3206
55949SOL    HW174452   8.440   9.377   0.570  1.3956 -1.0253 -1.0142
55949SOL    HW274453   8.349   9.455   0.478 -0.7711 -0.6203  1.3522
55950SOL     OW74454   1.489  12.341   2.601  0.2977  0.5936 -0.2009
55950SOL    HW174455   1.500  12.324   2.695 -1.6995  0.2267  0.0083
55950SOL    HW274456   1.558  12.289   2.559  1.1280  0.6591  1.0462
55951SOL     OW74457   5.712   8.907   2.847 -0.1354  0.2106  0.1483
55951SOL    HW174458   5.678   8.996   2.852 -0.9381 -0.1269  0.9260
55951SOL    HW274459   5.682   8.865   2.927 -1.9267 -1.4920 -1.3301
55952SOL     OW74460   5.565   7.732   7.674  0.2994 -0.5321  0.0436
55952SOL    HW174461   5.502   7.791   7.633  0.7738 -0.3030 -0.3691
55952SOL    HW274462   5.634   7.721   7.608  1.1741  0.0000  0.8374
55953SOL     OW74463   1.587   0.919  12.260  0.2390  0.7187  0.2299
55953SOL    HW174464   1.582   0.980  12.187 -0.0757 -0.2476 -0.5685
55953SOL    HW274465   1.670   0.874  12.249 -0.9024 -1.2031 -1.0006
55954SOL     OW74466   1.323   8.200   0.100 -0.3520 -0.0389  0.2598
55954SOL    HW174467   1.346   8.107   0.100 -0.8157 -0.1748 -1.1821
55954SOL    HW274468   1.393   8.242   0.049 -0.3824  0.3350  0.5253
55955SOL     OW74469  11.542   3.465   0.601 -0.3086 -0.5203 -0.5856
55955SOL    HW174470  11.472   3.499   0.547 -0.2415 -0.5930 -0.7192
55955SOL    HW274471  11.622   3.496   0.560 -0.2628 -0.4177 -0.4199
55956SOL     OW74472  11.384   7.306   3.431  0.6130 -0.2078 -0.1248
55956SOL    HW174473  11.447   7.374   3.453  1.5960 -1.1695  0.0935
55956SOL    HW274474  11.308   7.353   3.397  0.9806  1.0319  0.7364
55957SOL     OW74475   1.193  10.589   9.399  0.3428 -0.4446  0.4030
55957SOL    HW174476   1.212  10.659   9.461 -0.0876  0.6880 -0.6755
55957SOL    HW274477   1.279  10.558   9.370  0.5545  0.1013  0.4228
55958SOL     OW74478   2.701  12.269   0.520  0.6006  0.0798 -0.5840
55958SOL    HW174479   2.763  12.283   0.449  1.4648 -0.0487  0.1406
55958SOL    HW274480   2.637  12.340   0.510  0.5398 -0.1083 -1.6619
55959SOL     OW74481   2.774   6.641   4.959  0.1288 -0.2216  0.1094
55959SOL    HW174482   2.860   6.625   4.999  0.3249  1.1595  0.2802
55959SOL    HW274483   2.773   6.735   4.941 -1.4162 -0.1852  0.2692
55960SOL     OW74484   2.107   9.484   3.962 -0.1880  0.0090 -0.5415
55960SOL    HW174485   2.154   9.565   3.981 -1.0913  0.1987  1.1434
55960SOL    HW274486   2.015   9.505   3.981 -0.7312 -0.8218 -2.1079
55961SOL     OW74487   0.726   2.715   5.741 -0.0713  0.0336  0.4359
55961SOL    HW174488   0.639   2.675   5.742 -0.3530  0.5151 -1.1894
55961SOL    HW274489   0.709   2.807   5.722  0.7608  0.3126  0.9879
55962SOL     OW74490  11.128   6.520   7.108  0.0441  0.6037 -0.3112
55962SOL    HW174491  11.209   6.537   7.059 -0.2383  1.8142 -0.3824
55962SOL    HW274492  11.131   6.581   7.181 -0.5044  0.1906  0.0678
55963SOL     OW74493   3.949   5.636  12.002  0.0760 -0.3151  0.7025
55963SOL    HW174494   4.020   5.685  12.044 -1.4030  2.9455 -0.2630
55963SOL    HW274495   3.986   5.610  11.917  0.1941  1.4272  0.1696
55964SOL     OW74496   4.575  11.441  11.561  0.2179 -0.2425 -0.0572
55964SOL    HW174497   4.589  11.498  11.485  0.6012 -0.6394 -0.2914
55964SOL    HW274498   4.625  11.361  11.540  0.6157 -0.2186  0.7649
55965SOL     OW74499   7.018   8.202   5.933  0.7861  0.7416 -0.1067
55965SOL    HW174500   7.071   8.216   6.011 -0.5550  3.4528  0.4492
55965SOL    HW274501   7.039   8.276   5.876 -0.9179  0.8261 -0.7007
55966SOL     OW74502  11.833   8.053   9.974 -0.1666 -0.3693 -0.0524
55966SOL    HW174503  11.923   8.024   9.967 -0.6448 -1.6412 -1.4078
55966SOL    HW274504  11.818   8.105   9.895 -0.6742 -0.3428  0.0567
55967SOL     OW74505   9.221   0.101  12.422 -0.3338  0.1689 -0.0635
55967SOL    HW174506   9.315   0.088  12.427 -0.2397  0.3233 -1.1260
55967SOL    HW274507   9.183   0.018  12.450  0.0980  0.3295  1.0206
55968SOL     OW74508  12.475  12.572   8.298 -0.3509 -0.2481 -0.5200
55968SOL    HW174509  12.394  12.527   8.273 -1.7177  1.1204  1.1435
55968SOL    HW274510  12.449  12.663   8.308  1.0666  0.0166  1.3095
55969SOL     OW74511   9.665  12.366   6.505 -0.0856 -0.0526  0.2317
55969SOL    HW174512   9.666  12.287   6.559  0.5872 -1.0871 -1.2283
55969SOL    HW274513   9.668  12.438   6.568 -0.5638 -1.1724  1.5989
55970SOL     OW74514  10.161  11.604   1.221  0.1197 -0.5778  0.0165
55970SOL    HW174515  10.103  11.668   1.180 -2.1871 -1.7622  1.2225
55970SOL    HW274516  10.232  11.656   1.260 -0.1400  0.9320 -1.4152
55971SOL     OW74517   8.463   9.919   9.043 -0.4394 -0.3677 -0.1266
55971SOL    HW174518   8.506   9.979   8.983  0.7365 -0.8058  0.2454
55971SOL    HW274519   8.535   9.878   9.092 -1.3113 -0.7111  0.9134
55972SOL     OW74520   1.498  11.813   7.747 -0.7228  0.2032  0.3882
55972SOL    HW174521   1.465  11.901   7.765 -1.2371  0.0350  0.3024
55972SOL    HW274522   1.536  11.818   7.659 -1.2150  0.2217  0.1698
55973SOL     OW74523   1.694   9.532  10.377 -0.1532  0.0223  0.5064
55973SOL    HW174524   1.766   9.591  10.399  1.2182 -0.9074 -1.3307
55973SOL    HW274525   1.637   9.584  10.320 -2.4212  1.6064  3.8586
55974SOL     OW74526   4.254   2.970   9.619 -0.1096  0.6472 -0.1280
55974SOL    HW174527   4.207   2.996   9.698 -0.5051 -0.0816 -0.1105
55974SOL    HW274528   4.323   3.035   9.609 -0.2825  0.9519  0.6158
55975SOL     OW74529   1.349   8.540   0.682  0.6575  0.7238  0.1049
55975SOL    HW174530   1.428   8.546   0.629  0.5312  0.6238 -0.0945
55975SOL    HW274531   1.354   8.453   0.722 -0.5712 -0.3345 -1.8581
55976SOL     OW74532   5.101   0.211   2.989 -0.2796  0.2802  0.4571
55976SOL    HW174533   5.171   0.200   2.924 -0.1505 -0.3742  0.7031
55976SOL    HW274534   5.023   0.176   2.946 -0.9732  2.8979 -0.6460
55977SOL     OW74535   4.070   7.459   8.260 -0.0669  0.2908 -0.0359
55977SOL    HW174536   3.982   7.423   8.245 -0.7987  1.7045  0.5740
55977SOL    HW274537   4.064   7.501   8.346  1.2739  0.2554  0.0955
55978SOL     OW74538  10.899   5.296   9.745  0.3681 -0.5162  0.2736
55978SOL    HW174539  10.888   5.391   9.742  0.3246 -0.5399 -0.7884
55978SOL    HW274540  10.810   5.261   9.744  0.3968 -0.5805  0.0522
55979SOL     OW74541  11.535  12.500   9.059  0.4253 -0.1495  0.5245
55979SOL    HW174542  11.579  12.585   9.055  0.4554 -0.1704  0.3969
55979SOL    HW274543  11.488  12.501   9.143  0.1252  0.1421  0.3579
55980SOL     OW74544   8.787   5.265   4.382 -0.0473 -0.1520 -0.7930
55980SOL    HW174545   8.862   5.205   4.385  0.2937  0.2936  0.6709
55980SOL    HW274546   8.825   5.349   4.358  0.4642  0.6913  2.4404
55981SOL     OW74547   9.349   6.861  12.436 -0.0041 -0.4527 -0.1621
55981SOL    HW174548   9.397   6.824  12.511 -0.2967 -2.0565 -0.7231
55981SOL    HW274549   9.405   6.931  12.405  0.5181 -0.2964  1.0565
55982SOL     OW74550   7.369  12.156   1.002 -0.1711 -0.0898  0.8129
55982SOL    HW174551   7.449  12.130   0.958 -0.1563  1.1533  0.0474
55982SOL    HW274552   7.353  12.087   1.067  1.8804 -0.0259  1.4596
55983SOL     OW74553   2.863   0.297   5.711  0.3898  0.3278 -0.3062
55983SOL    HW174554   2.892   0.340   5.792  0.6498 -0.2920 -0.0622
55983SOL    HW274555   2.770   0.279   5.725  0.3698  0.4701 -0.2573
55984SOL     OW74556   0.238   5.797  10.381  0.4649  0.3575 -0.4036
55984SOL    HW174557   0.214   5.852  10.306  3.5305  2.0635 -0.2812
55984SOL    HW274558   0.175   5.821  10.449 -0.9449  0.4609 -1.6864
55985SOL     OW74559   0.723   2.171   5.078 -0.4179 -0.0750 -0.2943
55985SOL    HW174560   0.678   2.169   5.162 -1.0658  0.3843 -0.6242
55985SOL    HW274561   0.713   2.082   5.043  0.7816 -0.5896  0.5721
55986SOL     OW74562   2.377  11.214   5.412  0.1467  0.0359  0.0258
55986SOL    HW174563   2.395  11.156   5.485 -1.3126  0.1865  0.5373
55986SOL    HW274564   2.428  11.293   5.431 -0.0217 -0.0223  0.7536
55987SOL     OW74565   7.924   3.095  12.433 -0.2179  0.3623 -0.3900
55987SOL    HW174566   7.928   3.010  12.476  0.1987  0.0129 -1.1028
55987SOL    HW274567   7.892   3.076  12.345  0.4611  0.8566 -0.7527
55988SOL     OW74568  11.262   0.553  12.424  1.1359  0.5479 -0.0151
55988SOL    HW174569  11.341   0.603  12.402  1.2488  1.4571  2.1513
55988SOL    HW274570  11.190   0.606  12.392  1.3523  0.1418 -1.2233
55989SOL     OW74571   8.542   5.344   6.030 -1.0875  0.4470  0.8423
55989SOL    HW174572   8.541   5.413   5.963  0.7963  0.3290  0.6453
55989SOL    HW274573   8.548   5.392   6.113 -0.2184  0.5610  0.7289
55990SOL     OW74574   7.172   9.546   8.411 -0.3660  0.2994 -0.2250
55990SOL    HW174575   7.179   9.450   8.409  2.6425  0.4113 -2.0968
55990SOL    HW274576   7.135   9.569   8.326 -1.4209  0.8474  0.3555
55991SOL     OW74577  10.456   8.983  11.046 -0.2906 -0.0966  0.4709
55991SOL    HW174578  10.518   9.046  11.082 -0.0497 -0.1352  0.1318
55991SOL    HW274579  10.377   8.995  11.098 -0.2791  0.5571  0.3503
55992SOL     OW74580   7.959   7.428   7.841  0.4130  0.4752 -0.4133
55992SOL    HW174581   8.032   7.388   7.793 -0.3981 -0.9332 -0.5513
55992SOL    HW274582   7.888   7.432   7.777 -1.1098 -2.6394  0.8629
55993SOL     OW74583  12.115   3.865  11.559  0.1900 -0.0570 -0.3626
55993SOL    HW174584  12.143   3.774  11.558  0.0149 -0.1051 -1.4664
55993SOL    HW274585  12.106   3.886  11.652  0.4905 -1.0806 -0.0943
55994SOL     OW74586   2.595   8.805   8.896 -0.1835  0.1543  0.2114
55994SOL    HW174587   2.553   8.734   8.945 -0.1899  0.4699  0.6681
55994SOL    HW274588   2.640   8.857   8.962  1.5869 -0.5887 -0.3445
55995SOL     OW74589  11.711   5.059   2.523  0.1986 -0.3994  0.1452
55995SOL    HW174590  11.766   5.096   2.593  2.4005 -0.3687 -1.5060
55995SOL    HW274591  11.756   4.978   2.498 -0.0747 -0.0050 -1.7622
55996SOL     OW74592   7.988   5.683  11.518  0.1836 -0.4901 -0.3636
55996SOL    HW174593   7.967   5.612  11.578  1.6261 -1.2566 -0.7114
55996SOL    HW274594   8.045   5.741  11.568  1.4371 -1.1599 -0.9557
55997SOL     OW74595   5.069   4.119  10.796 -0.6679  0.4196  0.1239
55997SOL    HW174596   4.982   4.079  10.795  0.1754 -1.5457 -0.9666
55997SOL    HW274597   5.117   4.073  10.727  1.3895  1.1303  1.0033
55998SOL     OW74598  10.144   8.921   1.400  0.5068  0.5868  0.2622
55998SOL    HW174599  10.060   8.954   1.368  0.1534 -0.5952 -0.0774
55998SOL    HW274600  10.203   8.996   1.397 -0.3502  1.2462 -0.1936
55999SOL     OW74601   7.244   1.422  10.584  0.2837 -0.4236  0.0765
55999SOL    HW174602   7.160   1.396  10.546  0.7226 -0.6401 -0.7693
55999SOL    HW274603   7.236   1.516  10.598 -0.6755 -0.6747  1.5071
56000SOL     OW74604  10.655   4.997   2.414  0.1105 -0.4188 -0.5907
56000SOL    HW174605  10.696   4.911   2.409 -0.4783 -0.6392 -1.8909
56000SOL    HW274606  10.568   4.980   2.452 -0.2116 -0.4800 -1.3475
56001SOL     OW74607   8.361  12.079   4.862  0.3507  0.2516  0.4493
56001SOL    HW174608   8.427  12.072   4.793 -0.6281  1.8948 -0.7305
56001SOL    HW274609   8.407  12.121   4.935  1.3472 -1.3354  0.7899
56002SOL     OW74610   0.316   7.944   3.002 -0.5291 -0.2366  0.5281
56002SOL    HW174611   0.235   7.941   2.950  0.6566  1.6518 -1.6672
56002SOL    HW274612   0.362   7.863   2.979 -0.6238 -0.0491 -0.3953
56003SOL     OW74613   2.029  10.409   3.515  0.4860  0.5361  0.2059
56003SOL    HW174614   1.942  10.393   3.479  1.5275 -2.0024 -1.4425
56003SOL    HW274615   2.087  10.415   3.439  2.1447 -0.6700  1.3011
56004SOL     OW74616   4.184   1.165   4.310  0.3964 -0.2480 -0.1783
56004SOL    HW174617   4.227   1.112   4.243  0.3066  1.3765 -1.5700
56004SOL    HW274618   4.102   1.118   4.328  0.2177 -0.4828 -1.5327
56005SOL     OW74619   9.089   1.036   2.512  0.3107  0.1666  0.0951
56005SOL    HW174620   9.077   0.979   2.435  1.0037  0.9505 -0.6003
56005SOL    HW274621   9.017   1.099   2.506 -0.6023 -0.7396  0.9991
56006SOL     OW74622   3.544  10.405  11.763  0.6414 -0.1919  0.1313
56006SOL    HW174623   3.571  10.494  11.740  2.4529 -0.6429  0.3772
56006SOL    HW274624   3.547  10.402  11.858  2.1872 -0.9431  0.0906
56007SOL     OW74625  12.178   2.563   2.733 -0.5594  0.4822  0.0661
56007SOL    HW174626  12.187   2.657   2.713  0.0354  0.3280 -0.4051
56007SOL    HW274627  12.142   2.525   2.654  2.1080 -0.1844 -0.9303
56008SOL     OW74628   4.196   7.569  10.348  0.3199  0.1200  0.5230
56008SOL    HW174629   4.226   7.632  10.282  0.7122 -2.5535 -2.0473
56008SOL    HW274630   4.276   7.527  10.379 -0.0843 -1.2861 -0.2259
56009SOL     OW74631   9.736  10.270   0.714  0.4711  0.2499  0.2325
56009SOL    HW174632   9.795  10.345   0.713  0.0679  0.5592 -1.0434
56009SOL    HW274633   9.793  10.195   0.694  0.2110  0.7673 -2.9915
56010SOL     OW74634   4.892  11.227   8.290  0.1465  0.3919  0.0418
56010SOL    HW174635   4.822  11.176   8.332 -1.1693  1.5169 -0.6854
56010SOL    HW274636   4.934  11.164   8.231  1.1535 -0.8516  1.9735
56011SOL     OW74637  11.462   6.313   9.728 -0.0620  0.2145  0.1269
56011SOL    HW174638  11.482   6.340   9.818  0.5384  0.9367 -0.2101
56011SOL    HW274639  11.402   6.381   9.696  0.7273  0.6533 -0.4297
56012SOL     OW74640   5.249   9.923  10.760 -0.3173 -0.4681 -0.1143
56012SOL    HW174641   5.285   9.884  10.680 -1.2724  2.9672 -2.4746
56012SOL    HW274642   5.157   9.897  10.761  0.1279 -2.1247  1.0539
56013SOL     OW74643  10.684   0.014   7.738 -0.4027  0.1417  0.3613
56013SOL    HW174644  10.629   0.090   7.754  1.9703  1.9129  0.6729
56013SOL    HW274645  10.758   0.024   7.798 -0.6083 -3.1519  1.3832
56014SOL     OW74646   4.661   6.864   0.821  0.1257  0.6002 -0.2299
56014SOL    HW174647   4.698   6.903   0.901 -0.1422  0.9873 -0.2908
56014SOL    HW274648   4.586   6.920   0.800 -0.4765 -0.1488 -0.1293
56015SOL     OW74649   4.091   1.023   3.468 -0.8461  0.0995 -0.3023
56015SOL    HW174650   4.142   1.081   3.525 -0.3006  0.3566 -1.0286
56015SOL    HW274651   4.139   0.940   3.471 -0.6304  0.2098 -0.6355
56016SOL     OW74652   9.906   8.104  10.827  0.8654 -0.2806 -0.0748
56016SOL    HW174653   9.894   8.019  10.784  0.0728  0.1616 -0.7491
56016SOL    HW274654   9.824   8.120  10.873  1.0549  0.0679  0.1488
56017SOL     OW74655   6.325  12.181   6.486 -0.0021 -0.0738  0.1383
56017SOL    HW174656   6.277  12.221   6.414 -0.2009  0.1361  0.3870
56017SOL    HW274657   6.259  12.161   6.551  0.4039  1.5413  1.1031
56018SOL     OW74658   1.248   6.008   7.472 -0.5890 -0.3611 -0.1671
56018SOL    HW174659   1.287   5.975   7.552 -1.8446 -0.3739  0.4616
56018SOL    HW274660   1.322   6.044   7.422  0.0879  0.5630  1.4296
56019SOL     OW74661   5.784   8.445  11.245  0.5644  0.0692  0.2879
56019SOL    HW174662   5.786   8.506  11.171 -0.9249  1.3788  1.2454
56019SOL    HW274663   5.837   8.487  11.312 -1.9719  1.3763  1.6334
56020SOL     OW74664   3.140   2.805  12.612  0.1235  0.1907  0.1236
56020SOL    HW174665   3.120   2.775  12.700  0.7007  0.6840  0.4313
56020SOL    HW274666   3.151   2.725  12.561 -0.7693 -0.0966  0.3625
56021SOL     OW74667   9.104   9.403   9.983  0.0774 -0.1448 -0.0512
56021SOL    HW174668   9.178   9.446  10.025  0.4606  1.5277 -2.2228
56021SOL    HW274669   9.143   9.360   9.906 -1.0141 -0.2163 -0.5833
56022SOL     OW74670   3.368   3.174   0.309  0.0389 -0.3282 -0.0902
56022SOL    HW174671   3.359   3.082   0.336 -2.5239 -0.2333 -0.4155
56022SOL    HW274672   3.279   3.207   0.305  0.6738  1.3699 -2.8426
56023SOL     OW74673   0.250   7.087  11.621  0.2638 -0.1807  0.0863
56023SOL    HW174674   0.220   7.151  11.557 -0.3390 -0.9785 -0.4486
56023SOL    HW274675   0.233   7.002  11.581  3.0717 -0.7236 -0.1881
56024SOL     OW74676   1.732   0.126   6.766 -0.0666 -0.0186 -0.0075
56024SOL    HW174677   1.744   0.127   6.861 -2.0886 -2.4038  0.3997
56024SOL    HW274678   1.794   0.060   6.735  1.9621  2.0903 -0.6972
56025SOL     OW74679   2.975   5.347   8.095  0.1494  0.2923  0.1536
56025SOL    HW174680   3.023   5.369   8.175 -0.1547 -1.5510  0.8972
56025SOL    HW274681   2.888   5.386   8.108  0.4029  0.8264  0.2795
56026SOL     OW74682   4.422  12.637   4.106 -0.2792 -0.7139 -0.0437
56026SOL    HW174683   4.483  12.691   4.157  0.1352 -1.8243  0.6762
56026SOL    HW274684   4.393  12.569   4.167 -1.6188 -0.6900 -0.6202
56027SOL     OW74685   5.933   9.775   3.786  0.0621 -0.0922  0.6036
56027SOL    HW174686   5.918   9.681   3.777 -1.1904  0.2106 -0.6719
56027SOL    HW274687   5.851   9.810   3.821 -0.2831  0.7988 -0.9882
56028SOL     OW74688   4.511   9.932  10.095  0.6579 -0.2138 -0.4391
56028SOL    HW174689   4.524  10.024  10.074 -0.5294 -0.0416 -0.4816
56028SOL    HW274690   4.446   9.902  10.031  1.4973 -1.2493 -0.8371
56029SOL     OW74691   3.160   3.038   9.362  0.4066 -0.4389 -0.2400
56029SOL    HW174692   3.116   3.027   9.446  0.3131 -2.5453 -0.5136
56029SOL    HW274693   3.212   2.958   9.351  0.9598  0.0957 -1.8726
56030SOL     OW74694   2.752   7.265   1.730  0.2501  0.1502  0.1330
56030SOL    HW174695   2.671   7.293   1.774  0.5777  0.3088  0.6475
56030SOL    HW274696   2.746   7.170   1.727  0.4569  0.0962  1.0058
56031SOL     OW74697   8.271   6.676   8.090  0.0619 -0.7508 -0.0930
56031SOL    HW174698   8.280   6.682   7.994 -0.5539 -2.8403 -0.3296
56031SOL    HW274699   8.339   6.733   8.124 -1.4920  2.3529 -1.7299
56032SOL     OW74700   7.435   7.375   4.648 -0.1835  0.2528  0.1083
56032SOL    HW174701   7.403   7.408   4.564 -0.0727 -1.2353 -0.5612
56032SOL    HW274702   7.517   7.422   4.663  0.2741 -0.1154 -1.1023
56033SOL     OW74703   7.589  10.090   3.185  0.6254 -0.4783 -0.0849
56033SOL    HW174704   7.531  10.095   3.260 -2.1002 -0.0530 -2.0815
56033SOL    HW274705   7.581   9.999   3.155  2.2974 -0.8609  0.5112
56034SOL     OW74706   6.140  12.783   9.492  0.1662  0.3303  0.8900
56034SOL    HW174707   6.187  12.842   9.551 -0.8376  0.7399  1.2960
56034SOL    HW274708   6.086  12.730   9.550  0.5231 -0.5119  0.4665
56035SOL     OW74709   2.303   2.060   5.031 -0.3941  1.0891 -0.0961
56035SOL    HW174710   2.222   2.016   5.006 -1.1643  2.7117 -0.6078
56035SOL    HW274711   2.351   2.071   4.949 -0.4490  1.6473 -0.0548
56036SOL     OW74712   9.549  11.725  11.366 -0.5520  0.2532  0.2150
56036SOL    HW174713   9.577  11.787  11.433 -0.5085 -0.3398  0.7523
56036SOL    HW274714   9.565  11.770  11.283  0.2336  0.6392  0.5742
56037SOL     OW74715   8.700   9.183   3.405 -0.5206  0.4041  0.1600
56037SOL    HW174716   8.687   9.173   3.310 -0.7613 -1.3801  0.3600
56037SOL    HW274717   8.656   9.266   3.426 -1.4941  0.2344 -1.0926
56038SOL     OW74718   2.471   5.468  11.313  0.5407  0.0453  0.7150
56038SOL    HW174719   2.403   5.473  11.246  1.9154  1.0095 -0.6658
56038SOL    HW274720   2.496   5.376  11.316 -1.2029 -0.4448  1.6940
56039SOL     OW74721   0.473   3.126   6.617  0.0069  0.0233  0.1265
56039SOL    HW174722   0.417   3.193   6.579  1.4605  1.6271  0.6710
56039SOL    HW274723   0.535   3.105   6.547  1.1556  1.1888  0.7452
56040SOL     OW74724  10.372   3.241  10.815  0.4879  0.1325 -0.2751
56040SOL    HW174725  10.392   3.268  10.725  0.6031  2.0150  0.2602
56040SOL    HW274726  10.454   3.205  10.848  0.9419  1.0251 -0.3949
56041SOL     OW74727  10.722   7.273   2.095 -0.0053 -0.5915 -0.0817
56041SOL    HW174728  10.782   7.199   2.099  2.1390  0.7414 -3.4495
56041SOL    HW274729  10.663   7.253   2.022 -1.3754 -0.2672  0.8984
56042SOL     OW74730   7.275   3.699   3.132 -0.1471  0.2304 -0.4254
56042SOL    HW174731   7.349   3.639   3.146 -1.2830 -1.3045 -0.7959
56042SOL    HW274732   7.278   3.758   3.208 -0.3871 -1.8008  1.2534
56043SOL     OW74733   8.547  11.728   7.718 -0.0008  0.3864  0.4265
56043SOL    HW174734   8.464  11.714   7.672 -0.3662  0.1204  1.1453
56043SOL    HW274735   8.597  11.648   7.701  0.5834  1.0191 -0.9576
56044SOL     OW74736   2.443   3.492  11.749  0.8496 -0.1915  0.1302
56044SOL    HW174737   2.411   3.501  11.660  0.9928 -0.9880 -0.0092
56044SOL    HW274738   2.482   3.404  11.752  0.6342 -0.2658  1.0380
56045SOL     OW74739   0.341   3.291  11.209  0.2338 -0.4349  0.3621
56045SOL    HW174740   0.409   3.302  11.143  0.1673  1.5846  0.5771
56045SOL    HW274741   0.388   3.262  11.288  0.4166 -2.0073 -0.2883
56046SOL     OW74742   9.095  11.985  10.095  0.0336 -0.1431  0.5002
56046SOL    HW174743   9.107  11.904  10.146  1.7364 -0.8726 -0.9537
56046SOL    HW274744   9.179  12.031  10.104 -0.8639  1.4267  1.1768
56047SOL     OW74745   7.685   9.140   0.043 -0.6138 -0.0223 -0.1545
56047SOL    HW174746   7.683   9.233   0.063 -0.3833 -0.5051  2.3730
56047SOL    HW274747   7.608   9.104   0.088 -0.2376 -1.1741 -0.3964
56048SOL     OW74748   4.015   5.594   0.642 -0.0927  0.8396 -0.1151
56048SOL    HW174749   3.995   5.600   0.735  1.5856  2.1051  0.2214
56048SOL    HW274750   3.933   5.565   0.601 -1.1119  1.1242  1.6368
56049SOL     OW74751   8.797   8.970  12.052 -0.9509 -0.4168  0.5801
56049SOL    HW174752   8.822   9.010  11.968 -1.9087 -2.1829 -0.6249
56049SOL    HW274753   8.770   9.044  12.107 -0.9713  0.7346 -0.9085
56050SOL     OW74754   9.556  11.657   9.786 -0.3948  0.0435 -0.2267
56050SOL    HW174755   9.493  11.708   9.837 -0.3295  0.6870 -0.7678
56050SOL    HW274756   9.534  11.678   9.695  0.2545 -0.1625 -0.4318
56051SOL     OW74757   3.874   4.075   5.153 -0.6372 -0.0370 -0.2422
56051SOL    HW174758   3.889   3.993   5.199  0.6382 -0.1905 -0.8698
56051SOL    HW274759   3.832   4.133   5.217 -1.0715 -1.0002  0.3560
56052SOL     OW74760  10.565   7.092   0.968  0.3417 -0.1053  0.1766
56052SOL    HW174761  10.618   7.149   0.911  0.3748 -0.3637 -0.0541
56052SOL    HW274762  10.576   7.129   1.055 -2.3091  2.3431 -0.3417
56053SOL     OW74763   5.254   8.456  10.129  0.1136  0.7122 -0.3606
56053SOL    HW174764   5.256   8.498  10.215  0.3444  0.7302 -0.3737
56053SOL    HW274765   5.164   8.468  10.098  0.4710  2.2295 -0.8810
56054SOL     OW74766   1.226   6.143   0.279 -0.5378 -0.3521 -0.3778
56054SOL    HW174767   1.194   6.232   0.274 -0.2430 -0.1710  0.6670
56054SOL    HW274768   1.174   6.102   0.348  0.3646 -0.5162  0.2291
56055SOL     OW74769  11.207   0.076   5.682  0.3610 -0.6588  0.0976
56055SOL    HW174770  11.269   0.136   5.723  0.0954  0.2836 -0.8593
56055SOL    HW274771  11.172   0.025   5.756  0.4071  0.5112  0.9629
56056SOL     OW74772   2.111   1.449   6.584  0.4724 -0.0756 -0.0947
56056SOL    HW174773   2.128   1.362   6.621 -3.4799 -0.3049  1.6970
56056SOL    HW274774   2.152   1.510   6.646  0.3119 -0.6301  0.5654
56057SOL     OW74775   5.585   0.573   9.704  0.0599 -0.8928 -0.0844
56057SOL    HW174776   5.519   0.541   9.641  0.3880 -1.0517 -0.3491
56057SOL    HW274777   5.587   0.506   9.772  0.6235 -1.3593 -0.5515
56058SOL     OW74778   1.008  10.307   2.833 -0.2237 -0.1210 -0.1988
56058SOL    HW174779   0.947  10.322   2.760 -1.1800  0.8322  0.7620
56058SOL    HW274780   1.084  10.361   2.812  0.0004 -0.7425 -1.0454
56059SOL     OW74781   6.453  11.747   8.612  0.4197  0.6832  0.4207
56059SOL    HW174782   6.429  11.781   8.526  0.1619  0.7937  0.5325
56059SOL    HW274783   6.530  11.693   8.596 -0.2648 -0.1796 -0.0575
56060SOL     OW74784  10.669   7.916   6.291 -0.6928  0.0685 -0.0537
56060SOL    HW174785  10.614   7.951   6.221  0.2624  0.4910 -0.6105
56060SOL    HW274786  10.643   7.964   6.369 -0.5276  0.8672 -0.4850
56061SOL     OW74787   3.318  10.575  11.520  0.7275  0.4728  0.0943
56061SOL    HW174788   3.328  10.484  11.548 -0.1380 -0.0450 -1.1806
56061SOL    HW274789   3.249  10.572  11.454  0.6998  2.0604  0.0206
56062SOL     OW74790   0.256  10.282   2.991  0.0202 -0.6650  0.0412
56062SOL    HW174791   0.267  10.303   3.083  1.8734 -0.0114 -0.2698
56062SOL    HW274792   0.172  10.321   2.967 -0.2064 -0.3407  1.3126
56063SOL     OW74793   1.975   4.851   4.448  0.2743  0.3911  0.1642
56063SOL    HW174794   1.971   4.930   4.502 -1.4771 -0.5792  1.5848
56063SOL    HW274795   1.988   4.883   4.359  1.2324  2.1664  0.8980
56064SOL     OW74796   1.810   3.059   3.744  0.2607 -0.0535  0.1950
56064SOL    HW174797   1.898   3.086   3.718  0.5165 -0.4608  0.6153
56064SOL    HW274798   1.809   3.070   3.839 -0.1737  0.0397  0.1820
56065SOL     OW74799   7.541  11.386  10.398  0.4970 -0.3209 -0.0981
56065SOL    HW174800   7.473  11.322  10.420 -0.0188 -0.4990 -2.0294
56065SOL    HW274801   7.605  11.378  10.468 -1.0956 -0.6988  1.3602
56066SOL     OW74802   3.431   2.516   1.572 -0.1564 -0.2296 -0.0933
56066SOL    HW174803   3.463   2.485   1.487 -1.7651 -0.8181 -0.5223
56066SOL    HW274804   3.429   2.611   1.564  2.7336 -0.0045  0.4627
56067SOL     OW74805  11.603  11.327   8.466  0.2250 -0.4038 -0.0317
56067SOL    HW174806  11.643  11.409   8.495 -0.0476 -0.6915  1.2222
56067SOL    HW274807  11.512  11.333   8.496  0.0698 -0.9413 -0.3819
56068SOL     OW74808   6.276   8.907   1.489  0.5315 -0.3409 -0.0413
56068SOL    HW174809   6.282   8.999   1.514  3.6282  0.1064 -1.8720
56068SOL    HW274810   6.210   8.905   1.420  1.5342  0.8660 -1.0795
56069SOL     OW74811   0.355   0.044   1.640 -0.0156 -0.3076 -0.2442
56069SOL    HW174812   0.423   0.036   1.706 -1.2727  2.1015  1.5426
56069SOL    HW274813   0.402   0.053   1.557  1.7186 -1.0199  0.6228
56070SOL     OW74814  10.715   7.334   9.141  0.3128 -0.1207  0.1910
56070SOL    HW174815  10.748   7.331   9.051  1.0021 -0.9418  0.4589
56070SOL    HW274816  10.793   7.325   9.195 -0.1887 -0.5241  0.8603
56071SOL     OW74817   5.178   3.336   9.074  0.2560 -0.0019 -0.2760
56071SOL    HW174818   5.217   3.413   9.033 -0.5410  0.5234 -0.0597
56071SOL    HW274819   5.144   3.368   9.158  0.6250 -0.7597  0.1797
56072SOL     OW74820   7.085   8.849   9.544  0.8183  0.0253 -0.5590
56072SOL    HW174821   7.008   8.854   9.601  1.9096  0.2617  0.9639
56072SOL    HW274822   7.060   8.787   9.476 -0.5152 -0.3475  0.2195
56073SOL     OW74823   7.589   7.439  12.744  0.1786 -0.0132  0.2124
56073SOL    HW174824   7.680   7.430  12.717 -0.4906 -1.3483 -1.8028
56073SOL    HW274825   7.541   7.458  12.664 -1.5161 -0.8711  0.9648
56074SOL     OW74826   9.912   0.552   4.259 -0.8479 -0.0573  0.1074
56074SOL    HW174827   9.993   0.522   4.299 -0.1404  1.8635  0.2369
56074SOL    HW274828   9.842   0.512   4.311  0.0346 -0.0438  1.3409
56075SOL     OW74829   8.169   8.242   4.982  0.4645  0.2540  0.1334
56075SOL    HW174830   8.085   8.271   4.948 -0.4365 -0.1607  1.8591
56075SOL    HW274831   8.191   8.164   4.931  0.2617  0.8748 -0.9258
56076SOL     OW74832   8.882   6.792   4.488  0.2023  0.4373  0.5669
56076SOL    HW174833   8.890   6.837   4.572  0.4107 -1.3868  1.5627
56076SOL    HW274834   8.961   6.817   4.440  1.2408 -0.2558  1.8255
56077SOL     OW74835   9.851   3.300   9.954  0.2636  0.3281 -0.1500
56077SOL    HW174836   9.912   3.374   9.948 -1.1221  1.4625 -0.7054
56077SOL    HW274837   9.764   3.340   9.951 -0.5351 -1.2459  0.6697
56078SOL     OW74838  11.189   1.616   6.543 -0.0845 -0.2705  0.0803
56078SOL    HW174839  11.126   1.634   6.613  0.3529 -0.7796  0.6067
56078SOL    HW274840  11.190   1.521   6.535  0.3110 -0.2437 -0.2150
56079SOL     OW74841   8.977   9.284   2.078  0.2393 -0.0299 -0.6236
56079SOL    HW174842   8.886   9.313   2.070  0.6728  0.8203 -3.8859
56079SOL    HW274843   8.989   9.225   2.004  2.3699 -0.1161 -0.2514
56080SOL     OW74844   8.331   8.540   7.816  0.5547 -0.1262 -0.6649
56080SOL    HW174845   8.382   8.620   7.803  2.9543 -1.6116 -0.9197
56080SOL    HW274846   8.258   8.548   7.754  0.8538  1.7426 -0.8433
56081SOL     OW74847   8.206  11.880   8.521  0.1347 -0.0060 -0.3562
56081SOL    HW174848   8.236  11.870   8.430 -0.5921 -1.1636 -0.4878
56081SOL    HW274849   8.212  11.974   8.538  0.6394  0.1826 -1.4747
56082SOL     OW74850   0.155   1.922   9.734  0.3275 -0.1197  0.6539
56082SOL    HW174851   0.130   1.845   9.785 -1.8146  0.8990  1.2538
56082SOL    HW274852   0.249   1.912   9.720  0.5620 -1.5889  2.8170
56083SOL     OW74853   7.715   7.481  12.102  0.5309 -0.6085 -0.3785
56083SOL    HW174854   7.641   7.512  12.051  0.8277  0.4459 -0.1904
56083SOL    HW274855   7.771   7.437  12.038 -0.0621 -1.0704 -0.5886
56084SOL     OW74856   0.254   8.548   8.989 -0.3200  0.3442  0.2133
56084SOL    HW174857   0.187   8.610   8.959  0.6769  0.4962 -1.9356
56084SOL    HW274858   0.328   8.604   9.014  0.0752  0.0849 -0.3636
56085SOL     OW74859   1.240   5.847   3.949 -0.5354  0.1705 -0.4394
56085SOL    HW174860   1.152   5.810   3.942 -0.3139 -0.1137 -1.9503
56085SOL    HW274861   1.268   5.825   4.038 -2.2128  0.8045  0.2763
56086SOL     OW74862   3.838   0.419  12.612 -0.2761  0.0709  0.3957
56086SOL    HW174863   3.815   0.428  12.520 -0.3410 -0.3781  0.3662
56086SOL    HW274864   3.784   0.347  12.645  0.7201 -0.6879  0.4348
56087SOL     OW74865  10.952   3.140  12.523 -0.1466  0.1970  0.2967
56087SOL    HW174866  10.931   3.093  12.604  0.0873 -0.2014  0.1318
56087SOL    HW274867  11.047   3.127  12.512  0.0070  1.1265  0.5067
56088SOL     OW74868  11.253   2.618   2.110 -0.9588  0.0248 -0.3373
56088SOL    HW174869  11.207   2.700   2.096 -0.8804 -0.2401 -2.5076
56088SOL    HW274870  11.189   2.550   2.087 -1.9660 -0.8003  3.9503
56089SOL     OW74871  11.263  10.259   5.509  0.1292  0.1426  0.5813
56089SOL    HW174872  11.338  10.316   5.491 -0.5860  1.2637  1.1050
56089SOL    HW274873  11.210  10.262   5.430 -1.0458  2.0067  1.3974
56090SOL     OW74874   8.400   4.805  10.919 -0.0678 -0.5173  0.3214
56090SOL    HW174875   8.475   4.865  10.923 -0.8955  0.5417  0.4918
56090SOL    HW274876   8.354   4.830  10.838 -1.0222 -0.1636  0.9545
56091SOL     OW74877   2.055   1.154   1.900 -0.2863  0.4494  0.2275
56091SOL    HW174878   2.134   1.125   1.855 -1.0819 -0.1424 -0.8183
56091SOL    HW274879   1.983   1.122   1.846 -1.2453  3.2652 -0.3460
56092SOL     OW74880   0.058   0.466   1.294 -0.4822  0.2208 -0.0148
56092SOL    HW174881  -0.000   0.419   1.354  0.3671 -0.6898  0.1141
56092SOL    HW274882   0.065   0.409   1.218 -0.2775  0.6375 -0.3118
56093SOL     OW74883   1.082  10.197  10.813 -0.4538  0.6436  0.0923
56093SOL    HW174884   1.067  10.217  10.906  2.0304  0.8627  0.5069
56093SOL    HW274885   1.037  10.113  10.800 -0.0799  0.1367  1.7549
56094SOL     OW74886   1.086   1.398   8.665  0.1482 -0.5085  0.6337
56094SOL    HW174887   1.118   1.328   8.723 -1.0323 -0.4359  1.3985
56094SOL    HW274888   0.994   1.376   8.649  0.5157 -0.6887 -1.4992
56095SOL     OW74889   5.422   9.450   4.719  1.0103  0.5535 -0.4532
56095SOL    HW174890   5.429   9.407   4.634 -0.1916  1.3913 -1.0101
56095SOL    HW274891   5.461   9.536   4.706  2.2278  0.1421  0.2982
56096SOL     OW74892  10.364   5.385   0.804  0.3805  0.2173  0.3908
56096SOL    HW174893  10.413   5.457   0.844 -0.6090  0.3515  1.4321
56096SOL    HW274894  10.273   5.405   0.823 -0.0876 -0.1120 -1.3579
56097SOL     OW74895   9.749   6.817   2.192  0.7304  0.0901 -0.0740
56097SOL    HW174896   9.806   6.776   2.126  0.8295 -2.1913  1.3227
56097SOL    HW274897   9.783   6.786   2.276 -1.2241  0.4436  0.9152
56098SOL     OW74898   6.469   1.031   5.263 -0.1338  0.1895  0.9222
56098SOL    HW174899   6.561   1.010   5.275  0.4695  1.0269 -1.6623
56098SOL    HW274900   6.434   0.959   5.211 -0.5631  0.6381  0.5812
56099SOL     OW74901  10.440   8.480   4.288  0.4768  0.3161  0.1462
56099SOL    HW174902  10.493   8.516   4.359  1.5652  0.9330 -0.9436
56099SOL    HW274903  10.500   8.426   4.238  0.0024  0.7334 -0.9112
56100SOL     OW74904   7.830   8.443   3.559 -0.0821 -0.1802 -0.1108
56100SOL    HW174905   7.891   8.371   3.576  0.2332 -0.0532 -0.7041
56100SOL    HW274906   7.744   8.405   3.576  0.1628 -0.3154  0.8792
56101SOL     OW74907   9.151   2.098   9.503  0.1017 -0.1756 -0.5743
56101SOL    HW174908   9.187   2.062   9.584  1.5886  1.1069 -0.6230
56101SOL    HW274909   9.227   2.119   9.450 -0.7733  1.1957 -1.3447
56102SOL     OW74910   2.589   8.754   3.614 -0.1973 -0.3957  0.1747
56102SOL    HW174911   2.553   8.747   3.525  1.7736 -2.0942 -0.5873
56102SOL    HW274912   2.556   8.676   3.659 -0.7379  0.1690  0.7678
56103SOL     OW74913   7.434   7.858   7.904 -0.2685  0.1638 -0.1788
56103SOL    HW174914   7.522   7.874   7.869 -0.6180  2.7895 -0.0201
56103SOL    HW274915   7.380   7.845   7.826  0.2981 -2.1098 -0.2628
56104SOL     OW74916   3.619   4.060   9.338  0.2018 -0.2078 -0.5713
56104SOL    HW174917   3.574   3.981   9.369  1.2259  0.1112  1.9934
56104SOL    HW274918   3.628   4.114   9.416 -0.9762  2.7781 -2.3460
56105SOL     OW74919  10.421   0.306  11.646 -0.4517  0.3519 -0.2545
56105SOL    HW174920  10.489   0.300  11.714 -0.2230 -1.1221 -0.5809
56105SOL    HW274921  10.374   0.388  11.666  0.0126  0.2681  1.2968
56106SOL     OW74922   2.512  10.386  11.202  0.2153 -0.3422 -0.1728
56106SOL    HW174923   2.519  10.425  11.288  1.1734  0.6469 -0.6718
56106SOL    HW274924   2.500  10.460  11.142  1.1697 -0.8618 -1.0479
56107SOL     OW74925   1.976  12.220   2.049  0.5787 -0.2552  0.1850
56107SOL    HW174926   2.009  12.134   2.022  0.5300 -0.4394  0.6964
56107SOL    HW274927   2.012  12.233   2.136 -1.2204 -0.7813  1.0588
56108SOL     OW74928   2.224   2.929   8.183 -0.6580  0.1419 -0.2706
56108SOL    HW174929   2.195   2.851   8.231 -0.3226 -0.0012 -0.2991
56108SOL    HW274930   2.184   3.002   8.230 -1.0759 -0.0504 -0.3129
56109SOL     OW74931   5.492   3.718  12.426 -0.0945  0.0332  0.2598
56109SOL    HW174932   5.568   3.660  12.434  0.6527  0.9260 -0.2313
56109SOL    HW274933   5.449   3.689  12.345  0.0518 -0.0833  0.2233
56110SOL     OW74934   0.858   1.284   2.912  0.1336  0.5205  0.3512
56110SOL    HW174935   0.917   1.210   2.926 -0.3471 -0.4127 -2.0404
56110SOL    HW274936   0.774   1.254   2.948  0.6491  1.2395  2.3148
56111SOL     OW74937   3.782   9.323   0.857 -0.5562  0.7176  0.1110
56111SOL    HW174938   3.771   9.238   0.814  0.8204 -1.3674  3.4737
56111SOL    HW274939   3.699   9.338   0.902  0.0453 -0.3249  1.6905
56112SOL     OW74940  11.076   9.258  10.915 -0.4344  0.1304  0.9908
56112SOL    HW174941  10.981   9.262  10.902 -0.1994  1.9000 -0.5342
56112SOL    HW274942  11.095   9.326  10.980  0.0167  1.4640 -0.4875
56113SOL     OW74943   8.371   7.429   1.913  0.9135  0.0150  0.0206
56113SOL    HW174944   8.445   7.408   1.856  0.2916 -1.5312 -0.2641
56113SOL    HW274945   8.330   7.345   1.932  0.2751  0.6388  1.6452
56114SOL     OW74946   7.961   9.147   9.172 -0.2465 -0.4007  0.1521
56114SOL    HW174947   7.996   9.233   9.148 -1.0942 -0.0150  0.2514
56114SOL    HW274948   7.866   9.160   9.175 -0.3469 -1.2066  0.7155
56115SOL     OW74949   3.561  10.998   5.562 -0.0697  0.3745  0.0290
56115SOL    HW174950   3.606  10.989   5.477  1.5646  2.3229  0.6221
56115SOL    HW274951   3.576  10.914   5.605 -0.4093 -0.4326 -1.3337
56116SOL     OW74952   5.532   6.898   8.936  0.1062  0.1734 -0.1825
56116SOL    HW174953   5.570   6.960   8.998 -1.3900  0.5156  0.4346
56116SOL    HW274954   5.438   6.901   8.953 -0.2640 -0.3698 -1.9034
56117SOL     OW74955   2.485  11.077   4.451  0.0156  0.4383  0.0552
56117SOL    HW174956   2.430  11.010   4.493  0.3622 -0.7659 -1.3524
56117SOL    HW274957   2.462  11.158   4.497 -2.3978 -0.1456  0.0244
56118SOL     OW74958   6.324  11.452   2.308  0.2877  0.2540 -0.1730
56118SOL    HW174959   6.402  11.458   2.363  1.1739 -3.8829 -0.6462
56118SOL    HW274960   6.334  11.369   2.261 -2.9141  1.0830 -2.6905
56119SOL     OW74961  12.074   2.842   1.049  0.2234  0.1084 -0.3987
56119SOL    HW174962  12.015   2.912   1.077 -0.7475 -0.2586 -1.4193
56119SOL    HW274963  12.101   2.799   1.130  1.9987  2.5216  0.3792
56120SOL     OW74964   9.751  10.716   2.100  0.4303 -0.2048  0.1979
56120SOL    HW174965   9.831  10.731   2.049  0.2279  0.2787  0.0137
56120SOL    HW274966   9.763  10.630   2.140  0.8797 -0.2981 -0.1353
56121SOL     OW74967   2.525   4.498   4.604 -0.2279 -0.3510  0.2271
56121SOL    HW174968   2.545   4.508   4.511  1.0446  0.6145  0.5820
56121SOL    HW274969   2.449   4.555   4.618 -0.0945 -0.0859 -0.1128
56122SOL     OW74970   2.202   2.904   0.340  0.4934  0.2716 -0.0384
56122SOL    HW174971   2.186   2.974   0.404  0.4479  0.1191  0.1196
56122SOL    HW274972   2.128   2.844   0.351  0.4589  0.2735 -0.2730
56123SOL     OW74973  12.491   2.782   2.615 -0.5965 -0.5133 -0.0649
56123SOL    HW174974  12.407   2.820   2.641 -0.1133 -0.5827  1.7170
56123SOL    HW274975  12.555   2.821   2.674  0.8063  0.1769 -1.9058
56124SOL     OW74976   9.508  11.812   3.080  0.8192 -0.0094 -0.1385
56124SOL    HW174977   9.412  11.805   3.078  0.8517 -1.2438  1.0053
56124SOL    HW274978   9.537  11.748   3.014  0.8627 -0.3684  0.2234
56125SOL     OW74979  12.217  11.255   7.900 -0.4297  0.0983 -0.0499
56125SOL    HW174980  12.299  11.221   7.936 -0.8664 -1.7012 -0.6497
56125SOL    HW274981  12.235  11.264   7.806 -1.6058 -2.7451 -0.6432
56126SOL     OW74982  12.440   0.492  12.646 -0.1309 -0.5126  0.2670
56126SOL    HW174983  12.372   0.449  12.593 -1.7421 -0.0044  1.8188
56126SOL    HW274984  12.508   0.425  12.656 -0.0358 -0.8133 -1.9043
56127SOL     OW74985  10.315   5.331   4.268  0.7383 -0.2704 -0.4254
56127SOL    HW174986  10.346   5.375   4.347 -0.8667 -2.1796  1.3908
56127SOL    HW274987  10.387   5.273   4.243  1.6602  1.1009 -1.0160
56128SOL     OW74988   3.022  11.274   1.186 -0.2671 -0.3956  0.0822
56128SOL    HW174989   3.109  11.236   1.198  0.8043  1.8498 -0.0063
56128SOL    HW274990   2.992  11.293   1.275 -0.9209 -1.5883  0.1441
56129SOL     OW74991  11.062   8.938  11.252 -0.0945  0.4251 -0.5698
56129SOL    HW174992  11.092   8.968  11.167  0.0125  1.6689 -0.1107
56129SOL    HW274993  10.969   8.922  11.241 -0.2137  1.2173 -0.7561
56130SOL     OW74994   6.564   4.289   5.858 -0.1651  0.1343 -0.1084
56130SOL    HW174995   6.526   4.278   5.946 -0.8523 -0.9149 -0.5103
56130SOL    HW274996   6.599   4.202   5.837 -0.2315  0.3151 -0.9755
56131SOL     OW74997   7.889   7.898   3.406 -0.2364 -0.5890 -0.6357
56131SOL    HW174998   7.965   7.917   3.352  0.9446 -0.4939  0.9746
56131SOL    HW274999   7.875   7.804   3.397  1.6387 -1.0832  0.9042
56132SOL     OW75000  11.054   3.345   4.696  0.3954 -0.2229 -0.6074
56132SOL    HW175001  11.133   3.290   4.697  0.9700  0.4992 -2.4014
56132SOL    HW275002  11.000   3.306   4.627  0.6828  1.2421 -1.7001
56133SOL     OW75003   4.699   0.341   8.848 -0.6800 -0.2899 -0.1684
56133SOL    HW175004   4.654   0.331   8.932  1.5926 -0.6851  1.0872
56133SOL    HW275005   4.639   0.394   8.795 -2.7890 -1.1562  1.1852
56134SOL     OW75006   0.886   8.357  11.063  0.7994 -0.0220  0.9008
56134SOL    HW175007   0.918   8.307  11.138 -0.4907 -1.0276  0.8202
56134SOL    HW275008   0.907   8.303  10.987 -1.2149 -0.8663  0.8631
56135SOL     OW75009   2.322   8.004   4.999 -0.1412  0.1180  0.0938
56135SOL    HW175010   2.406   8.041   5.025 -0.4484  0.6678  0.3194
56135SOL    HW275011   2.276   8.076   4.955 -1.2694  0.4490  1.7012
56136SOL     OW75012   5.445   9.689  12.004 -0.0692  0.0334  0.4104
56136SOL    HW175013   5.485   9.602  11.997  0.7331  0.5237 -1.9196
56136SOL    HW275014   5.493   9.731  12.076  0.8848 -0.7689  0.2702
56137SOL     OW75015   5.874   4.920   8.900 -0.1917 -0.5934 -0.7376
56137SOL    HW175016   5.835   4.835   8.918  1.2363 -0.7167  2.6846
56137SOL    HW275017   5.807   4.983   8.925  0.0212 -0.7928  0.4234
56138SOL     OW75018  11.480   9.542   4.750 -0.3753  0.4401  0.5065
56138SOL    HW175019  11.437   9.606   4.693 -0.9198 -0.2276  0.1545
56138SOL    HW275020  11.471   9.459   4.704  1.2774  0.2738  0.4397
56139SOL     OW75021   8.332  10.829   7.911  0.2615  0.2074 -0.2485
56139SOL    HW175022   8.327  10.911   7.862  0.2284 -0.5141 -1.4978
56139SOL    HW275023   8.371  10.853   7.995  0.3871  1.4727 -0.6530
56140SOL     OW75024  11.657   4.973  11.684  0.3073 -0.1253  0.2136
56140SOL    HW175025  11.692   5.062  11.673  2.5508 -0.8664  0.6697
56140SOL    HW275026  11.680   4.950  11.774 -0.9677 -0.8890  0.3551
56141SOL     OW75027   3.662  11.850   5.331  0.4631  0.4225  0.4004
56141SOL    HW175028   3.594  11.865   5.266  1.3943  0.2176 -0.6344
56141SOL    HW275029   3.706  11.934   5.341 -0.2546  0.7006  1.4776
56142SOL     OW75030  11.268  12.002   8.628 -0.0667 -0.2419 -0.0541
56142SOL    HW175031  11.230  11.914   8.628 -1.2793  0.2575 -0.8004
56142SOL    HW275032  11.350  11.993   8.579  0.1995 -1.0961  0.5258
56143SOL     OW75033   9.177  11.188   7.965 -0.3272  0.0355 -0.0519
56143SOL    HW175034   9.100  11.132   7.954  0.7775 -1.8936  1.4503
56143SOL    HW275035   9.252  11.129   7.957  0.9564  1.5239  0.3768
56144SOL     OW75036   1.106  10.231  11.683 -0.6954 -0.6439  0.0995
56144SOL    HW175037   1.111  10.313  11.634 -1.4597 -0.1413  0.8170
56144SOL    HW275038   1.181  10.180  11.653 -0.2410  0.2894 -0.4085
56145SOL     OW75039  11.777   4.676  11.991 -0.5769  0.6370 -0.4458
56145SOL    HW175040  11.858   4.644  12.032 -0.8787  0.5985  0.1200
56145SOL    HW275041  11.806   4.710  11.906 -0.1823 -0.8357 -0.9413
56146SOL     OW75042   4.622   9.855   9.348 -0.3498  0.0505 -0.8489
56146SOL    HW175043   4.542   9.903   9.370  0.0793  0.7700 -0.8255
56146SOL    HW275044   4.662   9.834   9.432 -0.6693 -0.5884 -0.8512
56147SOL     OW75045  10.253   5.756  12.056 -0.2706 -0.0756 -0.3969
56147SOL    HW175046  10.341   5.774  12.090 -1.4330  0.7102  2.5481
56147SOL    HW275047  10.223   5.840  12.021 -1.1848  0.7547  2.1586
56148SOL     OW75048   0.942   6.621  12.025  0.2230 -0.2104 -0.0235
56148SOL    HW175049   0.919   6.692  12.085 -2.8300 -0.2943 -0.9113
56148SOL    HW275050   0.895   6.643  11.944  2.3230 -1.3125 -1.6232
56149SOL     OW75051   1.015   7.112   8.088  0.5987  0.2263 -0.2211
56149SOL    HW175052   0.968   7.105   8.004 -0.6818  0.5458  0.4434
56149SOL    HW275053   0.947   7.135   8.151  1.7123  0.8943  0.7552
56150SOL     OW75054   1.807  11.706   2.787  0.1963 -0.7355 -0.0350
56150SOL    HW175055   1.711  11.712   2.789  0.2627  0.4078  0.7111
56150SOL    HW275056   1.834  11.779   2.731  0.7017  0.1213  1.2954
56151SOL     OW75057   4.649   7.568   0.140 -0.4278 -0.2129  0.1996
56151SOL    HW175058   4.726   7.543   0.191 -0.8887 -0.8385  0.6006
56151SOL    HW275059   4.683   7.626   0.072  0.1357  1.0006  1.4828
56152SOL     OW75060   3.017  11.072   4.846 -0.6126 -0.6460  0.0319
56152SOL    HW175061   3.000  11.033   4.760 -1.2938  0.6352 -0.4476
56152SOL    HW275062   2.949  11.139   4.855  1.6882  1.8713 -0.1045
56153SOL     OW75063  10.933   6.912   5.097 -0.1911 -0.0390  0.5476
56153SOL    HW175064  10.856   6.947   5.143 -0.7298  0.8858 -0.9817
56153SOL    HW275065  10.897   6.866   5.021  0.6672 -1.6912  1.1039
56154SOL     OW75066   4.683   9.894  11.796  0.0674 -0.0757 -0.1965
56154SOL    HW175067   4.765   9.934  11.766  1.1719 -1.6458  0.5941
56154SOL    HW275068   4.703   9.801  11.803 -1.7526 -0.4708  0.1952
56155SOL     OW75069   4.687  12.706  11.777  0.1052 -0.0261  0.4340
56155SOL    HW175070   4.701  12.793  11.741 -0.1116 -0.6792 -1.3383
56155SOL    HW275071   4.771  12.680  11.814  1.3317 -0.5784 -2.5313
56156SOL     OW75072   6.302   1.150   0.120  0.0708  0.2861  0.0486
56156SOL    HW175073   6.289   1.088   0.048  1.7224  0.2756 -0.2675
56156SOL    HW275074   6.293   1.096   0.199  2.5140 -0.6521 -0.2335
56157SOL     OW75075   6.065   7.384  12.680 -0.2002  0.5258 -0.1912
56157SOL    HW175076   6.051   7.388  12.585  0.4538 -1.2372 -0.4025
56157SOL    HW275077   5.977   7.382  12.717 -0.5195 -1.2709 -0.9409
56158SOL     OW75078  10.837   8.535   5.545  0.1350 -0.1831 -0.0639
56158SOL    HW175079  10.893   8.522   5.469 -0.4080 -0.5713 -0.4014
56158SOL    HW275080  10.813   8.447   5.573 -1.1031 -0.0112 -0.5218
56159SOL     OW75081   7.679  10.069   5.772 -0.1159  0.3245 -0.3867
56159SOL    HW175082   7.680  10.157   5.734  1.4556 -0.2756 -1.8692
56159SOL    HW275083   7.661  10.084   5.865 -0.3440  2.1737 -0.6775
56160SOL     OW75084  10.552   6.299   7.269  0.1436  0.0162 -0.2101
56160SOL    HW175085  10.526   6.377   7.221  3.1272  0.1625 -1.8647
56160SOL    HW275086  10.567   6.330   7.359 -0.1952  0.9898 -0.4765
56161SOL     OW75087   2.456   4.970   8.593  0.2327  0.8491 -0.0294
56161SOL    HW175088   2.364   4.958   8.568 -0.0851  0.3359  1.3046
56161SOL    HW275089   2.499   4.995   8.511 -1.4950  3.4394 -0.2736
56162SOL     OW75090  11.321   2.173   1.995  0.1224 -0.3359 -0.2940
56162SOL    HW175091  11.241   2.178   2.046 -0.8214 -2.0038 -1.5060
56162SOL    HW275092  11.382   2.123   2.050  0.0755  0.2782  0.3198
56163SOL     OW75093   7.882   2.155   6.206 -0.0003  0.1442  0.0916
56163SOL    HW175094   7.797   2.187   6.177 -0.6706 -1.8155 -0.2796
56163SOL    HW275095   7.862   2.098   6.281  1.2078  1.1799  1.2485
56164SOL     OW75096   1.197   3.896   9.028 -0.0016 -0.4574  0.5889
56164SOL    HW175097   1.248   3.821   9.059  1.1386  0.0141 -0.0615
56164SOL    HW275098   1.232   3.914   8.941 -1.7293 -0.4817 -0.1324
56165SOL     OW75099   5.711   4.179  12.199 -0.2915  0.2204  0.8310
56165SOL    HW175100   5.743   4.208  12.285 -0.3920  1.7671  0.3727
56165SOL    HW275101   5.773   4.215  12.136 -2.3854  2.6586 -0.0215
56166SOL     OW75102   4.552   7.971   2.052  0.0273 -0.1604 -0.1282
56166SOL    HW175103   4.490   8.008   1.989  0.0727  0.0827 -0.0319
56166SOL    HW275104   4.613   8.043   2.069 -0.4479  0.0305  0.8042
56167SOL     OW75105   5.703   9.121   0.510 -0.0575 -0.4660  0.1311
56167SOL    HW175106   5.706   9.090   0.420 -1.6594  2.1327 -0.9254
56167SOL    HW275107   5.775   9.185   0.517 -1.3065  1.0235 -0.0728
56168SOL     OW75108   3.410   4.283   0.484  0.5433  0.2797  0.3955
56168SOL    HW175109   3.402   4.282   0.389  0.8379 -2.2934  0.3400
56168SOL    HW275110   3.351   4.353   0.512  0.7368  1.3521 -1.6587
56169SOL     OW75111   7.780  12.116   2.371  0.2802  0.3285 -0.1900
56169SOL    HW175112   7.755  12.208   2.373 -1.8312 -0.1951 -0.6460
56169SOL    HW275113   7.846  12.110   2.302  0.7488  1.5405  0.1264
56170SOL     OW75114  10.821   1.856  12.217 -0.5705  0.2397 -0.7656
56170SOL    HW175115  10.746   1.913  12.232  0.1234  0.7629  0.9151
56170SOL    HW275116  10.873   1.902  12.152 -1.4880  0.0440 -1.6712
56171SOL     OW75117  10.150   2.897   4.677 -0.0564  0.4977  0.3806
56171SOL    HW175118  10.144   2.988   4.706  1.6498  0.1546  1.9718
56171SOL    HW275119  10.178   2.904   4.585 -2.3273  1.5432 -0.3322
56172SOL     OW75120   6.551  11.597   6.784 -0.0443  0.1233 -0.0410
56172SOL    HW175121   6.583  11.677   6.743 -1.8727  1.5614  1.1464
56172SOL    HW275122   6.537  11.536   6.711  1.2716  0.9033 -0.9724
56173SOL     OW75123   9.437   5.846  10.241 -0.7291 -0.0835  0.1088
56173SOL    HW175124   9.437   5.751  10.231 -0.3576 -0.0257 -0.4247
56173SOL    HW275125   9.345   5.870  10.230 -0.5060 -0.1197 -2.3197
56174SOL     OW75126   3.521   3.679  11.275  0.2404  0.2140  0.6140
56174SOL    HW175127   3.427   3.661  11.280  0.4882 -1.2621  0.3462
56174SOL    HW275128   3.529   3.739  11.201 -0.3243 -1.1306 -0.5994
56175SOL     OW75129   3.199   3.361   3.845  0.3077  0.3646 -0.1205
56175SOL    HW175130   3.233   3.437   3.797 -2.3404  1.6730 -0.1252
56175SOL    HW275131   3.128   3.396   3.898  0.9063 -1.6618  2.1747
56176SOL     OW75132   2.609   0.046   8.747  0.4207  0.1424 -0.2180
56176SOL    HW175133   2.665   0.110   8.790 -1.1456  0.5448  1.3271
56176SOL    HW275134   2.569   0.093   8.674  1.5681  0.0320 -0.9318
56177SOL     OW75135   8.117   8.491   5.824  0.2804 -0.2890  0.3504
56177SOL    HW175136   8.093   8.423   5.888 -1.3449  0.3308  0.4402
56177SOL    HW275137   8.180   8.448   5.766 -0.2632 -1.6874  0.7568
56178SOL     OW75138   1.607   4.852  10.723 -0.3108 -0.2180  0.1592
56178SOL    HW175139   1.658   4.806  10.656 -0.6377  0.3460 -0.4893
56178SOL    HW275140   1.562   4.782  10.771  1.2148 -0.7491  0.8956
56179SOL     OW75141   5.515   9.061   5.179  0.3746 -0.0554  0.3350
56179SOL    HW175142   5.592   9.103   5.219 -0.7139  1.6015  0.8182
56179SOL    HW275143   5.521   9.085   5.087 -0.2535  1.2894  0.6117
56180SOL     OW75144   4.460   3.979   7.475 -0.0928 -0.4777 -0.1120
56180SOL    HW175145   4.463   4.069   7.508  0.0238 -0.8811  1.0463
56180SOL    HW275146   4.453   3.987   7.380  2.0788  0.7589 -0.2226
56181SOL     OW75147   5.156   7.500  10.718 -0.0608 -0.3346  0.1578
56181SOL    HW175148   5.151   7.492  10.623 -1.2914 -0.0047  0.1857
56181SOL    HW275149   5.222   7.568  10.732  1.0458 -1.2543 -0.4050
56182SOL     OW75150   8.477   5.431  12.071  0.0923 -0.2966 -0.4383
56182SOL    HW175151   8.514   5.508  12.026 -0.2122 -0.9217 -1.7995
56182SOL    HW275152   8.457   5.463  12.159 -1.4123  1.6210 -1.3860
56183SOL     OW75153   6.254   6.815   2.388  0.1425 -0.5035  0.3973
56183SOL    HW175154   6.188   6.855   2.332  0.4864 -0.5928 -0.0795
56183SOL    HW275155   6.255   6.723   2.361  1.0071 -0.3459 -0.1547
56184SOL     OW75156   5.585   4.532  12.311 -0.1459  0.1896  0.1604
56184SOL    HW175157   5.650   4.587  12.354 -0.5306  0.0239  0.9723
56184SOL    HW275158   5.500   4.569  12.337 -0.3907  0.3008 -0.7445
56185SOL     OW75159   4.649   9.708  11.259  0.0596 -0.2052 -0.0448
56185SOL    HW175160   4.581   9.710  11.326 -0.6628  1.0864 -0.7832
56185SOL    HW275161   4.731   9.719  11.307 -0.3822 -0.2416  0.7170
56186SOL     OW75162   5.313  10.286   0.221 -0.1214  0.0026  0.3368
56186SOL    HW175163   5.355  10.264   0.139 -0.3982  0.0259  0.1859
56186SOL    HW275164   5.224  10.312   0.196 -0.4636 -0.7717  0.7164
56187SOL     OW75165   7.549   0.106   0.581 -0.5459  0.0230 -0.8048
56187SOL    HW175166   7.523   0.058   0.660 -0.0352 -0.8516 -1.1615
56187SOL    HW275167   7.490   0.182   0.579 -0.9548 -0.2571  0.0954
56188SOL     OW75168   7.524   3.376   9.236 -0.0322  0.2718 -0.4138
56188SOL    HW175169   7.478   3.312   9.183  0.8882  0.7142 -1.7979
56188SOL    HW275170   7.613   3.376   9.202 -0.0030  2.2563 -0.4620
56189SOL     OW75171  12.471  11.419   0.623  0.0126 -0.2668 -0.1941
56189SOL    HW175172  12.498  11.418   0.715  1.1025 -0.2925 -0.4955
56189SOL    HW275173  12.401  11.355   0.617 -2.0080  1.6553  1.1607
56190SOL     OW75174   6.497   7.984  11.864 -0.5545 -0.0549  0.0526
56190SOL    HW175175   6.458   7.998  11.950  0.7640  3.3218  0.2952
56190SOL    HW275176   6.459   8.053  11.809  1.0740 -0.0309 -1.1224
56191SOL     OW75177   6.278  11.876  10.714 -0.1956  0.4778  0.3134
56191SOL    HW175178   6.291  11.792  10.668 -0.6221  0.0332  0.9915
56191SOL    HW275179   6.192  11.868  10.755 -0.1921  1.2111  0.4774
56192SOL     OW75180   4.575  11.982   6.863 -0.2032  0.5892 -0.5980
56192SOL    HW175181   4.510  11.917   6.890 -1.6204  2.1475 -0.1401
56192SOL    HW275182   4.654  11.957   6.911 -0.6414 -0.8976 -0.5819
56193SOL     OW75183   2.450   1.223   6.397 -0.4667  0.5410 -0.5729
56193SOL    HW175184   2.438   1.201   6.305 -0.7663 -1.1843 -0.1496
56193SOL    HW275185   2.528   1.176   6.424  0.1252  1.7266 -0.1334
56194SOL     OW75186   8.791  12.702   8.466  0.2814 -0.2213 -0.1737
56194SOL    HW175187   8.760  12.623   8.511  1.0848 -1.2099 -1.2582
56194SOL    HW275188   8.803  12.673   8.375  2.0406  0.7408 -0.2817
56195SOL     OW75189   6.827  10.765   9.968 -0.1313  0.1828 -0.4159
56195SOL    HW175190   6.784  10.796  10.048  0.6116  0.3595 -0.0803
56195SOL    HW275191   6.761  10.779   9.899 -0.3236  1.2107 -0.0420
56196SOL     OW75192   3.721   6.001   5.545  0.7788 -0.0543  0.1392
56196SOL    HW175193   3.648   6.049   5.584 -1.2984 -3.0565  0.2755
56196SOL    HW275194   3.785   5.995   5.616 -0.1718  0.0815  1.0437
56197SOL     OW75195   4.019   6.837   6.306 -0.5955  0.5136 -0.7589
56197SOL    HW175196   4.032   6.913   6.363  1.7171  0.0442 -0.5415
56197SOL    HW275197   3.983   6.873   6.225 -0.3294  1.7299 -0.3509
56198SOL     OW75198   5.018  10.386   7.319  0.4579 -0.2502  1.0149
56198SOL    HW175199   4.943  10.445   7.313  0.5667 -0.1082  1.0389
56198SOL    HW275200   4.985  10.302   7.289  0.3949 -0.0923  0.6470
56199SOL     OW75201   1.296   6.165   0.020 -0.1605 -0.7239  0.7274
56199SOL    HW175202   1.249   6.114   0.087  0.1818  1.8371  3.1258
56199SOL    HW275203   1.274   6.256   0.040  2.4787  0.3389 -0.6873
56200SOL     OW75204   7.414   4.792   4.759 -0.1075  0.0993 -0.0429
56200SOL    HW175205   7.339   4.751   4.717  0.0758 -0.5103  0.2151
56200SOL    HW275206   7.440   4.730   4.828  0.5216  0.3859 -0.0150
56201SOL     OW75207  11.792  10.233  12.371 -0.1063  0.2737  0.2937
56201SOL    HW175208  11.823  10.305  12.316 -1.5630 -0.3697 -1.4961
56201SOL    HW275209  11.872  10.192  12.404  0.8279  1.0778 -0.8593
56202SOL     OW75210   0.863   3.205  10.524 -1.0342 -0.0225  0.3222
56202SOL    HW175211   0.920   3.221  10.599 -0.6358 -0.1373  0.0461
56202SOL    HW275212   0.797   3.144  10.557  0.1242 -1.4185  0.1291
56203SOL     OW75213  12.578   0.936   0.343  0.4762 -0.6964 -0.3357
56203SOL    HW175214  12.658   0.982   0.369 -1.3180  1.4821  1.8373
56203SOL    HW275215  12.539   0.993   0.276 -0.1037 -0.7772 -0.0740
56204SOL     OW75216  10.109  10.128   5.168 -0.1395 -0.0985 -0.3172
56204SOL    HW175217  10.077  10.078   5.244 -2.0891  0.8365 -0.4542
56204SOL    HW275218  10.134  10.213   5.204  1.3438 -0.4724 -0.3833
56205SOL     OW75219  11.737   2.152   2.244 -0.2359 -0.0510 -0.2143
56205SOL    HW175220  11.748   2.167   2.337  0.9185 -1.0704 -0.1564
56205SOL    HW275221  11.643   2.165   2.228 -0.9368 -2.1877  1.5754
56206SOL     OW75222   5.418   2.917  10.892 -0.4769  0.6458 -0.5796
56206SOL    HW175223   5.383   2.996  10.850  0.6291  0.8793 -1.0946
56206SOL    HW275224   5.511   2.918  10.871 -0.1287  0.0873  0.8397
56207SOL     OW75225  10.898   2.248   4.004 -0.4859  0.3082  0.1179
56207SOL    HW175226  10.866   2.318   4.060  0.9152  0.7435  0.4026
56207SOL    HW275227  10.967   2.289   3.952 -1.0433 -0.3515 -1.1939
56208SOL     OW75228   8.616   8.583   5.383 -0.2762  0.3330 -0.0867
56208SOL    HW175229   8.555   8.631   5.327 -0.7121 -0.4350 -0.2707
56208SOL    HW275230   8.702   8.602   5.345 -0.4322  1.0277 -0.1134
56209SOL     OW75231   2.535  10.056   5.527 -0.3860 -0.3895 -0.1521
56209SOL    HW175232   2.491  10.138   5.504  0.9385  0.2756 -0.4271
56209SOL    HW275233   2.519  10.045   5.621 -2.1905 -0.8502 -0.4837
56210SOL     OW75234   0.279   7.867   9.878  0.3517  0.4118  0.2261
56210SOL    HW175235   0.338   7.800   9.843  0.1249  0.8843 -1.0922
56210SOL    HW275236   0.286   7.857   9.973  1.9840 -0.0395  0.0896
56211SOL     OW75237   6.152   5.730   6.675  0.0933  0.5773  0.3694
56211SOL    HW175238   6.058   5.716   6.682  0.0629  0.9533  0.7942
56211SOL    HW275239   6.162   5.809   6.623  0.1211  1.3181  1.4710
56212SOL     OW75240   6.088   4.237   8.220 -0.4166  0.1111  0.0764
56212SOL    HW175241   6.032   4.231   8.297 -0.4329 -3.2000 -0.0364
56212SOL    HW275242   6.032   4.209   8.147 -0.4602  3.3554 -1.2858
56213SOL     OW75243   3.182   4.000   9.003  0.5478 -0.0860 -0.2138
56213SOL    HW175244   3.190   3.916   9.047  2.1391  1.0583  1.8889
56213SOL    HW275245   3.104   4.040   9.042 -0.0056 -0.4099 -0.9591
56214SOL     OW75246   3.212  12.118  12.760 -0.3073  0.3052 -0.5533
56214SOL    HW175247   3.210  12.060  12.836  3.0595  1.2816  0.4600
56214SOL    HW275248   3.219  12.059  12.685 -2.0757 -0.6338 -0.0380
56215SOL     OW75249   1.799   3.341   9.892 -0.5487 -0.0801  0.3782
56215SOL    HW175250   1.781   3.297   9.809 -0.0391  0.0607  0.1869
56215SOL    HW275251   1.778   3.276   9.959 -1.4649 -0.0198  0.1669
56216SOL     OW75252  10.441   6.716   3.164  0.1181 -0.3954 -0.3584
56216SOL    HW175253  10.370   6.681   3.110 -0.7443  0.9834 -0.1805
56216SOL    HW275254  10.402   6.727   3.251  0.5677  0.2633 -0.2275
56217SOL     OW75255  12.285  12.302   3.240 -0.9318  0.0745 -0.2800
56217SOL    HW175256  12.219  12.369   3.259 -1.9297 -1.4327  2.1471
56217SOL    HW275257  12.243  12.246   3.175 -0.7095  0.9192 -1.1712
56218SOL     OW75258   9.865   9.921  10.260 -0.4241  0.7337 -0.6841
56218SOL    HW175259   9.838   9.949  10.348  2.1114  1.0382  0.1041
56218SOL    HW275260   9.847   9.828  10.257  0.7828  0.4146  0.7705
56219SOL     OW75261   2.782   4.362   6.829  0.5232 -0.2615  0.4549
56219SOL    HW175262   2.868   4.326   6.852 -0.0132  0.9696  5.7351
56219SOL    HW275263   2.801   4.450   6.798  1.2635  0.3129  2.3861
56220SOL     OW75264   4.036  11.908  10.533  0.3194  0.3018  1.3299
56220SOL    HW175265   4.065  11.995  10.506 -1.1781  0.7752  1.1565
56220SOL    HW275266   4.109  11.851  10.513  0.0615  0.9300 -1.9309
56221SOL     OW75267  11.871   5.353  10.585  0.0268  0.2408 -0.0785
56221SOL    HW175268  11.867   5.293  10.659  1.4994 -1.1396 -1.0510
56221SOL    HW275269  11.965   5.367  10.570  0.0308 -2.1448 -3.6380
56222SOL     OW75270   9.580   8.065   6.108  0.3266 -0.1312  0.4828
56222SOL    HW175271   9.597   8.120   6.031 -1.1094  0.4076  0.5132
56222SOL    HW275272   9.524   7.995   6.075 -3.0146  1.7938  1.4786
56223SOL     OW75273   1.940   9.503   9.739 -0.2311 -0.1038  0.1827
56223SOL    HW175274   1.855   9.509   9.697 -0.3549  0.1219  0.4627
56223SOL    HW275275   1.923   9.523   9.831 -0.1466 -1.6629  0.5659
56224SOL     OW75276   3.103  11.626   8.706 -0.0474  0.3151 -0.7377
56224SOL    HW175277   3.172  11.656   8.646 -0.4652  1.1328 -0.8319
56224SOL    HW275278   3.061  11.553   8.660 -0.7647  1.3169 -1.7591
56225SOL     OW75279   8.408  11.912  10.536 -0.1536  0.2844  0.3331
56225SOL    HW175280   8.385  11.941  10.448 -0.7289  0.8978  0.6764
56225SOL    HW275281   8.485  11.963  10.560  0.2161 -0.1369  0.0561
56226SOL     OW75282   7.856   4.133   4.723 -0.2715 -0.2246  0.0689
56226SOL    HW175283   7.780   4.140   4.781 -0.3427 -2.6457  0.3641
56226SOL    HW275284   7.916   4.074   4.770  0.7923 -0.1810 -1.1896
56227SOL     OW75285   8.722  12.619   0.523 -0.6208  0.3064  0.2070
56227SOL    HW175286   8.706  12.629   0.429 -0.4337 -0.6687  0.0535
56227SOL    HW275287   8.764  12.701   0.550  0.3348  0.1727 -0.7949
56228SOL     OW75288   5.755  12.674   2.791  0.3134 -0.2271  0.2850
56228SOL    HW175289   5.810  12.736   2.839  1.4090 -0.7246 -0.3080
56228SOL    HW275290   5.767  12.696   2.699 -1.4155  0.4148  0.1727
56229SOL     OW75291   1.018  11.304   3.600 -0.2758  0.1426  0.3064
56229SOL    HW175292   0.966  11.282   3.523 -0.8093  0.4621  0.5700
56229SOL    HW275293   0.983  11.249   3.670  1.0962 -1.1407  0.0315
56230SOL     OW75294   9.004   7.926  12.002  0.0972  0.6169  0.4195
56230SOL    HW175295   9.006   7.903  12.095  0.5868  0.6230  0.4161
56230SOL    HW275296   8.918   7.899  11.972  1.1145 -2.6476  0.0681
56231SOL     OW75297   9.759   9.660   4.362 -0.6564 -0.7997 -0.0497
56231SOL    HW175298   9.731   9.645   4.453  0.0602 -0.9641  0.1499
56231SOL    HW275299   9.703   9.601   4.310 -0.2421 -1.6107  0.4047
56232SOL     OW75300   2.035   3.045   1.483 -0.1313 -0.4099 -0.4104
56232SOL    HW175301   1.981   2.978   1.442  0.7741 -1.0537 -0.5665
56232SOL    HW275302   1.981   3.078   1.556 -0.8507 -0.8115 -0.7560
56233SOL     OW75303   6.052   2.776   1.508  0.0394 -0.2030 -0.1176
56233SOL    HW175304   6.060   2.821   1.424  2.0683 -1.0897 -0.4696
56233SOL    HW275305   6.052   2.846   1.573  4.5253  0.4749 -0.5380
56234SOL     OW75306   6.208   5.030   0.232 -0.3525 -0.5351  0.3442
56234SOL    HW175307   6.217   5.004   0.141 -2.1173 -0.0061 -0.0272
56234SOL    HW275308   6.282   5.088   0.249  0.8863 -1.8974 -0.2486
56235SOL     OW75309   0.570   0.211   6.507  0.2124 -0.1308  0.1494
56235SOL    HW175310   0.535   0.150   6.572 -0.8383 -0.0398 -0.3196
56235SOL    HW275311   0.550   0.172   6.423  0.9080  0.1212 -0.1465
56236SOL     OW75312   4.930   9.446   6.615  0.1383 -0.4444  0.0364
56236SOL    HW175313   4.843   9.448   6.575  0.3951 -1.3204 -0.5853
56236SOL    HW275314   4.978   9.382   6.564  1.4902  0.8082 -0.3176
56237SOL     OW75315   7.389   5.453   0.711  0.0230 -0.2286 -0.2562
56237SOL    HW175316   7.336   5.378   0.739 -0.6762  0.1713 -0.4744
56237SOL    HW275317   7.343   5.487   0.634  0.9356 -0.2336 -0.8161
56238SOL     OW75318   2.046   6.355  12.244  0.3725 -0.3936 -0.1341
56238SOL    HW175319   2.085   6.305  12.172  0.5464  0.0031 -0.3174
56238SOL    HW275320   1.955   6.327  12.245  0.6259 -1.2253  0.2079
56239SOL     OW75321   9.136   5.424   5.128  0.7162 -0.3885  0.7677
56239SOL    HW175322   9.142   5.471   5.211 -2.2102  0.3044  0.6866
56239SOL    HW275323   9.042   5.406   5.117  1.1176 -1.3025 -1.9379
56240SOL     OW75324   1.432   1.397   9.449  0.8323  0.0168  0.9449
56240SOL    HW175325   1.354   1.442   9.416 -0.1920 -1.4474  1.3056
56240SOL    HW275326   1.472   1.358   9.372 -0.9440 -2.4543  1.1649
56241SOL     OW75327  12.028   1.178   8.048  0.3517 -0.2321  0.2877
56241SOL    HW175328  11.961   1.222   8.101 -1.5846  0.0617 -2.2280
56241SOL    HW275329  12.062   1.247   7.991 -0.4169 -1.2308 -1.4785
56242SOL     OW75330   1.863   9.174  11.395  0.2475 -0.6111  0.3649
56242SOL    HW175331   1.947   9.219  11.387 -0.8157  1.3467 -0.4159
56242SOL    HW275332   1.839   9.153  11.305 -1.2770  1.2063  0.2976
56243SOL     OW75333   7.951  10.389  12.307  0.4291 -0.6631  0.1484
56243SOL    HW175334   7.945  10.322  12.376  0.3496  0.3748  1.1830
56243SOL    HW275335   8.040  10.423  12.314  0.2703 -0.2207  0.0649
56244SOL     OW75336   9.197   9.887   2.584  0.0944 -0.0709  0.1449
56244SOL    HW175337   9.291   9.883   2.569  0.7795  0.1618  3.5323
56244SOL    HW275338   9.164   9.803   2.551  1.8639 -1.0915  0.8116
56245SOL     OW75339   6.460   4.315   0.552 -0.5466 -0.3639 -0.6514
56245SOL    HW175340   6.552   4.300   0.533 -0.3456 -1.1815  0.7756
56245SOL    HW275341   6.459   4.387   0.615 -0.8566 -0.4827 -0.5149
56246SOL     OW75342   2.243  12.758   4.248  0.4604 -0.1776  0.0053
56246SOL    HW175343   2.288  12.696   4.190 -0.5820 -1.2746  0.3373
56246SOL    HW275344   2.303  12.770   4.321  1.3851  0.4993 -0.8359
56247SOL     OW75345   0.578   2.323   0.777 -0.5551 -0.1724  0.2619
56247SOL    HW175346   0.636   2.316   0.702  1.2851  0.9712  1.4867
56247SOL    HW275347   0.499   2.365   0.743  0.3013  0.4729 -0.9814
56248SOL     OW75348  12.261   9.378   0.994 -0.4457  0.0177  0.0087
56248SOL    HW175349  12.256   9.468   1.024  0.1072  0.1249 -0.1955
56248SOL    HW275350  12.265   9.384   0.899  1.0411 -0.1239  0.0382
56249SOL     OW75351   9.597   5.348   3.439  0.0472 -0.0049  0.0178
56249SOL    HW175352   9.508   5.318   3.423 -0.9951  2.8546 -0.2419
56249SOL    HW275353   9.627   5.297   3.514 -0.4018 -3.4845 -1.9554
56250SOL     OW75354   0.708   1.099   0.158 -0.0714 -0.4900  0.7147
56250SOL    HW175355   0.719   1.169   0.094 -0.6766 -0.3570  0.7495
56250SOL    HW275356   0.696   1.020   0.105 -1.4235 -0.2562  0.6291
56251SOL     OW75357   0.897   4.353   6.173  0.0125 -0.0501 -0.6306
56251SOL    HW175358   0.954   4.305   6.113  2.8503  0.5635  1.3338
56251SOL    HW275359   0.924   4.444   6.164 -0.9285  0.3180  0.1162
56252SOL     OW75360   8.251   7.423   5.074  0.0352 -0.4565  1.0956
56252SOL    HW175361   8.206   7.358   5.128 -1.9627  1.3682  1.8094
56252SOL    HW275362   8.254   7.501   5.129  1.9707  0.2167  0.1254
56253SOL     OW75363   6.431   6.691   1.701  0.4198  0.1668  0.1592
56253SOL    HW175364   6.524   6.709   1.689  0.4257 -0.0500 -0.1142
56253SOL    HW275365   6.394   6.695   1.613  0.2537 -0.2251  0.2104
56254SOL     OW75366   3.864   1.782   8.827 -0.4200 -0.2537  0.3173
56254SOL    HW175367   3.881   1.694   8.793 -0.2646  0.3126 -1.1476
56254SOL    HW275368   3.810   1.824   8.760 -2.3545  0.0861  1.9846
56255SOL     OW75369   3.432   9.911   6.628  0.1764 -0.3339  0.0541
56255SOL    HW175370   3.457   9.930   6.538  0.4375 -0.9699 -0.0188
56255SOL    HW275371   3.365   9.975   6.649  1.5013  1.0949  0.0674
56256SOL     OW75372   0.104   1.164   5.949 -0.0943  0.4142  0.6383
56256SOL    HW175373   0.011   1.144   5.933 -0.1631 -1.5570  2.9656
56256SOL    HW275374   0.147   1.078   5.947  1.6252  1.2575  0.0796
56257SOL     OW75375   2.725   3.184   7.337 -0.2219  0.1388 -0.4802
56257SOL    HW175376   2.696   3.094   7.318  1.2736 -1.0452  2.2702
56257SOL    HW275377   2.647   3.238   7.324 -2.1052 -2.0478  0.9286
56258SOL     OW75378   2.868   0.649   3.372  0.4943  0.2889 -0.7824
56258SOL    HW175379   2.865   0.676   3.464  1.1022 -2.4486  0.1280
56258SOL    HW275380   2.783   0.609   3.355  0.2003  1.1987 -1.6227
56259SOL     OW75381   7.033  11.566   0.123  0.0096 -0.2251 -0.2078
56259SOL    HW175382   7.001  11.476   0.114 -0.6827 -0.2168  1.7709
56259SOL    HW275383   7.062  11.573   0.214 -1.4789  2.0157  0.1747
56260SOL     OW75384   9.525   3.745   2.083  0.1245  0.1212  0.4620
56260SOL    HW175385   9.531   3.809   2.012 -1.1826 -1.9072 -1.6035
56260SOL    HW275386   9.432   3.728   2.093  0.4265 -1.2564  1.1665
56261SOL     OW75387  10.449   8.446   1.890  0.4086 -0.0114  0.4241
56261SOL    HW175388  10.462   8.539   1.871 -0.4068  0.1863  0.7747
56261SOL    HW275389  10.369   8.423   1.842 -1.3817  0.3618  2.9855
56262SOL     OW75390  10.130   3.021  12.621 -0.2511 -0.0502  0.0349
56262SOL    HW175391  10.177   2.993  12.699 -0.0650 -0.4170 -0.2051
56262SOL    HW275392  10.093   2.940  12.584 -1.6408  0.2993  0.5793
56263SOL     OW75393  10.783   5.078  11.049 -0.2258  0.2343 -0.2875
56263SOL    HW175394  10.811   5.167  11.069 -0.9463 -0.1008  2.7414
56263SOL    HW275395  10.832   5.054  10.970  1.2926  2.6601 -0.1830
56264SOL     OW75396   3.651   5.494   5.003 -0.2068  0.3771  0.5527
56264SOL    HW175397   3.703   5.502   4.922  0.6033 -0.5268  0.9646
56264SOL    HW275398   3.593   5.420   4.987  0.3168 -0.1312  0.9879
56265SOL     OW75399  10.167   4.964  10.153 -0.4365 -0.3093  0.3348
56265SOL    HW175400  10.097   4.904  10.130  0.0788 -1.1479  0.9208
56265SOL    HW275401  10.125   5.031  10.207 -0.4641 -1.9106  2.4205
56266SOL     OW75402  10.921   5.191   0.556 -0.9637  0.0773 -0.1275
56266SOL    HW175403  10.892   5.106   0.525 -1.5083  1.2148 -3.0308
56266SOL    HW275404  10.850   5.220   0.615 -0.6771 -1.4796  1.0408
56267SOL     OW75405   1.626   3.677  11.414  0.1283  0.1587 -0.1038
56267SOL    HW175406   1.568   3.705  11.484  0.2134 -1.1440  0.5144
56267SOL    HW275407   1.568   3.646  11.344  0.0597  0.6587 -0.2722
56268SOL     OW75408   0.352   9.027  10.324 -0.1197  0.8590 -0.2693
56268SOL    HW175409   0.378   8.981  10.244  0.7301  0.5521  0.1759
56268SOL    HW275410   0.303   8.963  10.374 -0.6822  1.0611 -0.5489
56269SOL     OW75411  11.165   5.619  11.318 -0.1370 -0.2431 -0.2604
56269SOL    HW175412  11.121   5.694  11.278 -0.2592 -0.0090  0.3053
56269SOL    HW275413  11.258   5.637  11.308 -0.0524  1.6088  2.7167
56270SOL     OW75414   0.560   0.080   7.682 -0.6881 -0.0862 -0.9249
56270SOL    HW175415   0.650   0.057   7.661 -0.1795  0.9633  0.0463
56270SOL    HW275416   0.520  -0.002   7.712 -0.4550 -0.8467 -2.5934
56271SOL     OW75417  10.370  11.838   7.504  0.0943 -0.5390 -0.0202
56271SOL    HW175418  10.425  11.907   7.467 -2.2773  0.6290 -1.6490
56271SOL    HW275419  10.365  11.772   7.435 -2.7308  0.7181 -1.1875
56272SOL     OW75420   5.756  12.766  11.422 -0.0173  0.1549 -0.3596
56272SOL    HW175421   5.680  12.725  11.382 -0.5578 -0.8368  1.5627
56272SOL    HW275422   5.759  12.854  11.383 -0.5690 -0.6647 -2.3821
56273SOL     OW75423   9.448  12.359  10.655 -0.3367 -0.7273 -0.4311
56273SOL    HW175424   9.392  12.302  10.706 -0.4720  0.0371  0.2911
56273SOL    HW275425   9.487  12.301  10.588 -1.1431 -1.4670 -0.2743
56274SOL     OW75426   6.475   5.162   9.816  0.4411 -0.4964 -0.2042
56274SOL    HW175427   6.440   5.249   9.796  1.3505 -0.3876 -1.4924
56274SOL    HW275428   6.409   5.121   9.871 -0.2869  0.7858 -0.0881
56275SOL     OW75429   0.333  10.870   0.945 -0.7436 -0.4526 -0.1045
56275SOL    HW175430   0.374  10.787   0.967  2.0195  0.5940 -0.8482
56275SOL    HW275431   0.314  10.911   1.029  0.1914 -0.7972  0.2854
56276SOL     OW75432   8.560   9.614  10.296 -0.1504 -1.1202 -0.6210
56276SOL    HW175433   8.565   9.652  10.208 -1.7019 -0.7253 -0.5656
56276SOL    HW275434   8.490   9.662  10.339  0.9960 -0.8935  1.0675
56277SOL     OW75435   3.549   2.069   9.843  0.4982 -1.3374 -0.0171
56277SOL    HW175436   3.493   2.051   9.919 -0.2812 -0.5444 -0.3913
56277SOL    HW275437   3.638   2.067   9.879  0.0696  3.0098  1.8762
56278SOL     OW75438   8.381   3.622  11.354 -0.5650 -0.0538 -0.1276
56278SOL    HW175439   8.347   3.540  11.389  0.1960 -0.3412 -0.0505
56278SOL    HW275440   8.418   3.598  11.269 -0.1885  0.1785 -0.0295
56279SOL     OW75441   7.942   5.047   7.658 -0.0439 -0.1923  0.7167
56279SOL    HW175442   7.962   4.954   7.669 -1.6001 -0.3724  2.4985
56279SOL    HW275443   7.895   5.071   7.737 -0.0893  2.0287  0.0844
56280SOL     OW75444   6.971   6.755   4.372  0.7611  0.2077 -0.2848
56280SOL    HW175445   7.031   6.829   4.379  1.4277 -0.4631  2.3159
56280SOL    HW275446   6.992   6.715   4.288  4.1353 -0.0608  0.5569
56281SOL     OW75447   0.576   0.881   4.758  0.5621 -0.2416  0.6678
56281SOL    HW175448   0.663   0.903   4.790  0.8653  1.1919 -0.9694
56281SOL    HW275449   0.589   0.803   4.705  0.5089 -1.0825  1.8616
56282SOL     OW75450   9.340  11.305   9.294 -0.4109 -0.3853  0.0263
56282SOL    HW175451   9.329  11.389   9.338 -0.0716 -1.2798  1.9300
56282SOL    HW275452   9.431  11.281   9.309 -0.1742 -0.5629 -1.5287
56283SOL     OW75453  12.167   8.716   8.220 -0.2010 -0.2743 -0.2082
56283SOL    HW175454  12.149   8.690   8.310 -0.7778 -0.4519 -0.3697
56283SOL    HW275455  12.121   8.800   8.209 -2.1108 -1.3602 -1.0157
56284SOL     OW75456   8.709   4.163   6.155 -0.0700 -0.3204 -0.2981
56284SOL    HW175457   8.722   4.184   6.247  0.0497  0.1500 -0.4164
56284SOL    HW275458   8.781   4.208   6.110 -1.0428  0.8185 -0.7829
56285SOL     OW75459   6.236   5.105   7.187 -0.6885 -0.3120  0.8509
56285SOL    HW175460   6.303   5.038   7.199  0.6487  0.6476 -0.9419
56285SOL    HW275461   6.183   5.073   7.114 -0.3396  0.3693  0.3015
56286SOL     OW75462   4.537   8.003   4.977  0.0651 -0.0064 -0.4867
56286SOL    HW175463   4.546   8.008   4.881  0.3562  2.3757 -0.3878
56286SOL    HW275464   4.443   7.995   4.992 -0.0561  0.4666 -0.9674
56287SOL     OW75465   8.446   5.555   3.504  0.0261 -0.6667  0.2691
56287SOL    HW175466   8.375   5.509   3.460  0.5354 -0.8974 -0.3220
56287SOL    HW275467   8.490   5.488   3.556  1.5216 -1.1815 -1.5307
56288SOL     OW75468   7.444  10.022  10.307 -0.0718 -0.2448  0.4043
56288SOL    HW175469   7.407   9.934  10.304  1.0028 -0.7004 -0.1090
56288SOL    HW275470   7.490  10.025  10.392 -0.3445 -0.0771  0.5469
56289SOL     OW75471  11.317  12.216   3.711  0.0500 -0.3213  0.3400
56289SOL    HW175472  11.348  12.157   3.779  0.0468  0.2241  0.8281
56289SOL    HW275473  11.233  12.249   3.744 -0.6562 -1.1536 -0.5916
56290SOL     OW75474   5.258   4.616  11.252 -0.0573  0.2565  0.3744
56290SOL    HW175475   5.280   4.657  11.336  1.0419  0.4188  0.0225
56290SOL    HW275476   5.312   4.538  11.248 -1.0397 -0.4355  0.3638
56291SOL     OW75477   9.844  11.363  10.875  0.3278 -0.3593 -0.4245
56291SOL    HW175478   9.896  11.283  10.889  1.0033 -0.0701 -1.1828
56291SOL    HW275479   9.779  11.362  10.945  0.4956 -1.4419 -0.2648
56292SOL     OW75480  12.366   1.484  11.368 -0.2361 -0.2664  0.1875
56292SOL    HW175481  12.360   1.579  11.380  0.6258 -0.1539 -0.1942
56292SOL    HW275482  12.355   1.448  11.456  0.2067  0.2336  0.4563
56293SOL     OW75483   1.812  11.671   8.150 -0.4123 -0.1640  0.2458
56293SOL    HW175484   1.899  11.699   8.178 -0.7896 -1.0722  2.5636
56293SOL    HW275485   1.816  11.672   8.055  1.6742  1.1704  0.2742
56294SOL     OW75486   5.485  10.504   9.125  0.2471  0.5547 -0.3756
56294SOL    HW175487   5.476  10.414   9.093  1.3989  0.2184  0.1945
56294SOL    HW275488   5.398  10.528   9.156  0.0905 -0.6136  0.1048
56295SOL     OW75489   3.948   5.617   0.276  0.1307 -0.5493  0.2115
56295SOL    HW175490   3.897   5.609   0.196 -0.4501  0.7664  0.4145
56295SOL    HW275491   3.989   5.532   0.288  1.3500 -0.3937 -2.2224
56296SOL     OW75492   7.986   6.539   6.922 -0.1566  0.4301  0.3723
56296SOL    HW175493   8.069   6.499   6.897 -1.6264 -1.6864 -1.5525
56296SOL    HW275494   7.992   6.629   6.889  1.5031  0.4648  0.6663
56297SOL     OW75495   2.982   8.430   1.875  0.1990 -0.8930  0.2691
56297SOL    HW175496   3.012   8.448   1.786  0.1597 -1.1227  0.2082
56297SOL    HW275497   2.942   8.512   1.905 -0.5858 -1.0824 -0.2480
56298SOL     OW75498   4.638   1.436  11.504  0.0652 -0.0988  0.7458
56298SOL    HW175499   4.705   1.479  11.450  2.5316 -1.9844  2.1298
56298SOL    HW275500   4.562   1.429  11.446  0.5353  3.2067 -0.5123
56299SOL     OW75501   8.021   8.340   1.293  0.7447  0.6110 -0.4937
56299SOL    HW175502   8.010   8.342   1.388 -1.2214  0.5260 -0.6816
56299SOL    HW275503   8.080   8.413   1.274  1.5564  0.3321  0.8111
56300SOL     OW75504  11.808   4.270   6.604 -0.2723 -0.1782 -0.0141
56300SOL    HW175505  11.783   4.263   6.512 -0.0766  0.9987 -0.1647
56300SOL    HW275506  11.898   4.237   6.607 -0.0209  0.4697 -0.3754
56301SOL     OW75507   8.826   9.654   2.616 -0.1423  0.0051  0.5135
56301SOL    HW175508   8.807   9.747   2.603 -1.6768  0.0124  2.2887
56301SOL    HW275509   8.810   9.640   2.710 -1.0706 -2.2722  0.0736
56302SOL     OW75510   4.034   4.628   7.328 -0.4937  0.0917  0.0279
56302SOL    HW175511   4.045   4.644   7.234  0.8382  0.9754  0.3194
56302SOL    HW275512   4.123   4.614   7.361 -0.7786  1.3811  1.4283
56303SOL     OW75513   0.480   6.408   2.128  0.1407  0.0723 -0.3218
56303SOL    HW175514   0.439   6.330   2.090  0.0018  0.1065 -0.2465
56303SOL    HW275515   0.477   6.392   2.223 -0.2797  0.3598 -0.2855
56304SOL     OW75516   8.276   1.496   2.717 -0.2820 -0.4007  0.7173
56304SOL    HW175517   8.305   1.430   2.654  1.7231 -0.9921  2.1496
56304SOL    HW275518   8.357   1.525   2.759 -1.2119  2.2743  0.8366
56305SOL     OW75519   5.757   3.284   8.906  0.1549  0.2548 -0.0617
56305SOL    HW175520   5.743   3.374   8.933 -2.4162  0.6140 -2.1487
56305SOL    HW275521   5.687   3.234   8.948  0.9698 -0.6409  0.2992
56306SOL     OW75522  12.445   1.130  10.787  0.1347  0.0318  0.2420
56306SOL    HW175523  12.351   1.110  10.796  0.1244  0.2893  0.7450
56306SOL    HW275524  12.459   1.204  10.845  0.6001  0.1697 -0.0446
56307SOL     OW75525   2.762   5.636   6.220  0.0327 -0.2340 -0.3605
56307SOL    HW175526   2.796   5.583   6.292 -1.1809 -1.7566 -0.8487
56307SOL    HW275527   2.733   5.717   6.261 -0.2674 -0.9063  0.7996
56308SOL     OW75528   2.334   0.447   0.348  0.1369  0.4003 -0.3528
56308SOL    HW175529   2.355   0.362   0.311  0.2134  0.4668 -0.4651
56308SOL    HW275530   2.382   0.450   0.431 -1.8329 -0.6603  0.8900
56309SOL     OW75531   3.615   9.434  11.350 -0.3819  0.6622 -0.1143
56309SOL    HW175532   3.565   9.403  11.274 -1.6848  0.5961  0.7288
56309SOL    HW275533   3.706   9.416  11.328 -0.6300  1.4291 -2.0289
56310SOL     OW75534  12.641   0.517   9.785  0.3040 -0.0856 -0.0700
56310SOL    HW175535  12.726   0.515   9.829  1.1934  1.7355 -1.5638
56310SOL    HW275536  12.654   0.464   9.707 -0.5921 -1.4716  0.6832
56311SOL     OW75537  12.251   5.131   2.154  0.4798 -0.4370 -0.5379
56311SOL    HW175538  12.210   5.090   2.078 -1.2879  0.3140 -0.0249
56311SOL    HW275539  12.269   5.057   2.213  0.3905 -0.8416 -1.0069
56312SOL     OW75540   1.236   7.932   9.228 -0.8070 -0.0261 -0.2824
56312SOL    HW175541   1.148   7.969   9.223 -1.9517 -2.4644  0.2121
56312SOL    HW275542   1.257   7.908   9.137 -0.2705  1.2396 -0.5241
56313SOL     OW75543   0.699   2.669   2.004 -0.1038  0.6070  0.1703
56313SOL    HW175544   0.779   2.645   2.050  0.3124  0.1861 -0.7425
56313SOL    HW275545   0.724   2.744   1.949 -0.6480  1.2476  0.7722
56314SOL     OW75546   7.900   9.068   8.230 -0.5181 -0.3896  0.5570
56314SOL    HW175547   7.900   8.991   8.172 -1.3010 -0.6208  0.8585
56314SOL    HW275548   7.827   9.122   8.198  0.1907  0.3665  0.1780
56315SOL     OW75549  10.167   6.015   1.727  0.4761 -0.3960  0.3548
56315SOL    HW175550  10.100   6.073   1.763  0.9747  0.2408  0.2848
56315SOL    HW275551  10.213   5.980   1.803 -1.4042 -2.6956  0.5305
56316SOL     OW75552  10.992  11.647  10.048 -0.2654 -0.0455 -0.6386
56316SOL    HW175553  11.053  11.617   9.980 -0.8092 -1.2500 -0.6152
56316SOL    HW275554  10.936  11.571  10.066 -0.7518  0.5486  0.4738
56317SOL     OW75555   9.695   1.314   7.887 -0.2708 -0.5578  0.7433
56317SOL    HW175556   9.781   1.276   7.901  0.1218 -0.1218 -0.4339
56317SOL    HW275557   9.710   1.389   7.829 -1.3096  0.1287  1.3219
56318SOL     OW75558   6.887   9.589   1.920 -1.0209 -0.0577  0.1181
56318SOL    HW175559   6.904   9.649   1.847  0.2513  0.7007  0.9706
56318SOL    HW275560   6.815   9.630   1.968 -1.0104  0.1187 -0.0136
56319SOL     OW75561   2.110   3.460   4.663  0.2375  0.1549 -0.0942
56319SOL    HW175562   2.023   3.429   4.639 -0.2499  1.4487 -0.0669
56319SOL    HW275563   2.131   3.527   4.597  0.7163  0.6608  0.5594
56320SOL     OW75564   6.961  10.017   7.477  0.1766  0.0328 -0.3600
56320SOL    HW175565   6.880   9.968   7.496  0.6534 -0.4726  0.4377
56320SOL    HW275566   6.949  10.101   7.521 -1.0317  1.0754 -2.4833
56321SOL     OW75567   0.929   4.661   5.608  0.0846  0.2675 -0.4135
56321SOL    HW175568   0.857   4.705   5.562  0.2544 -0.8941 -1.8674
56321SOL    HW275569   0.886   4.609   5.675 -0.6366 -1.6293 -2.2527
56322SOL     OW75570   8.673   2.762   4.004  0.2500  0.7429 -0.4361
56322SOL    HW175571   8.659   2.798   4.091  1.9628  1.1360 -0.3042
56322SOL    HW275572   8.648   2.670   4.011 -0.6917  1.0322  0.1564
56323SOL     OW75573   1.680  10.370   2.042 -0.1780 -0.1871  0.0979
56323SOL    HW175574   1.732  10.437   2.086 -0.1915  1.1383 -1.7667
56323SOL    HW275575   1.701  10.289   2.089 -0.0582  1.0561  2.3461
56324SOL     OW75576   8.837  11.551   0.148 -0.2278  0.2814  0.2380
56324SOL    HW175577   8.844  11.518   0.238 -0.9737  0.6107  0.4232
56324SOL    HW275578   8.795  11.480   0.099  0.4967 -0.0351  0.0652
56325SOL     OW75579   3.222  11.077   5.798  0.0869 -0.3234  0.0271
56325SOL    HW175580   3.195  11.003   5.744 -1.9368 -0.7251  1.4532
56325SOL    HW275581   3.146  11.094   5.855  0.6159  2.6103  0.0221
56326SOL     OW75582   9.444   6.028   6.616  0.2002  0.2854  0.1750
56326SOL    HW175583   9.473   5.946   6.574  0.3380  0.8701 -0.9001
56326SOL    HW275584   9.357   6.007   6.652  0.4591 -0.4790  0.3851
56327SOL     OW75585   2.497   3.300   6.535 -0.8106 -0.1966 -0.0887
56327SOL    HW175586   2.427   3.275   6.475 -0.9652 -2.1365  0.8121
56327SOL    HW275587   2.474   3.256   6.618  1.1452 -0.4107  0.3852
56328SOL     OW75588   3.973  10.470  10.929 -0.3199 -0.0228  0.5829
56328SOL    HW175589   3.929  10.539  10.879  0.2538  0.6954  1.0510
56328SOL    HW275590   4.065  10.498  10.931  0.0914 -1.2673  0.0034
56329SOL     OW75591   3.726  10.361   9.805 -0.2266 -0.0569 -0.0921
56329SOL    HW175592   3.718  10.433   9.744  0.6785 -0.0575 -0.2178
56329SOL    HW275593   3.638  10.351   9.842 -0.7328  0.0693 -1.2368
56330SOL     OW75594   7.104   8.272   2.361 -0.4635  0.2084  0.1833
56330SOL    HW175595   7.162   8.251   2.288 -0.2253  0.6424  0.2468
56330SOL    HW275596   7.028   8.214   2.349  0.0342 -0.4611  0.1783
56331SOL     OW75597   5.273   2.372   4.399 -0.2734 -0.0617  0.2109
56331SOL    HW175598   5.256   2.329   4.315  1.0415  1.0906 -0.6825
56331SOL    HW275599   5.209   2.333   4.459 -1.1206 -1.0435 -1.2681
56332SOL     OW75600  12.258   7.037   3.863 -0.4136 -0.6930 -0.1799
56332SOL    HW175601  12.283   7.000   3.778  0.5094 -0.1596 -0.1587
56332SOL    HW275602  12.319   6.996   3.925  0.4077  0.5747 -0.1078
56333SOL     OW75603   9.528   1.450   8.459 -0.2113 -0.1353  0.0400
56333SOL    HW175604   9.570   1.515   8.403  2.5928 -2.2920 -0.5957
56333SOL    HW275605   9.562   1.468   8.546 -2.5976  1.6295  0.7110
56334SOL     OW75606   4.367  10.282   4.864 -0.1807 -0.3886 -0.1518
56334SOL    HW175607   4.379  10.222   4.790  0.6878 -0.6852  0.2192
56334SOL    HW275608   4.435  10.257   4.927 -0.2615  0.5273  0.3177
56335SOL     OW75609   7.862  11.835   2.353 -0.2053  0.3750  0.3570
56335SOL    HW175610   7.896  11.924   2.348  1.8825 -0.2960  1.5451
56335SOL    HW275611   7.888  11.804   2.440 -0.1322 -1.6774 -0.3379
56336SOL     OW75612   1.317   8.711   9.518  0.1839  0.3486 -0.7601
56336SOL    HW175613   1.288   8.720   9.428 -1.2976  2.0018 -0.1606
56336SOL    HW275614   1.259   8.645   9.556  1.4495 -1.0930 -1.2294
56337SOL     OW75615   2.335  12.460   3.855 -0.3425 -0.3076 -0.2793
56337SOL    HW175616   2.272  12.430   3.789  1.0114  0.5473 -2.0710
56337SOL    HW275617   2.410  12.490   3.803  0.5195  1.0388  1.6540
56338SOL     OW75618  11.343   3.702   0.240  0.1056 -0.4126  0.0929
56338SOL    HW175619  11.321   3.635   0.305  0.4054  0.9067  1.6037
56338SOL    HW275620  11.417   3.749   0.278  0.5732  0.1224 -1.4215
56339SOL     OW75621   0.395   7.510   4.818  0.5888 -0.3175  0.0210
56339SOL    HW175622   0.329   7.450   4.782  0.6054 -0.5904  0.4386
56339SOL    HW275623   0.443   7.542   4.741  1.6186 -2.0611 -0.1308
56340SOL     OW75624   1.603   2.485   9.547 -0.4127 -0.8461  0.4281
56340SOL    HW175625   1.608   2.568   9.593 -0.7414 -0.3811 -0.3572
56340SOL    HW275626   1.693   2.467   9.520 -0.4796 -0.2383 -0.2502
56341SOL     OW75627  12.534  11.294   9.018  0.5472  0.0591 -0.0452
56341SOL    HW175628  12.460  11.324   8.966  0.7961  1.4524  0.3816
56341SOL    HW275629  12.578  11.230   8.961 -1.2915 -1.2819 -0.0647
56342SOL     OW75630   6.128   4.089   3.089  0.0094  0.1507  0.0548
56342SOL    HW175631   6.125   3.994   3.078 -0.2302  0.1499  0.1350
56342SOL    HW275632   6.042   4.119   3.060  0.7501  0.5427 -1.8688
56343SOL     OW75633   2.233   6.546   7.077 -1.0557 -0.3872 -0.0542
56343SOL    HW175634   2.278   6.580   6.999 -1.7720 -0.6734 -0.6033
56343SOL    HW275635   2.153   6.506   7.043 -0.9865 -1.2369  0.7445
56344SOL     OW75636   2.536   5.469   4.363  0.5286  0.4734  0.1404
56344SOL    HW175637   2.496   5.397   4.312 -0.8275  1.7036 -0.6164
56344SOL    HW275638   2.520   5.547   4.310  0.6626  1.5511  1.6396
56345SOL     OW75639   0.823   3.111   2.474 -0.2792 -0.2608  0.2083
56345SOL    HW175640   0.802   3.168   2.548  1.7258 -0.7455  1.1997
56345SOL    HW275641   0.866   3.168   2.411  1.6112 -0.5781  1.1464
56346SOL     OW75642   6.443  10.095   6.786 -0.7443 -0.0568  0.1387
56346SOL    HW175643   6.500  10.094   6.709 -1.3598 -2.2129 -0.3525
56346SOL    HW275644   6.360  10.133   6.754 -1.1116 -1.2576 -0.3762
56347SOL     OW75645   3.850   3.696   7.769 -0.0815  0.3819  0.4260
56347SOL    HW175646   3.834   3.760   7.700  2.9497 -0.5437 -1.3382
56347SOL    HW275647   3.902   3.744   7.834  1.0566  0.1257 -0.2597
56348SOL     OW75648   6.573   2.057  10.245  0.5158  0.3090  0.0203
56348SOL    HW175649   6.631   1.992  10.284 -1.3861 -0.4617  1.7782
56348SOL    HW275650   6.537   2.014  10.167  0.5356 -0.1082  0.2414
56349SOL     OW75651   9.510  10.138   1.909  0.4746 -0.1318 -0.0566
56349SOL    HW175652   9.531  10.152   1.817 -1.3803  0.5444 -0.4308
56349SOL    HW275653   9.504  10.226   1.947 -0.8662 -0.2803  0.1555
56350SOL     OW75654  11.058   7.582  10.625  0.3032 -0.2330  0.0738
56350SOL    HW175655  11.075   7.538  10.709  1.4287 -0.0985 -0.0594
56350SOL    HW275656  10.989   7.645  10.644  2.3042  1.6609  1.5907
56351SOL     OW75657  12.111   5.656   2.650  0.0868  0.3543 -0.1784
56351SOL    HW175658  12.104   5.665   2.745  1.3581  0.7212 -0.1026
56351SOL    HW275659  12.076   5.738   2.615  0.4696  0.6052  0.0204
56352SOL     OW75660  10.349   2.025   3.849 -0.3908 -0.5107 -0.5352
56352SOL    HW175661  10.358   2.078   3.928  2.9454 -0.0444 -1.0681
56352SOL    HW275662  10.348   1.934   3.881 -1.7527 -0.2901  0.1214
56353SOL     OW75663   8.298  11.081  11.363 -0.4681  0.1123 -0.0533
56353SOL    HW175664   8.283  11.092  11.269  0.4745 -1.2604 -0.3881
56353SOL    HW275665   8.257  11.158  11.403 -1.2458  0.5037 -1.5463
56354SOL     OW75666   4.529   2.522  12.454 -0.3009 -0.1005  0.1909
56354SOL    HW175667   4.609   2.471  12.446 -0.3342 -0.0554 -0.4554
56354SOL    HW275668   4.540   2.595  12.392 -1.0038 -0.3067 -0.1900
56355SOL     OW75669   7.162   4.368  11.165  0.2420  0.1515  0.3000
56355SOL    HW175670   7.206   4.346  11.082  0.5980 -0.1845  0.5765
56355SOL    HW275671   7.073   4.390  11.139  0.5126  0.6624 -0.2529
56356SOL     OW75672   0.506   3.603   5.091 -0.2864 -0.6939  0.0727
56356SOL    HW175673   0.423   3.619   5.136 -0.0974 -0.6910  0.4247
56356SOL    HW275674   0.572   3.606   5.160  0.2707  1.4352 -0.4711
56357SOL     OW75675   4.450  11.817  12.608  0.1403 -0.5940  0.0411
56357SOL    HW175676   4.519  11.876  12.641  1.4426 -1.6801 -0.6358
56357SOL    HW275677   4.498  11.742  12.574 -1.4869 -2.1797  1.1065
56358SOL     OW75678   8.541   2.003  10.886 -0.6381 -0.3470  0.0880
56358SOL    HW175679   8.523   2.062  10.959 -1.2324 -0.4426  0.0240
56358SOL    HW275680   8.469   1.939  10.888 -0.1518 -0.9050 -0.0129
56359SOL     OW75681   5.215   7.703   1.640  0.4241  0.3669  0.6865
56359SOL    HW175682   5.295   7.692   1.588  0.2049  0.5126  0.3160
56359SOL    HW275683   5.189   7.614   1.663  0.1958  0.2657  0.0442
56360SOL     OW75684   8.756  11.189   2.410 -0.1109  0.3721  0.3177
56360SOL    HW175685   8.684  11.165   2.352  0.3159 -0.8786  0.2712
56360SOL    HW275686   8.719  11.185   2.498  0.0679 -1.0088  0.3492
56361SOL     OW75687   6.064   6.033   5.817  0.0630 -0.5008  0.0847
56361SOL    HW175688   6.008   6.036   5.894  2.0033 -0.3842  1.5802
56361SOL    HW275689   6.046   6.115   5.771 -1.3994 -0.7491  0.1788
56362SOL     OW75690   2.049   9.766   5.340  0.1326 -0.4500  0.4959
56362SOL    HW175691   2.059   9.709   5.417 -2.8126 -1.2589  0.3897
56362SOL    HW275692   1.990   9.835   5.368  0.9861  0.6649 -0.3670
56363SOL     OW75693  10.137   9.780   6.568  0.2081  0.4943 -0.2975
56363SOL    HW175694  10.159   9.687   6.573 -1.5667  0.0684  0.2105
56363SOL    HW275695  10.156   9.815   6.655 -0.4530  0.2809 -0.0637
56364SOL     OW75696   8.610  11.706  10.049 -0.5425  0.7952  0.6071
56364SOL    HW175697   8.520  11.695  10.018 -0.2290  0.3522 -0.1780
56364SOL    HW275698   8.644  11.617  10.056  0.0215  0.9839  0.3247
56365SOL     OW75699   7.425   0.454   9.006 -0.1693  0.1114 -0.2794
56365SOL    HW175700   7.425   0.370   8.960 -0.7867  0.4058 -0.8381
56365SOL    HW275701   7.338   0.458   9.046  1.2283 -1.3832  3.2952
56366SOL     OW75702  10.032   2.363   0.336  0.8472  0.0040 -0.1566
56366SOL    HW175703  10.116   2.322   0.315 -0.2630 -2.8822  0.5614
56366SOL    HW275704  10.010   2.331   0.423 -0.8988  0.8954 -0.2103
56367SOL     OW75705   2.426   1.397  12.119  0.1002  0.4200  0.3291
56367SOL    HW175706   2.377   1.322  12.154 -0.9746  0.8257 -0.2681
56367SOL    HW275707   2.504   1.357  12.081 -0.1682 -0.3404  0.5422
56368SOL     OW75708  10.936  11.094   8.802 -0.0662  0.0108  0.5711
56368SOL    HW175709  10.998  11.073   8.872  0.4886  0.0189  0.0935
56368SOL    HW275710  10.992  11.121   8.729 -0.6720  0.9090  0.4280
56369SOL     OW75711   2.368   4.871  10.847 -0.6659 -0.5707  0.0496
56369SOL    HW175712   2.451   4.905  10.813 -1.1512  0.4915 -0.1059
56369SOL    HW275713   2.373   4.777  10.831 -0.9780 -0.1451 -3.2334
56370SOL     OW75714   5.896   4.105   2.278  0.7212 -0.2578 -0.0403
56370SOL    HW175715   5.946   4.182   2.252  0.8754 -0.1217  0.6265
56370SOL    HW275716   5.865   4.067   2.196  2.0593 -0.4427 -0.4947
56371SOL     OW75717   7.201  10.232  10.688  0.4108  0.4707  0.1861
56371SOL    HW175718   7.230  10.309  10.737  2.3885 -0.1386  0.0441
56371SOL    HW275719   7.268  10.220  10.621 -0.0453 -1.1660 -0.0098
56372SOL     OW75720   1.930   4.244   9.106  0.0243 -0.1652 -0.0258
56372SOL    HW175721   2.007   4.257   9.051 -0.4246 -0.4243 -0.7244
56372SOL    HW275722   1.920   4.149   9.113 -0.5165 -0.1326 -0.3411
56373SOL     OW75723   0.224  10.017   1.614  0.7469  0.2743 -0.0871
56373SOL    HW175724   0.205  10.110   1.601 -0.2557 -0.0778 -1.2263
56373SOL    HW275725   0.139   9.976   1.624  1.1545 -0.6157 -0.1770
56374SOL     OW75726   4.794   7.357  12.121 -0.1277  0.0668  0.0844
56374SOL    HW175727   4.871   7.374  12.174  1.3313 -0.8554 -1.6522
56374SOL    HW275728   4.796   7.425  12.053 -0.6252 -0.1943 -0.1968
56375SOL     OW75729   1.631   3.982   7.950  0.2284 -0.0724  0.1865
56375SOL    HW175730   1.607   4.061   7.903 -0.4274 -0.4068 -0.0470
56375SOL    HW275731   1.723   3.968   7.929  1.2013  2.1653  2.4271
56376SOL     OW75732   2.669   1.724  12.644  0.1185 -0.5151 -0.3386
56376SOL    HW175733   2.601   1.694  12.704 -0.6353 -0.7642 -1.2997
56376SOL    HW275734   2.667   1.661  12.571 -0.2611  0.8081 -1.5211
56377SOL     OW75735  12.451   5.394   7.498  0.0331  0.0189  0.0873
56377SOL    HW175736  12.483   5.484   7.497  0.9915 -0.2628 -2.2591
56377SOL    HW275737  12.529   5.341   7.484 -0.9735 -0.8604 -2.9591
56378SOL     OW75738  12.314   5.262   0.494  0.0166 -0.0202  0.5498
56378SOL    HW175739  12.294   5.245   0.402  0.9573 -3.7194  0.8451
56378SOL    HW275740  12.323   5.357   0.500 -2.6456  0.6012 -2.5704
56379SOL     OW75741  11.545   5.495   8.665  0.5669 -0.2564 -0.3717
56379SOL    HW175742  11.503   5.554   8.728 -0.7798 -0.3758 -1.1203
56379SOL    HW275743  11.520   5.408   8.694  0.1811 -0.3242 -0.8959
56380SOL     OW75744   3.817  11.615   0.515  0.0019  0.0917 -0.0056
56380SOL    HW175745   3.810  11.676   0.441  0.7646  1.8815  1.3229
56380SOL    HW275746   3.804  11.670   0.592  1.9200 -1.2077  1.3189
56381SOL     OW75747   4.968  11.215   6.534 -0.0814  0.1022 -0.5001
56381SOL    HW175748   5.051  11.188   6.573  0.1323  0.6993 -0.5341
56381SOL    HW275749   4.987  11.226   6.441  0.1644  1.6191 -0.2860
56382SOL     OW75750   9.723  11.486  10.042  0.6156 -0.3081  0.2010
56382SOL    HW175751   9.684  11.571  10.060  0.3719 -0.7677  2.0330
56382SOL    HW275752   9.677  11.455   9.964  0.3000  0.9736 -0.1487
56383SOL     OW75753   5.048   7.577   8.058  0.1970 -0.1766 -0.4649
56383SOL    HW175754   4.993   7.603   8.132  0.8997 -1.0638  0.3819
56383SOL    HW275755   5.002   7.612   7.981 -1.1386 -0.2163  0.2881
56384SOL     OW75756   2.911   0.417   5.959  0.7040 -0.1423  0.3525
56384SOL    HW175757   2.989   0.441   6.009  2.3447  1.1718 -2.5834
56384SOL    HW275758   2.854   0.495   5.965 -0.2594 -0.9212  2.0955
56385SOL     OW75759  11.289   1.924  10.578 -0.2172 -0.4033 -0.2847
56385SOL    HW175760  11.264   2.008  10.616 -0.2877  0.2429 -1.6779
56385SOL    HW275761  11.209   1.872  10.580 -0.3473 -0.1944 -0.0224
56386SOL     OW75762  11.400   6.822  10.718 -0.4256  0.0120 -0.4717
56386SOL    HW175763  11.351   6.833  10.636 -2.1246  0.4465  0.5373
56386SOL    HW275764  11.345   6.763  10.770 -0.9492  2.0652  1.4747
56387SOL     OW75765   2.450   4.668   7.502 -0.3006  0.3910 -0.0479
56387SOL    HW175766   2.435   4.578   7.530 -0.0552  0.4126  0.1545
56387SOL    HW275767   2.414   4.672   7.414  0.2927 -0.0910 -0.3175
56388SOL     OW75768   3.283  10.482  10.438  0.0002  0.2601 -0.4679
56388SOL    HW175769   3.249  10.394  10.455  0.2012  0.3889  0.7052
56388SOL    HW275770   3.377  10.475  10.453  0.1336  0.4903 -1.1813
56389SOL     OW75771  10.891   9.305   7.671 -0.6329 -0.0858  0.1015
56389SOL    HW175772  10.798   9.325   7.686 -0.3948  0.9585  0.2175
56389SOL    HW275773  10.911   9.346   7.587 -0.7669 -2.0192 -0.9532
56390SOL     OW75774   2.922   9.199   0.503 -0.1026 -0.5314  0.3087
56390SOL    HW175775   2.851   9.170   0.560 -0.7947 -0.1901 -0.3571
56390SOL    HW275776   2.883   9.201   0.415  1.3907 -2.7297 -0.5081
56391SOL     OW75777   1.441   1.266   6.577 -0.0430 -0.1160  0.2659
56391SOL    HW175778   1.485   1.186   6.549 -0.5980 -0.0828 -0.7253
56391SOL    HW275779   1.429   1.254   6.671  1.1108 -0.5872  0.3799
56392SOL     OW75780   6.143   3.665   4.546  0.2404 -0.7180  0.5031
56392SOL    HW175781   6.155   3.624   4.632  0.3341 -0.4289  0.6292
56392SOL    HW275782   6.177   3.754   4.557 -1.1274 -0.1921  0.5904
56393SOL     OW75783   6.143   6.971   8.393 -0.3128  0.6343  0.1238
56393SOL    HW175784   6.199   7.007   8.324 -2.0990 -0.8912 -2.3176
56393SOL    HW275785   6.058   7.014   8.380 -0.9759 -0.4525  0.6498
56394SOL     OW75786   9.046   8.422   4.985 -0.4154  0.2838 -0.1603
56394SOL    HW175787   9.008   8.393   4.902 -1.0894  1.3185 -0.2290
56394SOL    HW275788   9.123   8.366   4.997  0.2339  0.7354 -1.9539
56395SOL     OW75789   1.022   2.957   2.984 -0.9523  0.4750  0.2022
56395SOL    HW175790   1.014   3.039   3.033 -0.7394  1.0806 -0.7475
56395SOL    HW275791   1.095   2.972   2.923 -1.3528 -0.1788 -0.4548
56396SOL     OW75792   9.024   2.125   2.856 -0.3258 -0.1679  0.1222
56396SOL    HW175793   8.965   2.197   2.879  0.4157  0.4062  0.2797
56396SOL    HW275794   9.104   2.144   2.905 -0.3613 -1.4966  0.7246
56397SOL     OW75795   0.590   8.357   1.486 -0.2158 -0.1686 -0.4957
56397SOL    HW175796   0.574   8.386   1.576  1.3703 -1.4704  0.2736
56397SOL    HW275797   0.550   8.424   1.431 -2.5419 -0.0955  1.1541
56398SOL     OW75798   3.769   3.997  10.342  0.4666  0.2550  0.2944
56398SOL    HW175799   3.752   4.009  10.249 -1.2935  1.3189  0.7067
56398SOL    HW275800   3.765   3.902  10.355  2.4794 -0.0580 -0.9686
56399SOL     OW75801   2.503   0.445  10.242 -0.0520 -0.1807 -0.2075
56399SOL    HW175802   2.462   0.496  10.312  0.6460  1.7079 -1.0992
56399SOL    HW275803   2.430   0.408  10.192 -0.5815 -2.5729  2.1106
56400SOL     OW75804   5.411  11.567   1.520  0.5430  0.1705 -0.0335
56400SOL    HW175805   5.444  11.646   1.478  1.7541 -0.2880  0.0013
56400SOL    HW275806   5.490  11.524   1.555 -0.3765  0.4929  2.6769
56401SOL     OW75807  10.483   8.202   1.296  0.4413 -0.2904  0.0329
56401SOL    HW175808  10.487   8.167   1.207 -0.1663 -0.7460  0.1776
56401SOL    HW275809  10.462   8.126   1.350 -1.2816  0.3305  0.3164
56402SOL     OW75810   8.848  10.399   3.766  0.2040 -0.9304 -0.3325
56402SOL    HW175811   8.810  10.384   3.680 -0.6524 -0.4614 -0.0501
56402SOL    HW275812   8.779  10.443   3.816  1.3521  0.6249 -0.0151
56403SOL     OW75813  12.756  10.797   7.111 -0.6370 -0.1886  0.0676
56403SOL    HW175814  12.701  10.873   7.091  0.1318  0.3213 -0.1603
56403SOL    HW275815  12.845  10.833   7.119 -0.2204 -1.1017 -0.3134
56404SOL     OW75816  12.633   0.218   9.605  0.5770 -0.3879  0.0734
56404SOL    HW175817  12.686   0.160   9.660 -0.0150 -0.2639  0.7827
56404SOL    HW275818  12.691   0.293   9.589  0.8722 -0.5727  0.2483
56405SOL     OW75819   2.309   1.788   2.489 -0.2951 -0.3105 -0.2177
56405SOL    HW175820   2.326   1.825   2.575  1.4182 -0.4394 -0.4561
56405SOL    HW275821   2.296   1.864   2.432 -0.2271 -0.1850 -0.0671
56406SOL     OW75822  10.758   2.593   2.191 -0.0939  0.1118 -0.2503
56406SOL    HW175823  10.761   2.566   2.283  1.2337 -0.2642 -0.3691
56406SOL    HW275824  10.668   2.579   2.164 -0.3190 -0.5419  0.7818
56407SOL     OW75825  11.311   4.049   0.637  0.2346 -0.2449  0.0089
56407SOL    HW175826  11.333   4.028   0.546 -0.0450 -1.6189  0.2280
56407SOL    HW275827  11.257   4.127   0.631 -0.5093 -0.8162 -1.0933
56408SOL     OW75828  11.969   6.192   9.008 -0.1395  0.3553 -0.5017
56408SOL    HW175829  11.997   6.278   8.978 -1.2286  0.8287 -0.1960
56408SOL    HW275830  11.902   6.165   8.946  2.1146 -1.5530 -2.2752
56409SOL     OW75831   9.924   2.862  10.827 -0.7959  0.1760  0.1526
56409SOL    HW175832   9.951   2.891  10.739 -0.6867 -0.2225  0.0528
56409SOL    HW275833   9.997   2.809  10.858 -0.8634  0.2646  0.4630
56410SOL     OW75834  11.742   4.531   6.653  0.3255  0.3045 -0.0022
56410SOL    HW175835  11.781   4.455   6.610 -1.0284  0.8305 -2.2989
56410SOL    HW275836  11.648   4.513   6.652  0.0102  1.8889 -0.3709
56411SOL     OW75837   0.145   0.883   7.669 -0.0308  0.1403 -0.1528
56411SOL    HW175838   0.060   0.850   7.700  1.0919 -0.9876  1.9846
56411SOL    HW275839   0.168   0.825   7.596 -0.7131 -0.0851 -0.1990
56412SOL     OW75840   1.410   8.342  10.735  0.8291  0.1264 -0.2237
56412SOL    HW175841   1.442   8.327  10.824  1.0603 -0.3612 -0.3815
56412SOL    HW275842   1.447   8.270  10.685  1.4426  0.9002 -0.8985
56413SOL     OW75843   7.659   7.062   6.617  0.2608 -0.3269 -0.5288
56413SOL    HW175844   7.697   6.978   6.644  1.4886  0.0183 -1.1417
56413SOL    HW275845   7.583   7.037   6.564  2.0847 -1.1859 -2.9635
56414SOL     OW75846  12.525   7.144   9.061 -0.2069  0.4574  0.0583
56414SOL    HW175847  12.494   7.230   9.089 -2.3576 -0.1491 -0.2749
56414SOL    HW275848  12.616   7.158   9.035 -0.1357  2.3532  1.1993
56415SOL     OW75849   4.441   8.764   4.756 -0.2709  0.0959  0.3510
56415SOL    HW175850   4.536   8.757   4.753 -0.3334 -1.0452  0.5279
56415SOL    HW275851   4.421   8.844   4.707  0.5919 -1.5584 -2.9766
56416SOL     OW75852   3.543   5.063   6.552  0.0113 -0.4685 -0.0529
56416SOL    HW175853   3.470   5.123   6.564 -0.3829 -1.0720  0.6891
56416SOL    HW275854   3.568   5.039   6.642  0.6096 -0.8750 -0.3240
56417SOL     OW75855   9.353   0.222  11.967  0.4501 -0.2760  0.3207
56417SOL    HW175856   9.291   0.202  12.036 -0.1604  1.2258  0.2340
56417SOL    HW275857   9.351   0.145  11.910 -3.1297  0.6035 -0.9923
56418SOL     OW75858  12.393   1.125  11.760  0.0485 -0.1960  0.2288
56418SOL    HW175859  12.480   1.144  11.794  0.2451 -1.1721  0.2899
56418SOL    HW275860  12.398   1.145  11.667  0.5836 -1.0286  0.0697
56419SOL     OW75861   5.178   3.189   7.215  0.1938 -0.3533  0.1277
56419SOL    HW175862   5.272   3.190   7.199  0.4492  1.2560  1.4230
56419SOL    HW275863   5.138   3.207   7.130  1.1194  0.2589 -0.1910
56420SOL     OW75864  12.495   6.396  12.294 -0.6827 -0.1248  0.2675
56420SOL    HW175865  12.530   6.318  12.250 -0.4736 -0.8120  1.6085
56420SOL    HW275866  12.415   6.365  12.337 -1.1968  0.6738 -0.0989
56421SOL     OW75867  10.009   3.473   2.976 -0.3909 -0.3018  0.2856
56421SOL    HW175868  10.001   3.536   2.904 -0.9288 -1.5718 -0.8013
56421SOL    HW275869  10.104   3.459   2.985 -0.3326 -0.4091 -0.4337
56422SOL     OW75870  12.758  12.768   9.265  0.3194  0.4123 -0.0323
56422SOL    HW175871  12.788  12.784   9.175 -0.1297 -1.6874 -0.5929
56422SOL    HW275872  12.829  12.803   9.320  2.4788 -1.6866 -1.2774
56423SOL     OW75873   2.707   4.920   0.437 -0.8017 -0.3552 -0.0015
56423SOL    HW175874   2.624   4.940   0.481 -0.4778  0.5632  0.2027
56423SOL    HW275875   2.725   4.997   0.383 -1.5663 -1.7285 -2.3748
56424SOL     OW75876   7.439  12.739  11.779 -0.6859  0.2375  0.1516
56424SOL    HW175877   7.522  12.722  11.824 -0.3880  0.4298 -0.3119
56424SOL    HW275878   7.379  12.672  11.812 -0.5467  0.5150  1.0038
56425SOL     OW75879   4.367   7.157   7.414 -0.4026 -0.7605 -0.7957
56425SOL    HW175880   4.352   7.062   7.415  0.2067 -0.8614 -0.6132
56425SOL    HW275881   4.285   7.194   7.383 -1.1579 -1.2531  0.5088
56426SOL     OW75882   9.866   9.632   6.616 -0.4808 -0.1726 -0.1355
56426SOL    HW175883   9.871   9.545   6.576  0.5267 -0.1051 -0.1898
56426SOL    HW275884   9.884   9.693   6.544 -0.5901  0.0461  0.0206
56427SOL     OW75885   2.731   5.779   5.971  0.1687  0.5151 -0.2129
56427SOL    HW175886   2.636   5.775   5.956 -0.0757 -1.4630  1.4539
56427SOL    HW275887   2.741   5.759   6.064  2.1741  2.1379 -0.0248
56428SOL     OW75888  11.761   1.732   6.927  0.3943 -0.0773  0.4673
56428SOL    HW175889  11.721   1.676   6.994  2.2500  0.7491  2.4162
56428SOL    HW275890  11.687   1.771   6.880 -1.0780  0.0647  2.7473
56429SOL     OW75891   4.342  12.089   0.873  0.0201  0.2336  0.1356
56429SOL    HW175892   4.360  12.050   0.959 -0.2527 -2.1075 -0.8068
56429SOL    HW275893   4.249  12.115   0.878 -0.2384 -0.6859  0.2707
56430SOL     OW75894   9.969  12.070   5.896  0.1202  0.2308  0.1663
56430SOL    HW175895   9.901  12.002   5.894 -0.8868  1.2087 -2.1074
56430SOL    HW275896  10.046  12.028   5.856 -1.0008  0.8127 -2.8276
56431SOL     OW75897   2.274   4.598   6.983  0.0907  0.4832  0.1161
56431SOL    HW175898   2.250   4.641   7.065  1.2837  0.8230  0.3116
56431SOL    HW275899   2.292   4.670   6.922 -0.2733  0.2369 -0.2884
56432SOL     OW75900   1.361   9.929   4.288 -0.0929  0.5725  0.5416
56432SOL    HW175901   1.417  10.000   4.255  1.4961 -0.9419 -0.1826
56432SOL    HW275902   1.345   9.951   4.379 -0.5645  2.4127  0.0568
56433SOL     OW75903   2.172   6.306   8.591  0.8111  0.1962 -0.1438
56433SOL    HW175904   2.245   6.361   8.621  1.8468 -1.2133  0.0436
56433SOL    HW275905   2.139   6.350   8.513  1.8654  0.8838 -0.2299
56434SOL     OW75906   1.627  11.298  10.423  0.5307 -0.1391 -0.2445
56434SOL    HW175907   1.684  11.346  10.483 -2.4532  1.0165  1.9140
56434SOL    HW275908   1.549  11.353  10.414 -1.8540 -3.1798  0.0414
56435SOL     OW75909   1.962  10.206  12.761 -0.4097 -0.2925 -0.5188
56435SOL    HW175910   1.955  10.296  12.790 -0.5199 -0.3992 -0.2152
56435SOL    HW275911   1.891  10.195  12.697 -0.2110 -0.0805 -0.7761
56436SOL     OW75912   9.133   9.509   7.792 -0.0992  0.4480 -0.4872
56436SOL    HW175913   9.115   9.596   7.756  0.7243  0.5447 -0.6712
56436SOL    HW275914   9.208   9.522   7.850 -0.7313  0.0845  0.4386
56437SOL     OW75915   6.326   7.264   5.468  0.0243  0.9825 -0.2756
56437SOL    HW175916   6.256   7.269   5.403  0.2237 -0.6366 -0.6565
56437SOL    HW275917   6.322   7.174   5.501  0.3433  1.5798  1.5064
56438SOL     OW75918   4.535   9.220   5.951 -0.0209  0.6110  0.3227
56438SOL    HW175919   4.553   9.188   6.039  0.6726  1.7247  0.5990
56438SOL    HW275920   4.439   9.229   5.948 -0.0956 -0.0433  0.7402
56439SOL     OW75921  11.833   1.583  11.596 -0.2508 -0.1194  0.1851
56439SOL    HW175922  11.856   1.511  11.655  0.2911  0.2073  0.3801
56439SOL    HW275923  11.916   1.626  11.578 -0.6966  1.0401  0.8400
56440SOL     OW75924   4.471   2.817   0.114 -0.4674 -0.0463 -0.4509
56440SOL    HW175925   4.506   2.897   0.154  1.6989 -0.1525 -1.9219
56440SOL    HW275926   4.479   2.751   0.182 -0.5681  0.5991  0.2000
56441SOL     OW75927   2.766   2.735   6.955  0.0716  0.1993  0.1522
56441SOL    HW175928   2.733   2.736   7.044  0.3523 -1.1247  0.2997
56441SOL    HW275929   2.765   2.642   6.930 -1.3207  0.6708 -1.7301
56442SOL     OW75930   3.983   0.554   2.519 -0.1196  0.2953 -0.3471
56442SOL    HW175931   3.963   0.591   2.432 -0.2377 -1.0297 -0.9043
56442SOL    HW275932   4.058   0.604   2.550  0.4621  0.2237 -1.5973
56443SOL     OW75933   7.687   5.241   1.246 -0.2949 -0.2819  0.0669
56443SOL    HW175934   7.593   5.237   1.264 -0.4274 -1.2887 -0.6984
56443SOL    HW275935   7.692   5.274   1.156  0.2005  1.7761  0.8100
56444SOL     OW75936   5.930   6.816   7.510  0.1350  0.1481  0.0850
56444SOL    HW175937   5.993   6.888   7.513 -0.1691  0.3830  1.2572
56444SOL    HW275938   5.921   6.796   7.417  1.3632  0.6156 -0.1530
56445SOL     OW75939   5.968  11.464   3.245 -0.3851  0.1007  0.3575
56445SOL    HW175940   5.961  11.370   3.261 -0.7353  0.3044  1.4772
56445SOL    HW275941   5.919  11.478   3.164  0.1547 -0.7551 -0.1360
56446SOL     OW75942  11.218   3.361   0.619 -0.0324  0.0921  0.5482
56446SOL    HW175943  11.241   3.393   0.707  0.7621 -0.8060  0.6784
56446SOL    HW275944  11.225   3.266   0.626 -0.9658 -0.0372 -0.2242
56447SOL     OW75945   0.683   5.808  10.598 -0.1716  0.6869  0.0537
56447SOL    HW175946   0.609   5.749  10.613 -0.3976  0.9356 -0.0921
56447SOL    HW275947   0.743   5.758  10.542 -0.5919  0.7792 -0.4850
56448SOL     OW75948   2.777   2.145   6.435  0.0302  0.2025  0.0451
56448SOL    HW175949   2.740   2.220   6.481 -1.1925 -0.2629 -0.1485
56448SOL    HW275950   2.866   2.138   6.469 -0.0799  1.2869  0.6064
56449SOL     OW75951  12.410   8.996   7.281 -0.1071  0.4759 -0.2818
56449SOL    HW175952  12.332   8.997   7.336  0.0860  0.4945 -0.0072
56449SOL    HW275953  12.475   9.045   7.330 -0.0983  0.9720 -0.7743
56450SOL     OW75954  12.582   1.396   9.320 -0.1008  0.3345 -0.1494
56450SOL    HW175955  12.560   1.445   9.400 -1.0206 -1.9526  1.0893
56450SOL    HW275956  12.677   1.387   9.323  0.2148  2.7434 -0.8976
56451SOL     OW75957   3.291   1.771   1.135 -0.6749  0.0126 -0.2020
56451SOL    HW175958   3.308   1.756   1.042  0.8122  0.1254  0.0299
56451SOL    HW275959   3.213   1.827   1.136  0.0375  1.0839 -1.4308
56452SOL     OW75960   6.447   1.590  12.215 -0.1304 -0.3644  0.3598
56452SOL    HW175961   6.405   1.583  12.301  1.1305 -1.2695  0.9379
56452SOL    HW275962   6.482   1.503  12.199  2.5028  0.6049  0.4495
56453SOL     OW75963  11.108  11.762   5.648 -0.5961  0.2581 -0.0146
56453SOL    HW175964  11.167  11.828   5.612 -0.9074 -0.3377 -1.6915
56453SOL    HW275965  11.027  11.773   5.598 -0.6390 -1.4090 -0.3438
56454SOL     OW75966   0.437   4.150  11.450  0.2335  0.0999  0.3777
56454SOL    HW175967   0.525   4.187  11.444  0.5632 -0.6855  0.2112
56454SOL    HW275968   0.452   4.060  11.478 -0.1222 -1.5555 -3.9950
56455SOL     OW75969   2.069   4.899   8.938 -0.0554  0.2445  0.1639
56455SOL    HW175970   2.018   4.929   9.013  0.0198 -0.0690  0.3402
56455SOL    HW275971   2.160   4.904   8.966  0.1446  2.3081 -0.6775
56456SOL     OW75972   1.638  11.838   3.776  0.1831 -0.1823 -0.4049
56456SOL    HW175973   1.713  11.864   3.829  0.9097 -0.8195 -1.0865
56456SOL    HW275974   1.580  11.914   3.778  2.1327  1.4841 -2.1738
56457SOL     OW75975   2.260  12.065   9.450  0.5859 -0.3330  0.2488
56457SOL    HW175976   2.284  12.144   9.498  1.1993  0.1491 -0.8135
56457SOL    HW275977   2.338  12.044   9.398 -1.0606  1.1245 -3.1132
56458SOL     OW75978   8.844  12.159   6.706 -0.0319  0.2587  0.7584
56458SOL    HW175979   8.847  12.245   6.747  0.4866  0.6138  0.0080
56458SOL    HW275980   8.815  12.176   6.616 -0.4613 -0.4122  0.7613
56459SOL     OW75981   9.819   6.772   4.869  0.0652  0.6888 -0.1911
56459SOL    HW175982   9.815   6.862   4.903  1.0788  0.7052 -0.0816
56459SOL    HW275983   9.848   6.720   4.944  1.7081  0.6295 -0.8223
56460SOL     OW75984   2.110   3.056   2.009  0.0757  0.3039 -0.2139
56460SOL    HW175985   2.109   2.979   2.065 -1.0635  0.6511  0.2779
56460SOL    HW275986   2.088   3.128   2.068  2.9417  1.3452 -0.2296
56461SOL     OW75987  10.561   2.017   2.682 -0.2034 -0.4330 -0.2743
56461SOL    HW175988  10.518   2.073   2.617  0.8685  0.5108 -0.2023
56461SOL    HW275989  10.508   2.027   2.761 -0.1875  0.2474 -0.3463
56462SOL     OW75990   5.879  12.612   5.490  0.2463 -0.4017  0.0223
56462SOL    HW175991   5.833  12.694   5.472 -1.4365 -0.5687  2.9184
56462SOL    HW275992   5.851  12.588   5.578  0.8954 -3.9862 -0.6084
56463SOL     OW75993   2.120  10.115   3.236 -0.0969  0.1660  0.3034
56463SOL    HW175994   2.029  10.090   3.254 -0.8519  3.1272  1.0498
56463SOL    HW275995   2.157  10.134   3.322  0.6878  0.7046 -0.1456
56464SOL     OW75996  12.136   4.068   0.009  0.1027 -0.0724 -0.1986
56464SOL    HW175997  12.231   4.068  -0.004  0.1786  0.0309  0.3348
56464SOL    HW275998  12.118   3.983   0.049  0.0283  0.0874  0.1059
56465SOL     OW75999   9.313   9.800  12.492  0.3186 -0.3681 -0.6832
56465SOL    HW176000   9.349   9.775  12.577 -1.1688 -0.9773 -0.2056
56465SOL    HW276001   9.364   9.877  12.466  0.2191  0.3666  1.1780
56466SOL     OW76002   4.980   6.679   9.051  0.0938 -0.4885  0.3923
56466SOL    HW176003   5.049   6.655   9.112 -0.2571 -1.2766  0.4859
56466SOL    HW276004   4.979   6.609   8.986 -0.2319 -0.1850  0.0604
56467SOL     OW76005   8.962   0.835   9.439  0.4121 -0.0876 -0.5299
56467SOL    HW176006   8.885   0.860   9.388 -0.6231 -0.2230  0.9142
56467SOL    HW276007   8.992   0.754   9.398 -0.4742 -0.2631 -0.8538
56468SOL     OW76008   6.906  10.574   9.788 -0.1096 -0.0667 -0.3074
56468SOL    HW176009   6.892  10.482   9.810 -1.2939  0.2087  0.2182
56468SOL    HW276010   6.894  10.620   9.871 -3.3533  0.8804 -1.1570
56469SOL     OW76011  12.182   7.649   1.068 -0.4372  0.2724  0.4067
56469SOL    HW176012  12.164   7.713   1.137 -2.6009 -1.5994  1.7077
56469SOL    HW276013  12.116   7.666   1.002  0.2202  0.6138 -0.1730
56470SOL     OW76014   5.082   7.681   4.940 -0.0657  0.0376 -0.0731
56470SOL    HW176015   5.046   7.599   4.907  0.3281 -0.0054 -0.4066
56470SOL    HW276016   5.011   7.720   4.991  0.4105 -1.5607  1.9431
56471SOL     OW76017   6.076   3.720   4.862  0.1348 -0.0919 -0.2475
56471SOL    HW176018   6.082   3.815   4.853  1.5051 -0.1991 -0.7019
56471SOL    HW276019   6.163   3.692   4.890 -0.1296 -1.2590 -0.5037
56472SOL     OW76020   7.169  11.163   2.634  0.0789 -0.4996 -0.0507
56472SOL    HW176021   7.118  11.245   2.638  2.5039  1.1900 -1.2276
56472SOL    HW276022   7.149  11.127   2.548  1.1252  0.3971 -0.6953
56473SOL     OW76023   6.096   8.279   3.840  0.1044  0.3411 -0.3342
56473SOL    HW176024   6.060   8.229   3.767  0.7747  1.0247 -1.1605
56473SOL    HW276025   6.164   8.334   3.800  0.1611  1.0747  0.7246
56474SOL     OW76026   3.950   0.001   2.919 -0.4167 -0.5067  0.2531
56474SOL    HW176027   4.032   0.043   2.892 -0.9427  0.5661  0.3026
56474SOL    HW276028   3.910  -0.028   2.837 -1.5776  1.9487 -0.1170
56475SOL     OW76029   1.806   2.727   7.347  0.3376 -0.3958  0.3544
56475SOL    HW176030   1.782   2.651   7.295 -1.4196 -0.7902  1.6164
56475SOL    HW276031   1.735   2.789   7.332  0.8001  0.2494  0.7690
56476SOL     OW76032  12.286   1.755   3.160 -0.4010 -0.1133  0.0368
56476SOL    HW176033  12.192   1.747   3.172 -0.3593 -0.2919  0.2410
56476SOL    HW276034  12.296   1.828   3.098 -0.4564  3.1868  3.5851
56477SOL     OW76035   3.139  10.343   8.822 -0.5949  0.2238 -0.4798
56477SOL    HW176036   3.072  10.280   8.794 -1.0615 -0.0213  1.1111
56477SOL    HW276037   3.093  10.402   8.882  0.2254  1.1215 -0.7097
56478SOL     OW76038   0.658   4.897   8.445  0.1658  0.8466  0.2196
56478SOL    HW176039   0.629   4.959   8.511 -2.4171 -1.8736  1.8874
56478SOL    HW276040   0.580   4.879   8.392  1.5246  0.9890 -1.9619
56479SOL     OW76041   4.381   0.293  10.296 -0.3883  0.2313  0.2593
56479SOL    HW176042   4.383   0.209  10.342 -0.0597  0.9591  1.6015
56479SOL    HW276043   4.391   0.359  10.364  0.3528  1.3444 -0.8783
56480SOL     OW76044   6.796  12.725   9.494 -0.3064 -0.2900  0.2658
56480SOL    HW176045   6.718  12.685   9.455 -0.3696  1.5316 -1.6858
56480SOL    HW276046   6.776  12.819   9.497  2.6785  0.6931 -2.9460
56481SOL     OW76047  12.051   0.527   5.572 -0.6275 -0.5964  0.6721
56481SOL    HW176048  12.033   0.535   5.478  1.2940  1.4843  0.4054
56481SOL    HW276049  11.966   0.539   5.614 -1.6196 -2.1395 -0.7777
56482SOL     OW76050   0.499   4.470   2.465  0.0074  0.1233 -0.1349
56482SOL    HW176051   0.473   4.562   2.458  0.7269  0.2270 -2.1386
56482SOL    HW276052   0.588   4.473   2.500 -0.1348  0.1616  0.2256
56483SOL     OW76053   2.599   4.070  10.223 -0.0588  0.0452  0.0202
56483SOL    HW176054   2.634   3.990  10.183  0.7929 -0.4158  1.6202
56483SOL    HW276055   2.651   4.082  10.302  0.1186  2.4374 -0.4004
56484SOL     OW76056   0.229  11.079   2.397  0.3594 -0.4556 -0.0437
56484SOL    HW176057   0.259  11.058   2.308  0.5908  1.7089 -0.5573
56484SOL    HW276058   0.137  11.101   2.386  0.3684 -0.2661  0.2487
56485SOL     OW76059   1.981   3.668   0.874  0.4656  0.4544  0.5360
56485SOL    HW176060   2.054   3.710   0.828  0.8859  0.0294  0.8106
56485SOL    HW276061   2.017   3.644   0.959  0.1065 -0.0898  0.5362
56486SOL     OW76062   7.193   7.046   5.260  0.0327  0.1381  0.1126
56486SOL    HW176063   7.113   7.093   5.235 -0.3675  0.1208  1.3161
56486SOL    HW276064   7.166   6.954   5.262 -0.0694  0.1873  1.0842
56487SOL     OW76065   9.726  12.356   8.307 -0.2295  0.5593  0.0581
56487SOL    HW176066   9.652  12.383   8.253 -0.1152 -0.3043 -0.5478
56487SOL    HW276067   9.688  12.296   8.371  0.0527 -0.6148 -0.8232
56488SOL     OW76068   6.099   9.006   6.553  0.0143  0.8413 -0.7128
56488SOL    HW176069   6.176   9.053   6.584  1.0301  0.0061 -1.8826
56488SOL    HW276070   6.133   8.942   6.491 -1.2570 -1.6707  0.9929
56489SOL     OW76071   7.416   6.967  11.901 -0.2870 -0.6614 -0.2810
56489SOL    HW176072   7.382   7.056  11.894  0.2903 -0.4097  0.0384
56489SOL    HW276073   7.437   6.943  11.811 -1.9775 -1.1024 -0.5859
56490SOL     OW76074   0.736  11.351  10.723 -0.4434 -0.3452  0.2127
56490SOL    HW176075   0.817  11.333  10.676  0.4134 -0.3739  1.6450
56490SOL    HW276076   0.763  11.367  10.814 -2.0140 -0.1389  0.6848
56491SOL     OW76077   1.773   6.285  12.330 -0.7698 -0.4874  0.1142
56491SOL    HW176078   1.717   6.310  12.256 -1.3674 -1.5993  0.1682
56491SOL    HW276079   1.763   6.357  12.392  0.1553  0.7295 -1.0725
56492SOL     OW76080  12.086  11.876   3.590 -0.0063  0.6157 -0.0497
56492SOL    HW176081  12.100  11.782   3.584 -0.5207  0.4341  1.2874
56492SOL    HW276082  12.137  11.904   3.666  1.8408  1.8088 -1.6293
56493SOL     OW76083  11.515   5.493   1.844 -0.7163 -0.3753  0.1374
56493SOL    HW176084  11.436   5.466   1.889  0.1507  0.5143  2.3207
56493SOL    HW276085  11.570   5.415   1.841  0.2883  0.0828  3.1343
56494SOL     OW76086   1.428   8.830   8.137  0.5515 -0.5034 -0.5940
56494SOL    HW176087   1.395   8.855   8.223 -2.3534 -1.4804 -1.2992
56494SOL    HW276088   1.467   8.910   8.102  0.0903  0.4254  0.8988
56495SOL     OW76089  11.741   7.468   5.782 -0.1093  0.3635  0.4547
56495SOL    HW176090  11.794   7.545   5.763  0.7180 -0.0545  1.0532
56495SOL    HW276091  11.780   7.430   5.860  1.2583 -2.2381 -1.3402
56496SOL     OW76092   0.593   3.743   8.176  0.2087  0.3776  0.5798
56496SOL    HW176093   0.675   3.697   8.158 -0.3375 -0.8911  1.1935
56496SOL    HW276094   0.532   3.711   8.109 -0.1116  0.3922  0.8585
56497SOL     OW76095  11.858   0.355   1.325  0.5056 -0.0197  0.3219
56497SOL    HW176096  11.804   0.386   1.252 -0.3497  0.4934  1.1465
56497SOL    HW276097  11.837   0.415   1.397 -0.0526 -1.5816  1.5239
56498SOL     OW76098  12.175   7.353   6.331  0.2555 -0.0347  0.4853
56498SOL    HW176099  12.234   7.403   6.387 -0.0763 -0.6852  1.4608
56498SOL    HW276100  12.188   7.388   6.243  1.5404  0.3322  0.8030
56499SOL     OW76101   4.777   7.873   1.387  0.5872  0.3082 -0.1698
56499SOL    HW176102   4.766   7.967   1.401  0.8745  0.6712 -2.1594
56499SOL    HW276103   4.828   7.844   1.463 -1.5014  1.2478  1.7472
56500SOL     OW76104   4.610   7.307   8.144 -0.6352  0.0600  0.0467
56500SOL    HW176105   4.553   7.352   8.082  0.7274  3.0586  0.7931
56500SOL    HW276106   4.558   7.297   8.223 -0.7789  0.9721  0.0768
56501SOL     OW76107   2.354   6.707   1.894 -0.2850 -0.2832 -0.5182
56501SOL    HW176108   2.357   6.776   1.828  2.0700  0.2132  0.0266
56501SOL    HW276109   2.337   6.753   1.976 -3.0326 -0.8824 -0.6344
56502SOL     OW76110   6.227   5.950   0.045  0.0077 -0.0554 -0.2831
56502SOL    HW176111   6.209   5.951  -0.048 -0.0605  1.9651 -0.2859
56502SOL    HW276112   6.264   6.036   0.064  0.3000 -0.5159  1.5069
56503SOL     OW76113   1.514   3.865   8.797  0.3663  0.2153  0.1121
56503SOL    HW176114   1.424   3.896   8.803 -0.1425 -1.3170  1.1151
56503SOL    HW276115   1.562   3.917   8.862 -0.6804 -1.6552  2.5244
56504SOL     OW76116   7.043  10.392   8.484  0.3467  0.1509  0.1050
56504SOL    HW176117   7.006  10.341   8.412 -0.4818  0.5104  0.2621
56504SOL    HW276118   7.051  10.329   8.556  0.1372  0.0425  0.0353
56505SOL     OW76119   1.746   4.992   4.026 -0.1783  0.5524  0.4267
56505SOL    HW176120   1.717   4.981   3.936  0.2182  0.9575  0.2465
56505SOL    HW276121   1.790   4.909   4.047  2.0602  1.3949 -0.6493
56506SOL     OW76122   9.993   9.206   1.725  0.4140  0.2622  0.3968
56506SOL    HW176123   9.964   9.219   1.815 -1.1430 -0.9413  0.1075
56506SOL    HW276124   9.915   9.176   1.678  2.1411 -3.9503 -0.2820
56507SOL     OW76125   8.780   0.162   0.705  0.4436  0.1786  0.5334
56507SOL    HW176126   8.821   0.210   0.633  1.9899 -0.5481  0.8784
56507SOL    HW276127   8.757   0.230   0.769  2.7945  0.5168  1.1145
56508SOL     OW76128   3.424   6.336   5.161 -0.3163 -0.1797 -0.1039
56508SOL    HW176129   3.420   6.415   5.107 -2.5261  0.1066  0.3775
56508SOL    HW276130   3.371   6.272   5.114  2.3191 -1.8460 -1.0578
56509SOL     OW76131   7.979   5.510   2.647  0.4016 -0.2394 -0.1454
56509SOL    HW176132   8.061   5.522   2.599  2.0593 -1.8167  2.0735
56509SOL    HW276133   7.975   5.585   2.707  0.1450 -0.0849 -0.3561
56510SOL     OW76134   9.381  12.077   0.979  0.2856 -0.0196  0.4091
56510SOL    HW176135   9.329  12.096   1.057 -0.9900 -0.6809 -0.2414
56510SOL    HW276136   9.335  12.004   0.937 -0.2217  1.5582 -1.9759
56511SOL     OW76137  11.285   2.441   0.435  0.0633 -0.9941 -0.2599
56511SOL    HW176138  11.335   2.517   0.405 -1.0020 -0.3661 -0.5020
56511SOL    HW276139  11.329   2.414   0.516 -0.6306  1.0405  0.8623
56512SOL     OW76140  10.241   0.555   8.045  0.4983  0.3099 -0.1851
56512SOL    HW176141  10.146   0.568   8.049  0.5580  0.4411  1.5565
56512SOL    HW276142  10.278   0.636   8.079  1.1791 -0.3331  0.6542
56513SOL     OW76143   2.003   7.448   0.554  0.5138 -0.0077 -0.0394
56513SOL    HW176144   2.024   7.400   0.634 -1.3472 -0.2640  0.3374
56513SOL    HW276145   2.055   7.528   0.559  0.9776 -0.3660  1.0498
56514SOL     OW76146   0.299   5.540  10.109 -0.5472 -0.2741  0.0303
56514SOL    HW176147   0.215   5.580  10.082 -1.2365 -0.1647  2.1484
56514SOL    HW276148   0.320   5.479  10.039 -2.3968 -0.2772 -0.5805
56515SOL     OW76149   2.751   4.101   6.690  0.9023  0.0200  0.5832
56515SOL    HW176150   2.742   4.185   6.735 -0.0928 -0.0098  0.4617
56515SOL    HW276151   2.661   4.069   6.681  0.8469  0.6689 -2.6161
56516SOL     OW76152   9.907  12.715   0.554 -0.0774 -0.4833 -0.8603
56516SOL    HW176153   9.824  12.761   0.552  0.6508  0.8713 -1.1133
56516SOL    HW276154   9.955  12.747   0.478  1.7476  0.8967  0.7469
56517SOL     OW76155   3.313  10.084   9.490 -0.0906  0.1878  0.2263
56517SOL    HW176156   3.408  10.074   9.482 -0.1399 -0.7080  0.6441
56517SOL    HW276157   3.277  10.002   9.458 -0.7603  0.7412 -0.4585
56518SOL     OW76158   7.341   7.639   5.647  0.1590 -0.6459  0.2607
56518SOL    HW176159   7.304   7.651   5.735  0.1565 -0.8985  0.2958
56518SOL    HW276160   7.333   7.545   5.631 -0.1768 -0.5496 -0.1571
56519SOL     OW76161   1.784   5.167   6.269  0.0587 -0.0640 -0.2101
56519SOL    HW176162   1.690   5.151   6.277  0.2852 -1.5460 -0.2366
56519SOL    HW276163   1.801   5.243   6.325 -1.2993  0.8819 -0.9967
56520SOL     OW76164   6.566   6.290   0.760  0.0756 -0.7675 -0.6316
56520SOL    HW176165   6.651   6.333   0.767 -0.3421 -0.0038  0.1185
56520SOL    HW276166   6.563   6.256   0.671  1.7104 -2.0078 -0.2574
56521SOL     OW76167   0.166   3.744  10.074 -0.6381  0.3834  0.3321
56521SOL    HW176168   0.224   3.812  10.108 -1.0851  1.2161 -0.5322
56521SOL    HW276169   0.225   3.681  10.033 -0.2938  0.8805  0.0458
56522SOL     OW76170   5.858   9.820   0.405 -0.7445 -0.2494  0.5643
56522SOL    HW176171   5.826   9.738   0.442 -0.0841 -1.8758 -2.1802
56522SOL    HW276172   5.789   9.846   0.344  0.7402 -0.9999 -1.5440
56523SOL     OW76173   8.373   9.162   2.806  0.0542  0.6550 -0.0127
56523SOL    HW176174   8.310   9.111   2.754 -0.4184  1.0603  0.1609
56523SOL    HW276175   8.386   9.242   2.756  0.4782  0.5492 -0.0754
56524SOL     OW76176   7.676  11.345   9.008 -0.5050 -0.1314 -0.0429
56524SOL    HW176177   7.596  11.361   9.058 -1.1153 -0.7163 -0.8022
56524SOL    HW276178   7.669  11.403   8.932 -0.6353 -0.7997 -0.5544
56525SOL     OW76179   3.830   2.624   8.319  0.5876 -0.0754  0.2097
56525SOL    HW176180   3.875   2.655   8.398  0.1460 -1.5303  1.0711
56525SOL    HW276181   3.745   2.593   8.350  0.2489 -0.3088 -0.9109
56526SOL     OW76182   7.157   5.320   9.632  0.1208  0.1966  0.2599
56526SOL    HW176183   7.106   5.300   9.711 -0.6395  1.7605  0.2169
56526SOL    HW276184   7.244   5.342   9.665  0.3320 -0.8982  0.4825
56527SOL     OW76185   8.270   1.537   0.152  0.0918  0.1961  0.1969
56527SOL    HW176186   8.234   1.619   0.118 -0.7062 -0.7336 -1.2827
56527SOL    HW276187   8.197   1.498   0.201 -0.0257 -0.3556 -0.4119
56528SOL     OW76188  11.255   8.799   4.073 -0.0562 -0.4137  0.3868
56528SOL    HW176189  11.243   8.704   4.074 -2.0986 -0.1956  1.3647
56528SOL    HW276190  11.299   8.819   4.155 -2.1742 -0.2940  1.5561
56529SOL     OW76191   2.675   7.119   6.225 -0.7789 -0.4865 -0.7487
56529SOL    HW176192   2.618   7.136   6.149 -0.8094 -1.2136 -0.8945
56529SOL    HW276193   2.725   7.042   6.200  0.0249 -0.0646 -0.4727
56530SOL     OW76194   7.963   2.937  10.909  0.0361  0.1967 -0.4249
56530SOL    HW176195   7.968   3.005  10.841 -1.9262 -1.9137 -2.8822
56530SOL    HW276196   8.033   2.876  10.887 -0.1279 -0.1169 -0.0827
56531SOL     OW76197   9.630   8.027   4.466 -0.5868  0.2324 -0.2330
56531SOL    HW176198   9.698   8.020   4.532 -0.8513 -1.1217 -0.0758
56531SOL    HW276199   9.590   7.940   4.463 -0.6403  0.2748 -2.1140
56532SOL     OW76200   4.768  12.438  11.654 -0.2968 -0.1792  0.2281
56532SOL    HW176201   4.848  12.434  11.602 -0.6494  1.7891 -0.5387
56532SOL    HW276202   4.789  12.496  11.727 -0.7590 -0.3871  0.5337
56533SOL     OW76203   0.185   2.621   8.530 -0.5283 -0.0932 -0.3467
56533SOL    HW176204   0.235   2.703   8.532 -1.2761  0.3534  1.4928
56533SOL    HW276205   0.244   2.559   8.488  0.9297  0.8358  0.2487
56534SOL     OW76206   8.287   0.243   6.072  0.2186 -0.3292  0.8956
56534SOL    HW176207   8.376   0.237   6.106  0.3077 -2.6575  0.4081
56534SOL    HW276208   8.288   0.190   5.992 -1.5397 -0.1599  0.7132
56535SOL     OW76209   3.945  11.526   1.094  0.3598  0.3428 -0.0464
56535SOL    HW176210   3.870  11.585   1.102 -0.2356 -0.4083  0.0518
56535SOL    HW276211   3.976  11.514   1.184 -1.2845 -1.6896  0.3281
56536SOL     OW76212   4.059   7.326   3.612 -0.5489  0.0277  0.0722
56536SOL    HW176213   4.097   7.261   3.670 -0.1974  0.8656  0.8125
56536SOL    HW276214   3.975   7.349   3.652 -1.0544 -0.5532 -0.6255
56537SOL     OW76215   6.071   1.432   1.618  0.1984 -0.4295  0.0346
56537SOL    HW176216   6.045   1.340   1.611  0.9715 -0.7268  0.9515
56537SOL    HW276217   6.014   1.477   1.555 -1.5732 -1.2323  0.9918
56538SOL     OW76218   1.018  12.043   2.528 -0.4499 -0.7466 -0.2084
56538SOL    HW176219   0.938  12.093   2.516 -0.6440 -1.3392 -1.5624
56538SOL    HW276220   1.088  12.108   2.529 -0.6444 -0.4278 -2.4610
56539SOL     OW76221   0.270   8.848   4.025 -0.2479 -0.3551 -0.0738
56539SOL    HW176222   0.362   8.822   4.022  0.2966  1.3669  0.6020
56539SOL    HW276223   0.249   8.871   3.934  1.0869  2.6041  0.2461
56540SOL     OW76224  12.226   5.432   8.691  0.2557  0.8761 -0.4649
56540SOL    HW176225  12.280   5.480   8.754  1.8200 -1.4981  0.1804
56540SOL    HW276226  12.195   5.356   8.741 -0.3654  0.1229 -1.9404
56541SOL     OW76227   5.603   7.477   0.759  0.0608  0.0336  0.2982
56541SOL    HW176228   5.690   7.449   0.731  0.5182  2.0225 -0.3964
56541SOL    HW276229   5.567   7.522   0.682 -0.8633  0.7952  1.1521
56542SOL     OW76230  10.054   6.525   8.825 -0.2721  0.3958 -0.1048
56542SOL    HW176231   9.992   6.598   8.831 -0.2942  0.3129  0.6536
56542SOL    HW276232  10.139   6.564   8.845 -0.1242  0.4337 -0.7825
56543SOL     OW76233   8.283   5.516   2.820 -0.0071 -0.3209  0.6280
56543SOL    HW176234   8.242   5.474   2.895 -1.6268  0.5012  0.2367
56543SOL    HW276235   8.317   5.443   2.768 -0.1954 -0.9726  1.3944
56544SOL     OW76236   5.637   6.840   6.824 -0.3573 -0.0684  0.1212
56544SOL    HW176237   5.558   6.880   6.788 -0.3334 -0.3213 -0.2179
56544SOL    HW276238   5.664   6.776   6.758  0.7598  0.7920 -0.2860
56545SOL     OW76239  10.596   5.633  11.892  0.7286 -0.1915 -0.6886
56545SOL    HW176240  10.524   5.612  11.951 -0.3706 -0.0012 -1.9196
56545SOL    HW276241  10.576   5.721  11.860  1.0328 -0.4716 -1.6941
56546SOL     OW76242   7.814   5.729   4.568 -0.1274  0.0818 -0.4571
56546SOL    HW176243   7.793   5.670   4.495 -1.0730 -1.4647  0.9662
56546SOL    HW276244   7.766   5.692   4.642  1.9679  0.7131  1.3085
56547SOL     OW76245   2.394   3.738   4.961 -0.3090 -0.1317 -0.2964
56547SOL    HW176246   2.486   3.757   4.979 -0.7769  1.2176  0.9248
56547SOL    HW276247   2.385   3.644   4.977  0.9472 -0.3825 -0.9483
56548SOL     OW76248   7.398  11.085   2.116 -0.3453  0.5360  0.1125
56548SOL    HW176249   7.336  11.157   2.128 -0.6458  0.1961  0.6716
56548SOL    HW276250   7.356  11.028   2.052 -0.1588  0.8021 -0.2463
56549SOL     OW76251   8.195  10.114  10.831  0.4440 -0.8023  0.1940
56549SOL    HW176252   8.196  10.208  10.814  1.2244 -0.8256  0.0745
56549SOL    HW276253   8.112  10.084  10.794 -0.3858  0.0303  1.3379
56550SOL     OW76254   5.089   4.126   1.289  0.1711  0.1560 -0.5812
56550SOL    HW176255   5.010   4.072   1.288  1.1295 -1.2981 -0.2894
56550SOL    HW276256   5.065   4.204   1.238 -1.8926  0.4395  0.7130
56551SOL     OW76257   7.328   3.255   2.216  0.4108  0.2566  0.2970
56551SOL    HW176258   7.399   3.255   2.152  0.7248  0.3857  0.6394
56551SOL    HW276259   7.264   3.194   2.180  0.7437  0.0554  0.0326
56552SOL     OW76260  10.219   9.320   5.374 -0.3645 -0.6344  0.3458
56552SOL    HW176261  10.284   9.365   5.321 -0.4791 -0.0798  0.6627
56552SOL    HW276262  10.269   9.260   5.429 -0.1764 -0.6279  0.1811
56553SOL     OW76263   4.126   6.160   4.034 -0.7307  0.0337 -0.9218
56553SOL    HW176264   4.076   6.190   4.110 -0.8667 -3.6201  0.6004
56553SOL    HW276265   4.216   6.188   4.051 -0.5473 -1.6774  1.2278
56554SOL     OW76266   2.274   8.429   2.531 -0.0869 -0.2200 -0.1111
56554SOL    HW176267   2.333   8.471   2.593 -0.6736 -0.6757  0.7831
56554SOL    HW276268   2.272   8.487   2.456 -1.1205  1.5515  1.2055
56555SOL     OW76269   3.048   0.027  10.893  0.0802  0.0323  0.1159
56555SOL    HW176270   3.030  -0.034  10.822  1.7772  0.7768 -1.0128
56555SOL    HW276271   3.020   0.112  10.861 -1.8078  0.0108  1.4980
56556SOL     OW76272  10.918   7.112   6.804  0.0749 -0.1414 -0.0825
56556SOL    HW176273  10.979   7.109   6.878 -1.8191 -0.0897  1.5567
56556SOL    HW276274  10.892   7.204   6.799  1.1678  0.1286 -1.7280
56557SOL     OW76275   0.235   0.838   9.947  0.6353  0.9764  0.3146
56557SOL    HW176276   0.242   0.932   9.965  1.4774  1.3806 -1.8647
56557SOL    HW276277   0.201   0.833   9.858 -0.3039 -0.8329  0.7200
56558SOL     OW76278   4.783   8.266  11.887  0.4177  0.5478 -0.0116
56558SOL    HW176279   4.724   8.332  11.850  1.3683  0.8385 -1.0741
56558SOL    HW276280   4.769   8.272  11.981  0.0638  1.8820 -0.1281
56559SOL     OW76281   1.038   1.305   7.790 -0.0208  0.1115 -0.2400
56559SOL    HW176282   1.038   1.394   7.828 -0.8468 -0.5023  1.3084
56559SOL    HW276283   0.973   1.258   7.842 -0.3427 -1.1413 -1.7160
56560SOL     OW76284   7.182   1.870   5.438  0.0381  0.1196 -0.3055
56560SOL    HW176285   7.143   1.953   5.467 -0.3210  0.6326 -2.1000
56560SOL    HW276286   7.247   1.895   5.374 -2.0485 -1.0141 -3.0849
56561SOL     OW76287   3.992   3.959  10.715 -0.2291 -0.3591 -0.8002
56561SOL    HW176288   4.014   4.048  10.685  0.1651  0.2422  1.1692
56561SOL    HW276289   3.896   3.956  10.710 -0.3614  0.7387  0.5571
56562SOL     OW76290  10.121   0.877   7.894 -0.4637  0.0168  0.4263
56562SOL    HW176291  10.148   0.963   7.928 -1.6708  0.3918  0.4826
56562SOL    HW276292  10.062   0.843   7.961 -2.8880  0.7657 -1.2336
56563SOL     OW76293  10.359  11.127   1.009 -0.0387  0.3955 -0.2464
56563SOL    HW176294  10.376  11.216   0.978 -0.1375  0.2200 -0.8321
56563SOL    HW276295  10.332  11.079   0.930 -0.9435  0.0846  0.2324
56564SOL     OW76296   7.682   0.080  11.452 -0.6195  0.2897  0.0929
56564SOL    HW176297   7.744   0.149  11.430 -0.9265  0.2223 -1.1075
56564SOL    HW276298   7.597   0.114  11.423 -0.6206 -0.9956 -1.5652
56565SOL     OW76299   6.634  11.011   2.735 -0.1041  0.1713  0.5611
56565SOL    HW176300   6.649  10.922   2.767 -2.7235 -0.0856  1.3202
56565SOL    HW276301   6.642  11.066   2.813 -0.5133  0.3164  0.5043
56566SOL     OW76302  10.741   6.198  11.578  0.2494  0.5432  0.3049
56566SOL    HW176303  10.718   6.153  11.497 -0.0007  1.7672 -0.3295
56566SOL    HW276304  10.672   6.265  11.588  1.8128  2.2786 -0.0042
56567SOL     OW76305   1.076   2.983   2.553  0.0509  0.1554  0.5006
56567SOL    HW176306   1.002   3.005   2.497  0.2540  0.6138  0.4084
56567SOL    HW276307   1.135   2.933   2.497 -0.7948 -1.3892  0.9365
56568SOL     OW76308   3.618   2.406   7.744  0.0631  0.3928 -0.7466
56568SOL    HW176309   3.608   2.499   7.762 -1.5344  0.2843 -0.9137
56568SOL    HW276310   3.563   2.390   7.667  0.0810 -0.7342 -0.5462
56569SOL     OW76311   9.369   1.887  12.346 -0.3247  0.3084  0.0602
56569SOL    HW176312   9.424   1.922  12.417  0.0873 -0.9499  0.3735
56569SOL    HW276313   9.279   1.898  12.377 -0.1421 -0.3576  0.8425
56570SOL     OW76314  11.597   5.298   9.655 -0.0768  0.3751 -0.3903
56570SOL    HW176315  11.632   5.285   9.743  0.3373  0.8739 -0.4795
56570SOL    HW276316  11.559   5.386   9.657 -0.7642  0.0909 -0.4864
56571SOL     OW76317   4.084   7.281   9.358 -1.0728 -0.3290  0.4429
56571SOL    HW176318   4.065   7.368   9.391  0.9259 -0.4660  2.1918
56571SOL    HW276319   4.179   7.281   9.344 -0.9536 -2.3333  0.9137
56572SOL     OW76320   6.991   4.528   9.793  0.1729 -0.5329 -0.1438
56572SOL    HW176321   6.943   4.500   9.715 -0.8530  1.2217 -0.2071
56572SOL    HW276322   7.039   4.606   9.765 -1.7347  1.3134  1.3690
56573SOL     OW76323   4.610  12.040   1.495  0.6607 -0.4196 -0.3896
56573SOL    HW176324   4.697  12.013   1.525  1.0777 -0.8844 -1.9221
56573SOL    HW276325   4.626  12.118   1.442  0.4264 -1.5453 -2.2123
56574SOL     OW76326   1.414   2.119   0.529  0.1847 -0.1951  0.6561
56574SOL    HW176327   1.505   2.140   0.509  1.2016 -1.9708  2.9563
56574SOL    HW276328   1.380   2.082   0.448  1.1135  1.5479 -0.5902
56575SOL     OW76329   0.733  10.878   1.098  0.3765 -0.7110  0.0883
56575SOL    HW176330   0.816  10.839   1.070  0.1039 -0.1163 -1.7049
56575SOL    HW276331   0.758  10.945   1.161  1.3254 -0.2961 -0.6981
56576SOL     OW76332  11.409   2.131   5.888 -0.3037 -0.1058  0.5385
56576SOL    HW176333  11.483   2.166   5.937  0.9836 -1.9182 -0.0007
56576SOL    HW276334  11.394   2.195   5.818  0.8276  0.2625  0.6177
56577SOL     OW76335   6.355   3.910   9.007  0.0044  0.4079 -0.2053
56577SOL    HW176336   6.340   3.980   9.070 -1.4342 -0.6149  0.6312
56577SOL    HW276337   6.359   3.954   8.922  0.4326  1.6304  0.4293
56578SOL     OW76338   5.254   9.818  11.713  0.5161 -0.4597 -0.5665
56578SOL    HW176339   5.314   9.813  11.639  2.0769  1.1271  0.4988
56578SOL    HW276340   5.284   9.750  11.773 -0.2217 -1.1869 -1.0018
56579SOL     OW76341   9.711   1.841   3.014  0.5454  0.6131  0.2616
56579SOL    HW176342   9.656   1.868   3.087 -0.7131  1.5135 -0.9579
56579SOL    HW276343   9.667   1.763   2.979  0.8676  0.4679  0.1789
56580SOL     OW76344   5.962   4.199   3.785  0.0612 -0.3067 -0.1878
56580SOL    HW176345   6.047   4.198   3.829  0.3977 -2.2497 -0.7540
56580SOL    HW276346   5.982   4.169   3.696 -1.4318 -2.7643  0.2219
56581SOL     OW76347  11.785   5.444   2.238 -0.7124  0.0081  0.1377
56581SOL    HW176348  11.799   5.440   2.143 -2.3915 -0.0817 -0.1409
56581SOL    HW276349  11.776   5.353   2.264 -2.4935  0.0891 -0.0365
56582SOL     OW76350   8.121   6.068   4.567 -0.6335  0.0136 -0.2497
56582SOL    HW176351   8.120   6.153   4.613  0.3390 -1.3443  2.5062
56582SOL    HW276352   8.146   6.091   4.478 -1.3694  2.7268  0.1226
56583SOL     OW76353   1.044   2.372   5.547  0.1111 -0.7542  0.0529
56583SOL    HW176354   1.075   2.462   5.552  1.0004 -1.0440  0.1054
56583SOL    HW276355   0.996   2.366   5.465 -0.3241 -0.1284  0.2592
56584SOL     OW76356   7.805   7.838   3.051 -0.7677  0.0242  0.2068
56584SOL    HW176357   7.829   7.925   3.083  0.6552 -0.2945  0.1080
56584SOL    HW276358   7.888   7.790   3.048 -1.6298 -1.6343  1.1190
56585SOL     OW76359   2.793   6.934   9.509  0.3113  0.3549 -0.1838
56585SOL    HW176360   2.716   6.880   9.528 -0.5796  1.2186 -1.2117
56585SOL    HW276361   2.796   6.998   9.580  2.1395 -1.7453  1.7879
56586SOL     OW76362   2.404   0.128  10.401 -0.1875 -0.4598 -0.0698
56586SOL    HW176363   2.378   0.085  10.483 -4.2175  0.1426 -0.8377
56586SOL    HW276364   2.395   0.060  10.334  0.6456 -0.2815 -0.3817
56587SOL     OW76365  11.396  12.661   9.836  0.1263 -0.2919 -1.1823
56587SOL    HW176366  11.312  12.677   9.878 -0.2898  0.5014 -2.2792
56587SOL    HW276367  11.424  12.576   9.870 -0.1876  0.3102  0.6672
56588SOL     OW76368  10.328   3.989  11.508 -0.4183 -0.3183 -0.1682
56588SOL    HW176369  10.339   3.895  11.520 -0.3477 -0.2757  0.0996
56588SOL    HW276370  10.360   4.028  11.589  0.0858 -0.0274 -0.5054
56589SOL     OW76371   7.479   7.683  12.499  0.5648 -0.1573  0.3209
56589SOL    HW176372   7.545   7.737  12.455  1.7310 -2.4220 -0.8572
56589SOL    HW276373   7.441   7.631  12.429  0.0743 -1.4735  1.5329
56590SOL     OW76374   4.454   0.068   6.464 -0.3062  0.1583 -0.0163
56590SOL    HW176375   4.488   0.097   6.380 -1.0726 -0.0341 -0.4089
56590SOL    HW276376   4.466   0.143   6.523  3.6081 -0.8795  0.7683
56591SOL     OW76377   5.601   9.050   1.652 -0.1298 -0.2208 -0.9113
56591SOL    HW176378   5.599   9.136   1.610 -1.0947 -0.4501 -1.3624
56591SOL    HW276379   5.690   9.018   1.638  0.0075  0.3687 -1.4271
56592SOL     OW76380   5.099  11.588   3.567 -0.4714 -0.2799 -0.3738
56592SOL    HW176381   5.012  11.601   3.605 -0.4309 -0.8196 -0.0806
56592SOL    HW276382   5.159  11.601   3.640 -0.4176 -1.7886 -0.1252
56593SOL     OW76383   8.972   2.920   2.127  0.4120 -0.2452  0.1778
56593SOL    HW176384   8.881   2.913   2.101  0.4068 -0.3320  0.2171
56593SOL    HW276385   9.011   2.983   2.066  0.1090  0.5155  0.7526
56594SOL     OW76386   0.144   2.341  11.860  0.5145 -0.3033 -0.6914
56594SOL    HW176387   0.094   2.341  11.941  0.1344  0.3524 -0.9170
56594SOL    HW276388   0.185   2.255  11.857 -0.2447 -0.6893 -0.2896
56595SOL     OW76389   6.387  11.078  12.177  0.2358 -0.5436  0.1130
56595SOL    HW176390   6.323  11.009  12.159 -1.5905  0.9794  0.4540
56595SOL    HW276391   6.433  11.048  12.255 -3.2139  0.2479  2.6741
56596SOL     OW76392  11.431  11.625   7.478  0.0460  0.1836 -0.0011
56596SOL    HW176393  11.449  11.558   7.544  0.2649 -0.3053 -0.5421
56596SOL    HW276394  11.506  11.684   7.482  0.2970 -0.1251 -0.1540
56597SOL     OW76395   9.472   0.153   0.489  0.4644  0.2033  0.1492
56597SOL    HW176396   9.465   0.190   0.577  0.3476 -1.5606  0.9214
56597SOL    HW276397   9.562   0.169   0.464  1.0262 -0.8321  1.3636
56598SOL     OW76398   3.720   3.363   2.965 -0.0759  0.1781 -0.2834
56598SOL    HW176399   3.761   3.306   3.030 -0.0901  1.3617  0.7793
56598SOL    HW276400   3.626   3.355   2.982 -0.1634 -0.4200 -0.9562
56599SOL     OW76401   2.283   4.510   9.016  0.0734 -0.4735 -0.3959
56599SOL    HW176402   2.277   4.463   9.099  2.4555 -0.2745 -0.0186
56599SOL    HW276403   2.347   4.460   8.965 -0.1164  0.3271 -1.4488
56600SOL     OW76404   9.765  10.448   2.184  0.1821  0.1603 -0.3820
56600SOL    HW176405   9.709  10.386   2.137 -0.1638  1.4082 -1.6836
56600SOL    HW276406   9.854  10.427   2.155  0.0923  0.1023 -0.6196
56601SOL     OW76407   1.451   4.506   7.727 -0.1414  0.5412  0.4614
56601SOL    HW176408   1.360   4.520   7.753 -0.6951 -0.7934 -0.6347
56601SOL    HW276409   1.497   4.484   7.809 -1.2349 -0.7046  0.7766
56602SOL     OW76410   9.632   9.685   0.992 -0.1053 -0.3089 -0.0091
56602SOL    HW176411   9.618   9.739   1.070  1.5984  0.5958 -0.2835
56602SOL    HW276412   9.578   9.608   1.007 -1.0402  0.5517  1.3371
56603SOL     OW76413   2.633   9.915   0.024  0.0289 -0.0762  0.0659
56603SOL    HW176414   2.563   9.879  -0.031  0.3425 -1.7656  0.6980
56603SOL    HW276415   2.596   9.914   0.112  0.8834 -1.1555  0.4319
56604SOL     OW76416   9.645   6.485   4.374  0.4456  0.6354 -0.1848
56604SOL    HW176417   9.606   6.561   4.330  0.5294  0.4991 -0.4977
56604SOL    HW276418   9.599   6.410   4.337  0.5783  0.5132 -0.1018
56605SOL     OW76419   1.447  11.142   6.479  0.6519 -0.1009 -0.4252
56605SOL    HW176420   1.449  11.158   6.573 -0.0591  0.3770 -0.4826
56605SOL    HW276421   1.525  11.187   6.446  0.5870  0.2202 -0.1426
56606SOL     OW76422  11.892   4.784   9.988  0.1970 -0.1057 -0.4504
56606SOL    HW176423  11.960   4.717   9.983  3.2100  2.7236 -3.7920
56606SOL    HW276424  11.826   4.756   9.926 -0.6396 -1.7765  1.1190
56607SOL     OW76425  10.870   6.371   6.669 -0.6764  0.2410  0.2863
56607SOL    HW176426  10.886   6.392   6.577 -0.0360  0.6537  0.4873
56607SOL    HW276427  10.784   6.409   6.687 -1.4377 -1.0117 -0.4928
56608SOL     OW76428   4.515   0.727   8.962 -0.4375  0.0460 -0.0487
56608SOL    HW176429   4.423   0.752   8.972 -0.4276 -0.0398  0.2605
56608SOL    HW276430   4.560   0.809   8.944 -0.6333  0.0330 -0.6044
56609SOL     OW76431   7.212   2.755  10.810 -0.3271  0.1409 -0.5014
56609SOL    HW176432   7.303   2.725  10.805 -0.5393 -0.4727 -0.9297
56609SOL    HW276433   7.161   2.674  10.810 -0.8390  0.4289  0.9668
56610SOL     OW76434   1.636   6.923   8.679 -0.0752 -0.3322 -0.1168
56610SOL    HW176435   1.663   6.922   8.588 -1.6094 -0.2730 -0.6023
56610SOL    HW276436   1.541   6.908   8.676  0.0027 -1.4045  1.5256
56611SOL     OW76437   7.030   2.612   5.824 -0.5108  0.1980  0.0507
56611SOL    HW176438   7.044   2.697   5.782 -0.5713 -0.0287 -0.4294
56611SOL    HW276439   6.978   2.562   5.761  1.1105 -0.8658 -0.5062
56612SOL     OW76440  12.260   4.134  11.012 -0.5406  0.0827  0.5023
56612SOL    HW176441  12.223   4.047  11.003 -1.3499  0.1481  2.6302
56612SOL    HW276442  12.327   4.125  11.081 -0.0774  0.9757  0.1833
56613SOL     OW76443   8.807  12.524   1.506 -0.8067  0.1977 -0.1778
56613SOL    HW176444   8.778  12.461   1.571 -1.3400 -0.5846 -1.1549
56613SOL    HW276445   8.775  12.608   1.538 -1.7732 -0.2925  0.1541
56614SOL     OW76446   7.039   6.382   6.082 -0.3214 -0.2024 -0.1086
56614SOL    HW176447   7.079   6.358   5.999 -1.5987 -1.9781 -0.2620
56614SOL    HW276448   6.952   6.414   6.059  0.5898  2.8540  0.2898
56615SOL     OW76449   4.467   4.960   9.431 -0.1331  0.1411  0.2882
56615SOL    HW176450   4.477   4.968   9.336 -0.2024 -0.1639  0.2543
56615SOL    HW276451   4.535   5.017   9.468  0.4519 -0.4025  0.0579
56616SOL     OW76452   0.333   6.069  11.396 -0.3359 -0.3562  0.4181
56616SOL    HW176453   0.257   6.044  11.447  2.1566 -2.6452  3.3655
56616SOL    HW276454   0.360   6.153  11.433 -1.2147  0.3499 -0.4845
56617SOL     OW76455   5.924   0.099   1.252  0.0597  0.2437 -0.1092
56617SOL    HW176456   5.977   0.040   1.198 -0.2702  0.2915 -0.4896
56617SOL    HW276457   5.954   0.187   1.227  0.4125  0.2509  0.3143
56618SOL     OW76458  11.754   8.394   1.578 -0.3163 -0.0814 -0.3732
56618SOL    HW176459  11.770   8.308   1.541 -2.4549  0.3800 -2.5746
56618SOL    HW276460  11.820   8.450   1.538  0.4112 -0.4638  0.2625
56619SOL     OW76461   2.471   6.656   7.703  0.6056 -0.2028  0.2253
56619SOL    HW176462   2.405   6.711   7.744 -0.4931 -0.3422 -1.2646
56619SOL    HW276463   2.499   6.706   7.626 -0.6747 -1.7814 -1.3734
56620SOL     OW76464   8.778   3.352  12.256  0.8014 -0.0379  0.4137
56620SOL    HW176465   8.774   3.425  12.194  0.9630 -0.7604 -0.4724
56620SOL    HW276466   8.687   3.340  12.286 -0.0023 -1.8909 -2.3738
56621SOL     OW76467   6.230   7.537   2.829 -0.3347 -0.2868 -0.5538
56621SOL    HW176468   6.171   7.571   2.897 -1.1030  0.5993 -1.6428
56621SOL    HW276469   6.311   7.586   2.841  0.7960 -2.4394  1.8327
56622SOL     OW76470   7.310   0.992   2.526 -0.3419 -0.1145  0.3163
56622SOL    HW176471   7.329   0.900   2.542  1.3809 -0.0575 -1.0107
56622SOL    HW276472   7.336   1.037   2.606  1.8645 -0.4935 -0.1177
56623SOL     OW76473  12.479   1.964   3.303  0.7191 -0.2120 -0.0682
56623SOL    HW176474  12.464   1.953   3.209 -0.1644 -2.0854  0.2320
56623SOL    HW276475  12.396   1.940   3.344  1.9035 -2.3733  1.2989
56624SOL     OW76476   0.518   5.818   1.734  0.1930  0.1250  0.4669
56624SOL    HW176477   0.608   5.793   1.755 -0.0667 -2.3728 -0.9325
56624SOL    HW276478   0.525   5.862   1.650  0.1187 -0.0126  0.3888
56625SOL     OW76479   7.328   5.517   0.156 -0.0984  0.8621  0.2511
56625SOL    HW176480   7.252   5.464   0.181  0.1888 -0.7951 -2.0947
56625SOL    HW276481   7.402   5.457   0.162  0.7233  1.8572  0.3817
56626SOL     OW76482   6.572   2.317   4.524  0.0639 -0.2601  0.4711
56626SOL    HW176483   6.580   2.317   4.619 -2.5562 -1.0951  0.7611
56626SOL    HW276484   6.511   2.247   4.505 -1.1469  1.2554 -1.6602
56627SOL     OW76485   1.858   3.659   8.702  0.2560  0.0924 -0.2021
56627SOL    HW176486   1.827   3.594   8.766 -0.1736 -1.5029 -1.9334
56627SOL    HW276487   1.795   3.653   8.630  1.0076  1.4567 -1.0025
56628SOL     OW76488  11.129   0.219   3.282  0.1299  0.3390 -0.0764
56628SOL    HW176489  11.167   0.208   3.369 -1.6043  1.1336  0.8231
56628SOL    HW276490  11.035   0.231   3.298 -0.1859  0.8127 -2.0435
56629SOL     OW76491   3.211   8.626   1.074  0.1371 -0.1783 -0.3512
56629SOL    HW176492   3.233   8.586   1.158  0.1992 -1.6221 -1.0184
56629SOL    HW276493   3.258   8.709   1.074  0.6928 -0.4693  0.7510
56630SOL     OW76494   1.994   6.914  11.336 -0.4756 -0.2108 -0.4388
56630SOL    HW176495   1.956   6.995  11.302 -0.9150 -0.1727  0.1356
56630SOL    HW276496   1.977   6.917  11.430  1.7374  0.2556  0.0192
56631SOL     OW76497   1.398  11.182   4.282  0.4353  0.0369 -0.0192
56631SOL    HW176498   1.332  11.144   4.224 -0.5617  0.7762  0.6149
56631SOL    HW276499   1.481  11.164   4.238 -0.1837 -0.8401 -0.8674
56632SOL     OW76500   3.594  11.257   2.789 -0.1747  0.4724 -0.0828
56632SOL    HW176501   3.687  11.260   2.768 -0.1353  1.4421  0.1793
56632SOL    HW276502   3.551  11.302   2.717 -0.7819 -2.4898 -1.7520
56633SOL     OW76503   7.331   0.563   7.710 -0.5010  0.3193  0.5514
56633SOL    HW176504   7.316   0.478   7.667 -0.1951 -0.5001  2.0115
56633SOL    HW276505   7.418   0.589   7.681 -0.5677  0.1084  0.1458
56634SOL     OW76506   8.255   8.084   6.419  0.4629  0.5865  0.2290
56634SOL    HW176507   8.185   8.146   6.439 -0.6444 -0.7015  0.4438
56634SOL    HW276508   8.305   8.126   6.349 -1.8964  0.5820 -1.5646
56635SOL     OW76509  11.994  10.685   9.636  0.3344 -1.1473  0.4295
56635SOL    HW176510  12.039  10.695   9.720  0.2347  0.2716  0.3376
56635SOL    HW276511  11.901  10.678   9.659  0.4252 -2.4059  0.5124
56636SOL     OW76512   8.449  11.847  12.658 -0.3346  0.4732  0.3179
56636SOL    HW176513   8.540  11.877  12.659 -0.2816  0.5173 -1.7090
56636SOL    HW276514   8.416  11.872  12.572 -1.7314 -1.0784  0.3433
56637SOL     OW76515   3.324   1.739   7.974 -0.0982 -0.1422 -0.0636
56637SOL    HW176516   3.367   1.654   7.973 -0.3179 -0.2958 -2.5890
56637SOL    HW276517   3.230   1.719   7.973 -0.1667  0.1470  0.2659
56638SOL     OW76518  11.951   9.204  11.886 -0.2236 -0.2215 -0.1144
56638SOL    HW176519  11.988   9.152  11.957 -2.6539 -0.8449  0.7893
56638SOL    HW276520  11.976   9.294  11.906  1.2101 -0.6487  0.1339
56639SOL     OW76521   3.559   8.700   8.332  0.1503 -0.2025  0.6023
56639SOL    HW176522   3.646   8.695   8.372  0.3782 -1.4671 -0.0170
56639SOL    HW276523   3.561   8.637   8.261 -0.9618  0.4710 -0.0593
56640SOL     OW76524  11.006   5.942   3.635 -0.1703 -0.3548  0.1823
56640SOL    HW176525  11.087   5.927   3.683 -0.5510 -1.4631  0.5089
56640SOL    HW276526  11.033   5.950   3.544  0.7422  3.2305  0.6239
56641SOL     OW76527  10.574   8.142   7.164  0.2260  0.7549 -0.6682
56641SOL    HW176528  10.586   8.105   7.076 -1.6204  0.2626 -0.7543
56641SOL    HW276529  10.509   8.085   7.205  0.6239  1.3398  0.8221
56642SOL     OW76530   1.083   8.793   4.420 -0.9111  0.3688  0.5564
56642SOL    HW176531   1.105   8.803   4.512  0.9966  0.7617  0.1070
56642SOL    HW276532   1.025   8.867   4.400  0.9726  2.0141  0.8130
56643SOL     OW76533   8.116   4.980  11.020 -0.1409 -0.4595 -0.0114
56643SOL    HW176534   8.056   4.933  11.078  0.2890  0.8796  1.6052
56643SOL    HW276535   8.197   4.988  11.071  0.6725 -0.2929 -1.2868
56644SOL     OW76536   1.937   8.547  12.025 -0.0154 -0.0417  0.2120
56644SOL    HW176537   1.900   8.591  11.948  0.8891 -1.2715 -0.9628
56644SOL    HW276538   2.002   8.487  11.989  1.8505  0.7465  2.0822
56645SOL     OW76539   0.897   5.855   5.488  0.2045 -0.2376 -0.1988
56645SOL    HW176540   0.837   5.792   5.528 -0.7161 -0.0064 -1.1818
56645SOL    HW276541   0.984   5.829   5.519 -0.2563 -1.4187  0.1334
56646SOL     OW76542   1.862   7.729   8.029  0.2044  0.3337 -0.2595
56646SOL    HW176543   1.941   7.739   8.082  0.7787 -2.5941 -0.3758
56646SOL    HW276544   1.791   7.759   8.085  1.1686  0.8595  0.7138
56647SOL     OW76545  10.602   7.700   4.796 -0.0317  0.7391 -0.1908
56647SOL    HW176546  10.615   7.642   4.721  1.3105  1.0267 -0.2075
56647SOL    HW276547  10.507   7.712   4.801 -0.2192 -0.2154 -1.1233
56648SOL     OW76548   2.422   0.879   7.638  0.6484 -0.4185  0.1749
56648SOL    HW176549   2.367   0.935   7.692 -1.3026 -0.7642 -1.3186
56648SOL    HW276550   2.364   0.807   7.612  2.1580 -1.4258 -0.5535
56649SOL     OW76551   5.435   3.574   2.305 -0.0344  0.0412  0.3542
56649SOL    HW176552   5.475   3.661   2.312 -0.6538  0.3025  0.7911
56649SOL    HW276553   5.495   3.516   2.351  0.4315  0.2169 -0.0174
56650SOL     OW76554   3.359   3.617   7.590  0.0457 -0.7358  0.0518
56650SOL    HW176555   3.279   3.663   7.564  0.0878  0.0851  1.2906
56650SOL    HW276556   3.329   3.548   7.649  0.1392 -1.2729 -0.5208
56651SOL     OW76557   3.549   2.554  10.991 -0.3234  0.2032 -0.0456
56651SOL    HW176558   3.511   2.609  11.059 -0.7807 -1.6541  1.2917
56651SOL    HW276559   3.643   2.556  11.008 -0.1783  1.5706 -0.8414
56652SOL     OW76560   8.498   5.521  11.624  0.8080  0.2995  0.0132
56652SOL    HW176561   8.443   5.583  11.577 -0.3030 -0.7698 -0.1404
56652SOL    HW276562   8.483   5.542  11.716  2.6569  2.1119 -0.0286
56653SOL     OW76563   3.229   1.391  10.431 -0.2948  0.4582 -0.1119
56653SOL    HW176564   3.135   1.381  10.414  0.2544 -0.7431 -3.2483
56653SOL    HW276565   3.254   1.310  10.476 -0.7591  0.7589  0.6865
56654SOL     OW76566   9.966   5.546   0.169  0.6120  0.1539 -0.2349
56654SOL    HW176567  10.046   5.592   0.193  0.5356  0.9530 -1.4580
56654SOL    HW276568   9.918   5.607   0.114 -0.4636 -0.6239 -0.1944
56655SOL     OW76569  10.941  10.132   3.845 -0.1998  0.1182  0.0922
56655SOL    HW176570  11.016  10.087   3.807  0.4605 -0.7575  2.2660
56655SOL    HW276571  10.929  10.210   3.790 -0.3772 -1.8104 -2.8088
56656SOL     OW76572   1.969   1.144   2.172 -0.3942 -0.1083  0.7306
56656SOL    HW176573   2.043   1.199   2.199 -0.6616  0.3037  0.6316
56656SOL    HW276574   1.982   1.130   2.079  0.9376 -2.1480  1.1443
56657SOL     OW76575   8.225   3.352  10.893  0.1511 -0.1885  0.3303
56657SOL    HW176576   8.213   3.300  10.972 -0.3177  0.5555  0.7591
56657SOL    HW276577   8.232   3.442  10.924 -1.9496  0.3437 -0.5978
56658SOL     OW76578  10.392   8.846   5.944 -0.1614  0.1681  0.1018
56658SOL    HW176579  10.375   8.886   6.030 -0.7768 -1.0412  0.5663
56658SOL    HW276580  10.336   8.895   5.884  0.1265  0.8988  0.4120
56659SOL     OW76581   2.401   8.445   5.060  0.0783  0.0884  0.0841
56659SOL    HW176582   2.468   8.439   4.992 -1.1074  0.4033 -1.1569
56659SOL    HW276583   2.449   8.434   5.142  2.0895  2.9165 -0.5492
56660SOL     OW76584   8.735  10.786   7.919 -0.5349 -0.2373 -0.5849
56660SOL    HW176585   8.697  10.855   7.972 -0.8825  0.3041 -1.5135
56660SOL    HW276586   8.701  10.802   7.831 -1.7729 -2.4179 -0.5725
56661SOL     OW76587   2.836   3.264   1.908 -0.2118 -0.1949 -0.1971
56661SOL    HW176588   2.929   3.257   1.929 -0.2649 -1.4915 -0.2624
56661SOL    HW276589   2.798   3.313   1.980  0.4270 -0.1562  0.1223
56662SOL     OW76590   1.659  12.715  12.015  0.2422 -0.7406  0.0764
56662SOL    HW176591   1.642  12.725  11.921  3.8262  2.0730 -0.5075
56662SOL    HW276592   1.609  12.786  12.056  0.1316 -0.8063  0.0541
56663SOL     OW76593   1.064   3.367   1.389 -0.3160 -0.1422 -0.4050
56663SOL    HW176594   1.127   3.322   1.444  0.2033 -0.8628 -1.5563
56663SOL    HW276595   0.982   3.320   1.403 -0.0136 -0.8083 -0.8008
56664SOL     OW76596   6.678   6.450   6.626 -0.4541  0.5443 -0.3656
56664SOL    HW176597   6.699   6.377   6.568 -0.4786  1.8735 -2.1262
56664SOL    HW276598   6.761   6.495   6.641 -0.2067 -0.4900  1.7360
56665SOL     OW76599   5.025  11.319  10.332 -0.7518  0.3161 -0.4064
56665SOL    HW176600   5.079  11.344  10.257  0.2095  1.5712  0.6451
56665SOL    HW276601   4.938  11.351  10.310 -0.5607  0.3498 -1.1446
56666SOL     OW76602   8.994  10.388   2.448 -0.3624  0.3653 -0.2307
56666SOL    HW176603   9.075  10.439   2.447  0.3702 -0.7261  0.6533
56666SOL    HW276604   8.933  10.443   2.496  0.7726 -0.0276  1.7908
56667SOL     OW76605   8.888   9.673   3.954 -0.3030  0.5047  0.3169
56667SOL    HW176606   8.900   9.719   3.871  1.5566  0.3856  0.4690
56667SOL    HW276607   8.925   9.733   4.019 -2.4919  0.9743  1.2205
56668SOL     OW76608   4.721  11.884   9.114 -0.0098 -0.8098 -0.0137
56668SOL    HW176609   4.744  11.975   9.093  1.4629 -1.2170 -0.3132
56668SOL    HW276610   4.636  11.890   9.156  0.0063  0.7044 -0.1232
56669SOL     OW76611   4.814   1.236   6.772 -0.2197  0.0416  0.1573
56669SOL    HW176612   4.889   1.242   6.831 -0.2651 -1.0340  0.3443
56669SOL    HW276613   4.744   1.284   6.817  0.0516  0.1539  0.4596
56670SOL     OW76614   7.258   4.363   9.237  0.5851 -0.0148 -0.5280
56670SOL    HW176615   7.186   4.325   9.288  0.2452 -0.1224 -1.0822
56670SOL    HW276616   7.245   4.457   9.246  1.8600  0.0296  1.4613
56671SOL     OW76617   4.461  11.619   4.014 -0.3474  0.1579 -0.7801
56671SOL    HW176618   4.481  11.542   3.961  2.0011  0.4401 -0.3954
56671SOL    HW276619   4.391  11.589   4.073 -0.0159 -1.4557 -1.1491
56672SOL     OW76620   8.412   1.840   4.721  0.2468 -0.5298 -0.0108
56672SOL    HW176621   8.458   1.805   4.797  0.7170 -1.3173 -0.6431
56672SOL    HW276622   8.329   1.873   4.756  0.4671 -0.8570  0.8402
56673SOL     OW76623   3.071   4.299   2.579 -0.4539 -0.4533  0.2843
56673SOL    HW176624   3.054   4.218   2.530  1.5181 -1.4493  1.1134
56673SOL    HW276625   3.062   4.369   2.514  0.4065 -1.5825 -1.1140
56674SOL     OW76626   9.491  11.314   7.556  0.2143  0.4510 -0.2749
56674SOL    HW176627   9.483  11.322   7.651 -1.8936 -0.2007 -0.3450
56674SOL    HW276628   9.540  11.233   7.542 -1.3582 -0.6503  0.2921
56675SOL     OW76629   2.951   4.036   2.807  0.2405 -0.0566 -0.5479
56675SOL    HW176630   2.972   4.067   2.894  0.0586 -2.5627  0.4893
56675SOL    HW276631   2.869   4.081   2.784  1.1024  1.7961 -0.1489
56676SOL     OW76632   9.136  10.407   6.848 -0.2878  0.4337  0.7191
56676SOL    HW176633   9.165  10.369   6.765 -0.0197  1.8453  0.1337
56676SOL    HW276634   9.160  10.342   6.914  2.9930  0.8673  0.1256
56677SOL     OW76635   2.504   7.611   9.636 -0.4924 -0.4164  0.0459
56677SOL    HW176636   2.443   7.583   9.568  0.5613 -0.5782 -0.8606
56677SOL    HW276637   2.453   7.671   9.691 -0.9094  1.1015 -1.8940
56678SOL     OW76638   9.404   3.876   8.825 -0.1586 -1.0981 -0.3848
56678SOL    HW176639   9.491   3.915   8.834 -0.1619 -1.2565  0.4257
56678SOL    HW276640   9.415   3.808   8.758  0.4521 -1.4285  0.0412
56679SOL     OW76641   8.276   2.999  10.845 -0.0310  0.4348  0.2319
56679SOL    HW176642   8.265   3.084  10.803  1.0081  0.0761 -0.8369
56679SOL    HW276643   8.249   2.935  10.779  1.3247 -0.1341  0.1852
56680SOL     OW76644  10.910   1.088  10.402 -0.2494 -0.1947 -0.7872
56680SOL    HW176645  10.829   1.121  10.363 -0.4825 -0.3537 -0.4390
56680SOL    HW276646  10.952   1.038  10.332  0.7074  1.8145 -1.7340
56681SOL     OW76647   6.661  10.666  12.265  0.3557 -0.2898 -0.3344
56681SOL    HW176648   6.597  10.666  12.336  1.4031  0.1812  0.6583
56681SOL    HW276649   6.699  10.578  12.268  1.8473  0.3409  1.1162
56682SOL     OW76650   1.901   1.904   0.943 -0.2844 -0.6201 -0.1579
56682SOL    HW176651   1.911   1.943   0.857 -1.3270 -1.6386 -0.7673
56682SOL    HW276652   1.913   1.977   1.004 -0.5008  0.3039 -1.1874
56683SOL     OW76653   7.457   3.148   3.701  0.3646 -0.1330  0.2643
56683SOL    HW176654   7.443   3.204   3.624 -2.8601  0.6397  1.2705
56683SOL    HW276655   7.446   3.059   3.668  1.4789  0.0238 -0.5943
56684SOL     OW76656   4.979   6.358   7.788  0.2434 -0.3493 -0.1406
56684SOL    HW176657   4.887   6.382   7.799  0.1626 -0.7034 -0.0351
56684SOL    HW276658   4.985   6.331   7.696  0.2731 -0.1903 -0.1858
56685SOL     OW76659   6.186   8.916   4.582  0.0332 -0.5432 -0.1955
56685SOL    HW176660   6.272   8.893   4.546  0.5543  2.7734 -1.4827
56685SOL    HW276661   6.128   8.846   4.552  1.4160 -0.4526 -3.5548
56686SOL     OW76662   7.150   1.509  11.198 -0.3264 -0.4009  0.1036
56686SOL    HW176663   7.143   1.584  11.140 -1.1189 -0.1992  0.4436
56686SOL    HW276664   7.129   1.544  11.285 -1.4201 -1.1453  0.1613
56687SOL     OW76665   6.882   1.898   8.905 -0.3847 -0.2375  0.0099
56687SOL    HW176666   6.972   1.864   8.901 -0.5386 -0.6242 -0.3186
56687SOL    HW276667   6.892   1.991   8.925  0.1092 -0.1913 -0.4305
56688SOL     OW76668   6.080   5.585   5.724  0.0655  0.2794  0.5060
56688SOL    HW176669   6.055   5.635   5.646  1.6132  1.2803  0.5994
56688SOL    HW276670   6.135   5.514   5.691 -0.2235  0.0175  0.5861
56689SOL     OW76671   7.020   2.879   5.684  0.4851 -0.2274 -0.0662
56689SOL    HW176672   7.088   2.935   5.647  0.2178  0.5459  0.6030
56689SOL    HW276673   7.005   2.913   5.772 -2.0361  0.7994 -0.7961
56690SOL     OW76674   4.507   9.373   3.774  0.5097 -0.6789 -0.2452
56690SOL    HW176675   4.563   9.390   3.849  0.8026 -2.0718 -0.1280
56690SOL    HW276676   4.547   9.299   3.730  1.2118  1.0501 -2.6968
56691SOL     OW76677   3.991   7.313   8.847 -0.1845  0.1421 -0.3086
56691SOL    HW176678   4.071   7.306   8.900  0.2854  2.1528 -0.6657
56691SOL    HW276679   4.002   7.395   8.798 -2.4601  0.4537 -0.3912
56692SOL     OW76680  11.706   8.197  12.228 -0.5409  0.5074 -0.0192
56692SOL    HW176681  11.628   8.168  12.276  0.4824 -0.0019  1.3888
56692SOL    HW276682  11.672   8.223  12.142 -2.5154  1.8856  1.0838
56693SOL     OW76683  10.151   7.213   3.240  0.1930  1.1318  0.1217
56693SOL    HW176684  10.122   7.195   3.151 -0.6307  0.0314  0.5911
56693SOL    HW276685  10.203   7.136   3.264 -0.2346  1.0674  0.8533
56694SOL     OW76686  12.374   1.596   1.037 -0.1174  0.1029  0.0214
56694SOL    HW176687  12.409   1.507   1.023 -0.3653 -0.0111  0.1278
56694SOL    HW276688  12.327   1.616   0.956 -0.2790  0.0377  0.1002
56695SOL     OW76689   6.630   0.588   5.179 -0.0655  0.4411  0.0202
56695SOL    HW176690   6.593   0.674   5.159  1.1002  1.3448  1.4929
56695SOL    HW276691   6.632   0.542   5.096 -0.6916  1.8501 -0.8062
56696SOL     OW76692   0.066   8.803   4.207 -0.2737 -0.4272  0.6492
56696SOL    HW176693   0.149   8.811   4.161  0.4842 -0.4163  1.9691
56696SOL    HW276694  -0.000   8.824   4.141  0.7516 -0.5853 -0.4615
56697SOL     OW76695   8.360  11.428   2.722 -0.5047 -0.1731 -0.1212
56697SOL    HW176696   8.272  11.462   2.738 -0.1999  0.4538  0.2707
56697SOL    HW276697   8.354  11.385   2.637 -0.9650  0.6635 -0.5266
56698SOL     OW76698  10.528   7.574   9.244  0.4505 -0.0429 -0.6414
56698SOL    HW176699  10.602   7.527   9.208  2.1621  0.7398  1.6275
56698SOL    HW276700  10.515   7.536   9.331 -1.9127 -0.2194 -0.9946
56699SOL     OW76701   5.182   2.496   0.728 -0.1389  0.1415  0.2010
56699SOL    HW176702   5.176   2.408   0.689  0.0618  0.3307 -0.2616
56699SOL    HW276703   5.182   2.480   0.822 -0.1768 -0.3527  0.1211
56700SOL     OW76704   5.801   0.829   2.044  0.6030 -0.1962  0.3452
56700SOL    HW176705   5.780   0.850   1.953 -1.6201 -0.4096  0.7403
56700SOL    HW276706   5.763   0.742   2.058 -1.2910  0.8180  2.0885
56701SOL     OW76707   2.467   7.264  12.133 -1.0410  0.0832  0.1271
56701SOL    HW176708   2.531   7.196  12.155 -0.7179  0.3871  0.1370
56701SOL    HW276709   2.457   7.314  12.214 -1.2410  0.0787  0.1045
56702SOL     OW76710   5.934  11.380  10.533  0.4120  0.0246  0.4470
56702SOL    HW176711   6.015  11.397  10.486  2.2497 -0.5624  3.1691
56702SOL    HW276712   5.929  11.284  10.539 -1.9361 -0.1125 -1.8886
56703SOL     OW76713   0.111   6.534   3.800  0.4771  0.0176 -0.4078
56703SOL    HW176714   0.069   6.613   3.767  0.8916 -0.1511 -1.3853
56703SOL    HW276715   0.052   6.501   3.867 -1.1510 -0.4129 -1.9749
56704SOL     OW76716   9.381   5.388   9.471  0.4785  0.6427 -0.4460
56704SOL    HW176717   9.340   5.429   9.547  0.1680  0.1740 -0.3551
56704SOL    HW276718   9.315   5.329   9.437  0.9817  0.0752 -0.4566
56705SOL     OW76719  11.749  10.359   2.935  0.0887  0.0722  0.1955
56705SOL    HW176720  11.764  10.306   3.013 -0.6849 -0.4796 -0.0178
56705SOL    HW276721  11.667  10.405   2.952 -0.1561 -0.1516 -0.3281
56706SOL     OW76722  11.308   9.383  10.423 -0.1382  0.5609 -0.6243
56706SOL    HW176723  11.325   9.446  10.353  1.2993  1.0188  0.0852
56706SOL    HW276724  11.379   9.319  10.416 -0.0639  0.5276  0.3001
56707SOL     OW76725   2.458   9.705   2.678 -0.1231  0.3258 -0.2594
56707SOL    HW176726   2.382   9.711   2.736 -0.9256 -0.6080 -1.1997
56707SOL    HW276727   2.445   9.776   2.615 -1.3138 -1.0883 -1.6665
56708SOL     OW76728   4.625   5.262  10.208 -0.1919 -0.2752 -0.2211
56708SOL    HW176729   4.711   5.237  10.176  0.2532  0.8747  0.0173
56708SOL    HW276730   4.572   5.183  10.200  1.2335 -1.3959  0.9020
56709SOL     OW76731   3.959   8.168  10.374  0.5660 -0.0614 -0.2188
56709SOL    HW176732   3.957   8.083  10.418 -0.6716  0.4894  0.8217
56709SOL    HW276733   3.881   8.168  10.319 -0.2012  0.9238  0.8298
56710SOL     OW76734  12.565  12.761   9.475 -0.3552 -0.2025 -0.3215
56710SOL    HW176735  12.565  12.838   9.533  2.7962 -1.7253  2.0002
56710SOL    HW276736  12.614  12.790   9.397  0.8418  0.2019  0.5476
56711SOL     OW76737   4.443   1.166  10.276 -0.3167 -0.3386  0.1578
56711SOL    HW176738   4.383   1.214  10.333  0.0044  1.3485 -0.8720
56711SOL    HW276739   4.527   1.211  10.286  0.6079 -2.1412  0.9227
56712SOL     OW76740   5.351   3.476   3.863  0.3037 -0.3960 -0.0409
56712SOL    HW176741   5.330   3.476   3.957  0.7970 -1.1025  0.0757
56712SOL    HW276742   5.317   3.559   3.831 -0.3150 -0.3681  0.6672
56713SOL     OW76743   7.383   1.865   4.936 -0.0888  0.4020  0.1329
56713SOL    HW176744   7.434   1.800   4.984 -2.3834 -1.6344 -0.0622
56713SOL    HW276745   7.418   1.861   4.847 -0.6549 -1.1122 -0.0477
56714SOL     OW76746   5.614   6.344  10.308 -0.0664  0.0562  0.4183
56714SOL    HW176747   5.547   6.295  10.260 -0.0752 -0.2208  0.7092
56714SOL    HW276748   5.690   6.287  10.308  0.7220  1.0142 -1.2985
56715SOL     OW76749   9.489  10.453   7.011 -0.4740  0.0888  0.5715
56715SOL    HW176750   9.462  10.515   6.944 -0.6716 -0.8009 -0.2078
56715SOL    HW276751   9.434  10.472   7.087 -0.0890  1.2556  0.5665
56716SOL     OW76752   6.635  12.046   7.297  0.0729 -0.1855 -0.1879
56716SOL    HW176753   6.633  12.119   7.358  1.1826 -0.5110  0.2667
56716SOL    HW276754   6.552  12.000   7.311  0.1660 -0.0565  0.8308
56717SOL     OW76755   4.070   6.754   1.569 -0.0801  0.1394  0.0722
56717SOL    HW176756   4.138   6.820   1.585 -0.0491 -0.1336  1.0981
56717SOL    HW276757   4.117   6.681   1.528 -0.1733  0.8638 -1.3970
56718SOL     OW76758   8.325   0.631   1.463 -0.3964  0.0267  0.0934
56718SOL    HW176759   8.279   0.684   1.398 -0.4727  1.0291  0.9387
56718SOL    HW276760   8.261   0.621   1.534  0.3156  0.5353  0.8176
56719SOL     OW76761   2.614   8.853   6.230 -0.2286 -0.0215 -0.1619
56719SOL    HW176762   2.704   8.863   6.198  0.1509 -0.6244  0.6877
56719SOL    HW276763   2.591   8.763   6.207 -0.0641 -0.3590  0.9462
56720SOL     OW76764   9.887  11.967   5.320 -0.3671  0.1657  0.0959
56720SOL    HW176765   9.810  11.918   5.350 -0.0924 -0.0123  0.5261
56720SOL    HW276766   9.883  11.963   5.225 -0.3444 -0.7065  0.1213
56721SOL     OW76767   3.224  11.107  12.202  0.6341  0.0014  0.4411
56721SOL    HW176768   3.172  11.057  12.139  0.5385 -0.2947  0.7553
56721SOL    HW276769   3.282  11.043  12.242  0.3708  0.1029  0.9933
56722SOL     OW76770   8.968  11.292   4.171 -0.3821  0.2758  0.9054
56722SOL    HW176771   8.891  11.260   4.122 -0.8331 -0.0635  1.8094
56722SOL    HW276772   8.953  11.386   4.178 -1.2397  0.0856  1.9253
56723SOL     OW76773   2.780   1.813   6.724  0.5255  0.4823 -0.1026
56723SOL    HW176774   2.743   1.816   6.635 -0.8384 -1.5561  0.3533
56723SOL    HW276775   2.706   1.831   6.781  1.0358  0.0727  0.6977
56724SOL     OW76776   6.841   2.304   8.817 -0.2587 -0.4273 -0.0748
56724SOL    HW176777   6.874   2.242   8.882  0.4284 -1.0691 -1.0125
56724SOL    HW276778   6.914   2.316   8.756 -0.1880  1.6990  0.3499
56725SOL     OW76779  10.319   0.894   0.705 -0.7196  0.1361 -0.3305
56725SOL    HW176780  10.336   0.839   0.629  0.9741 -1.2960  0.9666
56725SOL    HW276781  10.252   0.956   0.677 -0.3151 -0.4903 -2.8686
56726SOL     OW76782  11.770   4.514   6.942 -0.3671 -0.3776  0.1972
56726SOL    HW176783  11.797   4.550   6.857  0.5386  1.6939  1.3050
56726SOL    HW276784  11.675   4.503   6.934 -0.5167  1.2744 -0.5685
56727SOL     OW76785  11.406   9.917  11.566 -0.2623  0.3996 -0.0658
56727SOL    HW176786  11.416   9.877  11.652 -0.6450 -0.0850 -0.2426
56727SOL    HW276787  11.415  10.011  11.582  0.8962  0.2389  0.3183
56728SOL     OW76788   6.032   3.142   9.975 -0.0737 -0.0976 -0.4351
56728SOL    HW176789   6.016   3.062  10.026  0.4317  0.2624  0.3224
56728SOL    HW276790   6.059   3.111   9.889  0.5930 -0.7748 -0.0018
56729SOL     OW76791  11.703  12.526   1.400  0.2490 -0.0840 -0.5351
56729SOL    HW176792  11.680  12.609   1.357  1.2672  0.5889  0.1788
56729SOL    HW276793  11.749  12.552   1.479 -2.3866 -1.2618  1.5542
56730SOL     OW76794   9.269  11.733   2.810  0.1843  0.3312 -0.3138
56730SOL    HW176795   9.213  11.656   2.814  2.0293 -1.0444  0.2592
56730SOL    HW276796   9.281  11.759   2.902  1.1670  0.0741 -0.3606
56731SOL     OW76797   8.301   7.709  10.374  0.2473 -0.3736 -0.2629
56731SOL    HW176798   8.279   7.654  10.299 -1.3159 -1.1859  0.7420
56731SOL    HW276799   8.351   7.782  10.337  1.5755 -1.9691 -1.7508
56732SOL     OW76800   2.099  10.605   7.539  0.0455 -0.3640  0.4199
56732SOL    HW176801   2.011  10.578   7.566 -0.2552 -1.2787 -1.3355
56732SOL    HW276802   2.157  10.563   7.603 -0.5858 -2.9711 -0.5918
56733SOL     OW76803   6.212   2.199  12.078  0.1378 -0.0515  0.4817
56733SOL    HW176804   6.192   2.129  12.017 -2.0439 -1.1182  2.2399
56733SOL    HW276805   6.306   2.194  12.092  0.1267 -2.2281  0.0492
56734SOL     OW76806   2.851  11.862  10.428 -0.1957  0.0026 -0.1456
56734SOL    HW176807   2.770  11.905  10.455 -0.4909 -1.2522  1.0442
56734SOL    HW276808   2.892  11.834  10.509  0.7376 -0.6252 -0.8140
56735SOL     OW76809   7.630   1.999  12.497 -0.4444  0.1789 -0.3713
56735SOL    HW176810   7.562   2.047  12.543 -1.9188 -0.8878 -1.3557
56735SOL    HW276811   7.641   1.918  12.548 -0.0140  0.2778 -0.3030
56736SOL     OW76812  12.632   7.114   3.566  0.0888  0.7044 -0.0311
56736SOL    HW176813  12.563   7.158   3.516  0.1970 -0.8309 -1.6267
56736SOL    HW276814  12.714   7.148   3.529  0.1694 -0.1737 -0.6943
56737SOL     OW76815   3.545   0.014   9.415 -0.6609  0.0792  0.2450
56737SOL    HW176816   3.514  -0.008   9.327 -2.1758 -0.5927  0.9127
56737SOL    HW276817   3.615   0.077   9.400 -1.1300  0.2641 -1.4257
56738SOL     OW76818   3.274   9.491  11.283 -0.0785  0.3557 -0.0537
56738SOL    HW176819   3.354   9.447  11.254 -0.5100 -1.0762  0.8128
56738SOL    HW276820   3.246   9.541  11.207 -0.0851 -1.6818 -1.4952
56739SOL     OW76821   4.105  12.504  12.133  0.2165 -0.1603 -0.1430
56739SOL    HW176822   4.131  12.440  12.066 -0.7988  0.6618 -1.3683
56739SOL    HW276823   4.188  12.537  12.168  0.7647 -1.9009  0.3098
56740SOL     OW76824   0.923   5.574   6.540  0.4382  0.1011 -0.3366
56740SOL    HW176825   0.945   5.641   6.475 -0.2303 -0.2985 -0.9994
56740SOL    HW276826   0.881   5.505   6.489  0.5913 -0.5638  0.4232
56741SOL     OW76827  12.115   1.886   7.690  0.4727  0.5246 -0.4100
56741SOL    HW176828  12.190   1.885   7.750  0.7513  0.1933 -0.7599
56741SOL    HW276829  12.132   1.961   7.632 -1.0007  2.3728  1.4170
56742SOL     OW76830   2.100   8.105   6.974 -0.4447  0.3435  0.5407
56742SOL    HW176831   2.062   8.024   6.940 -0.6254  0.4407  0.5110
56742SOL    HW276832   2.182   8.115   6.924 -0.4940  0.2574  0.4406
56743SOL     OW76833   5.319  11.241   7.684 -0.3837 -0.2231 -0.2694
56743SOL    HW176834   5.232  11.201   7.676 -0.1539 -0.3186 -3.1910
56743SOL    HW276835   5.302  11.326   7.724 -1.5016 -1.1117  1.2874
56744SOL     OW76836   4.613   0.333   5.112  1.0778  0.1500  0.1042
56744SOL    HW176837   4.557   0.384   5.171  0.8196 -1.5543  1.4596
56744SOL    HW276838   4.702   0.363   5.131  0.9086  0.3077  0.6750
56745SOL     OW76839  10.837   1.164   5.651  0.5140 -0.0285  0.2758
56745SOL    HW176840  10.872   1.138   5.566 -0.1219  0.2381 -0.0701
56745SOL    HW276841  10.911   1.206   5.695  1.6855 -2.6153  0.9839
56746SOL     OW76842   8.437   9.184   7.573 -0.1612 -0.6695 -0.3771
56746SOL    HW176843   8.404   9.218   7.656  0.4770 -0.6360 -0.1324
56746SOL    HW276844   8.489   9.107   7.596 -0.7988 -1.2512 -0.8426
56747SOL     OW76845   4.777  12.673   1.262  0.3750 -0.2522 -0.0197
56747SOL    HW176846   4.734  12.739   1.316  1.2738 -0.6270  1.2006
56747SOL    HW276847   4.747  12.589   1.297  0.7146 -0.4996 -0.3083
56748SOL     OW76848   8.720   3.216   5.225 -0.0466  0.3305 -0.1579
56748SOL    HW176849   8.663   3.142   5.248  1.0703  0.0305  1.9108
56748SOL    HW276850   8.703   3.231   5.132  0.7189 -3.4827 -1.1029
56749SOL     OW76851   5.633   0.534   6.027  0.1809 -0.5096 -0.0397
56749SOL    HW176852   5.637   0.523   5.932 -1.2820  1.3489 -0.3904
56749SOL    HW276853   5.539   0.538   6.046  0.3799 -2.6042  1.7622
56750SOL     OW76854   9.793   9.433   0.515 -0.0629 -0.0812  0.0585
56750SOL    HW176855   9.847   9.387   0.579  1.3771 -0.8159 -1.5798
56750SOL    HW276856   9.784   9.371   0.443 -1.6349  0.7059 -0.4750
56751SOL     OW76857  12.006   5.936   4.249 -0.0215  0.3365 -1.0652
56751SOL    HW176858  12.018   6.031   4.253  0.4286  0.2522  1.7510
56751SOL    HW276859  12.070   5.901   4.312 -1.9217 -1.6015 -0.0838
56752SOL     OW76860  11.764   3.896  10.749  0.8961  0.1506  0.8504
56752SOL    HW176861  11.808   3.870  10.668 -0.5205  0.9218 -0.2118
56752SOL    HW276862  11.736   3.813  10.788  0.5320 -0.1907 -0.0911
56753SOL     OW76863   7.960  10.955   8.962  0.3674  0.0123  0.5233
56753SOL    HW176864   7.901  10.956   9.037  0.5181 -0.3761  0.6463
56753SOL    HW276865   8.046  10.935   8.999  0.5473  0.3976  0.3211
56754SOL     OW76866   6.355   9.713  10.227 -0.5411 -0.5768 -0.3136
56754SOL    HW176867   6.358   9.786  10.289  0.3394  0.2559 -1.3058
56754SOL    HW276868   6.373   9.752  10.142 -0.2418 -1.9303 -0.9075
56755SOL     OW76869   4.804  11.650   9.887  0.0250 -0.1282 -0.3178
56755SOL    HW176870   4.766  11.611   9.966  0.9840 -0.9845 -0.2526
56755SOL    HW276871   4.731  11.660   9.827 -0.5728 -0.2476  0.3726
56756SOL     OW76872   9.332   7.340   9.410  0.0143 -0.2800  0.4514
56756SOL    HW176873   9.277   7.377   9.479  1.1732  0.6857  0.9053
56756SOL    HW276874   9.352   7.415   9.353 -1.5765 -1.2079 -1.4314
56757SOL     OW76875  11.939   1.032  11.740 -1.0921  0.1943 -0.2027
56757SOL    HW176876  11.960   1.106  11.682  2.0120 -1.4946 -1.4470
56757SOL    HW276877  12.018   0.979  11.742 -2.8390 -2.6275  1.4506
56758SOL     OW76878   4.875   8.733   9.496 -1.1414  0.5530  0.3937
56758SOL    HW176879   4.965   8.722   9.467 -1.2586  1.8099 -0.5461
56758SOL    HW276880   4.880   8.732   9.591  0.2431  2.8767  0.4284
56759SOL     OW76881   4.258   6.836   4.889 -0.1511  0.1380  0.3710
56759SOL    HW176882   4.344   6.861   4.923 -0.1988 -0.0947  0.6618
56759SOL    HW276883   4.198   6.853   4.961 -0.4018  0.6074  0.0636
56760SOL     OW76884   5.304   3.255   1.971 -0.3196  0.1682 -0.0542
56760SOL    HW176885   5.238   3.189   1.995  1.9404 -0.9160  4.1051
56760SOL    HW276886   5.356   3.213   1.903  0.1650 -1.8216  1.4635
56761SOL     OW76887  10.991   9.737   5.295 -1.0341 -0.3386 -0.3660
56761SOL    HW176888  10.979   9.826   5.329 -0.6125 -1.2200  2.3773
56761SOL    HW276889  11.040   9.748   5.214 -1.9317  1.9685 -0.6530
56762SOL     OW76890  12.366   9.075   7.021 -0.3259  0.4070 -0.3237
56762SOL    HW176891  12.389   9.048   7.110  1.2463 -0.4234 -0.9382
56762SOL    HW276892  12.294   9.138   7.032 -0.2889  0.1672  1.5044
56763SOL     OW76893  11.761   9.595   4.663  0.1011 -0.3898 -0.0339
56763SOL    HW176894  11.686   9.550   4.703  0.0616  0.5710  0.9984
56763SOL    HW276895  11.722   9.668   4.615  0.3770  0.2128  0.6432
56764SOL     OW76896   1.430  12.336   4.119  0.3926  0.4716 -0.2079
56764SOL    HW176897   1.397  12.266   4.063 -0.0548  0.2032  0.3766
56764SOL    HW276898   1.518  12.354   4.086  2.1362 -3.0327  1.8927
56765SOL     OW76899   5.102   2.246   3.791  0.5450  0.3521  0.2610
56765SOL    HW176900   5.139   2.328   3.760 -0.1010  0.2837 -0.7746
56765SOL    HW276901   5.019   2.271   3.832  1.2896  0.4153  1.8014
56766SOL     OW76902   4.481   5.947   9.923  0.3778 -0.3131 -0.1406
56766SOL    HW176903   4.466   6.041   9.934  1.6462 -0.0244 -0.7155
56766SOL    HW276904   4.395   5.912   9.898  0.2030  0.9382 -1.3986
56767SOL     OW76905   4.450   6.065   3.957 -0.1518 -0.5250 -0.2163
56767SOL    HW176906   4.406   6.141   3.995 -1.5927 -0.6541 -1.5324
56767SOL    HW276907   4.539   6.068   3.993 -0.7214  0.7323  1.1712
56768SOL     OW76908  11.153   1.645   8.659  0.3504  0.5827  0.1577
56768SOL    HW176909  11.235   1.662   8.612  1.9002 -0.1618  2.4054
56768SOL    HW276910  11.132   1.729   8.700  0.5124  0.5542  0.3042
56769SOL     OW76911  10.484   1.791   0.963  0.3620  0.5203 -0.0960
56769SOL    HW176912  10.540   1.866   0.980 -0.4804  1.3816 -1.0027
56769SOL    HW276913  10.430   1.783   1.042  0.1411  1.1491 -0.1808
56770SOL     OW76914   2.428  12.191  10.412  0.2805 -0.1868 -0.1479
56770SOL    HW176915   2.447  12.280  10.383  1.2926  0.2531  1.6452
56770SOL    HW276916   2.334  12.181  10.402  0.3235  0.6156 -1.5574
56771SOL     OW76917  11.136   2.447   2.391  0.1137  0.4554 -0.2045
56771SOL    HW176918  11.136   2.477   2.300 -0.0216 -0.4200 -0.5026
56771SOL    HW276919  11.139   2.527   2.443  1.2968  0.9405 -0.9863
56772SOL     OW76920   9.493  10.882   4.535 -0.1390  0.0883 -0.1716
56772SOL    HW176921   9.451  10.802   4.567  0.1532  0.2768  0.7261
56772SOL    HW276922   9.586  10.862   4.534  0.0242  0.6971  0.9494
56773SOL     OW76923  10.403   1.312   0.374 -0.0023 -0.1262  0.1163
56773SOL    HW176924  10.495   1.328   0.396 -0.0403 -0.3754  0.4741
56773SOL    HW276925  10.357   1.389   0.407 -0.3054 -1.3002  2.6715
56774SOL     OW76926   3.226  10.232   5.335 -0.4173 -0.4892  0.3363
56774SOL    HW176927   3.268  10.215   5.419  3.2786  1.6806 -0.8372
56774SOL    HW276928   3.230  10.148   5.289 -0.6488 -1.2077  1.5840
56775SOL     OW76929   1.509   3.167   5.736  0.3780  0.0504  0.3148
56775SOL    HW176930   1.552   3.178   5.651 -0.3406 -0.4854 -0.1294
56775SOL    HW276931   1.570   3.113   5.787  0.4268 -0.3505 -0.1584
56776SOL     OW76932   3.362   9.430   6.031  0.0986  0.1755 -0.9729
56776SOL    HW176933   3.452   9.406   6.013 -0.3591 -1.2702 -1.4352
56776SOL    HW276934   3.326   9.356   6.081 -1.2183  0.0743 -2.0103
56777SOL     OW76935  10.382   7.252   0.452 -0.4796  0.1467 -0.2547
56777SOL    HW176936  10.402   7.248   0.545 -0.7537 -4.1821 -0.2030
56777SOL    HW276937  10.290   7.225   0.446 -1.0860  2.2525 -1.7343
56778SOL     OW76938  10.104   6.633   3.556 -0.3366 -0.4170  0.0807
56778SOL    HW176939  10.076   6.542   3.549 -0.5067 -0.3082 -0.7521
56778SOL    HW276940  10.116   6.648   3.650  0.6099 -1.5740  0.1645
56779SOL     OW76941   2.051  10.138   1.252 -0.0842  0.3727  0.2795
56779SOL    HW176942   2.109  10.087   1.309 -1.5922 -0.9044  0.7755
56779SOL    HW276943   2.079  10.229   1.263  2.6743 -0.2794 -0.5932
56780SOL     OW76944   1.426   6.059   6.948  0.1758  0.3056 -0.1417
56780SOL    HW176945   1.353   6.108   6.911 -1.3986 -1.4367  0.5182
56780SOL    HW276946   1.442   5.988   6.886  0.8257  0.2375  0.0947
56781SOL     OW76947   9.562   8.517   9.933  0.2860 -0.2700  0.4681
56781SOL    HW176948   9.553   8.436   9.984 -0.5581 -1.5273 -1.5451
56781SOL    HW276949   9.656   8.528   9.922  0.4543 -0.3182  1.7552
56782SOL     OW76950   4.454   3.608   7.226 -0.5071  0.2774 -0.0272
56782SOL    HW176951   4.521   3.555   7.270 -0.7316  0.0076 -0.0048
56782SOL    HW276952   4.371   3.572   7.258 -0.6878 -0.1792 -0.9690
56783SOL     OW76953  10.186   4.076   1.883 -0.9446  0.0267  0.0967
56783SOL    HW176954  10.126   4.139   1.844  1.0691  0.5248 -2.4768
56783SOL    HW276955  10.167   3.993   1.839  0.7294  0.3908 -1.4624
56784SOL     OW76956  10.464   1.454   7.052  0.4168 -0.7010  0.3481
56784SOL    HW176957  10.505   1.514   7.114  0.7884 -0.8810  0.2797
56784SOL    HW276958  10.495   1.483   6.967  0.7280 -1.0832  0.3259
56785SOL     OW76959   9.211   1.185   3.563  0.1253 -0.0523  0.0501
56785SOL    HW176960   9.136   1.242   3.581 -1.4965 -1.2679 -2.3324
56785SOL    HW276961   9.173   1.097   3.557  1.7887 -0.7486 -0.9761
56786SOL     OW76962   2.816   4.879   1.153 -0.2646  0.1874 -0.3773
56786SOL    HW176963   2.756   4.863   1.225  0.8008  1.3676  0.8346
56786SOL    HW276964   2.831   4.793   1.115 -1.1034 -0.4167  0.6103
56787SOL     OW76965   3.589   2.394   4.381 -0.0472  0.5495  0.0704
56787SOL    HW176966   3.673   2.367   4.344 -0.1085  0.2324  0.1513
56787SOL    HW276967   3.534   2.413   4.306  0.3741  1.6549  0.0251
56788SOL     OW76968   0.933   7.465  10.257  0.1360 -0.0868 -0.2516
56788SOL    HW176969   0.879   7.393  10.290 -1.2037  1.2747  0.6980
56788SOL    HW276970   0.952   7.441  10.166 -1.1697 -1.1491 -0.2851
56789SOL     OW76971   5.533   7.766   4.038  0.1918 -0.0689 -0.1873
56789SOL    HW176972   5.523   7.680   3.996  2.0335  0.0627 -0.9432
56789SOL    HW276973   5.453   7.813   4.015 -1.5595 -2.0262  1.4508
56790SOL     OW76974   1.546   8.913   1.330  0.3204  0.5103  0.1319
56790SOL    HW176975   1.597   8.911   1.249 -0.2235 -1.3846 -0.2168
56790SOL    HW276976   1.460   8.946   1.303  0.6237  1.4589  0.2789
56791SOL     OW76977   4.046   5.190  11.856  0.2423 -0.4216  0.3827
56791SOL    HW176978   4.110   5.119  11.846  1.5398  0.6792  0.5462
56791SOL    HW276979   4.073   5.235  11.936 -0.1130  0.7007 -0.1059
56792SOL     OW76980  10.965   1.809   8.295  0.2362  0.6608  0.0913
56792SOL    HW176981  11.061   1.813   8.294  0.3692 -1.4451  0.5710
56792SOL    HW276982  10.939   1.884   8.348  1.6487  0.8396  0.5850
56793SOL     OW76983   5.106   6.935   3.704 -0.6230  0.2864  0.1188
56793SOL    HW176984   5.127   6.871   3.636  2.2044  1.5865 -0.3722
56793SOL    HW276985   5.126   6.889   3.786  1.7829  0.5651 -0.2468
56794SOL     OW76986  10.124  10.481   4.391 -0.9085  0.1500 -0.0859
56794SOL    HW176987  10.048  10.428   4.369  0.8776 -1.5692 -2.8338
56794SOL    HW276988  10.172  10.489   4.308  0.8475  2.9661  1.0515
56795SOL     OW76989  11.556   4.732   7.739  0.0481  0.2453 -0.2793
56795SOL    HW176990  11.539   4.822   7.766 -3.6243 -0.5421  0.4714
56795SOL    HW276991  11.507   4.721   7.658  0.2585 -1.1449 -0.2436
56796SOL     OW76992  10.133   6.306   7.780 -0.6417  0.2341 -0.0528
56796SOL    HW176993  10.085   6.328   7.860 -1.5706 -0.9942 -0.2578
56796SOL    HW276994  10.130   6.211   7.774 -0.3262  0.2809 -1.3968
56797SOL     OW76995   9.048   6.400   3.237  0.4992  0.2264 -0.5936
56797SOL    HW176996   9.026   6.405   3.330  1.3250  1.8870 -0.4428
56797SOL    HW276997   8.966   6.418   3.191  0.6027  1.9886 -0.1286
56798SOL     OW76998   2.176   5.412   5.341 -0.0924 -0.4122  0.0246
56798SOL    HW176999   2.172   5.317   5.339  2.2742 -0.6078  0.7183
56798SOL    HW277000   2.180   5.439   5.250  0.1136 -1.0446 -0.1546
56799SOL     OW77001   6.085  10.627   4.462 -0.0219 -0.5483  0.4307
56799SOL    HW177002   6.152  10.586   4.407  0.6442 -0.6751  1.3280
56799SOL    HW277003   6.044  10.692   4.405  1.1297 -0.1894 -0.0027
56800SOL     OW77004   4.940  12.773  11.836 -0.4007  0.0625  0.2381
56800SOL    HW177005   4.934  12.866  11.817 -0.7921  0.0542  0.3092
56800SOL    HW277006   4.973  12.768  11.926 -0.0626  0.1256  0.1185
56801SOL     OW77007   4.449   4.369   5.528 -0.1575 -0.1315 -0.0510
56801SOL    HW177008   4.419   4.282   5.504 -3.7694  0.8762  0.2229
56801SOL    HW277009   4.454   4.366   5.624 -0.4153 -0.0265 -0.0327
56802SOL     OW77010   2.124   3.459   1.691  0.2347 -0.5245  0.8614
56802SOL    HW177011   2.096   3.451   1.600 -1.9790 -0.8320  1.5037
56802SOL    HW277012   2.220   3.452   1.688  0.2882  0.4514 -1.5093
56803SOL     OW77013  12.258   4.211   9.590  0.6002  0.1274  0.4886
56803SOL    HW177014  12.293   4.135   9.543 -0.7363 -0.5396  0.5196
56803SOL    HW277015  12.223   4.268   9.522  0.5657  0.1591  0.5330
56804SOL     OW77016   9.812   9.994   8.271  0.3186 -0.5359  0.1261
56804SOL    HW177017   9.725  10.027   8.295  0.4704 -1.5176  2.2015
56804SOL    HW277018   9.799   9.901   8.256  0.1825 -0.0364 -4.2740
56805SOL     OW77019   3.284  11.805   0.440  0.4386  0.1045  0.4012
56805SOL    HW177020   3.262  11.765   0.355  0.6535  0.4128  0.1962
56805SOL    HW277021   3.202  11.807   0.488 -0.0806  1.5667 -0.4885
56806SOL     OW77022  10.095  11.867   1.840 -0.2508 -0.1522 -0.4125
56806SOL    HW177023  10.042  11.789   1.857  0.0624 -0.5217 -1.0729
56806SOL    HW277024  10.069  11.894   1.751  0.7704 -0.4340 -0.8143
56807SOL     OW77025   3.857  12.079   1.180  0.7369 -0.1036 -0.1358
56807SOL    HW177026   3.925  12.063   1.246  0.4950  3.0982  1.1027
56807SOL    HW277027   3.805  12.151   1.217 -1.6677 -0.6082 -2.2654
56808SOL     OW77028  10.865  11.918   6.398 -0.1807 -0.1478 -0.4440
56808SOL    HW177029  10.960  11.917   6.393 -0.2084  0.1707 -1.0502
56808SOL    HW277030  10.841  12.010   6.386 -0.4674  0.1105  1.6624
56809SOL     OW77031   2.018   3.618   4.954  0.1084 -0.0866  0.1254
56809SOL    HW177032   2.063   3.678   5.015 -2.0537  2.2313 -0.3783
56809SOL    HW277033   1.991   3.545   5.009 -1.0556  1.5393  1.8563
56810SOL     OW77034   3.273  11.698   5.062 -0.2919  0.2745 -0.2425
56810SOL    HW177035   3.236  11.735   4.982  0.5380 -0.8727 -1.1825
56810SOL    HW277036   3.247  11.606   5.061 -0.5999  0.3297  1.0237
56811SOL     OW77037   6.615   5.788   9.123 -0.0770 -0.1217 -0.2960
56811SOL    HW177038   6.595   5.840   9.045  0.3010 -2.1223 -1.8151
56811SOL    HW277039   6.702   5.818   9.150 -0.8973  1.7357  0.3942
56812SOL     OW77040   7.665   1.521   0.603 -0.1157  0.1605  0.5551
56812SOL    HW177041   7.594   1.507   0.666 -0.5331  4.0486  1.2005
56812SOL    HW277042   7.739   1.550   0.656  1.2589 -1.4809 -0.3590
56813SOL     OW77043  10.534   7.698   0.066 -0.4507 -0.4963 -0.4093
56813SOL    HW177044  10.484   7.707  -0.015 -1.9003  0.5295  0.5601
56813SOL    HW277045  10.493   7.759   0.127  0.1331 -1.7644  1.3430
56814SOL     OW77046   7.188   3.195   7.482 -0.5279  0.2413 -0.0508
56814SOL    HW177047   7.251   3.259   7.448 -0.4589 -0.2901 -0.9597
56814SOL    HW277048   7.171   3.223   7.572  2.5126 -0.7113  0.9311
56815SOL     OW77049   1.609   8.146  10.960 -0.1691  0.5273  0.0413
56815SOL    HW177050   1.568   8.152  11.046 -2.2116  0.7752 -0.8981
56815SOL    HW277051   1.646   8.234  10.946 -0.9516  0.8751  0.1272
56816SOL     OW77052   7.612   8.121  10.330  0.2362  0.0598 -0.2980
56816SOL    HW177053   7.572   8.123  10.244 -1.3111  1.5029  0.3842
56816SOL    HW277054   7.668   8.199  10.333 -0.7548  0.7866  0.4017
56817SOL     OW77055   4.999   3.634   6.796 -0.2043 -0.0154 -0.0888
56817SOL    HW177056   4.924   3.575   6.785  0.2636 -0.6353 -0.0616
56817SOL    HW277057   5.009   3.643   6.891  1.2138 -1.9049  0.0087
56818SOL     OW77058  10.912  11.390   8.199  0.0418  0.3133  0.3429
56818SOL    HW177059  10.830  11.437   8.189 -0.7652 -1.1052  0.1287
56818SOL    HW277060  10.924  11.382   8.294 -0.5612 -0.3241  0.3655
56819SOL     OW77061   5.793   8.281   2.620 -1.0801 -0.0377 -0.2285
56819SOL    HW177062   5.797   8.289   2.715 -1.4174 -0.5500 -0.1673
56819SOL    HW277063   5.724   8.216   2.605 -0.6015 -0.4136 -0.8027
56820SOL     OW77064   7.977  12.678   8.028 -0.1677  0.2484 -0.4751
56820SOL    HW177065   8.008  12.761   8.065  0.8300 -0.2365 -0.2023
56820SOL    HW277066   7.882  12.679   8.045  0.1601  0.2714  1.7040
56821SOL     OW77067   4.979   4.924  10.951 -0.2339  0.1841 -0.2197
56821SOL    HW177068   4.972   4.830  10.965 -0.6220 -0.0956 -2.0292
56821SOL    HW277069   4.950   4.963  11.033 -2.1587 -1.2553 -0.1609
56822SOL     OW77070   7.290   1.710  10.575 -0.3891  0.4282  0.4632
56822SOL    HW177071   7.221   1.734  10.636 -0.8922 -0.6083  0.3348
56822SOL    HW277072   7.263   1.747  10.491 -0.9392 -0.1838  0.3574
56823SOL     OW77073   6.801   7.069   9.486  0.1345 -0.2864 -0.0451
56823SOL    HW177074   6.891   7.049   9.513  1.1118 -0.0387 -2.7939
56823SOL    HW277075   6.763   7.114   9.562  2.0911 -1.0028  1.4450
56824SOL     OW77076   0.377   8.283   7.224 -0.0413  0.0931 -0.4842
56824SOL    HW177077   0.376   8.193   7.255 -1.7535  0.2811  0.1325
56824SOL    HW277078   0.308   8.326   7.274  0.6430  1.7133 -0.8790
56825SOL     OW77079   5.998   4.063   1.124 -0.8289  0.1548  0.3382
56825SOL    HW177080   5.999   4.128   1.194  2.2001  1.2689 -0.5735
56825SOL    HW277081   6.076   4.009   1.140 -0.3062  0.1513 -1.8417
56826SOL     OW77082  12.308   7.651   8.390  0.2370 -0.0172 -0.8903
56826SOL    HW177083  12.262   7.572   8.361 -0.4593  0.2519 -0.5399
56826SOL    HW277084  12.397   7.640   8.359  0.0714 -0.8125 -1.0919
56827SOL     OW77085   3.782   0.552   0.457  0.0645 -0.1138 -0.2449
56827SOL    HW177086   3.856   0.493   0.474  1.7287  1.6229 -1.1155
56827SOL    HW277087   3.742   0.517   0.378  0.4999 -0.5494 -0.2804
56828SOL     OW77088  10.685  12.021   7.756  0.4780  0.1105 -0.6911
56828SOL    HW177089  10.729  12.084   7.813  0.1139 -1.2535  1.1505
56828SOL    HW277090  10.627  12.075   7.702  0.5704  1.4228  0.4631
56829SOL     OW77091  10.133  11.702  12.268 -0.1222 -0.1265 -0.1387
56829SOL    HW177092  10.145  11.766  12.338 -0.0261 -0.2454 -0.0453
56829SOL    HW277093  10.206  11.641  12.279 -1.1683 -1.2398  0.8342
56830SOL     OW77094   9.394   6.853   9.988 -0.0244 -0.1178  0.2750
56830SOL    HW177095   9.381   6.777   9.932  0.4270 -0.3855  0.5245
56830SOL    HW277096   9.317   6.854  10.046  0.9434 -1.6264  1.6737
56831SOL     OW77097  10.994   9.651   1.896  0.2358 -0.3060 -0.1681
56831SOL    HW177098  10.899   9.647   1.900  0.0090  2.7605  3.7096
56831SOL    HW277099  11.022   9.559   1.887 -3.0590 -1.5562  0.8964
56832SOL     OW77100   5.606   8.474  12.579  0.1260  0.1783 -0.6273
56832SOL    HW177101   5.690   8.519  12.587  0.4073  0.0455 -2.4686
56832SOL    HW277102   5.608   8.408  12.649 -0.1249  2.6385  1.8557
56833SOL     OW77103  10.253   7.490   3.544 -0.0504  0.0230  0.1884
56833SOL    HW177104  10.206   7.573   3.554  1.2927  0.5661  2.8537
56833SOL    HW277105  10.301   7.500   3.461 -1.9172  0.7759 -0.8810
56834SOL     OW77106   5.341   9.614   1.655 -0.1028  0.0570  0.4129
56834SOL    HW177107   5.366   9.522   1.655 -1.7816 -0.4157  0.4160
56834SOL    HW277108   5.252   9.615   1.620 -0.7422  1.4973  1.9445
56835SOL     OW77109   0.338   3.646   5.617 -0.0628 -0.6691  0.0310
56835SOL    HW177110   0.391   3.615   5.690 -0.2257 -1.1969 -0.0697
56835SOL    HW277111   0.335   3.572   5.556  1.2149  0.1925 -1.1606
56836SOL     OW77112   1.103   4.132   6.460  0.0782  0.4945 -0.2123
56836SOL    HW177113   1.113   4.127   6.555  0.2969  0.8797 -0.2134
56836SOL    HW277114   1.012   4.108   6.445  0.1951 -0.1386  0.0452
56837SOL     OW77115   6.481   8.526   3.363  0.0339  0.9093  0.3319
56837SOL    HW177116   6.558   8.495   3.410  0.6193  1.0620 -0.5042
56837SOL    HW277117   6.510   8.535   3.272 -1.6094 -1.3814 -0.4974
56838SOL     OW77118   2.203   9.452   5.235 -0.1549 -0.9078  0.0555
56838SOL    HW177119   2.197   9.388   5.164 -1.8969  0.8318 -1.5091
56838SOL    HW277120   2.236   9.531   5.192  1.2117 -0.4802  1.7661
56839SOL     OW77121   6.324   0.235   5.241 -0.4653 -0.5964  0.5591
56839SOL    HW177122   6.388   0.172   5.276  0.7400 -0.7401 -1.7040
56839SOL    HW277123   6.267   0.183   5.184  0.5800  0.2582 -1.3873
56840SOL     OW77124  11.036   0.644   5.057 -0.1615  0.5038 -0.2938
56840SOL    HW177125  10.977   0.586   5.007 -0.8533  0.5370  0.4569
56840SOL    HW277126  11.002   0.732   5.040 -0.3416  0.5216  0.1495
56841SOL     OW77127   1.665   8.233   8.259  0.1009 -0.3208 -0.2622
56841SOL    HW177128   1.601   8.304   8.265 -0.9766 -1.3554  1.1301
56841SOL    HW277129   1.613   8.156   8.235  1.2134 -0.7056 -1.5149
56842SOL     OW77130   1.647   0.745   7.739 -0.1021  0.3526 -0.0467
56842SOL    HW177131   1.726   0.692   7.729  0.3440  1.2495 -1.6986
56842SOL    HW277132   1.574   0.684   7.732  0.4082 -0.5416  1.8487
56843SOL     OW77133   1.039   9.195   4.279  0.3625 -0.4385 -0.3201
56843SOL    HW177134   1.058   9.123   4.338  0.6590  0.4272  0.6641
56843SOL    HW277135   1.119   9.247   4.278  0.9640 -1.2431 -2.7324
56844SOL     OW77136   4.594  10.808  12.511  0.6117  0.6885  0.2675
56844SOL    HW177137   4.629  10.847  12.431  2.2477 -0.8688  0.1700
56844SOL    HW277138   4.632  10.859  12.582  2.1296 -0.1967  0.1233
56845SOL     OW77139   1.312   9.638  11.812 -0.1304 -0.6028 -0.4232
56845SOL    HW177140   1.226   9.627  11.771  0.3958 -0.1278 -1.7258
56845SOL    HW277141   1.360   9.559  11.787 -0.5682 -1.4815  1.3769
56846SOL     OW77142   2.101  12.745  11.097  0.1020 -0.2420 -0.4853
56846SOL    HW177143   2.030  12.792  11.141  2.1729  0.8349  1.9678
56846SOL    HW277144   2.095  12.773  11.006 -1.2793  1.5333  0.0824
56847SOL     OW77145  12.637  10.725   4.366 -0.2623 -0.1408 -0.1245
56847SOL    HW177146  12.692  10.757   4.295 -1.4167  2.5913  0.0903
56847SOL    HW277147  12.548  10.734   4.332 -0.7843  0.2276  1.3000
56848SOL     OW77148   8.721   8.976   6.719  0.1981  0.1027 -0.6633
56848SOL    HW177149   8.679   9.059   6.742  0.3455 -0.5309  2.2542
56848SOL    HW277150   8.649   8.914   6.708  0.1558  0.2749 -1.4163
56849SOL     OW77151   8.490   5.329   9.844  0.2107  0.1747 -0.3309
56849SOL    HW177152   8.507   5.236   9.859  1.2003  0.3488 -0.2939
56849SOL    HW277153   8.530   5.373   9.920  0.4644  0.6803 -0.7501
56850SOL     OW77154   7.688   0.425  12.277 -0.1935  0.4116  0.0484
56850SOL    HW177155   7.674   0.432  12.183 -0.2359  0.5391  0.0633
56850SOL    HW277156   7.727   0.339  12.289 -1.9524 -0.4079  0.1225
56851SOL     OW77157   3.024   4.491  12.369  0.1350 -0.2896  0.2468
56851SOL    HW177158   3.065   4.500  12.455  2.0161  0.0003 -0.6314
56851SOL    HW277159   2.935   4.460  12.388  0.3956  0.0683  2.2904
56852SOL     OW77160  11.668   4.377   5.853 -0.0347  0.2008  0.6498
56852SOL    HW177161  11.711   4.295   5.830  0.7342  0.3273  1.5668
56852SOL    HW277162  11.664   4.376   5.949 -0.0515  1.2053  0.6674
56853SOL     OW77163   1.416   7.404   7.202  0.2713 -0.0168 -0.3145
56853SOL    HW177164   1.355   7.331   7.201  0.0355  0.1755 -0.2523
56853SOL    HW277165   1.364   7.478   7.234 -0.1521  0.7393 -2.5278
56854SOL     OW77166   9.558   3.109  10.689 -0.0730  0.5053  0.0846
56854SOL    HW177167   9.619   3.044  10.722 -0.9176  0.1622  1.0205
56854SOL    HW277168   9.474   3.062  10.683  0.0262  0.4808 -2.7328
56855SOL     OW77169  11.355   9.382   7.485  0.1540 -0.3250  0.1472
56855SOL    HW177170  11.403   9.318   7.537  0.1540 -1.5728 -1.3207
56855SOL    HW277171  11.388   9.467   7.513  1.1263 -1.0361  1.1867
56856SOL     OW77172   1.426  12.619   6.439 -0.0772  0.4180 -0.1651
56856SOL    HW177173   1.506  12.624   6.386  0.5004  0.8297  0.7159
56856SOL    HW277174   1.426  12.700   6.490 -1.0916  0.4429 -0.1799
56857SOL     OW77175   2.311   7.199  11.784 -0.0531 -0.5069 -0.2573
56857SOL    HW177176   2.293   7.253  11.707 -4.8570 -2.9073 -1.2699
56857SOL    HW277177   2.258   7.238  11.853  0.1829 -1.2324  0.3444
56858SOL     OW77178   9.311   6.099   9.276 -0.5494  0.3001 -0.2703
56858SOL    HW177179   9.308   6.018   9.225  0.1035  0.2083 -0.1692
56858SOL    HW277180   9.250   6.158   9.232 -1.0262 -0.2451 -0.3499
56859SOL     OW77181   4.368   5.561   9.101  0.4081 -0.5868  0.3836
56859SOL    HW177182   4.456   5.582   9.072  0.8902 -1.6524  1.0305
56859SOL    HW277183   4.375   5.551   9.196 -0.0749 -2.1893  0.2843
56860SOL     OW77184  10.929   3.987  11.812  0.0569 -0.4437  0.7284
56860SOL    HW177185  10.901   3.972  11.902 -0.2819 -0.3460  0.6438
56860SOL    HW277186  11.009   4.039  11.820  0.4077 -1.0190  0.9833
56861SOL     OW77187   6.720  11.349   8.763 -0.2554  0.0279 -0.6549
56861SOL    HW177188   6.708  11.404   8.686  0.4558  1.6285  0.3378
56861SOL    HW277189   6.661  11.386   8.829 -0.9164 -1.3637 -0.4125
56862SOL     OW77190   3.606   5.134   4.359  0.6862 -0.4551  0.0848
56862SOL    HW177191   3.701   5.132   4.343  0.6498  2.5321 -1.2260
56862SOL    HW277192   3.573   5.054   4.318  2.4994 -0.8965 -0.6121
56863SOL     OW77193   0.123  11.438   2.987 -0.3943  0.2462 -0.5958
56863SOL    HW177194   0.163  11.391   2.913  1.2495  0.3322  0.2038
56863SOL    HW277195   0.063  11.500   2.945 -1.5059 -1.4961 -1.7397
56864SOL     OW77196   6.775   3.184   7.651 -0.4386 -0.1011 -0.6690
56864SOL    HW177197   6.803   3.259   7.704  2.2807 -1.4764  0.0205
56864SOL    HW277198   6.792   3.108   7.707 -2.9407 -1.3124 -1.4107
56865SOL     OW77199   9.426  10.063  12.654 -0.6368 -0.6066 -0.4694
56865SOL    HW177200   9.416   9.968  12.660 -2.3874 -0.4507 -0.3474
56865SOL    HW277201   9.462  10.077  12.567  0.1635 -1.4008 -0.2863
56866SOL     OW77202   7.570   5.741  10.913  0.8101  0.0615 -0.0653
56866SOL    HW177203   7.547   5.747  11.006 -1.0000  0.7983 -0.5104
56866SOL    HW277204   7.513   5.673  10.879 -0.2948  1.4309 -1.0845
56867SOL     OW77205   6.159  11.552   1.569  0.4079  0.3159  0.5380
56867SOL    HW177206   6.138  11.469   1.526  2.1870  0.6455 -1.1479
56867SOL    HW277207   6.177  11.528   1.660  0.5404 -1.0903  0.1696
56868SOL     OW77208  12.474   9.872   3.079  0.0788  0.4360  0.3154
56868SOL    HW177209  12.484   9.890   3.173  0.0383  2.1694  0.0259
56868SOL    HW277210  12.564   9.866   3.047  0.0925 -0.1843  0.4684
56869SOL     OW77211   3.671   3.606   5.170  0.0130 -0.0280  0.0850
56869SOL    HW177212   3.613   3.669   5.128 -2.1303 -0.9740  1.4181
56869SOL    HW277213   3.693   3.543   5.101  1.5660  1.6718 -1.0650
56870SOL     OW77214  10.758  10.347   5.220  0.0338  0.4845 -0.0803
56870SOL    HW177215  10.752  10.365   5.314  2.6283  0.2190  0.2174
56870SOL    HW277216  10.692  10.280   5.204 -0.7101  0.8069  1.4680
56871SOL     OW77217   1.351   8.276   9.010  0.4135 -0.1888 -0.1580
56871SOL    HW177218   1.264   8.284   8.970  0.6311 -0.0267 -0.5930
56871SOL    HW277219   1.340   8.208   9.077 -0.4509  0.9110  0.8640
56872SOL     OW77220   4.842  11.421   1.124 -0.2397 -0.3229  0.4558
56872SOL    HW177221   4.792  11.502   1.117  0.7350  0.1860 -1.0740
56872SOL    HW277222   4.814  11.369   1.048  0.4929 -0.6315  0.3889
56873SOL     OW77223  11.666   6.978   1.136 -0.2985  0.7811 -0.5195
56873SOL    HW177224  11.672   7.027   1.218  0.1171  2.5952 -1.5982
56873SOL    HW277225  11.735   6.912   1.143 -0.8198  0.3399  0.9242
56874SOL     OW77226  11.216   5.840   1.860  0.4370  0.1242  0.1778
56874SOL    HW177227  11.215   5.771   1.927 -2.5152  0.1249  0.2594
56874SOL    HW277228  11.130   5.835   1.819  0.7591  2.6586 -1.0104
56875SOL     OW77229  12.523  11.595   8.470 -0.4896 -0.4754  0.1194
56875SOL    HW177230  12.599  11.653   8.455 -1.3543  0.7506  0.3453
56875SOL    HW277231  12.471  11.641   8.535 -0.9784 -1.7597  0.6507
56876SOL     OW77232   3.484   3.879   7.106  0.8655 -0.1055  0.1424
56876SOL    HW177233   3.484   3.911   7.016  0.5691  0.3214  0.2939
56876SOL    HW277234   3.538   3.800   7.103  0.7661 -0.1539 -0.4311
56877SOL     OW77235   8.590  12.691   8.070  0.3853 -0.0610 -0.1320
56877SOL    HW177236   8.632  12.605   8.066  1.3955  0.4365 -1.0827
56877SOL    HW277237   8.579  12.716   7.979 -0.4340  0.5720  0.1322
56878SOL     OW77238   0.485  10.604   6.309 -0.2519  0.3851 -0.5167
56878SOL    HW177239   0.441  10.619   6.225 -1.9120 -1.1175  0.0282
56878SOL    HW277240   0.536  10.524   6.295  0.2890  0.7005 -0.3802
56879SOL     OW77241   4.245   6.603   1.020 -0.3424  0.5752 -0.5337
56879SOL    HW177242   4.196   6.677   0.987 -0.0417  0.0340 -2.2926
56879SOL    HW277243   4.217   6.529   0.966  0.1748 -0.3658  0.4398
56880SOL     OW77244  12.467   4.810  12.747 -0.3221 -0.4598 -0.2560
56880SOL    HW177245  12.530   4.819  12.819  0.2778 -0.1927 -0.8038
56880SOL    HW277246  12.521   4.793  12.670 -0.9240 -0.2731 -0.7255
56881SOL     OW77247   5.814   5.831   9.187  0.1126  0.2541 -0.1938
56881SOL    HW177248   5.877   5.814   9.116  0.3079  1.4506 -0.3296
56881SOL    HW277249   5.869   5.843   9.264  0.0201  0.8313 -0.2186
56882SOL     OW77250   6.398   9.836   5.559 -0.4264  0.1569 -0.3256
56882SOL    HW177251   6.489   9.855   5.537  0.0120 -0.7416  0.6337
56882SOL    HW277252   6.401   9.751   5.603 -1.6162  0.5360  0.5311
56883SOL     OW77253   5.875   8.197   8.707 -0.0599  0.4378 -0.4977
56883SOL    HW177254   5.873   8.252   8.785 -0.1628  1.2477 -1.0547
56883SOL    HW277255   5.930   8.123   8.731 -2.2454 -0.7419  1.2442
56884SOL     OW77256  12.486   5.405   4.134  0.6239 -0.5274 -0.2316
56884SOL    HW177257  12.456   5.314   4.139 -0.3109 -0.2113  0.2003
56884SOL    HW277258  12.408   5.457   4.153  1.2393  0.3603 -0.0578
56885SOL     OW77259   4.173   1.951  12.774  0.8171 -0.0962  0.3405
56885SOL    HW177260   4.134   2.028  12.815  0.4953 -0.6529  1.1070
56885SOL    HW277261   4.132   1.945  12.688  2.1521  1.6169 -0.4861
56886SOL     OW77262   0.731   0.487   8.356 -0.0691  0.4117 -0.2603
56886SOL    HW177263   0.739   0.420   8.289 -0.7828 -1.2110  1.2043
56886SOL    HW277264   0.803   0.469   8.417 -0.0640  1.1859 -0.0227
56887SOL     OW77265   7.337   2.287   0.674 -0.3602 -0.1740 -0.1628
56887SOL    HW177266   7.416   2.340   0.665 -0.6588  0.1574 -0.8845
56887SOL    HW277267   7.302   2.280   0.585 -1.5575  0.3122  0.2482
56888SOL     OW77268  12.010   1.220  11.927 -1.0541 -0.1022  0.4858
56888SOL    HW177269  11.990   1.137  11.883  1.2970 -0.0778 -0.7645
56888SOL    HW277270  11.970   1.287  11.871  0.5980 -0.1792 -0.8709
56889SOL     OW77271   5.931  12.378   4.279  0.0666 -0.1953 -0.0415
56889SOL    HW177272   5.929  12.455   4.336 -1.3809  0.4987 -0.9668
56889SOL    HW277273   6.016  12.384   4.235 -1.0514  2.4747 -2.1182
56890SOL     OW77274   3.649   4.434   1.121 -0.3001  0.1909 -0.1887
56890SOL    HW177275   3.732   4.406   1.160 -0.6983  0.1218  0.6269
56890SOL    HW277276   3.610   4.492   1.187 -0.4208  1.0670 -1.0011
56891SOL     OW77277  11.687   2.675  11.011  0.0089  0.0681 -0.6443
56891SOL    HW177278  11.705   2.768  11.025  0.4124 -0.1393  0.2946
56891SOL    HW277279  11.623   2.673  10.940  0.1765  1.0501 -0.8334
56892SOL     OW77280  12.143   3.151   5.401  0.2415 -0.1640  0.0400
56892SOL    HW177281  12.193   3.075   5.371  0.2743 -0.7087  1.4347
56892SOL    HW277282  12.208   3.207   5.445  0.1275  0.4537 -0.5515
56893SOL     OW77283   2.082   0.973   7.459  0.5319  0.0833  0.1190
56893SOL    HW177284   2.006   1.027   7.439  0.7883 -0.2413 -1.9376
56893SOL    HW277285   2.048   0.883   7.458  0.7506 -0.0009  0.2147
56894SOL     OW77286   7.780   5.536  12.420  0.5623  0.0500  0.2441
56894SOL    HW177287   7.751   5.614  12.372  3.5418  1.7473  0.8868
56894SOL    HW277288   7.729   5.538  12.501 -1.1520 -0.1464 -0.7762
56895SOL     OW77289   3.697  11.423   6.525 -0.3892 -0.3777  1.4414
56895SOL    HW177290   3.653  11.475   6.458 -0.8398 -0.9031  1.3267
56895SOL    HW277291   3.655  11.337   6.521  0.8624 -1.0008  1.1049
56896SOL     OW77292  12.095   0.813  10.177  0.3727  0.0733 -0.1727
56896SOL    HW177293  12.046   0.872  10.234 -0.7406  0.2857 -1.2892
56896SOL    HW277294  12.055   0.728  10.191 -0.7444  0.3448 -1.4872
56897SOL     OW77295   1.217   2.101   9.388 -0.0865 -0.3892  0.6350
56897SOL    HW177296   1.125   2.127   9.379 -0.0974 -0.5373  0.2856
56897SOL    HW277297   1.223   2.020   9.337  0.2297 -0.4029  0.6945
56898SOL     OW77298   7.737   5.336  12.208  0.1965 -0.2867  0.1560
56898SOL    HW177299   7.822   5.312  12.173  0.3305 -0.6916  0.7371
56898SOL    HW277300   7.757   5.394  12.282 -0.0239 -0.4327  0.3334
56899SOL     OW77301   7.238  11.527   2.284  0.2295 -0.3152  0.6343
56899SOL    HW177302   7.233  11.523   2.379  0.4930 -0.7137  0.6335
56899SOL    HW277303   7.330  11.545   2.265  0.4624 -1.6309  0.4273
56900SOL     OW77304  11.859  12.160   1.222 -0.1444  0.1107  0.4396
56900SOL    HW177305  11.901  12.077   1.245 -1.2753 -1.0462 -1.3993
56900SOL    HW277306  11.815  12.187   1.303  2.2990  0.3011  1.8050
56901SOL     OW77307   3.168   6.843   1.194  0.6594  0.5918 -0.1411
56901SOL    HW177308   3.250   6.891   1.184  0.0676  1.7637  0.4460
56901SOL    HW277309   3.181   6.790   1.273  0.4600  1.6340  0.6050
56902SOL     OW77310   5.082   7.053   8.810 -0.1431 -0.2637 -0.3247
56902SOL    HW177311   5.158   7.093   8.852 -1.8295  1.1550  1.5484
56902SOL    HW277312   5.012   7.118   8.820 -2.1786 -2.3742 -0.0708
56903SOL     OW77313   8.075   2.432   5.252  0.0987 -0.1131  0.1737
56903SOL    HW177314   8.141   2.365   5.235 -0.4669 -0.5562 -0.2937
56903SOL    HW277315   8.123   2.501   5.299  1.4000  0.4758 -1.8545
56904SOL     OW77316   1.192   8.741   2.801  0.3947  0.1327  0.0166
56904SOL    HW177317   1.275   8.760   2.846  0.4263 -1.2412  0.5730
56904SOL    HW277318   1.128   8.794   2.848  0.8437  0.6853  0.0224
56905SOL     OW77319   6.442   4.785  10.632 -0.3051  0.5709 -0.0585
56905SOL    HW177320   6.500   4.759  10.560 -0.4189  2.2825 -0.8025
56905SOL    HW277321   6.497   4.779  10.710  0.6662  1.4065 -0.6585
56906SOL     OW77322   8.883   2.622  12.774 -0.1383 -0.3444  0.7064
56906SOL    HW177323   8.919   2.704  12.809 -1.1777 -0.4615  2.1773
56906SOL    HW277324   8.960   2.568  12.756  0.5141  0.4250  1.0969
56907SOL     OW77325  12.719  10.801   9.055 -0.3716  0.0586  0.3976
56907SOL    HW177326  12.702  10.713   9.090  2.1327 -0.5234  0.3462
56907SOL    HW277327  12.730  10.856   9.132 -1.2170  0.1902  0.4334
56908SOL     OW77328   2.887   1.403  10.909  0.0951 -0.0874  0.5730
56908SOL    HW177329   2.860   1.365  10.992 -0.2341  2.3605  1.6890
56908SOL    HW277330   2.896   1.497  10.927  0.9338  0.4096 -1.9327
56909SOL     OW77331   9.222   0.283   7.949  0.2203 -0.1387  0.2264
56909SOL    HW177332   9.245   0.356   8.007  1.9308  0.4573 -1.1120
56909SOL    HW277333   9.195   0.213   8.008  1.3518  0.6280  1.7196
56910SOL     OW77334   3.454  12.299   4.263  0.0028 -0.1631  0.5552
56910SOL    HW177335   3.447  12.267   4.173 -0.2393  1.1608  0.0751
56910SOL    HW277336   3.366  12.332   4.283  0.4472  0.9955  0.6836
56911SOL     OW77337   7.456   2.987  11.957 -0.2130 -0.4180 -0.4945
56911SOL    HW177338   7.451   3.075  11.995 -1.7410 -0.1887 -1.1852
56911SOL    HW277339   7.503   2.936  12.023  1.0190  0.9733 -0.2259
56912SOL     OW77340   0.223   2.243  12.172  0.0996 -0.2174 -0.5817
56912SOL    HW177341   0.212   2.221  12.264 -0.0794  0.8425 -0.3313
56912SOL    HW277342   0.134   2.258  12.139  0.0343 -1.9659 -1.3159
56913SOL     OW77343   2.085   6.210   6.820 -0.8189 -0.2109  0.5710
56913SOL    HW177344   2.013   6.174   6.872 -0.4893 -1.4106  0.2192
56913SOL    HW277345   2.132   6.133   6.787 -0.2411  0.5434 -0.4118
56914SOL     OW77346  11.467   6.593   9.588  0.0492  0.2364 -0.3403
56914SOL    HW177347  11.404   6.615   9.519  0.4948  0.1336 -0.7906
56914SOL    HW277348  11.553   6.607   9.547  0.3425  1.6891  0.6804
56915SOL     OW77349   0.298  12.166   1.876  0.2460  0.1332  0.7233
56915SOL    HW177350   0.231  12.225   1.910 -2.2864 -1.8416 -0.4968
56915SOL    HW277351   0.254  12.081   1.870  2.4707 -0.9892 -1.3633
56916SOL     OW77352   2.204   1.471   8.192  0.1927  0.0721  0.1811
56916SOL    HW177353   2.116   1.438   8.212  0.1911 -2.1052 -2.8113
56916SOL    HW277354   2.189   1.551   8.143 -0.0271  0.6451  1.1539
56917SOL     OW77355  12.730   9.452   0.641  0.0308  0.1209  0.7184
56917SOL    HW177356  12.796   9.453   0.572  0.8189 -1.7441  1.3880
56917SOL    HW277357  12.671   9.381   0.618 -0.5587  0.4424  1.1980
56918SOL     OW77358   3.900   3.649   8.204 -0.0651 -0.1115  0.6250
56918SOL    HW177359   3.820   3.632   8.155  0.3014 -0.4433  0.1274
56918SOL    HW277360   3.909   3.573   8.262 -0.0225 -0.1610  0.5546
56919SOL     OW77361   1.530   5.757   8.097  0.3527  0.0030  0.3814
56919SOL    HW177362   1.511   5.663   8.094 -2.0668  0.4518 -0.5551
56919SOL    HW277363   1.604   5.768   8.037 -0.3363 -1.1275 -0.7382
56920SOL     OW77364  12.786   0.730  10.915 -0.4387 -0.0988  0.0519
56920SOL    HW177365  12.721   0.799  10.928  0.4394  1.0277 -1.2592
56920SOL    HW277366  12.792   0.720  10.820  0.9040 -0.5771  0.1649
56921SOL     OW77367   9.614   4.209   2.218 -0.3337  0.1661  0.1918
56921SOL    HW177368   9.665   4.222   2.138 -1.6510  4.5523 -0.2387
56921SOL    HW277369   9.678   4.193   2.286  1.4032  2.0156 -0.8924
56922SOL     OW77370   1.706  11.184   2.481 -0.2687  0.0278 -0.1105
56922SOL    HW177371   1.788  11.158   2.523 -1.4598 -2.2852  0.9472
56922SOL    HW277372   1.700  11.127   2.405 -0.2710  1.1652 -0.9937
56923SOL     OW77373   1.524   2.297  10.564  0.4238  0.6733  0.0835
56923SOL    HW177374   1.600   2.351  10.584  0.6624  0.6400 -0.7113
56923SOL    HW277375   1.560   2.210  10.546  0.0915  0.3796  0.8131
56924SOL     OW77376   6.536  10.280   7.924  0.4864  0.6604  0.2515
56924SOL    HW177377   6.460  10.311   7.876 -1.8784  1.2851  4.0297
56924SOL    HW277378   6.524  10.185   7.928  0.2364  0.6944  0.3214
56925SOL     OW77379   7.966   0.769   2.104  0.7506 -0.1037 -0.4573
56925SOL    HW177380   7.876   0.797   2.119  1.0606  0.1020  1.1629
56925SOL    HW277381   7.988   0.805   2.018 -0.1952  1.1461 -0.2018
56926SOL     OW77382   3.857   6.359   5.410  0.3095 -0.0123  0.4961
56926SOL    HW177383   3.762   6.358   5.398  0.1389  2.5510  1.0718
56926SOL    HW277384   3.892   6.377   5.323  0.4796 -3.1427 -0.1766
56927SOL     OW77385   6.585   9.819   4.456 -0.0594  0.1108  0.3715
56927SOL    HW177386   6.640   9.741   4.450  0.8671  0.8424 -1.0870
56927SOL    HW277387   6.514   9.793   4.514  3.0887 -0.1031  4.6280
56928SOL     OW77388   7.058   9.227   5.994  0.8532  0.1674 -0.4405
56928SOL    HW177389   7.046   9.143   6.039 -0.5456  0.4014 -0.3315
56928SOL    HW277390   7.150   9.248   6.007  1.1441 -1.1875 -0.1754
56929SOL     OW77391   7.354   7.960   0.459 -0.1013  0.9103 -0.1354
56929SOL    HW177392   7.263   7.990   0.460 -0.2053  0.6042 -0.3765
56929SOL    HW277393   7.398   8.018   0.397  0.0693  1.6205  0.6189
56930SOL     OW77394   3.123   9.712   2.662 -0.0450  0.3860  0.0177
56930SOL    HW177395   3.202   9.767   2.660 -0.6493  1.3083 -2.5380
56930SOL    HW277396   3.157   9.623   2.676  1.2698  0.9534  0.6741
56931SOL     OW77397   9.901   1.554   4.822 -0.1782  0.4176 -0.3967
56931SOL    HW177398   9.926   1.531   4.912  1.5990 -1.7059 -1.3717
56931SOL    HW277399   9.942   1.639   4.807  2.4713 -0.7557 -0.2886
56932SOL     OW77400  11.271  11.716  12.634 -0.2195  0.2635 -0.0212
56932SOL    HW177401  11.219  11.741  12.711 -1.0226  3.1183 -1.3300
56932SOL    HW277402  11.309  11.799  12.604  2.3125 -1.1940 -1.1622
56933SOL     OW77403   1.262   9.181   1.454  0.0858 -0.0437  0.4710
56933SOL    HW177404   1.192   9.246   1.461 -0.3190 -0.2622 -1.0760
56933SOL    HW277405   1.236   9.126   1.381  1.7842 -0.2568 -0.0233
56934SOL     OW77406  12.521  10.061   7.304 -0.1256  0.6170  0.0411
56934SOL    HW177407  12.542   9.970   7.284  0.4943  0.8187 -0.2562
56934SOL    HW277408  12.468  10.090   7.229 -0.0928  0.5787  0.0028
56935SOL     OW77409  11.171   5.200   9.244  0.6025  0.3117 -0.6172
56935SOL    HW177410  11.164   5.122   9.299  0.4206  1.9504  1.8482
56935SOL    HW277411  11.106   5.260   9.280  0.9225  1.7042 -2.2612
56936SOL     OW77412   1.917   0.839  12.051 -0.5354 -0.2254  0.1799
56936SOL    HW177413   1.833   0.805  12.022 -0.8659  1.9507 -1.7365
56936SOL    HW277414   1.903   0.864  12.142 -1.8017 -0.3751  0.0433
56937SOL     OW77415   5.324   2.687   2.187  0.4920  0.0632  0.9788
56937SOL    HW177416   5.235   2.691   2.152  0.2081  3.4155  1.7263
56937SOL    HW277417   5.315   2.642   2.271 -0.7655  1.4495  1.6167
56938SOL     OW77418   6.237   1.983   5.765 -0.2120  0.1927  0.4155
56938SOL    HW177419   6.165   1.924   5.741  0.6338 -0.5782 -0.2981
56938SOL    HW277420   6.316   1.930   5.756  0.3939  0.6880  2.2555
56939SOL     OW77421   6.094   6.536   4.061 -1.0466  0.4959  0.3511
56939SOL    HW177422   6.110   6.630   4.069 -0.6832  0.3889  0.9022
56939SOL    HW277423   6.164   6.495   4.111 -1.7570 -0.0467  0.9221
56940SOL     OW77424   9.674   5.104   4.793  0.2220  0.0806  0.1329
56940SOL    HW177425   9.743   5.168   4.773 -0.7653  0.4554 -2.5378
56940SOL    HW277426   9.719   5.033   4.838  1.6624  1.8440  1.6820
56941SOL     OW77427   2.021   2.235  10.771  0.7260  0.3335  0.3310
56941SOL    HW177428   2.110   2.253  10.803  1.1088 -1.1382  0.1466
56941SOL    HW277429   2.029   2.156  10.718 -0.0369  2.1752 -2.8108
56942SOL     OW77430   8.180  10.477  12.498  0.1559  0.2022  0.5824
56942SOL    HW177431   8.140  10.561  12.520 -0.7872  0.2416 -1.1389
56942SOL    HW277432   8.133  10.413  12.552 -0.7600  0.5126  0.1761
56943SOL     OW77433  11.538   8.808  12.755  0.7053 -0.1740  0.2453
56943SOL    HW177434  11.469   8.766  12.704  0.4574  0.1413  0.3226
56943SOL    HW277435  11.609   8.821  12.692 -0.4011  2.2319 -0.5992
56944SOL     OW77436  10.927   0.316  10.716  0.1508 -0.3027  0.1966
56944SOL    HW177437  10.973   0.245  10.670 -0.6236 -1.3029  0.9347
56944SOL    HW277438  10.835   0.304  10.692  0.0908  0.9007 -0.2353
56945SOL     OW77439   4.505   4.349   2.032 -0.6732  0.1539  0.8842
56945SOL    HW177440   4.415   4.328   2.006 -0.1446 -0.4681 -0.4966
56945SOL    HW277441   4.527   4.282   2.097 -0.0643 -1.8754 -1.2702
56946SOL     OW77442   9.942   4.169   2.682 -0.2292 -0.0117  0.2605
56946SOL    HW177443   9.970   4.086   2.721  2.9513  0.1697 -1.3297
56946SOL    HW277444   9.905   4.144   2.597  0.8068  0.1291 -0.2557
56947SOL     OW77445  10.927   0.547   0.952 -0.1522  0.4338  0.2605
56947SOL    HW177446  10.930   0.623   0.893 -2.5640  0.0640 -0.4085
56947SOL    HW277447  10.865   0.487   0.911  0.7471 -1.3827  1.4367
56948SOL     OW77448   9.567   6.099  12.334 -0.2806  0.5025 -0.1502
56948SOL    HW177449   9.490   6.091  12.278 -0.6391  0.0126  0.4037
56948SOL    HW277450   9.542   6.058  12.417  0.4184  0.7475  0.1994
56949SOL     OW77451   7.452   4.640   5.006  0.2607  0.0263  0.3697
56949SOL    HW177452   7.463   4.720   5.058  0.9875  0.6950 -0.7563
56949SOL    HW277453   7.519   4.581   5.040 -0.6677 -0.3564  1.6118
56950SOL     OW77454  10.290   0.814   3.092 -0.0154 -0.6907 -0.2317
56950SOL    HW177455  10.247   0.817   3.177  2.8029 -0.3579  1.2918
56950SOL    HW277456  10.368   0.869   3.102  0.4959 -0.7302 -3.0098
56951SOL     OW77457  11.801   1.757   4.292  0.4805  0.3005 -0.6449
56951SOL    HW177458  11.887   1.782   4.327  0.5425  1.5103 -1.6163
56951SOL    HW277459  11.819   1.685   4.232  0.5503 -0.7732  0.5997
56952SOL     OW77460   1.200   0.243   6.161 -0.2261 -0.3505  0.4021
56952SOL    HW177461   1.201   0.314   6.097  1.3399 -0.8041 -0.1215
56952SOL    HW277462   1.290   0.209   6.161 -0.7837 -1.9482  1.0588
56953SOL     OW77463   1.453  12.561   3.791  0.2458 -0.4467 -0.2603
56953SOL    HW177464   1.535  12.593   3.829  0.6205  0.1380 -1.5228
56953SOL    HW277465   1.480  12.495   3.727 -0.0458  1.2882 -2.2978
56954SOL     OW77466   3.657   3.911  11.433  0.1370  0.8607 -0.4176
56954SOL    HW177467   3.670   3.818  11.412  0.1428  0.5770  0.8035
56954SOL    HW277468   3.630   3.911  11.525  0.2126  2.0813 -0.3886
56955SOL     OW77469   1.387   9.107   7.174 -0.1428 -0.0815 -0.6246
56955SOL    HW177470   1.450   9.058   7.121  0.9026 -1.2825  1.5907
56955SOL    HW277471   1.440   9.173   7.220  0.1418 -2.6036  3.0905
56956SOL     OW77472   6.665  10.143   8.314  0.2391  0.1279 -0.0998
56956SOL    HW177473   6.597  10.210   8.308  0.6439  0.6221  0.7102
56956SOL    HW277474   6.636  10.074   8.255 -0.2363  0.9768 -0.8933
56957SOL     OW77475  10.552   8.104   4.830  0.7039  0.1795  0.0140
56957SOL    HW177476  10.479   8.106   4.891  0.1642 -1.5829 -0.5239
56957SOL    HW277477  10.623   8.061   4.877  0.8238  0.2783 -0.0726
56958SOL     OW77478   6.679   0.374   5.017  0.0444 -0.2003 -0.1328
56958SOL    HW177479   6.588   0.346   5.006 -0.4713  1.6486 -0.9736
56958SOL    HW277480   6.717   0.363   4.930  1.2700 -2.8444  0.6299
56959SOL     OW77481   6.129   5.392   0.669 -0.1206 -0.0908  0.0943
56959SOL    HW177482   6.083   5.450   0.608 -0.6853 -0.9433 -0.3083
56959SOL    HW277483   6.152   5.316   0.617  2.8801  0.7870 -0.0381
56960SOL     OW77484   2.011  11.368   1.740  0.0220  0.3641  0.1306
56960SOL    HW177485   1.955  11.388   1.815 -0.3294 -0.7783  0.1923
56960SOL    HW277486   1.987  11.279   1.715  2.0617 -0.3004  0.3739
56961SOL     OW77487  11.128  12.493   6.949  0.0252  0.0360 -0.0079
56961SOL    HW177488  11.090  12.531   7.028 -0.0583  1.7422 -0.8393
56961SOL    HW277489  11.106  12.400   6.955 -0.3712  0.2029  1.7418
56962SOL     OW77490   7.463   8.122   4.163 -0.0207 -0.3568  0.0107
56962SOL    HW177491   7.555   8.118   4.187 -0.5019  0.6470  2.2846
56962SOL    HW277492   7.447   8.214   4.141 -0.6876 -0.3104  0.6433
56963SOL     OW77493  10.117  10.882   6.046  0.4918  0.2571  0.2518
56963SOL    HW177494  10.040  10.831   6.073 -0.0729  1.2754  0.6220
56963SOL    HW277495  10.107  10.891   5.951  0.8276 -0.6713  0.1151
56964SOL     OW77496  11.197   1.580   4.660  0.0426 -0.4558 -0.3370
56964SOL    HW177497  11.132   1.532   4.710  0.6020 -0.2474  0.6303
56964SOL    HW277498  11.151   1.658   4.629 -0.1742 -0.2840  0.3821
56965SOL     OW77499   0.046  10.095   6.487 -0.3200 -0.1139 -0.6287
56965SOL    HW177500   0.041  10.043   6.406 -1.6644  0.0997 -0.7151
56965SOL    HW277501   0.056  10.185   6.456  1.0108 -0.2054 -0.5015
56966SOL     OW77502   4.568   0.244   9.090 -0.2410  0.1629 -0.2689
56966SOL    HW177503   4.517   0.323   9.107 -0.4502  0.1991 -1.0378
56966SOL    HW277504   4.504   0.174   9.086  0.0270 -0.2297  1.3777
56967SOL     OW77505   4.580  12.697  10.722  0.4102  0.1265 -0.1528
56967SOL    HW177506   4.535  12.627  10.769  0.3226  0.5656  0.4300
56967SOL    HW277507   4.543  12.778  10.757  2.0280  0.5177  0.7541
56968SOL     OW77508   8.389   9.427   8.281  0.3755 -0.6397  0.5478
56968SOL    HW177509   8.469   9.425   8.333  0.4953 -0.4284  0.3755
56968SOL    HW277510   8.334   9.359   8.319  0.9463 -1.3284  0.1797
56969SOL     OW77511   4.965   4.518   9.043 -0.3378  0.2193 -0.0936
56969SOL    HW177512   4.925   4.547   8.961 -1.5758  0.4725  0.5755
56969SOL    HW277513   4.970   4.423   9.036  0.4055  0.3063 -0.8250
56970SOL     OW77514  10.168   7.473   0.996 -0.7082  0.5390 -0.1972
56970SOL    HW177515  10.080   7.502   1.021 -1.0517 -0.6468  0.0572
56970SOL    HW277516  10.162   7.459   0.902 -0.8305  0.3653 -0.1652
56971SOL     OW77517   5.062   3.635   9.414 -0.6632  0.0326  0.1928
56971SOL    HW177518   5.038   3.712   9.466 -1.0657  1.7471 -2.3722
56971SOL    HW277519   5.113   3.669   9.342 -0.3717 -2.2110 -0.7498
56972SOL     OW77520   3.418  11.501   4.150  0.3555 -0.0188  0.9169
56972SOL    HW177521   3.431  11.568   4.217  0.3718  0.1251  0.7724
56972SOL    HW277522   3.493  11.442   4.159  0.5283  0.1818  0.8145
56973SOL     OW77523   9.346  12.526   5.097 -0.7569 -0.2790 -1.0983
56973SOL    HW177524   9.257  12.561   5.103 -1.3734 -1.4742 -2.5077
56973SOL    HW277525   9.401  12.603   5.083 -1.4932  0.5136  0.1672
56974SOL     OW77526   3.808   7.617   1.173 -0.1742 -0.0063  0.0510
56974SOL    HW177527   3.733   7.645   1.120 -0.4930 -1.7035 -0.4581
56974SOL    HW277528   3.830   7.531   1.139  2.6725  0.8416 -0.4596
56975SOL     OW77529   2.781  10.103   9.995 -0.2298  0.4902  0.0241
56975SOL    HW177530   2.856  10.126  10.049 -0.2843  0.9244 -0.0795
56975SOL    HW277531   2.736  10.034  10.044 -0.8606  1.5803  1.0554
56976SOL     OW77532   4.509  12.140  11.104 -0.3255  0.2014 -0.0200
56976SOL    HW177533   4.449  12.179  11.040 -0.4215 -0.9246 -0.6515
56976SOL    HW277534   4.464  12.148  11.188 -0.1136  1.8816 -0.0408
56977SOL     OW77535   2.659   8.089  11.162  0.2435 -0.4880 -0.6593
56977SOL    HW177536   2.654   8.179  11.192 -0.3551 -0.3739 -1.0875
56977SOL    HW277537   2.601   8.085  11.085  1.4084 -0.8749 -1.5453
56978SOL     OW77538   4.857   1.972   9.504  0.0765 -0.3105  0.2787
56978SOL    HW177539   4.804   1.899   9.472  0.5083 -0.6041  0.2253
56978SOL    HW277540   4.795   2.044   9.515 -0.3962 -0.7541  0.5554
56979SOL     OW77541   8.827  11.231  12.715  0.0633  0.1731  0.5029
56979SOL    HW177542   8.902  11.210  12.771  1.0920  1.1541 -0.4528
56979SOL    HW277543   8.754  11.183  12.753  0.9325  0.1003  2.1384
56980SOL     OW77544   8.464   6.274   0.395 -0.5187 -0.1745 -0.0107
56980SOL    HW177545   8.542   6.229   0.362  0.4518 -0.5371  2.5553
56980SOL    HW277546   8.392   6.214   0.375  0.0842 -0.6594 -0.8073
56981SOL     OW77547   6.503   1.449   0.664  0.1617 -0.6278 -0.4719
56981SOL    HW177548   6.500   1.363   0.707  0.2865 -0.2898  0.2338
56981SOL    HW277549   6.595   1.462   0.642  0.0579 -0.9205 -1.1080
56982SOL     OW77550   4.775  10.809  10.049 -0.8161  0.4391  0.9134
56982SOL    HW177551   4.849  10.759  10.084 -0.1398  1.0811  0.4300
56982SOL    HW277552   4.726  10.746   9.997  3.4445  1.2530 -5.2278
56983SOL     OW77553   0.000  10.754  10.250 -0.3046 -0.2455  0.5746
56983SOL    HW177554   0.096  10.749  10.245 -0.1890  2.0536 -0.2782
56983SOL    HW277555  -0.019  10.734  10.342  1.0872  0.2523  1.0062
56984SOL     OW77556   3.284  10.588   0.452  0.9495  0.1472  0.0461
56984SOL    HW177557   3.234  10.512   0.422 -0.0990  0.2121  1.5224
56984SOL    HW277558   3.257  10.659   0.393  1.1793 -0.3751 -0.7088
56985SOL     OW77559  12.689   7.007   1.038 -0.1950 -0.2128  0.2955
56985SOL    HW177560  12.743   7.085   1.030  1.4825 -1.2481  0.8923
56985SOL    HW277561  12.616   7.034   1.093  1.2251  0.5531  1.9042
56986SOL     OW77562   3.116   0.982   4.251  0.8490  0.0764  0.1907
56986SOL    HW177563   3.176   0.914   4.221  2.1348  1.4368 -0.4467
56986SOL    HW277564   3.030   0.939   4.254  1.9954 -2.2935  2.4182
56987SOL     OW77565   2.771   2.398  11.194 -0.4345  0.5788  0.1222
56987SOL    HW177566   2.724   2.468  11.239  0.2628  1.4485 -0.4558
56987SOL    HW277567   2.807   2.343  11.264 -0.2430  1.3109  0.6094
56988SOL     OW77568   3.098  10.328   2.125  0.0020 -0.0530 -0.0472
56988SOL    HW177569   3.164  10.384   2.165  0.1888  0.9627 -1.6889
56988SOL    HW277570   3.100  10.351   2.032 -1.5078 -1.1819 -0.3992
56989SOL     OW77571   1.654   6.559   8.200 -1.0037  0.4138  0.3015
56989SOL    HW177572   1.726   6.599   8.248 -0.6611  0.2685 -0.0787
56989SOL    HW277573   1.611   6.502   8.264 -0.0123 -0.4686  0.2321
56990SOL     OW77574   7.511   6.958   9.114 -0.0984 -0.1147 -0.0960
56990SOL    HW177575   7.469   6.874   9.099  2.3875 -1.3542 -0.6186
56990SOL    HW277576   7.533   6.957   9.208  1.9719 -1.1497 -0.5294
56991SOL     OW77577   4.784   1.028   7.104 -0.1870  0.0586 -0.1342
56991SOL    HW177578   4.712   0.966   7.112 -0.7829  0.8470  0.7628
56991SOL    HW277579   4.789   1.072   7.190  0.6039  0.8317 -0.5494
56992SOL     OW77580  11.846  10.589   6.236  0.1277 -0.0245 -0.4289
56992SOL    HW177581  11.826  10.649   6.308 -0.7787 -0.5804 -0.2056
56992SOL    HW277582  11.881  10.511   6.279 -0.1483 -0.2485 -0.6076
56993SOL     OW77583   5.110   2.653   5.633 -0.0165  0.1095 -0.4566
56993SOL    HW177584   5.182   2.678   5.691 -0.4643  2.4122 -0.7873
56993SOL    HW277585   5.067   2.580   5.677  2.0895 -0.8772  0.0720
56994SOL     OW77586   7.986  11.783   6.520  0.0887  0.0221  0.8173
56994SOL    HW177587   7.905  11.734   6.528 -0.2618  0.5945  0.8591
56994SOL    HW277588   8.026  11.778   6.606  0.7197 -1.2986  0.4761
56995SOL     OW77589   6.431   5.059  10.612 -0.7927 -1.2390  0.1029
56995SOL    HW177590   6.507   5.096  10.658  0.0347 -2.4060 -0.2748
56995SOL    HW277591   6.428   4.968  10.641 -2.5346 -1.0203  0.7017
56996SOL     OW77592   7.388   1.764   6.983  0.0097 -0.5222 -0.1455
56996SOL    HW177593   7.341   1.822   7.043 -1.2506 -0.1718 -1.3921
56996SOL    HW277594   7.321   1.736   6.921  0.8927 -2.2664 -0.3606
56997SOL     OW77595   8.278   3.650   2.084  0.4610  0.0879  0.5838
56997SOL    HW177596   8.290   3.656   1.989  0.3890 -0.8871  0.5100
56997SOL    HW277597   8.224   3.726   2.106  1.8893  1.3053  0.1014
56998SOL     OW77598  11.724   1.258   8.682 -0.3240  0.2920  0.1349
56998SOL    HW177599  11.648   1.243   8.739  0.6463  0.2663  1.4860
56998SOL    HW277600  11.772   1.175   8.683 -1.6408 -0.6575 -2.9846
56999SOL     OW77601   0.867   5.588  11.294  0.0515 -0.1497  0.3794
56999SOL    HW177602   0.879   5.572  11.388 -0.0844 -0.4318  0.3497
56999SOL    HW277603   0.956   5.592  11.259  0.2189  2.1896  0.8692
57000SOL     OW77604   4.114  12.286   0.858 -0.4767 -0.1008 -0.3324
57000SOL    HW177605   4.137  12.322   0.772 -1.9363 -0.1588 -0.7723
57000SOL    HW277606   4.089  12.362   0.910  2.3623  0.1913  0.7541
57001SOL     OW77607   3.210   8.901  12.695 -0.1912 -0.0455  0.6135
57001SOL    HW177608   3.287   8.846  12.710 -1.6170 -1.7468  2.2339
57001SOL    HW277609   3.147   8.843  12.652 -0.7293  1.2194 -0.3809
57002SOL     OW77610  12.269   9.277   9.058 -0.3319  0.0344  0.5457
57002SOL    HW177611  12.252   9.183   9.053 -0.3055  0.0574 -0.1579
57002SOL    HW277612  12.250   9.309   8.969 -0.4189  0.7030  0.8004
57003SOL     OW77613   8.867   6.139   1.860 -0.3213  0.0529  0.0923
57003SOL    HW177614   8.880   6.101   1.773 -0.4641 -0.3466  0.2441
57003SOL    HW277615   8.772   6.145   1.870 -0.3239 -0.7267  0.5729
57004SOL     OW77616   0.991   6.212   7.083  0.1228  0.3960  0.0955
57004SOL    HW177617   1.027   6.300   7.069  0.1577  0.6462  1.5353
57004SOL    HW277618   0.899   6.219   7.059  0.4495  0.4214 -1.2077
57005SOL     OW77619   1.368   2.660  11.934  0.1192  0.4846  0.3688
57005SOL    HW177620   1.329   2.741  11.965 -0.1851 -0.0499  1.4273
57005SOL    HW277621   1.461   2.669  11.955 -0.3536 -0.7156  3.5170
57006SOL     OW77622  12.657   4.286   5.821  0.0644  0.1389  0.0415
57006SOL    HW177623  12.643   4.377   5.848  0.0794  0.1121  0.1360
57006SOL    HW277624  12.583   4.238   5.857  0.0023  0.1307 -0.0942
57007SOL     OW77625   3.700  11.825   9.855  0.4485  0.0313 -0.6389
57007SOL    HW177626   3.765  11.895   9.846  0.1137  0.1930 -1.9088
57007SOL    HW277627   3.708  11.798   9.947  0.6712  1.6331 -0.1524
57008SOL     OW77628   2.002   9.419  10.864  0.6267  0.2024 -0.1413
57008SOL    HW177629   1.911   9.391  10.856  0.2320  1.6529 -1.1554
57008SOL    HW277630   2.050   9.360  10.805  0.4020 -0.7100  0.5630
57009SOL     OW77631   8.904   1.438  11.213 -0.0544  0.2711  0.0380
57009SOL    HW177632   8.870   1.416  11.126 -1.7696  0.1967  0.6946
57009SOL    HW277633   8.958   1.362  11.237 -1.3585 -0.7333 -0.0749
57010SOL     OW77634  10.952   0.554   0.143 -0.4188  0.5028 -0.2782
57010SOL    HW177635  10.965   0.482   0.204  0.2997  0.9048  0.0551
57010SOL    HW277636  10.860   0.548   0.118 -1.0752  1.0402  1.7844
57011SOL     OW77637   1.236   7.167   6.714 -0.4205 -0.1466 -0.5200
57011SOL    HW177638   1.270   7.134   6.631  0.0090  0.1399 -0.4644
57011SOL    HW277639   1.231   7.089   6.770 -1.0245 -0.3947 -0.9113
57012SOL     OW77640  11.516  10.261   8.640 -0.4452 -0.4379 -0.1644
57012SOL    HW177641  11.422  10.261   8.622 -0.3122 -1.3185 -0.9173
57012SOL    HW277642  11.558  10.275   8.555  0.1295 -1.4866 -0.0742
57013SOL     OW77643   3.294  12.243   3.138  0.2061  0.1238  0.4888
57013SOL    HW177644   3.244  12.324   3.127  0.4130  0.2270  0.3161
57013SOL    HW277645   3.297  12.205   3.050 -1.5362 -1.0455  0.8813
57014SOL     OW77646  11.219   9.867  11.343  0.0141 -0.2067 -0.0829
57014SOL    HW177647  11.138   9.887  11.390  0.1153  1.5843 -0.5971
57014SOL    HW277648  11.288   9.881  11.407 -0.0594 -1.7505  0.3610
57015SOL     OW77649   2.193   1.229   6.811  0.0303 -0.2550 -0.2003
57015SOL    HW177650   2.234   1.217   6.725 -0.0949 -1.0351 -0.1583
57015SOL    HW277651   2.212   1.148   6.858 -1.2568 -0.4790 -0.0505
57016SOL     OW77652   6.065   8.826   4.217 -0.4476 -0.4091 -0.3243
57016SOL    HW177653   6.158   8.847   4.219 -0.2614 -0.7724 -2.3385
57016SOL    HW277654   6.043   8.801   4.307  1.3092 -0.0161  0.2471
57017SOL     OW77655  10.572  10.354  10.816  0.4114  0.3791 -0.3648
57017SOL    HW177656  10.558  10.434  10.865 -0.7408  0.2795 -0.5074
57017SOL    HW277657  10.612  10.294  10.879  0.3675  0.7411  0.0111
57018SOL     OW77658   4.872   3.225   1.587  0.4600  0.1613 -0.4998
57018SOL    HW177659   4.875   3.131   1.608 -1.6596  0.0491 -0.4790
57018SOL    HW277660   4.875   3.268   1.672  2.8092  0.2275 -0.5549
57019SOL     OW77661   1.608   1.479  11.525  0.6315  0.2830 -0.0472
57019SOL    HW177662   1.551   1.429  11.583  0.4076  0.4407 -0.1328
57019SOL    HW277663   1.549   1.536  11.476  0.9167  0.9275  0.3377
57020SOL     OW77664   1.798   2.359   3.222 -0.6578 -0.0258  0.4434
57020SOL    HW177665   1.846   2.371   3.139 -0.1754 -0.6868  0.6123
57020SOL    HW277666   1.737   2.432   3.225 -2.1002 -1.0335 -1.4697
57021SOL     OW77667  12.445  12.190   4.773  0.2191 -0.0392  0.3714
57021SOL    HW177668  12.472  12.103   4.804  1.0212  0.6319  1.6812
57021SOL    HW277669  12.388  12.222   4.843  2.1748  1.5808  1.3132
57022SOL     OW77670   0.506   4.684   8.712  0.1700 -0.3814 -0.1756
57022SOL    HW177671   0.477   4.602   8.752  2.1328 -0.4333  1.3043
57022SOL    HW277672   0.521   4.662   8.621  0.7609 -1.7228  0.2166
57023SOL     OW77673   3.114  12.259  12.450 -0.3533  0.3127 -0.0739
57023SOL    HW177674   3.190  12.277  12.395 -1.5684  0.0754 -1.9447
57023SOL    HW277675   3.079  12.177  12.416 -2.2162  1.1076 -0.1844
57024SOL     OW77676   7.812   5.267   2.186 -0.0517 -0.4430 -0.3553
57024SOL    HW177677   7.897   5.223   2.181  0.2132 -0.4735  2.5177
57024SOL    HW277678   7.831   5.358   2.165  1.0789 -0.1258  1.8028
57025SOL     OW77679   2.587   1.073   4.555  0.1118 -0.1128  0.2066
57025SOL    HW177680   2.535   1.055   4.477  0.0305 -0.4934  0.3463
57025SOL    HW277681   2.531   1.130   4.609 -0.7608 -1.6441  0.9961
57026SOL     OW77682  12.642  10.545   9.230 -0.1844  0.9823 -0.2632
57026SOL    HW177683  12.553  10.572   9.254 -0.2513 -0.2531  1.0959
57026SOL    HW277684  12.642  10.450   9.244  1.4026  0.9900 -0.0555
57027SOL     OW77685   1.968   4.940   9.198  0.0346  0.3508  0.3990
57027SOL    HW177686   1.927   4.854   9.192  3.2281 -1.2903 -0.1668
57027SOL    HW277687   1.926   4.981   9.274 -0.3648 -2.4426  1.8141
57028SOL     OW77688   6.238   6.466   0.046 -0.4911 -0.2694  0.0971
57028SOL    HW177689   6.156   6.465   0.095 -1.0567  0.9196 -0.7819
57028SOL    HW277690   6.282   6.384   0.071 -0.7223  0.3006  2.5934
57029SOL     OW77691   6.691   8.730   1.663  0.7093 -0.1671  0.2452
57029SOL    HW177692   6.700   8.676   1.741 -0.6866  0.1603  0.6494
57029SOL    HW277693   6.610   8.701   1.622  1.6055 -0.6107 -1.3431
57030SOL     OW77694   7.156   0.734   1.954  0.3806 -0.4362 -0.1015
57030SOL    HW177695   7.197   0.657   1.914  0.5302 -0.2105 -0.3972
57030SOL    HW277696   7.204   0.808   1.916 -0.6026 -0.1456 -0.8125
57031SOL     OW77697  12.364  12.498   5.815 -0.2889  0.0122  0.5033
57031SOL    HW177698  12.307  12.535   5.748 -1.1573 -0.3049  1.0598
57031SOL    HW277699  12.365  12.404   5.797  0.4275  0.0637  0.2265
57032SOL     OW77700  10.408   1.862   1.216 -0.3833  0.2490 -0.6306
57032SOL    HW177701  10.448   1.911   1.288 -0.9278 -0.8214  0.4441
57032SOL    HW277702  10.321   1.840   1.248 -0.6067 -0.3218 -1.5900
57033SOL     OW77703   9.467   7.465   4.195  1.0161  0.1493 -0.0997
57033SOL    HW177704   9.408   7.531   4.230  0.3413 -0.4407 -0.0995
57033SOL    HW277705   9.513   7.509   4.124  0.9961  0.7849  0.2783
57034SOL     OW77706  10.869   5.365  11.177 -0.0361  0.1457  0.1738
57034SOL    HW177707  10.913   5.347  11.260 -2.7405 -2.4903  1.2126
57034SOL    HW277708  10.808   5.436  11.196  1.5810  1.8178 -0.5310
57035SOL     OW77709   0.422   1.898   9.655 -0.0864  0.0157  0.0009
57035SOL    HW177710   0.496   1.934   9.606 -0.2437  0.0578 -0.2070
57035SOL    HW277711   0.461   1.864   9.736  0.6944 -2.7999 -1.4096
57036SOL     OW77712  12.539   3.814  11.894  0.0496  0.5222 -0.2451
57036SOL    HW177713  12.552   3.908  11.888 -0.2717  0.6411  0.7934
57036SOL    HW277714  12.488   3.792  11.815 -1.8935  1.6038  0.6404
57037SOL     OW77715   3.469   5.624  12.328 -0.7564 -0.0991 -0.0282
57037SOL    HW177716   3.512   5.641  12.244 -1.0504 -1.1824 -0.4116
57037SOL    HW277717   3.541   5.604  12.388 -0.5792  0.2149 -0.1324
57038SOL     OW77718   3.267   2.135  10.813 -0.2026  0.7739 -0.4465
57038SOL    HW177719   3.264   2.113  10.720  1.3872 -0.2533 -0.2958
57038SOL    HW277720   3.350   2.181  10.824  0.9321 -1.4421  0.8872
57039SOL     OW77721   9.702   6.608  10.392 -0.2500  0.0644 -0.0195
57039SOL    HW177722   9.715   6.633  10.300 -0.2587 -0.3730 -0.1393
57039SOL    HW277723   9.641   6.673  10.425  0.7630  1.0208  0.0368
57040SOL     OW77724   6.320  11.610  11.562 -0.4637  0.3821  0.0417
57040SOL    HW177725   6.339  11.554  11.487  0.8704  1.2505 -0.2911
57040SOL    HW277726   6.284  11.690  11.524 -0.1474  0.6715  0.3418
57041SOL     OW77727  11.858   9.786   9.395  0.0872  0.2002  0.6262
57041SOL    HW177728  11.787   9.767   9.333  2.2346  1.5357 -2.5007
57041SOL    HW277729  11.878   9.701   9.435 -2.4174 -0.4130  0.7690
57042SOL     OW77730   4.150   1.972   2.719  0.7176  0.7424 -0.1301
57042SOL    HW177731   4.112   2.014   2.642  0.8455 -0.6748 -1.0118
57042SOL    HW277732   4.219   2.031   2.748  1.4296  0.7749 -1.7988
57043SOL     OW77733   2.330   7.948   4.091  0.4857  0.2506 -0.0537
57043SOL    HW177734   2.319   7.988   4.005  2.0457  0.3436 -0.2331
57043SOL    HW277735   2.333   7.854   4.073 -1.5840  0.0816  0.1986
57044SOL     OW77736  12.085  10.016  12.728  0.3203 -0.6625 -0.4740
57044SOL    HW177737  12.137  10.039  12.805 -1.9098 -1.9237  1.5361
57044SOL    HW277738  12.123   9.933  12.698 -0.7257 -1.8540  1.3016
57045SOL     OW77739   2.107  10.780   9.906  0.3425  0.2759  0.7396
57045SOL    HW177740   2.145  10.700   9.942  1.2075  0.6105  0.6012
57045SOL    HW277741   2.130  10.777   9.813 -2.2706 -0.8129  0.0527
57046SOL     OW77742   0.025   7.299   2.697  0.4643 -0.2821 -0.4976
57046SOL    HW177743   0.112   7.322   2.730  0.0652  0.5219  0.0153
57046SOL    HW277744  -0.025   7.380   2.701 -0.5486 -0.9101 -0.0423
57047SOL     OW77745   8.553   0.536   1.303 -0.0898  0.3137  0.3366
57047SOL    HW177746   8.476   0.557   1.356 -0.5954 -0.0681 -0.2272
57047SOL    HW277747   8.614   0.496   1.364  0.1779  1.7518  1.0567
57048SOL     OW77748  11.052  12.575  11.628  0.2856  0.3540  0.2124
57048SOL    HW177749  11.128  12.523  11.655  0.0298 -0.1200  0.0254
57048SOL    HW277750  11.004  12.519  11.568 -0.4329  0.4919  0.6413
57049SOL     OW77751   5.237   1.998   3.910 -0.0302 -0.2279  0.2263
57049SOL    HW177752   5.242   2.091   3.891 -1.4596 -0.2882 -0.6197
57049SOL    HW277753   5.182   1.992   3.988 -1.6876 -0.4376 -0.9153
57050SOL     OW77754   8.811  10.717   4.993 -0.1349 -0.5248  0.3298
57050SOL    HW177755   8.740  10.757   4.941 -0.7315 -0.3259  1.2669
57050SOL    HW277756   8.888  10.770   4.973 -0.2306 -0.7791 -0.7575
57051SOL     OW77757   6.875  10.088   8.565 -0.0837  0.6964  0.7089
57051SOL    HW177758   6.786  10.093   8.528 -0.4492  0.5723  1.5458
57051SOL    HW277759   6.901   9.997   8.552  0.7167  1.1576 -1.2881
57052SOL     OW77760   5.248   0.270  12.761 -0.3425  0.0982 -0.2164
57052SOL    HW177761   5.307   0.202  12.792 -0.3850 -0.2435 -0.8633
57052SOL    HW277762   5.236   0.328  12.836  0.5047 -0.0416  0.0341
57053SOL     OW77763   3.054   6.928   4.610 -0.1693 -0.6997  0.2453
57053SOL    HW177764   2.990   6.875   4.562 -0.7044  0.7780 -0.7541
57053SOL    HW277765   3.106   6.864   4.660 -0.7689 -2.1438 -0.9045
57054SOL     OW77766   2.784   4.174   6.426 -0.0618  0.1908  0.0066
57054SOL    HW177767   2.767   4.089   6.386 -1.5937 -0.3747  1.7631
57054SOL    HW277768   2.780   4.158   6.520  0.0240  2.1370  0.3857
57055SOL     OW77769  10.031   1.673   8.187  0.4321 -0.4194 -0.0524
57055SOL    HW177770  10.023   1.762   8.154 -0.3057 -0.5736 -0.3057
57055SOL    HW277771  10.119   1.646   8.163  0.3532 -0.0684 -0.7542
57056SOL     OW77772   4.128  11.254   0.549  0.2547 -0.0075  0.1608
57056SOL    HW177773   4.171  11.339   0.537 -1.5840  1.0895  0.7729
57056SOL    HW277774   4.038  11.270   0.521 -0.0392 -1.8821 -0.0516
57057SOL     OW77775  11.113   5.874  11.156  0.0696 -0.3151  0.4387
57057SOL    HW177776  11.155   5.946  11.204  2.3089 -1.5466  0.4577
57057SOL    HW277777  11.186   5.816  11.132 -1.7020 -2.9724  1.1022
57058SOL     OW77778  10.243   7.215   4.795  0.7246  0.0570  0.6716
57058SOL    HW177779  10.327   7.204   4.839  1.2761 -0.3989 -0.4601
57058SOL    HW277780  10.264   7.215   4.702 -0.2486  2.3293  0.3757
57059SOL     OW77781   2.295   4.646   8.027  0.0876 -0.5378  0.1012
57059SOL    HW177782   2.272   4.727   8.073  0.6826  0.0220 -0.5580
57059SOL    HW277783   2.348   4.675   7.953  1.7380 -1.6449  0.7760
57060SOL     OW77784   8.819  11.069   4.516  0.0383 -0.1944  0.4589
57060SOL    HW177785   8.801  11.098   4.605  0.8274 -1.2404  0.9885
57060SOL    HW277786   8.742  11.095   4.466 -0.4675  0.3058  1.4723
57061SOL     OW77787   1.584   2.878   7.303  0.2511 -0.0825 -0.3324
57061SOL    HW177788   1.557   2.949   7.245  0.6365 -1.1688 -1.9007
57061SOL    HW277789   1.504   2.851   7.348  0.1375  1.4465  0.4602
57062SOL     OW77790  12.130   5.945   3.075  0.5364  0.4319  0.5103
57062SOL    HW177791  12.119   5.852   3.057 -1.2267  0.6516  0.3207
57062SOL    HW277792  12.110   5.954   3.168 -0.8799  0.8137  0.1993
57063SOL     OW77793   1.629   4.919   5.573  0.1885 -0.7949 -0.2883
57063SOL    HW177794   1.664   4.836   5.605 -0.1572 -0.4440  1.0417
57063SOL    HW277795   1.538   4.900   5.553  0.2626 -0.8735 -0.5633
57064SOL     OW77796   8.834   8.948   7.032  0.2175  0.1684 -0.1108
57064SOL    HW177797   8.743   8.956   7.006  0.0926  0.0348  0.2826
57064SOL    HW277798   8.834   8.966   7.126  0.3303 -1.6199  0.2579
57065SOL     OW77799  12.388   3.771   0.794  0.2097 -0.3052 -0.4924
57065SOL    HW177800  12.350   3.684   0.787  1.5170 -0.9202 -0.1534
57065SOL    HW277801  12.393   3.802   0.703  0.0580 -0.7160 -0.6440
57066SOL     OW77802   5.179   9.891   9.544 -0.8294  0.3852  0.3031
57066SOL    HW177803   5.149   9.825   9.606 -1.7595  1.2346  0.7904
57066SOL    HW277804   5.149   9.860   9.458  0.9041 -1.0541  0.1606
57067SOL     OW77805  12.546   6.034  10.354 -0.0476 -0.9857  0.4843
57067SOL    HW177806  12.523   6.056  10.264  0.3844  0.0442  0.6094
57067SOL    HW277807  12.602   6.106  10.383  0.4386 -1.6749  1.3307
57068SOL     OW77808   5.471   7.268   5.312 -0.5380 -0.5490 -0.4613
57068SOL    HW177809   5.481   7.333   5.381 -0.0241 -1.4528  0.3328
57068SOL    HW277810   5.560   7.236   5.295 -0.7884 -1.1055 -0.7796
57069SOL     OW77811   6.378   6.653   4.564 -0.5682  0.1897  0.4058
57069SOL    HW177812   6.298   6.699   4.538 -1.1442 -0.0817  1.6129
57069SOL    HW277813   6.430   6.648   4.484 -1.6896  0.5119 -0.3684
57070SOL     OW77814   6.082   1.048   7.025  0.0043  0.0181  0.4102
57070SOL    HW177815   6.060   1.123   6.969  0.4864  1.9347  2.6462
57070SOL    HW277816   6.015   0.983   7.004 -1.1163  1.4797 -0.8264
57071SOL     OW77817   3.546  11.993   8.926  0.0165 -0.3037  0.0632
57071SOL    HW177818   3.472  11.933   8.919  0.6194 -0.8989 -2.0441
57071SOL    HW277819   3.523  12.066   8.868  0.4978  0.1491  0.4319
57072SOL     OW77820   9.021   8.450   6.433 -0.0200  0.3407 -0.4179
57072SOL    HW177821   9.045   8.444   6.526 -1.7671  0.2501  0.0489
57072SOL    HW277822   9.097   8.413   6.387  0.4770 -0.5119  1.0190
57073SOL     OW77823   4.540   6.097   2.549 -0.0250  0.0850  0.2423
57073SOL    HW177824   4.518   6.007   2.572 -3.1157  0.3009 -1.3255
57073SOL    HW277825   4.496   6.112   2.465 -0.4490  3.3206  0.9079
57074SOL     OW77826   5.375   6.484   5.358  0.2102  0.6887 -0.1062
57074SOL    HW177827   5.389   6.498   5.452  0.7829  1.0096 -0.2398
57074SOL    HW277828   5.461   6.496   5.318 -0.4415  3.2042 -0.9957
57075SOL     OW77829   9.758   1.130  11.502 -0.2292  0.1323  0.1773
57075SOL    HW177830   9.706   1.193  11.452 -1.7152 -1.2953 -0.1678
57075SOL    HW277831   9.845   1.134  11.464 -0.2203  2.1139  0.3178
57076SOL     OW77832   4.522   4.866   8.471 -0.4044 -0.2609 -0.4515
57076SOL    HW177833   4.536   4.880   8.377  2.5535 -1.4339 -0.2963
57076SOL    HW277834   4.591   4.916   8.513 -0.3003 -1.5390  0.9684
57077SOL     OW77835   7.661   9.455   9.136  0.1236 -0.4493  0.0200
57077SOL    HW177836   7.689   9.528   9.191  0.0403 -0.4950  0.1212
57077SOL    HW277837   7.565   9.459   9.138  0.0978 -1.1507  0.8123
57078SOL     OW77838   4.858  10.620   4.688 -0.2197 -0.0627  0.0612
57078SOL    HW177839   4.914  10.697   4.690 -0.7999  0.3677  0.0048
57078SOL    HW277840   4.868  10.585   4.600  0.1584 -0.1398  0.1325
57079SOL     OW77841   7.124   9.146   7.134  0.3367 -0.3394  0.0053
57079SOL    HW177842   7.101   9.198   7.211  0.5526 -0.5184  0.1931
57079SOL    HW277843   7.095   9.199   7.059  0.8232  0.1898  0.1820
57080SOL     OW77844   0.798  10.025   0.765 -0.5720 -0.5204 -0.7685
57080SOL    HW177845   0.720  10.079   0.775 -1.5325 -2.0744  0.7205
57080SOL    HW277846   0.772   9.939   0.799  2.1674 -0.7249  1.1689
57081SOL     OW77847   2.881   1.243   0.729 -0.2184  0.2611 -0.3255
57081SOL    HW177848   2.928   1.239   0.813 -3.0164  1.1277  1.4258
57081SOL    HW277849   2.940   1.291   0.671  2.2908 -1.3164  0.7275
57082SOL     OW77850   9.525   9.244   2.848  0.1069 -0.3477  0.6648
57082SOL    HW177851   9.431   9.254   2.863  0.2265  0.2177  1.0951
57082SOL    HW277852   9.561   9.331   2.866  0.7676 -0.6799  0.9742
57083SOL     OW77853   1.795   5.098   0.627  0.2370  0.6752 -0.3611
57083SOL    HW177854   1.806   5.143   0.711 -0.3846 -2.0073  1.2619
57083SOL    HW277855   1.883   5.069   0.604  0.0498 -0.8891  0.7838
57084SOL     OW77856   2.444  12.123   5.502 -0.6860  0.5955 -0.0282
57084SOL    HW177857   2.475  12.038   5.470 -2.5885 -0.1558 -0.0389
57084SOL    HW277858   2.473  12.127   5.593 -1.7348 -0.7313  0.4042
57085SOL     OW77859   7.387   7.196   0.442  0.5417 -0.2845 -0.3978
57085SOL    HW177860   7.367   7.178   0.350  1.2885 -0.1769 -0.5836
57085SOL    HW277861   7.409   7.289   0.445  0.7466 -0.3396 -0.1464
57086SOL     OW77862  11.003   0.763   7.013  0.1235  0.1989 -0.1139
57086SOL    HW177863  11.038   0.674   7.012  1.1630  0.6017 -0.4867
57086SOL    HW277864  11.069   0.816   6.967 -1.3616  0.8220 -1.6723
57087SOL     OW77865   7.781   5.100   4.559  0.0587  0.0003 -0.3016
57087SOL    HW177866   7.735   5.018   4.579 -0.6413  0.9452  2.4013
57087SOL    HW277867   7.869   5.071   4.534 -0.2937 -1.6079  0.1585
57088SOL     OW77868   9.446   8.421   5.094  0.2046  0.1239 -0.1323
57088SOL    HW177869   9.487   8.417   5.007  2.3107  1.0444  0.7406
57088SOL    HW277870   9.478   8.343   5.139  0.0126  0.2171  0.1653
57089SOL     OW77871  11.362  11.877   1.476  0.0824  0.3373  0.0165
57089SOL    HW177872  11.405  11.810   1.422  0.3619 -0.1433  0.8160
57089SOL    HW277873  11.358  11.838   1.563 -1.5029  0.5981  0.0821
57090SOL     OW77874   6.220   0.508  12.584  0.2445 -0.0070  0.1465
57090SOL    HW177875   6.281   0.529  12.655  3.0080  0.2926 -2.1351
57090SOL    HW277876   6.199   0.592  12.545  2.3253 -0.3888 -2.0255
57091SOL     OW77877  11.226   4.406  10.952  0.0683 -0.0181  0.0815
57091SOL    HW177878  11.195   4.427  10.864  1.3314  1.0204 -0.1599
57091SOL    HW277879  11.274   4.324  10.942  1.3375  0.7592 -0.5096
57092SOL     OW77880  10.505   9.155   7.850  0.3232 -0.4331 -0.4519
57092SOL    HW177881  10.493   9.063   7.874  0.3887 -0.1759  0.6483
57092SOL    HW277882  10.568   9.188   7.914  0.6916  0.2578 -1.1539
57093SOL     OW77883   1.262   6.376   6.375 -0.2881 -0.2633  0.0990
57093SOL    HW177884   1.174   6.344   6.355  0.7398 -2.3083 -1.5484
57093SOL    HW277885   1.292   6.319   6.446  0.5056 -1.1526 -0.9111
57094SOL     OW77886   4.110   0.717  12.454  1.0266  0.0551 -0.4085
57094SOL    HW177887   4.168   0.782  12.494  1.8199 -1.2409  0.6596
57094SOL    HW277888   4.054   0.688  12.526  0.6629 -0.4102 -0.8789
57095SOL     OW77889   8.605   4.265   3.064 -0.0720 -0.3581  0.4046
57095SOL    HW177890   8.643   4.337   3.013 -2.1060 -0.2241 -1.0805
57095SOL    HW277891   8.602   4.191   3.003  0.6529 -1.2852  1.4578
57096SOL     OW77892   1.023   3.347   2.082 -0.0875  0.0803  0.3847
57096SOL    HW177893   0.991   3.257   2.073  0.3390  0.0771 -1.7174
57096SOL    HW277894   1.118   3.338   2.087 -0.1400  0.3304  2.1066
57097SOL     OW77895   4.876   6.687   1.685 -0.6389 -0.6114 -0.5281
57097SOL    HW177896   4.967   6.709   1.707 -0.4280  0.4797 -2.3262
57097SOL    HW277897   4.876   6.591   1.676  0.4254 -0.5917 -0.8669
57098SOL     OW77898   6.096   1.724   4.300  0.3026  0.2117 -0.1587
57098SOL    HW177899   6.112   1.680   4.217 -0.2419 -0.5096  0.1085
57098SOL    HW277900   6.119   1.816   4.283  1.6805 -0.1936 -0.6592
57099SOL     OW77901  12.250  10.211   8.716 -0.0015 -0.1277  0.6055
57099SOL    HW177902  12.184  10.185   8.651 -2.9435  0.3368  3.1320
57099SOL    HW277903  12.252  10.306   8.711  1.0604 -0.1642  0.0892
57100SOL     OW77904   2.673   9.723   3.455  0.2677 -0.1139 -0.5531
57100SOL    HW177905   2.692   9.641   3.500 -2.4262  0.4554  1.9723
57100SOL    HW277906   2.592   9.707   3.407 -0.1111  0.9422 -0.3074
57101SOL     OW77907   7.760   5.991   0.527 -0.1769  0.3485 -0.1015
57101SOL    HW177908   7.681   6.022   0.572 -0.5044  2.4792 -1.9788
57101SOL    HW277909   7.826   6.058   0.544  1.0889 -1.0937  0.9096
57102SOL     OW77910   3.289   0.137   7.351 -0.2296  0.5038  0.3909
57102SOL    HW177911   3.277   0.196   7.276 -0.2116  0.0363  0.0190
57102SOL    HW277912   3.319   0.195   7.422 -2.2192  1.3161  0.6464
57103SOL     OW77913   2.986   3.636   0.508 -0.1619  0.9119  0.0440
57103SOL    HW177914   2.971   3.556   0.458  2.6967 -0.7167  1.5742
57103SOL    HW277915   2.973   3.706   0.444 -1.4281 -0.7813 -1.6757
57104SOL     OW77916   7.820   8.478   0.836 -0.3632  0.0486  0.7059
57104SOL    HW177917   7.738   8.467   0.885 -0.9458 -0.8564 -0.4197
57104SOL    HW277918   7.793   8.517   0.753  0.4640  0.5219  0.6477
57105SOL     OW77919  10.704  11.842   1.119 -0.3698  0.2529 -0.5163
57105SOL    HW177920  10.767  11.826   1.049 -1.6592 -2.0922 -1.2513
57105SOL    HW277921  10.621  11.857   1.074 -0.9065  0.3960  0.4857
57106SOL     OW77922   0.252   0.009  12.548 -0.4505  0.4023  0.2169
57106SOL    HW177923   0.316  -0.040  12.601  0.9493  0.0757 -1.6397
57106SOL    HW277924   0.260   0.099  12.578 -0.3211  0.0933  1.1401
57107SOL     OW77925   2.270  12.583  10.722 -0.0778 -0.2530  0.2321
57107SOL    HW177926   2.198  12.530  10.687  0.9026 -1.2316 -0.3583
57107SOL    HW277927   2.309  12.625  10.646  1.2984 -1.4308  0.2294
57108SOL     OW77928   5.489   0.024   5.481 -0.4229  0.0823  0.0243
57108SOL    HW177929   5.429   0.092   5.452  0.6278  0.8752 -0.3539
57108SOL    HW277930   5.445  -0.058   5.458 -1.7792  0.6058  0.6338
57109SOL     OW77931  11.402  11.977  12.256 -0.1072 -0.2153  0.7678
57109SOL    HW177932  11.325  11.928  12.283 -2.1164  2.3095  0.1014
57109SOL    HW277933  11.450  11.917  12.199 -0.3425 -2.6166  2.9111
57110SOL     OW77934   9.728   5.151   1.204 -0.2306 -0.4503 -0.3159
57110SOL    HW177935   9.670   5.088   1.160  0.4329 -1.4361  0.1910
57110SOL    HW277936   9.689   5.163   1.291  0.8262 -1.8823  0.3925
57111SOL     OW77937   0.543  12.412   9.646  0.4303  0.3932 -0.4349
57111SOL    HW177938   0.502  12.401   9.732  0.4178  0.4912 -0.4286
57111SOL    HW277939   0.598  12.335   9.636 -2.1675 -1.4477 -1.7927
57112SOL     OW77940   5.465   0.645   7.239 -0.2486 -0.0743 -0.6116
57112SOL    HW177941   5.559   0.663   7.242  0.0279 -1.3584  1.9934
57112SOL    HW277942   5.458   0.560   7.195 -0.0224 -0.5790  0.2961
57113SOL     OW77943   4.425  11.121   4.973  0.5354  0.3221  0.3840
57113SOL    HW177944   4.512  11.090   4.947  0.8801  2.2611 -1.0246
57113SOL    HW277945   4.439  11.212   4.998 -1.1296  0.7328 -0.0726
57114SOL     OW77946   0.547   2.612   6.839 -0.5580  0.2076  0.3260
57114SOL    HW177947   0.548   2.547   6.769  1.0406 -0.9004  1.3128
57114SOL    HW277948   0.601   2.684   6.806 -0.6054  0.1173  0.0486
57115SOL     OW77949   6.413   7.901   8.836  0.3101 -0.7005 -0.0246
57115SOL    HW177950   6.437   7.993   8.841 -0.0054 -0.6378  0.4304
57115SOL    HW277951   6.449   7.871   8.752  1.0036 -0.3405  0.1414
57116SOL     OW77952  12.329   8.802   2.907  0.2485  0.6017  0.4238
57116SOL    HW177953  12.356   8.742   2.837  0.5078  0.7168  0.4244
57116SOL    HW277954  12.326   8.888   2.865 -1.2922  0.4220  0.1231
57117SOL     OW77955   5.534  10.407   3.844  0.4744 -0.1119 -0.0803
57117SOL    HW177956   5.478  10.329   3.845  0.1314  0.1359 -0.0827
57117SOL    HW277957   5.618  10.376   3.877  0.8288 -0.8633 -1.5892
57118SOL     OW77958   3.538   9.337   1.292 -0.1346  0.1413 -0.7515
57118SOL    HW177959   3.561   9.317   1.201  0.7005  1.5316 -0.8741
57118SOL    HW277960   3.459   9.391   1.285  1.0348  1.9448 -0.8260
57119SOL     OW77961   7.074   4.460  10.040  0.6779 -0.1397 -0.2155
57119SOL    HW177962   7.097   4.549  10.064 -1.3097  0.4039 -0.1321
57119SOL    HW277963   7.044   4.467   9.949  2.2825 -1.0930 -0.8701
57120SOL     OW77964   9.019   3.516  12.606 -0.4544  0.1953  0.1481
57120SOL    HW177965   9.076   3.591  12.592  1.0368 -1.0464 -0.7303
57120SOL    HW277966   8.934   3.554  12.629  0.4022  2.1132  0.2969
57121SOL     OW77967   1.264   3.237   5.304 -0.1055 -0.3239 -0.3014
57121SOL    HW177968   1.245   3.331   5.315 -1.2342 -0.6425  0.7628
57121SOL    HW277969   1.270   3.225   5.210  0.6260  0.9203 -0.4414
57122SOL     OW77970  11.673   8.784   0.920  0.1468  0.2642 -0.2632
57122SOL    HW177971  11.760   8.745   0.924  0.3301  0.7738  2.2618
57122SOL    HW277972  11.670   8.843   0.995 -1.5912  1.9866 -1.6063
57123SOL     OW77973  10.503  10.663   5.001 -0.4798 -0.1132 -0.7610
57123SOL    HW177974  10.510  10.747   5.046 -0.7562  0.0238 -0.9742
57123SOL    HW277975  10.419  10.666   4.955 -1.1833 -1.0913  0.4070
57124SOL     OW77976  11.939  10.211   2.174 -0.0245 -0.0152  0.0818
57124SOL    HW177977  11.988  10.129   2.171  0.7162  0.4374 -1.4814
57124SOL    HW277978  11.924  10.227   2.267  3.6432  0.2430  0.7890
57125SOL     OW77979   4.034   6.403   1.379  0.6102 -0.2578  0.1150
57125SOL    HW177980   4.038   6.328   1.439  0.9616 -0.0552  0.3490
57125SOL    HW277981   3.956   6.451   1.406  1.4362  0.5114  1.2365
57126SOL     OW77982   1.856   3.106   5.074  0.0726 -0.1349 -0.4639
57126SOL    HW177983   1.762   3.118   5.088 -0.3996 -1.8163 -1.8266
57126SOL    HW277984   1.885   3.051   5.147  0.1791  0.9897  0.3622
57127SOL     OW77985   7.290   8.706   8.738 -0.3849  0.0856  0.4157
57127SOL    HW177986   7.256   8.726   8.825 -0.4123  2.5879 -0.1124
57127SOL    HW277987   7.381   8.736   8.739 -0.0109 -0.9383 -0.0983
57128SOL     OW77988   1.104  10.230  10.510 -0.3564  0.0311  0.6369
57128SOL    HW177989   1.032  10.167  10.508 -0.1487 -0.2908  2.1652
57128SOL    HW277990   1.090  10.280  10.591  0.8196  0.3491  0.6565
57129SOL     OW77991   4.521  11.402   5.540 -0.0980  0.4058 -1.0341
57129SOL    HW177992   4.467  11.342   5.489 -0.0434  1.7903 -2.7924
57129SOL    HW277993   4.586  11.345   5.582 -1.0719 -0.9372 -1.2804
57130SOL     OW77994   3.597   5.307  10.009  0.7769  0.2332 -0.5945
57130SOL    HW177995   3.663   5.375  10.021  0.9409 -0.4405  3.9152
57130SOL    HW277996   3.647   5.228   9.990  1.0574  0.2751 -0.0493
57131SOL     OW77997   0.430   1.102   7.771  0.8378  0.4597  0.5355
57131SOL    HW177998   0.515   1.110   7.729  0.3591  1.5314 -0.2763
57131SOL    HW277999   0.371   1.075   7.701  0.3225  0.7586  0.8487
57132SOL     OW78000   3.788   1.136  11.156 -0.7581  0.2934 -0.2141
57132SOL    HW178001   3.778   1.062  11.095 -0.4971  0.8420 -0.9368
57132SOL    HW278002   3.795   1.213  11.099  1.8221  0.6007  0.3765
57133SOL     OW78003   4.347  12.558   3.864  0.4998  0.0812  0.3747
57133SOL    HW178004   4.384  12.565   3.952  1.5725 -1.6393  0.1044
57133SOL    HW278005   4.279  12.491   3.872  0.8085 -0.3028 -0.1619
57134SOL     OW78006   7.730  11.816   2.822  0.2058 -0.9026 -0.3059
57134SOL    HW178007   7.686  11.739   2.786 -0.7762 -1.4787  1.9858
57134SOL    HW278008   7.715  11.884   2.756 -0.6499 -2.1401 -1.4532
57135SOL     OW78009   3.160   2.882   5.496 -0.2420  0.6499 -0.2457
57135SOL    HW178010   3.222   2.864   5.567  0.5629 -0.7306 -1.2421
57135SOL    HW278011   3.182   2.971   5.467 -1.2816  1.6597  1.8616
57136SOL     OW78012   5.219  12.547   0.826 -0.2208  0.0229 -0.3986
57136SOL    HW178013   5.295  12.491   0.840  0.6825  1.0958 -0.8545
57136SOL    HW278014   5.144  12.488   0.832  0.7351 -1.4594 -1.9709
57137SOL     OW78015  10.892   3.222   2.209  0.3722  0.3186  0.7062
57137SOL    HW178016  10.804   3.260   2.217  0.2270 -0.3339  3.3387
57137SOL    HW278017  10.881   3.145   2.155 -1.0652 -0.6261  2.2415
57138SOL     OW78018   7.424   6.140   6.540 -0.3118 -0.2163 -0.0999
57138SOL    HW178019   7.379   6.221   6.515 -2.2348 -0.6414  1.6993
57138SOL    HW278020   7.497   6.169   6.594  0.6651  0.4052 -1.6759
57139SOL     OW78021   7.702  10.923   3.539 -0.2032  0.3859  0.2907
57139SOL    HW178022   7.690  10.997   3.599  0.4864  0.4038  0.4132
57139SOL    HW278023   7.792  10.932   3.508  0.1683 -0.8688  0.9495
57140SOL     OW78024   9.290  11.578   5.034  1.0283 -0.1654 -0.3400
57140SOL    HW178025   9.374  11.532   5.026  0.7801 -1.0741  1.8354
57140SOL    HW278026   9.262  11.563   5.124 -1.2665  0.5144 -0.8731
57141SOL     OW78027   7.168   6.719  11.239  0.0407 -0.3878 -0.2700
57141SOL    HW178028   7.255   6.695  11.207 -0.4380 -1.9515 -0.4918
57141SOL    HW278029   7.108   6.686  11.172 -0.6812  2.2272 -1.0052
57142SOL     OW78030   6.607   0.328  10.944  0.1801 -0.0712  0.0990
57142SOL    HW178031   6.667   0.300  11.013  1.5480 -0.3686 -1.1573
57142SOL    HW278032   6.580   0.246  10.902  0.6760  0.1981 -0.7610
57143SOL     OW78033   7.277  11.752  10.895 -0.0058  0.2042 -0.4033
57143SOL    HW178034   7.205  11.714  10.944  0.2481  1.4302  0.9830
57143SOL    HW278035   7.235  11.798  10.822 -0.6820  1.1444  0.5485
57144SOL     OW78036  12.363   3.669   4.725 -0.0633  0.5353 -1.0004
57144SOL    HW178037  12.283   3.671   4.672 -0.8636  2.0253  0.1713
57144SOL    HW278038  12.368   3.579   4.758  0.2610 -0.3258 -3.2482
57145SOL     OW78039  11.586   0.624   3.562  0.6376  0.1346  0.1230
57145SOL    HW178040  11.680   0.613   3.570  0.5993  0.6378  1.4203
57145SOL    HW278041  11.576   0.698   3.501  1.0443 -0.4515 -0.6781
57146SOL     OW78042   6.240   6.807   1.194 -0.2389  0.4461  0.1723
57146SOL    HW178043   6.296   6.857   1.134  1.2830  0.6057  1.6242
57146SOL    HW278044   6.172   6.869   1.220 -0.6546  0.5132 -1.0198
57147SOL     OW78045  10.885   2.880   9.148 -0.4543 -0.1250 -0.6129
57147SOL    HW178046  10.840   2.932   9.081 -1.4249 -0.2551 -0.0849
57147SOL    HW278047  10.851   2.915   9.231 -0.7293 -1.2638 -0.2386
57148SOL     OW78048  11.931   8.255   7.655  0.5057  1.1565 -0.2741
57148SOL    HW178049  11.866   8.282   7.591  0.6482  0.2861 -0.7909
57148SOL    HW278050  11.994   8.327   7.656  0.0593  1.5617 -0.4775
57149SOL     OW78051   6.912  11.675   1.401 -0.7471  0.2554 -0.1604
57149SOL    HW178052   6.980  11.608   1.385 -1.1734 -0.3251  0.4231
57149SOL    HW278053   6.940  11.749   1.348  0.2534 -0.0406 -0.0846
57150SOL     OW78054   4.924   4.766   3.260  0.1573  0.3024 -0.1925
57150SOL    HW178055   4.869   4.755   3.338  0.9722 -3.0288  0.0520
57150SOL    HW278056   4.862   4.790   3.191 -1.3296 -1.0995  0.5576
57151SOL     OW78057   4.630   5.665   2.293  0.0431  0.3542  0.1268
57151SOL    HW178058   4.705   5.725   2.294  0.9008 -0.6790  0.8269
57151SOL    HW278059   4.669   5.579   2.280 -1.3158  0.0931 -3.3048
57152SOL     OW78060   0.686   1.781   1.009 -0.6182  0.2265  0.3884
57152SOL    HW178061   0.614   1.825   0.963 -2.0246 -0.5657  1.7131
57152SOL    HW278062   0.652   1.766   1.097  0.9318 -0.8028  0.8522
57153SOL     OW78063  12.462  10.007  10.016 -0.4508  0.8515  0.1356
57153SOL    HW178064  12.382  10.056   9.998  0.2736  1.4012 -1.7890
57153SOL    HW278065  12.447   9.921   9.976  0.4917  1.4774 -1.6157
57154SOL     OW78066   5.392   4.551   6.376  0.5764  0.0430  0.0440
57154SOL    HW178067   5.438   4.608   6.314  0.0328  1.9154  1.2871
57154SOL    HW278068   5.461   4.494   6.411  1.2719  0.3812 -0.7358
57155SOL     OW78069  10.756   6.677   8.795  0.3668 -0.2216  0.4249
57155SOL    HW178070  10.798   6.751   8.751 -2.1135  1.1011  0.0833
57155SOL    HW278071  10.671   6.669   8.753  0.7402 -3.7481  0.0359
57156SOL     OW78072   8.525  10.037   7.639 -0.0621  0.1429 -0.5012
57156SOL    HW178073   8.542  10.007   7.550 -1.8674  0.3078 -0.9341
57156SOL    HW278074   8.597  10.001   7.691  0.6967 -0.4374 -1.9187
57157SOL     OW78075   0.847  11.151   4.826  0.1035 -0.1954 -0.1092
57157SOL    HW178076   0.793  11.197   4.762 -0.2500 -0.0370  0.2995
57157SOL    HW278077   0.935  11.187   4.813  0.2413 -0.9053 -1.1955
57158SOL     OW78078   1.947   9.565   3.674 -0.2195  0.4471 -0.0628
57158SOL    HW178079   1.950   9.493   3.737  0.0461  1.4074  1.0634
57158SOL    HW278080   1.857   9.598   3.679  0.3926  1.9953  1.5712
57159SOL     OW78081  10.784   1.163  12.082  0.6399 -0.0682 -0.9788
57159SOL    HW178082  10.783   1.222  12.158 -0.6054 -1.0177 -0.2189
57159SOL    HW278083  10.757   1.219  12.009  0.5175  0.5558 -0.4701
57160SOL     OW78084  11.346   8.036   7.535 -0.2306 -0.3643 -0.4966
57160SOL    HW178085  11.309   7.954   7.504 -6.8722  1.0063  2.1469
57160SOL    HW278086  11.386   8.015   7.619 -1.5078 -1.0521 -0.0413
57161SOL     OW78087  11.172   4.988   2.485 -0.2907  0.4626 -0.6134
57161SOL    HW178088  11.266   4.980   2.505 -0.1102  1.4773 -1.0379
57161SOL    HW278089  11.167   5.059   2.421 -1.3190  0.1696 -0.8667
57162SOL     OW78090   7.589  12.241   0.275  0.0147 -0.1641 -0.0132
57162SOL    HW178091   7.640  12.212   0.351 -1.2935 -1.9328  0.2520
57162SOL    HW278092   7.541  12.318   0.306  1.8275  1.0479 -0.0366
57163SOL     OW78093   1.083   3.301   8.456  0.2282 -0.4604  0.1211
57163SOL    HW178094   1.047   3.386   8.480 -0.9200 -0.9005 -0.0119
57163SOL    HW278095   1.168   3.298   8.501  1.6871  1.9669 -2.1904
57164SOL     OW78096   6.317  11.960   1.189 -0.3456 -0.1040 -0.0037
57164SOL    HW178097   6.319  11.878   1.239  1.4343 -1.1891 -1.7036
57164SOL    HW278098   6.276  11.936   1.106  0.6107  0.5826 -0.6950
57165SOL     OW78099   3.516   0.314   2.688 -0.0550 -0.0293 -0.4464
57165SOL    HW178100   3.554   0.381   2.631 -0.1436 -0.5100 -1.0802
57165SOL    HW278101   3.536   0.231   2.645  0.0299 -0.4115  0.3211
57166SOL     OW78102   8.460   0.458   9.234  0.0525  0.3206 -0.7300
57166SOL    HW178103   8.466   0.368   9.268  0.6136 -0.3072 -2.3930
57166SOL    HW278104   8.374   0.462   9.192  0.3226  0.3259 -1.2851
57167SOL     OW78105   7.829   9.640   5.527  0.1052 -0.0895 -0.4111
57167SOL    HW178106   7.922   9.650   5.508 -0.3510  2.9593 -1.6102
57167SOL    HW278107   7.826   9.620   5.621  1.9481  1.0815 -0.0432
57168SOL     OW78108   7.706   3.795  10.643 -0.4276  0.3754 -0.2000
57168SOL    HW178109   7.710   3.767  10.551  0.2444  0.4889 -0.2087
57168SOL    HW278110   7.663   3.723  10.689  1.0504 -0.5733 -0.2608
57169SOL     OW78111   9.571   8.975   2.927  0.1854  0.7516 -0.7783
57169SOL    HW178112   9.660   8.991   2.958  0.0841  1.4278 -0.8233
57169SOL    HW278113   9.540   9.061   2.897 -0.9278  0.8049  0.4064
57170SOL     OW78114   5.376   6.344   0.223 -0.5511 -0.3966  0.0098
57170SOL    HW178115   5.386   6.432   0.187 -0.5099 -0.3161  0.2165
57170SOL    HW278116   5.380   6.356   0.318 -0.6644 -0.6066  0.0426
57171SOL     OW78117  12.552   5.844   9.305  0.2858  0.1783  0.1091
57171SOL    HW178118  12.642   5.830   9.334  0.4291 -0.7025 -0.6843
57171SOL    HW278119  12.533   5.935   9.327  0.8239 -0.0741  1.7025
57172SOL     OW78120   2.475   8.214  10.718  0.0076  0.3923 -0.1960
57172SOL    HW178121   2.548   8.270  10.695  0.5566 -0.5323 -0.7708
57172SOL    HW278122   2.432   8.258  10.791  1.1055  0.9653  0.1114
57173SOL     OW78123   4.805   6.679   6.084 -0.3538  0.9334  0.1096
57173SOL    HW178124   4.821   6.736   6.009  0.4341  0.9547  0.2831
57173SOL    HW278125   4.726   6.629   6.060 -1.2354  2.3028  0.0912
57174SOL     OW78126   9.343  10.160   7.290 -0.1769 -0.4612  0.3473
57174SOL    HW178127   9.334  10.233   7.229 -1.8595  0.7454  1.9196
57174SOL    HW278128   9.435  10.161   7.316  0.8949 -1.7932 -2.9841
57175SOL     OW78129   2.161  12.135  12.755 -0.1136  0.4195  0.1024
57175SOL    HW178130   2.191  12.217  12.794  2.7523 -1.0519  1.2705
57175SOL    HW278131   2.088  12.107  12.811  0.1256  1.2311  0.8416
57176SOL     OW78132   3.991   4.127   2.090 -0.2572  0.5860 -0.0315
57176SOL    HW178133   3.990   4.145   2.184 -1.0492  0.0476  0.0729
57176SOL    HW278134   4.014   4.211   2.050 -0.8305  1.0542  0.6004
57177SOL     OW78135  11.791   7.335  10.005  0.1921  0.2766 -0.2328
57177SOL    HW178136  11.815   7.331  10.098  0.3817 -0.4286 -0.3010
57177SOL    HW278137  11.874   7.347   9.960  0.1983 -0.1568 -0.3487
57178SOL     OW78138   7.836   0.133   0.622  0.5843  0.0465 -0.0209
57178SOL    HW178139   7.830   0.222   0.586  0.1797  1.0087  2.2515
57178SOL    HW278140   7.745   0.102   0.625  0.4394  0.5482  1.4297
57179SOL     OW78141  12.285   7.885  10.128  0.6252  0.1126  0.6923
57179SOL    HW178142  12.290   7.924  10.216  0.7520 -0.5521  0.9872
57179SOL    HW278143  12.299   7.958  10.068  1.5751  0.3931  1.2498
57180SOL     OW78144   2.131   0.009   6.304  0.2047  0.1740  0.1328
57180SOL    HW178145   2.219  -0.029   6.300  0.4976  0.8907 -0.5011
57180SOL    HW278146   2.137   0.089   6.252 -0.7182  0.4499  0.4330
57181SOL     OW78147   1.002  12.744  10.499  0.0613 -0.2616 -0.1199
57181SOL    HW178148   0.961  12.812  10.446  1.5655  1.4099  0.7712
57181SOL    HW278149   0.987  12.771  10.589 -1.2480 -2.3378  0.3720
57182SOL     OW78150  10.986   4.117  12.456 -0.2502  0.0165  0.6289
57182SOL    HW178151  11.010   4.182  12.522 -0.6918  0.7051  0.1325
57182SOL    HW278152  10.990   4.033  12.501  1.1486  0.2949  1.0681
57183SOL     OW78153   1.934   8.586   7.057  0.0192  0.5922 -0.6368
57183SOL    HW178154   1.908   8.603   6.967 -0.6590  0.0942 -0.5428
57183SOL    HW278155   2.005   8.522   7.050  0.6595  1.3123 -0.8556
57184SOL     OW78156   0.181   2.667   0.798  0.2540  0.0567 -0.1398
57184SOL    HW178157   0.140   2.721   0.730  1.9368  1.3816 -0.1643
57184SOL    HW278158   0.155   2.708   0.880  1.0340  0.5567 -0.1350
57185SOL     OW78159   5.478   1.299  12.124 -1.1475 -0.1809 -0.3051
57185SOL    HW178160   5.462   1.377  12.176 -2.5241  0.5877 -1.7746
57185SOL    HW278161   5.454   1.226  12.182  1.4040  0.3129  1.5425
57186SOL     OW78162   7.405   9.374  11.213 -0.0648 -0.0826  0.6876
57186SOL    HW178163   7.355   9.344  11.290 -1.3858 -1.2976 -0.5761
57186SOL    HW278164   7.475   9.309  11.204  0.5603  0.4928  1.2871
57187SOL     OW78165   9.281   9.435   5.500 -0.1082  0.4102 -0.0024
57187SOL    HW178166   9.188   9.415   5.511 -0.0441 -0.7333 -1.3341
57187SOL    HW278167   9.306   9.477   5.582 -1.4856 -0.4690  0.9066
57188SOL     OW78168   5.547   8.190   7.120 -0.0194  0.0450  0.0396
57188SOL    HW178169   5.509   8.209   7.035 -0.4090 -0.0650  0.1850
57188SOL    HW278170   5.491   8.237   7.182 -2.3535 -3.1380  0.6096
57189SOL     OW78171   8.531   8.818   7.295 -0.0910  0.1829 -0.1707
57189SOL    HW178172   8.546   8.907   7.264  1.8780  0.5592  1.6544
57189SOL    HW278173   8.438   8.802   7.277 -0.4945  2.6000 -0.5732
57190SOL     OW78174   1.444   2.924   8.313 -0.6803  0.1997  0.3093
57190SOL    HW178175   1.480   3.009   8.289  0.9670  0.1265  2.2070
57190SOL    HW278176   1.393   2.940   8.393 -2.2733 -0.2591 -0.5670
57191SOL     OW78177  10.518   2.631   6.668 -0.0425 -0.2002 -0.6718
57191SOL    HW178178  10.451   2.652   6.734 -1.6878  1.3596 -2.7049
57191SOL    HW278179  10.577   2.706   6.669  0.4961 -0.6267 -0.3080
57192SOL     OW78180   9.670   5.566   8.760  0.7299 -0.0926 -0.0150
57192SOL    HW178181   9.709   5.648   8.728 -1.5006  0.5895 -1.1754
57192SOL    HW278182   9.703   5.499   8.701  0.9042  0.3149 -0.3817
57193SOL     OW78183   6.411   0.543   8.022  0.0403  0.0050  0.3880
57193SOL    HW178184   6.473   0.524   8.093  0.1723  1.3126  0.6583
57193SOL    HW278185   6.366   0.460   8.006 -0.0811 -0.3028  2.0969
57194SOL     OW78186  10.593   9.797   5.010  0.0062 -0.1351  0.0418
57194SOL    HW178187  10.616   9.841   4.928  0.6100 -1.6217 -0.6186
57194SOL    HW278188  10.523   9.736   4.985 -0.8988  0.5006  0.9574
57195SOL     OW78189   1.709   3.143  10.086  0.0744 -0.2513 -0.2565
57195SOL    HW178190   1.674   3.057  10.109  0.1313 -0.8903 -2.3015
57195SOL    HW278191   1.633   3.201  10.088  0.0950 -0.2377  1.4669
57196SOL     OW78192   1.427   6.775  10.578  0.5044 -0.2330  0.3640
57196SOL    HW178193   1.356   6.731  10.625  0.6437 -2.4569 -1.3072
57196SOL    HW278194   1.387   6.855  10.544 -1.4818 -1.6911 -1.0285
57197SOL     OW78195  11.247   4.010   3.191  0.4216  0.0965  0.6407
57197SOL    HW178196  11.319   4.017   3.254  0.9560  2.7968 -0.0909
57197SOL    HW278197  11.172   4.049   3.235  0.5428  1.0971  0.0047
57198SOL     OW78198   4.129   5.888   6.461 -0.3014 -0.1554  0.6412
57198SOL    HW178199   4.158   5.970   6.420  1.2615 -1.1849 -0.4046
57198SOL    HW278200   4.170   5.889   6.548  1.9246 -0.9709 -0.3245
57199SOL     OW78201   9.097   1.324   1.250  0.6924 -0.4772 -0.3979
57199SOL    HW178202   9.175   1.347   1.300 -0.1972 -0.1351  0.8986
57199SOL    HW278203   9.111   1.362   1.164  0.7459  2.0519  0.6609
57200SOL     OW78204   5.956   5.417   4.285 -0.3245 -0.0976 -0.0639
57200SOL    HW178205   6.037   5.467   4.290 -0.2784 -0.1624 -0.1421
57200SOL    HW278206   5.984   5.328   4.262 -0.4602  0.0280 -0.7506
57201SOL     OW78207   5.536   4.277   2.934 -0.7098 -0.3364  0.4306
57201SOL    HW178208   5.497   4.206   2.884 -0.7901 -0.6981  0.9948
57201SOL    HW278209   5.614   4.302   2.884 -0.7149 -0.7850  0.1974
57202SOL     OW78210   7.781   3.407   4.674  0.2024  0.0971 -0.5702
57202SOL    HW178211   7.829   3.363   4.744  0.9299  1.9246  0.1400
57202SOL    HW278212   7.696   3.363   4.673  0.4415 -0.4830  0.9451
57203SOL     OW78213  10.485   3.443   5.113  0.0396 -0.2718 -0.5822
57203SOL    HW178214  10.490   3.348   5.121 -0.4224 -0.3055 -0.6902
57203SOL    HW278215  10.506   3.460   5.021  1.0261 -0.1971 -0.3600
57204SOL     OW78216   1.878  10.993   4.050 -0.3905  0.7261  0.4338
57204SOL    HW178217   1.932  10.930   4.004 -0.3449  1.7438 -0.9655
57204SOL    HW278218   1.907  10.989   4.141  0.9750  0.1654 -0.0135
57205SOL     OW78219   4.411   7.020   2.860 -0.0587  0.0296  0.3837
57205SOL    HW178220   4.431   7.098   2.913 -0.2099 -0.8588  1.8104
57205SOL    HW278221   4.316   7.015   2.859 -0.1658  1.2587 -1.8935
57206SOL     OW78222   1.412   2.733  11.425  0.3441  0.0273 -0.2979
57206SOL    HW178223   1.373   2.691  11.501  0.0411 -0.0920 -0.5170
57206SOL    HW278224   1.505   2.741  11.447  0.6389 -1.8316 -0.7227
57207SOL     OW78225   8.838   5.944   0.132  0.0311 -0.2790  0.5641
57207SOL    HW178226   8.836   5.881   0.061  0.9911  0.8023 -0.4717
57207SOL    HW278227   8.850   5.892   0.211 -0.3801 -1.4554 -0.1308
57208SOL     OW78228   0.088  12.642  11.454 -0.2174  0.2604 -0.0927
57208SOL    HW178229   0.092  12.719  11.512 -1.0551  0.7533 -0.6803
57208SOL    HW278230   0.152  12.661  11.386  0.0802  0.1150  0.1435
57209SOL     OW78231   0.577  12.567   0.889  0.3378  0.7262 -0.3003
57209SOL    HW178232   0.642  12.500   0.864  0.2188  0.6817 -0.4908
57209SOL    HW278233   0.542  12.598   0.805 -0.3532  0.2931 -0.1744
57210SOL     OW78234   5.270  11.440   3.030 -0.7837  0.3699 -0.3681
57210SOL    HW178235   5.180  11.442   2.996 -1.0256 -0.0493  0.2314
57210SOL    HW278236   5.280  11.352   3.066  0.0372  0.2516 -0.8608
57211SOL     OW78237   6.504   4.386   3.367  0.1206  0.2281  0.0656
57211SOL    HW178238   6.585   4.338   3.348 -0.3398 -0.6744  0.3054
57211SOL    HW278239   6.472   4.347   3.449 -0.6780  0.3918 -0.1580
57212SOL     OW78240   7.958   6.113   4.186 -0.1220 -0.7411  0.3475
57212SOL    HW178241   7.901   6.096   4.261 -0.7413  0.1388  0.0791
57212SOL    HW278242   7.911   6.076   4.111 -0.5152  0.3089  0.0724
57213SOL     OW78243   8.313   7.873   8.084  0.4006  0.0170 -0.0619
57213SOL    HW178244   8.327   7.782   8.058  1.1009 -0.2183  1.0572
57213SOL    HW278245   8.322   7.872   8.179  0.4832  1.2746 -0.0404
57214SOL     OW78246   4.241   4.498   3.574  0.3850  0.0070 -0.6754
57214SOL    HW178247   4.328   4.470   3.545  0.8212  0.5594  0.0590
57214SOL    HW278248   4.199   4.417   3.603 -0.3834 -0.7110 -3.5145
57215SOL     OW78249  11.630   2.045   4.308  0.0492  0.5861 -0.0814
57215SOL    HW178250  11.656   2.098   4.384  0.1008  0.6079 -0.1135
57215SOL    HW278251  11.686   1.968   4.312 -2.2102 -1.0908  1.8164
57216SOL     OW78252   9.519  10.203   6.889 -0.2810 -0.4938  0.0825
57216SOL    HW178253   9.587  10.173   6.828 -0.8405 -1.2641 -0.1851
57216SOL    HW278254   9.543  10.293   6.910  1.9460 -1.3447  1.5613
57217SOL     OW78255   2.171   5.910   2.756  0.3693  0.7984  0.3175
57217SOL    HW178256   2.215   5.834   2.793  0.2604 -0.0034 -1.1435
57217SOL    HW278257   2.082   5.905   2.790 -0.6028 -1.6103 -2.2360
57218SOL     OW78258   0.694   0.156   1.142 -0.0720  0.6819 -0.7030
57218SOL    HW178259   0.717   0.153   1.234  1.6251  1.5474 -1.0608
57218SOL    HW278260   0.704   0.066   1.111 -2.0831  0.0777  0.2284
57219SOL     OW78261   9.243   4.887  11.467 -0.0182 -0.5076  0.2835
57219SOL    HW178262   9.220   4.797  11.444  3.5019 -0.6093 -4.2964
57219SOL    HW278263   9.186   4.941  11.411  0.1244 -0.0349  0.5935
57220SOL     OW78264  10.839   1.346   9.072 -0.2621  0.1221 -0.1998
57220SOL    HW178265  10.774   1.286   9.034 -1.4140 -0.2498  2.1844
57220SOL    HW278266  10.916   1.291   9.085 -1.2976 -0.9686  1.9272
57221SOL     OW78267   2.015   2.262   9.613 -0.0560  0.2590  0.6144
57221SOL    HW178268   1.953   2.190   9.618 -0.8228  0.8793  0.2773
57221SOL    HW278269   2.036   2.269   9.520  1.0755 -0.4008  0.8094
57222SOL     OW78270  11.053   2.613   9.770  0.1928 -0.1532 -0.2051
57222SOL    HW178271  11.059   2.542   9.706  2.4580 -0.3027  0.0729
57222SOL    HW278272  10.959   2.625   9.785 -0.3634 -0.8202 -2.7452
57223SOL     OW78273   5.585   2.747   2.161 -0.0633  0.5242 -0.5929
57223SOL    HW178274   5.593   2.698   2.243  0.4944 -0.7162 -1.3578
57223SOL    HW278275   5.491   2.764   2.153  0.0400  2.2901  1.1857
57224SOL     OW78276   7.664   8.538   8.617 -0.1845  0.0894 -0.0422
57224SOL    HW178277   7.579   8.541   8.573  0.0170  0.7788 -0.3979
57224SOL    HW278278   7.728   8.546   8.547  0.1375  2.8477  0.4283
57225SOL     OW78279   1.059   6.561   8.663  0.5537  0.0120 -0.7366
57225SOL    HW178280   1.054   6.583   8.756 -2.6432 -2.2772 -0.2119
57225SOL    HW278281   1.005   6.627   8.620 -1.4948 -1.2842 -0.3146
57226SOL     OW78282   1.214   5.076  11.698 -0.1763 -0.0311  0.0545
57226SOL    HW178283   1.137   5.119  11.661  1.0676  1.6209 -0.7092
57226SOL    HW278284   1.261   5.145  11.744  2.1701 -0.3881 -1.6316
57227SOL     OW78285   2.267   6.641   9.086  0.2589 -0.3647 -0.2880
57227SOL    HW178286   2.213   6.602   9.017 -0.3074 -0.9817  0.4808
57227SOL    HW278287   2.323   6.704   9.040 -0.6262 -0.2158 -1.2008
57228SOL     OW78288   4.339   3.969   9.353  0.0793  0.5612 -0.0949
57228SOL    HW178289   4.402   4.020   9.301  0.4023  0.2275 -0.0306
57228SOL    HW278290   4.254   3.989   9.313  0.4605 -0.8177 -1.6902
57229SOL     OW78291   1.251  12.191   2.247  0.1754  0.9215 -0.2097
57229SOL    HW178292   1.347  12.184   2.246  0.1697  0.6053  0.6104
57229SOL    HW278293   1.224  12.167   2.158  0.7480 -0.6913  0.0266
57230SOL     OW78294   9.441   7.046  12.148 -0.3171 -0.2563 -0.0162
57230SOL    HW178295   9.403   7.090  12.224 -0.1585  0.0003 -0.0829
57230SOL    HW278296   9.531   7.027  12.173  0.0192  0.6771 -0.4786
57231SOL     OW78297   2.149  11.429   3.499 -0.2968  0.2372  0.4229
57231SOL    HW178298   2.101  11.478   3.433 -0.6595 -0.7204 -0.0503
57231SOL    HW278299   2.102  11.345   3.505 -0.0042  0.1411  1.5733
57232SOL     OW78300  10.226   6.460   2.482 -0.0540 -0.2574  0.4374
57232SOL    HW178301  10.134   6.477   2.460  0.0676 -0.8054 -0.5130
57232SOL    HW278302  10.248   6.530   2.544 -0.7652  0.5767 -0.2244
57233SOL     OW78303  10.473   7.049   2.320  0.2085 -0.2996 -0.3889
57233SOL    HW178304  10.444   7.006   2.400 -2.6625 -0.2213 -1.2686
57233SOL    HW278305  10.569   7.050   2.326  0.1146 -0.3263  2.9799
57234SOL     OW78306  11.969  10.290  10.604 -0.3478 -0.2680 -0.0377
57234SOL    HW178307  11.983  10.382  10.583  0.0317 -0.7842 -2.4076
57234SOL    HW278308  11.878  10.273  10.577  0.1218 -0.9505 -1.2645
57235SOL     OW78309   8.185   1.666  11.047 -0.0080 -0.9950  0.2882
57235SOL    HW178310   8.194   1.753  11.008 -0.3543 -0.7865  0.6576
57235SOL    HW278311   8.113   1.625  10.999  0.4745 -1.2647 -0.2103
57236SOL     OW78312   4.881  10.593   0.995  0.1186  0.1638  0.3621
57236SOL    HW178313   4.890  10.674   1.047 -0.2358  0.2876  0.2348
57236SOL    HW278314   4.940  10.606   0.921 -1.2479  1.0844 -0.6103
57237SOL     OW78315   5.827   4.604   1.082 -0.0871 -0.2029  0.2705
57237SOL    HW178316   5.876   4.653   1.148  0.8680 -1.3275  0.4310
57237SOL    HW278317   5.737   4.602   1.114  0.5264 -1.5439  2.0476
57238SOL     OW78318   3.733   1.980   0.796  0.7427  0.4431  0.0568
57238SOL    HW178319   3.789   1.932   0.736  2.6616 -0.1346  2.1592
57238SOL    HW278320   3.714   1.918   0.867 -0.4430  1.4439  0.6621
57239SOL     OW78321   0.289   0.061   0.106  0.0753  0.2097  0.1430
57239SOL    HW178322   0.224  -0.008   0.114  0.5437 -0.3650 -0.8857
57239SOL    HW278323   0.240   0.143   0.117 -0.4196 -0.2657  1.7524
57240SOL     OW78324  12.089  10.910  11.362  0.3526 -0.0577  0.1468
57240SOL    HW178325  12.082  10.819  11.390  0.4598 -0.1986 -0.2682
57240SOL    HW278326  12.012  10.953  11.398 -0.5495 -0.6739 -0.9814
57241SOL     OW78327   3.704   6.978   3.682  0.1416 -0.3561 -0.4036
57241SOL    HW178328   3.687   6.963   3.775 -0.7902  0.6059 -0.3953
57241SOL    HW278329   3.792   6.942   3.668 -0.5452 -2.4755  0.3295
57242SOL     OW78330   3.488   8.864   3.564 -0.2842 -0.2479  0.2256
57242SOL    HW178331   3.506   8.785   3.614 -0.4796 -0.3781  0.0897
57242SOL    HW278332   3.566   8.919   3.578  0.6959 -1.2057 -1.1335
57243SOL     OW78333  10.793   8.835   9.499 -0.7741  0.4739  0.2040
57243SOL    HW178334  10.826   8.908   9.552  1.9223 -0.6866  0.3007
57243SOL    HW278335  10.742   8.783   9.560 -0.6213  0.9810  0.7812
57244SOL     OW78336   0.154   6.011   3.145 -0.9033  0.2254  0.3496
57244SOL    HW178337   0.104   5.988   3.223 -1.1328 -3.4228 -0.6860
57244SOL    HW278338   0.237   5.965   3.155 -0.3409  0.9247 -0.8658
57245SOL     OW78339   8.535   9.301   4.763 -0.1574  0.7761 -0.1353
57245SOL    HW178340   8.616   9.339   4.798  0.8021  0.2267 -1.6500
57245SOL    HW278341   8.467   9.329   4.824  1.4249 -0.3415  2.3382
57246SOL     OW78342   7.846  10.889  12.308 -0.1645 -0.3072  0.2332
57246SOL    HW178343   7.923  10.863  12.258  0.8384 -0.3625  1.7776
57246SOL    HW278344   7.820  10.810  12.355 -2.4624 -0.9112 -1.8057
57247SOL     OW78345   9.812   9.703  11.714 -0.0770  0.1469  0.2754
57247SOL    HW178346   9.775   9.684  11.628  1.1783  0.5270 -0.3705
57247SOL    HW278347   9.736   9.713  11.771 -0.9132 -1.6059 -0.4416
57248SOL     OW78348  10.411   5.098   0.872  0.0516 -0.8407 -0.5086
57248SOL    HW178349  10.463   5.084   0.951 -0.8173 -0.5378  0.1287
57248SOL    HW278350  10.416   5.192   0.856 -0.8966 -0.6928 -0.0093
57249SOL     OW78351  11.465   6.469   7.818  0.4358 -0.3474 -0.5225
57249SOL    HW178352  11.384   6.437   7.779 -0.1531  0.4165  0.0411
57249SOL    HW278353  11.534   6.433   7.763 -0.2609 -1.3430 -0.7788
57250SOL     OW78354   3.072   1.018   6.042  0.6569 -0.1477  0.1492
57250SOL    HW178355   3.167   1.024   6.048  0.6163 -0.6612  1.7660
57250SOL    HW278356   3.043   1.007   6.132 -0.6412 -3.8388 -0.5263
57251SOL     OW78357   3.885   5.454   5.181 -0.2454  0.0794 -0.1193
57251SOL    HW178358   3.850   5.405   5.256  1.4892 -0.3122  0.4960
57251SOL    HW278359   3.820   5.444   5.113 -0.4211 -2.2986  0.3006
57252SOL     OW78360   2.675   6.947   5.186 -0.2122 -0.4866 -0.6775
57252SOL    HW178361   2.762   6.929   5.221 -1.3753 -1.3017  2.0781
57252SOL    HW278362   2.686   7.027   5.135  2.2128 -0.8191 -0.7957
57253SOL     OW78363   0.255   4.278  12.082  0.1024  0.0968  0.0786
57253SOL    HW178364   0.289   4.254  11.996  3.0168  1.6839  0.6526
57253SOL    HW278365   0.296   4.216  12.143 -3.5354 -2.3817  0.3136
57254SOL     OW78366   9.778   2.036   0.664 -0.0818 -0.3148  0.2085
57254SOL    HW178367   9.851   2.001   0.714  0.3527 -2.3058 -1.6605
57254SOL    HW278368   9.725   1.959   0.641 -1.8521  0.8730  0.0775
57255SOL     OW78369   7.606   9.707   4.088 -0.3293 -0.3131 -0.1995
57255SOL    HW178370   7.529   9.762   4.075  0.1684  0.2224 -0.9865
57255SOL    HW278371   7.625   9.672   4.000  0.4859 -0.2205 -0.0668
57256SOL     OW78372   1.807  11.760  12.257 -0.1807 -0.9750  0.1823
57256SOL    HW178373   1.857  11.833  12.293  0.0827 -0.9365 -0.2586
57256SOL    HW278374   1.870  11.711  12.205 -0.0913 -2.1090  1.2966
57257SOL     OW78375   3.564   3.490   5.414 -0.4500 -0.4837 -0.1588
57257SOL    HW178376   3.506   3.495   5.338  0.1676 -0.3784 -0.6278
57257SOL    HW278377   3.646   3.529   5.384  0.5876 -2.5479 -0.1691
57258SOL     OW78378   2.989  10.399   5.294  0.1016  0.1551  0.4585
57258SOL    HW178379   3.048  10.332   5.328  1.4866  0.2972 -1.4523
57258SOL    HW278380   2.901  10.365   5.311  0.7583 -1.4316  0.8804
57259SOL     OW78381  12.693   2.673   1.390 -0.2321  0.3674  0.1852
57259SOL    HW178382  12.731   2.748   1.344 -0.3852  1.1277  1.2669
57259SOL    HW278383  12.729   2.596   1.345 -3.0582  0.9124 -3.5917
57260SOL     OW78384   0.055   1.876  11.924 -0.2200  0.8303 -0.4783
57260SOL    HW178385   0.105   1.847  12.000 -0.8234  0.5200 -0.1957
57260SOL    HW278386  -0.019   1.925  11.960 -1.1893 -0.3531 -0.8015
57261SOL     OW78387   5.839   6.296   1.903 -0.6106 -0.0022 -0.0105
57261SOL    HW178388   5.817   6.368   1.844 -0.1855  0.4155  0.3303
57261SOL    HW278389   5.789   6.221   1.870 -1.4783  0.5782 -0.0439
57262SOL     OW78390   6.733   1.386   9.844 -0.4437  0.3140 -0.0654
57262SOL    HW178391   6.683   1.363   9.922  0.6026  0.8133  0.7712
57262SOL    HW278392   6.783   1.307   9.824 -0.7748  0.1586 -0.2811
57263SOL     OW78393  12.770   2.624   4.211 -0.3482 -0.3973 -0.2394
57263SOL    HW178394  12.702   2.629   4.143  0.1947  0.7694 -0.7171
57263SOL    HW278395  12.840   2.573   4.171 -0.2886 -0.2480 -0.3251
57264SOL     OW78396   2.630   9.273   5.815 -0.0427  0.8087 -0.2670
57264SOL    HW178397   2.642   9.250   5.723 -1.0416 -1.0136  0.0122
57264SOL    HW278398   2.605   9.366   5.813  1.9447  1.3978 -1.6414
57265SOL     OW78399   0.546   6.504   8.107  0.0266  0.4064 -0.4151
57265SOL    HW178400   0.560   6.443   8.034 -0.4334  1.2577 -1.2417
57265SOL    HW278401   0.514   6.584   8.065  1.7854  1.6698  0.4878
57266SOL     OW78402  11.688   8.483   9.905  0.0877  0.8106  0.4278
57266SOL    HW178403  11.727   8.396   9.899 -0.2149  0.4519  2.8323
57266SOL    HW278404  11.637   8.492   9.824 -0.0549 -1.3169  0.2296
57267SOL     OW78405  10.559  12.684  12.551  0.0791 -0.0931 -0.3210
57267SOL    HW178406  10.486  12.734  12.589  0.2088 -1.2055  1.5084
57267SOL    HW278407  10.596  12.742  12.485 -0.5424  1.7354  0.8703
57268SOL     OW78408   6.943  10.297   0.550  0.6562  0.1921 -0.4131
57268SOL    HW178409   6.890  10.219   0.567  1.4744 -0.1062  0.9085
57268SOL    HW278410   6.880  10.369   0.552 -0.0175 -0.3593 -1.0627
57269SOL     OW78411   4.550   7.832  11.494  0.4114  0.0443  0.3344
57269SOL    HW178412   4.605   7.781  11.554  3.4375  1.2436 -1.2024
57269SOL    HW278413   4.488   7.768  11.458 -0.1989 -1.0945  3.1600
57270SOL     OW78414   6.576   0.719  12.115  0.5429 -0.0222  0.9306
57270SOL    HW178415   6.536   0.648  12.166  0.2650 -0.3875  0.2175
57270SOL    HW278416   6.653   0.745  12.166  0.1065 -0.1825  1.6768
57271SOL     OW78417  12.559   2.921   0.124 -0.1393 -0.3860  0.2462
57271SOL    HW178418  12.559   2.927   0.029 -0.6028  1.1634  0.3117
57271SOL    HW278419  12.536   2.830   0.143 -1.1463 -0.4449 -1.1111
57272SOL     OW78420   4.128   5.913   5.155 -0.7226  0.5034 -0.0553
57272SOL    HW178421   4.144   5.926   5.249  1.8761 -1.0797 -0.1792
57272SOL    HW278422   4.082   5.829   5.150  1.8408 -0.9848 -0.2506
57273SOL     OW78423  12.733   0.681   4.285  0.4159  0.5585  0.3086
57273SOL    HW178424  12.752   0.774   4.293  0.8251  0.6889 -1.6075
57273SOL    HW278425  12.809   0.645   4.240 -0.1879 -0.5205  0.1076
57274SOL     OW78426   4.364  10.344   3.028  0.0464  0.0779  0.4610
57274SOL    HW178427   4.378  10.318   2.938 -1.0281  1.3524 -0.1070
57274SOL    HW278428   4.269  10.351   3.037  0.1724  0.7488  1.4446
57275SOL     OW78429   8.942   8.358   4.283 -0.2119  0.0034  0.1707
57275SOL    HW178430   8.919   8.306   4.205  0.4513 -3.3776  2.0025
57275SOL    HW278431   8.987   8.435   4.248 -0.0960 -1.2641 -2.8074
57276SOL     OW78432  11.325   9.440   5.408  0.2904  0.5651  0.4693
57276SOL    HW178433  11.245   9.388   5.414  0.6567  0.0044  0.5468
57276SOL    HW278434  11.318   9.502   5.481  0.3057 -0.0295  0.9933
57277SOL     OW78435   4.030   8.573   5.942  0.3112 -1.1944 -0.0399
57277SOL    HW178436   3.964   8.555   6.009  1.0359 -2.5945  0.3348
57277SOL    HW278437   4.107   8.522   5.970  1.5931  0.4351 -0.4202
57278SOL     OW78438  11.486   5.269   8.859  0.8025 -0.8888 -0.1193
57278SOL    HW178439  11.487   5.189   8.912 -0.4431  0.5243  2.1969
57278SOL    HW278440  11.397   5.275   8.826 -0.2943  1.3343  2.8448
57279SOL     OW78441  11.155   2.753   7.687 -0.4548 -0.3111  0.2098
57279SOL    HW178442  11.172   2.716   7.601 -0.0984 -0.9190  0.5400
57279SOL    HW278443  11.198   2.694   7.749 -0.6766  0.1330  0.8062
57280SOL     OW78444   8.849   8.430   3.328  1.0019 -0.2284 -0.3846
57280SOL    HW178445   8.877   8.494   3.263  1.4205 -0.3139 -0.2872
57280SOL    HW278446   8.905   8.354   3.312  1.2210 -0.1904  0.1868
57281SOL     OW78447   0.217   2.258  10.145 -0.0837 -0.0868 -0.3051
57281SOL    HW178448   0.184   2.204  10.217 -0.8294  0.5249 -0.1768
57281SOL    HW278449   0.275   2.200  10.096 -0.0738 -0.7025  0.4145
57282SOL     OW78450   3.451   3.731  10.589 -0.2960  0.7029 -0.6368
57282SOL    HW178451   3.533   3.709  10.633 -0.9124 -1.6386 -0.5109
57282SOL    HW278452   3.421   3.810  10.633  0.1347 -0.3893  1.8274
57283SOL     OW78453   8.767   5.344   2.902 -0.2916  0.7814  0.4534
57283SOL    HW178454   8.800   5.312   2.818 -0.0506  0.1229  0.7886
57283SOL    HW278455   8.774   5.269   2.961 -1.4757  0.9166  0.7943
57284SOL     OW78456   8.911   6.396   2.479 -0.6467 -0.1559 -0.0268
57284SOL    HW178457   8.958   6.459   2.423  0.4891  0.5608  1.6349
57284SOL    HW278458   8.864   6.451   2.542  1.2590 -0.8871  2.1668
57285SOL     OW78459   6.714   0.792  11.394  0.2568  1.0960 -0.0351
57285SOL    HW178460   6.773   0.731  11.438 -0.1658 -1.2473 -2.4803
57285SOL    HW278461   6.630   0.778  11.437  0.2382  0.1513 -0.3511
57286SOL     OW78462   7.217   5.219   0.748 -0.2272  0.2170 -0.1421
57286SOL    HW178463   7.194   5.207   0.656  0.4745 -2.8493 -0.0271
57286SOL    HW278464   7.160   5.158   0.795  0.8261  0.2249  1.2224
57287SOL     OW78465   6.217   7.134   3.372  0.2771  0.3629 -0.7902
57287SOL    HW178466   6.153   7.119   3.303 -2.6238  0.8556  1.5838
57287SOL    HW278467   6.203   7.061   3.433  1.2692  1.0646  0.3184
57288SOL     OW78468   2.571   8.728   8.536  0.4785 -0.0480 -0.6594
57288SOL    HW178469   2.546   8.796   8.473  0.8616  3.1921  2.3774
57288SOL    HW278470   2.659   8.701   8.508 -0.3675 -0.6969 -2.9291
57289SOL     OW78471  10.055   2.004   3.185  0.3414  0.1179 -0.2982
57289SOL    HW178472  10.125   1.991   3.122 -1.1382  0.8219 -2.1697
57289SOL    HW278473  10.058   2.098   3.206  0.6807 -0.0681  0.5482
57290SOL     OW78474   0.284   5.474   8.835  0.4594  0.2432  0.3064
57290SOL    HW178475   0.198   5.452   8.798 -0.8043  1.5736  2.2905
57290SOL    HW278476   0.337   5.500   8.759 -2.1311  3.2992 -0.6221
57291SOL     OW78477   7.619   0.139   2.873  0.3804  0.2683 -0.3827
57291SOL    HW178478   7.537   0.182   2.848 -0.7510 -0.1747  2.2478
57291SOL    HW278479   7.611   0.050   2.838 -1.3622 -0.4853  1.7395
57292SOL     OW78480   7.641   1.803   9.376  0.5015 -0.1906  0.6651
57292SOL    HW178481   7.715   1.857   9.348 -0.1895 -0.1470 -1.2485
57292SOL    HW278482   7.566   1.861   9.368 -0.4852 -1.6320 -2.8229
57293SOL     OW78483   9.984   6.175   0.964 -0.3033  0.3919 -0.1214
57293SOL    HW178484  10.014   6.190   1.054 -1.1590 -1.8301  0.6143
57293SOL    HW278485  10.064   6.159   0.914  0.0861 -0.4645  0.7358
57294SOL     OW78486   7.429   0.585   9.300 -0.3506 -0.2138  0.5952
57294SOL    HW178487   7.425   0.490   9.301  0.6710 -0.3131 -1.3234
57294SOL    HW278488   7.337   0.613   9.295 -0.5828 -1.1931 -1.4285
57295SOL     OW78489  11.806  11.182   2.058  0.0053  0.2844 -0.2175
57295SOL    HW178490  11.721  11.163   2.097  0.4561 -1.1097  0.1641
57295SOL    HW278491  11.867  11.181   2.131  0.3121  1.7715 -0.4151
57296SOL     OW78492  10.729   8.405  10.955  0.3948  0.5039 -0.5436
57296SOL    HW178493  10.642   8.410  10.916  0.2270  1.2303 -0.0928
57296SOL    HW278494  10.789   8.407  10.880  0.0162 -2.0845 -1.0110
57297SOL     OW78495   5.468   5.087   2.295 -0.1764  0.5746 -0.0436
57297SOL    HW178496   5.540   5.047   2.344 -2.2612 -2.6749  0.6462
57297SOL    HW278497   5.421   5.139   2.360 -0.0551  0.4537  0.1423
57298SOL     OW78498   0.602   0.701   5.216  0.5681  0.4046  0.7707
57298SOL    HW178499   0.571   0.630   5.160  0.1899 -0.3791  1.9258
57298SOL    HW278500   0.584   0.781   5.167  1.5165 -0.3105 -0.8086
57299SOL     OW78501  12.047   9.137   7.936  0.4611  0.0008  0.0699
57299SOL    HW178502  12.040   9.061   7.877  1.8922  1.2627 -1.8315
57299SOL    HW278503  12.137   9.167   7.925  0.1731  1.4624  1.4689
57300SOL     OW78504   1.037  10.927   2.400  0.2079 -0.2610 -0.9725
57300SOL    HW178505   1.000  10.996   2.456  0.1733 -0.5159 -0.6770
57300SOL    HW278506   1.036  10.849   2.455 -0.8314 -0.7762 -1.6767
57301SOL     OW78507   8.307   8.330   5.347  0.0275 -0.3645 -0.1784
57301SOL    HW178508   8.398   8.304   5.337 -0.2950 -0.7810 -2.6267
57301SOL    HW278509   8.311   8.420   5.379  1.4700  1.0148 -3.7458
57302SOL     OW78510  11.630   2.073   9.432 -0.3233  0.2112  0.6592
57302SOL    HW178511  11.704   2.032   9.476 -1.2492 -3.1031 -0.5944
57302SOL    HW278512  11.565   2.087   9.502  0.3032  0.2834  1.2364
57303SOL     OW78513  12.348   0.973   9.593 -0.1767 -0.3159 -0.0288
57303SOL    HW178514  12.366   0.951   9.502 -0.3283 -3.1092  0.5054
57303SOL    HW278515  12.433   0.995   9.631 -0.1278  0.9363 -0.8176
57304SOL     OW78516   6.425   3.932   6.702 -0.9592  0.4115 -0.4695
57304SOL    HW178517   6.352   3.897   6.650 -2.2879  0.1938  1.4403
57304SOL    HW278518   6.503   3.895   6.661 -2.0551 -1.0960 -1.3134
57305SOL     OW78519   1.583   0.631   1.729 -0.3292  0.6826  0.3256
57305SOL    HW178520   1.548   0.570   1.665 -1.6420  1.5220  0.2034
57305SOL    HW278521   1.531   0.617   1.808  0.6016  0.3628  0.9083
57306SOL     OW78522   3.078   8.780   1.894 -0.6214  0.1222  0.2967
57306SOL    HW178523   3.073   8.770   1.989  2.6460  0.7352  0.6521
57306SOL    HW278524   3.130   8.706   1.865  0.1166  1.0166 -0.7304
57307SOL     OW78525   5.623  11.399   2.046  0.5227 -0.1664 -0.2051
57307SOL    HW178526   5.589  11.332   2.105  0.6470 -0.8092 -0.8549
57307SOL    HW278527   5.718  11.394   2.056  0.5185  0.3048  0.1559
57308SOL     OW78528  12.267   5.105   9.645  0.1226  0.2375 -0.2908
57308SOL    HW178529  12.352   5.139   9.615 -0.6153  1.0011 -1.6520
57308SOL    HW278530  12.226   5.179   9.690 -0.0493  0.0420 -0.1227
57309SOL     OW78531   8.142   9.588   0.722  0.1485  0.2392  0.1852
57309SOL    HW178532   8.166   9.640   0.645  3.1801 -1.7459 -0.3944
57309SOL    HW278533   8.050   9.568   0.709  0.0015  1.8194 -1.7628
57310SOL     OW78534  11.858   8.045   2.632  0.2620 -0.1758  0.1565
57310SOL    HW178535  11.948   8.072   2.650  0.5303 -1.7119  1.4020
57310SOL    HW278536  11.863   8.002   2.546  0.1204  2.1731 -1.1016
57311SOL     OW78537   1.939  11.469   4.336 -0.1475 -0.2855 -0.7403
57311SOL    HW178538   1.917  11.540   4.395  0.2987 -0.2421 -0.6261
57311SOL    HW278539   1.991  11.510   4.267 -0.3672 -0.3993 -0.9768
57312SOL     OW78540  11.736   8.278  10.716 -0.0605  0.4324  0.1056
57312SOL    HW178541  11.719   8.213  10.648 -0.7789  0.3542  0.3515
57312SOL    HW278542  11.832   8.282  10.722  0.0087  0.2369 -0.7069
57313SOL     OW78543   2.677  11.045   2.465 -0.1892  0.2493 -0.3569
57313SOL    HW178544   2.708  10.973   2.410 -1.0003 -0.1132 -0.3494
57313SOL    HW278545   2.624  11.099   2.407 -2.0825 -0.8059  0.3268
57314SOL     OW78546   1.787   6.884   9.372 -0.1276  0.1308 -0.1385
57314SOL    HW178547   1.766   6.969   9.334 -1.2346 -0.0577  0.0145
57314SOL    HW278548   1.749   6.887   9.460 -2.8288 -1.5586 -1.1359
57315SOL     OW78549   7.626   4.824   0.560  0.1208 -0.3704 -0.5350
57315SOL    HW178550   7.566   4.808   0.487 -0.1896 -0.5587 -0.2411
57315SOL    HW278551   7.571   4.821   0.638  0.4168  0.0242 -0.3022
57316SOL     OW78552  12.520   1.834   6.451 -0.1907  0.6991  0.1930
57316SOL    HW178553  12.508   1.742   6.425 -1.6562  1.0565 -0.5534
57316SOL    HW278554  12.585   1.832   6.521 -0.1288 -0.8969  0.1202
57317SOL     OW78555   9.320   9.876  10.543  0.2526  0.4409  0.0397
57317SOL    HW178556   9.267   9.797  10.547  0.4053  0.3947  2.1152
57317SOL    HW278557   9.343   9.885  10.450 -0.4786 -1.4541 -0.3638
57318SOL     OW78558   8.351   4.258   2.520 -0.1696 -0.2084 -0.0905
57318SOL    HW178559   8.417   4.200   2.480  0.2222 -0.6777  1.2022
57318SOL    HW278560   8.395   4.342   2.528 -1.1744  0.7817 -3.2635
57319SOL     OW78561   8.686   3.544   2.777 -0.2271 -0.1383 -0.4150
57319SOL    HW178562   8.596   3.558   2.750 -0.9024 -0.0393  1.7266
57319SOL    HW278563   8.720   3.479   2.716 -1.2920  0.8007 -2.0784
57320SOL     OW78564   3.099   5.292   0.940  0.4753  0.0390  0.4447
57320SOL    HW178565   3.150   5.233   0.997 -0.1860 -0.2749  0.7259
57320SOL    HW278566   3.163   5.326   0.878  0.7394 -1.6950 -0.3168
57321SOL     OW78567   2.820   7.620   1.561  0.4894 -0.2452  0.5194
57321SOL    HW178568   2.857   7.676   1.493 -1.1028 -0.1042 -0.2736
57321SOL    HW278569   2.896   7.582   1.605  1.5684  1.0315 -0.1879
57322SOL     OW78570   0.708   2.292   6.729 -0.4150  0.0359  0.1564
57322SOL    HW178571   0.690   2.288   6.823  1.0582  2.9492  0.6766
57322SOL    HW278572   0.802   2.304   6.722 -0.5564  0.4979 -1.6709
57323SOL     OW78573   4.852  11.224   5.254  0.4500 -0.0313  0.3276
57323SOL    HW178574   4.880  11.144   5.210 -1.9355 -0.4959 -0.5122
57323SOL    HW278575   4.864  11.292   5.188  1.9238  0.2481  0.8448
57324SOL     OW78576   2.717   7.910   7.589  0.1665 -0.3158 -0.9994
57324SOL    HW178577   2.789   7.859   7.626 -1.0250 -1.4010 -0.0653
57324SOL    HW278578   2.750   8.000   7.586  1.0001 -0.4947  0.9967
57325SOL     OW78579   4.713   8.044   0.892 -0.0708  0.1129  0.2224
57325SOL    HW178580   4.725   7.960   0.935  0.2719  0.0547  0.0149
57325SOL    HW278581   4.749   8.108   0.953 -0.3363  0.1094  0.3825
57326SOL     OW78582  12.249   0.228  10.922 -0.0704  0.0501 -0.6514
57326SOL    HW178583  12.174   0.181  10.958  0.5231 -0.6598 -0.3032
57326SOL    HW278584  12.274   0.290  10.990  0.1306 -0.2565 -0.4410
57327SOL     OW78585  11.224   6.857   0.132  0.2318 -0.2382  0.5467
57327SOL    HW178586  11.194   6.887   0.218  3.2730  2.1044  0.9397
57327SOL    HW278587  11.253   6.767   0.147 -1.9087 -0.9030  1.1887
57328SOL     OW78588   6.948   9.921   1.208 -0.3995  0.3238  0.1667
57328SOL    HW178589   6.879   9.862   1.177  0.4475 -0.3649 -0.4681
57328SOL    HW278590   6.921   9.946   1.296 -2.7615  2.0977 -0.9386
57329SOL     OW78591   6.498   9.078   4.692 -0.6729  0.1413 -0.1705
57329SOL    HW178592   6.511   9.011   4.759  1.6048 -0.2675 -0.9546
57329SOL    HW278593   6.552   9.152   4.720  1.6683 -0.6320 -2.2571
57330SOL     OW78594   2.083   4.729  11.545 -0.5744 -0.2707  0.1499
57330SOL    HW178595   2.007   4.676  11.519 -0.2614 -0.3206 -0.6824
57330SOL    HW278596   2.142   4.667  11.588 -1.0163 -0.2241  0.8359
57331SOL     OW78597  12.453   6.547   0.624 -1.1596 -0.1782  0.4478
57331SOL    HW178598  12.467   6.563   0.717 -1.3707  0.8495  0.3130
57331SOL    HW278599  12.522   6.485   0.600 -1.9095 -1.5332  1.5613
57332SOL     OW78600   4.727   6.050  11.653  0.2840 -0.4794  0.1677
57332SOL    HW178601   4.782   6.128  11.646 -0.0669  0.1398  3.0493
57332SOL    HW278602   4.772   5.983  11.601  1.3811  1.1786 -1.1320
57333SOL     OW78603   4.351   3.272  11.751  0.2167 -0.2256  0.1485
57333SOL    HW178604   4.271   3.239  11.709  1.1527 -1.7174 -0.5631
57333SOL    HW278605   4.401   3.311  11.679  0.0906  0.8205  0.6105
57334SOL     OW78606   1.290   8.224   1.690 -0.1695  0.0930 -0.1718
57334SOL    HW178607   1.289   8.218   1.594 -0.4703  0.3378 -0.1875
57334SOL    HW278608   1.355   8.160   1.718 -0.2365 -0.1335 -0.5318
57335SOL     OW78609  10.877   4.819   7.227 -0.1762  0.4315 -0.0055
57335SOL    HW178610  10.897   4.727   7.214  0.0232  0.4218  0.3652
57335SOL    HW278611  10.782   4.824   7.222 -0.1567  0.2932 -0.5808
57336SOL     OW78612   1.393   1.403  10.468 -0.3289  0.4348  0.5312
57336SOL    HW178613   1.472   1.386  10.520  0.9449 -1.6922 -1.8815
57336SOL    HW278614   1.342   1.323  10.475 -0.1071  0.0825 -1.4389
57337SOL     OW78615   1.325   9.402   7.848  0.1975  0.2836 -0.2869
57337SOL    HW178616   1.251   9.388   7.788  0.5557  2.4042 -1.3185
57337SOL    HW278617   1.320   9.329   7.910 -1.9810 -0.3379 -1.1048
57338SOL     OW78618   4.406   6.672   5.158  0.2026  0.5743 -0.2855
57338SOL    HW178619   4.367   6.666   5.245 -1.0145  0.0619 -0.8465
57338SOL    HW278620   4.464   6.749   5.163  0.2079  0.5058  0.9782
57339SOL     OW78621   1.868  10.728   6.338 -0.2281  0.1035  0.4123
57339SOL    HW178622   1.932  10.763   6.276  0.3043 -1.7667 -0.1438
57339SOL    HW278623   1.847  10.803   6.394  3.5335  0.5544  1.5636
57340SOL     OW78624   3.399   9.492  11.942 -0.0105 -0.1870  0.2529
57340SOL    HW178625   3.467   9.424  11.943  0.5418  0.3540  1.2192
57340SOL    HW278626   3.431   9.559  12.003 -0.1352  1.3504 -1.2781
57341SOL     OW78627  11.165   7.629   5.448 -0.1258 -0.1300  0.0498
57341SOL    HW178628  11.131   7.714   5.477 -0.1598 -0.3059  0.5344
57341SOL    HW278629  11.259   7.633   5.467 -0.3145 -0.6400  1.1870
57342SOL     OW78630   9.796   4.532  10.345 -0.3268 -0.2914 -0.0558
57342SOL    HW178631   9.868   4.543  10.283 -0.0676  0.9679  0.4241
57342SOL    HW278632   9.804   4.607  10.404 -1.7786 -0.3471  0.2620
57343SOL     OW78633  12.083   0.278   1.686 -0.3608 -0.9813 -0.3231
57343SOL    HW178634  12.129   0.299   1.767  0.4813 -1.4299 -0.6690
57343SOL    HW278635  12.106   0.350   1.627 -2.8107  0.6011  0.4806
57344SOL     OW78636   9.689   8.388   6.838  0.3075 -0.6454  0.1675
57344SOL    HW178637   9.692   8.406   6.744 -0.1236  2.6541  0.6944
57344SOL    HW278638   9.605   8.344   6.851 -0.0696 -0.2582 -0.8699
57345SOL     OW78639   9.238   3.928   7.335 -0.2112 -0.0816  0.3427
57345SOL    HW178640   9.174   3.934   7.264  0.2370 -2.9516 -0.4570
57345SOL    HW278641   9.262   4.018   7.355 -0.8637  0.8630 -2.6984
57346SOL     OW78642   8.260  10.408   8.815  0.6081 -0.1430  0.1657
57346SOL    HW178643   8.355  10.396   8.816  1.1412  3.1505  0.6884
57346SOL    HW278644   8.228  10.351   8.885  1.9264 -2.4193 -0.9501
57347SOL     OW78645   2.635   7.752  10.133  0.1382  0.2990  0.9916
57347SOL    HW178646   2.668   7.673  10.089 -2.7755 -0.2894 -0.3858
57347SOL    HW278647   2.618   7.724  10.223  1.2631  0.0354  1.1417
57348SOL     OW78648   3.470   7.873   8.896  0.1846 -0.1799 -0.2014
57348SOL    HW178649   3.553   7.920   8.901 -0.2502  1.2317 -3.4156
57348SOL    HW278650   3.496   7.780   8.894  1.3905  0.0527  1.8067
57349SOL     OW78651   0.949   3.305   2.882  0.1810  0.6728  0.6449
57349SOL    HW178652   0.998   3.266   2.955 -1.6450 -1.2087  0.9601
57349SOL    HW278653   1.013   3.308   2.811  1.0536 -0.8185  1.2936
57350SOL     OW78654  11.608   0.223   4.586 -0.0431 -0.0073 -0.9625
57350SOL    HW178655  11.620   0.283   4.660 -1.7546  0.5192 -1.0846
57350SOL    HW278656  11.681   0.243   4.527  0.3278  0.8181 -0.2447
57351SOL     OW78657  10.987  12.242   1.149 -0.1683 -0.1246 -0.2939
57351SOL    HW178658  11.051  12.214   1.083 -1.1449 -0.5596 -1.0735
57351SOL    HW278659  11.041  12.277   1.221  0.9261 -0.1329 -1.0854
57352SOL     OW78660   0.122   5.258  11.499 -0.2603  0.0556  0.2093
57352SOL    HW178661   0.059   5.209  11.552 -0.0377  0.7679  1.1590
57352SOL    HW278662   0.206   5.217  11.516  0.1741  1.6239  2.1760
57353SOL     OW78663  12.585   4.440  11.795  0.2722 -0.1223  0.2997
57353SOL    HW178664  12.517   4.482  11.742  1.3225 -0.1159 -1.0890
57353SOL    HW278665  12.599   4.355  11.754  2.6024  0.7166 -0.8125
57354SOL     OW78666   4.682   5.283   1.845 -1.0533  0.0615  0.0712
57354SOL    HW178667   4.657   5.229   1.920 -0.9892  0.5917  0.4773
57354SOL    HW278668   4.776   5.298   1.857 -1.4573  2.0830  1.1688
57355SOL     OW78669   5.675   8.989   3.761  0.7541 -0.0985 -0.3808
57355SOL    HW178670   5.754   8.937   3.751  0.3249 -0.8310 -0.0022
57355SOL    HW278671   5.603   8.926   3.754  0.2059  0.5236 -0.5073
57356SOL     OW78672   2.692  12.677   2.629  0.4855  0.1548 -0.1316
57356SOL    HW178673   2.765  12.683   2.567 -1.0761  1.8740 -1.9948
57356SOL    HW278674   2.641  12.602   2.598 -0.3572  1.0838 -1.0953
57357SOL     OW78675   9.193   0.189   8.812  0.1963 -0.4735  0.3105
57357SOL    HW178676   9.166   0.241   8.736  3.3830  0.2691 -0.4627
57357SOL    HW278677   9.220   0.105   8.774 -2.7839 -2.0158  1.2977
57358SOL     OW78678  12.430   6.531   5.908  0.1093 -0.5325 -0.3378
57358SOL    HW178679  12.467   6.447   5.935 -0.9448 -1.0602 -0.4704
57358SOL    HW278680  12.399   6.516   5.819  0.7132  0.2624 -0.6863
57359SOL     OW78681   0.694   9.254   5.202  0.5532 -0.3121  0.6500
57359SOL    HW178682   0.759   9.229   5.268  0.0734 -1.7469  0.6149
57359SOL    HW278683   0.738   9.238   5.118 -0.1221 -2.2147  0.6126
57360SOL     OW78684   5.448   2.673  10.430 -0.2380  0.4081 -0.0787
57360SOL    HW178685   5.479   2.738  10.493 -0.3769  1.2853 -0.8883
57360SOL    HW278686   5.375   2.630  10.473 -0.4292  1.1007  0.3034
57361SOL     OW78687   3.606   6.260   3.941 -0.0795 -0.7051  0.3243
57361SOL    HW178688   3.569   6.188   3.890  1.9939 -0.2164 -2.0873
57361SOL    HW278689   3.644   6.218   4.018  0.7821 -2.2041 -0.8536
57362SOL     OW78690   6.525   2.472   8.243 -0.2099  0.0765  0.0377
57362SOL    HW178691   6.590   2.495   8.177 -0.7862 -1.6400 -1.1960
57362SOL    HW278692   6.569   2.412   8.302 -0.9524 -2.2445 -1.6199
57363SOL     OW78693   4.419   3.018   9.085 -0.0990  0.2851  0.1121
57363SOL    HW178694   4.512   3.041   9.099  0.0169 -0.7272  1.1982
57363SOL    HW278695   4.401   3.043   8.995  0.7499  2.1067  0.3994
57364SOL     OW78696   4.627   3.311   3.987 -0.0518 -0.4075 -0.0516
57364SOL    HW178697   4.627   3.377   4.056 -1.0622  0.8575 -1.2108
57364SOL    HW278698   4.676   3.238   4.024 -1.4913 -0.2272  2.4496
57365SOL     OW78699   5.335  10.584   0.166  0.1307  0.5042  0.4724
57365SOL    HW178700   5.399  10.525   0.126  2.0779  2.3512  0.6524
57365SOL    HW278701   5.303  10.637   0.093  1.8007  2.1842  0.8848
57366SOL     OW78702   5.762  12.432   5.313 -0.4204 -0.3418  0.3980
57366SOL    HW178703   5.751  12.477   5.230  0.9040  0.5741  0.6870
57366SOL    HW278704   5.820  12.489   5.364 -0.1189 -1.5310  1.4407
57367SOL     OW78705  10.584   4.704  10.273  0.2069 -0.0606 -0.1042
57367SOL    HW178706  10.637   4.632  10.306 -0.6994 -0.2577  1.0005
57367SOL    HW278707  10.633   4.738  10.198  0.4432 -2.0829 -0.9193
57368SOL     OW78708   2.208   1.620   0.880  0.3083 -0.2115 -0.4195
57368SOL    HW178709   2.253   1.597   0.799  0.8213  1.3671 -0.6097
57368SOL    HW278710   2.129   1.566   0.880  2.1313 -3.0622 -0.0641
57369SOL     OW78711   0.739   3.399   1.882 -0.3553 -0.2751 -0.1958
57369SOL    HW178712   0.802   3.328   1.897 -0.1767  0.4181  3.4086
57369SOL    HW278713   0.669   3.382   1.945 -1.2456  1.7049 -0.5812
57370SOL     OW78714   2.480   5.443  11.627  0.1824  0.1285 -0.0127
57370SOL    HW178715   2.408   5.401  11.673  0.7050 -0.1732  0.5443
57370SOL    HW278716   2.454   5.441  11.535 -0.2160 -0.5815  0.1067
57371SOL     OW78717   3.502  11.129   7.212  0.2357  0.1758  0.3718
57371SOL    HW178718   3.554  11.061   7.256  0.3721  0.4879  0.7045
57371SOL    HW278719   3.449  11.081   7.148  0.1423 -0.2758  0.7753
57372SOL     OW78720   4.690  12.698  10.096  0.4360  0.0402  0.2373
57372SOL    HW178721   4.612  12.664  10.052 -0.4629 -1.7519  2.9681
57372SOL    HW278722   4.663  12.784  10.129  0.0396 -0.0511  0.1535
57373SOL     OW78723   2.523   5.006   9.457  0.6722  0.5144  0.0420
57373SOL    HW178724   2.567   5.066   9.517  1.1014 -1.5343  1.9343
57373SOL    HW278725   2.456   4.963   9.510 -0.9893  0.7192 -1.7695
57374SOL     OW78726  11.288   6.226   0.203 -0.1634  0.4062 -0.1125
57374SOL    HW178727  11.343   6.245   0.127 -0.2406  0.0528 -0.2605
57374SOL    HW278728  11.211   6.282   0.192 -0.2443  0.2429 -0.3752
57375SOL     OW78729   2.339   8.481  12.503 -0.2403  0.5090 -0.3367
57375SOL    HW178730   2.363   8.404  12.452 -1.6766 -0.7335  0.7791
57375SOL    HW278731   2.381   8.554  12.457  2.7751 -1.0662 -0.3838
57376SOL     OW78732   4.215  10.628  12.168 -0.4142  0.4437  0.3030
57376SOL    HW178733   4.233  10.540  12.134 -1.4129  0.5820 -0.6361
57376SOL    HW278734   4.280  10.640  12.238 -0.0698 -0.9168  0.2547
57377SOL     OW78735   5.787   7.847   0.819 -0.2208 -0.1816  0.0192
57377SOL    HW178736   5.839   7.915   0.863  0.2503 -0.1182 -0.6278
57377SOL    HW278737   5.772   7.781   0.887 -0.8409  0.6412  0.7140
57378SOL     OW78738   2.978   1.042   1.384  0.3091  0.3500  0.0751
57378SOL    HW178739   3.031   1.054   1.305  0.1651 -0.5585 -0.1718
57378SOL    HW278740   2.905   0.988   1.355 -1.5938  2.7524  0.0576
57379SOL     OW78741   3.175   5.677   2.721 -0.5425  0.5201  0.7522
57379SOL    HW178742   3.084   5.661   2.746 -0.4496  1.3333  1.7075
57379SOL    HW278743   3.181   5.773   2.717  0.4810  0.4982  1.5396
57380SOL     OW78744   8.020   5.711  12.553 -0.4071 -0.2667  0.5439
57380SOL    HW178745   7.941   5.725  12.605 -0.0133  1.2366  0.7804
57380SOL    HW278746   8.093   5.724  12.614  0.0462  0.5675 -0.1568
57381SOL     OW78747   9.843   6.519   4.556 -0.2418 -0.1296  0.4528
57381SOL    HW178748   9.773   6.494   4.495  0.9134 -0.1586 -0.9051
57381SOL    HW278749   9.823   6.610   4.577  1.0465  0.9926 -2.5666
57382SOL     OW78750   0.183   8.110   7.755 -0.0326 -0.4747 -0.5741
57382SOL    HW178751   0.123   8.183   7.741  0.1683 -0.2790 -0.4053
57382SOL    HW278752   0.228   8.131   7.837 -0.0464 -0.8322 -0.4728
57383SOL     OW78753   0.043   0.729   1.533 -0.4414 -0.4839  0.2552
57383SOL    HW178754   0.131   0.748   1.566 -0.7915  0.4113  0.7237
57383SOL    HW278755   0.020   0.807   1.482 -0.5065 -1.2108 -0.8623
57384SOL     OW78756   3.360   2.236   6.700  0.4561 -0.1467  0.0794
57384SOL    HW178757   3.310   2.215   6.780 -0.9188 -1.8257 -1.1299
57384SOL    HW278758   3.439   2.182   6.707  1.0873  0.8514  0.9713
57385SOL     OW78759   5.051   0.072   6.258 -0.5766  0.2141 -0.2112
57385SOL    HW178760   5.104   0.048   6.182 -2.7488 -1.0813 -1.4040
57385SOL    HW278761   5.077   0.162   6.278  0.5462  0.3379 -2.0306
57386SOL     OW78762   7.510  10.994  11.192 -0.2305  0.1131  0.3101
57386SOL    HW178763   7.423  11.009  11.230  0.4139 -0.8930  2.3236
57386SOL    HW278764   7.500  10.915  11.139 -0.7603  0.5693 -0.2862
57387SOL     OW78765  12.519  12.561   7.251 -0.1566  0.7449 -0.7565
57387SOL    HW178766  12.596  12.505   7.242 -0.1206  1.0217 -2.5470
57387SOL    HW278767  12.463  12.537   7.177 -0.9006  1.9097 -0.6007
57388SOL     OW78768   3.551   3.240   0.056  0.0421 -0.2495 -0.5791
57388SOL    HW178769   3.504   3.225  -0.027 -1.3234  0.2691  0.0619
57388SOL    HW278770   3.485   3.225   0.123  0.8089  0.5451  0.3680
57389SOL     OW78771   7.380   7.834   0.848 -0.4098 -0.1845  0.4183
57389SOL    HW178772   7.441   7.814   0.777 -0.7755  1.3772 -0.3668
57389SOL    HW278773   7.371   7.751   0.895  0.1838 -1.1440 -1.0820
57390SOL     OW78774  12.255   3.190   2.601  0.2676 -0.7653  0.1131
57390SOL    HW178775  12.168   3.221   2.625  0.3547 -0.4149 -0.0130
57390SOL    HW278776  12.282   3.134   2.674  0.0764 -0.6017  0.3093
57391SOL     OW78777  11.363   5.088  10.177 -0.1031  0.3506 -0.3893
57391SOL    HW178778  11.431   5.052  10.121 -0.0171  0.5338 -0.4049
57391SOL    HW278779  11.332   5.166  10.130 -1.0516 -0.3055 -0.8943
57392SOL     OW78780   6.529   7.370  12.421  0.2977  0.2985 -0.3519
57392SOL    HW178781   6.618   7.388  12.391  0.3499 -0.8331 -0.9272
57392SOL    HW278782   6.540   7.319  12.501  0.1629  0.4364 -0.2449
57393SOL     OW78783   6.181   3.945  11.216 -0.1117 -0.5304  0.3838
57393SOL    HW178784   6.241   3.871  11.210 -0.4956 -0.7850 -0.5472
57393SOL    HW278785   6.188   3.989  11.131 -0.3721  0.1189  0.6901
57394SOL     OW78786   3.464   8.329   3.024  0.6542  0.5627 -0.0556
57394SOL    HW178787   3.556   8.303   3.036  0.7844  0.7487 -0.5827
57394SOL    HW278788   3.436   8.280   2.947  0.3759  0.6736 -0.0239
57395SOL     OW78789   3.829   5.012   5.683  0.1562  0.6731 -0.1690
57395SOL    HW178790   3.918   5.024   5.716 -0.5285  0.7348  1.7853
57395SOL    HW278791   3.820   4.917   5.672  0.5020  0.6765 -0.4873
57396SOL     OW78792   4.152   9.512   4.083 -0.2089  0.5882 -0.4154
57396SOL    HW178793   4.067   9.535   4.045 -0.0977 -2.1722 -2.6566
57396SOL    HW278794   4.216   9.553   4.025  0.0659  1.7730  0.6624
57397SOL     OW78795   3.585   2.827   1.995 -0.2726 -0.1345  0.6951
57397SOL    HW178796   3.532   2.747   1.991 -0.0025 -0.2830 -0.1009
57397SOL    HW278797   3.665   2.806   1.947 -0.3469  0.7151  0.1584
57398SOL     OW78798  12.385   1.002  12.259  0.7658 -0.0445 -0.4107
57398SOL    HW178799  12.302   1.039  12.289  0.5686  0.6448 -1.7478
57398SOL    HW278800  12.360   0.931  12.200  1.1459 -0.9058  0.4361
57399SOL     OW78801   9.044  12.754   1.910  0.1462  0.1824  0.1015
57399SOL    HW178802   8.986  12.820   1.870 -0.1263  0.2657  0.6225
57399SOL    HW278803   9.007  12.670   1.883  0.3843  0.2365 -0.4113
57400SOL     OW78804   0.438   9.383   8.988 -0.6263  0.5552 -0.3616
57400SOL    HW178805   0.383   9.315   8.950  2.2676 -1.8750 -0.5506
57400SOL    HW278806   0.429   9.372   9.082  0.3042 -0.5792 -0.3841
57401SOL     OW78807   5.792   1.677   7.846 -0.0245 -0.5268  0.4023
57401SOL    HW178808   5.885   1.699   7.848 -0.6076  2.2262  0.6665
57401SOL    HW278809   5.770   1.675   7.753 -0.1055  0.8944  0.3737
57402SOL     OW78810  12.006   1.562   5.043  0.3285 -0.6771 -0.1924
57402SOL    HW178811  12.026   1.471   5.064  0.3051 -0.9786 -1.4109
57402SOL    HW278812  12.068   1.585   4.974 -1.3839 -0.6231 -1.7866
57403SOL     OW78813  10.906  12.062   1.517  0.3130  0.0107  0.2976
57403SOL    HW178814  10.865  12.034   1.435  0.1626  0.6289  0.1515
57403SOL    HW278815  10.999  12.042   1.505  0.3939  0.6717 -0.2932
57404SOL     OW78816  11.741   6.860   0.227 -0.3927 -0.5209  0.2171
57404SOL    HW178817  11.767   6.861   0.319  0.4853 -0.1021 -0.0240
57404SOL    HW278818  11.671   6.926   0.221  1.4207  1.5017  0.0921
57405SOL     OW78819  10.773   2.470   0.456  0.5301  0.6968  0.0112
57405SOL    HW178820  10.867   2.489   0.463  0.2234  1.8583  1.6754
57405SOL    HW278821  10.734   2.514   0.532 -1.3862  0.3333 -0.7010
57406SOL     OW78822   6.398  10.238   1.463 -0.3781  0.4258 -0.4004
57406SOL    HW178823   6.333  10.224   1.394 -0.4674 -1.6173  0.0315
57406SOL    HW278824   6.349  10.228   1.544  0.5203 -1.7868 -0.0609
57407SOL     OW78825   0.314   4.477   4.517  0.0952  0.6660  0.1206
57407SOL    HW178826   0.382   4.494   4.582  0.1776  2.5325 -0.3871
57407SOL    HW278827   0.340   4.531   4.441 -0.3097 -0.9786 -1.2549
57408SOL     OW78828   6.356   9.792   2.043  0.5568 -0.0412 -0.5230
57408SOL    HW178829   6.430   9.828   1.994  0.7529  0.0667 -0.1501
57408SOL    HW278830   6.395   9.722   2.096  0.8440  1.4909  1.4100
57409SOL     OW78831   9.375  10.865   3.872  0.5484 -0.1539  0.0215
57409SOL    HW178832   9.324  10.787   3.890 -0.5278 -0.0539 -2.2587
57409SOL    HW278833   9.310  10.933   3.856  1.4609  1.1674  1.5969
57410SOL     OW78834   1.051   3.831  10.757 -0.2856 -0.2572 -0.5999
57410SOL    HW178835   1.145   3.814  10.749 -0.1006  0.2962  0.2707
57410SOL    HW278836   1.012   3.784  10.684  0.3856 -2.6921  0.5042
57411SOL     OW78837   3.269   0.365   3.311 -0.2615 -0.2908  0.5748
57411SOL    HW178838   3.328   0.422   3.263 -1.5487  1.1688  0.6387
57411SOL    HW278839   3.299   0.277   3.291  0.7774  0.3485 -0.8631
57412SOL     OW78840   5.879   3.093   5.797 -0.5608 -0.7281 -0.5617
57412SOL    HW178841   5.833   3.063   5.719 -0.2456 -0.8001 -0.7214
57412SOL    HW278842   5.903   3.013   5.843 -1.3188 -0.6723 -0.0521
57413SOL     OW78843  10.193   8.680   9.077 -0.0921  0.4301  0.6850
57413SOL    HW178844  10.285   8.705   9.069 -0.2615  0.5680 -1.3444
57413SOL    HW278845  10.147   8.741   9.020 -1.3025 -0.4123  0.7367
57414SOL     OW78846  12.775  10.384   1.127  0.0029  0.6178 -0.0276
57414SOL    HW178847  12.764  10.441   1.051  2.1471  1.3687  0.1371
57414SOL    HW278848  12.714  10.313   1.113  0.1181  0.8877 -2.3198
57415SOL     OW78849   6.485   3.574   1.282  0.1412  0.4256 -0.4773
57415SOL    HW178850   6.446   3.490   1.307 -3.2495  2.0998  0.5677
57415SOL    HW278851   6.486   3.624   1.364 -0.1892  2.1779 -1.5061
57416SOL     OW78852   7.002   4.623   5.329 -0.1759 -0.1617  0.1616
57416SOL    HW178853   6.944   4.677   5.383 -0.5969 -0.0361 -0.4023
57416SOL    HW278854   6.948   4.599   5.253  0.4726 -0.1666 -0.3032
57417SOL     OW78855   4.519   5.963   8.424 -0.3659 -0.3739  0.0101
57417SOL    HW178856   4.478   6.045   8.452 -1.6346 -1.2290  0.7504
57417SOL    HW278857   4.562   5.929   8.502 -1.5704 -1.3987  0.2479
57418SOL     OW78858   9.456  12.042  11.314  0.3538 -0.0652  0.8313
57418SOL    HW178859   9.498  11.999  11.240 -1.0513 -1.3326  0.7275
57418SOL    HW278860   9.419  12.122  11.277 -1.0376 -1.0827 -0.0788
57419SOL     OW78861   8.393   7.400   0.325  0.2450  0.3309  0.2052
57419SOL    HW178862   8.317   7.349   0.353  0.9490 -0.8463  0.0144
57419SOL    HW278863   8.356   7.475   0.278 -0.7805 -0.5935 -0.4872
57420SOL     OW78864   7.485   9.569   1.708  0.3694  0.9868  0.0688
57420SOL    HW178865   7.567   9.574   1.658 -0.3432  0.5075 -1.1699
57420SOL    HW278866   7.491   9.642   1.769  1.2674  1.5858 -0.7001
57421SOL     OW78867   0.012   6.701   7.995  0.3056  0.1858  0.4316
57421SOL    HW178868  -0.034   6.752   8.061 -0.3935 -0.6810  0.6239
57421SOL    HW278869   0.098   6.685   8.034 -0.6145 -1.6656  1.8610
57422SOL     OW78870  11.997   0.330   2.156 -0.5509  0.7610  0.0945
57422SOL    HW178871  11.935   0.395   2.187 -0.7395  0.4067  0.4697
57422SOL    HW278872  12.006   0.268   2.229  0.8172  1.2148  0.3521
57423SOL     OW78873   3.156   1.289   6.373  0.2650 -0.4425 -0.2816
57423SOL    HW178874   3.104   1.267   6.449  2.2506 -0.1611  1.2389
57423SOL    HW278875   3.187   1.205   6.339 -1.1350 -0.6130 -1.2182
57424SOL     OW78876   0.004   1.806   1.119 -0.3843 -0.1239  0.2838
57424SOL    HW178877   0.024   1.820   1.212 -1.5106 -1.1521  0.7089
57424SOL    HW278878  -0.091   1.795   1.116 -0.1716 -2.1979 -0.6674
57425SOL     OW78879   8.107   7.383   1.803  0.0331  0.1038  0.5121
57425SOL    HW178880   8.174   7.447   1.826  0.4017 -0.2957  0.5677
57425SOL    HW278881   8.099   7.388   1.708 -0.7960  1.0709  0.6116
57426SOL     OW78882   4.956   5.153   0.673 -0.1998  0.0141  0.2960
57426SOL    HW178883   4.903   5.127   0.749  1.1592 -0.0280  1.2787
57426SOL    HW278884   4.930   5.093   0.603 -0.5911 -0.7885  1.1110
57427SOL     OW78885  12.475   5.057   0.162 -0.3204  0.3544  0.0089
57427SOL    HW178886  12.550   5.093   0.114  1.9253 -1.2208  2.0474
57427SOL    HW278887  12.457   5.121   0.231 -0.7528  0.6565 -0.3822
57428SOL     OW78888   7.310  11.271   9.637  0.0353  0.1119 -0.0166
57428SOL    HW178889   7.349  11.356   9.659 -2.3424  1.1328  0.6082
57428SOL    HW278890   7.326  11.218   9.715  1.6874 -0.1373 -0.4739
57429SOL     OW78891   6.824   2.923   3.876 -0.0953 -0.2535 -0.7898
57429SOL    HW178892   6.820   2.925   3.781  1.1085 -1.0646 -0.8854
57429SOL    HW278893   6.743   2.965   3.905 -1.5385 -1.9263 -2.1669
57430SOL     OW78894   8.879   4.206   0.207 -0.0029 -0.1879  0.0069
57430SOL    HW178895   8.804   4.236   0.259 -0.3001 -1.5234  0.4145
57430SOL    HW278896   8.950   4.197   0.271  0.5014  1.0136 -0.3670
57431SOL     OW78897   8.248   0.258  10.456 -0.2577  0.7842  0.1518
57431SOL    HW178898   8.246   0.254  10.361 -0.4678  0.7861  0.1570
57431SOL    HW278899   8.324   0.313  10.476  0.4805 -0.1627  0.0118
57432SOL     OW78900   2.363  11.710   1.721  0.2625  0.2884  0.1028
57432SOL    HW178901   2.424  11.763   1.669  2.0686 -0.7223  1.0783
57432SOL    HW278902   2.415  11.680   1.796 -1.4911 -0.5451  1.0459
57433SOL     OW78903  10.600   0.119   0.059  0.0852  0.7346 -0.0761
57433SOL    HW178904  10.663   0.054   0.030 -1.1292 -0.9578  0.9235
57433SOL    HW278905  10.516   0.075   0.054 -0.5533  1.4399  2.6898
57434SOL     OW78906   1.309   3.018   2.991 -0.0016  0.4114 -0.3334
57434SOL    HW178907   1.397   2.981   2.994  0.0056  0.4849  0.5420
57434SOL    HW278908   1.263   2.965   2.927 -0.0469 -1.2503  1.0163
57435SOL     OW78909   5.630   1.618   2.282 -0.3248  0.1236 -0.1528
57435SOL    HW178910   5.666   1.614   2.194  0.6837 -0.5736  0.2748
57435SOL    HW278911   5.552   1.562   2.279 -0.2451  0.0339 -0.5694
57436SOL     OW78912  11.976   6.011  11.616  0.1734 -0.5538 -0.3239
57436SOL    HW178913  12.005   5.955  11.688  0.6762  2.2533  1.8606
57436SOL    HW278914  11.906   6.064  11.654  1.4496  2.0605 -1.3473
57437SOL     OW78915   8.868   5.929   1.004 -0.3552  0.1807  0.0362
57437SOL    HW178916   8.847   5.860   1.067  0.1667  0.3662  0.4213
57437SOL    HW278917   8.796   5.927   0.942 -1.3378  0.5523  1.1211
57438SOL     OW78918   1.975   5.886   7.296 -0.4929  0.5217  0.1605
57438SOL    HW178919   1.947   5.892   7.387 -1.4389 -1.4335  0.0448
57438SOL    HW278920   1.972   5.976   7.264  0.3111  1.3089  2.1707
57439SOL     OW78921   4.637   3.424   5.237 -0.1256  0.2639 -0.0904
57439SOL    HW178922   4.611   3.347   5.288  0.8111 -0.1136 -0.1669
57439SOL    HW278923   4.554   3.459   5.204 -0.6302 -0.2672  0.5732
57440SOL     OW78924   5.391   1.380   3.715  0.2607 -1.0020  0.5056
57440SOL    HW178925   5.303   1.386   3.752  0.8639 -0.0669  1.9175
57440SOL    HW278926   5.402   1.461   3.665  1.0811  0.0149  2.2368
57441SOL     OW78927   5.808   5.392   9.331  0.3880 -0.2623 -0.6422
57441SOL    HW178928   5.796   5.320   9.393  0.6866  0.4555  0.2650
57441SOL    HW278929   5.749   5.371   9.258 -0.1057 -1.0249 -0.0358
57442SOL     OW78930   8.917   4.827   1.401  0.1566 -0.3972 -0.2614
57442SOL    HW178931   8.958   4.816   1.486  0.0584  1.0627 -0.0053
57442SOL    HW278932   8.843   4.765   1.402 -0.3793  0.2455  1.0662
57443SOL     OW78933   7.412   4.447  10.328  0.4411 -0.0232  0.3321
57443SOL    HW178934   7.463   4.464  10.249 -0.4345  2.1159  0.1492
57443SOL    HW278935   7.353   4.375  10.304  1.8928 -1.1007 -0.1091
57444SOL     OW78936  11.359   6.571   0.104  0.0036 -0.7744  0.4729
57444SOL    HW178937  11.409   6.551   0.183  0.3780 -0.7583  0.2425
57444SOL    HW278938  11.278   6.521   0.114  0.0678 -0.8108  0.8444
57445SOL     OW78939   2.049   2.008   9.061 -0.0621  0.1782 -0.0528
57445SOL    HW178940   2.126   1.951   9.063 -0.1851 -0.0260 -0.7314
57445SOL    HW278941   2.082   2.093   9.034  0.0703  0.3519  0.6293
57446SOL     OW78942   4.457  10.892  11.861  0.3243  0.1174 -0.0117
57446SOL    HW178943   4.461  10.818  11.921 -1.0768  0.8456  1.0351
57446SOL    HW278944   4.509  10.960  11.904 -1.5321  0.9890  0.9481
57447SOL     OW78945   8.791  10.972   5.219  0.4707 -0.4584 -0.3263
57447SOL    HW178946   8.832  10.932   5.142  1.7797 -1.5898  0.8906
57447SOL    HW278947   8.807  11.066   5.209  1.0240 -0.6356 -1.2062
57448SOL     OW78948  12.217   1.076   6.021 -0.1888  0.1949 -0.6442
57448SOL    HW178949  12.265   1.023   6.085  0.1701  2.1065  0.7683
57448SOL    HW278950  12.137   1.102   6.065 -1.1789 -0.5435 -1.9346
57449SOL     OW78951  12.033   9.710  11.908 -0.3708 -0.0875  0.1215
57449SOL    HW178952  12.082   9.730  11.988  0.7975 -0.4623 -0.4788
57449SOL    HW278953  11.941   9.709  11.936  0.0566 -0.8842  1.5968
57450SOL     OW78954  12.233  10.766  10.379  0.4589  0.1159  0.0332
57450SOL    HW178955  12.166  10.834  10.375  0.9591  0.7501  1.5907
57450SOL    HW278956  12.278  10.782  10.462  2.1678 -0.6440 -0.6994
57451SOL     OW78957  10.321  12.236   9.148 -0.2798  0.4571 -0.5237
57451SOL    HW178958  10.344  12.317   9.194 -0.1425 -0.3801  0.9587
57451SOL    HW278959  10.316  12.170   9.218  0.5066 -1.0054 -1.8027
57452SOL     OW78960   8.546   9.197   0.175  0.0771 -0.1890 -0.0273
57452SOL    HW178961   8.569   9.289   0.189 -0.8410 -0.1709  1.5768
57452SOL    HW278962   8.615   9.163   0.118  0.5755  1.4193 -0.4250
57453SOL     OW78963   8.033   2.880  12.233 -0.2134 -0.2821 -0.4537
57453SOL    HW178964   7.995   2.793  12.218 -3.8951  1.2803 -1.5007
57453SOL    HW278965   8.047   2.915  12.145  2.1245 -0.0932 -0.0492
57454SOL     OW78966   4.501   9.866   1.388 -0.3260 -0.2048  0.7606
57454SOL    HW178967   4.582   9.865   1.439  0.5431 -1.5698 -0.5531
57454SOL    HW278968   4.525   9.908   1.306 -0.9175 -0.7403  0.3073
57455SOL     OW78969   8.611   1.150  12.481  0.3741 -0.2304  0.2661
57455SOL    HW178970   8.664   1.076  12.507  0.1913 -0.6870 -0.6316
57455SOL    HW278971   8.540   1.153  12.545  0.3436 -0.8698  0.2614
57456SOL     OW78972  11.961  10.521   7.473  0.2736  0.4885  0.4368
57456SOL    HW178973  12.002  10.596   7.515 -1.3732  0.8194  1.5385
57456SOL    HW278974  11.873  10.550   7.451 -0.5566 -1.2073  1.2797
57457SOL     OW78975  10.786   5.922   2.014 -0.2449 -0.3220  0.3789
57457SOL    HW178976  10.809   6.010   1.984  0.7254 -0.6198  0.1874
57457SOL    HW278977  10.745   5.881   1.938 -1.3837  0.1997  0.7013
57458SOL     OW78978   2.006   2.373   7.303  0.7720  0.1325  0.0633
57458SOL    HW178979   1.933   2.425   7.270 -1.3278 -1.4056  1.9342
57458SOL    HW278980   2.045   2.428   7.372  0.9574  0.6975 -0.4882
57459SOL     OW78981   3.451   0.556  10.745  0.0907  0.5916  0.3075
57459SOL    HW178982   3.536   0.539  10.785 -0.9355 -0.0111  2.4064
57459SOL    HW278983   3.467   0.553  10.651  2.2349 -0.2412  0.6467
57460SOL     OW78984   9.402   3.443  12.063 -0.6756  0.1910 -0.7383
57460SOL    HW178985   9.325   3.389  12.049  0.4929 -1.2720 -1.9072
57460SOL    HW278986   9.457   3.392  12.123 -0.3309  0.9104 -0.4272
57461SOL     OW78987  10.903  10.774   9.040  0.2673  0.4942 -0.3224
57461SOL    HW178988  10.931  10.734   8.958  1.7386 -1.7026  1.1469
57461SOL    HW278989  10.984  10.796   9.085 -0.3969 -0.9228  1.6966
57462SOL     OW78990   7.879   0.717   9.039 -0.7526 -0.3339  0.1938
57462SOL    HW178991   7.884   0.777   9.114  1.2678  1.1780 -1.0199
57462SOL    HW278992   7.795   0.673   9.049 -2.5605  2.9748  1.0128
57463SOL     OW78993   7.668  11.577  10.949 -0.0497  0.2037  0.2663
57463SOL    HW178994   7.739  11.512  10.944 -0.8386 -0.8402  1.8226
57463SOL    HW278995   7.656  11.606  10.859  1.9066 -0.0673 -0.1414
57464SOL     OW78996   5.306   0.780   0.669  0.0474  0.4999 -0.0202
57464SOL    HW178997   5.299   0.741   0.756 -1.7585 -1.3826 -0.9247
57464SOL    HW278998   5.373   0.728   0.624 -2.3108 -1.7706 -1.2026
57465SOL     OW78999   8.482   3.533  12.029  0.4099  0.0008  0.1423
57465SOL    HW179000   8.414   3.489  11.978  1.3292 -1.4882  0.1526
57465SOL    HW279001   8.443   3.548  12.115 -0.2838  0.2124 -0.2066
57466SOL     OW79002  12.537   4.853   8.393 -0.6796 -0.3930  0.7986
57466SOL    HW179003  12.512   4.924   8.333  1.7233 -2.0116 -2.4495
57466SOL    HW279004  12.474   4.783   8.373  0.6337 -1.2342 -0.5949
57467SOL     OW79005   0.388   0.853   3.995 -0.0558  0.6923 -0.0825
57467SOL    HW179006   0.397   0.928   4.055  0.5295 -0.3232  1.1363
57467SOL    HW279007   0.314   0.876   3.940  0.6292  2.5680 -0.3269
57468SOL     OW79008   4.511   7.502   7.389 -0.2616 -0.1060  0.1314
57468SOL    HW179009   4.434   7.448   7.407  0.2103 -0.2555  1.8538
57468SOL    HW279010   4.566   7.493   7.467  0.9604  0.9442 -0.5616
57469SOL     OW79011   3.397  12.312  11.601  0.7120 -0.4408  0.4392
57469SOL    HW179012   3.455  12.235  11.604 -1.0450 -1.8734 -0.5442
57469SOL    HW279013   3.309  12.276  11.593 -0.1333  1.7094 -0.8101
57470SOL     OW79014  10.907   4.368   1.409  0.1132  0.2351  0.3462
57470SOL    HW179015  10.934   4.452   1.448 -1.3483  0.9569 -0.1272
57470SOL    HW279016  10.895   4.310   1.484  0.3943  0.6706  0.7396
57471SOL     OW79017   5.740   5.639   1.955  0.0952 -0.0122 -0.3432
57471SOL    HW179018   5.703   5.678   1.875 -1.3970 -0.9988 -0.1691
57471SOL    HW279019   5.823   5.685   1.967 -0.3924  1.2853 -1.5732
57472SOL     OW79020   9.260   2.663  11.635 -0.2125 -0.1402 -0.8327
57472SOL    HW179021   9.302   2.614  11.705  2.2884  0.7505 -1.6293
57472SOL    HW279022   9.222   2.739  11.678  0.8525  0.1291 -0.3426
57473SOL     OW79023   2.667   0.098   4.154  0.3048 -0.0612  0.5903
57473SOL    HW179024   2.686   0.021   4.207  0.8849  0.0160  0.5034
57473SOL    HW279025   2.748   0.150   4.157 -0.4743  1.1341  1.6335
57474SOL     OW79026   3.009   2.991   2.161  0.2394  0.4039 -0.2526
57474SOL    HW179027   2.997   2.964   2.070 -0.9577  0.6840 -0.2033
57474SOL    HW279028   2.920   2.992   2.197  0.6628  0.6308  0.8228
57475SOL     OW79029   8.771   2.755   0.815 -0.0908 -0.2819 -0.0895
57475SOL    HW179030   8.838   2.822   0.831 -1.3791  1.2672 -0.8578
57475SOL    HW279031   8.707   2.767   0.886 -1.3245  0.6898 -1.2979
57476SOL     OW79032  11.380   7.448   3.779 -0.3340  0.4943 -0.5791
57476SOL    HW179033  11.438   7.476   3.708  1.8059 -0.1031  0.8484
57476SOL    HW279034  11.422   7.480   3.858 -1.6465 -0.5095  0.5678
57477SOL     OW79035  10.720   3.372   4.500  0.3141 -0.2654 -0.4923
57477SOL    HW179036  10.628   3.395   4.486 -0.1202 -0.6323  1.4116
57477SOL    HW279037  10.761   3.454   4.528  0.1638 -0.4636  0.3251
57478SOL     OW79038   4.905  11.839  11.935 -0.3832 -0.6261 -0.0241
57478SOL    HW179039   4.879  11.760  11.887  1.0672 -1.0534 -0.1545
57478SOL    HW279040   4.973  11.878  11.881  1.1482 -1.0082  1.5350
57479SOL     OW79041   4.589  12.009   0.014  0.0903  0.6711  0.0296
57479SOL    HW179042   4.560  11.982   0.101  0.1269 -0.5185 -0.3082
57479SOL    HW279043   4.683  11.994   0.014  0.1030  0.7456 -0.1883
57480SOL     OW79044  10.965  10.464  11.374  0.0391  0.6163 -0.3180
57480SOL    HW179045  11.016  10.539  11.344  1.2092  0.6422  1.5499
57480SOL    HW279046  10.947  10.483  11.466 -0.4568 -0.9642 -0.0627
57481SOL     OW79047  12.560  12.208   9.980  0.4312 -0.4403 -0.1085
57481SOL    HW179048  12.545  12.282   9.921  0.5194  0.7561  1.2860
57481SOL    HW279049  12.552  12.247  10.068  0.3792 -2.1235  0.6618
57482SOL     OW79050   6.922   3.751   3.864  0.3312 -0.6053 -0.3851
57482SOL    HW179051   6.840   3.753   3.914  1.3980 -1.9286  1.5704
57482SOL    HW279052   6.937   3.842   3.839 -1.3123 -0.2228 -0.0812
57483SOL     OW79053  10.208   9.664   8.589 -0.4892 -0.1541 -0.5111
57483SOL    HW179054  10.227   9.675   8.496 -0.0510  1.8649 -0.2274
57483SOL    HW279055  10.244   9.743   8.630  0.2572 -1.4900  1.5168
57484SOL     OW79056   3.463   3.948  11.216  0.1651 -0.1334 -0.9936
57484SOL    HW179057   3.393   4.000  11.255 -1.3100 -2.7791  0.1152
57484SOL    HW279058   3.535   3.954  11.279 -0.5385 -0.6069 -0.1216
57485SOL     OW79059   8.493   4.981   3.933 -0.1758 -0.1074 -0.4911
57485SOL    HW179060   8.515   5.074   3.934 -0.9142  0.1169 -1.7713
57485SOL    HW279061   8.530   4.948   3.850 -0.1737 -0.8862 -0.1930
57486SOL     OW79062   6.802  10.633  10.764  0.3750  0.3230  0.2195
57486SOL    HW179063   6.718  10.650  10.723  0.4674 -0.4920 -0.3332
57486SOL    HW279064   6.781  10.583  10.843  0.4529 -1.9497 -1.1215
57487SOL     OW79065   4.453  10.312   7.428 -0.7181  0.1568 -0.6610
57487SOL    HW179066   4.503  10.371   7.371  1.6871  1.2216  2.2425
57487SOL    HW279067   4.514  10.239   7.445 -0.9879  0.3142  1.1586
57488SOL     OW79068   1.911  11.659   0.663  0.2196 -0.7423 -0.2263
57488SOL    HW179069   1.937  11.650   0.755 -0.4420 -0.6209 -0.0255
57488SOL    HW279070   1.976  11.718   0.625 -1.5012  2.1722  1.0351
57489SOL     OW79071   4.467   9.607   6.380 -0.4399 -0.5952  0.0180
57489SOL    HW179072   4.450   9.701   6.374  1.3825 -0.3092 -1.7120
57489SOL    HW279073   4.517   9.587   6.302 -2.1596 -3.3697 -0.5017
57490SOL     OW79074   0.160   7.678   8.647 -0.1720  0.0207 -0.5586
57490SOL    HW179075   0.202   7.737   8.710 -0.0978 -1.8025  1.2065
57490SOL    HW279076   0.233   7.631   8.606 -0.2707  0.5236 -1.3224
57491SOL     OW79077   7.634   7.682   9.292  0.0586  0.3470 -0.1537
57491SOL    HW179078   7.543   7.668   9.320  0.0887 -2.3034 -1.1108
57491SOL    HW279079   7.639   7.775   9.272 -2.2925  0.6617  0.4160
57492SOL     OW79080   1.209   6.356   8.289 -0.0879 -0.4289 -0.0609
57492SOL    HW179081   1.177   6.436   8.329  1.6749  0.8722 -1.1060
57492SOL    HW279082   1.151   6.342   8.214  0.2540  0.5016 -0.5086
57493SOL     OW79083   1.459   5.910  10.641 -0.0366 -0.0530  0.0089
57493SOL    HW179084   1.481   5.876  10.728 -0.5250 -1.2959 -0.3295
57493SOL    HW279085   1.407   5.841  10.601 -0.6023  0.8917 -0.9358
57494SOL     OW79086   1.545   8.292   0.881  0.3137  0.5059  0.0574
57494SOL    HW179087   1.527   8.203   0.850  0.9288  0.3826  0.0397
57494SOL    HW279088   1.639   8.293   0.897  0.7957  1.9019 -2.3542
57495SOL     OW79089   2.376   8.781   5.144 -0.2139 -0.5378 -0.0617
57495SOL    HW179090   2.334   8.701   5.177  0.7781 -1.6287 -1.3154
57495SOL    HW279091   2.464   8.779   5.182 -0.1324 -0.1268 -0.2265
57496SOL     OW79092   1.870   1.058   1.346 -0.0674  0.0990  0.2376
57496SOL    HW179093   1.904   1.055   1.257  1.0684  1.7100  0.5750
57496SOL    HW279094   1.794   0.999   1.345  1.5623 -2.1330 -1.0325
57497SOL     OW79095   9.192   6.002   0.418  0.0951  0.5440  0.6659
57497SOL    HW179096   9.251   6.038   0.351  1.6895 -4.3224 -1.0058
57497SOL    HW279097   9.249   5.983   0.492 -0.2878 -0.2131  0.7687
57498SOL     OW79098   8.689   6.306  10.970 -0.4789 -0.8195  0.0327
57498SOL    HW179099   8.746   6.313  10.893 -1.4415  0.9844 -0.5709
57498SOL    HW279100   8.691   6.392  11.010 -1.6899 -1.1165  0.7919
57499SOL     OW79101   2.411   1.031  11.867 -0.5677 -0.3441 -0.1346
57499SOL    HW179102   2.391   1.124  11.876  0.5879  0.0819 -1.5684
57499SOL    HW279103   2.381   1.008  11.779  0.0961 -1.0616 -0.1828
57500SOL     OW79104  12.604   0.463  12.258  0.0174 -0.0053 -0.5036
57500SOL    HW179105  12.530   0.490  12.313 -0.2537  0.3778 -1.0411
57500SOL    HW279106  12.602   0.368  12.260 -0.0625  0.0054  0.0562
57501SOL     OW79107  11.593  11.622   1.831 -0.3349  0.0287 -0.1938
57501SOL    HW179108  11.534  11.597   1.902 -2.1095 -0.2840 -1.7086
57501SOL    HW279109  11.655  11.548   1.824  0.9566  0.7989  2.0466
57502SOL     OW79110   5.486   5.282   9.406  0.0420 -0.1954  0.5993
57502SOL    HW179111   5.415   5.219   9.399 -0.4995  0.5334 -0.7837
57502SOL    HW279112   5.443   5.367   9.410  0.8247  0.2315  0.1905
57503SOL     OW79113   4.743   2.767   5.603 -0.0864 -0.1736 -0.5969
57503SOL    HW179114   4.836   2.774   5.625  0.1113 -1.7648 -0.8068
57503SOL    HW279115   4.716   2.683   5.641 -1.5188  0.3927 -0.3010
57504SOL     OW79116   0.380  12.483   7.551 -0.0796  0.2938 -0.3867
57504SOL    HW179117   0.410  12.558   7.500  2.4463 -0.0283  0.4744
57504SOL    HW279118   0.396  12.507   7.642 -0.6235 -0.7246 -0.0003
57505SOL     OW79119   0.131   9.538   8.531  0.0081  0.2508  0.2963
57505SOL    HW179120   0.052   9.501   8.571 -0.3643  0.6034 -0.1029
57505SOL    HW279121   0.128   9.631   8.554 -0.8531  0.7184 -1.5320
57506SOL     OW79122  10.617  11.589  10.715  0.7178 -0.0038  0.5100
57506SOL    HW179123  10.547  11.650  10.691  1.5727  1.2822  1.1669
57506SOL    HW279124  10.672  11.584  10.637  1.6607  1.5634  1.0203
57507SOL     OW79125   5.805   2.536   5.453 -0.7176  0.5755  0.2224
57507SOL    HW179126   5.753   2.568   5.527 -1.2007  0.0961  0.0966
57507SOL    HW279127   5.882   2.593   5.451  0.7921 -1.1896  2.8672
57508SOL     OW79128  12.398   0.169   8.959  0.1375 -0.2043  0.5497
57508SOL    HW179129  12.452   0.166   9.038  0.2753  0.2530  0.4709
57508SOL    HW279130  12.459   0.188   8.888 -0.2907  1.6255  0.6236
57509SOL     OW79131   9.009   1.411   8.769  0.6319  0.5008  0.4308
57509SOL    HW179132   9.076   1.350   8.799  0.0846  0.1493  0.9582
57509SOL    HW279133   8.956   1.430   8.847  0.7284  1.5644  0.2521
57510SOL     OW79134   4.182   2.618   5.601 -0.0522  0.7691 -0.2482
57510SOL    HW179135   4.256   2.654   5.553  0.5192 -1.1240 -0.8953
57510SOL    HW279136   4.130   2.572   5.535  0.2257 -1.0781  0.7446
57511SOL     OW79137   0.311   6.513   3.212  0.0616 -0.1342  0.1324
57511SOL    HW179138   0.362   6.517   3.293 -0.1797  0.6132  0.2533
57511SOL    HW279139   0.223   6.542   3.238 -0.6193 -1.9665  0.0663
57512SOL     OW79140   2.730  10.837   8.187  0.3144  0.3665  0.0183
57512SOL    HW179141   2.737  10.910   8.249  1.3932 -0.9464  1.5036
57512SOL    HW279142   2.808  10.845   8.132  0.3096  0.4600  0.0242
57513SOL     OW79143   9.582   9.639  11.532 -0.1611 -0.2803  0.2997
57513SOL    HW179144   9.578   9.645  11.627 -0.1992  1.6997  0.1995
57513SOL    HW279145   9.527   9.710  11.500  1.4244  0.3491 -1.1838
57514SOL     OW79146   8.638   6.383   2.794  0.8189 -0.5720  0.2220
57514SOL    HW179147   8.566   6.428   2.838 -0.6456 -1.2333 -1.3884
57514SOL    HW279148   8.663   6.441   2.723  0.1569 -1.4356 -0.7430
57515SOL     OW79149  12.746   5.094   4.583  0.6478 -0.0731 -0.0227
57515SOL    HW179150  12.658   5.073   4.616  1.1723 -0.8830  0.9152
57515SOL    HW279151  12.763   5.183   4.613 -0.2253  0.4618 -1.0462
57516SOL     OW79152   4.766  10.677   2.790  0.0156 -1.0549 -0.0030
57516SOL    HW179153   4.694  10.719   2.838  0.8978 -1.1278  1.4527
57516SOL    HW279154   4.757  10.584   2.811  0.6953 -1.0299  0.4313
57517SOL     OW79155   7.783   6.612  12.341  0.3277 -0.4955  0.1851
57517SOL    HW179156   7.739   6.636  12.259  2.1263  2.3435 -0.1052
57517SOL    HW279157   7.827   6.530  12.322 -0.9889 -0.9692 -0.9914
57518SOL     OW79158   5.965   0.892   5.394 -0.7730 -0.3847 -0.4116
57518SOL    HW179159   5.882   0.848   5.412  0.0987 -1.8263  0.3162
57518SOL    HW279160   5.976   0.953   5.467 -0.4966 -1.2857  0.3218
57519SOL     OW79161  11.705  11.036   9.701  0.0312 -0.0980 -0.1833
57519SOL    HW179162  11.656  10.954   9.711 -1.0409  0.4088 -1.1039
57519SOL    HW279163  11.794  11.013   9.728 -0.7113 -0.9986  1.7270
57520SOL     OW79164   6.551   4.398  12.488 -0.7501  0.2104 -0.4468
57520SOL    HW179165   6.500   4.363  12.561 -1.1650  1.2120 -0.2461
57520SOL    HW279166   6.641   4.375  12.509 -1.0042 -0.7111 -0.3116
57521SOL     OW79167   9.214   4.408   8.896 -0.1378  0.1259 -0.1464
57521SOL    HW179168   9.248   4.497   8.889  0.1437 -0.0321 -0.7731
57521SOL    HW279169   9.156   4.412   8.973  1.5564  0.3010  1.1943
57522SOL     OW79170   2.912   0.489   2.206  0.2130  0.3149 -0.6551
57522SOL    HW179171   2.829   0.447   2.180  0.0491 -0.6620  1.2604
57522SOL    HW279172   2.920   0.564   2.148 -1.3900 -0.2808 -1.7208
57523SOL     OW79173   1.901   1.000   5.813  0.3492  0.7855  0.3434
57523SOL    HW179174   1.869   0.951   5.737  0.0214 -0.2222  1.1111
57523SOL    HW279175   1.832   1.065   5.829 -0.1591  0.2194  0.5036
57524SOL     OW79176  12.087   3.485  12.189  0.6020  0.2311  0.0594
57524SOL    HW179177  11.993   3.479  12.206  0.4553  2.3062  0.3055
57524SOL    HW279178  12.096   3.469  12.096 -0.2126  1.4767 -0.2545
57525SOL     OW79179   6.579   7.168   7.276 -0.1550 -0.0618  0.1449
57525SOL    HW179180   6.494   7.207   7.255  0.2771  0.2990 -1.0568
57525SOL    HW279181   6.631   7.240   7.313 -0.8966 -0.6869  2.5274
57526SOL     OW79182  12.424   7.911  11.664  0.2851  0.3989 -0.1510
57526SOL    HW179183  12.359   7.858  11.619 -0.9328  1.3062  0.4860
57526SOL    HW279184  12.504   7.899  11.613 -0.9912  1.2804 -2.5411
57527SOL     OW79185  10.859   3.087  11.643 -0.3302  0.3483  0.7137
57527SOL    HW179186  10.782   3.045  11.605 -0.9668  2.0350  0.0661
57527SOL    HW279187  10.895   3.139  11.571  1.8665 -0.9559  0.7717
57528SOL     OW79188   1.326   5.540   7.067 -0.3976 -0.2786 -0.0767
57528SOL    HW179189   1.415   5.511   7.085 -0.8680 -1.5375  0.2703
57528SOL    HW279190   1.312   5.613   7.128  0.6476  0.4605 -0.6764
57529SOL     OW79191   0.414   0.499   2.190  0.3791  0.7138 -0.0532
57529SOL    HW179192   0.370   0.569   2.238 -0.8249 -0.4780  0.6666
57529SOL    HW279193   0.365   0.492   2.108 -2.3718 -2.0554  1.6315
57530SOL     OW79194   0.701   2.128   4.746  0.4450 -0.0039 -0.3156
57530SOL    HW179195   0.762   2.174   4.804 -0.2564 -0.8259  1.1133
57530SOL    HW279196   0.752   2.057   4.709 -0.0909 -2.0583  2.5676
57531SOL     OW79197   2.506   9.360   3.315 -0.2628 -0.4521 -0.0821
57531SOL    HW179198   2.485   9.359   3.408 -0.7380 -0.4723 -0.1849
57531SOL    HW279199   2.517   9.453   3.294 -0.0340 -0.4560  0.0188
57532SOL     OW79200  10.442  12.443   1.134 -0.1681 -0.1115  0.9400
57532SOL    HW179201  10.484  12.395   1.063 -0.9780  2.3924 -1.3915
57532SOL    HW279202  10.491  12.418   1.212  1.9571 -1.5991 -0.7545
57533SOL     OW79203   0.714  12.709   8.709 -0.2962 -0.3792  0.1750
57533SOL    HW179204   0.762  12.628   8.690  0.4779 -0.2496  1.5088
57533SOL    HW279205   0.763  12.777   8.663  0.7104 -0.2816  1.3344
57534SOL     OW79206   5.178  10.958   7.319 -0.1711  0.0692  0.0171
57534SOL    HW179207   5.226  10.946   7.237  0.3753  2.0837 -0.0027
57534SOL    HW279208   5.237  10.927   7.387  0.8603  1.6663 -0.0883
57535SOL     OW79209  10.506   0.981   5.615 -0.3039 -0.0658  0.3750
57535SOL    HW179210  10.425   0.968   5.565  0.0077  0.0770 -0.1690
57535SOL    HW279211  10.528   1.073   5.601 -0.9014  0.3201  1.8164
57536SOL     OW79212   5.892   9.247   9.316  0.8487  0.3640  0.2261
57536SOL    HW179213   5.899   9.193   9.395 -0.2936 -1.0677 -0.5939
57536SOL    HW279214   5.860   9.332   9.347  0.2617 -0.2264  1.2922
57537SOL     OW79215   6.992   0.875   2.996  0.0465  0.2118 -0.1882
57537SOL    HW179216   6.976   0.791   2.953 -0.6181 -0.5957  1.5222
57537SOL    HW279217   7.007   0.936   2.924  0.5075 -1.3456 -1.4888
57538SOL     OW79218  12.123   7.425   5.207 -0.8668 -0.3776 -0.5856
57538SOL    HW179219  12.113   7.410   5.113 -2.5518 -1.4713 -0.2762
57538SOL    HW279220  12.081   7.510   5.222 -2.6632 -1.2247 -0.5355
57539SOL     OW79221   4.782  12.414   6.592 -0.0985 -1.1337 -0.5129
57539SOL    HW179222   4.742  12.496   6.564 -1.2645 -1.4685  0.1255
57539SOL    HW279223   4.832  12.437   6.670  2.2791 -0.4153 -2.1353
57540SOL     OW79224   9.463   2.449   2.798 -0.5982  0.0973  0.0310
57540SOL    HW179225   9.483   2.478   2.886  0.1388  0.7489 -0.3360
57540SOL    HW279226   9.529   2.383   2.778 -2.6364 -2.4070  1.0900
57541SOL     OW79227  10.929   3.095   8.269  0.5444  0.2031  0.4629
57541SOL    HW179228  10.836   3.118   8.260  0.4634 -0.4878 -0.6175
57541SOL    HW279229  10.938   3.069   8.360 -0.5551 -0.6903  0.3368
57542SOL     OW79230   0.045   1.799   1.387  0.0094  0.2353  0.3178
57542SOL    HW179231  -0.021   1.789   1.457 -1.2583  1.5798 -0.6207
57542SOL    HW279232   0.101   1.870   1.418 -0.1199  0.3527  0.2833
57543SOL     OW79233   6.444   5.294   1.336  0.1910 -1.1724 -0.0716
57543SOL    HW179234   6.454   5.365   1.398 -2.1626  0.1780 -1.1235
57543SOL    HW279235   6.459   5.214   1.387  3.2050 -0.0384  1.0729
57544SOL     OW79236   1.451   2.501  10.834  0.1202 -0.1975  0.3454
57544SOL    HW179237   1.507   2.468  10.764  0.1842 -0.4373  0.5094
57544SOL    HW279238   1.453   2.433  10.901  0.0657  0.0350  0.5861
57545SOL     OW79239   4.966   1.694   7.787 -0.0358  0.1006 -0.4469
57545SOL    HW179240   4.965   1.715   7.881  0.5961 -0.5278 -0.2852
57545SOL    HW279241   4.926   1.607   7.782 -0.5344  0.3510 -0.8256
57546SOL     OW79242   0.206   9.324   4.885 -0.2033  0.2042 -0.3227
57546SOL    HW179243   0.291   9.341   4.927 -0.5941 -0.3114  0.7151
57546SOL    HW279244   0.229   9.289   4.798  0.6700 -0.5239  0.1839
57547SOL     OW79245   7.868   8.625  10.838 -0.2707 -0.0730  0.4900
57547SOL    HW179246   7.796   8.621  10.776 -0.0977  0.4872  0.2434
57547SOL    HW279247   7.913   8.541  10.830  1.9311  1.2375 -2.7929
57548SOL     OW79248   8.191   9.651   6.439  0.9208 -1.5490  0.8004
57548SOL    HW179249   8.211   9.662   6.532  0.0084 -0.1081  0.8584
57548SOL    HW279250   8.216   9.735   6.399  0.5578 -1.8670 -0.1193
57549SOL     OW79251   3.324   1.128  10.523 -0.2657 -0.1977 -0.2844
57549SOL    HW179252   3.261   1.084  10.466 -0.3235 -1.6654  0.8317
57549SOL    HW279253   3.386   1.059  10.546  0.6360  0.7483  0.1969
57550SOL     OW79254  11.895   8.325   6.859 -0.5441  0.1620 -0.4254
57550SOL    HW179255  11.969   8.341   6.918 -0.2816  0.8480 -0.9275
57550SOL    HW279256  11.828   8.286   6.915  0.1900 -0.4674  0.0395
57551SOL     OW79257   2.378   6.182   9.665  0.4189  1.0551  0.3645
57551SOL    HW179258   2.333   6.217   9.588 -0.3024  0.8882  0.7091
57551SOL    HW279259   2.407   6.095   9.638 -0.4577  0.7144  0.5135
57552SOL     OW79260  10.684   1.863  12.768  0.0600  0.1513 -0.2086
57552SOL    HW179261  10.654   1.800  12.702  0.5641  1.3730 -1.6548
57552SOL    HW279262  10.750   1.915  12.723  0.8972  0.6142  1.4868
57553SOL     OW79263   9.861   8.909   4.170 -0.4785  0.0690 -0.3679
57553SOL    HW179264   9.811   8.969   4.115  0.5280 -0.1128 -1.5344
57553SOL    HW279265   9.926   8.871   4.111 -0.3346 -1.2969  0.6082
57554SOL     OW79266   4.014   9.823   1.217  0.7817  0.2683 -0.6388
57554SOL    HW179267   3.941   9.801   1.158  0.8794 -0.6852 -0.4213
57554SOL    HW279268   3.971   9.851   1.298  0.5590 -2.6481  0.3830
57555SOL     OW79269   8.260   1.943   3.347  0.4329  0.3822 -0.2277
57555SOL    HW179270   8.313   1.902   3.278 -0.3653 -1.0493 -0.0418
57555SOL    HW279271   8.322   1.996   3.397  1.4063 -0.0981 -0.8883
57556SOL     OW79272   9.850   5.065   6.776 -0.2585 -0.0632 -0.5538
57556SOL    HW179273   9.800   5.047   6.697 -1.6687 -0.5309  0.4169
57556SOL    HW279274   9.883   4.980   6.804 -0.8981 -0.1180  0.0778
57557SOL     OW79275   7.274   0.011  10.534 -0.4861 -0.5290 -0.1437
57557SOL    HW179276   7.343   0.059  10.487 -0.7580  1.5824  1.4443
57557SOL    HW279277   7.292   0.030  10.627 -2.3058 -1.1953  0.3720
57558SOL     OW79278   0.104  11.126   8.751 -0.5600 -0.1005 -0.6953
57558SOL    HW179279   0.140  11.196   8.806 -1.7188  0.0049 -0.0366
57558SOL    HW279280   0.178  11.067   8.736  0.2146  0.7955 -0.5214
57559SOL     OW79281   6.213   4.317   4.785  0.2472 -0.2090 -0.1798
57559SOL    HW179282   6.296   4.269   4.794  0.3347 -0.0226  0.0028
57559SOL    HW279283   6.167   4.302   4.867  1.0772  1.5385  0.6740
57560SOL     OW79284  12.724   7.233   6.689 -0.3392 -0.4339 -0.2320
57560SOL    HW179285  12.807   7.270   6.659 -0.7179  0.0983 -0.6426
57560SOL    HW279286  12.716   7.260   6.780 -0.9245  1.0879 -0.7076
57561SOL     OW79287   9.914  11.767   2.659  0.0810 -0.2531 -0.1037
57561SOL    HW179288   9.945  11.738   2.745  0.5691  0.7225  0.0715
57561SOL    HW279289   9.927  11.691   2.602 -0.6248 -1.0453  0.7575
57562SOL     OW79290   1.314   8.255   9.927  0.6736  0.4405 -0.4860
57562SOL    HW179291   1.263   8.319   9.977  0.5490 -0.7453  0.9671
57562SOL    HW279292   1.320   8.179   9.985 -0.2261 -1.3426 -2.6325
57563SOL     OW79293  11.481  10.058  11.087 -0.2083  0.1503  0.0546
57563SOL    HW179294  11.409   9.995  11.094 -2.0055  2.1601  0.6155
57563SOL    HW279295  11.467  10.101  11.003  0.5323  0.3524  0.0291
57564SOL     OW79296  10.042   2.842  12.424  0.0418 -0.3116  0.4280
57564SOL    HW179297   9.996   2.912  12.378 -0.3477 -0.2154  0.9567
57564SOL    HW279298  10.086   2.793  12.355 -1.8997 -1.1913 -0.2517
57565SOL     OW79299   5.018  10.418  10.463 -0.1756  0.3828 -0.1677
57565SOL    HW179300   5.040  10.334  10.502 -1.1040  0.2553  0.1237
57565SOL    HW279301   5.101  10.463  10.452  0.2002 -0.0146  0.9566
57566SOL     OW79302   2.507  10.318   6.604  0.2842 -0.5980  0.2819
57566SOL    HW179303   2.467  10.336   6.689  0.3397 -0.2401  0.2314
57566SOL    HW279304   2.594  10.282   6.626  0.8220  0.7010  0.3709
57567SOL     OW79305   2.148   1.563   7.676 -0.1987 -0.1141 -0.2418
57567SOL    HW179306   2.098   1.490   7.712  0.3496  0.3072  1.4532
57567SOL    HW279307   2.240   1.535   7.684 -0.0477  0.1736 -0.9245
57568SOL     OW79308   0.288   4.424   3.536 -0.2971  0.1369 -0.0750
57568SOL    HW179309   0.266   4.506   3.582 -0.1476 -0.0784  0.3868
57568SOL    HW279310   0.274   4.356   3.602 -2.3283 -0.4326 -1.0076
57569SOL     OW79311   3.078   1.208   8.951 -0.1246  0.4642 -0.0372
57569SOL    HW179312   2.990   1.172   8.968 -1.3565  3.1678 -0.1623
57569SOL    HW279313   3.137   1.151   9.001 -2.1143 -0.3969  1.4915
57570SOL     OW79314   7.337  12.757   6.059  0.1582  0.5488 -0.6113
57570SOL    HW179315   7.315  12.765   5.966 -1.2392  2.2765 -0.1806
57570SOL    HW279316   7.260  12.715   6.098  0.3479  0.6759 -0.0861
57571SOL     OW79317   6.579   1.570   7.888  0.2946 -0.2124 -0.3650
57571SOL    HW179318   6.640   1.637   7.917 -0.1206  0.0698 -0.1312
57571SOL    HW279319   6.575   1.508   7.961 -1.1036  0.7386  0.4186
57572SOL     OW79320  10.119   8.903   6.065 -0.3605  0.1252  0.2836
57572SOL    HW179321  10.099   8.811   6.076 -0.6668  0.0571 -0.7343
57572SOL    HW279322  10.198   8.917   6.118 -0.0349 -0.8247  0.0684
57573SOL     OW79323   6.995   8.214   3.037 -0.6666 -0.2102  0.8651
57573SOL    HW179324   6.950   8.174   2.963 -0.4791 -0.0162  0.6446
57573SOL    HW279325   7.078   8.167   3.044  0.1173  0.9440 -0.1872
57574SOL     OW79326   4.076   3.407   5.756  0.6781  0.2518 -0.1269
57574SOL    HW179327   3.987   3.440   5.744  0.2870 -0.6032  0.3639
57574SOL    HW279328   4.105   3.386   5.667 -0.2945 -1.1681 -0.1408
57575SOL     OW79329   9.429   0.559   8.728  0.0186 -0.2508  0.1835
57575SOL    HW179330   9.477   0.641   8.741  1.2910 -0.9655  0.1380
57575SOL    HW279331   9.414   0.526   8.817 -1.2846  0.4459  0.2489
57576SOL     OW79332  10.643   3.871  10.319 -0.1839 -0.1138 -0.0097
57576SOL    HW179333  10.557   3.831  10.331  0.3216 -1.9636 -1.9361
57576SOL    HW279334  10.687   3.816  10.254  2.6949  0.4212  1.3013
57577SOL     OW79335   8.599   2.532   3.205  0.0449  0.0475  0.0365
57577SOL    HW179336   8.589   2.461   3.142  1.4724 -0.0784 -0.0863
57577SOL    HW279337   8.673   2.583   3.171  1.3772 -0.4681  1.9725
57578SOL     OW79338  11.131   8.008   5.787 -0.0241  0.1003  0.0751
57578SOL    HW179339  11.126   7.962   5.870  0.5652 -1.6678 -0.8202
57578SOL    HW279340  11.220   8.044   5.785 -0.3844  1.0610  0.6403
57579SOL     OW79341   1.738   6.411   7.220 -0.3355 -1.1490 -0.7850
57579SOL    HW179342   1.805   6.476   7.201  0.3064 -1.3965  0.4666
57579SOL    HW279343   1.659   6.445   7.178  0.0220  0.3531 -0.3239
57580SOL     OW79344   2.182  12.500   1.290 -0.5123 -0.0678  0.2304
57580SOL    HW179345   2.216  12.454   1.367  1.9493  1.6885  0.3239
57580SOL    HW279346   2.142  12.580   1.325  0.3899  0.6180 -0.2518
57581SOL     OW79347   2.785   1.514   1.512  0.5269  0.3154 -0.3747
57581SOL    HW179348   2.851   1.463   1.464  0.5988 -0.6272  0.6697
57581SOL    HW279349   2.835   1.583   1.555  0.6736  0.2991 -0.5207
57582SOL     OW79350   0.607   2.002   9.085 -0.2030  0.0966 -0.5590
57582SOL    HW179351   0.647   1.962   9.162  0.3028  0.6911 -0.5156
57582SOL    HW279352   0.586   2.091   9.112  0.4080  0.4569 -1.2505
57583SOL     OW79353   6.713   7.116  10.079 -0.0478 -0.0394 -0.0198
57583SOL    HW179354   6.676   7.173  10.148  1.1719 -0.4275  0.9917
57583SOL    HW279355   6.806   7.113  10.099  0.5775  0.8518 -2.4621
57584SOL     OW79356   4.946   8.840  12.401 -0.1284 -0.2200  0.4248
57584SOL    HW179357   4.966   8.884  12.318 -2.0242 -0.8314 -0.4011
57584SOL    HW279358   4.996   8.889  12.467  0.6914  0.8447 -0.9482
57585SOL     OW79359   1.652  10.862   4.290 -0.0701 -0.3232  0.7017
57585SOL    HW179360   1.634  10.938   4.345 -1.5696  1.2693 -1.7451
57585SOL    HW279361   1.743  10.872   4.263 -0.0693  0.2656  0.9180
57586SOL     OW79362   8.331   3.636  10.068  0.1788  0.3088 -0.3322
57586SOL    HW179363   8.265   3.705  10.076 -1.4678 -1.2469  0.0859
57586SOL    HW279364   8.281   3.555  10.070  2.1763 -0.9746  0.7390
57587SOL     OW79365   6.706   0.420   3.951 -0.1076 -0.2569  0.2240
57587SOL    HW179366   6.778   0.464   3.904  0.7076 -2.0091 -0.2700
57587SOL    HW279367   6.657   0.376   3.882 -0.2537 -0.9898  0.7897
57588SOL     OW79368   6.633  11.812   3.703 -0.2571  0.4054 -0.2572
57588SOL    HW179369   6.647  11.901   3.734 -0.5645  0.8014 -1.2046
57588SOL    HW279370   6.617  11.822   3.609 -2.1663 -0.4354 -0.0709
57589SOL     OW79371   2.019   6.652   6.129  0.0076  0.2658 -0.6246
57589SOL    HW179372   2.084   6.585   6.145 -0.4022  0.1351  0.5964
57589SOL    HW279373   1.960   6.613   6.064  0.3861 -0.1223 -0.7409
57590SOL     OW79374  11.988   7.855  10.957 -0.3187  0.3661 -0.0139
57590SOL    HW179375  12.071   7.895  10.930 -0.6556  0.6566 -0.6456
57590SOL    HW279376  11.962   7.800  10.883 -1.6459  1.7738 -0.6544
57591SOL     OW79377   5.867   7.193  11.071  0.2013 -0.4257  0.0816
57591SOL    HW179378   5.908   7.279  11.065  1.5505 -0.9986  0.5703
57591SOL    HW279379   5.880   7.154  10.984  0.2924 -0.4326  0.0980
57592SOL     OW79380   8.564   0.192   5.027  0.2588 -0.0233  0.0727
57592SOL    HW179381   8.544   0.251   5.100  0.6431 -0.4473  0.5273
57592SOL    HW279382   8.654   0.163   5.043 -0.2667 -1.5516  0.4409
57593SOL     OW79383   2.635  11.792   7.402 -0.1045  0.3977 -0.4252
57593SOL    HW179384   2.681  11.757   7.479  1.1759  0.5830 -1.0717
57593SOL    HW279385   2.702  11.796   7.334 -1.5760 -1.2336 -2.0499
57594SOL     OW79386   4.070   1.865   4.501  0.6637  0.1350  0.1065
57594SOL    HW179387   4.006   1.919   4.455 -0.4952 -1.2144  0.0445
57594SOL    HW279388   4.154   1.908   4.486  0.1565  0.4651 -2.1840
57595SOL     OW79389   4.277  11.234   6.175  0.6702 -0.4179  0.0416
57595SOL    HW179390   4.246  11.296   6.110  0.9277  0.3680  0.6488
57595SOL    HW279391   4.306  11.289   6.248  0.9625 -1.2504  0.5627
57596SOL     OW79392  10.980   3.028  12.243  0.3759 -0.0584 -0.3227
57596SOL    HW179393  10.946   3.006  12.329 -0.3118 -2.4710 -1.1333
57596SOL    HW279394  10.941   3.113  12.222 -0.3040  0.0469  1.2655
57597SOL     OW79395   6.006   7.456   1.023 -0.3740  0.4541  0.0849
57597SOL    HW179396   5.970   7.450   1.112  0.1031 -0.7519  0.2082
57597SOL    HW279397   6.099   7.474   1.037 -0.2616  0.0660 -0.1651
57598SOL     OW79398  11.450  12.770   5.140  0.4019  0.6131 -0.0187
57598SOL    HW179399  11.378  12.825   5.172 -1.4061 -1.1093 -0.8679
57598SOL    HW279400  11.419  12.738   5.054  0.7754 -2.5809  0.8932
57599SOL     OW79401   3.492   5.556   0.134 -0.4936  0.2316  0.4523
57599SOL    HW179402   3.439   5.635   0.128  1.3856  1.6256  1.4452
57599SOL    HW279403   3.434   5.486   0.102 -1.8070  2.1335 -1.5718
57600SOL     OW79404   1.726   1.395   2.095  0.6111 -0.3747  0.0071
57600SOL    HW179405   1.816   1.392   2.063  1.4127  2.1678  1.6651
57600SOL    HW279406   1.691   1.476   2.059  0.0951  0.2916  1.9157
57601SOL     OW79407  10.641   8.755   3.618  0.4487  0.4329 -0.1419
57601SOL    HW179408  10.702   8.707   3.562  1.6674  2.8244 -0.9770
57601SOL    HW279409  10.569   8.694   3.632  2.6976 -2.2969  0.3877
57602SOL     OW79410  11.128   0.110   9.611 -0.1184  0.0535 -0.5716
57602SOL    HW179411  11.153   0.105   9.704  0.3155  0.8361 -0.6420
57602SOL    HW279412  11.033   0.101   9.612 -0.1131 -0.0223 -0.0538
57603SOL     OW79413  10.199   2.978   3.749 -0.2820 -0.4653  0.0920
57603SOL    HW179414  10.262   2.916   3.787 -2.0749 -2.0157  0.7295
57603SOL    HW279415  10.176   2.939   3.665 -0.6237 -0.0830  0.0070
57604SOL     OW79416   8.108   5.229  10.359 -0.5049  0.1253  0.0405
57604SOL    HW179417   8.039   5.260  10.300  0.2761  0.8496 -0.5177
57604SOL    HW279418   8.159   5.168  10.306  0.1562  0.7241 -0.0311
57605SOL     OW79419  11.210  12.174   7.522  0.2782  0.5154 -0.2516
57605SOL    HW179420  11.263  12.095   7.505  0.1397  0.1691  0.8422
57605SOL    HW279421  11.224  12.229   7.445  1.4253 -0.0160 -0.4522
57606SOL     OW79422  11.497   7.974  11.301 -0.0935 -0.1147 -1.2010
57606SOL    HW179423  11.523   7.886  11.271  0.6910 -0.0828 -0.6290
57606SOL    HW279424  11.543   7.986  11.383  1.7662  1.8091 -2.4459
57607SOL     OW79425   7.396   3.249  11.107 -0.0376 -0.2874 -0.6809
57607SOL    HW179426   7.341   3.254  11.029  0.7150  0.6366 -1.1738
57607SOL    HW279427   7.478   3.210  11.076  0.4231  0.4779 -0.4474
57608SOL     OW79428   4.678  10.883   9.477 -0.0875  0.6163  0.5026
57608SOL    HW179429   4.608  10.865   9.541 -1.1701  3.2378  0.1990
57608SOL    HW279430   4.734  10.946   9.522 -0.7904  2.4046 -0.9939
57609SOL     OW79431  10.816   9.729   4.337 -0.4597  0.7014 -0.2120
57609SOL    HW179432  10.752   9.799   4.320 -0.1515  0.7462 -1.2965
57609SOL    HW279433  10.900   9.774   4.341 -0.0110  0.2507 -2.8014
57610SOL     OW79434   6.010   0.296   3.191  0.5961 -0.3205  0.2475
57610SOL    HW179435   5.931   0.279   3.244 -0.8435  2.3046 -0.8596
57610SOL    HW279436   5.988   0.262   3.105  1.0698 -0.4276  0.1694
57611SOL     OW79437   6.219   9.726   8.872 -0.3397 -0.1133  0.3516
57611SOL    HW179438   6.142   9.708   8.926 -0.7698 -0.2839 -0.2997
57611SOL    HW279439   6.195   9.804   8.823 -1.0176 -1.4296 -1.5186
57612SOL     OW79440   4.823   4.446   5.450  0.2788  0.3269 -0.0724
57612SOL    HW179441   4.842   4.369   5.505  1.0590  1.6192  1.5455
57612SOL    HW279442   4.898   4.451   5.390  1.8867  1.5797  1.9169
57613SOL     OW79443   2.487   2.693   7.754  0.0504  0.3953 -0.0550
57613SOL    HW179444   2.406   2.682   7.803  1.2948 -0.9020  1.8714
57613SOL    HW279445   2.459   2.723   7.667 -2.6199 -1.7866 -0.0992
57614SOL     OW79446  10.664  12.599   0.508 -0.4515 -0.1638  0.1342
57614SOL    HW179447  10.734  12.535   0.514 -0.3254 -0.0598 -0.2090
57614SOL    HW279448  10.706  12.683   0.525 -0.8053 -0.2678  1.6382
57615SOL     OW79449   2.810   1.148   4.071 -0.6544 -0.4683 -0.5883
57615SOL    HW179450   2.802   1.071   4.127 -0.6323 -1.0276 -1.3382
57615SOL    HW279451   2.755   1.128   3.995  0.4062 -0.3394 -1.4250
57616SOL     OW79452   7.866   8.332  11.725 -0.0468 -0.4441 -0.3309
57616SOL    HW179453   7.859   8.327  11.630 -1.6139 -1.0844 -0.2224
57616SOL    HW279454   7.781   8.366  11.753  0.9129  1.1509  0.7640
57617SOL     OW79455   6.265   8.466  11.894  0.2988  0.2042  0.1172
57617SOL    HW179456   6.272   8.378  11.857  2.2960  0.4243 -0.1427
57617SOL    HW279457   6.287   8.524  11.821  2.0515  0.7452  1.0198
57618SOL     OW79458   2.530   1.775   1.727 -0.1793  0.3424  0.4376
57618SOL    HW179459   2.459   1.765   1.791 -1.1929 -0.8831 -0.8071
57618SOL    HW279460   2.485   1.802   1.647  0.6870 -0.8611 -0.4819
57619SOL     OW79461   8.879   1.634   0.037  0.0461  0.4980  0.1832
57619SOL    HW179462   8.804   1.575   0.045 -0.8211  1.4674 -0.5468
57619SOL    HW279463   8.841   1.721   0.035  1.1844  1.0022 -0.2678
57620SOL     OW79464   1.958   4.220   4.228 -0.0353 -0.0746 -0.1639
57620SOL    HW179465   2.002   4.208   4.144  0.0384 -0.4326 -0.0752
57620SOL    HW279466   1.866   4.202   4.209 -0.3138  1.6431 -0.5679
57621SOL     OW79467   2.357  11.917   8.492  0.0478  0.0864  0.0425
57621SOL    HW179468   2.370  11.988   8.555 -0.7073  0.6010 -0.3623
57621SOL    HW279469   2.429  11.926   8.431 -0.4393  0.9814 -0.4245
57622SOL     OW79470   0.148   1.537   8.098  0.0247 -0.0679 -0.0113
57622SOL    HW179471   0.150   1.493   8.013 -0.4947  1.1319 -0.6729
57622SOL    HW279472   0.196   1.619   8.084  0.5199 -0.1576  1.0451
57623SOL     OW79473  10.174   1.036  11.795  0.2525  0.5713  0.5475
57623SOL    HW179474  10.253   1.011  11.746 -1.7295  1.5073 -3.6337
57623SOL    HW279475  10.150   1.121  11.758 -2.7457  0.2912  1.6227
57624SOL     OW79476  11.584  10.957  11.110  0.0589  0.0548 -0.0926
57624SOL    HW179477  11.651  10.914  11.164  0.4864  1.4934  0.5702
57624SOL    HW279478  11.588  10.912  11.026 -0.3239 -1.9646  0.9119
57625SOL     OW79479  12.737   9.555   5.121 -0.5876  0.0453  0.1544
57625SOL    HW179480  12.689   9.473   5.114 -0.5815 -0.0780  1.3937
57625SOL    HW279481  12.739   9.574   5.215 -0.5709  1.4497 -0.1045
57626SOL     OW79482  10.094   3.883   7.927  0.0705  0.4496  0.1205
57626SOL    HW179483  10.150   3.956   7.899 -0.1367  0.2999 -0.7134
57626SOL    HW279484  10.156   3.817   7.958  0.5580 -0.4352 -2.4442
57627SOL     OW79485   6.083   5.164   5.425 -0.1015  0.2071  0.2315
57627SOL    HW179486   6.078   5.149   5.331 -3.3114 -1.3385  0.5180
57627SOL    HW279487   6.125   5.086   5.460  0.0036  0.2433  0.1870
57628SOL     OW79488  10.062  10.492   7.264 -0.2629 -0.4514 -0.5397
57628SOL    HW179489  10.005  10.432   7.312  0.1660 -0.2294  0.2682
57628SOL    HW279490  10.023  10.497   7.176  0.0302 -2.3712 -0.8352
57629SOL     OW79491   7.896  10.564   4.827  0.6634 -0.3394  0.2914
57629SOL    HW179492   7.947  10.489   4.799  0.7268 -0.0787 -0.3148
57629SOL    HW279493   7.838  10.583   4.753 -1.3696 -1.5235  1.4927
57630SOL     OW79494   8.588  12.314  10.883 -0.1297 -0.4146 -0.0323
57630SOL    HW179495   8.664  12.288  10.830  0.4460  3.2048 -1.2202
57630SOL    HW279496   8.515  12.311  10.821  0.0034  0.9172 -0.2806
57631SOL     OW79497   1.624   9.313   3.984 -0.5002  0.1418 -0.2601
57631SOL    HW179498   1.707   9.266   3.983 -1.2913 -1.3192 -1.5471
57631SOL    HW279499   1.633   9.376   4.055  1.6042 -0.1452 -0.2203
57632SOL     OW79500  11.077  10.223  10.204 -0.5496  0.7048 -0.0779
57632SOL    HW179501  11.094  10.170  10.282 -0.8769  3.6614  2.1888
57632SOL    HW279502  10.994  10.190  10.170  0.7700 -2.2432 -0.7508
57633SOL     OW79503   4.699   7.026  11.237 -0.1328 -0.2010  0.0864
57633SOL    HW179504   4.663   6.970  11.169 -0.4163 -0.6214  0.5739
57633SOL    HW279505   4.648   7.107  11.231 -0.8690 -0.6242  0.4712
57634SOL     OW79506  10.042   3.358   9.109 -0.2159 -0.1955 -0.0988
57634SOL    HW179507  10.063   3.386   9.020  1.4248 -2.5472 -0.5470
57634SOL    HW279508  10.124   3.367   9.158 -0.6228 -0.6635  0.6999
57635SOL     OW79509   6.709   3.012   5.098  0.0550  0.3101  0.3796
57635SOL    HW179510   6.776   3.080   5.109  0.0276  0.8954 -2.2610
57635SOL    HW279511   6.638   3.039   5.155  1.0530  1.0947  1.2949
57636SOL     OW79512   7.755   7.475   8.047  0.6646 -0.4888 -0.1927
57636SOL    HW179513   7.802   7.490   7.965 -0.7259  0.5789 -0.8360
57636SOL    HW279514   7.759   7.559   8.093 -1.1375 -0.1301 -0.5857
57637SOL     OW79515  10.922   6.886   0.043 -0.3261 -0.0274  0.5462
57637SOL    HW179516  11.004   6.845   0.069 -0.2838 -1.0885 -1.1002
57637SOL    HW279517  10.903   6.949   0.113 -0.1571 -2.4773  2.9946
57638SOL     OW79518   3.188   4.033   6.294 -0.1751 -0.2534 -0.2780
57638SOL    HW179519   3.163   4.123   6.314  1.3004  0.4704 -1.4505
57638SOL    HW279520   3.242   4.006   6.368 -1.2382 -0.4679  0.4374
57639SOL     OW79521  11.970   8.247   0.854  0.6994 -0.2238 -0.1846
57639SOL    HW179522  12.032   8.319   0.863 -0.3736  0.7766 -0.4606
57639SOL    HW279523  11.884   8.290   0.847  0.1648 -1.4435 -1.9586
57640SOL     OW79524  12.475   0.237   4.221 -0.2268 -0.3664 -0.0665
57640SOL    HW179525  12.445   0.221   4.311 -1.0898 -0.1858 -0.3148
57640SOL    HW279526  12.566   0.206   4.221  0.1929  0.7458  1.1905
57641SOL     OW79527   0.981  11.312   5.917 -0.2584 -0.2659  0.5993
57641SOL    HW179528   0.940  11.319   5.830 -0.6692 -1.0847  0.7226
57641SOL    HW279529   1.017  11.399   5.933 -1.2368  0.2442  0.1312
57642SOL     OW79530   5.935   0.204   5.488 -0.2464  0.2016 -0.7605
57642SOL    HW179531   6.029   0.217   5.497 -0.2200 -1.0825  1.3365
57642SOL    HW279532   5.908   0.162   5.570 -2.6984  0.7998 -1.1830
57643SOL     OW79533   7.710   1.234  10.502 -0.3909 -0.4099 -0.4700
57643SOL    HW179534   7.734   1.319  10.465  1.5622 -0.4080  0.6989
57643SOL    HW279535   7.614   1.231  10.494 -0.2762  0.6320 -3.1458
57644SOL     OW79536   2.257   1.307   0.700  0.4055  1.0334  0.2843
57644SOL    HW179537   2.348   1.327   0.677  0.7740  1.2704  1.8374
57644SOL    HW279538   2.205   1.368   0.647  1.1071  0.6122 -0.9361
57645SOL     OW79539  11.711  11.018   0.412 -0.1550 -0.1734 -0.3434
57645SOL    HW179540  11.750  10.932   0.397 -0.2072  0.0196 -1.6481
57645SOL    HW279541  11.779  11.081   0.387 -0.8404  0.1556 -1.4735
57646SOL     OW79542   7.685   7.326   6.711  0.4054  0.0798  0.1574
57646SOL    HW179543   7.673   7.249   6.656  2.6005  0.9388 -1.6766
57646SOL    HW279544   7.739   7.295   6.784 -1.6012 -0.8142  1.3455
57647SOL     OW79545   6.537  12.672   7.923  0.3475  0.4313  0.1055
57647SOL    HW179546   6.481  12.684   7.846  1.2552 -0.6526 -0.7820
57647SOL    HW279547   6.478  12.677   7.998 -0.6786  0.8086 -0.7054
57648SOL     OW79548   4.150   9.340   7.006  0.2000 -0.2078 -0.2713
57648SOL    HW179549   4.214   9.323   6.937  0.7822  0.8280 -0.0111
57648SOL    HW279550   4.085   9.270   6.996  1.5546 -1.5071 -0.3041
57649SOL     OW79551   5.405   8.370   0.240  0.6495 -0.3446 -0.3097
57649SOL    HW179552   5.498   8.352   0.258  0.8967  0.0094 -1.1619
57649SOL    HW279553   5.365   8.375   0.326  1.3643 -0.8188  0.0643
57650SOL     OW79554   2.326   6.701   6.400 -0.4614  0.2614  0.4223
57650SOL    HW179555   2.298   6.771   6.341 -1.1607  0.0228  0.4656
57650SOL    HW279556   2.344   6.745   6.483  0.0273  0.5230  0.1816
57651SOL     OW79557   4.822   5.826   0.736  0.2414  0.6005 -0.3180
57651SOL    HW179558   4.796   5.907   0.779 -0.2060 -0.7801  2.1922
57651SOL    HW279559   4.916   5.836   0.720  0.2675  1.4552  0.3371
57652SOL     OW79560   5.782   2.884   0.618 -0.2956 -0.2239  0.1232
57652SOL    HW179561   5.714   2.928   0.669  0.1681 -1.0619  1.5171
57652SOL    HW279562   5.858   2.942   0.624 -0.3040 -0.2234  0.2231
57653SOL     OW79563   1.573  12.358   0.159  0.1657 -0.1928 -0.5205
57653SOL    HW179564   1.502  12.310   0.115  0.5709 -1.1319 -0.1711
57653SOL    HW279565   1.550  12.450   0.148 -2.5802 -0.4476  1.9261
57654SOL     OW79566   1.828  10.688  11.528 -0.0859  0.9543 -0.1642
57654SOL    HW179567   1.908  10.665  11.575 -0.1222  2.4528  0.6948
57654SOL    HW279568   1.846  10.666  11.436  1.2721  1.1817  0.0341
57655SOL     OW79569   7.221   3.690  12.312 -0.2594  0.0964  0.1066
57655SOL    HW179570   7.271   3.621  12.355  0.6372 -0.0408 -1.0928
57655SOL    HW279571   7.135   3.687  12.353  0.2850 -0.6088  1.2325
57656SOL     OW79572   8.119  12.396   1.591  0.5686  0.1924  0.0512
57656SOL    HW179573   8.052  12.443   1.540  0.3725 -1.5379 -1.4117
57656SOL    HW279574   8.198  12.403   1.538  0.6236 -0.7825 -0.0088
57657SOL     OW79575   8.722   0.471  10.352 -0.0929 -0.1277 -1.0931
57657SOL    HW179576   8.723   0.491  10.446  0.8923 -1.9512 -0.6802
57657SOL    HW279577   8.814   0.462  10.329 -0.3876 -1.8705 -1.7191
57658SOL     OW79578   5.844  10.162   8.388 -0.1196 -0.4343 -0.4254
57658SOL    HW179579   5.760  10.166   8.435 -0.6281  0.3636 -1.3673
57658SOL    HW279580   5.908  10.197   8.450 -0.2749 -2.0404  0.7011
57659SOL     OW79581   5.373   1.789   5.211  0.0508  0.0636  0.1729
57659SOL    HW179582   5.354   1.882   5.200  2.3008  0.6321  0.5241
57659SOL    HW279583   5.449   1.787   5.270  1.0799 -1.9018 -1.0996
57660SOL     OW79584   2.352   5.269   5.632  0.7756 -0.4102  0.3150
57660SOL    HW179585   2.445   5.292   5.642  0.0249  2.3544  1.9879
57660SOL    HW279586   2.307   5.353   5.625 -1.5513 -1.6962 -1.6209
57661SOL     OW79587  11.130   4.213   8.303 -0.1933  0.3467 -0.7098
57661SOL    HW179588  11.184   4.148   8.347 -1.0185  0.3443  0.3299
57661SOL    HW279589  11.179   4.235   8.224  0.4745 -0.9502 -0.6837
57662SOL     OW79590   0.222   4.191   3.312 -0.6471  0.2945  0.1106
57662SOL    HW179591   0.190   4.175   3.400 -2.0011 -2.1185 -0.7293
57662SOL    HW279592   0.148   4.168   3.255  0.5046  0.8264 -1.6975
57663SOL     OW79593   4.290   5.520   7.201  0.1373 -0.1998  0.0935
57663SOL    HW179594   4.269   5.507   7.293  0.0283  1.9371  0.4178
57663SOL    HW279595   4.208   5.500   7.155  0.6130 -2.8390  0.2330
57664SOL     OW79596   8.124   1.292   5.878 -0.1224  0.2140 -0.2232
57664SOL    HW179597   8.117   1.212   5.930 -0.5776  1.0106  0.9871
57664SOL    HW279598   8.217   1.315   5.883 -0.5288  1.7370  2.6080
57665SOL     OW79599   5.838   5.198   4.741  0.1345  0.5769  0.3778
57665SOL    HW179600   5.766   5.232   4.794 -1.8433 -0.3229 -1.5587
57665SOL    HW279601   5.879   5.276   4.703  0.2857  1.1097  1.6155
57666SOL     OW79602   5.482  12.736   0.930 -0.4172  0.8551  0.1594
57666SOL    HW179603   5.565  12.771   0.964  1.4664 -1.2246 -1.9144
57666SOL    HW279604   5.485  12.643   0.952 -0.1968 -0.1042 -3.3185
57667SOL     OW79605   2.660  10.094   6.203 -0.8120 -0.5379 -0.6249
57667SOL    HW179606   2.643  10.151   6.128  0.6328 -0.9756 -1.3098
57667SOL    HW279607   2.716  10.024   6.168  2.2403  0.7045  1.3871
57668SOL     OW79608   2.626  12.203  11.097  0.1343 -0.2965  0.2132
57668SOL    HW179609   2.651  12.271  11.034 -1.4922  0.8696  0.7661
57668SOL    HW279610   2.708  12.159  11.118  1.1186  0.9944 -0.7485
57669SOL     OW79611   5.328  10.599  12.275  0.4012 -0.1363 -0.6061
57669SOL    HW179612   5.401  10.541  12.255  1.1177  0.4306  0.3250
57669SOL    HW279613   5.358  10.653  12.348  0.3158  2.4829 -2.3934
57670SOL     OW79614   8.966   0.480  11.295 -0.3890  0.0836  0.2321
57670SOL    HW179615   8.948   0.426  11.372 -0.3500 -0.8908 -0.4288
57670SOL    HW279616   8.894   0.543  11.292 -0.0449  0.5680  1.4290
57671SOL     OW79617   2.150   9.173   0.571  0.0171  0.9310  0.7830
57671SOL    HW179618   2.153   9.082   0.598 -1.3139  0.7676  0.4128
57671SOL    HW279619   2.057   9.193   0.559  0.2522  2.4365  1.1828
57672SOL     OW79620   3.420   7.299   0.468 -0.3979  0.1432  0.0219
57672SOL    HW179621   3.404   7.214   0.428  1.2141 -0.5126  0.6839
57672SOL    HW279622   3.493   7.284   0.528 -0.7814  1.7592  0.9644
57673SOL     OW79623   9.401   2.468  12.779  0.0475  1.0083  0.0334
57673SOL    HW179624   9.423   2.374  12.779 -0.7952  0.8061  0.9484
57673SOL    HW279625   9.438   2.502  12.860 -1.2817  1.0675  0.6351
57674SOL     OW79626   6.050   6.967  12.425  0.5266 -0.0938  0.4382
57674SOL    HW179627   6.031   7.052  12.464  1.8890  0.8877 -0.9118
57674SOL    HW279628   6.030   6.978  12.332  1.0468 -1.1412  0.1886
57675SOL     OW79629   0.997   3.057   1.371 -1.1107 -0.3996 -0.4902
57675SOL    HW179630   0.909   3.088   1.346 -0.2585  3.0691  0.2665
57675SOL    HW279631   1.038   3.035   1.287 -1.1296  2.8534 -1.5059
57676SOL     OW79632   0.996   5.904  12.553 -0.6935 -0.2304 -0.2284
57676SOL    HW179633   1.000   5.984  12.604  1.9466 -0.8039  0.6146
57676SOL    HW279634   0.952   5.841  12.610 -0.6623 -0.0122  0.0344
57677SOL     OW79635   6.780   8.345   9.251  0.2549  0.1462 -0.2088
57677SOL    HW179636   6.821   8.306   9.328  0.6792 -1.7512 -1.3256
57677SOL    HW279637   6.690   8.312   9.252  0.2973  0.0143 -0.5880
57678SOL     OW79638   4.321  10.643   1.449 -0.3575  0.1524 -0.3237
57678SOL    HW179639   4.402  10.689   1.470  0.4640 -1.4613  0.1696
57678SOL    HW279640   4.300  10.670   1.360  0.9079  0.3460 -0.5696
57679SOL     OW79641   5.253  10.946   2.653 -0.2951  0.0918 -0.5380
57679SOL    HW179642   5.207  10.993   2.583  0.3407  0.0732 -0.9814
57679SOL    HW279643   5.230  10.994   2.732 -2.7624 -1.1352 -0.3985
57680SOL     OW79644   3.151  11.801   5.288  0.3023 -0.4368 -0.3525
57680SOL    HW179645   3.163  11.718   5.333 -1.1774 -1.1475 -1.1899
57680SOL    HW279646   3.190  11.787   5.201  1.9285  0.4703  0.1950
57681SOL     OW79647  10.578   4.189   0.508  0.0170 -0.3409 -0.3756
57681SOL    HW179648  10.670   4.163   0.505  0.5963  1.5542 -0.1312
57681SOL    HW279649  10.561   4.228   0.423 -0.8474 -1.4863 -0.7527
57682SOL     OW79650   8.072   0.837   1.835 -0.2827 -0.7369  0.1694
57682SOL    HW179651   8.163   0.867   1.837 -0.7958  1.1107 -0.9417
57682SOL    HW279652   8.068   0.780   1.758 -0.3316  0.2725 -0.5994
57683SOL     OW79653   1.768   8.885   4.774 -0.0723 -0.3244 -0.2372
57683SOL    HW179654   1.813   8.966   4.750 -0.9263 -0.2825 -1.8213
57683SOL    HW279655   1.678   8.912   4.791 -0.2690 -0.8728 -0.3821
57684SOL     OW79656   3.947   9.876   4.777 -0.4222 -0.4876  0.2654
57684SOL    HW179657   3.941   9.960   4.822  1.6412  0.7317 -1.5624
57684SOL    HW279658   3.879   9.879   4.709  1.2337  0.8406 -1.4191
57685SOL     OW79659  10.671   3.587  10.431 -0.2781  0.2750  0.5396
57685SOL    HW179660  10.737   3.612  10.496  1.3702 -2.9001  0.3026
57685SOL    HW279661  10.712   3.608  10.347 -0.2305 -0.2145  0.4359
57686SOL     OW79662   3.476   1.048   0.413  0.2297  0.3330  0.4915
57686SOL    HW179663   3.555   0.999   0.439  0.6443  0.8683  0.2628
57686SOL    HW279664   3.410   0.981   0.400  0.7274 -0.1545  0.4184
57687SOL     OW79665   1.256  10.315   6.953 -0.1354  0.2108  0.2527
57687SOL    HW179666   1.200  10.332   7.029  0.4032 -0.2156  0.7537
57687SOL    HW279667   1.280  10.223   6.961 -0.5761 -0.0087 -0.7819
57688SOL     OW79668  10.335   1.685  10.118  0.5178 -0.3103  0.6906
57688SOL    HW179669  10.288   1.767  10.129  1.4029 -0.0347  3.0804
57688SOL    HW279670  10.277   1.619  10.155  0.7009 -0.4213  0.7816
57689SOL     OW79671   1.663   0.280   7.757 -0.6820 -0.8036 -0.1456
57689SOL    HW179672   1.594   0.325   7.805  0.9129  2.2644 -0.4869
57689SOL    HW279673   1.688   0.341   7.687  3.4971 -0.8708  1.0212
57690SOL     OW79674   9.018   1.061   1.314 -0.0084  0.5623  0.0689
57690SOL    HW179675   9.016   1.016   1.230  0.6778  1.1291 -0.2573
57690SOL    HW279676   9.046   1.150   1.294  1.3380  0.3931  1.0134
57691SOL     OW79677   2.303  11.101   3.723  0.5319  0.0981 -0.4437
57691SOL    HW179678   2.370  11.156   3.682  0.2400  0.8868  0.1023
57691SOL    HW279679   2.333  11.089   3.813 -0.5002  1.2631  0.0890
57692SOL     OW79680   4.456  11.856   4.958  0.4736 -0.1613  0.0845
57692SOL    HW179681   4.550  11.843   4.941  0.3605 -0.0500 -0.6614
57692SOL    HW279682   4.415  11.775   4.929  0.4103 -0.4943  1.0828
57693SOL     OW79683   9.925   0.147  10.007  0.2647  0.5027 -0.1828
57693SOL    HW179684   9.892   0.237  10.013 -3.7108 -0.7199 -0.8599
57693SOL    HW279685   9.927   0.116  10.098 -0.8631  0.5024 -0.1524
57694SOL     OW79686   8.076   4.479   2.783  0.2084 -0.0412  0.2157
57694SOL    HW179687   8.065   4.507   2.692  0.6771  0.8240  0.4190
57694SOL    HW279688   8.134   4.403   2.778  0.4882  0.1958 -0.1835
57695SOL     OW79689   1.264   4.387   0.878 -0.7914  0.0836  0.1566
57695SOL    HW179690   1.172   4.363   0.885 -0.4059 -1.2823  0.9278
57695SOL    HW279691   1.275   4.412   0.786 -1.4533 -1.9431 -0.5359
57696SOL     OW79692   1.332   8.397   9.500 -0.4733  0.6383 -0.3688
57696SOL    HW179693   1.303   8.459   9.433  0.2181  1.6946  0.2750
57696SOL    HW279694   1.277   8.418   9.576 -0.9414 -0.2456 -0.4508
57697SOL     OW79695  11.254   0.573   7.600 -0.1703  0.2886 -0.5629
57697SOL    HW179696  11.240   0.521   7.521 -1.7724  0.5465 -0.4794
57697SOL    HW279697  11.227   0.662   7.575  1.1034  0.7860 -0.2600
57698SOL     OW79698   1.845   5.500  12.412 -0.5817  0.4201 -0.4763
57698SOL    HW179699   1.859   5.486  12.506 -0.7542 -0.8426 -0.6153
57698SOL    HW279700   1.808   5.588  12.406 -0.1384  0.7029  0.5907
57699SOL     OW79701  10.722  10.853   0.346 -0.5916  0.0580 -0.4210
57699SOL    HW179702  10.791  10.910   0.381 -0.5888 -0.6590  0.8215
57699SOL    HW279703  10.649  10.912   0.329 -1.2382  0.3029  2.5611
57700SOL     OW79704  11.936   9.688   5.792 -0.1768  0.6853  0.4951
57700SOL    HW179705  11.971   9.670   5.879 -0.5520 -2.1067  0.1578
57700SOL    HW279706  12.002   9.744   5.751  1.1950  0.0511  1.7472
57701SOL     OW79707   7.894   5.613   8.681 -0.5197  0.3241 -0.0619
57701SOL    HW179708   7.881   5.605   8.775  0.7841 -0.2306  0.0945
57701SOL    HW279709   7.890   5.522   8.649 -1.0894  0.5207 -0.5668
57702SOL     OW79710   0.809   6.466  10.651 -0.0651  0.2389  0.3489
57702SOL    HW179711   0.873   6.509  10.708  0.1582  1.1621 -0.5759
57702SOL    HW279712   0.724   6.498  10.683 -0.0286 -0.2929  1.0035
57703SOL     OW79713   5.301   2.446   2.911 -0.3094 -0.2606 -0.2430
57703SOL    HW179714   5.326   2.362   2.950  0.6200 -1.0711 -2.4114
57703SOL    HW279715   5.219   2.428   2.865 -1.1163  0.5485  0.8221
57704SOL     OW79716   1.991   0.594  12.282  0.3415 -0.4195  0.2600
57704SOL    HW179717   1.976   0.608  12.188  0.3094 -0.9578  0.1804
57704SOL    HW279718   1.907   0.615  12.322  0.4444  0.1128  0.2024
57705SOL     OW79719   7.465   9.197  10.079 -0.0884 -0.4042 -0.6267
57705SOL    HW179720   7.381   9.238  10.056 -0.0949 -0.0118  0.0901
57705SOL    HW279721   7.468   9.200  10.174  1.7038  1.5474 -0.6831
57706SOL     OW79722   9.799   6.944   7.582 -0.0225  0.8503  0.0133
57706SOL    HW179723   9.769   7.011   7.644  0.2888  1.3528 -0.3703
57706SOL    HW279724   9.744   6.957   7.505 -1.9466 -1.1992  0.9199
57707SOL     OW79725  11.893   6.958   6.864  0.5422  0.5579  0.5663
57707SOL    HW179726  11.909   6.869   6.832 -2.9844  0.6384 -2.1033
57707SOL    HW279727  11.817   6.949   6.922  0.3795  1.7811  0.5688
57708SOL     OW79728   0.522   5.217   3.184 -0.0470 -0.0896 -0.4774
57708SOL    HW179729   0.458   5.149   3.205  0.6934 -0.7047 -0.1395
57708SOL    HW279730   0.474   5.280   3.130 -0.6538 -1.0613 -1.0992
57709SOL     OW79731   0.805   1.258   7.968  0.2784 -0.6671 -0.2659
57709SOL    HW179732   0.736   1.305   8.015 -0.0544 -1.2042 -0.2223
57709SOL    HW279733   0.769   1.172   7.950  0.6388 -0.6852 -0.9547
57710SOL     OW79734   3.343  11.857   1.361  0.4100  0.2738  0.6556
57710SOL    HW179735   3.375  11.944   1.385  0.2329  0.2417  1.0179
57710SOL    HW279736   3.341  11.809   1.443  1.6145 -0.4432  0.2921
57711SOL     OW79737   4.410   6.555   7.470  0.2430 -0.2598 -0.2148
57711SOL    HW179738   4.483   6.616   7.473  0.6732 -0.7939  0.5503
57711SOL    HW279739   4.430   6.498   7.395 -0.6022  1.0439 -1.4779
57712SOL     OW79740   4.607   3.538   0.522  0.1120  0.3490  0.7944
57712SOL    HW179741   4.589   3.617   0.573  2.7044  1.6023 -0.0607
57712SOL    HW279742   4.580   3.560   0.433 -1.4136 -0.6750  0.9601
57713SOL     OW79743  12.138  12.725   2.645  0.7105  0.1945  0.3666
57713SOL    HW179744  12.098  12.807   2.675 -0.1433 -0.1051  0.0660
57713SOL    HW279745  12.094  12.657   2.696  1.5591 -0.0785  0.7611
57714SOL     OW79746   7.789   9.467  12.126 -0.3631 -0.1470 -0.3990
57714SOL    HW179747   7.711   9.429  12.085 -0.3540  0.4176 -0.9697
57714SOL    HW279748   7.846   9.392  12.144 -0.5727 -0.4614 -0.9981
57715SOL     OW79749   5.389  10.669   4.445 -0.2405  0.0749 -0.4434
57715SOL    HW179750   5.335  10.747   4.453 -0.9475 -0.4912  0.5999
57715SOL    HW279751   5.381  10.626   4.530 -0.2238 -1.3598 -1.1361
57716SOL     OW79752   9.030  10.750  10.552  0.1777 -0.3621  0.4392
57716SOL    HW179753   8.990  10.741  10.466 -2.3314 -0.8965  1.5533
57716SOL    HW279754   9.027  10.661  10.588  0.4624 -0.0087  1.3550
57717SOL     OW79755   0.674   8.771   1.420  0.0153 -0.2909 -0.2231
57717SOL    HW179756   0.715   8.684   1.418  0.9370  0.1422 -1.5238
57717SOL    HW279757   0.662   8.794   1.328 -1.2894  0.4875  0.1174
57718SOL     OW79758   2.188   8.377   4.543  0.0992 -0.1204  0.2697
57718SOL    HW179759   2.109   8.395   4.595 -0.0228  1.1748 -0.3303
57718SOL    HW279760   2.259   8.383   4.607 -0.2297 -0.7734  0.7135
57719SOL     OW79761   1.812   5.004   3.517 -0.4006 -0.0236 -0.2050
57719SOL    HW179762   1.873   4.996   3.591 -1.1135 -1.1157  0.2963
57719SOL    HW279763   1.828   5.092   3.482 -0.0463  0.5262  1.2558
57720SOL     OW79764   5.771   4.099  11.381 -0.1609 -0.3741  0.1014
57720SOL    HW179765   5.837   4.158  11.418  0.0486 -0.6946  0.2424
57720SOL    HW279766   5.777   4.020  11.435 -0.5889 -0.4428  0.0482
57721SOL     OW79767   8.001   2.117  11.789  0.7214  0.3808  0.0620
57721SOL    HW179768   7.946   2.151  11.860 -0.9075 -3.0848  0.6437
57721SOL    HW279769   8.090   2.141  11.815  0.1424 -0.1967  3.0072
57722SOL     OW79770   5.759  10.966   6.285  0.0327  0.2693  0.2075
57722SOL    HW179771   5.709  10.907   6.342  0.2617 -0.5030 -0.3666
57722SOL    HW279772   5.708  11.047   6.283 -0.3821  0.0345  0.8722
57723SOL     OW79773   7.096  10.492   1.948 -1.2595  1.2240 -0.1424
57723SOL    HW179774   7.064  10.516   1.861  0.1830 -0.2493 -1.1187
57723SOL    HW279775   7.031  10.431   1.982  0.1168 -1.4014 -1.9271
57724SOL     OW79776  12.766   8.880  12.252 -0.0488  0.4778 -0.7050
57724SOL    HW179777  12.676   8.860  12.228  0.0348  0.0626 -0.6695
57724SOL    HW279778  12.819   8.843  12.182 -0.0276  3.5482 -2.5348
57725SOL     OW79779   1.598   4.978   4.451  0.3624 -0.0283  0.1741
57725SOL    HW179780   1.511   4.951   4.477  0.6758 -1.5260 -0.2237
57725SOL    HW279781   1.657   4.934   4.512  0.8584  0.5915  0.1531
57726SOL     OW79782   7.955  11.889  11.731  0.0104  0.3403 -0.0938
57726SOL    HW179783   7.994  11.838  11.660  1.1153 -1.5215  1.7258
57726SOL    HW279784   7.997  11.975  11.725  1.3544 -0.3261 -0.6971
57727SOL     OW79785   2.106   0.248   1.018 -0.5009 -0.3989  0.0153
57727SOL    HW179786   2.027   0.233   0.965 -0.8019  0.2921  0.2627
57727SOL    HW279787   2.118   0.343   1.016  0.6830 -0.5537 -0.5329
57728SOL     OW79788   1.482   7.133   3.453 -0.2016 -0.0692  0.0412
57728SOL    HW179789   1.452   7.053   3.409 -0.7532  0.4160 -0.4787
57728SOL    HW279790   1.411   7.195   3.441  1.3668  1.4621 -2.1390
57729SOL     OW79791  10.959   5.543   6.416 -0.2738 -0.1601  0.0888
57729SOL    HW179792  10.981   5.488   6.491 -0.5182 -0.6908 -0.2191
57729SOL    HW279793  10.929   5.625   6.454  2.4122  0.7016  0.5187
57730SOL     OW79794   8.478   9.932   4.783  0.0121  0.1438  0.1719
57730SOL    HW179795   8.387   9.907   4.801  0.0534  1.0780  1.8838
57730SOL    HW279796   8.479  10.027   4.794  1.3837  0.0414  1.1329
57731SOL     OW79797   5.061   8.433   4.572  0.5322 -0.2076  0.4658
57731SOL    HW179798   4.994   8.430   4.640  1.4769 -0.4108  1.4258
57731SOL    HW279799   5.099   8.521   4.579  0.8618 -0.3455  0.4389
57732SOL     OW79800   2.279   8.078   7.486  0.1816 -0.6560 -0.3283
57732SOL    HW179801   2.295   8.096   7.393  0.1756 -0.5857 -0.3157
57732SOL    HW279802   2.208   8.138   7.510 -0.6761 -1.5328 -0.5941
57733SOL     OW79803   2.066   1.443   6.156 -0.4898 -0.0360 -0.1027
57733SOL    HW179804   2.074   1.534   6.185  0.9497 -0.3927  0.7000
57733SOL    HW279805   2.016   1.449   6.074  0.1751  1.5505 -0.4467
57734SOL     OW79806   1.537   7.317  12.614  0.3686 -0.0669 -0.7724
57734SOL    HW179807   1.462   7.336  12.671  1.9249  2.0833  0.7328
57734SOL    HW279808   1.566   7.230  12.640 -1.1645 -0.6536 -0.9154
57735SOL     OW79809   0.357   6.600   5.551 -0.3222  0.8201  0.3740
57735SOL    HW179810   0.440   6.643   5.569  0.0659 -0.1376  0.9300
57735SOL    HW279811   0.364   6.515   5.594 -0.9827  0.0969 -0.8866
57736SOL     OW79812   9.445  10.613   2.623  0.7763  0.5307  0.0800
57736SOL    HW179813   9.527  10.584   2.664  0.0595 -0.8943  0.5846
57736SOL    HW279814   9.398  10.532   2.604 -0.8686  1.3354  0.5184
57737SOL     OW79815  12.322   3.028   0.204  0.2676 -0.0261  0.4801
57737SOL    HW179816  12.343   3.121   0.201  0.1729 -0.0202 -0.1936
57737SOL    HW279817  12.402   2.984   0.176  0.5945 -0.2002  1.6493
57738SOL     OW79818   1.825  10.489   2.840 -0.2030 -0.0669  0.4739
57738SOL    HW179819   1.765  10.442   2.783 -0.7945 -1.3894  2.1086
57738SOL    HW279820   1.889  10.528   2.780 -0.0610 -2.4228 -1.0354
57739SOL     OW79821   9.617   1.837  12.134 -0.4127 -0.9370 -0.3983
57739SOL    HW179822   9.550   1.808  12.195 -0.9572  1.3750  0.2207
57739SOL    HW279823   9.700   1.806  12.171 -0.2743  3.2601  3.6889
57740SOL     OW79824   8.018   9.514   7.993  0.6519 -0.5170 -0.4345
57740SOL    HW179825   8.081   9.500   8.063  0.9399 -1.2080 -0.8252
57740SOL    HW279826   8.061   9.574   7.933 -0.3038  1.5785  0.8816
57741SOL     OW79827   2.687   0.122   7.636  0.5320 -0.0231  0.5623
57741SOL    HW179828   2.614   0.096   7.692 -0.6273  0.1307 -0.8208
57741SOL    HW279829   2.665   0.087   7.549  0.7818  2.2364 -0.4849
57742SOL     OW79830  11.710  11.335  10.888 -0.3827  0.3108  0.2662
57742SOL    HW179831  11.614  11.338  10.889 -0.4089 -0.3731  0.6469
57742SOL    HW279832  11.731  11.278  10.814 -0.2361  1.2877 -0.4502
57743SOL     OW79833   5.598   4.279   6.056  0.0010 -0.2501  0.1295
57743SOL    HW179834   5.528   4.301   5.995 -0.4571  0.5247  0.9032
57743SOL    HW279835   5.674   4.262   6.001 -0.7969 -1.1358 -0.7301
57744SOL     OW79836  11.564   6.542   4.673 -0.0825  0.1452  0.3027
57744SOL    HW179837  11.567   6.458   4.628 -0.4949 -1.3280  2.8233
57744SOL    HW279838  11.479   6.579   4.647 -0.2807 -0.6102 -0.1761
57745SOL     OW79839   7.698   5.344  11.729 -0.4345  0.4115 -0.4841
57745SOL    HW179840   7.660   5.275  11.783  0.3479  1.4670  1.5280
57745SOL    HW279841   7.624   5.401  11.707 -0.9612 -0.6579 -1.5856
57746SOL     OW79842   1.320  10.892   7.671 -0.2403  0.5243 -0.4174
57746SOL    HW179843   1.397  10.867   7.722 -1.5355  0.5186  1.6648
57746SOL    HW279844   1.302  10.983   7.698 -1.6447  0.1283  0.1262
57747SOL     OW79845   6.085   7.656  12.337  0.1508  0.0362  0.6687
57747SOL    HW179846   6.136   7.639  12.258 -0.6058  1.3336 -0.1446
57747SOL    HW279847   6.052   7.745  12.325 -1.5754 -0.4402  1.5408
57748SOL     OW79848   3.495   0.694   2.670 -0.0918  0.2085  0.4052
57748SOL    HW179849   3.586   0.665   2.669 -0.2121 -0.1734 -0.8113
57748SOL    HW279850   3.501   0.789   2.656  0.0746 -0.0177 -1.2227
57749SOL     OW79851   0.560  10.878   6.324  0.4712 -0.6081 -0.0018
57749SOL    HW179852   0.535  10.813   6.259 -0.8936 -0.8572  0.7404
57749SOL    HW279853   0.480  10.895   6.374  1.1742  0.5109  0.8015
57750SOL     OW79854   5.719   0.622   6.394 -0.2177  0.3076 -0.0732
57750SOL    HW179855   5.761   0.650   6.313 -0.7366  0.5692 -0.2521
57750SOL    HW279856   5.649   0.686   6.409 -0.5743 -0.1404  0.2044
57751SOL     OW79857  10.428   5.736   3.139  0.2916 -0.5696  0.2718
57751SOL    HW179858  10.433   5.815   3.192 -0.6063 -0.3245 -0.0102
57751SOL    HW279859  10.387   5.671   3.196 -0.7908 -0.2712 -0.1475
57752SOL     OW79860  11.581   6.410   1.590  0.6650  0.1743  0.3764
57752SOL    HW179861  11.604   6.317   1.591  0.5826  0.1467  0.0650
57752SOL    HW279862  11.664   6.456   1.601  0.8811  0.0742 -0.6856
57753SOL     OW79863   1.757   5.327   8.856 -0.2810  0.5207 -0.3357
57753SOL    HW179864   1.797   5.261   8.913 -0.6630 -0.3201 -1.0236
57753SOL    HW279865   1.820   5.340   8.786  0.4638  2.0088  0.5670
57754SOL     OW79866   6.182   0.784  11.123 -0.0370  0.3077 -0.6039
57754SOL    HW179867   6.251   0.754  11.181  1.1235 -0.5922 -2.3601
57754SOL    HW279868   6.113   0.719  11.131  0.0517  0.2751 -0.1184
57755SOL     OW79869   6.615   4.425   1.870  0.3781  0.0671  0.1081
57755SOL    HW179870   6.647   4.397   1.956 -0.7555 -1.2027  0.1458
57755SOL    HW279871   6.693   4.427   1.815  0.6273 -2.7386  0.2526
57756SOL     OW79872   0.458   2.847   9.914  0.0602 -0.0702  0.0263
57756SOL    HW179873   0.532   2.794   9.885  0.5246 -0.7146  2.2197
57756SOL    HW279874   0.399   2.784   9.957 -0.8449  0.7343  0.0031
57757SOL     OW79875  10.861   5.717  10.972  0.0217  0.2845 -0.2028
57757SOL    HW179876  10.843   5.626  10.948 -0.4645  0.7560 -1.6637
57757SOL    HW279877  10.956   5.718  10.989  0.9040  0.3027 -4.1852
57758SOL     OW79878  11.176  12.167  11.501  0.0072  0.2319 -0.0134
57758SOL    HW179879  11.181  12.190  11.593 -1.7182 -2.4864  0.8875
57758SOL    HW279880  11.247  12.104  11.488  0.4760  0.8767 -0.6621
57759SOL     OW79881   7.331   1.719  12.560  0.6767  0.3436 -0.2287
57759SOL    HW179882   7.320   1.814  12.559  0.9623  0.3809 -1.3494
57759SOL    HW279883   7.354   1.699  12.651  0.1582  1.2841  0.1305
57760SOL     OW79884   7.605  10.284   9.820 -0.6678  0.1147 -0.0011
57760SOL    HW179885   7.609  10.202   9.870 -0.5831  0.5441  0.7147
57760SOL    HW279886   7.692  10.323   9.832 -0.2439 -0.3428 -1.4827
57761SOL     OW79887   0.871   7.254   3.621  0.0743  0.1186  0.4889
57761SOL    HW179888   0.787   7.250   3.668  0.0073  0.5663  0.4123
57761SOL    HW279889   0.868   7.338   3.575 -0.0806 -0.5275 -0.7306
57762SOL     OW79890   9.339   2.050   4.735  0.0369 -0.5261  0.1259
57762SOL    HW179891   9.318   2.081   4.647  2.2306 -0.4542 -0.4322
57762SOL    HW279892   9.414   2.102   4.762  0.6818 -1.9306  1.2037
57763SOL     OW79893   6.234  11.606   3.274  0.3340 -0.6969 -0.3105
57763SOL    HW179894   6.270  11.672   3.215  3.2953 -0.1124  1.9109
57763SOL    HW279895   6.280  11.525   3.250  0.0958 -0.9049 -0.0677
57764SOL     OW79896   3.170   7.411   3.338 -0.6175 -0.2164  0.4241
57764SOL    HW179897   3.250   7.464   3.331 -0.8430  0.3118  1.5618
57764SOL    HW279898   3.099   7.474   3.341 -0.9176 -0.5802  1.4502
57765SOL     OW79899   9.799   7.475   7.126  0.3814 -0.1155  0.3325
57765SOL    HW179900   9.764   7.489   7.215 -2.0333  1.6933 -0.7690
57765SOL    HW279901   9.788   7.381   7.110 -0.6748 -0.2018  1.3981
57766SOL     OW79902   0.791  12.734   2.856  0.1259  0.2770  0.2903
57766SOL    HW179903   0.721  12.772   2.909 -1.0237  0.0262 -0.9642
57766SOL    HW279904   0.872  12.767   2.894 -0.6665  0.4819  1.8702
57767SOL     OW79905  12.489   7.453   2.828  0.1858  0.3689  0.1153
57767SOL    HW179906  12.469   7.370   2.785 -1.7262  0.4387  0.7424
57767SOL    HW279907  12.532   7.506   2.761  2.2927 -1.4076 -0.0346
57768SOL     OW79908   4.675   3.085  11.606  0.0471  0.0106  0.4621
57768SOL    HW179909   4.770   3.084  11.618  0.1825 -2.1720 -0.2460
57768SOL    HW279910   4.654   3.176  11.585  1.6698  0.9750  2.6415
57769SOL     OW79911   7.114   1.792   3.385 -0.1751  0.3837 -0.3375
57769SOL    HW179912   7.166   1.721   3.348 -0.1249  0.6236 -0.7321
57769SOL    HW279913   7.165   1.871   3.367 -1.0849  0.7305 -1.5335
57770SOL     OW79914  10.067   8.911   2.082  0.4242  0.0539  0.0300
57770SOL    HW179915  10.113   8.960   2.151  1.6056 -2.5165  1.2096
57770SOL    HW279916  10.084   8.961   2.002 -0.0161  2.5135  1.3468
57771SOL     OW79917   8.536   2.769   9.262 -0.1488 -0.3732 -0.0219
57771SOL    HW179918   8.513   2.676   9.255  0.3065 -0.5764  1.0426
57771SOL    HW279919   8.548   2.797   9.171  0.9953 -1.6913 -0.3209
57772SOL     OW79920   2.255  11.466   3.039  0.1090  0.1652  0.0063
57772SOL    HW179921   2.274  11.483   2.947  1.6069 -0.2129  0.2227
57772SOL    HW279922   2.176  11.413   3.038  1.0270 -1.2335 -1.1559
57773SOL     OW79923   6.333   3.679  12.282 -0.0666  0.0295 -0.7460
57773SOL    HW179924   6.388   3.702  12.357  0.3645  1.0111 -1.3481
57773SOL    HW279925   6.349   3.749  12.219 -0.6541 -0.6306 -1.6363
57774SOL     OW79926   9.113   7.602   7.511 -0.1929 -0.3147  0.0889
57774SOL    HW179927   9.119   7.684   7.560 -1.0406 -0.0401 -0.2364
57774SOL    HW279928   9.052   7.549   7.563 -1.3566  0.1019 -0.7892
57775SOL     OW79929   5.179  11.571  12.112  0.3233 -0.0464  0.0131
57775SOL    HW179930   5.188  11.592  12.019 -1.7818  0.4259 -0.1389
57775SOL    HW279931   5.193  11.476  12.117  0.6537 -0.0443 -0.7497
57776SOL     OW79932   7.599   3.535   8.326  0.3370  0.0415  0.1350
57776SOL    HW179933   7.673   3.572   8.374  0.0129 -0.1245  0.7719
57776SOL    HW279934   7.551   3.484   8.392 -1.0942  1.2375  0.0633
57777SOL     OW79935   4.606   2.391   0.441 -0.0637 -0.2731  0.3368
57777SOL    HW179936   4.551   2.337   0.384  1.0310 -1.1415  0.0743
57777SOL    HW279937   4.587   2.359   0.530 -1.8238  1.1288  0.5325
57778SOL     OW79938  10.150   6.701   5.757 -0.4468  0.6203  0.0272
57778SOL    HW179939  10.131   6.792   5.731 -0.2944  0.3697 -1.0020
57778SOL    HW279940  10.121   6.649   5.682  0.7168 -0.0800  0.0453
57779SOL     OW79941   8.102   9.867  11.900 -0.4262  0.2461  0.3211
57779SOL    HW179942   8.011   9.838  11.914 -0.7011  1.6326  1.5868
57779SOL    HW279943   8.096   9.924  11.823 -0.3066 -0.9197 -0.6004
57780SOL     OW79944   8.957  10.426   3.352  0.1265 -0.3747  0.2959
57780SOL    HW179945   9.008  10.495   3.396  2.0371 -1.3190 -0.3180
57780SOL    HW279946   8.995  10.423   3.264 -0.5666 -1.5782  0.0343
57781SOL     OW79947   5.318   3.086   8.060 -0.2698  0.0119  0.1179
57781SOL    HW179948   5.249   3.113   8.121 -0.7772 -0.7588 -0.1016
57781SOL    HW279949   5.297   3.132   7.978 -0.1013  0.3471  0.2623
57782SOL     OW79950   8.226   9.287   5.323 -0.4834 -0.0491 -0.3437
57782SOL    HW179951   8.141   9.260   5.357  0.4869 -0.6899  1.7450
57782SOL    HW279952   8.241   9.229   5.248 -1.4356 -0.6253 -0.1028
57783SOL     OW79953   4.578   1.284   3.372  0.2050  0.2849  0.2041
57783SOL    HW179954   4.642   1.214   3.379  0.0827 -0.1495 -2.1791
57783SOL    HW279955   4.506   1.257   3.429  0.6082 -1.0136  0.1238
57784SOL     OW79956   5.428   6.512   2.254 -0.0814  0.1438  0.5654
57784SOL    HW179957   5.374   6.500   2.331  0.0691 -0.9816  0.5147
57784SOL    HW279958   5.388   6.586   2.207 -0.9730 -0.0375  1.0261
57785SOL     OW79959   6.873   1.189   6.329 -0.0049  0.2638  0.8096
57785SOL    HW179960   6.840   1.279   6.328 -0.3460  0.1917 -1.6742
57785SOL    HW279961   6.799   1.137   6.297  0.5746 -0.7359  1.0823
57786SOL     OW79962   7.611  12.324   8.578  0.0486 -0.6722  0.5489
57786SOL    HW179963   7.657  12.282   8.650 -1.4611 -3.4816  0.0501
57786SOL    HW279964   7.576  12.251   8.526 -1.2780  1.2428 -1.4647
57787SOL     OW79965  11.658   0.110   0.257 -0.0443  0.5068 -0.4449
57787SOL    HW179966  11.699   0.065   0.332  1.9537  1.8200 -0.6692
57787SOL    HW279967  11.660   0.045   0.187 -1.8074 -0.6933  0.5382
57788SOL     OW79968  10.686  12.512   8.909  0.0229  0.3535 -0.6750
57788SOL    HW179969  10.738  12.537   8.833  0.2700  0.2579 -0.5350
57788SOL    HW279970  10.746  12.463   8.965  0.5992  2.5741  0.8026
57789SOL     OW79971   5.169   7.848   2.848  0.1556 -0.1507  0.0723
57789SOL    HW179972   5.192   7.816   2.761 -1.1261  0.1669 -0.4019
57789SOL    HW279973   5.074   7.861   2.845  0.4607  2.8081  0.5133
57790SOL     OW79974   5.024   1.496   6.457 -0.2801  0.2564 -0.0560
57790SOL    HW179975   5.096   1.555   6.438 -0.1689 -0.0351 -0.5534
57790SOL    HW279976   5.037   1.470   6.548 -0.6372  1.4208  0.3482
57791SOL     OW79977   8.118   7.667  10.598 -0.4435  0.9504 -0.1380
57791SOL    HW179978   8.045   7.708  10.550  0.6217  1.4902 -1.3623
57791SOL    HW279979   8.192   7.672  10.537  0.0392 -1.8017  0.0891
57792SOL     OW79980  11.310   0.193  10.024 -1.1700  0.7937  0.1037
57792SOL    HW179981  11.245   0.146   9.972 -0.5611 -0.5448  0.5021
57792SOL    HW279982  11.310   0.282   9.988 -1.6390  0.2331 -1.3524
57793SOL     OW79983   1.220   4.658   1.666  0.1602  0.4666  0.1784
57793SOL    HW179984   1.246   4.729   1.608  0.6592 -0.7860 -1.1670
57793SOL    HW279985   1.141   4.621   1.626 -1.1123  1.2934  1.7728
57794SOL     OW79986   3.406  10.723   5.089 -0.2053  0.1019 -0.2316
57794SOL    HW179987   3.347  10.660   5.131  0.0047 -0.6952 -1.0910
57794SOL    HW279988   3.406  10.697   4.997  0.4493  0.9298 -0.4742
57795SOL     OW79989   7.001   6.789   0.049 -0.1792  0.0900  0.2373
57795SOL    HW179990   7.023   6.702   0.083 -0.3116 -0.1032 -0.1621
57795SOL    HW279991   6.907   6.785   0.032 -0.0712  0.0891 -0.3980
57796SOL     OW79992   7.682   6.445   2.525  0.1030 -0.6495  0.0283
57796SOL    HW179993   7.724   6.493   2.454 -0.6268  0.0480  0.0537
57796SOL    HW279994   7.593   6.429   2.494 -0.0408 -0.8751  0.5423
57797SOL     OW79995  12.269   1.518  10.116 -0.8104 -0.9398  0.1737
57797SOL    HW179996  12.223   1.438  10.089 -4.3149  0.7746  0.6230
57797SOL    HW279997  12.224   1.547  10.195  1.6994  0.4811  1.2009
57798SOL     OW79998   4.884   6.283  10.608 -0.0886  0.2680  0.8689
57798SOL    HW179999   4.886   6.271  10.513  0.1252 -0.1478  0.9222
57798SOL    HW280000   4.951   6.349  10.625 -0.4757  0.7119  0.6816
57799SOL     OW80001   8.025   7.767   3.750 -0.5652 -0.7765  0.3796
57799SOL    HW180002   7.977   7.802   3.824  1.0136 -0.0216  1.1056
57799SOL    HW280003   8.051   7.845   3.700  1.9912 -0.8810  1.3795
57800SOL     OW80004  11.419   9.418   6.120  0.6434 -0.2637  0.1741
57800SOL    HW180005  11.494   9.454   6.072  1.7258 -1.7838  0.6530
57800SOL    HW280006  11.414   9.327   6.093 -0.1896 -0.5366  1.1731
57801SOL     OW80007   1.167   8.515   4.018 -0.0456 -0.6523 -0.1257
57801SOL    HW180008   1.128   8.553   4.097  1.9756 -0.3836  0.7848
57801SOL    HW280009   1.203   8.431   4.047 -0.4176 -1.1687 -1.0937
57802SOL     OW80010   4.230  10.117   2.385 -0.3123  0.0916  0.4551
57802SOL    HW180011   4.322  10.139   2.398 -0.1972  0.9613 -1.4543
57802SOL    HW280012   4.217  10.035   2.433  1.6430 -0.4457  0.1303
57803SOL     OW80013   3.892   5.197   3.763 -0.4014  0.1089  0.1174
57803SOL    HW180014   3.983   5.188   3.735 -1.0607 -3.7022 -1.3977
57803SOL    HW280015   3.898   5.216   3.857  1.8241  3.6648 -0.5408
57804SOL     OW80016   6.277   9.491   7.621  0.4698  0.4459  0.2069
57804SOL    HW180017   6.320   9.527   7.543  0.6479  1.1262  0.6109
57804SOL    HW280018   6.207   9.553   7.640 -0.2155 -0.2454  0.0152
57805SOL     OW80019   0.767   2.721   7.666 -0.2057  0.2411 -0.0806
57805SOL    HW180020   0.825   2.787   7.705 -1.2696 -0.4845  3.0530
57805SOL    HW280021   0.826   2.652   7.635  0.7262  0.9204  0.1346
57806SOL     OW80022  10.648   2.603   3.857 -0.4880  0.6306 -0.1416
57806SOL    HW180023  10.697   2.646   3.787  1.3807  0.3066  0.9193
57806SOL    HW280024  10.589   2.543   3.812  0.6261  0.4773 -1.4519
57807SOL     OW80025   6.684   5.356   9.645  0.0462 -0.3264 -0.2861
57807SOL    HW180026   6.747   5.290   9.617  1.2402  0.9483 -0.6922
57807SOL    HW280027   6.623   5.364   9.571 -0.6116 -1.5364  0.0970
57808SOL     OW80028   8.534   1.136   7.279 -0.1510 -0.1348  0.0416
57808SOL    HW180029   8.458   1.138   7.220  0.1184  1.4060 -0.3047
57808SOL    HW280030   8.609   1.125   7.221  0.0004 -0.3193  0.2685
57809SOL     OW80031  10.521  10.643   4.007  0.5406 -0.1758 -0.3516
57809SOL    HW180032  10.515  10.642   4.102 -2.2714 -0.6392 -0.4394
57809SOL    HW280033  10.548  10.732   3.985  0.3364  0.1975  0.8626
57810SOL     OW80034   3.903   2.911   9.955  0.5690 -0.0092 -0.0216
57810SOL    HW180035   3.976   2.850   9.952 -0.6342 -1.5422  0.2824
57810SOL    HW280036   3.833   2.867   9.906  0.1165  1.8198 -1.1232
57811SOL     OW80037   2.167  10.398   1.229 -0.7181 -0.2706  0.3179
57811SOL    HW180038   2.206  10.386   1.142  0.6286  1.2342  0.6588
57811SOL    HW280039   2.088  10.448   1.213  1.2410  3.0529  0.1368
57812SOL     OW80040   0.433   0.537   8.842  0.8211 -0.3894  0.4046
57812SOL    HW180041   0.515   0.543   8.891  0.1237 -2.6856  2.0282
57812SOL    HW280042   0.365   0.543   8.909 -0.2986 -0.4629 -0.6906
57813SOL     OW80043   7.088   6.696   5.804  0.0582 -0.4206  0.6448
57813SOL    HW180044   7.048   6.736   5.727  0.9988  0.3225  0.5222
57813SOL    HW280045   7.061   6.751   5.877 -1.2210 -1.3972  0.9325
57814SOL     OW80046   5.096   8.168   1.536  0.1729  0.1642 -0.1645
57814SOL    HW180047   5.089   8.228   1.611  0.6501 -0.2815  0.2481
57814SOL    HW280048   5.188   8.141   1.536  0.4202  0.9336 -1.5245
57815SOL     OW80049   6.234   1.963  11.127 -0.2095  0.4994  0.2660
57815SOL    HW180050   6.161   1.904  11.108 -1.4966  1.4557  1.8791
57815SOL    HW280051   6.230   1.976  11.222  1.4275  1.4071  0.2535
57816SOL     OW80052   0.064   4.282   4.362  0.0499  0.1365 -0.4234
57816SOL    HW180053   0.090   4.199   4.320 -0.4063 -0.3356  0.2098
57816SOL    HW280054   0.102   4.350   4.306 -0.3434 -0.4840 -1.4741
57817SOL     OW80055   1.754   4.139   6.914  0.4373 -0.5178  0.1720
57817SOL    HW180056   1.777   4.186   6.995  0.8558 -1.6393  0.7333
57817SOL    HW280057   1.659   4.128   6.919  0.3776 -0.0203  0.1930
57818SOL     OW80058   5.575   9.473   8.891 -0.1745  0.3599 -0.2380
57818SOL    HW180059   5.637   9.419   8.940  0.3250  1.6429  0.6097
57818SOL    HW280060   5.614   9.481   8.804  1.3750  1.8416  0.5120
57819SOL     OW80061   5.526   7.089   3.055 -0.0572 -0.0218 -0.1225
57819SOL    HW180062   5.490   7.095   2.967 -0.4192  1.5653  0.1073
57819SOL    HW280063   5.604   7.146   3.052  0.7824 -1.1331  0.1802
57820SOL     OW80064   0.033   6.159   4.310 -0.1278  0.3373  0.1440
57820SOL    HW180065  -0.020   6.109   4.371 -0.7475  1.9937  1.0103
57820SOL    HW280066   0.109   6.187   4.361 -0.5462  1.5533  0.1315
57821SOL     OW80067  10.903   8.332  12.200  0.1301 -0.3436 -0.1917
57821SOL    HW180068  10.980   8.299  12.154 -0.8177 -0.0005 -2.1663
57821SOL    HW280069  10.845   8.256  12.208  0.2145 -0.3598  0.2862
57822SOL     OW80070  10.950  11.642   2.836  0.3487  0.7893 -0.0847
57822SOL    HW180071  10.860  11.622   2.808 -0.0522  1.4560  0.6930
57822SOL    HW280072  10.982  11.560   2.874 -0.3834  0.8802  0.7715
57823SOL     OW80073   2.837   6.579   7.856 -0.0346  0.0550  0.3555
57823SOL    HW180074   2.930   6.558   7.865  0.2178  1.0866  0.2028
57823SOL    HW280075   2.824   6.587   7.761 -0.3263 -0.2675  0.3669
57824SOL     OW80076   1.286   1.266   5.168  1.0294 -0.0655 -0.0110
57824SOL    HW180077   1.287   1.264   5.264  0.1508  0.3709  0.0138
57824SOL    HW280078   1.194   1.255   5.145  1.1186  0.7894 -0.7872
57825SOL     OW80079  11.745   0.387  12.298  0.0559 -0.3327 -0.4719
57825SOL    HW180080  11.651   0.369  12.295  0.1325 -0.5954 -1.4242
57825SOL    HW280081  11.767   0.421  12.211  0.5278  1.4239  0.2816
57826SOL     OW80082  11.215   2.529   7.466 -0.7292  0.0119 -0.4046
57826SOL    HW180083  11.286   2.530   7.402 -0.3662  0.7826 -0.0004
57826SOL    HW280084  11.135   2.529   7.413 -0.4595 -1.4614 -0.8719
57827SOL     OW80085   3.922   9.526   1.524 -0.3590 -0.3223 -0.1458
57827SOL    HW180086   3.865   9.584   1.574 -1.5350 -1.7472  0.2073
57827SOL    HW280087   3.884   9.525   1.436  0.0312 -0.0903 -0.3232
57828SOL     OW80088   2.765  12.209   5.736  0.0303  0.0942 -0.7435
57828SOL    HW180089   2.785  12.115   5.732 -3.1653 -0.6700 -1.6747
57828SOL    HW280090   2.774  12.239   5.645 -1.7397 -0.0536 -1.0060
57829SOL     OW80091   2.376   1.137   9.212  0.2146  0.2753  0.7562
57829SOL    HW180092   2.454   1.178   9.174  0.2115 -0.2179  0.1940
57829SOL    HW280093   2.410   1.064   9.263  0.1810  0.6216  1.2768
57830SOL     OW80094   1.816  10.947  11.661 -0.2411  0.5655 -0.3570
57830SOL    HW180095   1.819  10.876  11.597  2.4859  1.5365 -1.4360
57830SOL    HW280096   1.849  11.023  11.614  0.9733  1.5463  1.9133
57831SOL     OW80097   1.837   3.919  11.335 -0.4200 -0.6304 -0.5448
57831SOL    HW180098   1.779   3.851  11.300 -0.1001 -0.5831 -1.1763
57831SOL    HW280099   1.789   3.955  11.410 -1.3374 -0.3977 -1.2228
57832SOL     OW80100   3.178  12.287   2.861  0.6645 -0.1896  0.2073
57832SOL    HW180101   3.095  12.240   2.858 -0.1091  0.9590  2.0270
57832SOL    HW280102   3.195  12.313   2.770 -1.3730  0.2387 -0.0874
57833SOL     OW80103   7.169   1.081   8.677  0.3256 -0.3590  0.5146
57833SOL    HW180104   7.163   1.162   8.627  0.3296  0.1500  1.3179
57833SOL    HW280105   7.261   1.075   8.703  0.5580 -1.1802 -0.4256
57834SOL     OW80106  12.706   0.527   4.805  0.3669  0.2658 -0.1509
57834SOL    HW180107  12.748   0.568   4.728  2.0562  0.6039  0.8855
57834SOL    HW280108  12.743   0.439   4.808 -1.2053 -0.4632 -0.8084
57835SOL     OW80109   1.774   9.723   7.833  0.2100 -0.1538 -0.0107
57835SOL    HW180110   1.834   9.740   7.760 -1.4184  0.9422 -1.1668
57835SOL    HW280111   1.769   9.806   7.880 -0.5767 -0.1528 -0.0794
57836SOL     OW80112   8.455   7.017   4.775 -0.6597  0.1892 -0.5820
57836SOL    HW180113   8.462   7.094   4.832  0.7852  0.5585 -1.2221
57836SOL    HW280114   8.381   7.035   4.718  0.3975  1.6775 -1.5341
57837SOL     OW80115   7.966   5.885   1.329  0.0848 -0.7533 -0.0978
57837SOL    HW180116   7.921   5.952   1.382  1.3031 -0.7970  1.0484
57837SOL    HW280117   7.972   5.809   1.387  1.5704 -0.7630 -0.2320
57838SOL     OW80118   1.838  12.085  11.579  0.8775 -0.0831 -0.0690
57838SOL    HW180119   1.862  12.063  11.489  1.0405 -0.0897 -0.0255
57838SOL    HW280120   1.843  12.181  11.582 -0.1560 -0.0132 -0.3490
57839SOL     OW80121   8.551   0.355   8.624  0.4151 -0.0713 -0.2023
57839SOL    HW180122   8.614   0.399   8.567  1.1487  0.7159  1.1516
57839SOL    HW280123   8.466   0.371   8.583  0.5154  3.4089  0.5817
57840SOL     OW80124   6.087   5.075   5.161  0.5227 -0.0023  0.5668
57840SOL    HW180125   6.078   4.980   5.154  0.1238  0.0637  0.1610
57840SOL    HW280126   6.128   5.101   5.078 -3.8575  0.7461 -1.6535
57841SOL     OW80127   9.091   0.007   0.049 -0.1745  0.2452 -0.2191
57841SOL    HW180128   9.173  -0.012   0.003  0.9825  1.9917  0.9866
57841SOL    HW280129   9.113  -0.002   0.141 -0.7002  2.7243  0.2365
57842SOL     OW80130   9.561  11.984   3.494  1.0078  0.4553 -0.0139
57842SOL    HW180131   9.616  11.957   3.421  0.4587  0.4705 -0.4423
57842SOL    HW280132   9.603  12.063   3.528  2.0940 -0.3854  0.6449
57843SOL     OW80133   7.536   1.224   4.240  0.5347 -0.2772  0.4154
57843SOL    HW180134   7.565   1.211   4.150 -0.8414  0.0458 -0.0992
57843SOL    HW280135   7.451   1.268   4.232  0.7075  0.4031  1.8838
57844SOL     OW80136   2.710  11.598   3.854  0.5740 -0.3007 -0.5591
57844SOL    HW180137   2.762  11.606   3.773 -0.4256 -0.4119 -1.2272
57844SOL    HW280138   2.755  11.656   3.916  0.0319  1.6781 -1.8921
57845SOL     OW80139   8.295   8.754  10.382 -0.0262  0.0250 -0.4535
57845SOL    HW180140   8.230   8.825  10.384 -0.7842 -0.6550 -0.3815
57845SOL    HW280141   8.361   8.780  10.446 -0.2290  0.7309 -0.5219
57846SOL     OW80142   6.324   2.623  11.648  0.0190 -0.3804  0.4791
57846SOL    HW180143   6.331   2.616  11.743  0.3058  0.0231  0.4945
57846SOL    HW280144   6.236   2.657  11.633  0.3349  0.5580  0.6686
57847SOL     OW80145   2.720   3.475   0.680 -0.1034 -0.9044  0.4549
57847SOL    HW180146   2.787   3.510   0.621 -0.5346 -2.5249 -1.0763
57847SOL    HW280147   2.769   3.446   0.758  0.7103 -0.3497  0.1590
57848SOL     OW80148   6.724   7.743   3.019 -0.5136 -0.3251  0.0168
57848SOL    HW180149   6.721   7.832   3.057 -1.6663 -0.3204 -0.0533
57848SOL    HW280150   6.692   7.754   2.930 -0.4818 -0.7921 -0.0533
57849SOL     OW80151  11.137   5.339  10.847  0.7991 -0.3310  0.2609
57849SOL    HW180152  11.136   5.423  10.893  0.3931  0.3740 -0.9835
57849SOL    HW280153  11.064   5.344  10.786  0.6814 -1.6627  0.2552
57850SOL     OW80154  12.182   5.315   6.000  0.0081 -0.2281  0.1962
57850SOL    HW180155  12.107   5.260   6.024  0.8129 -2.1718 -1.4872
57850SOL    HW280156  12.150   5.405   6.013 -2.3810 -0.9915  0.1901
57851SOL     OW80157   3.935   6.043   8.160  0.0316  0.4049 -0.1767
57851SOL    HW180158   3.859   6.057   8.103 -0.0885  0.4881  0.0062
57851SOL    HW280159   3.998   5.998   8.104 -0.1935  0.2382 -0.2977
57852SOL     OW80160   7.665   5.155   3.643  0.3346 -0.3282 -0.0199
57852SOL    HW180161   7.665   5.133   3.549 -1.1166  0.7507 -0.2995
57852SOL    HW280162   7.592   5.106   3.679  0.2209  0.0927  0.3285
57853SOL     OW80163  11.041   1.553   1.168 -0.2966 -1.2485 -0.0067
57853SOL    HW180164  11.129   1.517   1.153 -0.7773 -1.9163 -1.2833
57853SOL    HW280165  11.018   1.596   1.085 -2.6462 -4.2222 -1.0460
57854SOL     OW80166   0.280  10.821   6.952 -0.3026  0.0854 -0.1523
57854SOL    HW180167   0.274  10.838   7.046  1.7905  1.7984 -0.2564
57854SOL    HW280168   0.263  10.727   6.943  1.2934 -0.5107  2.1771
57855SOL     OW80169   4.971   6.222  12.294  0.1335  0.2740  0.2719
57855SOL    HW180170   4.894   6.214  12.238  0.2115  1.0577  0.0368
57855SOL    HW280171   4.935   6.235  12.382  0.0039 -0.2414  0.2936
57856SOL     OW80172  11.501   2.383   1.972 -0.1491  0.8157 -0.5172
57856SOL    HW180173  11.479   2.412   1.884  1.2182  1.0621 -0.7925
57856SOL    HW280174  11.440   2.312   1.990  0.7732 -0.5208 -2.4086
57857SOL     OW80175  10.243  11.620   0.811 -0.1332  0.0434  0.0753
57857SOL    HW180176  10.181  11.671   0.863 -0.6358 -0.9261  0.4665
57857SOL    HW280177  10.212  11.630   0.721 -0.5389  0.0153  0.2096
57858SOL     OW80178   2.412  12.242   8.867 -0.6520  0.2611  0.5992
57858SOL    HW180179   2.493  12.288   8.845 -0.4549  0.6358  2.0182
57858SOL    HW280180   2.440  12.161   8.908 -1.0133 -0.8737 -1.2686
57859SOL     OW80181   4.969   9.061   2.428  0.5748  0.0289  0.4016
57859SOL    HW180182   4.974   9.113   2.508  0.6852 -0.1447  0.5077
57859SOL    HW280183   5.060   9.041   2.407  0.5218 -0.3162  0.4908
57860SOL     OW80184  10.592   1.776   5.187 -0.0096 -0.0564 -0.2641
57860SOL    HW180185  10.584   1.698   5.242  0.6521  1.0267  1.4456
57860SOL    HW280186  10.502   1.811   5.182 -0.1098 -0.2869 -0.0749
57861SOL     OW80187   7.356   0.807   1.328 -0.2102 -0.4218 -0.2621
57861SOL    HW180188   7.345   0.795   1.423 -2.3162  0.4859 -0.3436
57861SOL    HW280189   7.351   0.902   1.315  0.9175 -0.4679 -1.2312
57862SOL     OW80190   8.027   9.713   9.727 -0.2396 -0.1914 -0.3173
57862SOL    HW180191   7.965   9.646   9.698  0.3979 -1.0339  0.2100
57862SOL    HW280192   7.980   9.795   9.717 -0.9447 -0.6861 -1.2520
57863SOL     OW80193  11.090  10.670   1.487  0.0577  0.4461  0.2084
57863SOL    HW180194  11.135  10.606   1.433  1.2882 -0.3775  2.1131
57863SOL    HW280195  11.160  10.727   1.519 -0.6979  1.1827  0.5774
57864SOL     OW80196   2.565  12.013  11.792 -0.3946  0.1036 -0.7393
57864SOL    HW180197   2.535  11.947  11.854 -0.5461  0.1719 -0.7387
57864SOL    HW280198   2.575  11.965  11.709  0.4802 -0.1359 -0.5025
57865SOL     OW80199  12.191   0.164   3.050  0.4229 -0.1538  0.3115
57865SOL    HW180200  12.101   0.138   3.031  1.2836 -2.1500 -1.4399
57865SOL    HW280201  12.216   0.219   2.976  0.9565 -0.4287  0.2835
57866SOL     OW80202  10.128   2.517   3.036  0.0108  0.0680  0.0323
57866SOL    HW180203  10.040   2.546   3.011 -0.5116  0.0407  1.7228
57866SOL    HW280204  10.185   2.555   2.969 -1.2210  0.5478 -0.7889
57867SOL     OW80205   5.259   4.796   7.490  0.7157 -0.1760  0.2406
57867SOL    HW180206   5.189   4.761   7.435  1.8170 -0.6011 -0.9499
57867SOL    HW280207   5.243   4.757   7.577 -0.1134 -0.8118 -0.1821
57868SOL     OW80208   2.460   7.859   9.783  0.0645 -0.3106 -0.1800
57868SOL    HW180209   2.555   7.845   9.778  0.1871  0.6313 -0.6654
57868SOL    HW280210   2.442   7.923   9.715 -0.9735 -0.6979 -0.2857
57869SOL     OW80211   5.129   4.686   1.773 -0.5729 -0.2322 -0.8123
57869SOL    HW180212   5.137   4.677   1.867 -0.7325  0.6123 -0.7078
57869SOL    HW280213   5.034   4.679   1.756 -0.4978 -0.9331 -0.9790
57870SOL     OW80214   1.867  11.494  12.424 -0.1030 -0.6184  0.1315
57870SOL    HW180215   1.938  11.557  12.414  0.0588 -0.4635  1.8633
57870SOL    HW280216   1.840  11.473  12.335  0.4066  1.2469 -0.5007
57871SOL     OW80217  10.090   7.732   6.859 -0.2281  0.1965 -0.6641
57871SOL    HW180218  10.011   7.755   6.809  0.3859  1.2565 -1.1925
57871SOL    HW280219  10.058   7.717   6.948 -1.1882 -0.5597 -1.1139
57872SOL     OW80220   0.429   3.579  10.301  0.1142 -0.0655  0.1313
57872SOL    HW180221   0.402   3.627  10.379 -1.1476 -1.3226  0.5326
57872SOL    HW280222   0.470   3.499  10.336  1.2777  0.2335 -0.5107
57873SOL     OW80223   0.827  11.886   4.626 -0.0085  0.3038  0.5489
57873SOL    HW180224   0.885  11.871   4.701  0.3843 -0.9779  0.0188
57873SOL    HW280225   0.774  11.806   4.621 -0.9372  0.9264  0.2408
57874SOL     OW80226   5.228  11.919  12.714 -0.0944 -0.1305  0.3990
57874SOL    HW180227   5.297  11.922  12.648 -1.7309 -0.1449 -1.4010
57874SOL    HW280228   5.147  11.909  12.664 -1.6385  1.9407  2.2435
57875SOL     OW80229   8.703   9.466   7.221 -0.6666 -0.2307 -0.4588
57875SOL    HW180230   8.793   9.457   7.251 -0.5113 -0.0017 -0.8447
57875SOL    HW280231   8.650   9.445   7.297 -0.3058  2.2833  0.5896
57876SOL     OW80232   1.808   3.952   6.261 -0.0006 -0.1956 -0.0707
57876SOL    HW180233   1.786   3.894   6.334  0.4305 -1.7449 -1.1078
57876SOL    HW280234   1.724   3.988   6.233 -0.4366 -1.1362 -0.0364
57877SOL     OW80235  10.082   9.594  10.478 -0.2309 -0.6625 -0.7338
57877SOL    HW180236  10.170   9.626  10.455 -0.2904  1.0644  1.2193
57877SOL    HW280237  10.086   9.580  10.572 -1.8749 -1.2259 -0.7279
57878SOL     OW80238   2.797  11.066   7.197 -0.0836  0.0605  0.1203
57878SOL    HW180239   2.715  11.104   7.229 -0.5785 -0.7985 -0.0978
57878SOL    HW280240   2.793  11.076   7.102 -0.2559 -0.5980  0.0534
57879SOL     OW80241   1.020   6.549   7.940  0.4786 -0.1106  0.2953
57879SOL    HW180242   1.106   6.553   7.982 -0.3227 -1.7421  2.2564
57879SOL    HW280243   0.960   6.584   8.005 -0.2540  2.3880 -1.5931
57880SOL     OW80244  10.934   5.027   1.162  0.2822 -0.0778 -0.1782
57880SOL    HW180245  10.986   5.052   1.238  0.6582 -1.0257 -0.1066
57880SOL    HW280246  10.848   5.005   1.197 -0.1611  1.3958 -0.2840
57881SOL     OW80247   7.126   0.290   4.772  0.6756 -0.0014 -0.1459
57881SOL    HW180248   7.214   0.259   4.750 -0.0622 -2.0614 -0.4278
57881SOL    HW280249   7.084   0.305   4.687  0.3705 -0.2082 -0.0333
57882SOL     OW80250   8.886   8.687  12.459  0.0832  0.1802  0.3302
57882SOL    HW180251   8.880   8.733  12.376 -1.7445 -0.3105  0.1372
57882SOL    HW280252   8.813   8.625  12.457  1.6535 -1.8050  1.1432
57883SOL     OW80253  10.272   0.479   1.463 -0.0892 -0.5945 -0.3403
57883SOL    HW180254  10.290   0.386   1.449 -1.3331 -1.0183  0.6653
57883SOL    HW280255  10.251   0.486   1.556  0.2940  0.7531 -0.3423
57884SOL     OW80256   4.261   1.049   0.943  0.2753  0.4551  0.1768
57884SOL    HW180257   4.340   1.097   0.917  0.2091  0.2803 -0.3482
57884SOL    HW280258   4.248   0.985   0.873 -0.1420  0.2609  0.4328
57885SOL     OW80259   7.620   3.830   8.108  0.0578  0.0879  0.3045
57885SOL    HW180260   7.626   3.871   8.194  1.2297 -0.2803  0.4131
57885SOL    HW280261   7.690   3.870   8.058  0.3135 -0.7628 -0.0270
57886SOL     OW80262  10.066   4.709   9.048 -0.0707  0.2889 -0.4198
57886SOL    HW180263  10.036   4.788   9.003  0.1127  0.9303  0.5524
57886SOL    HW280264  10.161   4.713   9.043 -0.0153  0.7821  0.6761
57887SOL     OW80265   6.017   3.757   1.042  0.3746  0.7695 -0.1419
57887SOL    HW180266   6.026   3.772   1.136 -1.1960  0.3762  0.1015
57887SOL    HW280267   6.074   3.822   1.002  1.4826  0.6084  1.0758
57888SOL     OW80268   4.400  11.205  10.938 -0.0138 -0.2452 -0.3688
57888SOL    HW180269   4.334  11.265  10.972 -0.2298 -1.0168  0.6197
57888SOL    HW280270   4.482  11.255  10.941  0.1826 -0.5817  2.3162
57889SOL     OW80271  11.199   2.882   2.024  0.4297  0.4950  0.1616
57889SOL    HW180272  11.291   2.879   2.052  0.6325  0.7313 -0.4759
57889SOL    HW280273  11.162   2.955   2.073  0.7526  0.8265 -0.0825
57890SOL     OW80274   7.002  10.045  11.622  0.0235 -0.0071 -0.2292
57890SOL    HW180275   7.007  10.088  11.537 -0.2256  1.6467  0.5569
57890SOL    HW280276   7.071  10.087  11.674  0.5084 -1.3395  0.2603
57891SOL     OW80277  11.904   6.769   3.427 -0.3190  0.5199 -0.0104
57891SOL    HW180278  11.891   6.821   3.506  0.6735  2.2136 -0.9037
57891SOL    HW280279  11.999   6.768   3.414 -0.5230  1.2689 -1.7991
57892SOL     OW80280   8.615   1.108   9.855  0.1794  0.8757 -0.5367
57892SOL    HW180281   8.665   1.102   9.936 -0.2882  0.3096 -0.2878
57892SOL    HW280282   8.652   1.184   9.810  0.9691  0.7261 -0.1569
57893SOL     OW80283   0.105   2.555  10.985 -0.2444 -0.0480 -0.0683
57893SOL    HW180284   0.075   2.597  11.066 -0.5245 -0.2603 -0.0624
57893SOL    HW280285   0.196   2.532  11.004 -0.1276  0.4271 -0.0230
57894SOL     OW80286   3.224   5.660   6.894  0.7056 -0.0903 -0.5912
57894SOL    HW180287   3.264   5.646   6.808 -0.5923 -2.1041 -0.9315
57894SOL    HW280288   3.297   5.668   6.954  1.6238 -0.2136 -1.6662
57895SOL     OW80289   1.664  10.413   7.926 -0.1251 -0.1980  0.1706
57895SOL    HW180290   1.640  10.450   8.011 -0.4319 -1.9714  0.8920
57895SOL    HW280291   1.584  10.423   7.873 -0.4479 -0.5058  0.5944
57896SOL     OW80292   4.298   1.328   5.786 -0.2297  0.2872  0.3234
57896SOL    HW180293   4.388   1.360   5.781 -0.6741  1.4689 -3.1917
57896SOL    HW280294   4.244   1.407   5.780 -1.4929 -0.5455  0.3641
57897SOL     OW80295   0.898   4.901   8.304  0.7387  0.0999 -0.1096
57897SOL    HW180296   0.832   4.882   8.371  0.0574 -0.5949 -0.9527
57897SOL    HW280297   0.932   4.987   8.329  1.3458 -0.6398  1.7685
57898SOL     OW80298   9.965   4.273   3.861 -0.2800  0.8353  0.0898
57898SOL    HW180299  10.050   4.317   3.870  1.0729 -1.6651  0.5849
57898SOL    HW280300   9.912   4.310   3.932  1.0253  1.1567  0.9459
57899SOL     OW80301   7.269   7.784   1.512 -0.3625 -0.0029 -0.5731
57899SOL    HW180302   7.281   7.689   1.507 -0.6418 -0.2063  1.4972
57899SOL    HW280303   7.174   7.796   1.503 -0.4440 -0.0407  0.1420
57900SOL     OW80304   1.311  11.915   8.329  0.5934 -0.3146 -0.5635
57900SOL    HW180305   1.394  11.963   8.331  1.7764 -2.1878 -1.9442
57900SOL    HW280306   1.267  11.946   8.250  0.0683  0.5089  0.0443
57901SOL     OW80307   4.169   0.043   4.520 -0.5663  0.3957 -0.1127
57901SOL    HW180308   4.149   0.103   4.448  0.9200  0.5607 -0.4241
57901SOL    HW280309   4.263   0.053   4.534 -0.6829 -0.2570  1.3057
57902SOL     OW80310   8.626   3.655   8.650  0.0638  0.4853  0.3233
57902SOL    HW180311   8.665   3.691   8.570 -1.4258 -0.9389 -1.1137
57902SOL    HW280312   8.685   3.683   8.720  2.4974  0.1446 -1.4728
57903SOL     OW80313   1.440   1.241   7.457  0.1935 -0.3320 -0.5111
57903SOL    HW180314   1.526   1.261   7.495  0.1403 -1.3036  0.1590
57903SOL    HW280315   1.380   1.301   7.501  0.6448  1.0806 -1.7254
57904SOL     OW80316   3.318  10.056   1.070  0.2170 -0.0027  0.8541
57904SOL    HW180317   3.263   9.978   1.064  1.3011 -0.8257  1.4753
57904SOL    HW280318   3.313  10.083   1.161 -0.3849  0.8468  0.5858
57905SOL     OW80319   0.361   8.946   5.129 -0.4119  0.3330  0.1085
57905SOL    HW180320   0.404   8.939   5.044  1.3893  0.5370  0.9470
57905SOL    HW280321   0.272   8.975   5.109 -0.1955 -0.1329 -1.7187
57906SOL     OW80322   5.506  10.494   5.119  0.5845 -0.2411 -0.3730
57906SOL    HW180323   5.499  10.561   5.051  1.2748 -1.3814 -1.6120
57906SOL    HW280324   5.557  10.424   5.078 -0.5672 -1.7611  0.7006
57907SOL     OW80325   8.271   2.605   0.301 -0.3255  0.0660  0.1825
57907SOL    HW180326   8.251   2.674   0.363 -2.6719  0.7744 -1.2438
57907SOL    HW280327   8.303   2.651   0.223  0.3296 -0.6424  0.0185
57908SOL     OW80328  12.640  11.468   9.833  0.1597  0.0280  0.1445
57908SOL    HW180329  12.570  11.462   9.898  0.5413  1.2125  0.6867
57908SOL    HW280330  12.669  11.378   9.821 -0.5407 -0.3166  0.9228
57909SOL     OW80331  10.019   8.498   8.503  0.6159  0.0639  0.1024
57909SOL    HW180332  10.103   8.499   8.457 -0.2294  1.0409 -1.5225
57909SOL    HW280333  10.034   8.445   8.581  2.6167 -0.1245 -0.3711
57910SOL     OW80334   6.214   9.499   3.696  0.1073 -0.3944 -0.0885
57910SOL    HW180335   6.178   9.454   3.772 -0.2288  1.2656  0.7858
57910SOL    HW280336   6.291   9.449   3.672 -0.9127 -2.1162  0.0707
57911SOL     OW80337   5.161   1.390   0.147 -0.4382  0.4123  0.6005
57911SOL    HW180338   5.067   1.374   0.145 -0.5570  1.1352  0.2438
57911SOL    HW280339   5.183   1.392   0.240 -0.7846  0.3258  0.6852
57912SOL     OW80340  11.292   6.298   3.752 -0.0393 -0.0925 -0.1150
57912SOL    HW180341  11.244   6.381   3.747  1.0100  0.5147 -0.7411
57912SOL    HW280342  11.313   6.288   3.844 -1.3413 -0.3704  0.1692
57913SOL     OW80343   8.234  12.234   2.369  0.3712 -0.7783 -0.1426
57913SOL    HW180344   8.273  12.290   2.436  0.9581 -0.3705 -0.8166
57913SOL    HW280345   8.276  12.261   2.287  0.5006 -2.0499 -0.5144
57914SOL     OW80346   6.692   8.759   2.286 -0.6007 -0.3105  1.0909
57914SOL    HW180347   6.754   8.730   2.354 -0.1096  1.3641  1.4127
57914SOL    HW280348   6.610   8.716   2.308 -0.6810  0.8267  3.2856
57915SOL     OW80349   8.417  10.330   6.108  0.3480 -0.2411  0.2951
57915SOL    HW180350   8.460  10.414   6.093 -2.0098  1.1192  0.7350
57915SOL    HW280351   8.373  10.340   6.192  0.6828 -2.2492  0.7725
57916SOL     OW80352  10.000   7.357  11.529 -0.3064  0.1601 -0.0791
57916SOL    HW180353  10.076   7.301  11.510  0.0857  1.1950 -1.8384
57916SOL    HW280354  10.037   7.444  11.543 -0.9502  0.1303  2.1845
57917SOL     OW80355   2.401   9.869   5.355  0.3762 -0.3763 -0.1355
57917SOL    HW180356   2.458   9.911   5.420  0.4904 -0.8947  0.1110
57917SOL    HW280357   2.331   9.933   5.340 -0.1425 -0.5873  1.1740
57918SOL     OW80358   0.453   1.873  10.760 -0.4568 -0.1283 -0.1871
57918SOL    HW180359   0.400   1.860  10.838 -2.3361 -0.7817 -1.4888
57918SOL    HW280360   0.396   1.919  10.699  1.2923  1.2655 -0.8598
57919SOL     OW80361   5.266   5.695   4.234  0.5108  0.2677 -0.4581
57919SOL    HW180362   5.361   5.703   4.241  0.5753 -0.1150 -0.7995
57919SOL    HW280363   5.244   5.620   4.289  0.3965  0.4254 -0.2926
57920SOL     OW80364   9.928   2.213   8.134 -0.4559 -0.0049  0.1324
57920SOL    HW180365   9.886   2.291   8.099 -0.1839  0.1924  0.2456
57920SOL    HW280366   9.987   2.245   8.203 -1.3915 -0.4387  1.1648
57921SOL     OW80367  12.493   4.464   7.221 -0.2007  0.2804 -0.5659
57921SOL    HW180368  12.531   4.514   7.293  0.0976  1.0173 -1.2187
57921SOL    HW280369  12.404   4.444   7.249 -0.2222  0.9260 -0.1642
57922SOL     OW80370   6.115   2.368  10.606  0.2199  0.6808  0.4353
57922SOL    HW180371   6.177   2.377  10.534 -0.8548  0.6847 -0.5307
57922SOL    HW280372   6.055   2.299  10.577 -0.3461  0.8173  1.2454
57923SOL     OW80373   4.965  11.272   3.098  0.6138 -0.1189 -0.4210
57923SOL    HW180374   4.925  11.185   3.094  2.1913 -1.0724  2.3132
57923SOL    HW280375   4.897  11.327   3.138  0.9814 -1.1386  1.7779
57924SOL     OW80376   3.082   5.261   5.206  0.0109  0.4573  0.3814
57924SOL    HW180377   3.120   5.199   5.144 -1.2108  0.0329  0.0247
57924SOL    HW280378   3.157   5.307   5.243  0.9351 -0.9628  0.3717
57925SOL     OW80379   5.206   0.251   4.933 -0.5701 -0.2793  0.1337
57925SOL    HW180380   5.246   0.200   4.863  0.3817 -1.5365  1.5224
57925SOL    HW280381   5.257   0.331   4.937 -1.3846  0.3626 -1.3464
57926SOL     OW80382   6.838   8.252   5.571 -0.0346  0.4808  0.2094
57926SOL    HW180383   6.926   8.272   5.538  0.3260  0.6732  1.2449
57926SOL    HW280384   6.788   8.228   5.493  1.0939 -0.2230 -0.3196
57927SOL     OW80385  11.973   9.479   4.509  0.3568  0.1909  0.3023
57927SOL    HW180386  11.940   9.517   4.428 -2.1105 -2.1717  0.0698
57927SOL    HW280387  11.917   9.516   4.578  1.1248  0.6322  0.7077
57928SOL     OW80388   6.896   8.213   7.181  0.2875 -0.1823  0.2542
57928SOL    HW180389   6.969   8.199   7.242  0.9848 -2.8020 -1.0173
57928SOL    HW280390   6.819   8.182   7.228  0.3347  0.5171  0.8093
57929SOL     OW80391   6.823   9.665   8.830  0.1567  0.6517  0.2358
57929SOL    HW180392   6.860   9.597   8.774  0.0387 -0.6850  1.6959
57929SOL    HW280393   6.868   9.745   8.804  0.3926  0.0150 -1.4518
57930SOL     OW80394  11.897   2.743   0.552 -0.6313  0.4212  0.3652
57930SOL    HW180395  11.940   2.668   0.510  1.9866  1.2483  1.3496
57930SOL    HW280396  11.888   2.808   0.483  1.7602  1.0079  0.5132
57931SOL     OW80397   6.773  11.697   4.668  0.1356  0.0211 -0.4353
57931SOL    HW180398   6.679  11.711   4.658  0.3004 -0.2490 -2.8013
57931SOL    HW280399   6.813  11.778   4.635  0.7588 -0.3561 -0.6199
57932SOL     OW80400   2.509   9.382   1.655 -0.4419  0.4699 -0.8264
57932SOL    HW180401   2.560   9.447   1.606  0.2814  0.7883  0.2728
57932SOL    HW280402   2.426   9.426   1.675  0.7856  1.9448  1.6416
57933SOL     OW80403  10.610  11.399   1.509 -0.1208  0.0123 -0.0333
57933SOL    HW180404  10.686  11.347   1.482 -0.8492 -0.9394 -0.3268
57933SOL    HW280405  10.544  11.381   1.442 -1.5645 -1.4511  1.6833
57934SOL     OW80406   6.431   4.064   8.722 -0.1500 -0.2899 -0.0943
57934SOL    HW180407   6.394   4.151   8.732 -1.3173 -0.5418 -1.7800
57934SOL    HW280408   6.512   4.066   8.773 -0.3559  1.6317  0.2248
57935SOL     OW80409   3.710   2.167   1.540  0.0975 -0.6066  0.4184
57935SOL    HW180410   3.623   2.174   1.500  0.1675 -1.1364  0.1775
57935SOL    HW280411   3.693   2.172   1.634 -0.2307 -1.0880  0.3861
57936SOL     OW80412   2.828   5.622   9.107  0.0720  0.4398  0.1460
57936SOL    HW180413   2.846   5.544   9.159 -0.7202  1.0682  1.4079
57936SOL    HW280414   2.813   5.589   9.018  0.7597 -0.7200  0.4383
57937SOL     OW80415   2.690   9.400   8.627  1.0176 -0.0569  0.0764
57937SOL    HW180416   2.641   9.319   8.613  0.4831  0.5649 -2.1173
57937SOL    HW280417   2.777   9.382   8.592  0.5721  0.5962 -1.4685
57938SOL     OW80418   7.872   4.178   9.505  0.1905  0.1948 -0.0433
57938SOL    HW180419   7.831   4.097   9.536 -0.5502  0.4211 -0.4100
57938SOL    HW280420   7.798   4.236   9.485  0.7140  0.9915  0.2845
57939SOL     OW80421   7.781   8.116  10.106  0.8259 -0.1489  0.5560
57939SOL    HW180422   7.810   8.026  10.120 -0.3531 -0.4577  1.2013
57939SOL    HW280423   7.780   8.155  10.194 -0.3955 -0.0785  0.5290
57940SOL     OW80424   4.797  10.228   9.069  0.3878 -0.8567  0.1306
57940SOL    HW180425   4.785  10.323   9.065 -1.0948 -1.0223 -0.1630
57940SOL    HW280426   4.829  10.212   9.158  2.2053  0.0282 -0.3186
57941SOL     OW80427   4.333  11.155   8.717 -0.0979  0.0454  0.2233
57941SOL    HW180428   4.408  11.210   8.735  0.3013 -0.7403  1.0866
57941SOL    HW280429   4.333  11.091   8.788  0.1083 -1.7559 -1.3129
57942SOL     OW80430  11.831  12.444   4.356  0.1478 -0.2461  0.1509
57942SOL    HW180431  11.860  12.486   4.274  1.2833 -2.0354 -0.4168
57942SOL    HW280432  11.736  12.445   4.351  0.1674  0.9850 -0.4807
57943SOL     OW80433   2.674   1.543   6.647  0.2277  0.3605 -0.2145
57943SOL    HW180434   2.687   1.554   6.553 -1.7064  0.2559 -0.5310
57943SOL    HW280435   2.760   1.560   6.685  0.9948  0.6309 -1.9751
57944SOL     OW80436   2.025   2.013   1.570  0.1054  0.0868 -0.1091
57944SOL    HW180437   2.047   2.082   1.507 -0.7890 -0.0132 -0.5498
57944SOL    HW280438   1.972   1.951   1.520 -1.5170  0.5389  0.9726
57945SOL     OW80439   2.177   9.494   0.284  0.3360 -0.4212  0.2000
57945SOL    HW180440   2.143   9.419   0.236 -2.0829 -0.3750  1.6496
57945SOL    HW280441   2.140   9.570   0.240  0.1264 -0.2637  0.6363
57946SOL     OW80442   0.917   9.775   3.962 -0.0778  0.1072  0.0942
57946SOL    HW180443   1.001   9.802   3.924 -1.0776  0.2567 -2.1014
57946SOL    HW280444   0.872   9.857   3.982 -0.6484  0.0586 -0.9430
57947SOL     OW80445   8.959   7.904   4.867 -0.7696 -0.3387 -0.7644
57947SOL    HW180446   8.958   7.941   4.955 -0.1381 -1.1697 -0.3951
57947SOL    HW280447   8.992   7.815   4.878  3.2209  0.7135 -2.2684
57948SOL     OW80448   8.167   4.506   1.151  0.5218  0.1110 -0.4434
57948SOL    HW180449   8.168   4.450   1.228  1.2993  0.0279 -0.5102
57948SOL    HW280450   8.074   4.528   1.138  0.1072 -1.7261 -0.8308
57949SOL     OW80451   0.049   8.703  11.969  0.2340 -0.2540 -0.0721
57949SOL    HW180452   0.124   8.688  11.912  0.3326 -3.4613  0.7204
57949SOL    HW280453  -0.026   8.706  11.909  0.7160  0.2767 -0.6594
57950SOL     OW80454   6.447   2.460   1.782 -0.3702 -0.3488 -0.5322
57950SOL    HW180455   6.434   2.371   1.815 -0.8369 -0.1941 -0.2772
57950SOL    HW280456   6.467   2.449   1.690  1.3920 -0.8190 -0.1250
57951SOL     OW80457   5.664  12.431  10.272  0.1104 -0.1449 -0.1432
57951SOL    HW180458   5.590  12.481  10.307  0.3241  0.1809 -0.1443
57951SOL    HW280459   5.626  12.351  10.237 -0.5474  1.0189 -2.2060
57952SOL     OW80460   6.199  12.366   3.663 -0.1100 -0.0032  0.0264
57952SOL    HW180461   6.150  12.304   3.717 -1.2617  2.6053  2.2454
57952SOL    HW280462   6.276  12.388   3.716  0.7306 -0.1568 -1.1016
57953SOL     OW80463  11.287   9.615   5.612 -0.2815  0.2353 -0.1734
57953SOL    HW180464  11.309   9.610   5.705  0.3222  3.1354 -0.0504
57953SOL    HW280465  11.203   9.661   5.611 -0.8748 -0.8363 -1.0562
57954SOL     OW80466  11.582  11.579   6.270  0.0017 -0.2206  0.0769
57954SOL    HW180467  11.611  11.585   6.361 -0.9797  1.0741  0.3343
57954SOL    HW280468  11.648  11.524   6.228  0.0641 -1.4960  1.7200
57955SOL     OW80469   9.284   9.959   4.728  0.3741  0.3797  0.3278
57955SOL    HW180470   9.308  10.052   4.725 -0.2894  0.5527  0.1031
57955SOL    HW280471   9.223   9.953   4.801 -0.1137  0.2522 -0.0877
57956SOL     OW80472  10.759   1.067   2.096 -0.1068  0.4920 -0.4793
57956SOL    HW180473  10.694   1.123   2.053  0.5126  0.1814 -1.8596
57956SOL    HW280474  10.834   1.124   2.111  0.2389  0.2278 -1.1891
57957SOL     OW80475   9.869   0.908   9.204  0.0674 -0.4680  0.1629
57957SOL    HW180476   9.909   0.866   9.128  2.5222  0.8083  0.6547
57957SOL    HW280477   9.942   0.949   9.250 -1.6888  0.9404  1.8519
57958SOL     OW80478   8.900   6.866   4.755  0.0222  0.2473 -0.0285
57958SOL    HW180479   8.847   6.901   4.827  1.5415 -1.0155  1.7932
57958SOL    HW280480   8.921   6.777   4.781  1.7770  0.1926 -1.3980
57959SOL     OW80481   4.922   2.755   9.113  0.1585 -0.0614 -0.3530
57959SOL    HW180482   4.838   2.797   9.098 -0.6459 -2.0217 -1.5975
57959SOL    HW280483   4.970   2.767   9.031  0.1511 -0.9976 -0.5052
57960SOL     OW80484   9.188   2.557  10.826 -0.2337  0.4103 -1.1141
57960SOL    HW180485   9.112   2.610  10.849  0.2938 -0.2180  2.5905
57960SOL    HW280486   9.253   2.576  10.893  2.0994 -0.7596 -2.8876
57961SOL     OW80487   4.995   0.360   8.823 -0.2291 -0.2356 -0.6311
57961SOL    HW180488   5.028   0.425   8.884  0.8755 -1.1068 -0.2751
57961SOL    HW280489   4.900   0.362   8.835  0.0400 -1.8417  2.6591
57962SOL     OW80490   4.871   4.219   6.693 -0.2205 -0.3829 -0.2390
57962SOL    HW180491   4.922   4.166   6.631 -0.1310  0.0780 -0.5652
57962SOL    HW280492   4.804   4.260   6.639  0.7877  1.2351 -0.3147
57963SOL     OW80493   2.508  11.127   7.616 -1.0057 -0.1429  0.6474
57963SOL    HW180494   2.429  11.181   7.614  0.3807  2.0178 -0.3719
57963SOL    HW280495   2.575  11.184   7.654  0.2704 -1.5968  0.6775
57964SOL     OW80496   5.341   8.410   6.502  0.0343  0.3325  0.2549
57964SOL    HW180497   5.385   8.411   6.417  0.1453 -1.0794  0.2685
57964SOL    HW280498   5.412   8.399   6.565 -0.2306 -1.3498  0.3162
57965SOL     OW80499   9.511   4.129   7.746  0.0251 -1.0328  0.0110
57965SOL    HW180500   9.462   4.077   7.809  1.4291 -2.7315 -0.2177
57965SOL    HW280501   9.588   4.159   7.794  0.5195 -1.3593 -0.5647
57966SOL     OW80502  10.981   7.876   3.590 -0.2695 -0.0773 -0.1027
57966SOL    HW180503  10.902   7.841   3.631  0.4209 -1.5981 -0.0217
57966SOL    HW280504  11.020   7.802   3.544 -0.2345  1.2470 -2.3349
57967SOL     OW80505  10.737  12.185   8.618 -0.6577  0.2267 -0.0004
57967SOL    HW180506  10.675  12.256   8.600  0.6504  1.0639 -1.5592
57967SOL    HW280507  10.816  12.230   8.649 -0.7959 -0.8109  1.9653
57968SOL     OW80508   2.086  12.771   5.487  0.0459  0.0366  0.5740
57968SOL    HW180509   2.071  12.700   5.425  1.1495 -1.4115  1.8562
57968SOL    HW280510   2.134  12.729   5.559  1.4949  2.2732  1.0083
57969SOL     OW80511   2.781  11.036   8.355 -0.2760  1.2754  0.3888
57969SOL    HW180512   2.783  11.055   8.449  1.0606 -0.0535  0.6764
57969SOL    HW280513   2.855  11.084   8.319 -0.7383  1.7186  0.0245
57970SOL     OW80514   5.683   3.168   3.190 -0.0252  0.1057 -0.1569
57970SOL    HW180515   5.629   3.241   3.220 -0.0381 -0.1794  0.5143
57970SOL    HW280516   5.622   3.095   3.178 -0.0889  0.3205 -1.2877
57971SOL     OW80517   4.144   1.848   3.811 -0.1544 -0.4139  0.0002
57971SOL    HW180518   4.176   1.823   3.724  0.2700 -0.1839  0.0878
57971SOL    HW280519   4.119   1.940   3.801 -1.3505 -0.7378 -0.2206
57972SOL     OW80520   7.780   7.695   4.786 -0.0707 -0.1859  0.1577
57972SOL    HW180521   7.836   7.651   4.850  0.4111  1.0707  0.6483
57972SOL    HW280522   7.697   7.706   4.831  0.1698  0.4093  0.4827
57973SOL     OW80523  10.555   9.956   7.514  0.0644  0.9041 -0.0211
57973SOL    HW180524  10.574   9.867   7.486  0.8380  1.1861 -0.4209
57973SOL    HW280525  10.576   9.957   7.608 -2.6652 -0.0782  0.6789
57974SOL     OW80526   1.678   5.331  10.891  0.1399 -0.3045 -0.3257
57974SOL    HW180527   1.604   5.273  10.910  0.5264 -1.2904 -1.7062
57974SOL    HW280528   1.688   5.327  10.796 -0.5504  2.9553 -0.6747
57975SOL     OW80529   6.665   4.549   4.540 -0.0552 -0.0989 -0.3671
57975SOL    HW180530   6.726   4.596   4.597  1.5459 -0.8771 -1.3854
57975SOL    HW280531   6.582   4.550   4.588  1.0518 -0.1021  1.6579
57976SOL     OW80532  11.761   4.823   4.075 -0.5906 -0.0976 -0.1484
57976SOL    HW180533  11.711   4.882   4.019 -1.3657 -0.9206 -0.3506
57976SOL    HW280534  11.851   4.853   4.068 -1.0833  1.6730  0.5193
57977SOL     OW80535   9.654   5.665  11.901  0.3568  0.1924 -0.0388
57977SOL    HW180536   9.708   5.739  11.929 -0.4257  0.2692  1.3830
57977SOL    HW280537   9.629   5.622  11.983 -1.8079  0.2389 -0.6138
57978SOL     OW80538   3.389   1.522   9.718 -0.1996 -0.0461  0.0159
57978SOL    HW180539   3.325   1.506   9.648  0.7889 -1.5402 -0.6010
57978SOL    HW280540   3.461   1.462   9.699  0.2281 -0.3076  2.1745
57979SOL     OW80541   8.934   7.044   2.325 -0.4001 -0.4254  0.0432
57979SOL    HW180542   8.895   7.003   2.403  0.0066 -1.1461 -0.1169
57979SOL    HW280543   9.017   6.997   2.313  0.4387  0.9316  0.2643
57980SOL     OW80544   7.774   6.901   1.643 -0.1276  0.3283  0.8068
57980SOL    HW180545   7.772   6.954   1.564 -1.2413  1.4963  1.5621
57980SOL    HW280546   7.719   6.825   1.622  0.8667 -0.1694 -0.0408
57981SOL     OW80547   3.598   7.676   3.858 -0.1069 -0.3656 -0.2043
57981SOL    HW180548   3.692   7.693   3.855 -0.4711  1.9282 -1.2666
57981SOL    HW280549   3.566   7.705   3.772 -1.9633  0.3397  0.6768
57982SOL     OW80550  12.671  11.990   2.569 -0.0693  0.2185  0.6500
57982SOL    HW180551  12.672  11.897   2.591 -1.4391 -0.2666 -1.0894
57982SOL    HW280552  12.714  12.033   2.643 -0.0651 -1.7123  1.8293
57983SOL     OW80553   3.678   7.288  10.558  0.1594  0.4181  0.0906
57983SOL    HW180554   3.771   7.280  10.577  0.5681 -1.3059 -2.2189
57983SOL    HW280555   3.662   7.226  10.487 -2.4859  1.6018 -0.4910
57984SOL     OW80556   9.800   2.988   1.258  0.1607  0.7041  0.0165
57984SOL    HW180557   9.874   3.048   1.254  0.6394  0.0700 -2.4235
57984SOL    HW280558   9.818   2.932   1.334  0.3414  2.7484  1.5723
57985SOL     OW80559  11.203   9.326  12.307  0.0490  0.0283  0.5519
57985SOL    HW180560  11.236   9.243  12.344 -0.6174 -0.8006 -0.6492
57985SOL    HW280561  11.110   9.309  12.290 -0.2430  1.2365  0.8239
57986SOL     OW80562  12.169   6.476   9.643  0.7113  0.2571  0.0283
57986SOL    HW180563  12.121   6.500   9.564  0.1508 -0.5817  0.1005
57986SOL    HW280564  12.105   6.484   9.714  0.6320 -0.9446  0.1149
57987SOL     OW80565  12.489   8.415   6.541 -0.0141  0.0858  0.1142
57987SOL    HW180566  12.578   8.440   6.517 -0.3733  0.8744 -0.4627
57987SOL    HW280567  12.454   8.372   6.463 -0.4167  0.5569  0.0290
57988SOL     OW80568   2.500   6.573   0.907  0.3062 -0.4988  0.3127
57988SOL    HW180569   2.557   6.647   0.932 -0.7973  0.2430  0.7133
57988SOL    HW280570   2.414   6.596   0.943 -0.8178 -0.5040 -2.1814
57989SOL     OW80571   1.457   7.627  10.428 -0.4572 -0.3955 -0.5364
57989SOL    HW180572   1.370   7.598  10.402 -0.4545 -0.8532 -0.0723
57989SOL    HW280573   1.472   7.583  10.512 -1.0806  2.1525  1.0049
57990SOL     OW80574   3.276   3.655   0.533 -0.4788 -0.2407 -0.0350
57990SOL    HW180575   3.294   3.583   0.473 -1.7147  0.3100 -1.0999
57990SOL    HW280576   3.182   3.672   0.523 -0.3431  1.0554  0.7163
57991SOL     OW80577   5.413   5.530  11.151 -0.0059  1.0874 -0.9155
57991SOL    HW180578   5.487   5.535  11.211 -0.0644 -1.8089 -0.4658
57991SOL    HW280579   5.342   5.576  11.196  0.3708  0.2623  0.5582
57992SOL     OW80580   5.276   7.283   3.127  0.1398 -1.0420  0.6010
57992SOL    HW180581   5.313   7.350   3.186 -0.5782 -2.1569  2.4065
57992SOL    HW280582   5.350   7.227   3.106  0.5406 -0.2626 -0.1210
57993SOL     OW80583  11.358   4.153  12.010 -0.3323  0.2619  0.3824
57993SOL    HW180584  11.287   4.152  11.946 -1.1650 -0.3333  1.2963
57993SOL    HW280585  11.399   4.239  11.999 -0.4096  0.1516 -0.9820
57994SOL     OW80586   0.905   5.591  11.590 -0.0297  0.0328 -0.3921
57994SOL    HW180587   0.913   5.561  11.681  2.3581  1.4814 -0.0341
57994SOL    HW280588   0.885   5.511  11.540  0.2050 -1.0685  1.1953
57995SOL     OW80589   8.862   5.349   9.689 -0.4710 -0.1052  0.2243
57995SOL    HW180590   8.823   5.275   9.644  0.5837 -0.7262  0.2975
57995SOL    HW280591   8.850   5.330   9.782  2.3895 -1.7303  0.3729
57996SOL     OW80592   1.135   9.607   7.491  0.4322 -0.6070  0.0442
57996SOL    HW180593   1.058   9.647   7.530  0.3254 -1.0040  0.2487
57996SOL    HW280594   1.101   9.553   7.420  0.2650 -2.5660  1.5301
57997SOL     OW80595   3.282   8.029   3.867 -0.7336 -0.5028 -0.4861
57997SOL    HW180596   3.363   8.046   3.818 -1.3440  1.0251 -1.0076
57997SOL    HW280597   3.303   7.953   3.922  1.0423 -0.1781 -0.6582
57998SOL     OW80598   5.873   5.231  10.262 -0.2287 -0.4967 -0.7654
57998SOL    HW180599   5.964   5.220  10.234  0.0948  1.8980 -0.8105
57998SOL    HW280600   5.874   5.305  10.322 -1.7517 -2.2486  1.6284
57999SOL     OW80601   6.410   8.052   6.856 -0.1506  0.0766 -0.5161
57999SOL    HW180602   6.379   7.966   6.883 -1.9069  0.2939 -1.7157
57999SOL    HW280603   6.431   8.096   6.938 -0.8095 -0.9146  0.2115
58000SOL     OW80604  10.186  10.849   4.108 -0.2262 -0.8206 -0.2826
58000SOL    HW180605  10.102  10.852   4.153  0.5762 -0.0041  1.2016
58000SOL    HW280606  10.228  10.933   4.127  0.2689 -0.5183 -2.3777
58001SOL     OW80607   3.233   5.509   4.026  0.1768 -0.1133 -0.4565
58001SOL    HW180608   3.310   5.544   3.980 -0.9579  0.3320 -2.0990
58001SOL    HW280609   3.245   5.538   4.117  2.4257 -0.9016 -0.4241
58002SOL     OW80610   3.823   9.448   2.637 -0.0971  0.2860  0.4042
58002SOL    HW180611   3.755   9.408   2.584 -0.6631  2.9849 -1.0886
58002SOL    HW280612   3.778   9.513   2.691  1.0716  1.0281  0.5411
58003SOL     OW80613   2.546   5.044   7.465 -0.2530 -0.6036 -0.4862
58003SOL    HW180614   2.581   5.123   7.424 -1.2504 -0.0498 -0.2958
58003SOL    HW280615   2.621   5.004   7.509 -0.0429  1.0566  0.7282
58004SOL     OW80616  10.182  10.537   4.074  0.2514  0.4450  0.0868
58004SOL    HW180617  10.199  10.631   4.072 -1.7415  0.8470 -0.5542
58004SOL    HW280618  10.261  10.499   4.113  1.6341  2.2343 -0.8161
58005SOL     OW80619   9.003   3.075   5.955  0.2262 -0.2823  0.0213
58005SOL    HW180620   8.996   3.036   6.042  1.2159  0.4754  0.4565
58005SOL    HW280621   9.016   3.001   5.896 -3.5416 -1.1759  0.0216
58006SOL     OW80622  12.268   2.563   4.961 -0.3407 -0.2055  0.2917
58006SOL    HW180623  12.230   2.646   4.990 -0.4101  0.4703 -1.5992
58006SOL    HW280624  12.351   2.557   5.009 -1.2771 -0.1222  2.0319
58007SOL     OW80625   8.073   1.565   1.167 -0.1430  0.0647  0.0970
58007SOL    HW180626   8.026   1.493   1.207 -0.6490  0.0800 -0.4609
58007SOL    HW280627   8.058   1.640   1.225  0.0711 -0.1835  0.4733
58008SOL     OW80628   8.548  10.294   4.648  0.1096 -0.0436 -0.0395
58008SOL    HW180629   8.476  10.251   4.694  0.1554  0.1613  0.2278
58008SOL    HW280630   8.523  10.386   4.646  0.1610 -0.0350 -0.3297
58009SOL     OW80631   8.923  12.771  12.454 -0.6935  0.4299 -0.0091
58009SOL    HW180632   8.922  12.696  12.513 -0.0295 -0.4283 -1.0744
58009SOL    HW280633   8.884  12.842  12.506 -0.3363 -0.3547  1.3769
58010SOL     OW80634   7.932   6.162   3.511  0.2537  0.0352 -0.4511
58010SOL    HW180635   7.951   6.155   3.604  0.5737 -0.0866 -0.5258
58010SOL    HW280636   7.841   6.192   3.508 -0.5153 -2.0658 -0.1172
58011SOL     OW80637   2.407   4.736   0.513  0.2646  0.3501 -0.7725
58011SOL    HW180638   2.465   4.788   0.570 -2.7321  0.6518  2.3188
58011SOL    HW280639   2.337   4.797   0.489 -0.1934 -0.6997 -2.2185
58012SOL     OW80640   5.782   6.059   3.983 -0.3147 -0.7077 -0.1486
58012SOL    HW180641   5.713   6.042   3.919  0.3757  0.5958 -1.2935
58012SOL    HW280642   5.863   6.032   3.938  0.1271 -0.2750  0.3679
58013SOL     OW80643   5.210  12.018   4.292 -0.2995 -0.0747 -0.0176
58013SOL    HW180644   5.159  12.035   4.212  0.8733 -0.2272 -0.8295
58013SOL    HW280645   5.187  11.929   4.316  0.4585 -0.5820 -1.0770
58014SOL     OW80646   8.185   1.860   2.723  0.1446 -0.2034 -0.2033
58014SOL    HW180647   8.200   1.930   2.660  1.1520  0.0114  0.2573
58014SOL    HW280648   8.140   1.792   2.673  1.7477 -0.4345 -1.4140
58015SOL     OW80649   4.032   2.842   5.720 -0.0917 -0.2118 -1.2386
58015SOL    HW180650   3.996   2.822   5.807 -1.1085  0.0396 -1.5860
58015SOL    HW280651   4.105   2.780   5.710  2.1215  1.8051  1.0525
58016SOL     OW80652   5.409   3.768   4.052  0.1582  0.5231 -0.5994
58016SOL    HW180653   5.476   3.751   4.118 -1.7205 -0.1558  1.2412
58016SOL    HW280654   5.428   3.856   4.021  1.6331  0.5149  0.1941
58017SOL     OW80655   3.310   5.807   9.999 -0.3873  0.5276  0.3255
58017SOL    HW180656   3.215   5.798  10.004 -0.2312 -0.8389  1.3017
58017SOL    HW280657   3.336   5.749   9.927 -0.2974  1.0176 -0.0418
58018SOL     OW80658   4.893   5.011  12.262  0.2815 -0.0270  0.4649
58018SOL    HW180659   4.895   5.025  12.356  0.7957 -1.2693  0.6609
58018SOL    HW280660   4.922   4.920  12.250  0.1849  0.0897 -0.8828
58019SOL     OW80661   7.679   8.767  12.423  0.2047 -0.1254  0.1775
58019SOL    HW180662   7.666   8.703  12.493 -1.2963  0.4495  0.4538
58019SOL    HW280663   7.636   8.729  12.347  0.2668  0.0701  0.0429
58020SOL     OW80664  11.384   7.877   8.484 -0.0284 -0.1403  0.3148
58020SOL    HW180665  11.418   7.873   8.574  0.0850  0.1444  0.2857
58020SOL    HW280666  11.413   7.796   8.443  0.0305 -0.2116  0.4975
58021SOL     OW80667   1.784   3.674   0.657  0.3884  0.0439  0.2886
58021SOL    HW180668   1.698   3.657   0.695  0.9308 -1.9094  0.7920
58021SOL    HW280669   1.842   3.685   0.733  0.6114  1.2866 -0.0441
58022SOL     OW80670   7.386   8.287   2.249 -0.1690  0.1135  0.5550
58022SOL    HW180671   7.353   8.377   2.252  0.9573  0.5348  0.6898
58022SOL    HW280672   7.458   8.290   2.186 -1.7550 -1.2800 -1.4510
58023SOL     OW80673  11.713   7.060   1.396  0.7412  0.6381  0.0392
58023SOL    HW180674  11.755   7.080   1.480 -1.3700  1.1905  1.0188
58023SOL    HW280675  11.675   7.143   1.367 -0.3727  0.0059 -0.3817
58024SOL     OW80676   4.219   7.308   8.655 -0.4412  0.1054  0.1660
58024SOL    HW180677   4.279   7.240   8.625 -0.4518  0.0881  0.1836
58024SOL    HW280678   4.267   7.355   8.723 -0.0247  0.8340 -0.6177
58025SOL     OW80679   1.141   4.021   2.184  0.0725  0.1651  0.1679
58025SOL    HW180680   1.236   4.011   2.187 -0.0520 -0.9437  0.7484
58025SOL    HW280681   1.121   4.041   2.092  0.5201 -3.4980 -0.8558
58026SOL     OW80682  12.765   6.898  12.504 -0.1448 -0.5070 -0.7470
58026SOL    HW180683  12.749   6.930  12.415  1.2497 -1.3234 -1.3186
58026SOL    HW280684  12.690   6.841  12.523 -0.2138 -0.7089 -1.5803
58027SOL     OW80685   7.968  12.643  11.247  0.5325 -0.1304 -1.4450
58027SOL    HW180686   7.978  12.589  11.168  1.0011 -1.3861 -0.5559
58027SOL    HW280687   7.899  12.599  11.297  1.1029 -0.0525 -0.5825
58028SOL     OW80688   6.868  10.412  11.183 -0.1575  0.1592  0.8811
58028SOL    HW180689   6.815  10.337  11.211 -1.6791  1.2572  1.0665
58028SOL    HW280690   6.872  10.469  11.260  0.9407  0.3099  0.7303
58029SOL     OW80691   5.553   0.747  12.281 -0.4819  0.4619 -0.1761
58029SOL    HW180692   5.528   0.707  12.364  3.2376 -0.3040  0.7731
58029SOL    HW280693   5.504   0.697  12.215  0.6473 -2.8809  1.2668
58030SOL     OW80694  12.701  10.516  12.263 -0.3533 -0.4536 -0.0450
58030SOL    HW180695  12.672  10.589  12.318  0.7896 -0.4276  0.5614
58030SOL    HW280696  12.793  10.504  12.287  0.0728 -0.6878 -1.6960
58031SOL     OW80697   1.890  11.290   1.282  0.2793 -0.7130  0.0802
58031SOL    HW180698   1.946  11.283   1.205 -1.6431  2.1184 -1.7286
58031SOL    HW280699   1.849  11.204   1.290  1.6078 -1.5022 -1.1299
58032SOL     OW80700   5.456  10.956   9.585  0.5256 -0.2136  0.0324
58032SOL    HW180701   5.437  10.866   9.558 -0.3881 -0.4183  1.2770
58032SOL    HW280702   5.481  10.949   9.677  0.5293  0.8018  0.1182
58033SOL     OW80703   2.296   1.554   0.041 -0.0778  0.0849  0.2669
58033SOL    HW180704   2.216   1.547   0.094  0.0546 -0.1444  0.4402
58033SOL    HW280705   2.357   1.492   0.082  0.4323  0.7746  0.5616
58034SOL     OW80706   8.491   6.069   8.643  0.6189 -0.6455  0.1489
58034SOL    HW180707   8.413   6.077   8.698  1.0103 -1.4120  0.8430
58034SOL    HW280708   8.488   6.145   8.586 -0.9410 -0.9552 -0.2298
58035SOL     OW80709   0.758   2.240   0.595 -0.0941  0.2017 -0.2538
58035SOL    HW180710   0.844   2.281   0.590 -0.5148  1.1779  0.3772
58035SOL    HW280711   0.775   2.147   0.582  0.9945  0.4485 -0.6515
58036SOL     OW80712   6.536   7.164   1.145 -0.4255  0.3315  0.1771
58036SOL    HW180713   6.618   7.115   1.137 -0.8680 -0.7869  1.9581
58036SOL    HW280714   6.561   7.255   1.126  0.6115 -0.3585 -2.2421
58037SOL     OW80715   6.690   5.102  10.283 -1.1081 -0.3289  0.7152
58037SOL    HW180716   6.741   5.041  10.337  1.6751 -0.2352 -1.5604
58037SOL    HW280717   6.687   5.182  10.335 -0.0857 -0.7731  1.4992
58038SOL     OW80718   4.036   7.038  10.447  0.2568 -0.1612 -0.4851
58038SOL    HW180719   3.976   7.022  10.375 -1.3944 -0.5243  0.8914
58038SOL    HW280720   4.031   6.958  10.501  0.8798  0.3726  0.3994
58039SOL     OW80721   4.185  10.844  11.477  0.1265  0.0662  0.6622
58039SOL    HW180722   4.220  10.923  11.518  0.9808  1.2687 -2.1165
58039SOL    HW280723   4.249  10.776  11.499 -0.3524  0.1894  2.6663
58040SOL     OW80724   4.786  11.281  12.702  0.5476  0.4903 -0.3622
58040SOL    HW180725   4.758  11.348  12.764 -1.1503  0.6485 -1.2330
58040SOL    HW280726   4.725  11.289  12.628  1.6556 -0.5765 -1.4613
58041SOL     OW80727  11.629  11.201  12.265 -0.7858  0.1678 -0.3333
58041SOL    HW180728  11.613  11.167  12.354 -1.0551  1.4028  0.1197
58041SOL    HW280729  11.661  11.126  12.216  0.9668 -0.2005  1.2384
58042SOL     OW80730   8.445   8.547  12.167 -0.6207  0.7336 -0.7175
58042SOL    HW180731   8.511   8.521  12.233 -0.5570 -2.7338 -1.9746
58042SOL    HW280732   8.366   8.563  12.218 -0.1029 -0.0901  0.3985
58043SOL     OW80733   0.357   1.942   2.918  0.5034  0.3671  0.7021
58043SOL    HW180734   0.344   1.868   2.859 -0.4158  1.1938 -0.1747
58043SOL    HW280735   0.278   1.943   2.973  0.6260  0.5456  0.8747
58044SOL     OW80736  11.925  10.800  10.635 -0.4050  0.1129  0.3314
58044SOL    HW180737  11.991  10.852  10.590 -0.0268 -0.4882  0.1692
58044SOL    HW280738  11.873  10.863  10.684 -0.4112  0.7120 -0.4289
58045SOL     OW80739   1.157   9.991   5.880  0.0637 -0.7724  0.1557
58045SOL    HW180740   1.240   9.992   5.834  0.7795  0.2642  1.3774
58045SOL    HW280741   1.111  10.070   5.849 -0.4288 -1.2822 -0.4330
58046SOL     OW80742   1.141   5.876   9.151 -0.3490 -0.1615 -0.1968
58046SOL    HW180743   1.182   5.790   9.147 -1.5299 -0.7788  0.3040
58046SOL    HW280744   1.187   5.921   9.222  1.1792  0.1486 -1.3363
58047SOL     OW80745  12.090   9.295   6.811 -0.1418 -0.0583 -0.2320
58047SOL    HW180746  12.036   9.217   6.823  0.3526 -0.2376  0.9446
58047SOL    HW280747  12.028   9.364   6.786 -0.6732 -0.6548 -0.5936
58048SOL     OW80748   6.559   4.596   1.553  0.0406 -0.6305 -0.4406
58048SOL    HW180749   6.476   4.597   1.505  0.8831  1.9329 -2.0989
58048SOL    HW280750   6.609   4.525   1.513  0.0628  0.3393 -2.2522
58049SOL     OW80751   1.386   1.583   2.338 -0.4196  0.0300 -0.2250
58049SOL    HW180752   1.350   1.504   2.379  1.0627 -0.9889 -0.7667
58049SOL    HW280753   1.424   1.551   2.256  2.5555  0.7863  0.7423
58050SOL     OW80754   4.330   3.447   1.656 -0.0705 -0.5798 -0.0820
58050SOL    HW180755   4.337   3.471   1.748  0.2906  1.9936 -0.7020
58050SOL    HW280756   4.401   3.495   1.613 -0.1827 -1.7853 -1.7030
58051SOL     OW80757  12.769   0.169   6.053 -0.3305  0.6564  0.3857
58051SOL    HW180758  12.749   0.156   5.960 -0.7401 -1.1421  0.6851
58051SOL    HW280759  12.853   0.216   6.052  1.4642 -2.2440 -0.9929
58052SOL     OW80760   2.213   3.006   7.682  0.4562 -0.2618 -0.1861
58052SOL    HW180761   2.282   2.956   7.640  0.4752  1.2812 -2.1484
58052SOL    HW280762   2.257   3.054   7.752  0.7191 -1.7028  0.6803
58053SOL     OW80763   5.579   5.326   8.645  0.3904  0.1422  0.2166
58053SOL    HW180764   5.613   5.409   8.609  2.9481 -0.0966  1.7953
58053SOL    HW280765   5.652   5.265   8.635 -0.2594 -1.0069  2.1043
58054SOL     OW80766   2.904  11.312  10.304 -0.6185 -0.2375 -0.3766
58054SOL    HW180767   2.890  11.383  10.366 -1.0409 -0.1541 -0.5649
58054SOL    HW280768   2.943  11.242  10.356  2.2276  1.0071 -0.6518
58055SOL     OW80769   1.202  11.304   9.178 -0.3632  0.4801  0.7965
58055SOL    HW180770   1.255  11.224   9.186 -1.4048 -0.1774  1.2292
58055SOL    HW280771   1.267  11.374   9.163  0.4837 -0.7458 -2.1521
58056SOL     OW80772   1.216   2.893  11.342 -0.2225  0.1660  0.7421
58056SOL    HW180773   1.149   2.845  11.390 -1.1547 -1.1817 -1.7130
58056SOL    HW280774   1.296   2.843  11.356 -1.0574 -1.9599 -1.2730
58057SOL     OW80775   7.594  10.196   2.619 -0.0331 -0.0392  0.2451
58057SOL    HW180776   7.600  10.242   2.703 -1.3142 -1.8925  1.4249
58057SOL    HW280777   7.567  10.107   2.642 -1.0247 -0.4433 -2.1783
58058SOL     OW80778   6.805   9.802   6.687 -0.0535 -0.0062  0.3198
58058SOL    HW180779   6.890   9.785   6.646  0.6943  0.9612  1.3935
58058SOL    HW280780   6.758   9.856   6.624 -0.2255 -1.2275 -0.6421
58059SOL     OW80781   6.265   2.228   8.819  0.4950 -0.0000  0.2774
58059SOL    HW180782   6.355   2.254   8.838  0.4906 -0.3924  0.8693
58059SOL    HW280783   6.249   2.261   8.731  1.4571 -0.5444 -0.1222
58060SOL     OW80784  11.807   5.549   1.499 -0.2215 -0.0916 -0.1879
58060SOL    HW180785  11.843   5.563   1.587  0.9058  1.4011 -0.8555
58060SOL    HW280786  11.875   5.580   1.440 -2.0525  1.6202 -1.5422
58061SOL     OW80787   0.942   2.280   3.218 -0.6871  0.1026  0.3192
58061SOL    HW180788   0.975   2.196   3.251  0.7308  0.3965 -0.2674
58061SOL    HW280789   0.967   2.344   3.284 -0.5733  0.2512  0.1330
58062SOL     OW80790   0.722  12.690   6.436  0.3856  0.1825 -0.3291
58062SOL    HW180791   0.756  12.601   6.428  0.2589 -0.0834  1.5684
58062SOL    HW280792   0.748  12.733   6.355  1.3874 -1.2830 -0.8268
58063SOL     OW80793   3.250   3.461   1.196  0.0676 -0.5752  0.3535
58063SOL    HW180794   3.334   3.415   1.204  0.8481  0.7063 -0.1178
58063SOL    HW280795   3.203   3.439   1.277  1.1337 -0.7748  0.9421
58064SOL     OW80796   6.513   2.008   9.599  0.3373  0.0557 -0.4906
58064SOL    HW180797   6.606   2.029   9.605  0.9137 -2.1268 -0.7510
58064SOL    HW280798   6.475   2.044   9.679  1.9148 -1.1435  0.8847
58065SOL     OW80799   6.802   1.766   6.257 -0.0677  0.5775  0.4826
58065SOL    HW180800   6.707   1.778   6.256  0.2796  4.8061  1.8125
58065SOL    HW280801   6.829   1.777   6.166 -0.6919  0.9408  0.3389
58066SOL     OW80802  11.979  10.288   9.096  0.6564 -0.2999  0.2362
58066SOL    HW180803  11.954  10.293   9.004 -2.2929  0.6013  0.9971
58066SOL    HW280804  11.988  10.195   9.114 -1.8544 -0.6972 -0.2618
58067SOL     OW80805   3.019   0.855   5.621  0.1183  0.2532 -0.6158
58067SOL    HW180806   3.059   0.885   5.540 -0.7458  0.5575 -0.9493
58067SOL    HW280807   2.951   0.920   5.639 -1.0228 -0.8717 -0.7180
58068SOL     OW80808   8.175   2.020  10.983  0.3946  0.2675  0.0871
58068SOL    HW180809   8.224   1.947  10.945 -0.1069 -0.2618  0.4465
58068SOL    HW280810   8.149   2.073  10.908 -0.7597 -0.8715 -0.3563
58069SOL     OW80811  11.025   1.124   3.734  0.2971 -0.3355  1.0014
58069SOL    HW180812  11.010   1.033   3.758 -1.8017 -0.3485 -0.1016
58069SOL    HW280813  10.988   1.132   3.646 -0.5808  1.8038  1.4866
58070SOL     OW80814   0.157   9.505   5.542  0.2089  0.0596 -0.4882
58070SOL    HW180815   0.212   9.507   5.464  0.8846 -0.1301 -0.0220
58070SOL    HW280816   0.138   9.412   5.555  1.1798 -0.0390  0.3150
58071SOL     OW80817   2.443  12.143   1.261 -0.5377 -0.4145 -0.4711
58071SOL    HW180818   2.455  12.238   1.255 -0.3612 -0.4229 -0.2120
58071SOL    HW280819   2.529  12.106   1.241 -0.7064 -0.5360 -1.0066
58072SOL     OW80820  10.048  10.392  11.209 -0.0807 -0.3075 -0.0754
58072SOL    HW180821  10.004  10.373  11.127 -0.7174  1.6616 -0.2360
58072SOL    HW280822  10.069  10.306  11.246 -0.8358 -1.2305 -1.7123
58073SOL     OW80823  11.180   1.790  11.891  0.2670 -0.1107  0.0021
58073SOL    HW180824  11.273   1.773  11.906  0.3919 -0.1721 -0.7808
58073SOL    HW280825  11.179   1.851  11.817 -0.2864  0.6473  0.6219
58074SOL     OW80826   1.360   5.467   3.980 -0.1457 -0.0052  0.1315
58074SOL    HW180827   1.272   5.466   4.017 -0.1035  1.2115  0.3085
58074SOL    HW280828   1.399   5.384   4.008 -1.0691 -0.3445  0.4478
58075SOL     OW80829   5.145   2.830  10.913 -0.4907  0.0411 -0.2895
58075SOL    HW180830   5.239   2.843  10.899 -0.5532 -0.3394 -1.1357
58075SOL    HW280831   5.103   2.906  10.874 -0.5519  0.1196 -0.0768
58076SOL     OW80832   3.750   5.106   7.233  0.1645 -0.1830  0.0539
58076SOL    HW180833   3.736   5.087   7.140  0.0332 -0.4070  0.1196
58076SOL    HW280834   3.696   5.183   7.250 -1.1313 -1.1243  0.3404
58077SOL     OW80835   2.319   0.359   2.344 -0.5024  0.0459  0.1575
58077SOL    HW180836   2.278   0.441   2.372 -2.1342 -0.7033  0.0483
58077SOL    HW280837   2.312   0.361   2.249 -0.8804 -0.3852  0.1758
58078SOL     OW80838   2.836   5.184   1.200  0.6098 -0.0121 -0.0156
58078SOL    HW180839   2.853   5.095   1.168  1.0048 -0.1704  0.6238
58078SOL    HW280840   2.763   5.214   1.146  0.6659 -0.6127 -0.4446
58079SOL     OW80841   1.693   9.653   3.744  0.3862  0.4057 -0.4575
58079SOL    HW180842   1.721   9.694   3.826 -0.2292 -1.0711  0.5414
58079SOL    HW280843   1.602   9.680   3.733 -1.0420 -2.8116  1.7887
58080SOL     OW80844  12.090   0.445   2.533 -0.8847 -0.2398 -0.4140
58080SOL    HW180845  12.125   0.503   2.601  1.7017 -1.8228 -0.2585
58080SOL    HW280846  12.115   0.487   2.451  1.5990 -1.3246 -0.3047
58081SOL     OW80847   0.042   0.475  11.020 -0.2465  0.2766 -0.6570
58081SOL    HW180848   0.071   0.561  10.989  1.5000  0.6018  1.5843
58081SOL    HW280849  -0.035   0.455  10.967  0.7313  2.0945 -2.9333
58082SOL     OW80850   3.513  11.931  10.269 -0.3131  0.1818  0.3739
58082SOL    HW180851   3.563  12.001  10.311  0.4772 -0.8291  1.1736
58082SOL    HW280852   3.427  11.934  10.312 -1.1068  2.1109 -1.2123
58083SOL     OW80853   7.702   4.523   1.050  0.2716 -0.2525  0.4915
58083SOL    HW180854   7.687   4.544   0.958 -0.8057 -0.6640  0.5687
58083SOL    HW280855   7.773   4.583   1.076  0.4970 -0.0420 -0.5594
58084SOL     OW80856  11.859   0.773   7.130 -0.6946  0.0059  0.0397
58084SOL    HW180857  11.918   0.842   7.160 -1.1056  0.5593 -0.3988
58084SOL    HW280858  11.785   0.777   7.190 -2.4166  2.3818 -2.0472
58085SOL     OW80859   6.909  11.693   1.003  0.2972 -0.5010 -0.9230
58085SOL    HW180860   6.906  11.765   0.940  0.0014  0.0814 -0.2547
58085SOL    HW280861   6.899  11.735   1.089  0.9954 -1.2537 -0.4591
58086SOL     OW80862   8.442   0.674   9.796  0.2765  0.0938 -0.3888
58086SOL    HW180863   8.465   0.667   9.703  0.4217 -0.3733 -0.3215
58086SOL    HW280864   8.416   0.765   9.807  0.1843  0.1375 -0.9061
58087SOL     OW80865   2.853   6.178   6.848 -0.3907  0.0634 -0.1292
58087SOL    HW180866   2.835   6.178   6.942 -0.7079 -1.1331 -0.1826
58087SOL    HW280867   2.863   6.271   6.826 -0.7141  0.3820  1.0064
58088SOL     OW80868   8.154   4.748  11.305 -0.1134 -0.1759 -0.8800
58088SOL    HW180869   8.234   4.779  11.348  1.5823 -1.1536 -3.0937
58088SOL    HW280870   8.150   4.655  11.327 -0.8814 -0.0452 -0.4524
58089SOL     OW80871   8.552  10.514   8.315  0.1570  0.3446  0.2041
58089SOL    HW180872   8.536  10.421   8.332 -3.1404  0.2182 -2.5674
58089SOL    HW280873   8.643  10.518   8.287  0.6716 -1.8435  1.2817
58090SOL     OW80874   9.046   7.452   8.478  0.1861 -0.4317 -0.2581
58090SOL    HW180875   9.065   7.376   8.533 -1.0768 -0.8902 -0.4304
58090SOL    HW280876   9.056   7.527   8.537  1.6166 -0.6868 -0.1317
58091SOL     OW80877   2.211  10.073   6.929  0.0944  0.0967  0.6208
58091SOL    HW180878   2.148  10.039   6.992  1.8418 -2.4142  1.1350
58091SOL    HW280879   2.282  10.108   6.983  0.1881  0.8523  0.0317
58092SOL     OW80880   8.983  11.535   8.823  0.3121 -0.5422 -0.2642
58092SOL    HW180881   8.960  11.578   8.740 -0.6461 -0.5470 -0.0198
58092SOL    HW280882   8.955  11.598   8.890  2.8422  0.3371  0.0759
58093SOL     OW80883   3.240   6.964   3.579  0.5655  0.0597  0.1784
58093SOL    HW180884   3.249   6.875   3.611  0.4473 -0.0583 -0.1072
58093SOL    HW280885   3.207   7.014   3.653 -0.0567 -0.2832  0.1344
58094SOL     OW80886  10.610   9.044   1.778 -0.3610 -0.2249 -0.0025
58094SOL    HW180887  10.681   8.994   1.819  1.5395  2.9752  0.9956
58094SOL    HW280888  10.530   9.005   1.814  1.0667 -0.7070  3.0136
58095SOL     OW80889   7.455  10.958   9.625  0.1436 -0.1780 -0.3619
58095SOL    HW180890   7.487  10.920   9.707 -1.4689  2.4259  1.6186
58095SOL    HW280891   7.482  11.050   9.629 -1.8442  0.5288 -1.6883
58096SOL     OW80892   0.032   8.235   3.797  0.2770  0.7515 -0.1149
58096SOL    HW180893   0.041   8.256   3.704  2.5118 -0.4708 -0.2294
58096SOL    HW280894   0.082   8.303   3.842  1.0821  0.0826  0.0204
58097SOL     OW80895   8.106   0.931  10.363  0.1756  0.3728  0.1094
58097SOL    HW180896   8.030   0.876  10.381 -1.0146  1.4783 -1.3166
58097SOL    HW280897   8.074   0.998  10.302  2.3024  0.8580 -0.5605
58098SOL     OW80898   6.864   7.927   0.582  0.1645  0.1640 -0.0282
58098SOL    HW180899   6.837   8.014   0.555  0.9757  1.0738  1.8975
58098SOL    HW280900   6.940   7.941   0.638 -1.1084 -1.5425  2.3255
58099SOL     OW80901   5.355  10.843   7.488 -0.3832  0.1705 -0.2025
58099SOL    HW180902   5.409  10.766   7.467 -1.8865 -0.3882 -2.3494
58099SOL    HW280903   5.326  10.827   7.578  0.8043 -0.8606  0.0349
58100SOL     OW80904   8.316   2.057   6.003 -0.3187 -0.6472  0.5411
58100SOL    HW180905   8.272   2.138   5.979 -1.5248 -1.0858  1.2067
58100SOL    HW280906   8.339   2.016   5.919  1.5191  0.9889  0.1840
58101SOL     OW80907   7.392   2.252  10.591  0.4812  0.1543  0.1241
58101SOL    HW180908   7.460   2.283  10.650  0.3114  0.5498  0.1125
58101SOL    HW280909   7.391   2.157  10.604  0.8172  0.1794  0.3540
58102SOL     OW80910   8.951   5.255  11.253 -0.3390 -0.2481  0.2051
58102SOL    HW180911   8.859   5.229  11.261 -0.3407 -0.4887 -0.4632
58102SOL    HW280912   8.957   5.293  11.165  0.2270 -0.3658  0.1914
58103SOL     OW80913   1.052  12.141   6.581 -0.3868 -0.1260  0.1466
58103SOL    HW180914   0.981  12.166   6.521  0.7480  0.9444 -0.8045
58103SOL    HW280915   1.112  12.091   6.526  1.4125  2.1162 -0.0617
58104SOL     OW80916   6.560  12.476   6.168 -0.1152  0.5455  0.1737
58104SOL    HW180917   6.562  12.488   6.074  0.0274  1.2271  0.2631
58104SOL    HW280918   6.475  12.509   6.195 -0.4787 -0.3691  0.1955
58105SOL     OW80919  11.804   5.468  12.561  0.3662 -0.2891 -0.3213
58105SOL    HW180920  11.734   5.514  12.606  0.4974 -1.1189  0.7770
58105SOL    HW280921  11.877   5.530  12.559  0.5193 -0.3886  1.0858
58106SOL     OW80922   4.744  10.669   0.080 -0.2773  0.1428  0.5624
58106SOL    HW180923   4.675  10.633   0.024 -0.8365 -1.3005  2.1170
58106SOL    HW280924   4.785  10.593   0.120  1.7740  1.0107  0.2619
58107SOL     OW80925   2.366   6.477   0.082 -0.8325 -0.2681  0.1664
58107SOL    HW180926   2.312   6.510   0.011 -0.0461  0.3549 -0.1631
58107SOL    HW280927   2.452   6.515   0.066 -0.4132 -0.8641  0.9368
58108SOL     OW80928   2.508   8.329   8.700 -0.5432 -0.4932 -0.0893
58108SOL    HW180929   2.432   8.354   8.752 -0.4158 -2.9265  1.4380
58108SOL    HW280930   2.578   8.387   8.730 -1.0824 -0.2319  0.7055
58109SOL     OW80931   8.149   9.545   1.421 -0.0348 -0.1744  0.3288
58109SOL    HW180932   8.197   9.583   1.347  1.6189 -4.5142 -1.1240
58109SOL    HW280933   8.069   9.509   1.382 -0.0602 -0.8732  1.0103
58110SOL     OW80934  11.629   6.448  11.079  0.6348  0.2202 -0.1723
58110SOL    HW180935  11.596   6.436  11.168  0.0915 -1.3517 -0.5632
58110SOL    HW280936  11.705   6.390  11.074 -0.1526 -0.7599 -1.1439
58111SOL     OW80937  10.819   9.735   1.468  0.5546  0.1576  0.1186
58111SOL    HW180938  10.898   9.726   1.414 -0.0543 -0.5857 -0.6732
58111SOL    HW280939  10.809   9.829   1.480  1.9899  0.2383  0.8783
58112SOL     OW80940   0.224   3.287   3.083 -0.2138  0.7384 -0.6059
58112SOL    HW180941   0.280   3.209   3.082 -1.3227 -0.0781 -0.9936
58112SOL    HW280942   0.280   3.356   3.117  1.1238  0.0218 -1.2870
58113SOL     OW80943  10.224   8.932   5.349  0.5374 -0.3324  0.0941
58113SOL    HW180944  10.226   8.842   5.316  0.6200 -0.0344 -0.7325
58113SOL    HW280945  10.314   8.962   5.342  0.1367  0.5554 -1.7498
58114SOL     OW80946   6.608  11.423   3.855 -0.1446 -0.3882 -0.1544
58114SOL    HW180947   6.598  11.349   3.795  1.7158 -0.3174 -0.6118
58114SOL    HW280948   6.696  11.458   3.837  0.0012  0.4031  1.7514
58115SOL     OW80949   6.223   3.061   5.214  0.2642 -0.6096 -0.2793
58115SOL    HW180950   6.155   3.018   5.266  0.4897 -0.0220  0.5161
58115SOL    HW280951   6.261   3.127   5.272  0.5966 -0.0014 -1.1566
58116SOL     OW80952   0.101  12.619   8.082 -0.6816  0.2292 -0.5131
58116SOL    HW180953   0.028  12.557   8.086  0.9200 -1.6831  0.4658
58116SOL    HW280954   0.161  12.581   8.018  0.8208  0.1656  0.8852
58117SOL     OW80955   9.997   5.021   1.305  0.4948  0.2082 -0.1620
58117SOL    HW180956   9.931   5.055   1.245  2.1326  2.3905 -0.8301
58117SOL    HW280957  10.062   4.979   1.250  1.1482  0.7118  0.2025
58118SOL     OW80958   9.484   2.057   9.958 -0.1039 -0.3022  0.1098
58118SOL    HW180959   9.542   1.986   9.988 -0.3485 -0.8009 -0.5875
58118SOL    HW280960   9.397   2.032   9.988 -0.2219 -0.3941 -0.3042
58119SOL     OW80961  11.451   8.599   0.897 -0.5387  0.0962 -0.6573
58119SOL    HW180962  11.419   8.606   0.987 -1.0762 -0.3647 -0.8064
58119SOL    HW280963  11.531   8.651   0.896  0.3311 -1.1559  0.4739
58120SOL     OW80964   3.683  12.409   0.509 -0.6439  0.8728  0.4020
58120SOL    HW180965   3.694  12.399   0.414 -0.0199 -1.4720  0.6547
58120SOL    HW280966   3.772  12.420   0.543 -0.6793 -0.0583  0.8399
58121SOL     OW80967   9.494   9.280   5.412  0.3495  0.5048 -0.0832
58121SOL    HW180968   9.412   9.330   5.416 -0.1751 -0.2419 -1.3125
58121SOL    HW280969   9.560   9.341   5.446 -0.5600  1.4200  0.0915
58122SOL     OW80970  11.022   8.587  10.290 -0.7214 -0.4864 -0.4679
58122SOL    HW180971  11.030   8.551  10.378 -1.3414 -0.0914 -0.2402
58122SOL    HW280972  11.112   8.599  10.260 -0.4576  1.1565  0.8522
58123SOL     OW80973  11.722   7.944   1.831  0.2146 -0.1151 -0.2323
58123SOL    HW180974  11.694   8.019   1.882 -0.9152 -0.5891 -0.1363
58123SOL    HW280975  11.643   7.914   1.786  0.5309 -1.5372  0.1144
58124SOL     OW80976   4.072  12.590  11.157 -0.0183 -0.2649 -0.5736
58124SOL    HW180977   3.979  12.606  11.145  0.2962  0.7694 -2.0022
58124SOL    HW280978   4.105  12.668  11.202 -0.0495 -1.2597  1.2755
58125SOL     OW80979   0.237   2.788   0.109 -0.8422 -0.1893 -0.0178
58125SOL    HW180980   0.242   2.753   0.198  0.7320 -1.9788 -0.7342
58125SOL    HW280981   0.211   2.879   0.120 -1.3573 -0.5577  2.2200
58126SOL     OW80982   8.581   4.559   8.840  0.3543  0.6783 -0.2139
58126SOL    HW180983   8.503   4.518   8.803 -0.0570  0.5612  0.7624
58126SOL    HW280984   8.574   4.543   8.934  1.9817 -0.0885 -0.1876
58127SOL     OW80985  11.418   9.130   0.274  0.4703  0.1475  0.1970
58127SOL    HW180986  11.413   9.225   0.259  2.7098  0.0970 -1.4414
58127SOL    HW280987  11.393   9.092   0.190  1.6385 -0.6040  0.1620
58128SOL     OW80988  10.506   7.553   5.100  0.1972  0.1655  0.5447
58128SOL    HW180989  10.463   7.468   5.095  0.9490 -0.2319  0.6557
58128SOL    HW280990  10.468   7.604   5.029 -0.2127 -0.2804  0.4390
58129SOL     OW80991  12.035   5.340  12.522 -0.1728  0.0153  0.2496
58129SOL    HW180992  11.952   5.387  12.513 -0.0370  0.1258 -0.4501
58129SOL    HW280993  12.061   5.356  12.613 -0.3064  1.0042  0.1258
58130SOL     OW80994   4.262   4.215  10.039 -0.4021 -0.2602  0.1919
58130SOL    HW180995   4.197   4.193   9.972 -0.3822  0.6329 -0.1393
58130SOL    HW280996   4.311   4.289  10.001 -0.0409 -0.0911  0.9701
58131SOL     OW80997   5.675   6.899   0.158  0.0424  0.1491  0.2746
58131SOL    HW180998   5.707   6.848   0.233  0.0476 -1.1758 -0.5892
58131SOL    HW280999   5.627   6.835   0.105 -1.3126  1.4147 -0.0670
58132SOL     OW81000   4.644   9.843   5.711 -0.0911 -0.4123  0.4625
58132SOL    HW181001   4.737   9.840   5.736 -0.1917 -1.6517  0.7873
58132SOL    HW281002   4.634   9.926   5.665  1.8118 -1.3800 -1.9538
58133SOL     OW81003   2.911   0.167   8.855  0.5026 -0.0960  0.0706
58133SOL    HW181004   2.927   0.200   8.767  0.4261  1.1358  0.5037
58133SOL    HW281005   2.983   0.200   8.908  0.1312 -0.1639  0.6362
58134SOL     OW81006   4.345   1.450   6.935 -0.2344  0.0068 -0.6798
58134SOL    HW181007   4.257   1.440   6.900 -0.7833  0.2432  0.5734
58134SOL    HW281008   4.339   1.524   6.995  0.4933 -0.7644  0.3880
58135SOL     OW81009   9.229  10.490   2.249  0.6186  0.6645 -0.3609
58135SOL    HW181010   9.214  10.525   2.337  1.0277  0.7730 -0.3324
58135SOL    HW281011   9.174  10.543   2.192 -0.7470 -0.3073 -0.0138
58136SOL     OW81012   4.042   3.907   3.856 -0.1797 -0.3117  0.9084
58136SOL    HW181013   4.135   3.921   3.840  0.1655  1.4540  3.8391
58136SOL    HW281014   4.039   3.853   3.935 -1.6081  0.7207  1.6016
58137SOL     OW81015   9.282   2.068   4.128 -0.2981 -0.2547  0.3168
58137SOL    HW181016   9.195   2.101   4.149 -0.6082  0.2265 -1.5172
58137SOL    HW281017   9.273   2.032   4.039  1.2661 -0.6105  0.2652
58138SOL     OW81018  10.641   7.324   8.186 -0.0042 -0.1018  0.0650
58138SOL    HW181019  10.577   7.291   8.122  1.7598  0.5308 -2.1778
58138SOL    HW281020  10.594   7.393   8.233 -1.3951 -0.6024 -0.5389
58139SOL     OW81021   3.749   2.090   1.188 -0.1718  0.1801  0.4812
58139SOL    HW181022   3.802   2.121   1.262 -3.8233  4.0576  1.9081
58139SOL    HW281023   3.681   2.036   1.229 -0.4343 -0.2619 -0.5159
58140SOL     OW81024   8.815   3.857  12.116  0.0312  0.4060 -0.5119
58140SOL    HW181025   8.842   3.920  12.183  1.4130 -1.2395  0.5828
58140SOL    HW281026   8.733   3.892  12.081 -0.7015  1.3908  1.9847
58141SOL     OW81027  11.901   7.171  10.724  0.0289 -0.3138 -0.2643
58141SOL    HW181028  11.844   7.102  10.690  0.4624  0.7921 -3.5910
58141SOL    HW281029  11.857   7.253  10.700  1.3989  0.5569  0.0794
58142SOL     OW81030   2.230  10.024   8.930 -0.1940  0.0884 -0.1162
58142SOL    HW181031   2.303  10.019   8.869  1.2776  1.9720  1.3793
58142SOL    HW281032   2.154  10.043   8.875  1.4433  4.1102 -1.3435
58143SOL     OW81033   7.093  10.717   4.135  0.6622  0.0531  0.3859
58143SOL    HW181034   7.155  10.759   4.074  1.1074 -1.0076  0.0895
58143SOL    HW281035   7.147  10.659   4.188 -0.0363 -0.6645  0.3274
58144SOL     OW81036  11.957  12.392   9.500  0.2947 -0.2283  0.0369
58144SOL    HW181037  11.905  12.333   9.447  0.0922  1.9253 -2.3441
58144SOL    HW281038  11.898  12.419   9.571 -1.3003  0.7335 -1.5588
58145SOL     OW81039   9.600   2.814  11.303  0.7555 -0.2448 -0.3019
58145SOL    HW181040   9.540   2.743  11.325 -0.0679  0.4792 -0.1554
58145SOL    HW281041   9.649   2.782  11.227  0.4775 -1.0069 -0.1658
58146SOL     OW81042  11.177   2.682   0.705  0.1330  0.2399 -0.1739
58146SOL    HW181043  11.271   2.692   0.690 -0.0355 -0.1895 -1.7191
58146SOL    HW281044  11.165   2.700   0.798  1.5288  1.8022 -0.2548
58147SOL     OW81045  10.322   2.363  11.805 -0.4790  0.3537  0.0029
58147SOL    HW181046  10.283   2.349  11.719 -0.2057  1.2430 -0.2794
58147SOL    HW281047  10.414   2.381  11.787  0.0830 -1.6096  0.6585
58148SOL     OW81048   8.796   0.962   1.751 -0.5266 -0.1585 -0.0087
58148SOL    HW181049   8.804   0.946   1.845  0.6846  0.9270  0.1061
58148SOL    HW281050   8.770   0.878   1.714  0.1229 -0.9019  1.1681
58149SOL     OW81051   3.318   9.954   6.907 -0.4244  0.3865  0.5931
58149SOL    HW181052   3.237   9.919   6.945 -0.0798 -2.6926 -1.1816
58149SOL    HW281053   3.289  10.021   6.846 -1.7010 -0.5846  0.0740
58150SOL     OW81054   8.667   7.310   2.641 -0.4538  0.1164 -0.2154
58150SOL    HW181055   8.719   7.282   2.566  0.1252  0.2314  0.1278
58150SOL    HW281056   8.730   7.312   2.714 -1.0250 -0.1029  0.2940
58151SOL     OW81057   1.058   5.689   1.224  0.5308  0.8568 -0.1083
58151SOL    HW181058   1.007   5.644   1.291  0.7949  1.6141  0.6081
58151SOL    HW281059   1.014   5.667   1.142 -0.2660  0.5650  0.3886
58152SOL     OW81060   1.223   7.605   7.046  0.7024 -0.1972  0.4355
58152SOL    HW181061   1.191   7.668   6.981  2.0293  0.6576  0.5707
58152SOL    HW281062   1.243   7.526   6.995 -2.0367 -0.9895  0.4183
58153SOL     OW81063  12.296   8.557   6.408  0.9401  0.1733 -0.6306
58153SOL    HW181064  12.288   8.516   6.494 -0.4656 -0.1310 -0.8778
58153SOL    HW281065  12.350   8.498   6.357  0.0782 -0.6942 -0.5623
58154SOL     OW81066  12.675   9.993  10.559 -0.0144 -0.2033 -0.6004
58154SOL    HW181067  12.704  10.084  10.572 -1.1105 -0.1947  2.6724
58154SOL    HW281068  12.646   9.990  10.468  0.4260  2.6092 -0.9344
58155SOL     OW81069   9.236  11.789   3.071 -0.2363  0.0702 -0.0048
58155SOL    HW181070   9.159  11.732   3.076 -0.0897 -0.1006  0.3888
58155SOL    HW281071   9.202  11.877   3.087  0.0587 -0.3350  3.6453
58156SOL     OW81072  10.990  12.624  12.611 -0.3959 -0.6368 -0.5094
58156SOL    HW181073  10.990  12.697  12.549  0.0199  0.2596  0.5097
58156SOL    HW281074  11.075  12.582  12.598  1.7220  2.2209  2.3788
58157SOL     OW81075  11.617   0.441   1.492 -0.0613 -0.4526  0.0735
58157SOL    HW181076  11.592   0.516   1.546 -2.1979  1.1066 -2.8043
58157SOL    HW281077  11.583   0.365   1.540 -1.4785  0.8043  1.1617
58158SOL     OW81078   9.412   4.886  11.987 -0.0062  0.3235  0.0200
58158SOL    HW181079   9.498   4.929  11.993 -0.1762  0.5561  0.9063
58158SOL    HW281080   9.430   4.794  12.006  0.2092  0.1523 -0.9333
58159SOL     OW81081   8.672   7.574   4.949  0.4084  0.2720 -0.7405
58159SOL    HW181082   8.690   7.667   4.938 -1.9535  0.6274 -2.3763
58159SOL    HW281083   8.749   7.529   4.916  0.7588  1.6427 -1.8469
58160SOL     OW81084  10.283   4.285   9.412  0.0489 -0.9154 -0.3287
58160SOL    HW181085  10.353   4.349   9.395  1.1001 -1.7140  0.7932
58160SOL    HW281086  10.222   4.296   9.339  0.3719  1.1082 -0.3597
58161SOL     OW81087   0.100   2.575   4.516 -0.3645 -0.2363  0.6696
58161SOL    HW181088   0.157   2.511   4.472 -0.0577  0.1321  0.5261
58161SOL    HW281089   0.118   2.658   4.471 -3.0453 -0.6087 -1.2777
58162SOL     OW81090   3.115  10.831  10.582  0.4069  0.0248 -0.3312
58162SOL    HW181091   3.150  10.798  10.500 -0.0094 -0.5673 -0.2744
58162SOL    HW281092   3.188  10.823  10.644 -0.0156 -1.9431 -0.0128
58163SOL     OW81093  12.689   3.516   2.922  0.0922 -0.0164 -0.1324
58163SOL    HW181094  12.752   3.463   2.873 -1.7637 -1.7286 -0.7950
58163SOL    HW281095  12.604   3.494   2.884 -1.2530 -0.0420  2.6193
58164SOL     OW81096   9.336   0.515   8.048 -1.2644  0.5372 -0.4300
58164SOL    HW181097   9.260   0.553   8.093 -1.1427 -0.1458  0.3933
58164SOL    HW281098   9.411   0.538   8.103 -1.0108  0.3505 -0.6936
58165SOL     OW81099  12.358   1.951   1.113  0.5084  0.1632  0.4362
58165SOL    HW181100  12.357   1.951   1.018 -0.3655 -0.2653  0.4374
58165SOL    HW281101  12.371   1.859   1.137 -0.2650  0.1215  0.7236
58166SOL     OW81102   6.359   7.093   6.066 -0.6831  0.0251 -1.0384
58166SOL    HW181103   6.303   7.071   6.141  1.1017  0.2660  0.4568
58166SOL    HW281104   6.299   7.120   5.998 -2.4188 -0.5384  0.1901
58167SOL     OW81105   5.362   4.629   2.674  0.6563 -0.0238 -0.3611
58167SOL    HW181106   5.378   4.661   2.762  1.0701  0.2059 -0.5172
58167SOL    HW281107   5.419   4.553   2.665  0.1925 -0.3877 -0.2342
58168SOL     OW81108  12.387   0.926   4.808 -0.2181 -0.1754  0.4997
58168SOL    HW181109  12.469   0.940   4.760 -0.2237 -2.2217 -0.2056
58168SOL    HW281110  12.414   0.923   4.900  0.6025 -1.1970  0.2513
58169SOL     OW81111  11.018   9.632   7.918  0.7289  0.2542 -0.2847
58169SOL    HW181112  10.951   9.671   7.863  0.8536 -0.7101 -1.1355
58169SOL    HW281113  11.009   9.678   8.002 -1.3077 -0.1918 -0.2087
58170SOL     OW81114   0.319   5.562   4.264 -0.0521  0.6595 -0.6116
58170SOL    HW181115   0.369   5.548   4.345 -1.9050  0.4831  0.5692
58170SOL    HW281116   0.313   5.475   4.225  0.8957  0.7537 -1.0037
58171SOL     OW81117  12.650   6.805   4.040 -0.6904  0.3660 -0.1600
58171SOL    HW181118  12.732   6.850   4.062 -0.5793  0.7020 -1.2325
58171SOL    HW281119  12.672   6.712   4.042 -0.4916  0.4174  0.3369
58172SOL     OW81120   0.826   9.431   3.500 -0.9868 -0.2747  0.2007
58172SOL    HW181121   0.790   9.518   3.520 -1.7555 -0.7698  1.0986
58172SOL    HW281122   0.749   9.377   3.484 -0.5050 -0.7582 -0.5156
58173SOL     OW81123   5.353   5.077   8.956  0.3998 -0.1722  0.3763
58173SOL    HW181124   5.339   5.046   9.046  1.4969  0.7014  0.8627
58173SOL    HW281125   5.359   5.172   8.964 -3.3441  0.3852 -1.1313
58174SOL     OW81126   3.152   6.092   7.508  0.3763 -0.0644  0.1570
58174SOL    HW181127   3.067   6.133   7.490  0.0320 -0.5584  0.6321
58174SOL    HW281128   3.185   6.139   7.584  0.0534 -0.5541  0.6050
58175SOL     OW81129  12.639   1.861   1.631 -0.2305 -0.2766  0.0421
58175SOL    HW181130  12.591   1.790   1.589 -1.3730 -0.2731  1.2587
58175SOL    HW281131  12.646   1.835   1.722 -0.3386  0.9797  0.4373
58176SOL     OW81132   1.665  10.409   2.458  0.3452  0.2276 -0.1508
58176SOL    HW181133   1.729  10.381   2.393  0.0224  1.2268 -0.9290
58176SOL    HW281134   1.717  10.430   2.535  0.9865  1.0731 -0.7855
58177SOL     OW81135   5.159  10.250   2.512  0.4026 -0.2505 -0.3189
58177SOL    HW181136   5.151  10.156   2.500 -1.4761 -0.4999  2.0330
58177SOL    HW281137   5.087  10.273   2.571  1.9913  2.3331  0.8144
58178SOL     OW81138   9.222   6.153   1.238 -0.2006 -0.1526 -0.1686
58178SOL    HW181139   9.223   6.222   1.172 -0.6545 -1.3299 -1.4647
58178SOL    HW281140   9.314   6.127   1.247  0.1529  1.4738  1.3053
58179SOL     OW81141   8.084   5.868   2.532  0.0664  0.2517 -0.5365
58179SOL    HW181142   8.081   5.839   2.623  0.3464  0.1978 -0.5425
58179SOL    HW281143   8.165   5.829   2.498  0.1703  0.6051 -0.6930
58180SOL     OW81144  11.079   0.007   2.724  0.5556 -0.2254 -0.1305
58180SOL    HW181145  11.030   0.064   2.784 -0.5743 -0.2645 -0.9938
58180SOL    HW281146  11.120  -0.058   2.782  1.0586  0.8613  0.7712
58181SOL     OW81147  12.615   7.284  10.418  0.1725 -0.5217 -0.1323
58181SOL    HW181148  12.575   7.371  10.411 -0.3157 -0.6901  0.4606
58181SOL    HW281149  12.703   7.301  10.450  0.0089 -0.2551  0.1876
58182SOL     OW81150  11.158   8.483   8.551 -0.4634 -0.0994  0.3265
58182SOL    HW181151  11.250   8.456   8.555 -0.6444 -0.9291 -0.8425
58182SOL    HW281152  11.161   8.571   8.512 -0.1587 -0.0200  0.5227
58183SOL     OW81153   3.003   9.463   4.302 -0.2336  0.0097 -0.1742
58183SOL    HW181154   3.019   9.551   4.269 -1.0857 -0.3349 -1.5890
58183SOL    HW281155   3.037   9.464   4.391 -0.3793  1.8151 -0.1117
58184SOL     OW81156   0.885   6.944   4.695  0.4336 -0.1471 -0.0871
58184SOL    HW181157   0.878   6.888   4.772 -0.8295 -0.4943 -0.4373
58184SOL    HW281158   0.919   6.886   4.627 -0.3288 -0.3531 -0.2991
58185SOL     OW81159   5.700   8.665  10.118 -0.2067  0.2425  0.0140
58185SOL    HW181160   5.658   8.746  10.091  2.5060  1.2062 -1.7707
58185SOL    HW281161   5.739   8.686  10.204 -0.1280  0.6081 -0.1093
58186SOL     OW81162   6.810  11.067   9.491  0.9425  0.0646 -0.0400
58186SOL    HW181163   6.757  11.123   9.548 -0.7935 -0.0077 -1.5015
58186SOL    HW281164   6.850  11.004   9.551  0.8794  1.2754  1.3272
58187SOL     OW81165   2.458   1.646   8.309 -0.5408 -0.2499  0.3328
58187SOL    HW181166   2.552   1.634   8.323 -0.4580 -0.1970 -0.1335
58187SOL    HW281167   2.425   1.558   8.295 -0.8117 -0.4154  1.8843
58188SOL     OW81168  10.664  12.198  11.096 -0.5494 -0.8171 -0.7955
58188SOL    HW181169  10.610  12.215  11.173 -0.8441  2.3789 -1.5393
58188SOL    HW281170  10.601  12.190  11.024 -0.2220  1.6372 -1.4594
58189SOL     OW81171   4.258   4.858  11.495 -0.3406 -0.6560 -0.0805
58189SOL    HW181172   4.212   4.775  11.481 -0.6612 -0.4177 -0.4871
58189SOL    HW281173   4.230   4.887  11.582  0.6841 -1.5414  0.5650
58190SOL     OW81174  12.346   8.715  10.967 -0.5641  0.0976 -0.2489
58190SOL    HW181175  12.361   8.753  10.881  0.3124 -1.2402 -0.7261
58190SOL    HW281176  12.378   8.780  11.029 -2.7242  1.8053 -0.7970
58191SOL     OW81177   5.486  11.368  11.024 -0.0786  0.2889 -0.0062
58191SOL    HW181178   5.503  11.316  10.946  0.9007  0.5851 -0.0091
58191SOL    HW281179   5.393  11.357  11.041 -0.0788 -0.6690 -0.5717
58192SOL     OW81180   2.454  11.089  10.689  0.1073  0.0109 -0.3145
58192SOL    HW181181   2.431  11.158  10.752 -1.5019  0.0932 -0.9460
58192SOL    HW281182   2.512  11.131  10.627  0.6048  0.2971  0.3352
58193SOL     OW81183   9.768  11.074  12.011  0.0933 -0.2037  0.2079
58193SOL    HW181184   9.785  11.083  11.917 -0.2163  0.5225  0.2070
58193SOL    HW281185   9.811  11.150  12.050  0.3666 -0.6001  0.6722
58194SOL     OW81186   8.846   4.503  11.372 -0.0273 -0.2756  0.2401
58194SOL    HW181187   8.847   4.440  11.443  2.3626 -0.6583 -0.0406
58194SOL    HW281188   8.812   4.583  11.411 -0.5815 -1.0053  1.2900
58195SOL     OW81189   2.224   3.485   9.133 -0.0431  0.1907  0.7152
58195SOL    HW181190   2.247   3.416   9.195  1.6418  0.7536  0.7699
58195SOL    HW281191   2.136   3.511   9.157  0.6859  0.6218  3.1199
58196SOL     OW81192   7.768   2.134   9.292 -0.8818  0.1522 -0.0764
58196SOL    HW181193   7.747   2.147   9.385 -1.1058  1.3874 -0.2727
58196SOL    HW281194   7.825   2.058   9.290 -1.8021 -0.5997  0.9519
58197SOL     OW81195   3.085   6.983   6.901 -0.5716  0.2149  0.6258
58197SOL    HW181196   3.037   6.918   6.952 -0.3882 -1.6352 -1.4329
58197SOL    HW281197   3.017   7.044   6.871 -1.1371 -0.4692  0.4950
58198SOL     OW81198   5.520   4.559   0.347 -0.3055 -0.3482  0.0670
58198SOL    HW181199   5.476   4.497   0.289  0.2241 -0.3779 -0.3128
58198SOL    HW281200   5.597   4.511   0.378  0.3915  0.2817 -0.6371
58199SOL     OW81201   8.442   7.286   8.885 -0.1833 -0.0025  0.2618
58199SOL    HW181202   8.502   7.224   8.926  1.0566  0.5431 -0.6291
58199SOL    HW281203   8.359   7.239   8.879  0.3233 -1.0255  0.9468
58200SOL     OW81204   4.661   2.980  12.741  0.6119  0.2884  0.3908
58200SOL    HW181205   4.580   2.930  12.752  1.4811 -1.2976 -0.0550
58200SOL    HW281206   4.633   3.064  12.705 -0.8623 -0.0833  0.6200
58201SOL     OW81207   1.090  10.364   2.038 -0.5718  0.5033  0.7074
58201SOL    HW181208   1.128  10.379   1.952 -0.2243  0.8320  0.9149
58201SOL    HW281209   0.999  10.395   2.029 -0.7369 -0.0927  0.2740
58202SOL     OW81210   1.069   6.994   3.533  0.1339  0.1313 -0.4154
58202SOL    HW181211   0.997   7.025   3.477  0.4903  0.7260 -0.5501
58202SOL    HW281212   1.041   6.907   3.561 -1.1137  0.7438  0.3520
58203SOL     OW81213   8.322   5.335   9.105  0.1834 -0.0431  0.4209
58203SOL    HW181214   8.308   5.339   9.011 -1.2217 -0.2681  0.5988
58203SOL    HW281215   8.372   5.414   9.126 -1.9882  1.5615 -0.1265
58204SOL     OW81216   4.679   2.793  11.828  0.3178  0.6055  0.4545
58204SOL    HW181217   4.742   2.853  11.868 -0.8995  1.6608  0.8188
58204SOL    HW281218   4.692   2.805  11.734  2.0305 -0.6684  0.4803
58205SOL     OW81219   3.115   8.158  12.713  0.0277 -0.6455 -0.1297
58205SOL    HW181220   3.109   8.230  12.777 -1.6252  0.1352 -1.0997
58205SOL    HW281221   3.201   8.169  12.673 -0.4614  1.3311 -0.7875
58206SOL     OW81222   9.038   6.435  11.305  0.2944  0.1486 -0.4170
58206SOL    HW181223   8.968   6.485  11.348  0.6187  0.9973 -0.8478
58206SOL    HW281224   9.113   6.445  11.364 -0.2372 -1.7311  0.6378
58207SOL     OW81225   9.544  11.567   7.056 -0.2884  0.4309  0.3024
58207SOL    HW181226   9.583  11.621   6.988 -1.3394  0.5554 -0.2208
58207SOL    HW281227   9.498  11.628   7.113  0.1067  0.2692  0.8032
58208SOL     OW81228   6.016   4.965   1.511  0.0058  0.1549  0.2013
58208SOL    HW181229   6.062   4.906   1.451  0.1352 -0.0473  0.4982
58208SOL    HW281230   6.020   5.051   1.468  0.5786  0.1216  0.1779
58209SOL     OW81231   7.508   7.561  11.970  0.1055  0.2016  0.8315
58209SOL    HW181232   7.510   7.610  11.888  2.3342 -0.2129  0.5644
58209SOL    HW281233   7.431   7.505  11.963 -0.3850  0.9999 -0.4653
58210SOL     OW81234  10.017   8.904   8.486  0.0298  0.7751  0.1500
58210SOL    HW181235  10.080   8.836   8.464  0.3461  0.1291  2.7569
58210SOL    HW281236   9.933   8.868   8.457  0.4303  0.1040 -0.2104
58211SOL     OW81237   3.582   0.109  11.947  0.2103  1.0490  0.7926
58211SOL    HW181238   3.585   0.014  11.939  0.7226  1.0846  0.5766
58211SOL    HW281239   3.522   0.137  11.878  2.3333  1.1139 -1.1304
58212SOL     OW81240   3.348   1.495   4.034  1.0818  0.0747 -0.3062
58212SOL    HW181241   3.353   1.418   4.091 -0.0277 -0.5942 -1.0770
58212SOL    HW281242   3.436   1.504   3.998  1.2336 -0.8216 -0.1770
58213SOL     OW81243   9.984   7.281  10.256 -0.4575 -0.4294  0.7121
58213SOL    HW181244   9.897   7.315  10.234 -0.7648 -1.2445  0.6339
58213SOL    HW281245   9.968   7.192  10.287  0.5190 -1.2944 -1.1194
58214SOL     OW81246   6.849  11.661  12.618 -0.0465 -0.8499  0.5670
58214SOL    HW181247   6.783  11.606  12.576  0.1140 -0.5552 -0.0803
58214SOL    HW281248   6.805  11.696  12.696 -0.3106 -1.4799  0.7053
58215SOL     OW81249   7.309   7.320   8.136 -0.2313  0.0862  0.4667
58215SOL    HW181250   7.380   7.385   8.133 -1.2046  1.1553 -0.3962
58215SOL    HW281251   7.245   7.352   8.072 -1.5123 -0.8203  1.2530
58216SOL     OW81252   3.095   9.662   4.145 -0.3476  0.6241 -0.1914
58216SOL    HW181253   3.172   9.695   4.099  0.2393  3.1766  2.3554
58216SOL    HW281254   3.024   9.672   4.081  0.6861  2.3497 -1.1534
58217SOL     OW81255   2.057   2.213   0.771  0.4451  0.1728  0.2319
58217SOL    HW181256   1.974   2.246   0.806  0.3530  0.6552 -0.4222
58217SOL    HW281257   2.036   2.125   0.740 -0.0628  0.6250 -0.7598
58218SOL     OW81258   3.935  10.301   5.255  0.1002 -0.3913  0.0472
58218SOL    HW181259   3.896  10.369   5.310  0.4934  0.1656 -0.3502
58218SOL    HW281260   3.986  10.350   5.190 -0.2770 -1.0405 -0.7482
58219SOL     OW81261   9.834   6.901   9.794  0.1428  0.0168 -0.6250
58219SOL    HW181262   9.826   6.808   9.817 -0.7511  0.1567 -0.3463
58219SOL    HW281263   9.744   6.931   9.782  0.2203  1.4565  1.7290
58220SOL     OW81264   0.737  12.623   3.394 -0.0432  0.1045 -0.1202
58220SOL    HW181265   0.766  12.535   3.418 -0.8090 -0.0736  0.1889
58220SOL    HW281266   0.647  12.628   3.427  0.0116  1.0225 -0.0900
58221SOL     OW81267   5.068   5.348   8.335 -0.2793  0.1844  0.2541
58221SOL    HW181268   5.100   5.265   8.299  1.7102  0.8307  0.3986
58221SOL    HW281269   5.142   5.383   8.385 -1.7164  1.1384  1.8326
58222SOL     OW81270  12.608  10.308   9.539 -0.2961  0.2367  0.6553
58222SOL    HW181271  12.677  10.356   9.492 -0.1233 -0.7936 -0.1936
58222SOL    HW281272  12.560  10.262   9.470 -1.9849  1.0839  1.2136
58223SOL     OW81273   4.051   8.125   2.029  0.1784 -0.0194  0.4098
58223SOL    HW181274   3.973   8.082   2.064 -0.2332  1.0210  0.8165
58223SOL    HW281275   4.094   8.162   2.106  0.0813  0.9958 -0.0053
58224SOL     OW81276   0.090  12.008  10.512 -0.8076 -0.3678 -0.4081
58224SOL    HW181277   0.030  11.947  10.468 -2.4539 -0.2994  1.5946
58224SOL    HW281278   0.034  12.058  10.571  0.8480  1.6209 -0.4059
58225SOL     OW81279   5.000   8.818   0.710  0.2125  0.5688 -0.1529
58225SOL    HW181280   4.911   8.831   0.677 -0.5783 -1.2307  1.1238
58225SOL    HW281281   5.017   8.895   0.764 -1.0453  0.3882  0.5376
58226SOL     OW81282  10.433   3.686   3.980 -0.4535  0.6341 -0.3592
58226SOL    HW181283  10.478   3.754   3.930  0.5414  0.6030  0.4563
58226SOL    HW281284  10.502   3.644   4.031 -1.4821  0.9947  1.4202
58227SOL     OW81285   2.759   3.096  12.554 -0.2736  0.0478  0.2165
58227SOL    HW181286   2.816   3.061  12.486  0.2459 -0.4882  0.9219
58227SOL    HW281287   2.779   3.045  12.632 -1.5721 -0.0122  0.5365
58228SOL     OW81288   7.020   2.017  11.135 -0.3451 -0.2752 -0.3546
58228SOL    HW181289   7.014   1.991  11.227  2.5016  1.0093  0.3111
58228SOL    HW281290   6.937   2.060  11.116 -1.6229 -1.9624  1.0971
58229SOL     OW81291   7.487   0.381   3.023 -1.0297 -0.0410  0.0082
58229SOL    HW181292   7.554   0.421   2.967 -2.5067 -0.2443 -2.0182
58229SOL    HW281293   7.417   0.447   3.027 -1.7536 -0.7973  0.0089
58230SOL     OW81294   2.777   2.581   2.511 -0.8892  0.1772 -0.1437
58230SOL    HW181295   2.854   2.613   2.558 -0.5363  0.9860 -1.2118
58230SOL    HW281296   2.706   2.584   2.575  0.0704 -1.1902  1.0417
58231SOL     OW81297  10.625   0.340   9.354  0.8143 -0.0530  0.0919
58231SOL    HW181298  10.597   0.251   9.332  0.2656 -0.5305  2.4375
58231SOL    HW281299  10.716   0.345   9.324  0.5764 -1.0739 -0.8616
58232SOL     OW81300  11.622   8.932  10.228 -0.4033 -0.1163 -0.0004
58232SOL    HW181301  11.695   8.948  10.167  1.6132  1.3373  2.5702
58232SOL    HW281302  11.634   8.841  10.254 -0.3493 -0.2884 -0.5978
58233SOL     OW81303   5.818  10.200   1.465 -0.4211  0.0682 -0.4734
58233SOL    HW181304   5.768  10.238   1.536  1.9198  0.1738  1.2262
58233SOL    HW281305   5.810  10.106   1.477  0.2051  0.0851  0.1450
58234SOL     OW81306  12.426   1.769  11.177  0.3735  0.0162  0.5583
58234SOL    HW181307  12.477   1.784  11.256 -1.4046 -0.5858  1.8881
58234SOL    HW281308  12.458   1.834  11.114  0.4694  1.8695  2.4380
58235SOL     OW81309   3.007   6.694   0.206 -0.1337  0.1623  0.2287
58235SOL    HW181310   2.937   6.670   0.266 -0.3910  0.8603  0.2151
58235SOL    HW281311   3.085   6.701   0.261 -0.0540 -0.6579  0.2376
58236SOL     OW81312   5.062  11.580   6.236  0.2706  0.1127 -0.2190
58236SOL    HW181313   5.017  11.646   6.183  1.2945  0.2538 -0.9492
58236SOL    HW281314   5.112  11.530   6.172 -0.4530 -1.3600  0.3290
58237SOL     OW81315   0.925   8.291  10.249 -0.2679  0.2000  0.1241
58237SOL    HW181316   1.001   8.347  10.263  0.7484 -1.2373  0.6776
58237SOL    HW281317   0.948   8.208  10.291 -2.4191 -0.0843  0.8855
58238SOL     OW81318  10.967  10.617  10.835  0.0516  0.1483 -0.0008
58238SOL    HW181319  10.941  10.574  10.753  0.0511  1.8179 -0.9278
58238SOL    HW281320  11.049  10.574  10.860  1.4445  1.2583 -2.3010
58239SOL     OW81321   3.436   8.124   4.342 -0.1038 -0.4027  0.3921
58239SOL    HW181322   3.364   8.176   4.377  0.2269  0.4210 -0.1073
58239SOL    HW281323   3.494   8.188   4.300 -0.4428 -1.3046 -1.5759
58240SOL     OW81324   8.883   4.912   5.873  0.1479 -0.2621  0.8308
58240SOL    HW181325   8.847   4.852   5.808 -0.9388 -0.6716  1.7744
58240SOL    HW281326   8.934   4.856   5.932 -1.0725 -0.3537  1.8567
58241SOL     OW81327   5.032  10.803   2.387 -0.0104  0.1921  0.0997
58241SOL    HW181328   5.043  10.711   2.362 -1.1417 -0.0448  0.4392
58241SOL    HW281329   5.023  10.800   2.483 -0.7571  0.5880  0.0400
58242SOL     OW81330   5.653   7.988   5.240  0.0604 -0.6675 -0.2434
58242SOL    HW181331   5.715   7.995   5.167  0.3177 -0.6595 -0.0277
58242SOL    HW281332   5.568   7.975   5.199 -0.4578  3.0267 -0.7352
58243SOL     OW81333   2.645   9.627   1.520  0.4141  0.0851  0.2766
58243SOL    HW181334   2.629   9.675   1.439 -0.4619  0.6455  0.7623
58243SOL    HW281335   2.642   9.694   1.588  0.8137 -0.4296  0.8071
58244SOL     OW81336   0.429   5.038  10.901  0.1469  0.1493 -0.6875
58244SOL    HW181337   0.372   5.027  10.977 -2.8521 -1.1758 -2.9174
58244SOL    HW281338   0.479   4.956  10.896  0.0230  0.0568 -0.4120
58245SOL     OW81339   4.675   5.202  10.988  0.7501 -0.9021 -0.0173
58245SOL    HW181340   4.599   5.259  10.998  1.5811  0.2458 -0.0247
58245SOL    HW281341   4.748   5.253  11.024  1.5261 -1.9606 -0.0452
58246SOL     OW81342   6.943  10.284   1.218  0.6114  0.1582 -0.1574
58246SOL    HW181343   6.855  10.280   1.257  0.6293 -0.0608 -0.1433
58246SOL    HW281344   6.927  10.275   1.124  0.4625  1.7786 -0.3192
58247SOL     OW81345  11.111   2.406   5.620 -0.1461  0.3876  0.4798
58247SOL    HW181346  11.160   2.436   5.544 -0.5546 -1.1916 -0.4397
58247SOL    HW281347  11.093   2.314   5.603 -3.4618  0.8710  0.7747
58248SOL     OW81348  11.353  11.845   9.695  0.1758  0.3007  0.1705
58248SOL    HW181349  11.418  11.906   9.661  0.4498  0.2463  0.5944
58248SOL    HW281350  11.374  11.761   9.654 -0.7119  0.6577 -1.0646
58249SOL     OW81351   2.360   5.783   6.998  0.0109 -0.1544  0.2485
58249SOL    HW181352   2.371   5.702   6.950 -2.6922 -0.1586 -0.5153
58249SOL    HW281353   2.395   5.851   6.939 -0.7636 -0.4389 -0.5544
58250SOL     OW81354  10.649   7.391   8.858 -0.1945 -0.6519  0.2306
58250SOL    HW181355  10.724   7.331   8.860  0.0470 -0.4290 -1.1090
58250SOL    HW281356  10.576   7.338   8.826 -0.3284 -0.5873  0.4291
58251SOL     OW81357   1.781   7.605   7.635  0.1695 -0.2830  0.8548
58251SOL    HW181358   1.716   7.561   7.580  0.4030 -0.8719  1.0468
58251SOL    HW281359   1.865   7.585   7.595  0.1311  3.4344 -1.5599
58252SOL     OW81360  10.809   5.332   2.970  0.2159 -0.1389 -0.4785
58252SOL    HW181361  10.872   5.349   2.900  0.1018  1.0387 -0.3151
58252SOL    HW281362  10.818   5.406   3.029 -1.2402  0.0012 -0.3907
58253SOL     OW81363   4.589   6.926   9.188  0.2753  0.2147  0.0591
58253SOL    HW181364   4.663   6.865   9.198 -0.5073 -0.6009  1.0811
58253SOL    HW281365   4.592   6.980   9.267 -1.0184 -0.7322  0.7790
58254SOL     OW81366   6.685   2.519   6.875 -0.2762  0.1457  0.0965
58254SOL    HW181367   6.601   2.565   6.867 -0.3243  0.1840  0.7731
58254SOL    HW281368   6.661   2.426   6.870 -0.5373  0.1017  1.5882
58255SOL     OW81369   3.703  11.774   7.128 -0.3018 -0.3163 -0.2573
58255SOL    HW181370   3.624  11.815   7.162  0.2257 -0.0465  0.6986
58255SOL    HW281371   3.767  11.784   7.199  0.5460 -0.6341 -0.9600
58256SOL     OW81372   8.097   3.515  11.139 -0.6104  0.1999 -0.2615
58256SOL    HW181373   8.144   3.569  11.202 -0.8413 -0.8797  0.8620
58256SOL    HW281374   8.035   3.576  11.098  0.3298  1.1682 -0.2871
58257SOL     OW81375   4.514   3.639   6.963 -0.0170 -0.2448  0.1365
58257SOL    HW181376   4.487   3.634   7.054 -1.5268  1.5475 -0.1622
58257SOL    HW281377   4.464   3.712   6.927  0.8463 -0.6534 -2.0303
58258SOL     OW81378   4.876   4.600   0.096  0.2942  0.6335  0.0932
58258SOL    HW181379   4.946   4.623   0.157  1.2415 -1.7606  0.0306
58258SOL    HW281380   4.803   4.573   0.151  0.9537 -0.9745  0.2496
58259SOL     OW81381   3.306   9.424   2.453 -0.4268  0.3934  0.1296
58259SOL    HW181382   3.379   9.447   2.395 -0.0189 -0.8478  0.1202
58259SOL    HW281383   3.337   9.449   2.540  0.2739 -0.6831  0.2048
58260SOL     OW81384  12.728  11.411   3.191 -0.2389  0.4867 -0.3403
58260SOL    HW181385  12.699  11.501   3.182  0.4409  0.6639 -0.8308
58260SOL    HW281386  12.777  11.393   3.111 -1.4519 -0.7470 -0.8367
58261SOL     OW81387   1.723   0.249   0.002  0.0232  0.3357 -0.0902
58261SOL    HW181388   1.708   0.255  -0.093  0.7986 -0.2352 -0.2607
58261SOL    HW281389   1.817   0.263   0.012 -0.0733  0.5139  0.6174
58262SOL     OW81390  12.000   4.226   1.336  0.3610  0.0137 -0.3851
58262SOL    HW181391  12.056   4.221   1.258  1.1280  0.5001  0.1239
58262SOL    HW281392  12.006   4.317   1.364  0.9930 -0.3936  0.8873
58263SOL     OW81393   3.522   6.166   5.662 -0.3858  0.4492 -0.4199
58263SOL    HW181394   3.517   6.258   5.688 -0.1693  1.2272 -2.8291
58263SOL    HW281395   3.457   6.122   5.717  0.0325  1.8717  1.3149
58264SOL     OW81396  10.461   2.113   4.901  0.2340  0.4410 -0.1751
58264SOL    HW181397  10.466   2.104   4.806  1.8431  1.2344 -0.1916
58264SOL    HW281398  10.377   2.157   4.916 -1.2497 -1.9104 -0.9910
58265SOL     OW81399   0.139   8.572  10.991 -0.5219  0.3508 -0.2836
58265SOL    HW181400   0.134   8.484  10.953 -1.4720  0.8603 -1.3717
58265SOL    HW281401   0.220   8.608  10.957 -1.6716  1.0479 -2.4715
58266SOL     OW81402   0.883   0.761  11.075 -0.2203  0.5924 -0.7036
58266SOL    HW181403   0.884   0.850  11.110 -0.1884  0.5775 -0.6669
58266SOL    HW281404   0.790   0.742  11.060 -0.2329  0.5996 -0.6315
58267SOL     OW81405   0.775   4.626   3.730 -0.2813 -0.1700  0.2719
58267SOL    HW181406   0.680   4.625   3.741 -0.1439 -0.5986  1.5695
58267SOL    HW281407   0.796   4.540   3.695 -0.3546 -0.1300  0.1294
58268SOL     OW81408   6.818   9.775   9.780 -0.2225 -0.0986 -0.6148
58268SOL    HW181409   6.798   9.848   9.838 -0.7062  0.1833 -1.1326
58268SOL    HW281410   6.898   9.738   9.816 -1.0374 -0.5386  0.8096
58269SOL     OW81411   7.517   3.719  11.839  0.2998 -0.0754  0.5149
58269SOL    HW181412   7.451   3.787  11.828 -1.5021 -1.5891  1.3801
58269SOL    HW281413   7.523   3.677  11.753  0.0751  0.0181  0.4530
58270SOL     OW81414  11.093   3.236   9.388  0.0011 -0.1567 -0.1486
58270SOL    HW181415  11.138   3.318   9.365 -1.5655  1.2264  1.4048
58270SOL    HW281416  11.164   3.174   9.406  1.3878  1.9463  2.2846
58271SOL     OW81417   6.985   6.165   3.346 -0.1983 -0.1555 -0.2578
58271SOL    HW181418   6.943   6.240   3.303 -0.7242 -0.9023 -1.0831
58271SOL    HW281419   7.079   6.184   3.341 -0.3462  0.6127 -0.1420
58272SOL     OW81420   4.518   2.603   8.564  0.2930  0.1927  0.0072
58272SOL    HW181421   4.598   2.577   8.519 -0.1278 -0.6238 -0.2833
58272SOL    HW281422   4.465   2.523   8.569 -0.9924  0.9563 -0.8106
58273SOL     OW81423  10.527   9.439  10.458 -0.7937 -0.0749 -0.4809
58273SOL    HW181424  10.605   9.423  10.406 -0.8449 -1.3954 -0.1996
58273SOL    HW281425  10.540   9.388  10.538 -3.0036 -2.5512 -1.5049
58274SOL     OW81426   0.488   4.891   2.252  0.3734  0.2251 -0.2259
58274SOL    HW181427   0.485   4.900   2.157  0.4148  1.2591 -0.1332
58274SOL    HW281428   0.445   4.807   2.269 -1.7674  1.1080 -1.0023
58275SOL     OW81429  11.553   7.676   5.170  0.3389  0.2493 -0.7298
58275SOL    HW181430  11.629   7.693   5.226 -1.8306  0.0643  2.5087
58275SOL    HW281431  11.549   7.752   5.113  1.2214  1.7787  1.1209
58276SOL     OW81432   9.035  10.132  11.735  0.0402 -0.2166 -0.1401
58276SOL    HW181433   8.946  10.126  11.771  0.5960  1.2523  1.6066
58276SOL    HW281434   9.061  10.042  11.721 -1.0132 -0.7658  1.1942
58277SOL     OW81435   2.528  10.902  10.878 -0.2059  0.2277 -0.3928
58277SOL    HW181436   2.498  10.953  10.803  1.8424  1.0264 -0.7323
58277SOL    HW281437   2.559  10.820  10.840 -0.3699  0.1056 -0.2632
58278SOL     OW81438   9.974   8.254   4.828  0.5929  0.5442 -0.0993
58278SOL    HW181439   9.906   8.320   4.842  1.6161  1.6736 -0.2608
58278SOL    HW281440   9.989   8.217   4.915  0.6792  1.2234  0.1882
58279SOL     OW81441   7.725   6.619  11.791 -0.2235 -0.3466  0.0223
58279SOL    HW181442   7.788   6.581  11.729  0.1140 -0.2727  0.3150
58279SOL    HW281443   7.763   6.703  11.815 -0.9484  0.1698 -0.5885
58280SOL     OW81444   5.949   8.056   0.917 -0.2841  0.4274 -0.7062
58280SOL    HW181445   5.962   8.050   1.012 -0.4545  1.5003 -0.6026
58280SOL    HW281446   6.023   8.108   0.886 -0.2859  0.1666 -1.1496
58281SOL     OW81447   6.891  11.499   4.225 -0.0297  0.1481 -0.0533
58281SOL    HW181448   6.949  11.557   4.274  2.6141 -0.1652 -2.5170
58281SOL    HW281449   6.826  11.558   4.186  0.2922  0.9086  0.5315
58282SOL     OW81450   3.923   8.187   1.285 -0.2053  0.3289 -0.0170
58282SOL    HW181451   3.885   8.157   1.203 -0.8426  0.5088  0.2093
58282SOL    HW281452   3.912   8.112   1.345 -0.5280  0.5042  0.1473
58283SOL     OW81453  10.781   3.349   4.227 -0.2721  0.2198  0.4151
58283SOL    HW181454  10.858   3.292   4.230 -1.2555 -1.1376  0.8159
58283SOL    HW281455  10.748   3.350   4.317 -1.7631 -0.7300 -0.0803
58284SOL     OW81456   6.114   6.243   1.291 -0.3568  0.0100  0.2149
58284SOL    HW181457   6.123   6.151   1.265  0.4140 -0.0435  0.6530
58284SOL    HW281458   6.178   6.289   1.238  0.2350  0.0972  0.9902
58285SOL     OW81459   7.133   3.310   9.082  0.1230  0.0787  0.0012
58285SOL    HW181460   7.101   3.338   9.167 -1.1456 -1.8298  0.2139
58285SOL    HW281461   7.055   3.283   9.034  0.8926  0.3602 -1.4870
58286SOL     OW81462  11.298  12.749  12.437  0.5025  0.3128  0.0216
58286SOL    HW181463  11.270  12.704  12.357  0.7187  1.2633 -0.5981
58286SOL    HW281464  11.225  12.806  12.459  0.7389  0.5845  0.0968
58287SOL     OW81465   4.889  10.737   9.171  0.0228 -0.0635  0.1980
58287SOL    HW181466   4.849  10.706   9.252  1.9089  0.1115  1.2540
58287SOL    HW281467   4.974  10.771   9.198 -0.5952  3.1294 -1.3375
58288SOL     OW81468   0.852   5.959   4.979 -0.8852  0.2278  0.1595
58288SOL    HW181469   0.895   5.898   4.919 -0.5924  0.1428  0.4543
58288SOL    HW281470   0.803   5.903   5.039  0.2663  0.1994  1.1281
58289SOL     OW81471   1.741   5.485   8.203  0.3839  0.4449  0.1307
58289SOL    HW181472   1.667   5.516   8.150 -0.2662  0.3081  0.9268
58289SOL    HW281473   1.746   5.391   8.186  1.1959  0.6611 -0.8942
58290SOL     OW81474   5.186  12.171   6.251 -0.4655 -0.2121  0.7651
58290SOL    HW181475   5.154  12.244   6.304 -1.3795 -1.1478  1.5353
58290SOL    HW281476   5.108  12.138   6.206  0.1127 -0.1076 -0.3546
58291SOL     OW81477   0.351  11.768   1.013 -0.0925 -0.4194  0.4469
58291SOL    HW181478   0.400  11.738   0.937  1.5913  0.7225  1.0363
58291SOL    HW281479   0.270  11.717   1.011  1.3908 -2.9070 -0.1476
58292SOL     OW81480   9.123   1.393  12.686  0.0368  0.6789  0.1171
58292SOL    HW181481   9.193   1.338  12.651 -1.1220 -0.5122 -0.3897
58292SOL    HW281482   9.088   1.439  12.610 -0.4532  0.4306  0.1900
58293SOL     OW81483  10.309  10.366   5.527 -0.2116  0.0564  0.2149
58293SOL    HW181484  10.374  10.365   5.596 -0.2072  2.1935  0.3041
58293SOL    HW281485  10.261  10.283   5.537  0.3845 -0.0844  2.1667
58294SOL     OW81486   3.095   5.665   6.314  0.0850  0.4397  0.5012
58294SOL    HW181487   3.109   5.577   6.280  0.1624  0.3627  0.7344
58294SOL    HW281488   3.180   5.708   6.307  0.0697  0.4662  0.4756
58295SOL     OW81489   6.463   0.463   0.302 -0.8363 -0.4293 -0.2489
58295SOL    HW181490   6.389   0.413   0.336 -0.5044 -1.2745 -0.7434
58295SOL    HW281491   6.438   0.554   0.316 -1.9364 -0.7007 -0.3348
58296SOL     OW81492   4.756   4.916   7.754  0.0514  0.3132  0.2363
58296SOL    HW181493   4.736   5.002   7.791  1.9240  0.5675  0.8034
58296SOL    HW281494   4.754   4.930   7.659 -0.6759  0.7206  0.3071
58297SOL     OW81495   6.225   4.847   6.239  0.5009  0.2440 -0.4833
58297SOL    HW181496   6.144   4.878   6.279  0.2089 -1.5595  0.4392
58297SOL    HW281497   6.237   4.902   6.162 -0.2113  2.2400  0.7774
58298SOL     OW81498   8.514   0.381  11.073  0.4839  0.0306  0.2911
58298SOL    HW181499   8.457   0.349  11.142  1.3721  1.4767  1.7755
58298SOL    HW281500   8.466   0.454  11.033  0.5759  0.1615  0.4144
58299SOL     OW81501  10.857   7.597   9.289 -0.7605 -0.3474 -0.2324
58299SOL    HW181502  10.870   7.502   9.296  0.4278 -0.2489 -0.9320
58299SOL    HW281503  10.875   7.630   9.377 -1.5206 -0.7910  0.1041
58300SOL     OW81504   6.154   8.797   3.078 -0.0868  0.2711  0.7665
58300SOL    HW181505   6.062   8.777   3.091  0.1823 -1.9782 -0.2175
58300SOL    HW281506   6.200   8.737   3.137  0.7724 -0.3845 -0.5091
58301SOL     OW81507   0.906  11.943   2.047 -0.6264 -0.3502  0.1536
58301SOL    HW181508   0.839  12.010   2.032 -0.4962 -0.3525 -0.4571
58301SOL    HW281509   0.899  11.923   2.140  2.4624  3.8692  1.5635
58302SOL     OW81510   9.443   8.764   0.441  0.4898  0.6895  0.1913
58302SOL    HW181511   9.367   8.731   0.393  1.5865  1.3611 -2.1590
58302SOL    HW281512   9.497   8.686   0.457  0.2594  0.4980  0.0386
58303SOL     OW81513   2.209   8.244   4.112  0.1876  0.2321  0.2134
58303SOL    HW181514   2.276   8.176   4.105  0.5060  0.5201  0.4563
58303SOL    HW281515   2.130   8.203   4.076  0.1598 -0.5608  1.1378
58304SOL     OW81516   8.302  10.038   9.456  0.2675  0.8902  0.3885
58304SOL    HW181517   8.207  10.027   9.443  0.5612 -0.5163 -0.9114
58304SOL    HW281518   8.309  10.104   9.525 -1.6420  1.5976 -0.0143
58305SOL     OW81519  10.940   5.555   0.189  0.3077  0.3037 -0.6189
58305SOL    HW181520  10.984   5.629   0.231  0.8173 -0.4204  0.1419
58305SOL    HW281521  10.982   5.547   0.104  0.9127  0.3030 -0.3271
58306SOL     OW81522   6.344   6.349   1.882 -0.2646 -0.6365 -0.5943
58306SOL    HW181523   6.353   6.406   1.959 -1.1071 -0.9100 -0.2847
58306SOL    HW281524   6.251   6.327   1.879 -0.1294 -1.1390 -1.3322
58307SOL     OW81525   0.613   8.799   4.969 -0.5114  0.2039 -0.2137
58307SOL    HW181526   0.593   8.705   4.961 -0.6474  0.2896 -0.9495
58307SOL    HW281527   0.541   8.842   4.923 -1.0350  0.7278  1.0398
58308SOL     OW81528   1.068  10.099   6.319  0.2046  0.3293  0.0731
58308SOL    HW181529   1.072  10.093   6.414 -0.0836  0.9971  0.1400
58308SOL    HW281530   1.025  10.183   6.303  0.5659  0.3830 -0.6506
58309SOL     OW81531   7.068   0.909  10.943  0.1390  0.0833  0.2291
58309SOL    HW181532   7.076   0.888  11.036 -0.1506  0.7332  0.4061
58309SOL    HW281533   7.084   1.003  10.938  0.1375  0.0564 -0.3775
58310SOL     OW81534   1.375   5.126   7.309 -0.2290  0.0353 -0.2510
58310SOL    HW181535   1.284   5.143   7.335  0.5180  2.7994  0.8286
58310SOL    HW281536   1.422   5.114   7.391  0.2932 -2.5647 -0.8161
58311SOL     OW81537   1.338   6.230  11.330 -0.5391  0.8944  0.2791
58311SOL    HW181538   1.337   6.201  11.239 -3.9366 -1.8221  0.9830
58311SOL    HW281539   1.374   6.156  11.378 -1.0476  1.3475  1.3870
58312SOL     OW81540   3.824   4.777   3.514  0.3334 -0.3981 -0.5393
58312SOL    HW181541   3.907   4.812   3.546 -0.0240 -0.1044  0.0949
58312SOL    HW281542   3.837   4.682   3.515 -0.5712 -0.6697  3.3364
58313SOL     OW81543  12.779   6.303  12.403  0.1144 -0.7932  0.2809
58313SOL    HW181544  12.701   6.359  12.401 -0.0952 -1.0261  1.2867
58313SOL    HW281545  12.798   6.285  12.311 -0.9343 -0.6258  0.0180
58314SOL     OW81546   7.143  10.289   3.512 -0.1202 -0.1822 -0.3236
58314SOL    HW181547   7.055  10.323   3.496 -0.0988 -0.2033 -0.4942
58314SOL    HW281548   7.134  10.236   3.591  0.0858  1.1408  0.6203
58315SOL     OW81549   2.651  10.238   0.340 -0.0837 -0.3955 -0.2953
58315SOL    HW181550   2.725  10.184   0.314 -0.1952 -1.0343  0.6795
58315SOL    HW281551   2.589  10.177   0.379 -0.1749  0.4380  0.9181
58316SOL     OW81552  11.291   8.944   1.037  0.0209  0.7463  0.3352
58316SOL    HW181553  11.315   9.033   1.011  1.9574  0.4625  0.9535
58316SOL    HW281554  11.252   8.953   1.124 -3.6070  1.3559 -1.1804
58317SOL     OW81555  12.631  11.811   0.230  0.6885 -0.2832  0.4234
58317SOL    HW181556  12.661  11.809   0.139 -0.8130  0.4733 -0.1156
58317SOL    HW281557  12.562  11.744   0.234 -0.2549  0.6850  0.6168
58318SOL     OW81558   4.034   8.247   4.985 -0.6551 -0.3357  0.3414
58318SOL    HW181559   3.953   8.264   4.938 -0.6233  0.6656  0.6392
58318SOL    HW281560   4.102   8.253   4.918 -0.7553 -0.4572  0.2280
58319SOL     OW81561   1.110   4.276  11.209 -0.6573 -0.4165 -0.5836
58319SOL    HW181562   1.171   4.286  11.283  0.4011 -2.1436 -1.1674
58319SOL    HW281563   1.120   4.357  11.159 -0.0323  0.0026  0.1881
58320SOL     OW81564   5.885  10.482   0.924  0.2340  0.0002  0.5006
58320SOL    HW181565   5.882  10.504   1.017 -2.5034  1.7818  0.0963
58320SOL    HW281566   5.830  10.404   0.916  1.7664 -1.1305  0.5295
58321SOL     OW81567   3.012   0.887   4.907  1.0399  0.4648  0.7967
58321SOL    HW181568   2.956   0.891   4.985  2.4894 -1.0241  1.9864
58321SOL    HW281569   3.039   0.978   4.893 -1.8376  1.3089 -0.0297
58322SOL     OW81570  10.580   7.110   3.429  0.3363  0.0761  0.0091
58322SOL    HW181571  10.489   7.113   3.459  0.4029 -2.1284  0.5847
58322SOL    HW281572  10.627   7.169   3.487 -0.7857  1.6197 -0.6021
58323SOL     OW81573   2.956   7.868  10.148 -0.2806  0.0056  0.7216
58323SOL    HW181574   2.917   7.953  10.166  2.7938  1.5689  0.7013
58323SOL    HW281575   2.939   7.852  10.055  0.4619  1.4177  0.3196
58324SOL     OW81576   5.264   7.882   4.341 -0.4966  0.0113  0.8152
58324SOL    HW181577   5.296   7.972   4.330 -2.3033  0.4610 -1.4919
58324SOL    HW281578   5.296   7.836   4.263 -3.4820 -0.0566 -0.4921
58325SOL     OW81579   3.187   6.298   6.296  0.1098 -0.2379 -0.7126
58325SOL    HW181580   3.233   6.352   6.231 -1.1841  1.3895 -0.3531
58325SOL    HW281581   3.244   6.298   6.372  0.6126 -0.2770 -1.0837
58326SOL     OW81582   0.244   8.365  12.188  0.6910 -0.1545 -0.2604
58326SOL    HW181583   0.323   8.400  12.230  1.3211 -2.6591  0.8702
58326SOL    HW281584   0.261   8.372  12.094  2.7190 -1.4006 -0.0564
58327SOL     OW81585   6.455  11.565   1.198  0.2082  0.0572 -0.4372
58327SOL    HW181586   6.507  11.571   1.118  1.0866  1.8950  0.2137
58327SOL    HW281587   6.518  11.582   1.269 -0.9676  0.8060  0.4646
58328SOL     OW81588   5.629   3.747   9.047 -0.2397  0.2686  0.6089
58328SOL    HW181589   5.642   3.812   8.978  2.3344 -0.1378  0.6069
58328SOL    HW281590   5.686   3.776   9.118 -0.3298 -1.0917  1.2644
58329SOL     OW81591  12.413   9.129   6.445 -0.4325 -0.5073 -0.2744
58329SOL    HW181592  12.497   9.096   6.477 -0.0123  1.5414  0.9291
58329SOL    HW281593  12.357   9.132   6.523 -1.1991 -0.6101 -0.8105
58330SOL     OW81594   4.258   6.031   1.010 -0.5832 -0.1618 -0.3670
58330SOL    HW181595   4.207   6.019   0.930 -0.8230  0.0948 -0.2526
58330SOL    HW281596   4.294   6.119   1.002 -0.9905  0.0403  0.0248
58331SOL     OW81597   1.344   9.792   7.502  0.3628 -0.1550 -0.0674
58331SOL    HW181598   1.398   9.786   7.581  0.0114 -0.3200  0.1621
58331SOL    HW281599   1.271   9.731   7.517  0.6898 -0.7678 -0.8347
58332SOL     OW81600  11.162  11.333   5.303 -0.2046  0.3823 -0.2600
58332SOL    HW181601  11.211  11.414   5.290  0.9012 -0.4886 -1.8524
58332SOL    HW281602  11.163  11.319   5.398  0.2176  1.8283 -0.0296
58333SOL     OW81603   6.565  12.007   5.711 -0.1080  0.3388  0.5577
58333SOL    HW181604   6.653  11.970   5.715  0.0420  0.6580  0.2975
58333SOL    HW281605   6.567  12.081   5.772 -1.5295 -2.3070  4.0905
58334SOL     OW81606  11.010   0.348   4.289  0.4734  0.2618 -0.1551
58334SOL    HW181607  11.085   0.370   4.234  1.2195 -0.3526  0.6073
58334SOL    HW281608  11.047   0.300   4.363 -0.6685 -0.0503  0.2310
58335SOL     OW81609   9.173  10.738   5.801  0.1339 -0.0179  0.2856
58335SOL    HW181610   9.089  10.730   5.757  1.3169  1.5709 -2.5061
58335SOL    HW281611   9.219  10.657   5.780  0.3733  0.3768 -0.7918
58336SOL     OW81612   8.893  10.459   4.524 -0.3469  0.4170 -0.0904
58336SOL    HW181613   8.853  10.464   4.611  0.8939 -0.1018  0.5283
58336SOL    HW281614   8.849  10.385   4.481 -0.5904  0.3441  0.2824
58337SOL     OW81615   0.064   5.033  11.309  0.1220  0.1098 -0.4939
58337SOL    HW181616   0.008   5.046  11.385 -1.5123 -0.3475 -1.5674
58337SOL    HW281617   0.097   5.121  11.289 -1.2808  0.6307 -0.6189
58338SOL     OW81618   5.148   3.758   1.918  0.2970  0.1408  0.2793
58338SOL    HW181619   5.225   3.751   1.974  0.0300  0.1537  0.6486
58338SOL    HW281620   5.138   3.851   1.902  1.2211  0.0596 -0.9852
58339SOL     OW81621   5.171   3.064   0.693 -0.4640  0.1353  0.7498
58339SOL    HW181622   5.169   3.153   0.658 -1.2263 -0.6492 -1.3776
58339SOL    HW281623   5.259   3.054   0.728 -0.1331  1.4930  0.3891
58340SOL     OW81624   8.826   1.379   6.725  0.5289 -0.3654 -0.4255
58340SOL    HW181625   8.805   1.465   6.760  0.7514 -0.5234  0.1139
58340SOL    HW281626   8.844   1.394   6.632 -0.6385 -0.0244 -0.6140
58341SOL     OW81627  11.276   5.245   4.266 -0.3102  0.1620 -0.2185
58341SOL    HW181628  11.201   5.278   4.315 -1.1288  1.3465 -2.1535
58341SOL    HW281629  11.262   5.275   4.176  1.6588 -0.9871 -0.9923
58342SOL     OW81630   4.871   9.209   3.723 -0.0563  0.1949  0.0053
58342SOL    HW181631   4.798   9.162   3.681  0.7508 -1.1714  0.0697
58342SOL    HW281632   4.865   9.184   3.816 -0.5304  1.4818  0.3472
58343SOL     OW81633  11.298   5.325   2.453  0.3789  0.6382  0.4522
58343SOL    HW181634  11.242   5.258   2.414  1.6208 -0.3046  0.1947
58343SOL    HW281635  11.387   5.295   2.434  0.9834  2.4373  0.2330
58344SOL     OW81636   9.984  11.114   2.168 -0.1358 -0.5447 -0.4311
58344SOL    HW181637  10.012  11.066   2.091 -0.5910 -0.2253 -0.7970
58344SOL    HW281638  10.043  11.084   2.238  1.1667  0.1565 -1.1945
58345SOL     OW81639  11.008   1.693  11.587 -0.1590  0.1852 -0.1950
58345SOL    HW181640  10.961   1.706  11.669  1.1596  0.0659  0.6152
58345SOL    HW281641  11.019   1.598  11.580  0.6997  0.2590  0.0696
58346SOL     OW81642   4.086   5.230   0.742 -0.2676 -0.3247  0.2090
58346SOL    HW181643   4.110   5.184   0.661 -1.2985 -0.9460  0.2421
58346SOL    HW281644   4.170   5.247   0.785  0.2379 -0.7671 -0.5650
58347SOL     OW81645   7.938   2.777   3.594 -0.4367 -0.6453 -0.0669
58347SOL    HW181646   7.981   2.745   3.515  0.1947  1.0058 -0.4441
58347SOL    HW281647   7.859   2.725   3.602 -0.1992 -1.2523 -1.4518
58348SOL     OW81648   7.761   9.056   1.842 -0.4811  0.1925  0.3246
58348SOL    HW181649   7.733   9.141   1.810  0.3331 -0.0668 -1.1759
58348SOL    HW281650   7.722   8.993   1.782  0.6549 -0.3501  0.1276
58349SOL     OW81651   5.594   1.991   1.422 -0.5707  0.3245 -0.4355
58349SOL    HW181652   5.623   1.906   1.454  0.0454  1.3366  1.9116
58349SOL    HW281653   5.502   1.997   1.450 -0.5735  0.4890 -0.4805
58350SOL     OW81654   2.377   0.070  10.679 -0.6132 -0.6145  0.4575
58350SOL    HW181655   2.421   0.155  10.673 -0.8018 -0.6115 -1.2382
58350SOL    HW281656   2.376   0.051  10.773 -1.6443  1.7983  1.0135
58351SOL     OW81657   7.642   9.219   7.459 -0.6401 -0.2789  0.3414
58351SOL    HW181658   7.735   9.204   7.441 -0.6030 -0.6941  0.8691
58351SOL    HW281659   7.597   9.184   7.381 -0.2607  1.8288 -0.8953
58352SOL     OW81660   8.751   6.815   1.963 -0.1799  0.0911 -0.1706
58352SOL    HW181661   8.795   6.788   1.883 -0.3381 -0.8112  0.0415
58352SOL    HW281662   8.738   6.734   2.012 -0.3160  0.6016  0.6524
58353SOL     OW81663   8.889   2.410   2.599  0.0934 -0.1301  0.1109
58353SOL    HW181664   8.961   2.352   2.621  0.1870  0.1474  0.5409
58353SOL    HW281665   8.917   2.454   2.518  0.7045  0.4807  0.6417
58354SOL     OW81666   6.450   7.834  12.289  0.3899 -0.4169  0.2459
58354SOL    HW181667   6.468   7.781  12.367 -1.7611 -1.1790  0.3188
58354SOL    HW281668   6.447   7.924  12.321 -0.9679 -0.7632  1.1951
58355SOL     OW81669   3.240   0.617   5.380 -0.3162 -0.5053  0.2524
58355SOL    HW181670   3.268   0.626   5.471 -1.1302  2.3136  0.3367
58355SOL    HW281671   3.233   0.523   5.365  1.1586 -1.0823  2.6593
58356SOL     OW81672   5.911   0.836   6.933  0.0441  0.4534 -0.2137
58356SOL    HW181673   5.920   0.762   6.993  1.9119  0.2236 -0.7086
58356SOL    HW281674   5.880   0.796   6.851 -1.2858  0.5981  0.1835
58357SOL     OW81675  11.701   2.510  12.436 -0.3632  0.0914 -0.1347
58357SOL    HW181676  11.658   2.470  12.511 -0.3324  0.1390 -0.0907
58357SOL    HW281677  11.716   2.438  12.375  0.1307 -0.0445  0.1508
58358SOL     OW81678   4.188  11.763  12.592 -0.0602 -0.4829 -0.5849
58358SOL    HW181679   4.184  11.670  12.573 -0.6037 -0.2742 -1.5679
58358SOL    HW281680   4.282  11.781  12.605  0.0176 -1.2069 -0.0747
58359SOL     OW81681   1.627   6.737  12.576  0.5810  0.0641 -0.3758
58359SOL    HW181682   1.538   6.773  12.571 -0.1130 -1.6366 -1.6222
58359SOL    HW281683   1.684   6.809  12.552 -0.6886  0.5578 -2.0995
58360SOL     OW81684   4.663   8.603   5.301 -0.1374 -0.0424 -0.1123
58360SOL    HW181685   4.658   8.617   5.206  0.0088  0.5522 -0.0386
58360SOL    HW281686   4.680   8.510   5.311  0.1093 -0.0611 -0.6780
58361SOL     OW81687   0.439   8.450   1.009  0.2087 -0.2559  0.4728
58361SOL    HW181688   0.388   8.444   0.928 -0.7042  0.6980  0.9569
58361SOL    HW281689   0.471   8.361   1.024 -1.8441 -1.0422  0.4742
58362SOL     OW81690   2.075   2.730  12.443 -0.1274  0.0339 -0.0152
58362SOL    HW181691   2.122   2.653  12.476 -1.2415 -0.1719  1.1900
58362SOL    HW281692   2.096   2.800  12.505 -0.7395  0.1478  0.0737
58363SOL     OW81693   9.325   0.304   5.235  0.2672 -0.2199 -0.6423
58363SOL    HW181694   9.393   0.295   5.301 -1.0009 -0.9778  0.6415
58363SOL    HW281695   9.366   0.276   5.153  1.9160  0.8801 -0.2162
58364SOL     OW81696  10.251   3.769   8.910  0.0502  0.0464  0.3128
58364SOL    HW181697  10.329   3.821   8.891 -0.4862  2.0831  3.0383
58364SOL    HW281698  10.182   3.834   8.924 -1.0333 -1.4384  2.3778
58365SOL     OW81699   5.822   2.870   3.223 -0.4088  0.9902  0.2819
58365SOL    HW181700   5.861   2.839   3.141 -1.9200 -0.5520  0.0767
58365SOL    HW281701   5.779   2.792   3.259 -0.7268  1.9153  1.9792
58366SOL     OW81702   9.337  10.321  10.337  0.1247 -0.4581  0.2540
58366SOL    HW181703   9.413  10.325  10.395  1.0615  0.8674 -1.0085
58366SOL    HW281704   9.351  10.392  10.274 -2.2274 -0.0928  0.0637
58367SOL     OW81705  12.227   1.898  10.199 -0.1165 -0.1459  0.0475
58367SOL    HW181706  12.239   1.968  10.135 -0.0786 -1.0501 -0.9911
58367SOL    HW281707  12.173   1.833  10.153  0.4790 -1.1302  0.6851
58368SOL     OW81708  10.433   6.448   4.765  0.1516  0.0766 -0.3228
58368SOL    HW181709  10.452   6.529   4.812  1.2632  0.5196 -1.4826
58368SOL    HW281710  10.414   6.476   4.676  1.0865 -0.9701 -0.8731
58369SOL     OW81711   5.450   3.423   5.373 -0.0868  0.1959 -0.2701
58369SOL    HW181712   5.408   3.508   5.388  0.2081  0.6896 -2.0718
58369SOL    HW281713   5.378   3.364   5.352 -0.0041  1.0404 -3.3523
58370SOL     OW81714   7.490   0.080   6.235 -0.1733  0.0352 -0.0782
58370SOL    HW181715   7.443   0.023   6.174 -0.0492  0.2906 -0.4135
58370SOL    HW281716   7.442   0.163   6.232 -0.8049 -0.2720  0.9710
58371SOL     OW81717   0.563   5.204   3.685 -0.4042  0.4353 -0.2949
58371SOL    HW181718   0.506   5.141   3.641  0.5534  0.7113 -2.0164
58371SOL    HW281719   0.601   5.256   3.615 -0.9537  2.8094  1.0530
58372SOL     OW81720   8.134   3.321  10.629 -0.2168  0.0500  0.3641
58372SOL    HW181721   8.179   3.391  10.581  1.1006 -1.1457 -0.2065
58372SOL    HW281722   8.158   3.337  10.721 -0.9162  1.0235  0.4018
58373SOL     OW81723   7.325  10.295   1.409 -0.0172  0.3732 -0.3696
58373SOL    HW181724   7.293  10.218   1.363 -0.1911  0.4335 -0.3511
58373SOL    HW281725   7.265  10.306   1.483  1.3143 -0.7914  0.9456
58374SOL     OW81726   1.999  11.575  12.101  0.1113 -0.3094 -0.2628
58374SOL    HW181727   2.071  11.530  12.146  0.6126 -0.4082 -1.1278
58374SOL    HW281728   1.923  11.519  12.115  0.0743  0.0623  1.1059
58375SOL     OW81729   6.650  12.265   0.975  0.0897  0.0538 -0.0829
58375SOL    HW181730   6.644  12.360   0.982 -1.1554 -0.1175  2.2747
58375SOL    HW281731   6.603  12.233   1.052  0.6487 -2.4771 -0.7206
58376SOL     OW81732   4.650   7.327   9.119  0.3302  0.6734  0.4007
58376SOL    HW181733   4.603   7.257   9.074 -0.0507  0.6424  0.8336
58376SOL    HW281734   4.587   7.359   9.185  0.6301  1.1768  0.4439
58377SOL     OW81735   7.387   8.810   7.307 -0.0562 -0.1018  0.2631
58377SOL    HW181736   7.336   8.881   7.346 -0.8927  0.5603 -1.9017
58377SOL    HW281737   7.323   8.741   7.289  0.8656 -1.8538  3.0813
58378SOL     OW81738   5.036   2.692   8.396 -0.2594 -0.1274  0.0275
58378SOL    HW181739   5.053   2.602   8.423  2.1179  0.2874  0.0886
58378SOL    HW281740   5.108   2.714   8.337  0.2404  2.3093  1.4287
58379SOL     OW81741   5.838   5.530  11.752  0.3620 -0.0800 -0.1328
58379SOL    HW181742   5.932   5.547  11.738  0.0990  0.8934 -0.8771
58379SOL    HW281743   5.825   5.441  11.720  1.2398 -0.6853  1.0787
58380SOL     OW81744   1.653   8.046  11.292  0.1954  0.3056 -0.4551
58380SOL    HW181745   1.571   8.049  11.243  0.5993  0.6478 -1.1224
58380SOL    HW281746   1.655   7.958  11.330 -0.7210  0.4640  0.0012
58381SOL     OW81747   3.286  12.782   0.923 -0.3986  0.0835 -0.4903
58381SOL    HW181748   3.239  12.713   0.877 -1.0047  0.4397 -0.4059
58381SOL    HW281749   3.264  12.862   0.875 -1.0145  0.4570  0.3956
58382SOL     OW81750   9.025   9.330   7.075  0.1951  0.1133 -0.2180
58382SOL    HW181751   8.975   9.334   7.156  0.1667 -0.3731 -0.2080
58382SOL    HW281752   8.982   9.262   7.024  0.4491  0.1471 -0.4776
58383SOL     OW81753   6.933  12.497   9.233  0.1908  0.2955  0.0282
58383SOL    HW181754   6.985  12.469   9.158  2.2717  1.3665  0.9855
58383SOL    HW281755   6.937  12.424   9.295  1.2124  0.6357  0.3866
58384SOL     OW81756   7.500   3.342   3.983 -0.4164 -0.3256 -0.2990
58384SOL    HW181757   7.493   3.395   3.903  0.3232  0.2628  0.0136
58384SOL    HW281758   7.584   3.367   4.021  1.2154 -3.5157 -1.4276
58385SOL     OW81759   0.805   1.555   0.411 -0.0981 -0.4028  0.2052
58385SOL    HW181760   0.845   1.642   0.413  2.7918 -1.6509  1.5128
58385SOL    HW281761   0.810   1.528   0.319 -1.8280  1.0765 -0.3818
58386SOL     OW81762   2.022   0.703   7.487 -0.1344 -0.5129  0.0595
58386SOL    HW181763   2.034   0.647   7.411 -0.5352 -0.6708  0.1066
58386SOL    HW281764   2.108   0.707   7.529  0.5861  1.1425 -1.4504
58387SOL     OW81765  11.747   9.414   9.987  0.0280 -0.4239 -0.0951
58387SOL    HW181766  11.681   9.348  10.010  1.6568 -2.6454 -1.3659
58387SOL    HW281767  11.700   9.497   9.991 -1.6608 -1.3350  3.5833
58388SOL     OW81768  10.498   1.748   3.508  0.2867  0.1124  0.2720
58388SOL    HW181769  10.512   1.801   3.587 -1.8578  0.6832  0.3314
58388SOL    HW281770  10.528   1.660   3.533  0.2643  0.4297  1.5004
58389SOL     OW81771   4.404   5.244   0.079  0.2503 -0.2142 -0.1479
58389SOL    HW181772   4.413   5.336   0.101  0.7851  0.0286 -1.2958
58389SOL    HW281773   4.317   5.237   0.039  0.1045 -0.2547  0.1801
58390SOL     OW81774   6.765   4.574   4.133  0.3127  0.6974 -0.3944
58390SOL    HW181775   6.773   4.501   4.196  0.0268  1.0034  0.0022
58390SOL    HW281776   6.677   4.565   4.098  0.1082  1.1230 -0.0001
58391SOL     OW81777   2.003   8.122   0.045  0.1680  0.4508  0.0667
58391SOL    HW181778   2.069   8.156   0.105  0.9626 -1.2695  0.2384
58391SOL    HW281779   1.941   8.194   0.034  0.1122  0.9121  2.7632
58392SOL     OW81780   0.866   8.738   0.672 -0.2519  0.4677 -0.1323
58392SOL    HW181781   0.951   8.732   0.629 -1.3802  0.4970 -2.4867
58392SOL    HW281782   0.805   8.694   0.613 -2.4791  3.3855 -0.2628
58393SOL     OW81783  11.075   8.162  10.358  0.1515  0.1045 -0.2393
58393SOL    HW181784  11.070   8.171  10.453  0.0916 -0.9639 -0.1370
58393SOL    HW281785  11.151   8.105  10.343 -0.3582 -0.4502 -0.7816
58394SOL     OW81786  11.794  11.969   9.850  0.0384 -0.0825  0.3844
58394SOL    HW181787  11.822  12.054   9.882 -0.7917  0.6393 -0.7357
58394SOL    HW281788  11.825  11.965   9.760 -0.2740 -0.7930  0.2996
58395SOL     OW81789   4.120   8.148   6.160  0.1940  0.0257  0.2570
58395SOL    HW181790   4.090   8.170   6.072 -0.2318 -0.0990  0.3675
58395SOL    HW281791   4.171   8.068   6.149 -0.2788 -0.2713  0.1893
58396SOL     OW81792   3.082   0.043  11.151 -0.0186 -0.6032 -0.2724
58396SOL    HW181793   3.075   0.033  11.056  1.5472  0.3641 -0.5312
58396SOL    HW281794   3.041   0.128  11.169 -0.3099 -0.7840 -0.0809
58397SOL     OW81795   8.768   7.084   5.649 -0.0384  0.1538 -0.1238
58397SOL    HW181796   8.803   7.163   5.607  1.4969 -0.8291 -0.7650
58397SOL    HW281797   8.732   7.033   5.577 -1.3361  0.3793  0.3335
58398SOL     OW81798   2.044   9.512   6.693  0.1390 -0.4810  0.0861
58398SOL    HW181799   2.075   9.469   6.772 -1.5253  0.3113  1.2236
58398SOL    HW281800   2.004   9.442   6.641 -0.0074 -0.7847  0.5991
58399SOL     OW81801   6.310   3.314   1.938 -0.2059 -0.2123  0.0063
58399SOL    HW181802   6.216   3.332   1.936 -0.0239  1.0222  0.8793
58399SOL    HW281803   6.319   3.228   1.897 -1.7507 -0.5282  0.2478
58400SOL     OW81804   7.303   5.877   3.537  0.3246 -0.3853  0.4145
58400SOL    HW181805   7.318   5.844   3.448  0.0958  1.3016 -0.2882
58400SOL    HW281806   7.291   5.798   3.590 -0.5809 -1.4148 -1.2434
58401SOL     OW81807   1.643   7.044   4.054 -0.0402  0.4579 -0.4285
58401SOL    HW181808   1.616   7.133   4.033 -2.9489 -0.4550 -0.9937
58401SOL    HW281809   1.640   6.998   3.970  2.7220  0.0279 -0.3975
58402SOL     OW81810   7.593  10.836   8.490 -0.5354 -0.5587 -0.2812
58402SOL    HW181811   7.607  10.752   8.533  1.5261 -0.8211 -1.3543
58402SOL    HW281812   7.624  10.901   8.553 -0.8034 -0.7063  0.0010
58403SOL     OW81813   5.877  11.110  10.351  0.4432 -0.0648  0.3039
58403SOL    HW181814   5.946  11.054  10.386  1.0413  0.2113 -0.4018
58403SOL    HW281815   5.821  11.129  10.426  1.2659 -0.1040  0.9468
58404SOL     OW81816   4.760   8.654   3.322 -0.0885  0.0244  0.1731
58404SOL    HW181817   4.793   8.721   3.383  1.2063  0.7475 -1.2676
58404SOL    HW281818   4.783   8.571   3.363  1.6224  0.5056  0.2586
58405SOL     OW81819  12.742   0.695   6.773  0.9013 -0.2423 -0.6271
58405SOL    HW181820  12.835   0.676   6.779  0.8804 -0.6734 -1.4899
58405SOL    HW281821  12.699   0.615   6.806  0.8388 -0.7476 -1.8593
58406SOL     OW81822  12.443   5.600   9.619  0.3517 -0.3937 -0.2182
58406SOL    HW181823  12.521   5.649   9.645  1.1735 -2.3718  1.3482
58406SOL    HW281824  12.421   5.547   9.696 -2.8689  0.4348 -0.4252
58407SOL     OW81825   7.774   1.225   5.478  0.8860  0.1289 -0.0679
58407SOL    HW181826   7.760   1.145   5.426  1.2865  0.2166 -0.3121
58407SOL    HW281827   7.827   1.196   5.552  0.1576 -0.0350  0.4128
58408SOL     OW81828   6.748   0.036   4.700  0.5006 -0.1585  0.3232
58408SOL    HW181829   6.767   0.120   4.660 -0.1470 -0.3899 -0.4968
58408SOL    HW281830   6.732  -0.023   4.627 -2.9302 -0.0920  0.8289
58409SOL     OW81831   7.895  11.642   0.145  0.3008  0.5270 -0.3502
58409SOL    HW181832   7.863  11.569   0.197  1.0503  0.3943 -0.0622
58409SOL    HW281833   7.880  11.615   0.054  0.9787 -0.1899 -0.2613
58410SOL     OW81834   4.396   6.703  11.402  0.0587 -0.4247 -0.1644
58410SOL    HW181835   4.413   6.753  11.481  0.1486 -0.8374  0.0797
58410SOL    HW281836   4.480   6.663  11.380 -0.3370 -1.6529  0.4724
58411SOL     OW81837   0.962  10.141   6.743 -0.0925  0.6487 -0.1039
58411SOL    HW181838   1.056  10.158   6.741 -0.0980  0.6188 -0.8796
58411SOL    HW281839   0.955  10.050   6.770  0.0593  0.9443  0.9508
58412SOL     OW81840   1.551  10.678  12.022  0.1802  0.3464 -0.4015
58412SOL    HW181841   1.573  10.614  11.954 -1.9141  0.5446 -1.3347
58412SOL    HW281842   1.559  10.628  12.104 -0.6879 -0.9509 -1.0588
58413SOL     OW81843  11.736   6.025  11.306 -0.0086  0.1472 -0.2903
58413SOL    HW181844  11.743   6.117  11.283  0.8333  0.3337  0.6656
58413SOL    HW281845  11.721   6.025  11.400 -0.6583 -0.6794 -0.3828
58414SOL     OW81846   2.191   3.829   0.843 -0.1370 -0.3667 -0.5698
58414SOL    HW181847   2.242   3.890   0.790 -1.5562 -1.1347 -2.9778
58414SOL    HW281848   2.214   3.851   0.933  0.0691  3.1152 -1.3266
58415SOL     OW81849   7.616   1.499   8.987  0.1970  0.0384 -0.7304
58415SOL    HW181850   7.587   1.519   8.898 -0.2821 -2.7005 -1.2898
58415SOL    HW281851   7.690   1.439   8.975 -0.3020 -0.9030  0.6707
58416SOL     OW81852  12.282   2.928   5.341  0.8037 -0.4128 -0.0932
58416SOL    HW181853  12.204   2.877   5.320  0.3950 -0.5973  1.6739
58416SOL    HW281854  12.337   2.868   5.392  2.0761 -0.2524 -1.2425
58417SOL     OW81855  11.266   0.401  11.582 -0.7420  0.2788  0.4759
58417SOL    HW181856  11.323   0.466  11.540  0.2473 -0.2565  0.9397
58417SOL    HW281857  11.311   0.317  11.568 -1.6799 -0.2329  0.4231
58418SOL     OW81858   8.980   9.253   4.632  0.1719 -0.0889 -0.0318
58418SOL    HW181859   8.958   9.183   4.694  0.3177  0.3290  0.4983
58418SOL    HW281860   9.072   9.236   4.610  0.8200  1.0075  1.5765
58419SOL     OW81861   3.365  10.770   9.793  0.5332 -0.1241  0.4485
58419SOL    HW181862   3.369  10.820   9.874 -0.7136 -2.0089  1.7423
58419SOL    HW281863   3.307  10.822   9.736  0.3441  0.5480  1.2420
58420SOL     OW81864   3.398  11.479   0.494  0.5511 -0.2899  0.1709
58420SOL    HW181865   3.307  11.508   0.484  0.7569 -0.2496 -2.0161
58420SOL    HW281866   3.430  11.528   0.570 -1.1646 -0.1444  0.8583
58421SOL     OW81867   0.509   6.222  12.016  0.1412 -0.0102 -0.0131
58421SOL    HW181868   0.501   6.318  12.018 -1.1747 -0.1143  0.4207
58421SOL    HW281869   0.589   6.205  12.067  0.1830  0.8331  0.2365
58422SOL     OW81870   7.774   4.590   4.099 -0.1587 -0.0340 -0.1358
58422SOL    HW181871   7.816   4.660   4.048  1.9643  0.1711  1.7698
58422SOL    HW281872   7.745   4.633   4.179 -0.4539 -0.9968  0.2856
58423SOL     OW81873   6.147  11.783   6.272  0.5411  0.0703  0.4072
58423SOL    HW181874   6.227  11.768   6.222  0.5431  0.9409  0.1245
58423SOL    HW281875   6.134  11.878   6.268 -1.7804 -0.2444 -1.5785
58424SOL     OW81876   3.247   1.672   0.042  0.3446  0.3660  0.8244
58424SOL    HW181877   3.306   1.720  -0.015 -0.6566  1.1417  0.4225
58424SOL    HW281878   3.199   1.614  -0.016 -0.3120  0.7818  0.9478
58425SOL     OW81879   4.016   3.062   0.233 -0.2401  0.4487  0.3659
58425SOL    HW181880   4.003   2.970   0.208  0.9138  0.5666 -0.7965
58425SOL    HW281881   3.937   3.107   0.202 -0.5295 -0.0549  0.3661
58426SOL     OW81882   1.022   9.747   6.269 -0.2660  0.2240 -0.7280
58426SOL    HW181883   1.026   9.838   6.242  0.8565  0.4875  0.2494
58426SOL    HW281884   1.008   9.751   6.364  2.2224 -0.5286 -0.2501
58427SOL     OW81885   6.203   3.980   0.140 -0.8060  0.1530  0.0509
58427SOL    HW181886   6.218   4.018   0.054  0.1132 -0.1180  0.0778
58427SOL    HW281887   6.217   3.886   0.128  1.2263  0.3056  0.8627
58428SOL     OW81888   8.882  11.661   1.299  0.7805 -0.0650  0.0127
58428SOL    HW181889   8.930  11.589   1.257  0.6459 -1.5907  2.2880
58428SOL    HW281890   8.951  11.718   1.334  0.8869  0.2365 -0.6698
58429SOL     OW81891   0.481   4.641   0.676  0.8535  0.1202  0.5227
58429SOL    HW181892   0.427   4.654   0.754  1.4070  0.5628  0.8419
58429SOL    HW281893   0.434   4.688   0.607  0.2772 -0.4080  0.5488
58430SOL     OW81894   5.658   5.878   4.648 -0.2216 -0.1774 -0.5060
58430SOL    HW181895   5.568   5.897   4.622  0.3090  0.2086 -2.1418
58430SOL    HW281896   5.662   5.906   4.740 -1.4366  0.9109 -0.7478
58431SOL     OW81897   0.574   0.667   6.903 -0.4239 -0.0637 -0.0129
58431SOL    HW181898   0.668   0.686   6.893 -0.5984  0.5904 -0.4951
58431SOL    HW281899   0.533   0.754   6.904 -1.1930 -0.3856 -1.5503
58432SOL     OW81900   0.938  12.138  10.953 -0.2444 -0.5423 -0.0941
58432SOL    HW181901   0.969  12.182  11.032 -0.0309 -1.3399  0.2791
58432SOL    HW281902   0.882  12.203  10.910  0.7563  0.4013 -0.0230
58433SOL     OW81903   0.195   3.032  12.108  0.4339  0.0574 -0.1650
58433SOL    HW181904   0.183   2.946  12.148 -0.8496 -0.0704 -0.7849
58433SOL    HW281905   0.242   3.015  12.026 -0.9174 -0.2348 -0.9118
58434SOL     OW81906   8.481   0.202   9.321 -0.0839  0.6253 -0.6705
58434SOL    HW181907   8.509   0.175   9.409 -1.0653  2.4340  0.2590
58434SOL    HW281908   8.559   0.188   9.266  0.3792 -1.0853  0.3270
58435SOL     OW81909  11.902   7.118   9.606  0.0690  0.4479  0.9679
58435SOL    HW181910  11.826   7.160   9.566 -0.0393 -0.6310  0.0094
58435SOL    HW281911  11.866   7.045   9.656  0.5583 -1.3122 -1.0966
58436SOL     OW81912   4.795   9.854  12.612  0.3015  0.4486 -0.0832
58436SOL    HW181913   4.712   9.815  12.641 -0.5753  0.5037 -2.3082
58436SOL    HW281914   4.827   9.902  12.689 -1.9826  0.8559  0.7016
58437SOL     OW81915  12.238   0.808  12.596 -0.1305 -0.6850  0.3166
58437SOL    HW181916  12.214   0.737  12.537 -0.8107  1.1770 -1.7793
58437SOL    HW281917  12.163   0.868  12.593  0.3614  0.0803  2.1282
58438SOL     OW81918  10.742   8.745  10.756 -0.0406 -0.1786  0.3143
58438SOL    HW181919  10.795   8.749  10.676 -1.4376  1.7247 -0.5696
58438SOL    HW281920  10.803   8.769  10.826  0.7854 -0.1458 -0.3964
58439SOL     OW81921   8.427   3.095   5.396  0.1079 -0.2651  0.2026
58439SOL    HW181922   8.514   3.116   5.427  0.2405 -1.3093  0.5892
58439SOL    HW281923   8.441   3.035   5.322 -0.2759 -0.7863  0.5392
58440SOL     OW81924   2.911   8.048   4.364  0.3810  0.1366  0.6212
58440SOL    HW181925   2.938   8.025   4.275  0.3565 -0.5058  0.7721
58440SOL    HW281926   2.865   8.131   4.355  3.1717  1.7827  0.4648
58441SOL     OW81927   7.165   8.698   3.657  0.0958 -0.5668  0.0527
58441SOL    HW181928   7.213   8.702   3.740 -0.2354 -0.4017  0.2365
58441SOL    HW281929   7.111   8.777   3.657 -1.1688 -1.3938  0.4543
58442SOL     OW81930  12.672   6.396   0.506  0.1044 -0.0837 -0.4170
58442SOL    HW181931  12.760   6.374   0.477 -0.3916 -1.1470 -1.1562
58442SOL    HW281932  12.621   6.403   0.426 -0.4812  0.6078 -0.0026
58443SOL     OW81933   9.211   5.166   4.445  0.2348 -0.2524  0.1101
58443SOL    HW181934   9.292   5.173   4.495 -0.6403  2.6356  1.3461
58443SOL    HW281935   9.144   5.141   4.509 -0.4241  0.8773 -0.0925
58444SOL     OW81936   1.096   5.200   7.308 -0.1385 -0.5699  0.4456
58444SOL    HW181937   1.007   5.221   7.280  0.2213 -1.3422 -1.4182
58444SOL    HW281938   1.094   5.107   7.330  0.4133 -0.8164 -0.5155
58445SOL     OW81939   0.639   2.262   6.987  0.0645  0.0552  0.3273
58445SOL    HW181940   0.546   2.248   7.009  0.5275 -1.7075  1.3385
58445SOL    HW281941   0.683   2.262   7.072  1.0662  0.3497 -0.1879
58446SOL     OW81942   2.336   0.971  10.858  0.0632  0.4088  0.2034
58446SOL    HW181943   2.274   1.039  10.883  0.1917  0.4672  0.3589
58446SOL    HW281944   2.398   1.015  10.799  0.5641  0.5975  0.8655
58447SOL     OW81945   8.193   9.056   3.508 -0.4284  0.0689  0.2095
58447SOL    HW181946   8.113   9.102   3.483 -0.8634  1.6478  3.9029
58447SOL    HW281947   8.260   9.091   3.449 -2.0298  0.0063 -1.7842
58448SOL     OW81948   5.999   3.626  10.819 -0.2281  0.0632 -0.6515
58448SOL    HW181949   5.967   3.702  10.771 -0.1481  0.3131 -0.3128
58448SOL    HW281950   6.014   3.560  10.752 -0.4561  0.2924 -0.9291
58449SOL     OW81951  10.037   1.640   4.503 -0.1922 -0.3749 -0.5299
58449SOL    HW181952  10.016   1.694   4.579 -1.1050 -1.7822  0.2744
58449SOL    HW281953  10.111   1.587   4.530  0.5444  0.2682 -1.2271
58450SOL     OW81954   8.457   0.634   3.346  0.2088 -0.2174  0.3634
58450SOL    HW181955   8.538   0.656   3.392 -0.4783  0.0836  1.4610
58450SOL    HW281956   8.392   0.622   3.415 -0.5751 -0.9767 -0.4695
58451SOL     OW81957   1.844  12.187   4.965  0.2196  0.2414 -0.7229
58451SOL    HW181958   1.936  12.203   4.985 -0.3888  1.1164  1.7317
58451SOL    HW281959   1.796  12.239   5.030 -2.0160 -0.2250 -1.9000
58452SOL     OW81960   6.919   2.423   9.780  0.1911  0.5808 -0.1198
58452SOL    HW181961   6.986   2.368   9.738  1.2195  1.0747  0.8215
58452SOL    HW281962   6.966   2.502   9.805 -0.8666  1.1350  0.1612
58453SOL     OW81963   3.054   0.822   7.201  0.5268 -0.3358 -0.2525
58453SOL    HW181964   2.965   0.787   7.190  0.1736 -0.0859  1.5147
58453SOL    HW281965   3.083   0.840   7.111 -0.8417 -1.2793 -0.9386
58454SOL     OW81966   4.065   4.161  11.820 -0.0108 -0.1987  0.8921
58454SOL    HW181967   4.022   4.164  11.906 -0.1524 -1.6263  0.9041
58454SOL    HW281968   4.085   4.068  11.807 -0.5543 -0.1078 -0.8923
58455SOL     OW81969   7.143   2.993   7.732  0.7025  0.3562 -0.1677
58455SOL    HW181970   7.162   2.965   7.642  3.5028  0.3634  0.3488
58455SOL    HW281971   7.228   2.992   7.776 -0.7244 -0.9085  2.8666
58456SOL     OW81972   0.272   4.239   8.297 -0.4308 -0.0340 -0.9804
58456SOL    HW181973   0.225   4.317   8.268  0.2202  1.0282  0.6585
58456SOL    HW281974   0.222   4.207   8.372  0.8783  0.5739  0.2099
58457SOL     OW81975   3.840   9.957   8.266  0.1160 -0.3558  0.0326
58457SOL    HW181976   3.913  10.001   8.223 -0.6072  0.2813 -0.5784
58457SOL    HW281977   3.881   9.899   8.330  1.2028 -0.6906 -0.9143
58458SOL     OW81978   5.644   4.784   3.193 -0.1095  0.5978 -0.2178
58458SOL    HW181979   5.667   4.728   3.267  0.1953 -1.7998 -1.9941
58458SOL    HW281980   5.548   4.780   3.189 -0.0480 -0.7877 -0.9805
58459SOL     OW81981   8.893   5.446   9.181  0.1913 -0.6119  0.4177
58459SOL    HW181982   8.880   5.463   9.275  0.0394 -0.0598  0.2982
58459SOL    HW281983   8.809   5.409   9.152 -0.8593  1.9884 -0.1301
58460SOL     OW81984   4.606   8.650   8.541 -0.1220  0.2022 -0.2808
58460SOL    HW181985   4.677   8.710   8.517 -0.0286 -0.1773 -0.9911
58460SOL    HW281986   4.533   8.677   8.485 -0.0422 -0.4144 -0.6969
58461SOL     OW81987   9.637   6.798   8.895  0.7222  0.3292 -0.2808
58461SOL    HW181988   9.559   6.742   8.888  0.5383  0.7165 -1.8938
58461SOL    HW281989   9.605   6.878   8.937  1.1446 -0.9608  2.7393
58462SOL     OW81990   1.618   7.165   9.908 -0.1972 -0.0708 -0.2705
58462SOL    HW181991   1.582   7.223   9.842  0.0797  1.2162  0.6834
58462SOL    HW281992   1.542   7.120   9.945 -0.7468  1.7081  0.8678
58463SOL     OW81993   2.706   7.093   8.230  0.4868  0.2130  0.1510
58463SOL    HW181994   2.787   7.062   8.270  0.1485 -1.3662 -0.3217
58463SOL    HW281995   2.645   7.101   8.303  0.6862  0.0840  0.3333
58464SOL     OW81996   5.322   2.644   1.767 -0.5214 -0.0528 -0.5944
58464SOL    HW181997   5.368   2.560   1.763 -1.4916 -0.5955 -0.7021
58464SOL    HW281998   5.379   2.701   1.819 -0.1790 -0.9986  0.0901
58465SOL     OW81999   8.953   8.481  11.019 -0.2183 -0.0844 -0.6346
58465SOL    HW182000   8.970   8.390  11.044  0.6967 -0.1705 -1.4771
58465SOL    HW282001   8.977   8.532  11.097 -0.6848 -0.5509 -0.1745
58466SOL     OW82002   4.558  11.866   2.566  0.5300  0.1804  0.0298
58466SOL    HW182003   4.579  11.959   2.573  0.0550  0.4339 -1.6098
58466SOL    HW282004   4.463  11.864   2.558  0.6957 -0.1815 -2.8627
58467SOL     OW82005   0.852   0.153   8.984  0.0598  0.4088  0.5187
58467SOL    HW182006   0.928   0.179   8.931 -0.6983 -0.1686 -0.9324
58467SOL    HW282007   0.871   0.063   9.010 -0.2653  0.1258 -0.1767
58468SOL     OW82008   2.126   8.209   5.333  0.0079 -0.4828  0.6169
58468SOL    HW182009   2.159   8.148   5.266  0.0444 -0.1946  0.3675
58468SOL    HW282010   2.191   8.205   5.403 -0.0731 -0.8491  0.6708
58469SOL     OW82011  11.818  10.220   4.218 -0.7174 -0.9956 -0.5396
58469SOL    HW182012  11.777  10.296   4.259 -0.4124 -0.2321 -1.6114
58469SOL    HW282013  11.910  10.228   4.240 -0.2252  0.4429 -2.8139
58470SOL     OW82014   4.695  11.897  10.267  0.2116 -0.1781  0.2764
58470SOL    HW182015   4.676  11.986  10.299  1.5245  0.7514 -1.3581
58470SOL    HW282016   4.658  11.895  10.179  1.7637 -0.6142 -0.3919
58471SOL     OW82017   4.548   1.960   3.358  0.4763  0.1175 -0.5952
58471SOL    HW182018   4.522   1.884   3.410 -0.7145  1.5372  1.0000
58471SOL    HW282019   4.609   2.008   3.414  3.2424 -0.8323 -2.5537
58472SOL     OW82020   2.376  11.850   1.346  0.1305  0.3896  0.4536
58472SOL    HW182021   2.406  11.853   1.255  1.1089 -1.4301  0.6648
58472SOL    HW282022   2.398  11.936   1.381  1.9718  0.3154 -0.4009
58473SOL     OW82023   6.449   6.505  10.101  0.2504 -0.3250  0.1006
58473SOL    HW182024   6.358   6.477  10.114  0.4545 -1.2221 -0.2960
58473SOL    HW282025   6.501   6.429  10.125  0.7568 -1.0213 -2.7610
58474SOL     OW82026  12.449   0.436   9.981  0.5039  0.0873  0.2658
58474SOL    HW182027  12.495   0.441  10.065  0.8613  1.1623  0.0105
58474SOL    HW282028  12.513   0.465   9.916 -0.2944  0.8741 -0.1832
58475SOL     OW82029  10.191   1.459   6.961 -0.4517  0.4644 -0.1091
58475SOL    HW182030  10.158   1.471   7.051 -1.7568 -2.8896  0.0060
58475SOL    HW282031  10.277   1.419   6.973 -0.4229  0.4562 -0.3504
58476SOL     OW82032   1.826   7.556   3.019  0.1235  0.2994 -0.1205
58476SOL    HW182033   1.738   7.574   2.986  0.2992  0.2671 -0.6053
58476SOL    HW282034   1.860   7.488   2.961 -0.1543 -0.9051  1.0804
58477SOL     OW82035   0.683   6.486   0.136  0.4160  0.0540 -0.6092
58477SOL    HW182036   0.661   6.403   0.179 -0.4274  0.0397 -1.0316
58477SOL    HW282037   0.605   6.540   0.149  0.8197  0.6501 -0.6591
58478SOL     OW82038   5.190   0.869   2.324  0.4812 -0.1187 -0.3532
58478SOL    HW182039   5.099   0.897   2.331  0.3329 -0.8747  1.1807
58478SOL    HW282040   5.186   0.775   2.310  1.0165 -0.3021  0.6007
58479SOL     OW82041  11.631   6.489   9.165  0.4350  1.1052  0.4115
58479SOL    HW182042  11.617   6.431   9.091 -0.0812  0.8623  0.6987
58479SOL    HW282043  11.721   6.521   9.153  0.6594  0.3973  0.1531
58480SOL     OW82044  10.299   0.862  11.277 -0.4770 -0.4234  0.3278
58480SOL    HW182045  10.204   0.867  11.286 -0.4468  0.1480  0.3696
58480SOL    HW282046  10.326   0.951  11.256  0.1025 -0.4644  0.8457
58481SOL     OW82047   9.166   1.555   4.785 -0.1337 -0.2395 -0.1036
58481SOL    HW182048   9.158   1.518   4.697  2.0173 -0.8754 -0.0942
58481SOL    HW282049   9.178   1.649   4.770  2.0377 -0.5487 -0.6742
58482SOL     OW82050   3.936  12.360   7.949 -0.0358  0.1147  0.2429
58482SOL    HW182051   3.966  12.270   7.960  1.7408  0.5617 -0.4828
58482SOL    HW282052   3.886  12.358   7.867 -1.3908 -0.4989  1.0591
58483SOL     OW82053   4.954   4.327   7.888 -0.4978 -0.1963 -0.2121
58483SOL    HW182054   4.936   4.236   7.910 -0.7479 -0.2398 -0.5811
58483SOL    HW282055   4.886   4.350   7.825 -0.0221  0.0379 -0.6452
58484SOL     OW82056   9.775   7.342   1.698  0.1818  0.0664  0.0013
58484SOL    HW182057   9.838   7.330   1.627  0.5156 -1.0269  0.4623
58484SOL    HW282058   9.736   7.256   1.712 -1.5413  0.7395 -0.3536
58485SOL     OW82059   6.053   0.679   0.688  0.2037 -0.3655  0.4913
58485SOL    HW182060   6.064   0.625   0.609  1.0551  0.5907 -0.0664
58485SOL    HW282061   6.141   0.713   0.706 -0.2956  0.7598  0.8765
58486SOL     OW82062   0.748   2.818   5.236  0.3689 -0.5698  0.4462
58486SOL    HW182063   0.801   2.804   5.314 -0.1525 -1.3963  0.6715
58486SOL    HW282064   0.671   2.763   5.250 -1.0665  1.3527  0.6222
58487SOL     OW82065   2.716   9.758   4.363 -0.3453  0.0988 -0.1574
58487SOL    HW182066   2.713   9.686   4.300 -0.9325 -0.3396  0.3664
58487SOL    HW282067   2.625   9.776   4.384 -0.1614  0.3810  0.4141
58488SOL     OW82068   2.212   3.045  12.073 -1.1146  0.2306 -0.0898
58488SOL    HW182069   2.266   3.058  11.995 -1.1849  2.0846  0.1393
58488SOL    HW282070   2.193   2.951  12.073 -1.6852  0.2833 -2.6816
58489SOL     OW82071   6.219   6.403   6.334  0.1479 -0.3450 -1.4472
58489SOL    HW182072   6.146   6.345   6.358 -1.2662  1.0497 -2.1753
58489SOL    HW282073   6.273   6.407   6.413 -0.0009 -2.1737 -1.1998
58490SOL     OW82074   0.499   7.708   2.959 -0.5926  0.1346 -0.4307
58490SOL    HW182075   0.514   7.643   3.027 -0.2972  0.6818  0.0473
58490SOL    HW282076   0.532   7.668   2.879  0.2588 -0.0301 -0.0089
58491SOL     OW82077   7.368   0.944   7.195  0.3201 -0.5873 -0.2716
58491SOL    HW182078   7.424   0.892   7.253 -0.1576  0.3180  1.0430
58491SOL    HW282079   7.381   0.904   7.109  0.4840 -2.4616  0.5534
58492SOL     OW82080  11.146   4.028   1.525 -0.0838 -0.2669  0.0846
58492SOL    HW182081  11.164   3.934   1.527 -2.0494 -0.7569  3.7938
58492SOL    HW282082  11.060   4.035   1.484  0.6203  0.1387 -1.3984
58493SOL     OW82083   0.020  12.395   4.955 -0.0473 -0.1601  0.1396
58493SOL    HW182084  -0.012  12.416   4.867  2.0095  0.7135 -0.4546
58493SOL    HW282085   0.115  12.406   4.950  0.0870  0.4667  2.6314
58494SOL     OW82086   5.412   6.291   0.492 -0.4358 -0.2390  0.2015
58494SOL    HW182087   5.364   6.288   0.576  0.0750 -2.0701  0.4618
58494SOL    HW282088   5.503   6.275   0.516 -0.3350 -1.1467 -0.7395
58495SOL     OW82089   0.588   0.544   1.015  0.2071  0.3879  0.2472
58495SOL    HW182090   0.607   0.510   0.927  1.2960  1.9869 -0.1863
58495SOL    HW282091   0.493   0.540   1.023  0.0872  0.3241 -1.0510
58496SOL     OW82092   9.786   4.178   3.520  0.4541 -0.1687 -0.2060
58496SOL    HW182093   9.730   4.210   3.449  1.1862 -0.6213 -1.0159
58496SOL    HW282094   9.740   4.102   3.555 -0.6868  0.9768  0.8947
58497SOL     OW82095  10.688   9.735  11.774  0.3816 -0.0786  0.9161
58497SOL    HW182096  10.718   9.789  11.847  0.7455 -0.4430  1.0378
58497SOL    HW282097  10.594   9.753  11.768  0.4195  0.2400  1.2302
58498SOL     OW82098   3.944  11.956   7.658 -0.0090  0.2455  0.1206
58498SOL    HW182099   3.940  11.860   7.658 -1.8226  0.2630 -1.2601
58498SOL    HW282100   3.985  11.977   7.574  1.2699  0.7046  0.8301
58499SOL     OW82101   9.319   2.430   2.287 -0.8745 -0.2015  0.4852
58499SOL    HW182102   9.330   2.510   2.337 -0.9035  0.5264 -0.6429
58499SOL    HW282103   9.406   2.412   2.251 -1.0900 -0.0855 -0.1127
58500SOL     OW82104   0.562  11.548   3.525 -0.1761  0.3226  0.0112
58500SOL    HW182105   0.571  11.515   3.436  0.9117  1.0767 -0.1787
58500SOL    HW282106   0.634  11.610   3.535  0.1540 -0.2750  1.6588
58501SOL     OW82107  12.270   8.550   3.087 -0.0243 -0.2083  0.1214
58501SOL    HW182108  12.251   8.538   2.994 -2.5342 -2.6437  0.8221
58501SOL    HW282109  12.331   8.624   3.090  1.3287 -1.0020 -3.5165
58502SOL     OW82110   8.949   5.580  12.206 -0.3649 -0.1120  0.1794
58502SOL    HW182111   8.857   5.573  12.181  0.2485 -0.3922 -2.2883
58502SOL    HW282112   8.989   5.500  12.172  0.7738 -0.0660  1.3404
58503SOL     OW82113   4.387  10.632   0.841  0.3960  0.3310 -0.1229
58503SOL    HW182114   4.397  10.720   0.804  1.6412  0.1390 -0.2955
58503SOL    HW282115   4.462  10.583   0.807  1.5232  0.0824  2.4697
58504SOL     OW82116  11.994   3.685  12.551  0.2217 -0.0618 -0.7113
58504SOL    HW182117  12.074   3.633  12.549  0.5069 -0.0086  2.9545
58504SOL    HW282118  12.013   3.761  12.496  2.5324 -0.2491 -0.2636
58505SOL     OW82119  11.530   3.328  12.376 -0.2266  0.1028  0.1796
58505SOL    HW182120  11.481   3.318  12.458 -1.4195  0.7798 -0.4242
58505SOL    HW282121  11.468   3.370  12.316  1.0395  0.8262 -0.6727
58506SOL     OW82122   4.396   7.021  12.336 -0.2857 -0.8518  0.0723
58506SOL    HW182123   4.444   7.089  12.288 -1.3541 -0.8093 -0.9732
58506SOL    HW282124   4.381   7.059  12.422  0.6977 -0.4827  0.0988
58507SOL     OW82125   3.078   3.271   6.327 -0.0108 -0.0391  0.1250
58507SOL    HW182126   2.996   3.226   6.345 -0.4680  0.8827  0.4190
58507SOL    HW282127   3.111   3.295   6.414 -0.6887  1.7634 -0.0835
58508SOL     OW82128   9.248  10.161   6.943  0.4741  0.2299 -0.0035
58508SOL    HW182129   9.332  10.207   6.943  1.4805 -1.3745 -2.1997
58508SOL    HW282130   9.266  10.080   6.895 -1.5258 -1.8315  2.4383
58509SOL     OW82131   5.778   6.069   1.518 -0.0981  0.1589  0.1497
58509SOL    HW182132   5.782   5.987   1.469 -1.0877  1.0068 -1.4238
58509SOL    HW282133   5.704   6.116   1.481  0.5550  1.8595  0.8828
58510SOL     OW82134   3.806  11.363   0.570 -0.1124  0.0120 -0.2506
58510SOL    HW182135   3.835  11.362   0.661 -1.0100 -1.1439  0.0451
58510SOL    HW282136   3.806  11.455   0.546  1.9119  0.2116  0.3236
58511SOL     OW82137   3.130   3.030  10.658  0.0119 -0.5565 -0.4121
58511SOL    HW182138   3.089   2.982  10.587 -0.5515  0.8743 -1.0914
58511SOL    HW282139   3.187   2.966  10.700  0.3485 -1.4518 -2.1366
58512SOL     OW82140   9.817   5.872  11.961 -0.4538  0.2479 -0.9721
58512SOL    HW182141   9.767   5.952  11.943 -2.0937 -0.2411  0.9913
58512SOL    HW282142   9.828   5.872  12.056 -1.0366 -2.1567 -0.8493
58513SOL     OW82143   1.516   0.173   9.320  0.1239  0.5905  0.5862
58513SOL    HW182144   1.445   0.165   9.383 -0.0375 -0.1944  0.3158
58513SOL    HW282145   1.560   0.255   9.343 -0.6411  0.8959  0.9820
58514SOL     OW82146   2.827   1.285   0.403 -0.1509  0.0366  0.0079
58514SOL    HW182147   2.875   1.221   0.351  0.0702 -0.6642  1.0584
58514SOL    HW282148   2.812   1.242   0.487 -0.5711  1.1207  0.5041
58515SOL     OW82149   3.495   2.048   1.342  0.2867  0.3670  0.5877
58515SOL    HW182150   3.468   1.962   1.375  1.9304 -0.4611 -0.1274
58515SOL    HW282151   3.423   2.074   1.285  0.8862 -1.8026 -1.3258
58516SOL     OW82152   4.373   1.126   7.233  0.1238 -0.6636  0.5562
58516SOL    HW182153   4.373   1.088   7.321 -1.3757 -0.4639  0.6749
58516SOL    HW282154   4.314   1.201   7.240  0.6385 -0.1488 -0.4260
58517SOL     OW82155   7.071   0.768  11.846  0.6581 -0.0235  0.1427
58517SOL    HW182156   7.097   0.845  11.795 -0.0156 -0.0747 -0.2844
58517SOL    HW282157   6.990   0.794  11.889 -0.1709 -0.8746 -0.8872
58518SOL     OW82158   5.475   1.887   9.329  0.1187  0.5301 -0.2223
58518SOL    HW182159   5.498   1.962   9.275  0.4631  0.6190  0.0437
58518SOL    HW282160   5.450   1.924   9.413  0.4348  0.3423 -0.0414
58519SOL     OW82161   7.821   0.309  11.412  0.0891 -0.3441 -0.1335
58519SOL    HW182162   7.883   0.311  11.485 -0.4407 -0.3649  0.3264
58519SOL    HW282163   7.812   0.401  11.385  1.0706 -0.4480 -0.8593
58520SOL     OW82164  10.594   4.812   7.254  0.0760 -0.4701  0.3161
58520SOL    HW182165  10.549   4.894   7.234  0.6352 -0.0942  0.5684
58520SOL    HW282166  10.528   4.756   7.294 -1.0289 -1.1231 -2.1929
58521SOL     OW82167  12.357   5.687   9.122 -0.4864 -0.3818  0.1065
58521SOL    HW182168  12.421   5.723   9.183 -0.5956  0.7342 -0.4248
58521SOL    HW282169  12.285   5.750   9.122 -1.7889 -1.7905  0.9882
58522SOL     OW82170  11.148   1.341   3.064 -0.4053 -0.7738 -0.1963
58522SOL    HW182171  11.179   1.358   2.975  0.9618 -0.2914  0.3454
58522SOL    HW282172  11.106   1.422   3.091  2.4376  0.4452  0.8853
58523SOL     OW82173   6.943   9.283  10.531  0.2610 -0.0135  0.8308
58523SOL    HW182174   6.890   9.311  10.456 -0.6033 -0.2120  1.3501
58523SOL    HW282175   6.905   9.329  10.606  0.4900 -0.5612  1.2947
58524SOL     OW82176   0.784   4.716   1.352 -0.2760  0.1814 -0.3018
58524SOL    HW182177   0.723   4.655   1.311  1.2284 -0.5773 -1.5009
58524SOL    HW282178   0.832   4.754   1.279  0.4146  1.0692  0.5921
58525SOL     OW82179   0.464  10.782   7.794  0.4009  0.2372 -0.3405
58525SOL    HW182180   0.398  10.721   7.763  1.3116 -0.4611 -0.9695
58525SOL    HW282181   0.530  10.727   7.837 -0.3561  1.0911  2.0417
58526SOL     OW82182  12.171   4.383   0.022  0.3091  0.5397 -0.2828
58526SOL    HW182183  12.119   4.308   0.049 -0.1782  1.7152  2.3226
58526SOL    HW282184  12.261   4.359   0.042 -0.0034  1.2223  2.2261
58527SOL     OW82185   3.288   2.060  12.110  0.3815  0.4264  0.1877
58527SOL    HW182186   3.321   1.971  12.120  0.5125  0.6024  1.6263
58527SOL    HW282187   3.213   2.065  12.169 -0.4575  0.8798 -0.8952
58528SOL     OW82188   1.244   5.064  10.371 -0.4520  0.0021 -0.6817
58528SOL    HW182189   1.313   5.128  10.386 -0.7022  0.5597 -1.8115
58528SOL    HW282190   1.224   5.029  10.458 -0.5060  1.6644  0.0014
58529SOL     OW82191   2.488   4.402   8.862  0.3462  0.3232  0.1285
58529SOL    HW182192   2.485   4.453   8.781 -0.2897 -0.3550 -0.2878
58529SOL    HW282193   2.512   4.313   8.834 -1.1785 -0.2328  0.4977
58530SOL     OW82194   7.762   9.640   9.599  0.3013 -0.1755 -0.2993
58530SOL    HW182195   7.704   9.715   9.612  1.1107  0.1556  1.6576
58530SOL    HW282196   7.706   9.564   9.614  0.0581  0.1023  0.2146
58531SOL     OW82197   2.318   7.055   9.861  0.3133 -0.2312  0.1110
58531SOL    HW182198   2.407   7.021   9.873 -0.3502 -1.3529  2.4029
58531SOL    HW282199   2.329   7.150   9.857  1.8169 -0.4068 -2.4383
58532SOL     OW82200   7.447   7.067  11.247  0.3600  0.2265  0.0322
58532SOL    HW182201   7.530   7.086  11.203  0.2391  1.2858  0.2438
58532SOL    HW282202   7.398   7.149  11.244 -0.2962 -0.1201  0.7495
58533SOL     OW82203   9.986  10.406   0.272 -0.6069  0.3282  0.1464
58533SOL    HW182204  10.082  10.402   0.271 -0.5897  0.2360  1.2779
58533SOL    HW282205   9.958  10.333   0.218 -0.0517 -0.9961  1.5911
58534SOL     OW82206  12.524   0.692   3.071  0.0069 -0.0328 -0.1433
58534SOL    HW182207  12.482   0.608   3.086  1.5063 -1.1424 -1.7001
58534SOL    HW282208  12.602   0.690   3.126  0.5186 -0.0711 -0.8544
58535SOL     OW82209   1.481   0.417   4.490 -0.1045  0.5340  0.3342
58535SOL    HW182210   1.451   0.508   4.492  2.0737  1.3732 -1.2139
58535SOL    HW282211   1.575   0.423   4.472  0.1647 -2.0344  0.4762
58536SOL     OW82212  11.316   7.940  12.504 -0.2838  0.3885 -0.6447
58536SOL    HW182213  11.328   7.971  12.594  1.4915  2.0145 -1.3723
58536SOL    HW282214  11.401   7.955  12.462  0.1808 -3.7902 -1.6516
58537SOL     OW82215  12.399  10.624   2.123  0.4682 -0.0885 -0.0608
58537SOL    HW182216  12.363  10.707   2.091 -2.3441 -0.4344  1.8087
58537SOL    HW282217  12.408  10.571   2.044  0.0909  1.2322 -1.0330
58538SOL     OW82218  12.553   1.863   7.520 -0.6679  0.1950  0.4683
58538SOL    HW182219  12.592   1.845   7.606 -1.6765 -0.3255  0.8360
58538SOL    HW282220  12.535   1.957   7.522  1.8277  0.7705 -0.2743
58539SOL     OW82221  10.978   1.364   5.014  0.3254  0.2235 -0.0283
58539SOL    HW182222  10.983   1.443   5.067 -1.9202 -0.5988  1.5469
58539SOL    HW282223  10.888   1.334   5.022  1.1857 -2.7832 -0.1313
58540SOL     OW82224   3.171   4.623   2.116 -0.4455 -0.4035  0.0986
58540SOL    HW182225   3.220   4.698   2.149 -0.9253 -0.4758  1.0209
58540SOL    HW282226   3.105   4.660   2.058  0.0156 -0.2164 -0.3136
58541SOL     OW82227   0.220   7.575  12.031  0.6518 -0.2065 -0.2523
58541SOL    HW182228   0.214   7.480  12.031  0.9422 -0.2293 -0.9470
58541SOL    HW282229   0.313   7.594  12.018  0.4566  0.1607 -1.2884
58542SOL     OW82230   7.062   6.719   4.101 -0.1037  0.9068  0.0352
58542SOL    HW182231   6.993   6.763   4.052 -3.5841 -0.6434  3.0316
58542SOL    HW282232   7.053   6.627   4.078  2.1481  0.8216 -0.6963
58543SOL     OW82233   1.616   1.421   1.011 -0.2019  0.1094  0.2359
58543SOL    HW182234   1.568   1.495   1.048 -1.6084 -0.8571  0.4034
58543SOL    HW282235   1.650   1.373   1.087 -0.2390 -0.0390  0.1583
58544SOL     OW82236   8.029  11.826   7.599 -0.3685  0.3733 -0.1319
58544SOL    HW182237   8.023  11.826   7.503 -0.0556  0.6565 -0.1535
58544SOL    HW282238   8.055  11.916   7.621 -0.1128  0.2204  0.1965
58545SOL     OW82239   9.444   4.760   9.697 -0.0138 -0.5812 -0.2797
58545SOL    HW182240   9.450   4.846   9.739 -1.0612 -1.3295  1.4757
58545SOL    HW282241   9.367   4.766   9.641  0.1840 -0.2459 -0.5208
58546SOL     OW82242   2.619   2.981   9.956 -0.1898  0.0382 -0.6060
58546SOL    HW182243   2.632   2.927  10.034  0.5771  0.1339 -0.6536
58546SOL    HW282244   2.546   3.038   9.977  0.4122  0.4986  0.2966
58547SOL     OW82245  10.299   4.882   3.518  0.2324 -0.2489  0.4445
58547SOL    HW182246  10.345   4.864   3.436  2.1624  0.0663  1.3937
58547SOL    HW282247  10.251   4.802   3.537  1.0311 -0.9064 -0.2122
58548SOL     OW82248   0.859   4.674   8.148  0.1345  0.0779  0.5282
58548SOL    HW182249   0.882   4.760   8.184  0.5685  0.9583 -1.7208
58548SOL    HW282250   0.765   4.677   8.136  0.3191  0.8428 -0.9229
58549SOL     OW82251   7.220   1.513   1.081  0.1028 -0.2255  0.6712
58549SOL    HW182252   7.271   1.499   1.160  0.0430  0.0539  0.7605
58549SOL    HW282253   7.129   1.512   1.111  0.0830  3.9697  1.3551
58550SOL     OW82254   4.995   3.637   4.934  0.1429  0.1206  0.0289
58550SOL    HW182255   5.012   3.698   4.863 -1.4873 -0.7818 -1.2010
58550SOL    HW282256   4.995   3.551   4.893  0.2681 -0.5225  1.3249
58551SOL     OW82257  10.781   3.280   1.086  0.1145  0.0030 -0.2845
58551SOL    HW182258  10.792   3.225   1.009 -1.1874 -2.4577  1.1698
58551SOL    HW282259  10.694   3.318   1.077  0.1913  0.1780 -0.2949
58552SOL     OW82260   1.217   8.370   0.980 -0.0185 -0.0748  0.5965
58552SOL    HW182261   1.136   8.377   1.031 -0.5736  0.3529 -0.3256
58552SOL    HW282262   1.286   8.366   1.046 -0.8387 -1.2398  1.4164
58553SOL     OW82263   6.267   6.717   5.059 -0.1982 -0.0695 -0.1963
58553SOL    HW182264   6.183   6.695   5.018  0.3106 -0.7830 -0.8831
58553SOL    HW282265   6.273   6.658   5.134  0.2805 -0.9762 -0.9201
58554SOL     OW82266   2.116  11.541  11.130  0.9019  0.0665  0.3484
58554SOL    HW182267   2.071  11.546  11.045 -0.5665  0.0093  1.0811
58554SOL    HW282268   2.138  11.448  11.139  2.7825  0.3484 -0.7715
58555SOL     OW82269   2.237   3.907   4.620 -0.5709  0.0262  0.7808
58555SOL    HW182270   2.203   3.930   4.534  1.3541 -1.1543 -0.3779
58555SOL    HW282271   2.166   3.858   4.662 -1.6839  0.9624  0.0433
58556SOL     OW82272   2.341  11.971   5.883 -0.1233  0.1246 -0.0463
58556SOL    HW182273   2.332  11.993   5.976 -0.1364 -1.8372  0.4717
58556SOL    HW282274   2.389  11.888   5.883 -0.5630 -0.1727 -1.7690
58557SOL     OW82275   1.790   4.630   5.131  0.0483 -0.9477  0.4265
58557SOL    HW182276   1.871   4.662   5.170  0.7440  0.6602 -2.1514
58557SOL    HW282277   1.750   4.707   5.091 -1.7068 -2.0932 -0.1222
58558SOL     OW82278   9.118   6.874   4.342  0.0698 -0.0974  0.4108
58558SOL    HW182279   9.094   6.791   4.301  2.1927 -0.9812  0.8274
58558SOL    HW282280   9.150   6.928   4.270 -1.1818  0.3502  0.1613
58559SOL     OW82281   5.351   1.491   8.603 -0.3578  0.0927  0.0754
58559SOL    HW182282   5.321   1.429   8.537  0.7915 -0.9442  0.4926
58559SOL    HW282283   5.277   1.499   8.664 -0.8727 -0.0981 -0.5087
58560SOL     OW82284   8.943  10.423  10.327 -0.0534  0.3087 -0.0679
58560SOL    HW182285   8.990  10.422  10.243 -0.9762  0.2694 -0.6027
58560SOL    HW282286   8.976  10.345  10.373  2.4961  1.7998  0.8127
58561SOL     OW82287   9.509   7.085  10.613  0.0629  0.0109 -0.0008
58561SOL    HW182288   9.414   7.084  10.616 -0.0328 -1.4329 -1.6926
58561SOL    HW282289   9.530   7.090  10.520  1.7121  3.5748  0.4043
58562SOL     OW82290   8.389   8.842   8.088 -0.7491 -0.1028  0.1975
58562SOL    HW182291   8.460   8.777   8.084  0.1412  0.8993 -0.7714
58562SOL    HW282292   8.339   8.828   8.007  1.3300  2.4253 -1.7057
58563SOL     OW82293   2.127   4.999   6.426  0.2080 -0.2822 -0.1043
58563SOL    HW182294   2.051   4.994   6.484 -1.9230 -1.7198 -2.7918
58563SOL    HW282295   2.091   5.029   6.342  2.1982 -2.9657 -2.0718
58564SOL     OW82296   6.402   7.772   8.192 -0.7659  0.4384  0.2239
58564SOL    HW182297   6.320   7.728   8.214 -1.0514 -1.2145 -3.4280
58564SOL    HW282298   6.471   7.717   8.230 -1.2705 -0.6521 -0.4104
58565SOL     OW82299   7.460   9.803   1.319  0.0836  0.9592 -0.2405
58565SOL    HW182300   7.478   9.739   1.250  0.2172  0.0752  0.5748
58565SOL    HW282301   7.391   9.762   1.372 -1.2810  2.3982 -0.8420
58566SOL     OW82302  11.291   1.208   1.018 -0.0561 -0.2571 -0.0269
58566SOL    HW182303  11.228   1.234   1.086  0.0974  0.4413 -0.1451
58566SOL    HW282304  11.279   1.114   1.009 -0.1776 -0.3379  0.8756
58567SOL     OW82305   6.577  11.092   1.162 -0.0996  0.3785 -0.0288
58567SOL    HW182306   6.625  11.009   1.160  1.2337  1.1308 -1.2456
58567SOL    HW282307   6.485  11.066   1.155  0.3619 -0.9959 -4.1200
58568SOL     OW82308   6.781   7.854   2.508  0.2307  0.2450  0.1578
58568SOL    HW182309   6.769   7.766   2.474  0.5477 -0.2474  1.2588
58568SOL    HW282310   6.700   7.900   2.486  0.2672 -0.1591 -0.8703
58569SOL     OW82311   0.878  10.169   8.913 -0.3872  0.1505  0.1399
58569SOL    HW182312   0.910  10.239   8.970 -0.3519 -0.0467  0.3651
58569SOL    HW282313   0.955  10.142   8.863  0.2061 -1.3837  1.7775
58570SOL     OW82314   7.394   7.553   2.146 -0.1956 -0.2814  0.1129
58570SOL    HW182315   7.426   7.595   2.226 -0.8542  1.0542 -0.2916
58570SOL    HW282316   7.431   7.606   2.075 -0.6331 -0.7014 -0.4363
58571SOL     OW82317   5.029   1.654   1.474  0.2344 -1.0336  0.3508
58571SOL    HW182318   5.090   1.632   1.545  0.7250 -0.8186  0.0029
58571SOL    HW282319   4.958   1.590   1.483 -0.0023 -0.6437  1.3964
58572SOL     OW82320  10.771   0.904   5.673 -0.2430  0.1293  0.4037
58572SOL    HW182321  10.683   0.913   5.707 -0.5161  0.5497 -0.3875
58572SOL    HW282322  10.797   0.992   5.647  1.3259  0.4536  2.7692
58573SOL     OW82323  10.332   3.487  10.955 -0.6056  0.0717  0.4475
58573SOL    HW182324  10.349   3.401  10.917 -2.4354  0.4507 -1.3702
58573SOL    HW282325  10.409   3.539  10.932 -0.5153 -0.4511 -0.4677
58574SOL     OW82326   1.060   7.199   6.208  0.1441  0.3653 -0.7075
58574SOL    HW182327   1.106   7.161   6.133 -1.1054 -0.2248 -1.2030
58574SOL    HW282328   0.967   7.188   6.187 -0.2282  1.3842  0.3340
58575SOL     OW82329  10.878  11.344   9.614  0.5088 -0.0110  0.5899
58575SOL    HW182330  10.826  11.320   9.691 -2.1795  0.1018 -1.0514
58575SOL    HW282331  10.847  11.432   9.592  1.8066  0.2652 -0.1875
58576SOL     OW82332   3.667  11.965   0.747  0.5615  0.0221  0.1533
58576SOL    HW182333   3.634  12.041   0.795  0.3638  0.4438 -0.6321
58576SOL    HW282334   3.589  11.924   0.711  0.7495  0.0560 -0.3013
58577SOL     OW82335   0.185   9.959   2.238  0.2507 -0.6669  0.1387
58577SOL    HW182336   0.198  10.006   2.320  0.4048  1.7281 -1.1728
58577SOL    HW282337   0.273   9.945   2.203  0.1300 -0.1806 -0.3854
58578SOL     OW82338   3.312   8.250   3.594  0.1205 -0.1933  0.1915
58578SOL    HW182339   3.343   8.236   3.504 -1.2204 -2.5142  0.0132
58578SOL    HW282340   3.383   8.216   3.649  0.1790 -0.4760 -0.0511
58579SOL     OW82341   5.015   7.045   4.726 -0.0050 -0.7034  0.0810
58579SOL    HW182342   5.111   7.041   4.729  0.1224  1.3781  0.8987
58579SOL    HW282343   4.986   6.960   4.758  1.5819 -0.9862  0.8770
58580SOL     OW82344  11.084   6.972   2.433  0.0765  0.6691  0.0490
58580SOL    HW182345  11.062   6.883   2.405 -1.4316  1.1529 -0.4125
58580SOL    HW282346  11.011   6.998   2.489  0.9759  1.2860  0.9580
58581SOL     OW82347   3.530   7.354   5.778  0.2750 -0.6069  0.4410
58581SOL    HW182348   3.586   7.387   5.708 -0.5563  0.9357  0.4650
58581SOL    HW282349   3.501   7.432   5.824 -1.1717 -1.4287  0.9848
58582SOL     OW82350   1.439   3.157   6.074  0.1715  0.2326  0.3817
58582SOL    HW182351   1.394   3.125   5.996  0.7711 -2.6857  1.1294
58582SOL    HW282352   1.373   3.210   6.120 -1.2007 -0.6590 -0.5106
58583SOL     OW82353   5.644  11.390  10.336 -0.3780  0.6795  0.5847
58583SOL    HW182354   5.561  11.434  10.359 -0.6203  0.2442  0.5591
58583SOL    HW282355   5.650  11.317  10.398  0.2746  1.0408  0.9587
58584SOL     OW82356   3.171  12.410  10.941 -0.2449 -0.0126  0.2821
58584SOL    HW182357   3.096  12.360  10.910 -0.7845  1.1599 -0.3642
58584SOL    HW282358   3.154  12.424  11.034  0.1938 -1.4848  0.6056
58585SOL     OW82359   6.638   3.499  11.190 -0.1286 -0.1086 -0.0760
58585SOL    HW182360   6.624   3.587  11.224  1.1777 -0.4077  1.3577
58585SOL    HW282361   6.603   3.441  11.258 -0.5006 -0.7213 -0.7692
58586SOL     OW82362   1.229   3.105   5.055 -0.0198 -0.2403  0.4787
58586SOL    HW182363   1.191   3.079   4.971  0.4548 -0.4412  0.3193
58586SOL    HW282364   1.225   3.025   5.109  1.3455 -0.6402  0.0238
58587SOL     OW82365   0.399   3.513   4.193 -0.2711 -0.4694  0.4067
58587SOL    HW182366   0.445   3.461   4.127 -1.3684 -0.4908 -0.3831
58587SOL    HW282367   0.459   3.585   4.213  0.3372 -0.8073 -0.1603
58588SOL     OW82368   6.347   4.183  11.913 -0.1035 -0.5701  0.3312
58588SOL    HW182369   6.290   4.123  11.960 -0.3740 -0.7661 -0.2352
58588SOL    HW282370   6.421   4.198  11.972 -1.2443  0.5503  1.5522
58589SOL     OW82371  11.010   7.871   2.978  0.2515 -0.0629  0.0759
58589SOL    HW182372  10.919   7.901   2.978  0.4787  0.6619  0.2297
58589SOL    HW282373  11.032   7.860   3.070 -0.1614 -1.8232 -0.0007
58590SOL     OW82374   4.944  10.087  11.777 -0.1264 -0.2514  0.0637
58590SOL    HW182375   4.955   9.992  11.769  0.8873 -0.1535  0.1843
58590SOL    HW282376   4.986  10.123  11.699 -2.2109  0.0250 -1.0071
58591SOL     OW82377   2.123  10.784   3.621  0.2727  0.1009 -0.0818
58591SOL    HW182378   2.140  10.876   3.599 -1.7643  0.3734 -0.7534
58591SOL    HW282379   2.156  10.735   3.546  1.5417  0.2448  0.3643
58592SOL     OW82380   1.952   2.078   4.638  0.0277  0.3897 -0.4572
58592SOL    HW182381   1.917   2.156   4.681 -0.5584  1.1722 -2.2537
58592SOL    HW282382   1.898   2.006   4.671 -1.7872  1.2621 -1.3947
58593SOL     OW82383   8.601   1.904   7.689 -0.1633 -0.3185 -0.2366
58593SOL    HW182384   8.588   1.879   7.597  0.9669 -1.5886 -0.0899
58593SOL    HW282385   8.613   1.820   7.734  0.2826  0.3523  0.9058
58594SOL     OW82386   8.185   8.688   3.009 -0.1141 -0.0150 -0.0481
58594SOL    HW182387   8.247   8.617   2.995 -2.1603 -1.8548 -0.2557
58594SOL    HW282388   8.182   8.734   2.925  1.2428  0.3960  0.0989
58595SOL     OW82389   4.202   7.870   5.150 -0.1017 -0.9255 -0.0342
58595SOL    HW182390   4.109   7.851   5.166 -0.8140  1.1343 -1.2933
58595SOL    HW282391   4.205   7.903   5.060  0.8955  3.9712  1.4605
58596SOL     OW82392   9.066   7.073   0.149  0.2221  0.2164 -0.4872
58596SOL    HW182393   9.046   6.994   0.099  0.0177 -0.0562  0.0231
58596SOL    HW282394   8.982   7.119   0.156  0.2295  0.2013 -0.3027
58597SOL     OW82395   4.509   6.646   2.976 -0.4204  0.6640 -0.5465
58597SOL    HW182396   4.428   6.680   3.015 -0.8557 -1.0708  0.1208
58597SOL    HW282397   4.492   6.649   2.881 -1.3427  0.1675 -0.4097
58598SOL     OW82398   9.895  12.678   0.133 -0.0356 -0.5839  0.3408
58598SOL    HW182399   9.806  12.671   0.167 -0.5231  0.3744 -0.6527
58598SOL    HW282400   9.949  12.697   0.209 -0.6855 -1.0807  0.9423
58599SOL     OW82401   6.051   9.996   9.008 -0.2369 -0.2115 -0.0686
58599SOL    HW182402   6.093  10.074   8.972 -1.0877 -0.3441 -1.4284
58599SOL    HW282403   5.980  10.030   9.062 -1.6705  0.0276 -1.9660
58600SOL     OW82404   8.652  12.229   7.229  0.3749  0.3336 -0.0784
58600SOL    HW182405   8.614  12.270   7.151 -0.0630 -0.2348 -0.1738
58600SOL    HW282406   8.704  12.298   7.270  0.7599  0.5989 -0.9745
58601SOL     OW82407   5.075   6.064  12.738 -0.2325 -0.2848 -0.1034
58601SOL    HW182408   5.154   6.065  12.791 -0.2938  0.7761  0.0022
58601SOL    HW282409   5.038   6.152  12.749  0.1118  0.2213 -2.4043
58602SOL     OW82410   1.283   9.948  10.982 -0.3622  0.0503 -0.0382
58602SOL    HW182411   1.372   9.955  10.947 -0.2127 -0.2194  0.2927
58602SOL    HW282412   1.275  10.022  11.042 -0.2328 -0.1387  0.2143
58603SOL     OW82413   6.014   7.966   4.066  0.1251 -0.0205  0.1785
58603SOL    HW182414   5.922   7.955   4.042  0.1378  0.6118 -0.1675
58603SOL    HW282415   6.034   7.887   4.117 -0.1324 -0.9640 -1.1351
58604SOL     OW82416   3.784   1.108   5.094  0.0263  0.5029  0.1865
58604SOL    HW182417   3.769   1.013   5.092  0.9434  0.3447  0.2630
58604SOL    HW282418   3.772   1.137   5.004 -1.2823  0.4960  0.3375
58605SOL     OW82419   0.739  12.105   3.786  0.2646  0.6560 -0.7940
58605SOL    HW182420   0.673  12.164   3.822 -0.4760 -0.6826  0.1567
58605SOL    HW282421   0.766  12.051   3.860  0.2109 -0.8309 -1.8113
58606SOL     OW82422   1.013   4.377   2.221  0.3713 -0.0792  0.2010
58606SOL    HW182423   1.066   4.456   2.224  2.3406 -1.3796  1.5933
58606SOL    HW282424   1.056   4.316   2.281 -1.0007 -2.2640 -0.8915
58607SOL     OW82425   5.850   7.471   6.685 -0.7735  0.2216  0.0170
58607SOL    HW182426   5.761   7.457   6.717 -0.0996 -0.4658  1.6656
58607SOL    HW282427   5.855   7.566   6.669 -1.4178  0.4585  1.1200
58608SOL     OW82428   6.119   9.331  12.382  0.0527 -0.8042  0.4559
58608SOL    HW182429   6.057   9.264  12.354  0.6788 -2.0597  1.9636
58608SOL    HW282430   6.078   9.373  12.457  0.4880 -0.7897  0.6911
58609SOL     OW82431   8.432   1.409  12.769 -0.2603  0.0276 -0.3942
58609SOL    HW182432   8.385   1.429  12.850 -0.0625  0.4611 -0.3796
58609SOL    HW282433   8.409   1.318  12.749  0.7757 -0.5573  0.9008
58610SOL     OW82434  10.526  11.822  12.574 -0.0247  0.1041 -0.3616
58610SOL    HW182435  10.589  11.859  12.636 -1.7191  1.3749  0.6599
58610SOL    HW282436  10.502  11.895  12.517 -2.1893  0.2689  0.6566
58611SOL     OW82437   1.344   3.001   4.332  0.1379 -0.3797 -0.2233
58611SOL    HW182438   1.321   2.919   4.288 -0.1101 -1.6343  2.1023
58611SOL    HW282439   1.280   3.010   4.402 -0.4164  2.3484 -0.9869
58612SOL     OW82440   3.126   1.105   5.467  0.5476 -0.0996  0.2681
58612SOL    HW182441   3.098   1.172   5.404 -0.4655 -1.2590 -0.5732
58612SOL    HW282442   3.133   1.025   5.415  3.0072 -0.4195  0.9964
58613SOL     OW82443   5.974   3.026   4.015  0.1521 -0.3909 -0.3233
58613SOL    HW182444   6.001   2.950   4.068  0.6357  0.5512  0.8217
58613SOL    HW282445   6.055   3.071   3.994 -0.2217  0.5344  0.1488
58614SOL     OW82446  12.334   4.776  10.003  0.2901 -0.5324 -0.3728
58614SOL    HW182447  12.419   4.756   9.964  0.9231 -1.0997  1.2017
58614SOL    HW282448  12.350   4.853  10.057  0.4075 -1.9144  1.6876
58615SOL     OW82449   0.314  12.501  10.849  0.3503 -0.1651 -0.4822
58615SOL    HW182450   0.328  12.415  10.811 -1.1153 -0.4940 -0.3658
58615SOL    HW282451   0.337  12.491  10.941  1.9901  0.0929 -0.8478
58616SOL     OW82452   0.714   8.530  11.854  0.1380 -0.0186  0.1137
58616SOL    HW182453   0.694   8.570  11.939  0.1523 -1.0709  0.6267
58616SOL    HW282454   0.728   8.605  11.795 -1.5913  0.7425  0.6076
58617SOL     OW82455   7.972   4.272   8.197 -0.3451 -0.2148 -0.5211
58617SOL    HW182456   7.894   4.328   8.193 -1.3878 -1.5549  0.1555
58617SOL    HW282457   7.978   4.245   8.288  2.7646  2.2839  0.1830
58618SOL     OW82458   7.296   8.804   0.060  0.0253  0.1313  0.4933
58618SOL    HW182459   7.349   8.724   0.059  0.5009  0.4436  0.4559
58618SOL    HW282460   7.210   8.775   0.032 -0.0849 -0.5620  1.4582
58619SOL     OW82461   2.729  11.673   7.643 -0.6266 -0.6380 -0.2450
58619SOL    HW182462   2.741  11.586   7.605 -1.0001 -0.2534 -1.2904
58619SOL    HW282463   2.754  11.663   7.735 -1.2010 -1.9722 -0.2079
58620SOL     OW82464  10.889   5.386  12.065 -0.2349 -0.2555  0.4665
58620SOL    HW182465  10.808   5.371  12.113 -0.0055  0.1732  0.9899
58620SOL    HW282466  10.871   5.462  12.011  0.1229  0.4330  1.2978
58621SOL     OW82467  12.085   6.243   1.081 -0.8228 -0.3417 -0.7564
58621SOL    HW182468  12.138   6.252   1.001 -0.8741  0.7347 -0.6891
58621SOL    HW282469  12.090   6.150   1.102 -0.2545 -0.5328 -1.6381
58622SOL     OW82470   6.340   8.958   0.118  0.9673 -0.4403 -0.0458
58622SOL    HW182471   6.376   8.870   0.104 -0.0433 -0.9598  0.5370
58622SOL    HW282472   6.270   8.966   0.054 -0.1008 -0.7524  1.0491
58623SOL     OW82473   9.834   5.889   8.382 -0.8171 -0.3675 -0.2248
58623SOL    HW182474   9.776   5.964   8.395  0.9820  1.1055 -0.2563
58623SOL    HW282475   9.895   5.917   8.313  1.2632 -0.9463  1.2660
58624SOL     OW82476  10.759   7.913   4.104  0.1566  0.4605  0.5416
58624SOL    HW182477  10.690   7.931   4.167  0.7979  0.4884  1.2534
58624SOL    HW282478  10.761   7.818   4.095 -0.3715  0.4909  0.0554
58625SOL     OW82479  12.172   1.686   6.467  0.2168 -0.2483  0.8236
58625SOL    HW182480  12.123   1.631   6.530 -1.7494  0.1337 -0.2802
58625SOL    HW282481  12.163   1.775   6.501 -1.3370  0.0335 -0.2221
58626SOL     OW82482   3.153   8.718   6.406  0.1840 -0.1923 -0.1654
58626SOL    HW182483   3.229   8.692   6.355  0.2528 -1.0656  0.3627
58626SOL    HW282484   3.137   8.644   6.464  0.0469  0.7386  1.0151
58627SOL     OW82485  12.532   2.533   0.826  1.0513  0.0931  0.4559
58627SOL    HW182486  12.560   2.529   0.734  1.0887 -0.2644  0.4819
58627SOL    HW282487  12.449   2.486   0.828  0.0497  1.7784  0.2440
58628SOL     OW82488  10.898   5.305   8.979  0.0913 -0.0879  0.2599
58628SOL    HW182489  10.930   5.225   8.939  0.2378  0.1186 -0.0462
58628SOL    HW282490  10.969   5.368   8.967 -0.4835  0.4292 -0.5865
58629SOL     OW82491   1.749  10.899   8.964  0.1732  0.4384  0.5328
58629SOL    HW182492   1.793  10.963   9.019  1.3772 -1.6853  2.1825
58629SOL    HW282493   1.794  10.904   8.880 -0.7345  2.7121  0.1048
58630SOL     OW82494   3.032   6.366   2.758  0.1284 -0.1763 -0.0779
58630SOL    HW182495   3.108   6.401   2.804 -0.3532  2.3912 -1.0569
58630SOL    HW282496   3.069   6.327   2.678  0.4224  3.1295 -1.7494
58631SOL     OW82497   9.525   6.255  10.990  0.1538  0.5662 -0.5867
58631SOL    HW182498   9.537   6.197  10.914 -1.7891 -0.6606 -0.0436
58631SOL    HW282499   9.448   6.308  10.967 -0.3070  0.3441  0.4052
58632SOL     OW82500   3.727  11.231   1.452 -0.0736 -0.4655  0.1656
58632SOL    HW182501   3.637  11.228   1.419  0.2303 -1.1986 -0.6590
58632SOL    HW282502   3.780  11.195   1.380  1.1035  1.6623 -0.1174
58633SOL     OW82503   4.833  11.271   2.422  0.1282  0.2766 -0.1067
58633SOL    HW182504   4.842  11.350   2.368 -2.1331  0.0971 -0.8510
58633SOL    HW282505   4.804  11.303   2.507 -0.4268  0.3026 -0.2984
58634SOL     OW82506   6.975   0.140  10.988  0.1948 -0.0115 -0.1946
58634SOL    HW182507   6.896   0.161  11.038  0.3828  0.2267 -0.0020
58634SOL    HW282508   7.044   0.132  11.054  0.5522  0.8116 -0.4599
58635SOL     OW82509   8.166   7.570   7.533 -0.6804  0.5355  0.3425
58635SOL    HW182510   8.214   7.627   7.473  0.3112  0.8918  1.4326
58635SOL    HW282511   8.094   7.534   7.480  0.2103  0.7551 -1.0640
58636SOL     OW82512  10.793   1.385   2.649 -0.1023  0.4906 -0.0656
58636SOL    HW182513  10.744   1.310   2.683 -0.6993  0.2757 -1.3322
58636SOL    HW282514  10.848   1.414   2.722  0.0857 -1.1324  0.4711
58637SOL     OW82515   7.363   5.285   5.138  0.1012 -0.4346 -0.8547
58637SOL    HW182516   7.313   5.363   5.112  0.6834  0.2744  0.0552
58637SOL    HW282517   7.326   5.260   5.223  1.0118 -0.1265 -0.3499
58638SOL     OW82518  12.084   2.812  10.746  0.4471  0.3375  0.0453
58638SOL    HW182519  12.122   2.897  10.727 -0.1631  1.3349  2.8555
58638SOL    HW282520  12.127   2.783  10.826 -0.5004 -1.2457  0.0318
58639SOL     OW82521   4.261   6.609   9.857 -0.1350  0.3788 -0.2656
58639SOL    HW182522   4.282   6.575   9.770 -0.1353  1.0746 -0.5503
58639SOL    HW282523   4.238   6.532   9.909 -1.4803  0.0854 -1.2590
58640SOL     OW82524   1.838  12.516   0.067 -0.2799  0.4882  0.2340
58640SOL    HW182525   1.840  12.579   0.139  4.2021  1.0218 -0.0330
58640SOL    HW282526   1.869  12.434   0.107 -2.6625 -0.6966 -0.1700
58641SOL     OW82527   2.029  12.782   3.857  0.1194 -0.3023  0.2463
58641SOL    HW182528   2.021  12.694   3.821 -0.2995  0.0971 -0.6867
58641SOL    HW282529   2.121  12.804   3.846 -0.2115  0.2670 -1.7638
58642SOL     OW82530   7.176   4.466   5.472 -0.9349 -0.2773  0.0503
58642SOL    HW182531   7.124   4.521   5.413  1.0257  0.9824 -0.5807
58642SOL    HW282532   7.125   4.464   5.553 -2.5736 -0.1619 -0.9242
58643SOL     OW82533  10.770  10.894   3.408 -0.3674 -0.2447 -0.1478
58643SOL    HW182534  10.752  10.804   3.380  1.1441 -1.9239  3.6296
58643SOL    HW282535  10.753  10.893   3.502  3.6421  2.2290  0.8042
58644SOL     OW82536   9.811   2.911   0.060  0.2985 -0.4973 -0.0409
58644SOL    HW182537   9.841   2.871  -0.022  0.7481  1.1282 -0.7042
58644SOL    HW282538   9.870   2.875   0.126  0.9921 -0.5643 -0.6833
58645SOL     OW82539   0.407  12.019   6.779  0.0853  0.4063  0.1703
58645SOL    HW182540   0.500  12.004   6.763  0.0653  0.4185  0.0396
58645SOL    HW282541   0.381  12.081   6.711 -0.3237 -0.6227 -0.6444
58646SOL     OW82542   9.986  12.552   0.770 -0.4772 -0.1474  0.0549
58646SOL    HW182543   9.901  12.572   0.810  0.2137  0.7414  1.1279
58646SOL    HW282544   9.996  12.619   0.702  0.2935  1.1388  1.3669
58647SOL     OW82545   4.314  10.516   0.100  0.3509  0.1517 -0.0319
58647SOL    HW182546   4.272  10.598   0.074  1.4142  0.3975 -1.0342
58647SOL    HW282547   4.363  10.539   0.178 -1.7644 -0.2768  1.5301
58648SOL     OW82548   4.958   5.485   7.702  0.1106 -0.4692  0.4044
58648SOL    HW182549   4.864   5.475   7.712  0.2669 -1.5504  0.8442
58648SOL    HW282550   4.977   5.571   7.740 -1.1589  1.4742 -2.9349
58649SOL     OW82551   7.693   6.390   8.944 -0.5617 -0.2676 -0.2680
58649SOL    HW182552   7.627   6.333   8.983 -0.1145  0.9437  2.5518
58649SOL    HW282553   7.695   6.466   9.002  0.7221  1.4024 -2.3868
58650SOL     OW82554   0.283   3.423   1.767 -0.1232  0.4436 -0.4490
58650SOL    HW182555   0.316   3.453   1.682  3.9397  0.9059  1.0400
58650SOL    HW282556   0.301   3.329   1.767  0.5650  0.5681  0.1119
58651SOL     OW82557   3.619   9.154  12.260  0.5678  0.0229  0.8383
58651SOL    HW182558   3.653   9.067  12.282  1.7799 -0.0170 -0.9283
58651SOL    HW282559   3.525   9.140  12.246  0.9340 -1.2932 -0.6023
58652SOL     OW82560  12.088  11.810   9.311 -0.6717  0.9432 -0.4258
58652SOL    HW182561  12.087  11.815   9.406  0.5791  2.3896 -0.4573
58652SOL    HW282562  12.163  11.863   9.284 -0.0941 -0.6257 -2.1604
58653SOL     OW82563   2.656   2.045  10.400  0.2688 -0.5215  0.3878
58653SOL    HW182564   2.572   2.091  10.408  1.0754  1.2106 -0.7761
58653SOL    HW282565   2.664   2.025  10.307  2.2134  1.5195  0.0306
58654SOL     OW82566  10.790   1.731   2.302 -0.0456  0.3809  0.1663
58654SOL    HW182567  10.759   1.677   2.375 -1.5273 -0.7713 -1.2659
58654SOL    HW282568  10.821   1.668   2.237  0.0375  1.3424 -0.7388
58655SOL     OW82569   2.436   8.997   7.691  0.4394 -0.2875  0.2085
58655SOL    HW182570   2.366   9.062   7.682  0.8267 -0.0166 -0.9548
58655SOL    HW282571   2.499   9.019   7.623 -0.4011 -3.1320 -1.6835
58656SOL     OW82572   9.141   1.281  11.532 -0.2238 -0.0908 -0.5037
58656SOL    HW182573   9.202   1.213  11.502 -0.0715  1.1802 -3.4149
58656SOL    HW282574   9.197   1.345  11.576  0.0798 -0.4691 -0.3378
58657SOL     OW82575   5.668   4.773  10.780 -0.3438  0.5515 -0.0626
58657SOL    HW182576   5.686   4.839  10.714 -0.9998  0.9605  0.1627
58657SOL    HW282577   5.651   4.693  10.731  1.8832  0.1604 -0.3046
58658SOL     OW82578   6.445   3.204   0.430  0.0503 -0.5384  0.1821
58658SOL    HW182579   6.461   3.221   0.337 -2.9387  0.1430 -0.3091
58658SOL    HW282580   6.413   3.114   0.433 -0.0101 -0.5082  0.5443
58659SOL     OW82581  10.899  12.747   6.924 -0.2214 -0.2326  0.0474
58659SOL    HW182582  10.851  12.669   6.895 -0.2096 -0.6622  1.1036
58659SOL    HW282583  10.836  12.818   6.918 -0.2426 -0.3256 -0.9021
58660SOL     OW82584   1.628   5.597  10.602 -0.2548  0.2289 -0.3030
58660SOL    HW182585   1.569   5.638  10.665  0.7892 -0.8195  1.4487
58660SOL    HW282586   1.654   5.515  10.644  2.6105  0.7382 -0.8791
58661SOL     OW82587  10.721   0.518   0.471 -0.4807  0.1245  0.6214
58661SOL    HW182588  10.670   0.442   0.499  0.1394 -0.9177 -0.9268
58661SOL    HW282589  10.663   0.565   0.412 -0.1636 -0.2741 -0.0143
58662SOL     OW82590   0.578  12.769   1.786 -0.0120  0.4491  0.3026
58662SOL    HW182591   0.632  12.797   1.860 -3.1405  0.7519  2.6970
58662SOL    HW282592   0.611  12.682   1.764  2.0992  1.0454  0.8405
58663SOL     OW82593   6.544   1.932   5.959 -0.7367 -0.2476 -0.2816
58663SOL    HW182594   6.529   1.928   6.054  0.3494  0.1648 -0.0817
58663SOL    HW282595   6.553   2.025   5.939 -0.7365 -0.3458 -0.7539
58664SOL     OW82596   7.413   8.333   7.012 -0.3132 -0.2085  0.0339
58664SOL    HW182597   7.468   8.409   7.029 -1.3581  0.1470  2.1637
58664SOL    HW282598   7.324   8.363   7.029 -0.7724 -1.8609  0.7884
58665SOL     OW82599   3.737   9.540   2.047  0.0008 -0.3744 -0.5495
58665SOL    HW182600   3.698   9.619   2.009 -1.4545 -1.7882 -2.2126
58665SOL    HW282601   3.670   9.472   2.036  0.6569 -1.5876  2.0492
58666SOL     OW82602   0.101   6.308  10.130  0.0453 -0.4589 -0.6969
58666SOL    HW182603   0.094   6.362  10.051 -0.4036  2.6979  1.3129
58666SOL    HW282604   0.184   6.334  10.169  0.6670 -2.5912 -0.4571
58667SOL     OW82605  10.007   4.953   3.774 -0.4269 -0.2428 -0.2273
58667SOL    HW182606   9.957   5.010   3.716 -0.8976 -1.1307 -0.6980
58667SOL    HW282607  10.083   5.006   3.799  0.1638 -0.0618 -2.2022
58668SOL     OW82608   0.509   9.921  12.268 -0.3448 -0.2147 -0.4568
58668SOL    HW182609   0.509   9.858  12.196  2.8953 -1.8829  0.7829
58668SOL    HW282610   0.573   9.987  12.242  0.1898 -0.3496  0.4554
58669SOL     OW82611   7.382   7.084   1.759 -0.7169  0.2184 -0.4147
58669SOL    HW182612   7.425   7.004   1.790 -0.4498  0.2525 -0.6909
58669SOL    HW282613   7.301   7.090   1.810 -1.1225 -0.6436 -0.9360
58670SOL     OW82614   1.113   8.975  10.780  0.4129  0.0373 -0.1033
58670SOL    HW182615   1.131   8.891  10.824  0.9167  1.3642  2.4088
58670SOL    HW282616   1.017   8.979  10.775  0.3959 -1.5572 -2.1593
58671SOL     OW82617   2.373  10.876   0.113  0.2366 -0.2014 -0.1613
58671SOL    HW182618   2.418  10.811   0.168  2.1889  2.6390  1.8824
58671SOL    HW282619   2.442  10.911   0.057 -0.4502  1.0712 -0.2358
58672SOL     OW82620   8.290  12.109   5.681 -0.3516  0.1601 -0.4773
58672SOL    HW182621   8.282  12.085   5.589 -0.9079  2.1086 -0.9872
58672SOL    HW282622   8.202  12.101   5.716 -0.6811  1.8748 -0.8146
58673SOL     OW82623   3.026   9.932   2.238  0.3359 -0.3933 -0.0796
58673SOL    HW182624   3.109   9.922   2.192  0.8867 -0.3788  0.8863
58673SOL    HW282625   2.966   9.967   2.172  0.9247 -0.9811 -0.9530
58674SOL     OW82626  11.275   3.152   9.680 -0.4307 -0.0018 -0.4532
58674SOL    HW182627  11.211   3.122   9.743  0.2380  1.1989  0.8555
58674SOL    HW282628  11.300   3.239   9.711  1.7716 -0.3968 -0.9399
58675SOL     OW82629   1.794   0.377   3.211 -0.4498  0.0185  0.5456
58675SOL    HW182630   1.785   0.294   3.165  0.1782  0.2832 -0.0828
58675SOL    HW282631   1.847   0.357   3.288 -3.1575 -0.8376  2.3427
58676SOL     OW82632  12.779   1.772   5.524  0.3438 -0.6272 -0.5145
58676SOL    HW182633  12.696   1.820   5.517  0.3069 -0.6694 -0.3572
58676SOL    HW282634  12.796   1.742   5.435  0.3108 -0.4159 -0.5924
58677SOL     OW82635   0.756   0.876   2.102  0.6688  0.5024 -0.4945
58677SOL    HW182636   0.772   0.806   2.166  1.2157 -0.5674 -1.7467
58677SOL    HW282637   0.818   0.944   2.125 -0.3015  0.9038  1.1507
58678SOL     OW82638   4.569   5.106  11.332  0.2217  0.0748 -0.1721
58678SOL    HW182639   4.502   5.149  11.384  0.9302  0.5361  0.3749
58678SOL    HW282640   4.549   5.013  11.339 -0.4118  0.2135 -0.0935
58679SOL     OW82641   1.716  11.087   9.737  0.3761  0.1349  0.1201
58679SOL    HW182642   1.743  11.116   9.650 -1.4090  0.7365 -0.2762
58679SOL    HW282643   1.796  11.093   9.790  0.9471  2.2192 -0.8665
58680SOL     OW82644   7.932   0.409   7.625  0.3922  0.1203 -0.2603
58680SOL    HW182645   7.965   0.362   7.549  1.4701  0.5134 -0.0560
58680SOL    HW282646   7.922   0.342   7.692  1.2384  0.0441 -0.1903
58681SOL     OW82647  12.747   9.834  11.138  0.1009  0.1803  0.4984
58681SOL    HW182648  12.816   9.810  11.200 -0.0020  1.2204  1.0301
58681SOL    HW282649  12.752   9.766  11.071  0.5236 -0.7087  1.3919
58682SOL     OW82650   6.845   8.934  12.519 -0.6578  0.0784  0.2151
58682SOL    HW182651   6.819   8.851  12.558 -1.1996 -0.2327 -0.7764
58682SOL    HW282652   6.922   8.913  12.466 -0.6691  0.2482  0.1304
58683SOL     OW82653   0.845   2.674   0.941 -0.3592  0.8150  0.1116
58683SOL    HW182654   0.917   2.737   0.945  0.8256 -0.5084  0.8179
58683SOL    HW282655   0.787   2.698   1.013  0.7859  0.3279  1.2294
58684SOL     OW82656   5.266   3.978   9.504 -0.4606  0.1799 -0.1526
58684SOL    HW182657   5.213   3.962   9.583  0.2182  0.6284  0.3984
58684SOL    HW282658   5.209   4.030   9.447 -1.1848 -0.6657 -0.2333
58685SOL     OW82659   9.970   6.365  12.373 -0.1700  0.1223 -0.2627
58685SOL    HW182660   9.874   6.356  12.371 -0.2788  0.4811  1.7585
58685SOL    HW282661  10.002   6.287  12.328 -1.3978 -0.0814 -0.8457
58686SOL     OW82662   8.578  10.871   9.427 -0.1970  0.1801  0.4287
58686SOL    HW182663   8.577  10.782   9.393 -1.2245  0.5825 -0.6859
58686SOL    HW282664   8.662  10.879   9.472  0.8279 -0.7269 -1.2001
58687SOL     OW82665   2.909  11.269   1.432 -0.5479  1.0323  0.0321
58687SOL    HW182666   2.917  11.174   1.441 -0.2818  1.0326 -0.1662
58687SOL    HW282667   2.817  11.284   1.412 -0.7061  0.8649  0.6402
58688SOL     OW82668  12.714   2.249   7.306 -0.2175  0.4403 -0.1331
58688SOL    HW182669  12.787   2.190   7.290 -2.6799 -3.4986  1.4921
58688SOL    HW282670  12.659   2.241   7.228 -1.3680 -0.9427  0.7515
58689SOL     OW82671  11.963  10.357   7.875  0.0017  0.4587 -0.3958
58689SOL    HW182672  11.867  10.353   7.867  0.0875  0.4283 -1.5247
58689SOL    HW282673  11.980  10.333   7.966 -1.1403  1.7524  0.1900
58690SOL     OW82674   8.023  12.307   9.821  0.2440  0.0123 -0.3762
58690SOL    HW182675   8.006  12.395   9.857 -2.1037 -0.4862 -0.0610
58690SOL    HW282676   8.104  12.279   9.863 -0.0669  1.2310  1.1580
58691SOL     OW82677  10.196  11.780   3.470  0.2848  0.0614 -0.1896
58691SOL    HW182678  10.181  11.688   3.449 -0.4352  0.2742 -0.6269
58691SOL    HW282679  10.109  11.819   3.472  0.1841  0.0325  3.4979
58692SOL     OW82680   4.686   7.135  10.377  0.2054  0.1365 -0.1989
58692SOL    HW182681   4.652   7.156  10.290  1.1606 -0.2928 -0.6822
58692SOL    HW282682   4.769   7.092  10.361  0.2621 -0.2006  0.9272
58693SOL     OW82683   0.720   2.620   6.436 -0.3661 -0.1684 -0.0513
58693SOL    HW182684   0.780   2.545   6.440 -0.4997 -0.3400 -0.8938
58693SOL    HW282685   0.778   2.697   6.442 -0.2895 -0.3199  1.4782
58694SOL     OW82686   0.407  10.006  12.639  0.0465 -0.2840  0.0893
58694SOL    HW182687   0.396   9.920  12.598 -0.9207 -1.1393  2.0436
58694SOL    HW282688   0.401   9.989  12.733  3.1500  1.4481  0.7344
58695SOL     OW82689   3.611  10.107   8.608 -0.1198 -0.1267  0.5265
58695SOL    HW182690   3.575  10.046   8.672  0.4667 -0.4448  0.5689
58695SOL    HW282691   3.703  10.116   8.633 -0.4173  1.5673  1.1251
58696SOL     OW82692  11.709  10.443   0.178 -0.2972 -0.3528  0.5690
58696SOL    HW182693  11.795  10.483   0.192 -0.0405 -0.2497 -1.0804
58696SOL    HW282694  11.719  10.353   0.210  0.4059 -0.3149  0.4754
58697SOL     OW82695   0.306   2.518   6.030 -0.7671  0.7173  0.1223
58697SOL    HW182696   0.365   2.589   6.055  0.3005 -0.2562  0.4658
58697SOL    HW282697   0.289   2.470   6.112 -0.8855  0.1528 -0.2232
58698SOL     OW82698  10.651   4.704   1.635  0.1580 -0.5876 -0.0050
58698SOL    HW182699  10.706   4.634   1.672 -1.0045 -0.9714  1.1011
58698SOL    HW282700  10.648   4.771   1.704 -0.3174 -0.3395 -0.2603
58699SOL     OW82701   3.479   2.305   7.036 -0.3122  0.1343  0.0737
58699SOL    HW182702   3.531   2.358   6.977 -0.1731  0.4489  0.4739
58699SOL    HW282703   3.434   2.368   7.092  0.8640 -0.1691  1.4108
58700SOL     OW82704   6.822   4.141   4.206 -0.2273 -0.2963  0.0886
58700SOL    HW182705   6.850   4.218   4.256 -1.7985  0.0959  0.4197
58700SOL    HW282706   6.841   4.164   4.115 -1.1423  0.7329  0.1295
58701SOL     OW82707   4.468   9.357   4.387 -0.3843 -0.6840  0.3717
58701SOL    HW182708   4.556   9.390   4.368 -0.9467  0.1603 -0.9412
58701SOL    HW282709   4.431   9.421   4.447 -1.4162  1.1526 -2.0470
58702SOL     OW82710  11.347   7.912   2.182  0.0158  0.2051 -0.0032
58702SOL    HW182711  11.388   7.990   2.145 -0.9700  0.1423 -1.3145
58702SOL    HW282712  11.253   7.926   2.169 -0.1506 -1.5270 -1.0170
58703SOL     OW82713  11.604   5.063  10.435  0.5824 -0.6054  0.3477
58703SOL    HW182714  11.583   5.010  10.359 -0.3268  0.0364  0.1341
58703SOL    HW282715  11.650   5.140  10.400 -2.2044  1.0563  0.0591
58704SOL     OW82716   4.049   9.239   9.091 -0.2927 -0.0320 -0.3396
58704SOL    HW182717   4.127   9.249   9.037  2.3257 -1.8115  2.7640
58704SOL    HW282718   4.031   9.327   9.124  0.3405  0.4165 -1.1516
58705SOL     OW82719  12.472   4.279   0.876 -0.5711  0.1319  0.2537
58705SOL    HW182720  12.448   4.215   0.809  0.0857 -0.3673  0.4775
58705SOL    HW282721  12.549   4.241   0.918 -0.6639  0.6900  0.9425
58706SOL     OW82722   4.074   9.968  10.584  0.1165 -0.0770  1.0304
58706SOL    HW182723   4.117   9.932  10.661 -0.6959  0.5886  1.8181
58706SOL    HW282724   4.146  10.006  10.532  0.7418 -1.1102  1.1110
58707SOL     OW82725   4.760   4.629   8.879 -0.1199 -0.6824 -0.1850
58707SOL    HW182726   4.760   4.715   8.922 -1.0978 -0.1866 -1.1244
58707SOL    HW282727   4.672   4.622   8.841 -0.4753 -2.6175  0.8767
58708SOL     OW82728   3.157   6.104  12.262 -0.2696 -0.0699 -0.5371
58708SOL    HW182729   3.224   6.036  12.272  0.0281 -0.0220 -2.0237
58708SOL    HW282730   3.116   6.086  12.178 -0.4227  1.3913 -0.7983
58709SOL     OW82731   2.020  10.780   6.084 -0.5525  0.2712  0.0655
58709SOL    HW182732   1.953  10.747   6.024 -0.1971 -1.3303  0.4777
58709SOL    HW282733   2.077  10.835   6.031 -1.5834  0.7889 -0.5187
58710SOL     OW82734   5.510   0.986   5.332 -0.4910  0.0076  0.1622
58710SOL    HW182735   5.591   0.998   5.282  0.6315 -0.8809  1.7028
58710SOL    HW282736   5.503   1.065   5.386 -0.9173  0.2885 -0.2905
58711SOL     OW82737   7.435   4.545  12.072  0.1823  0.0552 -0.2048
58711SOL    HW182738   7.477   4.587  12.147  1.0635 -0.2792 -0.5001
58711SOL    HW282739   7.438   4.611  12.003  0.5589 -0.0987 -0.3361
58712SOL     OW82740   6.379   5.799   0.239  0.4119  0.0934 -1.0113
58712SOL    HW182741   6.323   5.835   0.170  1.1998 -1.7821 -2.7197
58712SOL    HW282742   6.386   5.706   0.219  0.3334 -0.6580  1.8945
58713SOL     OW82743   1.479   4.456   2.080 -0.4069 -0.2981  0.0534
58713SOL    HW182744   1.410   4.428   2.021 -0.5606  0.3972 -0.1090
58713SOL    HW282745   1.434   4.505   2.149 -0.1077 -0.0497  0.0776
58714SOL     OW82746  11.851   6.492   4.993  0.2488 -0.3874  0.0272
58714SOL    HW182747  11.830   6.571   5.041 -0.5921 -0.7098  0.2010
58714SOL    HW282748  11.814   6.505   4.906 -1.9108 -1.4810  0.7132
58715SOL     OW82749   9.351   7.441  10.414  0.5672 -0.5909 -0.0288
58715SOL    HW182750   9.289   7.400  10.354  1.8002 -2.0243 -0.3936
58715SOL    HW282751   9.367   7.528  10.378  0.2334 -0.9233 -0.9987
58716SOL     OW82752   1.871   7.426   9.700  0.2086  0.8806  0.0787
58716SOL    HW182753   1.841   7.467   9.781 -2.9815  0.4309 -0.7285
58716SOL    HW282754   1.868   7.497   9.635 -2.5173  0.1397 -0.7056
58717SOL     OW82755  10.117   0.566   5.008  0.0845 -0.0311  0.2516
58717SOL    HW182756  10.060   0.640   4.989 -1.1741 -1.2740 -1.0021
58717SOL    HW282757  10.065   0.508   5.063  0.3721 -0.8623 -0.3319
58718SOL     OW82758   1.805   8.704   1.127 -0.7286  0.1839  0.4015
58718SOL    HW182759   1.733   8.644   1.108 -1.5944  1.3643 -0.1583
58718SOL    HW282760   1.852   8.662   1.200 -1.0860 -1.3239 -0.1876
58719SOL     OW82761   0.365   8.405   3.668 -0.0724 -0.1047  0.1109
58719SOL    HW182762   0.399   8.351   3.597 -1.0301  0.1856 -0.6025
58719SOL    HW282763   0.424   8.480   3.672  0.3178 -0.4039  0.0123
58720SOL     OW82764   4.003   1.863   1.641  0.3230  0.0705  0.6455
58720SOL    HW182765   4.097   1.861   1.659  0.0531  1.9269  2.6962
58720SOL    HW282766   3.996   1.883   1.547  2.0029  1.2748  0.7365
58721SOL     OW82767  12.708   7.877   7.399  0.1184 -0.0361  0.1401
58721SOL    HW182768  12.615   7.896   7.386 -0.1943 -1.8296 -0.3698
58721SOL    HW282769  12.745   7.878   7.311  0.3592 -0.4579  0.2373
58722SOL     OW82770  12.751   5.522   7.357  0.6903  0.8978  0.1879
58722SOL    HW182771  12.688   5.579   7.314  0.6008 -0.1568 -1.1616
58722SOL    HW282772  12.826   5.578   7.375  0.1322  1.7091  0.0317
58723SOL     OW82773   3.043  12.198   9.155  1.1956 -0.0730 -0.2109
58723SOL    HW182774   3.012  12.223   9.068  3.1418  0.9293 -0.6538
58723SOL    HW282775   2.976  12.137   9.187 -1.0135  1.6687 -1.2467
58724SOL     OW82776   5.039  12.346   7.088 -0.2701  0.0849 -0.0924
58724SOL    HW182777   5.121  12.308   7.058  0.2719 -0.9681  2.4488
58724SOL    HW282778   5.044  12.438   7.062  2.0466  0.2026  0.5871
58725SOL     OW82779  12.708  11.790   8.415 -0.0815 -0.1605  0.3547
58725SOL    HW182780  12.705  11.721   8.349  0.2633  0.3119 -0.1690
58725SOL    HW282781  12.750  11.864   8.370  0.5700  0.0259  1.2400
58726SOL     OW82782   0.006   6.207  12.105 -0.6157 -0.2763  0.1576
58726SOL    HW182783  -0.083   6.210  12.071 -0.4456 -1.0055 -0.3621
58726SOL    HW282784   0.058   6.167  12.035  0.2974  0.9721  0.0929
58727SOL     OW82785   0.485  12.557   7.780  0.0010  0.1375 -0.1387
58727SOL    HW182786   0.570  12.577   7.740  0.0321  1.2196  0.4166
58727SOL    HW282787   0.506  12.516   7.863 -0.0503 -0.9364 -0.6411
58728SOL     OW82788   2.738   2.272   7.860 -0.0186  0.4591 -0.1146
58728SOL    HW182789   2.674   2.317   7.806  0.1177 -1.2417 -1.8032
58728SOL    HW282790   2.732   2.315   7.945 -1.3513  2.2108 -1.0220
58729SOL     OW82791   5.199  11.397   8.523  0.3325 -0.1635 -0.2095
58729SOL    HW182792   5.142  11.406   8.446  0.0082  0.6371  0.1161
58729SOL    HW282793   5.267  11.336   8.495  0.6536  0.7038 -1.4031
58730SOL     OW82794   0.034  10.502   1.364 -0.9551 -0.0832 -0.1593
58730SOL    HW182795   0.028  10.439   1.292 -1.1394 -0.4609  0.1819
58730SOL    HW282796   0.046  10.587   1.321 -1.2697 -0.2793 -0.6400
58731SOL     OW82797   1.231   8.501   6.248  0.0289  0.0067  0.2211
58731SOL    HW182798   1.138   8.485   6.230 -0.3776  1.7592  0.5793
58731SOL    HW282799   1.262   8.550   6.172  0.6897 -0.5998  0.0894
58732SOL     OW82800   0.084   7.814   5.406 -0.0377 -0.5110  0.2056
58732SOL    HW182801   0.096   7.725   5.374  0.4697 -0.1796 -0.5278
58732SOL    HW282802   0.171   7.843   5.433  0.0175  0.1896 -0.6819
58733SOL     OW82803   4.062   1.809   0.196 -0.3118  0.6516 -0.4764
58733SOL    HW182804   4.097   1.858   0.271  0.2704 -1.0269  0.3885
58733SOL    HW282805   4.085   1.863   0.121  3.4958  0.1171  0.1013
58734SOL     OW82806   7.603   1.382   6.660  0.4962 -0.1744 -0.1939
58734SOL    HW182807   7.626   1.314   6.597  0.7022 -0.9074  0.6622
58734SOL    HW282808   7.555   1.447   6.608  0.7381 -0.7161 -1.1209
58735SOL     OW82809   7.491   9.795   7.565  0.2014  0.0372  0.3155
58735SOL    HW182810   7.474   9.864   7.501  2.8804  1.5595  1.1088
58735SOL    HW282811   7.426   9.811   7.634 -2.0375 -0.9966 -1.4040
58736SOL     OW82812  11.141   5.975   7.062 -0.1152 -0.1809 -0.3242
58736SOL    HW182813  11.127   6.067   7.041 -1.7476 -0.4895 -0.7043
58736SOL    HW282814  11.169   5.935   6.979  0.6146 -0.0329 -0.1541
58737SOL     OW82815   1.665  12.706   7.116  0.2486  0.0186 -0.8504
58737SOL    HW182816   1.569  12.704   7.109  0.1490  0.3736  0.2308
58737SOL    HW282817   1.696  12.683   7.029 -0.8228  2.5426 -1.9872
58738SOL     OW82818   0.978   7.069   8.719 -0.0086  0.0585  0.8759
58738SOL    HW182819   1.061   7.050   8.675 -0.9964 -2.0512 -0.2796
58738SOL    HW282820   0.998   7.062   8.812  1.2099  0.0065  0.6280
58739SOL     OW82821   8.802  12.146   8.692 -0.2203  0.0343 -0.1676
58739SOL    HW182822   8.836  12.205   8.760  0.5271 -0.9949  0.3713
58739SOL    HW282823   8.798  12.200   8.614  0.2274  0.8689  0.3677
58740SOL     OW82824   4.765   7.011   7.338  0.5905 -0.4657  0.0941
58740SOL    HW182825   4.808   6.948   7.280 -0.8045 -0.7967 -0.6338
58740SOL    HW282826   4.684   7.034   7.292  0.4420  0.8539  0.9690
58741SOL     OW82827   6.003   9.518   3.548  0.6659  0.0775  0.8327
58741SOL    HW182828   6.058   9.525   3.626  0.9709  1.2615  0.5324
58741SOL    HW282829   5.916   9.547   3.578  0.8439  0.7907  0.6908
58742SOL     OW82830   0.529   1.243  11.167  0.4235 -0.0411  0.4188
58742SOL    HW182831   0.512   1.171  11.228 -2.5711  0.8423  0.7843
58742SOL    HW282832   0.566   1.312  11.222 -1.6373  0.5095  1.2099
58743SOL     OW82833   8.224   1.888   2.427  0.1069 -0.1702  0.2390
58743SOL    HW182834   8.277   1.920   2.355  0.6273 -0.4256  0.5029
58743SOL    HW282835   8.257   1.799   2.444  1.8186  0.7841  2.5051
58744SOL     OW82836  11.708   1.609   8.301  0.0177  0.0646 -0.1779
58744SOL    HW182837  11.680   1.676   8.364 -0.9107  0.2229 -0.7325
58744SOL    HW282838  11.799   1.631   8.282  0.6175 -0.5013  1.7382
58745SOL     OW82839   6.290   0.642   9.458 -0.0850 -0.2585  0.5965
58745SOL    HW182840   6.242   0.615   9.380 -1.4726 -1.5406  1.8378
58745SOL    HW282841   6.352   0.708   9.427 -1.0219 -0.2957 -1.4644
58746SOL     OW82842   7.259   9.755   4.419  0.2787 -0.2777  0.4132
58746SOL    HW182843   7.322   9.824   4.443 -0.5824  0.1139  1.6303
58746SOL    HW282844   7.177   9.802   4.405  0.1942 -0.8109 -1.0010
58747SOL     OW82845   2.977   2.964   5.741 -0.1369  0.0316 -0.2561
58747SOL    HW182846   3.070   2.983   5.748 -0.7445  2.9033  2.1770
58747SOL    HW282847   2.958   2.904   5.813 -0.4099  0.8599  0.3823
58748SOL     OW82848  10.603  11.513  12.611 -0.8324 -0.4677  0.0771
58748SOL    HW182849  10.692  11.516  12.576  0.4998 -1.8498  2.9362
58748SOL    HW282850  10.589  11.600  12.648 -0.5723 -0.2897 -0.2393
58749SOL     OW82851  11.211   8.875   6.599 -0.0681  0.8058  0.5040
58749SOL    HW182852  11.132   8.879   6.545 -0.3550 -0.5149  0.7845
58749SOL    HW282853  11.183   8.904   6.686  0.0051  1.3323  0.3543
58750SOL     OW82854   8.212   2.811  11.601  0.3724  0.2991  0.1818
58750SOL    HW182855   8.265   2.845  11.673 -0.4396  1.3161  0.3184
58750SOL    HW282856   8.202   2.886  11.541  1.9893 -0.8024 -1.6151
58751SOL     OW82857   4.023   2.570   9.276 -0.4680  0.5243 -0.2741
58751SOL    HW182858   3.965   2.518   9.220  0.4775 -0.9484  0.0654
58751SOL    HW282859   4.072   2.626   9.215 -0.4623 -0.0333 -0.7850
58752SOL     OW82860   2.466   9.624   3.251 -0.2238 -0.2323  0.2128
58752SOL    HW182861   2.370   9.626   3.255 -0.3701  0.8956 -2.1726
58752SOL    HW282862   2.489   9.697   3.194  2.2158  0.7220  2.2455
58753SOL     OW82863   0.011   4.830   8.339  0.2194  0.2414  0.3227
58753SOL    HW182864  -0.012   4.782   8.259 -0.9416  0.7319  0.3460
58753SOL    HW282865  -0.073   4.860   8.374  0.8452  1.4331  0.8483
58754SOL     OW82866   9.695   8.171   6.328 -0.1929  0.1177  0.5972
58754SOL    HW182867   9.646   8.126   6.259 -1.1097  1.4935  0.3293
58754SOL    HW282868   9.655   8.257   6.334  1.4915  0.8997  1.1428
58755SOL     OW82869  11.048   1.890   3.692  0.2533  0.2358  0.1309
58755SOL    HW182870  11.005   1.888   3.778 -2.5127  1.6116 -1.0802
58755SOL    HW282871  11.074   1.981   3.681  0.3739  0.1204 -0.5834
58756SOL     OW82872  12.403   8.302   2.729  0.0450  0.4237 -0.0772
58756SOL    HW182873  12.404   8.395   2.705  1.4739 -0.0607 -2.2238
58756SOL    HW282874  12.311   8.283   2.748 -0.2074  2.3515  0.8661
58757SOL     OW82875   6.788  11.839   5.336 -0.3825  0.1074 -0.9795
58757SOL    HW182876   6.734  11.885   5.272 -1.7329 -3.0257 -2.3385
58757SOL    HW282877   6.725  11.790   5.389  0.9135  0.2026  0.7238
58758SOL     OW82878   2.793  10.549   9.056  0.0282  0.0457  0.4313
58758SOL    HW182879   2.784  10.603   9.134  1.1122 -0.9878  1.3286
58758SOL    HW282880   2.878  10.507   9.066  0.6801  0.6747 -1.8491
58759SOL     OW82881   8.562   8.942   7.642  0.1856  0.5567  0.2414
58759SOL    HW182882   8.568   8.856   7.600 -1.5496  0.4264  0.1790
58759SOL    HW282883   8.651   8.962   7.669  0.9912 -0.3353 -1.5784
58760SOL     OW82884   5.910   8.708  12.298 -0.1618  0.2913  0.0509
58760SOL    HW182885   5.934   8.633  12.243 -2.0034 -1.0678  0.9954
58760SOL    HW282886   5.854   8.762  12.241  0.6046  0.6044 -0.4142
58761SOL     OW82887   9.536  10.322   4.994 -0.3344 -0.2866 -0.5693
58761SOL    HW182888   9.489  10.259   4.939 -1.2544 -0.0978 -0.0108
58761SOL    HW282889   9.616  10.277   5.018 -0.3075 -0.6921 -1.3689
58762SOL     OW82890  10.542   6.857  12.263  0.0224  0.3222 -0.0684
58762SOL    HW182891  10.492   6.816  12.334 -0.0418  1.8432  0.7925
58762SOL    HW282892  10.633   6.834  12.282  0.0962  1.4015  1.0123
58763SOL     OW82893   6.932   2.347  11.950  0.5854 -0.2950 -0.0684
58763SOL    HW182894   7.012   2.370  11.904  0.7947  0.1844  0.5223
58763SOL    HW282895   6.961   2.298  12.027  0.3170  0.0111  0.2276
58764SOL     OW82896  12.275  12.656   6.442  0.0566 -0.1115  0.4496
58764SOL    HW182897  12.338  12.621   6.379 -0.8693 -1.0198  0.0108
58764SOL    HW282898  12.272  12.750   6.423  1.1585 -0.0778  0.3820
58765SOL     OW82899   3.943  12.064   7.918 -0.6504 -0.4260 -0.2330
58765SOL    HW182900   3.921  12.043   7.828 -1.7962  2.5311 -0.7518
58765SOL    HW282901   4.037  12.048   7.925 -0.1633  1.0421 -2.5515
58766SOL     OW82902   3.175   7.897  10.313  0.1213  0.1747 -0.5476
58766SOL    HW182903   3.111   7.900  10.243  1.9526  1.6366 -2.2752
58766SOL    HW282904   3.204   7.987  10.324 -0.7989  0.2206  2.8791
58767SOL     OW82905   2.330   0.973  11.162  0.4158  0.2089 -0.1951
58767SOL    HW182906   2.300   0.954  11.073 -0.7844 -1.5950  0.5399
58767SOL    HW282907   2.273   0.920  11.218  1.0563  1.4110  1.6666
58768SOL     OW82908   1.745   3.600   1.023 -0.2344 -0.1571 -0.5416
58768SOL    HW182909   1.769   3.638   0.939 -1.0538  1.7544  0.0514
58768SOL    HW282910   1.771   3.665   1.088 -0.7314 -1.0532  0.5931
58769SOL     OW82911   4.475   6.219   5.718 -0.5616  0.0279 -0.1822
58769SOL    HW182912   4.445   6.290   5.661  0.4703 -0.9749 -2.0861
58769SOL    HW282913   4.570   6.230   5.723 -0.4252 -0.9954 -0.2147
58770SOL     OW82914   2.104   4.463   8.074 -0.5139  0.0339  0.4670
58770SOL    HW182915   2.177   4.524   8.059  0.8251 -1.7194 -0.5984
58770SOL    HW282916   2.127   4.419   8.157 -1.4621  0.9129  1.2189
58771SOL     OW82917   6.265   7.439   0.065  0.4761 -0.9256 -0.1388
58771SOL    HW182918   6.195   7.441  -0.001  0.1805 -0.7167  0.1807
58771SOL    HW282919   6.258   7.523   0.110 -1.6662 -2.4473  2.6104
58772SOL     OW82920   1.345   9.310   6.994  0.0699  0.2699  0.2218
58772SOL    HW182921   1.365   9.237   7.053 -1.4357  1.3293  2.1895
58772SOL    HW282922   1.400   9.382   7.025  0.0214  0.5544 -0.3438
58773SOL     OW82923   9.293   6.510  11.151  0.2425  0.0081  0.1920
58773SOL    HW182924   9.289   6.506  11.246  0.2354 -0.4470  0.1768
58773SOL    HW282925   9.278   6.420  11.122  1.9535 -0.1907 -0.1887
58774SOL     OW82926   4.212  10.952   8.485 -0.1552 -0.4013 -0.2240
58774SOL    HW182927   4.210  10.959   8.580  0.3368  1.1045 -0.3040
58774SOL    HW282928   4.121  10.941   8.459 -0.2439 -1.3349  0.4338
58775SOL     OW82929   8.574   8.957   5.570 -0.4816  0.1457  0.5708
58775SOL    HW182930   8.667   8.938   5.556  0.0187  2.4624  0.2932
58775SOL    HW282931   8.549   9.010   5.494 -1.9232 -0.0834  0.8653
58776SOL     OW82932   8.688   3.112  12.520 -0.5743 -0.3802 -0.0587
58776SOL    HW182933   8.777   3.113  12.486 -0.3832 -1.5481  0.3513
58776SOL    HW282934   8.636   3.069  12.452 -1.1638  1.6712 -0.9894
58777SOL     OW82935   1.279   0.329  11.717  0.0782  0.2537  0.0687
58777SOL    HW182936   1.219   0.281  11.660  1.9123 -0.5962 -1.2405
58777SOL    HW282937   1.276   0.281  11.800  0.8666 -1.3988 -0.8047
58778SOL     OW82938   9.648   3.346  10.575  0.6393  0.3265 -0.2104
58778SOL    HW182939   9.692   3.332  10.659 -0.9983 -0.1488  0.6202
58778SOL    HW282940   9.571   3.289  10.579 -1.8994  3.4524 -0.1496
58779SOL     OW82941   6.194  11.955   5.238 -0.3191  0.5595 -0.5578
58779SOL    HW182942   6.153  11.878   5.277 -0.5051  0.8190 -0.2376
58779SOL    HW282943   6.177  12.025   5.300  3.1657  0.0899  1.1224
58780SOL     OW82944  10.595   0.940   7.899  0.0022 -0.2878 -0.1926
58780SOL    HW182945  10.507   0.915   7.871  0.0275 -1.7548  0.9076
58780SOL    HW282946  10.590   1.035   7.913 -0.9195 -0.0780 -1.7453
58781SOL     OW82947   4.568  11.426   3.430 -0.2101 -0.6290  0.6111
58781SOL    HW182948   4.488  11.378   3.408 -0.5247 -1.2378  2.8174
58781SOL    HW282949   4.546  11.472   3.511  0.3818  2.6210 -0.9043
58782SOL     OW82950   8.472   1.965   7.171 -0.0723  0.2606  0.3710
58782SOL    HW182951   8.387   1.999   7.145  0.4340  2.1240  0.9721
58782SOL    HW282952   8.486   1.998   7.260  2.3563  2.3498 -0.6442
58783SOL     OW82953   0.459   4.689   0.981 -0.5060  0.0626  1.0156
58783SOL    HW182954   0.401   4.750   0.935  0.6698  0.6807  0.3007
58783SOL    HW282955   0.533   4.743   1.008  2.0501 -1.4494 -2.2407
58784SOL     OW82956   5.754   8.062   1.796  0.1488  0.0566 -0.0554
58784SOL    HW182957   5.831   8.018   1.760  0.4502  0.3452  0.2332
58784SOL    HW282958   5.706   8.094   1.719  0.0688 -0.5306 -0.2561
58785SOL     OW82959   7.223  10.527  11.538 -0.2750 -0.1234  0.3817
58785SOL    HW182960   7.293  10.522  11.473  1.0178  0.6876  1.6477
58785SOL    HW282961   7.258  10.484  11.616 -1.9634 -1.4818  0.4406
58786SOL     OW82962  10.633   7.125  11.859 -0.1083  0.3806 -0.2363
58786SOL    HW182963  10.577   7.180  11.805 -1.3966 -1.8451 -1.3246
58786SOL    HW282964  10.718   7.125  11.814  0.5026  2.7957  0.7582
58787SOL     OW82965  11.493   8.055   0.401 -0.6090  0.0193 -0.6114
58787SOL    HW182966  11.440   8.128   0.434  0.8198  0.8333 -0.0199
58787SOL    HW282967  11.581   8.092   0.390 -0.3460 -1.0378 -2.4579
58788SOL     OW82968   1.981   5.452   1.741 -0.1183 -0.1211  0.3890
58788SOL    HW182969   1.947   5.368   1.708 -1.0537  0.4831 -0.2393
58788SOL    HW282970   1.908   5.513   1.728  0.6518  0.8469  0.5863
58789SOL     OW82971   7.692   1.105   8.347  0.0555  0.0756 -0.0039
58789SOL    HW182972   7.691   1.036   8.281 -0.9235  0.6225 -0.5939
58789SOL    HW282973   7.649   1.067   8.423 -0.4143  0.0127 -0.2998
58790SOL     OW82974   6.509  11.913  12.403 -0.3585  0.5974  0.0921
58790SOL    HW182975   6.439  11.947  12.348 -0.5206  0.8588  0.4489
58790SOL    HW282976   6.543  11.838  12.356  1.2137  2.2933 -1.6016
58791SOL     OW82977   4.386   9.307  10.295  0.1614 -0.0275 -0.1520
58791SOL    HW182978   4.447   9.319  10.222 -0.0121  0.6169 -0.1949
58791SOL    HW282979   4.420   9.231  10.342 -0.5979 -1.4300 -1.7875
58792SOL     OW82980  11.873   4.221   9.561 -0.2899  0.2642  0.2670
58792SOL    HW182981  11.928   4.275   9.617  1.8403 -0.0954 -1.3492
58792SOL    HW282982  11.929   4.148   9.534 -1.5142 -0.0924 -1.5250
58793SOL     OW82983   8.893   1.709   2.092 -0.1072  0.0392 -0.0873
58793SOL    HW182984   8.869   1.743   2.006 -0.9995 -1.0420 -0.2931
58793SOL    HW282985   8.853   1.622   2.095 -0.9433  0.4403  1.8030
58794SOL     OW82986   2.526  10.364  10.059  0.1957 -0.1181  0.0086
58794SOL    HW182987   2.481  10.297  10.007  1.0129  0.3936 -1.4025
58794SOL    HW282988   2.576  10.414   9.996 -1.6339  2.8962  0.7353
58795SOL     OW82989   9.078   3.478  10.954 -0.1060 -0.3927  1.1323
58795SOL    HW182990   9.122   3.532  10.889  0.8994 -0.7215  1.5214
58795SOL    HW282991   8.995   3.522  10.970 -0.5005 -0.4453 -0.5659
58796SOL     OW82992   4.478   2.221   8.876  0.3201  0.6283  0.2292
58796SOL    HW182993   4.440   2.184   8.956  2.2574  0.0876  0.9426
58796SOL    HW282994   4.482   2.315   8.893 -2.4204  0.9930 -0.6518
58797SOL     OW82995   1.406   4.556   9.322 -0.5254 -0.2934 -0.3650
58797SOL    HW182996   1.455   4.475   9.334  0.1056  0.3169  1.6297
58797SOL    HW282997   1.470   4.619   9.290 -0.2555  0.1739  1.0209
58798SOL     OW82998   0.904   2.899   0.676  0.5443 -0.5587  0.2127
58798SOL    HW182999   0.994   2.872   0.658  1.2819  1.0213  1.3158
58798SOL    HW283000   0.912   2.978   0.729 -1.4932 -1.0896  1.4480
58799SOL     OW83001   1.508   4.947   4.204 -0.3760 -0.0708 -0.7618
58799SOL    HW183002   1.588   4.927   4.155  0.2653  0.2545  0.1207
58799SOL    HW283003   1.537   4.955   4.295 -1.6330 -1.2201 -0.2325
58800SOL     OW83004  11.184  11.530  11.670  0.4833  0.0339  0.2651
58800SOL    HW183005  11.249  11.461  11.682  1.0700  0.5008 -0.1422
58800SOL    HW283006  11.235  11.606  11.642 -0.3244  0.1791 -0.8846
58801SOL     OW83007   9.104  11.999   5.382 -0.3542  0.0098 -0.5544
58801SOL    HW183008   9.057  12.048   5.314  0.8376  2.7838  0.4907
58801SOL    HW283009   9.065  12.029   5.464 -0.1016 -1.4526  0.1297
58802SOL     OW83010   3.500   9.857   7.441  0.0029  0.4579 -0.1325
58802SOL    HW183011   3.441   9.878   7.369 -0.2834 -0.1414 -0.0801
58802SOL    HW283012   3.448   9.870   7.520 -0.6675 -1.8001 -0.1347
58803SOL     OW83013  10.491   5.605   2.126  0.1803  0.0231 -0.0103
58803SOL    HW183014  10.584   5.587   2.133  0.2422 -0.5976 -1.7412
58803SOL    HW283015  10.449   5.533   2.174  0.5746  0.5854  1.2091
58804SOL     OW83016   0.180  12.165  11.383 -0.3257 -0.1824  0.0637
58804SOL    HW183017   0.253  12.209  11.426 -1.2998  0.9729  0.5951
58804SOL    HW283018   0.145  12.230  11.323 -1.5842 -0.3272  0.6020
58805SOL     OW83019   9.464  11.016   5.938  0.2704  0.7557 -0.4034
58805SOL    HW183020   9.377  10.990   5.969  1.2801 -3.0615 -0.1656
58805SOL    HW283021   9.477  10.964   5.859  3.1320 -0.6448  0.8517
58806SOL     OW83022  11.331   9.786   2.241  0.0963 -0.5011 -0.3875
58806SOL    HW183023  11.299   9.804   2.153 -0.9520  0.8886  0.2458
58806SOL    HW283024  11.415   9.741   2.227 -0.3125 -0.8247 -2.0767
58807SOL     OW83025   8.732  11.392   3.076  0.1589  0.1260 -0.3667
58807SOL    HW183026   8.659  11.346   3.033 -0.7328  0.3470  0.8723
58807SOL    HW283027   8.810  11.349   3.041 -0.5974 -1.1000 -0.6295
58808SOL     OW83028   4.733   7.381   4.164  0.0993 -0.1848  0.3710
58808SOL    HW183029   4.668   7.312   4.178  0.3553  0.0624  3.4957
58808SOL    HW283030   4.805   7.358   4.222  1.7606  0.9113 -1.1321
58809SOL     OW83031   1.251   4.915  10.872 -0.0308 -0.1311  0.1606
58809SOL    HW183032   1.226   4.884  10.785 -0.4844  2.0891 -0.5755
58809SOL    HW283033   1.174   4.900  10.927 -0.9143  1.2331 -0.6307
58810SOL     OW83034  12.333   6.290   0.603  0.4202 -0.1427 -0.2886
58810SOL    HW183035  12.406   6.229   0.615  0.6723  0.3598  0.8574
58810SOL    HW283036  12.375   6.376   0.596 -0.0261  0.0792 -0.2552
58811SOL     OW83037   7.067   1.084   1.920  0.5671  0.4999 -0.0609
58811SOL    HW183038   7.043   1.013   1.980  1.4359  1.6199  1.6774
58811SOL    HW283039   7.124   1.141   1.971  1.0715  1.7013 -1.8675
58812SOL     OW83040   1.556   1.925  11.221 -0.4653 -0.0367  0.0241
58812SOL    HW183041   1.551   1.839  11.265 -0.0020  0.3146  0.7927
58812SOL    HW283042   1.588   1.984  11.289  2.2403  0.1645 -1.2926
58813SOL     OW83043   7.580  10.822   2.552 -0.0311  0.3351  0.1402
58813SOL    HW183044   7.530  10.791   2.476  1.5516  1.2107 -1.3008
58813SOL    HW283045   7.662  10.773   2.548  0.4324  1.0464  0.7943
58814SOL     OW83046   9.390  11.443   6.516  0.4352  0.6716  0.1247
58814SOL    HW183047   9.485  11.439   6.519  0.4953  1.6721 -0.0680
58814SOL    HW283048   9.362  11.429   6.607  0.6589 -1.4454 -0.0942
58815SOL     OW83049   7.206   8.566   5.560  0.3587  0.4193 -0.0348
58815SOL    HW183050   7.294   8.581   5.596  0.9233 -0.2203 -1.0925
58815SOL    HW283051   7.171   8.653   5.544  0.8759  0.6809  0.2204
58816SOL     OW83052   2.014   6.947  12.294  0.2376  0.5826  0.5873
58816SOL    HW183053   1.996   6.959  12.201 -1.7403  0.2133  0.8598
58816SOL    HW283054   2.030   7.036  12.326  1.1598  0.6874 -0.1304
58817SOL     OW83055   2.033   6.411   6.983  0.1418 -0.5172 -0.2280
58817SOL    HW183056   2.063   6.344   6.922 -0.4556 -0.2893 -0.7788
58817SOL    HW283057   1.940   6.391   6.996  0.2723 -0.5922  0.6454
58818SOL     OW83058   9.941   5.412   3.991 -0.4365 -0.2522  0.1877
58818SOL    HW183059   9.886   5.398   3.914  1.4195  0.8441 -1.4434
58818SOL    HW283060   9.923   5.337   4.047 -1.3480 -1.4756 -1.6333
58819SOL     OW83061   4.589   8.756   2.580 -0.3510  0.8401  0.4477
58819SOL    HW183062   4.594   8.712   2.495  0.6954  0.1933  0.8303
58819SOL    HW283063   4.666   8.813   2.582 -1.4637  2.4122  0.1327
58820SOL     OW83064  12.392   5.619   5.894  0.0876 -0.1227 -0.1061
58820SOL    HW183065  12.385   5.548   5.830  0.5699  0.2932 -0.6319
58820SOL    HW283066  12.399   5.698   5.841  1.0190  0.1836  0.4410
58821SOL     OW83067  10.946   0.943  10.672  0.3232  0.1058 -0.0225
58821SOL    HW183068  10.966   0.978  10.585 -0.0232  0.9813  0.2294
58821SOL    HW283069  11.023   0.964  10.725  0.2647  0.1660  0.0404
58822SOL     OW83070   4.006   0.320   6.768  0.3677  0.2619 -0.0643
58822SOL    HW183071   4.086   0.336   6.718  0.3397 -1.4685 -0.7306
58822SOL    HW283072   3.956   0.258   6.715 -0.4984 -0.2295  1.2665
58823SOL     OW83073  10.606   6.635  11.238  0.3792 -0.1684  0.3109
58823SOL    HW183074  10.548   6.662  11.310 -2.2996 -0.0280 -1.7678
58823SOL    HW283075  10.547   6.603  11.170  2.7544  0.1790 -2.0748
58824SOL     OW83076  12.165  12.329   2.702  0.3332 -0.1485 -0.0352
58824SOL    HW183077  12.250  12.374   2.707  0.6806 -0.9336  1.9851
58824SOL    HW283078  12.187  12.236   2.699 -0.3920 -0.5204  3.0285
58825SOL     OW83079   6.997   2.035   8.163  0.1291 -0.3839 -0.2193
58825SOL    HW183080   6.909   2.006   8.188  0.9168 -2.6843  0.1423
58825SOL    HW283081   6.995   2.043   8.068 -0.3572 -0.8184 -0.2431
58826SOL     OW83082   3.013  11.022   6.034  0.4036  0.1332 -0.1532
58826SOL    HW183083   2.971  10.973   6.105  4.2386 -1.6672  1.1605
58826SOL    HW283084   3.050  11.099   6.077  4.1576 -1.7687  0.4626
58827SOL     OW83085   4.910   6.955   8.992  0.8555 -0.3283  0.0369
58827SOL    HW183086   4.943   6.873   9.028  0.7655 -0.2176  0.3727
58827SOL    HW283087   4.969   6.975   8.920  1.0162 -0.5684  0.1019
58828SOL     OW83088   0.380   7.053   7.797 -0.7253 -0.1923  0.6880
58828SOL    HW183089   0.335   6.975   7.829 -0.7868  0.0582  1.2034
58828SOL    HW283090   0.325   7.085   7.726 -1.1431 -0.1288  1.0402
58829SOL     OW83091   3.612  11.821   8.661 -0.1185  0.4011 -0.7403
58829SOL    HW183092   3.538  11.881   8.671  1.1896  2.0116 -0.1646
58829SOL    HW283093   3.589  11.744   8.712 -0.8154  1.4643  0.5871
58830SOL     OW83094   1.430   4.582   4.640 -0.3238  0.5077 -0.3747
58830SOL    HW183095   1.483   4.661   4.650 -0.8706  0.7172  1.2871
58830SOL    HW283096   1.451   4.530   4.718 -0.0837 -0.9354 -1.3661
58831SOL     OW83097  11.103   1.211   3.414  0.0816  0.4954 -0.1029
58831SOL    HW183098  11.110   1.306   3.423  0.4251  0.3887  0.7803
58831SOL    HW283099  11.174   1.176   3.467  1.0367 -0.2261 -1.7500
58832SOL     OW83100  10.962   6.168   3.880  0.2858  0.0865 -0.0676
58832SOL    HW183101  10.894   6.106   3.852  1.0166 -1.1576  0.8330
58832SOL    HW283102  11.044   6.130   3.847  0.7062  0.7806  0.1604
58833SOL     OW83103   8.687   3.066   5.568 -0.4374 -0.2751 -0.0176
58833SOL    HW183104   8.771   3.112   5.554 -1.7255  1.7901 -1.6405
58833SOL    HW283105   8.655   3.100   5.651 -0.4495  0.2729 -0.2392
58834SOL     OW83106   6.086   4.269   2.654  0.2449  0.0310  0.4747
58834SOL    HW183107   6.096   4.333   2.725 -0.8994  0.6253  0.1235
58834SOL    HW283108   6.141   4.303   2.583  1.9114 -0.9027  1.2630
58835SOL     OW83109   2.964  10.201   7.959  0.5426  0.0215 -0.5362
58835SOL    HW183110   2.960  10.293   7.985  1.0208  0.3724 -1.6377
58835SOL    HW283111   2.876  10.182   7.925  1.0713  0.7620 -2.4405
58836SOL     OW83112   2.206   5.453   1.555  0.2715 -0.3862  0.8117
58836SOL    HW183113   2.170   5.426   1.471  0.2592  1.3296  0.2220
58836SOL    HW283114   2.132   5.452   1.615 -0.2755  0.7979  0.1838
58837SOL     OW83115  11.409   5.158  12.435 -0.1073 -0.3060  0.0051
58837SOL    HW183116  11.416   5.179  12.342  1.3371  1.0564  0.3736
58837SOL    HW283117  11.421   5.063  12.439  0.8207 -0.2646 -1.1265
58838SOL     OW83118   7.577   7.034  12.409 -0.1813  0.2827 -0.0158
58838SOL    HW183119   7.668   7.015  12.386 -0.4683 -1.7542  0.3492
58838SOL    HW283120   7.530   7.031  12.325 -0.2164 -0.7676  0.0249
58839SOL     OW83121   6.226   9.838  11.924  0.3764 -0.2449  0.1960
58839SOL    HW183122   6.150   9.791  11.891 -0.1487  1.4936 -1.2055
58839SOL    HW283123   6.280   9.855  11.847  1.6829 -0.5059  1.0075
58840SOL     OW83124   4.616   3.050   0.244  0.1560  0.2785  0.2313
58840SOL    HW183125   4.707   3.032   0.268  0.2949 -0.1529 -0.5949
58840SOL    HW283126   4.621   3.124   0.184  0.0159 -0.0946 -0.2474
58841SOL     OW83127   0.988  11.217   6.534 -0.3332 -0.2019 -0.3789
58841SOL    HW183128   1.003  11.279   6.606 -0.2519 -1.9590  1.1990
58841SOL    HW283129   1.056  11.238   6.470 -0.8302  1.8646 -0.3179
58842SOL     OW83130   9.243   7.496  12.666 -0.1934  0.4404  0.0907
58842SOL    HW183131   9.245   7.419  12.724  3.0034 -0.2926 -0.7987
58842SOL    HW283132   9.211   7.567  12.722 -2.2486 -1.2635  1.2295
58843SOL     OW83133   0.174   3.319   0.146  0.5161 -0.3200 -0.4724
58843SOL    HW183134   0.249   3.314   0.086  0.6125 -0.1112 -0.3673
58843SOL    HW283135   0.115   3.382   0.104  0.3627 -0.5420 -0.5943
58844SOL     OW83136   9.227   4.278   7.600  0.3851 -0.2202  0.1636
58844SOL    HW183137   9.274   4.358   7.625  2.0483 -1.9063  2.8184
58844SOL    HW283138   9.191   4.245   7.682 -0.7713 -1.9549 -0.9766
58845SOL     OW83139   2.284   1.646  12.499 -0.0960  0.0186 -0.2402
58845SOL    HW183140   2.202   1.615  12.538 -0.5398  0.3298 -0.9129
58845SOL    HW283141   2.276   1.741  12.499  0.5799  0.0808  0.3521
58846SOL     OW83142   1.969   8.150   4.631  0.7630 -0.3662  0.3940
58846SOL    HW183143   1.929   8.236   4.616  0.9721 -0.0028  1.7218
58846SOL    HW283144   1.949   8.131   4.723  0.5110 -1.8691  0.0464
58847SOL     OW83145   2.365   5.066   9.889  0.5949  0.7129 -0.2865
58847SOL    HW183146   2.329   5.047   9.976  0.8898  2.7291  0.3365
58847SOL    HW283147   2.290   5.099   9.839  0.6395  0.5470 -0.4622
58848SOL     OW83148   0.824   3.200   7.271 -0.5018  0.1311 -0.0326
58848SOL    HW183149   0.799   3.289   7.293  0.9405  0.5550 -0.0196
58848SOL    HW283150   0.752   3.146   7.305 -0.7149  1.1664  1.2441
58849SOL     OW83151   6.220   8.869   4.847  0.5062  0.6481  0.7615
58849SOL    HW183152   6.247   8.955   4.880  1.7119  0.6392 -0.1707
58849SOL    HW283153   6.186   8.886   4.759  1.5592  0.0684  0.2272
58850SOL     OW83154   7.954   5.537   3.098 -0.4285 -0.3423  0.0139
58850SOL    HW183155   7.918   5.550   3.010 -1.0316  0.9748  0.4408
58850SOL    HW283156   7.947   5.622   3.140 -1.4004 -1.2597  1.7990
58851SOL     OW83157   4.683   5.433   5.225  0.6447  0.0275  0.0850
58851SOL    HW183158   4.737   5.440   5.304  0.5973  1.8649  0.0022
58851SOL    HW283159   4.741   5.399   5.158  1.0549 -0.2583  0.5825
58852SOL     OW83160  12.101   3.569   6.301 -0.2244  0.5904  0.0753
58852SOL    HW183161  12.052   3.555   6.382  1.7894 -0.5492  1.1768
58852SOL    HW283162  12.180   3.516   6.311  1.4707  2.6655 -1.3766
58853SOL     OW83163   0.152   4.480   3.264 -0.2380 -0.4733 -0.1577
58853SOL    HW183164   0.189   4.431   3.337 -1.1033 -1.1504 -0.1616
58853SOL    HW283165   0.160   4.572   3.290  1.1058 -0.6123 -0.0175
58854SOL     OW83166  11.953   0.368   4.053 -0.1986 -0.0767  0.3038
58854SOL    HW183167  11.941   0.291   4.108 -1.5214  0.7298  1.2080
58854SOL    HW283168  11.998   0.431   4.109 -1.2406  0.6284  0.3830
58855SOL     OW83169   5.972   5.853   4.714 -0.1790 -0.2605 -0.6729
58855SOL    HW183170   5.917   5.927   4.688  0.0044  0.2635  0.3870
58855SOL    HW283171   6.051   5.892   4.750 -0.2079 -0.9603  0.1808
58856SOL     OW83172  10.869   2.712   7.722  0.1654 -0.1154  0.2247
58856SOL    HW183173  10.956   2.746   7.743 -0.9441  3.5853 -0.3948
58856SOL    HW283174  10.869   2.703   7.626 -0.1876  0.1495  0.1964
58857SOL     OW83175   2.821   0.930  10.432  0.3383 -0.4761  0.3673
58857SOL    HW183176   2.876   0.872  10.484  0.1511  0.5148  1.7616
58857SOL    HW283177   2.765   0.974  10.497  1.8843  2.7919 -0.2755
58858SOL     OW83178   1.516   9.184   7.741  0.4764 -0.2271 -0.4156
58858SOL    HW183179   1.508   9.197   7.647  1.7838 -0.2682 -0.5521
58858SOL    HW283180   1.585   9.117   7.751 -1.5188 -2.2813  0.4946
58859SOL     OW83181   2.210   1.683   0.579 -0.4507  0.1454 -0.0206
58859SOL    HW183182   2.284   1.650   0.528 -0.6372  0.0657 -0.2459
58859SOL    HW283183   2.198   1.773   0.548 -0.7036  0.0245 -0.2801
58860SOL     OW83184   0.976  11.848   4.207 -0.0877 -0.0807  0.6658
58860SOL    HW183185   0.921  11.774   4.233  0.5102 -0.0879  1.9787
58860SOL    HW283186   0.939  11.877   4.124  0.1059 -2.2946 -0.2476
58861SOL     OW83187   3.186   9.834  11.789  0.7315  0.4484  0.6710
58861SOL    HW183188   3.271   9.790  11.795  1.0632  0.8059 -0.9413
58861SOL    HW283189   3.139   9.785  11.721  0.3989  1.4385  0.1724
58862SOL     OW83190  10.939   4.959   1.931  0.2467 -0.3211 -0.8146
58862SOL    HW183191  10.901   4.924   1.851 -1.3773 -0.2112 -0.1204
58862SOL    HW283192  10.893   4.914   2.002 -0.6701  1.8796  0.0824
58863SOL     OW83193   6.767   0.884  11.901 -0.2732  0.0871  0.3348
58863SOL    HW183194   6.674   0.873  11.918 -0.7294  0.8039 -1.4156
58863SOL    HW283195   6.781   0.979  11.907  0.2069  0.0390  0.0197
58864SOL     OW83196   8.296   9.383   8.002  0.0956  0.0379  0.0896
58864SOL    HW183197   8.328   9.424   8.083  0.1039 -1.8757  1.1021
58864SOL    HW283198   8.235   9.316   8.031  0.2447 -0.8286 -1.4893
58865SOL     OW83199   5.948  12.025   9.510  0.6036  0.1979 -0.6280
58865SOL    HW183200   5.957  11.935   9.541  0.2999  0.1094 -0.7962
58865SOL    HW283201   5.866  12.055   9.548  0.7174  0.4151 -0.5497
58866SOL     OW83202   2.784  10.844   2.310 -0.4548  0.6177  0.1656
58866SOL    HW183203   2.738  10.762   2.293 -0.7677  0.8984 -0.3756
58866SOL    HW283204   2.853  10.846   2.244 -0.7910  1.0489 -0.1782
58867SOL     OW83205   8.785   8.890   1.776 -0.0945 -0.4231  0.2185
58867SOL    HW183206   8.878   8.869   1.782 -0.5689 -2.5937  1.0815
58867SOL    HW283207   8.747   8.852   1.855 -1.8776 -0.5266 -0.6416
58868SOL     OW83208  11.734   7.421   7.380 -0.5481 -0.6112  0.0065
58868SOL    HW183209  11.787   7.494   7.350  0.5497 -2.0511 -1.7577
58868SOL    HW283210  11.713   7.442   7.471  1.0544  1.1178  0.0266
58869SOL     OW83211   4.432   0.710  10.231  0.4870  0.0450 -0.0699
58869SOL    HW183212   4.499   0.644  10.218  0.2000  0.1203 -2.5100
58869SOL    HW283213   4.356   0.677  10.183 -0.7077  0.7205  1.2561
58870SOL     OW83214   3.516   3.293  10.894  0.1909  0.0563  0.4466
58870SOL    HW183215   3.426   3.311  10.866  0.5084 -0.0132 -0.6563
58870SOL    HW283216   3.570   3.315  10.818  1.1269  0.2212  1.1406
58871SOL     OW83217   6.251   3.694   0.104 -0.0727  0.1911  0.6406
58871SOL    HW183218   6.220   3.700   0.194 -0.3654 -0.0059  0.5532
58871SOL    HW283219   6.199   3.624   0.064 -1.7868  1.9264 -0.3992
58872SOL     OW83220   3.590  12.146  11.686 -0.0888 -0.0701  0.0966
58872SOL    HW183221   3.649  12.166  11.759 -0.0709  1.5333 -0.3272
58872SOL    HW283222   3.633  12.182  11.609 -0.3317 -1.3343 -0.6520
58873SOL     OW83223   4.958  12.500   0.616 -0.3708  0.2505  0.0232
58873SOL    HW183224   4.984  12.419   0.659 -1.7727  0.1389  0.7181
58873SOL    HW283225   4.906  12.472   0.540  1.2820  0.4706 -1.2468
58874SOL     OW83226   2.052  11.502   4.063  0.0702  0.1820 -0.1453
58874SOL    HW183227   1.981  11.462   4.013  0.5845 -1.7856  0.5999
58874SOL    HW283228   2.129  11.449   4.041  0.6954  0.4954  1.2196
58875SOL     OW83229  11.520   7.770   0.927 -0.6709  0.0762 -0.1454
58875SOL    HW183230  11.571   7.739   1.002 -0.7407  0.6588  0.1424
58875SOL    HW283231  11.434   7.792   0.964 -0.0976  2.2962  0.0024
58876SOL     OW83232   5.462  10.268   2.391  0.4009 -0.4004 -0.7820
58876SOL    HW183233   5.369  10.284   2.373 -0.2588 -1.5758  1.1981
58876SOL    HW283234   5.496  10.229   2.310 -0.4503  1.2940 -2.0120
58877SOL     OW83235   0.487   2.563   1.007  0.0749 -0.2515  0.3469
58877SOL    HW183236   0.481   2.657   0.991  0.3468 -0.0850  1.1595
58877SOL    HW283237   0.500   2.524   0.920 -1.6983  0.3042 -0.1975
58878SOL     OW83238   1.502  10.413  11.900 -0.1783 -0.3960  0.2399
58878SOL    HW183239   1.462  10.438  11.983  0.9141 -1.3798  1.0988
58878SOL    HW283240   1.453  10.336  11.872 -1.6226  0.8692 -0.9133
58879SOL     OW83241  10.576   9.474   2.280 -0.7091 -0.0284 -0.8323
58879SOL    HW183242  10.538   9.505   2.198 -1.3657  0.1796 -0.4609
58879SOL    HW283243  10.628   9.548   2.313 -3.1086  1.1599  0.5752
58880SOL     OW83244  10.743  11.755  11.453  0.2850 -0.0085 -0.5830
58880SOL    HW183245  10.776  11.805  11.379  0.3394  0.1428 -0.4585
58880SOL    HW283246  10.820  11.739  11.508 -0.0374  1.5522  0.4173
58881SOL     OW83247   3.391   1.850   4.340  0.0635 -0.0222  0.4561
58881SOL    HW183248   3.463   1.913   4.341 -0.0429  0.0948  1.0386
58881SOL    HW283249   3.381   1.827   4.248  1.9694 -1.3363  0.5163
58882SOL     OW83250  12.358   5.388   9.826 -0.8274  0.3039 -0.1814
58882SOL    HW183251  12.263   5.384   9.816 -0.7309  0.1915 -1.1334
58882SOL    HW283252  12.372   5.378   9.920 -1.8783  2.8347  0.3361
58883SOL     OW83253   4.040  11.263   6.676 -0.1662  0.5536 -0.1790
58883SOL    HW183254   4.046  11.292   6.585 -4.7191  1.1576 -0.4892
58883SOL    HW283255   3.969  11.200   6.677 -0.1819  0.4489  2.9512
58884SOL     OW83256   9.206  12.762   5.847  0.1949 -0.5453 -0.5232
58884SOL    HW183257   9.157  12.836   5.809 -1.6810 -1.4545 -0.0072
58884SOL    HW283258   9.176  12.686   5.797 -1.0958 -1.5377  1.6282
58885SOL     OW83259   1.533  10.952   8.627 -0.7634  0.1729  0.1688
58885SOL    HW183260   1.580  10.992   8.701  1.0154 -0.1397 -0.7387
58885SOL    HW283261   1.548  10.858   8.638  0.4603  0.1858 -1.1594
58886SOL     OW83262   3.363  12.164   3.653  0.0368  0.1060  0.0608
58886SOL    HW183263   3.436  12.104   3.638  0.3232  0.2666  0.8038
58886SOL    HW283264   3.404  12.244   3.685 -0.4763  0.1714  0.5533
58887SOL     OW83265  11.882   7.202   4.079 -0.1577 -0.5794 -0.2431
58887SOL    HW183266  11.964   7.157   4.099 -0.0855  0.0521  1.0020
58887SOL    HW283267  11.823   7.132   4.050  1.2940 -0.8060 -2.9395
58888SOL     OW83268   9.444   7.482   2.930  0.3262  0.3980 -0.4262
58888SOL    HW183269   9.410   7.553   2.984 -0.1108 -1.1582  1.4596
58888SOL    HW283270   9.368   7.452   2.880 -0.1418 -0.3575  0.6877
58889SOL     OW83271  11.994   8.924   0.223  0.2609  0.1745 -0.0772
58889SOL    HW183272  11.979   8.836   0.189  0.1145  0.0283  0.3625
58889SOL    HW283273  11.907   8.959   0.239  0.3138 -0.5391  2.1221
58890SOL     OW83274   0.329   2.926   1.006  0.5247  0.0472 -0.1888
58890SOL    HW183275   0.309   3.006   1.054  1.7249 -0.6203  1.5450
58890SOL    HW283276   0.289   2.938   0.920 -0.8202  1.7516  0.6263
58891SOL     OW83277   8.016  12.714   0.629  0.2357 -0.2587  0.6312
58891SOL    HW183278   7.948  12.780   0.642  0.9018  0.3155  1.3486
58891SOL    HW283279   8.074  12.752   0.563  1.9873  1.0576  2.7817
58892SOL     OW83280   8.005   0.295   8.950 -0.0903  0.3264  0.0512
58892SOL    HW183281   8.031   0.383   8.922 -0.6578  0.1314 -1.1535
58892SOL    HW283282   7.918   0.283   8.914  0.7135 -1.4360 -1.4861
58893SOL     OW83283  11.299  10.388   2.608 -0.1343 -0.7679 -0.2691
58893SOL    HW183284  11.287  10.315   2.669 -0.8607 -1.7292 -1.5164
58893SOL    HW283285  11.375  10.363   2.556 -0.0436 -0.3738 -0.3231
58894SOL     OW83286   7.017   6.826  12.005  0.3573  0.2301 -0.7098
58894SOL    HW183287   6.992   6.808  12.095  0.4755 -0.7386 -0.8620
58894SOL    HW283288   7.072   6.752  11.980  2.1473  1.5374 -0.8744
58895SOL     OW83289   0.323   5.812  11.645  0.5552  0.7804  0.0853
58895SOL    HW183290   0.335   5.741  11.707  1.2879 -0.3955 -1.3463
58895SOL    HW283291   0.365   5.782  11.564 -1.1374  1.8694 -1.2797
58896SOL     OW83292  10.473  11.797  11.481  0.7841 -0.2892 -0.0417
58896SOL    HW183293  10.494  11.865  11.545 -1.5979  0.4397  0.0799
58896SOL    HW283294  10.555  11.781  11.434  1.5180  2.3468  0.2103
58897SOL     OW83295  12.387   2.810   7.389 -0.6821 -0.2460  0.3213
58897SOL    HW183296  12.396   2.843   7.300 -0.8491  2.4819  1.2263
58897SOL    HW283297  12.294   2.818   7.409 -0.6054 -0.5872  0.8483
58898SOL     OW83298   2.884   8.983   1.906 -0.1498  0.5352 -0.1212
58898SOL    HW183299   2.937   8.903   1.902 -1.9508 -0.7095 -0.4690
58898SOL    HW283300   2.864   8.994   1.999 -2.1412 -1.0399 -0.3011
58899SOL     OW83301   8.323   1.462   9.681  0.0577  0.8909  0.6758
58899SOL    HW183302   8.294   1.376   9.711 -1.4890  1.4990  1.0315
58899SOL    HW283303   8.296   1.522   9.751 -1.6862  2.0525 -0.8884
58900SOL     OW83304   4.927   2.312   5.009 -0.1273  0.3388  0.1235
58900SOL    HW183305   4.984   2.388   5.017 -1.0531  0.8648  2.2408
58900SOL    HW283306   4.843   2.340   5.043 -0.1244 -1.9837  2.4072
58901SOL     OW83307   0.223   8.913   1.332 -0.0606  0.0532 -0.3288
58901SOL    HW183308   0.272   8.995   1.328  0.9355 -0.5219 -0.2898
58901SOL    HW283309   0.167   8.915   1.255 -1.4594  1.6188  0.6693
58902SOL     OW83310   4.049   9.218   7.999  0.1536 -0.4732  0.0897
58902SOL    HW183311   3.987   9.288   8.023 -0.2864 -1.0253  0.6080
58902SOL    HW283312   4.107   9.258   7.935  0.5306  0.6776  1.1128
58903SOL     OW83313   6.293   0.901   0.305 -0.5724  0.1461 -0.5861
58903SOL    HW183314   6.365   0.838   0.315  0.0277  1.0032  0.8359
58903SOL    HW283315   6.241   0.867   0.232  1.5424 -0.2506 -2.0225
58904SOL     OW83316  12.474   9.578  10.798 -0.7895 -0.1334  0.0785
58904SOL    HW183317  12.474   9.656  10.854 -0.0176  1.8437 -2.4608
58904SOL    HW283318  12.382   9.563  10.777 -0.8359  1.2015 -0.7659
58905SOL     OW83319   1.323   4.161   3.986  0.1758  0.3918 -0.2288
58905SOL    HW183320   1.308   4.244   3.941 -0.6385  0.0975 -0.5260
58905SOL    HW283321   1.400   4.124   3.944 -1.6964 -0.8445 -2.9257
58906SOL     OW83322   5.460   3.535   9.084  0.4795 -0.1141 -0.0046
58906SOL    HW183323   5.519   3.598   9.042 -0.5303  0.8422 -0.0238
58906SOL    HW283324   5.427   3.581   9.161 -0.4477 -0.5336 -0.1410
58907SOL     OW83325   5.483   4.033   4.010 -0.2149 -0.1831  0.2600
58907SOL    HW183326   5.420   4.104   4.023 -0.8397 -0.4358 -1.1806
58907SOL    HW283327   5.555   4.073   3.961  0.5053 -0.0290  1.4159
58908SOL     OW83328  10.865   4.871   0.084  0.0993  0.2026  0.0278
58908SOL    HW183329  10.870   4.882  -0.011 -1.5258 -0.5310 -0.1589
58908SOL    HW283330  10.870   4.961   0.119  0.2384  0.5056 -0.7584
58909SOL     OW83331   8.941   8.551   3.066  0.2226  0.0092 -0.0879
58909SOL    HW183332   8.978   8.467   3.040  0.9144 -0.4765  2.2397
58909SOL    HW283333   8.903   8.586   2.986  0.2744 -2.3234 -1.2227
58910SOL     OW83334   6.755   1.753   0.527  0.2172  0.6511 -0.0770
58910SOL    HW183335   6.709   1.808   0.464  1.0536  1.0920 -0.3225
58910SOL    HW283336   6.809   1.814   0.577 -0.0343  0.2428  0.7229
58911SOL     OW83337   4.898   3.473   0.542 -0.3282  0.2975  0.2097
58911SOL    HW183338   4.863   3.521   0.617 -1.3275  0.5062 -0.3655
58911SOL    HW283339   4.822   3.461   0.485  0.3484 -0.1601 -0.6048
58912SOL     OW83340   3.959   3.561   8.566 -0.4952  0.2318 -0.3731
58912SOL    HW183341   4.042   3.536   8.608  0.0521  1.2029 -0.8445
58912SOL    HW283342   3.925   3.478   8.531  0.6579 -0.0691 -0.8364
58913SOL     OW83343   6.306  12.555   6.229  0.3483 -0.1696  0.0245
58913SOL    HW183344   6.234  12.584   6.285  2.5862  2.7027  1.6899
58913SOL    HW283345   6.274  12.569   6.140 -1.2044  0.8569  0.6906
58914SOL     OW83346   3.663  12.398   1.866  0.0953  0.4112  0.2444
58914SOL    HW183347   3.630  12.485   1.887 -0.5753 -0.0172  1.0193
58914SOL    HW283348   3.674  12.399   1.771  0.3889  1.4338  0.2790
58915SOL     OW83349   5.859   7.134   9.287 -0.2558 -0.4254 -0.1393
58915SOL    HW183350   5.932   7.073   9.273 -0.6771 -0.7462 -1.0181
58915SOL    HW283351   5.895   7.220   9.265 -0.2400 -0.6336 -0.9600
58916SOL     OW83352   5.156   0.606   2.336 -0.7130 -0.5813  0.1368
58916SOL    HW183353   5.076   0.552   2.336 -1.0698 -0.1258 -1.7956
58916SOL    HW283354   5.194   0.592   2.249  0.4198  0.5247  0.4294
58917SOL     OW83355   0.229   3.594  12.086 -0.0485 -0.5401  0.1065
58917SOL    HW183356   0.232   3.511  12.038  1.4176 -0.1210 -0.5591
58917SOL    HW283357   0.142   3.629  12.066  0.6115 -0.2170 -2.5661
58918SOL     OW83358   5.755  12.105   1.708 -0.2193  0.0797 -0.6906
58918SOL    HW183359   5.776  12.105   1.802 -0.3554  1.2126 -0.6438
58918SOL    HW283360   5.715  12.019   1.693  1.9931 -1.0816 -0.2421
58919SOL     OW83361   1.944   2.974   3.401  0.3854 -0.1456  0.5942
58919SOL    HW183362   2.028   3.019   3.408 -0.9311  2.6836 -0.2468
58919SOL    HW283363   1.926   2.943   3.490  0.6316  2.6157  1.7047
58920SOL     OW83364  10.065   5.356   1.782  0.1151  0.0015  0.3687
58920SOL    HW183365  10.087   5.333   1.692 -1.4875  1.5329 -0.4715
58920SOL    HW283366  10.015   5.281   1.814 -0.8787  0.2022 -0.6589
58921SOL     OW83367   8.208   4.563   1.460 -0.0124 -0.6077 -0.5025
58921SOL    HW183368   8.161   4.483   1.438 -1.9913 -0.4273  2.4234
58921SOL    HW283369   8.278   4.534   1.518  0.4753 -0.3899 -0.9778
58922SOL     OW83370   6.237   1.610   8.582 -0.3455 -0.2823 -0.1404
58922SOL    HW183371   6.209   1.590   8.671 -1.0621 -0.0689 -0.3146
58922SOL    HW283372   6.330   1.630   8.590 -0.0222 -1.8469  0.3171
58923SOL     OW83373   6.303   8.158  11.400 -0.5921 -0.3087 -0.1493
58923SOL    HW183374   6.321   8.252  11.408  1.2873 -0.2188 -3.5343
58923SOL    HW283375   6.207   8.153  11.400 -0.7451  1.5481  0.5146
58924SOL     OW83376   9.827   2.985   3.443 -0.4783 -0.1250  0.7388
58924SOL    HW183377   9.782   3.066   3.420 -1.8629 -0.6139  1.6113
58924SOL    HW283378   9.766   2.915   3.420  1.4860 -1.1274 -1.9856
58925SOL     OW83379  10.481  10.602   6.707  0.2496 -0.0763 -0.0481
58925SOL    HW183380  10.474  10.507   6.715  0.4292 -0.1167 -0.3373
58925SOL    HW283381  10.469  10.619   6.613 -1.1370  0.3054  0.1694
58926SOL     OW83382   2.467   8.970   8.410  0.5833 -0.3465  0.3244
58926SOL    HW183383   2.473   8.988   8.316 -1.3885 -1.3459 -0.0386
58926SOL    HW283384   2.459   9.056   8.451 -1.6914  0.0347 -0.7505
58927SOL     OW83385  12.381   9.710   7.229 -0.3899  0.9097  0.5621
58927SOL    HW183386  12.388   9.659   7.149  1.5374  0.1375  1.1417
58927SOL    HW283387  12.332   9.655   7.289  0.2787  0.4144  0.6656
58928SOL     OW83388   0.047   9.017   1.554 -0.1921 -0.6805  0.3806
58928SOL    HW183389  -0.036   9.020   1.506  0.1698 -1.2965 -0.3032
58928SOL    HW283390   0.092   9.097   1.528  0.6641 -1.7253 -1.5771
58929SOL     OW83391  10.373   0.042  10.478  0.5284 -0.0114 -0.2993
58929SOL    HW183392  10.304  -0.018  10.450  0.1531  1.3504 -2.5452
58929SOL    HW283393  10.327   0.122  10.503  1.1915  0.4687 -0.5725
58930SOL     OW83394   7.945   9.906   3.226 -0.7575  0.2605  0.0203
58930SOL    HW183395   7.982   9.819   3.211  0.5580  1.0281 -1.5220
58930SOL    HW283396   7.998   9.943   3.296  0.1184  0.6037 -0.8062
58931SOL     OW83397   8.907  10.759   1.266  0.0280  0.2144 -0.3915
58931SOL    HW183398   8.940  10.706   1.338 -1.5056 -2.7258 -1.6625
58931SOL    HW283399   8.892  10.845   1.304  0.8890 -0.7467  2.3271
58932SOL     OW83400   5.071   7.214   5.972  0.0805 -0.2170 -0.1498
58932SOL    HW183401   5.098   7.304   5.951 -0.5366 -0.2399 -1.0879
58932SOL    HW283402   5.064   7.213   6.068 -0.2304  0.8311 -0.1450
58933SOL     OW83403   9.968   8.510   0.543  0.2650 -0.1085 -0.0298
58933SOL    HW183404   9.985   8.423   0.578  0.4929 -0.0373  0.0365
58933SOL    HW283405  10.040   8.527   0.483 -0.6325 -0.6239 -1.2926
58934SOL     OW83406   1.490   3.909   8.317  0.0724  0.0136  0.7057
58934SOL    HW183407   1.515   3.859   8.395  0.4694 -1.6347 -0.4235
58934SOL    HW283408   1.564   3.967   8.301 -0.2613  0.7954  1.8681
58935SOL     OW83409   1.095  12.395  11.543  0.3105 -0.0006  0.2373
58935SOL    HW183410   1.025  12.455  11.516 -0.3007 -0.6326  0.3686
58935SOL    HW283411   1.084  12.386  11.637  0.5212 -0.1569  0.2490
58936SOL     OW83412   0.149   4.293  11.326 -0.3002 -0.7002  0.3222
58936SOL    HW183413   0.060   4.264  11.302  0.0168 -1.9069  0.5212
58936SOL    HW283414   0.206   4.224  11.292  0.8805  1.4251 -2.3784
58937SOL     OW83415   6.247   6.285   5.117 -0.1187  0.1502 -0.7201
58937SOL    HW183416   6.192   6.353   5.077 -0.0040 -1.0087 -3.0132
58937SOL    HW283417   6.305   6.256   5.046  2.1418 -0.0342  1.1091
58938SOL     OW83418   3.604   9.917   2.541  0.1211 -0.2159 -0.3691
58938SOL    HW183419   3.700   9.924   2.540  0.1847  0.2446  2.2331
58938SOL    HW283420   3.586   9.846   2.603 -1.2289 -2.1314 -2.7918
58939SOL     OW83421   1.424   6.798   4.133 -0.0284  0.4880  0.1215
58939SOL    HW183422   1.375   6.874   4.165 -1.5864 -0.4284 -0.0105
58939SOL    HW283423   1.445   6.821   4.043 -0.9266  0.5768 -0.0793
58940SOL     OW83424   5.805  10.355  12.216  0.2992  0.0746  0.4182
58940SOL    HW183425   5.782  10.372  12.125  0.0710 -0.6375  0.3434
58940SOL    HW283426   5.883  10.301  12.213  0.6027  0.4839  0.6586
58941SOL     OW83427  11.738   4.690   6.144  0.1012  0.1938  0.3856
58941SOL    HW183428  11.750   4.706   6.237 -0.4561 -1.2106  0.7237
58941SOL    HW283429  11.720   4.596   6.138 -0.3777  0.3557 -1.0841
58942SOL     OW83430   2.182   0.679  11.475  0.3090  0.0583  0.0094
58942SOL    HW183431   2.163   0.615  11.407 -1.1231  1.7285 -1.2442
58942SOL    HW283432   2.153   0.763  11.439 -0.3124  1.0618  2.5851
58943SOL     OW83433   4.696   8.316   6.576  0.1303  0.8192  0.4045
58943SOL    HW183434   4.624   8.297   6.516  0.7768  0.0995 -0.1580
58943SOL    HW283435   4.675   8.402   6.613 -2.0801 -0.2084  1.7922
58944SOL     OW83436  11.629   5.627   1.056 -0.4442 -0.5852 -0.5386
58944SOL    HW183437  11.701   5.564   1.052 -0.8211 -1.1097  0.6205
58944SOL    HW283438  11.564   5.592   0.994 -1.0618 -1.9121  0.7883
58945SOL     OW83439   3.290  12.099   0.740  0.2758 -0.3929  0.0613
58945SOL    HW183440   3.372  12.143   0.719 -0.2238 -0.2718 -1.8387
58945SOL    HW283441   3.287  12.024   0.681 -1.6787  0.5035 -1.1026
58946SOL     OW83442   9.356  11.049   4.288 -0.2801  0.0802 -0.4905
58946SOL    HW183443   9.395  11.058   4.375 -0.8129  0.2016 -0.2631
58946SOL    HW283444   9.402  10.975   4.249  0.6765  0.6534 -0.4986
58947SOL     OW83445   0.398   3.917   6.780 -0.1247  0.0101 -1.0355
58947SOL    HW183446   0.358   3.832   6.763 -0.0298 -0.2200 -0.1491
58947SOL    HW283447   0.488   3.898   6.804 -0.1316  0.3447 -0.7188
58948SOL     OW83448   8.570   4.551   0.516 -0.1336 -0.1651  0.1720
58948SOL    HW183449   8.587   4.561   0.609  0.1227 -0.1643  0.1255
58948SOL    HW283450   8.475   4.549   0.509 -0.2461  2.1385  0.2142
58949SOL     OW83451   4.298  10.368   4.276 -0.0864  0.2800  0.3847
58949SOL    HW183452   4.318  10.286   4.321 -2.8327 -0.1473  0.9953
58949SOL    HW283453   4.383  10.402   4.249  1.1898 -2.4338  0.6899
58950SOL     OW83454   9.180   4.248   5.902 -0.3214  0.1985  0.2524
58950SOL    HW183455   9.221   4.277   5.820  0.8642  1.3424  1.2084
58950SOL    HW283456   9.141   4.164   5.880  2.1465 -0.7670 -0.8644
58951SOL     OW83457   0.954  11.329   0.449 -0.9774 -0.3107 -0.4680
58951SOL    HW183458   0.870  11.313   0.491 -0.9332 -2.9721 -1.1639
58951SOL    HW283459   1.019  11.306   0.516 -0.8645 -0.6244 -0.6785
58952SOL     OW83460   9.715   2.064   3.559 -0.2357  0.3249 -0.7723
58952SOL    HW183461   9.734   2.036   3.649  0.8494 -2.6314 -1.7791
58952SOL    HW283462   9.620   2.056   3.551 -0.3943  1.0233  0.2023
58953SOL     OW83463   3.847   4.654   3.090  0.3002 -0.2816 -0.2326
58953SOL    HW183464   3.752   4.661   3.103  0.5627  0.2319  1.6652
58953SOL    HW283465   3.870   4.568   3.125  0.5292 -0.4729 -0.8374
58954SOL     OW83466  11.972   8.675   7.852  0.4430 -0.1314  0.4326
58954SOL    HW183467  11.892   8.625   7.837 -0.4864  1.4045 -0.0755
58954SOL    HW283468  12.009   8.639   7.932 -1.0661 -0.5191  0.9912
58955SOL     OW83469   3.566  11.452   4.846  0.3989 -0.1597  0.2678
58955SOL    HW183470   3.470  11.448   4.845  0.3505  0.1697  1.6501
58955SOL    HW283471   3.588  11.528   4.791 -0.1070 -0.3551 -0.2179
58956SOL     OW83472   1.291  10.659   1.520  0.1138  0.2988  0.5966
58956SOL    HW183473   1.287  10.745   1.480  0.6193 -0.2606 -0.7247
58956SOL    HW283474   1.384  10.634   1.514  0.0358 -0.1894  1.2849
58957SOL     OW83475   0.248   5.250   9.637  0.0862 -0.7172  0.7968
58957SOL    HW183476   0.339   5.234   9.612  0.5111  1.7585  0.5976
58957SOL    HW283477   0.198   5.226   9.560  0.7472 -0.1092  0.1679
58958SOL     OW83478   4.261   7.951   4.895 -0.3887 -0.0142  0.2807
58958SOL    HW183479   4.299   7.893   4.828  1.4354  2.7017 -1.2156
58958SOL    HW283480   4.170   7.962   4.869 -0.6020 -1.6436  0.2410
58959SOL     OW83481   3.354   8.834   7.920  0.2243 -0.0608 -0.3003
58959SOL    HW183482   3.271   8.876   7.943 -0.4222 -0.9049 -0.9990
58959SOL    HW283483   3.341   8.742   7.943  1.2638 -0.0647  0.3028
58960SOL     OW83484   9.598   0.727   2.148 -0.6411 -0.0340 -0.0828
58960SOL    HW183485   9.570   0.810   2.187 -0.3888 -0.7139  1.6456
58960SOL    HW283486   9.693   0.726   2.161 -0.7329 -0.9072  0.5956
58961SOL     OW83487   7.376   7.579   4.465 -0.4186  0.6646 -0.1565
58961SOL    HW183488   7.443   7.643   4.442 -0.4277  0.2027 -1.6120
58961SOL    HW283489   7.312   7.628   4.517  1.2541  0.9939  1.7142
58962SOL     OW83490   7.309   2.983   8.119  0.1870 -0.4356 -0.2020
58962SOL    HW183491   7.244   2.931   8.164  1.3969 -0.3129  1.8026
58962SOL    HW283492   7.358   3.027   8.188  1.5298  0.5464 -1.6785
58963SOL     OW83493   1.060   4.145   9.003 -0.0221  0.1103 -0.0659
58963SOL    HW183494   1.099   4.225   8.966 -1.5061  0.3779 -1.1393
58963SOL    HW283495   1.130   4.080   8.998  1.8620  1.7211  2.5269
58964SOL     OW83496   8.340  11.319   3.773  0.5922  0.0488 -0.4186
58964SOL    HW183497   8.393  11.392   3.743 -0.8039  0.9105 -0.9050
58964SOL    HW283498   8.264  11.319   3.715  0.8624 -2.2374 -0.8874
58965SOL     OW83499   2.579   8.253   9.004 -0.2615 -0.8308  0.7825
58965SOL    HW183500   2.625   8.319   8.953 -0.3555 -0.2499  1.4463
58965SOL    HW283501   2.582   8.174   8.949  0.9441 -0.6263  0.5363
58966SOL     OW83502   8.077   2.324   4.673 -0.3480  0.1866  0.0938
58966SOL    HW183503   8.035   2.410   4.668  2.1338  1.6080  1.3254
58966SOL    HW283504   8.114   2.310   4.586  0.9293  1.3731  0.4152
58967SOL     OW83505   6.453   0.113   9.339 -0.0222  0.6416  0.4642
58967SOL    HW183506   6.474   0.173   9.267 -0.6724  1.2260  0.7516
58967SOL    HW283507   6.404   0.167   9.401  1.6393  0.5052  1.9721
58968SOL     OW83508  11.889   6.464  11.620  0.2349 -0.6455 -0.3690
58968SOL    HW183509  11.802   6.440  11.590  0.4427 -0.6988 -0.9277
58968SOL    HW283510  11.907   6.548  11.577  1.2527 -1.5689 -1.8240
58969SOL     OW83511   4.883  10.160   1.639  0.3582 -0.2049  0.3789
58969SOL    HW183512   4.801  10.169   1.589 -0.1632 -1.5597  0.9366
58969SOL    HW283513   4.951  10.158   1.573 -0.2650 -1.3261 -0.2550
58970SOL     OW83514   5.286   0.798  12.718  0.0552  0.2797 -0.3461
58970SOL    HW183515   5.199   0.827  12.748  0.2164 -0.0498  0.4812
58970SOL    HW283516   5.347   0.858  12.762  0.3807 -1.1110  1.1835
58971SOL     OW83517   5.197  10.506   1.466 -0.5189  0.3881 -0.7445
58971SOL    HW183518   5.129  10.471   1.409 -1.0407  2.9277 -1.8025
58971SOL    HW283519   5.161  10.587   1.502  0.7402  0.1275  1.2852
58972SOL     OW83520  12.534  10.527   3.786 -0.0929  0.2324  0.1232
58972SOL    HW183521  12.555  10.530   3.693  3.7221 -1.5036  0.7336
58972SOL    HW283522  12.511  10.436   3.802 -1.7131  0.7236  0.7806
58973SOL     OW83523   1.285   5.821  10.244  0.3539  0.9529 -0.6245
58973SOL    HW183524   1.255   5.756  10.180  1.5173  0.5698 -0.8033
58973SOL    HW283525   1.364   5.782  10.282 -0.6757  0.8565  1.5502
58974SOL     OW83526   2.736  11.110   6.893 -0.1965  0.4820  0.5071
58974SOL    HW183527   2.814  11.145   6.851 -0.0273  0.7976  1.0797
58974SOL    HW283528   2.718  11.029   6.845  0.7981  0.1198  0.7183
58975SOL     OW83529   8.326   4.492  12.740  0.4739  0.1061  0.0944
58975SOL    HW183530   8.361   4.571  12.782  0.2493 -0.0110  0.5111
58975SOL    HW283531   8.234   4.511  12.725  0.7392  0.4772 -1.1581
58976SOL     OW83532  10.581   2.156   3.508  0.4554 -0.2988 -0.1896
58976SOL    HW183533  10.674   2.143   3.526  0.4308 -0.9250 -0.5015
58976SOL    HW283534  10.577   2.238   3.459  0.9378 -0.7172 -0.9497
58977SOL     OW83535   3.671   4.528   8.861 -0.8241 -0.3886  0.0888
58977SOL    HW183536   3.600   4.570   8.813 -0.6423 -0.8245 -0.5814
58977SOL    HW283537   3.634   4.509   8.947 -1.3515 -0.1340 -0.0760
58978SOL     OW83538   9.548   5.564  12.140  0.4928 -0.1658  0.4004
58978SOL    HW183539   9.479   5.613  12.185  0.8873  0.3303  0.4806
58978SOL    HW283540   9.620   5.558  12.203 -0.1498 -2.3326  0.9946
58979SOL     OW83541   8.637   4.035   3.903  0.4401 -0.2811  0.1832
58979SOL    HW183542   8.691   3.979   3.958  1.9788 -0.5311 -1.5080
58979SOL    HW283543   8.648   4.001   3.814  0.0805  1.6622 -0.6696
58980SOL     OW83544  10.030   5.117   2.966  0.1820  0.0082  0.0243
58980SOL    HW183545   9.940   5.142   2.987  0.5186  1.8444 -0.5357
58980SOL    HW283546  10.021   5.043   2.906 -0.8817 -1.2189  1.5922
58981SOL     OW83547   0.003   4.480   8.730  0.2498 -0.2667  0.2655
58981SOL    HW183548  -0.015   4.568   8.695  0.8698  0.2974  1.3173
58981SOL    HW283549  -0.077   4.431   8.714 -0.1577  0.5319 -0.2153
58982SOL     OW83550   0.978   0.483   6.678  0.0436 -0.2120  0.0038
58982SOL    HW183551   0.910   0.430   6.719  0.2894 -0.4121  0.1574
58982SOL    HW283552   1.059   0.457   6.723  0.1683  0.2771  0.0618
58983SOL     OW83553   2.011   6.643  12.244  0.3974  0.5781 -0.5852
58983SOL    HW183554   2.061   6.657  12.164 -0.5457 -1.1144 -1.5380
58983SOL    HW283555   2.018   6.549  12.260 -1.3837  0.5043 -0.0319
58984SOL     OW83556  10.726   9.942   0.967 -0.0122  0.4395  0.1822
58984SOL    HW183557  10.810   9.987   0.983 -0.1110  0.3396  1.0147
58984SOL    HW283558  10.717   9.942   0.872  0.5622  1.1432  0.1162
58985SOL     OW83559   7.017   0.632   8.762 -0.0322  0.3981 -0.3925
58985SOL    HW183560   6.958   0.612   8.835  0.6942  2.6007  0.8979
58985SOL    HW283561   6.976   0.706   8.717 -0.4262 -0.8679 -2.2410
58986SOL     OW83562   4.964   9.806  11.706  0.1366 -0.3387  0.4973
58986SOL    HW183563   5.058   9.798  11.725 -0.1030  0.1107  2.0831
58986SOL    HW283564   4.934   9.716  11.692  0.4912 -0.6944  1.8171
58987SOL     OW83565   3.886   3.593   4.491 -0.3251 -0.4388 -0.0275
58987SOL    HW183566   3.933   3.531   4.547  0.9178  0.5256  0.0225
58987SOL    HW283567   3.884   3.550   4.405  1.1346 -0.2712 -0.1631
58988SOL     OW83568   6.412   0.295   4.955 -0.1475 -0.1386 -0.0761
58988SOL    HW183569   6.405   0.214   4.905 -0.5162 -1.6365  2.2053
58988SOL    HW283570   6.321   0.319   4.975 -0.0034  0.1721  0.2270
58989SOL     OW83571  10.801  10.989   6.234  0.3834 -0.2087  0.3843
58989SOL    HW183572  10.803  10.976   6.329  0.3371  1.2933  0.6263
58989SOL    HW283573  10.736  11.058   6.221  0.5877 -0.2049 -0.7128
58990SOL     OW83574   3.738  11.149   9.443  0.6890  0.1787  0.0384
58990SOL    HW183575   3.799  11.161   9.369  1.5354 -0.0109  0.6914
58990SOL    HW283576   3.745  11.231   9.493  0.9068 -0.1035  0.4737
58991SOL     OW83577   7.317   3.571   4.295  0.3688 -0.0838  0.3559
58991SOL    HW183578   7.402   3.528   4.280  0.5976 -0.6027  2.6642
58991SOL    HW283579   7.260   3.500   4.324 -0.3258  0.5601  0.5831
58992SOL     OW83580   0.229  11.175  12.119 -0.2089  0.2447  0.7520
58992SOL    HW183581   0.254  11.266  12.134 -1.9773  0.7060  1.1119
58992SOL    HW283582   0.240  11.162  12.025  0.9098  0.5305  0.8282
58993SOL     OW83583   7.180   2.619   3.359  0.1816  0.4698 -0.0817
58993SOL    HW183584   7.212   2.675   3.288  0.1021 -0.9461 -1.2850
58993SOL    HW283585   7.087   2.607   3.340  0.3345 -0.5779 -0.2210
58994SOL     OW83586   9.585   8.985  12.532  0.2463  0.4701  0.1300
58994SOL    HW183587   9.675   9.016  12.530  0.4732 -0.1382  0.6753
58994SOL    HW283588   9.536   9.055  12.575  0.5811  0.4943  0.4732
58995SOL     OW83589   7.198   4.193   5.384  0.0569  0.0610  0.4453
58995SOL    HW183590   7.190   4.286   5.406  2.1155  0.6823 -1.1083
58995SOL    HW283591   7.144   4.183   5.305  1.0997  0.3668 -0.3361
58996SOL     OW83592   3.432   4.579  10.395  0.0362 -0.0580  0.7332
58996SOL    HW183593   3.485   4.515  10.441  1.1959  0.4209  0.1079
58996SOL    HW283594   3.488   4.657  10.388 -0.2803  0.0733 -0.9668
58997SOL     OW83595   8.755   0.933   0.546  0.0053  0.1171 -0.6797
58997SOL    HW183596   8.776   0.860   0.604  0.8981 -0.1423 -1.3038
58997SOL    HW283597   8.772   1.011   0.599  0.8312 -0.1163 -0.5782
58998SOL     OW83598   8.016   1.039   9.891  0.3663 -0.2203  0.2100
58998SOL    HW183599   8.104   1.031   9.853 -0.1235 -0.6750 -0.8714
58998SOL    HW283600   7.992   0.949   9.914 -0.1163 -0.2066 -0.2194
58999SOL     OW83601   2.493   8.294  11.019 -0.1358  0.4404 -0.0514
58999SOL    HW183602   2.586   8.300  10.994 -0.1354 -1.8150 -0.7828
58999SOL    HW283603   2.460   8.383  11.008  2.0367  1.3948  0.6484
59000SOL     OW83604   3.839   0.543   5.967 -0.2396 -0.0289  0.0596
59000SOL    HW183605   3.815   0.544   6.060 -1.8603 -0.4500 -0.3326
59000SOL    HW283606   3.934   0.527   5.968 -0.2349 -0.1056  1.6360
59001SOL     OW83607   0.424   7.014   3.417  0.3569  0.1044 -0.0857
59001SOL    HW183608   0.357   6.957   3.454 -0.4681 -0.0437 -1.7024
59001SOL    HW283609   0.465   6.961   3.348 -0.4662  1.4158 -1.6609
59002SOL     OW83610   4.270  11.994   9.166 -0.1829 -0.3205 -0.0094
59002SOL    HW183611   4.305  11.907   9.148 -1.2584 -0.7516 -0.1384
59002SOL    HW283612   4.177  11.987   9.143 -0.6041  0.4450  1.3408
59003SOL     OW83613   8.414   8.196   7.228 -0.0160  0.0703 -0.3960
59003SOL    HW183614   8.425   8.178   7.322 -1.1430 -0.6515 -0.3841
59003SOL    HW283615   8.489   8.154   7.186 -0.4316 -1.1201  0.0279
59004SOL     OW83616   8.874   8.626   2.532 -0.1373 -0.7307 -0.0310
59004SOL    HW183617   8.855   8.718   2.515  0.0654 -0.5803  0.5330
59004SOL    HW283618   8.963   8.614   2.501  0.3428 -0.3809  1.1735
59005SOL     OW83619   8.026   7.686   4.458  0.2967 -0.3471 -0.0132
59005SOL    HW183620   8.104   7.632   4.470 -1.4622 -2.8147  1.2223
59005SOL    HW283621   8.009   7.683   4.364  1.4098 -0.1822 -0.2240
59006SOL     OW83622   4.371   7.530  10.100  0.4202  0.4972  0.2210
59006SOL    HW183623   4.318   7.515  10.021 -1.2998 -1.4563  1.6307
59006SOL    HW283624   4.457   7.494  10.077  0.0636  0.3008 -0.9020
59007SOL     OW83625  12.285   9.742   5.928 -0.2428  0.4151  0.3479
59007SOL    HW183626  12.213   9.733   5.864  0.9467 -0.8021 -0.8833
59007SOL    HW283627  12.330   9.658   5.925  1.5981  1.3523  0.6454
59008SOL     OW83628  10.699  10.044  10.264 -0.8791 -0.5184 -0.5856
59008SOL    HW183629  10.613  10.054  10.304 -0.7902  0.3313 -0.5812
59008SOL    HW283630  10.744  10.127  10.283  0.9597 -1.9224  1.8114
59009SOL     OW83631   2.440   1.163   6.136  0.5680 -0.0554  0.1640
59009SOL    HW183632   2.373   1.209   6.085 -0.4599 -1.5533  0.0924
59009SOL    HW283633   2.514   1.155   6.075 -0.0896 -0.4982 -0.6022
59010SOL     OW83634   7.365   3.552   6.903  0.3409  0.3623 -0.1317
59010SOL    HW183635   7.376   3.480   6.965  1.4255  0.9706  0.3855
59010SOL    HW283636   7.320   3.511   6.828  1.5728 -1.0347 -0.1581
59011SOL     OW83637  12.449   9.531   9.556  0.6422  0.2598 -0.2651
59011SOL    HW183638  12.539   9.518   9.584  1.7019  1.9254 -2.6293
59011SOL    HW283639  12.397   9.507   9.633  3.1913  2.3681  2.3673
59012SOL     OW83640   9.263   9.415   5.141 -0.3378  0.1757  0.0023
59012SOL    HW183641   9.187   9.361   5.162 -1.2863  0.7476 -1.7803
59012SOL    HW283642   9.241   9.502   5.175 -0.8744  0.5414 -1.2281
59013SOL     OW83643   8.326  11.725   6.926  0.6248 -0.7058  0.4961
59013SOL    HW183644   8.300  11.658   6.862  1.2455 -2.2613  1.7986
59013SOL    HW283645   8.408  11.693   6.963  1.7280  1.5521  0.1285
59014SOL     OW83646   3.731   7.470  12.619  1.0228 -0.2596  0.6515
59014SOL    HW183647   3.722   7.497  12.710  3.0265 -2.3071  1.5435
59014SOL    HW283648   3.818   7.500  12.593  0.5880  0.0462 -0.5292
59015SOL     OW83649  10.138   2.435   1.129  0.5857  0.5609  0.0896
59015SOL    HW183650  10.104   2.524   1.135  0.4959  0.4990  0.5558
59015SOL    HW283651  10.062   2.379   1.143  1.0339  0.4229  2.2341
59016SOL     OW83652   7.532  12.147   2.897 -0.3658 -0.3402 -0.0636
59016SOL    HW183653   7.437  12.157   2.890 -0.2808 -0.1975 -1.1316
59016SOL    HW283654   7.544  12.076   2.960 -1.1820 -0.5693 -0.1583
59017SOL     OW83655   6.864   6.639   4.597  0.0515 -0.1605 -0.1363
59017SOL    HW183656   6.878   6.653   4.504 -0.6093 -0.2068 -0.2451
59017SOL    HW283657   6.863   6.727   4.635 -2.2860  0.0542 -0.5604
59018SOL     OW83658   0.523  11.137   2.520 -0.1717 -0.1925  0.2245
59018SOL    HW183659   0.449  11.128   2.459  1.1164 -0.4401 -1.3713
59018SOL    HW283660   0.513  11.063   2.580 -1.4695  0.0473  0.3406
59019SOL     OW83661   8.737   5.654  11.409  0.3355  0.3055  0.2055
59019SOL    HW183662   8.771   5.584  11.464 -0.9984 -1.1177 -0.6871
59019SOL    HW283663   8.667   5.613  11.358 -1.0476  2.4867  0.2043
59020SOL     OW83664   9.341  10.244   4.789 -0.2063  0.5391 -0.6972
59020SOL    HW183665   9.369  10.315   4.730 -1.2289  1.6137  0.0647
59020SOL    HW283666   9.246  10.249   4.789 -0.3443 -1.3795 -1.2329
59021SOL     OW83667   2.733   7.901   3.900  0.2973 -0.4881 -0.3327
59021SOL    HW183668   2.778   7.816   3.898 -0.3199 -0.8718  0.9964
59021SOL    HW283669   2.641   7.880   3.884 -0.1451 -0.3262  1.7062
59022SOL     OW83670  11.431   2.505   7.312 -0.1700  0.3259 -0.5180
59022SOL    HW183671  11.448   2.557   7.234 -0.1699 -0.7881 -1.2905
59022SOL    HW283672  11.496   2.434   7.308  1.2557  1.3908  1.6208
59023SOL     OW83673   6.923   7.757   5.377 -0.0857 -0.4497 -0.5408
59023SOL    HW183674   6.938   7.829   5.316 -0.9861  0.9605  0.8398
59023SOL    HW283675   7.011   7.728   5.402  0.3506  1.7076  0.6248
59024SOL     OW83676   2.314   2.448   9.511  0.0540  0.0574  0.2086
59024SOL    HW183677   2.408   2.452   9.494  0.0718  1.3768  0.4919
59024SOL    HW283678   2.294   2.354   9.514  1.6307 -0.2792  1.6211
59025SOL     OW83679   0.213   9.130   2.781  0.3411  0.0860  0.3083
59025SOL    HW183680   0.266   9.060   2.818  1.7260  0.8239 -0.1914
59025SOL    HW283681   0.229   9.205   2.839  2.1881  1.1281 -1.4446
59026SOL     OW83682   8.416   2.800   6.804  0.1703  0.9298 -0.4372
59026SOL    HW183683   8.469   2.802   6.883  0.3246 -0.6265 -0.4756
59026SOL    HW283684   8.326   2.816   6.834 -0.1958 -2.2192  0.5001
59027SOL     OW83685   1.332   3.691   4.328 -0.2015  0.0683 -0.0468
59027SOL    HW183686   1.245   3.676   4.290 -0.2304  1.1466 -0.4427
59027SOL    HW283687   1.348   3.614   4.383 -1.6749  0.1454  0.5379
59028SOL     OW83688   6.947   0.484   3.773  0.4532 -0.3268  0.1425
59028SOL    HW183689   6.901   0.449   3.697 -0.5793 -0.6409  0.8941
59028SOL    HW283690   7.040   0.479   3.749  0.0986  1.1950 -1.7771
59029SOL     OW83691   5.135   7.720   6.117  0.2677  0.1430  0.1984
59029SOL    HW183692   5.166   7.810   6.117  2.5303 -0.5656  1.4455
59029SOL    HW283693   5.151   7.689   6.206  0.3719 -1.7672 -0.4465
59030SOL     OW83694   9.904   2.017   2.936 -0.2991  0.0324  0.0564
59030SOL    HW183695   9.940   2.039   3.021 -0.2891 -0.3453  0.1483
59030SOL    HW283696   9.837   1.951   2.954 -0.7341  0.4007 -0.1582
59031SOL     OW83697  11.517   1.211   9.252 -0.6057  0.0091  0.0889
59031SOL    HW183698  11.439   1.266   9.255 -0.5983  0.0298 -0.1438
59031SOL    HW283699  11.586   1.268   9.218 -0.7969 -0.3855 -0.9958
59032SOL     OW83700   4.141   8.601   7.977  0.4142 -0.0557 -0.8761
59032SOL    HW183701   4.056   8.644   7.975 -0.2675 -1.2796  0.4001
59032SOL    HW283702   4.184   8.635   8.056  0.9095  0.1637 -1.2311
59033SOL     OW83703   5.514   3.804  11.711  0.6348 -0.0524 -0.0253
59033SOL    HW183704   5.587   3.858  11.741  0.8318  0.5165 -1.4571
59033SOL    HW283705   5.442   3.866  11.699  0.7915 -0.1159 -1.4455
59034SOL     OW83706   5.097  12.403  11.894 -0.3590  0.1517  0.2984
59034SOL    HW183707   5.084  12.340  11.824 -1.6580  0.0985  0.5556
59034SOL    HW283708   5.099  12.350  11.974  0.5487  0.2619  0.3537
59035SOL     OW83709   0.059   7.944   2.853 -0.0440  0.7188 -0.7992
59035SOL    HW183710  -0.000   7.873   2.831 -1.1550  1.3304  0.0703
59035SOL    HW283711   0.048   8.008   2.782 -1.6417  1.5188  0.1056
59036SOL     OW83712   1.269   3.621   7.519 -0.1377 -0.2609  0.0865
59036SOL    HW183713   1.183   3.662   7.520  0.8909  2.0283  0.8650
59036SOL    HW283714   1.324   3.680   7.571  2.1361 -1.1211 -1.2249
59037SOL     OW83715  12.475   9.930   2.705 -0.3119  0.1715 -0.3806
59037SOL    HW183716  12.456   9.850   2.754 -2.1222  0.4824 -0.5221
59037SOL    HW283717  12.525   9.900   2.629  2.2471 -0.3585  1.3729
59038SOL     OW83718  10.606   1.286   0.791 -0.2150  0.3839  1.0604
59038SOL    HW183719  10.679   1.321   0.740 -2.6795  2.4403 -1.4128
59038SOL    HW283720  10.589   1.200   0.753 -1.1820  1.3515 -0.8980
59039SOL     OW83721   9.286   6.125   9.572  0.0304 -0.1645  0.4618
59039SOL    HW183722   9.288   6.132   9.476  0.1646  0.6209  0.5123
59039SOL    HW283723   9.375   6.101   9.596 -0.3721 -1.9570  0.2987
59040SOL     OW83724   5.241   7.698   6.388  0.0162  0.0969 -0.4637
59040SOL    HW183725   5.294   7.778   6.389 -0.7774  0.6270  0.4452
59040SOL    HW283726   5.299   7.632   6.351  1.3947  0.6168  0.6873
59041SOL     OW83727   9.753   0.358   7.098  0.5744  0.1479 -0.3706
59041SOL    HW183728   9.691   0.423   7.066  0.2683 -0.4094 -0.9366
59041SOL    HW283729   9.733   0.279   7.047  1.7142 -0.0561 -0.5267
59042SOL     OW83730   4.785   3.996   9.355  0.2334 -0.3005 -0.3105
59042SOL    HW183731   4.707   3.993   9.301  0.4077 -0.3236 -0.5645
59042SOL    HW283732   4.757   4.035   9.437  0.2124  0.8224 -0.8305
59043SOL     OW83733   5.051   5.967  12.319  0.0149 -0.1249  0.1396
59043SOL    HW183734   4.964   5.958  12.281 -0.8369  0.2548  1.8899
59043SOL    HW283735   5.070   6.061  12.315  0.8679 -0.3248 -1.2588
59044SOL     OW83736   6.678  10.793   0.085  0.5427 -0.6273  0.4129
59044SOL    HW183737   6.684  10.726   0.017  0.6078 -1.0335  0.8121
59044SOL    HW283738   6.617  10.858   0.050  0.2735 -1.0314  0.1317
59045SOL     OW83739   2.018   2.513  11.470 -0.1106  0.6095  0.5773
59045SOL    HW183740   1.930   2.494  11.440  0.2152  1.1149 -0.7757
59045SOL    HW283741   2.006   2.567  11.548 -0.9841 -0.1592  0.9882
59046SOL     OW83742   2.524   3.822   1.774  0.0741  0.5455  0.0077
59046SOL    HW183743   2.587   3.894   1.784  0.0546  0.7346 -1.1274
59046SOL    HW283744   2.451   3.847   1.831  0.6494  0.7465  0.6748
59047SOL     OW83745   8.807   0.764  10.290  0.1861 -0.0931 -0.0273
59047SOL    HW183746   8.831   0.769  10.383 -1.3092 -0.4034  0.4001
59047SOL    HW283747   8.891   0.766  10.244  1.0207 -1.0660  1.3699
59048SOL     OW83748   7.980  11.788   2.910 -0.1948 -0.6139 -0.3948
59048SOL    HW183749   7.885  11.781   2.899 -0.0810 -1.5376 -0.8413
59048SOL    HW283750   8.003  11.869   2.863 -0.5893 -1.0839 -1.4417
59049SOL     OW83751  10.119  10.518   6.221 -0.4994 -0.2092 -0.3020
59049SOL    HW183752  10.195  10.476   6.181 -0.3082 -0.2453  0.0925
59049SOL    HW283753  10.123  10.491   6.313 -1.3450 -0.7454 -0.4111
59050SOL     OW83754   4.351   6.858   9.961  0.5467 -0.9422 -1.3817
59050SOL    HW183755   4.335   6.915   9.886 -1.7375  0.7543  0.2535
59050SOL    HW283756   4.310   6.775   9.938 -0.6786 -0.2424 -1.8183
59051SOL     OW83757   6.250   7.027   5.573 -0.4037  0.2236  0.4265
59051SOL    HW183758   6.156   7.007   5.574 -0.3409 -0.2310  2.4941
59051SOL    HW283759   6.292   6.942   5.558 -0.3185  0.0410  1.5494
59052SOL     OW83760   3.846  10.736   5.312 -0.6545 -0.2477  0.2727
59052SOL    HW183761   3.915  10.777   5.261  0.0232 -1.5322  0.1017
59052SOL    HW283762   3.772  10.796   5.307  0.5022  1.2446  0.5979
59053SOL     OW83763   4.479   9.698  10.730 -0.4145  0.0855 -0.0762
59053SOL    HW183764   4.488   9.604  10.747  1.5574  0.2034 -0.2823
59053SOL    HW283765   4.385   9.711  10.721 -0.8395 -1.6301  1.2899
59054SOL     OW83766  11.882   9.468   9.466  0.1178 -0.0544 -0.0177
59054SOL    HW183767  11.812   9.403   9.461 -0.0313  0.0910  0.1586
59054SOL    HW283768  11.953   9.431   9.414 -0.1942 -0.0708 -0.4357
59055SOL     OW83769   8.094   0.861   1.260 -0.0950  0.3980 -0.0937
59055SOL    HW183770   8.059   0.861   1.171 -1.0660  0.3189  0.2791
59055SOL    HW283771   8.186   0.887   1.249 -0.4279  1.2669 -1.0244
59056SOL     OW83772   3.397  12.686   1.182  0.1163 -0.3898  0.6508
59056SOL    HW183773   3.334  12.701   1.111  0.6314 -2.4592 -0.2983
59056SOL    HW283774   3.473  12.741   1.159 -0.7208  0.9969  1.0523
59057SOL     OW83775  11.230   9.832   4.225  0.1803  0.0482 -0.3791
59057SOL    HW183776  11.323   9.853   4.228 -0.3772  3.2906 -1.7387
59057SOL    HW283777  11.188   9.911   4.190 -2.9737 -1.6711 -0.9155
59058SOL     OW83778   5.988   8.791   0.003 -0.5110 -0.2464  0.3234
59058SOL    HW183779   5.926   8.839   0.057  0.4700  0.5551  0.7736
59058SOL    HW283780   6.038   8.859  -0.043  1.1761 -0.7831  1.2703
59059SOL     OW83781  11.472   5.076   7.392  0.7635  0.2878  0.0608
59059SOL    HW183782  11.563   5.102   7.406  1.0563 -1.5861  2.3806
59059SOL    HW283783  11.475   5.024   7.312  0.9722  3.2179 -1.9828
59060SOL     OW83784  12.485   9.230   7.470  0.1908  0.2045  0.3649
59060SOL    HW183785  12.534   9.237   7.553  0.2297 -0.6321  0.4251
59060SOL    HW283786  12.398   9.199   7.496  0.0196  0.4993  0.1452
59061SOL     OW83787  12.634   1.396   3.479  0.0030 -0.4629  0.4475
59061SOL    HW183788  12.714   1.439   3.510 -0.9553  0.4505  1.7932
59061SOL    HW283789  12.664   1.313   3.443  1.8318  0.9354 -1.4746
59062SOL     OW83790  10.515   7.949   3.333  0.3537 -0.0572  0.3556
59062SOL    HW183791  10.599   7.983   3.362  0.7328  0.6616 -1.4300
59062SOL    HW283792  10.517   7.959   3.238 -1.9466  0.4758  0.3006
59063SOL     OW83793  12.782   4.966   1.247 -0.5623  0.0977  0.0250
59063SOL    HW183794  12.767   4.873   1.228 -1.9935  0.2435  0.3184
59063SOL    HW283795  12.829   4.966   1.330 -0.5820 -0.3636  0.0389
59064SOL     OW83796  11.214   9.214   1.204 -0.0007 -0.3930  0.0552
59064SOL    HW183797  11.141   9.272   1.225  0.3611  0.0510  0.0974
59064SOL    HW283798  11.224   9.221   1.109 -0.7594 -1.3561 -0.1139
59065SOL     OW83799   4.695  11.767   4.872  0.1857  0.0857 -0.0812
59065SOL    HW183800   4.642  11.705   4.823 -2.1213  0.7741  1.3800
59065SOL    HW283801   4.766  11.790   4.813 -0.5234 -1.7094 -1.7339
59066SOL     OW83802   0.362  10.634   0.468 -0.6069 -0.0771  0.4962
59066SOL    HW183803   0.344  10.560   0.526 -1.9043 -1.1450 -1.1867
59066SOL    HW283804   0.276  10.671   0.448 -0.4875 -1.0828 -2.3704
59067SOL     OW83805  11.634   9.173   9.795 -0.4518  0.1303  0.2814
59067SOL    HW183806  11.724   9.140   9.791 -0.8793 -1.2120  1.0658
59067SOL    HW283807  11.590   9.115   9.857 -1.7004  1.1754  0.4148
59068SOL     OW83808  11.941   9.985   3.419 -0.0053 -0.0287 -0.1468
59068SOL    HW183809  11.917   9.926   3.491  1.9843  0.2260  0.7822
59068SOL    HW283810  12.035   9.996   3.427  0.5672 -1.0552 -3.6368
59069SOL     OW83811   9.942  12.144   8.413  0.5111  0.0779 -0.0185
59069SOL    HW183812   9.976  12.133   8.502  0.2082  0.5360  0.1542
59069SOL    HW283813   9.897  12.228   8.415 -1.1421 -0.7746 -0.0949
59070SOL     OW83814   3.992   4.392   4.468 -0.2746 -0.1173  0.0327
59070SOL    HW183815   4.069   4.447   4.483 -0.0954 -0.1876 -0.5883
59070SOL    HW283816   3.956   4.423   4.384 -0.8840 -0.1287  0.2829
59071SOL     OW83817  12.281   6.904   5.760 -0.1577 -0.6288 -0.4034
59071SOL    HW183818  12.279   6.981   5.816  0.0705 -1.6840  1.1118
59071SOL    HW283819  12.222   6.925   5.688 -0.2848  0.8528  0.1076
59072SOL     OW83820  11.926   3.472   0.734  0.1143 -0.4445  0.1057
59072SOL    HW183821  11.853   3.483   0.795  0.2841 -1.3080  0.4890
59072SOL    HW283822  11.942   3.378   0.733  0.3991 -0.3917 -0.9524
59073SOL     OW83823   6.448   5.595   1.864  0.0585  0.1986  0.2851
59073SOL    HW183824   6.437   5.634   1.951  1.3547 -0.5353  0.7975
59073SOL    HW283825   6.420   5.664   1.804 -0.9535  0.6829  1.2729
59074SOL     OW83826   3.475   8.392   1.616 -0.3196  0.4554  0.5044
59074SOL    HW183827   3.483   8.383   1.711 -3.1352 -1.9455  0.6780
59074SOL    HW283828   3.381   8.380   1.600 -0.1553  2.3015 -2.4974
59075SOL     OW83829   8.212   9.586   4.840 -0.3331  0.1977  0.0886
59075SOL    HW183830   8.219   9.607   4.747 -1.3553  0.4428  0.0603
59075SOL    HW283831   8.229   9.492   4.844  1.2582  0.4396 -0.1398
59076SOL     OW83832   2.581  12.609   1.790  0.5633  0.5278  0.3237
59076SOL    HW183833   2.598  12.530   1.841  0.5630  0.6930  0.5816
59076SOL    HW283834   2.629  12.596   1.709 -0.5251 -0.3433 -0.2151
59077SOL     OW83835  12.424   6.371   2.438 -0.0756  0.5241 -0.2681
59077SOL    HW183836  12.343   6.413   2.468  0.4615  0.4506  1.4140
59077SOL    HW283837  12.404   6.277   2.440  0.1584  0.4811  0.5729
59078SOL     OW83838  11.407   4.643   0.432 -0.1749 -0.0480  0.2022
59078SOL    HW183839  11.406   4.738   0.423 -0.5931 -0.2000 -1.7831
59078SOL    HW283840  11.498   4.622   0.453 -0.1515  0.8074  1.0217
59079SOL     OW83841   5.269  10.868   7.054 -0.1981 -0.2738  0.4591
59079SOL    HW183842   5.287  10.784   7.011 -0.8414 -0.5260  0.6669
59079SOL    HW283843   5.232  10.923   6.984  0.0018 -0.2463  0.3768
59080SOL     OW83844   8.264   8.244   9.184 -0.0786 -0.1661  0.1036
59080SOL    HW183845   8.307   8.217   9.102  0.9486 -0.8776  0.8505
59080SOL    HW283846   8.171   8.224   9.170 -0.0830  0.6381 -1.2424
59081SOL     OW83847   2.641  11.840   9.480 -0.4834  0.3409 -0.0312
59081SOL    HW183848   2.678  11.756   9.450 -1.0316 -0.0861  0.4813
59081SOL    HW283849   2.697  11.866   9.553 -0.7897  0.0300  0.3141
59082SOL     OW83850   5.805   7.271  10.235 -0.3378 -0.4333 -0.1112
59082SOL    HW183851   5.818   7.347  10.178  0.6992 -0.0469  0.5924
59082SOL    HW283852   5.765   7.205  10.179 -0.7185  0.4355 -0.8876
59083SOL     OW83853   5.392  11.812  11.623  0.0511  0.3580 -0.7304
59083SOL    HW183854   5.429  11.875  11.561 -0.2528 -0.1228 -1.4214
59083SOL    HW283855   5.303  11.796  11.590 -0.2817  0.4285  0.0910
59084SOL     OW83856   8.597   8.442   2.836 -0.2008 -0.0588  0.5515
59084SOL    HW183857   8.579   8.494   2.914 -0.7808  1.4158 -0.5193
59084SOL    HW283858   8.513   8.438   2.790 -0.2408 -2.2128  0.7242
59085SOL     OW83859   2.729   6.311   7.406  0.1528 -0.3559 -0.1224
59085SOL    HW183860   2.824   6.298   7.408 -0.1958 -4.4242 -0.0549
59085SOL    HW283861   2.695   6.243   7.465 -2.8455  0.6914 -0.4832
59086SOL     OW83862   1.542  12.345   1.917  0.3425  0.1452  0.3072
59086SOL    HW183863   1.521  12.435   1.944  0.6974  0.2738  0.1625
59086SOL    HW283864   1.466  12.318   1.865  0.6045  0.6806 -0.3827
59087SOL     OW83865   9.380  11.393   8.295  0.1917  0.0117 -0.0933
59087SOL    HW183866   9.400  11.465   8.356 -0.0129  0.6808 -0.7911
59087SOL    HW283867   9.461  11.381   8.246  0.1335 -0.0304 -0.1786
59088SOL     OW83868   6.076  11.211   8.556  0.1063 -0.0358  0.2689
59088SOL    HW183869   6.139  11.274   8.592  1.8670 -0.6515 -1.5331
59088SOL    HW283870   6.013  11.264   8.509  1.2146  0.4602 -0.7058
59089SOL     OW83871   0.793   7.846   1.513 -0.1306  0.2527 -0.0078
59089SOL    HW183872   0.789   7.938   1.486  0.9326  0.0356 -0.9861
59089SOL    HW283873   0.853   7.844   1.587 -1.2692  0.5219  0.9625
59090SOL     OW83874   0.635   2.565   3.046  0.2440  0.2868  0.1052
59090SOL    HW183875   0.699   2.568   3.117  1.2975 -1.6975 -0.6720
59090SOL    HW283876   0.648   2.479   3.006 -1.7490  0.5250 -1.1836
59091SOL     OW83877   9.780   1.727   5.655 -0.2031 -0.7265 -0.2750
59091SOL    HW183878   9.861   1.731   5.605  1.1142 -3.2697  1.4164
59091SOL    HW283879   9.748   1.638   5.642 -2.6229  0.1184 -0.6346
59092SOL     OW83880  10.116   4.217   9.657 -0.1943  0.1615 -0.3430
59092SOL    HW183881  10.149   4.222   9.567 -0.3870  2.6013 -0.3544
59092SOL    HW283882  10.193   4.233   9.711 -0.1094 -1.1438 -0.0541
59093SOL     OW83883   5.454   1.118   6.932  0.2495 -0.3901 -0.2738
59093SOL    HW183884   5.437   1.036   6.979 -0.4609 -1.2059 -1.8617
59093SOL    HW283885   5.485   1.090   6.846 -0.4046  1.0112 -0.9948
59094SOL     OW83886   1.019  12.182   7.556 -0.7091  0.3406 -0.0663
59094SOL    HW183887   1.111  12.168   7.532 -0.6019 -0.1606  0.5950
59094SOL    HW283888   0.995  12.103   7.606 -1.9978 -0.3350 -1.6359
59095SOL     OW83889   0.873   5.421   0.308 -0.0086 -0.1716  0.2146
59095SOL    HW183890   0.885   5.515   0.321 -3.7006  0.4003  0.6055
59095SOL    HW283891   0.889   5.382   0.394 -0.3890  0.3630  0.5294
59096SOL     OW83892   8.146  10.348  11.235  0.2751 -0.0062  0.2625
59096SOL    HW183893   8.235  10.376  11.211  0.0970 -0.4682 -1.0362
59096SOL    HW283894   8.101  10.429  11.258  0.8584  0.3064  0.3255
59097SOL     OW83895   7.243   9.276   8.512 -0.0207 -0.4404  0.4492
59097SOL    HW183896   7.239   9.191   8.467 -1.1440 -0.0158 -0.3215
59097SOL    HW283897   7.157   9.285   8.552  0.1725  0.2237  0.7265
59098SOL     OW83898   3.303   4.162  10.187  0.0680  0.0780  0.0877
59098SOL    HW183899   3.295   4.126  10.098  1.0270  0.6734 -0.2549
59098SOL    HW283900   3.307   4.084  10.243 -0.6754 -0.3048 -0.3633
59099SOL     OW83901  11.458   8.405  10.871 -0.3017  0.0818 -0.1865
59099SOL    HW183902  11.534   8.456  10.896 -0.2514  0.0371 -0.2504
59099SOL    HW283903  11.461   8.328  10.929  0.7169 -0.8406 -1.4229
59100SOL     OW83904   2.098   8.814   2.060 -0.1787  0.2441 -0.6648
59100SOL    HW183905   2.019   8.823   2.113  0.2211 -1.1083  0.2074
59100SOL    HW283906   2.135   8.902   2.057 -2.2940  1.1673 -2.0741
59101SOL     OW83907   2.628  12.520  12.078 -0.3028 -0.4579  0.2165
59101SOL    HW183908   2.578  12.563  12.147  0.8411  2.2856 -0.5266
59101SOL    HW283909   2.570  12.518  12.003 -0.2315  0.2104  0.1391
59102SOL     OW83910   0.259   9.183   0.561  0.0491  0.0503 -0.2490
59102SOL    HW183911   0.333   9.224   0.517 -0.2351  1.3622  0.4580
59102SOL    HW283912   0.219   9.127   0.494  3.4329 -3.2489  0.1324
59103SOL     OW83913   2.732   3.317   1.010 -0.0111  0.5166 -0.3594
59103SOL    HW183914   2.802   3.306   0.946  0.5831  0.7091  0.2363
59103SOL    HW283915   2.766   3.275   1.089 -0.8090  0.1144 -0.2285
59104SOL     OW83916   9.446   0.119   5.832 -0.1407 -0.2555 -0.1836
59104SOL    HW183917   9.406   0.036   5.856 -0.9534  0.2148  0.1192
59104SOL    HW283918   9.374   0.172   5.798  0.2950  0.4571 -0.0187
59105SOL     OW83919   4.213   8.267  11.812 -0.0503 -0.7013 -0.1837
59105SOL    HW183920   4.221   8.186  11.862 -2.0425 -1.5687 -1.1497
59105SOL    HW283921   4.294   8.271  11.761 -0.2533 -2.5490 -0.7257
59106SOL     OW83922  10.214  11.254  12.345  0.5182  0.6358  0.7936
59106SOL    HW183923  10.305  11.272  12.370  0.6673  0.6914  0.2244
59106SOL    HW283924  10.213  11.160  12.324 -0.7579 -0.8439  5.9782
59107SOL     OW83925   7.616   6.590   9.123  0.0517 -0.4430  0.3961
59107SOL    HW183926   7.527   6.572   9.150  0.5953 -1.3919  1.6416
59107SOL    HW283927   7.651   6.646   9.193  0.4908 -0.2549  0.0296
59108SOL     OW83928   4.695  12.448   6.945  0.0258 -0.0591 -0.3876
59108SOL    HW183929   4.677  12.525   6.891  0.0993 -0.7526 -1.4337
59108SOL    HW283930   4.660  12.374   6.894 -0.6189 -0.6670  0.8713
59109SOL     OW83931   1.679   4.616  12.046  0.6738 -0.0401 -0.3866
59109SOL    HW183932   1.758   4.608  11.992  1.3735  0.8835  0.4444
59109SOL    HW283933   1.674   4.533  12.093  1.7185  0.2395  0.2553
59110SOL     OW83934   4.927   1.992  11.394  0.1246 -0.1350  0.1631
59110SOL    HW183935   4.941   1.959  11.483  0.7418 -2.0368 -0.5912
59110SOL    HW283936   4.982   2.070  11.388  0.5880 -0.3652  1.2366
59111SOL     OW83937   3.347  10.368   1.764  0.2595 -0.0564  0.6149
59111SOL    HW183938   3.403  10.348   1.839  0.5430  0.7015  0.6186
59111SOL    HW283939   3.336  10.463   1.768 -0.7203 -0.1489  0.3922
59112SOL     OW83940   5.679   2.258   7.828  0.4569 -0.0040 -0.4434
59112SOL    HW183941   5.598   2.300   7.801  1.1921  0.9612 -1.2406
59112SOL    HW283942   5.720   2.322   7.888  0.2975 -0.7902  0.5245
59113SOL     OW83943   8.643   1.881  10.628 -0.2419  0.0259 -0.2997
59113SOL    HW183944   8.552   1.913  10.631 -0.5519 -0.4249 -2.6589
59113SOL    HW283945   8.635   1.786  10.624  0.3006 -0.0053 -0.8073
59114SOL     OW83946   8.362   0.726   2.954 -0.3390  0.3156  0.0652
59114SOL    HW183947   8.389   0.808   2.912 -0.1013  0.3027  0.1930
59114SOL    HW283948   8.276   0.708   2.917  0.0352  0.0908 -0.7338
59115SOL     OW83949   5.011   8.508   5.255  0.0039  0.3372  0.6627
59115SOL    HW183950   4.964   8.485   5.336  0.1855  1.0768  0.9867
59115SOL    HW283951   4.974   8.592   5.229 -1.5207 -0.8494 -1.1911
59116SOL     OW83952   0.732   8.260   8.439  0.4075 -0.0820 -0.6308
59116SOL    HW183953   0.746   8.191   8.375  1.1277  0.7066 -1.3529
59116SOL    HW283954   0.655   8.308   8.407 -0.9393 -1.3309  0.5977
59117SOL     OW83955   0.857  11.779   7.002 -0.2127  0.3161 -0.7564
59117SOL    HW183956   0.855  11.715   7.074 -0.6537 -0.1344 -1.1673
59117SOL    HW283957   0.900  11.856   7.040 -1.6486  0.5867  0.4149
59118SOL     OW83958   6.656   8.733  12.555 -0.0187 -0.2358 -0.3807
59118SOL    HW183959   6.597   8.787  12.503 -0.6588 -0.5501  0.0035
59118SOL    HW283960   6.611   8.724  12.640 -0.8387 -2.9047 -1.0145
59119SOL     OW83961   8.517   2.715   4.845  0.2336  0.1260  0.1673
59119SOL    HW183962   8.576   2.771   4.895  0.2797 -0.3075  0.5969
59119SOL    HW283963   8.488   2.771   4.773 -0.1903  0.9057  0.9204
59120SOL     OW83964   1.671   8.452  12.605  0.0198 -0.2983 -0.3012
59120SOL    HW183965   1.765   8.463  12.590 -0.1237  0.0812 -0.9236
59120SOL    HW283966   1.630   8.528  12.565 -0.7881 -1.8085 -2.5169
59121SOL     OW83967   8.126   7.583   7.023 -0.1244 -0.0266 -0.1411
59121SOL    HW183968   8.107   7.503   7.072  1.8610 -0.4357  0.0741
59121SOL    HW283969   8.099   7.654   7.081 -0.0276 -0.5350  0.5337
59122SOL     OW83970   6.953   5.839  11.544  0.4088  0.6242 -0.0465
59122SOL    HW183971   6.895   5.856  11.470  1.1543  1.0479 -0.5541
59122SOL    HW283972   6.915   5.890  11.616 -0.3132  0.2196 -0.1303
59123SOL     OW83973  10.702   8.070   9.199 -0.6258  0.3656 -0.4368
59123SOL    HW183974  10.708   7.982   9.163 -1.6480  0.4252 -0.8011
59123SOL    HW283975  10.745   8.127   9.135 -0.3906  0.1934 -0.4309
59124SOL     OW83976   4.425   7.808   6.321  0.4221 -0.1647 -0.3065
59124SOL    HW183977   4.433   7.744   6.391  0.2481  1.2239  1.0421
59124SOL    HW283978   4.408   7.891   6.366  1.4577  0.9954 -1.9280
59125SOL     OW83979   8.210   8.409  12.024 -0.2937 -0.4392 -0.5686
59125SOL    HW183980   8.146   8.442  11.960  2.0925 -0.7255 -3.2895
59125SOL    HW283981   8.158   8.352  12.082 -2.4837 -0.8665 -2.7594
59126SOL     OW83982   9.731   6.031  10.076  0.2102 -0.0895  0.4771
59126SOL    HW183983   9.817   5.999  10.047 -1.0249 -2.1104 -1.2192
59126SOL    HW283984   9.697   5.962  10.133 -0.6688  0.2625  0.3903
59127SOL     OW83985   5.580  12.441   5.786 -0.6078  0.3942  0.1953
59127SOL    HW183986   5.557  12.359   5.828 -1.6530 -0.5510 -2.0879
59127SOL    HW283987   5.496  12.481   5.761 -0.1008 -0.1269 -2.7652
59128SOL     OW83988   6.510  10.298   9.383 -0.1614 -0.2062 -0.2892
59128SOL    HW183989   6.508  10.392   9.404  0.0596 -0.4000  0.6180
59128SOL    HW283990   6.598  10.270   9.405 -0.5996 -0.8984  0.6372
59129SOL     OW83991   3.536   8.065   1.355 -0.1821  0.3445  0.0327
59129SOL    HW183992   3.575   8.152   1.348  1.7303 -0.6060 -3.0537
59129SOL    HW283993   3.464   8.066   1.293 -0.3819 -0.1772  0.2554
59130SOL     OW83994   1.995  11.560   3.304 -0.4164 -0.2119 -0.3895
59130SOL    HW183995   1.920  11.500   3.301 -3.4514  3.2320 -1.1059
59130SOL    HW283996   2.015  11.579   3.212 -0.8123  1.2346 -0.2030
59131SOL     OW83997   3.765   3.450  12.300 -0.2506 -0.4357  0.9094
59131SOL    HW183998   3.679   3.447  12.342 -0.3064  1.9316  1.1273
59131SOL    HW283999   3.827   3.426  12.369 -0.6809 -1.5569  0.9164
59132SOL     OW84000   3.239   6.102   1.944  0.7737  0.8090 -0.4801
59132SOL    HW184001   3.199   6.066   1.864  2.0148  0.2357 -0.8669
59132SOL    HW284002   3.169   6.098   2.009  0.1681 -0.0969 -1.1526
59133SOL     OW84003   2.621   3.960   6.213 -0.2177  0.3210 -0.4821
59133SOL    HW184004   2.608   3.869   6.188 -0.6037 -0.4520  2.1829
59133SOL    HW284005   2.652   3.956   6.304 -0.6445  2.8579 -0.1340
59134SOL     OW84006   0.446   2.300   1.900 -0.3059  0.4035  0.1161
59134SOL    HW184007   0.370   2.336   1.856  0.1693  1.0148 -0.2261
59134SOL    HW284008   0.470   2.366   1.966 -0.0708  0.2252  0.2111
59135SOL     OW84009   9.348   9.038   9.398 -0.3270 -0.0165 -0.2508
59135SOL    HW184010   9.293   8.963   9.421  0.3665 -0.9075 -1.3527
59135SOL    HW284011   9.305   9.077   9.321  0.5473 -0.7289 -1.1292
59136SOL     OW84012   9.278   3.228   3.299 -0.1811  0.7924 -0.0929
59136SOL    HW184013   9.364   3.266   3.316  0.1895  0.1322 -0.4593
59136SOL    HW284014   9.294   3.134   3.293 -0.7676  0.7348 -1.0885
59137SOL     OW84015   5.803  12.591   6.106  0.4325  0.5389  0.6598
59137SOL    HW184016   5.716  12.630   6.111 -0.0338 -0.5101  0.9335
59137SOL    HW284017   5.810  12.537   6.185  0.5480 -0.9409 -0.3290
59138SOL     OW84018   2.951  10.334   7.379 -0.3089 -0.3034 -0.4428
59138SOL    HW184019   2.955  10.300   7.290 -1.3714 -1.7734  0.0310
59138SOL    HW284020   2.860  10.361   7.391 -0.5243 -1.4366  0.6277
59139SOL     OW84021  11.221   6.823  12.366 -0.2229 -0.6451 -0.2572
59139SOL    HW184022  11.170   6.903  12.351  0.0517 -0.6407 -1.2595
59139SOL    HW284023  11.225   6.814  12.461 -0.7675  0.2066 -0.1445
59140SOL     OW84024  12.174   1.438   7.323 -0.2824 -0.1482  0.6993
59140SOL    HW184025  12.260   1.410   7.294  0.9059  2.7182  1.1499
59140SOL    HW284026  12.113   1.388   7.268  1.6548 -1.2324 -0.5938
59141SOL     OW84027   0.556   9.241   2.052  0.3364 -0.1000  0.0943
59141SOL    HW184028   0.583   9.166   2.104 -1.4969 -0.4915  0.5628
59141SOL    HW284029   0.522   9.203   1.971 -2.6730 -0.0605  1.2121
59142SOL     OW84030   8.912   5.195   0.649 -0.0963  0.4223  0.5261
59142SOL    HW184031   8.916   5.154   0.735  0.1543 -0.1645  0.2371
59142SOL    HW284032   8.963   5.276   0.658  2.0960 -0.8591  0.2612
59143SOL     OW84033   6.740   4.820   3.550  0.2204 -0.3706  0.3248
59143SOL    HW184034   6.667   4.828   3.489  1.3782 -0.0748 -1.1114
59143SOL    HW284035   6.726   4.889   3.614 -0.8745 -0.4724  0.2034
59144SOL     OW84036   5.839   6.571   4.213 -0.1716 -0.2574 -0.3674
59144SOL    HW184037   5.799   6.493   4.173  0.2546 -0.1567 -0.9939
59144SOL    HW284038   5.932   6.564   4.191  0.3769 -1.0113  1.9263
59145SOL     OW84039  10.341  12.736   7.673  0.1016 -0.2606  0.4964
59145SOL    HW184040  10.263  12.786   7.648 -0.6146 -1.1359  0.9113
59145SOL    HW284041  10.308  12.648   7.691  1.1614 -0.5929  0.8871
59146SOL     OW84042   8.912  11.131  10.345 -0.1365  0.0580 -0.1198
59146SOL    HW184043   8.957  11.165  10.268 -1.3132 -0.9995 -1.3215
59146SOL    HW284044   8.981  11.123  10.412  1.0244  0.4075 -1.2362
59147SOL     OW84045   3.191  11.087   2.668 -0.0807 -0.1403  0.6684
59147SOL    HW184046   3.247  11.103   2.745  0.8633 -2.1658  0.4636
59147SOL    HW284047   3.165  10.995   2.677 -0.4241 -0.2416 -1.1463
59148SOL     OW84048   4.164   0.592   8.897 -0.0047  0.1492 -0.3463
59148SOL    HW184049   4.218   0.601   8.819  1.4952 -0.0651  0.6170
59148SOL    HW284050   4.133   0.501   8.895 -0.1854  0.2219 -0.8241
59149SOL     OW84051  12.255  11.226   4.566  0.0443 -0.6063  0.4089
59149SOL    HW184052  12.226  11.134   4.562 -0.1585 -0.6264  1.9123
59149SOL    HW284053  12.321  11.228   4.635  2.0528 -0.1048 -1.4442
59150SOL     OW84054  10.547   8.619   4.512  0.3703  0.6642  0.7409
59150SOL    HW184055  10.625   8.615   4.568  1.8931 -1.8183 -1.3844
59150SOL    HW284056  10.478   8.581   4.566  1.5113 -0.5836  1.3836
59151SOL     OW84057  11.046  10.223   3.250 -0.0834  0.2374 -0.0145
59151SOL    HW184058  11.012  10.305   3.214  0.4489  0.5750  0.2570
59151SOL    HW284059  11.077  10.245   3.337  0.5903 -0.1321 -0.1552
59152SOL     OW84060  10.538   9.386   0.607 -0.2562 -0.0508 -0.3520
59152SOL    HW184061  10.488   9.441   0.668 -0.7386 -0.9230  0.0470
59152SOL    HW284062  10.611   9.353   0.658 -0.1960 -0.1179 -0.4806
59153SOL     OW84063   6.023   0.773   3.659  0.2108  0.5295 -0.1484
59153SOL    HW184064   5.964   0.744   3.589 -0.9953  1.7051  0.3242
59153SOL    HW284065   5.964   0.809   3.725  1.3541 -0.1426  1.2845
59154SOL     OW84066  12.011   7.660   5.205 -0.4967 -0.1456  0.0670
59154SOL    HW184067  12.072   7.731   5.224 -0.4044 -0.3347  0.5014
59154SOL    HW284068  11.956   7.693   5.135  0.1623 -0.0072 -0.3908
59155SOL     OW84069   8.691   6.932   5.440  0.5746  0.0415  0.0833
59155SOL    HW184070   8.597   6.916   5.436  0.3479  0.7687  1.7012
59155SOL    HW284071   8.730   6.845   5.439 -0.3023 -0.4522  2.3976
59156SOL     OW84072   2.743  11.116   3.727  0.2370  0.4786 -0.1138
59156SOL    HW184073   2.674  11.175   3.757  1.0269  0.4864  1.8522
59156SOL    HW284074   2.705  11.028   3.736  1.1435  0.2896  3.2967
59157SOL     OW84075   4.200   9.359  11.907  0.8719 -0.4225 -0.2641
59157SOL    HW184076   4.249   9.421  11.853 -1.5004 -0.5707 -2.7538
59157SOL    HW284077   4.172   9.291  11.846  0.2233 -1.9920  1.6892
59158SOL     OW84078  11.012  10.652   7.960  0.4458 -1.2335 -0.4688
59158SOL    HW184079  11.074  10.643   8.032  1.5005 -0.4990 -1.2523
59158SOL    HW284080  10.930  10.616   7.994  1.1950 -1.8922  0.7179
59159SOL     OW84081   3.814   4.853   8.651  0.2105  0.4776 -0.4798
59159SOL    HW184082   3.783   4.918   8.715 -2.2928 -0.4194 -0.6650
59159SOL    HW284083   3.903   4.832   8.680 -0.1103  1.5774  1.5145
59160SOL     OW84084   5.723   0.385  10.792  0.0084  0.2890 -0.0876
59160SOL    HW184085   5.814   0.376  10.821 -1.0344 -1.9332  3.1649
59160SOL    HW284086   5.710   0.311  10.732 -0.1848 -0.8864  1.3371
59161SOL     OW84087  10.367   2.823   4.204 -0.1164 -0.2566 -0.1605
59161SOL    HW184088  10.272   2.837   4.208  0.0160  0.8356 -0.5419
59161SOL    HW284089  10.393   2.859   4.119  0.7741  0.3215  0.3423
59162SOL     OW84090   1.426   2.684   4.437 -0.2966 -0.0937  0.2296
59162SOL    HW184091   1.473   2.607   4.404 -0.6268  0.3202 -1.2733
59162SOL    HW284092   1.479   2.714   4.510 -0.3956 -1.9924  1.1467
59163SOL     OW84093   0.168   8.702   9.619 -0.0232 -0.2344  0.1518
59163SOL    HW184094   0.113   8.664   9.551  0.1746 -0.1344 -0.0695
59163SOL    HW284095   0.196   8.786   9.582 -0.0214 -0.1199  0.4115
59164SOL     OW84096   0.597  12.052  10.125 -0.0897 -0.4359  0.2172
59164SOL    HW184097   0.557  12.092  10.202 -2.9815 -2.2291 -0.1801
59164SOL    HW284098   0.648  11.979  10.159  1.1230  0.5703  0.5977
59165SOL     OW84099  12.559   6.105  12.616 -0.2725 -0.1375  0.7637
59165SOL    HW184100  12.509   6.104  12.535 -0.8806 -0.2434  1.1341
59165SOL    HW284101  12.520   6.036  12.670 -1.4831  1.4668  2.0786
59166SOL     OW84102   8.972   9.289   6.685  0.1246 -0.0947 -0.0749
59166SOL    HW184103   8.933   9.284   6.772 -0.0960 -1.1701 -0.2218
59166SOL    HW284104   9.055   9.335   6.699  1.0085 -1.9007  1.0551
59167SOL     OW84105   6.310   0.930   6.178 -0.1815 -0.1376  0.3010
59167SOL    HW184106   6.288   0.997   6.243  2.2972 -0.4625  1.5948
59167SOL    HW284107   6.300   0.847   6.224 -0.2753 -0.4934 -0.3519
59168SOL     OW84108   6.791   3.326   2.412  0.1688  0.1734 -0.2394
59168SOL    HW184109   6.867   3.289   2.457 -0.5403 -1.6933 -0.4862
59168SOL    HW284110   6.800   3.296   2.321  0.0312  1.3928 -0.6672
59169SOL     OW84111  10.332  12.697   3.099 -0.0057 -0.1495 -0.0067
59169SOL    HW184112  10.326  12.792   3.112 -0.8766 -0.0238 -1.1382
59169SOL    HW284113  10.399  12.687   3.031 -1.2822 -0.1733 -1.3100
59170SOL     OW84114  10.142   4.561   7.506 -0.2220 -0.8627 -0.0919
59170SOL    HW184115  10.189   4.570   7.589  1.5419 -0.3139 -1.0929
59170SOL    HW284116  10.064   4.615   7.517  1.4994  1.7570  0.1805
59171SOL     OW84117   3.247   7.796   6.320 -0.1194 -0.2869  0.2877
59171SOL    HW184118   3.176   7.843   6.277  1.2622  0.4489 -1.2981
59171SOL    HW284119   3.205   7.721   6.362 -2.1172  1.3405  1.3409
59172SOL     OW84120   5.422   6.536  12.505 -0.3757  0.4683 -0.5206
59172SOL    HW184121   5.435   6.612  12.562  0.5710 -0.1813  0.1571
59172SOL    HW284122   5.511   6.511  12.479 -0.6234 -0.8042 -0.1883
59173SOL     OW84123   5.835   2.107   5.302 -0.0420  0.2648 -0.0841
59173SOL    HW184124   5.806   2.146   5.220  0.0047 -0.2498 -0.3469
59173SOL    HW284125   5.796   2.020   5.303 -1.5336  0.8993  1.2835
59174SOL     OW84126   6.919   9.187   7.532  0.0314  0.0646 -0.1078
59174SOL    HW184127   6.974   9.170   7.609  0.7383 -0.9539 -0.8116
59174SOL    HW284128   6.860   9.257   7.560  0.2773 -0.2721  1.3587
59175SOL     OW84129   9.335   4.054  12.775 -0.4380  0.1554 -0.0075
59175SOL    HW184130   9.378   4.094  12.700  0.6528  1.1163  1.0920
59175SOL    HW284131   9.317   4.127  12.835 -0.0234 -0.7534  1.2721
59176SOL     OW84132   4.114  10.826   2.774 -0.2379  0.2201 -0.1777
59176SOL    HW184133   4.058  10.902   2.766 -1.7352 -0.8331 -0.0394
59176SOL    HW284134   4.098  10.775   2.695 -0.4002 -0.6809  0.4182
59177SOL     OW84135   0.508  10.631   9.211 -0.4595  0.2840  0.4022
59177SOL    HW184136   0.542  10.705   9.261 -1.1212  0.0876  1.1565
59177SOL    HW284137   0.562  10.629   9.132  1.0786  0.1680  1.4158
59178SOL     OW84138  10.268   0.534  11.611  0.2514 -0.6142 -0.5374
59178SOL    HW184139  10.193   0.520  11.669  0.6244 -1.4639 -0.2589
59178SOL    HW284140  10.240   0.498  11.527 -0.0064 -0.0562 -0.6983
59179SOL     OW84141   8.570   4.254   9.367 -0.2293 -0.1313  0.2146
59179SOL    HW184142   8.605   4.192   9.304 -0.4005  0.8709 -0.8983
59179SOL    HW284143   8.630   4.329   9.362 -0.4567  0.1111  0.9776
59180SOL     OW84144  11.256   4.156  11.261 -0.7214 -0.2472  0.2644
59180SOL    HW184145  11.190   4.087  11.257 -0.9324 -0.0173 -0.3012
59180SOL    HW284146  11.262   4.178  11.354 -0.7668 -0.9143  0.4289
59181SOL     OW84147  12.623   6.492   2.599 -0.3156  0.1266  0.3056
59181SOL    HW184148  12.689   6.425   2.612 -1.1595 -0.4370  2.0224
59181SOL    HW284149  12.560   6.453   2.539  0.1322  0.1004 -0.1512
59182SOL     OW84150   8.800   8.017   3.472  0.0403  0.1727 -0.0324
59182SOL    HW184151   8.800   8.044   3.380 -0.1194 -0.8520 -0.3483
59182SOL    HW284152   8.881   8.052   3.507  0.8556 -0.6925 -0.9677
59183SOL     OW84153  11.223   1.512   9.752  0.3274 -0.6992  0.4959
59183SOL    HW184154  11.143   1.483   9.797  0.0531  2.7784  2.6121
59183SOL    HW284155  11.192   1.570   9.682  0.9595 -1.4821 -0.4553
59184SOL     OW84156   9.462  12.111   3.083 -0.0830  0.3592  0.1131
59184SOL    HW184157   9.443  12.145   3.170  0.3028 -0.0203  0.3506
59184SOL    HW284158   9.479  12.018   3.096  0.0505  0.3110 -0.3559
59185SOL     OW84159   7.125   5.641  12.715 -0.6503 -0.3490 -0.3507
59185SOL    HW184160   7.069   5.616  12.788 -1.7682 -1.2133 -1.4650
59185SOL    HW284161   7.129   5.563  12.659  0.1760  0.2869 -1.2139
59186SOL     OW84162   4.874   6.071   7.928 -0.2058  0.5264 -0.1640
59186SOL    HW184163   4.817   6.040   7.858 -0.3877 -1.5021  0.7974
59186SOL    HW284164   4.959   6.086   7.885  0.0900 -2.0737 -0.6584
59187SOL     OW84165   9.216   9.591  11.741  0.1308  0.2680 -0.1805
59187SOL    HW184166   9.183   9.504  11.717  2.0702 -0.6089  0.1384
59187SOL    HW284167   9.250   9.580  11.830 -0.1443  1.5453  0.1123
59188SOL     OW84168   8.226   9.250   6.423  0.1147 -0.2560 -0.4391
59188SOL    HW184169   8.258   9.282   6.507 -1.5064 -0.2676  0.2154
59188SOL    HW284170   8.245   9.322   6.362  1.7349 -0.4422 -0.2116
59189SOL     OW84171   9.663  10.049  10.086 -0.5543  0.1548 -0.8150
59189SOL    HW184172   9.722  10.084  10.153 -2.4316 -3.1009  2.9450
59189SOL    HW284173   9.700   9.963  10.064 -2.2647 -0.6676 -0.6195
59190SOL     OW84174   7.502   2.029   8.499 -0.4169  0.0893 -0.0426
59190SOL    HW184175   7.533   2.029   8.590 -0.6909 -0.3354  0.0501
59190SOL    HW284176   7.581   2.011   8.448  0.0770  1.9726 -0.0163
59191SOL     OW84177   3.017   8.048  10.583  0.3288  0.3274 -0.2490
59191SOL    HW184178   3.106   8.057  10.618 -0.0426  0.3989  0.6980
59191SOL    HW284179   3.014   7.959  10.547  0.6789  0.2053  0.0176
59192SOL     OW84180  10.070   8.163   7.428  0.9031 -0.4370 -0.1849
59192SOL    HW184181  10.104   8.138   7.342  1.6945 -0.7580  0.2157
59192SOL    HW284182  10.147   8.192   7.477  0.4454 -0.1821  0.3950
59193SOL     OW84183   4.273   3.420   3.598 -0.1965 -0.0570  0.2942
59193SOL    HW184184   4.220   3.492   3.632 -1.1832 -0.9900  0.8024
59193SOL    HW284185   4.356   3.460   3.573 -0.0682  0.9607  2.1977
59194SOL     OW84186   6.988   8.259   8.224 -0.1334  0.2088  0.2039
59194SOL    HW184187   7.049   8.292   8.159  0.5987 -1.8179 -0.1999
59194SOL    HW284188   7.041   8.205   8.283 -1.7277 -3.6744 -1.5587
59195SOL     OW84189   9.435   8.367   7.656  0.0025 -0.0475  0.1043
59195SOL    HW184190   9.361   8.424   7.636 -1.0801 -1.5159 -0.2332
59195SOL    HW284191   9.474   8.348   7.571  0.5870  0.4726  0.2521
59196SOL     OW84192   2.220   3.540  10.545 -0.3372 -0.6527 -0.1411
59196SOL    HW184193   2.196   3.632  10.544 -0.7743 -0.7425  0.8185
59196SOL    HW284194   2.161   3.500  10.608 -0.6783 -1.7477 -1.1065
59197SOL     OW84195   0.577  11.034   4.571 -0.0226 -0.1506  0.3543
59197SOL    HW184196   0.604  11.006   4.484 -0.1016  0.5566  0.0949
59197SOL    HW284197   0.481  11.031   4.568 -0.1008  1.6390 -0.2096
59198SOL     OW84198   8.125   3.899   2.056 -0.1379 -0.5816 -0.2521
59198SOL    HW184199   8.139   3.984   2.013 -0.2548 -0.2861  0.2977
59198SOL    HW284200   8.079   3.847   1.990 -0.0659 -0.2241 -0.5928
59199SOL     OW84201   4.960   0.670   1.279  0.6433 -1.1378 -0.3210
59199SOL    HW184202   4.875   0.701   1.248  0.9357  1.5417  1.2685
59199SOL    HW284203   5.014   0.666   1.200 -0.0482  0.4493 -0.9165
59200SOL     OW84204   9.926   3.887   7.690 -0.0527  0.3670  0.0467
59200SOL    HW184205   9.984   3.908   7.764 -0.4557 -0.9715  0.7832
59200SOL    HW284206   9.839   3.879   7.730 -0.4813  0.8001 -0.7828
59201SOL     OW84207  12.539   6.816   8.379  0.4500  0.3234 -0.2804
59201SOL    HW184208  12.521   6.735   8.331  2.0095 -0.3296  0.1619
59201SOL    HW284209  12.561   6.879   8.311  1.8710 -0.3836 -0.5284
59202SOL     OW84210   5.467   9.433   8.476  0.0023 -0.2516 -0.3270
59202SOL    HW184211   5.526   9.481   8.534  1.4129 -2.6170  0.3019
59202SOL    HW284212   5.403   9.393   8.535  0.5327 -1.4155 -0.5210
59203SOL     OW84213   8.443   9.865  11.252  0.2636 -0.1962 -0.3085
59203SOL    HW184214   8.421   9.950  11.289 -0.2228 -0.6683  0.5340
59203SOL    HW284215   8.427   9.873  11.158 -0.7510  0.3375 -0.0953
59204SOL     OW84216  10.439   8.960   8.433 -0.3900 -0.3354 -0.0283
59204SOL    HW184217  10.515   8.978   8.488  3.2110 -0.8277 -4.2446
59204SOL    HW284218  10.393   9.044   8.426  2.1796  1.1457 -0.4195
59205SOL     OW84219   1.226   5.294  12.786 -0.2145  0.2478 -0.2855
59205SOL    HW184220   1.264   5.380  12.767 -3.1908  2.0796  1.2981
59205SOL    HW284221   1.234   5.245  12.704  1.3909  2.0587 -1.2857
59206SOL     OW84222   2.214   9.305  11.895 -0.1331  0.0113  0.0559
59206SOL    HW184223   2.263   9.349  11.965 -2.1210  0.8710  0.9854
59206SOL    HW284224   2.188   9.221  11.933 -0.1003 -0.0763 -0.1146
59207SOL     OW84225   4.320   0.906   4.900  0.3424 -0.2424  0.1873
59207SOL    HW184226   4.226   0.924   4.893  0.4972  0.2167 -0.9756
59207SOL    HW284227   4.327   0.841   4.970 -0.8589 -0.4143  0.1715
59208SOL     OW84228   0.096   7.424   9.767  0.4243  0.1021  0.2759
59208SOL    HW184229   0.060   7.487   9.706  0.4005  0.7063  0.8975
59208SOL    HW284230   0.109   7.474   9.848  2.0132 -0.2564  0.2773
59209SOL     OW84231   9.602   8.481  11.688  0.1603  0.5457  0.1093
59209SOL    HW184232   9.690   8.471  11.723  0.5666  0.7549 -0.8192
59209SOL    HW284233   9.562   8.550  11.742 -0.0029 -0.6332  1.5564
59210SOL     OW84234  10.622   1.641   6.312  0.1472  0.2966 -0.3671
59210SOL    HW184235  10.642   1.717   6.256  1.1436  0.0740 -0.3276
59210SOL    HW284236  10.636   1.565   6.255  0.3554  0.0998 -0.0574
59211SOL     OW84237   6.186   1.581   3.362  0.0181 -1.3333  0.6662
59211SOL    HW184238   6.229   1.496   3.359 -1.4280 -2.0953  0.8629
59211SOL    HW284239   6.110   1.568   3.419 -0.1674  0.1252  0.8048
59212SOL     OW84240   0.961   9.628   8.124  0.0890 -0.2113  0.8020
59212SOL    HW184241   0.975   9.689   8.197  0.9779 -0.9541  1.2766
59212SOL    HW284242   1.049   9.609   8.092 -0.2314 -0.6708  0.1780
59213SOL     OW84243   1.730   7.467   8.197  0.3375 -0.2082  0.0016
59213SOL    HW184244   1.825   7.478   8.195  0.5925 -2.1155 -0.8639
59213SOL    HW284245   1.717   7.389   8.251 -0.6568 -0.5458 -0.7045
59214SOL     OW84246  10.644  11.723   7.384 -0.2586 -0.2319 -0.7026
59214SOL    HW184247  10.577  11.706   7.317 -0.6957 -0.6679 -0.1636
59214SOL    HW284248  10.702  11.787   7.344 -0.7104 -0.2325 -1.3747
59215SOL     OW84249   5.147   2.594  10.008  0.0748 -0.1992 -0.6141
59215SOL    HW184250   5.209   2.619  10.076  0.5792 -0.2267 -1.0536
59215SOL    HW284251   5.179   2.509   9.976 -0.4865 -0.4672 -0.4913
59216SOL     OW84252   1.341   4.465  10.302  0.2557  0.0402  0.3248
59216SOL    HW184253   1.368   4.374  10.310 -1.9220 -0.6302  0.7392
59216SOL    HW284254   1.327   4.479  10.209  3.3882  0.8980 -0.1204
59217SOL     OW84255  10.685   0.545   2.543 -0.3553  0.0480  0.0002
59217SOL    HW184256  10.610   0.605   2.548 -0.8361 -0.5835  0.6831
59217SOL    HW284257  10.720   0.543   2.632 -0.7077 -1.1161  0.1275
59218SOL     OW84258   5.345  12.608   3.831  0.0116 -0.9881  0.2104
59218SOL    HW184259   5.310  12.552   3.761  1.3741 -3.0804  1.1129
59218SOL    HW284260   5.270  12.620   3.890 -0.9810  0.2869 -1.2203
59219SOL     OW84261  11.651   2.873   3.097  0.2610 -0.1439 -0.0406
59219SOL    HW184262  11.707   2.876   3.175 -0.8876 -0.0178  0.8010
59219SOL    HW284263  11.610   2.786   3.101 -0.2999  0.1161 -0.1549
59220SOL     OW84264   9.157   5.686  11.042 -0.1472 -0.1913  0.5234
59220SOL    HW184265   9.165   5.760  11.103 -1.4236  1.3325 -1.0427
59220SOL    HW284266   9.244   5.679  11.003 -0.0481  0.6115  0.5733
59221SOL     OW84267   1.033  11.748   6.756 -0.1017  0.0386 -0.2071
59221SOL    HW184268   0.978  11.779   6.684  0.8698  1.5043 -0.3453
59221SOL    HW284269   0.996  11.789   6.834  0.3645  0.4701 -0.2092
59222SOL     OW84270  11.031  11.699   9.205 -0.3964  0.1283 -0.8564
59222SOL    HW184271  11.095  11.765   9.181  0.4991  0.2740  1.6413
59222SOL    HW284272  10.961  11.747   9.250  0.0202 -0.5214  0.5394
59223SOL     OW84273   6.247   6.484   6.060 -0.1932 -0.4892  0.0439
59223SOL    HW184274   6.262   6.465   6.153  0.2023  0.5135  0.1998
59223SOL    HW284275   6.292   6.413   6.014 -0.0518 -0.7805  0.6171
59224SOL     OW84276   9.385  12.154   2.632  0.1931  0.5602 -0.3475
59224SOL    HW184277   9.338  12.181   2.711  1.3119  4.0568 -0.7064
59224SOL    HW284278   9.317  12.135   2.568 -0.7300  1.1751  0.4251
59225SOL     OW84279   5.358   4.082   3.670 -0.7641 -0.1685 -0.1754
59225SOL    HW184280   5.310   4.033   3.737  1.8000 -1.0991  1.1228
59225SOL    HW284281   5.439   4.032   3.657  0.9293  2.4543 -0.5382
59226SOL     OW84282   8.388   3.852   9.310 -0.8100  0.9052 -0.4611
59226SOL    HW184283   8.348   3.791   9.373 -1.1805  2.8037  1.2588
59226SOL    HW284284   8.329   3.927   9.309 -0.0570  1.5056 -2.0540
59227SOL     OW84285   5.532   1.538   2.912  0.1744 -0.0132 -0.0120
59227SOL    HW184286   5.571   1.583   2.836  1.5404  0.6192  1.0166
59227SOL    HW284287   5.584   1.568   2.986 -1.3542 -0.3366  1.2478
59228SOL     OW84288   7.403   3.786  12.588  0.5641 -0.1376  0.3420
59228SOL    HW184289   7.382   3.865  12.638  1.4915  0.9856 -0.9609
59228SOL    HW284290   7.338   3.721  12.616 -0.7784  1.3512  0.8010
59229SOL     OW84291   0.804   9.292   3.089  0.5319  0.2261  0.2474
59229SOL    HW184292   0.820   9.384   3.108 -1.7168  0.8266 -0.4592
59229SOL    HW284293   0.821   9.283   2.995  1.8720 -0.3865  0.5253
59230SOL     OW84294   7.734   1.439   4.276  0.1696 -0.0377  0.4639
59230SOL    HW184295   7.680   1.362   4.258  1.4345 -0.5409 -1.5324
59230SOL    HW284296   7.824   1.405   4.275  0.7236  1.3730  0.0656
59231SOL     OW84297  12.671  12.272   6.307 -0.2727 -0.2465 -0.1257
59231SOL    HW184298  12.648  12.205   6.242  1.5066 -0.0467 -1.0311
59231SOL    HW284299  12.680  12.352   6.255  0.5360  0.0531  0.4631
59232SOL     OW84300   9.439   0.936   8.909 -0.0601  0.2337  0.3823
59232SOL    HW184301   9.474   0.999   8.972 -3.1742  1.5738  0.9273
59232SOL    HW284302   9.396   0.870   8.963 -0.5516 -0.0067 -0.2980
59233SOL     OW84303   8.057   3.017   5.572  0.2322  0.8442 -0.3155
59233SOL    HW184304   8.083   3.070   5.648  1.1483  0.8120 -0.5883
59233SOL    HW284305   8.041   2.930   5.608 -0.9891  1.2129  0.0896
59234SOL     OW84306   3.358   1.345   7.624  0.2673 -0.0329 -0.2832
59234SOL    HW184307   3.437   1.400   7.616  1.4152 -1.2293  1.9059
59234SOL    HW284308   3.387   1.258   7.597 -0.5570 -0.3145 -0.2701
59235SOL     OW84309   3.607  12.318   4.592 -0.3878  0.1306 -0.2150
59235SOL    HW184310   3.610  12.252   4.660  1.4112  0.7111  0.3228
59235SOL    HW284311   3.517  12.350   4.593 -1.2332 -2.1235 -0.3549
59236SOL     OW84312   1.792   7.032   1.885  0.0149 -0.3008  0.0852
59236SOL    HW184313   1.880   7.032   1.846 -0.8636  0.3861 -2.0035
59236SOL    HW284314   1.739   6.981   1.825 -1.3431  0.5420  0.5243
59237SOL     OW84315   0.340   0.406   5.459 -0.0165  0.4170 -0.4400
59237SOL    HW184316   0.248   0.387   5.441 -0.3793 -0.1367  1.6931
59237SOL    HW284317   0.365   0.343   5.526  2.8943 -1.5561 -3.1053
59238SOL     OW84318   5.786   0.006   7.172  0.6072  0.5737 -0.5916
59238SOL    HW184319   5.770  -0.084   7.201 -0.5998  0.7311 -0.7288
59238SOL    HW284320   5.880   0.020   7.189  0.4917 -0.1803  0.8831
59239SOL     OW84321   7.164   4.290  10.515 -0.1567 -0.4337 -0.1618
59239SOL    HW184322   7.104   4.330  10.453  0.2495  0.0820 -0.2338
59239SOL    HW284323   7.209   4.364  10.556  1.8511 -0.8064 -1.5230
59240SOL     OW84324  11.341  10.309   3.110 -0.4635  0.5205  0.4253
59240SOL    HW184325  11.310  10.329   3.199 -1.6283  0.7817 -0.0147
59240SOL    HW284326  11.370  10.218   3.115  1.8704  1.2443  1.6639
59241SOL     OW84327   2.627   8.696   9.755  0.0995  0.3500 -0.0121
59241SOL    HW184328   2.672   8.772   9.791  1.4935 -0.7972  0.7768
59241SOL    HW284329   2.534   8.715   9.769  0.4706  1.3322  1.4034
59242SOL     OW84330   9.953  10.358  10.942 -0.3820  0.0999  0.0269
59242SOL    HW184331   9.861  10.371  10.921 -0.3594 -1.0554 -0.9115
59242SOL    HW284332   9.998  10.431  10.900 -0.6856 -0.4021 -1.2252
59243SOL     OW84333   2.687   9.181   0.825 -0.4042  0.2424 -0.0182
59243SOL    HW184334   2.733   9.097   0.823  0.2110  0.5917 -1.2122
59243SOL    HW284335   2.614   9.170   0.765  0.1154  0.7824 -0.7762
59244SOL     OW84336  11.537   1.816   8.806 -0.1780  0.0287  0.0610
59244SOL    HW184337  11.595   1.765   8.749  0.5345 -1.7270  2.2125
59244SOL    HW284338  11.485   1.750   8.852 -0.6437  1.3494  1.5045
59245SOL     OW84339  12.319   7.596   5.485  0.2613 -0.1156  0.1657
59245SOL    HW184340  12.365   7.530   5.434  0.2840  0.9087 -1.1917
59245SOL    HW284341  12.362   7.594   5.571  0.9040 -1.1703 -0.1687
59246SOL     OW84342   6.996  12.205   5.626  0.0836  0.0716 -0.0809
59246SOL    HW184343   6.912  12.186   5.585  0.6628 -2.1986 -0.3770
59246SOL    HW284344   7.059  12.152   5.577  1.5096  0.8324  0.8624
59247SOL     OW84345  10.244   5.997  11.899 -0.3892  0.1923  0.5259
59247SOL    HW184346  10.266   6.064  11.834 -2.4460  1.3577  0.9329
59247SOL    HW284347  10.311   6.006  11.967  1.2009 -0.3660 -0.9301
59248SOL     OW84348  11.804   2.861   9.494 -0.1897 -0.2370 -0.0229
59248SOL    HW184349  11.828   2.768   9.494 -0.5819 -0.3495 -0.9442
59248SOL    HW284350  11.721   2.864   9.542 -0.2823 -0.3902 -0.1717
59249SOL     OW84351   6.261   4.739  11.593 -0.8531  0.2447  0.3505
59249SOL    HW184352   6.206   4.789  11.533 -2.3897 -1.1741  0.4963
59249SOL    HW284353   6.209   4.661  11.613  0.4430 -0.2491  1.9946
59250SOL     OW84354  11.087  12.057   2.486  0.0217  0.2886  0.5957
59250SOL    HW184355  11.083  12.126   2.553 -0.8432  1.4211 -0.5837
59250SOL    HW284356  11.065  11.976   2.533 -0.6796  1.0731  1.6521
59251SOL     OW84357   9.776   7.017   1.662  0.1040 -0.2522 -0.1652
59251SOL    HW184358   9.713   6.981   1.723  0.7492  0.2994  0.8482
59251SOL    HW284359   9.789   6.947   1.597 -2.0921 -0.0926 -0.8472
59252SOL     OW84360  11.662  11.990   3.868 -0.5694  0.2898  0.2948
59252SOL    HW184361  11.735  11.989   3.930  0.1723  0.6720 -0.5679
59252SOL    HW284362  11.699  11.958   3.786 -1.6561 -0.6645  0.1409
59253SOL     OW84363  12.767  12.128   9.132  0.0447 -0.4742 -0.2336
59253SOL    HW184364  12.763  12.150   9.039  0.0973 -0.7400 -0.3005
59253SOL    HW284365  12.806  12.205   9.174  0.8988 -0.7200 -0.5609
59254SOL     OW84366   5.779  12.328   8.298 -0.2286  0.3282 -0.5109
59254SOL    HW184367   5.714  12.390   8.267  1.4022  1.5714 -1.5731
59254SOL    HW284368   5.846  12.381   8.340  0.5985 -0.8266 -0.3083
59255SOL     OW84369  12.081   6.346   0.130  0.1698  0.5587  0.3693
59255SOL    HW184370  11.993   6.380   0.114  0.0907  0.8130  1.2940
59255SOL    HW284371  12.086   6.336   0.225  0.7943 -0.4119  0.2471
59256SOL     OW84372   8.660  10.879   4.775 -0.3372 -0.7803 -0.4066
59256SOL    HW184373   8.698  10.840   4.697 -0.1721 -0.0419 -0.7000
59256SOL    HW284374   8.566  10.885   4.756 -0.2263 -0.1063 -0.7720
59257SOL     OW84375   0.295  12.512   3.267  0.6459 -0.2393  0.0180
59257SOL    HW184376   0.328  12.423   3.253  0.0376 -0.1948 -2.1394
59257SOL    HW284377   0.351  12.567   3.212 -1.7613  0.0552 -2.3532
59258SOL     OW84378   0.491   2.241   0.435  0.2216 -0.1420 -0.2896
59258SOL    HW184379   0.582   2.259   0.455 -0.5314  1.7303  1.8522
59258SOL    HW284380   0.453   2.212   0.518 -1.4195  0.4101 -0.8012
59259SOL     OW84381   5.248   3.695   3.693 -0.0019  0.3447  0.4395
59259SOL    HW184382   5.323   3.711   3.635  1.0250  2.9980  2.2937
59259SOL    HW284383   5.217   3.783   3.716 -1.7212 -0.6451  2.1900
59260SOL     OW84384   9.465   8.969   7.140 -0.6788 -0.2897 -0.1668
59260SOL    HW184385   9.561   8.968   7.131 -0.6924  0.7475 -0.5490
59260SOL    HW284386   9.445   8.889   7.189  0.5915  0.4943  1.7761
59261SOL     OW84387   4.234   8.608   8.265  0.0726 -0.1155  0.0376
59261SOL    HW184388   4.307   8.546   8.259 -0.9099 -1.1847 -1.2477
59261SOL    HW284389   4.166   8.560   8.312  0.5082  1.2556  2.2378
59262SOL     OW84390   3.080   3.436   0.306 -0.7030 -0.2960 -0.2609
59262SOL    HW184391   3.134   3.436   0.227 -0.2714  0.6367  0.0193
59262SOL    HW284392   3.045   3.347   0.311  0.9034 -0.9697 -0.3786
59263SOL     OW84393   3.716   0.961  10.958 -0.7986 -0.4995  0.2926
59263SOL    HW184394   3.632   0.917  10.964 -0.6762 -0.8005 -0.1059
59263SOL    HW284395   3.699   1.039  10.904 -0.5869 -1.2084 -0.8468
59264SOL     OW84396  11.725   8.470   5.548 -0.4317 -0.5062  0.3187
59264SOL    HW184397  11.794   8.534   5.562 -2.0337  1.0421  1.4710
59264SOL    HW284398  11.655   8.497   5.607 -1.2066 -3.2995  0.8158
59265SOL     OW84399   6.926   6.658   2.122  0.4337 -0.2039 -0.2673
59265SOL    HW184400   6.861   6.722   2.150  1.8757  0.8788  0.7125
59265SOL    HW284401   6.971   6.700   2.048 -0.1476 -1.0803 -1.1521
59266SOL     OW84402  12.367  11.170   0.258  0.0421 -0.7474 -0.3176
59266SOL    HW184403  12.276  11.179   0.289  0.2457  0.3616  0.0044
59266SOL    HW284404  12.361  11.179   0.163 -0.5702 -4.0047 -0.6905
59267SOL     OW84405   3.594   3.544   9.921 -0.1425  0.5060 -0.3025
59267SOL    HW184406   3.587   3.598  10.000  1.5173  0.3537 -0.0230
59267SOL    HW284407   3.687   3.549   9.897 -0.5771  0.3977 -2.1423
59268SOL     OW84408   0.302   6.783   7.768 -0.5296 -0.6536 -0.1672
59268SOL    HW184409   0.281   6.691   7.783 -0.6733 -0.3920  1.5025
59268SOL    HW284410   0.265   6.804   7.682 -2.1308 -1.6678  0.2386
59269SOL     OW84411  11.209  11.181   5.072  0.3121  0.8430  0.5101
59269SOL    HW184412  11.217  11.099   5.122  1.1887  0.7035  0.1560
59269SOL    HW284413  11.163  11.241   5.132 -2.0054 -0.4164  0.1269
59270SOL     OW84414   4.833   4.449   6.369 -0.2017  0.2095  0.1239
59270SOL    HW184415   4.770   4.399   6.421  0.9276  0.4395  1.7557
59270SOL    HW284416   4.896   4.384   6.339  0.9759  0.5064  1.8168
59271SOL     OW84417   4.011   9.250   2.623 -0.8159 -0.1414  0.7159
59271SOL    HW184418   3.948   9.201   2.675 -2.1841  1.4339  0.6113
59271SOL    HW284419   3.991   9.342   2.640  0.4611  0.4120 -0.5160
59272SOL     OW84420   0.786  11.918   6.766  0.1828  0.4476  0.2752
59272SOL    HW184421   0.774  11.850   6.832  0.2422  0.7595  0.6108
59272SOL    HW284422   0.798  11.870   6.684  3.2144 -0.1129  0.8991
59273SOL     OW84423  12.643   2.196   3.383  0.1990  0.2029 -0.0698
59273SOL    HW184424  12.587   2.131   3.340 -1.3557  1.5874 -0.2441
59273SOL    HW284425  12.731   2.175   3.353 -0.5713 -0.2183 -2.2759
59274SOL     OW84426   7.216   5.462   9.932 -0.2083  0.3918  0.5983
59274SOL    HW184427   7.225   5.520   9.856  1.9389 -1.1206 -0.3809
59274SOL    HW284428   7.293   5.481   9.986  0.3109 -1.2002  0.4665
59275SOL     OW84429   6.138   0.662   7.315 -0.0485  0.4802 -0.2643
59275SOL    HW184430   6.191   0.715   7.255  1.8780 -0.3401  0.6288
59275SOL    HW284431   6.193   0.653   7.393 -0.6574 -2.1144 -0.0541
59276SOL     OW84432  12.656   4.439   8.070 -0.0615 -0.7343 -0.3398
59276SOL    HW184433  12.600   4.394   8.133 -0.7544 -0.4912 -0.7731
59276SOL    HW284434  12.599   4.504   8.029  0.7813  0.1766 -0.1047
59277SOL     OW84435   1.304  12.217   6.378 -0.0173 -0.2109 -0.2173
59277SOL    HW184436   1.326  12.294   6.325 -0.7018  0.7714  0.8784
59277SOL    HW284437   1.323  12.244   6.468  0.5095 -1.6235  0.1302
59278SOL     OW84438  12.086   8.712   3.287  0.2713  0.5832 -0.0271
59278SOL    HW184439  12.144   8.636   3.282 -0.9104 -0.5162  1.8255
59278SOL    HW284440  12.121   8.764   3.360 -0.0778  0.8151 -0.0221
59279SOL     OW84441   0.540  10.646   2.025  0.2658 -0.0985  0.1416
59279SOL    HW184442   0.554  10.562   2.069  0.8484 -0.2008 -0.2275
59279SOL    HW284443   0.508  10.704   2.094 -3.1126 -1.3619 -0.1146
59280SOL     OW84444   6.864   3.247   6.282  0.1390 -0.7867 -0.1459
59280SOL    HW184445   6.829   3.240   6.371  0.6305 -0.6970  0.0571
59280SOL    HW284446   6.954   3.279   6.294  0.6207 -1.9356 -0.5954
59281SOL     OW84447  12.569  10.389   7.096 -0.2379 -0.6571  0.6120
59281SOL    HW184448  12.579  10.445   7.019 -1.1433 -1.0040  0.2279
59281SOL    HW284449  12.538  10.305   7.061 -1.8810 -0.4425  1.4360
59282SOL     OW84450   5.173   0.480   3.735  0.3446 -0.4778 -0.0408
59282SOL    HW184451   5.088   0.438   3.752 -0.0160  0.0800 -0.4378
59282SOL    HW284452   5.225   0.412   3.693 -0.5370 -0.2893 -1.5125
59283SOL     OW84453  11.898   2.400   4.767 -0.9857  0.5913 -0.3667
59283SOL    HW184454  11.819   2.345   4.764 -0.2570 -0.4749 -2.2035
59283SOL    HW284455  11.911   2.426   4.676 -1.3315  3.9908  0.4425
59284SOL     OW84456   9.996   2.824  11.647 -0.8123 -0.2973 -0.1478
59284SOL    HW184457   9.978   2.870  11.565 -1.2801  1.6333  0.9628
59284SOL    HW284458   9.944   2.871  11.712 -0.5011 -1.8230  1.2467
59285SOL     OW84459   1.925   6.779   8.613 -0.3987 -0.5797 -0.0581
59285SOL    HW184460   1.872   6.704   8.640 -2.7262  0.8430 -0.4070
59285SOL    HW284461   1.907   6.846   8.680  1.7161 -0.3187  0.3127
59286SOL     OW84462   5.761   7.638   1.545  0.8645 -0.0830  0.3315
59286SOL    HW184463   5.742   7.726   1.511  3.6145  0.1678 -0.8943
59286SOL    HW284464   5.815   7.598   1.476 -0.0202 -2.6336  1.0245
59287SOL     OW84465   8.607   4.368   3.975 -0.5912  0.0122 -0.5819
59287SOL    HW184466   8.565   4.365   4.061  0.9490 -0.9451  0.1750
59287SOL    HW284467   8.639   4.278   3.961  0.7083  0.5679 -1.3618
59288SOL     OW84468   3.374   8.567   7.418 -0.0328 -0.3245 -0.1125
59288SOL    HW184469   3.333   8.481   7.429 -0.2939 -0.1364  0.4237
59288SOL    HW284470   3.303   8.623   7.389  0.1123 -0.2641 -0.3488
59289SOL     OW84471   8.115   9.683   6.742  0.1833  0.0668  0.0134
59289SOL    HW184472   8.167   9.761   6.757 -0.2734  0.8221 -1.9730
59289SOL    HW284473   8.031   9.716   6.711 -0.4110 -1.1980  0.1953
59290SOL     OW84474   3.006  11.587  12.469  0.1478 -0.2112  0.3124
59290SOL    HW184475   3.060  11.531  12.524 -0.0709 -0.0549  0.6916
59290SOL    HW284476   2.929  11.605  12.522  0.5619  1.0788  0.5127
59291SOL     OW84477  11.884   1.313   1.202  0.2139 -0.5355  0.4973
59291SOL    HW184478  11.973   1.296   1.170 -0.8370 -3.0938 -1.3830
59291SOL    HW284479  11.870   1.248   1.270 -0.3600 -0.3910  0.5210
59292SOL     OW84480   6.956   4.789   2.374 -0.0266  0.3436  0.2243
59292SOL    HW184481   7.041   4.833   2.367 -0.5347  1.1848 -1.1982
59292SOL    HW284482   6.923   4.787   2.284 -0.5774 -1.9129  0.4182
59293SOL     OW84483   4.734  11.692   9.589  0.5269  0.1035 -0.3165
59293SOL    HW184484   4.780  11.752   9.531  0.7742  1.2603  1.0141
59293SOL    HW284485   4.646  11.729   9.597  0.6760  0.2969  0.5001
59294SOL     OW84486   7.986   8.500  11.904 -0.2686 -0.2747 -0.1235
59294SOL    HW184487   8.004   8.580  11.854  0.5252 -0.3853 -0.0238
59294SOL    HW284488   7.935   8.445  11.845 -1.6193  0.6649  0.1145
59295SOL     OW84489   9.517   9.305   3.410 -0.4369  0.3072  0.4824
59295SOL    HW184490   9.527   9.244   3.483  2.0463  0.2773  0.1916
59295SOL    HW284491   9.569   9.267   3.340 -0.5630  1.7151 -0.4070
59296SOL     OW84492  11.352   4.086  12.484  0.5010  0.2628 -0.5727
59296SOL    HW184493  11.445   4.083  12.506  0.1810 -0.6589  0.8328
59296SOL    HW284494  11.311   4.026  12.547 -1.1339  1.2266 -0.6640
59297SOL     OW84495  12.488   7.115   7.500 -0.5115 -0.5054 -0.3608
59297SOL    HW184496  12.487   7.128   7.594 -1.0369  0.1246 -0.4472
59297SOL    HW284497  12.397   7.125   7.473 -0.8828 -3.4289 -0.5866
59298SOL     OW84498  11.558   0.868   3.447  0.3542  0.1496 -0.2017
59298SOL    HW184499  11.557   0.875   3.351  1.3667 -1.2962 -0.3617
59298SOL    HW284500  11.534   0.955   3.478  2.5061  1.4236 -1.7756
59299SOL     OW84501   3.538  10.786   6.784 -0.1906  0.3263 -0.1811
59299SOL    HW184502   3.451  10.763   6.817 -0.8179 -0.2544 -2.1056
59299SOL    HW284503   3.594  10.714   6.810 -1.1412 -1.2046 -2.0993
59300SOL     OW84504  10.272   1.922  11.208 -0.4125 -0.2066 -0.1151
59300SOL    HW184505  10.349   1.940  11.154  0.6460 -0.7024  1.1771
59300SOL    HW284506  10.283   1.830  11.235 -0.8390  0.0683  1.0478
59301SOL     OW84507  12.294   5.044   5.551  0.1708 -0.3950 -0.1623
59301SOL    HW184508  12.246   4.967   5.520  0.0963 -0.5179  0.2512
59301SOL    HW284509  12.245   5.072   5.629  0.3551 -0.0897 -0.1564
59302SOL     OW84510   6.965   1.009   1.680 -0.2849 -0.8733 -0.0145
59302SOL    HW184511   6.999   1.028   1.768 -1.3753 -0.1449  0.2765
59302SOL    HW284512   6.907   1.083   1.661 -1.5598 -1.9840 -0.5501
59303SOL     OW84513   1.492  10.808   4.036  0.5096  0.0235  0.1377
59303SOL    HW184514   1.519  10.815   4.127  0.7701 -0.9545  0.1462
59303SOL    HW284515   1.441  10.727   4.032 -0.3649  0.5840 -0.3829
59304SOL     OW84516   9.297  10.326   8.864  0.3114  0.0286 -0.4907
59304SOL    HW184517   9.329  10.244   8.902  0.1994 -0.5865 -1.6616
59304SOL    HW284518   9.346  10.335   8.782 -1.0125  0.1352 -1.3068
59305SOL     OW84519   6.831   7.195   6.375  0.1554 -0.6374  0.4762
59305SOL    HW184520   6.806   7.288   6.376  0.4314 -0.5427  2.0432
59305SOL    HW284521   6.845   7.174   6.467  0.2629 -2.2049  0.1235
59306SOL     OW84522   4.187  11.258   8.519  0.0443  0.0898  1.0072
59306SOL    HW184523   4.206  11.348   8.493  0.4751 -0.7100 -1.8758
59306SOL    HW284524   4.249  11.240   8.590  0.4272  1.8404  1.1656
59307SOL     OW84525  10.619   1.234   9.291 -0.6986 -0.4763 -0.2933
59307SOL    HW184526  10.643   1.294   9.362 -3.2546 -0.5233  0.6956
59307SOL    HW284527  10.617   1.147   9.332 -0.6663 -0.7386 -0.8282
59308SOL     OW84528   8.594   7.438  10.770 -0.2585  0.1442  0.5539
59308SOL    HW184529   8.639   7.520  10.788  1.6204 -0.2203 -1.8758
59308SOL    HW284530   8.512   7.464  10.727  0.5529  0.7688 -0.6511
59309SOL     OW84531   8.712   9.149   2.341 -0.3645  0.3885  0.0597
59309SOL    HW184532   8.799   9.125   2.371 -0.8971 -1.5650  0.1826
59309SOL    HW284533   8.702   9.106   2.256 -1.4972 -0.1017  0.4185
59310SOL     OW84534   4.609   6.833   2.146 -0.0323  0.1874 -0.1511
59310SOL    HW184535   4.659   6.781   2.209  0.7523  0.6544 -0.3705
59310SOL    HW284536   4.610   6.781   2.066  0.1064  0.2029 -0.1586
59311SOL     OW84537   2.995   2.188   0.768  0.0176  0.1903 -0.4084
59311SOL    HW184538   3.087   2.216   0.767  0.9422 -2.4268  1.0034
59311SOL    HW284539   2.947   2.265   0.799  1.8486  1.3608 -0.3200
59312SOL     OW84540  11.271  10.705  10.522  0.2831  0.1351  0.1145
59312SOL    HW184541  11.272  10.796  10.553  0.7386  0.3248 -0.4428
59312SOL    HW284542  11.231  10.709  10.436 -0.3589 -0.3014  0.3860
59313SOL     OW84543   6.274   9.718   9.200  0.3811  0.2833 -0.4536
59313SOL    HW184544   6.204   9.778   9.227  1.5292  0.9357  1.3393
59313SOL    HW284545   6.287   9.737   9.107 -2.5646 -0.7146 -1.1672
59314SOL     OW84546   2.969   8.177   9.908  0.1294  0.2173  0.0460
59314SOL    HW184547   2.924   8.099   9.874  2.4363 -1.1302 -0.1407
59314SOL    HW284548   3.023   8.207   9.834  1.4807  0.1901  0.9908
59315SOL     OW84549   8.885   0.399   2.216 -0.6759  0.4519 -0.2972
59315SOL    HW184550   8.844   0.454   2.149  0.7660 -0.8983 -2.4146
59315SOL    HW284551   8.979   0.410   2.201 -0.2563  0.9120  2.2540
59316SOL     OW84552   2.162  10.104  10.688 -0.6566  0.0731  0.0861
59316SOL    HW184553   2.083  10.116  10.742 -0.4237 -2.5446  1.1790
59316SOL    HW284554   2.232  10.092  10.751 -0.1560 -1.8796 -0.7812
59317SOL     OW84555   4.436   8.665   7.251 -0.0637  0.1415  0.0668
59317SOL    HW184556   4.506   8.707   7.201  0.3128 -0.3938  0.1387
59317SOL    HW284557   4.403   8.596   7.194  0.2237 -0.3327  0.4740
59318SOL     OW84558   0.317   8.655   3.000  0.4240 -0.0351 -0.1949
59318SOL    HW184559   0.297   8.562   2.994  0.8011 -0.0403 -1.8074
59318SOL    HW284560   0.273   8.684   3.080 -2.2559 -0.9756 -1.2254
59319SOL     OW84561   3.483   3.435   8.603  0.2482  0.2982  0.1315
59319SOL    HW184562   3.519   3.491   8.672 -1.4091  3.1287 -1.1250
59319SOL    HW284563   3.390   3.429   8.622  0.0166 -0.1257 -1.0271
59320SOL     OW84564   1.329   1.145   0.615 -0.2825 -0.0943  0.0008
59320SOL    HW184565   1.282   1.079   0.666 -0.9741 -1.2373 -1.9729
59320SOL    HW284566   1.261   1.205   0.585  0.4179  1.9927  2.2864
59321SOL     OW84567  11.870   7.820   9.599 -0.4480  0.0992 -0.2758
59321SOL    HW184568  11.950   7.872   9.610 -0.3787  0.0464 -0.5172
59321SOL    HW284569  11.833   7.849   9.516 -1.2319  0.8434  0.3209
59322SOL     OW84570   9.155   8.668   4.689  0.0598 -0.2530 -0.0502
59322SOL    HW184571   9.194   8.600   4.633  1.5430  1.4945 -1.2383
59322SOL    HW284572   9.211   8.669   4.767  0.3415 -0.0615 -0.2528
59323SOL     OW84573   4.207   6.311  10.565 -0.0677  0.5934  0.1642
59323SOL    HW184574   4.194   6.245  10.496 -0.0896  1.3610 -0.5884
59323SOL    HW284575   4.119   6.340  10.586 -0.0003  1.1129 -0.2486
59324SOL     OW84576   1.556   3.445  11.012 -0.8756  0.2060 -0.3254
59324SOL    HW184577   1.491   3.460  11.081  0.5683 -0.9575  1.3688
59324SOL    HW284578   1.585   3.355  11.025  0.5242  0.4430 -1.5338
59325SOL     OW84579   5.220   4.483  12.169 -0.1122  1.2761 -0.2861
59325SOL    HW184580   5.142   4.466  12.115 -1.1910 -1.0677  1.8343
59325SOL    HW284581   5.292   4.488  12.105 -1.4868 -0.0697 -2.0574
59326SOL     OW84582   6.663   8.617   7.188  0.3130 -0.8311  0.3252
59326SOL    HW184583   6.580   8.584   7.223 -0.4479  1.6135  1.0034
59326SOL    HW284584   6.654   8.610   7.093 -0.1055 -1.7957  0.4237
59327SOL     OW84585   8.302   5.912  11.555  0.1543  0.5334 -0.6014
59327SOL    HW184586   8.395   5.893  11.550  0.0709  0.4596 -2.4707
59327SOL    HW284587   8.269   5.895  11.467 -1.6461  0.4734  0.0483
59328SOL     OW84588   6.615   6.546   7.220  0.0291 -1.1573 -0.1756
59328SOL    HW184589   6.582   6.457   7.237 -0.9394 -0.7737  0.0058
59328SOL    HW284590   6.641   6.544   7.128  0.6621 -1.8198  0.0038
59329SOL     OW84591  12.160   8.142   9.354  0.3605  0.5770  0.6594
59329SOL    HW184592  12.210   8.061   9.366  0.1383  0.3282 -0.0372
59329SOL    HW284593  12.134   8.141   9.262  0.3147  1.4201  0.6506
59330SOL     OW84594   4.916  11.822   2.494  0.1707  0.8067 -0.6828
59330SOL    HW184595   4.851  11.876   2.540 -0.5324 -1.0646  0.6281
59330SOL    HW284596   4.980  11.886   2.460 -0.8503  2.4883  0.3950
59331SOL     OW84597   3.548  11.704   0.313  0.6247  0.2066 -0.0200
59331SOL    HW184598   3.489  11.708   0.389 -0.0154  0.8355 -0.5338
59331SOL    HW284599   3.518  11.627   0.264  0.4973  0.2854 -0.0658
59332SOL     OW84600  10.835  10.662   1.741 -0.3227 -0.1173 -0.0506
59332SOL    HW184601  10.895  10.640   1.813 -1.6470 -0.9221  0.8488
59332SOL    HW284602  10.847  10.757   1.730 -1.7468  0.5282  2.8793
59333SOL     OW84603   1.277   2.024   8.884  0.6211  0.0231  0.2231
59333SOL    HW184604   1.182   2.030   8.897  0.5618  1.1241 -0.5959
59333SOL    HW284605   1.314   2.085   8.947  0.8173 -0.5571  0.6852
59334SOL     OW84606   9.188  11.207   7.586 -0.2018 -0.7196 -0.3841
59334SOL    HW184607   9.212  11.206   7.679  1.2816  2.3416 -0.6211
59334SOL    HW284608   9.262  11.164   7.542  0.6348  0.6387 -0.3580
59335SOL     OW84609   2.778   3.683  10.182 -0.2529  0.1264 -0.1715
59335SOL    HW184610   2.744   3.738  10.111  1.6851  0.6793 -0.7287
59335SOL    HW284611   2.703   3.631  10.210 -1.6492  1.6308 -0.9867
59336SOL     OW84612  10.104   7.525   4.266 -0.3035  0.4715  0.1763
59336SOL    HW184613  10.123   7.536   4.173 -0.6550 -0.6446 -0.0481
59336SOL    HW284614  10.105   7.430   4.279 -1.6671  0.5523  1.0069
59337SOL     OW84615   4.615   9.256   9.446 -0.3231 -0.0800  0.1169
59337SOL    HW184616   4.532   9.243   9.399  0.1093  0.2299 -0.7528
59337SOL    HW284617   4.667   9.179   9.425  0.1569  0.4121 -0.5460
59338SOL     OW84618   8.563  12.383   9.007  0.4229 -0.2401  0.0240
59338SOL    HW184619   8.609  12.444   9.065  0.4763 -0.4638  0.2204
59338SOL    HW284620   8.504  12.335   9.065  1.8170 -1.7831  0.2408
59339SOL     OW84621   5.551   8.297  10.333 -0.0200  0.2121  0.1011
59339SOL    HW184622   5.469   8.247  10.335 -0.4782  0.9871  0.9644
59339SOL    HW284623   5.596   8.265  10.255 -1.7595  0.7471 -1.1703
59340SOL     OW84624   9.947   0.097  12.632  0.5014  0.1346 -0.3433
59340SOL    HW184625   9.919   0.053  12.552  1.8524 -0.5348 -0.4737
59340SOL    HW284626  10.029   0.054  12.656  1.3516  1.9015  0.0914
59341SOL     OW84627   6.649   1.540   2.776  0.3398 -0.1488 -0.0328
59341SOL    HW184628   6.703   1.561   2.700 -0.7900 -0.9697 -1.1091
59341SOL    HW284629   6.692   1.464   2.816 -0.1740 -1.0574 -1.1206
59342SOL     OW84630  10.395   7.709   1.309 -0.3524  0.1826 -0.2190
59342SOL    HW184631  10.410   7.621   1.275  0.5908 -0.0365  0.7049
59342SOL    HW284632  10.338   7.695   1.385 -1.1713  0.5007 -0.7661
59343SOL     OW84633  10.034  10.582   9.779 -0.2714  0.1707  0.4008
59343SOL    HW184634  10.050  10.497   9.737 -1.3035  0.8768 -1.5438
59343SOL    HW284635  10.121  10.623   9.784 -0.0652 -0.1260 -0.6229
59344SOL     OW84636   4.632   9.524   6.183  0.6901 -0.0055 -0.1887
59344SOL    HW184637   4.647   9.523   6.089  0.8255 -0.8478 -0.1631
59344SOL    HW284638   4.718   9.505   6.221  0.0654 -2.7265  0.0114
59345SOL     OW84639   8.824   9.638   9.478  0.3860 -0.5270 -0.1366
59345SOL    HW184640   8.801   9.554   9.518 -2.1214 -0.0025 -0.3434
59345SOL    HW284641   8.838   9.617   9.386  0.9479 -0.9000  0.0300
59346SOL     OW84642   4.700   4.256   8.045  0.5713  0.4962 -0.5323
59346SOL    HW184643   4.691   4.311   8.123 -0.2265  1.5741 -1.3503
59346SOL    HW284644   4.736   4.314   7.978 -1.0855  0.2946 -1.6614
59347SOL     OW84645   5.127   9.300   9.625 -0.2356 -0.1518 -0.0078
59347SOL    HW184646   5.210   9.346   9.615  0.3117 -1.2450 -0.6155
59347SOL    HW284647   5.060   9.366   9.604  0.4248  0.9100  1.0863
59348SOL     OW84648   2.736   8.096   2.211 -0.5289 -0.3628 -0.3887
59348SOL    HW184649   2.647   8.113   2.241 -1.3710  0.3641 -3.0202
59348SOL    HW284650   2.789   8.161   2.257 -1.5627  0.0324  0.2840
59349SOL     OW84651   1.193   1.793   1.837  0.1228  0.6773  0.3260
59349SOL    HW184652   1.189   1.731   1.764 -1.6112  1.9949 -0.7863
59349SOL    HW284653   1.282   1.786   1.870  0.5505 -0.9505 -1.0520
59350SOL     OW84654   6.507   7.756  12.545 -0.1662 -0.2679  0.3695
59350SOL    HW184655   6.558   7.806  12.609 -0.2968 -1.2721  1.2737
59350SOL    HW284656   6.419   7.755  12.581 -0.5573  0.3143 -0.5246
59351SOL     OW84657  12.271   9.242   9.491 -0.2203  0.0795 -0.3539
59351SOL    HW184658  12.317   9.239   9.575 -1.3323  1.7350  0.3717
59351SOL    HW284659  12.267   9.151   9.462  2.4738 -0.2540  0.0689
59352SOL     OW84660   5.720   3.885   9.267  0.5324 -0.3732  0.2504
59352SOL    HW184661   5.770   3.962   9.296  0.9947 -1.1713  1.6706
59352SOL    HW284662   5.656   3.871   9.337 -1.3708  0.2766 -1.2529
59353SOL     OW84663   8.460   4.391  12.229 -0.1663 -0.6614 -0.2608
59353SOL    HW184664   8.551   4.364  12.216 -0.6860 -2.9192  0.4231
59353SOL    HW284665   8.463   4.449  12.305  0.7596 -0.2779 -0.5705
59354SOL     OW84666   0.377   9.286   8.593  0.3133 -0.1875  0.2130
59354SOL    HW184667   0.443   9.271   8.661  1.0236  0.2146 -0.3632
59354SOL    HW284668   0.316   9.348   8.631  1.0727  0.5432  0.2683
59355SOL     OW84669   6.915  10.162   1.747  0.1933  0.0460  0.0942
59355SOL    HW184670   6.886  10.153   1.838 -0.1706 -0.5663 -0.0781
59355SOL    HW284671   6.834  10.168   1.696  0.3952  0.2933 -0.2015
59356SOL     OW84672   5.286   1.080   8.894 -0.2787 -0.3594 -0.3606
59356SOL    HW184673   5.256   1.015   8.958 -1.1307  2.3710  2.2189
59356SOL    HW284674   5.206   1.115   8.856  0.0040  1.0017  0.2604
59357SOL     OW84675  12.040   2.614   5.702  0.0116  0.2127  0.8976
59357SOL    HW184676  11.996   2.547   5.754 -1.3270  1.4207  1.3657
59357SOL    HW284677  11.984   2.624   5.624  0.1442  0.8606  0.8839
59358SOL     OW84678  12.452   3.563   2.519  0.1824 -0.1017 -0.1918
59358SOL    HW184679  12.435   3.656   2.535  2.7134  0.3201  0.4833
59358SOL    HW284680  12.546   3.553   2.535 -0.1863 -2.9825  0.7183
59359SOL     OW84681   7.154   8.954   1.778  0.4054  1.0522 -0.0926
59359SOL    HW184682   7.214   8.880   1.772 -0.6703  0.1792 -0.3552
59359SOL    HW284683   7.092   8.941   1.706 -0.6394  1.4359  0.7174
59360SOL     OW84684   3.863   9.164   2.188  0.1157  0.2425  0.2007
59360SOL    HW184685   3.917   9.086   2.176  0.2537  0.4323 -0.4710
59360SOL    HW284686   3.785   9.147   2.135  0.6575  1.0348 -0.9123
59361SOL     OW84687   2.587   9.852  10.208  0.1700 -1.1042 -0.0049
59361SOL    HW184688   2.669   9.877  10.250  0.0950 -0.3486 -0.2919
59361SOL    HW284689   2.612   9.829  10.118  0.0846 -0.9929 -0.0578
59362SOL     OW84690   7.748   7.174   2.170 -0.5230 -0.0283  0.5274
59362SOL    HW184691   7.732   7.205   2.260 -3.9149  0.4415 -0.1056
59362SOL    HW284692   7.722   7.082   2.172 -0.0652 -0.1710  0.1144
59363SOL     OW84693   4.435   9.101   1.919 -0.8188  0.2129 -0.4238
59363SOL    HW184694   4.359   9.115   1.975 -1.1817  0.0339 -0.8710
59363SOL    HW284695   4.509   9.097   1.980 -1.2753 -0.5798  0.1009
59364SOL     OW84696   7.276  11.440  11.411 -0.0218  0.8973  0.7634
59364SOL    HW184697   7.295  11.384  11.487  0.1469  1.8656  1.4595
59364SOL    HW284698   7.358  11.445  11.363 -0.8156 -2.0464 -1.1302
59365SOL     OW84699   0.297   9.255   2.180 -0.0102  0.0785 -0.3902
59365SOL    HW184700   0.309   9.176   2.232  2.5981  0.0066 -0.9456
59365SOL    HW284701   0.346   9.322   2.226 -0.2332  0.7798 -1.1421
59366SOL     OW84702   9.910   1.348   8.820 -0.1110 -0.1176 -0.0939
59366SOL    HW184703   9.847   1.299   8.874 -0.4481  1.0929  0.6601
59366SOL    HW284704   9.996   1.326   8.858 -0.1547 -1.0116 -0.5007
59367SOL     OW84705   6.012   8.491  12.128  0.5685  0.4748  0.4880
59367SOL    HW184706   6.071   8.450  12.065 -1.0284 -1.2806  0.0603
59367SOL    HW284707   6.042   8.460  12.213  1.4455  1.1886  0.4582
59368SOL     OW84708   3.960   7.566   8.739  0.7672 -0.0797 -0.1906
59368SOL    HW184709   3.866   7.575   8.725  0.5460  1.4901  1.8154
59368SOL    HW284710   3.998   7.574   8.652 -0.8913  0.2561 -0.9293
59369SOL     OW84711   7.911   7.936   6.677 -0.3759  0.0120 -0.3510
59369SOL    HW184712   7.984   7.901   6.727 -0.7279  0.5810  0.5656
59369SOL    HW284713   7.896   8.024   6.712  0.1894  0.9496 -2.3132
59370SOL     OW84714   9.509  11.392   3.306  0.2771 -0.0026  0.0476
59370SOL    HW184715   9.436  11.333   3.292 -0.1731 -0.2696  2.9171
59370SOL    HW284716   9.469  11.479   3.315  0.7151  0.4433 -1.8340
59371SOL     OW84717   1.980   5.056   5.430 -0.0368  0.5564 -0.0949
59371SOL    HW184718   2.056   5.106   5.403 -0.0540 -0.5226 -2.4478
59371SOL    HW284719   1.974   5.068   5.525  1.6099  2.5951 -0.2033
59372SOL     OW84720   0.299   4.503   7.351  0.4790 -0.4012 -0.6728
59372SOL    HW184721   0.235   4.565   7.315  0.9497  1.2623  1.1602
59372SOL    HW284722   0.382   4.529   7.310  0.2802 -1.5780 -1.8943
59373SOL     OW84723   0.311   1.363  11.056 -0.3953 -0.5260 -0.2632
59373SOL    HW184724   0.247   1.293  11.068 -1.0613 -0.0759 -1.0954
59373SOL    HW284725   0.395   1.324  11.080 -0.5926 -1.9453 -1.7560
59374SOL     OW84726   9.826  11.776   0.439 -0.1063 -0.3864 -0.1257
59374SOL    HW184727   9.791  11.720   0.369 -1.3005 -0.9187  0.8585
59374SOL    HW284728   9.793  11.737   0.519 -1.2538  1.9145  0.5963
59375SOL     OW84729   4.367   6.879  10.492  0.3095  0.4379  0.2443
59375SOL    HW184730   4.452   6.865  10.532 -0.0339 -0.9053  0.5374
59375SOL    HW284731   4.387   6.899  10.400  0.9014 -1.3596 -0.0536
59376SOL     OW84732   1.036  12.710   7.516  0.1220  0.5733  0.2252
59376SOL    HW184733   1.050  12.790   7.465 -0.2881 -0.3419 -1.3798
59376SOL    HW284734   1.121  12.691   7.556  0.5287  1.1526 -0.3531
59377SOL     OW84735   8.049   4.703   9.176  0.6017 -0.0722 -0.3171
59377SOL    HW184736   8.017   4.681   9.088 -0.4905 -1.6809  0.4243
59377SOL    HW284737   8.077   4.794   9.170 -1.3672  0.4952 -1.8274
59378SOL     OW84738   7.829   3.975   0.948 -0.4209  0.1030 -0.0449
59378SOL    HW184739   7.785   4.060   0.949  1.9230  1.4019  1.8659
59378SOL    HW284740   7.868   3.969   0.860  0.7884  1.8390  0.3232
59379SOL     OW84741   3.916   0.828   9.865  0.6956  0.6076  0.5914
59379SOL    HW184742   3.999   0.787   9.843  1.2103  2.0734 -0.3830
59379SOL    HW284743   3.939   0.918   9.889 -0.7101  1.5548 -1.2888
59380SOL     OW84744  10.252   4.352   2.232 -0.0636 -0.5653 -0.0441
59380SOL    HW184745  10.183   4.396   2.282 -1.6134 -1.2506 -1.4892
59380SOL    HW284746  10.221   4.263   2.221  0.9173 -0.8068 -0.9893
59381SOL     OW84747  12.367  12.556   7.733  0.1129  0.5340  0.1996
59381SOL    HW184748  12.382  12.580   7.824  0.2597 -0.1171  0.3527
59381SOL    HW284749  12.376  12.638   7.684 -1.0625  1.0990  0.8917
59382SOL     OW84750   6.661   6.810   2.243  0.2577 -0.2974 -0.1830
59382SOL    HW184751   6.699   6.888   2.203 -0.0607  0.3755  0.8005
59382SOL    HW284752   6.679   6.819   2.337 -0.0963 -1.2302 -0.0112
59383SOL     OW84753   0.418   7.259   3.268  0.3956 -0.0333  0.2982
59383SOL    HW184754   0.390   7.169   3.284  0.8355 -0.0374  1.0521
59383SOL    HW284755   0.356   7.313   3.317  1.3192 -0.0167  1.4744
59384SOL     OW84756   5.202  10.212  12.367  0.2720 -0.4210 -0.4199
59384SOL    HW184757   5.221  10.295  12.322  0.2589 -0.6763 -0.9044
59384SOL    HW284758   5.238  10.145  12.309 -1.2381 -0.8646 -0.8660
59385SOL     OW84759   6.186  11.584   4.873  0.3885 -0.7322 -0.4432
59385SOL    HW184760   6.185  11.596   4.968 -0.4761 -1.2072 -0.3785
59385SOL    HW284761   6.100  11.546   4.853 -0.8445  2.3329 -1.7763
59386SOL     OW84762   3.384   6.691   9.659  0.7226 -0.3788  0.1014
59386SOL    HW184763   3.398   6.623   9.593 -3.9262  1.0622 -2.8913
59386SOL    HW284764   3.386   6.773   9.609  0.2613  1.1223  2.4058
59387SOL     OW84765   0.753   6.589   9.273 -0.2915 -0.4040 -0.4622
59387SOL    HW184766   0.702   6.662   9.238  0.1704 -0.8555 -2.1290
59387SOL    HW284767   0.704   6.562   9.351 -1.3720  0.5967 -0.7584
59388SOL     OW84768   0.582   5.728   8.897 -0.1512  0.2257  0.4272
59388SOL    HW184769   0.662   5.691   8.859 -1.2710 -1.7896 -0.0713
59388SOL    HW284770   0.523   5.654   8.907 -1.2772  1.3301  2.6463
59389SOL     OW84771  12.151  11.796   1.655  0.1709  0.1031  0.5600
59389SOL    HW184772  12.085  11.728   1.638 -0.0672 -0.3476  2.9418
59389SOL    HW284773  12.106  11.859   1.711  0.5896  1.9695 -1.0920
59390SOL     OW84774   7.943   4.342  11.687  0.4016 -0.1802 -0.4602
59390SOL    HW184775   7.916   4.381  11.770  1.0125  0.2637 -0.4612
59390SOL    HW284776   7.934   4.248  11.700  0.8112 -0.1274  0.2251
59391SOL     OW84777   5.687  11.934   9.267 -0.1223 -0.1524 -0.3754
59391SOL    HW184778   5.620  11.959   9.330  0.0169  1.1185 -0.7054
59391SOL    HW284779   5.716  11.847   9.296 -0.0725  0.3873  1.2905
59392SOL     OW84780  11.416   0.553  10.879 -0.0482 -0.3759 -0.4290
59392SOL    HW184781  11.414   0.627  10.940  0.2511 -0.6407 -0.0894
59392SOL    HW284782  11.328   0.549  10.843 -0.6632 -1.0742  1.0381
59393SOL     OW84783   1.555   5.098   6.915  0.0155 -0.3035 -0.3648
59393SOL    HW184784   1.477   5.056   6.951 -0.0425 -0.4666 -0.6775
59393SOL    HW284785   1.628   5.059   6.962 -0.1282  0.2941  0.3653
59394SOL     OW84786   3.264   3.759   9.737 -0.6899 -0.5347  0.0499
59394SOL    HW184787   3.255   3.839   9.685 -0.1836 -0.6628 -0.2473
59394SOL    HW284788   3.193   3.703   9.706 -0.7085 -0.4088 -0.1399
59395SOL     OW84789   6.997   2.155   8.390  0.4082 -0.3764  0.1854
59395SOL    HW184790   7.019   2.088   8.455 -2.3494 -2.3832 -0.7355
59395SOL    HW284791   7.007   2.112   8.305  1.2060  1.2998 -0.6351
59396SOL     OW84792   2.595   2.981  11.111  0.2595 -0.0278  0.3335
59396SOL    HW184793   2.521   3.015  11.061  0.3513 -0.7994 -0.3532
59396SOL    HW284794   2.663   3.049  11.103  0.4865 -0.3872 -1.1093
59397SOL     OW84795   1.564   3.495  12.393 -0.1378 -0.6803  0.2417
59397SOL    HW184796   1.472   3.474  12.377 -0.0769 -0.8107  0.0536
59397SOL    HW284797   1.612   3.423  12.351  0.1705  0.9356 -2.4110
59398SOL     OW84798  10.182   2.050   5.761 -0.1757 -0.1356 -0.2675
59398SOL    HW184799  10.126   1.986   5.806 -0.4714  0.5705  0.3907
59398SOL    HW284800  10.267   2.006   5.754  0.3683  0.3049  2.4792
59399SOL     OW84801   4.033   6.555   8.770  0.2054 -0.1868 -0.1752
59399SOL    HW184802   4.086   6.478   8.790  0.6391  0.6421  2.2552
59399SOL    HW284803   4.097   6.619   8.737  0.3562  0.0442  0.5393
59400SOL     OW84804   0.547  11.599   7.782 -0.3269 -0.7343  0.4488
59400SOL    HW184805   0.560  11.694   7.780 -2.3972 -0.3485  2.4760
59400SOL    HW284806   0.572  11.570   7.694  1.4009  1.4985  0.1141
59401SOL     OW84807  12.168   1.650   6.200  0.1599 -0.3117  0.1867
59401SOL    HW184808  12.093   1.696   6.159 -2.1098 -3.3885  0.5199
59401SOL    HW284809  12.156   1.664   6.294  2.1082  2.0347  0.1657
59402SOL     OW84810   6.531   8.840   2.987 -0.2262 -0.0237 -0.0842
59402SOL    HW184811   6.623   8.838   2.961 -0.2864 -1.7984 -0.2552
59402SOL    HW284812   6.509   8.933   2.989  1.7369  0.4601  0.6160
59403SOL     OW84813   9.985   3.288  11.343 -0.2557  0.0854  0.4527
59403SOL    HW184814   9.966   3.335  11.424 -0.9901 -1.0441  0.9680
59403SOL    HW284815   9.991   3.356  11.276 -0.7576  0.9457  1.2622
59404SOL     OW84816   9.337   3.244   2.440  0.5111  0.2541 -0.0329
59404SOL    HW184817   9.316   3.291   2.522  0.3180  1.1701 -0.5899
59404SOL    HW284818   9.431   3.229   2.445  0.8690  2.0677 -0.5030
59405SOL     OW84819   3.306   4.853   9.061  0.8159 -0.3016  0.1336
59405SOL    HW184820   3.272   4.796   9.129 -1.5556  0.5184 -0.2616
59405SOL    HW284821   3.401   4.847   9.069  0.6548 -3.1973  0.9754
59406SOL     OW84822   9.873   5.320   4.241 -0.2648 -0.0364 -0.1954
59406SOL    HW184823   9.912   5.301   4.326  0.3401 -0.5603 -0.5829
59406SOL    HW284824   9.903   5.250   4.184  0.7915  1.2500 -1.2875
59407SOL     OW84825  12.313   4.703   0.643  0.4089  0.4826 -0.0959
59407SOL    HW184826  12.276   4.778   0.690  2.5244  1.7390 -0.3494
59407SOL    HW284827  12.281   4.713   0.553  0.4908  0.9442 -0.0768
59408SOL     OW84828  10.484   6.625  12.747 -0.1530  0.6977  0.3225
59408SOL    HW184829  10.552   6.583  12.799  1.2047  1.0435 -1.0905
59408SOL    HW284830  10.423   6.660  12.812  0.6612 -0.1767  1.6219
59409SOL     OW84831  10.923   4.959  12.615 -0.3372  0.6390 -0.2946
59409SOL    HW184832  10.849   5.002  12.572 -0.1765  0.1143 -1.1260
59409SOL    HW284833  10.993   4.961  12.550 -0.5508 -1.5320 -0.6752
59410SOL     OW84834   8.772  11.222   3.997 -0.2546 -0.4629 -0.1742
59410SOL    HW184835   8.733  11.299   3.956 -0.9267 -0.7410 -0.0819
59410SOL    HW284836   8.804  11.169   3.924  1.2516  0.4144 -0.1961
59411SOL     OW84837   4.333   7.798   4.686  0.0800  0.0007  0.4635
59411SOL    HW184838   4.371   7.853   4.619 -0.6733 -0.3994 -0.3119
59411SOL    HW284839   4.339   7.709   4.651 -3.6482  0.0901 -0.8284
59412SOL     OW84840   1.307   8.218   3.385  0.0826  0.4784 -0.8461
59412SOL    HW184841   1.297   8.307   3.419 -1.1772 -0.6221  2.0196
59412SOL    HW284842   1.384   8.184   3.431 -0.4429 -0.4392 -0.6379
59413SOL     OW84843   9.060   2.672  11.463  0.1517 -0.5200  0.0238
59413SOL    HW184844   9.014   2.636  11.538  0.8854 -0.0457  0.7120
59413SOL    HW284845   9.150   2.685  11.493  0.9245 -2.0152 -1.4734
59414SOL     OW84846  11.809  12.633   1.626 -0.2865  0.2125 -0.6113
59414SOL    HW184847  11.731  12.627   1.682 -0.3736 -1.1331 -0.8583
59414SOL    HW284848  11.852  12.714   1.654 -1.9049  1.1277 -0.6431
59415SOL     OW84849  11.945   6.482  12.262  0.1223  0.1613 -0.4399
59415SOL    HW184850  12.025   6.526  12.233  2.2103 -2.1538  1.4400
59415SOL    HW284851  11.915   6.434  12.184  3.5005 -2.9287 -0.0969
59416SOL     OW84852   5.142   8.483   3.779 -0.4847  0.1063 -0.5504
59416SOL    HW184853   5.062   8.511   3.823  0.8462  3.4586  0.0179
59416SOL    HW284854   5.213   8.516   3.834  1.2726  1.3816 -3.3513
59417SOL     OW84855   5.147   6.343   9.256 -0.2225 -0.4445  0.4099
59417SOL    HW184856   5.199   6.267   9.285 -0.2964 -0.2257  1.1514
59417SOL    HW284857   5.113   6.317   9.171  1.1867 -0.5590 -0.1525
59418SOL     OW84858   4.377   1.637   1.667 -0.3592  0.7221  0.5357
59418SOL    HW184859   4.371   1.603   1.578 -2.0802  1.3758  0.3774
59418SOL    HW284860   4.459   1.688   1.668 -0.1765  0.4582 -0.5749
59419SOL     OW84861   9.194   7.913   9.309  0.2423  0.4647  0.5195
59419SOL    HW184862   9.286   7.928   9.329 -0.0537  0.5213  1.9000
59419SOL    HW284863   9.181   7.819   9.322  0.2284  0.3571 -0.2305
59420SOL     OW84864   5.702  11.091   0.589 -0.4377  0.2843 -0.1002
59420SOL    HW184865   5.640  11.132   0.530  0.3498  0.9029 -0.5207
59420SOL    HW284866   5.709  11.152   0.663 -0.6994 -0.0256  0.1842
59421SOL     OW84867  11.886   1.411  11.087  0.0294  0.2120  0.0327
59421SOL    HW184868  11.875   1.416  11.182 -0.6894  0.3834 -0.0537
59421SOL    HW284869  11.838   1.332  11.061  0.4526  0.0146 -0.1565
59422SOL     OW84870  11.886   5.752   8.198  0.8153  0.5555  0.8508
59422SOL    HW184871  11.970   5.718   8.229  1.1659  0.7084  0.0830
59422SOL    HW284872  11.906   5.840   8.166  0.1904  0.9363  1.4788
59423SOL     OW84873  11.064  11.121   6.603 -0.2963  0.5080 -0.0268
59423SOL    HW184874  11.078  11.213   6.582  1.6773  0.1613 -0.4323
59423SOL    HW284875  11.097  11.112   6.693  0.1360  0.0968 -0.2167
59424SOL     OW84876   3.957   6.746   4.569 -0.7852  0.8238  0.0194
59424SOL    HW184877   3.866   6.729   4.595 -0.1999  0.0343  1.7247
59424SOL    HW284878   3.976   6.834   4.603 -1.1802  1.4076 -1.2071
59425SOL     OW84879   5.105   9.206   4.316 -0.0728 -0.0328 -0.6040
59425SOL    HW184880   5.110   9.302   4.319  0.2509 -0.0521 -0.4864
59425SOL    HW284881   5.149   9.177   4.396  1.3388 -0.3126 -1.4380
59426SOL     OW84882   3.272  11.740   0.121 -0.0707 -0.0928  0.4077
59426SOL    HW184883   3.312  11.772   0.040 -2.5431 -0.2219 -0.9602
59426SOL    HW284884   3.300  11.649   0.127 -0.0713 -0.1584 -0.4587
59427SOL     OW84885   9.456   8.474   2.808  0.5125  0.0094 -0.2144
59427SOL    HW184886   9.406   8.418   2.866  1.0548  0.0982  0.3469
59427SOL    HW284887   9.451   8.561   2.847  1.3060 -0.0245 -0.0086
59428SOL     OW84888   0.813  11.932   8.488 -0.1109 -0.4448  1.0030
59428SOL    HW184889   0.778  11.953   8.574 -0.3718 -0.3753  0.8798
59428SOL    HW284890   0.857  12.012   8.459 -3.2149  0.8733 -0.5464
59429SOL     OW84891   2.801   8.541   8.505 -0.0285 -0.4037  0.3702
59429SOL    HW184892   2.820   8.479   8.576 -0.7263 -0.3419  0.6207
59429SOL    HW284893   2.836   8.499   8.426  1.4734 -0.1121  0.8542
59430SOL     OW84894   7.760   9.699   1.331 -1.1890  0.5760  0.4022
59430SOL    HW184895   7.781   9.792   1.319 -1.5207  0.6518  0.4207
59430SOL    HW284896   7.784   9.659   1.247  0.6045  0.3757  0.9575
59431SOL     OW84897   5.047   9.152   0.678 -0.1217  0.6223 -0.1318
59431SOL    HW184898   5.141   9.135   0.683  0.0253  1.4800  0.1115
59431SOL    HW284899   5.038   9.245   0.699 -1.2566  0.0579  2.2016
59432SOL     OW84900   3.708   0.180  12.709 -0.3130  0.7698  0.0600
59432SOL    HW184901   3.741   0.138  12.629  1.7642  4.6575 -1.3906
59432SOL    HW284902   3.632   0.230  12.681 -0.1333  1.4289  0.7027
59433SOL     OW84903  10.034   0.585  12.298  0.3867 -0.1582 -0.1743
59433SOL    HW184904  10.020   0.520  12.367  0.2184 -1.0883 -1.0705
59433SOL    HW284905  10.121   0.621  12.316 -0.1576  0.5399  1.2619
59434SOL     OW84906   1.853   2.769   4.283  0.6112  0.0319  0.0812
59434SOL    HW184907   1.770   2.748   4.241  1.1843 -1.3580 -0.4111
59434SOL    HW284908   1.920   2.746   4.219  1.3763  2.5034 -0.1011
59435SOL     OW84909   3.895  11.340  11.768 -0.4563 -0.6123 -0.1058
59435SOL    HW184910   3.949  11.315  11.843 -0.8129  0.5347  0.5729
59435SOL    HW284911   3.957  11.353  11.696  0.3023  1.2999  0.8156
59436SOL     OW84912   6.924   0.560   1.751 -0.0508 -0.8738  0.3706
59436SOL    HW184913   6.938   0.572   1.845 -0.2436  1.2183  0.1848
59436SOL    HW284914   7.010   0.574   1.712 -0.0780 -1.1984  0.1916
59437SOL     OW84915  10.606   8.263  12.607 -0.1941  0.3708 -0.1358
59437SOL    HW184916  10.623   8.319  12.683 -1.6389  1.4137 -0.5348
59437SOL    HW284917  10.687   8.214  12.594  0.3451  0.7485  1.5952
59438SOL     OW84918   1.108   3.452  10.514 -0.4914 -0.0561 -0.3422
59438SOL    HW184919   1.176   3.411  10.567  0.7259  1.8283 -0.3949
59438SOL    HW284920   1.155   3.494  10.442 -2.0178 -1.7350 -2.4896
59439SOL     OW84921  10.918   3.004   4.708 -0.0391 -0.0361  0.2339
59439SOL    HW184922  10.887   3.051   4.630  0.7199 -0.2344 -0.1899
59439SOL    HW284923  11.010   2.985   4.690 -0.0164 -0.6104  0.9260
59440SOL     OW84924   2.510   8.486   3.675 -0.2992  0.0633 -0.4764
59440SOL    HW184925   2.467   8.504   3.759 -0.0766  1.0618 -0.5714
59440SOL    HW284926   2.573   8.417   3.695  1.8141  2.2266  0.8529
59441SOL     OW84927   2.142  12.178  11.996 -0.0588 -0.7739  0.4017
59441SOL    HW184928   2.052  12.181  11.962 -0.4782  1.1189  1.5156
59441SOL    HW284929   2.167  12.270  12.004  1.8964 -1.2736  0.3960
59442SOL     OW84930  12.453   1.825   7.005  0.3932 -0.0378 -0.2759
59442SOL    HW184931  12.444   1.775   6.925  0.6875 -1.9961  0.8537
59442SOL    HW284932  12.434   1.763   7.075  0.4462  1.5195  1.2039
59443SOL     OW84933   1.668   0.209   6.383 -0.7585 -0.1825  0.0769
59443SOL    HW184934   1.582   0.244   6.405 -0.2731  1.5378 -0.5795
59443SOL    HW284935   1.730   0.274   6.418  0.2459 -1.0293 -0.0751
59444SOL     OW84936  10.462   9.692  12.061  0.0658 -0.6535  0.0065
59444SOL    HW184937  10.418   9.632  12.002 -0.6437 -2.7744  2.5005
59444SOL    HW284938  10.528   9.639  12.106  2.9381  1.6551 -1.1541
59445SOL     OW84939  10.197   2.662   9.821  0.2290  0.6581  0.0825
59445SOL    HW184940  10.277   2.697   9.862  0.5643  0.6559 -0.5547
59445SOL    HW284941  10.150   2.740   9.792 -0.6249  0.7256  1.5712
59446SOL     OW84942   2.737   2.611   5.790 -0.0811 -0.0955  0.5724
59446SOL    HW184943   2.761   2.702   5.779  0.5472 -0.3442 -0.1962
59446SOL    HW284944   2.694   2.587   5.709  0.0105 -0.5541  0.6540
59447SOL     OW84945   5.073   3.279  12.476 -0.6247 -0.1148  0.4607
59447SOL    HW184946   5.097   3.368  12.451 -0.0289 -0.7670 -1.4827
59447SOL    HW284947   4.986   3.288  12.516 -2.3983  0.9780 -3.1697
59448SOL     OW84948   6.612   2.246   3.535  0.0830 -0.2953  0.1408
59448SOL    HW184949   6.582   2.178   3.595 -1.2173  0.2973  0.2078
59448SOL    HW284950   6.561   2.323   3.560 -0.1604  0.0871 -1.4289
59449SOL     OW84951   8.045   3.001   5.933 -0.2422 -0.0496  0.2002
59449SOL    HW184952   7.984   2.985   6.006 -1.0068  1.8948  0.0527
59449SOL    HW284953   8.006   3.075   5.887  1.7522  0.6077 -0.4922
59450SOL     OW84954   4.030   6.177   7.216 -0.6650 -0.3980 -0.0576
59450SOL    HW184955   3.992   6.190   7.129  0.5780  1.2445 -0.4124
59450SOL    HW284956   4.118   6.144   7.199 -0.5450 -0.4291  0.6008
59451SOL     OW84957   1.498   0.440  12.076  0.3478 -0.4141  0.0437
59451SOL    HW184958   1.538   0.423  11.991  1.1390 -1.7920  0.6534
59451SOL    HW284959   1.497   0.535  12.084 -2.8745  0.0147 -2.9378
59452SOL     OW84960  10.508   8.158   1.680  0.8989  0.9118 -0.2744
59452SOL    HW184961  10.466   8.244   1.673 -0.6683  0.5852  3.1948
59452SOL    HW284962  10.446   8.099   1.638  0.9653  1.1867 -0.7731
59453SOL     OW84963   4.977   3.323  10.499  0.0507 -0.7232  0.0026
59453SOL    HW184964   5.066   3.352  10.479 -1.1935  2.1186 -2.1812
59453SOL    HW284965   4.969   3.238  10.457  0.9890  0.1938 -2.1796
59454SOL     OW84966   3.916   7.143   4.372  0.0203  0.5605  0.9211
59454SOL    HW184967   3.889   7.090   4.447  1.5807  0.1903  1.2612
59454SOL    HW284968   3.904   7.233   4.401 -1.6502  0.4325  0.7224
59455SOL     OW84969   9.241   6.222  11.228 -0.0074  0.0452  0.4178
59455SOL    HW184970   9.213   6.142  11.185  2.4120 -1.0705  0.7496
59455SOL    HW284971   9.337   6.220  11.223  0.1580  2.6103  1.0022
59456SOL     OW84972   0.587   2.725   9.395  0.1820  0.5905 -0.5004
59456SOL    HW184973   0.587   2.820   9.385  2.6983  0.8854  1.3155
59456SOL    HW284974   0.679   2.700   9.394 -0.4180 -1.9455 -1.4683
59457SOL     OW84975   2.004   2.470  12.759  0.0602 -0.2222 -0.3456
59457SOL    HW184976   1.943   2.481  12.832  0.2304 -2.4224  0.2248
59457SOL    HW284977   2.001   2.553  12.711 -1.6963  0.5028  0.9216
59458SOL     OW84978   9.198   0.306   3.825  0.4161 -0.0374 -0.3493
59458SOL    HW184979   9.247   0.232   3.790  1.0363  0.3063 -0.2109
59458SOL    HW284980   9.259   0.380   3.823 -0.2225  0.5062 -0.5882
59459SOL     OW84981   3.314   6.085  11.872  0.1295  0.5140  0.2822
59459SOL    HW184982   3.296   6.134  11.791 -2.3493 -2.6036 -1.3115
59459SOL    HW284983   3.235   6.097  11.925 -0.6052 -1.6675 -0.2130
59460SOL     OW84984   7.986  12.641   0.938 -0.3776  0.4450 -0.0804
59460SOL    HW184985   7.992  12.599   0.852  0.4347  0.4808 -0.0478
59460SOL    HW284986   8.077  12.645   0.969 -0.8809 -3.0547  2.4430
59461SOL     OW84987   1.915   0.417   4.179  0.2295  0.0773 -0.1591
59461SOL    HW184988   1.915   0.451   4.268 -1.0197  1.4232 -0.6255
59461SOL    HW284989   1.990   0.459   4.137  0.7923 -0.5253  0.2331
59462SOL     OW84990   6.634   9.858  12.656  0.1258 -0.4258  0.3117
59462SOL    HW184991   6.687   9.854  12.577  0.1253  0.3741  0.2617
59462SOL    HW284992   6.682   9.806  12.721  0.7848 -0.0153  0.1602
59463SOL     OW84993   2.488  12.440   4.419  0.0743  0.6090 -0.2398
59463SOL    HW184994   2.519  12.530   4.425  1.9151  0.0742 -0.8989
59463SOL    HW284995   2.463  12.429   4.328 -0.4345  0.5368 -0.0932
59464SOL     OW84996  12.351  12.195  12.476 -0.0318  0.1356  0.1927
59464SOL    HW184997  12.320  12.212  12.565 -0.4412  1.7525 -0.2310
59464SOL    HW284998  12.384  12.280  12.446 -3.7126  0.7934 -2.6782
59465SOL     OW84999   2.645   7.277   3.584 -0.1331 -0.7065  0.6056
59465SOL    HW185000   2.641   7.341   3.655  2.3642  0.6386 -0.3345
59465SOL    HW285001   2.719   7.220   3.608  1.2861  0.2632 -1.1850
59466SOL     OW85002   9.805   6.725  12.562 -0.1417 -0.2413 -0.2605
59466SOL    HW185003   9.813   6.634  12.592 -0.3498 -0.2765 -0.3085
59466SOL    HW285004   9.774   6.772  12.639  1.4190  0.0748  0.2095
59467SOL     OW85005   1.890  10.248   8.900  0.2988 -0.0197 -0.0632
59467SOL    HW185006   1.882  10.155   8.881 -0.0089 -0.6952  2.9481
59467SOL    HW285007   1.800  10.279   8.909  0.3999 -0.1566  1.8073
59468SOL     OW85008  11.016   7.320  10.942 -0.3175 -0.1322 -0.4166
59468SOL    HW185009  10.971   7.309  10.859 -0.1405  0.8056 -0.6404
59468SOL    HW285010  11.069   7.399  10.931  1.0511 -0.9420 -0.0180
59469SOL     OW85011   5.759   8.062   9.257  0.0447 -0.2873 -0.3425
59469SOL    HW185012   5.748   8.064   9.352  1.6354 -1.4055 -0.0893
59469SOL    HW285013   5.839   8.111   9.241 -0.2093 -0.1124 -1.1058
59470SOL     OW85014   1.108   2.042   0.714  0.4154  0.2242  0.2884
59470SOL    HW185015   1.113   2.011   0.623  2.1502 -1.4146  0.8937
59470SOL    HW285016   1.154   2.126   0.713  0.1292  0.3857 -0.3964
59471SOL     OW85017   8.775   7.310  10.045  0.0589  0.1514  0.1323
59471SOL    HW185018   8.703   7.258  10.081  0.1546  0.4668  0.7904
59471SOL    HW285019   8.854   7.271  10.082  0.2196 -0.0306 -0.3864
59472SOL     OW85020   8.026  10.614   0.055  0.1661  0.0335  0.2803
59472SOL    HW185021   7.967  10.541   0.034  0.4301 -0.3790  0.9684
59472SOL    HW285022   8.021  10.670  -0.022  0.1239 -0.8159 -0.3555
59473SOL     OW85023   1.137  10.913  12.559  0.2186  0.3091 -0.9214
59473SOL    HW185024   1.126  10.952  12.473 -1.0200 -1.2314 -1.5061
59473SOL    HW285025   1.051  10.919  12.600  0.3455 -0.5788 -0.4989
59474SOL     OW85026  10.214   1.919  10.662 -0.1178 -0.4833 -0.1487
59474SOL    HW185027  10.215   2.013  10.644 -0.3307 -0.7954 -1.9852
59474SOL    HW285028  10.130   1.889  10.627 -0.0355 -1.3745  0.3823
59475SOL     OW85029  12.638   4.190   4.865 -0.6662 -0.2105 -0.0921
59475SOL    HW185030  12.665   4.135   4.792 -1.5765 -0.1075 -0.5273
59475SOL    HW285031  12.640   4.279   4.830  1.9432  0.2426  0.9399
59476SOL     OW85032   6.084   9.522  12.163  0.2723  0.2448  0.2777
59476SOL    HW185033   6.176   9.535  12.139  0.6288 -2.3157 -0.0289
59476SOL    HW285034   6.088   9.479  12.249 -0.6450  0.2359  0.3230
59477SOL     OW85035   5.057   2.804   2.364  0.3563 -0.4622 -0.5295
59477SOL    HW185036   4.996   2.860   2.412 -0.3906 -0.0553 -1.8980
59477SOL    HW285037   5.142   2.845   2.377  0.2214 -0.5223  0.6580
59478SOL     OW85038   1.043   3.114   9.210  0.3012  0.5062  0.3815
59478SOL    HW185039   1.051   3.107   9.115 -0.2997  1.2455  0.2634
59478SOL    HW285040   0.949   3.125   9.225  0.2735 -0.5585  1.1380
59479SOL     OW85041   3.989   0.540   6.226  0.0186 -0.0173  0.2292
59479SOL    HW185042   4.043   0.560   6.302  1.3584  0.9273 -0.9109
59479SOL    HW285043   4.050   0.538   6.153 -0.8450 -3.1190 -0.5860
59480SOL     OW85044  12.209  11.685   3.855  0.4448  0.6945  0.4481
59480SOL    HW185045  12.117  11.667   3.837  0.8837 -1.4507  0.0469
59480SOL    HW285046  12.208  11.762   3.911 -1.4631  2.0655 -1.3325
59481SOL     OW85047   5.957   4.315   7.297 -0.3254  1.0134 -0.3532
59481SOL    HW185048   5.911   4.381   7.246 -0.7710  1.4921  0.6354
59481SOL    HW285049   5.940   4.340   7.388 -0.4341 -0.4260  0.0373
59482SOL     OW85050   5.350  10.799   3.599 -0.2642  0.2190 -0.5197
59482SOL    HW185051   5.393  10.715   3.585 -0.6860 -0.1236  0.1975
59482SOL    HW285052   5.352  10.842   3.513  0.5337 -0.2418 -0.7354
59483SOL     OW85053   1.014   3.157   5.462 -0.5561 -0.3189 -0.1655
59483SOL    HW185054   0.929   3.121   5.486 -0.6887  1.1184  1.7205
59483SOL    HW285055   0.993   3.230   5.403 -0.6571  0.1506  0.4447
59484SOL     OW85056   1.628   0.150  10.285 -0.1681 -0.3046 -0.1789
59484SOL    HW185057   1.632   0.092  10.209 -1.2667  0.7478 -1.0930
59484SOL    HW285058   1.636   0.092  10.360  1.4208 -1.3359 -1.0808
59485SOL     OW85059   6.458   6.112   1.812  0.2186 -0.6645  0.3146
59485SOL    HW185060   6.425   6.197   1.842  0.7278 -1.0823  2.2118
59485SOL    HW285061   6.425   6.104   1.722 -1.2811  0.7654  0.6755
59486SOL     OW85062   7.797   3.927  11.600  0.0068 -0.1126 -0.4574
59486SOL    HW185063   7.877   3.975  11.623 -0.3608  0.7614 -0.9794
59486SOL    HW285064   7.814   3.894  11.511 -0.7341  1.2603 -1.1348
59487SOL     OW85065   9.607   3.792   1.656  0.2977 -0.8091 -0.3995
59487SOL    HW185066   9.625   3.829   1.742  0.5019 -1.7467 -0.0263
59487SOL    HW285067   9.511   3.793   1.649  0.2054 -2.0190  0.4370
59488SOL     OW85068   0.691   5.654   7.897  0.1644 -0.6070 -0.1130
59488SOL    HW185069   0.772   5.698   7.871 -0.8124  0.4861 -1.4603
59488SOL    HW285070   0.719   5.590   7.962  2.3646 -1.4729 -1.7701
59489SOL     OW85071   9.529   6.405   9.970 -0.1418 -0.5033 -0.2652
59489SOL    HW185072   9.478   6.350   9.910  0.8263 -1.9040  0.1584
59489SOL    HW285073   9.553   6.481   9.917  1.3355 -2.0451 -1.9497
59490SOL     OW85074   6.232   9.417   5.190 -0.1059  0.0885  0.8246
59490SOL    HW185075   6.307   9.459   5.148  0.4952  1.2993  2.9436
59490SOL    HW285076   6.245   9.323   5.174  0.2576  0.4399 -1.2762
59491SOL     OW85077  11.502   8.398   8.048 -0.1034  0.0538 -0.0874
59491SOL    HW185078  11.422   8.427   8.005 -0.4611  0.8653  1.0864
59491SOL    HW285079  11.479   8.391   8.140  1.2674  0.6214  0.3211
59492SOL     OW85080  10.717   6.563  12.572  0.1673  0.1030 -0.7705
59492SOL    HW185081  10.651   6.617  12.616  1.2301  1.0550 -0.3038
59492SOL    HW285082  10.679   6.545  12.485 -0.8264  0.3756 -0.4030
59493SOL     OW85083   0.503   4.453   6.973  0.4913 -0.0851  0.1035
59493SOL    HW185084   0.430   4.484   6.919 -0.2295 -2.0392 -0.1211
59493SOL    HW285085   0.489   4.494   7.058 -1.0023 -0.5655  0.1215
59494SOL     OW85086   4.226   5.021   3.171 -0.0707  0.1734 -0.1208
59494SOL    HW185087   4.254   5.059   3.254  1.1400  0.3376 -0.5704
59494SOL    HW285088   4.176   4.943   3.195 -1.0696  1.0688  0.7789
59495SOL     OW85089   4.913   4.994   9.717 -0.3555 -0.0554  0.5123
59495SOL    HW185090   4.926   5.053   9.643 -1.0657 -1.3264 -0.6783
59495SOL    HW285091   4.836   5.029   9.762 -0.9517 -0.2032 -0.3540
59496SOL     OW85092   0.911   9.742   7.612  0.3506 -0.4424 -0.1081
59496SOL    HW185093   0.919   9.751   7.707 -1.8084  0.0356  0.0828
59496SOL    HW285094   0.953   9.820   7.576 -0.1463  0.1231  0.5317
59497SOL     OW85095   1.777  11.450   0.069 -0.0914  0.5094  0.3566
59497SOL    HW185096   1.785  11.450   0.164 -0.3261 -0.7208  0.3997
59497SOL    HW285097   1.856  11.405   0.039 -0.3761  0.2204  0.0249
59498SOL     OW85098  11.977   0.244   7.733  0.3896 -0.2765 -0.4019
59498SOL    HW185099  11.962   0.150   7.747  2.3021 -0.2715  2.5610
59498SOL    HW285100  12.044   0.248   7.665  0.3850 -1.0549 -0.4609
59499SOL     OW85101   1.574   1.867   9.033  0.0761 -0.3717 -0.1055
59499SOL    HW185102   1.618   1.950   9.055  1.7124 -1.4555  0.9630
59499SOL    HW285103   1.567   1.869   8.938  1.1800  0.4944 -0.2016
59500SOL     OW85104   2.617  10.752  12.293  0.1451  0.3133 -0.4328
59500SOL    HW185105   2.583  10.726  12.207  1.3979  0.7192 -1.0672
59500SOL    HW285106   2.581  10.840  12.307 -0.7823 -0.0992 -0.1208
59501SOL     OW85107  11.938   8.917   8.391  0.1729 -0.0241 -0.7878
59501SOL    HW185108  11.941   8.922   8.295 -0.0760  0.6750 -0.7653
59501SOL    HW285109  12.028   8.937   8.419 -0.0966  1.3431 -0.8279
59502SOL     OW85110   1.889   7.416   5.496 -0.3258 -0.2490 -0.1445
59502SOL    HW185111   1.970   7.401   5.449 -0.2635 -0.1575 -0.0676
59502SOL    HW285112   1.888   7.351   5.566 -0.7801 -0.8832 -0.7264
59503SOL     OW85113  11.509   1.513   8.140  0.2093 -0.5053  0.3032
59503SOL    HW185114  11.558   1.461   8.077  0.9969 -1.0297  1.3093
59503SOL    HW285115  11.570   1.526   8.212 -0.1319  1.4617  0.2694
59504SOL     OW85116   2.510   5.651   8.626  0.4694  0.5539 -0.1169
59504SOL    HW185117   2.479   5.608   8.546 -0.3033  0.3545  0.2863
59504SOL    HW285118   2.606   5.651   8.617  0.3600  1.7000 -1.6519
59505SOL     OW85119   0.316   5.459   8.180 -0.2408 -0.1190  0.3753
59505SOL    HW185120   0.287   5.436   8.092  0.7439  0.3826 -0.0998
59505SOL    HW285121   0.275   5.543   8.198 -0.5774 -0.3015  0.4653
59506SOL     OW85122   3.614   6.819  12.590 -0.1875  0.1259 -0.0688
59506SOL    HW185123   3.658   6.814  12.675 -1.7637 -0.6083  0.7405
59506SOL    HW285124   3.559   6.897  12.596 -1.3006 -0.6586  0.0963
59507SOL     OW85125   6.416   6.860   7.651 -0.3691 -0.0741  0.1410
59507SOL    HW185126   6.423   6.915   7.573  0.0092 -1.0414 -0.5168
59507SOL    HW285127   6.389   6.921   7.720  0.4419  1.0210 -0.4681
59508SOL     OW85128  11.593   6.897   1.830  0.5019 -0.2350 -0.3577
59508SOL    HW185129  11.518   6.946   1.862 -0.1302 -0.3509 -1.6140
59508SOL    HW285130  11.572   6.876   1.739  2.2130  0.0551 -0.8641
59509SOL     OW85131   6.151   0.237   9.830  0.3872 -0.7472 -0.1825
59509SOL    HW185132   6.096   0.210   9.904  1.3664  0.5806  1.1121
59509SOL    HW285133   6.098   0.300   9.782 -0.2329 -1.5691 -0.6091
59510SOL     OW85134   2.727   1.457  10.310  0.4197  0.2590  0.2608
59510SOL    HW185135   2.745   1.440  10.217 -2.6376  2.7409 -0.9532
59510SOL    HW285136   2.686   1.377  10.341  0.8328 -0.3552 -0.6939
59511SOL     OW85137   2.069   9.455  12.493  0.0599 -0.3199  0.2099
59511SOL    HW185138   2.101   9.513  12.562 -0.2815 -0.7949  0.7732
59511SOL    HW285139   1.975   9.447  12.509  0.0309 -0.6878 -0.1147
59512SOL     OW85140  10.017   9.282   9.501  0.6035  0.1369  0.2947
59512SOL    HW185141  10.017   9.198   9.457  1.7164 -0.0158  0.5703
59512SOL    HW285142  10.053   9.264   9.588  0.1260  0.7581  0.6324
59513SOL     OW85143   6.857   6.474   3.482  0.3971 -0.3166  0.0706
59513SOL    HW185144   6.822   6.555   3.519  0.7694 -0.1247  0.0104
59513SOL    HW285145   6.786   6.440   3.427  0.4700  0.3192 -0.4335
59514SOL     OW85146   9.411  10.280   4.314  0.0710 -0.4332 -0.2448
59514SOL    HW185147   9.345  10.210   4.318 -1.0859  0.6690  2.9424
59514SOL    HW285148   9.494  10.233   4.308 -0.6998 -2.1445  1.2805
59515SOL     OW85149   2.737   2.076  10.652  0.0167  0.0663 -0.1915
59515SOL    HW185150   2.703   2.049  10.567  1.2377 -0.3598 -0.5616
59515SOL    HW285151   2.814   2.128  10.632  0.4784 -0.2651  0.6551
59516SOL     OW85152   5.785   8.688   3.474 -0.1623 -0.1490 -0.0895
59516SOL    HW185153   5.794   8.750   3.547  0.8241 -1.8337  1.2978
59516SOL    HW285154   5.864   8.702   3.421 -0.5170  0.5734 -0.4305
59517SOL     OW85155   4.859   5.673   1.670  0.2039  0.3048 -0.0747
59517SOL    HW185156   4.860   5.702   1.762 -0.0401  1.4837 -0.4253
59517SOL    HW285157   4.819   5.746   1.623 -0.1575 -0.5082 -1.0539
59518SOL     OW85158   5.915  11.411   0.819 -0.1681 -0.0247  0.0386
59518SOL    HW185159   5.953  11.342   0.765 -0.8848 -2.0532  1.9951
59518SOL    HW285160   5.843  11.369   0.865 -0.1973  1.8413  1.8472
59519SOL     OW85161   0.766   9.694  10.166 -0.3676 -0.1603  0.1403
59519SOL    HW185162   0.762   9.601  10.144 -0.1928  0.0529 -0.8573
59519SOL    HW285163   0.773   9.738  10.081 -0.4974  0.7654  0.6002
59520SOL     OW85164   4.587   0.209   7.032 -0.1403 -0.3991  0.0967
59520SOL    HW185165   4.497   0.225   7.060 -0.3688 -0.2460 -0.7200
59520SOL    HW285166   4.610   0.287   6.981  0.7603 -0.0332  1.0128
59521SOL     OW85167  12.451  11.431  10.020 -0.6603 -0.0566  0.2235
59521SOL    HW185168  12.436  11.473  10.105 -0.1758 -0.9086  0.7401
59521SOL    HW285169  12.394  11.354  10.021 -1.1265  0.2694 -0.4921
59522SOL     OW85170   6.480  10.015   7.836  0.3037 -0.0166 -0.0307
59522SOL    HW185171   6.442  10.046   7.754 -1.0778 -0.7342  0.3098
59522SOL    HW285172   6.430   9.937   7.858  0.7404  0.0776  1.4217
59523SOL     OW85173   2.082   2.522   7.501  0.0024 -0.3574  0.0218
59523SOL    HW185174   2.047   2.608   7.524 -0.4592 -0.5279 -0.0276
59523SOL    HW285175   2.091   2.477   7.585 -1.3011 -0.8353 -0.0647
59524SOL     OW85176   8.043   7.683   0.456 -0.3833 -0.3539  0.5625
59524SOL    HW185177   8.129   7.716   0.430 -0.6326 -0.2897 -0.2107
59524SOL    HW285178   8.061   7.614   0.520  0.3009 -1.1738 -0.4924
59525SOL     OW85179   3.958  10.069   3.638 -0.1358 -0.7283  0.0520
59525SOL    HW185180   4.038  10.072   3.690  0.1729 -0.5759 -0.4255
59525SOL    HW285181   3.987  10.043   3.551 -0.2029  1.9933 -0.8709
59526SOL     OW85182   1.168   8.796  12.397  0.0347  0.0780  0.0287
59526SOL    HW185183   1.117   8.869  12.360  0.3131  0.6754  0.7842
59526SOL    HW285184   1.258   8.813  12.368 -0.0379 -0.4431 -0.5048
59527SOL     OW85185   5.573   0.902   3.186 -0.2814 -0.2522 -0.1971
59527SOL    HW185186   5.584   0.905   3.091 -0.7840  0.2441 -0.2484
59527SOL    HW285187   5.494   0.851   3.200 -1.5636  1.6176 -0.1917
59528SOL     OW85188  12.271  10.206  12.340 -0.1917  0.2494  0.4835
59528SOL    HW185189  12.230  10.261  12.407 -0.0896  0.5866  0.2729
59528SOL    HW285190  12.324  10.267  12.288 -0.4208  0.0214 -0.0256
59529SOL     OW85191   3.328   2.451   7.196  0.3391 -0.3624  0.2604
59529SOL    HW185192   3.254   2.484   7.145  1.6479  0.1379 -1.3940
59529SOL    HW285193   3.318   2.494   7.281 -0.6996  0.4853 -0.2554
59530SOL     OW85194  11.135  10.422   7.828  0.0257  0.4300 -0.8678
59530SOL    HW185195  11.125  10.512   7.862 -1.7048 -0.2740  0.6692
59530SOL    HW285196  11.063  10.373   7.869 -0.0429 -1.3209 -2.9214
59531SOL     OW85197   6.101   3.473   5.349  0.3819 -0.2228 -0.0404
59531SOL    HW185198   6.090   3.387   5.389  0.1822 -0.3137 -0.2899
59531SOL    HW285199   6.012   3.502   5.329  0.4256  0.1880  0.3459
59532SOL     OW85200   5.461   9.608   9.485 -0.2941 -0.3568  0.2445
59532SOL    HW185201   5.488   9.700   9.475 -0.8383 -0.2754 -0.5995
59532SOL    HW285202   5.439   9.600   9.577  0.3156  0.2109  0.4480
59533SOL     OW85203  12.528  12.448   1.432 -0.1943 -0.2256  0.4821
59533SOL    HW185204  12.582  12.436   1.354  1.3228  1.4994  1.1872
59533SOL    HW285205  12.584  12.421   1.505  0.2631  2.6382  1.3336
59534SOL     OW85206   1.026   7.957   5.379  0.0050  0.3351 -0.2823
59534SOL    HW185207   1.107   7.907   5.369 -0.8861 -0.9503 -1.4983
59534SOL    HW285208   1.003   7.949   5.471  0.4434 -0.6431 -0.2484
59535SOL     OW85209   4.167   9.691   1.546  0.8947 -0.5039 -0.1468
59535SOL    HW185210   4.146   9.747   1.621  1.5116 -0.7198  0.1917
59535SOL    HW285211   4.108   9.616   1.554  1.9843 -1.2834  1.0026
59536SOL     OW85212   3.254  10.484   2.815 -0.2203  0.1633 -0.1253
59536SOL    HW185213   3.316  10.478   2.742 -0.2066  2.1814 -0.3486
59536SOL    HW285214   3.270  10.571   2.852 -1.9160  0.1471  0.7352
59537SOL     OW85215  11.967  11.327   7.939 -0.2656 -0.7085 -0.2343
59537SOL    HW185216  12.060  11.329   7.917 -0.4792  0.2741 -1.1704
59537SOL    HW285217  11.948  11.415   7.971 -0.6119 -1.2806  1.2036
59538SOL     OW85218  11.237   0.884   6.877  0.2899  0.0026 -0.3095
59538SOL    HW185219  11.264   0.925   6.796  1.1287 -0.6310 -0.3620
59538SOL    HW285220  11.251   0.791   6.863 -0.0563 -0.1630  0.3785
59539SOL     OW85221   2.831   2.308   9.719 -0.4328 -0.2355 -0.6392
59539SOL    HW185222   2.825   2.303   9.815  0.4155 -1.3895 -0.6209
59539SOL    HW285223   2.824   2.217   9.690  1.5089 -0.1582 -1.5025
59540SOL     OW85224   6.314   8.423   0.650 -0.1356  0.1472  0.3574
59540SOL    HW185225   6.246   8.457   0.708  0.2929  1.1477  0.3024
59540SOL    HW285226   6.386   8.401   0.708  0.0191  0.4536  0.2859
59541SOL     OW85227   6.436  11.263   0.939  0.1223  0.4449  0.3494
59541SOL    HW185228   6.363  11.212   0.903  1.2379  0.7429 -2.5831
59541SOL    HW285229   6.497  11.197   0.971 -0.5234  0.1448  1.0119
59542SOL     OW85230  12.017   7.404   9.904 -0.6298  0.0910 -0.5361
59542SOL    HW185231  12.033   7.348   9.828 -0.6736 -0.9204  0.1801
59542SOL    HW285232  12.080   7.373   9.970 -0.9468  0.6047  0.0164
59543SOL     OW85233   9.027   5.356   4.008 -0.4761  0.5755  0.3095
59543SOL    HW185234   9.078   5.434   4.031 -0.7227  1.3729 -1.6497
59543SOL    HW285235   9.082   5.282   4.036  0.8205  1.4353  0.1120
59544SOL     OW85236  10.239   5.080   0.085 -0.5705 -0.4484 -0.3907
59544SOL    HW185237  10.168   5.145   0.082 -0.9960 -0.8972 -0.1538
59544SOL    HW285238  10.195   4.996   0.072 -0.0090 -0.6820 -0.7798
59545SOL     OW85239   7.768  11.567   2.284 -0.5571  0.5627  0.4032
59545SOL    HW185240   7.805  11.480   2.301 -1.3023  0.2392  0.4128
59545SOL    HW285241   7.826  11.627   2.330 -0.1025  0.0597  0.4993
59546SOL     OW85242   6.393   1.382   3.408 -0.0859  0.5228  0.4533
59546SOL    HW185243   6.350   1.337   3.480 -1.3203  1.0838  0.0937
59546SOL    HW285244   6.486   1.364   3.420 -0.4916 -1.7252  0.5580
59547SOL     OW85245   9.073  10.572   6.495 -0.4868  0.0506 -0.2313
59547SOL    HW185246   8.982  10.575   6.464 -0.8464  1.9506  0.8480
59547SOL    HW285247   9.111  10.654   6.465 -0.0447  0.6743  1.8734
59548SOL     OW85248   1.074   8.713   1.027  0.0442 -0.5545 -0.4855
59548SOL    HW185249   1.163   8.678   1.025  0.2293 -0.0728 -1.3920
59548SOL    HW285250   1.064   8.748   1.116  0.8015 -0.5064 -0.4093
59549SOL     OW85251   7.289   6.700   6.472 -0.3937  0.0611 -0.1702
59549SOL    HW185252   7.213   6.756   6.483 -0.5892 -0.3197  0.4548
59549SOL    HW285253   7.267   6.644   6.397 -0.5869  0.1697 -0.1962
59550SOL     OW85254   6.252   4.352  10.663  0.1043  0.5393 -0.0523
59550SOL    HW185255   6.230   4.303  10.743 -1.9128 -0.9952 -1.4418
59550SOL    HW285256   6.185   4.420  10.658 -0.1793  0.2249 -0.7203
59551SOL     OW85257   4.457   9.600   2.776 -0.0970  0.7477 -0.3316
59551SOL    HW185258   4.392   9.585   2.707 -0.4679  0.9476 -0.0261
59551SOL    HW285259   4.507   9.519   2.778 -0.9011  0.2395  0.0242
59552SOL     OW85260   3.415   6.672   8.352 -0.1242  0.0596  0.7957
59552SOL    HW185261   3.495   6.622   8.367  0.4374 -0.2608 -2.4735
59552SOL    HW285262   3.438   6.762   8.374  0.9732 -0.1188  0.4456
59553SOL     OW85263   7.562  12.589   7.549  0.0828  0.3450 -0.1228
59553SOL    HW185264   7.555  12.499   7.579  0.2468  0.3236 -0.1430
59553SOL    HW285265   7.583  12.639   7.628  2.9467 -0.0349 -0.5158
59554SOL     OW85266   1.500  12.264   3.404  0.4212 -0.6835  0.3834
59554SOL    HW185267   1.540  12.178   3.388 -1.3469 -1.1648 -1.9378
59554SOL    HW285268   1.537  12.320   3.337 -1.7106 -0.8278 -1.0023
59555SOL     OW85269  11.765   3.750   5.614  0.0059 -0.2422  0.1748
59555SOL    HW185270  11.676   3.746   5.647 -0.5598 -0.2539 -1.2652
59555SOL    HW285271  11.816   3.698   5.676 -1.0838 -0.7106  0.7080
59556SOL     OW85272   4.317  12.165  11.275  0.2189  0.5008 -0.4314
59556SOL    HW185273   4.254  12.150  11.205  0.3522 -0.7527 -0.3068
59556SOL    HW285274   4.277  12.234  11.329 -2.1750 -1.7338  0.8930
59557SOL     OW85275  10.362  12.561  10.205 -0.3188  0.1322  0.1399
59557SOL    HW185276  10.443  12.543  10.156  0.7065 -0.7043  2.0353
59557SOL    HW285277  10.376  12.520  10.290 -1.9746  1.6789  1.2182
59558SOL     OW85278   9.944   5.830  12.398  0.2674  0.5788  0.1352
59558SOL    HW185279  10.018   5.780  12.363  0.6537  0.7288  0.7177
59558SOL    HW285280   9.907   5.876  12.323  0.7890  0.5274 -0.1518
59559SOL     OW85281   7.734   8.642   2.288 -0.2061  0.2578 -0.2533
59559SOL    HW185282   7.786   8.569   2.322 -0.1012 -0.2101 -1.3643
59559SOL    HW285283   7.731   8.627   2.193 -0.8279  1.2843 -0.4122
59560SOL     OW85284  10.020   5.288   8.209  0.1704  0.1736 -0.3261
59560SOL    HW185285  10.059   5.302   8.295  0.9512  2.8993 -1.0337
59560SOL    HW285286  10.003   5.194   8.205  1.9525 -0.3213  2.0140
59561SOL     OW85287  12.176   6.538   4.072  0.3161 -0.6407  0.0309
59561SOL    HW185288  12.270   6.529   4.051 -0.0266 -0.8294 -1.5603
59561SOL    HW285289  12.152   6.453   4.109  0.9600 -0.2779  1.3587
59562SOL     OW85290   3.703   8.666   0.578  0.1040 -0.1229  0.3538
59562SOL    HW185291   3.724   8.591   0.633  0.3937  0.9424  1.7556
59562SOL    HW285292   3.745   8.740   0.621 -0.8869  0.9891 -0.5116
59563SOL     OW85293  11.568   6.027  12.634 -0.6365  0.0554 -0.2558
59563SOL    HW185294  11.647   5.973  12.636  0.1464  1.1926  0.5357
59563SOL    HW285295  11.558   6.051  12.542 -1.0317 -1.4545 -0.6288
59564SOL     OW85296  12.569   9.553   0.073  0.6590  0.1795  0.4327
59564SOL    HW185297  12.619   9.631   0.101 -0.0019  0.5124  0.6949
59564SOL    HW285298  12.530   9.579  -0.011  0.2573  0.2090  0.6285
59565SOL     OW85299  10.135   7.699   1.624  0.4528  0.3410 -0.0121
59565SOL    HW185300  10.098   7.707   1.712 -0.5323  3.2993 -0.5928
59565SOL    HW285301  10.064   7.662   1.571  0.3371  0.5078  0.0280
59566SOL     OW85302   9.089   7.689   0.795  0.1791  0.2441  0.3736
59566SOL    HW185303   9.064   7.642   0.874 -0.4245  1.1104  0.7166
59566SOL    HW285304   9.024   7.759   0.787 -0.7466 -0.7506 -1.7681
59567SOL     OW85305   4.064  11.901   6.795 -0.0984  0.0417 -0.2251
59567SOL    HW185306   4.028  11.990   6.803 -1.3744 -0.3202 -1.4464
59567SOL    HW285307   4.072  11.870   6.885  1.9883  1.9664  0.3643
59568SOL     OW85308   9.863   7.859   6.745  0.3209 -0.2360  0.3829
59568SOL    HW185309   9.782   7.837   6.790  0.4488  0.9291  1.2387
59568SOL    HW285310   9.837   7.882   6.656 -0.1347 -0.9763  0.3181
59569SOL     OW85311   6.191   3.201   0.071 -0.4924 -0.0981  0.3990
59569SOL    HW185312   6.115   3.176   0.019 -1.7070  1.6538  1.2299
59569SOL    HW285313   6.199   3.295   0.058  3.0379 -0.4960 -1.5384
59570SOL     OW85314   1.129  10.435   0.889 -0.4503 -0.0737 -0.8245
59570SOL    HW185315   1.170  10.395   0.965 -1.4164  0.7710  0.1686
59570SOL    HW285316   1.120  10.528   0.911 -2.6390 -0.1627 -1.0655
59571SOL     OW85317   8.314   5.849   8.508  0.8765  0.2678 -0.1552
59571SOL    HW185318   8.291   5.941   8.499  2.4816  0.7619  0.4257
59571SOL    HW285319   8.409   5.848   8.511  0.8939 -1.4233 -0.1920
59572SOL     OW85320  11.964   3.205   0.531  0.7156 -0.4996  0.0353
59572SOL    HW185321  11.984   3.196   0.624 -3.2740  1.3231  1.2663
59572SOL    HW285322  11.876   3.169   0.521  0.1929  1.1974 -2.5626
59573SOL     OW85323   8.514   0.627   5.672  0.2635  0.1769  0.0111
59573SOL    HW185324   8.594   0.655   5.717  0.3655  0.4440 -0.3334
59573SOL    HW285325   8.452   0.699   5.686  0.1679  0.0867  0.0550
59574SOL     OW85326   8.553   3.894  11.625  0.4101 -0.1113  0.2309
59574SOL    HW185327   8.575   3.823  11.564  0.1072 -0.3962  0.4536
59574SOL    HW285328   8.484   3.858  11.680  0.2961  0.3387  0.3845
59575SOL     OW85329  12.284   5.896   9.703  0.1405 -0.3846  0.1163
59575SOL    HW185330  12.324   5.935   9.625 -1.1331  1.2717  0.2267
59575SOL    HW285331  12.346   5.915   9.773 -0.2201  1.0679  0.0752
59576SOL     OW85332   5.877   5.590  12.304  0.2609  0.7233 -0.9624
59576SOL    HW185333   5.945   5.615  12.367 -1.3162  2.2970  0.1941
59576SOL    HW285334   5.904   5.504  12.273  0.8166 -0.4315  2.3603
59577SOL     OW85335   6.144   3.034   3.253  0.4102 -0.2253  0.1460
59577SOL    HW185336   6.200   3.042   3.176  0.7035 -1.2329  0.2386
59577SOL    HW285337   6.140   2.939   3.270 -1.9667 -0.2930 -0.3628
59578SOL     OW85338   5.990   3.060   0.545  1.3588  0.3137 -0.0947
59578SOL    HW185339   6.004   3.074   0.451  0.2761  1.0659 -0.1666
59578SOL    HW285340   5.983   3.148   0.582  0.3414  0.0269  0.4429
59579SOL     OW85341   0.833  12.500   7.387  0.1948  0.1017 -0.2481
59579SOL    HW185342   0.801  12.554   7.315 -0.0820 -0.2195 -0.3739
59579SOL    HW285343   0.903  12.551   7.426  0.7226  0.0498 -1.0919
59580SOL     OW85344   9.939  12.241  10.772  0.7137  0.1935  0.5508
59580SOL    HW185345   9.960  12.288  10.853 -0.5089  0.1694  0.9039
59580SOL    HW285346   9.964  12.150  10.790  1.3409  0.3558  0.5401
59581SOL     OW85347   3.388   8.464   7.135 -0.3006 -0.3334  0.0012
59581SOL    HW185348   3.392   8.442   7.228  1.9786  3.9114  1.1876
59581SOL    HW285349   3.300   8.502   7.124  0.2549  1.4266  1.1758
59582SOL     OW85350   5.584   3.419  10.169 -0.0115 -0.5179 -1.0386
59582SOL    HW185351   5.662   3.471  10.150  0.1583 -0.4215 -0.1292
59582SOL    HW285352   5.524   3.438  10.097  0.7723 -0.5367 -1.7043
59583SOL     OW85353   1.895   8.464   5.582  0.8798  0.1111 -0.0241
59583SOL    HW185354   1.856   8.466   5.495  0.7908 -0.4159  0.0018
59583SOL    HW285355   1.987   8.487   5.568  0.9805 -0.4707 -0.3212
59584SOL     OW85356  12.298   4.591   6.122 -0.5133 -0.2504 -0.4308
59584SOL    HW185357  12.335   4.552   6.202 -0.6957 -1.0775 -0.7417
59584SOL    HW285358  12.206   4.565   6.123 -0.4932 -0.3593 -0.9639
59585SOL     OW85359   7.891  12.142   6.690 -0.4226  0.2752 -0.2821
59585SOL    HW185360   7.893  12.087   6.768  0.9075  0.6901 -0.0046
59585SOL    HW285361   7.968  12.198   6.698 -1.0410  1.2865 -1.2016
59586SOL     OW85362   9.572   0.098   7.986  0.2459 -0.5163  0.3210
59586SOL    HW185363   9.590   0.024   8.044  0.5991 -0.5032  0.2327
59586SOL    HW285364   9.578   0.061   7.898 -0.3340 -0.5472  0.2895
59587SOL     OW85365   3.780   0.224   9.437  0.4921  0.1542 -0.7812
59587SOL    HW185366   3.838   0.173   9.494  1.5953  2.2627  0.1203
59587SOL    HW285367   3.839   0.263   9.372 -0.2583  0.6097 -1.2029
59588SOL     OW85368   5.583   1.778   6.517  0.0822  0.0350  0.1106
59588SOL    HW185369   5.576   1.764   6.612  0.7428 -1.7589 -0.0692
59588SOL    HW285370   5.544   1.864   6.503  0.4790  0.5873  2.0801
59589SOL     OW85371   2.920   3.266   4.652  0.7005  0.9349 -0.0573
59589SOL    HW185372   2.851   3.205   4.680 -0.0797  0.4223 -2.7449
59589SOL    HW285373   2.990   3.255   4.716 -0.7183 -0.4079  1.3455
59590SOL     OW85374   4.069   6.102   0.420 -0.0403 -0.1796 -0.3096
59590SOL    HW185375   4.139   6.108   0.485 -1.8131 -1.0314  1.8075
59590SOL    HW285376   4.073   6.012   0.389  0.9660  0.2959 -1.6441
59591SOL     OW85377   5.513  11.459  10.754 -0.1113 -0.4540 -0.2429
59591SOL    HW185378   5.444  11.517  10.788  1.2345  0.3663  1.2307
59591SOL    HW285379   5.482  11.371  10.773 -0.9690 -0.1168 -0.0158
59592SOL     OW85380   7.224   1.761   4.486 -0.0840  0.2946 -0.0823
59592SOL    HW185381   7.259   1.699   4.421 -0.2249  0.5056 -0.3632
59592SOL    HW285382   7.155   1.807   4.439  0.7577  1.4438 -0.2321
59593SOL     OW85383   5.038  11.608   5.828  0.2256  0.6148  0.5944
59593SOL    HW185384   5.115  11.664   5.838  1.6109 -0.9028 -0.8923
59593SOL    HW285385   5.039  11.582   5.736 -1.5390 -0.2076  0.7608
59594SOL     OW85386   7.444  11.507   9.705  0.3970 -0.2149  0.2018
59594SOL    HW185387   7.436  11.568   9.632  0.1083  0.3068  0.6619
59594SOL    HW285388   7.524  11.534   9.750 -0.7329  1.1035  1.5413
59595SOL     OW85389   7.491  12.486   0.365 -0.0494  0.0493  0.1603
59595SOL    HW185390   7.494  12.498   0.460  0.5243 -0.1977  0.1746
59595SOL    HW285391   7.482  12.575   0.330  0.7897  0.2344  0.4003
59596SOL     OW85392   4.358   5.402  11.863 -0.3173  0.7277  0.7100
59596SOL    HW185393   4.370   5.307  11.857 -0.7689  0.7303 -0.5316
59596SOL    HW285394   4.399   5.426  11.946 -0.2359 -0.5553  1.0643
59597SOL     OW85395   3.601   3.122   9.150  0.1221  0.4123  0.0518
59597SOL    HW185396   3.624   3.099   9.060  1.1069  0.0841  0.3747
59597SOL    HW285397   3.619   3.043   9.200 -1.6379  0.1656  0.3662
59598SOL     OW85398   1.126   7.756   3.329  0.2465  0.7780 -0.5984
59598SOL    HW185399   1.034   7.763   3.302  0.4015  0.6872 -1.1601
59598SOL    HW285400   1.123   7.708   3.411 -0.3284  2.0455  0.1447
59599SOL     OW85401   4.291  10.278   6.891  0.2632  0.6250 -0.0433
59599SOL    HW185402   4.236  10.355   6.898  0.2421  0.6842 -0.7673
59599SOL    HW285403   4.311  10.271   6.797  1.9553  0.9429  0.2550
59600SOL     OW85404   2.405   1.615  11.920  0.0123  0.0199  0.0706
59600SOL    HW185405   2.414   1.563  11.999  1.3973  0.9225  0.5431
59600SOL    HW285406   2.475   1.680  11.926  0.2800 -0.0111 -1.9783
59601SOL     OW85407  12.769  11.648   4.155  0.5096  0.3573 -0.1961
59601SOL    HW185408  12.788  11.681   4.067 -0.0868  0.0257 -0.4520
59601SOL    HW285409  12.689  11.597   4.145 -0.7322  1.9785  0.8989
59602SOL     OW85410   2.449   4.472   4.927 -0.1682 -0.1916  0.2452
59602SOL    HW185411   2.541   4.464   4.899 -0.5195 -0.1661 -0.9777
59602SOL    HW285412   2.426   4.384   4.956  0.8265  0.2350  2.5720
59603SOL     OW85413  10.849   0.860   9.045 -0.2952  0.1119  0.5404
59603SOL    HW185414  10.824   0.889   8.958 -1.8311 -3.1730 -0.2693
59603SOL    HW285415  10.945   0.856   9.042 -0.1935  2.0338 -0.1996
59604SOL     OW85416   6.332   6.377   4.057  0.4975 -0.8249  0.0615
59604SOL    HW185417   6.304   6.377   3.966 -0.4252 -2.3226  0.3231
59604SOL    HW285418   6.424   6.405   4.053  1.0018 -2.5123 -1.5100
59605SOL     OW85419   4.296   6.005   0.536  0.8472 -0.3937 -0.2926
59605SOL    HW185420   4.386   5.997   0.569  0.1025 -1.7578  1.5294
59605SOL    HW285421   4.268   5.914   0.521 -0.2461  0.0128 -0.8033
59606SOL     OW85422   0.436   2.098   5.640 -0.6196 -0.0109  0.0971
59606SOL    HW185423   0.472   2.014   5.613  0.1139  0.1772  0.4446
59606SOL    HW285424   0.513   2.150   5.662 -1.0516  0.8280 -0.3311
59607SOL     OW85425   9.233   6.231   3.013  0.2167 -0.1607  0.2050
59607SOL    HW185426   9.321   6.268   3.019  0.1926 -0.2012  0.8498
59607SOL    HW285427   9.181   6.280   3.077 -0.4171  0.3787 -0.7038
59608SOL     OW85428   5.409   5.814   3.113  0.0634 -0.5234 -0.2452
59608SOL    HW185429   5.337   5.803   3.175 -0.3789  1.9937 -0.2232
59608SOL    HW285430   5.488   5.797   3.165 -0.4341 -2.3136 -0.0229
59609SOL     OW85431   4.393   8.332   9.670  0.2378  0.5542 -0.4626
59609SOL    HW185432   4.460   8.315   9.604 -0.6184 -0.1092 -1.1884
59609SOL    HW285433   4.409   8.267   9.738  1.3056  1.4300  0.1454
59610SOL     OW85434   7.536   3.994   4.310  0.7397  0.0350 -0.4536
59610SOL    HW185435   7.509   3.938   4.237  0.0556  0.0130 -0.1950
59610SOL    HW285436   7.616   4.037   4.280  0.7258 -0.3363 -1.0306
59611SOL     OW85437   0.402   4.631   3.139 -0.1519 -0.1723  0.3725
59611SOL    HW185438   0.426   4.564   3.075  0.8976  1.3360 -0.9096
59611SOL    HW285439   0.307   4.640   3.131  0.1771  2.0619 -3.3239
59612SOL     OW85440   0.692   4.152   7.715 -0.2260  0.2266  0.4035
59612SOL    HW185441   0.628   4.166   7.784 -0.2145  0.0833  0.4418
59612SOL    HW285442   0.763   4.104   7.757 -0.8703 -1.1779 -0.0549
59613SOL     OW85443   8.159   8.298   2.228  0.3414  0.3638  1.1976
59613SOL    HW185444   8.172   8.216   2.274 -2.5372 -0.8559  0.0863
59613SOL    HW285445   8.245   8.340   2.228  1.4434 -1.6293  3.6156
59614SOL     OW85446   6.076   7.712   7.073 -0.2075  0.2384  0.2604
59614SOL    HW185447   6.166   7.698   7.103 -0.0383 -0.9566 -0.7582
59614SOL    HW285448   6.044   7.784   7.128  2.1329  2.3369 -0.8991
59615SOL     OW85449   8.789   0.487  10.608 -0.4041 -0.3410  0.0084
59615SOL    HW185450   8.839   0.407  10.594 -2.6066 -1.5573 -1.6342
59615SOL    HW285451   8.794   0.504  10.702  2.3354 -0.8198  0.0114
59616SOL     OW85452  11.067   8.723   8.063 -0.2359 -0.2503  0.5409
59616SOL    HW185453  10.986   8.679   8.041  0.8183 -2.7950  1.4319
59616SOL    HW285454  11.091   8.770   7.983 -0.8477 -2.2678 -0.9086
59617SOL     OW85455  10.067   6.586   6.100 -0.0750 -0.5806 -0.4056
59617SOL    HW185456  10.081   6.492   6.113 -0.2153 -0.4045  1.1510
59617SOL    HW285457   9.995   6.609   6.158 -2.0583 -0.0180 -2.8938
59618SOL     OW85458  11.360   6.709   4.271 -0.1003 -0.1299 -0.1060
59618SOL    HW185459  11.305   6.785   4.250 -1.1503 -0.2974  1.8538
59618SOL    HW285460  11.442   6.725   4.224 -1.3895  0.6697 -2.2205
59619SOL     OW85461   9.341   0.453   3.367  0.2411  0.3593 -0.0607
59619SOL    HW185462   9.300   0.370   3.342 -0.5873  0.6084  0.4569
59619SOL    HW285463   9.294   0.520   3.318 -0.1292  0.6644  0.6953
59620SOL     OW85464   5.026   3.938  11.482 -0.0821 -0.4222 -0.1973
59620SOL    HW185465   4.993   4.023  11.453 -1.6244 -0.4816  1.2153
59620SOL    HW285466   4.981   3.875  11.425 -0.3578 -0.3694 -0.0424
59621SOL     OW85467  10.856   5.605   9.702  0.2716 -0.0695 -0.2278
59621SOL    HW185468  10.770   5.569   9.676  0.6759 -0.7835 -0.6200
59621SOL    HW285469  10.835   5.673   9.765 -0.6951  0.9304 -1.5680
59622SOL     OW85470   6.008   2.124  11.566 -0.4284  0.2012  0.0723
59622SOL    HW185471   5.923   2.139  11.524 -0.5066  0.2429  0.2434
59622SOL    HW285472   6.062   2.085  11.497  0.0731  2.0784 -0.6577
59623SOL     OW85473   4.162   3.560  10.998 -0.0592 -0.6007 -0.0044
59623SOL    HW185474   4.161   3.504  10.920 -1.9123 -0.3013 -0.2532
59623SOL    HW285475   4.074   3.553  11.034  0.1564  0.8464  0.9097
59624SOL     OW85476  12.227   4.961   9.413 -0.0303  0.9456  0.0091
59624SOL    HW185477  12.214   4.974   9.507  0.6117  0.6511  0.1403
59624SOL    HW285478  12.281   5.035   9.385  1.9418 -0.2785  0.3786
59625SOL     OW85479   3.651   5.613   9.099 -0.4223  0.7354  0.7049
59625SOL    HW185480   3.717   5.545   9.115  0.8276  1.9468  0.9571
59625SOL    HW285481   3.612   5.589   9.015 -1.2169 -1.1872  1.5726
59626SOL     OW85482   2.291   0.126  10.944  0.3871  0.6351 -0.4748
59626SOL    HW185483   2.260   0.214  10.922 -1.0593  0.6701  1.4565
59626SOL    HW285484   2.361   0.141  11.008  0.3036  0.3890 -0.3248
59627SOL     OW85485  12.522   2.266   1.935  0.1979 -0.3564  0.0017
59627SOL    HW185486  12.461   2.299   2.001  0.4217 -1.7613  0.9378
59627SOL    HW285487  12.484   2.183   1.906  0.7693 -0.3830 -0.6986
59628SOL     OW85488  10.086  11.209   3.659 -0.6555  0.0905 -0.3057
59628SOL    HW185489  10.051  11.145   3.597 -0.7017 -0.4310  0.2497
59628SOL    HW285490  10.119  11.157   3.732 -2.2278  0.7484  0.9624
59629SOL     OW85491   4.191   2.695  10.896  0.4420 -0.3142 -0.0831
59629SOL    HW185492   4.265   2.731  10.847 -0.5410 -1.2627 -2.3911
59629SOL    HW285493   4.195   2.601  10.879 -0.1830 -0.6473  1.4063
59630SOL     OW85494   7.840  10.847   9.828  0.6837 -0.1768 -0.2911
59630SOL    HW185495   7.901  10.856   9.901  0.2533  0.3787  0.0096
59630SOL    HW285496   7.808  10.936   9.812 -0.5832 -0.5379  0.0371
59631SOL     OW85497   2.271   4.879   3.396 -0.0888 -0.5684 -0.1809
59631SOL    HW185498   2.216   4.946   3.357  0.3261 -0.3149 -0.3440
59631SOL    HW285499   2.210   4.817   3.435 -0.5641 -1.2860 -1.9632
59632SOL     OW85500   3.271   0.557  10.964  0.8424 -0.3463  0.3947
59632SOL    HW185501   3.238   0.467  10.960  1.3701 -0.5340 -0.0287
59632SOL    HW285502   3.329   0.564  10.887 -0.6491  0.9510 -0.6696
59633SOL     OW85503  12.294   9.254   8.480 -0.9202 -0.2379  0.2587
59633SOL    HW185504  12.325   9.205   8.404 -2.9161 -0.1299 -0.6851
59633SOL    HW285505  12.335   9.340   8.472  1.5928 -1.2415  1.2358
59634SOL     OW85506   6.632   1.224   0.811 -0.9527 -0.1941  0.7196
59634SOL    HW185507   6.633   1.250   0.903  0.9440 -1.4338  1.1011
59634SOL    HW285508   6.712   1.262   0.774 -1.6024  0.1402 -0.4058
59635SOL     OW85509   0.333   6.073   9.208 -0.2130 -0.3490 -1.2659
59635SOL    HW185510   0.352   6.047   9.298 -0.6674  0.5015 -0.9165
59635SOL    HW285511   0.417   6.063   9.162  0.6081  1.3191 -0.2314
59636SOL     OW85512   6.705   1.607   3.530 -0.0077  0.3206 -0.2859
59636SOL    HW185513   6.743   1.563   3.454 -0.2468 -0.5344  0.0743
59636SOL    HW285514   6.762   1.682   3.546  1.1768 -0.5868 -0.1305
59637SOL     OW85515   1.064  12.666   4.443  0.3231 -0.4604  0.1391
59637SOL    HW185516   1.095  12.578   4.464 -0.8973 -0.5540  1.7734
59637SOL    HW285517   1.016  12.657   4.361  0.0372 -1.3728  0.3970
59638SOL     OW85518  10.336   0.361   7.889 -0.2698  0.4182  0.1548
59638SOL    HW185519  10.275   0.288   7.875  1.6586 -1.2563 -0.0486
59638SOL    HW285520  10.299   0.409   7.963 -1.2413 -1.2088  0.7879
59639SOL     OW85521   7.300   9.571   5.162  0.1101 -0.0750 -0.3847
59639SOL    HW185522   7.208   9.581   5.137 -0.6747 -1.9529  1.4293
59639SOL    HW285523   7.324   9.484   5.131  1.9273  1.0588 -2.4521
59640SOL     OW85524   4.548   2.497   9.815  0.4521 -0.2108 -0.1919
59640SOL    HW185525   4.531   2.589   9.797  2.7820  0.5229  0.9175
59640SOL    HW285526   4.476   2.450   9.772  0.1542  1.9810 -2.2987
59641SOL     OW85527   5.701   6.507   2.274  0.2143 -0.0584 -0.3984
59641SOL    HW185528   5.720   6.420   2.310 -0.2892  0.7104  1.8818
59641SOL    HW285529   5.606   6.511   2.270  0.1489  0.9046  1.0657
59642SOL     OW85530  10.372   1.426   0.744 -0.3995  0.2788 -0.5093
59642SOL    HW185531  10.438   1.362   0.769 -2.4040 -0.9142  2.1160
59642SOL    HW285532  10.422   1.506   0.727  1.7094 -0.3131  2.2119
59643SOL     OW85533   7.432   7.289  10.878  0.1055  0.0986  0.2995
59643SOL    HW185534   7.366   7.356  10.895  1.4752  0.9309  3.0973
59643SOL    HW285535   7.407   7.216  10.935  1.6406  0.5336  1.6202
59644SOL     OW85536  11.074   2.925   6.426  0.1900  0.1877  0.5195
59644SOL    HW185537  11.028   3.000   6.388  0.1860  0.1764  0.5015
59644SOL    HW285538  11.150   2.913   6.370  1.0199  1.1318  1.3962
59645SOL     OW85539   5.057   1.753   4.150 -0.3782  0.3110 -0.0661
59645SOL    HW185540   5.116   1.679   4.136  0.6199  1.0700  0.0286
59645SOL    HW285541   5.112   1.821   4.187 -1.9369 -0.0000  3.1305
59646SOL     OW85542   0.197  11.014  10.604  0.4236 -0.1144  0.1177
59646SOL    HW185543   0.116  11.064  10.610  1.3727  1.4420  0.7698
59646SOL    HW285544   0.265  11.074  10.635  1.4263 -2.4048  2.8368
59647SOL     OW85545   2.084  11.758   8.160 -0.1045  0.1983 -0.0526
59647SOL    HW185546   2.087  11.853   8.169 -2.8034  0.4167 -0.4985
59647SOL    HW285547   2.120  11.725   8.243 -0.6041  1.6576  0.7937
59648SOL     OW85548  12.465   0.379   1.904  0.6732 -0.5663  0.1177
59648SOL    HW185549  12.519   0.434   1.848 -0.0214 -0.1392 -0.1516
59648SOL    HW285550  12.377   0.417   1.896  0.6804 -0.0269  2.0747
59649SOL     OW85551   6.726   1.660  12.710  1.0237 -0.1112  0.0119
59649SOL    HW185552   6.740   1.744  12.666 -2.7295  0.0999 -1.1693
59649SOL    HW285553   6.672   1.682  12.786  1.1183 -1.3171  0.4485
59650SOL     OW85554  11.782   6.064  10.037  0.1068  0.2429  0.4351
59650SOL    HW185555  11.688   6.047  10.042 -0.1563  1.5599  0.2011
59650SOL    HW285556  11.812   6.007   9.966 -0.5936  0.1288  0.2148
59651SOL     OW85557   3.249   3.885   0.029 -0.3686  0.4680 -0.7216
59651SOL    HW185558   3.175   3.826   0.010 -0.2497 -0.1906  0.7649
59651SOL    HW285559   3.310   3.831   0.079  0.4415  1.4398 -0.6456
59652SOL     OW85560   7.547   9.306  11.992 -0.2348  0.3699 -0.2033
59652SOL    HW185561   7.522   9.301  12.085 -0.4253  0.1596 -0.2655
59652SOL    HW285562   7.627   9.253  11.986 -0.0193  0.6779 -0.0911
59653SOL     OW85563   5.779   3.881   3.886  0.1001 -0.2582 -0.2918
59653SOL    HW185564   5.775   3.976   3.892  2.0948 -0.2078  1.4299
59653SOL    HW285565   5.869   3.859   3.908 -0.6250 -2.6155  0.6675
59654SOL     OW85566   4.210   8.617  11.327 -0.4855  0.3338 -0.3998
59654SOL    HW185567   4.259   8.611  11.409 -1.1731 -0.8465 -0.0461
59654SOL    HW285568   4.211   8.528  11.292 -0.0284  0.8605 -1.7962
59655SOL     OW85569   9.461   1.069  12.339 -0.0962 -0.0057  0.4312
59655SOL    HW185570   9.432   1.157  12.364 -0.7677 -0.2169  0.4012
59655SOL    HW285571   9.406   1.045  12.266  1.0076  0.0868 -0.4626
59656SOL     OW85572  10.219  12.407   0.124 -0.5505 -0.9799  0.0901
59656SOL    HW185573  10.153  12.371   0.065 -0.5290  2.1096 -2.0400
59656SOL    HW285574  10.168  12.455   0.190 -0.6843  2.3332 -2.1696
59657SOL     OW85575   3.697   2.014   2.101 -0.6504 -0.2809  0.0938
59657SOL    HW185576   3.687   1.919   2.112 -0.0849 -0.4398 -0.6918
59657SOL    HW285577   3.670   2.050   2.185  2.2623 -1.3560  1.6447
59658SOL     OW85578   3.087  11.956   0.161  0.1411  0.6328 -0.6933
59658SOL    HW185579   2.999  11.921   0.144  1.1008 -1.9860 -0.8253
59658SOL    HW285580   3.145  11.882   0.143  2.1768  1.4130  2.1063
59659SOL     OW85581   9.227   3.358   3.068 -0.6435  0.3608 -0.6548
59659SOL    HW185582   9.226   3.305   3.147 -0.3884 -0.0066 -0.8947
59659SOL    HW285583   9.208   3.296   2.997  0.0740  0.5116 -0.9803
59660SOL     OW85584   5.087   4.868  12.656  0.0136  0.1202 -0.5616
59660SOL    HW185585   5.084   4.773  12.663  0.7492  0.1455  0.3395
59660SOL    HW285586   5.180   4.888  12.640 -0.1399  0.6848 -0.7820
59661SOL     OW85587   4.219  11.633  11.176 -0.3187 -0.4458 -0.3194
59661SOL    HW185588   4.167  11.552  11.176 -1.2424  0.1248 -0.7712
59661SOL    HW285589   4.299  11.611  11.129 -0.5321 -1.1133 -0.3796
59662SOL     OW85590   4.299  12.017   2.692  0.4566  0.3856  0.3794
59662SOL    HW185591   4.242  11.952   2.733  1.8557 -0.8705  0.4016
59662SOL    HW285592   4.284  12.097   2.742 -0.7088 -0.1070  0.8596
59663SOL     OW85593   4.515   4.018  10.243 -0.0263  0.5415 -0.1425
59663SOL    HW185594   4.571   4.008  10.320  1.5247  0.9154 -1.1862
59663SOL    HW285595   4.434   4.057  10.277  0.7973  1.1066  1.2181
59664SOL     OW85596   9.075  11.698   0.170 -0.3103  0.2975 -0.2082
59664SOL    HW185597   9.010  11.629   0.159 -1.9152  1.1910  2.5133
59664SOL    HW285598   9.027  11.779   0.148  0.0381  0.8960  1.0954
59665SOL     OW85599   3.394   8.129   2.021  0.1673 -0.3981 -0.0861
59665SOL    HW185600   3.355   8.216   2.025  2.0482  0.5141 -0.2642
59665SOL    HW285601   3.361   8.083   2.098 -1.0159  0.3966 -0.1079
59666SOL     OW85602   5.944  10.814  10.214  0.6538  0.2222  0.0607
59666SOL    HW185603   5.991  10.769  10.144 -0.3717 -1.7042  0.5406
59666SOL    HW285604   6.011  10.833  10.280  1.1946 -0.1796 -0.3667
59667SOL     OW85605   3.126   6.399  11.074  0.1040  0.1997  0.7012
59667SOL    HW185606   3.115   6.324  11.016  1.4184 -0.3808  1.1749
59667SOL    HW285607   3.079   6.470  11.030 -1.1584 -0.8880  0.2539
59668SOL     OW85608   5.091  12.377   5.598 -0.2860  0.0765  0.1755
59668SOL    HW185609   5.128  12.366   5.510 -1.2893 -0.9781 -0.1553
59668SOL    HW285610   5.024  12.308   5.604  1.5177 -1.6460  2.7362
59669SOL     OW85611   4.836   1.936   4.904  0.3259  0.3318 -0.0668
59669SOL    HW185612   4.774   1.880   4.951  2.3031 -2.6273 -0.6808
59669SOL    HW285613   4.908   1.948   4.965  0.8904  0.3640 -0.7324
59670SOL     OW85614  10.118   2.028  12.416  0.5464 -0.1828  0.2525
59670SOL    HW185615  10.026   2.034  12.442 -0.2562  0.7706 -2.4710
59670SOL    HW285616  10.116   1.983  12.331  2.4835  0.7305 -0.3277
59671SOL     OW85617   9.785   8.724   9.590  0.2810  0.1898 -0.2724
59671SOL    HW185618   9.866   8.774   9.581  1.6036 -1.7588  0.2153
59671SOL    HW285619   9.717   8.782   9.556  1.8115  2.0346 -0.3357
59672SOL     OW85620  10.344   0.213   6.181 -0.2366  0.1567  0.3757
59672SOL    HW185621  10.398   0.289   6.162  0.3319 -0.3899 -0.2826
59672SOL    HW285622  10.407   0.144   6.203 -0.7412 -0.1281  0.9542
59673SOL     OW85623   9.963   7.157   1.159  0.3672  0.1860  0.0022
59673SOL    HW185624   9.874   7.151   1.196  0.0895 -0.8064 -0.7798
59673SOL    HW285625  10.021   7.144   1.233 -0.1575 -0.0596  0.3741
59674SOL     OW85626   3.568   8.179  11.325  0.5209  0.2668  0.4044
59674SOL    HW185627   3.660   8.204  11.321  0.0112  2.2585  0.0592
59674SOL    HW285628   3.530   8.237  11.391 -0.7577  0.4710 -0.4665
59675SOL     OW85629   2.528   7.831   0.779 -0.3672 -0.1368  0.1414
59675SOL    HW185630   2.523   7.763   0.846  1.2264 -0.9598 -0.5241
59675SOL    HW285631   2.588   7.896   0.815  0.8436 -0.7954 -0.6325
59676SOL     OW85632   8.623   3.948   1.044 -0.1674 -0.1226 -0.1715
59676SOL    HW185633   8.565   3.900   0.986 -0.4236 -0.3695  0.2883
59676SOL    HW285634   8.706   3.901   1.039  0.1249  0.4406 -1.1112
59677SOL     OW85635   5.450   6.893   4.555 -0.7384  0.1138  0.2494
59677SOL    HW185636   5.477   6.979   4.586  0.1562 -0.6999  1.8791
59677SOL    HW285637   5.436   6.904   4.461  0.0126  1.8613  0.3085
59678SOL     OW85638   9.777   5.858   0.338 -0.0825 -0.1129  0.2624
59678SOL    HW185639   9.732   5.898   0.264 -0.1660  0.8075  0.7831
59678SOL    HW285640   9.736   5.773   0.350 -1.4960  0.5866  0.5425
59679SOL     OW85641   1.065   8.406   4.666  0.1851 -0.1532  0.2905
59679SOL    HW185642   1.030   8.355   4.739  0.1184 -0.2746  0.1753
59679SOL    HW285643   0.988   8.443   4.623  0.3072  1.4404  1.3677
59680SOL     OW85644   0.236   7.146   6.161  0.2889 -0.2618  0.4667
59680SOL    HW185645   0.198   7.066   6.124 -0.0339 -0.2799  0.8290
59680SOL    HW285646   0.305   7.170   6.100  1.1819 -1.4781  0.9536
59681SOL     OW85647   1.051   9.695   0.701 -0.1892  0.5317  0.3054
59681SOL    HW185648   0.994   9.640   0.755 -0.9302  1.0482  0.0669
59681SOL    HW285649   1.096   9.633   0.644 -1.3083  0.1784 -0.2375
59682SOL     OW85650   0.791   2.730   3.671  0.2051  0.1602 -0.3449
59682SOL    HW185651   0.727   2.733   3.600 -0.0548  0.8505 -0.0899
59682SOL    HW285652   0.752   2.671   3.736 -0.7054  1.4063  0.2918
59683SOL     OW85653   6.609   9.117   2.103 -0.8379 -0.3833  0.6403
59683SOL    HW185654   6.569   9.034   2.078  1.8058 -1.5743  0.0503
59683SOL    HW285655   6.654   9.098   2.185  1.4843 -0.1546 -0.5191
59684SOL     OW85656   8.621   3.350   1.314 -0.1401  0.3006  0.1352
59684SOL    HW185657   8.585   3.266   1.286 -0.3508 -0.0741  1.4725
59684SOL    HW285658   8.593   3.412   1.247 -1.1916 -0.4366 -0.1209
59685SOL     OW85659   3.719  12.717   9.700 -0.1317  0.8671 -0.3264
59685SOL    HW185660   3.791  12.770   9.734 -0.5084  1.7628 -0.8797
59685SOL    HW285661   3.738  12.628   9.729  0.9282  1.1779 -0.0378
59686SOL     OW85662   2.646  12.413   8.842 -0.2043 -0.1933 -0.1400
59686SOL    HW185663   2.677  12.348   8.779  0.6923  1.1367 -1.1473
59686SOL    HW285664   2.660  12.497   8.797  0.4124  0.8014  1.8160
59687SOL     OW85665   0.289   3.829   1.706  0.1338  0.7055  0.6123
59687SOL    HW185666   0.347   3.898   1.672  0.0060  1.6141  2.1052
59687SOL    HW285667   0.344   3.779   1.766  0.6545 -1.5459 -1.5848
59688SOL     OW85668   1.244   0.074   6.787  0.0881 -0.0729 -0.5547
59688SOL    HW185669   1.337   0.051   6.774  0.0483 -0.7037  0.1919
59688SOL    HW285670   1.222   0.126   6.710  0.9978 -0.1199 -0.8698
59689SOL     OW85671   1.521   4.865   6.736 -0.3308 -0.2469  0.2102
59689SOL    HW185672   1.438   4.856   6.784 -0.1837 -2.1362  0.2000
59689SOL    HW285673   1.586   4.881   6.804 -0.5019 -0.2296  0.3705
59690SOL     OW85674   1.494   7.130   4.936 -0.3781  0.0055  0.1015
59690SOL    HW185675   1.557   7.185   4.982 -1.8327  0.8423  1.1739
59690SOL    HW285676   1.537   7.045   4.928  1.0470  0.6773  0.3874
59691SOL     OW85677  10.161   8.345   2.951  0.4691 -0.0987  0.0727
59691SOL    HW185678  10.129   8.435   2.952  1.5237  0.3213 -1.1805
59691SOL    HW285679  10.123   8.305   3.029  0.5443  1.6201  1.0305
59692SOL     OW85680   7.569   0.364   6.381 -0.4649 -0.1748 -0.0478
59692SOL    HW185681   7.487   0.353   6.333 -1.2486  0.5498  1.0881
59692SOL    HW285682   7.558   0.312   6.460  1.1619 -2.0744 -0.9642
59693SOL     OW85683   7.280   9.844  12.204 -0.4182 -0.1779  0.4325
59693SOL    HW185684   7.304   9.936  12.218 -0.3333 -0.0522 -0.4823
59693SOL    HW285685   7.204   9.848  12.147 -0.5903 -0.6751  0.6262
59694SOL     OW85686  12.403  10.671  10.976 -0.1247  0.4698 -0.5973
59694SOL    HW185687  12.405  10.599  10.913 -0.5495 -1.0256  1.0424
59694SOL    HW285688  12.470  10.732  10.944  2.8994 -2.3354 -0.0734
59695SOL     OW85689   2.251   0.847   8.412 -0.2899 -0.7426 -0.1527
59695SOL    HW185690   2.165   0.843   8.369  0.3069  1.9954 -1.8234
59695SOL    HW285691   2.311   0.808   8.348  0.7652  4.2564 -2.6937
59696SOL     OW85692  12.347   0.438   3.148  0.0140  0.0583 -0.1278
59696SOL    HW185693  12.396   0.377   3.093  0.7447  0.0989  0.4625
59696SOL    HW285694  12.318   0.385   3.222  2.0266  0.7297  1.2120
59697SOL     OW85695   1.759  10.283   5.568 -0.4085  0.1564  0.1791
59697SOL    HW185696   1.772  10.191   5.591 -0.6542 -0.1722 -0.8979
59697SOL    HW285697   1.844  10.324   5.580 -0.5590  0.0528  1.7517
59698SOL     OW85698  10.634   0.931   0.411  0.3851 -0.0596 -0.6033
59698SOL    HW185699  10.667   1.009   0.453 -0.3072 -0.4748  0.7774
59698SOL    HW285700  10.654   0.860   0.472 -2.1084 -0.4522 -0.1223
59699SOL     OW85701   2.331  10.057   9.495  0.1247 -0.0651 -0.1869
59699SOL    HW185702   2.340   9.962   9.488 -1.4654 -0.2721  0.2585
59699SOL    HW285703   2.245  10.076   9.458  0.6117  1.2727 -0.6986
59700SOL     OW85704   0.042   2.479   9.332  0.2370  0.4080 -0.1322
59700SOL    HW185705  -0.046   2.508   9.308 -0.0901 -0.6108 -0.2117
59700SOL    HW285706   0.092   2.560   9.343 -0.6805  0.9966 -0.1896
59701SOL     OW85707   3.040  11.197   7.937  0.1165 -0.2943  0.1826
59701SOL    HW185708   3.080  11.207   7.850 -0.3428  0.7849  0.0745
59701SOL    HW285709   2.950  11.171   7.919 -0.2215  0.7561  0.2892
59702SOL     OW85710   7.725  10.977   0.829 -0.4006  0.3126 -0.2041
59702SOL    HW185711   7.766  10.961   0.744  1.1209  0.0676  0.5598
59702SOL    HW285712   7.797  10.981   0.891 -1.5826 -1.3147  1.3882
59703SOL     OW85713   9.490   4.024   8.532 -0.7743 -0.6167 -0.1144
59703SOL    HW185714   9.556   4.082   8.495  0.1714 -2.0903 -0.8270
59703SOL    HW285715   9.505   4.028   8.627  0.3041 -0.8533 -0.2588
59704SOL     OW85716  12.554   5.324   1.163 -0.3182 -0.5480  0.1810
59704SOL    HW185717  12.546   5.418   1.180  0.7726 -0.2064 -1.0911
59704SOL    HW285718  12.463   5.293   1.162 -0.6613  0.2655  1.6246
59705SOL     OW85719   1.036  11.603   4.767  0.4135 -0.4685 -0.1370
59705SOL    HW185720   1.114  11.658   4.765 -0.0372  0.2260  0.4660
59705SOL    HW285721   1.067  11.519   4.800  0.5977  0.4316  2.2226
59706SOL     OW85722   7.698  12.519   1.126  0.2059  0.1190  0.0004
59706SOL    HW185723   7.631  12.566   1.175  0.5096 -0.0130  0.5529
59706SOL    HW285724   7.718  12.577   1.052 -0.1457  0.3964  0.1173
59707SOL     OW85725   4.300   6.307   6.600 -0.1672  0.0329 -0.4300
59707SOL    HW185726   4.372   6.285   6.660 -1.3482 -0.2159  0.9522
59707SOL    HW285727   4.316   6.399   6.577  0.0508  0.3024  0.7002
59708SOL     OW85728  10.274   4.043   1.142  0.6466 -0.3333 -0.0136
59708SOL    HW185729  10.249   3.979   1.076 -0.8029 -1.7034  1.7653
59708SOL    HW285730  10.206   4.109   1.140  1.0941  0.1204 -0.5010
59709SOL     OW85731   5.846  12.060   3.615 -0.3993  0.3813 -0.1558
59709SOL    HW185732   5.933  12.097   3.601 -0.6698  0.5284 -1.6140
59709SOL    HW285733   5.860  11.985   3.673  0.5569  0.9939  0.4120
59710SOL     OW85734   0.280   3.887  11.082 -0.6186 -0.3218 -0.0747
59710SOL    HW185735   0.281   3.792  11.097 -1.7719 -0.3964 -0.3505
59710SOL    HW285736   0.229   3.897  11.002  0.3563  0.4769 -0.6177
59711SOL     OW85737   9.309   2.623  10.183  0.5542 -0.0413 -0.3031
59711SOL    HW185738   9.254   2.556  10.224  0.3287 -0.2173 -0.8821
59711SOL    HW285739   9.290   2.616  10.089  1.9555 -0.4523 -0.5807
59712SOL     OW85740   9.142   2.899   5.361  0.0389  0.0198 -0.2227
59712SOL    HW185741   9.202   2.968   5.390  1.8500 -0.0560 -3.3454
59712SOL    HW285742   9.080   2.944   5.304 -2.1285 -0.1737  1.8266
59713SOL     OW85743   4.390   1.920   0.174 -0.5859 -0.4270 -0.7435
59713SOL    HW185744   4.315   1.945   0.119 -2.1264  0.6214  1.6619
59713SOL    HW285745   4.354   1.857   0.236  0.2804  0.7459  1.0077
59714SOL     OW85746   1.065   9.944  12.489  0.4274 -0.1536 -0.2366
59714SOL    HW185747   1.041   9.872  12.547  1.7774 -2.4935 -2.3948
59714SOL    HW285748   1.013   9.930  12.410  1.8407  0.3130 -1.2919
59715SOL     OW85749   7.595  11.467   5.104 -0.0336  0.1387 -0.5485
59715SOL    HW185750   7.548  11.537   5.059 -1.7256 -0.3528  0.3582
59715SOL    HW285751   7.687  11.482   5.083 -0.4880  1.7793 -1.5269
59716SOL     OW85752   5.066  10.754  10.168 -0.0487 -0.3644  0.1661
59716SOL    HW185753   5.055  10.810  10.244 -1.9176  0.5275 -0.6937
59716SOL    HW285754   5.161  10.741  10.161  0.4704  2.5901  0.4846
59717SOL     OW85755  11.009   0.001   1.913 -0.4460  0.3440 -0.1425
59717SOL    HW185756  10.961  -0.046   1.980  0.2697 -1.5900 -0.9185
59717SOL    HW285757  10.976  -0.034   1.830  1.7348 -0.5678 -0.7049
59718SOL     OW85758   3.258   3.991   0.542  0.0017  0.2581  0.1459
59718SOL    HW185759   3.173   3.997   0.586 -0.9505  0.0207 -1.6024
59718SOL    HW285760   3.322   3.995   0.614 -1.4820 -0.1988  1.5557
59719SOL     OW85761   6.631   8.522   2.638  0.3186 -0.1881  0.1898
59719SOL    HW185762   6.653   8.615   2.640  0.3004  0.0457 -3.5663
59719SOL    HW285763   6.715   8.477   2.643  0.9063  0.3240 -3.1464
59720SOL     OW85764   3.965  12.068   4.068 -0.1052  0.4036  0.0764
59720SOL    HW185765   3.910  12.142   4.096 -0.5126 -0.5393  1.9697
59720SOL    HW285766   4.048  12.083   4.112  0.2300  0.3648 -0.5363
59721SOL     OW85767   4.543   2.736  11.304  0.4549 -0.0219 -0.1324
59721SOL    HW185768   4.470   2.788  11.337 -0.2636 -0.1241 -1.4868
59721SOL    HW285769   4.502   2.664  11.256  1.4026  0.6678 -2.0845
59722SOL     OW85770   9.367  11.325   6.267 -0.0350 -0.0974  1.2589
59722SOL    HW185771   9.406  11.239   6.251  3.1881  1.2671  0.9866
59722SOL    HW285772   9.373  11.336   6.362  0.9851  0.4177  1.1404
59723SOL     OW85773   5.234   9.185   5.169  0.0468 -0.5172  0.0785
59723SOL    HW185774   5.314   9.144   5.202  1.2593  2.4839  1.2059
59723SOL    HW285775   5.248   9.193   5.074  0.5960 -0.9988  0.1165
59724SOL     OW85776   8.737   2.587  11.473  0.1321  0.2481 -0.2700
59724SOL    HW185777   8.703   2.586  11.383 -0.3457  0.5276 -0.0950
59724SOL    HW285778   8.694   2.662  11.514 -0.8021 -0.7419  0.6309
59725SOL     OW85779   8.359   1.755   2.923 -0.2084 -0.3517  0.4267
59725SOL    HW185780   8.300   1.794   2.859 -1.6864 -0.3456  1.7187
59725SOL    HW285781   8.431   1.719   2.871 -1.6613 -0.9222 -1.2893
59726SOL     OW85782   0.341   2.827   8.483  0.2478  0.4291  0.3579
59726SOL    HW185783   0.357   2.824   8.388  0.1885  0.2268  0.3546
59726SOL    HW285784   0.429   2.828   8.522  0.3156 -1.6919  0.3728
59727SOL     OW85785   7.456   5.097  10.125  0.0753 -0.4088  0.3285
59727SOL    HW185786   7.551   5.097  10.118  0.0255 -0.8111 -0.6655
59727SOL    HW285787   7.436   5.158  10.196  1.1176 -1.2321  1.3647
59728SOL     OW85788   6.691   4.907   4.155  0.0109 -0.0745 -0.0560
59728SOL    HW185789   6.649   4.992   4.142  1.8804  0.8000 -0.6524
59728SOL    HW285790   6.768   4.925   4.208  0.0275 -1.5427  0.4778
59729SOL     OW85791  10.204   9.461   0.411  0.1757 -0.1762  0.0563
59729SOL    HW185792  10.151   9.388   0.378 -1.5438  1.3585 -0.7518
59729SOL    HW285793  10.285   9.457   0.360 -1.3722  0.5876 -2.6529
59730SOL     OW85794   3.296   6.383   2.857  0.5455 -0.5456 -0.6885
59730SOL    HW185795   3.373   6.436   2.876 -1.2637  1.4028  2.1334
59730SOL    HW285796   3.322   6.294   2.879  1.4603  0.3608  2.5411
59731SOL     OW85797   6.241   8.615   3.254 -0.6150 -0.1304  0.2893
59731SOL    HW185798   6.320   8.617   3.307 -0.2916  0.3579 -0.1968
59731SOL    HW285799   6.261   8.555   3.182 -0.3000  0.7995 -0.4107
59732SOL     OW85800  12.031   6.340  11.837 -0.2550  0.0316  0.0115
59732SOL    HW185801  12.116   6.362  11.800 -1.2371  2.3810 -1.0470
59732SOL    HW285802  11.967   6.384  11.781 -2.0973 -0.2230  1.7601
59733SOL     OW85803   5.657  11.873   1.633  0.6647 -0.0988  0.0769
59733SOL    HW185804   5.695  11.811   1.695  0.5743  1.0134  1.2698
59733SOL    HW285805   5.687  11.842   1.547  1.4920 -1.1636  0.7240
59734SOL     OW85806  12.374   5.943   1.693  0.2204  0.3549  0.2720
59734SOL    HW185807  12.321   5.987   1.760  0.2822 -0.8203  1.1402
59734SOL    HW285808  12.386   5.854   1.727  1.2885  0.0820 -0.7403
59735SOL     OW85809   4.245   1.746   6.230  0.0022  0.4505 -0.2224
59735SOL    HW185810   4.257   1.790   6.146  1.0763  0.9066  0.1565
59735SOL    HW285811   4.244   1.816   6.295  1.4942 -0.0306  0.3655
59736SOL     OW85812   7.704   9.185   9.204  0.3250  0.2293  0.2137
59736SOL    HW185813   7.653   9.266   9.201  0.3291  0.2001 -1.3175
59736SOL    HW285814   7.643   9.117   9.176  0.6293 -0.1227  0.4020
59737SOL     OW85815  11.331  10.266   6.072  0.0258  1.0357 -0.3896
59737SOL    HW185816  11.416  10.292   6.037  0.6599 -1.0591 -0.5845
59737SOL    HW285817  11.332  10.297   6.163  1.5978 -0.1111  0.0262
59738SOL     OW85818   5.708  12.557   6.564 -0.6231 -0.4691  0.3805
59738SOL    HW185819   5.665  12.502   6.629 -0.6968 -1.4923 -0.5012
59738SOL    HW285820   5.710  12.645   6.603 -2.2156 -0.6948  1.0329
59739SOL     OW85821   4.331   9.169   9.321  0.8410  0.0314 -0.2490
59739SOL    HW185822   4.246   9.211   9.325 -0.1785 -2.0040  1.3084
59739SOL    HW285823   4.314   9.081   9.286  2.4414 -0.0793 -0.8445
59740SOL     OW85824   6.404   4.901   9.185 -0.3252  0.6884  0.6635
59740SOL    HW185825   6.460   4.855   9.248 -0.3893  1.7279  1.5144
59740SOL    HW285826   6.319   4.857   9.193  0.3076 -0.8556 -0.5902
59741SOL     OW85827   9.841   8.255   1.741 -0.1662  0.0968 -0.0074
59741SOL    HW185828   9.752   8.265   1.709 -0.6430 -0.3932  1.1321
59741SOL    HW285829   9.871   8.172   1.703  0.2415  0.8119 -1.3260
59742SOL     OW85830   7.103   7.987   1.766  0.1513  0.1141  0.5328
59742SOL    HW185831   7.129   7.908   1.813  0.8106 -0.5886 -0.9218
59742SOL    HW285832   7.012   8.002   1.792 -0.3796 -1.8221 -0.0161
59743SOL     OW85833   0.705   7.127   0.948  0.1824  0.1810  0.6069
59743SOL    HW185834   0.631   7.154   1.002  0.2536  0.7803  0.4043
59743SOL    HW285835   0.698   7.031   0.944 -0.2021  0.1845  1.1250
59744SOL     OW85836   8.939   3.264  12.756  0.1367  0.2930  0.2757
59744SOL    HW185837   8.998   3.325  12.711 -0.0169  1.5174  1.6625
59744SOL    HW285838   8.942   3.185  12.703  0.1380  1.5796 -1.7304
59745SOL     OW85839   9.519   5.259   3.708 -0.0090 -0.6304  0.1831
59745SOL    HW185840   9.535   5.189   3.772  0.4952 -0.9160 -0.2398
59745SOL    HW285841   9.521   5.339   3.759  2.5832 -0.6535  0.2696
59746SOL     OW85842   4.137   6.902   6.054 -0.0979  0.4131  0.0581
59746SOL    HW185843   4.162   6.992   6.075  0.0339  0.0646  1.5349
59746SOL    HW285844   4.052   6.910   6.010  0.0172  1.2687 -0.0230
59747SOL     OW85845   4.885   7.690   3.031 -0.0307  0.7609 -0.4006
59747SOL    HW185846   4.800   7.654   3.058  1.3020 -1.9900  0.5030
59747SOL    HW285847   4.864   7.775   2.993 -3.1296  0.3854  0.2078
59748SOL     OW85848   4.793   9.656   3.644 -0.4792  0.2196 -0.5006
59748SOL    HW185849   4.798   9.680   3.736 -1.4098 -1.6478  0.0959
59748SOL    HW285850   4.820   9.734   3.597 -1.7368  1.8155  1.2925
59749SOL     OW85851   6.586  10.135   4.114  0.1699  0.1976 -0.2562
59749SOL    HW185852   6.536  10.060   4.146 -0.3241  0.2646 -0.8438
59749SOL    HW285853   6.584  10.198   4.186  0.2716 -0.1998  0.1009
59750SOL     OW85854   1.806   0.862   9.347  0.4886  0.0119 -0.2736
59750SOL    HW185855   1.840   0.904   9.268  2.4790 -1.7298 -0.4140
59750SOL    HW285856   1.724   0.821   9.320  0.2986  0.8280 -0.9771
59751SOL     OW85857   6.311  10.606   7.584 -0.0550 -0.0531 -0.0988
59751SOL    HW185858   6.366  10.635   7.656  1.4039 -0.3287 -1.0745
59751SOL    HW285859   6.225  10.642   7.604  0.5745  0.7876  1.2098
59752SOL     OW85860   2.739  10.621   4.607 -0.8109  0.2213 -0.1017
59752SOL    HW185861   2.779  10.550   4.556 -1.1861 -0.0013 -0.0903
59752SOL    HW285862   2.738  10.588   4.697 -0.4513  0.4795 -0.0054
59753SOL     OW85863   0.991  11.257   7.905  0.2330 -0.2586  0.2710
59753SOL    HW185864   0.991  11.295   7.992 -0.1279 -1.5383  0.8674
59753SOL    HW285865   1.075  11.282   7.866 -0.2416  1.6184  0.3678
59754SOL     OW85866  12.096   7.507   5.648 -0.3105  0.0650  0.0863
59754SOL    HW185867  12.174   7.553   5.617 -1.1009  2.6755  1.6781
59754SOL    HW285868  12.034   7.513   5.576  0.5033 -1.0153 -0.7488
59755SOL     OW85869   1.147   3.699   7.209 -0.1341 -1.1222 -0.2339
59755SOL    HW185870   1.069   3.754   7.205 -0.5848 -1.7870 -2.8716
59755SOL    HW285871   1.121   3.622   7.259 -0.1266  0.0687  1.6832
59756SOL     OW85872   2.722   0.128   3.617  0.0493 -0.0815 -0.3579
59756SOL    HW185873   2.669   0.049   3.607  0.3372 -0.1443 -1.5090
59756SOL    HW285874   2.758   0.121   3.706  0.1156 -1.2690 -0.4540
59757SOL     OW85875   2.602  10.507  12.445 -0.4254 -0.1451  0.3871
59757SOL    HW185876   2.595  10.591  12.401  0.8652  0.2792  0.9534
59757SOL    HW285877   2.683  10.468  12.410 -0.1880 -0.4586  1.2608
59758SOL     OW85878  11.861   2.484   1.561 -0.2148 -0.5148  0.0589
59758SOL    HW185879  11.822   2.571   1.562  0.2219 -0.3028  1.6428
59758SOL    HW285880  11.891   2.471   1.471 -1.6546  0.3278 -0.5786
59759SOL     OW85881   4.299   6.262   5.201  0.0456  0.5688 -0.0370
59759SOL    HW185882   4.220   6.302   5.238 -0.5025 -0.5902  0.0683
59759SOL    HW285883   4.267   6.207   5.129  0.6807 -0.4397  0.4402
59760SOL     OW85884  12.419   1.996   7.292  0.2063 -0.2949  0.0623
59760SOL    HW185885  12.418   1.947   7.375  1.9835 -0.7127 -0.1123
59760SOL    HW285886  12.436   1.930   7.225 -1.6684 -0.0287 -0.7325
59761SOL     OW85887  12.764  10.483   5.916  0.5532 -0.1821 -0.9103
59761SOL    HW185888  12.807  10.564   5.943  1.5058 -0.7657 -0.6137
59761SOL    HW285889  12.674  10.491   5.950  0.3945  1.0620 -1.5508
59762SOL     OW85890  12.000   7.072   1.109 -0.2577 -0.2783  0.0781
59762SOL    HW185891  12.082   7.099   1.068  0.0426  0.4521  1.1263
59762SOL    HW285892  11.984   7.138   1.177 -2.6874  0.7000 -1.2987
59763SOL     OW85893  10.875   2.622   9.408 -0.7662 -0.3562  0.0503
59763SOL    HW185894  10.923   2.696   9.446 -2.6940  0.3542  1.2631
59763SOL    HW285895  10.940   2.552   9.401  0.4849  0.6044  1.4080
59764SOL     OW85896  12.103   7.681   4.904  0.1727 -0.3892 -0.0258
59764SOL    HW185897  12.125   7.709   4.815 -0.7035 -1.1549 -0.4996
59764SOL    HW285898  12.100   7.762   4.955  0.9505  0.0304 -0.6216
59765SOL     OW85899   1.468   1.479   1.314  0.1700 -0.5364 -0.1418
59765SOL    HW185900   1.496   1.394   1.279  0.0672 -0.4159 -0.5281
59765SOL    HW285901   1.426   1.523   1.239 -1.0084 -0.6956  0.3986
59766SOL     OW85902   0.845   0.669   1.622 -0.4051  0.6280  0.1404
59766SOL    HW185903   0.918   0.629   1.669 -0.5487  0.4088  0.1775
59766SOL    HW285904   0.802   0.595   1.578 -1.1173  0.6326  0.8089
59767SOL     OW85905   6.466  12.085   8.965 -0.8138  0.4018 -0.7372
59767SOL    HW185906   6.521  12.046   8.896  0.5845 -1.6042  1.3329
59767SOL    HW285907   6.519  12.156   9.001 -1.4838  1.3561 -1.5908
59768SOL     OW85908   1.051  10.407   0.200 -0.3224 -0.1342  0.6179
59768SOL    HW185909   0.978  10.350   0.179 -0.9971  0.3770  1.5204
59768SOL    HW285910   1.057  10.405   0.295  0.6800  0.0350  0.5708
59769SOL     OW85911  10.729   3.248  10.064  0.1733  0.5839 -0.0032
59769SOL    HW185912  10.666   3.293  10.007 -0.3764  1.3384  1.1476
59769SOL    HW285913  10.746   3.165  10.021  0.6622  1.5825 -1.8428
59770SOL     OW85914   8.376   2.383  12.223 -0.0527  0.4886  0.0020
59770SOL    HW185915   8.305   2.329  12.188  0.6638  0.5983 -1.7319
59770SOL    HW285916   8.384   2.357  12.315 -1.1082 -0.8435 -0.2625
59771SOL     OW85917  11.616  11.297   0.352  0.6223 -0.8046 -0.4654
59771SOL    HW185918  11.611  11.213   0.307  1.9331 -1.8097  1.1519
59771SOL    HW285919  11.693  11.289   0.409 -0.0947  0.9226  0.8291
59772SOL     OW85920   9.546   4.455   0.822 -0.0820 -0.0102 -0.3346
59772SOL    HW185921   9.515   4.424   0.737  0.4118  0.4621 -0.6996
59772SOL    HW285922   9.641   4.437   0.820 -0.1023 -0.2050  0.2112
59773SOL     OW85923   9.059   4.396   9.154  0.0587 -0.0911  0.1817
59773SOL    HW185924   8.975   4.389   9.110 -0.0916  0.0185  0.4537
59773SOL    HW285925   9.067   4.315   9.204  0.4305 -0.4164 -0.3942
59774SOL     OW85926   9.127   8.570   2.476  0.2026 -0.0159 -0.3063
59774SOL    HW185927   9.212   8.568   2.521 -0.5142 -0.2122  1.0584
59774SOL    HW285928   9.120   8.484   2.434  0.5449 -0.1041 -0.1853
59775SOL     OW85929  10.035   4.156   3.571  0.6170 -0.0259 -0.2865
59775SOL    HW185930   9.940   4.163   3.563  0.6136  0.2037 -0.0783
59775SOL    HW285931  10.067   4.156   3.481  0.4815  0.8023 -0.3444
59776SOL     OW85932   8.197  10.796   2.553 -0.1999  0.1716 -0.2563
59776SOL    HW185933   8.216  10.795   2.459  2.0102  1.0742  0.1367
59776SOL    HW285934   8.141  10.719   2.566 -0.2825 -0.1688 -2.2433
59777SOL     OW85935  11.408   9.157   9.624  0.3656 -0.2857  0.0877
59777SOL    HW185936  11.431   9.096   9.553  1.4661  0.9545 -0.6713
59777SOL    HW285937  11.492   9.181   9.663  0.1421  1.8798 -0.6123
59778SOL     OW85938  11.043  10.544   1.939 -1.0468  0.2207 -0.3436
59778SOL    HW185939  11.047  10.490   2.017  0.5514 -0.8091 -1.0948
59778SOL    HW285940  11.123  10.524   1.890 -3.3529 -1.6200 -3.8328
59779SOL     OW85941   8.943   0.225  11.932  0.4960  0.5211 -0.2029
59779SOL    HW185942   9.013   0.269  11.885 -0.2319  0.1860 -1.6536
59779SOL    HW285943   8.940   0.269  12.017 -0.0653  3.1676 -1.4949
59780SOL     OW85944  12.139   7.397   4.585 -0.0541 -0.4023  0.4428
59780SOL    HW185945  12.174   7.434   4.666 -1.8481  0.2672  0.9560
59780SOL    HW285946  12.139   7.470   4.524  0.2610 -0.6317  0.1629
59781SOL     OW85947   4.075   8.281   7.694  0.1504  0.3209  0.2365
59781SOL    HW185948   4.044   8.371   7.701 -0.6667 -0.1076  3.3935
59781SOL    HW285949   4.021   8.242   7.625 -1.3934  1.5061  0.7314
59782SOL     OW85950   7.144   5.926   0.882  0.2415 -0.4842  0.0160
59782SOL    HW185951   7.073   5.917   0.946  1.1173 -2.7497  0.7494
59782SOL    HW285952   7.099   5.938   0.798 -0.9352  1.3088  0.8326
59783SOL     OW85953   2.336   1.153  12.204  0.1688  0.1519 -0.1075
59783SOL    HW185954   2.304   1.064  12.192 -0.3375  0.4417 -0.9786
59783SOL    HW285955   2.274   1.192  12.266 -1.2832  0.7363 -1.8471
59784SOL     OW85956  11.868   7.306   6.271 -0.1433  0.1671 -0.3583
59784SOL    HW185957  11.894   7.215   6.281 -0.0656  0.2090 -0.1780
59784SOL    HW285958  11.848   7.336   6.360  0.9557  0.6676 -0.2580
59785SOL     OW85959   9.543   5.913   1.960  0.0121  0.4650  0.4760
59785SOL    HW185960   9.575   5.823   1.955  1.5660  1.0121 -0.3296
59785SOL    HW285961   9.473   5.911   2.025 -0.0034 -1.3178  0.4463
59786SOL     OW85962   6.822  10.602   0.798 -0.1965  0.3030  0.2909
59786SOL    HW185963   6.794  10.633   0.884  0.9061  0.6195  0.5574
59786SOL    HW285964   6.915  10.625   0.794 -0.4417  1.1210 -1.3655
59787SOL     OW85965   6.762   7.966   8.490 -0.5110  0.5305  0.2013
59787SOL    HW185966   6.855   7.942   8.498 -0.3982  0.1720 -1.6110
59787SOL    HW285967   6.756   8.008   8.404 -2.2316 -0.5588 -0.2703
59788SOL     OW85968  10.396   7.354   7.805  0.0535 -0.1793  0.2769
59788SOL    HW185969  10.322   7.407   7.776 -0.7693 -0.5859  1.5595
59788SOL    HW285970  10.455   7.417   7.848  0.3017  0.0887 -0.4471
59789SOL     OW85971   7.097   3.416   1.666 -0.1163  0.5451 -0.4911
59789SOL    HW185972   7.143   3.429   1.749 -0.8610 -3.0527  0.6613
59789SOL    HW285973   7.150   3.462   1.601  2.2439  0.8350  1.5026
59790SOL     OW85974   0.713   0.656   7.272  0.5000 -0.5750  0.5703
59790SOL    HW185975   0.709   0.676   7.366  0.0443 -1.7231  0.8021
59790SOL    HW285976   0.745   0.566   7.268 -1.6460 -1.3530 -0.2848
59791SOL     OW85977   8.760   7.528   1.850 -0.1437  0.3384  0.2245
59791SOL    HW185978   8.848   7.549   1.818 -0.4498  2.0599  0.4124
59791SOL    HW285979   8.767   7.537   1.945 -0.5468  0.6358  0.2279
59792SOL     OW85980   3.355  10.848   4.365 -0.0679  0.0591  0.4769
59792SOL    HW185981   3.305  10.910   4.419  0.5466  0.6627  0.3554
59792SOL    HW285982   3.440  10.841   4.409 -0.0043 -0.4108  0.2807
59793SOL     OW85983   9.547   4.773  11.213 -0.6194  0.0219 -0.2755
59793SOL    HW185984   9.584   4.706  11.155  2.9433  0.8364  0.8629
59793SOL    HW285985   9.559   4.738  11.301 -0.6650  1.2622  0.2388
59794SOL     OW85986  12.203   8.876   2.586  0.1066  0.2615  0.6945
59794SOL    HW185987  12.230   8.785   2.596 -1.8478 -0.6124 -1.2463
59794SOL    HW285988  12.284   8.923   2.566  0.9678 -1.2533  0.5193
59795SOL     OW85989   3.940  11.600  11.809  0.3163 -0.4296 -0.6886
59795SOL    HW185990   4.027  11.560  11.817  0.4133 -0.0581  0.1999
59795SOL    HW285991   3.879  11.527  11.817  0.4862 -0.3924  1.2176
59796SOL     OW85992   4.855  11.795   0.818 -0.4088  0.0302  0.6950
59796SOL    HW185993   4.936  11.819   0.864 -0.2165  0.1016  0.3241
59796SOL    HW285994   4.787  11.846   0.862  0.1480  2.2327 -0.8149
59797SOL     OW85995  10.548   9.875   8.086 -0.0038 -0.2087  0.1451
59797SOL    HW185996  10.486   9.905   8.153  0.3157 -0.6603  0.6585
59797SOL    HW285997  10.633   9.906   8.117  0.1571 -0.4991 -0.0014
59798SOL     OW85998   2.666  10.238   8.297 -0.3102  0.1359 -0.1900
59798SOL    HW185999   2.673  10.321   8.344 -0.6608 -0.6427  1.2837
59798SOL    HW286000   2.746  10.191   8.319 -0.2417 -0.0461 -0.8014
59799SOL     OW86001   1.740   8.835  11.224 -0.3095 -0.1179 -0.3562
59799SOL    HW186002   1.693   8.781  11.161  0.5801  0.5879 -1.6555
59799SOL    HW286003   1.752   8.920  11.181 -1.5817  1.1416  1.5920
59800SOL     OW86004   7.110  11.653   3.150 -0.4364  0.3992 -0.4936
59800SOL    HW186005   7.070  11.704   3.220 -0.7010 -1.1683  0.5575
59800SOL    HW286006   7.070  11.688   3.069 -0.7127  1.7090  0.1833
59801SOL     OW86007   3.956   0.746   8.997  0.0751 -0.2850 -0.4419
59801SOL    HW186008   4.047   0.717   8.992  0.0567 -0.2946 -0.7703
59801SOL    HW286009   3.904   0.666   8.991  0.0506 -0.3118  0.1102
59802SOL     OW86010   2.805   2.742   1.030 -0.5469  0.4140 -0.0695
59802SOL    HW186011   2.710   2.737   1.034 -0.4931 -0.4140  0.1884
59802SOL    HW286012   2.827   2.708   0.943 -0.4406 -0.0023  0.1225
59803SOL     OW86013   1.820   2.541   0.551 -0.2943 -0.0153 -0.0376
59803SOL    HW186014   1.914   2.548   0.536 -0.4445 -0.0503 -1.0613
59803SOL    HW286015   1.790   2.631   0.560 -0.1754 -0.0003  0.2112
59804SOL     OW86016  12.357   2.489   8.258 -0.5427  0.2198 -0.6317
59804SOL    HW186017  12.367   2.519   8.348  1.1585 -0.0598 -0.6919
59804SOL    HW286018  12.295   2.550   8.219 -0.2955  1.1488  0.3737
59805SOL     OW86019   0.372   2.116  11.647  0.3458 -0.1241  0.0210
59805SOL    HW186020   0.308   2.099  11.715  1.3612 -2.4933  0.4875
59805SOL    HW286021   0.447   2.154  11.693  0.2014  0.3733 -0.1449
59806SOL     OW86022   9.259   2.769   3.748 -0.1593  0.0007 -0.5478
59806SOL    HW186023   9.321   2.793   3.817  0.3105 -0.6641 -0.7249
59806SOL    HW286024   9.277   2.830   3.677 -0.9804  1.0145  0.0808
59807SOL     OW86025  12.136   1.105  12.398  0.7782 -0.4545  0.7559
59807SOL    HW186026  12.085   1.041  12.347  1.8012 -0.4237 -0.3553
59807SOL    HW286027  12.080   1.127  12.472 -0.7309 -0.5747 -0.3090
59808SOL     OW86028   7.632   9.240   2.738 -0.4228 -0.8051  0.9004
59808SOL    HW186029   7.552   9.277   2.701 -0.7831  1.2329  3.4114
59808SOL    HW286030   7.694   9.240   2.665 -2.0256 -0.3193 -0.5442
59809SOL     OW86031   6.476   3.510   3.452  0.0485 -0.1500 -0.3050
59809SOL    HW186032   6.464   3.570   3.526 -0.1602 -0.5226 -0.0314
59809SOL    HW286033   6.401   3.450   3.458  1.2421 -1.6315  0.5666
59810SOL     OW86034   0.390   5.817   0.184  0.0674  0.2426  0.4137
59810SOL    HW186035   0.332   5.763   0.131  0.9127 -0.4841  0.1933
59810SOL    HW286036   0.405   5.896   0.132 -1.3846  0.8358  0.8506
59811SOL     OW86037  11.446   4.494  10.603  0.3085  0.3663 -0.2492
59811SOL    HW186038  11.388   4.418  10.598  2.1793 -1.0797 -0.5836
59811SOL    HW286039  11.422   4.547  10.527  0.5443 -1.0360 -1.3303
59812SOL     OW86040  12.743  12.784   8.954  0.4768 -0.3145  0.1268
59812SOL    HW186041  12.722  12.802   8.862  1.3731 -0.9989 -0.2281
59812SOL    HW286042  12.661  12.753   8.992  0.0706  0.0842 -0.4155
59813SOL     OW86043   7.608   4.232   9.791  0.0722 -0.2236  0.1664
59813SOL    HW186044   7.618   4.252   9.697 -1.2841  0.5304  0.1501
59813SOL    HW286045   7.516   4.209   9.800  0.4356 -1.3724  1.1494
59814SOL     OW86046   1.830   4.237  10.336  0.1706 -0.2594 -0.0500
59814SOL    HW186047   1.840   4.159  10.390  1.7742  0.4280  0.7116
59814SOL    HW286048   1.907   4.237  10.279 -0.3331  0.2325 -0.7457
59815SOL     OW86049   6.026  11.632   8.298 -0.0939  0.3288 -0.0044
59815SOL    HW186050   6.058  11.649   8.386 -0.0530 -0.2886  0.1061
59815SOL    HW286051   5.940  11.593   8.311 -0.1865  0.4490 -0.2472
59816SOL     OW86052   5.125   8.372   3.030 -0.6324  0.6522 -0.3855
59816SOL    HW186053   5.221   8.367   3.030 -0.6244  0.5924  0.4544
59816SOL    HW286054   5.105   8.440   3.094 -1.1385  1.3355 -1.2474
59817SOL     OW86055   7.472   8.650  10.955  0.5261 -0.0136  0.2780
59817SOL    HW186056   7.562   8.678  10.936  0.7426 -0.4565  0.6427
59817SOL    HW286057   7.441   8.612  10.873  0.5889  0.3446  0.0833
59818SOL     OW86058  10.174  11.726  10.574  0.0559 -0.2623 -0.0189
59818SOL    HW186059  10.125  11.693  10.499 -0.9633 -0.3297  0.6576
59818SOL    HW286060  10.125  11.697  10.650 -2.2656  4.5466  0.6988
59819SOL     OW86061   1.663  10.112   7.610 -0.0265  0.4830  0.7651
59819SOL    HW186062   1.695  10.099   7.699 -0.9084 -0.4436  0.9762
59819SOL    HW286063   1.651  10.206   7.602  0.0407  0.5750  1.6403
59820SOL     OW86064   3.971   7.393   7.928  0.7965  0.6127  0.0844
59820SOL    HW186065   4.061   7.427   7.933  0.4019  1.5912  1.1871
59820SOL    HW286066   3.958   7.349   8.012  0.6737 -0.6813 -0.6033
59821SOL     OW86067   6.371  10.549   8.941  0.0039  0.0965  0.0559
59821SOL    HW186068   6.428  10.554   8.864  0.5982 -0.9776  0.4059
59821SOL    HW286069   6.333  10.637   8.948  0.4123  0.3847 -1.0980
59822SOL     OW86070   2.777   2.468   8.177  0.3254  0.2551  0.2733
59822SOL    HW186071   2.747   2.531   8.242  1.3913  2.1571 -0.9682
59822SOL    HW286072   2.706   2.465   8.112 -0.3950 -1.0474  1.0810
59823SOL     OW86073  11.600   8.001   5.291 -0.4593  0.0853  0.0357
59823SOL    HW186074  11.647   8.082   5.313 -0.7123  0.1550  0.3222
59823SOL    HW286075  11.526   8.030   5.238 -0.5399  0.0377  0.1239
59824SOL     OW86076   0.352   5.612  11.842 -0.0545  0.2956  0.2761
59824SOL    HW186077   0.326   5.582  11.929  0.4800  0.3427  0.4548
59824SOL    HW286078   0.339   5.536  11.785  0.9958 -0.1924  0.6653
59825SOL     OW86079   0.490   6.751   7.993  0.3028 -0.1071  0.4044
59825SOL    HW186080   0.453   6.759   7.906  1.5166  0.4824 -0.0853
59825SOL    HW286081   0.415   6.758   8.052 -0.7469 -2.0001 -0.5913
59826SOL     OW86082   3.095  11.075  11.147 -0.4898  0.0492  0.0939
59826SOL    HW186083   3.187  11.066  11.169 -0.6760  0.8741  1.2991
59826SOL    HW286084   3.093  11.085  11.052  0.7412  0.9065  0.1405
59827SOL     OW86085   8.992   9.102   1.892  0.2198 -0.1961 -0.8576
59827SOL    HW186086   8.989   9.155   1.812  1.8194  1.2796 -0.0165
59827SOL    HW286087   9.036   9.021   1.866  1.0150  0.4027 -1.4309
59828SOL     OW86088  10.717   5.606   0.402 -0.2798  0.0531 -0.7798
59828SOL    HW186089  10.751   5.676   0.346  0.0699  0.8658  0.4088
59828SOL    HW286090  10.795   5.556   0.427 -0.6204 -1.3476 -2.3318
59829SOL     OW86091   6.203   2.644  10.320 -0.2103 -0.0085  0.3093
59829SOL    HW186092   6.117   2.686  10.313 -0.3054 -0.1753  0.4574
59829SOL    HW286093   6.222   2.613  10.231 -0.7742 -0.8817  0.4830
59830SOL     OW86094  12.126  10.419   4.071  0.4829 -0.1655  0.0394
59830SOL    HW186095  12.218  10.396   4.072  0.6931  0.4768 -1.5957
59830SOL    HW286096  12.089  10.374   4.147  1.8758 -1.4938 -0.0316
59831SOL     OW86097  10.357   1.411   5.531 -0.6936 -0.3822  0.6726
59831SOL    HW186098  10.382   1.500   5.556  0.3633 -0.3929 -0.3164
59831SOL    HW286099  10.363   1.361   5.613  1.3076 -0.1014  0.7493
59832SOL     OW86100   0.139  12.246   9.660 -0.2920 -0.3857  0.5339
59832SOL    HW186101   0.165  12.201   9.580  1.7715  0.5638  0.6065
59832SOL    HW286102   0.094  12.179   9.712  0.4960 -1.6678 -0.3931
59833SOL     OW86103   0.984   3.164  11.057 -0.0702 -0.3305  0.1553
59833SOL    HW186104   0.977   3.250  11.098  0.3672 -0.5092  0.6164
59833SOL    HW286105   0.919   3.111  11.102 -2.3194  0.4318 -1.9794
59834SOL     OW86106  12.075   9.440   8.690  0.0041  0.0660  0.0697
59834SOL    HW186107  12.027   9.514   8.727  0.0969 -0.9580  2.4165
59834SOL    HW286108  12.166   9.471   8.684  0.0170  0.2227  0.9072
59835SOL     OW86109   5.936   2.656   2.470  0.3279 -0.5341 -0.0614
59835SOL    HW186110   6.025   2.623   2.481  0.7539  0.7106  0.4447
59835SOL    HW286111   5.896   2.646   2.557  0.7102  0.8928  0.3182
59836SOL     OW86112   4.663  11.333  11.036  0.4691 -0.1662  0.2782
59836SOL    HW186113   4.752  11.331  11.070  0.5154 -0.1738  0.1591
59836SOL    HW286114   4.674  11.330  10.941  0.3279 -0.5759  0.2737
59837SOL     OW86115   7.461  11.150   0.542  0.0247  0.1119  0.4029
59837SOL    HW186116   7.401  11.215   0.578 -0.1568 -0.3613  0.9732
59837SOL    HW286117   7.441  11.070   0.591  1.8204  0.1860  1.3366
59838SOL     OW86118   5.971   5.467   4.981 -0.4195 -0.2065  0.1747
59838SOL    HW186119   6.006   5.395   4.929 -0.2351  0.1340 -0.1770
59838SOL    HW286120   5.876   5.457   4.976 -0.6005  1.7114 -3.0125
59839SOL     OW86121  11.080   4.222   1.739 -0.0075 -0.4022  0.3562
59839SOL    HW186122  11.010   4.187   1.794  0.1011  0.5575  1.1445
59839SOL    HW286123  11.089   4.159   1.667  0.7015 -2.4292  2.0995
59840SOL     OW86124   3.832   3.807  11.113  0.2397 -0.5388 -0.6132
59840SOL    HW186125   3.914   3.857  11.108  0.1946 -0.4494 -0.4600
59840SOL    HW286126   3.830   3.773  11.202  0.2782 -0.8315 -0.7216
59841SOL     OW86127   4.809   5.829  11.241  0.0721  0.1957  0.3113
59841SOL    HW186128   4.738   5.893  11.238 -0.6240 -0.3833  2.4440
59841SOL    HW286129   4.794   5.773  11.165 -1.6802  0.1902  0.6275
59842SOL     OW86130   7.223   7.982   3.543  0.5822 -0.2140  0.1603
59842SOL    HW186131   7.153   7.963   3.479  1.5406 -0.1948 -0.9283
59842SOL    HW286132   7.264   8.062   3.510  0.5850  0.2542  1.2644
59843SOL     OW86133   3.095   7.578   7.936 -0.3474  0.0614  0.1639
59843SOL    HW186134   3.119   7.496   7.892 -0.1250  0.9394 -1.4160
59843SOL    HW286135   3.002   7.568   7.956  0.2670 -1.7195  2.6637
59844SOL     OW86136   3.299   1.792  10.762 -0.1117 -0.8650 -0.3744
59844SOL    HW186137   3.261   1.722  10.709 -2.9719 -0.5722  1.0947
59844SOL    HW286138   3.242   1.798  10.839 -0.8414  3.8061 -0.9498
59845SOL     OW86139  11.374   5.901  12.109  0.0765 -0.2948 -0.0396
59845SOL    HW186140  11.403   5.952  12.033  0.9049 -1.3288 -0.4371
59845SOL    HW286141  11.279   5.909  12.107  0.0529 -0.5967 -1.4121
59846SOL     OW86142  10.579   2.032   8.229  0.3675 -0.3310  0.1320
59846SOL    HW186143  10.536   2.086   8.162 -0.2217 -2.2078 -1.0715
59846SOL    HW286144  10.666   2.072   8.239 -0.3752  1.4134  0.0281
59847SOL     OW86145   8.092   7.208   5.180  0.0996  0.6159 -0.1785
59847SOL    HW186146   8.004   7.244   5.166 -0.0951  0.2787  0.1354
59847SOL    HW286147   8.092   7.126   5.130 -0.0219  0.2497  0.4066
59848SOL     OW86148   4.875   0.388   5.939  0.1841 -0.9535 -0.7360
59848SOL    HW186149   4.815   0.419   5.871 -0.8230 -1.0797  0.0680
59848SOL    HW286150   4.839   0.303   5.965  1.0265 -1.2773 -0.6142
59849SOL     OW86151   6.074   4.505  11.946 -0.7412 -0.4432  0.3323
59849SOL    HW186152   6.112   4.444  12.009  1.5792  0.2788 -0.3012
59849SOL    HW286153   6.028   4.570  12.000  0.0082 -0.6159  1.2003
59850SOL     OW86154   2.541  11.551   7.001 -0.3351  0.1187  0.0784
59850SOL    HW186155   2.549  11.624   6.940  3.8222 -0.4473 -0.3988
59850SOL    HW286156   2.503  11.480   6.949 -1.7792  1.1143 -0.2610
59851SOL     OW86157   7.688   3.612   3.372 -0.0846 -0.2564 -0.0129
59851SOL    HW186158   7.728   3.624   3.458 -0.5051  0.9206  0.0334
59851SOL    HW286159   7.611   3.668   3.373 -0.9408 -1.3846 -0.6230
59852SOL     OW86160   8.038  11.348   2.535  0.4592 -0.4706  0.2885
59852SOL    HW186161   8.121  11.388   2.509 -0.0259  0.1596 -0.3406
59852SOL    HW286162   8.052  11.254   2.524  0.8494 -0.3238 -0.5572
59853SOL     OW86163   4.570   3.862   5.961  0.1500  0.3009 -0.0833
59853SOL    HW186164   4.533   3.794   5.905  1.4516 -1.0442  0.6112
59853SOL    HW286165   4.665   3.856   5.947  0.3448  1.4864  0.5555
59854SOL     OW86166   2.480   3.156  12.535 -0.3366  0.0225 -0.3051
59854SOL    HW186167   2.469   3.250  12.517 -0.5909 -0.0829 -0.6955
59854SOL    HW286168   2.573   3.140  12.518 -0.3318  0.1660 -0.4170
59855SOL     OW86169   3.697   0.856   3.524 -0.1142 -0.1376 -0.0245
59855SOL    HW186170   3.622   0.798   3.538 -0.6839  0.4865 -0.4499
59855SOL    HW286171   3.719   0.845   3.432  0.7157 -0.7744  0.2362
59856SOL     OW86172   8.955  11.163  11.456 -0.0978 -0.5838 -0.1628
59856SOL    HW186173   8.887  11.135  11.395 -0.0745 -0.8660 -0.0605
59856SOL    HW286174   8.967  11.088  11.515 -0.1642 -0.2935  0.2249
59857SOL     OW86175   5.995   8.215   5.882 -0.2361 -0.1354 -0.3080
59857SOL    HW186176   6.076   8.239   5.927 -1.1344  1.5008  0.5165
59857SOL    HW286177   5.998   8.263   5.799  0.4925 -1.5846 -1.1581
59858SOL     OW86178   8.890   4.337  10.834  0.5034  0.4210 -0.0198
59858SOL    HW186179   8.840   4.410  10.869  0.7893  1.5235 -1.8090
59858SOL    HW286180   8.980   4.369  10.829  0.6900 -0.1600 -0.5320
59859SOL     OW86181   3.059   9.762   3.787  0.1867  0.4394 -0.5895
59859SOL    HW186182   3.015   9.800   3.711 -0.5511 -1.0035 -0.9271
59859SOL    HW286183   2.989   9.752   3.852  0.1310 -1.1524 -0.8498
59860SOL     OW86184  11.737   7.806   8.455  0.5092 -0.0982  0.0913
59860SOL    HW186185  11.708   7.841   8.539  0.2054 -1.5283  0.5981
59860SOL    HW286186  11.776   7.722   8.475  0.5539 -0.4092 -1.1832
59861SOL     OW86187   7.868   2.131  10.726  0.1532  0.2630  0.1768
59861SOL    HW186188   7.867   2.208  10.783 -0.8987  0.6709 -0.3597
59861SOL    HW286189   7.813   2.067  10.771  0.1260  0.2257  0.0902
59862SOL     OW86190   9.765  11.313   0.274 -0.2907 -0.5018  0.2262
59862SOL    HW186191   9.694  11.353   0.225 -0.5049 -0.7868  0.2981
59862SOL    HW286192   9.824  11.278   0.207 -0.4089 -0.5926  0.1710
59863SOL     OW86193   2.247   0.463   3.809  0.3052  0.6069 -0.2080
59863SOL    HW186194   2.314   0.409   3.767 -0.5834  0.4257 -1.4325
59863SOL    HW286195   2.199   0.402   3.866  0.1076  0.3777 -0.6207
59864SOL     OW86196  11.669   2.227   4.813  0.1225  0.8924 -0.2696
59864SOL    HW186197  11.712   2.183   4.886  0.6503 -1.2116 -1.7661
59864SOL    HW286198  11.580   2.192   4.814  0.5328 -0.2792 -1.4391
59865SOL     OW86199   3.946   5.826   9.884  0.1073  0.4273  0.0884
59865SOL    HW186200   3.952   5.737   9.919 -0.1312  0.9726  1.5912
59865SOL    HW286201   3.955   5.815   9.790  2.3763 -0.9738  0.3892
59866SOL     OW86202   3.482   4.483  12.519  0.1868 -0.2996 -0.2278
59866SOL    HW186203   3.522   4.544  12.457  1.3918 -1.1383 -0.3134
59866SOL    HW286204   3.548   4.473  12.587  0.9207 -3.0403 -1.2187
59867SOL     OW86205   2.017  12.516   7.492  0.6906 -0.5284  0.3979
59867SOL    HW186206   1.995  12.574   7.565  3.5714 -1.3510  2.0883
59867SOL    HW286207   2.072  12.570   7.435  0.7351 -0.6829  0.2949
59868SOL     OW86208   5.093   2.085  11.845  0.2225 -0.3974 -0.4598
59868SOL    HW186209   5.017   2.132  11.881 -1.5103 -2.6202 -0.9535
59868SOL    HW286210   5.107   2.124  11.759  0.0023  0.4255 -0.1317
59869SOL     OW86211   9.388  12.493   7.928 -0.4514  0.1140 -0.7791
59869SOL    HW186212   9.296  12.493   7.954 -0.3896  0.2179 -0.5591
59869SOL    HW286213   9.406  12.403   7.903 -0.2911 -0.1652  0.3168
59870SOL     OW86214   8.589   9.815  12.215  0.3783  0.6618 -0.0593
59870SOL    HW186215   8.681   9.792  12.202  0.4643  0.5763  0.6431
59870SOL    HW286216   8.563   9.765  12.293 -0.7953 -0.8090 -1.3088
59871SOL     OW86217   5.633  10.975   3.664 -0.2969 -0.7051 -0.1802
59871SOL    HW186218   5.686  11.034   3.717 -0.5578  1.2483 -1.9391
59871SOL    HW286219   5.565  10.943   3.722 -0.5725  1.3347  0.6795
59872SOL     OW86220   5.212   6.503   4.442  0.1964  0.0776 -0.0674
59872SOL    HW186221   5.252   6.474   4.360  3.3912  0.8245  1.1166
59872SOL    HW286222   5.283   6.502   4.506 -1.3581  2.8046  1.9255
59873SOL     OW86223   8.569   1.025   0.970  0.4173  0.5553  0.2819
59873SOL    HW186224   8.479   1.021   1.002  0.7711  1.1096  1.3827
59873SOL    HW286225   8.601   0.935   0.978  0.6603  0.7581  2.0471
59874SOL     OW86226  11.748   0.473   7.343  0.2945 -0.0966 -0.3548
59874SOL    HW186227  11.732   0.453   7.435 -0.3080 -0.4190 -0.5257
59874SOL    HW286228  11.836   0.438   7.326  1.9744  3.0237  0.9894
59875SOL     OW86229   9.964   7.903   0.207 -0.4113 -0.3316  0.3323
59875SOL    HW186230   9.997   7.813   0.198  0.7609  0.0876  0.2490
59875SOL    HW286231   9.921   7.922   0.124 -0.8237 -0.8750  0.4184
59876SOL     OW86232   8.200   0.535   0.131 -0.3809  0.0479  0.3555
59876SOL    HW186233   8.254   0.539   0.052 -1.0455  0.3616 -0.0899
59876SOL    HW286234   8.184   0.442   0.144 -0.4072  0.0035  0.0183
59877SOL     OW86235   1.740  11.617  12.649  0.3830 -0.5036  0.3201
59877SOL    HW186236   1.778  11.559  12.715  0.9879 -2.0732 -1.3234
59877SOL    HW286237   1.785  11.594  12.568 -1.3215  0.3414 -0.9414
59878SOL     OW86238  11.599   1.608   0.269 -0.2794 -0.3918  0.2781
59878SOL    HW186239  11.653   1.530   0.263  1.5160  0.7974  0.3477
59878SOL    HW286240  11.584   1.634   0.178 -1.3267 -1.0837  0.2372
59879SOL     OW86241   6.880   4.105  11.108 -0.3687 -0.1313  0.7057
59879SOL    HW186242   6.966   4.111  11.066  0.0211  1.0619  1.6170
59879SOL    HW286243   6.827   4.054  11.047  1.5257 -2.6932  1.0530
59880SOL     OW86244   1.270   0.410   2.571  0.5318  0.5492  0.2669
59880SOL    HW186245   1.175   0.407   2.562  0.6873 -0.7133 -1.5388
59880SOL    HW286246   1.294   0.498   2.542 -0.0302  0.6971  0.2352
59881SOL     OW86247   2.307   1.561   2.310 -0.1667 -0.1930 -0.2959
59881SOL    HW186248   2.393   1.582   2.274 -0.7261  1.2091 -0.9175
59881SOL    HW286249   2.298   1.621   2.384 -0.7271 -0.1163 -0.4236
59882SOL     OW86250  10.971  11.552   4.635  0.5884  0.0849  0.1128
59882SOL    HW186251  11.030  11.598   4.694  0.6570  0.4354 -0.2310
59882SOL    HW286252  10.977  11.599   4.552  1.0550 -0.8579 -0.3991
59883SOL     OW86253  10.181   9.297   1.986  0.1208 -0.6527  0.0234
59883SOL    HW186254  10.096   9.330   1.956  0.4106  0.3602  0.2792
59883SOL    HW286255  10.161   9.249   2.066 -0.2361 -0.5594 -0.0066
59884SOL     OW86256   4.038   9.184   3.039  0.7582  0.1498  0.2637
59884SOL    HW186257   4.120   9.195   2.991  0.2223 -0.1390 -0.7250
59884SOL    HW286258   3.992   9.267   3.026  0.7446  0.1879  0.5457
59885SOL     OW86259   2.332   1.387  12.579 -0.1288 -0.1266  0.3874
59885SOL    HW186260   2.305   1.394  12.670  0.5683 -0.0292  0.5911
59885SOL    HW286261   2.340   1.478  12.549 -0.3012 -0.1574  0.2443
59886SOL     OW86262  10.898   7.082   2.238 -0.1473 -0.3012 -0.0146
59886SOL    HW186263  10.820   7.064   2.291 -0.6824 -1.7248 -1.2285
59886SOL    HW286264  10.970   7.084   2.301 -1.0123 -0.0244  0.9945
59887SOL     OW86265   5.419   5.854   7.096  0.2706  0.6570 -0.1228
59887SOL    HW186266   5.383   5.846   7.007 -0.7870  0.1428  0.3260
59887SOL    HW286267   5.389   5.939   7.126  0.0669  0.5512 -0.0238
59888SOL     OW86268  11.920   1.520   0.231 -0.3171  0.2229  0.1868
59888SOL    HW186269  11.910   1.523   0.326  0.9334 -0.8217  0.3680
59888SOL    HW286270  11.840   1.477   0.200 -0.0401 -0.8588  0.9121
59889SOL     OW86271   3.950   1.791  10.022 -0.0411  0.2690 -0.5211
59889SOL    HW186272   3.921   1.777   9.932  1.4084  2.4464 -1.4138
59889SOL    HW286273   3.888   1.855  10.058  0.2045  0.4584 -0.4337
59890SOL     OW86274   7.655   7.791   0.259  0.1133 -0.1941  0.1285
59890SOL    HW186275   7.713   7.774   0.333  0.5768 -1.4216 -0.4901
59890SOL    HW286276   7.599   7.713   0.254  0.7638 -0.5951 -1.4060
59891SOL     OW86277   6.140   4.638   5.622  0.2808  1.0745  0.8059
59891SOL    HW186278   6.078   4.711   5.614 -2.0175 -0.9060 -0.5466
59891SOL    HW286279   6.179   4.651   5.709 -2.0747  2.4209  1.7851
59892SOL     OW86280   2.778   8.256  11.811  0.3838 -0.9714  0.4046
59892SOL    HW186281   2.690   8.292  11.825 -1.4494 -4.6577 -0.4132
59892SOL    HW286282   2.803   8.220  11.896 -0.5640 -3.0586 -0.1439
59893SOL     OW86283   8.214   9.283  11.072 -0.0919  0.0388  0.7037
59893SOL    HW186284   8.250   9.372  11.064  0.0438  0.0503  1.3703
59893SOL    HW286285   8.290   9.229  11.095  0.1467 -0.5516 -1.3016
59894SOL     OW86286   4.426   7.425   3.532  0.3705 -0.2940 -0.0835
59894SOL    HW186287   4.442   7.332   3.514 -0.4296 -0.8733  1.9753
59894SOL    HW286288   4.461   7.439   3.620 -0.0095  1.2452 -0.1496
59895SOL     OW86289  11.060   1.543   7.054  0.5865 -0.7255 -0.5606
59895SOL    HW186290  11.002   1.518   6.981 -1.1942 -1.7267  1.1129
59895SOL    HW286291  11.056   1.469   7.115 -0.2423  1.1883  1.8671
59896SOL     OW86292   4.960   2.086   8.336  0.4892 -0.1078  0.4664
59896SOL    HW186293   5.014   2.007   8.336 -1.1824 -1.2811  0.4294
59896SOL    HW286294   4.888   2.066   8.396 -0.5332  0.9827 -0.3554
59897SOL     OW86295   9.046   0.107   5.565 -0.4322  0.4590  0.0709
59897SOL    HW186296   9.107   0.172   5.598  0.4033 -0.0396 -0.4395
59897SOL    HW286297   8.987   0.090   5.638  1.2421 -0.4826  1.2856
59898SOL     OW86298   9.492  10.997   3.239  0.0859 -0.4420 -0.0317
59898SOL    HW186299   9.411  10.961   3.204  0.5394 -1.2006 -0.3365
59898SOL    HW286300   9.499  11.085   3.201 -0.7485 -0.2471  0.2590
59899SOL     OW86301  11.911   7.731   0.504 -0.0668 -0.5634  0.0936
59899SOL    HW186302  11.948   7.706   0.419  0.2999  0.1910  0.0213
59899SOL    HW286303  11.944   7.819   0.519 -0.6084 -0.4671  0.7530
59900SOL     OW86304   3.827   2.381   6.274  0.1541 -0.4710  0.3891
59900SOL    HW186305   3.907   2.370   6.325  0.4008 -0.2983  0.0428
59900SOL    HW286306   3.844   2.457   6.219 -0.2973 -0.3569  0.4041
59901SOL     OW86307  11.942   6.170   3.771  0.2686  0.0533 -0.3866
59901SOL    HW186308  11.979   6.254   3.747  0.0236  0.2632 -0.0500
59901SOL    HW286309  11.995   6.105   3.726  0.7132  0.3715 -0.3201
59902SOL     OW86310   3.856  11.869   4.221  0.2584  0.3373 -0.1664
59902SOL    HW186311   3.851  11.906   4.309  0.0904  0.6482 -0.3035
59902SOL    HW286312   3.889  11.941   4.167 -0.7370  0.5142 -0.5602
59903SOL     OW86313   6.378   0.637  12.749  0.3068  0.1728 -0.1885
59903SOL    HW186314   6.425   0.692  12.812  2.3887 -1.1788 -0.4221
59903SOL    HW286315   6.402   0.672  12.664  0.0674  0.0855 -0.2925
59904SOL     OW86316   7.390   7.795  11.247 -0.9685  0.3683  0.7673
59904SOL    HW186317   7.322   7.834  11.301 -1.1966  0.1028  0.6696
59904SOL    HW286318   7.391   7.849  11.168 -1.8060 -0.2742  0.3037
59905SOL     OW86319   5.563   5.089  11.074 -0.2749 -0.1490 -0.1657
59905SOL    HW186320   5.528   5.152  11.137  0.8619  2.3218 -1.8295
59905SOL    HW286321   5.543   5.127  10.988  2.7524 -0.6676 -1.2200
59906SOL     OW86322   2.653   2.277   0.005 -0.2862  1.0977  0.3027
59906SOL    HW186323   2.746   2.266   0.023 -0.6037 -1.5955  0.7753
59906SOL    HW286324   2.638   2.230  -0.076 -1.7401 -1.6884  2.0240
59907SOL     OW86325   0.575   1.876   5.535 -0.4797 -0.0269  0.2345
59907SOL    HW186326   0.656   1.928   5.535 -1.0288  0.9753  2.5531
59907SOL    HW286327   0.601   1.792   5.574 -0.8764  1.1123  3.2658
59908SOL     OW86328   5.252  11.005   3.771  0.0416  0.0520 -0.8045
59908SOL    HW186329   5.266  10.940   3.702  0.9930  0.0183 -0.5956
59908SOL    HW286330   5.211  10.955   3.842 -0.3991 -0.0402 -1.1190
59909SOL     OW86331   0.403   2.663   8.884  0.1213 -0.1657 -0.3302
59909SOL    HW186332   0.466   2.688   8.951  0.3629  0.2717 -0.7064
59909SOL    HW286333   0.355   2.589   8.921  1.0311 -0.6726 -0.1374
59910SOL     OW86334  11.851   1.101   4.584 -0.0761 -0.0302  0.0730
59910SOL    HW186335  11.795   1.122   4.509  1.0536 -0.3437 -0.8846
59910SOL    HW286336  11.938   1.134   4.559  1.3095 -3.7075 -0.5834
59911SOL     OW86337   1.272  12.571   4.169 -0.4417  0.4388 -0.0724
59911SOL    HW186338   1.321  12.494   4.138 -3.1164 -0.9577 -1.2031
59911SOL    HW286339   1.213  12.536   4.235 -1.2888  1.6458 -0.1639
59912SOL     OW86340   2.138   7.247   6.036 -0.3286  0.0758  0.0227
59912SOL    HW186341   2.092   7.217   5.958  0.4946  1.3690 -0.9884
59912SOL    HW286342   2.091   7.326   6.064 -0.3852 -0.1616  0.6241
59913SOL     OW86343   9.101   7.022   1.865  0.3214 -0.6180  0.7552
59913SOL    HW186344   9.055   7.081   1.924 -0.2848 -0.2338 -0.0840
59913SOL    HW286345   9.120   7.075   1.788 -0.4469 -1.5745 -0.1180
59914SOL     OW86346   9.820   9.514   2.279  0.1659  0.1236 -0.2073
59914SOL    HW186347   9.826   9.601   2.319  0.3728  0.3036 -0.6237
59914SOL    HW286348   9.865   9.523   2.195 -1.6704  0.2107 -1.2608
59915SOL     OW86349   9.259   2.174  12.175 -0.2600  0.1127 -0.0184
59915SOL    HW186350   9.286   2.088  12.145 -0.9528 -0.3781  0.7325
59915SOL    HW286351   9.296   2.181  12.263 -0.8592  0.2576  0.2262
59916SOL     OW86352   7.704   1.528   9.498  0.0251  0.1157 -0.3984
59916SOL    HW186353   7.657   1.601   9.458  0.4434  0.3950 -0.3844
59916SOL    HW286354   7.656   1.509   9.578 -1.5474 -1.2462 -1.6049
59917SOL     OW86355   2.635   0.674   8.864 -0.2934 -0.1290 -0.3114
59917SOL    HW186356   2.557   0.714   8.900 -1.6960 -1.0297 -2.1800
59917SOL    HW286357   2.642   0.710   8.776  0.9423 -0.6672 -0.4553
59918SOL     OW86358   4.829   2.034   8.111 -0.1068 -0.0776  0.4177
59918SOL    HW186359   4.900   2.066   8.167 -0.3791  1.5734 -0.1311
59918SOL    HW286360   4.873   2.007   8.030 -0.2061  4.1492 -1.3594
59919SOL     OW86361   3.526   4.012   2.661 -0.4831 -0.6194  0.0283
59919SOL    HW186362   3.587   3.974   2.597 -1.4287  0.6305 -1.6771
59919SOL    HW286363   3.441   3.976   2.637 -0.8879  0.0550  0.4394
59920SOL     OW86364   6.100   3.101  10.888 -0.0451 -1.0963  0.2527
59920SOL    HW186365   6.073   3.047  10.814 -0.4998  1.8776 -1.9491
59920SOL    HW286366   6.024   3.156  10.906  0.5271 -0.8381  2.0939
59921SOL     OW86367   0.519   3.538  12.780  0.2646 -0.2224 -0.1191
59921SOL    HW186368   0.613   3.518  12.786  0.3517  0.0564 -0.5263
59921SOL    HW286369   0.515   3.612  12.720  0.0258  1.3640  1.7439
59922SOL     OW86370   3.714   7.097   9.544 -0.7176 -0.4677 -0.3787
59922SOL    HW186371   3.773   7.089   9.469  1.6485 -0.3279  1.3516
59922SOL    HW286372   3.683   7.008   9.560 -0.4358 -0.6629 -0.8950
59923SOL     OW86373   9.512   8.410   0.143 -0.0058  0.1414  0.0975
59923SOL    HW186374   9.586   8.420   0.083 -0.5754 -0.5477 -0.7595
59923SOL    HW286375   9.515   8.487   0.199 -0.2789  1.5696 -1.7625
59924SOL     OW86376   6.271   0.779   0.974 -0.3306  0.3311  0.1182
59924SOL    HW186377   6.341   0.766   0.910  1.0191 -1.8719  1.8880
59924SOL    HW286378   6.298   0.857   1.022 -0.6213  1.1606 -1.0191
59925SOL     OW86379   6.625   5.903   2.502  0.3085  0.2198 -0.2884
59925SOL    HW186380   6.669   5.985   2.480 -0.9512  0.7259 -0.9962
59925SOL    HW286381   6.691   5.853   2.551  0.5916  2.3114  1.6065
59926SOL     OW86382   1.499   6.510   4.727  0.0692 -0.3770 -0.6510
59926SOL    HW186383   1.551   6.459   4.789  1.0624  0.3192 -0.8873
59926SOL    HW286384   1.439   6.560   4.782  1.6003  0.9825 -0.1241
59927SOL     OW86385   8.639   6.173  12.775  0.0473 -0.1381  0.1384
59927SOL    HW186386   8.676   6.084  12.771  0.1352 -0.2565  2.3509
59927SOL    HW286387   8.689   6.216  12.845 -2.2394  0.5459  1.4380
59928SOL     OW86388   7.192   8.759   0.494  0.5261  0.9013 -0.0309
59928SOL    HW186389   7.278   8.799   0.482 -0.0495  2.0413 -0.4378
59928SOL    HW286390   7.142   8.783   0.416  0.4687 -1.5179 -0.8246
59929SOL     OW86391   7.129  11.123   3.870  0.3452  0.0725  0.0971
59929SOL    HW186392   7.069  11.182   3.915  0.4616 -0.8014  1.4268
59929SOL    HW286393   7.076  11.082   3.801 -0.2764  0.1759  0.5153
59930SOL     OW86394  10.862  10.751   9.813  0.3018 -0.1218 -0.2875
59930SOL    HW186395  10.798  10.767   9.743 -0.3045  1.0100  0.4971
59930SOL    HW286396  10.820  10.687   9.870  0.3714 -0.2789 -0.4119
59931SOL     OW86397   8.463   0.739   8.602  0.5503 -0.0468 -0.1287
59931SOL    HW186398   8.389   0.685   8.630  0.3484 -0.7618 -1.8574
59931SOL    HW286399   8.422   0.812   8.554  0.9198  0.1338 -0.1692
59932SOL     OW86400   2.310   3.155   2.979 -0.4038  0.2004  0.2584
59932SOL    HW186401   2.299   3.239   3.023 -0.3483  0.8135 -0.8749
59932SOL    HW286402   2.339   3.095   3.048 -2.0982  0.6791  1.4591
59933SOL     OW86403   2.872  10.183   3.888  0.2287  0.0107 -0.5243
59933SOL    HW186404   2.889  10.273   3.858 -0.4590  0.3276  0.0159
59933SOL    HW286405   2.813  10.147   3.821 -0.7323  0.4838  0.0360
59934SOL     OW86406   0.159   3.637  11.622  0.0243  0.2231 -0.4404
59934SOL    HW186407   0.068   3.612  11.634 -0.1477  0.0103 -1.9249
59934SOL    HW286408   0.181   3.605  11.534  1.4332  0.5516 -0.2365
59935SOL     OW86409   8.897   6.198   1.585  0.0707  0.2615 -0.3648
59935SOL    HW186410   8.941   6.260   1.644 -0.2451  0.2032 -0.0653
59935SOL    HW286411   8.966   6.170   1.524 -0.0351  1.6996 -1.1764
59936SOL     OW86412   0.144   4.597  10.939 -0.4259  0.2553 -0.1038
59936SOL    HW186413   0.200   4.634  11.007  0.7421  1.6905 -1.7874
59936SOL    HW286414   0.178   4.508  10.925  3.5047  1.9670 -3.0757
59937SOL     OW86415   4.459   4.495   6.329 -0.0474  0.2460 -0.0131
59937SOL    HW186416   4.535   4.536   6.370 -0.6600  0.5411  0.8734
59937SOL    HW286417   4.490   4.408   6.304  0.8729  0.7489 -0.6499
59938SOL     OW86418   2.147   5.628   6.672  0.1391  0.3991  0.0499
59938SOL    HW186419   2.187   5.619   6.585  0.3904  1.5282  0.0389
59938SOL    HW286420   2.219   5.615   6.733  0.3397  1.4677  0.0485
59939SOL     OW86421   3.105   9.087   0.995  0.4065 -0.5190 -0.4763
59939SOL    HW186422   3.085   9.123   1.081  1.5179 -1.0957  0.0443
59939SOL    HW286423   3.183   9.034   1.009 -0.0954 -1.5930 -1.6032
59940SOL     OW86424  12.675   0.359   1.497  0.1639  0.2063 -0.2896
59940SOL    HW186425  12.654   0.446   1.532 -2.3304 -0.4598  0.0457
59940SOL    HW286426  12.596   0.308   1.512  1.6667 -2.2255 -0.2381
59941SOL     OW86427   1.548   7.172  10.655 -0.3755 -0.3760  0.1854
59941SOL    HW186428   1.510   7.249  10.697  1.8257  0.6696  0.4245
59941SOL    HW286429   1.498   7.160  10.575  0.3813  2.5151 -0.8218
59942SOL     OW86430  12.544   9.603  11.463 -0.1090 -0.5713 -0.2346
59942SOL    HW186431  12.542   9.578  11.371 -0.5851  0.0503 -0.4044
59942SOL    HW286432  12.531   9.698  11.462 -0.6117 -0.6199  0.4907
59943SOL     OW86433   6.455  10.061   3.878  0.2060 -0.4173 -0.3250
59943SOL    HW186434   6.504  10.096   3.953 -1.5099  3.1722 -0.6671
59943SOL    HW286435   6.381  10.015   3.918 -0.3829  0.9708  0.2493
59944SOL     OW86436   2.792   9.507   3.106 -0.0983 -0.3823 -0.4587
59944SOL    HW186437   2.727   9.576   3.094  0.6840  0.1461 -1.9040
59944SOL    HW286438   2.866   9.550   3.148 -0.9191 -1.1541  1.9209
59945SOL     OW86439   3.420   3.266   8.829 -0.0356  0.3610 -0.0445
59945SOL    HW186440   3.483   3.255   8.758  0.2634 -0.9464  0.4025
59945SOL    HW286441   3.451   3.344   8.876  1.4451 -0.4084  0.3318
59946SOL     OW86442  10.076   0.588   5.339  0.2709  0.6410 -0.0337
59946SOL    HW186443  10.123   0.670   5.325  0.3857  0.7119  0.7685
59946SOL    HW286444  10.094   0.564   5.430  0.1263 -0.2042 -0.2184
59947SOL     OW86445  10.952   7.469   8.694  0.2044  0.4657  0.1636
59947SOL    HW186446  11.035   7.515   8.692  0.3293  0.2971 -2.5735
59947SOL    HW286447  10.889   7.531   8.657 -0.2705 -0.4187 -0.5462
59948SOL     OW86448   9.692   8.335   0.469 -0.4006  0.0385  0.4379
59948SOL    HW186449   9.747   8.372   0.400  0.0208 -1.5835 -0.1400
59948SOL    HW286450   9.753   8.303   0.535 -0.7780  0.8381  1.2058
59949SOL     OW86451  12.199  12.506  10.408  0.2366 -0.2004 -0.0752
59949SOL    HW186452  12.135  12.575  10.429  0.5673  0.4175 -1.0403
59949SOL    HW286453  12.235  12.532  10.323  0.4062 -1.5542 -0.4335
59950SOL     OW86454   1.445   7.820   4.738 -0.0958 -0.3810  0.3537
59950SOL    HW186455   1.508   7.838   4.668  0.2348 -0.4146  0.6377
59950SOL    HW286456   1.458   7.728   4.759  0.7662 -0.0423  1.3873
59951SOL     OW86457   0.761  11.863   1.173 -0.0328  0.1736  0.0930
59951SOL    HW186458   0.799  11.904   1.251 -0.2722  1.1410 -0.2826
59951SOL    HW286459   0.836  11.834   1.122  0.1738  0.8294  0.0128
59952SOL     OW86460   8.630  10.932   9.006  0.3405  0.0178  0.1290
59952SOL    HW186461   8.616  10.860   9.067 -1.3850  1.4860  1.5821
59952SOL    HW286462   8.547  10.940   8.958  0.6977  0.6853 -0.3989
59953SOL     OW86463  12.377   2.795  12.541  0.1568  0.6245 -0.5390
59953SOL    HW186464  12.303   2.839  12.500  1.1701 -0.4586 -3.8935
59953SOL    HW286465  12.440   2.783  12.470  1.9289 -1.9094  1.2613
59954SOL     OW86466   7.169  10.295   5.663  0.6694 -0.2239  0.3611
59954SOL    HW186467   7.110  10.233   5.706  0.5918  0.5215  1.3774
59954SOL    HW286468   7.127  10.316   5.580 -1.6147  1.8310  1.8891
59955SOL     OW86469  11.423   2.139   2.801 -0.3132 -0.1943  1.0011
59955SOL    HW186470  11.427   2.079   2.727 -0.4968 -1.0259  1.6559
59955SOL    HW286471  11.330   2.143   2.824 -0.4305  1.0280  0.4309
59956SOL     OW86472   9.458   5.043   2.017 -0.5411 -0.1800 -0.0066
59956SOL    HW186473   9.509   5.065   2.095 -0.2289 -2.5341  0.5453
59956SOL    HW286474   9.374   5.087   2.030 -0.4145 -0.3193  1.5757
59957SOL     OW86475   0.369   6.001   3.443  0.4540 -0.3565  0.3124
59957SOL    HW186476   0.452   6.044   3.465 -0.8750  2.6790 -0.0738
59957SOL    HW286477   0.319   6.002   3.525 -0.7346  1.8214 -0.3528
59958SOL     OW86478   8.260   6.430   9.035 -0.2387  0.1630  0.3162
59958SOL    HW186479   8.278   6.501   9.097 -0.7311  0.8545 -0.2995
59958SOL    HW286480   8.344   6.414   8.992  0.0634 -0.2061  1.0375
59959SOL     OW86481  11.676   7.786   5.442 -0.0870  0.3300 -0.4894
59959SOL    HW186482  11.654   7.838   5.519  1.9544  1.9335 -0.8933
59959SOL    HW286483  11.662   7.845   5.368 -1.2935 -0.9380 -1.3221
59960SOL     OW86484   4.234   8.089  11.074 -0.1423  0.2775  0.3373
59960SOL    HW186485   4.257   8.097  11.167  2.1033  1.6399 -0.2541
59960SOL    HW286486   4.160   8.147  11.063  0.1665  0.8381  1.1077
59961SOL     OW86487   6.898   6.381  10.160 -0.8330  0.4058 -0.0775
59961SOL    HW186488   6.976   6.435  10.163 -0.3180 -0.3552  1.4378
59961SOL    HW286489   6.912   6.314  10.228 -2.0931 -0.7073 -0.8485
59962SOL     OW86490  10.509  11.257   1.991 -0.3904  0.3706 -0.7253
59962SOL    HW186491  10.545  11.190   2.051 -1.7792 -1.2571 -1.6215
59962SOL    HW286492  10.420  11.271   2.022 -0.1259  1.8469 -0.5680
59963SOL     OW86493   1.771   0.346   9.673 -0.2703  0.1672 -0.1937
59963SOL    HW186494   1.717   0.354   9.752 -0.0075  0.4207 -0.0373
59963SOL    HW286495   1.844   0.290   9.699 -0.7899 -0.7004 -0.5859
59964SOL     OW86496  10.397  11.028  11.540 -0.5404  0.0357 -0.0075
59964SOL    HW186497  10.431  11.076  11.615  3.4415 -0.8282 -1.0000
59964SOL    HW286498  10.399  11.091  11.468 -0.2722 -0.2271 -0.2347
59965SOL     OW86499   4.843   0.868  10.471  0.0743  0.7421  0.2985
59965SOL    HW186500   4.835   0.868  10.566  0.2000 -1.5587  0.3632
59965SOL    HW286501   4.929   0.907  10.455  0.2967  0.6333  1.1617
59966SOL     OW86502   9.254   8.926  11.995  0.6145 -0.4941 -0.4848
59966SOL    HW186503   9.288   8.933  11.906 -1.6465  0.4124 -1.3466
59966SOL    HW286504   9.183   8.990  11.999  1.1272  0.0365  2.2327
59967SOL     OW86505   1.107  12.101   8.022 -0.1611  0.0685  0.6971
59967SOL    HW186506   1.042  12.154   7.975 -1.7664 -1.0909  1.4857
59967SOL    HW286507   1.123  12.027   7.964  1.5689  1.0019 -0.1018
59968SOL     OW86508  12.307   9.840   6.469  0.2318 -0.2428  0.1107
59968SOL    HW186509  12.309   9.935   6.454  1.4543 -0.2403  0.1757
59968SOL    HW286510  12.368   9.826   6.542 -0.4246 -1.0166  0.5258
59969SOL     OW86511   5.069   2.829  11.749 -0.3995 -0.3951 -0.1921
59969SOL    HW186512   5.054   2.888  11.675 -0.4098 -0.3759 -0.1749
59969SOL    HW286513   5.163   2.832  11.763 -0.2853 -1.0759 -0.7760
59970SOL     OW86514   7.593   6.677   3.206  0.0333  0.1153 -0.2930
59970SOL    HW186515   7.530   6.651   3.272  0.4048  1.1648  0.5026
59970SOL    HW286516   7.568   6.766   3.182  0.9785  0.4060 -0.2421
59971SOL     OW86517   9.580   9.943   8.942 -0.4848  0.0575 -0.1403
59971SOL    HW186518   9.518   9.908   8.877  0.1557 -1.0693 -0.1776
59971SOL    HW286519   9.654   9.974   8.890  0.0722 -0.9349  0.0352
59972SOL     OW86520   1.738   1.095   2.459 -0.0181  0.0841  0.0755
59972SOL    HW186521   1.748   1.158   2.531 -0.3669 -0.2929  0.4650
59972SOL    HW286522   1.716   1.149   2.383  1.2538  0.5734  0.0396
59973SOL     OW86523   7.197  12.224   9.019  0.1327  0.2585 -0.3853
59973SOL    HW186524   7.262  12.255   9.083  0.9678  0.0231 -1.0894
59973SOL    HW286525   7.194  12.130   9.033 -0.2551  0.2957 -0.1936
59974SOL     OW86526  11.735   1.627   5.024 -0.2695  1.0523 -0.4070
59974SOL    HW186527  11.720   1.681   5.101 -0.2671  0.9037 -0.3006
59974SOL    HW286528  11.827   1.602   5.029 -0.3742  0.6896 -0.2237
59975SOL     OW86529  11.316   1.105   3.581  0.1671 -0.2538 -0.2428
59975SOL    HW186530  11.318   1.136   3.671 -0.3280 -0.0556 -0.3000
59975SOL    HW286531  11.407   1.114   3.551  0.6172 -1.4905  0.6276
59976SOL     OW86532   7.038   0.612   7.658 -0.2167  0.6937 -0.1072
59976SOL    HW186533   7.117   0.580   7.702 -1.0916 -2.3347 -0.5690
59976SOL    HW286534   6.969   0.603   7.724 -0.7129  0.4103 -0.6551
59977SOL     OW86535   4.296   3.299   9.954 -0.2812 -0.5500  0.1558
59977SOL    HW186536   4.362   3.348   9.906  1.5460 -0.7274  2.3005
59977SOL    HW286537   4.338   3.216   9.975 -2.3042 -1.9271 -0.9579
59978SOL     OW86538   0.224   6.287   5.168  0.0282 -0.2783 -0.3223
59978SOL    HW186539   0.317   6.312   5.166  0.0173 -0.3160 -1.4119
59978SOL    HW286540   0.226   6.193   5.183  0.0934  0.0675  2.3171
59979SOL     OW86541  10.734   0.935   6.615 -0.1355  0.7828  0.4155
59979SOL    HW186542  10.808   0.995   6.623  1.1374 -0.6125 -0.3223
59979SOL    HW286543  10.741   0.878   6.691  0.2513 -0.0761 -0.2476
59980SOL     OW86544   9.595  11.103   5.577 -0.5698 -0.1030 -0.1181
59980SOL    HW186545   9.631  11.015   5.579 -1.0430 -0.2962  0.0514
59980SOL    HW286546   9.634  11.143   5.499  0.8558  0.0651  0.6375
59981SOL     OW86547   1.233   2.590   8.609 -0.0380 -0.2304  0.1729
59981SOL    HW186548   1.216   2.683   8.626  0.5451 -0.3933  1.9475
59981SOL    HW286549   1.146   2.550   8.608 -0.2689  0.2633 -0.1592
59982SOL     OW86550  12.295   3.978   5.950  0.2152  0.1539 -0.0928
59982SOL    HW186551  12.227   3.975   5.883  0.5400  0.7394 -0.4578
59982SOL    HW286552  12.285   3.896   5.997  0.9854 -1.0256 -1.8709
59983SOL     OW86553  12.480   5.723   9.960 -0.0994  0.2355 -0.5438
59983SOL    HW186554  12.556   5.680   9.920  1.3689  0.4808  1.7692
59983SOL    HW286555  12.492   5.816   9.941  0.2037  0.2748 -0.1754
59984SOL     OW86556  11.942   0.507   7.020 -0.1233  0.2985 -0.0585
59984SOL    HW186557  11.911   0.485   6.932  0.3565 -1.1603  0.1124
59984SOL    HW286558  11.895   0.587   7.042  0.3301  1.1352 -1.9385
59985SOL     OW86559   5.661   0.329   3.221 -0.5607  0.0627  0.2057
59985SOL    HW186560   5.663   0.323   3.126 -0.7723  2.3659 -0.0147
59985SOL    HW286561   5.568   0.332   3.244 -0.5582  1.9776  0.1889
59986SOL     OW86562   2.645   3.947   3.779 -0.0838 -0.4353 -0.4931
59986SOL    HW186563   2.656   3.852   3.786  2.4831 -0.3688 -2.2514
59986SOL    HW286564   2.637   3.963   3.685  0.0236  1.1314 -0.2556
59987SOL     OW86565   5.719   3.701   6.555 -0.7539 -0.2894 -0.2259
59987SOL    HW186566   5.637   3.704   6.605 -0.6656 -0.3468 -0.0762
59987SOL    HW286567   5.701   3.641   6.483 -1.4478  1.1499 -1.2929
59988SOL     OW86568   6.956   7.716  11.054  0.3353 -0.0925 -0.3678
59988SOL    HW186569   7.007   7.712  11.135 -0.2175 -0.6643 -0.0352
59988SOL    HW286570   7.013   7.678  10.988 -0.0655 -1.8205  0.2301
59989SOL     OW86571   9.300   9.480  10.150 -0.4662  0.1712 -0.3926
59989SOL    HW186572   9.307   9.552  10.087  0.1836  0.7638  0.3461
59989SOL    HW286573   9.372   9.421  10.127 -1.1206 -0.3618 -1.1262
59990SOL     OW86574  10.933  11.376  10.075  0.0922 -0.0521 -0.5120
59990SOL    HW186575  10.933  11.297  10.129 -1.4643 -0.2474 -0.7785
59990SOL    HW286576  10.919  11.344   9.985  1.9880  0.3295 -0.9964
59991SOL     OW86577  11.996   2.172   3.369  0.2294  0.6245  0.0687
59991SOL    HW186578  12.058   2.190   3.439 -1.4070 -0.4219  1.8900
59991SOL    HW286579  11.980   2.258   3.329 -0.3959  1.7005  2.4300
59992SOL     OW86580   7.324   8.159  10.686 -0.0530  0.1432  0.2672
59992SOL    HW186581   7.387   8.097  10.649  0.2513  0.1619  0.7477
59992SOL    HW286582   7.251   8.159  10.624  0.6588  0.5430 -0.5787
59993SOL     OW86583   2.293   0.550   1.587  0.4665  0.2044 -0.1597
59993SOL    HW186584   2.309   0.637   1.552  1.6167 -0.0984 -0.4375
59993SOL    HW286585   2.284   0.495   1.509  0.1104  0.0065  0.0171
59994SOL     OW86586   9.025  10.401   8.145 -0.0416 -0.4340 -0.3478
59994SOL    HW186587   9.120  10.410   8.148 -0.2511  2.5046  0.9794
59994SOL    HW286588   9.003  10.403   8.052  1.1597 -0.8675 -0.6503
59995SOL     OW86589  10.556  11.394   5.129 -0.5614  0.1804  0.4717
59995SOL    HW186590  10.583  11.394   5.221 -0.9900 -1.9048  0.6353
59995SOL    HW286591  10.615  11.457   5.087  1.2052 -0.5487  1.7434
59996SOL     OW86592   6.241   4.322   7.975  0.1556 -0.2406  0.4469
59996SOL    HW186593   6.226   4.231   8.001  1.0778 -0.6203 -0.3155
59996SOL    HW286594   6.296   4.316   7.897  1.8788  1.0046  1.5035
59997SOL     OW86595   8.684   0.804   5.816 -0.2836  0.0560  0.0576
59997SOL    HW186596   8.612   0.801   5.879  0.1692  0.9932  0.6410
59997SOL    HW286597   8.688   0.896   5.789  0.5356 -0.0357 -0.1457
59998SOL     OW86598   0.540   1.757  11.318  0.0312  0.1677 -0.3710
59998SOL    HW186599   0.520   1.786  11.408 -0.4940 -0.5895 -0.2318
59998SOL    HW286600   0.563   1.838  11.272 -1.0940  0.7794  0.0775
59999SOL     OW86601   1.810   5.139   9.095 -0.0890  0.0254 -0.4426
59999SOL    HW186602   1.884   5.078   9.099 -1.7495 -2.0688  0.5089
59999SOL    HW286603   1.772   5.136   9.183 -1.6858  0.5379 -1.0807
60000SOL     OW86604   0.798   6.437   5.213  0.0617 -0.1715  0.3899
60000SOL    HW186605   0.850   6.445   5.293  0.6738 -1.7219  0.1895
60000SOL    HW286606   0.737   6.511   5.216  1.4122  0.9567  1.2746
60001SOL     OW86607   1.880   3.397   2.359 -0.1555  0.1237 -0.2208
60001SOL    HW186608   1.852   3.344   2.434  0.0041  0.8183  0.3330
60001SOL    HW286609   1.955   3.447   2.391 -0.2769  0.6586 -0.7505
60002SOL     OW86610  10.691   9.111   8.113 -0.0048  0.1040 -0.4666
60002SOL    HW186611  10.644   9.039   8.156 -0.1534  0.8939  0.7515
60002SOL    HW286612  10.777   9.074   8.092  0.1141 -0.2952  0.6272
60003SOL     OW86613   6.641  11.648   1.414 -0.3700  0.7651  0.6707
60003SOL    HW186614   6.622  11.709   1.485 -0.0298  1.1733  0.4167
60003SOL    HW286615   6.737  11.646   1.408 -0.3064 -0.9529  1.6646
60004SOL     OW86616   3.112   9.153   4.113  0.5070  0.0533 -0.2438
60004SOL    HW186617   3.043   9.211   4.146  0.6570 -0.8416  1.7904
60004SOL    HW286618   3.080   9.122   4.029 -1.4807 -0.1592  0.5481
60005SOL     OW86619  10.631   4.837  11.416  0.4506 -0.2100  0.1897
60005SOL    HW186620  10.626   4.856  11.322  1.1174  0.8329  0.3596
60005SOL    HW286621  10.587   4.910  11.458  1.2656 -0.0278  0.7491
60006SOL     OW86622  11.409  12.495   9.290  0.3478 -0.0767  0.7419
60006SOL    HW186623  11.427  12.462   9.378 -0.6639 -2.0280  0.2755
60006SOL    HW286624  11.314  12.491   9.282  0.4371 -0.0330 -0.4697
60007SOL     OW86625   2.366   5.072   0.335  0.4051 -0.1437  0.5926
60007SOL    HW186626   2.387   4.991   0.289  0.2225 -0.2668  0.7221
60007SOL    HW286627   2.280   5.055   0.375 -0.5731  0.8067 -1.0081
60008SOL     OW86628   1.680  11.121   7.802 -0.0258  0.1751 -0.1089
60008SOL    HW186629   1.638  11.204   7.780  2.4496  1.8635  1.0912
60008SOL    HW286630   1.694  11.125   7.896  1.5903 -0.8589 -0.2597
60009SOL     OW86631   6.057   8.745   0.647  0.2137  0.2384  0.2316
60009SOL    HW186632   6.066   8.768   0.739 -2.4349 -0.7311  0.8445
60009SOL    HW286633   5.968   8.773   0.624 -0.0694 -1.6650 -1.3220
60010SOL     OW86634   9.564  11.844   0.769  0.1292  0.2356 -0.0819
60010SOL    HW186635   9.478  11.808   0.789  0.3257  0.3519  1.0089
60010SOL    HW286636   9.545  11.919   0.712 -0.5752  0.8774  0.9647
60011SOL     OW86637   1.593   2.481   4.312 -0.0991 -0.4150 -0.6222
60011SOL    HW186638   1.646   2.527   4.378 -0.9106 -0.6991  0.2604
60011SOL    HW286639   1.596   2.538   4.235  0.2590  0.3055 -0.0907
60012SOL     OW86640   9.597   4.359   9.784 -0.4389  0.3532  0.2212
60012SOL    HW186641   9.609   4.279   9.733  0.2991  0.6410 -0.0818
60012SOL    HW286642   9.502   4.370   9.790 -0.5420 -0.1497 -0.3673
60013SOL     OW86643   3.788   6.373   2.819 -0.4212  0.1632  0.1349
60013SOL    HW186644   3.770   6.381   2.725  1.6253  3.5575 -0.1419
60013SOL    HW286645   3.717   6.421   2.861 -0.7083 -0.3593  0.2527
60014SOL     OW86646   1.402   4.471   8.729 -0.2897 -0.6042  0.3368
60014SOL    HW186647   1.349   4.550   8.720 -0.0212 -0.6461 -2.5463
60014SOL    HW286648   1.482   4.500   8.773 -1.3331  0.0989  1.8463
60015SOL     OW86649   6.157   7.260   6.743 -0.2432  0.0556 -0.6633
60015SOL    HW186650   6.230   7.289   6.688 -0.0628 -1.3357 -1.2020
60015SOL    HW286651   6.170   7.305   6.827  0.3038  1.0734 -1.2822
60016SOL     OW86652  10.889   9.365   8.918 -0.7992 -0.3153 -0.0077
60016SOL    HW186653  10.851   9.300   8.858  0.9640 -1.9101  0.5032
60016SOL    HW286654  10.955   9.410   8.866 -1.4612  0.5411 -0.1271
60017SOL     OW86655   3.704   2.473   0.082 -0.1978  0.0269  0.4975
60017SOL    HW186656   3.640   2.444   0.017  2.7745 -1.9344 -1.8333
60017SOL    HW286657   3.674   2.561   0.108 -4.2965 -1.1616  0.4462
60018SOL     OW86658   7.052  11.659   8.707  0.2328 -0.3219 -0.1401
60018SOL    HW186659   7.027  11.567   8.720 -1.0573  0.3609  3.1172
60018SOL    HW286660   7.117  11.676   8.775 -0.2167  1.4115 -0.0989
60019SOL     OW86661   7.195   0.790   6.945  0.1740  0.8773  0.3871
60019SOL    HW186662   7.223   0.882   6.937  0.1072  0.7892 -1.5103
60019SOL    HW286663   7.276   0.742   6.963  1.1891  0.8197 -3.4132
60020SOL     OW86664   3.219   3.726  12.024  0.1011 -0.2190 -0.3498
60020SOL    HW186665   3.160   3.651  12.017  0.0760 -0.1224 -1.2812
60020SOL    HW286666   3.234   3.736  12.118  1.0197 -2.0853 -0.2719
60021SOL     OW86667  11.489   2.616   7.586  0.4190 -0.2756  0.7286
60021SOL    HW186668  11.464   2.708   7.576  0.5189 -0.3870 -0.9217
60021SOL    HW286669  11.418   2.568   7.544  0.3209 -0.9647  1.6703
60022SOL     OW86670   5.983  12.500   8.344 -0.1579 -0.7454 -0.2882
60022SOL    HW186671   5.988  12.583   8.392 -1.0184 -0.1996 -1.0967
60022SOL    HW286672   6.024  12.518   8.259  1.0725 -1.6128  0.0943
60023SOL     OW86673   2.782   6.929   8.011  0.3477 -0.1533  0.0373
60023SOL    HW186674   2.696   6.891   7.991  1.3276 -3.2157  1.0591
60023SOL    HW286675   2.764   6.995   8.078 -1.3511  0.4192 -0.9193
60024SOL     OW86676   4.931  11.289  11.242 -0.2229  0.1305 -0.3410
60024SOL    HW186677   4.931  11.195  11.259 -2.4796 -0.3767 -2.5141
60024SOL    HW286678   5.006  11.304  11.186 -0.8802 -0.7748 -1.5160
60025SOL     OW86679   8.394   6.902   9.183  0.0464 -0.1379  0.1917
60025SOL    HW186680   8.404   6.934   9.273 -1.4782 -1.1943  0.7932
60025SOL    HW286681   8.475   6.926   9.139  0.5149  1.0752  1.6438
60026SOL     OW86682   3.139   4.510   6.755  0.1882 -0.0539 -0.5860
60026SOL    HW186683   3.108   4.524   6.665 -0.0190  2.1470 -0.2307
60026SOL    HW286684   3.083   4.439   6.788 -1.3110  0.6500 -1.4772
60027SOL     OW86685   8.261   1.436   5.131 -0.2084  0.2676 -0.1463
60027SOL    HW186686   8.297   1.519   5.162 -1.0842 -0.3027  2.7748
60027SOL    HW286687   8.332   1.372   5.145  0.1055  0.3324 -1.3824
60028SOL     OW86688   6.935   8.155   1.147  0.3309 -0.2384  0.7798
60028SOL    HW186689   7.024   8.125   1.165 -0.1860 -1.1066  1.9904
60028SOL    HW286690   6.911   8.111   1.065  1.6349  1.4132 -0.5458
60029SOL     OW86691   1.364  12.761   7.549 -0.0411  0.2708 -0.0957
60029SOL    HW186692   1.367  12.758   7.644 -0.8046 -0.0615 -0.0745
60029SOL    HW286693   1.323  12.846   7.529 -3.6417 -1.2465  0.0168
60030SOL     OW86694   2.110   8.749   9.103 -0.3152 -0.7787 -0.0798
60030SOL    HW186695   2.187   8.693   9.120 -0.7613 -1.8575 -1.4200
60030SOL    HW286696   2.053   8.733   9.178 -0.3332 -1.9893 -0.3200
60031SOL     OW86697   8.571   1.416  10.497  0.3383  0.3615  0.4924
60031SOL    HW186698   8.496   1.424  10.556 -0.3373  2.7610 -0.5972
60031SOL    HW286699   8.535   1.375  10.418  0.2909  1.0494  0.1577
60032SOL     OW86700   5.725   8.304   3.294 -0.6465  0.5683  0.3176
60032SOL    HW186701   5.717   8.377   3.233 -1.5991  0.2805  0.0789
60032SOL    HW286702   5.647   8.251   3.279  0.7861 -1.3897 -0.6671
60033SOL     OW86703  11.106   9.271   0.265  0.1979  0.0993  0.2627
60033SOL    HW186704  11.116   9.310   0.352 -0.1785 -0.8684  0.7474
60033SOL    HW286705  11.114   9.177   0.280 -0.7649 -0.1334 -0.6256
60034SOL     OW86706   6.587   1.988   3.722  0.1180 -0.0196  0.0381
60034SOL    HW186707   6.591   1.900   3.684  0.4396 -0.2683  0.6234
60034SOL    HW286708   6.525   1.980   3.795 -0.8640  0.5696 -0.7203
60035SOL     OW86709   6.339   7.941   7.347 -0.0321  0.0158  0.1220
60035SOL    HW186710   6.406   7.877   7.323 -0.2566  0.0974 -0.7607
60035SOL    HW286711   6.332   7.997   7.270 -1.8784 -0.6357 -0.2265
60036SOL     OW86712   2.367   9.987  11.905 -0.1355 -0.1428 -0.2393
60036SOL    HW186713   2.444  10.000  11.960 -0.8651 -1.4493  1.1807
60036SOL    HW286714   2.393   9.922  11.840 -0.3623 -1.5360  1.0175
60037SOL     OW86715   2.039   2.550   1.910 -0.1269 -0.0033  0.7303
60037SOL    HW186716   2.001   2.620   1.857 -1.6296 -1.2210  0.1382
60037SOL    HW286717   1.967   2.490   1.927  0.7828 -0.6916  2.4688
60038SOL     OW86718   3.328   7.763   7.391 -0.6168 -0.2842  0.0961
60038SOL    HW186719   3.417   7.785   7.419 -0.6917  1.2116 -0.7284
60038SOL    HW286720   3.287   7.728   7.470  0.2584  0.4198  0.8972
60039SOL     OW86721   3.083   1.557  12.340 -0.3181  0.3893 -0.5495
60039SOL    HW186722   3.000   1.512  12.355  0.4408 -0.6765  0.6920
60039SOL    HW286723   3.147   1.506  12.390  0.9934  1.4952 -1.0411
60040SOL     OW86724   2.494   2.880   9.194  0.1450 -0.4796 -0.0332
60040SOL    HW186725   2.403   2.910   9.191 -0.0153 -0.9573 -0.0672
60040SOL    HW286726   2.542   2.945   9.143 -0.2343 -0.4087 -0.3112
60041SOL     OW86727   7.225   9.363   3.121 -0.5238  0.6319  0.2179
60041SOL    HW186728   7.272   9.296   3.171 -0.7497  1.0603  1.0169
60041SOL    HW286729   7.174   9.410   3.187  1.2563  2.9700  0.0284
60042SOL     OW86730   5.047   0.033   4.949  0.7701  0.5797 -0.2115
60042SOL    HW186731   5.105   0.109   4.952  1.0002  0.3739  2.3432
60042SOL    HW286732   4.972   0.058   5.002  0.8314 -0.9320  0.6452
60043SOL     OW86733   7.747   4.174   9.080 -0.0867  0.7170 -0.1121
60043SOL    HW186734   7.674   4.179   9.142  0.6471 -0.6396  0.9408
60043SOL    HW286735   7.742   4.085   9.045  0.3185  1.0257 -0.9744
60044SOL     OW86736   8.017   9.488   2.545 -0.0976  0.0323 -0.2765
60044SOL    HW186737   7.988   9.553   2.482 -1.3353 -0.4665 -0.2407
60044SOL    HW286738   8.081   9.534   2.599  0.5671  0.6324 -1.5131
60045SOL     OW86739   4.330   8.270   2.541  0.1429 -0.0264  0.0870
60045SOL    HW186740   4.249   8.293   2.587  0.1875 -0.7423  0.5566
60045SOL    HW286741   4.395   8.259   2.611 -0.0296 -2.1285 -0.0061
60046SOL     OW86742   8.563   5.473   5.177  0.8290 -0.1417 -0.0587
60046SOL    HW186743   8.615   5.550   5.200  2.2461 -1.3744  1.0724
60046SOL    HW286744   8.586   5.455   5.086  0.5820  0.6760 -0.2929
60047SOL     OW86745   8.769  11.222   3.442 -0.1013  0.2131 -0.1323
60047SOL    HW186746   8.705  11.189   3.506 -0.8316 -0.4676 -1.1741
60047SOL    HW286747   8.767  11.157   3.372 -0.7220  1.8656 -1.7357
60048SOL     OW86748   6.672   9.317   3.236 -0.3172 -0.1378 -0.1155
60048SOL    HW186749   6.655   9.227   3.266  0.8053  0.2813  1.9966
60048SOL    HW286750   6.638   9.319   3.147 -3.6116 -1.6312  0.9467
60049SOL     OW86751   0.427  10.948   9.091  0.4141 -0.1477  0.3248
60049SOL    HW186752   0.338  10.981   9.097  0.8581  0.9706  0.9222
60049SOL    HW286753   0.463  10.958   9.179  0.9105 -1.2481  0.2659
60050SOL     OW86754   8.290   3.429   1.618  0.0250 -0.1227 -0.0048
60050SOL    HW186755   8.249   3.408   1.533 -1.1866 -0.0988  0.5529
60050SOL    HW286756   8.227   3.398   1.683  1.0849 -0.4186  0.9045
60051SOL     OW86757   0.326  12.361   4.962  0.1324 -0.6264 -0.1304
60051SOL    HW186758   0.287  12.414   5.032  0.0957 -0.0165 -0.5984
60051SOL    HW286759   0.416  12.346   4.990 -0.2032 -1.3733  0.5873
60052SOL     OW86760   1.009   2.403   0.627 -0.4106  0.3850  0.4127
60052SOL    HW186761   0.972   2.413   0.715 -1.4752  1.3927 -0.1310
60052SOL    HW286762   1.053   2.487   0.609  0.1913  0.0232  0.1444
60053SOL     OW86763   9.951   2.160   1.726  0.5633 -0.4323  0.3117
60053SOL    HW186764   9.877   2.182   1.783  0.2125  1.7186 -0.8634
60053SOL    HW286765  10.017   2.225   1.746  0.9715 -0.5055 -0.7500
60054SOL     OW86766   2.906   5.560   0.673  0.1600  0.5084  0.3786
60054SOL    HW186767   2.988   5.572   0.626  0.0537 -0.4112 -0.0604
60054SOL    HW286768   2.894   5.465   0.677 -1.4710  0.6304 -0.6134
60055SOL     OW86769  12.567   7.549  10.104 -0.0283  0.2177 -0.0104
60055SOL    HW186770  12.521   7.488  10.047 -1.1385  0.2019  0.8636
60055SOL    HW286771  12.501   7.616  10.125  0.6052  0.6733  0.5801
60056SOL     OW86772   4.161   9.914   6.198  0.3117 -0.3650  0.5368
60056SOL    HW186773   4.256   9.924   6.204  0.5278 -0.4267 -1.8063
60056SOL    HW286774   4.146   9.819   6.205  0.2943 -0.2724  1.9608
60057SOL     OW86775   0.570   6.837   4.256 -0.4150 -0.0379  0.4125
60057SOL    HW186776   0.566   6.782   4.178  0.9611 -0.1971  0.4360
60057SOL    HW286777   0.486   6.823   4.299 -0.6220 -1.0590 -0.2895
60058SOL     OW86778   5.290   7.818  11.408  0.2490  0.2080 -0.6698
60058SOL    HW186779   5.206   7.822  11.362 -0.5561 -0.1846  0.7030
60058SOL    HW286780   5.350   7.867  11.352 -1.2681  1.9120 -0.9012
60059SOL     OW86781  11.903  10.676   2.997 -0.6747  0.6393 -0.7162
60059SOL    HW186782  11.893  10.640   2.909  2.3401 -1.5842 -0.3170
60059SOL    HW286783  11.998  10.677   3.011 -0.9634  2.8611  1.7811
60060SOL     OW86784   1.842  11.862   7.643 -0.1533  0.5983  0.5646
60060SOL    HW186785   1.790  11.885   7.566  2.0067  2.2672 -0.4971
60060SOL    HW286786   1.811  11.774   7.667 -2.6150  1.0364 -0.6405
60061SOL     OW86787   7.061   7.776   8.825  0.0669 -0.1354 -0.4060
60061SOL    HW186788   7.144   7.817   8.803 -0.9676  2.2496 -0.2326
60061SOL    HW286789   7.069   7.753   8.918 -0.2089  2.3064  0.3038
60062SOL     OW86790   5.113   6.014  11.897  0.2353  0.3901  0.5931
60062SOL    HW186791   5.202   6.018  11.931  0.2424 -1.0721  0.8225
60062SOL    HW286792   5.074   5.938  11.941 -0.8926  0.5718 -0.0453
60063SOL     OW86793   3.243   4.698   1.643  0.3073  0.3283 -0.4627
60063SOL    HW186794   3.150   4.678   1.632  0.2652 -0.1921  0.7578
60063SOL    HW286795   3.283   4.672   1.560 -0.5185 -0.1265 -0.7258
60064SOL     OW86796   6.684   3.829   1.018  1.0319 -0.1936 -0.0195
60064SOL    HW186797   6.711   3.744   1.051  0.7051 -0.1197  0.4406
60064SOL    HW286798   6.716   3.831   0.928  5.0132  0.8985  1.1696
60065SOL     OW86799   1.845   8.705  11.578  0.0112 -0.2457 -0.1742
60065SOL    HW186800   1.890   8.742  11.654  0.7489  0.8939 -1.1388
60065SOL    HW286801   1.780   8.771  11.553 -0.1227 -0.5417 -0.6305
60066SOL     OW86802   6.441   1.283   0.313 -0.1631 -0.1653 -0.1771
60066SOL    HW186803   6.387   1.244   0.245  0.9245 -2.6673  0.2743
60066SOL    HW286804   6.381   1.334   0.367 -1.4351 -0.1001 -1.6274
60067SOL     OW86805  12.751   4.442  12.487  0.1761  0.0934  0.1248
60067SOL    HW186806  12.811   4.383  12.532 -0.7662 -2.4839 -1.7970
60067SOL    HW286807  12.794   4.461  12.404  0.8602  2.9684  1.0095
60068SOL     OW86808   4.003   8.990   1.981  0.1173 -0.2095 -0.1091
60068SOL    HW186809   3.977   8.922   2.043 -1.3648  0.6627  0.2655
60068SOL    HW286810   4.078   8.952   1.935 -1.3968 -2.6074 -0.7826
60069SOL     OW86811   7.213  10.040   7.880 -0.4387 -0.1740 -0.2221
60069SOL    HW186812   7.141  10.021   7.939 -2.2079  4.5110 -0.4566
60069SOL    HW286813   7.287  10.060   7.938 -0.8445 -0.0387  0.2562
60070SOL     OW86814   8.754   0.476   5.604 -0.6648 -0.2330  0.0256
60070SOL    HW186815   8.733   0.458   5.695 -1.5081  1.5003  0.2143
60070SOL    HW286816   8.824   0.541   5.608 -0.2742 -0.6020 -0.5814
60071SOL     OW86817   5.079   0.414   8.118 -0.6941 -0.1187 -0.2192
60071SOL    HW186818   5.040   0.473   8.053  0.0228 -0.9920 -1.4749
60071SOL    HW286819   5.173   0.420   8.104 -0.5547 -0.7508  0.3564
60072SOL     OW86820   9.210   3.143  11.108  0.4181  0.0263  0.3988
60072SOL    HW186821   9.198   3.219  11.164  0.5426  0.1074  0.3160
60072SOL    HW286822   9.286   3.164  11.054 -1.1846  1.0610 -1.6003
60073SOL     OW86823   2.719  10.995   5.776  0.3350  0.0843 -0.8171
60073SOL    HW186824   2.713  11.072   5.720 -2.0714  2.5303  2.4064
60073SOL    HW286825   2.629  10.964   5.784  0.8281 -1.1858  0.3541
60074SOL     OW86826   6.350   3.227   4.354  0.1582  0.0277  0.0971
60074SOL    HW186827   6.319   3.148   4.399  1.9791 -0.2375  1.0061
60074SOL    HW286828   6.274   3.284   4.350 -0.9706 -1.3987  0.2756
60075SOL     OW86829  11.379   7.552   4.015 -0.2864 -0.3744 -0.4323
60075SOL    HW186830  11.445   7.493   4.051  0.5081  0.9355  0.3626
60075SOL    HW286831  11.366   7.618   4.083 -0.0149  1.2074 -1.8302
60076SOL     OW86832   1.483  11.306   0.512 -0.5647  0.0314  0.2890
60076SOL    HW186833   1.536  11.351   0.577 -1.2501 -1.1185  1.7010
60076SOL    HW286834   1.409  11.365   0.496  0.4976  1.1249 -0.8459
60077SOL     OW86835   3.737   8.142   1.650  0.3469  0.5884 -0.8111
60077SOL    HW186836   3.715   8.117   1.740  0.0328  0.9612 -0.7784
60077SOL    HW286837   3.806   8.082   1.624  1.5331  1.4492  0.2121
60078SOL     OW86838   1.669   8.348  10.110  0.3182  0.0923  0.1299
60078SOL    HW186839   1.749   8.385  10.146 -0.1116  0.0308  1.1814
60078SOL    HW286840   1.649   8.274  10.167 -0.9364  0.6184  0.4080
60079SOL     OW86841   8.523  11.604   0.750 -0.2887 -0.4958 -0.5348
60079SOL    HW186842   8.592  11.655   0.793 -0.2509  1.2045 -2.4724
60079SOL    HW286843   8.557  11.514   0.747  0.7520 -0.1641  0.7152
60080SOL     OW86844   3.722   8.409   4.505  0.2114  0.0219  0.1102
60080SOL    HW186845   3.659   8.477   4.526  0.8921  0.9659 -0.8205
60080SOL    HW286846   3.807   8.447   4.525  0.4984 -1.9280  3.2888
60081SOL     OW86847   3.147   6.710   4.036 -0.4281  0.5408  0.4684
60081SOL    HW186848   3.228   6.754   4.011 -1.2215  2.5776  1.3105
60081SOL    HW286849   3.176   6.629   4.078  1.0988  0.4888 -0.5913
60082SOL     OW86850   9.628   3.898  11.200 -0.1217 -0.0687  0.0259
60082SOL    HW186851   9.673   3.897  11.116 -1.5563 -1.1259 -0.7667
60082SOL    HW286852   9.691   3.860  11.262  0.3377 -0.8763 -0.9125
60083SOL     OW86853   7.877   1.625   0.750 -0.4355  0.3526  0.0769
60083SOL    HW186854   7.887   1.701   0.807  1.2333 -1.7097  2.7464
60083SOL    HW286855   7.965   1.588   0.743 -0.9292 -0.5541 -2.3888
60084SOL     OW86856   1.332   8.680   1.094  0.1896  0.0982  0.4107
60084SOL    HW186857   1.390   8.604   1.099 -0.1800 -0.2376 -0.3318
60084SOL    HW286858   1.390   8.753   1.072  0.2863 -0.2968 -0.6521
60085SOL     OW86859   7.478   5.026   4.509 -0.0517  0.1366 -0.4847
60085SOL    HW186860   7.503   5.007   4.599 -0.9937  0.0623 -0.2300
60085SOL    HW286861   7.389   5.059   4.515  0.0549  0.6123 -1.3472
60086SOL     OW86862   1.128  10.054   7.759 -0.5307 -0.3964  0.5765
60086SOL    HW186863   1.073  10.130   7.740 -0.8762 -0.7330  0.2140
60086SOL    HW286864   1.126  10.002   7.679  1.3365  0.1968  0.0866
60087SOL     OW86865  11.955  10.024   9.234 -0.0984  0.2194 -0.3844
60087SOL    HW186866  11.989  10.050   9.320  2.7146  1.8594 -1.8898
60087SOL    HW286867  11.992   9.937   9.220  2.0271  1.1854 -1.1534
60088SOL     OW86868  10.814   6.533   8.457  0.3522  0.3739 -0.2668
60088SOL    HW186869  10.759   6.499   8.528 -0.0680  0.7918 -0.3873
60088SOL    HW286870  10.752   6.561   8.390  0.6847  1.3180 -0.1985
60089SOL     OW86871   0.006   5.921   8.407  0.1078 -0.1451 -0.0553
60089SOL    HW186872  -0.009   6.015   8.402 -0.3774 -0.2447 -0.5844
60089SOL    HW286873  -0.003   5.890   8.317  0.2749 -0.6929  0.1127
60090SOL     OW86874  11.088   6.263   7.143  0.2173 -0.7500  0.3857
60090SOL    HW186875  11.010   6.273   7.197 -0.2641 -0.1919 -0.3868
60090SOL    HW286876  11.123   6.352   7.134 -0.3222 -0.6586 -1.0852
60091SOL     OW86877  10.704   3.077   5.359 -0.2712 -0.1303 -0.7313
60091SOL    HW186878  10.671   3.102   5.273  1.5119 -0.6762 -1.6253
60091SOL    HW286879  10.719   3.160   5.404 -0.9387  0.1702 -1.0554
60092SOL     OW86880   6.880   2.915   7.288 -0.2586  0.2394 -0.1306
60092SOL    HW186881   6.897   2.864   7.209  0.0667 -1.7823  1.1724
60092SOL    HW286882   6.784   2.912   7.298 -0.2100 -0.5305  0.1753
60093SOL     OW86883  12.588  10.760  10.042 -0.0638  0.5560 -0.3926
60093SOL    HW186884  12.663  10.767  10.100  0.2086 -0.0103 -0.6613
60093SOL    HW286885  12.525  10.707  10.090 -0.3764  1.1922 -0.0897
60094SOL     OW86886   6.431   3.207   9.462  0.2328  0.7832 -0.5463
60094SOL    HW186887   6.418   3.250   9.378 -2.3333  2.5531  0.5974
60094SOL    HW286888   6.407   3.116   9.447 -3.0137  1.6272 -1.2174
60095SOL     OW86889  11.605   1.126   1.600 -0.3745 -0.5071  0.2131
60095SOL    HW186890  11.516   1.118   1.633  0.2363 -0.4695  2.0105
60095SOL    HW286891  11.648   1.184   1.663  1.3826 -1.9455  0.4296
60096SOL     OW86892   9.434   3.938   3.149  0.2242  0.0444  0.7563
60096SOL    HW186893   9.394   3.928   3.235 -0.0264 -1.8354  0.4525
60096SOL    HW286894   9.385   4.009   3.107 -1.0189 -0.4255  1.3915
60097SOL     OW86895   8.360   9.607   0.901  0.6689  0.6168  0.1134
60097SOL    HW186896   8.322   9.693   0.887  0.0240  0.1465 -1.2385
60097SOL    HW286897   8.315   9.550   0.838  1.7560 -0.5108  0.3045
60098SOL     OW86898  11.752   1.380   6.244  0.0014 -0.1096 -0.2814
60098SOL    HW186899  11.836   1.371   6.289  1.0755  1.1765 -1.8838
60098SOL    HW286900  11.733   1.474   6.249 -1.5260 -0.4255  0.3228
60099SOL     OW86901   4.087   1.454   6.378 -0.6214  0.3288  0.2101
60099SOL    HW186902   4.128   1.380   6.335 -1.3749  0.4524 -0.7562
60099SOL    HW286903   4.159   1.498   6.424  0.5662  1.1388 -2.2705
60100SOL     OW86904   5.385   1.041   4.125 -0.6225 -0.2292 -0.0425
60100SOL    HW186905   5.350   0.958   4.094  1.3956 -0.8409 -0.8410
60100SOL    HW286906   5.478   1.024   4.141 -0.2342  1.7789  0.1490
60101SOL     OW86907   2.182  10.984   0.691  0.8508  0.4439  0.1217
60101SOL    HW186908   2.249  10.921   0.667  0.1866 -0.7335  1.2046
60101SOL    HW286909   2.099  10.938   0.678  0.1770  1.9825 -1.5428
60102SOL     OW86910   4.768   9.609   1.964 -0.0364  0.2983 -0.1659
60102SOL    HW186911   4.682   9.636   1.995  0.3145  0.7179  0.4588
60102SOL    HW286912   4.752   9.528   1.915 -0.8900  0.8142 -0.7685
60103SOL     OW86913  11.113   3.564   7.901 -0.0633 -0.0175  0.2288
60103SOL    HW186914  11.183   3.582   7.964 -0.6956 -2.3572  1.7479
60103SOL    HW286915  11.033   3.592   7.946 -0.3462  0.1775 -0.3885
60104SOL     OW86916   3.011  11.630   3.332 -0.3283  0.1034 -0.6466
60104SOL    HW186917   2.946  11.695   3.358 -0.7680  0.1891 -1.8807
60104SOL    HW286918   3.022  11.644   3.238  1.5878  0.1845 -0.4476
60105SOL     OW86919   7.534   8.384   5.986  0.1469 -0.6462 -0.4459
60105SOL    HW186920   7.478   8.311   6.016 -1.1367  0.8463  0.9610
60105SOL    HW286921   7.541   8.370   5.891  0.1181 -2.7047 -0.2014
60106SOL     OW86922   6.350   7.540   7.481  0.6461  0.2379  0.2341
60106SOL    HW186923   6.337   7.446   7.472  1.4487  0.2631 -1.5029
60106SOL    HW286924   6.261   7.576   7.486  0.3437 -0.6697  2.0779
60107SOL     OW86925  11.264   3.610  11.587 -0.1506 -0.7555 -0.0793
60107SOL    HW186926  11.308   3.693  11.607 -0.2470 -1.1092  1.8655
60107SOL    HW286927  11.330   3.557  11.543  0.7281 -0.5361  0.9304
60108SOL     OW86928   6.059   3.806   7.534  0.3295 -0.2009  0.3734
60108SOL    HW186929   6.021   3.893   7.546 -0.3403 -0.6040  1.2689
60108SOL    HW286930   6.141   3.809   7.584  0.0224 -0.2596  0.8893
60109SOL     OW86931  11.806   2.739   2.273  0.3321  0.2603  0.1182
60109SOL    HW186932  11.711   2.745   2.284 -0.0384 -1.0775 -1.9031
60109SOL    HW286933  11.831   2.824   2.238 -0.2457  0.3596 -0.0695
60110SOL     OW86934   0.020   7.479   5.759 -0.0160  0.1042  0.1328
60110SOL    HW186935  -0.014   7.422   5.691  2.2133  0.9425 -1.8046
60110SOL    HW286936   0.108   7.445   5.777 -0.4360  0.0724  2.4676
60111SOL     OW86937   5.642   2.481  11.930 -0.4894 -0.3299  0.0449
60111SOL    HW186938   5.624   2.483  11.836 -0.2333 -1.1898 -0.0291
60111SOL    HW286939   5.644   2.388  11.952  0.9246 -0.1886  0.6233
60112SOL     OW86940  12.313   4.830   6.037 -0.2554 -0.6112 -0.0106
60112SOL    HW186941  12.236   4.871   6.075  0.8201  1.8397 -0.2527
60112SOL    HW286942  12.326   4.750   6.088 -0.7203  0.8902  2.6709
60113SOL     OW86943   0.621   6.052   3.998 -0.5486  0.4638 -0.5916
60113SOL    HW186944   0.584   6.126   4.046 -0.1394  1.2562 -1.4797
60113SOL    HW286945   0.701   6.086   3.958 -0.8638 -0.1846 -1.8077
60114SOL     OW86946   4.973   6.071   8.311 -0.3170 -0.2325 -0.2013
60114SOL    HW186947   5.003   6.045   8.398 -0.1540  0.8280  0.0734
60114SOL    HW286948   4.896   6.016   8.295 -0.4866 -0.2793  0.7078
60115SOL     OW86949   6.985   8.185   3.784 -0.0463 -0.2587 -0.3147
60115SOL    HW186950   6.909   8.127   3.782 -0.6987  0.4313  1.5167
60115SOL    HW286951   6.961   8.254   3.846  1.8140  0.3605 -0.1967
60116SOL     OW86952   5.162   8.173  11.797  0.0074  0.2253  0.4265
60116SOL    HW186953   5.169   8.163  11.892  2.6518 -0.8300  0.1970
60116SOL    HW286954   5.230   8.115  11.762  0.9485  2.6229 -2.0095
60117SOL     OW86955   4.185   3.487   5.992 -0.3734  0.2424  0.2778
60117SOL    HW186956   4.156   3.451   5.908 -0.2517 -0.7721  0.6446
60117SOL    HW286957   4.208   3.409   6.044 -1.1294  0.7980  1.4940
60118SOL     OW86958   0.602   5.899   0.580 -0.0267  0.4877  0.2889
60118SOL    HW186959   0.596   5.817   0.531 -0.0095  0.7244 -0.1067
60118SOL    HW286960   0.693   5.927   0.571 -0.3307  1.2335 -0.6942
60119SOL     OW86961   2.177   5.352   8.126 -0.7486  0.0053  0.0530
60119SOL    HW186962   2.189   5.343   8.031 -1.3649  2.2052 -0.2707
60119SOL    HW286963   2.254   5.400   8.156 -2.0338  2.1409  0.1111
60120SOL     OW86964   9.924  11.057   2.863  0.7528  0.2311  0.3079
60120SOL    HW186965   9.947  11.146   2.836  0.3694  0.1092 -0.4589
60120SOL    HW286966   9.926  11.007   2.782  1.1062 -0.4931  0.7604
60121SOL     OW86967   8.685   1.131   8.952  0.0248  0.1749 -0.2340
60121SOL    HW186968   8.606   1.131   8.898 -0.4812  1.0667  0.4781
60121SOL    HW286969   8.654   1.152   9.040  1.3120  3.1259 -0.3708
60122SOL     OW86970  10.189   4.496   9.703  0.0647 -0.0221 -0.2931
60122SOL    HW186971  10.233   4.429   9.651  0.3707 -1.5145  1.7743
60122SOL    HW286972  10.122   4.532   9.645 -1.2421 -3.2853 -0.9934
60123SOL     OW86973   2.628  12.169   1.538  0.3955 -0.1367 -0.2252
60123SOL    HW186974   2.629  12.261   1.513 -1.2891 -0.2183 -0.7797
60123SOL    HW286975   2.652  12.122   1.459 -3.5284 -0.3269 -1.5301
60124SOL     OW86976   2.409   5.159   8.022 -0.2240  0.2182  0.5391
60124SOL    HW186977   2.441   5.247   8.041  0.7416 -0.1504  0.7026
60124SOL    HW286978   2.488   5.104   8.025 -1.0017 -0.8771  1.7999
60125SOL     OW86979   5.684   6.968   7.546 -0.2302  0.3665 -0.1089
60125SOL    HW186980   5.761   6.917   7.520  0.0337  1.3471 -1.3628
60125SOL    HW286981   5.645   6.919   7.618  0.6162 -1.0389 -0.5776
60126SOL     OW86982   4.900   3.517  12.772 -0.5856  0.2582  0.4632
60126SOL    HW186983   4.980   3.559  12.801 -0.0907 -1.2235  1.3628
60126SOL    HW286984   4.871   3.569  12.697  1.8510  0.1443 -0.6508
60127SOL     OW86985   1.823   1.588   5.739  0.2569  0.2497  0.2383
60127SOL    HW186986   1.895   1.609   5.679  1.5098 -0.8908  1.2682
60127SOL    HW286987   1.747   1.633   5.703  0.7885 -0.9044 -2.5804
60128SOL     OW86988   6.112   6.592  12.169 -0.1590  0.2355 -0.1904
60128SOL    HW186989   6.174   6.624  12.234 -1.7842 -2.2000  2.8077
60128SOL    HW286990   6.163   6.536  12.111  1.0244  1.1046 -0.0205
60129SOL     OW86991   9.111   4.508   0.793 -0.4285 -0.6627  0.1745
60129SOL    HW186992   9.179   4.494   0.858 -0.9647  0.0365  0.9042
60129SOL    HW286993   9.128   4.441   0.726  0.1099 -1.4186  1.0360
60130SOL     OW86994   9.766  12.391   8.626  0.6635 -0.1000 -0.9639
60130SOL    HW186995   9.837  12.332   8.650  0.4660 -0.4563 -1.2554
60130SOL    HW286996   9.712  12.341   8.566 -0.7382 -0.4004  0.4864
60131SOL     OW86997   8.384   3.723   3.874 -0.4149 -0.1282 -1.1153
60131SOL    HW186998   8.470   3.733   3.833 -0.5496  1.4656 -1.0610
60131SOL    HW286999   8.324   3.705   3.802 -0.6619  2.7199 -1.7233
60132SOL     OW87000   6.274   1.578   2.226 -0.0917  0.2733  0.6348
60132SOL    HW187001   6.294   1.666   2.258 -0.1640  1.4029 -2.1819
60132SOL    HW287002   6.197   1.590   2.171 -1.5446 -2.0135  1.9865
60133SOL     OW87003   5.543   3.381   5.092 -0.4418  0.4366 -0.3227
60133SOL    HW187004   5.523   3.297   5.051  1.7570  0.2925 -1.2500
60133SOL    HW287005   5.524   3.368   5.185 -0.1109 -1.1011 -0.4529
60134SOL     OW87006   6.657   1.103   8.787 -0.2933 -0.1634  0.2505
60134SOL    HW187007   6.693   1.024   8.747  0.3214 -0.3834  1.2043
60134SOL    HW287008   6.654   1.083   8.881 -0.3701  0.8425  0.4704
60135SOL     OW87009   8.510   8.449   5.922  0.0373  0.2968  0.2275
60135SOL    HW187010   8.466   8.426   6.004  1.5168 -1.0754  0.6903
60135SOL    HW287011   8.583   8.387   5.916  0.1815  0.6106 -1.9539
60136SOL     OW87012   5.717   3.399   8.457  0.2446 -0.0447  0.1416
60136SOL    HW187013   5.635   3.356   8.480  0.0991  0.0928 -0.1160
60136SOL    HW287014   5.724   3.389   8.362  1.0136 -0.9194  0.2794
60137SOL     OW87015   8.247   9.825  10.973 -0.7464  0.4826  0.0961
60137SOL    HW187016   8.229   9.772  10.896  0.0560 -0.2657  0.4037
60137SOL    HW287017   8.167   9.818  11.026 -1.3264  1.0606 -0.6753
60138SOL     OW87018   4.964   6.321   0.021 -0.3469  0.1091  0.5001
60138SOL    HW187019   4.960   6.417   0.015 -1.1981  0.0715  0.3073
60138SOL    HW287020   4.897   6.299   0.085  0.5047 -0.3042  1.2633
60139SOL     OW87021   4.317   1.240   5.524 -0.5021  0.0883 -0.0825
60139SOL    HW187022   4.407   1.208   5.530 -0.9649 -1.8323 -1.9111
60139SOL    HW287023   4.296   1.270   5.613  2.0629  1.0780  0.2687
60140SOL     OW87024   3.834   9.163   8.540  0.1252 -0.3019  0.8251
60140SOL    HW187025   3.809   9.071   8.539 -1.2215 -0.0224 -1.8796
60140SOL    HW287026   3.896   9.171   8.612  0.4908 -3.3561  0.9662
60141SOL     OW87027   8.324   2.162   1.616 -0.1323  0.2915 -0.3980
60141SOL    HW187028   8.293   2.251   1.597  0.9617  0.9606  0.7575
60141SOL    HW287029   8.292   2.144   1.705  1.4947  0.4502  0.2604
60142SOL     OW87030   7.003  11.069   4.153  0.1945 -0.0167  0.3878
60142SOL    HW187031   6.985  11.009   4.080  1.0221 -0.7234  0.7369
60142SOL    HW287032   6.993  11.156   4.116 -2.4975 -0.3041  0.2215
60143SOL     OW87033   1.338   1.029   8.227 -0.3667 -0.0383 -0.4247
60143SOL    HW187034   1.363   1.075   8.147  3.4291  0.9629  1.1115
60143SOL    HW287035   1.276   1.087   8.270 -0.6775  0.5053 -1.5673
60144SOL     OW87036   9.533   9.577   7.254 -0.0691 -0.7341 -0.0908
60144SOL    HW187037   9.557   9.634   7.180 -1.9059 -0.6499 -0.6882
60144SOL    HW287038   9.464   9.521   7.219  0.3671 -2.0380  1.0460
60145SOL     OW87039   9.801  11.116   5.754  0.7363 -0.5366 -0.0316
60145SOL    HW187040   9.798  11.032   5.801 -1.7513  0.4655  1.8529
60145SOL    HW287041   9.722  11.116   5.699  0.4032  0.7437  0.4052
60146SOL     OW87042  12.017   1.680   3.188  0.1217  0.7175 -0.2616
60146SOL    HW187043  11.980   1.768   3.187  0.3386  0.8571  1.1549
60146SOL    HW287044  11.999   1.645   3.101 -1.6590  1.4512 -0.2280
60147SOL     OW87045   7.496   4.057  12.151  0.0721 -0.3535 -0.1166
60147SOL    HW187046   7.409   4.082  12.120  0.0527  0.9619  0.9079
60147SOL    HW287047   7.550   4.134  12.134 -0.0172  0.6489  3.2814
60148SOL     OW87048   6.663  12.574   1.083 -0.8955 -0.0676  0.7426
60148SOL    HW187049   6.649  12.488   1.124 -1.2403 -0.5016 -0.2450
60148SOL    HW287050   6.576  12.613   1.080 -1.0511 -0.4448 -0.4049
60149SOL     OW87051  10.129   8.043   5.671 -0.1371 -0.2386 -0.3578
60149SOL    HW187052  10.212   8.090   5.661 -0.2778  0.2971  0.9095
60149SOL    HW287053  10.102   8.059   5.761 -2.0712  0.3142 -0.9731
60150SOL     OW87054   8.290  12.601   6.450  0.3919  0.0371 -0.0741
60150SOL    HW187055   8.299  12.539   6.377  2.5923 -0.0064  0.1663
60150SOL    HW287056   8.304  12.687   6.410 -1.0656  0.2888 -0.1186
60151SOL     OW87057   6.482  12.367  10.916  0.4398 -0.4284  0.1747
60151SOL    HW187058   6.522  12.290  10.957  1.9382 -0.0941 -0.5780
60151SOL    HW287059   6.546  12.395  10.851 -1.5850 -0.5946 -2.0266
60152SOL     OW87060   9.084   8.946   3.862 -0.5403  0.3200  0.7291
60152SOL    HW187061   9.132   8.867   3.886  0.7625  1.0453  0.5841
60152SOL    HW287062   9.051   8.981   3.946  0.0225  0.3362  0.9471
60153SOL     OW87063   1.430   3.231  10.055  0.5277 -0.2695  0.3115
60153SOL    HW187064   1.417   3.137  10.038 -1.9210  0.3193 -1.7271
60153SOL    HW287065   1.380   3.248  10.134 -1.3907 -0.2669 -0.8349
60154SOL     OW87066   2.261   7.519   3.840  0.6240 -0.0754  0.1613
60154SOL    HW187067   2.220   7.584   3.784  1.5454  1.6688  1.4350
60154SOL    HW287068   2.210   7.439   3.825 -0.5734  0.9285 -1.3954
60155SOL     OW87069   9.311   6.693   2.123  0.8005  0.1628  0.3151
60155SOL    HW187070   9.234   6.742   2.096  1.0194  1.0055  1.1621
60155SOL    HW287071   9.384   6.735   2.078  0.9418  0.3741  0.7317
60156SOL     OW87072   1.118   9.758   8.880 -0.0759  0.6621  0.6137
60156SOL    HW187073   1.148   9.813   8.953  1.4597  1.1709 -0.3377
60156SOL    HW287074   1.082   9.680   8.922  1.8708  0.3837  1.9402
60157SOL     OW87075   4.396   7.057   6.317 -0.4331 -0.5723 -0.0273
60157SOL    HW187076   4.347   7.139   6.313 -1.3545 -1.1168 -0.3938
60157SOL    HW287077   4.401   7.036   6.410  1.9737  1.1142  0.3126
60158SOL     OW87078   2.481   0.448   1.057  0.5789 -0.0371 -0.7025
60158SOL    HW187079   2.435   0.454   0.973 -0.0608 -1.3978 -0.4719
60158SOL    HW287080   2.559   0.501   1.045 -1.1864  2.7042 -0.9853
60159SOL     OW87081   0.339   9.754   9.715  0.4793 -0.0428  0.4042
60159SOL    HW187082   0.304   9.675   9.673 -1.8154  1.8593 -1.5171
60159SOL    HW287083   0.308   9.749   9.806 -2.3223  0.0378 -0.4575
60160SOL     OW87084   4.280   1.406   2.539  0.2041  0.1141  0.0121
60160SOL    HW187085   4.326   1.490   2.532 -1.0927  0.9140  0.7868
60160SOL    HW287086   4.268   1.393   2.633  2.6282 -2.2467  0.1203
60161SOL     OW87087  11.534  11.975   1.790 -0.2146 -0.1043 -0.6573
60161SOL    HW187088  11.513  12.020   1.871  0.4339 -0.3222 -0.3642
60161SOL    HW287089  11.460  11.916   1.775  0.2911 -1.0755  0.5064
60162SOL     OW87090   5.078   5.240   6.448  0.0105  0.4412 -0.6085
60162SOL    HW187091   5.143   5.252   6.379  0.1938 -1.4002 -0.8004
60162SOL    HW287092   5.126   5.201   6.520 -0.6303  0.2997 -0.2479
60163SOL     OW87093  12.325  12.445   7.046  0.1250  0.4274 -0.2156
60163SOL    HW187094  12.264  12.465   6.975  2.0672 -0.8071 -2.3964
60163SOL    HW287095  12.290  12.366   7.086  0.1302 -0.1823 -1.3459
60164SOL     OW87096   9.977   9.521   9.418 -0.4812 -0.0286 -0.0733
60164SOL    HW187097  10.022   9.438   9.434 -0.7396 -0.7384 -2.6458
60164SOL    HW287098   9.892   9.495   9.383 -0.2723  1.3093 -1.6517
60165SOL     OW87099  10.295   1.105   7.590  0.5481  0.2876 -0.4180
60165SOL    HW187100  10.391   1.110   7.593  0.6204  2.0809 -2.6272
60165SOL    HW287101  10.266   1.188   7.628  0.0917  1.4752 -3.1312
60166SOL     OW87102   5.362  11.642   8.918 -0.0440  0.2704  0.1271
60166SOL    HW187103   5.353  11.555   8.881  2.7026 -0.3459  0.6466
60166SOL    HW287104   5.339  11.702   8.846 -1.9635 -0.8201 -0.2266
60167SOL     OW87105   4.136   7.165   5.004  0.3474 -0.1662 -0.7545
60167SOL    HW187106   4.135   7.180   4.910  0.9378 -0.5659 -0.8226
60167SOL    HW287107   4.046   7.184   5.032 -0.0389 -0.8433 -1.5145
60168SOL     OW87108   6.820   9.025   6.968  0.2245  0.2228 -0.2365
60168SOL    HW187109   6.789   8.945   6.925  1.3122 -0.0077 -0.6356
60168SOL    HW287110   6.824   9.003   7.061 -0.3961  0.1246 -0.2320
60169SOL     OW87111   8.034   7.736   9.660  0.0392  0.8477 -0.0364
60169SOL    HW187112   7.976   7.794   9.708 -0.5952  0.3914 -0.2278
60169SOL    HW287113   8.002   7.740   9.569 -0.1177  0.0960 -0.0257
60170SOL     OW87114  10.985  12.458   3.980  0.2621 -0.0460  0.7564
60170SOL    HW187115  10.952  12.504   4.057  0.9097  0.3907  0.7802
60170SOL    HW287116  11.061  12.509   3.952  0.2601 -0.4170  0.0534
60171SOL     OW87117  11.999   0.933   8.881 -0.2612 -0.0363 -0.3148
60171SOL    HW187118  11.988   0.856   8.937 -0.4820  0.2789  0.0846
60171SOL    HW287119  11.941   0.917   8.807 -0.8362  0.0607  0.1091
60172SOL     OW87120   6.218   3.555   2.209 -0.0500  0.2185  0.2900
60172SOL    HW187121   6.179   3.530   2.293  0.4274 -0.8961  0.1958
60172SOL    HW287122   6.307   3.583   2.230 -0.1450  0.5700  0.2313
60173SOL     OW87123   5.726   4.930   1.450  0.0355 -0.8854  0.5609
60173SOL    HW187124   5.747   4.993   1.519  1.3175 -0.1040 -0.5030
60173SOL    HW287125   5.811   4.897   1.420 -0.4199 -0.4989 -1.2715
60174SOL     OW87126   4.558  12.464   0.419 -0.5301 -0.0839 -0.1817
60174SOL    HW187127   4.514  12.380   0.435 -0.7535 -0.0485 -0.5815
60174SOL    HW287128   4.567  12.503   0.505 -1.0714 -0.2049 -0.0656
60175SOL     OW87129   0.844   2.675  10.936 -0.5954 -0.4473  0.7452
60175SOL    HW187130   0.794   2.754  10.958  0.7497  0.7958 -0.4890
60175SOL    HW287131   0.804   2.643  10.855  1.0886  1.1076 -0.7984
60176SOL     OW87132   2.092  10.924   4.787 -0.3351 -0.2238  0.2492
60176SOL    HW187133   2.012  10.877   4.812  0.7098 -1.4994  1.3932
60176SOL    HW287134   2.158  10.893   4.849  1.0548  0.7934 -0.6606
60177SOL     OW87135   9.058   1.613   1.447  0.1893  0.1654  0.3417
60177SOL    HW187136   9.003   1.685   1.476 -1.5644 -1.1454  0.5075
60177SOL    HW287137   9.092   1.574   1.527 -0.2838 -0.2054  0.3726
60178SOL     OW87138   1.816  12.382   3.107  0.0959  0.0341 -0.1080
60178SOL    HW187139   1.873  12.311   3.077  0.9620  0.4269  0.5523
60178SOL    HW287140   1.867  12.425   3.176 -0.7973  0.7246  0.1315
60179SOL     OW87141   3.205   4.853  10.469  0.5638  0.2398 -0.3740
60179SOL    HW187142   3.182   4.846  10.377 -1.9626  0.7155  0.1559
60179SOL    HW287143   3.212   4.762  10.499 -3.4303 -0.1620 -0.0532
60180SOL     OW87144   2.855  10.014   0.661 -0.0000  0.5633 -0.6718
60180SOL    HW187145   2.910  10.071   0.608  0.7884  0.0536 -0.4311
60180SOL    HW287146   2.837   9.938   0.605 -0.3143  0.6500 -0.6889
60181SOL     OW87147   7.991   5.240  12.638  0.0728 -0.3331  0.5809
60181SOL    HW187148   7.910   5.226  12.589  0.9774  0.6578 -1.3159
60181SOL    HW287149   7.964   5.287  12.717 -1.3131 -1.0520  0.5579
60182SOL     OW87150   4.108   2.632   2.652  0.2243 -0.0653 -0.9116
60182SOL    HW187151   4.166   2.557   2.664  1.4213  0.3253 -3.4690
60182SOL    HW287152   4.162   2.708   2.672 -1.0772  0.2155  1.9945
60183SOL     OW87153   8.910   2.377   0.367  0.2565 -0.3781 -0.7234
60183SOL    HW187154   8.908   2.342   0.277 -1.1565  0.2026 -0.9467
60183SOL    HW287155   8.888   2.469   0.357  0.3972 -0.2370  0.2047
60184SOL     OW87156   2.762   6.616   8.351  0.4581 -0.1171 -0.1372
60184SOL    HW187157   2.686   6.640   8.297  1.7753  1.2435 -1.4567
60184SOL    HW287158   2.723   6.584   8.433 -1.5449  0.2386 -0.8836
60185SOL     OW87159   1.288   1.965   0.209 -0.0495 -0.0341 -0.4439
60185SOL    HW187160   1.367   1.923   0.243  0.7268  1.6623 -0.0420
60185SOL    HW287161   1.318   2.011   0.131 -1.0654 -0.9168 -1.3874
60186SOL     OW87162   8.026   2.267   9.715 -0.0947 -0.3985 -0.2753
60186SOL    HW187163   8.096   2.300   9.772 -0.4971  0.2671 -0.1561
60186SOL    HW287164   8.064   2.190   9.672  0.5796 -0.2647  0.0730
60187SOL     OW87165   3.202   2.204   5.325  0.1922 -0.0353  0.0172
60187SOL    HW187166   3.235   2.130   5.275 -2.2887 -0.7482 -0.7333
60187SOL    HW287167   3.134   2.165   5.382  0.9842  1.2042  1.9118
60188SOL     OW87168   9.990   0.398   9.105  0.1638 -0.2633  0.0506
60188SOL    HW187169   9.966   0.328   9.044 -1.5962  0.3783 -0.0747
60188SOL    HW287170   9.906   0.428   9.140  0.8390  1.9863 -0.1202
60189SOL     OW87171   0.478   0.640   0.316  0.0708 -0.1069 -0.4181
60189SOL    HW187172   0.417   0.706   0.350 -0.5086 -1.1352  0.6281
60189SOL    HW287173   0.485   0.575   0.387  2.0043 -0.2763 -0.7069
60190SOL     OW87174  10.802   8.834  11.245 -0.2661 -0.5213 -0.5212
60190SOL    HW187175  10.824   8.755  11.195 -1.1674 -1.4775  0.5207
60190SOL    HW287176  10.802   8.804  11.336 -2.5642  0.1825 -0.2352
60191SOL     OW87177   5.746   3.081   3.913 -0.2150  0.1495  0.7513
60191SOL    HW187178   5.726   3.172   3.936  0.4875  0.2386  1.0306
60191SOL    HW287179   5.828   3.063   3.957  0.5361 -0.0776 -0.6713
60192SOL     OW87180   0.134  12.544   5.589  0.8896 -0.1250  0.0648
60192SOL    HW187181   0.131  12.615   5.526  0.0715 -0.5267 -0.3632
60192SOL    HW287182   0.098  12.469   5.542  2.7770 -1.1344  0.1257
60193SOL     OW87183   4.366   0.937   6.593  0.2094  0.1015  0.0456
60193SOL    HW187184   4.312   0.946   6.515  0.4679  1.3160 -0.0042
60193SOL    HW287185   4.310   0.968   6.665  1.4434  3.4557 -0.2599
60194SOL     OW87186  11.651   2.139   9.799 -0.2032 -0.2418 -0.0502
60194SOL    HW187187  11.584   2.202   9.826  1.0451  0.5905  1.2922
60194SOL    HW287188  11.727   2.193   9.777  0.1975 -1.1862 -1.0959
60195SOL     OW87189   9.489   3.575   6.120  0.0295  0.1667 -0.3218
60195SOL    HW187190   9.530   3.520   6.187  0.6123 -1.0864 -1.6507
60195SOL    HW287191   9.563   3.609   6.069 -0.4899 -1.6107 -2.3658
60196SOL     OW87192   2.680   3.626  11.093  0.3933 -0.0767  0.2726
60196SOL    HW187193   2.613   3.657  11.153  0.1059  0.8417 -0.4974
60196SOL    HW287194   2.763   3.660  11.128 -0.0290  2.9144 -1.2900
60197SOL     OW87195   5.101   1.605   5.856  0.6566 -0.3980  0.3404
60197SOL    HW187196   5.128   1.688   5.894 -0.7669 -0.1616  0.9178
60197SOL    HW287197   5.097   1.622   5.762  2.6276 -0.5161  0.2055
60198SOL     OW87198   7.231  10.405   0.050  0.5667 -0.3616  0.3136
60198SOL    HW187199   7.301  10.470   0.047  0.2836  0.0793  2.2954
60198SOL    HW287200   7.268  10.330   0.096 -0.4677  0.2138  2.1908
60199SOL     OW87201   6.718  10.616   7.457  0.0421 -0.0127  0.3052
60199SOL    HW187202   6.665  10.676   7.404  1.1046  1.0820  0.4387
60199SOL    HW287203   6.734  10.664   7.538  1.7218 -0.0785  0.0376
60200SOL     OW87204   2.223   5.143   4.911 -0.4326 -0.0633  0.1620
60200SOL    HW187205   2.315   5.145   4.885 -0.5963  0.9281 -0.3999
60200SOL    HW287206   2.205   5.231   4.942 -0.7375 -0.7255  1.9650
60201SOL     OW87207   4.271   7.555   5.446  0.2896  0.7805  0.1688
60201SOL    HW187208   4.242   7.646   5.454 -1.7176  0.2519 -0.5090
60201SOL    HW287209   4.197   7.503   5.476  0.2056 -0.6806 -2.2702
60202SOL     OW87210   1.062   7.413  11.965 -0.3388 -0.3070 -0.3101
60202SOL    HW187211   1.021   7.497  11.946  1.5808  0.9259  0.6686
60202SOL    HW287212   1.131   7.434  12.029 -0.8348 -2.8749  1.1880
60203SOL     OW87213   6.786   5.448  10.194  0.0790 -0.1858  0.2739
60203SOL    HW187214   6.758   5.380  10.133 -1.3167  0.8763 -0.3474
60203SOL    HW287215   6.798   5.403  10.277 -3.4496 -0.8660  0.5816
60204SOL     OW87216   3.077   8.197   3.914  0.6696  1.1225  0.1820
60204SOL    HW187217   3.144   8.136   3.883  1.9403  1.8362  1.4101
60204SOL    HW287218   3.090   8.276   3.861 -0.4271  0.6584 -0.8283
60205SOL     OW87219  10.252   1.058   3.412  0.1056 -0.2322  0.0924
60205SOL    HW187220  10.178   1.062   3.473  0.1438  0.5429  0.1022
60205SOL    HW287221  10.213   1.074   3.326 -0.1160 -2.4552 -0.2588
60206SOL     OW87222  12.732   7.783   4.960  0.2185 -0.5596  0.3093
60206SOL    HW187223  12.763   7.741   5.041  3.2368  0.8880  0.0701
60206SOL    HW287224  12.724   7.876   4.983 -1.2681 -0.4743 -0.4626
60207SOL     OW87225  12.445  11.720   9.511  0.5474  0.3873 -0.0640
60207SOL    HW187226  12.535  11.694   9.532  0.8971  2.0258  0.6123
60207SOL    HW287227  12.419  11.662   9.440  1.4294 -1.4525  1.0251
60208SOL     OW87228   1.342   7.425   9.415  0.2803  1.2757  0.0132
60208SOL    HW187229   1.408   7.438   9.483 -0.2856  2.7291  0.3230
60208SOL    HW287230   1.261   7.455   9.455 -0.2563  1.1352 -0.9491
60209SOL     OW87231   0.090   3.842   4.498 -0.1725  0.9464 -0.0263
60209SOL    HW187232   0.069   3.750   4.482  3.9360 -0.2347  0.2954
60209SOL    HW287233   0.067   3.886   4.416  2.6702 -1.4665 -2.3790
60210SOL     OW87234   2.649   1.768   8.775  0.1717 -0.6166 -0.3385
60210SOL    HW187235   2.732   1.816   8.772  0.5222 -1.2196 -0.4487
60210SOL    HW287236   2.608   1.788   8.691  0.7725 -1.2991 -0.8078
60211SOL     OW87237   0.216   2.121   7.365 -0.1124  0.1390  0.1141
60211SOL    HW187238   0.230   2.056   7.296  0.6405  1.2270 -0.7757
60211SOL    HW287239   0.247   2.077   7.445  0.7580 -0.4518 -0.5328
60212SOL     OW87240   5.987   3.002   8.004  0.0958 -0.2982 -0.2702
60212SOL    HW187241   6.081   2.982   8.001  0.1237 -0.3116  0.4908
60212SOL    HW287242   5.983   3.097   7.988  0.1516 -0.4683 -1.3553
60213SOL     OW87243   8.696   2.179   1.131 -0.1621 -0.6981 -0.5188
60213SOL    HW187244   8.761   2.241   1.097  1.6184 -2.1361  0.0932
60213SOL    HW287245   8.675   2.123   1.056  0.5707 -1.2538 -0.3151
60214SOL     OW87246   5.361   6.276  12.630 -0.1284  0.0673  0.5499
60214SOL    HW187247   5.398   6.346  12.576 -0.7323  0.1740  0.2713
60214SOL    HW287248   5.365   6.311  12.719  1.1001 -0.2064  0.6246
60215SOL     OW87249   4.015   1.268   4.609 -0.9577  0.8007 -0.0750
60215SOL    HW187250   4.032   1.181   4.571 -0.4544  1.2693 -0.9639
60215SOL    HW287251   3.959   1.312   4.546 -0.0899  1.6058 -0.3107
60216SOL     OW87252   5.714   2.617   4.166 -0.0445 -0.3724 -0.4564
60216SOL    HW187253   5.727   2.667   4.246  0.7249 -1.0035 -0.1739
60216SOL    HW287254   5.674   2.535   4.194  0.4630 -0.7027 -0.6756
60217SOL     OW87255  11.641   3.736  11.504 -0.2025 -0.1538  0.4835
60217SOL    HW187256  11.686   3.779  11.577  0.6850  0.4914 -0.4081
60217SOL    HW287257  11.708   3.727  11.436 -1.1553 -0.1572 -0.4901
60218SOL     OW87258   6.558   1.854   9.947  0.4966  0.2607 -0.3358
60218SOL    HW187259   6.518   1.932   9.910 -0.4929 -0.7784 -1.5453
60218SOL    HW287260   6.647   1.881   9.969 -0.0333  1.9016 -0.0444
60219SOL     OW87261   0.814   7.852   6.942  0.2417 -0.0882  0.7973
60219SOL    HW187262   0.867   7.896   7.008  1.3747  2.5062 -1.6224
60219SOL    HW287263   0.868   7.778   6.914  0.9859  0.4073  0.8907
60220SOL     OW87264   8.603  12.464   9.913 -0.0723  0.1816 -0.3946
60220SOL    HW187265   8.661  12.523   9.865  0.7213  2.1945  2.7401
60220SOL    HW287266   8.663  12.402   9.956 -0.4149  0.7163  0.8814
60221SOL     OW87267   9.577   6.989   4.684 -0.5049 -0.0510  0.2596
60221SOL    HW187268   9.485   6.973   4.702 -0.2582 -1.1744  0.6327
60221SOL    HW287269   9.585   7.084   4.681 -1.9591  0.0709 -1.3678
60222SOL     OW87270   4.112   4.677   7.716  0.3403  0.1768  0.3489
60222SOL    HW187271   4.126   4.741   7.647 -0.4041  0.0832  0.1069
60222SOL    HW287272   4.024   4.643   7.700  0.5068 -0.4884  0.8137
60223SOL     OW87273   5.611   2.445   8.219 -0.5756  0.4859  0.2279
60223SOL    HW187274   5.634   2.468   8.129 -0.1450 -0.2822  0.1383
60223SOL    HW287275   5.658   2.364   8.236  0.2424  1.2032  1.5311
60224SOL     OW87276   3.006   8.894   8.584 -0.2573  0.6587 -0.2575
60224SOL    HW187277   2.937   8.889   8.649  1.1098  1.0395  1.2834
60224SOL    HW287278   3.034   8.804   8.569 -1.0245  0.5114 -0.8437
60225SOL     OW87279   4.986   9.209   8.330 -0.2230 -0.2861 -0.1429
60225SOL    HW187280   5.077   9.228   8.310 -0.2781 -1.1093 -1.2709
60225SOL    HW287281   4.975   9.236   8.421  0.1371  3.4007 -1.0180
60226SOL     OW87282   4.214   0.078   0.164  0.2219 -0.3351  0.5528
60226SOL    HW187283   4.245   0.012   0.227  2.3682  0.8528  0.8303
60226SOL    HW287284   4.284   0.084   0.099 -1.1867 -0.2751 -1.0174
60227SOL     OW87285   9.681   4.642   9.137  0.1222  0.2987 -0.2093
60227SOL    HW187286   9.736   4.708   9.180  1.1570  0.0933 -1.1569
60227SOL    HW287287   9.591   4.670   9.154  0.5435  1.9384 -0.5472
60228SOL     OW87288   7.967   4.935  10.193 -0.4068  0.0845 -0.6244
60228SOL    HW187289   8.050   4.915  10.237 -0.4110  1.8762  0.2873
60228SOL    HW287290   7.963   4.873  10.120  1.8648  0.1150 -0.8437
60229SOL     OW87291  11.624   8.533   3.904 -0.7196 -0.2974 -0.4680
60229SOL    HW187292  11.651   8.567   3.819  0.9857 -3.0173 -1.1545
60229SOL    HW287293  11.651   8.441   3.902 -4.6952 -1.7224  1.2823
60230SOL     OW87294   9.661   0.962   7.291  0.3548  0.0318 -0.0008
60230SOL    HW187295   9.690   1.021   7.221 -0.2125  0.6193  0.2507
60230SOL    HW287296   9.596   1.012   7.340  0.9871 -0.2430  1.1661
60231SOL     OW87297   0.146   0.830   5.728 -0.2439 -0.2479  0.8075
60231SOL    HW187298   0.178   0.747   5.692 -1.5303 -0.2152 -0.4859
60231SOL    HW287299   0.208   0.896   5.696  0.2800 -0.5904  1.1038
60232SOL     OW87300  11.617   3.584   5.986 -0.0253 -0.1125 -0.3222
60232SOL    HW187301  11.555   3.613   5.919 -0.9725  0.0782  0.6192
60232SOL    HW287302  11.661   3.509   5.947 -2.5143 -1.7814 -0.1523
60233SOL     OW87303   3.362  12.287   5.117 -0.2058  0.0299 -0.6749
60233SOL    HW187304   3.399  12.283   5.205  1.6512 -2.4362 -1.4509
60233SOL    HW287305   3.294  12.220   5.117 -1.9793  1.7696 -0.4400
60234SOL     OW87306   1.852  12.377  11.984  0.0091 -0.4016 -0.1146
60234SOL    HW187307   1.847  12.419  11.898 -0.8333 -1.1422 -0.4453
60234SOL    HW287308   1.843  12.283  11.965 -0.2600 -0.5660  0.7902
60235SOL     OW87309   2.760   9.988   8.995 -0.1454  0.6335  0.2045
60235SOL    HW187310   2.791   9.995   9.085  1.1409 -0.5455 -0.1161
60235SOL    HW287311   2.719   9.902   8.990  0.2788  0.4608 -0.4631
60236SOL     OW87312   7.538   2.768   5.251 -0.1759 -0.2428  0.4773
60236SOL    HW187313   7.608   2.811   5.299  0.0406  0.4222 -0.4092
60236SOL    HW287314   7.458   2.809   5.283 -0.2510 -1.5527  2.0655
60237SOL     OW87315  10.367   3.723  11.390  0.3737 -0.3476  0.0151
60237SOL    HW187316  10.371   3.789  11.320  0.2188 -1.1281 -0.7583
60237SOL    HW287317  10.392   3.642  11.346 -0.6931 -1.0317  0.6422
60238SOL     OW87318   4.621   4.202  12.275 -0.0032 -0.4244  0.2100
60238SOL    HW187319   4.597   4.294  12.285 -0.4551 -0.6373  1.1803
60238SOL    HW287320   4.608   4.184  12.181 -3.0452 -0.3297  0.5037
60239SOL     OW87321  10.124  11.732   5.224  0.0515 -0.2849 -0.4838
60239SOL    HW187322  10.160  11.727   5.313 -0.1750 -1.0018 -0.4245
60239SOL    HW287323  10.103  11.825   5.212  0.3055 -0.1413  0.1205
60240SOL     OW87324  10.104   4.751   8.656  0.0665 -0.2263  0.0610
60240SOL    HW187325  10.136   4.682   8.599  0.8202 -2.2563  2.7104
60240SOL    HW287326  10.021   4.717   8.691 -0.3987  0.9635  0.1856
60241SOL     OW87327   3.187  11.034   4.473 -0.0388 -0.0205 -0.1632
60241SOL    HW187328   3.097  11.041   4.504  0.7715  1.6281  2.1471
60241SOL    HW287329   3.200  11.111   4.418  0.0234 -0.1143 -0.2782
60242SOL     OW87330   1.649   9.965  10.949  0.3098  0.0670  0.1503
60242SOL    HW187331   1.598   9.960  10.868  2.1815 -0.3166 -1.0696
60242SOL    HW287332   1.650   9.876  10.983 -0.5080  0.2350  0.6518
60243SOL     OW87333   9.048   0.845   0.784  0.2417 -0.4131  0.5941
60243SOL    HW187334   9.114   0.912   0.806 -0.1022 -0.2063  1.0111
60243SOL    HW287335   9.087   0.797   0.711 -0.0071  0.9983 -0.5088
60244SOL     OW87336   8.535   9.133   7.250  0.2283 -0.1665 -0.1959
60244SOL    HW187337   8.521   9.224   7.277  0.4260  0.1139 -1.0340
60244SOL    HW287338   8.501   9.082   7.324 -0.5667  0.5717 -0.0274
60245SOL     OW87339   3.820  12.179  11.841  0.0502  0.2231  0.0063
60245SOL    HW187340   3.802  12.108  11.903  0.2153 -1.2431 -1.5451
60245SOL    HW287341   3.897  12.150  11.793 -0.3993  1.0328 -1.2581
60246SOL     OW87342  11.720   1.042   3.809 -0.4484 -0.0528 -0.1443
60246SOL    HW187343  11.804   1.004   3.837 -1.6935 -2.0907  1.0322
60246SOL    HW287344  11.717   1.127   3.852  0.4754 -0.4878  0.8339
60247SOL     OW87345   0.380   8.597   3.404 -0.4107  0.5446 -0.0714
60247SOL    HW187346   0.470   8.615   3.377  0.2832  0.6195  2.0858
60247SOL    HW287347   0.369   8.503   3.389 -0.0822  0.5874 -0.6064
60248SOL     OW87348  11.121  12.626   3.714 -0.0220  0.0433  0.4510
60248SOL    HW187349  11.095  12.557   3.654 -0.5489 -1.3420  2.1803
60248SOL    HW287350  11.043  12.680   3.724 -0.8713 -1.3753  1.9994
60249SOL     OW87351   6.067   1.429   6.648  0.0043 -0.3687  0.5323
60249SOL    HW187352   6.082   1.359   6.712  1.1005 -1.2738 -0.6473
60249SOL    HW287353   6.151   1.438   6.603 -0.0542  1.8884  0.7880
60250SOL     OW87354   1.558   6.931   2.958  0.2287 -0.5176 -0.4158
60250SOL    HW187355   1.608   7.005   2.923 -0.4613  0.7679  1.1966
60250SOL    HW287356   1.536   6.957   3.047  0.5042 -2.9638  0.4365
60251SOL     OW87357   7.646   8.505   9.243 -0.4343 -0.2032  0.6180
60251SOL    HW187358   7.645   8.449   9.321  1.4174 -2.2385 -0.7013
60251SOL    HW287359   7.643   8.443   9.170  0.4623  1.5122 -0.9354
60252SOL     OW87360   2.046   6.270   0.222 -0.0111 -0.0427 -0.4957
60252SOL    HW187361   2.054   6.330   0.296 -1.1565  0.9810 -1.1555
60252SOL    HW287362   1.954   6.278   0.195  0.4995 -0.0138 -2.3399
60253SOL     OW87363   4.027   8.229  11.134  0.2470  0.5485 -0.1760
60253SOL    HW187364   3.964   8.281  11.084 -1.7294 -1.1777  0.3477
60253SOL    HW287365   3.976   8.195  11.207  1.4699 -1.9673 -0.4096
60254SOL     OW87366   7.336   7.283   2.147 -0.3879 -0.2625  0.0821
60254SOL    HW187367   7.352   7.375   2.123  0.0663 -0.4115 -0.2143
60254SOL    HW287368   7.399   7.266   2.218  0.1997 -0.6104 -0.5086
60255SOL     OW87369   5.808   2.148   1.389 -0.6683 -0.0673 -0.4874
60255SOL    HW187370   5.767   2.234   1.378  0.8534  0.7244 -0.3179
60255SOL    HW287371   5.736   2.089   1.410 -1.4673  1.6994  2.2350
60256SOL     OW87372   7.142  10.648   8.078 -0.9757  0.1952  0.4595
60256SOL    HW187373   7.055  10.685   8.066  0.1344  2.9033  0.0235
60256SOL    HW287374   7.202  10.717   8.050  1.3543 -1.2620  1.4965
60257SOL     OW87375   6.127   7.212   0.646 -0.1865  0.7275 -0.3649
60257SOL    HW187376   6.119   7.299   0.684  2.5274  1.0719 -0.4087
60257SOL    HW287377   6.125   7.153   0.722  1.1744  1.1114 -0.0002
60258SOL     OW87378   6.356  12.480   1.896 -0.4742 -0.1337  0.6479
60258SOL    HW187379   6.439  12.439   1.919  0.7235  1.3916 -0.6904
60258SOL    HW287380   6.306  12.411   1.853  1.1285 -0.5033 -0.7571
60259SOL     OW87381  10.764   2.799   6.695 -0.1010  0.1879 -0.1195
60259SOL    HW187382  10.835   2.836   6.747 -0.6161  0.4100  0.4273
60259SOL    HW287383  10.809   2.753   6.623  0.6609 -0.7931  0.9356
60260SOL     OW87384   0.917   0.193   3.489 -0.1249 -0.0828  0.7896
60260SOL    HW187385   0.956   0.262   3.436 -3.0199 -0.4504 -2.1737
60260SOL    HW287386   0.824   0.216   3.494 -0.5304 -1.8272  2.9964
60261SOL     OW87387   7.129  12.078   7.590  0.3313  0.1836  0.4664
60261SOL    HW187388   7.207  12.052   7.541 -0.7789  0.1217 -1.3513
60261SOL    HW287389   7.128  12.019   7.666  1.6031 -0.3691  0.0746
60262SOL     OW87390   9.826   4.821   2.620  0.7782  0.2598 -0.4408
60262SOL    HW187391   9.790   4.770   2.547  0.6321  0.4545 -0.5063
60262SOL    HW287392   9.765   4.805   2.692  1.9892 -1.5305  0.2454
60263SOL     OW87393   7.200   8.601   6.151 -0.0684 -0.3405  0.1857
60263SOL    HW187394   7.230   8.622   6.240  2.5309  0.9663 -0.8856
60263SOL    HW287395   7.164   8.513   6.159  0.7651 -0.5695  2.4001
60264SOL     OW87396   2.858  12.547   8.332  0.5137 -0.1386  0.1242
60264SOL    HW187397   2.784  12.486   8.328  0.0893  0.3178  0.9476
60264SOL    HW287398   2.890  12.540   8.422 -0.4303  1.8718  0.6678
60265SOL     OW87399   0.421   3.226   4.321  0.5747 -0.0330  0.7235
60265SOL    HW187400   0.409   3.303   4.266 -1.0032 -0.5144  0.3197
60265SOL    HW287401   0.342   3.224   4.377  0.7863 -1.1106  1.0143
60266SOL     OW87402   7.146   6.561  11.965 -0.4590  0.7017  0.4186
60266SOL    HW187403   7.158   6.536  11.873 -0.8632  1.3545  0.1831
60266SOL    HW287404   7.051   6.558  11.978 -0.2912 -2.0717  1.5882
60267SOL     OW87405   5.497   2.680   8.019  0.0341 -0.3076 -0.0242
60267SOL    HW187406   5.520   2.762   8.063  1.4067 -0.9956  0.6293
60267SOL    HW287407   5.402   2.677   8.022  0.0169  0.5585  1.2764
60268SOL     OW87408   1.022   4.429   8.623 -0.0661  0.2530 -0.2596
60268SOL    HW187409   1.024   4.524   8.616 -1.6239  0.2825 -0.5973
60268SOL    HW287410   0.938   4.409   8.664  0.4719 -0.9521  0.2879
60269SOL     OW87411   5.867  10.723   8.600 -0.1388  0.6102 -0.0343
60269SOL    HW187412   5.807  10.740   8.527  1.0202  1.9150 -0.7493
60269SOL    HW287413   5.914  10.806   8.612 -1.1054  0.8466  3.0309
60270SOL     OW87414   0.008   3.821  12.748 -0.2359 -0.3350 -0.3011
60270SOL    HW187415  -0.031   3.894  12.797 -3.0720 -1.9082 -0.0497
60270SOL    HW287416  -0.046   3.813  12.669  2.6062  0.4049 -2.5253
60271SOL     OW87417  10.093  11.298   2.677  0.1613  0.3278 -0.2440
60271SOL    HW187418  10.117  11.338   2.760  0.4368 -0.6355  0.1500
60271SOL    HW287419  10.138  11.214   2.676 -0.6277 -0.1089 -0.9280
60272SOL     OW87420   5.934   3.861   5.537 -0.1678  0.0914  0.6215
60272SOL    HW187421   5.980   3.866   5.454 -0.6755 -2.0586  0.1478
60272SOL    HW287422   5.998   3.888   5.603  0.6409  0.5080 -0.3233
60273SOL     OW87423   0.146  11.872   7.715  0.0968 -0.3328  0.0517
60273SOL    HW187424   0.116  11.945   7.661 -1.1677  1.5376  3.0421
60273SOL    HW287425   0.238  11.892   7.735 -0.6722  1.4545  2.1773
60274SOL     OW87426   3.969   6.529   0.541  0.1235 -0.1766  0.7211
60274SOL    HW187427   4.003   6.613   0.511 -0.4624 -0.1502  0.0997
60274SOL    HW287428   3.986   6.468   0.469 -1.3115 -0.1063  0.2872
60275SOL     OW87429  10.015   0.180   4.137  0.4320 -0.5646  0.3767
60275SOL    HW187430  10.066   0.100   4.126 -0.4243 -1.1012  0.2676
60275SOL    HW287431  10.079   0.251   4.124  0.6230 -1.1628 -2.7292
60276SOL     OW87432  12.057   1.000   7.740  0.0682  0.0740  0.1463
60276SOL    HW187433  12.025   0.951   7.816 -1.4154 -0.3577 -0.7098
60276SOL    HW287434  12.058   0.935   7.669 -1.2028  1.0686 -0.8316
60277SOL     OW87435   4.242   4.086   8.879  0.5491  0.5174 -0.0360
60277SOL    HW187436   4.327   4.044   8.869 -0.0505 -0.4917 -1.1565
60277SOL    HW287437   4.246   4.164   8.824  0.1853 -0.4713 -1.5298
60278SOL     OW87438   1.258   6.510  11.957 -0.3875  0.0258  0.1153
60278SOL    HW187439   1.170   6.530  11.989 -0.8221  0.2521 -1.1692
60278SOL    HW287440   1.278   6.581  11.896 -1.2147 -2.2967 -3.1377
60279SOL     OW87441  10.816   7.395   7.669  0.1371 -0.9134  0.1578
60279SOL    HW187442  10.909   7.407   7.687 -0.6758  1.0249  4.4279
60279SOL    HW287443  10.788   7.477   7.629 -0.1059 -0.3775  1.3603
60280SOL     OW87444   7.821   0.866  10.321  0.6371 -0.1426 -0.3000
60280SOL    HW187445   7.758   0.827  10.260  0.0755  0.9083 -0.4174
60280SOL    HW287446   7.782   0.853  10.407  0.7965 -0.4722 -0.2783
60281SOL     OW87447   1.708   4.505  11.182  0.2914 -0.2419  0.4580
60281SOL    HW187448   1.803   4.493  11.175  0.3559  0.5163 -0.1405
60281SOL    HW287449   1.681   4.536  11.096 -0.3645  0.3669  0.8680
60282SOL     OW87450  10.303  10.021  11.491  0.1400 -0.6009  0.8778
60282SOL    HW187451  10.309  10.114  11.467 -1.2328 -0.9846 -1.2171
60282SOL    HW287452  10.223  10.016  11.545  0.0894 -0.6140  0.8013
60283SOL     OW87453   9.772  11.027   1.784  0.0855 -0.3965 -0.3480
60283SOL    HW187454   9.752  11.010   1.876 -0.0606  0.5128 -0.2035
60283SOL    HW287455   9.794  10.941   1.748 -3.1518 -1.3778 -0.2990
60284SOL     OW87456   7.398   2.078   2.253 -0.3142  0.0711  0.2447
60284SOL    HW187457   7.414   2.100   2.345 -0.8058  0.4633  0.2388
60284SOL    HW287458   7.472   2.022   2.229  0.9772  1.6951  0.2761
60285SOL     OW87459   6.459   5.860  10.693 -0.3440 -0.2071 -0.3774
60285SOL    HW187460   6.492   5.814  10.616 -2.4079 -0.3437 -1.2367
60285SOL    HW287461   6.408   5.794  10.740  0.4465  0.0200  0.8528
60286SOL     OW87462   3.026   2.886   4.825 -0.4417  0.1114  0.0958
60286SOL    HW187463   2.944   2.837   4.822 -1.2158  1.3588 -0.0137
60286SOL    HW287464   2.999   2.976   4.840  0.7251  0.9603 -2.2800
60287SOL     OW87465   3.496  12.753   0.068 -0.0564  0.5003 -0.3317
60287SOL    HW187466   3.461  12.840   0.086 -0.2114  0.1003  1.4925
60287SOL    HW287467   3.492  12.708   0.152 -0.2124 -1.3675 -1.3055
60288SOL     OW87468   6.703   6.945   9.033 -0.8239  0.0056  0.4163
60288SOL    HW187469   6.649   6.887   8.980 -0.4351  0.7649 -0.8633
60288SOL    HW287470   6.777   6.892   9.061 -0.9291 -0.3499  0.0178
60289SOL     OW87471   2.554   6.192  12.576  0.7462 -0.0993 -0.2417
60289SOL    HW187472   2.535   6.281  12.605 -0.3014 -0.9208  1.8076
60289SOL    HW287473   2.474   6.164  12.530  1.6500  0.4985 -2.2770
60290SOL     OW87474   1.015   6.861  10.836 -0.2189 -0.8429  0.5003
60290SOL    HW187475   0.966   6.787  10.871 -1.3074 -0.5621 -0.3860
60290SOL    HW287476   0.949   6.923  10.807  0.6664  0.6494  1.5160
60291SOL     OW87477   0.732   9.746   4.440 -0.0805  0.0693 -0.7459
60291SOL    HW187478   0.696   9.818   4.390 -1.7873 -0.4385 -0.3027
60291SOL    HW287479   0.788   9.788   4.506 -1.4787  1.0524 -0.1377
60292SOL     OW87480  12.403   1.273   6.341 -0.3408  0.3487 -0.5665
60292SOL    HW187481  12.428   1.218   6.267 -1.5868  1.4710 -1.8624
60292SOL    HW287482  12.486   1.294   6.384  0.1780 -3.3596  0.6868
60293SOL     OW87483   7.070  11.926   8.818  0.0887 -0.0731  0.0900
60293SOL    HW187484   7.010  11.900   8.887 -0.3308  0.2114 -0.1602
60293SOL    HW287485   7.021  11.990   8.766  0.4024 -0.2668 -0.4582
60294SOL     OW87486   4.774   1.800   7.208  0.3752 -0.4518 -0.1768
60294SOL    HW187487   4.758   1.786   7.115  1.4336  1.0147 -0.6200
60294SOL    HW287488   4.780   1.712   7.245 -1.5507 -1.0426 -1.1943
60295SOL     OW87489  12.089   3.329   5.744 -0.7556 -0.4983 -0.5166
60295SOL    HW187490  12.120   3.381   5.670 -1.3621 -0.8526 -1.0244
60295SOL    HW287491  12.095   3.238   5.714 -0.6170 -0.6689  0.0173
60296SOL     OW87492  12.200   7.552  11.426  0.1887 -0.9230  0.4266
60296SOL    HW187493  12.224   7.604  11.503  0.1874 -0.7406  0.3043
60296SOL    HW287494  12.144   7.483  11.461 -2.6972  1.0921  0.2186
60297SOL     OW87495   3.267  10.533   5.309  0.2804 -0.0314  0.2911
60297SOL    HW187496   3.249  10.441   5.328 -1.8976  0.5966  1.5371
60297SOL    HW287497   3.235  10.546   5.220  0.4818 -0.4286  0.1559
60298SOL     OW87498   6.288  11.030   3.577 -0.1497 -0.4640  0.7594
60298SOL    HW187499   6.208  11.021   3.628  0.6203 -1.2573  1.8811
60298SOL    HW287500   6.275  11.109   3.524 -1.6462 -0.5713  0.9300
60299SOL     OW87501   1.588   7.140   0.281 -0.0517 -0.0867  0.2335
60299SOL    HW187502   1.621   7.088   0.354 -1.7458 -0.2894  0.9002
60299SOL    HW287503   1.595   7.230   0.311 -1.1134 -0.1922  0.8180
60300SOL     OW87504   7.547   8.886   1.013 -0.3735 -0.4049 -0.0127
60300SOL    HW187505   7.600   8.951   0.966 -0.1487 -0.2623  0.4303
60300SOL    HW287506   7.607   8.813   1.028  0.1180  0.2807  1.6494
60301SOL     OW87507   3.558   2.701  10.754  0.1809 -0.2265  1.1659
60301SOL    HW187508   3.552   2.752  10.835  2.8381 -1.0908  2.0274
60301SOL    HW287509   3.616   2.628  10.776  1.2589 -0.3262 -1.5953
60302SOL     OW87510   1.243  12.443   7.588 -0.0233 -0.5413 -0.5967
60302SOL    HW187511   1.193  12.381   7.535 -0.6515 -0.0955 -0.5373
60302SOL    HW287512   1.326  12.398   7.606  0.0034 -0.8869 -1.5460
60303SOL     OW87513   6.995   0.950   4.775 -0.5127 -0.0010 -0.1602
60303SOL    HW187514   6.927   1.017   4.763  1.3118  1.7737 -1.2087
60303SOL    HW287515   7.007   0.945   4.870 -2.3051 -0.6166  0.0760
60304SOL     OW87516   0.294   4.857   4.381 -0.1225 -0.4710 -0.3356
60304SOL    HW187517   0.361   4.915   4.345 -0.2288  0.8494  1.4750
60304SOL    HW287518   0.307   4.774   4.335  2.4724 -0.1279 -0.3678
60305SOL     OW87519   9.964   8.100   2.378  0.4631 -0.2796 -0.2494
60305SOL    HW187520  10.033   8.154   2.417  0.2786  0.0580 -0.3863
60305SOL    HW287521   9.898   8.092   2.447 -0.4671  1.3998 -0.8842
60306SOL     OW87522   3.121   5.069   1.574  0.0745  0.1002 -0.0421
60306SOL    HW187523   3.206   5.093   1.537 -0.4682  3.6590  0.6214
60306SOL    HW287524   3.103   4.982   1.540  3.0052  0.1101 -1.9272
60307SOL     OW87525   7.357   0.015  11.434 -0.0520  0.0440 -0.1658
60307SOL    HW187526   7.427  -0.012  11.494  0.1646 -0.3892 -0.6072
60307SOL    HW287527   7.307   0.079  11.484  0.8286  0.5868  0.0607
60308SOL     OW87528  12.114   8.450   7.652 -0.0627  0.8400  0.7106
60308SOL    HW187529  12.101   8.526   7.708  0.7198  0.8072  0.9575
60308SOL    HW287530  12.126   8.486   7.564  0.0842  0.9918  0.7921
60309SOL     OW87531   3.278  11.370   1.823  0.1289 -0.2722 -0.1355
60309SOL    HW187532   3.259  11.399   1.734 -0.6737  0.3969  0.2406
60309SOL    HW287533   3.200  11.322   1.849  0.2455 -0.2241  0.3005
60310SOL     OW87534  11.588  10.735   2.909 -0.2683 -0.3514  0.6303
60310SOL    HW187535  11.541  10.692   2.837  0.7799 -1.4913  0.6002
60310SOL    HW287536  11.523  10.792   2.949 -1.0894 -0.2601 -0.7473
60311SOL     OW87537   9.095   5.039  11.294  0.3065  0.3586 -0.3890
60311SOL    HW187538   9.043   5.114  11.265 -1.8278 -1.3568 -1.2606
60311SOL    HW287539   9.107   4.986  11.215 -0.1190 -1.2755  0.5912
60312SOL     OW87540   1.732  10.536   6.166 -1.0594  0.4341  0.1257
60312SOL    HW187541   1.655  10.580   6.131 -1.0723  0.1441 -0.2216
60312SOL    HW287542   1.764  10.594   6.235 -2.1633  0.0732  0.9616
60313SOL     OW87543   7.172   0.458   4.471  0.3269  0.3204 -0.3074
60313SOL    HW187544   7.221   0.419   4.399  2.1385  0.1549  0.9583
60313SOL    HW287545   7.092   0.491   4.430  0.2947 -1.6568 -2.0044
60314SOL     OW87546  11.856   0.641   1.273  0.1727 -0.3445 -0.1138
60314SOL    HW187547  11.820   0.682   1.352 -0.3938  1.6370 -1.3451
60314SOL    HW287548  11.870   0.713   1.212 -0.2534 -1.8990 -2.1761
60315SOL     OW87549   6.251   7.403   5.867 -0.8054 -0.1614  0.6327
60315SOL    HW187550   6.260   7.317   5.826 -0.8042  0.3876 -0.5535
60315SOL    HW287551   6.336   7.419   5.908 -1.0551 -1.0476  1.5464
60316SOL     OW87552  10.717  10.571   2.138 -0.3961  0.8424  0.3683
60316SOL    HW187553  10.808  10.548   2.122 -0.2400 -0.1352  2.2985
60316SOL    HW287554  10.718  10.664   2.162 -0.2854  1.5221 -2.0552
60317SOL     OW87555  12.559   0.841   7.507 -0.2303  0.4316  0.2247
60317SOL    HW187556  12.512   0.846   7.424 -1.0367 -0.2512  0.6241
60317SOL    HW287557  12.652   0.838   7.482 -0.4660  0.0431 -0.6627
60318SOL     OW87558   0.744  11.233   2.905  0.4845 -0.2838  0.0601
60318SOL    HW187559   0.653  11.239   2.933  0.9309  0.1151  1.5145
60318SOL    HW287560   0.753  11.300   2.837 -0.6149 -1.2493 -1.1119
60319SOL     OW87561   2.276  12.549   9.414  0.2899 -0.2836 -0.1201
60319SOL    HW187562   2.370  12.540   9.397  0.0641 -1.4356 -0.8363
60319SOL    HW287563   2.234  12.515   9.335 -0.7383 -0.1315  0.3514
60320SOL     OW87564   3.479   1.365  11.834  0.2881  0.2562  0.0823
60320SOL    HW187565   3.517   1.325  11.756  0.7738  0.2459  0.3190
60320SOL    HW287566   3.538   1.338  11.905 -0.4287 -0.1541  0.5288
60321SOL     OW87567   8.326   6.782   4.401  0.0547 -0.2040 -0.7461
60321SOL    HW187568   8.344   6.695   4.367 -0.9898 -0.1132 -1.5680
60321SOL    HW287569   8.335   6.840   4.326 -0.3490  0.2581 -0.4439
60322SOL     OW87570   0.863  10.063  10.600  0.0460 -0.9807 -0.2300
60322SOL    HW187571   0.908   9.978  10.601  2.3352  0.1353  1.8720
60322SOL    HW287572   0.801  10.058  10.672  1.3113 -0.3861  0.9451
60323SOL     OW87573   0.125   6.332   5.717  0.0006 -0.3372  0.8005
60323SOL    HW187574   0.085   6.393   5.654 -1.3192 -1.6365  0.3219
60323SOL    HW287575   0.219   6.349   5.710 -0.1783  0.1578 -0.8995
60324SOL     OW87576   8.133   5.019   0.176  0.2900  0.0833 -0.4607
60324SOL    HW187577   8.080   5.088   0.217  2.7121  2.7540 -1.5254
60324SOL    HW287578   8.193   4.991   0.245 -1.5298 -2.0718  0.3744
60325SOL     OW87579   7.672   0.612  10.504  0.0734  0.1198  0.0629
60325SOL    HW187580   7.612   0.641  10.435  0.7941  0.4200 -0.4485
60325SOL    HW287581   7.652   0.668  10.579 -2.1851 -1.5899  0.8393
60326SOL     OW87582   7.576   8.685   8.334  0.2763  0.2570 -0.6760
60326SOL    HW187583   7.668   8.704   8.317  0.9236 -2.9577 -1.4249
60326SOL    HW287584   7.537   8.673   8.248 -0.1995 -0.8661 -0.3326
60327SOL     OW87585   2.503   8.675  11.634  0.3303  0.6500 -0.2521
60327SOL    HW187586   2.584   8.715  11.602  0.1098  0.7654 -0.6721
60327SOL    HW287587   2.532   8.615  11.702  0.8473  0.1495 -0.8949
60328SOL     OW87588   7.896   9.418   1.842  0.0587 -0.3515  0.0524
60328SOL    HW187589   7.948   9.407   1.922 -1.4584 -2.0129  0.8864
60328SOL    HW287590   7.950   9.474   1.786  1.0268  1.1648  2.3479
60329SOL     OW87591   2.801   9.236  11.732  0.1316 -0.3165  0.1049
60329SOL    HW187592   2.730   9.298  11.750 -0.3834 -0.8690 -0.0070
60329SOL    HW287593   2.769   9.153  11.767  0.6848 -0.5903 -0.0379
60330SOL     OW87594   3.937   1.040  11.858 -0.2799 -0.0774  0.4587
60330SOL    HW187595   3.895   1.065  11.940 -0.7260  0.0515  0.1931
60330SOL    HW287596   4.025   1.076  11.864 -0.6152  0.7532  0.4760
60331SOL     OW87597  10.233  12.318   8.590 -0.0604  0.0724 -0.0257
60331SOL    HW187598  10.203  12.254   8.655 -0.3352  0.8370  0.6081
60331SOL    HW287599  10.292  12.268   8.534 -1.8087 -1.2652 -0.7831
60332SOL     OW87600  10.597  12.768   8.644  0.5488  0.1916 -0.7120
60332SOL    HW187601  10.576  12.818   8.565 -1.6392 -1.2005 -1.1135
60332SOL    HW287602  10.527  12.790   8.705  1.1647 -0.1993  0.1553
60333SOL     OW87603  12.427   8.824   5.590  0.4189  0.1813  0.4935
60333SOL    HW187604  12.457   8.766   5.660  0.5476  0.5611  0.7565
60333SOL    HW287605  12.350   8.780   5.553 -0.0099  0.2625  1.2695
60334SOL     OW87606  12.466  10.966   1.145  0.2590  0.0926  0.4647
60334SOL    HW187607  12.533  10.962   1.213  1.2644  0.5527 -0.4712
60334SOL    HW287608  12.383  10.957   1.192  0.9705 -0.4386  1.6459
60335SOL     OW87609  10.516   3.975   4.857 -0.4944 -0.1097 -0.6248
60335SOL    HW187610  10.445   4.037   4.845 -0.4599  0.6770  2.5470
60335SOL    HW287611  10.475   3.899   4.897  0.3043  0.0624  0.5609
60336SOL     OW87612   2.678   5.432   6.042 -0.1010 -0.5784 -0.3016
60336SOL    HW187613   2.690   5.515   6.088 -0.8010 -0.4782 -0.2889
60336SOL    HW287614   2.585   5.430   6.021  0.2986 -0.3726 -2.2010
60337SOL     OW87615  12.510  11.262   8.301  0.0245 -0.4984  0.4380
60337SOL    HW187616  12.425  11.224   8.277 -0.2038 -0.5757  1.3414
60337SOL    HW287617  12.516  11.248   8.395 -0.1111  1.8269  0.8329
60338SOL     OW87618   8.318   7.875   9.820  0.1350  0.0981  0.0458
60338SOL    HW187619   8.333   7.798   9.876  0.3894  1.3888  1.8367
60338SOL    HW287620   8.228   7.901   9.839  0.2993  0.6909  0.0332
60339SOL     OW87621  10.394   0.422   8.545 -0.5342 -0.0659 -0.3855
60339SOL    HW187622  10.306   0.390   8.525 -0.9065  0.2244  0.7032
60339SOL    HW287623  10.439   0.424   8.461 -1.9705  0.9832 -1.1775
60340SOL     OW87624   0.362   5.619   1.654 -0.0835 -0.3210  0.6234
60340SOL    HW187625   0.286   5.668   1.621 -0.3026 -1.7198 -1.1229
60340SOL    HW287626   0.427   5.686   1.676 -0.9413  0.8010 -0.1548
60341SOL     OW87627   5.373   6.931   2.337 -0.0454 -0.3657 -0.8620
60341SOL    HW187628   5.378   6.857   2.397  0.2645 -0.0511 -0.4955
60341SOL    HW287629   5.436   6.995   2.371  0.0513 -0.1342 -1.4522
60342SOL     OW87630   1.870   8.506   5.303 -0.0144  0.0510  0.5502
60342SOL    HW187631   1.824   8.484   5.222  1.0552 -0.1441 -0.0374
60342SOL    HW287632   1.963   8.505   5.278  0.2492  2.1654  1.2368
60343SOL     OW87633   0.235   0.216  10.537 -0.0452 -0.5094  0.0129
60343SOL    HW187634   0.299   0.270  10.583  0.2699  0.7811 -1.7963
60343SOL    HW287635   0.150   0.243  10.572  0.2848 -0.9528  1.1734
60344SOL     OW87636   6.460   0.406   7.147 -0.6691 -0.0790 -0.8266
60344SOL    HW187637   6.439   0.314   7.128 -0.7281  0.1167 -1.7659
60344SOL    HW287638   6.556   0.408   7.146 -0.6689 -0.0250 -1.4121
60345SOL     OW87639   2.890  10.554  10.600  0.3718  0.6907 -0.1586
60345SOL    HW187640   2.912  10.583  10.512  0.3713  1.7934  0.1927
60345SOL    HW287641   2.816  10.494  10.589  1.5158 -0.6059 -1.0605
60346SOL     OW87642   0.911  11.708  12.479 -0.5235 -0.0284 -0.0940
60346SOL    HW187643   0.919  11.622  12.519 -1.8892 -0.3592 -0.4797
60346SOL    HW287644   0.866  11.692  12.396  0.5698  0.8731 -0.8978
60347SOL     OW87645  10.197   8.169   0.677  0.1042  0.1966 -0.0408
60347SOL    HW187646  10.107   8.136   0.685 -0.5949  2.2687  1.5741
60347SOL    HW287647  10.245   8.097   0.636 -2.1457 -1.2009 -0.4289
60348SOL     OW87648   1.920   8.953   5.441 -0.3266  0.3570 -0.0254
60348SOL    HW187649   1.847   8.891   5.444 -0.4399  0.5306  0.9559
60348SOL    HW287650   1.991   8.905   5.397 -0.0253 -0.8898  1.7416
60349SOL     OW87651   0.185   1.041   3.292  0.1830  0.1195  0.1453
60349SOL    HW187652   0.189   1.137   3.291  0.0338  0.1184 -0.9196
60349SOL    HW287653   0.163   1.016   3.203  1.1844 -0.9580  0.1679
60350SOL     OW87654  11.096   7.857   8.476 -0.3695 -0.1608  0.5721
60350SOL    HW187655  11.187   7.887   8.478 -0.1676 -0.4416 -1.6344
60350SOL    HW287656  11.045   7.936   8.491  0.2345  0.2259  0.6399
60351SOL     OW87657   5.791   2.572   3.090 -0.2674  0.1433  0.1564
60351SOL    HW187658   5.881   2.605   3.092 -0.0715 -0.3730  2.4827
60351SOL    HW287659   5.799   2.482   3.059 -0.3485  0.8924 -2.2434
60352SOL     OW87660   2.374  10.866   3.261  1.1476  0.0656  0.4215
60352SOL    HW187661   2.347  10.931   3.326  0.0792  2.8930 -2.5581
60352SOL    HW287662   2.459  10.897   3.230  2.3253 -2.0410  1.3055
60353SOL     OW87663  10.021   0.578   0.259 -0.0929 -0.8497 -0.1855
60353SOL    HW187664  10.027   0.663   0.303 -0.7710 -0.1977 -1.3115
60353SOL    HW287665   9.937   0.543   0.286  0.0778 -1.0600  0.0813
60354SOL     OW87666   2.912  12.456   1.756 -0.1578  0.2496 -0.2129
60354SOL    HW187667   2.993  12.455   1.705 -2.0848 -3.2151 -3.8003
60354SOL    HW287668   2.853  12.512   1.706 -0.6672  0.9427  1.1163
60355SOL     OW87669  11.528  10.090   1.561 -0.1021  0.7227  0.2233
60355SOL    HW187670  11.461  10.120   1.499 -0.0493 -0.8145 -0.6260
60355SOL    HW287671  11.493  10.008   1.596  1.2064  0.0320 -0.0441
60356SOL     OW87672   5.530   1.904   9.722 -0.2953 -0.4582 -0.4346
60356SOL    HW187673   5.615   1.866   9.698  1.2159  2.8344 -0.8432
60356SOL    HW287674   5.484   1.916   9.639 -0.7884 -1.3741 -0.3036
60357SOL     OW87675   6.638  12.041   2.116  0.9532  0.2311  0.2315
60357SOL    HW187676   6.666  12.131   2.133 -0.2917  0.7375 -0.2599
60357SOL    HW287677   6.675  12.020   2.030  0.6731  0.5277  0.0372
60358SOL     OW87678   3.046   5.966  10.390 -0.0902 -0.6151  0.2018
60358SOL    HW187679   3.041   6.010  10.305 -0.7400 -1.9224 -0.4809
60358SOL    HW287680   3.068   5.875  10.368 -1.4831 -1.2612  1.3144
60359SOL     OW87681   7.479  11.991  11.091  0.2954 -0.0917 -0.3548
60359SOL    HW187682   7.521  12.047  11.026 -0.1657 -0.7260 -1.2034
60359SOL    HW287683   7.386  12.009  11.082  0.1992 -0.4848 -0.1463
60360SOL     OW87684   0.156   2.422   6.264 -0.1044  0.1195  0.0712
60360SOL    HW187685   0.226   2.416   6.328  0.8698  1.3983 -0.8374
60360SOL    HW287686   0.125   2.512   6.269 -1.5484 -0.3632  0.2963
60361SOL     OW87687  11.511   0.946  10.438 -0.1022 -0.2131  0.0017
60361SOL    HW187688  11.480   0.986  10.519 -1.1045 -0.8068 -0.0765
60361SOL    HW287689  11.604   0.930  10.453 -0.2842 -0.3321  1.0368
60362SOL     OW87690   7.466   7.210   7.754  0.4875  0.3376 -0.3059
60362SOL    HW187691   7.473   7.297   7.792  1.3745 -0.3518  1.2268
60362SOL    HW287692   7.425   7.224   7.668 -0.3840  2.1120  0.3504
60363SOL     OW87693   9.788  12.729   6.973  0.3479 -0.4144  0.4475
60363SOL    HW187694   9.725  12.799   6.992  0.5792 -0.4531  1.3970
60363SOL    HW287695   9.752  12.652   7.018  1.2360 -0.3511  1.2916
60364SOL     OW87696   5.023   6.156   0.729 -0.3572  0.1789 -0.8206
60364SOL    HW187697   5.018   6.250   0.747  0.0872 -0.0691  0.7409
60364SOL    HW287698   5.113   6.133   0.750 -0.9990 -0.9696  0.8915
60365SOL     OW87699   0.909   1.854   5.523 -0.6476  0.0831  0.0243
60365SOL    HW187700   0.984   1.837   5.466  0.2767 -1.1049  1.5047
60365SOL    HW287701   0.858   1.773   5.520 -0.5131 -0.0476  0.9640
60366SOL     OW87702  10.942   5.039  10.838  0.2253  0.4932  0.4874
60366SOL    HW187703  10.921   4.969  10.776 -1.2778  1.0416  0.3278
60366SOL    HW287704  11.030   5.018  10.869  0.7782 -0.1325 -1.3540
60367SOL     OW87705   4.883   2.320  11.849 -0.5900  0.5685  0.3560
60367SOL    HW187706   4.932   2.402  11.850 -1.1159  0.8770  1.5650
60367SOL    HW287707   4.847   2.315  11.760 -0.2681  1.4594  0.1655
60368SOL     OW87708   1.292   3.355   1.944  0.6088  0.0294 -0.1506
60368SOL    HW187709   1.343   3.414   1.889  0.3157  1.3675  0.9607
60368SOL    HW287710   1.311   3.268   1.910  0.7020  0.7765 -2.1456
60369SOL     OW87711   7.951   0.495   5.921 -0.3470 -0.1393 -0.4759
60369SOL    HW187712   7.996   0.454   5.994  2.0645  1.3840 -1.0019
60369SOL    HW287713   7.924   0.422   5.865 -0.4389 -1.2008  0.8935
60370SOL     OW87714   8.519  12.772   9.594 -0.5791 -0.2144 -0.2272
60370SOL    HW187715   8.424  12.760   9.586 -0.5462  0.0008 -0.9714
60370SOL    HW287716   8.547  12.701   9.651 -1.4231  0.6919  1.3907
60371SOL     OW87717  10.746   3.394   3.360 -0.3973  0.5158 -0.3253
60371SOL    HW187718  10.785   3.445   3.289 -1.2000  0.9637 -0.4505
60371SOL    HW287719  10.651   3.403   3.347 -0.5549 -0.8507 -0.2431
60372SOL     OW87720   8.882   8.576   5.803 -0.1764 -0.1747  0.1552
60372SOL    HW187721   8.951   8.510   5.798 -0.8730 -0.8350 -1.3043
60372SOL    HW287722   8.868   8.604   5.712 -2.6626 -0.9873  0.2055
60373SOL     OW87723  11.328  11.403   6.300  0.2331  0.1200  0.6354
60373SOL    HW187724  11.334  11.351   6.380  1.0726  0.6342  0.9139
60373SOL    HW287725  11.410  11.451   6.296  0.3422 -0.1329 -0.7039
60374SOL     OW87726   6.666   2.109   9.196 -0.1812 -0.4777 -0.5423
60374SOL    HW187727   6.602   2.108   9.125  0.5974 -1.8338 -1.2723
60374SOL    HW287728   6.621   2.154   9.268 -0.4088  2.4309 -2.3437
60375SOL     OW87729   2.700  10.961  11.118 -0.1772 -0.0916  0.2513
60375SOL    HW187730   2.638  10.946  11.046 -1.6278 -1.7151  1.7361
60375SOL    HW287731   2.674  10.897  11.185  2.4834 -0.0940  1.3739
60376SOL     OW87732  10.978   2.980   3.913  0.1990 -0.0903 -0.6860
60376SOL    HW187733  10.927   3.037   3.854  0.5031  0.2684 -0.6058
60376SOL    HW287734  11.006   2.907   3.857  0.9283  0.5107 -1.1256
60377SOL     OW87735   5.565   0.605   2.218  0.1325  0.5961 -0.4425
60377SOL    HW187736   5.568   0.694   2.183  2.1026  0.5153 -0.5643
60377SOL    HW287737   5.504   0.559   2.160  0.3646  1.4551 -1.4020
60378SOL     OW87738   9.055   9.728   4.628 -0.4267  0.1527 -0.1366
60378SOL    HW187739   9.020   9.671   4.559 -1.9423  1.4099 -0.4954
60378SOL    HW287740   9.025   9.816   4.602  0.5096  0.8907  1.1904
60379SOL     OW87741   3.480   4.319   3.263  0.1743  0.3294  0.0418
60379SOL    HW187742   3.506   4.351   3.350  0.1565  0.6392 -0.0646
60379SOL    HW287743   3.533   4.370   3.202 -0.4884  0.7876 -0.1666
60380SOL     OW87744  12.390   7.132  10.304  0.3480  0.0626 -0.1731
60380SOL    HW187745  12.474   7.174  10.321 -0.0395  0.7639  0.0500
60380SOL    HW287746  12.376   7.074  10.379 -0.0438  1.0518  0.5420
60381SOL     OW87747   6.262   4.154   4.312  0.2326  0.2130  0.1856
60381SOL    HW187748   6.281   4.243   4.284  1.2701 -0.2512 -0.6794
60381SOL    HW287749   6.180   4.131   4.268 -0.4972  1.0137  1.0910
60382SOL     OW87750   5.867   8.027  10.848 -0.1765 -0.2158  0.2488
60382SOL    HW187751   5.932   7.984  10.793 -0.0502 -1.7154  1.5198
60382SOL    HW287752   5.851   8.111  10.805  2.3087  0.0387 -0.2952
60383SOL     OW87753   3.988   1.172   6.303 -0.0068 -0.5239  0.0381
60383SOL    HW187754   3.923   1.173   6.232 -0.8455  1.2356  0.7717
60383SOL    HW287755   3.943   1.129   6.376  0.1379 -0.4842  0.1501
60384SOL     OW87756   8.243   6.137   8.490  0.3246 -1.1530  0.0551
60384SOL    HW187757   8.313   6.202   8.499  0.4593 -1.0378 -1.6121
60384SOL    HW287758   8.163   6.185   8.509  0.4603 -0.6050 -0.7273
60385SOL     OW87759  11.455   7.907  12.047 -0.2328  0.2843  0.3563
60385SOL    HW187760  11.486   7.817  12.035  0.2667  0.2539  1.6381
60385SOL    HW287761  11.459   7.946  11.960 -0.5607 -0.9593 -0.2476
60386SOL     OW87762   6.981   9.330   0.037  0.2459 -0.2051  0.0270
60386SOL    HW187763   6.952   9.244   0.070 -1.6527  0.3068 -0.2109
60386SOL    HW287764   6.916   9.354  -0.029  1.0875  1.1632 -0.3476
60387SOL     OW87765  10.696   6.868  11.123 -0.2408 -0.1622 -0.4310
60387SOL    HW187766  10.622   6.929  11.127  0.8814  1.2226  1.2106
60387SOL    HW287767  10.669   6.794  11.177 -0.3375  0.4764  0.4166
60388SOL     OW87768   3.702   1.354  11.452 -0.1147 -0.0190  0.5853
60388SOL    HW187769   3.752   1.341  11.532 -0.0409 -0.4163  0.4793
60388SOL    HW287770   3.669   1.267  11.430 -0.5480  0.1734  0.4514
60389SOL     OW87771   1.306   9.150   5.247 -0.0508 -0.0174  0.2531
60389SOL    HW187772   1.401   9.136   5.256  0.0095  0.8559  1.2135
60389SOL    HW287773   1.286   9.219   5.311 -1.4022 -0.4511  0.3337
60390SOL     OW87774  12.278   7.168   5.662  0.1470 -0.3347 -1.2104
60390SOL    HW187775  12.289   7.150   5.569  2.6790  0.7274 -1.2058
60390SOL    HW287776  12.186   7.194   5.671  0.0536  0.4200 -3.5871
60391SOL     OW87777   0.791  12.411   0.307  0.1596 -0.0441 -0.5860
60391SOL    HW187778   0.784  12.506   0.297 -0.1276  0.0456  0.3664
60391SOL    HW287779   0.882  12.392   0.285  0.8464  0.7642  1.2895
60392SOL     OW87780   6.905   9.440   3.232 -0.1000  0.6295 -0.1419
60392SOL    HW187781   6.829   9.392   3.265 -0.4291  1.5134  0.4064
60392SOL    HW287782   6.980   9.394   3.270 -0.3761  0.0571 -0.2770
60393SOL     OW87783   9.933   0.083   3.688  0.0840 -0.3483 -0.2677
60393SOL    HW187784   9.969   0.051   3.770 -2.1333  1.7682  1.6647
60393SOL    HW287785   9.958   0.176   3.686 -2.0351  0.2719 -0.6407
60394SOL     OW87786  11.477   8.885   0.412 -0.4864  0.0197 -0.2888
60394SOL    HW187787  11.452   8.960   0.359 -0.0821 -1.3598 -2.5499
60394SOL    HW287788  11.540   8.837   0.359  3.4684  0.7669  3.1585
60395SOL     OW87789   3.514   9.622   4.685  0.1488  0.3727 -0.4629
60395SOL    HW187790   3.528   9.542   4.634  2.6866  1.1349 -1.1130
60395SOL    HW287791   3.448   9.671   4.637 -1.8300 -1.4927  0.2124
60396SOL     OW87792   2.629   2.769   6.554  0.3496  0.0393 -0.0220
60396SOL    HW187793   2.714   2.725   6.553  0.5819  0.4878 -0.6583
60396SOL    HW287794   2.615   2.796   6.463 -0.2670  0.3597  0.1649
60397SOL     OW87795   4.607  11.820   3.552 -0.6973 -0.5994 -0.1738
60397SOL    HW187796   4.653  11.876   3.490 -0.4594 -1.6437 -0.9584
60397SOL    HW287797   4.514  11.833   3.533 -0.6141 -1.5524 -1.3586
60398SOL     OW87798   9.689   2.125  10.397 -0.1122 -0.2994 -0.3855
60398SOL    HW187799   9.715   2.116  10.489  0.6782 -0.9107 -0.6591
60398SOL    HW287800   9.771   2.131  10.349 -0.4837 -1.1184 -1.1615
60399SOL     OW87801   6.200   1.008   3.644 -0.2660 -0.4325 -0.2351
60399SOL    HW187802   6.147   0.937   3.608  0.6844 -1.4612  0.3322
60399SOL    HW287803   6.146   1.045   3.714 -0.1048 -1.7272  0.6064
60400SOL     OW87804   0.080  10.487   4.326  0.1077  0.1159 -0.6336
60400SOL    HW187805   0.138  10.455   4.257  1.4147  1.0737 -0.0112
60400SOL    HW287806   0.132  10.481   4.406 -2.0648 -3.1046  0.7856
60401SOL     OW87807   3.318   6.405   8.237  0.2190  0.3323 -0.4616
60401SOL    HW187808   3.256   6.407   8.309  0.2644 -1.4835 -0.3245
60401SOL    HW287809   3.344   6.496   8.225 -0.8272  0.8418  0.8962
60402SOL     OW87810   5.787   9.805  10.226  0.0346  0.1369  0.0886
60402SOL    HW187811   5.781   9.788  10.320 -2.7829  0.6870  0.0930
60402SOL    HW287812   5.879   9.786  10.204  0.6331 -0.5561  2.8061
60403SOL     OW87813   4.425   4.170   6.434 -0.7434  0.1468  0.5125
60403SOL    HW187814   4.344   4.219   6.445 -1.1069 -0.2787 -0.2403
60403SOL    HW287815   4.415   4.094   6.491 -1.1121 -0.1962 -0.0081
60404SOL     OW87816   1.851   0.709   0.371 -0.3604 -0.3786 -0.1196
60404SOL    HW187817   1.867   0.782   0.430 -1.4789  1.8762 -2.4192
60404SOL    HW287818   1.925   0.650   0.384  1.5004  2.0125  0.6328
60405SOL     OW87819   3.702   2.734   7.861  0.3242 -0.3687 -0.1202
60405SOL    HW187820   3.632   2.767   7.917  1.4342  1.0661  0.4852
60405SOL    HW287821   3.666   2.739   7.772 -0.1397  0.9687  0.1223
60406SOL     OW87822   2.407   7.520   2.549  0.3922  0.0881 -0.0591
60406SOL    HW187823   2.473   7.468   2.594  1.2117  1.1442  0.0123
60406SOL    HW287824   2.457   7.587   2.502 -0.6599  1.4169  0.6491
60407SOL     OW87825   2.270   7.150   8.926  0.8906 -0.4130  0.3261
60407SOL    HW187826   2.203   7.172   8.861  1.3741 -0.8970 -0.3408
60407SOL    HW287827   2.221   7.136   9.007  0.3605  1.0540  0.2892
60408SOL     OW87828  12.551   4.234  10.933  0.2654 -0.2266  0.9477
60408SOL    HW187829  12.552   4.325  10.963 -2.5205  0.8627 -1.6969
60408SOL    HW287830  12.490   4.191  10.992 -1.2504  0.6021  0.0389
60409SOL     OW87831  11.408  12.529   8.697 -0.6588 -0.6012 -0.0237
60409SOL    HW187832  11.389  12.618   8.726 -0.4150 -0.3547 -0.6032
60409SOL    HW287833  11.441  12.539   8.607  2.0274 -0.9862  0.8116
60410SOL     OW87834   3.807   1.314   8.195 -0.1527  0.1806  0.6523
60410SOL    HW187835   3.749   1.390   8.186  0.3850  0.4956 -0.1966
60410SOL    HW287836   3.891   1.350   8.222 -0.3988 -0.3062  2.2041
60411SOL     OW87837   5.487   6.080   3.367 -0.0664 -0.3511  0.3624
60411SOL    HW187838   5.393   6.070   3.355  0.2405 -2.0055 -1.1074
60411SOL    HW287839   5.501   6.174   3.369 -1.5518 -0.0245 -1.5090
60412SOL     OW87840   3.267   4.151   1.804 -0.2685 -0.0015 -0.8224
60412SOL    HW187841   3.350   4.161   1.851 -0.2688 -0.7466 -0.6629
60412SOL    HW287842   3.209   4.216   1.845 -0.2273 -0.5394  0.1254
60413SOL     OW87843   2.622   6.134   6.233 -0.4005 -0.2663  0.3455
60413SOL    HW187844   2.581   6.119   6.148  0.2178 -0.1556  0.0258
60413SOL    HW287845   2.685   6.204   6.217 -0.9002  0.3781  1.0895
60414SOL     OW87846   3.679  12.454   3.002 -0.1295  0.4064 -0.2104
60414SOL    HW187847   3.628  12.516   2.950 -1.1075  1.6729  2.1166
60414SOL    HW287848   3.721  12.507   3.069 -0.7328 -1.3299  1.6781
60415SOL     OW87849   5.010   2.411   7.706 -0.6590 -0.8113 -0.2223
60415SOL    HW187850   4.925   2.430   7.744 -1.2876  0.2753 -2.0197
60415SOL    HW287851   4.998   2.428   7.612  1.2293 -1.7346 -0.6779
60416SOL     OW87852   1.191   9.202   6.467 -0.1294  0.3277 -0.5700
60416SOL    HW187853   1.223   9.247   6.389 -0.7386 -1.2572 -1.7985
60416SOL    HW287854   1.232   9.248   6.540  1.9492  0.7157 -1.9026
60417SOL     OW87855   8.644   3.690  12.542 -0.1782  0.2032 -0.0387
60417SOL    HW187856   8.580   3.756  12.569  1.5380  2.1628 -0.5462
60417SOL    HW287857   8.710   3.739  12.493  1.0225 -1.9586 -0.7149
60418SOL     OW87858   3.393   7.839  11.517  0.2569 -0.2066  0.1719
60418SOL    HW187859   3.317   7.805  11.470  1.3485 -0.8567 -1.2152
60418SOL    HW287860   3.451   7.763  11.526  0.9818  0.3914  0.6857
60419SOL     OW87861  11.674   5.008   1.788 -0.0107 -0.1360  0.0810
60419SOL    HW187862  11.742   4.953   1.749  0.6016 -1.3050  2.5794
60419SOL    HW287863  11.594   4.983   1.741  1.1511  1.1634 -2.8192
60420SOL     OW87864  10.716   1.407  11.535  0.4632  0.2204 -0.4539
60420SOL    HW187865  10.712   1.461  11.614  1.2181 -0.8914  0.3742
60420SOL    HW287866  10.630   1.366  11.529  0.6108 -0.1773  0.1440
60421SOL     OW87867   5.214  11.444   2.727  0.3131 -0.1042  0.3233
60421SOL    HW187868   5.220  11.348   2.731 -0.6792 -0.1490  1.5433
60421SOL    HW287869   5.145  11.466   2.789 -0.8197  1.2905 -1.3406
60422SOL     OW87870   8.527   5.746   1.166 -0.4356  0.3528  0.1331
60422SOL    HW187871   8.615   5.758   1.201  0.1148 -1.5973 -0.4596
60422SOL    HW287872   8.477   5.707   1.237 -0.6197  0.7333  0.2171
60423SOL     OW87873   4.666   6.734   7.533 -0.0900 -0.3266 -0.6578
60423SOL    HW187874   4.761   6.721   7.537  0.1230  0.4840 -2.1219
60423SOL    HW287875   4.646   6.793   7.605  0.6675  0.1613 -0.8372
60424SOL     OW87876   7.883   9.739   0.240 -0.1895 -0.0019  0.1276
60424SOL    HW187877   7.979   9.743   0.236 -0.2170  3.5941 -2.7449
60424SOL    HW287878   7.863   9.739   0.333  2.6506  1.7692  0.8706
60425SOL     OW87879   0.284   7.241   3.969 -0.1304 -0.1692  0.1304
60425SOL    HW187880   0.280   7.323   4.019  0.9647 -0.5842  0.9381
60425SOL    HW287881   0.341   7.261   3.894  0.4313 -0.2660  0.5197
60426SOL     OW87882   7.750  12.689   9.792 -0.0836 -0.5379 -0.3751
60426SOL    HW187883   7.839  12.661   9.772  0.0530 -1.0970  0.8750
60426SOL    HW287884   7.697  12.610   9.780 -0.1911 -0.5567  0.2017
60427SOL     OW87885  11.386  12.662   7.125  0.1140  0.2078 -0.2687
60427SOL    HW187886  11.374  12.753   7.100  0.5482  0.1339 -0.7506
60427SOL    HW287887  11.375  12.613   7.044  0.6046 -0.1095 -0.1425
60428SOL     OW87888   0.731  11.500   6.848  0.5224 -0.5470  0.3080
60428SOL    HW187889   0.680  11.548   6.782  2.0398 -0.2449 -0.6962
60428SOL    HW287890   0.728  11.556   6.926  0.7214  0.2934 -0.2749
60429SOL     OW87891   7.968   9.454  10.109 -0.0712  0.6999 -0.2134
60429SOL    HW187892   7.951   9.432  10.017  1.2179  0.6847 -0.4591
60429SOL    HW287893   7.952   9.373  10.157 -1.9285  1.0000 -0.2385
60430SOL     OW87894   8.905   8.624   0.572  0.0715  0.3800  0.0750
60430SOL    HW187895   8.909   8.615   0.667 -0.1695  1.8678  0.2581
60430SOL    HW287896   8.969   8.561   0.539 -0.4254 -0.7355  1.1745
60431SOL     OW87897  10.797   2.293   7.368 -0.0081 -0.0065 -0.3094
60431SOL    HW187898  10.785   2.233   7.295 -0.8456  0.9680 -1.0025
60431SOL    HW287899  10.864   2.355   7.338  1.2653 -0.8718  0.6119
60432SOL     OW87900  11.590   6.994   4.252  0.6380 -0.2231  0.0225
60432SOL    HW187901  11.607   7.080   4.290 -0.6661  0.0735 -0.0102
60432SOL    HW287902  11.594   6.934   4.327  2.3438 -0.2633 -0.0830
60433SOL     OW87903  12.048   0.718   1.052  0.0656 -0.4631  0.0190
60433SOL    HW187904  12.054   0.647   1.115 -0.2416  0.2167  0.8379
60433SOL    HW287905  12.097   0.790   1.092  1.7939 -0.7231 -1.5466
60434SOL     OW87906   3.609   8.623   2.454 -0.2639 -0.6701  0.4339
60434SOL    HW187907   3.573   8.622   2.543  0.8540 -0.6243  0.8937
60434SOL    HW287908   3.591   8.535   2.421  0.1917 -1.0140  1.0756
60435SOL     OW87909   0.413  12.699  10.205  0.1249 -0.8322 -0.2404
60435SOL    HW187910   0.420  12.604  10.208  1.9429 -0.7425 -0.8559
60435SOL    HW287911   0.381  12.723  10.292 -0.7947 -2.0102 -0.2214
60436SOL     OW87912  10.862   6.407  12.779 -0.0798 -0.4246 -0.2397
60436SOL    HW187913  10.852   6.447  12.692 -0.5376  0.3612  0.1593
60436SOL    HW287914  10.822   6.320  12.770 -1.6620  0.2792 -0.3832
60437SOL     OW87915   5.355   3.667   9.289  0.2241  0.8139  0.1624
60437SOL    HW187916   5.355   3.701   9.378  1.3225 -0.5068  0.7045
60437SOL    HW287917   5.311   3.734   9.237 -1.4823  1.1088  1.8846
60438SOL     OW87918   6.612  11.362   6.649 -0.2330  0.5371 -1.1257
60438SOL    HW187919   6.695  11.404   6.626 -0.2694  1.0626 -0.3241
60438SOL    HW287920   6.634  11.269   6.654  1.1552  0.9134  2.3831
60439SOL     OW87921  12.059   3.043  10.403  0.1612  0.4167  0.3746
60439SOL    HW187922  11.971   3.074  10.383 -0.9046 -2.3060  0.3499
60439SOL    HW287923  12.108   3.057  10.322 -1.2070 -0.9645 -0.7738
60440SOL     OW87924   6.653  11.115   9.994  0.2748  0.0308 -0.0464
60440SOL    HW187925   6.575  11.166  10.016  0.1770 -0.1097 -0.0632
60440SOL    HW287926   6.620  11.043   9.940  0.5301  0.4264 -0.7306
60441SOL     OW87927   7.906   8.732   9.084  0.1457 -0.4971 -0.1817
60441SOL    HW187928   7.954   8.785   9.019 -2.0136 -1.1876 -2.5003
60441SOL    HW287929   7.875   8.656   9.035 -0.6856 -1.6434  1.9817
60442SOL     OW87930   5.086   6.235   3.532  0.1999 -0.0015  0.1166
60442SOL    HW187931   4.991   6.238   3.544  0.2268  0.0213  0.3233
60442SOL    HW287932   5.121   6.220   3.619  0.3659 -0.4895 -0.0297
60443SOL     OW87933   3.558  10.704   5.587  0.1404 -0.4421 -0.4677
60443SOL    HW187934   3.615  10.706   5.664 -0.4945 -1.3131  0.0520
60443SOL    HW287935   3.574  10.618   5.548 -0.5932 -0.5872 -0.4680
60444SOL     OW87936  12.473   3.032   5.192  0.1967 -0.6941 -0.0484
60444SOL    HW187937  12.401   2.990   5.240  0.0096  0.1365  0.4027
60444SOL    HW287938  12.498   3.107   5.245  1.5379 -1.0706 -0.1051
60445SOL     OW87939   2.522   6.511   4.497  0.6808 -0.4537 -0.8521
60445SOL    HW187940   2.607   6.492   4.537  0.9268  1.3586 -0.4190
60445SOL    HW287941   2.543   6.557   4.416  0.1304  0.8598 -0.2701
60446SOL     OW87942   7.608   4.018   4.575  0.1166  0.6170 -0.9544
60446SOL    HW187943   7.639   3.934   4.609 -0.7236  0.6978  0.0799
60446SOL    HW287944   7.561   3.996   4.495 -1.1237 -0.0649 -0.0637
60447SOL     OW87945   8.903   2.365  11.836 -0.1456 -0.2942  0.2088
60447SOL    HW187946   8.824   2.315  11.818 -0.2745  1.0402 -3.9158
60447SOL    HW287947   8.955   2.309  11.893 -0.5537 -4.9081 -3.4243
60448SOL     OW87948  11.468   8.996   9.187  0.3788 -0.1513 -0.0133
60448SOL    HW187949  11.519   8.997   9.106 -0.3539 -3.6172 -0.6603
60448SOL    HW287950  11.377   8.989   9.158  0.1798 -2.7980  0.9951
60449SOL     OW87951   5.124   1.568   3.153  0.2586 -0.3628 -0.3933
60449SOL    HW187952   5.067   1.623   3.099  0.4346  0.9604  0.7275
60449SOL    HW287953   5.129   1.485   3.105 -1.1356  0.1109 -1.4244
60450SOL     OW87954  12.690  11.328  10.401 -0.1998  0.5422 -0.1556
60450SOL    HW187955  12.644  11.272  10.338  0.5534  0.3632 -0.5464
60450SOL    HW287956  12.620  11.359  10.460 -0.9672  1.0132 -1.2853
60451SOL     OW87957   3.213   4.613  11.609 -0.4958  0.4430 -0.3342
60451SOL    HW187958   3.149   4.673  11.571 -0.4253  0.1100 -1.0086
60451SOL    HW287959   3.166   4.531  11.619 -1.1090  1.0388  2.2601
60452SOL     OW87960  10.382   0.395  12.173  0.1215  0.0592  0.0805
60452SOL    HW187961  10.409   0.487  12.182  2.6691 -0.5064 -0.8411
60452SOL    HW287962  10.315   0.384  12.240  0.3788  2.3677  0.8389
60453SOL     OW87963   5.693   6.679  10.640  0.0727 -0.4895  0.0058
60453SOL    HW187964   5.638   6.757  10.640  0.0991 -0.4635  0.6918
60453SOL    HW287965   5.640   6.613  10.594  0.1280 -0.0257 -0.7312
60454SOL     OW87966   4.524  11.900   2.877  0.1852 -0.2959 -0.1778
60454SOL    HW187967   4.520  11.986   2.834 -0.3970 -0.7202 -1.0295
60454SOL    HW287968   4.506  11.838   2.806  3.1303 -1.3304 -0.1488
60455SOL     OW87969   2.334   7.832   0.099  0.0223 -0.4197 -0.1338
60455SOL    HW187970   2.319   7.922   0.069 -1.1200 -0.8113 -0.7959
60455SOL    HW287971   2.368   7.787   0.022 -1.4115 -1.0489 -0.4191
60456SOL     OW87972   4.847  10.343  11.814 -0.6159  0.8502 -0.5800
60456SOL    HW187973   4.894  10.411  11.766 -0.8372 -0.1900 -2.3128
60456SOL    HW287974   4.888  10.261  11.787 -1.0998  0.1880  0.6206
60457SOL     OW87975   3.923   0.342  11.602  0.5254  0.9696 -0.2802
60457SOL    HW187976   3.973   0.386  11.534  1.7376  0.5892  0.3410
60457SOL    HW287977   3.924   0.249  11.577  1.2803  0.7797  0.4279
60458SOL     OW87978   2.283   4.448  12.659 -0.6337  0.6048 -0.1330
60458SOL    HW187979   2.262   4.393  12.584  0.4643 -0.0792  0.0413
60458SOL    HW287980   2.317   4.529  12.621  0.8573 -0.1178 -0.3919
60459SOL     OW87981   0.782   1.601   5.481  0.4665  0.1130  0.0327
60459SOL    HW187982   0.846   1.531   5.492 -0.4067 -1.1210 -2.1335
60459SOL    HW287983   0.759   1.598   5.389 -1.6866  1.4366  0.4600
60460SOL     OW87984   4.891   8.016   3.828 -0.1978 -0.0483  0.3042
60460SOL    HW187985   4.833   8.081   3.787  1.5017  0.8472 -0.7969
60460SOL    HW287986   4.834   7.941   3.846 -1.4764  0.3125 -1.8477
60461SOL     OW87987  11.893   3.212   2.944  0.1848  0.0310 -0.4095
60461SOL    HW187988  11.975   3.202   2.994 -0.2288 -0.0478  0.2669
60461SOL    HW287989  11.841   3.274   2.995 -0.3981 -0.3406 -0.5456
60462SOL     OW87990  12.781   4.557   5.179  0.0157 -0.0098  0.2930
60462SOL    HW187991  12.795   4.641   5.223  1.2021  0.0352 -0.1475
60462SOL    HW287992  12.825   4.493   5.235  2.3783  0.1665 -1.2334
60463SOL     OW87993   1.092   0.348   4.276  0.4957  0.1298  0.0387
60463SOL    HW187994   1.008   0.314   4.306  0.7887 -0.8531 -0.2137
60463SOL    HW287995   1.145   0.356   4.355  0.2340  0.5625  0.1729
60464SOL     OW87996   5.828   5.656   2.845  0.0242  0.0247 -0.0573
60464SOL    HW187997   5.876   5.577   2.822 -0.5329 -1.0756  2.2018
60464SOL    HW287998   5.895   5.717   2.875  0.2799 -0.4604  0.3832
60465SOL     OW87999   1.872   2.931   8.245  0.1467  0.0237 -0.3760
60465SOL    HW188000   1.820   2.941   8.165 -2.0813  1.1877  1.1081
60465SOL    HW288001   1.832   2.857   8.291 -0.3296  0.9779  0.8199
60466SOL     OW88002   4.081   0.749  10.497 -0.0728  0.0946  0.5249
60466SOL    HW188003   4.045   0.824  10.544 -3.1714 -1.3626  0.7657
60466SOL    HW288004   4.121   0.786  10.419 -1.4365  2.0262  0.6635
60467SOL     OW88005   8.948   7.976   8.808  0.0851  0.4963 -0.0933
60467SOL    HW188006   8.941   8.012   8.896  1.0726 -0.2934  0.3322
60467SOL    HW288007   8.946   7.881   8.821  0.2702  0.3728 -0.9196
60468SOL     OW88008   1.632   3.905   4.369 -0.4325 -0.3743 -0.5519
60468SOL    HW188009   1.657   3.938   4.282 -1.2707 -0.7439 -0.9476
60468SOL    HW288010   1.551   3.953   4.389 -0.0896 -0.0856  0.1566
60469SOL     OW88011  11.459   9.663   0.294 -0.6481  0.6343 -0.1092
60469SOL    HW188012  11.409   9.739   0.323 -0.7051  0.4325  0.3292
60469SOL    HW288013  11.527   9.699   0.238  1.3484  1.4084  2.5881
60470SOL     OW88014   3.812   4.547   9.659 -0.1112 -0.2428  0.5314
60470SOL    HW188015   3.744   4.604   9.622  0.2799 -0.5702 -0.7641
60470SOL    HW288016   3.815   4.570   9.751 -1.0472  0.7313  0.3430
60471SOL     OW88017   0.083  12.544   1.498  0.4309 -0.3376 -0.2365
60471SOL    HW188018   0.029  12.499   1.562 -0.6899 -0.2476 -1.0797
60471SOL    HW288019   0.173  12.533   1.529 -0.0155 -1.1112  0.8165
60472SOL     OW88020   6.675   9.887   3.820  0.6415 -0.2418  0.4068
60472SOL    HW188021   6.633   9.803   3.838  0.3012 -0.7561 -2.3829
60472SOL    HW288022   6.610   9.952   3.847 -1.0205 -0.9935 -1.5745
60473SOL     OW88023   2.069   4.316   2.762  0.6769 -0.2088 -0.1642
60473SOL    HW188024   2.130   4.386   2.786 -1.0376  1.8507 -1.4322
60473SOL    HW288025   1.987   4.361   2.743 -0.9600 -2.7659  0.4123
60474SOL     OW88026  12.279   1.739   7.461  0.1735  0.3367 -0.5615
60474SOL    HW188027  12.219   1.795   7.510  0.5789  0.4678 -0.2082
60474SOL    HW288028  12.348   1.717   7.523  0.2959 -0.1232 -0.8533
60475SOL     OW88029  10.318  11.816   6.304  0.0453  0.7985  0.1414
60475SOL    HW188030  10.343  11.905   6.276 -1.2656  1.2332  0.3114
60475SOL    HW288031  10.249  11.791   6.243 -0.4962  0.4119  0.9050
60476SOL     OW88032   5.781   2.802   8.685  0.4722 -0.0188  0.1264
60476SOL    HW188033   5.830   2.851   8.619  0.6314  0.8090  0.8489
60476SOL    HW288034   5.845   2.781   8.753 -0.1154  0.9732  1.0221
60477SOL     OW88035   0.443   1.872   8.902 -0.0325 -0.2674  0.1545
60477SOL    HW188036   0.490   1.910   8.976  0.1503  1.1072 -0.6368
60477SOL    HW288037   0.441   1.941   8.836 -1.0632 -1.1213 -0.7571
60478SOL     OW88038  10.778  12.181   0.637 -0.0422  0.2952 -0.0722
60478SOL    HW188039  10.822  12.266   0.644 -1.7614  1.1141  1.6194
60478SOL    HW288040  10.702  12.189   0.695  0.2485 -2.7209  0.8665
60479SOL     OW88041   5.014   7.183   6.244  0.1922  0.3868 -0.1921
60479SOL    HW188042   4.996   7.227   6.327 -0.6001  1.1754 -0.7482
60479SOL    HW288043   4.983   7.093   6.257 -0.7879  0.7445  0.0908
60480SOL     OW88044  11.149  12.334   7.276 -0.2851 -0.4146 -0.4148
60480SOL    HW188045  11.181  12.420   7.302 -0.7017 -0.4937  0.3837
60480SOL    HW288046  11.057  12.348   7.254  0.2723 -0.1390 -2.9414
60481SOL     OW88047  10.484   1.334   2.418 -0.2209 -0.1682  0.1386
60481SOL    HW188048  10.476   1.406   2.479 -1.3517 -0.7854  0.7425
60481SOL    HW288049  10.462   1.256   2.469  1.6342 -1.0577 -0.3062
60482SOL     OW88050   3.620   5.884  10.600  0.2951 -0.1652 -0.3144
60482SOL    HW188051   3.668   5.819  10.651  2.4012 -0.4488 -2.4362
60482SOL    HW288052   3.656   5.968  10.628 -0.0457 -0.1502  0.0915
60483SOL     OW88053   8.834   0.080   0.006  0.2072  0.1137  0.2568
60483SOL    HW188054   8.924   0.071   0.038  1.0108  0.1509 -1.7821
60483SOL    HW288055   8.812  -0.006  -0.029 -0.6597  0.0443  0.9455
60484SOL     OW88056   8.966   8.686   8.756  0.4012 -0.0955  0.6315
60484SOL    HW188057   9.030   8.636   8.806  0.7283  1.6066  2.0008
60484SOL    HW288058   8.889   8.689   8.812  0.3457  0.7937  0.5211
60485SOL     OW88059   5.767   7.371   3.999  0.1031 -0.5872 -0.6441
60485SOL    HW188060   5.737   7.446   3.949  1.3209  0.0201 -0.4961
60485SOL    HW288061   5.762   7.399   4.091  1.5061 -0.2815 -0.6277
60486SOL     OW88062  11.087   1.231   6.878 -0.7110  0.1412 -0.6551
60486SOL    HW188063  10.996   1.221   6.849 -1.1102 -1.3998  0.9453
60486SOL    HW288064  11.103   1.154   6.933  0.4950  2.0302  1.8414
60487SOL     OW88065   9.563   5.647   1.068 -0.1386 -0.0571 -0.2981
60487SOL    HW188066   9.559   5.556   1.098  1.1430 -0.0673 -0.1142
60487SOL    HW288067   9.632   5.687   1.121  0.0812  0.7263 -1.1482
60488SOL     OW88068   0.462   6.408   5.188 -0.1511  0.2977 -0.5154
60488SOL    HW188069   0.510   6.368   5.260  1.1130  0.0572 -1.4437
60488SOL    HW288070   0.476   6.502   5.199  0.0613  0.2602 -0.4669
60489SOL     OW88071   2.170   9.513   3.189 -0.3641 -0.0423  0.3120
60489SOL    HW188072   2.141   9.507   3.280 -0.8342 -0.7272  0.1280
60489SOL    HW288073   2.135   9.596   3.158 -1.3820 -0.4296  0.3697
60490SOL     OW88074   0.476   1.417   7.554 -0.2936 -0.1515 -0.8007
60490SOL    HW188075   0.543   1.450   7.495  0.9324 -1.6662 -0.3396
60490SOL    HW288076   0.511   1.333   7.585 -1.9835 -0.5381  0.1954
60491SOL     OW88077   5.883  10.013   8.160  0.4084  0.1532  0.2171
60491SOL    HW188078   5.881  10.079   8.229  1.7239 -0.1254  0.5587
60491SOL    HW288079   5.926   9.938   8.200 -0.5422 -0.6994 -0.3435
60492SOL     OW88080   7.920  12.442   4.728 -0.1100 -0.0082  0.1642
60492SOL    HW188081   7.936  12.478   4.816 -0.0070  1.8438 -0.5705
60492SOL    HW288082   7.849  12.494   4.693  0.1054 -0.4682 -1.0041
60493SOL     OW88083   4.733   7.745  10.158 -0.0896 -0.2780  0.0079
60493SOL    HW188084   4.768   7.666  10.118 -2.1335 -1.0989 -0.3135
60493SOL    HW288085   4.692   7.715  10.239  0.0647  0.6356  0.4327
60494SOL     OW88086   9.703   1.861   8.827  0.5565 -0.1431  0.0668
60494SOL    HW188087   9.724   1.799   8.757  2.8356  0.7337 -0.1148
60494SOL    HW288088   9.673   1.806   8.900  0.4016 -1.2517 -0.8114
60495SOL     OW88089   6.113  10.431   0.755  0.1713  0.1570 -0.4257
60495SOL    HW188090   6.038  10.451   0.811 -0.1563 -0.5157 -0.6185
60495SOL    HW288091   6.077  10.375   0.686  1.2374 -1.9098  0.6416
60496SOL     OW88092   1.627  12.525   8.905 -1.0088 -0.0483  0.0855
60496SOL    HW188093   1.585  12.611   8.902 -2.6381 -0.8141  0.1984
60496SOL    HW288094   1.668  12.521   8.992 -0.7857  0.6559  0.0212
60497SOL     OW88095  11.994   7.900   1.789  0.2587 -0.0621 -0.0252
60497SOL    HW188096  11.902   7.928   1.785 -0.2971 -1.8966 -1.6336
60497SOL    HW288097  11.994   7.825   1.848  0.3266 -1.2491 -1.4722
60498SOL     OW88098   2.924   7.856   4.726  0.5431 -0.0122 -0.2286
60498SOL    HW188099   2.930   7.833   4.634  3.6473 -0.3494 -0.0487
60498SOL    HW288100   2.854   7.921   4.730 -1.9604 -2.3550 -2.2234
60499SOL     OW88101   1.395   7.451   5.468 -0.1214  0.0081  0.4785
60499SOL    HW188102   1.487   7.460   5.442 -0.5763 -0.8538 -1.6462
60499SOL    HW288103   1.350   7.518   5.417 -0.6787  0.5893  1.6952
60500SOL     OW88104  12.546   3.525   6.524 -0.3907  0.0613 -0.0726
60500SOL    HW188105  12.551   3.439   6.566 -0.3505  0.4652  0.7550
60500SOL    HW288106  12.561   3.588   6.594  1.4486  0.7201 -0.9803
60501SOL     OW88107  12.230   4.648   6.736  0.1796  0.4584 -0.1775
60501SOL    HW188108  12.164   4.713   6.714 -2.1325 -1.9016 -0.7133
60501SOL    HW288109  12.187   4.591   6.799  1.8091 -1.0103 -0.3234
60502SOL     OW88110   5.940   8.294   9.220 -0.3026  0.1607  0.0426
60502SOL    HW188111   5.962   8.384   9.245 -0.3674  0.4537 -0.9208
60502SOL    HW288112   6.015   8.264   9.169 -0.2381 -0.3815  0.4387
60503SOL     OW88113  11.851   2.651   9.964 -0.1112  0.0462  0.5469
60503SOL    HW188114  11.831   2.623   9.875  0.5163 -0.2439  0.4872
60503SOL    HW288115  11.807   2.587  10.020  0.1335 -0.2284  0.4303
60504SOL     OW88116  12.043  12.652   4.687 -0.3166  0.0203 -0.2792
60504SOL    HW188117  12.101  12.722   4.717  0.0974  0.2948 -1.6510
60504SOL    HW288118  11.955  12.682   4.711  0.0641 -0.4667  1.9420
60505SOL     OW88119   3.854   6.916  12.352  0.2427 -0.2488  0.0788
60505SOL    HW188120   3.881   6.851  12.417  0.4192  0.2889  0.5444
60505SOL    HW288121   3.936   6.949  12.316  0.2053  0.7401  0.8599
60506SOL     OW88122   7.591   1.571   0.356  0.1357 -0.1315  0.1405
60506SOL    HW188123   7.576   1.486   0.313  1.3636 -0.5539  0.5117
60506SOL    HW288124   7.603   1.549   0.448  0.1217  0.4927  0.2941
60507SOL     OW88125   2.088   7.576   1.685 -0.0500  0.2928 -0.4105
60507SOL    HW188126   2.069   7.613   1.772 -3.2796 -4.2292  1.1947
60507SOL    HW288127   2.171   7.530   1.697 -0.3819 -0.1489  0.2728
60508SOL     OW88128  12.211  11.477   6.130 -0.4026  0.6113 -0.0742
60508SOL    HW188129  12.201  11.524   6.213  0.0250  1.3845 -0.4503
60508SOL    HW288130  12.216  11.545   6.063 -1.5146 -0.0290 -0.8392
60509SOL     OW88131  11.686   1.566  10.809 -0.2716  0.0231 -0.2343
60509SOL    HW188132  11.639   1.518  10.877 -0.6418 -2.0927 -1.8854
60509SOL    HW288133  11.764   1.600  10.853 -0.0970 -1.9511  1.1046
60510SOL     OW88134   4.993   7.578   4.595 -0.4685  0.0996  0.2092
60510SOL    HW188135   4.971   7.665   4.626  0.3253  0.0700  0.9039
60510SOL    HW288136   5.008   7.527   4.675  2.8112  0.3323 -0.1238
60511SOL     OW88137   2.178   8.126   9.286 -0.1753 -0.4378  0.0354
60511SOL    HW188138   2.272   8.123   9.304  0.3054  1.9017 -1.5935
60511SOL    HW288139   2.172   8.126   9.190 -1.8991 -1.2476  0.1085
60512SOL     OW88140   7.285   7.000   1.312  0.3397  0.1998  0.3802
60512SOL    HW188141   7.244   6.964   1.234 -0.3694  1.0077  0.3628
60512SOL    HW288142   7.252   7.090   1.317  0.1782  0.0868  1.7399
60513SOL     OW88143  12.500   0.415  11.529  0.5504  0.1930  0.3650
60513SOL    HW188144  12.555   0.444  11.602 -1.5450 -1.5329  2.8362
60513SOL    HW288145  12.433   0.483  11.521  2.0444  1.5237 -1.6010
60514SOL     OW88146   6.303   8.715   0.549 -0.2097  0.0200  0.0663
60514SOL    HW188147   6.215   8.702   0.585 -0.4254  0.2832 -0.3619
60514SOL    HW288148   6.338   8.626   0.541 -0.4779 -0.0952  0.1335
60515SOL     OW88149  10.846  12.578   4.179 -0.2890 -0.5994  0.8183
60515SOL    HW188150  10.755  12.572   4.208 -0.5718  0.5729  0.2122
60515SOL    HW288151  10.865  12.672   4.178  0.8432 -0.8183  0.6799
60516SOL     OW88152   1.547  11.750  12.369  0.0121 -0.0241 -0.2405
60516SOL    HW188153   1.638  11.762  12.343 -0.4957  2.1421 -1.2749
60516SOL    HW288154   1.544  11.777  12.461  0.3619  0.2548 -0.3101
60517SOL     OW88155   7.235   5.789  10.326  0.2757  0.0181 -0.2717
60517SOL    HW188156   7.144   5.761  10.317  1.0045 -2.9873  0.6382
60517SOL    HW288157   7.277   5.761  10.244  0.7569 -0.3592  0.0994
60518SOL     OW88158  12.543   5.564   1.640  0.3551  0.5290  0.3790
60518SOL    HW188159  12.485   5.623   1.689  0.0829 -1.1987  2.2732
60518SOL    HW288160  12.603   5.530   1.706  1.1695 -0.5103 -0.8701
60519SOL     OW88161   2.320   8.269   8.194  0.1064 -0.1313 -0.2492
60519SOL    HW188162   2.323   8.184   8.150  0.1334 -1.4113  2.0428
60519SOL    HW288163   2.287   8.330   8.128 -0.8446 -2.1015 -1.6829
60520SOL     OW88164   3.360   4.122   3.011  0.0275  0.0779  0.4953
60520SOL    HW188165   3.330   4.212   3.025 -0.4977 -0.1191  0.6344
60520SOL    HW288166   3.341   4.104   2.919 -0.0560  0.0390  0.5198
60521SOL     OW88167  10.079   5.620   2.072  0.3250  0.1652 -0.4050
60521SOL    HW188168  10.122   5.676   2.137 -1.6671  0.8683  0.3763
60521SOL    HW288169  10.033   5.681   2.014 -2.0384 -0.5852  0.5669
60522SOL     OW88170   0.613   5.415   9.857 -0.4087 -0.0421  0.1041
60522SOL    HW188171   0.609   5.503   9.819 -2.5067 -1.0381 -2.2482
60522SOL    HW288172   0.698   5.413   9.902  1.1510  2.1894 -2.3858
60523SOL     OW88173   4.118   1.351   3.890  0.5569  0.1495 -0.0391
60523SOL    HW188174   4.139   1.432   3.844  0.8593 -0.4913 -1.0911
60523SOL    HW288175   4.128   1.283   3.823  0.7634 -0.8023  0.9327
60524SOL     OW88176   1.303   4.437   0.624 -0.2324 -0.0655 -0.2510
60524SOL    HW188177   1.219   4.444   0.577  0.7238 -1.3214 -2.2940
60524SOL    HW288178   1.361   4.498   0.577  0.6658 -1.1046 -0.5246
60525SOL     OW88179   2.470   2.070   3.220  0.0020  0.2589 -0.3290
60525SOL    HW188180   2.455   2.015   3.143 -1.7703  0.7928 -0.4154
60525SOL    HW288181   2.383   2.085   3.256  0.7497  0.4467  1.5122
60526SOL     OW88182   1.306   5.295   7.986  0.2232  0.2882  0.1667
60526SOL    HW188183   1.386   5.260   7.946 -0.3247 -0.6822 -0.0790
60526SOL    HW288184   1.241   5.293   7.917 -0.4779 -0.5187  0.8403
60527SOL     OW88185   1.039   0.083   9.947 -0.2153  0.0159 -0.1207
60527SOL    HW188186   0.946   0.075   9.965 -0.0816  0.5595  0.9132
60527SOL    HW288187   1.051   0.042   9.861 -1.4323  0.1313 -0.3621
60528SOL     OW88188   3.071   9.506  10.615  0.1653  0.0782 -0.3010
60528SOL    HW188189   3.020   9.443  10.666  1.4940 -0.2038  0.7200
60528SOL    HW288190   3.123   9.453  10.556  1.2335  0.1947  0.5092
60529SOL     OW88191   3.548  10.934  12.496  0.0073 -0.0975 -0.6726
60529SOL    HW188192   3.508  10.927  12.410 -1.0382 -0.5954 -0.1643
60529SOL    HW288193   3.524  10.853  12.541  0.6386  0.1025  0.0481
60530SOL     OW88194   2.836   1.308  10.647  0.2665 -0.0914  0.3578
60530SOL    HW188195   2.822   1.230  10.700  0.3683 -0.3342  0.0375
60530SOL    HW288196   2.861   1.376  10.709 -0.5437 -0.1195  0.7228
60531SOL     OW88197   0.068   0.336   6.644  0.2537 -0.7323 -0.5587
60531SOL    HW188198   0.139   0.388   6.606 -0.4041  0.7065  0.0912
60531SOL    HW288199   0.090   0.330   6.737 -1.0822  0.8515 -0.0946
60532SOL     OW88200   7.474   7.159   6.873 -0.1904  0.1697 -0.7863
60532SOL    HW188201   7.429   7.195   6.950 -0.5368 -1.0647 -0.3805
60532SOL    HW288202   7.482   7.233   6.813 -0.4846  1.0094  0.1816
60533SOL     OW88203  11.002   1.404  10.226 -0.5565  0.0053 -0.6262
60533SOL    HW188204  10.946   1.420  10.302 -0.7956 -0.1966 -0.7581
60533SOL    HW288205  11.088   1.387  10.263 -0.4917  0.6960 -0.4373
60534SOL     OW88206  11.628   0.120   3.510 -0.0238 -0.1019 -0.0993
60534SOL    HW188207  11.674   0.204   3.513 -1.9363  1.0161  0.1367
60534SOL    HW288208  11.589   0.112   3.597 -1.9560  0.0760 -0.8909
60535SOL     OW88209   4.058   0.248  12.048 -0.3633  0.6504  0.3979
60535SOL    HW188210   4.083   0.307  11.977 -0.2561  1.2380  0.9185
60535SOL    HW288211   4.042   0.164  12.005 -0.4599  1.0431 -0.3401
60536SOL     OW88212  12.241  11.355   8.845 -0.0408 -0.2364  0.2521
60536SOL    HW188213  12.225  11.442   8.881 -1.1295 -0.5385  0.5124
60536SOL    HW288214  12.269  11.372   8.754 -1.2671  0.3409 -0.0381
60537SOL     OW88215   8.488  10.848   3.662 -0.7784  0.2418 -0.8222
60537SOL    HW188216   8.499  10.753   3.661  1.1003  0.3939  0.4103
60537SOL    HW288217   8.399  10.861   3.692 -0.5346 -1.1361  0.6224
60538SOL     OW88218   9.117   4.273  11.379 -0.2537  0.4064  0.5505
60538SOL    HW188219   9.157   4.360  11.376 -2.3701  1.4373  0.5424
60538SOL    HW288220   9.075   4.269  11.465 -0.0458 -0.6710  0.6106
60539SOL     OW88221  11.909   4.940   4.582  0.1360 -0.6172  0.2564
60539SOL    HW188222  11.852   4.866   4.607 -0.3147 -0.0890  0.8377
60539SOL    HW288223  11.985   4.899   4.542  0.2065 -1.4453  1.1818
60540SOL     OW88224  11.263  12.404   5.704 -0.1933 -0.3428  0.7504
60540SOL    HW188225  11.171  12.377   5.699 -0.5783  0.9804  0.4605
60540SOL    HW288226  11.267  12.484   5.653  0.7036  0.7000  2.3919
60541SOL     OW88227   9.442   0.521   8.461  0.7118 -0.6495  0.0785
60541SOL    HW188228   9.440   0.547   8.553  1.5138 -0.8521  0.1579
60541SOL    HW288229   9.467   0.429   8.463  0.7685 -0.6456 -0.3478
60542SOL     OW88230   5.866   1.811   5.331  0.3706  0.2510 -0.3088
60542SOL    HW188231   5.901   1.801   5.242  0.0638 -3.6986 -0.1560
60542SOL    HW288232   5.944   1.811   5.387  0.4759 -0.4611 -0.4384
60543SOL     OW88233   9.385   8.638   3.624 -0.5583  0.5092 -0.4924
60543SOL    HW188234   9.445   8.702   3.662 -1.6711  1.5271 -0.3924
60543SOL    HW288235   9.442   8.578   3.576  0.5670  1.2764 -0.1646
60544SOL     OW88236   7.259   2.415   0.183 -0.2053 -0.6042 -0.3299
60544SOL    HW188237   7.249   2.333   0.232  0.8987 -0.2318  0.5612
60544SOL    HW288238   7.303   2.474   0.244  1.1037 -0.0791 -1.7274
60545SOL     OW88239   2.625   2.134   9.348  0.1380 -0.7983 -0.1552
60545SOL    HW188240   2.683   2.196   9.305  1.1111 -0.5641  1.3965
60545SOL    HW288241   2.559   2.188   9.391 -0.3182 -0.9777 -0.6212
60546SOL     OW88242  10.473  12.583   6.827  1.3008  0.2201  0.6839
60546SOL    HW188243  10.391  12.634   6.832  1.1399  0.0354 -0.0391
60546SOL    HW288244  10.444  12.493   6.817  1.5737  0.3039 -1.1892
60547SOL     OW88245   9.865  10.146   7.049 -0.0691 -0.4279 -0.5181
60547SOL    HW188246   9.882  10.234   7.014  2.3773 -0.3310  0.6768
60547SOL    HW288247   9.878  10.088   6.974  1.6157  0.0403 -0.6382
60548SOL     OW88248   9.382   3.305   6.527  0.1130  0.2583 -0.3254
60548SOL    HW188249   9.440   3.243   6.572 -1.5709 -0.2195  1.3220
60548SOL    HW288250   9.417   3.391   6.548  1.5041 -0.0386 -1.2515
60549SOL     OW88251   9.716   3.661   2.268  0.5540  0.3392  0.2832
60549SOL    HW188252   9.756   3.579   2.238 -0.2174  0.3199 -0.7409
60549SOL    HW288253   9.654   3.684   2.200  0.4172  1.5456  0.7841
60550SOL     OW88254   0.470  12.756   8.803  0.2317  0.2070  0.2012
60550SOL    HW188255   0.561  12.734   8.782 -0.1805 -1.4327 -0.0070
60550SOL    HW288256   0.472  12.780   8.896  0.6689 -1.2069  0.5784
60551SOL     OW88257   6.815   7.925  12.430  0.2155  1.0775 -0.2736
60551SOL    HW188258   6.889   7.943  12.372  1.3266  0.9993  1.0600
60551SOL    HW288259   6.783   7.839  12.403  0.6318  1.0931 -0.8290
60552SOL     OW88260   0.494   7.313   1.158  0.3381 -0.0352 -1.5602
60552SOL    HW188261   0.419   7.360   1.123 -1.3453 -1.8290 -0.5532
60552SOL    HW288262   0.558   7.381   1.179 -1.6387  1.7092 -0.9553
60553SOL     OW88263  12.603   9.676  10.542 -0.1571 -0.7100 -0.1970
60553SOL    HW188264  12.684   9.697  10.589 -0.4346  0.4147 -0.1846
60553SOL    HW288265  12.543   9.646  10.611 -0.3578  0.3264  0.1059
60554SOL     OW88266  10.989   9.771  10.418  0.3773 -0.3816 -0.3173
60554SOL    HW188267  11.025   9.716  10.487  0.7819  1.8363  1.3236
60554SOL    HW288268  10.894   9.758  10.425  0.4598 -0.8531  0.0291
60555SOL     OW88269   9.460  12.373  11.745  0.2085 -0.4502 -0.2136
60555SOL    HW188270   9.523  12.404  11.811 -1.0404 -1.3763  1.4778
60555SOL    HW288271   9.495  12.406  11.662  1.7488  0.9102  0.9050
60556SOL     OW88272   6.551  10.561   0.194 -0.2555 -0.0629  0.4682
60556SOL    HW188273   6.606  10.639   0.186 -1.0259  0.4620  0.1371
60556SOL    HW288274   6.612  10.487   0.187  0.5453  0.5015  1.2792
60557SOL     OW88275   8.634   1.728   9.408 -0.4989  0.0021  0.0330
60557SOL    HW188276   8.662   1.794   9.471 -0.9336  0.6105 -0.3890
60557SOL    HW288277   8.620   1.649   9.460  4.1995 -1.1255  0.0146
60558SOL     OW88278   3.612   2.508   4.084 -0.2634  0.1672  0.1353
60558SOL    HW188279   3.660   2.437   4.042 -0.5176 -0.6543  1.1977
60558SOL    HW288280   3.522   2.477   4.090 -0.2343  0.2622  1.2652
60559SOL     OW88281   4.318   8.477   1.913 -0.1845 -0.8076 -0.4413
60559SOL    HW188282   4.357   8.435   1.990 -0.1419  1.8686  1.1119
60559SOL    HW288283   4.227   8.492   1.937 -0.2202 -0.1157 -0.9902
60560SOL     OW88284  12.309   2.122   9.094  0.0873 -0.4867 -0.3665
60560SOL    HW188285  12.310   2.068   9.015  5.7675 -1.4564 -0.0926
60560SOL    HW288286  12.334   2.209   9.064  3.0686 -1.0389  0.2161
60561SOL     OW88287   2.346   5.679   7.593  0.1061  0.2665 -0.1739
60561SOL    HW188288   2.409   5.622   7.550 -0.6044  0.6431 -1.7859
60561SOL    HW288289   2.261   5.652   7.558 -0.5076  0.6372  0.9659
60562SOL     OW88290   2.017   1.879  10.848 -0.1176  0.1127 -0.2707
60562SOL    HW188291   1.943   1.862  10.905 -1.0484 -0.0674 -1.4811
60562SOL    HW288292   2.067   1.948  10.892 -0.1690 -0.8176  1.2794
60563SOL     OW88293   8.785   8.596   4.885 -0.1096  0.0746 -0.3972
60563SOL    HW188294   8.824   8.543   4.954 -3.7256 -1.3827  0.8093
60563SOL    HW288295   8.769   8.534   4.814 -0.2710  0.5738 -0.8034
60564SOL     OW88296   5.209   1.777   0.907 -0.1662 -0.5257 -1.1718
60564SOL    HW188297   5.178   1.839   0.973 -0.7035 -1.0998 -0.8772
60564SOL    HW288298   5.148   1.785   0.834  0.4603  0.1489 -1.6394
60565SOL     OW88299   4.690   6.921   4.352  0.2138  0.3349  0.8006
60565SOL    HW188300   4.783   6.942   4.341 -0.1421  1.9811  0.7326
60565SOL    HW288301   4.644   6.986   4.299 -1.0513  0.8782  2.4927
60566SOL     OW88302  10.273   7.907  10.995  1.0949  0.4192  0.4512
60566SOL    HW188303  10.309   7.825  10.961  0.7515  0.6786 -0.6113
60566SOL    HW288304  10.193   7.880  11.041  2.4636 -0.1241  2.6062
60567SOL     OW88305  11.078   7.118   7.620 -0.3645 -0.5313  0.7363
60567SOL    HW188306  11.058   7.168   7.541  0.1837 -1.3059  0.0929
60567SOL    HW288307  10.996   7.073   7.642 -0.5559 -0.2022  0.6938
60568SOL     OW88308  10.295   8.327   5.557  0.3159 -0.1028  0.1693
60568SOL    HW188309  10.360   8.257   5.561  1.6502  1.0951  0.2350
60568SOL    HW288310  10.339   8.398   5.511 -1.0256  0.6899  0.0559
60569SOL     OW88311   0.234   6.365  11.412 -0.0228 -0.0064 -0.2211
60569SOL    HW188312   0.147   6.328  11.426  0.1668 -0.2239  0.3886
60569SOL    HW288313   0.249   6.423  11.487 -0.0655  0.8473 -0.8536
60570SOL     OW88314   2.569  10.561   1.798 -0.2403 -0.3424  0.0900
60570SOL    HW188315   2.554  10.588   1.707  0.6637  0.8858  0.2745
60570SOL    HW288316   2.489  10.515   1.823 -1.5819  1.5433 -0.5168
60571SOL     OW88317   8.984  12.474   1.797 -0.6446 -0.1321 -0.4640
60571SOL    HW188318   9.076  12.461   1.772  0.4138  1.9672  1.8725
60571SOL    HW288319   8.970  12.413   1.869 -1.4838 -1.2261 -1.5164
60572SOL     OW88320   7.355   1.672   6.524 -0.4654  0.5783  0.4071
60572SOL    HW188321   7.324   1.707   6.608 -0.6828 -0.0435  0.5991
60572SOL    HW288322   7.294   1.600   6.505 -1.0326  1.3458 -0.7887
60573SOL     OW88323   9.483   0.487   3.600 -0.2738  0.1248  0.0211
60573SOL    HW188324   9.431   0.467   3.522 -0.5218 -0.3075  0.2892
60573SOL    HW288325   9.570   0.454   3.581 -0.2772  0.2250 -0.1636
60574SOL     OW88326   7.791   2.396   5.383 -0.1523  0.5917  0.5040
60574SOL    HW188327   7.840   2.455   5.440  2.0351 -0.9455  0.3487
60574SOL    HW288328   7.824   2.309   5.406 -1.4443 -0.3396 -1.0031
60575SOL     OW88329   6.929   0.680   2.821  0.0109 -0.3757 -0.1619
60575SOL    HW188330   6.894   0.591   2.810 -0.4392 -0.0514 -1.5837
60575SOL    HW288331   6.942   0.711   2.732  0.4807  0.8803  0.3275
60576SOL     OW88332   7.847  11.359   5.269 -0.1873  0.0969 -0.3748
60576SOL    HW188333   7.822  11.318   5.351  2.9381  0.4028  0.8487
60576SOL    HW288334   7.833  11.292   5.203  1.1980 -1.6662  1.0376
60577SOL     OW88335   1.153   3.475   0.767 -0.2021  0.4882 -0.0525
60577SOL    HW188336   1.214   3.424   0.821 -0.5802  0.7149  0.6044
60577SOL    HW288337   1.129   3.416   0.696 -1.3146 -0.5990  1.1654
60578SOL     OW88338   4.105   8.678  10.263  0.3958 -0.3589 -0.0188
60578SOL    HW188339   4.131   8.733  10.189  0.0961  0.4828  0.4913
60578SOL    HW288340   4.188   8.644  10.297  0.5664 -0.4114 -0.4743
60579SOL     OW88341   6.539   4.307   9.470 -0.2292  0.2145  0.4058
60579SOL    HW188342   6.538   4.249   9.546  1.5091  0.5598  0.7314
60579SOL    HW288343   6.448   4.334   9.459 -0.6369 -0.4602  1.8821
60580SOL     OW88344   4.879   7.202   1.208 -0.0067 -0.7881  0.1867
60580SOL    HW188345   4.852   7.286   1.246  0.3492 -1.3809  1.8512
60580SOL    HW288346   4.897   7.222   1.116  0.4498  1.0546  0.6329
60581SOL     OW88347   2.222  10.498  10.872  0.0929 -0.3026  0.9881
60581SOL    HW188348   2.178  10.489  10.788  1.1162 -0.6170  0.4729
60581SOL    HW288349   2.225  10.409  10.908  0.7010 -0.3556  0.8120
60582SOL     OW88350  12.408   1.743   5.132 -0.2907 -0.1415 -0.1927
60582SOL    HW188351  12.415   1.674   5.066 -0.0637  0.7353 -1.1098
60582SOL    HW288352  12.333   1.796   5.104 -0.9045 -0.4118  0.8942
60583SOL     OW88353   7.540   0.228   3.867 -0.5823  0.0735  0.2526
60583SOL    HW188354   7.581   0.219   3.952  0.4805 -0.6264 -0.3105
60583SOL    HW288355   7.573   0.154   3.816  0.3630  1.5154 -1.3616
60584SOL     OW88356   9.696   0.992  11.065  0.3655 -0.1669  0.0587
60584SOL    HW188357   9.679   0.910  11.019  3.7640 -0.6288 -0.6575
60584SOL    HW288358   9.700   0.967  11.157 -0.3607 -0.4185  0.0332
60585SOL     OW88359   0.080   1.639   2.102  0.6188 -0.3085 -0.1909
60585SOL    HW188360   0.130   1.716   2.074 -0.9871  0.9541  0.2699
60585SOL    HW288361   0.147   1.574   2.124  2.0021  0.3331 -2.2256
60586SOL     OW88362   8.616   1.871   3.850 -0.1315  0.3774  0.7408
60586SOL    HW188363   8.670   1.822   3.911 -0.6049 -0.4686  0.4956
60586SOL    HW288364   8.528   1.837   3.863 -0.5701  1.5644  0.9540
60587SOL     OW88365   5.096   7.297   2.915  0.7478 -0.1489  0.2219
60587SOL    HW188366   5.013   7.278   2.959  1.3709 -3.0280  0.3563
60587SOL    HW288367   5.148   7.342   2.982 -0.6727  1.8047  0.0950
60588SOL     OW88368   5.959  12.004  11.046  0.7271 -0.1769 -0.0105
60588SOL    HW188369   5.997  12.062  11.112 -0.1886 -0.4221  0.7577
60588SOL    HW288370   5.864  12.017  11.055  0.5509 -1.0439 -0.5207
60589SOL     OW88371  10.802   4.450   3.358  0.2108  0.4806 -0.0982
60589SOL    HW188372  10.844   4.403   3.287 -1.7983 -1.3541 -0.1592
60589SOL    HW288373  10.716   4.474   3.324 -0.3951  0.4720  1.3476
60590SOL     OW88374   7.429   9.654  11.329  0.0863  0.3343 -0.1234
60590SOL    HW188375   7.346   9.607  11.324 -0.2916  0.5831  2.3907
60590SOL    HW288376   7.492   9.589  11.361  0.7001  0.3504 -1.2618
60591SOL     OW88377   9.469   6.637   3.355  0.3468 -0.2512  1.0379
60591SOL    HW188378   9.490   6.702   3.422 -1.4281  0.0754  1.3547
60591SOL    HW288379   9.544   6.578   3.354  1.6987  1.3846  1.2382
60592SOL     OW88380   0.214   0.515   9.014 -0.4766 -0.1651  0.3113
60592SOL    HW188381   0.182   0.439   9.063 -1.0532  0.3859  0.8133
60592SOL    HW288382   0.169   0.589   9.054  1.1418  0.6052  0.7796
60593SOL     OW88383   0.174  12.240  10.112  0.1313 -0.3271  0.2817
60593SOL    HW188384   0.171  12.324  10.066  2.8525 -0.0978  0.3672
60593SOL    HW288385   0.162  12.263  10.204 -3.1681 -0.5583  0.0194
60594SOL     OW88386   7.449  10.752   3.857  0.1017  0.2320 -0.5369
60594SOL    HW188387   7.434  10.758   3.763  0.1314  1.1056 -0.4943
60594SOL    HW288388   7.380  10.806   3.895  1.2607  1.4933 -0.1600
60595SOL     OW88389   6.214   0.777  10.055 -0.6760  0.5923 -0.5335
60595SOL    HW188390   6.150   0.707  10.042 -2.2487  1.9028 -0.1437
60595SOL    HW288391   6.228   0.778  10.150  0.7753 -0.3602 -0.6972
60596SOL     OW88392   0.290   7.404   1.366 -0.2755 -0.0480 -0.1998
60596SOL    HW188393   0.352   7.426   1.296  3.0719 -2.0286  1.8626
60596SOL    HW288394   0.274   7.486   1.412  1.5824  0.3911 -0.2817
60597SOL     OW88395   2.320   5.642   1.963  0.0580  0.0397 -0.3799
60597SOL    HW188396   2.304   5.716   2.021  0.5155  0.0770 -0.2981
60597SOL    HW288397   2.409   5.655   1.931  0.7592 -1.3468  0.9180
60598SOL     OW88398  11.996   3.762   9.358  0.0240  0.0617 -0.0915
60598SOL    HW188399  12.085   3.738   9.331  0.0919 -2.2365  1.9164
60598SOL    HW288400  11.940   3.705   9.306 -0.3159  1.2271 -1.0570
60599SOL     OW88401   6.938  10.157   2.422 -0.5363  0.2544  0.0556
60599SOL    HW188402   6.913  10.222   2.489  0.8718  0.0946  0.7733
60599SOL    HW288403   7.016  10.194   2.381 -0.4592 -0.4049 -0.4027
60600SOL     OW88404   9.444   1.131  11.309 -0.0627  0.2811 -0.1238
60600SOL    HW188405   9.395   1.096  11.384 -0.6983 -0.2636 -0.7832
60600SOL    HW288406   9.491   1.056  11.274 -0.9543  0.2061 -1.1831
60601SOL     OW88407  10.450   0.194  10.255 -0.7066  0.1891 -0.2571
60601SOL    HW188408  10.425   0.131  10.324  1.2675  0.0851  0.4352
60601SOL    HW288409  10.395   0.171  10.180 -0.8665 -1.6093  0.3645
60602SOL     OW88410  11.537  11.770   9.135  0.4671  0.7517  0.0834
60602SOL    HW188411  11.606  11.744   9.074  0.3850 -0.1706  0.3638
60602SOL    HW288412  11.543  11.865   9.140 -0.3801  1.0033 -2.3918
60603SOL     OW88413   0.309   8.614  10.454 -0.2138  0.6049 -0.4924
60603SOL    HW188414   0.301   8.585  10.363  0.0351 -1.0002 -0.0316
60603SOL    HW288415   0.230   8.667  10.469 -0.2617  0.8840 -1.6190
60604SOL     OW88416   7.211   2.088   4.407 -0.3136  0.0541 -0.3178
60604SOL    HW188417   7.163   2.005   4.403  1.8494 -1.2424 -2.7473
60604SOL    HW288418   7.149   2.154   4.377 -1.4560 -1.0401 -0.4306
60605SOL     OW88419   4.470   1.983   9.386  0.2927  0.4122 -0.0640
60605SOL    HW188420   4.470   2.032   9.468 -1.6397  0.9810 -0.3290
60605SOL    HW288421   4.377   1.978   9.362  0.8592  1.1027 -2.6888
60606SOL     OW88422   5.345   0.407   5.643 -0.2979  0.2572 -0.2206
60606SOL    HW188423   5.334   0.433   5.552 -0.9147  1.3344  0.1401
60606SOL    HW288424   5.439   0.392   5.653  0.3015  3.3001 -0.2709
60607SOL     OW88425   2.718   3.539   7.967 -0.1642  0.4845 -0.4853
60607SOL    HW188426   2.787   3.536   8.034 -1.0340 -0.8841  0.4133
60607SOL    HW288427   2.675   3.623   7.981 -0.6434  0.0304  1.0699
60608SOL     OW88428   0.786   7.411   4.519 -0.3316 -0.5959  0.1555
60608SOL    HW188429   0.846   7.475   4.481  0.0012 -0.6213  0.6283
60608SOL    HW288430   0.818   7.327   4.487 -0.0150 -0.6221  0.5219
60609SOL     OW88431   7.253   9.464   1.610  0.0996 -0.2022 -0.4933
60609SOL    HW188432   7.196   9.414   1.668 -0.1683  1.1874  0.4889
60609SOL    HW288433   7.325   9.494   1.667  0.6312 -0.0711 -1.2153
60610SOL     OW88434  12.007   4.229  12.065  0.9036 -0.3214  0.4543
60610SOL    HW188435  11.943   4.206  12.133  0.7260  1.7155  1.0300
60610SOL    HW288436  12.076   4.163  12.074 -1.2371 -2.8985 -0.5049
60611SOL     OW88437  10.374  12.575   8.162 -0.2414  0.2448  0.3249
60611SOL    HW188438  10.418  12.503   8.116 -2.0627  0.0516 -1.2629
60611SOL    HW288439  10.358  12.640   8.094 -1.8617  0.5415  0.9508
60612SOL     OW88440   8.353   0.464   8.340  0.1904  0.0674 -0.2809
60612SOL    HW188441   8.290   0.531   8.314 -0.8229 -0.8023 -0.1607
60612SOL    HW288442   8.437   0.495   8.306 -0.0170  1.9750  0.7803
60613SOL     OW88443   4.836   3.553  12.338 -0.0155  0.0325  0.0105
60613SOL    HW188444   4.838   3.475  12.283  0.7367  0.0046  0.0627
60613SOL    HW288445   4.794   3.620  12.284 -1.1807 -0.5552  0.1756
60614SOL     OW88446   3.230   3.587   4.345  0.3776 -0.8249  0.3128
60614SOL    HW188447   3.214   3.498   4.375  1.6428 -1.4722 -0.8280
60614SOL    HW288448   3.155   3.608   4.289  0.7116 -1.6844 -0.4712
60615SOL     OW88449   3.134   1.978   2.104  0.7190  0.0606 -0.0901
60615SOL    HW188450   3.155   1.895   2.148  1.1739  1.5314  2.7593
60615SOL    HW288451   3.048   1.964   2.065  0.6991 -1.6798  0.4932
60616SOL     OW88452   3.999   5.735   4.877 -0.1672  0.2263  0.9728
60616SOL    HW188453   3.997   5.825   4.909 -1.3985  0.4680  0.2859
60616SOL    HW288454   4.092   5.711   4.880  0.1389  1.3894  1.5046
60617SOL     OW88455  11.547   7.550   6.953  0.0388  0.3317  0.0655
60617SOL    HW188456  11.582   7.464   6.927  1.6855  1.4026 -1.5212
60617SOL    HW288457  11.591   7.569   7.036 -1.8776 -1.1710  1.5283
60618SOL     OW88458  10.262  10.316   1.579  0.0607  0.3723 -0.0162
60618SOL    HW188459  10.322  10.250   1.545 -1.0797 -0.4307 -0.5192
60618SOL    HW288460  10.305  10.400   1.560  0.7641 -0.1627 -0.8543
60619SOL     OW88461   2.467   3.490   7.286 -0.0119  0.6154 -0.0084
60619SOL    HW188462   2.467   3.404   7.246  1.2330  1.8643 -2.9271
60619SOL    HW288463   2.394   3.487   7.348  0.2802 -2.6209  0.3500
60620SOL     OW88464   3.959   7.920   7.573 -0.9331 -0.2900  0.0570
60620SOL    HW188465   3.913   7.856   7.628 -1.6245 -1.6470 -2.0017
60620SOL    HW288466   4.047   7.885   7.564 -0.6763  0.1821  0.6569
60621SOL     OW88467   1.183  12.442   4.503 -0.1600  0.0197 -0.3356
60621SOL    HW188468   1.142  12.361   4.535 -0.6414 -0.2709 -1.6225
60621SOL    HW288469   1.269  12.414   4.473  0.1782  0.2407  0.3969
60622SOL     OW88470   4.851   8.972   6.803  0.6040  0.2200 -0.9453
60622SOL    HW188471   4.939   8.956   6.768  1.1683  0.9482  0.0769
60622SOL    HW288472   4.844   8.912   6.878  0.6072  0.8347 -0.4452
60623SOL     OW88473   1.371   3.830   7.050 -0.0084 -0.3776 -0.0097
60623SOL    HW188474   1.302   3.776   7.089 -0.2476  0.1485  0.2957
60623SOL    HW288475   1.450   3.805   7.097 -0.5809  1.5322  2.1121
60624SOL     OW88476  11.637   1.204   6.067 -0.1877 -0.4054 -0.0318
60624SOL    HW188477  11.626   1.250   5.984  0.3635 -1.4015 -0.6733
60624SOL    HW288478  11.687   1.265   6.122  1.1464 -0.5038 -1.1105
60625SOL     OW88479  12.785   7.443   7.518  0.0167  0.6137  0.0357
60625SOL    HW188480  12.839   7.411   7.591  0.7534  0.1726 -0.6893
60625SOL    HW288481  12.789   7.539   7.527 -1.0942  0.5709  1.4111
60626SOL     OW88482   6.784   0.106   7.893 -0.5264  0.0296 -0.5697
60626SOL    HW188483   6.741   0.192   7.896 -0.7701  0.1236 -3.7703
60626SOL    HW288484   6.824   0.102   7.806  4.3604 -0.8712  1.3542
60627SOL     OW88485   2.959   4.676   9.735 -0.2691 -0.2723  0.2146
60627SOL    HW188486   2.952   4.740   9.664  0.5285  0.4698  0.7897
60627SOL    HW288487   2.881   4.621   9.725  0.1125 -0.5425 -1.5805
60628SOL     OW88488   3.762   9.121   1.191  0.7674 -0.0689  0.5802
60628SOL    HW188489   3.784   9.032   1.219  2.6439  0.1073 -0.1340
60628SOL    HW288490   3.687   9.110   1.132  0.6603 -1.1196  0.8959
60629SOL     OW88491   7.497  11.075   0.910  0.8066  0.1190  0.4188
60629SOL    HW188492   7.579  11.029   0.892  1.0278  0.6982 -0.0624
60629SOL    HW288493   7.437  11.044   0.842  0.5573 -0.4524  0.8865
60630SOL     OW88494   2.744  11.038  12.485  1.0538 -0.2108 -0.6445
60630SOL    HW188495   2.760  11.102  12.554 -0.2172 -0.7015  0.1453
60630SOL    HW288496   2.830  11.022  12.446  1.9825 -0.6710  1.4787
60631SOL     OW88497   0.228   6.567   6.635  0.3767 -0.3738  0.4251
60631SOL    HW188498   0.193   6.619   6.708 -2.0901  2.3703 -2.4170
60631SOL    HW288499   0.165   6.496   6.624  1.0064 -1.0665  1.2132
60632SOL     OW88500  11.688  11.425   7.275  0.0875 -0.1610  0.4460
60632SOL    HW188501  11.622  11.409   7.208  1.4418  0.4763 -1.1155
60632SOL    HW288502  11.698  11.341   7.320 -0.6964 -0.6512 -0.2744
60633SOL     OW88503   3.668   7.341   9.345  0.8812 -0.5133  0.2111
60633SOL    HW188504   3.653   7.365   9.254  0.3526 -0.2317  0.3726
60633SOL    HW288505   3.737   7.274   9.341 -0.3054 -1.7378 -0.5217
60634SOL     OW88506   0.383   2.421   8.450 -0.4668 -0.1933 -0.2580
60634SOL    HW188507   0.460   2.433   8.393  1.0490 -1.7942  1.3054
60634SOL    HW288508   0.326   2.362   8.400 -1.2035  1.7486 -1.8371
60635SOL     OW88509   9.991   3.823   9.113  0.2392  0.2537 -0.2947
60635SOL    HW188510   9.937   3.748   9.089  1.8120 -0.7407 -0.9015
60635SOL    HW288511   9.986   3.882   9.038  0.7268 -0.2703 -0.7445
60636SOL     OW88512  12.753   0.861  12.677 -0.0269  0.0280 -0.1819
60636SOL    HW188513  12.779   0.946  12.713  1.6285 -0.0507 -1.1056
60636SOL    HW288514  12.657   0.862  12.681 -0.0188  1.7029  0.3525
60637SOL     OW88515   8.940   0.551   6.989 -0.3008 -0.2128 -0.3031
60637SOL    HW188516   9.027   0.548   6.950  0.2580  0.6616  0.8278
60637SOL    HW288517   8.949   0.607   7.066 -2.3679  1.9554 -1.4813
60638SOL     OW88518   5.589   2.887   1.204  0.0812 -0.7179  0.1183
60638SOL    HW188519   5.612   2.826   1.134  0.8511 -0.7391  0.3844
60638SOL    HW288520   5.510   2.931   1.172  0.0271 -1.2186 -0.4588
60639SOL     OW88521   8.259   7.611   4.562 -0.0883  0.2010  0.0706
60639SOL    HW188522   8.244   7.586   4.653  0.8925 -0.7385 -0.0045
60639SOL    HW288523   8.290   7.701   4.566 -2.8716  1.2532  0.4190
60640SOL     OW88524   6.718   4.389   4.345 -0.0409 -0.2365 -0.4932
60640SOL    HW188525   6.807   4.362   4.369  0.3738  0.1929 -1.4848
60640SOL    HW288526   6.692   4.449   4.414 -0.3562 -1.8717  0.8791
60641SOL     OW88527  10.534   3.354   9.872  0.1794 -0.1354 -0.5288
60641SOL    HW188528  10.446   3.355   9.908  1.0322  1.6345  1.7237
60641SOL    HW288529  10.522   3.327   9.781 -2.5255 -1.0014 -0.0130
60642SOL     OW88530   8.119  10.811   3.500  0.0556  0.1754 -0.0625
60642SOL    HW188531   8.208  10.788   3.471  0.5602  0.9744  0.7749
60642SOL    HW288532   8.092  10.736   3.554  0.6410  0.3672  0.5179
60643SOL     OW88533   9.289   4.888   0.463 -0.3667 -0.0199  0.3329
60643SOL    HW188534   9.210   4.941   0.475 -0.5308 -0.7452  3.2691
60643SOL    HW288535   9.359   4.944   0.496 -0.1020 -0.4866  0.5605
60644SOL     OW88536   9.332  12.377   8.473  0.4148 -0.1711  0.3680
60644SOL    HW188537   9.313  12.462   8.435  0.0049 -0.7084 -0.6618
60644SOL    HW288538   9.397  12.394   8.542 -0.6185  1.1368  1.0537
60645SOL     OW88539   0.597   3.163   0.008 -0.0265 -0.0319 -0.2948
60645SOL    HW188540   0.548   3.140   0.086  0.6152 -0.9380 -0.1493
60645SOL    HW288541   0.533   3.206  -0.049 -0.1342  2.1328  1.3619
60646SOL     OW88542   9.503   8.627   3.261 -0.0188  0.1256 -0.5669
60646SOL    HW188543   9.413   8.653   3.281  0.2069  0.8027 -0.4251
60646SOL    HW288544   9.518   8.550   3.316 -0.3092  0.3688 -0.1399
60647SOL     OW88545   0.061   1.108   7.105 -0.1559 -0.3940 -0.3479
60647SOL    HW188546   0.080   1.191   7.061 -0.1202  0.1282  0.6102
60647SOL    HW288547  -0.033   1.111   7.124 -0.3404 -0.9886 -1.1162
60648SOL     OW88548   0.548   3.601  11.694 -0.0033  0.3835  0.4789
60648SOL    HW188549   0.552   3.610  11.599  1.5974 -0.0196  0.4833
60648SOL    HW288550   0.591   3.680  11.727  1.0203 -0.2979  0.8121
60649SOL     OW88551   3.908   5.956   4.605  0.1224  0.4485  1.0161
60649SOL    HW188552   3.952   5.964   4.690  0.8342  0.8310  0.6221
60649SOL    HW288553   3.859   6.038   4.596 -0.1088  0.3256  1.1377
60650SOL     OW88554   9.733   3.705  10.399 -0.5373  0.0522 -0.3615
60650SOL    HW188555   9.681   3.705  10.479 -1.7088  0.0689 -1.0962
60650SOL    HW288556   9.750   3.612  10.381 -2.0711 -0.0956 -1.1959
60651SOL     OW88557   9.858   4.455   4.041  0.4560  0.2907 -0.0485
60651SOL    HW188558   9.887   4.409   4.120  0.7524  1.4304  0.5379
60651SOL    HW288559   9.865   4.548   4.064  1.4030  0.6794 -1.7282
60652SOL     OW88560   1.379   1.402   7.011 -0.1383  0.6437  0.1282
60652SOL    HW188561   1.362   1.496   7.000  0.9102  0.7903 -0.2953
60652SOL    HW288562   1.467   1.397   7.049  0.3312 -0.1948 -1.0139
60653SOL     OW88563   8.161   0.554   7.701  0.0946  0.2284 -0.2826
60653SOL    HW188564   8.170   0.632   7.756 -0.4327 -0.3375  0.6277
60653SOL    HW288565   8.066   0.541   7.694  0.1626  0.2304 -1.2414
60654SOL     OW88566   0.027   2.030  11.658  0.3175  0.0776 -0.1765
60654SOL    HW188567   0.038   2.123  11.639  0.1514  0.1161 -0.0915
60654SOL    HW288568  -0.066   2.022  11.681 -0.3749 -0.5607 -2.8340
60655SOL     OW88569   6.611   4.778   3.178 -0.5523  0.3089 -0.2708
60655SOL    HW188570   6.696   4.742   3.204 -1.4021 -3.5447 -2.1740
60655SOL    HW288571   6.557   4.772   3.257  0.3209  0.8720  0.3903
60656SOL     OW88572   3.651   7.156   3.965 -0.1288 -0.4985 -0.1241
60656SOL    HW188573   3.691   7.075   3.996  1.5831  1.2540  2.7433
60656SOL    HW288574   3.565   7.158   4.007  0.4985 -0.1234  1.2070
60657SOL     OW88575  12.298  11.620  11.554  0.0620 -0.4551  0.3907
60657SOL    HW188576  12.296  11.525  11.540 -0.6677 -0.2517 -1.1272
60657SOL    HW288577  12.235  11.636  11.624 -0.4313 -1.0204  0.0818
60658SOL     OW88578   6.443   6.135   2.688 -0.5263  0.3090 -0.2486
60658SOL    HW188579   6.509   6.131   2.757  0.0198 -0.8981 -0.8097
60658SOL    HW288580   6.466   6.212   2.637 -0.0635  0.3867  0.0705
60659SOL     OW88581  12.156   4.486   5.273  0.5768  0.1490 -0.5746
60659SOL    HW188582  12.096   4.469   5.345  1.8018  0.8294  0.6678
60659SOL    HW288583  12.101   4.489   5.195 -0.6838 -1.4297  0.2053
60660SOL     OW88584   0.544   9.480   5.286  0.5404  0.1823 -0.0377
60660SOL    HW188585   0.587   9.407   5.240 -0.5024  0.6147 -1.7918
60660SOL    HW288586   0.563   9.556   5.231 -1.1828  0.6331 -0.0526
60661SOL     OW88587  10.513  10.870   5.860 -0.0439 -0.5029 -0.0157
60661SOL    HW188588  10.516  10.917   5.943  2.2556 -0.6900  0.0720
60661SOL    HW288589  10.595  10.893   5.816  0.4471 -3.1494 -0.6490
60662SOL     OW88590   2.316   4.664  11.670 -0.4091 -0.2332  0.1404
60662SOL    HW188591   2.255   4.711  11.728 -1.4202 -0.3566 -0.7920
60662SOL    HW288592   2.378   4.731  11.641  0.1835 -0.1928  1.4301
60663SOL     OW88593   9.898  11.965   9.301 -0.1948  0.0833 -0.6037
60663SOL    HW188594   9.937  11.892   9.252 -1.9161 -1.0802 -0.3355
60663SOL    HW288595   9.968  11.994   9.360 -0.0864 -2.9424  0.9671
60664SOL     OW88596   3.610   4.402   1.663 -0.0780 -0.3198 -0.3938
60664SOL    HW188597   3.628   4.309   1.676 -1.5145 -0.6072 -0.3203
60664SOL    HW288598   3.678   4.447   1.713  0.6436 -1.3176 -0.4475
60665SOL     OW88599   9.532   8.750   5.082 -0.0159  0.2521 -0.0553
60665SOL    HW188600   9.464   8.701   5.036 -0.2906  0.4253  0.1639
60665SOL    HW288601   9.583   8.684   5.129 -1.8414  0.3451  2.2037
60666SOL     OW88602   0.589   0.743   1.416 -0.0129  0.8116  0.1469
60666SOL    HW188603   0.639   0.784   1.346  1.0540  0.3673  0.6357
60666SOL    HW288604   0.631   0.658   1.429 -2.0006 -0.3818 -0.6586
60667SOL     OW88605   9.169  11.938   2.603  0.3719  0.4617  0.2532
60667SOL    HW188606   9.098  11.949   2.667 -1.0595  1.5688 -1.4153
60667SOL    HW288607   9.234  11.884   2.648 -1.3197 -0.2202  2.0212
60668SOL     OW88608  10.439  12.611   5.717 -0.0062 -0.7632 -0.1169
60668SOL    HW188609  10.424  12.552   5.643 -0.9501 -0.2547 -0.3504
60668SOL    HW288610  10.356  12.658   5.727  0.9243  0.9886 -0.3517
60669SOL     OW88611   6.800  10.342   9.421  0.0437  0.2857  0.1944
60669SOL    HW188612   6.862  10.289   9.471 -0.2546  0.4843  0.7915
60669SOL    HW288613   6.855  10.404   9.372  0.3536 -0.0968  0.0549
60670SOL     OW88614   6.869   2.799  11.131  0.3417 -0.0077  0.0686
60670SOL    HW188615   6.918   2.722  11.160 -1.4133 -0.6438  1.5311
60670SOL    HW288616   6.928   2.873  11.147  0.6904 -0.6939  2.1827
60671SOL     OW88617   7.818  12.250   8.827 -0.8789  0.0964 -0.4301
60671SOL    HW188618   7.881  12.179   8.812 -0.0634  0.4178  1.2152
60671SOL    HW288619   7.739  12.206   8.858 -1.7202 -0.3514 -2.9343
60672SOL     OW88620   4.295   7.613   1.902  0.0547  0.7726 -0.0492
60672SOL    HW188621   4.374   7.648   1.859  1.2251 -0.2304  1.1734
60672SOL    HW288622   4.329   7.562   1.976 -1.3558 -4.0312 -2.3170
60673SOL     OW88623  11.300   2.084   8.350  0.7634 -0.0942  0.4504
60673SOL    HW188624  11.368   2.111   8.411 -1.6212  1.2491  2.6753
60673SOL    HW288625  11.221   2.075   8.403 -1.0806 -0.5417 -2.1648
60674SOL     OW88626   5.363   5.131   4.661 -0.1738  0.5543 -0.2118
60674SOL    HW188627   5.444   5.090   4.630 -1.0918 -1.2140 -0.4124
60674SOL    HW288628   5.294   5.091   4.606 -1.4473  0.1145  1.6230
60675SOL     OW88629   1.349   3.952   4.416 -0.1679 -0.9012  0.2442
60675SOL    HW188630   1.260   3.978   4.437 -0.4438 -1.4683 -0.1806
60675SOL    HW288631   1.342   3.860   4.390  0.5161 -0.9171  0.0820
60676SOL     OW88632   7.286   4.832  12.742  0.2059  0.3722  0.5898
60676SOL    HW188633   7.381   4.838  12.730 -0.0971  1.2114 -1.7866
60676SOL    HW288634   7.269   4.738  12.745  1.0465  0.2080  0.5071
60677SOL     OW88635   2.122   5.277   1.073  0.1035 -0.3274 -0.3795
60677SOL    HW188636   2.145   5.356   1.122 -0.7105 -0.9960  1.1338
60677SOL    HW288637   2.105   5.211   1.140  0.9359 -1.8589 -1.6041
60678SOL     OW88638   4.164  10.450  10.632  0.3334  0.2760  0.4537
60678SOL    HW188639   4.217  10.528  10.613  1.2490 -0.5745 -0.6828
60678SOL    HW288640   4.146  10.456  10.725  0.2135  1.9434  0.3594
60679SOL     OW88641   2.525   3.107  12.142 -0.3265 -0.4164  0.0312
60679SOL    HW188642   2.482   3.022  12.148  0.3482 -0.9749 -2.1223
60679SOL    HW288643   2.617   3.088  12.158 -0.3735  0.1902  1.0938
60680SOL     OW88644   6.797   0.973   3.364 -0.7831  0.1028 -0.3735
60680SOL    HW188645   6.803   0.989   3.270  1.1452  1.7143 -0.0727
60680SOL    HW288646   6.739   1.043   3.396 -0.3611  0.3942 -0.2307
60681SOL     OW88647   5.023   4.119   9.730  0.4608  0.0590  0.3761
60681SOL    HW188648   4.978   4.200   9.709 -0.7528 -0.8415 -0.6708
60681SOL    HW288649   5.095   4.145   9.788  0.3539  1.9155 -0.2620
60682SOL     OW88650   3.179   8.390  10.458 -0.2445  0.1358  0.3496
60682SOL    HW188651   3.272   8.413  10.467 -0.0685 -0.5783  0.3750
60682SOL    HW288652   3.144   8.398  10.546  0.6335 -3.1694  1.1141
60683SOL     OW88653   0.385   0.944   2.284 -0.0726  0.2038 -0.2201
60683SOL    HW188654   0.366   1.038   2.277  1.1250  0.4209 -0.7546
60683SOL    HW288655   0.337   0.905   2.210 -0.0192  0.4860 -0.4070
60684SOL     OW88656   1.233   8.781   1.542 -0.0205  0.1461  0.1212
60684SOL    HW188657   1.286   8.845   1.590  0.2187  0.3781 -0.4423
60684SOL    HW288658   1.227   8.817   1.453  2.3670 -1.8681 -0.9782
60685SOL     OW88659   4.862   5.117  10.772 -0.2791 -0.0528 -0.2848
60685SOL    HW188660   4.831   5.190  10.826 -1.3557 -2.1521  2.1751
60685SOL    HW288661   4.901   5.055  10.835  0.9807 -1.4459 -2.2911
60686SOL     OW88662   1.953  11.226  10.457 -0.5781 -0.1342  0.0021
60686SOL    HW188663   2.005  11.287  10.405  0.5087  1.0520  2.3123
60686SOL    HW288664   2.004  11.213  10.537 -3.0354 -0.2991  1.6497
60687SOL     OW88665   6.942   8.543   4.434  0.3334  0.1292  0.5911
60687SOL    HW188666   6.853   8.545   4.468  0.4727  1.5620  0.9697
60687SOL    HW288667   6.998   8.561   4.509  0.7501  1.7832 -0.0621
60688SOL     OW88668   2.016   1.492   3.969 -0.4890 -0.2308  0.1169
60688SOL    HW188669   2.001   1.441   4.049 -0.0842 -1.2497 -0.4293
60688SOL    HW288670   2.005   1.428   3.898 -0.5001  0.5797 -0.6264
60689SOL     OW88671   9.726   9.249   8.483 -0.1559  0.1976 -0.3631
60689SOL    HW188672   9.793   9.199   8.529  0.9308  0.2744 -1.7864
60689SOL    HW288673   9.709   9.199   8.403 -2.1657 -0.0532  0.1619
60690SOL     OW88674   3.916   0.935   5.874 -0.4931 -0.3958 -0.6089
60690SOL    HW188675   3.843   0.972   5.825  0.9453 -0.8903 -3.3470
60690SOL    HW288676   3.980   0.910   5.807  2.1701 -0.0948  1.6041
60691SOL     OW88677   1.761   2.862   2.828  0.2214 -0.7671  0.4010
60691SOL    HW188678   1.712   2.836   2.750  0.2867 -1.2255  0.5097
60691SOL    HW288679   1.851   2.834   2.810  0.8606  1.6463 -0.5591
60692SOL     OW88680   1.029  11.993   8.801  0.1164  0.5426 -0.0700
60692SOL    HW188681   1.057  12.081   8.776  2.5176  0.3965  1.6798
60692SOL    HW288682   0.942  12.005   8.840  0.5372  2.2172  0.4539
60693SOL     OW88683   6.998   2.079   3.638  0.1694  0.8142  0.0202
60693SOL    HW188684   6.993   2.155   3.581  0.2905  0.1611 -0.8877
60693SOL    HW288685   6.928   2.092   3.702 -1.6860  0.3814 -1.7836
60694SOL     OW88686   2.362   8.865   4.876  0.0939 -0.1572 -0.0292
60694SOL    HW188687   2.452   8.852   4.846  0.2342  0.9301 -0.1009
60694SOL    HW288688   2.366   8.855   4.971  0.3978  0.4293  0.0241
60695SOL     OW88689   8.453   9.143  10.508  0.3199 -0.4877 -0.4799
60695SOL    HW188690   8.400   9.214  10.471  0.0420 -0.0394  0.7284
60695SOL    HW288691   8.535   9.147  10.460 -0.0529  0.0281 -1.0949
60696SOL     OW88692  11.766   0.023  10.283  0.1063  0.5339  0.1654
60696SOL    HW188693  11.757  -0.067  10.314  1.0065  0.4065  0.0817
60696SOL    HW288694  11.723   0.023  10.197  0.7572 -0.0109 -0.1700
60697SOL     OW88695   4.629   6.860   0.485  1.0733  0.0103  0.0576
60697SOL    HW188696   4.695   6.834   0.548  2.5729  1.4510 -0.8017
60697SOL    HW288697   4.608   6.951   0.509 -1.4959 -0.7647  0.9978
60698SOL     OW88698   3.786   4.746   5.620  0.0885 -0.1648 -0.8483
60698SOL    HW188699   3.748   4.668   5.580 -0.7073 -1.2314  1.8021
60698SOL    HW288700   3.760   4.742   5.712  0.6350  2.8651 -0.4395
60699SOL     OW88701   2.244   8.342  11.330  0.0951 -0.4914 -0.3872
60699SOL    HW188702   2.293   8.370  11.407  1.0984 -0.3871 -1.0522
60699SOL    HW288703   2.273   8.401  11.260 -1.7902  0.2967 -0.5614
60700SOL     OW88704   9.437  10.955   6.882 -0.3485 -0.1140  0.5428
60700SOL    HW188705   9.357  10.925   6.924  0.5146 -2.9097  0.3621
60700SOL    HW288706   9.412  10.970   6.790 -1.2666  1.9867  1.0572
60701SOL     OW88707  11.891   8.746   8.694 -0.3164  0.0324  0.8711
60701SOL    HW188708  11.969   8.739   8.640 -0.4069  0.4948  0.6751
60701SOL    HW288709  11.820   8.765   8.633 -0.1943  1.9803  1.2499
60702SOL     OW88710   6.335  10.027   5.775  0.2437 -0.4176  0.2300
60702SOL    HW188711   6.262   9.978   5.736  0.4087 -1.0663  0.7131
60702SOL    HW288712   6.413   9.987   5.738  0.4057 -1.0938  1.2497
60703SOL     OW88713   2.416   2.958   6.643 -0.7703  0.3589  0.5771
60703SOL    HW188714   2.478   2.901   6.597  0.0482  1.5710  0.1446
60703SOL    HW288715   2.345   2.972   6.580  0.2716  1.8856 -0.3338
60704SOL     OW88716   3.610   5.252   4.048 -0.4420  0.5083  0.2069
60704SOL    HW188717   3.535   5.229   4.103 -1.0248 -0.5594 -0.9866
60704SOL    HW288718   3.625   5.345   4.066 -2.4866  0.9298 -0.0287
60705SOL     OW88719   3.167   3.664   5.347  0.5013  0.4424 -1.1862
60705SOL    HW188720   3.163   3.760   5.344 -0.1969  0.4055 -1.5042
60705SOL    HW288721   3.230   3.641   5.279 -0.0408  0.6281 -1.7533
60706SOL     OW88722   4.279   3.101   6.046 -0.2729 -0.0227 -0.0143
60706SOL    HW188723   4.319   3.127   6.129  0.2254 -0.8499  0.0128
60706SOL    HW288724   4.348   3.114   5.981 -1.3569  2.8878 -0.7225
60707SOL     OW88725   5.430   8.619   8.871 -0.0787  0.3186 -0.3541
60707SOL    HW188726   5.511   8.669   8.860 -0.7137  1.2803 -0.8129
60707SOL    HW288727   5.366   8.664   8.815 -1.1818  0.1522  0.7314
60708SOL     OW88728  12.579   7.586   8.287 -0.4344  0.1343  0.3204
60708SOL    HW188729  12.634   7.554   8.358 -2.0626 -1.8277  0.8159
60708SOL    HW288730  12.608   7.675   8.271  1.6444 -0.2337  1.7362
60709SOL     OW88731   4.476   9.057   4.478 -0.0840  0.7159 -0.6895
60709SOL    HW188732   4.469   8.998   4.403  1.7202  0.3614 -0.6332
60709SOL    HW288733   4.439   9.140   4.447 -1.1875  0.0236 -1.2898
60710SOL     OW88734   7.740   1.947   0.021  0.8498  0.7664  0.2062
60710SOL    HW188735   7.779   2.031  -0.004  1.8265  0.2415 -0.0906
60710SOL    HW288736   7.803   1.910   0.084  0.5494  0.1442  0.1453
60711SOL     OW88737   0.073  11.498   2.176  0.0985 -0.4052 -0.0729
60711SOL    HW188738   0.042  11.577   2.219  0.5127  0.3039 -1.0451
60711SOL    HW288739   0.064  11.516   2.083  1.7492 -0.8653 -0.3525
60712SOL     OW88740   0.729  12.690  12.071 -0.0681  0.2828 -0.5490
60712SOL    HW188741   0.793  12.634  12.026 -0.3343 -0.7990  0.3613
60712SOL    HW288742   0.656  12.631  12.092 -0.0851  0.8086  0.9955
60713SOL     OW88743   7.967  10.572  10.959  0.2153 -0.4157  0.1210
60713SOL    HW188744   7.906  10.587  11.032 -0.9701  0.5990 -1.0223
60713SOL    HW288745   8.015  10.654  10.951  1.9411 -1.2880  1.1523
60714SOL     OW88746  10.443  12.504   6.523 -0.3614 -0.0158 -0.2956
60714SOL    HW188747  10.447  12.495   6.619  0.3255  0.3734 -0.2863
60714SOL    HW288748  10.461  12.596   6.506  0.0230 -0.1845 -0.8306
60715SOL     OW88749   7.978   1.327   4.234  0.2960 -0.4872  0.1561
60715SOL    HW188750   8.017   1.242   4.213  0.2685 -0.9101  1.6614
60715SOL    HW288751   8.011   1.386   4.166 -0.0242 -1.7724 -1.1621
60716SOL     OW88752   9.659  10.337   6.142 -0.3909 -0.3069  0.0428
60716SOL    HW188753   9.711  10.418   6.135 -0.5602 -0.1555  0.5150
60716SOL    HW288754   9.662  10.299   6.054  0.7400 -0.4323  0.1192
60717SOL     OW88755   8.728   0.906   6.714  1.0232  0.4478 -0.1541
60717SOL    HW188756   8.704   0.993   6.682  0.5456  1.1247  1.8935
60717SOL    HW288757   8.824   0.907   6.715  1.1068  0.0742 -2.2587
60718SOL     OW88758   4.296   0.749   6.294 -0.3455  0.1036  0.1001
60718SOL    HW188759   4.215   0.791   6.264  0.0731  1.7134  1.0705
60718SOL    HW288760   4.267   0.671   6.341 -1.2403 -0.0591 -0.7003
60719SOL     OW88761   9.733  11.037   4.384  0.2701  0.3463  0.0500
60719SOL    HW188762   9.717  11.102   4.452 -2.1603 -0.2428  0.1613
60719SOL    HW288763   9.740  11.088   4.303  0.6067  0.8789  0.4063
60720SOL     OW88764   5.452   7.525   6.344 -0.4630  0.1325  0.0564
60720SOL    HW188765   5.524   7.466   6.363  0.0046  0.2276 -1.2780
60720SOL    HW288766   5.373   7.476   6.365 -0.0948 -1.1187 -1.3187
60721SOL     OW88767   2.728   2.024   0.147  0.7941  0.0114 -0.2347
60721SOL    HW188768   2.686   2.099   0.187  2.3490  1.1979 -0.7443
60721SOL    HW288769   2.657   1.962   0.132 -0.3656  0.9768  1.0573
60722SOL     OW88770   0.459   6.820   5.814  0.4337 -0.0611  0.7545
60722SOL    HW188771   0.498   6.743   5.772 -2.4141 -0.2425 -1.9085
60722SOL    HW288772   0.495   6.894   5.764 -1.6468 -0.1785 -1.0874
60723SOL     OW88773   8.973  11.063  10.920 -0.0491  0.4130 -0.1185
60723SOL    HW188774   8.887  11.025  10.938 -0.1359  1.1190  1.0446
60723SOL    HW288775   8.999  11.024  10.837 -0.0653 -2.3027  1.0330
60724SOL     OW88776   0.451   9.594  11.089  0.7515 -0.3957 -0.6190
60724SOL    HW188777   0.510   9.670  11.084 -0.0326  0.1807 -1.2373
60724SOL    HW288778   0.389   9.607  11.018 -0.1688 -0.9654  0.0620
60725SOL     OW88779   0.533   4.226  11.835  0.0458 -0.4157  0.0575
60725SOL    HW188780   0.520   4.138  11.871 -2.1104  0.4524  1.6351
60725SOL    HW288781   0.444   4.255  11.812  0.7472  1.2652 -0.6572
60726SOL     OW88782   1.531   8.911   9.033  0.2125 -0.0340 -0.0206
60726SOL    HW188783   1.510   8.946   9.119 -0.8486  1.8346 -0.9802
60726SOL    HW288784   1.618   8.946   9.014  1.4663 -2.2483  1.1192
60727SOL     OW88785   4.730  11.848   6.528  0.2520 -0.0380  0.2225
60727SOL    HW188786   4.710  11.780   6.593 -0.5607  0.4214  0.4687
60727SOL    HW288787   4.676  11.922   6.554 -1.1576 -0.3036 -1.7997
60728SOL     OW88788   6.680   8.179   7.882 -0.4571 -0.2117  0.5283
60728SOL    HW188789   6.600   8.206   7.926  0.0449  0.9744  0.7592
60728SOL    HW288790   6.728   8.261   7.867  0.3177 -0.8100 -0.3751
60729SOL     OW88791   7.548   9.207   6.126 -0.6804  0.2136 -0.5116
60729SOL    HW188792   7.575   9.252   6.207  1.1886  0.1374 -1.0547
60729SOL    HW288793   7.528   9.118   6.154  2.6211 -0.6083 -0.4705
60730SOL     OW88794   6.216   2.555  12.218  0.3236 -0.1992 -0.5831
60730SOL    HW188795   6.308   2.553  12.192  0.0468 -0.6297 -1.5457
60730SOL    HW288796   6.187   2.644  12.198  0.6061  0.0430  0.0372
60731SOL     OW88797   9.927   8.000   2.116  0.1499  0.1319  0.0893
60731SOL    HW188798   9.860   8.068   2.103 -0.4327 -0.3479  0.5183
60731SOL    HW288799   9.949   8.006   2.209  0.9074  0.4656 -0.1078
60732SOL     OW88800   6.740  10.405   0.011 -0.3344  0.0678 -0.3165
60732SOL    HW188801   6.807  10.453   0.060 -0.4730  1.0364 -1.0435
60732SOL    HW288802   6.741  10.318   0.049  1.6466 -0.0786 -0.5827
60733SOL     OW88803   3.608  11.407   0.161  0.3742 -0.4718 -0.4877
60733SOL    HW188804   3.688  11.373   0.123  0.0784 -2.1245  0.2739
60733SOL    HW288805   3.616  11.388   0.255 -0.1983  0.8282 -0.1470
60734SOL     OW88806   6.528  11.367  12.690  0.4176 -0.2765  0.3022
60734SOL    HW188807   6.594  11.315  12.736  1.4566  0.0782 -0.7477
60734SOL    HW288808   6.465  11.302  12.658  1.8743 -0.9855 -1.2724
60735SOL     OW88809  10.384   4.444  11.237  0.2970  0.1276  0.3371
60735SOL    HW188810  10.453   4.446  11.303 -0.4368  1.7361  1.0923
60735SOL    HW288811  10.413   4.376  11.175  1.5582 -0.6166  1.6738
60736SOL     OW88812   9.742  10.882   6.886 -0.5144 -0.2007  0.4299
60736SOL    HW188813   9.647  10.890   6.877 -0.5006  1.4602  1.3207
60736SOL    HW288814   9.768  10.962   6.932  1.5234  0.1940 -1.2652
60737SOL     OW88815   7.012   1.039  11.982 -0.6884  0.2839  0.5849
60737SOL    HW188816   6.952   1.105  11.947 -0.9559 -1.0169 -1.5248
60737SOL    HW288817   7.081   1.033  11.917  0.7465  0.3126  2.0299
60738SOL     OW88818  12.062   9.964   0.630  0.0394 -0.3801  0.0158
60738SOL    HW188819  11.981   9.936   0.587  0.3096  0.6981 -1.2776
60738SOL    HW288820  12.036  10.041   0.681 -0.0106 -0.8490  0.7052
60739SOL     OW88821  10.557  11.018   8.370  0.4433 -0.1012 -0.3912
60739SOL    HW188822  10.622  11.088   8.380  0.2369  0.0133  0.2277
60739SOL    HW288823  10.485  11.044   8.428 -0.4066  0.0594 -1.4870
60740SOL     OW88824   9.089  10.942   0.863 -0.6464  0.3500 -0.3949
60740SOL    HW188825   9.102  10.912   0.773  1.8398  0.9573 -0.2922
60740SOL    HW288826   9.176  10.940   0.903 -1.2939  2.2905  1.3142
60741SOL     OW88827  12.191   7.428   6.730 -0.5432  0.2639 -0.5263
60741SOL    HW188828  12.247   7.360   6.693  0.3766  0.6016  0.2237
60741SOL    HW288829  12.213   7.430   6.823 -1.5661  0.6350 -0.2751
60742SOL     OW88830   5.960   6.470  11.860  0.4596 -0.3519  0.1125
60742SOL    HW188831   5.899   6.446  11.929  1.0881  0.1684  0.8763
60742SOL    HW288832   6.000   6.551  11.892  2.3122 -1.2307  0.1391
60743SOL     OW88833   6.151  10.698  12.260 -0.8413 -0.1052 -0.2302
60743SOL    HW188834   6.217  10.744  12.208  1.4438 -2.6237  0.2379
60743SOL    HW288835   6.073  10.697  12.204  0.7914 -0.6954 -2.6400
60744SOL     OW88836   5.416   6.946  11.134 -0.1274  0.2368 -0.2565
60744SOL    HW188837   5.446   7.014  11.074  0.9705  0.0305  0.0199
60744SOL    HW288838   5.456   6.865  11.101 -1.3731 -0.2721 -0.5515
60745SOL     OW88839  11.772   8.301   2.304 -0.3152 -0.1819 -0.3706
60745SOL    HW188840  11.758   8.395   2.294 -1.9298 -0.3197  0.2821
60745SOL    HW288841  11.742   8.281   2.393 -0.5544 -1.4094 -0.7056
60746SOL     OW88842   0.598   9.527  12.119 -0.1269  0.1003 -0.2260
60746SOL    HW188843   0.626   9.496  12.033  2.1291  1.6242 -0.1361
60746SOL    HW288844   0.503   9.531  12.114 -0.1343 -1.3773 -2.0885
60747SOL     OW88845  12.710   2.725   2.021  0.3971 -0.3770 -0.2055
60747SOL    HW188846  12.702   2.713   2.115 -0.8998 -0.8125 -0.3568
60747SOL    HW288847  12.678   2.643   1.983 -0.8297  0.4588 -1.0634
60748SOL     OW88848   1.637   7.850   4.535  0.0014  0.2599 -0.1823
60748SOL    HW188849   1.589   7.831   4.454 -0.4667  1.6612 -0.2530
60748SOL    HW288850   1.665   7.764   4.566 -0.3070 -0.3535 -1.5224
60749SOL     OW88851  12.639   1.208   5.082 -0.4110  0.2724 -0.1813
60749SOL    HW188852  12.631   1.113   5.083 -0.0568  0.2096  1.9403
60749SOL    HW288853  12.552   1.239   5.109 -0.0679  0.4680  0.7231
60750SOL     OW88854   3.414  10.874   1.831  0.5238  0.1949  1.3813
60750SOL    HW188855   3.397  10.959   1.791 -0.8823  0.2871  2.1043
60750SOL    HW288856   3.486  10.837   1.780 -0.3328  0.8438 -0.3837
60751SOL     OW88857   0.658   8.943   5.510 -0.2339  0.0807  0.2286
60751SOL    HW188858   0.649   8.936   5.415 -0.8507  0.3289  0.2668
60751SOL    HW288859   0.588   8.889   5.546 -1.8125  2.1691  0.5109
60752SOL     OW88860   4.111   1.711   2.773  0.2857 -0.3694 -1.1802
60752SOL    HW188861   4.127   1.797   2.736 -1.4165  1.7387  2.4280
60752SOL    HW288862   4.197   1.681   2.803  0.7053  0.6903 -1.2904
60753SOL     OW88863   2.712   0.610   1.084  0.1162  0.2998 -0.5997
60753SOL    HW188864   2.670   0.663   1.151  0.8791 -1.0730  1.0191
60753SOL    HW288865   2.806   0.625   1.097  0.3140 -0.9410 -0.5206
60754SOL     OW88866  11.107   9.540   1.041 -0.1739 -0.0842 -0.0982
60754SOL    HW188867  11.030   9.588   1.011  0.7378  1.5367  0.0492
60754SOL    HW288868  11.072   9.474   1.101 -1.4165  1.0316  0.4645
60755SOL     OW88869   6.015   2.118   7.627 -0.1116  0.1183 -0.3240
60755SOL    HW188870   5.949   2.058   7.593 -0.1197  0.0176 -0.1343
60755SOL    HW288871   6.019   2.189   7.563  0.6185 -0.5839 -1.0670
60756SOL     OW88872  10.207   4.202   3.349  0.1157  0.1770  0.5700
60756SOL    HW188873  10.213   4.283   3.300 -0.3617 -0.4038 -0.4669
60756SOL    HW288874  10.148   4.146   3.298 -1.1069 -0.1309  2.2297
60757SOL     OW88875  12.129   7.021   9.933 -0.2563  0.1057 -0.9035
60757SOL    HW188876  12.131   6.970  10.014  0.1975  0.3436 -0.7651
60757SOL    HW288877  12.036   7.037   9.918 -0.4647 -1.3565 -1.3232
60758SOL     OW88878   7.242   4.914   0.565  0.4615  0.5008 -0.0199
60758SOL    HW188879   7.299   4.935   0.492 -0.2312  1.4391 -0.3192
60758SOL    HW288880   7.164   4.968   0.551  0.1777  0.4599  1.2354
60759SOL     OW88881   1.754  12.114   6.254 -0.5568  0.0280 -0.1659
60759SOL    HW188882   1.677  12.059   6.265 -1.0663  0.8658  0.5696
60759SOL    HW288883   1.750  12.176   6.327  1.1172 -0.2776  0.2255
60760SOL     OW88884   5.335   0.239   6.822 -0.1113 -0.1706  0.2746
60760SOL    HW188885   5.279   0.236   6.744  0.5985  2.8569 -0.5115
60760SOL    HW288886   5.352   0.333   6.835  1.9827 -0.7599  2.5097
60761SOL     OW88887   0.228  12.234  11.897  0.2923 -0.0040  0.2828
60761SOL    HW188888   0.164  12.182  11.850  1.0035 -0.7063  0.0757
60761SOL    HW288889   0.191  12.322  11.899 -0.0446 -0.1056 -1.0261
60762SOL     OW88890   9.408   7.706   8.342  0.1452 -0.1018 -0.0385
60762SOL    HW188891   9.421   7.611   8.342 -0.9774 -0.2576  0.5561
60762SOL    HW288892   9.355   7.723   8.264 -0.1061 -0.0285  0.1471
60763SOL     OW88893   9.493   6.264   7.963  0.1673 -0.1049  0.3682
60763SOL    HW188894   9.536   6.236   7.883 -0.7348 -0.1834 -0.1088
60763SOL    HW288895   9.480   6.184   8.013  0.2995 -0.1205  0.3777
60764SOL     OW88896   7.763  12.183   4.211 -0.7476 -0.0335 -0.1745
60764SOL    HW188897   7.736  12.225   4.293 -0.1618 -1.4382  0.7921
60764SOL    HW288898   7.735  12.092   4.221 -1.1211 -0.1148 -1.7751
60765SOL     OW88899  11.858   4.702   1.908  0.2716  0.0122  0.1971
60765SOL    HW188900  11.901   4.709   1.993 -1.8569  1.7513  1.2564
60765SOL    HW288901  11.814   4.617   1.910 -1.6975  0.9729  1.9307
60766SOL     OW88902   3.696   4.075   2.299 -0.5321  0.0163  0.6473
60766SOL    HW188903   3.729   4.163   2.318 -0.1297 -0.2431  1.1969
60766SOL    HW288904   3.733   4.021   2.369 -0.5262 -0.6448  0.1343
60767SOL     OW88905  11.781   5.968  11.815  0.6159 -0.1710  0.0089
60767SOL    HW188906  11.779   6.059  11.844  4.5996  0.0837  0.0160
60767SOL    HW288907  11.763   5.917  11.893  0.5449  0.5843  0.4928
60768SOL     OW88908  10.443  11.625   9.537  0.0691 -0.6611 -0.0768
60768SOL    HW188909  10.506  11.577   9.483  1.1437  0.0955  0.4637
60768SOL    HW288910  10.396  11.558   9.586 -0.2134 -1.2992 -1.1885
60769SOL     OW88911   3.766   8.514   0.804 -0.3614 -0.1224  0.0322
60769SOL    HW188912   3.683   8.524   0.852 -0.8145 -1.3312 -0.4683
60769SOL    HW288913   3.834   8.529   0.870 -0.9707  0.3597  0.5685
60770SOL     OW88914   8.773   9.132   7.698  0.0829  0.4309  0.4042
60770SOL    HW188915   8.854   9.160   7.655 -0.1406  1.1514  0.4449
60770SOL    HW288916   8.796   9.122   7.790  0.0664  0.8762  0.4575
60771SOL     OW88917   2.759   2.857   2.309  0.1329  0.0327 -0.3079
60771SOL    HW188918   2.695   2.800   2.353  1.0891  0.4749  1.7542
60771SOL    HW288919   2.707   2.930   2.276 -0.8930 -1.2686 -1.7149
60772SOL     OW88920   5.447   9.063  10.463 -0.6773  0.4697  0.4507
60772SOL    HW188921   5.415   9.115  10.537 -1.0390 -0.0363  0.6620
60772SOL    HW288922   5.418   8.974  10.483 -2.5106  0.6137 -1.2315
60773SOL     OW88923   6.794   0.554   5.570  0.0850 -0.2189 -0.3245
60773SOL    HW188924   6.771   0.507   5.650  2.5205 -0.7639  0.1496
60773SOL    HW288925   6.781   0.646   5.592 -2.9909 -0.4746 -0.6662
60774SOL     OW88926   6.078   2.236   9.797  0.0213 -0.1886 -0.8417
60774SOL    HW188927   6.171   2.258   9.799  0.1597 -0.6956 -1.4662
60774SOL    HW288928   6.071   2.157   9.851  0.1741 -0.8993 -1.8251
60775SOL     OW88929  11.284  10.818   1.617 -0.2362 -0.0264 -0.4415
60775SOL    HW188930  11.229  10.845   1.690 -0.8967 -0.5300 -0.7346
60775SOL    HW288931  11.372  10.812   1.653 -0.0341  2.4665 -0.3589
60776SOL     OW88932   2.965   3.113   8.197  0.3268  0.4720 -0.2237
60776SOL    HW188933   2.934   3.050   8.262 -0.6172  0.9460 -0.2037
60776SOL    HW288934   2.916   3.193   8.216 -0.8257  0.2988 -2.2332
60777SOL     OW88935   1.237   1.033   3.867  0.1404 -0.1947 -0.1870
60777SOL    HW188936   1.261   1.019   3.959 -1.0622 -1.8378 -0.0830
60777SOL    HW288937   1.316   1.012   3.818  0.9091  1.0565  0.4667
60778SOL     OW88938   3.774   3.685   6.308 -0.1895 -0.3174 -0.0185
60778SOL    HW188939   3.853   3.673   6.361 -0.1556 -0.2139 -0.0449
60778SOL    HW288940   3.717   3.612   6.333  0.4817 -1.2215 -1.0557
60779SOL     OW88941   0.411   2.105   7.115 -0.2523 -0.3452  0.6359
60779SOL    HW188942   0.380   2.160   7.043  0.0581 -0.1438  0.6541
60779SOL    HW288943   0.438   2.023   7.073  0.7251  0.0796  0.4065
60780SOL     OW88944  12.342  11.218   5.334  0.2770  0.2322  0.1967
60780SOL    HW188945  12.324  11.142   5.389 -0.9727 -0.9521 -1.7476
60780SOL    HW288946  12.257  11.263   5.326  0.5037  0.5510 -0.5161
60781SOL     OW88947   5.039   7.887   9.577 -0.1301  0.3139  0.4051
60781SOL    HW188948   5.053   7.909   9.485 -0.1136  1.2235  0.6117
60781SOL    HW288949   5.087   7.955   9.625  1.7823 -1.4213  1.0941
60782SOL     OW88950   7.963   8.523  12.180  0.1040  0.1379  0.0537
60782SOL    HW188951   7.927   8.519  12.092  2.0279 -1.3075 -0.7363
60782SOL    HW288952   7.969   8.432  12.208 -1.1357  0.5990  2.0141
60783SOL     OW88953   5.186   1.969   3.007  0.4328  0.7851 -0.3189
60783SOL    HW188954   5.258   1.934   2.954  0.1679  1.3457 -1.0656
60783SOL    HW288955   5.226   1.988   3.092  0.2332 -3.0023  0.8120
60784SOL     OW88956  10.156   5.524  10.041 -0.4455 -0.0720  0.5409
60784SOL    HW188957  10.114   5.471  10.109  0.5172 -1.5583  0.0229
60784SOL    HW288958  10.244   5.540  10.075 -0.6356  1.0081  0.5692
60785SOL     OW88959   2.251   2.583   1.719 -0.0947 -0.1574 -0.4903
60785SOL    HW188960   2.338   2.549   1.740 -0.3576  0.0555  1.0131
60785SOL    HW288961   2.194   2.547   1.786 -0.6966  1.8399  0.1410
60786SOL     OW88962   4.041  11.448   8.663  0.4635  0.7910 -0.0715
60786SOL    HW188963   3.968  11.388   8.646  0.9811  0.3691 -0.8356
60786SOL    HW288964   4.093  11.405   8.731  0.6300  0.5565 -0.3502
60787SOL     OW88965   2.262   9.019  10.217 -0.3962 -0.0891 -0.5034
60787SOL    HW188966   2.232   9.065  10.138 -0.7468 -0.4363 -0.5715
60787SOL    HW288967   2.203   9.049  10.286 -1.0623 -0.9429 -0.6832
60788SOL     OW88968   8.180   4.611   9.704 -0.0972  0.2551  0.7478
60788SOL    HW188969   8.190   4.699   9.740  0.2572  1.2789 -1.6436
60788SOL    HW288970   8.096   4.614   9.657 -0.4490 -0.9422  1.2654
60789SOL     OW88971   9.813   2.901   5.782 -0.0589 -0.1705 -1.0681
60789SOL    HW188972   9.741   2.931   5.837 -0.5584 -0.2570 -1.6659
60789SOL    HW288973   9.774   2.835   5.725  0.3891  0.1186 -1.7174
60790SOL     OW88974  10.847  11.995   6.848 -0.0643 -0.0321 -0.0975
60790SOL    HW188975  10.790  11.930   6.889  0.6191 -0.6972 -0.1824
60790SOL    HW288976  10.829  12.076   6.896  0.0960 -0.6019  0.9651
60791SOL     OW88977   9.275  12.174   2.895  0.5442 -0.0038  0.0933
60791SOL    HW188978   9.352  12.136   2.938  0.6688 -0.2023 -0.3072
60791SOL    HW288979   9.200  12.138   2.943  0.7128  1.1129  1.2650
60792SOL     OW88980   5.389  12.329   0.686  0.7551  0.4562  0.0178
60792SOL    HW188981   5.428  12.277   0.757 -1.9662 -0.6170  0.8506
60792SOL    HW288982   5.387  12.269   0.611  1.9338  0.9957 -0.4831
60793SOL     OW88983  10.605   2.865   9.567 -0.2124  0.2201 -0.1121
60793SOL    HW188984  10.597   2.942   9.622  1.1581  0.7627 -0.6342
60793SOL    HW288985  10.615   2.792   9.629 -0.8436  0.5298  0.3664
60794SOL     OW88986   6.776   8.264   9.534 -0.2003 -1.0711  0.3214
60794SOL    HW188987   6.820   8.179   9.530  0.7664 -0.5809  0.1781
60794SOL    HW288988   6.833   8.318   9.589 -1.0606 -0.6580  0.8334
60795SOL     OW88989  10.493   5.946  11.255 -0.0014  0.0985 -0.0810
60795SOL    HW188990  10.430   5.877  11.233 -1.3903  0.7039  1.7637
60795SOL    HW288991  10.562   5.938  11.188 -1.3963 -1.3965 -1.4206
60796SOL     OW88992   0.748   8.555   4.040  0.1321 -0.4917  0.0921
60796SOL    HW188993   0.821   8.599   4.084 -0.7452  0.5196  0.5789
60796SOL    HW288994   0.749   8.466   4.075 -0.0202  0.0509  1.5607
60797SOL     OW88995   8.029  12.161   1.247  0.3673 -0.0572 -0.3257
60797SOL    HW188996   8.101  12.178   1.186 -0.7394  0.0447 -1.6477
60797SOL    HW288997   7.997  12.248   1.271 -1.0419 -0.1012 -1.8972
60798SOL     OW88998   8.246   4.806   4.430 -0.4565  0.2565 -0.3578
60798SOL    HW188999   8.335   4.839   4.438 -1.0684  1.9382 -0.1391
60798SOL    HW289000   8.219   4.785   4.520  0.5025 -2.6175 -0.6259
60799SOL     OW89001   6.861   7.119   4.510  0.3363  0.1148 -0.0791
60799SOL    HW189002   6.943   7.162   4.486 -0.5811  1.5093 -0.8460
60799SOL    HW289003   6.803   7.191   4.535 -0.4180 -0.9039  1.2413
60800SOL     OW89004  10.932   7.001   9.066 -0.6302  0.3773 -0.3583
60800SOL    HW189005  10.918   6.906   9.059 -0.5314  0.4875 -2.5219
60800SOL    HW289006  10.971   7.012   9.153  2.2957 -1.9547 -1.2022
60801SOL     OW89007   4.571  11.710  12.261  0.3589  0.2827 -0.7179
60801SOL    HW189008   4.490  11.681  12.218  1.1580 -2.8951 -0.3122
60801SOL    HW289009   4.557  11.692  12.354  1.1521  0.7306 -0.5045
60802SOL     OW89010   4.627   1.680   0.119  0.3743  0.2193 -0.0195
60802SOL    HW189011   4.688   1.649   0.053 -0.7402 -0.5027 -0.7396
60802SOL    HW289012   4.603   1.768   0.090  1.4668  0.7391  0.5714
60803SOL     OW89013   8.053   6.827   0.858 -0.4590  0.1051 -0.1447
60803SOL    HW189014   8.085   6.914   0.836 -0.4081  0.6148  1.7402
60803SOL    HW289015   7.961   6.828   0.831 -0.5929  0.9253  0.3023
60804SOL     OW89016   9.225  11.653   3.839 -0.2460 -0.1226  0.4390
60804SOL    HW189017   9.275  11.707   3.778 -1.3185 -1.4891 -1.7918
60804SOL    HW289018   9.267  11.567   3.833 -2.4714 -1.2100 -1.2166
60805SOL     OW89019   9.410   9.217   7.028  0.5810  0.4118  0.6589
60805SOL    HW189020   9.430   9.156   7.098  0.0937 -1.9420 -1.1154
60805SOL    HW289021   9.470   9.194   6.957 -1.5171 -0.0277 -1.0921
60806SOL     OW89022   4.253   9.366   2.309 -0.0452 -0.1960  0.4715
60806SOL    HW189023   4.233   9.420   2.385 -4.2047  0.8460 -1.1162
60806SOL    HW289024   4.240   9.424   2.233  0.7456 -2.0181 -1.1537
60807SOL     OW89025   5.371   6.797  10.054  0.1979 -0.6478 -0.2067
60807SOL    HW189026   5.318   6.722  10.027 -0.8437  0.0435 -0.1563
60807SOL    HW289027   5.445   6.759  10.101 -0.0627 -1.6592 -0.6011
60808SOL     OW89028  10.356   8.451   5.173  0.3031  0.2601 -0.2827
60808SOL    HW189029  10.440   8.486   5.202 -0.1493  1.1956 -0.0543
60808SOL    HW289030  10.321   8.404   5.248 -1.2862  3.4315  1.1755
60809SOL     OW89031   1.333   4.369   6.564  0.7392  0.5562 -0.4240
60809SOL    HW189032   1.418   4.377   6.609  0.0708  0.7545  0.8416
60809SOL    HW289033   1.337   4.283   6.522  1.9537  0.9821 -1.2293
60810SOL     OW89034  12.213   8.970   7.466 -0.0604 -0.2942 -0.2099
60810SOL    HW189035  12.136   8.919   7.439 -0.5367  0.8385 -1.0639
60810SOL    HW289036  12.177   9.052   7.499  0.7667  0.0807 -0.2278
60811SOL     OW89037  12.586   3.828   4.818  0.1818  0.0855  0.3015
60811SOL    HW189038  12.582   3.835   4.914  1.8340 -0.1792  0.4204
60811SOL    HW289039  12.531   3.753   4.797 -0.1881  0.1356  1.0457
60812SOL     OW89040  12.588   2.677   4.409  0.1615  0.1954  0.7324
60812SOL    HW189041  12.567   2.603   4.466  0.1235  0.7252  1.4273
60812SOL    HW289042  12.652   2.642   4.347  0.5490 -0.2934  1.3872
60813SOL     OW89043   0.742   3.631  12.248  0.0086 -0.2171  0.1473
60813SOL    HW189044   0.733   3.608  12.341  1.8110  1.7414  0.9031
60813SOL    HW289045   0.793   3.559  12.210 -1.0196 -1.1960  0.5538
60814SOL     OW89046   1.443  10.176   5.027  0.2779  0.2392  0.4532
60814SOL    HW189047   1.349  10.165   5.042  0.4088 -0.4989  0.7849
60814SOL    HW289048   1.476  10.087   5.016  1.2650  0.3023  2.4219
60815SOL     OW89049  12.629  11.788   1.301  0.2046 -0.1822 -0.0834
60815SOL    HW189050  12.542  11.784   1.340 -0.1944 -0.2730 -0.9566
60815SOL    HW289051  12.683  11.830   1.368 -0.7328  0.8087  0.0842
60816SOL     OW89052   8.847   2.809   5.899  0.2532 -0.1867  0.4755
60816SOL    HW189053   8.818   2.882   5.954  0.0003  0.2621 -0.2439
60816SOL    HW289054   8.772   2.749   5.898  0.6700 -0.7506  1.5425
60817SOL     OW89055   8.092   0.045   4.575  0.0217 -0.8127  0.1803
60817SOL    HW189056   8.068   0.043   4.482  1.8543 -1.1811 -0.3346
60817SOL    HW289057   8.009   0.058   4.621 -0.7878  0.7660 -1.5653
60818SOL     OW89058   8.166  11.104   4.869 -0.0129  0.3803  0.5849
60818SOL    HW189059   8.133  11.015   4.882  3.1986 -1.3766 -1.8450
60818SOL    HW289060   8.134  11.129   4.782 -0.6179  1.5111  1.1126
60819SOL     OW89061   7.747  10.908   7.570 -0.1408  0.3829 -0.2553
60819SOL    HW189062   7.669  10.929   7.621  0.3425  1.5044  0.0554
60819SOL    HW289063   7.727  10.938   7.481 -1.0438 -1.7138 -0.8052
60820SOL     OW89064   2.309   1.359   3.172  0.0999  0.3809 -0.3016
60820SOL    HW189065   2.348   1.444   3.150 -0.3753  0.8941  0.7666
60820SOL    HW289066   2.267   1.330   3.091 -0.1872  1.4187 -0.5389
60821SOL     OW89067   4.500  11.791   9.337  0.1335 -0.2307  0.1021
60821SOL    HW189068   4.458  11.760   9.417 -0.0313 -0.9405 -0.2518
60821SOL    HW289069   4.539  11.875   9.362  0.1582 -0.4774  0.9474
60822SOL     OW89070   1.348  11.465   2.624  0.6922 -0.0235  0.1465
60822SOL    HW189071   1.308  11.520   2.692  2.2245  0.9605  0.2991
60822SOL    HW289072   1.305  11.494   2.543 -0.1539 -0.2413  0.5020
60823SOL     OW89073   2.744  11.129   9.840 -0.6352 -0.3505 -0.7588
60823SOL    HW189074   2.664  11.136   9.787 -1.5966 -0.8495  0.5701
60823SOL    HW289075   2.736  11.199   9.905  0.3515  0.0208 -1.0235
60824SOL     OW89076   7.238   2.957   9.513 -0.1083 -0.2466 -0.5737
60824SOL    HW189077   7.174   2.933   9.580 -0.0208  0.5500 -0.1939
60824SOL    HW289078   7.192   3.021   9.459  0.1266 -0.2149 -0.7359
60825SOL     OW89079   3.659   2.592   5.044  0.1334  0.1503  0.5296
60825SOL    HW189080   3.652   2.687   5.056 -0.5289 -0.0072  1.4778
60825SOL    HW289081   3.573   2.566   5.010  0.3354 -0.1139  0.2120
60826SOL     OW89082  12.747   5.578  12.446 -0.3551 -0.0408  0.1242
60826SOL    HW189083  12.701   5.494  12.450 -0.5422  0.0552 -0.0227
60826SOL    HW289084  12.728   5.612  12.359  0.7478 -0.4287 -0.2945
60827SOL     OW89085  11.466   5.051   4.292  0.6919  0.1184 -0.5108
60827SOL    HW189086  11.462   5.090   4.205  1.3552  0.5355 -0.3640
60827SOL    HW289087  11.559   5.040   4.309  0.5909  0.5276  0.3554
60828SOL     OW89088   2.999   5.103   8.816 -0.3128 -0.2448  0.2570
60828SOL    HW189089   2.989   5.064   8.730 -0.4129  0.1947  0.0675
60828SOL    HW289090   3.080   5.065   8.850  0.7935  1.0094 -0.8284
60829SOL     OW89091   2.682  10.208   9.282  0.5473 -0.2003 -0.5684
60829SOL    HW189092   2.726  10.281   9.327  0.5807 -0.7751  0.3479
60829SOL    HW289093   2.589  10.222   9.299  0.6103 -0.8504  0.3610
60830SOL     OW89094   7.520   6.687   8.860 -0.3688 -0.0174  0.2064
60830SOL    HW189095   7.426   6.697   8.874 -0.6669 -2.1031  0.0983
60830SOL    HW289096   7.553   6.656   8.944  0.6559  2.7095  0.9147
60831SOL     OW89097  10.737   1.363   7.144 -0.3693 -0.1580 -0.9251
60831SOL    HW189098  10.768   1.436   7.198 -0.9712  0.8272 -1.8697
60831SOL    HW289099  10.727   1.400   7.056  0.7113 -1.7455 -1.7879
60832SOL     OW89100   8.710  12.245   9.694 -0.8194 -0.2104  0.6557
60832SOL    HW189101   8.729  12.221   9.785  0.5627 -3.5908 -0.3919
60832SOL    HW289102   8.784  12.299   9.667  0.8030 -2.4221  0.4698
60833SOL     OW89103   9.409   2.561  11.831 -0.1738  0.3132 -0.3662
60833SOL    HW189104   9.454   2.481  11.804 -0.3308 -0.6079  1.9159
60833SOL    HW289105   9.393   2.550  11.924 -3.3573  1.4706 -0.6495
60834SOL     OW89106   2.115   5.006  10.811  0.1473 -0.6869 -0.3207
60834SOL    HW189107   2.201   4.966  10.829  0.1407 -0.4698  0.2231
60834SOL    HW289108   2.061   4.934  10.779  0.8229 -0.6226 -1.6684
60835SOL     OW89109   0.736  10.953  10.188 -0.2518  0.0842  0.1031
60835SOL    HW189110   0.721  10.885  10.122 -0.1042  1.2627 -1.1971
60835SOL    HW289111   0.816  10.997  10.159 -0.7965  1.3383  0.4402
60836SOL     OW89112   2.265   6.349   6.660  0.0452  0.8596 -0.0170
60836SOL    HW189113   2.348   6.323   6.702 -0.0149  0.3591 -0.1941
60836SOL    HW289114   2.198   6.316   6.719 -0.0304  1.9157  0.5037
60837SOL     OW89115   7.131  10.894   1.274 -0.3234  0.0067 -0.5363
60837SOL    HW189116   7.064  10.962   1.285  1.5119  1.8036  0.1234
60837SOL    HW289117   7.211  10.933   1.310  1.5060 -1.3993 -2.8108
60838SOL     OW89118   2.051  12.608   3.102 -0.1735 -0.4388 -0.0081
60838SOL    HW189119   2.012  12.662   3.171  0.6543  0.5992 -0.3253
60838SOL    HW289120   2.121  12.662   3.066  2.7072 -2.7958  1.5860
60839SOL     OW89121  12.536  10.363   8.571  0.0819 -0.0102 -0.1692
60839SOL    HW189122  12.526  10.458   8.570 -0.9513 -0.0975  0.7291
60839SOL    HW289123  12.458  10.330   8.527  0.5323 -0.4456 -0.6569
60840SOL     OW89124  12.507  11.857   5.787  0.1459 -0.7349  0.2459
60840SOL    HW189125  12.553  11.787   5.740  1.7466  0.8919 -0.7466
60840SOL    HW289126  12.548  11.859   5.873 -1.1523 -2.1373  0.9584
60841SOL     OW89127   0.337   9.078   5.957  0.0224  0.5186 -0.4888
60841SOL    HW189128   0.367   9.129   6.032  0.9903  0.0779 -0.5630
60841SOL    HW289129   0.372   8.990   5.972 -0.8111  0.1150 -0.8481
60842SOL     OW89130   4.558   7.445   3.279 -0.0060  0.1016 -0.2118
60842SOL    HW189131   4.637   7.475   3.323  0.5831 -1.5273 -0.1285
60842SOL    HW289132   4.487   7.469   3.339  0.3996  1.5207 -0.2635
60843SOL     OW89133  12.163  10.798   2.672  0.4002  0.2371 -0.0099
60843SOL    HW189134  12.206  10.785   2.757  0.4598 -1.7276 -0.2820
60843SOL    HW289135  12.101  10.725   2.666  0.4541  0.3028 -1.6825
60844SOL     OW89136   3.138  11.455   6.334  0.1563 -0.0553  0.1380
60844SOL    HW189137   3.099  11.373   6.304 -2.4205  1.5851 -1.4791
60844SOL    HW289138   3.094  11.473   6.417  2.6004 -1.4416  1.8567
60845SOL     OW89139   0.580   0.406   4.437 -0.0558  0.1025 -0.3014
60845SOL    HW189140   0.494   0.401   4.480 -0.6140 -0.1758 -1.4290
60845SOL    HW289141   0.626   0.475   4.485 -1.2812  0.9811 -0.3423
60846SOL     OW89142   1.490  12.274   6.099  0.3819 -0.4437 -0.0292
60846SOL    HW189143   1.513  12.205   6.161  1.1587 -0.5494 -0.4234
60846SOL    HW289144   1.406  12.246   6.062  0.3535 -0.8270  0.3200
60847SOL     OW89145   1.401   3.438   8.341 -0.2633  0.0207  0.2700
60847SOL    HW189146   1.402   3.463   8.249  0.1161  0.7938  0.4767
60847SOL    HW289147   1.339   3.498   8.382 -1.0968 -0.8855  0.3787
60848SOL     OW89148   8.209   8.473   3.385  0.0765 -0.4220 -0.5426
60848SOL    HW189149   8.227   8.567   3.385  1.6711 -0.6563  1.6325
60848SOL    HW289150   8.225   8.446   3.475 -1.4744 -2.5982 -0.8696
60849SOL     OW89151   1.269   6.767   0.984 -0.2702  0.4002  0.1629
60849SOL    HW189152   1.175   6.783   0.981 -0.0748  1.6226  0.3662
60849SOL    HW289153   1.307   6.848   1.017  0.7067 -0.6839  1.9112
60850SOL     OW89154   6.097   4.870   8.731  0.2042  0.1267 -0.1899
60850SOL    HW189155   6.028   4.881   8.797 -0.1645 -1.1639 -0.3269
60850SOL    HW289156   6.176   4.853   8.782 -0.0199 -0.5609 -0.0572
60851SOL     OW89157  10.147   2.790  10.968  0.8605  0.1557  0.6895
60851SOL    HW189158  10.232   2.823  10.997  0.7175 -0.1002  1.4067
60851SOL    HW289159  10.168   2.708  10.923  0.9336 -0.2674  1.4791
60852SOL     OW89160   7.640   1.974   2.151 -0.5354 -0.1062  0.4419
60852SOL    HW189161   7.625   2.066   2.127 -0.4347  0.3692  2.0391
60852SOL    HW289162   7.735   1.966   2.157 -0.3874 -1.0551 -2.2353
60853SOL     OW89163   9.068   9.864  11.692  0.2547 -0.1444  0.5210
60853SOL    HW189164   9.118   9.887  11.614 -0.8771 -1.0018 -0.4992
60853SOL    HW289165   9.002   9.801  11.661 -0.6727  0.0277  2.0290
60854SOL     OW89166   6.324   3.605  10.297  0.4749  0.1449 -0.1901
60854SOL    HW189167   6.394   3.637  10.241  2.5023  0.6824  2.4758
60854SOL    HW289168   6.338   3.510  10.302  0.2314  0.0826 -0.6245
60855SOL     OW89169   8.763   7.609   3.713 -0.2048  0.2569  0.2440
60855SOL    HW189170   8.824   7.535   3.715 -2.7136 -1.9580  1.0606
60855SOL    HW289171   8.819   7.686   3.716  2.6130 -1.5354 -1.4483
60856SOL     OW89172   5.540   7.148   4.614 -0.4940 -0.0542 -0.1678
60856SOL    HW189173   5.578   7.171   4.529  1.9455 -0.9515  0.6071
60856SOL    HW289174   5.489   7.225   4.639  0.0853  0.8674 -1.6845
60857SOL     OW89175  11.224   9.222  10.626  0.3606  0.1838  0.2224
60857SOL    HW189176  11.274   9.272  10.691  2.1240 -0.7602 -0.3487
60857SOL    HW289177  11.225   9.277  10.547  1.7708 -0.4511 -0.2219
60858SOL     OW89178  11.299   3.312  11.659 -0.7061 -0.2788  0.2543
60858SOL    HW189179  11.263   3.396  11.635  3.3159  1.7260  0.3212
60858SOL    HW289180  11.258   3.249  11.600 -2.5130  1.9632 -1.0161
60859SOL     OW89181  11.275   6.122  10.893 -0.1580  0.3131  0.1639
60859SOL    HW189182  11.222   6.202  10.890 -0.2216  0.2922  0.7047
60859SOL    HW289183  11.214   6.052  10.874  0.1727  0.5023 -1.8346
60860SOL     OW89184   7.766   5.621   9.444 -0.1029 -0.4577 -0.6262
60860SOL    HW189185   7.761   5.711   9.478 -2.2890 -1.4740  2.2144
60860SOL    HW289186   7.811   5.629   9.360 -0.3122  3.2871 -0.5463
60861SOL     OW89187  10.198   1.671   6.303 -0.2106 -0.2024  0.6262
60861SOL    HW189188  10.197   1.576   6.308  2.3843 -0.3027  0.7245
60861SOL    HW289189  10.167   1.701   6.388 -0.8711 -0.9389  0.6526
60862SOL     OW89190  10.242   1.131   9.546  0.3478  0.3874 -0.4286
60862SOL    HW189191  10.224   1.190   9.619 -0.7243 -0.4223 -0.0160
60862SOL    HW289192  10.259   1.046   9.587 -2.8845 -0.7392 -1.1591
60863SOL     OW89193   9.656   0.920   5.770  0.3533  0.1386  0.3973
60863SOL    HW189194   9.594   0.951   5.704  0.9848  0.7544  0.0827
60863SOL    HW289195   9.639   0.973   5.847  0.9147  0.7566  0.1043
60864SOL     OW89196   6.250   5.689   9.459 -0.4360  0.8521  0.1268
60864SOL    HW189197   6.314   5.628   9.423 -1.3005  0.4224 -0.7306
60864SOL    HW289198   6.228   5.653   9.545  0.8751  1.3214  0.6893
60865SOL     OW89199  12.087   2.481   9.777  0.1271 -0.3655 -0.5738
60865SOL    HW189200  12.157   2.524   9.728  1.2502 -1.5346 -0.0807
60865SOL    HW289201  12.008   2.495   9.725  0.7982  0.6564 -1.3485
60866SOL     OW89202   2.375   0.131  11.530 -0.2872  0.0486  0.2690
60866SOL    HW189203   2.337   0.056  11.484 -1.2104  0.2310  0.7184
60866SOL    HW289204   2.359   0.114  11.623  0.5336  0.2444  0.4558
60867SOL     OW89205  11.090   8.825   5.657 -0.2051 -0.0677 -0.7130
60867SOL    HW189206  11.183   8.845   5.665 -0.5709  1.4836  0.0654
60867SOL    HW289207  11.085   8.730   5.662  1.1513 -0.0782  1.6269
60868SOL     OW89208   5.528   4.003   0.697 -0.1038 -0.4035  0.2249
60868SOL    HW189209   5.440   3.966   0.703 -0.0452 -0.9753 -1.7494
60868SOL    HW289210   5.586   3.927   0.690  0.4454 -0.0175  0.5235
60869SOL     OW89211  11.812   1.704   6.394  0.2728  0.1755  0.0200
60869SOL    HW189212  11.858   1.679   6.474 -0.5335 -0.0234  0.4268
60869SOL    HW289213  11.824   1.798   6.387  0.1226  0.2338  0.5193
60870SOL     OW89214   0.380  10.687  11.015 -0.4644 -0.3769  0.3780
60870SOL    HW189215   0.422  10.669  10.931 -0.0790  1.0489  0.2389
60870SOL    HW289216   0.303  10.739  10.993  1.1229  2.4565  1.0262
60871SOL     OW89217   4.501   1.991   5.340 -0.2303 -0.1329 -0.2980
60871SOL    HW189218   4.460   1.905   5.346  1.9152 -1.2323 -0.4356
60871SOL    HW289219   4.472   2.025   5.255  1.1006 -1.9885 -1.5806
60872SOL     OW89220   0.223   4.123   0.385 -0.2526 -0.2549 -0.1552
60872SOL    HW189221   0.179   4.157   0.307  0.0362 -1.1493 -0.7192
60872SOL    HW289222   0.248   4.034   0.362 -0.3178 -0.5978  1.0270
60873SOL     OW89223   9.661   4.844   7.546 -0.2135 -0.0429  0.7047
60873SOL    HW189224   9.706   4.927   7.532 -1.0438  0.2196 -0.5742
60873SOL    HW289225   9.591   4.865   7.608 -1.1087  0.5116 -0.4315
60874SOL     OW89226   8.342   1.599   0.517  0.1211  0.1311  0.1475
60874SOL    HW189227   8.314   1.513   0.548 -0.7919  0.0273 -0.9076
60874SOL    HW289228   8.269   1.630   0.463  0.6205  1.3817  0.1609
60875SOL     OW89229   2.533   1.094   7.174  0.0136  0.1407 -0.3973
60875SOL    HW189230   2.512   1.020   7.231  0.4154  0.3947  0.0970
60875SOL    HW289231   2.450   1.118   7.133 -1.0963  2.0933  2.6361
60876SOL     OW89232   1.619   9.158   3.031  0.0721  0.2440  0.3995
60876SOL    HW189233   1.587   9.093   3.094  0.0384  1.2015  1.4117
60876SOL    HW289234   1.711   9.136   3.019 -0.3542 -1.0614 -0.6618
60877SOL     OW89235  10.884   2.358  11.363  0.6100  1.2492 -0.5078
60877SOL    HW189236  10.930   2.422  11.309  1.3725  0.6876 -0.5413
60877SOL    HW289237  10.939   2.279  11.358 -0.4639  0.4999 -0.7053
60878SOL     OW89238   9.582   5.359   0.107 -0.0916 -0.3710 -0.7515
60878SOL    HW189239   9.668   5.318   0.110  0.6215  0.9896 -1.6637
60878SOL    HW289240   9.538   5.318   0.033 -0.5256 -1.5489  0.1178
60879SOL     OW89241   8.480   7.472   1.103  0.6128  0.3343 -0.4427
60879SOL    HW189242   8.505   7.550   1.153  0.0921 -0.2294  0.7497
60879SOL    HW289243   8.392   7.450   1.136  0.3626 -0.2091 -1.4383
60880SOL     OW89244   5.426   1.444   1.958  0.1898  0.1479 -0.1110
60880SOL    HW189245   5.346   1.405   1.925  0.3236  0.0569 -0.3306
60880SOL    HW289246   5.482   1.370   1.981  0.1423  0.2101  0.2136
60881SOL     OW89247   3.388   1.506   7.138 -0.0272 -0.3748  0.5995
60881SOL    HW189248   3.361   1.434   7.195 -0.6943 -1.1168 -0.6016
60881SOL    HW289249   3.413   1.463   7.056 -1.8932  0.8131 -0.6891
60882SOL     OW89250   4.781   2.974  12.298  0.2512  0.2316 -0.3555
60882SOL    HW189251   4.876   2.973  12.289  0.2121  1.0679 -1.0636
60882SOL    HW289252   4.756   2.882  12.303  1.0241 -0.0295 -1.0806
60883SOL     OW89253   6.670   7.774  12.115  0.2285 -0.7776 -0.2386
60883SOL    HW189254   6.701   7.735  12.196  0.4238 -0.9945 -0.4149
60883SOL    HW289255   6.594   7.721  12.091 -0.2336 -0.3024  0.1463
60884SOL     OW89256  11.896  10.707   5.782 -0.2832 -0.6443 -0.0883
60884SOL    HW189257  11.874  10.797   5.806  0.5902 -0.2778 -0.6289
60884SOL    HW289258  11.877  10.702   5.688  0.4845 -0.7678 -0.2431
60885SOL     OW89259   8.445  11.777   4.485 -0.3239  0.3890  0.8528
60885SOL    HW189260   8.488  11.696   4.512 -0.8212 -0.3405 -0.4761
60885SOL    HW289261   8.359  11.774   4.528 -0.7628 -0.3331 -0.0365
60886SOL     OW89262   3.027  10.240  11.822 -0.1402 -0.2725 -0.0022
60886SOL    HW189263   3.017  10.198  11.907 -1.2584 -0.1899 -0.0845
60886SOL    HW289264   2.947  10.217  11.774  1.0055 -1.3726 -1.4959
60887SOL     OW89265   5.534   0.561   8.389  0.0137  0.0269  0.1024
60887SOL    HW189266   5.524   0.656   8.398 -0.5018  0.0714 -0.8165
60887SOL    HW289267   5.628   0.545   8.399  0.0082  0.5315  1.0687
60888SOL     OW89268   8.714   6.777   2.761 -0.0727 -0.3753 -0.2244
60888SOL    HW189269   8.660   6.838   2.811 -0.0783 -1.0878  0.6735
60888SOL    HW289270   8.803   6.794   2.790 -0.1445 -1.2539  0.5660
60889SOL     OW89271   5.682   5.555   9.556  0.3853 -0.2315  0.4600
60889SOL    HW189272   5.747   5.545   9.487  0.7238  0.4498  0.6662
60889SOL    HW289273   5.614   5.611   9.517 -0.6842 -1.8544 -0.1450
60890SOL     OW89274  11.368   4.611   1.302  0.3605  0.5519  0.1173
60890SOL    HW189275  11.297   4.547   1.306  0.7688 -0.0736 -1.6722
60890SOL    HW289276  11.326   4.690   1.267  0.6735 -0.1070 -1.8660
60891SOL     OW89277   8.678   8.107   9.513  0.1744  0.2099 -0.2649
60891SOL    HW189278   8.664   8.174   9.447 -0.2571  0.7334  0.3479
60891SOL    HW289279   8.591   8.089   9.548 -0.1107 -2.3701 -2.0199
60892SOL     OW89280   5.911   1.443   9.846  0.0233  0.4732  0.3673
60892SOL    HW189281   5.937   1.398   9.926 -0.4931 -0.6563 -0.0732
60892SOL    HW289282   5.868   1.523   9.876  0.4940  0.4207  1.1909
60893SOL     OW89283   8.698   7.579   9.612 -0.1991 -0.4141 -0.2250
60893SOL    HW189284   8.667   7.669   9.623 -1.5632 -0.7820 -0.7449
60893SOL    HW289285   8.675   7.535   9.694 -0.1694 -0.4462 -0.2342
60894SOL     OW89286  12.201  12.471   8.240 -0.3460 -0.3487 -0.3552
60894SOL    HW189287  12.150  12.501   8.165 -0.5896 -0.7477 -0.3508
60894SOL    HW289288  12.137  12.460   8.310 -0.2140 -0.5697 -0.2655
60895SOL     OW89289   5.332   2.003   5.461 -0.5243 -0.3326  0.0665
60895SOL    HW189290   5.315   2.029   5.370 -0.7728 -0.1276  0.1696
60895SOL    HW289291   5.413   1.952   5.457  0.2987  0.9207 -0.0806
60896SOL     OW89292   0.404  12.334   4.139 -0.3580  0.1888 -0.1832
60896SOL    HW189293   0.375  12.291   4.219  1.0687  0.1672  0.3537
60896SOL    HW289294   0.362  12.420   4.141 -1.1382 -0.1976  0.0649
60897SOL     OW89295  12.387  10.236   4.104 -0.1944 -0.2040 -0.1523
60897SOL    HW189296  12.366  10.145   4.081  0.6540 -0.0396 -1.7147
60897SOL    HW289297  12.471  10.252   4.061  1.4402  0.2657  2.9105
60898SOL     OW89298  11.837  10.819   7.221 -0.1170 -0.1608 -0.1805
60898SOL    HW189299  11.901  10.748   7.209 -1.8470 -1.6871 -0.7556
60898SOL    HW289300  11.757  10.775   7.250 -0.8389  1.7426  0.8837
60899SOL     OW89301  11.340   4.212   1.445  0.4083 -0.1411  0.6199
60899SOL    HW189302  11.344   4.248   1.534 -0.0892  0.4360  0.4158
60899SOL    HW289303  11.300   4.126   1.456  0.5941 -0.1860  0.9829
60900SOL     OW89304   8.052   9.419   9.185 -0.1581 -0.1448 -0.5656
60900SOL    HW189305   8.018   9.465   9.262  2.3376 -0.7371  0.9696
60900SOL    HW289306   8.147   9.428   9.191  0.2580 -2.7900 -1.9576
60901SOL     OW89307   7.494   1.799   5.652 -0.0622  0.1941 -0.6952
60901SOL    HW189308   7.472   1.882   5.610 -1.4865  0.4569  0.4831
60901SOL    HW289309   7.511   1.739   5.580  0.3878  1.3494 -1.5776
60902SOL     OW89310   0.990   9.182   1.349 -0.4531 -0.5961  0.5198
60902SOL    HW189311   0.987   9.113   1.415 -2.3436 -0.5636  0.5061
60902SOL    HW289312   0.983   9.135   1.265 -0.9227 -0.4432  0.4725
60903SOL     OW89313   6.611   1.934   3.228 -0.0550 -0.3264  0.7431
60903SOL    HW189314   6.540   1.998   3.238 -0.1439 -0.2629 -0.2286
60903SOL    HW289315   6.571   1.850   3.248 -0.2758 -0.2293  0.7094
60904SOL     OW89316   4.000  11.679   2.602  0.3378 -0.3213 -0.4310
60904SOL    HW189317   4.046  11.625   2.537  0.3488 -1.6957  0.6726
60904SOL    HW289318   3.912  11.642   2.607 -1.1116  2.4346 -2.6922
60905SOL     OW89319   4.473   6.821   3.359 -0.3900 -0.0382  0.1159
60905SOL    HW189320   4.524   6.809   3.279 -1.6527 -1.9785 -0.4643
60905SOL    HW289321   4.416   6.896   3.339  0.8914  0.9801  0.1150
60906SOL     OW89322   6.182   0.648   2.737 -0.5474  0.3118  0.2778
60906SOL    HW189323   6.198   0.684   2.650 -3.2424 -0.1229 -0.4791
60906SOL    HW289324   6.229   0.706   2.796 -0.8577  2.2339 -1.2723
60907SOL     OW89325   3.191   8.748   4.104  0.1922  0.4079 -0.1205
60907SOL    HW189326   3.284   8.761   4.088  0.6190 -0.8178  1.1924
60907SOL    HW289327   3.148   8.806   4.041  1.8451  2.4338  0.4967
60908SOL     OW89328   1.350   2.140  12.767  0.3358  0.0769  0.7228
60908SOL    HW189329   1.350   2.228  12.805 -2.0857  0.3506  0.2690
60908SOL    HW289330   1.275   2.139  12.708  0.8772 -2.0132 -0.0392
60909SOL     OW89331   2.283   5.561  12.339 -0.4978  0.1187  0.0054
60909SOL    HW189332   2.192   5.562  12.309 -0.7149 -0.9634  0.5979
60909SOL    HW289333   2.328   5.621  12.279 -1.2287 -0.7761 -1.5096
60910SOL     OW89334   8.136   7.922   6.023  0.0051  0.4853 -0.5148
60910SOL    HW189335   8.076   7.982   6.068  0.4872  0.0490  0.7692
60910SOL    HW289336   8.129   7.945   5.931 -1.8702  0.6824 -0.3603
60911SOL     OW89337   3.402   3.543   3.490  0.0167  0.3713  0.2103
60911SOL    HW189338   3.451   3.522   3.411 -1.1557  1.1121 -0.7577
60911SOL    HW289339   3.435   3.483   3.557  0.9690 -0.3278 -0.8679
60912SOL     OW89340   4.740   6.559   8.851 -0.5795 -0.8331 -0.6440
60912SOL    HW189341   4.723   6.653   8.857  0.4947 -0.7042  1.1439
60912SOL    HW289342   4.827   6.553   8.812 -0.3973 -1.0443 -0.2155
60913SOL     OW89343   8.533   7.362   4.545  0.1599 -0.2764 -0.2999
60913SOL    HW189344   8.494   7.399   4.624 -1.7374 -0.0258 -1.3024
60913SOL    HW289345   8.592   7.294   4.578 -0.2830  0.0728  1.3314
60914SOL     OW89346   8.089   1.558   1.837  0.4039  0.6116  0.0931
60914SOL    HW189347   8.141   1.583   1.761 -1.3092  2.2690 -0.6086
60914SOL    HW289348   8.101   1.630   1.899 -0.5677  0.7182  0.1615
60915SOL     OW89349   1.437  11.909   0.305  0.2004 -0.7581 -0.5562
60915SOL    HW189350   1.395  11.874   0.226  0.7333 -0.2034 -1.0948
60915SOL    HW289351   1.505  11.844   0.326 -1.3004 -2.0145  0.7143
60916SOL     OW89352   1.462   6.917   9.608 -0.2143  0.3558  0.0927
60916SOL    HW189353   1.368   6.906   9.623 -0.2872  1.5029  0.5797
60916SOL    HW289354   1.478   7.010   9.619  0.6582  0.5049 -1.9264
60917SOL     OW89355  10.259  11.435   8.532  0.4146  0.4074 -0.6218
60917SOL    HW189356  10.259  11.429   8.436 -0.3570  1.0538 -0.6654
60917SOL    HW289357  10.172  11.405   8.558  0.5159  0.5261 -0.1369
60918SOL     OW89358  10.977   8.350   0.739 -0.7471  0.0464 -0.4886
60918SOL    HW189359  10.989   8.281   0.804 -0.8957 -1.0029 -1.5575
60918SOL    HW289360  11.043   8.416   0.762 -1.3854  0.1239  1.2555
60919SOL     OW89361   1.004   7.929   5.889 -0.2147  0.5865 -0.0857
60919SOL    HW189362   1.074   7.966   5.941  0.9046  0.0968 -1.1784
60919SOL    HW289363   1.045   7.857   5.840 -1.6364 -0.1851 -0.2294
60920SOL     OW89364  12.037  11.329   4.837  0.5653 -0.1978  0.1904
60920SOL    HW189365  12.014  11.239   4.814  1.4054 -0.1655 -0.8547
60920SOL    HW289366  12.061  11.325   4.929  3.2424 -1.6255 -0.4672
60921SOL     OW89367   1.351  10.331   7.645  0.1739 -0.2246 -0.2102
60921SOL    HW189368   1.349  10.247   7.600 -1.1913 -0.2740 -0.1126
60921SOL    HW289369   1.425  10.378   7.606  0.7528 -1.3421 -0.4839
60922SOL     OW89370   8.480   0.450   2.428 -0.1854  0.4894 -0.0629
60922SOL    HW189371   8.473   0.362   2.464 -1.0776  0.3787 -0.4775
60922SOL    HW289372   8.450   0.507   2.499 -1.7916  0.2819 -0.5366
60923SOL     OW89373  11.243   7.173  11.031  0.1980  0.1532  0.1747
60923SOL    HW189374  11.295   7.164  10.951  1.6513  2.2346  0.8042
60923SOL    HW289375  11.158   7.206  11.000  0.6065  0.5484 -0.5616
60924SOL     OW89376  11.493  12.680   7.792  0.6352 -0.1684  0.5758
60924SOL    HW189377  11.582  12.683   7.827  0.2163 -0.2062  1.6919
60924SOL    HW289378  11.497  12.612   7.725  0.9537 -1.7862  2.1446
60925SOL     OW89379   4.337   1.043   3.967  0.1871  0.5485  0.4266
60925SOL    HW189380   4.289   0.996   4.036  0.2871 -2.4441 -1.3515
60925SOL    HW289381   4.360   1.127   4.007 -3.3041  0.6806  2.6102
60926SOL     OW89382   0.561   7.026  12.643  0.2879 -0.0659  0.0425
60926SOL    HW189383   0.571   7.071  12.559 -1.8380  0.6970  0.1299
60926SOL    HW289384   0.547   7.096  12.707  1.0035 -0.6804  0.8873
60927SOL     OW89385   8.697  12.547   9.156  0.3645 -0.2770  0.2885
60927SOL    HW189386   8.725  12.636   9.137  1.2662 -0.5766  0.1880
60927SOL    HW289387   8.725  12.531   9.246 -2.0577  0.4133  1.2345
60928SOL     OW89388   4.690  12.249   8.032  0.1230  0.5005  0.0431
60928SOL    HW189389   4.604  12.263   8.072 -0.5630  0.2043 -1.2796
60928SOL    HW289390   4.685  12.161   7.995  0.8898  0.6049 -0.3231
60929SOL     OW89391   4.468   4.249   7.534  0.4766 -0.4213  0.1361
60929SOL    HW189392   4.397   4.293   7.580 -0.6341 -0.9540 -1.0124
60929SOL    HW289393   4.488   4.308   7.461  1.8065  0.1246  0.9052
60930SOL     OW89394  11.524  12.498   9.624 -0.0348  0.1543  0.2852
60930SOL    HW189395  11.481  12.418   9.652  1.2772  0.3750  3.3705
60930SOL    HW289396  11.463  12.568   9.650 -0.4261  0.2488 -0.8501
60931SOL     OW89397   1.991   5.711   6.105 -0.1105  0.1803  0.6149
60931SOL    HW189398   1.993   5.709   6.010 -2.2399  0.8924  0.5066
60931SOL    HW289399   1.923   5.648   6.129  2.2607 -2.0682  1.8514
60932SOL     OW89400   3.674   2.414   2.290  0.2462  0.1063 -0.0447
60932SOL    HW189401   3.674   2.320   2.308  2.0058  0.2067  0.6856
60932SOL    HW289402   3.704   2.421   2.199  1.0253 -0.0182  0.1950
60933SOL     OW89403   7.731   4.838   4.618  0.3722 -0.4620  0.1085
60933SOL    HW189404   7.670   4.782   4.667  0.2336 -0.6681 -0.2984
60933SOL    HW289405   7.799   4.860   4.682  0.3968 -1.0492  0.2961
60934SOL     OW89406   4.815   7.525   9.422  0.3044  0.3033  0.6306
60934SOL    HW189407   4.784   7.579   9.349 -0.5211 -0.9034  0.0518
60934SOL    HW289408   4.786   7.572   9.500 -0.0981  0.8719  0.1532
60935SOL     OW89409   3.967   8.247   2.912  0.0683 -0.0375  0.6977
60935SOL    HW189410   4.006   8.290   2.836 -0.8676  0.1987  0.3442
60935SOL    HW289411   3.992   8.155   2.903 -0.4042 -0.0942 -0.1406
60936SOL     OW89412   8.468   2.883   2.568  0.0911  0.1408  0.4456
60936SOL    HW189413   8.443   2.900   2.477  2.0784 -1.6793 -0.5329
60936SOL    HW289414   8.556   2.846   2.561  0.2250 -0.1884  3.1301
60937SOL     OW89415   6.764   8.684   6.510  0.1753 -0.1390 -0.7566
60937SOL    HW189416   6.710   8.763   6.510  1.6109  0.9222  0.3646
60937SOL    HW289417   6.756   8.648   6.422  0.0290  1.6726 -1.5186
60938SOL     OW89418   4.666   8.554   4.377  0.8439  0.8938 -0.5335
60938SOL    HW189419   4.593   8.528   4.321 -0.1121  1.9433  0.2097
60938SOL    HW289420   4.652   8.507   4.459  0.6545  1.5593 -0.1768
60939SOL     OW89421   6.046   9.985  10.757  0.1866 -0.1986  0.2315
60939SOL    HW189422   5.986  10.011  10.827 -1.0171 -1.5855 -0.2259
60939SOL    HW289423   6.099   9.916  10.796  0.6120  0.1336  0.2456
60940SOL     OW89424   1.864   3.723  10.369  0.1752 -0.1511  0.2160
60940SOL    HW189425   1.796   3.663  10.400  1.6952 -0.8359  2.4323
60940SOL    HW289426   1.863   3.713  10.274 -0.3316 -2.9235  0.4419
60941SOL     OW89427   0.599   2.687   9.088 -0.4231 -0.3349  0.0982
60941SOL    HW189428   0.679   2.637   9.104  1.7669  3.1019  1.0745
60941SOL    HW289429   0.564   2.704   9.176 -1.7870 -1.1013 -0.2819
60942SOL     OW89430   0.432  10.890   5.673 -0.6689 -0.2467  0.4244
60942SOL    HW189431   0.403  10.920   5.759  0.0232 -0.2483  0.6646
60942SOL    HW289432   0.527  10.901   5.674 -0.5832 -0.8433 -0.1088
60943SOL     OW89433   9.871   7.910   3.795 -0.2070  0.2693  0.2231
60943SOL    HW189434   9.966   7.920   3.798 -0.3717  1.7211  3.1102
60943SOL    HW289435   9.846   7.949   3.711  1.7078 -0.0776 -0.5599
60944SOL     OW89436   3.776   2.113  10.726  0.3572 -0.1742 -0.2346
60944SOL    HW189437   3.762   2.166  10.805 -0.9803  0.5850 -0.9474
60944SOL    HW289438   3.866   2.133  10.700 -0.0136  1.5419 -0.3104
60945SOL     OW89439   5.652   5.559  11.320  0.0925 -0.2568  0.2175
60945SOL    HW189440   5.616   5.570  11.408 -1.1403  0.9456 -0.3951
60945SOL    HW289441   5.657   5.648  11.285  1.1084 -0.6618 -0.7421
60946SOL     OW89442   2.173   4.537   8.622 -0.0101  0.0689 -0.5589
60946SOL    HW189443   2.100   4.580   8.577 -1.0780  0.4500  1.4071
60946SOL    HW289444   2.183   4.586   8.704 -1.7677 -3.6399  2.1845
60947SOL     OW89445   0.867  12.415   3.669 -0.2105  0.1370  0.2875
60947SOL    HW189446   0.820  12.410   3.752  1.4475 -0.9826  1.2054
60947SOL    HW289447   0.954  12.447   3.692  1.6692 -3.9142 -0.3077
60948SOL     OW89448  10.277   4.233   3.616 -0.1493 -0.7055 -0.1124
60948SOL    HW189449  10.297   4.247   3.524 -0.2032  2.2692  0.2112
60948SOL    HW289450  10.182   4.228   3.620 -0.1580 -0.6072 -0.1954
60949SOL     OW89451  11.272   7.749  11.088 -0.8239  0.4327 -0.3475
60949SOL    HW189452  11.280   7.822  11.026 -0.1541  0.4845 -0.2043
60949SOL    HW289453  11.356   7.747  11.134 -0.6257 -0.7792 -0.7343
60950SOL     OW89454   1.427  10.642   2.216 -0.5817  0.0282  0.3316
60950SOL    HW189455   1.344  10.686   2.233 -0.8994 -0.3703 -0.1775
60950SOL    HW289456   1.405  10.549   2.209  0.2524 -0.4075  2.6140
60951SOL     OW89457   9.659  12.090   2.877 -0.0924  0.1124 -0.5285
60951SOL    HW189458   9.580  12.122   2.921 -0.0591  1.1913 -1.2012
60951SOL    HW289459   9.721  12.073   2.947 -0.9450 -0.8661  0.0242
60952SOL     OW89460   3.298  11.966  10.422 -0.4238 -0.2082 -0.2552
60952SOL    HW189461   3.259  12.005  10.500  1.2888 -0.5790  0.8599
60952SOL    HW289462   3.230  11.910  10.385 -0.7008 -1.5708  2.1180
60953SOL     OW89463   1.493   9.509  10.585 -0.3017  0.0356 -0.0418
60953SOL    HW189464   1.464   9.585  10.534 -2.5355 -1.9269 -1.9569
60953SOL    HW289465   1.584   9.528  10.606 -0.6151  2.9962 -0.8506
60954SOL     OW89466   8.980   6.737  10.980 -0.3830 -0.0825  0.2590
60954SOL    HW189467   9.036   6.660  10.987 -1.6141 -0.9525  1.0442
60954SOL    HW289468   8.954   6.739  10.888  0.9395  0.3691 -0.1265
60955SOL     OW89469   6.918   5.817   3.152  0.0552 -0.0669  0.4001
60955SOL    HW189470   6.884   5.898   3.192  2.3067  0.9678  0.3860
60955SOL    HW289471   7.009   5.837   3.134 -0.0683 -1.6332 -2.3823
60956SOL     OW89472   7.187   3.378   5.130  0.8276  0.3993  0.5090
60956SOL    HW189473   7.226   3.297   5.163 -1.2508 -0.8501  0.0751
60956SOL    HW289474   7.151   3.354   5.044  0.2798  1.8148  0.3186
60957SOL     OW89475   5.036   7.165   4.072  0.4724 -0.7431 -0.2254
60957SOL    HW189476   5.000   7.234   4.016  0.8639 -2.6650 -3.0481
60957SOL    HW289477   5.118   7.140   4.029  1.6472 -1.2814  2.1549
60958SOL     OW89478   9.655   0.503   9.668 -0.7480 -0.2188  0.2468
60958SOL    HW189479   9.623   0.445   9.737  1.9365 -3.0468 -0.6757
60958SOL    HW289480   9.737   0.538   9.702 -0.3923 -0.0762 -0.7177
60959SOL     OW89481   4.675   6.173   9.719  0.1813 -0.5230 -1.4961
60959SOL    HW189482   4.607   6.128   9.769  0.3876  0.5943 -0.1390
60959SOL    HW289483   4.754   6.121   9.734  0.5715  0.5821  0.6228
60960SOL     OW89484   5.210   1.126   4.640  0.6898 -0.7309 -0.6796
60960SOL    HW189485   5.185   1.167   4.723  2.4266 -1.4836  0.2691
60960SOL    HW289486   5.197   1.194   4.574 -2.0866 -0.5343 -0.0681
60961SOL     OW89487   1.723  11.140   1.656  0.2059 -0.0966  0.1032
60961SOL    HW189488   1.686  11.051   1.654 -0.6349  0.2425 -0.2643
60961SOL    HW289489   1.808  11.132   1.614  0.7252 -0.9703  1.2707
60962SOL     OW89490   2.846   2.653  12.263 -0.8975 -0.0734  0.4581
60962SOL    HW189491   2.794   2.624  12.188 -0.7327 -0.3347  0.4436
60962SOL    HW289492   2.781   2.688  12.324 -0.9977  0.4297  0.0647
60963SOL     OW89493  12.167   0.367   0.958  0.1937  0.3753 -0.3071
60963SOL    HW189494  12.133   0.400   1.040  0.5657  0.0505 -0.0190
60963SOL    HW289495  12.090   0.357   0.902 -0.3524 -1.3284  0.6694
60964SOL     OW89496  12.333   1.654   7.218  0.7670  0.4498  0.4518
60964SOL    HW189497  12.294   1.693   7.296 -0.6234 -0.9002  0.4835
60964SOL    HW289498  12.423   1.634   7.242  0.9112  1.7610  1.0693
60965SOL     OW89499   7.024   4.961   9.798 -0.6585  0.4948  0.5180
60965SOL    HW189500   7.000   4.893   9.860 -0.0834  1.4684  1.8781
60965SOL    HW289501   7.060   5.031   9.853  0.3137  1.2098 -0.9631
60966SOL     OW89502   4.286   8.489   0.868 -0.1875 -0.2914 -0.0539
60966SOL    HW189503   4.341   8.443   0.805  0.5588  0.8171 -0.2480
60966SOL    HW289504   4.333   8.571   0.885 -0.3286 -0.5856  1.9920
60967SOL     OW89505   3.590   8.770   9.263  0.2416  0.1988  0.5739
60967SOL    HW189506   3.661   8.711   9.287  1.0312  0.7134 -0.4264
60967SOL    HW289507   3.589   8.770   9.168 -1.8464 -0.6343  0.5393
60968SOL     OW89508  11.875   3.560   5.754  0.4029 -0.1096  0.0135
60968SOL    HW189509  11.793   3.511   5.743 -0.2310  1.3003 -2.3773
60968SOL    HW289510  11.936   3.517   5.695  1.8916 -1.8935  2.6369
60969SOL     OW89511   8.897   7.344   9.043 -0.0589  0.0806 -0.5096
60969SOL    HW189512   8.822   7.346   9.102 -1.3062 -0.3387 -2.0203
60969SOL    HW289513   8.969   7.380   9.095 -1.3498  0.7604  0.8949
60970SOL     OW89514   7.569  11.403   8.018  0.9836  0.7480 -0.1485
60970SOL    HW189515   7.535  11.441   7.937 -1.1290 -1.0278 -0.1648
60970SOL    HW289516   7.661  11.430   8.019  0.5298  2.6924 -1.9712
60971SOL     OW89517   9.358   3.839   8.016  0.0311 -0.1141  0.0892
60971SOL    HW189518   9.337   3.758   8.064  1.1923 -0.5361 -0.0992
60971SOL    HW289519   9.447   3.860   8.042  0.1570  0.4675 -0.7715
60972SOL     OW89520   4.392   8.197  10.598 -0.0253 -0.2861  0.2165
60972SOL    HW189521   4.310   8.196  10.648  0.4963  1.7800  1.2404
60972SOL    HW289522   4.371   8.153  10.516 -2.7449  1.8737 -0.3681
60973SOL     OW89523  12.204   3.553  11.592 -0.2495  0.1282 -0.0338
60973SOL    HW189524  12.294   3.521  11.598 -0.0952  0.3765 -0.9688
60973SOL    HW289525  12.155   3.481  11.553 -0.5488 -0.1503  0.8193
60974SOL     OW89526   5.593   1.220   2.063 -0.1679 -0.1215  0.9146
60974SOL    HW189527   5.617   1.197   1.973 -0.9187  1.1485  0.3679
60974SOL    HW289528   5.593   1.136   2.110 -1.6031 -1.0908 -0.7038
60975SOL     OW89529  11.318  11.530   4.437 -0.2678 -0.4169  0.5753
60975SOL    HW189530  11.236  11.497   4.400  0.6112 -0.9287 -1.0407
60975SOL    HW289531  11.332  11.614   4.394  1.5027 -1.6723 -1.5328
60976SOL     OW89532   6.012   6.305  12.132  0.2244 -0.4095  0.1486
60976SOL    HW189533   5.947   6.302  12.062  0.2842  0.3316  0.0476
60976SOL    HW289534   6.080   6.364  12.099  0.5137 -0.4764  0.6120
60977SOL     OW89535   6.128   3.074   4.967  0.3058  0.2024 -0.3539
60977SOL    HW189536   6.200   3.037   4.916 -0.8895 -2.2740 -0.4158
60977SOL    HW289537   6.169   3.103   5.048  1.6468  0.6166 -1.1450
60978SOL     OW89538   5.584   6.733  10.247 -0.1208  0.0723 -0.3978
60978SOL    HW189539   5.602   6.667  10.181 -1.4557  1.6138 -2.4528
60978SOL    HW289540   5.528   6.689  10.311  0.7250 -1.3184 -0.5976
60979SOL     OW89541   4.218   3.279   9.002 -0.0599  0.5687 -0.1147
60979SOL    HW189542   4.156   3.327   8.946  1.3617  1.0146 -1.3550
60979SOL    HW289543   4.162   3.235   9.066 -1.5490  2.4843  0.0153
60980SOL     OW89544  11.390   9.620   0.927 -0.2488  0.2468 -0.2635
60980SOL    HW189545  11.314   9.565   0.941  0.3584 -0.2874  1.1452
60980SOL    HW289546  11.461   9.558   0.906  0.2672  0.5297  0.5855
60981SOL     OW89547   0.043   5.034  10.243  0.0730 -0.5242 -0.1940
60981SOL    HW189548   0.028   5.050  10.336 -1.3100  1.3180 -0.6775
60981SOL    HW289549   0.110   5.098  10.218  0.7240 -1.2691 -0.4120
60982SOL     OW89550   1.089   1.132   9.033  0.0046  0.3853  0.1033
60982SOL    HW189551   1.077   1.226   9.047  0.4713  0.7315 -1.5950
60982SOL    HW289552   1.096   1.122   8.938  1.0634 -1.2234  0.2970
60983SOL     OW89553  10.682  10.019   3.645 -0.2998  0.4632 -0.1784
60983SOL    HW189554  10.667  10.110   3.668 -0.1106  0.8408 -1.4775
60983SOL    HW289555  10.639   9.969   3.715  0.5645  1.5250  1.1493
60984SOL     OW89556  10.611   0.633   3.263  0.1580 -0.5536  0.1407
60984SOL    HW189557  10.622   0.592   3.178  0.0842 -0.5947  0.1506
60984SOL    HW289558  10.624   0.562   3.326 -0.2852 -0.6319  0.1483
60985SOL     OW89559  12.599   7.170  10.788 -0.0541 -0.2773 -0.4158
60985SOL    HW189560  12.685   7.189  10.826 -0.0555 -1.7953  0.4246
60985SOL    HW289561  12.619   7.137  10.700  0.0227  1.9913 -1.3157
60986SOL     OW89562   2.218   4.483  12.177  0.0300 -0.5016  0.5479
60986SOL    HW189563   2.161   4.538  12.231 -0.1904  0.5104 -0.6679
60986SOL    HW289564   2.158   4.421  12.136 -0.1074  0.0974 -0.1692
60987SOL     OW89565   4.175   7.474   0.973  0.1397  0.4531  0.0183
60987SOL    HW189566   4.177   7.570   0.970 -0.8284  0.5013  0.7024
60987SOL    HW289567   4.189   7.453   1.065  0.0052 -0.0590 -0.0782
60988SOL     OW89568   9.686   8.966   0.943  0.5831 -0.8364  0.1583
60988SOL    HW189569   9.688   9.056   0.910 -1.9220 -1.0542 -0.8217
60988SOL    HW289570   9.768   8.956   0.991  0.5376  2.2889  1.1281
60989SOL     OW89571   2.235   9.395  12.722  0.5964 -0.3616  0.3190
60989SOL    HW189572   2.186   9.478  12.723  1.1998  0.0440  3.1574
60989SOL    HW289573   2.178   9.333  12.768  1.3236 -0.7970  0.6443
60990SOL     OW89574   5.474   5.910   8.360 -0.6939 -0.8119  0.6423
60990SOL    HW189575   5.515   5.824   8.352  1.3309  0.2113 -0.9497
60990SOL    HW289576   5.414   5.916   8.287  0.4319 -0.2817 -0.2725
60991SOL     OW89577   1.048   1.716   2.670  0.1945 -0.1269  0.0418
60991SOL    HW189578   1.123   1.774   2.653 -0.5269  0.4050 -1.4580
60991SOL    HW289579   0.989   1.731   2.597 -0.8841 -1.3787  0.6207
60992SOL     OW89580  12.704   4.224   8.419  0.2161  0.2676  0.9061
60992SOL    HW189581  12.790   4.183   8.430  0.5761  0.4291 -0.9668
60992SOL    HW289582  12.645   4.152   8.399 -0.4912 -0.0610  3.6788
60993SOL     OW89583  10.975   9.349  11.540 -0.2386 -0.4776 -0.0675
60993SOL    HW189584  10.962   9.443  11.548  1.3977 -0.1560 -0.9023
60993SOL    HW289585  11.046   9.329  11.601  1.6716 -0.5834 -2.2128
60994SOL     OW89586   0.658  10.942   9.631  0.1453  0.1572 -0.0505
60994SOL    HW189587   0.752  10.935   9.616  0.3769 -1.9049  1.9730
60994SOL    HW289588   0.644  10.912   9.720 -2.4935  0.0670 -0.3874
60995SOL     OW89589   0.290   5.245   8.388  0.4988  0.1967 -0.2721
60995SOL    HW189590   0.244   5.289   8.461  0.5800  0.5147 -0.4104
60995SOL    HW289591   0.294   5.312   8.320  0.8851  0.0614 -0.3783
60996SOL     OW89592   2.434   2.840   0.483 -0.1137 -0.4641  0.1659
60996SOL    HW189593   2.347   2.847   0.446  0.2332 -0.3758 -0.6479
60996SOL    HW289594   2.485   2.907   0.437  0.2919 -0.2416  0.9089
60997SOL     OW89595   0.316  12.268   4.375 -0.3963  0.3117  0.4859
60997SOL    HW189596   0.288  12.209   4.445  0.5255  1.0000  1.4579
60997SOL    HW289597   0.301  12.356   4.410 -1.1983  0.6902 -0.7245
60998SOL     OW89598   5.668   2.641   4.687 -0.2355  0.1131  0.0629
60998SOL    HW189599   5.604   2.583   4.729 -0.6129  0.6397  0.2202
60998SOL    HW289600   5.666   2.721   4.739  0.3695  0.2272 -0.0879
60999SOL     OW89601   1.990  10.134   5.320  0.5946  0.3855  0.0619
60999SOL    HW189602   2.081  10.116   5.295  0.4581  1.7400 -1.6161
60999SOL    HW289603   1.938  10.078   5.262  0.3440  0.8987 -0.2190
61000SOL     OW89604  10.503   9.736   2.544 -0.3693 -0.3838  0.1580
61000SOL    HW189605  10.456   9.819   2.540 -1.2613 -0.9033 -0.4901
61000SOL    HW289606  10.516   9.711   2.453 -0.2168 -1.0214  0.3508
61001SOL     OW89607   7.741  10.745   1.847  0.4916  0.0553  0.5852
61001SOL    HW189608   7.815  10.713   1.795  0.7731  0.2079  0.8903
61001SOL    HW289609   7.687  10.792   1.784  1.3189  1.0605  0.5988
61002SOL     OW89610   9.920   7.602   9.189  0.3942 -0.0410  0.0058
61002SOL    HW189611   9.944   7.671   9.126 -0.8159  0.5909  0.2020
61002SOL    HW289612   9.996   7.544   9.191  0.8959  0.5316 -1.2085
61003SOL     OW89613   6.492   1.955  12.295  0.1962  0.1623 -0.1327
61003SOL    HW189614   6.411   1.906  12.303  1.0111 -1.0111  1.4218
61003SOL    HW289615   6.511   1.986  12.383  1.3509  0.5579 -0.4994
61004SOL     OW89616   0.873   5.288   7.575 -0.2206  0.0609  0.3493
61004SOL    HW189617   0.893   5.229   7.648 -0.9232 -0.7863 -0.1110
61004SOL    HW289618   0.953   5.289   7.523  1.6149  3.4827  2.8790
61005SOL     OW89619  12.611   2.321  11.417  0.3114  0.1762  0.6492
61005SOL    HW189620  12.586   2.405  11.454  1.4291  1.0648 -0.5328
61005SOL    HW289621  12.706   2.325  11.410  0.2611 -0.5572 -0.8438
61006SOL     OW89622   1.314   6.618   8.868  0.5314 -0.2870  0.0254
61006SOL    HW189623   1.233   6.610   8.918  1.2622  0.9640  1.4925
61006SOL    HW289624   1.298   6.689   8.806  0.1360 -0.8196 -0.4930
61007SOL     OW89625  11.984  11.188  11.719 -0.1720  0.3351 -0.7562
61007SOL    HW189626  11.945  11.101  11.711  0.2733 -0.0731  1.0329
61007SOL    HW289627  11.911  11.245  11.743 -0.2886  0.2659 -0.9448
61008SOL     OW89628  10.564   0.675  11.315  0.0648 -0.1763  0.2496
61008SOL    HW189629  10.602   0.608  11.373  1.7015  0.0753 -0.4638
61008SOL    HW289630  10.619   0.672  11.237 -0.3142  1.4613 -0.1061
61009SOL     OW89631   2.194   1.328  11.275 -0.0627 -0.7852 -0.5953
61009SOL    HW189632   2.185   1.253  11.332 -1.0009 -0.0247  0.2854
61009SOL    HW289633   2.117   1.382  11.293  1.7643  1.6185  0.6600
61010SOL     OW89634   2.602   8.057   7.199 -0.4116 -0.1911 -0.1428
61010SOL    HW189635   2.650   8.065   7.117 -1.3424 -1.0393 -0.7965
61010SOL    HW289636   2.636   7.977   7.239 -0.8952 -0.5018 -0.3489
61011SOL     OW89637  10.898   3.336   0.009  0.0898  0.2180 -0.1471
61011SOL    HW189638  10.913   3.395   0.084  0.0188  1.3367 -0.9832
61011SOL    HW289639  10.877   3.252   0.049 -2.3822  1.3402  1.1848
61012SOL     OW89640  12.276   9.578   4.181  0.3228 -0.0383 -0.2895
61012SOL    HW189641  12.206   9.526   4.141  0.7951  0.9741 -2.5994
61012SOL    HW289642  12.235   9.619   4.257 -1.0396 -0.9527 -0.4968
61013SOL     OW89643   1.273   1.053   4.172  0.0574  0.2049  0.6800
61013SOL    HW189644   1.264   0.958   4.184  0.7328  0.1077  0.4276
61013SOL    HW289645   1.249   1.090   4.257  5.4901 -0.5033  2.9448
61014SOL     OW89646   0.132   9.936   9.446  0.4205  0.2852  0.8537
61014SOL    HW189647   0.137  10.028   9.421  0.0044  0.3618  1.0441
61014SOL    HW289648   0.206   9.924   9.506  2.1872 -0.1988 -1.2799
61015SOL     OW89649   0.714  11.400   0.755  0.1363  0.2841 -0.4237
61015SOL    HW189650   0.740  11.472   0.697 -0.6016  0.4754 -0.5284
61015SOL    HW289651   0.746  11.426   0.841  1.3069 -0.0349 -0.7433
61016SOL     OW89652  10.412  10.633   2.858 -0.2537  0.5067  0.7180
61016SOL    HW189653  10.467  10.641   2.780 -1.1202  1.7407  0.1996
61016SOL    HW289654  10.341  10.575   2.832  0.3467 -0.4406  1.1382
61017SOL     OW89655   3.824   0.579  10.447 -0.1383  1.1350 -0.3334
61017SOL    HW189656   3.896   0.641  10.459  0.2889  0.4916  0.5780
61017SOL    HW289657   3.838   0.542  10.360  0.7424  0.8904 -0.0967
61018SOL     OW89658  10.634   3.532   2.797  0.5349 -0.0698 -0.2725
61018SOL    HW189659  10.584   3.453   2.819 -0.0848  0.2422 -0.5291
61018SOL    HW289660  10.725   3.502   2.789  0.5371 -0.4692  1.1281
61019SOL     OW89661  11.920  11.763   3.848 -0.1212 -0.2087 -0.6450
61019SOL    HW189662  11.868  11.804   3.779 -1.3233 -2.2165 -1.0296
61019SOL    HW289663  11.909  11.819   3.924 -0.7874  0.7434 -1.4242
61020SOL     OW89664  12.199   8.067   4.129  0.5194  0.1833 -0.2470
61020SOL    HW189665  12.171   7.979   4.108 -0.6431  0.3483  0.5107
61020SOL    HW289666  12.135   8.124   4.088 -1.1106  0.5402  2.5175
61021SOL     OW89667   5.805  12.059   6.494  0.1511  0.4669  0.0694
61021SOL    HW189668   5.792  12.065   6.589  0.9485  2.2068  0.1094
61021SOL    HW289669   5.851  11.976   6.481  0.5442  0.4863  1.2642
61022SOL     OW89670   8.336  10.410   5.347 -0.2194  0.1406 -0.0203
61022SOL    HW189671   8.392  10.405   5.425  0.6129 -0.0880 -0.6230
61022SOL    HW289672   8.248  10.425   5.382  0.2139  0.5358  0.9453
61023SOL     OW89673   5.664   8.735   1.938  0.0763  0.3154 -0.2948
61023SOL    HW189674   5.632   8.645   1.930  1.1851  0.0195 -1.7572
61023SOL    HW289675   5.743   8.728   1.991  1.1088  0.1515 -1.7969
61024SOL     OW89676   7.012   9.555   7.393  0.1045 -0.4693 -0.3139
61024SOL    HW189677   7.033   9.593   7.478 -1.8136  0.1415 -0.0421
61024SOL    HW289678   7.083   9.583   7.336  0.6913  0.3253  0.7589
61025SOL     OW89679   2.902   9.674  12.400  0.6065  0.0599  0.2263
61025SOL    HW189680   2.911   9.689  12.306  3.4968 -1.0663  0.2136
61025SOL    HW289681   2.908   9.579  12.409 -3.7592 -0.3206  1.3320
61026SOL     OW89682   2.077  11.085   5.425 -0.1986  0.3558 -0.0756
61026SOL    HW189683   2.072  11.012   5.364  0.9130 -0.0782  0.3169
61026SOL    HW289684   2.166  11.120   5.412  0.0201  0.3120  1.2033
61027SOL     OW89685  11.205   2.298  12.216 -0.9754 -0.0781 -0.6089
61027SOL    HW189686  11.253   2.379  12.201 -0.6404 -0.1528  0.0233
61027SOL    HW289687  11.197   2.291  12.311  1.6614 -2.2745 -0.4297
61028SOL     OW89688   7.958   2.236  11.094  0.1366  0.5102  0.0937
61028SOL    HW189689   7.974   2.268  11.183  2.9460  1.3710 -0.6022
61028SOL    HW289690   8.012   2.157  11.088 -2.2966 -1.2594 -0.0264
61029SOL     OW89691   8.111   6.779   1.820  0.1084  0.0995 -0.0099
61029SOL    HW189692   8.106   6.809   1.729  0.5346 -2.1054 -0.8310
61029SOL    HW289693   8.198   6.740   1.828  0.2280  0.5925  1.4836
61030SOL     OW89694   6.215   1.542  12.417  0.4628  0.0124 -0.0806
61030SOL    HW189695   6.136   1.487  12.426 -0.1141  0.9400  0.6873
61030SOL    HW289696   6.268   1.521  12.493 -0.0572  0.9639  0.5643
61031SOL     OW89697   5.706   2.508   6.579 -0.6687  0.3638  0.1338
61031SOL    HW189698   5.753   2.507   6.496 -0.7854 -0.1337  0.0710
61031SOL    HW289699   5.719   2.596   6.613  0.4045  0.1940  0.1747
61032SOL     OW89700  12.199   5.007  10.184  0.9257 -1.0136 -0.4951
61032SOL    HW189701  12.135   4.936  10.183  1.5384 -1.5767 -0.8038
61032SOL    HW289702  12.147   5.087  10.177  0.2242 -1.4270 -0.1307
61033SOL     OW89703   7.888  11.633   7.773  0.1495  0.0097 -0.2853
61033SOL    HW189704   7.935  11.702   7.726  1.3219  1.4173  2.7156
61033SOL    HW289705   7.796  11.657   7.767  0.4106  0.9539 -0.6168
61034SOL     OW89706   3.218  10.821  11.778 -0.1656 -0.5760 -0.0966
61034SOL    HW189707   3.263  10.855  11.700 -0.8956  0.7310  0.0176
61034SOL    HW289708   3.236  10.728  11.777  0.7452 -0.4175 -1.2407
61035SOL     OW89709   8.420   8.119  12.422 -0.0172 -0.3833 -0.3011
61035SOL    HW189710   8.343   8.137  12.476  1.0239  2.0428  0.5034
61035SOL    HW289711   8.487   8.089  12.483  1.0316  1.9535 -0.1847
61036SOL     OW89712   2.284  12.473   5.122  0.0461  0.0971 -0.2288
61036SOL    HW189713   2.270  12.462   5.028 -1.2544  1.2947 -0.1993
61036SOL    HW289714   2.267  12.565   5.138  0.3822 -0.0708  1.1808
61037SOL     OW89715   2.080   2.132  11.255 -0.4984 -0.0486  0.2835
61037SOL    HW189716   2.043   2.130  11.344 -0.4831 -2.7015  0.3067
61037SOL    HW289717   2.145   2.203  11.258 -0.4186 -0.1357  2.4366
61038SOL     OW89718   2.278   4.575   6.654 -0.7568 -1.0210  0.4221
61038SOL    HW189719   2.309   4.636   6.722  0.2281 -0.6149 -0.3836
61038SOL    HW289720   2.235   4.505   6.704 -2.3845  0.5331  1.3786
61039SOL     OW89721  11.486   9.349   5.177  0.4049  0.3091 -0.0776
61039SOL    HW189722  11.437   9.268   5.167  1.6390 -0.6580  1.2485
61039SOL    HW289723  11.577   9.321   5.186  1.2141  2.0220 -2.1453
61040SOL     OW89724   5.908  12.646   2.491  0.0424  0.3678  0.3866
61040SOL    HW189725   5.882  12.673   2.403  0.3080 -0.9619 -0.1266
61040SOL    HW289726   5.831  12.601   2.525  0.0108  0.7015  0.7629
61041SOL     OW89727  11.407   0.331   2.121  0.0767  0.6574 -0.3647
61041SOL    HW189728  11.392   0.369   2.207 -1.1820 -1.4949  0.4148
61041SOL    HW289729  11.466   0.257   2.137  0.3630  0.6257 -1.4703
61042SOL     OW89730   4.679   8.561   8.197 -0.0524  0.1221  0.5240
61042SOL    HW189731   4.651   8.651   8.182 -0.3597  0.2482  1.7430
61042SOL    HW289732   4.598   8.512   8.209  0.0670 -0.5213 -1.0827
61043SOL     OW89733   1.181   8.611  11.249  0.5322 -0.6774 -0.0174
61043SOL    HW189734   1.174   8.702  11.220  0.2851 -1.1638 -1.5744
61043SOL    HW289735   1.227   8.616  11.332  0.9309  0.8420 -0.2993
61044SOL     OW89736   1.891   9.686   9.947  0.1085  0.1195 -0.2906
61044SOL    HW189737   1.880   9.740   9.869  0.7684  0.2456 -0.3099
61044SOL    HW289738   1.977   9.712   9.981  0.9533 -1.6997 -0.9075
61045SOL     OW89739   9.159   1.312   7.034  0.1791  0.9781  0.4098
61045SOL    HW189740   9.133   1.253   7.105  1.8921  0.8158  0.9449
61045SOL    HW289741   9.228   1.264   6.987  1.3008  2.3561  0.5986
61046SOL     OW89742   0.244   8.022   3.470 -0.2531  0.1811  0.3933
61046SOL    HW189743   0.287   8.001   3.387  1.5070  1.9286  0.7706
61046SOL    HW289744   0.278   7.956   3.531 -0.5660 -0.3488 -0.0029
61047SOL     OW89745   0.256   1.638   6.361  0.0892  0.1509 -0.4185
61047SOL    HW189746   0.258   1.729   6.332 -0.2061  0.2808 -0.0388
61047SOL    HW289747   0.253   1.643   6.457 -1.8484 -0.2100 -0.4184
61048SOL     OW89748   4.132   0.217   9.532 -0.2457 -0.4816  0.4939
61048SOL    HW189749   4.138   0.203   9.626 -1.8121 -0.9999  0.5378
61048SOL    HW289750   4.118   0.311   9.523  0.3402 -0.3644  0.7388
61049SOL     OW89751   7.956   4.200   5.136  0.3044  0.2207  0.2546
61049SOL    HW189752   7.864   4.223   5.121  0.3022  1.1565  1.5747
61049SOL    HW289753   7.954   4.120   5.188  0.3014 -1.3245 -1.9591
61050SOL     OW89754   9.461  11.784   2.585  0.2488  0.0213 -0.0272
61050SOL    HW189755   9.547  11.825   2.594  0.7167 -0.8297 -0.5213
61050SOL    HW289756   9.426  11.782   2.674  0.6964  0.4497  0.1644
61051SOL     OW89757   1.084  10.542   8.930  0.2652 -0.1388  0.7936
61051SOL    HW189758   1.004  10.592   8.912 -0.6062 -1.9500 -0.8335
61051SOL    HW289759   1.059  10.482   9.001  0.1369 -0.7347  0.2565
61052SOL     OW89760   5.533   0.682   8.740 -0.3824  0.3394  0.4777
61052SOL    HW189761   5.531   0.596   8.699 -1.0314 -0.0675  1.3325
61052SOL    HW289762   5.468   0.677   8.810  1.8644  0.4229  2.7334
61053SOL     OW89763   0.921   2.635   2.493  0.5732  0.2464 -0.2192
61053SOL    HW189764   0.965   2.617   2.576  0.1260  0.6107  0.1072
61053SOL    HW289765   0.875   2.554   2.472  2.2979 -0.5434 -1.1597
61054SOL     OW89766   7.876   8.007  10.718 -0.3722 -0.3250  0.2687
61054SOL    HW189767   7.958   7.967  10.744 -1.1042 -0.5021  2.4859
61054SOL    HW289768   7.850   7.958  10.640  2.3094  0.7549 -1.4462
61055SOL     OW89769  10.942   9.113   3.347 -0.1641  0.2357 -0.4989
61055SOL    HW189770  10.928   9.045   3.412 -1.4377 -1.4318 -2.4133
61055SOL    HW289771  10.896   9.190   3.382 -2.1794 -1.0833 -0.0944
61056SOL     OW89772   2.039   1.385   5.154 -0.0500  0.4315 -0.3959
61056SOL    HW189773   2.033   1.301   5.201  0.6880  0.6918  0.1898
61056SOL    HW289774   2.118   1.376   5.100 -0.5071  0.3961 -1.0603
61057SOL     OW89775   5.175   7.748   7.788 -0.1405  0.1561  0.3150
61057SOL    HW189776   5.176   7.832   7.834  0.5196  0.9475 -1.1047
61057SOL    HW289777   5.084   7.719   7.793 -0.5624  1.4056  0.0191
61058SOL     OW89778  11.228   7.979  11.379 -0.0056  0.2277 -0.6147
61058SOL    HW189779  11.192   8.049  11.324  0.0083 -0.1060 -1.0520
61058SOL    HW289780  11.320   7.973  11.353  0.8653  2.2004  1.6486
61059SOL     OW89781   0.965   2.802  11.734  0.2255  0.5487  0.4408
61059SOL    HW189782   0.944   2.764  11.820  0.0987 -0.5023 -0.0491
61059SOL    HW289783   1.052   2.841  11.747  0.2917  0.2351  0.9939
61060SOL     OW89784   4.074   8.209   0.097 -0.0456  0.0306 -0.0215
61060SOL    HW189785   4.136   8.139   0.118 -0.8613 -1.2562 -1.6390
61060SOL    HW289786   4.002   8.165   0.052 -0.6952  1.8870 -0.9234
61061SOL     OW89787   5.269  10.864   2.084 -1.0594 -0.1835  0.2706
61061SOL    HW189788   5.251  10.863   1.990 -1.2062  0.6062  0.2872
61061SOL    HW289789   5.253  10.774   2.112  0.9481 -0.9398 -0.8145
61062SOL     OW89790  11.803   2.042   3.687 -0.6610  0.4432  0.1774
61062SOL    HW189791  11.754   2.051   3.605 -0.3648  0.1762 -0.0374
61062SOL    HW289792  11.777   2.117   3.740 -0.8143  0.6492 -0.1866
61063SOL     OW89793  11.078   6.366  10.871  0.7494 -0.4920 -0.0658
61063SOL    HW189794  11.053   6.341  10.960 -1.3069  2.2303  0.2604
61063SOL    HW289795  11.112   6.455  10.881 -0.6434  0.3285 -2.0889
61064SOL     OW89796   9.095   0.576   8.720 -0.5903 -0.2322  0.1320
61064SOL    HW189797   9.102   0.488   8.683 -2.4393 -0.6210  0.6256
61064SOL    HW289798   9.002   0.587   8.738 -0.1336  1.0304  2.0049
61065SOL     OW89799   2.738   7.117   8.732  0.0073 -0.3811  0.2327
61065SOL    HW189800   2.758   7.056   8.803 -0.3124  0.9680  1.5436
61065SOL    HW289801   2.649   7.095   8.706 -0.4483  0.0655  1.3282
61066SOL     OW89802   8.235   9.264   8.432  0.6362  0.2931  0.0065
61066SOL    HW189803   8.297   9.288   8.501  0.1521  1.0157  0.2076
61066SOL    HW289804   8.149   9.278   8.472  0.3118 -1.2209 -0.0757
61067SOL     OW89805   3.895   7.828   7.966  0.3548  0.3975 -0.3744
61067SOL    HW189806   3.897   7.922   7.985 -0.3198  0.4669 -0.6053
61067SOL    HW289807   3.982   7.796   7.990  0.5349  1.0528 -0.1451
61068SOL     OW89808   8.872   4.615   8.205 -0.2036 -0.2438 -0.2423
61068SOL    HW189809   8.943   4.679   8.208 -1.3476  1.2087 -2.0002
61068SOL    HW289810   8.898   4.555   8.135  0.6247 -1.4663  1.0669
61069SOL     OW89811   8.730   8.829   1.487  0.3430 -0.3398  0.2101
61069SOL    HW189812   8.707   8.813   1.578 -0.8165 -1.4933 -0.2581
61069SOL    HW289813   8.809   8.883   1.491 -0.0588  0.1778  1.8833
61070SOL     OW89814   4.680   0.971  10.893 -0.7568 -0.9030 -0.2815
61070SOL    HW189815   4.740   1.042  10.873 -0.4061 -1.1901 -0.2651
61070SOL    HW289816   4.726   0.892  10.863 -1.1757 -1.1113 -0.3824
61071SOL     OW89817   9.089  10.399   9.516 -0.2126  0.5223  0.1280
61071SOL    HW189818   9.069  10.336   9.447 -0.8576 -0.0726  0.8351
61071SOL    HW289819   9.004  10.431   9.546 -0.0129 -0.0540  1.3782
61072SOL     OW89820  10.015   8.553   7.680 -0.1516 -0.1387 -0.0902
61072SOL    HW189821   9.969   8.472   7.701  1.1638 -1.0241 -0.5011
61072SOL    HW289822  10.023   8.552   7.584  0.1253  0.3257 -0.0734
61073SOL     OW89823   4.034   2.005   2.461  0.0395  0.4005  0.0175
61073SOL    HW189824   4.018   2.013   2.367  0.7541  1.5429 -0.0252
61073SOL    HW289825   3.987   1.925   2.487 -1.2250  0.7645 -1.0612
61074SOL     OW89826   5.920   8.603   1.977  0.1773 -0.7899  0.5566
61074SOL    HW189827   5.921   8.512   1.947  0.7673  0.0892 -2.4862
61074SOL    HW289828   6.011   8.623   1.997  0.1639 -0.6835  0.5149
61075SOL     OW89829   3.981   1.762   9.420 -0.1559  0.4626  0.2829
61075SOL    HW189830   3.973   1.844   9.469 -0.1403  0.3354  0.4991
61075SOL    HW289831   3.909   1.708   9.452 -1.3984  1.1123 -1.2770
61076SOL     OW89832  11.576   4.129   4.320 -0.2380  0.6256  0.6291
61076SOL    HW189833  11.484   4.141   4.296 -0.3650 -0.7952  0.3284
61076SOL    HW289834  11.617   4.094   4.241  0.4424  0.6762  0.9490
61077SOL     OW89835   6.984   0.084   1.395  0.1631  0.2130 -0.3423
61077SOL    HW189836   6.925   0.116   1.463  0.8131 -0.1665  0.4157
61077SOL    HW289837   6.936   0.014   1.352 -0.0738  0.1352  0.0459
61078SOL     OW89838   0.653   6.524  11.184  0.4068 -0.6090  0.4801
61078SOL    HW189839   0.626   6.553  11.097 -0.3008 -0.4837  0.7353
61078SOL    HW289840   0.610   6.440  11.196  1.7483 -1.3864  0.1003
61079SOL     OW89841   3.870   3.523   7.249  0.7058 -0.2007 -0.2075
61079SOL    HW189842   3.927   3.552   7.320 -0.8261 -0.2468  1.1000
61079SOL    HW289843   3.864   3.598   7.190 -0.5984  1.0674  1.4354
61080SOL     OW89844   5.697  11.596  10.933  0.1660 -0.1418  0.6277
61080SOL    HW189845   5.686  11.538  10.858  0.4426  1.3310 -0.6016
61080SOL    HW289846   5.622  11.655  10.930  0.4822  0.3001  1.1579
61081SOL     OW89847  10.135   2.789   0.457 -0.0868  0.5692 -0.3339
61081SOL    HW189848  10.070   2.858   0.443 -0.3628  0.3163 -0.3172
61081SOL    HW289849  10.131   2.735   0.378 -0.2357  0.2820 -0.1349
61082SOL     OW89850  12.122   3.171  11.219  0.1146  0.0597 -0.0412
61082SOL    HW189851  12.164   3.098  11.265 -1.9499 -0.5776  0.9486
61082SOL    HW289852  12.030   3.147  11.215 -0.7747  2.8693  0.8475
61083SOL     OW89853   7.274   3.701   4.531  0.2235 -0.3848 -0.8120
61083SOL    HW189854   7.261   3.692   4.437  0.9008  1.2733 -1.1025
61083SOL    HW289855   7.364   3.670   4.546  0.5329  0.4491 -0.9099
61084SOL     OW89856   2.073   0.925   9.831  0.0693 -0.2163  0.0001
61084SOL    HW189857   2.028   0.886   9.906 -2.0725  0.0951 -1.0166
61084SOL    HW289858   2.013   0.994   9.801  0.1686 -1.2001 -2.7595
61085SOL     OW89859   7.590   0.939   8.582  0.1051 -0.2346 -0.4460
61085SOL    HW189860   7.678   0.905   8.568  0.7995  0.9770  0.8479
61085SOL    HW289861   7.557   0.889   8.656 -0.8658 -1.6376 -1.7471
61086SOL     OW89862   7.279   8.903   3.255  0.4156 -0.5627 -0.1720
61086SOL    HW189863   7.245   8.835   3.313 -0.6800 -0.3195 -0.5093
61086SOL    HW289864   7.273   8.865   3.167  1.1446 -0.5566 -0.2357
61087SOL     OW89865  12.214   7.137  11.711  0.6902  0.8504 -0.2576
61087SOL    HW189866  12.266   7.102  11.639  1.3521  0.6810  0.2895
61087SOL    HW289867  12.144   7.073  11.723 -0.7421  1.9575 -2.1602
61088SOL     OW89868  11.895  12.079  10.739 -0.3628  0.2806  0.5751
61088SOL    HW189869  11.859  12.154  10.692 -0.4338 -0.5551 -0.7388
61088SOL    HW289870  11.964  12.116  10.794  0.2578  1.1911 -0.7697
61089SOL     OW89871   7.572   7.792   9.660  1.0175  0.0427  0.3143
61089SOL    HW189872   7.628   7.867   9.677 -1.6649  2.0938  0.8006
61089SOL    HW289873   7.498   7.828   9.612 -0.5815 -2.2154  0.9128
61090SOL     OW89874   6.231   6.917   6.562  0.3959  0.3159 -0.6698
61090SOL    HW189875   6.316   6.915   6.518  1.1320  2.2230  0.5112
61090SOL    HW289876   6.250   6.954   6.649 -1.8482  2.4779 -0.9753
61091SOL     OW89877  11.128  11.124   3.201 -0.5203 -0.8761 -0.6409
61091SOL    HW189878  11.109  11.213   3.232 -0.3336 -1.3861  1.0055
61091SOL    HW289879  11.222  11.125   3.180  0.0605 -1.3019  1.7033
61092SOL     OW89880   2.427  11.580   7.719  0.2292  0.1772 -0.2567
61092SOL    HW189881   2.467  11.651   7.769 -0.2289 -0.6448  1.3687
61092SOL    HW289882   2.349  11.620   7.680 -1.2941  0.1554  2.4618
61093SOL     OW89883   2.162  12.428   4.862  0.2845  0.3760 -0.1789
61093SOL    HW189884   2.098  12.475   4.916 -1.8381 -2.5294  0.1096
61093SOL    HW289885   2.113  12.405   4.783  0.8582 -2.0471  0.0999
61094SOL     OW89886   3.742  11.148   4.628 -0.1020 -0.5439 -0.4740
61094SOL    HW189887   3.746  11.225   4.572 -1.5492 -0.3030 -0.2954
61094SOL    HW289888   3.674  11.094   4.589 -0.6310 -0.6991  0.6327
61095SOL     OW89889   1.792   0.803  10.290  0.2112  0.8432  0.2068
61095SOL    HW189890   1.841   0.805  10.372 -0.5365  0.3415  0.6781
61095SOL    HW289891   1.707   0.767  10.314  0.7272 -1.4845 -1.1915
61096SOL     OW89892  10.566   1.954   3.690  0.0482 -0.0903 -0.2127
61096SOL    HW189893  10.564   2.029   3.630 -0.1407 -0.0153 -0.1136
61096SOL    HW289894  10.502   1.976   3.758 -1.2013 -1.0382 -1.0148
61097SOL     OW89895  12.673  11.418   7.591 -0.2606 -0.0262  0.0183
61097SOL    HW189896  12.702  11.505   7.618  1.5089  0.2425 -2.4679
61097SOL    HW289897  12.751  11.363   7.600 -0.7547 -0.8421 -0.5667
61098SOL     OW89898   1.479  10.874   0.864 -0.3473 -0.2818 -0.4687
61098SOL    HW189899   1.409  10.887   0.929 -0.5259  0.8406 -0.8654
61098SOL    HW289900   1.507  10.962   0.842  1.4631 -0.7214 -0.0582
61099SOL     OW89901   0.253   4.403   2.118  0.2254 -0.2671  0.7194
61099SOL    HW189902   0.267   4.386   2.025 -1.2436 -0.0515  0.4314
61099SOL    HW289903   0.166   4.369   2.136  0.7019 -0.8042  2.1658
61100SOL     OW89904   2.071   1.987   5.226 -0.2615  0.0991  0.2328
61100SOL    HW189905   2.115   1.946   5.300  0.4344  1.1244  0.4126
61100SOL    HW289906   2.043   2.072   5.258 -1.5844 -0.1579 -0.1643
61101SOL     OW89907   7.665   5.338  11.233  0.4285  0.0913  0.0248
61101SOL    HW189908   7.722   5.331  11.310  1.3829 -0.3583 -0.7109
61101SOL    HW289909   7.724   5.339  11.158 -0.5258 -0.3404 -0.7601
61102SOL     OW89910   4.357   9.635  12.689 -0.2308  0.3183  0.0784
61102SOL    HW189911   4.323   9.576  12.757  1.0701 -3.4859 -2.2143
61102SOL    HW289912   4.449   9.646  12.712  0.1833 -0.8824 -0.8548
61103SOL     OW89913   6.059  10.107   2.704 -0.2550  0.3338 -0.2282
61103SOL    HW189914   6.028  10.115   2.794 -1.2363  1.2041 -0.6161
61103SOL    HW289915   6.092  10.193   2.682 -1.3340  0.5387 -1.1433
61104SOL     OW89916   3.902   4.141   9.379 -0.3473 -0.2983  0.1768
61104SOL    HW189917   3.853   4.073   9.334 -0.2073  0.6643 -1.5544
61104SOL    HW289918   3.889   4.219   9.325  1.5389  0.4299  0.6826
61105SOL     OW89919   3.409   5.272   1.933  0.2491  0.0132 -0.4454
61105SOL    HW189920   3.473   5.317   1.988  1.9713 -1.9343 -0.7612
61105SOL    HW289921   3.431   5.300   1.844  1.2174 -1.2872 -0.6275
61106SOL     OW89922   2.993   2.576   2.705  0.0443 -0.1527  0.6866
61106SOL    HW189923   2.986   2.488   2.742  0.0792 -0.8523 -0.8775
61106SOL    HW289924   3.053   2.566   2.631  1.1684  1.4908  1.3314
61107SOL     OW89925   2.165   3.470   8.278 -0.4845 -0.1462 -0.3175
61107SOL    HW189926   2.186   3.497   8.189 -0.2228 -0.3967 -0.3354
61107SOL    HW289927   2.070   3.469   8.282 -0.4940  0.3660 -0.4383
61108SOL     OW89928   3.053   3.739   4.625 -1.2264  0.1829 -0.7537
61108SOL    HW189929   3.063   3.816   4.681  0.8804 -0.3488 -0.2974
61108SOL    HW289930   3.122   3.679   4.654 -2.0547 -1.4039 -1.8797
61109SOL     OW89931   5.166   8.129  11.305 -0.1293 -0.5895  0.1936
61109SOL    HW189932   5.108   8.053  11.314  0.4000 -1.2135 -1.3482
61109SOL    HW289933   5.136   8.190  11.372 -2.8821 -0.7147 -0.7832
61110SOL     OW89934   0.629   7.617   5.196  0.2730 -0.1344  0.1440
61110SOL    HW189935   0.683   7.564   5.136  1.0259  1.0157 -0.2196
61110SOL    HW289936   0.544   7.623   5.152  0.6859  0.3430 -0.6156
61111SOL     OW89937   2.693   6.092  11.679 -0.6420 -0.6108 -0.1921
61111SOL    HW189938   2.646   6.069  11.599 -0.5045 -0.4722 -0.3138
61111SOL    HW289939   2.627   6.091  11.747 -0.5163 -2.0372 -0.0731
61112SOL     OW89940  10.102  10.223  11.813  0.5783 -0.0810 -0.2797
61112SOL    HW189941  10.081  10.254  11.902  1.0897 -1.8804  0.5161
61112SOL    HW289942  10.123  10.131  11.825 -0.6518 -0.7120 -2.5013
61113SOL     OW89943   1.372   5.355  10.162  0.0615  0.5740  0.1026
61113SOL    HW189944   1.322   5.425  10.205 -0.6089 -0.4260  0.9873
61113SOL    HW289945   1.382   5.288  10.229 -0.3729 -0.7266 -1.0957
61114SOL     OW89946  12.300  11.559  12.184  0.5029 -0.3073  0.2059
61114SOL    HW189947  12.348  11.477  12.195 -1.7794 -1.4219  3.5903
61114SOL    HW289948  12.353  11.624  12.230 -0.1629 -1.1031  2.1848
61115SOL     OW89949   9.565   1.966   8.095 -0.0465  0.0022  0.6320
61115SOL    HW189950   9.645   1.940   8.050 -1.7312  0.8719 -3.2306
61115SOL    HW289951   9.588   2.048   8.139  0.7972  1.2911 -2.0190
61116SOL     OW89952   0.080   4.060   7.473 -0.0274  0.1521  1.0497
61116SOL    HW189953   0.088   4.128   7.540 -1.1318  0.6656  0.6826
61116SOL    HW289954   0.109   3.980   7.517  0.7703  0.7533  1.6559
61117SOL     OW89955  11.701   9.362   9.193  0.1808 -0.0805  0.1395
61117SOL    HW189956  11.655   9.407   9.264 -0.4958  2.1088 -1.5895
61117SOL    HW289957  11.749   9.291   9.237  2.4209  3.0251  3.2820
61118SOL     OW89958   2.655   2.303   2.739  0.1874  0.0048  0.6657
61118SOL    HW189959   2.695   2.267   2.660  0.4191 -0.0133  0.7877
61118SOL    HW289960   2.716   2.278   2.809  1.3308  2.1822  0.5269
61119SOL     OW89961   3.597   5.481   2.489 -0.7677  0.0537 -0.1742
61119SOL    HW189962   3.605   5.544   2.417 -0.9614  1.1767  0.7512
61119SOL    HW289963   3.517   5.507   2.535 -0.1448 -0.0401  1.0048
61120SOL     OW89964   8.731   9.672   7.650  0.2222 -0.1549  0.9475
61120SOL    HW189965   8.774   9.594   7.685  1.8319  0.3120  0.1001
61120SOL    HW289966   8.643   9.642   7.626  0.4203 -1.4159  1.6714
61121SOL     OW89967   0.589   5.464  10.828  0.1117 -0.8348 -0.7854
61121SOL    HW189968   0.561   5.554  10.815 -2.0753 -1.5353 -1.2183
61121SOL    HW289969   0.509   5.415  10.847  1.5214 -2.2372  2.3876
61122SOL     OW89970  11.266   9.897  11.090  0.2057  0.0389 -0.0491
61122SOL    HW189971  11.182   9.907  11.045 -0.0127  1.5600  0.6348
61122SOL    HW289972  11.242   9.882  11.181  0.6516  1.5945  0.3516
61123SOL     OW89973   3.254  11.443   3.812 -0.0304  0.0148 -0.2657
61123SOL    HW189974   3.208  11.515   3.854  0.3294 -0.9634  1.9505
61123SOL    HW289975   3.345  11.471   3.809 -0.0005 -0.0620 -0.0681
61124SOL     OW89976   6.317   1.357   6.609  0.0941  0.5991  0.0263
61124SOL    HW189977   6.393   1.416   6.612 -0.1116  0.8331  0.6972
61124SOL    HW289978   6.339   1.287   6.670  0.8602 -0.6911 -1.6340
61125SOL     OW89979   8.488   4.896   0.159  0.4107  0.2353  0.2229
61125SOL    HW189980   8.490   4.990   0.177  0.1688  0.4584 -0.8237
61125SOL    HW289981   8.489   4.854   0.245 -0.8947  1.2319  0.7480
61126SOL     OW89982   2.247  12.006   3.887 -0.5736 -0.1636  0.1156
61126SOL    HW189983   2.233  11.937   3.952 -2.3794 -0.4921 -0.5587
61126SOL    HW289984   2.306  12.068   3.930 -0.9407 -0.8619  1.6938
61127SOL     OW89985   1.727  10.302   0.240  0.1371  0.3209  0.4694
61127SOL    HW189986   1.711  10.382   0.189 -2.1077 -0.2097  0.2138
61127SOL    HW289987   1.822  10.293   0.242  0.4344  2.7765  0.1803
61128SOL     OW89988   3.161   1.862  12.553 -0.1799 -0.1806 -0.4486
61128SOL    HW189989   3.231   1.798  12.549 -0.6159 -0.7029 -0.0087
61128SOL    HW289990   3.134   1.862  12.645 -1.5585 -0.8804 -0.8214
61129SOL     OW89991  12.028  12.281   5.636  0.0085  0.0498 -0.1814
61129SOL    HW189992  12.037  12.235   5.553 -1.3891  0.2337 -0.4674
61129SOL    HW289993  11.938  12.262   5.664  0.3619  0.2287  1.1453
61130SOL     OW89994   5.901   8.464   7.603 -0.2869 -0.1575 -0.2818
61130SOL    HW189995   5.879   8.533   7.666  1.2822  0.3806 -0.2848
61130SOL    HW289996   5.994   8.477   7.586 -0.0995 -1.9407 -0.7229
61131SOL     OW89997  12.470  12.066  10.334 -0.5349 -0.2547  0.3257
61131SOL    HW189998  12.411  12.068  10.259 -1.2117 -0.6584  0.8347
61131SOL    HW289999  12.558  12.067  10.296 -0.8691 -0.8453 -0.4835
61132SOL     OW90000   9.627  10.148   4.229 -0.0026 -0.0271  0.1962
61132SOL    HW190001   9.710  10.185   4.260  0.5017 -0.7367 -0.2715
61132SOL    HW290002   9.611  10.193   4.146  1.2951 -1.7235 -1.0472
61133SOL     OW90003   4.205   1.427   5.164 -0.1910 -0.0123 -0.3556
61133SOL    HW190004   4.167   1.420   5.252  1.5963 -0.1753  0.4575
61133SOL    HW290005   4.159   1.359   5.113 -0.1013 -1.0776  0.9160
61134SOL     OW90006   1.676   6.153   3.062  0.3283 -0.3875 -0.0175
61134SOL    HW190007   1.626   6.110   2.993  0.1727 -0.6231  0.2422
61134SOL    HW290008   1.638   6.240   3.069  2.0443  0.6286 -2.0656
61135SOL     OW90009   0.129  10.370   3.971 -1.0259  0.2120  0.0462
61135SOL    HW190010   0.068  10.420   3.918 -0.0437 -0.9601 -2.3480
61135SOL    HW290011   0.192  10.434   4.003 -0.3739  0.7192 -2.1126
61136SOL     OW90012   1.981   1.006   5.491  0.0704  0.1845  0.0660
61136SOL    HW190013   1.927   1.073   5.531  1.2415  0.5142  1.1766
61136SOL    HW290014   1.947   0.924   5.526  0.8310  0.4440  1.5260
61137SOL     OW90015  12.435   1.257   0.745  0.6200 -0.0185 -0.1156
61137SOL    HW190016  12.520   1.217   0.730  0.0368 -1.0998 -0.6683
61137SOL    HW290017  12.374   1.204   0.693 -0.3146  1.0504 -0.1465
61138SOL     OW90018   8.919  12.450   4.044  0.6623  0.0414  0.0254
61138SOL    HW190019   8.830  12.442   4.009  0.4698  2.3543 -0.1358
61138SOL    HW290020   8.972  12.476   3.969  0.7991  2.0615  0.7485
61139SOL     OW90021   2.712   0.216   1.522 -0.2018 -0.1236 -0.0486
61139SOL    HW190022   2.800   0.243   1.551 -0.8167  2.6408 -0.4379
61139SOL    HW290023   2.675   0.171   1.598  1.1806 -0.4699  0.4591
61140SOL     OW90024   2.562   2.591   2.949 -0.2135  0.2917  0.1988
61140SOL    HW190025   2.580   2.608   2.857 -2.5219 -1.0791 -0.5919
61140SOL    HW290026   2.534   2.499   2.952  0.2920  0.1500  2.3578
61141SOL     OW90027   5.005   7.096  12.301  0.3949  0.3303  0.1723
61141SOL    HW190028   5.067   7.087  12.374  2.2264 -0.3039 -1.4067
61141SOL    HW290029   5.018   7.186  12.270 -0.0590  0.4500  0.3157
61142SOL     OW90030   6.132   3.044  10.406  1.0626  0.3412  0.3012
61142SOL    HW190031   6.182   3.038  10.325 -0.9579 -0.9292 -0.9211
61142SOL    HW290032   6.057   3.100  10.385  0.6201  0.1698  1.3593
61143SOL     OW90033  10.251   3.469   0.877  0.5341 -0.0862  0.3174
61143SOL    HW190034  10.168   3.490   0.834 -0.3188 -1.5914  1.1521
61143SOL    HW290035  10.275   3.550   0.922 -1.8727 -0.2969  2.1968
61144SOL     OW90036   1.834   7.573   8.922  0.2271 -0.1770  0.0634
61144SOL    HW190037   1.880   7.649   8.886 -0.0589 -0.1654 -0.2820
61144SOL    HW290038   1.764   7.610   8.975 -0.4159 -0.1939 -0.7556
61145SOL     OW90039   4.638   4.904   4.536 -0.2317 -0.7429 -0.2932
61145SOL    HW190040   4.551   4.940   4.553 -0.2448 -0.9038  0.0028
61145SOL    HW290041   4.698   4.975   4.559 -0.3377  0.2235 -2.7754
61146SOL     OW90042   4.282   4.733   7.396 -0.7980 -0.0137 -0.3083
61146SOL    HW190043   4.367   4.775   7.388 -0.7794  0.2762  1.1934
61146SOL    HW290044   4.229   4.794   7.447 -0.8209 -1.6711  1.8046
61147SOL     OW90045   0.088   1.403   3.123  0.1006 -0.4433  0.5070
61147SOL    HW190046  -0.002   1.387   3.152 -0.5867  0.2774 -1.1129
61147SOL    HW290047   0.093   1.361   3.038  0.3232  2.0826 -0.8125
61148SOL     OW90048   2.626   3.730   9.470  0.0011 -0.8012  0.3148
61148SOL    HW190049   2.665   3.772   9.393  1.2657 -0.7872  0.9293
61148SOL    HW290050   2.571   3.661   9.435 -1.0162  0.4635 -0.6700
61149SOL     OW90051   3.271   2.385  11.617 -0.5123  0.2774 -0.5737
61149SOL    HW190052   3.358   2.366  11.583 -0.7410  1.7853 -2.1744
61149SOL    HW290053   3.285   2.402  11.710  0.5656 -1.4354 -0.3907
61150SOL     OW90054   7.580   7.065   1.088  0.5775  0.2032 -0.3274
61150SOL    HW190055   7.511   6.999   1.094 -0.2460  1.0451 -0.2990
61150SOL    HW290056   7.661   7.014   1.080 -0.1755 -0.8163 -1.9759
61151SOL     OW90057   6.013   1.543   2.091 -0.0608  0.1459  0.3222
61151SOL    HW190058   5.981   1.476   2.151 -0.3540 -0.1265 -0.1375
61151SOL    HW290059   6.047   1.495   2.016  2.2781  0.3797  1.1628
61152SOL     OW90060   5.461   6.193   0.970 -0.1769  0.6512  0.4794
61152SOL    HW190061   5.422   6.271   0.931 -0.5479 -0.6096 -1.9466
61152SOL    HW290062   5.479   6.216   1.060  1.2182  4.0409 -0.5332
61153SOL     OW90063   3.147   7.584  10.936  0.3230  0.0318  0.4371
61153SOL    HW190064   3.131   7.618  10.848 -0.4348  0.1387  0.6138
61153SOL    HW290065   3.242   7.593  10.948  0.3137  0.8496 -0.0214
61154SOL     OW90066   8.886   2.488   3.010  0.1780  0.3935  0.4651
61154SOL    HW190067   8.962   2.477   3.066  2.1378  0.0403 -2.0962
61154SOL    HW290068   8.843   2.402   3.011  0.1640  0.4051  1.4296
61155SOL     OW90069   5.644   6.089  10.752  0.3549 -0.3829 -0.4829
61155SOL    HW190070   5.595   6.168  10.731 -0.4379 -0.7382 -0.0136
61155SOL    HW290071   5.655   6.092  10.847  1.3417 -0.2537 -0.5977
61156SOL     OW90072   0.516   0.419   6.745  0.6363  0.0087 -0.2204
61156SOL    HW190073   0.475   0.446   6.663 -1.4890 -1.5530  0.2306
61156SOL    HW290074   0.507   0.496   6.802 -0.8215  0.0750 -0.4863
61157SOL     OW90075   2.442   7.176   5.407  0.7786  0.2594 -0.3990
61157SOL    HW190076   2.402   7.143   5.327 -0.0498  0.0755  0.0708
61157SOL    HW290077   2.405   7.263   5.418  1.2728  0.4823 -0.4742
61158SOL     OW90078  10.249   2.175   4.405 -0.0025 -0.4047  0.9044
61158SOL    HW190079  10.245   2.083   4.434 -2.1124 -0.5867  0.1641
61158SOL    HW290080  10.162   2.193   4.369  0.9784  1.2997 -0.8004
61159SOL     OW90081   9.915   2.249   5.287  0.5793  0.3751  0.2413
61159SOL    HW190082   9.993   2.195   5.296 -0.1007 -0.6057  0.4730
61159SOL    HW290083   9.869   2.239   5.371 -2.8005 -4.0013 -1.7340
61160SOL     OW90084  10.676   4.309   3.948 -0.1427  0.1125  0.1266
61160SOL    HW190085  10.640   4.370   3.883  0.1984  0.2881  0.0998
61160SOL    HW290086  10.609   4.241   3.957 -0.5067  0.4674  0.1227
61161SOL     OW90087   0.963  12.189   3.308  0.1351  0.8311 -0.1284
61161SOL    HW190088   0.944  12.097   3.289  1.0180  0.5430  0.3243
61161SOL    HW290089   1.045  12.206   3.263 -0.4883  1.6749 -0.9708
61162SOL     OW90090   1.612   6.025   1.502  0.1427 -0.1600  0.3852
61162SOL    HW190091   1.682   5.976   1.458 -0.0331  0.1953 -0.2975
61162SOL    HW290092   1.631   6.015   1.595  0.5892 -0.8206  0.2295
61163SOL     OW90093   5.467   7.512   5.793  0.0988 -0.4973 -0.7004
61163SOL    HW190094   5.485   7.522   5.887 -0.4319 -2.2533 -0.3850
61163SOL    HW290095   5.409   7.586   5.772  0.4767  0.0925  0.2779
61164SOL     OW90096   4.891   1.802   3.939 -0.5222 -0.3767  0.0872
61164SOL    HW190097   4.953   1.791   4.011  0.1240 -1.8988 -0.6586
61164SOL    HW290098   4.815   1.748   3.965 -1.7602  1.7410  1.1578
61165SOL     OW90099   9.846  11.390   5.753  0.8236  0.0386 -0.3062
61165SOL    HW190100   9.894  11.427   5.678  1.7263  1.8190  1.0740
61165SOL    HW290101   9.865  11.297   5.749 -0.8832 -0.3192 -3.4899
61166SOL     OW90102   5.031  10.746   1.455 -0.1239  0.1017  0.1214
61166SOL    HW190103   4.949  10.776   1.415  0.5833  0.4731 -1.1154
61166SOL    HW290104   5.007  10.722   1.545 -1.8524 -1.0475 -0.5866
61167SOL     OW90105  10.796   7.239  11.649  0.0596  0.2503  0.1517
61167SOL    HW190106  10.771   7.290  11.572 -0.3424 -0.6668 -0.3439
61167SOL    HW290107  10.831   7.158  11.613 -3.2493 -1.6887  0.8567
61168SOL     OW90108   0.282   1.280  10.338  0.1428 -0.3681 -0.4946
61168SOL    HW190109   0.224   1.332  10.283  2.0719  0.2339 -2.0734
61168SOL    HW290110   0.291   1.330  10.419 -0.6386  0.0797 -0.6829
61169SOL     OW90111  12.399   9.119   8.692 -0.2891  0.1998  0.3385
61169SOL    HW190112  12.476   9.162   8.731 -1.7876  0.4510  3.3180
61169SOL    HW290113  12.356   9.189   8.643 -0.2060  0.8688  1.1898
61170SOL     OW90114  11.231   2.795   4.890  0.2710 -0.1377 -0.0984
61170SOL    HW190115  11.157   2.771   4.945  0.2139  0.2622  0.0035
61170SOL    HW290116  11.209   2.881   4.855  0.0411 -0.6287 -1.2232
61171SOL     OW90117  11.734   7.692  12.244 -0.3372  0.3339 -0.5698
61171SOL    HW190118  11.756   7.682  12.152  0.1305 -1.6202 -0.3023
61171SOL    HW290119  11.818   7.700  12.288 -0.5988  2.8552 -0.4108
61172SOL     OW90120   3.804   6.873   1.530  0.1591 -0.3423 -0.3914
61172SOL    HW190121   3.894   6.843   1.535  0.1457 -0.4320 -0.6630
61172SOL    HW290122   3.776   6.883   1.621  1.0001  1.3438 -0.2731
61173SOL     OW90123   5.233   2.530  10.526 -0.2317  0.1376 -0.0727
61173SOL    HW190124   5.172   2.583  10.474 -0.9281 -1.6314 -1.1712
61173SOL    HW290125   5.207   2.440  10.508  1.9322 -0.6487  0.4282
61174SOL     OW90126   9.420   9.691   6.074  0.5248  0.0900  1.3393
61174SOL    HW190127   9.491   9.670   6.134  1.1371  0.5126  0.7767
61174SOL    HW290128   9.459   9.749   6.009  0.3820 -1.7990 -0.5665
61175SOL     OW90129   3.577   9.447   7.929  0.0760 -0.8531 -0.5754
61175SOL    HW190130   3.649   9.416   7.874  1.1882  1.3032 -0.4347
61175SOL    HW290131   3.610   9.528   7.969 -2.3381  0.0882 -0.3148
61176SOL     OW90132  11.436  11.393  10.935  0.3593  0.1723 -0.2809
61176SOL    HW190133  11.445  11.425  11.024  0.4333  1.1407 -0.6263
61176SOL    HW290134  11.447  11.471  10.880 -2.3684  0.1242 -1.0551
61177SOL     OW90135   1.218  12.623   9.261 -0.1716 -0.1694  0.4702
61177SOL    HW190136   1.265  12.639   9.179 -1.0635  1.9592  0.3055
61177SOL    HW290137   1.220  12.528   9.271  0.9842 -0.4055 -1.4000
61178SOL     OW90138   2.615   8.096   5.827 -0.2356 -0.3171 -0.0335
61178SOL    HW190139   2.670   8.099   5.748  0.3712  0.3995  0.4059
61178SOL    HW290140   2.636   8.011   5.866  1.3669  0.3636  0.6720
61179SOL     OW90141   5.925  10.673   3.777 -0.2903  0.3420 -0.3239
61179SOL    HW190142   5.840  10.656   3.738 -1.9441  0.5272  2.8563
61179SOL    HW290143   5.909  10.741   3.843  2.0651 -0.3391  1.1055
61180SOL     OW90144   1.303   5.071  12.311 -0.6190  0.0971 -0.5438
61180SOL    HW190145   1.354   4.991  12.323 -0.5918  0.0089 -1.2102
61180SOL    HW290146   1.328   5.103  12.224 -0.2912  1.0753 -0.1045
61181SOL     OW90147   8.775   3.596   6.572 -0.2697 -0.5661  0.4393
61181SOL    HW190148   8.680   3.591   6.589  0.0199 -2.6126  1.7970
61181SOL    HW290149   8.815   3.564   6.652  1.6209  0.4629 -0.0440
61182SOL     OW90150   1.208   2.843   6.174 -0.2583  0.3707 -0.1907
61182SOL    HW190151   1.227   2.751   6.190 -0.2622  0.5548  0.9232
61182SOL    HW290152   1.269   2.890   6.231 -0.7793  1.0395 -0.1778
61183SOL     OW90153   4.838   1.271   2.678  0.3526 -0.1334 -0.1043
61183SOL    HW190154   4.917   1.319   2.656  1.2235 -1.0875  0.8568
61183SOL    HW290155   4.832   1.202   2.612 -1.3163  1.6514 -1.9558
61184SOL     OW90156   8.659   9.784   9.195  0.4090 -0.0434 -0.0024
61184SOL    HW190157   8.641   9.771   9.288  2.0052  0.6863  0.4523
61184SOL    HW290158   8.745   9.827   9.193  0.2653  0.2559 -1.8020
61185SOL     OW90159   0.880   3.213  11.414 -0.2673 -0.2375 -0.4680
61185SOL    HW190160   0.900   3.253  11.499  1.8349  2.1419 -1.9684
61185SOL    HW290161   0.786   3.227  11.403 -0.3129  0.7053  0.8488
61186SOL     OW90162  11.982   4.405   9.760 -0.2123 -0.0684 -0.3686
61186SOL    HW190163  11.979   4.499   9.782 -0.2261  0.0534 -0.8881
61186SOL    HW290164  12.064   4.375   9.798 -0.9310 -0.2013  1.1620
61187SOL     OW90165   1.773   4.536   3.408  0.4243  0.1891 -0.1218
61187SOL    HW190166   1.776   4.497   3.320  1.2898 -1.7537  0.7057
61187SOL    HW290167   1.729   4.620   3.396 -1.9237 -1.1975 -1.9889
61188SOL     OW90168   5.389  11.623   5.736  0.4741  0.5201 -0.3867
61188SOL    HW190169   5.480  11.652   5.736  0.8573 -0.6273  0.5058
61188SOL    HW290170   5.377  11.577   5.653  0.8724  0.1822 -0.2580
61189SOL     OW90171   3.544  12.506   7.688  1.0505 -0.7354  0.0017
61189SOL    HW190172   3.469  12.505   7.749  1.0009 -2.3169 -0.0589
61189SOL    HW290173   3.613  12.460   7.735  0.0072 -5.1644 -2.2691
61190SOL     OW90174  10.387   9.615   7.723  0.0953 -0.1156 -0.3502
61190SOL    HW190175  10.446   9.661   7.783 -0.9298  0.6293  0.1086
61190SOL    HW290176  10.420   9.639   7.636  0.5431  0.1945 -0.1045
61191SOL     OW90177   7.242   0.358   4.217 -0.5803 -0.4763  0.0772
61191SOL    HW190178   7.165   0.394   4.173  0.7924  1.5788 -0.8100
61191SOL    HW290179   7.315   0.377   4.157  0.4045 -4.3073 -0.1933
61192SOL     OW90180   0.077   5.635   4.371 -0.3343 -0.1818 -0.0357
61192SOL    HW190181   0.040   5.547   4.378  1.0540 -0.7530  0.5494
61192SOL    HW290182   0.169   5.620   4.350  0.0346  1.1201  0.5601
61193SOL     OW90183  10.279   6.013  10.313 -0.3798 -0.2336  0.3192
61193SOL    HW190184  10.256   6.045  10.401 -1.2349  0.5509 -0.1687
61193SOL    HW290185  10.196   6.011  10.266  0.2120  0.4401 -0.8039
61194SOL     OW90186   7.034   7.115   6.049  0.3244  0.1117  0.6015
61194SOL    HW190187   7.039   7.118   5.953  2.2945  1.3368  0.6801
61194SOL    HW290188   6.941   7.130   6.069 -0.7890 -3.3828 -1.1170
61195SOL     OW90189  11.390   8.039   6.989  0.1427  0.2887 -0.2662
61195SOL    HW190190  11.428   8.035   7.076 -0.5271  2.7599  0.2271
61195SOL    HW290191  11.419   8.123   6.954 -1.2855  0.2914 -1.5648
61196SOL     OW90192   6.135  11.364   9.207 -0.3988 -0.3192  0.1645
61196SOL    HW190193   6.170  11.288   9.252 -0.4846  0.8259  2.3146
61196SOL    HW290194   6.043  11.367   9.234 -0.5908  0.1060 -0.5228
61197SOL     OW90195   2.253   6.654   5.531  0.0879  0.3226 -0.2054
61197SOL    HW190196   2.251   6.748   5.552 -0.8713  0.0740  0.9066
61197SOL    HW290197   2.224   6.611   5.611 -2.3634 -0.7823 -1.5828
61198SOL     OW90198   7.159   7.531   3.058  0.2917 -0.1277  0.2350
61198SOL    HW190199   7.135   7.478   2.982  0.6972  0.8343 -0.5838
61198SOL    HW290200   7.165   7.468   3.130  1.0103 -1.2278 -0.7621
61199SOL     OW90201   2.349   1.952  10.645 -0.1302 -0.5181 -0.3588
61199SOL    HW190202   2.380   1.862  10.653 -0.6974 -0.8218 -1.4852
61199SOL    HW290203   2.392   1.999  10.717 -1.4464 -2.1218  1.5871
61200SOL     OW90204   5.228   8.765   2.231 -0.2356  0.4051  0.4048
61200SOL    HW190205   5.235   8.713   2.152  0.0423 -0.4925  1.0056
61200SOL    HW290206   5.225   8.856   2.200 -0.7892  0.0409 -0.6537
61201SOL     OW90207  12.707  11.172   0.065 -0.1381  0.1798 -0.2435
61201SOL    HW190208  12.799  11.198   0.067 -0.1841  0.2984  0.4325
61201SOL    HW290209  12.692  11.129   0.149 -1.1768  1.8215  0.4588
61202SOL     OW90210   4.559   5.255   9.533  0.5053 -0.1402 -0.0422
61202SOL    HW190211   4.618   5.313   9.485  0.4424  1.1992  1.4041
61202SOL    HW290212   4.473   5.269   9.493  0.5394  0.5971  0.1300
61203SOL     OW90213   2.009  10.937   0.227 -0.4080  0.3549 -0.2819
61203SOL    HW190214   2.037  10.903   0.312 -0.8566  0.9238  0.0980
61203SOL    HW290215   2.049  11.024   0.221  0.0994  0.0921 -0.9112
61204SOL     OW90216   4.562  10.507   4.746 -0.1247 -0.1264 -0.6055
61204SOL    HW190217   4.510  10.473   4.819 -2.7274  0.4636 -2.0803
61204SOL    HW290218   4.585  10.596   4.773  2.2467 -1.1344  1.0329
61205SOL     OW90219  12.291   2.271   9.743  0.4358 -0.4829  0.4428
61205SOL    HW190220  12.261   2.342   9.686 -0.6024 -1.6894 -0.5867
61205SOL    HW290221  12.215   2.248   9.796  1.1496  0.0446  1.7377
61206SOL     OW90222   9.216   5.674   3.583  0.4880  0.3097 -0.6803
61206SOL    HW190223   9.229   5.579   3.594 -0.2534  0.3957  1.2858
61206SOL    HW290224   9.305   5.710   3.580  0.9117 -0.1121  2.5895
61207SOL     OW90225   1.781   4.115   2.441  0.6319 -0.2183  0.2873
61207SOL    HW190226   1.699   4.067   2.432 -0.4345  1.6757 -0.6313
61207SOL    HW290227   1.755   4.207   2.451  2.6184  0.3640  0.5773
61208SOL     OW90228   8.221   9.831   8.304 -0.3739  0.2991  0.0422
61208SOL    HW190229   8.235   9.870   8.218  0.3242 -1.6995 -0.8025
61208SOL    HW290230   8.284   9.876   8.361 -0.0718  0.8736 -0.7183
61209SOL     OW90231   7.293   0.515   1.858  0.0548  0.6131  0.0760
61209SOL    HW190232   7.374   0.464   1.867  0.7933  1.6306 -0.5566
61209SOL    HW290233   7.310   0.575   1.785 -1.7225  0.0522 -0.8566
61210SOL     OW90234   2.881   9.918   4.189  0.8057 -0.3114  0.0248
61210SOL    HW190235   2.835   9.872   4.259 -0.6437  0.8615 -0.1105
61210SOL    HW290236   2.836   9.892   4.109  1.5198 -0.4949 -0.3352
61211SOL     OW90237   1.996   9.014  10.690 -0.9150  0.5167 -0.0913
61211SOL    HW190238   1.999   8.919  10.686 -0.8707  0.5255 -0.3052
61211SOL    HW290239   1.913   9.035  10.732 -1.5450  0.4106 -1.2373
61212SOL     OW90240   9.336   1.618   3.442 -0.3042  0.0103 -0.6595
61212SOL    HW190241   9.359   1.646   3.353  1.4986 -2.8510 -1.2276
61212SOL    HW290242   9.387   1.675   3.499 -1.6850  2.0713 -1.3616
61213SOL     OW90243   7.219   1.285  11.787 -0.7510 -0.3288  0.2502
61213SOL    HW190244   7.220   1.244  11.874 -0.7394 -2.7414 -0.7897
61213SOL    HW290245   7.295   1.343  11.787 -1.8763  1.2820  2.4800
61214SOL     OW90246  12.226   2.901  11.284 -0.1419 -0.0756 -0.2780
61214SOL    HW190247  12.312   2.862  11.298 -0.4267 -0.6530 -0.0956
61214SOL    HW290248  12.205   2.879  11.193  0.3065  0.8812 -0.6225
61215SOL     OW90249   2.134   1.105   3.536 -0.2802 -0.5767  0.2634
61215SOL    HW190250   2.039   1.092   3.530 -0.3029 -0.5933  0.6545
61215SOL    HW290251   2.146   1.159   3.615  0.1172 -1.4494  0.8113
61216SOL     OW90252   1.747   7.821  12.212 -0.7554  0.0761  0.1964
61216SOL    HW190253   1.658   7.808  12.179 -0.7063 -0.9266  0.4303
61216SOL    HW290254   1.787   7.884  12.151 -1.2500 -0.3583 -0.5787
61217SOL     OW90255   3.682  10.893   2.884 -0.6524  0.5384  0.4201
61217SOL    HW190256   3.717  10.943   2.811 -0.4742 -0.5109 -0.2293
61217SOL    HW290257   3.664  10.806   2.848 -2.1805  0.4930  1.2030
61218SOL     OW90258   6.170   0.833  10.343  0.1368 -0.1598  0.2020
61218SOL    HW190259   6.202   0.895  10.409 -0.3568  0.9455 -0.5655
61218SOL    HW290260   6.143   0.756  10.394 -2.2611  1.4476  1.5969
61219SOL     OW90261   4.295   1.844   0.446 -0.1432  0.0993 -0.3964
61219SOL    HW190262   4.297   1.828   0.541  1.2588  0.6720 -0.3104
61219SOL    HW290263   4.292   1.756   0.408  1.5214 -0.2412  0.1644
61220SOL     OW90264   2.976   5.278   5.468  0.0550 -0.1884  0.6038
61220SOL    HW190265   3.005   5.357   5.514 -1.1588  1.4823 -1.3108
61220SOL    HW290266   3.014   5.286   5.381 -0.6285 -1.4078  0.1785
61221SOL     OW90267   6.199   9.339   1.070 -0.2948  0.4495 -0.1870
61221SOL    HW190268   6.157   9.317   1.154  0.1766 -0.2532 -0.1288
61221SOL    HW290269   6.188   9.434   1.062 -0.2715  0.5402  0.7146
61222SOL     OW90270   6.946   4.989   6.578 -0.1461 -0.1824  0.4603
61222SOL    HW190271   7.023   4.977   6.522 -0.4828 -1.8560  0.2849
61222SOL    HW290272   6.977   5.044   6.650  0.9218  0.0606 -0.1586
61223SOL     OW90273   7.123   7.717  10.818 -0.1631  0.1804  0.3772
61223SOL    HW190274   7.192   7.779  10.844 -1.7798  1.6887  1.3403
61223SOL    HW290275   7.084   7.756  10.740 -0.3247 -0.3444  0.1905
61224SOL     OW90276  12.635   8.757  10.523  0.0290 -0.1403 -0.2822
61224SOL    HW190277  12.569   8.773  10.591 -1.7763 -1.0589 -1.7152
61224SOL    HW290278  12.713   8.730  10.571 -1.3368 -1.2733  1.4241
61225SOL     OW90279   9.377  10.128   9.766 -0.1087 -0.0477  0.2980
61225SOL    HW190280   9.462  10.139   9.809 -0.8689  1.0319  1.5693
61225SOL    HW290281   9.344  10.045   9.801 -0.4453  0.5159  1.3558
61226SOL     OW90282   4.278  12.070  11.879  0.6210  0.1821 -0.1617
61226SOL    HW190283   4.339  12.067  11.806  1.9472  0.7781  0.8681
61226SOL    HW290284   4.333  12.061  11.957 -0.7996 -1.0503  0.7717
61227SOL     OW90285   0.331   6.250   3.321  0.0678  0.0972  0.2255
61227SOL    HW190286   0.274   6.280   3.392  1.6266 -0.1943  1.6688
61227SOL    HW290287   0.344   6.157   3.340  1.4991  0.2929  0.3052
61228SOL     OW90288   5.167   1.612   5.338 -0.1122 -0.2460 -0.3937
61228SOL    HW190289   5.217   1.667   5.278 -0.0426 -1.2413 -1.2787
61228SOL    HW290290   5.222   1.535   5.352 -0.5955 -0.5069  0.1079
61229SOL     OW90291  12.410   3.831   2.532  0.2606 -0.1844 -0.6143
61229SOL    HW190292  12.328   3.876   2.553  0.4292  0.2855 -0.9231
61229SOL    HW290293  12.477   3.879   2.581  0.4063 -0.2819 -0.7169
61230SOL     OW90294   6.042   1.826   9.167 -0.6590 -0.5116  0.0668
61230SOL    HW190295   5.985   1.770   9.114 -0.8828 -0.9943  0.8116
61230SOL    HW290296   6.046   1.784   9.252  0.0517  0.0297  0.3169
61231SOL     OW90297  10.119   0.695   9.331 -0.4649 -0.1375 -0.3121
61231SOL    HW190298  10.165   0.686   9.248  0.2660 -1.6498  0.2214
61231SOL    HW290299  10.030   0.663   9.313 -0.3731 -0.2583 -0.5506
61232SOL     OW90300   8.516   8.953  10.964 -0.0465  0.3422 -0.7867
61232SOL    HW190301   8.489   9.005  11.040  1.2087 -0.3894  0.1835
61232SOL    HW290302   8.512   9.015  10.891 -1.3737  1.0266 -0.1656
61233SOL     OW90303   4.889   5.527  11.291  0.0566  0.6370 -0.1447
61233SOL    HW190304   4.858   5.491  11.374  0.7024 -1.1717 -0.6435
61233SOL    HW290305   4.825   5.595  11.269 -2.4212 -1.5211 -0.1222
61234SOL     OW90306   9.038   8.334  12.486 -0.2711 -0.4181 -0.6817
61234SOL    HW190307   9.105   8.380  12.535 -2.6054 -0.1131  2.5442
61234SOL    HW290308   9.014   8.259  12.541 -2.7623 -0.3453 -1.5311
61235SOL     OW90309  11.074  10.355   4.409 -0.4667 -0.9669 -0.2132
61235SOL    HW190310  10.991  10.312   4.432 -0.4653 -0.6866  0.3463
61235SOL    HW290311  11.141  10.292   4.436 -0.5010 -1.6455 -1.6174
61236SOL     OW90312   0.370   9.064   8.093 -0.1363 -0.1225 -0.2891
61236SOL    HW190313   0.359   9.109   8.177  1.5448 -0.4360  0.1419
61236SOL    HW290314   0.348   8.973   8.113 -1.1451  0.0506 -0.5621
61237SOL     OW90315   9.202  10.114   1.120  0.2047 -0.1951 -0.6756
61237SOL    HW190316   9.123  10.165   1.100  1.5555  1.8586 -1.1277
61237SOL    HW290317   9.255  10.120   1.040  0.1127 -3.1226 -1.0900
61238SOL     OW90318   6.030   4.717   0.134  0.0876 -0.2267  0.0003
61238SOL    HW190319   6.071   4.658   0.198  2.7789  1.6018  0.1461
61238SOL    HW290320   5.976   4.776   0.187  1.7462  0.8284  0.6137
61239SOL     OW90321   6.669  11.910   4.895 -0.1967  0.3470  0.4420
61239SOL    HW190322   6.600  11.914   4.829 -0.9525 -1.2732  1.0811
61239SOL    HW290323   6.750  11.922   4.846 -0.6949 -1.3649 -0.8973
61240SOL     OW90324   6.193  10.532   5.763 -0.1929 -0.2138  0.2484
61240SOL    HW190325   6.131  10.482   5.711 -0.2712 -0.3939  0.5123
61240SOL    HW290326   6.157  10.530   5.851  0.4331 -0.7403  0.5036
61241SOL     OW90327   5.506   2.785   3.550  0.5515 -0.0362  0.0581
61241SOL    HW190328   5.549   2.708   3.514  1.0703  0.5360 -0.5686
61241SOL    HW290329   5.512   2.774   3.645  1.0563 -0.5208 -0.0252
61242SOL     OW90330  12.335  10.836   7.405 -0.4961  0.5979  0.4277
61242SOL    HW190331  12.426  10.864   7.403 -0.2522 -0.1130  1.1078
61242SOL    HW290332  12.295  10.877   7.328  0.0173  2.1731  0.9597
61243SOL     OW90333   2.763   7.537   7.906  0.2012  0.4403  0.2270
61243SOL    HW190334   2.702   7.611   7.915 -0.3513  0.0417 -0.2016
61243SOL    HW290335   2.732   7.472   7.968 -0.2744 -0.0670 -0.5220
61244SOL     OW90336   0.708   5.698   4.067  0.4143 -0.4905  0.4470
61244SOL    HW190337   0.616   5.726   4.060  0.1429 -1.4541  0.0418
61244SOL    HW290338   0.731   5.668   3.979  1.9075  2.0270 -0.1279
61245SOL     OW90339   7.933  12.512  11.584  0.6906  0.0298 -0.4634
61245SOL    HW190340   7.858  12.555  11.544  1.6953  2.1055 -0.2722
61245SOL    HW290341   7.932  12.423  11.548 -2.4989 -0.4354  0.4783
61246SOL     OW90342   2.098  11.941   2.229 -0.0891 -0.2429 -0.5195
61246SOL    HW190343   2.030  11.874   2.226 -0.7341  0.3683 -0.0240
61246SOL    HW290344   2.180  11.893   2.234 -0.5823 -0.9879  0.5307
61247SOL     OW90345   0.954   3.216   4.082  0.1639 -0.0932 -0.4689
61247SOL    HW190346   0.860   3.233   4.074  0.1702  0.2088  0.0818
61247SOL    HW290347   0.962   3.167   4.164  0.0736 -3.2933 -2.2123
61248SOL     OW90348   2.597   0.010   0.462 -0.3162 -0.1841 -0.0873
61248SOL    HW190349   2.523   0.044   0.412 -0.5979 -1.4034 -0.5286
61248SOL    HW290350   2.669   0.005   0.399 -0.3862 -0.7457 -0.1321
61249SOL     OW90351   9.794   0.350  10.384 -0.8725  0.2231  0.6145
61249SOL    HW190352   9.709   0.353  10.341 -0.3908  0.4617 -0.3464
61249SOL    HW290353   9.829   0.264  10.361 -0.0638  0.8500 -0.5755
61250SOL     OW90354   3.953   4.210   0.182 -0.4176 -0.1819 -0.1435
61250SOL    HW190355   4.044   4.231   0.161  0.5055 -1.7645  1.8801
61250SOL    HW290356   3.902   4.272   0.130  1.8575  3.9839  2.0201
61251SOL     OW90357  10.678  10.194   1.613 -0.1508 -0.0299  0.9573
61251SOL    HW190358  10.743  10.134   1.650  0.6921  0.0598 -0.3056
61251SOL    HW290359  10.692  10.277   1.658  1.7415  0.4495 -0.3843
61252SOL     OW90360  11.759  10.187   1.953  0.8060  0.1767  0.0910
61252SOL    HW190361  11.714  10.108   1.984  2.2112 -0.0791  1.6006
61252SOL    HW290362  11.824  10.206   2.021  0.5045  2.6585 -0.2102
61253SOL     OW90363   6.802  11.418   2.310  0.0483 -0.0664 -0.2726
61253SOL    HW190364   6.733  11.433   2.245 -1.3797  1.4125  1.4626
61253SOL    HW290365   6.879  11.461   2.274  0.2912 -2.1560 -2.4834
61254SOL     OW90366   0.736   7.812   7.364 -0.2348 -0.0906  0.2828
61254SOL    HW190367   0.821   7.851   7.342 -0.4231  0.6595  0.8539
61254SOL    HW290368   0.675   7.885   7.366 -0.9150 -0.6301 -0.1591
61255SOL     OW90369   5.776   5.163  12.683  0.1167  0.1095  0.7402
61255SOL    HW190370   5.694   5.117  12.662 -0.0766  0.8755 -0.2688
61255SOL    HW290371   5.844   5.096  12.672 -0.3935 -0.6893  2.1538
61256SOL     OW90372   3.061   0.571   0.131  0.2904  0.2422 -0.1743
61256SOL    HW190373   3.018   0.583   0.216  1.1994  1.8730  0.0986
61256SOL    HW290374   3.001   0.612   0.069  0.3317  0.4047 -0.1087
61257SOL     OW90375   1.348   3.928   9.712 -0.0948  1.1326 -0.6116
61257SOL    HW190376   1.307   3.926   9.626 -3.9796  0.2134  1.0499
61257SOL    HW290377   1.316   4.008   9.752 -0.6665  0.1958  0.8967
61258SOL     OW90378   4.013   7.581   2.264  0.3012  0.3253 -0.0204
61258SOL    HW190379   3.988   7.673   2.274 -1.1035 -0.0836  0.6665
61258SOL    HW290380   3.932   7.538   2.235  1.2388 -0.5261 -1.5062
61259SOL     OW90381   5.083   8.267   9.474  0.2827  0.0988  0.1362
61259SOL    HW190382   5.147   8.303   9.413 -0.4406  1.9155  0.3991
61259SOL    HW290383   5.008   8.242   9.420  0.3062  0.1035  0.1010
61260SOL     OW90384   0.899   3.195   5.116  0.0644 -0.3055 -0.3197
61260SOL    HW190385   0.901   3.251   5.194  0.3757  0.3822 -0.8204
61260SOL    HW290386   0.950   3.242   5.050 -0.2521 -0.8489 -0.9684
61261SOL     OW90387   7.533   2.053   9.842 -0.1994  0.7881 -0.1459
61261SOL    HW190388   7.466   2.043   9.775 -0.3783  0.8075  0.0301
61261SOL    HW290389   7.577   2.135   9.820  1.1129 -0.2111 -1.4526
61262SOL     OW90390   2.352   5.582   0.077 -0.2789 -0.3535  0.6849
61262SOL    HW190391   2.349   5.585  -0.019 -0.8658 -2.2546  0.6047
61262SOL    HW290392   2.367   5.673   0.103  0.4581  0.1219 -1.2194
61263SOL     OW90393   2.457   5.165   2.272  0.1899  0.0587  0.3378
61263SOL    HW190394   2.445   5.098   2.205 -2.1813  0.5468  0.1933
61263SOL    HW290395   2.492   5.117   2.347 -0.2709 -1.1138 -0.1751
61264SOL     OW90396  10.971   8.576   9.702 -0.4875 -0.3432  0.1964
61264SOL    HW190397  10.917   8.578   9.623  0.9599  0.9416 -0.8224
61264SOL    HW290398  10.926   8.636   9.762 -0.4663  0.3621 -0.4691
61265SOL     OW90399   4.800   9.998   0.868 -0.1791 -0.0412  0.2428
61265SOL    HW190400   4.773   9.927   0.809  1.9930  0.9898 -2.2146
61265SOL    HW290401   4.720  10.050   0.881 -0.8438 -0.5375 -1.5451
61266SOL     OW90402   5.415  11.227   4.536 -0.1800  0.7365 -0.5130
61266SOL    HW190403   5.435  11.211   4.628 -1.0820 -0.8134 -0.5519
61266SOL    HW290404   5.321  11.214   4.530 -0.7648  4.2326 -1.0298
61267SOL     OW90405   8.538  10.794   1.487  0.5074  0.2635 -0.1679
61267SOL    HW190406   8.457  10.759   1.523  0.5655  0.6556  0.3446
61267SOL    HW290407   8.531  10.888   1.498  1.2911  0.2624  0.4279
61268SOL     OW90408   7.703   7.801   5.620 -0.5567  0.2438  0.6294
61268SOL    HW190409   7.697   7.821   5.714  0.2256 -0.6626  0.8843
61268SOL    HW290410   7.772   7.736   5.614 -0.5827  0.3177 -0.5953
61269SOL     OW90411   9.111  12.501   0.813 -0.0112  0.3839 -0.1493
61269SOL    HW190412   9.099  12.584   0.768 -0.9285  0.1061 -0.4270
61269SOL    HW290413   9.063  12.437   0.761  0.6078 -0.3118  0.1087
61270SOL     OW90414  11.648   9.360   7.473 -0.0034  0.1183 -0.0016
61270SOL    HW190415  11.619   9.299   7.540  0.7508 -1.6794 -1.2270
61270SOL    HW290416  11.743   9.348   7.469  0.0297  0.6024 -1.0014
61271SOL     OW90417   6.307   6.047   1.558 -0.3026 -0.3164  0.5531
61271SOL    HW190418   6.362   6.016   1.486 -1.2978 -0.6504 -0.0893
61271SOL    HW290419   6.217   6.042   1.523 -0.7798 -0.2682  1.7395
61272SOL     OW90420   9.485   9.646   1.825 -0.0888  0.2673  0.4716
61272SOL    HW190421   9.473   9.561   1.866  1.5863  0.5655  1.7162
61272SOL    HW290422   9.452   9.635   1.736 -1.5337 -1.1423  1.1385
61273SOL     OW90423   0.486   1.760   6.564  0.1499  0.2099  0.2886
61273SOL    HW190424   0.491   1.768   6.469  0.2933 -0.6567  0.2110
61273SOL    HW290425   0.542   1.830   6.597 -1.5908  1.9103 -0.2015
61274SOL     OW90426   5.403   2.690  12.660  0.2313  0.1946  0.3409
61274SOL    HW190427   5.430   2.741  12.736  0.0629  0.4365  0.2386
61274SOL    HW290428   5.308   2.703  12.654  0.2314  0.1145  0.1369
61275SOL     OW90429   7.052   5.863   4.426  0.0860  0.0351  0.0503
61275SOL    HW190430   7.070   5.886   4.518  3.2373  2.4840 -1.0006
61275SOL    HW290431   7.093   5.777   4.416 -0.2867 -0.2615  0.9315
61276SOL     OW90432   7.150   3.368   3.517  0.5991  0.5495 -0.0795
61276SOL    HW190433   7.221   3.307   3.497 -1.1206 -0.9413 -2.0113
61276SOL    HW290434   7.154   3.433   3.447 -0.6071 -0.2070 -0.8863
61277SOL     OW90435   4.021   0.680   1.052 -0.2889 -0.4369 -0.3092
61277SOL    HW190436   4.012   0.585   1.051  1.8534 -0.7319  1.4373
61277SOL    HW290437   4.026   0.703   1.145 -0.9861  1.4387 -0.6860
61278SOL     OW90438   4.088  11.936   5.925  0.8798  0.3354  0.2766
61278SOL    HW190439   4.121  11.986   5.850  1.9895  0.5417  0.8767
61278SOL    HW290440   4.141  11.857   5.926  2.6803  1.4665  2.3064
61279SOL     OW90441   7.629   3.634   5.546  0.5660  0.3565 -0.4274
61279SOL    HW190442   7.672   3.582   5.614  0.6564 -0.6989 -1.2665
61279SOL    HW290443   7.696   3.646   5.478  0.1043  0.2979 -0.9061
61280SOL     OW90444   9.669  10.537   8.398  0.2266 -0.0958  0.3358
61280SOL    HW190445   9.583  10.496   8.401  0.3272 -0.2608  1.2851
61280SOL    HW290446   9.727  10.467   8.367 -0.2982  0.6416 -2.5678
61281SOL     OW90447  10.366   0.002   7.969  0.0986  0.7272 -0.3809
61281SOL    HW190448  10.277   0.035   7.956 -1.0457 -2.2038 -0.8129
61281SOL    HW290449  10.406   0.006   7.882 -1.0414 -1.4691 -1.0992
61282SOL     OW90450   5.967   4.963   9.764 -0.5530 -0.0326  0.4321
61282SOL    HW190451   5.900   4.895   9.767 -0.7462  0.1767  1.1976
61282SOL    HW290452   6.021   4.941   9.689 -2.5100  0.7943 -1.3126
61283SOL     OW90453   5.597   5.142   7.137  0.4491 -0.1183  0.2103
61283SOL    HW190454   5.590   5.227   7.094  0.9086 -0.0047  0.3511
61283SOL    HW290455   5.600   5.162   7.230 -0.4167 -0.3562  0.2963
61284SOL     OW90456  10.235   3.784  12.761  0.4096 -0.1894 -0.2980
61284SOL    HW190457  10.277   3.836  12.829  1.2695 -0.0140 -0.9393
61284SOL    HW290458  10.274   3.697  12.769 -0.9083 -0.7280  0.6690
61285SOL     OW90459   8.300   0.242  11.954 -0.3705  0.9744  0.8895
61285SOL    HW190460   8.237   0.286  11.897 -2.2257  1.1182  2.9150
61285SOL    HW290461   8.255   0.233  12.037  1.4818 -1.0420  1.7840
61286SOL     OW90462   4.301  11.418   6.399  0.0498  0.0277  0.2416
61286SOL    HW190463   4.349  11.472   6.463 -1.7872  3.0761 -0.7334
61286SOL    HW290464   4.216  11.403   6.441 -0.7172  0.9942 -0.8929
61287SOL     OW90465   5.572   8.163   9.687 -0.2014 -0.2921 -0.3626
61287SOL    HW190466   5.647   8.172   9.747 -0.8443  1.5170  0.2265
61287SOL    HW290467   5.607   8.112   9.613  1.6304  0.5056 -0.1086
61288SOL     OW90468   4.539   4.122   4.589  0.3402  0.1715 -0.0308
61288SOL    HW190469   4.621   4.156   4.553  1.3083 -1.0189  0.9651
61288SOL    HW290470   4.472   4.156   4.530  1.6060  0.5335 -1.3416
61289SOL     OW90471  11.756  10.328   5.540  0.1313 -0.6542  0.4054
61289SOL    HW190472  11.847  10.358   5.542 -0.2338  0.7368 -1.3673
61289SOL    HW290473  11.746  10.285   5.455 -1.5335  1.7043 -0.6912
61290SOL     OW90474   1.302   4.026   7.690  0.3729 -0.6345 -0.1164
61290SOL    HW190475   1.224   4.031   7.635  0.1641 -2.6713 -0.0727
61290SOL    HW290476   1.275   4.068   7.772 -0.4512 -0.7094 -0.3393
61291SOL     OW90477   1.468   2.060   4.513 -0.2524  0.5367 -0.0739
61291SOL    HW190478   1.533   2.129   4.499 -1.5466  2.0014  0.8682
61291SOL    HW290479   1.389   2.092   4.468 -1.4622  0.6307  2.0163
61292SOL     OW90480  11.371   1.118  10.273 -0.2669 -0.2878 -0.1565
61292SOL    HW190481  11.424   1.115  10.193 -2.3755 -0.1706 -1.6460
61292SOL    HW290482  11.423   1.071  10.338  1.3549 -0.7291 -1.6987
61293SOL     OW90483  10.502   9.541   8.468 -0.1643  0.0906 -0.0001
61293SOL    HW190484  10.561   9.469   8.446  2.4512  1.7586  1.1519
61293SOL    HW290485  10.480   9.581   8.384  0.5653 -0.3845 -0.4243
61294SOL     OW90486   0.195   7.640  11.624  0.4297 -0.0921  0.5246
61294SOL    HW190487   0.126   7.699  11.655 -1.0199 -0.1960 -2.1731
61294SOL    HW290488   0.186   7.562  11.678 -0.3157  0.6267  1.4730
61295SOL     OW90489   2.873  10.791  11.810  0.6283  0.5272 -0.1050
61295SOL    HW190490   2.955  10.744  11.798  0.9201  1.1110 -0.4286
61295SOL    HW290491   2.815  10.758  11.741  0.9726  0.9484 -0.6001
61296SOL     OW90492   4.472   4.196   0.806  0.1105  0.1986 -0.4217
61296SOL    HW190493   4.556   4.230   0.837 -0.2963  0.2250  0.6920
61296SOL    HW290494   4.478   4.202   0.711  1.5698 -0.2650 -0.3910
61297SOL     OW90495   8.663   8.432   2.432 -0.5408 -0.4488  0.1016
61297SOL    HW190496   8.715   8.509   2.455 -1.4809  0.2140  0.0362
61297SOL    HW290497   8.677   8.371   2.505 -0.0895 -0.0710  0.3369
61298SOL     OW90498   7.297   5.450   0.445  0.4094 -0.4245  0.7347
61298SOL    HW190499   7.236   5.405   0.387 -0.0302  1.7298 -0.6324
61298SOL    HW290500   7.383   5.425   0.413  0.1696  0.2355 -0.5342
61299SOL     OW90501   0.706  11.031   6.841  0.1629 -0.2491  0.2406
61299SOL    HW190502   0.678  11.117   6.807 -0.4569 -0.6818 -0.3778
61299SOL    HW290503   0.767  10.999   6.775  0.5398 -0.2023  0.5670
61300SOL     OW90504   6.172   6.918   2.055  0.1759  0.1023 -0.4174
61300SOL    HW190505   6.106   6.921   1.986 -0.5614  0.2163  0.2698
61300SOL    HW290506   6.123   6.937   2.135  1.1522  0.7883  0.0380
61301SOL     OW90507   2.826  12.687   3.014  0.0158 -0.2820  0.1415
61301SOL    HW190508   2.816  12.600   3.053  0.9057  0.3087  1.8133
61301SOL    HW290509   2.897  12.678   2.951 -0.0426 -0.8195  0.1478
61302SOL     OW90510  11.640   6.285   1.297 -0.4134  0.0783 -0.1391
61302SOL    HW190511  11.617   6.196   1.324  0.6413 -0.2574 -0.3014
61302SOL    HW290512  11.726   6.301   1.337 -1.2972  1.6541  1.2833
61303SOL     OW90513   6.242   0.423  11.840 -0.4239  0.4117 -0.1777
61303SOL    HW190514   6.190   0.394  11.765 -1.2845 -0.2684  0.6564
61303SOL    HW290515   6.227   0.356  11.908 -1.1810  1.9635  1.2507
61304SOL     OW90516   4.582   1.214   0.148 -0.4677  0.1406  0.2187
61304SOL    HW190517   4.566   1.234   0.055  0.7352 -1.3283 -0.3408
61304SOL    HW290518   4.555   1.294   0.194  0.2893  1.4795 -1.5154
61305SOL     OW90519   8.228  10.232  12.269  0.1201 -0.5403  0.4291
61305SOL    HW190520   8.307  10.190  12.234  0.9345  1.1761  0.1085
61305SOL    HW290521   8.156  10.190  12.222  0.9822 -0.7149 -0.7826
61306SOL     OW90522   1.271   7.031   2.959 -0.4591 -0.0772 -0.1553
61306SOL    HW190523   1.231   6.947   2.984 -0.2814  0.1232  0.8371
61306SOL    HW290524   1.337   7.007   2.894 -3.3474 -0.2575 -3.3634
61307SOL     OW90525   2.971   2.768   5.924  0.5335 -0.1568 -0.2971
61307SOL    HW190526   3.030   2.733   5.990 -0.6093 -0.5779  0.5230
61307SOL    HW290527   2.963   2.698   5.859 -0.3040 -0.7276  0.4060
61308SOL     OW90528   6.111   5.417   8.117 -0.2696 -0.3929  0.3242
61308SOL    HW190529   6.052   5.458   8.182  0.1507  0.4244  0.1998
61308SOL    HW290530   6.199   5.435   8.150 -0.0646 -1.5521  0.4714
61309SOL     OW90531  12.432   7.502   7.610  0.9845 -0.2657 -0.5308
61309SOL    HW190532  12.398   7.555   7.538  0.8255 -0.7056 -0.7823
61309SOL    HW290533  12.356   7.451   7.640  1.0510 -0.0944 -0.0572
61310SOL     OW90534   1.067   5.321   4.507  0.1008  0.0202 -0.9317
61310SOL    HW190535   1.013   5.373   4.446 -0.8810 -0.5585 -0.5798
61310SOL    HW290536   1.152   5.365   4.506 -0.5092  1.2675 -1.1236
61311SOL     OW90537   9.228   8.612  11.761 -0.0679  0.1097 -0.3896
61311SOL    HW190538   9.253   8.702  11.782  0.7837 -0.1564 -0.2053
61311SOL    HW290539   9.197   8.575  11.843 -1.5467  0.5725 -0.7110
61312SOL     OW90540   7.870   2.136   0.982 -0.1904 -0.2654  0.6426
61312SOL    HW190541   7.823   2.058   1.010 -0.6578  0.1938  1.1525
61312SOL    HW290542   7.813   2.209   1.006  0.0198  0.2191 -0.2582
61313SOL     OW90543   4.086   8.958   5.827 -0.0457 -0.1127 -0.4908
61313SOL    HW190544   4.127   8.910   5.755  0.7323 -0.0747 -0.0879
61313SOL    HW290545   4.005   8.993   5.789  0.4834  0.1451 -1.4319
61314SOL     OW90546  11.557   7.387  10.831 -0.4800 -0.0328 -0.0369
61314SOL    HW190547  11.495   7.381  10.759  0.8401  0.4433 -1.2702
61314SOL    HW290548  11.547   7.305  10.879 -2.1409  0.1056 -0.1066
61315SOL     OW90549  10.141  10.805   3.527 -0.1201 -0.1480 -0.2357
61315SOL    HW190550  10.072  10.859   3.565  0.4517 -0.1321  0.7939
61315SOL    HW290551  10.123  10.807   3.433 -2.8557 -1.9580  0.1261
61316SOL     OW90552   6.865   4.940  10.434  0.0029 -0.0383  0.1989
61316SOL    HW190553   6.937   4.879  10.419  1.4205  1.7292 -0.4827
61316SOL    HW290554   6.863   4.952  10.529 -1.3512 -2.3138  0.5152
61317SOL     OW90555   8.443   9.839   6.452  0.3537  0.0527 -0.2196
61317SOL    HW190556   8.459   9.823   6.545 -0.1871 -0.7889 -0.2599
61317SOL    HW290557   8.523   9.809   6.408  0.2693 -0.3586 -0.0928
61318SOL     OW90558  11.505   4.880   0.347  0.4699  0.4061 -0.0563
61318SOL    HW190559  11.433   4.906   0.405  0.1975  2.5460 -1.2935
61318SOL    HW290560  11.553   4.961   0.330  1.6630 -0.5328 -1.3326
61319SOL     OW90561  11.962   7.509   8.859 -0.0147 -0.4762 -0.2577
61319SOL    HW190562  11.894   7.544   8.917 -1.8915 -1.8967 -1.4784
61319SOL    HW290563  12.007   7.587   8.825  0.4523  0.4198  2.2145
61320SOL     OW90564   7.116   8.813   2.519  0.2325 -0.1778 -0.8067
61320SOL    HW190565   7.101   8.883   2.583  0.9712  0.2574 -1.0991
61320SOL    HW290566   7.110   8.857   2.434 -3.9031 -1.2786 -1.2987
61321SOL     OW90567   1.571   5.781   9.085 -0.2143 -0.0722 -0.9700
61321SOL    HW190568   1.580   5.875   9.073 -1.6362  0.1434 -0.5066
61321SOL    HW290569   1.621   5.762   9.164 -2.2833  0.8104  0.6369
61322SOL     OW90570   2.456  12.256  11.668 -0.1535  0.0796 -0.0821
61322SOL    HW190571   2.521  12.188  11.687  0.9443  1.3014  0.8048
61322SOL    HW290572   2.373  12.210  11.665  0.6453 -1.4093 -0.2985
61323SOL     OW90573   3.666  11.104   9.804  0.5711  0.0134  0.1585
61323SOL    HW190574   3.700  11.076   9.889  2.6047  0.7476 -0.3549
61323SOL    HW290575   3.675  11.199   9.804 -1.2205  0.2188 -0.1743
61324SOL     OW90576   8.724   2.214  12.728 -0.0304  0.1730  0.5381
61324SOL    HW190577   8.631   2.199  12.711 -0.0306 -3.4785  2.6523
61324SOL    HW290578   8.766   2.203  12.643 -1.3430 -1.0497  0.0047
61325SOL     OW90579  11.554  11.219   5.305 -0.0787  0.0081 -0.5014
61325SOL    HW190580  11.518  11.304   5.278  0.0210 -0.5074 -2.3752
61325SOL    HW290581  11.616  11.241   5.376 -1.5727  1.2357  0.4900
61326SOL     OW90582   0.335   0.159   3.738 -1.0420  0.4225  0.5442
61326SOL    HW190583   0.292   0.077   3.714 -0.5956  0.4393 -0.3131
61326SOL    HW290584   0.262   0.216   3.765 -1.4606  0.1195  0.0735
61327SOL     OW90585   3.944   5.742  11.292 -0.1143  0.4356 -0.1464
61327SOL    HW190586   3.933   5.830  11.328  2.4331  0.6282  0.3944
61327SOL    HW290587   3.902   5.684  11.355 -0.5114  1.1726  0.2735
61328SOL     OW90588   2.447   2.479   1.868  0.5971  0.3872  0.1538
61328SOL    HW190589   2.519   2.435   1.823 -0.4342  0.4771 -1.6491
61328SOL    HW290590   2.486   2.508   1.951  2.6905  0.5984 -0.8300
61329SOL     OW90591   5.179   8.141   4.678  0.7222 -0.5150  0.1938
61329SOL    HW190592   5.153   8.065   4.730  1.2710 -0.0639  1.1592
61329SOL    HW290593   5.100   8.165   4.629 -0.2369 -0.1553  1.8315
61330SOL     OW90594   4.727   7.182   5.124 -0.1211 -0.2705  0.2018
61330SOL    HW190595   4.796   7.129   5.086 -0.9906 -2.7990  1.9147
61330SOL    HW290596   4.772   7.244   5.181  1.0157  2.0325 -2.9204
61331SOL     OW90597   7.025   0.370   8.652  0.0256 -0.0570  0.0606
61331SOL    HW190598   7.034   0.303   8.720 -1.3129  0.8393  1.1624
61331SOL    HW290599   7.053   0.451   8.694 -0.0836  0.3861 -0.7024
61332SOL     OW90600  10.823   3.689   3.455  0.1315 -0.5867 -0.1622
61332SOL    HW190601  10.834   3.716   3.546 -1.4501  1.8743 -0.6270
61332SOL    HW290602  10.906   3.712   3.414  0.7941 -1.5568  0.5591
61333SOL     OW90603  10.700   2.048   4.106 -0.1377 -0.0756 -0.0149
61333SOL    HW190604  10.709   2.030   4.012 -0.3970  1.6927 -0.4166
61333SOL    HW290605  10.784   2.021   4.144  0.1613 -0.3203 -0.8283
61334SOL     OW90606   7.913   8.105   1.167 -0.0633  0.1870 -0.0224
61334SOL    HW190607   7.839   8.073   1.217  0.1978 -1.4281 -0.6134
61334SOL    HW290608   7.948   8.178   1.219 -1.5948  0.4990  0.6129
61335SOL     OW90609   9.210   6.962   9.688  0.1423 -0.0964  0.8261
61335SOL    HW190610   9.157   6.924   9.758  1.2901 -2.1309  0.6639
61335SOL    HW290611   9.233   7.049   9.719 -1.3044 -0.0797  1.9263
61336SOL     OW90612   0.719   6.100  11.720  0.2953 -0.5039 -0.3391
61336SOL    HW190613   0.722   6.010  11.753 -1.1209 -0.5611 -0.3066
61336SOL    HW290614   0.627   6.125  11.726  0.3826  0.3465 -1.9850
61337SOL     OW90615   5.363   0.077   9.823  0.6720  0.6823 -0.3583
61337SOL    HW190616   5.362   0.028   9.741 -0.0372  1.5296 -0.8680
61337SOL    HW290617   5.334   0.165   9.799  0.9727  1.0905  0.7106
61338SOL     OW90618   7.458   0.165   6.541  0.3949 -0.1725  0.2580
61338SOL    HW190619   7.381   0.126   6.499 -0.4919  0.3278  1.3580
61338SOL    HW290620   7.507   0.091   6.576  0.9480 -0.5681 -1.2655
61339SOL     OW90621   3.757   5.709   3.052  0.5406 -0.1978  0.0087
61339SOL    HW190622   3.826   5.775   3.053  2.0239 -1.6530 -0.4576
61339SOL    HW290623   3.794   5.635   3.102 -1.4419 -0.3515  1.3774
61340SOL     OW90624   7.609  10.912  12.206 -0.3662 -0.7342  0.7389
61340SOL    HW190625   7.599  11.005  12.224  1.0573 -0.6184  1.0508
61340SOL    HW290626   7.695  10.890  12.240  1.1756 -1.2347 -2.9991
61341SOL     OW90627   8.235   7.174  12.756  0.4840 -0.4501 -0.0794
61341SOL    HW190628   8.236   7.098  12.698 -1.8871 -3.2603  3.2007
61341SOL    HW290629   8.309   7.160  12.815  1.4108  1.1132 -0.7844
61342SOL     OW90630   3.265  10.050   0.412 -1.0400  0.0914  0.1202
61342SOL    HW190631   3.264   9.983   0.343  1.5155 -0.2413  0.3246
61342SOL    HW290632   3.312  10.009   0.485  0.2841  1.9365  0.3892
61343SOL     OW90633   4.950   4.290   9.987  0.0038  0.2121 -0.1611
61343SOL    HW190634   4.871   4.286   9.933  0.1224  1.5417 -0.4578
61343SOL    HW290635   4.947   4.210  10.039 -2.3321  0.9544  0.9526
61344SOL     OW90636   1.626   0.411   9.449 -0.0183 -0.1960  0.4483
61344SOL    HW190637   1.689   0.397   9.520 -1.8741  1.8975  2.6964
61344SOL    HW290638   1.663   0.483   9.398  1.4152 -1.8324 -0.9846
61345SOL     OW90639   0.949   1.916  10.046  0.2591  0.1390 -0.2476
61345SOL    HW190640   1.026   1.944  10.095  1.5374 -0.6677 -1.7040
61345SOL    HW290641   0.953   1.820  10.048 -0.7487  0.0860 -0.2940
61346SOL     OW90642   1.956   7.235   5.698 -0.8682  0.5473  0.2516
61346SOL    HW190643   1.896   7.162   5.681 -0.6312  0.4327 -0.1137
61346SOL    HW290644   2.034   7.194   5.735 -1.3326  0.7854  1.5521
61347SOL     OW90645   7.213   4.815   1.968  0.0539 -0.2683  0.0185
61347SOL    HW190646   7.282   4.858   2.018  1.0293 -1.2974 -0.4111
61347SOL    HW290647   7.181   4.746   2.026 -1.2591  0.7465  0.5647
61348SOL     OW90648   1.191   9.079   9.826 -0.2447  0.7528 -0.0041
61348SOL    HW190649   1.165   9.128   9.904 -0.1392 -0.3831  0.7589
61348SOL    HW290650   1.271   9.124   9.796 -0.8697  1.8425 -0.0962
61349SOL     OW90651   3.634   7.961   4.469  0.0907  0.0708 -0.2132
61349SOL    HW190652   3.714   7.960   4.417  0.0043 -0.5675 -0.3334
61349SOL    HW290653   3.573   8.014   4.418 -0.1459 -0.9299 -0.9876
61350SOL     OW90654   6.161   8.504   7.533 -0.0169  0.0904 -0.2414
61350SOL    HW190655   6.146   8.598   7.537 -2.0401 -0.2285  1.1769
61350SOL    HW290656   6.238   8.489   7.587 -0.6294  0.7746  0.8492
61351SOL     OW90657   3.379   4.446   3.762  0.3099 -0.3558 -0.8904
61351SOL    HW190658   3.399   4.458   3.855  1.0937  0.4975 -1.1457
61351SOL    HW290659   3.287   4.422   3.760  0.7991 -2.5470  0.2402
61352SOL     OW90660   3.707  10.944   7.732  0.1477  0.1918 -0.0721
61352SOL    HW190661   3.705  10.873   7.795  0.1686 -0.8109 -1.1558
61352SOL    HW290662   3.617  10.975   7.727  0.4437  1.4148  1.6572
61353SOL     OW90663   2.036  10.874   5.278 -0.0231  0.0037 -0.0484
61353SOL    HW190664   1.969  10.917   5.225 -0.0007  0.9155  0.6530
61353SOL    HW290665   2.011  10.781   5.277 -0.8921  0.2342 -0.3643
61354SOL     OW90666   4.071   5.223   1.935  0.1276  0.3651 -0.5549
61354SOL    HW190667   4.032   5.271   1.862  0.6824  1.7485  0.0116
61354SOL    HW290668   4.006   5.228   2.005 -0.5452 -1.2475 -1.0307
61355SOL     OW90669   3.685  10.643   1.993  0.1515  0.4621  0.1364
61355SOL    HW190670   3.652  10.595   2.069  0.0911  0.9838  0.4445
61355SOL    HW290671   3.739  10.579   1.947  0.6741  0.3015  0.9432
61356SOL     OW90672   9.587  10.510  12.406 -0.0056  0.2184  0.6339
61356SOL    HW190673   9.598  10.555  12.322  1.3112 -0.1293  0.6017
61356SOL    HW290674   9.492  10.511  12.422 -0.3508 -0.3199 -1.1875
61357SOL     OW90675  11.467   0.878   2.554  0.8725 -0.1668  0.0235
61357SOL    HW190676  11.386   0.892   2.604  0.5200 -0.2392 -0.5267
61357SOL    HW290677  11.493   0.789   2.575 -0.5085 -1.0227 -1.6683
61358SOL     OW90678  11.046   7.551   7.782 -0.6966  0.0858 -0.4099
61358SOL    HW190679  11.071   7.633   7.739  0.3158  1.2362  2.1712
61358SOL    HW290680  11.128   7.507   7.800 -1.1495 -0.7934 -0.4537
61359SOL     OW90681   4.946  10.859   6.193  0.1844  0.0566 -0.1220
61359SOL    HW190682   4.930  10.767   6.173 -1.2014 -0.2185  1.8423
61359SOL    HW290683   4.869  10.905   6.158  0.3699  0.3268 -0.1832
61360SOL     OW90684   9.929   0.467   7.319 -0.2844 -0.8122 -0.2638
61360SOL    HW190685   9.970   0.552   7.299  0.8251 -0.9277  1.3339
61360SOL    HW290686   9.880   0.445   7.240 -1.2457  1.6886 -0.4616
61361SOL     OW90687   2.027   5.056   1.257 -0.6045 -0.0498  0.2978
61361SOL    HW190688   1.933   5.074   1.268 -0.7796 -1.4103  1.3974
61361SOL    HW290689   2.047   4.993   1.326  0.6479 -1.4066 -1.2324
61362SOL     OW90690   6.653   4.132   0.283 -0.8600 -0.1001 -0.3607
61362SOL    HW190691   6.656   4.189   0.206  0.1242  3.1821  1.9311
61362SOL    HW290692   6.564   4.140   0.316 -0.6920  0.1919  0.0224
61363SOL     OW90693   9.673   6.807   1.792 -0.1004 -0.0061 -0.3047
61363SOL    HW190694   9.749   6.767   1.835  0.0344 -0.2167 -0.7354
61363SOL    HW290695   9.636   6.737   1.738 -1.0446 -0.1241  0.4709
61364SOL     OW90696   3.782   4.355   9.270 -0.3372  0.6011  0.1003
61364SOL    HW190697   3.732   4.317   9.198 -0.1959  0.8989 -0.1573
61364SOL    HW290698   3.720   4.414   9.314 -0.3182  0.6983 -0.0021
61365SOL     OW90699   7.150  12.508   1.102  0.6976 -0.0288  0.3903
61365SOL    HW190700   7.066  12.463   1.110  0.2166  0.6480 -0.6146
61365SOL    HW290701   7.207  12.464   1.165 -0.4688 -0.3545  1.2605
61366SOL     OW90702  12.123   2.174   7.042  0.0213  0.5457 -0.0132
61366SOL    HW190703  12.207   2.171   6.997  0.5708 -3.7484  0.8494
61366SOL    HW290704  12.058   2.161   6.972  0.5459 -1.4259 -0.1959
61367SOL     OW90705   8.194   2.176  10.031 -0.0841 -0.4925  0.5363
61367SOL    HW190706   8.157   2.090  10.051  1.3117 -1.4216 -0.7491
61367SOL    HW290707   8.275   2.158   9.983  2.0025  1.4428  3.0133
61368SOL     OW90708   9.366   4.207   7.381  0.1580  0.0808  0.2571
61368SOL    HW190709   9.330   4.204   7.469  0.9381 -1.9133  0.5544
61368SOL    HW290710   9.438   4.270   7.386  0.0114  0.1978  0.9713
61369SOL     OW90711   9.150   4.514  11.740 -0.1514 -0.5468 -0.0620
61369SOL    HW190712   9.119   4.506  11.830 -1.5678 -0.3201 -0.5044
61369SOL    HW290713   9.189   4.601  11.734  0.1680 -0.6566  0.3785
61370SOL     OW90714  10.076   3.167   4.268  0.0429  0.2479 -0.4015
61370SOL    HW190715  10.137   3.209   4.328 -0.1062 -1.5199  1.0623
61370SOL    HW290716  10.131   3.115   4.209  0.0462  0.0984 -0.2652
61371SOL     OW90717  11.381   1.830   4.436  0.3120 -0.1188 -0.8036
61371SOL    HW190718  11.368   1.924   4.420  0.6059  0.4446  1.7235
61371SOL    HW290719  11.465   1.826   4.482 -0.1245 -1.5141 -0.0780
61372SOL     OW90720   3.537   5.267  11.352  0.1136  0.1851  0.5403
61372SOL    HW190721   3.507   5.257  11.261 -0.4707  0.1868  0.7280
61372SOL    HW290722   3.561   5.359  11.360 -0.5499  0.3618  0.5920
61373SOL     OW90723   0.059   4.899  11.794 -0.7953  0.1158  0.4389
61373SOL    HW190724  -0.002   4.926  11.862  1.4477 -0.4594  2.8604
61373SOL    HW290725   0.056   4.803  11.796 -1.3796  0.0901 -0.9685
61374SOL     OW90726   8.802   6.858   4.223  0.5327  0.2089  0.5945
61374SOL    HW190727   8.753   6.936   4.247  2.5595  2.1115 -0.9726
61374SOL    HW290728   8.824   6.816   4.307 -5.3360 -2.1105  1.4519
61375SOL     OW90729   8.631   0.183   6.430 -0.1158  0.2365 -0.1538
61375SOL    HW190730   8.586   0.182   6.514 -0.6103  1.7634 -0.3560
61375SOL    HW290731   8.576   0.240   6.375  0.6873  0.0134 -1.2163
61376SOL     OW90732   7.453  12.628   6.858  0.4010  0.0474 -0.8766
61376SOL    HW190733   7.450  12.680   6.938  0.9326 -0.7952 -0.2867
61376SOL    HW290734   7.363  12.628   6.826 -0.0640 -0.5625  0.3621
61377SOL     OW90735  10.906   1.201   7.453 -0.6498 -0.2698  0.8703
61377SOL    HW190736  10.994   1.164   7.459 -0.2024  0.6969  0.4369
61377SOL    HW290737  10.898   1.255   7.532 -0.4501  0.4802  0.3828
61378SOL     OW90738   6.525  12.401   3.098  0.7787 -0.4460 -0.1633
61378SOL    HW190739   6.462  12.347   3.050  1.8855 -1.8746 -0.0718
61378SOL    HW290740   6.545  12.474   3.039 -1.1772  0.2298 -0.0569
61379SOL     OW90741   3.144   3.988  10.872  0.7143 -0.5058 -0.0605
61379SOL    HW190742   3.211   3.924  10.848  1.5162  0.8101 -1.4920
61379SOL    HW290743   3.085   3.992  10.797 -0.5158 -1.0234  0.8428
61380SOL     OW90744   2.630   9.274  11.146 -0.2619 -0.5782  0.1297
61380SOL    HW190745   2.626   9.180  11.165 -3.1048 -0.2187  1.8498
61380SOL    HW290746   2.688   9.310  11.213  0.1889 -0.9990 -0.0335
61381SOL     OW90747   4.479   9.818   4.051  0.2992  0.1399 -0.5207
61381SOL    HW190748   4.421   9.767   3.994  0.2999  1.4230 -1.7284
61381SOL    HW290749   4.523   9.752   4.106 -0.7188 -1.0242 -1.0518
61382SOL     OW90750   2.522   2.413   4.576  0.1271 -0.3405 -0.2892
61382SOL    HW190751   2.514   2.497   4.621 -1.8303  0.3761 -1.8121
61382SOL    HW290752   2.487   2.348   4.637  0.0290  0.2112  0.2430
61383SOL     OW90753  10.478  12.241   2.188 -0.1490 -0.4238  0.2227
61383SOL    HW190754  10.563  12.268   2.156 -0.1166 -1.0905 -0.2633
61383SOL    HW290755  10.458  12.160   2.141 -1.8047  0.5897 -0.9415
61384SOL     OW90756   0.135   9.024   5.014  0.6993 -0.0331  0.1483
61384SOL    HW190757   0.077   8.955   4.982  1.3996  0.2519 -1.9222
61384SOL    HW290758   0.185   9.051   4.936  0.1299  3.1252  0.7351
61385SOL     OW90759   8.868   7.667   9.385  0.0615  0.0058  0.2365
61385SOL    HW190760   8.798   7.635   9.443  0.9158 -2.2606  0.1410
61385SOL    HW290761   8.847   7.628   9.300  0.5824  0.6003 -0.1678
61386SOL     OW90762  11.451   0.849  11.856  0.1088 -0.5165 -0.0885
61386SOL    HW190763  11.490   0.789  11.792  1.7647  0.4739 -0.0646
61386SOL    HW290764  11.360   0.821  11.863  0.5364 -2.2393 -0.9816
61387SOL     OW90765   9.811   7.011   3.822 -0.4277 -0.3827 -0.3255
61387SOL    HW190766   9.747   7.022   3.893 -0.7490 -1.6206 -0.4006
61387SOL    HW290767   9.796   7.086   3.764 -1.1785 -0.1692  0.1298
61388SOL     OW90768   4.913   9.025   2.173  0.0641 -0.4793  0.2447
61388SOL    HW190769   4.960   9.104   2.150  0.1998 -0.5085  0.4199
61388SOL    HW290770   4.934   9.010   2.265 -0.3737 -0.4308  0.3535
61389SOL     OW90771   6.965   4.394   6.271  0.5249 -0.2852 -0.3981
61389SOL    HW190772   6.958   4.354   6.358 -0.5789  1.0543  0.1674
61389SOL    HW290773   6.912   4.339   6.214  0.0006 -0.3014  0.1026
61390SOL     OW90774   4.218   8.932   2.393 -0.4101  0.2806  0.4644
61390SOL    HW190775   4.235   9.020   2.360 -1.7556  0.5567  0.4616
61390SOL    HW290776   4.132   8.938   2.433 -0.0893 -0.7945  1.3658
61391SOL     OW90777   8.015   9.039   7.194  0.0317 -0.4701  0.5091
61391SOL    HW190778   8.014   9.053   7.100  0.2046  1.2920  0.7272
61391SOL    HW290779   7.941   8.980   7.210 -0.0345 -0.7416 -0.7202
61392SOL     OW90780  11.503  12.137   9.414  0.1709  0.1508  0.9069
61392SOL    HW190781  11.541  12.108   9.497  1.7089  2.9902  1.3173
61392SOL    HW290782  11.412  12.160   9.437 -0.2419 -1.5768  1.1423
61393SOL     OW90783   5.014  11.374  12.406  0.0488 -0.3229  0.5882
61393SOL    HW190784   5.090  11.338  12.360 -0.0944 -0.6156  0.5809
61393SOL    HW290785   4.939  11.331  12.365 -0.3126  1.7212 -1.0731
61394SOL     OW90786  11.719   1.082   1.352  0.3919 -0.2047  0.1932
61394SOL    HW190787  11.715   1.066   1.447  0.1981  1.1464  0.4279
61394SOL    HW290788  11.628   1.083   1.324  0.4782 -1.8537 -0.2591
61395SOL     OW90789   5.214   6.245   4.058 -0.1582 -0.1142  0.1952
61395SOL    HW190790   5.125   6.268   4.031  0.3581  1.1559 -0.5045
61395SOL    HW290791   5.243   6.180   3.995 -0.4339 -0.2134  0.1693
61396SOL     OW90792  11.894   6.829   1.236  0.2209 -0.8949 -0.3067
61396SOL    HW190793  11.929   6.915   1.259 -2.4313  0.4871 -1.0575
61396SOL    HW290794  11.849   6.800   1.315  0.9670 -1.5620 -0.1107
61397SOL     OW90795   3.132   9.164   1.902 -0.2447  0.0561 -0.6526
61397SOL    HW190796   3.074   9.097   1.938 -0.1418  0.7246  0.7943
61397SOL    HW290797   3.095   9.182   1.815 -1.6075 -0.2647 -0.1735
61398SOL     OW90798   0.744   5.017   5.005 -0.0649  0.1201 -0.3572
61398SOL    HW190799   0.797   5.093   4.984 -1.9365  1.3335 -0.8907
61398SOL    HW290800   0.796   4.968   5.070  1.1252  1.8874  0.0749
61399SOL     OW90801   5.769  12.458   0.777 -0.3639 -0.0815  0.1042
61399SOL    HW190802   5.848  12.450   0.724 -0.3576 -0.2124  0.1326
61399SOL    HW290803   5.753  12.552   0.782  0.8870  0.0983  1.7203
61400SOL     OW90804   2.491   7.853  12.075  0.2412  0.1271  0.0353
61400SOL    HW190805   2.415   7.849  12.017 -0.5649  1.4726  0.9212
61400SOL    HW290806   2.553   7.910  12.029  0.2755 -0.1185 -0.2235
61401SOL     OW90807   1.569   6.280   0.319 -0.6029  0.0511 -0.0973
61401SOL    HW190808   1.600   6.346   0.382  0.9879 -1.5088  0.8450
61401SOL    HW290809   1.479   6.261   0.345 -0.2078 -0.0335  1.2662
61402SOL     OW90810   7.869   3.335   6.559  0.5222 -0.3195  0.6354
61402SOL    HW190811   7.902   3.400   6.622  1.2216 -1.6738  1.7143
61402SOL    HW290812   7.878   3.251   6.604 -1.4173 -1.0907 -0.2814
61403SOL     OW90813  10.551   1.077   7.594  0.0555  0.0375 -0.2638
61403SOL    HW190814  10.616   1.007   7.595  0.9440  0.7592  2.7637
61403SOL    HW290815  10.602   1.157   7.586 -0.7352  0.4782 -1.0345
61404SOL     OW90816   1.175   3.369   3.920 -0.0775 -0.0433 -0.0863
61404SOL    HW190817   1.126   3.306   3.973 -0.9349  0.8892  0.2649
61404SOL    HW290818   1.121   3.381   3.842 -0.6142  1.2558  0.4624
61405SOL     OW90819   2.374   6.900   4.142 -0.0075  0.3688 -0.4070
61405SOL    HW190820   2.352   6.959   4.214  2.9284  1.3080 -0.1531
61405SOL    HW290821   2.444   6.945   4.095  2.6042 -2.9844 -0.0725
61406SOL     OW90822   1.508   5.829   7.420 -0.7447 -0.1453 -0.1157
61406SOL    HW190823   1.602   5.847   7.419 -0.8131  0.4247  1.2909
61406SOL    HW290824   1.491   5.790   7.506 -1.9681  0.8214  0.1130
61407SOL     OW90825   1.389   1.094   9.897 -0.6047  0.1121  0.1473
61407SOL    HW190826   1.355   1.155   9.962  0.6475  0.0583  0.8853
61407SOL    HW290827   1.462   1.141   9.855  1.0571 -1.1778  1.4397
61408SOL     OW90828   0.412   7.533   8.556  0.6165 -0.1786  0.2373
61408SOL    HW190829   0.500   7.530   8.518  0.1772 -0.1106 -0.8163
61408SOL    HW290830   0.382   7.442   8.555  0.3492 -0.0886 -0.2031
61409SOL     OW90831   6.360   7.573   3.602  0.2736 -0.0288  0.2948
61409SOL    HW190832   6.312   7.493   3.580  0.0731  0.1035  0.2498
61409SOL    HW290833   6.398   7.555   3.688 -0.8458  0.3076  0.8833
61410SOL     OW90834   7.138   7.011   9.798 -0.2494  0.0230  0.2424
61410SOL    HW190835   7.048   6.979   9.797 -0.5251  0.7888 -0.3814
61410SOL    HW290836   7.151   7.043   9.888 -1.1076  1.2623 -0.0367
61411SOL     OW90837   0.608   9.572   2.569  0.2814  0.3250 -0.8543
61411SOL    HW190838   0.698   9.577   2.536  0.4525 -0.2833 -0.5027
61411SOL    HW290839   0.578   9.663   2.571  0.3663  0.4138 -2.3848
61412SOL     OW90840   5.336  11.157   5.264 -0.3592  0.2354  0.4746
61412SOL    HW190841   5.352  11.154   5.358  0.2831  0.7125  0.3848
61412SOL    HW290842   5.341  11.066   5.236 -2.6454 -0.1941  1.2276
61413SOL     OW90843   1.134   6.783   0.364 -0.1722 -0.1335  0.5085
61413SOL    HW190844   1.077   6.826   0.428 -0.0162 -0.2237  0.7102
61413SOL    HW290845   1.169   6.855   0.311 -1.0196 -0.1417 -0.0699
61414SOL     OW90846   5.279   4.114   8.510  0.0504  0.1540 -0.4793
61414SOL    HW190847   5.368   4.147   8.521  0.5036 -1.0513 -0.4184
61414SOL    HW290848   5.290   4.022   8.488 -1.1983 -0.2309  0.3933
61415SOL     OW90849  11.574   0.564   8.822 -0.0694 -0.3005 -0.0763
61415SOL    HW190850  11.597   0.614   8.900  0.3087 -2.0058  0.9644
61415SOL    HW290851  11.509   0.500   8.853 -1.8190  0.5822 -1.7138
61416SOL     OW90852   0.709   2.480  11.779 -0.0134  0.2284 -0.1198
61416SOL    HW190853   0.766   2.546  11.740  0.0951  0.0457 -0.2767
61416SOL    HW290854   0.642   2.529  11.825 -0.2522  0.4464 -0.6986
61417SOL     OW90855  11.850   6.849   8.126  0.1848 -0.5234  0.0004
61417SOL    HW190856  11.865   6.933   8.170  2.5937 -1.4280  1.0478
61417SOL    HW290857  11.754   6.841   8.123 -0.1356  2.4040 -0.5132
61418SOL     OW90858   1.708  10.914   3.177  0.5995 -0.4411 -0.2424
61418SOL    HW190859   1.631  10.860   3.195  0.1838 -0.0831 -0.9236
61418SOL    HW290860   1.782  10.853   3.180  0.3566 -0.7024  0.9030
61419SOL     OW90861   6.344   6.048   8.479  0.0379 -0.2574 -0.3201
61419SOL    HW190862   6.410   6.100   8.432 -0.5822 -0.0031 -0.9253
61419SOL    HW290863   6.291   6.008   8.410 -0.3940 -0.5231  0.1581
61420SOL     OW90864   0.318   5.319   4.120 -0.1786  0.4913  0.1689
61420SOL    HW190865   0.235   5.273   4.106 -1.0071  1.7665  0.6333
61420SOL    HW290866   0.386   5.254   4.102 -1.2785 -0.4998 -0.5127
61421SOL     OW90867  10.446   2.467   8.170 -0.0145 -0.3191 -0.2553
61421SOL    HW190868  10.520   2.475   8.230  2.0710  0.1599 -2.7121
61421SOL    HW290869  10.457   2.381   8.129 -1.4975 -0.7162  0.1161
61422SOL     OW90870   3.217  11.050   2.058  0.3819 -0.0740 -1.0721
61422SOL    HW190871   3.227  10.996   1.980 -0.2185 -2.0944  0.1656
61422SOL    HW290872   3.289  11.023   2.116 -1.2839 -1.4212  0.5287
61423SOL     OW90873   4.518   4.839   7.857 -0.3816  0.8506  0.5690
61423SOL    HW190874   4.565   4.775   7.910 -0.1778  0.7582  0.2766
61423SOL    HW290875   4.586   4.892   7.817 -0.5190  0.6039  0.0056
61424SOL     OW90876  10.830   4.995  12.122 -0.9158 -0.0224 -0.1239
61424SOL    HW190877  10.836   4.902  12.100  2.1265 -0.1486  0.8085
61424SOL    HW290878  10.845   4.999  12.216 -1.5590  1.4040 -0.0479
61425SOL     OW90879   4.567   8.425  11.905 -0.1531  0.2548 -0.0533
61425SOL    HW190880   4.497   8.464  11.852  1.0113  2.0827 -0.3517
61425SOL    HW290881   4.596   8.496  11.962  0.9317 -0.6921  0.6171
61426SOL     OW90882  10.916   4.925   3.868 -0.4040  0.6018 -0.1655
61426SOL    HW190883  10.953   4.909   3.781  1.1376  0.8811  0.4092
61426SOL    HW290884  10.980   4.982   3.911 -1.4716  1.0159  0.9250
61427SOL     OW90885   2.258   9.083   8.827  0.2001 -0.3476  0.2541
61427SOL    HW190886   2.268   8.998   8.785  0.3597  0.1891 -0.8440
61427SOL    HW290887   2.314   9.079   8.904  0.6297 -1.0423 -0.0882
61428SOL     OW90888   2.381  10.603   4.221  0.1924  0.3730 -0.3490
61428SOL    HW190889   2.398  10.599   4.315 -2.0084 -3.4324  0.0882
61428SOL    HW290890   2.456  10.559   4.182  0.3277  0.5176 -0.2582
61429SOL     OW90891  11.567   9.184   0.846 -0.1947  0.0980  0.1649
61429SOL    HW190892  11.603   9.217   0.928 -1.1386  1.5604  0.0269
61429SOL    HW290893  11.615   9.231   0.778 -2.8584  2.8190 -0.0150
61430SOL     OW90894   0.061   4.872   5.986  0.4129  0.6075 -0.1878
61430SOL    HW190895   0.110   4.789   5.986 -2.0845 -0.9606  0.3439
61430SOL    HW290896   0.127   4.938   5.966  2.4233 -1.5567 -1.2582
61431SOL     OW90897   5.873   6.296   5.263  0.9874 -0.4031 -0.0504
61431SOL    HW190898   5.953   6.246   5.251  1.2429 -0.1327  0.5023
61431SOL    HW290899   5.803   6.231   5.261  1.0840 -0.5068 -1.9041
61432SOL     OW90900  12.169   8.940  12.364  0.3318 -0.3915 -0.0558
61432SOL    HW190901  12.170   9.014  12.425  1.1600 -0.4433  0.0076
61432SOL    HW290902  12.084   8.899  12.377  0.7152 -0.7676  1.5252
61433SOL     OW90903   1.946   4.035   1.773  0.7682  0.2469 -0.1104
61433SOL    HW190904   1.857   4.045   1.806 -0.5483 -2.5862 -2.3087
61433SOL    HW290905   1.970   3.945   1.796  1.8629 -0.0231 -2.0470
61434SOL     OW90906   4.493   6.413   0.890 -0.4654 -0.2590 -0.1743
61434SOL    HW190907   4.531   6.373   0.812  2.2366 -0.6969  1.2429
61434SOL    HW290908   4.558   6.479   0.917 -1.0011 -0.5761  2.0448
61435SOL     OW90909   3.818   9.237   4.760  0.0834 -0.5332  0.8951
61435SOL    HW190910   3.785   9.210   4.675 -1.1012 -1.4959  1.6310
61435SOL    HW290911   3.802   9.331   4.763 -0.4867 -0.6027  0.3156
61436SOL     OW90912   9.644   6.382   7.685  0.6580  0.5475 -0.4117
61436SOL    HW190913   9.652   6.295   7.725 -0.3227 -0.1555 -1.6924
61436SOL    HW290914   9.734   6.406   7.663  0.9127 -0.2764 -0.3111
61437SOL     OW90915   7.814   9.598   8.190 -0.5802 -0.1766  0.0648
61437SOL    HW190916   7.875   9.574   8.120 -1.3421 -0.2603 -0.5854
61437SOL    HW290917   7.839   9.686   8.216  0.4738 -0.5964  0.5340
61438SOL     OW90918   2.731   3.595   7.212  0.2671 -0.0002 -0.3245
61438SOL    HW190919   2.644   3.556   7.220  0.2489  0.0856 -0.1064
61438SOL    HW290920   2.727   3.675   7.264  0.1040  0.6475 -1.2971
61439SOL     OW90921   7.524   0.503   2.735  0.2910 -0.3644  0.0964
61439SOL    HW190922   7.609   0.488   2.695  0.5191  0.0220  0.4233
61439SOL    HW290923   7.474   0.423   2.717  0.1012  0.1050 -1.6271
61440SOL     OW90924  10.819   2.825  10.203  0.0206 -0.7632  0.4439
61440SOL    HW190925  10.787   2.758  10.142 -0.3891  0.9726 -1.3470
61440SOL    HW290926  10.778   2.803  10.286 -2.0639 -1.3673 -0.6640
61441SOL     OW90927  12.525  10.585   9.757  0.3551 -0.8147 -0.1687
61441SOL    HW190928  12.541  10.679   9.752  4.0088 -1.3862 -2.7307
61441SOL    HW290929  12.444  10.572   9.708 -1.3394  1.0319  1.8710
61442SOL     OW90930   9.467   9.263   2.186  0.5696  0.3662  0.0642
61442SOL    HW190931   9.518   9.337   2.154 -0.2968  0.8127 -0.3108
61442SOL    HW290932   9.378   9.297   2.196  0.3179 -0.4126  0.6421
61443SOL     OW90933   1.719   3.764   7.759  0.6937  0.1147 -0.4407
61443SOL    HW190934   1.774   3.818   7.815  1.0738 -0.3716 -0.3389
61443SOL    HW290935   1.774   3.745   7.682 -0.3714  2.1390 -1.7935
61444SOL     OW90936   4.045   2.687   3.517  0.1564  0.6142  0.4983
61444SOL    HW190937   4.058   2.745   3.592  0.4072  1.3527 -0.1091
61444SOL    HW290938   3.959   2.647   3.533 -0.1414  1.3569  0.7891
61445SOL     OW90939   3.244   9.793  12.776  0.2984 -0.2298 -0.4475
61445SOL    HW190940   3.323   9.742  12.791 -0.4578 -1.2340  0.2645
61445SOL    HW290941   3.209   9.810  12.863 -0.7312 -0.5647 -0.7782
61446SOL     OW90942   0.939   6.693  11.377  0.0022 -0.6496  0.0718
61446SOL    HW190943   0.929   6.785  11.353 -0.8653 -0.5601  0.7262
61446SOL    HW290944   0.949   6.647  11.293 -0.1479 -0.0257 -0.2932
61447SOL     OW90945   0.816   7.355   1.170  0.2079  0.2052  0.0595
61447SOL    HW190946   0.909   7.333   1.165  0.3323  0.7240  0.0224
61447SOL    HW290947   0.806   7.431   1.113  0.0591  1.1277  1.2960
61448SOL     OW90948   4.912   6.211   0.278  0.1365  0.4625  0.5495
61448SOL    HW190949   4.918   6.170   0.365 -0.8974  1.7322  1.2734
61448SOL    HW290950   5.001   6.238   0.258  0.9116 -2.3230 -0.0972
61449SOL     OW90951   2.126   0.972   5.034  0.5271 -0.2685 -0.1938
61449SOL    HW190952   2.094   1.015   5.114 -0.3249  1.6517 -1.4828
61449SOL    HW290953   2.106   0.880   5.048 -2.8744  0.4134  0.4223
61450SOL     OW90954   0.920   7.957  11.803 -0.3246  0.3286 -0.5209
61450SOL    HW190955   0.912   7.986  11.894  1.3098  0.3036 -0.3338
61450SOL    HW290956   0.865   7.879  11.798 -2.2728  1.6197 -0.1913
61451SOL     OW90957   5.041  12.698   8.826  0.1161  0.0802 -0.3271
61451SOL    HW190958   5.067  12.621   8.876  2.6223  1.5200  0.8040
61451SOL    HW290959   4.982  12.746   8.885 -1.6109 -0.9729 -1.1111
61452SOL     OW90960   2.389   5.634   1.403  0.2103  0.3094 -0.4130
61452SOL    HW190961   2.309   5.686   1.413  0.3333  0.8953 -2.1819
61452SOL    HW290962   2.412   5.608   1.492  0.5738  3.9188  0.6885
61453SOL     OW90963   2.236   0.920   6.703  0.5482 -0.1880  0.9122
61453SOL    HW190964   2.226   1.006   6.663  1.5486 -0.3760  0.2168
61453SOL    HW290965   2.284   0.869   6.638 -0.1075 -1.2984  1.2877
61454SOL     OW90966   1.328   0.543  11.538 -0.2242  0.4263 -0.7846
61454SOL    HW190967   1.305   0.455  11.568  0.3155  0.9128  1.2767
61454SOL    HW290968   1.358   0.532  11.448  0.0369 -1.5357 -0.4924
61455SOL     OW90969   8.402   5.463   1.940 -0.4078  0.6785 -0.2514
61455SOL    HW190970   8.337   5.395   1.927  0.7983 -0.3017 -1.5150
61455SOL    HW290971   8.472   5.421   1.990  0.6841  0.6972 -1.6737
61456SOL     OW90972  10.108   7.511   7.980  0.5286 -0.4287 -0.7673
61456SOL    HW190973  10.022   7.552   7.973  0.8047  0.0639 -1.3660
61456SOL    HW290974  10.138   7.502   7.890  2.1389  1.6311 -0.5055
61457SOL     OW90975   6.760   6.056   5.512  0.5043  0.8594 -0.1942
61457SOL    HW190976   6.704   5.979   5.519  2.7330 -0.7559  1.4148
61457SOL    HW290977   6.707   6.127   5.548 -1.0250 -0.2562 -0.1380
61458SOL     OW90978  10.121  10.208   0.763 -0.5504  0.0195  0.2786
61458SOL    HW190979  10.215  10.224   0.758 -0.0869 -2.2820  0.5179
61458SOL    HW290980  10.084  10.291   0.794  1.0568  1.7662 -2.1198
61459SOL     OW90981   9.345   6.282   9.813 -0.7730  0.3765  0.3081
61459SOL    HW190982   9.323   6.232   9.892  1.4375 -0.1101  0.6676
61459SOL    HW290983   9.325   6.223   9.740 -2.4524  0.6861  0.4645
61460SOL     OW90984   5.688  11.939   3.428  0.0192 -0.0811 -0.2937
61460SOL    HW190985   5.595  11.927   3.446  0.1688  0.0356  0.6392
61460SOL    HW290986   5.721  11.987   3.505  0.5621  1.1705 -1.2669
61461SOL     OW90987   7.975   7.687   4.170 -0.4634 -0.2298  0.0416
61461SOL    HW190988   8.037   7.741   4.120 -1.1130  0.6038  0.1159
61461SOL    HW290989   7.889   7.711   4.136 -0.7477 -1.7251 -0.4009
61462SOL     OW90990   9.471   5.391  11.532 -0.2123  0.4396  0.1490
61462SOL    HW190991   9.521   5.456  11.582  2.7055 -1.3667 -0.1936
61462SOL    HW290992   9.457   5.320  11.594 -1.1627  0.3132 -0.1953
61463SOL     OW90993   7.029   6.404   2.179  0.3179 -0.2529 -0.0447
61463SOL    HW190994   7.002   6.314   2.160  1.0395 -0.4130 -0.3529
61463SOL    HW290995   6.978   6.458   2.119 -0.1739 -0.4519  0.1959
61464SOL     OW90996   2.945   4.467   8.833  0.5188 -0.1311 -0.8276
61464SOL    HW190997   3.001   4.523   8.886  0.6582  0.1903 -1.3044
61464SOL    HW290998   2.963   4.378   8.865  2.1522 -0.1676 -1.6877
61465SOL     OW90999   4.585   1.599  10.177  0.3386 -0.2980 -0.0623
61465SOL    HW191000   4.637   1.554  10.110 -0.2035 -1.0159 -0.0147
61465SOL    HW291001   4.570   1.686  10.141 -0.6986 -0.9471 -1.3082
61466SOL     OW91002  11.799   9.045   1.518 -0.1007 -0.6108  0.7235
61466SOL    HW191003  11.824   9.086   1.601 -0.5781  2.7368 -0.6082
61466SOL    HW291004  11.854   8.968   1.511  3.3791  1.5311  2.0269
61467SOL     OW91005   0.754   0.768   2.358  0.7095 -0.5399 -0.0365
61467SOL    HW191006   0.718   0.733   2.439 -1.0322  0.7829 -0.1958
61467SOL    HW291007   0.846   0.741   2.359  0.2628 -2.1802  1.4297
61468SOL     OW91008  12.322   2.603   6.814  0.0026  0.0963  0.2474
61468SOL    HW191009  12.268   2.660   6.869 -2.1408 -1.3715 -0.2345
61468SOL    HW291010  12.341   2.527   6.868 -0.9730 -0.7427 -0.5600
61469SOL     OW91011  12.228   1.054   4.618 -0.0797 -0.5847 -0.1103
61469SOL    HW191012  12.297   1.021   4.675 -1.1814 -0.0744  1.5952
61469SOL    HW291013  12.237   1.003   4.537  0.2752 -2.8181  1.2527
61470SOL     OW91014  12.057   6.773   6.019  0.1751 -0.0975  0.3366
61470SOL    HW191015  12.084   6.710   5.953  0.0089 -0.1904  0.3564
61470SOL    HW291016  12.133   6.783   6.076 -0.5955 -2.2268  1.8720
61471SOL     OW91017   5.916   0.429   1.737  0.4810 -0.2566  0.0593
61471SOL    HW191018   5.888   0.353   1.686  0.2594 -0.0107 -0.1827
61471SOL    HW291019   5.884   0.505   1.688  1.5902  0.0317 -0.2434
61472SOL     OW91020   5.396   6.902   4.271  0.2380 -0.1102  0.0546
61472SOL    HW191021   5.451   6.824   4.260 -0.4895 -0.4117 -2.0017
61472SOL    HW291022   5.431   6.965   4.207 -0.9190  0.1819 -0.3172
61473SOL     OW91023   9.350   7.271   2.139 -0.2916 -0.6459  0.4843
61473SOL    HW191024   9.354   7.295   2.047  2.2177 -1.8057  0.2007
61473SOL    HW291025   9.335   7.176   2.139  3.1215 -1.3200  1.0341
61474SOL     OW91026   6.307  11.868  10.096 -0.2194 -0.3410 -0.2752
61474SOL    HW191027   6.255  11.812  10.153 -1.1713  1.2091  0.4425
61474SOL    HW291028   6.255  11.873  10.015 -1.7698  1.9425  0.7590
61475SOL     OW91029   5.155   9.145   0.240  0.2909  0.2743 -0.4877
61475SOL    HW191030   5.072   9.172   0.280 -0.2428 -0.2809 -1.1809
61475SOL    HW291031   5.145   9.050   0.226  1.3171  0.0722  0.0512
61476SOL     OW91032  12.740  11.909   4.711 -0.1318 -0.7589 -0.3729
61476SOL    HW191033  12.700  11.832   4.672 -1.8319 -1.6108  2.6731
61476SOL    HW291034  12.687  11.927   4.789  0.8071  2.9081 -0.3772
61477SOL     OW91035   8.164  11.265   6.133  0.1873  0.3054 -0.4847
61477SOL    HW191036   8.151  11.360   6.131  0.2839  0.3926  1.2233
61477SOL    HW291037   8.076  11.229   6.145  0.3667  0.3153  0.9634
61478SOL     OW91038   2.291   6.969  12.397 -0.1135 -0.1025 -0.0193
61478SOL    HW191039   2.220   6.940  12.340 -0.2644 -3.2523  1.5762
61478SOL    HW291040   2.369   6.967  12.341 -0.6332 -0.6538 -0.7464
61479SOL     OW91041   0.194   4.675   6.389  0.0396 -0.0438 -0.4962
61479SOL    HW191042   0.126   4.735   6.359  0.1405 -1.3602 -3.8147
61479SOL    HW291043   0.272   4.701   6.341  1.1010 -0.4815  0.9236
61480SOL     OW91044   1.280   2.709  12.260 -0.4156 -0.0479  0.4178
61480SOL    HW191045   1.294   2.752  12.344  0.5990 -0.8830  0.6961
61480SOL    HW291046   1.312   2.620  12.273 -0.6862 -0.3216 -0.7109
61481SOL     OW91047   0.899   9.923   9.537 -0.2075 -0.6530  0.1412
61481SOL    HW191048   0.899   9.998   9.477 -1.0475 -0.7575 -0.0056
61481SOL    HW291049   0.936   9.851   9.485 -1.2405 -0.8289 -0.3976
61482SOL     OW91050   5.718  10.961   4.085  0.3745 -0.0641  0.2556
61482SOL    HW191051   5.639  10.915   4.056  0.8808 -0.9456  0.2301
61482SOL    HW291052   5.788  10.896   4.075  1.0789  0.6587  0.4130
61483SOL     OW91053   7.064   6.015   1.808  0.5087  0.1731  0.3256
61483SOL    HW191054   7.061   5.972   1.722  0.6262  0.7247  0.0460
61483SOL    HW291055   6.973   6.011   1.840  0.3192  0.6518 -0.1570
61484SOL     OW91056  11.210  10.206   1.731  0.6377 -0.3916  0.0859
61484SOL    HW191057  11.197  10.294   1.697  0.3612  0.2929  1.8609
61484SOL    HW291058  11.272  10.166   1.670  1.3841  1.2979 -0.3208
61485SOL     OW91059   0.429   3.318   3.742 -0.2934 -0.1066 -0.0414
61485SOL    HW191060   0.430   3.408   3.711 -1.0365  0.4125  1.3306
61485SOL    HW291061   0.358   3.316   3.807 -0.7773 -1.8628 -0.5655
61486SOL     OW91062   6.863   1.103   7.022 -0.4131 -0.1071 -0.3942
61486SOL    HW191063   6.864   1.036   7.091 -0.9785  0.8869  0.6271
61486SOL    HW291064   6.936   1.080   6.965 -1.0740 -2.0594 -0.5512
61487SOL     OW91065  11.455   5.770   9.601  0.2954 -0.2690 -0.0340
61487SOL    HW191066  11.380   5.717   9.626 -0.3772  0.6059 -0.1284
61487SOL    HW291067  11.430   5.860   9.625  1.0857  0.1054 -0.5610
61488SOL     OW91068  11.630   0.062   5.563  0.4274  0.5932  0.5055
61488SOL    HW191069  11.664   0.139   5.519  0.3035  0.6577  0.5225
61488SOL    HW291070  11.549   0.091   5.604  0.7811  0.6670  1.1850
61489SOL     OW91071  12.247   3.955   4.627  0.3186  0.1950  0.6115
61489SOL    HW191072  12.285   3.868   4.617  2.5236  1.1795 -0.1274
61489SOL    HW291073  12.168   3.941   4.680  0.3000 -2.2958  0.0209
61490SOL     OW91074   5.452   4.750   1.555  0.4429  0.4366  0.2047
61490SOL    HW191075   5.431   4.753   1.649  0.6808 -0.3212  0.2951
61490SOL    HW291076   5.519   4.817   1.543 -0.1094  1.0442  0.4272
61491SOL     OW91077  10.253  12.152  12.650 -0.0056 -0.2141 -0.2823
61491SOL    HW191078  10.293  12.228  12.693  0.1455 -0.7592  0.5450
61491SOL    HW291079  10.188  12.120  12.712 -1.5477  0.4583 -1.4736
61492SOL     OW91080   8.388   1.609   3.344 -0.3700 -0.1983 -0.5838
61492SOL    HW191081   8.422   1.675   3.284 -1.8767  1.3642  0.2137
61492SOL    HW291082   8.456   1.601   3.411 -0.5333  1.1997 -0.2270
61493SOL     OW91083   0.448   2.563   5.015 -0.5271  0.2675 -0.1564
61493SOL    HW191084   0.455   2.648   4.971 -0.9204  0.3484 -0.0640
61493SOL    HW291085   0.524   2.514   4.983 -0.6448  0.4327 -0.6965
61494SOL     OW91086   1.273   8.665  12.626  0.3415 -0.3219  0.3294
61494SOL    HW191087   1.239   8.672  12.715 -0.1900  1.2683  0.0184
61494SOL    HW291088   1.244   8.744  12.582 -0.0924 -1.4398 -1.5246
61495SOL     OW91089   5.334   5.711  12.137 -0.2243  0.0270 -0.3063
61495SOL    HW191090   5.400   5.648  12.166  1.5589  1.4440 -1.0899
61495SOL    HW291091   5.324   5.695  12.043  0.8187  1.3602 -0.6724
61496SOL     OW91092   3.495   0.956  10.629  0.2197 -0.5125 -0.2755
61496SOL    HW191093   3.429   0.892  10.657  0.8645 -1.1086 -0.0839
61496SOL    HW291094   3.579   0.913  10.648  0.6662 -0.2638 -1.6265
61497SOL     OW91095   2.451  10.408   0.832 -0.3795 -0.1552 -0.2948
61497SOL    HW191096   2.424  10.458   0.909 -0.4679  1.1112 -1.1295
61497SOL    HW291097   2.540  10.436   0.814 -0.5682 -0.0038 -1.0083
61498SOL     OW91098   7.135   8.812  11.503 -0.0596 -0.1171  0.4084
61498SOL    HW191099   7.060   8.863  11.535  1.1963  1.6034  0.7155
61498SOL    HW291100   7.161   8.857  11.422 -0.2875 -1.6281 -0.5327
61499SOL     OW91101   5.881   9.995  12.217  0.0333  0.2336 -0.6473
61499SOL    HW191102   5.879   9.952  12.132 -0.0474  1.7468 -1.4401
61499SOL    HW291103   5.940  10.070  12.205  1.7568 -0.7192  1.2302
61500SOL     OW91104   7.430  10.943  10.237  0.1004 -0.1828 -0.3704
61500SOL    HW191105   7.479  10.948  10.318 -0.6114 -2.8996  0.3479
61500SOL    HW291106   7.346  10.985  10.257  0.7602  1.2741 -0.5059
61501SOL     OW91107   1.819   9.812   3.962  0.0339  0.5981 -0.4884
61501SOL    HW191108   1.754   9.880   3.979 -0.4108 -0.0575  0.4962
61501SOL    HW291109   1.858   9.794   4.047  0.0408 -0.4898 -0.7140
61502SOL     OW91110   2.740   8.690   1.624  0.1058  0.3606 -0.2520
61502SOL    HW191111   2.689   8.767   1.597  0.5309  0.6350 -0.2875
61502SOL    HW291112   2.678   8.635   1.671 -1.0178 -0.7205 -2.7978
61503SOL     OW91113   8.561   3.417  12.543 -0.0289  0.0479 -0.1768
61503SOL    HW191114   8.599   3.355  12.605 -1.9645  0.6502  1.7798
61503SOL    HW291115   8.620   3.492  12.546  2.3046 -1.5418 -2.5304
61504SOL     OW91116   5.044   9.473   4.014  0.9278 -0.1836  0.2584
61504SOL    HW191117   5.063   9.457   4.106 -1.0492 -0.1517  0.7104
61504SOL    HW291118   5.050   9.568   4.004  0.6548 -0.1465  0.4610
61505SOL     OW91119   0.122   6.547   9.413  0.5391  0.0664  0.2618
61505SOL    HW191120   0.127   6.469   9.358  0.7447  0.7285 -0.6824
61505SOL    HW291121   0.211   6.583   9.411  0.3536  0.5305  0.3860
61506SOL     OW91122  10.642   7.053   3.172 -0.6876  0.1929  0.2231
61506SOL    HW191123  10.634   7.059   3.267 -0.6325  0.0293  0.2381
61506SOL    HW291124  10.724   7.099   3.153  0.1959 -1.2351  0.4277
61507SOL     OW91125   1.747   1.649  10.320  0.1602 -0.7401  0.2392
61507SOL    HW191126   1.756   1.556  10.299  1.2766 -0.1569 -2.2118
61507SOL    HW291127   1.685   1.683  10.255  0.1113  0.3190  0.8148
61508SOL     OW91128   9.821   9.199   3.742 -0.2465  0.1874 -0.0522
61508SOL    HW191129   9.852   9.290   3.740  1.1276 -0.2669 -0.5307
61508SOL    HW291130   9.843   9.164   3.656  0.9213 -1.1144  0.7314
61509SOL     OW91131   0.462  12.016   4.605  0.1832  0.4977  0.3029
61509SOL    HW191132   0.472  11.963   4.684  0.7355  0.6088  0.3120
61509SOL    HW291133   0.485  12.105   4.633  0.2903  0.5538  0.0384
61510SOL     OW91134   4.204  12.222   8.651  0.0603  0.3069 -0.2596
61510SOL    HW191135   4.234  12.261   8.569  0.7881  1.0181  0.3208
61510SOL    HW291136   4.120  12.182   8.630 -2.4175  4.8410 -0.2964
61511SOL     OW91137   9.334  10.343   7.698  0.1621  0.2099  0.1214
61511SOL    HW191138   9.403  10.389   7.651  0.5981 -0.8499 -0.3029
61511SOL    HW291139   9.380  10.280   7.754 -0.4150  0.3596  0.7846
61512SOL     OW91140  11.176   6.383   7.733 -0.3747  0.2537 -0.0597
61512SOL    HW191141  11.169   6.478   7.741 -1.7635  0.2458 -0.8871
61512SOL    HW291142  11.128   6.362   7.653 -1.8311 -1.3478  1.1503
61513SOL     OW91143   1.636   6.022   7.168  0.4126 -0.2437  0.2394
61513SOL    HW191144   1.669   5.935   7.148 -1.4206 -1.0339  0.4121
61513SOL    HW291145   1.559   6.032   7.111 -1.1477  0.0227  2.2574
61514SOL     OW91146   8.861   9.509  12.391  0.5592  0.4844  0.4036
61514SOL    HW191147   8.911   9.529  12.470  0.6509 -1.3075  0.8494
61514SOL    HW291148   8.880   9.417  12.374 -1.9766 -0.0674  0.1507
61515SOL     OW91149   9.690   7.326   2.026  0.3972  0.0445  0.0458
61515SOL    HW191150   9.702   7.245   2.075  0.4690  0.0780  0.0842
61515SOL    HW291151   9.768   7.332   1.970 -0.0961 -0.4380 -0.7143
61516SOL     OW91152  12.552   5.873   5.474  0.0308 -0.0849 -0.1947
61516SOL    HW191153  12.491   5.909   5.410  0.8774 -0.7146 -1.3977
61516SOL    HW291154  12.545   5.778   5.462  1.1459 -0.1669 -0.2685
61517SOL     OW91155  12.491   1.450   2.579  0.3321  0.0223  0.3712
61517SOL    HW191156  12.450   1.535   2.595 -0.5393 -0.5793  1.4761
61517SOL    HW291157  12.584   1.469   2.569 -0.0159  1.2529 -0.7606
61518SOL     OW91158  10.954  11.206   7.139  0.7162 -0.1660  0.8119
61518SOL    HW191159  10.954  11.243   7.227  1.7789 -0.0735  0.7873
61518SOL    HW291160  11.041  11.166   7.129  0.3699 -0.7778  0.0529
61519SOL     OW91161   7.484   6.212   2.939 -0.9359  0.1360  1.0345
61519SOL    HW191162   7.499   6.158   2.862 -0.0981 -0.3178  1.4960
61519SOL    HW291163   7.509   6.300   2.912 -1.2974  0.1075  0.5941
61520SOL     OW91164  12.432  11.243   1.134 -0.0999  0.0461  0.1453
61520SOL    HW191165  12.351  11.233   1.184  0.0829 -0.2776  0.3766
61520SOL    HW291166  12.461  11.154   1.115 -1.4129  0.1081 -2.6040
61521SOL     OW91167   0.216   9.094   0.076  0.6432 -0.3717 -0.4702
61521SOL    HW191168   0.167   9.014   0.093  1.6110 -0.6941  1.0399
61521SOL    HW291169   0.227   9.134   0.163  0.9580  0.9349 -1.0844
61522SOL     OW91170   5.060  12.495  11.052 -0.2154 -0.3222  0.4254
61522SOL    HW191171   5.027  12.585  11.047 -2.5384 -1.1653 -1.0651
61522SOL    HW291172   4.992  12.448  11.101  0.0388 -1.6210 -0.4404
61523SOL     OW91173   5.672   2.540   3.755 -0.1445 -0.5723 -0.4209
61523SOL    HW191174   5.639   2.481   3.687 -3.3621  0.6063 -0.0712
61523SOL    HW291175   5.600   2.546   3.818  1.8513  0.1751  1.9509
61524SOL     OW91176   1.188   2.157   9.678  0.0914 -0.0313  0.6154
61524SOL    HW191177   1.232   2.076   9.650 -0.5905 -0.4170  0.6400
61524SOL    HW291178   1.161   2.199   9.596  1.1118  0.5648  0.5654
61525SOL     OW91179   5.357   8.540   2.355 -0.2894  0.0964  0.4796
61525SOL    HW191180   5.338   8.634   2.346 -0.0199  0.3251  2.0210
61525SOL    HW291181   5.437   8.537   2.408  0.8305 -0.9831 -1.1831
61526SOL     OW91182   1.958   8.002   0.338  0.0404 -0.0327  0.0459
61526SOL    HW191183   1.873   7.992   0.382 -0.8175 -1.2671 -1.7839
61526SOL    HW291184   1.936   8.014   0.246  1.8636 -1.1633 -0.5873
61527SOL     OW91185  12.654   8.922  10.802 -0.5862 -0.4702  0.2368
61527SOL    HW191186  12.598   8.976  10.857  1.0515  0.2402  1.2859
61527SOL    HW291187  12.661   8.839  10.849  0.3832 -0.0490  0.8595
61528SOL     OW91188   8.422   3.628   9.509 -0.2260 -0.5105  0.0864
61528SOL    HW191189   8.378   3.561   9.562 -0.3826 -2.0913 -1.8894
61528SOL    HW291190   8.492   3.580   9.464  0.3725  0.9209 -0.5463
61529SOL     OW91191  10.698   2.127   4.463 -0.0371  0.0218 -0.0822
61529SOL    HW191192  10.735   2.199   4.411  2.2827  1.1862  2.9176
61529SOL    HW291193  10.757   2.054   4.448 -2.5340 -1.5911 -3.3329
61530SOL     OW91194   3.401  12.197   7.207  0.5619 -0.3608 -0.3760
61530SOL    HW191195   3.460  12.181   7.280  1.3437 -1.8507 -1.2752
61530SOL    HW291196   3.373  12.288   7.218  1.5464 -0.2033  1.1167
61531SOL     OW91197  11.211   6.307   4.440  0.0305 -0.5067 -0.0442
61531SOL    HW191198  11.208   6.260   4.524 -1.3803  0.1627  0.3078
61531SOL    HW291199  11.222   6.238   4.375 -0.5608 -1.2002  0.5701
61532SOL     OW91200   9.109  12.411   9.826 -0.1490 -0.2232  0.4478
61532SOL    HW191201   9.072  12.392   9.912 -0.5888 -0.6457  0.1726
61532SOL    HW291202   9.170  12.483   9.841  0.5379 -0.9581  1.2830
61533SOL     OW91203   7.128   1.000   2.769 -0.1190 -0.0694  0.1408
61533SOL    HW191204   7.093   1.075   2.720  2.4657 -0.0405 -1.8968
61533SOL    HW291205   7.079   0.925   2.735 -0.0322  0.2527 -0.7396
61534SOL     OW91206   7.844   9.952  12.286 -0.0012 -0.5043 -0.3954
61534SOL    HW191207   7.934   9.971  12.312 -0.5646  0.2331  1.1454
61534SOL    HW291208   7.831   9.859  12.307  0.7068 -0.9048 -1.6440
61535SOL     OW91209   3.342   3.863  12.550 -0.1419 -0.1486  0.2542
61535SOL    HW191210   3.309   3.874  12.640  1.0669  0.8414  0.6007
61535SOL    HW291211   3.426   3.908  12.550 -0.2566  0.1097 -1.4646
61536SOL     OW91212  12.352  12.460   5.340 -0.3513  0.3462 -0.1886
61536SOL    HW191213  12.274  12.483   5.391  0.1206 -0.8960  1.1652
61536SOL    HW291214  12.340  12.368   5.317  0.6436  0.1738 -0.0725
61537SOL     OW91215   8.308   1.043  11.374  0.2745 -0.3234 -0.3958
61537SOL    HW191216   8.370   1.090  11.319 -0.6854  0.3698 -0.9293
61537SOL    HW291217   8.298   1.099  11.452 -0.0796 -0.1594 -0.5559
61538SOL     OW91218  12.504   5.908   4.807  0.1574  0.7739 -0.1567
61538SOL    HW191219  12.534   5.993   4.775  1.1266 -0.2863 -2.2716
61538SOL    HW291220  12.582   5.868   4.845  0.3911 -0.1675 -1.5422
61539SOL     OW91221   9.373  12.040   6.174  0.0317  0.1651  0.3271
61539SOL    HW191222   9.387  11.955   6.134  0.1840 -0.0516  0.8335
61539SOL    HW291223   9.404  12.030   6.264 -0.2823  0.6474  0.4947
61540SOL     OW91224   8.695   0.493   3.929  0.1242  0.1621 -0.0862
61540SOL    HW191225   8.778   0.467   3.888  0.8862  0.0835  1.4556
61540SOL    HW291226   8.713   0.577   3.971 -0.1723 -0.4825  1.3957
61541SOL     OW91227   3.830  11.089   6.669 -0.0286  0.3380 -0.3554
61541SOL    HW191228   3.755  11.039   6.640  1.0802 -1.5622 -0.0975
61541SOL    HW291229   3.794  11.152   6.731 -1.5259  0.1821 -1.0195
61542SOL     OW91230   4.036   3.503   2.731 -0.6358 -0.3294 -0.0236
61542SOL    HW191231   4.023   3.541   2.818 -2.2914  1.4062 -0.9723
61542SOL    HW291232   3.956   3.454   2.713  0.0198 -1.3473 -0.2993
61543SOL     OW91233   6.139   0.956   1.187 -0.2566 -0.2192 -0.0877
61543SOL    HW191234   6.125   0.895   1.115 -0.6148 -0.1475 -0.0850
61543SOL    HW291235   6.217   1.006   1.162 -0.3423 -0.2371 -0.3962
61544SOL     OW91236   2.803   3.215   5.419 -0.2173 -0.1760 -0.1796
61544SOL    HW191237   2.723   3.199   5.369 -0.1259  0.2011 -0.4510
61544SOL    HW291238   2.855   3.273   5.364  1.0692 -1.8728 -0.8064
61545SOL     OW91239   5.674   1.265   5.884  0.0272  0.2125  0.0213
61545SOL    HW191240   5.658   1.300   5.972  1.2120 -0.5695  0.5738
61545SOL    HW291241   5.612   1.193   5.876 -0.1031  0.3029  0.2053
61546SOL     OW91242   4.098  12.319   4.331 -0.1339 -0.0683 -1.1415
61546SOL    HW191243   4.020  12.264   4.321 -0.6347  0.4082  0.0275
61546SOL    HW291244   4.135  12.294   4.415 -0.0322  0.9747 -0.8640
61547SOL     OW91245   2.286  10.452   4.640 -0.1398  0.5205 -0.3689
61547SOL    HW191246   2.211  10.511   4.634  0.3706  1.0489 -1.9994
61547SOL    HW291247   2.263  10.377   4.586  0.1157  0.2484 -0.1017
61548SOL     OW91248   8.482   1.763   4.964 -0.1383  0.0538  0.3571
61548SOL    HW191249   8.557   1.711   4.991  0.2815 -0.7270 -2.0334
61548SOL    HW291250   8.411   1.735   5.022  1.4600  1.2593  3.0892
61549SOL     OW91251   6.629  11.064  11.178  0.5600 -0.2980  0.5412
61549SOL    HW191252   6.672  11.078  11.094 -1.4420  0.5547 -0.4219
61549SOL    HW291253   6.633  11.149  11.221 -0.5135 -0.0695  0.2274
61550SOL     OW91254   5.543   5.797   7.347 -0.0778  0.3365 -0.0217
61550SOL    HW191255   5.465   5.798   7.291  0.7687 -1.3252 -1.3158
61550SOL    HW291256   5.530   5.871   7.407 -2.5635  0.2047 -0.2858
61551SOL     OW91257   5.668   4.771   5.742  0.4608  0.3255 -0.2110
61551SOL    HW191258   5.742   4.813   5.785  0.4658  0.3276 -0.2218
61551SOL    HW291259   5.675   4.799   5.651  1.1560 -0.6722 -0.4745
61552SOL     OW91260   5.735  10.798   1.454  0.1034 -0.3953 -0.3270
61552SOL    HW191261   5.683  10.778   1.377 -1.8588 -1.0001  1.0754
61552SOL    HW291262   5.695  10.877   1.491  1.3050  0.1672 -0.1452
61553SOL     OW91263   3.139   4.131   9.419 -0.1634 -0.0077  0.0887
61553SOL    HW191264   3.068   4.188   9.448 -0.0477 -0.0101  0.3826
61553SOL    HW291265   3.102   4.081   9.346 -0.6944 -0.5178  0.6993
61554SOL     OW91266   1.997   0.119   4.368 -1.0206 -0.1788 -0.2668
61554SOL    HW191267   2.052   0.045   4.392 -1.0878 -0.7876 -1.8225
61554SOL    HW291268   2.040   0.195   4.406  0.5381 -0.7189 -0.8661
61555SOL     OW91269   1.065   2.637   0.433  0.6931 -0.6628 -0.2147
61555SOL    HW191270   1.063   2.733   0.442  0.0292 -0.5633 -1.2628
61555SOL    HW291271   1.156   2.617   0.410  0.5760 -0.1445 -1.2057
61556SOL     OW91272   1.609   0.006   3.207 -0.0295  0.3742 -0.5359
61556SOL    HW191273   1.560  -0.076   3.211 -0.1406  0.4648  0.2024
61556SOL    HW291274   1.544   0.074   3.226  0.3689  0.4947  0.4688
61557SOL     OW91275   0.220   0.765  10.374 -0.0150  0.5622  0.0780
61557SOL    HW191276   0.270   0.688  10.403  0.0524  0.7919  0.5813
61557SOL    HW291277   0.261   0.839  10.420 -1.6619  0.6046  1.5780
61558SOL     OW91278   5.156  11.906   4.009  0.1040  0.3112  0.0952
61558SOL    HW191279   5.119  11.936   3.926 -0.8036 -0.8171  0.0672
61558SOL    HW291280   5.222  11.842   3.984 -1.8579 -1.9144  0.2137
61559SOL     OW91281   4.119   4.930   7.546  0.8709  0.2959 -0.0933
61559SOL    HW191282   4.030   4.932   7.513  0.1326 -0.3896  1.7234
61559SOL    HW291283   4.139   5.021   7.568  0.2461  0.3256  0.3820
61560SOL     OW91284   0.704   1.069  10.981 -0.1821  0.1361 -1.3422
61560SOL    HW191285   0.794   1.101  10.968  0.4497 -0.9285  0.1340
61560SOL    HW291286   0.654   1.148  11.004  0.6872  0.5317 -0.7672
61561SOL     OW91287  11.404   2.705   4.654 -0.2351  0.0821 -0.8316
61561SOL    HW191288  11.380   2.784   4.703 -1.5295 -0.6733 -0.1910
61561SOL    HW291289  11.490   2.725   4.617  0.2354  1.1550  0.7359
61562SOL     OW91290   3.465   5.875   8.484 -0.2963  0.1166  0.2722
61562SOL    HW191291   3.403   5.866   8.556  2.4769  0.6568  2.8867
61562SOL    HW291292   3.473   5.970   8.471  0.3553  0.0599  0.2771
61563SOL     OW91293   4.408   6.665   8.319  0.0597  0.6712 -0.3534
61563SOL    HW191294   4.476   6.671   8.252  1.0034  0.6002  0.5528
61563SOL    HW291295   4.399   6.571   8.335  1.7155  0.7389  1.3876
61564SOL     OW91296   3.331   2.838   9.334  0.6688  0.1001  0.0203
61564SOL    HW191297   3.310   2.781   9.409 -1.4157  1.2228  0.3826
61564SOL    HW291298   3.416   2.876   9.356  0.7148 -0.6247  1.1784
61565SOL     OW91299   7.711   1.029   9.186 -0.5494 -0.1676  0.0466
61565SOL    HW191300   7.708   1.095   9.256  1.0867  0.2121 -0.2035
61565SOL    HW291301   7.667   0.953   9.223 -2.8322  1.1483  0.2091
61566SOL     OW91302   3.817   8.981   0.158 -0.0312  0.0944 -0.3970
61566SOL    HW191303   3.730   9.005   0.190 -0.0039 -1.2018  0.7507
61566SOL    HW291304   3.801   8.929   0.080 -0.2312  0.6649 -0.7430
61567SOL     OW91305   3.422   5.643   9.809 -0.1255  0.6970 -0.0821
61567SOL    HW191306   3.430   5.548   9.815 -0.6378  0.6997  0.8868
61567SOL    HW291307   3.407   5.660   9.716 -1.4877 -0.3028 -0.0832
61568SOL     OW91308   5.056   2.943  12.210 -0.3548  0.1355  0.0746
61568SOL    HW191309   5.047   3.033  12.179  0.1429 -0.3352 -1.5907
61568SOL    HW291310   5.133   2.944  12.266 -0.1463  0.6906 -0.2192
61569SOL     OW91311   4.575  11.474   2.082 -0.3503  0.4504  0.2424
61569SOL    HW191312   4.615  11.555   2.051 -1.6927  0.7717 -0.7862
61569SOL    HW291313   4.519  11.501   2.155 -1.2821  0.5896 -0.4977
61570SOL     OW91314  12.461   8.080  11.319  0.4147  0.5529 -0.1817
61570SOL    HW191315  12.557   8.077  11.323  0.3977 -0.2404 -0.1167
61570SOL    HW291316  12.434   7.993  11.348 -0.3625  1.0874  0.7332
61571SOL     OW91317   2.356   1.299   1.480  0.7842  0.3595  0.7948
61571SOL    HW191318   2.293   1.353   1.431 -1.2695 -0.2660  2.5686
61571SOL    HW291319   2.375   1.350   1.559  2.2199  0.3457  0.4787
61572SOL     OW91320  11.064   5.754   2.964 -0.2597  0.4754  0.3868
61572SOL    HW191321  11.057   5.759   3.059 -0.1676  1.0786  0.3626
61572SOL    HW291322  11.118   5.676   2.948 -1.4950 -0.4827  0.7751
61573SOL     OW91323  10.930   8.640   6.162 -0.0062  0.0785  0.1419
61573SOL    HW191324  11.000   8.693   6.124  0.0308  0.8089  1.1733
61573SOL    HW291325  10.882   8.605   6.087  0.0579  1.4548 -0.5696
61574SOL     OW91326   4.828   0.038   5.735  0.5387 -0.4492  0.0052
61574SOL    HW191327   4.880   0.111   5.702  2.2194 -1.2730  0.7072
61574SOL    HW291328   4.830  -0.026   5.665  1.9547 -1.1603  0.6470
61575SOL     OW91329   9.347   7.349   7.998  0.1583  0.5167 -0.1773
61575SOL    HW191330   9.432   7.387   8.020  0.4053  0.5320 -1.1092
61575SOL    HW291331   9.326   7.385   7.911  0.0071 -0.8209 -0.7138
61576SOL     OW91332   0.673   0.411  11.730 -0.3576 -0.4165 -0.1817
61576SOL    HW191333   0.584   0.392  11.760 -0.7957  0.4900 -0.8636
61576SOL    HW291334   0.690   0.500  11.760 -1.1829  0.9163 -3.3472
61577SOL     OW91335  11.091   6.191  12.569 -0.3850 -0.1697 -0.2521
61577SOL    HW191336  11.137   6.264  12.610 -0.9439 -0.0237  0.1381
61577SOL    HW291337  11.020   6.232  12.519  0.4642 -0.3282 -1.6279
61578SOL     OW91338   1.905   4.568   2.384 -0.1903 -0.3580  0.9004
61578SOL    HW191339   1.947   4.586   2.299  0.3009 -1.9487  0.7639
61578SOL    HW291340   1.841   4.499   2.365  0.8866 -1.7286  2.0210
61579SOL     OW91341   0.417   1.280   9.401 -0.4849  0.3144 -0.1151
61579SOL    HW191342   0.466   1.235   9.332  0.3177  0.4108  0.3879
61579SOL    HW291343   0.359   1.212   9.436 -1.1940  0.3625 -1.1396
61580SOL     OW91344   9.868   9.538   7.179  0.0803 -0.5692  0.3679
61580SOL    HW191345   9.780   9.566   7.202  0.1081 -1.4037  1.6261
61580SOL    HW291346   9.866   9.526   7.084 -0.4697  1.6528  0.0462
61581SOL     OW91347   5.183   1.463   0.438 -0.2124 -0.0314 -0.1598
61581SOL    HW191348   5.123   1.403   0.483 -0.9290  2.1243  1.9762
61581SOL    HW291349   5.240   1.497   0.507  0.0804  1.8007 -1.2296
61582SOL     OW91350   5.352   2.030  11.968 -0.4704  0.3918 -0.3622
61582SOL    HW191351   5.264   2.045  11.935 -0.7725 -0.2285  0.1435
61582SOL    HW291352   5.383   2.116  11.997 -0.6652  0.7208 -1.1121
61583SOL     OW91353  10.614  10.502   0.150  0.1411  0.1430  0.5057
61583SOL    HW191354  10.612  10.578   0.093  1.1952  1.2243  1.8364
61583SOL    HW291355  10.637  10.429   0.093 -2.9231  0.3692 -1.2103
61584SOL     OW91356   6.934   8.380  11.635  0.8619 -0.1807  0.1386
61584SOL    HW191357   6.935   8.430  11.717  1.7061  1.6203 -0.9114
61584SOL    HW291358   6.853   8.330  11.640  1.2655 -0.7531  2.4115
61585SOL     OW91359   9.117   9.158  10.464 -0.2654  0.2127 -0.6261
61585SOL    HW191360   9.059   9.208  10.521 -0.6307 -1.8776  0.9834
61585SOL    HW291361   9.090   9.181  10.376 -3.8774 -0.8638  0.0072
61586SOL     OW91362  10.398  11.785   5.750 -0.0673 -0.1233 -0.3416
61586SOL    HW191363  10.331  11.717   5.753 -0.6575  0.3408 -1.9994
61586SOL    HW291364  10.349  11.867   5.757  0.4478  0.1853 -0.3168
61587SOL     OW91365   2.978   2.682  10.064 -0.0018 -0.4420 -0.8466
61587SOL    HW191366   2.982   2.778  10.054 -1.0484 -0.5745 -3.4221
61587SOL    HW291367   2.948   2.668  10.153 -0.4340  1.6576 -0.6086
61588SOL     OW91368   7.061   8.619   8.589  0.3159 -0.1471 -0.2794
61588SOL    HW191369   7.002   8.686   8.625  1.6927  2.0021 -1.7663
61588SOL    HW291370   7.140   8.627   8.641  0.9630  0.3752 -1.3036
61589SOL     OW91371   5.731   5.404   2.097 -0.5600  0.0347 -0.0316
61589SOL    HW191372   5.790   5.413   2.171 -1.1140 -0.2193  0.4528
61589SOL    HW291373   5.733   5.490   2.054  0.3080 -0.0351 -0.1460
61590SOL     OW91374   3.278   7.898   5.677 -0.1222 -0.4198  0.4056
61590SOL    HW191375   3.367   7.901   5.641  0.0616  1.7214  0.9243
61590SOL    HW291376   3.221   7.912   5.601  0.0761  0.1419  0.3579
61591SOL     OW91377   3.176  11.706   7.326  0.1153  0.2300 -0.4232
61591SOL    HW191378   3.232  11.670   7.257 -0.4144  0.7924 -1.1632
61591SOL    HW291379   3.120  11.769   7.281 -0.6811  0.1418  0.4129
61592SOL     OW91380   7.900  10.402   8.519 -0.1350 -0.1331  0.6429
61592SOL    HW191381   7.964  10.469   8.497  1.5913 -1.7410  0.4823
61592SOL    HW291382   7.934  10.360   8.598  0.3447 -2.5783 -0.7608
61593SOL     OW91383   2.648   9.655   8.740 -0.1406  0.2194  0.5787
61593SOL    HW191384   2.681   9.572   8.707  1.7138  1.5531 -1.1929
61593SOL    HW291385   2.565   9.669   8.692 -1.0139 -1.0301  1.6616
61594SOL     OW91386   8.171  11.956   9.795 -0.1867 -0.2050 -0.1886
61594SOL    HW191387   8.114  11.945   9.871 -0.5707 -0.9757 -0.5691
61594SOL    HW291388   8.182  11.867   9.761  1.3131 -0.0812 -0.0720
61595SOL     OW91389   3.383   6.152   8.109  0.0679  0.0607 -0.1630
61595SOL    HW191390   3.449   6.099   8.155 -0.6894  0.9447  2.0598
61595SOL    HW291391   3.372   6.229   8.164 -1.6465  0.7049 -1.3492
61596SOL     OW91392   6.964   7.946   5.159  0.1664 -0.0051 -0.0155
61596SOL    HW191393   6.884   7.922   5.112 -0.1914 -2.4706  1.6065
61596SOL    HW291394   6.960   8.041   5.167 -1.9838  0.0577 -1.0259
61597SOL     OW91395   6.794   1.230   1.590 -0.5722  0.1925 -0.3230
61597SOL    HW191396   6.709   1.267   1.567 -0.7353 -0.4144 -0.6951
61597SOL    HW291397   6.839   1.301   1.636 -1.2976  0.4960 -0.0737
61598SOL     OW91398   8.875   4.830   9.221 -0.3917  0.4659 -0.0884
61598SOL    HW191399   8.868   4.850   9.127 -0.7028 -2.3891 -0.7452
61598SOL    HW291400   8.952   4.880   9.250 -0.0736  1.1267 -1.9382
61599SOL     OW91401   4.184   1.342   7.255 -0.0544  0.6768  0.1586
61599SOL    HW191402   4.124   1.374   7.188 -1.1020  0.3058  0.9039
61599SOL    HW291403   4.254   1.408   7.258 -0.4251  1.1257 -0.6866
61600SOL     OW91404   6.843   5.468  11.670  0.1675  0.1421 -0.1993
61600SOL    HW191405   6.821   5.442  11.581  0.6300 -1.7372  0.1994
61600SOL    HW291406   6.931   5.434  11.684 -1.0827 -2.5794  2.0336
61601SOL     OW91407   6.362  12.566  11.768  0.3575 -0.2678  0.0109
61601SOL    HW191408   6.334  12.495  11.825 -0.1312 -0.2978 -0.2637
61601SOL    HW291409   6.281  12.606  11.738  0.6026 -0.6288 -1.1529
61602SOL     OW91410   9.041  12.163  11.771 -0.3061  0.3002  0.2849
61602SOL    HW191411   9.126  12.204  11.751 -2.2458  3.8568 -1.5620
61602SOL    HW291412   9.022  12.110  11.694  0.2856 -0.7742  0.8438
61603SOL     OW91413   5.052   8.215   0.608 -0.5419 -0.3246 -0.3140
61603SOL    HW191414   5.052   8.238   0.701  0.1846 -1.6544  0.0376
61603SOL    HW291415   5.063   8.120   0.606  0.5666 -0.2192 -1.7718
61604SOL     OW91416   4.772   1.081   3.447  0.1636 -0.7220 -0.0919
61604SOL    HW191417   4.835   1.147   3.476 -0.6322  0.8897 -1.8037
61604SOL    HW291418   4.825   1.017   3.399  0.8373 -0.8631  0.8244
61605SOL     OW91419   6.104   1.854   2.190 -0.7967 -0.2342  0.0840
61605SOL    HW191420   6.054   1.785   2.232  1.2179 -2.7635 -1.3275
61605SOL    HW291421   6.058   1.869   2.107 -1.1039 -0.0571  0.2851
61606SOL     OW91422   2.159  10.091   3.967  0.2456 -0.2779 -0.4809
61606SOL    HW191423   2.078  10.143   3.970  0.2038 -0.3631 -0.1095
61606SOL    HW291424   2.205  10.123   3.889 -0.1017 -0.1632 -0.6423
61607SOL     OW91425   6.667   2.108   5.099 -0.2845  0.5922 -0.2897
61607SOL    HW191426   6.695   2.017   5.103  0.4328  0.8068 -0.2648
61607SOL    HW291427   6.603   2.111   5.028  0.7311  0.3409 -1.2330
61608SOL     OW91428   2.899  11.558   3.669  0.4759 -0.0954 -0.3361
61608SOL    HW191429   2.878  11.468   3.644  0.3061 -0.7156  1.8734
61608SOL    HW291430   2.986  11.551   3.709  0.7962  0.8666 -0.8471
61609SOL     OW91431   6.481   5.561   5.215 -0.0510  0.1447  0.0517
61609SOL    HW191432   6.534   5.485   5.191  0.7075 -0.0143  2.0074
61609SOL    HW291433   6.397   5.525   5.242 -0.5809  0.2511 -1.3561
61610SOL     OW91434  11.250   0.811  12.177 -0.0775  0.2777  0.0659
61610SOL    HW191435  11.170   0.814  12.125 -0.2463  0.1841  0.3182
61610SOL    HW291436  11.268   0.902  12.199  0.1370  0.3448 -0.3687
61611SOL     OW91437   6.547  11.428  10.915 -0.2460  0.0161  0.1188
61611SOL    HW191438   6.519  11.359  10.974  1.3036  0.7548  1.8148
61611SOL    HW291439   6.491  11.502  10.936  0.1811  0.2214  0.5530
61612SOL     OW91440   8.887  12.592   8.214 -0.4211 -0.1159 -0.3593
61612SOL    HW191441   8.982  12.581   8.201 -0.4655  0.9784 -1.8433
61612SOL    HW291442   8.848  12.525   8.158 -0.5280  0.2699 -0.7532
61613SOL     OW91443   9.817   5.973   1.499  0.0785  0.2311  0.3162
61613SOL    HW191444   9.805   5.970   1.594 -0.2356 -1.1970  0.2518
61613SOL    HW291445   9.728   5.963   1.463 -0.0083  2.2948 -0.1444
61614SOL     OW91446   0.959   1.716   1.736 -0.4151  0.2133  0.3009
61614SOL    HW191447   0.978   1.652   1.804  0.6197 -0.9159 -1.0236
61614SOL    HW291448   1.015   1.791   1.757  1.1566 -0.7738 -0.1992
61615SOL     OW91449   0.319  10.916   6.407  0.3990 -0.3480 -0.2610
61615SOL    HW191450   0.280  10.997   6.372  1.3198  0.1613 -0.1218
61615SOL    HW291451   0.259  10.847   6.378 -0.2863  0.3543 -0.5694
61616SOL     OW91452  12.114   2.133   1.860 -0.4107 -0.6739 -0.0867
61616SOL    HW191453  12.095   2.188   1.784 -3.8632  0.4149  1.3706
61616SOL    HW291454  12.128   2.046   1.823  1.5707  0.3944 -2.1500
61617SOL     OW91455   4.347  10.800   4.073 -0.1272  0.4114 -0.0770
61617SOL    HW191456   4.293  10.736   4.028  2.3296 -1.2203 -0.9029
61617SOL    HW291457   4.401  10.838   4.004  0.9491  0.7527  0.9222
61618SOL     OW91458   8.527  11.537   4.595 -0.1632 -0.2730  0.9149
61618SOL    HW191459   8.468  11.480   4.644 -1.5825  1.2188  1.0271
61618SOL    HW291460   8.613  11.498   4.606 -1.0833 -2.4313  0.8926
61619SOL     OW91461  12.584   0.702   6.550  0.5033  0.3757  0.0759
61619SOL    HW191462  12.657   0.691   6.489  0.5328 -0.6101  0.2813
61619SOL    HW291463  12.625   0.698   6.637  0.6268  2.8074  0.2175
61620SOL     OW91464   5.383   0.420   7.091 -0.1983  0.0849  0.0497
61620SOL    HW191465   5.322   0.348   7.110  2.8418 -2.3232  1.5592
61620SOL    HW291466   5.468   0.378   7.085  1.4859  3.3438 -1.4446
61621SOL     OW91467   4.925  12.576   8.176  0.1195  0.6930 -0.2928
61621SOL    HW191468   4.991  12.536   8.119 -1.0719 -0.9165 -0.6024
61621SOL    HW291469   4.874  12.632   8.119  0.1654  0.6259 -0.3985
61622SOL     OW91470  10.204   0.986   9.060  0.3914  0.2642 -0.3262
61622SOL    HW191471  10.261   0.911   9.075  0.8104  0.5521 -0.4801
61622SOL    HW291472  10.237   1.054   9.119 -0.4318  0.1012  0.3430
61623SOL     OW91473   8.591   9.650   8.744  0.1461  0.0173  0.2933
61623SOL    HW191474   8.509   9.615   8.778  0.5073  0.1861  1.3503
61623SOL    HW291475   8.658   9.614   8.801  0.7693  0.3100 -0.2400
61624SOL     OW91476  11.253   0.137   5.252 -0.2442 -0.2363 -0.3007
61624SOL    HW191477  11.205   0.118   5.333 -1.2118 -1.5307 -1.1404
61624SOL    HW291478  11.252   0.232   5.246 -0.7001 -0.1399  0.8826
61625SOL     OW91479   6.071   1.744   3.078  0.1192  0.0242  0.0513
61625SOL    HW191480   6.146   1.740   3.018  1.4460  0.6428  1.5759
61625SOL    HW291481   6.100   1.696   3.155 -1.2545 -0.1054  0.5112
61626SOL     OW91482   7.637   9.343  11.702 -0.1304  0.2484 -0.1966
61626SOL    HW191483   7.635   9.415  11.765 -1.6572  0.7081 -0.7085
61626SOL    HW291484   7.595   9.270  11.748  0.3372  0.0454 -0.0878
61627SOL     OW91485   4.313   7.618  12.141 -0.0476  0.1967  0.6722
61627SOL    HW191486   4.278   7.703  12.165 -3.2129  0.0650 -2.6055
61627SOL    HW291487   4.237   7.560  12.138  0.9753 -1.2472 -2.7302
61628SOL     OW91488   9.956   3.876   2.613  0.6942  0.0547  0.2599
61628SOL    HW191489  10.024   3.851   2.549 -0.0142 -0.5863 -0.2661
61628SOL    HW291490   9.876   3.884   2.561  0.1305 -0.3319  1.0517
61629SOL     OW91491   1.188   8.258  10.887 -0.1471 -0.1927 -0.0423
61629SOL    HW191492   1.242   8.279  10.811 -2.3862  1.1981 -1.3484
61629SOL    HW291493   1.176   8.341  10.933 -0.8914 -0.5454  0.4219
61630SOL     OW91494   1.163   5.663  11.493 -0.3316  0.2670  0.2246
61630SOL    HW191495   1.126   5.750  11.506 -1.6334 -0.3117  0.5253
61630SOL    HW291496   1.137   5.613  11.570  0.8435 -0.2520  0.3007
61631SOL     OW91497   2.795   6.677   3.067 -0.2251 -0.1609  0.4517
61631SOL    HW191498   2.857   6.621   3.019 -1.3930 -0.8012 -0.3523
61631SOL    HW291499   2.783   6.634   3.151 -0.6135 -0.7639  0.0883
61632SOL     OW91500   8.566  11.166   9.153  0.2139  0.4703 -0.4228
61632SOL    HW191501   8.598  11.094   9.100 -1.8082 -0.1193 -0.9399
61632SOL    HW291502   8.643  11.220   9.170  1.3992 -0.7464 -1.7000
61633SOL     OW91503  10.262   5.566   0.550 -0.5082  0.3696 -0.0387
61633SOL    HW191504  10.225   5.502   0.611  0.4069  0.5357  0.7085
61633SOL    HW291505  10.186   5.608   0.510 -1.1126  0.0348  0.7460
61634SOL     OW91506  12.171   2.418   4.057 -0.1069  0.0433  0.6608
61634SOL    HW191507  12.112   2.398   3.983  0.4224 -0.0744  0.2632
61634SOL    HW291508  12.124   2.483   4.108  0.2529  1.4528 -0.7374
61635SOL     OW91509   2.097   8.801   0.373  0.2161  0.1519 -0.3270
61635SOL    HW191510   2.187   8.819   0.401  0.1162 -0.3324  0.3092
61635SOL    HW291511   2.103   8.799   0.277  0.7246  0.9265 -0.3212
61636SOL     OW91512  12.572   4.775  10.384 -0.4335 -0.0359 -0.4148
61636SOL    HW191513  12.604   4.687  10.365  0.8368  0.1796  0.6389
61636SOL    HW291514  12.562   4.778  10.479 -1.7108  0.5576 -0.5465
61637SOL     OW91515   1.450   2.686   5.396  0.0698 -0.4088 -0.0658
61637SOL    HW191516   1.510   2.617   5.367  0.4743 -0.5975  1.1602
61637SOL    HW291517   1.450   2.679   5.491  1.4190  2.3178  0.2550
61638SOL     OW91518  10.585   8.044   1.964  0.3106 -0.1227 -0.1156
61638SOL    HW191519  10.539   8.092   1.895  1.7060  0.8703 -0.4082
61638SOL    HW291520  10.537   7.962   1.973 -0.9592  0.4884 -1.0092
61639SOL     OW91521   4.962   8.647  11.055  0.1653  0.6267  0.1780
61639SOL    HW191522   4.892   8.700  11.093 -0.7582 -0.7927  0.5533
61639SOL    HW291523   4.917   8.571  11.017  1.4853 -0.2989  0.3812
61640SOL     OW91524   5.921  10.675   7.143  0.2657 -0.1141 -0.2023
61640SOL    HW191525   6.004  10.723   7.138  0.4212 -0.3773 -0.1646
61640SOL    HW291526   5.883  10.681   7.056  0.4342 -0.1866 -0.2806
61641SOL     OW91527   3.020   5.906  12.765 -0.0135  0.2175 -0.4613
61641SOL    HW191528   2.943   5.855  12.788 -0.3436  0.9710  0.1711
61641SOL    HW291529   3.024   5.901  12.669  1.0965 -2.5649 -0.3568
61642SOL     OW91530   3.159   0.883   9.821 -0.2902 -0.0021  0.3284
61642SOL    HW191531   3.189   0.797   9.793 -0.3275 -0.5971  2.0462
61642SOL    HW291532   3.189   0.942   9.752 -0.0278 -1.3376 -0.7405
61643SOL     OW91533   2.559   0.629   6.425  0.0147  0.2942  0.4055
61643SOL    HW191534   2.524   0.609   6.339 -0.9596  0.7420  0.6732
61643SOL    HW291535   2.630   0.691   6.409 -0.3109  0.5502 -0.0648
61644SOL     OW91536   9.574   0.557   1.917 -0.8903 -0.2783  0.1361
61644SOL    HW191537   9.612   0.627   1.969 -0.5182 -0.6568  0.3829
61644SOL    HW291538   9.559   0.486   1.979 -1.5031 -0.3257 -0.0632
61645SOL     OW91539   9.302  11.683   8.405 -0.2135  0.0613  0.2168
61645SOL    HW191540   9.306  11.743   8.330 -0.4971 -0.8595 -0.5432
61645SOL    HW291541   9.392  11.678   8.435  0.2369 -0.9611 -1.1966
61646SOL     OW91542   3.574   3.080   1.523  0.1462 -0.2921 -0.3577
61646SOL    HW191543   3.637   3.030   1.472  0.1781 -0.5640 -0.0578
61646SOL    HW291544   3.498   3.023   1.529  0.2657 -0.4021  0.1770
61647SOL     OW91545  12.406   3.350   4.280 -0.1424 -0.2519  0.2706
61647SOL    HW191546  12.453   3.268   4.298  0.1357 -0.1545 -0.0030
61647SOL    HW291547  12.447   3.384   4.200 -1.2030 -0.5539 -0.4152
61648SOL     OW91548   6.329   0.485  10.319 -0.6031  0.0110 -0.0468
61648SOL    HW191549   6.286   0.488  10.233 -1.9156 -1.1003  0.5307
61648SOL    HW291550   6.261   0.512  10.381  0.1152  0.0953  0.7246
61649SOL     OW91551   0.584  12.483   4.746 -0.4911 -0.2141 -0.5265
61649SOL    HW191552   0.531  12.416   4.702  0.3479 -0.4344 -1.2344
61649SOL    HW291553   0.589  12.454   4.837 -1.7521 -0.0758 -0.3942
61650SOL     OW91554   5.341   5.230  12.395  0.2704 -0.1510 -0.1733
61650SOL    HW191555   5.428   5.247  12.432  1.1973 -2.1655 -1.2236
61650SOL    HW291556   5.280   5.254  12.464  1.5659  2.4128  0.1904
61651SOL     OW91557  11.419   8.158   1.775  0.4726 -0.8240 -0.3638
61651SOL    HW191558  11.327   8.185   1.782  0.7472 -0.0790  0.5751
61651SOL    HW291559  11.441   8.172   1.683  0.0536  0.3564 -0.2979
61652SOL     OW91560   7.744   1.347   1.876  0.4556 -0.1470  0.3375
61652SOL    HW191561   7.756   1.404   1.800  0.7377  0.5927  0.9201
61652SOL    HW291562   7.779   1.398   1.950 -0.3530 -0.6123  1.0578
61653SOL     OW91563   2.839   7.908   9.393 -0.4033 -0.2146 -0.4438
61653SOL    HW191564   2.856   7.853   9.316 -2.7337  0.4047 -1.4818
61653SOL    HW291565   2.829   7.996   9.358  2.8191  0.9472  1.1556
61654SOL     OW91566   1.072   9.022   7.897 -0.4045 -0.2151  0.0581
61654SOL    HW191567   1.061   8.974   7.979 -1.0839  0.9270  0.6459
61654SOL    HW291568   1.133   8.968   7.846  0.0763 -0.8992  1.3261
61655SOL     OW91569   6.012   4.666   9.529  0.1867 -0.2830 -0.3966
61655SOL    HW191570   5.947   4.619   9.476  0.0322  1.0543 -1.4476
61655SOL    HW291571   5.985   4.649   9.620 -1.6988  0.2665 -0.7935
61656SOL     OW91572  10.312   3.071  11.184  0.5876  0.8072 -0.0208
61656SOL    HW191573  10.407   3.060  11.189  0.5847  1.2391  1.5308
61656SOL    HW291574  10.286   3.095  11.273 -1.0861 -0.1090 -0.2204
61657SOL     OW91575   0.075   2.088   6.911 -0.4381  0.1171 -0.7898
61657SOL    HW191576   0.092   2.182   6.907 -2.1953  0.4660 -0.7543
61657SOL    HW291577   0.132   2.051   6.843 -1.0923  1.4235 -2.1153
61658SOL     OW91578   1.374   9.190   6.032 -0.1639  0.5714  0.2797
61658SOL    HW191579   1.311   9.175   5.961 -0.3337  1.6904  0.1735
61658SOL    HW291580   1.324   9.234   6.100  0.7018  2.5109 -0.2504
61659SOL     OW91581   9.080   4.390   8.343  0.0216 -0.2591  0.4600
61659SOL    HW191582   9.119   4.437   8.270  1.1086 -0.2084  1.0466
61659SOL    HW291583   9.022   4.453   8.385 -0.1907 -0.1226 -0.0349
61660SOL     OW91584  11.515   0.896   2.075  0.5020  0.4204  0.9610
61660SOL    HW191585  11.599   0.881   2.033 -1.0181 -2.8967 -1.3608
61660SOL    HW291586  11.519   0.844   2.156  0.7938  0.5002  0.9968
61661SOL     OW91587   9.169   7.669   4.018 -0.2600  0.2512 -0.1375
61661SOL    HW191588   9.105   7.739   4.026 -0.3996  0.1402 -0.2745
61661SOL    HW291589   9.217   7.671   4.101 -0.5274  0.2496  0.0212
61662SOL     OW91590   5.701  11.745   1.390  0.4252  0.5421 -0.3111
61662SOL    HW191591   5.650  11.747   1.310 -0.3500 -2.7299 -0.0098
61662SOL    HW291592   5.791  11.762   1.362  0.1833 -0.6677 -1.9110
61663SOL     OW91593   6.708   2.195   1.730  0.7613 -0.3783 -0.4284
61663SOL    HW191594   6.722   2.252   1.806 -0.2601 -1.9874  1.0396
61663SOL    HW291595   6.639   2.239   1.679  0.3492 -0.0428  0.4010
61664SOL     OW91596   5.118   2.803   1.698  0.0069  0.1178 -0.1546
61664SOL    HW191597   5.157   2.885   1.667  0.0165  0.9988  2.0383
61664SOL    HW291598   5.193   2.751   1.728 -0.1988  0.5405  1.1625
61665SOL     OW91599  12.532   2.188   0.719 -0.5078 -0.2753 -0.0828
61665SOL    HW191600  12.617   2.173   0.762 -0.8881 -1.9830  0.1595
61665SOL    HW291601  12.544   2.269   0.669  0.3663  1.0632  2.1677
61666SOL     OW91602  10.804   2.448  10.628 -0.4181 -0.2735 -0.6772
61666SOL    HW191603  10.783   2.385  10.697 -1.5970 -0.8750 -1.5308
61666SOL    HW291604  10.889   2.484  10.652 -0.4440 -1.0475  0.6551
61667SOL     OW91605   9.897   1.619   9.776  0.3012 -0.1361 -0.2017
61667SOL    HW191606   9.879   1.613   9.682 -1.0493 -3.0703  0.1378
61667SOL    HW291607   9.830   1.677   9.810  0.2879  0.2831 -0.9328
61668SOL     OW91608   6.650   2.613   5.963  0.1517  0.2335 -0.1188
61668SOL    HW191609   6.634   2.706   5.981  2.3301  0.7838 -0.6530
61668SOL    HW291610   6.668   2.610   5.869  1.0737 -0.5452  0.0672
61669SOL     OW91611   3.778   8.644   1.978  0.5888  0.9876  0.5257
61669SOL    HW191612   3.718   8.570   1.969 -1.5476  2.8446 -2.0858
61669SOL    HW291613   3.864   8.608   1.954 -0.4483 -0.5739 -1.1509
61670SOL     OW91614   6.132  10.053  11.188 -0.3205 -0.0963  0.8642
61670SOL    HW191615   6.075  10.028  11.115 -0.6026  0.2048  0.9820
61670SOL    HW291616   6.124  10.148  11.193 -0.7516 -0.1685  1.6585
61671SOL     OW91617   5.805   3.457   2.325  0.2146  0.4399  0.1736
61671SOL    HW191618   5.859   3.495   2.394  0.7745  1.1078 -0.6071
61671SOL    HW291619   5.772   3.376   2.363 -1.4324  1.9001  2.0889
61672SOL     OW91620   8.458   9.642   2.987  0.2841  0.3302  0.3941
61672SOL    HW191621   8.536   9.650   3.042 -0.6387 -1.1738  2.0129
61672SOL    HW291622   8.416   9.561   3.015 -0.9767  0.1875 -1.6350
61673SOL     OW91623  11.069   7.307   9.551  0.2619  0.1191 -0.0822
61673SOL    HW191624  11.096   7.215   9.547  0.7924  0.3239 -2.3984
61673SOL    HW291625  11.151   7.356   9.548  0.0953  0.7412  2.7273
61674SOL     OW91626   6.925  10.999   2.043 -0.7193 -0.3575 -0.1637
61674SOL    HW191627   6.886  11.068   1.990 -1.2107 -0.7858 -0.3776
61674SOL    HW291628   6.975  10.946   1.981 -0.6000 -0.3701 -0.0568
61675SOL     OW91629  11.089   7.090   7.123 -0.1589  0.2933  0.1183
61675SOL    HW191630  11.154   7.156   7.100  0.2732 -0.3435 -0.5602
61675SOL    HW291631  11.113   7.014   7.070 -1.2696 -0.0635  0.1019
61676SOL     OW91632   9.395  12.291  10.037  0.2718 -0.3782 -0.2336
61676SOL    HW191633   9.451  12.329   9.970 -0.5884  0.0770 -0.7119
61676SOL    HW291634   9.397  12.354  10.109  1.3532 -0.9616  0.2659
61677SOL     OW91635   8.078   1.318   7.379  0.2913  0.1233 -0.5752
61677SOL    HW191636   8.116   1.397   7.416  0.3455 -0.2714  0.2338
61677SOL    HW291637   7.984   1.337   7.372  0.2838  0.2070 -0.2498
61678SOL     OW91638  12.625  12.509   7.729 -0.0974  0.0602  0.3998
61678SOL    HW191639  12.638  12.603   7.743  1.5784 -0.4058  2.4566
61678SOL    HW291640  12.530  12.499   7.719 -0.4196  1.8289  1.3148
61679SOL     OW91641   2.919   7.468  11.047 -0.3851 -0.7001 -0.1810
61679SOL    HW191642   2.854   7.511  10.991 -1.5069 -0.4304  1.2759
61679SOL    HW291643   2.996   7.525  11.042 -1.4601  0.9276  0.8287
61680SOL     OW91644   0.683   8.026  10.105 -0.1385 -0.3695  0.2570
61680SOL    HW191645   0.607   8.068  10.145 -0.0565  0.4791 -0.4596
61680SOL    HW291646   0.656   8.010  10.015  0.7178  0.4520 -0.1634
61681SOL     OW91647  11.617   6.722   9.813  0.6480 -0.2004  0.0676
61681SOL    HW191648  11.565   6.665   9.756  0.1961  0.0544  0.2203
61681SOL    HW291649  11.656   6.663   9.877  0.8712 -0.4440 -0.2856
61682SOL     OW91650  11.084   6.539   9.183  0.4616  0.2781  0.1019
61682SOL    HW191651  11.177   6.559   9.175  0.2334  2.0373  1.2201
61682SOL    HW291652  11.042   6.590   9.113  0.2011  0.8708  0.6764
61683SOL     OW91653   3.684   6.863  10.444  0.2852  0.4844  0.6526
61683SOL    HW191654   3.634   6.935  10.406  1.4964  1.0716  0.1251
61683SOL    HW291655   3.765   6.860  10.393 -0.8270 -3.1031 -1.3104
61684SOL     OW91656   0.014   7.153   9.742 -0.7929  0.1736 -0.2655
61684SOL    HW191657   0.048   7.241   9.729  0.2747 -0.0868  0.6054
61684SOL    HW291658   0.054   7.101   9.674 -0.9497  0.2376 -0.4075
61685SOL     OW91659   8.649   1.274   6.222 -0.0930  0.1229 -0.3376
61685SOL    HW191660   8.683   1.256   6.135  1.6761  0.4634  0.2431
61685SOL    HW291661   8.630   1.368   6.222 -2.6018 -0.2959 -1.1260
61686SOL     OW91662  10.855   6.885   4.426 -0.1237 -0.0051 -0.4259
61686SOL    HW191663  10.794   6.940   4.476 -0.9219 -0.1484 -1.2053
61686SOL    HW291664  10.822   6.889   4.336  1.0738 -0.0437 -0.8785
61687SOL     OW91665   5.636   4.720   2.933 -0.3484 -0.0652 -0.1842
61687SOL    HW191666   5.543   4.738   2.921 -0.2392 -0.3187 -1.5791
61687SOL    HW291667   5.656   4.755   3.020 -1.5207  0.8963 -0.2692
61688SOL     OW91668   1.011   1.013   8.333 -0.6789  0.6886  0.5364
61688SOL    HW191669   1.015   1.076   8.261  0.2757  0.1259  0.0820
61688SOL    HW291670   1.099   1.013   8.370 -1.5573  2.2528  2.8626
61689SOL     OW91671   8.416   9.486   8.867  0.5229 -0.2328 -0.1692
61689SOL    HW191672   8.325   9.458   8.879  0.6104 -0.7832 -0.7399
61689SOL    HW291673   8.460   9.457   8.948 -0.1266  1.4949  0.8557
61690SOL     OW91674   3.364   4.997   1.963 -0.8367  0.1278 -0.1597
61690SOL    HW191675   3.369   5.093   1.964 -2.0226  0.1992  0.8265
61690SOL    HW291676   3.456   4.969   1.960 -0.4004  1.2950  1.0488
61691SOL     OW91677  12.767   8.916  11.486 -0.0925 -0.4386  0.7021
61691SOL    HW191678  12.830   8.887  11.419 -0.6552 -0.8739  0.3524
61691SOL    HW291679  12.715   8.839  11.505 -1.2556  0.1836  0.1664
61692SOL     OW91680   1.861   5.382  11.874  0.5772 -0.1972 -0.4000
61692SOL    HW191681   1.797   5.446  11.907  0.0301 -0.0056 -1.7410
61692SOL    HW291682   1.816   5.298  11.880  0.0622 -0.0260 -1.6107
61693SOL     OW91683   7.551   2.775   0.356  0.3820 -0.2920 -0.3062
61693SOL    HW191684   7.534   2.735   0.271 -0.5213 -2.9448  1.0230
61693SOL    HW291685   7.465   2.805   0.386  0.6685  0.4752 -0.2299
61694SOL     OW91686   1.545   6.124   8.513  0.3634 -0.0628 -0.6890
61694SOL    HW191687   1.620   6.183   8.525  2.5246 -2.4708 -1.3513
61694SOL    HW291688   1.544   6.105   8.419 -1.2886  0.1367 -0.7385
61695SOL     OW91689  10.997  11.166   7.578  0.2321  1.0105  0.7627
61695SOL    HW191690  10.945  11.122   7.511  0.7866  1.3436  0.1021
61695SOL    HW291691  11.005  11.256   7.547  1.1565  0.9758  0.8816
61696SOL     OW91692   6.256  12.721   3.856 -0.0404  0.2733 -0.7657
61696SOL    HW191693   6.338  12.770   3.848  2.0563 -3.1084 -1.8234
61696SOL    HW291694   6.247  12.706   3.951  0.4314  0.8688 -0.6202
61697SOL     OW91695   8.766   1.016   2.393 -0.1232 -0.1736  0.1763
61697SOL    HW191696   8.826   0.996   2.322  1.7281  1.1436  1.2995
61697SOL    HW291697   8.756   1.111   2.390 -2.0439 -0.3261  0.1618
61698SOL     OW91698   3.106   6.801   4.297  0.2259  0.0530  0.5871
61698SOL    HW191699   3.019   6.778   4.328 -1.5844  3.6747 -1.2301
61698SOL    HW291700   3.102   6.787   4.202  1.7333  0.0823  0.4890
61699SOL     OW91701   9.205  11.048   0.227  0.3966 -0.5195  0.4418
61699SOL    HW191702   9.259  11.120   0.194 -0.7480  0.0540 -0.2142
61699SOL    HW291703   9.268  10.988   0.267  1.2755  1.5677  2.4458
61700SOL     OW91704   5.727   0.170   2.629  0.0973 -0.5196 -0.3196
61700SOL    HW191705   5.748   0.234   2.696 -2.6327 -0.7541  0.8783
61700SOL    HW291706   5.666   0.216   2.570  2.0945 -0.4531 -2.4775
61701SOL     OW91707   6.724   3.480   7.057 -0.4733 -0.4272  0.0465
61701SOL    HW191708   6.640   3.454   7.019 -1.0115  0.5909  0.5041
61701SOL    HW291709   6.790   3.438   7.001 -1.2754 -2.2910  0.4416
61702SOL     OW91710   3.941   7.949   0.277 -0.1328  0.1794 -0.0978
61702SOL    HW191711   3.900   7.901   0.348  0.1174 -0.8353 -0.6152
61702SOL    HW291712   4.019   7.989   0.317 -0.8267  0.9196  0.5448
61703SOL     OW91713   1.544   6.343   7.404 -0.1714  0.0207 -0.1027
61703SOL    HW191714   1.621   6.381   7.362  0.1954 -0.6266 -0.0280
61703SOL    HW291715   1.496   6.419   7.438  0.7864  0.3966  0.4603
61704SOL     OW91716   0.145   4.261   5.867  0.8904 -0.1970 -0.0971
61704SOL    HW191717   0.202   4.334   5.841  0.5851 -0.1267 -0.5800
61704SOL    HW291718   0.058   4.289   5.840  0.4107  0.2625  1.7743
61705SOL     OW91719  12.280  11.624   4.641 -0.0956  0.5803 -0.1655
61705SOL    HW191720  12.344  11.553   4.645  0.1559  0.8519  0.7426
61705SOL    HW291721  12.201  11.582   4.606  0.5222  0.2140 -1.1671
61706SOL     OW91722   2.468   9.901   8.159 -0.4357 -0.1864  0.3474
61706SOL    HW191723   2.513   9.925   8.078 -0.7724  2.0274  0.7554
61706SOL    HW291724   2.446   9.808   8.148  1.0915 -0.3973 -1.3244
61707SOL     OW91725  10.276   4.576   9.953  0.3799  0.2927 -0.4049
61707SOL    HW191726  10.239   4.542   9.871 -2.1818 -0.4287  0.9576
61707SOL    HW291727  10.289   4.669   9.936 -1.0219  0.3525 -1.3630
61708SOL     OW91728  10.922   6.635   1.799  0.5074 -0.5667 -0.9166
61708SOL    HW191729  10.973   6.618   1.720  0.3395 -0.9740 -0.9404
61708SOL    HW291730  10.831   6.619   1.772  0.1611  1.7217 -1.3395
61709SOL     OW91731   9.328   8.409   9.491  0.0062  0.3249  0.5258
61709SOL    HW191732   9.403   8.463   9.516 -0.0110  0.5304  0.1434
61709SOL    HW291733   9.324   8.416   9.396  0.7014 -1.2633  0.3481
61710SOL     OW91734  12.581   3.731   2.234  0.0213  0.2005  0.2967
61710SOL    HW191735  12.615   3.725   2.324  0.9540 -2.7914 -0.1367
61710SOL    HW291736  12.649   3.778   2.186 -0.5878  2.0279  1.1556
61711SOL     OW91737   1.497  12.411   9.510  0.3095 -0.4050 -0.3783
61711SOL    HW191738   1.443  12.353   9.563  0.2611  0.4241  0.5144
61711SOL    HW291739   1.507  12.490   9.564  0.7872  0.2150 -1.3481
61712SOL     OW91740   2.492   9.416   9.162  0.4783 -0.1320 -0.1397
61712SOL    HW191741   2.509   9.394   9.071 -0.1461 -2.7571  0.2882
61712SOL    HW291742   2.403   9.383   9.179 -0.4206  2.4883  0.8158
61713SOL     OW91743   2.032   9.490   8.395 -0.9154  0.1074  0.6929
61713SOL    HW191744   2.115   9.538   8.387 -1.5425  1.3213  1.1397
61713SOL    HW291745   2.004   9.477   8.304 -0.5462  0.2597  0.5526
61714SOL     OW91746   7.339  11.984   8.799 -0.1265  0.1159 -0.0917
61714SOL    HW191747   7.298  11.968   8.713  0.1566 -0.4111 -0.1321
61714SOL    HW291748   7.269  11.965   8.862  0.3981 -2.0928 -0.1022
61715SOL     OW91749   3.155   6.592  11.282  0.1645  0.2397  0.1989
61715SOL    HW191750   3.137   6.665  11.223 -1.3152 -0.4355 -0.2255
61715SOL    HW291751   3.147   6.514  11.227 -3.0461 -0.5426  1.5332
61716SOL     OW91752   4.341   4.943  12.666 -0.1632 -0.2536 -0.3121
61716SOL    HW191753   4.313   5.033  12.678 -1.7447 -0.6786 -0.5449
61716SOL    HW291754   4.435   4.944  12.683 -0.3048  1.2735  0.5259
61717SOL     OW91755   6.233   1.223  10.952 -1.2024 -0.0522 -0.1765
61717SOL    HW191756   6.308   1.165  10.966 -0.6869  1.0269  1.7965
61717SOL    HW291757   6.158   1.164  10.947 -0.3254 -1.1321 -1.8844
61718SOL     OW91758   9.343   7.690   0.743  0.0513  0.1539  0.1822
61718SOL    HW191759   9.365   7.783   0.749 -2.0811  0.7689 -0.5624
61718SOL    HW291760   9.250   7.686   0.764  0.2868 -1.9589  1.0683
61719SOL     OW91761  11.175   7.534  10.875 -0.2692  0.4142 -0.8446
61719SOL    HW191762  11.265   7.512  10.854 -0.3532 -0.1907 -0.5755
61719SOL    HW291763  11.182   7.607  10.936  0.0944 -0.7448  0.5376
61720SOL     OW91764   7.958   3.689   9.830 -0.1541 -0.3787  0.7000
61720SOL    HW191765   7.877   3.704   9.782 -0.6503  1.9750  2.1359
61720SOL    HW291766   7.946   3.734   9.914  1.2102 -3.1098  2.5387
61721SOL     OW91767   4.868   3.008   4.383 -0.1468  0.0956 -0.3026
61721SOL    HW191768   4.870   3.061   4.462 -1.3049  1.8023 -1.3430
61721SOL    HW291769   4.958   2.979   4.371  0.1339  0.1823  1.3616
61722SOL     OW91770   5.069   3.843   2.491  0.2045  0.5821 -0.3185
61722SOL    HW191771   5.111   3.777   2.435  0.3529 -0.9654  1.5299
61722SOL    HW291772   5.140   3.879   2.544 -0.0550  1.5052 -0.5728
61723SOL     OW91773  11.558   7.928  12.382 -0.3888  0.1047  0.0203
61723SOL    HW191774  11.586   7.858  12.323  0.4822  0.2453  0.2387
61723SOL    HW291775  11.634   7.942  12.439 -0.5542  1.2064 -0.0097
61724SOL     OW91776   3.229   8.431  11.250 -0.0914  0.1453 -0.4245
61724SOL    HW191777   3.217   8.336  11.244  2.8581 -0.3436 -0.5488
61724SOL    HW291778   3.321   8.444  11.226  0.1373  2.8222  1.4587
61725SOL     OW91779   2.551   0.058  12.605 -0.3277  0.1844 -0.5717
61725SOL    HW191780   2.533   0.079  12.697  2.4897  0.7275 -0.0740
61725SOL    HW291781   2.612   0.126  12.576  0.7245 -1.3440 -2.1028
61726SOL     OW91782  10.045   8.855   8.841 -0.3554  0.2177  0.5239
61726SOL    HW191783   9.960   8.814   8.826 -0.1229 -0.3292  0.6532
61726SOL    HW291784  10.030   8.949   8.829 -0.6615  0.0064 -0.8449
61727SOL     OW91785   1.900   0.802   4.144  0.2394  0.0350  1.3689
61727SOL    HW191786   1.825   0.751   4.175  0.9752 -2.0352 -0.0227
61727SOL    HW291787   1.958   0.737   4.104  1.2447  1.9777 -0.5397
61728SOL     OW91788   9.633   8.022   2.699  0.9602 -0.0820 -0.2985
61728SOL    HW191789   9.707   7.963   2.684  1.7141  1.0827 -1.4331
61728SOL    HW291790   9.660   8.105   2.659 -0.5914  0.6480  0.0809
61729SOL     OW91791   9.013   7.466   0.250 -0.3209 -0.0184 -0.2596
61729SOL    HW191792   9.081   7.420   0.201  0.3753  1.2250 -0.5033
61729SOL    HW291793   8.931   7.440   0.207 -0.0365 -1.6977  0.1724
61730SOL     OW91794   9.996   3.365   6.244  0.0701  0.3888  0.2904
61730SOL    HW191795   9.928   3.417   6.286  0.8971  1.3368  0.5104
61730SOL    HW291796  10.014   3.294   6.305 -1.8855 -0.8879 -0.5293
61731SOL     OW91797  10.982   8.246   2.980  0.2640 -0.0107 -0.3069
61731SOL    HW191798  10.945   8.218   2.897 -0.4521 -0.5768  0.1887
61731SOL    HW291799  11.046   8.314   2.957 -1.0802  0.9963 -1.1969
61732SOL     OW91800   0.093   4.390   4.637 -0.3738  0.2134  0.0813
61732SOL    HW191801   0.049   4.347   4.564 -1.2077  2.6229 -0.9620
61732SOL    HW291802   0.176   4.421   4.601  0.6687 -1.2904  1.0835
61733SOL     OW91803   3.449  11.774   6.539 -0.1169  0.0385  0.3157
61733SOL    HW191804   3.432  11.708   6.472 -0.9734  0.0780  0.4737
61733SOL    HW291805   3.443  11.727   6.621  1.0795 -0.0385  0.3700
61734SOL     OW91806   4.986  11.540   4.135  0.4937 -0.4631  0.4542
61734SOL    HW191807   4.971  11.629   4.103 -0.0020 -0.3967  0.8594
61734SOL    HW291808   5.000  11.550   4.229 -3.0248 -1.1242  1.1582
61735SOL     OW91809   6.929   1.151   5.381 -0.3499 -0.6575  0.0118
61735SOL    HW191810   6.843   1.133   5.418  0.7650 -1.0475  2.5877
61735SOL    HW291811   6.958   1.067   5.345 -0.8852 -0.6021 -0.5631
61736SOL     OW91812  11.766   6.229  11.875  0.1793 -0.0419  0.5211
61736SOL    HW191813  11.841   6.272  11.834 -1.0468 -0.0155 -1.8859
61736SOL    HW291814  11.716   6.300  11.916 -1.2631  0.8520 -2.5027
61737SOL     OW91815   5.922   7.815   9.001 -0.0653 -0.3080 -0.3467
61737SOL    HW191816   5.904   7.792   8.910 -0.5929 -0.2492 -0.2615
61737SOL    HW291817   5.998   7.873   8.997  1.1527 -1.8695 -0.5873
61738SOL     OW91818   4.956  12.751  11.561 -0.5598 -0.1804 -0.1520
61738SOL    HW191819   4.946  12.737  11.655 -2.2407 -0.3692 -0.3296
61738SOL    HW291820   4.873  12.789  11.534 -0.1717 -0.3236 -1.6061
61739SOL     OW91821  11.392  10.444   5.144  0.5787 -0.1989  0.1450
61739SOL    HW191822  11.335  10.508   5.102 -2.1404 -1.7911  1.1330
61739SOL    HW291823  11.372  10.452   5.238  0.8061 -1.8816  0.3669
61740SOL     OW91824   1.626  10.004  12.376 -0.1927 -0.2483  0.2046
61740SOL    HW191825   1.598   9.934  12.435  1.6774 -1.8873 -0.7221
61740SOL    HW291826   1.637  10.080  12.433  0.4983 -1.4823  1.8047
61741SOL     OW91827   8.632   3.324   8.667  0.0155  0.2761 -0.1786
61741SOL    HW191828   8.580   3.401   8.686  0.3394  0.7472 -1.1218
61741SOL    HW291829   8.706   3.329   8.728 -0.2024  0.4581  0.0716
61742SOL     OW91830   2.374   7.765  10.930 -0.1969  0.3813 -0.6935
61742SOL    HW191831   2.439   7.710  10.974  0.5002  0.6745 -1.3227
61742SOL    HW291832   2.307   7.781  10.996  1.1647  1.4198  0.5238
61743SOL     OW91833   1.836   0.538   7.622 -0.4830 -0.3908 -0.5163
61743SOL    HW191834   1.890   0.469   7.661 -0.7921 -2.0259 -2.7359
61743SOL    HW291835   1.896   0.583   7.562  0.0200  2.1422  1.6828
61744SOL     OW91836   2.790   7.020   3.389  0.0012 -0.1052 -0.1130
61744SOL    HW191837   2.720   6.955   3.393 -0.8908  0.8276  0.0146
61744SOL    HW291838   2.815   7.034   3.481  0.5299 -0.6018 -0.1739
61745SOL     OW91839   1.732   6.591   9.253  0.0104  0.2485  0.5891
61745SOL    HW191840   1.757   6.601   9.162 -1.2159  0.1403  0.2174
61745SOL    HW291841   1.737   6.679   9.290 -0.4882  0.4731  0.1311
61746SOL     OW91842   3.316   9.076   2.755 -0.1714  0.1976 -0.2930
61746SOL    HW191843   3.343   9.008   2.817  0.7011  1.1648  0.4281
61746SOL    HW291844   3.377   9.068   2.681 -0.8288 -0.5666 -0.7584
61747SOL     OW91845   4.208   9.286   9.887  0.2010 -0.2617  0.2066
61747SOL    HW191846   4.284   9.321   9.842 -0.5605 -1.4972 -2.2655
61747SOL    HW291847   4.145   9.359   9.889  0.2638 -0.1600 -0.7932
61748SOL     OW91848   7.209   0.224   0.639 -0.1491 -0.1770  0.1936
61748SOL    HW191849   7.125   0.186   0.613 -0.6053  0.4665  0.7146
61748SOL    HW291850   7.237   0.274   0.562 -1.5080  1.7388  0.8539
61749SOL     OW91851   3.409   6.183  12.507 -0.2494  0.2652  0.5617
61749SOL    HW191852   3.342   6.196  12.440  1.0863  0.7428 -0.7196
61749SOL    HW291853   3.492   6.187  12.460  0.7435  0.7140  2.2554
61750SOL     OW91854   5.278  11.563   6.015 -0.4830 -0.1561  0.1668
61750SOL    HW191855   5.237  11.650   6.019 -1.4603 -0.6260  0.9702
61750SOL    HW291856   5.299  11.551   5.923 -0.7661  0.7448 -0.0324
61751SOL     OW91857   9.240   8.582   7.677 -0.4207  0.3833 -0.6913
61751SOL    HW191858   9.266   8.640   7.748 -1.0201  1.2595 -1.1755
61751SOL    HW291859   9.160   8.539   7.708  0.8498 -1.4176  0.3092
61752SOL     OW91860  10.468   9.202  12.047 -0.1719 -0.2690  0.3383
61752SOL    HW191861  10.482   9.123  11.996  1.4541  0.5355 -0.5647
61752SOL    HW291862  10.504   9.182  12.133  0.9766 -0.2836 -0.1262
61753SOL     OW91863   8.036   2.725   2.557  0.1160  0.2604 -0.5187
61753SOL    HW191864   8.113   2.708   2.611 -1.5038 -0.3170  1.7393
61753SOL    HW291865   8.005   2.811   2.587 -1.1166 -0.3154 -0.0956
61754SOL     OW91866   5.293   8.911   5.896  0.0917  0.1980  0.5670
61754SOL    HW191867   5.255   8.931   5.982  1.0925 -0.5360  1.2107
61754SOL    HW291868   5.304   8.996   5.854 -1.0192  0.5141  0.8950
61755SOL     OW91869  10.966   8.372   3.219 -0.0067 -0.2613 -0.8018
61755SOL    HW191870  10.953   8.306   3.151  1.0923 -1.1902 -0.1602
61755SOL    HW291871  10.884   8.421   3.222 -0.2211 -0.4601 -2.4984
61756SOL     OW91872   1.669   6.548   1.326 -0.3732  0.8075 -0.0528
61756SOL    HW191873   1.633   6.561   1.238 -1.2346  1.7589  0.4111
61756SOL    HW291874   1.653   6.456   1.345  0.1823  0.4995 -1.0429
61757SOL     OW91875   0.121   0.441  12.413  0.3545 -0.1437 -0.5621
61757SOL    HW191876   0.046   0.458  12.469 -0.1123 -1.7490 -0.6297
61757SOL    HW291877   0.111   0.502  12.340  0.0295  0.7817  0.2341
61758SOL     OW91878  12.526   5.192   5.084 -0.0214 -0.1807  0.3799
61758SOL    HW191879  12.480   5.144   5.016 -2.1304  0.1095  1.4874
61758SOL    HW291880  12.543   5.127   5.153  0.1796 -0.0433  0.4621
61759SOL     OW91881   4.647   0.672   3.900 -0.4476  0.8679 -0.3438
61759SOL    HW191882   4.611   0.723   3.973 -0.7190  0.3631 -0.1232
61759SOL    HW291883   4.712   0.615   3.941  0.0186  1.1931 -0.6240
61760SOL     OW91884   1.833   7.815   4.203 -0.1636  0.8429 -0.3652
61760SOL    HW191885   1.777   7.890   4.185 -2.2757 -0.2532  1.1854
61760SOL    HW291886   1.848   7.818   4.298 -1.6514 -1.4745  0.0340
61761SOL     OW91887  12.152   3.945   3.764 -0.3261  0.4409 -0.3378
61761SOL    HW191888  12.096   3.877   3.726 -1.6507  1.3007  0.0180
61761SOL    HW291889  12.099   4.025   3.759  0.9293  1.3013 -0.0899
61762SOL     OW91890   4.222   5.799   9.009  0.5159  0.4030  0.3853
61762SOL    HW191891   4.301   5.757   9.045 -0.1909  0.1877  1.7478
61762SOL    HW291892   4.151   5.738   9.027  0.2999 -0.5612 -3.0110
61763SOL     OW91893   3.858   3.714   7.073 -0.8026 -0.7446 -0.1483
61763SOL    HW191894   3.858   3.808   7.090  1.6621 -0.4266 -1.4419
61763SOL    HW291895   3.809   3.704   6.991 -1.7949 -0.7163  0.4307
61764SOL     OW91896   1.344   4.887   1.533  0.1391  0.1434 -0.0796
61764SOL    HW191897   1.362   4.951   1.602 -0.8444  0.5968 -0.2334
61764SOL    HW291898   1.299   4.938   1.465 -1.3553 -0.8623  0.1252
61765SOL     OW91899   2.851   5.678   4.448  0.5414  0.0503 -0.3446
61765SOL    HW191900   2.798   5.740   4.499  1.7194  1.6691 -0.9917
61765SOL    HW291901   2.827   5.592   4.482 -0.1539  0.9425  1.5565
61766SOL     OW91902   3.188   0.418   8.477  0.6592 -0.7264 -0.0245
61766SOL    HW191903   3.270   0.410   8.430  1.0657  1.0638  0.2992
61766SOL    HW291904   3.122   0.434   8.408  0.2699 -3.6191 -0.4217
61767SOL     OW91905  11.124   6.169   1.202  0.0245  0.0084  0.1110
61767SOL    HW191906  11.153   6.145   1.289  0.7752 -1.4413 -0.4987
61767SOL    HW291907  11.193   6.138   1.144 -1.9004 -2.0732 -1.2596
61768SOL     OW91908   8.460   6.439   3.151  0.1739 -0.0893  0.2469
61768SOL    HW191909   8.462   6.344   3.139 -0.9361  0.1078 -2.0030
61768SOL    HW291910   8.390   6.454   3.214  1.7251 -0.8080  2.2807
61769SOL     OW91911  12.091   6.709   8.211  0.3656  0.7453 -0.3288
61769SOL    HW191912  12.097   6.634   8.152 -0.3423  0.3126  0.1370
61769SOL    HW291913  12.016   6.759   8.180 -0.3056  0.2646  0.4685
61770SOL     OW91914   1.258   1.173  10.470 -0.1152  0.2732 -0.1205
61770SOL    HW191915   1.186   1.228  10.439  1.1719  0.4810 -3.0827
61770SOL    HW291916   1.215   1.102  10.519 -2.3275  0.5409 -1.5303
61771SOL     OW91917   3.073  11.246  10.596 -0.1784 -0.1048 -0.3787
61771SOL    HW191918   3.135  11.319  10.597 -1.6263  1.1919 -0.8465
61771SOL    HW291919   3.002  11.273  10.655 -0.7921 -1.0871 -0.6378
61772SOL     OW91920   7.262   0.536   0.154 -0.2348 -0.1483  0.7149
61772SOL    HW191921   7.258   0.458   0.097 -2.0559 -1.3823  2.4077
61772SOL    HW291922   7.183   0.585   0.132  1.0357  1.4550 -0.5309
61773SOL     OW91923   4.665  11.231   5.683 -0.1069  0.1935 -0.5762
61773SOL    HW191924   4.653  11.268   5.770  3.7863 -0.6757  0.5073
61773SOL    HW291925   4.669  11.137   5.698  0.7129  0.0422 -1.6662
61774SOL     OW91926   4.157   3.008   9.888  0.2978 -0.4762  0.0475
61774SOL    HW191927   4.070   3.038   9.917  1.0130  0.6676  1.0870
61774SOL    HW291928   4.201   2.983   9.968  1.0654 -0.7030 -0.4418
61775SOL     OW91929  11.310   9.052   5.385  0.2309 -0.1839 -0.2514
61775SOL    HW191930  11.223   9.092   5.381 -0.3297 -0.9349  2.4409
61775SOL    HW291931  11.357   9.088   5.310 -1.7415  1.8168 -0.6129
61776SOL     OW91932   6.552   2.216   6.630 -0.5969 -0.1067  0.4183
61776SOL    HW191933   6.579   2.258   6.712 -0.7951  0.4358  0.2109
61776SOL    HW291934   6.520   2.130   6.657  2.2930 -1.2338  0.5541
61777SOL     OW91935   1.946   9.026   0.820  0.0036  0.1306  0.1713
61777SOL    HW191936   2.021   9.005   0.764 -0.6297 -1.2854 -0.1887
61777SOL    HW291937   1.985   9.063   0.900  0.9406  1.7097 -0.9604
61778SOL     OW91938   6.902   5.512   4.571 -0.1911  0.1361 -0.0539
61778SOL    HW191939   6.946   5.515   4.656 -1.5096  0.2911  0.6451
61778SOL    HW291940   6.969   5.480   4.510  0.5027 -0.8976  1.2159
61779SOL     OW91941  10.898   3.464   1.898 -0.6951 -0.0340 -0.8028
61779SOL    HW191942  10.896   3.372   1.872  2.2385 -0.8598  1.3706
61779SOL    HW291943  10.882   3.512   1.817 -0.2465 -2.4260 -2.4223
61780SOL     OW91944   5.505  10.289   0.576 -0.3854 -0.2339  0.3211
61780SOL    HW191945   5.491  10.203   0.616  0.2233 -1.2641 -1.5917
61780SOL    HW291946   5.598  10.307   0.590  0.1541 -1.2183 -1.6969
61781SOL     OW91947   6.338  12.166  11.709 -0.1194  0.4091 -0.2586
61781SOL    HW191948   6.258  12.139  11.664  1.9807 -2.1137 -2.9242
61781SOL    HW291949   6.390  12.210  11.641  2.1301 -1.1352  0.3568
61782SOL     OW91950   1.284   6.671  11.271  0.4639 -0.1249  0.1383
61782SOL    HW191951   1.379   6.665  11.258  0.5375 -1.9009  1.2451
61782SOL    HW291952   1.274   6.719  11.354  0.4085 -0.3109  0.2398
61783SOL     OW91953   5.519   9.201   3.670  0.1931  0.0884 -0.2829
61783SOL    HW191954   5.560   9.119   3.700 -0.0971 -0.1577 -0.5486
61783SOL    HW291955   5.427   9.192   3.697 -0.2689 -0.4984 -1.9343
61784SOL     OW91956   6.536   5.199   8.005  0.1695 -0.4528  0.8855
61784SOL    HW191957   6.490   5.142   7.944  1.9668 -0.7833 -0.2272
61784SOL    HW291958   6.474   5.268   8.026 -0.0905  0.4243 -2.3825
61785SOL     OW91959   5.175  10.991   6.616  0.0485  0.1651  0.9256
61785SOL    HW191960   5.231  11.009   6.691 -0.7852  0.2029  1.5497
61785SOL    HW291961   5.235  10.992   6.541  0.5930  2.1475  1.3264
61786SOL     OW91962   4.048   7.763  11.034  0.8993 -0.7952  0.1583
61786SOL    HW191963   4.128   7.748  11.085  1.7316  0.0641 -0.8363
61786SOL    HW291964   4.080   7.797  10.950 -0.5081 -0.6760 -0.3446
61787SOL     OW91965   5.696   1.393  10.403 -0.0257  0.0245  0.0234
61787SOL    HW191966   5.730   1.362  10.319  1.6831 -0.7725  0.9615
61787SOL    HW291967   5.658   1.479  10.383 -0.1485 -0.3760 -1.6470
61788SOL     OW91968   6.824   5.561   1.507 -0.5422  0.8600 -0.6435
61788SOL    HW191969   6.843   5.503   1.434 -0.7097  1.5691 -1.2669
61788SOL    HW291970   6.909   5.577   1.548 -0.1935  1.6941 -1.6409
61789SOL     OW91971  12.746   5.147   0.463  0.4970  0.0458 -0.1364
61789SOL    HW191972  12.785   5.082   0.404 -0.9458 -1.4726  0.4783
61789SOL    HW291973  12.655   5.119   0.472 -0.1897  2.2119  0.1580
61790SOL     OW91974  12.102   6.432   8.915  0.0534 -0.4883 -0.3814
61790SOL    HW191975  12.082   6.518   8.951  0.0371 -0.3165 -0.7891
61790SOL    HW291976  12.187   6.409   8.952 -0.2485 -0.5913  0.2466
61791SOL     OW91977   0.753   5.516   8.131  0.5927  0.1422  0.9995
61791SOL    HW191978   0.760   5.581   8.201  2.2301 -0.4439  1.4449
61791SOL    HW291979   0.843   5.487   8.117  0.1237 -0.6911 -0.4727
61792SOL     OW91980   3.780   8.377  12.592 -0.1126  0.2248 -0.3252
61792SOL    HW191981   3.721   8.339  12.657 -0.1088  1.6937  0.5991
61792SOL    HW291982   3.797   8.306  12.530 -0.2744 -1.1807  1.1726
61793SOL     OW91983  10.986   2.353   7.925  0.2648 -0.2492  0.4296
61793SOL    HW191984  11.057   2.387   7.869  0.4088  0.1587  0.8544
61793SOL    HW291985  10.997   2.399   8.008 -1.0493  0.5101  0.2204
61794SOL     OW91986  12.667  11.188  11.889 -0.5213  0.3004  0.1312
61794SOL    HW191987  12.693  11.266  11.940 -1.8329  1.7054 -1.2366
61794SOL    HW291988  12.737  11.177  11.825  0.6160 -0.8446  1.5101
61795SOL     OW91989   1.567  12.712   4.897 -0.0593 -0.0217 -0.2624
61795SOL    HW191990   1.568  12.787   4.837 -0.5789 -0.6649 -1.0958
61795SOL    HW291991   1.482  12.717   4.940  0.4521  0.6402  0.7025
61796SOL     OW91992  10.441   7.139  12.485 -0.4482  0.7357 -0.4765
61796SOL    HW191993  10.517   7.184  12.521  0.6653 -1.3932  0.0281
61796SOL    HW291994  10.426   7.181  12.401 -0.5069  3.0527  0.6144
61797SOL     OW91995   5.120   2.953   7.354  0.2886 -0.0415  0.4391
61797SOL    HW191996   5.028   2.978   7.349  0.5766  0.9800 -0.2038
61797SOL    HW291997   5.167   3.030   7.320  1.3070 -0.9794 -0.3403
61798SOL     OW91998   6.793   5.841   9.534 -0.4949 -0.0746 -0.6797
61798SOL    HW191999   6.722   5.785   9.501 -0.8773  0.8222 -1.4366
61798SOL    HW292000   6.771   5.857   9.625 -1.3741  0.3420 -0.9560
61799SOL     OW92001   9.887   9.926   4.015 -0.6161 -0.3466  0.6388
61799SOL    HW192002   9.965   9.891   3.971  0.3457 -1.0617  2.7755
61799SOL    HW292003   9.901  10.021   4.014  0.1034 -0.4403  0.6641
61800SOL     OW92004   7.654  10.748   7.288 -0.0161 -0.2030 -0.0547
61800SOL    HW192005   7.610  10.667   7.315 -0.5317  0.2663  0.5390
61800SOL    HW292006   7.698  10.725   7.206  0.5726 -1.3392  0.5389
61801SOL     OW92007   3.351   4.194  12.034  0.1951 -0.1291 -0.2334
61801SOL    HW192008   3.310   4.272  11.997 -0.2310  0.6302  1.7092
61801SOL    HW292009   3.351   4.209  12.128  2.8924 -1.1376  0.0201
61802SOL     OW92010   9.464   2.369  11.058 -0.3636 -0.2643 -0.0444
61802SOL    HW192011   9.426   2.453  11.034 -0.8314 -0.3043  0.5196
61802SOL    HW292012   9.552   2.390  11.091 -0.2282 -0.0739 -0.5211
61803SOL     OW92013  11.474   9.780   6.007 -0.3740 -0.1032 -0.0588
61803SOL    HW192014  11.545   9.785   5.943 -1.2782 -0.1662 -1.0903
61803SOL    HW292015  11.498   9.843   6.074  1.1318 -0.8241  0.1020
61804SOL     OW92016   7.235  12.062   3.756 -0.0469  0.6625  0.0624
61804SOL    HW192017   7.179  12.018   3.820 -0.0011  1.4731  0.6775
61804SOL    HW292018   7.235  12.004   3.680  1.1012 -1.0875  1.3135
61805SOL     OW92019   6.549   7.793   8.616 -0.6509 -0.5198 -0.5551
61805SOL    HW192020   6.614   7.846   8.570  0.9538 -0.7586  1.3298
61805SOL    HW292021   6.565   7.704   8.587  0.2932 -0.6557  0.3219
61806SOL     OW92022   2.119  10.486   8.678 -0.6566 -0.3669 -0.5020
61806SOL    HW192023   2.164  10.570   8.673 -1.0356 -0.1640 -0.5561
61806SOL    HW292024   2.130  10.448   8.591 -0.5587 -0.3350 -0.5036
61807SOL     OW92025   0.075   2.211   0.082  0.1428 -0.7938  0.3963
61807SOL    HW192026   0.043   2.269   0.151  1.6848 -1.1324  1.4555
61807SOL    HW292027  -0.004   2.179   0.038 -0.8019  0.6991  0.9356
61808SOL     OW92028   6.865   6.345   2.636  0.2212  0.1121  0.0504
61808SOL    HW192029   6.938   6.404   2.652  0.7444 -0.4439 -0.1973
61808SOL    HW292030   6.869   6.282   2.707  0.9192 -0.7959 -0.7559
61809SOL     OW92031  10.376   4.845  10.055  0.6363  0.6401  0.5610
61809SOL    HW192032  10.368   4.757  10.092  0.1357  0.6822  0.5597
61809SOL    HW292033  10.297   4.891  10.084  0.4079  0.7846 -0.2566
61810SOL     OW92034  11.246  11.969   0.986  0.1007 -0.0660 -0.0353
61810SOL    HW192035  11.313  11.952   0.920 -2.5656 -0.6739 -2.8117
61810SOL    HW292036  11.243  12.064   0.994  1.6052 -0.0353  0.5787
61811SOL     OW92037   7.681  12.720  10.589  0.0392  0.3821 -0.1830
61811SOL    HW192038   7.658  12.746  10.678  0.4380 -1.1556  0.4068
61811SOL    HW292039   7.766  12.677  10.598 -0.2473 -0.4241 -1.1885
61812SOL     OW92040   7.042   5.269   9.874  0.7176 -0.8192 -0.0720
61812SOL    HW192041   6.963   5.277   9.928  0.5682 -2.6032  0.0307
61812SOL    HW292042   7.094   5.347   9.897 -0.4852 -0.2078  0.7114
61813SOL     OW92043   3.476  11.127   5.821  0.5673  0.0314 -0.0083
61813SOL    HW192044   3.395  11.082   5.799 -0.2861  1.2872  0.4865
61813SOL    HW292045   3.534  11.111   5.746  0.1541 -1.5178 -0.0171
61814SOL     OW92046   2.085  12.011   8.724 -0.5231 -0.5345  0.2773
61814SOL    HW192047   2.051  12.044   8.641  0.8270 -2.6029 -1.1639
61814SOL    HW292048   2.180  12.011   8.714 -0.3728 -1.9472  1.3573
61815SOL     OW92049  11.125  10.141   2.626  0.2949  0.3699  0.3726
61815SOL    HW192050  11.098  10.231   2.606  1.4626  0.5970 -0.2476
61815SOL    HW292051  11.194  10.122   2.563  0.9801 -0.4931  1.3598
61816SOL     OW92052   3.780   7.079  11.099 -0.1764 -0.2604  0.1286
61816SOL    HW192053   3.816   7.078  11.011 -0.4353  0.5224  0.0054
61816SOL    HW292054   3.738   7.164  11.107  1.8915  0.6936  1.8310
61817SOL     OW92055   4.742   8.752   1.035 -0.7623  0.1359 -0.1590
61817SOL    HW192056   4.834   8.778   1.042 -0.4658 -0.3931 -1.5598
61817SOL    HW292057   4.723   8.708   1.118  1.0013 -1.8895 -0.7238
61818SOL     OW92058   1.755   9.305  10.518 -0.5134 -0.4929 -0.3554
61818SOL    HW192059   1.726   9.389  10.481 -0.1394 -0.1396  0.1391
61818SOL    HW292060   1.836   9.285  10.471 -1.2376 -1.2073 -1.3457
61819SOL     OW92061   2.854   2.868  11.468 -0.1460  0.5233  0.1210
61819SOL    HW192062   2.945   2.838  11.464  0.0376  0.9032  1.0507
61819SOL    HW292063   2.860   2.963  11.462 -0.3687  0.6352  1.3908
61820SOL     OW92064   9.209   5.275   5.888 -0.0495 -0.8890 -0.2790
61820SOL    HW192065   9.295   5.298   5.853  0.7749 -1.0064  1.5737
61820SOL    HW292066   9.191   5.188   5.851  0.4919 -0.7397 -0.9061
61821SOL     OW92067  11.099   1.789   7.180  0.4101 -0.2474 -0.1765
61821SOL    HW192068  11.101   1.700   7.145 -1.0881 -0.6087  0.5701
61821SOL    HW292069  11.187   1.802   7.216  1.1017 -0.8738 -1.5758
61822SOL     OW92070   8.494   8.296   1.243  0.4034 -0.0182 -0.1611
61822SOL    HW192071   8.466   8.234   1.311  2.9515  0.1294  1.1257
61822SOL    HW292072   8.585   8.317   1.265  0.7949  1.3369 -2.7045
61823SOL     OW92073   1.177  11.151   3.172  0.4034  0.4085 -0.2567
61823SOL    HW192074   1.267  11.123   3.188 -0.4682 -1.6469  1.6516
61823SOL    HW292075   1.125  11.071   3.182 -1.6981  1.6484 -0.6933
61824SOL     OW92076   3.293   2.799   1.879 -0.4488 -0.2526  0.5407
61824SOL    HW192077   3.236   2.820   1.805  2.9953  0.3124 -2.1588
61824SOL    HW292078   3.232   2.789   1.953 -3.8772  1.7058 -1.7264
61825SOL     OW92079   3.959   9.053   2.449  0.9148 -0.3648 -0.5590
61825SOL    HW192080   3.989   9.116   2.514 -2.9355 -0.1596  1.3209
61825SOL    HW292081   3.923   9.106   2.378  0.2759 -0.4768 -0.3245
61826SOL     OW92082   2.330   5.010   1.528 -0.3447  0.2626  0.2694
61826SOL    HW192083   2.301   4.934   1.478 -0.0123  0.2786  0.0465
61826SOL    HW292084   2.410   5.039   1.484 -0.0350  0.2662  0.8197
61827SOL     OW92085  12.066   7.550  12.596  0.1278  0.4148  0.4936
61827SOL    HW192086  11.980   7.588  12.613 -0.9452 -1.5915 -0.1674
61827SOL    HW292087  12.064   7.464  12.638  1.8076  0.3004  0.4360
61828SOL     OW92088  12.305   3.361  11.186 -0.4353  0.2067  0.0156
61828SOL    HW192089  12.234   3.297  11.178 -0.4133 -0.2594  2.5974
61828SOL    HW292090  12.263   3.446  11.172 -0.8707 -0.2265 -1.4270
61829SOL     OW92091  11.136   4.602  10.032 -0.3514  0.6959 -0.4282
61829SOL    HW192092  11.185   4.594   9.949 -0.8940 -0.4821 -0.6564
61829SOL    HW292093  11.044   4.597  10.006 -0.5230 -2.1564  0.4168
61830SOL     OW92094  11.374   4.766   1.661  0.2050  1.0858 -0.2263
61830SOL    HW192095  11.422   4.819   1.598 -0.8240  1.0958 -1.0185
61830SOL    HW292096  11.415   4.679   1.655 -0.2817  0.9213 -1.3703
61831SOL     OW92097   8.371   9.209  12.695 -0.0517 -0.5583 -0.2135
61831SOL    HW192098   8.453   9.256  12.685  0.4623 -1.4634 -0.3447
61831SOL    HW292099   8.371   9.181  12.787 -0.8432  0.5624  0.1516
61832SOL     OW92100   8.681   5.636   9.923 -0.0118 -0.3570  0.1254
61832SOL    HW192101   8.588   5.659   9.925 -0.2804 -1.4854  1.6888
61832SOL    HW292102   8.697   5.610   9.832 -0.2648  3.3690 -1.1729
61833SOL     OW92103   6.460  10.813   3.662 -0.3227  0.0323  0.2400
61833SOL    HW192104   6.392  10.759   3.704 -0.4191  0.4684  0.6461
61833SOL    HW292105   6.412  10.867   3.599 -0.2012 -0.4846 -0.3061
61834SOL     OW92106   5.473   9.770   7.360 -0.3993  0.6713 -0.5772
61834SOL    HW192107   5.508   9.806   7.441 -0.9306 -0.1917  0.0557
61834SOL    HW292108   5.391   9.728   7.386 -0.6265  0.4613 -1.5806
61835SOL     OW92109   9.643  10.589   0.687 -0.2720 -0.5829  0.3725
61835SOL    HW192110   9.591  10.511   0.705 -1.6665  0.6155  1.9463
61835SOL    HW292111   9.733  10.565   0.707 -0.2721 -2.4705 -1.5701
61836SOL     OW92112   5.369  10.903   3.032  0.0045  0.4903 -0.1332
61836SOL    HW192113   5.331  10.991   3.025  0.2031  0.5592 -0.3504
61836SOL    HW292114   5.389  10.892   3.125 -1.3546  0.1146  0.1395
61837SOL     OW92115   3.272  10.845   1.531 -0.3310 -0.2091 -0.0118
61837SOL    HW192116   3.284  10.907   1.603 -0.2171  1.2115 -1.1852
61837SOL    HW292117   3.226  10.771   1.569 -0.0168  0.3751  1.5692
61838SOL     OW92118   1.681   2.176   8.717  0.1977  0.1445 -0.0552
61838SOL    HW192119   1.765   2.222   8.713  0.0002  0.5526  0.3583
61838SOL    HW292120   1.673   2.133   8.632  1.2556 -0.6653  0.2443
61839SOL     OW92121   4.742   8.516  10.935 -0.3957 -0.3441  0.1246
61839SOL    HW192122   4.734   8.427  10.971 -2.0094 -0.3654 -0.2329
61839SOL    HW292123   4.670   8.524  10.873 -1.0715  1.6552  1.0812
61840SOL     OW92124   5.008   1.680   7.517  0.1604  0.0072 -0.3969
61840SOL    HW192125   4.998   1.771   7.490 -1.7440  0.1977  0.7913
61840SOL    HW292126   5.020   1.685   7.612  0.5424 -0.9655 -0.3851
61841SOL     OW92127  10.829   2.986   3.523 -0.2597 -0.1232 -0.4890
61841SOL    HW192128  10.850   2.924   3.453 -0.7081  0.3636 -1.0683
61841SOL    HW292129  10.804   3.066   3.477  1.1356  0.7856  0.2277
61842SOL     OW92130   6.032   4.415  12.479  0.2426 -0.1604 -0.4274
61842SOL    HW192131   6.117   4.432  12.440  0.9858 -0.3461  1.0207
61842SOL    HW292132   6.049   4.349  12.546 -1.5873 -2.5336 -2.1206
61843SOL     OW92133   7.465   2.008   9.384  0.3005  0.4024  0.5371
61843SOL    HW192134   7.481   2.096   9.418  3.1080  0.2389 -0.0966
61843SOL    HW292135   7.430   2.023   9.296  0.9676  0.9175  0.3464
61844SOL     OW92136   3.944   0.322   4.237 -0.0175  0.2748 -0.8296
61844SOL    HW192137   3.852   0.307   4.213 -0.0954 -1.3679  0.3545
61844SOL    HW292138   3.943   0.404   4.287 -0.9699 -0.1542 -0.1233
61845SOL     OW92139   3.736   4.919  10.525  0.1083 -0.3499  0.3665
61845SOL    HW192140   3.768   4.875  10.447  0.5791 -1.3106  1.0669
61845SOL    HW292141   3.809   4.914  10.587  0.0452  1.1302  0.5977
61846SOL     OW92142   4.040  11.423   1.341  0.6133 -0.9587  0.1627
61846SOL    HW192143   4.053  11.344   1.289  1.0165 -1.1884  0.6031
61846SOL    HW292144   4.052  11.395   1.432 -1.3926 -0.8481  0.5109
61847SOL     OW92145   2.876  10.118   1.573  0.4271  0.3326  0.0462
61847SOL    HW192146   2.932  10.074   1.509  1.7989 -0.3654  1.6491
61847SOL    HW292147   2.936  10.151   1.639 -0.7865  2.6069  0.1305
61848SOL     OW92148   7.376   1.242  11.440 -0.1198  0.0613  0.0066
61848SOL    HW192149   7.370   1.327  11.484 -0.9349  0.2603 -0.4721
61848SOL    HW292150   7.285   1.218  11.422 -0.1117 -2.0555  2.2636
61849SOL     OW92151   8.674   1.222   1.122  0.1827 -0.4831  0.4395
61849SOL    HW192152   8.765   1.228   1.091  0.0835  0.5359  0.3104
61849SOL    HW292153   8.631   1.166   1.057  0.0864  1.2654 -1.1142
61850SOL     OW92154   7.555   8.194   2.503 -0.2998  0.1863 -0.0707
61850SOL    HW192155   7.618   8.265   2.509  2.1939 -1.4803 -3.4036
61850SOL    HW292156   7.476   8.234   2.466  0.9034  1.3636 -1.4649
61851SOL     OW92157   1.231  10.976   5.923  0.2562 -0.3429 -0.2594
61851SOL    HW192158   1.319  11.014   5.923  0.0168  0.2610  0.7573
61851SOL    HW292159   1.188  11.013   5.846  0.0843  1.3904  0.6068
61852SOL     OW92160   6.470   0.950   3.624  0.1602  0.6703  0.3422
61852SOL    HW192161   6.375   0.961   3.631  0.1994  0.2827  1.9874
61852SOL    HW292162   6.481   0.864   3.583 -0.2153  0.5840  0.4194
61853SOL     OW92163   2.733   2.898   7.253 -0.5675 -0.3345  0.1390
61853SOL    HW192164   2.801   2.892   7.186 -0.8424  0.1430 -0.1908
61853SOL    HW292165   2.780   2.900   7.336 -0.2143 -0.6897 -0.0482
61854SOL     OW92166   7.772  12.072   5.859  0.2902  0.8347 -0.4547
61854SOL    HW192167   7.703  12.109   5.913 -0.3367 -1.0090  0.0455
61854SOL    HW292168   7.737  11.989   5.827  3.0900 -1.3998  1.7783
61855SOL     OW92169   8.633   5.594  12.759  0.4877 -0.1609 -0.2090
61855SOL    HW192170   8.728   5.595  12.749  0.5766 -0.4712  0.5409
61855SOL    HW292171   8.618   5.542  12.838 -0.2238  1.3278  0.6736
61856SOL     OW92172  11.705   1.116   9.678 -0.0279 -0.0183  0.2865
61856SOL    HW192173  11.740   1.029   9.699  1.2375  0.3942 -0.0344
61856SOL    HW292174  11.667   1.106   9.591 -2.6883 -1.0024  1.4772
61857SOL     OW92175   5.779  11.886   3.844 -0.3998  0.6834  0.0290
61857SOL    HW192176   5.858  11.833   3.830 -1.3634 -0.7771 -0.1796
61857SOL    HW292177   5.810  11.965   3.889  0.9260 -0.8391  1.9896
61858SOL     OW92178   3.695   0.896  11.579 -0.8274 -0.4352  0.0976
61858SOL    HW192179   3.610   0.851  11.578 -1.0976  0.0445  0.8270
61858SOL    HW292180   3.738   0.864  11.658 -1.0686  0.6475  0.6922
61859SOL     OW92181   1.318   0.444   2.219 -0.3609 -0.2645  0.0833
61859SOL    HW192182   1.365   0.406   2.145  2.9106  3.2303  0.0609
61859SOL    HW292183   1.370   0.418   2.296  0.0392  1.2800  0.3764
61860SOL     OW92184  11.313  12.146  11.795 -0.3630 -1.0368 -0.0423
61860SOL    HW192185  11.385  12.104  11.749  1.2873  1.4704  0.0369
61860SOL    HW292186  11.338  12.141  11.888 -0.1081  0.0545 -0.0334
61861SOL     OW92187   6.391   0.876   9.847 -0.1572  0.1049  0.7600
61861SOL    HW192188   6.357   0.824   9.920  0.8232 -0.6918  0.6748
61861SOL    HW292189   6.449   0.816   9.801 -3.4184 -0.7027 -2.8735
61862SOL     OW92190   1.802   5.278  12.286  0.0330  0.0686  0.3664
61862SOL    HW192191   1.859   5.230  12.347 -1.2376  0.1479  1.6749
61862SOL    HW292192   1.813   5.370  12.312  0.9690  0.3241 -0.8433
61863SOL     OW92193   4.719  12.705   5.955 -1.1038 -0.0846 -0.0399
61863SOL    HW192194   4.700  12.612   5.940 -3.1900  0.5104 -1.5350
61863SOL    HW292195   4.782  12.728   5.888 -0.0568 -0.5287  0.7549
61864SOL     OW92196   4.357   9.275   0.803  0.6053 -0.5936  0.1414
61864SOL    HW192197   4.270   9.313   0.807  0.9768  0.1694  2.1053
61864SOL    HW292198   4.351   9.207   0.736 -1.3391 -0.1917 -0.1296
61865SOL     OW92199   4.561   7.467   2.072  0.1673 -0.4118  0.0381
61865SOL    HW192200   4.567   7.562   2.057 -0.7418 -0.2901  0.3647
61865SOL    HW292201   4.579   7.457   2.166  0.2850 -0.5662 -0.0007
61866SOL     OW92202   7.389   1.897   3.590  0.3715 -0.3126  0.2701
61866SOL    HW192203   7.367   1.820   3.538  0.3041 -0.2557  0.2141
61866SOL    HW292204   7.372   1.870   3.680 -0.2282 -0.1746  0.2073
61867SOL     OW92205   9.496   4.371   7.582 -0.7021  0.1426  0.4703
61867SOL    HW192206   9.498   4.290   7.632 -0.7892 -0.0403  0.1829
61867SOL    HW292207   9.586   4.404   7.584 -0.4267 -0.5185 -0.3059
61868SOL     OW92208   1.989  10.982   1.500 -0.1070 -0.9622  0.0459
61868SOL    HW192209   2.072  11.011   1.537 -0.7314 -0.6306  1.2274
61868SOL    HW292210   2.012  10.911   1.440  0.9862 -1.1311  0.6549
61869SOL     OW92211   3.713   3.811   3.620  0.0305  0.1519 -0.0034
61869SOL    HW192212   3.623   3.816   3.590  0.1351 -2.3195 -1.0058
61869SOL    HW292213   3.762   3.869   3.560 -0.7394  0.7618 -0.0557
61870SOL     OW92214   1.031   5.600   3.955 -0.2945 -0.4596  0.5198
61870SOL    HW192215   0.945   5.641   3.963  0.4997  1.1464  1.3340
61870SOL    HW292216   1.044   5.591   3.860  0.1419  2.7867  0.1576
61871SOL     OW92217   7.992   4.574  10.072 -0.5664  0.5218  0.0040
61871SOL    HW192218   7.915   4.621  10.040 -1.0812 -0.1627  0.1933
61871SOL    HW292219   8.061   4.639  10.075 -0.9506  0.9848 -0.8817
61872SOL     OW92220   4.144   0.318  12.378  0.0289  0.2576 -0.6647
61872SOL    HW192221   4.114   0.227  12.382 -0.2666  0.3701 -0.1891
61872SOL    HW292222   4.160   0.342  12.470  2.2737 -0.0178 -0.9187
61873SOL     OW92223  10.215  12.489   5.085 -0.4289 -0.1179  0.0562
61873SOL    HW192224  10.194  12.396   5.091 -0.8719 -0.1211 -1.3201
61873SOL    HW292225  10.240  12.503   4.994  0.0822  1.0310  0.3488
61874SOL     OW92226   2.731   3.375   0.070 -0.5487 -0.3871 -0.5592
61874SOL    HW192227   2.754   3.292   0.110 -0.5326  0.7731  2.0955
61874SOL    HW292228   2.643   3.361   0.035 -0.6931 -1.4444  0.1606
61875SOL     OW92229   6.089   7.102  12.750  0.5293  0.3277 -0.6782
61875SOL    HW192230   6.024   7.167  12.721 -0.7449 -0.5593  0.0528
61875SOL    HW292231   6.172   7.149  12.750 -0.1490  1.5846 -1.4146
61876SOL     OW92232  10.796   4.156   0.065  0.0720 -0.3639  0.3065
61876SOL    HW192233  10.853   4.234   0.068  1.2617 -1.0083 -2.4970
61876SOL    HW292234  10.710   4.189   0.090  0.7468  1.6428  0.1965
61877SOL     OW92235   8.778   1.754   5.937  0.6428 -0.2597  0.1452
61877SOL    HW192236   8.719   1.808   5.885  1.1088  1.7042  1.5182
61877SOL    HW292237   8.727   1.676   5.959 -0.2908 -0.1028 -1.3643
61878SOL     OW92238   3.776   4.902  12.640 -0.0371 -0.6530  0.1056
61878SOL    HW192239   3.829   4.850  12.579  2.7863  1.1365  0.8556
61878SOL    HW292240   3.783   4.992  12.607 -0.4473  0.0025  1.7186
61879SOL     OW92241   3.248   7.816   0.536  0.1869  0.0542 -0.0523
61879SOL    HW192242   3.211   7.889   0.487 -1.4351 -0.4092  0.4112
61879SOL    HW292243   3.204   7.738   0.502 -0.9024 -0.2980  1.9503
61880SOL     OW92244   8.700   9.954   3.214  0.2330 -0.3449 -0.1863
61880SOL    HW192245   8.771   9.948   3.150 -1.7635 -3.1951 -2.3972
61880SOL    HW292246   8.719   9.886   3.278  0.4466  0.2129  0.3596
61881SOL     OW92247   2.561   9.000   5.636 -0.5440 -0.0883  0.1144
61881SOL    HW192248   2.597   9.071   5.583  0.0247 -0.7273 -0.3647
61881SOL    HW292249   2.506   8.951   5.576  0.8095 -1.3446 -0.1454
61882SOL     OW92250  11.210   6.568   4.022 -0.5378 -0.0460 -0.6711
61882SOL    HW192251  11.299   6.598   4.038 -0.2766 -0.8691 -0.5396
61882SOL    HW292252  11.193   6.592   3.931  0.1626 -0.7112 -0.9918
61883SOL     OW92253  12.523   8.167   4.488  0.0872 -0.6938 -0.1772
61883SOL    HW192254  12.470   8.110   4.432 -1.0672  0.6532 -0.5272
61883SOL    HW292255  12.588   8.109   4.528 -0.4673 -2.0695 -1.2082
61884SOL     OW92256   3.918   8.999   4.793  0.6031  0.2581 -0.0785
61884SOL    HW192257   3.899   9.093   4.791  1.4929  0.4452 -0.3393
61884SOL    HW292258   3.973   8.987   4.870  0.4768 -0.0533 -0.0352
61885SOL     OW92259  11.606   4.682   7.112 -0.1129  0.1571 -0.3441
61885SOL    HW192260  11.567   4.627   7.044  0.4227 -0.7939  0.0860
61885SOL    HW292261  11.562   4.766   7.104  0.0378  0.1158 -1.9639
61886SOL     OW92262   9.664  12.583   8.808  0.0845 -0.2363  0.3040
61886SOL    HW192263   9.703  12.665   8.776 -1.6597 -0.1002 -1.7112
61886SOL    HW292264   9.703  12.516   8.752  1.0782 -0.7527  1.5760
61887SOL     OW92265  11.376   8.781   4.329 -0.1592 -0.2928 -0.1156
61887SOL    HW192266  11.436   8.733   4.386 -1.5134 -0.3953  1.2974
61887SOL    HW292267  11.430   8.848   4.287  1.2055 -1.3091 -0.0130
61888SOL     OW92268  11.532  10.904   3.115 -0.7572  0.8893  0.3600
61888SOL    HW192269  11.627  10.898   3.104 -0.9961  0.5097 -2.0248
61888SOL    HW292270  11.519  10.915   3.209  1.5497 -0.8921  0.9628
61889SOL     OW92271  11.222  12.159  12.758 -0.3894 -0.1856  0.6961
61889SOL    HW192272  11.166  12.102  12.704 -1.5352  0.7659  0.8285
61889SOL    HW292273  11.161  12.223  12.796  0.6096  0.0602  1.9510
61890SOL     OW92274   7.367   9.136   4.879 -0.5106  0.2393 -0.4434
61890SOL    HW192275   7.447   9.133   4.826  0.0783 -0.1080  0.4413
61890SOL    HW292276   7.320   9.212   4.846  0.9867  1.4698  0.1302
61891SOL     OW92277   5.714   3.988   1.134  0.0414 -0.1422  0.1728
61891SOL    HW192278   5.690   4.077   1.159  1.1384 -0.3764  2.3151
61891SOL    HW292279   5.808   3.992   1.116  0.7326 -1.2873  2.9683
61892SOL     OW92280   7.764   0.619   9.853  0.4928 -0.1912  0.2954
61892SOL    HW192281   7.711   0.558   9.803  1.3809  0.0990 -1.0365
61892SOL    HW292282   7.830   0.564   9.896  0.8111 -0.2700 -0.2801
61893SOL     OW92283   8.726   5.210   9.478 -0.1259 -0.0435  0.0712
61893SOL    HW192284   8.720   5.122   9.441  0.0491  0.4532 -1.2173
61893SOL    HW292285   8.649   5.256   9.443 -0.4112  0.2265  1.0155
61894SOL     OW92286   5.392   9.333  12.646 -0.2954  0.3034 -0.2084
61894SOL    HW192287   5.331   9.347  12.718  1.1661 -0.1065  1.1757
61894SOL    HW292288   5.478   9.332  12.688  0.5806 -0.2488 -1.9318
61895SOL     OW92289   4.922  11.017   2.548  0.1631  0.0781 -0.5933
61895SOL    HW192290   4.940  11.091   2.490  1.0547  0.8270  0.5873
61895SOL    HW292291   4.839  11.039   2.590  1.2712  1.3480  1.0835
61896SOL     OW92292  11.963  12.218   3.296 -0.2554  0.9400  0.1893
61896SOL    HW192293  11.953  12.238   3.389  0.7563 -1.8731  1.0126
61896SOL    HW292294  12.047  12.258   3.272 -0.0757  0.9087  0.7474
61897SOL     OW92295   8.944   9.655   7.350 -0.0128 -0.6919  0.5364
61897SOL    HW192296   8.932   9.730   7.292 -2.6425 -1.8761 -0.6612
61897SOL    HW292297   9.038   9.637   7.348  0.5464  1.8782  0.0431
61898SOL     OW92298   6.089   4.333   1.791 -0.6924 -0.5862  0.3472
61898SOL    HW192299   6.172   4.334   1.743 -0.3952  2.0436  0.7953
61898SOL    HW292300   6.114   4.335   1.883 -1.2392  0.4705  0.4860
61899SOL     OW92301   4.546   2.147   0.980  0.1897 -0.4462  0.2391
61899SOL    HW192302   4.507   2.101   0.906 -2.1110  2.0150 -0.2323
61899SOL    HW292303   4.482   2.137   1.051 -1.2611  3.1309 -0.3461
61900SOL     OW92304  11.554   6.582   4.933 -0.1835 -0.0745  0.5165
61900SOL    HW192305  11.557   6.566   4.839 -0.3316 -0.1551  0.5256
61900SOL    HW292306  11.544   6.677   4.941  0.9754  0.0609  0.4674
61901SOL     OW92307   3.992   4.324   9.060  0.6203 -0.5114 -0.6162
61901SOL    HW192308   3.963   4.407   9.097  1.7767  0.6634 -2.2404
61901SOL    HW292309   4.073   4.304   9.106  0.7030 -0.3939 -0.7122
61902SOL     OW92310   0.371   6.248   3.042  0.2408 -0.0932 -0.5667
61902SOL    HW192311   0.398   6.340   3.042 -2.8728  0.9667 -0.1065
61902SOL    HW292312   0.387   6.218   3.132  1.2655 -0.0368 -0.7180
61903SOL     OW92313   6.556   9.697  10.555 -0.4108 -0.0898 -0.2205
61903SOL    HW192314   6.525   9.609  10.534  0.4858 -0.0257 -1.9969
61903SOL    HW292315   6.616   9.685  10.629 -0.7698 -0.8733 -0.0518
61904SOL     OW92316  12.291   6.653   2.070  0.4673 -0.4665 -0.1929
61904SOL    HW192317  12.220   6.674   2.009 -0.8775 -0.3567  1.3386
61904SOL    HW292318  12.308   6.735   2.116  0.8541 -0.7515  0.1806
61905SOL     OW92319   0.190   3.964   7.219  0.0589 -0.4218 -0.0965
61905SOL    HW192320   0.160   3.887   7.169 -0.3822 -0.8515  0.8087
61905SOL    HW292321   0.127   3.971   7.291 -0.1518  1.0479 -0.4045
61906SOL     OW92322   3.255   9.445   0.644  0.0362 -0.2608 -0.5682
61906SOL    HW192323   3.166   9.477   0.628 -0.1773 -1.1018 -1.1345
61906SOL    HW292324   3.261   9.364   0.594  0.8611 -0.6405  0.1150
61907SOL     OW92325  10.640   7.214  10.943 -0.3772 -0.5889  0.5508
61907SOL    HW192326  10.631   7.309  10.941 -0.3796 -0.5255  2.1284
61907SOL    HW292327  10.649   7.189  10.852  4.0039  1.3420  0.1890
61908SOL     OW92328   1.525   8.182   6.129  0.6435 -0.1814  0.1352
61908SOL    HW192329   1.587   8.110   6.122  1.1795  0.3130 -0.3789
61908SOL    HW292330   1.468   8.171   6.053 -0.2461 -0.9390  0.8941
61909SOL     OW92331   3.182  11.667   0.832  1.0993  0.6328 -0.1843
61909SOL    HW192332   3.091  11.647   0.811  1.4406  0.6167 -1.8233
61909SOL    HW292333   3.180  11.701   0.921 -0.4095 -0.0456  0.0623
61910SOL     OW92334   1.974  12.671   9.260 -0.0998  0.5861  0.2421
61910SOL    HW192335   1.940  12.757   9.235 -3.3162 -0.2607  1.2090
61910SOL    HW292336   1.988  12.678   9.355  0.8486  0.4026  0.1212
61911SOL     OW92337   9.951  12.222   1.643 -0.2544 -0.4816 -0.1099
61911SOL    HW192338   9.972  12.307   1.605  1.9158 -0.7722  0.2963
61911SOL    HW292339  10.013  12.212   1.716  0.1091 -2.7007 -0.6206
61912SOL     OW92340   0.392   9.883   4.493 -0.5538 -0.1995  0.0313
61912SOL    HW192341   0.408   9.826   4.568  2.9285 -0.2863 -0.5738
61912SOL    HW292342   0.382   9.970   4.531 -0.1048 -0.4262  0.7020
61913SOL     OW92343   5.051   7.933   9.304 -0.0846 -0.1587 -0.2201
61913SOL    HW192344   5.058   7.992   9.229 -0.5372 -0.9570 -0.9178
61913SOL    HW292345   5.039   7.847   9.265 -0.5263 -0.5672  0.7805
61914SOL     OW92346  10.929   2.930  11.420  0.0604  0.4142  0.0972
61914SOL    HW192347  10.849   2.886  11.450  0.7303  0.8554  2.7141
61914SOL    HW292348  11.000   2.879  11.457  0.9374  1.5735  0.0415
61915SOL     OW92349   0.229  10.464   7.948 -0.0374 -0.0380 -0.2219
61915SOL    HW192350   0.311  10.464   7.997 -0.3605  2.1499  0.4198
61915SOL    HW292351   0.161  10.472   8.015 -0.5299  2.1668 -0.8885
61916SOL     OW92352  12.777   1.482   1.081 -0.7025  0.3359 -0.3953
61916SOL    HW192353  12.763   1.557   1.139 -0.4188 -0.0467  0.1717
61916SOL    HW292354  12.688   1.456   1.055 -0.8722  0.1157  0.3770
61917SOL     OW92355   3.869   4.940   1.772  0.3568  0.8378 -0.0108
61917SOL    HW192356   3.944   4.946   1.832  0.3240 -0.5089  0.1954
61917SOL    HW292357   3.908   4.949   1.685  0.7476  0.2975  0.1016
61918SOL     OW92358  11.470   6.046  11.898 -0.2576 -0.2111  0.6382
61918SOL    HW192359  11.516   6.127  11.874 -0.4781 -0.9120 -2.6031
61918SOL    HW292360  11.378   6.065  11.881 -0.6313 -0.4615  2.1735
61919SOL     OW92361   6.661   5.128   4.674  0.2031  0.2404 -0.1194
61919SOL    HW192362   6.704   5.049   4.642 -1.2127 -1.0669  1.0591
61919SOL    HW292363   6.615   5.163   4.597 -0.4115 -0.9561 -0.3129
61920SOL     OW92364   7.111   0.911   2.353 -0.1924  0.1339 -0.1025
61920SOL    HW192365   7.184   0.951   2.402  0.3381  1.1453 -1.6280
61920SOL    HW292366   7.122   0.817   2.365  1.0790  0.2958  0.1080
61921SOL     OW92367   1.009   4.762   9.808 -0.1074  0.6122 -0.5376
61921SOL    HW192368   0.991   4.850   9.841  0.4456  0.3482  0.5377
61921SOL    HW292369   0.947   4.750   9.737 -0.6576  1.6168 -0.2553
61922SOL     OW92370   8.028   0.429   8.336  0.4079  0.0664  0.1619
61922SOL    HW192371   7.956   0.399   8.392  1.0545  0.4531  1.2407
61922SOL    HW292372   8.106   0.383   8.370  1.4577  2.9077  1.9596
61923SOL     OW92373   0.103   5.724   9.987  0.2816  0.2744 -0.1817
61923SOL    HW192374   0.117   5.734   9.893 -0.0646  1.0284 -0.1653
61923SOL    HW292375   0.138   5.806  10.024  1.3199 -0.4321  0.4465
61924SOL     OW92376   0.267   1.935  10.301  0.3023 -0.5434  0.1426
61924SOL    HW192377   0.199   1.994  10.335  0.6279  0.6520 -1.1513
61924SOL    HW292378   0.348   1.987  10.307  0.3804 -0.2508 -2.3218
61925SOL     OW92379   3.560   7.870   6.392  0.0821  0.2451  0.3003
61925SOL    HW192380   3.644   7.910   6.416  0.4364 -0.7195  0.7069
61925SOL    HW292381   3.547   7.896   6.301  0.2434  1.3699  0.5796
61926SOL     OW92382   3.851  11.348   0.842  0.1652 -0.3370 -0.4333
61926SOL    HW192383   3.885  11.262   0.818  2.5890 -0.1085  1.7044
61926SOL    HW292384   3.805  11.333   0.924  1.4420  0.4990  0.4667
61927SOL     OW92385   8.188  12.590   1.290  0.3282 -0.5042  0.0689
61927SOL    HW192386   8.113  12.534   1.267  0.7670 -0.7361 -0.8847
61927SOL    HW292387   8.151  12.677   1.304 -0.0421 -0.4524 -1.1351
61928SOL     OW92388   6.548   3.831   2.163  0.0496 -0.1502 -0.1448
61928SOL    HW192389   6.522   3.740   2.171 -0.3484  0.0959  2.0229
61928SOL    HW292390   6.498   3.877   2.231  2.1341  1.2349  0.5731
61929SOL     OW92391   7.171  12.035   7.076  0.2161 -0.5248  0.2804
61929SOL    HW192392   7.246  12.017   7.020  0.2612 -0.2401  0.2485
61929SOL    HW292393   7.107  12.078   7.018  0.6717  0.7313  0.6773
61930SOL     OW92394   8.386  11.109   9.334  0.2365  0.2202 -0.3645
61930SOL    HW192395   8.453  11.134   9.270  1.7794 -0.5123  0.9118
61930SOL    HW292396   8.426  11.039   9.385 -0.9003  0.8570  1.4837
61931SOL     OW92397  10.365  11.577   9.227 -0.4350 -0.0938  0.2414
61931SOL    HW192398  10.435  11.558   9.290 -0.4284  2.0022  0.9507
61931SOL    HW292399  10.380  11.516   9.156  0.8809 -1.0792  1.3023
61932SOL     OW92400  10.220   2.600   3.537 -0.2547 -0.3640 -0.1747
61932SOL    HW192401  10.162   2.526   3.520 -0.7207  0.1864 -1.0216
61932SOL    HW292402  10.180   2.673   3.490 -0.1252  0.5755  1.1164
61933SOL     OW92403   5.074   5.235  11.284  0.5000 -0.1744 -0.1483
61933SOL    HW192404   5.119   5.152  11.264  1.6000  0.2909  0.2822
61933SOL    HW292405   4.982   5.217  11.267  0.8187 -1.2355 -0.8868
61934SOL     OW92406   8.177   9.350  11.908 -0.0238 -0.2075  0.0658
61934SOL    HW192407   8.234   9.400  11.965 -0.9130  3.0447 -1.6251
61934SOL    HW292408   8.222   9.349  11.823 -1.2715  0.2156 -0.6390
61935SOL     OW92409   5.327   1.270  11.448 -0.7850 -0.2631 -0.4428
61935SOL    HW192410   5.385   1.257  11.523 -1.2608  1.1270  0.2080
61935SOL    HW292411   5.258   1.205  11.459 -0.5738 -0.4127  0.0447
61936SOL     OW92412  11.064   1.679  12.163 -0.0829 -0.0815  0.2707
61936SOL    HW192413  11.151   1.717  12.152 -0.1236 -0.0823 -0.0832
61936SOL    HW292414  11.014   1.746  12.210 -0.3926  0.6674 -1.0724
61937SOL     OW92415   8.772   2.022  12.189  0.0078 -0.2330  0.2608
61937SOL    HW192416   8.814   2.071  12.260  0.7425 -1.5727  0.7852
61937SOL    HW292417   8.844   1.980  12.142 -0.5404 -0.0698 -0.7554
61938SOL     OW92418   0.911  11.671   6.203 -0.1953 -0.3326 -0.0665
61938SOL    HW192419   0.917  11.718   6.120  1.2114 -2.2803 -1.1538
61938SOL    HW292420   0.827  11.697   6.240 -0.5516  1.1001 -1.7575
61939SOL     OW92421   2.076   9.619   9.398  0.6511  0.3081  0.2724
61939SOL    HW192422   2.082   9.641   9.491  0.4836  2.0397 -0.0998
61939SOL    HW292423   2.110   9.696   9.352 -0.2555 -0.0918 -1.1361
61940SOL     OW92424  10.571   8.069   4.542  0.2523 -0.2056 -0.5630
61940SOL    HW192425  10.479   8.078   4.520  0.3644  2.5290 -0.2735
61940SOL    HW292426  10.573   8.063   4.637  0.4056  1.5282 -0.4252
61941SOL     OW92427   5.991   3.753  11.362  0.1717 -0.2128 -0.0585
61941SOL    HW192428   6.025   3.756  11.272  0.9767  2.2161  0.2393
61941SOL    HW292429   5.926   3.824  11.365  0.1625 -0.2515  1.2794
61942SOL     OW92430  11.263   0.161   7.062 -1.2594  0.0073 -0.3985
61942SOL    HW192431  11.317   0.143   6.985  0.4753 -1.6783  1.0987
61942SOL    HW292432  11.297   0.244   7.096  2.5446 -2.2317  2.0157
61943SOL     OW92433   7.990  11.713   5.478  0.4438  0.2814  0.1134
61943SOL    HW192434   8.069  11.719   5.425  1.2107 -1.0715  1.0551
61943SOL    HW292435   7.991  11.792   5.532 -0.0207  1.3581 -1.3889
61944SOL     OW92436   6.171  11.676   8.077 -0.0999 -0.2569 -0.3340
61944SOL    HW192437   6.107  11.666   8.148  0.0175  0.3301 -0.1372
61944SOL    HW292438   6.247  11.626   8.106  0.9119  1.9709  1.1667
61945SOL     OW92439   0.218   1.111  12.630  0.1622  0.0905 -0.7482
61945SOL    HW192440   0.144   1.133  12.688  0.5148 -1.4676  0.3563
61945SOL    HW292441   0.295   1.142  12.677  0.4260 -0.8877 -0.5103
61946SOL     OW92442   9.453   8.046  11.996 -0.4628 -0.3397 -0.6467
61946SOL    HW192443   9.485   8.067  11.908 -1.6660  1.8254 -0.6335
61946SOL    HW292444   9.399   7.968  11.983 -0.7263  0.0220 -1.8642
61947SOL     OW92445   8.115   6.624  10.684  0.0041  0.3491  0.2416
61947SOL    HW192446   8.140   6.595  10.772  2.6710  0.2016 -0.4905
61947SOL    HW292447   8.179   6.692  10.662  0.9286 -1.2779 -2.4927
61948SOL     OW92448   1.042   5.305   2.519  0.0093 -0.3001 -0.4884
61948SOL    HW192449   1.054   5.284   2.426  0.3820 -0.2740 -0.4489
61948SOL    HW292450   1.066   5.397   2.526 -0.9867 -0.0276 -0.5425
61949SOL     OW92451  10.025   0.136  11.607  0.2623 -0.4848 -0.0644
61949SOL    HW192452  10.082   0.171  11.539 -1.2765 -1.0939 -1.7290
61949SOL    HW292453   9.973   0.212  11.636 -2.1101 -0.9588 -2.7057
61950SOL     OW92454   0.016  10.661  12.028  0.0814 -0.0262  0.4207
61950SOL    HW192455  -0.032  10.744  12.032 -1.4824 -0.7103 -2.2784
61950SOL    HW292456  -0.024  10.607  12.097 -0.6660  0.5893  0.4838
61951SOL     OW92457   7.579   8.435  11.768 -0.0246 -0.1971  0.1901
61951SOL    HW192458   7.561   8.461  11.678  0.8487 -1.4051 -0.3625
61951SOL    HW292459   7.551   8.343  11.773 -2.4251  0.5291  1.8889
61952SOL     OW92460   5.735  10.011  12.676  0.3460  0.4632 -0.1069
61952SOL    HW192461   5.811   9.954  12.666 -0.2963 -0.1585 -1.5820
61952SOL    HW292462   5.723  10.052  12.591 -0.8097  0.7634  0.1771
61953SOL     OW92463   2.831   2.314  10.339 -0.6743  0.0852 -0.1575
61953SOL    HW192464   2.833   2.408  10.322 -0.0005  0.0649 -0.2026
61953SOL    HW292465   2.748   2.285  10.301 -0.5689  0.5474 -0.7548
61954SOL     OW92466   8.969  10.205   1.529  0.0758 -0.5123  0.7901
61954SOL    HW192467   8.953  10.139   1.461 -1.2568 -1.2951  1.7991
61954SOL    HW292468   8.926  10.169   1.607  1.4701  0.4101  2.0262
61955SOL     OW92469   4.454  12.752   9.921  0.0105  0.1726 -0.1430
61955SOL    HW192470   4.506  12.721   9.847 -1.5067 -0.2124 -1.0809
61955SOL    HW292471   4.441  12.845   9.904 -0.3386  0.0845 -0.3709
61956SOL     OW92472   2.310   7.617  10.726  0.0923  0.0009  0.1382
61956SOL    HW192473   2.321   7.638  10.819  1.8002  1.2539 -0.2979
61956SOL    HW292474   2.245   7.680  10.694  2.3897  2.2909 -0.3176
61957SOL     OW92475   3.006   1.144  12.381  0.3137 -0.0316  0.8251
61957SOL    HW192476   2.928   1.089  12.377  0.3139  0.0086  0.2282
61957SOL    HW292477   3.079   1.082  12.385  0.3164 -0.0788  0.1022
61958SOL     OW92478   0.284   2.915  11.182 -0.1052  0.6423 -0.4745
61958SOL    HW192479   0.221   2.947  11.247 -0.1841  0.1840 -0.3231
61958SOL    HW292480   0.244   2.934  11.098 -0.9360 -0.5890 -0.3797
61959SOL     OW92481  11.940   5.529  11.233 -0.0757 -0.5533  0.4246
61959SOL    HW192482  11.951   5.614  11.276  0.7274 -1.0937  1.3226
61959SOL    HW292483  12.030   5.502  11.212 -0.3760 -0.8657 -0.4946
61960SOL     OW92484  11.326  10.956  11.494  0.3849 -0.2713 -0.0199
61960SOL    HW192485  11.238  10.934  11.524 -0.6536  1.0167 -1.9031
61960SOL    HW292486  11.313  11.030  11.434  2.9857  1.2239  1.1151
61961SOL     OW92487   3.636   0.013   3.195  0.5063  0.3279  0.4273
61961SOL    HW192488   3.621   0.091   3.142 -1.7454 -0.7086 -0.5554
61961SOL    HW292489   3.628  -0.060   3.134 -2.0746 -0.9106  2.0756
61962SOL     OW92490   8.633   2.450  10.004  0.2055  0.0948  0.1193
61962SOL    HW192491   8.671   2.487   9.924  1.4812  0.8907  1.0608
61962SOL    HW292492   8.571   2.517  10.034 -1.1359 -0.6914 -0.7695
61963SOL     OW92493   8.814   8.717   9.598 -0.1861  0.2929  0.3085
61963SOL    HW192494   8.776   8.778   9.534  0.5094  0.3396 -0.0658
61963SOL    HW292495   8.740   8.691   9.653 -0.3284  2.2089  1.0778
61964SOL     OW92496   5.410   7.457   5.526  0.1732  0.0399 -0.3521
61964SOL    HW192497   5.453   7.537   5.494 -0.7666  0.2735 -1.0739
61964SOL    HW292498   5.421   7.460   5.621 -1.3283  1.9288 -0.1789
61965SOL     OW92499   8.044  12.374   5.868  0.0168 -0.2746  0.2034
61965SOL    HW192500   8.033  12.439   5.799 -3.2642 -0.2625  0.5822
61965SOL    HW292501   8.029  12.422   5.949 -0.3066 -1.0736  0.6314
61966SOL     OW92502  10.705   8.972   2.242 -0.0462 -0.4779  0.1496
61966SOL    HW192503  10.617   8.939   2.224  0.0447 -0.9283  0.5038
61966SOL    HW292504  10.698   9.016   2.327  0.2054 -1.0723  0.4867
61967SOL     OW92505  10.794  12.170  11.877  0.1259  0.1906  0.0730
61967SOL    HW192506  10.821  12.080  11.859  3.2106  1.0083  0.0316
61967SOL    HW292507  10.850  12.197  11.950  1.2891  2.8680 -1.6532
61968SOL     OW92508   1.377   8.879  12.070  0.0630  0.1096  0.3416
61968SOL    HW192509   1.358   8.896  12.163 -1.9809  1.7431 -0.3091
61968SOL    HW292510   1.399   8.965  12.034  0.7064 -0.4931 -0.7342
61969SOL     OW92511   6.208  11.676   0.259  0.3612 -0.3953  0.3100
61969SOL    HW192512   6.267  11.752   0.257  0.0634 -0.1541 -1.7950
61969SOL    HW292513   6.244  11.616   0.194  0.4637 -2.0289  1.7892
61970SOL     OW92514   9.715   8.252   2.511  0.7954  0.0685 -0.3871
61970SOL    HW192515   9.716   8.313   2.585 -0.2952 -0.2433 -0.1096
61970SOL    HW292516   9.686   8.306   2.437 -1.5400 -0.3847  0.1375
61971SOL     OW92517   5.505   6.283   7.206 -0.0382  0.2932  0.4390
61971SOL    HW192518   5.540   6.232   7.133 -1.2394 -0.2674  0.2131
61971SOL    HW292519   5.558   6.363   7.208  0.6562 -0.1251 -0.4110
61972SOL     OW92520   1.748   0.632   6.911  0.3673 -0.2942 -0.5587
61972SOL    HW192521   1.762   0.555   6.855  1.0113  0.2049 -1.0961
61972SOL    HW292522   1.832   0.647   6.954  0.8334  1.2196 -1.8936
61973SOL     OW92523   8.412   2.062   4.570  0.2004 -0.2010 -0.6273
61973SOL    HW192524   8.404   1.983   4.623 -1.1770  0.5982  0.4303
61973SOL    HW292525   8.390   2.133   4.630 -0.3471  0.8246 -1.9935
61974SOL     OW92526   2.099   3.821   2.740 -0.0715 -0.0120  0.2859
61974SOL    HW192527   2.190   3.813   2.711  0.5438  0.7716  1.9149
61974SOL    HW292528   2.079   3.913   2.728 -0.4164 -0.0457  0.6226
61975SOL     OW92529   0.657   9.897   5.284 -0.3658 -0.1680  0.0196
61975SOL    HW192530   0.589   9.830   5.292 -1.1255  0.2441 -2.1619
61975SOL    HW292531   0.631   9.947   5.207  2.3361  0.0940 -0.8144
61976SOL     OW92532   3.858  12.087   2.697  0.1682  0.9650  0.3444
61976SOL    HW192533   3.939  12.129   2.668  1.4097 -2.0136 -0.8650
61976SOL    HW292534   3.868  12.080   2.792  1.8579 -0.2276  0.1236
61977SOL     OW92535   7.683   5.472  10.776  0.4066 -0.1153 -0.6614
61977SOL    HW192536   7.594   5.502  10.794 -0.3688 -1.4902 -1.9501
61977SOL    HW292537   7.728   5.477  10.860 -0.5001  1.7761 -0.2318
61978SOL     OW92538   2.017   4.654   4.246  0.7149 -0.0262 -0.0160
61978SOL    HW192539   1.979   4.699   4.321 -0.8334  2.1851 -1.9634
61978SOL    HW292540   1.966   4.573   4.238 -1.3564  1.2548 -0.5166
61979SOL     OW92541   9.293  11.999   1.391 -0.2045 -0.3628  0.0306
61979SOL    HW192542   9.290  12.059   1.465  1.8331 -1.0345  0.7174
61979SOL    HW292543   9.270  12.052   1.315 -0.2796  0.8201  0.8631
61980SOL     OW92544   9.068   3.082  10.636 -0.2758 -0.0241 -0.6962
61980SOL    HW192545   9.114   3.160  10.604 -0.5500  0.1186 -0.7476
61980SOL    HW292546   8.976   3.101  10.621 -0.4163  0.0551  0.1896
61981SOL     OW92547   1.681   8.946   1.570 -0.1040  0.1974 -0.0796
61981SOL    HW192548   1.666   8.916   1.481  0.2456 -1.7308  0.4576
61981SOL    HW292549   1.639   9.032   1.575 -1.4190 -0.3182 -1.6661
61982SOL     OW92550   1.204   9.830   2.863  0.6128 -0.0975  0.0634
61982SOL    HW192551   1.152   9.909   2.873  0.0210 -0.7057  2.1373
61982SOL    HW292552   1.295   9.861   2.863  0.4372  0.5365  1.9679
61983SOL     OW92553  12.689  10.936  10.701  0.0043 -0.3789 -0.0903
61983SOL    HW192554  12.642  10.914  10.782 -0.8635 -0.5889 -0.6382
61983SOL    HW292555  12.706  11.030  10.708  0.2236 -0.4560  0.4811
61984SOL     OW92556   9.409   2.187   0.269 -0.2109 -0.1465  1.0630
61984SOL    HW192557   9.358   2.142   0.202  0.7346  0.3282 -0.0124
61984SOL    HW292558   9.473   2.122   0.299  2.2287  0.8081 -1.6438
61985SOL     OW92559   7.523   6.424   3.450  0.3335 -0.0160  0.0965
61985SOL    HW192560   7.506   6.505   3.402  1.7930 -0.0354 -0.4977
61985SOL    HW292561   7.449   6.416   3.511 -1.3412  0.2504 -1.7926
61986SOL     OW92562   3.038   5.728  11.874 -0.2706 -0.0353 -0.0391
61986SOL    HW192563   3.101   5.732  11.802  0.7965  1.6346  0.9275
61986SOL    HW292564   3.081   5.674  11.940 -1.0761 -1.2201 -0.4509
61987SOL     OW92565  11.794   0.901  10.481 -0.2971 -0.4920 -0.1154
61987SOL    HW192566  11.817   0.811  10.460  1.6888  0.0952 -0.6755
61987SOL    HW292567  11.799   0.905  10.577 -2.3343 -1.4025  0.0911
61988SOL     OW92568   4.110  12.469   6.249 -0.3808  0.1930  0.1573
61988SOL    HW192569   4.015  12.460   6.240 -0.3039  0.0910 -0.6223
61988SOL    HW292570   4.124  12.480   6.343 -1.2648  1.4041  0.1785
61989SOL     OW92571   1.819   5.282   9.959  0.3868  0.7649 -0.2148
61989SOL    HW192572   1.784   5.296   9.870 -1.9340 -0.8228  0.3421
61989SOL    HW292573   1.756   5.326  10.016  0.4957 -0.2725  0.7384
61990SOL     OW92574   3.990   2.382  10.914  0.4092 -0.1111 -0.0123
61990SOL    HW192575   4.005   2.329  10.992  0.8191  1.3107  0.8946
61990SOL    HW292576   4.077   2.408  10.886  0.2199 -0.0789 -0.5881
61991SOL     OW92577   8.517  11.668   5.419 -0.2121 -0.7571  0.1268
61991SOL    HW192578   8.436  11.667   5.470 -0.2816  0.1064  0.0480
61991SOL    HW292579   8.563  11.746   5.448  0.8898 -1.5608  0.6113
61992SOL     OW92580   0.086   3.596   2.383 -0.4528 -0.3103  0.3884
61992SOL    HW192581   0.125   3.573   2.298 -0.2379 -0.4736  0.5314
61992SOL    HW292582   0.117   3.685   2.400  0.2322 -0.6068  0.7176
61993SOL     OW92583   9.241  12.510   4.763 -0.2980  0.2665 -0.5181
61993SOL    HW192584   9.315  12.522   4.823  0.1550 -1.2696 -0.7200
61993SOL    HW292585   9.233  12.415   4.755 -2.6177  0.3768 -0.1172
61994SOL     OW92586   9.193   9.241   9.741  0.4258  0.3042  0.3681
61994SOL    HW192587   9.101   9.217   9.736  0.7278 -0.6818 -1.1527
61994SOL    HW292588   9.240   9.160   9.721  1.6509  0.6663  1.5993
61995SOL     OW92589   8.941   3.205  10.918 -0.1246  0.1272  0.0207
61995SOL    HW192590   9.010   3.184  10.981 -0.5817  0.8714  0.7911
61995SOL    HW292591   8.893   3.123  10.907  0.7703 -0.3539 -0.3985
61996SOL     OW92592   4.166   5.125   6.874  0.4536 -0.0622 -0.3178
61996SOL    HW192593   4.220   5.129   6.953 -0.9422 -4.2959  1.1672
61996SOL    HW292594   4.221   5.078   6.810 -0.0004 -0.7360 -0.2220
61997SOL     OW92595  10.453   9.400   5.218  0.1092 -0.5763 -0.0176
61997SOL    HW192596  10.502   9.329   5.177  1.2284  0.1489  0.0466
61997SOL    HW292597  10.516   9.443   5.276 -0.6193  0.3274  0.1250
61998SOL     OW92598   7.014   2.827   6.293 -0.2815 -0.0606  0.9095
61998SOL    HW192599   6.968   2.893   6.240 -0.0724 -0.4954  0.1623
61998SOL    HW292600   7.007   2.746   6.242  0.3618 -0.3822  1.3098
61999SOL     OW92601   2.049   9.052   2.802 -0.1294  0.0796  0.0554
61999SOL    HW192602   2.138   9.075   2.827 -0.7736  1.3885  1.3448
61999SOL    HW292603   1.997   9.068   2.882 -1.6676  0.4018 -0.9594
62000SOL     OW92604   4.544   0.825   4.090 -0.6964  0.2159 -0.1186
62000SOL    HW192605   4.473   0.889   4.094 -0.8182  0.0268  0.8773
62000SOL    HW292606   4.526   0.764   4.161 -1.2811 -1.6853 -1.8349
62001SOL     OW92607   4.321   7.893   2.191 -0.4071  0.1541  1.0732
62001SOL    HW192608   4.395   7.922   2.137 -0.3390  0.3525  1.2735
62001SOL    HW292609   4.354   7.818   2.240 -0.8776 -0.9277 -0.1993
62002SOL     OW92610   4.068   6.065   1.861 -0.0606  0.1256  0.2442
62002SOL    HW192611   4.042   5.974   1.845  1.0974 -0.5498  1.9541
62002SOL    HW292612   4.161   6.060   1.885  0.5057  1.9649 -1.2478
62003SOL     OW92613   9.863   0.457  11.243  0.1030  0.3294  0.2736
62003SOL    HW192614   9.798   0.401  11.285  0.6641 -0.2462  0.3980
62003SOL    HW292615   9.940   0.401  11.232 -0.5381 -0.1300 -3.1299
62004SOL     OW92616   5.302   5.993   6.472 -0.1038  0.1479  0.1141
62004SOL    HW192617   5.243   5.951   6.535  0.3695 -0.0910  0.4058
62004SOL    HW292618   5.355   5.921   6.438 -0.3118  0.2900 -0.5077
62005SOL     OW92619   3.720  10.994   3.136  0.1394 -0.2893  0.3242
62005SOL    HW192620   3.784  11.061   3.113 -0.3973  0.1182 -0.0021
62005SOL    HW292621   3.692  10.956   3.053  0.2645 -0.7592  0.4908
62006SOL     OW92622   6.480   1.622  11.796  0.7263 -0.1636  0.4864
62006SOL    HW192623   6.450   1.545  11.746  1.2727  0.4478 -0.8333
62006SOL    HW292624   6.494   1.689  11.730 -1.0429  1.5546  1.7436
62007SOL     OW92625  10.392   5.418  10.232  0.2125  0.5377 -0.7487
62007SOL    HW192626  10.317   5.440  10.287  1.6425  0.6442  1.2487
62007SOL    HW292627  10.443   5.499  10.227  1.5526 -0.2157  0.1858
62008SOL     OW92628   4.120  10.304   4.052  0.0465  0.2186  0.0461
62008SOL    HW192629   4.162  10.319   4.137  1.2574  1.1314 -0.6722
62008SOL    HW292630   4.040  10.356   4.055  0.9233  1.6283  0.0328
62009SOL     OW92631   6.301   1.816   2.447 -0.2398  0.1131  0.1226
62009SOL    HW192632   6.222   1.839   2.398 -0.2784  0.5359  0.3810
62009SOL    HW292633   6.269   1.780   2.530 -0.2422 -2.6275 -0.9651
62010SOL     OW92634   6.017   1.357   2.878  0.0334 -0.4305  0.0344
62010SOL    HW192635   6.023   1.321   2.790 -0.8154  0.0803 -0.2365
62010SOL    HW292636   5.931   1.330   2.909  0.2229 -0.3859  0.6149
62011SOL     OW92637  11.447   9.507   8.526  0.1972  0.9421  0.3689
62011SOL    HW192638  11.418   9.427   8.483  0.9786  0.4953  0.6430
62011SOL    HW292639  11.369   9.539   8.572  0.1543 -0.3047  1.2188
62012SOL     OW92640   3.955   6.695   3.034  0.0634  0.1360 -0.1060
62012SOL    HW192641   4.038   6.705   2.986  0.2180  3.6540  0.6361
62012SOL    HW292642   3.892   6.748   2.984 -1.1226 -0.4531  0.7258
62013SOL     OW92643   5.719   8.136  11.472  0.2804  0.0845  0.5426
62013SOL    HW192644   5.637   8.165  11.431  0.3856  1.1419  1.0596
62013SOL    HW292645   5.785   8.193  11.434  0.5326  0.3545  1.3701
62014SOL     OW92646  11.273   6.868  10.497  0.1643  0.1499 -0.2955
62014SOL    HW192647  11.268   6.949  10.446  1.3453  1.5788  1.7148
62014SOL    HW292648  11.204   6.812  10.461 -1.0381  2.2334 -1.3933
62015SOL     OW92649   3.179   7.851   9.763  0.0739 -0.2434  0.8296
62015SOL    HW192650   3.248   7.807   9.811 -0.6548 -2.2055  0.1734
62015SOL    HW292651   3.222   7.926   9.722  1.4583 -0.5724  1.6376
62016SOL     OW92652   3.740   7.484   2.691  0.0173 -0.4028  0.5284
62016SOL    HW192653   3.790   7.403   2.680  0.7073  0.0272  0.4044
62016SOL    HW292654   3.674   7.482   2.622 -0.1206 -0.9753  0.6801
62017SOL     OW92655   1.804  11.433   9.480 -0.2374  0.6232 -0.3991
62017SOL    HW192656   1.860  11.403   9.409 -1.0602  1.2958 -1.3564
62017SOL    HW292657   1.716  11.405   9.455 -0.3553 -0.4943  1.1265
62018SOL     OW92658   0.654   7.216   3.754  0.0307  0.3686  0.3595
62018SOL    HW192659   0.607   7.298   3.739 -0.3573  0.2376  0.8174
62018SOL    HW292660   0.587   7.157   3.790 -0.1139 -0.6984 -1.5575
62019SOL     OW92661   6.431   6.939   4.322  0.7692  0.1358 -0.5576
62019SOL    HW192662   6.402   7.030   4.315  2.0461  0.6613  0.7215
62019SOL    HW292663   6.486   6.936   4.400  1.5580 -1.5277 -1.1231
62020SOL     OW92664   5.044   3.338   4.103 -0.3932  0.1007 -1.0345
62020SOL    HW192665   5.070   3.429   4.087 -1.1988  0.3829 -0.8051
62020SOL    HW292666   4.960   3.329   4.058 -0.4835 -0.4322 -0.7669
62021SOL     OW92667   0.714   6.827   5.059 -0.0634  0.1808 -0.2667
62021SOL    HW192668   0.785   6.825   4.996 -0.3957 -1.4490 -0.6259
62021SOL    HW292669   0.640   6.866   5.012 -0.8565 -2.6302 -1.5696
62022SOL     OW92670  12.146   2.733   3.537 -0.0567  0.1408  0.2233
62022SOL    HW192671  12.153   2.809   3.479  1.5860  0.9013  1.3667
62022SOL    HW292672  12.053   2.709   3.533 -1.0887  3.4607  1.3884
62023SOL     OW92673   8.231  10.988   0.643 -0.1481  0.0644 -0.0448
62023SOL    HW192674   8.300  10.993   0.709 -1.5993 -1.3972  1.6808
62023SOL    HW292675   8.163  11.049   0.675 -0.1273  0.7038 -1.1662
62024SOL     OW92676   8.916  10.276   0.963  0.1589  0.7090  0.4121
62024SOL    HW192677   8.847  10.328   0.922  0.1766  0.5842  0.2256
62024SOL    HW292678   8.959  10.232   0.891 -1.1191 -1.1446  0.7131
62025SOL     OW92679  10.211  10.153   4.418  0.2610  0.1271 -0.0313
62025SOL    HW192680  10.234  10.232   4.467 -0.7067 -0.2641  1.1023
62025SOL    HW292681  10.117  10.142   4.432  0.7638 -2.5890  1.9714
62026SOL     OW92682   3.264   8.147   2.607  0.0576 -0.5546  0.1018
62026SOL    HW192683   3.259   8.184   2.695 -1.0707 -1.2145  0.3395
62026SOL    HW292684   3.334   8.195   2.565 -1.0081  1.5109  0.5541
62027SOL     OW92685  10.204   4.419   3.179 -0.3978  0.5028 -0.3198
62027SOL    HW192686  10.109   4.414   3.183 -0.3104 -1.2951  0.7442
62027SOL    HW292687  10.225   4.400   3.087 -1.0693  2.0170 -0.8187
62028SOL     OW92688   5.866   7.842  11.945  0.1752 -0.7289 -0.0193
62028SOL    HW192689   5.780   7.844  11.903  0.1806  1.2382 -0.0287
62028SOL    HW292690   5.927   7.865  11.875  0.4638  0.0747  0.4915
62029SOL     OW92691   8.501  12.743   7.585 -0.0606 -0.1829 -0.2447
62029SOL    HW192692   8.478  12.651   7.575  0.5723 -0.4685  0.8124
62029SOL    HW292693   8.516  12.774   7.496 -0.8180 -0.9456 -0.6568
62030SOL     OW92694  12.068  11.117   6.789  0.0652 -0.1815 -0.4635
62030SOL    HW192695  12.005  11.111   6.717  0.4884 -1.7292 -0.7368
62030SOL    HW292696  12.022  11.082   6.865  0.6762 -1.6681 -0.7461
62031SOL     OW92697   3.989  10.104   7.862 -0.0811  0.6877 -0.3953
62031SOL    HW192698   3.916  10.103   7.800 -0.2228  2.0299 -0.2762
62031SOL    HW292699   3.958  10.158   7.935  0.5992  0.2754  0.2101
62032SOL     OW92700   6.409  11.758   7.699  0.3035 -0.0074  0.0521
62032SOL    HW192701   6.347  11.831   7.691 -1.8679 -1.7558 -0.2593
62032SOL    HW292702   6.396  11.725   7.787 -0.7654 -1.6209 -0.6529
62033SOL     OW92703   7.756   0.767   1.239 -0.1373  1.0602  0.7367
62033SOL    HW192704   7.766   0.825   1.163 -1.5953  1.1086  0.5378
62033SOL    HW292705   7.718   0.686   1.202  2.0691 -0.1509  0.9740
62034SOL     OW92706   3.308   6.933   2.768  0.5759  0.2509 -0.1121
62034SOL    HW192707   3.259   6.871   2.823  1.4166 -0.9605 -0.6797
62034SOL    HW292708   3.346   6.878   2.699  1.4106  1.4062 -0.5922
62035SOL     OW92709   5.396   7.411   9.265 -0.0051  0.6506  0.3362
62035SOL    HW192710   5.352   7.407   9.350 -1.7638  1.4283 -0.4738
62035SOL    HW292711   5.398   7.320   9.235 -1.2184  0.5952  0.3594
62036SOL     OW92712  12.278  12.253   5.732 -0.5388 -0.0571  0.0320
62036SOL    HW192713  12.291  12.177   5.788 -0.0073  0.5210  0.7195
62036SOL    HW292714  12.183  12.260   5.722 -0.6789  0.0799  1.2408
62037SOL     OW92715   7.791  11.782   8.040 -0.3368 -0.2899 -0.2145
62037SOL    HW192716   7.778  11.814   7.951  0.2157  0.1219 -0.1493
62037SOL    HW292717   7.703  11.781   8.078 -0.4544  0.4352 -0.4560
62038SOL     OW92718   2.347   3.601   3.280 -0.1920  0.1871  0.2549
62038SOL    HW192719   2.431   3.615   3.324 -0.8817  1.7275  1.1824
62038SOL    HW292720   2.286   3.578   3.350 -1.3711  2.9484  0.2801
62039SOL     OW92721   9.362   4.449  10.530 -0.1039  0.4971  1.0576
62039SOL    HW192722   9.400   4.494  10.605  0.7579 -1.0969  1.6237
62039SOL    HW292723   9.406   4.364  10.528 -1.3652 -0.1687 -0.2051
62040SOL     OW92724   5.270   7.924   8.861 -0.2763 -0.5306  0.1378
62040SOL    HW192725   5.310   7.915   8.947 -0.5172 -0.8533  0.2174
62040SOL    HW292726   5.278   7.837   8.822  2.3098  0.2261 -1.2690
62041SOL     OW92727  11.582  11.046   1.622 -0.1913  0.0153 -0.7420
62041SOL    HW192728  11.607  11.028   1.712 -1.8976  0.0264 -0.2229
62041SOL    HW292729  11.591  10.962   1.576 -0.0063 -0.1533 -0.3975
62042SOL     OW92730   7.586   5.975   1.657  0.4274 -0.5242  0.0597
62042SOL    HW192731   7.596   5.979   1.752  1.9879 -0.0956 -0.1032
62042SOL    HW292732   7.561   5.884   1.639  0.7764 -0.7779  0.8301
62043SOL     OW92733   2.979   3.946   5.819 -0.4891 -0.1043  0.4835
62043SOL    HW192734   2.892   3.985   5.810 -0.2204  0.0831 -2.2588
62043SOL    HW292735   3.038   4.009   5.778  1.1197  0.1096  2.9138
62044SOL     OW92736   7.947   7.821   7.087  0.1790 -0.0432 -0.0670
62044SOL    HW192737   7.960   7.825   6.992 -1.7118  0.9869 -0.3179
62044SOL    HW292738   7.990   7.899   7.120 -1.4848  1.0807 -0.4261
62045SOL     OW92739   5.468   8.934   1.309  0.0049 -0.1611 -0.4844
62045SOL    HW192740   5.560   8.912   1.297 -0.0135 -1.5814  1.4530
62045SOL    HW292741   5.453   9.008   1.250  2.5459  0.5676 -0.3402
62046SOL     OW92742   5.551   2.993   7.841 -0.7022 -0.4531 -0.5710
62046SOL    HW192743   5.476   2.956   7.887 -0.6184 -0.1419 -0.1770
62046SOL    HW292744   5.516   3.069   7.793 -0.8256 -0.8862 -1.1792
62047SOL     OW92745   8.333   1.128   2.206  0.1264  0.0999  0.9447
62047SOL    HW192746   8.332   1.146   2.112 -3.7624 -0.6218  0.6986
62047SOL    HW292747   8.368   1.039   2.213 -1.2953 -0.5879 -0.0927
62048SOL     OW92748   0.013   5.308   5.936 -0.6587 -0.1570  0.3479
62048SOL    HW192749   0.053   5.282   6.019 -0.2795  0.3413  0.3230
62048SOL    HW292750  -0.035   5.388   5.957 -0.8736 -0.2396  0.1707
62049SOL     OW92751  10.959   8.847  10.906 -0.3635 -0.0256  0.0436
62049SOL    HW192752  11.010   8.914  10.861 -0.0266 -0.9517 -0.9873
62049SOL    HW292753  11.020   8.775  10.920 -0.8296 -0.3008  0.7524
62050SOL     OW92754   5.914   9.394   7.801 -0.0627 -0.0466  0.1277
62050SOL    HW192755   5.925   9.476   7.752 -0.0081 -0.4888 -0.6305
62050SOL    HW292756   5.991   9.342   7.777  2.0172  1.1340  3.6509
62051SOL     OW92757  10.537   0.668  12.137 -0.1691 -0.1698 -0.1881
62051SOL    HW192758  10.572   0.756  12.125  2.0532 -1.2264 -2.1973
62051SOL    HW292759  10.614   0.612  12.151 -1.4203 -1.9755 -0.0461
62052SOL     OW92760   5.543  10.567   4.069 -0.0242 -0.2361  0.3824
62052SOL    HW192761   5.526  10.538   3.979 -0.0302  1.8332 -0.3185
62052SOL    HW292762   5.463  10.611   4.096  0.8965  1.5045  0.4035
62053SOL     OW92763   6.585   1.406  11.950 -0.1610  0.1189  0.5581
62053SOL    HW192764   6.546   1.485  11.912  0.7715  0.4874  0.3395
62053SOL    HW292765   6.525   1.336  11.925 -0.5057  0.6203 -0.0612
62054SOL     OW92766   9.448  10.424   6.325  0.5691 -0.3888 -0.3398
62054SOL    HW192767   9.466  10.405   6.417  0.1829 -1.1994 -0.4236
62054SOL    HW292768   9.534  10.439   6.286  0.9283 -2.1086 -0.2808
62055SOL     OW92769   5.363   5.858   9.883 -0.3945 -0.0879  0.6899
62055SOL    HW192770   5.335   5.929   9.825  0.4584  0.3523  0.7981
62055SOL    HW292771   5.345   5.778   9.833 -2.3070  0.1301  0.9727
62056SOL     OW92772   5.735   5.326   1.761  0.3021 -0.9645 -0.0883
62056SOL    HW192773   5.708   5.361   1.846 -0.6740  0.7533 -1.0496
62056SOL    HW292774   5.811   5.379   1.737 -0.3144 -0.4446 -0.9258
62057SOL     OW92775   3.707   5.357   0.223 -0.3016 -0.1155 -0.0504
62057SOL    HW192776   3.747   5.333   0.139  0.4660  0.3306  0.1708
62057SOL    HW292777   3.622   5.394   0.199 -0.1306 -0.0725 -0.6246
62058SOL     OW92778   7.057   3.035  12.229  0.1182 -0.3562 -0.3809
62058SOL    HW192779   6.976   3.053  12.276  1.2798  0.9663  1.2413
62058SOL    HW292780   7.063   2.939  12.227 -0.2555 -0.4640  1.7535
62059SOL     OW92781  10.673   8.228   8.784 -0.0403  0.1482 -0.2468
62059SOL    HW192782  10.687   8.210   8.691 -2.0576  0.1609 -0.5911
62059SOL    HW292783  10.585   8.267   8.788 -0.9067 -1.8179  1.8701
62060SOL     OW92784   1.707   1.033   1.993 -0.3989  0.0258 -0.1846
62060SOL    HW192785   1.702   0.939   2.012 -1.0124 -0.1248 -1.0252
62060SOL    HW292786   1.722   1.038   1.898  2.7227  0.7432  0.2390
62061SOL     OW92787  10.081   8.556   0.160 -0.3143 -0.2904  0.7178
62061SOL    HW192788  10.174   8.570   0.180 -0.1843  0.4445 -0.2785
62061SOL    HW292789  10.081   8.528   0.068 -1.0876 -0.0493  0.6367
62062SOL     OW92790   0.040   9.683   9.271  0.0901 -0.0693 -0.0960
62062SOL    HW192791   0.132   9.702   9.255  0.1335 -0.4158 -0.2809
62062SOL    HW292792   0.007   9.758   9.320  0.4097  0.1689 -0.2495
62063SOL     OW92793   7.639   3.092   6.606  0.6221 -0.2352  0.3281
62063SOL    HW192794   7.733   3.096   6.622  0.5853 -0.8826  0.7363
62063SOL    HW292795   7.612   3.010   6.645  0.0355 -0.4803 -0.5706
62064SOL     OW92796   1.637   7.913   1.584  0.0725 -0.3662  0.1179
62064SOL    HW192797   1.577   7.965   1.638  0.1258 -0.9854  0.7753
62064SOL    HW292798   1.584   7.884   1.510 -0.0806  0.2239 -0.0113
62065SOL     OW92799  11.766   6.012   1.380  0.2402  0.3296  0.3484
62065SOL    HW192800  11.838   5.995   1.440  0.4639  2.0235  0.6243
62065SOL    HW292801  11.805   6.009   1.293  0.9950  2.4669  0.5439
62066SOL     OW92802   8.587   1.798   0.395 -0.0762  0.7986  0.8421
62066SOL    HW192803   8.644   1.864   0.434  0.8563  0.3906  0.1907
62066SOL    HW292804   8.498   1.833   0.407  0.2009  0.9700  2.7765
62067SOL     OW92805   2.140  10.080   1.778  0.1740  0.3624 -0.2111
62067SOL    HW192806   2.082  10.153   1.800  2.6219  3.0410 -1.9302
62067SOL    HW292807   2.169  10.044   1.862 -1.4674  1.0071  0.6651
62068SOL     OW92808   4.655   3.760  12.770 -1.0055 -0.2943 -0.2578
62068SOL    HW192809   4.724   3.708  12.728 -1.4799 -0.9470 -0.2426
62068SOL    HW292810   4.653   3.841  12.720  0.7006  0.3102  0.5860
62069SOL     OW92811   0.276   3.138   3.392  1.0692 -0.0399 -0.7414
62069SOL    HW192812   0.328   3.068   3.432 -1.2396 -1.1308  0.6506
62069SOL    HW292813   0.185   3.108   3.403 -0.1266  3.5791  0.7955
62070SOL     OW92814  10.377  10.517   8.293  0.4866 -0.3019 -0.9425
62070SOL    HW192815  10.435  10.592   8.300 -0.0571 -0.0740  2.6203
62070SOL    HW292816  10.297  10.553   8.254 -0.9989  1.9922  3.5752
62071SOL     OW92817   2.431   3.281   4.528 -0.0049 -0.0613  0.6024
62071SOL    HW192818   2.376   3.265   4.605 -0.4595 -0.4725  0.2071
62071SOL    HW292819   2.511   3.231   4.544 -0.5017 -0.9657  0.3804
62072SOL     OW92820  10.982   7.423   1.820 -0.5031 -0.9226  0.5525
62072SOL    HW192821  11.052   7.363   1.844  0.2747 -0.2898 -0.0917
62072SOL    HW292822  10.973   7.481   1.896  0.0816 -0.6441  0.4172
62073SOL     OW92823   3.633  11.674   8.362  1.0299 -0.1280  0.5841
62073SOL    HW192824   3.544  11.680   8.327  1.8221 -0.9223 -1.7306
62073SOL    HW292825   3.632  11.733   8.438 -1.2697  0.3746  0.2580
62074SOL     OW92826   3.122  10.207   9.710 -0.1734  0.0669  0.4634
62074SOL    HW192827   3.173  10.155   9.648  2.2127  1.4580  1.1328
62074SOL    HW292828   3.160  10.295   9.706 -3.4093  1.6224  0.0846
62075SOL     OW92829   1.258   8.347   2.917  0.0067  0.0814  0.5538
62075SOL    HW192830   1.289   8.424   2.965  0.7821  0.5983 -0.7315
62075SOL    HW292831   1.170   8.371   2.887  0.0557  0.2819  0.5677
62076SOL     OW92832  10.025   6.587   0.696 -0.5608 -0.4487 -0.1773
62076SOL    HW192833  10.097   6.612   0.638  0.8765 -0.9987  1.3213
62076SOL    HW292834  10.029   6.492   0.700  0.7055 -0.3611  2.3927
62077SOL     OW92835   6.515   2.441   0.878  0.2889  0.1103  0.6717
62077SOL    HW192836   6.453   2.462   0.808  2.1836  2.8427 -0.3705
62077SOL    HW292837   6.524   2.346   0.874 -1.4456 -0.0443 -1.2305
62078SOL     OW92838   4.098   3.672   9.429 -0.1737  0.4717  0.0803
62078SOL    HW192839   4.032   3.698   9.494 -1.3696 -0.5278 -0.6754
62078SOL    HW292840   4.055   3.687   9.345  0.2004 -1.0806 -0.4224
62079SOL     OW92841   4.515   3.717   1.911 -0.5791 -0.6670  0.1441
62079SOL    HW192842   4.593   3.718   1.967 -1.0662 -0.5742  0.8409
62079SOL    HW292843   4.537   3.659   1.839  0.4674  0.0744 -0.1569
62080SOL     OW92844   7.482   7.511   8.129  0.5071  0.2239  0.3137
62080SOL    HW192845   7.483   7.560   8.211 -0.7210  0.4279  0.2312
62080SOL    HW292846   7.571   7.478   8.119  0.4166 -0.7818  2.3242
62081SOL     OW92847   6.570   2.391  12.347 -0.3035 -0.1428 -0.1595
62081SOL    HW192848   6.602   2.347  12.269  0.9858  0.5948 -0.0878
62081SOL    HW292849   6.528   2.471  12.315 -0.4316 -0.2093 -0.1535
62082SOL     OW92850  11.741  12.610   5.663 -0.2696  0.3396  0.7493
62082SOL    HW192851  11.723  12.694   5.622  1.0887 -0.4819 -1.7663
62082SOL    HW292852  11.787  12.631   5.744  2.6220  2.0416 -1.1974
62083SOL     OW92853   4.348  11.694   3.363  0.4614  0.3028  0.0621
62083SOL    HW192854   4.304  11.645   3.432 -1.4764  0.6990 -0.8171
62083SOL    HW292855   4.317  11.784   3.374  0.1922  0.3970 -1.2158
62084SOL     OW92856   7.042  11.291   1.931  0.1552  0.4409  0.1597
62084SOL    HW192857   7.053  11.326   1.842 -0.5221 -0.3117 -0.2339
62084SOL    HW292858   6.955  11.322   1.958  0.0742  0.0987  0.2916
62085SOL     OW92859   9.041   6.626   2.377 -0.0545 -0.1112 -0.0625
62085SOL    HW192860   9.062   6.610   2.469  0.9251  0.3872 -0.1836
62085SOL    HW292861   9.067   6.717   2.362 -1.4433  0.2414 -0.5002
62086SOL     OW92862   2.954   6.501   8.743 -0.2140  0.3564 -0.2852
62086SOL    HW192863   2.892   6.432   8.766 -0.3598  0.7162  0.4311
62086SOL    HW292864   3.023   6.494   8.809  0.4296  0.0604 -0.9859
62087SOL     OW92865  10.925   3.854   5.315 -0.1826 -0.1900 -0.2621
62087SOL    HW192866  10.908   3.907   5.237  1.0691 -0.8168 -0.9863
62087SOL    HW292867  11.006   3.891   5.351  0.5203 -1.3811 -0.5846
62088SOL     OW92868   1.605   0.856   2.474 -0.8935  0.1129 -0.3286
62088SOL    HW192869   1.652   0.828   2.552 -2.5459  0.4442  0.8367
62088SOL    HW292870   1.647   0.939   2.449 -0.1657 -0.1412  0.0369
62089SOL     OW92871  10.582   5.858   3.377  0.4639  0.0303 -0.1400
62089SOL    HW192872  10.640   5.875   3.303  1.0333 -0.8802  0.0904
62089SOL    HW292873  10.529   5.938   3.384 -0.3423 -0.2456 -2.1918
62090SOL     OW92874   6.624   4.820   0.758  0.3485 -0.1628  0.4492
62090SOL    HW192875   6.720   4.816   0.765  0.4737  0.8367 -0.4393
62090SOL    HW292876   6.608   4.838   0.666 -0.6445  1.3370  0.8920
62091SOL     OW92877  12.418   2.351   0.196  0.1153  0.0521 -0.1649
62091SOL    HW192878  12.456   2.322   0.113 -0.4857  0.8396 -0.7284
62091SOL    HW292879  12.403   2.270   0.245 -1.1249 -0.5765 -1.5267
62092SOL     OW92880   9.122   2.960  10.858  0.9657 -0.1053 -0.3462
62092SOL    HW192881   9.171   3.021  10.913 -0.8783  2.5059 -1.4491
62092SOL    HW292882   9.122   3.000  10.771 -1.2473 -1.1370 -0.8812
62093SOL     OW92883   0.958   8.149   4.065  0.1869 -0.1129 -0.1917
62093SOL    HW192884   0.985   8.059   4.080  1.1055 -0.0954 -1.6495
62093SOL    HW292885   0.933   8.153   3.973  1.0308  1.3272 -0.3951
62094SOL     OW92886   4.943   5.949   5.948  0.0550  0.1103 -0.2806
62094SOL    HW192887   4.923   5.856   5.957  1.4448 -0.3214 -1.1461
62094SOL    HW292888   5.004   5.968   6.020  1.1363 -0.1196 -1.1031
62095SOL     OW92889   8.021   8.345   1.549  0.2753 -0.2507 -0.1089
62095SOL    HW192890   7.971   8.267   1.574 -0.8586  0.4987  0.0270
62095SOL    HW292891   7.980   8.417   1.598 -1.5186  1.1441 -3.3381
62096SOL     OW92892   2.989   7.909   1.766  0.1143 -0.2621 -0.0846
62096SOL    HW192893   2.954   7.941   1.849 -1.1611 -0.2874 -0.6000
62096SOL    HW292894   3.042   7.832   1.790 -1.0673 -0.8835  0.6124
62097SOL     OW92895   1.050   2.090  12.350 -0.3249  0.4207 -0.1756
62097SOL    HW192896   0.965   2.047  12.347 -0.4091  0.6319 -1.0500
62097SOL    HW292897   1.083   2.085  12.260  0.7183  0.0837  0.2132
62098SOL     OW92898   5.900  10.207   1.809  0.1469  0.1644  0.4130
62098SOL    HW192899   5.823  10.258   1.832  0.9678  2.0841 -0.7930
62098SOL    HW292900   5.866  10.127   1.771 -1.2911  1.1777 -0.5458
62099SOL     OW92901   7.512   0.067   2.239  0.1410 -0.5908  0.1809
62099SOL    HW192902   7.433   0.050   2.290 -0.1025 -0.5276 -0.1697
62099SOL    HW292903   7.514  -0.003   2.173  0.6402 -0.8753  0.4902
62100SOL     OW92904  11.804   1.779   2.120  0.5420 -0.3485 -0.4623
62100SOL    HW192905  11.875   1.835   2.153 -1.2126  1.7556 -0.0557
62100SOL    HW292906  11.734   1.789   2.184 -1.2095  0.0371 -2.3594
62101SOL     OW92907  11.440   2.467   9.262 -0.0068 -0.4304  0.4024
62101SOL    HW192908  11.484   2.522   9.327  1.8025 -1.7245  0.3532
62101SOL    HW292909  11.504   2.398   9.242 -1.2653 -1.1695 -1.3156
62102SOL     OW92910  10.704   6.965   6.264 -0.3396 -0.6112 -0.2248
62102SOL    HW192911  10.751   7.046   6.282 -1.0650 -0.0102 -0.9472
62102SOL    HW292912  10.740   6.902   6.326  0.0253  0.3355  0.5560
62103SOL     OW92913   7.737   8.002   8.286 -0.0763 -0.5233 -0.2302
62103SOL    HW192914   7.656   8.052   8.279 -0.1451 -0.7386 -0.9827
62103SOL    HW292915   7.745   7.983   8.380 -0.9505 -0.5987 -0.1679
62104SOL     OW92916  10.711   1.642   2.926  0.0693 -0.3987 -0.0972
62104SOL    HW192917  10.686   1.685   3.008  0.3994 -0.4594  0.0377
62104SOL    HW292918  10.650   1.677   2.861 -0.3989 -0.5873  0.2335
62105SOL     OW92919  11.550   3.331   3.729 -0.3441 -0.4456  0.4071
62105SOL    HW192920  11.525   3.264   3.666 -0.6566 -1.4710  1.5706
62105SOL    HW292921  11.467   3.359   3.768 -0.0709 -0.6304  1.1384
62106SOL     OW92922  10.003   5.668   6.512  0.1661  0.2614  0.2561
62106SOL    HW192923   9.956   5.667   6.428  0.6091 -0.4751  0.0044
62106SOL    HW292924   9.970   5.592   6.559  0.3736  0.3152  0.4902
62107SOL     OW92925   7.617  10.373  12.506  0.9564  0.2739  0.2252
62107SOL    HW192926   7.584  10.332  12.586  0.4145  0.5171  0.1291
62107SOL    HW292927   7.692  10.424  12.535  1.2722 -0.2963  0.4441
62108SOL     OW92928   4.324  10.587   5.846  0.3977  0.1450 -0.3760
62108SOL    HW192929   4.336  10.504   5.892 -0.9956 -0.2784 -0.7444
62108SOL    HW292930   4.320  10.563   5.753  2.0846  0.8755 -0.6860
62109SOL     OW92931   1.542   8.678  12.595 -0.4040  0.5473  0.2596
62109SOL    HW192932   1.571   8.731  12.668  0.2143  3.6323 -2.0221
62109SOL    HW292933   1.446   8.684  12.597 -0.5557 -1.4383  2.1088
62110SOL     OW92934   4.023   2.679   4.449 -0.2244 -0.2641 -0.3617
62110SOL    HW192935   4.017   2.615   4.378  0.2897 -0.6156 -0.0948
62110SOL    HW292936   4.027   2.626   4.529 -2.1178  0.1435  0.0493
62111SOL     OW92937   8.630   8.042   1.643  0.1300 -0.1179 -0.3766
62111SOL    HW192938   8.713   8.063   1.600 -1.0162 -0.7144 -3.0656
62111SOL    HW292939   8.607   8.122   1.690  1.8029  0.3381 -0.2704
62112SOL     OW92940   0.711   1.595   4.426 -0.3515  0.4013  0.2104
62112SOL    HW192941   0.688   1.569   4.515  0.1004  1.0598  0.5291
62112SOL    HW292942   0.694   1.518   4.373 -0.4579 -0.0545  0.8978
62113SOL     OW92943   9.263  12.187   2.317  0.1861  0.4609 -0.4276
62113SOL    HW192944   9.349  12.220   2.294  0.1384  0.7925 -0.1256
62113SOL    HW292945   9.274  12.092   2.320  0.4801  0.4874 -0.6291
62114SOL     OW92946   9.351   3.739  11.794  0.4955 -0.2810  0.4976
62114SOL    HW192947   9.385   3.657  11.758  1.8218 -0.1222  1.2893
62114SOL    HW292948   9.267   3.715  11.833 -0.0648 -0.8329 -1.0042
62115SOL     OW92949   9.477   9.360   3.112 -0.2636  0.2841  0.0509
62115SOL    HW192950   9.549   9.299   3.126 -1.6079 -1.2859  0.4240
62115SOL    HW292951   9.425   9.356   3.192 -1.1679  0.8222 -0.4833
62116SOL     OW92952   7.199  12.010   0.477  0.3910 -0.2619 -0.6071
62116SOL    HW192953   7.209  12.101   0.447 -0.7933  0.1056  0.0305
62116SOL    HW292954   7.234  11.957   0.405  1.2883  0.6966 -0.9026
62117SOL     OW92955   5.391  12.545   6.063  0.0418  0.2392  0.2921
62117SOL    HW192956   5.335  12.495   6.003 -0.9587  0.9907  0.5678
62117SOL    HW292957   5.429  12.479   6.121 -1.3615 -0.1974  0.7442
62118SOL     OW92958  10.379  11.250   8.161  0.8267 -0.3759 -0.3523
62118SOL    HW192959  10.324  11.325   8.184 -0.7219 -1.4789 -0.2529
62118SOL    HW292960  10.451  11.287   8.111 -0.4156  1.0915 -1.1455
62119SOL     OW92961   3.495   0.443   6.012 -0.6024 -0.0548  1.0648
62119SOL    HW192962   3.532   0.482   5.933  0.4476 -0.5688  1.2843
62119SOL    HW292963   3.454   0.517   6.058 -0.0063  0.5026  0.7154
62120SOL     OW92964   4.755   5.901   8.123 -0.9259 -0.1755 -0.1890
62120SOL    HW192965   4.817   5.961   8.082 -0.7588  0.8701  1.4753
62120SOL    HW292966   4.670   5.926   8.089 -1.0384  2.0012  1.4511
62121SOL     OW92967   0.392  10.000  11.731  0.5396  0.2390  0.0928
62121SOL    HW192968   0.460  10.050  11.685  0.9631  1.2331  1.7137
62121SOL    HW292969   0.353  10.063  11.792 -0.0978 -0.9670  0.9782
62122SOL     OW92970  10.840  10.917   4.577  0.3261 -0.3822  0.2477
62122SOL    HW192971  10.747  10.901   4.595 -0.0024  1.4371  0.3830
62122SOL    HW292972  10.860  10.998   4.624  1.7428 -0.2339 -0.5450
62123SOL     OW92973   2.330   6.468   1.244  0.2386  0.2787 -0.3194
62123SOL    HW192974   2.341   6.544   1.187  1.8414 -0.2661 -0.7702
62123SOL    HW292975   2.296   6.400   1.186  0.9407  0.0062 -0.4120
62124SOL     OW92976   1.264   6.211   8.596 -0.3732 -0.2621  0.0118
62124SOL    HW192977   1.286   6.303   8.611 -0.4857 -0.6204  2.9260
62124SOL    HW292978   1.330   6.180   8.534  0.1172  1.5724 -0.4488
62125SOL     OW92979   0.053   7.650   7.906  0.5803 -0.1339  0.2011
62125SOL    HW192980   0.113   7.715   7.870 -0.0055  0.9942  1.1869
62125SOL    HW292981  -0.034   7.689   7.895  0.2374 -0.6324  1.0588
62126SOL     OW92982  10.225  12.555   7.269  0.1501  0.3838 -0.4498
62126SOL    HW192983  10.137  12.540   7.233 -0.1637  1.7226 -0.2768
62126SOL    HW292984  10.274  12.596   7.198  0.9922 -1.2935 -0.9009
62127SOL     OW92985   5.404   9.288   4.037  0.2848 -0.1001 -0.1578
62127SOL    HW192986   5.380   9.377   4.014  0.8032 -0.3087 -1.6206
62127SOL    HW292987   5.494   9.278   4.006 -0.1267 -1.4587 -1.0194
62128SOL     OW92988  12.157   6.520   1.770  0.1850 -0.0123  0.4532
62128SOL    HW192989  12.159   6.613   1.792 -0.3066  0.6900 -2.1484
62128SOL    HW292990  12.064   6.497   1.770  0.0108  0.4670 -2.3534
62129SOL     OW92991   3.557   2.091   1.872 -0.5926  0.2066  0.2539
62129SOL    HW192992   3.628   2.146   1.838 -1.4016 -0.0939 -2.1159
62129SOL    HW292993   3.590   2.057   1.955  2.1868 -0.1843 -0.9187
62130SOL     OW92994   5.447   3.284   8.557  0.0251  0.1135 -0.3470
62130SOL    HW192995   5.402   3.365   8.583  0.2455  0.3558 -0.6974
62130SOL    HW292996   5.485   3.251   8.638  0.3064  0.6050 -0.2687
62131SOL     OW92997   8.126   6.184   9.168 -0.6972 -0.4822  0.2022
62131SOL    HW192998   8.199   6.241   9.142  0.2091 -0.7551  2.0302
62131SOL    HW292999   8.061   6.197   9.099  0.4966  0.8414 -0.7509
62132SOL     OW93000   5.852  11.784   7.134 -0.0405  0.1160 -0.8617
62132SOL    HW193001   5.871  11.708   7.080  0.5795 -0.0435 -0.4383
62132SOL    HW293002   5.927  11.842   7.121 -0.9636  1.0942 -1.9293
62133SOL     OW93003   6.368   1.095   9.444 -0.3897 -0.4236 -0.0571
62133SOL    HW193004   6.381   1.185   9.414  1.6537 -1.1227 -1.4540
62133SOL    HW293005   6.390   1.097   9.537  1.4610  0.2031 -0.4691
62134SOL     OW93006   4.510   3.695   4.672 -0.1950  0.5818 -0.4605
62134SOL    HW193007   4.545   3.758   4.735  0.0716 -1.4962  1.6003
62134SOL    HW293008   4.568   3.619   4.679 -3.2584 -1.9020  1.0125
62135SOL     OW93009   0.211   7.653   4.583  0.2494  0.3869  0.3479
62135SOL    HW193010   0.270   7.622   4.514  0.7199 -0.3644  1.0654
62135SOL    HW293011   0.256   7.729   4.621 -0.2921  1.1732 -0.5527
62136SOL     OW93012   3.437   9.780   0.781  0.6083  0.1750 -0.1987
62136SOL    HW193013   3.355   9.734   0.799  0.9076  0.1987  1.3777
62136SOL    HW293014   3.487   9.721   0.725  0.7879 -1.2499  1.3940
62137SOL     OW93015  11.537   1.945   7.413  0.9457 -0.2783  0.1040
62137SOL    HW193016  11.620   1.980   7.382  0.0313  1.8169 -0.1546
62137SOL    HW293017  11.494   2.019   7.455 -1.7856 -0.6362 -1.7992
62138SOL     OW93018  12.458   6.135   4.184  0.1347  0.6874 -0.5297
62138SOL    HW193019  12.450   6.040   4.184  1.5873  0.5241 -1.8890
62138SOL    HW293020  12.447   6.159   4.092 -0.7035  1.9097 -0.1399
62139SOL     OW93021  11.674   8.102  12.733 -0.4194 -0.2687  0.3591
62139SOL    HW193022  11.723   8.177  12.767 -1.8861  0.3139  1.2728
62139SOL    HW293023  11.625   8.138  12.659  0.6554 -0.9065 -0.7086
62140SOL     OW93024   0.194  12.039   8.661  0.1117 -0.6730  0.5576
62140SOL    HW193025   0.105  12.004   8.661 -0.1234 -0.1251  1.4729
62140SOL    HW293026   0.202  12.083   8.745  1.2191 -0.6168  0.4401
62141SOL     OW93027   0.985   8.464   2.881  0.4722  0.2877  0.0537
62141SOL    HW193028   0.899   8.472   2.840 -0.1442 -0.8491  1.0444
62141SOL    HW293029   0.972   8.496   2.971  0.2022 -2.7133  1.2081
62142SOL     OW93030  10.534  12.331   4.130  0.3949 -0.6146  0.5056
62142SOL    HW193031  10.483  12.392   4.076  1.2668 -2.0190 -2.1219
62142SOL    HW293032  10.471  12.264   4.156  0.3150 -0.8917 -0.3705
62143SOL     OW93033   9.282   7.794   7.636  0.2534  0.4349  0.1022
62143SOL    HW193034   9.376   7.791   7.618 -0.2011 -1.0090 -2.6635
62143SOL    HW293035   9.247   7.860   7.575 -0.6122  0.3438  0.4814
62144SOL     OW93036  11.427   0.054   6.869 -0.5036  0.0105 -0.5229
62144SOL    HW193037  11.362  -0.006   6.833  1.7246 -1.2258 -2.7550
62144SOL    HW293038  11.511   0.013   6.850  1.0762  2.9925 -0.5308
62145SOL     OW93039   9.208   0.227   3.266 -0.1949 -0.0762 -0.4973
62145SOL    HW193040   9.143   0.158   3.250 -0.0410 -0.4507  0.4491
62145SOL    HW293041   9.271   0.216   3.195 -0.0005 -1.1292 -0.1831
62146SOL     OW93042   3.352   4.467   1.777 -0.0764 -0.3220 -0.0972
62146SOL    HW193043   3.321   4.548   1.735  0.1123  0.4710  1.2383
62146SOL    HW293044   3.440   4.454   1.742 -0.2460 -0.1707 -0.5979
62147SOL     OW93045   0.972   0.213  11.933  0.3364 -0.3861 -0.4223
62147SOL    HW193046   0.879   0.225  11.954 -0.0112 -2.2789 -0.6963
62147SOL    HW293047   0.988   0.120  11.948  2.0891 -0.1805 -0.8146
62148SOL     OW93048   0.208   0.248   2.984 -0.2745 -0.0162 -0.0467
62148SOL    HW193049   0.177   0.205   3.064 -1.2286  1.9425  0.7180
62148SOL    HW293050   0.274   0.311   3.014 -2.1968  2.3276 -0.3811
62149SOL     OW93051  12.473   1.806  11.747  0.2303 -0.0504 -0.1337
62149SOL    HW193052  12.504   1.895  11.732 -0.2544  0.6024  2.2898
62149SOL    HW293053  12.413   1.788  11.675 -1.9835  2.7552  0.8294
62150SOL     OW93054   3.007   1.710   5.230  0.6004  0.5466 -0.2598
62150SOL    HW193055   3.077   1.647   5.214 -3.0723 -4.2278  0.2193
62150SOL    HW293056   3.001   1.714   5.326 -0.4445 -0.0564 -0.2849
62151SOL     OW93057   1.811   8.425   9.003 -0.0200 -0.3816 -0.2769
62151SOL    HW193058   1.878   8.383   8.948  0.2943 -0.8607  0.4526
62151SOL    HW293059   1.738   8.363   9.003  0.1542 -0.5915  0.1982
62152SOL     OW93060  12.262   4.127   0.696  0.4754 -0.0002  0.6117
62152SOL    HW193061  12.335   4.125   0.635  0.0964  0.6721  0.1247
62152SOL    HW293062  12.192   4.081   0.651  0.6798 -0.9016  1.1983
62153SOL     OW93063   0.484   6.478  12.072  0.1879  0.3310 -0.1053
62153SOL    HW193064   0.473   6.556  12.017 -2.6146 -0.1113 -0.3245
62153SOL    HW293065   0.521   6.510  12.154  1.5608  1.4456 -1.1118
62154SOL     OW93066   8.713  10.095  11.827 -0.3666  0.7453  0.2205
62154SOL    HW193067   8.668  10.035  11.886 -1.6197  0.0062 -1.4055
62154SOL    HW293068   8.710  10.180  11.872 -0.5723  0.0684  1.5369
62155SOL     OW93069   1.318   7.279   4.352 -0.1827  0.0434  0.1880
62155SOL    HW193070   1.302   7.367   4.317 -0.3686 -0.0062  0.1482
62155SOL    HW293071   1.309   7.221   4.276  0.5577  0.0491  0.0850
62156SOL     OW93072   9.176   3.582   6.526 -1.1734 -0.2201  0.7389
62156SOL    HW193073   9.221   3.635   6.461  0.8711 -0.8207  1.5799
62156SOL    HW293074   9.160   3.642   6.599 -2.5111  0.1928  0.1255
62157SOL     OW93075   7.086  12.545   0.523  0.1196 -0.7154 -0.0796
62157SOL    HW193076   7.118  12.577   0.438 -1.2855 -0.3960 -0.5180
62157SOL    HW293077   7.114  12.612   0.585  1.6304 -1.2171 -0.1781
62158SOL     OW93078   5.767   5.646   0.359 -0.2596 -0.4313  0.4817
62158SOL    HW193079   5.822   5.635   0.282  0.4969  1.1244  0.7509
62158SOL    HW293080   5.807   5.590   0.426 -0.8977 -1.7534 -0.2043
62159SOL     OW93081   9.813   6.534  11.642  0.3964  0.2713 -0.1208
62159SOL    HW193082   9.863   6.531  11.561  1.4467  1.0649  0.4589
62159SOL    HW293083   9.810   6.444  11.673 -1.3975 -0.2971 -1.8185
62160SOL     OW93084   7.483   6.816   0.765 -0.1178 -0.2127 -0.1212
62160SOL    HW193085   7.537   6.743   0.733  0.0989 -0.6727  1.2199
62160SOL    HW293086   7.518   6.893   0.720 -0.0615 -0.8624 -1.2299
62161SOL     OW93087   2.694   7.682   0.362 -0.1720  0.1697 -0.2255
62161SOL    HW193088   2.633   7.740   0.317 -0.0979 -1.3573 -2.4751
62161SOL    HW293089   2.776   7.692   0.313 -0.1325 -1.6653 -0.6089
62162SOL     OW93090  10.649  11.869   8.051 -0.1029  0.0802 -0.5704
62162SOL    HW193091  10.604  11.865   7.967 -0.0831 -1.9380 -0.5297
62162SOL    HW293092  10.741  11.854   8.029 -0.1069 -0.5124 -0.1873
62163SOL     OW93093   4.899   4.398  11.079  0.3950 -0.3756 -0.0477
62163SOL    HW193094   4.950   4.321  11.103 -0.7566 -1.2330 -0.2637
62163SOL    HW293095   4.810   4.378  11.108  0.4264  1.7476  1.7814
62164SOL     OW93096   7.327   7.571   5.165 -0.3640 -0.0333 -0.8773
62164SOL    HW193097   7.298   7.657   5.133 -1.6286 -0.5562 -1.1576
62164SOL    HW293098   7.368   7.531   5.088  0.3745  0.3646 -0.7047
62165SOL     OW93099   4.290   1.305   0.061 -0.2803  0.0189  0.4198
62165SOL    HW193100   4.285   1.400   0.049  0.5809 -0.0766 -0.8539
62165SOL    HW293101   4.343   1.274  -0.013 -2.1912 -1.6747 -0.3327
62166SOL     OW93102   6.777  11.891   7.099 -0.8100 -0.0952 -0.0141
62166SOL    HW193103   6.748  11.919   7.013 -0.5908  0.4791  0.0972
62166SOL    HW293104   6.727  11.944   7.161  0.1293  0.5964  0.1840
62167SOL     OW93105   0.667  11.688  10.406 -0.3647 -0.4734  0.1078
62167SOL    HW193106   0.596  11.650  10.354 -0.8316 -0.9742  1.0717
62167SOL    HW293107   0.629  11.700  10.493  0.4164  0.2735  0.3611
62168SOL     OW93108   5.437   5.968   5.639 -0.4616  0.3319  0.0339
62168SOL    HW193109   5.493   5.950   5.715  0.1551 -0.7619 -0.6414
62168SOL    HW293110   5.349   5.976   5.675 -0.2639 -0.7415  0.8063
62169SOL     OW93111   0.979   6.999   0.667 -0.1927  0.2731 -0.4551
62169SOL    HW193112   0.955   6.915   0.705  1.0895  0.3562  0.5842
62169SOL    HW293113   0.903   7.024   0.614 -1.2403 -0.7479  0.5297
62170SOL     OW93114   5.983   0.317  10.838  0.2584  0.1846 -0.3462
62170SOL    HW193115   6.059   0.295  10.783 -0.2736 -0.8667 -0.6930
62170SOL    HW293116   5.976   0.245  10.900 -1.3702 -0.5893 -1.3301
62171SOL     OW93117   9.948  11.042  12.362 -0.7440  0.2458 -0.1979
62171SOL    HW193118  10.031  11.050  12.314 -0.5122 -1.3523 -0.1136
62171SOL    HW293119   9.930  11.131  12.392  1.9805  0.3574  1.4902
62172SOL     OW93120   9.591   8.118   4.216  0.2886 -0.2249 -0.6063
62172SOL    HW193121   9.681   8.136   4.190  0.2242  2.0374  0.4591
62172SOL    HW293122   9.598   8.076   4.301  0.3374 -1.2181 -1.0866
62173SOL     OW93123   0.996   8.902  11.313  0.0362 -0.0601  0.5330
62173SOL    HW193124   1.064   8.968  11.300 -0.7087  0.6720  0.3257
62173SOL    HW293125   0.942   8.935  11.385 -1.6705  0.6923 -1.0155
62174SOL     OW93126   4.423   6.031   6.159  0.2800  0.0310 -0.4873
62174SOL    HW193127   4.344   6.033   6.213  0.2607  0.5167 -0.5290
62174SOL    HW293128   4.492   6.061   6.218  0.5451 -0.9583 -0.2782
62175SOL     OW93129   7.761   0.557   6.353  0.6664 -0.1645 -0.2954
62175SOL    HW193130   7.824   0.522   6.416 -0.1736 -2.0616 -0.4456
62175SOL    HW293131   7.690   0.493   6.352 -1.3698  1.9531 -0.0343
62176SOL     OW93132   8.841  12.741   5.352  0.4583 -0.6768 -0.2122
62176SOL    HW193133   8.909  12.796   5.313  0.9857 -1.5375 -0.5094
62176SOL    HW293134   8.764  12.757   5.298  1.1292 -1.7196 -1.5324
62177SOL     OW93135   4.268  11.933   3.722  0.3348  0.5452 -0.0004
62177SOL    HW193136   4.178  11.962   3.738 -0.4286 -1.1419 -1.0339
62177SOL    HW293137   4.319  11.976   3.790 -1.4800  0.3599  1.5510
62178SOL     OW93138   7.413   4.616   2.880  0.3337  0.8400  0.4248
62178SOL    HW193139   7.407   4.691   2.820 -1.1245 -0.6621 -1.4342
62178SOL    HW293140   7.340   4.627   2.940  1.6201  2.1885  1.8478
62179SOL     OW93141  11.753  11.257   2.822 -0.0272  0.2408  0.6876
62179SOL    HW193142  11.846  11.270   2.843  0.5854 -1.8971 -0.3837
62179SOL    HW293143  11.709  11.252   2.906  0.5487  2.6785  1.2163
62180SOL     OW93144   6.692   4.205   6.172 -0.5572 -0.5769 -0.1150
62180SOL    HW193145   6.616   4.151   6.150 -0.4735  0.1037 -2.3497
62180SOL    HW293146   6.725   4.168   6.254 -3.1283 -1.0243  0.8112
62181SOL     OW93147   1.764   0.660  12.436  0.0415  0.5231 -0.7019
62181SOL    HW193148   1.759   0.688  12.527 -1.7074  0.1970 -0.6804
62181SOL    HW293149   1.735   0.569  12.436  2.1449 -0.2240 -1.3071
62182SOL     OW93150   5.760   1.871   9.280 -0.3059 -0.0979 -0.4208
62182SOL    HW193151   5.831   1.928   9.309 -0.8789  0.2143  0.4203
62182SOL    HW293152   5.689   1.888   9.341 -0.8340 -1.0024 -0.7530
62183SOL     OW93153   3.693   5.052   2.196 -0.5546 -0.0780 -0.6308
62183SOL    HW193154   3.635   5.082   2.267  1.6553  1.8607  0.4941
62183SOL    HW293155   3.746   4.984   2.236 -0.5570 -0.2918 -0.9916
62184SOL     OW93156   0.755   6.796  10.617 -0.8930 -0.4057  0.1906
62184SOL    HW193157   0.747   6.865  10.682  0.2511 -2.4321  2.6209
62184SOL    HW293158   0.797   6.724  10.662  3.6097 -0.7184 -3.7313
62185SOL     OW93159   6.679  12.364   1.321 -0.4528 -0.1434  0.0759
62185SOL    HW193160   6.586  12.386   1.319 -0.7708 -1.4318 -0.0358
62185SOL    HW293161   6.709  12.397   1.406 -1.1937 -0.3917  0.4411
62186SOL     OW93162   2.802   6.155   9.214  0.3568 -0.3662 -0.2920
62186SOL    HW193163   2.710   6.173   9.231  0.6419 -0.2298  1.2477
62186SOL    HW293164   2.806   6.060   9.201  0.2743 -0.7057  1.8450
62187SOL     OW93165   5.632   6.049   5.463 -0.5964 -0.0105 -0.2676
62187SOL    HW193166   5.547   6.038   5.504 -0.2127  0.8316  0.7948
62187SOL    HW293167   5.613   6.057   5.370 -1.6223 -0.4119 -0.1005
62188SOL     OW93168   9.013   5.263   0.219  0.5056  0.0275 -0.0775
62188SOL    HW193169   9.071   5.272   0.144  0.8115 -0.2303  0.1289
62188SOL    HW293170   9.071   5.260   0.295  0.2154 -0.0482  0.1445
62189SOL     OW93171   7.068   5.845   9.637  0.2988 -0.2817 -0.7469
62189SOL    HW193172   6.984   5.846   9.592 -0.7253 -1.1994  1.0752
62189SOL    HW293173   7.090   5.753   9.646 -0.3872 -0.2589  2.0646
62190SOL     OW93174   6.121   1.118   7.840 -0.3106  0.4300  0.3764
62190SOL    HW193175   6.168   1.099   7.921 -0.9342 -1.7510  0.2854
62190SOL    HW293176   6.130   1.213   7.829  2.3438  0.3676  1.3758
62191SOL     OW93177   4.762   9.433   8.746  0.4712 -1.0537 -0.3131
62191SOL    HW193178   4.690   9.407   8.802  0.2470  1.4484  0.6962
62191SOL    HW293179   4.730   9.420   8.657 -2.4236  2.4448 -0.0111
62192SOL     OW93180   1.147   3.611   1.418  0.2941 -0.5011 -0.8161
62192SOL    HW193181   1.076   3.621   1.482  0.5195  0.0287 -0.6517
62192SOL    HW293182   1.148   3.517   1.400  0.3555 -0.6904  0.1063
62193SOL     OW93183   4.163   7.684   5.783 -0.0103  0.2582  0.0217
62193SOL    HW193184   4.224   7.757   5.767  0.9264 -0.5288 -0.0893
62193SOL    HW293185   4.095   7.722   5.839  1.3512  0.8163  1.3869
62194SOL     OW93186  10.861   1.433   8.154 -0.2000 -0.1652  0.2251
62194SOL    HW193187  10.934   1.422   8.216 -0.7370 -0.9355  0.7352
62194SOL    HW293188  10.794   1.373   8.186 -1.5292  1.3824  0.4487
62195SOL     OW93189   8.140  10.054   6.564 -0.5733 -0.0801  0.1416
62195SOL    HW193190   8.163   9.990   6.496 -0.2582  1.0374 -0.8516
62195SOL    HW293191   8.100  10.127   6.515  0.5318  1.1683  1.0281
62196SOL     OW93192   9.653   0.144   2.277 -0.0597 -0.0728 -0.2922
62196SOL    HW193193   9.735   0.171   2.319 -0.1539 -1.5586  0.9545
62196SOL    HW293194   9.594   0.127   2.350 -0.9052 -0.7684 -1.1157
62197SOL     OW93195   9.269  11.924   6.836  0.1922 -0.1628  0.3814
62197SOL    HW193196   9.183  11.945   6.872 -0.3032 -0.3281 -0.6698
62197SOL    HW293197   9.330  11.941   6.907 -0.5974  1.0185  0.7937
62198SOL     OW93198   6.862   5.995  10.104  0.1358 -0.0039  0.1525
62198SOL    HW193199   6.911   6.044  10.038 -0.8456  1.3531  0.3807
62198SOL    HW293200   6.916   5.918  10.121  2.5687  1.7125  0.8837
62199SOL     OW93201   7.075   0.420   9.004  0.1001  0.1412 -0.2997
62199SOL    HW193202   7.049   0.361   8.933  0.4738  1.1657 -1.3214
62199SOL    HW293203   7.015   0.494   8.996 -0.5104 -0.1634  1.1135
62200SOL     OW93204   4.198   9.704   6.534  0.3562 -0.3249 -0.0592
62200SOL    HW193205   4.125   9.765   6.526  2.3689  2.4177  1.0609
62200SOL    HW293206   4.169   9.640   6.599 -1.7731 -0.5430 -1.1588
62201SOL     OW93207   8.673   2.343  11.589  0.5069  0.1829  0.0437
62201SOL    HW193208   8.712   2.257  11.573 -1.7846 -0.6128 -1.8088
62201SOL    HW293209   8.725   2.403  11.536  0.1160 -0.6503 -1.3494
62202SOL     OW93210  11.849  10.823   9.231 -0.3268 -0.3131  0.1608
62202SOL    HW193211  11.843  10.918   9.237 -0.2286 -0.3694  1.4153
62202SOL    HW293212  11.915  10.807   9.163 -0.2738  0.5091  0.0125
62203SOL     OW93213  10.952   9.297  12.205 -0.4509 -0.8769  0.0134
62203SOL    HW193214  10.966   9.386  12.171 -0.6939 -0.0829  1.8400
62203SOL    HW293215  10.895   9.256  12.140 -0.3549  0.3098 -0.8693
62204SOL     OW93216   7.449  11.939   4.442 -0.0496 -0.2293  0.5241
62204SOL    HW193217   7.541  11.953   4.463  0.2346  0.6186 -1.1752
62204SOL    HW293218   7.402  11.986   4.511  0.8541  2.1115 -0.3469
62205SOL     OW93219   0.292  11.154   5.399 -0.1293  0.5293 -0.1293
62205SOL    HW193220   0.283  11.245   5.372  0.4023 -0.0017 -2.2704
62205SOL    HW293221   0.385  11.134   5.386  0.0462  0.0120  1.5736
62206SOL     OW93222   0.080   9.363   0.079 -0.0347 -0.0360  0.3979
62206SOL    HW193223   0.087   9.274   0.045 -0.5007 -0.0268  0.2675
62206SOL    HW293224  -0.011   9.389   0.061  0.1442  0.5318  0.2682
62207SOL     OW93225   1.379   1.102   5.403 -0.1794  0.2181 -0.1088
62207SOL    HW193226   1.459   1.132   5.446  1.1407 -0.0811 -2.1978
62207SOL    HW293227   1.389   1.007   5.396  0.1620  0.3345 -1.8862
62208SOL     OW93228   6.767   6.814   7.040 -0.2597 -0.5570 -0.5339
62208SOL    HW193229   6.701   6.877   7.009  1.3745  1.3983 -0.2489
62208SOL    HW293230   6.757   6.814   7.135  0.7614  0.5416 -0.3984
62209SOL     OW93231   2.858  12.240   0.301 -0.6348 -0.6201 -0.3152
62209SOL    HW193232   2.864  12.251   0.206 -0.5854 -0.7267 -0.3249
62209SOL    HW293233   2.944  12.265   0.334 -0.6249 -0.6663 -0.3064
62210SOL     OW93234   1.957   1.772   4.739 -0.2701  0.1769 -0.2786
62210SOL    HW193235   2.041   1.725   4.733 -0.4008 -0.0847 -0.0891
62210SOL    HW293236   1.923   1.772   4.650  1.0630  2.4095 -0.8574
62211SOL     OW93237   3.436   1.793   1.531 -0.0505 -0.0060  0.1009
62211SOL    HW193238   3.478   1.752   1.456 -0.1628  1.8373 -1.0520
62211SOL    HW293239   3.360   1.738   1.550  0.0945 -0.6079 -1.0115
62212SOL     OW93240   8.622   8.469   0.144 -0.1435 -0.0999 -0.5566
62212SOL    HW193241   8.686   8.472   0.073 -1.1660 -0.6499 -1.5287
62212SOL    HW293242   8.635   8.383   0.184 -0.0974 -0.0994 -0.5704
62213SOL     OW93243  11.184   6.154   7.860 -0.7290  0.2915 -0.1851
62213SOL    HW193244  11.150   6.103   7.787 -0.1366  0.3216 -0.4893
62213SOL    HW293245  11.230   6.227   7.819 -2.4415  1.6893  0.2443
62214SOL     OW93246   7.831  11.561   9.152  0.0884 -0.4514 -0.2462
62214SOL    HW193247   7.809  11.478   9.110  1.5300 -1.5891  1.1581
62214SOL    HW293248   7.754  11.581   9.205 -0.4400 -0.6502 -0.9145
62215SOL     OW93249   0.729   6.003   8.876 -0.0836 -0.1724 -0.0566
62215SOL    HW193250   0.676   5.993   8.956  1.7127  0.6194  1.2976
62215SOL    HW293251   0.819   5.991   8.906  0.5836 -0.8494 -2.1825
62216SOL     OW93252  11.790   6.754   5.073 -0.7114  0.2062  0.3402
62216SOL    HW193253  11.713   6.808   5.054 -0.6014  0.7957  1.4762
62216SOL    HW293254  11.856   6.784   5.012 -0.2790  2.2330  1.7002
62217SOL     OW93255  11.201   4.959   9.379  0.2883 -0.4363  0.0526
62217SOL    HW193256  11.212   4.864   9.375 -3.4254 -0.9920 -1.6394
62217SOL    HW293257  11.142   4.973   9.453  0.5962  0.5468  0.1198
62218SOL     OW93258   6.894   5.381   8.854  0.3352  0.5066 -0.2003
62218SOL    HW193259   6.934   5.300   8.883 -0.1360  1.2885  2.9540
62218SOL    HW293260   6.966   5.444   8.849  0.1984  0.7655  0.9231
62219SOL     OW93261  11.415  11.518   5.245 -0.1376  0.5870 -1.0420
62219SOL    HW193262  11.506  11.535   5.221  0.4747 -1.1307 -0.1215
62219SOL    HW293263  11.406  11.559   5.331  0.3990 -0.9228 -0.2342
62220SOL     OW93264   1.501   5.574  11.820 -0.7404  0.1693 -0.2155
62220SOL    HW193265   1.570   5.624  11.777 -0.9667 -0.0126 -0.8065
62220SOL    HW293266   1.541   5.541  11.900 -0.4711  0.9623 -0.0225
62221SOL     OW93267   2.349   4.102   8.968 -0.1772 -0.4676  0.5416
62221SOL    HW193268   2.426   4.130   8.919 -0.0573 -1.0497  0.3935
62221SOL    HW293269   2.374   4.018   9.006 -1.0359 -1.0947 -0.2319
62222SOL     OW93270   4.627   9.629   8.117 -0.6129  0.5190 -0.1738
62222SOL    HW193271   4.674   9.548   8.097 -1.2293  0.2799 -0.6589
62222SOL    HW293272   4.560   9.603   8.181 -1.8116  0.3292 -1.4648
62223SOL     OW93273   9.024   6.398   3.543  0.5272  0.2374 -0.4124
62223SOL    HW193274   9.036   6.426   3.633  2.4938  1.5770 -1.0265
62223SOL    HW293275   8.993   6.307   3.550  0.5023  0.3611  1.5816
62224SOL     OW93276   1.536  11.738   2.770  0.3493 -0.4835 -0.2132
62224SOL    HW193277   1.456  11.687   2.777 -0.4177  0.6501 -0.5534
62224SOL    HW293278   1.563  11.727   2.678  0.8367 -1.2000  0.0010
62225SOL     OW93279  10.627   2.180  12.364  0.4864 -0.2332 -0.0649
62225SOL    HW193280  10.537   2.190  12.332  0.5033  1.9264  0.3707
62225SOL    HW293281  10.681   2.191  12.286  0.4447  2.7153  0.1973
62226SOL     OW93282   5.584  10.292   6.595  0.4048 -0.2698 -0.4921
62226SOL    HW193283   5.552  10.232   6.527 -1.0628  1.0220 -1.0146
62226SOL    HW293284   5.673  10.315   6.567  0.3018 -0.7839 -1.2640
62227SOL     OW93285   8.029   7.644   3.050 -0.7032 -0.7472 -0.1286
62227SOL    HW193286   8.074   7.609   2.973  1.4490  0.7207  0.3454
62227SOL    HW293287   8.018   7.568   3.107  0.5488 -1.3303 -0.6017
62228SOL     OW93288   6.914   3.650   1.931 -0.1192 -0.2009 -0.2550
62228SOL    HW193289   6.882   3.606   1.852  0.7817 -0.8746 -0.2591
62228SOL    HW293290   6.911   3.744   1.909 -1.0369 -0.3101 -0.6328
62229SOL     OW93291   2.502   8.251   2.726  0.2676  0.2054  0.2263
62229SOL    HW193292   2.593   8.244   2.699  0.1974 -1.8393  0.3785
62229SOL    HW293293   2.491   8.344   2.748  3.3236 -0.0064  3.7178
62230SOL     OW93294  11.261   8.342   7.189  0.6636 -0.3866 -0.1569
62230SOL    HW193295  11.255   8.309   7.278 -0.1600 -0.1313 -0.1157
62230SOL    HW293296  11.305   8.427   7.198  0.3021 -0.2220  0.0354
62231SOL     OW93297   4.967   8.757   3.098 -0.2050  0.0275  0.1194
62231SOL    HW193298   4.899   8.713   3.148 -0.9867 -0.3631 -1.2327
62231SOL    HW293299   5.049   8.719   3.129 -0.7155 -0.6621  0.6305
62232SOL     OW93300   6.784   1.482   0.584 -0.1689  0.0039  0.2348
62232SOL    HW193301   6.774   1.565   0.537 -1.5152 -0.5624 -0.5363
62232SOL    HW293302   6.863   1.443   0.547  1.5866  1.7385  1.9285
62233SOL     OW93303   0.444   3.979   8.433  0.4444 -0.5506  0.4841
62233SOL    HW193304   0.493   3.910   8.478  0.8593 -0.5370  0.0592
62233SOL    HW293305   0.396   3.933   8.363 -0.5028 -0.6303  1.1604
62234SOL     OW93306  11.610   0.816   8.373  0.4957  0.2129  0.0956
62234SOL    HW193307  11.557   0.744   8.341  0.8902 -0.8314  1.6782
62234SOL    HW293308  11.548   0.876   8.413  0.2449  0.4376 -0.6045
62235SOL     OW93309  10.018   8.624   3.676  0.2919 -0.0232  0.4210
62235SOL    HW193310  10.054   8.536   3.663  1.1060 -0.0132  2.3235
62235SOL    HW293311  10.087   8.671   3.723 -0.6044  1.2786  0.4692
62236SOL     OW93312   5.453   4.037  10.250  0.2458 -0.0153  1.0096
62236SOL    HW193313   5.452   3.959  10.304  2.0295 -0.3477  0.6140
62236SOL    HW293314   5.409   4.104  10.303 -1.3026 -1.2355  1.3503
62237SOL     OW93315   6.762   8.798   4.682 -0.2785 -0.2518 -0.0404
62237SOL    HW193316   6.763   8.768   4.773 -1.6904  1.3575  0.5619
62237SOL    HW293317   6.736   8.721   4.631 -1.4148 -0.6933  1.1511
62238SOL     OW93318   2.843   1.552  11.785  0.3490  0.3932  0.2782
62238SOL    HW193319   2.933   1.533  11.759  0.0949 -1.0715  0.4022
62238SOL    HW293320   2.802   1.587  11.706  0.8854  0.5935  0.0838
62239SOL     OW93321   3.135   6.165   1.280  0.0132 -0.0747 -0.9071
62239SOL    HW193322   3.149   6.077   1.313  1.0321 -0.0549 -1.2446
62239SOL    HW293323   3.202   6.218   1.325 -1.0480  0.6730 -0.1544
62240SOL     OW93324   6.429   3.566   0.740  0.2325 -0.3586 -0.2340
62240SOL    HW193325   6.366   3.523   0.682  1.4939 -2.4596 -0.1564
62240SOL    HW293326   6.493   3.498   0.761  2.1468  1.4720  0.2757
62241SOL     OW93327   5.472   9.581   3.395 -0.5451 -0.2288 -0.0255
62241SOL    HW193328   5.483   9.670   3.429 -0.7247 -0.8493  1.7675
62241SOL    HW293329   5.400   9.544   3.446  0.0572 -1.6852 -0.1656
62242SOL     OW93330   1.648   5.476  12.025 -0.4829  0.4390  0.1403
62242SOL    HW193331   1.615   5.530  12.098  0.2207 -1.1807  1.7298
62242SOL    HW293332   1.664   5.390  12.064  0.7385 -0.2512 -1.7514
62243SOL     OW93333  11.084   9.358  11.828 -0.1104  0.2334  0.4529
62243SOL    HW193334  10.990   9.372  11.836 -0.1293 -0.4843  1.7545
62243SOL    HW293335  11.121   9.446  11.822 -0.5072  0.9014  4.8775
62244SOL     OW93336   5.499   4.814   6.786 -0.0182  0.1051  0.2830
62244SOL    HW193337   5.509   4.719   6.791 -1.8614 -0.1307  0.1971
62244SOL    HW293338   5.492   4.843   6.877 -1.4792 -0.1277  0.2697
62245SOL     OW93339   3.786   5.192   9.045 -0.3444 -0.4955 -0.2890
62245SOL    HW193340   3.806   5.281   9.075  1.4195 -1.2656  0.9892
62245SOL    HW293341   3.801   5.137   9.121  2.4248 -2.3261 -1.9902
62246SOL     OW93342   5.219   8.802   1.281 -0.1892 -0.1819  0.3556
62246SOL    HW193343   5.282   8.868   1.253 -1.8101  0.5960 -1.7744
62246SOL    HW293344   5.269   8.720   1.284  1.1203  0.5701 -0.2942
62247SOL     OW93345  10.291   6.611   6.454  0.3753  0.3958 -0.2922
62247SOL    HW193346  10.224   6.679   6.450  0.3546  0.6529  2.4251
62247SOL    HW293347  10.252   6.542   6.508  1.2429 -0.8014 -1.1316
62248SOL     OW93348  12.313   7.806   6.213 -0.5805  0.5856  0.2732
62248SOL    HW193349  12.329   7.846   6.298 -1.0334 -0.2668  0.7744
62248SOL    HW293350  12.371   7.852   6.153 -0.6631  1.5732  0.9412
62249SOL     OW93351   1.703   8.248  12.103 -0.1442  0.1894  0.2284
62249SOL    HW193352   1.644   8.270  12.175 -0.7081 -1.0372  0.1799
62249SOL    HW293353   1.777   8.308  12.112 -0.9693  1.1471  0.8366
62250SOL     OW93354  12.401   3.755   9.784  0.2116 -0.2479 -0.3050
62250SOL    HW193355  12.405   3.669   9.824  1.5455  0.3381  0.9003
62250SOL    HW293356  12.308   3.770   9.769 -0.1979 -1.1481  1.1472
62251SOL     OW93357   5.162  10.395   1.098 -0.3138  0.1359 -0.2319
62251SOL    HW193358   5.079  10.393   1.147 -0.0844 -0.8360  0.1414
62251SOL    HW293359   5.154  10.472   1.042 -2.0272 -0.6450 -1.1572
62252SOL     OW93360  11.674   0.796   4.114 -0.4227  0.4806 -0.2889
62252SOL    HW193361  11.617   0.861   4.074 -0.4381  0.5351 -0.1808
62252SOL    HW293362  11.687   0.730   4.046 -1.1939  0.1003 -0.0772
62253SOL     OW93363   2.085   6.783   0.729  0.3023 -0.2997 -0.4664
62253SOL    HW193364   2.100   6.823   0.643 -2.9155  0.6560 -0.7135
62253SOL    HW293365   2.061   6.693   0.710  2.0750 -0.8424 -0.3133
62254SOL     OW93366   2.003   8.127   2.563  0.1452  0.5608  0.5967
62254SOL    HW193367   1.975   8.036   2.550  3.6704 -0.9204  2.0104
62254SOL    HW293368   1.960   8.154   2.645  1.0250 -0.8363  1.5676
62255SOL     OW93369   1.120   0.207   0.034  0.1757  0.0023  0.0993
62255SOL    HW193370   1.194   0.146   0.023 -0.1974 -0.1626 -2.0961
62255SOL    HW293371   1.140   0.278  -0.027 -2.0316 -0.6699 -1.5460
62256SOL     OW93372  11.332   2.660   3.834  0.4545 -0.4218 -0.0232
62256SOL    HW193373  11.392   2.654   3.909  0.5416  0.1315 -0.0457
62256SOL    HW293374  11.387   2.684   3.760  0.2970 -0.5331 -0.1795
62257SOL     OW93375   2.549   9.019   7.463  0.2203  0.0516  0.3072
62257SOL    HW193376   2.521   8.965   7.389 -0.4146 -0.7116  1.0861
62257SOL    HW293377   2.643   9.004   7.469  0.3666  0.4849 -0.6187
62258SOL     OW93378   8.965   8.186   5.292  0.5435 -0.1024 -0.0452
62258SOL    HW193379   8.909   8.244   5.343  0.4450  0.4056 -0.7279
62258SOL    HW293380   9.052   8.225   5.297  0.5272 -0.0350 -0.2989
62259SOL     OW93381   8.161   1.789   6.628  0.2536 -0.1225  0.5225
62259SOL    HW193382   8.215   1.804   6.705  0.7624  0.2517  0.0937
62259SOL    HW293383   8.220   1.802   6.554 -0.8114  2.1376 -0.0271
62260SOL     OW93384   5.723   4.443  11.209  0.1324 -0.6174 -0.3134
62260SOL    HW193385   5.748   4.495  11.133 -0.2324 -1.2184 -0.8515
62260SOL    HW293386   5.700   4.357  11.173  0.7094 -1.1510  0.5561
62261SOL     OW93387   9.518  11.782   2.311 -0.0341 -0.0328 -0.2025
62261SOL    HW193388   9.609  11.751   2.312 -0.6743 -2.0478 -0.8898
62261SOL    HW293389   9.496  11.794   2.403  0.7240 -0.1147 -0.0013
62262SOL     OW93390   2.352  12.730   5.893  0.1650  0.0224 -0.1120
62262SOL    HW193391   2.357  12.813   5.940 -0.0091 -0.0144 -0.0293
62262SOL    HW293392   2.440  12.693   5.902 -0.2634 -0.6848  1.5029
62263SOL     OW93393   3.929  10.453  11.773  0.5143  0.1735 -0.3464
62263SOL    HW193394   4.005  10.414  11.815  0.6583  0.3959 -0.3956
62263SOL    HW293395   3.966  10.507  11.703  0.3319  0.5139 -0.1847
62264SOL     OW93396   6.839   8.975  10.013  0.7049 -0.2089 -0.2216
62264SOL    HW193397   6.900   8.919  10.063  1.1525  0.8478  0.4418
62264SOL    HW293398   6.822   9.050  10.070 -1.4640 -0.5925 -0.2784
62265SOL     OW93399   9.997  10.269   7.945  0.2526 -0.0192  0.0916
62265SOL    HW193400  10.081  10.313   7.934 -1.1384  2.7946 -0.4084
62265SOL    HW293401   9.955  10.277   7.859 -0.8810 -0.4875  0.5803
62266SOL     OW93402  10.677   9.626   3.712  0.1045 -0.3185  0.2203
62266SOL    HW193403  10.639   9.668   3.789  0.4471 -0.8315  0.6803
62266SOL    HW293404  10.721   9.697   3.665  0.3439 -0.0838  0.7835
62267SOL     OW93405   2.457   2.480   6.741 -0.5245  0.5711 -0.3560
62267SOL    HW193406   2.402   2.551   6.709 -0.2030  0.7330 -0.5567
62267SOL    HW293407   2.398   2.405   6.748 -0.9343  0.9446  0.1772
62268SOL     OW93408   3.740   8.032   8.439 -0.0647 -0.0271  0.5102
62268SOL    HW193409   3.685   8.088   8.385 -0.1386 -1.2959 -0.7957
62268SOL    HW293410   3.683   8.003   8.510 -0.4382  0.4053  0.3918
62269SOL     OW93411   3.853   0.194   4.863  0.4389  0.0894  0.2176
62269SOL    HW193412   3.816   0.274   4.824  0.4793 -0.1938 -0.4111
62269SOL    HW293413   3.944   0.216   4.879  0.3667  0.2855  0.3600
62270SOL     OW93414   2.863   2.065   1.260 -0.0691 -0.0205  0.1173
62270SOL    HW193415   2.833   1.975   1.276  1.0587 -0.2077  1.3871
62270SOL    HW293416   2.785   2.110   1.227 -1.0371 -1.1276  0.7724
62271SOL     OW93417  12.602   5.264  12.079 -0.9229 -0.3501 -0.1893
62271SOL    HW193418  12.541   5.217  12.136 -1.6839 -0.2904 -0.9307
62271SOL    HW293419  12.571   5.354  12.079 -0.5072 -0.2056 -0.1434
62272SOL     OW93420   2.327   0.890   0.984  0.1263  0.5904  0.0936
62272SOL    HW193421   2.389   0.832   0.939 -0.9238 -1.0196  0.6606
62272SOL    HW293422   2.379   0.968   1.004  2.7474 -1.5522  2.6350
62273SOL     OW93423   4.596   3.816  11.494  0.6999  0.4150  0.0699
62273SOL    HW193424   4.579   3.780  11.407 -2.2852  1.2194  0.1900
62273SOL    HW293425   4.655   3.753  11.535 -0.5205 -1.7997 -1.3739
62274SOL     OW93426   5.458   4.491   1.773  0.2783  0.0157  0.2576
62274SOL    HW193427   5.402   4.468   1.699 -0.7827 -2.3949  1.6720
62274SOL    HW293428   5.530   4.427   1.769 -0.6015 -1.1486  2.0984
62275SOL     OW93429  11.859   4.043   0.701 -0.4357  0.0130 -0.1837
62275SOL    HW193430  11.930   3.981   0.687 -2.2279 -2.5014  1.1162
62275SOL    HW293431  11.871   4.074   0.791 -1.1273 -0.6619  0.1497
62276SOL     OW93432   4.242   8.594   4.204 -0.3783 -0.1239 -0.0042
62276SOL    HW193433   4.242   8.652   4.128 -0.4379  0.7301  0.6368
62276SOL    HW293434   4.327   8.551   4.200  0.3010  1.1280  0.3373
62277SOL     OW93435   0.772   5.188   6.930 -0.0318 -0.2612 -0.0908
62277SOL    HW193436   0.765   5.281   6.909 -0.9178  0.0242  1.3298
62277SOL    HW293437   0.745   5.143   6.849  3.6858  0.5640 -2.0235
62278SOL     OW93438   7.127   5.270   3.470 -0.2628  0.1412 -0.0354
62278SOL    HW193439   7.215   5.293   3.499 -0.5858  1.0785  0.2525
62278SOL    HW293440   7.118   5.312   3.384 -0.6799  0.6872  0.2664
62279SOL     OW93441   9.507   4.550   5.660  0.4820 -0.1668  0.3728
62279SOL    HW193442   9.431   4.497   5.681 -0.0834  1.2728  2.2131
62279SOL    HW293443   9.526   4.530   5.568 -1.9104 -0.8056 -0.0474
62280SOL     OW93444   4.946   3.510   3.398 -0.2152 -0.2684  0.6286
62280SOL    HW193445   5.036   3.503   3.429  0.3755 -0.8490 -1.1334
62280SOL    HW293446   4.918   3.597   3.426  1.5735  0.7277 -0.4720
62281SOL     OW93447   2.512  10.678   7.539 -0.1705 -0.2057  0.0456
62281SOL    HW193448   2.532  10.660   7.447  0.1033 -2.5974  0.5183
62281SOL    HW293449   2.433  10.732   7.536 -1.2076 -1.7098 -1.5757
62282SOL     OW93450  12.276   9.299   3.835 -0.1321  0.7104  0.4299
62282SOL    HW193451  12.299   9.221   3.784 -0.8405 -0.7360  2.2128
62282SOL    HW293452  12.296   9.372   3.777  1.0136 -0.7683 -1.1384
62283SOL     OW93453   1.688   4.726   7.949 -0.2340 -0.3003  0.6301
62283SOL    HW193454   1.680   4.739   7.855 -1.2334 -1.8881  0.4442
62283SOL    HW293455   1.712   4.812   7.984 -2.2453  0.9492 -0.8031
62284SOL     OW93456   0.759   0.033   9.876 -0.2501 -0.1226  0.2062
62284SOL    HW193457   0.671   0.001   9.896 -0.3148 -0.0213  0.0839
62284SOL    HW293458   0.767   0.025   9.781  0.7769 -2.4395  0.4238
62285SOL     OW93459   9.675  12.238   6.833 -0.1701 -0.2453 -0.7518
62285SOL    HW193460   9.590  12.196   6.821 -0.6660  0.9044 -1.2933
62285SOL    HW293461   9.656  12.331   6.839  0.9485 -0.0533  0.2261
62286SOL     OW93462   4.799  12.090   0.590  0.4579  0.2874 -0.1932
62286SOL    HW193463   4.785  11.995   0.591 -0.7605  0.4368  1.2935
62286SOL    HW293464   4.721  12.126   0.633  1.1864  1.9252 -0.1659
62287SOL     OW93465   4.321   4.708   2.204  0.1046  0.2884 -0.4564
62287SOL    HW193466   4.348   4.798   2.218  2.8740 -0.1555 -2.1701
62287SOL    HW293467   4.368   4.657   2.270 -1.3767  0.0271  0.4515
62288SOL     OW93468   0.854   2.103   5.606 -0.5827 -0.0999 -0.6695
62288SOL    HW193469   0.878   2.017   5.573  0.8663 -0.8825  2.1145
62288SOL    HW293470   0.937   2.145   5.628 -1.3510  0.5069  1.3969
62289SOL     OW93471   8.938  12.633   6.133  0.2139  0.6405  0.0656
62289SOL    HW193472   8.882  12.595   6.066  0.9304 -1.3400  0.5213
62289SOL    HW293473   9.013  12.574   6.139  1.4391  2.1796  0.8004
62290SOL     OW93474   2.055  12.564   5.312  0.1152  0.5518 -0.4836
62290SOL    HW193475   1.984  12.598   5.256 -0.1252  3.6474  1.4411
62290SOL    HW293476   2.031  12.473   5.329 -2.5654  1.0320 -1.1913
62291SOL     OW93477   8.889   8.868   6.082 -0.5024  0.0836 -0.4959
62291SOL    HW193478   8.880   8.919   6.163  1.2926  0.2249 -0.3483
62291SOL    HW293479   8.871   8.778   6.109  3.2370 -0.4379  0.9282
62292SOL     OW93480  11.051   2.847   0.141 -0.6199 -0.3560  0.1956
62292SOL    HW193481  10.986   2.791   0.100  0.7078 -1.8500  0.0381
62292SOL    HW293482  11.071   2.804   0.224  1.4462 -0.9721 -0.5466
62293SOL     OW93483   6.791   5.084   2.254 -0.1212 -0.4668 -0.5064
62293SOL    HW193484   6.793   4.995   2.219 -1.5833 -1.3009  1.3117
62293SOL    HW293485   6.825   5.075   2.343 -0.4379  0.7722 -0.2393
62294SOL     OW93486  10.080   4.631  11.300 -0.3378  0.1834 -0.3052
62294SOL    HW193487  10.020   4.584  11.242 -0.0295 -0.5935 -0.0099
62294SOL    HW293488  10.161   4.580  11.297 -1.2313 -1.7633  3.2269
62295SOL     OW93489   0.309   9.631  10.749  0.1692 -0.2721 -0.1299
62295SOL    HW193490   0.231   9.590  10.787 -1.0568  0.8865 -1.3118
62295SOL    HW293491   0.346   9.563  10.693 -1.0207 -0.2749 -0.9443
62296SOL     OW93492   4.252   4.196   8.026  0.5116 -0.1617  0.0906
62296SOL    HW193493   4.224   4.271   7.973  0.9979  0.4614  0.7067
62296SOL    HW293494   4.275   4.233   8.111 -0.8728 -1.2312  0.9742
62297SOL     OW93495   7.877   8.669   6.149 -0.6901 -0.1446  0.8474
62297SOL    HW193496   7.789   8.647   6.119 -1.2824  2.6735  0.2926
62297SOL    HW293497   7.865   8.737   6.214  1.0755  0.0088  1.0755
62298SOL     OW93498  10.765   6.264   9.917  0.2555  0.3543 -0.4723
62298SOL    HW193499  10.679   6.306   9.912 -0.0186 -0.2576 -1.0863
62298SOL    HW293500  10.763   6.217  10.001 -0.1103  0.1434 -0.5944
62299SOL     OW93501   1.790   6.258   6.984  0.5288 -0.0968  0.3864
62299SOL    HW193502   1.753   6.218   6.905 -0.0751  1.0941  0.0400
62299SOL    HW293503   1.753   6.207   7.056 -0.8406  0.3028 -0.0074
62300SOL     OW93504   3.199   3.165   6.862 -0.1848  0.2775  0.0175
62300SOL    HW193505   3.124   3.218   6.836 -0.3179 -0.6429 -1.5309
62300SOL    HW293506   3.163   3.099   6.920 -0.5333 -0.0029 -0.5152
62301SOL     OW93507   3.348   1.856   2.666 -0.6899  0.0071 -0.1476
62301SOL    HW193508   3.286   1.920   2.701  0.0099  1.0347 -0.6952
62301SOL    HW293509   3.302   1.815   2.593 -0.7159  0.8453 -0.6216
62302SOL     OW93510   5.806   9.330   8.258 -0.1056 -0.0541 -0.2646
62302SOL    HW193511   5.807   9.277   8.179  1.5075 -0.4705 -0.0111
62302SOL    HW293512   5.790   9.419   8.228  3.1097  0.2612 -1.4661
62303SOL     OW93513   7.642  12.669   9.492  0.2981  0.1799  0.1386
62303SOL    HW193514   7.607  12.714   9.415  1.8577 -0.2945 -0.8956
62303SOL    HW293515   7.732  12.699   9.499  0.4362 -0.4528  1.2561
62304SOL     OW93516   3.915   9.170   6.919 -0.2766 -0.2738  0.2139
62304SOL    HW193517   3.870   9.182   6.836  1.1529  1.9740 -0.3414
62304SOL    HW293518   4.001   9.135   6.895  0.3242  0.8455  0.6675
62305SOL     OW93519   7.847  12.674   0.359 -0.4661 -0.2022  0.8044
62305SOL    HW193520   7.752  12.677   0.347 -0.4138 -0.6069  0.2485
62305SOL    HW293521   7.868  12.581   0.360  0.3772 -0.1965 -2.9356
62306SOL     OW93522   0.060   7.104   7.226 -0.0184 -0.4303  0.0281
62306SOL    HW193523   0.154   7.103   7.210  0.6363 -3.1402  2.8424
62306SOL    HW293524   0.039   7.196   7.242  2.4882  0.1117  0.7164
62307SOL     OW93525   4.992   0.810   7.364  0.1451 -0.2022 -0.0923
62307SOL    HW193526   5.028   0.751   7.430  2.3812  0.8943 -0.2379
62307SOL    HW293527   4.971   0.890   7.412  0.4954  0.1168 -0.4601
62308SOL     OW93528   1.010   2.540   9.868 -0.0612 -0.4204  0.0978
62308SOL    HW193529   1.011   2.635   9.879  1.1300 -0.5243  1.0270
62308SOL    HW293530   0.922   2.514   9.896  0.0537  0.2725  1.1779
62309SOL     OW93531   8.339   4.501   4.257 -0.4313 -0.4071  0.3229
62309SOL    HW193532   8.417   4.456   4.224  0.6036  0.7299  1.1406
62309SOL    HW293533   8.357   4.594   4.243 -0.3983  0.0649  3.0496
62310SOL     OW93534   2.006   8.272   8.857  0.7261 -0.1672 -0.1532
62310SOL    HW193535   2.054   8.351   8.830  1.2964 -0.7241 -0.8066
62310SOL    HW293536   2.016   8.211   8.784 -0.4266 -0.5510 -0.0129
62311SOL     OW93537   8.247   2.114   7.695 -0.3550  0.0339  0.1498
62311SOL    HW193538   8.195   2.179   7.648 -0.4931  0.8602  1.4141
62311SOL    HW293539   8.335   2.150   7.699 -0.0319 -0.6252 -0.5562
62312SOL     OW93540   4.021   1.708  10.289  0.4129  0.1195 -0.2981
62312SOL    HW193541   4.004   1.743  10.201  4.0138 -0.1727 -1.2598
62312SOL    HW293542   4.026   1.786  10.345  1.5723  0.6545 -1.0957
62313SOL     OW93543   5.409   2.942   6.330  0.1254  0.2615 -0.5321
62313SOL    HW193544   5.410   3.020   6.274  0.6919  1.0438  0.5141
62313SOL    HW293545   5.321   2.939   6.366 -0.1468 -0.0670 -1.2156
62314SOL     OW93546   8.777   9.381   8.230 -0.1798  0.1355  0.1702
62314SOL    HW193547   8.711   9.327   8.272 -1.0252  1.5366  0.6967
62314SOL    HW293548   8.783   9.459   8.284  0.7969  0.7151 -0.7288
62315SOL     OW93549   3.887   5.234   4.063 -0.6421  0.1191 -0.6889
62315SOL    HW193550   3.906   5.143   4.038  0.0457  0.0503  0.0503
62315SOL    HW293551   3.792   5.241   4.055 -0.7280 -0.7193 -0.5791
62316SOL     OW93552   2.457   0.205  12.103  0.7143 -0.4994 -0.0273
62316SOL    HW193553   2.408   0.140  12.052 -0.3278  1.3118 -1.4385
62316SOL    HW293554   2.526   0.234  12.044 -0.7404  1.9082 -0.6628
62317SOL     OW93555   0.806   2.986   8.809 -0.4136  0.2108  0.4755
62317SOL    HW193556   0.824   3.080   8.796  1.1301 -0.0183  0.8585
62317SOL    HW293557   0.755   2.983   8.889  2.0034  0.5500  2.1244
62318SOL     OW93558   6.987  10.813   1.840 -0.7766 -0.2648  0.1878
62318SOL    HW193559   7.020  10.756   1.770 -1.7511 -1.0809  0.3620
62318SOL    HW293560   6.967  10.895   1.796  0.2386 -0.1861 -0.1558
62319SOL     OW93561   5.717  10.525  10.573  0.3517 -0.1920  0.2777
62319SOL    HW193562   5.760  10.450  10.615  0.4855  1.1616  2.6866
62319SOL    HW293563   5.757  10.602  10.613 -3.2548  1.1862  1.6720
62320SOL     OW93564   1.006   5.553  10.638 -0.4442 -0.1364  0.7908
62320SOL    HW193565   0.935   5.547  10.702 -0.9436 -0.4054  0.2266
62320SOL    HW293566   1.054   5.471  10.647 -0.8851 -0.4416  0.4023
62321SOL     OW93567   2.112   9.904   4.379 -0.0689  0.0208 -0.1110
62321SOL    HW193568   2.191   9.956   4.367  0.4907 -0.4858  1.1482
62321SOL    HW293569   2.120   9.868   4.468 -1.6543 -0.1365  0.0024
62322SOL     OW93570   7.149  11.371   7.463 -0.3227  0.3167  0.4773
62322SOL    HW193571   7.065  11.355   7.504  0.5816  0.4921  2.5053
62322SOL    HW293572   7.211  11.375   7.535  1.3323  0.9031 -0.8983
62323SOL     OW93573   5.584   9.795   8.520  0.5946 -0.3781  1.0116
62323SOL    HW193574   5.523   9.808   8.594 -3.2052 -2.4517 -1.4287
62323SOL    HW293575   5.587   9.700   8.508  0.1720 -0.0925 -2.1070
62324SOL     OW93576   9.401   9.774   7.844 -0.1223  0.4584  0.1551
62324SOL    HW193577   9.473   9.788   7.781  0.0027  0.2905  0.2615
62324SOL    HW293578   9.400   9.854   7.897  0.5998  0.0702  0.7658
62325SOL     OW93579   3.607   5.732  10.000  0.2249  0.0949  0.6075
62325SOL    HW193580   3.628   5.824  10.016  0.1640 -0.1346  2.1550
62325SOL    HW293581   3.544   5.734   9.928  1.6955  1.1123 -0.7010
62326SOL     OW93582   9.627   9.799   4.137 -0.6394  0.3230  0.0543
62326SOL    HW193583   9.698   9.840   4.186  0.4721  1.1051 -2.0734
62326SOL    HW293584   9.631   9.707   4.160  1.2580  0.3075 -0.1980
62327SOL     OW93585   2.045   0.528   1.281  0.2286  0.0594 -0.6104
62327SOL    HW193586   1.970   0.571   1.323 -0.7985 -2.8883  0.8390
62327SOL    HW293587   2.041   0.555   1.190  0.1452  3.5318  0.2739
62328SOL     OW93588   9.107   0.983  10.385  0.1574  0.2706  0.5741
62328SOL    HW193589   9.176   0.917  10.376 -0.5110 -0.5451  1.3420
62328SOL    HW293590   9.080   0.978  10.477 -0.4047  1.1111  0.4681
62329SOL     OW93591   5.056   9.705   8.600  0.3002  0.5896  0.2051
62329SOL    HW193592   4.986   9.652   8.562  1.7883 -0.1549 -1.6833
62329SOL    HW293593   5.055   9.684   8.693 -2.4460  1.1938  0.3766
62330SOL     OW93594   5.221  11.795  10.377  0.5410  0.2419  0.1060
62330SOL    HW193595   5.131  11.774  10.405  0.7240 -1.1698 -0.2730
62330SOL    HW293596   5.209  11.853  10.302 -0.1017 -0.4478 -0.3513
62331SOL     OW93597  11.756   3.618  10.550  0.0099  0.3815  0.5342
62331SOL    HW193598  11.761   3.559  10.475  0.3474  0.4648  0.4920
62331SOL    HW293599  11.802   3.697  10.521  0.1457  0.4118  0.8344
62332SOL     OW93600   0.427   3.719   3.305 -0.0830  0.0303 -0.5858
62332SOL    HW193601   0.453   3.810   3.299  1.8059 -0.2942  1.4185
62332SOL    HW293602   0.509   3.670   3.310 -1.0451 -1.7269 -0.9345
62333SOL     OW93603  10.038  12.501   0.347 -0.3360 -0.0258 -0.2837
62333SOL    HW193604   9.972  12.516   0.414  0.2587 -1.0775  0.5816
62333SOL    HW293605  10.009  12.421   0.302  0.3396 -0.5309  0.1433
62334SOL     OW93606  11.271   1.815   8.271 -0.2187 -0.3420  0.6809
62334SOL    HW193607  11.302   1.890   8.322 -1.2818  0.5721  0.0251
62334SOL    HW293608  11.297   1.835   8.181 -0.3931 -0.8324  0.5184
62335SOL     OW93609   2.761  10.535   5.048 -0.0884 -0.2430  0.9893
62335SOL    HW193610   2.750  10.624   5.082  0.3372  0.1650  0.0963
62335SOL    HW293611   2.683  10.488   5.078 -0.6648  0.6227  0.9024
62336SOL     OW93612   4.869   3.338   6.112 -0.1261 -0.0823  0.2546
62336SOL    HW193613   4.879   3.319   6.018 -1.6668 -0.1598  0.0793
62336SOL    HW293614   4.865   3.252   6.153  0.1029 -0.0517  0.3413
62337SOL     OW93615   2.945   6.830   7.109 -0.5394 -0.4478  0.2509
62337SOL    HW193616   2.874   6.817   7.172  0.2687 -1.3242  0.9855
62337SOL    HW293617   2.970   6.742   7.082  2.1414 -0.3406  2.0964
62338SOL     OW93618   1.673  10.567   3.118 -0.0339  0.0422  0.0433
62338SOL    HW193619   1.610  10.509   3.076 -1.4133  0.0270  2.0192
62338SOL    HW293620   1.758  10.526   3.101 -0.8124 -1.5584 -0.1670
62339SOL     OW93621   8.078   2.811   2.297  0.2325  0.1050 -0.0168
62339SOL    HW193622   8.058   2.750   2.369  0.8989  0.2066  0.2647
62339SOL    HW293623   8.142   2.871   2.334  1.8864 -0.8467 -1.1672
62340SOL     OW93624   6.855   1.988   9.339 -0.1093  0.7882  0.1735
62340SOL    HW193625   6.782   1.998   9.278 -0.4632  1.6665  0.7141
62340SOL    HW293626   6.919   1.934   9.292 -1.8543 -1.6205  0.3704
62341SOL     OW93627   9.547   7.606   3.942  0.6689  0.0303 -0.7616
62341SOL    HW193628   9.604   7.657   3.884  0.1970  0.2374 -1.0502
62341SOL    HW293629   9.517   7.669   4.007 -0.5203  0.3270 -1.5591
62342SOL     OW93630   6.516   7.531   6.484  0.0553 -0.5559 -0.6515
62342SOL    HW193631   6.579   7.526   6.556  0.0445 -0.2878 -0.6231
62342SOL    HW293632   6.542   7.609   6.435 -0.8064  0.0955 -0.1165
62343SOL     OW93633   0.417   8.870   8.385 -0.5263 -0.2532 -0.0725
62343SOL    HW193634   0.489   8.808   8.394 -1.2128 -0.8570  1.8848
62343SOL    HW293635   0.360   8.832   8.319 -0.1848 -0.9527  0.0232
62344SOL     OW93636  11.704   6.086  10.400 -0.3741  0.5444  0.2773
62344SOL    HW193637  11.641   6.015  10.396 -1.3270  1.0636  3.5473
62344SOL    HW293638  11.777   6.051  10.450 -0.0698  1.3327  0.3979
62345SOL     OW93639  10.807   6.630   4.515  0.1633  0.0845  0.3656
62345SOL    HW193640  10.811   6.573   4.438 -0.8917  0.8282 -0.2746
62345SOL    HW293641  10.838   6.715   4.484 -2.1213  0.9306  0.1584
62346SOL     OW93642   6.259  10.359   7.744  0.5455 -0.4978  0.1299
62346SOL    HW193643   6.168  10.363   7.774  0.0606 -1.5776 -1.1032
62346SOL    HW293644   6.269  10.436   7.688  0.4729 -0.2539  0.4454
62347SOL     OW93645   6.102   5.883  11.495  0.6085  0.2615  0.1680
62347SOL    HW193646   6.087   5.878  11.589 -0.0304  1.7055  0.1749
62347SOL    HW293647   6.014   5.883  11.457  0.7088  2.5598 -0.2103
62348SOL     OW93648   6.767   8.030   3.801  0.4447 -0.3713 -0.2016
62348SOL    HW193649   6.812   7.950   3.828  1.2903  0.1650  0.0309
62348SOL    HW293650   6.674   8.011   3.813  0.6865 -0.9451  0.8974
62349SOL     OW93651  10.652   9.057   9.237 -0.6378  0.4006 -0.1876
62349SOL    HW193652  10.560   9.061   9.263 -1.1490 -0.7291 -1.7049
62349SOL    HW293653  10.683   8.973   9.272  0.4530  1.6482  2.0939
62350SOL     OW93654   4.532   3.109   8.570 -0.5025  0.3387  0.1743
62350SOL    HW193655   4.485   3.028   8.591 -0.7912  0.0635 -1.3931
62350SOL    HW293656   4.622   3.091   8.596 -0.5829 -0.4641 -0.0696
62351SOL     OW93657   3.749   2.597   8.722 -0.1513  0.6325  0.4861
62351SOL    HW193658   3.818   2.577   8.786  1.8997  2.2311 -1.0562
62351SOL    HW293659   3.767   2.688   8.696 -0.8017  0.0260 -2.4190
62352SOL     OW93660   3.396   0.237  10.741 -0.3120 -0.2824  0.1686
62352SOL    HW193661   3.347   0.251  10.661  0.0788 -1.8561 -0.3711
62352SOL    HW293662   3.353   0.293  10.806  0.3604  2.2815 -1.4732
62353SOL     OW93663   1.773   2.405  12.501  0.1420  0.0201  0.1129
62353SOL    HW193664   1.803   2.351  12.575  0.1819 -0.0734  0.0301
62353SOL    HW293665   1.699   2.454  12.536 -1.3429 -1.7208 -0.4122
62354SOL     OW93666   0.551  12.776   2.137 -0.2049  0.5099  0.5954
62354SOL    HW193667   0.471  12.829   2.134 -0.7674 -0.1392  2.6177
62354SOL    HW293668   0.613  12.828   2.188  0.4752  0.7447 -0.4463
62355SOL     OW93669   9.444   6.551   0.788 -0.1575 -0.3271  0.0674
62355SOL    HW193670   9.445   6.593   0.702 -0.0149 -3.9838 -1.9196
62355SOL    HW293671   9.536   6.531   0.806 -0.2606 -0.2017  0.7626
62356SOL     OW93672   8.929   7.138   7.561 -0.1242  0.3556 -0.0179
62356SOL    HW193673   8.848   7.098   7.594  0.5875 -1.3435 -0.1916
62356SOL    HW293674   8.996   7.072   7.580  1.1988  1.6788  0.0126
62357SOL     OW93675   8.592   0.708  10.824 -0.7362 -0.1519  0.6232
62357SOL    HW193676   8.595   0.789  10.773  2.9703 -0.5390 -0.0556
62357SOL    HW293677   8.589   0.737  10.915 -2.3169  0.6281  0.3593
62358SOL     OW93678   6.252   8.580   8.358  0.4675 -0.0340  0.3624
62358SOL    HW193679   6.260   8.612   8.448  0.7590  0.4368  0.1713
62358SOL    HW293680   6.162   8.600   8.333 -0.0850 -1.5104  1.0542
62359SOL     OW93681  10.856   2.663   7.436 -0.0734  0.2129  0.3983
62359SOL    HW193682  10.777   2.697   7.394  0.2087  1.6857  0.9967
62359SOL    HW293683  10.891   2.599   7.374 -0.7170  0.9018 -0.7001
62360SOL     OW93684  12.058   8.791   2.986  0.2671 -0.0996 -0.4288
62360SOL    HW193685  12.117   8.847   2.936 -0.0473 -0.8966 -1.7439
62360SOL    HW293686  12.107   8.768   3.064  0.4786  1.8174  0.0560
62361SOL     OW93687  12.728   1.406  10.866 -0.2390  0.4506  0.1979
62361SOL    HW193688  12.750   1.365  10.782 -2.6736  0.3338 -0.4637
62361SOL    HW293689  12.812   1.436  10.901  0.6906  2.3740 -3.2492
62362SOL     OW93690  12.698   4.585   0.872  0.3927  0.1807 -0.0774
62362SOL    HW193691  12.639   4.552   0.804  1.0949 -1.1281 -0.0847
62362SOL    HW293692  12.774   4.526   0.869 -0.6454 -1.6497  3.5918
62363SOL     OW93693   0.874   8.258   4.821 -0.4059 -0.1177 -0.2201
62363SOL    HW193694   0.935   8.242   4.893 -0.6652 -2.9925 -0.4875
62363SOL    HW293695   0.788   8.261   4.862 -0.4216 -0.3149 -0.2331
62364SOL     OW93696   9.622   3.712   1.089  0.4148  0.2289  0.3878
62364SOL    HW193697   9.692   3.775   1.109  0.1631  0.9466 -0.9003
62364SOL    HW293698   9.564   3.715   1.165  1.0053  0.7224  0.8239
62365SOL     OW93699   7.633   3.706   9.421  0.1466  0.0682  0.2293
62365SOL    HW193700   7.668   3.788   9.384  1.8115  0.8287  3.1500
62365SOL    HW293701   7.540   3.709   9.401  0.2892  2.3178 -0.4227
62366SOL     OW93702   4.562   7.855  11.194 -0.7801 -0.2000 -0.1277
62366SOL    HW193703   4.593   7.766  11.210 -1.4689 -0.5781 -0.8429
62366SOL    HW293704   4.467   7.846  11.181 -0.9756  0.7402  0.5622
62367SOL     OW93705  10.472   2.843   2.705  0.0329 -0.4295  0.1397
62367SOL    HW193706  10.549   2.815   2.755 -1.2282 -2.4016  1.1334
62367SOL    HW293707  10.473   2.789   2.627 -0.4209 -0.5782  0.2348
62368SOL     OW93708   3.524  11.695  10.459 -0.3964 -0.5450 -0.1968
62368SOL    HW193709   3.587  11.718  10.527 -0.9151  0.6601 -0.0960
62368SOL    HW293710   3.532  11.764  10.394  0.0930 -1.6877 -1.3950
62369SOL     OW93711   6.533   9.067  12.607  0.0289 -0.4223 -0.1005
62369SOL    HW193712   6.474   9.007  12.561  0.4395  0.0875 -1.3388
62369SOL    HW293713   6.619   9.026  12.601  0.4995  0.7246 -1.8483
62370SOL     OW93714  11.641   4.566   1.204 -0.1418 -0.1865 -0.1141
62370SOL    HW193715  11.552   4.565   1.238  0.0020  1.0450  0.3945
62370SOL    HW293716  11.636   4.618   1.124 -0.0776 -1.1216 -0.7350
62371SOL     OW93717   3.352   5.049  10.839 -0.3167 -0.0397  0.3650
62371SOL    HW193718   3.432   5.000  10.822 -0.6701 -0.6648  0.4857
62371SOL    HW293719   3.311   5.059  10.754 -0.9526 -1.1974  0.5215
62372SOL     OW93720   4.194   2.957   4.743  0.1253  0.2817 -0.3329
62372SOL    HW193721   4.129   3.021   4.713 -0.3759  0.3673  0.9032
62372SOL    HW293722   4.208   2.976   4.835 -0.8341 -2.0271  0.3746
62373SOL     OW93723   3.752   8.344   1.927 -0.3962  0.4256  0.3917
62373SOL    HW193724   3.760   8.281   1.998 -0.0666  0.1589  0.1230
62373SOL    HW293725   3.835   8.337   1.879 -0.4896  0.8216  0.1624
62374SOL     OW93726   8.784  11.636   5.335 -0.6578  0.1390  0.1898
62374SOL    HW193727   8.692  11.664   5.330 -0.1606  3.0850  3.5075
62374SOL    HW293728   8.779  11.543   5.356 -2.8850  0.0877 -0.3028
62375SOL     OW93729   2.206   3.571   6.878 -0.4367 -0.7184 -0.2474
62375SOL    HW193730   2.191   3.564   6.783  0.5933  0.1851 -0.4922
62375SOL    HW293731   2.285   3.519   6.893  0.1242  0.1649 -0.0948
62376SOL     OW93732   0.491   2.555   0.026 -0.3714  0.0755  0.2791
62376SOL    HW193733   0.484   2.642  -0.013 -0.7304 -0.1524 -0.1777
62376SOL    HW293734   0.400   2.526   0.035 -0.2438 -0.3751  0.1431
62377SOL     OW93735   7.653  11.531  11.473  0.6511  0.6585 -0.0670
62377SOL    HW193736   7.565  11.553  11.443  1.1454  1.5045 -0.9445
62377SOL    HW293737   7.660  11.573  11.559  0.4240  1.1346 -0.2791
62378SOL     OW93738   7.535  12.327  12.162  0.4435  0.4490  0.3276
62378SOL    HW193739   7.508  12.329  12.070  0.4662  0.1927  0.3131
62378SOL    HW293740   7.455  12.309  12.210  0.2933  1.3630  0.4247
62379SOL     OW93741  11.327   3.294   4.742 -0.1856 -0.1025 -0.1827
62379SOL    HW193742  11.380   3.225   4.781  0.0533 -0.0148 -0.3518
62379SOL    HW293743  11.358   3.300   4.652 -0.1311  0.2958 -0.1395
62380SOL     OW93744   3.548   8.807   9.762 -0.0032 -0.0425 -0.2927
62380SOL    HW193745   3.593   8.846   9.837 -0.9809  0.0405  0.2727
62380SOL    HW293746   3.610   8.814   9.690  1.1250 -0.5272  0.6070
62381SOL     OW93747   3.237  11.990   4.606 -0.3237  0.4989 -0.0020
62381SOL    HW193748   3.207  12.079   4.626  1.1967  0.9198  0.5121
62381SOL    HW293749   3.276  11.998   4.519 -0.9641  0.1217 -0.3351
62382SOL     OW93750   3.575   5.834  11.560 -0.2788  0.1245 -0.4595
62382SOL    HW193751   3.572   5.929  11.572  0.8496 -0.0903  2.0652
62382SOL    HW293752   3.544   5.821  11.470  0.0278  2.8926 -1.0683
62383SOL     OW93753   3.852   5.308   3.365 -0.4048 -0.6743  0.1783
62383SOL    HW193754   3.789   5.256   3.315 -0.1564  0.2950 -1.1983
62383SOL    HW293755   3.890   5.246   3.427 -2.3962 -1.3627  0.7616
62384SOL     OW93756   5.107   6.463   0.326  0.3610 -0.1399  0.2218
62384SOL    HW193757   5.139   6.465   0.236 -0.3933 -1.8827 -0.1374
62384SOL    HW293758   5.015   6.490   0.320  0.6639  1.0149  0.6682
62385SOL     OW93759   8.469   9.643   5.274 -0.8666  0.6795 -0.0629
62385SOL    HW193760   8.408   9.644   5.200 -1.3444 -0.1867  0.3096
62385SOL    HW293761   8.547   9.600   5.240 -0.6064  1.3928 -0.4089
62386SOL     OW93762   2.429   0.729   2.749  0.0276  0.8520 -0.3030
62386SOL    HW193763   2.502   0.677   2.781 -0.3009  0.0193 -0.8690
62386SOL    HW293764   2.469   0.796   2.693  0.3260  0.0687 -1.0459
62387SOL     OW93765  11.475   0.022  12.742  0.5461  0.2598  0.5555
62387SOL    HW193766  11.482   0.107  12.785 -2.1481  1.6058 -1.3556
62387SOL    HW293767  11.402  -0.021  12.786  1.2525 -0.6650  0.8484
62388SOL     OW93768   6.691   5.991  12.261 -0.5379 -0.1635  0.6367
62388SOL    HW193769   6.606   5.948  12.272  0.6805 -2.8233  0.4620
62388SOL    HW293770   6.695   6.012  12.168 -0.6379 -0.9410  0.4455
62389SOL     OW93771   5.271   7.905   3.984 -0.0487 -0.0077 -0.3329
62389SOL    HW193772   5.263   7.880   3.892  0.8113  2.3098 -1.0976
62389SOL    HW293773   5.276   8.000   3.983 -0.5800  0.1161  2.1803
62390SOL     OW93774   3.624   6.710   1.388  0.4003 -0.1321  0.3105
62390SOL    HW193775   3.561   6.686   1.456  3.0098 -2.7078  2.0398
62390SOL    HW293776   3.683   6.772   1.431  0.5483  0.3129 -0.5045
62391SOL     OW93777   9.439   4.012   6.035 -0.2451  0.0235  1.1148
62391SOL    HW193778   9.508   3.997   5.971  0.6143 -1.9326  2.4168
62391SOL    HW293779   9.438   4.107   6.048 -0.5915  0.5007 -1.8653
62392SOL     OW93780  10.433   6.974   7.313 -0.2869  0.0620 -0.1534
62392SOL    HW193781  10.526   6.987   7.298  0.0487 -2.4252 -0.6865
62392SOL    HW293782  10.393   6.983   7.227 -0.4427  0.3655 -0.0516
62393SOL     OW93783   6.081  11.940   8.229  0.1969 -0.0527  0.1097
62393SOL    HW193784   6.008  12.000   8.244  2.1468  2.1496  1.5479
62393SOL    HW293785   6.058  11.895   8.147 -1.2796  2.9298 -1.2912
62394SOL     OW93786  11.319  10.578   8.202 -0.7647  0.2763  0.1364
62394SOL    HW193787  11.356  10.651   8.253  0.6360 -0.2686 -0.0453
62394SOL    HW293788  11.388  10.557   8.139 -1.0343 -1.3666  0.3605
62395SOL     OW93789   7.353   2.555   0.399 -0.8022  1.1442  0.0515
62395SOL    HW193790   7.432   2.500   0.402 -1.6814 -0.2317 -0.6421
62395SOL    HW293791   7.306   2.533   0.480 -2.1533 -0.7954 -1.1562
62396SOL     OW93792   1.598   2.292   7.164 -0.7450 -0.4050 -0.2439
62396SOL    HW193793   1.519   2.287   7.218 -1.8199 -0.1944 -1.7469
62396SOL    HW293794   1.591   2.217   7.105 -0.7455  0.6099 -1.5715
62397SOL     OW93795   6.285   9.737   5.329  0.5116 -0.1615 -0.2912
62397SOL    HW193796   6.206   9.684   5.344  1.0115 -0.8701 -0.1317
62397SOL    HW293797   6.319   9.755   5.416  0.2842  0.5347 -0.3379
62398SOL     OW93798   1.000   4.596   6.110 -0.1504 -0.2755 -0.1355
62398SOL    HW193799   0.922   4.640   6.075  1.0319 -0.0898 -2.7523
62398SOL    HW293800   1.038   4.661   6.169 -0.8003  0.4865 -0.5245
62399SOL     OW93801  11.436   7.235   4.452  0.1203 -0.2380  0.5337
62399SOL    HW193802  11.358   7.244   4.398  0.2597 -0.4253  0.3022
62399SOL    HW293803  11.404   7.198   4.534 -0.4485  2.1124  1.4555
62400SOL     OW93804  10.784   1.943   7.241 -0.2147 -0.3225 -0.4926
62400SOL    HW193805  10.705   1.901   7.276 -1.3416  1.0978 -1.2038
62400SOL    HW293806  10.846   1.942   7.314 -1.3550 -0.3350  0.5200
62401SOL     OW93807   2.335   9.589   1.652 -0.7167  0.1769 -0.1884
62401SOL    HW193808   2.252   9.636   1.650 -0.0792  1.3404 -1.1039
62401SOL    HW293809   2.392   9.644   1.706 -0.1330  0.1689 -0.7728
62402SOL     OW93810  10.424   2.637  11.741  0.2752  0.0953 -0.0355
62402SOL    HW193811  10.510   2.636  11.699 -0.7811 -0.8436 -2.4125
62402SOL    HW293812  10.441   2.618  11.833  2.6053  0.1169 -0.4048
62403SOL     OW93813  11.786   2.724   6.035 -0.3727  0.1295 -0.0295
62403SOL    HW193814  11.855   2.658   6.035  0.9058  1.4097 -0.5267
62403SOL    HW293815  11.727   2.699   5.963 -0.9052 -1.4203  0.9134
62404SOL     OW93816   8.477   6.935   8.097  0.2470  0.2691  0.0856
62404SOL    HW193817   8.518   6.908   8.015  1.0360 -0.3234  0.6632
62404SOL    HW293818   8.532   7.005   8.130  0.1981  0.1898  0.3391
62405SOL     OW93819   0.270   9.863   2.600 -0.1507  0.1692 -0.6925
62405SOL    HW193820   0.306   9.850   2.688 -2.1202  1.6662  0.4054
62405SOL    HW293821   0.271   9.775   2.561 -0.2004 -0.7330  1.2153
62406SOL     OW93822   1.685   1.368   3.503  0.2264 -0.7537 -0.3743
62406SOL    HW193823   1.607   1.313   3.507  0.3723 -1.2601 -2.8525
62406SOL    HW293824   1.712   1.379   3.594 -0.6129 -3.6467  0.3076
62407SOL     OW93825   7.909   4.420   3.946  0.0436  0.6326  0.3230
62407SOL    HW193826   7.992   4.467   3.952  0.7572 -0.5968  0.2954
62407SOL    HW293827   7.851   4.467   4.007  0.8883  1.2166  0.6978
62408SOL     OW93828  11.192   3.477   2.746 -0.3046  0.1035 -0.4824
62408SOL    HW193829  11.237   3.560   2.761 -1.6083  0.9426 -0.9718
62408SOL    HW293830  11.248   3.411   2.785  0.7761  1.2190 -0.0969
62409SOL     OW93831   3.390   5.339   4.293 -0.9708  0.1613  0.1603
62409SOL    HW193832   3.415   5.286   4.369 -0.5107 -0.0127 -0.1066
62409SOL    HW293833   3.299   5.314   4.275 -0.8538 -0.3277  0.2202
62410SOL     OW93834  12.602  11.883  10.814  0.2475  0.0665  0.1702
62410SOL    HW193835  12.648  11.799  10.824 -0.2461 -0.1798  0.4817
62410SOL    HW293836  12.510  11.858  10.806  0.0851  0.5847  0.3735
62411SOL     OW93837   2.461   5.515   6.589 -0.7209  0.0578  0.1638
62411SOL    HW193838   2.438   5.425   6.612 -2.1434 -0.0549 -1.4679
62411SOL    HW293839   2.495   5.508   6.499  0.0143  1.0383  0.3588
62412SOL     OW93840   0.573   9.594   9.346  0.2339  0.6735  0.1509
62412SOL    HW193841   0.647   9.577   9.287 -0.9843 -0.2054 -1.1749
62412SOL    HW293842   0.612   9.641   9.420  2.3956 -1.1513  0.2603
62413SOL     OW93843   6.398   2.306  11.839  0.0319  0.0162 -0.5213
62413SOL    HW193844   6.435   2.248  11.905 -0.1503  1.4506  0.9049
62413SOL    HW293845   6.335   2.251  11.792  0.0962 -1.0301  0.5646
62414SOL     OW93846   3.358   9.692  10.897 -0.1402  0.3134 -0.1948
62414SOL    HW193847   3.452   9.676  10.899  0.0415  1.2533 -0.7137
62414SOL    HW293848   3.349   9.785  10.915 -1.0054  0.1540  0.2558
62415SOL     OW93849   4.420   7.476   2.865  0.0917 -0.1369 -0.2927
62415SOL    HW193850   4.378   7.422   2.932  1.1558  0.4880  0.9262
62415SOL    HW293851   4.457   7.413   2.803  1.4914 -0.8659  1.2093
62416SOL     OW93852  10.822   9.334   1.973  0.1737  0.1488  0.0974
62416SOL    HW193853  10.853   9.244   1.976 -0.9646 -0.2389  2.3620
62416SOL    HW293854  10.881   9.382   2.031 -1.7942 -0.1072  2.4683
62417SOL     OW93855   2.060   7.323   1.104 -0.3133 -0.4851  0.2819
62417SOL    HW193856   2.100   7.246   1.144 -1.7895 -0.9645  0.8984
62417SOL    HW293857   2.093   7.396   1.156  0.7677 -0.7283 -0.0442
62418SOL     OW93858   9.458   5.716   3.903  0.3113 -0.7565  0.1872
62418SOL    HW193859   9.455   5.807   3.876 -1.4134 -0.8761 -0.1521
62418SOL    HW293860   9.546   5.686   3.879  0.1019  0.1569 -1.9627
62419SOL     OW93861   8.086   2.990  10.325 -0.7038 -0.4797 -0.2779
62419SOL    HW193862   8.036   2.989  10.243 -2.0385 -0.3058  0.5099
62419SOL    HW293863   8.062   3.074  10.366  0.9886  0.0517 -0.3219
62420SOL     OW93864   6.125  10.586   1.335  0.1812 -0.2273  0.0664
62420SOL    HW193865   6.097  10.511   1.386 -0.3922  0.4817  0.8180
62420SOL    HW293866   6.125  10.659   1.397 -0.9451  0.7447 -1.0295
62421SOL     OW93867   0.498   6.265   4.121 -0.0033 -0.2800 -0.5496
62421SOL    HW193868   0.429   6.263   4.055 -1.4895  0.7975  0.8745
62421SOL    HW293869   0.508   6.358   4.142  0.5974 -0.5805  0.5548
62422SOL     OW93870   3.630   6.720   7.667  0.0123  0.7323  0.3561
62422SOL    HW193871   3.716   6.756   7.690  0.8017 -0.4989 -0.5578
62422SOL    HW293872   3.589   6.788   7.614 -1.4297  3.2051  4.1914
62423SOL     OW93873   6.281  10.916   7.421  0.2214 -0.4012  0.9032
62423SOL    HW193874   6.281  10.890   7.513 -1.0050 -2.0532  0.4843
62423SOL    HW293875   6.225  10.994   7.418 -0.3722 -0.7988  1.4479
62424SOL     OW93876   6.596   2.964   7.248  0.0153 -0.5848 -0.6490
62424SOL    HW193877   6.503   2.952   7.231  0.3004 -3.2635 -0.8441
62424SOL    HW293878   6.605   3.055   7.273 -2.5720 -0.1273 -1.1304
62425SOL     OW93879   5.679   6.576   3.912  0.5707  0.2020 -0.0031
62425SOL    HW193880   5.699   6.513   3.843  3.2519 -0.2963  1.1080
62425SOL    HW293881   5.738   6.650   3.895  0.5259  0.5241  1.1357
62426SOL     OW93882   4.693   3.908   5.519  0.5935  0.2982 -0.1889
62426SOL    HW193883   4.603   3.879   5.503  0.7725 -0.0470 -0.6009
62426SOL    HW293884   4.686   3.968   5.593  0.2076 -0.8566  0.7523
62427SOL     OW93885  10.811   4.457   0.446 -0.2962 -0.1223 -0.0879
62427SOL    HW193886  10.802   4.362   0.437  0.2600 -0.0838 -1.1501
62427SOL    HW293887  10.722   4.487   0.466 -0.2710 -0.9677  1.4278
62428SOL     OW93888   8.970   1.249   2.216 -0.6428  0.0009 -0.0682
62428SOL    HW193889   8.901   1.261   2.150 -0.1245  0.3127 -0.5626
62428SOL    HW293890   9.044   1.299   2.182 -0.7172  1.1035  1.3092
62429SOL     OW93891   3.905   4.436   5.836  0.1309  0.3092 -0.2024
62429SOL    HW193892   3.865   4.510   5.883  0.2273 -0.0202  0.4105
62429SOL    HW293893   3.895   4.362   5.896 -0.3939 -0.2898 -1.0116
62430SOL     OW93894   4.120   9.228   6.541  0.2156  0.2215 -0.3837
62430SOL    HW193895   4.212   9.247   6.525  0.2525  1.6743  1.3287
62430SOL    HW293896   4.120   9.144   6.586  0.8057  0.6861  0.5069
62431SOL     OW93897   1.221   9.735   4.127 -0.4718 -0.9001 -0.0174
62431SOL    HW193898   1.243   9.806   4.188 -1.0893 -0.2438 -0.5351
62431SOL    HW293899   1.194   9.780   4.047  3.9173 -1.6708 -2.2338
62432SOL     OW93900   8.232   4.027   8.907 -0.5212  0.3040 -0.0656
62432SOL    HW193901   8.224   4.122   8.920 -0.0956  0.4758 -0.9312
62432SOL    HW293902   8.214   4.015   8.813 -1.0633 -0.5340  0.1418
62433SOL     OW93903   1.800   9.949   0.543  0.2901 -0.0607  0.7748
62433SOL    HW193904   1.828   9.860   0.562  0.3318  0.1049  1.5432
62433SOL    HW293905   1.788   9.951   0.448  1.5366 -0.5154  0.5934
62434SOL     OW93906   5.988  12.725   5.954 -0.5954 -0.2019  0.2420
62434SOL    HW193907   6.015  12.780   6.027  1.1358 -1.4872  0.6398
62434SOL    HW293908   5.924  12.664   5.992  0.4307 -0.9797  0.7452
62435SOL     OW93909   5.442   3.989   4.385 -0.1850 -0.3269 -0.0222
62435SOL    HW193910   5.476   4.034   4.308 -0.3437  0.6768  0.4756
62435SOL    HW293911   5.518   3.946   4.423  0.1387  0.2240 -0.0376
62436SOL     OW93912  11.897   8.156  11.058 -0.2220 -0.1800  0.4236
62436SOL    HW193913  11.830   8.093  11.031 -0.3405 -0.0096  0.3219
62436SOL    HW293914  11.949   8.172  10.979 -0.3824  0.0861  0.3719
62437SOL     OW93915  12.141   8.369   5.465  0.3691 -0.1407  0.1956
62437SOL    HW193916  12.180   8.342   5.382  2.0717  0.2072  0.8301
62437SOL    HW293917  12.122   8.288   5.511 -1.0996 -0.3518 -0.7217
62438SOL     OW93918   7.849   2.014   0.551  0.9450 -0.5077 -0.3609
62438SOL    HW193919   7.792   2.066   0.607  0.0129  1.2914 -2.8178
62438SOL    HW293920   7.936   2.024   0.590  0.5912  1.9747 -0.0249
62439SOL     OW93921   9.238   1.907   6.773  0.1354  0.7331  0.3548
62439SOL    HW193922   9.217   1.961   6.848 -0.9649 -0.3199  0.8347
62439SOL    HW293923   9.155   1.896   6.726  0.7690  1.2372 -0.9320
62440SOL     OW93924  12.198   7.860  12.587 -0.2450 -0.8288 -0.1762
62440SOL    HW193925  12.206   7.773  12.549 -0.3691 -0.9364  0.0431
62440SOL    HW293926  12.160   7.913  12.517 -0.9883 -1.1536 -0.0259
62441SOL     OW93927  12.242  10.468   8.654 -0.0150 -0.3540  0.5131
62441SOL    HW193928  12.258  10.537   8.719 -2.8232 -1.2878  2.3891
62441SOL    HW293929  12.194  10.512   8.584  1.7044  0.3522 -0.2716
62442SOL     OW93930   9.610   4.716   9.469 -0.7500  0.7801 -0.3041
62442SOL    HW193931   9.552   4.657   9.420 -0.2475 -0.9938  1.1112
62442SOL    HW293932   9.575   4.715   9.558  0.8590  0.4457  0.3588
62443SOL     OW93933   7.921   5.343  10.154  0.0403 -0.3155 -0.0154
62443SOL    HW193934   7.912   5.406  10.082 -1.0648  0.5687  0.8593
62443SOL    HW293935   7.867   5.268  10.127 -0.6760  0.1665  0.0372
62444SOL     OW93936   6.697   9.823  12.377 -0.1298  0.3691 -0.7358
62444SOL    HW193937   6.642   9.841  12.301 -0.4451  2.4003 -0.0806
62444SOL    HW293938   6.783   9.857  12.355  0.0072  0.1823 -0.5042
62445SOL     OW93939   0.769   2.065   1.618  0.1107 -0.0471 -0.5862
62445SOL    HW193940   0.772   2.159   1.637  1.9263  0.0923 -1.2806
62445SOL    HW293941   0.807   2.024   1.695  0.1385 -0.1382 -0.6487
62446SOL     OW93942   5.564   4.583   6.146  0.3813 -0.3072 -0.2977
62446SOL    HW193943   5.635   4.644   6.169  0.9316 -0.4888 -1.4563
62446SOL    HW293944   5.599   4.497   6.168  0.5930 -0.4094 -1.0027
62447SOL     OW93945   6.162   4.164   3.975 -0.3225 -0.7404  0.5260
62447SOL    HW193946   6.115   4.103   4.032 -0.4467 -2.0695 -0.9391
62447SOL    HW293947   6.254   4.154   3.999 -0.3123 -1.7461  0.0706
62448SOL     OW93948   9.902   3.994  12.403 -0.2242  0.1374 -0.2279
62448SOL    HW193949   9.909   4.086  12.426  0.6687 -0.2219  1.0444
62448SOL    HW293950   9.915   3.948  12.486 -1.2683 -1.1223 -0.7279
62449SOL     OW93951   8.858   0.309   6.340 -0.3479  0.4212 -0.1484
62449SOL    HW193952   8.771   0.276   6.362 -0.4946  2.5675  3.4459
62449SOL    HW293953   8.911   0.231   6.325 -2.5797 -0.9817 -1.2212
62450SOL     OW93954   8.807   6.796   8.123 -0.2248  0.0656  0.3053
62450SOL    HW193955   8.778   6.807   8.213  0.0934 -1.2989  0.6002
62450SOL    HW293956   8.898   6.827   8.123 -0.9531  2.3456 -0.1342
62451SOL     OW93957   4.088   2.660   1.731 -0.1911 -0.3351 -0.4118
62451SOL    HW193958   4.136   2.713   1.667 -0.0850  0.0929  0.0204
62451SOL    HW293959   4.056   2.585   1.680  0.3708 -0.2879 -0.8454
62452SOL     OW93960   0.490   0.321   0.818 -0.0669  0.0892  0.3969
62452SOL    HW193961   0.494   0.286   0.907 -0.3248  0.0416  0.3918
62452SOL    HW293962   0.545   0.262   0.766 -0.3848 -0.2341  0.4160
62453SOL     OW93963   9.111   9.241  11.068 -0.9522  0.7894  0.1074
62453SOL    HW193964   9.142   9.246  10.977  0.6332  0.3304  0.5918
62453SOL    HW293965   9.154   9.315  11.111 -1.0348  0.5180  0.6618
62454SOL     OW93966  12.604  12.046   5.557  0.2744 -0.3065  0.2367
62454SOL    HW193967  12.567  12.132   5.572  1.9408  0.3952  0.6132
62454SOL    HW293968  12.559  11.988   5.618  0.3961  0.6645  1.2601
62455SOL     OW93969   2.528   1.851   8.515  0.2229  0.1201 -0.6705
62455SOL    HW193970   2.519   1.802   8.433 -0.1331 -0.7801 -0.0996
62455SOL    HW293971   2.597   1.915   8.497  0.0570  0.0205 -1.7162
62456SOL     OW93972   7.209   9.711   0.669 -0.6527 -0.0471 -0.2446
62456SOL    HW193973   7.257   9.642   0.715  0.1507  0.6797  0.0379
62456SOL    HW293974   7.190   9.675   0.583 -0.1631 -0.5919 -0.1261
62457SOL     OW93975  12.664   5.530   8.105 -0.1944 -0.0845  0.7714
62457SOL    HW193976  12.620   5.604   8.063  1.3102 -0.4023 -1.5780
62457SOL    HW293977  12.753   5.533   8.070  0.4474 -1.8753  2.1364
62458SOL     OW93978   3.742   8.304   4.855 -0.4120 -0.1460 -0.3453
62458SOL    HW193979   3.780   8.256   4.782  0.4064 -0.7451  0.4442
62458SOL    HW293980   3.701   8.237   4.909 -1.3790  0.3431 -0.4631
62459SOL     OW93981  11.803  10.792   0.290  0.1171  0.2500  0.2037
62459SOL    HW193982  11.859  10.730   0.243  1.5623  1.7452 -0.1443
62459SOL    HW293983  11.727  10.804   0.233 -0.9549 -2.2568  0.9511
62460SOL     OW93984   7.057   9.757   5.028  0.7330  0.4731  0.1592
62460SOL    HW193985   6.965   9.776   5.009  0.2935 -0.5373  1.1477
62460SOL    HW293986   7.069   9.787   5.118  2.0246  2.6835 -0.6718
62461SOL     OW93987   0.567   5.549   6.131 -0.3306  0.1743 -0.7526
62461SOL    HW193988   0.501   5.554   6.200  1.2015  0.7196  0.7445
62461SOL    HW293989   0.636   5.609   6.159  0.2739  0.5909 -2.8878
62462SOL     OW93990   5.238  11.434   7.434 -0.1407  0.3576  0.2094
62462SOL    HW193991   5.274  11.405   7.518 -0.8891 -0.2349  0.3322
62462SOL    HW293992   5.314  11.436   7.375  0.5654  1.6273  1.0936
62463SOL     OW93993   8.800   1.603   4.795 -0.1257  0.0999 -0.1035
62463SOL    HW193994   8.884   1.633   4.759 -0.1092  0.2544  0.0588
62463SOL    HW293995   8.741   1.602   4.720 -0.5349  2.0413  0.1359
62464SOL     OW93996   4.429   9.778   4.730  0.4060 -0.2991 -0.0219
62464SOL    HW193997   4.438   9.802   4.822 -1.8297  1.4920 -0.2038
62464SOL    HW293998   4.337   9.753   4.721  0.3247  0.5725 -1.9754
62465SOL     OW93999   9.218   8.824   1.268  0.0030 -0.1511  1.1240
62465SOL    HW194000   9.204   8.859   1.181 -1.0362  2.8575  2.3670
62465SOL    HW294001   9.166   8.743   1.271 -1.2329  0.5325 -0.5488
62466SOL     OW94002   8.498   4.916   4.448 -0.2632 -0.3041 -0.0848
62466SOL    HW194003   8.521   4.861   4.373 -2.0923  0.4604 -1.2658
62466SOL    HW294004   8.531   5.003   4.424  1.4908 -0.5463  1.2182
62467SOL     OW94005  10.878   7.955  10.422  0.3349  0.3544 -0.9397
62467SOL    HW194006  10.813   7.995  10.364  1.5562  0.0449 -2.6017
62467SOL    HW294007  10.953   8.016  10.418  0.9331 -0.3615 -0.7738
62468SOL     OW94008   1.579  12.057  12.491  0.5718  0.4888  0.3999
62468SOL    HW194009   1.563  11.963  12.502  0.9986  0.3118 -0.4062
62468SOL    HW294010   1.658  12.073  12.544  2.4807 -0.3129 -2.0123
62469SOL     OW94011   2.995  12.484   2.012 -0.0671 -0.1251  0.0100
62469SOL    HW194012   2.991  12.482   1.916 -1.3341  1.7403 -0.0472
62469SOL    HW294013   2.976  12.575   2.034 -2.9166 -1.1037  2.1388
62470SOL     OW94014   8.104   6.437   4.425 -0.5727 -0.3040  0.4816
62470SOL    HW194015   8.139   6.414   4.339 -0.4949  0.0184  0.4265
62470SOL    HW294016   8.157   6.387   4.487 -1.4912 -1.5837  0.2793
62471SOL     OW94017   5.214   0.506   3.284  0.3250  0.1463 -0.9969
62471SOL    HW194018   5.271   0.429   3.292 -1.5062 -1.1050  2.3658
62471SOL    HW294019   5.157   0.487   3.210 -1.2963 -2.8372  0.7930
62472SOL     OW94020   8.730  10.835  11.915  0.0335  0.3085  0.4721
62472SOL    HW194021   8.731  10.762  11.852 -1.7327  0.2522  0.4427
62472SOL    HW294022   8.767  10.909  11.867  1.1179 -0.3569  0.2461
62473SOL     OW94023   3.403   9.978   9.175 -0.1952  0.0734 -0.0344
62473SOL    HW194024   3.421   9.948   9.086  0.2989 -1.3110  0.4995
62473SOL    HW294025   3.312   9.953   9.191 -0.1764 -0.0012 -0.0410
62474SOL     OW94026   7.813   7.315   3.383  0.0719 -0.5559  0.0257
62474SOL    HW194027   7.776   7.342   3.299 -1.7136  1.1870  1.2530
62474SOL    HW294028   7.823   7.220   3.376 -1.2278 -0.6147 -1.7079
62475SOL     OW94029   5.843   5.203   8.670  0.7260  0.1622  0.4962
62475SOL    HW194030   5.919   5.246   8.632  0.1719 -1.0818 -2.2764
62475SOL    HW294031   5.827   5.127   8.613 -2.8314  0.6161  0.6405
62476SOL     OW94032   4.516  10.112   1.842  0.1323  0.5336 -0.0760
62476SOL    HW194033   4.489  10.021   1.850  0.5511  0.4658  0.7227
62476SOL    HW294034   4.442  10.163   1.874  0.0734  0.4441 -0.0721
62477SOL     OW94035   1.185   8.837   3.626  0.1571 -0.0688 -0.0063
62477SOL    HW194036   1.192   8.927   3.656  1.9114  0.1477 -0.8993
62477SOL    HW294037   1.272   8.817   3.591 -0.7360 -1.4610 -1.6021
62478SOL     OW94038  11.218   0.828   3.292 -0.4590  0.5349  0.5097
62478SOL    HW194039  11.285   0.779   3.244 -0.9010  0.4572 -0.0488
62478SOL    HW294040  11.243   0.820   3.384  0.1251  0.2483  0.3304
62479SOL     OW94041   1.636   5.360   4.504  0.4423 -0.3914 -0.4414
62479SOL    HW194042   1.584   5.283   4.526  1.9455 -2.0794 -2.3916
62479SOL    HW294043   1.646   5.407   4.587  0.9674 -3.2636  1.2699
62480SOL     OW94044   2.542  12.292   6.603 -0.2215  0.3903  0.2635
62480SOL    HW194045   2.534  12.308   6.697  0.6979  0.9215  0.2672
62480SOL    HW294046   2.506  12.205   6.590  0.0454  0.1367  1.1810
62481SOL     OW94047   3.063   1.812  11.842 -0.1228 -0.3010 -0.0183
62481SOL    HW194048   3.056   1.786  11.750  1.4886 -1.8376  0.2380
62481SOL    HW294049   3.053   1.731  11.891  0.1443  0.3221  1.1179
62482SOL     OW94050   4.649   9.283   0.403  0.1180 -0.0454  0.8409
62482SOL    HW194051   4.561   9.246   0.415 -0.5513  0.8686 -0.9138
62482SOL    HW294052   4.705   9.206   0.391 -0.7364 -0.6075  0.2891
62483SOL     OW94053   3.035  11.648   3.047 -0.4192  0.1700 -0.1857
62483SOL    HW194054   3.088  11.662   2.968  1.2191  1.9567  1.1142
62483SOL    HW294055   2.947  11.676   3.023  0.3085  1.7985 -1.0864
62484SOL     OW94056   6.880   2.158   6.888 -0.5655  0.2894  0.3391
62484SOL    HW194057   6.944   2.207   6.940 -0.5753  0.9880 -0.2914
62484SOL    HW294058   6.917   2.156   6.800 -0.6755 -0.6584  0.3061
62485SOL     OW94059   4.837   5.872   3.044 -0.2609 -0.0691  0.2029
62485SOL    HW194060   4.775   5.895   2.975  0.3854  0.6292 -0.1536
62485SOL    HW294061   4.786   5.819   3.105 -1.2023  0.4867 -0.0892
62486SOL     OW94062  12.405  11.382   2.836 -0.6314 -0.1923 -0.3936
62486SOL    HW194063  12.467  11.369   2.764 -0.1376 -0.1366  0.0131
62486SOL    HW294064  12.381  11.293   2.863  1.8436 -0.3867  1.6152
62487SOL     OW94065   0.704   0.389   0.248 -0.2770  0.9015 -0.1947
62487SOL    HW194066   0.614   0.357   0.248 -0.6453  1.9150 -0.1163
62487SOL    HW294067   0.757   0.310   0.243 -1.1870  0.3434 -1.5008
62488SOL     OW94068  11.407  11.084   2.939 -0.5913 -0.2731 -0.0957
62488SOL    HW194069  11.445  11.097   2.852  0.1324 -0.6124  0.1701
62488SOL    HW294070  11.461  11.017   2.980 -0.5648  0.3024  0.8386
62489SOL     OW94071  10.536  12.416   7.257  0.3760 -0.0440 -0.0880
62489SOL    HW194072  10.534  12.403   7.352  0.4776 -0.4372 -0.1359
62489SOL    HW294073  10.554  12.509   7.246 -1.0797  0.3083  0.2791
62490SOL     OW94074   2.673  11.316   3.979  0.3958 -0.4311 -0.3433
62490SOL    HW194075   2.620  11.355   4.049 -0.0555 -0.6671 -0.5459
62490SOL    HW294076   2.701  11.390   3.925  1.0383 -0.2118  0.2814
62491SOL     OW94077   2.947   4.680   1.953  0.5356 -0.0835  0.1156
62491SOL    HW194078   2.872   4.737   1.969  0.4968  0.2655 -1.2353
62491SOL    HW294079   3.012   4.736   1.910  1.2849 -0.5727  0.5798
62492SOL     OW94080   3.174   7.156   4.435  0.2995  0.0750 -0.2039
62492SOL    HW194081   3.195   7.161   4.528 -0.4654 -0.6905  0.0211
62492SOL    HW294082   3.122   7.076   4.426  1.0828 -0.3286 -1.4307
62493SOL     OW94083   9.045   6.902   6.801 -0.1448 -0.2647 -0.2522
62493SOL    HW194084   9.103   6.829   6.777  1.6720  0.2751  2.0550
62493SOL    HW294085   9.021   6.943   6.718  1.7896 -1.3166 -1.3929
62494SOL     OW94086  12.551   3.791   1.492  0.0192 -0.0203 -0.3708
62494SOL    HW194087  12.478   3.838   1.451 -0.1515 -0.5423 -0.6708
62494SOL    HW294088  12.615   3.779   1.421  0.2221  0.0862 -0.2056
62495SOL     OW94089   6.060   4.088   4.648  0.1500  0.4341 -0.0669
62495SOL    HW194090   6.111   4.166   4.630 -0.0356  0.1719 -1.9254
62495SOL    HW294091   6.110   4.041   4.715  2.8571 -0.2091 -2.3463
62496SOL     OW94092   7.285   3.705  11.331 -0.6044  0.2519  0.5626
62496SOL    HW194093   7.216   3.762  11.298 -0.2320  0.9506  0.9601
62496SOL    HW294094   7.249   3.617  11.325 -1.7864  0.6586  1.3806
62497SOL     OW94095  12.603  10.873   9.513 -0.2740 -0.9448 -0.2992
62497SOL    HW194096  12.607  10.968   9.505 -0.9778 -0.8113  0.7176
62497SOL    HW294097  12.586  10.857   9.606  0.0693 -2.0743 -0.4059
62498SOL     OW94098   0.502  10.160   2.230  0.8424 -0.3453  0.1477
62498SOL    HW194099   0.430  10.213   2.195  1.5862 -0.2788 -1.3466
62498SOL    HW294100   0.463  10.112   2.303 -0.7768 -0.4638 -0.7524
62499SOL     OW94101   4.204   2.377   2.787 -0.3527  0.2057 -0.5804
62499SOL    HW194102   4.116   2.364   2.752 -0.1763  0.3581 -1.0987
62499SOL    HW294103   4.261   2.323   2.732  0.1308  1.6413 -1.5544
62500SOL     OW94104  11.394   2.170   0.116  0.0088 -0.1760 -0.2227
62500SOL    HW194105  11.420   2.163   0.023 -0.1072  0.4358 -0.3067
62500SOL    HW294106  11.387   2.079   0.146 -0.6649 -0.3908 -1.0088
62501SOL     OW94107   3.148   5.220   8.450 -0.0240 -0.5163  0.9247
62501SOL    HW194108   3.154   5.272   8.530 -0.6375  2.0969 -0.5957
62501SOL    HW294109   3.173   5.280   8.380 -3.7985 -1.1929 -1.3318
62502SOL     OW94110   6.079   6.380   6.630  0.2101 -0.3853 -0.0999
62502SOL    HW194111   6.149   6.318   6.647 -0.4615 -0.6654  1.8976
62502SOL    HW294112   6.118   6.466   6.648  0.5354 -0.3964 -0.7469
62503SOL     OW94113   3.204  11.236   3.976  0.3310  0.4302  0.7537
62503SOL    HW194114   3.228  11.311   3.922 -2.2581  1.7053  1.2286
62503SOL    HW294115   3.145  11.185   3.921  1.5227 -0.9446  0.6902
62504SOL     OW94116   2.670   1.649   7.587  0.3067  0.2094 -0.3511
62504SOL    HW194117   2.758   1.662   7.550 -0.3621  1.7476 -1.4956
62504SOL    HW294118   2.667   1.708   7.662  0.6693 -0.8028  0.4837
62505SOL     OW94119   0.479   9.935  10.749  0.4154  0.5127  0.1192
62505SOL    HW194120   0.435   9.856  10.719 -0.0319  0.7400  0.1722
62505SOL    HW294121   0.525   9.908  10.829 -0.0215  0.3887  0.3304
62506SOL     OW94122   5.118  10.792  10.722 -0.3358  0.4648  0.1712
62506SOL    HW194123   5.175  10.780  10.646 -1.0274  3.9570 -1.1148
62506SOL    HW294124   5.177  10.802  10.796  0.6413  1.6528 -0.7324
62507SOL     OW94125   2.217  12.246   1.447 -0.6075  0.3018  0.5291
62507SOL    HW194126   2.185  12.158   1.427  1.0791 -0.2420  0.0646
62507SOL    HW294127   2.248  12.280   1.363 -1.2774  1.3792  0.6951
62508SOL     OW94128   4.244   4.958   4.054 -0.5049  0.1381  0.7744
62508SOL    HW194129   4.208   4.949   4.143 -0.7876  1.4275  0.8139
62508SOL    HW294130   4.322   5.011   4.065  1.0666 -2.0244  0.5824
62509SOL     OW94131   1.544   9.327   8.470 -0.0186  0.6339  0.2575
62509SOL    HW194132   1.637   9.306   8.477  0.0473  1.2055  1.3021
62509SOL    HW294133   1.541   9.404   8.414  0.1427  0.5857  0.1834
62510SOL     OW94134   4.232   7.838  12.248 -0.1831 -0.4640  0.0074
62510SOL    HW194135   4.211   7.837  12.341  2.6365  0.7621  0.7766
62510SOL    HW294136   4.286   7.917  12.237  0.6876 -1.3054 -2.3882
62511SOL     OW94137   8.297   0.875   7.216 -0.5801  0.1079 -0.0720
62511SOL    HW194138   8.206   0.847   7.209 -0.8699  0.1917  2.4689
62511SOL    HW294139   8.348   0.793   7.218 -0.9131 -0.0989  1.4900
62512SOL     OW94140   3.844   4.189   4.543 -0.0370 -0.0061 -0.1002
62512SOL    HW194141   3.901   4.261   4.516  0.1269 -0.2358 -0.3736
62512SOL    HW294142   3.836   4.134   4.465 -3.2376  1.6599 -1.1206
62513SOL     OW94143   4.811   5.947   9.152 -0.3698  1.1848  0.5223
62513SOL    HW194144   4.772   5.870   9.192  1.6893  1.1847  2.7645
62513SOL    HW294145   4.836   5.918   9.064  1.5157 -1.2018  1.7264
62514SOL     OW94146  12.465   9.065   0.851  0.6217 -0.2977  1.0601
62514SOL    HW194147  12.534   9.114   0.807 -0.1932 -0.3301 -0.3050
62514SOL    HW294148  12.393   9.127   0.859  0.6482 -0.3819  2.1125
62515SOL     OW94149  12.485   2.212   7.109  0.3438  0.0895 -0.2159
62515SOL    HW194150  12.451   2.155   7.177 -0.0767  0.3851 -0.1712
62515SOL    HW294151  12.540   2.156   7.055  1.7337  0.1152  1.1040
62516SOL     OW94152   8.092  10.011  12.644 -0.3491 -0.3417 -0.0678
62516SOL    HW194153   8.184  10.032  12.626 -0.5358  0.3530 -0.2515
62516SOL    HW294154   8.075   9.932  12.591  0.0590 -0.2990 -0.2657
62517SOL     OW94155   6.869   9.941   6.440  0.1002 -0.5439  0.0644
62517SOL    HW194156   6.935  10.000   6.405  0.0415 -0.9312 -0.7247
62517SOL    HW294157   6.819   9.913   6.364 -0.6615 -0.6428  0.5871
62518SOL     OW94158   0.816   6.591   4.183  0.0217  0.3246  0.4347
62518SOL    HW194159   0.866   6.673   4.187  0.9386  0.0168 -2.7508
62518SOL    HW294160   0.779   6.589   4.095  3.2076 -4.4081 -1.1354
62519SOL     OW94161   1.295  11.372   6.750  0.0286 -0.0291 -0.4487
62519SOL    HW194162   1.206  11.363   6.716 -0.2005  1.6848 -0.4081
62519SOL    HW294163   1.289  11.444   6.813  1.0614 -1.1762  1.0353
62520SOL     OW94164  10.798   4.553   9.175  0.3671 -0.3645 -0.2690
62520SOL    HW194165  10.887   4.569   9.144  0.5845 -0.3070  0.3758
62520SOL    HW294166  10.775   4.467   9.139  0.5517 -0.2281 -0.7212
62521SOL     OW94167   9.957   1.952   5.466  0.9199 -0.2995 -1.0617
62521SOL    HW194168   9.976   1.898   5.542 -1.8557 -1.9580 -1.4023
62521SOL    HW294169   9.991   1.902   5.392  1.8749  0.3762 -1.0960
62522SOL     OW94170   9.356   4.967   3.423 -0.2700 -0.2683 -0.6347
62522SOL    HW194171   9.284   4.910   3.396 -1.2353  1.3111 -1.5462
62522SOL    HW294172   9.371   4.945   3.515 -2.9542  0.3844  0.0437
62523SOL     OW94173   3.423   9.556  12.478  0.2100  0.1327 -0.0587
62523SOL    HW194174   3.393   9.469  12.452 -2.2759  0.6037  0.8942
62523SOL    HW294175   3.343   9.609  12.480  1.6424  2.4694 -0.6223
62524SOL     OW94176   1.039  10.896   7.521 -0.6033 -0.0566  0.4627
62524SOL    HW194177   1.121  10.926   7.561 -0.0262 -1.9783  0.8371
62524SOL    HW294178   1.014  10.820   7.573 -1.4511 -0.8339 -1.0225
62525SOL     OW94179   3.331   8.069  11.248  0.5043 -0.1204  0.4143
62525SOL    HW194180   3.424   8.085  11.263  0.7904 -1.6406  0.4643
62525SOL    HW294181   3.289   8.085  11.333  1.0632 -1.5903  0.9970
62526SOL     OW94182   4.358   6.861   1.431  0.6336  0.2229 -0.0347
62526SOL    HW194183   4.452   6.858   1.452  1.0371  0.2363 -1.7094
62526SOL    HW294184   4.343   6.786   1.374 -0.4470  0.0489  0.4659
62527SOL     OW94185   7.177   9.739   2.752  0.0721 -0.4145  0.0432
62527SOL    HW194186   7.106   9.757   2.814 -0.3437 -1.2047 -0.1863
62527SOL    HW294187   7.254   9.724   2.807  0.0482  0.3922  0.2960
62528SOL     OW94188  12.395  11.731   1.562 -0.3467  0.0189 -0.0423
62528SOL    HW194189  12.307  11.757   1.590 -0.5038  0.7387 -1.1535
62528SOL    HW294190  12.381  11.649   1.514 -0.6637  0.9223 -1.5755
62529SOL     OW94191  12.047   7.121   5.011  0.5358 -0.1377 -0.3436
62529SOL    HW194192  12.025   7.124   5.104  0.2168 -0.3428 -0.4120
62529SOL    HW294193  12.039   7.211   4.980  1.0381  0.0030 -0.0836
62530SOL     OW94194   6.992   9.900  11.345 -0.2121  0.3081 -0.0536
62530SOL    HW194195   7.009   9.992  11.367 -0.8647  0.3007  0.5323
62530SOL    HW294196   7.040   9.886  11.264  0.6264  0.9163  0.3181
62531SOL     OW94197  10.036   8.499   9.865 -0.1192  0.1612  0.0194
62531SOL    HW194198  10.051   8.593   9.874  0.7861  0.2723 -2.1682
62531SOL    HW294199  10.041   8.482   9.771  0.1907 -2.1660  0.3877
62532SOL     OW94200  10.813   4.616   8.815 -0.2074 -0.0902  0.3523
62532SOL    HW194201  10.897   4.617   8.862  0.0357  3.2303  0.0925
62532SOL    HW294202  10.831   4.570   8.733  0.7681 -1.2304  1.1716
62533SOL     OW94203   0.493  11.767   2.062 -0.3352  0.1165  0.2661
62533SOL    HW194204   0.585  11.747   2.046 -0.3977  0.4346 -0.5206
62533SOL    HW294205   0.448  11.684   2.050 -0.2005  0.0412  0.2809
62534SOL     OW94206  11.050   9.786  11.755 -0.1587 -0.7181 -0.2060
62534SOL    HW194207  11.039   9.879  11.737  2.3979 -0.1438  0.7660
62534SOL    HW294208  10.998   9.770  11.834  0.0262  0.0743  0.0817
62535SOL     OW94209   9.700  10.691   4.825 -0.1517 -0.6261 -0.2542
62535SOL    HW194210   9.698  10.767   4.766 -0.9855 -0.8044 -0.4642
62535SOL    HW294211   9.759  10.629   4.782  0.4216 -0.1579 -0.1540
62536SOL     OW94212   2.693   3.901  11.991 -0.1793  0.2175  0.0873
62536SOL    HW194213   2.643   3.982  11.991 -0.2600  0.1717 -0.6625
62536SOL    HW294214   2.641   3.841  11.937 -1.2240 -1.0239  2.3000
62537SOL     OW94215   3.499   3.363   7.127 -0.1526  0.1272 -0.3509
62537SOL    HW194216   3.476   3.354   7.219  0.2427 -2.1868 -0.4242
62537SOL    HW294217   3.579   3.311   7.117 -0.8071 -0.6159 -2.2036
62538SOL     OW94218   4.980   2.169   0.886 -0.3906 -0.0178  0.4721
62538SOL    HW194219   4.897   2.126   0.905  0.1189 -0.3816  2.0695
62538SOL    HW294220   5.037   2.144   0.959  0.8807  0.8587 -0.1775
62539SOL     OW94221  12.382   0.153   2.054  0.4256 -0.0854  0.1383
62539SOL    HW194222  12.476   0.152   2.073  0.3625  1.9543  0.6942
62539SOL    HW294223  12.371   0.226   1.993 -0.8674 -0.0950  0.3461
62540SOL     OW94224   3.774   5.014   5.969  0.1047 -0.2234 -0.8381
62540SOL    HW194225   3.796   5.004   5.876 -1.3697 -0.0662 -1.2172
62540SOL    HW294226   3.858   5.034   6.011  0.8508 -0.6880 -2.0723
62541SOL     OW94227   7.752  10.203   8.159 -0.2964 -0.4305 -0.0211
62541SOL    HW194228   7.829  10.239   8.115 -0.9496 -1.0984 -1.8138
62541SOL    HW294229   7.759  10.108   8.145 -0.4908 -0.6807  1.4303
62542SOL     OW94230   9.920  11.243   3.927  0.1938 -0.0766  0.5013
62542SOL    HW194231   9.991  11.241   3.863 -0.2390 -0.5686  0.0180
62542SOL    HW294232   9.960  11.275   4.007  1.1405 -1.0795  0.4545
62543SOL     OW94233   3.794  10.884   7.119  0.3352 -0.4116  0.0234
62543SOL    HW194234   3.722  10.887   7.183  2.5197  0.1672  2.6678
62543SOL    HW294235   3.776  10.957   7.059 -0.0023  1.4769  2.2436
62544SOL     OW94236   3.204  10.788   8.430 -0.3121  0.1661 -0.1286
62544SOL    HW194237   3.162  10.844   8.495 -0.1440  0.5695 -0.3648
62544SOL    HW294238   3.296  10.812   8.433 -0.3762  0.5120 -0.8383
62545SOL     OW94239   9.099   6.795   3.990  0.0184 -0.8911 -0.3130
62545SOL    HW194240   9.049   6.786   4.071 -0.5645 -0.8161 -0.6582
62545SOL    HW294241   9.083   6.885   3.961 -0.0460 -1.0193 -0.6846
62546SOL     OW94242   1.705  10.758   5.876  0.4758  0.1375  0.5915
62546SOL    HW194243   1.683  10.824   5.810 -0.4888 -0.1424  0.6218
62546SOL    HW294244   1.623  10.745   5.924  1.4506  1.2981  2.7088
62547SOL     OW94245   4.417  10.742  10.194 -0.1452 -0.5449  0.3663
62547SOL    HW194246   4.475  10.667  10.208 -1.2921 -1.1764  2.0180
62547SOL    HW294247   4.463  10.816  10.234  0.9849 -0.3316 -1.2599
62548SOL     OW94248   3.674   8.829   5.628 -0.1077 -0.0905 -0.0343
62548SOL    HW194249   3.734   8.797   5.560 -0.8432 -2.4742  0.3289
62548SOL    HW294250   3.694   8.774   5.704 -1.7714  0.0591  0.5362
62549SOL     OW94251   0.917  11.971   7.733 -0.4391 -0.4685 -0.7378
62549SOL    HW194252   0.911  11.925   7.817  0.4972 -0.8447 -0.8626
62549SOL    HW294253   0.857  11.923   7.676  0.4280 -1.4813 -0.8283
62550SOL     OW94254   1.124   4.793   5.409 -0.5959  0.2490 -0.2587
62550SOL    HW194255   1.136   4.701   5.431  0.3369  0.6175  0.8844
62550SOL    HW294256   1.129   4.839   5.493 -2.9691  1.1995 -0.5561
62551SOL     OW94257   3.580   1.150   7.853  0.0313  0.2127  0.3646
62551SOL    HW194258   3.524   1.210   7.903 -1.7973  0.0839 -1.4216
62551SOL    HW294259   3.618   1.205   7.784 -0.7574 -0.3992 -0.5860
62552SOL     OW94260   4.836   2.916   3.322 -0.2602 -0.2529  0.3279
62552SOL    HW194261   4.859   3.009   3.334  0.3415 -0.1415 -1.4184
62552SOL    HW294262   4.743   2.917   3.299  0.3595  0.1999 -2.3833
62553SOL     OW94263   9.857   4.179   2.036 -0.2060  0.0410  0.2361
62553SOL    HW194264   9.843   4.096   1.990  0.1756  0.7331 -1.1731
62553SOL    HW294265   9.893   4.238   1.970  1.1730  0.8453  1.6389
62554SOL     OW94266  11.863   7.807   1.399 -0.6518  0.4192 -0.2259
62554SOL    HW194267  11.868   7.733   1.459  0.1203 -1.4973 -2.4868
62554SOL    HW294268  11.772   7.835   1.403 -0.8541 -0.3199  1.0382
62555SOL     OW94269   9.831   0.086  10.341  0.7098  0.0991 -0.7481
62555SOL    HW194270   9.806   0.030  10.268 -1.0604 -1.1611  0.7518
62555SOL    HW294271   9.856   0.025  10.411  1.0331  1.2309  0.1588
62556SOL     OW94272  12.373   6.809   4.795  0.5710  0.4044  0.3956
62556SOL    HW194273  12.292   6.759   4.803  0.9302 -0.2341  0.1091
62556SOL    HW294274  12.438   6.758   4.844  1.1685  0.0553 -0.7169
62557SOL     OW94275   3.531   5.614   1.581  0.0737  0.4759 -0.0882
62557SOL    HW194276   3.611   5.569   1.605 -1.2061 -1.4653  0.7883
62557SOL    HW294277   3.558   5.705   1.567  2.2685  0.0528  0.9451
62558SOL     OW94278  12.502   3.929   7.656 -0.5287  0.3037 -0.1287
62558SOL    HW194279  12.522   3.992   7.726 -0.8192  0.2778 -0.0230
62558SOL    HW294280  12.468   3.982   7.585  0.8471  0.4685 -0.6871
62559SOL     OW94281   8.711   8.824   3.260 -0.0379 -0.4454 -0.0730
62559SOL    HW194282   8.782   8.845   3.321  1.9167 -1.5746 -1.8289
62559SOL    HW294283   8.749   8.839   3.173 -2.0796 -0.7952 -1.0867
62560SOL     OW94284   4.122   6.496   2.645  0.6550 -0.5944 -1.1017
62560SOL    HW194285   4.033   6.527   2.628  0.5253  0.2922  0.9605
62560SOL    HW294286   4.177   6.551   2.589  0.0100 -0.3401 -1.5069
62561SOL     OW94287   4.766  11.082   6.034 -0.2258  0.2586 -0.0659
62561SOL    HW194288   4.847  11.074   5.984 -1.3698 -1.5195 -1.8392
62561SOL    HW294289   4.724  11.160   6.000  0.4760  0.8836  0.4789
62562SOL     OW94290   2.104  12.705   1.898  0.1171  0.7842 -0.4105
62562SOL    HW194291   2.048  12.708   1.820 -0.2998  2.1693 -0.0865
62562SOL    HW294292   2.057  12.648   1.959 -0.7309  1.5250 -0.3327
62563SOL     OW94293   2.293  11.865   6.633  0.2369  0.3916  0.2219
62563SOL    HW194294   2.377  11.895   6.668  0.9674 -2.5035  1.1783
62563SOL    HW294295   2.229  11.889   6.700  0.8168 -0.2845  1.0327
62564SOL     OW94296   7.462   8.209   7.327 -0.0497  0.2685 -0.0274
62564SOL    HW194297   7.420   8.293   7.347  0.4293  1.2732 -2.7775
62564SOL    HW294298   7.440   8.193   7.235  1.2732 -1.7980 -0.0441
62565SOL     OW94299   9.016   9.379   5.596 -0.1225  0.6765 -0.0925
62565SOL    HW194300   9.072   9.372   5.674  0.5753  0.3958 -0.6015
62565SOL    HW294301   8.961   9.301   5.599  1.0488 -0.2102 -0.7324
62566SOL     OW94302   0.429   9.352  10.797  0.0184 -0.6733 -0.2656
62566SOL    HW194303   0.378   9.336  10.876 -0.4191 -0.2599 -0.4580
62566SOL    HW294304   0.416   9.274  10.744  0.9639 -1.3051  0.4046
62567SOL     OW94305  10.174   4.551   3.468  0.0328 -0.2836  1.0722
62567SOL    HW194306  10.139   4.474   3.422  1.4625  0.3388 -1.2124
62567SOL    HW294307  10.099   4.588   3.513 -1.0985 -1.9497  0.6541
62568SOL     OW94308  12.274  11.529   1.757  0.2214  0.0907  0.9267
62568SOL    HW194309  12.308  11.511   1.844  0.9516  0.0290  0.6331
62568SOL    HW294310  12.195  11.581   1.772  0.9185  0.9915  1.5915
62569SOL     OW94311  12.594   2.307  12.731 -0.5704  0.6520  0.0831
62569SOL    HW194312  12.540   2.364  12.676 -2.2472  0.5645  1.5402
62569SOL    HW294313  12.647   2.367  12.784  1.3430  0.7368 -1.7773
62570SOL     OW94314  11.730   7.216   0.986  1.5516 -0.0044  0.1112
62570SOL    HW194315  11.673   7.182   1.056 -0.1863 -1.0354 -1.6892
62570SOL    HW294316  11.803   7.257   1.032 -1.2394  2.5881  2.6833
62571SOL     OW94317   4.377   6.158   2.308  1.0565 -0.9807  0.4586
62571SOL    HW194318   4.378   6.254   2.316  1.7440 -0.8487 -0.9138
62571SOL    HW294319   4.411   6.141   2.220 -1.1085 -2.4061 -0.1892
62572SOL     OW94320   9.213   0.583   3.019 -0.3269  0.1209  0.2111
62572SOL    HW194321   9.139   0.584   3.079 -0.5210 -0.4666 -0.0113
62572SOL    HW294322   9.273   0.649   3.053 -1.7378  1.8933 -0.6031
62573SOL     OW94323   8.810   2.642  10.425  0.8781  0.2059 -0.2971
62573SOL    HW194324   8.827   2.548  10.420  1.3037  0.1640  1.2883
62573SOL    HW294325   8.832   2.666  10.515 -3.9061  0.9036  0.9811
62574SOL     OW94326   7.655   0.738  10.135 -0.7909  0.0012 -0.7731
62574SOL    HW194327   7.599   0.782  10.070 -1.8018 -1.8064 -1.1962
62574SOL    HW294328   7.609   0.656  10.154  0.5379 -0.4399  0.7025
62575SOL     OW94329   9.393   3.962   9.369 -0.3548  0.6675  0.2952
62575SOL    HW194330   9.310   3.921   9.394  0.1129  0.3553  1.4277
62575SOL    HW294331   9.381   3.988   9.278 -1.7152  0.6891  0.4628
62576SOL     OW94332   7.171  10.860   1.603  0.1139  0.1761  0.7919
62576SOL    HW194333   7.106  10.926   1.625  1.1688  1.9453 -1.0347
62576SOL    HW294334   7.146  10.830   1.516  0.0779 -1.3479  1.2954
62577SOL     OW94335  11.775   2.090   5.521 -0.0662 -0.2878  0.3803
62577SOL    HW194336  11.806   2.162   5.576  1.3097 -0.0088 -0.6884
62577SOL    HW294337  11.747   2.023   5.582  1.4576 -0.0128  1.4413
62578SOL     OW94338   8.983   8.334   1.459  0.9042 -0.5660  0.6902
62578SOL    HW194339   9.066   8.293   1.436  0.5934  0.5205 -3.0766
62578SOL    HW294340   9.006   8.425   1.479  0.7517 -0.5843  0.9539
62579SOL     OW94341   9.650   7.361   1.020  0.0898  0.4104  0.0881
62579SOL    HW194342   9.683   7.414   0.947 -0.2080  1.4045  0.6517
62579SOL    HW294343   9.722   7.361   1.084  0.2383 -0.2069 -0.0751
62580SOL     OW94344   5.770   7.140   0.950 -0.2892 -0.4854 -0.1177
62580SOL    HW194345   5.731   7.053   0.962 -3.2007  0.7804  0.4018
62580SOL    HW294346   5.843   7.142   1.012 -1.3370 -1.9344  1.2452
62581SOL     OW94347   8.117   9.681   4.184 -0.6684 -0.6167 -0.1896
62581SOL    HW194348   8.119   9.770   4.148  0.3798 -0.3264  0.5559
62581SOL    HW294349   8.050   9.685   4.252 -0.2049 -0.2194  0.2546
62582SOL     OW94350   8.983   2.569   1.690  0.1640  0.0069 -0.2339
62582SOL    HW194351   9.018   2.481   1.701  1.7351  0.7859  1.4544
62582SOL    HW294352   9.017   2.597   1.605 -0.1239 -0.8932 -0.6605
62583SOL     OW94353  11.525   8.569   0.465  0.9002 -0.1959  0.3122
62583SOL    HW194354  11.619   8.580   0.458  0.7903  0.2246 -0.6971
62583SOL    HW294355  11.490   8.605   0.383 -0.3435  2.2791  1.8262
62584SOL     OW94356   3.383   2.554   4.972  0.1146 -0.1635 -0.1955
62584SOL    HW194357   3.337   2.489   5.025 -0.4209 -0.0836 -0.5586
62584SOL    HW294358   3.328   2.632   4.976  0.8261  0.3248  0.3574
62585SOL     OW94359   4.938   7.337   7.006 -0.0145 -0.5739 -0.6078
62585SOL    HW194360   4.884   7.261   6.985 -0.8410  0.0291 -0.7354
62585SOL    HW294361   4.880   7.394   7.057  0.9139 -0.4878  0.4041
62586SOL     OW94362  10.387   8.876   3.411  0.4923 -0.1119 -0.6544
62586SOL    HW194363  10.461   8.815   3.409 -0.5765 -1.5026  0.1765
62586SOL    HW294364  10.337   8.850   3.489 -0.0223  1.8341 -0.2776
62587SOL     OW94365   8.146   4.092   3.616 -0.0019 -0.3668 -0.5268
62587SOL    HW194366   8.083   4.152   3.656  0.3648 -0.2606 -0.1089
62587SOL    HW294367   8.126   4.007   3.656 -0.0073 -0.3721 -0.5405
62588SOL     OW94368   1.163   5.409  12.072 -0.2701  0.6450  0.5820
62588SOL    HW194369   1.213   5.483  12.107  0.1721  1.2294 -1.1887
62588SOL    HW294370   1.227   5.339  12.065 -0.1567  0.7917  0.1449
62589SOL     OW94371   0.317   2.208   6.090  0.1399  0.2832  0.1629
62589SOL    HW194372   0.240   2.230   6.143 -0.9583 -1.5663 -0.5635
62589SOL    HW294373   0.294   2.124   6.049  2.3992 -0.1191 -0.3920
62590SOL     OW94374   8.541   4.604   2.912 -0.2123 -0.3535  0.3294
62590SOL    HW194375   8.447   4.617   2.895  0.0395  1.1274 -0.0883
62590SOL    HW294376   8.574   4.562   2.832 -0.2817  0.3673 -0.0868
62591SOL     OW94377  11.829   7.142   2.552  0.3605 -0.6837  0.0685
62591SOL    HW194378  11.833   7.237   2.539 -0.8562 -0.2981  1.9958
62591SOL    HW294379  11.777   7.131   2.632 -1.5023 -3.0779 -1.3093
62592SOL     OW94380   0.275   2.974   7.201 -0.1351 -0.2258 -0.9023
62592SOL    HW194381   0.231   2.911   7.144 -0.6948 -0.5112 -0.1700
62592SOL    HW294382   0.317   2.921   7.269  0.8650  0.0848 -1.2644
62593SOL     OW94383   1.077   6.251   4.430 -0.4836 -0.4773  0.0108
62593SOL    HW194384   1.118   6.167   4.409  0.4607 -0.2882  1.0118
62593SOL    HW294385   1.134   6.289   4.497 -0.3719  1.3962 -1.0797
62594SOL     OW94386   5.785   1.821   5.701  0.3440  0.2317 -0.6449
62594SOL    HW194387   5.734   1.884   5.752  0.3656  0.2349 -0.6275
62594SOL    HW294388   5.719   1.769   5.653  0.3714  1.3605 -1.9690
62595SOL     OW94389   1.399   9.968   3.274  0.0310  0.3226  0.8655
62595SOL    HW194390   1.336   9.905   3.238  0.5870  1.1460 -1.7678
62595SOL    HW294391   1.476   9.959   3.218  1.4629  0.8715  2.6710
62596SOL     OW94392   6.327   8.328   5.042  0.4043  0.1073  0.1432
62596SOL    HW194393   6.375   8.259   5.088  0.3004  0.3589  0.6280
62596SOL    HW294394   6.309   8.290   4.956  1.4541  0.0065 -0.0468
62597SOL     OW94395   7.058   8.387   7.966 -0.3722 -0.0366 -0.2702
62597SOL    HW194396   7.127   8.453   7.974  0.1664 -0.7236  1.2293
62597SOL    HW294397   6.989   8.430   7.917  0.9088  0.8520 -1.3521
62598SOL     OW94398   1.928  11.391   5.895  0.2695  0.4314 -0.1250
62598SOL    HW194399   1.836  11.412   5.907  0.4125  0.9526  0.0859
62598SOL    HW294400   1.931  11.295   5.898 -0.3299  0.3923 -0.6565
62599SOL     OW94401  10.649  12.689   7.264  0.0548  0.1369  0.2789
62599SOL    HW194402  10.700  12.645   7.331 -0.5926 -1.1101 -0.0107
62599SOL    HW294403  10.585  12.740   7.313  0.0949 -0.1376  0.6260
62600SOL     OW94404   9.793   0.647   0.501 -0.2473 -0.2306 -0.6072
62600SOL    HW194405   9.806   0.684   0.414  0.2533  1.0375 -0.0119
62600SOL    HW294406   9.701   0.664   0.520  0.3017  2.1711  0.2670
62601SOL     OW94407  11.939   5.597   9.069  0.0276  0.0072  0.1627
62601SOL    HW194408  11.887   5.592   9.149  0.0865  0.1703  0.2096
62601SOL    HW294409  11.899   5.668   9.019 -1.5159 -1.5925 -1.0111
62602SOL     OW94410   5.680   5.639   8.347 -0.6107  0.0656  0.1383
62602SOL    HW194411   5.671   5.632   8.442 -4.5163 -0.6018 -0.1206
62602SOL    HW294412   5.687   5.549   8.317  1.2900  0.3024 -0.2352
62603SOL     OW94413  11.722   8.105   6.362 -0.1585  0.0977 -0.1256
62603SOL    HW194414  11.729   8.034   6.426  1.4132  0.0687 -0.3010
62603SOL    HW294415  11.676   8.174   6.409  0.2512 -0.2251  0.7863
62604SOL     OW94416   9.970   2.481  12.448  0.0380  0.4391  0.1876
62604SOL    HW194417  10.026   2.469  12.371  0.3993  0.9392  0.3743
62604SOL    HW294418  10.030   2.476  12.522 -0.2481  0.4069  0.4164
62605SOL     OW94419   7.108  12.172   2.086 -0.1499 -0.0954  0.1593
62605SOL    HW194420   7.044  12.174   2.156 -1.0293  1.5257 -0.6302
62605SOL    HW294421   7.179  12.228   2.117 -0.7954  1.0910 -0.4291
62606SOL     OW94422   9.619   2.708   2.934  0.3218 -0.4712 -0.1810
62606SOL    HW194423   9.533   2.711   2.975  0.6918 -1.2646  0.6717
62606SOL    HW294424   9.604   2.740   2.844 -0.9379 -1.0618 -0.1928
62607SOL     OW94425  11.887   8.486  11.033 -0.1207 -0.0044  0.1108
62607SOL    HW194426  11.948   8.499  11.105 -0.6988 -1.6743  0.9466
62607SOL    HW294427  11.909   8.400  10.998 -0.4072  0.4177 -1.1765
62608SOL     OW94428   4.314   9.868   9.867 -0.0811  0.3478  0.7015
62608SOL    HW194429   4.284   9.836   9.952  1.7873 -0.3154  1.1518
62608SOL    HW294430   4.384   9.808   9.842 -0.2512  0.8377 -1.0850
62609SOL     OW94431   7.959   7.252   8.794 -0.5709 -0.4771 -0.0948
62609SOL    HW194432   7.883   7.263   8.850 -0.6471 -0.1840 -0.2550
62609SOL    HW294433   7.965   7.334   8.745 -0.3469 -0.6267 -0.3196
62610SOL     OW94434  12.486  10.195  10.930 -0.0465  0.0386  0.3089
62610SOL    HW194435  12.458  10.165  10.844  0.9282 -0.4809  0.1621
62610SOL    HW294436  12.564  10.143  10.950 -1.0759 -0.8850  2.1428
62611SOL     OW94437   5.646  10.054   8.050  0.3190 -0.3245  0.3739
62611SOL    HW194438   5.664   9.998   7.974 -0.4530 -1.2245  0.8338
62611SOL    HW294439   5.711  10.028   8.115 -0.4386 -1.1680  0.8170
62612SOL     OW94440   3.511   6.776  11.788  0.2244  0.9062 -0.6604
62612SOL    HW194441   3.502   6.685  11.818 -0.4306  1.2200  0.1292
62612SOL    HW294442   3.487   6.829  11.864 -1.3429  1.7267 -1.6648
62613SOL     OW94443   8.888   1.191   3.340  0.4866  0.2061  0.1468
62613SOL    HW194444   8.824   1.125   3.312  1.9283 -1.3047  0.2560
62613SOL    HW294445   8.840   1.274   3.338 -0.5195 -0.3092 -3.2833
62614SOL     OW94446   6.470   3.061  12.572 -0.3530 -0.0979  0.0569
62614SOL    HW194447   6.462   2.968  12.594  0.1797 -0.0292  0.5733
62614SOL    HW294448   6.412   3.073  12.497 -0.0947 -0.9347 -0.2843
62615SOL     OW94449   9.726   6.012   4.867 -0.4258 -0.0798  0.1838
62615SOL    HW194450   9.742   5.921   4.891 -0.5807 -0.3464 -0.6923
62615SOL    HW294451   9.756   6.063   4.943  0.7175 -0.7941  0.2285
62616SOL     OW94452   3.439   5.517   7.790 -0.2051 -0.1835  0.3510
62616SOL    HW194453   3.347   5.520   7.763  0.5713  2.6111 -2.6232
62616SOL    HW294454   3.441   5.563   7.873 -1.5227 -0.7669  0.7399
62617SOL     OW94455   8.051  11.979   1.463  0.4632  0.8964  0.5502
62617SOL    HW194456   8.137  11.939   1.453 -0.3044 -0.6847  0.0583
62617SOL    HW294457   8.047  12.045   1.394  1.2240  0.9199  0.5188
62618SOL     OW94458  12.580   3.731   4.043  0.1920  0.2520  0.2980
62618SOL    HW194459  12.495   3.774   4.039 -0.5516 -0.7961  2.7177
62618SOL    HW294460  12.642   3.797   4.012 -1.3704  1.4613 -0.3513
62619SOL     OW94461   2.613   2.215  11.461  0.1833 -0.1940  0.1162
62619SOL    HW194462   2.550   2.283  11.436 -0.2636  0.0811  1.8355
62619SOL    HW294463   2.632   2.234  11.553  2.5866 -0.4494 -0.2719
62620SOL     OW94464   8.263   3.149  11.068 -0.3142  0.3802 -0.0027
62620SOL    HW194465   8.244   3.094  10.992  1.0779  0.7179 -0.6349
62620SOL    HW294466   8.289   3.087  11.136  2.7128  0.2248 -1.1566
62621SOL     OW94467  11.054   2.516   4.022 -0.2373  0.5760  0.5360
62621SOL    HW194468  11.113   2.479   4.087  0.9194  0.1764 -0.7068
62621SOL    HW294469  10.971   2.527   4.069 -0.3633 -2.6440  1.2504
62622SOL     OW94470   6.191   7.096   8.112  0.0529 -0.0538  0.8706
62622SOL    HW194471   6.284   7.114   8.128  0.5622  0.0662 -1.8250
62622SOL    HW294472   6.147   7.179   8.128  0.6688  0.3526  0.5120
62623SOL     OW94473   8.838   1.350  10.939 -0.3457 -0.5678 -0.0404
62623SOL    HW194474   8.793   1.305  10.868  0.5983  0.2302 -1.1792
62623SOL    HW294475   8.920   1.302  10.950 -0.1221 -0.1956 -0.0571
62624SOL     OW94476   2.606   9.752   5.972 -0.1584 -0.5532 -0.3795
62624SOL    HW194477   2.684   9.707   6.005 -1.4816 -1.9687  0.9999
62624SOL    HW294478   2.549   9.760   6.049 -0.9146  1.5210 -1.0905
62625SOL     OW94479   8.192   7.463   4.813  0.2790  0.3512 -0.0591
62625SOL    HW194480   8.252   7.464   4.888  0.9978  0.6842 -0.6348
62625SOL    HW294481   8.171   7.370   4.801 -0.4276  0.3494  1.0046
62626SOL     OW94482   7.373   6.879  12.626 -0.4957  0.2177 -0.4916
62626SOL    HW194483   7.418   6.921  12.553 -0.2891 -0.0958 -0.5463
62626SOL    HW294484   7.280   6.887  12.605 -0.4295 -0.1302 -0.9383
62627SOL     OW94485  11.765   6.091   8.858 -0.2050  0.2488 -0.7287
62627SOL    HW194486  11.739   6.182   8.846  0.5695  0.5174 -0.4784
62627SOL    HW294487  11.800   6.064   8.773  2.0161  1.0399 -0.1375
62628SOL     OW94488   2.776   6.263   8.817 -0.2886 -0.4126 -0.2032
62628SOL    HW194489   2.716   6.337   8.824  0.4528  0.1067  0.8876
62628SOL    HW294490   2.719   6.186   8.818 -0.9167  0.0086  1.9847
62629SOL     OW94491   7.759   4.016   3.769 -0.3389  0.3245  0.0766
62629SOL    HW194492   7.691   4.009   3.837 -0.4514  1.6286  0.1243
62629SOL    HW294493   7.721   4.074   3.704  0.7403  1.0942  0.1170
62630SOL     OW94494   2.390   9.430  12.124  0.0365  0.4034  0.0954
62630SOL    HW194495   2.485   9.438  12.126  0.3392 -1.4445 -2.1888
62630SOL    HW294496   2.369   9.376  12.200  1.0168 -0.4916 -0.2480
62631SOL     OW94497   7.619  11.849   3.098  0.0971 -0.0816 -0.2827
62631SOL    HW194498   7.664  11.896   3.028  0.4712  1.0692  0.6965
62631SOL    HW294499   7.635  11.756   3.079 -1.1014  0.1193 -2.5456
62632SOL     OW94500   8.253  11.471   0.484  0.3145 -0.2761 -0.7564
62632SOL    HW194501   8.249  11.555   0.530  0.7191 -0.7647  0.2066
62632SOL    HW294502   8.170  11.428   0.506  0.6131 -0.6128 -0.2596
62633SOL     OW94503   9.172   8.666  12.546  0.0680 -0.1549  0.2273
62633SOL    HW194504   9.091   8.639  12.502  0.4464  1.5826 -1.6711
62633SOL    HW294505   9.239   8.608  12.511 -0.0757 -0.5679  0.6213
62634SOL     OW94506   0.268  11.773   7.972  0.1779  0.2717 -0.1318
62634SOL    HW194507   0.223  11.705   7.921  1.8525 -1.9251  1.1320
62634SOL    HW294508   0.203  11.842   7.982 -1.2997 -0.6896 -2.3416
62635SOL     OW94509  10.696   4.395  12.493 -0.3187 -0.1908 -0.1069
62635SOL    HW194510  10.707   4.303  12.520 -2.0726 -0.6992 -1.0096
62635SOL    HW294511  10.704   4.394  12.398  1.3572  0.8987 -0.0194
62636SOL     OW94512   1.761  11.948   8.527 -0.2844 -0.6799 -0.1794
62636SOL    HW194513   1.709  11.913   8.599 -1.1493 -0.3982 -0.6472
62636SOL    HW294514   1.729  12.038   8.517  1.1410 -0.0941  0.3007
62637SOL     OW94515   5.860  10.157   4.131 -0.3027  0.1632 -0.3707
62637SOL    HW194516   5.955  10.158   4.135 -0.1734  1.0595 -2.4534
62637SOL    HW294517   5.832  10.207   4.207  0.9503  1.1388 -0.5213
62638SOL     OW94518   8.148   2.455   1.316 -0.5920 -0.0321 -0.1464
62638SOL    HW194519   8.171   2.441   1.224 -0.9469 -1.5247 -0.0361
62638SOL    HW294520   8.153   2.368   1.355  0.4709  0.7279  1.4807
62639SOL     OW94521  10.143   8.463   8.013 -0.4248 -0.3316 -0.1603
62639SOL    HW194522  10.082   8.437   8.081  1.4590 -1.2002  1.2626
62639SOL    HW294523  10.087   8.484   7.938 -2.4364 -1.2286  1.0113
62640SOL     OW94524  11.867   0.565   6.730  0.0248 -0.4339 -0.3243
62640SOL    HW194525  11.851   0.490   6.673 -0.5480  1.0964 -2.3012
62640SOL    HW294526  11.962   0.575   6.730  0.0254 -0.3792 -1.1319
62641SOL     OW94527   4.733   2.550  11.484  0.3245  0.1818  0.4495
62641SOL    HW194528   4.782   2.622  11.444 -0.8573  0.7833  0.0487
62641SOL    HW294529   4.685   2.510  11.411 -0.6299  0.2928  1.0054
62642SOL     OW94530   7.807   9.971  11.278  0.0776  0.4448  0.1354
62642SOL    HW194531   7.736   9.909  11.294 -1.6313  2.6480  1.8047
62642SOL    HW294532   7.854   9.976  11.362  0.9400  0.5340 -0.3426
62643SOL     OW94533   4.551   5.919  11.194  0.0619  0.7119 -0.0586
62643SOL    HW194534   4.493   5.953  11.127 -2.4114  1.8234  2.4236
62643SOL    HW294535   4.534   5.825  11.197 -0.3895  0.7829 -0.4617
62644SOL     OW94536  10.777   2.041   9.234 -0.2454  0.2050  0.3141
62644SOL    HW194537  10.736   2.033   9.320 -2.0264  0.9265 -0.4226
62644SOL    HW294538  10.835   2.117   9.242  0.6970 -0.5759  1.2503
62645SOL     OW94539  12.308   1.824  11.494 -0.5305 -0.3556 -0.2572
62645SOL    HW194540  12.234   1.883  11.486 -0.2439 -0.1616 -1.7816
62645SOL    HW294541  12.366   1.848  11.422 -0.0732 -2.0111 -0.4934
62646SOL     OW94542   9.363   6.263  12.078  0.8416 -0.1289 -0.2197
62646SOL    HW194543   9.345   6.178  12.117 -0.4541  0.3083  0.2007
62646SOL    HW294544   9.289   6.278  12.018  3.1034 -1.1031 -3.4918
62647SOL     OW94545   2.620   4.479   7.890  0.1939  0.2041 -0.3691
62647SOL    HW194546   2.615   4.517   7.978  0.6730  0.7449 -0.5687
62647SOL    HW294547   2.542   4.513   7.845 -0.7267 -1.0618  0.2110
62648SOL     OW94548   0.381   7.685   3.363  0.0395  0.8983 -0.2424
62648SOL    HW194549   0.423   7.710   3.445 -1.1860  2.0899  0.0449
62648SOL    HW294550   0.448   7.632   3.318  0.5438 -0.2624  1.7214
62649SOL     OW94551  12.559  12.607   0.021  0.2573  0.4021  0.2702
62649SOL    HW194552  12.592  12.548  -0.047  1.7082  0.8395  0.5495
62649SOL    HW294553  12.608  12.688   0.008  0.5623  0.4968  1.8313
62650SOL     OW94554   9.852   6.612   9.348  0.1873  0.4563  0.0352
62650SOL    HW194555   9.830   6.580   9.261 -0.3526  1.5919 -0.2674
62650SOL    HW294556   9.873   6.705   9.335 -0.4823  0.7956  1.1887
62651SOL     OW94557   5.301   4.121   3.270  0.6788 -0.2898  0.6027
62651SOL    HW194558   5.211   4.110   3.240  1.3245 -0.0211 -1.6315
62651SOL    HW294559   5.303   4.210   3.305 -0.0514 -0.4993  1.2002
62652SOL     OW94560   3.808   1.740   0.301 -0.3511  0.0758 -0.2273
62652SOL    HW194561   3.833   1.649   0.284 -2.0859 -0.3122 -1.0176
62652SOL    HW294562   3.881   1.792   0.269 -1.1634 -0.8750 -4.2498
62653SOL     OW94563   9.603   4.084   9.173 -0.3789  0.3400 -0.0471
62653SOL    HW194564   9.611   4.022   9.100  0.3881 -0.7123  0.9132
62653SOL    HW294565   9.513   4.117   9.165  0.0096  1.0857 -2.1083
62654SOL     OW94566  11.528   0.225   0.724 -0.1144 -0.3563  0.1084
62654SOL    HW194567  11.487   0.205   0.640 -1.3336 -0.6724  0.7556
62654SOL    HW294568  11.564   0.313   0.714  0.6427 -0.7810 -1.0560
62655SOL     OW94569   7.283   2.278  12.154  0.0341 -0.0048 -0.1043
62655SOL    HW194570   7.230   2.204  12.186  0.4780  0.0391  0.7731
62655SOL    HW294571   7.290   2.263  12.060 -0.2448 -0.8487 -0.0043
62656SOL     OW94572   6.255   3.656   8.138  0.1473  0.3775 -0.0624
62656SOL    HW194573   6.267   3.715   8.064 -2.0716  2.2814  0.9824
62656SOL    HW294574   6.185   3.597   8.109 -1.4469  1.7688  0.7866
62657SOL     OW94575   4.749   2.873   1.059 -0.1788  0.2083  0.6499
62657SOL    HW194576   4.818   2.938   1.078  0.4438 -0.0294 -0.7208
62657SOL    HW294577   4.786   2.817   0.992 -1.3313 -0.5893  0.6496
62658SOL     OW94578   0.771   0.288   7.780  0.0551 -0.6122 -0.0313
62658SOL    HW194579   0.687   0.319   7.815  1.2631  0.3324  2.2398
62658SOL    HW294580   0.784   0.203   7.822  1.1683  0.1864  1.3057
62659SOL     OW94581  11.871   2.779  12.723 -0.1451  0.3618 -0.0694
62659SOL    HW194582  11.815   2.837  12.774 -1.0301 -0.3216 -0.2419
62659SOL    HW294583  11.918   2.727  12.788  1.4875  1.9778  0.1277
62660SOL     OW94584  11.413   0.581  12.039 -0.3615  0.4598  0.7065
62660SOL    HW194585  11.353   0.590  11.965  0.5983  0.4933 -0.0914
62660SOL    HW294586  11.383   0.647  12.101 -0.5651  1.1536 -0.0977
62661SOL     OW94587   9.151   1.506   9.407  0.2758 -0.0665 -0.0030
62661SOL    HW194588   9.162   1.449   9.331  0.0701 -1.2867  0.8515
62661SOL    HW294589   9.060   1.493   9.434 -0.0055  1.2628 -0.2366
62662SOL     OW94590   1.834   1.612   5.220  0.1205  0.4734 -0.0025
62662SOL    HW194591   1.899   1.548   5.190  0.3627  0.4411  0.5715
62662SOL    HW294592   1.869   1.696   5.192  0.1087  0.4052 -0.2246
62663SOL     OW94593   0.226   0.478   4.995  0.6771  0.6122  0.2285
62663SOL    HW194594   0.249   0.537   4.923  0.9906  1.2995  0.8703
62663SOL    HW294595   0.257   0.524   5.073 -1.9122  1.1204  1.0554
62664SOL     OW94596  11.886  11.454  10.425  0.5249 -0.4859 -0.2790
62664SOL    HW194597  11.812  11.515  10.423 -0.2681 -1.4077 -0.3189
62664SOL    HW294598  11.942  11.487  10.495 -1.4201 -1.3741  1.8236
62665SOL     OW94599   9.899  10.494   0.743 -0.3380  0.1378  0.1914
62665SOL    HW194600   9.985  10.500   0.702 -1.1007  0.2348 -1.5023
62665SOL    HW294601   9.914  10.517   0.835  1.7889 -1.9214  0.4514
62666SOL     OW94602   8.524   7.036   0.332  0.2529 -0.3475 -0.3079
62666SOL    HW194603   8.540   6.944   0.352  1.4331 -0.6870 -2.4975
62666SOL    HW294604   8.605   7.080   0.357 -0.1081  0.0234  0.2239
62667SOL     OW94605   3.584   7.122   5.635 -0.1650  0.7304 -0.0338
62667SOL    HW194606   3.679   7.130   5.633 -0.1248  0.2076 -0.3544
62667SOL    HW294607   3.554   7.205   5.672  0.4391  0.7182  0.5136
62668SOL     OW94608   0.439   8.928   7.223  0.1179  0.0629  0.5549
62668SOL    HW194609   0.485   8.978   7.291  0.6327 -1.0477  1.0384
62668SOL    HW294610   0.385   8.994   7.179  1.2595  1.1798  0.7460
62669SOL     OW94611   4.426   2.330   0.679  0.0630  0.2350 -0.4871
62669SOL    HW194612   4.422   2.251   0.625  2.3565 -0.8779  0.8360
62669SOL    HW294613   4.343   2.330   0.728  0.0370 -1.3478 -0.5049
62670SOL     OW94614   0.762   0.400   5.571 -0.1509  0.1576  0.0204
62670SOL    HW194615   0.836   0.408   5.510  0.7417  0.9238  1.1680
62670SOL    HW294616   0.722   0.316   5.548  0.0721  0.4651 -1.6959
62671SOL     OW94617   0.708   8.008   1.920  1.0534 -0.1670 -0.5102
62671SOL    HW194618   0.758   8.053   1.852  1.8688  1.6879  1.2141
62671SOL    HW294619   0.764   8.014   1.998 -1.7298  1.9454  1.5338
62672SOL     OW94620   1.159   5.198   3.910  0.1565  0.5794  0.1861
62672SOL    HW194621   1.090   5.211   3.845 -0.1286 -1.5572  0.0087
62672SOL    HW294622   1.143   5.265   3.976 -0.3907  1.8983 -1.2278
62673SOL     OW94623   1.354   0.696  11.165 -0.0231 -0.3614  0.3158
62673SOL    HW194624   1.321   0.640  11.094  2.2940 -2.2890  0.6463
62673SOL    HW294625   1.286   0.692  11.232 -1.6468  0.4224 -1.1786
62674SOL     OW94626  11.503   1.497  11.042 -0.4559 -0.2641 -0.1642
62674SOL    HW194627  11.529   1.472  11.130 -0.7818 -2.5615 -0.6504
62674SOL    HW294628  11.460   1.419  11.007  1.0362  0.0044 -2.8799
62675SOL     OW94629   9.756   4.448   7.574 -0.3777  0.1862  0.2099
62675SOL    HW194630   9.821   4.377   7.568 -2.4528 -1.8329  0.1983
62675SOL    HW294631   9.799   4.523   7.532  2.2973 -0.7250  1.0851
62676SOL     OW94632   8.381  12.635   7.203 -0.1765  0.2714 -0.7625
62676SOL    HW194633   8.323  12.698   7.160 -0.1021  0.4096 -0.6631
62676SOL    HW294634   8.466  12.649   7.160 -0.4706 -0.7394 -1.7308
62677SOL     OW94635   0.804   5.253   1.399  0.3523 -0.2766 -0.6167
62677SOL    HW194636   0.850   5.170   1.385 -1.6513 -1.9421  1.7699
62677SOL    HW294637   0.716   5.238   1.363 -0.5430  0.1748  1.2830
62678SOL     OW94638   2.720   7.273  11.483 -0.1258  0.1982  0.1030
62678SOL    HW194639   2.692   7.259  11.573 -1.7389  1.7767 -0.1083
62678SOL    HW294640   2.683   7.200  11.434 -3.7800  1.9805 -0.0929
62679SOL     OW94641   7.829   3.262   7.235 -0.0159 -0.2894 -0.3920
62679SOL    HW194642   7.867   3.256   7.147 -0.9334 -0.6508 -0.7803
62679SOL    HW294643   7.884   3.325   7.281 -0.6637  1.4192 -1.8420
62680SOL     OW94644   4.551   3.961  10.909 -0.1644  0.2794 -0.1845
62680SOL    HW194645   4.504   3.880  10.889  0.6820 -0.1957 -0.2862
62680SOL    HW294646   4.599   3.942  10.989  0.7216  0.3794 -0.6793
62681SOL     OW94647   9.481   3.534   6.602 -0.3410  0.2380  0.3034
62681SOL    HW194648   9.524   3.610   6.564  0.5165  0.8012  2.2472
62681SOL    HW294649   9.504   3.538   6.695 -0.9759 -1.9245  0.6078
62682SOL     OW94650   9.419   7.055  11.808  0.3933 -0.2224 -0.1172
62682SOL    HW194651   9.370   7.068  11.727  1.3231 -1.5787 -0.9381
62682SOL    HW294652   9.511   7.060  11.781  0.7237 -1.5029  0.6950
62683SOL     OW94653   8.025  11.429   3.337  0.0458 -0.5981 -0.3910
62683SOL    HW194654   7.988  11.504   3.383 -0.0986 -0.1783 -1.1893
62683SOL    HW294655   8.003  11.443   3.245  0.1100 -1.5649 -0.5637
62684SOL     OW94656   5.562   0.675   6.725 -0.0569 -0.0237 -0.1922
62684SOL    HW194657   5.515   0.677   6.642 -1.6768 -1.2933  0.6250
62684SOL    HW294658   5.505   0.724   6.785  0.0588 -0.8538  0.6176
62685SOL     OW94659   2.533   3.816  11.587 -0.7286 -0.9806  0.4274
62685SOL    HW194660   2.508   3.736  11.633 -0.8403 -1.0407  0.2620
62685SOL    HW294661   2.455   3.841  11.538 -0.0313 -1.9702 -1.2451
62686SOL     OW94662   9.116   0.804   4.987 -0.2723 -0.3182  0.2974
62686SOL    HW194663   9.128   0.710   4.970  2.2314  0.0948 -0.6471
62686SOL    HW294664   9.024   0.821   4.968  0.0103 -1.9103 -3.1100
62687SOL     OW94665  12.568   1.829  12.218  0.2386 -0.0305 -0.0643
62687SOL    HW194666  12.501   1.816  12.285 -0.1771 -1.8195 -0.7723
62687SOL    HW294667  12.632   1.761  12.236  0.6831  0.1856 -0.8228
62688SOL     OW94668   4.891   8.549   5.568 -0.1191 -0.1226  0.5473
62688SOL    HW194669   4.938   8.621   5.525 -0.4306 -0.1034  0.2332
62688SOL    HW294670   4.924   8.550   5.658 -0.0341  0.3430  0.5175
62689SOL     OW94671   7.965   8.198   7.268  0.8845  0.2142 -0.2412
62689SOL    HW194672   7.903   8.153   7.325  1.9157  0.7889  1.4079
62689SOL    HW294673   7.910   8.253   7.212 -0.3561 -2.4903 -1.8595
62690SOL     OW94674   2.704  12.601   8.663  0.5842 -0.0015  0.0007
62690SOL    HW194675   2.729  12.678   8.713 -2.2168  0.7814  0.4033
62690SOL    HW294676   2.621  12.625   8.621 -0.3058 -2.7069 -0.0092
62691SOL     OW94677   4.755   2.031   8.494  0.1751 -0.1177 -0.1530
62691SOL    HW194678   4.777   2.061   8.582 -0.1275  0.3393 -0.2255
62691SOL    HW294679   4.677   1.978   8.506  0.9106 -1.1825  0.0199
62692SOL     OW94680   6.000  12.566   5.137 -0.0025  0.4575 -0.1012
62692SOL    HW194681   5.980  12.507   5.065  0.8401 -1.7801  1.3806
62692SOL    HW294682   6.091  12.593   5.122  0.4741 -0.7173  0.5237
62693SOL     OW94683  10.384   9.250  10.262  0.4740 -0.1693 -0.5597
62693SOL    HW194684  10.320   9.180  10.274 -0.3805  0.6670 -0.0980
62693SOL    HW294685  10.385   9.296  10.346 -0.1009  1.2900 -1.3260
62694SOL     OW94686   8.113   9.925   9.977  0.3994 -0.0549 -0.1789
62694SOL    HW194687   8.169   9.982  10.030  1.7980 -1.8482  0.4176
62694SOL    HW294688   8.133   9.837  10.009  0.2266 -1.1078 -2.7095
62695SOL     OW94689   6.852  11.559   6.793 -0.0866 -0.4296  0.2214
62695SOL    HW194690   6.935  11.522   6.764  0.7291  0.8658  0.8589
62695SOL    HW294691   6.863  11.572   6.887 -1.4584 -1.3553  0.5481
62696SOL     OW94692  11.475  10.009   6.204 -0.2660 -0.0635  0.0022
62696SOL    HW194693  11.459  10.103   6.200 -2.0805 -0.3756 -1.0760
62696SOL    HW294694  11.508   9.994   6.292 -0.4247  1.5100  0.3555
62697SOL     OW94695   2.982   7.457  12.068 -0.3006  0.0341  0.3819
62697SOL    HW194696   2.914   7.416  12.014  0.4147  0.6530 -1.0239
62697SOL    HW294697   2.936   7.487  12.147 -1.4591 -0.4324 -0.1051
62698SOL     OW94698   0.132   1.491  12.108 -0.2379  0.1180 -0.0826
62698SOL    HW194699   0.150   1.453  12.022  1.6742  0.8779 -0.0496
62698SOL    HW294700   0.214   1.482  12.156 -1.3203 -0.4100  1.7247
62699SOL     OW94701   3.039   3.953   1.028  0.6885 -0.3799  0.3153
62699SOL    HW194702   3.069   3.868   1.060  0.3490  0.2392  2.4646
62699SOL    HW294703   3.119   4.002   1.011  0.8861 -0.8341 -0.0706
62700SOL     OW94704   5.301   6.979   0.023  0.9487  0.1957 -0.2605
62700SOL    HW194705   5.206   6.971   0.035  0.9557 -0.3892 -0.5617
62700SOL    HW294706   5.331   7.025   0.101  0.1994  1.9411 -0.9328
62701SOL     OW94707   4.646  12.405   5.670 -0.2278  0.7541 -0.0322
62701SOL    HW194708   4.716  12.364   5.618  1.1933  2.5229  0.3852
62701SOL    HW294709   4.565  12.366   5.636  0.8839 -0.6848 -1.1660
62702SOL     OW94710   4.684   1.742   4.714 -0.2039 -0.1110 -0.4650
62702SOL    HW194711   4.711   1.675   4.652 -0.9239 -0.4065 -0.4628
62702SOL    HW294712   4.763   1.760   4.765  0.4234  0.2133 -1.5179
62703SOL     OW94713   1.013   3.876   0.389 -0.4967 -0.4391  0.0012
62703SOL    HW194714   1.089   3.848   0.338  0.0496 -0.8938  1.0320
62703SOL    HW294715   0.939   3.865   0.329  0.1986 -0.3453 -0.9002
62704SOL     OW94716   5.092   9.559   9.219 -0.2366 -0.3025 -0.0280
62704SOL    HW194717   5.168   9.513   9.184 -0.0125  1.7306 -2.4818
62704SOL    HW294718   5.019   9.497   9.210  0.2917 -0.6888 -1.9939
62705SOL     OW94719   8.222   1.612   9.876 -0.0516 -0.2377 -0.9719
62705SOL    HW194720   8.129   1.626   9.860 -0.1045  1.8475  0.6529
62705SOL    HW294721   8.226   1.541   9.940 -0.3202 -1.9730 -2.7755
62706SOL     OW94722   7.460   2.463  12.227  0.2687  0.1828  0.1951
62706SOL    HW194723   7.395   2.394  12.213 -0.9678  1.3287  0.1340
62706SOL    HW294724   7.526   2.447  12.159  0.0873 -1.0195  0.2789
62707SOL     OW94725   9.209   8.012   7.496  0.3488  0.5113 -0.2603
62707SOL    HW194726   9.280   8.061   7.455  0.6241  0.0892 -0.2985
62707SOL    HW294727   9.161   8.077   7.548  0.2103  0.9807 -0.9586
62708SOL     OW94728  10.773   9.779  12.365 -0.1333  0.2586 -0.0597
62708SOL    HW194729  10.722   9.860  12.367 -1.0380 -0.3048  1.3943
62708SOL    HW294730  10.846   9.795  12.425  0.3856  0.4060 -0.7136
62709SOL     OW94731  10.332  10.366   1.959  0.3484 -0.2330  0.0880
62709SOL    HW194732  10.417  10.366   1.914  0.2242  2.2678 -0.2650
62709SOL    HW294733  10.353  10.380   2.051  0.3240  0.4341 -0.0061
62710SOL     OW94734   0.069   9.870   8.594 -0.2755  0.5069 -0.3640
62710SOL    HW194735  -0.008   9.901   8.642  0.2536  0.6047  0.4526
62710SOL    HW294736   0.092   9.943   8.537 -1.3816  0.0937 -1.3723
62711SOL     OW94737   5.117   2.515   7.443 -0.1601  0.3449  0.5023
62711SOL    HW194738   5.101   2.461   7.365 -0.3656  1.8315 -0.5175
62711SOL    HW294739   5.210   2.535   7.439 -0.3927  1.3621  0.0003
62712SOL     OW94740   6.421   3.421   5.662 -0.0482 -0.0612 -0.6560
62712SOL    HW194741   6.346   3.469   5.627 -1.1724 -0.4637  1.0784
62712SOL    HW294742   6.470   3.487   5.711  0.5520  0.1269 -1.4986
62713SOL     OW94743   2.466  12.470   9.084 -0.3944 -0.3126 -0.3602
62713SOL    HW194744   2.378  12.450   9.051 -0.0105 -1.5541 -0.7112
62713SOL    HW294745   2.524  12.423   9.024  0.5784  1.2833 -0.7225
62714SOL     OW94746   6.837   4.251   1.575  1.1815  0.2261  0.1462
62714SOL    HW194747   6.870   4.320   1.518  1.5644 -0.4615 -0.4689
62714SOL    HW294748   6.851   4.284   1.664  2.1486  0.5772 -0.1287
62715SOL     OW94749   5.632   3.241   0.577 -0.3546 -0.0283 -0.1213
62715SOL    HW194750   5.691   3.305   0.538 -0.2369 -0.4236 -0.5892
62715SOL    HW294751   5.570   3.219   0.508  0.1406 -1.0873 -0.2537
62716SOL     OW94752   0.467   7.479   8.909 -0.3340  0.2367  0.3241
62716SOL    HW194753   0.553   7.491   8.869 -0.2721  0.5738  0.5571
62716SOL    HW294754   0.440   7.391   8.881  0.1471  0.0701  0.3735
62717SOL     OW94755   4.567   4.827   9.784  0.1374  0.0246 -0.3079
62717SOL    HW194756   4.583   4.921   9.777  1.2856 -0.1860 -0.8362
62717SOL    HW294757   4.653   4.787   9.768  0.0677 -1.0597  1.7441
62718SOL     OW94758  12.110   6.341   0.446  0.4136 -0.5475  0.0919
62718SOL    HW194759  12.067   6.405   0.502  0.9991  0.3040 -0.4038
62718SOL    HW294760  12.188   6.315   0.495  0.5709 -0.3088 -0.0291
62719SOL     OW94761   2.156  10.459   2.867 -0.2857  0.0902  0.2615
62719SOL    HW194762   2.127  10.521   2.801 -1.7797 -1.9025 -1.0647
62719SOL    HW294763   2.225  10.408   2.824 -0.6376 -0.6451  0.5508
62720SOL     OW94764   8.617   8.358   6.507  0.1291  0.2379 -0.3967
62720SOL    HW194765   8.589   8.273   6.541 -2.3522  1.2132  0.2302
62720SOL    HW294766   8.645   8.341   6.418  1.1145 -1.4521  0.1982
62721SOL     OW94767   7.825   9.007   2.106 -0.1256  0.4210  0.2333
62721SOL    HW194768   7.802   8.998   2.014  0.1369 -1.1060  0.2897
62721SOL    HW294769   7.920   8.995   2.108 -0.0184  1.2822  0.6133
62722SOL     OW94770   2.925   9.626   7.278  0.6426  0.8381 -0.2202
62722SOL    HW194771   2.895   9.671   7.357 -1.0034  0.3419 -0.5255
62722SOL    HW294772   2.938   9.535   7.305  1.6219  0.9929 -0.1590
62723SOL     OW94773   4.969   7.437   4.015  0.1357  0.3289  0.5687
62723SOL    HW194774   5.014   7.511   4.055  0.4648  1.4344 -1.6883
62723SOL    HW294775   4.884   7.435   4.059  0.9836  0.5415  2.2997
62724SOL     OW94776  11.432   1.458   2.699 -0.5416 -0.4996 -0.0817
62724SOL    HW194777  11.512   1.422   2.662 -0.5516  0.0477 -0.6531
62724SOL    HW294778  11.432   1.428   2.790  1.1971  0.9007  0.4428
62725SOL     OW94779   2.752   4.817   5.820 -0.1611  0.5974  0.0035
62725SOL    HW194780   2.661   4.830   5.845 -0.0187  1.0681  0.2914
62725SOL    HW294781   2.790   4.766   5.892 -0.4695 -0.6044 -0.6506
62726SOL     OW94782  12.622   5.595  11.088 -0.3627 -0.4181  0.2029
62726SOL    HW194783  12.673   5.619  11.166  1.4863  0.9951 -1.3225
62726SOL    HW294784  12.576   5.676  11.064 -2.2742 -1.2975  0.7221
62727SOL     OW94785   5.136  10.404  12.065  0.0372  0.6085 -0.1057
62727SOL    HW194786   5.179  10.489  12.051 -0.2217  0.9659  1.1459
62727SOL    HW294787   5.054  10.426  12.110 -0.1471 -0.2980  0.0151
62728SOL     OW94788   8.123   7.935  10.378  0.0110  0.2082 -0.0651
62728SOL    HW194789   8.163   8.021  10.370  1.4830 -0.2699  1.5161
62728SOL    HW294790   8.184   7.875  10.336 -0.5659 -0.1813 -0.3676
62729SOL     OW94791   0.335   9.717   3.368 -0.0831  0.2793 -0.1389
62729SOL    HW194792   0.323   9.811   3.376 -0.2465  0.2720 -0.2903
62729SOL    HW294793   0.356   9.703   3.275  1.2413  0.3057  0.1346
62730SOL     OW94794   2.626   1.398   9.939  0.0773  0.0720 -0.6797
62730SOL    HW194795   2.535   1.428   9.950  0.5708  1.6221 -0.6116
62730SOL    HW294796   2.646   1.352  10.020 -0.2662  0.7375 -0.2156
62731SOL     OW94797   5.013  11.876   5.119 -0.4015  0.0138  0.5546
62731SOL    HW194798   4.963  11.794   5.125  0.3428 -0.3920  1.5642
62731SOL    HW294799   5.056  11.871   5.034 -1.2216 -0.1377  0.1440
62732SOL     OW94800   3.033  11.883   7.586  0.3609 -0.4212 -0.4569
62732SOL    HW194801   2.983  11.884   7.504 -0.7443  0.0899  0.2077
62732SOL    HW294802   3.048  11.975   7.607  0.0707 -0.5203  0.2357
62733SOL     OW94803   5.966   6.292   8.274 -0.1831  0.2024  0.1522
62733SOL    HW194804   5.994   6.331   8.357  0.7525  0.2218 -0.1554
62733SOL    HW294805   6.031   6.322   8.210 -0.5688 -0.2683 -0.4774
62734SOL     OW94806   4.187  10.623   4.771  0.2614  0.0892  0.1676
62734SOL    HW194807   4.242  10.569   4.715  0.0316 -1.2703  1.2023
62734SOL    HW294808   4.249  10.681   4.817  0.4823  0.9085 -1.1213
62735SOL     OW94809   7.764   7.161  11.506 -0.1058 -0.5019  0.4630
62735SOL    HW194810   7.752   7.216  11.428  2.1875  0.2888  0.5817
62735SOL    HW294811   7.676   7.130  11.527 -1.3432  2.1026 -0.3735
62736SOL     OW94812   1.206   4.857   1.102 -0.3297 -0.1076  0.4723
62736SOL    HW194813   1.290   4.823   1.072 -1.0073 -0.9179 -0.5861
62736SOL    HW294814   1.197   4.942   1.057 -1.1024 -1.0812 -1.3290
62737SOL     OW94815   1.359   1.074   3.074  0.1944 -0.4557  0.0249
62737SOL    HW194816   1.366   1.064   2.979 -0.4232 -0.7242  0.0025
62737SOL    HW294817   1.410   1.153   3.093  2.3470 -1.7176 -0.2034
62738SOL     OW94818  11.709   2.726   0.222 -0.2716 -0.4409  0.0892
62738SOL    HW194819  11.740   2.810   0.256 -0.2559 -1.0856  1.7703
62738SOL    HW294820  11.788   2.682   0.191  0.2032 -0.9779  1.8952
62739SOL     OW94821  10.033   0.745  11.625 -0.3766 -0.4998  0.7723
62739SOL    HW194822  10.016   0.679  11.692  0.6273  0.9149  2.5032
62739SOL    HW294823  10.120   0.779  11.647 -1.2292  2.0272  0.5213
62740SOL     OW94824   1.680   8.497  11.655 -0.5221 -0.1321  0.0907
62740SOL    HW194825   1.731   8.575  11.631  0.0953  0.0091  1.6920
62740SOL    HW294826   1.665   8.451  11.572  0.0380  1.1335 -0.7450
62741SOL     OW94827   9.686   5.652   8.322 -0.2751  0.5006  0.4909
62741SOL    HW194828   9.719   5.596   8.392 -0.1104 -0.1992 -0.1285
62741SOL    HW294829   9.740   5.731   8.325  1.6064 -0.6675 -0.5907
62742SOL     OW94830  11.792   4.828  12.736 -0.0469 -0.5485 -0.8071
62742SOL    HW194831  11.776   4.740  12.701  0.1681 -0.9892  0.1741
62742SOL    HW294832  11.704   4.863  12.752 -0.1463 -0.3909 -1.6297
62743SOL     OW94833   2.896  12.040   9.949 -0.4090  0.4532  0.2662
62743SOL    HW194834   2.878  12.133   9.968 -0.7012  0.4988 -0.2229
62743SOL    HW294835   2.985  12.040   9.915 -0.2283  0.4923  0.7384
62744SOL     OW94836   7.343   1.948   9.118  0.0036 -0.1235 -0.3747
62744SOL    HW194837   7.313   2.027   9.074  0.6597 -0.4124 -1.3989
62744SOL    HW294838   7.439   1.953   9.113  0.0655 -1.5901 -1.6778
62745SOL     OW94839   6.327   4.325   1.633 -0.8762 -0.2282 -0.0135
62745SOL    HW194840   6.295   4.250   1.583  0.7615 -1.2477  0.3793
62745SOL    HW294841   6.383   4.373   1.572 -2.9897  1.5040 -0.6813
62746SOL     OW94842   0.592  10.612  12.216  0.4627  0.3440  0.2227
62746SOL    HW194843   0.684  10.635  12.228  0.4252 -0.1682  1.7467
62746SOL    HW294844   0.580  10.531  12.267 -0.6196 -0.1118 -0.6944
62747SOL     OW94845  12.695   4.519   8.341 -0.5729  0.4313 -0.2953
62747SOL    HW194846  12.637   4.501   8.267 -0.5308 -0.6219 -0.0878
62747SOL    HW294847  12.731   4.434   8.364 -0.4709  0.7655  0.8431
62748SOL     OW94848   8.083   1.419   0.296  0.6074 -0.3778 -0.2214
62748SOL    HW194849   8.105   1.330   0.270 -1.0014 -1.4843  1.8344
62748SOL    HW294850   7.989   1.415   0.317  0.8183  1.3778  1.3661
62749SOL     OW94851  12.311   8.856   1.023  0.0967 -0.3484 -0.0673
62749SOL    HW194852  12.360   8.932   0.993  0.3363  0.5417  2.3114
62749SOL    HW294853  12.238   8.893   1.074 -0.3204 -1.6943  0.3557
62750SOL     OW94854   2.311   8.180   0.830  0.5079  0.2367  0.3937
62750SOL    HW194855   2.372   8.119   0.787  2.2326  1.3730  1.1188
62750SOL    HW294856   2.252   8.123   0.880  1.8340 -0.8660  0.7582
62751SOL     OW94857   5.277   6.473   7.396 -0.7456 -0.0534 -0.4677
62751SOL    HW194858   5.287   6.560   7.434 -0.8824  0.2093 -1.0162
62751SOL    HW294859   5.185   6.467   7.371 -0.7309 -0.3432 -0.4640
62752SOL     OW94860   6.660  10.079  11.955 -0.3389 -0.0276  0.0938
62752SOL    HW194861   6.616  10.152  11.998  1.4041  1.5394 -0.6661
62752SOL    HW294862   6.627  10.081  11.865  0.3324  0.3672 -0.1484
62753SOL     OW94863   6.900   4.903  12.494 -0.9109 -0.0208 -0.4781
62753SOL    HW194864   6.912   4.852  12.574 -0.1143 -1.1697 -1.3057
62753SOL    HW294865   6.965   4.973  12.500 -1.5466  0.5183  0.3385
62754SOL     OW94866   1.628   0.765  11.255  0.2241  0.1663 -0.1727
62754SOL    HW194867   1.567   0.760  11.329 -0.0545  1.6219 -0.2660
62754SOL    HW294868   1.580   0.726  11.182 -0.9172  1.8885 -0.4116
62755SOL     OW94869  10.546   1.026   1.472 -0.1401  0.2840  0.7617
62755SOL    HW194870  10.580   1.056   1.387 -1.3322 -2.5853 -0.8701
62755SOL    HW294871  10.619   0.980   1.512 -0.2054 -0.2516  0.2691
62756SOL     OW94872   1.360   0.172   9.545  0.0981 -0.2947  0.2702
62756SOL    HW194873   1.354   0.267   9.555 -1.7334 -0.4469  1.1359
62756SOL    HW294874   1.389   0.141   9.631 -1.9392 -0.6406  0.9110
62757SOL     OW94875  11.166   9.600   4.124  0.3348 -0.6494  0.3717
62757SOL    HW194876  11.226   9.600   4.050  1.8673 -0.1304  1.5725
62757SOL    HW294877  11.189   9.678   4.175 -0.7552 -0.9246  1.3469
62758SOL     OW94878   6.987   2.306  12.621 -0.1104 -0.1875 -0.7014
62758SOL    HW194879   6.900   2.339  12.600 -0.1359 -0.1284 -0.5074
62758SOL    HW294880   6.997   2.227  12.567 -0.6312 -0.6925 -0.0777
62759SOL     OW94881   5.571  10.390  12.069  0.2403  0.1303  0.4786
62759SOL    HW194882   5.584  10.435  12.153 -1.1267 -0.7910  1.2104
62759SOL    HW294883   5.516  10.449  12.018  0.7579  0.5216  0.3651
62760SOL     OW94884  12.389   5.165   9.349 -0.5098  0.4976  0.1159
62760SOL    HW194885  12.464   5.168   9.289  0.7093 -1.5550  1.4107
62760SOL    HW294886  12.425   5.193   9.433 -1.3227 -0.0866  0.6650
62761SOL     OW94887   1.576   0.373  11.115 -0.2269  0.0526  0.5567
62761SOL    HW194888   1.582   0.280  11.095  0.8440  0.0842  0.6871
62761SOL    HW294889   1.483   0.394  11.104 -0.1626 -0.5639 -1.5646
62762SOL     OW94890  12.678   5.394   4.934 -0.7096  0.3189 -0.3149
62762SOL    HW194891  12.724   5.421   5.014 -2.3276  1.5659  0.2482
62762SOL    HW294892  12.629   5.316   4.960 -1.6093  0.9974  0.0710
62763SOL     OW94893  11.889  11.968   2.481 -0.3003  0.0864 -0.3642
62763SOL    HW194894  11.891  12.026   2.405  0.7747  1.6666  0.8200
62763SOL    HW294895  11.796  11.945   2.491 -0.8804  2.1946 -0.4681
62764SOL     OW94896   0.760   9.754   2.223  0.0375  0.1974 -0.2046
62764SOL    HW194897   0.758   9.741   2.318  1.9719 -2.2524 -0.3982
62764SOL    HW294898   0.719   9.676   2.187  0.0671  0.7196 -1.4307
62765SOL     OW94899  10.625  12.052  11.366  0.0173  0.1718  0.4842
62765SOL    HW194900  10.625  12.033  11.460 -1.3364 -0.6448  0.3401
62765SOL    HW294901  10.591  12.141  11.360 -0.7286 -0.0837  0.7344
62766SOL     OW94902   4.452   8.647   8.954  0.3157 -0.2430  0.4045
62766SOL    HW194903   4.504   8.568   8.964  1.6055  0.7949  2.8623
62766SOL    HW294904   4.364   8.622   8.984 -0.2228 -1.5235 -2.0147
62767SOL     OW94905   7.140   3.582   5.476 -0.3888 -0.2978 -0.6433
62767SOL    HW194906   7.164   3.582   5.569  1.7484  3.1728 -1.0132
62767SOL    HW294907   7.211   3.535   5.433 -1.1259 -1.4742 -0.6020
62768SOL     OW94908   5.243   0.651   7.727  0.2042  0.5769 -0.3069
62768SOL    HW194909   5.326   0.659   7.679  1.8782  0.1533  2.3173
62768SOL    HW294910   5.181   0.618   7.662  2.3009  0.0367 -2.1674
62769SOL     OW94911   7.993   4.434   4.761 -0.0471 -0.0506  0.8792
62769SOL    HW194912   7.946   4.500   4.811 -3.0503 -1.0855 -0.3463
62769SOL    HW294913   7.928   4.364   4.746  1.3245 -0.8015 -2.4525
62770SOL     OW94914  12.427  12.663   7.968 -0.2050  0.5065  0.1689
62770SOL    HW194915  12.365  12.735   7.977 -2.1083 -1.1542  1.1248
62770SOL    HW294916  12.506  12.694   8.013 -0.6093  2.3400 -0.3056
62771SOL     OW94917   7.885   4.898   0.595  0.0624  0.8124  0.1092
62771SOL    HW194918   7.936   4.860   0.523  0.8355  1.8496  0.0930
62771SOL    HW294919   7.795   4.868   0.578  0.8517 -2.6408  1.1888
62772SOL     OW94920   3.695   8.882   9.532 -0.4016 -0.4222 -0.1326
62772SOL    HW194921   3.779   8.926   9.523 -0.4729  0.1714  1.6090
62772SOL    HW294922   3.650   8.899   9.449  1.2446 -0.9195 -1.1659
62773SOL     OW94923   9.650  10.632   0.014 -0.2284 -0.4173 -0.5374
62773SOL    HW194924   9.736  10.673   0.021 -1.2301  1.7824 -0.3695
62773SOL    HW294925   9.623  10.619   0.105 -0.1260 -1.0122 -0.5902
62774SOL     OW94926   1.931   6.253   9.520 -0.3074 -0.3906 -0.1215
62774SOL    HW194927   1.938   6.323   9.455  4.3445  0.6756  1.1654
62774SOL    HW294928   1.952   6.173   9.472  0.8645  0.0655 -0.3816
62775SOL     OW94929   7.989  12.169   4.996 -0.2088  0.2358  0.2590
62775SOL    HW194930   8.050  12.242   5.009  0.8040 -0.4775 -0.3799
62775SOL    HW294931   8.043  12.091   5.003 -0.9922 -0.4108 -0.6945
62776SOL     OW94932  12.564   6.923   8.655 -0.3721  0.3102  0.0097
62776SOL    HW194933  12.478   6.886   8.677 -0.5272  0.6873  0.0451
62776SOL    HW294934  12.575   6.903   8.562 -0.0308 -0.6545  0.2458
62777SOL     OW94935   3.384   4.785   6.286  0.7411 -0.0911 -0.3994
62777SOL    HW194936   3.424   4.851   6.230  0.8912  0.3431  0.2158
62777SOL    HW294937   3.292   4.785   6.261  0.5745  0.9383  0.1635
62778SOL     OW94938   9.830   9.051   9.501 -0.7327  0.4658 -0.2312
62778SOL    HW194939   9.852   9.027   9.411 -0.7693  0.1745 -0.1659
62778SOL    HW294940   9.742   9.016   9.514 -0.6691  0.3779 -0.0367
62779SOL     OW94941   3.069   3.838   7.317 -0.4511  0.7841  0.3259
62779SOL    HW194942   3.068   3.819   7.223 -0.1366  0.5034  0.3781
62779SOL    HW294943   3.118   3.920   7.323  1.8596 -0.5353  0.4681
62780SOL     OW94944   0.721  12.705   1.055  0.6934 -0.0477 -0.2771
62780SOL    HW194945   0.670  12.655   0.991 -0.5848 -0.1059  0.7392
62780SOL    HW294946   0.805  12.721   1.012  0.3449 -1.2106 -1.4513
62781SOL     OW94947   7.969   4.581   3.318  0.1175 -0.1312  0.5120
62781SOL    HW194948   7.941   4.494   3.348 -0.5866 -1.3600 -3.1729
62781SOL    HW294949   8.065   4.579   3.327 -0.0351 -0.4736  2.3253
62782SOL     OW94950  10.113   0.306  10.898 -0.2269  0.2425  0.0072
62782SOL    HW194951  10.067   0.285  10.979  0.7725 -3.0846 -0.1318
62782SOL    HW294952  10.111   0.224  10.848  0.0742  1.8952 -2.9124
62783SOL     OW94953   9.251   6.625  10.849  0.3341  0.3190 -0.2963
62783SOL    HW194954   9.260   6.688  10.777  0.1542  0.0038 -0.5966
62783SOL    HW294955   9.309   6.659  10.917 -0.3090  1.2035 -0.1781
62784SOL     OW94956   7.822  10.239   2.294  0.2455  0.0250  1.2657
62784SOL    HW194957   7.873  10.255   2.215  0.9785 -2.4864  1.1522
62784SOL    HW294958   7.836  10.317   2.348  0.6491  1.2896 -0.5743
62785SOL     OW94959  12.171   9.059  12.008  0.2622  0.0912  0.0262
62785SOL    HW194960  12.147   8.973  12.045 -1.3508 -0.1431 -1.4465
62785SOL    HW294961  12.220   9.038  11.929 -1.5127  0.4408 -1.2240
62786SOL     OW94962   6.129   1.888   8.074 -0.1246  0.2317  0.0069
62786SOL    HW194963   6.131   1.956   8.141 -2.6377  0.3562  0.0385
62786SOL    HW294964   6.078   1.817   8.113  0.8969 -0.9406 -0.7111
62787SOL     OW94965   6.046  10.918   2.772  0.0767 -0.5844 -0.6398
62787SOL    HW194966   5.992  10.919   2.851  0.3811 -1.1009 -0.4260
62787SOL    HW294967   6.087  11.005   2.771  0.8931 -0.9406  0.3400
62788SOL     OW94968   0.785   7.059   7.372 -0.3076 -0.1147 -0.0692
62788SOL    HW194969   0.845   7.055   7.297  0.2065  2.4739  0.1125
62788SOL    HW294970   0.732   7.137   7.356 -1.1057 -0.2803  1.6042
62789SOL     OW94971  10.091  10.776   7.531 -0.3800 -0.5220 -0.4551
62789SOL    HW194972  10.014  10.738   7.490 -0.0887 -0.4284 -1.1091
62789SOL    HW294973  10.161  10.766   7.466 -0.2755  1.0498 -0.6436
62790SOL     OW94974  10.007   5.036  11.558 -0.1747 -0.8613 -0.2093
62790SOL    HW194975  10.027   4.958  11.507  0.8240 -0.5257 -0.3555
62790SOL    HW294976  10.018   5.109  11.497 -1.4790 -0.6085 -0.1824
62791SOL     OW94977   5.389   5.959   4.671 -0.0230 -0.1980  0.2520
62791SOL    HW194978   5.361   5.879   4.716 -1.7787  0.5481  0.5463
62791SOL    HW294979   5.350   6.030   4.721  0.1427  0.7875 -0.9640
62792SOL     OW94980  10.933   0.521   3.065 -0.1821 -0.1104 -0.4355
62792SOL    HW194981  10.895   0.434   3.078  1.7753 -0.9560 -0.0049
62792SOL    HW294982  11.023   0.503   3.037  0.0299  1.7904 -1.0587
62793SOL     OW94983   0.729   1.281   4.841  0.0008 -0.3743 -0.2019
62793SOL    HW194984   0.783   1.341   4.892  1.0575 -0.4131 -1.2208
62793SOL    HW294985   0.711   1.208   4.900  1.2953 -0.4815  0.0992
62794SOL     OW94986  12.400   0.842   5.260 -0.7227  0.1575  0.0235
62794SOL    HW194987  12.310   0.824   5.286 -0.3391 -1.8574  0.1828
62794SOL    HW294988  12.445   0.861   5.342 -1.1202  1.9172 -0.1363
62795SOL     OW94989   5.551   2.181   3.944  0.4750 -0.0366  0.1935
62795SOL    HW194990   5.512   2.134   3.870  1.0090 -0.5898  0.2496
62795SOL    HW294991   5.517   2.136   4.021  0.0182  0.4592  0.2815
62796SOL     OW94992   7.683   7.493   4.637 -0.1547 -0.4838 -0.1464
62796SOL    HW194993   7.681   7.524   4.547 -2.6937 -0.9479 -0.3223
62796SOL    HW294994   7.689   7.573   4.690  1.1202 -0.1974 -0.6811
62797SOL     OW94995   2.377   0.432  12.453  0.0697 -0.6747 -0.4287
62797SOL    HW194996   2.309   0.494  12.479 -0.2220 -1.6176  1.1922
62797SOL    HW294997   2.448   0.487  12.420  1.2344  0.9033  4.0380
62798SOL     OW94998   1.966   9.808  11.140  0.4296  0.6521 -1.1013
62798SOL    HW194999   1.940   9.840  11.226 -1.3722 -0.6062 -1.1100
62798SOL    HW295000   1.978   9.714  11.152  0.3422  0.4893 -2.1817
62799SOL     OW95001   1.566   6.154  11.673  0.0658 -0.3477 -0.2990
62799SOL    HW195002   1.639   6.202  11.634  0.8788 -0.8261  0.5755
62799SOL    HW295003   1.548   6.083  11.612  0.2982 -0.1955 -0.5477
62800SOL     OW95004   6.159   3.845  10.675  0.3770 -0.2085 -0.2148
62800SOL    HW195005   6.091   3.910  10.659  0.4930  0.0055  0.1444
62800SOL    HW295006   6.149   3.823  10.768  2.1072  1.3430  0.4077
62801SOL     OW95007   3.041   4.056   7.982  0.3671 -0.3184  0.0620
62801SOL    HW195008   2.998   4.127   7.934  0.9513  1.0491  1.4932
62801SOL    HW295009   3.130   4.087   7.997  0.1711 -0.6322  2.1317
62802SOL     OW95010   3.247   4.367   3.022 -0.5892  0.0848  0.2335
62802SOL    HW195011   3.311   4.438   3.024  0.2307 -0.5618 -1.1550
62802SOL    HW295012   3.164   4.411   3.002 -0.4265  0.8303  1.1172
62803SOL     OW95013   4.306   1.815   2.124 -0.2900 -0.6087 -0.0550
62803SOL    HW195014   4.215   1.799   2.151 -0.4785  0.1552 -0.2029
62803SOL    HW295015   4.357   1.751   2.173 -0.8451 -0.6285  0.5165
62804SOL     OW95016   6.231   6.978  12.103 -0.3388  0.3168 -0.4764
62804SOL    HW195017   6.244   6.925  12.182 -1.6435 -1.4622 -1.4017
62804SOL    HW295018   6.320   6.997  12.073  0.2163  1.5849  1.7067
62805SOL     OW95019   0.145   1.644   2.751  0.0020  0.1092  0.1440
62805SOL    HW195020   0.164   1.692   2.832  1.1533  2.6829 -1.4896
62805SOL    HW295021   0.055   1.668   2.729 -0.4510 -0.9168  0.8427
62806SOL     OW95022   0.017  10.630   9.834  0.1265 -0.2348  0.5517
62806SOL    HW195023  -0.065  10.592   9.802 -0.4575  0.8398  0.6918
62806SOL    HW295024   0.078  10.557   9.839  0.2571 -0.5402 -2.9151
62807SOL     OW95025   6.759  10.380  12.536  0.2958  0.6264  0.1652
62807SOL    HW195026   6.737  10.376  12.629  2.8149  1.3254  0.8708
62807SOL    HW295027   6.853  10.365  12.533  0.2104  0.1690 -2.3384
62808SOL     OW95028   7.361   2.972   0.397  0.8081  0.0354  0.4385
62808SOL    HW195029   7.393   3.037   0.334 -0.1963  0.4155  0.3093
62808SOL    HW295030   7.268   2.962   0.377  0.1490  1.0828  2.6241
62809SOL     OW95031   0.511   7.196   6.739  0.0715 -0.2387 -0.6553
62809SOL    HW195032   0.592   7.246   6.744 -0.2709  0.1776  1.5528
62809SOL    HW295033   0.443   7.256   6.767 -0.4165 -1.7051  1.5611
62810SOL     OW95034   4.097   5.052   5.788 -0.0787  0.1920 -0.2254
62810SOL    HW195035   4.114   4.958   5.778  0.2359  0.0792  1.0868
62810SOL    HW295036   4.174   5.095   5.752 -0.2068 -0.0536 -0.7988
62811SOL     OW95037  10.168   2.339   4.135  0.0385  0.2726 -0.3221
62811SOL    HW195038  10.118   2.299   4.207  0.4408  2.5423  1.3184
62811SOL    HW295039  10.123   2.422   4.118  1.5536  1.0172 -0.8024
62812SOL     OW95040   3.525   0.521   0.080  0.3451 -0.4455 -0.0722
62812SOL    HW195041   3.558   0.446   0.130  0.8113  0.7854  1.5575
62812SOL    HW295042   3.443   0.544   0.124 -0.1360 -0.3891 -0.9748
62813SOL     OW95043   7.027   1.648  12.489  0.1508 -1.0145 -0.5999
62813SOL    HW195044   7.050   1.599  12.410  1.2196 -1.0333 -0.2840
62813SOL    HW295045   7.091   1.621  12.554  1.4382  1.5640 -0.6966
62814SOL     OW95046   6.774   1.641   9.331 -0.0955 -0.1677  0.4334
62814SOL    HW195047   6.719   1.703   9.380  0.6218  0.6358  0.2591
62814SOL    HW295048   6.751   1.555   9.365 -0.8152  0.2374  0.9860
62815SOL     OW95049  10.944   7.606   9.590 -0.4499 -0.0545  0.1101
62815SOL    HW195050  10.974   7.600   9.681  1.1649 -0.5846 -0.4189
62815SOL    HW295051  11.025   7.607   9.539 -1.3493 -0.1954 -1.3539
62816SOL     OW95052   3.446  12.321   5.387  0.1381  0.0606  0.4636
62816SOL    HW195053   3.438  12.228   5.405 -0.0025  0.1789  1.0434
62816SOL    HW295054   3.361  12.358   5.412  0.8096  0.6193  2.0980
62817SOL     OW95055  11.914   7.426  11.739  0.1103  0.0137 -0.0836
62817SOL    HW195056  11.875   7.426  11.827  0.8296 -0.6409  0.2519
62817SOL    HW295057  11.907   7.517  11.710 -2.3048 -0.2078 -0.3537
62818SOL     OW95058   9.848   1.475   1.884 -0.2133 -0.6944  0.0698
62818SOL    HW195059   9.823   1.390   1.848  1.1116 -1.2552  0.4104
62818SOL    HW295060   9.821   1.539   1.818  0.9553 -1.5793 -1.3215
62819SOL     OW95061   7.036  12.084  11.638 -0.2434  0.8436 -0.5600
62819SOL    HW195062   6.949  12.121  11.656  0.2683  1.4427  0.7842
62819SOL    HW295063   7.026  11.990  11.653 -0.3682  1.0605  0.8165
62820SOL     OW95064   1.045   2.520   1.615 -0.3912 -0.1829 -0.2953
62820SOL    HW195065   1.107   2.593   1.606 -1.7990  1.2107  0.7014
62820SOL    HW295066   0.982   2.550   1.680 -1.0440 -2.3184  0.1376
62821SOL     OW95067   8.476   6.570   5.758  0.4623 -0.2245 -0.5190
62821SOL    HW195068   8.390   6.555   5.719 -0.0693  0.8461  0.1952
62821SOL    HW295069   8.511   6.482   5.774 -1.6878 -0.7498  1.7891
62822SOL     OW95070   1.738   3.592   7.219  0.8926  0.2776 -0.1073
62822SOL    HW195071   1.683   3.559   7.291  1.4382  1.1668  0.7464
62822SOL    HW295072   1.780   3.514   7.183  1.6005 -0.0816  1.3879
62823SOL     OW95073  11.863  11.212   5.070  0.5592  0.3867  0.1593
62823SOL    HW195074  11.890  11.124   5.042  0.3145 -0.1381  1.5162
62823SOL    HW295075  11.788  11.232   5.013  2.0062  0.7108 -1.7265
62824SOL     OW95076   6.501   1.036   9.133  0.8980 -0.4460  0.1844
62824SOL    HW195077   6.458   1.116   9.165  1.1464  0.6350 -2.0005
62824SOL    HW295078   6.448   1.009   9.059  2.0229 -1.1058 -0.4006
62825SOL     OW95079   9.000   5.889   6.379  0.3086 -0.3091 -0.5937
62825SOL    HW195080   9.044   5.874   6.462  1.8175 -0.0522 -1.3191
62825SOL    HW295081   9.003   5.984   6.366 -0.4223 -0.2892 -0.6849
62826SOL     OW95082   9.000   8.912   1.458  0.8862  0.0133  0.2186
62826SOL    HW195083   9.084   8.943   1.492  0.7770  0.4983  0.0516
62826SOL    HW295084   8.987   8.961   1.377  0.5545 -0.2312  0.1209
62827SOL     OW95085   3.333   5.601  10.938  0.2586  0.0541  0.0079
62827SOL    HW195086   3.362   5.520  10.896  0.7162 -0.3961  1.1529
62827SOL    HW295087   3.414   5.644  10.967 -0.0655  0.0044  1.0435
62828SOL     OW95088  11.143   0.023  11.907  0.7809  0.4409  0.0272
62828SOL    HW195089  11.121   0.032  11.814  1.2712 -0.0881 -0.1439
62828SOL    HW295090  11.233  -0.009  11.907  1.2736  1.7538  0.7100
62829SOL     OW95091   3.327   4.029   8.758 -0.1550  0.3212 -0.2290
62829SOL    HW195092   3.286   3.995   8.679 -0.4415  1.3302 -0.5382
62829SOL    HW295093   3.297   3.972   8.829  0.4817 -0.8821 -0.9067
62830SOL     OW95094  11.435   1.370   0.096  0.0088  0.2261 -0.2593
62830SOL    HW195095  11.415   1.438   0.032  0.9549  0.5819 -0.1809
62830SOL    HW295096  11.397   1.290   0.058 -1.7042  0.9003 -0.0263
62831SOL     OW95097   4.618  11.371   9.860  1.2907  0.2385  0.0635
62831SOL    HW195098   4.578  11.420   9.932 -1.2854 -0.1954 -0.9625
62831SOL    HW295099   4.585  11.282   9.870  1.0807  0.1203 -1.4861
62832SOL     OW95100   6.266  12.022   3.238 -0.0982  0.5534 -0.0976
62832SOL    HW195101   6.182  11.983   3.216 -0.7658 -0.1405  3.1758
62832SOL    HW295102   6.244  12.110   3.268  0.3649  0.4810  0.4715
62833SOL     OW95103   9.962   5.836   8.843 -0.3746 -0.0633 -0.5946
62833SOL    HW195104   9.919   5.800   8.765 -1.7312  1.8241 -0.7805
62833SOL    HW295105   9.929   5.782   8.915  0.5050 -1.5078 -1.2345
62834SOL     OW95106   3.132   4.322   3.748  0.0176 -0.3943 -0.0439
62834SOL    HW195107   3.099   4.404   3.785  2.0929 -0.6632  2.7622
62834SOL    HW295108   3.054   4.266   3.742 -1.1266  1.1486 -0.2653
62835SOL     OW95109   5.327   7.906   3.733 -0.1968  0.1524 -0.0125
62835SOL    HW195110   5.284   7.914   3.648  0.6755  1.6900 -0.3541
62835SOL    HW295111   5.417   7.880   3.712 -0.3947 -1.0609  0.5619
62836SOL     OW95112  11.749  11.007   9.014 -0.1609  0.1539 -0.0948
62836SOL    HW195113  11.733  11.060   9.092 -1.4596 -0.9058  0.3992
62836SOL    HW295114  11.675  10.947   9.010  1.3110 -1.7346 -0.5337
62837SOL     OW95115   2.173   9.860  12.087 -0.2242 -0.1075  0.0053
62837SOL    HW195116   2.176   9.766  12.068  0.4789 -0.0832 -0.0146
62837SOL    HW295117   2.206   9.901  12.008 -0.6862  0.1738 -0.0474
62838SOL     OW95118   2.471   0.882   0.414 -0.0803  0.0666  0.1560
62838SOL    HW195119   2.493   0.975   0.404  1.5258 -0.1395  1.5438
62838SOL    HW295120   2.452   0.853   0.324  1.7147  1.1728 -0.6305
62839SOL     OW95121   4.115   5.977   7.974  0.0164 -0.4716 -0.0074
62839SOL    HW195122   4.124   5.898   7.920  2.9003 -0.6602  0.6112
62839SOL    HW295123   4.202   6.016   7.975 -1.1132  2.2355  0.5234
62840SOL     OW95124   4.427   5.227   9.198 -0.5537  0.1182 -0.3275
62840SOL    HW195125   4.374   5.262   9.269 -1.9105 -0.9850 -0.7512
62840SOL    HW295126   4.498   5.290   9.187 -1.5478  1.4306  0.5413
62841SOL     OW95127   0.159   9.622  11.734  0.1014  0.3353  0.2662
62841SOL    HW195128   0.156   9.661  11.646  0.4488 -1.5754 -0.6348
62841SOL    HW295129   0.143   9.696  11.793 -1.3733  1.4711 -1.4467
62842SOL     OW95130   2.895   4.964   8.158 -0.0075  0.5206 -0.2059
62842SOL    HW195131   2.984   4.993   8.141 -0.2356  2.6171  1.7321
62842SOL    HW295132   2.903   4.905   8.233 -0.2686  1.0565  0.2524
62843SOL     OW95133  11.907   7.433  12.170 -0.1217 -0.0703  0.3405
62843SOL    HW195134  11.936   7.501  12.230 -2.1365  0.9464  0.2494
62843SOL    HW295135  11.913   7.352  12.221  2.5389  0.0592  0.3641
62844SOL     OW95136   2.894   8.417   1.152 -0.0019 -0.2918 -0.5277
62844SOL    HW195137   2.835   8.490   1.171  0.8974  0.7198 -1.4414
62844SOL    HW295138   2.957   8.417   1.224  0.6661  0.5826 -1.0906
62845SOL     OW95139   0.597   2.221  11.780  1.0933 -1.0378 -0.2935
62845SOL    HW195140   0.608   2.316  11.784  1.3450 -1.0798 -0.0096
62845SOL    HW295141   0.642   2.188  11.858  0.2598 -1.3199  0.0785
62846SOL     OW95142   5.864  10.755   5.834 -0.2774  0.6110 -0.2102
62846SOL    HW195143   5.795  10.800   5.785 -0.5035  0.2675 -0.2096
62846SOL    HW295144   5.945  10.777   5.788 -0.0438  3.0625  1.1992
62847SOL     OW95145  11.500  10.034   2.020 -0.3598 -0.7351 -0.9870
62847SOL    HW195146  11.497   9.947   2.060 -0.6877  0.4404  1.8359
62847SOL    HW295147  11.411  10.069   2.030  0.4668  1.0518  0.9193
62848SOL     OW95148   8.989  12.035  11.536  0.2143  0.3817 -0.3923
62848SOL    HW195149   8.962  12.077  11.453  0.0105 -1.5579 -1.3559
62848SOL    HW295150   9.067  11.985  11.514  1.4888  1.5713  1.1528
62849SOL     OW95151  10.634   1.478   0.418  0.7102  0.6746 -0.6565
62849SOL    HW195152  10.580   1.539   0.368 -2.0972 -0.1968  1.0866
62849SOL    HW295153  10.695   1.533   0.466 -3.2084  2.6368  2.6627
62850SOL     OW95154   5.616   1.449   6.126 -0.0164  0.0305 -0.5086
62850SOL    HW195155   5.549   1.510   6.095  1.2539  0.6349 -2.2271
62850SOL    HW295156   5.668   1.500   6.188 -1.6338 -0.7215  1.5798
62851SOL     OW95157   1.701   4.697  10.480  0.1111 -0.7473  0.8968
62851SOL    HW195158   1.610   4.682  10.507  0.4222 -0.0813  2.3857
62851SOL    HW295159   1.744   4.612  10.491 -0.2421 -0.9799  0.5121
62852SOL     OW95160   5.020   1.014   6.331 -0.1474  0.1769 -0.1318
62852SOL    HW195161   5.098   0.969   6.363  0.3598  1.4126  0.4495
62852SOL    HW295162   5.004   1.082   6.396 -0.9156  0.7933 -0.9458
62853SOL     OW95163   4.026   7.483  10.007 -0.3413 -0.3812  0.0067
62853SOL    HW195164   3.988   7.404   9.970 -2.5919  0.6467 -0.0849
62853SOL    HW295165   4.047   7.460  10.097  1.3439 -1.7282 -0.6751
62854SOL     OW95166   3.864   8.801  10.964 -0.3829  0.3711  0.2805
62854SOL    HW195167   3.772   8.828  10.964 -0.3127  0.6378  0.9514
62854SOL    HW295168   3.871   8.741  11.039 -0.4763 -1.3369 -1.0216
62855SOL     OW95169   8.124   2.435  10.111 -0.0963 -0.3334 -0.0463
62855SOL    HW195170   8.075   2.412  10.190  1.2708 -1.7754  0.4378
62855SOL    HW295171   8.132   2.352  10.064  0.8000  0.1276 -0.7317
62856SOL     OW95172   0.503   9.673   9.980  0.3876  0.1278 -0.3831
62856SOL    HW195173   0.441   9.672  10.053 -0.1207 -2.3598 -0.7439
62856SOL    HW295174   0.578   9.623  10.012  0.0801 -1.1690 -1.5560
62857SOL     OW95175   3.832   5.713   4.487 -0.1392  0.2886  0.1212
62857SOL    HW195176   3.845   5.791   4.541  0.3212  1.3181 -1.4214
62857SOL    HW295177   3.914   5.703   4.439 -0.0188 -1.4460  0.6305
62858SOL     OW95178   8.148   2.769   4.997  0.4613  0.3708 -0.1220
62858SOL    HW195179   8.053   2.775   4.985 -0.1051 -2.3117  2.0255
62858SOL    HW295180   8.176   2.701   4.937  0.7741  0.1405  0.2765
62859SOL     OW95181   5.224   3.956   3.864  0.2367 -0.0438 -0.2900
62859SOL    HW195182   5.132   3.970   3.889  0.4026  0.9628 -0.1764
62859SOL    HW295183   5.274   3.993   3.937  0.7264  0.9838 -1.1141
62860SOL     OW95184  10.405  10.589   5.821 -0.1660 -0.4767  0.2849
62860SOL    HW195185  10.310  10.595   5.818 -0.1266 -0.0277 -0.1602
62860SOL    HW295186  10.433  10.664   5.874 -0.0800 -0.8515  0.7803
62861SOL     OW95187   1.165   2.645   5.587 -0.2350 -0.6235 -0.6566
62861SOL    HW195188   1.248   2.693   5.583 -0.0447 -1.0039 -1.8412
62861SOL    HW295189   1.122   2.676   5.666 -0.1607  1.5361 -1.4091
62862SOL     OW95190   9.302  12.417   9.379 -0.2598 -0.1837  0.2140
62862SOL    HW195191   9.384  12.371   9.362  0.1101  0.9472 -1.3654
62862SOL    HW295192   9.258  12.366   9.447  1.4312 -1.1983  0.5879
62863SOL     OW95193   9.104   7.925   4.646 -0.0224 -0.1564  0.4878
62863SOL    HW195194   9.032   7.927   4.584 -0.3403 -1.7586  0.7658
62863SOL    HW295195   9.062   7.932   4.732  0.4041  1.8939  0.5760
62864SOL     OW95196   5.793   2.658   1.722  0.0339 -0.2261 -0.1878
62864SOL    HW195197   5.813   2.698   1.807  0.5685 -0.8026 -0.0331
62864SOL    HW295198   5.770   2.732   1.666  2.6276  0.5481 -0.3742
62865SOL     OW95199  11.522   1.104   8.245  0.4544 -0.0181  0.0456
62865SOL    HW195200  11.487   1.070   8.328 -0.9215  1.4130  0.1029
62865SOL    HW295201  11.601   1.151   8.269 -0.6219  1.4888  0.7853
62866SOL     OW95202   8.884   7.233   1.683  0.0774  0.1306 -0.3000
62866SOL    HW195203   8.962   7.203   1.637 -0.5834 -0.0514 -1.3328
62866SOL    HW295204   8.902   7.324   1.705  0.3936  0.2325 -0.9670
62867SOL     OW95205   2.446   7.790   6.423 -0.3039 -0.2194 -0.2680
62867SOL    HW195206   2.458   7.718   6.360 -0.9262 -1.6391  1.1700
62867SOL    HW295207   2.356   7.820   6.409 -0.2900 -0.2217 -0.3618
62868SOL     OW95208   1.769  10.511   6.456 -0.5793 -0.0759 -0.6657
62868SOL    HW195209   1.675  10.522   6.470 -0.4396  0.6940 -0.3053
62868SOL    HW295210   1.799  10.596   6.424 -0.0804 -0.4573 -1.2307
62869SOL     OW95211   5.147   5.752  10.907  0.1714  0.2027  0.0197
62869SOL    HW195212   5.218   5.776  10.848  1.5007  1.2258  1.9019
62869SOL    HW295213   5.149   5.657  10.910  2.2704  0.2277  0.8815
62870SOL     OW95214   3.799   4.470   5.089 -0.7932  0.3166  0.1891
62870SOL    HW195215   3.816   4.396   5.030 -0.8468 -0.2236  0.8338
62870SOL    HW295216   3.728   4.439   5.146 -1.5306  1.2498 -0.1939
62871SOL     OW95217   7.268  12.242   7.207 -0.6686 -0.3851  0.6600
62871SOL    HW195218   7.239  12.157   7.175 -1.1367  0.4192 -1.2033
62871SOL    HW295219   7.273  12.297   7.128  2.5635  0.5083  1.3363
62872SOL     OW95220   5.018  11.096   2.117  0.5261 -0.0153 -0.1015
62872SOL    HW195221   4.931  11.137   2.118  1.5641  2.3135  0.7773
62872SOL    HW295222   5.000  11.003   2.100 -2.0634  0.5132 -0.6796
62873SOL     OW95223   9.549   8.693   4.661 -0.3952 -0.1198 -0.5639
62873SOL    HW195224   9.507   8.663   4.580  0.1279 -0.4225 -0.7322
62873SOL    HW295225   9.640   8.664   4.652 -0.6340 -1.3351  0.7208
62874SOL     OW95226  10.690   5.431   9.075  0.0410  0.0699  0.0222
62874SOL    HW195227  10.775   5.410   9.035  1.2556  0.5632  2.1827
62874SOL    HW295228  10.677   5.524   9.058  0.2963  0.1622  0.3344
62875SOL     OW95229   3.710   6.173   2.380  0.1798 -0.0468 -0.2304
62875SOL    HW195230   3.773   6.108   2.411  1.1075  1.0421  0.2352
62875SOL    HW295231   3.712   6.163   2.284  1.8949  0.6746 -0.3164
62876SOL     OW95232   4.929   5.046  12.541  0.1574  0.3621  0.4347
62876SOL    HW195233   4.982   4.975  12.578  1.2090  0.4782 -0.7722
62876SOL    HW295234   4.925   5.112  12.609 -1.4690 -1.1140  1.8832
62877SOL     OW95235   7.974   2.690  11.722 -0.2773  0.0559  0.0026
62877SOL    HW195236   7.926   2.765  11.759 -1.1912  0.0121 -1.0384
62877SOL    HW295237   8.057   2.726  11.693 -0.7921  0.7271 -0.6728
62878SOL     OW95238   9.679   0.116   5.226 -0.3030 -0.1775  0.3753
62878SOL    HW195239   9.672   0.181   5.156  0.6645 -0.3249  0.1299
62878SOL    HW295240   9.713   0.166   5.301 -1.3851 -0.0080  0.7748
62879SOL     OW95241   0.360   3.395   5.482 -0.0182  0.2642 -0.3872
62879SOL    HW195242   0.318   3.335   5.543 -0.4356  2.5439  1.7242
62879SOL    HW295243   0.335   3.362   5.395 -1.0795 -1.9288  0.6725
62880SOL     OW95244   1.040   1.113   5.078 -0.4852  0.1746 -0.3197
62880SOL    HW195245   0.977   1.125   5.007 -2.1873  0.3515  1.1401
62880SOL    HW295246   0.988   1.124   5.158  1.6926  1.7803  0.9804
62881SOL     OW95247   9.255   0.829   4.398 -0.3838  0.5169 -0.2304
62881SOL    HW195248   9.212   0.912   4.419  1.0404  0.8970  1.5178
62881SOL    HW295249   9.242   0.775   4.477 -0.7345 -0.6937 -1.0904
62882SOL     OW95250   2.548  11.452   4.187  0.3218 -0.0560  0.2216
62882SOL    HW195251   2.631  11.470   4.230 -0.4418  0.6497  1.4818
62882SOL    HW295252   2.482  11.463   4.256 -0.6765 -2.8056 -0.1442
62883SOL     OW95253   6.039   9.548   9.793 -0.4830  0.0333 -0.0935
62883SOL    HW195254   5.982   9.625   9.790 -0.8720 -0.1562  1.3978
62883SOL    HW295255   5.987   9.478   9.754 -0.2382  0.4430 -1.1912
62884SOL     OW95256   5.130   9.543   6.279 -0.0134  0.7516 -1.1315
62884SOL    HW195257   5.133   9.602   6.354 -0.9813  2.2291 -2.2095
62884SOL    HW295258   5.211   9.562   6.230  2.0041 -2.0707  0.7750
62885SOL     OW95259   4.537  10.556   4.460 -0.5564  0.0218  0.7803
62885SOL    HW195260   4.456  10.508   4.475 -0.3489 -0.1073  1.5146
62885SOL    HW295261   4.601  10.515   4.519  0.3537 -0.6390 -0.5908
62886SOL     OW95262   1.501   4.228   0.743 -0.2069 -0.8850 -0.3504
62886SOL    HW195263   1.596   4.214   0.742 -0.0875 -0.1344 -0.0419
62886SOL    HW295264   1.490   4.323   0.735 -0.8532 -0.7365  1.6627
62887SOL     OW95265   0.206   7.012   4.821 -0.0500 -0.0166 -0.1502
62887SOL    HW195266   0.122   7.040   4.784  0.6779  1.6435 -0.6820
62887SOL    HW295267   0.191   7.009   4.915 -0.3635  1.7020 -0.1071
62888SOL     OW95268   1.189   8.795   7.663  0.0707  0.3928 -0.5830
62888SOL    HW195269   1.244   8.862   7.704 -0.7242  1.0012 -0.4978
62888SOL    HW295270   1.224   8.712   7.696 -0.2551  0.8478  0.9770
62889SOL     OW95271   2.985  12.629  10.699  0.6202 -0.4123  0.2221
62889SOL    HW195272   2.910  12.574  10.678  1.7699 -2.2204  0.6391
62889SOL    HW295273   3.061  12.575  10.676  1.8403  1.8852 -1.5703
62890SOL     OW95274   7.127   4.756   2.846 -0.2949  0.1295  0.8753
62890SOL    HW195275   7.149   4.678   2.897 -1.5848 -1.0845 -0.3386
62890SOL    HW295276   7.154   4.734   2.756  0.3553  1.5361  0.7058
62891SOL     OW95277   3.084   6.478   7.990  0.4891 -0.2696  0.3118
62891SOL    HW195278   3.078   6.396   7.942 -1.9308 -0.1444  0.2639
62891SOL    HW295279   3.051   6.458   8.077  3.3190 -0.1237  1.5029
62892SOL     OW95280   7.494  11.627   2.247 -0.2537  0.1237 -0.0236
62892SOL    HW195281   7.498  11.723   2.239 -0.6788  0.2946  1.4448
62892SOL    HW295282   7.585  11.600   2.255 -0.0811  0.3129 -1.1260
62893SOL     OW95283   2.750   5.116   0.222 -0.4172  0.0192  0.5079
62893SOL    HW195284   2.716   5.201   0.194 -0.7122  0.0072  0.8231
62893SOL    HW295285   2.838   5.112   0.185 -0.4571  0.3988  0.3680
62894SOL     OW95286   7.085  11.688   1.899  0.3392 -0.1475  0.0232
62894SOL    HW195287   7.119  11.630   1.967  0.8111  0.6417  0.4660
62894SOL    HW295288   7.161  11.709   1.845  0.1728  0.0658 -0.1329
62895SOL     OW95289   1.741   0.406   0.702 -0.4512  0.1663  0.6046
62895SOL    HW195290   1.653   0.440   0.687  0.2452  1.6632 -0.2789
62895SOL    HW295291   1.790   0.480   0.737  0.7216 -0.3684  0.1361
62896SOL     OW95292  10.310   8.420   9.271  0.3872 -0.0893  0.5570
62896SOL    HW195293  10.341   8.510   9.263  0.0119 -0.1002 -1.6385
62896SOL    HW295294  10.389   8.369   9.293  0.6884  0.6813  1.3171
62897SOL     OW95295   2.914   5.143   6.889 -0.0863  0.0961  0.2957
62897SOL    HW195296   2.913   5.053   6.923 -0.6307  0.3127  0.8711
62897SOL    HW295297   2.985   5.143   6.825 -1.5090 -1.3444 -1.3862
62898SOL     OW95298   7.679   4.686   8.955  0.1747  0.5563  0.0684
62898SOL    HW195299   7.697   4.600   8.993  0.2617  0.2795 -0.5942
62898SOL    HW295300   7.640   4.668   8.870  0.0167  1.1751 -0.0002
62899SOL     OW95301   2.178  12.149   7.737 -0.2452  0.6588 -0.0008
62899SOL    HW195302   2.233  12.226   7.726  1.3180 -0.5621 -1.4237
62899SOL    HW295303   2.212  12.087   7.672 -1.4142 -1.2285  1.1052
62900SOL     OW95304   9.804   1.587   9.515  0.4401  0.1735  0.4328
62900SOL    HW195305   9.833   1.677   9.494  0.7764  0.6739  2.7673
62900SOL    HW295306   9.734   1.569   9.452  0.9180  1.7560 -0.6203
62901SOL     OW95307   7.747   9.109   3.081  0.1644  0.3993 -0.0770
62901SOL    HW195308   7.697   9.111   3.162  1.2467  2.2515  0.5940
62901SOL    HW295309   7.682   9.088   3.014 -0.9991  0.1620  1.0780
62902SOL     OW95310   4.875   1.680   0.658 -0.0736  0.1306  0.0666
62902SOL    HW195311   4.782   1.700   0.671  0.2779  2.0126  0.0348
62902SOL    HW295312   4.877   1.623   0.581 -1.2401 -0.5182  0.5002
62903SOL     OW95313   5.274   3.590   6.911 -0.1672  0.3993  0.1357
62903SOL    HW195314   5.218   3.568   6.836 -0.8265  0.3812  0.6287
62903SOL    HW295315   5.333   3.515   6.920 -1.7162 -0.7366  1.1566
62904SOL     OW95316   1.911   0.273  10.068 -0.1358  0.1738 -0.1658
62904SOL    HW195317   1.848   0.235  10.006 -0.7404 -0.6537  0.9287
62904SOL    HW295318   1.858   0.313  10.136  0.4070 -2.0310  1.7085
62905SOL     OW95319   9.359   1.579   6.115  0.8898  0.1241  0.2142
62905SOL    HW195320   9.427   1.529   6.161  1.7454  2.4296  1.6101
62905SOL    HW295321   9.406   1.621   6.043  0.7934  1.0842  0.7016
62906SOL     OW95322   2.821  11.753   4.041  0.5032 -0.2427  0.2163
62906SOL    HW195323   2.775  11.810   4.102 -1.2952 -0.7333 -0.6377
62906SOL    HW295324   2.863  11.687   4.096 -1.6472 -1.0823  0.9199
62907SOL     OW95325   0.899  10.507   8.213 -0.2377 -0.2650 -0.2496
62907SOL    HW195326   0.856  10.543   8.291  2.3633  0.8854  0.7815
62907SOL    HW295327   0.888  10.574   8.146 -0.3863 -0.1560 -0.1160
62908SOL     OW95328   3.280  12.023  12.318 -0.2018 -0.0016  0.5635
62908SOL    HW195329   3.271  12.115  12.295  0.3948  0.0856  0.6847
62908SOL    HW295330   3.357  11.993  12.270 -1.2740 -0.8387 -0.7240
62909SOL     OW95331  12.646   9.519  11.152  0.5959 -0.1679 -0.3022
62909SOL    HW195332  12.642   9.580  11.078  0.8969  0.1632 -0.0464
62909SOL    HW295333  12.738   9.519  11.178  0.5406 -0.4957 -0.1014
62910SOL     OW95334   9.318   7.235  11.321  0.2801  0.3528 -0.1085
62910SOL    HW195335   9.335   7.316  11.369 -0.2444  0.2576  0.2517
62910SOL    HW295336   9.355   7.249  11.234 -0.0221  1.0713 -0.1218
62911SOL     OW95337   5.469  12.017   4.365  0.4852  0.0578  0.3192
62911SOL    HW195338   5.493  11.926   4.383 -0.0763 -0.0533  0.5035
62911SOL    HW295339   5.376  12.015   4.345  0.3521  0.6687  0.8366
62912SOL     OW95340   2.243   0.724   2.960 -0.2213  0.1161  0.1108
62912SOL    HW195341   2.280   0.754   2.877  0.3659 -1.1390 -0.1099
62912SOL    HW295342   2.200   0.641   2.938  0.8248 -0.7502  1.2329
62913SOL     OW95343  12.769   6.177   8.442  0.1770 -0.5154  0.4201
62913SOL    HW195344  12.745   6.269   8.441  0.0351 -0.5537 -0.0313
62913SOL    HW295345  12.833   6.169   8.512 -0.9859 -0.3766  1.5433
62914SOL     OW95346  12.169   0.936   6.307 -0.1818  0.2461 -0.0717
62914SOL    HW195347  12.262   0.942   6.325 -0.1905  0.8100 -0.1820
62914SOL    HW295348  12.161   0.867   6.241  0.1706  0.2925 -0.1644
62915SOL     OW95349  10.036   4.248   8.652  0.1618  0.3849 -0.2350
62915SOL    HW195350  10.087   4.229   8.573  0.1839  1.2904 -0.4547
62915SOL    HW295351  10.002   4.163   8.680 -0.0224  0.0780 -1.3373
62916SOL     OW95352   0.536   8.626   2.125  0.2414 -0.0499 -0.3318
62916SOL    HW195353   0.564   8.673   2.203  0.5919  1.8593 -1.5202
62916SOL    HW295354   0.618   8.608   2.078 -0.0448 -0.1273 -0.8049
62917SOL     OW95355  12.288   5.904   0.939 -0.3351 -0.8182 -0.3021
62917SOL    HW195356  12.331   5.886   0.856  1.7402 -0.3215  0.6016
62917SOL    HW295357  12.264   5.996   0.934 -0.6930 -0.9228 -0.5446
62918SOL     OW95358   8.529   6.181   1.141 -0.0569  0.7330 -0.1360
62918SOL    HW195359   8.515   6.259   1.194 -0.5048  0.9013 -0.5050
62918SOL    HW295360   8.579   6.122   1.199 -0.3730  0.9891  0.4050
62919SOL     OW95361   8.063   8.181  11.313  0.2199 -0.3736 -0.1950
62919SOL    HW195362   8.093   8.172  11.223  0.3986 -0.6901 -0.1088
62919SOL    HW295363   8.123   8.125  11.363  0.2927  0.0113  0.1544
62920SOL     OW95364   9.696   1.252  10.662 -0.7492 -0.1586  0.0318
62920SOL    HW195365   9.687   1.308  10.739 -0.8388  2.2976 -1.6460
62920SOL    HW295366   9.790   1.252  10.643 -0.9128  0.7709 -0.8676
62921SOL     OW95367   8.909   6.088  10.270  0.5275 -0.1654  0.3255
62921SOL    HW195368   8.852   6.028  10.318 -0.0087 -1.2344 -1.5546
62921SOL    HW295369   8.958   6.032  10.209  3.0283  0.8198  1.2975
62922SOL     OW95370   5.641   1.452   0.654 -0.3161 -0.1285 -0.2626
62922SOL    HW195371   5.683   1.485   0.733 -1.2792  1.1880 -0.2762
62922SOL    HW295372   5.659   1.358   0.655  1.7712  0.2400  0.2178
62923SOL     OW95373   1.168   8.038   2.299  0.5344 -0.6562 -0.0384
62923SOL    HW195374   1.172   8.075   2.211 -0.3611  0.8044  0.5096
62923SOL    HW295375   1.256   8.049   2.334  0.2035  1.3508  0.2445
62924SOL     OW95376   0.181  12.131   5.527  0.0936 -0.4375 -0.3639
62924SOL    HW195377   0.179  12.062   5.593  0.5852 -1.7601 -1.6566
62924SOL    HW295378   0.139  12.091   5.450  0.2213  0.7764 -1.0913
62925SOL     OW95379  10.270   0.172   0.694  0.0656  0.1102  0.2669
62925SOL    HW195380  10.256   0.162   0.600 -0.9495  1.0785  0.2822
62925SOL    HW295381  10.271   0.083   0.729  1.8459 -0.3308 -0.8226
62926SOL     OW95382  11.230   4.279   4.462  0.1271 -0.2062 -0.2886
62926SOL    HW195383  11.219   4.354   4.520  2.7903  1.1957 -1.4197
62926SOL    HW295384  11.288   4.220   4.510 -0.5337 -0.7497 -0.1331
62927SOL     OW95385   2.437   1.659   6.528  0.6139  0.0561  0.4261
62927SOL    HW195386   2.493   1.613   6.591  1.1713 -0.4800 -0.4433
62927SOL    HW295387   2.391   1.590   6.481  2.4651  0.2343 -1.8294
62928SOL     OW95388  10.316  10.713   0.503 -0.7133 -0.0183 -0.5413
62928SOL    HW195389  10.255  10.708   0.430  0.2541 -1.5889 -1.2817
62928SOL    HW295390  10.402  10.711   0.463 -0.1218  1.6020  0.5225
62929SOL     OW95391   0.317  10.394   0.614  0.3183 -0.1012  0.2046
62929SOL    HW195392   0.294  10.338   0.540  0.5570  2.4191 -1.9294
62929SOL    HW295393   0.239  10.392   0.670  0.3849 -2.5867  0.3254
62930SOL     OW95394   7.738   9.077  10.769  0.2309 -0.0120 -0.1314
62930SOL    HW195395   7.788   9.015  10.820  0.5175  1.1934  1.0924
62930SOL    HW295396   7.723   9.151  10.827 -2.6459 -0.1396 -0.5497
62931SOL     OW95397   7.576   3.046   2.255  0.0242 -0.1221 -0.6099
62931SOL    HW195398   7.499   2.992   2.241 -0.0025 -0.9188  2.0455
62931SOL    HW295399   7.626   3.039   2.173 -2.6847  0.5148 -2.4391
62932SOL     OW95400  11.256   3.299   5.918  0.3546  0.0611 -0.6244
62932SOL    HW195401  11.325   3.270   5.978 -0.2230  0.7440  0.3946
62932SOL    HW295402  11.204   3.220   5.902  0.2363 -0.0297  0.1593
62933SOL     OW95403   4.410   7.929   9.315  0.0694  0.9230 -0.1446
62933SOL    HW195404   4.426   8.002   9.375  0.5755 -0.0979  1.0090
62933SOL    HW295405   4.370   7.862   9.370 -0.3183  0.3067 -1.1728
62934SOL     OW95406   1.839   6.779   5.468 -0.1482 -0.1253 -0.2085
62934SOL    HW195407   1.930   6.807   5.466 -0.6322  1.6077 -0.1027
62934SOL    HW295408   1.838   6.703   5.526  1.5155 -1.4702 -1.8183
62935SOL     OW95409   2.698   2.159   3.073  0.2159 -0.1260 -0.0409
62935SOL    HW195410   2.639   2.093   3.110 -0.1623 -0.0650 -0.5253
62935SOL    HW295411   2.785   2.118   3.075 -0.3513 -1.7036 -2.6991
62936SOL     OW95412   4.265  12.746   3.071 -0.3279  0.3569 -1.0960
62936SOL    HW195413   4.195  12.754   3.136 -0.5456 -0.1616 -1.2644
62936SOL    HW295414   4.307  12.832   3.071  1.1781 -0.2600  1.4046
62937SOL     OW95415   8.689   0.357   8.892 -0.4053 -0.4305 -0.1855
62937SOL    HW195416   8.649   0.378   8.808 -0.0458 -1.0976 -0.5295
62937SOL    HW295417   8.743   0.280   8.875  0.5395  0.0705  0.3993
62938SOL     OW95418   8.877   7.027   8.554  0.1870 -0.4687  0.0024
62938SOL    HW195419   8.789   7.004   8.584  0.1590 -0.2350  0.1009
62938SOL    HW295420   8.913   7.080   8.624  1.1835 -2.2523  0.9051
62939SOL     OW95421   8.564   7.195   6.296 -0.2929  0.0653 -0.4430
62939SOL    HW195422   8.471   7.212   6.279 -0.1484 -0.0827 -1.4267
62939SOL    HW295423   8.564   7.148   6.379 -1.0970  0.1389 -0.3868
62940SOL     OW95424   3.742   5.573   3.974 -0.1563 -0.4280 -0.1529
62940SOL    HW195425   3.797   5.553   4.050 -0.6246 -0.4425  0.1861
62940SOL    HW295426   3.652   5.572   4.008 -0.3599 -0.2788 -0.6735
62941SOL     OW95427   4.104   2.196  10.338 -0.3591  0.3803  0.2613
62941SOL    HW195428   4.111   2.283  10.300 -1.5494  0.1620 -0.5409
62941SOL    HW295429   4.122   2.136  10.265  1.4577 -0.0768  1.0272
62942SOL     OW95430   9.085   5.877   0.817 -0.8010  0.0414  0.9038
62942SOL    HW195431   9.010   5.922   0.857 -2.7703 -0.7565 -1.6113
62942SOL    HW295432   9.046   5.824   0.748  2.3486  2.1451 -2.8550
62943SOL     OW95433  11.684   1.338   5.027  0.0914 -0.3157  0.2216
62943SOL    HW195434  11.665   1.432   5.037  1.3076  0.0162 -0.4007
62943SOL    HW295435  11.613   1.305   4.973  0.6573  0.6650 -1.1877
62944SOL     OW95436  11.751   0.959   5.039 -0.4454 -0.3381 -0.3374
62944SOL    HW195437  11.818   0.891   5.026 -0.0961  0.0683 -0.7144
62944SOL    HW295438  11.706   0.964   4.955 -0.1604  0.2139 -0.4641
62945SOL     OW95439   4.648  11.406   9.077 -0.4630  0.3550  0.1844
62945SOL    HW195440   4.666  11.349   9.152 -0.1098 -1.0824 -0.9306
62945SOL    HW295441   4.712  11.476   9.083  0.2016 -0.2821  0.6831
62946SOL     OW95442   8.833   6.983   0.438 -0.3349  0.5145 -0.0356
62946SOL    HW195443   8.927   6.986   0.457 -0.8172 -1.6592  3.6634
62946SOL    HW295444   8.793   7.030   0.511 -2.1958  1.6809 -1.7076
62947SOL     OW95445   1.838   3.033  12.495  0.4027  0.1815 -0.0489
62947SOL    HW195446   1.904   3.011  12.430  0.4694  1.5157 -0.4678
62947SOL    HW295447   1.880   3.098  12.552 -0.2642  0.4282  0.1817
62948SOL     OW95448   0.598  11.094   0.160  0.8471  0.5490  0.1846
62948SOL    HW195449   0.599  11.126   0.250  0.4848  0.2885  0.2805
62948SOL    HW295450   0.677  11.040   0.153  0.3775 -0.2231  0.6384
62949SOL     OW95451   3.620   9.951  10.213  0.3338  0.3218  0.4030
62949SOL    HW195452   3.655   9.964  10.125  0.8738 -1.1150  0.3710
62949SOL    HW295453   3.571  10.031  10.231 -1.2011 -0.0097 -1.8558
62950SOL     OW95454  11.818   1.673  12.617  0.0714 -0.3020  0.2754
62950SOL    HW195455  11.753   1.636  12.678 -1.4430 -0.1880 -1.1983
62950SOL    HW295456  11.791   1.764  12.607  0.2349 -0.3433 -0.6268
62951SOL     OW95457   2.886   5.648   1.739 -0.6455 -0.4683  0.2288
62951SOL    HW195458   2.820   5.702   1.783 -2.9254 -2.7110 -0.2025
62951SOL    HW295459   2.909   5.581   1.803  1.1002  0.1424  0.2852
62952SOL     OW95460   5.186   8.648  12.693  0.5251  0.6758 -0.1280
62952SOL    HW195461   5.193   8.649  12.788 -0.5968 -0.1562 -0.0278
62952SOL    HW295462   5.128   8.721  12.672  0.7017  0.8048 -0.1709
62953SOL     OW95463   6.166   9.918   2.227 -0.5874 -0.0713  0.1089
62953SOL    HW195464   6.218   9.867   2.289 -1.5233 -0.5733  0.5030
62953SOL    HW295465   6.216   9.914   2.145 -0.9400 -2.2394 -0.0743
62954SOL     OW95466  12.669   5.849   5.115  0.6600 -0.9525 -0.1679
62954SOL    HW195467  12.733   5.787   5.081  1.4267 -0.3871  0.2295
62954SOL    HW295468  12.717   5.902   5.178 -0.3961 -1.0511  0.7467
62955SOL     OW95469   4.701  10.374   3.811 -0.0400 -0.0850 -0.1042
62955SOL    HW195470   4.648  10.437   3.862 -0.8164 -1.2413  0.5767
62955SOL    HW295471   4.739  10.426   3.741 -1.9604  0.8551 -0.5192
62956SOL     OW95472   2.399   9.745  12.610 -0.1749 -0.1101 -0.4023
62956SOL    HW195473   2.466   9.741  12.541  0.6329  2.6884  0.0874
62956SOL    HW295474   2.326   9.792  12.569 -1.4634 -2.0887 -0.5486
62957SOL     OW95475   2.189  11.714   4.329 -0.4898  0.0593  0.5340
62957SOL    HW195476   2.174  11.720   4.235 -2.3542 -1.4756  0.6699
62957SOL    HW295477   2.169  11.801   4.362 -0.3832  0.4553 -0.4008
62958SOL     OW95478  12.122   2.395   2.486 -0.4620  0.1572  0.4559
62958SOL    HW195479  12.053   2.453   2.454 -2.5314 -2.1606  0.4274
62958SOL    HW295480  12.176   2.376   2.409 -0.8987  0.5607  0.0455
62959SOL     OW95481   4.449   9.683   0.276 -0.3592  0.0102  0.0027
62959SOL    HW195482   4.392   9.609   0.254 -0.1047 -0.4697  0.8865
62959SOL    HW295483   4.399   9.734   0.339 -0.2104  0.1326  0.0222
62960SOL     OW95484  12.519   0.840  11.865 -0.0699  0.1225 -0.8284
62960SOL    HW195485  12.591   0.889  11.904  0.5331 -1.0663 -0.3922
62960SOL    HW295486  12.451   0.837  11.933  0.1281 -0.1368 -0.6405
62961SOL     OW95487  11.779   3.227   1.276  0.0692  0.2218  0.4026
62961SOL    HW195488  11.857   3.205   1.326 -0.2821  0.7017  1.1777
62961SOL    HW295489  11.780   3.323   1.270  0.0044  0.1846 -0.3489
62962SOL     OW95490   0.362   3.547   1.515  0.5795  0.3628 -0.3979
62962SOL    HW195491   0.428   3.588   1.571 -0.1691  1.1190 -0.0559
62962SOL    HW295492   0.400   3.550   1.427  1.6452 -0.5798  0.0006
62963SOL     OW95493   5.555   5.009  12.594  0.3627  0.2878 -0.1190
62963SOL    HW195494   5.477   5.054  12.626 -0.2217  0.4716 -1.6875
62963SOL    HW295495   5.538   4.997  12.500  2.4129  0.7285 -0.5879
62964SOL     OW95496   3.833   0.748  10.181  0.5037 -0.0147 -0.0241
62964SOL    HW195497   3.839   0.658  10.149 -1.1758  0.5632 -2.2195
62964SOL    HW295498   3.898   0.797  10.131  0.1908  0.3058 -0.1257
62965SOL     OW95499   9.305   9.971   6.723  0.3376 -0.3922 -0.3443
62965SOL    HW195500   9.356   9.947   6.645  1.1803  0.5458 -0.1138
62965SOL    HW295501   9.220   9.997   6.689 -0.1779 -2.4121 -0.7025
62966SOL     OW95502   1.708  10.104   6.442 -0.1176  0.1878 -0.6115
62966SOL    HW195503   1.745  10.020   6.415  0.8877 -0.2089  1.7655
62966SOL    HW295504   1.769  10.169   6.407 -0.4571 -0.0831 -1.7619
62967SOL     OW95505   2.022   6.994  10.414 -0.0364  0.0215  0.7633
62967SOL    HW195506   1.959   7.066  10.423 -2.4456 -1.8096 -0.4137
62967SOL    HW295507   2.082   7.024  10.345 -2.5213  0.0139 -1.5601
62968SOL     OW95508   2.379   6.002   2.609 -0.0033 -0.8487 -0.3269
62968SOL    HW195509   2.289   5.985   2.635 -0.2273  0.5085 -0.1069
62968SOL    HW295510   2.395   6.093   2.637  2.2020 -1.7643  1.7703
62969SOL     OW95511   3.012  10.868   1.834 -0.3418  0.2368 -0.8805
62969SOL    HW195512   2.985  10.811   1.762 -0.2568 -0.2258 -0.5503
62969SOL    HW295513   2.941  10.931   1.844 -1.2834 -0.9372 -0.0432
62970SOL     OW95514   2.151   5.272  10.898 -0.5572  0.3107  0.7626
62970SOL    HW195515   2.132   5.179  10.883 -0.7540  0.2880  1.1257
62970SOL    HW295516   2.107   5.318  10.827 -0.7326  0.1469  0.7636
62971SOL     OW95517   9.336  12.477   0.422  0.0176  0.5268 -0.7733
62971SOL    HW195518   9.256  12.425   0.411 -0.3767  0.1606  2.8849
62971SOL    HW295519   9.394  12.445   0.353 -1.7644 -1.6557 -1.3911
62972SOL     OW95520   4.495   4.734   4.779  0.3765 -0.4031  0.2628
62972SOL    HW195521   4.550   4.774   4.712 -1.3983  0.4053 -0.7865
62972SOL    HW295522   4.443   4.806   4.814 -0.3437 -1.2108  0.9068
62973SOL     OW95523  11.947  12.298   0.592  0.0009  0.3796 -0.4330
62973SOL    HW195524  11.932  12.251   0.510 -0.8924  0.6214 -0.4223
62973SOL    HW295525  12.021  12.355   0.575 -0.8281  1.2039 -1.4237
62974SOL     OW95526   8.574   1.789   0.693 -0.3374  0.2826 -0.5099
62974SOL    HW195527   8.528   1.789   0.609 -4.4564 -0.1617  1.4534
62974SOL    HW295528   8.632   1.714   0.689 -1.6787 -0.7322 -2.4146
62975SOL     OW95529   8.517  11.719   7.989  0.2590 -0.1890  0.3309
62975SOL    HW195530   8.435  11.766   7.972 -0.0488 -0.6802  0.4527
62975SOL    HW295531   8.561  11.717   7.904 -1.0548 -2.2169 -0.3908
62976SOL     OW95532   4.123  11.272   5.821  0.0083 -0.0374 -0.2124
62976SOL    HW195533   4.194  11.335   5.808  0.1900  0.4375  2.4168
62976SOL    HW295534   4.045  11.316   5.788  0.4779  0.6453 -0.4379
62977SOL     OW95535   7.284   1.891  11.738  0.1366 -0.3341  0.6559
62977SOL    HW195536   7.373   1.855  11.733  0.0581 -0.6884  1.6308
62977SOL    HW295537   7.297   1.982  11.765  0.2025 -0.4066  0.8727
62978SOL     OW95538   5.047  11.626   7.534 -0.3833  0.7353  0.0699
62978SOL    HW195539   4.968  11.587   7.570  0.9290 -1.2883  0.9311
62978SOL    HW295540   5.100  11.552   7.505  0.3853  2.1042 -2.3887
62979SOL     OW95541   5.540  11.692   5.111 -0.4454  0.4997 -0.4965
62979SOL    HW195542   5.501  11.638   5.180 -0.6174  1.9014  0.5664
62979SOL    HW295543   5.616  11.642   5.081  0.0919  0.1759  1.2612
62980SOL     OW95544   1.294   2.542   4.030  0.5497  0.2140  0.0712
62980SOL    HW195545   1.277   2.634   4.012  0.1998  0.1955  0.2896
62980SOL    HW295546   1.209   2.499   4.015  0.5107  0.0471  0.7501
62981SOL     OW95547   9.773   9.951   8.744 -0.2419  0.4307 -0.7665
62981SOL    HW195548   9.819   9.963   8.661 -0.4707  0.7477 -0.8472
62981SOL    HW295549   9.775   9.856   8.758 -0.3623  0.3546 -1.2255
62982SOL     OW95550  11.677   1.485   3.779 -0.3205 -0.3008 -0.0183
62982SOL    HW195551  11.636   1.436   3.707 -0.0961 -0.3393 -0.1213
62982SOL    HW295552  11.665   1.577   3.756 -0.5810 -0.3090  0.0837
62983SOL     OW95553   5.337   0.006   4.805 -0.2262  0.2423  0.0589
62983SOL    HW195554   5.256  -0.017   4.760 -0.9742  1.0236  0.9457
62983SOL    HW295555   5.406  -0.042   4.759 -1.0528  0.4320 -1.4154
62984SOL     OW95556   0.832  12.681   2.575  0.6235  0.2340 -0.0350
62984SOL    HW195557   0.839  12.694   2.669  1.4919 -0.8256  0.0730
62984SOL    HW295558   0.859  12.764   2.536 -0.3071  0.8695  0.6388
62985SOL     OW95559   2.602  12.752   0.102 -0.8503  0.1093  0.5833
62985SOL    HW195560   2.659  12.691   0.055 -1.2899  0.5747 -0.6198
62985SOL    HW295561   2.659  12.825   0.125 -0.5993 -0.1817  0.8883
62986SOL     OW95562   4.554   8.241  12.414 -0.0756  0.3641 -0.4869
62986SOL    HW195563   4.623   8.191  12.456  1.2135  1.4278 -1.2685
62986SOL    HW295564   4.567   8.331  12.445 -1.6269  0.4479 -0.0043
62987SOL     OW95565   1.099  12.133   1.690  0.2836  0.4399 -0.1277
62987SOL    HW195566   1.118  12.080   1.768  0.6240 -0.4250 -0.7854
62987SOL    HW295567   1.033  12.083   1.642 -0.8253  1.5489  0.1850
62988SOL     OW95568   1.014  11.585   1.859  0.2159 -0.6234 -0.1486
62988SOL    HW195569   0.990  11.550   1.945 -0.5379 -0.2575 -0.2131
62988SOL    HW295570   0.933  11.617   1.822  0.7767  0.5512 -0.4004
62989SOL     OW95571   7.873   9.867   6.416 -0.1230 -0.4320 -0.9185
62989SOL    HW195572   7.917   9.856   6.500 -0.5787  1.5956 -0.3597
62989SOL    HW295573   7.809   9.796   6.412 -2.1479  1.0468  1.8325
62990SOL     OW95574   0.554   8.265   4.729  0.2424 -0.1803 -0.1285
62990SOL    HW195575   0.542   8.213   4.809 -1.0604  1.0441  0.5186
62990SOL    HW295576   0.524   8.206   4.659 -0.8777 -0.4565  0.5485
62991SOL     OW95577   3.669   0.031   6.370 -0.0240  0.1449  0.2870
62991SOL    HW195578   3.730   0.041   6.297 -1.2459 -0.4488 -0.8466
62991SOL    HW295579   3.584   0.013   6.329 -0.2585 -3.0289  1.8118
62992SOL     OW95580   9.410  10.779  11.491 -0.6022  0.0266  0.1461
62992SOL    HW195581   9.315  10.774  11.491 -0.5437 -1.5392  0.3786
62992SOL    HW295582   9.439  10.689  11.505  0.9185  0.4373 -0.1757
62993SOL     OW95583  11.601   0.222   7.313 -0.0233 -0.1742  0.2618
62993SOL    HW195584  11.676   0.272   7.345  1.2809 -2.0813  0.3494
62993SOL    HW295585  11.574   0.170   7.388 -0.9881 -0.0369  0.0164
62994SOL     OW95586   0.156   1.002   1.776 -0.4343 -0.5325  0.3503
62994SOL    HW195587   0.067   1.030   1.757 -1.1749 -2.0765  1.3957
62994SOL    HW295588   0.203   1.083   1.796 -2.3588  0.0971  2.7723
62995SOL     OW95589   0.878   4.041   9.444 -0.1119 -0.0587 -0.7248
62995SOL    HW195590   0.953   4.094   9.416 -0.1344  1.0313  1.1555
62995SOL    HW295591   0.815   4.104   9.477 -0.9612 -1.1267 -0.2533
62996SOL     OW95592   6.295   4.037   5.189  0.4725  0.5985 -0.1175
62996SOL    HW195593   6.384   4.003   5.191  0.5530  0.5571 -2.3327
62996SOL    HW295594   6.279   4.057   5.097 -1.8035  0.6051  0.2265
62997SOL     OW95595   0.995   0.380   2.575  0.7091 -0.2889 -0.4562
62997SOL    HW195596   0.923   0.338   2.622 -0.4460  2.9917  0.9552
62997SOL    HW295597   0.964   0.384   2.484  0.0570 -0.8170 -0.2652
62998SOL     OW95598   2.316  10.515   1.423 -0.0170 -0.2356 -0.1319
62998SOL    HW195599   2.325  10.434   1.472  0.1708 -1.1402 -1.5814
62998SOL    HW295600   2.253  10.495   1.354 -0.8350  1.2053  0.1454
62999SOL     OW95601  11.254  11.619   2.480 -0.1845 -0.2719 -0.6976
62999SOL    HW195602  11.303  11.694   2.445  2.2126 -1.9293 -1.1096
62999SOL    HW295603  11.287  11.609   2.570 -0.2740 -1.0053 -0.7406
63000SOL     OW95604   5.350   8.316   9.725  0.4263  0.0680 -0.0926
63000SOL    HW195605   5.381   8.339   9.813  0.5781 -2.6416  0.6396
63000SOL    HW295606   5.429   8.293   9.677  0.2450  0.6373 -0.6831
63001SOL     OW95607   6.492   0.870  11.925  0.4875 -0.5217 -0.6027
63001SOL    HW195608   6.468   0.822  11.845  1.4792 -1.0066 -0.6154
63001SOL    HW295609   6.497   0.803  11.993 -2.2509  0.0953  0.3785
63002SOL     OW95610   0.403   7.913   6.630  0.7231  0.4811  0.4282
63002SOL    HW195611   0.339   7.884   6.565 -0.6145 -0.7661  2.1833
63002SOL    HW295612   0.486   7.876   6.599  0.3363  0.7907 -1.0806
63003SOL     OW95613  11.333   4.250  10.559 -0.6800 -0.4424 -0.3136
63003SOL    HW195614  11.276   4.201  10.619 -0.2449 -2.2310 -1.2790
63003SOL    HW295615  11.417   4.202  10.562 -0.2303  0.2559 -1.3048
63004SOL     OW95616   7.055   6.085  10.747 -0.1557 -0.0856 -0.4679
63004SOL    HW195617   7.005   6.061  10.669 -1.3299 -3.3074  1.0783
63004SOL    HW295618   6.991   6.125  10.805 -0.1439 -0.8619  0.1057
63005SOL     OW95619   3.421   0.259   4.839  0.2384  0.3941  0.1114
63005SOL    HW195620   3.408   0.192   4.905 -0.6402  0.4904  0.0419
63005SOL    HW295621   3.449   0.211   4.761  0.5062  0.2042  0.3250
63006SOL     OW95622  11.786   9.811   2.398  0.4110 -0.0945 -0.6726
63006SOL    HW195623  11.800   9.804   2.303  0.5425 -0.5676 -0.6225
63006SOL    HW295624  11.870   9.842   2.432  0.9284 -1.5554 -0.5319
63007SOL     OW95625   8.559   2.346  10.747  0.2884 -0.9048 -0.4545
63007SOL    HW195626   8.619   2.277  10.775  0.2341 -0.3296  1.1855
63007SOL    HW295627   8.591   2.425  10.792 -2.2957 -0.7960  1.3882
63008SOL     OW95628   9.062   1.238  12.221  0.1707  0.1383  0.3163
63008SOL    HW195629   9.156   1.229  12.210  0.5435  1.5553  1.9301
63008SOL    HW295630   9.033   1.152  12.251  1.5139  0.5003  2.9212
63009SOL     OW95631   0.963   4.700   7.894 -0.2261  0.5602 -0.0463
63009SOL    HW195632   0.958   4.788   7.931  0.5481 -0.3673  2.5029
63009SOL    HW295633   0.948   4.642   7.969  6.2188 -1.6412  0.1744
63010SOL     OW95634  10.533   8.705   1.902 -0.3818 -0.2543 -0.2518
63010SOL    HW195635  10.492   8.773   1.956 -1.7896 -1.2996  0.0660
63010SOL    HW295636  10.622   8.698   1.936 -0.7703  0.1831  0.9368
63011SOL     OW95637  12.589   1.961  10.730 -0.5310 -0.0196 -0.5826
63011SOL    HW195638  12.566   1.877  10.769 -3.5069  1.2899  0.7569
63011SOL    HW295639  12.514   1.983  10.674  0.5275  1.3842 -1.5273
63012SOL     OW95640   3.431  10.579   3.381  0.2755 -0.5075  0.2044
63012SOL    HW195641   3.519  10.549   3.403  1.7818  0.2479 -3.8891
63012SOL    HW295642   3.440  10.674   3.372 -0.8156 -0.4737 -0.7083
63013SOL     OW95643   4.404   1.347   4.336 -0.3908 -0.7992  0.4758
63013SOL    HW195644   4.321   1.301   4.351 -0.3223 -1.1667 -0.2366
63013SOL    HW295645   4.444   1.300   4.263  0.8735 -1.1788  1.3929
63014SOL     OW95646   2.657   2.638   5.297 -0.4150  0.4600 -1.1424
63014SOL    HW195647   2.647   2.732   5.279  0.0851  0.7292 -0.1361
63014SOL    HW295648   2.675   2.599   5.212 -0.4191  1.3087 -1.5473
63015SOL     OW95649   7.992   6.120   0.529 -0.2747  0.2650  0.2205
63015SOL    HW195650   7.996   6.184   0.600 -1.1798 -2.1920  2.6768
63015SOL    HW295651   8.048   6.048   0.558 -2.6616 -1.9333 -0.2484
63016SOL     OW95652   1.850   5.814  11.495 -0.0795 -0.5254  0.1563
63016SOL    HW195653   1.868   5.907  11.489  1.0347 -0.8112 -2.1976
63016SOL    HW295654   1.834   5.787  11.404 -0.5014 -2.5984  0.7881
63017SOL     OW95655   9.996  12.168   6.813  0.1518  0.0839  0.7709
63017SOL    HW195656   9.903  12.174   6.791 -0.0048 -0.3413  1.3067
63017SOL    HW295657  10.011  12.241   6.874  0.4572  0.9113 -0.2724
63018SOL     OW95658   3.017   3.403   3.486  0.0099 -0.4445 -0.2040
63018SOL    HW195659   3.003   3.436   3.397  1.5927  0.1409 -0.2652
63018SOL    HW295660   3.065   3.473   3.531 -0.2470 -0.9735  0.9441
63019SOL     OW95661   0.272   8.688   0.184 -0.5447 -0.2140  0.2208
63019SOL    HW195662   0.352   8.643   0.212  0.0538  0.9189  0.4024
63019SOL    HW295663   0.229   8.627   0.124  0.5603 -0.7573 -0.0407
63020SOL     OW95664  10.249   4.071  10.643  0.1021  0.0209 -0.0531
63020SOL    HW195665  10.221   4.100  10.557  1.2981 -1.3184 -0.9520
63020SOL    HW295666  10.180   4.099  10.703 -0.7866  0.8976 -1.4538
63021SOL     OW95667   4.411   2.678   5.457  0.4326 -0.3834  0.0490
63021SOL    HW195668   4.355   2.747   5.423 -0.3880 -1.3045 -0.5033
63021SOL    HW295669   4.498   2.698   5.421  0.3131  0.6076  0.2795
63022SOL     OW95670   8.620   5.041  10.988 -0.2675 -0.4980 -0.2427
63022SOL    HW195671   8.667   4.957  10.985 -1.6088 -1.3992  1.7868
63022SOL    HW295672   8.588   5.053  10.899  0.7194 -1.6613 -0.7995
63023SOL     OW95673   1.144   2.481   9.647 -0.2006  0.1239 -0.3915
63023SOL    HW195674   1.098   2.498   9.729  1.1962  0.7371  0.3079
63023SOL    HW295675   1.075   2.466   9.582 -1.4186  2.6093  0.2427
63024SOL     OW95676  12.135   9.309   1.505  0.6086  0.6182 -0.1724
63024SOL    HW195677  12.131   9.235   1.566  1.3278  0.1829 -0.6393
63024SOL    HW295678  12.149   9.385   1.561  1.9671  0.1353  0.1715
63025SOL     OW95679   1.176   3.263  12.162  0.5902  0.4387  0.6611
63025SOL    HW195680   1.142   3.238  12.077 -0.3646  1.1755  0.8119
63025SOL    HW295681   1.266   3.228  12.164 -0.1418 -1.5908  0.2802
63026SOL     OW95682   2.615   0.830  10.256  0.3516 -0.3854  0.6588
63026SOL    HW195683   2.685   0.854  10.316  2.0959 -0.6606 -1.1382
63026SOL    HW295684   2.534   0.841  10.306  1.7541 -1.9378  3.4644
63027SOL     OW95685   9.244  12.384   6.538  0.5477  0.2147  0.3382
63027SOL    HW195686   9.197  12.301   6.552 -0.5726  1.0797  2.0566
63027SOL    HW295687   9.201  12.424   6.463  0.6209 -0.4247 -0.0500
63028SOL     OW95688  10.238   7.448   3.133 -0.0219 -0.4393 -0.3291
63028SOL    HW195689  10.231   7.361   3.172 -1.1154  0.0012  0.5368
63028SOL    HW295690  10.154   7.460   3.087 -0.3330  0.5544  0.4611
63029SOL     OW95691   9.130   9.514   3.921  0.7222 -0.0146 -0.0692
63029SOL    HW195692   9.122   9.495   4.014  3.5000 -0.1518  0.2426
63029SOL    HW295693   9.050   9.479   3.882 -0.5414  0.0939  2.2300
63030SOL     OW95694  11.778   1.826  10.104 -0.7503 -0.1026  0.0261
63030SOL    HW195695  11.754   1.738  10.075 -0.4203 -0.8360  1.8457
63030SOL    HW295696  11.712   1.850  10.169 -0.7894  0.9772 -0.3831
63031SOL     OW95697   4.142   4.527   5.439 -0.2236 -0.3599  0.5870
63031SOL    HW195698   4.193   4.587   5.385 -0.7320  0.6829  1.2369
63031SOL    HW295699   4.189   4.523   5.522  0.1054 -1.3210  0.3783
63032SOL     OW95700   5.268  10.013   1.892  0.4161  0.6470 -0.3126
63032SOL    HW195701   5.353  10.001   1.933 -0.3847  1.6853  1.8191
63032SOL    HW295702   5.274   9.967   1.809  3.4420  1.6933 -0.7858
63033SOL     OW95703   1.739   3.350   3.560 -0.4614  0.2015 -0.5414
63033SOL    HW195704   1.654   3.308   3.544 -1.8314  1.4275  2.7437
63033SOL    HW295705   1.730   3.390   3.646  3.9314 -0.6819  0.5335
63034SOL     OW95706   1.120   6.627   0.095  0.5420  0.0597  0.2863
63034SOL    HW195707   1.172   6.685   0.039 -0.1279  0.7143  0.3265
63034SOL    HW295708   1.078   6.685   0.158 -0.3384 -0.4353  0.1771
63035SOL     OW95709   1.681   2.999   1.184  0.0627 -0.4249 -0.2389
63035SOL    HW195710   1.716   2.937   1.248  0.5891 -0.9985 -1.0586
63035SOL    HW295711   1.596   3.025   1.219  0.0806 -1.1908  0.3920
63036SOL     OW95712  12.118   2.315   8.195 -0.2104  0.1815  0.0049
63036SOL    HW195713  12.117   2.342   8.287  0.6804  0.7343 -0.1414
63036SOL    HW295714  12.210   2.304   8.173 -0.4459 -4.1489  0.3383
63037SOL     OW95715   8.352   8.689  10.115  0.3223  0.2087 -0.7127
63037SOL    HW195716   8.318   8.698  10.204  0.9090 -2.1245 -0.1879
63037SOL    HW295717   8.275   8.670  10.062  0.0785  0.7929 -0.5793
63038SOL     OW95718   6.453  12.069   1.778  0.5137  0.1504 -0.1384
63038SOL    HW195719   6.454  12.123   1.699 -0.9300 -0.8615 -0.8811
63038SOL    HW295720   6.361  12.066   1.805  0.4819 -2.1221 -0.2875
63039SOL     OW95721  12.563   0.270   3.909 -0.0744 -0.2845  0.1123
63039SOL    HW195722  12.570   0.178   3.936  0.8517 -1.1029 -2.6334
63039SOL    HW295723  12.486   0.302   3.956 -0.8615 -2.6599  0.6022
63040SOL     OW95724   0.686   5.946  10.837  0.0593 -0.2052  0.5462
63040SOL    HW195725   0.671   5.888  10.762 -0.1545 -1.6042  1.6195
63040SOL    HW295726   0.779   5.938  10.855  0.3348  1.0156 -0.2384
63041SOL     OW95727   3.007   9.801   5.920 -0.6534  0.6209 -0.0762
63041SOL    HW195728   2.951   9.812   5.843 -1.1294 -0.6906  0.0484
63041SOL    HW295729   3.073   9.737   5.893 -0.0014  1.1606  0.1987
63042SOL     OW95730   3.856   9.269   6.462 -0.2585  0.4465 -0.3338
63042SOL    HW195731   3.951   9.268   6.477  0.1114  0.6863 -2.4236
63042SOL    HW295732   3.819   9.231   6.542  1.5668  0.6671  0.6660
63043SOL     OW95733   4.438  12.415  10.093 -0.1349 -0.1910  0.2486
63043SOL    HW195734   4.533  12.405  10.096 -0.2143 -2.5565 -1.9232
63043SOL    HW295735   4.421  12.468  10.016 -0.6004 -1.2261 -0.3882
63044SOL     OW95736   3.324   6.019   7.118 -0.0034  0.1827 -0.3311
63044SOL    HW195737   3.253   6.002   7.056 -0.4207  0.7123  0.0036
63044SOL    HW295738   3.296   5.977   7.199  0.7414 -0.8937 -0.5991
63045SOL     OW95739   7.436   4.962   2.061  0.3965 -0.6939  0.4208
63045SOL    HW195740   7.507   5.006   2.107  0.6600 -1.2305  0.5396
63045SOL    HW295741   7.479   4.919   1.987 -0.0270  0.2086 -0.3738
63046SOL     OW95742   1.304   5.508  10.912  0.3566  0.3279 -0.3395
63046SOL    HW195743   1.345   5.478  10.993  1.6059 -0.4736 -1.2256
63046SOL    HW295744   1.256   5.432  10.879 -1.0106  0.9527  0.1448
63047SOL     OW95745   6.696   1.814   6.678 -0.0177 -0.0708  0.0822
63047SOL    HW195746   6.771   1.828   6.621 -1.0627 -0.4230 -1.4393
63047SOL    HW295747   6.694   1.891   6.735  1.4874 -0.0689  0.1679
63048SOL     OW95748   6.520  11.446   5.827 -0.1134 -0.0921  0.0499
63048SOL    HW195749   6.541  11.512   5.894 -0.4914 -0.6005  0.6791
63048SOL    HW295750   6.570  11.369   5.853  1.8307  0.4824 -1.7347
63049SOL     OW95751   1.790   0.406   6.769  0.1244 -0.4954  0.7636
63049SOL    HW195752   1.885   0.405   6.759 -0.0712 -1.6329 -1.5529
63049SOL    HW295753   1.767   0.314   6.782 -0.6858 -0.2778  0.8807
63050SOL     OW95754   1.638   8.703  12.361  0.0876 -0.3440  0.5660
63050SOL    HW195755   1.668   8.790  12.388  0.4560 -0.2885 -0.0033
63050SOL    HW295756   1.597   8.667  12.439  0.6399  0.0281  1.0404
63051SOL     OW95757   3.367   3.551   3.022 -0.0573  0.5597 -0.2322
63051SOL    HW195758   3.367   3.632   2.970 -1.2692  1.0976  0.5736
63051SOL    HW295759   3.311   3.571   3.096 -1.9253 -1.6560 -0.9600
63052SOL     OW95760  11.171   8.024   2.496 -0.6715  0.1501 -0.5882
63052SOL    HW195761  11.204   8.037   2.407 -2.3465  0.5286 -1.1841
63052SOL    HW295762  11.193   8.105   2.543  0.7600 -0.2913 -0.4509
63053SOL     OW95763  10.178   1.579   3.252  0.7841 -0.0494 -0.0620
63053SOL    HW195764  10.195   1.501   3.306 -1.3995 -0.3948  0.2378
63053SOL    HW295765  10.093   1.610   3.283 -0.0695  0.3497 -2.6109
63054SOL     OW95766  12.275   4.196  12.294 -0.4225  0.0702 -0.7708
63054SOL    HW195767  12.250   4.283  12.262 -0.8847  0.4122  0.4700
63054SOL    HW295768  12.198   4.165  12.342  0.7503  0.2684  1.3730
63055SOL     OW95769   7.999  11.418  11.308 -0.2234  0.0487  0.1732
63055SOL    HW195770   7.927  11.360  11.284 -0.1594 -0.2867  0.7631
63055SOL    HW295771   7.957  11.498  11.337 -0.3322  0.1021 -0.1255
63056SOL     OW95772   9.137  12.628   3.551  0.2403 -0.2566 -0.1185
63056SOL    HW195773   9.107  12.719   3.555  0.2608 -0.1963 -0.9990
63056SOL    HW295774   9.141  12.609   3.457 -0.6198 -1.4454  0.0609
63057SOL     OW95775   8.938  12.100   7.331  0.1229 -0.0760 -0.0841
63057SOL    HW195776   8.954  12.083   7.424 -0.6414  0.8056  0.2276
63057SOL    HW295777   8.867  12.040   7.308  0.1376 -0.1166 -0.0234
63058SOL     OW95778   2.347   5.855   3.290  0.1194 -0.0587  0.3545
63058SOL    HW195779   2.259   5.866   3.255  0.3580  1.8758  0.2580
63058SOL    HW295780   2.335   5.813   3.375 -0.9465  0.8893  0.6768
63059SOL     OW95781  11.132   8.395  11.680  0.6618 -0.5609  0.0729
63059SOL    HW195782  11.168   8.308  11.666 -0.6491 -1.0843 -0.1579
63059SOL    HW295783  11.097   8.421  11.594 -0.7156 -0.6507  0.5805
63060SOL     OW95784   5.432   7.275   3.840 -0.1418 -0.2162 -0.3437
63060SOL    HW195785   5.386   7.191   3.846  0.6688 -0.6401  0.1090
63060SOL    HW295786   5.516   7.253   3.800  0.6672  0.1151  1.0964
63061SOL     OW95787   8.695  12.009  12.781  0.6434  0.0701  0.1621
63061SOL    HW195788   8.700  12.101  12.753  1.0752 -0.3400 -1.2196
63061SOL    HW295789   8.624  12.007  12.845  0.1642  1.2516 -0.3005
63062SOL     OW95790   5.078   1.879  12.644 -0.5907 -0.2670 -0.5025
63062SOL    HW195791   5.019   1.906  12.715 -1.4422  1.2518 -1.7204
63062SOL    HW295792   5.021   1.836  12.580  0.0336 -0.8839 -0.6601
63063SOL     OW95793   6.433   2.212   2.122  0.4769  0.4835 -0.1271
63063SOL    HW195794   6.519   2.241   2.092  0.4110  1.0712  0.2281
63063SOL    HW295795   6.375   2.225   2.046  0.5791  0.6976 -0.1708
63064SOL     OW95796  11.127  11.225   3.886  0.2049 -0.1902  0.5739
63064SOL    HW195797  11.071  11.171   3.830  2.1115  0.4013 -2.1246
63064SOL    HW295798  11.066  11.286   3.929 -1.3622 -0.2975 -1.3444
63065SOL     OW95799   0.732   3.142   4.765 -0.4961 -0.3717  0.0012
63065SOL    HW195800   0.777   3.065   4.800 -1.5163 -0.7798  0.4536
63065SOL    HW295801   0.665   3.106   4.706  0.2900  0.2516 -1.3122
63066SOL     OW95802  11.971   6.418   2.862  0.2482  0.0833 -0.1729
63066SOL    HW195803  12.019   6.396   2.941  1.4810  0.7109 -0.7187
63066SOL    HW295804  12.004   6.505   2.837 -0.1137 -0.1005 -1.3590
63067SOL     OW95805  10.223   9.016   1.014 -0.5759 -0.7276  0.0658
63067SOL    HW195806  10.287   9.068   1.061 -1.5373  1.0873 -0.5330
63067SOL    HW295807  10.222   8.932   1.060  0.4790  0.0297  1.5671
63068SOL     OW95808  12.362   3.839   6.545  0.0522 -0.0350  0.0317
63068SOL    HW195809  12.389   3.841   6.453 -0.0996 -0.9300 -0.0370
63068SOL    HW295810  12.339   3.930   6.565 -1.2471 -0.0470 -1.2263
63069SOL     OW95811   4.060   9.124   0.025 -1.0676  0.5664  0.0495
63069SOL    HW195812   4.065   9.090  -0.065 -1.4086 -3.3736  1.3139
63069SOL    HW295813   3.972   9.100   0.054 -0.7956  1.3342  1.5792
63070SOL     OW95814  12.049   1.725  10.081 -0.3641 -0.2779 -0.5684
63070SOL    HW195815  11.958   1.755  10.078 -0.8175 -1.5088  0.1955
63070SOL    HW295816  12.072   1.712   9.989 -0.2808  1.8826 -0.9226
63071SOL     OW95817   3.171   1.972   7.404  0.7946 -0.0308 -0.8796
63071SOL    HW195818   3.109   1.927   7.346 -0.0760  1.4825 -1.1589
63071SOL    HW295819   3.216   2.035   7.348 -0.0237  1.4264  0.0637
63072SOL     OW95820  12.275   8.763   3.719  0.0830 -0.2653  0.3850
63072SOL    HW195821  12.305   8.778   3.809  1.2016  0.5636 -0.1014
63072SOL    HW295822  12.294   8.671   3.703  1.2203 -0.0742  0.5334
63073SOL     OW95823   6.072   6.479   5.367  0.0454  0.1280  0.2331
63073SOL    HW195824   6.005   6.426   5.326  0.7305 -1.0220  0.5666
63073SOL    HW295825   6.110   6.424   5.435  0.3988  1.2369  0.9739
63074SOL     OW95826   6.907   6.240   3.652  0.4078 -0.0552  0.3915
63074SOL    HW195827   6.940   6.242   3.562  0.6693 -0.0315  0.4868
63074SOL    HW295828   6.924   6.151   3.682  1.9648  0.4208  1.0180
63075SOL     OW95829   3.576   4.007  12.078  0.4920  0.1124 -0.3088
63075SOL    HW195830   3.536   4.094  12.068  1.3765  0.5953  0.1799
63075SOL    HW295831   3.662   4.025  12.117  1.5599 -0.7950 -2.1040
63076SOL     OW95832   6.294   4.056  12.700  0.6161  0.3665  0.1738
63076SOL    HW195833   6.333   3.972  12.674 -3.2994 -1.6681  0.0278
63076SOL    HW295834   6.253   4.088  12.619 -0.3073  0.9531  0.8665
63077SOL     OW95835  10.414   7.675   4.086  0.0374 -0.0059 -0.3804
63077SOL    HW195836  10.344   7.739   4.080  1.0091  1.1638  0.2614
63077SOL    HW295837  10.449   7.669   3.997  0.5776  1.1351 -0.2669
63078SOL     OW95838   9.547  11.253   1.787 -0.9438  0.2615 -1.0623
63078SOL    HW195839   9.498  11.246   1.869 -1.3740 -0.5050 -1.3684
63078SOL    HW295840   9.611  11.181   1.792  1.0354  1.9915 -0.1139
63079SOL     OW95841   6.481   7.374   2.195 -0.2251 -0.1055  0.0888
63079SOL    HW195842   6.400   7.350   2.241 -0.0101  1.7775  1.5748
63079SOL    HW295843   6.548   7.374   2.263  0.5071  0.8374 -0.6083
63080SOL     OW95844   5.165   7.755  12.547  0.2569 -0.1323  0.0699
63080SOL    HW195845   5.153   7.680  12.605  0.2264  1.4021  2.1889
63080SOL    HW295846   5.227   7.724  12.480 -0.1468 -2.1607  0.5695
63081SOL     OW95847   0.333  11.362   3.175 -0.2388  0.3127  0.3423
63081SOL    HW195848   0.293  11.357   3.261 -2.8100 -1.5547 -0.8433
63081SOL    HW295849   0.269  11.406   3.120  1.1318  1.0107 -0.7862
63082SOL     OW95850   7.563   8.659  12.206 -0.0881 -0.7864 -0.2235
63082SOL    HW195851   7.537   8.574  12.241 -1.2634  0.0122  0.9773
63082SOL    HW295852   7.600   8.640  12.120  0.1237 -2.5448  0.2239
63083SOL     OW95853  10.515  11.002   3.033 -0.2345 -0.2614 -0.6590
63083SOL    HW195854  10.437  11.025   3.083  0.3935 -0.9133  0.6573
63083SOL    HW295855  10.588  11.029   3.088  0.4775 -0.6279 -1.4067
63084SOL     OW95856   1.167  11.922   7.850  0.3099  0.0558 -0.1400
63084SOL    HW195857   1.244  11.965   7.813 -0.6371  2.5148  0.5372
63084SOL    HW295858   1.125  11.880   7.775  0.3223  1.9284 -1.2538
63085SOL     OW95859   4.549   9.518   2.225  0.5327 -0.0791 -0.1178
63085SOL    HW195860   4.545   9.485   2.135 -0.5801 -1.6376  0.4631
63085SOL    HW295861   4.575   9.443   2.277 -0.1146  0.4753  1.0340
63086SOL     OW95862   4.909   2.197   7.440 -0.4009  0.3169  0.3877
63086SOL    HW195863   4.843   2.266   7.435 -0.1931  0.4504 -0.7639
63086SOL    HW295864   4.986   2.235   7.398  0.5303  0.2748  1.9639
63087SOL     OW95865  10.167   0.347   1.717 -0.6807  0.2877 -0.4943
63087SOL    HW195866  10.096   0.352   1.653  0.3802  0.4364 -1.7198
63087SOL    HW295867  10.161   0.428   1.767 -2.1228 -0.2680  0.2835
63088SOL     OW95868  11.630   5.132   0.043  0.5195 -0.2384 -0.2683
63088SOL    HW195869  11.668   5.169  -0.037  0.5283  0.1560 -0.0846
63088SOL    HW295870  11.537   5.124   0.023  0.2402  1.3921  0.2377
63089SOL     OW95871  11.749  10.240   5.271 -0.3448 -0.3222 -0.1132
63089SOL    HW195872  11.697  10.169   5.232 -0.8289 -0.1209  0.1659
63089SOL    HW295873  11.711  10.320   5.234  0.9809 -0.2412 -1.3874
63090SOL     OW95874   4.716   6.711   4.025 -0.0584 -0.1871  0.3717
63090SOL    HW195875   4.682   6.720   4.114 -0.7012  0.2537  0.0865
63090SOL    HW295876   4.775   6.785   4.014  2.1069 -1.6543  1.3260
63091SOL     OW95877  11.728  12.415   3.579  0.5812 -0.2025  0.3717
63091SOL    HW195878  11.702  12.382   3.492  0.9738 -1.1605  0.5987
63091SOL    HW295879  11.807  12.365   3.600  0.6476  0.2269  1.1623
63092SOL     OW95880   2.611   3.098   3.985 -0.2081 -0.6621  0.0214
63092SOL    HW195881   2.637   3.006   3.992 -1.6529 -1.0796  0.2220
63092SOL    HW295882   2.542   3.099   3.919  1.6667  0.7269 -2.0362
63093SOL     OW95883   9.767   4.873   1.998  0.1377  0.2958  0.4410
63093SOL    HW195884   9.838   4.935   2.015  1.5272 -0.9951 -0.4434
63093SOL    HW295885   9.718   4.913   1.925  0.4694  0.7809  0.4785
63094SOL     OW95886   3.047  11.547   9.109 -0.0985  0.1380  0.0174
63094SOL    HW195887   3.045  11.453   9.090 -0.5416  0.3056 -0.8248
63094SOL    HW295888   3.087  11.586   9.032 -1.4682  0.7948 -0.3885
63095SOL     OW95889   5.615   8.863   7.769  0.0880 -0.1560  0.0670
63095SOL    HW195890   5.566   8.781   7.769 -0.8732  0.3508 -2.0774
63095SOL    HW295891   5.612   8.893   7.860 -0.5024 -1.9281  0.6677
63096SOL     OW95892   8.496   7.996  10.551  0.0727  0.2774  0.6519
63096SOL    HW195893   8.586   8.027  10.559 -0.0053  0.6695  0.0694
63096SOL    HW295894   8.504   7.903  10.531  0.3591  0.4047  0.1675
63097SOL     OW95895   8.865   8.717   0.840 -0.0471 -0.1775  0.6479
63097SOL    HW195896   8.870   8.786   0.906  0.1062  1.4747 -0.9900
63097SOL    HW295897   8.778   8.679   0.851 -0.1715  0.3444  1.5366
63098SOL     OW95898   5.180   1.836   3.655 -0.3141 -0.5559  0.1241
63098SOL    HW195899   5.147   1.861   3.569  0.3865  0.3868  0.1052
63098SOL    HW295900   5.170   1.916   3.708  3.2200  0.3246 -0.2882
63099SOL     OW95901   1.138   4.406   8.873 -0.2708  0.1512  0.6633
63099SOL    HW195902   1.116   4.389   8.781  1.8110 -0.1189  0.1433
63099SOL    HW295903   1.231   4.431   8.871 -0.8620  2.9875  2.4024
63100SOL     OW95904   5.866   5.512   2.293  0.0001  0.2441  0.1051
63100SOL    HW195905   5.904   5.598   2.276 -0.1403  0.0674 -1.2277
63100SOL    HW295906   5.799   5.529   2.360 -0.9267  1.4320 -1.0462
63101SOL     OW95907   7.050   6.942   6.445  0.1196 -0.5343 -0.2275
63101SOL    HW195908   6.966   6.976   6.475 -0.3110  0.3949 -2.3022
63101SOL    HW295909   7.100   7.020   6.419  1.8744 -1.0113  1.4295
63102SOL     OW95910  11.718   1.463   3.422  0.9546  0.0507 -0.1809
63102SOL    HW195911  11.717   1.557   3.404 -0.6703 -0.3691 -2.9312
63102SOL    HW295912  11.631   1.445   3.459  0.4244 -0.6297 -1.6834
63103SOL     OW95913   9.782   2.164   5.529  0.0837 -0.1779 -0.5317
63103SOL    HW195914   9.700   2.133   5.567 -0.2726  0.1774 -1.0010
63103SOL    HW295915   9.818   2.088   5.484  0.3247 -0.5016  0.1857
63104SOL     OW95916  11.496   3.971   9.697 -0.0497 -0.4412  0.6718
63104SOL    HW195917  11.585   3.983   9.729 -0.0680  0.9111  0.2838
63104SOL    HW295918  11.507   3.945   9.605 -0.0053  2.3876 -0.2300
63105SOL     OW95919   9.618   2.957   0.756 -0.0747 -0.2813 -0.4039
63105SOL    HW195920   9.669   2.995   0.828  0.2350 -0.0465 -0.7402
63105SOL    HW295921   9.664   2.986   0.677  0.9704 -2.4589 -0.6787
63106SOL     OW95922   9.397   2.384   9.198 -0.2450 -0.3826  0.1098
63106SOL    HW195923   9.372   2.326   9.126 -0.9402 -1.5417  1.2618
63106SOL    HW295924   9.493   2.385   9.195 -0.1859 -2.1659  0.4913
63107SOL     OW95925   9.775   8.962   5.688  0.5879 -0.2417  0.0227
63107SOL    HW195926   9.840   8.902   5.651  0.7472  0.4778 -0.9106
63107SOL    HW295927   9.827   9.037   5.718  0.4818 -0.8849  1.9204
63108SOL     OW95928   3.661  10.313   6.428 -0.1280  0.1711  0.0328
63108SOL    HW195929   3.680  10.313   6.522 -0.8052 -0.3772  0.1775
63108SOL    HW295930   3.721  10.378   6.392  1.0447 -0.5144  0.6636
63109SOL     OW95931   0.539   3.596   9.387  0.1942 -0.2098  0.0814
63109SOL    HW195932   0.601   3.665   9.363 -0.0700  0.2445  0.6872
63109SOL    HW295933   0.519   3.613   9.479 -1.0010 -0.2241 -0.1630
63110SOL     OW95934  11.350   3.154   9.148  0.9588  1.0309  0.0434
63110SOL    HW195935  11.325   3.244   9.165 -1.6686  0.2878  0.5470
63110SOL    HW295936  11.369   3.118   9.235 -0.3653  0.5059  0.1409
63111SOL     OW95937  11.311   6.710  12.616  0.0189  0.5544 -0.4803
63111SOL    HW195938  11.311   6.626  12.572  2.1675 -0.6204  1.5340
63111SOL    HW295939  11.273   6.693  12.702  0.0436  1.7597 -0.2054
63112SOL     OW95940   8.776   3.816   8.856 -0.3509 -0.3329 -0.2276
63112SOL    HW195941   8.824   3.881   8.806 -0.2495 -0.2302 -0.0002
63112SOL    HW295942   8.741   3.864   8.931  1.2403 -0.8657  0.9335
63113SOL     OW95943   8.791   0.235   5.444  0.2071 -0.0410 -0.1737
63113SOL    HW195944   8.763   0.307   5.502  0.2190 -0.5145  0.4343
63113SOL    HW295945   8.825   0.169   5.504  1.3284 -0.0601 -0.8158
63114SOL     OW95946  11.862   0.232  12.528 -0.7656  0.6002  0.1038
63114SOL    HW195947  11.828   0.272  12.608 -2.3748 -0.7303  0.1238
63114SOL    HW295948  11.844   0.297  12.460  1.8260  2.3442  0.9181
63115SOL     OW95949   0.443   6.331  11.215  0.2671  0.7299 -0.2685
63115SOL    HW195950   0.355   6.341  11.251 -0.7687 -1.5198 -1.9048
63115SOL    HW295951   0.487   6.270  11.274  0.0289  0.3498 -0.4755
63116SOL     OW95952   7.988   1.597   9.187 -0.5988  0.1181  0.6589
63116SOL    HW195953   8.055   1.629   9.248  0.4947 -0.0822 -0.4074
63116SOL    HW295954   7.989   1.502   9.198 -1.8039  0.1989  1.7268
63117SOL     OW95955   6.629   0.681   9.303  0.1932  0.9835 -0.8662
63117SOL    HW195956   6.568   0.740   9.348 -1.1200  0.7302 -2.2193
63117SOL    HW295957   6.593   0.673   9.215  0.3281 -1.8318 -0.7400
63118SOL     OW95958   1.811   6.730   9.690  0.1014 -0.5773  0.0153
63118SOL    HW195959   1.899   6.692   9.693  0.2260 -0.2892  0.0363
63118SOL    HW295960   1.826   6.825   9.691 -0.2451 -0.5080  1.4073
63119SOL     OW95961  12.131   8.796  11.945 -0.7474  0.4522  0.3137
63119SOL    HW195962  12.080   8.830  11.871 -0.4209 -0.1975 -0.2140
63119SOL    HW295963  12.145   8.704  11.925  2.5012  1.0352 -0.6538
63120SOL     OW95964   9.111  12.347  12.616 -0.2252  0.0738  0.0135
63120SOL    HW195965   9.082  12.270  12.567 -0.0946 -0.5098  0.8360
63120SOL    HW295966   9.048  12.354  12.689 -0.7021  1.2101 -0.4913
63121SOL     OW95967   8.929   9.852   0.503  0.0258 -0.2757 -0.0491
63121SOL    HW195968   8.846   9.855   0.455  0.2398  0.4939 -0.3808
63121SOL    HW295969   8.955   9.760   0.500  0.0590 -0.2370 -1.4586
63122SOL     OW95970   3.287  11.478   6.640 -0.4410  0.2044 -0.2704
63122SOL    HW195971   3.324  11.546   6.696  0.4561  0.3167 -0.9866
63122SOL    HW295972   3.342  11.401   6.657 -1.9203 -0.5945  1.1200
63123SOL     OW95973   2.664  11.798   1.207 -0.0236 -0.6456 -0.0199
63123SOL    HW195974   2.579  11.802   1.164 -0.8450  0.5328  1.6128
63123SOL    HW295975   2.720  11.854   1.154 -0.8907  0.4051  0.1315
63124SOL     OW95976   7.753   8.360   1.188 -0.3432 -0.0791  0.5517
63124SOL    HW195977   7.729   8.436   1.241 -1.0608 -1.7205  2.7544
63124SOL    HW295978   7.846   8.347   1.205 -0.5886 -0.6535  1.5787
63125SOL     OW95979   6.312  11.083   7.189 -0.8711 -0.2586  0.7663
63125SOL    HW195980   6.286  11.000   7.227 -0.0471 -0.8453  0.0882
63125SOL    HW295981   6.362  11.126   7.258  0.8812 -1.4502  0.3131
63126SOL     OW95982   8.568   7.607   5.206 -0.1471  0.2772 -0.1812
63126SOL    HW195983   8.507   7.663   5.252 -0.1057  1.1033 -1.0991
63126SOL    HW295984   8.591   7.656   5.126  0.2512 -0.8299 -0.7727
63127SOL     OW95985  10.414  11.248   7.036  0.6992  0.3076  0.4330
63127SOL    HW195986  10.352  11.273   6.967 -2.0818 -2.9980  1.4249
63127SOL    HW295987  10.417  11.323   7.095  0.3576  1.8477 -1.4194
63128SOL     OW95988   0.721   3.904  10.979  0.0385  0.9610 -0.2614
63128SOL    HW195989   0.682   3.991  10.983  1.4511  1.5988  0.4857
63128SOL    HW295990   0.810   3.919  10.946 -0.8961 -0.6960 -4.0428
63129SOL     OW95991   2.087  10.893  11.185 -0.5747 -0.0565 -0.5491
63129SOL    HW195992   2.168  10.867  11.140 -0.5812 -0.8167 -0.1261
63129SOL    HW295993   2.032  10.815  11.182 -0.5601 -0.1338  0.8159
63130SOL     OW95994   6.057   7.017   1.302 -0.0365  0.6341 -0.1632
63130SOL    HW195995   6.023   7.046   1.217  0.2378 -1.1009 -0.8997
63130SOL    HW295996   6.014   7.074   1.366 -1.5502  0.8557 -1.3343
63131SOL     OW95997  12.097   9.875   5.670 -0.3668 -0.1119  1.0601
63131SOL    HW195998  12.174   9.854   5.617 -0.6195  0.1371  0.5844
63131SOL    HW295999  12.075   9.965   5.645 -0.7330 -0.1372  1.2850
63132SOL     OW96000   2.719   2.464   6.343 -0.3986  0.1018  0.5946
63132SOL    HW196001   2.758   2.543   6.303  0.4891 -1.0254 -0.8716
63132SOL    HW296002   2.791   2.401   6.346 -1.3654 -1.0239  0.7480
63133SOL     OW96003  11.303  10.310  11.423 -0.3251 -0.0441 -0.0840
63133SOL    HW196004  11.328  10.266  11.505  1.3082  0.2385 -0.3922
63133SOL    HW296005  11.326  10.401  11.437 -0.5766  0.1120 -0.6601
63134SOL     OW96006   3.784  10.222   3.953  0.0302  0.3508  0.4284
63134SOL    HW196007   3.849  10.286   3.925  0.7922 -0.4038  0.4243
63134SOL    HW296008   3.702  10.271   3.957  0.6548  1.4012  0.7705
63135SOL     OW96009  10.129  11.577   4.280 -0.5022 -0.2234 -0.1056
63135SOL    HW196010  10.046  11.565   4.326 -0.0498 -2.2077  0.2710
63135SOL    HW296011  10.192  11.595   4.350 -0.6058  1.4000 -0.4023
63136SOL     OW96012   3.890   1.435   1.247  0.2446 -0.3731  0.2366
63136SOL    HW196013   3.931   1.427   1.333  1.8151 -0.8685 -0.5058
63136SOL    HW296014   3.917   1.356   1.200 -1.8277 -0.8559 -0.2465
63137SOL     OW96015   5.085   9.391   3.758  0.4300  0.1200  0.0268
63137SOL    HW196016   5.078   9.425   3.847  1.0657  0.1591  0.0667
63137SOL    HW296017   4.998   9.358   3.738  0.0090  1.0432  0.2843
63138SOL     OW96018   3.919   6.508  10.648 -0.1279  0.0373  0.0700
63138SOL    HW196019   3.824   6.498  10.647  0.1048 -4.2777 -0.5391
63138SOL    HW296020   3.943   6.511  10.741 -0.8012 -1.2481  0.3103
63139SOL     OW96021   4.703   8.284   1.716 -0.3490 -0.2927  0.0743
63139SOL    HW196022   4.690   8.378   1.700  0.7436  0.0673  1.1699
63139SOL    HW296023   4.627   8.259   1.770  0.2874  0.3955  1.3171
63140SOL     OW96024   7.280   7.332   1.348 -0.0818  0.1518  0.4661
63140SOL    HW196025   7.256   7.394   1.279  0.6368  1.8561  1.6698
63140SOL    HW296026   7.197   7.308   1.389 -0.4028  0.0337 -0.2425
63141SOL     OW96027   6.003   4.045   2.559  0.3736 -0.6828  0.6912
63141SOL    HW196028   5.939   4.066   2.491  0.1446  0.0231  1.1152
63141SOL    HW296029   6.025   4.130   2.598  0.6318 -1.0633  1.3863
63142SOL     OW96030   2.446   0.616   1.899  0.7021  0.2064 -0.0586
63142SOL    HW196031   2.452   0.706   1.868 -2.4311  0.2808 -0.7526
63142SOL    HW296032   2.462   0.563   1.821 -1.5243  0.3149 -0.6705
63143SOL     OW96033   4.963  12.594   4.706 -0.1668  0.9772  0.0089
63143SOL    HW196034   4.900  12.604   4.778  0.0649  1.3934  0.1601
63143SOL    HW296035   5.028  12.663   4.722  0.4818  0.3728  0.0221
63144SOL     OW96036   8.256  12.427  11.001  0.1226  0.1384  0.7308
63144SOL    HW196037   8.316  12.415  11.075  1.3443 -2.3746 -0.5541
63144SOL    HW296038   8.207  12.345  10.997 -1.4636  1.0762  0.0161
63145SOL     OW96039   0.881  10.318  11.869 -0.3190 -0.2252 -0.1440
63145SOL    HW196040   0.893  10.298  11.962  0.3771  2.6851  0.4905
63145SOL    HW296041   0.964  10.295  11.828  0.1962  0.6337  0.4028
63146SOL     OW96042   5.765   9.648   9.699 -0.3719 -0.4643  0.2578
63146SOL    HW196043   5.729   9.639   9.787 -1.1157  0.3855  0.0554
63146SOL    HW296044   5.782   9.558   9.671 -0.4732 -0.7620  1.1204
63147SOL     OW96045   8.852   1.419   8.998  0.1748 -0.2965 -0.2359
63147SOL    HW196046   8.796   1.494   8.980 -0.0854 -0.2389  0.7258
63147SOL    HW296047   8.792   1.345   9.010  0.3674 -0.4667 -0.3090
63148SOL     OW96048   9.475  11.469   7.342  0.0119 -0.1494  0.6718
63148SOL    HW196049   9.467  11.420   7.424  0.2077  0.0848  0.8329
63148SOL    HW296050   9.505  11.555   7.369 -0.3418  0.0660  0.3913
63149SOL     OW96051   7.574   8.478   7.954  0.5693 -0.1412  0.0877
63149SOL    HW196052   7.514   8.541   7.995  0.8970  0.6406 -0.6215
63149SOL    HW296053   7.547   8.476   7.862 -0.0601 -1.7691  0.2661
63150SOL     OW96054   7.673   0.196   4.951 -0.2940  0.1748 -0.0481
63150SOL    HW196055   7.580   0.206   4.930 -0.0559  0.3423 -1.0402
63150SOL    HW296056   7.688   0.259   5.022 -0.7351  0.7827 -0.4824
63151SOL     OW96057   9.922   5.691   9.833  0.3426 -0.9361  0.3701
63151SOL    HW196058   9.880   5.659   9.753 -1.4816  2.0111 -0.0176
63151SOL    HW296059   9.903   5.624   9.899 -2.5665 -1.1177 -0.5148
63152SOL     OW96060   5.575   7.685   0.452 -0.4123  0.1064 -0.2758
63152SOL    HW196061   5.499   7.684   0.511 -0.9915  0.5472 -1.0046
63152SOL    HW296062   5.595   7.778   0.441  0.0393  0.0050 -0.3519
63153SOL     OW96063   7.080   7.136   6.907 -0.4040  0.6684  0.0720
63153SOL    HW196064   7.099   7.211   6.851  0.1824  0.1921 -0.3888
63153SOL    HW296065   7.095   7.060   6.851 -1.1982  0.2057  0.4715
63154SOL     OW96066   8.947  11.816   9.214  0.1065 -0.3585  0.3784
63154SOL    HW196067   8.963  11.722   9.220  0.8800 -0.2061  0.7597
63154SOL    HW296068   8.926  11.831   9.122  0.3349 -0.8474  0.2436
63155SOL     OW96069   7.503   6.305  12.285 -0.1455 -0.9485 -0.3182
63155SOL    HW196070   7.580   6.326  12.234  0.4765  0.2699  1.0665
63155SOL    HW296071   7.429   6.339  12.234  0.3880 -0.4928 -0.7881
63156SOL     OW96072   7.929   1.224   8.284 -0.3678 -0.4920  0.2231
63156SOL    HW196073   7.888   1.310   8.279  0.0509 -0.2363  1.0568
63156SOL    HW296074   7.864   1.168   8.326 -0.1017 -0.2352  0.9834
63157SOL     OW96075   4.198   8.672   2.476  0.0955 -0.1355  0.0848
63157SOL    HW196076   4.108   8.641   2.483  0.6341 -1.6302  0.7635
63157SOL    HW296077   4.190   8.760   2.439 -1.6343 -0.2187  0.1752
63158SOL     OW96078   8.767   1.994  10.233 -0.1644 -0.0117  0.0046
63158SOL    HW196079   8.856   2.021  10.256 -0.0246  0.6521 -1.2597
63158SOL    HW296080   8.755   1.911  10.279  0.3547  0.8813  1.8640
63159SOL     OW96081  11.397   5.532   1.214 -0.4050 -0.3788  0.6298
63159SOL    HW196082  11.413   5.453   1.162 -1.7604 -0.1044 -0.2539
63159SOL    HW296083  11.478   5.583   1.205  0.5338 -1.6990  1.3172
63160SOL     OW96084   2.712   8.519   1.950  0.0209 -0.1137  0.4387
63160SOL    HW196085   2.683   8.603   1.986 -1.1050 -0.3810  0.1904
63160SOL    HW296086   2.663   8.510   1.868 -0.5107 -1.3825  0.8665
63161SOL     OW96087   1.914   0.756  10.045  0.4632 -0.5414 -0.0127
63161SOL    HW196088   1.925   0.662  10.061 -0.5870 -0.5926  0.5222
63161SOL    HW296089   1.875   0.790  10.125  0.0121  0.1882 -0.5197
63162SOL     OW96090   6.496   6.607   6.807 -0.8335 -0.9718 -0.4330
63162SOL    HW196091   6.578   6.608   6.756 -0.9335 -0.8408 -0.5917
63162SOL    HW296092   6.520   6.564   6.889  0.1825  1.8472  0.8596
63163SOL     OW96093   8.241   4.259   4.540  0.6376 -0.7924 -0.4104
63163SOL    HW196094   8.323   4.246   4.492  0.6662 -0.2554 -0.5076
63163SOL    HW296095   8.249   4.203   4.618  0.6624 -1.5337 -0.9301
63164SOL     OW96096   7.262   3.166   0.703  0.0846 -0.3997  0.0739
63164SOL    HW196097   7.188   3.227   0.704  1.2330  1.1357  2.5673
63164SOL    HW296098   7.314   3.193   0.627 -0.1801  0.7680  0.2900
63165SOL     OW96099   1.934  12.780   6.654 -0.4120 -0.1356 -0.4477
63165SOL    HW196100   1.943  12.737   6.568  0.4586  2.3933 -1.7072
63165SOL    HW296101   2.016  12.763   6.698 -0.4108 -0.4828 -0.5814
63166SOL     OW96102   8.285   8.898   3.162  0.0410 -0.2126  0.6982
63166SOL    HW196103   8.253   8.830   3.102 -0.5781  0.7668 -0.1171
63166SOL    HW296104   8.271   8.861   3.250 -0.6603 -0.9782  0.2798
63167SOL     OW96105  11.227  11.268   4.223  0.0340  0.5572 -0.1043
63167SOL    HW196106  11.280  11.304   4.152 -0.7289  1.6316 -0.1574
63167SOL    HW296107  11.210  11.343   4.280  0.2092 -0.1831  0.9565
63168SOL     OW96108   8.004   0.589   6.983  0.1052 -0.0185  0.0089
63168SOL    HW196109   7.953   0.564   7.060  1.7906 -1.0253  0.8560
63168SOL    HW296110   7.958   0.547   6.910 -0.3993 -0.7461  0.7197
63169SOL     OW96111   8.147   5.074   5.219  0.4444  0.4296  0.8676
63169SOL    HW196112   8.069   5.126   5.201 -0.7730 -1.4840  0.3023
63169SOL    HW296113   8.214   5.111   5.162 -1.4400 -0.9792 -2.5843
63170SOL     OW96114   7.293  11.653   3.971  0.5385 -0.3754  0.2844
63170SOL    HW196115   7.203  11.664   4.000 -0.1785 -2.1445 -1.0802
63170SOL    HW296116   7.291  11.677   3.878  1.0500 -2.1328 -0.2058
63171SOL     OW96117   1.325   0.969   2.819 -0.1724 -0.2528 -0.3381
63171SOL    HW196118   1.406   1.011   2.791 -0.7247  1.6391  0.7163
63171SOL    HW296119   1.261   0.992   2.752 -0.2643 -0.2219 -0.2401
63172SOL     OW96120  11.273  11.808   9.166  0.0416  0.5093  0.3947
63172SOL    HW196121  11.364  11.780   9.176 -0.2089 -0.6166 -0.3107
63172SOL    HW296122  11.277  11.879   9.102  0.4740  0.8080  0.7450
63173SOL     OW96123   3.437   1.918   6.613  0.0989 -0.4658  0.3839
63173SOL    HW196124   3.527   1.927   6.582 -0.0510 -1.4438 -0.3802
63173SOL    HW296125   3.444   1.877   6.699  0.3351 -2.2756 -0.4493
63174SOL     OW96126   0.793  11.724   2.334  0.0014  0.0604 -0.0272
63174SOL    HW196127   0.887  11.734   2.321  0.3791 -0.5676  1.9630
63174SOL    HW296128   0.778  11.629   2.331 -0.6328  0.1682 -0.6236
63175SOL     OW96129   2.738   2.774   7.902  0.6144 -0.4940  0.2316
63175SOL    HW196130   2.650   2.757   7.868  0.7642 -0.3481 -0.2350
63175SOL    HW296131   2.762   2.692   7.947  0.9248 -1.1773 -1.1230
63176SOL     OW96132   3.620   9.510  12.668 -0.2415  0.2624  0.4349
63176SOL    HW196133   3.530   9.538  12.650 -0.3140 -0.2858 -0.0552
63176SOL    HW296134   3.674   9.580  12.631 -0.4158 -0.3506 -1.0450
63177SOL     OW96135   5.833   0.806   7.960  0.4498 -0.5124  0.1373
63177SOL    HW196136   5.738   0.802   7.964  0.3954  0.2971 -0.1730
63177SOL    HW296137   5.851   0.867   7.889  1.2006 -0.2058  0.5871
63178SOL     OW96138   5.677   6.507  12.449 -0.1655 -0.7729 -0.5490
63178SOL    HW196139   5.755   6.542  12.406 -0.8939 -0.1163 -1.3799
63178SOL    HW296140   5.709   6.436  12.504  1.0782 -0.1946 -0.4982
63179SOL     OW96141   2.352  11.009  10.181  0.1230  0.5287 -0.3401
63179SOL    HW196142   2.287  10.939  10.188  1.6141 -0.7726  1.2625
63179SOL    HW296143   2.313  11.082  10.229 -0.9526  0.4192 -1.0163
63180SOL     OW96144   8.361  12.583  12.254 -0.1303 -0.4447  0.0401
63180SOL    HW196145   8.413  12.509  12.285 -0.8686 -0.4971  1.1711
63180SOL    HW296146   8.337  12.559  12.164 -0.7446 -1.7942  0.5388
63181SOL     OW96147   4.254   0.179   3.332  0.0102  0.3450  0.5928
63181SOL    HW196148   4.320   0.204   3.267 -0.5271  1.1116  0.3238
63181SOL    HW296149   4.303   0.168   3.413  0.4102  1.4463  0.5170
63182SOL     OW96150   9.673   9.880  10.865  0.1898 -0.5237 -0.2057
63182SOL    HW196151   9.729   9.820  10.815  0.7852 -0.0382 -0.1401
63182SOL    HW296152   9.596   9.894  10.809  1.0739  0.4172 -1.2578
63183SOL     OW96153   2.250  10.628  12.219 -0.2734 -0.3519  0.0010
63183SOL    HW196154   2.243  10.705  12.276 -0.1353  0.7173 -1.3465
63183SOL    HW296155   2.286  10.559  12.275  0.9406  0.9628  0.9289
63184SOL     OW96156   4.044   3.831   2.653 -0.2522 -0.3978 -0.0534
63184SOL    HW196157   4.028   3.768   2.724 -0.4406 -0.2889  0.0013
63184SOL    HW296158   4.059   3.776   2.576  0.7487 -0.5327  0.2293
63185SOL     OW96159   3.452   5.693   7.994  0.0312 -0.1370  0.4861
63185SOL    HW196160   3.429   5.721   8.082  0.3454 -0.0799  0.5496
63185SOL    HW296161   3.396   5.746   7.937 -0.4596 -0.4569  0.6615
63186SOL     OW96162   5.406   8.132   4.262  0.0465 -0.3113 -0.0374
63186SOL    HW196163   5.476   8.087   4.309 -0.1552 -1.8588 -1.1584
63186SOL    HW296164   5.449   8.174   4.188 -0.1400 -1.0143 -0.5578
63187SOL     OW96165   4.787  12.571   4.926  0.1159 -0.4149 -0.2010
63187SOL    HW196166   4.761  12.594   5.015  2.1049 -1.2284  0.6468
63187SOL    HW296167   4.840  12.492   4.937 -0.4306 -1.1117 -2.2333
63188SOL     OW96168   3.336   6.886   5.193 -1.2045  0.1589 -0.9436
63188SOL    HW196169   3.323   6.972   5.152 -1.5868  0.0833 -0.9871
63188SOL    HW296170   3.261   6.834   5.164 -0.9252 -0.2217 -0.9941
63189SOL     OW96171   0.913   2.236  12.730 -0.2117 -0.6759 -0.0793
63189SOL    HW196172   0.858   2.304  12.692  2.5001  1.7003 -0.1131
63189SOL    HW296173   0.930   2.266  12.819  0.1529 -1.9014  0.2867
63190SOL     OW96174   2.320  11.920   7.976  0.2003 -0.4145  0.5369
63190SOL    HW196175   2.283  11.943   8.061 -0.3844  1.2935 -0.1256
63190SOL    HW296176   2.244  11.918   7.917  0.7020 -0.6731 -0.1117
63191SOL     OW96177   5.845   8.379   1.124 -0.1185 -0.5698 -0.3405
63191SOL    HW196178   5.866   8.364   1.032  0.0951  0.5614 -0.4849
63191SOL    HW296179   5.800   8.463   1.126  1.2427  0.1901  0.7370
63192SOL     OW96180   7.820   1.502  12.782  0.4613 -0.4909  0.4778
63192SOL    HW196181   7.771   1.549  12.714  0.6227 -0.9043  0.0671
63192SOL    HW296182   7.808   1.554  12.861  0.1059 -0.1067  0.1745
63193SOL     OW96183   2.213   3.221  12.311 -0.1494 -0.2451  0.1070
63193SOL    HW196184   2.256   3.155  12.363  2.5621  1.8997  0.8103
63193SOL    HW296185   2.224   3.192  12.220  1.0944 -0.7238  0.3965
63194SOL     OW96186   3.317   1.771   3.665  0.5044  0.1354 -0.1212
63194SOL    HW196187   3.265   1.761   3.745  0.5676  1.2822  0.0856
63194SOL    HW296188   3.296   1.694   3.612 -0.1823 -0.2113  0.6418
63195SOL     OW96189  11.593   4.912  10.158  0.0906  0.3340  0.3502
63195SOL    HW196190  11.619   4.823  10.183 -0.4976  0.3396  1.0191
63195SOL    HW296191  11.625   4.923  10.069 -0.3232 -0.7540  0.0562
63196SOL     OW96192  12.557  12.204   7.980  0.1256 -0.2588  0.1478
63196SOL    HW196193  12.580  12.173   8.068 -2.8637 -2.3989  0.3027
63196SOL    HW296194  12.503  12.281   7.995  0.3740 -0.0825  0.1384
63197SOL     OW96195   8.924   1.707  12.306 -0.4378 -0.3854  0.0851
63197SOL    HW196196   8.929   1.631  12.364 -2.3531 -2.1961 -1.8988
63197SOL    HW296197   8.902   1.780  12.364  2.2636 -1.0563  2.1803
63198SOL     OW96198   7.882   2.396   3.558 -0.2187 -0.4985  0.3310
63198SOL    HW196199   7.827   2.321   3.534  0.0586 -1.1949  1.7806
63198SOL    HW296200   7.958   2.390   3.500 -1.4845  0.3294 -1.5203
63199SOL     OW96201   6.197  12.540   5.938  0.3136  0.3548  0.0888
63199SOL    HW196202   6.121  12.595   5.918 -0.9798 -0.5128  2.3106
63199SOL    HW296203   6.185  12.462   5.885 -0.6641 -0.0097  0.8241
63200SOL     OW96204   3.839  10.873   4.067  0.4148  0.2117  0.3594
63200SOL    HW196205   3.929  10.859   4.098  1.0909  1.7281 -0.7868
63200SOL    HW296206   3.828  10.807   3.998  0.9683  0.5635 -0.0751
63201SOL     OW96207   3.445  11.060   3.505  0.5152  0.2596 -0.2037
63201SOL    HW196208   3.430  11.064   3.410  1.1418  1.2114 -0.2745
63201SOL    HW296209   3.426  11.148   3.536  0.7652  0.0735  0.4929
63202SOL     OW96210   4.264   5.635  10.205  0.1889 -0.5795  0.0520
63202SOL    HW196211   4.187   5.688  10.227  0.2755 -0.2432 -0.4330
63202SOL    HW296212   4.332   5.664  10.267 -0.0714 -0.8773  0.4786
63203SOL     OW96213   3.006   5.740   1.504  0.4853 -0.1315  0.3232
63203SOL    HW196214   3.088   5.694   1.486 -0.3614 -1.2334 -0.8882
63203SOL    HW296215   2.971   5.697   1.582  0.4905 -0.4563  0.1491
63204SOL     OW96216   2.482   4.245   8.312  0.2225  0.0948  0.4084
63204SOL    HW196217   2.458   4.152   8.304  1.6529 -0.4140  1.5642
63204SOL    HW296218   2.525   4.251   8.397  1.9616  1.4052 -0.5096
63205SOL     OW96219   4.400   1.253   8.277  0.5438 -0.6821  0.3413
63205SOL    HW196220   4.416   1.160   8.296 -0.0580 -1.2778 -1.7463
63205SOL    HW296221   4.459   1.272   8.203 -1.8522 -0.4644 -1.6446
63206SOL     OW96222   4.618   0.709  12.431 -0.0487 -0.3878 -0.1909
63206SOL    HW196223   4.579   0.767  12.366 -2.7348 -0.2113  1.4086
63206SOL    HW296224   4.666   0.767  12.490 -2.6473  0.3291  1.3462
63207SOL     OW96225   0.746   1.779   7.750 -0.1822  0.0014 -0.4035
63207SOL    HW196226   0.733   1.692   7.787 -2.4893  0.5110  0.1319
63207SOL    HW296227   0.663   1.824   7.765  1.0539  2.4323 -0.3225
63208SOL     OW96228   4.088   0.381   1.500 -0.1621  0.0154  0.0136
63208SOL    HW196229   4.172   0.427   1.505  0.5753 -1.3253  0.6669
63208SOL    HW296230   4.091   0.319   1.573 -1.8829  0.1638  0.2435
63209SOL     OW96231   2.946   7.737   6.132  0.9001  0.3519 -0.4061
63209SOL    HW196232   2.999   7.657   6.133 -0.7166 -0.8236  1.3613
63209SOL    HW296233   2.920   7.747   6.041 -1.2321 -2.9706 -0.3681
63210SOL     OW96234   7.078   4.560   2.490 -0.0514 -0.0150 -0.2542
63210SOL    HW196235   7.031   4.623   2.434  0.5830  0.7943  0.0967
63210SOL    HW296236   7.090   4.483   2.435  0.3795  0.6856 -1.1788
63211SOL     OW96237   0.083   1.378   0.417 -0.7616 -0.7447  0.0741
63211SOL    HW196238   0.172   1.370   0.381 -0.5634  0.9613  0.0714
63211SOL    HW296239   0.053   1.463   0.385 -1.2802  0.0239  2.4303
63212SOL     OW96240   1.517   4.312   7.244  0.3183 -0.2105 -0.0608
63212SOL    HW196241   1.481   4.255   7.312  0.2411 -0.1572 -0.0563
63212SOL    HW296242   1.441   4.352   7.202  0.2028 -2.1968 -1.9176
63213SOL     OW96243   9.081  10.985  10.683 -0.6333 -0.6016  1.0332
63213SOL    HW196244   9.098  11.043  10.609 -1.1504  0.4781  1.7405
63213SOL    HW296245   9.063  10.900  10.643  1.5963 -0.6667  0.0425
63214SOL     OW96246   3.825   0.695  11.072  0.0672 -0.8291 -0.2919
63214SOL    HW196247   3.801   0.780  11.035  0.7846 -0.7112 -0.5121
63214SOL    HW296248   3.818   0.634  10.999  0.4983 -0.7790 -0.3785
63215SOL     OW96249  10.492   8.140  11.731 -0.0941 -0.3196  0.0721
63215SOL    HW196250  10.517   8.225  11.696  2.1881 -1.4912 -1.4110
63215SOL    HW296251  10.401   8.128  11.704 -0.6125  1.7904  0.7276
63216SOL     OW96252   9.938   1.155   7.898 -0.0515 -0.3885  0.0752
63216SOL    HW196253  10.029   1.153   7.867 -0.6541  1.6757 -2.1640
63216SOL    HW296254   9.887   1.118   7.825 -1.0535 -1.2716  1.1909
63217SOL     OW96255   4.913   3.400   1.346  0.2290 -0.0268 -0.2580
63217SOL    HW196256   4.882   3.311   1.364  1.1069 -0.3105 -0.1212
63217SOL    HW296257   4.901   3.447   1.429  0.2633 -0.1651 -0.1742
63218SOL     OW96258   5.882   5.480   5.329  0.3528 -0.0559  0.0465
63218SOL    HW196259   5.814   5.526   5.280 -0.4154  0.1080  1.2295
63218SOL    HW296260   5.844   5.394   5.349  0.9337 -0.3910 -0.2553
63219SOL     OW96261   3.104   9.154   4.866 -0.1368 -0.0842  0.2715
63219SOL    HW196262   3.119   9.153   4.960  0.0851  1.0285  0.2511
63219SOL    HW296263   3.136   9.239   4.837  1.0881 -0.9511 -1.0315
63220SOL     OW96264   3.319   9.692  10.301  0.5185 -0.3179  0.5153
63220SOL    HW196265   3.334   9.632  10.374 -0.7590  0.1524  1.1814
63220SOL    HW296266   3.377   9.659  10.231 -1.6002 -3.6424  0.0844
63221SOL     OW96267  11.422  10.351   7.845 -0.1077 -0.4753 -0.1755
63221SOL    HW196268  11.347  10.395   7.807  1.2900  0.8471 -1.5305
63221SOL    HW296269  11.447  10.405   7.920 -1.1518 -1.5408  0.9843
63222SOL     OW96270   4.981  12.413   0.908 -0.3053 -0.6139 -0.0777
63222SOL    HW196271   4.969  12.330   0.861 -0.1541 -2.0765  2.3034
63222SOL    HW296272   5.039  12.391   0.981 -0.1394  1.6510  0.5377
63223SOL     OW96273   7.213   0.889   0.044 -0.4062  0.2689 -0.4204
63223SOL    HW196274   7.187   0.971   0.003  0.8077  0.7303 -0.3331
63223SOL    HW296275   7.293   0.864  -0.002  0.5569  0.4032  1.1131
63224SOL     OW96276  11.588   6.595  12.000  0.4133 -0.7473 -0.1695
63224SOL    HW196277  11.603   6.689  11.991 -0.0857 -0.6544 -0.0199
63224SOL    HW296278  11.571   6.565  11.910  1.2886 -0.8221 -0.3179
63225SOL     OW96279   7.507   3.578   2.332  0.3919 -0.3474  0.0961
63225SOL    HW196280   7.509   3.535   2.417  0.4938  0.7019  0.6492
63225SOL    HW296281   7.417   3.565   2.301  0.9201 -2.5875 -0.6576
63226SOL     OW96282   8.951   3.939   5.375 -0.0917 -0.3834 -0.4016
63226SOL    HW196283   8.924   3.847   5.375 -0.8573 -0.1903  1.1982
63226SOL    HW296284   8.870   3.987   5.388  0.5235  0.4245  0.5516
63227SOL     OW96285   3.599   3.565   8.385 -0.2606 -0.1084 -0.3998
63227SOL    HW196286   3.570   3.579   8.295 -1.7542  2.6416  0.4154
63227SOL    HW296287   3.522   3.534   8.431 -0.6082  2.1053  0.6529
63228SOL     OW96288   0.171  10.125   9.932  0.1055 -0.3112 -0.0498
63228SOL    HW196289   0.166  10.130   9.837 -0.0654 -0.4763 -0.0508
63228SOL    HW296290   0.082  10.146   9.962 -0.1733 -1.5388  0.0205
63229SOL     OW96291   9.227   5.327   0.392 -0.3260  0.1743  0.4111
63229SOL    HW196292   9.231   5.336   0.487  0.1987 -1.5211  0.5872
63229SOL    HW296293   9.312   5.289   0.368 -1.1730 -1.2264 -0.4825
63230SOL     OW96294  10.064   0.866   1.255  0.4408 -0.1605  0.4031
63230SOL    HW196295  10.107   0.934   1.202  2.3167 -0.7883  1.0709
63230SOL    HW296296  10.093   0.784   1.217 -0.4770 -0.6243  0.6693
63231SOL     OW96297   3.809   0.581   4.216 -0.2438 -0.3585 -0.2831
63231SOL    HW196298   3.750   0.512   4.188 -1.1153  0.1970  0.1455
63231SOL    HW296299   3.753   0.658   4.225 -0.1908 -0.5943  3.5511
63232SOL     OW96300   2.053   9.922   5.089  0.1552  0.5880  0.7538
63232SOL    HW196301   2.019   9.832   5.090  1.4985 -0.1022 -2.5627
63232SOL    HW296302   1.994   9.969   5.030  0.7005  1.3057  0.7682
63233SOL     OW96303   8.418   6.495   4.605 -0.2670  0.5355  0.3475
63233SOL    HW196304   8.511   6.501   4.626 -0.4324 -0.4462  1.5210
63233SOL    HW296305   8.412   6.517   4.512  1.2015  0.1283  0.1318
63234SOL     OW96306   5.711   1.023   3.909  0.2155  0.0885 -0.5471
63234SOL    HW196307   5.677   1.112   3.917  1.4455  0.5468 -0.0573
63234SOL    HW296308   5.763   1.025   3.829 -0.2532 -0.3668 -0.8628
63235SOL     OW96309   3.589  10.387   8.554 -0.2088  0.0676  0.1853
63235SOL    HW196310   3.649  10.323   8.516 -1.2716 -0.6724 -0.3012
63235SOL    HW296311   3.543  10.339   8.623 -0.9038  0.3395 -0.0753
63236SOL     OW96312   4.198   5.933   2.977  0.3797 -0.1857  0.4934
63236SOL    HW196313   4.221   5.906   3.065 -0.5052  0.1662  0.8477
63236SOL    HW296314   4.156   5.856   2.938  2.4437 -0.9692 -0.3019
63237SOL     OW96315   5.935   5.398  10.687 -0.0748 -0.1542  0.3289
63237SOL    HW196316   5.882   5.478  10.681 -0.1754 -0.3024 -1.1852
63237SOL    HW296317   5.872   5.329  10.706 -0.4474 -0.2941 -1.2435
63238SOL     OW96318   3.946   8.080  11.740 -1.0247  0.3441  0.1073
63238SOL    HW196319   3.854   8.100  11.758 -1.4368 -0.2523 -1.2549
63238SOL    HW296320   3.980   8.159  11.698 -0.4088  1.2319  2.1196
63239SOL     OW96321   3.718   9.878   7.864  0.4553  0.7333  0.5095
63239SOL    HW196322   3.791   9.816   7.873  0.8334  1.0244 -0.3682
63239SOL    HW296323   3.752   9.945   7.804 -0.1297  1.5067  1.0259
63240SOL     OW96324   7.993  11.231   4.694  0.5027  0.2799  0.5248
63240SOL    HW196325   7.940  11.217   4.772 -1.6825 -0.1412 -0.9467
63240SOL    HW296326   8.023  11.322   4.702  1.5020 -0.1559  2.4643
63241SOL     OW96327   9.140   7.019  11.323 -0.0280  0.0855  0.0717
63241SOL    HW196328   9.060   7.028  11.272 -0.5999  1.9032  1.2143
63241SOL    HW296329   9.179   7.106  11.322  1.0492 -0.3658  0.9567
63242SOL     OW96330   6.219   7.419   9.140 -0.1568  0.1674 -0.5208
63242SOL    HW196331   6.196   7.469   9.061 -2.8081  0.5010  0.3633
63242SOL    HW296332   6.302   7.457   9.169  0.0417  1.1594 -2.2152
63243SOL     OW96333  11.706  11.273   5.818  0.2827 -0.6570 -0.3079
63243SOL    HW196334  11.659  11.198   5.854 -0.7694  0.8523  1.6740
63243SOL    HW296335  11.637  11.333   5.790  1.0855  0.0646 -0.7972
63244SOL     OW96336   4.158   3.940   8.029 -0.4015  0.1343 -0.6987
63244SOL    HW196337   4.202   4.022   8.009 -0.2559  0.2175 -0.0685
63244SOL    HW296338   4.074   3.967   8.067  0.5326  0.0729  1.6058
63245SOL     OW96339   2.879   3.083   6.420 -0.9726 -0.2537  0.3647
63245SOL    HW196340   2.794   3.057   6.384 -1.0376  1.2983 -0.6764
63245SOL    HW296341   2.942   3.028   6.374 -1.3096 -0.5197  0.2143
63246SOL     OW96342  10.444   4.680   2.937  0.4857  0.3081 -0.7544
63246SOL    HW196343  10.453   4.655   3.029  0.3015  0.7167 -0.6259
63246SOL    HW296344  10.485   4.607   2.889 -2.5113 -1.6735 -0.5416
63247SOL     OW96345   9.102   8.155   4.040 -0.3162 -0.0741 -0.5829
63247SOL    HW196346   9.167   8.169   4.109 -2.4221  0.9300  1.3147
63247SOL    HW296347   9.084   8.242   4.006 -1.5891 -0.1627 -0.1765
63248SOL     OW96348   5.381   6.416   6.693 -0.6133  0.0497  0.2527
63248SOL    HW196349   5.386   6.358   6.769  0.5696 -1.7697 -1.1194
63248SOL    HW296350   5.303   6.470   6.709 -0.6016 -0.5090  2.5528
63249SOL     OW96351   6.325   7.854   2.635 -0.4237 -0.4842 -0.0398
63249SOL    HW196352   6.382   7.780   2.659  0.6796  0.0479 -0.9331
63249SOL    HW296353   6.254   7.814   2.584  0.1357 -0.9487 -0.4719
63250SOL     OW96354  10.067  12.276   7.386 -0.0678 -0.4076  0.0812
63250SOL    HW196355  10.042  12.318   7.469  2.1932  1.7291 -0.2021
63250SOL    HW296356  10.049  12.342   7.319  2.3039 -0.3071 -0.5519
63251SOL     OW96357  12.456   3.286   9.271 -0.4005  0.6337  0.2237
63251SOL    HW196358  12.392   3.322   9.331  1.8460  4.0389  0.8313
63251SOL    HW296359  12.496   3.362   9.229  1.9683 -1.3649 -1.4578
63252SOL     OW96360   4.074  10.007   1.919  0.0800 -0.4743  0.3704
63252SOL    HW196361   4.146  10.009   1.982 -1.4599  1.9547  2.2413
63252SOL    HW296362   4.070  10.095   1.884 -0.1353 -1.3584 -2.0356
63253SOL     OW96363   3.868   2.918   7.986  0.3026 -0.5604 -0.5169
63253SOL    HW196364   3.802   2.865   7.941 -1.1543  0.4692  0.3441
63253SOL    HW296365   3.918   2.855   8.038 -0.7120 -1.2361 -0.3377
63254SOL     OW96366   2.127   4.977   6.110 -0.3914  0.4522  0.3282
63254SOL    HW196367   2.178   4.920   6.053 -0.7061  1.5691 -1.1237
63254SOL    HW296368   2.038   4.941   6.107 -0.1073 -0.3872  1.3682
63255SOL     OW96369   5.091   6.411  12.106  0.0305  0.1550  0.1493
63255SOL    HW196370   5.024   6.373  12.049 -2.4554  2.1245  1.5408
63255SOL    HW296371   5.084   6.361  12.187  0.7488 -0.0685  0.0783
63256SOL     OW96372  11.346   3.598   6.139  0.4859 -0.7258  0.4914
63256SOL    HW196373  11.425   3.567   6.184 -0.4553 -2.0181  1.3358
63256SOL    HW296374  11.275   3.576   6.199 -0.7902 -2.1856 -1.4632
63257SOL     OW96375   6.028  11.746   5.361  0.3429 -0.0579  0.1348
63257SOL    HW196376   6.041  11.711   5.449  0.7463 -0.7579 -0.2025
63257SOL    HW296377   5.933  11.754   5.353  0.2306 -1.1598  0.1926
63258SOL     OW96378  10.465   0.421   1.086  0.1369  0.5212 -0.4285
63258SOL    HW196379  10.474   0.364   1.010  0.1207  0.5470 -0.4499
63258SOL    HW296380  10.480   0.364   1.161 -0.4856  0.3533 -0.4237
63259SOL     OW96381   3.659   8.337   7.121 -0.5810 -1.0226  0.2756
63259SOL    HW196382   3.588   8.400   7.119 -0.3031 -0.7143 -1.1758
63259SOL    HW296383   3.626   8.266   7.176 -0.4526  0.8256  2.9126
63260SOL     OW96384   5.821  11.128   4.786 -0.3441 -0.2515 -0.4820
63260SOL    HW196385   5.885  11.059   4.768 -0.7229 -0.7057 -0.0891
63260SOL    HW296386   5.776  11.099   4.865 -0.7887  0.2508 -0.5479
63261SOL     OW96387   2.771   7.060   9.020  0.3529  0.1800 -1.4400
63261SOL    HW196388   2.811   7.142   9.049  0.1387 -0.0673 -0.3948
63261SOL    HW296389   2.797   6.996   9.087 -4.0656  0.5653  1.0287
63262SOL     OW96390  10.972  11.272   0.526 -0.4428  0.3675 -0.1372
63262SOL    HW196391  10.923  11.348   0.495  0.5033  2.3627  2.7701
63262SOL    HW296392  11.062  11.287   0.497 -0.3697  0.0412 -0.0880
63263SOL     OW96393   8.385   8.389   9.399  0.5970  0.2189 -0.1123
63263SOL    HW196394   8.342   8.343   9.326  0.5310 -0.5390  0.3880
63263SOL    HW296395   8.328   8.463   9.417 -0.0328 -0.2627 -0.0627
63264SOL     OW96396   5.824   6.209   9.397 -0.2960 -0.3701  0.0267
63264SOL    HW196397   5.814   6.147   9.469 -0.4773 -1.2591 -0.7502
63264SOL    HW296398   5.915   6.199   9.369 -0.1303  0.2172  0.3408
63265SOL     OW96399   6.789   5.190   3.463 -0.7425 -0.9757  0.4460
63265SOL    HW196400   6.774   5.284   3.451  0.1005 -0.6661  1.5967
63265SOL    HW296401   6.751   5.171   3.549 -0.8299 -1.6833  0.2568
63266SOL     OW96402   3.841   0.800  11.310  0.2764  0.7060 -0.1171
63266SOL    HW196403   3.839   0.757  11.225  1.1740 -0.8426  0.6118
63266SOL    HW296404   3.755   0.841  11.318 -0.6720 -1.0692 -0.8030
63267SOL     OW96405   1.554   6.638  11.210  0.3598 -0.4111  0.0458
63267SOL    HW196406   1.531   6.647  11.117  0.9651  1.1836  0.0142
63267SOL    HW296407   1.634   6.690  11.220  0.0279 -0.1389  1.5595
63268SOL     OW96408   4.022   7.152   3.886 -0.2608 -0.3002 -0.0988
63268SOL    HW196409   4.025   7.075   3.943 -1.4750 -1.3170 -1.3069
63268SOL    HW296410   3.953   7.207   3.923 -1.1503 -1.0270 -0.6241
63269SOL     OW96411   4.954   0.494   6.187 -0.2385 -0.1197  0.4462
63269SOL    HW196412   4.917   0.462   6.105 -0.0040  2.5998 -0.8184
63269SOL    HW296413   4.895   0.460   6.255 -1.5582 -0.8064 -0.9980
63270SOL     OW96414   1.573   5.546  12.261  0.3223  0.0285 -0.1027
63270SOL    HW196415   1.619   5.625  12.290 -1.3697  1.1885 -0.4504
63270SOL    HW296416   1.533   5.511  12.340  0.2039  0.1070 -0.1289
63271SOL     OW96417   7.004   8.336   8.551  0.7755  0.1714 -0.3799
63271SOL    HW196418   6.953   8.350   8.471 -0.8927 -1.5641  0.2808
63271SOL    HW296419   7.023   8.424   8.583  0.4454  0.8990 -2.0417
63272SOL     OW96420  12.109   8.838   6.859  0.1318 -0.2510  0.6220
63272SOL    HW196421  12.078   8.751   6.834 -1.6995  0.8032 -1.0049
63272SOL    HW296422  12.180   8.821   6.921  0.7019 -2.9202 -0.6308
63273SOL     OW96423   6.131  11.406  10.323  0.1566  0.0930 -0.1138
63273SOL    HW196424   6.148  11.313  10.329  2.0861  0.3382 -1.1241
63273SOL    HW296425   6.143  11.427  10.230  1.1988  1.5778  0.3146
63274SOL     OW96426   3.024   7.643   3.302 -0.2531  0.6230  0.5784
63274SOL    HW196427   3.068   7.725   3.279  0.4333 -0.1078 -0.8752
63274SOL    HW296428   2.946   7.642   3.245  1.2007 -0.9778 -1.5439
63275SOL     OW96429  11.123   7.494   6.291 -0.6164  0.2205 -0.0304
63275SOL    HW196430  11.083   7.576   6.263 -1.7575 -0.1575  0.4507
63275SOL    HW296431  11.111   7.493   6.386  1.2693  0.4676  0.2476
63276SOL     OW96432   3.813   5.079  11.980 -0.2789 -0.5788 -0.1582
63276SOL    HW196433   3.831   5.033  11.898 -0.7643  2.4689 -2.1609
63276SOL    HW296434   3.867   5.158  11.975 -0.5826 -0.1352  2.3322
63277SOL     OW96435   7.247   7.887  12.431  0.6560 -0.2376  0.9375
63277SOL    HW196436   7.174   7.907  12.373  0.7434 -1.2191  0.4670
63277SOL    HW296437   7.259   7.792  12.422  1.3796 -0.2302  1.7235
63278SOL     OW96438   9.565   6.307   0.001 -0.1104 -0.1996 -0.2255
63278SOL    HW196439   9.595   6.278  -0.085 -0.1166 -1.6971  0.2525
63278SOL    HW296440   9.641   6.351   0.040  0.3174 -0.7251 -0.4644
63279SOL     OW96441   1.680   3.257   6.857 -0.1036 -0.3343  0.0896
63279SOL    HW196442   1.602   3.312   6.847  0.8397  0.6102 -4.5744
63279SOL    HW296443   1.747   3.315   6.892 -0.1324  0.5219 -1.1903
63280SOL     OW96444   4.235  10.358  10.037 -0.2738 -0.1686  0.3116
63280SOL    HW196445   4.250  10.453  10.034 -0.7552 -0.0586  1.1228
63280SOL    HW296446   4.229  10.332   9.945 -0.0493  0.5774  0.0801
63281SOL     OW96447   9.762   4.383   1.610 -0.2108  0.4748  0.2541
63281SOL    HW196448   9.725   4.374   1.697 -1.0318  1.9867  0.0884
63281SOL    HW296449   9.800   4.471   1.608  0.3429  0.2361 -0.7115
63282SOL     OW96450   3.527  10.987   6.061 -0.3807 -0.2325 -0.0814
63282SOL    HW196451   3.493  11.028   5.981 -0.0520  0.9659  0.3645
63282SOL    HW296452   3.614  10.955   6.036  0.3886  1.5432  0.1619
63283SOL     OW96453   7.555   0.158   3.512  0.0560  0.0798 -0.2272
63283SOL    HW196454   7.514   0.203   3.438 -1.2271 -0.0711  0.3559
63283SOL    HW296455   7.482   0.116   3.558  1.0897 -1.8200 -0.2115
63284SOL     OW96456   7.714   7.819  12.091  0.2632 -0.1838  0.8887
63284SOL    HW196457   7.635   7.860  12.056 -0.8142 -0.0331  3.3343
63284SOL    HW296458   7.761   7.790  12.013 -1.4769  0.9974 -0.7139
63285SOL     OW96459   5.491   7.900   5.029  0.7283  0.3891 -0.2527
63285SOL    HW196460   5.474   7.806   5.038  1.1715  0.4038  0.7835
63285SOL    HW296461   5.404   7.939   5.023  0.5398 -0.0759 -0.6980
63286SOL     OW96462   2.256   7.410   4.374  0.1421 -0.5073  0.5236
63286SOL    HW196463   2.179   7.462   4.352  1.7152  0.7852 -2.4722
63286SOL    HW296464   2.297   7.458   4.446  1.2666  2.3356 -1.8162
63287SOL     OW96465   6.051  10.732   8.865 -0.8743 -0.0655  0.1390
63287SOL    HW196466   6.097  10.657   8.829 -2.1611 -0.1732 -1.3921
63287SOL    HW296467   6.120  10.786   8.904  0.7252  0.3347 -2.9828
63288SOL     OW96468  11.736  10.553   3.211  0.2398  0.1054  0.0922
63288SOL    HW196469  11.666  10.528   3.151  0.0259 -0.4928  0.5808
63288SOL    HW296470  11.797  10.602   3.157 -0.8546  1.1857 -0.2215
63289SOL     OW96471   3.407  11.145  11.866 -0.3583  0.4735 -0.5849
63289SOL    HW196472   3.503  11.140  11.869 -0.4222 -0.4939  0.1271
63289SOL    HW296473   3.388  11.237  11.886  0.3469  0.1500  1.8614
63290SOL     OW96474  10.089   3.706  12.017  0.0482 -0.3987 -0.2864
63290SOL    HW196475  10.056   3.790  11.985  1.0074  0.5637  1.1156
63290SOL    HW296476  10.079   3.711  12.112  1.5229 -1.2364 -0.0533
63291SOL     OW96477   3.387   4.587   0.430 -0.2153  0.2450  0.1511
63291SOL    HW196478   3.396   4.609   0.523 -0.8821  1.5876 -0.0850
63291SOL    HW296479   3.308   4.633   0.402 -0.1038 -0.2683 -1.0566
63292SOL     OW96480   7.304   0.699   4.898  0.5195  0.2452  0.3733
63292SOL    HW196481   7.337   0.661   4.817  1.0458 -0.7125  1.0232
63292SOL    HW296482   7.209   0.704   4.886  0.6335  0.4962 -0.4554
63293SOL     OW96483   1.218   9.354  12.264 -0.0090 -0.0355 -0.7981
63293SOL    HW196484   1.152   9.413  12.227 -3.1390  0.2369  4.2779
63293SOL    HW296485   1.168   9.289  12.312  3.3911 -1.0211  1.7959
63294SOL     OW96486   3.624   0.834  11.857  0.6225 -0.2136  0.2212
63294SOL    HW196487   3.639   0.744  11.885  0.4570 -0.4251 -0.3510
63294SOL    HW296488   3.548   0.828  11.800 -0.7134  0.5936  1.8266
63295SOL     OW96489   1.748   2.128   9.891  0.6980  0.1311  0.1910
63295SOL    HW196490   1.695   2.131   9.811 -2.5766 -0.3487  2.1624
63295SOL    HW296491   1.714   2.199   9.945  2.6608  0.2948  1.3270
63296SOL     OW96492   9.058   7.580   5.654 -0.2816 -0.3303 -0.0396
63296SOL    HW196493   9.051   7.542   5.741  0.1820 -1.0480 -0.3123
63296SOL    HW296494   9.103   7.664   5.668  1.2382 -1.1563  0.2281
63297SOL     OW96495   7.085   5.766  11.195  0.4535  0.4670 -0.0547
63297SOL    HW196496   7.068   5.860  11.204 -1.9663 -0.1071  2.6425
63297SOL    HW296497   7.158   5.749  11.255 -0.2592  0.3863  0.8089
63298SOL     OW96498   1.840   5.809   3.741  0.0135 -0.1154 -0.5970
63298SOL    HW196499   1.860   5.901   3.723 -0.4663  0.3086  0.8419
63298SOL    HW296500   1.745   5.803   3.730  0.0127 -0.3784 -0.4541
63299SOL     OW96501   8.869   0.521   3.516  0.1062 -0.4979  0.0583
63299SOL    HW196502   8.925   0.591   3.550 -1.6022  0.7107  0.4722
63299SOL    HW296503   8.782   0.560   3.509 -1.2289 -2.9350  1.5671
63300SOL     OW96504   6.849   0.133  10.035  0.1165 -0.2018 -0.3038
63300SOL    HW196505   6.917   0.164  10.095  1.4899 -0.1659 -1.7721
63300SOL    HW296506   6.867   0.180   9.953 -0.8491 -1.2082 -1.1313
63301SOL     OW96507   1.721   2.161   2.989 -0.6280  0.5433  0.1903
63301SOL    HW196508   1.725   2.070   3.019 -0.1803 -0.6266 -3.0488
63301SOL    HW296509   1.637   2.193   3.020 -1.7535 -1.6840 -0.3745
63302SOL     OW96510   7.272   2.241   6.768  0.5501  0.0141  0.2261
63302SOL    HW196511   7.265   2.165   6.710  0.1755  1.4453 -1.7067
63302SOL    HW296512   7.364   2.267   6.761 -0.0005  1.6578 -1.7917
63303SOL     OW96513   6.129   3.246   7.865  0.0282  0.3257 -0.2503
63303SOL    HW196514   6.075   3.245   7.786 -0.4697 -0.4977  0.0847
63303SOL    HW296515   6.207   3.197   7.842 -0.2669 -0.2043 -0.1363
63304SOL     OW96516   2.720  12.355   1.947  0.0610 -0.4005 -0.6046
63304SOL    HW196517   2.802  12.383   1.908 -0.2626 -0.1149 -1.0922
63304SOL    HW296518   2.732  12.369   2.041 -0.5344  2.7686 -0.8655
63305SOL     OW96519  10.011  12.734  12.370  0.5433  0.5831  0.4070
63305SOL    HW196520   9.998  12.797  12.299 -0.6246 -0.9578 -0.8028
63305SOL    HW296521   9.935  12.676  12.366  1.2761 -0.5565  1.8716
63306SOL     OW96522   9.029   1.304   7.462 -0.3151 -0.4071 -0.1927
63306SOL    HW196523   9.122   1.280   7.459 -0.0641  0.4330  0.4040
63306SOL    HW296524   9.029   1.399   7.453 -1.0882 -0.3553  0.2862
63307SOL     OW96525   1.451   2.257   7.403 -0.0908 -0.4767  0.2136
63307SOL    HW196526   1.467   2.350   7.417 -0.7481 -0.0471 -1.6202
63307SOL    HW296527   1.463   2.217   7.489 -0.2381  1.3545  1.1215
63308SOL     OW96528   3.611  12.201   3.025 -0.3349 -0.2334  0.1306
63308SOL    HW196529   3.623  12.295   3.018 -0.8041 -0.0695  1.1826
63308SOL    HW296530   3.570  12.175   2.943  0.8135  0.2883 -0.6221
63309SOL     OW96531  11.473   6.836   5.018  0.1343  0.2233  0.3275
63309SOL    HW196532  11.384   6.801   5.027 -0.5445  1.4638 -1.1693
63309SOL    HW296533  11.462   6.931   5.027  1.2207  0.4388 -0.4254
63310SOL     OW96534  11.904   8.670   4.787 -0.6335  0.4156  0.0347
63310SOL    HW196535  11.883   8.709   4.702 -0.6952 -1.3962 -0.8277
63310SOL    HW296536  11.998   8.649   4.781 -0.1804  1.9372  1.1500
63311SOL     OW96537  10.087  11.956   5.058  0.2718 -0.4254  0.1443
63311SOL    HW196538   9.997  11.968   5.027 -0.1472 -1.2621  0.9837
63311SOL    HW296539  10.121  12.045   5.065 -0.9963  0.0279  1.2105
63312SOL     OW96540   4.678   1.277   4.885  0.2760 -0.6596  0.3331
63312SOL    HW196541   4.659   1.369   4.904 -0.5038 -0.4777 -1.1679
63312SOL    HW296542   4.596   1.241   4.852  0.6781 -1.8075  0.5093
63313SOL     OW96543  12.783   0.448   6.197  0.2693  0.0391  0.0702
63313SOL    HW196544  12.844   0.374   6.192 -1.5328 -1.5074  0.0597
63313SOL    HW296545  12.719   0.431   6.128  0.1112  1.9302 -0.2937
63314SOL     OW96546   4.129   3.815  12.048  0.3603 -0.2033 -0.0720
63314SOL    HW196547   4.115   3.905  12.077 -0.1426  0.4216 -2.0827
63314SOL    HW296548   4.210   3.788  12.092  0.5661  1.2483  0.5027
63315SOL     OW96549   1.951   6.681  12.551 -0.1463 -0.0366 -0.1118
63315SOL    HW196550   2.014   6.680  12.623 -0.1809 -0.1898 -0.0834
63315SOL    HW296551   1.878   6.628  12.582  1.1536 -2.8089 -1.4230
63316SOL     OW96552  10.146   1.654   8.836  0.5474 -0.4524  0.0028
63316SOL    HW196553  10.121   1.593   8.906  1.3661 -1.2645 -0.3995
63316SOL    HW296554  10.087   1.729   8.848 -0.6767 -1.4269  0.3286
63317SOL     OW96555  11.473   3.728   5.562  0.2033 -0.7527 -0.1569
63317SOL    HW196556  11.418   3.678   5.622  0.7256 -0.0564  0.9163
63317SOL    HW296557  11.436   3.816   5.562  0.1608 -0.7629 -0.9270
63318SOL     OW96558   5.295  10.033   6.589 -0.4903  0.1513 -0.1594
63318SOL    HW196559   5.271  10.103   6.529 -1.4479 -0.6729 -0.7640
63318SOL    HW296560   5.212   9.997   6.618 -0.0082 -0.5890  0.3267
63319SOL     OW96561   0.810   0.713   7.524 -0.1610  0.2869  0.0111
63319SOL    HW196562   0.905   0.710   7.512 -0.4201 -1.0826 -2.4012
63319SOL    HW296563   0.796   0.682   7.614  1.6875  1.7185  0.8522
63320SOL     OW96564   5.326   8.804   7.177 -0.2780  0.1496 -0.7167
63320SOL    HW196565   5.370   8.857   7.111  0.9893 -0.7250 -0.6044
63320SOL    HW296566   5.331   8.714   7.144 -0.1904 -0.2181  0.2565
63321SOL     OW96567   3.310   3.899   1.711 -0.2386  0.2782 -1.1175
63321SOL    HW196568   3.377   3.869   1.772 -0.6679 -0.8047 -1.1458
63321SOL    HW296569   3.285   3.986   1.743 -0.9065 -0.5271  0.6516
63322SOL     OW96570   7.382   7.890   8.189 -0.5077 -0.5071  0.5916
63322SOL    HW196571   7.422   7.819   8.239 -1.0406 -0.1237  1.5978
63322SOL    HW296572   7.390   7.863   8.098 -2.2540 -2.7114  1.0049
63323SOL     OW96573   6.427   4.138   6.035  0.3406  0.2004 -0.5471
63323SOL    HW196574   6.394   4.069   5.977  0.0399 -0.5900  0.5308
63323SOL    HW296575   6.349   4.181   6.068  0.3320 -1.2291  1.4775
63324SOL     OW96576  10.190   9.793   4.250 -0.6401 -0.3776  0.1121
63324SOL    HW196577  10.220   9.835   4.331  0.5025 -0.1213 -0.4292
63324SOL    HW296578  10.096   9.811   4.247 -0.7722 -0.7081  1.5634
63325SOL     OW96579   8.405   9.938   0.190  0.3944  0.1850  0.4689
63325SOL    HW196580   8.450   9.985   0.120 -0.0529 -0.1758 -0.0763
63325SOL    HW296581   8.452   9.855   0.198  0.1204  0.0025  0.2205
63326SOL     OW96582   8.752   5.089  10.329  0.3746 -0.1618  0.9945
63326SOL    HW196583   8.803   5.083  10.249  0.7708 -0.4318  1.2626
63326SOL    HW296584   8.809   5.051  10.397 -0.1460 -0.3841  1.3132
63327SOL     OW96585   1.916   7.658   9.549  0.1257 -0.3641 -0.4905
63327SOL    HW196586   1.938   7.674   9.457  0.9384  0.4234 -0.1851
63327SOL    HW296587   1.863   7.734   9.574 -0.5808 -0.8658 -0.4646
63328SOL     OW96588   7.433   7.452   4.937  0.4004 -0.1818  0.4009
63328SOL    HW196589   7.437   7.475   4.844 -1.6542  0.5924  0.4632
63328SOL    HW296590   7.383   7.370   4.939  0.7062 -0.3623  0.8161
63329SOL     OW96591   5.879  11.814   9.772 -0.0698 -0.0271  0.4279
63329SOL    HW196592   5.827  11.763   9.835  1.7976 -2.1096  0.4097
63329SOL    HW296593   5.837  11.796   9.688 -1.5349  1.3833  0.8028
63330SOL     OW96594   8.878   4.858   0.796 -0.3050  0.0050 -0.1800
63330SOL    HW196595   8.901   4.946   0.824 -1.4249  1.7180 -3.9193
63330SOL    HW296596   8.783   4.854   0.806 -0.0887 -1.6741  1.9019
63331SOL     OW96597   4.376   6.565   0.478  0.3434  0.0420  0.1410
63331SOL    HW196598   4.309   6.619   0.437 -3.0014 -2.7004  1.4975
63331SOL    HW296599   4.375   6.590   0.570  0.4198 -0.7373  0.3621
63332SOL     OW96600   3.826   1.031   0.649  0.5574 -0.7126  0.4319
63332SOL    HW196601   3.764   1.016   0.720 -0.2214 -0.6044 -0.2119
63332SOL    HW296602   3.803   0.968   0.582 -0.2716  0.7286 -0.7039
63333SOL     OW96603  10.055   8.028   4.677 -0.4973  0.5333  0.2871
63333SOL    HW196604  10.031   8.106   4.728 -1.4081  1.6766 -1.7638
63333SOL    HW296605   9.975   7.976   4.674  0.7481 -2.0367  3.9380
63334SOL     OW96606   5.878   4.310   9.532 -0.3371 -0.1982 -0.0722
63334SOL    HW196607   5.817   4.258   9.584 -0.2779 -0.2972 -0.1008
63334SOL    HW296608   5.948   4.334   9.593 -1.3588  1.5557  0.4632
63335SOL     OW96609   4.318   4.252  11.512  0.3164  0.7256 -0.1268
63335SOL    HW196610   4.372   4.312  11.461  1.7485 -0.5823 -0.2452
63335SOL    HW296611   4.317   4.171  11.461  1.2232 -0.3974  1.5215
63336SOL     OW96612  10.125   7.581  11.525 -0.0611  0.6247  0.2593
63336SOL    HW196613  10.191   7.628  11.575  0.4254  0.5085 -0.2686
63336SOL    HW296614  10.164   7.569  11.438 -0.7832  0.5896 -0.0731
63337SOL     OW96615   9.450   3.073   9.352  1.1613 -0.0862 -0.2957
63337SOL    HW196616   9.401   3.010   9.405 -0.4908 -0.0221 -1.6603
63337SOL    HW296617   9.398   3.153   9.355  0.9133 -0.1354 -2.1241
63338SOL     OW96618   1.566  11.727   5.404 -0.3544 -0.7661  0.0034
63338SOL    HW196619   1.566  11.809   5.354  1.2462 -1.2767 -0.9270
63338SOL    HW296620   1.515  11.746   5.482 -1.5134  0.5811 -1.0211
63339SOL     OW96621   5.263   4.337   2.887  0.1335  0.1551  0.3865
63339SOL    HW196622   5.343   4.293   2.916 -0.2071  0.6233  2.1588
63339SOL    HW296623   5.195   4.271   2.896  0.1364  0.0886 -0.0608
63340SOL     OW96624   6.150   9.790   6.819  0.5279  0.4742  0.1444
63340SOL    HW196625   6.187   9.795   6.731  0.5304 -3.0576 -0.1956
63340SOL    HW296626   6.064   9.831   6.812  1.5485  2.5775 -0.7890
63341SOL     OW96627   0.880   7.006   9.745 -0.4445 -0.2018  0.0588
63341SOL    HW196628   0.904   6.989   9.836  0.5329  1.6800  0.1915
63341SOL    HW296629   0.800   6.954   9.731  0.7210 -2.4319  1.2099
63342SOL     OW96630   1.651   9.189   6.006  0.1861 -0.2600  0.5841
63342SOL    HW196631   1.560   9.160   6.018 -0.8454  2.5131  0.3338
63342SOL    HW296632   1.701   9.109   5.999 -1.9973 -1.9360  2.4932
63343SOL     OW96633  12.059   7.883  11.836  0.0191  0.0144 -0.4039
63343SOL    HW196634  12.056   7.847  11.924  1.6783 -0.6754 -0.5860
63343SOL    HW296635  12.088   7.973  11.847 -0.5574  0.1843 -0.2118
63344SOL     OW96636   4.135   9.644   9.566 -0.0825  0.4064  0.1757
63344SOL    HW196637   4.167   9.718   9.515 -1.0098  1.2124  0.7320
63344SOL    HW296638   4.040   9.649   9.559 -0.1427 -1.7335 -1.1582
63345SOL     OW96639   1.180   0.636   0.173  0.0936 -0.1678  0.0461
63345SOL    HW196640   1.105   0.605   0.223  0.1807 -0.4899 -0.0253
63345SOL    HW296641   1.151   0.720   0.137 -0.3315 -0.4214 -0.2128
63346SOL     OW96642  11.222  12.064   0.479 -0.8004 -0.1073 -0.4033
63346SOL    HW196643  11.185  12.131   0.422 -1.9474 -0.9835 -0.7287
63346SOL    HW296644  11.159  12.056   0.551 -2.4624 -3.0575 -1.9907
63347SOL     OW96645   6.701   7.474   2.844  0.8337  0.0285  0.6205
63347SOL    HW196646   6.717   7.514   2.930  0.9452  0.4810  0.3937
63347SOL    HW296647   6.703   7.380   2.861  4.1079 -0.0383  0.6152
63348SOL     OW96648   0.572   5.940   5.175  0.1380 -0.6750  0.5207
63348SOL    HW196649   0.638   5.872   5.190 -0.0052 -0.8040  0.5734
63348SOL    HW296650   0.573   5.992   5.256 -0.4575 -1.2206  0.8937
63349SOL     OW96651   7.041   7.963  11.730  0.6044 -0.1125 -0.1713
63349SOL    HW196652   6.958   7.934  11.768  0.6648  2.0750  1.8858
63349SOL    HW296653   7.022   8.050  11.695  2.3329  1.1566  1.8340
63350SOL     OW96654   9.420   7.895   5.977  0.2953 -0.0546 -0.4069
63350SOL    HW196655   9.332   7.929   5.957  0.4417  0.4000 -0.2949
63350SOL    HW296656   9.448   7.851   5.897 -0.7881 -1.8481  0.1482
63351SOL     OW96657   2.180  11.121  10.617  0.4396 -0.3916 -0.0247
63351SOL    HW196658   2.195  11.028  10.599 -0.7005 -0.8634  1.2514
63351SOL    HW296659   2.163  11.124  10.711 -0.3782  1.0071 -0.1928
63352SOL     OW96660  10.392   9.717   2.976  0.3482  0.5463 -0.2315
63352SOL    HW196661  10.350   9.732   2.891  0.6150 -0.1353 -0.4905
63352SOL    HW296662  10.456   9.788   2.984  1.7312 -0.4846 -1.5270
63353SOL     OW96663   5.703  11.987   6.095 -0.2740  0.7396 -0.0287
63353SOL    HW196664   5.633  11.990   6.030 -0.5690  0.2519  0.2628
63353SOL    HW296665   5.780  11.955   6.047 -0.8121 -0.8928  0.1264
63354SOL     OW96666   2.765   5.499   9.648 -0.0481  0.4864 -0.1221
63354SOL    HW196667   2.740   5.498   9.556  0.5921  0.1104 -0.3018
63354SOL    HW296668   2.859   5.519   9.647  0.5091 -1.7693  0.2881
63355SOL     OW96669   1.168  11.754   9.302 -0.6741 -0.0369  0.8712
63355SOL    HW196670   1.107  11.827   9.316 -0.2473  0.6188 -0.4514
63355SOL    HW296671   1.198  11.766   9.212 -1.3730 -2.4735  0.2701
63356SOL     OW96672   2.289  10.344   7.073 -0.5057 -0.3585  0.0038
63356SOL    HW196673   2.356  10.285   7.108 -0.0101 -0.6891 -1.4257
63356SOL    HW296674   2.239  10.372   7.149  0.2735 -1.3546  0.9058
63357SOL     OW96675   2.477   4.438   1.625  0.3791  0.3636 -0.4728
63357SOL    HW196676   2.525   4.361   1.596 -0.8739 -0.6886  0.1319
63357SOL    HW296677   2.386   4.421   1.598 -0.1096  1.1377  0.5956
63358SOL     OW96678   8.584   7.017   8.992 -0.6657 -0.1323  0.4061
63358SOL    HW196679   8.615   7.048   9.077  0.5453  0.4310 -0.2209
63358SOL    HW296680   8.641   6.943   8.972 -0.4076  0.2539 -0.2902
63359SOL     OW96681   5.314   4.116   8.132 -0.0288  0.1036  0.5991
63359SOL    HW196682   5.374   4.076   8.194 -1.0593 -1.5189  0.6065
63359SOL    HW296683   5.239   4.143   8.184 -0.2119  0.2122  0.2854
63360SOL     OW96684   0.731   6.293   2.017  0.5600 -0.1324  0.1310
63360SOL    HW196685   0.704   6.230   1.950 -0.6769  0.6800 -0.1761
63360SOL    HW296686   0.780   6.242   2.081 -1.2074 -1.6030  0.3898
63361SOL     OW96687   8.166  12.416   8.610 -0.2091  0.3826 -0.3140
63361SOL    HW196688   8.218  12.469   8.550  0.1808 -0.6283 -0.8873
63361SOL    HW296689   8.077  12.419   8.575 -0.4001  1.4722  0.2276
63362SOL     OW96690   5.725   0.727   8.954 -0.5905 -0.3600  0.6328
63362SOL    HW196691   5.668   0.694   8.884 -1.4772 -0.0697  1.1956
63362SOL    HW296692   5.745   0.649   9.006 -0.0007 -0.5606  0.1252
63363SOL     OW96693  10.271   2.615  10.171 -0.9354 -0.1153  0.2372
63363SOL    HW196694  10.240   2.699  10.135  0.4915 -0.4024 -1.7611
63363SOL    HW296695  10.350   2.638  10.219  0.2902 -0.4720 -1.5476
63364SOL     OW96696  12.355   0.539   0.778  0.6969  0.0789 -0.6295
63364SOL    HW196697  12.447   0.565   0.789  0.7880 -0.5151  0.0585
63364SOL    HW296698  12.332   0.497   0.860 -0.3343  0.6079 -0.6413
63365SOL     OW96699   3.254   0.621   9.716  0.3427  0.5636 -0.1444
63365SOL    HW196700   3.335   0.610   9.765  0.9923 -0.0483 -1.3006
63365SOL    HW296701   3.196   0.553   9.749  0.4963  0.6530  0.3111
63366SOL     OW96702   2.539   0.477  11.953  0.5752  0.7091 -0.1616
63366SOL    HW196703   2.614   0.495  12.008  0.0512 -0.6601  1.0603
63366SOL    HW296704   2.502   0.563  11.933  0.2655  1.2274  2.3780
63367SOL     OW96705   5.220   4.549   1.184 -0.1446  0.3754  0.1253
63367SOL    HW196706   5.309   4.513   1.176 -0.0469  0.8516 -1.0693
63367SOL    HW296707   5.203   4.590   1.100 -1.5280  0.2543  0.3271
63368SOL     OW96708   9.488   0.113  12.461  0.7020  0.0244  0.0520
63368SOL    HW196709   9.529   0.109  12.374 -1.2014  1.4822 -0.9954
63368SOL    HW296710   9.557   0.085  12.521  2.6412  0.6657 -1.7463
63369SOL     OW96711   5.485   3.054   7.385 -0.6037 -0.0620  0.9005
63369SOL    HW196712   5.442   3.137   7.406 -0.9639 -0.4264  1.6443
63369SOL    HW296713   5.578   3.072   7.399 -0.7186  0.0908  1.5104
63370SOL     OW96714   2.186   4.088  10.852  0.6532  0.0924 -0.7265
63370SOL    HW196715   2.137   4.038  10.917  1.2892 -0.8207 -0.9338
63370SOL    HW296716   2.168   4.180  10.874  0.4056 -0.2064  0.3833
63371SOL     OW96717  11.786   7.429   6.045  0.2153  0.0926 -0.4138
63371SOL    HW196718  11.830   7.382   6.116  1.8115  2.7334  0.5047
63371SOL    HW296719  11.743   7.502   6.088 -1.2791  0.1369 -1.8925
63372SOL     OW96720   1.922   1.017   9.123 -0.6773 -0.0391  0.0526
63372SOL    HW196721   2.005   1.039   9.079 -1.1240 -1.1366 -1.4249
63372SOL    HW296722   1.859   1.080   9.088 -0.6700  0.1870  0.4468
63373SOL     OW96723   0.026   2.618  11.231  0.1661  0.3802 -0.2646
63373SOL    HW196724   0.025   2.583  11.320 -0.1853 -0.1296 -0.4640
63373SOL    HW296725   0.009   2.711  11.242  0.9818  0.4783  0.2619
63374SOL     OW96726   5.215   5.994   0.410 -0.7325 -0.2979 -0.0528
63374SOL    HW196727   5.160   5.915   0.408 -1.0058 -0.3067  2.9498
63374SOL    HW296728   5.156   6.063   0.442  0.8780 -0.3551  3.4680
63375SOL     OW96729  12.421   4.935   1.276 -0.3417  0.1432  0.1079
63375SOL    HW196730  12.379   5.004   1.225 -1.6618  0.1487  1.1277
63375SOL    HW296731  12.478   4.890   1.214  1.5686  2.9197 -0.2888
63376SOL     OW96732   8.592   7.080  12.191 -0.3156 -0.2601  0.2736
63376SOL    HW196733   8.633   7.023  12.126  0.8819 -1.1698  1.7433
63376SOL    HW296734   8.659   7.145  12.212 -1.4268  1.3232 -0.8809
63377SOL     OW96735   2.041  10.474  10.644  0.5467 -0.0948  0.3137
63377SOL    HW196736   1.980  10.400  10.654 -0.6267  0.9205  0.9753
63377SOL    HW296737   2.080  10.461  10.557 -1.8637  0.0768 -0.8794
63378SOL     OW96738  10.630   8.687  10.024 -0.1184  0.0716  0.1800
63378SOL    HW196739  10.638   8.633   9.946  0.3136  0.2870  0.0685
63378SOL    HW296740  10.651   8.776   9.994 -1.1322  0.3648  0.2918
63379SOL     OW96741   1.376   1.253   0.968 -0.3695  0.1130 -0.5252
63379SOL    HW196742   1.441   1.317   0.998  1.3820 -1.8733  0.1581
63379SOL    HW296743   1.404   1.230   0.880 -0.2932 -0.5752 -0.3229
63380SOL     OW96744   4.774   9.010  11.694 -0.1389 -0.5144  0.1735
63380SOL    HW196745   4.849   8.969  11.649 -0.3510  0.6389 -1.3106
63380SOL    HW296746   4.751   8.948  11.763  2.7531 -0.4904  1.2861
63381SOL     OW96747  11.975   8.593   1.889 -0.6354  0.1077 -0.1424
63381SOL    HW196748  12.023   8.597   1.971 -0.4689  0.1731 -0.2426
63381SOL    HW296749  11.912   8.522   1.901 -2.9322  2.2487  1.2869
63382SOL     OW96750   1.077   5.291  11.621 -0.4068 -0.1632 -0.2601
63382SOL    HW196751   1.110   5.310  11.533  1.1311 -3.2855 -0.4995
63382SOL    HW296752   1.111   5.362  11.676 -0.3063  1.1261 -1.9174
63383SOL     OW96753   7.015   4.091   2.672  0.6277  0.3099  0.0532
63383SOL    HW196754   7.043   4.181   2.687 -0.2112  0.3411  1.6118
63383SOL    HW296755   6.936   4.081   2.725  0.0466 -1.0030 -1.0034
63384SOL     OW96756   3.789   1.574   6.911 -0.6048  0.0921  0.0560
63384SOL    HW196757   3.753   1.495   6.869 -2.2403  1.3079 -0.9410
63384SOL    HW296758   3.848   1.611   6.846  1.9891 -1.4124  1.3574
63385SOL     OW96759   0.219   4.165  10.112 -0.3465  0.5544  0.2855
63385SOL    HW196760   0.310   4.136  10.098 -0.6032 -0.0717 -0.1625
63385SOL    HW296761   0.223   4.222  10.188  0.3814  0.2855  0.4554
63386SOL     OW96762   6.746   1.936  12.783  0.0292 -0.0139 -0.8082
63386SOL    HW196763   6.836   1.921  12.757  0.7722 -3.0005  2.5875
63386SOL    HW296764   6.752   1.967  12.873 -2.3415  0.3696 -0.7197
63387SOL     OW96765   0.893  11.250   5.276  0.3360  0.5594 -0.5233
63387SOL    HW196766   0.938  11.331   5.253  1.7730  0.2225  0.9275
63387SOL    HW296767   0.898  11.246   5.371  0.2954 -1.2417 -0.5708
63388SOL     OW96768   3.928  10.435   3.921 -0.4095  0.1437 -0.3795
63388SOL    HW196769   4.009  10.458   3.875 -0.5050  2.2305  0.4011
63388SOL    HW296770   3.866  10.503   3.895 -0.8433  0.6328  1.7749
63389SOL     OW96771   9.481   2.241  11.293 -0.1389 -0.4581 -0.1320
63389SOL    HW196772   9.503   2.275  11.206 -0.8832 -0.7804 -0.4539
63389SOL    HW296773   9.395   2.277  11.312  0.3013  0.1495  0.7728
63390SOL     OW96774   3.252   3.174   8.325  0.2596  0.1499 -0.3462
63390SOL    HW196775   3.178   3.120   8.299  0.7996 -0.2469 -1.1143
63390SOL    HW296776   3.325   3.112   8.333  0.3873  0.4484  0.9527
63391SOL     OW96777   7.064   8.233   9.966  0.6293  0.6057 -0.7252
63391SOL    HW196778   7.086   8.202   9.878  2.0169 -0.3610 -0.0824
63391SOL    HW296779   7.069   8.329   9.959  0.1421  0.5686 -1.8237
63392SOL     OW96780   2.476   2.915   8.843  0.6391 -0.0889  0.1656
63392SOL    HW196781   2.553   2.878   8.800  0.2806 -0.9946  0.2624
63392SOL    HW296782   2.430   2.838   8.879  0.1473  0.5123  0.8548
63393SOL     OW96783   5.401   0.377   2.983  0.3089  0.3588  0.6304
63393SOL    HW196784   5.310   0.396   2.958  0.3482  0.7554  0.7765
63393SOL    HW296785   5.443   0.463   2.984  1.2376  0.0042 -1.5328
63394SOL     OW96786  12.242  11.604   8.954  0.3252 -0.4971  1.0803
63394SOL    HW196787  12.316  11.664   8.962  1.4880 -1.6164 -0.4796
63394SOL    HW296788  12.177  11.653   8.904  1.3536 -0.5562 -0.3857
63395SOL     OW96789   5.002   1.225   5.570 -0.1130  0.1311 -0.0961
63395SOL    HW196790   5.064   1.271   5.626  0.3901 -0.1699 -0.4009
63395SOL    HW296791   5.007   1.271   5.486  0.3844 -0.4654 -0.4003
63396SOL     OW96792   7.264   7.591   3.432 -0.3149  0.1596 -0.1539
63396SOL    HW196793   7.301   7.660   3.376 -1.3221  0.3324 -0.6299
63396SOL    HW296794   7.276   7.624   3.521  0.3288  0.3835 -0.3228
63397SOL     OW96795   6.199   7.719   4.496  0.0126 -0.3828  0.2363
63397SOL    HW196796   6.109   7.720   4.529 -0.4014  1.2738 -0.8177
63397SOL    HW296797   6.242   7.651   4.547 -1.8637 -1.3199  0.6832
63398SOL     OW96798   0.500   8.661   9.066 -0.1251 -0.0971 -0.5628
63398SOL    HW196799   0.564   8.666   8.996 -0.3204  0.7990 -0.6904
63398SOL    HW296800   0.539   8.710   9.139  0.8197 -2.4104  0.5967
63399SOL     OW96801   3.335   8.769   2.214  0.5143 -0.6258  0.2761
63399SOL    HW196802   3.349   8.691   2.160 -0.8771 -1.6800  1.3698
63399SOL    HW296803   3.404   8.830   2.186  0.9511 -1.8079 -1.3813
63400SOL     OW96804   6.027   8.230  11.339 -0.3148  0.1680 -0.6488
63400SOL    HW196805   6.024   8.245  11.244  1.2254  3.1113 -0.3740
63400SOL    HW296806   6.001   8.314  11.377 -1.4728 -1.1177  1.5814
63401SOL     OW96807   3.345   6.874  12.330 -0.0307 -0.3436 -0.1271
63401SOL    HW196808   3.350   6.861  12.424 -0.1304  0.2638 -0.0343
63401SOL    HW296809   3.292   6.953  12.319 -2.2024 -1.7736 -0.7708
63402SOL     OW96810   8.438   6.701  11.822 -0.0930 -0.3328  0.0739
63402SOL    HW196811   8.421   6.795  11.815 -0.9932 -0.4732  0.1690
63402SOL    HW296812   8.366   6.669  11.877  0.4281 -1.0131  0.3611
63403SOL     OW96813   4.565   0.096   3.841 -0.2627 -0.2061  0.9306
63403SOL    HW196814   4.577   0.179   3.794  1.3187 -1.5417 -1.1991
63403SOL    HW296815   4.470   0.087   3.849 -0.5257  0.8400 -0.6185
63404SOL     OW96816   8.640   8.080   6.125 -0.6574 -0.0223  0.1103
63404SOL    HW196817   8.586   8.156   6.144  2.6321  2.1908  1.4901
63404SOL    HW296818   8.647   8.034   6.209  2.0774  1.5965  0.9066
63405SOL     OW96819   3.076  11.337   0.916  0.4831  0.1173  0.3919
63405SOL    HW196820   3.053  11.254   0.874  0.5094  0.1774  0.2585
63405SOL    HW296821   3.110  11.311   1.002  1.9636 -0.1308 -0.2341
63406SOL     OW96822   4.304   1.210   1.595  0.1613  0.3358  0.0166
63406SOL    HW196823   4.250   1.136   1.566  1.5464 -0.0162 -1.8707
63406SOL    HW296824   4.306   1.202   1.691 -2.5165 -0.0015  0.1277
63407SOL     OW96825   0.214  12.107   4.561  0.0408  0.0768  0.0156
63407SOL    HW196826   0.298  12.068   4.583  0.9896  0.9327 -1.8359
63407SOL    HW296827   0.175  12.047   4.498 -0.5636 -0.1141  0.5625
63408SOL     OW96828  12.310   9.271   7.903 -0.9082 -0.1266 -0.3462
63408SOL    HW196829  12.370   9.339   7.873 -1.1358  0.0625 -0.3726
63408SOL    HW296830  12.362   9.218   7.964 -0.0936 -1.1448 -1.8436
63409SOL     OW96831   6.029   7.497   1.710 -0.2716  0.1397  0.6600
63409SOL    HW196832   5.941   7.461   1.718 -0.5094  0.8306  1.2516
63409SOL    HW296833   6.066   7.453   1.634 -1.2963  0.1993  0.1087
63410SOL     OW96834   1.219   9.683   3.526  0.6723 -0.1068 -0.5608
63410SOL    HW196835   1.140   9.641   3.491 -0.5571  2.0917 -0.5864
63410SOL    HW296836   1.284   9.613   3.527 -1.8832 -2.7615  1.7665
63411SOL     OW96837   3.587   6.415   4.890  0.4495  0.3667 -0.0164
63411SOL    HW196838   3.547   6.474   4.955 -1.1876 -0.1577 -0.4858
63411SOL    HW296839   3.536   6.431   4.810  0.0151 -1.5899 -0.1834
63412SOL     OW96840   2.018   0.432   3.595 -0.3048 -0.1260  0.0956
63412SOL    HW196841   1.959   0.499   3.630  0.3021  0.8602 -0.7225
63412SOL    HW296842   2.067   0.400   3.672 -0.5510  0.4161  0.4807
63413SOL     OW96843   2.443   6.665   2.617 -0.2357 -0.6043 -0.3773
63413SOL    HW196844   2.490   6.618   2.548 -0.6276  0.7256 -1.5989
63413SOL    HW296845   2.511   6.687   2.681  0.9638  1.3740 -2.1502
63414SOL     OW96846   2.834   6.005   9.733 -0.1414 -0.2255 -0.3271
63414SOL    HW196847   2.858   6.048   9.815 -2.4552  1.7962 -0.6286
63414SOL    HW296848   2.765   5.944   9.757  0.0862 -0.5998 -0.6031
63415SOL     OW96849   3.771   9.735   3.906 -0.2981 -0.0815 -0.0663
63415SOL    HW196850   3.728   9.701   3.827  0.0632  0.7301 -0.6186
63415SOL    HW296851   3.712   9.711   3.977  0.7087 -3.4308 -0.1602
63416SOL     OW96852   0.401  11.859  11.479  0.0611 -0.3693  0.2130
63416SOL    HW196853   0.393  11.931  11.416 -1.4668 -0.1882  0.5670
63416SOL    HW296854   0.444  11.899  11.555 -2.0794  0.6111  0.9805
63417SOL     OW96855  11.732   7.796  10.712  0.2995  0.4013  0.5807
63417SOL    HW196856  11.656   7.741  10.729  0.8433 -0.4005  0.4965
63417SOL    HW296857  11.712   7.841  10.630 -0.0050  0.0458  0.4596
63418SOL     OW96858   3.821   4.735   5.286  0.0171  0.4318  0.2626
63418SOL    HW196859   3.868   4.774   5.359 -0.7887  0.3498  0.8424
63418SOL    HW296860   3.841   4.642   5.291  1.6249  0.6571 -0.8882
63419SOL     OW96861   6.041   8.085   2.106 -0.2447 -0.4598  0.4843
63419SOL    HW196862   6.008   8.154   2.048  0.2362  0.0751  0.8351
63419SOL    HW296863   6.096   8.030   2.050 -0.8287 -0.7101  0.1466
63420SOL     OW96864   0.430   4.435   5.529  0.1879 -0.4028 -0.3115
63420SOL    HW196865   0.494   4.366   5.545  1.8192  0.6052 -2.0436
63420SOL    HW296866   0.375   4.401   5.458  0.3778 -0.2929 -0.5107
63421SOL     OW96867  10.442   5.562   2.681 -0.2408 -0.0390  0.0124
63421SOL    HW196868  10.411   5.476   2.710  1.6647 -1.0096 -0.6496
63421SOL    HW296869  10.431   5.619   2.757 -1.3310 -0.9260  0.5356
63422SOL     OW96870   9.775   3.207  11.639  0.1481  0.6503  1.1793
63422SOL    HW196871   9.785   3.176  11.549  0.1837  1.4517  0.8989
63422SOL    HW296872   9.747   3.298  11.630 -0.5604  0.5263  1.9804
63423SOL     OW96873   5.513  10.191  12.304 -0.2145 -0.0365  0.2402
63423SOL    HW196874   5.535  10.197  12.211 -1.9973  1.4082 -0.1628
63423SOL    HW296875   5.457  10.114  12.311  2.9995 -2.5299  0.9204
63424SOL     OW96876   5.751   7.623  10.031 -0.4286 -0.1267 -0.2609
63424SOL    HW196877   5.758   7.706   9.985 -1.3275  0.9815  1.4479
63424SOL    HW296878   5.841   7.600  10.054 -0.1824  0.4564 -0.6159
63425SOL     OW96879   9.350   7.302  11.035 -0.5961 -0.3023 -0.2553
63425SOL    HW196880   9.366   7.395  11.017 -0.5485 -0.5198 -1.4375
63425SOL    HW296881   9.420   7.256  10.988  1.1910 -0.8658  2.6874
63426SOL     OW96882   9.374   6.045   0.067 -0.2428  0.0200  0.0798
63426SOL    HW196883   9.398   5.996   0.146  1.8815 -1.0624 -1.1436
63426SOL    HW296884   9.419   6.129   0.076 -1.1907  0.4693  0.6734
63427SOL     OW96885   5.093   5.854  10.420  0.2932 -0.4539 -0.3235
63427SOL    HW196886   5.124   5.775  10.464 -1.9519 -2.2317 -1.7355
63427SOL    HW296887   5.106   5.836  10.327 -0.8913  0.5452 -0.7002
63428SOL     OW96888   3.637   1.657   6.387  0.2071 -0.0599  0.2192
63428SOL    HW196889   3.673   1.570   6.372  0.6564 -0.0511  1.1764
63428SOL    HW296890   3.559   1.661   6.331 -1.1534 -1.9509  1.8573
63429SOL     OW96891   3.030   2.452   9.918 -0.0413  0.3728  0.1349
63429SOL    HW196892   3.011   2.535   9.963 -0.7838 -1.0323  2.6118
63429SOL    HW296893   2.956   2.396   9.939  2.1361 -2.1377  1.7855
63430SOL     OW96894  10.127   4.259   9.202 -0.1922 -0.7616 -0.0859
63430SOL    HW196895  10.152   4.167   9.205  0.7303 -0.5007  0.7907
63430SOL    HW296896  10.048   4.261   9.148 -0.3178 -2.0794  0.0215
63431SOL     OW96897   8.189   7.807   8.885  0.1319 -0.1673 -0.0680
63431SOL    HW196898   8.219   7.728   8.840 -2.8416 -1.9049  0.6812
63431SOL    HW296899   8.125   7.846   8.825  0.2676  0.6712  0.3140
63432SOL     OW96900   1.248   5.579   9.618 -0.5664 -0.2656 -0.4856
63432SOL    HW196901   1.280   5.637   9.688  1.2106  0.0206 -1.4642
63432SOL    HW296902   1.175   5.532   9.658 -0.4458  0.8219  1.1449
63433SOL     OW96903   9.749  10.808   4.564 -0.5220  0.2008 -0.0559
63433SOL    HW196904   9.828  10.757   4.544 -1.0562 -0.4684 -0.4857
63433SOL    HW296905   9.756  10.885   4.509 -1.0487 -0.7251 -1.4858
63434SOL     OW96906  10.524   7.939   3.739 -0.3298 -0.5003 -0.6312
63434SOL    HW196907  10.508   7.911   3.829 -1.4288 -1.9173 -1.2405
63434SOL    HW296908  10.525   8.035   3.744  3.1160 -0.4690  1.4350
63435SOL     OW96909   2.128   1.017   9.315 -0.2599  0.4048 -0.5815
63435SOL    HW196910   2.049   0.997   9.264  0.7928 -2.8235 -1.1941
63435SOL    HW296911   2.199   1.011   9.251  0.9433 -2.1323  0.8552
63436SOL     OW96912  10.414  10.893  12.483  0.6411  0.0813  0.0170
63436SOL    HW196913  10.469  10.815  12.479  0.5452  0.0564 -2.4261
63436SOL    HW296914  10.331  10.862  12.521  0.9422 -0.7956 -0.0107
63437SOL     OW96915   8.238   5.742   2.239 -0.2134 -0.7250 -0.3745
63437SOL    HW196916   8.200   5.783   2.162 -1.3845  0.3840  0.7398
63437SOL    HW296917   8.293   5.810   2.278 -1.3014 -0.5370  0.8977
63438SOL     OW96918   5.289   3.795  10.420 -0.1141 -0.5575  0.5557
63438SOL    HW196919   5.204   3.757  10.443 -0.9062  1.7634  1.7417
63438SOL    HW296920   5.318   3.744  10.344 -3.0578 -0.7550 -0.5573
63439SOL     OW96921   1.073   4.195   7.155  0.2413 -0.3598 -0.5015
63439SOL    HW196922   1.076   4.132   7.228  0.5656 -0.9690 -1.0244
63439SOL    HW296923   1.112   4.147   7.082 -0.2612  0.1778 -1.1261
63440SOL     OW96924  12.170   3.605  11.131  0.2505 -0.3037 -0.1787
63440SOL    HW196925  12.208   3.643  11.052  0.2006 -1.6690 -0.9002
63440SOL    HW296926  12.075   3.609  11.116  0.2535 -1.1456 -0.5046
63441SOL     OW96927  11.619   3.471   5.183  0.5627  0.0178 -0.0576
63441SOL    HW196928  11.676   3.513   5.249  0.5714 -2.3850  1.5707
63441SOL    HW296929  11.532   3.507   5.201  0.8004  0.3772  0.4084
63442SOL     OW96930   6.820   4.741   2.597 -0.0596 -0.1988 -0.2622
63442SOL    HW196931   6.865   4.728   2.513  0.2399 -1.1527  0.0387
63442SOL    HW296932   6.869   4.811   2.640 -0.4377  0.5599 -1.0317
63443SOL     OW96933   2.663   4.820   9.314  0.1469 -0.5549 -0.0450
63443SOL    HW196934   2.668   4.810   9.219  1.5533 -2.4890  0.1868
63443SOL    HW296935   2.592   4.883   9.328  0.0034 -0.1318 -2.3607
63444SOL     OW96936   9.639  10.225   4.707  0.0736  0.8575 -0.8527
63444SOL    HW196937   9.570  10.291   4.696 -0.4402  0.3089 -0.9561
63444SOL    HW296938   9.643  10.180   4.622 -1.8778 -1.4530  0.1653
63445SOL     OW96939   2.913   8.146   8.637  0.6487  0.5683 -0.2907
63445SOL    HW196940   2.819   8.125   8.637  0.6468  0.5783  0.3295
63445SOL    HW296941   2.957   8.062   8.628  0.5882  0.5467 -0.3848
63446SOL     OW96942   8.072   0.464   9.800 -0.3113 -0.0649  0.4198
63446SOL    HW196943   8.145   0.408   9.774 -0.8785 -0.6311  0.0367
63446SOL    HW296944   7.996   0.429   9.753 -1.0286 -0.0748  1.5443
63447SOL     OW96945   6.587  11.596   7.071 -0.4619 -0.1126 -0.3643
63447SOL    HW196946   6.596  11.502   7.054  1.8523 -0.4875  2.1768
63447SOL    HW296947   6.591  11.637   6.984  0.3231 -2.2579 -1.4160
63448SOL     OW96948   4.782   1.494   9.615  0.4293 -0.5415  0.0886
63448SOL    HW196949   4.832   1.537   9.547  0.8456 -1.5026 -0.2337
63448SOL    HW296950   4.837   1.499   9.693  1.2396 -1.9112 -0.3500
63449SOL     OW96951   7.545   3.392   4.293 -0.3425  0.2001 -0.5602
63449SOL    HW196952   7.519   3.401   4.385 -1.0608  1.9511 -0.8830
63449SOL    HW296953   7.583   3.305   4.287  0.3381  0.2861  1.5520
63450SOL     OW96954   4.076   7.586   0.700 -0.1595 -0.5228  0.2054
63450SOL    HW196955   4.016   7.609   0.771 -1.3625 -1.0628 -0.5867
63450SOL    HW296956   4.109   7.669   0.667 -1.3266 -0.1396 -0.0315
63451SOL     OW96957  10.141  10.629   5.818  0.4896  0.1504  0.4936
63451SOL    HW196958  10.083  10.598   5.748  1.2937  2.0495 -1.1003
63451SOL    HW296959  10.081  10.661   5.886 -0.3938  1.5471 -0.8701
63452SOL     OW96960   0.737   7.406   9.063 -0.3253  0.0696  0.0973
63452SOL    HW196961   0.693   7.321   9.061 -1.9466  0.8678  0.2633
63452SOL    HW296962   0.747   7.430   8.971  1.3283 -0.8551  0.0022
63453SOL     OW96963   6.954   1.201  10.871  0.4893  0.4143 -0.5017
63453SOL    HW196964   6.873   1.166  10.836  1.0660 -0.8245 -0.6404
63453SOL    HW296965   6.932   1.229  10.960  0.6278 -3.0347  0.7637
63454SOL     OW96966  12.016   1.655   7.315 -0.1771  0.0519  0.1629
63454SOL    HW196967  12.079   1.584   7.308 -0.0517  0.0683  1.0735
63454SOL    HW296968  12.060   1.731   7.275  0.5349  0.1605  1.1211
63455SOL     OW96969   2.582   8.127   4.129 -0.3184 -0.3690 -0.2328
63455SOL    HW196970   2.546   8.189   4.065 -0.0984  0.5904  0.5379
63455SOL    HW296971   2.677   8.129   4.113 -0.2463  0.0031  0.2200
63456SOL     OW96972   5.886   3.220  11.412 -0.2228 -0.0185  0.2874
63456SOL    HW196973   5.932   3.136  11.402  0.6161  0.0551  2.8575
63456SOL    HW296974   5.955   3.282  11.434 -1.1343  0.8664  0.6892
63457SOL     OW96975   0.187   6.435  12.122 -0.5975 -0.0270 -0.2058
63457SOL    HW196976   0.275   6.401  12.104 -0.1361  1.3115 -0.5894
63457SOL    HW296977   0.132   6.357  12.127  0.4428 -0.8332 -0.8785
63458SOL     OW96978   1.909   9.402   3.071  0.5191  0.3551  0.4238
63458SOL    HW196979   1.987   9.421   3.122 -0.2203 -0.8819  2.0995
63458SOL    HW296980   1.847   9.366   3.134  0.1402 -2.9079 -1.5940
63459SOL     OW96981   6.648   5.123   3.255  0.3860  0.1388  0.3524
63459SOL    HW196982   6.702   5.140   3.332 -2.1250  2.2619  1.8278
63459SOL    HW296983   6.591   5.051   3.281  0.2273  0.1649  0.0816
63460SOL     OW96984   1.548   4.696   1.724 -0.4428  0.3937 -0.1125
63460SOL    HW196985   1.484   4.763   1.702  0.7419  1.3830 -0.6541
63460SOL    HW296986   1.631   4.744   1.733 -0.0400 -0.5809  2.2155
63461SOL     OW96987   8.891   9.441   3.803 -0.0628  0.0360 -0.4216
63461SOL    HW196988   8.863   9.518   3.852 -0.2028  0.6397 -1.4097
63461SOL    HW296989   8.814   9.384   3.800  0.4132 -0.7659  1.4209
63462SOL     OW96990   5.425   1.956  10.602  0.1517 -0.0941  0.0269
63462SOL    HW196991   5.470   2.002  10.532 -0.0125  1.8339  1.1107
63462SOL    HW296992   5.336   1.940  10.569 -0.3211  1.9477  0.2146
63463SOL     OW96993   6.265   9.556  11.433  0.4165  0.1045  0.0470
63463SOL    HW196994   6.327   9.591  11.368  0.4980  0.6913  0.4284
63463SOL    HW296995   6.310   9.568  11.517  0.0382 -0.0393  0.2711
63464SOL     OW96996   7.307   1.028   6.918  0.0058 -0.0270  0.1337
63464SOL    HW196997   7.382   1.063   6.869 -0.7180  0.8183 -0.3993
63464SOL    HW296998   7.295   1.090   6.990  0.5470 -0.8169  0.9214
63465SOL     OW96999   1.599   2.853   1.654 -0.7010  0.0744  0.2406
63465SOL    HW197000   1.669   2.849   1.589 -1.4857  0.6307 -0.6484
63465SOL    HW297001   1.600   2.943   1.686 -1.5268  0.3027 -0.3570
63466SOL     OW97002   4.272  11.287   3.102 -0.7879  0.4970  0.2000
63466SOL    HW197003   4.204  11.222   3.083 -2.0479  1.7466  0.2458
63466SOL    HW297004   4.228  11.371   3.091  0.5400  1.3402  1.0644
63467SOL     OW97005   6.525   4.278   2.489 -0.6737 -0.2054  0.1848
63467SOL    HW197006   6.620   4.280   2.474 -0.5417 -1.2844  0.7824
63467SOL    HW297007   6.508   4.355   2.542  0.0362 -0.5122  0.8852
63468SOL     OW97008   3.990   9.898   6.572  0.2900  0.1087  0.8805
63468SOL    HW197009   3.902   9.929   6.593 -0.2711 -0.1391 -0.9362
63468SOL    HW297010   4.030   9.968   6.521  0.4039 -0.5703  0.0066
63469SOL     OW97011   6.163  11.224   6.237 -0.2718 -0.2964  0.0589
63469SOL    HW197012   6.079  11.254   6.202  0.3407  2.0517  0.4066
63469SOL    HW297013   6.224  11.234   6.165  0.1765  0.4887  0.5304
63470SOL     OW97014   5.701   2.503   7.956  0.2379 -0.4599  0.0564
63470SOL    HW197015   5.637   2.575   7.949  0.5231 -0.2439 -0.3404
63470SOL    HW297016   5.785   2.544   7.935  0.4843 -0.7844  0.4070
63471SOL     OW97017   7.395   0.176   8.950  0.4258  0.4746 -0.2606
63471SOL    HW197018   7.457   0.111   8.984  0.2366  0.8399  0.8205
63471SOL    HW297019   7.323   0.124   8.916  1.3071  0.0414 -1.5495
63472SOL     OW97020   4.514   5.750  11.724 -0.3027  0.1901  0.0248
63472SOL    HW197021   4.423   5.762  11.698 -0.5502  1.6682  1.4031
63472SOL    HW297022   4.535   5.828  11.775  2.0146  0.3027 -0.9575
63473SOL     OW97023   8.815   9.919   6.159  0.1508 -0.3136  0.4876
63473SOL    HW197024   8.875   9.949   6.227  0.6296 -0.0188 -0.0525
63473SOL    HW297025   8.734   9.969   6.174 -0.2079 -1.2215  1.6454
63474SOL     OW97026   7.747   8.000   9.653 -0.1729 -0.0358  0.1883
63474SOL    HW197027   7.835   7.980   9.686  0.4425 -0.4981 -1.5937
63474SOL    HW297028   7.722   8.080   9.700  0.9466 -0.2262  1.1595
63475SOL     OW97029  11.379   9.385   0.185  0.1612 -0.5154 -0.0567
63475SOL    HW197030  11.411   9.460   0.234 -3.0986  0.0925  1.4577
63475SOL    HW297031  11.373   9.416   0.094  1.8814 -0.0773 -0.0446
63476SOL     OW97032   2.409   1.560   4.755 -0.6562  0.5949 -0.0935
63476SOL    HW197033   2.354   1.619   4.703  0.4391  0.5454 -1.3775
63476SOL    HW297034   2.488   1.611   4.773 -0.8997  0.4987  1.2983
63477SOL     OW97035   0.532   6.761  12.507  0.1442 -0.9093  0.3828
63477SOL    HW197036   0.579   6.843  12.522 -0.3619 -0.6864  0.7593
63477SOL    HW297037   0.441   6.780  12.531 -0.5371 -0.8062 -1.9842
63478SOL     OW97038  11.518   4.677   5.934 -0.3100 -0.3951 -0.0850
63478SOL    HW197039  11.424   4.694   5.936 -0.2516 -0.0778  0.0132
63478SOL    HW297040  11.547   4.691   6.024 -0.3370 -1.4931  0.1041
63479SOL     OW97041   0.332   1.222   3.787  0.0489 -0.5873 -0.0714
63479SOL    HW197042   0.386   1.254   3.715  0.6402 -0.1618  0.5646
63479SOL    HW297043   0.246   1.208   3.747  0.3559 -0.2974 -0.8481
63480SOL     OW97044   2.484   5.121   7.038  0.2255  0.3722  0.1568
63480SOL    HW197045   2.464   5.212   7.059  2.0122  0.7715  0.2393
63480SOL    HW297046   2.552   5.125   6.971 -0.6153 -0.9249 -0.8479
63481SOL     OW97047   4.139   6.779   2.700 -0.1288  0.2034 -0.1585
63481SOL    HW197048   4.070   6.714   2.715  1.2395 -1.8717 -2.0226
63481SOL    HW297049   4.092   6.859   2.675 -1.8872 -0.9853 -0.8715
63482SOL     OW97050   4.614   0.319  11.471  0.8952  0.3487 -0.4826
63482SOL    HW197051   4.631   0.270  11.552  0.4547 -1.5571 -1.4819
63482SOL    HW297052   4.590   0.252  11.407 -0.5327  1.9597 -1.7391
63483SOL     OW97053  11.476   0.708  10.035 -0.3339 -0.2626 -0.1418
63483SOL    HW197054  11.418   0.669  10.100 -1.0211 -0.2886 -0.7561
63483SOL    HW297055  11.522   0.777  10.081  0.5815 -1.4957  0.8609
63484SOL     OW97056   8.227  11.507   2.990 -0.4344 -0.1456 -0.7194
63484SOL    HW197057   8.162  11.440   2.969 -0.0656 -1.1908  1.2888
63484SOL    HW297058   8.220  11.569   2.918 -2.1416 -1.3328 -1.6634
63485SOL     OW97059   5.131  11.670   3.177  0.1605  0.7440  0.3659
63485SOL    HW197060   5.186  11.675   3.255  0.5418  0.1009  0.1447
63485SOL    HW297061   5.184  11.623   3.113 -0.4118  0.6566 -0.0522
63486SOL     OW97062   8.922   8.900   5.800 -0.5647 -0.4259  0.4741
63486SOL    HW197063   8.973   8.892   5.880  0.8090  0.3779 -0.2735
63486SOL    HW297064   8.869   8.820   5.797 -0.6494 -0.4624  2.1598
63487SOL     OW97065   5.268  10.450   7.394  0.4423  0.0368  0.1509
63487SOL    HW197066   5.182  10.416   7.371  0.3229 -1.1810  2.1454
63487SOL    HW297067   5.304  10.485   7.312 -1.3092 -0.8204 -1.0231
63488SOL     OW97068   5.230   7.745   6.694 -0.4968 -0.0458 -0.4920
63488SOL    HW197069   5.191   7.830   6.676 -1.6084  0.0568  2.0351
63488SOL    HW297070   5.304   7.739   6.633  0.3455  3.2412  0.0240
63489SOL     OW97071   0.356   9.083   4.237  0.0825 -0.3015  0.1618
63489SOL    HW197072   0.433   9.140   4.232  2.2203 -3.0261  0.1278
63489SOL    HW297073   0.338   9.058   4.147  0.9477 -1.8614  0.3948
63490SOL     OW97074   5.119   5.309   8.754 -0.4310  0.0398 -0.5915
63490SOL    HW197075   5.149   5.363   8.828  1.2041  0.7714 -1.7240
63490SOL    HW297076   5.027   5.332   8.744 -0.0018  2.0314 -0.4826
63491SOL     OW97077   3.416   7.193   4.082  0.0945 -0.0805 -0.1912
63491SOL    HW197078   3.323   7.204   4.061 -0.4706 -1.1350  1.5502
63491SOL    HW297079   3.421   7.203   4.177  1.3943 -2.2065  0.0300
63492SOL     OW97080   4.517   3.273   7.319  0.0717 -0.5468  0.3954
63492SOL    HW197081   4.486   3.219   7.391 -0.1510 -1.0122 -0.0417
63492SOL    HW297082   4.586   3.327   7.357 -1.6512  0.9666  1.5451
63493SOL     OW97083   8.973   5.608  10.475  0.4278  0.0148  0.3608
63493SOL    HW197084   9.061   5.571  10.464  0.5420  0.0012  1.2511
63493SOL    HW297085   8.978   5.694  10.433  1.3617  0.7122  1.8441
63494SOL     OW97086   5.393   2.294   9.399 -0.5061  0.7471  0.8996
63494SOL    HW197087   5.437   2.310   9.483  0.5333 -1.3190  0.8019
63494SOL    HW297088   5.456   2.244   9.348 -2.2158 -0.5489 -0.0365
63495SOL     OW97089   6.182   4.859  10.668  0.2001 -0.2226 -0.3167
63495SOL    HW197090   6.160   4.885  10.579  1.6374 -0.5820 -0.7960
63495SOL    HW297091   6.277   4.846  10.667 -0.1337 -3.6630  0.3350
63496SOL     OW97092   1.550  10.864   7.825  0.3743  0.6856 -0.0989
63496SOL    HW197093   1.596  10.942   7.792  0.4173  1.5347  1.7866
63496SOL    HW297094   1.574  10.861   7.918  0.0530 -1.3869 -0.0433
63497SOL     OW97095   3.012   3.216   9.836  0.1130 -0.2781 -0.0301
63497SOL    HW197096   3.100   3.239   9.808 -1.1810  2.5732 -2.3327
63497SOL    HW297097   2.969   3.300   9.852 -1.8191 -1.6049  2.5022
63498SOL     OW97098  12.443   2.021   4.826 -0.0724 -0.2010  0.1189
63498SOL    HW197099  12.525   1.976   4.805  0.2423  0.8884 -1.0791
63498SOL    HW297100  12.455   2.052   4.916  0.7281 -0.2837  0.0472
63499SOL     OW97101   6.048   7.559   5.100 -0.0088 -0.1272 -0.6252
63499SOL    HW197102   5.983   7.628   5.087 -0.5029 -0.5961 -0.6772
63499SOL    HW297103   6.127   7.593   5.057  0.3142  1.1866  0.9267
63500SOL     OW97104   4.545   4.173   5.242  0.1990  0.0143 -0.0581
63500SOL    HW197105   4.468   4.151   5.295 -1.6092  2.2077 -1.5637
63500SOL    HW297106   4.607   4.102   5.259 -1.8540 -1.4815  1.7951
63501SOL     OW97107  10.079   3.111   0.376 -0.4713 -0.5974  0.3241
63501SOL    HW197108  10.100   3.068   0.459 -0.4895 -0.9064  0.1673
63501SOL    HW297109   9.986   3.131   0.382 -0.2817  0.2359  0.7706
63502SOL     OW97110  11.438   6.656   7.448  0.1969 -0.2031  0.5419
63502SOL    HW197111  11.367   6.668   7.384 -0.1140 -0.4327  0.8403
63502SOL    HW297112  11.471   6.744   7.462 -0.0480 -0.0886  0.4203
63503SOL     OW97113   0.483  10.117  11.184 -0.1877  0.0265 -0.2142
63503SOL    HW197114   0.519  10.036  11.148  1.3433  0.5999 -0.0401
63503SOL    HW297115   0.399  10.128  11.139  0.1863 -0.9647 -1.2002
63504SOL     OW97116   5.024  10.027   0.264  0.1925  0.0396 -0.3655
63504SOL    HW197117   4.965  10.010   0.337 -1.8301  1.3885 -1.5560
63504SOL    HW297118   5.074  10.105   0.290  0.4370 -0.2709  0.0976
63505SOL     OW97119  11.237   2.517   5.418  0.2824  0.0914  0.2838
63505SOL    HW197120  11.213   2.535   5.327 -1.1783  0.1746  0.6633
63505SOL    HW297121  11.303   2.448   5.412 -0.4911 -0.5836 -0.8024
63506SOL     OW97122  11.077   9.019   4.071 -0.3939 -0.7847  0.0664
63506SOL    HW197123  11.145   8.951   4.066  0.4686  0.0454  0.0859
63506SOL    HW297124  11.033   9.003   4.155  1.4169  0.1227  1.2650
63507SOL     OW97125   0.826   8.026   2.162  0.1074  0.5398 -0.2573
63507SOL    HW197126   0.888   8.009   2.233  0.9405  0.2047 -1.0340
63507SOL    HW297127   0.793   8.114   2.179 -0.2229  0.2005  0.9044
63508SOL     OW97128   5.200  10.762   3.874 -0.5017 -0.2245  0.1249
63508SOL    HW197129   5.222  10.698   3.807  0.1223  0.6774 -0.5409
63508SOL    HW297130   5.112  10.736   3.904 -0.0643 -1.6643  0.2239
63509SOL     OW97131  10.079   2.138  10.174 -0.0480  0.1645  0.0518
63509SOL    HW197132  10.136   2.198  10.127 -0.0430  0.4831  0.4602
63509SOL    HW297133  10.050   2.187  10.251 -0.4050 -0.1961  0.1538
63510SOL     OW97134  11.452  11.519   0.371  0.1849  0.1541 -1.0312
63510SOL    HW197135  11.503  11.438   0.369  0.9352  0.5046  1.2994
63510SOL    HW297136  11.517  11.589   0.379 -0.5225  0.8707 -1.4162
63511SOL     OW97137   9.759   7.257   6.191 -0.3482  0.0533  0.0770
63511SOL    HW197138   9.691   7.273   6.125  2.0421  2.6542 -2.0145
63511SOL    HW297139   9.771   7.342   6.234  0.5861 -0.7128  1.4140
63512SOL     OW97140  10.512   1.510  12.001  0.2756  0.0648  0.3209
63512SOL    HW197141  10.593   1.535  11.957 -0.6643  0.4314 -1.2992
63512SOL    HW297142  10.519   1.416  12.014  0.7495  0.0210 -0.2490
63513SOL     OW97143   3.305   7.486   6.302  0.2307 -0.4485  0.3966
63513SOL    HW197144   3.273   7.406   6.343  1.3857 -1.9876 -1.4954
63513SOL    HW297145   3.399   7.487   6.321  0.2241  0.5141  0.4570
63514SOL     OW97146  10.447   8.366  11.298 -0.5732 -0.4351 -0.2494
63514SOL    HW197147  10.388   8.373  11.223  1.7274  1.0971 -2.0197
63514SOL    HW297148  10.429   8.444  11.350 -1.9898 -1.3713  0.7430
63515SOL     OW97149   5.020  12.602   4.304 -0.2100 -0.5719  0.2832
63515SOL    HW197150   4.967  12.556   4.370  0.7755 -1.3026  0.5979
63515SOL    HW297151   5.017  12.694   4.331  1.1552 -0.9906  2.1271
63516SOL     OW97152  12.529   9.361   9.335  0.0524  0.0420  0.6314
63516SOL    HW197153  12.465   9.313   9.389  1.3404 -0.6896  1.5478
63516SOL    HW297154  12.524   9.451   9.367 -0.8330  0.0997  0.3748
63517SOL     OW97155   0.677   5.678   9.820 -0.5511 -0.2663 -0.7155
63517SOL    HW197156   0.630   5.761   9.812 -1.6667 -0.8062  0.0460
63517SOL    HW297157   0.713   5.679   9.909 -0.9459 -0.7850 -0.5444
63518SOL     OW97158   0.824   6.976   3.840  0.0672 -0.1206  0.1952
63518SOL    HW197159   0.745   6.924   3.859 -0.0820 -0.0513 -0.2276
63518SOL    HW297160   0.795   7.040   3.775  0.4175  0.0596  0.2178
63519SOL     OW97161   1.706   3.294   9.095  0.0555  0.4196  0.2289
63519SOL    HW197162   1.687   3.203   9.117 -0.6844  1.2783  3.6364
63519SOL    HW297163   1.801   3.301   9.102  0.1145 -0.0682 -0.0124
63520SOL     OW97164   8.798   1.927   2.283  0.1666 -0.2720  0.4867
63520SOL    HW197165   8.853   1.887   2.216  0.1490 -0.2553  0.4620
63520SOL    HW297166   8.747   1.854   2.319 -1.0336 -0.0521 -0.6581
63521SOL     OW97167   6.608  10.574   2.819  0.3592 -0.3569 -0.8480
63521SOL    HW197168   6.670  10.643   2.841 -1.4903  1.3185 -0.6141
63521SOL    HW297169   6.531  10.592   2.873 -1.5953 -0.3366 -3.4084
63522SOL     OW97170   6.849   5.685   1.870  0.2197 -0.3799 -0.6185
63522SOL    HW197171   6.841   5.590   1.867  0.7048 -0.5205  1.1268
63522SOL    HW297172   6.783   5.717   1.808 -0.0931 -1.8359 -1.0747
63523SOL     OW97173   4.898   4.566   4.967 -0.2025  0.1540  0.1498
63523SOL    HW197174   4.986   4.601   4.977  0.3719 -0.3811 -2.3108
63523SOL    HW297175   4.840   4.642   4.978  0.4743  0.4004  2.3799
63524SOL     OW97176   7.477   4.636   1.939  0.1985 -0.4950  0.5243
63524SOL    HW197177   7.488   4.542   1.928 -0.4426 -0.4214 -0.9753
63524SOL    HW297178   7.419   4.645   2.014  2.3887 -1.1742  2.3921
63525SOL     OW97179   6.971   7.835   9.358  0.2807  0.0740 -0.1414
63525SOL    HW197180   6.892   7.800   9.399 -0.3136  2.1094  0.5956
63525SOL    HW297181   7.043   7.785   9.396 -0.4788 -0.1258  1.0975
63526SOL     OW97182   0.002  11.873   6.395  0.2372 -0.2964  0.0614
63526SOL    HW197183   0.070  11.872   6.463 -1.0792 -0.6531  1.4140
63526SOL    HW297184   0.043  11.919   6.322  1.2220  1.4496  1.6197
63527SOL     OW97185   8.663   3.040   9.320 -0.1961 -0.2927  0.3796
63527SOL    HW197186   8.571   3.052   9.344 -1.4709 -0.2376 -3.8176
63527SOL    HW297187   8.674   2.945   9.317  1.2806 -0.5082  4.7303
63528SOL     OW97188   9.115  10.449  10.101 -0.0671 -0.2653  0.7186
63528SOL    HW197189   9.206  10.473  10.117  0.0764 -0.7525  0.6136
63528SOL    HW297190   9.086  10.509  10.032  0.3295 -0.4804  0.3682
63529SOL     OW97191  10.691   3.895   0.959  0.1476  0.1394  0.7579
63529SOL    HW197192  10.726   3.918   0.873  1.4321 -1.6253  0.7361
63529SOL    HW297193  10.622   3.831   0.940  0.6456 -0.4895  1.0328
63530SOL     OW97194  12.534   6.628   6.844  0.2182  0.4901 -0.4940
63530SOL    HW197195  12.514   6.688   6.771  0.6242  1.9810  0.5625
63530SOL    HW297196  12.491   6.668   6.919 -0.6744 -1.3300  0.0085
63531SOL     OW97197   2.235   6.363   5.124 -0.0843  0.6518  0.2283
63531SOL    HW197198   2.269   6.431   5.066  0.5646 -0.1382 -0.3496
63531SOL    HW297199   2.214   6.290   5.066  1.1590 -0.3787  1.0175
63532SOL     OW97200   1.008   6.344  10.476 -0.1747  0.4782  0.2823
63532SOL    HW197201   0.931   6.357  10.532 -0.1280 -0.3345  0.5552
63532SOL    HW297202   1.061   6.280  10.524 -0.3210 -0.5293 -0.8681
63533SOL     OW97203   6.267   8.456   2.204  0.1787 -1.0593  0.9179
63533SOL    HW197204   6.253   8.547   2.179  1.2520 -0.9926  0.5356
63533SOL    HW297205   6.182   8.428   2.240 -0.5399 -0.2859 -0.1030
63534SOL     OW97206   9.492   4.807   9.152 -0.6193 -0.3482 -0.2104
63534SOL    HW197207   9.408   4.820   9.195 -0.8970  1.2093 -1.1895
63534SOL    HW297208   9.525   4.895   9.134  0.7802 -0.9374 -0.7172
63535SOL     OW97209   8.116  11.481   5.054 -1.0418 -0.0590 -0.3265
63535SOL    HW197210   8.029  11.490   5.091 -0.6687 -1.9587  1.1402
63535SOL    HW297211   8.130  11.387   5.046  0.1401  0.2224 -2.4280
63536SOL     OW97212   0.603   8.075   0.169  0.2896  0.2239 -0.4684
63536SOL    HW197213   0.598   7.990   0.125  1.2229 -1.0106  1.6208
63536SOL    HW297214   0.527   8.076   0.227 -0.0720  1.1177 -0.9481
63537SOL     OW97215   4.847  12.522   9.875 -0.3847  0.1079 -0.0345
63537SOL    HW197216   4.933  12.479   9.876  0.0974  0.9404  2.5205
63537SOL    HW297217   4.801  12.486   9.951 -1.1154  1.8266  0.3916
63538SOL     OW97218   8.668   0.789   0.324 -0.3548  0.1155  0.2157
63538SOL    HW197219   8.687   0.846   0.399 -0.4984 -0.0624  0.3904
63538SOL    HW297220   8.721   0.710   0.340  1.0822  0.8377 -0.8457
63539SOL     OW97221   4.829   8.554   0.157 -0.5025 -0.0516 -0.1536
63539SOL    HW197222   4.878   8.472   0.158  0.2354  0.3644 -0.7607
63539SOL    HW297223   4.809   8.572   0.249  0.7622 -0.0803  0.1415
63540SOL     OW97224   7.607  12.685   6.647  0.1158  0.3010 -0.8055
63540SOL    HW197225   7.653  12.756   6.693 -0.3859 -0.1362  0.4259
63540SOL    HW297226   7.559  12.640   6.716  0.3692 -1.2010 -1.5841
63541SOL     OW97227   7.736   1.251  11.062  0.4864 -0.1466 -1.1855
63541SOL    HW197228   7.706   1.185  11.124  0.6811  2.4345  1.8907
63541SOL    HW297229   7.659   1.270  11.009 -0.5664 -0.4071  0.1876
63542SOL     OW97230   0.616  12.126  10.892 -0.6491  0.0233 -0.3902
63542SOL    HW197231   0.643  12.124  10.800 -1.5598 -0.4439 -0.6631
63542SOL    HW297232   0.569  12.044  10.905  0.3216 -0.3749  0.7759
63543SOL     OW97233   9.906   8.235   0.637 -0.5060  0.2350 -0.0495
63543SOL    HW197234   9.903   8.159   0.579 -0.0066 -0.0575  0.2959
63543SOL    HW297235   9.874   8.202   0.721 -0.0041  0.3274  0.1808
63544SOL     OW97236   2.553   9.341  11.435 -0.5525  0.7022  0.3090
63544SOL    HW197237   2.483   9.401  11.409  0.0117  0.8506 -0.9207
63544SOL    HW297238   2.632   9.378  11.397 -0.4916 -2.0638 -2.7561
63545SOL     OW97239   8.911   8.231   9.579 -0.0832  0.1591  0.4326
63545SOL    HW197240   8.840   8.173   9.553 -0.3870 -0.1425  1.8600
63545SOL    HW297241   8.987   8.173   9.589  0.2479  0.3992 -0.5389
63546SOL     OW97242   5.774  12.588  12.647  0.4015  0.0620 -0.3434
63546SOL    HW197243   5.701  12.617  12.701  0.0354 -1.9924  0.3375
63546SOL    HW297244   5.846  12.575  12.709  0.5944 -0.3696 -0.6562
63547SOL     OW97245  10.692   9.128   1.071 -0.0002  0.1041 -0.0911
63547SOL    HW197246  10.623   9.102   1.132  0.0666  0.1767  0.0169
63547SOL    HW297247  10.737   9.047   1.049  1.9299  0.3841  2.3325
63548SOL     OW97248   0.889   2.709   5.470 -0.1356 -0.3051 -0.0820
63548SOL    HW197249   0.980   2.681   5.463 -0.4025 -0.9584 -1.2801
63548SOL    HW297250   0.866   2.692   5.562  0.3397 -2.1251 -0.2556
63549SOL     OW97251   4.177   7.051   1.751  0.1091  0.3233  0.7206
63549SOL    HW197252   4.150   7.072   1.840 -1.7175 -1.0842  0.5768
63549SOL    HW297253   4.236   6.976   1.760 -1.7507 -1.2330  0.7193
63550SOL     OW97254   1.890   5.102   8.331  0.9713  0.2579 -0.1361
63550SOL    HW197255   1.826   5.051   8.382 -0.3217  1.8935 -0.0448
63550SOL    HW297256   1.930   5.160   8.395  0.1786  1.5039 -0.7311
63551SOL     OW97257   5.985   6.939   4.815  0.2934  0.2580  0.1941
63551SOL    HW197258   6.080   6.929   4.808  0.1865 -0.5411 -0.3060
63551SOL    HW297259   5.972   7.009   4.879  1.2310  1.1628 -0.5669
63552SOL     OW97260   5.535   6.142   3.040 -0.4640  0.7562  0.4511
63552SOL    HW197261   5.538   6.055   3.000 -1.6053  0.8843  0.0457
63552SOL    HW297262   5.626   6.160   3.065 -0.1249 -0.3250  0.0627
63553SOL     OW97263  12.695  10.265   1.462 -0.1864  0.1703 -0.6669
63553SOL    HW197264  12.650  10.341   1.425 -0.8874 -0.8006 -1.8767
63553SOL    HW297265  12.628  10.196   1.464  1.0221 -1.0878 -1.7948
63554SOL     OW97266   8.740   2.540   1.134 -0.2178 -0.5875 -0.2097
63554SOL    HW197267   8.772   2.462   1.089 -1.9119 -1.2034 -0.4202
63554SOL    HW297268   8.696   2.592   1.067 -1.0399 -0.5537  0.3289
63555SOL     OW97269  10.096   1.262  11.693  0.2708 -0.4542  0.3045
63555SOL    HW197270  10.003   1.275  11.712  0.3762  0.7386  0.0697
63555SOL    HW297271  10.132   1.351  11.685  1.1327 -0.8911 -1.0363
63556SOL     OW97272   2.596   8.234   0.327 -0.2018  0.0010  0.2590
63556SOL    HW197273   2.549   8.306   0.370  0.1170  0.7529 -0.6219
63556SOL    HW297274   2.689   8.253   0.344 -0.1746 -1.3350  1.7710
63557SOL     OW97275   1.349   0.086  12.772 -0.4000 -0.5699  1.1615
63557SOL    HW197276   1.387   0.161  12.819  0.2578 -0.5611  0.6348
63557SOL    HW297277   1.425   0.035  12.743 -0.6490  0.5023 -1.6936
63558SOL     OW97278   6.381   4.930   1.185 -0.1730  0.5036  0.6398
63558SOL    HW197279   6.433   4.993   1.235  2.2134 -1.6770  1.1432
63558SOL    HW297280   6.395   4.956   1.093 -0.0720  1.3000  0.8746
63559SOL     OW97281   7.872   4.152   8.757 -0.0183 -0.1428 -0.1256
63559SOL    HW197282   7.796   4.205   8.731 -0.1382 -0.7418 -1.0604
63559SOL    HW297283   7.836   4.086   8.816  0.1403  0.8276  1.0864
63560SOL     OW97284  12.727   6.232  10.407 -0.0645  0.3652  0.0061
63560SOL    HW197285  12.754   6.264  10.320 -1.0096 -0.4387 -0.6076
63560SOL    HW297286  12.809   6.201  10.447  0.9162  3.3900  0.6413
63561SOL     OW97287  10.269   0.037   1.045 -0.4177  0.0222 -0.3556
63561SOL    HW197288  10.257   0.052   1.139  1.4280 -0.9200  0.0733
63561SOL    HW297289  10.224  -0.045   1.027 -1.1607  0.4276 -0.4277
63562SOL     OW97290   6.673   9.559   9.052 -0.0193  0.3856  0.1201
63562SOL    HW197291   6.688   9.597   8.965 -3.3597  0.4716 -0.5543
63562SOL    HW297292   6.624   9.626   9.100 -1.2668 -0.9562  0.8026
63563SOL     OW97293   1.611   1.671  11.284 -0.1079 -0.0805  0.6348
63563SOL    HW197294   1.692   1.657  11.332  0.6338  2.7529  0.3869
63563SOL    HW297295   1.638   1.678  11.193 -0.7547 -0.1569  0.4352
63564SOL     OW97296   6.182   4.505   9.023 -0.5192  0.4708  0.1682
63564SOL    HW197297   6.108   4.504   8.962  0.3811 -1.5152 -0.9792
63564SOL    HW297298   6.256   4.538   8.971 -0.2218  0.8671  0.8291
63565SOL     OW97299   6.242   9.822   2.835  0.5626 -0.1138  0.3724
63565SOL    HW197300   6.232   9.751   2.771 -0.5680 -0.0741  0.4834
63565SOL    HW297301   6.181   9.800   2.905  1.0819  0.3501  0.9900
63566SOL     OW97302   7.852   8.345   7.055 -0.4451 -0.6549 -0.3737
63566SOL    HW197303   7.921   8.381   6.999  1.0318 -2.1272  0.4263
63566SOL    HW297304   7.783   8.318   6.994  0.2031 -0.2595 -1.2926
63567SOL     OW97305   6.371   4.780   7.630  0.0172 -0.2799 -0.0994
63567SOL    HW197306   6.348   4.858   7.680  1.3104 -0.4106  0.7316
63567SOL    HW297307   6.408   4.814   7.548  1.7398  0.0317  0.7782
63568SOL     OW97308   3.543  11.924   4.645 -0.5896 -0.1479  0.2534
63568SOL    HW197309   3.500  11.959   4.567  0.4368  1.4915  0.3801
63568SOL    HW297310   3.522  11.987   4.715  2.9572  1.5034  0.0434
63569SOL     OW97311   4.999   0.433   0.581  0.5446 -0.1905 -0.2156
63569SOL    HW197312   5.054   0.386   0.520  0.4863 -0.2424 -0.2285
63569SOL    HW297313   5.042   0.422   0.666  1.5666  1.3265 -0.4996
63570SOL     OW97314   9.005  10.613   9.725 -0.0576 -0.2953  0.5769
63570SOL    HW197315   9.015  10.521   9.750 -1.8599 -0.9494 -0.9202
63570SOL    HW297316   8.924  10.641   9.769  1.4357  1.2248  2.5904
63571SOL     OW97317   7.886   5.953   4.388  0.5025  0.4886 -1.1634
63571SOL    HW197318   7.976   5.976   4.409  0.7021 -1.2026  0.0331
63571SOL    HW297319   7.850   5.917   4.469 -0.4104 -1.2621 -2.2667
63572SOL     OW97320   3.897   8.617   8.783 -0.1865 -0.0750  0.2016
63572SOL    HW197321   3.959   8.544   8.780 -2.6134 -2.2182 -0.1457
63572SOL    HW297322   3.874   8.633   8.692 -0.4923  0.4303  0.3615
63573SOL     OW97323   6.988  11.465   0.434  0.5281  0.3555 -0.0749
63573SOL    HW197324   7.009  11.373   0.420 -2.0742 -0.2863 -0.3316
63573SOL    HW297325   7.070  11.505   0.465  1.3205 -2.3936  1.7114
63574SOL     OW97326   7.512   1.295   5.591  0.5052  0.5024 -0.4669
63574SOL    HW197327   7.453   1.229   5.555  0.8382 -0.5026  0.7720
63574SOL    HW297328   7.596   1.277   5.550  0.1401  1.5473 -1.7610
63575SOL     OW97329   1.901   6.607   5.173  0.1814 -0.1481 -0.9411
63575SOL    HW197330   1.985   6.598   5.217 -0.0650  3.0491  0.4360
63575SOL    HW297331   1.915   6.676   5.108 -1.2579  0.2336 -0.8895
63576SOL     OW97332   9.236   3.913   6.509 -0.6340  0.6779  0.0748
63576SOL    HW197333   9.322   3.944   6.479  0.3287 -1.3801  0.4993
63576SOL    HW297334   9.189   3.992   6.535  0.8587  1.9235 -0.8751
63577SOL     OW97335   1.396   9.113   7.501  0.0581 -0.0987 -0.3795
63577SOL    HW197336   1.434   9.069   7.424 -1.3008 -1.2334 -0.4315
63577SOL    HW297337   1.304   9.087   7.500 -0.3115  1.1102  0.7877
63578SOL     OW97338   9.408   8.482   6.969  0.4552 -0.1497 -0.3312
63578SOL    HW197339   9.337   8.543   6.992  0.3134 -0.0457 -1.0103
63578SOL    HW297340   9.484   8.538   6.953  0.2438 -0.1023 -1.2690
63579SOL     OW97341   9.044  11.698   7.369  0.0414  0.6037  0.7481
63579SOL    HW197342   9.032  11.642   7.293 -2.5514  0.2465  1.3374
63579SOL    HW297343   9.080  11.641   7.437  1.6699  0.7611  0.0683
63580SOL     OW97344   0.415   9.111   2.558  0.2381 -0.1035  0.1619
63580SOL    HW197345   0.427   9.018   2.575 -0.0444 -0.0406  0.7688
63580SOL    HW297346   0.352   9.139   2.625  0.2294  0.4949 -0.0904
63581SOL     OW97347   2.454   1.486   6.801 -0.4626  0.1168 -0.3267
63581SOL    HW197348   2.469   1.399   6.837 -1.7441  0.8792  2.2989
63581SOL    HW297349   2.534   1.505   6.750  1.1282 -1.4224  1.4477
63582SOL     OW97350   2.049   9.697   0.165 -0.5407 -0.1939  0.0059
63582SOL    HW197351   2.048   9.789   0.139 -2.6126  0.1561  1.1330
63582SOL    HW297352   1.957   9.671   0.165 -0.1499 -1.7461  1.4769
63583SOL     OW97353  11.536   7.397  10.423 -0.1786  0.7736  0.3212
63583SOL    HW197354  11.515   7.305  10.440 -0.1341  0.4797 -1.0450
63583SOL    HW297355  11.451   7.441  10.419 -0.2121  0.7514  0.7315
63584SOL     OW97356   9.121  10.669   7.260 -0.3650 -0.3344 -0.6022
63584SOL    HW197357   9.035  10.710   7.265 -0.5065 -0.7414  0.6882
63584SOL    HW297358   9.164  10.693   7.342 -0.8050 -3.4924  0.6654
63585SOL     OW97359   4.513  10.193   1.102  0.8611  0.1844 -0.3417
63585SOL    HW197360   4.588  10.252   1.098  0.3381  0.9837  0.8912
63585SOL    HW297361   4.451  10.237   1.161 -0.2905 -0.7738 -0.7923
63586SOL     OW97362   8.931  12.572  12.659  0.3008 -0.6319  0.3224
63586SOL    HW197363   9.021  12.596  12.636  0.3006 -0.0366  0.9006
63586SOL    HW297364   8.935  12.555  12.753 -0.3137 -0.0066  0.4665
63587SOL     OW97365  12.671   4.182   5.232 -0.1146 -0.3308 -0.0371
63587SOL    HW197366  12.709   4.228   5.307  0.4512  1.3180 -1.2526
63587SOL    HW297367  12.585   4.222   5.221 -0.4036 -0.9313  0.0509
63588SOL     OW97368   2.327   7.308   2.898  0.0943 -0.0964 -0.8375
63588SOL    HW197369   2.390   7.330   2.829  1.1393  1.8497  0.6356
63588SOL    HW297370   2.361   7.351   2.976 -2.0985 -0.5684  0.4604
63589SOL     OW97371  10.176   2.748  12.197  0.8217  0.2704  0.2662
63589SOL    HW197372  10.175   2.689  12.122 -0.6721 -0.2823  0.6945
63589SOL    HW297373  10.116   2.818  12.172  1.1164  0.6247  0.5433
63590SOL     OW97374   6.510   8.241   3.701  0.2972  0.0192  0.0812
63590SOL    HW197375   6.581   8.279   3.649  0.0361 -0.2725 -0.5098
63590SOL    HW297376   6.542   8.153   3.723  1.3144  0.8798  2.2821
63591SOL     OW97377   2.741   7.707   1.183  0.6691 -0.0572  0.1005
63591SOL    HW197378   2.745   7.749   1.097  0.6253 -1.3953 -0.5880
63591SOL    HW297379   2.801   7.757   1.237  0.3966  1.0562 -0.5935
63592SOL     OW97380   5.160   4.977   5.941 -0.4270  0.0994  0.4398
63592SOL    HW197381   5.101   5.036   5.894 -2.1182 -0.2882  1.9637
63592SOL    HW297382   5.120   4.890   5.931  1.2700 -0.6076 -0.5942
63593SOL     OW97383   0.276   1.355   1.836 -0.3384  0.4123  0.8978
63593SOL    HW197384   0.346   1.291   1.820 -0.7857  0.6313 -2.5896
63593SOL    HW297385   0.323   1.438   1.847  0.0515  0.0798  1.9551
63594SOL     OW97386   7.435  10.362   8.917 -0.5763 -0.1225  0.0178
63594SOL    HW197387   7.517  10.331   8.955 -0.5196  1.1655  1.0312
63594SOL    HW297388   7.440  10.336   8.825  0.9415 -0.1497  0.0767
63595SOL     OW97389   3.139  11.509  12.124 -0.0982  0.1734  0.2110
63595SOL    HW197390   3.056  11.558  12.129 -0.2874 -0.1637  0.3799
63595SOL    HW297391   3.142  11.459  12.205  0.5838  0.6759  0.5045
63596SOL     OW97392   2.725   6.735  10.416  0.0281 -0.1856 -0.4030
63596SOL    HW197393   2.704   6.811  10.469  0.6476  0.0111 -0.4301
63596SOL    HW297394   2.649   6.724  10.358  0.4327  1.1195 -1.2030
63597SOL     OW97395   3.295   2.621   7.405  0.1786  0.0690  0.2106
63597SOL    HW197396   3.229   2.690   7.416 -0.2407 -0.4791  1.3335
63597SOL    HW297397   3.309   2.589   7.494  0.6134 -1.0648 -0.2628
63598SOL     OW97398   2.320   4.651   5.126 -0.7368  0.4565  0.4193
63598SOL    HW197399   2.289   4.727   5.076  1.6089  0.9838 -0.3258
63598SOL    HW297400   2.349   4.589   5.059 -4.1932 -1.9820  0.9081
63599SOL     OW97401  10.454   4.405  10.082 -0.3145 -0.4053  0.3125
63599SOL    HW197402  10.387   4.469  10.061 -0.7179 -1.1904 -0.9299
63599SOL    HW297403  10.510   4.402  10.005  0.6137 -0.4239  0.9726
63600SOL     OW97404   6.725   7.501   3.629 -0.2211 -0.1328  0.1502
63600SOL    HW197405   6.650   7.560   3.624 -1.0357 -1.2211 -1.2622
63600SOL    HW297406   6.796   7.550   3.587 -0.8341 -0.0487 -0.8269
63601SOL     OW97407  12.038   8.103   0.361 -0.1809 -0.3124 -0.4038
63601SOL    HW197408  11.967   8.083   0.301 -0.2991 -2.4336  0.3518
63601SOL    HW297409  12.019   8.051   0.439  0.8469  1.0695  0.8452
63602SOL     OW97410   2.405  11.993   2.550 -0.3950 -0.1109  0.5101
63602SOL    HW197411   2.455  11.951   2.480 -0.4555  1.0052 -0.2355
63602SOL    HW297412   2.328  12.028   2.507 -0.9331 -0.2613  1.3323
63603SOL     OW97413   1.160   8.701   6.599 -0.0706 -0.0862 -0.0335
63603SOL    HW197414   1.072   8.705   6.561 -1.5492  2.4369  3.1617
63603SOL    HW297415   1.208   8.771   6.553 -0.4203  0.0087 -0.2637
63604SOL     OW97416   3.997  11.648   4.913  0.1889 -0.2471  0.5798
63604SOL    HW197417   3.979  11.729   4.866  0.3383 -0.6445 -0.1747
63604SOL    HW297418   3.988  11.671   5.005  2.6266  1.2293  0.5160
63605SOL     OW97419   6.904   3.749   3.505  0.6303  0.1543 -0.5580
63605SOL    HW197420   6.828   3.739   3.563  0.9967  1.0573  0.1037
63605SOL    HW297421   6.888   3.830   3.457  0.4824 -0.4241 -1.5154
63606SOL     OW97422   8.661   8.559  11.053 -0.1261 -0.4479  0.2284
63606SOL    HW197423   8.679   8.536  11.144  0.9418 -2.4850 -0.4573
63606SOL    HW297424   8.738   8.608  11.025  0.2277 -1.1426 -0.0179
63607SOL     OW97425   8.313   6.111   1.357  0.0393  0.6226 -0.4461
63607SOL    HW197426   8.371   6.079   1.426 -0.3170 -0.3789 -0.5848
63607SOL    HW297427   8.225   6.085   1.386 -0.2213  1.1276 -0.7738
63608SOL     OW97428   7.047   5.772   4.854  0.3921  0.3427  0.3009
63608SOL    HW197429   6.953   5.792   4.852  0.4654  0.7494 -2.9443
63608SOL    HW297430   7.087   5.835   4.796  2.1544 -2.0708 -1.3059
63609SOL     OW97431   9.527   9.474   9.290  0.1219 -0.3814 -0.7381
63609SOL    HW197432   9.497   9.553   9.334 -0.7100 -0.5101 -1.0683
63609SOL    HW297433   9.603   9.445   9.342 -2.1562 -1.8266  2.0734
63610SOL     OW97434   5.645   5.890   2.893  0.2264 -0.1273 -0.3330
63610SOL    HW197435   5.710   5.903   2.962  0.4815  1.8422 -0.8995
63610SOL    HW297436   5.657   5.799   2.866  2.0330 -0.1201  0.2976
63611SOL     OW97437  11.171   6.982   3.929 -0.6833 -0.2036  0.4632
63611SOL    HW197438  11.124   7.050   3.881 -0.9153 -0.1143  0.8146
63611SOL    HW297439  11.250   6.966   3.877 -1.4702 -0.9190 -0.5633
63612SOL     OW97440   8.090   9.000   8.648 -0.2152 -0.5255  0.0519
63612SOL    HW197441   8.152   8.966   8.584  0.8190 -0.3099  0.9088
63612SOL    HW297442   8.055   9.079   8.607  0.5779 -0.2810 -0.1813
63613SOL     OW97443  12.785   9.247  11.784 -0.2944 -0.4041  0.5174
63613SOL    HW197444  12.727   9.297  11.727 -0.6951 -0.4333  0.8974
63613SOL    HW297445  12.868   9.244  11.736 -0.5932 -0.3383 -0.0125
63614SOL     OW97446   4.637  11.982  12.299 -0.5459  0.0478 -0.2130
63614SOL    HW197447   4.727  11.986  12.267 -0.4193 -0.4958  0.0681
63614SOL    HW297448   4.624  11.890  12.323 -0.3569  0.5730  2.0811
63615SOL     OW97449   8.155   7.812   2.073  0.0646 -0.3826  0.7490
63615SOL    HW197450   8.242   7.791   2.038 -0.3374 -0.1146 -0.4638
63615SOL    HW297451   8.111   7.727   2.079 -0.0446 -0.3827  0.0635
63616SOL     OW97452   7.750   2.284   9.801  0.2451 -0.6699 -0.0837
63616SOL    HW197453   7.749   2.367   9.848 -0.3930 -0.2790 -0.7621
63616SOL    HW297454   7.843   2.264   9.789  0.4105  0.1522 -0.2562
63617SOL     OW97455   4.477  12.053   1.173  0.1621 -0.0756 -0.4788
63617SOL    HW197456   4.553  12.023   1.123  0.1261 -0.4936 -0.2893
63617SOL    HW297457   4.498  12.143   1.198 -0.4143  0.6501 -2.4420
63618SOL     OW97458   6.979   5.903   8.702 -0.1109 -0.0337  0.0623
63618SOL    HW197459   7.049   5.917   8.637  0.2169  1.7173  0.7452
63618SOL    HW297460   6.899   5.897   8.650  0.1696  1.1603 -0.5426
63619SOL     OW97461   2.802   3.737   0.976 -0.3022 -0.1607  0.3606
63619SOL    HW197462   2.883   3.772   1.013  0.3282 -1.2672  0.0838
63619SOL    HW297463   2.736   3.804   0.993  0.3314  0.0819  1.9785
63620SOL     OW97464   1.091   4.498   8.209 -0.0492 -0.3290  0.0846
63620SOL    HW197465   1.068   4.588   8.234  0.0714  0.0172 -0.9854
63620SOL    HW297466   1.127   4.459   8.288  1.8681  1.2243  0.0360
63621SOL     OW97467   6.160   9.230   4.317  0.2275  0.5483  0.4541
63621SOL    HW197468   6.238   9.189   4.280 -1.2709 -1.4311 -0.6724
63621SOL    HW297469   6.164   9.210   4.410  0.8384  0.1158  0.3409
63622SOL     OW97470   6.657   2.735   2.014 -0.0792  0.5871  0.2385
63622SOL    HW197471   6.744   2.696   2.007 -0.6788 -0.9531  0.8567
63622SOL    HW297472   6.672   2.820   2.056  1.1447  0.4716  0.0717
63623SOL     OW97473   6.817   8.721   2.936 -0.7046  0.3856  0.2398
63623SOL    HW197474   6.814   8.626   2.948  1.7049  0.4878  2.8337
63623SOL    HW297475   6.813   8.734   2.841  2.1970 -2.5910 -0.4771
63624SOL     OW97476   4.747   1.587   1.444 -0.1373  0.1311 -0.1381
63624SOL    HW197477   4.707   1.672   1.461  0.2172  0.3976 -0.5813
63624SOL    HW297478   4.716   1.530   1.514  0.1194  0.7921  0.5282
63625SOL     OW97479  11.300   3.410   3.823 -0.1220 -0.3587 -0.4506
63625SOL    HW197480  11.236   3.480   3.807  0.6526  0.7305  1.0340
63625SOL    HW297481  11.247   3.337   3.854 -0.7942  0.0445 -0.6150
63626SOL     OW97482  10.758   8.105  12.200  0.0681  0.0143 -0.0424
63626SOL    HW197483  10.709   8.066  12.272  0.2801  0.9117  0.6022
63626SOL    HW297484  10.712   8.076  12.121 -2.5156  2.0909  0.5554
63627SOL     OW97485  11.225  11.424   3.081 -0.3543 -0.3780 -0.1741
63627SOL    HW197486  11.259  11.514   3.080  1.7119 -0.9715 -3.8197
63627SOL    HW297487  11.277  11.380   3.148  0.3949  0.6238 -0.0638
63628SOL     OW97488   7.919  11.372  10.987  0.1605  0.1702  0.0397
63628SOL    HW197489   8.005  11.405  10.961 -0.2905  0.6313 -0.9282
63628SOL    HW297490   7.938  11.306  11.054  1.3058 -0.1103 -0.5275
63629SOL     OW97491   9.580  11.637   8.370  0.4550  0.0910 -0.4104
63629SOL    HW197492   9.650  11.702   8.370 -0.3756  1.1115  2.3692
63629SOL    HW297493   9.618  11.560   8.412  0.2655  0.2289  0.0172
63630SOL     OW97494   9.369   7.820   2.245 -0.6681 -0.2867 -0.2827
63630SOL    HW197495   9.459   7.828   2.276 -1.1551 -0.5905  1.3004
63630SOL    HW297496   9.367   7.871   2.164  1.8722 -3.2526 -2.4808
63631SOL     OW97497  11.107   4.376   5.115 -0.1601  0.2064  0.1867
63631SOL    HW197498  11.076   4.426   5.039  1.9931 -0.8968 -1.5472
63631SOL    HW297499  11.100   4.436   5.189 -0.3416  2.0718 -1.2867
63632SOL     OW97500   1.220   4.932   6.604  0.1800  0.3659  0.5037
63632SOL    HW197501   1.127   4.937   6.582 -0.4669  1.0392  3.0839
63632SOL    HW297502   1.244   4.841   6.584 -1.3009 -0.1146  0.7751
63633SOL     OW97503   8.400  11.847  11.476 -0.4561  0.4194  0.0451
63633SOL    HW197504   8.405  11.821  11.568  2.1856 -0.7308 -0.3362
63633SOL    HW297505   8.386  11.942  11.479  0.3126  0.5140  1.6348
63634SOL     OW97506   6.860   6.538  11.962  0.2807  0.0067  0.2967
63634SOL    HW197507   6.866   6.446  11.989 -1.3932 -1.3836 -3.4690
63634SOL    HW297508   6.781   6.570  12.006 -0.4180 -1.0769 -0.1179
63635SOL     OW97509  12.220   7.477  10.269 -0.0415 -0.2687 -0.6880
63635SOL    HW197510  12.188   7.397  10.226 -2.2562  0.8955 -1.3414
63635SOL    HW297511  12.247   7.534  10.197 -0.4956  0.3737 -0.3600
63636SOL     OW97512   9.238   0.700   3.280 -0.0139 -0.3792  0.0914
63636SOL    HW197513   9.302   0.745   3.224  0.7424 -1.0174  0.4210
63636SOL    HW297514   9.223   0.760   3.352 -1.5692  0.7841 -1.1389
63637SOL     OW97515   4.451   5.843   2.577  0.2556  0.0465  0.1358
63637SOL    HW197516   4.429   5.810   2.489  1.5776 -0.6270  0.0238
63637SOL    HW297517   4.380   5.812   2.633 -0.0390 -0.4727 -0.5097
63638SOL     OW97518  11.399   7.293  11.794  0.9654 -0.4015  0.5989
63638SOL    HW197519  11.381   7.371  11.741 -0.1293 -0.0037  1.5139
63638SOL    HW297520  11.401   7.222  11.730 -1.7703 -0.1469  0.0906
63639SOL     OW97521   0.710   0.007  10.234  0.0662 -0.2695  0.1096
63639SOL    HW197522   0.759   0.051  10.165  0.0209  0.0360  0.2675
63639SOL    HW297523   0.692   0.076  10.298 -0.5733 -0.3650  0.0490
63640SOL     OW97524   1.862   0.769   1.953 -0.4373  0.2503  1.0603
63640SOL    HW197525   1.875   0.675   1.968 -1.5075  0.1303  1.3246
63640SOL    HW297526   1.950   0.806   1.959  0.2894 -0.9623 -0.8749
63641SOL     OW97527   5.858   8.104  12.070 -0.2477 -0.1140  0.3298
63641SOL    HW197528   5.845   8.015  12.038 -1.7955  0.4658 -0.7728
63641SOL    HW297529   5.910   8.147  12.002  1.0250 -0.3012  1.1413
63642SOL     OW97530   0.849   5.180   6.056  0.3255 -0.3525 -0.0965
63642SOL    HW197531   0.906   5.202   5.982  1.4631 -0.4138  0.7345
63642SOL    HW297532   0.875   5.241   6.125 -0.1678 -0.8096  0.5012
63643SOL     OW97533  10.959   4.162   0.998 -0.4466  0.4508  0.3020
63643SOL    HW197534  10.918   4.080   0.973 -2.0119  1.0556  0.7404
63643SOL    HW297535  11.034   4.171   0.939 -0.7417 -0.8705 -0.3023
63644SOL     OW97536   1.236   5.107  12.565  0.0054  0.0146 -0.2592
63644SOL    HW197537   1.240   5.095  12.470  0.8821 -0.7631 -0.1378
63644SOL    HW297538   1.150   5.073  12.590 -0.8772  1.6179 -0.9394
63645SOL     OW97539   5.931   8.702   4.747  0.0077  0.5669  0.5858
63645SOL    HW197540   5.927   8.786   4.702  1.0926  0.7648  0.8226
63645SOL    HW297541   6.012   8.706   4.798 -0.6542 -0.0596  1.7274
63646SOL     OW97542   9.359   7.914   0.158  0.2927  0.1368 -0.0771
63646SOL    HW197543   9.415   7.911   0.235 -1.5514  1.0836  1.3870
63646SOL    HW297544   9.387   7.993   0.112 -0.8266  1.5113  1.4989
63647SOL     OW97545   3.869  11.614  10.095  0.5107 -0.5830 -0.6525
63647SOL    HW197546   3.789  11.666  10.107  0.8483 -0.4924  1.5342
63647SOL    HW297547   3.870  11.553  10.169  2.6420 -0.3504 -0.4245
63648SOL     OW97548  12.621  10.156   5.952  0.2918 -0.1465  0.2040
63648SOL    HW197549  12.667  10.171   6.034 -1.7013  0.8681  1.2172
63648SOL    HW297550  12.679  10.192   5.885  1.6037 -0.2564  1.2313
63649SOL     OW97551   5.727   6.328  12.651 -0.3148 -0.1865  0.7706
63649SOL    HW197552   5.682   6.326  12.735 -0.7753 -0.1912  0.5287
63649SOL    HW297553   5.815   6.294  12.669  0.0792  1.1685  1.5322
63650SOL     OW97554  10.853   6.816  10.310 -0.0929  0.0317  0.2490
63650SOL    HW197555  10.794   6.764  10.365 -1.2311  0.8493 -0.1635
63650SOL    HW297556  10.808   6.900  10.300 -0.3645 -0.3821 -2.6474
63651SOL     OW97557   4.722   8.048  10.241  0.4358  0.1321  0.2215
63651SOL    HW197558   4.806   8.022  10.204 -0.3701 -0.0688 -1.5472
63651SOL    HW297559   4.684   7.966  10.274 -0.4723 -0.3876 -1.9777
63652SOL     OW97560   3.237   7.535   3.608 -0.2355  0.4648  1.0794
63652SOL    HW197561   3.294   7.462   3.586  0.7880  1.6859 -0.5902
63652SOL    HW297562   3.230   7.532   3.704  2.8655  0.3740  1.4091
63653SOL     OW97563  10.879   5.704   2.737 -0.6527 -0.4981 -0.0929
63653SOL    HW197564  10.922   5.709   2.823 -1.1415  0.1805  0.1245
63653SOL    HW297565  10.804   5.763   2.745 -0.5281 -0.1858 -1.0871
63654SOL     OW97566   5.464   7.487  12.344 -0.9730 -0.5493  0.1950
63654SOL    HW197567   5.528   7.483  12.274 -0.8684 -2.7772  0.3600
63654SOL    HW297568   5.426   7.575  12.337  2.9552  1.4473  0.9369
63655SOL     OW97569   6.692   4.263   9.249  0.4032  0.6359 -0.0480
63655SOL    HW197570   6.622   4.266   9.184 -0.7061  0.5205  1.0947
63655SOL    HW297571   6.651   4.294   9.330  0.9745 -1.7098  1.2482
63656SOL     OW97572   6.496  10.517   1.312  0.8302  0.4253 -0.1165
63656SOL    HW197573   6.415  10.474   1.284  0.6000 -0.1465  1.3815
63656SOL    HW297574   6.528  10.560   1.232  0.5527 -1.6780 -1.4287
63657SOL     OW97575   4.754   1.577   8.976  0.2488 -0.0934  0.4685
63657SOL    HW197576   4.687   1.643   8.992  0.2726 -0.3729  1.8719
63657SOL    HW297577   4.835   1.627   8.968  0.2856  0.0676  1.6363
63658SOL     OW97578   0.333   9.143   8.377  0.3000 -0.0201  0.0019
63658SOL    HW197579   0.354   9.192   8.457  0.7203  0.5637 -0.4537
63658SOL    HW297580   0.402   9.077   8.370 -1.2672 -1.9570  1.6064
63659SOL     OW97581   3.341   2.956   2.172 -0.0052  0.0785  0.1253
63659SOL    HW197582   3.425   2.934   2.130 -2.0852 -2.1261 -3.4004
63659SOL    HW297583   3.317   3.040   2.133  1.0437  1.4228  2.1854
63660SOL     OW97584   6.478   6.905   3.594  0.1112 -0.1455 -0.0064
63660SOL    HW197585   6.510   6.915   3.505 -0.1470  2.1511  0.1119
63660SOL    HW297586   6.383   6.899   3.585  0.1169 -0.3835  0.0816
63661SOL     OW97587   0.082   8.673  10.661 -0.2910 -0.1745 -0.2391
63661SOL    HW197588   0.166   8.666  10.706 -0.8049 -1.4363  0.5611
63661SOL    HW297589   0.031   8.599  10.693 -1.6452  0.4507 -0.8721
63662SOL     OW97590   8.348   3.639   1.806 -0.1595  0.3101 -0.2692
63662SOL    HW197591   8.324   3.700   1.736 -0.8739 -1.0048 -1.2003
63662SOL    HW297592   8.342   3.553   1.766  0.4142 -0.4155  1.1471
63663SOL     OW97593   8.088   4.600   8.203  0.2316 -0.7872 -0.2288
63663SOL    HW197594   7.998   4.631   8.203  0.8146  1.0251  0.2013
63663SOL    HW297595   8.139   4.674   8.236  1.9478 -1.5622 -1.0199
63664SOL     OW97596   6.904   5.338   1.375  0.4446  0.2784 -0.2249
63664SOL    HW197597   6.842   5.266   1.388  0.2993  0.4455  0.0095
63664SOL    HW297598   6.990   5.296   1.381  0.3515  0.0021 -0.8184
63665SOL     OW97599   0.314   3.926   0.230  0.0146  0.0958  0.0823
63665SOL    HW197600   0.403   3.906   0.258  0.2600 -0.4107 -0.9992
63665SOL    HW297601   0.310   3.894   0.140 -1.0648  0.7016 -0.0945
63666SOL     OW97602   3.898   1.700   2.003  0.1505  0.3181 -0.1696
63666SOL    HW197603   3.916   1.714   1.910  0.8318 -0.4677 -0.1651
63666SOL    HW297604   3.822   1.755   2.021 -0.0900  0.3527 -1.2317
63667SOL     OW97605   3.566   0.754  10.084  0.0068  0.0701  0.1327
63667SOL    HW197606   3.647   0.750  10.134 -0.3628  1.2121  0.8635
63667SOL    HW297607   3.496   0.749  10.149 -0.5064 -0.1185 -0.4153
63668SOL     OW97608   5.026  11.805   2.224 -0.0890  0.4800  0.4349
63668SOL    HW197609   5.021  11.710   2.234  1.6872  0.2822 -0.2765
63668SOL    HW297610   5.119  11.823   2.212 -0.6875  1.9492 -2.9651
63669SOL     OW97611  12.378   8.572   7.211  0.2973  0.2160  0.0819
63669SOL    HW197612  12.450   8.634   7.207  0.5958 -0.1809 -0.8627
63669SOL    HW297613  12.417   8.490   7.241 -0.0868  0.4504  1.2848
63670SOL     OW97614  12.353   7.561   6.412  0.3584  0.3114  0.4068
63670SOL    HW197615  12.357   7.657   6.403 -0.0881  0.4065  1.0869
63670SOL    HW297616  12.444   7.534   6.424  0.6660  0.4624 -1.4345
63671SOL     OW97617   9.507   6.138   1.291  0.3319  0.8130  0.1125
63671SOL    HW197618   9.534   6.072   1.355  1.6908 -0.0887 -1.3030
63671SOL    HW297619   9.569   6.128   1.219 -0.2402  2.7796 -0.7247
63672SOL     OW97620   9.931   9.669   2.720 -0.8276  0.6596 -0.1429
63672SOL    HW197621   9.850   9.666   2.668 -0.8832  0.7060 -0.0589
63672SOL    HW297622   9.902   9.662   2.810 -0.5865 -2.6459 -0.1820
63673SOL     OW97623   4.451   8.737   9.288 -0.7824  0.1280  0.2907
63673SOL    HW197624   4.540   8.770   9.278 -0.7986  0.2389  0.5076
63673SOL    HW297625   4.462   8.645   9.313 -0.7496 -0.2803 -1.1631
63674SOL     OW97626   9.917   2.935  10.553 -0.1987 -0.1654 -0.2175
63674SOL    HW197627   9.824   2.913  10.553 -0.3541  0.4452  0.6327
63674SOL    HW297628   9.957   2.873  10.492 -1.1919 -0.3082 -0.7331
63675SOL     OW97629   7.400   1.861  10.938 -0.3593 -0.5221  0.1124
63675SOL    HW197630   7.392   1.919  11.013 -0.1734 -0.0331 -0.2450
63675SOL    HW297631   7.321   1.806  10.941 -0.2890 -0.5921  0.7320
63676SOL     OW97632   5.968   8.012  12.644  0.3015 -0.0794  0.1215
63676SOL    HW197633   5.995   8.103  12.652  1.4340 -0.4622  0.9091
63676SOL    HW297634   6.039   7.962  12.684 -0.1005 -1.3402 -0.6794
63677SOL     OW97635   7.313   1.369   7.587  0.3255 -0.5947  0.1853
63677SOL    HW197636   7.338   1.460   7.571  2.0844 -0.8270  1.2556
63677SOL    HW297637   7.307   1.329   7.500  1.3561  0.1282 -0.2366
63678SOL     OW97638  11.047   5.803   0.250  0.4992 -0.0208 -0.5492
63678SOL    HW197639  10.952   5.817   0.250  0.4790  0.2259 -2.8089
63678SOL    HW297640  11.081   5.871   0.191  2.0899 -0.1088  0.2244
63679SOL     OW97641   9.568   9.091  11.980 -0.8887 -0.1371 -0.3513
63679SOL    HW197642   9.523   9.045  11.909 -0.4946  1.3438 -1.6188
63679SOL    HW297643   9.652   9.118  11.942  0.3571 -1.2967  1.4170
63680SOL     OW97644   5.839   6.016   0.362  0.5865 -0.0261 -0.1107
63680SOL    HW197645   5.928   6.000   0.332  0.6865 -0.1243  0.2331
63680SOL    HW297646   5.807   5.930   0.389  1.2425  0.3445  2.0557
63681SOL     OW97647   2.958   9.523   2.256 -0.4886 -0.4281  0.0352
63681SOL    HW197648   3.021   9.455   2.277  1.9352  1.1517 -1.5409
63681SOL    HW297649   2.883   9.477   2.220  0.3992 -2.3139  0.5037
63682SOL     OW97650  12.497  12.756  11.928 -0.4771 -0.3481  0.4695
63682SOL    HW197651  12.578  12.744  11.978 -0.4195 -0.0591  0.4481
63682SOL    HW297652  12.497  12.849  11.905 -1.4462 -0.0481  1.5799
63683SOL     OW97653   9.460   5.002  11.619  0.4278 -0.3682  0.2209
63683SOL    HW197654   9.383   4.967  11.574 -0.9837 -1.3281  3.1357
63683SOL    HW297655   9.433   5.089  11.648  0.9205 -0.2009  0.1820
63684SOL     OW97656   3.505   2.644   1.156 -0.4107 -0.0174 -0.1950
63684SOL    HW197657   3.477   2.732   1.131  1.0187  0.8927  1.2172
63684SOL    HW297658   3.581   2.626   1.101 -1.4288 -0.9236 -1.3603
63685SOL     OW97659  12.240   5.107   8.699 -0.3201 -0.7851  0.0858
63685SOL    HW197660  12.290   5.033   8.732 -1.5277 -3.0506 -2.6695
63685SOL    HW297661  12.295   5.144   8.629  0.1234  0.7838  1.2122
63686SOL     OW97662   5.857   3.126   5.272  0.4641  0.4110 -0.6069
63686SOL    HW197663   5.927   3.174   5.317  0.6573  0.5869 -1.0886
63686SOL    HW297664   5.818   3.191   5.213  0.9490 -0.1126 -1.5205
63687SOL     OW97665   6.226   0.032   9.116  0.1355  0.3424 -0.8944
63687SOL    HW197666   6.304   0.006   9.067  0.8302  0.1710  0.2645
63687SOL    HW297667   6.217  -0.035   9.184  1.2457  2.3823  1.3881
63688SOL     OW97668   6.545   4.529   6.812 -0.4618  0.3894 -0.0608
63688SOL    HW197669   6.564   4.613   6.855 -0.4613  0.3701 -0.0234
63688SOL    HW297670   6.584   4.463   6.870 -1.7612  0.2598  0.7175
63689SOL     OW97671   0.063  12.564   3.890 -0.1305 -0.3492 -0.2110
63689SOL    HW197672   0.003  12.537   3.960  0.8993  1.4694  1.4692
63689SOL    HW297673   0.146  12.582   3.935  0.3617  1.6456 -1.7695
63690SOL     OW97674  11.790   5.535  11.880  0.4745  0.3030 -0.1294
63690SOL    HW197675  11.736   5.614  11.884 -0.0298  0.0047 -0.8407
63690SOL    HW297676  11.821   5.531  11.789  3.1720  1.4207  0.6311
63691SOL     OW97677  10.758   6.113  11.839 -0.7691 -0.4746 -0.0208
63691SOL    HW197678  10.786   6.199  11.872  1.2894 -1.1992  0.2663
63691SOL    HW297679  10.751   6.125  11.744  2.5382 -0.6468 -0.4169
63692SOL     OW97680   8.012  10.691   1.252  0.2603  0.3436 -0.2057
63692SOL    HW197681   7.918  10.688   1.235  0.2744  0.1484 -0.2562
63692SOL    HW297682   8.052  10.658   1.171  0.3494 -0.1098  0.0237
63693SOL     OW97683  12.010   1.461   5.773  0.2730  0.1798 -0.1259
63693SOL    HW197684  12.063   1.524   5.724 -1.4471  1.1791 -0.8051
63693SOL    HW297685  12.054   1.377   5.759  1.5614  0.9223 -0.7971
63694SOL     OW97686   1.597  11.262   6.120  0.5540  0.1302  0.0173
63694SOL    HW197687   1.514  11.284   6.162  0.0099 -0.6254 -0.6252
63694SOL    HW297688   1.663  11.275   6.188 -0.2257 -0.4583  0.9125
63695SOL     OW97689   1.085  11.907  12.571 -0.1032  0.4196 -0.4329
63695SOL    HW197690   1.102  11.958  12.491  1.3854 -1.5540 -1.4611
63695SOL    HW297691   1.027  11.837  12.543 -0.4002  0.2969  0.4596
63696SOL     OW97692   8.616   8.599   9.248  0.2728 -0.3017 -0.3524
63696SOL    HW197693   8.692   8.658   9.249  0.4092 -0.3969  1.9459
63696SOL    HW297694   8.546   8.650   9.291  0.1062 -1.4116  0.7648
63697SOL     OW97695   1.126   1.427   3.442 -0.0300  0.1525  0.3091
63697SOL    HW197696   1.038   1.441   3.406  0.3485 -0.9564 -1.1055
63697SOL    HW297697   1.111   1.396   3.531 -1.1385 -1.2794 -0.3378
63698SOL     OW97698  11.288   1.816   7.359 -0.1360 -0.0818 -0.4399
63698SOL    HW197699  11.364   1.868   7.334  0.2046 -0.9921 -1.3395
63698SOL    HW297700  11.275   1.836   7.452  1.1397  0.1587 -0.2949
63699SOL     OW97701   3.986   1.622   4.149 -0.4710  0.4804  0.2372
63699SOL    HW197702   4.003   1.529   4.165  1.5551  0.6701 -0.5359
63699SOL    HW297703   4.045   1.668   4.210 -0.3634  1.2510 -0.4312
63700SOL     OW97704   0.073   7.980   3.795  0.1121 -0.1385  0.3142
63700SOL    HW197705   0.005   7.925   3.833 -2.1219 -0.3269 -3.4108
63700SOL    HW297706   0.039   8.069   3.803 -0.0514 -0.1183 -0.5232
63701SOL     OW97707   7.557   0.440   4.359  0.3567  0.3074  0.5271
63701SOL    HW197708   7.645   0.404   4.350  0.5769  0.8177  0.5872
63701SOL    HW297709   7.534   0.468   4.270 -0.2574 -0.9862  0.2727
63702SOL     OW97710   5.369   6.798   7.494 -0.6723  0.1441  0.2244
63702SOL    HW197711   5.424   6.871   7.464 -0.4189  0.2512  0.9296
63702SOL    HW297712   5.282   6.820   7.460 -0.1513 -0.4907 -1.6901
63703SOL     OW97713   6.626  11.537   8.919  0.1734  0.1994  0.1463
63703SOL    HW197714   6.635  11.609   8.857  1.6644  0.2432  0.4006
63703SOL    HW297715   6.540  11.551   8.959 -0.8354  0.1897 -1.8598
63704SOL     OW97716   0.236  12.231  10.776  0.5295 -0.0901 -0.4102
63704SOL    HW197717   0.180  12.259  10.848  2.6515  1.2536  0.8331
63704SOL    HW297718   0.175  12.205  10.706 -1.6445 -2.4005  2.1252
63705SOL     OW97719   7.438   7.233   8.625 -0.6768  0.6133 -0.2474
63705SOL    HW197720   7.462   7.146   8.657  0.2213  1.0539  0.3177
63705SOL    HW297721   7.396   7.217   8.540 -1.6014 -0.4546  0.3797
63706SOL     OW97722   9.488  11.058  11.621  0.1951  0.1362 -0.1832
63706SOL    HW197723   9.407  11.108  11.629 -0.3015 -0.8225  1.4987
63706SOL    HW297724   9.557  11.123  11.620 -0.4630  0.9085  1.3612
63707SOL     OW97725   5.652   9.006  11.261 -0.1706 -0.1755  0.0068
63707SOL    HW197726   5.668   9.038  11.350 -0.5967 -0.1757  0.0814
63707SOL    HW297727   5.735   9.022  11.216 -0.2513  0.7080  0.1413
63708SOL     OW97728   7.363   2.455   4.087 -0.2762 -0.6233 -0.3137
63708SOL    HW197729   7.435   2.468   4.149 -0.5462  2.5297 -0.4759
63708SOL    HW297730   7.288   2.498   4.128 -1.1795 -0.9012 -1.6198
63709SOL     OW97731   3.386   2.002  10.069 -0.0803  0.0480 -0.4573
63709SOL    HW197732   3.414   1.972  10.156  0.2356  0.0889 -0.5409
63709SOL    HW297733   3.339   2.083  10.086  0.9316  0.6357 -0.4171
63710SOL     OW97734   6.382   3.326   5.267 -0.8827  0.3866  0.0789
63710SOL    HW197735   6.464   3.377   5.267  0.0894 -0.9447 -2.9053
63710SOL    HW297736   6.330   3.366   5.197 -1.2588 -0.9716 -0.4351
63711SOL     OW97737   7.860   4.596  10.521 -1.0264  0.7316 -0.4244
63711SOL    HW197738   7.908   4.546  10.455  0.1086  0.9976  0.1681
63711SOL    HW297739   7.794   4.535  10.553 -0.2249 -0.1141 -0.3318
63712SOL     OW97740   9.365   0.644  12.687 -0.8110 -0.3694  0.6468
63712SOL    HW197741   9.456   0.672  12.680 -0.4333 -1.7369 -0.5967
63712SOL    HW297742   9.321   0.687  12.613 -0.9106 -0.5929  0.5742
63713SOL     OW97743   6.921   5.080   4.334  0.1919 -0.1716  0.4299
63713SOL    HW197744   6.988   5.046   4.274  0.2155  1.1879 -0.3536
63713SOL    HW297745   6.902   5.168   4.302 -0.1872  0.4060  2.1149
63714SOL     OW97746   8.203   6.266   1.169  0.2795 -0.3696 -0.1948
63714SOL    HW197747   8.256   6.202   1.216  1.7902  1.6783  1.0538
63714SOL    HW297748   8.167   6.323   1.237 -1.4805 -0.1668 -1.2124
63715SOL     OW97749   4.108  10.293   1.416  0.4862  0.1653 -0.1063
63715SOL    HW197750   4.076  10.375   1.452 -0.1069  0.5492 -1.4547
63715SOL    HW297751   4.072  10.225   1.473 -2.0790  0.6256 -1.0369
63716SOL     OW97752   8.925   2.325   0.111 -0.2342  0.7397 -0.6035
63716SOL    HW197753   8.885   2.280   0.037  0.6728  0.7913 -1.1393
63716SOL    HW297754   8.978   2.394   0.072  0.2307  0.7929  0.0944
63717SOL     OW97755   7.649   2.306   3.351  0.4626  0.3920  0.2979
63717SOL    HW197756   7.661   2.264   3.436 -0.4950 -0.8456 -0.1496
63717SOL    HW297757   7.559   2.338   3.352 -0.0603 -0.9298 -0.7555
63718SOL     OW97758   4.442   5.009  10.241 -0.4463  0.5016  0.2716
63718SOL    HW197759   4.357   5.044  10.212  0.8551  2.0573 -2.0193
63718SOL    HW297760   4.468   4.950  10.170  1.3050  1.6887 -0.1320
63719SOL     OW97761   2.490  11.408  10.398 -0.3171 -0.1386 -0.2202
63719SOL    HW197762   2.495  11.405  10.303 -0.2758  0.1698 -0.2304
63719SOL    HW297763   2.442  11.329  10.423 -2.1299  0.7499 -0.6415
63720SOL     OW97764  11.101  11.813   2.637  0.2988  0.1048 -0.0750
63720SOL    HW197765  11.154  11.747   2.592  0.2047 -0.3547  0.4778
63720SOL    HW297766  11.048  11.763   2.699 -0.7554  0.5658 -0.5867
63721SOL     OW97767   5.147   9.143  10.441 -0.1423  0.0983 -0.1679
63721SOL    HW197768   5.052   9.139  10.430 -0.3222  1.3983  0.6884
63721SOL    HW297769   5.162   9.108  10.529  0.2293 -0.5045 -0.4621
63722SOL     OW97770  11.995   7.993   8.581  0.0416 -0.1172 -0.3417
63722SOL    HW197771  11.986   7.969   8.489 -0.3360 -1.7036  0.0675
63722SOL    HW297772  12.075   8.046   8.585 -1.7671  3.0659 -2.0842
63723SOL     OW97773   3.129   9.490   6.699  0.6608  0.2901  0.0531
63723SOL    HW197774   3.131   9.527   6.611  0.7606 -2.2369 -1.0937
63723SOL    HW297775   3.037   9.467   6.713  0.9192 -0.9000 -0.1335
63724SOL     OW97776  11.695   9.027   3.536  0.0263  0.6345 -0.0479
63724SOL    HW197777  11.642   8.950   3.558 -0.3159  0.4297 -1.4826
63724SOL    HW297778  11.765   8.993   3.480  0.5821  1.1861  0.3090
63725SOL     OW97779   1.366   3.862   3.884  0.3328 -0.2087  0.2791
63725SOL    HW197780   1.394   3.835   3.971  0.7455  0.4399  0.3518
63725SOL    HW297781   1.429   3.820   3.825 -0.2284 -1.0342  0.2534
63726SOL     OW97782   2.984   0.218   4.027  0.5122  0.0269 -0.4422
63726SOL    HW197783   3.073   0.250   4.014 -0.0780  0.7871 -3.2128
63726SOL    HW297784   2.952   0.266   4.104  2.1659  0.3860  0.0613
63727SOL     OW97785   0.703   1.101   5.042 -0.0625  0.6096 -0.2566
63727SOL    HW197786   0.675   1.010   5.046  0.9757  0.3200  0.9137
63727SOL    HW297787   0.621   1.151   5.048 -0.5614 -0.2342  0.1572
63728SOL     OW97788   9.149  11.602   1.640 -0.2703 -0.3895  0.0605
63728SOL    HW197789   9.224  11.574   1.692  0.1924 -0.5248 -0.6612
63728SOL    HW297790   9.166  11.567   1.553 -0.7449  0.3142 -0.3275
63729SOL     OW97791   0.947   9.706   8.621  0.2027  0.0347  0.1725
63729SOL    HW197792   0.998   9.693   8.701  0.2195 -0.9799  0.0069
63729SOL    HW297793   0.877   9.766   8.647 -1.0627 -1.9204  1.5169
63730SOL     OW97794   0.606  10.633   3.528 -0.0908  0.2244  0.2805
63730SOL    HW197795   0.608  10.590   3.442  1.0108 -0.7458  0.7799
63730SOL    HW297796   0.693  10.672   3.537  0.0524 -0.2905  1.2518
63731SOL     OW97797   5.376   9.269   0.272 -0.0554 -0.2201  0.1816
63731SOL    HW197798   5.395   9.328   0.198  0.2302 -1.5691 -0.8629
63731SOL    HW297799   5.288   9.236   0.255 -0.6275  0.6588  1.3107
63732SOL     OW97800   6.366   5.628  10.797 -0.4055  0.4953  0.0223
63732SOL    HW197801   6.438   5.580  10.837 -0.0733  0.1022 -1.0137
63732SOL    HW297802   6.313   5.561  10.753 -0.3103  0.9824 -0.8753
63733SOL     OW97803   0.611  11.275   6.787 -1.0783 -0.2753  0.1239
63733SOL    HW197804   0.525  11.309   6.761 -0.9128  1.3331  1.5402
63733SOL    HW297805   0.659  11.352   6.817  1.2652 -0.9754 -1.5659
63734SOL     OW97806   9.114  11.105   3.002  0.4760 -0.7377 -0.1571
63734SOL    HW197807   9.170  11.091   2.926 -0.1973  0.2886 -0.8741
63734SOL    HW297808   9.077  11.192   2.988  0.2830 -0.5545  1.3198
63735SOL     OW97809   4.285   7.568   5.141 -0.0458  0.1310 -0.1421
63735SOL    HW197810   4.300   7.546   5.233 -2.2823  0.1577  0.2823
63735SOL    HW297811   4.325   7.654   5.130  2.3617 -0.8830  0.1236
63736SOL     OW97812   3.510  10.636   2.247  0.1919 -0.3169 -0.6979
63736SOL    HW197813   3.551  10.668   2.328 -0.2944  1.3206 -1.0594
63736SOL    HW297814   3.508  10.712   2.190 -0.6844 -1.1172 -1.7710
63737SOL     OW97815   7.597   4.549   8.413  0.0909 -0.1813  0.0388
63737SOL    HW197816   7.673   4.491   8.412  0.8412  0.7304 -2.3164
63737SOL    HW297817   7.529   4.501   8.366 -0.3731 -0.4554  0.9729
63738SOL     OW97818   2.502   1.174  12.428  0.3297 -0.2794 -0.0825
63738SOL    HW197819   2.434   1.107  12.418  0.2844 -0.2884  0.2490
63738SOL    HW297820   2.562   1.159  12.355  2.3055 -3.0048  1.8848
63739SOL     OW97821   0.924   7.643   1.396 -0.0260  0.2513  0.3427
63739SOL    HW197822   0.854   7.583   1.372  0.5379  0.3818 -1.8092
63739SOL    HW297823   0.880   7.712   1.446 -1.0567 -0.7416  0.8458
63740SOL     OW97824   7.819   9.727   9.177 -0.0846 -0.1906  0.8188
63740SOL    HW197825   7.873   9.648   9.179  0.8092  0.3610 -0.2522
63740SOL    HW297826   7.871   9.793   9.221  0.0756  0.3068 -0.0799
63741SOL     OW97827   4.785  11.417   8.596  0.2941  0.3903 -0.4676
63741SOL    HW197828   4.807  11.347   8.535  1.2011  0.5735 -0.3599
63741SOL    HW297829   4.786  11.374   8.682 -0.0957  0.3314 -0.4888
63742SOL     OW97830   0.257   3.895   7.603  0.1514  0.0768  0.0218
63742SOL    HW197831   0.278   3.835   7.531 -2.0677 -0.2100 -0.4558
63742SOL    HW297832   0.274   3.845   7.682  2.1937  0.2416 -0.2515
63743SOL     OW97833   1.158  11.233  11.109  0.0960 -0.0867 -0.1513
63743SOL    HW197834   1.095  11.184  11.056  1.0476 -1.1869 -0.3036
63743SOL    HW297835   1.242  11.187  11.096  0.5753  0.2597  1.4580
63744SOL     OW97836   2.592  10.159   3.089 -0.1084  0.4774 -0.2367
63744SOL    HW197837   2.504  10.127   3.070  0.8106 -1.7801 -1.0315
63744SOL    HW297838   2.596  10.162   3.185 -1.4370  1.9699 -0.1762
63745SOL     OW97839   4.588   8.675   9.552  0.2912  0.4265 -0.6995
63745SOL    HW197840   4.677   8.710   9.564  0.9830 -0.6710 -2.3021
63745SOL    HW297841   4.597   8.582   9.569 -0.4785  0.2461 -1.2422
63746SOL     OW97842   2.967   2.428   9.471 -0.6753  0.0584  0.1511
63746SOL    HW197843   2.959   2.521   9.492  2.1157 -0.0315  2.2956
63746SOL    HW297844   2.927   2.383   9.546  0.2730 -0.3988  0.4075
63747SOL     OW97845  12.615   4.488   9.322  0.1528  0.0528  0.4226
63747SOL    HW197846  12.549   4.425   9.293 -2.2364  2.8246 -0.6664
63747SOL    HW297847  12.674   4.496   9.247 -0.5532  0.3651 -0.1091
63748SOL     OW97848   0.994   5.400  11.068 -0.2290  0.6189  0.2216
63748SOL    HW197849   1.038   5.479  11.100 -0.9466  0.4850  1.6528
63748SOL    HW297850   0.949   5.427  10.989  1.1559  1.1316 -0.4174
63749SOL     OW97851   4.649   7.342  11.781 -0.0717  0.1957  0.0178
63749SOL    HW197852   4.626   7.367  11.871  0.2847 -0.3896  0.2794
63749SOL    HW297853   4.718   7.277  11.792  1.9324  2.1111 -0.7631
63750SOL     OW97854  12.283   1.085   0.589 -0.5223 -0.1639 -0.0967
63750SOL    HW197855  12.290   1.013   0.526  0.0910 -0.8198  0.6980
63750SOL    HW297856  12.219   1.055   0.653 -0.1295 -0.0797  0.3360
63751SOL     OW97857   1.597  12.293   6.701  0.2893  0.5191 -0.4075
63751SOL    HW197858   1.620  12.380   6.733 -1.3602  1.0284 -0.4870
63751SOL    HW297859   1.506  12.302   6.672 -0.0462 -1.3363 -0.0476
63752SOL     OW97860   0.109   1.325   0.850 -0.1508 -0.1801  0.3371
63752SOL    HW197861   0.076   1.238   0.872 -2.1457  0.3132 -0.4760
63752SOL    HW297862   0.073   1.382   0.918 -1.5943  0.4657 -0.9059
63753SOL     OW97863  10.917   7.874   7.117  0.7901  0.4730  0.0495
63753SOL    HW197864  10.877   7.852   7.033 -1.2181 -0.2882  1.1390
63753SOL    HW297865  11.007   7.843   7.109  1.2532  2.1603 -2.4757
63754SOL     OW97866   0.831   1.205   2.006  1.1347 -1.1467 -0.0093
63754SOL    HW197867   0.896   1.184   2.073 -0.2354  0.6162  1.9677
63754SOL    HW297868   0.748   1.206   2.052  0.4192  2.6142 -1.0937
63755SOL     OW97869   5.064   5.583   0.799 -0.2248 -0.6260  0.0206
63755SOL    HW197870   5.080   5.671   0.765  0.3329 -0.4712  0.6594
63755SOL    HW297871   5.087   5.589   0.892  1.5136 -1.8809 -0.2869
63756SOL     OW97872  12.705   9.392   1.350 -0.0677 -0.3873  0.0076
63756SOL    HW197873  12.629   9.340   1.323 -1.7871  2.7110 -1.7480
63756SOL    HW297874  12.762   9.393   1.274 -0.4393  0.8419 -0.2798
63757SOL     OW97875   1.394   0.014   3.907  0.1440  0.0202 -0.7408
63757SOL    HW197876   1.402  -0.078   3.881  0.7163 -0.2548  0.3599
63757SOL    HW297877   1.427   0.063   3.831  1.1380 -0.7314 -0.8148
63758SOL     OW97878   0.316  11.899   0.249 -0.1456  0.1411 -0.2128
63758SOL    HW197879   0.385  11.920   0.312 -0.2796 -1.5441  0.5611
63758SOL    HW297880   0.235  11.907   0.300 -0.3398 -0.1331 -0.4783
63759SOL     OW97881  10.081   2.420   9.073 -0.2048  0.2986  0.0151
63759SOL    HW197882   9.994   2.380   9.066 -0.2357  0.1721  0.9105
63759SOL    HW297883  10.091   2.470   8.992 -0.5547 -0.7681 -0.7078
63760SOL     OW97884   0.414   8.425   8.033  0.0398 -0.7333 -0.4624
63760SOL    HW197885   0.499   8.387   8.011  0.8780  0.7867  0.0076
63760SOL    HW297886   0.405   8.499   7.974  0.0700  0.4182  0.9218
63761SOL     OW97887  12.070   7.934   3.233  0.0453  0.1066  0.2371
63761SOL    HW197888  12.110   7.993   3.169 -0.9589  0.4874 -0.0515
63761SOL    HW297889  12.141   7.912   3.293  0.7330  0.6128 -0.3805
63762SOL     OW97890   3.541  10.119  11.835 -0.0907  0.0957  0.5372
63762SOL    HW197891   3.577  10.037  11.868 -1.4712 -0.4960  0.6670
63762SOL    HW297892   3.617  10.169  11.806  0.7805 -1.2168  0.4733
63763SOL     OW97893   6.260   1.147   0.713 -0.5409 -0.2315  0.2552
63763SOL    HW197894   6.324   1.197   0.764  0.5786 -0.7671 -0.5828
63763SOL    HW297895   6.186   1.137   0.772 -0.4236  1.5781  0.7856
63764SOL     OW97896   7.173   4.396  12.121 -0.1852 -0.5566 -0.0312
63764SOL    HW197897   7.098   4.454  12.133 -0.1259 -0.3177 -0.7373
63764SOL    HW297898   7.239   4.451  12.078 -0.3497 -1.3068 -1.2843
63765SOL     OW97899   6.564   4.833   2.537  0.2611  0.2473  0.5968
63765SOL    HW197900   6.585   4.906   2.595  0.1288 -0.6864  1.8785
63765SOL    HW297901   6.641   4.776   2.542  0.6678  0.6159 -0.9608
63766SOL     OW97902   1.762  11.172   8.393 -0.1815 -0.0093 -0.5165
63766SOL    HW197903   1.779  11.259   8.358 -0.0050 -0.4720 -1.6286
63766SOL    HW297904   1.698  11.186   8.463 -1.0130  0.8861 -1.4241
63767SOL     OW97905  12.324   5.602   0.111  0.1276  0.0473  1.1165
63767SOL    HW197906  12.293   5.684   0.074  0.7641  0.4162  1.3817
63767SOL    HW297907  12.403   5.626   0.159  0.3443 -0.7305  1.1585
63768SOL     OW97908  12.538   9.451   5.673 -0.1087 -0.0024  0.2159
63768SOL    HW197909  12.580   9.388   5.614 -2.2848  0.5263 -2.0911
63768SOL    HW297910  12.608   9.510   5.700  1.1175 -0.7463 -1.2073
63769SOL     OW97911   5.838   6.360   1.256  0.0825  0.1682 -0.4311
63769SOL    HW197912   5.851   6.444   1.299 -1.0864  0.6123 -0.9088
63769SOL    HW297913   5.924   6.318   1.258  0.8182  1.6165 -0.6903
63770SOL     OW97914  11.868   0.385  10.268 -0.0294 -0.2801 -0.2604
63770SOL    HW197915  11.809   0.364  10.339 -0.5728  0.0702 -0.6045
63770SOL    HW297916  11.905   0.300  10.241  0.7062 -0.3406  0.8739
63771SOL     OW97917   8.958   0.249   4.640  0.0078  0.1198  0.0642
63771SOL    HW197918   9.012   0.174   4.667 -0.2586 -0.0288  0.1870
63771SOL    HW297919   8.880   0.209   4.601  0.0705  0.3340 -0.2809
63772SOL     OW97920   6.154   1.211   0.450  0.1827  0.1799 -0.2900
63772SOL    HW197921   6.186   1.291   0.409 -0.6211  0.7150  0.0994
63772SOL    HW297922   6.147   1.233   0.543  3.0414 -1.3364  0.4129
63773SOL     OW97923  10.147   6.569   9.188 -0.8011 -0.0952  0.4366
63773SOL    HW197924  10.152   6.610   9.101 -0.2195 -1.6847 -0.3101
63773SOL    HW297925  10.188   6.632   9.246 -3.6401  2.2949  0.1160
63774SOL     OW97926   8.809   4.358   8.562  0.9060  0.4436  0.1740
63774SOL    HW197927   8.865   4.435   8.554  0.5059  0.9469  1.7294
63774SOL    HW297928   8.720   4.393   8.564  0.7514  0.0704  1.6575
63775SOL     OW97929   5.340   3.907   6.006  0.0021 -0.9918  0.3577
63775SOL    HW197930   5.416   3.908   5.947 -0.7198  2.2604 -0.7105
63775SOL    HW297931   5.374   3.866   6.086  2.6962 -0.3362 -0.3196
63776SOL     OW97932   9.522   3.722  11.461  0.4870 -0.2660 -0.4007
63776SOL    HW197933   9.569   3.786  11.515  1.7802  0.8714 -2.7202
63776SOL    HW297934   9.485   3.774  11.390  0.1735 -1.8932 -1.4742
63777SOL     OW97935   0.919   5.597   9.716  0.4288 -0.2861 -0.0763
63777SOL    HW197936   0.827   5.621   9.728  0.3365 -0.7901  0.2519
63777SOL    HW297937   0.962   5.678   9.688  0.3143  0.5199  1.9302
63778SOL     OW97938   4.308   6.414   5.535  0.2202 -0.1933  0.6115
63778SOL    HW197939   4.269   6.353   5.474 -1.5623 -2.2571  3.5616
63778SOL    HW297940   4.291   6.500   5.497 -1.5565 -1.3136 -1.3412
63779SOL     OW97941   3.519   9.278   9.257 -0.4443 -0.1372  0.1176
63779SOL    HW197942   3.541   9.186   9.273 -0.6662 -0.5270 -1.5963
63779SOL    HW297943   3.541   9.322   9.339 -0.9350 -1.8115  1.2065
63780SOL     OW97944   2.357   4.467   6.226 -0.1182 -0.0096 -0.1590
63780SOL    HW197945   2.415   4.405   6.269 -0.4205 -0.2891 -0.1513
63780SOL    HW297946   2.295   4.413   6.177 -0.3246  0.2856 -0.2294
63781SOL     OW97947   5.478  12.046   9.429  0.0668 -0.2870  0.7217
63781SOL    HW197948   5.508  12.083   9.512 -0.5367  1.4482  0.2094
63781SOL    HW297949   5.390  12.012   9.448 -0.0298  0.0152  0.8135
63782SOL     OW97950  11.814   8.634   0.474  0.1358 -0.1471  0.0482
63782SOL    HW197951  11.870   8.612   0.400  0.7627  1.9409 -0.1636
63782SOL    HW297952  11.866   8.612   0.551 -0.3222 -1.8473 -0.0802
63783SOL     OW97953   1.805   4.496   0.157 -0.9085  0.6019  0.4206
63783SOL    HW197954   1.870   4.426   0.166 -0.4266  1.1312  1.0938
63783SOL    HW297955   1.759   4.474   0.076  1.9191  1.7077 -1.6603
63784SOL     OW97956   9.451   5.306   5.767  0.0566 -0.5473  0.1118
63784SOL    HW197957   9.518   5.373   5.759  1.0812 -1.0120  3.4963
63784SOL    HW297958   9.500   5.225   5.786 -1.3551 -1.4064  0.2435
63785SOL     OW97959   1.624   3.559  10.511  0.0957 -0.6432  0.1929
63785SOL    HW197960   1.653   3.475  10.548  0.7929 -0.2975  0.4414
63785SOL    HW297961   1.635   3.547  10.417 -0.8635 -1.2194  0.1419
63786SOL     OW97962   1.221   0.368   8.274 -0.9026 -0.0302  0.1863
63786SOL    HW197963   1.242   0.408   8.190 -2.0680  0.1629 -0.0279
63786SOL    HW297964   1.220   0.274   8.257  0.7191 -0.1184  0.4335
63787SOL     OW97965   0.329   5.762   5.103 -0.1600 -0.0047  0.5934
63787SOL    HW197966   0.419   5.787   5.083 -0.4745  2.3889  1.9231
63787SOL    HW297967   0.333   5.724   5.190 -0.4512  0.2005  0.6972
63788SOL     OW97968   4.285   0.826   3.446 -0.0775 -0.0152 -0.2501
63788SOL    HW197969   4.346   0.788   3.510  0.6715  0.3355 -0.7385
63788SOL    HW297970   4.281   0.763   3.375 -0.8812 -0.3864  0.1114
63789SOL     OW97971  12.143   3.205  10.150 -0.4344 -0.2967  0.0404
63789SOL    HW197972  12.095   3.241  10.076 -0.0114  1.1106  0.4238
63789SOL    HW297973  12.198   3.277  10.180 -1.8617 -0.2234  2.8273
63790SOL     OW97974   0.646   9.891   2.878  0.3971  0.4462 -0.1882
63790SOL    HW197975   0.672   9.937   2.958 -1.4910  0.7616  0.2958
63790SOL    HW297976   0.662   9.955   2.809 -1.4072  1.5843  0.3856
63791SOL     OW97977   0.022  12.428   3.165 -0.1376 -0.3100  0.2807
63791SOL    HW197978   0.052  12.450   3.254 -1.6152  1.1927  0.4534
63791SOL    HW297979  -0.067  12.394   3.178 -0.1701 -0.5665 -0.5981
63792SOL     OW97980   9.128   5.186   9.030 -0.0793 -0.2487  0.2864
63792SOL    HW197981   9.045   5.166   9.073 -0.1445 -0.3543  0.1125
63792SOL    HW297982   9.151   5.274   9.061 -0.5724  0.0404 -0.1433
63793SOL     OW97983   4.375   4.445   3.228  0.0407 -0.2899 -0.0872
63793SOL    HW197984   4.328   4.528   3.238  0.2125 -0.2923  0.7608
63793SOL    HW297985   4.465   4.465   3.252  0.7742 -0.0384 -2.6988
63794SOL     OW97986   2.928  12.591   3.474 -0.0159  0.0601 -0.2361
63794SOL    HW197987   2.962  12.628   3.555  0.6339 -0.5667 -0.2043
63794SOL    HW297988   2.914  12.666   3.416 -0.2942  0.4908  0.3813
63795SOL     OW97989   8.587   7.734   2.204  0.4879 -0.1646  0.3079
63795SOL    HW197990   8.501   7.706   2.174  0.4581  0.2298  0.0176
63795SOL    HW297991   8.635   7.755   2.124  1.0716 -1.0035  0.4314
63796SOL     OW97992   2.142   5.407  11.346  0.3937  0.6894 -0.0030
63796SOL    HW197993   2.173   5.479  11.401  1.0153  1.1134 -0.8760
63796SOL    HW297994   2.192   5.416  11.264  0.2517 -0.5510 -0.2469
63797SOL     OW97995   7.864  11.048   2.887  0.2205 -0.5065 -0.0730
63797SOL    HW197996   7.777  11.074   2.916  0.0248 -0.7528 -0.4337
63797SOL    HW297997   7.866  10.953   2.900  0.6723 -0.4194  0.5587
63798SOL     OW97998   5.702  10.855  12.103  0.1822  0.2844  0.6572
63798SOL    HW197999   5.704  10.765  12.137 -0.1322  0.7395  1.9620
63798SOL    HW298000   5.793  10.875  12.083  0.2708 -0.2915  0.4716
63799SOL     OW98001   4.072   5.650   5.256  0.0688  0.0290 -0.0823
63799SOL    HW198002   4.147   5.592   5.241  1.0235  1.1637  0.1284
63799SOL    HW298003   3.996   5.597   5.234  0.4976 -2.7536  3.9282
63800SOL     OW98004   9.052   9.429   0.210  0.2718  0.2621  0.1053
63800SOL    HW198005   9.111   9.478   0.153 -0.3900  1.4454  0.4025
63800SOL    HW298006   9.012   9.364   0.153  0.2900  0.8437 -0.5851
63801SOL     OW98007  12.399   7.365  10.639 -0.2757 -0.4069 -0.4693
63801SOL    HW198008  12.320   7.313  10.651 -1.1294  1.3377  2.3095
63801SOL    HW298009  12.464   7.322  10.695 -0.2366  0.0568 -0.1589
63802SOL     OW98010   2.934   2.452   3.660  0.1602  0.1911 -0.2552
63802SOL    HW198011   3.021   2.423   3.684  0.3001  1.5253  1.0434
63802SOL    HW298012   2.900   2.384   3.602  0.8352 -1.9716  1.7426
63803SOL     OW98013   6.639  10.650  12.617 -0.1720 -0.1934  0.2181
63803SOL    HW198014   6.689  10.572  12.639 -0.8291 -0.9595 -0.8899
63803SOL    HW298015   6.561  10.617  12.571 -0.3304  1.1138 -0.5191
63804SOL     OW98016   1.381   9.216  10.972 -0.8463 -0.1084 -0.6200
63804SOL    HW198017   1.306   9.274  10.986 -0.1600  0.9959 -1.3429
63804SOL    HW298018   1.401   9.225  10.878  0.3256 -0.1997 -0.3969
63805SOL     OW98019   0.822   1.673   2.819 -0.5785  0.0021 -0.0520
63805SOL    HW198020   0.895   1.693   2.761 -1.4401  0.4871 -1.0091
63805SOL    HW298021   0.851   1.598   2.869  0.4849  0.0417 -0.5821
63806SOL     OW98022   3.690   8.660  10.396  0.0388 -0.0667 -0.3446
63806SOL    HW198023   3.779   8.625  10.388  0.1464  0.4298 -1.5075
63806SOL    HW298024   3.693   8.716  10.473  0.6065 -0.4228 -0.0999
63807SOL     OW98025  10.521  10.370   2.219  0.3448 -0.2649 -0.1760
63807SOL    HW198026  10.545  10.291   2.170 -1.6271 -0.3783 -1.0350
63807SOL    HW298027  10.582  10.437   2.186 -0.6187 -0.4467 -2.5373
63808SOL     OW98028   1.037   5.891   6.951 -0.0989  0.0279 -0.1691
63808SOL    HW198029   1.090   5.873   6.874  0.2389  0.0344  0.0600
63808SOL    HW298030   1.099   5.922   7.016 -0.7391  2.9526 -0.8113
63809SOL     OW98031   3.126   9.475  12.522 -0.5530 -0.0995  0.4496
63809SOL    HW198032   3.111   9.473  12.616  1.3158 -0.5444  0.7706
63809SOL    HW298033   3.051   9.428  12.485 -0.3421 -1.6321  1.8527
63810SOL     OW98034   0.953   8.082   1.487 -0.8045 -0.2866 -0.4333
63810SOL    HW198035   1.039   8.041   1.498 -0.1210  1.4187  0.9820
63810SOL    HW298036   0.969   8.153   1.424 -0.4753  1.7292  1.7707
63811SOL     OW98037   4.282   2.082  11.403  0.2126  0.1852  0.8751
63811SOL    HW198038   4.327   2.052  11.482 -2.4493  0.1271  2.4918
63811SOL    HW298039   4.201   2.032  11.401 -0.7704  1.7163 -0.7142
63812SOL     OW98040   1.521   5.231  12.503  0.4547  0.1622 -0.1431
63812SOL    HW198041   1.429   5.240  12.476  1.0124  3.0999 -1.5312
63812SOL    HW298042   1.555   5.159  12.450 -0.6092  0.3316 -1.0981
63813SOL     OW98043   4.453   2.386  11.381  0.0752  0.3108 -0.1608
63813SOL    HW198044   4.510   2.344  11.317  0.2862  0.5123 -0.1039
63813SOL    HW298045   4.378   2.327  11.387 -0.3077  0.6738 -1.1648
63814SOL     OW98046  12.474  11.938   6.976  0.5356  0.5364  0.1068
63814SOL    HW198047  12.498  11.902   7.062  0.0800 -0.4294 -0.1493
63814SOL    HW298048  12.407  11.877   6.944 -0.9117  2.1117  0.0233
63815SOL     OW98049   3.545   2.952   5.572  0.0828  0.2293 -0.2930
63815SOL    HW198050   3.544   3.048   5.575 -0.3113  0.1926  1.7723
63815SOL    HW298051   3.606   2.926   5.641 -1.9348 -1.0268  1.0971
63816SOL     OW98052   3.015   8.728   4.520  0.3171  0.3815 -0.6235
63816SOL    HW198053   2.980   8.750   4.434  1.0845  1.4909 -0.6706
63816SOL    HW298054   3.104   8.763   4.520  0.9466 -1.1150  0.0111
63817SOL     OW98055   3.135  12.670   1.790 -0.0140 -0.3053 -0.0442
63817SOL    HW198056   3.084  12.644   1.713 -0.3565 -0.4024  0.2133
63817SOL    HW298057   3.207  12.606   1.793 -0.6630 -1.0355  0.3934
63818SOL     OW98058   0.032   8.902   4.477 -0.2494  0.1550 -0.3556
63818SOL    HW198059   0.059   8.897   4.386  2.5504 -2.6171  0.4575
63818SOL    HW298060  -0.053   8.859   4.479 -0.5449  0.6232 -1.6606
63819SOL     OW98061   7.257   7.079  10.053  0.4351  0.1213 -0.2010
63819SOL    HW198062   7.314   7.151  10.024  1.0219 -0.4658 -0.5412
63819SOL    HW298063   7.316   7.004  10.059 -0.0468 -0.1850  0.7696
63820SOL     OW98064  11.141   8.733   4.481 -0.3250  0.5302 -0.0356
63820SOL    HW198065  11.222   8.763   4.439 -0.2802  0.2179 -0.1741
63820SOL    HW298066  11.109   8.663   4.424 -0.0608 -0.1593  0.6422
63821SOL     OW98067  11.616  12.599   1.809 -0.0639 -0.0448 -0.3632
63821SOL    HW198068  11.549  12.558   1.754  0.3960 -0.4744 -0.6170
63821SOL    HW298069  11.567  12.648   1.875 -0.6244 -0.3230 -0.5673
63822SOL     OW98070   6.109   1.516   6.231 -0.1534  0.6400 -0.3429
63822SOL    HW198071   6.031   1.465   6.253  0.9121 -1.7758 -1.6987
63822SOL    HW298072   6.117   1.580   6.302 -0.3690 -2.5691  2.8787
63823SOL     OW98073  11.060   4.562   4.383  0.4653 -0.1777  0.0098
63823SOL    HW198074  11.083   4.636   4.328  0.2735 -0.6522 -0.7148
63823SOL    HW298075  10.972   4.537   4.356  0.4042 -0.4719  0.4634
63824SOL     OW98076   3.818   5.466   9.442  0.0022 -0.2969  0.2415
63824SOL    HW198077   3.778   5.436   9.523  0.2373  1.0254  0.8798
63824SOL    HW298078   3.773   5.549   9.422  0.9899  0.1732 -0.1268
63825SOL     OW98079   7.366   5.916   9.589 -0.0974 -0.3930 -0.6930
63825SOL    HW198080   7.405   5.974   9.654  0.4828 -0.2530 -1.1534
63825SOL    HW298081   7.296   5.870   9.636  0.0210  0.0301 -0.0959
63826SOL     OW98082   4.655   0.335   2.340  0.4837  0.7582 -0.1900
63826SOL    HW198083   4.669   0.369   2.428  3.0773 -0.4521 -0.0505
63826SOL    HW298084   4.599   0.401   2.298 -1.9867  0.7486  2.6800
63827SOL     OW98085   7.013   9.116   0.418 -0.2294 -0.3726 -0.3039
63827SOL    HW198086   6.967   9.138   0.499  1.3500 -0.0370  0.5373
63827SOL    HW298087   7.106   9.124   0.440  0.2362  0.1394 -2.2709
63828SOL     OW98088   8.830  11.511   3.414  0.0384 -0.3807 -0.6171
63828SOL    HW198089   8.805  11.567   3.340 -0.5268 -0.9559 -0.8745
63828SOL    HW298090   8.810  11.422   3.385 -1.9133 -0.4928  0.8646
63829SOL     OW98091  10.909   0.557   1.802  0.0188 -0.0295 -0.2926
63829SOL    HW198092  10.911   0.640   1.849  1.3714 -1.2194  1.8815
63829SOL    HW298093  10.935   0.580   1.712  0.0736  1.9195  0.1758
63830SOL     OW98094  10.718  12.507   9.572 -0.0419  0.3111 -0.4613
63830SOL    HW198095  10.753  12.421   9.593 -0.6233 -0.3068 -1.8733
63830SOL    HW298096  10.647  12.520   9.635  0.5168  0.0920  0.2265
63831SOL     OW98097   5.077   3.927   3.538  0.2139 -0.2829 -0.2416
63831SOL    HW198098   5.121   4.008   3.511 -1.0654  0.4132 -0.3052
63831SOL    HW298099   5.019   3.954   3.609 -1.5769 -0.7802 -1.4665
63832SOL     OW98100   4.147   6.404   3.378  0.4656 -0.0322  0.0859
63832SOL    HW198101   4.164   6.431   3.288 -1.7080  0.8270 -0.1227
63832SOL    HW298102   4.153   6.485   3.430 -0.2757 -0.1712  0.3956
63833SOL     OW98103   4.642   1.816   5.734 -0.1206 -0.4133 -0.4740
63833SOL    HW198104   4.596   1.793   5.653  0.0963 -0.6246 -0.5352
63833SOL    HW298105   4.700   1.888   5.709 -0.0602 -0.4725 -0.5039
63834SOL     OW98106   1.189   4.266  11.596 -0.5301 -0.1632 -0.5136
63834SOL    HW198107   1.164   4.334  11.658 -1.3787 -0.1728 -0.8388
63834SOL    HW298108   1.229   4.314  11.523 -0.3760 -0.0812 -0.3758
63835SOL     OW98109   2.813   5.756   0.121  0.4811  0.8860  0.5485
63835SOL    HW198110   2.777   5.669   0.135  0.8949  0.4192 -1.1320
63835SOL    HW298111   2.741   5.807   0.084 -0.5739  2.0899  3.8263
63836SOL     OW98112   3.270   9.933   2.695 -0.1124  0.2107  0.7211
63836SOL    HW198113   3.206   9.975   2.753  1.1126  2.0249  0.8703
63836SOL    HW298114   3.245   9.962   2.607 -0.6204 -0.6719  0.5653
63837SOL     OW98115   3.449   8.006   6.662 -0.1424 -0.1264 -0.2764
63837SOL    HW198116   3.544   7.999   6.668 -0.0462  1.6568  1.1741
63837SOL    HW298117   3.420   8.017   6.753 -1.4352  2.0581 -0.8771
63838SOL     OW98118   5.829   5.939   0.012 -0.5618 -0.1220 -0.1062
63838SOL    HW198119   5.900   5.882   0.041 -0.8383  0.0494  0.9348
63838SOL    HW298120   5.754   5.881  -0.000 -0.8578  0.0081  1.0041
63839SOL     OW98121  11.870   4.789  11.757  0.2868  0.8498  0.2724
63839SOL    HW198122  11.915   4.764  11.676 -1.9385  0.8356 -1.0126
63839SOL    HW298123  11.899   4.879  11.774 -0.8880  1.6827 -1.8180
63840SOL     OW98124  10.015   7.245   6.933 -0.2113  0.2361  0.0231
63840SOL    HW198125   9.976   7.205   7.011 -0.1212  1.8046  0.9060
63840SOL    HW298126   9.940   7.270   6.879 -0.3954  1.6727  0.9159
63841SOL     OW98127   6.520  11.281  12.020 -0.0558 -0.2302 -0.6557
63841SOL    HW198128   6.605  11.237  12.020  0.9025  1.4989  0.0886
63841SOL    HW298129   6.459  11.214  12.052  1.3495 -0.9806  0.6171
63842SOL     OW98130   3.733  10.660   3.897 -0.1914 -0.2012  0.2700
63842SOL    HW198131   3.674  10.603   3.947 -0.6432  1.8930  2.2385
63842SOL    HW298132   3.675  10.717   3.847  0.2515 -0.6936 -0.8481
63843SOL     OW98133   0.568   3.367   4.019  0.0674  0.0145  0.3511
63843SOL    HW198134   0.608   3.281   4.008 -2.9945 -1.3751 -1.2847
63843SOL    HW298135   0.614   3.423   3.956 -0.5253 -1.5420 -1.5848
63844SOL     OW98136   0.582   0.088  12.759 -0.3899  0.6361  0.0312
63844SOL    HW198137   0.543   0.062  12.843  1.4718 -1.6173  0.2715
63844SOL    HW298138   0.672   0.111  12.780 -0.1991  1.1422 -1.2206
63845SOL     OW98139  12.768   5.095   8.632  0.3896 -0.1568 -0.0822
63845SOL    HW198140  12.714   5.074   8.556 -0.6678  0.8779  0.3573
63845SOL    HW298141  12.706   5.123   8.699  1.4360  0.5060  0.6391
63846SOL     OW98142   6.738  12.393   9.436  0.1477  0.1093 -0.5196
63846SOL    HW198143   6.692  12.473   9.461  1.4816  0.7785 -0.1207
63846SOL    HW298144   6.669  12.328   9.424 -0.7517  0.4567  2.2759
63847SOL     OW98145   0.972   4.351   0.270 -0.3686  0.0096 -0.3688
63847SOL    HW198146   1.014   4.318   0.191 -1.2016  1.4537 -1.4651
63847SOL    HW298147   0.903   4.287   0.288  1.6495 -1.9609  1.0040
63848SOL     OW98148   6.000   4.735  10.168 -0.0455 -0.2590 -0.4399
63848SOL    HW198149   5.969   4.648  10.143  0.9007 -0.1700 -2.1061
63848SOL    HW298150   5.931   4.794  10.139 -0.3276 -0.3881 -0.0388
63849SOL     OW98151   8.868  10.708   2.957  0.4017 -0.2242  0.2175
63849SOL    HW198152   8.823  10.694   2.874  0.2940  0.6173  0.1288
63849SOL    HW298153   8.832  10.642   3.015  0.2325 -0.6023 -0.3076
63850SOL     OW98154   4.098   5.220   3.015 -0.5178 -0.2851  0.2147
63850SOL    HW198155   4.047   5.292   3.053 -0.6858 -0.9545  1.2870
63850SOL    HW298156   4.109   5.158   3.087  2.0486 -0.0570  0.0883
63851SOL     OW98157   3.061   1.409   0.640 -0.5397 -0.7626  0.2957
63851SOL    HW198158   3.081   1.424   0.548 -1.8139  0.8603  0.2293
63851SOL    HW298159   3.142   1.432   0.686 -0.4602  0.2265 -0.3122
63852SOL     OW98160   7.944   9.918   7.811  0.1696 -0.0971 -0.1616
63852SOL    HW198161   7.993   9.839   7.834 -1.5089 -1.5402 -1.2857
63852SOL    HW298162   7.949   9.923   7.716 -1.2825  0.0663 -0.2529
63853SOL     OW98163   4.547   1.053   2.855 -0.8422 -0.3094 -0.1457
63853SOL    HW198164   4.558   1.143   2.886 -0.9513  0.5263 -2.3643
63853SOL    HW298165   4.547   1.000   2.935 -0.1471  1.5788  1.1775
63854SOL     OW98166   8.995   9.054   1.210 -0.3353 -0.3732  0.5989
63854SOL    HW198167   8.931   9.114   1.171  0.1983 -0.1283  0.0680
63854SOL    HW298168   9.067   9.053   1.147  0.3954 -0.2609  1.4118
63855SOL     OW98169   6.040   1.977   8.858 -0.2763  0.5300  0.1504
63855SOL    HW198170   5.966   1.950   8.912 -0.3521  0.2715 -0.0825
63855SOL    HW298171   6.014   1.956   8.768  0.7169 -1.1169  0.1858
63856SOL     OW98172   0.535   1.643   0.420  0.0859  0.2062 -0.5934
63856SOL    HW198173   0.507   1.654   0.329 -0.5939 -0.4426 -0.4732
63856SOL    HW298174   0.630   1.640   0.415  0.1076  1.1780 -1.1643
63857SOL     OW98175   6.343   7.990   8.026  0.1802  0.9922  0.3330
63857SOL    HW198176   6.349   8.041   7.945  1.6755 -0.1600 -0.3352
63857SOL    HW298177   6.407   7.919   8.014 -1.0425 -0.4084  1.6630
63858SOL     OW98178  12.663  12.290   9.424 -0.1820  0.0062  0.1537
63858SOL    HW198179  12.666  12.371   9.475  0.2748  1.3184 -1.8726
63858SOL    HW298180  12.755  12.270   9.406 -0.3748  0.1854 -1.0868
63859SOL     OW98181  10.730   3.416  11.713 -0.4613 -0.6505 -0.0556
63859SOL    HW198182  10.691   3.411  11.625  0.2868 -0.1747 -0.4264
63859SOL    HW298183  10.662   3.384  11.771 -1.0612 -0.7392 -0.7884
63860SOL     OW98184   9.175   7.433   3.891  0.3698  0.1367  0.0790
63860SOL    HW198185   9.173   7.521   3.930 -0.0864 -0.4345  1.4043
63860SOL    HW298186   9.083   7.412   3.875  0.3760 -0.6171  0.9988
63861SOL     OW98187  12.517   3.481   4.061  0.0286 -0.2021  0.0465
63861SOL    HW198188  12.452   3.480   3.991 -1.3943  1.9564  1.2184
63861SOL    HW298189  12.556   3.568   4.056  0.2910 -0.2011  1.5490
63862SOL     OW98190   7.374  10.637  10.288  0.3178  0.3978  0.2743
63862SOL    HW198191   7.425  10.561  10.317  0.7956  0.8051  0.4960
63862SOL    HW298192   7.291  10.630  10.337  0.0563 -0.3911 -0.2621
63863SOL     OW98193   6.451   9.112   4.299  0.2708 -0.3690  0.4974
63863SOL    HW198194   6.513   9.154   4.240  1.3591 -1.4413  0.8303
63863SOL    HW298195   6.506   9.079   4.371 -0.9989  0.8532  2.1094
63864SOL     OW98196   7.910   2.628  12.182 -0.5894 -0.1140 -0.0143
63864SOL    HW198197   7.931   2.564  12.114 -0.8393 -0.1903 -0.0221
63864SOL    HW298198   7.900   2.576  12.262 -1.1818 -0.1382 -0.0972
63865SOL     OW98199   7.318   3.618  10.853  0.5045  0.4837 -0.4469
63865SOL    HW198200   7.224   3.618  10.835  0.9683  0.0936 -3.4074
63865SOL    HW298201   7.330   3.686  10.919 -1.6535  1.8581 -1.3608
63866SOL     OW98202   3.733   0.394  11.101  0.3392  0.1844  0.3025
63866SOL    HW198203   3.700   0.349  11.179  0.5180 -0.3250  0.0853
63866SOL    HW298204   3.750   0.324  11.038  0.8657  0.5293  0.0550
63867SOL     OW98205   2.278   6.886   6.227  0.6041 -0.0911 -0.2619
63867SOL    HW198206   2.259   6.899   6.135 -0.8212  0.5422  0.1009
63867SOL    HW298207   2.251   6.968   6.269 -0.0152 -0.8545  0.8926
63868SOL     OW98208   0.917   6.816  12.258 -0.0544 -0.3611 -0.0385
63868SOL    HW198209   0.941   6.874  12.330 -0.4032 -1.6437  1.1458
63868SOL    HW298210   0.821   6.820  12.256 -0.1597 -1.7481  0.8276
63869SOL     OW98211   8.818  10.672   0.453  0.5957  0.7069 -0.3408
63869SOL    HW198212   8.807  10.583   0.419  1.0052 -0.3659  2.1218
63869SOL    HW298213   8.828  10.726   0.374 -0.5653 -1.2604 -1.9487
63870SOL     OW98214  12.067  10.126   5.552 -0.0121 -0.1143 -0.5361
63870SOL    HW198215  12.023  10.144   5.469  0.2893 -1.7003 -1.0837
63870SOL    HW298216  12.094  10.212   5.585  0.2582  0.5205 -2.3053
63871SOL     OW98217  10.304   7.083  11.800  0.2194  0.3834  0.5174
63871SOL    HW198218  10.237   7.049  11.740  1.0379  1.2631 -0.9577
63871SOL    HW298219  10.276   7.171  11.821  0.1293  0.2081  1.1417
63872SOL     OW98220   2.405   0.039  11.818 -0.2045 -0.5236  0.3312
63872SOL    HW198221   2.500   0.031  11.817 -0.2161 -0.8154 -1.4455
63872SOL    HW298222   2.378  -0.005  11.899  1.1453 -0.6180  0.7552
63873SOL     OW98223   6.232   1.923   1.471  0.1038 -0.5179  0.5036
63873SOL    HW198224   6.182   1.973   1.408 -1.0258 -1.6789  0.4429
63873SOL    HW298225   6.172   1.908   1.544  0.9408 -0.3971  1.2369
63874SOL     OW98226   0.486   4.599  12.744 -0.1213  0.7226  0.5121
63874SOL    HW198227   0.566   4.612  12.693  0.7072  1.5723  1.9769
63874SOL    HW298228   0.514   4.606  12.835 -1.4837 -1.1684  1.1504
63875SOL     OW98229  11.789   0.808   6.662  0.2841  0.0181  0.2603
63875SOL    HW198230  11.809   0.721   6.696 -0.7041 -0.5532 -0.5489
63875SOL    HW298231  11.873   0.841   6.629  0.7144 -0.5271  0.7959
63876SOL     OW98232   5.654  12.592   8.001 -0.1001 -0.9496  0.7780
63876SOL    HW198233   5.568  12.607   7.963 -0.3868 -0.7746  1.4789
63876SOL    HW298234   5.640  12.526   8.069  0.3933 -1.2261  0.6184
63877SOL     OW98235   4.645  11.286   6.590  0.2492  0.2086  0.0878
63877SOL    HW198236   4.670  11.378   6.599  1.4464  0.1718 -2.0073
63877SOL    HW298237   4.636  11.273   6.495  0.4076 -1.8983  0.3006
63878SOL     OW98238   2.666   3.819   7.341  0.4797  0.0909  0.0933
63878SOL    HW198239   2.603   3.891   7.341  1.1776  0.7177  0.4949
63878SOL    HW298240   2.751   3.862   7.350  1.1341 -0.6089 -2.0447
63879SOL     OW98241  12.503   9.584   0.461 -0.0449  0.0102  0.1213
63879SOL    HW198242  12.572   9.610   0.522 -0.4894  1.4525  0.0366
63879SOL    HW298243  12.442   9.657   0.460 -0.2838 -0.1558 -1.7224
63880SOL     OW98244   2.634   1.837   5.807 -0.4035 -0.4849  0.0271
63880SOL    HW198245   2.706   1.870   5.861 -1.4853 -0.2550  1.3901
63880SOL    HW298246   2.671   1.763   5.760  0.7647 -0.2834  0.5887
63881SOL     OW98247   1.066   2.973   1.881 -0.1938  0.2013  0.0375
63881SOL    HW198248   1.016   2.997   1.803  0.2228 -1.1460 -0.6710
63881SOL    HW298249   1.002   2.971   1.951 -0.5799  1.4196 -0.2606
63882SOL     OW98250  10.617   1.356   2.172 -0.2644 -0.0914  0.0513
63882SOL    HW198251  10.584   1.333   2.259  0.5648  0.2112  0.4595
63882SOL    HW298252  10.695   1.410   2.190 -0.4821  0.5510 -0.8779
63883SOL     OW98253   0.789  10.594   0.376  0.1452 -0.0487 -0.2340
63883SOL    HW198254   0.841  10.521   0.410  1.4594  1.2502  0.6549
63883SOL    HW298255   0.852  10.665   0.364 -1.1384  1.0256 -0.8193
63884SOL     OW98256   6.295   3.208   6.116 -0.0745 -0.4350 -1.0957
63884SOL    HW198257   6.277   3.302   6.127  0.8791 -0.4137  0.6797
63884SOL    HW298258   6.390   3.203   6.103  0.6576 -1.3439  3.2224
63885SOL     OW98259   8.383   1.984  10.620  0.1428 -0.3830  0.1138
63885SOL    HW198260   8.316   1.964  10.554 -1.1039 -2.4946  1.9130
63885SOL    HW298261   8.369   2.077  10.640 -2.4231 -0.7917  0.5463
63886SOL     OW98262   5.059  11.717  11.162 -0.5626 -0.0598 -0.0454
63886SOL    HW198263   5.081  11.626  11.140 -0.4040 -0.2907  0.9813
63886SOL    HW298264   5.119  11.770  11.111  2.6333 -0.6745  2.7348
63887SOL     OW98265   3.583   6.294   6.114  0.5459  0.0524 -0.4501
63887SOL    HW198266   3.533   6.306   6.034  0.6763 -3.6402 -1.2890
63887SOL    HW298267   3.672   6.323   6.092 -0.0185  1.7504 -0.6276
63888SOL     OW98268  10.440   1.457   3.927 -0.0799  0.2178  0.3559
63888SOL    HW198269  10.530   1.472   3.899  0.3808 -0.3097  1.4737
63888SOL    HW298270  10.445   1.454   4.023 -1.7713  3.3243  0.6552
63889SOL     OW98271   9.424   7.802   1.689 -0.2880  0.3414  0.2710
63889SOL    HW198272   9.470   7.722   1.710 -1.4631 -0.9419 -1.7112
63889SOL    HW298273   9.352   7.806   1.752  1.8671  1.9271  2.8327
63890SOL     OW98274  12.086  10.322   1.158 -0.4281  0.0677 -0.1741
63890SOL    HW198275  11.996  10.313   1.125 -0.6508  3.7998 -1.0317
63890SOL    HW298276  12.139  10.269   1.099 -1.9154 -1.2998 -0.3438
63891SOL     OW98277  10.386  10.851   8.629 -0.0826 -0.5334  0.1270
63891SOL    HW198278  10.471  10.834   8.669  0.0011  0.2466  0.2937
63891SOL    HW298279  10.336  10.771   8.645  0.3680 -0.7088  0.7033
63892SOL     OW98280   6.982   7.146   1.746  0.1482  0.0193 -0.4339
63892SOL    HW198281   7.045   7.087   1.787 -0.3518 -1.8374 -2.2144
63892SOL    HW298282   6.903   7.094   1.734 -0.9541  1.5996 -0.4182
63893SOL     OW98283   9.327  10.095   9.010 -0.2776  0.0888 -0.7121
63893SOL    HW198284   9.367  10.095   9.097 -2.3594  1.5545  0.3208
63893SOL    HW298285   9.367  10.020   8.965  1.3994 -0.2532  1.2094
63894SOL     OW98286  11.904   3.095   5.884  0.0623  0.1620  0.1457
63894SOL    HW198287  11.879   3.012   5.845 -2.5074  1.0944 -0.4247
63894SOL    HW298288  11.934   3.072   5.972 -0.0925 -1.4145 -0.1839
63895SOL     OW98289   9.314   6.553   0.084 -0.4013  0.4597  0.2871
63895SOL    HW198290   9.278   6.614   0.148  1.6507  1.0555  0.9362
63895SOL    HW298291   9.400   6.529   0.118  0.5655  0.3913 -1.9972
63896SOL     OW98292  10.537   1.495   3.576 -0.1723 -0.2534  0.3294
63896SOL    HW198293  10.608   1.467   3.635  0.1149 -0.2498 -0.0097
63896SOL    HW298294  10.490   1.415   3.554  0.6063 -0.4803 -0.5865
63897SOL     OW98295   7.197  11.040  10.832  0.1209 -0.2395 -0.0979
63897SOL    HW198296   7.136  11.097  10.786 -0.4422 -0.8425 -0.1294
63897SOL    HW298297   7.231  11.093  10.904  0.7564  0.6041 -0.9992
63898SOL     OW98298   6.716   0.958   9.723  0.5097 -0.6808  0.5969
63898SOL    HW198299   6.744   0.887   9.666 -0.1433 -1.0612  0.7443
63898SOL    HW298300   6.754   1.037   9.684 -0.4087 -0.8539 -0.6970
63899SOL     OW98301  10.650   7.205   1.204  0.7090 -0.0106 -0.5448
63899SOL    HW198302  10.709   7.274   1.234  0.9675 -0.3907 -0.1666
63899SOL    HW298303  10.624   7.158   1.283  0.2627 -0.1381 -0.7591
63900SOL     OW98304   8.963  12.077   0.742  0.4794  0.5238 -0.2472
63900SOL    HW198305   8.917  12.012   0.690  3.6944 -0.5478 -2.0200
63900SOL    HW298306   8.907  12.155   0.738 -1.6078 -0.9309 -1.3343
63901SOL     OW98307   5.781   8.521   8.688 -0.4333 -0.4581  0.0975
63901SOL    HW198308   5.699   8.473   8.682 -1.0440  0.3988  1.1630
63901SOL    HW298309   5.839   8.462   8.737 -0.4800 -0.9754 -0.4683
63902SOL     OW98310   0.988  11.623   5.298 -0.3012  0.0789  0.2942
63902SOL    HW198311   1.047  11.553   5.274  0.7429  0.9268  0.3329
63902SOL    HW298312   0.917  11.619   5.234  0.3939 -0.2117 -0.4622
63903SOL     OW98313   8.170   2.829   6.903  0.3591  0.0743  0.2307
63903SOL    HW198314   8.143   2.816   6.994  0.8996 -2.8295  0.0724
63903SOL    HW298315   8.097   2.876   6.863 -0.8782 -0.5358  1.6657
63904SOL     OW98316   9.104   3.251   9.052  0.1137 -0.4966  0.3170
63904SOL    HW198317   9.132   3.340   9.035 -0.7662 -0.0627  1.0473
63904SOL    HW298318   9.177   3.212   9.101  0.2186  0.0441  0.6053
63905SOL     OW98319   9.634  11.008   0.471  0.4362  0.0117  0.1115
63905SOL    HW198320   9.681  10.925   0.458 -0.5777 -0.6592  0.6088
63905SOL    HW298321   9.616  11.039   0.382  0.2676 -0.6313 -0.0847
63906SOL     OW98322   6.049   5.216   5.765 -0.2818  0.2520  0.4639
63906SOL    HW198323   6.092   5.139   5.728  0.2622  0.5791  0.4155
63906SOL    HW298324   6.095   5.290   5.726 -2.1939  0.6585 -1.1957
63907SOL     OW98325   6.425  10.884   9.511  0.6242 -0.1262  0.3425
63907SOL    HW198326   6.428  10.840   9.426  1.9267 -0.7434  0.6836
63907SOL    HW298327   6.511  10.867   9.549 -0.0684 -0.1894  1.9476
63908SOL     OW98328   7.788  10.637  11.531 -0.1439 -0.0083  0.1572
63908SOL    HW198329   7.761  10.707  11.472 -0.1805  0.4413  0.7012
63908SOL    HW298330   7.709  10.615  11.581 -0.1085 -0.3702  0.0590
63909SOL     OW98331   5.214  12.619   9.127 -0.1901  0.3276 -0.4935
63909SOL    HW198332   5.292  12.595   9.177 -0.1872 -0.5789 -0.9019
63909SOL    HW298333   5.190  12.538   9.081 -1.8058  0.3720  0.2219
63910SOL     OW98334   8.782   9.982   6.589  0.3296  0.3933  0.2389
63910SOL    HW198335   8.690   9.978   6.616  0.3270 -1.8793  0.0572
63910SOL    HW298336   8.793  10.070   6.553 -1.6046  0.9110  0.8222
63911SOL     OW98337   6.308   4.220   7.718 -0.0886 -0.2088  0.4495
63911SOL    HW198338   6.395   4.187   7.738  0.1847 -1.4511 -2.4518
63911SOL    HW298339   6.312   4.248   7.627 -2.7435 -0.4005  0.1796
63912SOL     OW98340   3.820   3.805   4.043  0.1435 -0.2334 -0.2030
63912SOL    HW198341   3.888   3.752   4.001 -0.5773 -0.4522 -1.1373
63912SOL    HW298342   3.866   3.884   4.072  0.8755 -0.5602 -0.4528
63913SOL     OW98343   5.655   0.669   4.492 -0.5855  0.0521 -0.1758
63913SOL    HW198344   5.721   0.640   4.428 -0.3055 -1.4232  0.7562
63913SOL    HW298345   5.581   0.697   4.438  0.5765  1.3093 -1.2366
63914SOL     OW98346   8.461   6.276   1.707  0.2558  0.7789 -0.2561
63914SOL    HW198347   8.420   6.241   1.786 -1.5529  1.8202 -0.6852
63914SOL    HW298348   8.464   6.371   1.721  2.3209  0.7931 -0.3863
63915SOL     OW98349  10.701   9.420   5.360  0.5524 -0.0648 -0.3375
63915SOL    HW198350  10.742   9.473   5.429  2.7849 -0.0430 -1.5597
63915SOL    HW298351  10.710   9.330   5.391 -0.5282  0.0611  0.3929
63916SOL     OW98352   6.567   8.507   4.999  0.3935  1.0274  0.4612
63916SOL    HW198353   6.491   8.554   4.966  0.9463  2.3024  0.9721
63916SOL    HW298354   6.563   8.517   5.094  0.6943  0.2964  0.5612
63917SOL     OW98355   8.769   3.061   4.170 -0.3980  0.5482  0.6558
63917SOL    HW198356   8.783   3.071   4.264  1.1955  2.3835  0.2868
63917SOL    HW298357   8.803   3.142   4.132  1.3822 -1.1878 -1.7190
63918SOL     OW98358  12.648   5.892   3.707  0.3446 -0.2268  0.4387
63918SOL    HW198359  12.740   5.868   3.720  0.6127  1.1445  1.2898
63918SOL    HW298360  12.615   5.908   3.795 -0.1269  1.2870  0.0114
63919SOL     OW98361   2.384   2.824  12.211  0.4380 -0.6249 -0.9225
63919SOL    HW198362   2.376   2.820  12.306  0.4578  1.4673 -0.7774
63919SOL    HW298363   2.306   2.780  12.178 -0.8473  0.7524  0.1390
63920SOL     OW98364  10.656   4.880  10.085  0.5712 -0.8928 -0.4579
63920SOL    HW198365  10.567   4.866  10.054  0.8331  2.3812 -3.3239
63920SOL    HW298366  10.710   4.826  10.028  0.6151 -0.1629 -1.1178
63921SOL     OW98367  11.355   9.493   3.901  0.1034  0.2078 -0.2153
63921SOL    HW198368  11.323   9.502   3.811  0.6228 -2.0762 -0.6959
63921SOL    HW298369  11.312   9.414   3.934  1.4125 -0.1095  0.8349
63922SOL     OW98370   1.921  11.659   0.943 -0.1943  0.1791  0.3617
63922SOL    HW198371   1.849  11.640   1.003 -0.8197 -0.6066 -0.6125
63922SOL    HW298372   1.923  11.755   0.939 -0.2722  0.2437  1.4629
63923SOL     OW98373  12.538   3.491  11.095  0.2231  0.6597  0.0091
63923SOL    HW198374  12.467   3.428  11.103 -1.5413  2.5643  0.4940
63923SOL    HW298375  12.608   3.456  11.150 -0.5028 -1.0664 -0.1167
63924SOL     OW98376  10.080  10.948   0.032 -0.4790 -0.2350  0.1420
63924SOL    HW198377  10.157  11.000   0.007 -0.1043 -1.5024 -1.5450
63924SOL    HW298378  10.025  11.008   0.081 -0.1128  1.8160 -1.8048
63925SOL     OW98379   9.959   6.237   2.279 -0.1924 -0.1040 -0.1125
63925SOL    HW198380   9.995   6.161   2.234  0.5783  0.1339  0.0906
63925SOL    HW298381  10.031   6.300   2.283 -1.2725  1.3211 -1.7815
63926SOL     OW98382   6.802   7.687   8.336 -0.0794 -0.4228  0.1851
63926SOL    HW198383   6.831   7.759   8.281 -0.7165 -0.5740 -0.3708
63926SOL    HW298384   6.860   7.688   8.411  0.9381 -0.3327 -0.5882
63927SOL     OW98385   2.227   9.983   8.453  0.1576  0.4992  0.0629
63927SOL    HW198386   2.322   9.996   8.453  0.3859 -0.8516 -0.7755
63927SOL    HW298387   2.205   9.968   8.361 -1.0401  1.7277  0.1130
63928SOL     OW98388   7.580   7.302   6.293 -0.5772 -0.5931 -0.2939
63928SOL    HW198389   7.510   7.321   6.229  0.6980  2.2962 -1.0120
63928SOL    HW298390   7.547   7.339   6.375  0.0618  0.8052 -0.6416
63929SOL     OW98391  11.529   9.475   9.373  0.5749  0.2018 -0.5278
63929SOL    HW198392  11.511   9.518   9.456 -0.1492 -2.3092  0.7031
63929SOL    HW298393  11.463   9.510   9.313  0.5002  1.3278  0.1828
63930SOL     OW98394   8.935   5.313   1.367 -0.1074  0.0535 -0.1300
63930SOL    HW198395   8.943   5.345   1.277  1.2329  1.4371  0.4468
63930SOL    HW298396   8.862   5.364   1.403  1.3926  1.8778  0.4864
63931SOL     OW98397   0.832   9.213  12.283 -0.4060 -0.0581  0.0764
63931SOL    HW198398   0.806   9.301  12.312  0.3378  0.1321  0.1890
63931SOL    HW298399   0.754   9.160  12.294 -1.1593  0.7939 -0.8740
63932SOL     OW98400   0.616  10.902   3.265  0.2303  0.0172  0.0148
63932SOL    HW198401   0.699  10.865   3.297  0.3890 -0.1091 -0.5342
63932SOL    HW298402   0.560  10.825   3.253  0.4204 -0.0098 -0.7239
63933SOL     OW98403  11.093   5.604   0.884 -0.4041  0.2125 -0.1059
63933SOL    HW198404  11.018   5.630   0.829 -0.4650 -0.8972 -0.5796
63933SOL    HW298405  11.097   5.671   0.952 -1.3496  0.7175 -0.5206
63934SOL     OW98406   2.731  11.312   8.677  0.0626 -0.1757  0.3434
63934SOL    HW198407   2.648  11.360   8.676  0.5509  0.6928  0.7772
63934SOL    HW298408   2.758  11.312   8.769  0.6839 -0.2042  0.1683
63935SOL     OW98409   0.810   6.110   3.369  0.2213 -0.4147 -0.6759
63935SOL    HW198410   0.831   6.083   3.280 -0.5864  1.4005 -1.4640
63935SOL    HW298411   0.877   6.174   3.391 -0.8456  0.8167 -0.8694
63936SOL     OW98412   4.774   7.828   4.960 -0.3238 -0.1482 -0.0293
63936SOL    HW198413   4.819   7.789   5.035  0.3706 -0.0682 -0.3934
63936SOL    HW298414   4.687   7.851   4.993  0.2794  0.7302  1.0151
63937SOL     OW98415   1.772   2.119   0.400  0.6248 -0.1317 -0.2772
63937SOL    HW198416   1.768   2.173   0.479  2.5024 -0.3865  0.0517
63937SOL    HW298417   1.818   2.173   0.336 -0.8942  0.0774 -1.2442
63938SOL     OW98418   2.948  11.776   7.992  0.3145 -0.1552  0.1598
63938SOL    HW198419   2.893  11.853   7.979  1.3910  0.4974 -0.7367
63938SOL    HW298420   2.945  11.760   8.086 -1.0056  0.1421  0.1933
63939SOL     OW98421   4.790  11.059   4.794 -0.0123  0.1537 -0.6036
63939SOL    HW198422   4.858  11.058   4.861 -1.0398  0.2555  0.4671
63939SOL    HW298423   4.831  11.019   4.717  0.7058 -1.3851  0.5446
63940SOL     OW98424   6.811   8.912   6.200 -0.1864 -0.0026 -0.5669
63940SOL    HW198425   6.778   8.822   6.192  1.2270 -0.7900  1.5818
63940SOL    HW298426   6.738   8.961   6.237  0.1232 -1.1485  1.7313
63941SOL     OW98427  10.242   8.589   6.520  0.0484 -0.0570 -0.6420
63941SOL    HW198428  10.325   8.552   6.549 -0.1459 -0.4653 -0.5995
63941SOL    HW298429  10.203   8.627   6.599 -0.8317 -1.8328 -0.1643
63942SOL     OW98430   8.691   0.124  11.967 -0.0312 -0.5767  0.2503
63942SOL    HW198431   8.783   0.146  11.955  0.2917 -1.0937  1.6280
63942SOL    HW298432   8.646   0.209  11.967  0.6532 -0.2047  1.1699
63943SOL     OW98433  10.010  11.798   5.669  0.0149 -0.4025 -0.0407
63943SOL    HW198434  10.009  11.721   5.726  0.9329 -0.4659 -0.1005
63943SOL    HW298435   9.928  11.793   5.621 -1.2193  0.1100  1.8702
63944SOL     OW98436   2.550   3.098   1.049 -0.7419 -0.2021 -0.0641
63944SOL    HW198437   2.627   3.063   1.093 -1.3972 -3.5805 -1.3115
63944SOL    HW298438   2.584   3.171   0.997  1.3557 -0.6849  0.5247
63945SOL     OW98439  11.009  11.589   7.731  0.7318 -0.1053  0.4060
63945SOL    HW198440  10.954  11.666   7.718  0.9983  0.2376  1.2525
63945SOL    HW298441  11.053  11.605   7.814  1.5402 -0.7209  0.1089
63946SOL     OW98442   5.245  10.663  12.029 -0.7381 -0.7307  0.3240
63946SOL    HW198443   5.229  10.668  12.123 -0.3163  0.7537  0.3496
63946SOL    HW298444   5.175  10.716  11.990 -0.2091 -0.3156 -0.0927
63947SOL     OW98445   1.368   0.840   1.777  0.2987 -0.2952  0.0143
63947SOL    HW198446   1.433   0.880   1.719  0.5075 -3.4622 -2.1859
63947SOL    HW298447   1.418   0.785   1.837 -0.1735 -0.2536  0.4590
63948SOL     OW98448  12.026  10.025  10.813 -0.2387 -0.5363 -0.0614
63948SOL    HW198449  11.981  10.004  10.731  0.1742 -0.8598 -0.2105
63948SOL    HW298450  12.073  10.106  10.795  0.3586 -0.9359 -0.3509
63949SOL     OW98451  11.365   3.154   0.246 -0.0237 -0.3606  0.8363
63949SOL    HW198452  11.313   3.200   0.179  0.0889 -0.0712  0.9437
63949SOL    HW298453  11.329   3.186   0.329  2.3694  2.3215  0.9896
63950SOL     OW98454   5.207   2.500   4.782 -0.1121  0.0775  0.3000
63950SOL    HW198455   5.269   2.557   4.737 -1.1587 -0.1234 -1.4685
63950SOL    HW298456   5.262   2.439   4.832  1.1054  0.1670 -0.8831
63951SOL     OW98457  10.471  10.690   7.678 -0.4434 -0.1224 -0.4289
63951SOL    HW198458  10.408  10.701   7.750 -1.1554  0.0164 -1.0501
63951SOL    HW298459  10.445  10.757   7.614 -0.1561 -0.5856 -1.0395
63952SOL     OW98460   4.500   8.640   0.406  0.4035 -0.5243  0.0776
63952SOL    HW198461   4.574   8.643   0.467  1.3584 -0.0988 -1.0597
63952SOL    HW298462   4.538   8.662   0.321 -1.1993  0.5735 -0.4047
63953SOL     OW98463   2.958   3.171   0.686  0.2545  0.1384 -0.0050
63953SOL    HW198464   2.891   3.178   0.618 -1.2320  2.2668  1.5336
63953SOL    HW298465   2.968   3.077   0.700 -0.8828 -0.2891 -1.7255
63954SOL     OW98466  10.727   0.073   1.074  0.5953  0.1875  0.2750
63954SOL    HW198467  10.665   0.100   1.141 -0.5356  0.3170 -0.7828
63954SOL    HW298468  10.803   0.040   1.123 -1.3726 -2.6699  1.6883
63955SOL     OW98469   8.144   2.272   4.404  0.9659  0.1365 -0.3257
63955SOL    HW198470   8.108   2.185   4.388  0.1230  0.7215 -1.8437
63955SOL    HW298471   8.085   2.331   4.356  2.3881  1.3886 -0.5935
63956SOL     OW98472   3.946  11.447   2.115 -0.0570  0.6329  0.9479
63956SOL    HW198473   4.021  11.448   2.055 -0.0952 -1.7728  0.7669
63956SOL    HW298474   3.977  11.497   2.191  1.4091  0.4459  0.5142
63957SOL     OW98475   9.502   3.774   8.370 -0.7989  0.0992  0.3668
63957SOL    HW198476   9.454   3.708   8.320  1.2927 -1.8719  0.8109
63957SOL    HW298477   9.567   3.724   8.419 -1.3158  2.1438  3.4248
63958SOL     OW98478  12.590   2.700   9.011 -0.2669  0.3360 -0.7736
63958SOL    HW198479  12.633   2.784   8.996 -2.0374  1.3244 -0.5876
63958SOL    HW298480  12.536   2.714   9.090  0.4933 -1.4183  0.1077
63959SOL     OW98481   2.610   9.238   5.498  0.2939 -0.0182 -0.2537
63959SOL    HW198482   2.571   9.324   5.481 -1.5025 -0.7194  0.1406
63959SOL    HW298483   2.617   9.197   5.412  1.4611  0.6059 -0.4854
63960SOL     OW98484  10.001  11.665   1.521 -0.5965  0.3088  0.1629
63960SOL    HW198485   9.972  11.680   1.611 -0.3278 -0.0707  0.3175
63960SOL    HW298486   9.925  11.683   1.467 -0.9678 -0.1535  0.5237
63961SOL     OW98487   2.084   3.194   5.763  0.3532  0.5715  0.3580
63961SOL    HW198488   2.055   3.113   5.804 -0.8310  0.1603 -1.1803
63961SOL    HW298489   2.174   3.177   5.736  1.1673  0.8629  2.6873
63962SOL     OW98490   0.803   7.036  10.502  0.7808  0.0994 -0.4092
63962SOL    HW198491   0.877   7.022  10.443  1.9588  1.3728  0.6956
63962SOL    HW298492   0.789   6.951  10.544 -0.1449 -0.8583 -2.5177
63963SOL     OW98493   9.445  12.612   5.835 -0.0412  0.3000 -0.1997
63963SOL    HW198494   9.353  12.627   5.815 -0.7574 -2.1411  0.9336
63963SOL    HW298495   9.454  12.634   5.927 -0.0035 -1.2973  0.2124
63964SOL     OW98496   3.251   2.305   3.017 -0.6665  0.1909  0.3213
63964SOL    HW198497   3.342   2.289   3.039 -0.3957 -0.3712 -1.1267
63964SOL    HW298498   3.250   2.392   2.978 -0.6089 -0.1282 -0.4030
63965SOL     OW98499   4.621   3.752   7.443 -0.0133 -0.3604  0.1122
63965SOL    HW198500   4.545   3.701   7.471  0.6977 -1.9053 -0.6265
63965SOL    HW298501   4.586   3.839   7.426 -1.1424 -0.3452  2.1638
63966SOL     OW98502   8.312   2.639  11.196 -0.0621  0.4548 -0.0058
63966SOL    HW198503   8.348   2.578  11.260 -1.4659  0.5862  0.9487
63966SOL    HW298504   8.332   2.726  11.231  1.9942  0.6190 -1.3955
63967SOL     OW98505   7.194  11.127   8.782 -0.4707 -0.3078  0.3220
63967SOL    HW198506   7.272  11.116   8.727  0.2923  1.2697  1.0319
63967SOL    HW298507   7.220  11.191   8.848 -2.5943  0.8357  0.1296
63968SOL     OW98508   7.689   7.787  10.681  0.2669 -0.1387  0.0642
63968SOL    HW198509   7.712   7.744  10.598  2.3074  2.0737 -0.6439
63968SOL    HW298510   7.747   7.746  10.746  0.4611 -0.1515 -0.1152
63969SOL     OW98511   2.180   7.298  12.008 -0.6052  0.4550 -0.8445
63969SOL    HW198512   2.104   7.340  11.969 -1.7766 -1.4225 -0.6975
63969SOL    HW298513   2.151   7.271  12.096  1.0691  2.0072  0.2586
63970SOL     OW98514  10.599  11.682   4.913 -0.2210 -0.0787  0.2032
63970SOL    HW198515  10.672  11.647   4.964  0.7868  1.0081 -0.4230
63970SOL    HW298516  10.536  11.711   4.978  0.6280  0.4261  0.8241
63971SOL     OW98517  11.221   2.099   4.582  0.4542 -0.3185  0.1996
63971SOL    HW198518  11.174   2.015   4.586 -1.2018  0.5678  0.5086
63971SOL    HW298519  11.259   2.100   4.494  1.1217 -1.6926  0.4402
63972SOL     OW98520  12.660  10.425   0.407  0.0953 -0.2253 -0.8218
63972SOL    HW198521  12.722  10.415   0.480  0.8585  0.3854 -1.3612
63972SOL    HW298522  12.715  10.414   0.329 -0.6797 -0.6927 -1.3045
63973SOL     OW98523   6.287   8.447  10.558 -0.6836  0.1762 -0.1333
63973SOL    HW198524   6.312   8.369  10.509 -0.2195  0.1264  0.1793
63973SOL    HW298525   6.356   8.458  10.624 -2.1533 -0.7568  1.6611
63974SOL     OW98526  12.647   9.055   1.058 -0.0821  0.0055  0.4732
63974SOL    HW198527  12.604   9.020   0.980 -0.8150  1.2839  0.2779
63974SOL    HW298528  12.733   9.013   1.059 -0.0691 -0.0419 -1.0133
63975SOL     OW98529   2.853  11.995   9.156  0.4612  0.1204  0.1313
63975SOL    HW198530   2.787  12.028   9.218  0.7507  0.0779  0.4646
63975SOL    HW298531   2.878  11.909   9.190  0.7463  0.1698  0.0515
63976SOL     OW98532   9.282   6.136  10.056 -0.2056  0.2320  0.2501
63976SOL    HW198533   9.303   6.130  10.150 -0.2052  2.8265  0.4929
63976SOL    HW298534   9.193   6.101  10.049  0.4771 -1.7516  0.8577
63977SOL     OW98535  12.251   2.806   3.028  0.0315 -0.3636  0.3791
63977SOL    HW198536  12.270   2.720   3.066 -0.5408 -0.1308  1.2163
63977SOL    HW298537  12.158   2.802   3.006 -0.5981  0.8047  2.5476
63978SOL     OW98538   4.385   4.279   7.085  0.5013  0.5790 -0.2466
63978SOL    HW198539   4.313   4.275   7.022  0.1030  0.9432  0.1802
63978SOL    HW298540   4.431   4.360   7.064  0.3262  0.7362 -0.0269
63979SOL     OW98541   0.382  11.695  10.821 -0.2828  0.3312 -0.0668
63979SOL    HW198542   0.361  11.605  10.794 -0.1048  0.4628 -0.6505
63979SOL    HW298543   0.323  11.750  10.769  0.1538  0.5947 -0.2866
63980SOL     OW98544  10.760   8.057   9.629  0.4756  0.1848 -0.0043
63980SOL    HW198545  10.668   8.077   9.617  0.5737  0.3981 -0.4170
63980SOL    HW298546  10.802   8.141   9.646  0.7908  0.2670 -1.1299
63981SOL     OW98547   1.517   3.359   0.168 -0.4341 -0.5631  0.3359
63981SOL    HW198548   1.572   3.383   0.093  0.0685 -0.6610  0.6706
63981SOL    HW298549   1.431   3.397   0.147  0.0185  0.4813  0.2694
63982SOL     OW98550  11.056  12.779   2.461 -0.2142  0.3447 -0.3909
63982SOL    HW198551  11.057  12.793   2.555  1.2243  0.0446 -0.3359
63982SOL    HW298552  10.964  12.763   2.440 -0.4049 -0.7924  1.1397
63983SOL     OW98553   2.943  12.079   7.303 -0.8547  0.1341  0.4457
63983SOL    HW198554   2.922  12.168   7.277  1.7281  0.5791 -0.4190
63983SOL    HW298555   3.011  12.088   7.371  0.5461 -1.1020 -0.7056
63984SOL     OW98556   1.540   1.734  12.365 -0.6024  0.1200 -0.4249
63984SOL    HW198557   1.481   1.725  12.440 -0.0509 -0.2413 -0.0326
63984SOL    HW298558   1.502   1.807  12.314 -0.2690  1.2390  0.8631
63985SOL     OW98559  11.382  11.769   2.903 -0.4355 -0.4177 -0.0697
63985SOL    HW198560  11.476  11.788   2.901  0.0177 -2.4416 -1.1654
63985SOL    HW298561  11.360  11.764   2.996  0.4796  0.3225  0.1989
63986SOL     OW98562  12.393  10.795  12.293 -0.0126 -0.0440 -0.2741
63986SOL    HW198563  12.426  10.884  12.308 -0.7741  0.2640 -0.4042
63986SOL    HW298564  12.418  10.775  12.202 -2.4990  1.2465 -1.3353
63987SOL     OW98565   3.327   9.374  10.879 -0.2709  0.9435  0.2280
63987SOL    HW198566   3.300   9.459  10.844 -2.1559  0.1491 -0.3314
63987SOL    HW298567   3.354   9.324  10.802 -0.5253  0.5484  0.3950
63988SOL     OW98568  11.247   9.668  10.921  0.6614 -0.0724  0.7461
63988SOL    HW198569  11.216   9.595  10.975  2.1172 -0.8670  0.5583
63988SOL    HW298570  11.299   9.721  10.981  1.1356 -0.2020  0.4512
63989SOL     OW98571   0.727   1.919   4.986 -0.4597 -0.2075 -0.0595
63989SOL    HW198572   0.815   1.891   5.012 -0.6663  1.1941  2.5116
63989SOL    HW298573   0.708   1.869   4.907  0.8444 -4.1085  1.8190
63990SOL     OW98574   2.720   5.226  11.602  0.3452 -0.0816 -0.0566
63990SOL    HW198575   2.669   5.264  11.675  1.4433 -0.2466  0.8199
63990SOL    HW298576   2.662   5.234  11.526 -1.3159 -0.9641  1.0550
63991SOL     OW98577  11.704   1.335   4.394  0.0412  0.1410 -0.5326
63991SOL    HW198578  11.636   1.268   4.385 -0.5589  0.8784 -1.7161
63991SOL    HW298579  11.751   1.334   4.311  0.4244  0.7536 -0.3324
63992SOL     OW98580   8.610   1.747   2.310  0.6406  0.2432  0.2492
63992SOL    HW198581   8.535   1.782   2.357  0.3089  0.0192 -0.1103
63992SOL    HW298582   8.578   1.668   2.267  1.4542 -0.6707  1.2726
63993SOL     OW98583   8.714   1.656   8.921  0.1723 -0.2535 -0.1774
63993SOL    HW198584   8.640   1.596   8.929 -0.1590  0.2333  0.3999
63993SOL    HW298585   8.721   1.673   8.827 -0.4465 -0.2921 -0.2325
63994SOL     OW98586   2.809   3.527   9.722 -0.1304  0.2112 -0.3159
63994SOL    HW198587   2.850   3.518   9.809 -0.3481  0.6221 -0.1675
63994SOL    HW298588   2.715   3.533   9.740 -0.1972  0.0258 -0.6021
63995SOL     OW98589   4.446   4.801   5.559  0.2558 -0.1807 -0.2173
63995SOL    HW198590   4.515   4.746   5.596  1.4710  2.1863  1.2664
63995SOL    HW298591   4.464   4.801   5.465  0.6919 -1.6272 -0.1575
63996SOL     OW98592   5.983  12.773   0.433 -0.4571  0.1722 -0.0184
63996SOL    HW198593   6.022  12.726   0.360 -0.6302 -0.9780  0.5978
63996SOL    HW298594   6.049  12.768   0.502 -1.1409 -0.6604  0.6033
63997SOL     OW98595  12.418   3.485  10.761 -0.7608  0.0934 -0.7235
63997SOL    HW198596  12.371   3.561  10.795 -2.2511  0.0124 -2.4756
63997SOL    HW298597  12.506   3.494  10.797 -1.0687  2.3068 -0.3735
63998SOL     OW98598   4.210   4.068   6.781  0.2829  0.2235 -0.4046
63998SOL    HW198599   4.132   4.013   6.791 -0.6842  1.5250 -0.3847
63998SOL    HW298600   4.235   4.059   6.689  1.1162 -1.4411 -0.0589
63999SOL     OW98601  10.236  12.264   2.338  0.0035  0.1506 -0.6178
63999SOL    HW198602  10.243  12.173   2.367 -0.7541 -0.1261 -1.2529
63999SOL    HW298603  10.317  12.280   2.290  1.1617  0.5379  1.3651
64000SOL     OW98604  11.105   5.558  12.431  0.1701 -0.0356 -0.2236
64000SOL    HW198605  11.014   5.568  12.403  0.0681 -1.0143 -0.2926
64000SOL    HW298606  11.107   5.472  12.474  0.7701  0.5545  0.9743
64001SOL     OW98607  11.120   7.639  12.779  0.3179 -0.2044 -0.2467
64001SOL    HW198608  11.057   7.569  12.762  0.1749 -0.0821 -0.2259
64001SOL    HW298609  11.201   7.594  12.802  0.4690 -0.3755 -1.0946
64002SOL     OW98610  11.679   1.302   8.321 -1.3400 -0.0299 -0.1223
64002SOL    HW198611  11.679   1.319   8.415 -0.2840  0.5242 -0.2073
64002SOL    HW298612  11.736   1.370   8.284 -2.0354 -0.0013 -1.2097
64003SOL     OW98613  12.308   8.118   0.465  0.0600  0.4408 -0.1396
64003SOL    HW198614  12.247   8.077   0.405  1.1654 -1.1139 -0.2626
64003SOL    HW298615  12.348   8.188   0.414  0.3476 -0.2966 -0.9595
64004SOL     OW98616   5.894   3.663   6.193  0.7914 -0.2224 -0.3733
64004SOL    HW198617   5.985   3.675   6.164  1.4661  0.1622  1.7452
64004SOL    HW298618   5.858   3.751   6.195  0.8945 -0.1939  0.3564
64005SOL     OW98619   4.431   9.385   9.768 -0.0111 -0.3262  0.0767
64005SOL    HW198620   4.442   9.309   9.710  1.5228  1.6463 -2.4790
64005SOL    HW298621   4.521   9.412   9.790 -0.3836  1.8487 -0.7607
64006SOL     OW98622  10.354   4.223   9.765  0.2026 -0.3873  0.1820
64006SOL    HW198623  10.390   4.306   9.734  1.6001 -0.7297  0.8354
64006SOL    HW298624  10.416   4.157   9.734 -1.5440 -1.3719 -1.4576
64007SOL     OW98625   4.688   0.948   0.263 -0.2728  0.2757 -0.6155
64007SOL    HW198626   4.660   0.984   0.179 -1.2797 -0.0228 -0.4250
64007SOL    HW298627   4.628   0.875   0.279  0.9725 -0.7364 -0.4248
64008SOL     OW98628   2.853   5.376   9.219  0.0678 -0.2682 -0.3549
64008SOL    HW198629   2.914   5.321   9.169 -0.8091 -1.5906 -0.0198
64008SOL    HW298630   2.798   5.314   9.267 -0.7731  0.9168  0.2727
64009SOL     OW98631  11.729  10.834   8.323  0.0817 -0.5218 -0.5784
64009SOL    HW198632  11.822  10.855   8.319 -0.2934  1.3323 -0.6049
64009SOL    HW298633  11.709  10.834   8.417 -0.0266 -0.2102 -0.6005
64010SOL     OW98634   5.361   2.099   0.580 -0.1987  0.2139  0.0185
64010SOL    HW198635   5.281   2.146   0.601 -0.1767  0.4828 -0.4908
64010SOL    HW298636   5.418   2.113   0.656 -1.0062 -0.8554  0.8503
64011SOL     OW98637   9.435   2.114  12.766  0.4907 -0.3782  0.0413
64011SOL    HW198638   9.349   2.126  12.726  0.7925 -1.3740 -0.9790
64011SOL    HW298639   9.447   2.019  12.768  2.0414 -0.2488 -0.9450
64012SOL     OW98640  11.520   6.857  11.911  0.4855  0.4539 -0.2199
64012SOL    HW198641  11.486   6.929  11.963 -2.3453 -1.7081  1.2099
64012SOL    HW298642  11.457   6.847  11.839 -0.1274 -1.4845  0.5010
64013SOL     OW98643   9.404  12.265   6.914  0.3090  0.7772  0.4600
64013SOL    HW198644   9.325  12.316   6.900  0.1232  0.7470  1.3208
64013SOL    HW298645   9.375  12.190   6.967  1.0905  1.3565  1.7576
64014SOL     OW98646  12.023   0.094   1.362 -0.2863  0.7702  0.0921
64014SOL    HW198647  12.080   0.162   1.326 -0.9385  2.1049  1.4524
64014SOL    HW298648  11.953   0.143   1.406 -1.8724 -0.8108 -0.5677
64015SOL     OW98649   2.978   1.690   1.618  0.1768 -0.5677  0.8342
64015SOL    HW198650   3.023   1.647   1.691 -0.2193 -2.4549  0.0396
64015SOL    HW298651   3.034   1.672   1.542 -1.2468 -1.9509  0.0451
64016SOL     OW98652   1.207   3.084   1.163  0.6270 -0.5593  0.2665
64016SOL    HW198653   1.178   3.175   1.159 -0.2715 -0.8562 -0.5459
64016SOL    HW298654   1.248   3.068   1.078  2.5202 -0.3948  1.0981
64017SOL     OW98655   6.782   7.401   4.645  0.0681  0.0651 -0.0298
64017SOL    HW198656   6.760   7.430   4.556 -0.0343 -0.0664 -0.0471
64017SOL    HW298657   6.875   7.423   4.655  0.7758 -2.1432 -1.0667
64018SOL     OW98658   6.532   0.813   5.098 -0.0261 -0.7321  0.5510
64018SOL    HW198659   6.490   0.792   5.015 -2.0175  0.2736  1.2352
64018SOL    HW298660   6.602   0.874   5.074 -1.4121  0.5953 -0.3036
64019SOL     OW98661   5.910   7.338   0.324  0.0979  0.6137 -0.4019
64019SOL    HW198662   5.837   7.293   0.282 -1.0458  2.0696 -0.1006
64019SOL    HW298663   5.964   7.370   0.252  1.0471 -1.3193 -0.6176
64020SOL     OW98664   1.558   7.178   5.444 -0.2341  0.3247  0.1493
64020SOL    HW198665   1.493   7.112   5.421  1.2422 -1.3205  0.5485
64020SOL    HW298666   1.536   7.253   5.388 -1.2078 -0.9288 -1.2387
64021SOL     OW98667   1.646   0.076   4.644  0.1622 -0.1950  0.8274
64021SOL    HW198668   1.639   0.091   4.549 -0.3103 -0.3295  0.8402
64021SOL    HW298669   1.622   0.160   4.683 -0.0037 -0.2464  0.8365
64022SOL     OW98670  11.236  10.879   0.227  0.3151  0.3413  0.1382
64022SOL    HW198671  11.244  10.784   0.239 -0.3468  0.0586 -1.4618
64022SOL    HW298672  11.180  10.889   0.150  0.5927  2.0385  0.1213
64023SOL     OW98673   0.720   1.538   5.191  0.0615  0.2570  0.1021
64023SOL    HW198674   0.790   1.542   5.126 -1.8346 -1.2078 -2.1733
64023SOL    HW298675   0.675   1.622   5.183 -0.1952  0.0625 -0.5444
64024SOL     OW98676  10.784  12.528  10.842  0.0041 -0.8230  0.5135
64024SOL    HW198677  10.706  12.511  10.895 -0.3013  0.6019  0.5735
64024SOL    HW298678  10.846  12.566  10.905  0.1796 -0.5181  0.1555
64025SOL     OW98679   8.131   5.098  11.846 -0.2883  0.3913 -1.1271
64025SOL    HW198680   8.093   5.166  11.903  0.1492  0.8994 -1.4282
64025SOL    HW298681   8.208   5.140  11.807  1.5703 -1.0944  0.6844
64026SOL     OW98682   5.843  12.629   3.556 -0.1492 -0.4228 -0.7185
64026SOL    HW198683   5.794  12.552   3.587  2.7209 -1.6800  1.0894
64026SOL    HW298684   5.920  12.632   3.612  0.3068  3.3378 -1.3029
64027SOL     OW98685   4.279   0.177  10.988 -0.3380 -0.2061 -0.2109
64027SOL    HW198686   4.343   0.227  10.936  0.4822 -0.5761  0.4275
64027SOL    HW298687   4.205   0.237  10.999  0.3830  0.6570  0.0264
64028SOL     OW98688   6.065   0.516   6.015 -0.3374  0.3187  0.5055
64028SOL    HW198689   5.985   0.462   6.014  1.8222 -3.2481  1.1891
64028SOL    HW298690   6.094   0.518   5.924 -0.3654  0.1989  0.4935
64029SOL     OW98691   2.649   7.762   7.973 -0.0364 -0.2656  0.7749
64029SOL    HW198692   2.580   7.765   7.906 -0.4292 -0.7151  1.1433
64029SOL    HW298693   2.660   7.853   8.001 -0.5364 -0.1977  0.7589
64030SOL     OW98694   3.659   6.459  10.647 -0.2317  0.7435 -0.5715
64030SOL    HW198695   3.658   6.363  10.646 -0.4570  0.7254  0.7315
64030SOL    HW298696   3.567   6.484  10.639 -1.1611  0.6824  5.6487
64031SOL     OW98697   5.582   7.467   6.830 -0.1357  0.0230  0.0892
64031SOL    HW198698   5.602   7.558   6.853  1.4492  0.0665 -1.2058
64031SOL    HW298699   5.487   7.464   6.826 -0.2509  1.4326  0.8921
64032SOL     OW98700   8.298   3.819  11.757  0.2859 -0.4126 -0.2858
64032SOL    HW198701   8.222   3.769  11.788  0.0689  0.7949  1.3040
64032SOL    HW298702   8.281   3.908  11.788  2.0608  0.0148 -0.4633
64033SOL     OW98703  10.887   0.890   4.776 -0.3075  0.1686  0.7838
64033SOL    HW198704  10.899   0.894   4.871 -0.7549 -0.1863  0.8619
64033SOL    HW298705  10.922   0.804   4.751 -2.6471 -0.9640  1.0439
64034SOL     OW98706   0.374   6.507   4.114  0.1611 -0.3207 -0.1861
64034SOL    HW198707   0.417   6.588   4.084  0.0458 -0.1566  0.0862
64034SOL    HW298708   0.293   6.537   4.154  0.0582 -0.5847 -0.1980
64035SOL     OW98709   2.250  12.415  10.316  0.1085 -0.2167 -0.1332
64035SOL    HW198710   2.204  12.375  10.389 -1.2628 -0.5943 -1.1784
64035SOL    HW298711   2.234  12.356  10.242 -0.0650  1.0883 -1.1658
64036SOL     OW98712   2.590   4.788   5.275 -0.6247  0.2413  0.2645
64036SOL    HW198713   2.582   4.860   5.337 -0.4656 -0.0527  0.6277
64036SOL    HW298714   2.500   4.758   5.261 -0.6587  0.2991  0.3601
64037SOL     OW98715   1.183   2.050   1.902 -0.1997  0.7829 -0.2452
64037SOL    HW198716   1.201   1.974   1.847  2.3727 -0.7061  2.3647
64037SOL    HW298717   1.088   2.053   1.909 -0.4071 -2.3727 -0.3185
64038SOL     OW98718   8.854   7.367   5.999 -0.3869  0.3127  0.1611
64038SOL    HW198719   8.860   7.275   5.972  1.8886  0.9266 -1.6812
64038SOL    HW298720   8.929   7.409   5.958 -1.4872  3.0746  0.8042
64039SOL     OW98721   6.417  11.452   9.223  0.1087  0.6264  0.2236
64039SOL    HW198722   6.354  11.436   9.153  0.4783  0.9702 -0.1904
64039SOL    HW298723   6.379  11.526   9.272  0.6897  1.5321 -0.6528
64040SOL     OW98724  12.487  12.431   3.544 -0.1274  0.3408  0.0575
64040SOL    HW198725  12.578  12.411   3.568 -0.6255 -0.1984  1.6867
64040SOL    HW298726  12.440  12.349   3.561 -0.5626 -0.1841 -3.1395
64041SOL     OW98727   6.255   7.603   9.430 -0.2582  0.0161 -0.0699
64041SOL    HW198728   6.256   7.672   9.496  0.7060 -1.0564  1.0662
64041SOL    HW298729   6.171   7.614   9.386  0.0290  2.1678 -0.2166
64042SOL     OW98730   5.268  12.071   8.498 -0.2272  0.5074  0.0655
64042SOL    HW198731   5.204  12.001   8.494 -0.2815  0.5463  0.2518
64042SOL    HW298732   5.297  12.083   8.407 -0.2341  0.2613  0.0309
64043SOL     OW98733  12.771   2.031   9.557 -0.4877 -0.0947  0.3481
64043SOL    HW198734  12.769   2.127   9.554 -1.7510 -0.0230  1.7326
64043SOL    HW298735  12.840   2.011   9.620 -0.4563 -0.0739  0.3208
64044SOL     OW98736   4.502   7.612  10.858  0.4473  0.4460 -1.0273
64044SOL    HW198737   4.498   7.594  10.764  0.8540 -0.0716 -0.9517
64044SOL    HW298738   4.473   7.531  10.900  0.0331  0.7553 -0.7053
64045SOL     OW98739  11.831  11.555   2.350  0.1962  0.6922 -0.2353
64045SOL    HW198740  11.829  11.467   2.389 -0.6174  0.7319 -0.1639
64045SOL    HW298741  11.746  11.565   2.308  0.4450  1.2871 -0.6140
64046SOL     OW98742  11.901   3.586   6.131 -0.7706 -0.2112  0.1685
64046SOL    HW198743  11.937   3.518   6.074  0.5813  1.8934 -1.6353
64046SOL    HW298744  11.970   3.604   6.195  0.1495  1.5062 -1.2368
64047SOL     OW98745   4.086   6.970   4.253  0.0946 -0.2805  0.5183
64047SOL    HW198746   4.025   7.029   4.296 -0.9180 -1.1050  0.2622
64047SOL    HW298747   4.129   6.922   4.324  0.2254  0.0884  0.6881
64048SOL     OW98748  11.133   5.807  11.886 -0.0297  0.6307 -0.5135
64048SOL    HW198749  11.040   5.786  11.892  0.4661 -1.3713  3.1017
64048SOL    HW298750  11.178   5.724  11.900  2.2078  2.0650  1.9877
64049SOL     OW98751   5.415   4.645  12.531  0.1868  0.1659 -0.4587
64049SOL    HW198752   5.461   4.683  12.606 -0.0651 -0.2865 -0.0731
64049SOL    HW298753   5.403   4.719  12.471  0.9442  0.4008 -0.3371
64050SOL     OW98754   6.498   4.964  11.919  0.1375  0.3522  0.4685
64050SOL    HW198755   6.420   4.953  11.863  1.8839 -0.5983 -1.9400
64050SOL    HW298756   6.535   5.048  11.891  1.1171 -0.2078  0.0410
64051SOL     OW98757   1.828   8.976   5.981 -0.2514 -0.4707  1.0983
64051SOL    HW198758   1.790   8.906   5.928 -1.3800  0.6006  0.4626
64051SOL    HW298759   1.919   8.948   5.995  1.6996  1.0876 -5.1215
64052SOL     OW98760   9.958   0.955   3.852  0.0020 -0.0196  0.1971
64052SOL    HW198761   9.884   0.994   3.807  0.1284  0.3935  0.3435
64052SOL    HW298762   9.958   0.996   3.939  0.2378 -0.2181  0.2927
64053SOL     OW98763   0.994   8.735   8.053  0.3215 -0.3406  0.0511
64053SOL    HW198764   1.054   8.675   8.097 -2.6120 -3.3389  0.3538
64053SOL    HW298765   0.955   8.786   8.125  0.4429 -0.3778  0.1453
64054SOL     OW98766   3.546  10.595   8.730  0.2471 -0.5789  0.3599
64054SOL    HW198767   3.450  10.596   8.732  0.2600 -0.5400  2.1074
64054SOL    HW298768   3.569  10.518   8.678 -0.7204 -0.9893  0.5308
64055SOL     OW98769   0.385   3.232   7.385 -0.3521 -0.5437 -0.0941
64055SOL    HW198770   0.346   3.269   7.305 -2.1321 -0.9603  0.5315
64055SOL    HW298771   0.434   3.156   7.354  1.9946  1.2992 -1.1901
64056SOL     OW98772  11.005   3.953   9.036 -0.6861 -0.4081  0.1249
64056SOL    HW198773  10.947   3.877   9.028 -2.0649  0.8258 -3.4911
64056SOL    HW298774  10.953   4.018   9.084 -1.0307 -0.4438 -0.1970
64057SOL     OW98775   7.703   0.431   1.651  0.0078  0.8624  0.0270
64057SOL    HW198776   7.641   0.394   1.589  0.1158  1.2381 -0.3128
64057SOL    HW298777   7.721   0.518   1.617  0.4028  0.9089  0.3499
64058SOL     OW98778   2.116  12.311   9.993 -0.1561  0.9060  0.0277
64058SOL    HW198779   2.066  12.242   9.949 -1.7208  0.6771  2.0146
64058SOL    HW298780   2.050  12.373  10.024  0.7401  0.6562  2.6837
64059SOL     OW98781   3.235  10.903   7.531 -0.0743  0.1932 -0.6499
64059SOL    HW198782   3.146  10.929   7.508 -0.1193  0.9102  0.2833
64059SOL    HW298783   3.268  10.859   7.453 -0.5135  1.7809 -1.7876
64060SOL     OW98784   1.534   8.489  11.335  0.7613 -0.2670  0.2416
64060SOL    HW198785   1.541   8.573  11.290 -1.0067  0.1217  0.6208
64060SOL    HW298786   1.481   8.507  11.412 -0.4370 -1.8777 -0.1509
64061SOL     OW98787  10.691   0.332   3.906 -0.2268  0.0024 -0.2890
64061SOL    HW198788  10.672   0.357   3.816 -0.2778 -1.5419 -0.7427
64061SOL    HW298789  10.738   0.249   3.898 -0.5853 -0.3623  1.1079
64062SOL     OW98790   2.437   5.401   7.086 -0.1469 -0.5056  0.1594
64062SOL    HW198791   2.370   5.456   7.128 -0.2543  0.1435 -0.8199
64062SOL    HW298792   2.498   5.464   7.048  1.4849 -1.0917  1.7106
64063SOL     OW98793   9.413   4.117   6.391 -0.4420  0.2354 -0.4692
64063SOL    HW198794   9.438   4.166   6.313  1.1572  0.6612  0.2566
64063SOL    HW298795   9.336   4.162   6.425 -0.4892  0.7148 -1.2058
64064SOL     OW98796  12.465   4.337   7.497 -0.0840  0.2967  0.1853
64064SOL    HW198797  12.438   4.361   7.585 -0.6632 -1.1417  0.4200
64064SOL    HW298798  12.560   4.348   7.497  0.0390 -0.6102  1.3019
64065SOL     OW98799   8.383  10.366   7.780 -0.4117 -0.1108 -0.5414
64065SOL    HW198800   8.386  10.378   7.875 -1.7211  0.6747 -0.5842
64065SOL    HW298801   8.470  10.332   7.758 -0.7857 -2.4833  1.2133
64066SOL     OW98802   0.998   0.312   9.674  0.1521  0.8702 -0.5178
64066SOL    HW198803   1.067   0.347   9.618  2.5151 -1.9952  0.3744
64066SOL    HW298804   1.017   0.347   9.761  1.3000 -0.8439 -0.0327
64067SOL     OW98805   0.264   7.181   1.845 -0.5255  0.7615 -0.2823
64067SOL    HW198806   0.306   7.261   1.814  1.3600 -0.4533 -0.9844
64067SOL    HW298807   0.275   7.118   1.773 -2.7829  0.0853 -0.1375
64068SOL     OW98808   0.749   1.392  10.734 -0.1817 -0.0518  0.0534
64068SOL    HW198809   0.682   1.438  10.784 -3.1489 -2.6921 -1.1100
64068SOL    HW298810   0.782   1.325  10.794 -0.1630 -0.1120 -0.0241
64069SOL     OW98811   1.808  10.602   5.079  0.4948 -0.5145 -0.4830
64069SOL    HW198812   1.892  10.605   5.123  0.1774  0.3341  0.0873
64069SOL    HW298813   1.769  10.519   5.106 -0.1305  0.4139  1.6992
64070SOL     OW98814   2.280   9.239   9.207 -0.0674 -0.7831  0.2658
64070SOL    HW198815   2.198   9.233   9.255 -1.5217 -0.4040 -2.0080
64070SOL    HW298816   2.293   9.151   9.171 -0.4077 -0.4364 -0.7471
64071SOL     OW98817   6.511  11.568   4.461  0.0839  0.1801  0.2551
64071SOL    HW198818   6.563  11.506   4.410 -0.3636 -0.1973  0.2505
64071SOL    HW298819   6.490  11.639   4.399 -0.1908 -0.1203  0.0040
64072SOL     OW98820  11.539   6.151  12.384  0.1896  0.0941  0.1468
64072SOL    HW198821  11.539   6.237  12.426 -2.1589 -0.9328  2.5206
64072SOL    HW298822  11.450   6.139  12.352  0.8386 -0.9371 -1.4711
64073SOL     OW98823   3.889   5.825   3.914 -0.2784 -0.1588  0.3468
64073SOL    HW198824   3.855   5.737   3.929  1.2444 -0.8407 -0.0190
64073SOL    HW298825   3.984   5.815   3.920 -0.0340  1.2665 -0.7244
64074SOL     OW98826   2.816   9.232   6.194  0.0158 -0.0232  0.3084
64074SOL    HW198827   2.733   9.197   6.163  0.6894 -2.4040  0.9318
64074SOL    HW298828   2.793   9.282   6.273 -0.8717 -0.2092  0.1815
64075SOL     OW98829   4.407   9.695   3.320 -0.5883  0.0400 -0.2802
64075SOL    HW198830   4.461   9.643   3.261  1.5684  0.6913  1.0248
64075SOL    HW298831   4.419   9.654   3.405 -1.6160  0.6497  0.1767
64076SOL     OW98832  12.325  12.092  10.942  0.1692 -0.0899 -0.5396
64076SOL    HW198833  12.274  12.055  11.014 -0.1976  0.3080 -0.5865
64076SOL    HW298834  12.338  12.019  10.881  0.3080 -0.3793 -0.1650
64077SOL     OW98835   7.796   6.081  10.990  0.2980  0.6683 -0.1010
64077SOL    HW198836   7.802   6.159  10.934 -0.9472  0.2656 -0.8500
64077SOL    HW298837   7.806   6.008  10.929 -1.8958  0.1985  0.0136
64078SOL     OW98838   8.446   1.347   3.285 -0.5640 -0.4826  0.4583
64078SOL    HW198839   8.432   1.441   3.296 -1.5797 -0.3999 -1.1565
64078SOL    HW298840   8.364   1.307   3.312 -0.3622 -0.8462  0.5341
64079SOL     OW98841   6.711  12.500   4.587  0.4976 -0.3272  0.2838
64079SOL    HW198842   6.804  12.481   4.596  0.5641 -0.0740  0.1519
64079SOL    HW298843   6.681  12.445   4.515  0.8749  0.6665 -0.6683
64080SOL     OW98844  11.098   1.976   3.350 -0.2850 -0.3455  0.7489
64080SOL    HW198845  11.069   1.988   3.259  2.1237 -1.2612 -0.2191
64080SOL    HW298846  11.092   2.063   3.389  0.1443  0.4084 -0.7861
64081SOL     OW98847   2.811   8.407   3.742 -0.1114 -0.2815 -0.3611
64081SOL    HW198848   2.906   8.417   3.729  0.0883  2.1638  2.0718
64081SOL    HW298849   2.802   8.332   3.800  0.5319  0.6243  0.9442
64082SOL     OW98850   1.026  10.385   3.360  0.6005 -0.3136 -0.1079
64082SOL    HW198851   1.096  10.337   3.317 -0.4010 -1.1507 -0.8600
64082SOL    HW298852   0.982  10.320   3.414 -0.3467 -0.1073 -0.6020
64083SOL     OW98853   6.911  11.108   4.405  0.2006 -0.2415  0.3654
64083SOL    HW198854   6.938  11.081   4.317  0.6954 -1.9606  1.0058
64083SOL    HW298855   6.872  11.194   4.393 -0.3689 -0.7373 -1.6331
64084SOL     OW98856   8.072   9.917   2.660 -0.0714  0.0070 -0.3317
64084SOL    HW198857   8.165   9.940   2.666 -0.3020  1.4333 -1.4911
64084SOL    HW298858   8.063   9.873   2.576 -0.7168  1.6276 -1.1685
64085SOL     OW98859   3.895   3.550   5.393 -0.5379 -0.0562 -0.3276
64085SOL    HW198860   3.876   3.479   5.455 -3.3019 -0.3960 -1.4009
64085SOL    HW298861   3.839   3.622   5.422 -1.0046  0.1676 -1.7190
64086SOL     OW98862   1.592   2.569   3.278 -0.2620 -0.1210 -0.0979
64086SOL    HW198863   1.630   2.642   3.327 -1.6724  0.8305 -0.3345
64086SOL    HW298864   1.584   2.499   3.342  0.3686  0.2003  0.3500
64087SOL     OW98865   0.212   0.117   9.068 -0.8010 -0.3161  0.0675
64087SOL    HW198866   0.136   0.093   9.015  0.2326 -0.2198 -1.5451
64087SOL    HW298867   0.186   0.198   9.112 -2.0304 -0.9118  0.4880
64088SOL     OW98868   6.878   1.089   0.140  0.5580  0.5269  0.3696
64088SOL    HW198869   6.868   1.010   0.192  0.5766 -1.0918 -1.9369
64088SOL    HW298870   6.965   1.122   0.163 -0.3232  1.2637  3.0285
64089SOL     OW98871   9.895  11.462   5.484 -0.1310 -0.0304  0.7460
64089SOL    HW198872   9.854  11.541   5.518  0.6369  0.5356  0.4073
64089SOL    HW298873   9.849  11.445   5.401 -0.1202  0.2161  0.6889
64090SOL     OW98874   3.464  12.456  10.915 -0.4920  0.1157  0.3260
64090SOL    HW198875   3.475  12.378  10.970 -1.9137 -0.3378  0.0150
64090SOL    HW298876   3.370  12.473  10.917 -0.2045  1.8165  0.3502
64091SOL     OW98877   1.175   2.978  11.775  0.9047  0.0596  0.0263
64091SOL    HW198878   1.241   2.979  11.706  0.1818 -2.1800 -0.7918
64091SOL    HW298879   1.225   2.962  11.856  1.4522 -1.1066 -0.5109
64092SOL     OW98880   5.561  12.699   1.534 -0.0719 -0.1382 -0.3142
64092SOL    HW198881   5.499  12.667   1.598  0.8386 -1.3094  0.0060
64092SOL    HW298882   5.642  12.651   1.552  0.1316 -0.7261 -2.4994
64093SOL     OW98883   0.989   6.562  10.867  0.2262 -0.0149  0.4177
64093SOL    HW198884   0.981   6.532  10.957  1.3590  1.8746  1.2093
64093SOL    HW298885   1.042   6.496  10.824 -0.2923 -0.9160  1.1344
64094SOL     OW98886   0.609  10.155  10.097  0.0646 -0.8581 -0.2873
64094SOL    HW198887   0.559  10.073  10.096 -1.9323  0.2868 -1.3524
64094SOL    HW298888   0.620  10.177  10.004  0.8306 -0.0568 -0.0173
64095SOL     OW98889   1.978   6.044   9.348  0.4777  0.1532  0.2899
64095SOL    HW198890   1.987   5.971   9.408 -1.2397 -0.0632  0.3505
64095SOL    HW298891   1.968   6.003   9.262  0.8771  0.3727  0.1375
64096SOL     OW98892   0.035  12.620   4.391  0.0285  0.5396 -0.5346
64096SOL    HW198893   0.027  12.713   4.409 -0.3147  0.3568  0.2799
64096SOL    HW298894   0.126  12.599   4.414 -0.2243  0.4397  0.4041
64097SOL     OW98895  12.074   3.148   1.348 -0.2247  0.3817 -0.3184
64097SOL    HW198896  12.070   3.056   1.374 -0.4260  0.3152 -0.5777
64097SOL    HW298897  12.062   3.197   1.430 -0.7632  0.1757 -0.2722
64098SOL     OW98898   2.012   6.058  11.779  0.0317  0.1418  0.0115
64098SOL    HW198899   2.107   6.043  11.773 -0.1089 -1.1983  0.7662
64098SOL    HW298900   1.986   6.079  11.690  0.4606 -3.2996 -1.0815
64099SOL     OW98901   5.666   7.206   3.471 -0.0648 -0.5097  0.2462
64099SOL    HW198902   5.669   7.118   3.434 -0.7587 -0.7271  0.6906
64099SOL    HW298903   5.699   7.196   3.560  0.3115 -0.2329  0.1396
64100SOL     OW98904   8.909   2.538   8.161  1.1349  0.2607 -0.1545
64100SOL    HW198905   8.872   2.480   8.228  0.2152 -0.8875 -1.5631
64100SOL    HW298906   8.896   2.626   8.195 -2.1559 -0.0979 -0.0746
64101SOL     OW98907   8.308   2.904   3.324  0.0447  0.1651  0.1222
64101SOL    HW198908   8.367   2.873   3.255 -0.1091  2.5044 -1.1472
64101SOL    HW298909   8.365   2.923   3.399  0.6658  0.6265 -0.4591
64102SOL     OW98910   1.408   1.819   3.879  0.4396  0.2219 -0.3613
64102SOL    HW198911   1.400   1.872   3.800 -2.9235  1.7036  0.7876
64102SOL    HW298912   1.379   1.732   3.853  0.6606  0.3521 -1.0466
64103SOL     OW98913   2.654  10.856  10.468 -0.0679  0.0779  0.0496
64103SOL    HW198914   2.563  10.884  10.477 -0.4033 -1.2296  1.0863
64103SOL    HW298915   2.692  10.915  10.403 -1.4396  1.1488  0.1974
64104SOL     OW98916   2.017   3.121   4.481  0.2134 -0.0165  0.2869
64104SOL    HW198917   1.948   3.186   4.470 -0.5276 -0.9531 -0.9714
64104SOL    HW298918   2.062   3.146   4.561  0.3751  2.4132 -0.4756
64105SOL     OW98919   0.576   4.046  10.693  0.1997 -0.5744 -0.1057
64105SOL    HW198920   0.629   3.980  10.650 -0.5377 -0.5105 -1.1592
64105SOL    HW298921   0.626   4.072  10.770  1.6326 -0.5775 -1.0095
64106SOL     OW98922   0.611  11.480   4.505  0.0002  0.1489 -0.1932
64106SOL    HW198923   0.530  11.522   4.534  0.6846 -0.0710  2.2562
64106SOL    HW298924   0.584  11.393   4.476 -0.7840  0.5273 -0.6307
64107SOL     OW98925  10.455   0.443   4.274 -0.0406 -0.0493  0.0070
64107SOL    HW198926  10.409   0.445   4.358  0.5457 -0.1866  0.3326
64107SOL    HW298927  10.492   0.531   4.265  0.8695 -0.3752  0.4436
64108SOL     OW98928  10.418   8.164   7.468  0.4235  0.3261  0.2991
64108SOL    HW198929  10.342   8.187   7.415 -0.0260  0.7531  1.0981
64108SOL    HW298930  10.449   8.082   7.431 -2.1171 -1.3902  1.6486
64109SOL     OW98931   0.843   6.857   4.246 -0.2942  0.5792  0.3108
64109SOL    HW198932   0.749   6.861   4.260 -0.5549 -0.3042 -1.0293
64109SOL    HW298933   0.863   6.934   4.193 -0.1197  1.1587  1.1877
64110SOL     OW98934  12.083   4.360  11.062  0.0873 -0.0205 -0.3353
64110SOL    HW198935  12.102   4.288  11.003 -0.5027 -1.1329  0.7731
64110SOL    HW298936  12.070   4.318  11.147 -0.2786  1.3975  0.3383
64111SOL     OW98937   2.618   7.531   8.524 -0.0085 -0.4575  1.0775
64111SOL    HW198938   2.648   7.599   8.464 -0.6820  0.9553  2.2690
64111SOL    HW298939   2.698   7.490   8.557  0.5010  0.7919  1.4542
64112SOL     OW98940  10.309   9.353   7.757  0.2966  0.7167 -0.2468
64112SOL    HW198941  10.359   9.315   7.830 -1.1312 -0.6320  0.0718
64112SOL    HW298942  10.346   9.441   7.746  1.6601  0.3424  0.9903
64113SOL     OW98943   0.413   2.007   0.986  0.1772  0.2086  0.3601
64113SOL    HW198944   0.324   2.027   1.017  0.2106 -1.8279  1.9607
64113SOL    HW298945   0.467   2.013   1.064  1.3081  0.5438 -0.4327
64114SOL     OW98946   9.132   4.424   1.558  0.2972  0.1189 -0.1633
64114SOL    HW198947   9.201   4.374   1.601  0.6287 -0.5342 -1.3855
64114SOL    HW298948   9.155   4.421   1.465 -1.0073  0.4672 -0.5263
64115SOL     OW98949   5.097   8.860  11.303  0.4140  0.2267 -0.3606
64115SOL    HW198950   5.099   8.943  11.254 -1.1738  0.6154  0.1789
64115SOL    HW298951   5.006   8.831  11.298 -0.0037  0.5672  2.7432
64116SOL     OW98952  10.700   7.102   3.984  1.1382  0.0348 -0.0765
64116SOL    HW198953  10.702   7.017   3.938  0.3091  0.8317 -1.7003
64116SOL    HW298954  10.681   7.165   3.914  2.3187  1.6370  1.0046
64117SOL     OW98955  10.725   6.238   3.115  0.0639 -0.2095 -0.2926
64117SOL    HW198956  10.771   6.309   3.071 -0.1172 -0.7420 -1.3685
64117SOL    HW298957  10.644   6.278   3.146  1.1126  0.6823  1.4459
64118SOL     OW98958   4.214  12.780   0.606  0.1048 -0.7376  0.3914
64118SOL    HW198959   4.264  12.841   0.552  0.5551 -0.9630  0.5430
64118SOL    HW298960   4.126  12.818   0.611  0.6896  0.5356  1.4975
64119SOL     OW98961  11.406   2.997  11.068  0.4445 -0.3159 -0.3711
64119SOL    HW198962  11.460   3.049  11.008  1.3909 -1.1014 -0.2334
64119SOL    HW298963  11.367   2.930  11.013 -0.7732  0.5006 -0.5476
64120SOL     OW98964   8.736   1.255  10.708  0.3636 -1.0184 -0.2994
64120SOL    HW198965   8.696   1.168  10.705 -2.4452  0.1661 -0.3932
64120SOL    HW298966   8.695   1.303  10.637  0.3832  0.9524  0.9301
64121SOL     OW98967  11.395   1.466   4.535  0.4403 -0.5540 -0.0389
64121SOL    HW198968  11.462   1.533   4.525  2.3553 -2.0901  1.4045
64121SOL    HW298969  11.329   1.506   4.591  0.4233  0.8091 -0.9930
64122SOL     OW98970   0.362   1.332   7.905  0.1599  0.3942  0.9007
64122SOL    HW198971   0.395   1.271   7.838 -0.9086  1.3281 -0.5473
64122SOL    HW298972   0.346   1.277   7.982  0.0700 -0.9949 -0.0681
64123SOL     OW98973   3.871  10.127  11.619  0.5519  0.4798  0.8194
64123SOL    HW198974   3.884  10.143  11.526 -1.0156 -1.4104  0.1931
64123SOL    HW298975   3.958  10.110  11.653  0.9849 -0.6296 -0.7211
64124SOL     OW98976  10.739   0.352   8.471  0.5788 -0.4554 -0.9562
64124SOL    HW198977  10.833   0.334   8.476  0.9103  1.1564 -0.8629
64124SOL    HW298978  10.731   0.420   8.404 -0.3629  0.3951 -0.0142
64125SOL     OW98979   7.550  11.335   5.972  0.2824  0.0457 -0.5663
64125SOL    HW198980   7.526  11.313   5.882 -0.6789 -0.2131 -0.2577
64125SOL    HW298981   7.468  11.360   6.013  0.8841  1.2809 -0.0650
64126SOL     OW98982  11.193   0.470   4.120  0.8307 -0.0030  0.0820
64126SOL    HW198983  11.225   0.523   4.193  1.8046 -0.9707  0.3788
64126SOL    HW298984  11.264   0.409   4.101  0.2409 -0.3570 -1.0999
64127SOL     OW98985   1.399   8.993   9.606  0.2635 -0.6832  0.5371
64127SOL    HW198986   1.451   8.974   9.684  0.4231 -0.4770  0.4842
64127SOL    HW298987   1.328   8.929   9.608 -0.5189  0.1760  1.5764
64128SOL     OW98988   9.600   7.065   9.711  0.1200  0.2801  0.0304
64128SOL    HW198989   9.583   7.122   9.786  0.1582 -0.4165  0.5815
64128SOL    HW298990   9.646   7.120   9.648  0.5162  0.7416  0.7190
64129SOL     OW98991  12.112  10.623   1.196  0.0507  0.3240 -0.0689
64129SOL    HW198992  12.116  10.529   1.181 -2.7365 -0.1665  1.4993
64129SOL    HW298993  12.071  10.632   1.282 -0.8787  2.9598 -0.6736
64130SOL     OW98994  12.243   5.814   4.731  0.8744  0.0729  0.5456
64130SOL    HW198995  12.287   5.870   4.795  0.7052  0.7280  0.0998
64130SOL    HW298996  12.311   5.755   4.699  0.9509 -0.2892  1.3475
64131SOL     OW98997   1.200   7.721   8.610  0.3043  0.4731  0.1214
64131SOL    HW198998   1.182   7.657   8.542 -0.0289 -0.7088  1.2849
64131SOL    HW298999   1.139   7.792   8.593  2.1931  1.6320 -2.5481
64132SOL     OW99000   9.839   4.750  10.523 -0.2663  0.3038  0.2258
64132SOL    HW199001   9.906   4.762  10.455  0.1863 -2.4155  0.0813
64132SOL    HW299002   9.873   4.798  10.598  0.1750  1.7581 -0.8708
64133SOL     OW99003  12.660   3.657   4.552  0.6480  0.0651 -0.2305
64133SOL    HW199004  12.586   3.670   4.613 -0.4247 -1.4259 -1.1490
64133SOL    HW299005  12.619   3.654   4.466  1.8890 -0.1085 -0.8305
64134SOL     OW99006   6.711  11.816   8.316  0.3861 -0.4492 -0.1746
64134SOL    HW199007   6.702  11.734   8.364  0.8504 -1.4937 -1.7801
64134SOL    HW299008   6.778  11.799   8.250  1.2266  1.5528  0.0782
64135SOL     OW99009  10.299  11.450   9.686 -0.1896 -0.1419 -0.2357
64135SOL    HW199010  10.331  11.495   9.764  0.3307  0.8708 -1.0066
64135SOL    HW299011  10.353  11.372   9.679  0.5724  0.3684 -0.2225
64136SOL     OW99012   7.767   9.861   0.028 -1.1834  0.1750  0.3503
64136SOL    HW199013   7.814   9.818   0.098 -1.3634 -0.1573  0.2675
64136SOL    HW299014   7.826   9.856  -0.047 -1.8232 -1.3093 -0.0837
64137SOL     OW99015  12.468   6.976   6.866  0.4382 -0.3002 -0.0934
64137SOL    HW199016  12.421   6.901   6.902 -1.1188  0.4553 -0.4989
64137SOL    HW299017  12.512   6.941   6.789 -0.7464 -0.6777 -0.6125
64138SOL     OW99018   5.010  10.239   3.622  0.1172 -0.5098  0.3853
64138SOL    HW199019   4.935  10.270   3.573 -0.5683 -0.6589  1.3161
64138SOL    HW299020   5.010  10.144   3.608 -0.4209 -0.6264  1.1167
64139SOL     OW99021   4.842   3.068   5.471 -0.2487  0.0991  0.1712
64139SOL    HW199022   4.883   3.059   5.385 -0.9052  0.6566 -0.2104
64139SOL    HW299023   4.880   2.997   5.523 -0.1316 -0.4899 -0.6909
64140SOL     OW99024   1.324  12.529   0.296 -0.3165 -0.1458 -0.3352
64140SOL    HW199025   1.368  12.460   0.345 -1.0332 -1.5373 -1.5784
64140SOL    HW299026   1.325  12.605   0.355  1.5847 -0.8251  0.5799
64141SOL     OW99027   9.462  10.008   1.584  0.3572 -0.2717  0.2308
64141SOL    HW199028   9.419   9.976   1.663 -1.8996 -2.1138 -1.6122
64141SOL    HW299029   9.402  10.073   1.548  0.9450 -0.0716 -0.4128
64142SOL     OW99030   9.602   9.574  11.224 -0.0714 -0.2823 -0.2083
64142SOL    HW199031   9.677   9.585  11.166 -0.5918  0.9502 -0.6748
64142SOL    HW299032   9.612   9.643  11.290 -0.1227 -0.9091  0.4631
64143SOL     OW99033  11.084   1.992   0.951  0.4649 -0.1078 -0.1226
64143SOL    HW199034  11.159   2.049   0.934 -0.3047  0.8544 -0.4145
64143SOL    HW299035  11.043   2.030   1.029 -0.0955 -0.2167 -0.3600
64144SOL     OW99036   7.624   5.312   8.333  0.1875 -0.0996 -0.2721
64144SOL    HW199037   7.697   5.273   8.286 -1.2887 -0.9515 -1.9858
64144SOL    HW299038   7.550   5.253   8.317 -0.8883  0.6642  1.4827
64145SOL     OW99039  12.040   8.332   8.315  0.5455 -0.0649  0.9301
64145SOL    HW199040  12.018   8.239   8.318 -0.8758  0.2339  0.3758
64145SOL    HW299041  11.964   8.373   8.274  1.9703  1.0967 -0.6337
64146SOL     OW99042   5.457   7.530   9.034  0.5824  0.1420 -0.1330
64146SOL    HW199043   5.407   7.498   9.109  0.5051 -0.8742 -0.6107
64146SOL    HW299044   5.489   7.451   8.991  1.9472  0.7541 -0.2852
64147SOL     OW99045   2.476   5.425   8.043 -1.4000  0.0127  0.2192
64147SOL    HW199046   2.426   5.505   8.061 -1.5488  0.7310 -2.7971
64147SOL    HW299047   2.568   5.453   8.048 -1.3937 -0.1496  1.1435
64148SOL     OW99048   1.073   7.132   1.962  0.3485 -0.4440 -0.3387
64148SOL    HW199049   0.993   7.142   1.910 -0.5891 -0.0388  1.1222
64148SOL    HW299050   1.090   7.219   1.997  0.1402 -0.9647  1.1433
64149SOL     OW99051   7.944   8.511   3.039 -0.3430  0.5691  0.2946
64149SOL    HW199052   7.865   8.502   3.093  0.2713 -1.5958  0.9225
64149SOL    HW299053   7.975   8.600   3.056 -1.0716  0.4846  2.2605
64150SOL     OW99054  11.498   2.367   2.664  0.7841 -0.6687  0.1539
64150SOL    HW199055  11.433   2.370   2.594  2.7549 -2.4412 -1.9266
64150SOL    HW299056  11.484   2.282   2.706  1.2335 -0.7270  0.1905
64151SOL     OW99057   9.145   1.136   5.654  0.7139  0.2341  0.5825
64151SOL    HW199058   9.105   1.060   5.612 -0.7332 -0.0261  2.3291
64151SOL    HW299059   9.124   1.210   5.597 -1.3533 -0.0764  0.8614
64152SOL     OW99060   3.682   1.823   5.658 -0.6182  0.1907 -0.1045
64152SOL    HW199061   3.767   1.866   5.665 -0.0925 -0.6521 -1.1154
64152SOL    HW299062   3.622   1.893   5.634 -0.2021  0.7642  0.4626
64153SOL     OW99063   8.173   2.818   1.536 -0.0467  0.4667  0.2268
64153SOL    HW199064   8.198   2.910   1.550 -0.0692  0.8727 -1.9939
64153SOL    HW299065   8.241   2.768   1.581 -0.6500  1.5314  2.4602
64154SOL     OW99066   1.009   5.095   5.835  0.8313  0.1012 -0.4852
64154SOL    HW199067   1.051   5.066   5.916 -0.3302 -0.2167  0.0122
64154SOL    HW299068   1.064   5.167   5.805  0.8006  0.8151  1.0570
64155SOL     OW99069  11.764  11.427   6.142  0.1329 -0.3106  0.4553
64155SOL    HW199070  11.789  11.433   6.234 -1.2409  0.9652  0.7905
64155SOL    HW299071  11.847  11.426   6.094  0.8597 -0.5092  1.6821
64156SOL     OW99072   3.953   9.317   3.391  0.0924 -0.4757  0.7657
64156SOL    HW199073   4.047   9.337   3.382 -0.2128  0.3524 -1.1482
64156SOL    HW299074   3.949   9.221   3.391  0.8880 -0.5307 -0.2212
64157SOL     OW99075   2.406  10.533   5.592 -0.2017  0.4251  0.1399
64157SOL    HW199076   2.403  10.573   5.679  1.1061  2.4077 -0.6609
64157SOL    HW299077   2.318  10.549   5.557 -1.6178 -2.5633  1.8785
64158SOL     OW99078   4.523   0.723   2.152  0.9882 -0.0121 -0.0084
64158SOL    HW199079   4.591   0.657   2.141  1.0854  0.0781  0.0478
64158SOL    HW299080   4.487   0.736   2.064 -0.4097 -1.5991  0.2913
64159SOL     OW99081   2.356  10.811   2.695 -0.2295  0.7363  0.1680
64159SOL    HW199082   2.443  10.773   2.701 -1.0418 -1.2088  0.5918
64159SOL    HW299083   2.316  10.791   2.780 -1.3509  0.8242 -0.3224
64160SOL     OW99084   5.720   2.079   0.258 -0.4656 -0.2501  0.1650
64160SOL    HW199085   5.655   2.018   0.293 -0.5879 -0.5750 -0.6188
64160SOL    HW299086   5.777   2.098   0.333 -1.8644  0.6173  1.0673
64161SOL     OW99087   9.798   8.586  10.865 -0.3546 -0.4569  0.6345
64161SOL    HW199088   9.812   8.611  10.957 -0.5983  0.6254  0.3777
64161SOL    HW299089   9.877   8.616  10.820 -0.2324 -0.9955  0.4813
64162SOL     OW99090   4.277   0.728   0.923  0.2863 -0.4368  0.3596
64162SOL    HW199091   4.267   0.635   0.902 -2.2151  0.0298 -0.8931
64162SOL    HW299092   4.198   0.750   0.973  0.3893  1.1931 -0.1206
64163SOL     OW99093  12.331   8.475   1.912  0.1806  0.1137  0.0432
64163SOL    HW199094  12.379   8.442   1.988  1.0514  2.7324  0.7498
64163SOL    HW299095  12.249   8.509   1.949  0.1154  0.3976 -0.3658
64164SOL     OW99096  10.091   7.717   8.798 -0.1965 -0.0142 -0.1281
64164SOL    HW199097  10.032   7.735   8.871 -0.6122  0.9498 -0.6729
64164SOL    HW299098  10.143   7.797   8.789  1.0352 -0.7625  0.1914
64165SOL     OW99099   2.563   2.578   1.334 -0.0051  0.4430 -0.4301
64165SOL    HW199100   2.593   2.590   1.424 -1.2815 -4.0650  0.8394
64165SOL    HW299101   2.495   2.644   1.321 -0.3451  0.6927  2.2206
64166SOL     OW99102   6.913   9.377   4.278 -0.1896  0.7680  0.1127
64166SOL    HW199103   6.907   9.330   4.361 -1.5351  1.0345  0.1821
64166SOL    HW299104   7.007   9.375   4.257 -0.1453 -1.7806  0.1898
64167SOL     OW99105  12.425   5.972   3.572 -0.6566  0.4528  0.3799
64167SOL    HW199106  12.405   5.881   3.552 -0.0837  0.6353 -1.1094
64167SOL    HW299107  12.514   5.970   3.607  0.6864  0.7477 -2.7664
64168SOL     OW99108   6.313  11.294   8.306  0.2130 -0.1633  0.0632
64168SOL    HW199109   6.250  11.225   8.326 -0.2895  0.3221  0.1896
64168SOL    HW299110   6.355  11.314   8.390 -0.7895  0.7930  0.3613
64169SOL     OW99111   8.468   0.132  12.203 -0.0893 -0.1174 -1.0506
64169SOL    HW199112   8.491   0.040  12.222  0.3903  0.3435  0.8124
64169SOL    HW299113   8.376   0.139  12.227  0.6645  0.6168  2.1123
64170SOL     OW99114   4.067  12.408   6.563  0.2994 -0.0678 -0.2702
64170SOL    HW199115   4.103  12.378   6.647  1.7145  0.3127 -0.7085
64170SOL    HW299116   3.986  12.358   6.552  0.3773 -0.5277  1.0495
64171SOL     OW99117   6.583   6.386  11.631 -0.2614  0.1508 -0.5698
64171SOL    HW199118   6.509   6.345  11.675  0.9954 -0.7079  0.7987
64171SOL    HW299119   6.563   6.480  11.633 -0.6331  0.0662  1.1116
64172SOL     OW99120  12.706   6.979  12.249  0.2008 -0.1910  0.1448
64172SOL    HW199121  12.734   7.070  12.247 -0.3909 -0.0023 -0.9501
64172SOL    HW299122  12.766   6.934  12.190  1.3713 -0.8088  1.7641
64173SOL     OW99123   2.986  12.108   2.801  0.1373 -0.5523  0.3315
64173SOL    HW199124   2.903  12.137   2.762  0.7339 -0.1783 -0.7112
64173SOL    HW299125   3.011  12.031   2.749  0.6848 -0.3687  0.3203
64174SOL     OW99126   5.777  10.476   3.544 -0.8430 -0.0106 -0.3916
64174SOL    HW199127   5.741  10.393   3.576  0.0360 -0.1426  0.2842
64174SOL    HW299128   5.736  10.543   3.597  0.4735 -0.2156  0.9598
64175SOL     OW99129   5.385   7.062  10.088  0.1198  0.2691  0.9401
64175SOL    HW199130   5.474   7.065  10.054 -0.2655  0.7648 -0.0737
64175SOL    HW299131   5.359   6.970  10.081 -0.4730  0.5429 -1.6310
64176SOL     OW99132   2.368  10.254  12.200 -0.3126  0.4587  0.1662
64176SOL    HW199133   2.357  10.319  12.269 -0.2794  0.6775 -0.0323
64176SOL    HW299134   2.380  10.171  12.246  1.5789  0.8557  0.4834
64177SOL     OW99135   5.644   1.417   3.311  0.4144 -0.0851 -0.3885
64177SOL    HW199136   5.556   1.436   3.342 -0.3483 -0.6726 -2.1052
64177SOL    HW299137   5.637   1.416   3.216  2.1067 -0.9125 -0.5463
64178SOL     OW99138   3.284  11.405  11.918 -0.1750  0.5888 -0.2963
64178SOL    HW199139   3.210  11.393  11.977 -0.8407  0.8770 -1.0479
64178SOL    HW299140   3.258  11.477  11.861  0.6316  0.6068 -0.6644
64179SOL     OW99141   0.251  10.580  10.719  0.1425 -0.1617 -0.0093
64179SOL    HW199142   0.237  10.602  10.627 -0.6651  0.3027  0.2111
64179SOL    HW299143   0.170  10.607  10.763  1.2229  1.3763  1.1464
64180SOL     OW99144   4.013   2.741   8.507  0.0426 -0.0549 -0.3560
64180SOL    HW199145   4.092   2.755   8.454 -0.3402 -1.1558 -1.2779
64180SOL    HW299146   4.025   2.654   8.545 -0.7065 -0.2394 -0.5135
64181SOL     OW99147   0.514   6.048   6.989 -0.0890  0.0607  0.3433
64181SOL    HW199148   0.468   6.090   6.917  1.5734  0.3774 -0.5674
64181SOL    HW299149   0.445   6.000   7.036 -1.4337  0.9993 -0.5926
64182SOL     OW99150  10.967   3.950  10.875 -0.3901  0.1517  0.2631
64182SOL    HW199151  10.906   3.885  10.909 -1.3881 -0.0319 -1.7202
64182SOL    HW299152  10.914   4.030  10.866 -0.7337 -0.2770 -2.4579
64183SOL     OW99153   2.445  11.508  12.748 -0.0841  0.0553 -0.2275
64183SOL    HW199154   2.476  11.491  12.659 -1.3064 -2.1065 -0.3095
64183SOL    HW299155   2.350  11.521  12.738 -0.2174 -0.0925  0.7439
64184SOL     OW99156   5.043   8.908   1.958  0.3021 -0.5667  0.2404
64184SOL    HW199157   5.123   8.894   2.007  0.1215 -2.0162  0.1513
64184SOL    HW299158   5.006   8.988   1.995  2.1500  0.5821 -0.2455
64185SOL     OW99159   6.147   5.580   4.601 -0.0145 -0.0565  0.1334
64185SOL    HW199160   6.178   5.666   4.574  0.8402 -0.1989  0.6228
64185SOL    HW299161   6.181   5.520   4.534  0.9882 -0.2417  0.7917
64186SOL     OW99162   8.349   2.704  12.309  0.3233 -0.3743 -0.3251
64186SOL    HW199163   8.332   2.610  12.314  0.5106 -0.4959 -1.5760
64186SOL    HW299164   8.298   2.733  12.234  2.1950  0.0342 -1.5159
64187SOL     OW99165   9.514   7.334   8.988  0.1967 -0.3000 -0.2718
64187SOL    HW199166   9.544   7.385   9.063 -1.6702 -0.6947  0.8161
64187SOL    HW299167   9.423   7.361   8.976  0.0230 -1.3364 -1.4407
64188SOL     OW99168   0.055   0.258   3.752  0.6114  0.0819  0.0230
64188SOL    HW199169   0.008   0.175   3.757  0.5946 -0.0602 -1.7172
64188SOL    HW299170   0.006   0.317   3.810  0.3981 -1.0009  0.9743
64189SOL     OW99171   2.317  12.101   6.470 -0.2008  0.3834  0.2630
64189SOL    HW199172   2.227  12.113   6.500 -0.0751  1.5682  0.1832
64189SOL    HW299173   2.333  12.007   6.481 -1.5276  0.1115  0.0394
64190SOL     OW99174   7.256   1.066  10.234 -0.3898  0.1321  0.4415
64190SOL    HW199175   7.190   1.064  10.166  0.3678 -2.3021 -0.3211
64190SOL    HW299176   7.318   1.134  10.207 -0.3837 -0.4419 -1.0358
64191SOL     OW99177   6.782   9.333  11.344  0.0369  0.1397 -0.4768
64191SOL    HW199178   6.732   9.295  11.416 -2.3611  1.5023 -1.3005
64191SOL    HW299179   6.760   9.279  11.268 -1.6673  1.7207 -1.1951
64192SOL     OW99180  11.946   1.259   7.221  0.0872 -0.0649  0.1377
64192SOL    HW199181  11.888   1.184   7.235 -0.8721  0.3463 -1.4043
64192SOL    HW299182  11.969   1.255   7.128  1.5475  0.5087  0.4375
64193SOL     OW99183   8.314   5.642  10.365  0.2743  0.0898 -0.5371
64193SOL    HW199184   8.324   5.737  10.362  0.0324  0.1240 -0.2893
64193SOL    HW299185   8.221   5.627  10.347  0.1524 -0.0534  0.1569
64194SOL     OW99186   3.368   6.668   5.372  0.1243 -0.1500 -0.6861
64194SOL    HW199187   3.461   6.670   5.394  0.4153 -1.9993 -1.5729
64194SOL    HW299188   3.357   6.738   5.308  0.6093  0.9136  0.3505
64195SOL     OW99189   6.743   2.474   2.505 -0.6827 -0.3234  0.1524
64195SOL    HW199190   6.789   2.417   2.567  1.7859  0.9287 -0.3874
64195SOL    HW299191   6.653   2.443   2.505  0.2439 -3.3025  0.9115
64196SOL     OW99192   9.650  12.255   2.622 -0.2085  0.2845 -0.6124
64196SOL    HW199193   9.698  12.214   2.550  0.8696 -1.8769  1.2099
64196SOL    HW299194   9.574  12.198   2.636 -1.5336  1.8175 -1.2946
64197SOL     OW99195   2.319  11.883  10.672 -0.1422  0.5424 -0.0941
64197SOL    HW199196   2.317  11.806  10.615 -2.4109 -0.1721  0.8422
64197SOL    HW299197   2.340  11.956  10.612  0.2566 -0.5430 -1.3222
64198SOL     OW99198   9.817   1.701   6.082 -0.0080 -0.2511 -0.1373
64198SOL    HW199199   9.825   1.606   6.092  0.5326 -0.1939  0.0217
64198SOL    HW299200   9.748   1.713   6.017 -0.1891 -0.7496 -0.0419
64199SOL     OW99201  11.716   6.925   7.726 -0.3442  0.3862 -0.0516
64199SOL    HW199202  11.786   6.875   7.767 -0.5466  1.1870  1.3539
64199SOL    HW299203  11.676   6.973   7.798 -1.3530  1.1202 -1.0643
64200SOL     OW99204   0.707   2.055   7.971  0.0336 -0.1905 -0.2099
64200SOL    HW199205   0.675   2.083   8.057  1.8340 -1.4365  0.9498
64200SOL    HW299206   0.650   1.982   7.947  0.9425 -1.3843  1.0974
64201SOL     OW99207   6.544   1.865   7.434 -0.2710 -0.3621 -0.5424
64201SOL    HW199208   6.452   1.846   7.455 -0.0013 -1.5196 -0.3524
64201SOL    HW299209   6.593   1.794   7.475  0.8195  0.8089  0.2596
64202SOL     OW99210   9.340  10.900  12.322  0.0395  0.2562 -0.3745
64202SOL    HW199211   9.390  10.935  12.396 -1.9173 -1.9923  2.2064
64202SOL    HW299212   9.270  10.964  12.308 -0.7539 -0.2365  1.1370
64203SOL     OW99213  11.575   0.966   0.352 -0.0052 -0.1429  0.1463
64203SOL    HW199214  11.558   0.966   0.257  1.7330  1.6686 -0.2342
64203SOL    HW299215  11.498   0.923   0.390 -1.4505  0.3789 -1.9739
64204SOL     OW99216  12.759   9.890   3.016 -0.4175 -0.3354  0.1207
64204SOL    HW199217  12.805   9.938   3.085  0.4543 -0.9121 -0.0479
64204SOL    HW299218  12.714   9.958   2.966  0.3896  0.2672  0.1932
64205SOL     OW99219   3.425   4.494   9.483  0.3603 -0.0610 -0.2608
64205SOL    HW199220   3.359   4.547   9.528 -0.8569  0.1078 -2.1066
64205SOL    HW299221   3.504   4.548   9.484 -0.3590  1.0385 -0.5468
64206SOL     OW99222   3.010   5.769   6.019  0.2582 -0.1663  0.8372
64206SOL    HW199223   2.915   5.779   6.018  0.1219 -1.2372 -0.1203
64206SOL    HW299224   3.030   5.732   6.105 -0.3932 -1.3670  0.4957
64207SOL     OW99225   5.900   2.064   0.018 -0.2984  0.3417  0.2764
64207SOL    HW199226   5.862   2.042   0.103 -1.8216  1.6691 -0.0076
64207SOL    HW299227   5.827   2.099  -0.033  0.7291  0.2499 -1.3426
64208SOL     OW99228   5.044   4.835   6.237 -0.3842 -0.3146 -0.3375
64208SOL    HW199229   5.095   4.909   6.203  2.8136 -1.7190  1.0339
64208SOL    HW299230   4.991   4.873   6.307 -0.0276  0.9508 -0.7224
64209SOL     OW99231   0.448  11.678   0.132 -0.0337  0.3885  0.1809
64209SOL    HW199232   0.391  11.631   0.070  0.4504 -0.6328  0.4950
64209SOL    HW299233   0.388  11.738   0.178 -1.0371 -1.1997  1.0481
64210SOL     OW99234   8.451   9.425   1.723  0.1961  0.3585  0.5863
64210SOL    HW199235   8.456   9.378   1.640 -0.6049  0.6551  0.3571
64210SOL    HW299236   8.500   9.506   1.708 -1.1636  1.0935 -0.0973
64211SOL     OW99237   2.996   4.451   2.944 -0.2235 -0.5508  0.0680
64211SOL    HW199238   2.902   4.436   2.943 -0.0702 -1.6427 -1.1952
64211SOL    HW299239   3.014   4.497   2.862  0.2883  0.1514  0.5581
64212SOL     OW99240   5.501   0.347   6.212 -0.4626  0.1105  0.1227
64212SOL    HW199241   5.455   0.309   6.288  1.1896 -1.1974  0.5388
64212SOL    HW299242   5.462   0.303   6.137 -0.6014 -0.2250  0.3849
64213SOL     OW99243  10.726   8.338   2.023  0.0956  0.2254 -0.0467
64213SOL    HW199244  10.660   8.275   2.048  0.7026 -0.8408 -1.0251
64213SOL    HW299245  10.685   8.391   1.954 -0.3725  0.8510  0.6946
64214SOL     OW99246   7.920   3.566   0.320 -0.3226 -1.0025  0.5093
64214SOL    HW199247   7.943   3.488   0.370  0.6427 -0.0267  1.6652
64214SOL    HW299248   7.927   3.638   0.383  0.7148  0.2520 -0.9507
64215SOL     OW99249  12.537   6.005   1.478 -0.1324  0.4026 -0.3467
64215SOL    HW199250  12.491   5.970   1.554 -1.3598 -1.1941 -1.7432
64215SOL    HW299251  12.537   6.100   1.492 -1.0188  0.2084  1.2615
64216SOL     OW99252   0.867   2.032   2.558 -0.6379  0.3291  0.5747
64216SOL    HW199253   0.865   2.094   2.630  1.2435  1.0193  0.0928
64216SOL    HW299254   0.894   2.084   2.482  1.3279 -1.1103  0.2211
64217SOL     OW99255   5.639  10.302   1.629 -0.1588  0.0083  0.0317
64217SOL    HW199256   5.618  10.304   1.723 -1.2467  2.3307 -0.1879
64217SOL    HW299257   5.554  10.315   1.586  0.7148  2.5848 -1.1225
64218SOL     OW99258   5.061  11.949   9.688  0.3476  0.0040  0.1402
64218SOL    HW199259   5.055  11.960   9.593  1.0176  1.7716  0.2522
64218SOL    HW299260   5.101  11.863   9.700  0.9127  0.0468 -1.2082
64219SOL     OW99261   9.631   8.237   7.831 -0.1448  0.3248 -0.7429
64219SOL    HW199262   9.555   8.287   7.800  0.3834  0.3100 -2.1476
64219SOL    HW299263   9.662   8.286   7.908 -2.0148 -0.1162  0.3394
64220SOL     OW99264   6.921  10.792   3.174  0.5081 -0.0206 -0.2335
64220SOL    HW199265   6.911  10.721   3.110 -0.1586  0.3580 -0.5569
64220SOL    HW299266   6.987  10.759   3.236 -2.2220 -2.4407  1.6554
64221SOL     OW99267  10.721   6.291   1.807 -0.0447 -0.1730 -0.2868
64221SOL    HW199268  10.812   6.267   1.822 -0.6464 -1.4727  1.7728
64221SOL    HW299269  10.688   6.315   1.894 -1.0459  2.7159 -1.3695
64222SOL     OW99270  12.203   4.730   7.534 -0.2274  0.3452  0.1306
64222SOL    HW199271  12.138   4.670   7.570  1.1021 -1.3567 -0.1224
64222SOL    HW299272  12.267   4.741   7.605  0.3547  0.1648 -0.3550
64223SOL     OW99273   5.032   4.673  11.594  0.1688 -0.1587 -0.6242
64223SOL    HW199274   5.057   4.582  11.609 -0.7298 -0.1183  1.4664
64223SOL    HW299275   5.080   4.723  11.660 -0.8088  0.6192 -0.4647
64224SOL     OW99276  11.632   3.479   4.275 -0.4536 -0.7453  0.1432
64224SOL    HW199277  11.690   3.496   4.200 -1.0185 -0.3014 -0.2016
64224SOL    HW299278  11.612   3.386   4.270 -0.3761 -0.7451 -0.1779
64225SOL     OW99279  10.312  12.363   1.571 -0.1008 -0.0336  0.6895
64225SOL    HW199280  10.266  12.348   1.489  0.4888 -0.7971  0.4822
64225SOL    HW299281  10.249  12.406   1.627 -1.3730 -1.8428  0.7310
64226SOL     OW99282   4.676   9.604   0.391  0.3678 -0.3987  0.1023
64226SOL    HW199283   4.660   9.510   0.394  1.0680 -0.6239 -1.8698
64226SOL    HW299284   4.594   9.641   0.357 -0.1365 -0.1891  1.4746
64227SOL     OW99285   8.497   5.374  12.519 -0.1643  0.2928  0.3717
64227SOL    HW199286   8.420   5.319  12.508 -0.0381  0.4314 -1.6498
64227SOL    HW299287   8.542   5.338  12.595 -1.0608 -1.2003  0.2368
64228SOL     OW99288   4.561   9.943   3.824 -0.6672  0.7722  0.3080
64228SOL    HW199289   4.634   9.885   3.807  0.1893  1.6511  0.8986
64228SOL    HW299290   4.555   9.949   3.919  1.2483  3.9540  0.3805
64229SOL     OW99291  12.681   8.675   2.315 -0.2330  0.3109 -0.5682
64229SOL    HW199292  12.594   8.639   2.333  0.1187 -0.4984 -0.4566
64229SOL    HW299293  12.721   8.612   2.254  0.2015  0.7835 -0.7800
64230SOL     OW99294  11.545   0.003   0.931  0.3517  0.0095  0.1456
64230SOL    HW199295  11.552   0.085   0.883 -0.1309  1.2759  2.1078
64230SOL    HW299296  11.626  -0.044   0.910  0.1093  0.4149 -1.9220
64231SOL     OW99297   7.796   2.432   1.437 -0.2794 -0.4133 -0.2054
64231SOL    HW199298   7.783   2.500   1.370  0.5848  1.0453  1.0464
64231SOL    HW299299   7.770   2.351   1.393  0.5980  0.4168 -2.4383
64232SOL     OW99300   3.179   4.549   8.700  0.8957  0.1700  0.6758
64232SOL    HW199301   3.159   4.642   8.684  0.9520  0.2139  0.8582
64232SOL    HW299302   3.227   4.522   8.622  0.1433  0.0654  0.2318
64233SOL     OW99303   6.544   8.383   0.400  0.6844  0.2385  0.0762
64233SOL    HW199304   6.496   8.399   0.319 -0.2679  1.6119  0.8590
64233SOL    HW299305   6.584   8.468   0.421  0.5498  0.0253  1.2613
64234SOL     OW99306   4.531  12.773   5.200 -0.2657 -0.5868  0.4778
64234SOL    HW199307   4.466  12.781   5.130 -0.2889 -1.2130  0.4293
64234SOL    HW299308   4.501  12.836   5.266 -0.0588  0.2473 -0.2038
64235SOL     OW99309   1.651   1.869   3.324 -0.1503  0.0598  0.6017
64235SOL    HW199310   1.685   1.890   3.412  0.5055 -0.4752  0.4783
64235SOL    HW299311   1.620   1.779   3.331 -0.5387  0.1739  0.4023
64236SOL     OW99312   3.773   3.361   8.510 -0.0040  0.1014 -0.0942
64236SOL    HW199313   3.755   3.303   8.584  0.4160  2.1108  1.6489
64236SOL    HW299314   3.687   3.396   8.485 -0.4089 -1.8766 -1.7923
64237SOL     OW99315   4.380   5.777   7.277  0.2178 -0.2794 -0.1291
64237SOL    HW199316   4.340   5.691   7.264  0.3743 -0.5040  0.7532
64237SOL    HW299317   4.334   5.813   7.353  0.7582  0.0386  0.0560
64238SOL     OW99318   4.758   4.863   9.012  0.1192  0.1088 -0.1530
64238SOL    HW199319   4.718   4.812   9.083 -0.1578  1.0062  0.3572
64238SOL    HW299320   4.687   4.917   8.978  0.3382 -0.0536 -0.8779
64239SOL     OW99321   1.188   2.107   4.853 -0.2873 -0.3935 -0.0567
64239SOL    HW199322   1.239   2.098   4.934 -1.8996  1.2589  1.2150
64239SOL    HW299323   1.189   2.020   4.814  0.3387 -1.2879  1.8645
64240SOL     OW99324   8.331   1.283   7.498 -0.2773 -0.4554  0.6914
64240SOL    HW199325   8.309   1.283   7.591 -0.1840 -0.4491  0.7138
64240SOL    HW299326   8.247   1.279   7.453 -0.3705  0.3509  0.7729
64241SOL     OW99327   1.190   4.337   8.409  0.2069 -0.2744 -0.7471
64241SOL    HW199328   1.197   4.242   8.410  0.5355 -0.2518 -0.5724
64241SOL    HW299329   1.119   4.357   8.469  0.0303 -0.4190 -0.9100
64242SOL     OW99330  10.905   8.151  12.609  0.8049 -0.7207 -0.3499
64242SOL    HW199331  10.941   8.220  12.553 -0.4558 -0.3707 -0.7716
64242SOL    HW299332  10.956   8.073  12.588  1.9860 -0.0208 -0.1596
64243SOL     OW99333   4.820   6.922  12.425 -0.0682  0.1706 -0.3276
64243SOL    HW199334   4.777   7.000  12.459  1.5559  0.8719  0.2235
64243SOL    HW299335   4.894   6.955  12.374  0.3555 -0.9886 -0.5116
64244SOL     OW99336   5.512   0.878   1.895  0.1955 -0.0198 -0.2607
64244SOL    HW199337   5.564   0.928   1.831  1.9454 -0.2199  0.9302
64244SOL    HW299338   5.456   0.822   1.841  2.2943 -0.8874 -1.7144
64245SOL     OW99339   4.951   8.015   7.420  0.3475 -0.5408 -0.0791
64245SOL    HW199340   4.880   8.076   7.402  0.2561  0.5876  3.3678
64245SOL    HW299341   5.016   8.067   7.467  1.8163 -2.3870  0.0760
64246SOL     OW99342   0.667  12.158   6.829 -0.1913  0.6013  0.1810
64246SOL    HW199343   0.710  12.076   6.804  1.1141  0.4869  2.4573
64246SOL    HW299344   0.694  12.171   6.920 -0.2547  3.6244 -0.1447
64247SOL     OW99345   1.236   6.051   9.371 -0.1456 -0.0118 -0.1550
64247SOL    HW199346   1.216   5.990   9.442 -0.1352 -0.5374 -0.6017
64247SOL    HW299347   1.318   6.092   9.398  1.4822 -2.3675 -1.2299
64248SOL     OW99348  10.553  10.308  10.118 -0.1008 -0.1319 -0.1171
64248SOL    HW199349  10.624  10.287  10.179 -1.0965 -1.1940  0.7130
64248SOL    HW299350  10.500  10.372  10.165  0.7212  1.3315 -1.0762
64249SOL     OW99351   2.293   8.759  10.514  0.3405 -0.0144 -0.2048
64249SOL    HW199352   2.346   8.826  10.556  0.5633 -0.1959 -0.1939
64249SOL    HW299353   2.328   8.676  10.547  0.4503 -0.1583 -0.6659
64250SOL     OW99354  10.112   3.684   5.907  0.0018 -0.0561  0.6261
64250SOL    HW199355  10.130   3.666   5.999 -0.2795 -0.5976  0.5820
64250SOL    HW299356  10.085   3.599   5.872  0.4253  0.0745 -0.0316
64251SOL     OW99357   5.145   7.339   7.376  0.0764 -0.0226 -0.0437
64251SOL    HW199358   5.164   7.252   7.341  0.9344  0.1192  0.0501
64251SOL    HW299359   5.142   7.395   7.298 -2.1948 -0.3963 -0.2940
64252SOL     OW99360   6.667   7.620   8.049 -0.3278 -0.1607  0.0096
64252SOL    HW199361   6.611   7.696   8.036  0.9505  0.7166 -0.5607
64252SOL    HW299362   6.642   7.585   8.135 -0.5773  1.2053  0.5080
64253SOL     OW99363   7.665   5.155   9.281  0.1538  0.5856  0.3029
64253SOL    HW199364   7.678   5.068   9.245 -0.4144  0.6245 -0.0054
64253SOL    HW299365   7.710   5.153   9.366  0.0005 -0.0557  0.3724
64254SOL     OW99366   2.171   1.977   8.014 -0.1572  0.0018  0.2068
64254SOL    HW199367   2.105   2.043   8.037 -0.9793  0.4390 -2.9105
64254SOL    HW299368   2.255   2.019   8.033 -0.6908  0.4127  1.8547
64255SOL     OW99369   2.395   7.040  10.530  0.0198  0.0252 -0.0081
64255SOL    HW199370   2.362   7.124  10.499  0.6544 -0.4877 -2.2740
64255SOL    HW299371   2.317   6.991  10.555 -0.4285  0.9010  0.3685
64256SOL     OW99372  10.797   2.062   1.366 -0.2210 -0.1495 -0.6576
64256SOL    HW199373  10.818   1.988   1.423 -0.5494 -0.6615 -1.1946
64256SOL    HW299374  10.703   2.075   1.378  0.3171  2.2752  1.9157
64257SOL     OW99375  11.422   9.609   0.639  0.1039  0.4915 -0.2685
64257SOL    HW199376  11.447   9.694   0.675 -0.0754 -0.0476  1.1752
64257SOL    HW299377  11.365   9.631   0.565 -0.1437  1.6281  0.2361
64258SOL     OW99378   4.709   5.214   1.558 -0.4373  0.0322 -0.3090
64258SOL    HW199379   4.766   5.290   1.548  0.3425 -0.5696 -0.5605
64258SOL    HW299380   4.671   5.224   1.645  1.3189 -0.3646  0.5552
64259SOL     OW99381  10.588  12.053   6.364 -0.3479  0.0098  0.4977
64259SOL    HW199382  10.497  12.082   6.358 -1.1663 -2.4984 -0.5986
64259SOL    HW299383  10.602  12.000   6.286  1.0237 -2.3055  2.1903
64260SOL     OW99384   0.848  11.756   6.550  0.3422  0.1688  0.2546
64260SOL    HW199385   0.848  11.785   6.459 -0.5153  0.7208  0.4180
64260SOL    HW299386   0.811  11.668   6.548  2.2321 -0.6705 -0.1521
64261SOL     OW99387   7.211  11.458  10.351 -0.1535  0.7844 -0.6201
64261SOL    HW199388   7.231  11.514  10.425  0.8034  0.9415 -0.9899
64261SOL    HW299389   7.188  11.374  10.390  0.1540  0.9241 -0.1358
64262SOL     OW99390   0.070   1.080   0.985  0.2231 -0.5161 -0.4827
64262SOL    HW199391   0.017   1.049   1.059 -0.7399 -1.1843 -1.4143
64262SOL    HW299392   0.143   1.019   0.980 -1.3484 -2.4317 -1.9385
64263SOL     OW99393   2.176   9.696   4.599 -0.3416 -0.3889  0.3185
64263SOL    HW199394   2.099   9.640   4.595  0.0255 -1.1203  2.1864
64263SOL    HW299395   2.181   9.723   4.691  0.3309  1.5373 -0.2349
64264SOL     OW99396   7.040   0.654   4.883 -0.0164 -0.4983  0.0393
64264SOL    HW199397   6.984   0.625   4.955  1.4213 -2.5967  0.4201
64264SOL    HW299398   6.984   0.650   4.806 -1.7157  2.2433  1.0151
64265SOL     OW99399  10.001  10.423  10.297 -0.0541 -0.4295  0.2062
64265SOL    HW199400   9.999  10.519  10.307 -0.7432 -0.6053  2.1906
64265SOL    HW299401  10.089  10.404  10.264  1.9344  0.5876  4.3636
64266SOL     OW99402   5.648  10.476   9.916  0.2851  0.0879 -0.6385
64266SOL    HW199403   5.613  10.506   9.832 -0.4238 -0.1668 -0.4445
64266SOL    HW299404   5.586  10.511   9.981  0.0944 -0.8128 -0.3232
64267SOL     OW99405   7.345   6.391   6.489 -0.4144 -0.1815 -0.4258
64267SOL    HW199406   7.302   6.445   6.556 -2.7570 -3.1100  0.6435
64267SOL    HW299407   7.303   6.417   6.407 -1.3545 -0.1593  0.0407
64268SOL     OW99408   8.144   7.862   6.825  0.3588  0.0313 -0.2953
64268SOL    HW199409   8.211   7.813   6.872  0.5779  0.2031 -0.4283
64268SOL    HW299410   8.190   7.939   6.791  0.2414 -0.1857 -0.9532
64269SOL     OW99411   6.943   0.313  12.747 -0.2977  0.1981 -0.1000
64269SOL    HW199412   6.936   0.385  12.685  2.9926  0.8316  0.1183
64269SOL    HW299413   6.942   0.354  12.833 -1.8580 -0.4124  0.2173
64270SOL     OW99414  10.599   6.187   3.831 -0.0629  0.0143 -0.3709
64270SOL    HW199415  10.657   6.111   3.824  0.1384  0.3074 -2.2901
64270SOL    HW299416  10.650   6.260   3.797 -0.9309  0.6304 -0.3778
64271SOL     OW99417  12.739   7.082   4.680 -0.4745  0.0746 -0.0021
64271SOL    HW199418  12.655   7.040   4.663  0.7972 -1.2812 -4.0431
64271SOL    HW299419  12.736   7.163   4.630  0.4124  0.3179  0.3185
64272SOL     OW99420   2.247   5.954  11.696  0.1127  0.4376 -0.1894
64272SOL    HW199421   2.218   5.876  11.649 -2.2259 -0.4397  2.4251
64272SOL    HW299422   2.311   5.923  11.759  0.4460  0.9490 -0.2646
64273SOL     OW99423  10.424  10.960   6.101 -0.1046  0.0348 -0.5664
64273SOL    HW199424  10.415  10.915   6.185 -0.8513  1.3224  0.0820
64273SOL    HW299425  10.339  10.950   6.059  0.2462 -0.5449 -1.1446
64274SOL     OW99426   0.100   9.466   6.034  0.2605 -0.4465 -0.2455
64274SOL    HW199427   0.123   9.398   5.971  0.5824 -0.6304  0.0700
64274SOL    HW299428   0.004   9.466   6.035  0.1396  1.4062 -2.7500
64275SOL     OW99429   9.399   4.313   2.621 -0.1373 -0.3257  0.1645
64275SOL    HW199430   9.450   4.388   2.589  0.6069 -1.2270 -0.8177
64275SOL    HW299431   9.356   4.346   2.700 -0.3706  1.3407 -0.6060
64276SOL     OW99432  10.024   5.737  11.310 -0.4119 -0.6232  0.2167
64276SOL    HW199433  10.016   5.774  11.398  0.2068 -1.4430  0.6303
64276SOL    HW299434  10.047   5.645  11.324 -0.8884 -0.9180 -0.7992
64277SOL     OW99435   1.788  12.354   2.732 -0.1039  0.7538  0.3242
64277SOL    HW199436   1.862  12.396   2.688 -0.6782 -0.4782 -2.0044
64277SOL    HW299437   1.762  12.416   2.800  2.0294  1.9385  0.1483
64278SOL     OW99438   9.061   7.564  10.510 -0.3518  0.2769  0.0534
64278SOL    HW199439   9.153   7.559  10.484 -0.3078 -0.5367  0.3290
64278SOL    HW299440   9.062   7.542  10.603 -0.6771  1.6500  0.4061
64279SOL     OW99441   5.579  11.469   6.011 -0.0775  0.1469  0.4471
64279SOL    HW199442   5.618  11.543   6.058 -0.4807  0.7285 -0.1318
64279SOL    HW299443   5.486  11.489   6.007  0.0594  0.5486 -1.3838
64280SOL     OW99444   1.236   0.554   0.778 -0.4444 -0.1371  0.5582
64280SOL    HW199445   1.289   0.567   0.857 -1.5753 -0.9975  1.5078
64280SOL    HW299446   1.165   0.618   0.787 -1.3533 -1.1797  0.9778
64281SOL     OW99447   4.123   7.722   8.127 -0.0012 -0.1699 -0.1318
64281SOL    HW199448   4.071   7.651   8.165  0.1177  0.2293  0.7989
64281SOL    HW299449   4.210   7.710   8.164  0.9772 -1.6021 -2.6435
64282SOL     OW99450   5.727  10.808  10.758  0.0619 -0.0715  0.2322
64282SOL    HW199451   5.658  10.845  10.813 -1.3579 -0.5728 -1.1418
64282SOL    HW299452   5.705  10.838  10.669  1.8936  0.1454 -0.1880
64283SOL     OW99453   4.662  11.621  10.606 -0.1196 -0.1280 -0.6825
64283SOL    HW199454   4.739  11.615  10.662 -0.4821 -0.3133 -0.1896
64283SOL    HW299455   4.598  11.670  10.659 -0.4528 -0.2704 -0.9499
64284SOL     OW99456   3.457  11.092   4.003  0.0105 -0.0762  0.6696
64284SOL    HW199457   3.379  11.147   3.995  0.0360 -0.1216  0.0650
64284SOL    HW299458   3.440  11.018   3.945  0.5309 -0.0524  0.4835
64285SOL     OW99459   9.926  10.401   6.981 -0.2133 -0.1272  0.1801
64285SOL    HW199460   9.911  10.494   6.963  0.6927  0.3372  1.5996
64285SOL    HW299461  10.015  10.385   6.948 -0.6323 -0.6906 -0.7051
64286SOL     OW99462   2.405   2.367   7.232  0.5927  0.2602 -0.3933
64286SOL    HW199463   2.479   2.351   7.173  1.3795  1.0338  0.3571
64286SOL    HW299464   2.362   2.445   7.197  0.2711 -0.0411 -0.6818
64287SOL     OW99465   5.920  11.623   6.919  0.0949  0.1641  0.2458
64287SOL    HW199466   5.916  11.693   6.853 -0.1323 -1.1159 -1.1631
64287SOL    HW299467   5.997  11.571   6.894 -0.2969 -0.6384  0.6653
64288SOL     OW99468   5.010   2.625   1.501  0.2605  0.2229 -0.0636
64288SOL    HW199469   5.045   2.690   1.562  2.3653 -1.0562  0.1624
64288SOL    HW299470   5.027   2.541   1.541 -1.2513 -0.5734 -0.9602
64289SOL     OW99471   9.004  10.732   7.903  0.0733 -0.0311 -0.1826
64289SOL    HW199472   8.912  10.735   7.927  0.3645  0.4995  0.9231
64289SOL    HW299473   9.032  10.642   7.921  0.3851  0.4498  1.9355
64290SOL     OW99474   3.760  10.501   9.566  0.0707 -0.4901 -0.5499
64290SOL    HW199475   3.692  10.566   9.552  0.8934  0.1358 -1.8167
64290SOL    HW299476   3.840  10.551   9.580  0.1026 -1.1659  2.5188
64291SOL     OW99477   2.551  10.689   9.639 -0.2459  0.5870  0.0563
64291SOL    HW199478   2.611  10.723   9.573  0.5945 -1.0241 -0.0628
64291SOL    HW299479   2.498  10.624   9.592  0.6029 -0.8416  0.9833
64292SOL     OW99480   1.500  12.206   1.568  0.4961  0.1533 -0.2095
64292SOL    HW199481   1.578  12.229   1.617  0.2677  0.3421  0.0694
64292SOL    HW299482   1.527  12.132   1.513  1.6272  1.9067 -2.1499
64293SOL     OW99483  10.575   4.828   0.157  0.3246 -0.1417  0.1698
64293SOL    HW199484  10.669   4.841   0.145  0.0631  1.2372 -0.7423
64293SOL    HW299485  10.538   4.916   0.150 -0.7550 -0.1563  3.7880
64294SOL     OW99486   7.515  11.519   1.433  0.0605 -0.3309  0.1196
64294SOL    HW199487   7.487  11.522   1.342 -1.5535  0.2068  0.5942
64294SOL    HW299488   7.597  11.568   1.435 -0.6671  0.9919 -0.8044
64295SOL     OW99489   5.941   5.964   5.450  0.3043 -0.0199  0.1988
64295SOL    HW199490   5.987   5.982   5.368 -0.0787  0.0048 -0.0135
64295SOL    HW299491   5.853   5.997   5.435  0.4381  0.6800  0.8948
64296SOL     OW99492   8.156   0.051   3.457 -0.5497 -0.3461 -0.2984
64296SOL    HW199493   8.195   0.103   3.387  1.3399 -1.7538 -0.3733
64296SOL    HW299494   8.071   0.023   3.423 -0.0440 -0.2630 -1.6776
64297SOL     OW99495  10.969   2.126  12.401  0.0293 -0.0633 -0.5532
64297SOL    HW199496  10.961   2.192  12.470 -1.4650 -0.9311  0.1598
64297SOL    HW299497  10.960   2.175  12.319 -0.3977  0.7012 -0.0567
64298SOL     OW99498  11.817   1.313   9.042 -0.0284 -0.5042 -0.5870
64298SOL    HW199499  11.793   1.372   9.114  0.4378  0.4751 -1.2205
64298SOL    HW299500  11.809   1.366   8.963  1.7327 -0.8879 -1.0581
64299SOL     OW99501   1.196  11.308  11.572  0.2455 -0.0907 -0.0362
64299SOL    HW199502   1.135  11.274  11.638 -0.8931 -1.0463 -1.5109
64299SOL    HW299503   1.174  11.259  11.493  4.6879 -2.4972 -0.1081
64300SOL     OW99504   3.105   4.499   9.449  0.0949 -0.7574 -0.1007
64300SOL    HW199505   3.020   4.512   9.491  1.7311  1.2459  3.0523
64300SOL    HW299506   3.150   4.438   9.507  1.3028 -0.5883 -0.8438
64301SOL     OW99507   4.167  11.440   4.864  0.4600 -0.5718 -0.3291
64301SOL    HW199508   4.144  11.362   4.915 -0.0102 -1.3717 -1.7024
64301SOL    HW299509   4.092  11.498   4.875  0.7446 -0.3535  0.5754
64302SOL     OW99510   1.706   7.324   1.820  0.3943  0.8159 -0.4598
64302SOL    HW199511   1.721   7.229   1.828  1.6176  0.9142 -1.2157
64302SOL    HW299512   1.673   7.351   1.905 -0.1277 -0.3212 -0.2875
64303SOL     OW99513  11.942   1.141   2.271 -0.4580 -0.2333  0.1233
64303SOL    HW199514  11.852   1.113   2.286  0.4497 -3.2565  0.8133
64303SOL    HW299515  11.961   1.111   2.182 -0.0884  0.2145  0.0510
64304SOL     OW99516   4.352   3.867   1.727 -0.3593 -0.1919 -0.2253
64304SOL    HW199517   4.331   3.956   1.754 -1.3649 -0.4936  0.0640
64304SOL    HW299518   4.374   3.822   1.809  0.0583 -0.2270 -0.3577
64305SOL     OW99519   9.758   5.150   0.177 -0.0858 -0.5403 -0.2952
64305SOL    HW199520   9.769   5.106   0.261  1.0971  2.0951  1.0751
64305SOL    HW299521   9.847   5.158   0.142 -0.1033  1.4234 -0.0293
64306SOL     OW99522   9.761   5.808   8.632 -0.1787  0.3029  0.2099
64306SOL    HW199523   9.732   5.885   8.680 -2.4294  0.9853 -2.0531
64306SOL    HW299524   9.757   5.834   8.540 -0.5153 -2.3590 -0.6018
64307SOL     OW99525   8.038  10.067   0.724 -0.1206  0.2903  0.4382
64307SOL    HW199526   8.118  10.021   0.748  1.3500  3.0555  1.2398
64307SOL    HW299527   8.027  10.048   0.631  1.6237  0.0411  0.2439
64308SOL     OW99528  12.345   8.763   8.525 -0.3505  0.3787 -0.2876
64308SOL    HW199529  12.280   8.695   8.542 -0.9979  1.1803  0.5399
64308SOL    HW299530  12.373   8.792   8.612  0.0857  1.0179 -0.6332
64309SOL     OW99531   6.827  11.441   4.635  0.2975  0.7095 -0.6393
64309SOL    HW199532   6.923  11.437   4.633  0.2595 -1.3094 -0.0880
64309SOL    HW299533   6.808  11.533   4.656  2.1096  1.0524 -0.3152
64310SOL     OW99534   3.998  10.286   6.984  0.4814 -0.1801  0.5772
64310SOL    HW199535   4.058  10.318   7.051 -0.2149  1.5197  0.4459
64310SOL    HW299536   4.019  10.337   6.906  0.2309 -1.0248 -0.0621
64311SOL     OW99537  12.517   0.990   3.636  0.2826 -0.5282  0.2141
64311SOL    HW199538  12.532   1.085   3.636  0.3778 -0.5429  0.0359
64311SOL    HW299539  12.602   0.952   3.613  0.3268 -0.6727  0.6061
64312SOL     OW99540   0.961   1.941   6.392  0.0456 -0.1689 -0.0380
64312SOL    HW199541   0.957   1.957   6.486 -0.0566 -0.2680 -0.0257
64312SOL    HW299542   0.981   1.848   6.383  2.1661  0.2516 -0.1028
64313SOL     OW99543   0.398   7.725   5.620 -0.6350  0.4481  0.1818
64313SOL    HW199544   0.427   7.785   5.689  0.6048 -0.0185  0.0827
64313SOL    HW299545   0.461   7.738   5.549 -0.1784 -1.1514  0.2634
64314SOL     OW99546   3.614  11.386   7.279 -0.4687 -0.6426 -0.0414
64314SOL    HW199547   3.677  11.389   7.207  0.4231 -1.8851  0.6448
64314SOL    HW299548   3.567  11.303   7.267 -0.4430 -0.7706  0.6938
64315SOL     OW99549  10.970  10.134  12.413 -0.0957 -0.7651  0.1245
64315SOL    HW199550  10.956  10.136  12.319 -1.7800  0.1346  0.3519
64315SOL    HW299551  10.897  10.184  12.449  0.7148 -0.7826  1.8900
64316SOL     OW99552   3.585   5.048   4.824 -0.5171  0.0349 -0.1351
64316SOL    HW199553   3.524   5.002   4.766 -0.4749  0.1156 -0.2438
64316SOL    HW299554   3.671   5.015   4.798 -0.6357 -1.5343  1.3065
64317SOL     OW99555   0.871   0.012   4.928 -0.1430 -0.5334  0.2855
64317SOL    HW199556   0.785  -0.028   4.914 -0.6153  0.1608  1.1557
64317SOL    HW299557   0.921  -0.013   4.850 -2.2091  1.9456 -2.0734
64318SOL     OW99558  12.625   8.463   6.792 -0.3027 -0.0461  0.4698
64318SOL    HW199559  12.588   8.422   6.714  0.2406 -1.1964  0.7900
64318SOL    HW299560  12.552   8.511   6.831 -1.3308 -1.7480  0.7509
64319SOL     OW99561   9.638  10.141  10.948  0.1938 -0.1794 -0.0498
64319SOL    HW199562   9.652  10.051  10.919  1.2351  0.0535 -0.2967
64319SOL    HW299563   9.577  10.178  10.884  0.4437 -0.4496 -0.4457
64320SOL     OW99564   8.043   6.228   1.573  0.2086  0.1317 -0.1364
64320SOL    HW199565   8.088   6.293   1.626  2.8005 -2.1182  0.6373
64320SOL    HW299566   8.036   6.268   1.487  0.9804  1.7159  0.4950
64321SOL     OW99567   5.813   2.767   6.341 -0.2406  0.0620  0.6429
64321SOL    HW199568   5.906   2.761   6.320 -0.4173 -0.4185 -0.0293
64321SOL    HW299569   5.811   2.800   6.431  0.5882 -0.5760  0.9082
64322SOL     OW99570   2.770   0.778   7.991 -0.2918 -0.0599 -0.3784
64322SOL    HW199571   2.824   0.840   7.941 -0.4232  1.6682  1.4957
64322SOL    HW299572   2.762   0.702   7.934  0.0589  1.5493 -2.7198
64323SOL     OW99573   0.944   1.126   2.508  0.2271 -0.2063  0.0298
64323SOL    HW199574   0.874   1.107   2.571  0.0985  1.0154  0.2821
64323SOL    HW299575   0.958   1.220   2.515  1.3016 -0.2927 -0.6552
64324SOL     OW99576   0.224   2.554   2.194  0.4598  0.6513  0.0296
64324SOL    HW199577   0.270   2.555   2.278  1.6074  0.9847 -0.5882
64324SOL    HW299578   0.292   2.539   2.129 -0.3081  1.0947 -0.9086
64325SOL     OW99579  12.650   0.242   8.239  0.0716 -0.3697  0.1641
64325SOL    HW199580  12.672   0.330   8.271  0.9086 -0.2351 -0.7171
64325SOL    HW299581  12.588   0.257   8.168  0.3384 -0.4811 -0.0925
64326SOL     OW99582   3.841   2.709   2.662 -0.4022 -0.1657  0.1540
64326SOL    HW199583   3.924   2.664   2.644 -0.6034  0.0277 -1.3550
64326SOL    HW299584   3.774   2.652   2.624 -0.7902  0.6585 -0.4143
64327SOL     OW99585  10.945   9.234   5.994 -0.0636 -0.1924 -0.1123
64327SOL    HW199586  10.975   9.167   5.933 -0.2177 -0.8333  0.5047
64327SOL    HW299587  11.024   9.285   6.015 -0.0382  0.1129 -0.9375
64328SOL     OW99588   8.640   7.297  11.995 -0.1007  0.0155 -0.0751
64328SOL    HW199589   8.584   7.235  12.043  0.7169 -1.4348 -0.9163
64328SOL    HW299590   8.724   7.252  11.988  0.1846  0.7446 -1.7042
64329SOL     OW99591  12.357  11.224   9.447 -0.1552 -0.7877  0.3404
64329SOL    HW199592  12.336  11.234   9.354  0.6017  0.0775  0.2490
64329SOL    HW299593  12.452  11.209   9.449 -0.0243  0.0667  1.0225
64330SOL     OW99594  10.202   0.197   4.812 -0.2920  0.1994  0.1332
64330SOL    HW199595  10.233   0.169   4.726 -1.9413  1.1609 -0.8289
64330SOL    HW299596  10.166   0.117   4.851  1.0637 -0.3828  0.2347
64331SOL     OW99597   6.726   9.682   3.418 -0.0611 -0.0653 -0.1419
64331SOL    HW199598   6.643   9.634   3.412 -1.2139  1.3302  2.6061
64331SOL    HW299599   6.774   9.639   3.489  0.7230  0.2894 -0.4463
64332SOL     OW99600   0.070   6.518  10.661 -0.2915 -0.0987 -0.1176
64332SOL    HW199601   0.030   6.461  10.727  1.4566  1.4910  2.4924
64332SOL    HW299602   0.010   6.593  10.655  1.2067  1.4567  2.4963
64333SOL     OW99603  10.377  11.970   7.109  0.4950 -0.1665  0.5077
64333SOL    HW199604  10.310  12.006   7.168  1.0423  0.3278  0.8332
64333SOL    HW299605  10.327  11.920   7.045 -0.2423  0.6787  0.4001
64334SOL     OW99606   6.425   3.643   5.326 -0.0293 -0.5660 -0.0540
64334SOL    HW199607   6.499   3.591   5.294  0.1385  0.1691 -0.9205
64334SOL    HW299608   6.373   3.661   5.247  0.2481  1.0824  0.1163
64335SOL     OW99609   0.979   7.432   2.776 -0.2632 -0.1529 -0.1785
64335SOL    HW199610   0.890   7.398   2.781 -0.2057 -0.4693 -1.1461
64335SOL    HW299611   0.983   7.474   2.690  0.4073  0.1981  0.0212
64336SOL     OW99612   8.885   3.654   6.305 -0.0772  0.1380 -0.1663
64336SOL    HW199613   8.849   3.742   6.293 -0.3271 -0.0511 -0.8527
64336SOL    HW299614   8.844   3.621   6.385  0.5049  0.8872  0.4501
64337SOL     OW99615  11.503   3.603   3.808 -0.4467  0.2390  0.1720
64337SOL    HW199616  11.433   3.538   3.816  0.2225 -0.6172 -0.8178
64337SOL    HW299617  11.572   3.559   3.759  1.0155  0.9047  1.5318
64338SOL     OW99618   8.422  10.441   6.680  0.0669  0.0631  0.0202
64338SOL    HW199619   8.426  10.349   6.707  0.0333  0.4396  1.3691
64338SOL    HW299620   8.329  10.464   6.686 -0.0202 -0.0051 -1.0007
64339SOL     OW99621   8.583   4.869   1.806 -0.0743 -0.4260  0.1401
64339SOL    HW199622   8.573   4.828   1.721  1.0754  0.4320 -0.4361
64339SOL    HW299623   8.513   4.934   1.811 -1.5052 -1.9332  0.7947
64340SOL     OW99624  12.330  11.952   0.710 -0.0982 -0.0413 -0.2026
64340SOL    HW199625  12.366  11.917   0.628  0.1708  3.7204 -1.8994
64340SOL    HW299626  12.235  11.947   0.698 -0.0662 -0.2759 -0.3698
64341SOL     OW99627   3.360   1.653  12.555 -0.4264 -0.3927  0.1470
64341SOL    HW199628   3.424   1.621  12.619 -0.9276 -0.1486  0.7911
64341SOL    HW299629   3.335   1.576  12.505 -1.8381 -1.1264  1.8644
64342SOL     OW99630   3.097  11.847   0.621  0.1569 -0.2722 -0.1814
64342SOL    HW199631   3.144  11.799   0.690 -0.5336  0.0475  0.5216
64342SOL    HW299632   3.005  11.828   0.638 -0.2334  2.1822  0.7996
64343SOL     OW99633  11.278   3.870   9.008  0.1030 -0.5035  0.3272
64343SOL    HW199634  11.323   3.939   9.056  0.5890 -1.4946  1.3451
64343SOL    HW299635  11.187   3.875   9.039 -0.1062  0.3284 -0.3814
64344SOL     OW99636   4.326   5.412   4.395  0.3424 -0.5110 -0.1187
64344SOL    HW199637   4.317   5.436   4.487  0.4552 -1.0258  0.0315
64344SOL    HW299638   4.236   5.415   4.361  0.3111 -0.2424 -0.0147
64345SOL     OW99639   4.656   8.353   9.492 -0.4860 -0.2496 -0.0760
64345SOL    HW199640   4.692   8.365   9.580  0.7487 -1.7354 -0.3336
64345SOL    HW299641   4.732   8.329   9.438 -1.4034 -0.5462 -1.2876
64346SOL     OW99642   8.863   1.338   4.534  0.2822  0.5168  0.3956
64346SOL    HW199643   8.956   1.362   4.528  0.2162  0.8959  0.8348
64346SOL    HW299644   8.824   1.378   4.456  0.0495  2.4998  1.4588
64347SOL     OW99645   0.331  12.119   2.289  0.4894 -0.3307  0.0136
64347SOL    HW199646   0.374  12.037   2.313  0.2392 -0.1165  1.2415
64347SOL    HW299647   0.271  12.094   2.218 -0.4295 -1.4533  1.1427
64348SOL     OW99648   8.432   6.939   2.191  0.2536  0.2493 -0.2698
64348SOL    HW199649   8.420   6.905   2.102  0.3761  1.3140 -0.7000
64348SOL    HW299650   8.348   6.925   2.233 -0.9861  2.8315 -1.6313
64349SOL     OW99651   7.748   3.697   8.500  0.3750  0.2591 -0.1659
64349SOL    HW199652   7.761   3.667   8.590  0.4376  1.0470  0.0928
64349SOL    HW299653   7.789   3.783   8.496 -0.6680  0.7613 -0.6118
64350SOL     OW99654   1.078   1.214  11.578 -0.2163  0.3486  0.4873
64350SOL    HW199655   1.105   1.294  11.622 -1.2867  1.6514 -1.0894
64350SOL    HW299656   1.090   1.232  11.485 -1.1472 -1.0637  0.0437
64351SOL     OW99657   7.174   8.455   3.310  0.0721  0.0880  0.0990
64351SOL    HW199658   7.166   8.390   3.380  0.0528  1.5154  1.4821
64351SOL    HW299659   7.245   8.422   3.254 -0.3031 -1.3716  0.4503
64352SOL     OW99660  11.650   3.867   5.135 -0.0483  0.1153 -0.6714
64352SOL    HW199661  11.745   3.877   5.121  0.4648 -0.7465  1.6624
64352SOL    HW299662  11.612   3.945   5.097  1.5685  0.3219 -1.9796
64353SOL     OW99663  11.419   6.396  10.719  0.1858  0.2798 -0.2729
64353SOL    HW199664  11.359   6.457  10.676 -0.0091  1.3088  1.3649
64353SOL    HW299665  11.379   6.310  10.707 -2.1120  0.9997  1.4122
64354SOL     OW99666   9.391   9.823   3.578  0.0546  0.7695 -0.2253
64354SOL    HW199667   9.358   9.909   3.604  0.8194  1.0699 -0.1951
64354SOL    HW299668   9.482   9.840   3.551 -0.0754  0.1349 -1.1348
64355SOL     OW99669   9.920   8.828  11.803  0.0999 -0.3415 -0.1369
64355SOL    HW199670   9.832   8.802  11.775  1.0338 -2.4020 -1.3455
64355SOL    HW299671   9.921   8.812  11.897 -1.5860  2.1995  0.4144
64356SOL     OW99672  12.331   4.079   7.445 -0.0473 -0.6837  0.5185
64356SOL    HW199673  12.257   4.116   7.395  0.1320 -1.1795 -0.1349
64356SOL    HW299674  12.379   4.156   7.476  0.1078 -0.3457 -0.4951
64357SOL     OW99675  10.483   8.298   0.402  0.3602  0.1859 -0.2701
64357SOL    HW199676  10.551   8.348   0.357  0.9598  1.2418  1.7000
64357SOL    HW299677  10.517   8.209   0.406  1.6697  0.7134  0.7207
64358SOL     OW99678   1.203  11.235   6.324  0.3230 -0.4313 -0.6691
64358SOL    HW199679   1.279  11.196   6.368 -0.4662 -0.2001  0.9719
64358SOL    HW299680   1.233  11.252   6.235  1.7810 -1.5452 -0.4293
64359SOL     OW99681   1.144  11.767   7.613  0.5740  0.0170 -0.1712
64359SOL    HW199682   1.154  11.768   7.518 -0.2532 -0.0511 -0.2659
64359SOL    HW299683   1.049  11.773   7.628  0.5532 -1.5638  0.6080
64360SOL     OW99684  10.998   3.427   0.312 -0.4633  0.5853  0.0572
64360SOL    HW199685  10.959   3.508   0.281 -2.6830  0.8760  3.1270
64360SOL    HW299686  11.060   3.455   0.380  0.1728 -0.2107 -0.1803
64361SOL     OW99687   2.677   3.742   5.770 -0.2814 -0.1917 -0.4827
64361SOL    HW199688   2.602   3.693   5.804  0.5439 -1.0575  0.1086
64361SOL    HW299689   2.753   3.686   5.786  0.3060 -0.1651 -2.7312
64362SOL     OW99690  11.530  12.359   8.283  0.3701 -0.4866 -0.5093
64362SOL    HW199691  11.436  12.363   8.302  0.6423  1.0767  0.6678
64362SOL    HW299692  11.534  12.339   8.189 -1.1744  1.1663 -0.9891
64363SOL     OW99693   4.337   0.534   1.243  0.2549 -0.7202  0.3199
64363SOL    HW199694   4.421   0.577   1.262 -0.6859  0.8186  1.2129
64363SOL    HW299695   4.343   0.509   1.151  1.5260 -0.2248  0.2502
64364SOL     OW99696   6.213   9.535  11.028 -0.2050 -0.4407  0.2045
64364SOL    HW199697   6.200   9.441  11.018  2.3671 -0.9254  0.5906
64364SOL    HW299698   6.187   9.553  11.119 -2.3546 -0.3687 -0.3643
64365SOL     OW99699   1.180  11.535   8.780  0.1557  0.1332 -0.8774
64365SOL    HW199700   1.205  11.461   8.725 -0.0356  0.0987 -0.9178
64365SOL    HW299701   1.263  11.576   8.804  0.3022 -0.4583 -0.3529
64366SOL     OW99702   7.768   5.422   0.484 -0.2329 -0.2776  0.2523
64366SOL    HW199703   7.847   5.380   0.517  0.1694  0.7601  0.6416
64366SOL    HW299704   7.708   5.422   0.558 -0.1922 -0.0676  0.2848
64367SOL     OW99705   4.107   8.984   0.887  0.0382  0.2838  0.1877
64367SOL    HW199706   4.137   8.967   0.976  0.8122  1.5229  0.1853
64367SOL    HW299707   4.121   9.078   0.874 -3.5368  0.9429  0.0528
64368SOL     OW99708   9.192   3.808   7.801  0.5907 -0.3391 -0.2899
64368SOL    HW199709   9.243   3.822   7.881  0.7592  0.5995 -0.5432
64368SOL    HW299710   9.106   3.780   7.832  0.2944  1.1245  0.2942
64369SOL     OW99711   5.248  11.088   8.159  0.3557 -0.2071  0.0398
64369SOL    HW199712   5.157  11.060   8.157  0.8228 -1.7757 -0.7540
64369SOL    HW299713   5.246  11.179   8.127 -0.9328 -0.1423  0.2665
64370SOL     OW99714   5.898   6.633   4.528  0.2622 -0.3189  0.4861
64370SOL    HW199715   5.823   6.680   4.565 -0.1825 -1.3955  1.0053
64370SOL    HW299716   5.859   6.553   4.491  1.1660 -0.9765  0.9244
64371SOL     OW99717  12.429  10.768   4.862 -0.6518 -0.2981 -0.1725
64371SOL    HW199718  12.477  10.804   4.788  0.7692 -0.4052  0.6550
64371SOL    HW299719  12.355  10.722   4.822  0.5099 -1.0384 -1.5987
64372SOL     OW99720   8.479   2.009   6.684 -0.2337 -0.0836  0.1617
64372SOL    HW199721   8.477   2.079   6.619 -0.1247 -1.1218 -0.9952
64372SOL    HW299722   8.562   2.021   6.731  0.8131 -0.6454 -1.4441
64373SOL     OW99723   7.115   8.236   6.755 -0.0813  0.2453  0.6367
64373SOL    HW199724   7.078   8.302   6.697 -0.2842 -0.4972 -0.0963
64373SOL    HW299725   7.093   8.152   6.714  2.9156 -0.2664 -0.1722
64374SOL     OW99726   8.025   8.701   7.857  0.3515 -0.0177  0.2584
64374SOL    HW199727   7.944   8.710   7.807  1.0816 -1.5637 -1.2972
64374SOL    HW299728   8.092   8.688   7.790  1.1704 -3.8211  1.6270
64375SOL     OW99729  12.126   7.028   7.210 -0.2367  0.2459 -0.5645
64375SOL    HW199730  12.045   7.065   7.177 -0.9297 -0.1828  0.5853
64375SOL    HW299731  12.111   6.934   7.213 -0.5470  0.3075  1.7021
64376SOL     OW99732   2.866   1.333   9.785  0.4171 -0.0910  0.0235
64376SOL    HW199733   2.789   1.333   9.842  0.5903  0.6182  0.2643
64376SOL    HW299734   2.914   1.254   9.809 -0.4548 -0.7775 -0.4347
64377SOL     OW99735   0.612   1.885   8.576  0.0842  0.7281 -0.1122
64377SOL    HW199736   0.606   1.803   8.625 -0.3072  0.4139 -0.6752
64377SOL    HW299737   0.644   1.948   8.639 -0.2317  0.2867  0.4992
64378SOL     OW99738   4.829   7.194   7.933  0.1250  0.0346 -0.3637
64378SOL    HW199739   4.900   7.254   7.911  0.0498 -0.4142 -1.9306
64378SOL    HW299740   4.751   7.250   7.939  0.2329  0.2373 -0.8172
64379SOL     OW99741   7.579  12.438  10.618  0.1216  0.2887  0.2894
64379SOL    HW199742   7.566  12.453  10.712  0.0212  1.1150  0.1492
64379SOL    HW299743   7.619  12.518  10.586  1.8023 -0.6385 -0.0677
64380SOL     OW99744   2.992   0.642   7.721  0.0861  0.2825 -0.2818
64380SOL    HW199745   2.989   0.629   7.626 -0.5298  1.5681 -0.4628
64380SOL    HW299746   2.913   0.599   7.754 -0.0748  0.4578 -0.4398
64381SOL     OW99747   6.545  12.305  12.453 -0.6171 -0.2974 -0.2268
64381SOL    HW199748   6.583  12.360  12.385  0.2833 -1.4559 -0.6851
64381SOL    HW299749   6.610  12.237  12.470 -0.6084  0.1942  2.1289
64382SOL     OW99750   2.210   7.074   3.754  0.8017  0.0218 -0.4835
64382SOL    HW199751   2.292   7.117   3.731 -0.1427  1.4172 -1.4070
64382SOL    HW299752   2.212   6.991   3.705  1.1607  0.5730 -1.4396
64383SOL     OW99753   5.257   9.446   3.509  0.0484 -0.4748  0.0484
64383SOL    HW199754   5.179   9.458   3.454 -0.7760  0.6024  1.3819
64383SOL    HW299755   5.223   9.429   3.596  1.3073 -0.1765  0.6273
64384SOL     OW99756  11.281   7.394   7.182  0.7133 -0.1883 -0.0145
64384SOL    HW199757  11.192   7.408   7.149  1.1645  1.6409 -0.5303
64384SOL    HW299758  11.316   7.482   7.196  1.9843 -0.8735  1.4889
64385SOL     OW99759   5.949   6.685   1.266 -0.2161  0.4490  0.0463
64385SOL    HW199760   5.916   6.671   1.178 -0.5333 -0.8005  0.3415
64385SOL    HW299761   5.977   6.777   1.267 -3.2097  1.4672 -0.3475
64386SOL     OW99762   4.849   3.798   8.324 -0.4151 -0.1870 -0.4350
64386SOL    HW199763   4.914   3.813   8.255  0.4788 -3.9922 -0.6251
64386SOL    HW299764   4.782   3.744   8.281 -0.8925 -0.8888  1.1448
64387SOL     OW99765   3.742   2.090   0.387  0.4552 -0.3990 -0.5447
64387SOL    HW199766   3.654   2.051   0.389  0.2324  0.1072  0.6742
64387SOL    HW299767   3.737   2.162   0.449  2.5509 -2.2481  2.0088
64388SOL     OW99768   3.786   4.165   7.274 -0.0721  0.0792  0.2910
64388SOL    HW199769   3.877   4.166   7.243  0.2751 -1.4880  1.0992
64388SOL    HW299770   3.766   4.256   7.294  2.1204  0.2532  2.2002
64389SOL     OW99771   0.102   1.434   4.336 -0.1856  0.0710  0.0682
64389SOL    HW199772   0.185   1.452   4.293 -0.1932  0.3588  0.1726
64389SOL    HW299773   0.120   1.358   4.392  0.0546  0.2420  0.2251
64390SOL     OW99774   2.475  12.440  10.826  0.1296  0.2285 -0.0658
64390SOL    HW199775   2.419  12.486  10.764 -2.8967 -0.1208  2.1712
64390SOL    HW299776   2.471  12.493  10.906  1.4704 -0.8578  0.7700
64391SOL     OW99777   4.657  11.244  10.376  0.6689  0.2523 -0.3327
64391SOL    HW199778   4.615  11.194  10.445  1.8848  1.3214  1.2585
64391SOL    HW299779   4.690  11.179  10.315  0.0829 -0.7487  0.3946
64392SOL     OW99780   1.360   6.563   7.434 -0.4875 -0.0872 -0.3585
64392SOL    HW199781   1.336   6.612   7.513 -1.9481  0.1368 -0.9243
64392SOL    HW299782   1.401   6.628   7.378 -1.4707  0.2708 -0.6781
64393SOL     OW99783  11.964   0.323  11.143 -0.1100 -0.7292 -0.0792
64393SOL    HW199784  11.900   0.303  11.212  1.0338  0.8290  1.5444
64393SOL    HW299785  11.994   0.238  11.112 -1.9818 -1.4743  0.0611
64394SOL     OW99786   1.672   1.125   6.197 -0.2011  0.8000 -0.1369
64394SOL    HW199787   1.623   1.191   6.246 -0.2637 -0.1256  1.0869
64394SOL    HW299788   1.747   1.104   6.253 -0.5180 -0.6046 -0.2054
64395SOL     OW99789   4.491   2.617  11.895 -0.1841 -0.0820 -0.6584
64395SOL    HW199790   4.488   2.566  11.814  0.3727  0.5058 -1.0566
64395SOL    HW299791   4.561   2.680  11.881  0.4504 -0.4737  0.5903
64396SOL     OW99792   5.643   0.403   7.356  0.1045  0.9205  0.1964
64396SOL    HW199793   5.657   0.335   7.421  2.8174  0.1169 -1.0419
64396SOL    HW299794   5.584   0.466   7.398  0.4352 -0.3594  2.7579
64397SOL     OW99795   3.942   3.585   0.057 -0.1627 -0.6761  0.1017
64397SOL    HW199796   3.896   3.639   0.121 -2.2073 -1.3094 -0.7661
64397SOL    HW299797   3.983   3.648  -0.003 -0.7267 -0.0905  0.3201
64398SOL     OW99798   9.719   7.593  11.048  0.5457  0.0280 -0.0055
64398SOL    HW199799   9.808   7.578  11.080 -0.0291 -0.6704  1.3713
64398SOL    HW299800   9.663   7.577  11.125 -0.7088  1.3255 -0.6033
64399SOL     OW99801   2.533   0.142   6.473 -0.0876  0.0989 -0.1929
64399SOL    HW199802   2.454   0.103   6.510 -0.0382 -0.7536 -0.9492
64399SOL    HW299803   2.535   0.231   6.508 -1.0993 -0.0414  0.2475
64400SOL     OW99804   4.240   1.363   6.058 -0.4022  0.4307  0.1474
64400SOL    HW199805   4.242   1.269   6.078  1.1506  0.1035 -1.2988
64400SOL    HW299806   4.262   1.368   5.965 -0.5723  2.2365  0.1786
64401SOL     OW99807   7.659   9.626  11.058 -0.6248  0.2251 -0.5278
64401SOL    HW199808   7.699   9.580  11.131  1.3197  0.3447 -1.4434
64401SOL    HW299809   7.577   9.662  11.093 -0.2236 -0.5368  1.2834
64402SOL     OW99810   4.607   8.692  11.175  0.2628  0.2955  0.1195
64402SOL    HW199811   4.534   8.750  11.158  1.3801  1.8439  0.4161
64402SOL    HW299812   4.568   8.604  11.174 -0.9043  0.6617 -3.7395
64403SOL     OW99813   0.094   7.126  10.424  0.4914 -0.1378 -0.2261
64403SOL    HW199814   0.123   7.088  10.342 -1.0533 -1.4371 -0.2070
64403SOL    HW299815   0.035   7.061  10.462 -0.1399  1.1490  1.1080
64404SOL     OW99816  10.487   6.838   1.336  0.1373 -0.5571 -0.2569
64404SOL    HW199817  10.491   6.751   1.376 -3.1858 -0.2214  1.1340
64404SOL    HW299818  10.409   6.836   1.281  0.8931  1.1097 -1.4931
64405SOL     OW99819   8.411   7.371  11.430  0.5765 -0.2606  0.4961
64405SOL    HW199820   8.497   7.330  11.426  0.3294 -0.8591  1.1299
64405SOL    HW299821   8.428   7.459  11.462  0.8553 -0.7485  1.7691
64406SOL     OW99822   9.314   1.775   5.097 -0.3878 -0.0175 -0.1854
64406SOL    HW199823   9.266   1.721   5.034 -0.5458  0.6921 -0.6896
64406SOL    HW299824   9.354   1.712   5.157 -0.6067 -0.6892 -0.7273
64407SOL     OW99825  11.813   3.814   0.497  0.0927  0.3573 -0.3634
64407SOL    HW199826  11.795   3.867   0.574  0.3494  0.5263 -0.4207
64407SOL    HW299827  11.869   3.868   0.442 -0.8473  0.6006 -1.1041
64408SOL     OW99828   2.790  11.181  10.983  0.3341 -0.5650 -0.0484
64408SOL    HW199829   2.859  11.233  11.025  0.0458 -1.2849  1.3552
64408SOL    HW299830   2.786  11.100  11.033 -0.4953 -1.1765 -1.0605
64409SOL     OW99831   9.512   3.736  12.229 -0.2515  0.3390 -0.3326
64409SOL    HW199832   9.418   3.717  12.221 -0.3442  0.7572 -0.2191
64409SOL    HW299833   9.538   3.694  12.311 -0.5364  1.0058  0.1047
64410SOL     OW99834   0.246   7.916  11.031  0.2939 -0.2926  0.2910
64410SOL    HW199835   0.265   7.998  10.986  1.2284 -0.2483  0.7374
64410SOL    HW299836   0.330   7.869  11.030 -0.0420 -0.9130  0.7021
64411SOL     OW99837   4.171   1.346  12.551 -0.0515  0.1344  0.0678
64411SOL    HW199838   4.200   1.367  12.463 -1.6035 -0.7079 -0.6759
64411SOL    HW299839   4.167   1.431  12.596 -0.4169  0.7097 -1.0279
64412SOL     OW99840   4.119   3.048   8.524 -0.8787  0.0709 -0.2576
64412SOL    HW199841   4.116   2.968   8.473  0.4481  0.0448 -0.3427
64412SOL    HW299842   4.183   3.103   8.479 -0.2725  0.3639  0.9064
64413SOL     OW99843   7.833  10.953   1.446  0.1589 -0.1434  0.1440
64413SOL    HW199844   7.918  10.923   1.479  0.1912 -2.1092 -1.4863
64413SOL    HW299845   7.769  10.900   1.494  0.0143 -0.3968 -0.3173
64414SOL     OW99846   5.594   3.745   2.652  0.7016  0.6585 -0.0772
64414SOL    HW199847   5.616   3.657   2.681 -1.2366 -0.0956 -0.7440
64414SOL    HW299848   5.673   3.778   2.610  0.8609 -1.5435 -1.6242
64415SOL     OW99849   9.406  12.027   7.091 -0.0958 -0.3278 -0.0926
64415SOL    HW199850   9.454  11.947   7.114  0.3660 -0.2731 -0.8549
64415SOL    HW299851   9.447  12.095   7.144  0.4864 -0.3300 -0.5421
64416SOL     OW99852   5.549   6.044   1.864  0.2418 -0.5408  0.1337
64416SOL    HW199853   5.552   6.125   1.916  0.7367 -1.4290  1.5444
64416SOL    HW299854   5.518   6.072   1.778  0.8856  1.2384  0.4299
64417SOL     OW99855  10.187   7.142   9.397  0.5554  0.4624 -0.2146
64417SOL    HW199856  10.280   7.162   9.389  0.5964 -0.3003 -2.2445
64417SOL    HW299857  10.175   7.063   9.343 -1.0600 -0.1369  0.9455
64418SOL     OW99858   8.662   6.249  12.492 -0.7183 -0.1447 -0.3244
64418SOL    HW199859   8.620   6.331  12.467 -0.7760 -0.3465 -0.9225
64418SOL    HW299860   8.641   6.238  12.585  0.3113  1.1155  0.0854
64419SOL     OW99861  12.711  10.918  12.024  0.1143  0.1612 -0.3472
64419SOL    HW199862  12.659  10.992  12.056  0.2038  0.4391 -0.8411
64419SOL    HW299863  12.798  10.932  12.062  0.5125  1.0641 -1.5274
64420SOL     OW99864   9.382   8.027   1.280 -0.5057  0.0637  0.4685
64420SOL    HW199865   9.443   8.098   1.299 -0.1614 -0.3750  1.0712
64420SOL    HW299866   9.302   8.071   1.252  0.5814  0.6205 -1.9995
64421SOL     OW99867   6.907   7.450   6.123  0.4841 -0.0612 -0.6680
64421SOL    HW199868   6.864   7.533   6.103 -0.8660 -0.1235  1.6777
64421SOL    HW299869   6.836   7.386   6.125  0.4427 -0.1489  3.4434
64422SOL     OW99870   9.954   8.023   2.884 -0.1233  0.0838  0.1841
64422SOL    HW199871  10.014   8.016   2.958  1.2148 -1.5124 -0.9668
64422SOL    HW299872   9.895   7.948   2.894  0.8531 -0.8950 -0.9498
64423SOL     OW99873   7.105   6.523   3.216 -0.2824  0.3439  0.3390
64423SOL    HW199874   7.129   6.523   3.309 -0.9403 -1.0167  0.5346
64423SOL    HW299875   7.182   6.488   3.172 -1.1920 -2.4843  0.7965
64424SOL     OW99876  10.356   7.966   3.535  0.6028  0.2727 -0.9037
64424SOL    HW199877  10.416   7.955   3.608 -0.7609 -0.3981  0.1634
64424SOL    HW299878  10.411   7.955   3.457  2.5348  3.2077 -0.1082
64425SOL     OW99879   6.094   4.246   6.831  0.7755  0.2621 -0.2914
64425SOL    HW199880   6.119   4.339   6.836  0.9268  0.3697 -2.2611
64425SOL    HW299881   6.116   4.210   6.917  1.3315  1.8941  0.2854
64426SOL     OW99882  11.744   4.016   5.541  0.7252  0.3020 -0.4348
64426SOL    HW199883  11.767   3.924   5.553 -0.2096  0.1757  0.4913
64426SOL    HW299884  11.766   4.058   5.624 -0.7707  0.4950 -0.1067
64427SOL     OW99885   9.003   5.903  10.093 -0.5815  0.4377  0.8150
64427SOL    HW199886   9.018   5.821  10.046  1.1438 -0.0326  2.0663
64427SOL    HW299887   8.966   5.962  10.028  0.3638 -0.6125 -0.7470
64428SOL     OW99888   5.552   7.614  11.116 -0.0940 -0.1998 -0.6048
64428SOL    HW199889   5.587   7.688  11.167 -0.0302 -0.0588 -0.8512
64428SOL    HW299890   5.457   7.622  11.125 -0.1079  0.2632 -1.1191
64429SOL     OW99891   8.344   9.621  11.616 -0.7077  0.0174  0.3385
64429SOL    HW199892   8.339   9.627  11.521 -0.3925 -1.1962  0.2283
64429SOL    HW299893   8.360   9.528  11.634  3.1040  0.6806  1.3888
64430SOL     OW99894   8.849  12.365   8.877 -0.7788  0.3196  0.2519
64430SOL    HW199895   8.823  12.457   8.870  0.9464  1.0154  2.2348
64430SOL    HW299896   8.839  12.343   8.969  0.5958 -0.9213  0.1540
64431SOL     OW99897   2.435  10.893   8.307  0.2667  0.0782  0.3990
64431SOL    HW199898   2.368  10.831   8.278  0.8413 -1.2333  1.7668
64431SOL    HW299899   2.513  10.869   8.257  0.2102  0.4178  0.1412
64432SOL     OW99900  10.414   7.800   9.126 -0.1466 -0.1029  0.3199
64432SOL    HW199901  10.509   7.813   9.128  0.2209 -2.0398 -1.1328
64432SOL    HW299902  10.402   7.708   9.151 -1.4387 -0.4623 -1.4155
64433SOL     OW99903   2.733  12.419  10.942  0.1022  0.3878 -0.2180
64433SOL    HW199904   2.689  12.435  10.859 -0.8531 -0.2442  0.1597
64433SOL    HW299905   2.735  12.505  10.985  2.2933  1.1471 -1.6588
64434SOL     OW99906   5.528  11.292   0.165  0.5254 -0.7490  0.2101
64434SOL    HW199907   5.476  11.239   0.105  1.6983 -0.8588 -0.7567
64434SOL    HW299908   5.532  11.378   0.123 -0.2520 -0.2625  1.1077
64435SOL     OW99909   9.884   9.843  10.574 -0.3466  0.0789  0.0006
64435SOL    HW199910   9.975   9.867  10.588 -0.4956 -0.1557  1.5656
64435SOL    HW299911   9.871   9.765  10.629 -1.2905 -0.3364 -0.7818
64436SOL     OW99912   3.664   7.690   4.503  0.9308  0.2539 -0.2133
64436SOL    HW199913   3.625   7.777   4.513  1.4672  0.4549  0.1420
64436SOL    HW299914   3.679   7.682   4.409 -1.1482 -0.3521 -0.5562
64437SOL     OW99915   7.213   6.817   2.693 -0.1249 -0.3723 -0.0030
64437SOL    HW199916   7.178   6.728   2.688 -0.5484 -0.2194  0.1647
64437SOL    HW299917   7.298   6.808   2.737  0.1607 -0.7788 -0.6326
64438SOL     OW99918   2.983   8.397   5.960  0.0786 -0.0965 -0.0062
64438SOL    HW199919   2.890   8.377   5.968 -0.1969  1.1044  0.0649
64438SOL    HW299920   3.004   8.448   6.039  0.8500 -0.5474  0.0887
64439SOL     OW99921   0.758  12.684   3.712 -0.4611 -0.2938  0.3875
64439SOL    HW199922   0.722  12.606   3.753 -0.5307 -1.1276 -1.1620
64439SOL    HW299923   0.794  12.653   3.629 -0.2507  1.2753 -0.1479
64440SOL     OW99924   4.065   8.716   6.183 -0.4281  0.3934  0.2203
64440SOL    HW199925   4.036   8.719   6.091  1.6260  0.2504 -0.4721
64440SOL    HW299926   4.156   8.746   6.180 -0.2468  0.1064  2.1879
64441SOL     OW99927   4.935   5.924  10.944  0.2384  0.5118  0.0612
64441SOL    HW199928   4.882   5.902  10.868 -0.4685  1.1377  0.3611
64441SOL    HW299929   5.014   5.871  10.934 -0.5707 -0.6820 -0.2312
64442SOL     OW99930   8.167  12.114  11.003  0.7319 -0.0792  0.3564
64442SOL    HW199931   8.236  12.097  11.067  0.9422  0.2834  0.2320
64442SOL    HW299932   8.211  12.108  10.918  1.2052  2.5553  0.3160
64443SOL     OW99933   1.699   2.296   5.726  0.3082 -0.3331  0.0785
64443SOL    HW199934   1.742   2.303   5.811 -0.6544  0.6545  0.5088
64443SOL    HW299935   1.769   2.310   5.663  1.0614 -1.2269  0.6894
64444SOL     OW99936  10.819   5.079  11.566 -0.0338 -0.7791  0.0236
64444SOL    HW199937  10.781   5.086  11.478  0.2645 -1.3876 -0.1552
64444SOL    HW299938  10.913   5.078  11.552  0.0422 -0.1178  0.4119
64445SOL     OW99939   1.459  11.500   9.169 -0.1351 -0.0358  0.0027
64445SOL    HW199940   1.454  11.585   9.126 -0.9633 -0.6616 -1.1865
64445SOL    HW299941   1.526  11.452   9.122  0.3158 -0.0617  0.6551
64446SOL     OW99942   4.065   7.565   6.822 -0.6021  0.5796 -0.4015
64446SOL    HW199943   4.070   7.612   6.739 -0.7666 -0.9269 -1.3040
64446SOL    HW299944   4.020   7.625   6.881 -2.0740  1.0435 -1.9092
64447SOL     OW99945   0.878   9.601   2.458 -0.7061  0.1796 -0.4355
64447SOL    HW199946   0.931   9.662   2.408 -1.3029  1.1002  0.0429
64447SOL    HW299947   0.941   9.538   2.493  0.2045  1.6824  0.7508
64448SOL     OW99948  10.597   3.839  12.515 -0.1962  0.3043  0.1473
64448SOL    HW199949  10.652   3.773  12.472  1.0776  0.6444  1.1710
64448SOL    HW299950  10.507   3.811  12.497  0.2668  0.0653 -2.1170
64449SOL     OW99951   5.243   1.799   8.843 -0.7241 -0.1538  0.3190
64449SOL    HW199952   5.335   1.816   8.823 -0.7041 -1.7416 -1.1289
64449SOL    HW299953   5.245   1.721   8.898 -1.2488 -0.8311 -0.6052
64450SOL     OW99954   6.756   7.765   0.161 -0.4665 -0.3336  0.5686
64450SOL    HW199955   6.825   7.828   0.180 -0.8130  0.3608 -0.3932
64450SOL    HW299956   6.675   7.810   0.183 -0.8890  0.4592 -2.1811
64451SOL     OW99957   8.693   7.478  12.296 -0.7020  0.0843  0.2069
64451SOL    HW199958   8.663   7.483  12.387  0.5436  0.9640  0.6033
64451SOL    HW299959   8.731   7.391  12.288 -0.9622 -0.0569  0.4833
64452SOL     OW99960  12.083   8.002  12.404 -0.0203 -0.4304 -0.0750
64452SOL    HW199961  11.990   7.986  12.415  0.3026 -2.1738  0.4125
64452SOL    HW299962  12.090   8.056  12.325 -1.3744 -0.9053 -0.5313
64453SOL     OW99963  11.436  11.295   8.839  0.4025  0.2571 -0.1981
64453SOL    HW199964  11.382  11.305   8.760 -0.8504  1.4464  0.7545
64453SOL    HW299965  11.475  11.382   8.852  1.1765 -0.1266  0.1005
64454SOL     OW99966  12.385   8.857   8.759 -0.2880  0.1883  0.0784
64454SOL    HW199967  12.383   8.946   8.723 -1.5115  0.5222  0.8886
64454SOL    HW299968  12.317   8.858   8.826  0.1379 -1.1818  0.5471
64455SOL     OW99969   1.539   3.629   6.288  0.3123  0.2421 -0.6135
64455SOL    HW199970   1.572   3.567   6.223  0.5888  0.0037 -0.2433
64455SOL    HW299971   1.594   3.616   6.365 -0.7537 -0.2906  0.0801
64456SOL     OW99972   4.554  11.524   6.149 -0.2948 -0.5407  0.9192
64456SOL    HW199973   4.463  11.553   6.159 -0.5358  0.0233 -1.9510
64456SOL    HW299974   4.606  11.599   6.175 -0.6972 -0.3995  1.3275
64457SOL     OW99975   2.077   9.196   8.114 -0.1322  0.1740 -0.0617
64457SOL    HW199976   2.013   9.267   8.118  0.2357  0.4680  2.9004
64457SOL    HW299977   2.141   9.225   8.049 -1.1021  1.5190 -0.4609
64458SOL     OW99978  11.239   6.999   4.199  0.0152  0.4441  0.2941
64458SOL    HW199979  11.182   6.934   4.240  1.0003 -0.5803  0.0778
64458SOL    HW299980  11.219   6.993   4.105  1.1074 -0.6040  0.0961
64459SOL     OW99981   9.965   6.192   9.980 -0.6388  0.2978  0.2872
64459SOL    HW199982   9.963   6.096   9.980 -2.8012  0.2938  0.2266
64459SOL    HW299983   9.966   6.216   9.887  1.6305  0.3686  0.2954
64460SOL     OW99984  12.255   4.609   0.387  0.2642  0.2869 -0.2367
64460SOL    HW199985  12.220   4.542   0.446  0.1630 -0.3230 -0.9702
64460SOL    HW299986  12.177   4.650   0.349  0.3306  0.3358 -0.3206
64461SOL     OW99987  11.518  10.316   1.929  0.4266 -0.0510  0.8015
64461SOL    HW199988  11.492  10.227   1.953 -1.3415  0.6122  1.5321
64461SOL    HW299989  11.611  10.310   1.910  0.3429 -2.0535  0.8356
64462SOL     OW99990   3.658   8.185  11.838  0.3677  0.2695 -0.0438
64462SOL    HW199991   3.585   8.240  11.866 -0.9828 -0.5321 -1.7642
64462SOL    HW299992   3.619   8.125  11.774  2.2937 -1.0421 -0.0610
64463SOL     OW99993   9.024   4.030   5.818  0.1475 -0.3462  0.4402
64463SOL    HW199994   9.089   3.986   5.873 -0.1837 -1.9293 -0.3508
64463SOL    HW299995   9.005   3.966   5.749 -0.2143  1.1599 -0.9149
64464SOL     OW99996  12.437   1.837   9.805  0.1161 -0.1012  0.1225
64464SOL    HW199997  12.371   1.778   9.769  1.5333 -0.9646 -1.1425
64464SOL    HW299998  12.427   1.828   9.900 -1.5353 -0.2289 -0.0307
64465SOL     OW99999   4.852   8.729   2.855  0.4734 -0.0175 -0.0790
64465SOL    HW1    0   4.763   8.705   2.880  1.0787 -0.4164  1.9281
64465SOL    HW2    1   4.899   8.735   2.939  2.4051 -0.1521 -1.1044
64466SOL     OW    2   5.136  12.718   3.613  0.6021  0.1534  0.6931
64466SOL    HW1    3   5.042  12.725   3.632  0.7622 -0.6139  1.8739
64466SOL    HW2    4   5.154  12.624   3.617  1.4183  0.2957  0.4428
64467SOL     OW    5   2.436   2.253   5.809  0.1003  0.0808  0.0483
64467SOL    HW1    6   2.518   2.287   5.774  0.8230  1.2012  2.6630
64467SOL    HW2    7   2.370   2.280   5.744  1.3869  1.8455 -0.6059
64468SOL     OW    8   1.581   8.697   9.502 -0.3044  0.3675 -0.1638
64468SOL    HW1    9   1.488   8.702   9.521 -0.0511  0.6263  1.0949
64468SOL    HW2   10   1.614   8.628   9.560  0.3496  0.5384 -0.3175
64469SOL     OW   11   0.300   3.268   0.386  0.5501  0.2159 -0.4500
64469SOL    HW1   12   0.234   3.291   0.321  1.0848 -1.7889 -1.7739
64469SOL    HW2   13   0.298   3.341   0.448 -3.5945 -0.1669  0.1499
64470SOL     OW   14   5.838   4.134   3.322 -0.3524 -0.2958  0.8409
64470SOL    HW1   15   5.867   4.103   3.236 -0.6120  1.1352  0.2098
64470SOL    HW2   16   5.744   4.118   3.322 -0.5428  0.7619  0.3770
64471SOL     OW   17  11.892   5.045   9.669  0.0302 -0.4819  0.5790
64471SOL    HW1   18  11.872   5.135   9.643  0.6256 -1.1052 -2.4867
64471SOL    HW2   19  11.983   5.032   9.641 -0.0962 -2.0701  0.8013
64472SOL     OW   20   9.909   5.494  12.105 -0.3110 -0.6358 -0.1401
64472SOL    HW1   21   9.911   5.434  12.179 -0.0916 -1.1973 -0.5907
64472SOL    HW2   22   9.872   5.575  12.140  0.1360 -0.7700  0.6699
64473SOL     OW   23   3.125  11.382  10.117  0.2029 -0.3721 -0.3609
64473SOL    HW1   24   3.040  11.387  10.161  0.8825  0.4793  0.8836
64473SOL    HW2   25   3.117  11.441  10.042 -0.6268 -1.0691 -0.8378
64474SOL     OW   26   1.976   5.980   5.450 -0.1887 -0.4019 -0.0682
64474SOL    HW1   27   1.947   6.066   5.419 -1.1749 -0.1893  1.3447
64474SOL    HW2   28   2.046   5.999   5.512 -2.3376 -0.2983  2.5417
64475SOL     OW   29   7.691  10.124   1.186 -0.0642 -0.4131  0.0393
64475SOL    HW1   30   7.719  10.053   1.129  1.7581  0.8019 -0.6570
64475SOL    HW2   31   7.597  10.109   1.198  0.1774 -2.7032 -0.3669
64476SOL     OW   32   7.057   3.810   2.658  1.0285 -0.0011  0.2363
64476SOL    HW1   33   7.085   3.901   2.652  1.5386 -0.1350  0.5584
64476SOL    HW2   34   7.069   3.787   2.750  1.1302 -0.4700  0.1090
64477SOL     OW   35   0.444   2.124   6.704 -0.0260  0.3695  0.1677
64477SOL    HW1   36   0.536   2.097   6.710 -0.0252  0.2488 -0.3110
64477SOL    HW2   37   0.430   2.178   6.782  1.0071  2.0218 -0.7116
64478SOL     OW   38   9.683   5.577  10.285 -0.1985  0.0886  0.0040
64478SOL    HW1   39   9.673   5.519  10.361 -0.1225 -0.0907 -0.1225
64478SOL    HW2   40   9.601   5.568  10.237  0.7477 -1.9309 -1.4112
64479SOL     OW   41   3.999   4.297   5.588  0.3086 -0.6874 -0.4134
64479SOL    HW1   42   3.963   4.332   5.670 -0.5568 -3.1689  0.3500
64479SOL    HW2   43   4.025   4.375   5.538 -0.0641  0.9388  1.7812
64480SOL     OW   44   2.503  11.336   6.259 -0.3290 -0.2027 -0.7991
64480SOL    HW1   45   2.558  11.315   6.334 -1.3154  0.0416  0.0131
64480SOL    HW2   46   2.432  11.272   6.262  0.9700 -1.9026 -3.0660
64481SOL     OW   47   4.142   3.608   5.280 -0.0636 -0.2750 -0.6201
64481SOL    HW1   48   4.132   3.702   5.267  1.9424  0.3513  1.8014
64481SOL    HW2   49   4.068   3.583   5.335  1.3687  0.7186  1.9114
64482SOL     OW   50   2.325   8.310   7.058  0.1635  0.0844  0.1586
64482SOL    HW1   51   2.305   8.381   6.997 -0.6430 -0.8446 -0.7002
64482SOL    HW2   52   2.420   8.316   7.072  0.2441  0.7690 -0.6099
64483SOL     OW   53  12.651   3.870   7.991 -0.1533 -0.0334  0.4840
64483SOL    HW1   54  12.617   3.960   8.000  0.4642  0.2080  0.4260
64483SOL    HW2   55  12.744   3.881   7.971 -0.3431 -0.6725 -0.8256
64484SOL     OW   56   6.038   7.059   9.913 -0.3059  0.3033 -1.1254
64484SOL    HW1   57   6.071   7.093   9.996 -1.7905 -1.0768  0.0976
64484SOL    HW2   58   6.060   6.965   9.915 -1.4979 -0.0062 -1.7003
64485SOL     OW   59   8.889   1.659   3.810 -0.0853 -0.8010  0.5472
64485SOL    HW1   60   8.815   1.691   3.759  0.0259  0.6157  1.2070
64485SOL    HW2   61   8.850   1.609   3.881 -0.3380 -1.2096  0.1192
64486SOL     OW   62   5.200   1.882   9.772  0.3477 -0.1932  0.4263
64486SOL    HW1   63   5.151   1.844   9.699 -3.9235  2.1286  1.7248
64486SOL    HW2   64   5.246   1.956   9.734 -2.0299  1.1517 -0.0591
64487SOL     OW   65   2.834   4.603  10.698 -0.4588  0.1184  0.3584
64487SOL    HW1   66   2.828   4.610  10.603 -0.4971 -0.3903  0.3206
64487SOL    HW2   67   2.872   4.686  10.726 -0.4500  0.2701 -0.1023
64488SOL     OW   68   0.759   3.285  10.031 -0.1336 -0.3241  0.4587
64488SOL    HW1   69   0.826   3.345  10.062  0.4079  0.0383 -1.2776
64488SOL    HW2   70   0.801   3.237   9.960 -1.1391 -1.4328  0.5857
64489SOL     OW   71  10.625   9.145   0.001  0.9537  0.0742  0.5903
64489SOL    HW1   72  10.618   9.104  -0.085 -1.1615  0.4172  0.5459
64489SOL    HW2   73  10.677   9.224  -0.014  1.6155 -0.4771 -0.1106
64490SOL     OW   74   5.451   8.599   6.202  0.4656  0.4521 -0.6843
64490SOL    HW1   75   5.453   8.693   6.220  1.2383  0.3767 -0.3250
64490SOL    HW2   76   5.382   8.588   6.137 -0.8616  1.0345  0.5691
64491SOL     OW   77   8.495   6.281   8.458 -0.1086 -0.0249  0.0411
64491SOL    HW1   78   8.578   6.285   8.411 -0.9199  0.7589 -1.4148
64491SOL    HW2   79   8.481   6.370   8.491 -0.5824 -0.0178 -0.1596
64492SOL     OW   80   1.588   4.908   6.083 -0.3798 -0.4112  0.7146
64492SOL    HW1   81   1.558   4.990   6.122  0.4087 -0.2076  0.9111
64492SOL    HW2   82   1.667   4.885   6.133 -0.4475 -1.1564  0.4935
64493SOL     OW   83   7.179   0.654   9.574 -0.4082 -0.0945  0.4448
64493SOL    HW1   84   7.144   0.687   9.657 -0.5923  2.8401 -0.6629
64493SOL    HW2   85   7.153   0.720   9.510  0.1043 -2.0429 -1.9062
64494SOL     OW   86   0.368   6.622   9.946  0.0991  0.0143  0.1282
64494SOL    HW1   87   0.352   6.680   9.871 -0.5348 -1.6834 -1.0954
64494SOL    HW2   88   0.302   6.649  10.010 -0.4962  0.3388 -0.5995
64495SOL     OW   89   9.417   0.219   8.483  0.3761  0.0696 -0.2054
64495SOL    HW1   90   9.329   0.244   8.457 -0.0373  1.1781  2.0317
64495SOL    HW2   91   9.463   0.204   8.401 -1.9920 -0.9656 -1.4111
64496SOL     OW   92   7.401   3.279   9.773 -0.1197  0.0749  0.1887
64496SOL    HW1   93   7.354   3.339   9.831 -0.5142  0.7204 -0.7768
64496SOL    HW2   94   7.493   3.307   9.779 -0.3006  0.7683 -0.2442
64497SOL     OW   95   0.250   2.047   7.917  0.3400  0.2853  0.4502
64497SOL    HW1   96   0.283   2.089   7.997 -0.9045 -0.4297  1.3765
64497SOL    HW2   97   0.156   2.060   7.921  0.1189 -1.0385 -0.1524
64498SOL     OW   98   6.397   5.908   4.789  0.0828  1.0100 -0.5638
64498SOL    HW1   99   6.415   5.825   4.834 -0.4014  1.1871 -0.0340
64498SOL    HW2  100   6.453   5.906   4.712 -1.3280 -0.6660 -1.6091
64499SOL     OW  101   8.192   4.315  10.100 -0.1439  0.7445  0.0679
64499SOL    HW1  102   8.191   4.305  10.005  0.1380 -0.1004  0.1452
64499SOL    HW2  103   8.108   4.355  10.122 -0.5115  0.2643 -0.4625
64500SOL     OW  104   1.142   6.520   5.903  0.3610  0.2057  0.2959
64500SOL    HW1  105   1.081   6.592   5.884  2.3708  1.1893 -3.4764
64500SOL    HW2  106   1.229   6.559   5.896  1.5979 -2.6027 -3.1380
64501SOL     OW  107   7.766   9.584   2.823 -0.7905  0.3124  0.1679
64501SOL    HW1  108   7.833   9.649   2.845  0.3604 -0.3657 -1.1423
64501SOL    HW2  109   7.815   9.507   2.795 -2.1029  0.0026 -1.4627
64502SOL     OW  110   6.750   8.383   8.127  0.1016  0.1157  0.3288
64502SOL    HW1  111   6.823   8.335   8.167  1.0076  0.5088 -0.7963
64502SOL    HW2  112   6.679   8.318   8.123  1.4191 -1.3549 -1.5226
64503SOL     OW  113   2.638  11.584   1.769  0.0409 -0.2462  0.0078
64503SOL    HW1  114   2.673  11.622   1.688 -0.0752  0.5838  0.3279
64503SOL    HW2  115   2.673  11.495   1.771 -1.4408 -0.9234 -1.8538
64504SOL     OW  116   7.580   0.817   9.303 -0.3644  0.0592  0.3757
64504SOL    HW1  117   7.493   0.783   9.324 -0.4034 -0.3749 -0.4490
64504SOL    HW2  118   7.640   0.760   9.351 -0.5552  0.9583  1.7323
64505SOL     OW  119   2.042  10.629   9.453  0.2355  0.4344 -0.5114
64505SOL    HW1  120   2.128  10.605   9.418  0.5650 -0.6828  1.0130
64505SOL    HW2  121   2.005  10.547   9.484 -1.8132  0.7382 -1.9655
64506SOL     OW  122   0.072   1.137   3.662 -0.0643 -0.1305 -0.3838
64506SOL    HW1  123   0.043   1.139   3.570 -1.2112  1.1627 -0.0225
64506SOL    HW2  124   0.017   1.202   3.706  1.6436  0.5126  0.8880
64507SOL     OW  125  12.502   0.973   4.209  0.1775  0.7299 -0.3286
64507SOL    HW1  126  12.545   0.990   4.293  0.9051  0.7736 -0.7007
64507SOL    HW2  127  12.519   1.051   4.156  0.3621  0.3963 -0.7699
64508SOL     OW  128  12.220   0.115   6.812  0.4006 -0.0617  0.1780
64508SOL    HW1  129  12.217   0.167   6.731 -0.2155 -0.5586 -0.1289
64508SOL    HW2  130  12.305   0.071   6.809  0.8587  0.7816  0.3584
64509SOL     OW  131   6.511   2.363   2.505  0.1763  0.3102 -0.4112
64509SOL    HW1  132   6.520   2.268   2.512 -0.6192  0.2326 -0.3439
64509SOL    HW2  133   6.464   2.389   2.584 -0.7865  0.5803 -1.0543
64510SOL     OW  134   0.836   9.669   9.050 -0.3615  0.4478  0.0380
64510SOL    HW1  135   0.853   9.619   9.130  0.7280 -0.6325 -0.8111
64510SOL    HW2  136   0.843   9.760   9.076  1.7019  0.1132  0.8691
64511SOL     OW  137   7.896   2.712   4.477  0.5258 -0.1902 -0.1888
64511SOL    HW1  138   7.852   2.788   4.441 -0.7544 -0.5347  0.5760
64511SOL    HW2  139   7.962   2.748   4.536 -1.2019  0.3826  1.4998
64512SOL     OW  140   0.061  11.210   7.110 -0.2303  0.0139 -0.1161
64512SOL    HW1  141   0.012  11.147   7.162 -0.8917 -0.2788 -1.0723
64512SOL    HW2  142   0.144  11.165   7.090 -0.2700 -0.1448  0.0715
64513SOL     OW  143  11.935   7.100  11.401  0.3765 -0.3068 -0.5000
64513SOL    HW1  144  11.953   7.047  11.478 -0.3249 -1.0658 -0.8420
64513SOL    HW2  145  11.941   7.191  11.431  0.3923 -0.5940  0.3720
64514SOL     OW  146   3.053   8.813   6.805 -0.0052  0.2531  0.0624
64514SOL    HW1  147   3.012   8.827   6.719 -1.5596 -0.8376  0.5794
64514SOL    HW2  148   3.027   8.891   6.856 -0.3008  0.2159 -0.0287
64515SOL     OW  149   4.492   1.187   7.826 -0.2746 -0.1713 -0.1544
64515SOL    HW1  150   4.557   1.118   7.838  0.5087  0.6509  0.4377
64515SOL    HW2  151   4.485   1.197   7.731  0.9016  0.1196 -0.2276
64516SOL     OW  152   4.351  11.740   9.107  0.0228  0.2859 -0.4306
64516SOL    HW1  153   4.321  11.653   9.080 -0.7067  0.6555 -0.8637
64516SOL    HW2  154   4.398  11.725   9.188  0.3097 -0.5741 -0.7399
64517SOL     OW  155  11.171   8.205   6.153  0.0460 -0.0392 -0.1436
64517SOL    HW1  156  11.097   8.193   6.211 -0.4855 -1.2081 -1.0248
64517SOL    HW2  157  11.177   8.124   6.103  1.2605  0.4377 -0.8408
64518SOL     OW  158   2.780   3.840   7.708 -0.1713  0.8029  0.1430
64518SOL    HW1  159   2.791   3.747   7.689 -1.0930  0.7395 -0.1290
64518SOL    HW2  160   2.829   3.854   7.789  1.2727  0.4220 -0.6325
64519SOL     OW  161   8.536  10.092   1.501  0.0143 -0.5536 -0.2886
64519SOL    HW1  162   8.495  10.029   1.559 -1.4732 -0.6147 -1.3629
64519SOL    HW2  163   8.464  10.130   1.451  1.1031  0.4851 -1.1357
64520SOL     OW  164  12.045   1.230   3.832  0.1438  0.2830  0.1187
64520SOL    HW1  165  12.103   1.219   3.757 -1.1637  1.0697 -1.0385
64520SOL    HW2  166  12.031   1.324   3.839  0.4651  0.2496  1.5441
64521SOL     OW  167   8.944   3.835   9.270  0.3688 -0.4610 -0.0202
64521SOL    HW1  168   8.918   3.743   9.264 -1.6744 -0.0191  1.2627
64521SOL    HW2  169   8.863   3.883   9.285  1.1551  1.7892 -2.2241
64522SOL     OW  170   0.995   4.041  11.169 -0.0490 -0.0955 -0.1416
64522SOL    HW1  171   0.937   4.019  11.242  0.2851 -0.8598 -0.0981
64522SOL    HW2  172   1.031   4.127  11.192 -0.3107 -0.1151  0.3619
64523SOL     OW  173   1.056  10.189   1.481 -0.2743  0.5536  0.1531
64523SOL    HW1  174   1.046  10.112   1.536 -0.5466 -0.2460 -0.9751
64523SOL    HW2  175   0.970  10.203   1.442 -0.4066  1.8505  0.8595
64524SOL     OW  176  11.838   0.751   0.694 -0.3584 -0.0423 -0.4223
64524SOL    HW1  177  11.925   0.723   0.723 -0.4457  0.5164  0.4464
64524SOL    HW2  178  11.846   0.759   0.599  0.5350 -0.0246 -0.3605
64525SOL     OW  179   2.811   4.288  12.128  0.3410 -0.4150 -0.3499
64525SOL    HW1  180   2.856   4.295  12.044 -1.4554 -0.9379 -1.3987
64525SOL    HW2  181   2.882   4.278  12.192  1.7391 -0.2088 -1.8018
64526SOL     OW  182   9.079  12.474   8.626 -0.2927 -0.5541  0.1135
64526SOL    HW1  183   9.022  12.544   8.658 -0.2549 -0.1748 -0.6332
64526SOL    HW2  184   9.160  12.484   8.675 -0.8347 -1.0523  1.1333
64527SOL     OW  185   1.213   2.876   7.150  0.4679  0.0698  0.1983
64527SOL    HW1  186   1.119   2.865   7.166  0.1515  3.1496  1.1609
64527SOL    HW2  187   1.217   2.923   7.067  0.9923  1.4625  0.9750
64528SOL     OW  188   1.229  10.153   6.663  0.0817  0.0462 -0.4866
64528SOL    HW1  189   1.323  10.139   6.656  0.1202  0.8636 -2.2353
64528SOL    HW2  190   1.216  10.244   6.636 -1.2980 -0.4345 -1.5917
64529SOL     OW  191   7.774  11.484   4.894 -0.7112  0.6029  0.0916
64529SOL    HW1  192   7.790  11.391   4.914 -1.0330  0.7484  1.1049
64529SOL    HW2  193   7.753  11.486   4.801 -0.7601 -0.3514  0.0749
64530SOL     OW  194   2.868   9.746   2.358  0.3224  0.0137  0.4509
64530SOL    HW1  195   2.913   9.815   2.308  0.1571  0.1410  0.4771
64530SOL    HW2  196   2.902   9.664   2.322 -0.5180  0.0895 -0.5393
64531SOL     OW  197   8.695   4.329  11.578  0.1192 -0.3426 -0.5461
64531SOL    HW1  198   8.748   4.256  11.611 -0.4217 -1.1696 -1.4311
64531SOL    HW2  199   8.609   4.289  11.563 -1.0859  1.1572  1.7421
64532SOL     OW  200   5.956   8.357   7.129 -0.2316 -0.3423  0.1795
64532SOL    HW1  201   5.924   8.344   7.040  0.4550  2.3753 -0.5691
64532SOL    HW2  202   5.876   8.366   7.181 -0.6493 -2.4920  0.0200
64533SOL     OW  203   2.863   1.638   4.949  0.2715  0.0793 -0.6469
64533SOL    HW1  204   2.950   1.653   4.913  0.6091 -0.7015 -0.1671
64533SOL    HW2  205   2.859   1.692   5.027 -0.4379  1.7265 -1.7715
64534SOL     OW  206   1.295   8.793   4.242  0.1252 -0.0000  0.1681
64534SOL    HW1  207   1.207   8.775   4.274 -0.2849 -0.5389 -1.1791
64534SOL    HW2  208   1.302   8.888   4.241 -1.4889  0.1782 -2.2831
64535SOL     OW  209  12.328   7.690   4.446  0.4398 -0.1122  0.0331
64535SOL    HW1  210  12.321   7.598   4.419  0.7170 -0.7249  1.9298
64535SOL    HW2  211  12.239   7.724   4.436  0.2782 -0.6509 -0.4418
64536SOL     OW  212   3.358   8.401   5.830 -0.2745 -0.5233 -0.7547
64536SOL    HW1  213   3.436   8.360   5.867  0.3016  0.2290 -1.1133
64536SOL    HW2  214   3.297   8.328   5.815  0.5870 -1.2005 -1.0279
64537SOL     OW  215   9.261   4.377   5.682 -0.0227  0.5335  0.5340
64537SOL    HW1  216   9.204   4.328   5.622 -0.3060  0.7127  0.6531
64537SOL    HW2  217   9.203   4.443   5.721  0.3698  1.0103  0.3178
64538SOL     OW  218   4.935  12.077  11.383 -0.0794 -0.4412 -0.1795
64538SOL    HW1  219   5.009  12.118  11.339 -0.5535 -0.3801 -0.9224
64538SOL    HW2  220   4.863  12.139  11.373 -0.3900 -0.7634  0.0290
64539SOL     OW  221   4.795   2.638   1.249 -0.1547  0.6607 -0.2473
64539SOL    HW1  222   4.820   2.728   1.269 -0.8184  0.4445  1.7507
64539SOL    HW2  223   4.858   2.609   1.183  2.4007  1.4109  1.7106
64540SOL     OW  224   7.242   1.519   0.287 -0.5344 -0.6336 -0.8607
64540SOL    HW1  225   7.273   1.553   0.370 -0.8734 -0.8935 -0.6274
64540SOL    HW2  226   7.175   1.454   0.310 -1.9316  0.5734 -1.3817
64541SOL     OW  227   2.532   6.261   6.780  0.3360 -0.1424 -0.1570
64541SOL    HW1  228   2.577   6.257   6.864 -1.1345  0.9424  0.7153
64541SOL    HW2  229   2.599   6.291   6.718  1.2781 -0.3640  0.7406
64542SOL     OW  230   7.214  11.942   3.491  0.6371  0.8575 -0.3002
64542SOL    HW1  231   7.221  11.869   3.429  1.1163  0.1943  0.5046
64542SOL    HW2  232   7.249  12.017   3.445 -0.0733  0.6318 -1.2328
64543SOL     OW  233  11.248  12.607  12.188  0.4602  0.1076  0.1038
64543SOL    HW1  234  11.280  12.522  12.216  0.3051  0.0301  0.0482
64543SOL    HW2  235  11.325  12.653  12.155  0.0885 -1.1807 -2.8930
64544SOL     OW  236   9.144   9.304   6.127 -0.0381  0.2855  0.4304
64544SOL    HW1  237   9.233   9.340   6.133  0.1457  0.0711 -0.7314
64544SOL    HW2  238   9.153   9.214   6.158  0.6042 -0.3806 -1.5014
64545SOL     OW  239   7.084   1.383   1.544  0.3995 -0.3425  0.4809
64545SOL    HW1  240   7.144   1.324   1.590 -0.2976 -0.0457  1.8301
64545SOL    HW2  241   7.005   1.384   1.598 -0.0229  0.9385 -0.1190
64546SOL     OW  242   5.127   8.920   7.023 -0.4937  0.6213 -0.6276
64546SOL    HW1  243   5.193   8.871   7.073 -0.9042  0.0386 -0.6491
64546SOL    HW2  244   5.044   8.883   7.052 -0.9496  2.5205  0.7135
64547SOL     OW  245   8.267  11.026  10.494 -0.2772  0.1095  0.5150
64547SOL    HW1  246   8.333  10.963  10.520  0.3773  0.7741  0.4914
64547SOL    HW2  247   8.285  11.045  10.402  0.9638  1.9945  1.0795
64548SOL     OW  248   1.303  11.409   1.415  0.2064 -0.2579 -0.4738
64548SOL    HW1  249   1.214  11.409   1.451 -0.2815 -2.2467 -1.5530
64548SOL    HW2  250   1.344  11.332   1.454  0.6356 -0.7323 -1.8054
64549SOL     OW  251   3.976   7.649   4.293 -0.7741 -0.3790  0.2573
64549SOL    HW1  252   4.021   7.649   4.209 -1.2618  1.3700 -0.0633
64549SOL    HW2  253   3.884   7.660   4.271 -1.2303 -2.4569  0.9565
64550SOL     OW  254   2.789   1.765   1.284  0.5127  0.4744  0.2473
64550SOL    HW1  255   2.773   1.780   1.191  1.0237  1.4111  0.2964
64550SOL    HW2  256   2.852   1.694   1.287  0.1619  0.1435 -0.1001
64551SOL     OW  257   1.243   5.105   8.195 -0.0651  0.1404 -0.0424
64551SOL    HW1  258   1.223   5.048   8.121 -1.8447  1.6883 -0.8477
64551SOL    HW2  259   1.280   5.183   8.155  0.9862  0.1481  0.9096
64552SOL     OW  260  10.982   5.888   1.693 -0.6274  0.2916 -0.7394
64552SOL    HW1  261  10.904   5.833   1.682  0.3251 -1.3718  0.3472
64552SOL    HW2  262  10.952   5.962   1.745 -1.8386  0.5748 -1.7851
64553SOL     OW  263  12.228   1.625  11.689  1.0912  0.0085  0.4274
64553SOL    HW1  264  12.237   1.531  11.676  1.8608 -0.4604  3.4413
64553SOL    HW2  265  12.313   1.653  11.723  1.3051  2.0935 -1.5661
64554SOL     OW  266   7.806   9.347   5.858 -0.3988  0.5476  0.1612
64554SOL    HW1  267   7.720   9.363   5.819  0.3592  1.3706 -1.2623
64554SOL    HW2  268   7.809   9.404   5.935 -1.8401 -0.9507  1.3923
64555SOL     OW  269  11.353   8.879   5.590  0.3729 -0.2428 -0.4316
64555SOL    HW1  270  11.425   8.924   5.634 -0.1420  0.9166 -0.7445
64555SOL    HW2  271  11.344   8.924   5.506  0.2910 -1.3937 -1.0583
64556SOL     OW  272   2.897   5.947   0.324 -0.3073 -0.3588  0.6095
64556SOL    HW1  273   2.990   5.942   0.303  0.0621  2.6325  1.0623
64556SOL    HW2  274   2.854   5.901   0.251  1.4256 -0.1309 -0.6359
64557SOL     OW  275   0.496   7.422  10.475 -0.0014 -0.2567  0.2005
64557SOL    HW1  276   0.583   7.398  10.442 -0.3801 -0.5581 -0.6112
64557SOL    HW2  277   0.474   7.352  10.537  0.5612  0.1175  0.8360
64558SOL     OW  278   9.190  12.775  10.391 -0.0145 -0.2531 -0.0561
64558SOL    HW1  279   9.200  12.799  10.483  2.0065 -1.1405  0.0222
64558SOL    HW2  280   9.146  12.690  10.392  0.9076 -0.7442  0.1808
64559SOL     OW  281   5.114   5.466  11.985 -0.4267  0.1801  0.1692
64559SOL    HW1  282   5.114   5.491  12.077  1.3638 -1.0712  0.5492
64559SOL    HW2  283   5.126   5.371  11.986  1.4926  0.3435 -1.3409
64560SOL     OW  284  11.915  10.582  11.498 -0.1954 -0.3430 -0.1901
64560SOL    HW1  285  12.006  10.610  11.506 -0.0392 -0.2233 -2.0629
64560SOL    HW2  286  11.918  10.488  11.515  0.3326 -0.3923 -0.5211
64561SOL     OW  287   0.737  10.746  12.515  0.1498  0.4644  0.2154
64561SOL    HW1  288   0.695  10.823  12.478 -1.9445 -0.1117  1.2317
64561SOL    HW2  289   0.782  10.705  12.441 -1.0762  1.1340 -0.9430
64562SOL     OW  290   6.145   4.918   6.606  0.3378  0.0685  0.3518
64562SOL    HW1  291   6.095   4.858   6.550 -0.0928 -0.6821  1.4959
64562SOL    HW2  292   6.080   4.959   6.662  0.6857  1.3308 -0.1336
64563SOL     OW  293   4.762   0.998   1.419 -0.0143 -0.4188  0.2221
64563SOL    HW1  294   4.809   0.999   1.336  0.9106 -1.0867  0.7221
64563SOL    HW2  295   4.680   0.951   1.400 -0.9156  1.4554 -0.8460
64564SOL     OW  296   7.165   9.203   9.353 -0.5248 -0.4188 -0.2788
64564SOL    HW1  297   7.173   9.124   9.407  1.4110 -0.2314 -0.2402
64564SOL    HW2  298   7.089   9.249   9.389 -0.0284 -0.9076  1.4885
64565SOL     OW  299   5.515   4.678  10.093  0.2263  0.2121 -0.0958
64565SOL    HW1  300   5.467   4.599  10.069 -1.1282  1.1256 -0.4930
64565SOL    HW2  301   5.511   4.734  10.016 -0.4687  1.4333  0.8007
64566SOL     OW  302  11.153   7.088  12.164 -0.0306  0.1589 -0.1521
64566SOL    HW1  303  11.227   7.147  12.153 -0.5550  1.0165  0.7313
64566SOL    HW2  304  11.153   7.067  12.258  1.5569 -3.1853 -0.7333
64567SOL     OW  305  10.873   4.873   0.739 -0.0696  0.1669 -0.6035
64567SOL    HW1  306  10.783   4.886   0.767 -0.0082  0.7819 -0.6786
64567SOL    HW2  307  10.877   4.913   0.652 -0.3448 -1.9990 -1.6731
64568SOL     OW  308   7.480   8.598   2.400  0.1426 -1.1166  0.3643
64568SOL    HW1  309   7.561   8.617   2.354 -0.1586 -0.2466  0.1709
64568SOL    HW2  310   7.415   8.654   2.358 -0.6725 -2.1893  0.1698
64569SOL     OW  311  11.876   6.673   8.390  0.3235  0.3388 -0.1531
64569SOL    HW1  312  11.970   6.676   8.372  0.3192  0.2140 -0.1935
64569SOL    HW2  313  11.834   6.696   8.307  0.3344  1.4546  0.1253
64570SOL     OW  314   2.072   7.583   2.840  0.0581  0.5328  0.2053
64570SOL    HW1  315   2.089   7.512   2.901  1.4441  0.2219 -0.4998
64570SOL    HW2  316   2.094   7.663   2.889  0.5403  0.3263  0.3361
64571SOL     OW  317   6.358   2.123   4.528  0.2466  0.1676 -0.1823
64571SOL    HW1  318   6.291   2.188   4.504  0.0705 -0.0484 -0.2720
64571SOL    HW2  319   6.330   2.089   4.613  0.4113  0.3045 -0.0716
64572SOL     OW  320   1.471   6.921   7.691 -0.6802 -0.7325 -0.3019
64572SOL    HW1  321   1.447   7.012   7.708  0.6588 -0.2156 -1.0427
64572SOL    HW2  322   1.494   6.920   7.598  0.7738 -1.4884  0.0434
64573SOL     OW  323   4.052  11.081   0.042 -0.2030  0.5324 -0.3595
64573SOL    HW1  324   3.990  11.015   0.012  0.8818 -1.4247  1.4288
64573SOL    HW2  325   4.069  11.135  -0.036 -1.3606 -1.1166 -1.8352
64574SOL     OW  326  11.547   7.136   0.699  0.2442 -0.1559  0.0587
64574SOL    HW1  327  11.475   7.129   0.636 -0.1497 -1.6033  0.6209
64574SOL    HW2  328  11.554   7.229   0.718 -3.0521 -0.1495  1.7531
64575SOL     OW  329   7.851   8.017   3.817 -0.2556 -0.0151 -0.4554
64575SOL    HW1  330   7.943   8.036   3.797  0.1011 -1.4824 -0.3291
64575SOL    HW2  331   7.810   8.103   3.824  1.0718  0.6675 -0.6741
64576SOL     OW  332   2.497   0.744   5.976 -0.0078 -0.0848  0.2367
64576SOL    HW1  333   2.441   0.820   5.961  1.6776  1.3486  0.9150
64576SOL    HW2  334   2.551   0.737   5.898  1.5745  1.0051  1.1814
64577SOL     OW  335   7.768   3.584  11.274 -0.3075 -0.2455  0.8473
64577SOL    HW1  336   7.681   3.607  11.306 -0.7808  0.3057 -0.7729
64577SOL    HW2  337   7.825   3.653  11.307 -0.5739 -0.2970  1.4298
64578SOL     OW  338   6.922   2.967   2.937  0.1121 -0.2961  0.4291
64578SOL    HW1  339   7.002   2.994   2.982 -0.3770  0.4646  0.8560
64578SOL    HW2  340   6.864   3.042   2.944 -0.2683 -0.4419 -0.8125
64579SOL     OW  341  11.955   9.173   2.708 -0.2770 -0.5173  0.7675
64579SOL    HW1  342  11.933   9.084   2.682 -2.6562  0.5667 -1.3699
64579SOL    HW2  343  12.039   9.190   2.665 -0.4766 -1.2891  0.0349
64580SOL     OW  344   5.043  10.140   5.885 -0.1522  0.5069 -0.0948
64580SOL    HW1  345   5.024  10.050   5.861 -0.6915 -0.4140  3.2495
64580SOL    HW2  346   5.129  10.137   5.925 -1.3829  0.7421  2.8454
64581SOL     OW  347   3.222  12.578   9.883 -0.0876  0.0184  0.0746
64581SOL    HW1  348   3.128  12.576   9.867  0.1801 -0.1787 -1.6284
64581SOL    HW2  349   3.244  12.671   9.884 -0.4059  0.1040  1.3580
64582SOL     OW  350   5.527   7.327   9.745  0.0935  0.6951  0.3121
64582SOL    HW1  351   5.489   7.316   9.832  0.1799 -0.5943  0.2009
64582SOL    HW2  352   5.592   7.257   9.738  0.6894  1.2981 -0.4801
64583SOL     OW  353   8.605   0.948  10.606 -0.2400 -0.3292  0.5252
64583SOL    HW1  354   8.658   1.005  10.550  0.9796 -1.6597  0.2831
64583SOL    HW2  355   8.518   0.950  10.566 -0.2558  1.4176  0.5831
64584SOL     OW  356   5.927   1.068  11.830  0.1632 -0.0245 -0.3510
64584SOL    HW1  357   5.914   1.076  11.924  2.1095  1.1237 -0.1375
64584SOL    HW2  358   5.869   1.134  11.792 -0.9390 -0.7655 -0.0397
64585SOL     OW  359  12.350   4.818   6.960  0.1083  0.8092 -0.2771
64585SOL    HW1  360  12.375   4.757   6.891  0.7566  0.3738  0.3372
64585SOL    HW2  361  12.259   4.796   6.980 -0.2138  1.1933 -1.2490
64586SOL     OW  362   0.105   9.344   6.770 -0.1045  0.0381 -0.1052
64586SOL    HW1  363   0.161   9.402   6.720 -2.4442 -0.0199 -3.0451
64586SOL    HW2  364   0.043   9.402   6.814  1.1202  0.0046  1.7617
64587SOL     OW  365   1.541   4.003  10.664  0.1438 -0.2621  0.1065
64587SOL    HW1  366   1.450   4.033  10.667  0.8227  2.0923 -0.6367
64587SOL    HW2  367   1.586   4.067  10.608  2.3083 -1.2102  0.6516
64588SOL     OW  368   9.155  12.682  11.947  0.1645 -0.1677  0.4328
64588SOL    HW1  369   9.234  12.702  11.896  0.1890 -0.3752  0.3887
64588SOL    HW2  370   9.158  12.744  12.020  0.3222 -0.1145  0.3826
64589SOL     OW  371   6.437   2.133   3.286  0.0605 -0.1679 -0.5372
64589SOL    HW1  372   6.362   2.164   3.236 -1.2452  2.1233  2.4852
64589SOL    HW2  373   6.497   2.208   3.289  0.3421 -0.4123  0.7833
64590SOL     OW  374  10.907   4.501  10.505  0.3409  0.1576  0.0263
64590SOL    HW1  375  10.953   4.525  10.424 -0.4261 -1.6805 -0.9979
64590SOL    HW2  376  10.893   4.407  10.498 -2.6364  0.4620  0.7756
64591SOL     OW  377   0.119   0.512   0.802 -1.1080  0.3429 -0.3670
64591SOL    HW1  378   0.188   0.579   0.799  0.0308 -0.8315 -1.7391
64591SOL    HW2  379   0.063   0.533   0.727 -1.1210  0.1330 -0.4147
64592SOL     OW  380  11.750  12.380   1.889 -0.1321 -0.2613  0.3892
64592SOL    HW1  381  11.711  12.467   1.883 -1.1143 -0.6718  0.7603
64592SOL    HW2  382  11.837  12.390   1.850 -1.0380  0.3786 -1.5563
64593SOL     OW  383  12.719  10.229   4.387  1.1563 -0.2916  0.2183
64593SOL    HW1  384  12.706  10.219   4.481  1.8476 -2.2018  0.1527
64593SOL    HW2  385  12.760  10.315   4.377  2.1442 -0.5533  1.7903
64594SOL     OW  386   4.417   8.103  12.200 -0.1219  0.6102  0.0489
64594SOL    HW1  387   4.444   8.132  12.287 -1.2092  1.1000  0.2473
64594SOL    HW2  388   4.459   8.163  12.139  0.7360  0.1958  0.2210
64595SOL     OW  389   0.267   3.839   8.259  0.1086 -0.0548  0.5190
64595SOL    HW1  390   0.245   3.746   8.249 -2.0914  0.6398 -2.5585
64595SOL    HW2  391   0.184   3.881   8.280  0.9235  1.3530  1.0785
64596SOL     OW  392   7.498   4.894   2.457 -0.3042 -0.4291  0.3933
64596SOL    HW1  393   7.563   4.825   2.443 -0.4062 -0.6109  0.8080
64596SOL    HW2  394   7.549   4.975   2.456 -0.2590 -0.4590 -0.6456
64597SOL     OW  395   1.398   3.854   4.685  0.3695  0.3479 -0.4450
64597SOL    HW1  396   1.410   3.890   4.598  1.6623 -0.5197 -0.6540
64597SOL    HW2  397   1.324   3.794   4.677  0.3139  0.4714 -0.8697
64598SOL     OW  398   0.378  12.371  11.095 -0.8384  0.0666  0.5192
64598SOL    HW1  399   0.411  12.381  11.184 -1.2915  0.4133  0.6525
64598SOL    HW2  400   0.318  12.296  11.100  1.7056 -2.1909 -0.2386
64599SOL     OW  401  11.305  11.888   2.414 -0.0540 -0.5460  0.8643
64599SOL    HW1  402  11.324  11.929   2.330 -0.5974  0.4311  1.1916
64599SOL    HW2  403  11.233  11.941   2.450  0.1004 -1.0106  1.8900
64600SOL     OW  404   1.041   5.110   6.923 -0.7800  0.2688  0.0019
64600SOL    HW1  405   0.947   5.095   6.927 -0.8382  0.2129 -1.2364
64600SOL    HW2  406   1.080   5.033   6.965 -1.2647 -0.1878 -0.3745
64601SOL     OW  407  10.638  10.377   7.612  0.4084 -0.1132 -0.2585
64601SOL    HW1  408  10.557  10.385   7.562 -1.7926 -2.6938  2.5461
64601SOL    HW2  409  10.664  10.467   7.630 -0.6489  0.8178 -2.8675
64602SOL     OW  410   4.991   5.959   3.258  0.2607  0.7963 -0.3397
64602SOL    HW1  411   4.923   5.923   3.315  0.5175  2.7334  1.3139
64602SOL    HW2  412   4.951   5.959   3.171 -2.0375  2.1272  0.6279
64603SOL     OW  413  11.743   9.213   5.677 -0.3698 -0.0441  0.2065
64603SOL    HW1  414  11.651   9.239   5.687 -0.0914  0.3246  2.2793
64603SOL    HW2  415  11.791   9.295   5.666 -0.1535 -0.1227  0.5318
64604SOL     OW  416   1.775  11.579   5.533 -0.1690  0.1685 -0.0714
64604SOL    HW1  417   1.832  11.617   5.465 -0.1826  1.7006  0.7202
64604SOL    HW2  418   1.688  11.581   5.494  0.1230 -1.1021 -0.8482
64605SOL     OW  419   2.950   6.892   5.245  0.1576  0.2256 -0.4819
64605SOL    HW1  420   3.004   6.848   5.311 -0.1923  2.0310  1.0951
64605SOL    HW2  421   2.997   6.879   5.163  2.2330  0.5100  0.6028
64606SOL     OW  422   8.638   9.015   0.990  0.3473  0.3906  0.0786
64606SOL    HW1  423   8.556   9.060   1.013  0.3509  0.7177 -0.5378
64606SOL    HW2  424   8.620   8.974   0.906  0.3967 -0.6567  0.5565
64607SOL     OW  425  12.195  11.875   2.443 -0.1529  0.0515  0.2241
64607SOL    HW1  426  12.204  11.784   2.474 -0.6062  0.1689  0.7144
64607SOL    HW2  427  12.104  11.882   2.415  0.7301 -0.7333 -3.4043
64608SOL     OW  428   8.705  10.506   6.666  0.0677  0.3580 -0.0681
64608SOL    HW1  429   8.701  10.532   6.758 -1.3699 -1.7299  0.5328
64608SOL    HW2  430   8.618  10.471   6.647  0.7915 -0.6565 -1.7774
64609SOL     OW  431   4.032   0.919   3.053  0.1878 -0.0253 -0.4761
64609SOL    HW1  432   3.986   0.952   3.130 -0.4319 -0.8296 -0.4993
64609SOL    HW2  433   4.124   0.942   3.069  0.0701 -0.1924  0.5033
64610SOL     OW  434  10.317   6.895  10.250  0.4665 -0.3713  0.1526
64610SOL    HW1  435  10.312   6.897  10.346  0.4048  0.6950  0.1389
64610SOL    HW2  436  10.252   6.830  10.224  1.2273 -1.4625  0.8698
64611SOL     OW  437   5.117   0.268   9.248 -0.1734 -0.2463 -0.1223
64611SOL    HW1  438   5.119   0.340   9.311 -0.4800  1.5608 -2.0747
64611SOL    HW2  439   5.160   0.303   9.170 -0.1024 -2.2815 -1.0588
64612SOL     OW  440   3.691   3.168   2.540 -0.0650  0.2549  0.2543
64612SOL    HW1  441   3.764   3.192   2.483  0.9272  0.5243  1.5912
64612SOL    HW2  442   3.628   3.126   2.482  2.4264 -2.8083 -0.5481
64613SOL     OW  443  12.057   5.428   4.123 -0.4151  0.5810  0.6309
64613SOL    HW1  444  11.985   5.481   4.158 -0.4868  1.2232 -0.4734
64613SOL    HW2  445  12.132   5.487   4.121 -0.5405  0.7284 -0.7801
64614SOL     OW  446   4.209   4.797   5.728 -0.3596 -0.5962 -0.2810
64614SOL    HW1  447   4.186   4.706   5.747  1.8429 -0.8693  1.3942
64614SOL    HW2  448   4.278   4.791   5.662 -2.2891  0.0771 -2.5281
64615SOL     OW  449   5.289   8.498   8.543  0.4844 -0.0348 -0.4333
64615SOL    HW1  450   5.249   8.584   8.559  0.8338 -0.0225  0.3977
64615SOL    HW2  451   5.381   8.517   8.528  0.6223 -0.2923  0.0665
64616SOL     OW  452  11.853   3.149   8.623  0.0114  0.0141 -0.3443
64616SOL    HW1  453  11.917   3.183   8.686  0.5241 -0.0941 -0.8033
64616SOL    HW2  454  11.775   3.202   8.638  0.3781  0.5062 -0.1446
64617SOL     OW  455   3.673   0.565   5.776 -0.2321 -0.0375  0.1645
64617SOL    HW1  456   3.733   0.554   5.850  1.8189 -1.5419 -1.5666
64617SOL    HW2  457   3.659   0.660   5.770  0.3272  0.1889  1.8583
64618SOL     OW  458   8.753   3.043   1.326  0.1695  0.3855  0.4023
64618SOL    HW1  459   8.784   3.011   1.411  0.9236 -0.3474 -0.1388
64618SOL    HW2  460   8.799   3.126   1.314 -0.3335  0.7486  0.9376
64619SOL     OW  461   9.703   9.562   5.075 -0.4680  0.1635  0.3407
64619SOL    HW1  462   9.708   9.608   4.991  0.8613 -0.2623  0.1679
64619SOL    HW2  463   9.721   9.470   5.053 -0.1911  0.0364  1.0721
64620SOL     OW  464   3.415   7.736   4.281  0.5504  0.1142 -0.6213
64620SOL    HW1  465   3.334   7.785   4.271  0.2461 -0.1357  0.4866
64620SOL    HW2  466   3.389   7.644   4.272 -0.0005 -0.2648  3.2245
64621SOL     OW  467   8.228  10.348   5.878 -0.3784 -0.1964  0.1072
64621SOL    HW1  468   8.282  10.347   5.957 -0.5743 -0.6339  0.2434
64621SOL    HW2  469   8.200  10.257   5.867  2.6181 -0.9749 -2.5543
64622SOL     OW  470   7.204   0.195  11.132 -0.5677  0.2559  0.1467
64622SOL    HW1  471   7.176   0.231  11.216 -1.2268  0.7513 -0.2702
64622SOL    HW2  472   7.254   0.117  11.155  0.2589  1.0200  1.0437
64623SOL     OW  473   6.740   7.032   7.812  0.2628  0.4538 -0.4903
64623SOL    HW1  474   6.713   7.121   7.833 -2.1694 -0.0306 -1.2127
64623SOL    HW2  475   6.777   7.038   7.724  1.3193  0.9327 -0.0251
64624SOL     OW  476   5.296   2.968   9.617  0.1393  0.2098 -0.4517
64624SOL    HW1  477   5.280   2.894   9.558 -0.1461 -2.0309  2.2533
64624SOL    HW2  478   5.358   3.023   9.569  1.3321 -2.3786 -2.1319
64625SOL     OW  479  11.297   6.634   2.670  0.0113 -0.0360 -0.0269
64625SOL    HW1  480  11.228   6.666   2.729  0.9735 -1.2500  1.8377
64625SOL    HW2  481  11.379   6.661   2.712  0.7345  0.5118 -1.7033
64626SOL     OW  482   5.542   6.863   6.240 -0.1249 -0.3694  0.2015
64626SOL    HW1  483   5.511   6.775   6.262 -0.9925  0.4217  2.4138
64626SOL    HW2  484   5.593   6.891   6.317 -2.0441  2.0060  0.7391
64627SOL     OW  485   3.378   0.958   6.067  0.2402 -0.5605  0.2556
64627SOL    HW1  486   3.361   1.010   5.989  1.4656 -0.6598 -0.1014
64627SOL    HW2  487   3.473   0.967   6.082  0.1486 -1.1180  1.3118
64628SOL     OW  488   3.378   0.321   1.974 -0.5235 -0.2057  0.1420
64628SOL    HW1  489   3.339   0.252   1.921 -0.2970  0.6208 -1.1704
64628SOL    HW2  490   3.315   0.338   2.044 -0.4557 -1.8901  0.6463
64629SOL     OW  491   5.669  10.716   8.406 -0.7851  0.4019 -0.2308
64629SOL    HW1  492   5.609  10.647   8.377  0.7713 -1.4678  0.7933
64629SOL    HW2  493   5.611  10.786   8.437 -2.4235 -0.1233 -1.8993
64630SOL     OW  494   1.877   7.832   8.419 -0.0572  1.0540  0.2372
64630SOL    HW1  495   1.792   7.804   8.452  0.5790 -2.2025 -0.4435
64630SOL    HW2  496   1.859   7.910   8.366 -2.8993 -0.3085 -1.0061
64631SOL     OW  497   7.480   9.744   0.397  0.3143  0.2634 -0.5198
64631SOL    HW1  498   7.464   9.825   0.446  0.8903  0.1755 -0.1874
64631SOL    HW2  499   7.435   9.759   0.313 -2.0359 -0.2102  0.5726
64632SOL     OW  500   3.129   4.654   6.203  1.0017 -0.2676 -0.1244
64632SOL    HW1  501   3.077   4.633   6.280  0.4368 -1.2996 -0.7748
64632SOL    HW2  502   3.188   4.579   6.192  0.2713 -0.7034 -1.3596
64633SOL     OW  503   3.347   7.411  11.255  0.1184 -0.2190  0.6698
64633SOL    HW1  504   3.363   7.482  11.193  1.5605 -0.7467  0.3963
64633SOL    HW2  505   3.372   7.331  11.207  1.0448 -0.6509  1.8180
64634SOL     OW  506   9.781   7.985   6.524 -0.2090  0.2378  0.9409
64634SOL    HW1  507   9.708   7.995   6.585  0.7344  3.6830  1.7478
64634SOL    HW2  508   9.748   8.022   6.442 -0.5447 -1.7933  0.0981
64635SOL     OW  509  11.537   7.867   8.695  0.5031  0.1179 -0.4310
64635SOL    HW1  510  11.496   7.933   8.750  1.2981 -1.3117  2.0607
64635SOL    HW2  511  11.629   7.868   8.721  0.4339 -2.3110  0.1583
64636SOL     OW  512   5.133   5.252   0.110 -0.0677 -0.0676 -0.1722
64636SOL    HW1  513   5.050   5.268   0.065 -0.9128 -3.5543 -0.1011
64636SOL    HW2  514   5.112   5.188   0.178  2.4806 -0.0480  0.7482
64637SOL     OW  515   9.872   7.746  11.287 -0.4036 -0.2324 -0.2585
64637SOL    HW1  516   9.888   7.797  11.367 -0.3535  0.6259 -0.8006
64637SOL    HW2  517   9.875   7.655  11.316 -0.9878  0.0778  0.8305
64638SOL     OW  518   9.288   9.430   7.156  0.0736  0.0423  0.3463
64638SOL    HW1  519   9.331   9.355   7.115  0.2236 -0.0277  0.6277
64638SOL    HW2  520   9.195   9.406   7.159  0.1149 -0.1123  0.3915
64639SOL     OW  521  11.851   6.642   9.176 -0.5310  0.0108 -0.1635
64639SOL    HW1  522  11.879   6.662   9.266  0.1946  1.3445 -0.6453
64639SOL    HW2  523  11.924   6.672   9.122 -0.4115 -1.9470 -1.1532
64640SOL     OW  524   1.468   4.206   5.868  0.0539 -0.9114  0.4399
64640SOL    HW1  525   1.488   4.152   5.791 -1.2366 -0.9935  0.1421
64640SOL    HW2  526   1.400   4.157   5.915 -0.3349 -0.0838  0.7647
64641SOL     OW  527   0.592  12.381   7.288  0.0587  0.5182  0.5337
64641SOL    HW1  528   0.555  12.319   7.351 -1.1335  0.0636 -0.5478
64641SOL    HW2  529   0.672  12.413   7.329  0.0783 -0.8467  1.6415
64642SOL     OW  530   7.020   2.250   4.305 -0.5362  0.4486  0.3080
64642SOL    HW1  531   6.951   2.244   4.372 -0.4465  1.1651  0.4699
64642SOL    HW2  532   6.973   2.276   4.226 -0.9788 -2.3586 -0.4798
64643SOL     OW  533   6.029  11.636  10.883 -0.6766  0.4372  0.0963
64643SOL    HW1  534   5.943  11.670  10.861 -0.7527  1.1869  1.4413
64643SOL    HW2  535   6.039  11.653  10.977  1.5113  1.7464 -0.2837
64644SOL     OW  536   3.334   7.515   2.000  0.0951  0.8717  0.2535
64644SOL    HW1  537   3.253   7.490   2.045  0.5295 -0.0933  0.5162
64644SOL    HW2  538   3.333   7.464   1.919  0.1435  1.3386 -0.0492
64645SOL     OW  539   4.822   0.094  10.423  0.3021 -0.2439  0.2216
64645SOL    HW1  540   4.830   0.029  10.493  0.5132 -0.4565  0.0008
64645SOL    HW2  541   4.843   0.178  10.465  1.8180 -0.5453  0.0984
64646SOL     OW  542  10.014   9.155   5.641 -0.1497 -0.0226 -0.0474
64646SOL    HW1  543  10.072   9.230   5.626 -0.3805  0.1872  0.1047
64646SOL    HW2  544  10.023   9.137   5.735 -2.3344  1.6906  0.5679
64647SOL     OW  545  11.629   6.783   2.378 -0.4208 -0.3617 -0.1832
64647SOL    HW1  546  11.545   6.739   2.364 -0.5056 -0.6177  1.0133
64647SOL    HW2  547  11.686   6.749   2.310 -0.9524 -1.0970 -0.2676
64648SOL     OW  548   4.950   2.245   6.926  0.1901 -0.6601  0.2491
64648SOL    HW1  549   4.918   2.188   6.996 -0.3313 -1.1668 -0.3920
64648SOL    HW2  550   5.032   2.282   6.960 -1.1161  0.8049  2.0049
64649SOL     OW  551   3.320   5.844   0.458  0.7486 -0.3260 -0.2039
64649SOL    HW1  552   3.366   5.768   0.423 -0.2367 -1.1167  0.1385
64649SOL    HW2  553   3.298   5.897   0.382  0.4229 -0.9933 -0.5830
64650SOL     OW  554   8.963   4.804  11.652 -0.2099  0.4045 -0.2712
64650SOL    HW1  555   9.004   4.829  11.735 -0.5031 -0.0210  0.0042
64650SOL    HW2  556   9.026   4.743  11.612 -1.4356 -1.9670  1.1316
64651SOL     OW  557   4.282   0.188   1.890 -0.1534 -0.5820 -0.0996
64651SOL    HW1  558   4.214   0.121   1.890 -1.2176  0.4696 -1.4038
64651SOL    HW2  559   4.284   0.222   1.801 -2.8075  4.1823  1.2634
64652SOL     OW  560   0.182   7.333   6.633  0.6461  0.3766  0.2533
64652SOL    HW1  561   0.252   7.358   6.693  1.4745  0.1581 -0.5937
64652SOL    HW2  562   0.225   7.278   6.567 -0.4583 -0.3523  0.1064
64653SOL     OW  563   8.232  10.785   3.833  0.5637  0.8829 -0.6679
64653SOL    HW1  564   8.164  10.718   3.833 -0.1118  1.5471 -1.1528
64653SOL    HW2  565   8.187  10.865   3.805  0.9351  1.9671  1.6611
64654SOL     OW  566   6.152   3.394   9.992  0.0880  0.1339  0.6549
64654SOL    HW1  567   6.125   3.309  10.027  0.1685  0.1181  0.6808
64654SOL    HW2  568   6.136   3.456  10.063 -0.9102  0.3045  0.2875
64655SOL     OW  569   7.227   6.167  11.039  0.4230  0.6462 -0.0667
64655SOL    HW1  570   7.217   6.212  10.956 -1.3966 -1.2479 -0.9745
64655SOL    HW2  571   7.320   6.144  11.043  0.5461  0.8155 -1.5496
64656SOL     OW  572   1.873   5.212   9.635 -0.1723 -0.1425  0.2974
64656SOL    HW1  573   1.885   5.306   9.622  1.8091 -0.2058  1.2536
64656SOL    HW2  574   1.950   5.172   9.594 -1.6735 -1.5106 -1.3719
64657SOL     OW  575   0.734   8.638   7.615 -0.0931 -0.4570 -0.3291
64657SOL    HW1  576   0.686   8.594   7.544  0.7836  0.0895 -1.2907
64657SOL    HW2  577   0.698   8.727   7.616 -1.1727 -0.8753  0.9578
64658SOL     OW  578   5.780   6.125   3.576  0.1801  0.3535 -1.0223
64658SOL    HW1  579   5.743   6.205   3.613 -0.7706 -1.0870  1.3190
64658SOL    HW2  580   5.712   6.059   3.587  1.6200 -1.2219 -1.1765
64659SOL     OW  581   1.995  12.707   0.993  0.4021  0.3829  0.8873
64659SOL    HW1  582   1.950  12.641   1.045 -0.9725  0.5769 -0.0107
64659SOL    HW2  583   1.985  12.788   1.043  0.0402  0.3621  0.8459
64660SOL     OW  584  10.541   7.331   3.101 -0.1310  0.3340 -0.4921
64660SOL    HW1  585  10.574   7.310   3.013  1.3356 -0.5947  0.2418
64660SOL    HW2  586  10.567   7.257   3.155 -2.0223  0.3490  0.5243
64661SOL     OW  587   3.578   2.728   0.823  0.2633 -0.0947 -0.5533
64661SOL    HW1  588   3.655   2.672   0.817  0.1363 -0.4979  1.1116
64661SOL    HW2  589   3.595   2.784   0.899 -0.4130  0.8922 -1.1075
64662SOL     OW  590   1.503   6.076   8.813  0.5930 -0.3402  0.4281
64662SOL    HW1  591   1.497   6.092   8.718 -0.4967  0.1428  0.5596
64662SOL    HW2  592   1.522   6.162   8.850 -2.0281  0.1297  0.8718
64663SOL     OW  593   9.653  11.442   2.210 -0.1461  0.1676 -0.0583
64663SOL    HW1  594   9.723  11.404   2.157  1.6168  0.4153  1.9540
64663SOL    HW2  595   9.684  11.530   2.231 -1.0577  0.2756  0.9067
64664SOL     OW  596   8.042   8.422   8.937  1.0763 -0.4718 -0.0348
64664SOL    HW1  597   7.994   8.412   9.019  0.5694 -1.9251 -0.4891
64664SOL    HW2  598   7.979   8.461   8.877  1.1222 -0.3916 -0.0308
64665SOL     OW  599   1.542   1.339   6.318  0.3071 -0.7240 -0.5744
64665SOL    HW1  600   1.480   1.347   6.390  1.0792 -0.7913  0.1127
64665SOL    HW2  601   1.527   1.418   6.264  0.1251 -0.3814 -0.0286
64666SOL     OW  602   5.473   8.426  10.631 -1.0162  0.2465  0.0820
64666SOL    HW1  603   5.406   8.394  10.691  0.1452 -0.4805  1.0584
64666SOL    HW2  604   5.511   8.346  10.594 -0.0136  0.5992  0.3280
64667SOL     OW  605   7.697   9.909   0.995 -0.3696 -0.0277  0.0060
64667SOL    HW1  606   7.628   9.843   1.007  0.4968 -1.0858 -0.5547
64667SOL    HW2  607   7.650   9.990   0.976 -1.4722 -0.5217  0.5192
64668SOL     OW  608   8.156   4.007  10.303 -0.1592 -0.1642  0.0631
64668SOL    HW1  609   8.175   4.056  10.383  1.5302  0.5581 -0.7186
64668SOL    HW2  610   8.117   4.071  10.244  0.5442 -0.1361 -0.3937
64669SOL     OW  611   2.196   3.787   5.502 -0.8585 -0.0872  0.1156
64669SOL    HW1  612   2.235   3.728   5.437 -0.0968  0.5703 -0.0257
64669SOL    HW2  613   2.131   3.732   5.547 -2.0266 -0.3408 -1.7467
64670SOL     OW  614   5.641   7.968   5.493  0.2356 -0.0221 -0.0871
64670SOL    HW1  615   5.661   8.054   5.529 -0.7648  0.0174  0.3955
64670SOL    HW2  616   5.636   7.981   5.399  2.3309 -0.0144 -0.2624
64671SOL     OW  617   1.113   7.576   2.353 -0.6361  0.0771 -0.3183
64671SOL    HW1  618   1.145   7.637   2.419 -3.2789  1.5303 -0.2701
64671SOL    HW2  619   1.098   7.495   2.401 -1.1997  0.6972  0.5808
64672SOL     OW  620   7.202   1.383   3.072  0.2489 -0.3509  0.2570
64672SOL    HW1  621   7.166   1.395   2.984 -1.5849  0.9612  1.1161
64672SOL    HW2  622   7.205   1.288   3.084 -1.0575 -0.5303 -0.6459
64673SOL     OW  623   1.499   7.197   0.852  0.2668 -0.0598  0.0302
64673SOL    HW1  624   1.512   7.252   0.929 -0.1541  0.0245  0.0438
64673SOL    HW2  625   1.553   7.237   0.784  0.6814 -0.1645  0.2922
64674SOL     OW  626   4.642   1.493   3.225  0.3666  0.0104 -0.0723
64674SOL    HW1  627   4.599   1.429   3.281  0.2805 -0.7036 -0.9297
64674SOL    HW2  628   4.731   1.501   3.260  0.3372 -0.4793  0.1162
64675SOL     OW  629   5.252   3.631   5.422  0.2196  0.7776  0.0281
64675SOL    HW1  630   5.202   3.576   5.483  0.4411  0.8638  0.2911
64675SOL    HW2  631   5.187   3.664   5.361 -0.2728  1.9626  1.1549
64676SOL     OW  632   9.414   7.060   4.021 -0.2242 -0.1931 -0.0995
64676SOL    HW1  633   9.388   7.082   3.931 -0.4766  0.8071  0.2054
64676SOL    HW2  634   9.503   7.094   4.029 -0.4020  0.2068  0.1964
64677SOL     OW  635  10.026   7.058   2.248 -0.4132  0.0193 -0.1994
64677SOL    HW1  636  10.078   6.987   2.284 -0.4511  0.3674  0.5488
64677SOL    HW2  637  10.080   7.093   2.176  0.7613  0.8658  1.0381
64678SOL     OW  638   1.363   6.611   1.314  0.4206 -0.2267 -0.0065
64678SOL    HW1  639   1.429   6.557   1.357  0.7243  0.4253  0.3667
64678SOL    HW2  640   1.408   6.648   1.238  0.0699 -0.8743 -0.5422
64679SOL     OW  641   5.970  10.410   7.778  0.2891 -0.2651  0.7506
64679SOL    HW1  642   5.912  10.405   7.702 -0.2510  2.6876  0.8581
64679SOL    HW2  643   5.917  10.377   7.850 -0.5422  0.4326  0.4764
64680SOL     OW  644   8.893   8.767   8.500 -0.6323 -0.6517 -0.2882
64680SOL    HW1  645   8.967   8.735   8.448  0.4519  0.4267  0.5298
64680SOL    HW2  646   8.921   8.758   8.591 -0.7172  1.4842  0.0081
64681SOL     OW  647   4.871   2.722   0.825 -0.0718  0.5110  0.1199
64681SOL    HW1  648   4.907   2.634   0.816  1.6837  1.3876 -2.8077
64681SOL    HW2  649   4.779   2.713   0.797  0.0887 -0.3999 -0.1420
64682SOL     OW  650   5.585   3.286   1.166  0.1701  0.0725  0.3134
64682SOL    HW1  651   5.501   3.320   1.136 -0.0532  0.0535  0.9023
64682SOL    HW2  652   5.586   3.195   1.137 -0.2514 -0.0830  0.7756
64683SOL     OW  653  11.596   5.958  11.080 -0.1011 -0.0341 -0.1136
64683SOL    HW1  654  11.639   5.954  11.165  0.4122 -0.7462 -0.3950
64683SOL    HW2  655  11.669   5.956  11.017 -0.5436 -1.7630 -0.6202
64684SOL     OW  656   5.512   9.357   4.471  0.2400 -0.1281  0.0245
64684SOL    HW1  657   5.536   9.421   4.404 -0.1365 -1.9644 -1.9597
64684SOL    HW2  658   5.586   9.358   4.532  0.4932  1.7585 -0.2412
64685SOL     OW  659   1.758   3.792  12.785  0.1754 -0.4927 -0.3679
64685SOL    HW1  660   1.729   3.814  12.697 -0.7851 -1.1713 -0.2385
64685SOL    HW2  661   1.841   3.746  12.772 -1.0190 -2.5861 -1.1210
64686SOL     OW  662   8.056   1.010   3.645  0.3534  0.2055  0.1205
64686SOL    HW1  663   8.038   0.926   3.686 -0.4677  0.8541  1.1405
64686SOL    HW2  664   7.977   1.062   3.659  1.4092  1.6872  0.9329
64687SOL     OW  665   4.705   7.495   5.291 -0.6082  0.3376 -0.0253
64687SOL    HW1  666   4.658   7.439   5.353  1.4667  0.7793  2.0968
64687SOL    HW2  667   4.776   7.440   5.259 -1.9645 -0.0828 -2.6267
64688SOL     OW  668   7.846  10.403  11.982  0.1355 -0.0390 -0.3122
64688SOL    HW1  669   7.886  10.378  12.066 -0.3240 -0.6174 -0.2595
64688SOL    HW2  670   7.801  10.485  12.000  0.4537  0.0941 -0.1157
64689SOL     OW  671   0.861   5.095   0.700  0.3099  0.2817 -0.3882
64689SOL    HW1  672   0.891   5.084   0.791  1.7033 -0.6481 -0.9284
64689SOL    HW2  673   0.768   5.073   0.703  1.1688 -4.3621  0.0978
64690SOL     OW  674   2.298  11.140   0.059  0.2277 -0.3264 -0.0357
64690SOL    HW1  675   2.268  11.209   0.118 -1.7778 -0.0880 -1.2378
64690SOL    HW2  676   2.316  11.065   0.116  0.6104  0.5973  1.0886
64691SOL     OW  677   4.160  10.451   7.772  0.1860 -0.2141 -0.3626
64691SOL    HW1  678   4.148  10.517   7.841 -0.2137 -1.0121  0.3585
64691SOL    HW2  679   4.186  10.501   7.695  0.8507  0.6881  0.4209
64692SOL     OW  680   4.217   7.923  10.870 -0.2113 -0.2564  0.0407
64692SOL    HW1  681   4.228   7.965  10.955  0.8758 -0.1416 -0.1491
64692SOL    HW2  682   4.217   7.995  10.807 -2.4493 -0.1924  0.0074
64693SOL     OW  683   1.468   3.359   7.751 -0.7566 -0.3263 -0.0163
64693SOL    HW1  684   1.527   3.330   7.682  0.0755  1.3112 -0.0511
64693SOL    HW2  685   1.381   3.335   7.721 -0.3139 -0.5406 -1.1636
64694SOL     OW  686  10.108  11.066   7.927  0.6769  0.0544  0.1873
64694SOL    HW1  687  10.022  11.105   7.913 -0.1143 -1.4332  0.6728
64694SOL    HW2  688  10.140  11.107   8.007 -0.4958 -0.8208  1.1504
64695SOL     OW  689   6.521  10.271  12.092  0.1593  0.3707  0.5064
64695SOL    HW1  690   6.504  10.362  12.068 -0.3331 -0.0153 -0.6958
64695SOL    HW2  691   6.442  10.224  12.066  0.7213 -0.5218  0.3608
64696SOL     OW  692   1.126   9.299  10.996  0.1059 -0.1898  0.1793
64696SOL    HW1  693   1.041   9.308  10.953 -0.4543  0.5406  1.3730
64696SOL    HW2  694   1.130   9.373  11.057  1.8047  0.0663 -0.1799
64697SOL     OW  695   4.889   5.279   6.062  0.3480  0.0240 -0.3169
64697SOL    HW1  696   4.876   5.271   6.156  1.3355 -0.9453 -0.2309
64697SOL    HW2  697   4.900   5.188   6.032 -0.4007  0.2864 -1.4346
64698SOL     OW  698   3.622   9.553   0.367 -0.1870 -0.6201  0.2072
64698SOL    HW1  699   3.597   9.638   0.330 -0.3808 -1.0097 -0.5864
64698SOL    HW2  700   3.617   9.492   0.293 -2.6949 -1.8593  1.2788
64699SOL     OW  701  11.567   2.969  12.575 -0.1851  0.2597  0.0769
64699SOL    HW1  702  11.508   2.920  12.517  0.5668 -1.0494  0.3826
64699SOL    HW2  703  11.573   2.915  12.654 -1.9363  2.4427  1.8415
64700SOL     OW  704  12.073   7.987   0.036  0.7562  0.3385  0.2068
64700SOL    HW1  705  12.101   7.947  -0.047  0.5371 -0.3193  0.4419
64700SOL    HW2  706  12.155   8.005   0.082  0.8814 -2.8815  1.5133
64701SOL     OW  707   7.859  11.664   9.456 -0.1974  0.1362  0.1561
64701SOL    HW1  708   7.788  11.678   9.394  0.4571  0.2152 -0.5987
64701SOL    HW2  709   7.938  11.662   9.402  0.4113  0.3761  1.0119
64702SOL     OW  710   6.040   0.688  12.380  0.5912 -0.1516  0.2990
64702SOL    HW1  711   5.944   0.698  12.381  0.6169  0.1576 -0.0340
64702SOL    HW2  712   6.066   0.724  12.296  1.1596  1.2670  1.0466
64703SOL     OW  713   8.061   7.813   7.736 -0.3255  0.5113 -0.5289
64703SOL    HW1  714   8.045   7.856   7.820  2.0879  1.2596 -0.3710
64703SOL    HW2  715   8.043   7.720   7.752  0.9027  0.5098  1.0921
64704SOL     OW  716   2.343   3.448   8.499  0.0760 -0.4018 -0.8330
64704SOL    HW1  717   2.278   3.447   8.430 -0.4459  1.2143 -0.4223
64704SOL    HW2  718   2.330   3.533   8.543  2.6202  0.1126 -0.9190
64705SOL     OW  719  11.335   3.680   5.064  0.3056  0.9931  0.0476
64705SOL    HW1  720  11.429   3.669   5.046  0.0839  0.6786 -1.0185
64705SOL    HW2  721  11.301   3.726   4.987 -0.5304  0.5061  0.1093
64706SOL     OW  722   4.710  12.320   9.085  0.3566 -0.5245 -0.6188
64706SOL    HW1  723   4.779  12.291   9.026  1.5133 -0.7264  0.7817
64706SOL    HW2  724   4.756  12.343   9.166 -1.3683 -2.1585  0.9098
64707SOL     OW  725   5.693   0.619   0.087  0.1563 -0.3777 -0.1438
64707SOL    HW1  726   5.742   0.656   0.014  1.1796  0.1914  0.8067
64707SOL    HW2  727   5.624   0.567   0.045  1.8129 -1.5644 -1.5198
64708SOL     OW  728   4.288   5.955   6.961  0.0603  0.0413  0.5292
64708SOL    HW1  729   4.348   5.881   6.958  0.2972  0.2611 -0.4656
64708SOL    HW2  730   4.301   5.994   7.047  1.1409 -0.0787  0.4267
64709SOL     OW  731  10.436   3.623   0.337  0.2558 -0.0628 -0.2479
64709SOL    HW1  732  10.515   3.571   0.349  0.5053  0.8036  2.4594
64709SOL    HW2  733  10.373   3.588   0.401  0.7062  3.2751  2.3095
64710SOL     OW  734  11.439   2.087   4.778  0.2941 -0.5523 -0.2174
64710SOL    HW1  735  11.363   2.117   4.728 -1.5202 -1.5209  1.8189
64710SOL    HW2  736  11.464   2.005   4.736  1.3082  0.5416 -1.8846
64711SOL     OW  737  11.298   2.769   9.835  0.1289  0.5620 -0.1336
64711SOL    HW1  738  11.293   2.818   9.753  2.1061 -0.0205 -0.6481
64711SOL    HW2  739  11.230   2.702   9.828  1.1706 -0.3753 -1.9547
64712SOL     OW  740   2.970   7.591   6.648  0.1471 -0.8553  0.2985
64712SOL    HW1  741   2.941   7.680   6.668  1.0745 -0.5065  0.1659
64712SOL    HW2  742   2.894   7.549   6.609 -0.3313 -0.1458  0.4462
64713SOL     OW  743   0.401   9.576   5.732 -0.6601  0.1178 -0.1429
64713SOL    HW1  744   0.355   9.503   5.773 -0.0775 -1.4872 -2.1191
64713SOL    HW2  745   0.336   9.616   5.674 -0.4639 -0.0991 -0.5192
64714SOL     OW  746   3.103  11.015   3.623  0.1781  0.0224 -0.0750
64714SOL    HW1  747   3.029  11.021   3.563  0.3279 -0.6517 -0.3313
64714SOL    HW2  748   3.159  10.948   3.585 -0.6543 -1.8431  1.8102
64715SOL     OW  749   2.042  11.635   5.799  0.0296 -0.4590  0.3647
64715SOL    HW1  750   1.971  11.613   5.860  0.2334  0.5328  0.9919
64715SOL    HW2  751   2.122  11.624   5.851  0.1836  0.8273  0.4318
64716SOL     OW  752  12.630   0.461   6.833  0.3924 -0.2493 -0.6075
64716SOL    HW1  753  12.699   0.407   6.872 -1.3080 -2.9972 -1.1083
64716SOL    HW2  754  12.606   0.415   6.752 -0.9671  1.4541 -1.2379
64717SOL     OW  755  11.557  12.481  11.542  0.0532  0.7824 -0.5976
64717SOL    HW1  756  11.491  12.493  11.473  0.6759  1.3764 -1.1047
64717SOL    HW2  757  11.606  12.563  11.543  0.3603  0.6019  0.2364
64718SOL     OW  758   5.664   4.078   2.390  0.3661  0.2469  0.2954
64718SOL    HW1  759   5.634   4.169   2.397 -3.0723 -0.6854 -0.4166
64718SOL    HW2  760   5.737   4.082   2.329  0.4459  2.5571  0.4459
64719SOL     OW  761  12.338  11.460   7.300 -0.0946 -0.1518 -0.3703
64719SOL    HW1  762  12.315  11.488   7.388 -0.2613 -0.3881 -0.3379
64719SOL    HW2  763  12.399  11.527   7.268 -0.8079  0.4740 -0.4476
64720SOL     OW  764   0.260   7.373   8.230  0.6680  0.2042 -0.6049
64720SOL    HW1  765   0.255   7.465   8.204  0.3220  0.0555 -1.0804
64720SOL    HW2  766   0.174   7.354   8.268 -0.4707 -0.7595 -3.3885
64721SOL     OW  767   8.527   4.965  11.346  0.0551  0.0932 -0.6435
64721SOL    HW1  768   8.450   4.974  11.402 -0.1136  0.3098 -0.9101
64721SOL    HW2  769   8.574   4.890  11.383 -0.4409 -0.2365 -0.6668
64722SOL     OW  770   8.292   9.327  11.617  0.1225  0.4328  0.0507
64722SOL    HW1  771   8.197   9.324  11.610  0.1844  0.8441 -1.1385
64722SOL    HW2  772   8.319   9.237  11.633 -0.4728  0.3541  0.6526
64723SOL     OW  773   8.455   1.063  10.871 -0.1541 -0.3042  0.3134
64723SOL    HW1  774   8.397   1.045  10.798  1.9320 -0.7792 -1.3285
64723SOL    HW2  775   8.419   1.142  10.912  0.0304  1.6120 -2.8677
64724SOL     OW  776  10.610   0.227   9.631  0.1932 -0.1037  0.5800
64724SOL    HW1  777  10.515   0.219   9.631  0.1665  0.1673  1.1976
64724SOL    HW2  778  10.628   0.299   9.570 -0.0457  0.3450  1.0330
64725SOL     OW  779   3.161  10.732   8.824  0.4847  0.3972 -0.3864
64725SOL    HW1  780   3.205  10.688   8.752 -0.3843 -0.0484 -0.6615
64725SOL    HW2  781   3.068  10.726   8.802  0.3383  2.7406 -0.6569
64726SOL     OW  782   5.635   6.282   6.089 -0.3848 -0.6469 -0.8637
64726SOL    HW1  783   5.600   6.249   6.172 -2.6811  1.8748 -0.6632
64726SOL    HW2  784   5.569   6.258   6.024  0.4907 -0.9987 -1.6337
64727SOL     OW  785   9.199  10.073  10.921  0.5612 -0.1165 -0.5992
64727SOL    HW1  786   9.135  10.077  10.849 -2.1003 -0.6150  1.5790
64727SOL    HW2  787   9.219  10.164  10.940 -0.3313  0.1005 -0.6454
64728SOL     OW  788  12.143   3.923   2.586 -0.2719 -0.1459  0.3371
64728SOL    HW1  789  12.078   3.967   2.641  0.5223 -0.9493  1.9927
64728SOL    HW2  790  12.097   3.848   2.549 -0.1662 -1.0438  1.9691
64729SOL     OW  791  11.206   5.397   9.589  0.0870 -0.1227  0.3099
64729SOL    HW1  792  11.251   5.326   9.635  0.8517 -0.1350 -0.4353
64729SOL    HW2  793  11.125   5.357   9.558 -1.6905  0.5047  3.6923
64730SOL     OW  794   2.857   9.917   6.112 -0.2882 -0.2538 -0.0504
64730SOL    HW1  795   2.904   9.876   6.040  1.1275  0.8679  0.1750
64730SOL    HW2  796   2.891   9.874   6.191  1.6860  1.6303  0.2375
64731SOL     OW  797   7.084   9.427  10.904  0.2051 -0.2670 -0.3968
64731SOL    HW1  798   7.170   9.395  10.878  0.2610 -1.6904  1.3505
64731SOL    HW2  799   7.096   9.465  10.991 -1.1495 -1.8682  0.5605
64732SOL     OW  800   2.145   5.793   0.674 -0.1634 -0.2057  0.1852
64732SOL    HW1  801   2.100   5.809   0.591 -2.1452 -0.4204  1.1455
64732SOL    HW2  802   2.074   5.788   0.739  1.2313 -1.1915  1.7132
64733SOL     OW  803   7.190   8.719   1.529  0.2457  0.5444 -0.1328
64733SOL    HW1  804   7.217   8.784   1.464  0.7817  0.9719  0.5131
64733SOL    HW2  805   7.261   8.717   1.593  1.7496 -2.8200 -1.6592
64734SOL     OW  806  12.409   0.842   6.093 -0.4389  0.2614 -0.0568
64734SOL    HW1  807  12.460   0.923   6.099  1.4790 -0.8609 -0.2609
64734SOL    HW2  808  12.428   0.808   6.005 -2.6764  0.4695 -0.6759
64735SOL     OW  809   9.890  10.171  10.613  0.0444 -0.4711 -0.3492
64735SOL    HW1  810   9.894  10.103  10.680 -1.0512  0.6597  0.9190
64735SOL    HW2  811   9.797  10.184  10.597 -0.0297  2.9450  1.8647
64736SOL     OW  812   1.148   5.543   9.935  0.8588 -0.0505 -0.2173
64736SOL    HW1  813   1.160   5.630   9.897  0.6185 -0.0385 -0.2696
64736SOL    HW2  814   1.073   5.506   9.888  0.2193  0.1735  0.5921
64737SOL     OW  815  10.808   4.622  12.761  0.6615  0.4675 -0.3798
64737SOL    HW1  816  10.840   4.702  12.804 -0.9215  0.3603  1.1322
64737SOL    HW2  817  10.782   4.651  12.674 -0.0963  1.6965  0.2094
64738SOL     OW  818   2.748   3.826  10.531 -0.3782 -0.1337 -0.5294
64738SOL    HW1  819   2.790   3.871  10.458 -1.9225 -0.3810 -1.5976
64738SOL    HW2  820   2.656   3.820  10.507 -0.4800 -2.5740  0.2248
64739SOL     OW  821   9.168   7.381  12.029  0.2237 -0.1008  0.3693
64739SOL    HW1  822   9.142   7.324  11.957  0.5148 -0.0971  0.2581
64739SOL    HW2  823   9.264   7.378  12.028  0.2195 -1.0581  1.5366
64740SOL     OW  824  10.128   7.066   8.022  0.4768  0.1834  0.6879
64740SOL    HW1  825  10.214   7.049   8.059  0.2362 -1.6945  0.4636
64740SOL    HW2  826  10.097   6.981   7.992  0.4714  1.4471 -3.5393
64741SOL     OW  827   2.978   6.562   4.627  0.2286 -0.1138  0.3192
64741SOL    HW1  828   3.027   6.623   4.681 -2.8693  2.2851  0.7031
64741SOL    HW2  829   2.994   6.591   4.537  1.7407 -1.2066  0.2052
64742SOL     OW  830   4.718  11.413  11.788 -0.4075 -0.1070  0.2881
64742SOL    HW1  831   4.662  11.441  11.716  0.4537  0.1801 -0.2899
64742SOL    HW2  832   4.770  11.341  11.751 -0.4858 -0.4548  0.8505
64743SOL     OW  833   7.765   0.010   9.057 -0.0318 -0.5781  0.5020
64743SOL    HW1  834   7.841  -0.040   9.088  0.9138 -0.8564 -2.0075
64743SOL    HW2  835   7.690  -0.036   9.094  0.9510 -1.7660  1.1019
64744SOL     OW  836  10.378   6.056   3.963 -0.4398  1.1675 -0.2054
64744SOL    HW1  837  10.456   6.046   3.908 -0.6138  1.0318 -0.4318
64744SOL    HW2  838  10.410   6.098   4.043  0.6810 -2.5443  1.5338
64745SOL     OW  839  12.462   3.505  12.491  0.7343  0.0056  1.0256
64745SOL    HW1  840  12.547   3.478  12.528  1.1119 -0.4259 -0.1158
64745SOL    HW2  841  12.475   3.500  12.397 -0.5173  0.1266  0.8413
64746SOL     OW  842  11.151   3.223  10.194 -0.4802 -0.4005  0.0886
64746SOL    HW1  843  11.206   3.202  10.270 -0.3952  2.4206  0.9285
64746SOL    HW2  844  11.062   3.228  10.230 -0.3201  1.9048  0.3146
64747SOL     OW  845   4.603  11.290  12.464  0.5099  0.7103 -0.0559
64747SOL    HW1  846   4.557  11.264  12.384 -0.0734  0.8465  0.2267
64747SOL    HW2  847   4.584  11.220  12.527  1.3012  0.4016 -0.1552
64748SOL     OW  848   1.870  11.287   0.551 -0.1873  0.5807  0.3634
64748SOL    HW1  849   1.864  11.313   0.642  1.8993  0.4807  0.5782
64748SOL    HW2  850   1.851  11.193   0.551 -2.0498  0.9313  0.3953
64749SOL     OW  851   1.840   0.814   5.601  0.7480 -0.0137  0.1659
64749SOL    HW1  852   1.889   0.740   5.567 -0.4609 -0.8959  0.2952
64749SOL    HW2  853   1.752   0.780   5.617  0.8766  0.6917  2.8798
64750SOL     OW  854   5.974   7.410   7.188  0.4652 -0.1594  0.2315
64750SOL    HW1  855   5.917   7.392   7.113  2.3728 -1.2971 -1.0178
64750SOL    HW2  856   5.949   7.344   7.253 -1.5252  1.1258  0.8753
64751SOL     OW  857   1.853   8.938   3.827  0.3605  0.2095  0.6654
64751SOL    HW1  858   1.892   9.025   3.821 -2.0329  1.2608 -2.3470
64751SOL    HW2  859   1.795   8.943   3.903 -1.1208  1.9615 -0.5050
64752SOL     OW  860  12.498  12.265  12.166  0.1803  0.5587  0.1983
64752SOL    HW1  861  12.534  12.217  12.092  2.0235 -1.3274  2.1669
64752SOL    HW2  862  12.558  12.339  12.178  0.4922  0.2629  0.4553
64753SOL     OW  863   9.371   4.722   0.789 -0.4196  0.5795  0.2725
64753SOL    HW1  864   9.348   4.675   0.869  1.0228 -1.8545 -0.6559
64753SOL    HW2  865   9.329   4.672   0.719 -1.2936  2.4222 -0.6140
64754SOL     OW  866  10.114   9.379  11.597  0.4672  0.1849 -0.7193
64754SOL    HW1  867  10.146   9.385  11.507 -0.0350  1.4033 -0.8320
64754SOL    HW2  868  10.075   9.465  11.614  0.6437  0.0033  0.6935
64755SOL     OW  869   9.792  10.698  10.142  0.4010 -0.3082 -0.3435
64755SOL    HW1  870   9.857  10.680  10.210 -1.1431 -2.7493  0.6310
64755SOL    HW2  871   9.744  10.774  10.176 -0.0648 -1.2154  1.1258
64756SOL     OW  872   7.114   6.496   0.830 -0.0932 -0.4830  0.2553
64756SOL    HW1  873   7.122   6.401   0.838  0.1424 -0.5302 -0.4473
64756SOL    HW2  874   7.112   6.528   0.920 -0.8529 -1.2077  0.5094
64757SOL     OW  875   1.924   8.993   8.007  0.4868 -0.1165  0.3824
64757SOL    HW1  876   1.969   8.944   7.938  0.9900  0.9616 -0.0656
64757SOL    HW2  877   1.981   9.067   8.026 -1.2445  1.5598 -0.5119
64758SOL     OW  878   5.278   7.467   6.739  0.1211 -0.3962  0.4947
64758SOL    HW1  879   5.263   7.559   6.716 -0.8139 -0.2563  1.5454
64758SOL    HW2  880   5.263   7.419   6.658  2.3939  0.4969 -0.5381
64759SOL     OW  881   0.018  11.699  11.713  0.4475 -1.1059  0.1670
64759SOL    HW1  882   0.077  11.710  11.638  0.6976 -2.3208  0.1708
64759SOL    HW2  883  -0.062  11.662  11.676 -0.2103  0.2128  0.2152
64760SOL     OW  884   7.473   7.855   3.479  0.0578 -1.1178  0.2858
64760SOL    HW1  885   7.388   7.896   3.495  1.2861  0.7124  2.7945
64760SOL    HW2  886   7.467   7.770   3.523 -0.3235 -0.7863  0.8893
64761SOL     OW  887   0.982   6.408   1.768  0.0266  0.6600 -0.0376
64761SOL    HW1  888   0.990   6.465   1.692 -1.1295 -0.5170 -1.0743
64761SOL    HW2  889   0.917   6.343   1.743  0.5255 -0.4892  1.5077
64762SOL     OW  890   7.601   8.363   1.606  0.0186 -0.7556  0.2132
64762SOL    HW1  891   7.547   8.394   1.678  2.5801  1.0758  1.5055
64762SOL    HW2  892   7.591   8.429   1.537 -1.0379 -1.5682 -0.4354
64763SOL     OW  893   7.044   4.738  10.435 -0.2781  0.2092 -0.6040
64763SOL    HW1  894   7.044   4.643  10.423  1.1064 -0.0886  1.3101
64763SOL    HW2  895   7.134   4.765  10.415 -0.0274  0.7498  1.1049
64764SOL     OW  896   3.919   6.140   4.348  0.5144 -0.5198 -0.6339
64764SOL    HW1  897   3.979   6.065   4.346  0.5412 -0.5334  0.1944
64764SOL    HW2  898   3.869   6.133   4.266  0.8840 -1.1337 -0.8169
64765SOL     OW  899   4.890   6.881   2.476 -0.0895 -0.1969  0.7954
64765SOL    HW1  900   4.846   6.950   2.427  0.0239  0.6858  1.9002
64765SOL    HW2  901   4.847   6.882   2.562  1.3591 -0.0237  1.5551
64766SOL     OW  902   0.136   3.472   1.392  0.5522 -0.1922  0.0889
64766SOL    HW1  903   0.222   3.490   1.431  0.5558  0.9782 -0.4329
64766SOL    HW2  904   0.092   3.415   1.456  1.8378 -1.1152  0.1985
64767SOL     OW  905   0.440  10.201   3.527  0.4036 -0.8844  0.0163
64767SOL    HW1  906   0.438  10.278   3.583  0.1948 -1.8373  1.3654
64767SOL    HW2  907   0.513  10.217   3.467  0.0159  0.5908 -0.1135
64768SOL     OW  908   2.561   6.787   2.879 -0.3386 -0.6283 -0.2700
64768SOL    HW1  909   2.629   6.818   2.818 -0.3334  0.9631  0.4869
64768SOL    HW2  910   2.598   6.709   2.919 -0.8118 -2.4470 -3.1185
64769SOL     OW  911   9.150   0.879  12.616  0.0314  0.4717  0.2843
64769SOL    HW1  912   9.079   0.913  12.670 -0.3564  2.1906 -1.2174
64769SOL    HW2  913   9.212   0.951  12.610  0.2324  0.2081 -1.2171
64770SOL     OW  914   1.746  10.941   9.284  0.1613 -0.3635 -0.5520
64770SOL    HW1  915   1.799  10.988   9.220  1.8566  0.4592  1.3588
64770SOL    HW2  916   1.773  10.849   9.275  1.9202  0.0258  0.3172
64771SOL     OW  917  11.291   1.458   1.891  0.0332  0.5546  0.1610
64771SOL    HW1  918  11.290   1.436   1.798 -0.2728  2.5403 -0.3413
64771SOL    HW2  919  11.302   1.374   1.935  2.3199 -0.2201 -1.7136
64772SOL     OW  920   4.246   1.592   3.438  0.0041  0.1559 -0.1084
64772SOL    HW1  921   4.255   1.641   3.519  0.6119 -0.0313 -0.0558
64772SOL    HW2  922   4.213   1.506   3.465  0.3569  0.0404 -0.0388
64773SOL     OW  923   9.314   2.400   3.535 -0.1448 -0.4950  0.5180
64773SOL    HW1  924   9.397   2.392   3.489 -1.4965 -1.0079 -2.0429
64773SOL    HW2  925   9.327   2.352   3.616  2.3414  0.3078  0.6820
64774SOL     OW  926  11.046   7.898   8.044  0.4608 -0.1634  0.1391
64774SOL    HW1  927  11.047   7.820   8.101  0.2928 -0.2030  0.0875
64774SOL    HW2  928  10.953   7.919   8.034  0.5053  0.0297  0.1341
64775SOL     OW  929   9.522   8.849   4.177 -0.4200 -0.4612 -0.3222
64775SOL    HW1  930   9.545   8.792   4.103 -0.0730  0.5036 -0.9873
64775SOL    HW2  931   9.532   8.937   4.142  1.2748  0.0625  1.3288
64776SOL     OW  932   2.746   9.456  10.078  0.2734 -0.6546 -0.0571
64776SOL    HW1  933   2.832   9.430  10.046 -0.5336 -1.6326 -1.5601
64776SOL    HW2  934   2.687   9.386  10.049 -0.9936 -0.1253  1.1328
64777SOL     OW  935   1.513  11.594   0.050  0.1972 -0.3034  0.1294
64777SOL    HW1  936   1.474  11.539  -0.018 -0.9327 -0.7953  1.1400
64777SOL    HW2  937   1.591  11.546   0.077 -0.3014 -0.9808  0.3929
64778SOL     OW  938  11.422   0.503   8.368 -0.0960  0.0632 -0.1542
64778SOL    HW1  939  11.342   0.545   8.335  0.4721  0.9368 -0.4405
64778SOL    HW2  940  11.409   0.499   8.462 -0.6293 -0.1213 -0.2289
64779SOL     OW  941  10.772  10.040   5.645  0.2423 -0.3079 -0.3452
64779SOL    HW1  942  10.717   9.982   5.592 -0.0985 -1.2635  0.9759
64779SOL    HW2  943  10.711  10.106   5.679 -0.0300 -1.1210  0.7820
64780SOL     OW  944   8.842   7.779   5.406  0.3305 -0.0825 -0.4708
64780SOL    HW1  945   8.920   7.832   5.423 -0.0476  1.7816 -3.6371
64780SOL    HW2  946   8.798   7.824   5.334 -2.8247 -1.9888  0.0584
64781SOL     OW  947   3.651   9.576   7.488  0.2951 -0.5501  0.4746
64781SOL    HW1  948   3.633   9.652   7.432 -0.7295 -1.2523 -0.1958
64781SOL    HW2  949   3.696   9.515   7.431 -1.8602 -1.7850 -0.0347
64782SOL     OW  950   7.397   3.373   7.405 -0.5208  0.2837 -0.6356
64782SOL    HW1  951   7.472   3.314   7.419  0.4816  1.7043  0.2510
64782SOL    HW2  952   7.433   3.446   7.355 -1.3372  0.9816 -0.2228
64783SOL     OW  953   2.017   6.880   9.212 -0.2667 -0.4232  0.4303
64783SOL    HW1  954   1.932   6.870   9.254 -0.6925  0.5766 -0.1613
64783SOL    HW2  955   2.078   6.893   9.285 -0.6566 -0.8278  0.8390
64784SOL     OW  956   6.149   6.815   4.584 -0.5703  0.1702  0.1016
64784SOL    HW1  957   6.108   6.891   4.543 -0.5294  0.1013 -0.0680
64784SOL    HW2  958   6.078   6.752   4.593 -0.9027  0.6888  1.4115
64785SOL     OW  959   4.714   3.139  10.574  0.4158  0.2366  0.0742
64785SOL    HW1  960   4.636   3.167  10.526  1.5839  2.7007 -0.5326
64785SOL    HW2  961   4.780   3.124  10.506  0.6964 -1.2753  0.6229
64786SOL     OW  962   2.647   6.257   7.059 -0.4325  0.4138  0.2511
64786SOL    HW1  963   2.563   6.224   7.091  0.0492  1.5882  3.0698
64786SOL    HW2  964   2.711   6.227   7.124  0.7941  2.2665 -0.0145
64787SOL     OW  965  12.344   9.669   8.083  0.3302  0.0092  0.0745
64787SOL    HW1  966  12.280   9.646   8.016 -0.6844 -0.7002  1.2519
64787SOL    HW2  967  12.384   9.750   8.052 -0.8793  0.2641 -0.8631
64788SOL     OW  968   3.788   1.841   2.870  0.3874 -0.7221 -0.2268
64788SOL    HW1  969   3.856   1.865   2.933  0.2069 -0.4788 -0.1214
64788SOL    HW2  970   3.829   1.776   2.813  0.4907 -1.0939  0.2639
64789SOL     OW  971  12.396   5.604   4.622  0.2934 -0.1634  0.4120
64789SOL    HW1  972  12.362   5.608   4.533 -0.4745  0.6177  0.7349
64789SOL    HW2  973  12.479   5.556   4.614  0.6409  0.6137 -0.8400
64790SOL     OW  974   5.236   5.149   6.664 -0.1340  0.2626 -0.0174
64790SOL    HW1  975   5.187   5.086   6.717 -0.9501  0.1116 -0.9168
64790SOL    HW2  976   5.323   5.111   6.656  0.6434  1.1942  2.7721
64791SOL     OW  977   5.773   1.532   0.889  0.6516 -0.1468 -0.5499
64791SOL    HW1  978   5.726   1.611   0.865  0.8066  0.2584  0.4184
64791SOL    HW2  979   5.852   1.564   0.933  1.4071 -0.8258 -1.3836
64792SOL     OW  980   5.377   9.118   1.116  0.0851  0.7332 -0.8488
64792SOL    HW1  981   5.290   9.152   1.136 -0.0815  0.7111 -1.5213
64792SOL    HW2  982   5.423   9.192   1.075  0.2604  0.6342 -0.8332
64793SOL     OW  983  12.437   5.550   1.286 -0.2280 -0.1889  0.2763
64793SOL    HW1  984  12.384   5.573   1.210 -0.1080  0.0817  0.2747
64793SOL    HW2  985  12.418   5.619   1.350 -2.8450 -2.0952  1.7443
64794SOL     OW  986   1.977   0.619   0.112  0.1057  0.8758 -0.0931
64794SOL    HW1  987   2.013   0.569   0.186 -1.5012 -0.5176 -0.1977
64794SOL    HW2  988   2.027   0.588   0.037  0.0859  0.4661  0.0568
64795SOL     OW  989   8.856   2.922  12.313 -0.0680 -1.1310 -0.7170
64795SOL    HW1  990   8.911   2.843  12.310 -0.6281 -1.7439  2.1661
64795SOL    HW2  991   8.768   2.890  12.296 -0.4571 -1.4298  1.4733
64796SOL     OW  992   8.819   1.801   1.354  0.1400  0.1662 -0.2986
64796SOL    HW1  993   8.737   1.828   1.395  0.6015 -0.4466  1.0740
64796SOL    HW2  994   8.885   1.861   1.389 -0.0221  2.4010 -3.3652
64797SOL     OW  995   9.844  11.172  11.449  0.3223  0.1664  0.0547
64797SOL    HW1  996   9.929  11.211  11.468 -0.0249  0.8876  0.1658
64797SOL    HW2  997   9.782  11.219  11.506 -0.6905  2.1302 -2.4708
64798SOL     OW  998   8.980   6.411   3.889  0.1551  0.1281 -0.0923
64798SOL    HW1  999   9.064   6.382   3.852 -0.2033  0.7242 -1.4207
64798SOL    HW2 1000   8.938   6.330   3.917  0.3632 -0.3822 -1.1910
64799SOL     OW 1001   0.529   5.942   1.510  0.5011  0.1460 -0.2518
64799SOL    HW1 1002   0.484   6.026   1.497  0.1835  0.3048  1.5770
64799SOL    HW2 1003   0.567   5.922   1.425  0.3065  1.9932 -0.8257
64800SOL     OW 1004   3.952  10.342   7.513 -0.4607  0.3756  0.0630
64800SOL    HW1 1005   4.032  10.355   7.464 -0.4351  0.1905  0.0552
64800SOL    HW2 1006   3.935  10.427   7.554 -0.3656  0.4680 -0.0887
64801SOL     OW 1007   0.719  12.192   9.617 -0.6031 -0.1335  0.6041
64801SOL    HW1 1008   0.701  12.168   9.708  0.3148  0.2061  0.8872
64801SOL    HW2 1009   0.698  12.113   9.567  2.5875 -1.7433  1.5373
64802SOL     OW 1010   5.811   6.188   6.466 -0.6341 -0.0108 -0.2448
64802SOL    HW1 1011   5.862   6.134   6.527 -0.2827  1.0482  0.4347
64802SOL    HW2 1012   5.720   6.169   6.487 -0.5254  0.6663  0.9536
64803SOL     OW 1013   8.454  10.370   4.356  0.0811  0.2196  0.4792
64803SOL    HW1 1014   8.481  10.287   4.394  0.9569 -0.5153 -1.5841
64803SOL    HW2 1015   8.367  10.353   4.318  1.2968 -0.6045 -2.1752
64804SOL     OW 1016   8.077  12.497  11.997 -0.0923  0.5491  0.2508
64804SOL    HW1 1017   8.140  12.493  11.925 -1.8689 -1.1645 -1.3293
64804SOL    HW2 1018   8.041  12.585  11.993 -0.6145  0.2866 -1.4251
64805SOL     OW 1019   8.829   9.711   6.614  0.4497  0.1651 -0.2567
64805SOL    HW1 1020   8.886   9.690   6.540 -0.4656  0.3343 -1.0237
64805SOL    HW2 1021   8.830   9.806   6.619  1.0757  0.1335  0.4166
64806SOL     OW 1022   3.433   6.514   1.848  0.6952 -0.5975  0.1712
64806SOL    HW1 1023   3.434   6.439   1.908  1.0350  0.2662  1.2741
64806SOL    HW2 1024   3.451   6.590   1.904  0.5038  0.2958 -0.9489
64807SOL     OW 1025  11.073   4.584   8.872  0.5237 -0.4439 -0.7377
64807SOL    HW1 1026  11.156   4.544   8.845  0.3630 -2.9735  2.0181
64807SOL    HW2 1027  11.076   4.582   8.968 -1.6600  1.8532 -0.5222
64808SOL     OW 1028   3.866   5.039   0.801  0.1163 -0.3850 -0.0767
64808SOL    HW1 1029   3.931   5.100   0.766 -0.9241 -0.5264 -2.4544
64808SOL    HW2 1030   3.895   4.953   0.769  0.8351 -1.0267  2.1216
64809SOL     OW 1031  12.579  11.037   7.084 -0.6049 -0.1955 -0.4624
64809SOL    HW1 1032  12.507  11.095   7.108 -1.5135 -0.4133 -2.4755
64809SOL    HW2 1033  12.582  11.040   6.988  1.1843 -1.2723 -0.4952
64810SOL     OW 1034   2.284   8.354   3.205 -0.2730 -0.2431 -0.1094
64810SOL    HW1 1035   2.206   8.299   3.211  0.4428 -1.2996 -0.2354
64810SOL    HW2 1036   2.255   8.431   3.156 -2.0584  0.9315  2.5534
64811SOL     OW 1037   4.216   8.800   4.006 -0.5111  0.1340 -0.2001
64811SOL    HW1 1038   4.186   8.890   4.019 -1.1966 -0.4157  2.8836
64811SOL    HW2 1039   4.305   8.809   3.973 -0.9515  1.9106 -1.0464
64812SOL     OW 1040   1.564   4.040  11.878  0.5286  0.3065  0.0796
64812SOL    HW1 1041   1.547   3.947  11.867  1.9890 -0.2257  1.7789
64812SOL    HW2 1042   1.486   4.084  11.844 -1.6523 -1.6541  2.1697
64813SOL     OW 1043   5.349   8.682  10.759 -0.1063 -0.4580 -0.9746
64813SOL    HW1 1044   5.405   8.680  10.681  0.4640  0.7861 -0.6362
64813SOL    HW2 1045   5.318   8.592  10.769 -0.1552 -0.6544 -2.5952
64814SOL     OW 1046  12.312   8.362  11.773 -0.0623 -0.0539 -0.2509
64814SOL    HW1 1047  12.392   8.391  11.818 -0.4820  1.1233 -0.2290
64814SOL    HW2 1048  12.335   8.276  11.737  0.7637 -0.3676  0.9387
64815SOL     OW 1049   0.338   9.469   4.216 -0.6042 -0.7197  0.4267
64815SOL    HW1 1050   0.395   9.528   4.266 -1.1389 -0.3555  0.6079
64815SOL    HW2 1051   0.295   9.415   4.283  0.2839 -1.6958  0.2380
64816SOL     OW 1052  12.017   4.999   2.560  0.7987 -0.0441  0.7446
64816SOL    HW1 1053  12.088   5.062   2.550  1.2014 -0.6268 -0.1282
64816SOL    HW2 1054  11.966   5.033   2.634  0.9396  1.3615  0.2349
64817SOL     OW 1055   7.078   0.195   3.584 -0.3364 -0.0613 -0.5829
64817SOL    HW1 1056   7.162   0.150   3.574 -0.3446 -0.3873  0.6592
64817SOL    HW2 1057   7.101   0.281   3.620 -0.4090  0.5465 -1.9330
64818SOL     OW 1058   1.833   6.744   8.314 -0.3063  0.3076  0.6290
64818SOL    HW1 1059   1.881   6.746   8.397  0.4849 -1.5654  0.2713
64818SOL    HW2 1060   1.901   6.749   8.247 -0.5902 -1.6136  0.1213
64819SOL     OW 1061   0.958   9.068  10.080 -0.3264  0.3128 -0.0302
64819SOL    HW1 1062   1.047   9.103  10.082 -0.5587  0.8740  1.4001
64819SOL    HW2 1063   0.966   8.978  10.112 -0.1213 -0.0829 -1.1226
64820SOL     OW 1064   9.758   5.677   1.384 -0.2513  0.4031 -0.2298
64820SOL    HW1 1065   9.826   5.633   1.434 -0.1145 -0.6094 -1.2574
64820SOL    HW2 1066   9.804   5.723   1.314 -0.5962 -0.2032 -0.8692
64821SOL     OW 1067  10.274   7.188   4.526 -0.2943  0.0030  0.4410
64821SOL    HW1 1068  10.297   7.280   4.511  1.7880 -0.2715  1.5459
64821SOL    HW2 1069  10.180   7.190   4.546 -0.2274  1.9359  0.7757
64822SOL     OW 1070   4.942  10.191   7.752  0.1955 -0.1547 -0.6719
64822SOL    HW1 1071   4.849  10.173   7.767  0.1300  0.3370 -0.4783
64822SOL    HW2 1072   4.944  10.280   7.717  0.6150 -0.0529 -0.3969
64823SOL     OW 1073   1.192   0.655   4.730  0.0578  0.1406 -0.2946
64823SOL    HW1 1074   1.256   0.670   4.660 -0.6565 -0.0634 -1.0150
64823SOL    HW2 1075   1.194   0.735   4.783  0.1157  0.5877 -0.9578
64824SOL     OW 1076   7.689  12.651   8.121 -0.1171  0.5123 -0.3075
64824SOL    HW1 1077   7.689  12.568   8.168  0.8666 -0.8843 -2.5977
64824SOL    HW2 1078   7.617  12.643   8.059  0.9569  0.6802 -1.6092
64825SOL     OW 1079  11.722   7.227   0.152  0.7602  0.6248 -0.2246
64825SOL    HW1 1080  11.736   7.312   0.110  1.9565  0.2277 -0.6651
64825SOL    HW2 1081  11.769   7.234   0.236  0.7093  0.4568 -0.1822
64826SOL     OW 1082   6.055   3.536   7.529  0.2610 -0.1402  0.1325
64826SOL    HW1 1083   6.015   3.621   7.513 -0.9730 -0.7745 -0.2251
64826SOL    HW2 1084   6.101   3.515   7.448 -1.4863 -0.9000 -0.7074
64827SOL     OW 1085   1.625   6.676   6.864 -0.2098 -0.2649 -0.2353
64827SOL    HW1 1086   1.693   6.638   6.808  0.0340  1.3723 -1.1143
64827SOL    HW2 1087   1.554   6.698   6.804  0.5377  2.6343 -0.2118
64828SOL     OW 1088  12.707   7.213   2.246 -0.1388 -0.1195  0.7223
64828SOL    HW1 1089  12.656   7.233   2.168 -0.5070 -0.1989  0.9398
64828SOL    HW2 1090  12.750   7.295   2.269  0.9623 -0.4022 -0.2825
64829SOL     OW 1091  12.776   5.343   3.525 -0.0402  0.3122  0.0346
64829SOL    HW1 1092  12.706   5.368   3.585  1.3315 -0.3638  2.0339
64829SOL    HW2 1093  12.732   5.301   3.451 -1.8024  1.2145  0.5347
64830SOL     OW 1094  10.564   9.700   4.532  0.3363  0.0895  0.1436
64830SOL    HW1 1095  10.512   9.753   4.471  0.7640  0.9256  0.4947
64830SOL    HW2 1096  10.569   9.614   4.490 -2.2608 -0.3782  0.6139
64831SOL     OW 1097   4.211   7.424   5.929  0.0998  0.7111  0.4230
64831SOL    HW1 1098   4.274   7.380   5.872  0.0615 -0.7631  1.4542
64831SOL    HW2 1099   4.126   7.405   5.889  0.1916  1.3942 -0.1166
64832SOL     OW 1100   7.263   6.549   8.402 -0.0398 -0.1296  0.0158
64832SOL    HW1 1101   7.223   6.625   8.361  0.3089 -0.5925 -1.2469
64832SOL    HW2 1102   7.358   6.565   8.395  0.0371 -0.6429 -0.2279
64833SOL     OW 1103   7.497   8.579   3.070  0.0365  0.0197  0.1004
64833SOL    HW1 1104   7.569   8.520   3.093 -0.1807 -1.4103 -2.4542
64833SOL    HW2 1105   7.521   8.614   2.984 -2.1575 -0.3832 -0.7655
64834SOL     OW 1106   3.190  12.662   8.323  1.0111  0.4558  0.3810
64834SOL    HW1 1107   3.221  12.643   8.412  3.3460 -2.6426 -0.9184
64834SOL    HW2 1108   3.215  12.753   8.308  0.3631  1.1465  2.9007
64835SOL     OW 1109   1.130  11.125   0.346 -0.1330  0.5687  0.3750
64835SOL    HW1 1110   1.066  11.195   0.351  1.8370  2.6003 -0.8816
64835SOL    HW2 1111   1.153  11.120   0.253  0.3503 -1.2289  0.5525
64836SOL     OW 1112  10.834   3.299   4.887  0.1204 -0.0876 -0.0870
64836SOL    HW1 1113  10.795   3.219   4.853  0.1466 -1.5919  3.0440
64836SOL    HW2 1114  10.927   3.291   4.867  0.4230 -1.8091  1.7157
64837SOL     OW 1115   3.518   3.339   1.176 -1.0686 -0.1603 -0.2620
64837SOL    HW1 1116   3.592   3.398   1.187 -1.5480  0.4279 -0.1109
64837SOL    HW2 1117   3.557   3.252   1.163 -0.3591  0.1826 -0.4392
64838SOL     OW 1118   0.444   0.594   3.492 -0.0603 -0.2101 -0.4253
64838SOL    HW1 1119   0.442   0.510   3.447 -1.5873  0.1758 -1.1420
64838SOL    HW2 1120   0.526   0.634   3.465  0.3218 -1.1446 -0.6781
64839SOL     OW 1121   4.987   6.335   6.943 -0.2508 -0.1674 -0.2433
64839SOL    HW1 1122   5.061   6.354   7.001  0.4301 -1.5735 -0.6095
64839SOL    HW2 1123   4.923   6.404   6.962  0.5045  0.1670  1.2132
64840SOL     OW 1124  12.080   4.281   5.054 -0.2525 -0.2064  0.7774
64840SOL    HW1 1125  12.105   4.233   5.133  0.6874  1.4122  1.5028
64840SOL    HW2 1126  12.160   4.324   5.026 -1.0864  1.0493  0.2474
64841SOL     OW 1127  11.434   1.562   8.889 -0.1095 -0.1712 -0.5226
64841SOL    HW1 1128  11.437   1.502   8.815  0.9664 -1.4109  0.4718
64841SOL    HW2 1129  11.340   1.577   8.904 -0.5041 -2.4985 -0.1646
64842SOL     OW 1130   2.325  10.233  10.506 -0.0813 -0.5779  0.1691
64842SOL    HW1 1131   2.260  10.188  10.560 -1.6728 -1.0417 -2.0392
64842SOL    HW2 1132   2.409  10.193  10.531 -1.1002 -2.7563  0.3062
64843SOL     OW 1133   9.031   6.467  11.022  0.0728  0.1257 -0.1454
64843SOL    HW1 1134   9.021   6.378  10.987 -0.3256 -0.0588  0.4210
64843SOL    HW2 1135   9.058   6.454  11.113 -0.5247  0.5743  0.1029
64844SOL     OW 1136   0.039   7.523   2.895 -0.5659 -0.2637  0.4767
64844SOL    HW1 1137  -0.042   7.570   2.876 -0.1655  0.2231 -0.0641
64844SOL    HW2 1138   0.079   7.573   2.967 -1.0859 -0.9184  1.2302
64845SOL     OW 1139   9.537   8.607  11.933 -0.5076  0.1007  0.0278
64845SOL    HW1 1140   9.562   8.656  12.012  1.0528  0.0324 -0.3880
64845SOL    HW2 1141   9.499   8.526  11.967  0.0471  0.1144  0.7222
64846SOL     OW 1142   0.128   1.216   5.445  0.3414  0.8499 -0.9934
64846SOL    HW1 1143   0.035   1.210   5.466  0.7659  2.6028  2.1540
64846SOL    HW2 1144   0.132   1.254   5.358 -1.8525  0.4341 -1.3148
64847SOL     OW 1145   8.323   9.143   5.053 -0.0133 -0.1364 -0.9800
64847SOL    HW1 1146   8.405   9.190   5.070 -0.9681  1.2836  0.0106
64847SOL    HW2 1147   8.325   9.069   5.114  0.9129 -0.6420 -1.5971
64848SOL     OW 1148   1.814  12.620  11.621  0.2330  0.2237 -0.0093
64848SOL    HW1 1149   1.806  12.531  11.588 -0.7529  0.4501 -0.3951
64848SOL    HW2 1150   1.724  12.652  11.630  0.5662  1.1955  0.0878
64849SOL     OW 1151   3.784   0.336   5.209 -0.3146  0.5890 -0.2220
64849SOL    HW1 1152   3.846   0.268   5.237 -0.6384  0.3231 -0.1469
64849SOL    HW2 1153   3.721   0.289   5.155 -0.7192  0.7727  0.0922
64850SOL     OW 1154   8.068  12.335  11.246 -0.1615  0.1771  0.6909
64850SOL    HW1 1155   8.005  12.308  11.313 -0.5623  0.2450  0.3471
64850SOL    HW2 1156   8.019  12.330  11.164  0.2319  0.3970  0.4406
64851SOL     OW 1157   2.360   2.154   6.192  0.1103 -0.5049  0.7796
64851SOL    HW1 1158   2.380   2.174   6.283  0.7815 -2.6681  1.1682
64851SOL    HW2 1159   2.446   2.141   6.151 -0.2421 -1.7726  0.4180
64852SOL     OW 1160   8.501   6.592   9.676 -0.1270  0.0081 -0.6146
64852SOL    HW1 1161   8.501   6.518   9.737  0.4583  0.1143 -0.4801
64852SOL    HW2 1162   8.453   6.661   9.721  1.8864  0.7439  0.5591
64853SOL     OW 1163   3.962   2.592   7.889  0.2400  0.6124 -0.2929
64853SOL    HW1 1164   3.973   2.538   7.968 -0.5965  0.1530 -0.4789
64853SOL    HW2 1165   3.873   2.625   7.895 -0.2955 -0.5180 -1.7117
64854SOL     OW 1166   9.442   0.317  10.829  0.4569 -0.3823 -0.7290
64854SOL    HW1 1167   9.509   0.257  10.796  2.2428  0.2863  1.4421
64854SOL    HW2 1168   9.483   0.361  10.903 -1.5151  2.0072 -0.9110
64855SOL     OW 1169   8.582   4.182   0.898  0.4164 -0.2867 -0.3086
64855SOL    HW1 1170   8.654   4.176   0.835  0.8806 -0.8961  0.2611
64855SOL    HW2 1171   8.596   4.107   0.956  0.5909  0.8434  1.1470
64856SOL     OW 1172   3.056   1.645  11.403  0.3174  0.0637  0.6627
64856SOL    HW1 1173   2.961   1.651  11.416  0.2414  2.7052 -0.4946
64856SOL    HW2 1174   3.085   1.736  11.397  2.9465 -0.6814  0.9386
64857SOL     OW 1175   1.912   8.613   7.998 -0.5680 -0.2010 -0.1960
64857SOL    HW1 1176   1.829   8.649   8.031 -1.0523 -0.1427 -1.4119
64857SOL    HW2 1177   1.888   8.529   7.958 -0.1378  0.0248 -0.9613
64858SOL     OW 1178  12.672   9.080   3.852 -0.2028  0.1928 -0.5462
64858SOL    HW1 1179  12.739   9.105   3.788 -1.1722 -0.5007 -1.8745
64858SOL    HW2 1180  12.590   9.108   3.814 -1.0858 -2.6070 -0.9320
64859SOL     OW 1181   9.058   9.418  12.559 -0.1112 -0.5870  0.2998
64859SOL    HW1 1182   9.127   9.382  12.504  0.0628 -0.5355  0.4821
64859SOL    HW2 1183   9.003   9.343  12.580 -0.2810 -0.5744 -0.0919
64860SOL     OW 1184  12.525  10.637   2.374 -0.5772  0.3359  0.1232
64860SOL    HW1 1185  12.496  10.620   2.284 -0.3658 -2.5182  0.5228
64860SOL    HW2 1186  12.445  10.662   2.420 -1.2067 -0.9181 -0.2598
64861SOL     OW 1187   0.141   4.940   3.107 -0.3867 -0.0388  0.0534
64861SOL    HW1 1188   0.199   5.015   3.122 -0.0634 -0.2832  0.0380
64861SOL    HW2 1189   0.099   4.925   3.192  1.2235 -1.2401  0.6941
64862SOL     OW 1190   3.236   4.737   3.575  0.3715  0.0039  0.0881
64862SOL    HW1 1191   3.248   4.673   3.505  0.6598 -1.1424  1.1550
64862SOL    HW2 1192   3.160   4.787   3.549  0.7221 -0.1266 -1.2487
64863SOL     OW 1193   5.034   3.795   8.114  0.8010  0.0445  0.3303
64863SOL    HW1 1194   5.108   3.776   8.056  1.3372 -0.9512  1.2830
64863SOL    HW2 1195   5.013   3.710   8.153 -0.7487  0.3499  0.2072
64864SOL     OW 1196   8.494   4.140  11.539  0.0485  0.2135  0.0403
64864SOL    HW1 1197   8.516   4.158  11.448 -1.6086  0.1713 -0.3905
64864SOL    HW2 1198   8.518   4.048  11.552 -1.0448 -0.2027 -0.7925
64865SOL     OW 1199   1.767  11.609  11.494  0.2978 -0.1863 -0.0381
64865SOL    HW1 1200   1.709  11.678  11.525  0.8813  0.5495 -0.5464
64865SOL    HW2 1201   1.841  11.612  11.555 -0.0619 -0.9346  0.4431
64866SOL     OW 1202   8.967  10.686  10.308 -0.1642  0.0790  0.0372
64866SOL    HW1 1203   8.902  10.732  10.255 -0.1565 -0.0220 -0.0589
64866SOL    HW2 1204   8.935  10.596  10.312 -0.1434  0.0768  0.1668
64867SOL     OW 1205   1.129   2.909   9.475  0.2063  0.5560  0.4984
64867SOL    HW1 1206   1.203   2.850   9.488  0.5470  0.7009 -0.7004
64867SOL    HW2 1207   1.157   2.968   9.405 -0.0485  2.2625  1.7435
64868SOL     OW 1208  11.725  11.574   9.941 -0.4376 -0.3354 -0.3852
64868SOL    HW1 1209  11.644  11.545   9.984 -0.1997 -0.4423 -0.0053
64868SOL    HW2 1210  11.795  11.529   9.989 -0.0780  0.6210  0.0101
64869SOL     OW 1211  10.834   6.767  12.255 -0.6363  0.7298  0.5187
64869SOL    HW1 1212  10.826   6.858  12.285  0.6490  0.3419  2.1565
64869SOL    HW2 1213  10.899   6.728  12.312 -0.2754 -0.9286 -0.9260
64870SOL     OW 1214   4.523   4.121   2.192 -0.2868  0.5894 -0.0681
64870SOL    HW1 1215   4.613   4.096   2.172  0.3691  1.1461  1.9216
64870SOL    HW2 1216   4.480   4.039   2.217 -0.1204  0.4250 -0.3207
64871SOL     OW 1217   9.746   6.556   0.808  0.1128 -0.2422 -0.3539
64871SOL    HW1 1218   9.772   6.474   0.765 -2.2132 -0.8248 -0.8123
64871SOL    HW2 1219   9.816   6.574   0.870  0.4090 -2.9598  0.2389
64872SOL     OW 1220  10.668  11.016   1.085 -0.5708 -0.5148 -0.0578
64872SOL    HW1 1221  10.613  11.046   1.158 -1.0267 -2.4550  0.4534
64872SOL    HW2 1222  10.609  11.015   1.010 -1.3039 -2.5951  0.4909
64873SOL     OW 1223  11.123  11.913   6.811 -0.1380 -0.8835  0.2388
64873SOL    HW1 1224  11.092  11.822   6.809  0.8240 -1.3308  2.5962
64873SOL    HW2 1225  11.044  11.965   6.798 -0.6302 -2.0214 -1.7050
64874SOL     OW 1226  10.896   4.448   8.606 -1.1176  0.1870  0.4509
64874SOL    HW1 1227  10.962   4.383   8.629 -0.6086  0.2909 -0.6404
64874SOL    HW2 1228  10.940   4.506   8.543 -1.8417  1.0437  0.7076
64875SOL     OW 1229   6.405   6.673   9.112  0.0125  0.0407  0.0648
64875SOL    HW1 1230   6.353   6.679   9.032 -1.1760 -1.4300  0.6768
64875SOL    HW2 1231   6.488   6.633   9.083  0.1045  0.7064 -0.6248
64876SOL     OW 1232   0.832  11.467   1.123 -0.0080  0.2893 -0.2792
64876SOL    HW1 1233   0.847  11.500   1.212  1.2770 -1.0447  0.0322
64876SOL    HW2 1234   0.745  11.430   1.125 -0.7786  1.9975 -0.1502
64877SOL     OW 1235   8.045  12.198   0.046  0.3822  0.3706 -0.8306
64877SOL    HW1 1236   8.011  12.275   0.092  0.9333 -0.1454  0.4745
64877SOL    HW2 1237   7.970  12.164  -0.003 -0.0095  1.3989 -0.9714
64878SOL     OW 1238   3.942   5.991  11.417 -0.0694  0.4157  0.3771
64878SOL    HW1 1239   4.026   6.022  11.451  0.6971 -1.2887  0.1110
64878SOL    HW2 1240   3.876   6.036  11.472  1.0384  0.5962  1.6122
64879SOL     OW 1241  11.884   2.238   0.889 -0.4943  0.1931  0.3756
64879SOL    HW1 1242  11.940   2.275   0.822  0.3035 -0.0404  0.8965
64879SOL    HW2 1243  11.939   2.173   0.933 -1.9763 -2.0695 -0.8682
64880SOL     OW 1244  10.981  11.173   1.193  0.3392 -0.1523  0.1788
64880SOL    HW1 1245  10.925  11.104   1.157  2.6908 -1.2289 -1.6683
64880SOL    HW2 1246  11.034  11.129   1.259  0.9113  0.2039 -0.0383
64881SOL     OW 1247   9.539   7.545   3.415 -0.3948 -0.1553  0.0897
64881SOL    HW1 1248   9.611   7.604   3.391 -0.0034 -0.9380 -0.7280
64881SOL    HW2 1249   9.529   7.488   3.339 -0.8642 -1.0568  0.8108
64882SOL     OW 1250   1.271   7.589   7.472 -0.2172 -0.1284  0.5484
64882SOL    HW1 1251   1.202   7.522   7.480 -0.1233 -0.0597  2.1824
64882SOL    HW2 1252   1.266   7.638   7.554 -0.1293  1.7438 -0.5289
64883SOL     OW 1253   4.056   5.840   9.310  0.1298 -0.1683  0.4568
64883SOL    HW1 1254   4.007   5.917   9.281 -0.6354 -0.5073  0.8129
64883SOL    HW2 1255   4.145   5.872   9.323 -0.1971  0.6870  0.6859
64884SOL     OW 1256   5.089   3.820   7.698  0.0552  0.6959 -0.9497
64884SOL    HW1 1257   5.032   3.873   7.754 -0.7109 -0.5231 -0.5234
64884SOL    HW2 1258   5.175   3.860   7.706 -0.4851  1.8092 -0.5793
64885SOL     OW 1259   2.371   7.619   0.927 -0.9896 -0.4926  0.5351
64885SOL    HW1 1260   2.299   7.660   0.879 -1.9214 -0.7803  1.6210
64885SOL    HW2 1261   2.374   7.667   1.010 -0.2743 -0.8284  0.7095
64886SOL     OW 1262   8.064   3.988   0.346 -0.1282  0.4969  0.0234
64886SOL    HW1 1263   8.062   3.905   0.394  1.3919  1.1986  1.3980
64886SOL    HW2 1264   8.015   3.970   0.266  0.1090 -1.7086  0.2984
64887SOL     OW 1265   5.986   1.383  12.021 -0.3858  0.2751 -0.4489
64887SOL    HW1 1266   5.912   1.394  12.080 -0.9118 -0.2135 -1.0039
64887SOL    HW2 1267   6.016   1.473  12.003 -0.3653  0.4381  0.3599
64888SOL     OW 1268  10.000   9.356   9.015  0.0910  0.2609 -0.6784
64888SOL    HW1 1269  10.034   9.439   8.980 -0.3787  0.3506 -0.9368
64888SOL    HW2 1270   9.910   9.377   9.040  1.0520  0.8567  2.8528
64889SOL     OW 1271  10.062   0.310   0.393  0.3985  0.2631 -0.0712
64889SOL    HW1 1272  10.148   0.276   0.369 -0.4383 -1.6464 -0.5422
64889SOL    HW2 1273  10.015   0.317   0.310  0.0283  1.1554  0.1957
64890SOL     OW 1274   1.930   2.635   5.422 -0.5112  0.1349  0.2039
64890SOL    HW1 1275   1.977   2.632   5.339  1.5179 -0.2717  1.2847
64890SOL    HW2 1276   1.930   2.728   5.447 -2.6784  0.5277 -1.0077
64891SOL     OW 1277   0.009   2.661   7.853  0.3950  0.0261  0.1634
64891SOL    HW1 1278  -0.040   2.723   7.907  2.0489  1.7825 -0.2182
64891SOL    HW2 1279  -0.029   2.672   7.765  1.0928  0.9945 -0.0289
64892SOL     OW 1280  10.228   8.945  11.182  0.0486  0.1590 -0.0648
64892SOL    HW1 1281  10.200   8.861  11.147  0.3889  0.1845 -0.4066
64892SOL    HW2 1282  10.148   8.997  11.188 -0.4788 -0.7928  1.8993
64893SOL     OW 1283   4.600   7.082  11.989 -0.0962 -0.1616  0.0968
64893SOL    HW1 1284   4.686   7.106  11.955 -0.4353  1.5439  0.3363
64893SOL    HW2 1285   4.606   7.098  12.083 -1.1672  1.7014 -0.1061
64894SOL     OW 1286   5.290   8.223   8.844 -0.0541 -0.2545 -0.1040
64894SOL    HW1 1287   5.294   8.138   8.801 -0.0011 -1.4067  2.0674
64894SOL    HW2 1288   5.380   8.241   8.871  0.6336  2.1252 -3.3467
64895SOL     OW 1289   9.198   9.550  12.283 -0.4687 -0.3967  0.1420
64895SOL    HW1 1290   9.168   9.638  12.305  2.3661  0.6410  0.3371
64895SOL    HW2 1291   9.156   9.493  12.348 -0.7928  1.1169  1.3032
64896SOL     OW 1292   4.075   4.625   2.321  0.8143  0.3898  0.0112
64896SOL    HW1 1293   4.082   4.593   2.411  0.3225  0.5978  0.1263
64896SOL    HW2 1294   4.166   4.638   2.294  1.0017 -0.5278  0.1632
64897SOL     OW 1295   2.504   3.178   2.738  0.0613  0.4537 -0.0426
64897SOL    HW1 1296   2.440   3.231   2.785 -0.1741 -0.5642  0.8226
64897SOL    HW2 1297   2.568   3.153   2.805  0.6793  0.4213 -0.6310
64898SOL     OW 1298  10.851   6.747  10.741 -0.1000 -0.0599  0.1207
64898SOL    HW1 1299  10.785   6.798  10.788  0.1921  1.4497 -1.0278
64898SOL    HW2 1300  10.801   6.686  10.687 -0.6964  2.0400 -1.8385
64899SOL     OW 1301  11.043  11.526   8.691 -0.2129  0.2231 -0.5286
64899SOL    HW1 1302  10.959  11.565   8.713 -0.0875 -0.9338  2.5013
64899SOL    HW2 1303  11.103  11.558   8.758  0.5899 -2.6136  0.2710
64900SOL     OW 1304  12.227   1.506   2.164  0.5397 -0.6628 -0.1402
64900SOL    HW1 1305  12.183   1.441   2.220  0.8670 -0.5136  0.2970
64900SOL    HW2 1306  12.156   1.546   2.114  0.2874 -1.0845 -0.1272
64901SOL     OW 1307   7.421   8.947   8.144  0.2610  0.8307  0.0386
64901SOL    HW1 1308   7.504   8.907   8.120  0.7221  1.7293  0.0954
64901SOL    HW2 1309   7.412   8.929   8.238  0.6591  1.2088  0.1494
64902SOL     OW 1310   4.308   8.086   1.924  0.0473  0.3761 -0.0422
64902SOL    HW1 1311   4.269   8.047   1.846 -0.3126  1.7648 -0.5890
64902SOL    HW2 1312   4.233   8.102   1.982  0.1028  0.8090 -0.0850
64903SOL     OW 1313  10.058   4.401   1.240 -0.0391  0.3287  0.1648
64903SOL    HW1 1314   9.992   4.448   1.188  0.0904 -0.3539 -0.6378
64903SOL    HW2 1315  10.069   4.455   1.318 -0.4785  1.2176 -0.3638
64904SOL     OW 1316  11.368   2.204   6.223 -0.3618 -0.2452 -0.3852
64904SOL    HW1 1317  11.395   2.208   6.314 -2.1817 -0.4017  0.2163
64904SOL    HW2 1318  11.407   2.281   6.182 -0.3744  0.3992  0.7873
64905SOL     OW 1319  10.231   9.411   8.668 -0.1855  0.0081 -0.5944
64905SOL    HW1 1320  10.217   9.504   8.647 -0.3382  0.1393  0.0589
64905SOL    HW2 1321  10.318   9.409   8.708 -1.0355  0.2289  1.3861
64906SOL     OW 1322   6.457   6.047   7.407 -0.1683  0.2720 -0.0269
64906SOL    HW1 1323   6.528   6.036   7.470  1.1865  0.8792 -1.3791
64906SOL    HW2 1324   6.462   6.139   7.381 -1.1995  0.2244 -0.4563
64907SOL     OW 1325  10.225   0.995   0.099 -0.0921 -0.6939  0.8820
64907SOL    HW1 1326  10.225   1.034   0.186 -0.0362  0.1474  0.5151
64907SOL    HW2 1327  10.220   1.069   0.039 -0.1312 -1.2597  0.1652
64908SOL     OW 1328   8.402  12.065   0.116 -0.3845  0.3340  0.6515
64908SOL    HW1 1329   8.361  12.143   0.078 -0.8210 -1.3134 -2.6093
64908SOL    HW2 1330   8.349  11.992   0.086  2.3636 -1.5560 -0.0231
64909SOL     OW 1331   0.092   3.983  11.243  0.5881 -0.7149 -0.2609
64909SOL    HW1 1332   0.158   3.937  11.191  1.7399 -0.7573  1.1611
64909SOL    HW2 1333   0.081   4.067  11.200  1.2403 -0.8872 -0.7715
64910SOL     OW 1334  10.034   0.951   7.130 -0.1700  0.1702  0.0381
64910SOL    HW1 1335  10.125   0.941   7.158 -0.4191 -1.3360  0.4108
64910SOL    HW2 1336  10.039   0.968   7.036  0.4844 -0.2168  0.0009
64911SOL     OW 1337   9.958   0.553  10.839  0.1436 -0.3573 -0.2350
64911SOL    HW1 1338  10.015   0.493  10.888 -0.6673 -0.0957  1.0851
64911SOL    HW2 1339   9.883   0.499  10.814 -0.9916  0.2315  1.6840
64912SOL     OW 1340  11.583   4.281   1.263 -0.0943 -0.2303 -0.1847
64912SOL    HW1 1341  11.648   4.333   1.309  0.2634 -1.2300  0.4631
64912SOL    HW2 1342  11.540   4.229   1.331 -1.7697  0.5857 -0.5551
64913SOL     OW 1343   0.950   8.151  11.232 -0.0683 -0.1569 -0.0080
64913SOL    HW1 1344   0.987   8.063  11.226 -1.4742 -0.9732  2.2797
64913SOL    HW2 1345   1.019   8.203  11.273  0.5654 -0.2808 -0.8750
64914SOL     OW 1346  10.864   4.931   9.708 -0.0252  0.5735  0.1749
64914SOL    HW1 1347  10.913   4.906   9.786  1.2496  0.2230 -0.6951
64914SOL    HW2 1348  10.911   5.007   9.674 -0.7171  0.8783 -0.1173
64915SOL     OW 1349   7.937   3.805  11.297  0.0905 -0.1248 -0.1980
64915SOL    HW1 1350   8.010   3.813  11.235 -0.8961  0.2492 -1.3734
64915SOL    HW2 1351   7.897   3.892  11.297  0.0412 -0.1418  0.9384
64916SOL     OW 1352   1.923  10.533   4.228 -0.0403 -0.4361 -0.6448
64916SOL    HW1 1353   1.977  10.504   4.154 -0.1966 -0.7905 -0.6209
64916SOL    HW2 1354   1.835  10.504   4.206  0.3668 -3.3873  1.0950
64917SOL     OW 1355   6.797   5.891   6.183  0.6408 -1.1419  0.8006
64917SOL    HW1 1356   6.784   5.812   6.131 -0.1012 -2.0429  2.2886
64917SOL    HW2 1357   6.723   5.947   6.161  1.1767 -0.8162 -0.2723
64918SOL     OW 1358   1.996   5.689   0.960 -0.1367 -0.5886 -0.5714
64918SOL    HW1 1359   2.051   5.711   1.035 -0.9825 -0.7999  0.1219
64918SOL    HW2 1360   2.040   5.614   0.920 -1.4584 -2.7530  1.7672
64919SOL     OW 1361   1.621   6.759  11.460 -0.3917 -0.2901  0.1360
64919SOL    HW1 1362   1.626   6.834  11.518  0.7116 -1.5105  1.6920
64919SOL    HW2 1363   1.666   6.786  11.380  2.4871 -0.1569  1.6919
64920SOL     OW 1364   0.921   2.740   7.030  0.5671 -0.5265  0.8089
64920SOL    HW1 1365   0.966   2.757   6.948  0.2695 -1.7977  0.3666
64920SOL    HW2 1366   0.885   2.652   7.021 -0.1121 -0.4025  2.0107
64921SOL     OW 1367   2.114   7.790   8.144  0.0290 -0.1262 -0.9529
64921SOL    HW1 1368   2.208   7.784   8.126  0.3695 -0.9107  0.8742
64921SOL    HW2 1369   2.100   7.730   8.217 -2.1000 -0.7904 -1.8529
64922SOL     OW 1370   4.940   7.361   4.341  0.0558  0.0293  0.3324
64922SOL    HW1 1371   4.918   7.317   4.423  0.0510 -2.3398 -0.8521
64922SOL    HW2 1372   5.032   7.338   4.325  0.0075  0.3108 -0.3974
64923SOL     OW 1373   9.475   2.924  12.418 -0.0624 -0.5961 -0.0994
64923SOL    HW1 1374   9.402   2.984  12.433 -0.4471 -0.9867 -0.3716
64923SOL    HW2 1375   9.462   2.893  12.328  0.9990  0.0882 -0.4988
64924SOL     OW 1376   2.509   6.922   6.864  0.6036  0.2670  0.3328
64924SOL    HW1 1377   2.594   6.917   6.820 -0.8054 -0.8075 -2.4539
64924SOL    HW2 1378   2.476   7.009   6.841 -0.1149 -0.2775 -0.7415
64925SOL     OW 1379   5.239   9.042   2.228 -0.0587 -0.0647 -0.4423
64925SOL    HW1 1380   5.264   9.080   2.312 -0.6554 -0.0216 -0.2789
64925SOL    HW2 1381   5.294   9.086   2.164 -0.3525  0.6787 -0.1948
64926SOL     OW 1382   5.593   7.815   2.329  0.8413 -0.2470 -0.2119
64926SOL    HW1 1383   5.500   7.835   2.342  0.7801 -0.9988  0.5475
64926SOL    HW2 1384   5.602   7.723   2.354  1.9509  0.0420  0.5320
64927SOL     OW 1385   7.610  11.177  12.620  0.0368 -0.3174  0.1037
64927SOL    HW1 1386   7.522  11.181  12.657  0.5563 -1.3159  1.5825
64927SOL    HW2 1387   7.611  11.243  12.552 -1.8061 -0.1793  0.1564
64928SOL     OW 1388   3.381   1.375   4.721  0.5660  0.7505  0.1032
64928SOL    HW1 1389   3.389   1.341   4.632  1.8809  1.4309 -0.0625
64928SOL    HW2 1390   3.370   1.470   4.710 -0.1292  0.7463  0.6477
64929SOL     OW 1391   6.164   9.084   8.639  0.2412 -0.5862 -0.2693
64929SOL    HW1 1392   6.251   9.098   8.601 -0.4806 -0.5521 -1.9914
64929SOL    HW2 1393   6.165   9.133   8.721  1.0937  1.3041 -1.3489
64930SOL     OW 1394  12.640   9.836   0.226 -0.2061  0.4332 -0.3141
64930SOL    HW1 1395  12.694   9.909   0.254 -0.2290  0.0912  0.6536
64930SOL    HW2 1396  12.696   9.759   0.236 -0.3181  0.2649 -0.9271
64931SOL     OW 1397   3.262  12.030   6.624  0.5368 -0.2018  0.3558
64931SOL    HW1 1398   3.293  11.950   6.582  0.1017 -0.0168 -0.3381
64931SOL    HW2 1399   3.272  12.014   6.718 -1.3238 -1.8326  0.3474
64932SOL     OW 1400   4.743   7.946   8.913  0.1707  0.0647 -0.0697
64932SOL    HW1 1401   4.684   7.871   8.902  2.2979 -1.5786 -1.1223
64932SOL    HW2 1402   4.830   7.906   8.923  1.4345  2.4206 -0.9464
64933SOL     OW 1403   3.523   9.437  12.212 -0.8979  0.5940  0.4109
64933SOL    HW1 1404   3.460   9.398  12.273 -1.1737 -0.0778 -0.2752
64933SOL    HW2 1405   3.515   9.531  12.226 -1.2069  0.4643  1.1598
64934SOL     OW 1406   8.212  10.677  10.631  0.2119 -0.2692  0.1380
64934SOL    HW1 1407   8.246  10.588  10.637  1.2348  0.1910  2.9286
64934SOL    HW2 1408   8.291  10.732  10.633 -0.4508  0.7088  1.3196
64935SOL     OW 1409   6.211   3.397   3.386  0.5268  0.4172  0.2816
64935SOL    HW1 1410   6.131   3.353   3.357  0.2600  0.1322  1.4001
64935SOL    HW2 1411   6.198   3.489   3.362  0.0800  0.2921  0.0244
64936SOL     OW 1412   1.872   0.530  11.259 -0.2950  0.1863 -0.5467
64936SOL    HW1 1413   1.837   0.604  11.308 -0.2277  0.3330 -0.7169
64936SOL    HW2 1414   1.805   0.511  11.194 -0.8805 -0.7163  0.2971
64937SOL     OW 1415   2.134   4.809  10.346  0.1129 -0.2258  0.3600
64937SOL    HW1 1416   2.210   4.840  10.396 -0.6622  0.8032  0.9447
64937SOL    HW2 1417   2.172   4.762  10.272  1.3494  0.8491  0.2702
64938SOL     OW 1418   7.500   3.020   4.386 -0.0912 -0.4744  0.1056
64938SOL    HW1 1419   7.498   3.046   4.294 -0.3775  1.1676  0.5302
64938SOL    HW2 1420   7.411   3.034   4.417  0.3622  0.6024  1.0103
64939SOL     OW 1421   5.602  12.503   1.048  0.2974  0.3046  0.5390
64939SOL    HW1 1422   5.674  12.469   0.996 -0.0010  2.9412 -1.8289
64939SOL    HW2 1423   5.645  12.543   1.125  0.9717 -1.3206  1.0481
64940SOL     OW 1424   0.237   4.713  12.608 -0.4676 -0.0197 -0.2404
64940SOL    HW1 1425   0.320   4.677  12.639 -0.0578  0.7916 -0.3704
64940SOL    HW2 1426   0.172   4.680  12.670 -0.1209 -1.0351 -0.4010
64941SOL     OW 1427  11.696  10.353  10.492  0.2608  0.6861 -0.5303
64941SOL    HW1 1428  11.672  10.446  10.489 -0.0194  0.6873  0.9314
64941SOL    HW2 1429  11.647  10.318  10.566  1.2861 -0.3608 -0.3163
64942SOL     OW 1430   6.883  10.046  12.312 -0.2105 -0.0905  0.3567
64942SOL    HW1 1431   6.897   9.991  12.235 -2.0654  0.7324 -0.6434
64942SOL    HW2 1432   6.836  10.122  12.278 -0.3887  0.6582  2.1888
64943SOL     OW 1433   6.123   9.114   5.514  0.3866  0.2187  0.2326
64943SOL    HW1 1434   6.183   9.047   5.548  2.6523  2.3518  0.6329
64943SOL    HW2 1435   6.139   9.115   5.420 -0.5945 -0.6001  0.0239
64944SOL     OW 1436   2.478   5.934   8.528  0.5019  0.9497 -0.7966
64944SOL    HW1 1437   2.548   5.965   8.585  1.2565 -0.3898 -0.9583
64944SOL    HW2 1438   2.487   5.839   8.528 -1.2731  0.7370 -0.8901
64945SOL     OW 1439   6.355   9.439   0.611  0.0108 -0.6452 -0.3473
64945SOL    HW1 1440   6.426   9.419   0.672  0.0082  1.2094  0.3290
64945SOL    HW2 1441   6.359   9.369   0.546  0.8038 -1.9998  1.0837
64946SOL     OW 1442   0.589   1.406   1.837  0.2900  0.3706 -0.0301
64946SOL    HW1 1443   0.590   1.494   1.801  0.8672  0.9976  1.4311
64946SOL    HW2 1444   0.633   1.352   1.771 -0.3701  1.0847 -1.0892
64947SOL     OW 1445  10.014   2.817   3.534  0.0949 -0.3992  0.2538
64947SOL    HW1 1446   9.955   2.885   3.499  0.0912 -0.6468 -0.2269
64947SOL    HW2 1447   9.956   2.745   3.557 -0.0011  0.0638  1.5588
64948SOL     OW 1448   1.355   5.692   2.825 -0.5559  0.0274 -0.1810
64948SOL    HW1 1449   1.333   5.751   2.753  0.1656  1.4536  0.7104
64948SOL    HW2 1450   1.270   5.670   2.864 -0.7830  1.4680  0.1962
64949SOL     OW 1451   4.518   7.691   5.290  0.0640  0.0072  0.3261
64949SOL    HW1 1452   4.444   7.665   5.345  1.0935  1.2836  2.4531
64949SOL    HW2 1453   4.578   7.617   5.295 -1.0372 -1.0859 -1.5079
64950SOL     OW 1454   5.134  10.666   5.670  0.4430  0.0522 -0.4972
64950SOL    HW1 1455   5.104  10.715   5.746  0.2920 -1.1262  0.2352
64950SOL    HW2 1456   5.222  10.700   5.652  0.2423  0.7530 -0.1713
64951SOL     OW 1457  11.265   3.727   9.592  0.3394  0.9269 -0.2662
64951SOL    HW1 1458  11.211   3.784   9.538 -0.3794 -0.2002 -0.7875
64951SOL    HW2 1459  11.253   3.759   9.682 -1.7176  0.3238 -0.2937
64952SOL     OW 1460   6.201   8.311   3.452  0.0097  0.4666 -0.1381
64952SOL    HW1 1461   6.275   8.310   3.391  0.0512  0.5141 -0.0892
64952SOL    HW2 1462   6.124   8.305   3.397  0.0581  0.1908 -0.1768
64953SOL     OW 1463   6.488   3.578   2.188  0.3920  0.7252  0.1167
64953SOL    HW1 1464   6.517   3.561   2.098 -0.3702  1.3873 -0.2592
64953SOL    HW2 1465   6.566   3.559   2.241  0.4026 -1.2696 -0.5065
64954SOL     OW 1466   7.669   0.582   7.967  0.0832 -0.1202  0.6811
64954SOL    HW1 1467   7.698   0.593   8.057  0.4870 -1.5630  0.7531
64954SOL    HW2 1468   7.574   0.577   7.973  0.1137 -0.2822  1.0355
64955SOL     OW 1469   5.732   3.947   7.671 -0.2396 -0.3800  0.0182
64955SOL    HW1 1470   5.648   3.942   7.625  0.4235  0.6220 -1.3871
64955SOL    HW2 1471   5.774   4.025   7.634  1.2258 -0.7611  0.8350
64956SOL     OW 1472   0.111   6.824   1.673 -0.4194 -0.4858  0.0479
64956SOL    HW1 1473   0.050   6.892   1.643  0.1378  0.2601  0.5731
64956SOL    HW2 1474   0.122   6.841   1.766 -2.1430 -2.7776  0.7640
64957SOL     OW 1475  12.246   3.431   3.929 -0.9519 -0.2479 -0.3040
64957SOL    HW1 1476  12.244   3.527   3.932 -1.3058 -0.2703  1.7618
64957SOL    HW2 1477  12.154   3.406   3.917 -0.9432 -0.3302 -0.1998
64958SOL     OW 1478   7.174   4.282   2.785 -0.0029  0.2840  0.2297
64958SOL    HW1 1479   7.194   4.342   2.713  1.7335 -1.0649 -0.4818
64958SOL    HW2 1480   7.259   4.252   2.815 -0.7960 -1.0790  1.2065
64959SOL     OW 1481  11.064   3.067   9.828 -0.2037 -0.5215  0.3881
64959SOL    HW1 1482  11.028   3.005   9.764 -2.0210 -0.0287  0.8755
64959SOL    HW2 1483  10.989   3.094   9.880  0.5524  1.9502  0.3274
64960SOL     OW 1484   2.784   9.501   5.160 -0.7464  0.3922  0.2555
64960SOL    HW1 1485   2.857   9.476   5.103 -2.1938  0.2864 -1.6850
64960SOL    HW2 1486   2.718   9.432   5.145 -0.8425 -0.1644  2.8514
64961SOL     OW 1487   9.709   7.189  12.476 -0.2149 -0.0282 -0.3731
64961SOL    HW1 1488   9.670   7.140  12.403 -0.7840  0.4189 -0.3707
64961SOL    HW2 1489   9.634   7.218  12.528  0.1517  0.3586 -0.0621
64962SOL     OW 1490   4.206   4.530  10.103  0.1079  0.6005  0.4362
64962SOL    HW1 1491   4.243   4.616  10.125 -0.1937  1.0124 -0.5845
64962SOL    HW2 1492   4.196   4.533  10.008  1.9551 -1.3186  0.1056
64963SOL     OW 1493   0.164   0.896   9.353 -0.4892 -0.1207 -0.2332
64963SOL    HW1 1494   0.249   0.923   9.386 -0.1735 -0.1376 -1.0163
64963SOL    HW2 1495   0.140   0.963   9.288 -0.5626 -0.6980 -0.8163
64964SOL     OW 1496   8.463   7.195   0.135  0.1106 -0.1275  0.2249
64964SOL    HW1 1497   8.440   7.285   0.159  1.5557  0.2683  0.2128
64964SOL    HW2 1498   8.489   7.155   0.218  0.9365 -0.0630  0.0039
64965SOL     OW 1499   8.343  11.923   7.528  0.1574  0.3914  0.3390
64965SOL    HW1 1500   8.350  11.837   7.569  2.7724  0.5898  0.4595
64965SOL    HW2 1501   8.306  11.979   7.597  1.5161  0.0451  1.3863
64966SOL     OW 1502   4.891   9.648   7.684 -0.0601 -0.6894  0.0005
64966SOL    HW1 1503   4.907   9.568   7.633 -2.3996 -1.0704 -0.2483
64966SOL    HW2 1504   4.827   9.621   7.750 -1.5255  1.1589 -0.6007
64967SOL     OW 1505  10.678  10.043  12.247  0.1165 -0.6772  0.7162
64967SOL    HW1 1506  10.687  10.024  12.154 -0.0174 -1.4762  0.8569
64967SOL    HW2 1507  10.671  10.138  12.252  1.0605 -0.5547 -0.0053
64968SOL     OW 1508  11.624   9.619   6.223  0.4702 -0.6572 -0.5015
64968SOL    HW1 1509  11.637   9.626   6.129  0.0389 -0.1506 -0.5298
64968SOL    HW2 1510  11.530   9.633   6.236  0.4562 -1.1071 -0.0282
64969SOL     OW 1511  11.101   1.656   1.707 -0.1873  0.0251 -0.3908
64969SOL    HW1 1512  11.082   1.610   1.625  0.4305  0.5585 -0.8399
64969SOL    HW2 1513  11.129   1.743   1.680  2.3836 -0.5364  0.2352
64970SOL     OW 1514   6.084   7.562   5.706 -0.2588 -0.1830  0.0711
64970SOL    HW1 1515   6.074   7.523   5.619 -1.4056 -0.1213  0.1581
64970SOL    HW2 1516   6.148   7.507   5.750  0.9515  0.2555 -1.0820
64971SOL     OW 1517   7.656   8.306   7.538 -0.0076 -0.3060  0.1524
64971SOL    HW1 1518   7.736   8.332   7.584  0.5861 -2.6044  0.5037
64971SOL    HW2 1519   7.665   8.343   7.450  2.0517 -1.5342 -0.2077
64972SOL     OW 1520  10.663  12.065   2.466  0.4277  0.1922 -0.7087
64972SOL    HW1 1521  10.589  12.126   2.467  0.5440  0.3852  2.0251
64972SOL    HW2 1522  10.739  12.120   2.448  0.2726  0.4849 -0.4771
64973SOL     OW 1523   1.364   7.007   5.368 -0.3344  0.1727 -0.2851
64973SOL    HW1 1524   1.337   7.014   5.460  2.4813  0.6217  0.5958
64973SOL    HW2 1525   1.352   6.914   5.347  1.2708 -0.4934  1.3939
64974SOL     OW 1526  10.364   0.826   1.472 -0.3665 -0.6479  0.0659
64974SOL    HW1 1527  10.390   0.918   1.469  0.6051 -0.8964  0.5578
64974SOL    HW2 1528  10.341   0.805   1.381  0.7861 -0.2945 -0.3278
64975SOL     OW 1529   7.618   1.897   7.541  0.2867  0.1742  0.3864
64975SOL    HW1 1530   7.675   1.857   7.475 -0.0025 -0.3800  0.4715
64975SOL    HW2 1531   7.530   1.869   7.517  0.1299  0.3720  0.7258
64976SOL     OW 1532   5.674   2.746   4.433 -0.1610  0.3105 -0.4970
64976SOL    HW1 1533   5.707   2.714   4.517  0.6896  0.6537 -0.6882
64976SOL    HW2 1534   5.583   2.715   4.429 -0.1034  0.0071  0.3940
64977SOL     OW 1535   4.361   5.676   8.376  0.0944 -0.0955 -0.1042
64977SOL    HW1 1536   4.390   5.667   8.467 -0.2579 -0.2035  0.0026
64977SOL    HW2 1537   4.380   5.767   8.353  0.6447 -0.2023 -0.0887
64978SOL     OW 1538   8.828   8.974   7.293 -0.0752 -0.3018  0.0549
64978SOL    HW1 1539   8.811   9.067   7.309 -0.0027 -0.1142 -0.9180
64978SOL    HW2 1540   8.878   8.945   7.370 -0.2050  0.4247  0.4204
64979SOL     OW 1541   5.644   5.361   8.334 -0.3501  0.3098  0.0512
64979SOL    HW1 1542   5.713   5.310   8.290 -1.1651 -0.5487 -0.2511
64979SOL    HW2 1543   5.577   5.373   8.267 -1.3126 -0.4477  0.8595
64980SOL     OW 1544   0.936   4.480   7.685  0.4323  0.2347  0.6969
64980SOL    HW1 1545   0.861   4.465   7.627 -0.3214  0.7274  1.5125
64980SOL    HW2 1546   0.897   4.511   7.767  1.5447  0.6039  1.1062
64981SOL     OW 1547   3.790   5.688   8.379  0.4671 -0.1957 -0.1823
64981SOL    HW1 1548   3.808   5.698   8.285  0.6671  1.3957  0.0004
64981SOL    HW2 1549   3.819   5.771   8.418 -0.2545 -0.5655  1.1925
64982SOL     OW 1550   4.346   6.884   3.663 -0.1601  0.2706  0.2249
64982SOL    HW1 1551   4.351   6.921   3.575  0.6359 -2.1805 -0.8613
64982SOL    HW2 1552   4.432   6.844   3.678 -0.1127  1.0412  2.3392
64983SOL     OW 1553   3.684   5.717  10.789  0.1911  0.3812  0.0073
64983SOL    HW1 1554   3.752   5.649  10.785  0.9495  1.0487  1.0853
64983SOL    HW2 1555   3.654   5.715  10.880 -2.4553 -1.0172 -0.7835
64984SOL     OW 1556   7.251   9.765  11.496 -0.0038 -0.1009  0.7911
64984SOL    HW1 1557   7.201   9.713  11.433 -1.2214  2.3824 -0.4591
64984SOL    HW2 1558   7.247   9.855  11.461  1.1448  1.0252  3.2888
64985SOL     OW 1559  10.320   9.501   1.698 -0.2694 -0.5081 -0.0978
64985SOL    HW1 1560  10.364   9.448   1.765  0.4405 -1.3144 -1.1635
64985SOL    HW2 1561  10.240   9.451   1.677 -0.9850  0.2279  0.8104
64986SOL     OW 1562   6.977   3.325   1.975  0.1617 -1.1095 -0.4387
64986SOL    HW1 1563   7.016   3.277   1.902  1.8144 -0.1467 -0.2506
64986SOL    HW2 1564   7.040   3.395   1.993 -0.3994 -1.0923  1.6512
64987SOL     OW 1565   3.753  10.767  10.417  0.3867 -0.2601  0.8649
64987SOL    HW1 1566   3.677  10.802  10.370 -0.1640 -1.6342  0.6750
64987SOL    HW2 1567   3.737  10.791  10.508  2.0449  3.4714  0.3795
64988SOL     OW 1568   5.300   9.984   3.776  0.1395  0.4378 -0.2785
64988SOL    HW1 1569   5.354  10.046   3.727 -0.3073 -1.6582 -3.8298
64988SOL    HW2 1570   5.225   9.968   3.718 -0.8918 -1.6692  1.5049
64989SOL     OW 1571   1.662   3.208   5.485  0.3233  0.2547 -0.3057
64989SOL    HW1 1572   1.642   3.197   5.392 -1.2842  0.5654 -0.0226
64989SOL    HW2 1573   1.751   3.175   5.495 -0.2699 -1.8487 -1.5467
64990SOL     OW 1574   4.436   2.730   6.563 -0.3404  0.4593 -0.2471
64990SOL    HW1 1575   4.468   2.818   6.582  1.4549 -0.4973  1.6309
64990SOL    HW2 1576   4.462   2.714   6.473  1.6872  0.9500  0.1981
64991SOL     OW 1577   5.639   3.168  10.666  0.1111  0.0286  0.2855
64991SOL    HW1 1578   5.645   3.223  10.587  2.4902 -2.6381 -1.6292
64991SOL    HW2 1579   5.678   3.222  10.735  1.2246  1.2372 -1.2025
64992SOL     OW 1580   0.860   8.949   4.364 -0.3082 -0.3139 -0.1932
64992SOL    HW1 1581   0.791   8.894   4.326 -1.4186  1.8382 -1.4750
64992SOL    HW2 1582   0.813   9.008   4.423  0.4079  1.1298 -1.0177
64993SOL     OW 1583   9.607   3.494   3.247 -0.1160  0.1895  0.1638
64993SOL    HW1 1584   9.530   3.548   3.267  0.9038  1.5226  0.6179
64993SOL    HW2 1585   9.614   3.497   3.151  0.0312  1.0205  0.1946
64994SOL     OW 1586   5.653   7.571   2.101 -0.3903 -0.2270 -0.3798
64994SOL    HW1 1587   5.725   7.511   2.118 -1.1300 -0.5132  2.2693
64994SOL    HW2 1588   5.691   7.658   2.108 -0.3517 -0.3661  1.6030
64995SOL     OW 1589   0.680   2.836  11.322  0.0783 -0.0404 -0.5679
64995SOL    HW1 1590   0.705   2.814  11.412 -0.1078  0.4212 -0.3959
64995SOL    HW2 1591   0.675   2.752  11.277 -1.4251 -0.4516  0.2715
64996SOL     OW 1592   9.118   8.564  11.997 -0.0510 -0.5805  0.0260
64996SOL    HW1 1593   9.106   8.483  12.048 -0.9725 -0.3157  0.2394
64996SOL    HW2 1594   9.166   8.622  12.057 -3.5607  0.7869  1.8166
64997SOL     OW 1595   9.741  10.983   9.434  0.0080  0.0803  0.2356
64997SOL    HW1 1596   9.754  10.976   9.528 -0.7923 -1.4631  0.2684
64997SOL    HW2 1597   9.794  10.912   9.397 -0.5398 -0.0161 -0.3879
64998SOL     OW 1598  11.969   2.723   8.402  0.1035  0.1513  0.3559
64998SOL    HW1 1599  12.050   2.758   8.438  1.2867 -1.3388 -0.7659
64998SOL    HW2 1600  11.979   2.628   8.406 -2.9107 -0.2371  3.0977
64999SOL     OW 1601   4.025   7.257   2.306  0.1861 -0.3085 -0.6401
64999SOL    HW1 1602   4.043   7.168   2.276  1.1714 -0.3448  0.0179
64999SOL    HW2 1603   3.944   7.249   2.356  0.4137 -0.8957 -0.3490
65000SOL     OW 1604   9.504   7.677   6.707 -0.2046 -0.5102 -0.2723
65000SOL    HW1 1605   9.484   7.592   6.745 -2.0278 -0.1348 -0.3207
65000SOL    HW2 1606   9.551   7.724   6.776  0.4582 -1.3981 -0.1051
65001SOL     OW 1607   8.402   9.111   1.981  0.1931  0.1472 -0.0125
65001SOL    HW1 1608   8.467   9.120   1.911 -3.5488  0.1462 -3.8887
65001SOL    HW2 1609   8.379   9.201   2.004 -0.0725  0.1590 -0.3256
65002SOL     OW 1610   3.970  10.011  12.464  0.2932 -0.6619  0.3393
65002SOL    HW1 1611   3.987  10.097  12.424 -1.3951 -1.2227 -1.7274
65002SOL    HW2 1612   3.896  10.026  12.522  1.0519 -0.4223  1.2850
65003SOL     OW 1613  11.629  12.225   7.572  0.3086  0.0591  0.4777
65003SOL    HW1 1614  11.656  12.212   7.481 -3.1422  0.2429 -0.7002
65003SOL    HW2 1615  11.617  12.136   7.607 -2.2857 -0.1191 -0.6473
65004SOL     OW 1616   2.609   4.908   7.196  0.2822  0.5532 -0.0164
65004SOL    HW1 1617   2.564   4.979   7.149  0.1556  0.7063  0.3304
65004SOL    HW2 1618   2.594   4.927   7.288  0.5338  0.2562  0.0886
65005SOL     OW 1619  12.274   7.137   2.438 -0.5951 -0.0925 -0.3349
65005SOL    HW1 1620  12.340   7.125   2.506 -1.6802  0.1853  0.8080
65005SOL    HW2 1621  12.260   7.231   2.434  0.3168  0.0119 -1.8228
65006SOL     OW 1622   4.359   9.384   6.522 -0.6939  0.7326 -0.3892
65006SOL    HW1 1623   4.393   9.453   6.578 -0.0573  2.1779 -2.4279
65006SOL    HW2 1624   4.359   9.423   6.434 -0.3697 -1.8621 -1.6126
65007SOL     OW 1625  10.002   4.134   1.258  0.1245 -0.3749  0.6438
65007SOL    HW1 1626   9.994   4.227   1.278  1.2885 -0.3453  1.0433
65007SOL    HW2 1627   9.940   4.120   1.187 -1.1355  0.3813  1.5594
65008SOL     OW 1628   0.191   1.837   9.014 -0.0413 -0.0200  0.2507
65008SOL    HW1 1629   0.257   1.899   8.982  0.7853 -0.9323  0.1522
65008SOL    HW2 1630   0.241   1.765   9.051 -0.9931  0.0140  1.6968
65009SOL     OW 1631   7.597  12.148  10.899  0.3287 -0.2248  0.4246
65009SOL    HW1 1632   7.569  12.225  10.948 -0.9633 -0.1464 -0.4142
65009SOL    HW2 1633   7.568  12.163  10.810  0.5045 -1.4570  0.1330
65010SOL     OW 1634   4.044   1.248   5.840 -0.1595 -0.0002 -0.3636
65010SOL    HW1 1635   4.127   1.266   5.795 -0.2559  0.4157 -0.3762
65010SOL    HW2 1636   3.977   1.276   5.778 -0.2922  0.7165  0.1027
65011SOL     OW 1637   8.217  12.376  10.543 -0.2610  0.0462 -0.3056
65011SOL    HW1 1638   8.270  12.348  10.468  0.6243  0.4770  0.1517
65011SOL    HW2 1639   8.264  12.451  10.579 -1.9433  1.4014 -0.7690
65012SOL     OW 1640   3.502   6.930  11.544 -0.2741 -0.7624 -0.1532
65012SOL    HW1 1641   3.476   6.923  11.636 -1.8501  0.4202 -0.4501
65012SOL    HW2 1642   3.448   7.001  11.510  1.4178 -0.1085 -1.6144
65013SOL     OW 1643  10.053   9.480   0.890  0.3526  0.5821  0.0976
65013SOL    HW1 1644  10.097   9.428   0.957  0.1553 -1.1437 -1.0543
65013SOL    HW2 1645  10.119   9.491   0.822 -0.1360  0.3603 -0.4148
65014SOL     OW 1646   0.162   3.173   4.408  0.2527 -0.1936 -0.0475
65014SOL    HW1 1647   0.072   3.187   4.438  0.4692 -0.3474  0.6785
65014SOL    HW2 1648   0.152   3.123   4.327 -0.2841 -0.8250  0.4006
65015SOL     OW 1649   1.985   9.305   7.210  0.8107  0.7856 -0.0480
65015SOL    HW1 1650   1.984   9.334   7.301 -3.4280 -1.2227  0.8419
65015SOL    HW2 1651   1.971   9.385   7.159  0.3575  1.6390  1.3563
65016SOL     OW 1652   4.593   3.227   1.015 -0.0351 -0.0218  0.3037
65016SOL    HW1 1653   4.686   3.248   1.022 -0.1292  0.4569  0.1659
65016SOL    HW2 1654   4.552   3.309   0.987 -0.5318 -0.1644  0.6007
65017SOL     OW 1655   0.075   0.383   7.221 -0.0418 -0.3671 -0.1006
65017SOL    HW1 1656   0.007   0.448   7.240  0.8127  0.5132 -0.0177
65017SOL    HW2 1657   0.083   0.332   7.301 -0.4986 -0.3853 -0.0636
65018SOL     OW 1658   1.081   1.562   7.862  0.1359  0.1290  0.0070
65018SOL    HW1 1659   1.084   1.648   7.904  0.3969  0.8584 -1.4345
65018SOL    HW2 1660   1.155   1.564   7.800  0.3325 -1.2555  0.1734
65019SOL     OW 1661   2.193   0.859   2.401  0.1542  0.0128  0.4523
65019SOL    HW1 1662   2.193   0.773   2.443 -0.3727  1.0685  2.7279
65019SOL    HW2 1663   2.106   0.867   2.362  0.2272 -0.4797  0.1697
65020SOL     OW 1664  10.794   0.143   5.008  0.6580  0.2543 -0.5749
65020SOL    HW1 1665  10.751   0.215   4.961  0.1132 -0.0577 -0.5696
65020SOL    HW2 1666  10.878   0.131   4.963  2.2230  2.9632  1.3659
65021SOL     OW 1667   5.172   9.509  10.804 -0.3122  0.1311 -0.1996
65021SOL    HW1 1668   5.160   9.575  10.872 -0.6873 -0.6968  0.5576
65021SOL    HW2 1669   5.204   9.558  10.728 -0.8431  1.2123  0.2573
65022SOL     OW 1670   1.366   2.405   9.449 -0.6308 -0.2078  0.6424
65022SOL    HW1 1671   1.303   2.406   9.521 -1.5598  1.5735 -0.1119
65022SOL    HW2 1672   1.447   2.437   9.487 -0.8346 -0.2664  1.1293
65023SOL     OW 1673  11.859  10.349   3.345  0.2689 -0.2794  0.0475
65023SOL    HW1 1674  11.811  10.425   3.312  1.7780  1.3622  1.4265
65023SOL    HW2 1675  11.849  10.354   3.440 -0.0021 -2.1267  0.1467
65024SOL     OW 1676   2.283   2.310   5.180 -0.2422  0.2176  0.0645
65024SOL    HW1 1677   2.370   2.299   5.218 -0.4512 -1.5092  0.1635
65024SOL    HW2 1678   2.276   2.238   5.117 -1.8451 -0.1050  0.5589
65025SOL     OW 1679   9.784   0.032   7.527 -0.3566  0.0812 -0.0712
65025SOL    HW1 1680   9.850   0.092   7.494 -0.8206  1.3116  1.1558
65025SOL    HW2 1681   9.832  -0.029   7.582 -0.3282  1.6502  1.7295
65026SOL     OW 1682   5.110   9.489   4.813 -0.0782  0.6183 -0.0650
65026SOL    HW1 1683   5.113   9.393   4.823 -1.0478  0.3210 -2.1084
65026SOL    HW2 1684   5.201   9.514   4.798  0.0226 -0.1978 -0.9533
65027SOL     OW 1685  12.780   5.429   8.837 -0.5371  0.5249 -0.6486
65027SOL    HW1 1686  12.747   5.366   8.901  0.7255  0.4532 -0.0317
65027SOL    HW2 1687  12.733   5.510   8.858 -2.7150 -0.3231 -1.9231
65028SOL     OW 1688   3.392   5.640   1.894 -0.1846  0.4971  0.6057
65028SOL    HW1 1689   3.357   5.587   1.966  0.7258  0.1618  0.8164
65028SOL    HW2 1690   3.457   5.583   1.852 -1.2623  0.4000 -0.9882
65029SOL     OW 1691   7.299   4.707  10.320  0.3276 -0.0885  0.3486
65029SOL    HW1 1692   7.340   4.726  10.236  1.6615  0.2845  1.0579
65029SOL    HW2 1693   7.315   4.614  10.334  1.7940  0.2366  1.0376
65030SOL     OW 1694   4.565  12.733   7.601  0.4282 -0.3908 -0.0971
65030SOL    HW1 1695   4.615  12.772   7.673  0.2434  0.0847 -0.2186
65030SOL    HW2 1696   4.630  12.700   7.540  0.5915 -1.5179  0.6679
65031SOL     OW 1697   9.976  12.488   8.308 -0.7842 -0.0891 -0.3863
65031SOL    HW1 1698  10.052  12.453   8.263 -0.3889  1.2921 -0.8240
65031SOL    HW2 1699   9.901  12.446   8.265 -0.3227 -0.7114 -0.6011
65032SOL     OW 1700   3.622   2.509   7.257 -0.3059  0.2019 -0.0318
65032SOL    HW1 1701   3.635   2.600   7.233  0.1475  0.5487  1.4513
65032SOL    HW2 1702   3.554   2.477   7.197  0.2124  1.2193 -1.2044
65033SOL     OW 1703   7.718   3.253   1.180  0.4074 -0.0706 -0.3123
65033SOL    HW1 1704   7.754   3.225   1.265 -0.2424 -1.4805 -0.4723
65033SOL    HW2 1705   7.769   3.331   1.157  2.3851 -1.1568  0.1500
65034SOL     OW 1706   0.062   8.010   9.602  0.3972 -0.0878 -0.0560
65034SOL    HW1 1707   0.061   7.991   9.509 -0.6099 -0.4815  0.0143
65034SOL    HW2 1708  -0.029   7.996   9.630  0.9013 -1.1153  1.1948
65035SOL     OW 1709   5.956   2.571   5.780  0.0173 -0.3657  0.0003
65035SOL    HW1 1710   6.005   2.577   5.698  1.3066  2.0907  0.8637
65035SOL    HW2 1711   5.866   2.593   5.756  0.7085  2.1529 -0.5493
65036SOL     OW 1712   7.598   2.499   5.197 -0.7996 -0.0112 -0.0600
65036SOL    HW1 1713   7.601   2.595   5.198  2.0397 -0.0243  0.0726
65036SOL    HW2 1714   7.671   2.472   5.254 -3.2458 -2.3218  2.2879
65037SOL     OW 1715   0.469   6.982   8.999  0.0150  0.4191  1.0589
65037SOL    HW1 1716   0.465   7.040   8.923 -1.1173  1.0894  1.6054
65037SOL    HW2 1717   0.424   7.030   9.068  0.0063 -0.6678  1.8304
65038SOL     OW 1718  12.473   4.031   0.560  0.0406  0.5134 -0.0630
65038SOL    HW1 1719  12.518   4.071   0.486  2.7936 -2.9898 -0.5441
65038SOL    HW2 1720  12.535   4.040   0.633 -1.5809  1.6908  1.2668
65039SOL     OW 1721   9.268   4.774  10.314  0.5737 -0.1808  0.4273
65039SOL    HW1 1722   9.194   4.828  10.340  0.1836 -0.2602 -0.4761
65039SOL    HW2 1723   9.334   4.789  10.382 -0.2757 -0.1404  1.2719
65040SOL     OW 1724   2.266   6.483   4.572  0.1321  0.1605 -0.1569
65040SOL    HW1 1725   2.358   6.504   4.558  0.3298  0.8843  1.8907
65040SOL    HW2 1726   2.223   6.568   4.579 -0.0624 -0.0772  2.3403
65041SOL     OW 1727   0.368   0.499   6.999  0.0044 -0.5060  0.0908
65041SOL    HW1 1728   0.397   0.417   7.040  0.2723 -0.2632  0.3907
65041SOL    HW2 1729   0.434   0.563   7.024 -1.9853  0.6367  2.8008
65042SOL     OW 1730  11.447   6.258   0.700 -0.2989 -0.3530 -0.3187
65042SOL    HW1 1731  11.455   6.189   0.765  0.8214 -1.7074 -1.8163
65042SOL    HW2 1732  11.503   6.329   0.731 -1.2595 -0.1830  1.1006
65043SOL     OW 1733   7.753   0.082  10.367 -0.5961  0.0629  0.4660
65043SOL    HW1 1734   7.722   0.027  10.440  0.0592  0.0401  0.7316
65043SOL    HW2 1735   7.743   0.171  10.400 -1.0560  0.0867  0.2752
65044SOL     OW 1736  10.708   2.612   0.654 -0.1918 -0.0256 -0.2907
65044SOL    HW1 1737  10.638   2.556   0.687 -1.4098  0.7380 -1.4427
65044SOL    HW2 1738  10.772   2.617   0.725 -1.9910  0.3712  1.3699
65045SOL     OW 1739   4.768   4.990  10.098 -0.0182 -0.3299 -0.2111
65045SOL    HW1 1740   4.740   4.910  10.054  0.0447  0.4339 -1.7202
65045SOL    HW2 1741   4.818   4.960  10.173 -0.1674 -1.7099 -0.6317
65046SOL     OW 1742   7.746   4.778  10.947 -0.0313 -0.1569 -0.3638
65046SOL    HW1 1743   7.754   4.848  10.882  1.1364 -0.5570 -0.6810
65046SOL    HW2 1744   7.814   4.797  11.011 -0.1993 -0.5869 -0.0574
65047SOL     OW 1745   0.426   7.912   0.590 -0.3130  0.3690  0.4090
65047SOL    HW1 1746   0.420   8.002   0.559  2.3497  0.9637  1.2988
65047SOL    HW2 1747   0.518   7.901   0.614 -0.7506 -2.2957  1.2751
65048SOL     OW 1748   8.991  12.458   2.749 -0.0106 -0.2333 -0.2556
65048SOL    HW1 1749   9.086  12.456   2.763 -0.0969  2.8353  1.6115
65048SOL    HW2 1750   8.958  12.385   2.801  1.1959 -0.0708  0.7935
65049SOL     OW 1751  10.189   9.558  12.186 -0.3489  0.2408  0.2900
65049SOL    HW1 1752  10.205   9.541  12.093 -2.1339 -1.2001  0.1993
65049SOL    HW2 1753  10.264   9.519  12.230  0.6219  1.1117 -0.5241
65050SOL     OW 1754   1.683   5.481   2.077 -0.4684  0.1763 -0.1345
65050SOL    HW1 1755   1.633   5.525   2.008 -1.4044 -0.7940 -0.0938
65050SOL    HW2 1756   1.774   5.506   2.059 -0.7922  0.6994 -1.1511
65051SOL     OW 1757  12.651   9.047   6.575  0.0945  0.0594 -0.0890
65051SOL    HW1 1758  12.636   9.009   6.662  1.3937 -1.3865 -0.4584
65051SOL    HW2 1759  12.730   9.099   6.585  1.4319 -1.7324 -0.8231
65052SOL     OW 1760   8.207   9.008   4.003 -0.2214  0.2244  0.1643
65052SOL    HW1 1761   8.220   8.982   3.912 -0.6533 -1.6169  0.5958
65052SOL    HW2 1762   8.289   9.051   4.027 -0.6001  2.0085 -1.4718
65053SOL     OW 1763   2.632  10.198   7.186  0.2361  0.1495 -0.1786
65053SOL    HW1 1764   2.622  10.266   7.253 -2.3011  0.1079 -0.4221
65053SOL    HW2 1765   2.582  10.123   7.220 -1.3704  0.2138 -2.1506
65054SOL     OW 1766   9.131   8.084   9.554 -0.3379  0.0111 -0.1353
65054SOL    HW1 1767   9.102   8.030   9.628  0.4804  0.7005  0.7132
65054SOL    HW2 1768   9.214   8.046   9.528  0.8460  1.5042  1.2364
65055SOL     OW 1769   9.599   5.130  11.986 -0.4646  0.0861  0.4573
65055SOL    HW1 1770   9.573   5.147  12.077  1.8278  0.4742  1.0975
65055SOL    HW2 1771   9.692   5.106  11.991 -0.0216  1.0259 -1.8628
65056SOL     OW 1772   5.994   5.536   5.978 -0.4608  0.2576 -0.2410
65056SOL    HW1 1773   6.018   5.576   5.894 -1.9153 -0.2776 -0.9515
65056SOL    HW2 1774   6.005   5.606   6.042  1.0608  0.5563 -0.8070
65057SOL     OW 1775   6.619   7.404  10.391  0.4408  0.2535  0.9727
65057SOL    HW1 1776   6.701   7.367  10.425 -1.0579 -3.0398  1.2769
65057SOL    HW2 1777   6.576   7.332  10.346 -2.3563  1.8508  0.8596
65058SOL     OW 1778   0.858   6.861   3.219 -0.0096 -0.6345 -0.0419
65058SOL    HW1 1779   0.813   6.906   3.290  2.4379  1.0332  0.5543
65058SOL    HW2 1780   0.894   6.782   3.259 -0.5861 -0.8880 -0.0140
65059SOL     OW 1781   4.105   2.574  12.509 -0.2378  0.7890  0.6089
65059SOL    HW1 1782   4.059   2.527  12.440 -0.4247  0.8848  0.6674
65059SOL    HW2 1783   4.044   2.574  12.583 -0.1850  1.0080  0.6524
65060SOL     OW 1784  12.115  10.560   9.440 -0.1608  0.7959  0.2964
65060SOL    HW1 1785  12.061  10.556   9.361 -1.9317 -0.9192  1.4816
65060SOL    HW2 1786  12.056  10.596   9.507  1.2459  2.0482  0.9016
65061SOL     OW 1787   1.490   1.933   6.810  0.0289  1.1665  0.1924
65061SOL    HW1 1788   1.540   1.852   6.797 -0.1438  1.0998 -0.0653
65061SOL    HW2 1789   1.414   1.924   6.752  1.4600  2.7329 -2.0920
65062SOL     OW 1790   0.487   7.920   2.518 -0.9102 -0.0341  0.8208
65062SOL    HW1 1791   0.479   7.846   2.579 -1.3370 -0.9907 -0.3516
65062SOL    HW2 1792   0.421   7.903   2.451  1.3236 -0.5526 -1.4376
65063SOL     OW 1793  11.982  11.140   1.634  1.0570 -0.0848 -0.2126
65063SOL    HW1 1794  11.962  11.198   1.561  0.5336 -0.1705 -0.1419
65063SOL    HW2 1795  12.044  11.077   1.598 -0.1230 -0.8742 -0.9449
65064SOL     OW 1796   7.451  11.416   4.027  0.0016 -0.0704  0.1808
65064SOL    HW1 1797   7.449  11.419   4.122  0.1464  0.8033  0.1710
65064SOL    HW2 1798   7.408  11.497   4.000  2.0030  0.8618 -0.4467
65065SOL     OW 1799  12.500   5.973   3.199  0.3415  0.3512  0.1863
65065SOL    HW1 1800  12.453   6.048   3.236  0.1243  0.7880 -0.9255
65065SOL    HW2 1801  12.476   5.974   3.106 -0.4293 -1.6757  0.3301
65066SOL     OW 1802   0.392   5.206  11.533 -0.4063 -0.1861  0.3928
65066SOL    HW1 1803   0.428   5.163  11.455 -0.2051  1.8439 -0.7103
65066SOL    HW2 1804   0.468   5.232  11.584 -0.4582  0.4083  0.1695
65067SOL     OW 1805  10.462   9.693  10.960  0.7201 -0.2283  0.2092
65067SOL    HW1 1806  10.408   9.743  10.899  0.6612  0.8510  1.1017
65067SOL    HW2 1807  10.494   9.618  10.909  0.5872  0.5697 -1.1016
65068SOL     OW 1808   3.190  11.745   2.020  0.1512 -0.5675 -0.1047
65068SOL    HW1 1809   3.130  11.692   1.967  0.2939 -2.2493  1.3157
65068SOL    HW2 1810   3.244  11.681   2.066  1.1860  0.8652  0.7593
65069SOL     OW 1811   6.978   4.666   1.565 -0.1603  0.2457  0.7645
65069SOL    HW1 1812   6.999   4.680   1.658  1.6703 -0.5862  0.5254
65069SOL    HW2 1813   6.999   4.749   1.523  0.5339  0.1253  0.8667
65070SOL     OW 1814   4.277  10.087   2.123  0.1877  0.2562  0.0962
65070SOL    HW1 1815   4.367  10.060   2.140  0.3209  1.6368  1.8985
65070SOL    HW2 1816   4.229  10.061   2.202 -0.9871 -0.3149 -0.7772
65071SOL     OW 1817   7.983  11.686  10.803 -0.4370  0.1733  0.1689
65071SOL    HW1 1818   7.969  11.706  10.896 -3.2094 -1.8022  0.2883
65071SOL    HW2 1819   7.912  11.730  10.757  0.2829  0.2577 -0.9063
65072SOL     OW 1820   0.154   9.301   2.477  0.2452  0.2744 -0.7521
65072SOL    HW1 1821   0.147   9.389   2.514  1.1836  0.4063 -0.8669
65072SOL    HW2 1822   0.092   9.248   2.528 -1.5643  1.3342 -1.7590
65073SOL     OW 1823  12.190   6.250   8.183 -0.4829  0.7671  0.0064
65073SOL    HW1 1824  12.217   6.276   8.271 -1.6239 -0.2743  0.7050
65073SOL    HW2 1825  12.239   6.169   8.167 -1.0736  0.3794  0.1340
65074SOL     OW 1826  12.568   5.403   6.540  0.5986  0.3122 -0.0267
65074SOL    HW1 1827  12.542   5.331   6.482  1.6216  0.6122 -0.8940
65074SOL    HW2 1828  12.575   5.363   6.627 -0.6151 -0.2222 -0.1551
65075SOL     OW 1829   2.082   6.285   5.829 -0.4272 -0.4317 -0.1989
65075SOL    HW1 1830   2.021   6.211   5.824  2.2068 -2.7797 -0.2678
65075SOL    HW2 1831   2.113   6.297   5.740  0.8024 -0.7835  0.1615
65076SOL     OW 1832  12.523   4.854   4.540 -0.0368  0.1929 -0.0456
65076SOL    HW1 1833  12.471   4.915   4.488 -0.1555 -0.7154 -1.0235
65076SOL    HW2 1834  12.459   4.789   4.570  0.0174  0.7290  1.3077
65077SOL     OW 1835   9.415  11.992  12.184  0.3507  0.5494  0.0154
65077SOL    HW1 1836   9.510  11.983  12.189  0.3129  0.4898  0.6814
65077SOL    HW2 1837   9.396  11.990  12.090  1.0318  0.8542 -0.1356
65078SOL     OW 1838   5.267   2.345   5.191 -0.1553  0.6477 -0.1351
65078SOL    HW1 1839   5.228   2.394   5.119  0.6506  0.6544 -0.5705
65078SOL    HW2 1840   5.312   2.411   5.244  1.7622  0.3141 -1.2506
65079SOL     OW 1841   1.049  10.983   8.040 -0.5150 -0.0419 -0.2511
65079SOL    HW1 1842   1.044  10.981   8.135 -2.4792 -2.1019 -0.3199
65079SOL    HW2 1843   0.991  11.055   8.015 -0.1132  0.4076  0.0939
65080SOL     OW 1844   2.562   9.962   5.800  0.1471 -0.0812 -0.0916
65080SOL    HW1 1845   2.575   9.886   5.857  1.6865 -0.2403 -0.5960
65080SOL    HW2 1846   2.651   9.986   5.772 -0.5060  0.2838 -2.0238
65081SOL     OW 1847   5.297   2.933   2.373  0.3132 -0.2604 -0.5602
65081SOL    HW1 1848   5.337   2.991   2.438 -2.6447  0.1246  1.1160
65081SOL    HW2 1849   5.349   2.853   2.375  0.6643 -0.0283  1.9180
65082SOL     OW 1850  12.673  11.723   2.015  0.0169 -0.5972 -0.3048
65082SOL    HW1 1851  12.690  11.806   1.970  1.4742 -1.5115 -1.5666
65082SOL    HW2 1852  12.698  11.739   2.106 -2.7956  1.2305  0.2566
65083SOL     OW 1853   8.183  10.286   9.034  0.4309  0.2101  0.3115
65083SOL    HW1 1854   8.159  10.196   9.055  1.6446 -0.4235 -0.8942
65083SOL    HW2 1855   8.262  10.303   9.086  1.3993 -0.1564 -0.9970
65084SOL     OW 1856   8.570   3.397   9.359  0.1763  0.0977  0.0580
65084SOL    HW1 1857   8.654   3.359   9.383 -0.6036 -1.9052 -0.2181
65084SOL    HW2 1858   8.524   3.328   9.311 -2.3269  0.4625  1.6920
65085SOL     OW 1859   1.847  10.261   2.273  0.2900  0.0799 -0.3120
65085SOL    HW1 1860   1.881  10.229   2.357 -0.6041  1.9688  0.8369
65085SOL    HW2 1861   1.850  10.185   2.216  3.0592 -0.7179  0.7316
65086SOL     OW 1862   5.390  10.912   1.580 -0.2891 -0.3275  0.0134
65086SOL    HW1 1863   5.343  10.914   1.663  1.4392 -1.6900  1.1051
65086SOL    HW2 1864   5.322  10.909   1.513 -1.7863 -2.8038  1.5167
65087SOL     OW 1865  10.760  11.282  12.130  0.7527  0.3529  0.3777
65087SOL    HW1 1866  10.721  11.279  12.043  0.2621  3.5300  0.3991
65087SOL    HW2 1867  10.701  11.336  12.182  1.0968 -1.3320  2.7209
65088SOL     OW 1868   8.617   5.435   6.264 -0.3315 -0.8773  0.1239
65088SOL    HW1 1869   8.699   5.389   6.283 -1.1763 -1.4067  2.8430
65088SOL    HW2 1870   8.631   5.523   6.298 -0.4560 -0.5543 -0.6353
65089SOL     OW 1871   2.370   1.654   5.879  0.1936  0.1229 -0.2888
65089SOL    HW1 1872   2.456   1.660   5.837 -0.3576  1.5535 -1.2827
65089SOL    HW2 1873   2.367   1.728   5.939  0.2935 -0.9212  1.0538
65090SOL     OW 1874  10.905   5.569  11.586  0.1292 -0.2870  0.1112
65090SOL    HW1 1875  10.983   5.571  11.640 -0.1279 -1.4817  0.5692
65090SOL    HW2 1876  10.921   5.496  11.525 -0.0614  0.3191 -0.6730
65091SOL     OW 1877   7.231  12.102  11.373 -0.3739 -0.1976  0.3210
65091SOL    HW1 1878   7.200  12.050  11.447 -1.5396  0.0922  0.0486
65091SOL    HW2 1879   7.158  12.159  11.351  0.5556  0.9285  0.0243
65092SOL     OW 1880   5.798   6.573   2.515 -0.1403  0.1048 -0.1800
65092SOL    HW1 1881   5.710   6.592   2.546 -0.5920 -1.5822 -0.2856
65092SOL    HW2 1882   5.786   6.549   2.423  0.7327  1.8905 -0.7908
65093SOL     OW 1883   6.699   4.120   2.179 -0.2478 -0.0340  0.1717
65093SOL    HW1 1884   6.764   4.162   2.236  0.2897 -0.3091 -0.2281
65093SOL    HW2 1885   6.640   4.075   2.239  0.3557 -0.3828  0.5207
65094SOL     OW 1886   1.331   0.100   9.999  0.2912 -0.5306 -0.4125
65094SOL    HW1 1887   1.302   0.144  10.078 -0.4633  0.6414 -1.3060
65094SOL    HW2 1888   1.265   0.033   9.983  1.1302 -1.6360  0.6305
65095SOL     OW 1889   5.185  10.476   4.324 -0.0221 -0.2728 -0.5661
65095SOL    HW1 1890   5.260  10.532   4.344 -0.8233  0.5655  0.1471
65095SOL    HW2 1891   5.192  10.404   4.386 -0.5737  0.5400  0.4742
65096SOL     OW 1892   5.221   8.242   1.802  0.1224  0.2401 -0.3430
65096SOL    HW1 1893   5.302   8.239   1.751 -0.0155  2.3833 -0.7932
65096SOL    HW2 1894   5.231   8.173   1.868  1.4961 -0.7541 -1.5302
65097SOL     OW 1895   4.708   8.973   1.250 -0.1324  0.6356 -0.8763
65097SOL    HW1 1896   4.695   8.920   1.172  1.0994 -0.1558 -0.5647
65097SOL    HW2 1897   4.802   8.988   1.255 -0.1380  0.3528  0.6467
65098SOL     OW 1898   5.733   3.195   7.980  0.6379 -0.2271 -0.5577
65098SOL    HW1 1899   5.743   3.273   7.926 -2.1825  1.1071  0.6649
65098SOL    HW2 1900   5.679   3.136   7.928 -0.8668  0.4727  0.1452
65099SOL     OW 1901   4.972   1.192   7.979 -0.2652  0.0257 -0.2706
65099SOL    HW1 1902   4.923   1.138   8.040 -2.6044  0.2434 -1.8252
65099SOL    HW2 1903   4.997   1.269   8.030 -1.9350  0.0896  0.5098
65100SOL     OW 1904  11.776   3.780  12.097  0.6714  0.2749 -0.5572
65100SOL    HW1 1905  11.739   3.708  12.047 -1.1915  0.0424  0.9916
65100SOL    HW2 1906  11.721   3.784  12.176  2.6284  1.4294  0.8372
65101SOL     OW 1907  10.665   7.163  11.197 -0.3940 -0.3914 -0.1343
65101SOL    HW1 1908  10.624   7.079  11.217 -1.1487 -0.4144 -1.6205
65101SOL    HW2 1909  10.662   7.169  11.102  0.9295  0.7020 -0.1362
65102SOL     OW 1910   2.946  12.726   2.132 -0.0947  0.1215  0.2884
65102SOL    HW1 1911   2.882  12.769   2.188 -1.8109  1.0825 -2.2416
65102SOL    HW2 1912   2.951  12.781   2.054  2.2614 -1.0749 -0.5181
65103SOL     OW 1913   7.183   3.427  12.005  0.4664 -0.0016  0.9222
65103SOL    HW1 1914   7.171   3.520  11.984 -1.4639 -0.5055 -0.4679
65103SOL    HW2 1915   7.108   3.384  11.965  1.0592 -2.1237  1.9716
65104SOL     OW 1916   0.997   2.720   8.358  0.8351 -0.4294 -0.2618
65104SOL    HW1 1917   1.089   2.742   8.370  1.1384 -0.6922 -1.9218
65104SOL    HW2 1918   0.996   2.655   8.288 -0.7772  1.5897 -2.2793
65105SOL     OW 1919   7.111   3.482   2.799  0.7955  0.1766  0.2470
65105SOL    HW1 1920   7.188   3.426   2.807  0.7055  0.1993  1.4404
65105SOL    HW2 1921   7.137   3.550   2.736  2.1688  0.8329  1.4688
65106SOL     OW 1922   2.499   8.886   5.398 -0.7044 -0.3949 -0.3656
65106SOL    HW1 1923   2.595   8.884   5.391 -0.6969  0.6233 -0.5944
65106SOL    HW2 1924   2.469   8.933   5.321 -1.4668 -1.5504 -0.8014
65107SOL     OW 1925   9.257   0.555  11.348 -0.2332  0.6144 -0.2357
65107SOL    HW1 1926   9.163   0.554  11.328 -0.2988  1.7392 -0.0137
65107SOL    HW2 1927   9.266   0.493  11.421 -0.9646  1.2714  0.4288
65108SOL     OW 1928   7.861   6.341   1.758  0.3158 -0.0254  0.1169
65108SOL    HW1 1929   7.880   6.273   1.822 -2.4447 -1.6604 -0.6279
65108SOL    HW2 1930   7.901   6.309   1.677  0.5953  0.1684  0.1776
65109SOL     OW 1931   9.447   7.879   6.312  0.6340  0.4303 -0.0546
65109SOL    HW1 1932   9.504   7.934   6.258  1.0310 -1.6702 -1.9166
65109SOL    HW2 1933   9.447   7.794   6.268 -2.9516 -0.0382  0.5742
65110SOL     OW 1934   9.594  12.171  10.536 -0.2200 -0.0957 -0.6772
65110SOL    HW1 1935   9.629  12.163  10.447  2.7317  1.2914  0.2325
65110SOL    HW2 1936   9.652  12.118  10.590 -1.0917  0.2168  0.6210
65111SOL     OW 1937   3.035   9.104   2.984 -0.2700 -0.6349  0.3307
65111SOL    HW1 1938   3.083   9.150   3.052  0.2180 -1.3332  0.4677
65111SOL    HW2 1939   2.972   9.169   2.950  0.3389  0.0911  0.5718
65112SOL     OW 1940   3.433   8.847   0.374 -0.7577  0.1979  0.2036
65112SOL    HW1 1941   3.434   8.920   0.437 -0.2951  1.3504 -1.0722
65112SOL    HW2 1942   3.481   8.777   0.418  0.4528  1.3178  0.7738
65113SOL     OW 1943   4.442   5.226   3.893  0.8762  0.1682  0.0190
65113SOL    HW1 1944   4.434   5.292   3.825  0.1247 -1.0242 -1.1017
65113SOL    HW2 1945   4.374   5.248   3.957 -0.0778 -0.0926 -0.8731
65114SOL     OW 1946  10.424   6.448   6.183  0.1414 -0.0956 -0.3043
65114SOL    HW1 1947  10.405   6.536   6.215 -0.6026 -0.7656  1.1849
65114SOL    HW2 1948  10.486   6.412   6.246 -1.6579 -1.5904  0.7265
65115SOL     OW 1949   6.466   7.308   2.599 -0.6505  0.2297  0.2196
65115SOL    HW1 1950   6.552   7.266   2.604  0.0100  1.5957  0.9044
65115SOL    HW2 1951   6.427   7.272   2.519  0.0582 -1.2983  0.5074
65116SOL     OW 1952   8.353   1.505   8.571 -0.3955  0.1708  0.7012
65116SOL    HW1 1953   8.291   1.530   8.503 -0.4968  1.4252  1.2263
65116SOL    HW2 1954   8.305   1.443   8.626 -0.4817 -0.4487 -0.0445
65117SOL     OW 1955  12.671   6.338   5.461 -0.0478 -0.1507 -0.0395
65117SOL    HW1 1956  12.586   6.313   5.426 -0.2491  0.2296  0.1645
65117SOL    HW2 1957  12.664   6.433   5.476  0.6402  0.0122 -0.6638
65118SOL     OW 1958   0.720   3.450   1.592  0.0553 -0.4276  0.2973
65118SOL    HW1 1959   0.753   3.427   1.678  2.4153  1.7378  0.0544
65118SOL    HW2 1960   0.670   3.530   1.605  0.0312 -0.3389 -0.2870
65119SOL     OW 1961  12.237  10.150  11.941 -0.0363 -0.0865 -0.1775
65119SOL    HW1 1962  12.296  10.224  11.926 -0.4182  0.6632  1.6899
65119SOL    HW2 1963  12.289  10.086  11.989 -0.3574  0.0236  0.3309
65120SOL     OW 1964   3.212   5.988  11.270  0.1602  0.1655  0.2986
65120SOL    HW1 1965   3.305   6.010  11.263  0.3187 -0.6600 -0.3323
65120SOL    HW2 1966   3.201   5.961  11.361  0.7802 -0.7592  0.1144
65121SOL     OW 1967   7.021   0.772   0.188  0.4271  0.0105  0.2799
65121SOL    HW1 1968   7.020   0.814   0.274  0.7995  0.0732  0.2523
65121SOL    HW2 1969   7.092   0.815   0.141  0.1380  0.0679 -0.1070
65122SOL     OW 1970   2.147   4.902   6.927  0.1850  0.4026 -0.2251
65122SOL    HW1 1971   2.228   4.866   6.891  0.4465  1.3088 -0.5819
65122SOL    HW2 1972   2.132   4.852   7.007  1.6537  0.8800  0.3781
65123SOL     OW 1973   5.049   7.664   5.384 -0.0211  0.0442  0.1804
65123SOL    HW1 1974   5.092   7.582   5.409 -0.0002  0.2693  0.9117
65123SOL    HW2 1975   5.008   7.695   5.464  0.9779  1.3542  0.2214
65124SOL     OW 1976  10.229   8.266   4.329 -0.0009 -0.1349 -0.8578
65124SOL    HW1 1977  10.293   8.336   4.320 -0.7509  0.5782 -0.7134
65124SOL    HW2 1978  10.163   8.284   4.263 -1.2419  0.4516  0.4766
65125SOL     OW 1979   1.899   7.579   4.091 -0.3782 -0.5042 -0.5511
65125SOL    HW1 1980   1.830   7.522   4.058 -0.6234 -0.4690 -0.1143
65125SOL    HW2 1981   1.854   7.660   4.115 -0.2715 -0.6405  0.1527
65126SOL     OW 1982   6.949   5.396  11.050 -0.2179  0.3124 -0.5052
65126SOL    HW1 1983   7.023   5.350  11.089 -1.0021  0.4468  1.2125
65126SOL    HW2 1984   6.954   5.375  10.957  2.4587  0.9871 -0.5936
65127SOL     OW 1985   1.524   7.404   2.022 -0.2500 -0.5703 -0.3302
65127SOL    HW1 1986   1.449   7.424   2.077  0.0187 -0.1174 -0.1205
65127SOL    HW2 1987   1.585   7.477   2.037 -0.5806  0.0824 -1.9461
65128SOL     OW 1988   1.011   4.671   0.637  0.2670  0.4615  0.1304
65128SOL    HW1 1989   1.044   4.596   0.586 -2.4135 -1.0351  0.3893
65128SOL    HW2 1990   0.955   4.718   0.576  2.0376  2.4743 -0.0691
65129SOL     OW 1991  10.830   6.571   7.720 -0.5204  0.3052  0.6698
65129SOL    HW1 1992  10.878   6.594   7.641  0.2389 -1.1517  0.6734
65129SOL    HW2 1993  10.781   6.650   7.742 -0.3917  0.8864 -0.9820
65130SOL     OW 1994   5.681  12.266  10.619 -0.1901  0.3240 -0.1609
65130SOL    HW1 1995   5.610  12.314  10.574 -1.4252 -0.7401  0.5930
65130SOL    HW2 1996   5.698  12.317  10.698  0.3491  0.9132 -0.6375
65131SOL     OW 1997  12.305   4.019  12.088 -0.1660  0.1149 -0.2940
65131SOL    HW1 1998  12.320   4.072  12.167  1.8809 -0.1252 -0.4855
65131SOL    HW2 1999  12.294   3.930  12.120  2.3344 -0.2645 -0.3219
65132SOL     OW 2000   8.179  11.110   9.929  0.0595  0.2613  0.2023
65132SOL    HW1 2001   8.268  11.128   9.898 -0.4583  0.8084 -1.0507
65132SOL    HW2 2002   8.146  11.196   9.955 -0.7444  0.3910 -1.1617
65133SOL     OW 2003  11.501  10.732   4.027 -0.1235  0.0928 -0.0513
65133SOL    HW1 2004  11.548  10.782   4.093  1.2853 -1.3881  0.1244
65133SOL    HW2 2005  11.423  10.699   4.073  0.1266  0.2127  0.4654
65134SOL     OW 2006   2.564   3.767   9.752  0.4901  0.1090 -0.1325
65134SOL    HW1 2007   2.518   3.686   9.771 -0.2432  0.8958  1.7119
65134SOL    HW2 2008   2.614   3.749   9.673 -1.7701 -1.2753 -1.3427
65135SOL     OW 2009   1.004  11.404  11.967  0.0634  0.1911  0.3135
65135SOL    HW1 2010   1.055  11.373  12.042 -1.1608  1.2624  1.6384
65135SOL    HW2 2011   1.055  11.479  11.934 -0.0621  0.5458  0.9149
65136SOL     OW 2012  10.253  11.108   8.339 -0.1285  0.2903 -0.5493
65136SOL    HW1 2013  10.169  11.088   8.296 -1.5863  1.2549  1.6902
65136SOL    HW2 2014  10.301  11.159   8.273 -2.5427  2.3248 -0.9095
65137SOL     OW 2015   0.419   1.463   8.638  0.5869  0.1753 -0.3437
65137SOL    HW1 2016   0.379   1.376   8.632  0.4998  0.0583  1.4022
65137SOL    HW2 2017   0.513   1.445   8.644  0.5354  0.1524  0.5268
65138SOL     OW 2018   7.420   4.273   0.297  0.4229 -0.2245  0.1671
65138SOL    HW1 2019   7.366   4.317   0.363  1.2567 -2.5094  2.5652
65138SOL    HW2 2020   7.450   4.343   0.239 -2.2704  1.5794  0.7562
65139SOL     OW 2021   6.104   3.247   6.488  0.1185  0.1009  0.8305
65139SOL    HW1 2022   6.166   3.192   6.439 -1.6168  0.0313 -1.4745
65139SOL    HW2 2023   6.037   3.185   6.519 -0.9409  0.6149 -0.3110
65140SOL     OW 2024   2.453  10.542   2.103  0.1294  0.3242 -0.0943
65140SOL    HW1 2025   2.382  10.501   2.053 -0.2104  0.3213  0.3914
65140SOL    HW2 2026   2.430  10.635   2.104 -0.3215  0.2060  0.8025
65141SOL     OW 2027  10.813  10.826   0.977  0.1646 -0.4657 -0.1043
65141SOL    HW1 2028  10.751  10.889   1.014 -0.5252 -1.9105  1.3180
65141SOL    HW2 2029  10.796  10.828   0.883 -0.3060  0.9454 -0.0150
65142SOL     OW 2030   5.636   4.609   1.945 -0.3364 -0.2072 -0.5347
65142SOL    HW1 2031   5.603   4.596   2.034 -0.1040  1.9845 -0.0682
65142SOL    HW2 2032   5.558   4.603   1.889 -0.8354  0.4629  0.0663
65143SOL     OW 2033   7.250   3.148   6.717 -0.1177 -0.2232 -0.0285
65143SOL    HW1 2034   7.313   3.216   6.696 -1.5820  1.1059 -0.2423
65143SOL    HW2 2035   7.202   3.182   6.793 -0.0868 -1.5499  0.6236
65144SOL     OW 2036   5.749   6.930   5.618  0.0151  0.2897 -0.2508
65144SOL    HW1 2037   5.680   6.881   5.574 -1.6884  1.4516  0.9910
65144SOL    HW2 2038   5.755   6.890   5.705  1.2528 -0.0804 -0.4845
65145SOL     OW 2039  12.430   2.383   7.380  0.1161 -0.2877 -0.0350
65145SOL    HW1 2040  12.341   2.373   7.346 -0.6504  3.5395  0.4504
65145SOL    HW2 2041  12.485   2.386   7.302 -0.1959 -1.9199 -0.3657
65146SOL     OW 2042   7.671  12.100   7.052  0.0155  0.1797  0.0487
65146SOL    HW1 2043   7.741  12.137   7.106 -0.6459  0.0218  1.0423
65146SOL    HW2 2044   7.630  12.176   7.011 -0.4588  0.4454  0.9962
65147SOL     OW 2045   2.690   7.403   2.424 -0.3660  0.4152  0.0505
65147SOL    HW1 2046   2.625   7.333   2.418 -0.1312  0.2589 -0.8097
65147SOL    HW2 2047   2.664   7.467   2.358  0.3743  0.3227 -0.3462
65148SOL     OW 2048   0.284   9.962  10.986  0.2677  0.1017 -1.0124
65148SOL    HW1 2049   0.376   9.936  10.989  0.4626  0.8477  1.1713
65148SOL    HW2 2050   0.284  10.050  10.947  0.3981 -0.1241 -1.5298
65149SOL     OW 2051   7.249   1.245   1.692 -0.4145  0.3226  0.6845
65149SOL    HW1 2052   7.320   1.181   1.681 -1.1547 -0.4090 -0.0569
65149SOL    HW2 2053   7.204   1.217   1.772 -1.7013 -1.1090 -0.4709
65150SOL     OW 2054  11.886   3.199   4.640 -0.9151  0.6983 -0.1071
65150SOL    HW1 2055  11.941   3.246   4.579 -1.1334  1.3428  0.1883
65150SOL    HW2 2056  11.819   3.262   4.666  0.2416  1.0740  2.2387
65151SOL     OW 2057  11.534   2.860   2.284  0.9507  0.0834 -0.6679
65151SOL    HW1 2058  11.493   2.885   2.201  0.2057  0.9501 -0.0695
65151SOL    HW2 2059  11.586   2.937   2.309  0.5458  0.1462  0.0302
65152SOL     OW 2060   8.609   0.710   6.876 -0.7060  0.6276  0.2128
65152SOL    HW1 2061   8.668   0.764   6.823  0.7700  1.5284  2.5981
65152SOL    HW2 2062   8.542   0.771   6.908 -0.7066  0.4378  0.5824
65153SOL     OW 2063  11.692   2.874   2.654  0.4172  0.3162 -0.3486
65153SOL    HW1 2064  11.724   2.905   2.739  1.8757  1.4634 -1.2631
65153SOL    HW2 2065  11.742   2.795   2.637 -0.7584 -0.6168  0.3810
65154SOL     OW 2066  10.536   2.271  12.604 -0.1715  0.5159  0.5860
65154SOL    HW1 2067  10.579   2.218  12.537 -1.7791 -1.8279  1.2548
65154SOL    HW2 2068  10.465   2.315  12.557 -0.8701 -0.5867  0.5484
65155SOL     OW 2069   7.510  11.622  10.292  0.3413  0.5420  0.0501
65155SOL    HW1 2070   7.538  11.544  10.341  0.9539  1.3800  1.0768
65155SOL    HW2 2071   7.584  11.644  10.237 -0.4088 -0.4976 -1.4466
65156SOL     OW 2072   3.998   0.698   1.330  0.0443  0.1004  0.2284
65156SOL    HW1 2073   4.006   0.753   1.408  1.9210 -1.5481  1.2875
65156SOL    HW2 2074   3.948   0.622   1.359 -1.1309  0.4459 -0.7984
65157SOL     OW 2075   9.897  12.361   2.952  0.3710 -0.0550 -0.5813
65157SOL    HW1 2076   9.885  12.418   3.028  0.7092 -1.3288  0.4645
65157SOL    HW2 2077   9.990  12.364   2.933  0.1305  1.1755 -1.7223
65158SOL     OW 2078   7.574   6.292   1.622 -0.5735  0.0234 -0.0842
65158SOL    HW1 2079   7.481   6.310   1.637 -0.1698  0.8099  1.7322
65158SOL    HW2 2080   7.591   6.209   1.666 -0.2330  0.3369  0.3908
65159SOL     OW 2081   3.790   4.400   3.180 -0.1814 -0.4191 -0.4398
65159SOL    HW1 2082   3.745   4.320   3.207 -2.4173  0.9021  0.0510
65159SOL    HW2 2083   3.743   4.429   3.101  0.5631  0.4232 -0.5987
65160SOL     OW 2084   6.582  12.080   3.211  0.2717 -0.3510 -0.0951
65160SOL    HW1 2085   6.522  12.105   3.140  1.0684 -2.4813 -1.6343
65160SOL    HW2 2086   6.524  12.056   3.283 -0.6447 -0.0256 -0.7021
65161SOL     OW 2087   7.035   0.460   6.967 -0.1509 -0.0756  0.0890
65161SOL    HW1 2088   7.024   0.380   7.018 -3.4267 -0.6114 -1.2121
65161SOL    HW2 2089   7.057   0.430   6.879 -1.3076  0.4155 -0.3832
65162SOL     OW 2090   6.808   2.763   2.392 -0.0951  0.5988 -0.0100
65162SOL    HW1 2091   6.863   2.817   2.449 -0.3484 -0.2900  1.1095
65162SOL    HW2 2092   6.823   2.673   2.421 -0.1832  0.1070 -1.4065
65163SOL     OW 2093   8.434   4.882  10.507  0.2043  0.2579  0.0210
65163SOL    HW1 2094   8.407   4.906  10.596 -0.1171  0.1977 -0.0583
65163SOL    HW2 2095   8.353   4.887  10.456  0.6765  2.0229 -0.6410
65164SOL     OW 2096   9.221  10.328   9.121  0.5320 -0.1917 -0.2555
65164SOL    HW1 2097   9.301  10.282   9.144 -0.2173 -2.9197 -2.5736
65164SOL    HW2 2098   9.238  10.365   9.034 -0.4829 -0.2484 -0.4955
65165SOL     OW 2099   2.049   0.860   3.115 -0.2998 -0.2768 -0.2470
65165SOL    HW1 2100   2.125   0.818   3.076  0.7309  0.8063  0.5205
65165SOL    HW2 2101   2.007   0.792   3.168  1.6609 -0.2614  1.4571
65166SOL     OW 2102  12.054   1.020  12.697 -1.0019 -0.0786 -0.6683
65166SOL    HW1 2103  12.019   0.939  12.735 -1.0139 -0.5130 -1.5727
65166SOL    HW2 2104  12.079   1.073  12.773  0.4774 -1.5676 -0.0507
65167SOL     OW 2105  10.256   9.909   6.780 -0.2434 -0.1359 -0.0220
65167SOL    HW1 2106  10.168   9.936   6.805 -0.5661 -1.9433  0.9677
65167SOL    HW2 2107  10.313   9.977   6.818 -1.1406  0.5883  0.0643
65168SOL     OW 2108  11.929   9.373   7.423  0.3105  0.2624  0.1442
65168SOL    HW1 2109  11.912   9.460   7.459  1.3074  0.0110  1.2883
65168SOL    HW2 2110  12.022   9.374   7.399  0.2849 -0.4198 -0.0120
65169SOL     OW 2111   1.939   5.465   1.418 -0.6012 -0.5777  0.0690
65169SOL    HW1 2112   1.907   5.394   1.473 -1.7882 -0.0312  0.1189
65169SOL    HW2 2113   1.862   5.496   1.371  0.3104 -0.7844 -1.6534
65170SOL     OW 2114   0.112   2.567   3.908  0.4767 -0.1120  0.1918
65170SOL    HW1 2115   0.053   2.642   3.907  0.1879 -0.2515 -2.4209
65170SOL    HW2 2116   0.200   2.605   3.901  0.2588  0.1181 -3.0117
65171SOL     OW 2117  12.764   4.137   7.056 -1.0963  0.5873 -0.1419
65171SOL    HW1 2118  12.747   4.074   6.985  0.1040  1.5968 -1.3953
65171SOL    HW2 2119  12.677   4.162   7.087 -1.6039 -1.6395  0.3783
65172SOL     OW 2120   9.063  10.163   5.132  0.4385 -0.2534 -0.2615
65172SOL    HW1 2121   9.025  10.076   5.120  0.9275 -0.6607  0.9731
65172SOL    HW2 2122   9.156  10.146   5.146  0.6207  0.5194 -0.5090
65173SOL     OW 2123   9.048   6.159   2.529  0.1559  0.2030  0.4564
65173SOL    HW1 2124   9.086   6.174   2.615  2.5949  2.2561 -0.8245
65173SOL    HW2 2125   8.982   6.227   2.519  0.2002  0.2553  0.5268
65174SOL     OW 2126   3.450   2.692  11.675  0.2673 -0.5509  0.2147
65174SOL    HW1 2127   3.502   2.740  11.610  2.4503 -2.4320  0.4703
65174SOL    HW2 2128   3.509   2.681  11.749 -0.9912 -1.5704  1.1034
65175SOL     OW 2129  12.059   6.711   8.953  0.0398  0.5310  0.3341
65175SOL    HW1 2130  12.098   6.798   8.940 -0.5579  0.7502 -0.0840
65175SOL    HW2 2131  11.978   6.714   8.901 -0.4049  0.0119  0.9837
65176SOL     OW 2132   4.855   8.553   6.820  0.0412 -0.5419  0.5585
65176SOL    HW1 2133   4.783   8.608   6.850  0.4273  0.2757  0.0258
65176SOL    HW2 2134   4.821   8.464   6.825 -1.4236 -0.0990 -0.7639
65177SOL     OW 2135   3.551   3.290   7.603 -0.5633 -1.0425 -0.1290
65177SOL    HW1 2136   3.464   3.287   7.643 -0.1506  0.2941  0.9214
65177SOL    HW2 2137   3.605   3.236   7.659  0.1355  1.2468  1.5381
65178SOL     OW 2138  12.255   6.768   8.460 -0.6194  0.0331 -0.7856
65178SOL    HW1 2139  12.343   6.801   8.443 -1.1359  1.8619 -0.1097
65178SOL    HW2 2140  12.247   6.692   8.402  0.4771  1.3529 -2.7657
65179SOL     OW 2141   2.746   0.257   3.242  0.1478  0.0155  0.4622
65179SOL    HW1 2142   2.835   0.290   3.229  0.7335  0.1627  3.9612
65179SOL    HW2 2143   2.707   0.316   3.306 -2.2358 -0.5139 -0.3929
65180SOL     OW 2144   2.479   4.545   8.627  0.5312 -0.1065  0.3695
65180SOL    HW1 2145   2.487   4.608   8.556 -0.0130  0.0034  0.3955
65180SOL    HW2 2146   2.384   4.534   8.638  0.6111 -1.2815  0.0564
65181SOL     OW 2147  11.165   0.947   1.490 -0.0772  0.2334  0.0232
65181SOL    HW1 2148  11.186   0.926   1.399  1.2360  1.1115  0.1129
65181SOL    HW2 2149  11.093   1.010   1.484 -0.2507  0.0041 -0.3814
65182SOL     OW 2150   8.312   4.663   0.581 -0.5228  0.0050  0.1073
65182SOL    HW1 2151   8.268   4.690   0.662  0.1129  0.7033  0.2326
65182SOL    HW2 2152   8.286   4.572   0.568 -1.6986  0.2891  0.3811
65183SOL     OW 2153   4.056   5.062   8.913 -0.3541  0.2144 -0.3693
65183SOL    HW1 2154   4.134   5.108   8.945 -0.2691  0.9196 -1.5553
65183SOL    HW2 2155   4.017   5.122   8.849 -1.4645 -0.4475 -0.3349
65184SOL     OW 2156  11.960   6.987  11.647  0.3625  0.4369 -0.3985
65184SOL    HW1 2157  11.973   6.893  11.640 -0.7401  0.1318  1.2361
65184SOL    HW2 2158  11.889   6.998  11.710  1.5615  2.4059  0.7152
65185SOL     OW 2159   5.994   5.005   4.912 -0.7808  0.1767 -0.0165
65185SOL    HW1 2160   6.079   5.019   4.870 -0.8540 -0.4686 -0.3992
65185SOL    HW2 2161   5.934   5.065   4.867 -0.9200 -0.7096 -1.0581
65186SOL     OW 2162   1.815   7.160   1.015  0.1355 -0.2108 -0.8545
65186SOL    HW1 2163   1.843   7.070   1.030 -1.9658 -0.5975  1.3977
65186SOL    HW2 2164   1.889   7.214   1.043  0.6855 -1.2188 -0.3501
65187SOL     OW 2165   4.707   8.712  12.327  0.3548 -0.5395 -0.4832
65187SOL    HW1 2166   4.637   8.777  12.330 -0.5225 -1.4559 -0.6989
65187SOL    HW2 2167   4.786   8.761  12.349 -0.4318  0.4008  0.3348
65188SOL     OW 2168   6.467   9.594  11.209 -0.3301 -0.3430  0.1872
65188SOL    HW1 2169   6.448   9.662  11.145 -0.0599  0.1295  0.6036
65188SOL    HW2 2170   6.556   9.612  11.238 -0.1288 -1.0785  0.0559
65189SOL     OW 2171   5.038   7.831   5.804 -0.1544 -0.1574  0.7472
65189SOL    HW1 2172   5.104   7.900   5.805 -1.1302  0.8411 -0.7223
65189SOL    HW2 2173   5.019   7.815   5.896  3.8941 -2.2841  1.4549
65190SOL     OW 2174   0.339   2.449   1.205 -0.5451  0.5655  0.0362
65190SOL    HW1 2175   0.394   2.467   1.129 -0.9590  1.1878 -0.1261
65190SOL    HW2 2176   0.400   2.450   1.279  0.0034 -0.9741 -0.3744
65191SOL     OW 2177  10.630   3.955   0.214 -0.4755 -0.0479  0.2249
65191SOL    HW1 2178  10.689   4.029   0.199  0.1464 -0.3026  1.3367
65191SOL    HW2 2179  10.658   3.890   0.149 -0.3702  0.3080 -0.0950
65192SOL     OW 2180   3.789  12.461   2.223 -0.5338  0.4374 -0.5655
65192SOL    HW1 2181   3.763  12.467   2.315 -1.7803 -0.3524 -0.8383
65192SOL    HW2 2182   3.728  12.519   2.178 -1.5692 -1.0654 -1.1692
65193SOL     OW 2183  10.599   8.814   7.622 -0.2238  0.0815 -0.0399
65193SOL    HW1 2184  10.549   8.850   7.695 -1.5776  0.5813 -1.1615
65193SOL    HW2 2185  10.659   8.883   7.597  0.7663 -0.3636  1.0483
65194SOL     OW 2186   1.491  11.046   0.407 -0.1562  0.3578  0.4584
65194SOL    HW1 2187   1.481  11.137   0.436 -0.7176  0.5534 -0.3321
65194SOL    HW2 2188   1.556  11.051   0.337  1.8028 -0.2220  2.1071
65195SOL     OW 2189  12.553   9.598   3.378 -0.3186  0.0766 -0.9539
65195SOL    HW1 2190  12.629   9.648   3.407 -0.6456  0.2933 -0.4484
65195SOL    HW2 2191  12.583   9.507   3.375 -0.1571  0.1059 -0.3455
65196SOL     OW 2192   8.420   7.975   5.857  0.0812 -0.4014  0.0188
65196SOL    HW1 2193   8.432   8.040   5.926  1.3095 -1.3320  0.7172
65196SOL    HW2 2194   8.387   7.897   5.901 -0.5128 -0.5590 -0.6740
65197SOL     OW 2195   8.313  11.876   0.367 -0.2678  0.1597  0.0449
65197SOL    HW1 2196   8.234  11.845   0.323  0.2992  0.1826 -1.0072
65197SOL    HW2 2197   8.325  11.815   0.440 -1.5514  0.4758  0.5468
65198SOL     OW 2198   2.300   0.714  12.155 -0.1970  0.1117  0.3567
65198SOL    HW1 2199   2.265   0.742  12.240  0.5942 -1.6088  1.2853
65198SOL    HW2 2200   2.284   0.620  12.153  1.8334 -0.2540 -0.4018
65199SOL     OW 2201   1.994  11.975   4.753  0.2182 -0.4589 -1.0771
65199SOL    HW1 2202   2.027  11.915   4.687  1.3485  0.0247 -0.9643
65199SOL    HW2 2203   1.950  12.044   4.703 -0.5967 -1.0736 -1.2276
65200SOL     OW 2204  12.690   6.695   4.471  0.3667  0.4942 -0.3417
65200SOL    HW1 2205  12.758   6.641   4.510 -0.2164 -0.9479 -1.2307
65200SOL    HW2 2206  12.735   6.749   4.406  0.5410 -1.3852 -1.8674
65201SOL     OW 2207   5.795   4.745   2.373  0.0472 -1.0237 -0.4407
65201SOL    HW1 2208   5.772   4.747   2.466 -1.0887 -0.6893 -0.7042
65201SOL    HW2 2209   5.890   4.746   2.371  0.1222  1.3593  0.7072
65202SOL     OW 2210   5.184   3.614   2.355 -0.2475  0.6615 -0.7461
65202SOL    HW1 2211   5.273   3.596   2.327  0.4677 -1.4885  2.3908
65202SOL    HW2 2212   5.129   3.571   2.290  1.0870  0.1025 -1.5322
65203SOL     OW 2213   0.478  12.578  11.911 -0.3327  0.5259 -0.1902
65203SOL    HW1 2214   0.406  12.530  11.870  0.3372  0.4198 -1.2859
65203SOL    HW2 2215   0.482  12.545  12.001 -2.7929  1.8187  0.4937
65204SOL     OW 2216   7.747   5.374   7.914  0.0148  0.0011  0.2659
65204SOL    HW1 2217   7.794   5.446   7.956  0.0248  0.0911  0.0976
65204SOL    HW2 2218   7.766   5.382   7.821 -1.4092  0.8607  0.0200
65205SOL     OW 2219  10.534   5.320   1.727  0.9791  0.7815 -0.2582
65205SOL    HW1 2220  10.575   5.406   1.736  2.8311  0.0133 -0.9481
65205SOL    HW2 2221  10.606   5.261   1.707 -0.3674 -0.8107 -0.6030
65206SOL     OW 2222   0.555  11.179  10.083  0.2839 -0.2232  0.4156
65206SOL    HW1 2223   0.466  11.155  10.108 -0.0920 -0.1452 -0.7604
65206SOL    HW2 2224   0.612  11.128  10.141 -0.5199 -1.3918  0.2090
65207SOL     OW 2225   3.225  10.488   3.554  0.0683 -0.0387  0.2462
65207SOL    HW1 2226   3.273  10.463   3.475 -0.4914 -0.1220 -0.0738
65207SOL    HW2 2227   3.271  10.444   3.626  1.2579  0.9254  0.1055
65208SOL     OW 2228   8.239   4.191   2.285  0.3470 -0.2373 -0.1359
65208SOL    HW1 2229   8.255   4.263   2.223 -0.3239 -0.5175 -0.6474
65208SOL    HW2 2230   8.264   4.227   2.370 -3.5641  2.0256  0.3212
65209SOL     OW 2231   6.965   9.554   2.664  0.0582  0.4766  0.0112
65209SOL    HW1 2232   6.943   9.582   2.575  1.8079  0.0026 -0.6239
65209SOL    HW2 2233   7.021   9.624   2.698 -0.3349  0.4984  0.6432
65210SOL     OW 2234   0.822   1.323   8.832  0.4957  0.4070  0.0776
65210SOL    HW1 2235   0.881   1.348   8.903 -0.3777  1.3842  0.4864
65210SOL    HW2 2236   0.740   1.368   8.852  0.3888  1.1937 -1.8445
65211SOL     OW 2237   2.741   2.487   6.723  0.1297  0.2119  0.2674
65211SOL    HW1 2238   2.646   2.474   6.714  0.2544 -1.3185  0.8620
65211SOL    HW2 2239   2.773   2.488   6.633 -0.2977 -0.6854  0.0898
65212SOL     OW 2240   2.466   9.754   4.449 -0.2675 -0.1153 -0.3271
65212SOL    HW1 2241   2.470   9.719   4.538  0.5122 -1.0504 -0.7092
65212SOL    HW2 2242   2.405   9.696   4.403 -0.3216  0.0958 -0.5247
65213SOL     OW 2243   6.898   0.243   4.548 -0.5022 -0.3131  0.3641
65213SOL    HW1 2244   6.960   0.184   4.505 -0.5052 -0.8476  1.0630
65213SOL    HW2 2245   6.889   0.317   4.488 -0.7596 -1.1842 -0.6896
65214SOL     OW 2246   8.348   3.211   9.291  0.6802 -0.4787 -0.2840
65214SOL    HW1 2247   8.346   3.184   9.199 -0.7496 -1.8920  0.1176
65214SOL    HW2 2248   8.324   3.132   9.339 -1.4018  0.9148  1.1240
65215SOL     OW 2249   6.119   9.240   0.802 -0.1379  0.5591  0.1545
65215SOL    HW1 2250   6.209   9.206   0.800 -0.9451 -1.8605  1.1308
65215SOL    HW2 2251   6.112   9.283   0.887  0.5367  2.2085 -0.5912
65216SOL     OW 2252   0.502   8.588  11.403  0.1452  0.0205 -0.1364
65216SOL    HW1 2253   0.532   8.648  11.335 -0.0876  0.3473  0.0434
65216SOL    HW2 2254   0.407   8.595  11.401 -0.0803 -2.3086 -1.8746
65217SOL     OW 2255   7.529   5.834  11.515  0.1955  0.2326  0.3455
65217SOL    HW1 2256   7.601   5.896  11.510 -0.2486  0.6356 -2.2748
65217SOL    HW2 2257   7.563   5.754  11.475 -0.7799  0.4274 -0.9196
65218SOL     OW 2258   7.407   1.137   8.803  0.1646  0.0094 -0.1543
65218SOL    HW1 2259   7.486   1.121   8.854  0.5092  1.3197 -0.2576
65218SOL    HW2 2260   7.336   1.106   8.858  0.4540  2.0671  1.4805
65219SOL     OW 2261   1.848   2.379   8.296 -0.4272  0.0269 -0.4737
65219SOL    HW1 2262   1.860   2.426   8.379 -0.6576  2.1242 -1.5516
65219SOL    HW2 2263   1.867   2.288   8.317  2.3830  0.8843  1.2624
65220SOL     OW 2264   9.187  12.185   1.232 -0.6777 -0.5361  0.6073
65220SOL    HW1 2265   9.114  12.205   1.172 -0.6102 -0.0357  0.6843
65220SOL    HW2 2266   9.211  12.270   1.269  0.5519 -0.5418 -0.1119
65221SOL     OW 2267   0.404   7.025   7.406 -0.0211 -0.0318 -0.1404
65221SOL    HW1 2268   0.416   7.083   7.331 -0.5363 -1.0478 -1.0354
65221SOL    HW2 2269   0.493   7.012   7.440  0.2495  0.2477 -0.7255
65222SOL     OW 2270   3.071  11.203   7.030  0.1881  0.0634 -0.1628
65222SOL    HW1 2271   3.059  11.118   7.072 -0.9100  0.4266  0.2958
65222SOL    HW2 2272   3.141  11.245   7.079  0.0826 -0.2026  0.2182
65223SOL     OW 2273   6.465   8.418   7.267  0.8003 -0.1863 -0.2975
65223SOL    HW1 2274   6.377   8.390   7.292  0.7927  0.5413  0.5317
65223SOL    HW2 2275   6.475   8.388   7.177 -0.7538  0.8104 -0.8306
65224SOL     OW 2276   4.468   9.187  11.734 -0.0578 -0.2282  0.2503
65224SOL    HW1 2277   4.550   9.186  11.685 -0.2493  2.3651 -0.2784
65224SOL    HW2 2278   4.481   9.254  11.801 -2.2070  1.5213 -0.8974
65225SOL     OW 2279   5.592  11.127   3.391 -0.8618  0.1473 -0.8700
65225SOL    HW1 2280   5.659  11.169   3.444 -1.2342  0.7703 -0.8733
65225SOL    HW2 2281   5.514  11.182   3.403 -1.4202 -0.6504 -0.7270
65226SOL     OW 2282   1.593  12.787   8.253 -0.0065  0.3748  0.6970
65226SOL    HW1 2283   1.650  12.863   8.262  0.2164  0.1046  1.7040
65226SOL    HW2 2284   1.566  12.766   8.342 -0.7884 -0.1849  0.3455
65227SOL     OW 2285   5.929   3.187   4.271 -0.1136 -0.2625  0.1305
65227SOL    HW1 2286   5.955   3.140   4.192 -0.5024  0.1831 -0.2663
65227SOL    HW2 2287   5.908   3.118   4.334  0.4085 -0.6200 -0.0770
65228SOL     OW 2288   4.113   0.347   0.490  0.0951 -0.8042  0.2483
65228SOL    HW1 2289   4.207   0.330   0.491  0.0047 -1.3359  1.0803
65228SOL    HW2 2290   4.080   0.301   0.567 -0.7675 -0.1480  0.2811
65229SOL     OW 2291   2.102   1.385   7.360 -0.6291  0.6753  0.4579
65229SOL    HW1 2292   2.107   1.444   7.435  0.7999 -0.4649  1.3281
65229SOL    HW2 2293   2.016   1.402   7.321 -1.2850  1.5003  2.1747
65230SOL     OW 2294   3.322  10.434  11.244 -0.3781  0.1669 -0.8676
65230SOL    HW1 2295   3.271  10.353  11.244 -0.8213  0.4324  0.3847
65230SOL    HW2 2296   3.258  10.503  11.227 -0.2621  0.3964 -0.3934
65231SOL     OW 2297   2.055   5.809   4.992 -0.1033  0.1591  0.1641
65231SOL    HW1 2298   2.087   5.861   5.066  0.6838 -1.6691  1.1807
65231SOL    HW2 2299   1.990   5.750   5.031  1.4899 -1.9627 -0.1869
65232SOL     OW 2300  10.844   0.039   0.817  0.4475  0.4655 -0.0587
65232SOL    HW1 2301  10.820  -0.051   0.838  1.3630 -0.0272 -1.0316
65232SOL    HW2 2302  10.816   0.090   0.894  1.2206 -0.8553  1.1470
65233SOL     OW 2303   2.811   0.726   9.377  0.1920  0.5867 -0.0821
65233SOL    HW1 2304   2.749   0.800   9.372 -0.1089  0.3344 -0.1170
65233SOL    HW2 2305   2.868   0.749   9.451 -1.8861 -0.6140  2.0616
65234SOL     OW 2306  10.752  12.444   1.119  0.6500 -0.5128  0.1477
65234SOL    HW1 2307  10.831  12.391   1.108  1.2919  0.3187  0.6717
65234SOL    HW2 2308  10.747  12.461   1.213  1.3350  1.6356 -0.1521
65235SOL     OW 2309   1.166   0.108   6.502 -0.2991  0.0729  0.7678
65235SOL    HW1 2310   1.086   0.157   6.524  1.0819  2.8655  0.0099
65235SOL    HW2 2311   1.139   0.050   6.431 -1.9950 -0.2951  1.6386
65236SOL     OW 2312   3.588   2.281   9.212  0.7534 -0.3886  0.1897
65236SOL    HW1 2313   3.526   2.212   9.235  0.3099  0.1146  0.5379
65236SOL    HW2 2314   3.539   2.362   9.223  0.1728 -0.0697 -3.3593
65237SOL     OW 2315   7.512   7.080   3.933  0.7180 -0.4924 -0.0430
65237SOL    HW1 2316   7.551   7.049   4.015 -0.0709  0.9921  0.9413
65237SOL    HW2 2317   7.420   7.053   3.939  0.6787 -0.4637 -0.5035
65238SOL     OW 2318   6.592   0.284   8.584  0.5081 -0.4949  0.3308
65238SOL    HW1 2319   6.666   0.328   8.543 -0.2043 -0.0083 -0.4752
65238SOL    HW2 2320   6.581   0.330   8.668  1.1824 -0.6515  0.5090
65239SOL     OW 2321   9.490   8.855   6.418 -0.6729 -0.1569  0.2038
65239SOL    HW1 2322   9.550   8.896   6.480 -2.2521 -0.0911  1.7617
65239SOL    HW2 2323   9.520   8.764   6.413 -0.8097 -0.2890  1.4616
65240SOL     OW 2324  11.397   3.379   8.653  0.0028 -0.0685 -0.0441
65240SOL    HW1 2325  11.321   3.342   8.609 -0.5975  0.9718  0.0849
65240SOL    HW2 2326  11.363   3.412   8.736  0.6463  0.1832  0.1284
65241SOL     OW 2327   1.868   1.657   0.295  0.2626 -0.0731 -0.6296
65241SOL    HW1 2328   1.775   1.677   0.282 -0.7799 -2.8216  1.7243
65241SOL    HW2 2329   1.869   1.593   0.366  3.8735 -1.3107 -1.6200
65242SOL     OW 2330   6.760  11.300   0.941 -0.2330 -0.1974 -0.0286
65242SOL    HW1 2331   6.731  11.209   0.945 -1.7603  0.2409 -0.2697
65242SOL    HW2 2332   6.782  11.315   0.849 -2.7844  0.4164 -0.6343
65243SOL     OW 2333   4.978   9.012   6.472  0.5006 -0.3346 -0.6714
65243SOL    HW1 2334   4.944   9.057   6.394 -1.6593 -0.6545  0.0335
65243SOL    HW2 2335   4.950   8.921   6.461 -1.0652 -0.1142  1.1038
65244SOL     OW 2336   8.673   1.917  11.130  0.2144 -0.1749  0.1783
65244SOL    HW1 2337   8.764   1.939  11.151  0.7001  0.0835 -1.9270
65244SOL    HW2 2338   8.679   1.864  11.050 -1.5084  0.4495 -0.4195
65245SOL     OW 2339   8.101   3.762   8.960  0.3698  0.3866  0.1494
65245SOL    HW1 2340   8.083   3.787   8.869  0.5674  0.0893  0.0284
65245SOL    HW2 2341   8.196   3.772   8.969  0.5801 -1.1024 -0.1456
65246SOL     OW 2342   5.811   8.282   6.870 -0.1392 -0.1033  0.2359
65246SOL    HW1 2343   5.740   8.218   6.866 -0.3819  0.2356 -1.2949
65246SOL    HW2 2344   5.771   8.361   6.906 -0.6550  0.1936 -0.9362
65247SOL     OW 2345   7.995   4.081  11.681 -0.0618  0.5700  0.1932
65247SOL    HW1 2346   8.036   4.074  11.767 -1.3131 -0.9268  0.7087
65247SOL    HW2 2347   8.068   4.078  11.619  0.8029  1.0335  1.1680
65248SOL     OW 2348   8.289   7.353   1.260  0.2342  0.1898 -0.1858
65248SOL    HW1 2349   8.291   7.384   1.350  0.8565 -0.3586 -0.0003
65248SOL    HW2 2350   8.274   7.258   1.267 -1.4685  0.3844 -0.7314
65249SOL     OW 2351   0.320   1.189  10.826 -0.6250 -0.0410 -0.1084
65249SOL    HW1 2352   0.310   1.233  10.910  0.0816  1.2071 -0.6645
65249SOL    HW2 2353   0.331   1.259  10.762 -0.4913 -0.9843 -1.1612
65250SOL     OW 2354  11.632  10.064   9.264  0.2548 -0.5513 -0.0545
65250SOL    HW1 2355  11.663  10.004   9.195 -0.9113 -0.0730 -1.0372
65250SOL    HW2 2356  11.703  10.126   9.276  1.5035 -2.0836  0.9903
65251SOL     OW 2357   0.172   9.325   1.776  0.4236  0.0027  0.0205
65251SOL    HW1 2358   0.138   9.273   1.703  0.2868  0.7598 -0.4661
65251SOL    HW2 2359   0.188   9.261   1.845 -2.7930 -0.3398  0.6125
65252SOL     OW 2360   3.310   7.286   4.932 -0.2315  0.4069  0.8098
65252SOL    HW1 2361   3.250   7.323   4.996 -0.8247 -0.8405  0.9973
65252SOL    HW2 2362   3.300   7.191   4.941  1.9465  0.1496  1.0161
65253SOL     OW 2363   7.666   6.691   9.636 -0.2305  0.2356 -0.6303
65253SOL    HW1 2364   7.670   6.772   9.687 -0.0440 -0.8039  1.0900
65253SOL    HW2 2365   7.607   6.635   9.685  0.8785 -1.2376 -0.9184
65254SOL     OW 2366   0.242   2.665   5.158  0.0650  0.2399 -0.2404
65254SOL    HW1 2367   0.165   2.609   5.157 -0.8315  1.4315 -0.6892
65254SOL    HW2 2368   0.308   2.618   5.106  0.8924 -2.3941  2.8687
65255SOL     OW 2369   1.177  12.112   0.176  0.1591  0.2789  0.1319
65255SOL    HW1 2370   1.231  12.050   0.225  0.4618  0.9758  0.6921
65255SOL    HW2 2371   1.208  12.105   0.086  0.2767 -0.2913  0.2142
65256SOL     OW 2372   0.867   8.077  12.044 -0.3339 -0.0647 -0.5836
65256SOL    HW1 2373   0.841   8.154  11.995  0.7217 -0.4071 -1.7508
65256SOL    HW2 2374   0.941   8.107  12.098 -0.3746 -0.0935 -0.5122
65257SOL     OW 2375   5.537   0.623   2.493  0.2845  0.0310  0.1092
65257SOL    HW1 2376   5.545   0.611   2.399 -1.2990 -0.2936 -0.0181
65257SOL    HW2 2377   5.460   0.678   2.504  1.4791  1.5719  1.1715
65258SOL     OW 2378   6.311   2.305   9.523  0.4005  0.5818 -0.7596
65258SOL    HW1 2379   6.222   2.332   9.502  0.2025  0.4210 -0.1429
65258SOL    HW2 2380   6.309   2.286   9.617  0.8395 -0.3927 -0.9354
65259SOL     OW 2381  12.196   1.413  11.178  0.1234 -0.4479 -0.2512
65259SOL    HW1 2382  12.112   1.444  11.211 -0.0379 -0.4782 -0.6233
65259SOL    HW2 2383  12.261   1.453  11.236 -0.0724  0.6640 -0.7731
65260SOL     OW 2384  11.239  12.753   7.806 -0.2635  0.2446  0.0290
65260SOL    HW1 2385  11.333  12.734   7.815  0.0335  1.0088 -1.1362
65260SOL    HW2 2386  11.227  12.836   7.851 -0.7313 -0.6442  1.5917
65261SOL     OW 2387   3.815   2.253  10.358  0.1591 -0.2184  0.1504
65261SOL    HW1 2388   3.900   2.255  10.401 -0.4880  0.1926  1.4685
65261SOL    HW2 2389   3.767   2.184  10.403 -0.4929  0.1477  0.0295
65262SOL     OW 2390   8.742  11.993   3.022 -0.2471 -0.3071  0.1116
65262SOL    HW1 2391   8.803  12.054   3.063 -0.7685 -0.5373  1.2484
65262SOL    HW2 2392   8.656  12.029   3.040 -0.5337 -1.0467  0.2525
65263SOL     OW 2393   8.948   3.260   1.304  0.1520  0.3758  0.0631
65263SOL    HW1 2394   8.904   3.341   1.278  2.1878  2.2159  1.8561
65263SOL    HW2 2395   9.005   3.239   1.230  0.7649  1.5601  0.1596
65264SOL     OW 2396   5.077   0.164   7.997 -0.5988 -0.0793 -0.2916
65264SOL    HW1 2397   5.159   0.162   7.947 -0.6979 -1.0450 -0.4362
65264SOL    HW2 2398   5.094   0.226   8.068 -0.3593  1.1071 -1.3473
65265SOL     OW 2399   3.504   6.571   4.330 -0.3885  0.1931 -0.1672
65265SOL    HW1 2400   3.555   6.497   4.364 -0.6044  0.4532  0.7533
65265SOL    HW2 2401   3.429   6.577   4.390  0.2783  1.9493  0.5459
65266SOL     OW 2402   4.713   8.741   2.323 -0.2223  0.5131 -0.3224
65266SOL    HW1 2403   4.655   8.685   2.272 -1.4952  2.4120 -1.0487
65266SOL    HW2 2404   4.801   8.724   2.288 -0.1903 -2.5065  0.8812
65267SOL     OW 2405  12.744   3.486   2.593 -0.6951 -0.1335  0.7013
65267SOL    HW1 2406  12.781   3.536   2.666 -1.1729  0.5088  0.5122
65267SOL    HW2 2407  12.794   3.514   2.517 -0.3976 -0.5795  0.7307
65268SOL     OW 2408  11.226   0.876   7.488 -0.2140  0.1445  0.1091
65268SOL    HW1 2409  11.303   0.911   7.443 -0.3311  1.7211  1.0437
65268SOL    HW2 2410  11.173   0.837   7.419  0.6838  0.4472 -0.7715
65269SOL     OW 2411   1.157  12.412  11.856  0.6946  0.5216  0.3885
65269SOL    HW1 2412   1.233  12.355  11.866  0.7171  0.1675 -1.5469
65269SOL    HW2 2413   1.188  12.484  11.802 -0.6416 -0.2995 -1.5721
65270SOL     OW 2414   5.955   0.316   7.141 -0.4555  0.1078 -0.7717
65270SOL    HW1 2415   6.038   0.290   7.180  0.1063  1.0498 -1.3314
65270SOL    HW2 2416   5.940   0.405   7.173 -1.5957 -0.3006 -0.1170
65271SOL     OW 2417   7.709   0.375   0.674  0.0367  0.2937  0.1454
65271SOL    HW1 2418   7.664   0.334   0.748 -1.4867  0.8519 -0.4148
65271SOL    HW2 2419   7.657   0.349   0.597  1.7859 -0.5700 -0.7918
65272SOL     OW 2420   0.208   6.372   1.854 -0.0369  0.8934 -0.4350
65272SOL    HW1 2421   0.190   6.425   1.932 -0.8190 -1.6642  1.2935
65272SOL    HW2 2422   0.282   6.317   1.880 -0.5145 -0.2152 -1.3674
65273SOL     OW 2423   5.664   7.242   4.377 -0.2043 -0.8724  0.2786
65273SOL    HW1 2424   5.686   7.279   4.291 -1.7773  0.1751  0.2757
65273SOL    HW2 2425   5.739   7.187   4.400  1.3450  0.7553 -0.6479
65274SOL     OW 2426   4.561   0.689  11.399 -0.3631 -0.1160  0.0752
65274SOL    HW1 2427   4.592   0.779  11.409  0.1636 -0.3391  0.5041
65274SOL    HW2 2428   4.467   0.694  11.419 -0.8177  0.6990 -1.9570
65275SOL     OW 2429   1.255   4.361  12.218 -0.4660  0.0670  1.3169
65275SOL    HW1 2430   1.308   4.407  12.283 -1.3414  2.8828  0.1883
65275SOL    HW2 2431   1.275   4.404  12.136 -0.5734 -2.3517 -0.0716
65276SOL     OW 2432  10.034  10.346   2.914  0.3290  0.0458 -0.3141
65276SOL    HW1 2433  10.099  10.362   2.845 -0.0333 -2.8504 -1.5143
65276SOL    HW2 2434  10.083  10.298   2.981  0.9088  3.6266  2.0918
65277SOL     OW 2435   0.170   8.368   7.393 -0.0016 -0.1921  0.2830
65277SOL    HW1 2436   0.143   8.331   7.477 -0.2349  1.6006  1.0254
65277SOL    HW2 2437   0.100   8.429   7.370  0.1622 -0.5069 -1.1374
65278SOL     OW 2438   2.621  12.269   5.979 -0.5398 -0.2455  0.0390
65278SOL    HW1 2439   2.676  12.274   5.901 -0.6727  0.7155 -0.0062
65278SOL    HW2 2440   2.642  12.184   6.017  1.5768  0.3950  0.4556
65279SOL     OW 2441   8.372   8.345   7.565  0.4364 -0.3542  0.2340
65279SOL    HW1 2442   8.432   8.286   7.611 -1.2148 -1.7318  0.7044
65279SOL    HW2 2443   8.391   8.432   7.602  2.1918 -0.7232  0.2772
65280SOL     OW 2444  11.778   9.155   4.121  0.1036  0.1484  0.7327
65280SOL    HW1 2445  11.869   9.181   4.135  0.1118 -0.1921  1.3638
65280SOL    HW2 2446  11.740   9.225   4.069  1.0425 -0.2933 -0.5997
65281SOL     OW 2447   2.481   5.064   4.836  0.0355 -0.1604 -0.0862
65281SOL    HW1 2448   2.508   4.977   4.863 -0.3303  0.2001  1.6238
65281SOL    HW2 2449   2.562   5.114   4.830  0.1885 -0.4417 -0.3440
65282SOL     OW 2450   5.103   0.536  11.158  0.0752 -0.1695 -0.2771
65282SOL    HW1 2451   5.156   0.591  11.216 -0.6245  2.1703 -1.7403
65282SOL    HW2 2452   5.152   0.454  11.153  2.1370  0.9242  0.5731
65283SOL     OW 2453  12.072   8.941   4.924 -0.4022  0.3304  0.7155
65283SOL    HW1 2454  12.009   8.902   4.985 -0.3778 -1.4669 -0.3351
65283SOL    HW2 2455  12.110   9.014   4.972 -2.8861  1.1641  1.5942
65284SOL     OW 2456   2.863   5.134   2.111 -0.0272 -0.2011 -0.1125
65284SOL    HW1 2457   2.902   5.098   2.032 -0.7702 -0.8044 -0.2101
65284SOL    HW2 2458   2.785   5.181   2.081  0.4386  0.7512  0.1120
65285SOL     OW 2459   3.115   2.616   0.011 -0.4467  0.6126  0.4750
65285SOL    HW1 2460   3.196   2.568  -0.003 -0.0146  1.6306 -0.6368
65285SOL    HW2 2461   3.114   2.635   0.105  0.2803  0.0539  0.6010
65286SOL     OW 2462   5.390   6.269   7.531 -0.1925  0.2348  0.3967
65286SOL    HW1 2463   5.359   6.334   7.468  0.7958 -1.3092 -1.8208
65286SOL    HW2 2464   5.314   6.213   7.548  0.1093 -0.8507 -1.5050
65287SOL     OW 2465   8.785   0.574   2.924  0.1708 -0.0778 -0.5213
65287SOL    HW1 2466   8.703   0.573   2.875 -0.0565 -1.1967 -0.1400
65287SOL    HW2 2467   8.809   0.482   2.934  0.4856  0.1428  1.0127
65288SOL     OW 2468   9.085   9.735   7.627  0.3716 -0.2523 -0.7002
65288SOL    HW1 2469   8.991   9.747   7.613 -0.1786 -2.2171  0.8206
65288SOL    HW2 2470   9.116   9.696   7.546 -0.2336 -0.1107 -1.0108
65289SOL     OW 2471  11.884  11.330   0.807 -0.5073  0.3819 -0.3142
65289SOL    HW1 2472  11.830  11.313   0.884 -0.1245  0.0252 -0.1220
65289SOL    HW2 2473  11.973  11.315   0.836 -0.1248  2.5880 -0.1587
65290SOL     OW 2474   3.880   8.715   2.901  0.0498 -0.5370  0.7781
65290SOL    HW1 2475   3.943   8.706   2.972  0.2394 -0.9322  0.5608
65290SOL    HW2 2476   3.800   8.674   2.935  0.1091 -0.6321  0.8029
65291SOL     OW 2477   9.976   1.683   6.496  0.4145 -0.0695  0.6269
65291SOL    HW1 2478   9.929   1.603   6.470  0.0694  0.3204  0.0393
65291SOL    HW2 2479  10.008   1.663   6.584 -0.2241 -0.6243  0.7500
65292SOL     OW 2480  10.467  12.167  10.048 -0.4052 -0.9176 -0.5788
65292SOL    HW1 2481  10.374  12.178  10.069 -0.6185 -1.9685 -0.9158
65292SOL    HW2 2482  10.503  12.121  10.124  0.3801  1.4564  0.6116
65293SOL     OW 2483   8.169   0.016  10.555 -0.1699 -0.2634  0.4123
65293SOL    HW1 2484   8.197   0.093  10.507  0.1644  0.1303  1.2138
65293SOL    HW2 2485   8.233  -0.052  10.532  0.2388  0.0430  0.6200
65294SOL     OW 2486   8.935   3.719   3.230 -0.1736 -0.3834 -0.1844
65294SOL    HW1 2487   8.908   3.808   3.210  1.1286  0.1663  0.4020
65294SOL    HW2 2488   8.904   3.667   3.155 -0.0133  0.7298 -1.0500
65295SOL     OW 2489   4.397   1.734   4.213 -0.1494  0.3935  0.6707
65295SOL    HW1 2490   4.468   1.745   4.277 -0.1565 -0.3044  0.8031
65295SOL    HW2 2491   4.331   1.682   4.259 -0.7167  0.9545  0.5163
65296SOL     OW 2492   9.986   9.981   7.463  0.0402  0.4652  0.1182
65296SOL    HW1 2493  10.037   9.994   7.543 -1.2608 -0.4842  1.1637
65296SOL    HW2 2494   9.983   9.886   7.452 -0.2366  0.5710 -0.7665
65297SOL     OW 2495   6.256   2.237  11.064 -0.1547  0.5495 -0.3899
65297SOL    HW1 2496   6.259   2.146  11.094 -1.1995  0.6792  0.1759
65297SOL    HW2 2497   6.291   2.287  11.138  0.6610  0.5868 -0.8014
65298SOL     OW 2498   5.847   0.309   9.400 -0.4623  0.0732  0.4455
65298SOL    HW1 2499   5.934   0.296   9.362 -0.4993  1.4580 -0.1735
65298SOL    HW2 2500   5.839   0.403   9.411 -1.6317 -0.0811  1.1246
65299SOL     OW 2501   0.614   5.509   1.984 -0.0225  0.0651 -0.5620
65299SOL    HW1 2502   0.560   5.524   2.062 -0.0224  0.7697 -0.6934
65299SOL    HW2 2503   0.671   5.586   1.978  0.9994 -0.6456 -0.4355
65300SOL     OW 2504  11.334   3.571   4.388  0.1092 -0.4055  0.0238
65300SOL    HW1 2505  11.420   3.566   4.431  1.9128 -1.6903 -3.3659
65300SOL    HW2 2506  11.287   3.494   4.420  1.1663 -1.0316  0.1096
65301SOL     OW 2507   4.305   2.676   9.956  0.0959  0.2555 -0.4006
65301SOL    HW1 2508   4.365   2.707   9.888  0.0936  0.3135 -0.3767
65301SOL    HW2 2509   4.293   2.752  10.013 -0.6303  0.4861 -0.8496
65302SOL     OW 2510   2.670   4.128   9.393  0.0448 -0.0897  0.4192
65302SOL    HW1 2511   2.612   4.098   9.463 -0.4226  0.0545  0.0947
65302SOL    HW2 2512   2.756   4.136   9.435 -0.0671 -0.7463  0.7936
65303SOL     OW 2513   0.934   4.996   1.415  0.1292  0.4236  0.2479
65303SOL    HW1 2514   0.938   4.957   1.503 -0.1657 -1.7685 -0.6617
65303SOL    HW2 2515   1.025   5.009   1.391  0.2111  1.2509  0.9444
65304SOL     OW 2516   2.229   0.177   1.780  0.4292  0.2804  0.1537
65304SOL    HW1 2517   2.181   0.193   1.699 -0.2745  0.2727  0.5618
65304SOL    HW2 2518   2.262   0.087   1.771 -0.6724 -0.1630  0.3730
65305SOL     OW 2519  10.073   1.130   5.055  0.5778 -0.6300 -0.0612
65305SOL    HW1 2520  10.107   1.149   4.967 -0.5531 -1.4988 -0.7190
65305SOL    HW2 2521   9.987   1.172   5.056  0.4451 -0.9161  0.5122
65306SOL     OW 2522   1.904   0.858  10.583 -0.1241  0.3976  0.1246
65306SOL    HW1 2523   1.968   0.870  10.654 -0.0314  2.4360 -0.2291
65306SOL    HW2 2524   1.820   0.851  10.627  0.1877 -1.2456  0.5409
65307SOL     OW 2525   7.627   3.480   8.052 -0.5273 -0.0260  0.6909
65307SOL    HW1 2526   7.572   3.545   8.007  0.7066  1.1428  0.7963
65307SOL    HW2 2527   7.625   3.507   8.143  0.2392  0.0558  0.6880
65308SOL     OW 2528   6.299   9.967   1.235  0.1575  0.0190  0.0744
65308SOL    HW1 2529   6.380   9.994   1.193 -0.0216 -0.3148 -0.4893
65308SOL    HW2 2530   6.255  10.050   1.257  0.3332  0.1944 -0.2338
65309SOL     OW 2531  10.346  11.968   8.104 -0.4467 -0.1340 -0.2662
65309SOL    HW1 2532  10.413  12.006   8.161 -0.1176 -1.4298  0.2674
65309SOL    HW2 2533  10.371  11.996   8.016 -0.5604  1.3236  0.1449
65310SOL     OW 2534   7.139   8.207   2.057  0.2216 -0.2684 -0.2192
65310SOL    HW1 2535   7.094   8.123   2.054 -0.3590  0.0015  0.6741
65310SOL    HW2 2536   7.098   8.259   1.987 -0.5542 -0.1813  0.2914
65311SOL     OW 2537   6.471   9.010   6.283 -0.4283  0.2655 -0.1235
65311SOL    HW1 2538   6.380   9.004   6.312  0.0485  1.5781  1.8095
65311SOL    HW2 2539   6.478   9.097   6.244  0.3205  0.7291  1.0128
65312SOL     OW 2540  12.659  12.770   8.096  0.5018 -0.3542  0.2795
65312SOL    HW1 2541  12.655  12.807   8.185  3.3626 -0.5172  0.5687
65312SOL    HW2 2542  12.752  12.751   8.082 -0.0441 -1.5811 -2.2763
65313SOL     OW 2543  10.520   5.085   0.107  0.3319 -0.6059 -0.1446
65313SOL    HW1 2544  10.546   5.158   0.163  0.9351 -0.5777 -0.4463
65313SOL    HW2 2545  10.430   5.105   0.080  1.9190  2.6388 -4.2127
65314SOL     OW 2546   9.956  11.103   5.463  0.2242 -0.5800  0.2053
65314SOL    HW1 2547  10.024  11.167   5.485  0.8137 -1.7411  1.9871
65314SOL    HW2 2548  10.005  11.024   5.437 -0.4822 -0.6478 -0.9936
65315SOL     OW 2549   6.378  10.255  11.555 -0.7697  0.1372  0.2366
65315SOL    HW1 2550   6.284  10.240  11.571 -0.4293 -0.4147  1.8975
65315SOL    HW2 2551   6.390  10.233  11.462 -1.9570 -1.6137  0.4394
65316SOL     OW 2552   5.087   3.974   6.364  0.1432 -0.0453 -0.2934
65316SOL    HW1 2553   5.149   4.046   6.378  1.4011 -0.9365 -1.0292
65316SOL    HW2 2554   5.140   3.905   6.324 -1.0101 -1.4084  0.4447
65317SOL     OW 2555   3.777   3.304   5.255  0.3684  0.5240 -0.4602
65317SOL    HW1 2556   3.818   3.352   5.327  1.4935 -0.3372 -0.5153
65317SOL    HW2 2557   3.800   3.354   5.177  0.1441  0.8028 -0.3493
65318SOL     OW 2558   6.036   6.467   0.840  0.2194  0.3549  0.0028
65318SOL    HW1 2559   5.950   6.484   0.878  0.1306  0.3386 -0.1909
65318SOL    HW2 2560   6.078   6.553   0.836  1.0201  0.1170  2.0262
65319SOL     OW 2561   3.087   3.323   8.849 -0.0897 -0.3314 -0.5332
65319SOL    HW1 2562   3.001   3.317   8.891  1.2113 -4.3794  2.2728
65319SOL    HW2 2563   3.145   3.359   8.916  1.2337 -2.5668 -0.3570
65320SOL     OW 2564   7.081  12.271   0.636  0.6954 -0.5606  0.1183
65320SOL    HW1 2565   7.089  12.353   0.589  1.2097  1.2654  3.1247
65320SOL    HW2 2566   7.157  12.220   0.609  3.1991  2.0147  1.7609
65321SOL     OW 2567   3.620   8.701  12.488  0.4843 -0.1931  0.4317
65321SOL    HW1 2568   3.556   8.696  12.417  0.9940  0.9670 -0.1399
65321SOL    HW2 2569   3.637   8.610  12.511  0.7720 -0.6356 -1.3726
65322SOL     OW 2570   1.641   3.598   2.949 -0.2613  0.5356 -0.4650
65322SOL    HW1 2571   1.736   3.586   2.948 -0.1914  0.1618  2.5919
65322SOL    HW2 2572   1.605   3.510   2.962 -1.0256  0.7209 -1.2208
65323SOL     OW 2573   4.166  11.574   8.033 -0.1367  0.2215  0.0536
65323SOL    HW1 2574   4.259  11.583   8.011 -0.4459  2.0722 -0.6638
65323SOL    HW2 2575   4.166  11.539   8.122  1.2260 -0.4161 -0.1649
65324SOL     OW 2576   8.607   6.059   2.525 -0.1050  0.0722 -0.0541
65324SOL    HW1 2577   8.552   5.996   2.478 -1.9016  0.6530  1.1769
65324SOL    HW2 2578   8.682   6.007   2.555  0.3826 -0.6002 -2.2834
65325SOL     OW 2579  12.020   7.193   6.905  0.0057  0.3003  0.6248
65325SOL    HW1 2580  12.114   7.179   6.893  0.4880  2.0189  1.9396
65325SOL    HW2 2581  11.980   7.108   6.886  1.7069 -0.2090 -0.9405
65326SOL     OW 2582   4.406   7.960   3.092 -0.1199 -0.4082  0.2286
65326SOL    HW1 2583   4.368   7.923   3.172  0.9749 -0.0498  0.9329
65326SOL    HW2 2584   4.368   7.907   3.022 -2.8962  0.7258  0.7591
65327SOL     OW 2585   3.534   5.029   0.028  0.0605 -0.4565  0.2258
65327SOL    HW1 2586   3.607   4.971   0.046  0.6737  0.3240  0.2970
65327SOL    HW2 2587   3.512   5.013  -0.064  0.7530 -0.2262  0.0130
65328SOL     OW 2588   2.798   6.159   6.503  0.5241  0.2877  0.1859
65328SOL    HW1 2589   2.760   6.234   6.549 -1.6433 -0.0517 -0.9152
65328SOL    HW2 2590   2.862   6.198   6.444 -0.5297  1.2990 -0.3372
65329SOL     OW 2591   5.467   4.873   9.883 -0.3175  0.2450  0.3943
65329SOL    HW1 2592   5.427   4.871   9.796  1.8535 -1.0717 -0.6736
65329SOL    HW2 2593   5.439   4.956   9.920 -1.5902  0.6967 -1.4110
65330SOL     OW 2594  12.579   9.891  11.374 -0.0253 -0.4777 -0.2489
65330SOL    HW1 2595  12.526   9.968  11.352  0.4739  0.3190  1.1921
65330SOL    HW2 2596  12.623   9.868  11.292 -2.7021 -1.3118 -1.5832
65331SOL     OW 2597   0.972   5.381   8.433 -0.3617  0.4579 -0.1665
65331SOL    HW1 2598   0.945   5.291   8.417  0.5589  0.3258 -1.0253
65331SOL    HW2 2599   0.977   5.421   8.347  1.7927  0.5743 -0.0388
65332SOL     OW 2600   9.272   9.330  11.754  0.1267 -0.2466  0.0959
65332SOL    HW1 2601   9.324   9.344  11.833  0.7484 -1.2327 -0.1130
65332SOL    HW2 2602   9.333   9.349  11.682  0.4387 -2.0317 -0.1595
65333SOL     OW 2603   7.817  10.407   2.549 -0.2951  0.0202 -0.0836
65333SOL    HW1 2604   7.827  10.320   2.587  2.6640  1.2595  2.3926
65333SOL    HW2 2605   7.745  10.446   2.599  0.8241  0.1903  1.4749
65334SOL     OW 2606   4.868  11.140  11.990  0.1436  0.2338 -0.2745
65334SOL    HW1 2607   4.927  11.115  12.061 -0.2606 -1.9363 -0.6314
65334SOL    HW2 2608   4.889  11.232  11.973  0.4179  0.7770  2.4565
65335SOL     OW 2609   5.102   5.573  12.235  0.2178  0.3175  0.2807
65335SOL    HW1 2610   5.059   5.608  12.312  0.9488  1.1687  0.3293
65335SOL    HW2 2611   5.192   5.606  12.241  1.3274 -2.4927  0.9142
65336SOL     OW 2612   6.931  12.161   7.402  0.3473  0.0055  0.4941
65336SOL    HW1 2613   6.870  12.101   7.358 -1.1449  0.9757  1.1675
65336SOL    HW2 2614   6.950  12.120   7.486 -0.9534  0.5903  1.1040
65337SOL     OW 2615  12.575  10.699   8.564  0.2085  0.7879  0.2867
65337SOL    HW1 2616  12.656  10.693   8.514 -0.4406  0.0708 -0.7218
65337SOL    HW2 2617  12.600  10.679   8.654  1.1108  0.3464 -0.0553
65338SOL     OW 2618   6.698   9.202  10.027  0.0966  0.1428  0.0319
65338SOL    HW1 2619   6.708   9.263  10.101 -0.8932 -0.1347  0.4116
65338SOL    HW2 2620   6.659   9.124  10.066  0.8873 -0.5530 -0.5416
65339SOL     OW 2621   4.551   6.588   0.168 -0.2861 -0.3193 -0.4761
65339SOL    HW1 2622   4.573   6.628   0.253  1.2042 -1.5830 -0.2301
65339SOL    HW2 2623   4.564   6.658   0.105 -0.0412  0.2476  0.1833
65340SOL     OW 2624  11.635  11.014   4.543  0.2065  0.0770 -0.1478
65340SOL    HW1 2625  11.588  11.040   4.622 -1.1023 -2.0116 -0.1856
65340SOL    HW2 2626  11.635  11.093   4.488  0.1835  1.2377  1.4442
65341SOL     OW 2627   8.302   8.436   0.375 -0.4290 -0.2902 -0.1716
65341SOL    HW1 2628   8.328   8.515   0.422  0.6589 -1.1704  0.7690
65341SOL    HW2 2629   8.247   8.388   0.436 -1.2052 -0.2109 -0.7905
65342SOL     OW 2630  12.147  10.346   0.658 -0.2428  0.4054  0.1446
65342SOL    HW1 2631  12.095  10.381   0.586  0.2908  1.2276  0.1456
65342SOL    HW2 2632  12.205  10.418   0.683  0.8686 -0.4701  0.1620
65343SOL     OW 2633  12.785   1.704  10.837 -0.2596  0.6211 -0.8253
65343SOL    HW1 2634  12.701   1.668  10.811  0.4222  0.3651 -2.9088
65343SOL    HW2 2635  12.846   1.630  10.830  0.5869  1.3983 -2.0269
65344SOL     OW 2636  12.076   0.504   4.255  0.5105 -0.2254 -0.1268
65344SOL    HW1 2637  12.055   0.560   4.330  0.9305  0.9719 -0.8697
65344SOL    HW2 2638  12.142   0.444   4.287  1.0680  0.6144  0.3409
65345SOL     OW 2639  11.723   4.740   8.752  0.2285  0.4340  0.2780
65345SOL    HW1 2640  11.797   4.768   8.698  0.6362  0.6574  0.9296
65345SOL    HW2 2641  11.658   4.809   8.742  0.7329  1.0133  0.8987
65346SOL     OW 2642   8.238   5.210   1.929  0.3979 -0.1926 -0.3655
65346SOL    HW1 2643   8.224   5.219   1.835 -0.6330  1.1777 -0.1147
65346SOL    HW2 2644   8.179   5.139   1.955  1.2602 -1.1069 -0.8555
65347SOL     OW 2645   2.688   6.526   8.861  0.0497 -0.0222 -0.4338
65347SOL    HW1 2646   2.718   6.593   8.923 -0.6736  0.4354 -0.5699
65347SOL    HW2 2647   2.649   6.576   8.789  2.0815 -0.4824 -1.9382
65348SOL     OW 2648  11.515  10.884  10.083  0.1714  0.3228  0.2331
65348SOL    HW1 2649  11.587  10.850  10.136 -0.8368 -0.4302  1.1522
65348SOL    HW2 2650  11.465  10.940  10.143 -0.2484  0.5126 -0.2856
65349SOL     OW 2651   0.357   1.084  10.108  0.0607  0.3149  0.4885
65349SOL    HW1 2652   0.279   1.114  10.062  0.3788  0.5873  0.1229
65349SOL    HW2 2653   0.351   1.123  10.195 -0.2867  0.2073  0.5152
65350SOL     OW 2654   3.854   4.570   8.670  0.1826 -0.1995  0.3372
65350SOL    HW1 2655   3.821   4.660   8.661  1.7614  0.6156  1.9592
65350SOL    HW2 2656   3.805   4.534   8.744  0.5525 -0.1659  0.5995
65351SOL     OW 2657   7.249   6.456  10.661 -0.8944 -0.6369  0.3961
65351SOL    HW1 2658   7.264   6.362  10.652 -0.8189 -0.5990  0.1212
65351SOL    HW2 2659   7.180   6.475  10.598 -1.4570 -0.6468  0.9987
65352SOL     OW 2660   1.427  11.179   1.558 -0.4797 -0.7710  0.5267
65352SOL    HW1 2661   1.508  11.170   1.509 -0.6399  0.9434 -0.1243
65352SOL    HW2 2662   1.451  11.230   1.635 -0.8794 -0.4105  0.4217
65353SOL     OW 2663   2.088   3.574   8.882 -0.4415 -0.4024  0.4552
65353SOL    HW1 2664   2.147   3.512   8.926 -0.4077  0.5722  1.8557
65353SOL    HW2 2665   2.030   3.519   8.830  0.5447 -1.5048  0.4709
65354SOL     OW 2666   1.753   6.835  10.958 -0.2815 -0.2319 -0.1086
65354SOL    HW1 2667   1.764   6.867  10.869 -1.2638  2.1651  0.5569
65354SOL    HW2 2668   1.660   6.847  10.976 -0.0024 -0.1851  1.4073
65355SOL     OW 2669   9.355   3.507   0.120 -0.1366  0.0080 -0.3996
65355SOL    HW1 2670   9.286   3.572   0.130  0.3093  0.1596  2.9584
65355SOL    HW2 2671   9.310   3.428   0.090 -1.4920  0.5726  0.1079
65356SOL     OW 2672   6.983   0.914   8.182 -0.3430  0.0119 -0.6602
65356SOL    HW1 2673   6.899   0.917   8.138 -0.7379 -3.2154 -0.3709
65356SOL    HW2 2674   6.973   0.845   8.248  1.6307  1.5747  1.4212
65357SOL     OW 2675  11.080   8.182   1.143 -0.3476  0.1635  0.1059
65357SOL    HW1 2676  11.100   8.158   1.052  0.2610  1.3057 -0.0767
65357SOL    HW2 2677  11.108   8.273   1.151  1.9789 -0.6231  2.1393
65358SOL     OW 2678   5.773  12.394   2.179  0.1731 -0.2649  0.1034
65358SOL    HW1 2679   5.741  12.416   2.091  0.9811  0.2462 -0.0677
65358SOL    HW2 2680   5.702  12.343   2.217  0.1010 -1.1149 -1.1050
65359SOL     OW 2681   8.930   6.974   3.447  0.2434 -0.2167 -0.8599
65359SOL    HW1 2682   8.976   6.897   3.480 -0.3300 -0.5322 -0.7838
65359SOL    HW2 2683   8.988   7.009   3.380  0.0997 -1.2527 -1.5495
65360SOL     OW 2684   1.577   9.430   4.913 -0.2199 -0.0792 -0.0219
65360SOL    HW1 2685   1.508   9.376   4.950  0.3579 -0.9947 -0.2548
65360SOL    HW2 2686   1.634   9.452   4.987 -0.2434 -0.1008  0.0025
65361SOL     OW 2687   1.828  11.382  10.674  0.3645 -0.0912 -0.0261
65361SOL    HW1 2688   1.862  11.446  10.611  2.1960 -0.3982  0.5940
65361SOL    HW2 2689   1.827  11.299  10.625 -1.2610  0.2166 -0.5844
65362SOL     OW 2690   5.601   4.790   0.197 -0.7253  0.3404  0.0666
65362SOL    HW1 2691   5.685   4.821   0.231  0.6640 -1.3452 -1.5473
65362SOL    HW2 2692   5.573   4.724   0.260 -0.2307  0.0916  0.0324
65363SOL     OW 2693   2.117   8.133   5.744 -0.1874  0.5748 -0.0795
65363SOL    HW1 2694   2.174   8.058   5.759  2.4111  2.5762  0.8192
65363SOL    HW2 2695   2.130   8.155   5.652 -1.0697 -0.1057 -0.3843
65364SOL     OW 2696   0.852  11.644   8.473 -0.0664  0.2016 -0.6846
65364SOL    HW1 2697   0.942  11.640   8.439 -0.8737 -0.2114 -2.9276
65364SOL    HW2 2698   0.829  11.737   8.469 -0.2079  0.1373 -1.4534
65365SOL     OW 2699   7.496  11.345   3.339  0.1671  0.1147  0.2711
65365SOL    HW1 2700   7.474  11.320   3.429 -0.1201  0.1355  0.2072
65365SOL    HW2 2701   7.592  11.342   3.336  0.1985  0.5465  0.6997
65366SOL     OW 2702   1.026   1.138  12.078  0.3902 -0.1869 -0.2314
65366SOL    HW1 2703   0.962   1.204  12.053 -0.7563 -1.1843  0.0163
65366SOL    HW2 2704   0.976   1.069  12.121  1.3903 -1.7165 -1.3745
65367SOL     OW 2705   2.086   9.993   8.683 -0.7746  0.4021 -0.0830
65367SOL    HW1 2706   2.141   9.986   8.604 -0.3037  1.3123  0.1614
65367SOL    HW2 2707   2.016  10.053   8.658 -0.3441  1.0931  0.3404
65368SOL     OW 2708   6.118   0.914   2.375 -0.3551  0.1720 -0.3581
65368SOL    HW1 2709   6.116   0.902   2.280  2.0797 -4.0255 -0.1432
65368SOL    HW2 2710   6.196   0.966   2.391  0.4337 -0.8833 -0.6488
65369SOL     OW 2711   1.325  10.892   8.436  1.0406  0.7629 -0.2475
65369SOL    HW1 2712   1.391  10.924   8.497 -0.2434  1.3477  0.9066
65369SOL    HW2 2713   1.245  10.939   8.460  0.6007  1.4801 -2.8184
65370SOL     OW 2714   9.263   9.804   2.053  0.3265 -0.3352  0.0669
65370SOL    HW1 2715   9.359   9.808   2.058  0.3634  0.0445 -0.7231
65370SOL    HW2 2716   9.236   9.896   2.047 -0.1763 -0.3640  1.4059
65371SOL     OW 2717   9.829   3.566  12.284  0.2676 -0.7115  0.2743
65371SOL    HW1 2718   9.847   3.483  12.239  0.8972 -0.4317 -0.0014
65371SOL    HW2 2719   9.749   3.549  12.335  0.8898 -1.7664  0.9398
65372SOL     OW 2720   7.015   0.174   4.048 -0.6002 -0.0588  0.2091
65372SOL    HW1 2721   7.075   0.121   4.102 -1.1061 -1.5794 -0.6843
65372SOL    HW2 2722   7.058   0.259   4.042  0.4416 -0.4752  1.3453
65373SOL     OW 2723   0.692   8.389   2.515  0.4321  0.1083  0.0831
65373SOL    HW1 2724   0.648   8.306   2.536  1.1860 -0.8428 -1.8094
65373SOL    HW2 2725   0.622   8.447   2.487 -0.0142 -0.1722  0.6024
65374SOL     OW 2726  10.341   1.872  11.851 -0.1460  0.5006  0.0117
65374SOL    HW1 2727  10.287   1.807  11.805  0.0137  1.0459 -0.9833
65374SOL    HW2 2728  10.316   1.955  11.811  1.3930  0.7701 -0.4608
65375SOL     OW 2729   2.968   0.498   3.622 -0.1252 -0.1082 -0.5008
65375SOL    HW1 2730   2.875   0.477   3.633  0.5469 -2.2432  1.9143
65375SOL    HW2 2731   3.013   0.415   3.635  2.2123  1.0189 -0.9068
65376SOL     OW 2732   0.964   3.849   7.626  0.0936  0.1660  0.4507
65376SOL    HW1 2733   0.951   3.793   7.550  0.8415 -0.7141  0.9532
65376SOL    HW2 2734   0.930   3.935   7.599 -1.0911 -0.5261 -0.3080
65377SOL     OW 2735  10.999  12.311   8.689  0.0529  0.5321 -0.5802
65377SOL    HW1 2736  11.076  12.254   8.680 -1.5639 -1.7784 -0.5628
65377SOL    HW2 2737  11.022  12.390   8.640  4.4041  2.2647  3.3851
65378SOL     OW 2738   6.729   7.773   1.798  0.2321  0.0348 -0.3306
65378SOL    HW1 2739   6.691   7.730   1.874  1.9589 -1.0188 -0.0133
65378SOL    HW2 2740   6.759   7.858   1.831 -1.7434  0.8979 -0.5934
65379SOL     OW 2741  10.491   0.198   5.296 -0.0413  0.0649  0.2916
65379SOL    HW1 2742  10.507   0.155   5.212 -1.9353 -0.3082  0.0856
65379SOL    HW2 2743  10.546   0.151   5.359 -0.8361 -1.6028 -0.2302
65380SOL     OW 2744   2.815   7.627   3.105  0.0557  0.0588  0.4217
65380SOL    HW1 2745   2.833   7.693   3.037 -1.2434  0.2851  0.2614
65380SOL    HW2 2746   2.807   7.545   3.056 -0.3635  0.1360  0.3533
65381SOL     OW 2747   5.818   0.217  12.613 -0.1822 -0.1634 -0.0072
65381SOL    HW1 2748   5.904   0.247  12.640 -0.3463 -0.2289  0.5907
65381SOL    HW2 2749   5.769   0.205  12.694  0.0794 -2.6730 -0.1145
65382SOL     OW 2750   4.278   0.059   1.040 -0.0414  0.8377 -0.2304
65382SOL    HW1 2751   4.336   0.121   1.085 -1.4164  1.2296  1.0844
65382SOL    HW2 2752   4.267  -0.013   1.102 -1.9489  1.3704  0.1216
65383SOL     OW 2753   7.133  12.252   4.531 -0.5731  0.3732  0.2448
65383SOL    HW1 2754   7.170  12.169   4.559 -0.7976 -0.8751 -2.7885
65383SOL    HW2 2755   7.045  12.253   4.568  0.1828  0.3592  2.1397
65384SOL     OW 2756   0.824   4.039   7.909  0.3230  0.1645  0.4388
65384SOL    HW1 2757   0.802   4.052   8.002  2.9753  1.7796  0.9418
65384SOL    HW2 2758   0.808   3.945   7.894 -2.4300  0.3067  1.7838
65385SOL     OW 2759   9.913   1.210   0.219  0.2850 -0.4648 -0.6422
65385SOL    HW1 2760  10.006   1.212   0.194  0.2910 -1.0192 -0.6794
65385SOL    HW2 2761   9.913   1.170   0.306  0.0807 -0.5105 -0.6628
65386SOL     OW 2762  11.506   6.144   8.115 -0.0984 -0.4705  0.3601
65386SOL    HW1 2763  11.586   6.196   8.120 -0.9771  0.8257  1.9197
65386SOL    HW2 2764  11.474   6.158   8.025 -0.0716  1.4001  0.5948
65387SOL     OW 2765  11.862  11.666  12.513  0.3940 -0.1621  0.4761
65387SOL    HW1 2766  11.938  11.608  12.525  0.6470 -0.1970 -1.0514
65387SOL    HW2 2767  11.799  11.613  12.463 -0.5694 -0.0576  1.5356
65388SOL     OW 2768   9.013  10.922   1.592 -0.5958 -0.3332  0.2476
65388SOL    HW1 2769   8.969  10.967   1.521  3.2748  2.3149 -0.8134
65388SOL    HW2 2770   9.028  10.833   1.558  0.6985  0.7038 -2.1599
65389SOL     OW 2771  11.124   2.407   1.608  0.8472  0.4052  0.0748
65389SOL    HW1 2772  11.178   2.338   1.646 -2.1450 -1.9502  0.3894
65389SOL    HW2 2773  11.055   2.361   1.561 -1.9304  3.0990  1.1641
65390SOL     OW 2774   6.687   1.810   2.646  0.5969 -0.2253 -0.3494
65390SOL    HW1 2775   6.760   1.772   2.598  0.3983 -3.8525  1.8733
65390SOL    HW2 2776   6.706   1.792   2.738 -1.8315  1.1054  0.5266
65391SOL     OW 2777   2.564   7.476   3.322 -0.3335  0.2203 -0.2051
65391SOL    HW1 2778   2.638   7.525   3.286 -0.9263  0.8076 -0.6420
65391SOL    HW2 2779   2.502   7.468   3.250 -0.1893 -1.3280 -0.1940
65392SOL     OW 2780   6.620   3.269   1.014 -0.0512 -0.8428 -0.3714
65392SOL    HW1 2781   6.623   3.276   0.919  0.7458 -3.5343 -0.6305
65392SOL    HW2 2782   6.530   3.242   1.033 -0.7383  1.3865 -0.1170
65393SOL     OW 2783   5.183   9.814   1.297 -0.2923 -0.5468  0.1790
65393SOL    HW1 2784   5.235   9.822   1.377 -1.0824 -0.2506  0.6657
65393SOL    HW2 2785   5.154   9.723   1.298  1.1861 -1.0676 -0.7152
65394SOL     OW 2786  11.775  11.503   4.897  0.1405  0.1058 -0.5092
65394SOL    HW1 2787  11.706  11.438   4.880  0.2752 -0.0686 -0.3906
65394SOL    HW2 2788  11.854  11.464   4.862  0.5020 -0.4444  0.8548
65395SOL     OW 2789   1.970   1.222   8.063  0.1257  0.1646  0.2651
65395SOL    HW1 2790   1.875   1.236   8.062 -0.4076 -2.6938 -0.8035
65395SOL    HW2 2791   1.999   1.247   7.976  0.1094 -0.1029  0.1801
65396SOL     OW 2792   3.199   7.839   5.078 -0.1812 -0.7618 -0.3719
65396SOL    HW1 2793   3.126   7.778   5.091  1.3639 -3.1481 -2.0562
65396SOL    HW2 2794   3.188   7.870   4.988  0.1317 -0.0363 -0.1683
65397SOL     OW 2795   1.557   5.895   3.682 -0.4909 -0.2351  0.2392
65397SOL    HW1 2796   1.580   5.877   3.590 -1.4319  0.2416 -0.0973
65397SOL    HW2 2797   1.502   5.821   3.708  1.6304 -1.5895  1.1747
65398SOL     OW 2798   1.591  11.518   5.205  0.1769  0.0959 -0.2547
65398SOL    HW1 2799   1.595  11.585   5.273  0.1245  0.3792 -0.5336
65398SOL    HW2 2800   1.658  11.544   5.142  0.7581 -0.5812  0.0671
65399SOL     OW 2801   1.189   9.887  11.620  0.2891 -0.0047  0.0019
65399SOL    HW1 2802   1.212   9.836  11.543  1.0167  0.5530 -0.1603
65399SOL    HW2 2803   1.236   9.970  11.609 -0.2958  0.4260  0.6097
65400SOL     OW 2804   7.773   9.767   7.491  0.1156  0.0194  0.3215
65400SOL    HW1 2805   7.830   9.834   7.529 -0.1517  0.4021  0.0550
65400SOL    HW2 2806   7.689   9.778   7.535 -0.2833  0.6610 -0.5738
65401SOL     OW 2807   4.081   4.979   9.311 -0.4692 -0.6451 -0.2829
65401SOL    HW1 2808   3.988   5.000   9.316 -0.4761 -0.3859 -1.2033
65401SOL    HW2 2809   4.101   4.936   9.394 -1.2753 -0.1805  0.1635
65402SOL     OW 2810   7.184   1.409   2.813  0.0362 -0.3471  0.0173
65402SOL    HW1 2811   7.159   1.356   2.737  0.7710 -1.3514  0.4422
65402SOL    HW2 2812   7.211   1.493   2.776 -1.9972  0.0850 -0.6025
65403SOL     OW 2813   1.867  11.663   1.612 -0.1788  0.1934  0.0670
65403SOL    HW1 2814   1.952  11.619   1.619 -0.1822 -0.1697 -1.7343
65403SOL    HW2 2815   1.840  11.649   1.521 -2.4617 -0.2187  0.7443
65404SOL     OW 2816   9.977  10.235  12.590  0.4145  0.1206 -0.6077
65404SOL    HW1 2817   9.925  10.158  12.564 -0.4827 -0.0712  1.5030
65404SOL    HW2 2818   9.914  10.307  12.589  0.3965  0.1506  0.6287
65405SOL     OW 2819   4.095   7.565   0.090  0.0230 -0.0237  0.1547
65405SOL    HW1 2820   4.019   7.556   0.033 -0.3450  0.6663  0.5189
65405SOL    HW2 2821   4.159   7.504   0.054 -0.6153 -0.4475 -0.2964
65406SOL     OW 2822   7.651   7.997   3.314 -0.0704  0.3171  0.4783
65406SOL    HW1 2823   7.729   7.942   3.327 -0.4014 -0.1652  0.4689
65406SOL    HW2 2824   7.579   7.944   3.347 -0.2676  1.2004  1.5152
65407SOL     OW 2825   0.217   7.690   0.252  0.0234  0.2980  0.6882
65407SOL    HW1 2826   0.156   7.763   0.248 -0.0795  0.1573 -1.1367
65407SOL    HW2 2827   0.164   7.615   0.280 -0.3839  0.4186  0.2334
65408SOL     OW 2828   3.313  11.414   7.482 -0.1461  0.3221 -0.5913
65408SOL    HW1 2829   3.349  11.498   7.508  0.1972 -0.5261  1.8990
65408SOL    HW2 2830   3.359  11.350   7.536 -0.5466 -1.4752 -2.2621
65409SOL     OW 2831   8.676   3.777   3.383 -0.4290  0.1333  1.1469
65409SOL    HW1 2832   8.711   3.855   3.340 -0.1372 -1.3284 -1.5023
65409SOL    HW2 2833   8.744   3.752   3.446  1.3478 -0.1420 -0.7760
65410SOL     OW 2834   4.372   4.290  11.983  0.5225  0.0216 -0.3489
65410SOL    HW1 2835   4.278   4.279  11.995  0.6650  0.5002  1.5989
65410SOL    HW2 2836   4.382   4.380  11.953  0.3198 -0.3054 -1.4270
65411SOL     OW 2837  10.504   3.986   9.787  0.1320 -0.6904  0.0209
65411SOL    HW1 2838  10.454   3.905   9.779 -0.9761 -0.0503  0.1598
65411SOL    HW2 2839  10.484   4.018   9.875  0.0660  0.0354 -0.2453
65412SOL     OW 2840   3.527   3.464  11.922  0.2346 -0.3493  0.4361
65412SOL    HW1 2841   3.615   3.449  11.958 -0.0368  0.4321  1.4631
65412SOL    HW2 2842   3.518   3.560  11.921  0.6969 -0.2070 -2.9249
65413SOL     OW 2843   6.687   6.410  10.736  0.0821 -0.4346 -0.0068
65413SOL    HW1 2844   6.644   6.435  10.655 -0.9051  0.2063  0.6842
65413SOL    HW2 2845   6.617   6.412  10.802  0.3336 -3.2990  0.4463
65414SOL     OW 2846   1.359   7.986  12.178  0.2156 -0.6063 -0.0597
65414SOL    HW1 2847   1.439   8.039  12.167  0.3190 -0.4665  1.1505
65414SOL    HW2 2848   1.344   7.987  12.273  0.9263 -3.7835  0.1957
65415SOL     OW 2849  11.868   8.926  12.346  0.1143 -0.2605  0.3738
65415SOL    HW1 2850  11.858   9.010  12.300 -0.9872 -1.5401 -1.9136
65415SOL    HW2 2851  11.858   8.860  12.277 -0.1856 -2.3136  2.2797
65416SOL     OW 2852   6.707   6.813   4.275 -0.5233 -0.3469 -0.3521
65416SOL    HW1 2853   6.787   6.824   4.326  0.8432 -0.8289 -2.2739
65416SOL    HW2 2854   6.653   6.888   4.299  0.5127  0.0321  0.9348
65417SOL     OW 2855  11.146   4.243  11.544  0.1151 -0.1383 -0.3302
65417SOL    HW1 2856  11.152   4.230  11.638 -1.8975 -2.3511 -0.3974
65417SOL    HW2 2857  11.052   4.253  11.527  0.1709 -1.9375 -2.2414
65418SOL     OW 2858   1.541   1.442   5.554  0.0358  0.4870 -0.1456
65418SOL    HW1 2859   1.456   1.424   5.515  0.7778 -1.1873 -1.1169
65418SOL    HW2 2860   1.525   1.439   5.649 -0.8721 -0.5057 -0.3106
65419SOL     OW 2861   1.462   7.315   6.687 -0.2549 -0.3386 -0.3076
65419SOL    HW1 2862   1.379   7.268   6.700 -0.2123 -0.4884 -0.5623
65419SOL    HW2 2863   1.438   7.407   6.686 -0.4902 -0.4021 -0.8773
65420SOL     OW 2864   4.441   0.063   9.339  0.5295  0.2911  0.2625
65420SOL    HW1 2865   4.375   0.113   9.290  0.8055 -0.7375 -1.2454
65420SOL    HW2 2866   4.392   0.017   9.407 -0.2528 -0.0843 -0.5334
65421SOL     OW 2867   9.552   3.080   1.192 -0.1265  0.3970 -0.2947
65421SOL    HW1 2868   9.648   3.079   1.198 -0.1706 -0.0323  0.4262
65421SOL    HW2 2869   9.522   3.064   1.281 -0.8753 -0.4643 -0.6875
65422SOL     OW 2870   7.679   7.407   0.458  0.3202 -0.1285 -0.4596
65422SOL    HW1 2871   7.663   7.470   0.387 -1.2545  1.1482  0.9648
65422SOL    HW2 2872   7.704   7.461   0.533  0.7122 -1.3634  0.3313
65423SOL     OW 2873   3.662   8.543   7.368  0.2581  0.2649  0.5164
65423SOL    HW1 2874   3.577   8.512   7.398 -1.2346  0.9479 -2.6883
65423SOL    HW2 2875   3.715   8.463   7.360 -1.5089 -0.7929 -1.5661
65424SOL     OW 2876  12.650   5.270  11.316 -0.3303 -0.3509 -0.5411
65424SOL    HW1 2877  12.598   5.197  11.350 -0.1618 -0.3931 -0.3739
65424SOL    HW2 2878  12.607   5.348  11.351  1.4177 -0.4391  2.1066
65425SOL     OW 2879  12.165   7.974   9.648 -0.1208  0.1022  0.1463
65425SOL    HW1 2880  12.091   8.029   9.621  1.1730  1.8962  0.0666
65425SOL    HW2 2881  12.198   7.936   9.566 -1.4525 -1.4288  0.2810
65426SOL     OW 2882   3.004  12.573  11.753  0.2203  0.7273  0.0854
65426SOL    HW1 2883   2.999  12.521  11.673  0.3974  0.6765  0.1067
65426SOL    HW2 2884   2.972  12.514  11.822 -1.3647  1.2430 -0.1557
65427SOL     OW 2885   7.527   3.815  12.337  0.3677  0.4557  0.5265
65427SOL    HW1 2886   7.482   3.897  12.316 -3.1821 -1.2342  0.7337
65427SOL    HW2 2887   7.480   3.781  12.413  2.4552 -1.2644  1.1300
65428SOL     OW 2888   0.260   6.182   2.794 -0.2225  0.3346  0.0167
65428SOL    HW1 2889   0.214   6.099   2.808  1.2568 -0.5575 -0.2090
65428SOL    HW2 2890   0.298   6.203   2.879  0.9657 -0.2113 -0.3652
65429SOL     OW 2891  12.783   9.376   4.020  0.1280 -0.1015 -0.0966
65429SOL    HW1 2892  12.788   9.291   4.064 -1.4767  0.2495  0.8485
65429SOL    HW2 2893  12.713   9.423   4.065 -1.0942  0.5898 -2.5283
65430SOL     OW 2894   4.896  10.720   3.347 -0.0290 -0.0314 -0.3786
65430SOL    HW1 2895   4.959  10.784   3.381 -0.5735  0.5882 -0.5207
65430SOL    HW2 2896   4.944  10.637   3.347  1.3921  0.7221 -2.1770
65431SOL     OW 2897  11.057   1.411   7.943  0.2527 -0.3063 -0.0211
65431SOL    HW1 2898  11.127   1.468   7.976  1.9841 -2.2850 -0.0518
65431SOL    HW2 2899  10.984   1.427   8.002 -0.0736  3.3187 -1.1599
65432SOL     OW 2900   5.111   8.904  12.661  0.5380 -0.2449  0.5285
65432SOL    HW1 2901   5.123   8.997  12.645  2.6742 -0.7688 -1.2581
65432SOL    HW2 2902   5.157   8.887  12.744  3.4002 -0.2848 -0.9610
65433SOL     OW 2903   7.000   9.956   7.201 -0.1307  0.3307 -0.6634
65433SOL    HW1 2904   6.999   9.988   7.291 -2.9806  2.0021 -1.1758
65433SOL    HW2 2905   6.908   9.956   7.175  0.3683 -2.2429 -2.9049
65434SOL     OW 2906   8.533  10.340  12.666  0.1133 -0.9681 -0.4130
65434SOL    HW1 2907   8.510  10.372  12.579  0.7489  0.3008 -0.1330
65434SOL    HW2 2908   8.590  10.407  12.703 -0.3402 -1.3562  1.0892
65435SOL     OW 2909   1.372   8.133   3.058  0.4904  0.1744  0.1875
65435SOL    HW1 2910   1.285   8.108   3.090  0.2983 -0.7189 -0.9660
65435SOL    HW2 2911   1.355   8.200   2.991  0.7263  0.3524  0.3030
65436SOL     OW 2912   6.115   6.544   7.620  0.2658  0.0687  0.0849
65436SOL    HW1 2913   6.198   6.590   7.636  0.4287 -0.1211 -0.1964
65436SOL    HW2 2914   6.058   6.571   7.692 -0.6301  2.9963 -1.5525
65437SOL     OW 2915   4.529   4.626   2.402  0.1559  0.1253 -0.7397
65437SOL    HW1 2916   4.552   4.539   2.435  0.2086 -0.0585 -1.2477
65437SOL    HW2 2917   4.480   4.666   2.473  2.5385  0.7706  0.6475
65438SOL     OW 2918  11.130   9.764   0.777  0.3340  0.0611  0.1838
65438SOL    HW1 2919  11.211   9.734   0.818 -0.0040  0.7502  1.4354
65438SOL    HW2 2920  11.062   9.748   0.843 -0.3897  0.3759 -0.4664
65439SOL     OW 2921   0.357   0.720   4.844  0.5198 -0.4128  0.5963
65439SOL    HW1 2922   0.452   0.707   4.850  0.6715  0.3658  0.0605
65439SOL    HW2 2923   0.334   0.770   4.922  0.7658  0.4833  0.1138
65440SOL     OW 2924   4.773   7.112   8.590  0.1782 -0.2845 -0.1943
65440SOL    HW1 2925   4.812   7.186   8.544  1.1346  0.2778  1.4639
65440SOL    HW2 2926   4.796   7.036   8.537 -1.3558  0.6141 -2.2695
65441SOL     OW 2927   1.410   2.135   4.111 -0.1988  0.7353  0.1234
65441SOL    HW1 2928   1.489   2.083   4.100 -0.6709 -0.3337  1.5236
65441SOL    HW2 2929   1.339   2.079   4.078 -0.7249  0.3944  1.7542
65442SOL     OW 2930   5.958   4.515   8.878 -0.2581 -0.2944 -0.2245
65442SOL    HW1 2931   5.891   4.450   8.898  0.0446 -0.9185 -1.1774
65442SOL    HW2 2932   5.911   4.587   8.836 -0.3597 -0.6581 -0.7363
65443SOL     OW 2933   3.298  10.325  12.283  0.5512  0.3894  0.5734
65443SOL    HW1 2934   3.382  10.279  12.280  0.0190 -0.7639  2.2231
65443SOL    HW2 2935   3.303  10.377  12.364 -0.1125  0.7433  0.3885
65444SOL     OW 2936   4.374   7.254   1.620 -0.0115  0.0103  0.2050
65444SOL    HW1 2937   4.413   7.301   1.694  0.1989 -0.6609  0.5402
65444SOL    HW2 2938   4.312   7.194   1.662  0.1910 -0.4524 -0.1495
65445SOL     OW 2939   7.473   2.713   1.940  0.0044  0.2906 -0.1270
65445SOL    HW1 2940   7.437   2.786   1.991  0.4339  0.6650 -0.3548
65445SOL    HW2 2941   7.511   2.755   1.863  1.4325 -0.0295  0.3750
65446SOL     OW 2942   2.425   5.597   9.499 -0.5346 -0.1049  0.1318
65446SOL    HW1 2943   2.468   5.515   9.476 -0.7823 -0.2500  0.1812
65446SOL    HW2 2944   2.490   5.646   9.549 -0.9146 -0.9470  1.4866
65447SOL     OW 2945   9.450   1.334   2.658 -0.6430 -0.3242  0.1371
65447SOL    HW1 2946   9.416   1.255   2.616 -1.4178 -0.1569  0.4303
65447SOL    HW2 2947   9.472   1.307   2.747 -1.7242 -0.0352  0.5154
65448SOL     OW 2948   0.769  10.902   4.726  0.6114  0.6785  0.4817
65448SOL    HW1 2949   0.720  10.940   4.654 -1.0882 -1.0879  0.6355
65448SOL    HW2 2950   0.789  10.977   4.783 -1.4511  1.5692  0.1410
65449SOL     OW 2951   0.683  11.442   4.923 -0.1783 -0.1665 -0.8470
65449SOL    HW1 2952   0.666  11.366   4.867  1.0657 -0.2485 -1.1232
65449SOL    HW2 2953   0.627  11.426   5.000  2.4335 -3.1474  0.6908
65450SOL     OW 2954   2.553   9.085  11.727 -0.1688 -0.6160 -0.3054
65450SOL    HW1 2955   2.499   9.084  11.648  2.2395 -0.9167 -2.0547
65450SOL    HW2 2956   2.497   9.046  11.794 -1.3754 -3.0605 -2.5494
65451SOL     OW 2957  11.718   8.750  11.340  0.4835  0.2970 -0.5928
65451SOL    HW1 2958  11.737   8.826  11.396 -2.3089  0.2537  0.5835
65451SOL    HW2 2959  11.755   8.676  11.387  0.5946  0.5846 -0.2204
65452SOL     OW 2960   1.794  12.489   9.126 -0.5859  0.0870 -0.2737
65452SOL    HW1 2961   1.830  12.570   9.163 -0.3433 -0.5546  0.9470
65452SOL    HW2 2962   1.848  12.473   9.048  0.7307  0.0171  0.6148
65453SOL     OW 2963   9.635  12.654   0.271  0.0008  0.6123  0.2886
65453SOL    HW1 2964   9.542  12.679   0.272 -0.1414  0.1579  2.2297
65453SOL    HW2 2965   9.634  12.560   0.253  0.1201  0.6539  0.0489
65454SOL     OW 2966   5.889   2.880   9.548 -0.2370  0.4986  0.0707
65454SOL    HW1 2967   5.843   2.952   9.591  1.2155  1.2709  0.4083
65454SOL    HW2 2968   5.956   2.923   9.494  0.2271 -0.5809 -0.2413
65455SOL     OW 2969  10.089  11.711   7.855 -0.1638 -0.0279 -0.1856
65455SOL    HW1 2970  10.093  11.660   7.774  2.5094  0.1630 -0.2879
65455SOL    HW2 2971  10.161  11.774   7.847  1.0339 -0.8230  2.8502
65456SOL     OW 2972   9.070  12.052   3.884  0.3964  0.3621  0.1417
65456SOL    HW1 2973   9.155  12.021   3.912  1.5405  3.0767 -0.0087
65456SOL    HW2 2974   9.085  12.089   3.797 -1.2733 -0.3503 -0.5105
65457SOL     OW 2975   9.064   8.238   3.372  0.3952 -0.0689  0.4058
65457SOL    HW1 2976   9.115   8.317   3.350  0.1781 -0.4275 -1.5754
65457SOL    HW2 2977   9.058   8.240   3.468 -2.3091  4.0601  0.4292
65458SOL     OW 2978  10.185   2.100  12.713  0.3979 -0.0700  0.2829
65458SOL    HW1 2979  10.135   2.064  12.640 -1.5271  2.8317  0.0168
65458SOL    HW2 2980  10.137   2.072  12.791 -1.3574  2.0799  0.0600
65459SOL     OW 2981  11.642   6.803   4.417  0.3594  0.4955 -0.5988
65459SOL    HW1 2982  11.582   6.804   4.491 -0.2459  2.0490 -1.0783
65459SOL    HW2 2983  11.696   6.725   4.431 -1.5687 -0.8125 -0.0087
65460SOL     OW 2984   1.335   5.908   0.500 -0.3035 -0.1191 -0.2483
65460SOL    HW1 2985   1.339   5.817   0.468 -0.9838  0.0239 -0.7693
65460SOL    HW2 2986   1.364   5.903   0.591  1.9510 -0.5058 -0.9318
65461SOL     OW 2987  12.071   4.630  11.950 -0.0240 -0.2522  0.0463
65461SOL    HW1 2988  12.136   4.564  11.924  0.6400  0.5306 -0.3321
65461SOL    HW2 2989  12.024   4.652  11.870  1.2972  1.3745 -0.3433
65462SOL     OW 2990  10.488   7.625   6.074 -0.3400  0.4871 -0.7023
65462SOL    HW1 2991  10.480   7.647   6.167  1.1530  0.9326 -0.6462
65462SOL    HW2 2992  10.463   7.705   6.028 -3.2723 -0.3937 -0.8071
65463SOL     OW 2993   9.853   0.401  10.001  0.6606  0.2778 -0.0884
65463SOL    HW1 2994   9.939   0.428  10.033  1.1909  1.7400 -2.5672
65463SOL    HW2 2995   9.802   0.481   9.997 -0.5333 -0.4241  0.3965
65464SOL     OW 2996   2.912   4.316   8.224 -0.7461 -0.3020  0.4020
65464SOL    HW1 2997   2.827   4.293   8.261 -0.5997  0.1803  1.0659
65464SOL    HW2 2998   2.976   4.279   8.286 -0.4254 -2.0939 -0.9415
65465SOL     OW 2999   7.614  12.634   8.601  0.0902  0.5625 -0.0099
65465SOL    HW1 3000   7.609  12.542   8.575 -0.7340  1.2893 -2.7353
65465SOL    HW2 3001   7.696  12.640   8.650 -0.2642 -1.7552  1.0145
65466SOL     OW 3002   9.911   0.700   2.187 -0.5609  0.4939  0.3066
65466SOL    HW1 3003   9.941   0.788   2.207  0.4211  0.4331 -0.7784
65466SOL    HW2 3004   9.938   0.648   2.263  2.4179  0.3981 -0.6757
65467SOL     OW 3005   1.229  11.362   7.823  0.1547  1.1357 -0.6566
65467SOL    HW1 3006   1.261  11.386   7.911  1.1458 -1.0908 -0.3474
65467SOL    HW2 3007   1.235  11.444   7.773 -1.1553  2.6688  1.4954
65468SOL     OW 3008   6.281   1.146   2.741  0.1222  0.1450 -0.2112
65468SOL    HW1 3009   6.324   1.072   2.698 -0.0947 -0.1661  0.0978
65468SOL    HW2 3010   6.259   1.113   2.828 -1.8105 -0.1258 -0.7488
65469SOL     OW 3011  10.221   9.976   0.305  0.0210  0.3680  0.2084
65469SOL    HW1 3012  10.311   9.948   0.286  0.0975 -0.2127  1.3120
65469SOL    HW2 3013  10.224  10.071   0.297 -0.0562  0.1982 -2.8810
65470SOL     OW 3014   3.012   7.754   3.911 -0.3897  0.2046  0.7159
65470SOL    HW1 3015   3.104   7.733   3.929 -0.3262 -0.1849 -0.0203
65470SOL    HW2 3016   2.963   7.677   3.941 -0.3373 -0.1877 -0.1622
65471SOL     OW 3017   4.744   8.467   7.614 -0.2105  0.5213  0.3740
65471SOL    HW1 3018   4.694   8.543   7.585 -0.9371  0.0440  0.3417
65471SOL    HW2 3019   4.698   8.436   7.692 -3.2344 -3.0184 -2.4317
65472SOL     OW 3020   6.681   6.151   1.481 -0.1885 -0.0691 -0.3393
65472SOL    HW1 3021   6.631   6.220   1.525  1.1548  0.1540  0.9177
65472SOL    HW2 3022   6.715   6.097   1.553  0.1282 -1.0885 -1.2351
65473SOL     OW 3023   5.692   4.210   8.171  0.0584 -0.2507 -0.5523
65473SOL    HW1 3024   5.715   4.288   8.222 -0.7904  0.0800 -0.6574
65473SOL    HW2 3025   5.769   4.192   8.117  0.6993 -0.1798  0.3157
65474SOL     OW 3026   7.964   8.006   6.352 -0.4549 -0.0966 -0.1872
65474SOL    HW1 3027   8.014   7.934   6.391 -0.5544  0.6341  1.3653
65474SOL    HW2 3028   7.986   8.082   6.406 -1.3937  0.7525 -0.9687
65475SOL     OW 3029   1.564   4.166   7.757 -0.4224  0.4301 -0.5020
65475SOL    HW1 3030   1.617   4.201   7.685 -0.8916  1.1345 -0.5194
65475SOL    HW2 3031   1.502   4.107   7.714 -0.3697  0.4572 -0.6169
65476SOL     OW 3032   5.622  12.037   6.811  0.6814  0.0764 -0.3079
65476SOL    HW1 3033   5.539  12.002   6.778 -0.4219  1.3514  0.9359
65476SOL    HW2 3034   5.650  11.973   6.877 -1.1811  1.2308  1.7659
65477SOL     OW 3035   4.372   3.381  11.490  0.3684  0.0053 -0.5460
65477SOL    HW1 3036   4.283   3.415  11.501  0.6248  0.1135  1.6775
65477SOL    HW2 3037   4.364   3.314  11.421 -1.0165  1.3505 -1.7520
65478SOL     OW 3038  10.569   2.900   3.162 -0.0378  0.7131  0.0831
65478SOL    HW1 3039  10.646   2.943   3.125 -0.2662  0.2372 -0.9641
65478SOL    HW2 3040  10.512   2.973   3.190 -0.7073  1.1636 -2.2618
65479SOL     OW 3041   9.213   8.051   5.865 -0.1522 -0.6230  0.2974
65479SOL    HW1 3042   9.256   8.123   5.819  0.8849 -0.9724  0.6915
65479SOL    HW2 3043   9.135   8.090   5.903  0.2467  0.2290  0.2648
65480SOL     OW 3044   4.808   3.292   3.006 -0.3040 -0.5723 -0.0816
65480SOL    HW1 3045   4.790   3.262   2.917  0.0225  2.2159 -1.1734
65480SOL    HW2 3046   4.882   3.351   2.997  0.4593 -1.0748  2.2517
65481SOL     OW 3047  11.009   0.656   4.741 -0.0802  0.5838  0.4339
65481SOL    HW1 3048  11.093   0.644   4.784 -0.2149 -0.7187  0.3634
65481SOL    HW2 3049  10.950   0.596   4.786 -1.1465  1.9042  0.8864
65482SOL     OW 3050   6.091   3.381  11.468  0.1764 -0.0199 -0.4478
65482SOL    HW1 3051   6.133   3.467  11.463  0.7571 -0.1088  1.7312
65482SOL    HW2 3052   6.156   3.326  11.513 -2.1093 -0.1893  3.0657
65483SOL     OW 3053   1.436   8.351   1.124 -0.0421  0.2165  0.0213
65483SOL    HW1 3054   1.480   8.332   1.041  1.4742 -0.9326  1.0282
65483SOL    HW2 3055   1.501   8.399   1.174 -0.5472 -0.0381  0.9357
65484SOL     OW 3056   6.152   6.096   9.364 -0.0111  0.6792  0.0331
65484SOL    HW1 3057   6.142   6.101   9.269 -0.2539  0.9215  0.0726
65484SOL    HW2 3058   6.097   6.022   9.389  0.2455  0.4580 -0.0401
65485SOL     OW 3059  10.329   4.674   3.215 -0.1515 -0.4405  0.4294
65485SOL    HW1 3060  10.272   4.751   3.216  1.0955  0.5143  2.0592
65485SOL    HW2 3061  10.270   4.601   3.234 -1.3413  0.0777 -1.0787
65486SOL     OW 3062  12.025  11.147   1.121 -0.6238  0.4606 -0.4833
65486SOL    HW1 3063  12.056  11.061   1.095 -2.0793  0.0441 -0.8895
65486SOL    HW2 3064  12.027  11.146   1.216 -1.9742 -0.5552 -0.4408
65487SOL     OW 3065   5.812  12.543  10.460 -0.0791 -0.2159  0.0241
65487SOL    HW1 3066   5.744  12.487  10.423  0.5785 -0.6315 -0.5794
65487SOL    HW2 3067   5.776  12.632  10.454  0.5952 -0.0334 -3.1391
65488SOL     OW 3068  11.168   6.510   7.454 -0.2256  1.2645  0.6423
65488SOL    HW1 3069  11.226   6.559   7.513  1.0905  1.0240 -0.4227
65488SOL    HW2 3070  11.226   6.477   7.385 -1.4281 -0.0676  0.2343
65489SOL     OW 3071   7.659  11.054   9.377 -0.0832 -0.6311  0.4331
65489SOL    HW1 3072   7.693  11.084   9.461  1.5546 -1.4256  0.0962
65489SOL    HW2 3073   7.588  11.114   9.357 -1.2589 -1.0426  2.8805
65490SOL     OW 3074   0.755  11.254   1.538 -0.5260  0.0765  0.4154
65490SOL    HW1 3075   0.831  11.195   1.538 -1.2742 -0.9256  1.7283
65490SOL    HW2 3076   0.681  11.199   1.515 -0.8746  1.0818 -0.9967
65491SOL     OW 3077   2.505   0.789   7.952 -0.0691 -0.4258 -0.1599
65491SOL    HW1 3078   2.481   0.882   7.954 -0.9297 -0.5608 -1.9065
65491SOL    HW2 3079   2.599   0.788   7.968  0.4689  1.0195 -2.7133
65492SOL     OW 3080   4.778   4.121   8.256  0.3880 -0.2372  0.4263
65492SOL    HW1 3081   4.704   4.080   8.301  0.1438  0.3630  0.5750
65492SOL    HW2 3082   4.743   4.148   8.172  0.2787  0.5944  0.7371
65493SOL     OW 3083   4.623   3.141   9.407  0.3622 -0.8513 -0.4699
65493SOL    HW1 3084   4.554   3.125   9.343  0.1017  0.7314 -0.6332
65493SOL    HW2 3085   4.699   3.168   9.356  0.2310  0.1707 -0.1454
65494SOL     OW 3086   3.402   3.911  10.913  0.4079  0.0528 -0.0567
65494SOL    HW1 3087   3.430   3.941  11.000  2.4647  0.9211 -0.9599
65494SOL    HW2 3088   3.459   3.838  10.892 -0.3426 -0.4155 -0.5284
65495SOL     OW 3089   8.220   0.117   7.056 -0.0414 -0.3771  0.0920
65495SOL    HW1 3090   8.160   0.043   7.060 -1.4265  0.6633  4.6758
65495SOL    HW2 3091   8.167   0.190   7.023 -0.8439  0.0568  2.1828
65496SOL     OW 3092  10.611   4.694   3.289  0.2505 -0.0255 -0.2006
65496SOL    HW1 3093  10.517   4.712   3.290 -0.2768 -2.4746 -0.1032
65496SOL    HW2 3094  10.625   4.640   3.212  0.9337 -2.4968  1.5345
65497SOL     OW 3095   2.208   9.321  12.292  0.7021  0.7208  0.0567
65497SOL    HW1 3096   2.170   9.369  12.366 -0.7561  0.3399 -0.4023
65497SOL    HW2 3097   2.133   9.301  12.236  1.8902  1.8574 -2.0589
65498SOL     OW 3098   4.286  11.515   5.322 -0.1226  0.2577  0.7102
65498SOL    HW1 3099   4.194  11.512   5.349 -0.8506 -0.8125 -1.6339
65498SOL    HW2 3100   4.283  11.532   5.228  1.9524 -1.9086  0.1461
65499SOL     OW 3101   9.820   0.712   5.209  0.3790 -0.4752 -0.0827
65499SOL    HW1 3102   9.886   0.644   5.226 -0.6355 -1.8511 -1.3884
65499SOL    HW2 3103   9.832   0.733   5.116 -0.1406  0.2606  0.0114
65500SOL     OW 3104   7.591   6.072  11.188 -0.2463 -0.1192 -0.1684
65500SOL    HW1 3105   7.593   5.987  11.144  1.3563 -0.0022 -0.4096
65500SOL    HW2 3106   7.678   6.109  11.172  0.4934 -0.0923  3.1211
65501SOL     OW 3107   3.285   6.724   7.272  0.0771 -0.0567  0.6973
65501SOL    HW1 3108   3.359   6.674   7.236 -0.1061  0.7316 -0.8612
65501SOL    HW2 3109   3.265   6.680   7.355  1.5442 -0.9926  0.6004
65502SOL     OW 3110   1.179   0.722   4.302  0.0411 -0.0184 -0.2175
65502SOL    HW1 3111   1.118   0.792   4.282  2.1456  2.0932  0.2465
65502SOL    HW2 3112   1.188   0.674   4.220  0.3975  1.8299 -1.3224
65503SOL     OW 3113  10.399   1.738   9.663 -0.2456  0.1931  0.0115
65503SOL    HW1 3114  10.358   1.803   9.720  0.2503 -0.2431  0.8915
65503SOL    HW2 3115  10.333   1.669   9.653  0.1704 -0.4135  1.2626
65504SOL     OW 3116   0.885  11.290   9.630  0.7042  0.6504  0.5815
65504SOL    HW1 3117   0.934  11.344   9.568  2.4575 -1.4059  0.0613
65504SOL    HW2 3118   0.814  11.347   9.660  0.9876  2.4024 -1.7566
65505SOL     OW 3119   3.763   4.001   2.016  0.4024 -0.3307 -0.3399
65505SOL    HW1 3120   3.800   4.030   2.099 -0.4754 -1.1610  0.3717
65505SOL    HW2 3121   3.764   4.079   1.960  0.3399  0.4202  0.6855
65506SOL     OW 3122   1.035   2.228  11.053  0.8951 -0.4963  0.1948
65506SOL    HW1 3123   1.125   2.207  11.031  0.5963 -1.8029  0.1228
65506SOL    HW2 3124   0.983   2.160  11.009 -0.2500  1.1477 -1.1264
65507SOL     OW 3125   9.961   5.558   1.540 -0.1923  0.5115 -0.3215
65507SOL    HW1 3126  10.052   5.577   1.519 -0.6793  1.6079 -1.5505
65507SOL    HW2 3127   9.960   5.547   1.635  1.2311  0.3366 -0.3050
65508SOL     OW 3128   8.897   0.315  12.215 -1.2137  0.0699  0.5969
65508SOL    HW1 3129   8.936   0.370  12.283 -2.0160  0.2879  0.8882
65508SOL    HW2 3130   8.810   0.294  12.247 -1.5147 -0.0355 -0.2512
65509SOL     OW 3131   6.237   9.193   2.873  0.4032  0.6337 -0.0448
65509SOL    HW1 3132   6.222   9.287   2.877  0.2387  0.7121 -1.8970
65509SOL    HW2 3133   6.154   9.156   2.845 -0.0499 -0.2835  2.2874
65510SOL     OW 3134   9.497   1.943   0.829  0.3826  0.2961 -0.1227
65510SOL    HW1 3135   9.468   2.016   0.773 -0.3328  1.0272  1.1541
65510SOL    HW2 3136   9.416   1.906   0.864  0.8575  1.0834  1.9327
65511SOL     OW 3137   9.888   7.031   8.581  0.9188  0.1630  0.8409
65511SOL    HW1 3138   9.887   7.053   8.488 -0.0020  1.0379  1.0394
65511SOL    HW2 3139   9.956   7.087   8.618  0.2984  0.8798  0.9225
65512SOL     OW 3140   9.789   4.219  10.623  0.8666 -0.0906 -0.2278
65512SOL    HW1 3141   9.818   4.140  10.577 -0.0139  0.0331 -1.0151
65512SOL    HW2 3142   9.863   4.280  10.615  0.7144 -0.0564 -1.5319
65513SOL     OW 3143  12.294  10.725   1.473  0.3100 -0.0608  0.1791
65513SOL    HW1 3144  12.335  10.710   1.388 -2.0361 -0.2747 -1.0158
65513SOL    HW2 3145  12.320  10.651   1.526  0.3871 -0.8843 -0.9694
65514SOL     OW 3146   2.193   9.968   8.172  0.0271 -0.1475  0.0575
65514SOL    HW1 3147   2.170  10.012   8.090 -0.6539 -1.7742 -0.6821
65514SOL    HW2 3148   2.286   9.986   8.184 -0.1759  1.2852 -0.3057
65515SOL     OW 3149   0.596   1.418   8.056  0.1933  0.3564 -0.2619
65515SOL    HW1 3150   0.565   1.405   8.146 -0.6095 -3.3354 -0.9484
65515SOL    HW2 3151   0.531   1.375   8.001  3.1484 -2.0375 -2.2093
65516SOL     OW 3152   4.261   0.593   2.867  0.4524 -0.9601  0.3172
65516SOL    HW1 3153   4.216   0.532   2.809  1.4812 -0.5585 -0.9475
65516SOL    HW2 3154   4.201   0.605   2.941 -1.0010 -1.2718 -0.7867
65517SOL     OW 3155   1.495   2.646   1.772 -0.8314 -0.5735 -0.2519
65517SOL    HW1 3156   1.448   2.606   1.698 -0.7849 -0.1124 -0.5352
65517SOL    HW2 3157   1.534   2.725   1.735 -0.9018 -0.2798  0.2971
65518SOL     OW 3158   8.156   9.662   2.748 -0.0359 -0.6508 -0.0709
65518SOL    HW1 3159   8.155   9.601   2.822 -0.3444  0.6532  1.0450
65518SOL    HW2 3160   8.095   9.732   2.774 -0.2192 -0.2081 -1.6064
65519SOL     OW 3161  11.757   0.396   7.607  0.2462  0.5748 -0.2179
65519SOL    HW1 3162  11.693   0.371   7.674  0.6005  1.4586  0.4713
65519SOL    HW2 3163  11.836   0.346   7.630  0.5470  1.2965  0.3906
65520SOL     OW 3164   7.856   9.836   5.836  0.2042  0.2944  0.2836
65520SOL    HW1 3165   7.776   9.834   5.889  0.4744  0.7180  0.7147
65520SOL    HW2 3166   7.847   9.915   5.783  0.1505  0.1185  0.0258
65521SOL     OW 3167   7.570  11.676   7.343 -0.7885 -0.0555  0.4009
65521SOL    HW1 3168   7.524  11.593   7.354  0.9950 -1.7744 -3.3858
65521SOL    HW2 3169   7.504  11.737   7.309 -1.4561 -0.8204  0.3071
65522SOL     OW 3170   2.948   6.591  10.047 -0.1519 -0.6418 -0.3371
65522SOL    HW1 3171   2.930   6.683  10.067  0.5258 -0.6869  0.5203
65522SOL    HW2 3172   2.933   6.584   9.953  0.1025  0.4245 -0.4703
65523SOL     OW 3173   0.882   9.212  10.569 -0.0241 -0.0899 -0.0358
65523SOL    HW1 3174   0.975   9.214  10.590 -0.2691 -1.3364  1.2798
65523SOL    HW2 3175   0.880   9.209  10.473  1.4892 -4.2431 -0.1382
65524SOL     OW 3176   5.131  10.104  12.602  0.5252 -0.2831  0.1510
65524SOL    HW1 3177   5.179  10.022  12.616 -1.3521 -1.1639  2.0810
65524SOL    HW2 3178   5.130  10.115  12.507  0.2581 -2.8946 -0.2309
65525SOL     OW 3179  10.995  12.585  11.247 -0.0344  0.4155 -0.3385
65525SOL    HW1 3180  11.018  12.502  11.289  0.9311  0.0663 -1.4907
65525SOL    HW2 3181  10.935  12.627  11.308 -1.2089 -1.4906 -0.0901
65526SOL     OW 3182   2.345   9.442   6.956  0.0840  0.0609 -0.1518
65526SOL    HW1 3183   2.374   9.510   6.895  0.9100 -0.1781 -0.0411
65526SOL    HW2 3184   2.424   9.392   6.975  0.0173  0.5782  1.6866
65527SOL     OW 3185   1.199   9.365   7.586 -0.0349  0.4021  0.1667
65527SOL    HW1 3186   1.152   9.441   7.552 -0.6715  1.0084  2.2861
65527SOL    HW2 3187   1.291   9.391   7.584 -0.0903  0.5588 -0.6914
65528SOL     OW 3188  10.025   9.224   1.115 -0.4986  0.3764 -0.2094
65528SOL    HW1 3189  10.012   9.289   1.183  1.4697  2.0291 -1.2934
65528SOL    HW2 3190  10.116   9.235   1.089 -0.4857 -1.9244 -1.3900
65529SOL     OW 3191  11.663   1.279   3.963 -0.0885 -0.2826 -0.1664
65529SOL    HW1 3192  11.602   1.319   4.024  1.6775  1.7502  0.4113
65529SOL    HW2 3193  11.683   1.348   3.900  1.4371 -0.9245 -0.4358
65530SOL     OW 3194   5.057   3.490   7.251 -0.0302  0.4098 -0.4605
65530SOL    HW1 3195   5.060   3.409   7.200  3.2434 -0.1484  0.4152
65530SOL    HW2 3196   5.038   3.460   7.340 -1.4542  0.9335 -0.5674
65531SOL     OW 3197   0.181   9.557  11.166  0.1837  0.0490 -0.3019
65531SOL    HW1 3198   0.257   9.570  11.109 -0.8686 -0.8506 -2.0126
65531SOL    HW2 3199   0.174   9.462  11.175 -0.4230  0.1384  0.2684
65532SOL     OW 3200   1.295   8.340   1.941 -0.0113  0.2982  0.1452
65532SOL    HW1 3201   1.341   8.264   1.975  2.0795  1.4167 -0.0245
65532SOL    HW2 3202   1.283   8.321   1.848 -1.1089 -0.5648  0.4517
65533SOL     OW 3203   1.526   2.667   7.962 -0.2499  0.2365 -0.2036
65533SOL    HW1 3204   1.435   2.643   7.945 -0.2679  0.7081 -0.8056
65533SOL    HW2 3205   1.532   2.674   8.057 -0.1889 -2.3286  0.0409
65534SOL     OW 3206   7.448   1.455   7.218  0.1719 -0.0897  0.1262
65534SOL    HW1 3207   7.495   1.442   7.135  0.2182 -0.9760  0.2859
65534SOL    HW2 3208   7.436   1.367   7.253 -1.3690  0.1333  0.2308
65535SOL     OW 3209   9.984   7.329   9.383 -0.0273 -0.0259  0.5698
65535SOL    HW1 3210  10.052   7.263   9.389  0.4487  0.4755  0.7166
65535SOL    HW2 3211   9.951   7.338   9.472 -0.6165 -0.5993  0.4233
65536SOL     OW 3212   1.673  12.707   0.424  0.3176 -0.2292  0.4007
65536SOL    HW1 3213   1.649  12.712   0.331  0.6907  0.9715  0.3518
65536SOL    HW2 3214   1.697  12.797   0.447 -2.2994  0.0932  2.3377
65537SOL     OW 3215   2.327   0.983   9.542 -0.3532 -0.0456  0.0651
65537SOL    HW1 3216   2.327   1.072   9.578 -0.8339  0.6930 -1.6899
65537SOL    HW2 3217   2.236   0.954   9.549 -0.1868 -0.4617  0.6937
65538SOL     OW 3218   3.576   7.016   5.398  0.2087  0.0855 -0.1309
65538SOL    HW1 3219   3.564   7.058   5.483 -0.9914 -1.0546  0.3062
65538SOL    HW2 3220   3.667   7.033   5.375  0.6077  0.2588  1.4689
65539SOL     OW 3221  10.484   4.686   8.764 -0.5651  0.1001 -0.2889
65539SOL    HW1 3222  10.454   4.624   8.697 -0.8330 -1.3682  1.1257
65539SOL    HW2 3223  10.576   4.665   8.777 -0.3377  0.8408 -0.6633
65540SOL     OW 3224   3.753   3.683   5.926  0.4440  0.5059 -0.2444
65540SOL    HW1 3225   3.801   3.754   5.969  1.3465 -0.4319  0.3774
65540SOL    HW2 3226   3.674   3.673   5.979  0.7051  0.5199  0.1606
65541SOL     OW 3227   0.279   7.007   9.928  0.0695  0.0824  0.1048
65541SOL    HW1 3228   0.366   6.974   9.905 -0.2675  0.0731 -1.2437
65541SOL    HW2 3229   0.268   7.084   9.872 -0.5030  0.5160  0.7984
65542SOL     OW 3230  10.126   6.084  12.452  0.0939  0.3172 -0.2873
65542SOL    HW1 3231  10.087   6.004  12.417  0.4506 -0.0390  0.1170
65542SOL    HW2 3232  10.101   6.085  12.544 -1.1253  1.4190 -0.5971
65543SOL     OW 3233  10.413   4.123   2.929  0.5641  0.5079 -0.4346
65543SOL    HW1 3234  10.422   4.085   3.016 -0.1872  2.2192  0.4525
65543SOL    HW2 3235  10.328   4.167   2.931 -0.6501 -1.4697 -2.8989
65544SOL     OW 3236   0.274   2.043   9.955 -0.5386  0.1987  0.4370
65544SOL    HW1 3237   0.243   2.010   9.870  1.2126 -0.3888 -0.0045
65544SOL    HW2 3238   0.209   2.012  10.018 -1.0132 -0.7368 -0.4918
65545SOL     OW 3239   0.165   9.888   8.891  0.0726  0.0603 -0.0976
65545SOL    HW1 3240   0.209   9.803   8.888  0.2251  0.1524 -0.6307
65545SOL    HW2 3241   0.091   9.879   8.831 -0.9414 -0.2544  1.1601
65546SOL     OW 3242   2.851   1.840   0.362  0.1928  0.3014 -0.0442
65546SOL    HW1 3243   2.944   1.848   0.342  0.4575  0.5302  1.1913
65546SOL    HW2 3244   2.809   1.904   0.304  0.8544  0.5529 -0.2607
65547SOL     OW 3245   6.147   0.851  12.617 -0.3818 -0.1612  0.2178
65547SOL    HW1 3246   6.101   0.796  12.554  1.6602 -0.6542 -0.9694
65547SOL    HW2 3247   6.176   0.927  12.565  1.9422 -0.9108  0.2675
65548SOL     OW 3248  12.606   0.111   2.821  0.6125 -0.0839 -0.0356
65548SOL    HW1 3249  12.571   0.157   2.896 -0.1959 -3.2184  1.7115
65548SOL    HW2 3250  12.532   0.103   2.760  0.2249 -0.6201  0.4932
65549SOL     OW 3251   1.782   2.213   2.425  0.0203 -0.0768  0.5564
65549SOL    HW1 3252   1.707   2.191   2.479  0.0464 -0.8594  0.2798
65549SOL    HW2 3253   1.858   2.186   2.477  0.0896  0.0889  0.5446
65550SOL     OW 3254   4.272   5.389  10.837  0.0332  0.1803  0.0536
65550SOL    HW1 3255   4.298   5.345  10.917 -0.4678  0.2153  0.2346
65550SOL    HW2 3256   4.329   5.352  10.769  0.2530 -0.0604  0.3708
65551SOL     OW 3257   6.594   9.999   5.452 -0.1952 -0.2209  0.3454
65551SOL    HW1 3258   6.669   9.989   5.392  1.3849  1.7534  1.8733
65551SOL    HW2 3259   6.539  10.066   5.411  0.2569  0.2501  0.5018
65552SOL     OW 3260   3.064   4.369  11.672  1.0419 -0.4722 -0.0529
65552SOL    HW1 3261   2.989   4.404  11.624  1.2521 -0.5605 -0.4522
65552SOL    HW2 3262   3.095   4.296  11.619  1.8518  0.0181 -0.2778
65553SOL     OW 3263  12.475   3.883   2.819 -0.4447 -0.0125 -0.1485
65553SOL    HW1 3264  12.557   3.848   2.854  0.7430  1.2923 -1.5002
65553SOL    HW2 3265  12.472   3.973   2.850 -0.5693  0.4273 -1.3886
65554SOL     OW 3266   4.951   6.925   5.125  0.4620  0.5157 -0.0892
65554SOL    HW1 3267   4.989   7.010   5.102  1.9234 -0.1078 -0.0970
65554SOL    HW2 3268   4.990   6.904   5.210 -0.8629  0.4106  0.5145
65555SOL     OW 3269   6.338   6.512   5.300 -0.2434  0.3261  0.3251
65555SOL    HW1 3270   6.364   6.427   5.335  0.5911  1.3744  2.4209
65555SOL    HW2 3271   6.242   6.508   5.295 -0.2645 -0.4319  1.2308
65556SOL     OW 3272  11.108   1.471   3.458 -0.1797  0.0724 -0.1759
65556SOL    HW1 3273  11.084   1.556   3.420  1.6565 -0.3544 -2.4775
65556SOL    HW2 3274  11.172   1.493   3.527  0.7046  0.5667 -1.1246
65557SOL     OW 3275  10.721   9.799   0.323 -0.1899  0.1243  1.1753
65557SOL    HW1 3276  10.802   9.808   0.271 -0.1067 -2.2210  0.8047
65557SOL    HW2 3277  10.740   9.731   0.387 -2.2164 -1.3868  0.2890
65558SOL     OW 3278  12.087   6.566  10.627 -0.0813  0.2068 -0.3715
65558SOL    HW1 3279  12.159   6.551  10.566 -0.4555 -0.3106 -0.6942
65558SOL    HW2 3280  12.031   6.630  10.584 -0.6602 -0.5979 -0.8617
65559SOL     OW 3281   8.635   3.082   2.153  0.0601  0.2393  0.4510
65559SOL    HW1 3282   8.589   2.999   2.160 -0.0854  0.2419 -0.3043
65559SOL    HW2 3283   8.568   3.148   2.173 -0.0067  0.1965  0.3745
65560SOL     OW 3284  12.323  12.595   3.044 -0.4955 -0.0187  0.4178
65560SOL    HW1 3285  12.362  12.636   2.967  0.0483 -0.7958  0.2640
65560SOL    HW2 3286  12.229  12.616   3.038 -0.2261  1.2074  0.3743
65561SOL     OW 3287   7.989   6.585   3.797  0.3807  0.4829  0.0913
65561SOL    HW1 3288   7.960   6.668   3.760  1.1192  0.5559 -0.3589
65561SOL    HW2 3289   8.083   6.582   3.779  0.4206 -0.3197  0.3548
65562SOL     OW 3290   0.253   0.581   2.617 -0.1224  0.0360 -0.0393
65562SOL    HW1 3291   0.308   0.599   2.541 -0.9707 -1.2283 -0.9935
65562SOL    HW2 3292   0.224   0.491   2.606 -0.7949  0.0263  1.4618
65563SOL     OW 3293  11.308   0.884   1.702  0.2941  0.2403 -0.0517
65563SOL    HW1 3294  11.229   0.859   1.748  1.8938 -1.7984  1.8199
65563SOL    HW2 3295  11.278   0.914   1.616 -2.4352 -0.7935  0.4513
65564SOL     OW 3296   1.517   5.622   1.881 -0.0351  0.9516 -0.2929
65564SOL    HW1 3297   1.464   5.695   1.849 -0.5156  0.5404 -0.4415
65564SOL    HW2 3298   1.474   5.595   1.962  0.5982  1.3368  0.1818
65565SOL     OW 3299   2.448   7.137   7.525 -0.3487  0.0053 -0.3163
65565SOL    HW1 3300   2.409   7.130   7.613  0.8215 -0.5318  0.1711
65565SOL    HW2 3301   2.419   7.059   7.479 -1.0934  0.3640 -0.4772
65566SOL     OW 3302   4.915  10.892   0.053  0.5549 -0.1169  0.1015
65566SOL    HW1 3303   4.986  10.890   0.117 -0.1203  0.2081  0.8773
65566SOL    HW2 3304   4.860  10.816   0.075  1.5804 -1.4587 -1.6202
65567SOL     OW 3305   6.424   4.343   5.093  0.6097  0.4649 -0.2688
65567SOL    HW1 3306   6.396   4.254   5.112  0.3070 -0.0451 -2.7584
65567SOL    HW2 3307   6.351   4.398   5.122 -0.1306 -0.2982 -0.6210
65568SOL     OW 3308  10.951   5.935  12.493  0.1240 -0.4536  0.3723
65568SOL    HW1 3309  10.860   5.965  12.483  0.4977  1.2332  1.6100
65568SOL    HW2 3310  10.984   5.985  12.567  2.2629 -0.6022 -0.4360
65569SOL     OW 3311   8.939  10.403   5.055  0.1396  0.5899  0.4713
65569SOL    HW1 3312   8.969  10.312   5.054 -0.4204  0.3937 -1.3805
65569SOL    HW2 3313   9.006  10.449   5.106  1.9231 -0.4075 -0.8327
65570SOL     OW 3314   7.989   3.779  12.232 -0.2318  0.5242  0.0009
65570SOL    HW1 3315   7.996   3.818  12.145 -1.9844 -0.1864 -0.4915
65570SOL    HW2 3316   7.903   3.738  12.234 -0.7458  1.4851  2.4698
65571SOL     OW 3317   0.089   1.378  10.066 -0.2600 -0.1080  0.0773
65571SOL    HW1 3318   0.043   1.296  10.085  1.0199 -0.5498  1.4187
65571SOL    HW2 3319   0.155   1.353  10.001 -0.8562  0.2023 -0.6659
65572SOL     OW 3320   0.784   3.402  12.735  0.0840  0.0802 -0.2597
65572SOL    HW1 3321   0.813   3.457  12.808  0.4325  0.7463 -0.8946
65572SOL    HW2 3322   0.775   3.314  12.773 -2.3450  0.8932  1.2683
65573SOL     OW 3323   8.180   7.344   4.518  0.5402  0.2949  0.2304
65573SOL    HW1 3324   8.153   7.307   4.602 -2.0441  1.5774  0.0596
65573SOL    HW2 3325   8.209   7.432   4.540  0.7929  0.2947 -0.1051
65574SOL     OW 3326   1.812   4.731   9.139 -0.0216  0.2385  0.2323
65574SOL    HW1 3327   1.720   4.748   9.156 -0.7574 -2.0556 -1.0228
65574SOL    HW2 3328   1.839   4.671   9.209 -0.1663 -0.8944 -0.6436
65575SOL     OW 3329   9.584   8.032   6.697 -0.1121 -1.0351  0.5706
65575SOL    HW1 3330   9.508   8.089   6.693 -1.1108 -2.3556 -0.3751
65575SOL    HW2 3331   9.608   8.029   6.790 -1.8458 -1.3637  1.0453
65576SOL     OW 3332  10.685  12.164   3.336  0.5481  0.2397  0.4719
65576SOL    HW1 3333  10.655  12.192   3.250  0.6589 -0.4578  0.1971
65576SOL    HW2 3334  10.716  12.244   3.378 -0.4959  0.7627  0.2761
65577SOL     OW 3335  12.073   8.709   3.971 -0.0095  0.5198 -0.7336
65577SOL    HW1 3336  12.112   8.623   3.964  2.2216  1.5694 -2.5276
65577SOL    HW2 3337  11.981   8.692   3.992  0.3138 -2.2529 -1.1985
65578SOL     OW 3338   2.951   4.448   5.320 -0.1228  0.1003  0.5067
65578SOL    HW1 3339   2.937   4.536   5.283 -0.1080 -0.3818 -0.6906
65578SOL    HW2 3340   2.863   4.416   5.339 -0.1786  0.0838  0.2291
65579SOL     OW 3341   8.293   9.354  10.181 -0.1326 -0.2170  0.2577
65579SOL    HW1 3342   8.269   9.407  10.105 -0.6207  0.1105  0.6291
65579SOL    HW2 3343   8.380   9.385  10.205  0.3112 -0.8055 -0.5814
65580SOL     OW 3344   0.470   3.540   7.361  0.0688 -0.3126 -0.5523
65580SOL    HW1 3345   0.427   3.471   7.310  0.3769 -2.7893  2.2949
65580SOL    HW2 3346   0.407   3.561   7.430  1.8936 -1.4185  1.5561
65581SOL     OW 3347   9.038   0.235   7.436 -0.0344  0.5439  0.0487
65581SOL    HW1 3348   9.077   0.217   7.351  2.0904 -0.6316  1.1993
65581SOL    HW2 3349   9.080   0.315   7.467 -0.7721  0.9515  0.0278
65582SOL     OW 3350   5.197  12.203   2.738 -0.5365 -0.1376  0.9020
65582SOL    HW1 3351   5.131  12.227   2.674 -0.6827 -1.2674  0.6026
65582SOL    HW2 3352   5.183  12.109   2.753  1.1407 -0.4618  0.6492
65583SOL     OW 3353   9.658   8.782   0.757  0.3313 -0.3133  0.2811
65583SOL    HW1 3354   9.679   8.697   0.795 -2.6341 -0.2650  2.3616
65583SOL    HW2 3355   9.662   8.843   0.831 -0.1707  0.8420 -0.6123
65584SOL     OW 3356  11.241  12.354   4.202 -0.5547 -0.3459 -0.1251
65584SOL    HW1 3357  11.240  12.407   4.122 -0.8686  0.9084  0.6709
65584SOL    HW2 3358  11.164  12.383   4.251  0.6687  0.3319  1.4852
65585SOL     OW 3359   8.295   2.650   3.701  0.3920  0.1612  0.2044
65585SOL    HW1 3360   8.391   2.646   3.706  0.3452  0.0666  1.3694
65585SOL    HW2 3361   8.266   2.617   3.786 -0.5822  3.2826  1.2174
65586SOL     OW 3362   8.571   0.047   5.419 -0.2422  0.2177 -0.0672
65586SOL    HW1 3363   8.642   0.103   5.450  1.2292 -0.2153 -2.3686
65586SOL    HW2 3364   8.607  -0.042   5.423 -1.2649 -0.1995  0.2509
65587SOL     OW 3365   2.606   5.671   3.945 -0.5033 -0.2594 -0.3182
65587SOL    HW1 3366   2.642   5.739   4.002  1.3340  1.3930 -3.1583
65587SOL    HW2 3367   2.577   5.602   4.004  2.1707  0.8403  2.5613
65588SOL     OW 3368   3.220   8.350   1.595  0.8609 -0.1634 -0.2848
65588SOL    HW1 3369   3.174   8.267   1.605  0.8583 -0.4055 -2.0309
65588SOL    HW2 3370   3.186   8.387   1.514  0.6054  1.7318  0.6375
65589SOL     OW 3371  11.861   3.114  11.451  0.4868 -0.2810 -0.0039
65589SOL    HW1 3372  11.894   3.028  11.426  0.2482 -0.6631  0.9524
65589SOL    HW2 3373  11.782   3.096  11.502  0.3986  0.5072  0.1468
65590SOL     OW 3374   3.110   3.568   7.097  0.4372 -0.0170 -0.2861
65590SOL    HW1 3375   3.048   3.509   7.140 -1.0235 -0.3411 -2.6338
65590SOL    HW2 3376   3.187   3.569   7.155 -0.2595 -2.6331  0.8352
65591SOL     OW 3377   9.824  10.534   2.944  0.2913  0.1076  0.1105
65591SOL    HW1 3378   9.835  10.507   3.035 -1.9304 -0.0409  0.3812
65591SOL    HW2 3379   9.878  10.473   2.894  1.1759 -0.0934  1.2769
65592SOL     OW 3380  10.218  12.341   4.695 -0.2725 -0.1546 -0.2113
65592SOL    HW1 3381  10.188  12.427   4.725  0.6919 -0.5387  2.1053
65592SOL    HW2 3382  10.313  12.344   4.708 -0.1569 -1.3638 -0.6633
65593SOL     OW 3383   7.762   1.936  11.992  0.2909  0.1200  0.5084
65593SOL    HW1 3384   7.808   2.003  11.942  2.7394 -0.1685  2.2169
65593SOL    HW2 3385   7.765   1.966  12.082 -1.7252 -0.6167  0.8848
65594SOL     OW 3386   0.363   9.412   9.832 -0.5619  0.9836  0.6389
65594SOL    HW1 3387   0.430   9.450   9.889 -1.8993  2.6068  1.2195
65594SOL    HW2 3388   0.281   9.455   9.860 -1.5106  0.6094 -1.4074
65595SOL     OW 3389   5.454  11.269   0.738 -0.0029  0.0511 -0.1996
65595SOL    HW1 3390   5.462  11.362   0.719 -1.3291 -0.0277 -1.2637
65595SOL    HW2 3391   5.383  11.239   0.681 -0.9888 -1.1830  1.5947
65596SOL     OW 3392   2.437   1.381   9.476 -0.5610  0.4944  0.8246
65596SOL    HW1 3393   2.457   1.305   9.422 -2.5398 -0.2363  1.0322
65596SOL    HW2 3394   2.518   1.431   9.479  0.9512 -1.8365  1.0660
65597SOL     OW 3395   5.785   9.220   1.236 -0.1656 -0.4344  0.7315
65597SOL    HW1 3396   5.813   9.140   1.190 -0.7842 -0.5790  0.5869
65597SOL    HW2 3397   5.826   9.291   1.187 -0.8501 -0.5829 -0.1025
65598SOL     OW 3398   1.257   0.118   1.005 -0.0942 -0.2074  0.1231
65598SOL    HW1 3399   1.243   0.155   0.918  2.2539  1.0456  0.1806
65598SOL    HW2 3400   1.348   0.086   1.003 -0.4799 -1.5603  1.6518
65599SOL     OW 3401  11.874   6.290   7.591  0.6059  0.1760  0.3143
65599SOL    HW1 3402  11.909   6.305   7.503  0.0495  0.7884  0.1956
65599SOL    HW2 3403  11.781   6.312   7.585  0.4912 -0.1019  0.9720
65600SOL     OW 3404   8.307   1.431   1.178 -0.4696  0.3185 -0.1377
65600SOL    HW1 3405   8.278   1.339   1.183 -1.8354  0.8017  1.9013
65600SOL    HW2 3406   8.227   1.480   1.162 -0.2638  1.3950  1.8695
65601SOL     OW 3407   0.051   7.494   0.027 -0.2110 -0.2629  0.4243
65601SOL    HW1 3408  -0.006   7.417   0.032 -0.1140 -0.2735  2.0222
65601SOL    HW2 3409  -0.008   7.569   0.038 -0.2693 -0.1007 -0.8571
65602SOL     OW 3410   3.593   7.912  12.197 -0.1590  0.4472 -0.2062
65602SOL    HW1 3411   3.588   7.912  12.292 -2.5846 -1.6502 -0.2258
65602SOL    HW2 3412   3.530   7.845  12.169  2.7119 -1.3508 -3.1929
65603SOL     OW 3413   8.036   6.614   1.116 -0.4232  0.1630  0.9226
65603SOL    HW1 3414   8.037   6.702   1.154  0.4756 -0.2752  1.9859
65603SOL    HW2 3415   7.943   6.592   1.111 -0.6423  0.9804  1.1055
65604SOL     OW 3416   5.072  11.833  10.770  0.5386 -0.0580  0.1854
65604SOL    HW1 3417   5.134  11.889  10.723  0.4656 -0.0727  0.0688
65604SOL    HW2 3418   5.119  11.804  10.848  0.8654 -0.5054 -0.1777
65605SOL     OW 3419  11.454   3.276   3.113 -0.0959 -0.0160  0.3260
65605SOL    HW1 3420  11.390   3.253   3.045 -1.4659  0.6176  1.3466
65605SOL    HW2 3421  11.485   3.363   3.088  0.3591 -0.3056 -0.1476
65606SOL     OW 3422   0.698   4.402   7.571 -0.2710  0.1985  0.0360
65606SOL    HW1 3423   0.699   4.327   7.630 -0.1935  1.4420  1.6560
65606SOL    HW2 3424   0.605   4.417   7.554 -0.2789 -0.3691 -0.4542
65607SOL     OW 3425   2.846   7.373   2.671  0.5739 -0.0881  0.1387
65607SOL    HW1 3426   2.779   7.391   2.605  1.2536  0.8907 -0.2951
65607SOL    HW2 3427   2.802   7.391   2.754  0.3385  0.6886 -0.1475
65608SOL     OW 3428   4.492   2.348   3.549  0.1440 -0.2229 -0.1909
65608SOL    HW1 3429   4.421   2.293   3.582 -0.3869  1.4841  1.7251
65608SOL    HW2 3430   4.448   2.423   3.509  0.8562  0.0166 -0.5407
65609SOL     OW 3431   8.126   8.972   9.279  0.2113  0.2343 -0.8541
65609SOL    HW1 3432   8.063   8.931   9.337  1.2248  0.8909  0.7613
65609SOL    HW2 3433   8.075   9.036   9.229 -0.6585 -0.3244 -0.7000
65610SOL     OW 3434  12.387   5.051   4.866 -0.1024  0.0754  0.0013
65610SOL    HW1 3435  12.300   5.033   4.831 -0.4052  1.4421 -0.0217
65610SOL    HW2 3436  12.428   4.965   4.875 -0.5891 -0.4387 -2.2093
65611SOL     OW 3437   9.499   5.817   5.157 -0.4196 -0.4315  0.3983
65611SOL    HW1 3438   9.417   5.798   5.203 -0.6080 -1.4531 -0.3334
65611SOL    HW2 3439   9.557   5.745   5.181 -0.3487 -0.6986 -0.5148
65612SOL     OW 3440   6.337   3.087   7.694 -0.5610  0.0942 -0.4988
65612SOL    HW1 3441   6.281   3.090   7.616 -0.0091 -1.1443 -0.9513
65612SOL    HW2 3442   6.426   3.078   7.660 -0.2913 -0.2037  0.2670
65613SOL     OW 3443   4.501   9.955   4.334  0.0932 -0.9997  0.4323
65613SOL    HW1 3444   4.475   9.879   4.282 -0.9387 -1.0793  1.0409
65613SOL    HW2 3445   4.546   9.919   4.409 -0.8342 -1.0611  0.9766
65614SOL     OW 3446   5.023   0.840  11.780 -0.2438  0.5040  0.2656
65614SOL    HW1 3447   4.999   0.760  11.826 -3.2970  0.9794 -0.2689
65614SOL    HW2 3448   5.109   0.863  11.815  0.3632 -2.4962  1.0480
65615SOL     OW 3449   7.950  10.300   6.521  0.6070 -0.1509  0.3033
65615SOL    HW1 3450   7.887  10.230   6.536  1.6021 -0.8788  1.2631
65615SOL    HW2 3451   7.988  10.281   6.435  0.2798 -0.2949  0.1889
65616SOL     OW 3452  11.515   8.148   4.636 -0.3613  0.0982  0.0641
65616SOL    HW1 3453  11.487   8.240   4.640 -0.2248  0.2202 -1.3619
65616SOL    HW2 3454  11.611   8.153   4.630 -0.2693 -0.1957  0.9909
65617SOL     OW 3455   6.401   0.730  11.291 -0.1500 -0.6846  0.3532
65617SOL    HW1 3456   6.402   0.728  11.387  0.1511  0.7356  0.3955
65617SOL    HW2 3457   6.439   0.646  11.266  0.9935 -0.5582  1.4998
65618SOL     OW 3458   6.218   5.396  10.747 -0.1113  0.2603 -0.6137
65618SOL    HW1 3459   6.129   5.398  10.711  0.5185  1.9989 -2.1681
65618SOL    HW2 3460   6.206   5.360  10.836 -2.5601  1.7516 -0.2336
65619SOL     OW 3461   0.217   3.112   8.480  0.0217 -0.1256  0.2752
65619SOL    HW1 3462   0.300   3.148   8.448 -0.0257  0.4852  0.8156
65619SOL    HW2 3463   0.168   3.089   8.401 -0.4003  2.0219 -0.1468
65620SOL     OW 3464   6.969   2.509   3.153 -0.4148 -0.2924  0.2286
65620SOL    HW1 3465   6.983   2.589   3.102 -1.3080  1.1237  2.0580
65620SOL    HW2 3466   6.916   2.453   3.096 -1.7518  1.4076 -0.2852
65621SOL     OW 3467   9.810   7.372   0.149 -0.3048  0.3005 -0.1249
65621SOL    HW1 3468   9.843   7.364   0.238 -1.5001 -0.4781  0.2782
65621SOL    HW2 3469   9.874   7.427   0.104  0.8736 -0.1802  0.9154
65622SOL     OW 3470   6.559   4.664  11.952 -0.4000 -0.2261  0.0738
65622SOL    HW1 3471   6.547   4.636  12.043 -0.5608 -1.9711 -0.4511
65622SOL    HW2 3472   6.518   4.751  11.948 -0.5294 -0.1935  1.6193
65623SOL     OW 3473   8.977   8.287   6.150  0.1168  0.1222  0.5733
65623SOL    HW1 3474   8.965   8.262   6.058  0.7934 -1.0499  0.7755
65623SOL    HW2 3475   8.889   8.282   6.188 -0.1518  0.5327  0.0144
65624SOL     OW 3476   1.910  12.379   6.664  0.0311  0.4550  0.0247
65624SOL    HW1 3477   1.991  12.426   6.641 -0.9598  1.8093 -0.8708
65624SOL    HW2 3478   1.863  12.371   6.582 -0.8571 -0.1044  0.5728
65625SOL     OW 3479   3.661   5.470   7.610  0.0482 -0.1324 -0.1473
65625SOL    HW1 3480   3.587   5.499   7.664 -0.0082 -0.4003 -0.0799
65625SOL    HW2 3481   3.673   5.541   7.547 -0.3537 -0.1459 -0.2455
65626SOL     OW 3482  11.847   7.894   5.963 -0.3486  0.1817 -0.1552
65626SOL    HW1 3483  11.839   7.989   5.959 -1.5794  0.1632  1.0471
65626SOL    HW2 3484  11.918   7.879   6.025 -1.1687  0.3291  0.8399
65627SOL     OW 3485   8.847  10.980   8.245 -0.5045 -0.2012 -0.2013
65627SOL    HW1 3486   8.936  11.001   8.274  0.0331 -0.3171 -1.6536
65627SOL    HW2 3487   8.813  10.919   8.310  0.8407 -0.8974 -0.1202
65628SOL     OW 3488  12.174   4.371   7.487 -0.4830 -0.2899  0.2154
65628SOL    HW1 3489  12.265   4.363   7.514 -0.8194 -2.1960  0.9400
65628SOL    HW2 3490  12.128   4.401   7.565 -0.6079 -0.1519  0.0901
65629SOL     OW 3491   9.531   1.694  11.755 -0.4296 -0.9043 -0.2876
65629SOL    HW1 3492   9.572   1.739  11.681 -1.1293  1.7400  0.8398
65629SOL    HW2 3493   9.603   1.675  11.814 -0.3699  1.1338  0.3723
65630SOL     OW 3494   9.881  11.645  11.540 -0.5963 -0.1792 -0.2894
65630SOL    HW1 3495   9.927  11.567  11.570 -0.6341 -0.5948 -1.2736
65630SOL    HW2 3496   9.851  11.688  11.620 -0.8574 -1.3434  0.2590
65631SOL     OW 3497   0.791   0.361   0.507 -0.1157 -0.0539 -0.3288
65631SOL    HW1 3498   0.710   0.321   0.539  0.3957 -0.2924  0.7220
65631SOL    HW2 3499   0.766   0.407   0.427 -1.3063 -0.0403  0.0405
65632SOL     OW 3500  11.016  10.598   9.607 -0.4045 -0.3302  0.0549
65632SOL    HW1 3501  11.018  10.635   9.519  0.0789 -0.0196  0.1964
65632SOL    HW2 3502  11.004  10.673   9.665 -1.9182 -0.6421  0.1894
65633SOL     OW 3503   0.297   9.765   0.348 -0.5887 -0.1187 -0.0120
65633SOL    HW1 3504   0.383   9.744   0.384  0.1372  1.8012 -0.5172
65633SOL    HW2 3505   0.267   9.839   0.401 -1.0809  0.4326 -1.0388
65634SOL     OW 3506   1.583  11.153  11.258  0.4537  0.0083  0.5773
65634SOL    HW1 3507   1.630  11.234  11.237 -0.1994  0.4555  0.8281
65634SOL    HW2 3508   1.626  11.087  11.204  0.6873  0.6068  0.0081
65635SOL     OW 3509   4.456   1.734   5.522 -0.0995  0.0455 -0.9413
65635SOL    HW1 3510   4.473   1.652   5.476  0.0964 -2.0403  2.5492
65635SOL    HW2 3511   4.361   1.739   5.527 -0.1069 -0.1028 -0.9369
65636SOL     OW 3512   1.868   7.720   0.155  0.2026  0.2974 -0.5321
65636SOL    HW1 3513   1.953   7.725   0.199 -0.1617  1.6660  0.0668
65636SOL    HW2 3514   1.804   7.710   0.226 -0.0803 -2.1040 -1.0433
65637SOL     OW 3515   9.042  11.879  12.419  0.7647 -0.0247  0.2960
65637SOL    HW1 3516   8.996  11.961  12.442 -1.6289  0.1208 -3.8394
65637SOL    HW2 3517   8.972  11.821  12.389  2.7171 -2.5276  0.3106
65638SOL     OW 3518   9.137   8.971  11.033 -0.1133  0.5979 -0.3057
65638SOL    HW1 3519   9.097   9.056  11.050 -2.4696 -0.5497  0.4007
65638SOL    HW2 3520   9.113   8.951  10.943 -1.1962 -0.0924  0.1177
65639SOL     OW 3521   1.401   2.956   5.377 -0.5061 -0.5055  0.3558
65639SOL    HW1 3522   1.447   2.982   5.297 -0.1088  0.1833  0.7990
65639SOL    HW2 3523   1.422   2.864   5.388  2.3184  0.1732  1.5246
65640SOL     OW 3524   6.787   9.437   5.721 -0.3194 -0.3881  0.3147
65640SOL    HW1 3525   6.854   9.503   5.734 -0.2049 -0.4109 -0.1584
65640SOL    HW2 3526   6.785   9.388   5.804 -0.8267  0.5793  0.8950
65641SOL     OW 3527  11.150   5.942   3.389  0.8451 -0.1884 -0.0866
65641SOL    HW1 3528  11.178   6.027   3.423  1.3615 -0.7459  0.9320
65641SOL    HW2 3529  11.231   5.897   3.366  0.8422 -1.5891  2.3278
65642SOL     OW 3530   6.092   3.584   8.770 -0.4917 -0.1159  0.5227
65642SOL    HW1 3531   6.104   3.505   8.824  0.4383 -1.5370 -1.6464
65642SOL    HW2 3532   6.016   3.565   8.717 -1.5482  1.3828  1.4383
65643SOL     OW 3533   2.819   5.858   9.248  0.2049 -0.2327 -0.4901
65643SOL    HW1 3534   2.816   5.836   9.342  0.7057  0.1833 -0.3762
65643SOL    HW2 3535   2.832   5.773   9.205  1.5664 -0.2485 -0.0836
65644SOL     OW 3536  10.040   2.256   8.566  0.0301 -0.0188  0.0033
65644SOL    HW1 3537  10.046   2.163   8.590 -0.4235 -0.2475 -0.7292
65644SOL    HW2 3538  10.082   2.261   8.480  2.5120  0.9644  1.1933
65645SOL     OW 3539   8.193  11.071  12.339 -0.4245 -0.1545 -0.0547
65645SOL    HW1 3540   8.206  11.099  12.248 -1.2651  0.9257  0.1478
65645SOL    HW2 3541   8.115  11.117  12.367  1.4629  1.9585  2.1930
65646SOL     OW 3542   8.660   1.546   1.171 -0.2169  0.2740 -0.0044
65646SOL    HW1 3543   8.749   1.549   1.205 -0.0796  0.1298 -0.3488
65646SOL    HW2 3544   8.644   1.453   1.153 -0.5364  0.2628  0.3132
65647SOL     OW 3545  12.365   3.518   3.547 -0.0300  0.1478  0.3173
65647SOL    HW1 3546  12.280   3.530   3.506 -0.2738 -0.8597  0.4977
65647SOL    HW2 3547  12.367   3.426   3.572  0.7202  0.3812  1.2005
65648SOL     OW 3548   8.916   0.323   1.829 -0.2188  0.2547  0.7432
65648SOL    HW1 3549   9.010   0.311   1.837  0.0698  1.8105  0.0798
65648SOL    HW2 3550   8.881   0.235   1.817  1.2101 -0.2816  0.3748
65649SOL     OW 3551   9.614   9.218  10.835  0.2089  0.0266  0.4754
65649SOL    HW1 3552   9.547   9.251  10.895 -0.6284 -0.5622 -0.1179
65649SOL    HW2 3553   9.695   9.222  10.886 -0.3425  0.3138  1.3627
65650SOL     OW 3554   7.423  10.474   0.673  0.7159 -0.2619  0.1866
65650SOL    HW1 3555   7.458  10.561   0.653 -0.5369  0.4815  1.0483
65650SOL    HW2 3556   7.478  10.443   0.746  1.8419 -0.6775 -0.8052
65651SOL     OW 3557   0.150   7.898   8.454  0.1278  0.1106 -0.1650
65651SOL    HW1 3558   0.105   7.970   8.409 -1.0670 -1.1552 -1.0776
65651SOL    HW2 3559   0.109   7.893   8.540 -2.0058 -1.4107 -1.1942
65652SOL     OW 3560   5.064   1.046  10.444  0.0085 -0.0721  0.3442
65652SOL    HW1 3561   5.102   1.132  10.463  0.1705  0.0269 -0.3887
65652SOL    HW2 3562   5.120   1.009  10.376  0.6870 -1.3076  1.5379
65653SOL     OW 3563   1.099   6.317   7.431 -0.3391  0.0117 -0.1369
65653SOL    HW1 3564   1.015   6.279   7.405 -0.9987  1.0530  0.4100
65653SOL    HW2 3565   1.104   6.302   7.525  0.1930 -0.2249 -0.2010
65654SOL     OW 3566   2.668  10.177   3.338  0.2898  0.2755 -0.0311
65654SOL    HW1 3567   2.646  10.186   3.431 -0.0377  1.7121 -0.2238
65654SOL    HW2 3568   2.716  10.257   3.317 -1.2012  0.8353 -1.5198
65655SOL     OW 3569   7.256  12.023   9.381 -0.2453 -0.4125  0.2154
65655SOL    HW1 3570   7.162  12.034   9.371 -0.4708 -2.4140 -0.2269
65655SOL    HW2 3571   7.279  12.079   9.456 -1.6572  0.5829 -0.0670
65656SOL     OW 3572   5.558   5.412   5.847  0.7248  0.3671 -0.1584
65656SOL    HW1 3573   5.583   5.504   5.858  2.5977 -0.2679  1.5383
65656SOL    HW2 3574   5.641   5.365   5.842 -0.1721 -1.3945  0.5888
65657SOL     OW 3575   0.884   6.139   8.317  0.1924  0.0786  0.3652
65657SOL    HW1 3576   0.854   6.063   8.266  1.2360  0.8399 -1.5185
65657SOL    HW2 3577   0.933   6.101   8.389  0.6075 -1.0734 -0.4811
65658SOL     OW 3578  12.540   8.023  12.082 -0.6942 -0.2847  0.0185
65658SOL    HW1 3579  12.522   7.931  12.064  2.0157 -0.7245 -0.8986
65658SOL    HW2 3580  12.580   8.024  12.169 -1.7585  0.2156  0.5268
65659SOL     OW 3581   5.053   6.320   8.225  0.8944  0.1560 -0.0147
65659SOL    HW1 3582   5.039   6.233   8.263  1.9838  0.5060  1.2719
65659SOL    HW2 3583   5.108   6.305   8.149 -2.1446 -0.6774 -2.2416
65660SOL     OW 3584   8.708   9.566   5.132 -0.0675 -0.2404 -0.2776
65660SOL    HW1 3585   8.799   9.537   5.127 -0.3126 -1.0095 -0.4458
65660SOL    HW2 3586   8.713   9.658   5.158  0.7219 -0.7204  1.4121
65661SOL     OW 3587  11.462   7.936   6.330  0.0731  0.0452  0.4702
65661SOL    HW1 3588  11.435   7.978   6.412 -1.3396  2.7723 -1.2484
65661SOL    HW2 3589  11.534   7.990   6.298 -0.1830 -0.2544 -0.6510
65662SOL     OW 3590   5.849   6.322   3.335 -0.6777 -0.1367 -0.0319
65662SOL    HW1 3591   5.864   6.232   3.363  1.2396  0.4500  0.9549
65662SOL    HW2 3592   5.894   6.375   3.400  0.1751  1.4540 -1.8375
65663SOL     OW 3593  12.361   7.213   4.526  0.1652 -0.0438  0.1031
65663SOL    HW1 3594  12.270   7.227   4.551 -0.4059  0.7872 -2.2126
65663SOL    HW2 3595  12.384   7.288   4.472  1.8261 -0.8562 -0.4228
65664SOL     OW 3596  12.702   9.167   6.275  0.1530  0.1528 -0.2043
65664SOL    HW1 3597  12.682   9.226   6.348 -0.1468  0.1463 -0.2804
65664SOL    HW2 3598  12.796   9.180   6.260 -0.2619  2.0545 -1.4661
65665SOL     OW 3599   5.824   1.676   4.632  1.0153 -0.0907  0.0170
65665SOL    HW1 3600   5.769   1.599   4.646 -0.2384  0.9223  0.8828
65665SOL    HW2 3601   5.784   1.744   4.685  1.3546  1.5195 -1.6966
65666SOL     OW 3602   0.684  10.273   3.421  0.2111  0.0630  0.5182
65666SOL    HW1 3603   0.715  10.183   3.415  0.2519  0.1093  0.0211
65666SOL    HW2 3604   0.733  10.311   3.494  1.7920  0.3317 -0.6445
65667SOL     OW 3605   7.283   9.574   7.605  0.1696 -0.0640  0.1895
65667SOL    HW1 3606   7.296   9.664   7.574 -0.3665  0.1105  0.4607
65667SOL    HW2 3607   7.343   9.522   7.552  0.7001  0.4936  0.2308
65668SOL     OW 3608   4.852   3.787   3.461  0.6018 -0.2843 -0.0805
65668SOL    HW1 3609   4.874   3.842   3.386  0.1678  1.1966  0.8457
65668SOL    HW2 3610   4.907   3.820   3.532  0.0780 -0.8102  0.5850
65669SOL     OW 3611   3.137   3.872   7.741  0.0487 -0.5797  0.2152
65669SOL    HW1 3612   3.167   3.942   7.683 -1.3213 -0.1945 -0.0659
65669SOL    HW2 3613   3.071   3.913   7.797  0.6348 -1.1901  1.3941
65670SOL     OW 3614   3.105   7.723   2.054  0.5440 -0.1303  0.5291
65670SOL    HW1 3615   3.114   7.685   1.966  1.7491 -0.9585  0.9872
65670SOL    HW2 3616   3.160   7.801   2.053  0.7136 -0.2501  0.6175
65671SOL     OW 3617   8.344   1.393   4.501  0.2494 -0.6457 -0.7081
65671SOL    HW1 3618   8.312   1.303   4.514 -1.0055 -0.1856 -0.4264
65671SOL    HW2 3619   8.326   1.436   4.585 -0.0573  0.1193 -1.1593
65672SOL     OW 3620  12.655   3.215   7.448  0.1025  0.0806 -0.1836
65672SOL    HW1 3621  12.731   3.242   7.499  0.1534 -0.2490 -0.0797
65672SOL    HW2 3622  12.673   3.124   7.425 -0.2097  0.0341 -0.2520
65673SOL     OW 3623   5.856   9.115   5.593  0.3481  0.2095  0.0581
65673SOL    HW1 3624   5.948   9.115   5.564 -0.2385 -1.1671 -2.0504
65673SOL    HW2 3625   5.860   9.097   5.686  2.1938 -1.9278 -0.3566
65674SOL     OW 3626   9.748   9.697   1.847  0.5783 -0.2249  0.1995
65674SOL    HW1 3627   9.806   9.770   1.826 -0.4565  0.2596 -1.1264
65674SOL    HW2 3628   9.686   9.693   1.774 -0.4354 -1.3653  1.0663
65675SOL     OW 3629  12.610  10.179   5.623  0.3303 -0.1192 -0.2413
65675SOL    HW1 3630  12.615  10.135   5.538  1.2237 -0.8695  0.1774
65675SOL    HW2 3631  12.533  10.140   5.665  1.3449 -1.6458  0.2904
65676SOL     OW 3632  10.885   0.846   9.372 -0.0993  0.3706  0.5266
65676SOL    HW1 3633  10.898   0.927   9.422 -0.3324  0.4760  0.4197
65676SOL    HW2 3634  10.862   0.876   9.284  0.2381  0.1854  0.3760
65677SOL     OW 3635   4.141   5.540   5.545 -0.3303  0.3937 -0.1492
65677SOL    HW1 3636   4.212   5.601   5.564 -1.2133  1.1928  0.7152
65677SOL    HW2 3637   4.082   5.590   5.488 -0.1460 -0.3079 -0.9712
65678SOL     OW 3638  11.383   9.904   1.704 -0.4218  0.1882  0.4083
65678SOL    HW1 3639  11.373   9.927   1.796 -1.1535 -1.7010  0.8367
65678SOL    HW2 3640  11.416   9.814   1.704  0.4250  0.4543 -1.1863
65679SOL     OW 3641   2.668  11.037   4.060 -0.0056 -0.6547  0.7010
65679SOL    HW1 3642   2.690  11.125   4.029  0.0290 -1.2586 -1.0695
65679SOL    HW2 3643   2.573  11.031   4.049 -0.0506 -0.7271  1.1235
65680SOL     OW 3644   4.920   9.948   5.539  0.1664  0.2143 -0.2869
65680SOL    HW1 3645   4.914  10.028   5.487 -1.2371  0.6736  0.5042
65680SOL    HW2 3646   4.850   9.892   5.505  0.8611 -0.5135 -0.5464
65681SOL     OW 3647   6.175  10.701   6.900  0.5153 -0.5843  0.9067
65681SOL    HW1 3648   6.242  10.641   6.866  1.2811  0.8898 -0.2798
65681SOL    HW2 3649   6.190  10.702   6.995 -0.3588 -3.2264  1.1659
65682SOL     OW 3650   2.467   8.466   3.397  0.6197 -0.7309 -0.0661
65682SOL    HW1 3651   2.417   8.405   3.342 -3.2592  1.4911  0.6016
65682SOL    HW2 3652   2.457   8.433   3.486  2.3464 -1.4363 -0.0966
65683SOL     OW 3653   4.814   4.651   7.256  0.2290 -0.0816  0.4432
65683SOL    HW1 3654   4.863   4.686   7.181 -1.7628  2.2613  0.1301
65683SOL    HW2 3655   4.767   4.726   7.292 -3.7177 -2.1851  0.2583
65684SOL     OW 3656  12.599   2.923  12.633 -0.5249  0.2240 -0.2300
65684SOL    HW1 3657  12.535   2.872  12.584  1.5498 -1.1599 -1.6698
65684SOL    HW2 3658  12.574   3.014  12.620 -1.1953 -0.2108 -2.1972
65685SOL     OW 3659  10.326   4.737   1.934 -0.3464  0.5787 -0.6225
65685SOL    HW1 3660  10.255   4.673   1.930  0.4099 -0.3718  0.4795
65685SOL    HW2 3661  10.295   4.803   1.995 -0.4220  0.3114 -0.3644
65686SOL     OW 3662   0.705  10.745   6.524  0.5085  0.5767  0.4607
65686SOL    HW1 3663   0.645  10.772   6.455  1.3439  0.2172 -0.4453
65686SOL    HW2 3664   0.792  10.770   6.492  1.5998 -4.2580 -1.2250
65687SOL     OW 3665   9.143  10.317   8.456  0.3420  0.3968  0.5498
65687SOL    HW1 3666   9.219  10.260   8.440 -0.8170 -0.8110 -1.0142
65687SOL    HW2 3667   9.067  10.264   8.431 -0.9512  1.9538  0.9665
65688SOL     OW 3668   6.092   0.697   8.473 -0.1215 -0.0479 -0.0065
65688SOL    HW1 3669   6.090   0.677   8.379 -2.4062  1.7100 -0.4133
65688SOL    HW2 3670   6.150   0.773   8.480  0.6899 -0.6642  0.1582
65689SOL     OW 3671   3.493  11.382   8.193  0.1358  0.1382  0.9362
65689SOL    HW1 3672   3.587  11.366   8.197 -0.0452 -1.1744  0.3383
65689SOL    HW2 3673   3.485  11.466   8.146  0.9423 -0.7418 -0.8686
65690SOL     OW 3674   4.570   3.329   9.820 -0.0236  0.3742  0.5836
65690SOL    HW1 3675   4.539   3.389   9.752  1.8723 -0.8860 -1.5182
65690SOL    HW2 3676   4.627   3.383   9.875  0.5073  0.8466 -0.4104
65691SOL     OW 3677   3.960   7.778   6.977 -0.1458 -0.0894 -0.4164
65691SOL    HW1 3678   3.878   7.807   7.016  0.2972  0.3460  0.2213
65691SOL    HW2 3679   3.980   7.844   6.910  1.3999  1.8419  1.7360
65692SOL     OW 3680  10.427   9.675   3.482 -0.0174 -0.0947 -0.1702
65692SOL    HW1 3681  10.397   9.653   3.570 -1.0711 -0.1419 -0.5252
65692SOL    HW2 3682  10.453   9.591   3.444 -1.0653 -0.3112 -0.4403
65693SOL     OW 3683   1.169   1.130   1.621  0.3285 -0.0650  0.3363
65693SOL    HW1 3684   1.260   1.144   1.647  0.4177  0.3138 -0.1566
65693SOL    HW2 3685   1.146   1.047   1.661  0.4226  0.5293  1.6738
65694SOL     OW 3686   3.655   5.989   2.778  0.1477  0.1367 -0.2342
65694SOL    HW1 3687   3.747   6.013   2.793  0.6454 -1.5799 -0.3191
65694SOL    HW2 3688   3.616   5.988   2.866 -0.2087  2.2653 -0.3125
65695SOL     OW 3689   5.479   7.164   2.747 -0.0573  0.1078 -0.2259
65695SOL    HW1 3690   5.397   7.206   2.720  0.3411 -0.1282 -1.8867
65695SOL    HW2 3691   5.545   7.233   2.739 -0.0035  0.1776  0.6938
65696SOL     OW 3692   5.608   9.099   0.232 -1.0951 -0.7036 -0.5975
65696SOL    HW1 3693   5.635   9.145   0.152  2.4948 -0.7505  0.4325
65696SOL    HW2 3694   5.540   9.155   0.270  0.3551  1.7217 -1.3735
65697SOL     OW 3695   6.562  11.750  10.102 -0.5254  0.4632  0.1953
65697SOL    HW1 3696   6.611  11.772  10.181 -0.7662  2.2460 -0.1173
65697SOL    HW2 3697   6.481  11.800  10.109 -1.0192 -0.1870 -0.6855
65698SOL     OW 3698  11.746   9.804   7.053 -0.0882 -0.3222 -0.0964
65698SOL    HW1 3699  11.803   9.869   7.012  0.6007  0.3169  1.7991
65698SOL    HW2 3700  11.801   9.762   7.120 -0.9241 -1.9331 -0.3594
65699SOL     OW 3701   1.421   7.249   6.301 -0.5071 -0.4878  0.3409
65699SOL    HW1 3702   1.510   7.279   6.320 -1.0986  1.9154 -0.2889
65699SOL    HW2 3703   1.429   7.198   6.220  0.1081  1.2092 -0.7218
65700SOL     OW 3704   1.452  10.337   6.757  0.7209 -0.6731 -0.6989
65700SOL    HW1 3705   1.379  10.337   6.819 -0.0503  0.8639 -1.5474
65700SOL    HW2 3706   1.476  10.245   6.748 -2.1485 -1.4438 -1.5391
65701SOL     OW 3707   8.755   2.571   5.116  0.4852 -0.3894  0.0524
65701SOL    HW1 3708   8.730   2.634   5.049  0.6905  1.4182  1.5689
65701SOL    HW2 3709   8.850   2.563   5.108  0.7996  1.4204  1.3506
65702SOL     OW 3710   2.546   8.032   5.187 -0.6740 -0.2983  0.4875
65702SOL    HW1 3711   2.606   8.076   5.127 -0.3671  2.7536  2.7976
65702SOL    HW2 3712   2.574   7.940   5.187  1.7154  0.3577 -1.1210
65703SOL     OW 3713   6.503   6.854   9.696 -0.1566 -0.2028  0.4610
65703SOL    HW1 3714   6.573   6.799   9.661  0.0223 -0.5539  1.3640
65703SOL    HW2 3715   6.527   6.868   9.787 -1.2643 -0.3280  0.7775
65704SOL     OW 3716   3.823   8.610   4.878 -0.7967 -0.4718  0.4956
65704SOL    HW1 3717   3.811   8.593   4.784 -0.9133 -1.6157  0.7024
65704SOL    HW2 3718   3.808   8.525   4.919 -0.6517  0.0042  1.5470
65705SOL     OW 3719   4.374   0.426  11.859 -0.5757  0.4456 -0.5732
65705SOL    HW1 3720   4.381   0.341  11.815  0.6585 -0.1076  0.6102
65705SOL    HW2 3721   4.280   0.445  11.859 -0.9398 -1.1430 -0.4873
65706SOL     OW 3722   0.374   0.109   5.942  0.1120 -0.5662 -0.0543
65706SOL    HW1 3723   0.295   0.056   5.953 -2.1324  2.2942 -1.3072
65706SOL    HW2 3724   0.369   0.175   6.010  0.8878  0.2899 -0.8005
65707SOL     OW 3725   1.304  10.947   1.448  0.4643 -0.2018 -0.1924
65707SOL    HW1 3726   1.299  10.983   1.360  1.6947 -0.6898 -0.4881
65707SOL    HW2 3727   1.363  11.006   1.495 -0.2554  0.1057  0.3324
65708SOL     OW 3728   5.039   6.059  11.635  0.0370  0.2469  0.4814
65708SOL    HW1 3729   5.081   6.030  11.716  0.9045 -1.1919 -0.4346
65708SOL    HW2 3730   4.995   5.980  11.601  3.1707 -0.4593 -2.5302
65709SOL     OW 3731   1.164   3.993   1.666  0.4873 -0.4211 -0.2462
65709SOL    HW1 3732   1.209   3.908   1.659  0.5336 -0.6272  1.9035
65709SOL    HW2 3733   1.234   4.056   1.682  0.3749 -0.1030 -1.0014
65710SOL     OW 3734   1.696   6.411   5.199  0.1598  0.5138  0.0424
65710SOL    HW1 3735   1.740   6.354   5.136 -0.0335  0.7581 -0.3224
65710SOL    HW2 3736   1.765   6.471   5.229  0.1308  0.7606 -0.3683
65711SOL     OW 3737   2.186   3.723   3.099  0.0970  0.4096  0.0208
65711SOL    HW1 3738   2.263   3.730   3.042  0.9059  3.3819  1.2945
65711SOL    HW2 3739   2.221   3.692   3.182  0.1056  2.3077  0.7764
65712SOL     OW 3740   3.471   9.244   7.109  0.3045  0.2904 -0.2779
65712SOL    HW1 3741   3.561   9.253   7.142  0.4154 -0.0817 -0.4663
65712SOL    HW2 3742   3.451   9.329   7.070  0.0219  0.8787  1.0975
65713SOL     OW 3743   4.385  11.199   6.746  0.1094 -0.0213 -0.1798
65713SOL    HW1 3744   4.366  11.284   6.786 -1.2983 -0.7152  0.6845
65713SOL    HW2 3745   4.329  11.197   6.668  1.7049  0.6814 -1.4131
65714SOL     OW 3746   6.780   9.045   4.221  0.6894  0.1101  0.0306
65714SOL    HW1 3747   6.728   9.029   4.300 -0.5516  0.2315 -0.7344
65714SOL    HW2 3748   6.847   8.976   4.223 -0.3670 -0.9530  0.3307
65715SOL     OW 3749   3.130   9.340   5.126  0.5671 -0.1425 -0.3582
65715SOL    HW1 3750   3.091   9.358   5.041  0.5950 -0.2984 -0.4049
65715SOL    HW2 3751   3.184   9.417   5.144 -1.6986  1.2672  0.8659
65716SOL     OW 3752   2.246   2.837  10.916  0.7475 -0.5131  0.4650
65716SOL    HW1 3753   2.166   2.867  10.959 -0.9981  0.7924 -3.2828
65716SOL    HW2 3754   2.224   2.750  10.883  0.6319  0.0315 -0.9664
65717SOL     OW 3755   9.924   8.531   1.956 -0.1665  0.5252 -0.3139
65717SOL    HW1 3756   9.992   8.471   1.988 -1.5297 -0.3606  1.0684
65717SOL    HW2 3757   9.889   8.572   2.036 -1.0052  1.2421 -1.0279
65718SOL     OW 3758   7.914   9.132   7.454 -0.4345 -0.0303  0.2688
65718SOL    HW1 3759   7.945   9.107   7.367  1.8334  0.4206  0.8813
65718SOL    HW2 3760   7.980   9.193   7.486 -1.0514 -0.4227  2.4410
65719SOL     OW 3761   9.096  11.199   2.681 -0.0111  0.1331 -1.1787
65719SOL    HW1 3762   9.024  11.168   2.735  0.2752  1.4060 -0.0119
65719SOL    HW2 3763   9.141  11.119   2.652 -0.3576 -0.5974  0.2157
65720SOL     OW 3764   5.005   7.446  11.158 -0.7354 -0.0837 -0.7067
65720SOL    HW1 3765   4.990   7.357  11.127  2.3359 -0.2761 -2.0016
65720SOL    HW2 3766   4.968   7.502  11.089 -1.8370 -0.3414 -0.3392
65721SOL     OW 3767   1.753   0.247  12.507 -0.2262  0.6527  0.0526
65721SOL    HW1 3768   1.720   0.321  12.455 -1.1206  0.4335  0.2832
65721SOL    HW2 3769   1.687   0.178  12.495 -0.6380  0.7100  1.7215
65722SOL     OW 3770  11.920   2.018  12.428 -0.8618 -0.3456 -0.6312
65722SOL    HW1 3771  12.003   2.041  12.469 -1.7555 -1.4411  2.0623
65722SOL    HW2 3772  11.940   2.008  12.335  2.4183 -2.1683  0.1250
65723SOL     OW 3773   9.841  11.465   4.678  0.1638 -0.0240  0.3984
65723SOL    HW1 3774   9.825  11.556   4.653 -0.8926 -0.2089  0.3751
65723SOL    HW2 3775   9.935  11.453   4.666  0.3325  1.1006  0.5206
65724SOL     OW 3776  11.797   6.966   0.483 -0.6386  0.2231  0.0715
65724SOL    HW1 3777  11.798   7.057   0.452  1.9337  0.4681  0.6090
65724SOL    HW2 3778  11.795   6.973   0.578  1.8440 -0.1285  0.2157
65725SOL     OW 3779   0.327  10.293  10.499  0.2551 -0.0988  0.1619
65725SOL    HW1 3780   0.389  10.291  10.572  0.3185  0.4304  0.1271
65725SOL    HW2 3781   0.250  10.247  10.533  0.8324 -1.1850  0.0349
65726SOL     OW 3782   2.741   1.559   4.539 -0.4210  0.2295  0.4586
65726SOL    HW1 3783   2.834   1.541   4.527 -0.6221 -1.7730  1.5135
65726SOL    HW2 3784   2.707   1.565   4.450  0.8556  2.0592  0.0380
65727SOL     OW 3785   3.441   1.828   5.982 -0.3080  0.0593  0.7343
65727SOL    HW1 3786   3.416   1.899   5.923 -0.9556 -0.1708  0.7211
65727SOL    HW2 3787   3.478   1.761   5.925  0.6172  0.5095  0.7830
65728SOL     OW 3788   5.754   0.038   0.239 -0.0293  0.3594 -0.1414
65728SOL    HW1 3789   5.817  -0.023   0.199 -2.6339 -2.4140 -0.3517
65728SOL    HW2 3790   5.762   0.022   0.333  1.7516  2.4195  0.1441
65729SOL     OW 3791   3.991   9.632  10.094 -0.3955  0.0439  0.1040
65729SOL    HW1 3792   4.052   9.677  10.036 -1.1028 -2.0352 -2.4388
65729SOL    HW2 3793   3.904   9.660  10.066 -0.7346  0.2570  1.2997
65730SOL     OW 3794   3.394   8.386   6.823 -0.1891  0.4315  0.7299
65730SOL    HW1 3795   3.333   8.455   6.849 -1.0372 -0.4183  1.0928
65730SOL    HW2 3796   3.378   8.315   6.885 -0.6375 -0.7801 -0.6881
65731SOL     OW 3797   8.077   5.888   1.760  0.6021  0.3508  0.0772
65731SOL    HW1 3798   8.014   5.817   1.748 -0.3237  0.9941  0.9647
65731SOL    HW2 3799   8.149   5.867   1.700 -0.0294 -0.8874 -0.2761
65732SOL     OW 3800   7.086   0.192   5.817  0.5051 -0.4117 -0.6202
65732SOL    HW1 3801   7.008   0.178   5.765  0.9215 -1.6942 -0.9453
65732SOL    HW2 3802   7.075   0.279   5.856 -0.1307  0.2706 -2.2782
65733SOL     OW 3803   9.884   5.273  11.337  0.6106  0.1099 -0.1632
65733SOL    HW1 3804   9.870   5.330  11.413  1.8717  1.0107 -0.5707
65733SOL    HW2 3805   9.796   5.261  11.300  0.3656  2.4371 -0.4868
65734SOL     OW 3806   7.970   3.943   0.704  0.1397 -0.2170 -0.5952
65734SOL    HW1 3807   8.010   3.864   0.669  0.3219  0.1185 -1.1436
65734SOL    HW2 3808   7.910   3.972   0.636  1.2164  0.9883 -1.0610
65735SOL     OW 3809   5.610   7.884   3.688 -0.0584  0.1036  0.0855
65735SOL    HW1 3810   5.695   7.897   3.646  1.4423 -0.3918  2.7443
65735SOL    HW2 3811   5.594   7.965   3.736 -0.8398 -0.0236  0.0585
65736SOL     OW 3812   2.474   5.617   3.484 -0.1031 -0.8157 -0.2794
65736SOL    HW1 3813   2.476   5.566   3.403 -1.9095 -0.5601 -0.5166
65736SOL    HW2 3814   2.559   5.661   3.487  0.0343 -0.9171 -1.9766
65737SOL     OW 3815   9.050   2.243  12.360  0.7663 -0.0657  0.0249
65737SOL    HW1 3816   9.098   2.230  12.278  3.0350  0.6991  1.1770
65737SOL    HW2 3817   9.111   2.216  12.428 -0.3266  1.2314  1.5822
65738SOL     OW 3818  10.538   3.598  10.797 -0.0285  0.3373 -0.2897
65738SOL    HW1 3819  10.508   3.659  10.729 -0.3063  0.4406 -0.0773
65738SOL    HW2 3820  10.602   3.648  10.848  0.7470  0.0173 -0.9330
65739SOL     OW 3821   0.499   4.862   3.284 -0.0106 -0.2741  0.1748
65739SOL    HW1 3822   0.500   4.891   3.193 -0.5906  0.3679  0.3704
65739SOL    HW2 3823   0.437   4.789   3.285  0.0477 -0.3267  0.0495
65740SOL     OW 3824   9.095   6.134   2.037  0.5155 -0.0281 -0.0072
65740SOL    HW1 3825   9.090   6.210   2.095 -1.1561 -0.7341  0.8527
65740SOL    HW2 3826   9.042   6.159   1.961  1.6637  0.4199 -0.6784
65741SOL     OW 3827   0.704   7.877   8.728 -0.1520  0.7965 -0.0711
65741SOL    HW1 3828   0.671   7.941   8.791  0.6891 -0.0644  1.2914
65741SOL    HW2 3829   0.626   7.847   8.682 -0.7327  1.7380  0.2664
65742SOL     OW 3830  11.960   0.197   9.203  0.1576 -0.3375 -0.0022
65742SOL    HW1 3831  12.023   0.136   9.166  0.4721 -0.6467  1.0005
65742SOL    HW2 3832  12.009   0.243   9.271 -0.6747 -0.5488  0.7616
65743SOL     OW 3833   1.246  11.762   2.579  0.0759 -0.0309 -0.3229
65743SOL    HW1 3834   1.273  11.852   2.598  1.6696 -0.8230  1.5764
65743SOL    HW2 3835   1.198  11.734   2.658  0.9806 -1.3114 -0.1902
65744SOL     OW 3836   1.490   8.445   4.893  0.1269 -0.0158  0.8678
65744SOL    HW1 3837   1.487   8.467   4.986  0.0078 -0.2168  0.9112
65744SOL    HW2 3838   1.423   8.378   4.882 -0.3596  0.5219  0.4990
65745SOL     OW 3839   1.202   2.791   3.938  0.0709  0.2006 -0.3088
65745SOL    HW1 3840   1.216   2.885   3.949 -1.6303  0.4758 -0.1627
65745SOL    HW2 3841   1.148   2.783   3.859  0.7906 -0.7131 -0.7268
65746SOL     OW 3842   9.545   6.272   4.199 -0.0312 -0.1893  0.2040
65746SOL    HW1 3843   9.624   6.259   4.147  0.1663  1.0170  0.1741
65746SOL    HW2 3844   9.473   6.241   4.143  0.2875 -0.0043 -0.3085
65747SOL     OW 3845   8.111   7.652   3.337 -0.1625  0.0789  0.0408
65747SOL    HW1 3846   8.077   7.669   3.249  0.3641 -0.3490 -0.2489
65747SOL    HW2 3847   8.148   7.736   3.364  0.2839  0.0421 -0.4250
65748SOL     OW 3848  12.544   3.263   1.313  0.5112  0.0491 -0.8885
65748SOL    HW1 3849  12.556   3.352   1.280 -0.8678  0.0619 -1.4003
65748SOL    HW2 3850  12.561   3.207   1.238 -2.0168  0.0555 -1.5460
65749SOL     OW 3851  12.065   0.285   0.451  0.0866 -0.2484  0.0264
65749SOL    HW1 3852  12.125   0.234   0.507 -1.0932 -1.8611 -0.0985
65749SOL    HW2 3853  12.101   0.374   0.452  1.4965 -0.7828  1.3380
65750SOL     OW 3854  12.435   8.209   4.991 -0.3457 -0.0792 -0.1267
65750SOL    HW1 3855  12.475   8.257   4.919  1.1142  0.8494  1.2182
65750SOL    HW2 3856  12.408   8.126   4.953  0.0306  0.5289 -1.8075
65751SOL     OW 3857  11.006  10.716   9.360 -0.2721  0.2640  0.1672
65751SOL    HW1 3858  11.083  10.771   9.346  0.4553 -0.5139  0.9963
65751SOL    HW2 3859  11.004  10.658   9.284 -0.2856  0.5769 -0.0709
65752SOL     OW 3860   6.902   3.439  10.559 -0.0709  0.0636  0.5681
65752SOL    HW1 3861   6.811   3.414  10.541 -0.4532  0.7875  1.4255
65752SOL    HW2 3862   6.928   3.493  10.484 -0.6697  0.6412  0.7716
65753SOL     OW 3863  11.128   3.397   9.068  0.7490 -0.1703  0.1196
65753SOL    HW1 3864  11.049   3.354   9.034  0.8676 -1.7564  1.7236
65753SOL    HW2 3865  11.095   3.465   9.126  0.5292 -0.5879  0.4967
65754SOL     OW 3866   7.694   1.896   6.325  0.3984  0.1325 -0.2562
65754SOL    HW1 3867   7.715   1.952   6.399  0.7809 -0.3977  0.0395
65754SOL    HW2 3868   7.599   1.903   6.316  0.5301  1.4888 -0.7670
65755SOL     OW 3869   8.403   1.169   8.577 -0.3754  0.8635 -0.6753
65755SOL    HW1 3870   8.393   1.157   8.671 -0.9603  1.2240 -0.6863
65755SOL    HW2 3871   8.403   1.080   8.541  0.1164  0.7140 -0.3141
65756SOL     OW 3872   8.259   7.076   2.766  0.0360  0.0782 -0.6061
65756SOL    HW1 3873   8.260   7.100   2.858  0.9397  3.0254 -1.2917
65756SOL    HW2 3874   8.253   7.159   2.719  0.3107 -1.2792 -3.2253
65757SOL     OW 3875   0.055   4.384   0.792  0.6107 -0.4340 -0.3061
65757SOL    HW1 3876   0.106   4.312   0.829  1.7060 -1.1255 -2.9410
65757SOL    HW2 3877   0.088   4.393   0.703 -1.4966  1.4515 -0.9741
65758SOL     OW 3878   7.055   3.935   1.366 -0.3554  0.2017 -0.6540
65758SOL    HW1 3879   7.074   3.841   1.369 -2.4533 -0.2522  0.2969
65758SOL    HW2 3880   7.096   3.971   1.444 -0.0899 -0.0284 -0.6862
65759SOL     OW 3881  11.870   1.903   3.416 -0.3235 -0.5336  0.8022
65759SOL    HW1 3882  11.955   1.877   3.451  0.9532  0.3494 -1.3932
65759SOL    HW2 3883  11.873   1.999   3.416 -1.5285 -0.4798  1.1067
65760SOL     OW 3884   4.661   5.800   4.163 -0.2776  0.4512  0.0340
65760SOL    HW1 3885   4.598   5.872   4.158 -0.6855  0.1287  0.4948
65760SOL    HW2 3886   4.708   5.804   4.079 -0.4717  1.0859 -0.0531
65761SOL     OW 3887   4.809   6.239   2.839 -0.2621 -0.2099 -0.2156
65761SOL    HW1 3888   4.756   6.197   2.906 -2.5694  2.0440 -0.4710
65761SOL    HW2 3889   4.783   6.197   2.757  0.7683 -1.2709 -0.0383
65762SOL     OW 3890   3.225   0.299  10.945 -0.1058 -0.0390 -0.1602
65762SOL    HW1 3891   3.214   0.248  11.025 -0.2082 -0.1933 -0.2718
65762SOL    HW2 3892   3.143   0.286  10.896  0.0691 -0.1825 -0.4212
65763SOL     OW 3893   5.851   9.236  12.115 -0.6275 -0.5031  0.0054
65763SOL    HW1 3894   5.864   9.204  12.205 -2.0936 -1.2493 -0.0221
65763SOL    HW2 3895   5.760   9.265  12.113  0.3430  2.9195 -0.2630
65764SOL     OW 3896   6.111   5.296   2.988 -0.0185  0.1249  0.1734
65764SOL    HW1 3897   6.083   5.240   2.916 -0.9127  0.6441  0.0989
65764SOL    HW2 3898   6.048   5.277   3.059  1.0362 -0.6151  0.9489
65765SOL     OW 3899   8.354  11.040   4.231 -0.1353  0.8453 -0.3848
65765SOL    HW1 3900   8.379  10.963   4.180  1.2843  1.8657 -1.3239
65765SOL    HW2 3901   8.325  11.104   4.166 -1.6147  1.0172  0.4067
65766SOL     OW 3902  12.099   1.036   1.342 -0.4583  0.4044  0.0319
65766SOL    HW1 3903  12.184   0.998   1.361 -1.1296 -1.2221 -0.0148
65766SOL    HW2 3904  12.108   1.129   1.364  1.3990  0.3331 -0.3122
65767SOL     OW 3905  11.925  11.012  10.028  0.2929 -0.6359  0.2629
65767SOL    HW1 3906  12.020  11.018  10.040  0.1051 -0.2562  1.7288
65767SOL    HW2 3907  11.891  10.994  10.116 -1.0116 -0.5582 -0.2125
65768SOL     OW 3908  11.294   6.298   4.039 -0.6214 -0.4503  0.6453
65768SOL    HW1 3909  11.238   6.376   4.035 -0.2338 -0.1990 -0.0954
65768SOL    HW2 3910  11.382   6.332   4.055 -0.2058 -0.5972 -1.1455
65769SOL     OW 3911  10.325  10.029   4.773 -0.2871  0.5658  0.2312
65769SOL    HW1 3912  10.330  10.026   4.868  1.0076  2.4372  0.2929
65769SOL    HW2 3913  10.265  10.102   4.755 -1.3841 -0.4645 -0.4215
65770SOL     OW 3914   8.667   9.966  10.236  0.1601 -0.1633 -0.4766
65770SOL    HW1 3915   8.740   9.952  10.176  0.3748  1.1461 -0.5415
65770SOL    HW2 3916   8.708   9.991  10.319 -0.2146  1.9390 -0.8869
65771SOL     OW 3917   3.755   9.806   4.614  0.4355 -1.0302  0.1646
65771SOL    HW1 3918   3.691   9.868   4.579  0.7115 -0.7314  0.1907
65771SOL    HW2 3919   3.751   9.731   4.554 -0.3382 -1.2489  0.4798
65772SOL     OW 3920   0.115   8.492   1.417 -0.1687  0.2650  0.5192
65772SOL    HW1 3921   0.136   8.576   1.459  0.7086 -0.0043  0.6376
65772SOL    HW2 3922   0.147   8.502   1.327 -1.8751  0.7740 -0.0759
65773SOL     OW 3923   4.529   0.190   6.197 -0.3737 -0.2835  0.1434
65773SOL    HW1 3924   4.481   0.145   6.128 -0.5338 -1.3550  0.9225
65773SOL    HW2 3925   4.621   0.181   6.173 -0.4516 -0.2418 -0.1691
65774SOL     OW 3926   9.199   2.368   2.784 -0.6769  0.4596 -0.0043
65774SOL    HW1 3927   9.293   2.380   2.769 -0.3197 -1.7036  0.1814
65774SOL    HW2 3928   9.163   2.456   2.780  1.1045  1.1978 -1.8080
65775SOL     OW 3929  11.910   3.788   3.930  0.5429 -0.4942  0.0033
65775SOL    HW1 3930  11.824   3.810   3.965  0.7978 -1.1848  1.0815
65775SOL    HW2 3931  11.911   3.829   3.843 -0.4338  0.4770  0.4303
65776SOL     OW 3932  11.299   1.737   5.643  0.0096  0.0945  0.1989
65776SOL    HW1 3933  11.321   1.778   5.727  0.2646 -1.4592  0.9165
65776SOL    HW2 3934  11.372   1.759   5.585 -0.2980  1.4066  0.2781
65777SOL     OW 3935   7.044   6.546  10.486 -0.1166  0.3486 -0.4802
65777SOL    HW1 3936   7.013   6.636  10.483 -1.0600  0.0742  0.5496
65777SOL    HW2 3937   6.984   6.498  10.428  0.1551  0.3153 -0.7363
65778SOL     OW 3938  11.798   0.971   8.665 -0.5445 -0.2328  0.2470
65778SOL    HW1 3939  11.719   0.936   8.706 -0.1130 -2.5212 -0.6924
65778SOL    HW2 3940  11.788   0.949   8.572  0.9665 -0.1165  0.0327
65779SOL     OW 3941   3.837   4.550  12.000  0.2923  0.0379  0.2434
65779SOL    HW1 3942   3.802   4.638  12.009  0.1551 -0.1142  1.3364
65779SOL    HW2 3943   3.777   4.505  11.941  0.1679  0.5678 -0.0337
65780SOL     OW 3944   2.738  10.204  11.275  0.1973  0.3850  0.3191
65780SOL    HW1 3945   2.750  10.190  11.369 -1.3513  2.7608  0.9778
65780SOL    HW2 3946   2.643  10.214  11.264  0.4033  0.7906 -1.3930
65781SOL     OW 3947   1.526  11.573  10.675 -0.1163  0.4346  0.0457
65781SOL    HW1 3948   1.596  11.639  10.674 -0.1755  0.5950  2.2497
65781SOL    HW2 3949   1.457  11.611  10.621  0.9117  0.9344 -0.9552
65782SOL     OW 3950   8.408   2.597   9.718  0.1068  0.2337 -0.2690
65782SOL    HW1 3951   8.380   2.576   9.808 -2.1429 -2.4844 -1.4671
65782SOL    HW2 3952   8.326   2.612   9.671  0.9748 -1.6129 -2.5571
65783SOL     OW 3953   6.230  11.006   1.145 -0.3765 -0.2622  0.0541
65783SOL    HW1 3954   6.200  11.069   1.079 -2.2993 -0.5094  0.6293
65783SOL    HW2 3955   6.156  10.946   1.156  0.9106 -1.8376  0.4939
65784SOL     OW 3956   8.622   9.331   4.347 -0.1350  0.4127  0.3547
65784SOL    HW1 3957   8.535   9.359   4.374  0.8183  1.4673  2.6071
65784SOL    HW2 3958   8.666   9.305   4.428  1.6847 -0.0025 -0.6940
65785SOL     OW 3959  11.374  10.605   1.301 -0.7611  0.2152 -0.6384
65785SOL    HW1 3960  11.285  10.571   1.298 -0.8427  0.5141 -2.0947
65785SOL    HW2 3961  11.430  10.528   1.309 -1.1313  0.0280  0.2639
65786SOL     OW 3962  10.691   7.791   5.902  0.6302 -0.0542  0.3415
65786SOL    HW1 3963  10.693   7.789   5.998 -0.1600 -0.0422  0.3650
65786SOL    HW2 3964  10.733   7.873   5.878 -0.4092  0.6011  0.7326
65787SOL     OW 3965   3.325  10.535   3.962  0.2417 -0.3849 -0.6321
65787SOL    HW1 3966   3.245  10.514   4.009  0.5500  0.2537  0.1996
65787SOL    HW2 3967   3.367  10.603   4.014  2.0401 -1.6862 -0.2840
65788SOL     OW 3968  12.457   7.045   0.316  0.0526  0.2187 -0.3054
65788SOL    HW1 3969  12.454   6.972   0.378  1.3354 -0.4061 -0.9396
65788SOL    HW2 3970  12.467   7.122   0.371 -0.6128 -0.1422  0.3417
65789SOL     OW 3971   8.057  12.108   5.821 -0.3784 -0.4050 -0.4633
65789SOL    HW1 3972   7.963  12.112   5.833 -0.3319  1.7653 -0.3899
65789SOL    HW2 3973   8.086  12.200   5.824  1.5752 -0.9062 -1.6680
65790SOL     OW 3974  10.296   1.093   8.667 -0.4748 -0.3925  0.5650
65790SOL    HW1 3975  10.314   1.074   8.575 -0.8237  0.1825  0.3732
65790SOL    HW2 3976  10.340   1.177   8.683  0.2424 -0.8609  1.1377
65791SOL     OW 3977  11.489  10.218   5.052  0.5044 -0.3323 -0.0176
65791SOL    HW1 3978  11.478  10.305   5.090  2.0930 -0.5584  1.1111
65791SOL    HW2 3979  11.539  10.232   4.972 -0.8269 -0.0568 -0.8125
65792SOL     OW 3980   1.124   9.389   5.048  0.0479 -0.4209 -1.0616
65792SOL    HW1 3981   1.124   9.389   5.143 -2.1632  2.4145 -0.9401
65792SOL    HW2 3982   1.055   9.328   5.024 -0.6801  0.2613 -0.7453
65793SOL     OW 3983  10.733  11.953  12.141  0.4810 -0.3363  0.6931
65793SOL    HW1 3984  10.731  11.873  12.194  0.2098 -0.5533  0.3632
65793SOL    HW2 3985  10.811  12.000  12.171  0.7086 -0.7839  0.8092
65794SOL     OW 3986   3.523   6.075   4.373  0.3856 -0.2939 -0.0942
65794SOL    HW1 3987   3.459   6.144   4.392  1.2480  1.0716 -1.8407
65794SOL    HW2 3988   3.530   6.026   4.455 -0.9508  1.1166  0.9398
65795SOL     OW 3989  12.758  12.645   1.831 -0.0590 -0.0697 -0.3171
65795SOL    HW1 3990  12.787  12.570   1.780  1.3516  0.6546 -0.6571
65795SOL    HW2 3991  12.674  12.620   1.867 -0.2229 -1.3016 -1.5042
65796SOL     OW 3992   4.851   5.503   3.368 -0.5249  0.0890  0.0127
65796SOL    HW1 3993   4.914   5.461   3.310 -1.4649 -2.6957  0.8239
65796SOL    HW2 3994   4.878   5.476   3.456  0.0370  3.0465  0.8387
65797SOL     OW 3995   2.755  11.786  11.140 -0.0650 -0.2564  0.0386
65797SOL    HW1 3996   2.815  11.743  11.080  1.3527  1.2670  0.2785
65797SOL    HW2 3997   2.698  11.838  11.084  0.2287 -0.0763 -0.0995
65798SOL     OW 3998   7.199  11.432   6.886 -0.0276  0.4311  0.8697
65798SOL    HW1 3999   7.175  11.462   6.799  1.5195 -1.8775 -0.4705
65798SOL    HW2 4000   7.210  11.512   6.937  1.4187  2.0561 -1.7465
65799SOL     OW 4001   8.956   6.184   0.037 -0.0013  0.6387  0.3507
65799SOL    HW1 4002   8.922   6.100   0.070  2.5072 -0.7341 -0.3047
65799SOL    HW2 4003   9.001   6.223   0.112 -1.0475  1.3890  0.6160
65800SOL     OW 4004   9.220   1.438   2.327  0.0988 -0.1198 -0.0314
65800SOL    HW1 4005   9.307   1.468   2.353 -0.1065  0.0184  0.5004
65800SOL    HW2 4006   9.223   1.439   2.231  0.3720  0.8129 -0.0257
65801SOL     OW 4007  10.607   0.241   1.670  0.3374 -0.0176  0.2944
65801SOL    HW1 4008  10.581   0.332   1.657  0.6114  0.0918  0.4991
65801SOL    HW2 4009  10.702   0.242   1.664  0.2893 -0.4718 -0.7996
65802SOL     OW 4010  12.773   3.017   3.695 -0.0131  0.0301 -0.5150
65802SOL    HW1 4011  12.766   3.073   3.618 -1.1561  0.8000  0.1259
65802SOL    HW2 4012  12.697   3.039   3.749  0.3197 -1.0673  0.4650
65803SOL     OW 4013   1.630   9.582   8.195 -0.1312  0.2913  0.0182
65803SOL    HW1 4014   1.671   9.533   8.124  0.5306  0.0804  0.5370
65803SOL    HW2 4015   1.673   9.667   8.194 -1.3394  0.9169 -0.9344
65804SOL     OW 4016  10.010   1.830   7.799  0.4050 -0.3989 -0.0097
65804SOL    HW1 4017  10.074   1.845   7.729 -1.5538  1.7972 -1.4709
65804SOL    HW2 4018  10.014   1.910   7.852  0.4100 -1.1821  1.2041
65805SOL     OW 4019   1.978   5.906   4.065 -0.0606  0.4130 -0.1046
65805SOL    HW1 4020   1.890   5.871   4.068 -0.2891  0.2888 -4.0378
65805SOL    HW2 4021   1.967   5.999   4.043  0.7606  0.4101 -0.5976
65806SOL     OW 4022   2.534   5.412   2.208 -0.3837 -0.4940  0.4347
65806SOL    HW1 4023   2.498   5.326   2.231  0.3098 -0.9026  0.0206
65806SOL    HW2 4024   2.458   5.470   2.206 -0.8959 -1.1526  0.4749
65807SOL     OW 4025   4.893   0.799   6.203  0.2154 -0.2642 -0.3566
65807SOL    HW1 4026   4.932   0.733   6.260  1.0600  0.7243  0.2510
65807SOL    HW2 4027   4.934   0.881   6.230 -0.2047  0.3961 -1.6406
65808SOL     OW 4028   2.470   5.564   2.490  0.0440 -0.1213 -0.1819
65808SOL    HW1 4029   2.410   5.491   2.479  0.0501 -0.2011  0.2846
65808SOL    HW2 4030   2.414   5.641   2.492 -0.1087 -0.2435  0.8466
65809SOL     OW 4031   7.808   5.547   3.958 -0.0807  0.2170 -0.0001
65809SOL    HW1 4032   7.851   5.495   3.890 -0.3247 -1.2191  0.8879
65809SOL    HW2 4033   7.847   5.516   4.040 -1.8478 -0.2241  0.7361
65810SOL     OW 4034   6.440   5.175   0.274  0.2666 -0.0119 -0.0604
65810SOL    HW1 4035   6.536   5.176   0.282  0.4252 -1.5351 -1.2967
65810SOL    HW2 4036   6.421   5.246   0.212  0.5617  0.4049  0.3147
65811SOL     OW 4037   4.069   2.076   6.117  0.4620 -0.1737  0.3765
65811SOL    HW1 4038   4.031   2.071   6.029  1.8954 -2.4972 -0.1859
65811SOL    HW2 4039   4.001   2.041   6.174  0.2713 -0.5667 -0.0824
65812SOL     OW 4040   5.482   7.033   7.377 -0.4485 -0.6374  0.3057
65812SOL    HW1 4041   5.569   7.044   7.415  0.2365 -1.3596 -0.9785
65812SOL    HW2 4042   5.490   7.068   7.288 -1.0771 -1.9120 -0.2854
65813SOL     OW 4043   8.906   7.650  11.869  0.7300  0.0642  0.7926
65813SOL    HW1 4044   8.973   7.651  11.937 -0.5730  1.1620  2.1467
65813SOL    HW2 4045   8.850   7.724  11.890 -1.4081 -1.2988  0.2519
65814SOL     OW 4046   8.400   9.055   8.231  0.0821  0.1836 -0.2226
65814SOL    HW1 4047   8.393   8.975   8.180 -0.5740 -0.7365  1.2639
65814SOL    HW2 4048   8.343   9.118   8.187 -1.0734 -0.8283 -0.1921
65815SOL     OW 4049   8.127  12.486   0.689  0.3144 -0.1245  0.2375
65815SOL    HW1 4050   8.221  12.495   0.676  0.1762  0.8845 -0.1533
65815SOL    HW2 4051   8.091  12.571   0.665 -0.8270 -0.8636 -0.8320
65816SOL     OW 4052   7.371   5.014  10.848  0.0838 -0.1840  0.1619
65816SOL    HW1 4053   7.447   5.008  10.789  0.3999  0.0210  0.5497
65816SOL    HW2 4054   7.408   5.010  10.936 -0.3364  0.1784  0.3575
65817SOL     OW 4055  11.027   1.144  11.107 -0.0128  0.0448  0.0232
65817SOL    HW1 4056  10.941   1.104  11.119 -0.8339  1.6598 -0.2717
65817SOL    HW2 4057  11.064   1.099  11.031 -0.0777 -1.4474  0.8302
65818SOL     OW 4058   1.017   4.476   7.085  0.1070  0.3273 -0.0638
65818SOL    HW1 4059   1.052   4.389   7.106  1.0553 -0.2504 -3.4798
65818SOL    HW2 4060   0.925   4.472   7.111 -0.0236 -1.9332 -0.6394
65819SOL     OW 4061   7.492   9.939   3.711  0.3246  0.0451  0.3970
65819SOL    HW1 4062   7.525   9.886   3.784  1.6093  1.0216  0.5717
65819SOL    HW2 4063   7.443   9.878   3.657  1.1571 -1.1673  0.9603
65820SOL     OW 4064   9.553   2.297   7.993  0.2260 -0.7525  0.1747
65820SOL    HW1 4065   9.540   2.261   8.081  2.4765 -0.9975  0.4519
65820SOL    HW2 4066   9.638   2.341   7.997  0.2943 -0.6019 -1.8442
65821SOL     OW 4067   4.552   2.743  10.485  0.1580 -0.0634  0.0107
65821SOL    HW1 4068   4.464   2.781  10.486 -0.3058 -0.9467 -1.8434
65821SOL    HW2 4069   4.607   2.809  10.526 -1.5665 -0.1378  2.6892
65822SOL     OW 4070   2.232  10.220  11.959 -0.6138 -0.5166 -0.0590
65822SOL    HW1 4071   2.253  10.214  12.052 -0.6563 -1.9566 -0.1248
65822SOL    HW2 4072   2.266  10.139  11.921 -0.6601  0.0181 -1.2911
65823SOL     OW 4073   9.102   8.672   7.301  0.1742 -0.3311 -0.0000
65823SOL    HW1 4074   9.059   8.716   7.227 -0.8087  1.8815  1.7858
65823SOL    HW2 4075   9.035   8.671   7.369  0.3101 -4.2782  0.2852
65824SOL     OW 4076   4.097   6.352   0.367 -0.3037  0.3034 -0.2158
65824SOL    HW1 4077   4.090   6.258   0.380  0.1417  0.0497 -1.6775
65824SOL    HW2 4078   4.160   6.362   0.296 -0.0390  1.7238  0.1859
65825SOL     OW 4079   4.827   9.178   7.134  0.1666  0.4700 -0.0012
65825SOL    HW1 4080   4.865   9.190   7.047 -0.7189 -1.1329 -0.6659
65825SOL    HW2 4081   4.744   9.225   7.130 -0.4340 -0.5857 -0.4741
65826SOL     OW 4082   8.636   3.674   3.715 -1.0257 -0.4631 -0.0944
65826SOL    HW1 4083   8.584   3.659   3.636 -1.1406  0.2751 -0.1583
65826SOL    HW2 4084   8.681   3.757   3.699 -2.8006  0.8940  1.5291
65827SOL     OW 4085   9.301   4.075  11.370 -0.2130 -0.0186 -0.0716
65827SOL    HW1 4086   9.246   4.016  11.421 -0.6258 -0.5807 -1.1311
65827SOL    HW2 4087   9.251   4.156  11.365  0.7012  0.7533  2.0588
65828SOL     OW 4088  12.669   0.009   7.801 -0.2119 -0.3315 -0.4368
65828SOL    HW1 4089  12.679   0.010   7.896 -2.3464 -0.0559 -0.1757
65828SOL    HW2 4090  12.758   0.020   7.768  0.5395 -0.1039  1.5124
65829SOL     OW 4091   9.575  10.551  11.501 -0.3678  0.2515 -0.4137
65829SOL    HW1 4092   9.606  10.513  11.419  2.3047  0.4814  0.3983
65829SOL    HW2 4093   9.512  10.488  11.535  2.5214 -2.6598 -0.0202
65830SOL     OW 4094   4.646  10.570   2.170 -0.1833  0.0991 -0.3166
65830SOL    HW1 4095   4.737  10.540   2.159 -0.1264  0.6372 -1.4141
65830SOL    HW2 4096   4.633  10.571   2.265 -0.2106 -3.4246 -0.1549
65831SOL     OW 4097   2.885  11.240   8.175  0.2032  0.4253  0.0789
65831SOL    HW1 4098   2.942  11.227   8.100  0.1166  0.4053  0.0160
65831SOL    HW2 4099   2.797  11.246   8.138  0.2160  0.9556  0.1284
65832SOL     OW 4100   8.794   7.439   0.080 -0.7389 -0.1851 -0.2003
65832SOL    HW1 4101   8.773   7.345   0.083 -0.7884 -0.1695 -0.0647
65832SOL    HW2 4102   8.835   7.451  -0.006  0.8697 -0.6763  0.4468
65833SOL     OW 4103  11.332   7.037   3.376 -0.1417 -0.0649  0.3685
65833SOL    HW1 4104  11.268   6.993   3.431 -1.6971  1.5679 -0.0476
65833SOL    HW2 4105  11.345   7.123   3.417 -0.8204  0.9270 -1.3498
65834SOL     OW 4106   3.043  11.465   7.401  0.7076 -0.4113  0.7871
65834SOL    HW1 4107   3.050  11.557   7.375 -0.0825 -0.9662 -1.6544
65834SOL    HW2 4108   3.132  11.430   7.392  0.3945 -0.7238 -2.1243
65835SOL     OW 4109   8.336   2.891  11.273 -0.0581 -0.0343 -0.1153
65835SOL    HW1 4110   8.241   2.882  11.281 -0.2510  1.1850 -0.7420
65835SOL    HW2 4111   8.360   2.955  11.340  0.5090 -1.1621  0.7980
65836SOL     OW 4112   8.605  11.899   0.823  0.2725  0.2449 -0.5365
65836SOL    HW1 4113   8.556  11.896   0.741  0.0452  0.8202 -0.4245
65836SOL    HW2 4114   8.565  11.970   0.873  0.1016 -0.4018  0.2721
65837SOL     OW 4115   0.481   5.014   4.859  0.2408  0.4235 -0.1324
65837SOL    HW1 4116   0.531   4.935   4.842  0.2906 -0.3644  3.1048
65837SOL    HW2 4117   0.541   5.071   4.907 -1.1899  0.3617  1.8695
65838SOL     OW 4118   6.277   0.062   1.444  0.4114 -0.1721 -0.1180
65838SOL    HW1 4119   6.270   0.009   1.523  1.1123  0.0526  0.1030
65838SOL    HW2 4120   6.370   0.084   1.438  0.7046 -1.6637 -1.9916
65839SOL     OW 4121   4.126  11.065   3.063  0.3379  0.7415  0.0074
65839SOL    HW1 4122   4.172  11.023   2.991 -2.6369 -0.7390 -1.2036
65839SOL    HW2 4123   4.146  11.011   3.139  3.2623  2.1500  0.3912
65840SOL     OW 4124   8.968  12.265   0.235  0.1343 -0.2217 -0.0058
65840SOL    HW1 4125   9.046  12.216   0.261  0.4402  0.5349  0.5559
65840SOL    HW2 4126   8.947  12.318   0.312 -1.1577 -0.6944 -0.0168
65841SOL     OW 4127   7.016  10.822   7.575 -0.2829 -0.0567  0.1870
65841SOL    HW1 4128   6.960  10.892   7.541  1.0101  0.4067 -1.0802
65841SOL    HW2 4129   7.063  10.789   7.499  0.2740 -1.2641  1.0194
65842SOL     OW 4130   0.834   2.203   2.816  0.7088 -0.2614 -0.1752
65842SOL    HW1 4131   0.812   2.110   2.820 -2.3581  0.2068 -2.4307
65842SOL    HW2 4132   0.784   2.243   2.888 -0.5494 -0.0348 -1.1388
65843SOL     OW 4133   4.208  11.684   5.921 -0.1410  0.2526 -0.3796
65843SOL    HW1 4134   4.244  11.629   5.852 -1.3691 -0.5695 -0.4022
65843SOL    HW2 4135   4.224  11.634   6.002  0.5912  0.8452 -0.1440
65844SOL     OW 4136   3.640  11.045   4.198 -0.2368  0.1150 -0.0863
65844SOL    HW1 4137   3.571  11.019   4.136 -1.1060  1.4127  0.3075
65844SOL    HW2 4138   3.719  11.003   4.164 -1.3598 -2.3052  0.0226
65845SOL     OW 4139   0.461  10.417   8.599  0.6415 -0.0250  0.0015
65845SOL    HW1 4140   0.500  10.407   8.685 -0.1304 -1.8434  0.1771
65845SOL    HW2 4141   0.377  10.460   8.616  0.3260 -0.7098  0.2198
65846SOL     OW 4142   3.189   3.073   3.290  0.1723  0.0984  0.1890
65846SOL    HW1 4143   3.253   3.096   3.358  2.8162 -1.2814 -1.6603
65846SOL    HW2 4144   3.159   2.985   3.313 -0.8486  0.5962  0.8470
65847SOL     OW 4145  11.877   0.353   6.332  0.5457 -0.2834  0.2206
65847SOL    HW1 4146  11.911   0.272   6.371  1.4777 -0.5016 -1.0042
65847SOL    HW2 4147  11.952   0.412   6.330  0.0939  0.2999  0.2409
65848SOL     OW 4148   4.546  11.476   0.667 -0.4857  0.1979 -0.5413
65848SOL    HW1 4149   4.471  11.504   0.719 -0.2215 -0.1790  0.0527
65848SOL    HW2 4150   4.622  11.504   0.718 -0.2233  0.3990 -1.0395
65849SOL     OW 4151  11.994   4.496   3.578  0.2763 -0.1115  0.0990
65849SOL    HW1 4152  11.972   4.588   3.594 -1.7526 -0.7506  1.2855
65849SOL    HW2 4153  11.991   4.455   3.665 -0.8280 -1.6701 -0.6312
65850SOL     OW 4154   8.063   1.307  11.116  0.3253 -0.8801  0.3613
65850SOL    HW1 4155   8.049   1.377  11.179  0.2545 -0.6655  0.1063
65850SOL    HW2 4156   8.041   1.227  11.165 -0.3675 -0.6669  0.4184
65851SOL     OW 4157   7.092   4.991   9.087  0.1372  0.3427  0.5546
65851SOL    HW1 4158   7.072   5.035   9.170 -0.8199  0.7508  0.1084
65851SOL    HW2 4159   7.188   4.994   9.082  0.1008  2.6956  0.3752
65852SOL     OW 4160   2.125   2.793   2.156 -0.5697  0.0182 -0.0282
65852SOL    HW1 4161   2.202   2.740   2.138  0.3794  0.6654  1.9226
65852SOL    HW2 4162   2.127   2.809   2.250 -1.0598  3.0688 -0.4080
65853SOL     OW 4163   1.623  11.871   6.660 -0.1734 -0.0735 -0.1370
65853SOL    HW1 4164   1.533  11.901   6.674 -0.0793  0.3379 -0.4168
65853SOL    HW2 4165   1.624  11.782   6.695 -0.7043 -0.1002 -0.1857
65854SOL     OW 4166   0.966   2.104   2.310 -0.1615 -0.4766  0.2354
65854SOL    HW1 4167   1.046   2.140   2.271 -0.8181  0.5142 -0.2492
65854SOL    HW2 4168   0.897   2.165   2.284 -1.3638 -2.1525 -0.6716
65855SOL     OW 4169   3.056  12.187   5.463 -0.2669 -0.0124  0.3212
65855SOL    HW1 4170   3.061  12.092   5.472 -0.1711  0.1474  2.5536
65855SOL    HW2 4171   2.995  12.201   5.391  0.0952 -1.7525 -0.3803
65856SOL     OW 4172   1.462   3.768   7.660  0.2065 -0.6322  0.1756
65856SOL    HW1 4173   1.554   3.773   7.684 -0.0774 -1.5870  1.5360
65856SOL    HW2 4174   1.419   3.835   7.714  0.2464  0.6960 -1.3669
65857SOL     OW 4175   1.555  11.398  10.876  0.4292 -0.2887 -0.1294
65857SOL    HW1 4176   1.577  11.326  10.817  0.2387  0.2155 -0.8319
65857SOL    HW2 4177   1.552  11.475  10.819  0.3187  0.2230  0.5568
65858SOL     OW 4178   2.070   9.103   1.043 -0.8936 -0.2758  0.3511
65858SOL    HW1 4179   2.108   9.028   1.089  2.1402  1.2558  0.6187
65858SOL    HW2 4180   2.042   9.162   1.112 -0.2514  0.1979  0.2211
65859SOL     OW 4181   1.040  12.478   6.077  0.0395 -0.6701  0.0714
65859SOL    HW1 4182   1.123  12.502   6.117 -0.2993 -0.5571  0.7319
65859SOL    HW2 4183   1.032  12.535   6.001 -0.9531  1.7095  1.8384
65860SOL     OW 4184   8.270   4.181   0.321 -0.2577  0.3035  0.2746
65860SOL    HW1 4185   8.224   4.098   0.331 -1.9506  1.3842  2.1359
65860SOL    HW2 4186   8.226   4.225   0.248  0.3965 -0.2256 -0.4639
65861SOL     OW 4187   9.006  11.516   2.416  0.0850 -0.0902  0.8819
65861SOL    HW1 4188   8.962  11.431   2.413 -0.4966  0.2142 -0.2099
65861SOL    HW2 4189   9.099  11.496   2.426 -0.1905 -0.7925  2.1224
65862SOL     OW 4190   0.560   7.978   9.635  0.6880 -0.0126  0.1148
65862SOL    HW1 4191   0.494   8.042   9.661  0.3898  0.1514 -0.9951
65862SOL    HW2 4192   0.571   7.922   9.712  0.5626  1.0408  0.9131
65863SOL     OW 4193   8.412   6.194   4.533 -0.5102  0.5782  0.1590
65863SOL    HW1 4194   8.358   6.224   4.607 -0.9151  0.0368  0.0908
65863SOL    HW2 4195   8.388   6.253   4.461 -0.4860  0.7906  0.3235
65864SOL     OW 4196   0.524  11.294   1.366 -0.2424 -0.3037  0.2335
65864SOL    HW1 4197   0.532  11.299   1.271  1.2058 -1.2234  0.2723
65864SOL    HW2 4198   0.447  11.239   1.381 -0.8040  0.2981 -0.3866
65865SOL     OW 4199   0.047   8.754   9.860 -0.1323  0.4455  0.3802
65865SOL    HW1 4200   0.097   8.826   9.898  0.1771  0.2961  0.2654
65865SOL    HW2 4201   0.095   8.732   9.779  0.7802 -0.9992  1.2566
65866SOL     OW 4202   8.549  10.081   8.808  0.0650  0.0023  0.0721
65866SOL    HW1 4203   8.588  10.168   8.801 -1.8150  0.8750 -0.0513
65866SOL    HW2 4204   8.468  10.086   8.757  0.7880 -2.3986 -1.5304
65867SOL     OW 4205   0.156  11.595   4.349 -0.3834  0.1880  0.2582
65867SOL    HW1 4206   0.248  11.621   4.340  0.6320 -2.4502  1.8411
65867SOL    HW2 4207   0.118  11.612   4.263  1.3786  1.9760 -0.2552
65868SOL     OW 4208   3.405   0.814   2.139 -0.0399 -0.0218  0.6868
65868SOL    HW1 4209   3.484   0.772   2.104  0.3415  1.1872  0.0360
65868SOL    HW2 4210   3.400   0.898   2.092 -0.9846  0.4920  1.6646
65869SOL     OW 4211   5.022   6.043   1.023  0.0779 -0.1915 -0.2414
65869SOL    HW1 4212   4.995   6.096   0.948 -0.0342 -0.8337 -0.6633
65869SOL    HW2 4213   5.117   6.042   1.020  0.2597  2.4538  1.5067
65870SOL     OW 4214   9.992  12.462   4.196 -0.2648 -0.2963 -0.4093
65870SOL    HW1 4215   9.959  12.390   4.249  0.1457 -0.4435 -0.3479
65870SOL    HW2 4216   9.952  12.450   4.110 -2.8584  1.3013  0.4717
65871SOL     OW 4217   5.414   2.128   6.942  0.4829  0.0705  0.7695
65871SOL    HW1 4218   5.498   2.088   6.964  0.2619 -0.7677  0.0999
65871SOL    HW2 4219   5.378   2.155   7.027  1.8034  1.2371  1.0004
65872SOL     OW 4220   5.759   1.037   7.088  0.2563  0.0934 -0.0284
65872SOL    HW1 4221   5.697   0.995   7.147  0.5807 -0.2826  0.0488
65872SOL    HW2 4222   5.782   0.969   7.025  0.8204  0.1326  0.1259
65873SOL     OW 4223   4.647   9.334   9.004 -0.3081 -0.2919  0.0521
65873SOL    HW1 4224   4.562   9.367   9.032 -0.2393 -0.9318  1.0745
65873SOL    HW2 4225   4.643   9.240   9.021 -0.2783 -0.7579 -2.2200
65874SOL     OW 4226  10.356   4.694   0.209  0.1826  0.3283  0.3615
65874SOL    HW1 4227  10.321   4.764   0.265 -2.0759  0.5960 -1.2706
65874SOL    HW2 4228  10.424   4.737   0.157  0.3226  0.7455  0.8709
65875SOL     OW 4229   2.856   5.718   3.126 -0.6728  0.3273 -0.5864
65875SOL    HW1 4230   2.832   5.806   3.154  1.2423  1.5691 -2.4665
65875SOL    HW2 4231   2.803   5.702   3.049 -0.1605  0.3616 -0.9515
65876SOL     OW 4232   9.378   6.379   1.847  0.1188  0.1124 -0.1360
65876SOL    HW1 4233   9.389   6.289   1.818 -0.0283  0.6743 -2.1103
65876SOL    HW2 4234   9.334   6.372   1.931  2.9361 -1.7353  1.3687
65877SOL     OW 4235   3.694   7.601   8.717  0.1262  0.0783 -0.6974
65877SOL    HW1 4236   3.665   7.684   8.678  3.5267  1.5559 -0.4103
65877SOL    HW2 4237   3.656   7.603   8.805  1.3033  2.1409 -0.1551
65878SOL     OW 4238   7.483   2.944   9.210  1.0487 -0.2656  0.5450
65878SOL    HW1 4239   7.402   2.899   9.187  0.2596 -0.6198  3.6549
65878SOL    HW2 4240   7.474   3.031   9.172 -1.1752 -0.0424  1.4603
65879SOL     OW 4241   7.786  11.155   5.814  0.1622  0.1346  0.3866
65879SOL    HW1 4242   7.793  11.239   5.861  2.7259  0.2545 -0.0524
65879SOL    HW2 4243   7.768  11.180   5.724  1.0275  0.2432  0.2363
65880SOL     OW 4244   0.179   1.118   6.828 -0.2295 -0.3676  0.0794
65880SOL    HW1 4245   0.203   1.204   6.863 -1.0505  0.0467 -0.3255
65880SOL    HW2 4246   0.200   1.057   6.898  0.2510  0.1808  0.4256
65881SOL     OW 4247  12.129   1.353   2.343 -0.2842 -0.4289 -0.0343
65881SOL    HW1 4248  12.035   1.343   2.328 -0.3286 -1.3008  0.7434
65881SOL    HW2 4249  12.160   1.265   2.361  0.7304 -0.1782 -0.4814
65882SOL     OW 4250   7.995   4.690  12.405  0.0260 -0.6612  0.6978
65882SOL    HW1 4251   7.927   4.730  12.350  2.0387  1.2226 -0.5992
65882SOL    HW2 4252   8.035   4.764  12.451 -0.0698 -1.9583  3.0180
65883SOL     OW 4253   1.232   6.509   1.023  0.0004  0.3221 -0.0971
65883SOL    HW1 4254   1.266   6.598   1.034  2.4766 -0.5059 -0.3926
65883SOL    HW2 4255   1.263   6.482   0.937 -0.3489 -0.9806  0.1638
65884SOL     OW 4256   5.535   8.622   8.413 -0.1846  0.1331 -0.8294
65884SOL    HW1 4257   5.482   8.620   8.333  1.7132 -0.4400 -2.1512
65884SOL    HW2 4258   5.591   8.699   8.403  0.5596 -0.3365 -0.4053
65885SOL     OW 4259  11.300  11.887  11.511 -0.0200 -0.3702  0.2900
65885SOL    HW1 4260  11.223  11.836  11.484  0.4411 -0.5846 -0.6605
65885SOL    HW2 4261  11.337  11.838  11.584  0.0904 -1.0872 -0.2453
65886SOL     OW 4262   0.894  10.118   5.697  0.4974  0.0011 -0.1906
65886SOL    HW1 4263   0.910  10.174   5.773 -2.2614 -0.6411  0.9835
65886SOL    HW2 4264   0.860  10.037   5.734 -0.6447 -0.4478 -2.1009
65887SOL     OW 4265  11.991  10.814   2.027  0.3410  0.4150  0.0628
65887SOL    HW1 4266  11.954  10.745   1.972 -0.5447  0.1405  0.9718
65887SOL    HW2 4267  11.935  10.890   2.012 -0.4036  0.1119  1.1465
65888SOL     OW 4268  10.199   1.207  12.701 -0.3085  0.0219  0.3708
65888SOL    HW1 4269  10.174   1.296  12.728  0.1092  0.1135  0.4501
65888SOL    HW2 4270  10.156   1.196  12.616 -1.4217 -0.1794  0.9321
65889SOL     OW 4271   6.295  11.218   0.084  0.6256  0.2532 -0.1225
65889SOL    HW1 4272   6.272  11.289   0.025  0.5538  0.4564  0.1492
65889SOL    HW2 4273   6.357  11.257   0.146  0.4915  0.1122  0.1027
65890SOL     OW 4274   2.317   7.377   7.043 -0.3245  0.0577  0.4568
65890SOL    HW1 4275   2.385   7.367   7.109 -0.2605 -0.5144  0.3127
65890SOL    HW2 4276   2.309   7.290   7.004  0.9280  0.7701 -1.5571
65891SOL     OW 4277  12.689   1.051   1.671 -0.9162  0.1869  0.1434
65891SOL    HW1 4278  12.652   1.139   1.665 -3.7340 -0.8519  0.8262
65891SOL    HW2 4279  12.614   0.995   1.693  0.5370 -2.5575 -1.3600
65892SOL     OW 4280  10.939   8.224   9.820 -0.3328  0.1681 -0.6509
65892SOL    HW1 4281  10.967   8.264   9.903  0.3462 -1.3141 -0.1311
65892SOL    HW2 4282  10.959   8.131   9.831 -0.8040 -0.1412 -2.2584
65893SOL     OW 4283   0.362   0.003  11.267 -0.0731  0.0816  0.4572
65893SOL    HW1 4284   0.324   0.053  11.339  0.9450  1.0657  0.3474
65893SOL    HW2 4285   0.405   0.069  11.213  0.7689 -0.8497 -0.0418
65894SOL     OW 4286   5.863   2.773   8.024 -0.2342 -0.0840 -0.8170
65894SOL    HW1 4287   5.813   2.797   7.947 -2.4549 -2.5472 -0.2586
65894SOL    HW2 4288   5.918   2.850   8.042 -0.7953  1.1459 -3.8562
65895SOL     OW 4289   0.194   8.243  12.454 -0.3079 -0.0700  0.1885
65895SOL    HW1 4290   0.143   8.167  12.480 -1.2398  0.7923  0.9651
65895SOL    HW2 4291   0.225   8.281  12.536  0.8203 -0.0482 -0.2277
65896SOL     OW 4292   3.480   4.125   1.931  0.1722 -0.0974 -0.5246
65896SOL    HW1 4293   3.519   4.196   1.983 -0.1140 -0.2832 -0.0536
65896SOL    HW2 4294   3.480   4.050   1.990  1.2506 -0.7320 -1.2901
65897SOL     OW 4295   1.636   3.780   7.083  0.1311 -0.5160  0.1636
65897SOL    HW1 4296   1.681   3.855   7.122  0.4851 -1.2093  1.1329
65897SOL    HW2 4297   1.669   3.705   7.132  0.1654 -1.3718 -1.1302
65898SOL     OW 4298   6.206   7.920   0.691  0.1448 -0.6344  0.4023
65898SOL    HW1 4299   6.279   7.858   0.689  0.1853 -0.6476  1.8076
65898SOL    HW2 4300   6.142   7.879   0.749 -0.2294  0.2024  0.5841
65899SOL     OW 4301   4.394   1.356   6.504  0.0869 -0.4609  0.0418
65899SOL    HW1 4302   4.435   1.412   6.570 -1.4450  1.1854 -0.3232
65899SOL    HW2 4303   4.399   1.406   6.423 -0.4290 -1.3020 -0.5283
65900SOL     OW 4304   1.929   3.214  12.235 -0.5434  0.2758 -0.4186
65900SOL    HW1 4305   1.953   3.125  12.261 -0.6639 -0.0252 -1.3273
65900SOL    HW2 4306   2.004   3.267  12.263  0.4070 -0.3982 -1.5884
65901SOL     OW 4307   8.474  12.225   9.377 -0.0087  0.2520  0.3279
65901SOL    HW1 4308   8.430  12.207   9.460 -1.0365 -2.0744 -0.6567
65901SOL    HW2 4309   8.552  12.169   9.379  0.7804  1.3135  0.3172
65902SOL     OW 4310   1.586   3.050   7.840 -0.5187  0.4416 -0.3388
65902SOL    HW1 4311   1.565   3.084   7.752  1.6594  0.8960 -0.7328
65902SOL    HW2 4312   1.583   3.128   7.896  0.7594  0.6635 -0.5463
65903SOL     OW 4313  11.896   9.758   4.072 -0.0036  0.0516 -0.3589
65903SOL    HW1 4314  11.830   9.821   4.042 -0.1248 -0.0187 -0.2446
65903SOL    HW2 4315  11.905   9.697   3.999  0.0608  0.1609 -0.4417
65904SOL     OW 4316   2.031   7.692   6.711 -0.4034 -0.1311 -0.1776
65904SOL    HW1 4317   2.059   7.714   6.623 -2.6353 -1.5643 -1.3401
65904SOL    HW2 4318   2.106   7.648   6.751  0.1479 -0.8223 -1.9072
65905SOL     OW 4319  10.355   0.740   5.875 -0.6802 -0.5933 -0.0037
65905SOL    HW1 4320  10.434   0.795   5.881  0.1076 -1.7370  0.7575
65905SOL    HW2 4321  10.388   0.654   5.847 -1.6281 -1.1283  0.4572
65906SOL     OW 4322  11.772   9.666  11.992 -0.0007 -0.6297  0.8068
65906SOL    HW1 4323  11.708   9.694  12.058 -0.3403 -0.0316  0.2481
65906SOL    HW2 4324  11.757   9.573  11.981 -1.6149 -0.3012 -0.1579
65907SOL     OW 4325  10.970   7.289   2.907  0.3171  0.2425  0.2638
65907SOL    HW1 4326  10.948   7.380   2.928  0.8915  0.3679  0.3274
65907SOL    HW2 4327  11.063   7.281   2.929  0.7445  0.1497 -1.4467
65908SOL     OW 4328   7.672   5.504   5.100 -0.1671 -0.3622  0.2416
65908SOL    HW1 4329   7.615   5.565   5.053  0.6041 -0.5307 -0.9578
65908SOL    HW2 4330   7.687   5.433   5.038  0.8303 -0.6267  0.7692
65909SOL     OW 4331  10.629   9.485   4.041 -0.0110 -0.3312 -0.2005
65909SOL    HW1 4332  10.578   9.506   3.963 -1.9411 -1.5774  0.6385
65909SOL    HW2 4333  10.574   9.514   4.114  0.1489 -2.2818  0.7648
65910SOL     OW 4334   5.097  10.811   3.001  0.3589 -0.1958  0.5155
65910SOL    HW1 4335   5.055  10.815   2.915 -0.8654  0.7329  1.1287
65910SOL    HW2 4336   5.185  10.847   2.987 -0.6958  2.4163  0.1303
65911SOL     OW 4337   1.844   8.678   4.285  0.0166 -0.2790 -0.4291
65911SOL    HW1 4338   1.850   8.653   4.377 -0.2168 -1.0287 -0.6126
65911SOL    HW2 4339   1.752   8.700   4.272 -0.0403 -0.6031 -0.5882
65912SOL     OW 4340  11.778   5.487   3.749  0.1994  0.2121  0.0451
65912SOL    HW1 4341  11.784   5.463   3.656 -2.1704 -0.1576 -0.0933
65912SOL    HW2 4342  11.830   5.421   3.794  3.2502  1.6600 -1.0895
65913SOL     OW 4343  10.493  11.452   5.774  0.2417  0.0474  0.2069
65913SOL    HW1 4344  10.571  11.489   5.734  0.6509 -1.6209 -0.5964
65913SOL    HW2 4345  10.522  11.420   5.859 -0.2924  2.1815  1.2795
65914SOL     OW 4346   5.493  12.521   6.814 -0.3589 -0.0626 -0.4256
65914SOL    HW1 4347   5.445  12.534   6.896 -1.0036 -0.6429 -0.7076
65914SOL    HW2 4348   5.445  12.572   6.750 -0.2765 -0.2033 -0.5992
65915SOL     OW 4349   4.922  12.225   8.961  0.6559 -0.2343  0.5244
65915SOL    HW1 4350   4.891  12.151   8.909 -1.9890  1.2806 -0.1934
65915SOL    HW2 4351   4.984  12.186   9.023  0.6864 -2.7414 -0.9497
65916SOL     OW 4352   2.978   6.225   3.559 -0.2226  0.2610  0.7979
65916SOL    HW1 4353   3.054   6.170   3.544 -0.7613  0.2361 -2.9294
65916SOL    HW2 4354   2.918   6.171   3.610  0.6811 -1.2724  0.3007
65917SOL     OW 4355   3.237   0.453   8.097 -0.3811 -0.1756 -0.1308
65917SOL    HW1 4356   3.156   0.466   8.146 -0.7993  0.9787 -1.0949
65917SOL    HW2 4357   3.262   0.362   8.116 -3.2915 -1.4599 -1.8784
65918SOL     OW 4358   4.717   0.378   2.591  0.3894 -0.8506 -0.0115
65918SOL    HW1 4359   4.642   0.387   2.650 -0.3359  0.2281 -1.0603
65918SOL    HW2 4360   4.785   0.433   2.630 -0.3715  0.5606 -0.5643
65919SOL     OW 4361   7.914   0.697   3.337  0.5309  0.1545 -0.1050
65919SOL    HW1 4362   7.970   0.710   3.261  0.3963 -1.3306 -0.4884
65919SOL    HW2 4363   7.825   0.699   3.303  0.4038  0.8794  0.2476
65920SOL     OW 4364   8.790   5.569  11.720 -0.4734 -0.3383  0.1295
65920SOL    HW1 4365   8.695   5.582  11.729 -0.8826 -1.0021 -2.3821
65920SOL    HW2 4366   8.799   5.474  11.711  0.5682 -0.3665  1.2937
65921SOL     OW 4367   2.626   2.302   1.736  0.8508 -0.0708  0.2181
65921SOL    HW1 4368   2.627   2.294   1.641  0.0867 -0.0252  0.2013
65921SOL    HW2 4369   2.719   2.302   1.761  1.0394 -2.2083 -0.3307
65922SOL     OW 4370   6.485  11.369   0.710 -0.3460 -0.2747  0.2065
65922SOL    HW1 4371   6.479  11.464   0.720  0.9395 -0.1223 -0.2655
65922SOL    HW2 4372   6.463  11.334   0.796 -0.2592  0.4784  0.5400
65923SOL     OW 4373  12.497   3.852  11.249  0.4358  0.1576  0.4691
65923SOL    HW1 4374  12.432   3.788  11.280  0.8354 -0.3225  0.3259
65923SOL    HW2 4375  12.576   3.832  11.298  0.6251  0.4134  0.2704
65924SOL     OW 4376   7.790   3.050   0.472  0.3171  0.4037 -0.3270
65924SOL    HW1 4377   7.700   3.056   0.504  0.0065 -1.4337 -0.7772
65924SOL    HW2 4378   7.785   3.077   0.380 -0.1643 -1.6136 -0.9254
65925SOL     OW 4379   6.079  10.221   4.974 -0.3673 -0.8063 -0.2377
65925SOL    HW1 4380   6.062  10.256   5.062 -1.0799  0.5402 -0.8719
65925SOL    HW2 4381   6.003  10.167   4.955 -1.1586  0.4496 -0.7545
65926SOL     OW 4382   8.411   5.888   3.158  0.1569 -0.2773 -0.0481
65926SOL    HW1 4383   8.376   5.803   3.189 -0.7111 -0.0105 -0.2574
65926SOL    HW2 4384   8.478   5.864   3.094 -0.8287 -0.8180 -0.9129
65927SOL     OW 4385   3.274   4.569   1.385 -0.2756 -0.9059 -0.0828
65927SOL    HW1 4386   3.274   4.587   1.291 -1.6587 -0.4733 -0.0209
65927SOL    HW2 4387   3.351   4.515   1.399 -0.0001 -0.9007 -1.4516
65928SOL     OW 4388   6.494   6.497   5.682  0.5001 -0.2182  0.5883
65928SOL    HW1 4389   6.569   6.556   5.695 -0.0813  0.4142  1.2171
65928SOL    HW2 4390   6.418   6.554   5.694 -0.0780 -0.8239 -0.1829
65929SOL     OW 4391   9.836   7.864   4.621  0.4128 -0.2002  0.1617
65929SOL    HW1 4392   9.867   7.827   4.538 -0.7555 -0.7365 -0.0507
65929SOL    HW2 4393   9.796   7.790   4.667  1.6261 -0.0604  1.5158
65930SOL     OW 4394   2.446   0.657   2.403  0.5312 -0.4416  0.0124
65930SOL    HW1 4395   2.522   0.626   2.452  1.0135 -0.4108 -0.6913
65930SOL    HW2 4396   2.372   0.609   2.440  0.9688 -0.8471  0.3752
65931SOL     OW 4397   8.022   7.117  10.494  0.3608 -0.0836  0.0761
65931SOL    HW1 4398   7.959   7.074  10.552 -0.3606  1.0068  0.1226
65931SOL    HW2 4399   8.024   7.208  10.525  1.2251  0.1159 -0.5512
65932SOL     OW 4400   9.409   1.063  10.763 -0.1107  0.0677  0.5221
65932SOL    HW1 4401   9.500   1.033  10.773 -0.1170  0.4550  2.0561
65932SOL    HW2 4402   9.361   1.016  10.831 -0.6524  1.3674  1.0817
65933SOL     OW 4403  11.091   7.447  11.656 -0.7241 -0.2572  0.0189
65933SOL    HW1 4404  11.031   7.394  11.708  0.9253 -1.8527  0.3947
65933SOL    HW2 4405  11.137   7.501  11.720 -1.5902  0.8353 -0.2506
65934SOL     OW 4406   1.750  11.012   2.254  0.4960 -0.4198 -0.1944
65934SOL    HW1 4407   1.828  10.962   2.232  0.7308 -0.4061  0.5683
65934SOL    HW2 4408   1.677  10.961   2.218  0.8340 -0.5646 -0.6801
65935SOL     OW 4409   0.469   9.398   6.517  0.6054 -0.0800 -0.2243
65935SOL    HW1 4410   0.507   9.314   6.490 -0.4597 -0.2714 -1.2181
65935SOL    HW2 4411   0.539   9.462   6.501  1.4368 -0.7638  0.5675
65936SOL     OW 4412   0.974   5.329   3.474  0.0748  0.0226  0.2039
65936SOL    HW1 4413   0.976   5.271   3.398 -0.3692 -0.2785  0.4185
65936SOL    HW2 4414   1.048   5.389   3.460  0.9192 -0.9608  0.2714
65937SOL     OW 4415  11.541   8.816   3.560 -0.2373 -0.8033 -0.2379
65937SOL    HW1 4416  11.485   8.748   3.521 -0.3728 -0.7465 -0.1431
65937SOL    HW2 4417  11.574   8.776   3.641  1.1659 -1.4548 -1.0832
65938SOL     OW 4418   1.417  10.301   6.219  0.4289  0.5903 -0.4373
65938SOL    HW1 4419   1.476  10.376   6.222 -0.6407  1.5033 -1.4468
65938SOL    HW2 4420   1.470  10.231   6.179  1.2867  0.9356  0.0696
65939SOL     OW 4421   4.343   3.169  11.328 -0.1435  0.1825  0.0693
65939SOL    HW1 4422   4.253   3.175  11.297 -0.4966  2.8066  1.3165
65939SOL    HW2 4423   4.388   3.119  11.260 -2.2626 -0.2172 -1.1596
65940SOL     OW 4424   1.125   1.810   3.896  0.2870  0.0223 -0.2216
65940SOL    HW1 4425   1.141   1.717   3.883  1.4924  0.3513 -1.3237
65940SOL    HW2 4426   1.030   1.819   3.896  0.1668 -1.1917 -0.1298
65941SOL     OW 4427   8.220  12.121   0.457  0.0766 -0.1965 -0.4790
65941SOL    HW1 4428   8.255  12.036   0.430 -1.1914 -1.1923  0.8325
65941SOL    HW2 4429   8.229  12.121   0.553 -1.7175  0.2993 -0.2839
65942SOL     OW 4430   6.126   6.084   7.508 -0.0420 -0.4621  0.1475
65942SOL    HW1 4431   6.124   6.179   7.519 -0.6559 -0.4556  0.0572
65942SOL    HW2 4432   6.213   6.065   7.476 -0.3536  0.2277 -1.1806
65943SOL     OW 4433  11.277   2.638  11.380  0.3201  0.1667 -0.0091
65943SOL    HW1 4434  11.251   2.560  11.332  2.2909  0.1526 -1.1862
65943SOL    HW2 4435  11.221   2.708  11.346  0.5155 -0.1915 -1.1086
65944SOL     OW 4436   2.592   7.945   8.414  0.1083 -0.0308 -0.5704
65944SOL    HW1 4437   2.629   8.019   8.463 -0.8693  0.6987 -0.8900
65944SOL    HW2 4438   2.507   7.977   8.384  0.4355 -0.6393 -2.2637
65945SOL     OW 4439  11.466   8.418   4.621  0.1160  0.3727 -0.8334
65945SOL    HW1 4440  11.391   8.453   4.668  0.1435 -0.5781 -0.0347
65945SOL    HW2 4441  11.491   8.486   4.559  0.9836  2.3293  1.4918
65946SOL     OW 4442   0.718   3.811  10.634  0.0430  0.1303  0.0174
65946SOL    HW1 4443   0.736   3.766  10.716  1.4264  0.2300 -0.1984
65946SOL    HW2 4444   0.657   3.754  10.588  0.9237 -1.0021  0.2039
65947SOL     OW 4445   8.844  12.344   4.538 -0.3835 -0.1189 -0.2618
65947SOL    HW1 4446   8.766  12.300   4.505 -0.3622  0.1247 -0.6427
65947SOL    HW2 4447   8.900  12.274   4.572 -0.1449 -0.4375 -1.2811
65948SOL     OW 4448   4.041   2.292   2.435  0.1023  0.3118 -0.7172
65948SOL    HW1 4449   4.005   2.310   2.522  1.7908  1.6807 -0.2495
65948SOL    HW2 4450   4.019   2.200   2.419 -0.1751 -0.0041  1.1952
65949SOL     OW 4451   3.920  10.170   6.494 -0.3133  0.3014  1.0467
65949SOL    HW1 4452   3.829  10.169   6.522 -0.2908  0.3301  1.1210
65949SOL    HW2 4453   3.919  10.132   6.406 -0.1763 -1.2561  1.6865
65950SOL     OW 4454   1.234  10.197   2.559  0.1802 -1.2000  0.7922
65950SOL    HW1 4455   1.225  10.282   2.516  0.5871 -1.0241  1.0578
65950SOL    HW2 4456   1.230  10.134   2.486  0.0261 -0.9525  0.5815
65951SOL     OW 4457  11.118   8.148  12.132 -0.0910  0.1100  0.4467
65951SOL    HW1 4458  11.058   8.074  12.143  1.1261 -1.2689 -1.5406
65951SOL    HW2 4459  11.198   8.120  12.178 -0.5444  1.5033  2.2061
65952SOL     OW 4460   3.729   4.200   0.976  0.6609 -0.3942 -0.0131
65952SOL    HW1 4461   3.653   4.252   1.004  0.9483 -0.1669  0.3526
65952SOL    HW2 4462   3.751   4.234   0.890  0.5727 -0.2146  0.0347
65953SOL     OW 4463   5.606   1.904  11.647 -0.0903  0.1182 -0.1811
65953SOL    HW1 4464   5.597   1.892  11.742  1.4241 -1.4311 -0.1882
65953SOL    HW2 4465   5.598   1.999  11.634  1.4981  0.5926  1.7404
65954SOL     OW 4466   8.368   2.890   4.660  0.2775  0.0800  0.8360
65954SOL    HW1 4467   8.285   2.908   4.617  1.4040 -1.7375 -2.4578
65954SOL    HW2 4468   8.412   2.975   4.665  0.0187  0.4321 -1.6499
65955SOL     OW 4469   0.552  10.558   4.501 -0.0918  0.1168 -0.3625
65955SOL    HW1 4470   0.605  10.479   4.490 -0.3062 -0.2240  0.8637
65955SOL    HW2 4471   0.567  10.609   4.421 -0.9299 -1.7312 -1.7788
65956SOL     OW 4472   2.316  11.964   4.536  0.0369  0.4574  0.0682
65956SOL    HW1 4473   2.357  12.037   4.490  0.6574  0.6135  0.8551
65956SOL    HW2 4474   2.229  11.956   4.496  0.8254  0.0850 -1.6920
65957SOL     OW 4475   4.258  10.477   8.141 -0.1070 -0.6267  0.4376
65957SOL    HW1 4476   4.238  10.470   8.234 -2.0156  0.8531  0.1814
65957SOL    HW2 4477   4.236  10.390   8.105  0.0689 -1.0118  1.2384
65958SOL     OW 4478   9.785  11.481   7.151  0.0473  0.9313 -0.1206
65958SOL    HW1 4479   9.691  11.492   7.135  0.2441  1.5994 -0.8675
65958SOL    HW2 4480   9.826  11.495   7.066  0.7861 -0.0807  0.0456
65959SOL     OW 4481   5.682   1.713  12.446  0.4834 -0.1552 -0.2655
65959SOL    HW1 4482   5.657   1.761  12.368  2.6697 -1.7961 -2.1149
65959SOL    HW2 4483   5.646   1.764  12.519  0.0295  2.4852 -2.2078
65960SOL     OW 4484  12.026   9.666   0.010 -0.6713 -0.7167 -0.7644
65960SOL    HW1 4485  12.105   9.717  -0.009  0.2163 -1.8042 -0.1132
65960SOL    HW2 4486  11.985   9.651  -0.075 -0.1834 -0.1406 -1.1046
65961SOL     OW 4487   3.827   4.576  11.593 -0.3222  0.3129 -0.5135
65961SOL    HW1 4488   3.869   4.662  11.591 -0.0032  0.1522 -0.9644
65961SOL    HW2 4489   3.841   4.540  11.505  1.6715 -1.2081  0.3399
65962SOL     OW 4490  10.317   0.727   8.239 -0.4630  0.4043 -0.3599
65962SOL    HW1 4491  10.237   0.742   8.289 -0.4276  0.7628 -0.4071
65962SOL    HW2 4492  10.359   0.813   8.233 -0.7664  0.4989 -1.5063
65963SOL     OW 4493   7.509   7.801   4.452 -0.1465  0.2284  0.2353
65963SOL    HW1 4494   7.592   7.838   4.481 -1.2459  2.6332  0.5738
65963SOL    HW2 4495   7.477   7.863   4.386 -1.4404 -0.9175 -0.2620
65964SOL     OW 4496   8.172   5.128   3.150  0.1420 -0.1244 -0.1870
65964SOL    HW1 4497   8.175   5.063   3.220  0.7000 -0.7945 -0.8123
65964SOL    HW2 4498   8.219   5.087   3.078 -0.5327  0.5052 -1.0002
65965SOL     OW 4499   2.602   1.009   8.551  0.2947  0.0840 -0.3181
65965SOL    HW1 4500   2.621   0.990   8.459 -0.2373 -0.5113 -0.3092
65965SOL    HW2 4501   2.560   1.095   8.549  0.3488  0.1057 -0.6222
65966SOL     OW 4502   8.585   0.310   7.797  0.4274  0.0646  0.1595
65966SOL    HW1 4503   8.569   0.216   7.798  1.1762 -0.1281  3.1134
65966SOL    HW2 4504   8.505   0.348   7.761 -0.8734 -1.5938  1.1492
65967SOL     OW 4505  10.893   8.324  10.709  0.5074  0.3445 -0.1342
65967SOL    HW1 4506  10.869   8.231  10.708 -0.1283  0.4361  2.0898
65967SOL    HW2 4507  10.979   8.327  10.667  0.9598 -1.3963  0.5946
65968SOL     OW 4508   8.514   9.174   6.617  0.0866  0.4176  0.5137
65968SOL    HW1 4509   8.479   9.109   6.556  0.4663 -1.7057  2.3965
65968SOL    HW2 4510   8.438   9.202   6.669  0.2226  0.0412  0.9248
65969SOL     OW 4511   3.245   9.430  11.581 -0.3550  0.0911 -0.1322
65969SOL    HW1 4512   3.281   9.464  11.499  0.0370 -0.0588 -0.0281
65969SOL    HW2 4513   3.322   9.407  11.633 -0.5262 -2.7114 -0.9260
65970SOL     OW 4514   0.957   2.531   8.536  0.5022 -0.3372 -0.3670
65970SOL    HW1 4515   0.897   2.468   8.496  0.3286 -0.6624  0.4032
65970SOL    HW2 4516   0.966   2.600   8.470  0.9241 -1.2984 -1.3378
65971SOL     OW 4517   8.449  12.573   4.927  0.1211  0.2436 -0.2154
65971SOL    HW1 4518   8.399  12.654   4.921  0.0876  0.2593  0.2432
65971SOL    HW2 4519   8.502  12.572   4.847 -1.7971 -0.5986 -1.5433
65972SOL     OW 4520   0.699   7.130   8.022  0.6812  0.2388  0.1143
65972SOL    HW1 4521   0.659   7.108   7.938  0.8008 -1.4101  0.4682
65972SOL    HW2 4522   0.639   7.194   8.060 -0.4670 -0.5408 -0.3319
65973SOL     OW 4523   3.864  11.237   5.375  0.4404 -0.2758 -0.1303
65973SOL    HW1 4524   3.785  11.264   5.422  0.6830 -2.3152  1.6484
65973SOL    HW2 4525   3.831  11.192   5.297 -0.1564 -0.5011  0.2408
65974SOL     OW 4526   0.306  12.372   9.837  0.1865 -0.3196 -0.6262
65974SOL    HW1 4527   0.232  12.354   9.779 -0.9844 -0.1960  0.8000
65974SOL    HW2 4528   0.268  12.418   9.912  1.6627 -0.5380  0.2935
65975SOL     OW 4529   2.184   1.333   7.858 -0.7263  0.1128  0.3720
65975SOL    HW1 4530   2.226   1.290   7.784  1.5484  1.6649  0.6646
65975SOL    HW2 4531   2.243   1.317   7.932 -2.1619 -0.0856  1.5134
65976SOL     OW 4532   3.934  11.480   7.988  0.1978  0.2714 -0.6881
65976SOL    HW1 4533   3.912  11.448   7.901  1.6529  2.5017 -1.9759
65976SOL    HW2 4534   4.024  11.512   7.980 -0.5111  3.0415  0.8547
65977SOL     OW 4535   6.298  11.463   6.028  0.0480 -0.3901 -0.4530
65977SOL    HW1 4536   6.208  11.483   6.003 -1.1404 -2.5443  1.6649
65977SOL    HW2 4537   6.339  11.435   5.946 -0.7105  1.9503 -1.7314
65978SOL     OW 4538   3.521   2.296  11.145  0.6629  0.2158 -0.1114
65978SOL    HW1 4539   3.540   2.388  11.125  2.9617  0.0348  0.9459
65978SOL    HW2 4540   3.470   2.300  11.226  1.9684  0.5421  0.7182
65979SOL     OW 4541   4.590  10.870   1.741  0.5459  0.3123  0.1771
65979SOL    HW1 4542   4.626  10.951   1.705 -0.9518  0.4186 -1.1725
65979SOL    HW2 4543   4.536  10.898   1.815 -0.6700  0.6597 -0.8223
65980SOL     OW 4544   4.811  10.096   0.472 -0.2986 -0.6182  0.3305
65980SOL    HW1 4545   4.812  10.166   0.537 -2.1057 -0.8613  0.6918
65980SOL    HW2 4546   4.743  10.036   0.502  0.1860 -1.7642 -0.7564
65981SOL     OW 4547   5.092   6.840   5.354  0.3937 -0.2764  0.0030
65981SOL    HW1 4548   5.187   6.847   5.354  0.4265 -0.6818  0.2854
65981SOL    HW2 4549   5.075   6.747   5.370 -0.0615 -0.0781  0.7116
65982SOL     OW 4550   1.996  11.165   8.492 -0.3668 -0.1500 -0.6048
65982SOL    HW1 4551   1.944  11.144   8.415 -1.2963 -0.3122  0.0519
65982SOL    HW2 4552   1.939  11.219   8.546 -0.0275 -0.7214  0.3521
65983SOL     OW 4553  11.704  12.136  10.345 -0.0685  0.3453 -0.3850
65983SOL    HW1 4554  11.638  12.103  10.406 -1.6589  1.4570 -1.4462
65983SOL    HW2 4555  11.719  12.063  10.285 -0.5507  0.1817 -0.3096
65984SOL     OW 4556   8.612   5.411   4.918  0.0729 -0.1416  0.4336
65984SOL    HW1 4557   8.674   5.391   4.848  0.6165  2.3342  0.1318
65984SOL    HW2 4558   8.526   5.411   4.875  0.1724 -0.6732  0.2285
65985SOL     OW 4559  10.821   4.130   0.395  0.6324  0.5220 -0.3491
65985SOL    HW1 4560  10.907   4.141   0.436  0.7631 -0.8106 -0.1940
65985SOL    HW2 4561  10.836   4.067   0.325 -0.4279 -0.7221  0.4814
65986SOL     OW 4562   5.498  10.549   9.707 -0.1037 -0.4830  0.4936
65986SOL    HW1 4563   5.427  10.494   9.675 -1.4067  1.0020  0.7222
65986SOL    HW2 4564   5.454  10.625   9.744  1.6562  2.5280 -3.0075
65987SOL     OW 4565   7.835   2.520   4.678 -0.2087 -0.3484  0.0260
65987SOL    HW1 4566   7.763   2.526   4.740 -0.4427 -0.5816 -0.2224
65987SOL    HW2 4567   7.845   2.609   4.644  0.5461  0.0079  1.0890
65988SOL     OW 4568   6.161  12.228  11.211 -0.2664  0.3422  0.0171
65988SOL    HW1 4569   6.067  12.245  11.203 -0.2022  0.1719 -1.1682
65988SOL    HW2 4570   6.174  12.214  11.305 -1.7344 -1.3371  0.0227
65989SOL     OW 4571   3.773   7.083  11.857  0.4866 -0.4022  0.2503
65989SOL    HW1 4572   3.766   7.135  11.777  1.6407 -0.2328  0.2348
65989SOL    HW2 4573   3.839   7.016  11.835  0.9851 -0.2066  1.1243
65990SOL     OW 4574   8.816   6.891   9.816 -0.5917  0.4476 -0.7455
65990SOL    HW1 4575   8.894   6.944   9.836 -0.6386  0.5886 -0.9330
65990SOL    HW2 4576   8.752   6.917   9.882 -1.0936  1.6564 -1.6549
65991SOL     OW 4577   7.261   4.841   8.436 -0.2540  0.2087 -0.0877
65991SOL    HW1 4578   7.269   4.893   8.516  0.8023 -1.5340  1.0368
65991SOL    HW2 4579   7.348   4.804   8.424 -0.7228 -0.5320 -1.3591
65992SOL     OW 4580   2.917   7.343   6.427 -0.0161  0.1789 -0.0064
65992SOL    HW1 4581   3.004   7.303   6.417  0.3188  1.2870 -2.1955
65992SOL    HW2 4582   2.895   7.374   6.339 -3.3375 -1.4197  0.1078
65993SOL     OW 4583   2.262  12.762   3.022  0.0676  0.2888  0.3328
65993SOL    HW1 4584   2.313  12.734   2.946 -0.4957 -1.8051  0.6644
65993SOL    HW2 4585   2.294  12.850   3.041  0.6040  0.6764 -1.9850
65994SOL     OW 4586   3.325   5.860   9.312 -0.4654 -0.5248 -0.3114
65994SOL    HW1 4587   3.258   5.925   9.289 -1.4621 -1.2528  0.3986
65994SOL    HW2 4588   3.335   5.808   9.232  0.1602  0.3333 -0.8068
65995SOL     OW 4589   8.519  12.024   7.117  0.3519  0.3817  0.2619
65995SOL    HW1 4590   8.583  11.980   7.061 -2.0411 -0.7081 -1.8080
65995SOL    HW2 4591   8.572  12.078   7.176  3.1677 -0.9851 -0.8280
65996SOL     OW 4592   3.577   4.838   9.021 -0.0475  0.0111 -0.1434
65996SOL    HW1 4593   3.549   4.764   8.966  1.9135 -0.2836 -0.8301
65996SOL    HW2 4594   3.628   4.893   8.962  0.5793  0.6446  0.9661
65997SOL     OW 4595   1.079   4.819  11.716  0.2095 -0.2241  0.7073
65997SOL    HW1 4596   1.152   4.807  11.777  1.8148 -0.5139 -1.1756
65997SOL    HW2 4597   1.085   4.910  11.689 -1.9739  0.6081  2.6756
65998SOL     OW 4598   4.892   7.447   3.766  0.1881  0.3550 -0.1547
65998SOL    HW1 4599   4.934   7.476   3.846  3.5479  2.3984 -2.4181
65998SOL    HW2 4600   4.903   7.351   3.767 -0.8641  0.1888  2.2151
65999SOL     OW 4601  11.469   9.812  11.825  0.2697  0.3765  0.5651
65999SOL    HW1 4602  11.478   9.723  11.859 -1.9691 -0.5160 -0.9241
65999SOL    HW2 4603  11.402   9.852  11.882 -0.0155  0.4875  0.1600
66000SOL     OW 4604   2.867   5.876  11.480 -0.5168 -0.6232  0.0565
66000SOL    HW1 4605   2.801   5.938  11.510 -0.6403 -0.5877 -0.2806
66000SOL    HW2 4606   2.844   5.859  11.388  0.5278  0.1810 -0.3787
66001SOL     OW 4607  10.390   7.018   4.352  0.3276  0.2851 -0.2545
66001SOL    HW1 4608  10.401   7.083   4.283 -3.1044  1.3014 -0.0054
66001SOL    HW2 4609  10.363   7.068   4.429 -0.9466 -1.2375  0.3547
66002SOL     OW 4610  10.026   0.843   8.442 -0.1344 -0.8360  0.0906
66002SOL    HW1 4611  10.056   0.882   8.360 -1.5449 -0.3463 -0.2059
66002SOL    HW2 4612  10.041   0.910   8.508 -2.1513  0.0948 -0.3467
66003SOL     OW 4613   0.122   0.016   6.864 -0.0406  0.6047  0.0542
66003SOL    HW1 4614   0.075  -0.011   6.785 -1.2192  1.7289  0.3305
66003SOL    HW2 4615   0.214  -0.006   6.846 -0.3232  0.5825 -1.5166
66004SOL     OW 4616   8.496   9.293   0.726  0.0722 -0.2920  0.1462
66004SOL    HW1 4617   8.514   9.333   0.811  1.3535 -2.0562  0.7790
66004SOL    HW2 4618   8.575   9.243   0.706  0.1806  0.8100 -2.5630
66005SOL     OW 4619  12.451   2.894   1.947  0.0674 -0.1483  0.0475
66005SOL    HW1 4620  12.529   2.838   1.952  1.2003  1.4474  1.0977
66005SOL    HW2 4621  12.465   2.949   1.870 -0.3525 -0.3176 -0.1524
66006SOL     OW 4622   6.623   6.301  10.139  0.0796  0.5941  0.2676
66006SOL    HW1 4623   6.630   6.208  10.115 -2.8238  0.6808 -1.4369
66006SOL    HW2 4624   6.712   6.335  10.126  1.3812 -1.9953  1.5081
66007SOL     OW 4625   4.249  11.468  10.554  0.4711  0.3722 -0.5395
66007SOL    HW1 4626   4.274  11.453  10.462 -0.4901  0.8007 -0.8850
66007SOL    HW2 4627   4.329  11.451  10.603  1.2521  0.9841 -1.5382
66008SOL     OW 4628  11.081   2.354  10.442  0.1164  0.4035  0.0320
66008SOL    HW1 4629  11.128   2.338  10.361 -0.0043  0.4586 -0.0475
66008SOL    HW2 4630  11.076   2.449  10.449  0.2664  0.4015  0.1845
66009SOL     OW 4631   5.584   6.355   3.349  0.1723  0.0381  0.1666
66009SOL    HW1 4632   5.591   6.335   3.443 -1.3541 -2.6062 -0.1731
66009SOL    HW2 4633   5.674   6.370   3.321  1.3414 -3.7961  1.2565
66010SOL     OW 4634   5.780   1.655   7.584 -0.3284 -0.4905 -0.3411
66010SOL    HW1 4635   5.857   1.599   7.572  0.6764  1.1124 -1.8420
66010SOL    HW2 4636   5.723   1.633   7.511 -0.0131  0.2888 -0.8285
66011SOL     OW 4637   4.604  11.417   4.582  0.1462 -0.2474 -0.0486
66011SOL    HW1 4638   4.575  11.342   4.531  0.8171 -0.7461  0.2912
66011SOL    HW2 4639   4.635  11.480   4.517 -0.1709 -0.3703 -0.3213
66012SOL     OW 4640   1.692   4.034   1.261 -0.9973 -0.3399 -0.1509
66012SOL    HW1 4641   1.746   3.967   1.304 -2.1538 -0.9702  0.3443
66012SOL    HW2 4642   1.602   4.003   1.271 -1.3783 -0.0781 -2.3287
66013SOL     OW 4643  12.500   1.393   0.493 -0.0177  0.4423  0.5822
66013SOL    HW1 4644  12.594   1.397   0.505  0.0587 -0.5311  0.4351
66013SOL    HW2 4645  12.465   1.379   0.581 -0.1569  2.3190  0.8564
66014SOL     OW 4646   6.668  12.471  12.248  0.2156  0.0714 -0.3364
66014SOL    HW1 4647   6.736  12.428  12.197  0.3271 -1.6380  1.1575
66014SOL    HW2 4648   6.715  12.516  12.318 -0.0581  0.8394 -0.6324
66015SOL     OW 4649   4.573   4.906   3.076 -0.7639  0.0489  0.9474
66015SOL    HW1 4650   4.517   4.981   3.055 -0.6208 -0.2265 -0.4861
66015SOL    HW2 4651   4.662   4.936   3.060 -0.2471  0.9182  4.4670
66016SOL     OW 4652  10.574  12.251  12.357  0.1315 -0.3542  0.2769
66016SOL    HW1 4653  10.564  12.294  12.442  0.4563 -0.0925  0.1846
66016SOL    HW2 4654  10.596  12.321  12.297 -1.4412 -0.3260 -0.3034
66017SOL     OW 4655   5.374   5.879  11.293  0.2571 -0.6182  0.0214
66017SOL    HW1 4656   5.295   5.824  11.291  0.5147 -1.0293  0.9979
66017SOL    HW2 4657   5.365   5.931  11.373 -0.6031  1.7305 -1.4690
66018SOL     OW 4658   6.121   0.544   4.291  0.1816 -0.1666 -1.2395
66018SOL    HW1 4659   6.058   0.519   4.359  1.0552  0.2941 -0.2346
66018SOL    HW2 4660   6.178   0.467   4.282  2.5160  1.0665  1.4458
66019SOL     OW 4661   7.391   8.094   0.923  0.3717 -0.4615  0.3913
66019SOL    HW1 4662   7.411   8.002   0.902  0.9947 -0.3111  0.3157
66019SOL    HW2 4663   7.466   8.124   0.974  0.5026  0.2142 -0.1864
66020SOL     OW 4664  11.334   6.596   5.285 -0.3069 -0.3228 -0.4122
66020SOL    HW1 4665  11.309   6.662   5.349 -0.8893 -0.5710 -0.3741
66020SOL    HW2 4666  11.426   6.580   5.302 -0.0261  0.8362 -0.7454
66021SOL     OW 4667   0.995   7.814   1.704  1.0219 -0.7808  0.0242
66021SOL    HW1 4668   0.990   7.894   1.757 -2.8767 -0.3761 -0.6429
66021SOL    HW2 4669   1.023   7.746   1.765  0.3256  0.3492  1.6671
66022SOL     OW 4670  11.973   5.860   7.642  0.1243  0.1663  0.3002
66022SOL    HW1 4671  11.979   5.905   7.727  0.1506  0.8919 -0.0781
66022SOL    HW2 4672  11.960   5.931   7.579  1.2312 -0.2597 -0.4351
66023SOL     OW 4673   3.316   3.809   4.063  0.5203 -0.1341 -0.2393
66023SOL    HW1 4674   3.352   3.792   4.150  0.5347 -0.0873 -0.2360
66023SOL    HW2 4675   3.392   3.800   4.004  0.3533 -0.9637 -0.3380
66024SOL     OW 4676   0.500   5.237  12.319  0.1550  0.3376 -0.1226
66024SOL    HW1 4677   0.588   5.253  12.286  0.4011  0.0700  0.4115
66024SOL    HW2 4678   0.467   5.165  12.265  0.6138 -0.2029  0.3148
66025SOL     OW 4679   4.592   5.994   6.827 -0.2523  0.2126 -0.1474
66025SOL    HW1 4680   4.580   5.964   6.917 -0.9895  0.5619 -0.1238
66025SOL    HW2 4681   4.642   5.923   6.785  0.7465  0.3780  0.7152
66026SOL     OW 4682  11.751   9.767   1.752  0.0414  0.3177  0.3073
66026SOL    HW1 4683  11.661   9.733   1.754  0.5531 -1.1174  0.4525
66026SOL    HW2 4684  11.780   9.751   1.662  0.2788  0.4158  0.3675
66027SOL     OW 4685   6.539  12.459   5.633  0.1653  0.4169 -0.1211
66027SOL    HW1 4686   6.444  12.466   5.635  0.1003  2.3210 -3.1592
66027SOL    HW2 4687   6.555  12.371   5.597 -0.4441  0.2719 -0.0585
66028SOL     OW 4688   0.288   4.370   1.820 -0.0283 -0.9620  0.1962
66028SOL    HW1 4689   0.287   4.357   1.725 -1.1516 -0.5166  0.1276
66028SOL    HW2 4690   0.368   4.419   1.837  2.5798 -4.7575  0.0603
66029SOL     OW 4691  12.050   0.789   7.563  0.5578  0.0529  0.1901
66029SOL    HW1 4692  12.019   0.699   7.574  1.6993 -0.1472  2.2817
66029SOL    HW2 4693  12.139   0.780   7.529  0.3896  0.4454 -0.3799
66030SOL     OW 4694   3.923   7.618   2.834  0.2106  0.4670 -0.5686
66030SOL    HW1 4695   3.965   7.679   2.773 -0.5634  0.8852 -0.7053
66030SOL    HW2 4696   3.858   7.572   2.781 -0.2927  0.6537 -0.1207
66031SOL     OW 4697   2.858   6.840  10.072 -0.0514  0.2762 -0.1479
66031SOL    HW1 4698   2.883   6.931  10.057 -0.3190  0.6290  1.3781
66031SOL    HW2 4699   2.763   6.839  10.062 -0.0440  0.1436 -0.2121
66032SOL     OW 4700   7.338   9.675   8.911  0.0744  0.0197 -0.0457
66032SOL    HW1 4701   7.286   9.603   8.877 -0.8879 -1.0192  3.2072
66032SOL    HW2 4702   7.390   9.706   8.837  0.3212 -3.8146 -1.6534
66033SOL     OW 4703  11.325   6.871   9.051  0.0819 -0.4390  0.4394
66033SOL    HW1 4704  11.416   6.900   9.053 -0.0723  0.1548  3.3912
66033SOL    HW2 4705  11.280   6.939   9.000  0.8408  0.9692  1.5518
66034SOL     OW 4706  10.193  11.982   5.751 -0.0752  0.6841 -0.3311
66034SOL    HW1 4707  10.130  11.914   5.727  0.5205  0.0016  0.0099
66034SOL    HW2 4708  10.196  12.040   5.675 -0.7736  0.4708 -0.5261
66035SOL     OW 4709   8.439  12.634   4.398 -0.7159 -0.2149 -0.2837
66035SOL    HW1 4710   8.364  12.605   4.449  0.2971 -1.0573  0.7616
66035SOL    HW2 4711   8.475  12.707   4.448 -0.7011  0.0525 -0.6763
66036SOL     OW 4712   9.274   9.444  11.149 -0.2887  0.3090  0.0579
66036SOL    HW1 4713   9.292   9.510  11.216  0.5824 -0.2154  0.3524
66036SOL    HW2 4714   9.256   9.495  11.070 -0.8718  0.9171  0.5733
66037SOL     OW 4715   7.670  10.049   0.194 -0.0525 -0.5614 -0.1792
66037SOL    HW1 4716   7.697  10.016   0.280  0.8040  0.1722 -0.1546
66037SOL    HW2 4717   7.683   9.975   0.135 -1.1094 -1.2315  0.3821
66038SOL     OW 4718  12.116  11.217   6.035  0.2425  0.3390  0.3340
66038SOL    HW1 4719  12.169  11.176   5.967 -0.5737  1.1287 -0.8029
66038SOL    HW2 4720  12.163  11.297   6.057  0.8468 -0.2316  1.2007
66039SOL     OW 4721   0.328   9.365   3.966 -0.0585  0.0060  0.0187
66039SOL    HW1 4722   0.297   9.389   4.053  0.2705 -0.3519  0.2339
66039SOL    HW2 4723   0.343   9.271   3.970 -1.2437 -0.2448 -0.7968
66040SOL     OW 4724   8.326   8.737   8.712 -0.2172  0.1229 -0.2591
66040SOL    HW1 4725   8.235   8.764   8.700 -0.8937 -1.4890  0.9163
66040SOL    HW2 4726   8.334   8.656   8.662 -0.2770 -1.2864  1.9253
66041SOL     OW 4727   1.330   6.599   9.846 -0.6470  0.1346 -0.1190
66041SOL    HW1 4728   1.423   6.577   9.835 -0.8683 -0.2148 -1.5031
66041SOL    HW2 4729   1.308   6.568   9.933  0.5399  0.2535  0.2501
66042SOL     OW 4730  12.069   5.056  12.275 -0.1746 -0.4817  0.5821
66042SOL    HW1 4731  12.075   4.970  12.233 -2.2614 -0.3173 -0.1949
66042SOL    HW2 4732  12.159   5.086  12.282  0.6647 -2.9262  1.3105
66043SOL     OW 4733   6.869   7.125   3.795  0.0639  0.1479 -0.2057
66043SOL    HW1 4734   6.796   7.181   3.823  0.1378  0.1284  0.0212
66043SOL    HW2 4735   6.885   7.151   3.704  0.4300  0.8492  0.0535
66044SOL     OW 4736   8.462  11.346   8.450 -0.3984 -0.3112  0.3570
66044SOL    HW1 4737   8.386  11.288   8.459 -0.5637  0.0810  1.7152
66044SOL    HW2 4738   8.430  11.431   8.478  0.4576 -0.0726  0.6292
66045SOL     OW 4739   8.736   1.330   3.701 -0.3009  0.6229 -0.3512
66045SOL    HW1 4740   8.687   1.359   3.778 -0.1882  3.2716 -1.1809
66045SOL    HW2 4741   8.672   1.285   3.647 -0.5965 -0.4280  0.8312
66046SOL     OW 4742   2.522   2.636  10.831  0.1261 -0.4943  0.3719
66046SOL    HW1 4743   2.585   2.571  10.799  0.5299 -0.0615  0.2664
66046SOL    HW2 4744   2.546   2.648  10.923  1.4152  1.0220 -0.1184
66047SOL     OW 4745  10.112   7.718   3.476 -0.2060 -0.2258  0.3204
66047SOL    HW1 4746  10.058   7.656   3.428  0.3041 -0.5781  0.1899
66047SOL    HW2 4747  10.132   7.786   3.411  0.5212 -0.7252  0.0014
66048SOL     OW 4748   6.762   6.637  11.198 -0.0295  0.4515 -0.4180
66048SOL    HW1 4749   6.828   6.698  11.231 -0.0734  0.6937 -0.7738
66048SOL    HW2 4750   6.807   6.553  11.194 -0.7772 -0.2771  2.9898
66049SOL     OW 4751   0.319   6.625  10.876 -0.3247  0.3706 -0.4631
66049SOL    HW1 4752   0.315   6.701  10.934 -0.7532 -0.7100  0.9780
66049SOL    HW2 4753   0.238   6.577  10.894 -0.3291 -0.1525 -1.7682
66050SOL     OW 4754   1.504   8.177   4.543 -0.0861 -0.6134  0.3461
66050SOL    HW1 4755   1.410   8.194   4.552 -0.0252 -0.4841  0.7694
66050SOL    HW2 4756   1.516   8.155   4.451 -0.4723 -0.2356  0.2027
66051SOL     OW 4757   9.885   5.716   2.574  0.0730 -0.4932 -0.6317
66051SOL    HW1 4758   9.935   5.636   2.588  0.4284 -0.3114 -0.8630
66051SOL    HW2 4759   9.932   5.783   2.624 -0.5956 -0.5574  0.1134
66052SOL     OW 4760   9.614   8.971   4.409  0.0689  0.2136 -0.5961
66052SOL    HW1 4761   9.579   8.920   4.336  0.0974 -1.0811  0.2651
66052SOL    HW2 4762   9.562   9.052   4.409 -1.7316 -0.8980 -0.4395
66053SOL     OW 4763   8.161   4.219   4.116  0.2467  0.9757 -0.2559
66053SOL    HW1 4764   8.095   4.275   4.157  0.5462  1.8409 -0.9210
66053SOL    HW2 4765   8.170   4.254   4.028 -2.3046 -2.3975 -2.1221
66054SOL     OW 4766  11.613   5.496   3.057  0.0139 -0.1181 -0.5227
66054SOL    HW1 4767  11.628   5.577   3.009  1.1595 -0.4523 -0.7585
66054SOL    HW2 4768  11.692   5.445   3.043 -1.2173 -1.8818 -1.5557
66055SOL     OW 4769   8.884   7.175  11.962 -0.1331  0.8307 -0.1507
66055SOL    HW1 4770   8.879   7.082  11.938 -0.1198  0.3532  1.5383
66055SOL    HW2 4771   8.931   7.216  11.890 -1.0783 -0.2612 -1.4531
66056SOL     OW 4772  10.309   5.712   3.620 -0.0082  0.5596 -0.4809
66056SOL    HW1 4773  10.234   5.771   3.631 -1.6480 -1.6449  1.0004
66056SOL    HW2 4774  10.323   5.676   3.707 -0.1733 -2.4541 -1.5973
66057SOL     OW 4775   4.496   7.608  10.585 -0.0270 -0.4661 -0.1084
66057SOL    HW1 4776   4.522   7.692  10.546 -0.4565 -0.5231 -0.5349
66057SOL    HW2 4777   4.480   7.551  10.510  0.9095 -1.1442  0.1859
66058SOL     OW 4778  11.998   6.533   6.183  0.4635  0.5977  0.5539
66058SOL    HW1 4779  12.014   6.528   6.278  1.7345  1.3925  0.4059
66058SOL    HW2 4780  12.073   6.581   6.149 -0.7243  1.6566 -0.6730
66059SOL     OW 4781   8.740   6.769   3.983  0.5988  0.2998 -0.2037
66059SOL    HW1 4782   8.647   6.772   4.007  0.7067  0.7411  0.1694
66059SOL    HW2 4783   8.786   6.800   4.060  1.0388  0.4449 -0.5207
66060SOL     OW 4784   1.013   3.742  11.733 -0.1956 -0.1246 -0.3688
66060SOL    HW1 4785   1.012   3.796  11.653  0.0887 -1.3153 -1.2096
66060SOL    HW2 4786   1.097   3.695  11.728 -0.2737 -0.3677  0.5316
66061SOL     OW 4787   1.426   4.501   8.377  0.0656  0.1912 -0.1099
66061SOL    HW1 4788   1.359   4.446   8.417  1.1081 -0.9326  0.1669
66061SOL    HW2 4789   1.398   4.591   8.396 -1.1134 -0.2581  0.3783
66062SOL     OW 4790   8.689  11.343   6.633  0.6263 -0.6140 -0.1299
66062SOL    HW1 4791   8.711  11.350   6.726  0.8171 -0.4603 -0.1859
66062SOL    HW2 4792   8.773  11.354   6.588  0.2923  1.1301 -0.3992
66063SOL     OW 4793   4.813   8.141   4.507 -0.5924 -0.2769  0.0767
66063SOL    HW1 4794   4.838   8.147   4.415 -1.3418  0.4700 -0.0912
66063SOL    HW2 4795   4.847   8.056   4.536 -0.4264 -0.5573 -0.9051
66064SOL     OW 4796  11.842   5.339   3.123  0.2596  0.0324  0.2611
66064SOL    HW1 4797  11.890   5.262   3.154  0.3476  0.6483  1.7642
66064SOL    HW2 4798  11.865   5.347   3.031  1.2986 -0.9673  0.4107
66065SOL     OW 4799   9.553   3.399   6.316 -0.5969 -1.0083  0.3293
66065SOL    HW1 4800   9.493   3.369   6.384  1.9358 -1.8543  2.3524
66065SOL    HW2 4801   9.599   3.319   6.288  1.1698 -0.1064  0.5220
66066SOL     OW 4802   4.114   2.503  10.308 -0.1107  0.0404 -1.0059
66066SOL    HW1 4803   4.124   2.555  10.387 -1.8122 -1.6471  0.4490
66066SOL    HW2 4804   4.196   2.513  10.261  0.6570  1.7280  0.5923
66067SOL     OW 4805  12.210   2.948  12.396  0.3735  0.2078 -0.0609
66067SOL    HW1 4806  12.263   2.988  12.326  1.3271  0.2245  0.6561
66067SOL    HW2 4807  12.132   2.916  12.351  0.9923  0.1750 -1.1504
66068SOL     OW 4808   2.648   5.250   7.336  0.1245  0.0134  0.1792
66068SOL    HW1 4809   2.623   5.279   7.248 -0.3778 -1.8340 -0.3253
66068SOL    HW2 4810   2.739   5.278   7.345 -0.5901  2.5456  0.1367
66069SOL     OW 4811   4.674   4.075   5.751 -0.0543 -0.0130  0.0562
66069SOL    HW1 4812   4.613   4.030   5.810 -0.5395  0.5149 -0.0311
66069SOL    HW2 4813   4.756   4.081   5.800 -0.4985  0.5681  0.7462
66070SOL     OW 4814   6.065   2.456  11.933  0.1448 -0.1492 -0.5931
66070SOL    HW1 4815   6.130   2.394  11.968  0.4376 -0.5088 -1.7280
66070SOL    HW2 4816   6.117   2.524  11.891 -0.2029  0.2383 -0.4016
66071SOL     OW 4817   4.948   4.998   0.433 -0.4848  0.5149  0.9548
66071SOL    HW1 4818   4.901   5.041   0.362 -1.5127 -1.7872  0.1575
66071SOL    HW2 4819   4.974   4.913   0.397 -0.6089 -0.5266  3.1636
66072SOL     OW 4820   3.684  11.159   3.630 -1.0329  0.5269 -0.2365
66072SOL    HW1 4821   3.610  11.104   3.605 -1.8068  1.6939 -0.5623
66072SOL    HW2 4822   3.720  11.189   3.547 -0.5501  0.4394 -0.0617
66073SOL     OW 4823   0.612  12.771   4.930 -0.5242  0.2620 -0.2813
66073SOL    HW1 4824   0.546  12.707   4.958 -2.4763  2.2599 -0.0037
66073SOL    HW2 4825   0.573  12.856   4.952  1.5905  1.5859 -1.3771
66074SOL     OW 4826   4.724   6.550   4.512  0.3840 -0.0872 -0.0800
66074SOL    HW1 4827   4.798   6.503   4.473  0.6539  0.7366 -0.5861
66074SOL    HW2 4828   4.762   6.601   4.583 -0.1737 -1.9171  1.6285
66075SOL     OW 4829   9.457   7.284   0.222 -0.1155  0.5240 -0.4712
66075SOL    HW1 4830   9.473   7.216   0.288  0.8630  0.7572 -0.4613
66075SOL    HW2 4831   9.446   7.365   0.273  0.1366  0.6178 -0.5652
66076SOL     OW 4832   0.124   6.887   2.381 -0.5571  0.4432 -0.4051
66076SOL    HW1 4833   0.130   6.880   2.476 -1.7259  1.6328 -0.2090
66076SOL    HW2 4834   0.172   6.811   2.348 -0.0462  0.0672  1.1254
66077SOL     OW 4835   3.428   6.300   1.359  0.3760  0.0405 -0.1026
66077SOL    HW1 4836   3.514   6.259   1.376  0.1987  0.6204  2.7520
66077SOL    HW2 4837   3.449   6.384   1.320  1.3505  1.1503  2.5733
66078SOL     OW 4838   8.980   1.628   9.675 -0.1931  0.6472  0.0760
66078SOL    HW1 4839   8.945   1.574   9.605 -0.8027 -0.0233  0.8738
66078SOL    HW2 4840   8.903   1.669   9.715  0.0443  0.2895  0.9329
66079SOL     OW 4841   8.164   3.804  11.116  0.4353  0.0359  0.2686
66079SOL    HW1 4842   8.195   3.727  11.068 -2.1649 -0.9446  0.0170
66079SOL    HW2 4843   8.131   3.863  11.048 -1.0415 -0.3106  0.6533
66080SOL     OW 4844  10.460   8.260   2.385 -0.5212  0.2208 -0.6388
66080SOL    HW1 4845  10.555   8.253   2.397 -0.1350  2.7727 -1.6741
66080SOL    HW2 4846  10.444   8.225   2.298 -0.3884  0.5753 -0.8087
66081SOL     OW 4847   7.451   1.149   3.266 -0.3975  0.1906 -0.1716
66081SOL    HW1 4848   7.381   1.146   3.201 -1.5252  0.2030  0.9927
66081SOL    HW2 4849   7.506   1.222   3.238 -0.8936  0.2333 -1.0806
66082SOL     OW 4850   1.760   5.071  11.221 -0.0589  0.0580  0.2472
66082SOL    HW1 4851   1.800   5.037  11.301 -0.8630 -1.2913  0.1128
66082SOL    HW2 4852   1.834   5.104  11.170  0.8901 -1.9900  0.1736
66083SOL     OW 4853   7.287   7.375   1.667 -0.0151 -0.6463 -0.8466
66083SOL    HW1 4854   7.289   7.286   1.702  2.0305 -0.3929 -0.1672
66083SOL    HW2 4855   7.283   7.363   1.572 -0.8695 -1.4273 -0.7237
66084SOL     OW 4856  12.356   8.299   4.006 -0.2850  0.3319 -0.1637
66084SOL    HW1 4857  12.434   8.260   3.965  0.7450  0.6967  1.3477
66084SOL    HW2 4858  12.309   8.224   4.042  0.0749  0.2107  0.0668
66085SOL     OW 4859   0.340   3.809   4.846 -0.5208  0.4458 -0.0713
66085SOL    HW1 4860   0.284   3.878   4.881 -0.7593 -0.7249  2.0274
66085SOL    HW2 4861   0.426   3.827   4.883 -0.4658 -0.0704  0.0620
66086SOL     OW 4862   0.094   1.416   3.963 -0.2092 -0.1633 -0.7105
66086SOL    HW1 4863   0.176   1.441   4.006 -0.4396  1.4935 -1.1434
66086SOL    HW2 4864   0.091   1.471   3.885  0.1785 -3.0454 -2.9169
66087SOL     OW 4865   6.088  11.122   5.402  0.2066  0.0389 -0.0081
66087SOL    HW1 4866   6.135  11.041   5.424 -2.4685 -2.0345 -1.3338
66087SOL    HW2 4867   6.081  11.121   5.306  1.6312  2.8522 -0.2474
66088SOL     OW 4868   2.922   8.811   7.682  0.3218  0.1848 -0.0729
66088SOL    HW1 4869   2.836   8.803   7.641  0.5343  0.3787 -0.5608
66088SOL    HW2 4870   2.952   8.721   7.693  1.1609  0.1437 -2.2640
66089SOL     OW 4871   4.973  10.320   1.995 -0.4656  0.2948 -0.5446
66089SOL    HW1 4872   5.015  10.235   2.010 -2.6428 -0.6925  0.4711
66089SOL    HW2 4873   4.896  10.300   1.943 -1.4209  1.5203  0.3279
66090SOL     OW 4874   2.169   5.841  10.832 -0.2057 -0.2997  0.2989
66090SOL    HW1 4875   2.092   5.889  10.861  0.0696  1.0120 -1.0375
66090SOL    HW2 4876   2.136   5.755  10.806 -1.6573  0.9065 -2.2740
66091SOL     OW 4877  11.267   0.245   3.848  0.0781  0.5101  0.0878
66091SOL    HW1 4878  11.298   0.324   3.893  1.4063  0.0311  0.0748
66091SOL    HW2 4879  11.226   0.193   3.917  0.0294  0.8071  0.2854
66092SOL     OW 4880   4.721   9.191  10.291  0.2604  0.1032  0.4997
66092SOL    HW1 4881   4.655   9.228  10.231  0.7121  1.1697  0.6341
66092SOL    HW2 4882   4.702   9.232  10.375 -0.1417 -1.1142  1.0146
66093SOL     OW 4883   3.700   0.779   7.536  0.4493 -0.1760 -0.3927
66093SOL    HW1 4884   3.788   0.778   7.573  0.2446  3.2821  0.5289
66093SOL    HW2 4885   3.644   0.808   7.608 -1.0120  0.3266 -1.6634
66094SOL     OW 4886   9.793   0.579   2.707  0.3382 -0.3216  0.1080
66094SOL    HW1 4887   9.745   0.655   2.677 -0.5198 -0.9901 -0.2414
66094SOL    HW2 4888   9.885   0.600   2.690  0.1813  0.9035  0.6444
66095SOL     OW 4889   9.494   6.799  12.067 -0.2895 -0.4185  0.1128
66095SOL    HW1 4890   9.450   6.884  12.064  0.3591 -0.1106 -1.5174
66095SOL    HW2 4891   9.568   6.808  12.007 -0.2590 -2.1618 -0.1665
66096SOL     OW 4892   9.003   7.106  10.003  0.7197  0.1042  0.1127
66096SOL    HW1 4893   9.000   7.151   9.919 -0.6243 -0.1261  0.0225
66096SOL    HW2 4894   9.025   7.175  10.066  2.1519  0.1994 -0.4504
66097SOL     OW 4895   6.440   7.651   2.369 -0.9713  0.0815 -0.5201
66097SOL    HW1 4896   6.390   7.634   2.289  0.4959 -2.5818 -0.9996
66097SOL    HW2 4897   6.405   7.589   2.433 -0.2429  0.2219  0.0258
66098SOL     OW 4898   9.746   7.946   8.673  0.6843  0.1884  0.3928
66098SOL    HW1 4899   9.667   7.991   8.643  0.5430 -0.3226 -0.0015
66098SOL    HW2 4900   9.797   7.929   8.594  1.5058  1.0755  0.7001
66099SOL     OW 4901   0.449   5.589   2.263  0.1610  0.0525 -0.1079
66099SOL    HW1 4902   0.414   5.677   2.276  1.4441  0.8753 -1.7796
66099SOL    HW2 4903   0.372   5.533   2.260 -1.1136  1.7054 -3.1616
66100SOL     OW 4904   1.821   8.335   0.875  1.0026 -0.6412  0.5977
66100SOL    HW1 4905   1.883   8.329   0.948  0.3255 -1.2468  1.1434
66100SOL    HW2 4906   1.824   8.427   0.848  0.8014 -0.2555  1.8163
66101SOL     OW 4907   3.053   2.240  11.670 -0.4297 -0.3671  0.6158
66101SOL    HW1 4908   3.075   2.206  11.757 -1.2982  2.1102  1.8868
66101SOL    HW2 4909   3.124   2.300  11.649 -1.1578  0.4627  0.4817
66102SOL     OW 4910   8.229   2.849   2.070  0.1985  0.1273  0.3452
66102SOL    HW1 4911   8.160   2.825   2.008 -0.4141  0.3852  0.9145
66102SOL    HW2 4912   8.185   2.847   2.155  0.6217  1.3823  0.6000
66103SOL     OW 4913  12.311   4.140   6.265 -0.0900 -0.1116 -0.0090
66103SOL    HW1 4914  12.353   4.055   6.256 -0.9900 -0.7595  1.5207
66103SOL    HW2 4915  12.381   4.199   6.292  0.1422 -0.8471  1.0247
66104SOL     OW 4916  10.540   3.548   1.761  0.3632  0.1502  0.2250
66104SOL    HW1 4917  10.462   3.603   1.760  1.4833  1.8526  1.0667
66104SOL    HW2 4918  10.561   3.538   1.854  1.6288  0.4659 -0.0099
66105SOL     OW 4919   3.370   5.087   7.957 -0.4293 -0.0753 -0.1307
66105SOL    HW1 4920   3.447   5.079   8.014 -1.1985 -0.8693  0.8378
66105SOL    HW2 4921   3.394   5.155   7.894  0.4175  0.9235  1.2110
66106SOL     OW 4922   2.752   4.880   3.834 -0.4777 -0.6863 -0.1222
66106SOL    HW1 4923   2.660   4.902   3.847 -0.5101 -0.5891 -0.5111
66106SOL    HW2 4924   2.781   4.846   3.919 -0.4406  0.7930  0.4750
66107SOL     OW 4925  11.394   8.833   6.893  0.6168 -0.8661  0.0030
66107SOL    HW1 4926  11.484   8.812   6.918  0.1098  0.2927  3.3111
66107SOL    HW2 4927  11.382   8.924   6.918 -1.1947 -0.6430 -1.4118
66108SOL     OW 4928   2.868   8.140   8.969  0.0337  0.0430 -0.2477
66108SOL    HW1 4929   2.814   8.079   8.919  3.8690 -3.0254 -1.0952
66108SOL    HW2 4930   2.864   8.109   9.059  0.4141 -0.2388 -0.3257
66109SOL     OW 4931   3.302  10.912  10.784 -0.9351  0.1954 -0.7374
66109SOL    HW1 4932   3.364  10.926  10.856 -1.3081 -0.1668 -0.3444
66109SOL    HW2 4933   3.354  10.927  10.705  0.1976 -2.0507 -0.4983
66110SOL     OW 4934   0.110   6.981   9.577 -0.6181  0.2841 -0.0845
66110SOL    HW1 4935   0.059   6.907   9.543 -1.4659  0.7082  0.2467
66110SOL    HW2 4936   0.172   7.002   9.506  1.0726 -2.0375  0.5772
66111SOL     OW 4937  10.753   8.130   1.595 -0.0037 -0.0595  0.3882
66111SOL    HW1 4938  10.660   8.127   1.619  0.0235 -1.7970  0.3848
66111SOL    HW2 4939  10.794   8.061   1.648  0.9159 -0.7150 -1.1019
66112SOL     OW 4940  11.145  11.965   4.387 -0.1583  0.4433  0.1262
66112SOL    HW1 4941  11.061  11.988   4.426 -0.6040  0.1476 -0.6383
66112SOL    HW2 4942  11.154  12.023   4.312  1.4173  2.0964  1.4793
66113SOL     OW 4943   8.983   2.928   9.777 -0.2048  0.3815 -0.5079
66113SOL    HW1 4944   8.945   2.841   9.768  0.6967 -0.1357  0.4379
66113SOL    HW2 4945   8.997   2.958   9.687  1.3956 -1.3382 -0.8995
66114SOL     OW 4946   3.856   0.705   5.591  0.8129 -0.1708  0.0614
66114SOL    HW1 4947   3.808   0.676   5.668 -1.0939  1.8548 -0.2627
66114SOL    HW2 4948   3.946   0.718   5.622  0.3388 -0.4582  1.6501
66115SOL     OW 4949   8.636   3.688  11.446 -0.0276  0.3694 -0.4122
66115SOL    HW1 4950   8.678   3.670  11.362  2.2598  1.0474  0.5052
66115SOL    HW2 4951   8.544   3.665  11.433  0.2620  0.4906 -3.0823
66116SOL     OW 4952   2.827   0.820   9.109  0.3894 -0.0089 -0.4040
66116SOL    HW1 4953   2.823   0.782   9.197  0.3247 -0.1571 -0.4724
66116SOL    HW2 4954   2.866   0.752   9.054 -1.5711 -0.7663 -0.9442
66117SOL     OW 4955   5.582   4.761  12.706 -0.2858  0.5243 -0.1517
66117SOL    HW1 4956   5.576   4.845  12.661  1.0901  0.4939 -0.4109
66117SOL    HW2 4957   5.612   4.783  12.794 -0.3638  0.3440 -0.0789
66118SOL     OW 4958   5.168   0.684   8.547  0.1108  0.7530  0.4159
66118SOL    HW1 4959   5.163   0.677   8.452  0.3308 -0.7377  0.4910
66118SOL    HW2 4960   5.149   0.595   8.579 -1.8985  1.6239  1.8535
66119SOL     OW 4961   3.822   7.938   4.811  0.0101  0.4044  0.6064
66119SOL    HW1 4962   3.892   7.881   4.780  1.0701  0.8666  2.0482
66119SOL    HW2 4963   3.817   8.008   4.747  0.5438  0.1147  0.2455
66120SOL     OW 4964   4.981  11.331   7.388 -0.3763 -0.2771 -0.0284
66120SOL    HW1 4965   4.983  11.260   7.324 -0.0218  0.3121 -0.6909
66120SOL    HW2 4966   5.071  11.363   7.391 -0.4372 -0.1400  0.6035
66121SOL     OW 4967   5.501   9.445   0.444 -0.3055  0.8769  0.1455
66121SOL    HW1 4968   5.450   9.380   0.395  0.0825  0.6201  0.0773
66121SOL    HW2 4969   5.585   9.403   0.459  0.1120  1.5390 -0.2891
66122SOL     OW 4970   7.864  10.174  10.749  0.3516 -0.3066 -0.2942
66122SOL    HW1 4971   7.770  10.165  10.733  0.5008  1.5788 -2.7916
66122SOL    HW2 4972   7.869  10.219  10.834 -1.0466  0.6518 -0.6877
66123SOL     OW 4973   1.881  11.109   7.549 -0.2314 -0.3788  0.7133
66123SOL    HW1 4974   1.793  11.138   7.574  0.1285 -0.1301  1.7492
66123SOL    HW2 4975   1.937  11.139   7.621  0.5753 -1.2507  0.4621
66124SOL     OW 4976   0.677   7.995   4.271 -0.4264  0.7016  0.0199
66124SOL    HW1 4977   0.685   8.071   4.329  0.8076  1.3748 -0.9799
66124SOL    HW2 4978   0.586   7.968   4.280 -0.6905  1.8188  0.9930
66125SOL     OW 4979   3.550  10.416  10.472  0.1078  0.2472 -1.0265
66125SOL    HW1 4980   3.522  10.330  10.505 -0.4589  0.7806 -0.0319
66125SOL    HW2 4981   3.621  10.442  10.531 -2.0835  1.9981  1.0651
66126SOL     OW 4982   5.410   8.801  12.050  0.0707 -0.0254 -0.5931
66126SOL    HW1 4983   5.344   8.820  11.983  0.7371 -0.2919 -1.3370
66126SOL    HW2 4984   5.413   8.705  12.054 -0.2668 -0.0167  0.1363
66127SOL     OW 4985   0.067   4.728   2.892 -0.5402 -0.1684  0.1601
66127SOL    HW1 4986   0.057   4.788   2.966 -0.4435  0.3566 -0.2416
66127SOL    HW2 4987  -0.018   4.685   2.884 -0.1785 -1.1503  1.3446
66128SOL     OW 4988   0.956   4.750  10.402  0.2022  0.0243  1.1021
66128SOL    HW1 4989   0.890   4.698  10.358  0.7811  0.4721 -0.3485
66128SOL    HW2 4990   0.910   4.828  10.432 -0.0450  0.0962  0.5468
66129SOL     OW 4991   9.151   2.068   0.425 -0.1265 -0.4051 -0.1902
66129SOL    HW1 4992   9.147   2.082   0.330  1.3701 -0.1282 -0.2355
66129SOL    HW2 4993   9.095   2.137   0.462 -0.1652 -0.0784 -0.8438
66130SOL     OW 4994   8.363   6.501   4.331 -0.4025  0.4953  0.3167
66130SOL    HW1 4995   8.433   6.437   4.317 -1.4479 -0.9647  1.5438
66130SOL    HW2 4996   8.298   6.481   4.264 -0.7939  0.1649  0.7898
66131SOL     OW 4997  12.136   7.353   2.161 -0.3946  0.3497 -0.4789
66131SOL    HW1 4998  12.113   7.365   2.253  1.4017 -1.7224  0.3155
66131SOL    HW2 4999  12.189   7.430   2.139 -1.3250  1.1496  0.0096
66132SOL     OW 5000  10.682   0.915  11.353  0.1483  0.2593  0.3522
66132SOL    HW1 5001  10.629   0.837  11.339  0.1585  0.0211  1.5394
66132SOL    HW2 5002  10.748   0.888  11.417 -0.2370  1.4003  1.2704
66133SOL     OW 5003   6.360   6.773   3.895  0.2162  0.3653 -0.0489
66133SOL    HW1 5004   6.399   6.849   3.852  2.2921 -0.2733  0.6004
66133SOL    HW2 5005   6.329   6.807   3.979 -0.2961  0.7903 -0.3970
66134SOL     OW 5006  11.279   7.961  10.910 -0.2584 -1.0079  0.2575
66134SOL    HW1 5007  11.317   7.974  10.823  0.7668 -1.0039  0.6908
66134SOL    HW2 5008  11.292   8.045  10.954  0.6331 -1.4847  0.9290
66135SOL     OW 5009   5.486  11.454   8.291 -0.8549 -0.0539 -0.0622
66135SOL    HW1 5010   5.417  11.399   8.329 -0.3468 -1.0721 -0.5733
66135SOL    HW2 5011   5.545  11.392   8.248  1.3128  0.5934  1.7772
66136SOL     OW 5012   7.738   1.856   4.087  0.4292 -0.1667  0.4013
66136SOL    HW1 5013   7.663   1.898   4.045  0.3236  0.7303  1.4448
66136SOL    HW2 5014   7.785   1.814   4.015  0.8181  2.1497 -0.7897
66137SOL     OW 5015   8.221   3.976   9.721  0.0241 -0.8401 -0.8230
66137SOL    HW1 5016   8.301   4.029   9.724  0.4970 -1.5393 -0.8579
66137SOL    HW2 5017   8.180   3.989   9.806  0.9390 -1.6177 -0.2371
66138SOL     OW 5018   2.248   4.965   7.631 -0.2226 -0.1540  0.5024
66138SOL    HW1 5019   2.190   5.024   7.582 -0.2316  0.0088  0.7084
66138SOL    HW2 5020   2.331   5.012   7.637 -0.5675  0.3514  1.6757
66139SOL     OW 5021   6.978   8.666   6.823  0.7962 -0.3491 -0.2679
66139SOL    HW1 5022   6.894   8.709   6.837 -0.3254 -2.7448  0.9273
66139SOL    HW2 5023   7.043   8.731   6.849 -0.6229  1.6289 -1.4294
66140SOL     OW 5024  10.136   6.927   9.173 -1.0045  0.9678 -0.9230
66140SOL    HW1 5025  10.128   6.941   9.079 -0.6672  1.0191 -0.9471
66140SOL    HW2 5026  10.229   6.906   9.186 -0.7899  2.1444 -0.4475
66141SOL     OW 5027   4.759   1.495   2.980  0.2083 -0.3373  0.1288
66141SOL    HW1 5028   4.817   1.570   2.968  0.3536 -0.5961 -0.8622
66141SOL    HW2 5029   4.722   1.508   3.067  1.8817 -0.2743  0.8669
66142SOL     OW 5030   6.722   1.491   5.431  0.2549  0.0399  0.8583
66142SOL    HW1 5031   6.697   1.507   5.340 -0.0672 -0.2223  0.9019
66142SOL    HW2 5032   6.781   1.564   5.452 -0.8953  0.9676  0.9300
66143SOL     OW 5033   7.382   7.404   0.994  0.7000  0.0054  0.3833
66143SOL    HW1 5034   7.444   7.350   0.944  0.2130 -0.2670  0.0604
66143SOL    HW2 5035   7.304   7.349   1.002 -0.1948  1.0435 -0.8505
66144SOL     OW 5036   3.148   1.675   2.033 -0.1597  0.4526 -0.3053
66144SOL    HW1 5037   3.202   1.640   2.104 -0.9307  0.1346  0.1331
66144SOL    HW2 5038   3.062   1.688   2.073 -1.0235 -1.1093 -1.5215
66145SOL     OW 5039  10.160   1.740  11.711  0.1967 -0.5754 -0.3951
66145SOL    HW1 5040  10.096   1.787  11.765  0.1504  0.3461 -1.2163
66145SOL    HW2 5041  10.115   1.660  11.686  0.4843 -1.3871  1.4982
66146SOL     OW 5042  11.013   0.778   5.322 -0.2285  0.5001  1.1148
66146SOL    HW1 5043  10.935   0.737   5.360 -0.0769  0.3821  1.2987
66146SOL    HW2 5044  11.056   0.706   5.276 -1.0904  0.9022 -0.3944
66147SOL     OW 5045  10.429   7.135   0.199 -0.5981  0.2001  0.0981
66147SOL    HW1 5046  10.434   7.157   0.292  0.7539  0.0711  0.0789
66147SOL    HW2 5047  10.336   7.139   0.178 -0.7911  1.6137  1.1155
66148SOL     OW 5048   1.662   3.395   1.170  0.4570  0.2021  0.0076
66148SOL    HW1 5049   1.690   3.470   1.118 -0.2663 -0.6793 -1.7381
66148SOL    HW2 5050   1.567   3.406   1.179  0.6778  0.8350  2.0172
66149SOL     OW 5051   5.969   7.455  11.144 -0.3039  0.0836 -0.3938
66149SOL    HW1 5052   5.950   7.521  11.078  3.6270  2.7162  0.7533
66149SOL    HW2 5053   5.909   7.476  11.216 -1.1672  0.3921 -1.1733
66150SOL     OW 5054  10.849   2.986  11.903  0.2661  0.3707  0.1971
66150SOL    HW1 5055  10.852   3.042  11.825 -0.4417  1.5229  0.9617
66150SOL    HW2 5056  10.874   3.044  11.975  0.4993 -0.5693  0.8946
66151SOL     OW 5057  12.677   6.120   2.101 -0.3675  0.0712  0.7984
66151SOL    HW1 5058  12.633   6.149   2.021  1.0343 -0.2939 -0.1411
66151SOL    HW2 5059  12.680   6.198   2.156  1.1306  1.1227 -0.6699
66152SOL     OW 5060   7.530   6.160  10.486  0.3678  0.1481 -0.1686
66152SOL    HW1 5061   7.479   6.193  10.561  1.0004  0.4502  0.1378
66152SOL    HW2 5062   7.467   6.109  10.435 -0.0353 -0.2079  0.6627
66153SOL     OW 5063   8.494   7.936  10.907 -0.6176  0.2009 -0.5464
66153SOL    HW1 5064   8.554   7.993  10.955  0.1323 -0.8522 -0.1796
66153SOL    HW2 5065   8.460   7.990  10.836  0.0604  1.0930 -0.2067
66154SOL     OW 5066   8.653  10.363   5.121 -0.2899  0.1157  0.1332
66154SOL    HW1 5067   8.596  10.439   5.131 -0.8163 -0.5180  2.4323
66154SOL    HW2 5068   8.728  10.396   5.071 -2.5330  0.9757 -2.9745
66155SOL     OW 5069   9.769   2.132  11.039  0.3535 -0.1137  0.5449
66155SOL    HW1 5070   9.854   2.115  11.080  0.3011  1.4001  1.3746
66155SOL    HW2 5071   9.765   2.227  11.033 -1.0898 -0.1883  0.0687
66156SOL     OW 5072   8.805   2.798  11.839 -0.0229  0.0095 -0.2856
66156SOL    HW1 5073   8.846   2.758  11.762  2.5858  0.5828  0.7096
66156SOL    HW2 5074   8.806   2.729  11.906 -0.0080  0.2718 -0.0140
66157SOL     OW 5075   8.538   5.318   9.303  0.2139  0.0642 -0.1829
66157SOL    HW1 5076   8.566   5.305   9.212 -2.6091 -1.0651 -1.0084
66157SOL    HW2 5077   8.445   5.296   9.303 -0.2522  1.4986  2.7101
66158SOL     OW 5078   0.100   3.524  12.775 -0.1732 -1.1513 -0.6678
66158SOL    HW1 5079   0.073   3.613  12.754 -0.6134 -1.0912  0.1258
66158SOL    HW2 5080   0.062   3.470  12.706  0.8127 -0.6382 -1.6461
66159SOL     OW 5081   2.697   1.982  11.049  0.1264  0.1035 -0.3544
66159SOL    HW1 5082   2.772   1.952  11.101  0.4999 -0.2130 -1.0715
66159SOL    HW2 5083   2.681   1.912  10.986 -0.0282  0.6822 -0.9729
66160SOL     OW 5084   1.644   9.896   6.272 -0.7643  0.0868  0.0144
66160SOL    HW1 5085   1.550   9.878   6.281 -0.5450 -1.4915 -0.4546
66160SOL    HW2 5086   1.649   9.983   6.233 -2.0237  0.3538  0.4169
66161SOL     OW 5087   1.080  11.275  12.512  0.0811  0.2970 -0.7666
66161SOL    HW1 5088   1.169  11.269  12.478  0.6248 -0.0623  0.6504
66161SOL    HW2 5089   1.080  11.218  12.589 -1.2253  0.7051 -0.4359
66162SOL     OW 5090  11.856  10.400   9.648  0.2784  0.2795 -0.0731
66162SOL    HW1 5091  11.951  10.403   9.656  0.3074  0.7223 -0.5915
66162SOL    HW2 5092  11.826  10.369   9.734  0.9992 -1.8895 -0.5521
66163SOL     OW 5093   1.578   2.724   2.616  0.2323  0.0415 -0.3759
66163SOL    HW1 5094   1.589   2.635   2.649  1.5842  0.4620  0.3923
66163SOL    HW2 5095   1.623   2.724   2.532 -0.3447 -0.1639 -0.6895
66164SOL     OW 5096   7.001   7.189   8.767  0.4350 -0.1614  0.0323
66164SOL    HW1 5097   6.996   7.134   8.689 -1.9293 -1.1948  0.8075
66164SOL    HW2 5098   7.072   7.151   8.818  0.5808 -0.8227 -0.6435
66165SOL     OW 5099   1.414  11.855   2.248 -0.3949 -0.1126  0.1694
66165SOL    HW1 5100   1.433  11.831   2.158  0.9135  0.2739  0.3223
66165SOL    HW2 5101   1.424  11.950   2.251 -3.2994  0.2860  0.0910
66166SOL     OW 5102   3.477   0.957   8.418 -0.1779 -0.1240  0.5047
66166SOL    HW1 5103   3.518   1.041   8.440  0.3959  0.1019 -1.2796
66166SOL    HW2 5104   3.546   0.892   8.430 -1.0050 -0.6231  3.2990
66167SOL     OW 5105  12.006   8.120   6.338  0.9876  0.3113  0.7513
66167SOL    HW1 5106  11.912   8.122   6.324  1.1213  0.3032 -0.2164
66167SOL    HW2 5107  12.017   8.137   6.432  0.1566  3.4311  0.3955
66168SOL     OW 5108   8.627   7.115   8.384  0.2260  0.6107 -0.0138
66168SOL    HW1 5109   8.698   7.161   8.429  2.0548 -1.3228 -0.7650
66168SOL    HW2 5110   8.579   7.070   8.455 -0.7359  2.4238  0.5642
66169SOL     OW 5111  10.702   3.806   3.911 -0.3741 -0.0199 -0.0850
66169SOL    HW1 5112  10.764   3.872   3.882  0.1200 -1.2469 -1.9765
66169SOL    HW2 5113  10.719   3.796   4.005 -0.0733  2.0759  0.1224
66170SOL     OW 5114   1.336   2.511  10.570  0.1090 -0.0974 -0.1526
66170SOL    HW1 5115   1.385   2.429  10.581 -0.6412 -0.4881  0.3694
66170SOL    HW2 5116   1.315   2.538  10.659  0.0793  0.5063 -0.3395
66171SOL     OW 5117   6.519   9.483   3.422  0.3069  0.3637  0.1990
66171SOL    HW1 5118   6.462   9.495   3.346  1.3378  0.6945 -0.5543
66171SOL    HW2 5119   6.564   9.400   3.405  0.2642  0.2479  0.6403
66172SOL     OW 5120  10.722   6.162  12.135  0.3515 -0.3342 -0.0919
66172SOL    HW1 5121  10.784   6.091  12.149  0.3976 -0.5758 -1.4057
66172SOL    HW2 5122  10.774   6.242  12.144  0.7842 -0.5292 -0.7814
66173SOL     OW 5123   4.001   1.014   6.578 -0.3019 -0.3359 -0.2820
66173SOL    HW1 5124   3.922   1.040   6.626 -0.9664  0.8127 -1.9066
66173SOL    HW2 5125   4.073   1.042   6.633 -1.0420  0.4917  0.2929
66174SOL     OW 5126   4.209   3.259   0.317  0.1320  0.4375  0.3194
66174SOL    HW1 5127   4.136   3.197   0.317  1.0511 -0.6855  0.9362
66174SOL    HW2 5128   4.275   3.219   0.374  1.3002  1.3417 -0.3380
66175SOL     OW 5129   7.252  12.518  11.774  0.3090 -0.3282 -0.2789
66175SOL    HW1 5130   7.276  12.445  11.717 -1.9755 -1.3527 -0.0482
66175SOL    HW2 5131   7.277  12.489  11.862 -0.7772 -0.9703 -0.1613
66176SOL     OW 5132   4.262   5.717   0.554 -0.3444 -0.6584  0.1737
66176SOL    HW1 5133   4.307   5.698   0.636  0.0917  0.2765  0.1631
66176SOL    HW2 5134   4.180   5.668   0.560  0.1552 -1.4595  0.6936
66177SOL     OW 5135  12.173   0.494   4.786  0.0820  0.4260  0.4353
66177SOL    HW1 5136  12.163   0.588   4.802 -1.6660  0.1425  1.2858
66177SOL    HW2 5137  12.187   0.456   4.873 -3.9493 -0.5426  0.8546
66178SOL     OW 5138   4.665   3.363   1.486  0.2324 -0.2693  0.0428
66178SOL    HW1 5139   4.745   3.320   1.516  0.8489  1.4537  1.0424
66178SOL    HW2 5140   4.618   3.296   1.437  0.6157 -2.3927  2.3706
66179SOL     OW 5141   2.301   9.126   2.854 -0.1574 -0.0966 -0.4883
66179SOL    HW1 5142   2.329   9.105   2.943  1.3175 -0.8985 -1.1040
66179SOL    HW2 5143   2.341   9.210   2.835  2.1379 -1.3058 -1.4173
66180SOL     OW 5144   2.526   6.551  11.103  0.2178  0.0329 -0.4717
66180SOL    HW1 5145   2.583   6.521  11.175  0.1567  0.6485 -0.1570
66180SOL    HW2 5146   2.572   6.523  11.024 -0.9908 -3.0295 -0.2301
66181SOL     OW 5147   3.802   9.134   3.976 -0.0844  0.2134  0.1595
66181SOL    HW1 5148   3.748   9.180   3.912 -0.4644  0.1368  0.4228
66181SOL    HW2 5149   3.832   9.201   4.037  0.8372  0.4002 -0.4788
66182SOL     OW 5150   6.900   0.526   9.287 -0.0698  0.5176 -0.3000
66182SOL    HW1 5151   6.853   0.537   9.204 -1.9697  1.4735  0.8335
66182SOL    HW2 5152   6.928   0.615   9.311 -0.4767  0.4086  0.6060
66183SOL     OW 5153   1.389   3.927   6.676  0.0938 -0.1578 -1.0335
66183SOL    HW1 5154   1.296   3.904   6.689 -0.3932  0.8795 -2.4419
66183SOL    HW2 5155   1.437   3.852   6.712 -1.2798 -0.6668 -0.1741
66184SOL     OW 5156   3.409   5.802   3.250 -0.4411 -0.1284  0.0067
66184SOL    HW1 5157   3.461   5.832   3.325  0.8855  2.7979 -1.8938
66184SOL    HW2 5158   3.321   5.834   3.269 -0.6404 -1.3047  1.2369
66185SOL     OW 5159   1.497  12.012   3.600  0.0538 -0.2203 -0.2292
66185SOL    HW1 5160   1.409  12.050   3.600  0.4418  0.7184  0.5855
66185SOL    HW2 5161   1.554  12.083   3.631  0.9775 -1.0867  0.1133
66186SOL     OW 5162   3.021   6.301   4.211  0.0431  0.1746  0.0758
66186SOL    HW1 5163   2.943   6.294   4.266  0.5481 -1.5127  0.6267
66186SOL    HW2 5164   3.062   6.384   4.237 -1.2243  0.7814  0.2026
66187SOL     OW 5165   4.306   5.013  11.036 -0.1066 -0.1565 -0.4160
66187SOL    HW1 5166   4.288   4.929  11.079  1.9802 -1.0940 -1.2324
66187SOL    HW2 5167   4.260   5.008  10.952  0.9474 -1.0427 -0.9772
66188SOL     OW 5168   1.707   6.338   8.506  0.2475  0.0616  0.3273
66188SOL    HW1 5169   1.747   6.288   8.435 -1.5995 -5.2442  2.5360
66188SOL    HW2 5170   1.632   6.382   8.465  1.6258  0.7003 -1.6684
66189SOL     OW 5171   8.002  12.064   8.729  0.9552  0.4995 -0.2781
66189SOL    HW1 5172   7.978  12.029   8.643  1.3032 -1.4563  0.3599
66189SOL    HW2 5173   8.089  12.100   8.717  0.9881  0.2645 -0.7581
66190SOL     OW 5174   5.673   8.770  11.736  0.2224  1.0989  0.4027
66190SOL    HW1 5175   5.600   8.712  11.714  0.4886  0.9924 -0.2085
66190SOL    HW2 5176   5.634   8.858  11.737 -0.1012  0.9584  0.9707
66191SOL     OW 5177   0.721   3.470   5.705 -0.2129  0.0981 -0.1106
66191SOL    HW1 5178   0.687   3.410   5.639 -0.0964  1.4625 -1.4524
66191SOL    HW2 5179   0.644   3.501   5.752 -0.3925 -0.1261 -0.2596
66192SOL     OW 5180  12.321   6.530  10.385 -0.1405  0.5902  0.1896
66192SOL    HW1 5181  12.368   6.520  10.468 -0.9067  2.2579  0.8742
66192SOL    HW2 5182  12.317   6.442  10.349  1.7070  0.0875  1.0861
66193SOL     OW 5183   7.621   9.488  10.104 -0.1743  0.4949  0.2963
66193SOL    HW1 5184   7.586   9.402  10.128 -1.4156  1.1810  1.0317
66193SOL    HW2 5185   7.705   9.494  10.150  2.0051 -1.9206 -2.9037
66194SOL     OW 5186   6.590   4.368  10.151  0.5244  0.4533  0.0208
66194SOL    HW1 5187   6.656   4.401  10.090 -0.6581  3.1834  0.0695
66194SOL    HW2 5188   6.512   4.420  10.132 -1.8136 -2.8379 -0.2593
66195SOL     OW 5189   5.346  11.241   3.877  0.1950 -0.0578 -0.4350
66195SOL    HW1 5190   5.261  11.251   3.921  0.0314 -0.4793 -0.6514
66195SOL    HW2 5191   5.334  11.167   3.818  0.2356  0.8346 -1.5982
66196SOL     OW 5192   6.449   0.463  11.252  0.3954 -0.3364 -0.0625
66196SOL    HW1 5193   6.473   0.424  11.336 -0.9484 -0.4678  0.2721
66196SOL    HW2 5194   6.383   0.404  11.216  1.7147 -0.8769 -1.7432
66197SOL     OW 5195   2.717  11.112   1.673 -0.1465  0.7820  0.6769
66197SOL    HW1 5196   2.699  11.106   1.767 -0.1163 -1.3031  0.6009
66197SOL    HW2 5197   2.635  11.087   1.632  0.4262 -0.4073  0.2085
66198SOL     OW 5198   3.369   1.443   6.448 -0.3162  0.1509  0.1086
66198SOL    HW1 5199   3.313   1.375   6.412 -1.6696  0.9016  0.7509
66198SOL    HW2 5200   3.350   1.521   6.395  0.3991  0.3220  0.0910
66199SOL     OW 5201  12.464   1.975   1.967  0.0658 -0.4196 -0.4388
66199SOL    HW1 5202  12.412   1.908   1.922 -1.2975 -0.1060  0.5791
66199SOL    HW2 5203  12.427   1.977   2.055  0.8900  0.8325 -0.1109
66200SOL     OW 5204   6.239   6.776   2.753  0.5782  0.4113  0.2180
66200SOL    HW1 5205   6.155   6.745   2.720  0.5781 -0.0595  0.6405
66200SOL    HW2 5206   6.298   6.768   2.678 -0.3554  3.4867 -0.9774
66201SOL     OW 5207   5.716   3.394   5.513 -0.0890 -0.2641  0.0362
66201SOL    HW1 5208   5.641   3.377   5.455 -1.0910  2.5125  0.3812
66201SOL    HW2 5209   5.748   3.480   5.486  2.2676 -0.8637  0.7085
66202SOL     OW 5210   8.113   0.062   1.342 -0.3252  0.1081  0.1072
66202SOL    HW1 5211   8.150   0.143   1.377  0.2871 -0.0977 -0.0384
66202SOL    HW2 5212   8.037   0.044   1.397 -0.3232  0.6529  0.2919
66203SOL     OW 5213   5.208   9.513  11.297  0.1317  0.2114 -0.2728
66203SOL    HW1 5214   5.270   9.464  11.244 -0.8309  0.7155 -1.9421
66203SOL    HW2 5215   5.192   9.458  11.374 -0.2505 -1.6991 -1.6545
66204SOL     OW 5216  10.079   6.835   8.482 -0.2586 -0.1689  0.2336
66204SOL    HW1 5217  10.028   6.812   8.404  0.3842  0.9508 -0.5316
66204SOL    HW2 5218  10.120   6.919   8.461  1.4998 -0.7739  1.0120
66205SOL     OW 5219   0.424   7.751   9.439 -0.5341  0.2141 -0.1306
66205SOL    HW1 5220   0.517   7.728   9.444 -0.7435 -0.8506 -0.8340
66205SOL    HW2 5221   0.408   7.804   9.517  0.3598 -0.7551  0.7351
66206SOL     OW 5222   8.110  11.541  11.653  0.4440  0.3492  0.3252
66206SOL    HW1 5223   8.048  11.469  11.666  0.8872 -0.1718 -0.3531
66206SOL    HW2 5224   8.055  11.616  11.630 -0.1141  0.5639  2.2073
66207SOL     OW 5225   0.825   9.567   7.044 -0.8981  0.1493 -0.3955
66207SOL    HW1 5226   0.801   9.653   7.009 -2.3064  0.3203  0.8819
66207SOL    HW2 5227   0.749   9.540   7.096 -0.0002 -1.3320  0.2236
66208SOL     OW 5228   9.182   3.537   9.877  0.0594  0.2222  0.2976
66208SOL    HW1 5229   9.256   3.477   9.891  0.4733  0.1915 -1.6655
66208SOL    HW2 5230   9.217   3.624   9.898  0.3930  0.0999  0.2569
66209SOL     OW 5231   6.689   7.403   1.407  0.1013  0.3210 -0.4439
66209SOL    HW1 5232   6.706   7.483   1.457 -4.3445  1.3757 -0.1337
66209SOL    HW2 5233   6.647   7.344   1.469  1.9794 -1.8007 -1.0465
66210SOL     OW 5234   0.469   6.010   7.658 -0.0149 -0.1994 -0.0982
66210SOL    HW1 5235   0.465   5.919   7.688  0.6276 -0.4377 -0.7008
66210SOL    HW2 5236   0.393   6.052   7.698 -0.1712 -0.9362  0.3996
66211SOL     OW 5237   5.238  11.335   8.011  0.3085 -0.1341 -0.6220
66211SOL    HW1 5238   5.173  11.373   7.952  2.2168  1.8085 -1.6592
66211SOL    HW2 5239   5.281  11.411   8.050  3.2034 -1.1881 -1.4570
66212SOL     OW 5240   1.695  10.164   4.778  0.5106 -0.0634 -0.2861
66212SOL    HW1 5241   1.600  10.171   4.781  0.4535 -0.4327 -0.8911
66212SOL    HW2 5242   1.724  10.251   4.750  0.2715 -0.2307 -1.1048
66213SOL     OW 5243   1.872  11.186  11.493  0.5577  0.2505  0.2161
66213SOL    HW1 5244   1.892  11.161  11.402  0.0302 -1.9307  0.6521
66213SOL    HW2 5245   1.826  11.270  11.484  1.4993  0.6379 -1.4469
66214SOL     OW 5246   7.955   7.529   8.473  0.2583 -0.3319 -0.0681
66214SOL    HW1 5247   7.971   7.622   8.459 -1.0416 -0.0553  0.2327
66214SOL    HW2 5248   7.912   7.524   8.558 -0.2696 -1.1465 -0.3746
66215SOL     OW 5249   9.977   9.337  12.131 -0.0724  0.2226  0.2808
66215SOL    HW1 5250   9.933   9.329  12.215  1.0759 -0.8568  0.8166
66215SOL    HW2 5251   9.914   9.305  12.067 -1.1476  1.5354  0.6412
66216SOL     OW 5252   3.631   5.276  12.246 -0.5531 -0.0275 -0.1026
66216SOL    HW1 5253   3.624   5.365  12.279  0.0376 -0.0692  0.1392
66216SOL    HW2 5254   3.722   5.266  12.220 -0.7823 -0.3180 -0.8475
66217SOL     OW 5255   5.684   1.223   5.615  0.4410 -0.1162 -0.2100
66217SOL    HW1 5256   5.689   1.258   5.704 -3.0673  2.6643 -0.8890
66217SOL    HW2 5257   5.762   1.258   5.572  2.1617 -1.4381  1.6047
66218SOL     OW 5258   2.911   9.815   0.211  0.0692 -0.2474  0.0185
66218SOL    HW1 5259   2.914   9.814   0.115  0.7840  0.8810  0.0068
66218SOL    HW2 5260   2.856   9.740   0.234  2.0823 -2.2554 -1.1845
66219SOL     OW 5261  11.899   1.026   0.959 -0.2088  0.2463 -0.2095
66219SOL    HW1 5262  11.807   1.012   0.939 -0.1191 -0.6215 -0.0615
66219SOL    HW2 5263  11.916   0.971   1.035  0.5465  0.0138 -0.5309
66220SOL     OW 5264   0.980   3.102   0.868  0.2294 -0.1532  0.3006
66220SOL    HW1 5265   1.075   3.098   0.869  0.2014 -0.8341  0.4536
66220SOL    HW2 5266   0.959   3.190   0.900  0.7855 -0.3915  1.3709
66221SOL     OW 5267   5.253   1.464   4.501  0.0585 -0.3883 -0.4277
66221SOL    HW1 5268   5.252   1.554   4.468  0.4669  0.3093  1.3857
66221SOL    HW2 5269   5.164   1.433   4.488 -0.7347  1.1199  1.0655
66222SOL     OW 5270   7.358   7.039   0.200  0.0279  0.2018 -1.0329
66222SOL    HW1 5271   7.416   6.974   0.239  0.0417 -0.1758 -1.6643
66222SOL    HW2 5272   7.417   7.102   0.159  0.0288  0.9166  0.0280
66223SOL     OW 5273  12.708   3.450  12.558  0.5925  0.2672  0.2344
66223SOL    HW1 5274  12.766   3.437  12.483  0.2681  1.2191 -0.1876
66223SOL    HW2 5275  12.722   3.372  12.612  2.3162  0.4831  0.1765
66224SOL     OW 5276   7.300   0.624   4.623 -0.2772  0.3195  0.2477
66224SOL    HW1 5277   7.231   0.684   4.595 -0.0403 -0.1098 -1.3832
66224SOL    HW2 5278   7.277   0.540   4.582  0.3741 -0.2340  0.9823
66225SOL     OW 5279   6.509   4.290   4.147  0.6013  0.1915  0.6979
66225SOL    HW1 5280   6.565   4.262   4.219  0.0716 -2.6984  0.0891
66225SOL    HW2 5281   6.440   4.342   4.188 -0.3786 -2.3740  2.5379
66226SOL     OW 5282  10.012   2.527  11.063  0.2814  0.4850 -0.1362
66226SOL    HW1 5283  10.018   2.576  11.145  2.3804 -0.4108  0.3179
66226SOL    HW2 5284  10.025   2.592  10.995 -0.3101  1.0603  0.2901
66227SOL     OW 5285  10.086  10.335  10.520  0.4420  0.1017 -0.1559
66227SOL    HW1 5286  10.014  10.296  10.568  0.5715 -0.6211 -0.5450
66227SOL    HW2 5287  10.047  10.366  10.438  0.5786 -0.3358 -0.3893
66228SOL     OW 5288   4.325   6.473   6.316 -0.2860 -0.4141  0.5156
66228SOL    HW1 5289   4.246   6.419   6.311  0.5181 -1.6734  1.1528
66228SOL    HW2 5290   4.310   6.542   6.251 -0.9757 -1.8803 -0.9569
66229SOL     OW 5291   6.224   8.081   8.994 -0.0790 -0.2681 -0.1053
66229SOL    HW1 5292   6.293   8.033   8.948 -0.7417 -1.7450  0.3439
66229SOL    HW2 5293   6.200   8.023   9.067  0.5787  1.7737  1.8086
66230SOL     OW 5294   2.554   8.367  11.935 -0.3976  0.2817 -0.6064
66230SOL    HW1 5295   2.571   8.461  11.921 -0.4942  0.9730  2.8404
66230SOL    HW2 5296   2.493   8.366  12.009  0.8021 -2.5314  0.4434
66231SOL     OW 5297   3.579   8.234   5.890  0.9181 -0.0920 -0.2399
66231SOL    HW1 5298   3.635   8.261   5.962  1.2711  0.4970 -0.7267
66231SOL    HW2 5299   3.560   8.142   5.907  1.8524 -0.2406  0.0469
66232SOL     OW 5300   8.434   2.380  11.742  0.1535  0.0005 -0.2663
66232SOL    HW1 5301   8.469   2.339  11.821  0.7399 -2.1008 -1.5427
66232SOL    HW2 5302   8.508   2.382  11.681 -0.3458  1.3643 -0.8801
66233SOL     OW 5303  12.731  11.584  10.115  0.0035 -0.0892  0.7435
66233SOL    HW1 5304  12.665  11.650  10.097 -1.3371 -1.3318  0.9651
66233SOL    HW2 5305  12.723  11.521  10.043  0.5282 -0.5801  1.0993
66234SOL     OW 5306   3.140   0.467   6.108 -0.0080  0.3719  0.4834
66234SOL    HW1 5307   3.214   0.527   6.096  0.3695  0.0993  1.3755
66234SOL    HW2 5308   3.115   0.478   6.199  0.0103 -0.7674  0.6383
66235SOL     OW 5309   4.552  12.181   2.791  0.2880  0.4388  0.1501
66235SOL    HW1 5310   4.631  12.221   2.829 -0.3498  0.8711  1.0499
66235SOL    HW2 5311   4.492  12.255   2.780 -0.1339  0.0467 -0.1713
66236SOL     OW 5312  12.108   6.679   1.140  0.4042  0.2749 -0.1575
66236SOL    HW1 5313  12.079   6.623   1.068  0.7826 -0.9061  0.5746
66236SOL    HW2 5314  12.036   6.740   1.154  0.9916  1.6584 -2.6099
66237SOL     OW 5315  11.092   6.711   2.857  1.1668 -0.4527  0.4273
66237SOL    HW1 5316  11.025   6.764   2.815  1.9226 -1.0430 -1.6375
66237SOL    HW2 5317  11.113   6.759   2.937  0.9150  1.6947 -0.7108
66238SOL     OW 5318  12.240   6.269   7.410 -0.0137 -0.0895 -0.1527
66238SOL    HW1 5319  12.163   6.300   7.363 -0.9002  1.8304  2.3455
66238SOL    HW2 5320  12.207   6.197   7.465  0.4197 -0.5635 -0.5045
66239SOL     OW 5321   3.307   7.254   3.740 -0.1419  0.6444 -0.2541
66239SOL    HW1 5322   3.248   7.224   3.670  1.2587 -2.0716 -0.3939
66239SOL    HW2 5323   3.381   7.294   3.694 -0.2437  0.9057 -0.1979
66240SOL     OW 5324  12.094   1.490   0.536 -0.0119  0.2421  0.5238
66240SOL    HW1 5325  12.074   1.417   0.478  1.8616 -0.4522  0.6982
66240SOL    HW2 5326  12.129   1.449   0.615  1.1880  1.3074  0.5747
66241SOL     OW 5327   9.437  12.304   3.916  0.1526  0.3574  0.3566
66241SOL    HW1 5328   9.500  12.348   3.859  0.2426  1.3786  1.2110
66241SOL    HW2 5329   9.430  12.361   3.992 -1.9891  0.3919  0.1856
66242SOL     OW 5330   6.993   8.736  11.763  0.4585  0.2558 -0.2809
66242SOL    HW1 5331   6.992   8.743  11.667 -2.2369  0.1915 -0.3276
66242SOL    HW2 5332   7.050   8.662  11.780  0.7522  0.0689 -1.8695
66243SOL     OW 5333   4.489   9.904   5.377  0.2019 -0.1139 -0.0773
66243SOL    HW1 5334   4.518   9.973   5.437  0.2069 -1.4268  1.5085
66243SOL    HW2 5335   4.394   9.899   5.391 -0.2109  1.1489 -1.9782
66244SOL     OW 5336   4.411  12.619   6.255 -0.0327 -0.3271  0.5796
66244SOL    HW1 5337   4.421  12.560   6.330  1.5608  0.3437  0.9356
66244SOL    HW2 5338   4.328  12.593   6.215 -0.1461 -1.7412  1.6537
66245SOL     OW 5339   9.178   3.491   8.931 -0.4782 -0.4042  0.1905
66245SOL    HW1 5340   9.114   3.557   8.956 -2.2769 -1.4509 -1.3275
66245SOL    HW2 5341   9.251   3.504   8.990 -0.7575  2.8931 -0.0219
66246SOL     OW 5342   6.409  10.827   2.436  0.0149 -0.3853  0.3600
66246SOL    HW1 5343   6.377  10.772   2.364 -0.3073 -0.1876  0.3513
66246SOL    HW2 5344   6.336  10.885   2.457 -0.3790 -1.3508  1.7644
66247SOL     OW 5345   8.075  10.405   7.835  0.0704 -0.0255 -0.1775
66247SOL    HW1 5346   8.112  10.466   7.898 -1.3879  1.3298 -0.5797
66247SOL    HW2 5347   8.080  10.320   7.878  0.9434  0.5631  0.9236
66248SOL     OW 5348   4.672  10.613   7.567  0.2262 -0.1518 -0.7479
66248SOL    HW1 5349   4.647  10.623   7.659 -1.1118  1.0073 -1.2011
66248SOL    HW2 5350   4.603  10.659   7.518  1.0799 -0.4689 -2.3199
66249SOL     OW 5351   3.929   0.406   7.201 -0.0953 -0.4648  0.1466
66249SOL    HW1 5352   3.873   0.473   7.242 -0.6158 -0.6633 -0.2378
66249SOL    HW2 5353   3.882   0.324   7.216  0.1631 -0.6490 -0.0588
66250SOL     OW 5354   9.554   9.035   0.206  0.1735  0.0206 -0.1472
66250SOL    HW1 5355   9.642   9.010   0.236 -0.2206 -1.7655 -0.3986
66250SOL    HW2 5356   9.527   9.103   0.268  1.5104  0.2226  0.2564
66251SOL     OW 5357   9.927   8.128  12.013  0.3998 -0.2840 -0.2290
66251SOL    HW1 5358   9.952   8.151  12.102 -0.3275 -1.0558  0.1944
66251SOL    HW2 5359   9.978   8.187  11.957  0.8961  0.1782  0.6900
66252SOL     OW 5360   4.632   1.050   4.442  0.2440 -0.4418 -0.1318
66252SOL    HW1 5361   4.649   0.964   4.481 -0.1128  0.2252  1.5601
66252SOL    HW2 5362   4.542   1.070   4.467 -0.1604 -0.1370 -1.6845
66253SOL     OW 5363   8.079   3.853   4.608  0.2908 -0.0988 -0.0950
66253SOL    HW1 5364   8.128   3.821   4.533 -1.1347  1.5216 -1.8256
66253SOL    HW2 5365   7.991   3.872   4.574 -1.0782 -1.2104  2.4467
66254SOL     OW 5366   5.016  10.436   4.120 -0.0490 -0.5708 -0.7769
66254SOL    HW1 5367   5.072  10.447   4.196 -0.4369  2.4273 -0.7737
66254SOL    HW2 5368   4.928  10.423   4.156 -0.0980 -0.0395 -0.6930
66255SOL     OW 5369   9.991   6.321   9.738 -0.4113  0.2561  0.1220
66255SOL    HW1 5370  10.077   6.278   9.735 -0.0539  0.9592  0.2214
66255SOL    HW2 5371   9.993   6.384   9.666 -1.9119 -1.6489 -1.7420
66256SOL     OW 5372   4.889   4.288   2.572 -0.5708 -0.6703 -0.0123
66256SOL    HW1 5373   4.930   4.237   2.502 -0.8067 -2.2925  0.9512
66256SOL    HW2 5374   4.853   4.221   2.631 -0.3016  0.6188  1.6891
66257SOL     OW 5375   5.569   5.028   0.944  0.2646  0.1115 -0.5405
66257SOL    HW1 5376   5.650   4.982   0.964 -0.2176 -1.1912 -1.4585
66257SOL    HW2 5377   5.576   5.049   0.851  0.6868  2.4104 -0.0608
66258SOL     OW 5378   3.955   4.109  11.106 -0.6326  0.4969  0.0502
66258SOL    HW1 5379   3.987   4.103  11.196  1.5155  0.0037 -0.7001
66258SOL    HW2 5380   4.027   4.076  11.052 -1.7278  1.1245 -1.8923
66259SOL     OW 5381   2.894   7.900   9.872 -0.1651 -0.9314 -0.1881
66259SOL    HW1 5382   2.834   7.857   9.810 -0.2229 -0.6388 -0.3383
66259SOL    HW2 5383   2.981   7.872   9.844 -0.1624 -0.4415 -0.6875
66260SOL     OW 5384  12.408  11.530   1.336 -0.2666  0.3165  0.1128
66260SOL    HW1 5385  12.328  11.481   1.319 -1.4617  1.7000  1.3799
66260SOL    HW2 5386  12.453  11.533   1.252 -0.9479 -1.4716 -0.3746
66261SOL     OW 5387  10.414  11.911   1.803 -0.1022 -0.2880 -0.0866
66261SOL    HW1 5388  10.393  11.982   1.744  0.6814  0.0974  0.0758
66261SOL    HW2 5389  10.330  11.870   1.823 -0.6064  0.7953  0.0790
66262SOL     OW 5390   2.385   2.641  11.092 -0.3741 -0.1619  0.6869
66262SOL    HW1 5391   2.341   2.715  11.051  0.9668 -0.0942 -0.7398
66262SOL    HW2 5392   2.350   2.564  11.046  0.8745 -0.1120 -0.4100
66263SOL     OW 5393   8.204   7.352  10.855 -0.2176 -0.8190 -0.0138
66263SOL    HW1 5394   8.217   7.406  10.933 -2.7078 -1.9775  1.3265
66263SOL    HW2 5395   8.231   7.264  10.882  1.4197 -0.7713 -1.3625
66264SOL     OW 5396   0.012   1.740   6.879  0.2748 -0.5973 -0.8014
66264SOL    HW1 5397   0.056   1.787   6.950  0.9595  0.4514 -1.8863
66264SOL    HW2 5398   0.075   1.738   6.808  0.4604 -3.6371 -0.6744
66265SOL     OW 5399   0.055   0.704   8.403  0.1119 -0.0074 -0.1581
66265SOL    HW1 5400  -0.027   0.694   8.354  0.3478  1.5339 -0.9412
66265SOL    HW2 5401   0.040   0.780   8.459  1.1784  0.6687 -0.7487
66266SOL     OW 5402   2.389   7.442   6.083 -0.8529  0.6289 -0.4909
66266SOL    HW1 5403   2.407   7.350   6.067  0.0133 -0.1228  3.6269
66266SOL    HW2 5404   2.311   7.442   6.139  0.3023  2.1431  1.2653
66267SOL     OW 5405   5.023   5.972   5.266 -0.4974  0.7464  0.2485
66267SOL    HW1 5406   4.987   5.982   5.177  1.0144  0.2276 -0.4559
66267SOL    HW2 5407   4.987   6.047   5.314  0.2927  2.2775 -1.3892
66268SOL     OW 5408   9.309  10.630  12.345 -0.2932 -0.5526  0.4644
66268SOL    HW1 5409   9.336  10.722  12.343  0.5828 -0.8191 -0.1210
66268SOL    HW2 5410   9.256  10.619  12.267 -0.4754 -0.5276  0.5826
66269SOL     OW 5411   7.609   7.046   9.393  0.1241 -0.1136  0.6103
66269SOL    HW1 5412   7.531   7.101   9.398 -0.4562 -0.7385 -1.1248
66269SOL    HW2 5413   7.670   7.094   9.337 -0.1287 -0.9070 -0.3707
66270SOL     OW 5414  12.077   6.035   0.013 -0.0840  0.0507  0.1322
66270SOL    HW1 5415  11.983   6.052   0.023  0.0321  0.9855 -0.2201
66270SOL    HW2 5416  12.099   6.073  -0.073  0.4062 -1.1064 -0.2707
66271SOL     OW 5417   1.682   9.356  10.945 -0.5360 -0.0014  0.1843
66271SOL    HW1 5418   1.724   9.287  10.998 -0.4502 -0.4258 -0.4275
66271SOL    HW2 5419   1.591   9.357  10.975 -0.0932  1.0361  1.6402
66272SOL     OW 5420  10.322  11.904   4.404  0.0125  0.1017  0.7947
66272SOL    HW1 5421  10.366  11.821   4.384 -0.3685  0.8316 -4.2223
66272SOL    HW2 5422  10.230  11.881   4.413  0.1243 -0.2020  1.1856
66273SOL     OW 5423   3.047   7.792  10.524  0.2384 -0.0102 -0.4119
66273SOL    HW1 5424   3.059   7.699  10.545  2.4622  0.3152 -0.0786
66273SOL    HW2 5425   3.102   7.807  10.447  1.4894  1.4379  0.7039
66274SOL     OW 5426   2.496   6.851  12.676 -0.0361 -0.2621 -0.5270
66274SOL    HW1 5427   2.578   6.808  12.652  0.2237 -1.3138  1.8940
66274SOL    HW2 5428   2.502   6.938  12.637  2.0002 -0.5000 -0.8782
66275SOL     OW 5429   7.680   9.111   5.662 -0.8177 -0.0424  0.2551
66275SOL    HW1 5430   7.759   9.165   5.667 -0.9312  0.3133 -1.2547
66275SOL    HW2 5431   7.708   9.024   5.692  0.0577  0.1614  0.0444
66276SOL     OW 5432   1.530   2.391   3.993  0.3706 -0.0683 -0.3436
66276SOL    HW1 5433   1.509   2.326   4.060  2.0328  0.1283  0.4101
66276SOL    HW2 5434   1.468   2.462   4.008 -0.2359 -0.6661  0.0291
66277SOL     OW 5435   7.782   1.498   5.356  0.5630  0.3979  0.4182
66277SOL    HW1 5436   7.856   1.543   5.397  0.4057  0.2495  0.8819
66277SOL    HW2 5437   7.785   1.410   5.393  0.8892  0.0118 -0.5071
66278SOL     OW 5438   4.177   2.793  12.164 -0.0423  0.3475 -0.0476
66278SOL    HW1 5439   4.212   2.775  12.077  0.1509  0.7254 -0.0497
66278SOL    HW2 5440   4.146   2.883  12.159  0.9930  0.7561  0.6027
66279SOL     OW 5441   1.297   7.411   7.968  0.0090  0.0991  0.4461
66279SOL    HW1 5442   1.296   7.343   8.036  0.9817 -0.4204 -0.0380
66279SOL    HW2 5443   1.238   7.378   7.901  0.8834 -0.5592 -0.0314
66280SOL     OW 5444   5.699  12.694   3.763 -0.5968 -0.5551  0.0176
66280SOL    HW1 5445   5.612  12.717   3.729 -0.2939  0.3508 -0.1968
66280SOL    HW2 5446   5.753  12.686   3.685  0.4411  2.9525  0.2076
66281SOL     OW 5447   9.802  10.068   9.417  0.2816  0.5035 -0.2792
66281SOL    HW1 5448   9.781  10.104   9.331  2.2205  1.9427 -0.2095
66281SOL    HW2 5449   9.802   9.973   9.404 -0.0278  0.6802 -1.7105
66282SOL     OW 5450  12.093   6.148   1.723 -0.0932  0.3810  0.2985
66282SOL    HW1 5451  12.164   6.213   1.723  1.8964 -1.6686 -0.3112
66282SOL    HW2 5452  12.053   6.158   1.809 -1.1633  3.6602 -0.4192
66283SOL     OW 5453  11.110   4.822   1.516 -0.0229 -0.1958  0.2681
66283SOL    HW1 5454  11.117   4.905   1.469  1.7652 -1.2505 -1.4735
66283SOL    HW2 5455  11.194   4.813   1.562 -0.1323 -1.1181  0.3150
66284SOL     OW 5456   7.259  11.979  12.531 -0.0487 -0.3298  0.2796
66284SOL    HW1 5457   7.231  11.888  12.542 -0.6624 -0.1265  0.4174
66284SOL    HW2 5458   7.206  12.012  12.459  0.2039 -0.0925  0.2032
66285SOL     OW 5459   0.198  10.709   7.747  0.5009  0.0785  0.2079
66285SOL    HW1 5460   0.108  10.725   7.719  0.3804  1.0666  1.1277
66285SOL    HW2 5461   0.189  10.665   7.831  0.8902 -0.9844 -0.2777
66286SOL     OW 5462   9.724  10.851   3.432  0.3999 -0.3503  0.1522
66286SOL    HW1 5463   9.744  10.760   3.411  1.8998 -0.9987  3.6753
66286SOL    HW2 5464   9.655  10.846   3.498  0.7112  1.0199  0.6163
66287SOL     OW 5465  11.764   2.770   5.263  0.1616  0.4352 -0.0801
66287SOL    HW1 5466  11.770   2.862   5.236  1.6021  0.0903 -1.0250
66287SOL    HW2 5467  11.670   2.751   5.261 -0.1393  1.8127 -0.1030
66288SOL     OW 5468   6.584   7.521   0.391 -0.6089  0.2475  0.8338
66288SOL    HW1 5469   6.615   7.592   0.447 -1.4296  0.0929  1.4912
66288SOL    HW2 5470   6.510   7.558   0.343  0.6050  0.6540 -0.8421
66289SOL     OW 5471   9.965   2.159   9.002 -0.3756 -0.7188  0.5079
66289SOL    HW1 5472  10.050   2.166   8.958 -0.2762 -1.4153  0.5828
66289SOL    HW2 5473   9.973   2.082   9.057 -0.7276 -0.2229  1.2617
66290SOL     OW 5474   1.020   7.027  11.447  0.9401 -0.5162  0.5102
66290SOL    HW1 5475   1.108   7.004  11.478  1.2918 -1.0927 -0.8435
66290SOL    HW2 5476   1.028   7.116  11.413  0.8519 -0.3518  0.9115
66291SOL     OW 5477   9.016   6.763   0.804  0.0829 -0.0473  0.4271
66291SOL    HW1 5478   9.035   6.673   0.830  0.1956  0.1557  1.0619
66291SOL    HW2 5479   8.966   6.754   0.723  2.0864 -0.5997 -0.7997
66292SOL     OW 5480   0.346  12.272   8.446 -0.2231  0.1879 -0.2716
66292SOL    HW1 5481   0.316  12.296   8.534 -0.5657  1.7985 -0.7818
66292SOL    HW2 5482   0.442  12.274   8.452 -0.2422 -0.1219  0.1664
66293SOL     OW 5483   2.419   3.601   8.974 -0.6779  0.6183 -0.0492
66293SOL    HW1 5484   2.503   3.575   9.012 -1.3176  0.3084  1.1763
66293SOL    HW2 5485   2.353   3.555   9.026 -1.7686  3.2868  1.1092
66294SOL     OW 5486  11.159   2.771   3.294  0.4524  0.3000 -0.2721
66294SOL    HW1 5487  11.121   2.851   3.330  0.1085  0.6030 -1.2751
66294SOL    HW2 5488  11.114   2.758   3.211  2.4191  0.6011 -1.4673
66295SOL     OW 5489   9.754   2.211   3.852  0.0081  0.3179  0.0829
66295SOL    HW1 5490   9.747   2.148   3.924 -0.4069  0.9080  0.5585
66295SOL    HW2 5491   9.810   2.280   3.885 -0.3720  0.7066 -0.0828
66296SOL     OW 5492   0.128   3.746   2.824 -0.3779 -0.5827 -0.2832
66296SOL    HW1 5493   0.172   3.669   2.861 -0.3322  0.0891  1.1440
66296SOL    HW2 5494   0.190   3.780   2.759  0.9908 -0.0369  1.2215
66297SOL     OW 5495   6.467   4.506   2.626 -0.1731 -0.1770 -0.2776
66297SOL    HW1 5496   6.409   4.530   2.699  0.0098  0.8139 -0.4433
66297SOL    HW2 5497   6.468   4.583   2.570  1.0474 -0.2989 -0.4472
66298SOL     OW 5498  12.400  10.882   4.209 -0.1705  0.3957 -0.1606
66298SOL    HW1 5499  12.313  10.920   4.197 -0.9524 -1.1214  0.3456
66298SOL    HW2 5500  12.409  10.820   4.137  0.2766  0.1774  0.0782
66299SOL     OW 5501   3.253   2.561   2.962 -0.2721  0.0664  0.3817
66299SOL    HW1 5502   3.167   2.598   2.983 -0.9896 -1.6258  0.5713
66299SOL    HW2 5503   3.279   2.606   2.882 -1.3259  0.6192  0.3243
66300SOL     OW 5504   3.007   2.524   1.751  0.6495  0.2587 -0.1448
66300SOL    HW1 5505   3.027   2.561   1.665  0.3764 -1.1813 -0.8656
66300SOL    HW2 5506   3.039   2.589   1.813 -0.3396  1.9548 -1.3270
66301SOL     OW 5507   5.061   8.225   3.951 -0.3161 -0.0864 -0.1369
66301SOL    HW1 5508   5.027   8.225   4.040 -1.1708  2.0444 -0.4170
66301SOL    HW2 5509   5.028   8.143   3.913 -0.8484 -0.4922  1.1377
66302SOL     OW 5510   2.961   9.684   9.461 -0.0010 -0.7618  0.2266
66302SOL    HW1 5511   3.025   9.633   9.411  1.1765  0.8326  0.0290
66302SOL    HW2 5512   2.907   9.727   9.395  2.2673  2.2542  0.1023
66303SOL     OW 5513   6.907   1.281   0.860  0.1114  0.4201 -0.2694
66303SOL    HW1 5514   6.888   1.358   0.914 -0.8202 -0.1422  0.2459
66303SOL    HW2 5515   6.987   1.245   0.897  0.0287  0.6071  0.1009
66304SOL     OW 5516   5.839   3.375  11.955  0.1719  0.4804 -0.0581
66304SOL    HW1 5517   5.850   3.440  12.024 -1.4187  0.9596 -0.2161
66304SOL    HW2 5518   5.799   3.423  11.882  1.5566 -0.0762 -1.2459
66305SOL     OW 5519   9.011   6.796   1.740  0.2034 -0.0110  0.4926
66305SOL    HW1 5520   9.056   6.876   1.768 -1.0390  1.0356 -0.3717
66305SOL    HW2 5521   9.068   6.759   1.673  0.8797  0.0303  1.0294
66306SOL     OW 5522   4.511   4.071   0.109 -0.7729  0.1025  0.5390
66306SOL    HW1 5523   4.593   4.116   0.131 -1.3999  0.7797  1.6237
66306SOL    HW2 5524   4.534   3.978   0.108 -0.0819  0.2465  1.3113
66307SOL     OW 5525   0.146   5.519   1.855 -0.2625 -0.1914 -0.1896
66307SOL    HW1 5526   0.219   5.467   1.888  1.8203  2.4153 -0.4118
66307SOL    HW2 5527   0.184   5.575   1.788 -2.7278  0.4870 -1.1430
66308SOL     OW 5528  10.992   2.006  10.746 -0.0476  0.0920 -0.4649
66308SOL    HW1 5529  11.022   1.922  10.712 -0.5945  0.0035 -0.7383
66308SOL    HW2 5530  11.044   2.071  10.699  1.8909 -0.1223  1.2272
66309SOL     OW 5531  11.626   6.520   6.499  0.4196 -0.1958  0.0024
66309SOL    HW1 5532  11.700   6.571   6.466  0.2585  0.2147  0.2658
66309SOL    HW2 5533  11.579   6.580   6.556 -0.6826 -0.1393 -0.9291
66310SOL     OW 5534   8.769   9.684   7.037 -0.2147 -0.2857  0.1594
66310SOL    HW1 5535   8.834   9.744   7.075 -2.8866  4.0013 -1.3571
66310SOL    HW2 5536   8.737   9.634   7.112  1.6993  0.6516  1.6953
66311SOL     OW 5537   7.904  12.090  11.060 -0.1839 -0.2913  0.6753
66311SOL    HW1 5538   7.996  12.108  11.044 -0.3232 -0.4866 -0.3670
66311SOL    HW2 5539   7.863  12.176  11.062 -0.2874 -0.2935 -0.8273
66312SOL     OW 5540   5.414   0.437  10.496  0.4018  0.2534  0.0144
66312SOL    HW1 5541   5.453   0.354  10.471  0.3525  0.1169  0.3801
66312SOL    HW2 5542   5.486   0.500  10.493  0.6723 -0.0053  0.7376
66313SOL     OW 5543   2.417   8.430   5.637 -0.0115  0.2781 -0.0931
66313SOL    HW1 5544   2.413   8.344   5.595  0.2190  0.6311 -0.8736
66313SOL    HW2 5545   2.501   8.430   5.683  0.4898  0.4579 -0.9742
66314SOL     OW 5546   7.356  10.906   9.978  0.0733  0.6175  0.6447
66314SOL    HW1 5547   7.360  10.999   9.953 -0.9548  0.8331  1.2314
66314SOL    HW2 5548   7.379  10.905  10.071  1.7324  0.0660  0.2683
66315SOL     OW 5549   1.490  11.511  10.127 -0.0797 -0.0792 -0.4422
66315SOL    HW1 5550   1.570  11.563  10.120 -0.3726  0.5256  0.5049
66315SOL    HW2 5551   1.419  11.575  10.124 -0.6025 -0.6928 -2.3152
66316SOL     OW 5552   4.414   0.615  12.598 -0.5688 -0.3727 -0.5511
66316SOL    HW1 5553   4.485   0.624  12.535  0.3302  0.5276  0.5600
66316SOL    HW2 5554   4.429   0.684  12.662 -2.6826  0.1075 -0.5014
66317SOL     OW 5555   9.683   1.508  12.581 -0.0366  0.3612 -0.1823
66317SOL    HW1 5556   9.756   1.479  12.637 -0.4616 -1.2684 -0.4146
66317SOL    HW2 5557   9.699   1.601  12.567  1.8159  0.1242  0.0636
66318SOL     OW 5558  11.110   9.808   9.013 -0.2356  0.3270  0.1824
66318SOL    HW1 5559  11.164   9.885   9.032 -0.0471 -0.0037  1.0133
66318SOL    HW2 5560  11.032   9.818   9.068 -0.6220  0.3654 -0.3663
66319SOL     OW 5561   4.399   2.327   2.522  0.0711  0.1347 -0.3024
66319SOL    HW1 5562   4.394   2.253   2.582  0.2999  0.5958  0.3064
66319SOL    HW2 5563   4.411   2.288   2.436 -0.5421 -0.5538 -0.0886
66320SOL     OW 5564   8.022   7.456   5.721  0.1887 -0.4099  0.3280
66320SOL    HW1 5565   8.066   7.539   5.702  1.9940 -1.4329 -0.2503
66320SOL    HW2 5566   8.053   7.433   5.809 -0.2123 -0.5370  0.4377
66321SOL     OW 5567   2.798   8.884   0.030  0.2029 -0.2970 -0.3936
66321SOL    HW1 5568   2.745   8.891  -0.049  0.2664  0.8742 -0.3598
66321SOL    HW2 5569   2.876   8.836   0.003  0.2039  0.0579 -1.0372
66322SOL     OW 5570  10.952   5.653   6.723 -0.3933  0.0317  0.4206
66322SOL    HW1 5571  10.903   5.712   6.781 -0.0944  1.3357 -0.5932
66322SOL    HW2 5572  11.043   5.666   6.748 -0.4300 -1.2695  1.2985
66323SOL     OW 5573  11.978  10.006  11.425 -0.1059  0.1227 -0.7974
66323SOL    HW1 5574  12.014  10.021  11.512 -0.0001  0.4373 -0.8945
66323SOL    HW2 5575  11.891   9.970  11.441 -0.5770  1.3420 -0.5580
66324SOL     OW 5576   9.603   3.192  11.906  0.2871 -0.3664  0.5031
66324SOL    HW1 5577   9.635   3.261  11.849  0.4092 -1.8989 -1.3778
66324SOL    HW2 5578   9.508   3.190  11.891  0.0069  0.5529  1.9411
66325SOL     OW 5579   3.283   3.611  11.055 -0.1739  0.0682  0.1536
66325SOL    HW1 5580   3.358   3.671  11.058  1.1153 -1.4670  2.1362
66325SOL    HW2 5581   3.254   3.613  10.964  2.2567  0.7913 -0.6851
66326SOL     OW 5582  10.966   2.605  12.458 -0.0289  0.4079 -0.3919
66326SOL    HW1 5583  10.980   2.692  12.495  0.8169  1.0651 -2.1644
66326SOL    HW2 5584  11.053   2.573  12.435 -0.4330 -0.3997 -0.8703
66327SOL     OW 5585  12.626   1.556  10.317  0.1627 -0.2407  0.3629
66327SOL    HW1 5586  12.637   1.604  10.235 -0.8544 -0.2834  0.1957
66327SOL    HW2 5587  12.711   1.563  10.360 -0.1691  2.4479  0.7376
66328SOL     OW 5588   1.498   9.310  12.692 -0.2879  0.1690  0.3002
66328SOL    HW1 5589   1.501   9.369  12.767  0.6509 -2.2395  2.2628
66328SOL    HW2 5590   1.589   9.300  12.665 -0.7098  2.2643 -2.3348
66329SOL     OW 5591   6.070   6.833   1.749 -0.3907  0.5843  0.0957
66329SOL    HW1 5592   6.131   6.905   1.736  0.8256 -0.1363  1.4626
66329SOL    HW2 5593   5.985   6.875   1.762  0.3849  1.8438  1.4318
66330SOL     OW 5594   6.373  12.078  11.053 -0.0077 -0.2822  0.3310
66330SOL    HW1 5595   6.308  12.120  11.110  0.7981 -0.4182  1.3601
66330SOL    HW2 5596   6.373  11.986  11.080 -0.0061 -0.4578 -0.2571
66331SOL     OW 5597   3.332   2.735   2.779 -0.5043 -0.1560 -0.3401
66331SOL    HW1 5598   3.393   2.794   2.824 -0.8810 -0.7084  0.9454
66331SOL    HW2 5599   3.299   2.787   2.706  1.9316 -0.0427 -1.4603
66332SOL     OW 5600   6.320   0.111  10.111 -0.5488 -0.5865  0.3449
66332SOL    HW1 5601   6.405   0.150  10.091 -0.3306 -0.2066  1.8897
66332SOL    HW2 5602   6.272   0.116  10.029  0.5971  0.0232 -0.3229
66333SOL     OW 5603   6.308   0.778   6.439  0.8319  0.2645  0.1007
66333SOL    HW1 5604   6.277   0.830   6.513 -0.6264  0.2788 -0.4874
66333SOL    HW2 5605   6.277   0.690   6.457 -0.0841  0.3909 -0.7796
66334SOL     OW 5606   3.076   6.696  12.444  0.0020 -0.1464 -0.0416
66334SOL    HW1 5607   3.081   6.633  12.515 -1.1616 -0.6653 -0.3893
66334SOL    HW2 5608   3.142   6.762  12.465 -0.6476 -0.0153  1.7882
66335SOL     OW 5609   6.091  10.531   3.924  0.1251 -0.6855  0.1715
66335SOL    HW1 5610   6.110  10.476   3.848  0.7111 -1.2196  0.6873
66335SOL    HW2 5611   6.014  10.581   3.899  2.2105  1.6914 -2.1036
66336SOL     OW 5612   6.209   3.922  11.537 -0.2070 -0.1837 -0.3284
66336SOL    HW1 5613   6.287   3.932  11.482 -0.3687 -0.1381 -0.5491
66336SOL    HW2 5614   6.156   3.857  11.491 -0.6348  0.3213 -0.5589
66337SOL     OW 5615   8.192   6.258  12.532 -0.2647 -0.3893  0.3527
66337SOL    HW1 5616   8.109   6.288  12.570 -0.6199 -1.9626  0.8821
66337SOL    HW2 5617   8.248   6.241  12.607 -0.0127 -0.8420  0.0651
66338SOL     OW 5618  12.766   5.012   1.853  0.9080  0.2653  0.2456
66338SOL    HW1 5619  12.740   5.024   1.762 -1.4488  0.5489  0.8854
66338SOL    HW2 5620  12.861   4.997   1.849  0.7276 -0.7520 -2.3163
66339SOL     OW 5621   6.401   6.332   5.947 -0.1882  0.5907 -0.4932
66339SOL    HW1 5622   6.495   6.337   5.963 -0.4898  0.3101  1.7099
66339SOL    HW2 5623   6.393   6.315   5.853  1.9628  0.1548 -0.6427
66340SOL     OW 5624   9.357  10.955   4.836  0.0633 -0.2920 -1.0086
66340SOL    HW1 5625   9.373  11.049   4.831 -1.5014  0.1487  1.0522
66340SOL    HW2 5626   9.306  10.935   4.757 -0.1518  0.7250 -1.1389
66341SOL     OW 5627  11.430   2.027  11.703  0.1799  0.4092 -0.7224
66341SOL    HW1 5628  11.345   2.004  11.667 -0.5134  0.5211  0.7770
66341SOL    HW2 5629  11.492   2.002  11.635 -0.8645 -1.6873 -0.9968
66342SOL     OW 5630   4.135   4.563   0.126 -0.2882  0.2561  0.4950
66342SOL    HW1 5631   4.089   4.577   0.209 -0.3536 -0.5390  0.5957
66342SOL    HW2 5632   4.174   4.648   0.106 -1.5275  0.8656  0.5721
66343SOL     OW 5633   7.211   2.639   2.093  0.0557 -0.6747  0.2351
66343SOL    HW1 5634   7.214   2.555   2.139 -0.1358 -0.4575  0.6412
66343SOL    HW2 5635   7.290   2.639   2.038  0.9019 -0.4401  1.4142
66344SOL     OW 5636   8.213   7.450   8.304  0.4104 -0.2223 -0.4270
66344SOL    HW1 5637   8.135   7.442   8.359 -0.1722  1.1381 -0.9991
66344SOL    HW2 5638   8.200   7.386   8.234 -0.2803  0.0914 -0.6003
66345SOL     OW 5639   2.068   3.939   6.674 -0.3331  0.6683  0.2426
66345SOL    HW1 5640   2.103   4.023   6.644  0.2979  1.2771  2.4576
66345SOL    HW2 5641   2.110   3.874   6.617  0.9376  1.7061 -0.0728
66346SOL     OW 5642   0.276   6.944   9.269 -0.0812 -0.5670 -0.3681
66346SOL    HW1 5643   0.214   7.006   9.232  0.9841 -0.2579 -1.7310
66346SOL    HW2 5644   0.358   6.992   9.275  0.7003 -1.7309 -1.1676
66347SOL     OW 5645  11.564   1.992   9.047  0.6941  0.1243  0.1178
66347SOL    HW1 5646  11.641   1.982   9.102  0.5864 -3.2546 -0.1133
66347SOL    HW2 5647  11.588   1.950   8.964 -1.3380 -1.0034  0.0298
66348SOL     OW 5648   7.109   9.571   6.712  0.3383  0.0985 -0.3877
66348SOL    HW1 5649   7.131   9.660   6.687 -0.6526 -0.0109 -1.7434
66348SOL    HW2 5650   7.021   9.557   6.678  0.5326 -1.4464 -0.3410
66349SOL     OW 5651   5.640   0.768  11.822 -0.3302 -0.2883 -0.7233
66349SOL    HW1 5652   5.692   0.811  11.754  0.2907 -1.1713 -0.8147
66349SOL    HW2 5653   5.648   0.826  11.898  0.6311 -0.3153 -0.7923
66350SOL     OW 5654   4.473   4.787  11.756  0.7588 -0.0116  0.3121
66350SOL    HW1 5655   4.420   4.716  11.790 -1.9188  1.0814 -1.3094
66350SOL    HW2 5656   4.504   4.756  11.670 -0.1281  0.6114 -0.2467
66351SOL     OW 5657   5.350   5.393  11.698  0.1789 -0.3409  0.3555
66351SOL    HW1 5658   5.303   5.386  11.781 -0.8241  0.3864 -0.1328
66351SOL    HW2 5659   5.281   5.409  11.633  1.0654  0.3891 -0.4263
66352SOL     OW 5660   6.206   5.630   3.803 -0.0168  0.3550 -0.4151
66352SOL    HW1 5661   6.166   5.544   3.790  1.0498 -0.1492 -0.5337
66352SOL    HW2 5662   6.224   5.633   3.897 -0.3505  0.5890 -0.3584
66353SOL     OW 5663   8.771   7.655   5.633 -0.7041  0.1713 -0.1189
66353SOL    HW1 5664   8.864   7.634   5.621 -0.4153  1.9044 -1.3123
66353SOL    HW2 5665   8.755   7.728   5.573 -2.3339  1.2831  1.5513
66354SOL     OW 5666   0.680   8.695   6.013  0.1606 -0.0581 -0.4984
66354SOL    HW1 5667   0.747   8.764   6.005  0.4505 -0.3537 -0.6870
66354SOL    HW2 5668   0.682   8.651   5.927  0.0949 -0.4020 -0.3256
66355SOL     OW 5669   5.060  10.968  10.328 -0.3731 -0.2069  0.2059
66355SOL    HW1 5670   4.995  11.033  10.354 -0.6506 -0.7600  0.9511
66355SOL    HW2 5671   5.138  10.991  10.379 -0.2513 -0.0597 -0.0420
66356SOL     OW 5672   0.320   8.059  12.748 -0.7506  0.5154 -0.5363
66356SOL    HW1 5673   0.320   8.071  12.843  1.9736 -0.2424 -0.3667
66356SOL    HW2 5674   0.268   7.980  12.733 -0.9271  0.4589  0.3516
66357SOL     OW 5675   7.544   7.657   1.952 -0.3164 -0.0548  0.4997
66357SOL    HW1 5676   7.491   7.631   1.876 -0.5109  0.7231  0.3616
66357SOL    HW2 5677   7.609   7.717   1.917 -0.8904  0.9269  1.0508
66358SOL     OW 5678   1.202   3.505   5.302  0.4055 -0.4309 -0.0224
66358SOL    HW1 5679   1.258   3.580   5.283  0.2743 -0.4714 -0.5745
66358SOL    HW2 5680   1.135   3.506   5.234  0.0766 -0.7248  0.2904
66359SOL     OW 5681   4.643  10.391   8.625 -0.1993  0.3542  0.0556
66359SOL    HW1 5682   4.629  10.311   8.573 -1.2896 -0.9162  2.1359
66359SOL    HW2 5683   4.696  10.362   8.699 -2.1243  1.0848  1.8225
66360SOL     OW 5684   0.797   3.044  11.198  0.3889  0.5009  0.1474
66360SOL    HW1 5685   0.822   3.100  11.272  0.4059 -0.6655  1.0544
66360SOL    HW2 5686   0.781   2.958  11.237 -0.8019  0.1497 -1.0434
66361SOL     OW 5687   8.427   4.895   9.189  0.3050  0.0418 -0.2821
66361SOL    HW1 5688   8.397   4.809   9.161  0.6943 -0.2021  0.0382
66361SOL    HW2 5689   8.428   4.948   9.109 -1.6286  0.2681 -0.2153
66362SOL     OW 5690  12.323  12.290   9.757  0.6317 -0.0743  0.3648
66362SOL    HW1 5691  12.374  12.231   9.702  1.7272  0.6350  0.5785
66362SOL    HW2 5692  12.389  12.342   9.804 -0.2866  0.4392  1.1327
66363SOL     OW 5693   1.832  12.755   5.907 -0.6217 -0.0448  0.0966
66363SOL    HW1 5694   1.755  12.786   5.953 -1.4240  0.2011 -1.3570
66363SOL    HW2 5695   1.879  12.702   5.972 -0.7240  1.7866  1.7439
66364SOL     OW 5696  11.419   6.276  12.145 -0.3329 -0.3212 -0.2256
66364SOL    HW1 5697  11.394   6.276  12.052 -1.5884  0.3830  0.0841
66364SOL    HW2 5698  11.363   6.210  12.185  1.1659 -1.6119 -0.1717
66365SOL     OW 5699   8.322   3.141   4.506 -0.5025 -0.2184 -0.1013
66365SOL    HW1 5700   8.387   3.113   4.442 -0.5149  1.3595 -0.8583
66365SOL    HW2 5701   8.364   3.214   4.551 -0.4221 -1.4040  1.8637
66366SOL     OW 5702   6.259   0.452  10.906  0.3160  0.1113  0.0722
66366SOL    HW1 5703   6.319   0.504  10.960 -2.8898  3.7085  0.6131
66366SOL    HW2 5704   6.239   0.376  10.960  1.9868  0.4054  1.1860
66367SOL     OW 5705   7.845   9.395   8.887  0.0409  0.0987  0.8096
66367SOL    HW1 5706   7.849   9.400   8.982  1.1770 -2.8477  1.0201
66367SOL    HW2 5707   7.755   9.420   8.865  0.4906  3.5063  2.3181
66368SOL     OW 5708   8.381   1.353  10.739  0.5050 -0.9174 -0.2131
66368SOL    HW1 5709   8.315   1.305  10.689 -1.3618  1.3196 -0.0739
66368SOL    HW2 5710   8.405   1.294  10.810  0.2846 -2.6298 -1.5088
66369SOL     OW 5711  11.870  12.078   2.229 -0.2483 -0.5160 -0.4393
66369SOL    HW1 5712  11.783  12.094   2.191 -0.6624 -2.4824 -0.4274
66369SOL    HW2 5713  11.907  12.166   2.243 -1.4240  0.3176 -2.2687
66370SOL     OW 5714   7.619   5.152   2.472 -0.5595  0.7242  0.2664
66370SOL    HW1 5715   7.555   5.167   2.541  1.0192  0.4011  1.8855
66370SOL    HW2 5716   7.677   5.228   2.476 -1.5735  1.7119 -2.1065
66371SOL     OW 5717   6.089  10.344   7.094  0.2668 -0.1819 -0.1660
66371SOL    HW1 5718   6.127  10.260   7.119  1.0126 -0.0445 -0.8046
66371SOL    HW2 5719   6.074  10.390   7.177  1.5131 -0.2323  0.0956
66372SOL     OW 5720  11.109   0.131   1.560 -0.1748  0.1707 -0.6185
66372SOL    HW1 5721  11.066   0.147   1.476  1.4048  0.7254 -1.3487
66372SOL    HW2 5722  11.182   0.072   1.539 -0.5459 -0.7589  0.5881
66373SOL     OW 5723   6.425   0.592   0.583 -0.1040  0.6255  0.4196
66373SOL    HW1 5724   6.497   0.615   0.524  0.3830  0.1426  0.8213
66373SOL    HW2 5725   6.437   0.647   0.660  0.3473 -0.0578  0.8541
66374SOL     OW 5726   1.810   5.631   7.181 -0.1983 -0.1315  0.3514
66374SOL    HW1 5727   1.837   5.706   7.235 -0.2950 -0.2528  0.5665
66374SOL    HW2 5728   1.889   5.610   7.130  0.0056 -0.2552  0.7151
66375SOL     OW 5729  10.438   6.364  10.442 -0.0825  0.0272  0.0230
66375SOL    HW1 5730  10.516   6.319  10.474  0.9508  1.2556 -0.6862
66375SOL    HW2 5731  10.402   6.305  10.376  0.5321 -0.3236 -0.0059
66376SOL     OW 5732   8.751  10.252   4.435  0.1315 -0.0490  0.2450
66376SOL    HW1 5733   8.749  10.201   4.516  1.7405  0.7238  0.8063
66376SOL    HW2 5734   8.702  10.199   4.372 -0.3511 -1.1032  1.4663
66377SOL     OW 5735   1.377   1.588   6.181  0.5184  0.0086  0.2383
66377SOL    HW1 5736   1.350   1.677   6.202 -2.1728 -0.9298  1.2057
66377SOL    HW2 5737   1.313   1.559   6.116 -0.6206 -2.1764  2.1900
66378SOL     OW 5738   2.973   7.950   3.422  0.6168 -0.2823  0.4516
66378SOL    HW1 5739   3.007   8.012   3.486 -1.4132  2.0823 -0.5525
66378SOL    HW2 5740   2.932   7.881   3.474  0.3771  0.7607  1.6847
66379SOL     OW 5741   6.496   1.703   6.941  0.5666  0.0468 -0.6277
66379SOL    HW1 5742   6.575   1.750   6.914  0.2780  1.0394  0.1737
66379SOL    HW2 5743   6.528   1.630   6.995  0.9572  0.1411 -0.7320
66380SOL     OW 5744  12.705  11.004   8.057 -0.6554 -0.1310  0.0661
66380SOL    HW1 5745  12.782  11.019   8.112 -0.4568  1.4212 -0.5831
66380SOL    HW2 5746  12.639  10.970   8.117  0.3778 -1.0398  0.7233
66381SOL     OW 5747   9.200   3.377   8.339  0.1185 -0.3092  0.1326
66381SOL    HW1 5748   9.250   3.297   8.355 -0.1628 -0.3772  0.7196
66381SOL    HW2 5749   9.108   3.349   8.343  0.0133  0.0965  0.6787
66382SOL     OW 5750   9.137   2.367   7.762  0.2931  0.2476 -0.1134
66382SOL    HW1 5751   9.184   2.292   7.798 -0.6591 -0.6688 -0.6999
66382SOL    HW2 5752   9.139   2.433   7.831  1.8577  0.0071  0.1125
66383SOL     OW 5753   1.118   2.564   2.730 -0.2106 -0.5058  0.3465
66383SOL    HW1 5754   1.072   2.491   2.771  1.1193 -0.4928  1.9984
66383SOL    HW2 5755   1.201   2.570   2.778 -0.5112  2.4611  0.7041
66384SOL     OW 5756   5.799  12.232   0.576 -0.6557  0.1401 -0.1165
66384SOL    HW1 5757   5.779  12.298   0.642  0.5268 -0.0696  0.4647
66384SOL    HW2 5758   5.886  12.254   0.544 -0.7168 -0.4677 -0.7469
66385SOL     OW 5759  11.110   5.196   2.313 -0.4418 -0.0142  0.1206
66385SOL    HW1 5760  11.021   5.161   2.310 -1.3314  2.1769 -1.1940
66385SOL    HW2 5761  11.149   5.169   2.230  0.2220 -1.0981  0.7583
66386SOL     OW 5762   5.479   1.394   2.244 -0.2933  0.1174  0.2441
66386SOL    HW1 5763   5.473   1.344   2.325 -0.3741 -1.1056 -0.4918
66386SOL    HW2 5764   5.502   1.329   2.177  0.0434  1.1439 -0.6669
66387SOL     OW 5765   2.447   1.707   9.604  0.0685  0.5838 -0.3588
66387SOL    HW1 5766   2.373   1.697   9.544 -0.2424  0.4983  0.0366
66387SOL    HW2 5767   2.490   1.621   9.604 -0.4675  0.3086  0.2379
66388SOL     OW 5768  11.709  10.646   2.570 -0.1408 -0.1056  0.4397
66388SOL    HW1 5769  11.720  10.555   2.600 -0.7940 -0.6355 -0.8282
66388SOL    HW2 5770  11.717  10.640   2.474 -1.3401  0.9849  0.2492
66389SOL     OW 5771   0.147   1.413   2.256  0.3340  0.7490  0.7350
66389SOL    HW1 5772   0.176   1.445   2.341 -0.6318  2.6065  0.4220
66389SOL    HW2 5773   0.052   1.402   2.265  0.2535  0.7444 -0.0426
66390SOL     OW 5774   3.526   5.167  11.926  0.5060  0.0932  0.4793
66390SOL    HW1 5775   3.524   5.105  11.853  0.6805  0.0053  0.5495
66390SOL    HW2 5776   3.619   5.186  11.940  0.4385  0.5845  0.2789
66391SOL     OW 5777   4.980  10.160  11.252  0.0540 -0.2612  0.5027
66391SOL    HW1 5778   4.941  10.208  11.326  0.1021  0.3061  0.1617
66391SOL    HW2 5779   4.951  10.208  11.174  0.8027 -0.2906  0.2016
66392SOL     OW 5780   9.927   7.674   0.673  0.0042 -0.0548  0.0048
66392SOL    HW1 5781   9.957   7.585   0.691  0.4185 -0.0836 -0.8171
66392SOL    HW2 5782   9.908   7.675   0.580 -1.1782  0.3811  0.2369
66393SOL     OW 5783   2.214   2.511  12.523 -0.2628 -1.0289  0.1937
66393SOL    HW1 5784   2.184   2.436  12.574  0.4274  1.2591  4.4154
66393SOL    HW2 5785   2.304   2.490  12.499 -0.3350 -1.8618  0.6125
66394SOL     OW 5786   6.255   3.075  12.365  0.2420 -0.1677  0.6208
66394SOL    HW1 5787   6.223   3.147  12.419 -0.0267 -0.4867  0.8924
66394SOL    HW2 5788   6.176   3.033  12.331  0.3030 -1.5567  2.0701
66395SOL     OW 5789   9.791   2.454   8.917 -0.4458  0.8823  0.5584
66395SOL    HW1 5790   9.822   2.442   8.827  1.6073  0.4061  1.2611
66395SOL    HW2 5791   9.804   2.547   8.934  1.7027  0.5507  1.1355
66396SOL     OW 5792   2.523   3.408   3.614 -0.0356  0.8009  0.1731
66396SOL    HW1 5793   2.603   3.368   3.650  0.1888  0.9386 -0.1712
66396SOL    HW2 5794   2.487   3.458   3.687 -1.6977 -2.0092  1.4577
66397SOL     OW 5795  11.313   8.101  10.102  0.5928 -0.3493 -0.7721
66397SOL    HW1 5796  11.325   8.195  10.118  0.6341 -0.4663 -0.0916
66397SOL    HW2 5797  11.325   8.060  10.188 -1.2032 -0.8112 -0.6975
66398SOL     OW 5798  11.422  11.157   9.088  0.2454 -0.0536  0.1904
66398SOL    HW1 5799  11.446  11.189   9.001  2.2476  1.2323  1.1700
66398SOL    HW2 5800  11.398  11.235   9.137 -0.5479 -0.7334  0.9148
66399SOL     OW 5801   7.484   0.301   3.282 -0.3579  0.0729  0.4102
66399SOL    HW1 5802   7.397   0.332   3.304  0.1841  2.1399 -0.0810
66399SOL    HW2 5803   7.485   0.301   3.186  0.1169 -0.0681  0.4142
66400SOL     OW 5804  10.597  11.034   6.823  0.2051  0.0978 -0.1757
66400SOL    HW1 5805  10.516  11.042   6.873  0.5015  0.7252  0.2104
66400SOL    HW2 5806  10.616  10.940   6.824 -0.4557 -0.0462 -0.1857
66401SOL     OW 5807   3.301  11.496   3.129  0.0499 -0.5065  0.2889
66401SOL    HW1 5808   3.231  11.555   3.158 -0.8310 -0.2945 -2.0136
66401SOL    HW2 5809   3.326  11.448   3.208 -1.2069  0.9201  1.6322
66402SOL     OW 5810   3.020  11.333   4.723  0.3087 -0.3798  0.1939
66402SOL    HW1 5811   2.932  11.302   4.701 -1.2855  2.0441  2.4685
66402SOL    HW2 5812   3.038  11.401   4.658  0.6223 -1.0532 -0.4274
66403SOL     OW 5813   7.071   1.955   8.576  0.6248  0.0781  0.0700
66403SOL    HW1 5814   7.145   1.914   8.531  1.4850  0.7094  0.8382
66403SOL    HW2 5815   7.076   1.921   8.665  1.2533  1.6460  0.6727
66404SOL     OW 5816   3.888   2.406   7.195 -0.1304 -0.4291 -0.0871
66404SOL    HW1 5817   3.885   2.331   7.255 -0.7983  1.3599  2.2701
66404SOL    HW2 5818   3.806   2.453   7.211  0.9124  1.5956 -0.3441
66405SOL     OW 5819  10.205   6.536   3.110 -0.4482  0.1970 -0.8663
66405SOL    HW1 5820  10.176   6.512   3.022 -0.2582 -1.1501 -0.5782
66405SOL    HW2 5821  10.188   6.458   3.164  0.9675  0.3934 -0.0636
66406SOL     OW 5822   6.364   2.301   0.052 -0.1045 -0.1896 -0.3220
66406SOL    HW1 5823   6.414   2.380   0.031 -0.1843 -0.1490 -0.3623
66406SOL    HW2 5824   6.341   2.311   0.145 -0.9341  0.3003 -0.5684
66407SOL     OW 5825   9.352  11.311   4.233 -0.6401 -0.1091 -0.1068
66407SOL    HW1 5826   9.442  11.322   4.203 -1.6374  1.4400 -2.9081
66407SOL    HW2 5827   9.346  11.219   4.258  1.7375 -0.1838  0.4249
66408SOL     OW 5828   2.283   5.117   1.882 -0.0540  0.3393 -0.5153
66408SOL    HW1 5829   2.356   5.090   1.825  0.5610  0.6053  0.1293
66408SOL    HW2 5830   2.296   5.211   1.893 -0.6716  0.4389 -0.6324
66409SOL     OW 5831   3.857  11.201   6.302  0.1194 -0.2676  0.2543
66409SOL    HW1 5832   3.894  11.179   6.216  1.2024 -0.1664  0.6795
66409SOL    HW2 5833   3.791  11.268   6.283  0.4356 -0.1518 -0.4864
66410SOL     OW 5834  11.144   0.293   1.843 -0.3399  0.0700 -0.0517
66410SOL    HW1 5835  11.235   0.284   1.815 -0.7897 -1.1641 -1.1954
66410SOL    HW2 5836  11.125   0.386   1.833  0.3358  0.0914 -1.2747
66411SOL     OW 5837  11.879   4.756   7.638  0.1527 -0.1054 -0.1072
66411SOL    HW1 5838  11.886   4.805   7.556 -1.0446  1.3594  0.6190
66411SOL    HW2 5839  11.920   4.813   7.703 -2.0639  0.4156  0.9192
66412SOL     OW 5840   2.495   6.691  10.689 -0.0630  0.3571  0.0098
66412SOL    HW1 5841   2.447   6.724  10.765  0.4601  0.9939  0.0796
66412SOL    HW2 5842   2.535   6.769  10.650 -0.1048  0.0058 -0.7691
66413SOL     OW 5843  11.501   4.107   0.856 -0.0973  0.1150 -0.3453
66413SOL    HW1 5844  11.429   4.077   0.801 -1.6407  0.2402  1.4921
66413SOL    HW2 5845  11.483   4.070   0.942  1.7425  0.6273  0.3125
66414SOL     OW 5846   6.660   3.311   0.730 -0.0925  0.0089 -0.0085
66414SOL    HW1 5847   6.686   3.314   0.638  1.1279  0.5756  0.3364
66414SOL    HW2 5848   6.604   3.233   0.737 -0.5419  0.1947 -1.3002
66415SOL     OW 5849   0.889  10.730  11.972 -0.4873  0.5507 -0.4179
66415SOL    HW1 5850   0.873  10.685  11.889 -0.8701 -0.5088  0.2093
66415SOL    HW2 5851   0.980  10.709  11.993 -0.5806  0.2939 -0.2651
66416SOL     OW 5852  12.613   9.781   7.342  0.2925  0.0308  0.3644
66416SOL    HW1 5853  12.522   9.752   7.336  0.2403  0.1937  0.3462
66416SOL    HW2 5854  12.662   9.719   7.288  0.0898  0.3648 -0.2209
66417SOL     OW 5855   9.744  11.689   0.881  0.2093  0.8872  0.8737
66417SOL    HW1 5856   9.688  11.723   0.812 -3.6888 -1.7868  2.3482
66417SOL    HW2 5857   9.723  11.743   0.958 -0.0692  0.1384  1.3375
66418SOL     OW 5858   8.632   6.708   1.273  0.4753 -0.1858 -0.2942
66418SOL    HW1 5859   8.638   6.681   1.364  0.7164  1.2384  0.1467
66418SOL    HW2 5860   8.670   6.635   1.223  2.1720 -0.1890  0.9030
66419SOL     OW 5861   0.887   9.692   5.041  0.5610  0.3421 -0.3143
66419SOL    HW1 5862   0.896   9.629   4.970 -2.5845 -0.2295 -0.3464
66419SOL    HW2 5863   0.911   9.776   5.002  2.8091 -0.4526 -0.8307
66420SOL     OW 5864   3.360  12.644   8.550  0.3392  0.0900 -0.3108
66420SOL    HW1 5865   3.351  12.613   8.640  1.1120 -0.0393 -0.2717
66420SOL    HW2 5866   3.381  12.737   8.558 -1.5703  0.5834 -0.4190
66421SOL     OW 5867   1.222   6.497   6.649  0.2765 -0.4353  0.3438
66421SOL    HW1 5868   1.147   6.446   6.679  0.1758 -0.8241 -0.5366
66421SOL    HW2 5869   1.218   6.492   6.553  0.0121  1.6001  0.2033
66422SOL     OW 5870   3.435   8.662   9.046  0.2672  0.4307 -0.0157
66422SOL    HW1 5871   3.442   8.724   8.973  2.3317 -1.1659 -1.3141
66422SOL    HW2 5872   3.360   8.692   9.097 -1.1475  1.7842 -2.6709
66423SOL     OW 5873   3.701   1.442  11.187  0.2348 -0.3861 -0.0091
66423SOL    HW1 5874   3.787   1.484  11.183 -0.1132  0.3909  0.5429
66423SOL    HW2 5875   3.698   1.401  11.273  0.0302 -0.3771 -0.0116
66424SOL     OW 5876   2.396  11.173   4.007  0.0462  0.4675 -0.6293
66424SOL    HW1 5877   2.349  11.134   4.081  1.4585 -1.0404 -0.4785
66424SOL    HW2 5878   2.388  11.267   4.020 -3.5687  0.3440 -1.0465
66425SOL     OW 5879  11.014   8.368  12.491 -0.5826 -0.2409  0.3046
66425SOL    HW1 5880  10.990   8.364  12.398 -0.5539 -0.5908  0.3105
66425SOL    HW2 5881  10.996   8.458  12.516 -0.8582 -0.2148  0.0290
66426SOL     OW 5882   8.608  11.278   8.089  0.2874  0.2562 -0.3752
66426SOL    HW1 5883   8.653  11.290   8.172  0.1753  0.1971 -0.3058
66426SOL    HW2 5884   8.616  11.362   8.045 -0.1319  0.4663 -0.0671
66427SOL     OW 5885  11.447   2.022   0.415  0.0084  0.1894 -0.1043
66427SOL    HW1 5886  11.395   1.992   0.340  0.3922  2.1651 -1.2497
66427SOL    HW2 5887  11.513   2.080   0.376  1.8271 -0.6952  1.5158
66428SOL     OW 5888  12.133   9.508   2.992  0.3782 -0.3422  0.0332
66428SOL    HW1 5889  12.184   9.538   3.067 -0.0474  1.2194 -0.2671
66428SOL    HW2 5890  12.197   9.465   2.936  0.4673 -2.7801  1.8740
66429SOL     OW 5891  12.333   6.100   9.401 -0.3171  0.1852  0.2940
66429SOL    HW1 5892  12.359   6.185   9.365  1.4362 -0.9793 -1.3624
66429SOL    HW2 5893  12.397   6.082   9.469  0.1136 -0.3640 -0.2441
66430SOL     OW 5894   4.522  10.733  10.593 -0.0974  0.0901  0.0122
66430SOL    HW1 5895   4.535  10.799  10.661  1.6734  1.2268 -1.3372
66430SOL    HW2 5896   4.610  10.702  10.573 -0.5628 -0.1464 -1.8065
66431SOL     OW 5897   7.243   1.846   6.157 -0.0955  0.1580  0.0242
66431SOL    HW1 5898   7.167   1.850   6.099  0.3711  0.7179 -0.5596
66431SOL    HW2 5899   7.318   1.847   6.098  0.4431  2.4197  0.6739
66432SOL     OW 5900   5.484   7.528   8.066 -0.2386 -0.0647 -0.3607
66432SOL    HW1 5901   5.491   7.451   8.010  0.9065 -0.2240 -0.0093
66432SOL    HW2 5902   5.411   7.509   8.124 -2.0795  0.4824 -2.3543
66433SOL     OW 5903   8.864   5.380   3.744  0.2814 -0.3114  0.5281
66433SOL    HW1 5904   8.835   5.294   3.711  2.0639 -0.2120 -1.5215
66433SOL    HW2 5905   8.899   5.361   3.831 -2.3272 -1.0361  1.5159
66434SOL     OW 5906  12.622   4.801   0.176  0.2601 -0.4466 -0.1382
66434SOL    HW1 5907  12.582   4.778   0.260 -0.6220 -0.9536 -0.6758
66434SOL    HW2 5908  12.639   4.894   0.182  0.5253 -0.5463  0.7374
66435SOL     OW 5909  11.525   8.824   2.996  0.0589 -0.2171  0.2973
66435SOL    HW1 5910  11.531   8.854   3.086  1.8592 -0.5598  0.3308
66435SOL    HW2 5911  11.614   8.834   2.961 -0.5171 -0.4092 -1.3367
66436SOL     OW 5912   8.459   4.152   9.623 -0.6286 -0.0246 -0.5824
66436SOL    HW1 5913   8.462   4.057   9.610 -1.7502 -0.1031 -0.3651
66436SOL    HW2 5914   8.475   4.188   9.536  0.5866 -0.3844 -0.5272
66437SOL     OW 5915  12.105   7.164  10.398 -0.1221 -0.1206 -0.0952
66437SOL    HW1 5916  12.178   7.134  10.343 -0.5951  0.8454 -1.2881
66437SOL    HW2 5917  12.146   7.213  10.469  0.4636 -0.8343  0.0683
66438SOL     OW 5918   5.284   9.023   8.704  0.3136 -0.3809 -0.3323
66438SOL    HW1 5919   5.360   8.974   8.734 -0.2573 -1.9373 -1.2526
66438SOL    HW2 5920   5.229   9.034   8.782  1.9529  1.8063  0.5994
66439SOL     OW 5921   4.145   3.234   2.156  0.2323  0.0448 -0.2507
66439SOL    HW1 5922   4.154   3.144   2.126 -1.0537 -0.0372 -0.4464
66439SOL    HW2 5923   4.231   3.273   2.140  0.3238 -0.6796 -1.7380
66440SOL     OW 5924   6.847   4.359  10.868 -0.7574  0.2758 -0.0897
66440SOL    HW1 5925   6.857   4.374  10.962 -0.4217  2.0390 -0.3876
66440SOL    HW2 5926   6.760   4.320  10.860 -0.2437 -1.2530  1.0540
66441SOL     OW 5927   2.273  10.930   0.948  0.1098  0.7955  0.2475
66441SOL    HW1 5928   2.368  10.936   0.940  0.1254 -0.1293 -0.6417
66441SOL    HW2 5929   2.240  10.963   0.864 -0.2618 -0.3334 -0.0733
66442SOL     OW 5930   3.074   2.813   9.770 -0.4725  0.0893  0.0994
66442SOL    HW1 5931   3.129   2.793   9.846 -0.1221  1.1461  0.1404
66442SOL    HW2 5932   2.996   2.855   9.806 -0.5880  0.0323 -0.0805
66443SOL     OW 5933   6.672  11.826   7.735 -0.2302  0.3392 -0.2000
66443SOL    HW1 5934   6.578  11.810   7.734 -0.2903 -0.2930  3.3041
66443SOL    HW2 5935   6.700  11.801   7.823  2.9974  1.8815 -0.6339
66444SOL     OW 5936   2.152   2.411   6.939 -0.0555 -0.2793  0.4767
66444SOL    HW1 5937   2.194   2.339   6.892 -0.1609 -0.5263  0.7587
66444SOL    HW2 5938   2.222   2.450   6.992 -0.1732 -0.6838  0.9384
66445SOL     OW 5939   3.176  12.398   8.622 -0.1158 -0.3907  0.4234
66445SOL    HW1 5940   3.233  12.346   8.566  0.1340 -0.5225  0.7999
66445SOL    HW2 5941   3.101  12.419   8.567  0.1241 -0.5306  0.0434
66446SOL     OW 5942  11.840   2.808  10.183 -0.2795 -0.6201 -0.1650
66446SOL    HW1 5943  11.864   2.751  10.110  2.3482  0.7542 -0.5027
66446SOL    HW2 5944  11.831   2.895  10.143  1.4929  0.2135  1.1165
66447SOL     OW 5945   7.796  10.920   9.185 -0.3358  0.0939 -0.1087
66447SOL    HW1 5946   7.867  10.898   9.244 -0.5951 -1.2044 -0.2491
66447SOL    HW2 5947   7.728  10.958   9.242  1.2884  3.6265 -0.2633
66448SOL     OW 5948  10.753   1.693  11.177  0.1814 -0.3842 -0.1522
66448SOL    HW1 5949  10.739   1.687  11.082 -1.2031 -1.2734  0.0749
66448SOL    HW2 5950  10.665   1.700  11.214  0.6824 -0.3815  1.0911
66449SOL     OW 5951  10.911   6.233  10.671 -0.5454 -0.4044  0.1862
66449SOL    HW1 5952  10.945   6.275  10.751 -0.6998  1.8141 -0.8482
66449SOL    HW2 5953  10.843   6.292  10.639 -1.9092 -2.2542 -0.5524
66450SOL     OW 5954   3.799  10.356   4.656  0.4119 -0.0528  0.0577
66450SOL    HW1 5955   3.852  10.413   4.711  0.3686 -0.3050  0.3580
66450SOL    HW2 5956   3.862  10.297   4.615  0.3412 -0.5130  0.6039
66451SOL     OW 5957   8.225   4.905   1.997  0.0081 -0.0347 -0.0336
66451SOL    HW1 5958   8.140   4.862   1.994 -0.7128  1.3668 -0.6363
66451SOL    HW2 5959   8.247   4.922   1.906  0.9683 -0.4273  0.1128
66452SOL     OW 5960   8.738   6.552  12.469  0.1457 -0.0760  0.0548
66452SOL    HW1 5961   8.649   6.525  12.451  0.0030  0.8193 -0.6593
66452SOL    HW2 5962   8.789   6.518  12.396  0.3124 -0.1581  0.2061
66453SOL     OW 5963  10.962   3.553   0.894  0.2556 -0.1558 -0.0491
66453SOL    HW1 5964  10.899   3.552   0.966  1.0479 -0.3461  0.6453
66453SOL    HW2 5965  10.967   3.646   0.869  0.2673 -0.0357  0.3909
66454SOL     OW 5966   5.911   0.260   1.011  0.2790 -0.0730 -0.5039
66454SOL    HW1 5967   5.886   0.332   0.953 -1.2208 -0.1705 -0.0473
66454SOL    HW2 5968   5.996   0.285   1.045 -1.0528  2.5880  1.2571
66455SOL     OW 5969   6.233   0.492   3.548 -0.2055  0.4339  0.4427
66455SOL    HW1 5970   6.245   0.473   3.455 -0.5452  1.9067  0.0640
66455SOL    HW2 5971   6.140   0.512   3.557 -0.1049  0.6874  1.0105
66456SOL     OW 5972   4.034   7.746   3.372 -0.3262  0.5452 -0.7952
66456SOL    HW1 5973   3.956   7.763   3.320  1.0105  0.5625 -2.9417
66456SOL    HW2 5974   4.051   7.653   3.359 -1.1005  0.0384  1.3841
66457SOL     OW 5975   1.191   6.901   6.839  0.0229  0.6911  0.1230
66457SOL    HW1 5976   1.257   6.878   6.905 -0.9738  1.0950  1.2881
66457SOL    HW2 5977   1.111   6.916   6.889 -1.8572 -2.8045 -1.4655
66458SOL     OW 5978   0.806  11.805   1.440 -0.5367 -0.0014 -0.7281
66458SOL    HW1 5979   0.723  11.853   1.451  0.2038  1.4505 -1.1637
66458SOL    HW2 5980   0.783  11.714   1.454 -1.7787  0.5853  1.4606
66459SOL     OW 5981   8.415   0.219   0.408 -0.0464  0.2274  0.0141
66459SOL    HW1 5982   8.483   0.206   0.343  1.1539  0.6151  1.1530
66459SOL    HW2 5983   8.428   0.309   0.438  1.9458 -1.0420  3.4939
66460SOL     OW 5984   8.491   8.880  10.547  0.9472  0.2653 -0.2705
66460SOL    HW1 5985   8.581   8.881  10.516  0.8905  1.2084 -0.4274
66460SOL    HW2 5986   8.468   8.973  10.556  0.3680  0.0260  0.8411
66461SOL     OW 5987   9.340   1.306   8.094  0.4059 -0.0377 -0.1061
66461SOL    HW1 5988   9.302   1.393   8.107 -0.4444 -0.2976 -0.7466
66461SOL    HW2 5989   9.317   1.258   8.174 -0.0331  0.0159 -0.1959
66462SOL     OW 5990  10.488   7.355   9.810  0.3051  0.2664  0.3442
66462SOL    HW1 5991  10.416   7.316   9.760 -0.1299  0.4716  0.8022
66462SOL    HW2 5992  10.509   7.289   9.877  0.2500  0.3868  0.4812
66463SOL     OW 5993  12.780   8.363   2.967  0.1465  0.3499  0.2900
66463SOL    HW1 5994  12.699   8.412   2.951 -0.6825 -0.0230  2.8764
66463SOL    HW2 5995  12.782   8.297   2.898 -3.0689 -1.1265  1.3759
66464SOL     OW 5996   0.676   6.674   6.786 -0.0192  0.2599  0.4292
66464SOL    HW1 5997   0.764   6.644   6.805  0.2348  1.3869  1.1541
66464SOL    HW2 5998   0.674   6.764   6.819 -1.1101  0.6117 -0.5330
66465SOL     OW 5999   0.222   0.665   5.192  0.5175  0.3318 -0.3028
66465SOL    HW1 6000   0.215   0.744   5.139 -0.1913  0.8022  0.4666
66465SOL    HW2 6001   0.244   0.696   5.279  0.9021 -0.3790 -0.1361
66466SOL     OW 6002   9.285   8.432   1.895 -0.2002 -0.8259  0.0465
66466SOL    HW1 6003   9.272   8.371   1.968 -0.6793  0.0538  0.7251
66466SOL    HW2 6004   9.345   8.498   1.930  2.6414 -2.3625 -1.5957
66467SOL     OW 6005   4.174   6.726  10.226 -0.4763 -0.2858 -0.9227
66467SOL    HW1 6006   4.153   6.774  10.145  1.3838  0.5771 -0.9444
66467SOL    HW2 6007   4.227   6.787  10.277  0.6205 -1.7614 -0.2244
66468SOL     OW 6008   6.577  10.070  10.705  0.2451  0.0367  0.1953
66468SOL    HW1 6009   6.633  10.124  10.761 -0.9763  1.2669  0.2833
66468SOL    HW2 6010   6.489  10.082  10.740 -0.5814  0.9078 -1.9935
66469SOL     OW 6011  11.755  12.279  11.216 -0.1440  0.0155  0.0751
66469SOL    HW1 6012  11.755  12.367  11.176 -0.0375 -0.9179 -2.1067
66469SOL    HW2 6013  11.813  12.288  11.292  0.4889  1.6457 -0.5411
66470SOL     OW 6014   6.897   4.403   5.207 -0.1973  0.0174 -0.3438
66470SOL    HW1 6015   6.845   4.449   5.141 -3.5820 -1.4624  1.0722
66470SOL    HW2 6016   6.952   4.343   5.157  0.6949  2.0188 -1.9296
66471SOL     OW 6017   5.689   7.178   0.208  0.6657 -0.0877  0.3724
66471SOL    HW1 6018   5.691   7.084   0.189  3.0732  0.1266 -0.7962
66471SOL    HW2 6019   5.658   7.218   0.126 -0.3287  0.1490  0.8571
66472SOL     OW 6020  12.308  11.393   8.569  0.5992  0.1348  0.1606
66472SOL    HW1 6021  12.347  11.476   8.544 -0.0258  0.0779 -1.0865
66472SOL    HW2 6022  12.378  11.329   8.557  1.2522  0.5209  1.6553
66473SOL     OW 6023   3.441   9.482   6.960 -0.1192  0.3703 -0.2520
66473SOL    HW1 6024   3.509   9.505   6.897 -1.0124  0.3973 -1.2316
66473SOL    HW2 6025   3.368   9.540   6.938  0.2591  1.8880  2.1876
66474SOL     OW 6026   8.949   5.332   3.144 -0.9449 -0.1771 -0.0406
66474SOL    HW1 6027   8.990   5.414   3.169 -0.9665 -0.2514  0.2369
66474SOL    HW2 6028   8.863   5.335   3.186 -0.0610 -1.3940  1.9439
66475SOL     OW 6029  12.292   1.733   9.074 -0.1678 -0.1642  0.4454
66475SOL    HW1 6030  12.365   1.684   9.111  0.7642  0.2565 -0.7653
66475SOL    HW2 6031  12.230   1.665   9.045 -0.1778 -0.5293  1.2974
66476SOL     OW 6032   8.143   8.990   4.275 -0.2364 -0.0014 -0.0871
66476SOL    HW1 6033   8.168   9.012   4.185 -0.1608  2.0494  0.3790
66476SOL    HW2 6034   8.221   8.948   4.312  1.6260  3.4477  0.3710
66477SOL     OW 6035   3.611   9.332   5.879  0.2198 -0.1830 -0.6106
66477SOL    HW1 6036   3.702   9.344   5.906  0.1837  1.9467 -1.2523
66477SOL    HW2 6037   3.604   9.239   5.861  1.1885 -1.1808  3.2043
66478SOL     OW 6038  10.469   6.957  12.768 -0.2562  0.2165  0.0064
66478SOL    HW1 6039  10.460   7.011  12.846  0.8633  0.2688  0.1111
66478SOL    HW2 6040  10.379   6.929  12.747 -0.6092  0.5329  1.0661
66479SOL     OW 6041   9.109   1.073   3.229  0.2744 -0.2363 -0.7563
66479SOL    HW1 6042   9.034   1.117   3.269  0.6042  0.5286 -0.9772
66479SOL    HW2 6043   9.088   1.070   3.136  0.0801 -0.9082 -0.7030
66480SOL     OW 6044  10.896   2.981   8.516 -0.2734  0.3574  0.2366
66480SOL    HW1 6045  10.922   3.001   8.606 -2.7925 -0.9838  1.3547
66480SOL    HW2 6046  10.866   2.890   8.518 -1.8690  0.7609 -1.5622
66481SOL     OW 6047   1.263   7.179   5.117 -0.0129 -0.2591  0.3693
66481SOL    HW1 6048   1.294   7.100   5.162  0.6940 -0.0810  0.2031
66481SOL    HW2 6049   1.327   7.194   5.048  0.1356  0.7357  0.7055
66482SOL     OW 6050   3.425  11.438   2.670  0.0450 -0.8046  0.0927
66482SOL    HW1 6051   3.360  11.458   2.737 -1.9622  0.7393 -2.1787
66482SOL    HW2 6052   3.497  11.499   2.687 -0.0541 -0.9996  1.2906
66483SOL     OW 6053   6.944   8.652   6.009  0.0906  0.7627  0.3750
66483SOL    HW1 6054   6.970   8.587   5.944 -0.0596  0.8166  0.2597
66483SOL    HW2 6055   7.020   8.661   6.066  0.5280  1.3149 -0.2783
66484SOL     OW 6056  10.205  11.294   9.259  0.0994  0.6990  0.4532
66484SOL    HW1 6057  10.160  11.353   9.198  1.0856  1.7010  0.6665
66484SOL    HW2 6058  10.169  11.316   9.345  0.8179  1.3568  0.5969
66485SOL     OW 6059   1.165   7.302  12.514  0.2065  0.5022 -0.0958
66485SOL    HW1 6060   1.076   7.309  12.550 -0.3969 -1.2711 -1.1344
66485SOL    HW2 6061   1.178   7.383  12.466 -0.3914  1.2900  1.0251
66486SOL     OW 6062   4.541   7.389   1.791  0.1060 -0.0414 -0.3311
66486SOL    HW1 6063   4.530   7.438   1.873  0.4217 -0.3513 -0.0986
66486SOL    HW2 6064   4.543   7.297   1.819  1.5858 -0.0838 -0.5298
66487SOL     OW 6065   8.729   7.248   7.083  0.1872  0.0548 -0.2211
66487SOL    HW1 6066   8.769   7.234   7.168  0.0360  1.1162  0.0314
66487SOL    HW2 6067   8.709   7.160   7.052  0.8037 -0.3770  0.5590
66488SOL     OW 6068   8.395   3.825  12.753 -0.0120 -0.1982  0.2672
66488SOL    HW1 6069   8.304   3.855  12.753 -0.9774 -2.8502 -0.4576
66488SOL    HW2 6070   8.415   3.813  12.846 -1.0571 -1.2671  0.3854
66489SOL     OW 6071   7.594   1.159   3.953  0.1486 -0.0733 -0.0718
66489SOL    HW1 6072   7.671   1.110   3.982 -1.3614 -0.6491  3.3020
66489SOL    HW2 6073   7.520   1.101   3.971 -1.4746  2.3674  1.5975
66490SOL     OW 6074   7.515   7.053  11.531 -0.6315 -0.4641  0.2723
66490SOL    HW1 6075   7.488   7.042  11.440 -1.2928  1.0167  0.2587
66490SOL    HW2 6076   7.528   6.964  11.563  1.0444 -1.0051 -1.6740
66491SOL     OW 6077   6.381   0.093  10.607 -0.5494 -0.2805 -0.1728
66491SOL    HW1 6078   6.291   0.114  10.631  0.1436  0.8495  1.5567
66491SOL    HW2 6079   6.415   0.172  10.566  0.1411 -0.1358  0.6530
66492SOL     OW 6080   1.239   7.315   9.932  0.2687  0.4161 -0.0278
66492SOL    HW1 6081   1.254   7.258  10.007  0.2438 -0.9191 -1.0075
66492SOL    HW2 6082   1.163   7.368   9.956 -0.3786 -0.7138  0.4861
66493SOL     OW 6083   0.777   9.219  12.697 -0.6490 -0.2835 -0.0558
66493SOL    HW1 6084   0.727   9.290  12.657 -2.2191 -0.5554  1.3040
66493SOL    HW2 6085   0.728   9.139  12.674  0.1713 -0.7669 -0.1784
66494SOL     OW 6086   1.546   7.551   0.883 -0.5410  0.2524 -0.0298
66494SOL    HW1 6087   1.621   7.508   0.842 -2.2717 -0.9539 -2.1620
66494SOL    HW2 6088   1.542   7.637   0.840  0.6324  1.0725  1.4180
66495SOL     OW 6089  11.913   2.571   4.257  0.5716  0.6008 -0.5518
66495SOL    HW1 6090  11.838   2.575   4.197  1.5948 -2.2474 -2.1624
66495SOL    HW2 6091  11.977   2.632   4.220  0.1947  0.8439 -0.8113
66496SOL     OW 6092   6.517   3.831  12.515 -0.1764  0.1847  0.4722
66496SOL    HW1 6093   6.502   3.809  12.607  1.2328  1.2233  0.9920
66496SOL    HW2 6094   6.560   3.753  12.479 -0.1294  0.0230  0.8752
66497SOL     OW 6095   5.182   3.199   6.054  0.1192  0.2574 -0.0350
66497SOL    HW1 6096   5.090   3.216   6.073 -0.2303 -0.3922 -1.0244
66497SOL    HW2 6097   5.182   3.168   5.963  0.9861 -2.1794  0.7052
66498SOL     OW 6098   6.581   5.521  12.143 -0.0711  0.4962  0.0608
66498SOL    HW1 6099   6.573   5.502  12.049 -0.2269 -1.2061  0.3892
66498SOL    HW2 6100   6.662   5.478  12.170  0.3518  1.5836  0.5843
66499SOL     OW 6101  12.755   0.983   1.412  0.1517 -0.2148 -0.4142
66499SOL    HW1 6102  12.693   1.000   1.483  1.0319 -2.4319  0.9578
66499SOL    HW2 6103  12.817   1.055   1.416  0.4631 -0.5541  1.4095
66500SOL     OW 6104   1.249   6.090  12.554 -0.3375 -0.0040 -0.2034
66500SOL    HW1 6105   1.274   6.117  12.642  2.2722  2.0037 -1.4049
66500SOL    HW2 6106   1.188   6.157  12.524 -1.6576 -0.9817  0.2079
66501SOL     OW 6107   2.484   4.043   7.249  0.2805  0.5350 -1.0292
66501SOL    HW1 6108   2.413   4.002   7.200 -0.8654  1.7454 -0.4405
66501SOL    HW2 6109   2.441   4.108   7.305  1.8310  1.1992 -0.5423
66502SOL     OW 6110  12.255   1.887   4.251  0.0397  0.1148 -0.4474
66502SOL    HW1 6111  12.181   1.833   4.281  0.6525 -0.1351  0.6691
66502SOL    HW2 6112  12.268   1.950   4.321  3.1575 -2.0777  1.1947
66503SOL     OW 6113   0.125   5.032   0.859 -0.2897 -0.7428 -0.1835
66503SOL    HW1 6114   0.117   5.071   0.945  1.7233  0.4178 -0.4503
66503SOL    HW2 6115   0.143   5.105   0.800 -0.0782 -1.6676 -1.3245
66504SOL     OW 6116   9.602   8.014   2.135  0.5773  0.3282  0.0224
66504SOL    HW1 6117   9.620   7.991   2.226 -0.7950 -0.5981  0.0937
66504SOL    HW2 6118   9.593   8.109   2.135 -3.3103  0.1398  1.7049
66505SOL     OW 6119   6.387   5.969   5.442  0.1626  0.0759  0.4918
66505SOL    HW1 6120   6.463   5.911   5.443  0.2927  0.2201 -0.1770
66505SOL    HW2 6121   6.327   5.932   5.506  0.3677 -0.6283  0.2861
66506SOL     OW 6122   6.820   6.613   0.553 -0.8870  1.1280 -0.0536
66506SOL    HW1 6123   6.733   6.585   0.526  0.4109 -1.1634 -2.2656
66506SOL    HW2 6124   6.877   6.591   0.479  1.5851  2.6624  1.2357
66507SOL     OW 6125   6.282   4.516   1.416  0.0934  0.1711  0.3159
66507SOL    HW1 6126   6.290   4.446   1.351  1.5210  0.4942  0.1227
66507SOL    HW2 6127   6.209   4.489   1.471  0.4107 -1.3153  0.0444
66508SOL     OW 6128   9.517  12.251   4.517  0.0643 -0.2375 -0.4403
66508SOL    HW1 6129   9.573  12.173   4.519 -0.2320 -0.4426  0.9199
66508SOL    HW2 6130   9.509  12.277   4.609 -2.2379 -0.3301 -0.5711
66509SOL     OW 6131   7.555  11.171   2.976 -1.2058  0.3458 -0.3439
66509SOL    HW1 6132   7.518  11.207   2.895 -3.1485  0.7309  0.6481
66509SOL    HW2 6133   7.481  11.168   3.036 -0.1972 -1.5825  0.8950
66510SOL     OW 6134   7.120   3.430  11.504 -0.1775  0.3845 -0.8795
66510SOL    HW1 6135   7.168   3.445  11.422 -0.7850 -0.5505 -1.4306
66510SOL    HW2 6136   7.073   3.511  11.521 -1.8540 -0.1290 -2.7115
66511SOL     OW 6137   4.409   8.527   4.569  0.2124 -0.4364 -0.0505
66511SOL    HW1 6138   4.391   8.585   4.642  2.0107  1.5137 -1.0461
66511SOL    HW2 6139   4.470   8.462   4.604 -0.3160 -0.6035  0.5878
66512SOL     OW 6140  11.437   3.786   2.420  0.3926  0.2183  0.0539
66512SOL    HW1 6141  11.480   3.843   2.356  1.5833 -0.6587  0.0496
66512SOL    HW2 6142  11.508   3.743   2.467 -0.3745 -2.6599 -1.1692
66513SOL     OW 6143  10.372   0.232   7.013 -0.2214  0.3099  0.1251
66513SOL    HW1 6144  10.458   0.199   6.988 -1.2246 -2.4877  0.0824
66513SOL    HW2 6145  10.389   0.290   7.087  1.9440  2.2411 -1.7240
66514SOL     OW 6146   5.015   8.210   2.379  0.7184 -0.1742 -0.0647
66514SOL    HW1 6147   4.947   8.197   2.445  1.9410 -1.1334  1.0452
66514SOL    HW2 6148   4.968   8.247   2.304 -1.0405 -0.9096  0.6203
66515SOL     OW 6149   0.926   0.867  10.690 -0.2600 -0.5181  0.2277
66515SOL    HW1 6150   0.976   0.939  10.729  0.5510 -1.0590  0.2145
66515SOL    HW2 6151   0.863   0.910  10.633  1.1610  0.1517 -0.9045
66516SOL     OW 6152   9.919   1.915   1.405  0.1713 -0.0433  0.3833
66516SOL    HW1 6153   9.882   1.864   1.333  0.0735  0.1109  0.3216
66516SOL    HW2 6154   9.843   1.940   1.458  0.1580  0.4811  0.1214
66517SOL     OW 6155  10.078   4.479   0.402 -0.5909  0.2355  0.3529
66517SOL    HW1 6156  10.112   4.491   0.313  0.2995 -3.2957  0.0649
66517SOL    HW2 6157   9.992   4.439   0.389 -1.3938  1.6626  1.1186
66518SOL     OW 6158   9.928   8.421   8.214  0.2077  0.1004  0.1078
66518SOL    HW1 6159   9.923   8.326   8.206  2.0704  0.0377 -0.8575
66518SOL    HW2 6160   9.919   8.438   8.308 -0.6335 -0.9677  0.2417
66519SOL     OW 6161   9.517   9.027   8.692  0.0786  0.6733 -0.5035
66519SOL    HW1 6162   9.526   8.996   8.782 -1.3234 -1.3229 -1.0094
66519SOL    HW2 6163   9.607   9.027   8.658  0.5689  1.0497  0.7306
66520SOL     OW 6164   9.713  12.217  11.029 -0.0153 -0.4088 -0.4129
66520SOL    HW1 6165   9.731  12.270  10.951 -1.2406 -0.8760 -1.0344
66520SOL    HW2 6166   9.800  12.202  11.067  0.5586  0.2703 -1.3797
66521SOL     OW 6167   9.872  10.225   8.889 -0.4153  0.3479 -0.1314
66521SOL    HW1 6168   9.819  10.208   8.811 -0.5018 -1.7278  0.3146
66521SOL    HW2 6169   9.927  10.147   8.898  2.0475  2.0149 -0.0053
66522SOL     OW 6170   9.494  10.240   1.243 -0.4636  0.1364 -0.5665
66522SOL    HW1 6171   9.400  10.255   1.252 -0.6538  0.0437 -2.0923
66522SOL    HW2 6172   9.526  10.316   1.194 -0.0003 -0.4650 -1.2280
66523SOL     OW 6173   2.175   7.065   7.026  0.8605  0.5146 -0.3133
66523SOL    HW1 6174   2.236   7.078   6.953 -0.0752 -0.1560 -1.2322
66523SOL    HW2 6175   2.131   6.982   7.007  0.1206  0.6608  0.6694
66524SOL     OW 6176  12.160   4.429   1.000 -0.4335  0.2400 -0.7996
66524SOL    HW1 6177  12.242   4.397   0.962 -0.0268  1.1460 -0.7043
66524SOL    HW2 6178  12.187   4.492   1.067 -1.1936  0.0303 -0.2774
66525SOL     OW 6179   7.081   6.932   8.144  0.6220 -0.0769 -0.2166
66525SOL    HW1 6180   7.041   7.014   8.175 -0.4255  0.4786 -2.8089
66525SOL    HW2 6181   7.160   6.923   8.197  0.8456  2.6988  0.0752
66526SOL     OW 6182  12.625   6.732   1.272  0.1777 -0.1920 -0.1551
66526SOL    HW1 6183  12.550   6.737   1.330  0.0674  0.8628 -0.3596
66526SOL    HW2 6184  12.659   6.644   1.283 -1.0284 -0.6557  0.0175
66527SOL     OW 6185   9.534   1.506   9.692  0.2782  0.1392 -0.5726
66527SOL    HW1 6186   9.564   1.501   9.601  1.6863  1.1331 -0.1975
66527SOL    HW2 6187   9.604   1.465   9.743 -1.0247 -1.4809  0.0056
66528SOL     OW 6188   2.264   3.854   0.308 -0.0971  1.1109  0.0727
66528SOL    HW1 6189   2.210   3.871   0.231 -0.4783 -0.1935  0.0386
66528SOL    HW2 6190   2.204   3.859   0.382 -0.4319 -0.9157 -0.0130
66529SOL     OW 6191   6.368   7.366   5.141 -0.3253 -0.1753  0.3006
66529SOL    HW1 6192   6.338   7.440   5.194 -0.9798 -0.3637  0.1967
66529SOL    HW2 6193   6.383   7.404   5.054 -0.2804 -0.0853  0.3471
66530SOL     OW 6194  11.277  12.627   5.545 -0.1089  0.4006 -0.1659
66530SOL    HW1 6195  11.365  12.629   5.507 -0.2342  1.3329 -0.4344
66530SOL    HW2 6196  11.272  12.706   5.598 -1.0221  0.7379 -0.7295
66531SOL     OW 6197   9.346   9.842   4.130  0.1411  0.3440  0.4420
66531SOL    HW1 6198   9.327   9.886   4.047  0.8757  0.5582  0.3738
66531SOL    HW2 6199   9.442   9.834   4.131  0.0442 -1.1227  0.5195
66532SOL     OW 6200   1.460   2.320   8.692  0.4180 -0.0244  0.1145
66532SOL    HW1 6201   1.456   2.330   8.597  1.1202  1.4665  0.2106
66532SOL    HW2 6202   1.537   2.265   8.707  1.4617  1.3110 -0.1293
66533SOL     OW 6203   2.099   1.264   8.506 -0.1579  0.1725 -0.5875
66533SOL    HW1 6204   2.030   1.197   8.512  1.2658 -1.4690 -1.4842
66533SOL    HW2 6205   2.144   1.258   8.590  0.0401 -0.1087 -0.7091
66534SOL     OW 6206   2.300  12.527   6.906  0.3959 -0.4821 -0.0751
66534SOL    HW1 6207   2.342  12.445   6.880  2.2508 -0.3751  2.2841
66534SOL    HW2 6208   2.229  12.501   6.965 -0.2458 -0.4423 -0.8058
66535SOL     OW 6209   4.440   4.757  10.386  0.3900 -0.3747 -0.3885
66535SOL    HW1 6210   4.468   4.847  10.368  1.1349 -0.5158  0.0091
66535SOL    HW2 6211   4.455   4.711  10.303 -2.4326  0.3934 -1.4387
66536SOL     OW 6212   8.814   4.969   8.964 -0.2123  0.3158  0.3477
66536SOL    HW1 6213   8.791   5.038   8.902 -2.3542 -0.6153 -0.0012
66536SOL    HW2 6214   8.788   4.888   8.919  1.9649 -0.7366  0.8478
66537SOL     OW 6215   9.481   1.166   7.907  0.3422  0.2956 -0.3863
66537SOL    HW1 6216   9.565   1.211   7.893 -0.9414  2.4344 -1.8176
66537SOL    HW2 6217   9.435   1.220   7.971  0.1085 -0.9864  0.5579
66538SOL     OW 6218  12.025  11.696   2.861  0.4490 -0.4460 -0.3264
66538SOL    HW1 6219  12.028  11.778   2.811  0.1631 -0.1979  0.0532
66538SOL    HW2 6220  12.006  11.629   2.795  0.2448 -0.1486 -0.5764
66539SOL     OW 6221   3.734   7.270   6.512 -0.6209 -0.3546 -0.2798
66539SOL    HW1 6222   3.736   7.302   6.422 -1.5814  2.9129  0.6895
66539SOL    HW2 6223   3.825   7.275   6.541 -0.6537  1.1458 -0.3472
66540SOL     OW 6224   4.188   7.213   6.131  0.7865  0.1271 -0.7526
66540SOL    HW1 6225   4.114   7.251   6.085 -0.6070 -1.1477  0.3332
66540SOL    HW2 6226   4.232   7.288   6.172 -1.3399  0.7261  0.5877
66541SOL     OW 6227  10.612   1.006   2.728  0.3034 -0.4059 -0.3409
66541SOL    HW1 6228  10.546   1.023   2.661 -0.2243 -1.4105 -0.0935
66541SOL    HW2 6229  10.562   0.993   2.809  0.8809 -0.0408  0.0869
66542SOL     OW 6230   7.935   8.138   8.135 -0.3388 -0.1559  0.5756
66542SOL    HW1 6231   7.853   8.102   8.168 -0.6793 -0.9193 -1.0200
66542SOL    HW2 6232   7.911   8.183   8.054  0.5564  1.1788  1.0168
66543SOL     OW 6233   2.335   3.533  12.003 -0.6764  0.6769 -0.2742
66543SOL    HW1 6234   2.366   3.488  11.924 -1.4086 -1.5630  0.6405
66543SOL    HW2 6235   2.240   3.533  11.994 -0.7514  0.6103  0.5021
66544SOL     OW 6236   9.833   1.487  10.443 -0.2783  0.3023  0.1269
66544SOL    HW1 6237   9.835   1.414  10.381 -0.4601 -0.5727  1.1155
66544SOL    HW2 6238   9.869   1.450  10.524  1.0318  1.7376  0.2294
66545SOL     OW 6239  10.500   1.590   4.391 -0.2137 -0.1508  0.4314
66545SOL    HW1 6240  10.484   1.532   4.316 -1.9832  1.0467 -0.1867
66545SOL    HW2 6241  10.536   1.670   4.353 -0.7996  0.3372  0.8779
66546SOL     OW 6242   4.976   1.174   9.598  0.1351 -0.1452 -0.1644
66546SOL    HW1 6243   5.011   1.258   9.628  0.7957 -0.6485  0.5316
66546SOL    HW2 6244   4.945   1.191   9.509  2.5158  0.2494 -0.9926
66547SOL     OW 6245   1.431   3.406   1.578  0.0382  0.2660 -0.0185
66547SOL    HW1 6246   1.522   3.411   1.549 -0.0399  1.0538 -0.1474
66547SOL    HW2 6247   1.428   3.459   1.657 -0.0815 -0.6429  0.6013
66548SOL     OW 6248   4.398  11.487   9.241 -0.4147  0.0039 -0.1615
66548SOL    HW1 6249   4.491  11.493   9.260 -0.1072 -0.1382 -1.5327
66548SOL    HW2 6250   4.355  11.522   9.319  0.8163  1.7883 -0.2234
66549SOL     OW 6251   0.667  10.142  12.143 -0.6388 -0.2872 -0.1950
66549SOL    HW1 6252   0.612  10.220  12.131  0.6024  0.4645 -1.2170
66549SOL    HW2 6253   0.756  10.173  12.127 -0.1390 -1.9618 -0.7581
66550SOL     OW 6254   9.993   1.145   1.614  0.3610 -0.1681  0.1058
66550SOL    HW1 6255  10.075   1.102   1.636  0.0656 -0.5977  0.3872
66550SOL    HW2 6256   9.963   1.100   1.535  1.2715  1.1719 -1.0571
66551SOL     OW 6257   0.137   7.498   5.368 -0.4804  0.0151 -0.2777
66551SOL    HW1 6258   0.169   7.455   5.448  0.4054  0.1699 -0.5338
66551SOL    HW2 6259   0.216   7.513   5.316 -1.0242  0.1075 -1.0964
66552SOL     OW 6260   7.962  11.784   2.077  0.6159  0.3691  0.5201
66552SOL    HW1 6261   7.903  11.822   2.142  0.6139  2.2819 -0.5038
66552SOL    HW2 6262   7.959  11.690   2.093 -1.7608  0.5108  1.2704
66553SOL     OW 6263  10.373   4.643   4.248  0.1398 -0.3975 -0.3756
66553SOL    HW1 6264  10.392   4.596   4.329  0.3713 -0.7489 -0.6299
66553SOL    HW2 6265  10.350   4.574   4.185  0.0378 -0.1336 -0.6309
66554SOL     OW 6266   4.052   6.430   5.655 -0.0465  0.3839 -0.1237
66554SOL    HW1 6267   4.026   6.367   5.588  0.2858  0.9480 -0.7975
66554SOL    HW2 6268   4.147   6.419   5.663 -0.4683 -2.3156  2.9864
66555SOL     OW 6269   8.773   8.869   2.993  0.2511 -0.3611 -0.3636
66555SOL    HW1 6270   8.771   8.783   2.951 -2.2840 -0.3561 -0.4457
66555SOL    HW2 6271   8.711   8.922   2.943 -1.1186  0.3498  1.8950
66556SOL     OW 6272  12.100   8.485   1.628  0.1180 -0.4281  0.1174
66556SOL    HW1 6273  12.147   8.554   1.676  2.4055 -1.5378 -0.3824
66556SOL    HW2 6274  12.016   8.525   1.605  1.0964  1.9695  0.3867
66557SOL     OW 6275   6.154   2.726   9.576 -0.1405 -0.8562 -0.8689
66557SOL    HW1 6276   6.146   2.653   9.637  2.6425  0.5149  1.3724
66557SOL    HW2 6277   6.071   2.774   9.583  0.3496 -0.2738  2.6504
66558SOL     OW 6278   1.658   7.535   5.444 -0.2238  0.2188  0.2265
66558SOL    HW1 6279   1.742   7.489   5.439 -0.3349 -0.2210  1.7910
66558SOL    HW2 6280   1.682   7.627   5.451  0.0558  0.2561 -0.9570
66559SOL     OW 6281  11.788   6.727   6.332  0.2561  0.0303  0.4156
66559SOL    HW1 6282  11.730   6.791   6.292 -2.8879 -2.3746  0.6793
66559SOL    HW2 6283  11.813   6.669   6.260  1.4955  0.4055  0.5179
66560SOL     OW 6284   0.083   3.718   5.442  0.2221 -0.2719  0.3984
66560SOL    HW1 6285  -0.003   3.743   5.408 -1.0836 -2.4022  1.9268
66560SOL    HW2 6286   0.101   3.783   5.510 -1.2865 -1.0660  1.6238
66561SOL     OW 6287   9.519   5.252   3.008 -0.3301  0.0553  1.2125
66561SOL    HW1 6288   9.487   5.185   3.070 -2.2110  2.7311  3.3769
66561SOL    HW2 6289   9.586   5.299   3.058 -0.2567  0.8595  0.3603
66562SOL     OW 6290   2.223   3.655   7.785  0.9162 -0.3437 -0.1535
66562SOL    HW1 6291   2.202   3.664   7.692 -0.2039  1.2286  0.2198
66562SOL    HW2 6292   2.295   3.591   7.786 -0.3017 -1.8675 -1.9158
66563SOL     OW 6293   9.702   5.742  10.621 -0.5838  0.3098 -0.3808
66563SOL    HW1 6294   9.616   5.777  10.594  0.7385  2.9222 -1.5728
66563SOL    HW2 6295   9.704   5.753  10.716 -1.2047  1.1348 -0.4530
66564SOL     OW 6296  12.645   4.440   4.774 -0.5893  0.3595 -0.8122
66564SOL    HW1 6297  12.590   4.467   4.701 -0.4911  1.1969 -0.5893
66564SOL    HW2 6298  12.730   4.421   4.734 -0.9842 -0.7865 -1.1335
66565SOL     OW 6299   3.838  12.538   6.921 -0.2150 -0.4810  0.1500
66565SOL    HW1 6300   3.861  12.585   7.000 -0.4440  1.4625 -0.8722
66565SOL    HW2 6301   3.784  12.600   6.871 -1.1567 -2.1039 -0.9566
66566SOL     OW 6302   1.493   3.136   6.681 -0.4487 -0.1088  0.0538
66566SOL    HW1 6303   1.536   3.153   6.597 -0.2218 -0.7493  0.0382
66566SOL    HW2 6304   1.539   3.191   6.743  0.5302 -0.9209  0.0735
66567SOL     OW 6305  10.681   3.422  11.196  0.7001 -0.1233  0.1086
66567SOL    HW1 6306  10.688   3.350  11.259  0.2866 -1.7254 -1.6124
66567SOL    HW2 6307  10.709   3.499  11.246  1.8114 -1.5532  1.8343
66568SOL     OW 6308   1.381   3.694   9.074  0.2894 -0.3733 -0.2223
66568SOL    HW1 6309   1.459   3.641   9.065  1.5095  1.1796  0.6615
66568SOL    HW2 6310   1.358   3.688   9.167 -0.4513 -0.5512 -0.4089
66569SOL     OW 6311  10.310   6.213   7.136  0.2168  0.5436  0.2855
66569SOL    HW1 6312  10.402   6.217   7.162  0.2670 -0.9858  0.3899
66569SOL    HW2 6313  10.306   6.144   7.070 -0.8488  0.6569  0.2093
66570SOL     OW 6314  10.947  11.059   4.373  0.2631  0.4146  0.0436
66570SOL    HW1 6315  11.043  11.058   4.364  0.2435 -0.5564 -0.1226
66570SOL    HW2 6316  10.930  11.000   4.446 -0.3589 -1.5013 -1.5652
66571SOL     OW 6317  10.013   1.405   3.696 -0.1036  0.0927 -0.2721
66571SOL    HW1 6318  10.104   1.385   3.718  0.0151 -0.3309 -1.1125
66571SOL    HW2 6319  10.016   1.494   3.661 -0.1620  0.4303  0.5489
66572SOL     OW 6320   7.340   4.658   1.699 -0.1991  0.1105  0.2315
66572SOL    HW1 6321   7.409   4.683   1.760  0.8931  0.1517 -0.9759
66572SOL    HW2 6322   7.299   4.740   1.674 -1.2213  0.0282  1.5080
66573SOL     OW 6323   0.827   6.972   7.642  0.2413 -0.2292  0.2021
66573SOL    HW1 6324   0.762   6.924   7.694  0.6809 -0.3581  0.6345
66573SOL    HW2 6325   0.778   7.004   7.567 -0.6882  1.0401  1.3110
66574SOL     OW 6326  11.923   2.265   6.492 -0.4857 -0.4688 -0.5419
66574SOL    HW1 6327  11.831   2.285   6.475 -0.5463 -0.6523 -0.4376
66574SOL    HW2 6328  11.944   2.196   6.429 -0.4845 -0.5883 -0.4104
66575SOL     OW 6329  10.522   8.455   3.659  0.2104 -0.1370 -0.3573
66575SOL    HW1 6330  10.617   8.466   3.652  0.4893 -2.3158 -0.8453
66575SOL    HW2 6331  10.498   8.502   3.738  1.8517 -0.2565  0.2522
66576SOL     OW 6332   8.448   6.123   8.974  0.3583  0.2734 -0.6208
66576SOL    HW1 6333   8.361   6.116   8.933  0.2395 -0.3194 -0.2702
66576SOL    HW2 6334   8.477   6.211   8.951  0.0450  0.1608 -1.4909
66577SOL     OW 6335   4.764  10.853   7.817 -0.0040 -0.6632 -0.1287
66577SOL    HW1 6336   4.733  10.870   7.728  1.3936  0.3084 -0.4563
66577SOL    HW2 6337   4.857  10.833   7.807  0.7582  1.7217  1.2771
66578SOL     OW 6338   3.904   9.312  11.603 -0.0358 -0.0564  0.4411
66578SOL    HW1 6339   3.878   9.357  11.522 -0.3906 -1.2762 -0.1368
66578SOL    HW2 6340   3.958   9.239  11.574  0.8209  0.1757  1.3973
66579SOL     OW 6341   5.496   5.975   0.448 -0.0988 -0.2227  0.1312
66579SOL    HW1 6342   5.430   6.031   0.407 -1.6739  2.5155  5.3822
66579SOL    HW2 6343   5.449   5.895   0.470  0.8566 -1.8650 -3.2951
66580SOL     OW 6344   3.008   6.169   7.097 -0.6960  0.7157 -0.0595
66580SOL    HW1 6345   3.053   6.089   7.071  1.5433  1.7962  0.2477
66580SOL    HW2 6346   2.924   6.139   7.133  0.2741 -1.5298  0.5110
66581SOL     OW 6347   4.834  10.532   5.492  0.0433  0.4823  0.3112
66581SOL    HW1 6348   4.817  10.492   5.578  0.7968 -1.6790 -0.4923
66581SOL    HW2 6349   4.785  10.478   5.430  2.1513 -0.0710 -0.9726
66582SOL     OW 6350   5.083   6.822   8.635 -0.5901  0.1561  0.2194
66582SOL    HW1 6351   5.177   6.826   8.622 -0.6260  0.2163 -0.0413
66582SOL    HW2 6352   5.064   6.893   8.697 -0.4469  0.0476  0.3873
66583SOL     OW 6353   1.884  10.562   1.773  0.4381  0.3674 -0.0429
66583SOL    HW1 6354   1.885  10.626   1.701 -0.9725  0.6323  0.1377
66583SOL    HW2 6355   1.802  10.515   1.761  2.6851 -3.5239 -1.9089
66584SOL     OW 6356   0.886   2.134   7.797  0.0651 -0.1303  0.1819
66584SOL    HW1 6357   0.829   2.148   7.722  0.0569 -0.1179  0.1904
66584SOL    HW2 6358   0.827   2.110   7.868 -0.1775  1.9331  0.7541
66585SOL     OW 6359   0.429   6.293  10.950  0.0109  0.1538  0.0212
66585SOL    HW1 6360   0.392   6.334  11.029 -0.6376 -0.1433 -0.1197
66585SOL    HW2 6361   0.492   6.230  10.984 -1.7955 -1.5201  0.4392
66586SOL     OW 6362   5.549   5.357   8.066  0.0421 -0.3230  0.2607
66586SOL    HW1 6363   5.619   5.406   8.023  0.6440 -0.3800  1.1615
66586SOL    HW2 6364   5.474   5.416   8.065  1.0180  1.0435  2.2163
66587SOL     OW 6365   2.161   1.110   9.027  0.6050 -0.1123 -0.6695
66587SOL    HW1 6366   2.255   1.112   9.043  0.5912 -0.1710 -0.5828
66587SOL    HW2 6367   2.146   1.180   8.964  1.0531 -1.5848 -2.5043
66588SOL     OW 6368   8.605   5.856   8.724  0.2674 -0.3434 -0.1788
66588SOL    HW1 6369   8.619   5.796   8.651 -1.1451  0.7758 -1.4329
66588SOL    HW2 6370   8.570   5.935   8.684 -0.4447  0.3531  1.7098
66589SOL     OW 6371   6.318   1.589  10.675  0.4521 -0.0033  0.6939
66589SOL    HW1 6372   6.256   1.518  10.654 -0.0378  1.1036 -2.0946
66589SOL    HW2 6373   6.405   1.550  10.659  0.3702 -0.7956  2.0678
66590SOL     OW 6374   7.068   2.593  12.437  0.3166  0.2445  0.7630
66590SOL    HW1 6375   7.024   2.526  12.385 -2.0437  0.3254  2.4971
66590SOL    HW2 6376   7.127   2.544  12.495  2.6882  0.1331 -1.5571
66591SOL     OW 6377   3.274   1.315   9.920  0.0213  0.4456 -0.6288
66591SOL    HW1 6378   3.349   1.370   9.899  0.9291 -0.2791  0.5938
66591SOL    HW2 6379   3.219   1.369   9.977 -0.8653  1.2785 -2.1850
66592SOL     OW 6380  10.727   9.232   0.747 -0.6523 -0.2226  0.1795
66592SOL    HW1 6381  10.781   9.193   0.679 -1.2322 -0.1750 -0.3214
66592SOL    HW2 6382  10.672   9.160   0.779 -1.5352  0.1037 -0.5598
66593SOL     OW 6383   0.519   7.731   8.318  0.0704  0.3558 -0.2277
66593SOL    HW1 6384   0.512   7.772   8.404 -0.0218  1.9382 -0.9529
66593SOL    HW2 6385   0.467   7.787   8.260  1.4261  0.2289 -1.6322
66594SOL     OW 6386   4.892   1.890   0.051 -0.5254  0.1990  0.3621
66594SOL    HW1 6387   4.798   1.900   0.039 -0.5475 -0.6656 -0.2927
66594SOL    HW2 6388   4.910   1.934   0.134 -1.3763  1.0078  0.1411
66595SOL     OW 6389   1.254   9.854   6.545  0.8972  0.2192  0.4389
66595SOL    HW1 6390   1.191   9.922   6.571  0.2127 -0.3785  0.3558
66595SOL    HW2 6391   1.265   9.801   6.624 -0.8259 -1.3173 -0.2994
66596SOL     OW 6392   7.741  11.060   2.619 -0.2357 -0.4252 -0.0175
66596SOL    HW1 6393   7.823  11.053   2.571 -0.0293 -0.1124  0.2845
66596SOL    HW2 6394   7.767  11.060   2.712 -0.5119  0.4205  0.0669
66597SOL     OW 6395  10.023   7.677   5.305  0.0754 -0.1949 -0.5220
66597SOL    HW1 6396   9.993   7.629   5.382  1.1359 -0.2712 -0.1465
66597SOL    HW2 6397   9.943   7.711   5.265 -0.4630  0.1065  0.7884
66598SOL     OW 6398  10.612  10.367   7.178 -0.2089  0.0685  0.4276
66598SOL    HW1 6399  10.525  10.402   7.197 -0.5093 -0.7018  0.5258
66598SOL    HW2 6400  10.621  10.292   7.237  1.1857  1.1001  1.5727
66599SOL     OW 6401   9.379   2.196   9.400  0.4701 -0.5293 -0.0215
66599SOL    HW1 6402   9.395   2.243   9.318  2.2273  0.4583  0.8414
66599SOL    HW2 6403   9.442   2.124   9.399  1.2979  0.1632  0.9663
66600SOL     OW 6404  12.314   6.302   1.743 -0.3947 -0.3174  0.2757
66600SOL    HW1 6405  12.259   6.379   1.753  0.3360  0.1599  0.7796
66600SOL    HW2 6406  12.361   6.295   1.826  1.8672  0.5594 -0.8389
66601SOL     OW 6407   5.838  10.186   0.100  0.0617  0.4310  0.4638
66601SOL    HW1 6408   5.915  10.134   0.122 -1.6607 -1.2351  3.2061
66601SOL    HW2 6409   5.790  10.131   0.037 -0.3861 -0.0699  1.2170
66602SOL     OW 6410   0.841   0.127   3.823  0.2090 -0.3964  0.0972
66602SOL    HW1 6411   0.930   0.122   3.787  0.1642  1.7059 -0.4296
66602SOL    HW2 6412   0.794   0.056   3.779  1.3895 -0.9617 -0.3069
66603SOL     OW 6413  12.571  11.061   1.447  0.7926 -0.3443 -0.0164
66603SOL    HW1 6414  12.611  11.143   1.420 -0.5624  0.2930 -0.1924
66603SOL    HW2 6415  12.477  11.080   1.452  0.5639 -1.5410  1.1534
66604SOL     OW 6416   5.680  10.836   3.434  0.5383 -0.0504  0.0305
66604SOL    HW1 6417   5.669  10.878   3.519  0.8041 -0.9176  0.5054
66604SOL    HW2 6418   5.676  10.908   3.371  1.4065  0.7453  0.8490
66605SOL     OW 6419  10.120  11.540   7.646 -0.1527  0.3264  0.6250
66605SOL    HW1 6420  10.050  11.488   7.607  1.5551 -0.2312 -1.9776
66605SOL    HW2 6421  10.179  11.475   7.685  0.7798  0.4426 -0.5385
66606SOL     OW 6422   1.930   5.277   1.992  0.1406  0.2005 -0.2451
66606SOL    HW1 6423   1.858   5.267   2.054  0.2214 -1.9626 -0.3995
66606SOL    HW2 6424   1.971   5.190   1.990  0.1564  0.1716 -3.2537
66607SOL     OW 6425  12.030  11.880  10.613 -0.1015  0.0963  0.1127
66607SOL    HW1 6426  11.975  11.941  10.662  0.3037  0.2051  0.4318
66607SOL    HW2 6427  12.105  11.932  10.585  0.2761 -0.2711  0.4318
66608SOL     OW 6428   0.382  12.689   9.706  0.4605 -0.1764 -0.3260
66608SOL    HW1 6429   0.468  12.652   9.685  0.0263 -1.1506 -0.4321
66608SOL    HW2 6430   0.385  12.777   9.670  1.4393 -0.1800 -0.2836
66609SOL     OW 6431   2.470   3.065   0.001  0.4270  0.0301 -0.0022
66609SOL    HW1 6432   2.440   3.154   0.019 -1.2577 -0.4592 -0.1691
66609SOL    HW2 6433   2.490   3.064  -0.092  0.9992  0.3694  0.1133
66610SOL     OW 6434   2.143   4.277   8.904  0.1632 -0.2802  0.5159
66610SOL    HW1 6435   2.190   4.360   8.902  1.2471 -0.8798  0.4416
66610SOL    HW2 6436   2.206   4.214   8.939 -0.6785 -1.0531  0.6886
66611SOL     OW 6437   5.288   1.205   9.472 -0.2832 -0.8142  0.5644
66611SOL    HW1 6438   5.314   1.122   9.511 -1.8275 -1.7009 -0.2239
66611SOL    HW2 6439   5.286   1.188   9.378  2.2275  0.9572  0.1013
66612SOL     OW 6440   9.132   8.951   5.596 -0.1020  0.2519  0.4803
66612SOL    HW1 6441   9.060   8.949   5.534  1.1977 -0.3780 -1.0660
66612SOL    HW2 6442   9.095   8.916   5.677 -1.6854  0.5677 -0.0687
66613SOL     OW 6443   9.802  12.620   4.807 -0.0179 -0.2347  0.2840
66613SOL    HW1 6444   9.774  12.608   4.716 -0.4748  1.7621  0.1160
66613SOL    HW2 6445   9.735  12.575   4.858 -0.6197 -0.0615 -0.3279
66614SOL     OW 6446   9.240   5.368  11.072  0.3146  0.1985  0.1569
66614SOL    HW1 6447   9.165   5.417  11.106 -0.0491 -0.2832  0.0522
66614SOL    HW2 6448   9.205   5.320  10.997  0.3122 -1.3696  1.1279
66615SOL     OW 6449   6.340   1.249   8.356 -0.2653  0.6225  0.2592
66615SOL    HW1 6450   6.287   1.277   8.430  0.2423  1.7046  0.2399
66615SOL    HW2 6451   6.395   1.179   8.391 -1.1153  0.0517  0.4863
66616SOL     OW 6452   6.317   2.031   9.407  0.0090  0.2409 -0.0031
66616SOL    HW1 6453   6.384   2.040   9.475  1.3869 -0.4211 -1.2145
66616SOL    HW2 6454   6.260   2.107   9.419 -0.0742 -0.0772  2.1411
66617SOL     OW 6455  12.357   0.640  10.832 -0.0054  0.1589 -0.3064
66617SOL    HW1 6456  12.403   0.699  10.772  0.0350 -1.1409 -1.5903
66617SOL    HW2 6457  12.304   0.699  10.887  0.4936  1.4267 -1.1365
66618SOL     OW 6458   9.552   9.818   1.224 -0.0152 -0.0887 -0.0819
66618SOL    HW1 6459   9.535   9.732   1.262  1.5802 -0.5580 -0.3529
66618SOL    HW2 6460   9.476   9.871   1.249 -1.4609 -1.7862 -0.6312
66619SOL     OW 6461   6.986   0.540  10.413  0.2794 -0.1739 -0.0305
66619SOL    HW1 6462   6.901   0.500  10.394 -0.2059  0.7298  0.1611
66619SOL    HW2 6463   7.028   0.548  10.328  0.4533 -1.2084 -0.0564
66620SOL     OW 6464   9.312   3.698  12.426 -0.3811 -0.4088 -0.8201
66620SOL    HW1 6465   9.272   3.766  12.372 -2.2816 -1.0472 -0.3059
66620SOL    HW2 6466   9.294   3.725  12.516  1.2528 -0.2222 -0.5233
66621SOL     OW 6467  10.034   4.137   2.266 -0.4743 -0.4864 -0.4824
66621SOL    HW1 6468  10.098   4.066   2.257 -0.1353 -0.1133 -1.1339
66621SOL    HW2 6469   9.993   4.142   2.180  1.2472  1.7132 -1.2711
66622SOL     OW 6470   3.883   0.469  10.125 -0.0674 -0.6085  0.0772
66622SOL    HW1 6471   3.973   0.501  10.134 -0.7099  1.0358  1.1538
66622SOL    HW2 6472   3.892   0.384  10.083  1.7912  0.8298 -2.7837
66623SOL     OW 6473  10.903   9.602   4.079 -0.0925 -0.2464  0.4470
66623SOL    HW1 6474  10.995   9.594   4.103 -0.1298 -1.8874  0.1894
66623SOL    HW2 6475  10.863   9.650   4.151  1.2684  2.2361 -0.3177
66624SOL     OW 6476   0.002  11.083   6.279  0.4357  0.4278  0.3452
66624SOL    HW1 6477  -0.087  11.093   6.313  0.1624  0.6344 -0.3965
66624SOL    HW2 6478   0.052  11.151   6.324  0.3642 -0.1051  1.2384
66625SOL     OW 6479   5.576  10.979  12.644 -0.0681  0.1127  0.1974
66625SOL    HW1 6480   5.662  10.937  12.641  0.0989  0.4848 -1.9450
66625SOL    HW2 6481   5.515  10.906  12.655  0.5086 -0.0227  3.6050
66626SOL     OW 6482  10.604   2.539  11.183 -0.3257  0.1106  0.1494
66626SOL    HW1 6483  10.602   2.624  11.228 -1.3600  0.1256  0.1011
66626SOL    HW2 6484  10.654   2.556  11.104 -1.0735  0.8550 -0.1826
66627SOL     OW 6485  12.703   8.719   6.515 -0.1889  0.2068 -0.2869
66627SOL    HW1 6486  12.629   8.737   6.573 -0.6148 -0.8443 -0.4809
66627SOL    HW2 6487  12.729   8.805   6.483  0.2018  0.8426  1.6167
66628SOL     OW 6488   5.579   8.672  10.534  0.6061 -0.7545 -0.2159
66628SOL    HW1 6489   5.525   8.594  10.525  0.4090 -0.4628 -1.9059
66628SOL    HW2 6490   5.538   8.737  10.476  3.3098 -0.8592 -2.4724
66629SOL     OW 6491   5.172  11.097   9.156  0.0353 -0.7258  0.0872
66629SOL    HW1 6492   5.090  11.147   9.163  0.0925 -0.7664  1.2602
66629SOL    HW2 6493   5.234  11.158   9.116 -0.0723 -0.0539  0.9114
66630SOL     OW 6494   6.377   2.157   8.116 -0.1039  0.1468  0.1243
66630SOL    HW1 6495   6.377   2.137   8.210  0.4015  1.3870  0.4025
66630SOL    HW2 6496   6.377   2.071   8.074  0.6258 -0.4378  1.2656
66631SOL     OW 6497  10.164   4.058   0.287  0.3378 -0.0474 -0.5165
66631SOL    HW1 6498  10.115   4.006   0.351 -0.3213  2.4680  1.2068
66631SOL    HW2 6499  10.210   3.994   0.233  0.2427 -2.3660  1.9440
66632SOL     OW 6500   0.800   9.190  10.276 -0.2505 -0.8923  0.2366
66632SOL    HW1 6501   0.771   9.116  10.330 -0.3749 -0.4297  0.8199
66632SOL    HW2 6502   0.837   9.150  10.198  1.3792 -1.6717  1.3390
66633SOL     OW 6503   6.000   7.236   5.504 -0.2380  0.0552  0.1490
66633SOL    HW1 6504   5.984   7.253   5.597  0.0450 -0.6892  0.3401
66633SOL    HW2 6505   6.036   7.318   5.471 -0.7391  0.4630  0.5969
66634SOL     OW 6506  11.952  11.370   9.983 -0.0419  0.1882 -0.7562
66634SOL    HW1 6507  11.879  11.309   9.995  0.1644 -0.2622 -1.7132
66634SOL    HW2 6508  12.027  11.324  10.021 -0.4170  1.1125  1.2676
66635SOL     OW 6509   8.517   9.873   4.201  0.3807  0.1620  0.5240
66635SOL    HW1 6510   8.537   9.811   4.131 -0.1035  1.7187 -1.0690
66635SOL    HW2 6511   8.472   9.821   4.267  0.7712 -1.3582 -0.3671
66636SOL     OW 6512   4.819   8.449   4.762 -0.1799  0.3363 -0.0213
66636SOL    HW1 6513   4.784   8.535   4.787 -0.1093  0.2000  0.5515
66636SOL    HW2 6514   4.834   8.404   4.845 -0.0441 -0.1652 -0.3140
66637SOL     OW 6515   6.391   1.033   1.893 -0.4975 -0.3658  0.1644
66637SOL    HW1 6516   6.297   1.018   1.884 -0.7558  1.2476 -0.1158
66637SOL    HW2 6517   6.398   1.123   1.923  0.9877 -0.0252 -1.0731
66638SOL     OW 6518   0.724   2.868   1.822 -0.6755  0.0027  0.4379
66638SOL    HW1 6519   0.654   2.899   1.766 -0.4081 -0.5060 -0.1865
66638SOL    HW2 6520   0.803   2.877   1.769 -0.5280 -1.2615  0.4187
66639SOL     OW 6521  12.745  12.693  10.449 -0.1201  0.5898  0.1795
66639SOL    HW1 6522  12.655  12.704  10.418 -0.3860 -1.4241  0.1397
66639SOL    HW2 6523  12.736  12.667  10.541  0.3717 -0.6182 -0.1050
66640SOL     OW 6524   8.648  12.685   5.152  0.2494  0.5892  0.2505
66640SOL    HW1 6525   8.567  12.671   5.103  1.0937  2.0390 -1.6676
66640SOL    HW2 6526   8.666  12.599   5.192 -0.3790 -0.7742 -2.1649
66641SOL     OW 6527   5.784   3.909   6.716 -0.1082  0.3868  0.2361
66641SOL    HW1 6528   5.762   3.932   6.806  0.0715 -1.5241  0.8087
66641SOL    HW2 6529   5.706   3.863   6.684 -0.6358  2.0521 -1.0186
66642SOL     OW 6530   6.563  10.904   9.031 -0.6972  0.6407 -0.1817
66642SOL    HW1 6531   6.638  10.916   8.973  0.5905 -1.3458  0.9128
66642SOL    HW2 6532   6.592  10.940   9.115 -0.3844 -1.2290  0.5818
66643SOL     OW 6533   4.143   1.568   3.740  0.5448  0.3747 -0.0225
66643SOL    HW1 6534   4.069   1.550   3.682  1.3734  0.9531 -1.2921
66643SOL    HW2 6535   4.116   1.647   3.787  0.1100  0.2401 -0.0347
66644SOL     OW 6536   4.706   7.566   9.820 -0.3880  0.2896  0.5076
66644SOL    HW1 6537   4.790   7.593   9.858  0.4170  1.2455 -1.7758
66644SOL    HW2 6538   4.662   7.648   9.797 -1.5037 -0.2257  0.7254
66645SOL     OW 6539   5.410   3.732   5.638  0.0530 -0.1215  0.5216
66645SOL    HW1 6540   5.424   3.641   5.663 -1.9614 -0.0939  2.0785
66645SOL    HW2 6541   5.361   3.728   5.556  2.2203 -0.3237 -0.8385
66646SOL     OW 6542   9.916   0.011   1.385 -0.2426  0.4513  0.1230
66646SOL    HW1 6543  10.004   0.032   1.417  0.2804  0.0507 -1.0053
66646SOL    HW2 6544   9.921   0.025   1.290 -1.0134 -0.8763 -0.1379
66647SOL     OW 6545   6.843   9.099   1.749 -0.0525 -0.0110  0.2203
66647SOL    HW1 6546   6.855   9.114   1.843 -0.1412  0.2945  0.1829
66647SOL    HW2 6547   6.879   9.011   1.735 -1.7283 -0.8406  0.8639
66648SOL     OW 6548   2.003  11.560   7.401  0.0868  0.3047 -0.4228
66648SOL    HW1 6549   1.917  11.571   7.442  2.2838  1.7153  4.6270
66648SOL    HW2 6550   2.010  11.466   7.386 -1.4749 -0.2014  1.5115
66649SOL     OW 6551   3.898  10.270   8.070 -0.0391 -0.4548 -0.0949
66649SOL    HW1 6552   3.908  10.344   8.131  1.1191  0.4778 -1.3706
66649SOL    HW2 6553   3.803  10.263   8.057 -0.1437  1.3574 -0.5843
66650SOL     OW 6554   8.331   1.162   6.594 -0.4387  0.4040 -0.4963
66650SOL    HW1 6555   8.383   1.122   6.525 -0.5753 -0.0879 -0.3179
66650SOL    HW2 6556   8.333   1.256   6.575 -0.5168  0.2673 -1.1975
66651SOL     OW 6557   9.423   6.040   1.731  0.1915 -0.5462 -0.1426
66651SOL    HW1 6558   9.341   5.994   1.714  0.8972 -1.5781 -0.8368
66651SOL    HW2 6559   9.461   5.994   1.805  0.7400 -0.8878 -0.6290
66652SOL     OW 6560  11.461   2.684   2.984 -0.6037  0.1166 -0.0960
66652SOL    HW1 6561  11.510   2.609   2.950  1.6454  2.0992 -1.5605
66652SOL    HW2 6562  11.380   2.685   2.934  0.9897  0.7502 -2.8611
66653SOL     OW 6563   0.484   2.973   9.596  0.1350 -0.4185 -0.2043
66653SOL    HW1 6564   0.540   2.909   9.640 -0.2141  0.2637  1.2838
66653SOL    HW2 6565   0.400   2.929   9.586  0.7154 -1.2429 -1.9387
66654SOL     OW 6566   2.275   2.959   7.336 -0.6579  0.1231 -0.0196
66654SOL    HW1 6567   2.182   2.942   7.355 -0.5209 -0.9944 -0.2669
66654SOL    HW2 6568   2.292   2.912   7.255  0.2393 -0.0521  0.2553
66655SOL     OW 6569   5.962   4.039   0.224 -0.3368 -1.1655 -0.6033
66655SOL    HW1 6570   6.056   4.023   0.212 -0.4621 -2.1521 -0.3773
66655SOL    HW2 6571   5.947   4.028   0.318 -0.2506  1.5640 -0.2027
66656SOL     OW 6572   6.437   0.690   4.084 -0.3596  0.4047 -0.0516
66656SOL    HW1 6573   6.450   0.767   4.028 -1.3821  1.1307  0.6871
66656SOL    HW2 6574   6.399   0.624   4.025 -0.3626  0.7748 -0.4729
66657SOL     OW 6575   8.638   6.178   1.496  0.5101 -0.2037 -0.3788
66657SOL    HW1 6576   8.732   6.173   1.513  0.5977  2.2758  0.2219
66657SOL    HW2 6577   8.601   6.218   1.575 -0.7846  0.5376 -1.3184
66658SOL     OW 6578   8.249   2.254   3.032  0.5810 -0.1591  0.4160
66658SOL    HW1 6579   8.323   2.201   3.003 -0.3015 -0.6662 -1.0538
66658SOL    HW2 6580   8.173   2.195   3.027 -0.1373  0.7235  0.4865
66659SOL     OW 6581   6.083   9.933  12.475  0.0584 -0.3360  0.1230
66659SOL    HW1 6582   6.036   9.963  12.397  0.4115 -1.5001 -0.5517
66659SOL    HW2 6583   6.025   9.868  12.514  1.0480 -1.7538 -0.6917
66660SOL     OW 6584   9.090   2.501   3.733  0.4379 -0.7753  0.1537
66660SOL    HW1 6585   9.150   2.564   3.772  0.7297  0.4421 -2.1033
66660SOL    HW2 6586   9.143   2.453   3.670 -0.6298 -0.6039 -0.9118
66661SOL     OW 6587  10.468   7.883   9.983  0.5958 -0.2664  0.3227
66661SOL    HW1 6588  10.557   7.851   9.972  1.5266  1.0379  3.1111
66661SOL    HW2 6589  10.475   7.953  10.048 -2.3220  0.6698 -0.2016
66662SOL     OW 6590  10.136   6.412   7.229  0.2606 -0.1541  0.1485
66662SOL    HW1 6591  10.189   6.335   7.207  2.4211  0.5545  2.3411
66662SOL    HW2 6592  10.198   6.485   7.228 -0.7944  0.8720  2.0981
66663SOL     OW 6593   2.839   3.592   6.967 -0.1411  0.3010  0.3416
66663SOL    HW1 6594   2.929   3.567   6.991 -0.0348 -1.7557 -1.7512
66663SOL    HW2 6595   2.796   3.612   7.050  2.9830  4.4414  1.2608
66664SOL     OW 6596   5.058   4.495   5.308  0.4062  0.4032  0.1599
66664SOL    HW1 6597   5.103   4.433   5.365 -0.0733 -0.4993 -0.4069
66664SOL    HW2 6598   5.045   4.446   5.226 -0.1949  1.1751 -0.2178
66665SOL     OW 6599   8.066  11.492   4.688 -0.0662  0.3218  0.0398
66665SOL    HW1 6600   8.004  11.494   4.615 -0.3825 -0.7201  0.2587
66665SOL    HW2 6601   8.060  11.579   4.727 -1.0298  0.3988 -0.2502
66666SOL     OW 6602   4.975  10.709   7.040 -0.4767 -0.2280 -0.3291
66666SOL    HW1 6603   4.933  10.624   7.025  1.9719 -2.4328  3.4966
66666SOL    HW2 6604   5.058  10.703   6.994 -0.9319  0.8848 -1.3684
66667SOL     OW 6605   6.846   0.589   7.100  0.0636  0.4194  0.0983
66667SOL    HW1 6606   6.896   0.539   7.036  1.2079 -0.0145  1.2915
66667SOL    HW2 6607   6.899   0.667   7.116 -0.7794  1.0931 -0.3238
66668SOL     OW 6608   7.078  12.589   4.337 -0.1350  0.3470 -0.2441
66668SOL    HW1 6609   7.127  12.662   4.299 -3.1619  1.5671 -2.1994
66668SOL    HW2 6610   7.045  12.623   4.420 -1.1264  1.0889 -0.9192
66669SOL     OW 6611   9.627   8.816   8.040 -0.4902 -0.1616  0.3323
66669SOL    HW1 6612   9.677   8.760   7.980 -0.7790  0.9267 -0.9558
66669SOL    HW2 6613   9.637   8.773   8.125 -0.1883 -1.8268 -0.4935
66670SOL     OW 6614   2.126   9.146   4.481  0.4410  0.2150 -0.0795
66670SOL    HW1 6615   2.138   9.184   4.568 -0.2378  1.2398 -0.4160
66670SOL    HW2 6616   2.215   9.124   4.452  0.8609  1.5593  0.1292
66671SOL     OW 6617   2.802   5.416   2.343  0.4131 -0.1331  0.0070
66671SOL    HW1 6618   2.716   5.420   2.303  0.9210 -1.3212 -1.3038
66671SOL    HW2 6619   2.846   5.495   2.313 -0.9094  1.7001  2.5534
66672SOL     OW 6620   4.329   6.226  12.189 -0.2406 -0.9361 -0.1481
66672SOL    HW1 6621   4.246   6.178  12.190 -0.1223 -1.1408  0.2078
66672SOL    HW2 6622   4.378   6.189  12.116 -0.0635 -1.5133  0.2594
66673SOL     OW 6623   7.774   9.794   1.668  0.2965  1.0566  0.0200
66673SOL    HW1 6624   7.698   9.851   1.659 -0.3491  0.2152  0.0641
66673SOL    HW2 6625   7.767   9.733   1.595  0.3072  0.2638  0.6679
66674SOL     OW 6626   2.415   4.246   9.691 -0.2277  0.2348 -0.7679
66674SOL    HW1 6627   2.418   4.152   9.674  1.0705  0.1323 -0.0680
66674SOL    HW2 6628   2.380   4.254   9.779 -1.6477  0.4972 -1.3291
66675SOL     OW 6629   1.278   8.976  10.157 -0.0037  0.5800  0.5635
66675SOL    HW1 6630   1.286   8.936  10.243  0.7075 -0.5703 -0.0159
66675SOL    HW2 6631   1.349   9.040  10.154  0.0475  0.5331  0.7883
66676SOL     OW 6632   4.242   8.401   3.860  0.6375 -0.1408 -0.2503
66676SOL    HW1 6633   4.200   8.483   3.834  1.2400  0.0499 -0.6438
66676SOL    HW2 6634   4.180   8.360   3.920  0.5324  0.8151  0.3069
66677SOL     OW 6635   4.697   2.706   8.275  0.5872 -0.5441 -0.2941
66677SOL    HW1 6636   4.704   2.635   8.338 -0.3797 -0.3475  0.0487
66677SOL    HW2 6637   4.604   2.709   8.252  0.2383  1.7676  1.0949
66678SOL     OW 6638   5.169   7.103  11.098 -0.3614  0.5027 -0.4730
66678SOL    HW1 6639   5.251   7.145  11.071  0.4589 -2.0131 -2.2395
66678SOL    HW2 6640   5.193   7.049  11.174 -0.4739  0.1183 -0.7081
66679SOL     OW 6641   7.949   6.701   3.300  0.5678  0.0069 -0.0414
66679SOL    HW1 6642   7.998   6.623   3.277 -0.0910  0.0470 -1.7203
66679SOL    HW2 6643   7.873   6.701   3.242 -1.6060 -0.1633  2.5736
66680SOL     OW 6644   9.607   3.234   6.646  0.1775 -0.1182 -0.1597
66680SOL    HW1 6645   9.649   3.209   6.564 -0.1584  0.9494 -0.6818
66680SOL    HW2 6646   9.679   3.264   6.702  0.5245 -1.7152  0.3066
66681SOL     OW 6647   9.651   4.007   8.888 -0.2544  0.5620 -0.0413
66681SOL    HW1 6648   9.612   4.085   8.847  3.2447  3.3974  1.4717
66681SOL    HW2 6649   9.744   4.015   8.869  0.5414 -2.0289  2.1880
66682SOL     OW 6650   6.828  11.489   6.016 -0.1388 -0.0239 -0.2382
66682SOL    HW1 6651   6.765  11.556   5.990  0.6792  0.7648 -0.2203
66682SOL    HW2 6652   6.876  11.528   6.088  1.9213  0.3382 -1.7206
66683SOL     OW 6653  12.635   3.136   8.490 -0.4236  0.2842 -0.5586
66683SOL    HW1 6654  12.638   3.086   8.408 -0.2998 -0.5238 -0.0692
66683SOL    HW2 6655  12.542   3.147   8.507 -0.4557  0.0243 -0.5547
66684SOL     OW 6656   1.193  10.288  12.284  0.6669  0.1622  0.1316
66684SOL    HW1 6657   1.147  10.214  12.323 -0.7491  1.5221  1.1714
66684SOL    HW2 6658   1.249  10.321  12.354  0.4359  0.7569  0.0401
66685SOL     OW 6659   3.775   9.014  10.389 -0.5279  0.1685 -0.4305
66685SOL    HW1 6660   3.783   9.105  10.418 -1.2885  0.9340 -2.4340
66685SOL    HW2 6661   3.686   9.008  10.354 -0.4458 -1.3191 -0.4356
66686SOL     OW 6662   5.755   7.055   7.883 -0.3682 -0.0763  0.1207
66686SOL    HW1 6663   5.798   7.128   7.927  0.5088 -1.3903  1.5572
66686SOL    HW2 6664   5.698   7.096   7.818  3.0437  1.8087 -2.0114
66687SOL     OW 6665   5.014   1.424   8.435 -0.4099  0.0186 -0.0815
66687SOL    HW1 6666   5.025   1.519   8.429 -2.7022  0.4050  0.7253
66687SOL    HW2 6667   5.091   1.387   8.392  0.0103  2.2448 -1.3338
66688SOL     OW 6668   0.846   8.837   6.270  0.0265  0.0339  0.2428
66688SOL    HW1 6669   0.849   8.780   6.346  2.9782  0.0126  0.2315
66688SOL    HW2 6670   0.908   8.797   6.208 -2.4040 -0.0724 -2.3167
66689SOL     OW 6671   9.618   1.886   9.156 -0.4521 -0.1681 -0.4542
66689SOL    HW1 6672   9.688   1.952   9.151 -0.6011  0.0794  0.5023
66689SOL    HW2 6673   9.545   1.925   9.109 -0.2461 -0.0296 -0.6626
66690SOL     OW 6674   5.411   5.214   0.456 -0.4547  0.3162  0.1629
66690SOL    HW1 6675   5.470   5.140   0.440  0.4307  0.7422  1.3057
66690SOL    HW2 6676   5.330   5.173   0.486 -1.2835 -0.3533 -2.6609
66691SOL     OW 6677  10.460  12.041  12.446 -0.3176  0.3965  0.1289
66691SOL    HW1 6678  10.425  12.094  12.518 -0.5043 -0.2081  0.4925
66691SOL    HW2 6679  10.533  12.093  12.411  2.2110 -0.8198  3.1147
66692SOL     OW 6680   6.161  12.304   2.008 -0.3404 -0.2447  0.6064
66692SOL    HW1 6681   6.151  12.395   1.978 -0.2304 -0.6439 -0.7311
66692SOL    HW2 6682   6.195  12.312   2.097  1.8509  1.0458 -0.2568
66693SOL     OW 6683   8.308   1.175  10.055 -0.1856 -0.3121 -0.0513
66693SOL    HW1 6684   8.301   1.083  10.079 -1.1792 -0.6427 -1.4465
66693SOL    HW2 6685   8.397   1.200  10.080 -0.4538 -1.1473  1.9062
66694SOL     OW 6686   2.933   7.395   5.731 -0.3790  0.0477 -0.4133
66694SOL    HW1 6687   2.891   7.398   5.816  1.3788  0.3584  0.5014
66694SOL    HW2 6688   3.007   7.334   5.744  1.0707  1.5721 -1.1202
66695SOL     OW 6689   7.580   4.854  12.683 -0.3711 -0.1615  0.0355
66695SOL    HW1 6690   7.608   4.916  12.615 -1.7359  0.4073 -0.0317
66695SOL    HW2 6691   7.560   4.909  12.758  3.1960 -0.9177  1.7425
66696SOL     OW 6692   0.220   0.942   2.072 -0.2254 -0.0127  0.3967
66696SOL    HW1 6693   0.198   1.033   2.054  0.0672 -0.2247 -1.2007
66696SOL    HW2 6694   0.268   0.913   1.994  3.1670 -0.4179  2.4348
66697SOL     OW 6695  10.389   0.224   2.197 -0.3891  0.3245 -0.5820
66697SOL    HW1 6696  10.298   0.254   2.190 -0.3400  0.3806 -1.0202
66697SOL    HW2 6697  10.429   0.248   2.113 -0.0010  0.1885 -0.4409
66698SOL     OW 6698   5.668   4.980  12.324  0.2794 -0.1382 -0.1995
66698SOL    HW1 6699   5.609   5.024  12.264 -0.4160  0.2224  0.7257
66698SOL    HW2 6700   5.754   4.986  12.282 -0.0694  0.7440 -0.8130
66699SOL     OW 6701   2.098   3.957   9.979  0.1631  0.0356  0.1176
66699SOL    HW1 6702   2.135   3.950   9.891 -0.8497 -0.0255 -0.3117
66699SOL    HW2 6703   2.004   3.964   9.965  0.0677  1.1866  1.1449
66700SOL     OW 6704   0.373   9.811   2.858 -0.0478  0.1903  0.0321
66700SOL    HW1 6705   0.329   9.886   2.896 -0.4574  2.3008 -4.0314
66700SOL    HW2 6706   0.467   9.832   2.863  0.1229 -0.8241  2.0646
66701SOL     OW 6707  11.400   4.763   2.682 -0.4539 -0.4702  0.0204
66701SOL    HW1 6708  11.417   4.808   2.764  0.5182 -0.5255 -0.1350
66701SOL    HW2 6709  11.408   4.831   2.615 -2.2294 -0.2181  0.0325
66702SOL     OW 6710   6.492   9.287   7.788 -0.5873  0.0617 -0.7539
66702SOL    HW1 6711   6.554   9.272   7.859 -2.2755  0.0895  0.8270
66702SOL    HW2 6712   6.433   9.211   7.792 -3.1595  1.9423  0.6684
66703SOL     OW 6713   5.778   2.740   0.371  0.0618 -0.6763 -0.3490
66703SOL    HW1 6714   5.693   2.703   0.349  0.3035 -1.1487 -0.5054
66703SOL    HW2 6715   5.767   2.778   0.458 -0.4930 -0.1255 -0.6529
66704SOL     OW 6716  12.181   2.831   0.334  0.2103 -0.0765  0.3324
66704SOL    HW1 6717  12.155   2.768   0.267  0.1169 -0.4658  0.7302
66704SOL    HW2 6718  12.219   2.904   0.285  0.5606 -0.5568 -0.1169
66705SOL     OW 6719   6.478   1.447   1.225  0.2753  0.3162  0.0186
66705SOL    HW1 6720   6.539   1.480   1.291  0.5259 -0.2859  0.0947
66705SOL    HW2 6721   6.475   1.516   1.159  1.4495  0.1462 -0.2471
66706SOL     OW 6722   2.655   6.490   5.161  0.6107  0.1065 -0.5080
66706SOL    HW1 6723   2.596   6.565   5.151  0.6426  0.0836 -0.8962
66706SOL    HW2 6724   2.735   6.518   5.116  0.0001 -0.8566 -2.2798
66707SOL     OW 6725   2.819   6.939   2.977 -0.2837 -0.3909 -0.0999
66707SOL    HW1 6726   2.810   6.936   2.882  3.3095 -1.4783 -0.5850
66707SOL    HW2 6727   2.797   6.851   3.007  2.6545 -1.4187 -0.6076
66708SOL     OW 6728   1.913   8.704   9.274 -0.3105  0.2544  0.0642
66708SOL    HW1 6729   1.850   8.769   9.306  0.2952 -0.0433  1.9764
66708SOL    HW2 6730   1.933   8.650   9.351  2.4951  0.5325 -0.3651
66709SOL     OW 6731   6.973   2.185   0.214  0.2503 -0.2724  0.6808
66709SOL    HW1 6732   7.038   2.230   0.267  2.7325 -1.1855 -1.3740
66709SOL    HW2 6733   6.972   2.096   0.248  1.6865 -0.8025 -0.5880
66710SOL     OW 6734   3.341   9.291  12.400 -0.1628  0.0049 -0.3760
66710SOL    HW1 6735   3.265   9.348  12.395 -0.9565 -0.9472  0.3699
66710SOL    HW2 6736   3.307   9.208  12.435  1.1992 -0.4660 -0.0915
66711SOL     OW 6737   4.423   0.861   7.611 -0.5212 -1.1471 -0.1372
66711SOL    HW1 6738   4.519   0.853   7.607 -0.4298  0.2405 -1.7477
66711SOL    HW2 6739   4.400   0.824   7.696  1.2203 -3.4679 -0.5502
66712SOL     OW 6740  10.049   9.272   0.321  0.6063  0.0467 -0.4098
66712SOL    HW1 6741   9.954   9.283   0.326  0.4217 -1.4757 -0.0359
66712SOL    HW2 6742  10.061   9.199   0.260  1.4207 -1.0880  1.0543
66713SOL     OW 6743   8.407   1.610   5.709 -0.2557  0.3509  0.1332
66713SOL    HW1 6744   8.423   1.568   5.625 -0.5682  1.4767 -0.5079
66713SOL    HW2 6745   8.314   1.599   5.725  0.1555 -1.8249  1.4563
66714SOL     OW 6746   6.656   2.293  10.176 -0.4569 -0.6365 -0.5277
66714SOL    HW1 6747   6.745   2.284  10.210 -0.6777  2.1078  1.1206
66714SOL    HW2 6748   6.609   2.218  10.212  0.9346 -1.5310 -0.5278
66715SOL     OW 6749  10.104   0.189   7.101 -0.3098 -0.1847  0.2916
66715SOL    HW1 6750  10.091   0.272   7.147 -2.6866  0.9119 -2.1248
66715SOL    HW2 6751  10.185   0.201   7.051 -1.0885  1.0165 -0.6999
66716SOL     OW 6752  10.051   7.678   1.147  0.2325  0.0324 -0.0280
66716SOL    HW1 6753  10.125   7.691   1.087 -0.1286 -1.3289 -0.8172
66716SOL    HW2 6754   9.991   7.749   1.127 -0.1778 -0.7440 -1.7801
66717SOL     OW 6755   8.288   7.184   2.011  0.0896 -0.1098  0.4397
66717SOL    HW1 6756   8.201   7.142   2.015  1.0345 -2.4617 -1.1254
66717SOL    HW2 6757   8.345   7.124   2.059  1.1484  0.4358 -0.1121
66718SOL     OW 6758   5.912   4.915   5.872  0.0658  0.3785  0.2456
66718SOL    HW1 6759   5.878   4.860   5.942 -1.9019  2.2682  0.9010
66718SOL    HW2 6760   5.929   4.999   5.914 -0.0104  1.2014 -1.2918
66719SOL     OW 6761   0.584   2.907   8.644  0.3704 -0.2038  0.0249
66719SOL    HW1 6762   0.626   2.924   8.729  1.6720  0.0103 -0.6382
66719SOL    HW2 6763   0.654   2.871   8.590 -0.8121 -1.7249 -0.5378
66720SOL     OW 6764   2.731   4.204   9.126 -0.1526  0.4864  0.3068
66720SOL    HW1 6765   2.724   4.300   9.129 -0.0052  0.4861  0.8031
66720SOL    HW2 6766   2.676   4.174   9.198  0.2163  0.2218  0.4822
66721SOL     OW 6767   5.955   9.010   3.064 -0.1387 -0.3274  0.1706
66721SOL    HW1 6768   5.886   9.006   3.131  0.8657  1.4519  1.3914
66721SOL    HW2 6769   6.027   8.958   3.100 -0.7203 -2.0754 -1.0451
66722SOL     OW 6770   2.171  10.709   1.556 -0.0835 -0.1046 -0.1937
66722SOL    HW1 6771   2.234  10.662   1.502  2.0658  0.5169  1.6060
66722SOL    HW2 6772   2.118  10.758   1.493  1.2295 -0.6453 -1.8048
66723SOL     OW 6773   5.433   6.847   2.061  0.3092 -0.0566  0.5711
66723SOL    HW1 6774   5.424   6.859   2.155  0.6373 -1.1945  0.7654
66723SOL    HW2 6775   5.370   6.778   2.039 -0.1519  0.5746 -0.1428
66724SOL     OW 6776   6.637   5.239  11.028 -0.2283 -0.4539  0.0777
66724SOL    HW1 6777   6.574   5.192  11.083  2.9514 -2.2831  2.4601
66724SOL    HW2 6778   6.622   5.331  11.048 -1.1789 -0.9159  1.6844
66725SOL     OW 6779   0.741   9.461   6.118 -0.4206  0.3725 -0.2419
66725SOL    HW1 6780   0.716   9.551   6.142  2.0265  0.6958  1.4090
66725SOL    HW2 6781   0.797   9.471   6.041  0.4768  0.3526  0.4002
66726SOL     OW 6782  11.957   0.674  11.501  0.0315 -0.0572  0.8688
66726SOL    HW1 6783  11.971   0.582  11.523  0.4931 -0.2045  0.0128
66726SOL    HW2 6784  11.972   0.679  11.406  0.4659  0.9793  0.9749
66727SOL     OW 6785   3.971   3.452   5.099 -0.3543 -0.3231  0.8798
66727SOL    HW1 6786   4.028   3.503   5.158  0.5631  0.4826 -0.6332
66727SOL    HW2 6787   3.958   3.509   5.024 -2.9902 -0.6161  1.0371
66728SOL     OW 6788   0.907  12.228   7.879  0.3678  0.3459  0.0879
66728SOL    HW1 6789   0.831  12.224   7.938  0.4221  0.4155  0.1612
66728SOL    HW2 6790   0.891  12.157   7.816  1.8450 -1.8151  2.0030
66729SOL     OW 6791   2.457  10.255   7.787  0.1002 -0.7744  0.4270
66729SOL    HW1 6792   2.435  10.167   7.756  0.3574 -0.4492 -0.7497
66729SOL    HW2 6793   2.493  10.299   7.710  2.0357 -0.3285  1.5174
66730SOL     OW 6794   6.681   4.653   3.741 -0.0087 -0.3739  0.5858
66730SOL    HW1 6795   6.675   4.705   3.660 -1.1808  0.8779  1.4272
66730SOL    HW2 6796   6.771   4.664   3.770  0.3147 -0.5103 -0.3421
66731SOL     OW 6797   7.552   7.545   3.547  0.1552 -0.0170 -0.3212
66731SOL    HW1 6798   7.471   7.558   3.597  0.6094  0.3514  0.3301
66731SOL    HW2 6799   7.605   7.488   3.603 -0.7969 -2.7578 -2.0108
66732SOL     OW 6800   3.502  12.269   8.835 -0.0593  0.1769 -0.2931
66732SOL    HW1 6801   3.568  12.302   8.774  0.3090  0.2018  0.1076
66732SOL    HW2 6802   3.451  12.346   8.859 -0.8841 -0.0216 -1.3777
66733SOL     OW 6803   0.024   8.444  11.595 -0.5771  0.4016  0.0105
66733SOL    HW1 6804  -0.009   8.533  11.604 -2.3393  0.0895 -2.4032
66733SOL    HW2 6805  -0.054   8.388  11.595  0.5501 -1.3958  2.9257
66734SOL     OW 6806   5.502   2.232   6.211 -0.0422  0.7526  0.5953
66734SOL    HW1 6807   5.449   2.230   6.132  0.5555  2.3501  0.1130
66734SOL    HW2 6808   5.467   2.305   6.262  0.2713  0.4226  1.3007
66735SOL     OW 6809   4.950   7.018   4.289  0.3132 -0.5246 -0.5715
66735SOL    HW1 6810   4.960   7.088   4.224  0.3768  0.9412  0.9256
66735SOL    HW2 6811   5.016   6.953   4.266 -0.1362 -0.3888 -2.3601
66736SOL     OW 6812   0.578   6.887   7.729 -0.3350  0.3914  0.4658
66736SOL    HW1 6813   0.520   6.823   7.687 -0.6176  0.2212  1.1084
66736SOL    HW2 6814   0.523   6.963   7.746  0.5186  1.8448 -2.4934
66737SOL     OW 6815   0.032   8.280   6.887  0.7583 -0.3692 -0.0364
66737SOL    HW1 6816  -0.030   8.327   6.831 -0.4262 -1.1647  0.5599
66737SOL    HW2 6817   0.044   8.338   6.962  2.2727  0.6556 -1.0064
66738SOL     OW 6818  12.605   4.535   5.430 -0.5901 -0.3179 -0.3255
66738SOL    HW1 6819  12.551   4.527   5.508 -1.0095 -1.2146 -0.6907
66738SOL    HW2 6820  12.686   4.575   5.460 -0.4265 -1.3861  0.7207
66739SOL     OW 6821   7.323   7.489   0.637 -0.2833  0.0701  0.0579
66739SOL    HW1 6822   7.363   7.413   0.679 -1.6258  0.4674  2.2173
66739SOL    HW2 6823   7.394   7.552   0.629  0.5606 -0.9340 -0.6020
66740SOL     OW 6824  12.748   7.913  10.305 -0.6307  0.2490 -0.2154
66740SOL    HW1 6825  12.690   7.858  10.358  1.2546  0.8629  2.7551
66740SOL    HW2 6826  12.830   7.864  10.301  0.5972  2.0353  1.1707
66741SOL     OW 6827  11.334   0.838   5.243 -0.3690  0.5688 -0.2253
66741SOL    HW1 6828  11.357   0.905   5.179 -2.0174  2.0593  0.6843
66741SOL    HW2 6829  11.274   0.881   5.303 -0.9455 -1.5406  0.8018
66742SOL     OW 6830   7.559   8.240   5.733  0.1052 -0.2656  0.1396
66742SOL    HW1 6831   7.464   8.231   5.727 -0.3909  2.8254  1.6376
66742SOL    HW2 6832   7.586   8.264   5.645 -0.4781 -1.0208 -0.2668
66743SOL     OW 6833   6.710  12.531   8.116  0.0910  0.3165  0.2217
66743SOL    HW1 6834   6.728  12.437   8.121 -0.9568  0.0935  0.0387
66743SOL    HW2 6835   6.667  12.551   8.199 -0.1601  0.5250  0.0418
66744SOL     OW 6836   0.578  11.339  10.351  0.4870 -0.3625  0.3150
66744SOL    HW1 6837   0.539  11.331  10.264 -1.0782  2.4442  0.6400
66744SOL    HW2 6838   0.670  11.356  10.335  0.5037 -1.3216 -0.7054
66745SOL     OW 6839  10.649   2.954   3.708 -0.7098 -0.2248  0.0723
66745SOL    HW1 6840  10.715   2.970   3.641  0.9805  0.9609  1.9154
66745SOL    HW2 6841  10.602   2.876   3.677  1.6421 -1.2317 -1.2275
66746SOL     OW 6842   6.089   3.133   9.692 -0.0259  0.4240  0.2685
66746SOL    HW1 6843   6.137   3.094   9.620 -0.4250 -0.6792  0.5855
66746SOL    HW2 6844   6.000   3.146   9.658  0.3256  1.9734 -0.1449
66747SOL     OW 6845   6.470   9.876   4.193  0.3720  0.4100  0.7252
66747SOL    HW1 6846   6.533   9.818   4.151  1.0171 -0.0573  2.2645
66747SOL    HW2 6847   6.495   9.876   4.285 -1.2568  1.0298  1.2092
66748SOL     OW 6848  10.985   8.733   0.317 -0.1046 -0.0265  0.3202
66748SOL    HW1 6849  11.000   8.667   0.249 -0.3306 -0.8954  1.1003
66748SOL    HW2 6850  10.922   8.693   0.376 -2.5811  2.0347 -0.7437
66749SOL     OW 6851   1.607   4.591  10.203 -0.2048 -0.5089  0.1196
66749SOL    HW1 6852   1.677   4.529  10.226  0.5296 -0.7954 -2.5362
66749SOL    HW2 6853   1.622   4.666  10.261  1.4407 -1.1492  0.6024
66750SOL     OW 6854   7.424   4.017   1.684  0.6978  0.4055 -0.1359
66750SOL    HW1 6855   7.469   3.986   1.606 -1.0653 -0.4220 -0.8808
66750SOL    HW2 6856   7.359   3.950   1.703  0.2546  1.1878  1.3341
66751SOL     OW 6857   0.847   6.332   7.937  0.2761  0.4063 -0.0298
66751SOL    HW1 6858   0.868   6.425   7.930 -1.0055  0.8506  1.4910
66751SOL    HW2 6859   0.752   6.328   7.929  0.4615 -1.0750 -2.4581
66752SOL     OW 6860   3.595   0.084   1.225 -1.0434  0.0872 -0.4691
66752SOL    HW1 6861   3.679   0.130   1.229 -1.2514  0.3820  0.9046
66752SOL    HW2 6862   3.530   0.153   1.234 -1.3619 -0.4039  1.3446
66753SOL     OW 6863  11.702   3.908  11.710  0.1634 -0.3166 -0.0261
66753SOL    HW1 6864  11.657   3.937  11.789  1.0880 -0.0964  0.4349
66753SOL    HW2 6865  11.791   3.887  11.739  0.4311 -0.5274 -0.9531
66754SOL     OW 6866   7.408   2.431   3.400  0.3792 -0.0751  0.4870
66754SOL    HW1 6867   7.352   2.508   3.401 -0.8306 -0.9223  0.2688
66754SOL    HW2 6868   7.409   2.400   3.491  0.0167 -0.3821  0.3903
66755SOL     OW 6869  11.315   3.589   7.729  0.3430 -0.1197  0.0554
66755SOL    HW1 6870  11.237   3.542   7.757 -1.1723  2.0678 -0.2395
66755SOL    HW2 6871  11.320   3.664   7.788  0.1838  1.6587 -2.0693
66756SOL     OW 6872   5.443   3.826   6.254  0.1946 -0.0262 -0.3314
66756SOL    HW1 6873   5.445   3.887   6.328 -0.5533 -0.6767  0.2440
66756SOL    HW2 6874   5.455   3.740   6.294  1.9773 -0.2320 -1.1966
66757SOL     OW 6875   7.892  12.579   1.962 -0.0126  0.0424 -0.4423
66757SOL    HW1 6876   7.808  12.623   1.979 -0.9617 -1.8805  0.2126
66757SOL    HW2 6877   7.888  12.555   1.870 -0.4552 -0.5153 -0.2884
66758SOL     OW 6878   5.143   3.077   2.206  0.0472  0.2832  0.1936
66758SOL    HW1 6879   5.182   3.147   2.258  2.7922 -0.8953 -0.0993
66758SOL    HW2 6880   5.162   2.997   2.255  0.4009 -0.6006 -1.3242
66759SOL     OW 6881   4.198   9.453   3.068  0.1851 -0.3977 -0.7636
66759SOL    HW1 6882   4.241   9.407   2.996 -0.1760 -2.3354  0.1810
66759SOL    HW2 6883   4.107   9.461   3.040  0.7065  2.0916 -1.9949
66760SOL     OW 6884   5.544   4.360  11.715  0.6978  0.3246  0.1251
66760SOL    HW1 6885   5.631   4.352  11.753  0.3559 -0.3371  0.7755
66760SOL    HW2 6886   5.554   4.328  11.625  0.9864 -0.3661  0.3986
66761SOL     OW 6887   8.068  12.512   9.395 -0.7202 -0.0760 -0.3341
66761SOL    HW1 6888   8.005  12.577   9.364  0.1696  0.4892 -1.0077
66761SOL    HW2 6889   8.016  12.432   9.405 -1.7843  0.6615  0.2825
66762SOL     OW 6890  12.193   1.274   6.541 -0.4362 -0.6441  0.0073
66762SOL    HW1 6891  12.239   1.237   6.615 -1.5097 -1.3778  0.3338
66762SOL    HW2 6892  12.260   1.286   6.474  0.7064  0.8234  1.3528
66763SOL     OW 6893   9.779   1.980   9.560  0.0301  0.6910 -0.0366
66763SOL    HW1 6894   9.763   2.008   9.470 -2.0984 -0.0716  0.0446
66763SOL    HW2 6895   9.718   2.032   9.613  0.5275  0.4029  0.8422
66764SOL     OW 6896  12.270   5.018   3.711 -0.2806  0.9493 -0.3534
66764SOL    HW1 6897  12.248   5.082   3.644 -2.4503  0.7907  0.1091
66764SOL    HW2 6898  12.204   5.031   3.779 -1.2967 -2.1919 -0.5493
66765SOL     OW 6899  10.188   0.018  10.800 -0.2409 -0.2597  0.2159
66765SOL    HW1 6900  10.202  -0.026  10.884 -1.0110 -1.2638 -0.1622
66765SOL    HW2 6901  10.264   0.076  10.791 -1.0013  1.2246  2.4157
66766SOL     OW 6902   8.085   1.980   5.680 -0.2083 -0.7796  0.4262
66766SOL    HW1 6903   8.052   2.069   5.668  1.9329  0.0381  0.2518
66766SOL    HW2 6904   8.006   1.928   5.696 -1.3974  1.4254  2.5073
66767SOL     OW 6905  12.775   8.093   3.512  0.0860 -0.3164 -1.0178
66767SOL    HW1 6906  12.758   8.041   3.433 -0.3036 -2.4803  0.3878
66767SOL    HW2 6907  12.870   8.090   3.522  0.1414  0.0120 -1.4381
66768SOL     OW 6908   9.739   1.215   5.040 -0.0500  0.6170  0.0179
66768SOL    HW1 6909   9.813   1.207   4.981 -1.7183  1.9133 -2.3953
66768SOL    HW2 6910   9.685   1.137   5.022  1.5709 -1.4825  3.2796
66769SOL     OW 6911   8.411   6.534   2.896  0.2009  0.2517  0.1834
66769SOL    HW1 6912   8.440   6.624   2.882 -0.6156  0.4121 -0.5968
66769SOL    HW2 6913   8.442   6.512   2.984  1.6746  0.7763 -0.1810
66770SOL     OW 6914   1.423   5.237   5.332  0.0099  0.2697  0.6760
66770SOL    HW1 6915   1.406   5.193   5.416  0.2697 -0.0375  0.5702
66770SOL    HW2 6916   1.389   5.177   5.266  0.9760 -0.0949  0.4934
66771SOL     OW 6917   9.794   1.514   2.143 -0.0694  0.0393 -0.1239
66771SOL    HW1 6918   9.813   1.493   2.051 -0.4844 -2.7319  0.3307
66771SOL    HW2 6919   9.704   1.547   2.143  0.3904  1.3757 -0.8222
66772SOL     OW 6920   8.889   7.229   1.386  0.0013 -0.1872 -0.1544
66772SOL    HW1 6921   8.957   7.275   1.337  0.1931  0.4161  0.6509
66772SOL    HW2 6922   8.812   7.286   1.381 -0.8532 -1.4050 -2.0501
66773SOL     OW 6923   1.433   1.293   1.991  0.7515  0.2152  0.2428
66773SOL    HW1 6924   1.453   1.381   1.958 -0.8854  0.3838 -0.3411
66773SOL    HW2 6925   1.491   1.284   2.067  0.2206  2.2292  0.9684
66774SOL     OW 6926   5.822   2.420   9.494  0.1516 -0.5748  0.0141
66774SOL    HW1 6927   5.763   2.471   9.438  1.2994  2.0106  0.9895
66774SOL    HW2 6928   5.776   2.414   9.578 -0.1027 -1.4658 -0.1773
66775SOL     OW 6929   8.589   1.506   9.587  0.3081 -0.4441  0.0872
66775SOL    HW1 6930   8.627   1.544   9.667  0.3888 -0.8644  0.2480
66775SOL    HW2 6931   8.496   1.500   9.606  0.3174 -0.4801  0.1217
66776SOL     OW 6932   7.270   4.247   4.523 -0.2262 -0.0536  0.2611
66776SOL    HW1 6933   7.284   4.179   4.457  1.7943 -0.6490  1.2326
66776SOL    HW2 6934   7.199   4.300   4.488  0.1346 -0.9232 -1.9261
66777SOL     OW 6935   3.436   0.100   3.392 -0.1991  0.0903 -0.5044
66777SOL    HW1 6936   3.488   0.101   3.473  2.0355  1.3799 -1.8533
66777SOL    HW2 6937   3.499   0.080   3.323 -1.7231  0.6144 -2.1234
66778SOL     OW 6938   5.315   8.428  12.611 -0.2079 -0.3746 -0.1545
66778SOL    HW1 6939   5.399   8.457  12.577 -0.8061  1.2958 -0.3103
66778SOL    HW2 6940   5.276   8.506  12.650 -1.0624 -1.4438  1.2652
66779SOL     OW 6941   6.721   3.149  12.606 -0.4468  0.4906 -0.6281
66779SOL    HW1 6942   6.633   3.123  12.579 -0.1864  0.2547 -1.2817
66779SOL    HW2 6943   6.712   3.239  12.637 -1.2756 -0.1647  1.1724
66780SOL     OW 6944   3.578   7.324   1.877  0.0342  0.2725 -0.0381
66780SOL    HW1 6945   3.554   7.410   1.842 -0.8046  0.5568  1.1463
66780SOL    HW2 6946   3.576   7.266   1.801 -1.5467  0.8875 -0.5185
66781SOL     OW 6947  11.727   3.194  11.172 -0.4720 -0.1570  0.0766
66781SOL    HW1 6948  11.717   3.100  11.155 -0.5765 -0.4398  1.6058
66781SOL    HW2 6949  11.759   3.199  11.262 -0.4451  1.2796  0.0008
66782SOL     OW 6950   8.735  12.543  10.583 -0.8632 -0.7181 -0.2252
66782SOL    HW1 6951   8.667  12.603  10.553 -0.3517  0.4100  0.7713
66782SOL    HW2 6952   8.743  12.560  10.677  0.4370 -1.1831 -0.2244
66783SOL     OW 6953   1.368  11.125  11.966 -0.8747  0.1659  0.3283
66783SOL    HW1 6954   1.450  11.090  12.003 -1.0474  0.9655  1.5316
66783SOL    HW2 6955   1.388  11.140  11.874  0.6175  1.1033  0.7648
66784SOL     OW 6956   3.817   8.281   2.352 -0.1467 -0.1689 -0.6450
66784SOL    HW1 6957   3.866   8.225   2.412  0.1132  1.3108  0.5801
66784SOL    HW2 6958   3.727   8.279   2.385  0.2488  1.7322  0.7193
66785SOL     OW 6959   2.043   0.352   6.998 -0.4256 -0.1630  0.8857
66785SOL    HW1 6960   2.039   0.426   7.059 -1.0596  0.4691  0.0890
66785SOL    HW2 6961   1.956   0.312   7.003 -0.3650 -0.3268  0.6606
66786SOL     OW 6962   6.691  12.527   2.366 -0.1959 -0.8033  0.3668
66786SOL    HW1 6963   6.623  12.591   2.344  0.6087  0.0467  0.2940
66786SOL    HW2 6964   6.772  12.578   2.368  0.6759 -2.0600 -0.9962
66787SOL     OW 6965   7.450  12.612   3.408 -0.3862 -0.1289 -0.0095
66787SOL    HW1 6966   7.450  12.650   3.320  0.4607 -0.0026  0.0363
66787SOL    HW2 6967   7.368  12.562   3.413 -0.2787 -0.4141 -0.9888
66788SOL     OW 6968   2.132   2.456   1.474 -0.3004  0.2369 -0.3444
66788SOL    HW1 6969   2.184   2.537   1.474  0.7422 -0.4058  0.5236
66788SOL    HW2 6970   2.193   2.388   1.445 -0.6844 -0.5186  0.5851
66789SOL     OW 6971   6.221   7.747  12.607 -0.0683 -0.5957  0.4883
66789SOL    HW1 6972   6.181   7.702  12.681  0.0550 -1.8082 -0.1401
66789SOL    HW2 6973   6.178   7.709  12.530 -0.2949  0.7330 -0.0616
66790SOL     OW 6974   4.868  12.744   0.733  0.1508  0.3274  0.2276
66790SOL    HW1 6975   4.899  12.665   0.689 -2.2842 -1.2627  1.1845
66790SOL    HW2 6976   4.911  12.743   0.818 -0.7357 -0.6348  0.6819
66791SOL     OW 6977  10.257  11.735   4.078 -0.1193  0.1817  0.5824
66791SOL    HW1 6978  10.203  11.697   4.146 -1.4092  1.4937  0.3549
66791SOL    HW2 6979  10.202  11.733   3.999  1.3609 -1.3644 -0.4686
66792SOL     OW 6980  12.370   2.452   7.041  0.3125  0.4842  0.2673
66792SOL    HW1 6981  12.429   2.511   7.087  1.4111 -0.6556  0.3629
66792SOL    HW2 6982  12.413   2.367   7.044 -1.4333 -0.4400  0.5281
66793SOL     OW 6983   6.991   0.072  12.629  0.6873 -0.5007 -0.0732
66793SOL    HW1 6984   6.987   0.157  12.675  0.9203 -0.9011  0.7026
66793SOL    HW2 6985   6.937   0.085  12.551  1.1025  0.5128 -0.2064
66794SOL     OW 6986   9.148   7.478  11.539 -0.1541  0.2290  0.4909
66794SOL    HW1 6987   9.077   7.436  11.490  1.7970 -0.0954 -2.2836
66794SOL    HW2 6988   9.206   7.514  11.471  2.3112  0.5498  2.6204
66795SOL     OW 6989   2.912  12.013   2.170 -0.4412  0.0675 -0.1979
66795SOL    HW1 6990   2.936  12.105   2.159 -1.7406  0.4817  0.1245
66795SOL    HW2 6991   2.821  12.009   2.141 -0.7723 -0.8667  0.8688
66796SOL     OW 6992   5.634   0.060   2.134  0.9221  0.0609 -0.5146
66796SOL    HW1 6993   5.722   0.072   2.100  1.5341 -1.0416  0.6115
66796SOL    HW2 6994   5.615   0.140   2.183  1.4498  0.1467 -0.4464
66797SOL     OW 6995   1.400   1.434   8.187 -0.0507 -0.0085  0.1896
66797SOL    HW1 6996   1.468   1.444   8.120  0.0955 -0.4689  0.2704
66797SOL    HW2 6997   1.417   1.505   8.248  0.9789 -0.7176  0.7491
66798SOL     OW 6998   8.351   1.556   4.132 -0.3115  0.6228  0.5379
66798SOL    HW1 6999   8.417   1.521   4.072 -0.6286  0.5374  0.2317
66798SOL    HW2 7000   8.326   1.640   4.094 -1.2909  0.0873 -0.0475
66799SOL     OW 7001   1.839   3.904  12.077  0.7864  0.3525  0.2035
66799SOL    HW1 7002   1.800   3.981  12.037 -0.1815  0.0013  0.4297
66799SOL    HW2 7003   1.894   3.866  12.009  0.2695  0.5472 -0.3306
66800SOL     OW 7004   0.198   9.626   7.086 -0.0560  0.3357  0.2096
66800SOL    HW1 7005   0.247   9.702   7.056  0.1605 -0.4758 -1.6006
66800SOL    HW2 7006   0.160   9.654   7.169 -0.5957  2.6604 -0.7468
66801SOL     OW 7007   1.154   8.336   5.606  0.7183 -0.2363 -0.0916
66801SOL    HW1 7008   1.210   8.258   5.598 -0.2837 -0.9206 -0.5480
66801SOL    HW2 7009   1.180   8.392   5.533  0.9562 -0.4477 -0.1702
66802SOL     OW 7010   4.605   4.003   9.983 -0.8492 -0.1297 -0.0963
66802SOL    HW1 7011   4.585   4.037  10.070 -2.2062  0.4297 -0.6115
66802SOL    HW2 7012   4.520   3.988   9.942 -0.2959 -2.4526 -0.5713
66803SOL     OW 7013  11.016   2.347   1.876 -0.9175  0.2438 -0.3553
66803SOL    HW1 7014  11.062   2.410   1.821 -1.1012  0.2473 -0.5082
66803SOL    HW2 7015  11.033   2.375   1.965  1.2286 -1.0415 -0.3028
66804SOL     OW 7016   6.264   3.737   9.586 -0.4195  1.4267  0.1445
66804SOL    HW1 7017   6.206   3.750   9.511  0.3540  0.4538 -0.6559
66804SOL    HW2 7018   6.217   3.674   9.641  0.1245  0.1035 -0.8389
66805SOL     OW 7019   7.233   9.698   9.284  0.1475  0.5919 -0.3525
66805SOL    HW1 7020   7.218   9.786   9.318 -0.1656  0.5758 -0.4426
66805SOL    HW2 7021   7.149   9.673   9.245 -0.6436 -0.7788  1.9948
66806SOL     OW 7022   0.992   8.986   1.553 -0.2896  0.1394  0.0216
66806SOL    HW1 7023   0.943   8.978   1.634  0.3320  1.7722  0.5991
66806SOL    HW2 7024   1.075   8.942   1.571 -0.7166 -0.8266 -0.2713
66807SOL     OW 7025   5.674  10.861  10.490  0.0325  0.2928  0.0740
66807SOL    HW1 7026   5.645  10.821  10.408 -3.0506  0.2630  1.0561
66807SOL    HW2 7027   5.706  10.947  10.465  0.9788 -0.4307 -1.3488
66808SOL     OW 7028   6.005   2.848   7.358 -0.4111  0.5666  0.9302
66808SOL    HW1 7029   5.927   2.801   7.389 -0.4677  1.1986  1.7929
66808SOL    HW2 7030   5.972   2.910   7.294 -0.3101 -0.6717 -0.3659
66809SOL     OW 7031   2.769   8.156  10.461  0.4623 -0.0414 -0.5560
66809SOL    HW1 7032   2.861   8.171  10.479 -0.0533  2.1135  0.7632
66809SOL    HW2 7033   2.747   8.075  10.507  1.0333  1.1273  1.9722
66810SOL     OW 7034   5.756   3.341   9.525  0.4431  0.1031 -0.1190
66810SOL    HW1 7035   5.786   3.331   9.435 -1.2643 -1.3407 -0.5822
66810SOL    HW2 7036   5.705   3.422   9.525 -0.3434 -0.3817 -0.6990
66811SOL     OW 7037   6.658  11.702  12.313 -0.1913 -0.1342  0.0137
66811SOL    HW1 7038   6.608  11.642  12.257 -2.7944 -0.0673  2.0514
66811SOL    HW2 7039   6.677  11.651  12.392  1.1942  0.5000  0.1139
66812SOL     OW 7040  11.172   0.412   2.991 -0.6543 -0.0333 -0.4323
66812SOL    HW1 7041  11.248   0.417   3.048 -0.1100 -2.5452 -0.8262
66812SOL    HW2 7042  11.207   0.422   2.902 -0.9506  0.0662 -0.5402
66813SOL     OW 7043   7.811   3.918   9.323  0.4433  0.2705  0.1057
66813SOL    HW1 7044   7.885   3.937   9.266  1.3392  0.9449  1.4539
66813SOL    HW2 7045   7.851   3.883   9.403 -0.6707  0.7959  0.9153
66814SOL     OW 7046   3.590  10.678   1.707 -0.0972 -0.3886  0.1812
66814SOL    HW1 7047   3.609  10.655   1.798  0.2686  0.0125  0.2073
66814SOL    HW2 7048   3.674  10.668   1.662  0.4776  2.3892  0.4908
66815SOL     OW 7049   2.621   5.521   0.228  0.0504 -0.1811  0.2894
66815SOL    HW1 7050   2.531   5.491   0.213  0.6990 -1.2155 -1.8363
66815SOL    HW2 7051   2.654   5.461   0.296 -0.3386 -0.8834 -0.1307
66816SOL     OW 7052  10.367   3.360   2.598 -0.2633  0.4377  0.1378
66816SOL    HW1 7053  10.339   3.320   2.516  0.5983 -0.3088  0.2007
66816SOL    HW2 7054  10.378   3.452   2.577 -0.7660  0.3871 -0.3919
66817SOL     OW 7055  12.597   0.652  12.087  0.0629 -0.3520  0.0705
66817SOL    HW1 7056  12.613   0.569  12.131  0.2848 -0.9545 -1.0968
66817SOL    HW2 7057  12.548   0.705  12.151  0.7010 -1.0368  1.1541
66818SOL     OW 7058   4.389   8.042   5.453 -0.2951 -0.0958 -0.1829
66818SOL    HW1 7059   4.380   8.129   5.412  1.3604  0.1968 -0.0050
66818SOL    HW2 7060   4.463   8.002   5.407 -0.7203 -1.2211  0.0879
66819SOL     OW 7061   2.789   0.808   6.910  0.2846 -0.1658 -0.4088
66819SOL    HW1 7062   2.844   0.745   6.957 -0.7998  0.6923  2.1711
66819SOL    HW2 7063   2.790   0.886   6.965 -2.9984  0.0799 -0.5148
66820SOL     OW 7064   7.397   0.667   3.123  0.3514 -0.0097 -0.4596
66820SOL    HW1 7065   7.410   0.722   3.200  1.5284 -2.0365  0.8722
66820SOL    HW2 7066   7.370   0.728   3.054  0.5952  2.0541  1.1794
66821SOL     OW 7067  11.190   9.039   9.715  0.1057  0.3448 -0.1202
66821SOL    HW1 7068  11.272   9.083   9.696 -0.4717  1.4588 -0.1199
66821SOL    HW2 7069  11.175   8.982   9.639  1.5941 -0.9991  0.5585
66822SOL     OW 7070   0.702   7.687   3.665 -0.8742 -0.1826  1.2400
66822SOL    HW1 7071   0.733   7.690   3.756  2.2141 -0.8590  0.3206
66822SOL    HW2 7072   0.751   7.615   3.625  0.0631  1.8767 -1.6582
66823SOL     OW 7073   3.531   5.494   4.145 -0.3775 -0.6263  0.0421
66823SOL    HW1 7074   3.470   5.436   4.190 -0.9581  0.5149  0.7728
66823SOL    HW2 7075   3.543   5.568   4.205  2.4786 -1.2112  0.3646
66824SOL     OW 7076   8.597   7.627   0.101  0.9990 -0.3445  0.0756
66824SOL    HW1 7077   8.564   7.605   0.014  0.9233  0.5958 -0.1344
66824SOL    HW2 7078   8.671   7.566   0.114  1.9102  0.4433 -1.2348
66825SOL     OW 7079   2.167   4.743  12.416 -0.1646 -0.2983 -0.2432
66825SOL    HW1 7080   2.189   4.730  12.508  0.8441 -0.9870 -0.5553
66825SOL    HW2 7081   2.086   4.794  12.417  0.6574  1.0522  1.0128
66826SOL     OW 7082   1.389   0.192   8.657 -0.0126  0.5289 -0.1717
66826SOL    HW1 7083   1.414   0.167   8.745  0.4095 -2.3574 -1.0039
66826SOL    HW2 7084   1.470   0.188   8.606 -0.5660  0.2983 -1.0606
66827SOL     OW 7085  11.343   1.427   7.725 -0.4141  0.3108  0.5453
66827SOL    HW1 7086  11.393   1.355   7.762  1.9598  1.6761  0.2272
66827SOL    HW2 7087  11.352   1.417   7.630 -1.0354  0.4006  0.4691
66828SOL     OW 7088   5.533   5.107   2.972  0.2325 -0.5433 -0.2497
66828SOL    HW1 7089   5.487   5.191   2.963  1.1260  0.0195  0.3310
66828SOL    HW2 7090   5.482   5.059   3.038  0.2640 -0.0750  0.1196
66829SOL     OW 7091  10.246   2.518  10.871 -0.3044 -0.4059 -0.3861
66829SOL    HW1 7092  10.261   2.458  10.944  3.0318  0.0736 -0.5287
66829SOL    HW2 7093  10.165   2.486  10.831 -0.9688 -2.1398  2.0554
66830SOL     OW 7094   6.598   7.850  10.109 -0.1366 -0.0782 -0.5324
66830SOL    HW1 7095   6.534   7.909  10.150 -0.5765 -0.9589  0.0755
66830SOL    HW2 7096   6.579   7.857  10.015 -2.3721 -1.6767 -0.2687
66831SOL     OW 7097   9.594   8.739  11.177 -0.2300  0.1007  0.5485
66831SOL    HW1 7098   9.636   8.800  11.116 -0.0354 -1.6546 -1.1789
66831SOL    HW2 7099   9.503   8.735  11.149 -1.1049  2.0066  2.7434
66832SOL     OW 7100   0.342  12.763   7.463  0.0092  0.3157 -0.0728
66832SOL    HW1 7101   0.387  12.841   7.495  1.8944 -0.4277 -0.8221
66832SOL    HW2 7102   0.302  12.791   7.380 -0.6882  0.8887  0.4415
66833SOL     OW 7103   9.599   5.669  12.646 -0.1985  0.4567  0.3411
66833SOL    HW1 7104   9.657   5.598  12.618  1.2493  1.6800  0.0850
66833SOL    HW2 7105   9.597   5.662  12.741 -1.2146 -0.7563  0.2567
66834SOL     OW 7106   1.166   3.573   5.804 -0.4625 -0.3565 -0.7316
66834SOL    HW1 7107   1.215   3.516   5.745 -0.3316 -0.7101 -0.2855
66834SOL    HW2 7108   1.219   3.578   5.883 -1.4117 -1.2318 -0.0120
66835SOL     OW 7109   2.588  10.221   8.976 -0.6104 -0.1637  0.8118
66835SOL    HW1 7110   2.620  10.190   9.060  0.8354 -0.4205  0.2033
66835SOL    HW2 7111   2.595  10.144   8.918  1.1528  0.7165 -0.2286
66836SOL     OW 7112   3.296  12.726   5.285 -0.3550  0.6648 -0.5932
66836SOL    HW1 7113   3.269  12.653   5.228 -0.4228 -0.1897  0.4897
66836SOL    HW2 7114   3.365  12.689   5.339  2.1463  2.4338 -2.3958
66837SOL     OW 7115  11.731   7.858   3.472  0.4036 -0.2510  0.2103
66837SOL    HW1 7116  11.780   7.904   3.404 -1.5334  2.0854  0.2787
66837SOL    HW2 7117  11.657   7.818   3.425 -0.3389  0.4621  0.7363
66838SOL     OW 7118   5.809   2.787  11.679 -0.2186  0.3116  0.4079
66838SOL    HW1 7119   5.751   2.804  11.605 -0.6711  2.5587  1.2188
66838SOL    HW2 7120   5.884   2.741  11.641 -0.8643  0.5897 -1.2612
66839SOL     OW 7121   6.276  10.416   3.268  0.1206 -0.1158  0.6641
66839SOL    HW1 7122   6.213  10.378   3.207  0.9326 -1.7730  0.7985
66839SOL    HW2 7123   6.350  10.443   3.213  0.0010  0.2942  0.6981
66840SOL     OW 7124   5.446  11.791  12.486  0.4863 -0.5170  0.0290
66840SOL    HW1 7125   5.526  11.742  12.501  2.1751  1.9010 -0.5182
66840SOL    HW2 7126   5.461  11.838  12.404 -1.3015  0.3948  0.1573
66841SOL     OW 7127   0.673   9.564  11.658 -0.0542  0.3016 -0.6670
66841SOL    HW1 7128   0.752   9.617  11.662  0.7570 -0.7423 -1.9936
66841SOL    HW2 7129   0.654   9.555  11.565 -1.8966  0.7257 -0.3705
66842SOL     OW 7130   3.747   4.396   3.640 -0.3853  0.0668  0.5947
66842SOL    HW1 7131   3.822   4.342   3.664 -0.5741 -0.5201 -0.0939
66842SOL    HW2 7132   3.777   4.446   3.563 -0.0141  1.4033  1.5752
66843SOL     OW 7133   5.815   9.198   0.769 -0.1002  0.4534 -0.3347
66843SOL    HW1 7134   5.741   9.144   0.740 -0.1694  1.0674 -1.3189
66843SOL    HW2 7135   5.893   9.149   0.743 -0.0125 -1.6085  3.1653
66844SOL     OW 7136  11.186   1.258   5.499  0.0272 -0.7494  0.1424
66844SOL    HW1 7137  11.208   1.336   5.551  3.7023 -1.0217 -0.7855
66844SOL    HW2 7138  11.270   1.215   5.482 -1.7596 -4.7383  0.1863
66845SOL     OW 7139   4.313   3.952   0.885 -0.1863 -0.3819 -0.0708
66845SOL    HW1 7140   4.360   4.031   0.860 -0.5235 -0.4375 -0.9083
66845SOL    HW2 7141   4.252   3.936   0.813  1.4155 -2.6643 -1.0688
66846SOL     OW 7142  12.112   7.035   6.611 -0.0865 -0.4258  0.3726
66846SOL    HW1 7143  12.091   7.045   6.518 -1.2101 -1.1802  0.5305
66846SOL    HW2 7144  12.200   7.073   6.620  1.1581 -2.5874 -1.4871
66847SOL     OW 7145   8.473   3.548   3.193  0.5720  0.2666  0.0413
66847SOL    HW1 7146   8.497   3.461   3.222  0.4924 -0.5393 -2.1466
66847SOL    HW2 7147   8.377   3.551   3.204  0.6554  0.3851  0.8214
66848SOL     OW 7148  12.584  10.288   4.689  0.2063 -0.5839  0.7595
66848SOL    HW1 7149  12.537  10.280   4.772 -0.0812 -0.0459  0.6589
66848SOL    HW2 7150  12.583  10.200   4.652  0.9228 -0.9768  1.6309
66849SOL     OW 7151   7.323   6.656  10.368 -0.3843 -0.4295 -0.4786
66849SOL    HW1 7152   7.382   6.583  10.387 -1.3872 -1.6449 -1.8003
66849SOL    HW2 7153   7.235   6.620  10.385 -0.8223  1.3116  1.3873
66850SOL     OW 7154   4.756   7.995   9.402  0.6292 -0.5132 -0.1109
66850SOL    HW1 7155   4.838   7.954   9.426  1.2567 -0.0288 -1.3186
66850SOL    HW2 7156   4.766   8.015   9.308 -0.3595  0.6865  0.0156
66851SOL     OW 7157   2.227   5.574   7.197 -0.3608 -0.5161 -0.3506
66851SOL    HW1 7158   2.172   5.601   7.123 -0.1092 -1.2952 -0.8386
66851SOL    HW2 7159   2.271   5.654   7.224 -0.1648 -0.2835 -1.2996
66852SOL     OW 7160   3.481   3.806   3.460 -0.2569 -0.4675  0.3236
66852SOL    HW1 7161   3.434   3.723   3.468 -0.6750 -0.2642 -0.0084
66852SOL    HW2 7162   3.413   3.873   3.462  0.0953 -0.1174  0.7916
66853SOL     OW 7163   4.243   5.210   4.706 -0.2481 -0.2581 -0.3191
66853SOL    HW1 7164   4.182   5.174   4.642 -1.1424 -0.5889  0.6966
66853SOL    HW2 7165   4.196   5.285   4.744  0.8675  0.8732 -1.1030
66854SOL     OW 7166   0.155  10.813   5.442  0.4635 -0.4160 -0.4963
66854SOL    HW1 7167   0.161  10.896   5.489  1.3391  0.4255 -2.0385
66854SOL    HW2 7168   0.175  10.835   5.351 -0.7460 -2.0730 -1.2091
66855SOL     OW 7169   1.933   3.000   9.637  0.1982 -0.0007  0.1437
66855SOL    HW1 7170   2.009   2.984   9.693  0.6851  0.9839 -0.2048
66855SOL    HW2 7171   1.877   2.924   9.650  0.7560 -0.2513  1.2139
66856SOL     OW 7172   8.210   7.903   4.472 -0.2169  0.4164  0.4122
66856SOL    HW1 7173   8.147   7.843   4.434 -0.2042  0.7165 -0.1083
66856SOL    HW2 7174   8.161   7.984   4.485  0.2587  0.9498 -0.8701
66857SOL     OW 7175   9.513   6.027  11.552  0.0655  0.3785  0.1983
66857SOL    HW1 7176   9.456   6.057  11.481  0.4240 -1.5585 -0.9900
66857SOL    HW2 7177   9.503   6.093  11.620 -2.8034  0.6589 -0.3595
66858SOL     OW 7178   3.667   8.473  10.652 -0.1312  0.2897  0.0985
66858SOL    HW1 7179   3.706   8.388  10.671 -0.5811  0.6378  3.1456
66858SOL    HW2 7180   3.734   8.536  10.678 -0.0758  0.9124 -1.4520
66859SOL     OW 7181   5.878   7.776   6.225 -0.3905  0.8020 -0.1898
66859SOL    HW1 7182   5.896   7.684   6.204 -0.3984  0.0555  2.7308
66859SOL    HW2 7183   5.937   7.825   6.168  0.4659 -1.0494 -0.9805
66860SOL     OW 7184  12.025   2.581   8.694 -0.1771  0.1124 -0.7518
66860SOL    HW1 7185  11.990   2.499   8.728  1.2253 -0.6179 -1.0039
66860SOL    HW2 7186  11.971   2.649   8.735  0.3564 -0.7944  1.6303
66861SOL     OW 7187  12.491  11.508  12.444  0.2354  0.2250  0.1585
66861SOL    HW1 7188  12.525  11.502  12.355 -1.5919  0.9056 -0.6509
66861SOL    HW2 7189  12.512  11.424  12.484  0.4265 -0.3941 -1.1899
66862SOL     OW 7190   6.658   3.023  10.909 -0.0680  0.1539  0.4927
66862SOL    HW1 7191   6.718   3.090  10.876 -0.1744  0.0930  0.1693
66862SOL    HW2 7192   6.578   3.034  10.857  0.0952 -0.5516  0.0727
66863SOL     OW 7193   1.620  10.951   8.129  0.3923  0.2421 -0.1867
66863SOL    HW1 7194   1.624  11.043   8.153  0.6473  0.5884 -1.5084
66863SOL    HW2 7195   1.527  10.934   8.112  0.4696  0.5238 -0.9194
66864SOL     OW 7196   1.564   5.497   4.274  0.5525  0.1957 -0.0764
66864SOL    HW1 7197   1.487   5.450   4.241  1.0774  0.1882 -1.3492
66864SOL    HW2 7198   1.586   5.452   4.356 -1.8726  1.3609  1.3262
66865SOL     OW 7199  12.459   0.195   1.545  0.2630  0.2760 -0.4462
66865SOL    HW1 7200  12.478   0.175   1.637 -0.8341  0.5173 -0.1598
66865SOL    HW2 7201  12.448   0.109   1.503  0.9447  0.1613 -0.4026
66866SOL     OW 7202   8.020   0.673  12.177 -0.1630 -0.0630  0.4726
66866SOL    HW1 7203   7.992   0.763  12.157  1.8382  0.8940  1.6225
66866SOL    HW2 7204   8.018   0.669  12.273  1.2335 -0.7012  0.4957
66867SOL     OW 7205   1.067  12.198   4.607  0.4139 -0.0726  0.2023
66867SOL    HW1 7206   1.156  12.170   4.626  0.0876 -0.0203  2.0261
66867SOL    HW2 7207   1.038  12.140   4.537  1.8263 -0.1811 -0.3221
66868SOL     OW 7208   4.940   4.814   2.097  0.0849  0.2008 -0.1878
66868SOL    HW1 7209   4.983   4.735   2.065 -0.1833 -0.7579  1.6759
66868SOL    HW2 7210   4.848   4.790   2.103 -0.5842  1.7256 -2.6001
66869SOL     OW 7211   9.997   1.532  11.605  0.0351  0.3877 -0.2651
66869SOL    HW1 7212   9.994   1.478  11.526  0.1926 -0.3826  0.2420
66869SOL    HW2 7213   9.935   1.491  11.665  0.2817  0.6681  0.1879
66870SOL     OW 7214  12.059   4.857  10.913 -0.3269  0.3929 -0.2975
66870SOL    HW1 7215  12.008   4.936  10.928 -2.7163 -0.5176 -2.6605
66870SOL    HW2 7216  12.119   4.880  10.842 -1.7172 -0.0330 -1.7022
66871SOL     OW 7217   6.861   2.957   0.732  0.1052  0.2872 -0.3699
66871SOL    HW1 7218   6.824   2.995   0.653  0.8149  0.7232 -0.4983
66871SOL    HW2 7219   6.955   2.950   0.714  0.0074 -1.6281 -0.4073
66872SOL     OW 7220   0.740   2.564   3.899 -0.1273  0.2544 -0.3866
66872SOL    HW1 7221   0.731   2.486   3.845 -0.4664 -0.5272  0.7679
66872SOL    HW2 7222   0.713   2.537   3.987  1.6285  1.1271  0.4907
66873SOL     OW 7223   6.878   0.253   1.123 -0.6068 -0.6487 -0.0133
66873SOL    HW1 7224   6.882   0.293   1.210 -0.5208  0.1405 -0.3728
66873SOL    HW2 7225   6.909   0.163   1.137  0.1079 -0.3128  0.6450
66874SOL     OW 7226  12.345  10.393   7.412 -0.2133  0.1340  0.3474
66874SOL    HW1 7227  12.321  10.463   7.473 -1.1759 -0.8278  1.1134
66874SOL    HW2 7228  12.289  10.319   7.437  0.5122 -0.7965 -0.6749
66875SOL     OW 7229   7.578   1.884  11.793  0.2665 -0.4641  0.1465
66875SOL    HW1 7230   7.661   1.908  11.750 -0.3668  0.0067 -0.8418
66875SOL    HW2 7231   7.588   1.916  11.883  0.2577  1.7734 -0.5809
66876SOL     OW 7232   3.046   6.680   3.325  0.1286 -0.3954 -0.0140
66876SOL    HW1 7233   2.965   6.630   3.340  0.2146 -1.0261 -1.5047
66876SOL    HW2 7234   3.063   6.671   3.231  1.4671  0.4495  0.1228
66877SOL     OW 7235   9.099   0.252   4.300 -0.4563  0.1214  0.5367
66877SOL    HW1 7236   9.170   0.204   4.259  0.3023  2.3972 -1.0065
66877SOL    HW2 7237   9.044   0.185   4.339  1.5507 -1.8282  0.2029
66878SOL     OW 7238  11.763   6.624   0.095 -0.4359 -0.8259 -0.3453
66878SOL    HW1 7239  11.831   6.623   0.027 -0.3823 -2.1186 -0.2924
66878SOL    HW2 7240  11.765   6.713   0.130 -1.7605  0.4782 -3.2977
66879SOL     OW 7241   4.635   9.334   2.018  0.0941  0.2753  0.2978
66879SOL    HW1 7242   4.695   9.308   1.948 -1.6507 -0.6864 -0.9323
66879SOL    HW2 7243   4.665   9.286   2.095  0.9788 -0.0625 -0.2437
66880SOL     OW 7244  11.064   7.945   6.052  0.3653 -0.1190 -0.1875
66880SOL    HW1 7245  11.089   7.853   6.056 -2.0623 -0.9395 -2.1304
66880SOL    HW2 7246  11.022   7.962   6.136  0.4629 -0.8912  0.0252
66881SOL     OW 7247   2.812   8.728   5.789 -0.3172 -0.3787  0.7578
66881SOL    HW1 7248   2.737   8.788   5.794 -0.4905 -0.5358  0.0783
66881SOL    HW2 7249   2.884   8.778   5.829 -0.3374  0.4858 -0.2427
66882SOL     OW 7250   8.395  11.027   7.631 -0.2110 -0.3057  0.4976
66882SOL    HW1 7251   8.489  11.043   7.621  0.3790 -2.0485  2.5410
66882SOL    HW2 7252   8.364  11.101   7.682 -0.0479  0.4153 -0.4043
66883SOL     OW 7253   6.900   8.157   8.736 -0.5067  0.1722 -0.4272
66883SOL    HW1 7254   6.949   8.203   8.668  0.0920 -0.0094 -0.1345
66883SOL    HW2 7255   6.808   8.176   8.717 -0.2680  2.6819  0.5112
66884SOL     OW 7256  10.617  12.256   7.884 -0.2293  0.3277 -0.3956
66884SOL    HW1 7257  10.620  12.251   7.980  0.6992  1.4121 -0.3446
66884SOL    HW2 7258  10.690  12.313   7.861 -1.8835  2.0810 -1.5934
66885SOL     OW 7259   4.451   4.673   1.377 -0.3059 -0.2743 -0.0597
66885SOL    HW1 7260   4.403   4.591   1.364  0.4546 -0.7005 -0.1948
66885SOL    HW2 7261   4.383   4.740   1.372 -0.7752 -0.8044 -1.1043
66886SOL     OW 7262   2.381   8.810   0.191  0.1260  0.6195 -0.2902
66886SOL    HW1 7263   2.420   8.893   0.163  2.0609 -0.5017 -1.1545
66886SOL    HW2 7264   2.370   8.761   0.110  1.0579 -0.7789  0.4000
66887SOL     OW 7265   9.590  11.562   4.359  0.0647 -0.7032 -0.3369
66887SOL    HW1 7266   9.516  11.577   4.300 -0.8052 -1.1555  0.6168
66887SOL    HW2 7267   9.636  11.487   4.321 -0.7823 -1.3156 -0.1905
66888SOL     OW 7268   2.638   9.724   0.741 -0.6228  0.7585  0.3718
66888SOL    HW1 7269   2.557   9.769   0.716 -0.2289  0.9227 -0.6832
66888SOL    HW2 7270   2.610   9.637   0.769 -1.2167  1.0148  0.5895
66889SOL     OW 7271   4.930   5.707   4.801  0.1041 -0.0610 -0.1510
66889SOL    HW1 7272   5.016   5.729   4.768  0.8638 -0.9151  1.1484
66889SOL    HW2 7273   4.947   5.644   4.871 -1.4142  1.2295  1.4865
66890SOL     OW 7274   6.302   3.324   0.628 -0.1162 -0.1354 -0.1236
66890SOL    HW1 7275   6.213   3.344   0.598 -0.5229  0.3117  1.3148
66890SOL    HW2 7276   6.352   3.313   0.547 -0.3637  4.2911 -1.1608
66891SOL     OW 7277   5.368   8.528   7.069 -0.3169 -0.0611  0.0852
66891SOL    HW1 7278   5.388   8.458   7.007  1.3361  0.4783 -0.0387
66891SOL    HW2 7279   5.285   8.565   7.038 -0.3161 -0.8292 -0.8623
66892SOL     OW 7280   2.877  12.661   4.107  0.3272  0.0982 -0.7312
66892SOL    HW1 7281   2.830  12.580   4.086  0.0119  0.4503 -1.4016
66892SOL    HW2 7282   2.927  12.681   4.028  1.5052 -0.1854 -0.0854
66893SOL     OW 7283   1.319  11.461   4.300 -0.1569  0.3145  0.2178
66893SOL    HW1 7284   1.332  11.380   4.251  1.1257 -0.3575  1.5765
66893SOL    HW2 7285   1.302  11.527   4.233  1.2196 -0.6214 -1.1256
66894SOL     OW 7286   8.124   5.836  10.692  0.2559 -0.7079 -0.0824
66894SOL    HW1 7287   8.195   5.890  10.657 -0.6498 -0.0624 -0.9962
66894SOL    HW2 7288   8.074   5.809  10.615  0.3581 -2.4143  0.4110
66895SOL     OW 7289   6.651   7.626   2.132 -0.0061  0.2077  0.2802
66895SOL    HW1 7290   6.568   7.584   2.109 -0.2738  0.3816  0.9204
66895SOL    HW2 7291   6.705   7.554   2.165 -0.9410  0.5268  2.7062
66896SOL     OW 7292   8.948   1.130   8.881 -0.2698 -0.1459 -0.1506
66896SOL    HW1 7293   8.858   1.147   8.907  0.1441 -0.6249  1.7877
66896SOL    HW2 7294   8.956   1.035   8.883  0.2480 -0.1119 -0.4336
66897SOL     OW 7295   9.802   1.819   1.028 -0.1293  0.2008  0.5144
66897SOL    HW1 7296   9.870   1.767   1.070 -0.5105 -0.2994  0.5289
66897SOL    HW2 7297   9.779   1.770   0.949  0.1011  0.7828  0.0751
66898SOL     OW 7298   1.305   1.581  10.287 -0.0638 -0.8317 -0.1620
66898SOL    HW1 7299   1.376   1.645  10.281  0.4966 -1.3431  0.7838
66898SOL    HW2 7300   1.337   1.515  10.349 -0.8617 -1.7287 -0.6810
66899SOL     OW 7301   2.026   8.652   9.876 -0.1755  0.1626 -0.3413
66899SOL    HW1 7302   1.995   8.678   9.789 -0.0994  0.2697 -0.3359
66899SOL    HW2 7303   1.968   8.699   9.936  0.2662  0.7073 -0.3263
66900SOL     OW 7304   5.653   2.190   3.600  0.0948 -0.8092  0.3470
66900SOL    HW1 7305   5.596   2.258   3.565  1.2368 -0.6939 -1.4005
66900SOL    HW2 7306   5.593   2.125   3.637 -1.2616 -1.0587 -2.0946
66901SOL     OW 7307   9.366  12.603   6.650 -0.1715  0.7629 -0.3313
66901SOL    HW1 7308   9.330  12.518   6.623  0.6875  0.6448 -1.1606
66901SOL    HW2 7309   9.459  12.587   6.665 -0.3022  1.2200  1.0896
66902SOL     OW 7310   6.517   7.116  11.986  0.1165  0.8747  0.0394
66902SOL    HW1 7311   6.590   7.176  11.998 -0.6712  1.8833 -0.0303
66902SOL    HW2 7312   6.443   7.173  11.963 -0.2962 -0.2433 -1.6345
66903SOL     OW 7313   0.470  12.061  11.290  0.0084 -0.0500 -0.3295
66903SOL    HW1 7314   0.466  12.144  11.338 -1.2159 -0.1468 -0.2125
66903SOL    HW2 7315   0.545  12.070  11.232  0.2618  0.8992  0.1206
66904SOL     OW 7316   8.030   3.890  11.988  0.4837 -0.0778  0.4925
66904SOL    HW1 7317   7.960   3.947  12.017  0.7752  0.4685  0.1384
66904SOL    HW2 7318   7.987   3.825  11.932  0.3669  0.7418 -0.3941
66905SOL     OW 7319  12.205   0.581   2.739 -0.2374 -0.0550  0.0501
66905SOL    HW1 7320  12.208   0.505   2.798 -2.3251 -1.0998 -1.0944
66905SOL    HW2 7321  12.279   0.635   2.767  0.9276 -2.1606  1.3668
66906SOL     OW 7322   4.105  10.413   3.046 -0.2918  0.6994  0.4246
66906SOL    HW1 7323   4.054  10.489   3.016 -0.4827  0.6770  0.6920
66906SOL    HW2 7324   4.078  10.400   3.136 -0.1866  0.3674  0.4087
66907SOL     OW 7325   0.430   4.542   6.552 -0.0743 -0.0370  0.0824
66907SOL    HW1 7326   0.455   4.514   6.464  0.2037  1.4345 -0.3341
66907SOL    HW2 7327   0.351   4.596   6.539  1.6041  2.6718  0.3013
66908SOL     OW 7328   9.394   9.307   0.904 -0.3170  0.6648 -0.3335
66908SOL    HW1 7329   9.482   9.274   0.886 -1.1243 -2.2337  0.6212
66908SOL    HW2 7330   9.407   9.380   0.964  1.4031 -0.0116  0.1535
66909SOL     OW 7331  10.411   3.544   0.044 -0.2069 -0.2129 -0.0444
66909SOL    HW1 7332  10.504   3.536   0.024 -0.2285 -0.5552 -0.0145
66909SOL    HW2 7333  10.408   3.545   0.140 -0.2247 -0.0733 -0.0462
66910SOL     OW 7334   9.651   1.792   0.654 -0.0486 -0.5379 -0.0105
66910SOL    HW1 7335   9.574   1.814   0.708 -2.2907 -2.2875 -2.2683
66910SOL    HW2 7336   9.697   1.725   0.704 -0.7178 -0.4008  0.8110
66911SOL     OW 7337   0.664   3.759   5.879  0.2082  0.0424  0.3995
66911SOL    HW1 7338   0.742   3.750   5.824  1.1303 -0.0279  1.6690
66911SOL    HW2 7339   0.615   3.677   5.866  0.9047 -0.3799  0.4020
66912SOL     OW 7340   1.262   7.473  10.881 -0.4278 -0.3683 -0.0834
66912SOL    HW1 7341   1.288   7.447  10.970  1.3019 -0.9416 -0.7267
66912SOL    HW2 7342   1.254   7.569  10.886 -0.0614 -0.3632  0.6273
66913SOL     OW 7343   3.406   6.358   7.467  0.1679  0.3522 -0.1360
66913SOL    HW1 7344   3.342   6.339   7.536  1.1357  0.6347  0.8692
66913SOL    HW2 7345   3.450   6.437   7.496  0.6031  0.4755 -1.0893
66914SOL     OW 7346   2.381   4.977   2.098 -0.7108  0.5269  0.6875
66914SOL    HW1 7347   2.318   5.022   2.042 -1.1402 -0.9533 -0.0950
66914SOL    HW2 7348   2.457   4.962   2.042 -1.9677 -2.9501 -0.4004
66915SOL     OW 7349   7.530   1.667  10.665 -0.0731 -0.0895 -0.3035
66915SOL    HW1 7350   7.516   1.576  10.691  1.9431 -0.0300  1.2664
66915SOL    HW2 7351   7.450   1.692  10.620 -1.9156 -1.7342  1.8570
66916SOL     OW 7352   1.833   8.306   7.273  0.0719  0.2258  1.0739
66916SOL    HW1 7353   1.747   8.302   7.231  0.4532 -0.1876  0.3202
66916SOL    HW2 7354   1.891   8.339   7.205  0.6388 -0.1555  1.3700
66917SOL     OW 7355  11.028   1.188   4.278 -0.0620 -0.4195 -0.5900
66917SOL    HW1 7356  11.036   1.251   4.350 -0.3168 -0.2787 -0.6823
66917SOL    HW2 7357  11.107   1.202   4.225 -0.5490  0.4725 -1.1188
66918SOL     OW 7358   7.386  10.520   8.458  0.0681  0.0883 -0.6710
66918SOL    HW1 7359   7.387  10.497   8.365 -0.8473  0.8373 -0.8757
66918SOL    HW2 7360   7.300  10.558   8.473  0.2643  0.1218  0.4559
66919SOL     OW 7361   4.106   4.486   2.560 -0.4253 -0.2157  0.0400
66919SOL    HW1 7362   4.133   4.555   2.620  0.5083 -0.5925  0.0697
66919SOL    HW2 7363   4.032   4.443   2.605 -1.1671  0.8873 -0.0874
66920SOL     OW 7364  10.537   0.704   4.183  0.0237 -0.1302 -0.0125
66920SOL    HW1 7365  10.474   0.774   4.161  0.0165 -1.1214 -3.8696
66920SOL    HW2 7366  10.623   0.743   4.166  0.2777  0.0369  1.5297
66921SOL     OW 7367   3.750   1.513  12.091  0.5566  0.2201 -0.3113
66921SOL    HW1 7368   3.813   1.553  12.031 -0.2043 -0.3943 -1.5790
66921SOL    HW2 7369   3.716   1.438  12.042 -0.6256  0.1251  0.6247
66922SOL     OW 7370   9.308   3.541   0.720 -0.0431  0.0558  0.0578
66922SOL    HW1 7371   9.341   3.466   0.670 -1.3397 -0.7595  0.3751
66922SOL    HW2 7372   9.336   3.523   0.810 -0.2155  0.0312  0.1064
66923SOL     OW 7373   6.511   1.720   3.014 -0.1305 -0.3259  0.3695
66923SOL    HW1 7374   6.599   1.748   2.988  0.1065 -3.2059 -2.6647
66923SOL    HW2 7375   6.526   1.642   3.068 -0.8345  0.4610  1.7423
66924SOL     OW 7376   9.971   8.001   9.317 -0.2471  0.6009 -0.0352
66924SOL    HW1 7377   9.899   7.987   9.255  0.3258  0.7349 -0.7419
66924SOL    HW2 7378  10.050   8.000   9.263  0.4204 -0.9148  0.9042
66925SOL     OW 7379   7.732  11.107   3.956 -0.8416  0.0099 -0.3805
66925SOL    HW1 7380   7.737  11.155   4.038 -1.4601 -0.8052  0.1579
66925SOL    HW2 7381   7.815  11.059   3.951 -0.9842 -0.2886  0.0063
66926SOL     OW 7382   4.681   9.551   6.552 -0.0923  0.2161 -0.2885
66926SOL    HW1 7383   4.695   9.626   6.611 -0.0783 -0.1120  0.1290
66926SOL    HW2 7384   4.600   9.573   6.505 -0.9044 -0.1545  0.8737
66927SOL     OW 7385  12.474   5.139   7.193 -0.2245 -0.6163 -0.0132
66927SOL    HW1 7386  12.568   5.151   7.176 -0.0408  1.6265  1.9765
66927SOL    HW2 7387  12.470   5.078   7.266 -0.3254 -0.7407 -0.1221
66928SOL     OW 7388   5.955   2.282   5.485  0.6701 -0.2500 -0.3820
66928SOL    HW1 7389   5.905   2.233   5.420  0.4453  0.5484 -0.8287
66928SOL    HW2 7390   5.899   2.357   5.506  1.1603  0.0092  0.0121
66929SOL     OW 7391   0.715   9.334   1.004 -0.2897 -0.0067  0.0270
66929SOL    HW1 7392   0.774   9.382   0.945 -0.8216  1.0146  0.2925
66929SOL    HW2 7393   0.745   9.357   1.092  0.2861 -1.2485  0.1632
66930SOL     OW 7394   6.947   1.415   1.217 -0.2874 -0.1147 -0.6152
66930SOL    HW1 7395   6.867   1.434   1.169 -1.6060 -1.5692  0.8775
66930SOL    HW2 7396   6.960   1.491   1.274 -0.9405 -0.1078 -0.4678
66931SOL     OW 7397   9.695   6.114  11.953  0.5237  0.3451  0.9315
66931SOL    HW1 7398   9.620   6.134  11.896  0.8194 -0.8692  0.0764
66931SOL    HW2 7399   9.738   6.199  11.966 -0.5586  0.9343  0.8151
66932SOL     OW 7400   9.712   2.751   0.491  0.2499 -0.4242 -0.3640
66932SOL    HW1 7401   9.753   2.729   0.407  1.0303  0.0273 -0.1123
66932SOL    HW2 7402   9.752   2.835   0.516 -0.4589 -0.2297  0.1390
66933SOL     OW 7403  10.520   9.188   8.736  0.2853 -0.6518 -0.5965
66933SOL    HW1 7404  10.545   9.152   8.821 -1.8443  0.0813  0.3911
66933SOL    HW2 7405  10.573   9.139   8.673  1.3971 -1.7024  1.0801
66934SOL     OW 7406   8.980   0.687   7.209  0.7696  0.1605 -0.1166
66934SOL    HW1 7407   9.011   0.640   7.286  0.0978  0.6596  0.4780
66934SOL    HW2 7408   8.979   0.779   7.236  0.1116  0.2981 -0.5711
66935SOL     OW 7409   5.287  10.721   8.074 -0.3835 -0.2564 -0.0203
66935SOL    HW1 7410   5.359  10.778   8.102 -0.2543 -0.8906  0.9950
66935SOL    HW2 7411   5.324  10.633   8.078 -1.2551 -0.6028  0.6394
66936SOL     OW 7412   7.529  12.736   0.809 -0.1654 -0.5231 -0.2640
66936SOL    HW1 7413   7.462  12.768   0.869  1.0834 -0.0529  0.9338
66936SOL    HW2 7414   7.610  12.736   0.860  0.4142 -3.0301 -1.0350
66937SOL     OW 7415  11.233   5.366   0.480 -0.0758  0.5628 -0.1116
66937SOL    HW1 7416  11.194   5.289   0.439  0.9368 -0.0786  0.1148
66937SOL    HW2 7417  11.286   5.331   0.551  0.3569  1.4740  0.0209
66938SOL     OW 7418   8.636   0.277  12.336  0.0756  0.4642  0.1095
66938SOL    HW1 7419   8.587   0.204  12.298 -0.8336  1.8258 -1.4556
66938SOL    HW2 7420   8.608   0.280  12.428 -0.6385 -0.5165 -0.0586
66939SOL     OW 7421   1.063   1.118  10.751  0.1289 -0.7452 -0.1873
66939SOL    HW1 7422   1.076   1.207  10.716  0.6352 -0.0747  1.6152
66939SOL    HW2 7423   1.126   1.111  10.822 -1.0042 -1.9778  0.7308
66940SOL     OW 7424   3.523   4.793   0.320  0.0912  0.2823  0.9252
66940SOL    HW1 7425   3.509   4.790   0.225 -0.8516  0.5724  1.0377
66940SOL    HW2 7426   3.484   4.711   0.352  0.1150  0.3357  1.0888
66941SOL     OW 7427   6.918   5.074   0.248  0.1386  0.9947 -0.4418
66941SOL    HW1 7428   6.955   5.004   0.195 -0.8067  1.5595 -1.9110
66941SOL    HW2 7429   6.980   5.147   0.238  1.3216  0.3080  1.3932
66942SOL     OW 7430   9.772   2.119   9.323 -0.5024  0.4077 -0.6184
66942SOL    HW1 7431   9.723   2.195   9.291 -0.5754  1.2736  1.4476
66942SOL    HW2 7432   9.862   2.134   9.291 -0.9460  0.2144 -2.0550
66943SOL     OW 7433  10.926   3.131   4.145 -0.0502  0.6013 -0.5275
66943SOL    HW1 7434  10.849   3.099   4.192  0.2313  0.3244 -0.2508
66943SOL    HW2 7435  10.937   3.070   4.072  2.1621 -1.7352  1.5805
66944SOL     OW 7436   8.097   3.210   2.299 -0.4197  0.3108 -0.1515
66944SOL    HW1 7437   8.134   3.297   2.287  0.9857 -0.4034 -1.3779
66944SOL    HW2 7438   8.024   3.223   2.360 -0.6786  2.4205 -0.8299
66945SOL     OW 7439   0.111   3.779   0.946  0.0389 -0.0009 -0.1098
66945SOL    HW1 7440   0.095   3.858   0.894 -0.6009 -1.5891 -2.5161
66945SOL    HW2 7441   0.198   3.793   0.985 -0.4734  2.2651  0.4014
66946SOL     OW 7442   5.983   5.365  12.214  0.0453 -0.2861  0.4959
66946SOL    HW1 7443   5.919   5.320  12.268 -0.9064  1.1144  0.5759
66946SOL    HW2 7444   6.065   5.318  12.231 -1.0971 -2.7877 -0.4141
66947SOL     OW 7445  10.572   8.042   0.535  0.2919 -0.2017  0.0049
66947SOL    HW1 7446  10.483   8.015   0.557 -0.1129  1.3985  0.3939
66947SOL    HW2 7447  10.626   7.965   0.558 -0.9026 -0.9889  0.2754
66948SOL     OW 7448   0.481   9.875   8.728  0.1065  0.3217  0.1549
66948SOL    HW1 7449   0.494   9.889   8.822 -0.7656  1.6659  0.0997
66948SOL    HW2 7450   0.407   9.816   8.723  0.1784  0.2178  0.3129
66949SOL     OW 7451  12.590  12.127  10.990  0.3939 -0.2563  0.4803
66949SOL    HW1 7452  12.607  12.046  10.942 -1.7819 -0.1378 -0.6033
66949SOL    HW2 7453  12.501  12.151  10.966  0.8826  2.3444  0.9610
66950SOL     OW 7454   6.814   7.287  10.529 -0.4529  0.4205 -0.1779
66950SOL    HW1 7455   6.797   7.194  10.520 -3.8347  0.7720  1.1701
66950SOL    HW2 7456   6.889   7.292  10.589 -1.3229 -1.4432  1.1662
66951SOL     OW 7457  12.498   8.329   3.164  0.7053  0.2158 -0.2187
66951SOL    HW1 7458  12.514   8.360   3.075  1.4321  0.4672 -0.0128
66951SOL    HW2 7459  12.559   8.380   3.218 -1.0682  1.4663  0.6854
66952SOL     OW 7460   9.259   3.810   0.711 -0.5012  0.4748 -1.0395
66952SOL    HW1 7461   9.166   3.817   0.692 -1.0975  0.0012  1.4527
66952SOL    HW2 7462   9.278   3.717   0.705  0.5330  0.7445 -4.1917
66953SOL     OW 7463   2.266   5.311   7.590  0.9661  0.1307  0.2771
66953SOL    HW1 7464   2.357   5.332   7.610  0.4698  1.9983  0.7459
66953SOL    HW2 7465   2.240   5.376   7.524  0.3265 -1.1714 -0.7995
66954SOL     OW 7466  10.561  12.395  11.941 -0.3635  0.4514  0.9266
66954SOL    HW1 7467  10.553  12.416  12.034 -1.2710  1.5621  0.6076
66954SOL    HW2 7468  10.619  12.318  11.939  1.4039  1.6713  2.2610
66955SOL     OW 7469   7.819  10.279   4.376  0.6709 -0.3084  0.2065
66955SOL    HW1 7470   7.745  10.314   4.326  1.0332 -0.0578 -0.1632
66955SOL    HW2 7471   7.791  10.283   4.467  0.2964 -0.0511  0.0812
66956SOL     OW 7472   2.544   5.374   7.676 -0.6148 -0.3710  0.2414
66956SOL    HW1 7473   2.625   5.407   7.716 -0.1994 -2.1227  0.9585
66956SOL    HW2 7474   2.566   5.363   7.584 -1.1059  2.2552 -0.2744
66957SOL     OW 7475   9.095   7.927   4.303 -0.4902  0.1776  0.1701
66957SOL    HW1 7476   9.127   7.838   4.287  0.3092  0.2426  1.2954
66957SOL    HW2 7477   9.174   7.981   4.309 -0.9685  0.9760 -0.5037
66958SOL     OW 7478   9.939   6.728   0.281  0.2947 -0.5454 -0.1604
66958SOL    HW1 7479   9.971   6.700   0.196 -0.7477 -1.5960 -0.2245
66958SOL    HW2 7480   9.993   6.805   0.303 -0.3760  0.6452 -2.3865
66959SOL     OW 7481   1.975  10.779   7.184  0.0435  0.4523 -0.2435
66959SOL    HW1 7482   1.990  10.829   7.103 -2.3425 -0.0651 -1.0692
66959SOL    HW2 7483   1.974  10.845   7.253 -0.0847  1.1840 -0.9305
66960SOL     OW 7484  12.155   0.874   5.421 -0.3676 -0.1807 -0.6135
66960SOL    HW1 7485  12.089   0.835   5.479 -0.7634 -0.3097 -1.1432
66960SOL    HW2 7486  12.107   0.940   5.371  0.4250  1.5103  0.7326
66961SOL     OW 7487   2.882   0.180   4.509  0.0021  0.9743 -0.2234
66961SOL    HW1 7488   2.922   0.122   4.444 -0.0379  1.6513 -0.8759
66961SOL    HW2 7489   2.950   0.195   4.574 -0.1030 -0.0807  0.1475
66962SOL     OW 7490  11.373  11.839   6.727  1.0279 -0.2258  0.4870
66962SOL    HW1 7491  11.355  11.755   6.768  3.2332 -0.1610  1.7299
66962SOL    HW2 7492  11.343  11.904   6.790  0.9634 -0.0904  0.3190
66963SOL     OW 7493   5.622   3.123   1.484 -0.0549 -1.0523 -0.1403
66963SOL    HW1 7494   5.534   3.107   1.451  0.4266 -2.3719 -0.8789
66963SOL    HW2 7495   5.621   3.215   1.511 -1.5795 -0.9786 -0.3320
66964SOL     OW 7496  10.332   3.739   1.824 -0.2370  0.5239 -0.4745
66964SOL    HW1 7497  10.362   3.790   1.749 -1.8589  0.7082 -1.0370
66964SOL    HW2 7498  10.252   3.783   1.853 -0.4297 -0.3949  0.4499
66965SOL     OW 7499   5.391   4.506  10.330  0.5156 -0.3668 -0.2059
66965SOL    HW1 7500   5.399   4.504  10.235  1.2768 -0.4770 -0.1455
66965SOL    HW2 7501   5.421   4.420  10.359 -1.9770 -1.2458  0.0016
66966SOL     OW 7502   9.186   6.386   0.651 -0.1191  0.2973 -0.8265
66966SOL    HW1 7503   9.169   6.439   0.574  0.8581  1.5778 -0.2123
66966SOL    HW2 7504   9.178   6.447   0.725 -0.6581 -0.8002  0.0590
66967SOL     OW 7505   7.233   9.809   7.232 -0.6705  0.4633  0.0519
66967SOL    HW1 7506   7.153   9.853   7.202 -1.8951  1.3113  3.9796
66967SOL    HW2 7507   7.226   9.810   7.327  4.6024  1.5402  0.6856
66968SOL     OW 7508   6.007   1.182   1.288 -0.3081 -0.0801 -0.4873
66968SOL    HW1 7509   6.084   1.235   1.311 -0.1309  0.2931 -1.8780
66968SOL    HW2 7510   6.042   1.113   1.231 -0.6843 -1.2014  0.5665
66969SOL     OW 7511   7.482   6.637   0.300  0.4273 -0.3703 -0.2026
66969SOL    HW1 7512   7.474   6.716   0.247 -0.1753  0.9136  1.7116
66969SOL    HW2 7513   7.567   6.646   0.344  0.1113 -0.5095  0.4498
66970SOL     OW 7514   6.843  11.493   9.120 -0.1870  0.1681  0.0907
66970SOL    HW1 7515   6.781  11.538   9.062 -0.4177 -0.9498 -0.5510
66970SOL    HW2 7516   6.852  11.406   9.082  0.5375 -0.2110  1.1087
66971SOL     OW 7517   6.673   6.775   7.910 -0.2881  0.3647 -0.0435
66971SOL    HW1 7518   6.623   6.778   7.991  0.6518  1.0821  0.5328
66971SOL    HW2 7519   6.680   6.867   7.883 -0.0858  0.1839 -0.6181
66972SOL     OW 7520   6.128   9.606   6.206 -0.1844  0.2363  0.0340
66972SOL    HW1 7521   6.034   9.595   6.218 -0.1220 -0.7411 -0.3365
66972SOL    HW2 7522   6.161   9.518   6.189  0.5360  0.7873 -1.5768
66973SOL     OW 7523   0.695  10.632   4.288 -0.3026 -0.0240  0.2908
66973SOL    HW1 7524   0.756  10.703   4.307  0.4384 -0.5580 -0.0326
66973SOL    HW2 7525   0.745  10.571   4.234 -1.3648 -0.0985 -0.6570
66974SOL     OW 7526  12.345   4.143   6.591  0.3999  0.0336 -0.1477
66974SOL    HW1 7527  12.388   4.185   6.666  0.2876 -1.1901  0.6282
66974SOL    HW2 7528  12.407   4.152   6.519  0.5108  1.2331  0.0695
66975SOL     OW 7529   3.325   4.101   5.628 -0.3152  0.0580 -0.0285
66975SOL    HW1 7530   3.239   4.099   5.670 -0.0465 -0.2736  0.5082
66975SOL    HW2 7531   3.380   4.044   5.682  0.6804  1.5700  0.6227
66976SOL     OW 7532   8.948   2.291   5.017 -0.0989  0.2141 -0.0621
66976SOL    HW1 7533   8.946   2.377   5.059  0.8260  0.7763 -1.1199
66976SOL    HW2 7534   8.884   2.299   4.946  0.3828  0.2157 -0.4981
66977SOL     OW 7535   1.331   4.659  11.756 -0.0157  0.1851  0.3081
66977SOL    HW1 7536   1.309   4.727  11.693 -0.8757  0.1338  0.5374
66977SOL    HW2 7537   1.416   4.625  11.727 -1.2577 -1.2072 -2.0117
66978SOL     OW 7538   7.385  12.625   2.527  0.5832  0.1766 -0.0659
66978SOL    HW1 7539   7.289  12.621   2.535  0.7289 -1.2378  1.4272
66978SOL    HW2 7540   7.408  12.543   2.484  1.1274  0.6291 -0.6550
66979SOL     OW 7541   0.878   1.462   5.825  0.5428  0.2387  0.8756
66979SOL    HW1 7542   0.965   1.465   5.865  0.7433 -0.5496  0.5298
66979SOL    HW2 7543   0.859   1.552   5.801  1.6522  0.3002  0.1662
66980SOL     OW 7544   5.024   4.424   8.157  0.2385  0.0519 -0.1209
66980SOL    HW1 7545   5.042   4.409   8.065 -0.4376 -0.8269 -0.1261
66980SOL    HW2 7546   5.108   4.448   8.195  0.1095  2.7235 -1.3732
66981SOL     OW 7547   8.109  11.997  12.257  0.2338 -0.4513  0.4977
66981SOL    HW1 7548   8.092  12.036  12.171  1.1337  0.4994  0.7433
66981SOL    HW2 7549   8.061  12.052  12.319  0.3976 -0.5454  0.7091
66982SOL     OW 7550   5.092   0.767   6.469  0.1493  0.7026 -0.3839
66982SOL    HW1 7551   5.174   0.803   6.502  0.0297  0.7293 -0.1183
66982SOL    HW2 7552   5.082   0.683   6.514 -0.3119  1.0091  0.1012
66983SOL     OW 7553   4.281  10.311   1.672  0.2731  0.7178  0.2124
66983SOL    HW1 7554   4.192  10.335   1.697  0.3160  0.5626  0.5192
66983SOL    HW2 7555   4.276  10.220   1.645  0.4696  0.4818  0.9402
66984SOL     OW 7556  12.138   0.386   9.317 -0.2542 -0.3979  0.6376
66984SOL    HW1 7557  12.135   0.481   9.305  1.7076 -0.2327  1.1621
66984SOL    HW2 7558  12.225   0.360   9.287 -1.4964 -2.3754 -1.5452
66985SOL     OW 7559   8.730   6.647   7.684  0.1623 -0.0112 -0.2902
66985SOL    HW1 7560   8.726   6.669   7.591 -2.1230 -2.6646 -0.9418
66985SOL    HW2 7561   8.812   6.598   7.693 -0.0648 -0.5617 -1.1261
66986SOL     OW 7562   2.261  12.234   3.449 -0.1148 -0.5748 -0.2549
66986SOL    HW1 7563   2.323  12.249   3.377  0.8794  0.8862  0.8363
66986SOL    HW2 7564   2.203  12.166   3.416  1.7851 -1.7078 -1.5208
66987SOL     OW 7565   4.779   4.807   3.505  0.3461 -0.1815  0.5771
66987SOL    HW1 7566   4.695   4.852   3.508  0.2997 -0.2513  0.3558
66987SOL    HW2 7567   4.793   4.777   3.595  0.6088  0.6823  0.8362
66988SOL     OW 7568   4.516   1.722   9.607 -0.1322 -0.1255  0.7315
66988SOL    HW1 7569   4.521   1.646   9.665 -0.1909 -2.1842 -1.7761
66988SOL    HW2 7570   4.605   1.730   9.572 -0.0308  1.2587  1.2643
66989SOL     OW 7571  11.659   3.444  10.322 -0.1404  0.9469  0.3420
66989SOL    HW1 7572  11.667   3.472  10.231  1.1205 -0.1063  0.0860
66989SOL    HW2 7573  11.607   3.363  10.318  1.2102  0.0429  0.3346
66990SOL     OW 7574  12.072   8.012  11.513 -0.2504 -0.1660 -0.5311
66990SOL    HW1 7575  12.158   8.052  11.500 -0.3488 -0.0231 -0.7350
66990SOL    HW2 7576  12.020   8.080  11.556  0.3499 -0.9382  1.5296
66991SOL     OW 7577   3.560   8.814  10.067  0.1374  0.5186 -0.7411
66991SOL    HW1 7578   3.610   8.755  10.123  0.0030  2.1685  1.2420
66991SOL    HW2 7579   3.477   8.770  10.053  0.0607  0.1737  0.6636
66992SOL     OW 7580  11.214  12.722   4.509  0.8349  0.4549  0.1108
66992SOL    HW1 7581  11.247  12.671   4.435 -0.7930 -2.8453  1.4329
66992SOL    HW2 7582  11.291  12.739   4.563  1.2688 -2.8602  0.7702
66993SOL     OW 7583   5.655   1.106   6.690 -0.0879  0.1077  0.3915
66993SOL    HW1 7584   5.746   1.090   6.715 -0.0673 -0.8363 -0.2198
66993SOL    HW2 7585   5.645   1.201   6.693  0.6923  0.1787  1.2064
66994SOL     OW 7586  11.953   0.604   4.520  0.2676  0.1372 -0.2598
66994SOL    HW1 7587  11.992   0.654   4.591  2.1671  0.7497 -1.6525
66994SOL    HW2 7588  11.864   0.638   4.513  1.3774  3.1911 -0.9336
66995SOL     OW 7589   5.682   2.432   0.697 -0.4998  0.0557  1.1998
66995SOL    HW1 7590   5.596   2.415   0.734 -0.2996 -0.0713  1.6201
66995SOL    HW2 7591   5.671   2.422   0.602 -0.7283 -0.9603  1.3217
66996SOL     OW 7592  12.593   5.461   2.538  0.3035 -0.3215  0.0194
66996SOL    HW1 7593  12.659   5.487   2.474  1.7911 -3.3403  0.1775
66996SOL    HW2 7594  12.538   5.398   2.492 -0.9964  0.3076  0.6456
66997SOL     OW 7595   0.479   8.527   5.007  0.4566  0.3128  0.7708
66997SOL    HW1 7596   0.424   8.547   4.931 -0.8289 -1.0052  1.2926
66997SOL    HW2 7597   0.548   8.471   4.973  0.8588  1.0813  0.2969
66998SOL     OW 7598   0.713  10.515   9.903 -0.3855  0.7418 -0.2054
66998SOL    HW1 7599   0.646  10.474   9.957  0.7272 -1.4996 -0.3789
66998SOL    HW2 7600   0.796  10.482   9.939  0.4245  0.0566 -2.5243
66999SOL     OW 7601  12.639  12.366  10.735  0.3752  0.6123  0.1887
66999SOL    HW1 7602  12.670  12.454  10.758  2.3622 -0.4171  1.6599
66999SOL    HW2 7603  12.669  12.310  10.806 -1.5621 -1.1740 -0.2891
67000SOL     OW 7604   8.627  12.188   4.537  0.2015 -0.1993 -0.4349
67000SOL    HW1 7605   8.619  12.119   4.603  1.8189  0.4051  0.4596
67000SOL    HW2 7606   8.569  12.258   4.568  1.0518  0.1317  0.4324
67001SOL     OW 7607   0.425   3.077   0.232  0.2066  0.2375 -0.3675
67001SOL    HW1 7608   0.350   3.021   0.214 -1.2615  1.8896  0.2309
67001SOL    HW2 7609   0.388   3.151   0.281  2.1211  1.4262 -0.5972
67002SOL     OW 7610   6.139   9.256   7.683  0.2978  0.1726  0.4579
67002SOL    HW1 7611   6.207   9.189   7.690 -0.8612 -0.9526  1.4044
67002SOL    HW2 7612   6.188   9.339   7.682  1.8071 -0.6562 -1.4092
67003SOL     OW 7613   8.955   5.999   3.989 -0.6686  0.0241 -0.1288
67003SOL    HW1 7614   8.940   5.908   4.016 -0.6205  0.1407  0.2977
67003SOL    HW2 7615   8.984   6.043   4.069  0.2736  0.1932 -0.5506
67004SOL     OW 7616  12.711  12.463   6.094  0.7066  0.3856  0.2195
67004SOL    HW1 7617  12.660  12.525   6.043  0.2592  0.1331  0.3556
67004SOL    HW2 7618  12.797  12.463   6.053  0.5306  0.6480 -0.1499
67005SOL     OW 7619   1.163   8.258   3.847  0.1447  0.1993 -0.0745
67005SOL    HW1 7620   1.169   8.258   3.943  1.0999  2.9360 -0.0583
67005SOL    HW2 7621   1.251   8.278   3.817 -0.1066 -0.7856 -1.5714
67006SOL     OW 7622   0.268   1.562   0.956 -0.1550  0.0163 -0.2672
67006SOL    HW1 7623   0.300   1.603   1.036  1.4289 -2.5521  0.5124
67006SOL    HW2 7624   0.173   1.561   0.966 -0.0350  0.6905  1.0869
67007NA      NA 7625  11.952   4.586   8.259  0.2174  0.6855 -0.7871
67008NA      NA 7626   9.577  10.864  11.591  0.2082  0.4903  0.2911
67009NA      NA 7627   9.718   3.319   4.006 -0.0757  0.0075 -0.5245
67010NA      NA 7628  10.826   9.431   3.989 -0.3424  0.3811  0.0646
67011NA      NA 7629   2.658   3.527   6.220  0.0634  0.2148  0.0200
67012NA      NA 7630   8.490   7.612   5.997  0.4550 -0.2802  0.2293
67013NA      NA 7631   8.360   4.287   5.194 -0.5331 -0.2228 -0.5674
67014NA      NA 7632  10.668  11.954   3.375  0.2071  0.3869  0.1605
67015NA      NA 7633   5.664   5.627   7.419  0.0879  0.0402  1.0532
67016NA      NA 7634   7.005   6.015   8.367 -0.1644 -0.4019 -0.6274
67017NA      NA 7635  11.951   6.479   7.204  0.1058  0.1454 -0.1402
67018NA      NA 7636   8.360   6.942   5.214  0.4536  0.1807 -0.2937
67019NA      NA 7637   5.999   4.953   1.718  0.0378  0.2322  0.8714
67020NA      NA 7638   9.552   5.353   6.793  0.5849 -0.5200  0.5218
67021NA      NA 7639   9.363   3.949   8.375  0.3263  0.4734 -0.5447
67022NA      NA 7640   1.933  12.003   6.138  0.0735  0.2564 -0.1759
67023NA      NA 7641   9.457   6.953   5.430  0.0507 -0.4462  0.4758
67024NA      NA 7642   0.205   4.154   7.104  0.2242 -0.0863  0.1016
67025NA      NA 7643   6.835   4.852   6.464 -0.1818 -0.6372 -0.4984
67026NA      NA 7644   8.593   8.030   8.652  0.3018  0.0631 -0.0700
67027NA      NA 7645   9.179   6.358  12.505 -0.4048 -0.2121  0.3793
67028NA      NA 7646  11.889   2.911   8.352 -0.2595 -0.3532  0.4614
67029NA      NA 7647  11.774   3.882   6.385 -0.1938 -0.3296 -0.3428
67030NA      NA 7648   7.670   7.246   1.977 -0.5433  0.1117  0.2149
67031NA      NA 7649  11.830   6.275   5.067  0.2752  0.1250  0.4893
67032NA      NA 7650  11.091   5.350   7.287  0.0602 -0.1694  0.0358
67033NA      NA 7651  11.361   4.842   4.632  0.5898 -0.2444  0.5775
67034NA      NA 7652   7.016   3.422   7.833 -0.4245  0.1747 -0.3364
67035NA      NA 7653   4.607   0.931   6.550 -0.5893 -0.3360 -0.0729
67036NA      NA 7654  11.150   6.757   1.420 -0.4038 -0.3295  0.0942
67037NA      NA 7655  11.926  10.122  11.004  0.3394  0.3699 -0.7210
67038NA      NA 7656   0.188   3.559   4.224  0.3368 -0.1031  0.2591
67039NA      NA 7657   4.568  11.092   6.667 -0.1465 -0.6526  0.1183
67040NA      NA 7658   7.602  10.639   3.956  0.2109 -0.2730  0.5769
67041NA      NA 7659   9.825   6.142   8.638 -0.1092 -0.3206 -0.0880
67042NA      NA 7660  10.189   6.366   5.023  0.2438 -0.5162  0.5574
67043NA      NA 7661  11.529   6.381   5.025  0.1573  0.0266  0.4798
67044NA      NA 7662   9.626   5.850   5.548  0.7066  0.2980 -0.0231
67045NA      NA 7663   8.371   4.783   5.002  0.2120  0.2228 -0.7661
67046NA      NA 7664   9.469   5.147   4.751  0.2443  0.2949 -0.2868
67047NA      NA 7665  11.665   4.201   5.433 -0.1669 -0.0474 -0.1646
67048NA      NA 7666   9.430   5.427   4.635  0.4858 -0.0724 -0.1880
67049NA      NA 7667   9.163   3.859   3.209  0.3473 -0.4146  0.3027
67050NA      NA 7668  10.779   6.022   9.076  0.1842  0.3224 -0.4797
67051NA      NA 7669   7.308  12.512  10.187 -0.2573  0.2775  0.5923
67052NA      NA 7670  11.461   6.361   6.884 -0.0393 -0.6051 -0.2936
67053NA      NA 7671   8.799   6.043   6.046  0.2103  0.3372 -0.0722
67054NA      NA 7672   3.232   7.155   7.259  0.4642 -0.0076 -0.1607
67055NA      NA 7673  10.053   0.717   3.847 -0.4141  0.7049  0.1511
67056NA      NA 7674   7.489   7.070   6.009 -0.1517 -0.2136  0.2356
67057NA      NA 7675   8.397  11.104   4.430  0.6110 -0.3207  0.0704
67058NA      NA 7676   3.357   6.560   3.602 -0.5049 -0.0356 -0.0926
67059NA      NA 7677   7.082   2.470   6.955 -0.2822  0.1825 -0.1300
67060NA      NA 7678   1.257   6.403   7.309 -0.3549 -0.5980 -0.0313
67061NA      NA 7679   1.762   8.661   7.179 -0.3465 -0.3553 -0.0699
67062NA      NA 7680  11.420   5.294   4.940  0.3961 -0.3159  0.5879
67063NA      NA 7681   6.719   4.880   7.984 -0.2427  0.1412 -0.5776
67064NA      NA 7682   9.287   9.613   3.565 -0.1619  0.2596 -0.2601
67065NA      NA 7683  11.418   5.280   7.331  0.1958 -0.3447  0.3998
67066NA      NA 7684  10.843   7.294   8.067 -0.6308 -0.4540 -0.2536
67067NA      NA 7685  12.606   3.686   8.110  0.6424  0.2410  0.1631
67068NA      NA 7686  11.090   4.458   3.650 -0.1186  0.7666 -0.2152
67069NA      NA 7687  11.477   6.189   6.619 -0.5523 -0.0868 -0.1304
67070NA      NA 7688   7.380   5.946   9.370 -0.4728  0.5317  0.1996
67071NA      NA 7689   5.967   2.590   1.579 -0.0101 -0.1518  0.2430
67072NA      NA 7690   7.398   3.707   7.234  0.2003 -0.1857  0.3651
67073NA      NA 7691   7.934   6.609   8.712  0.5888 -0.0023 -0.0138
67074NA      NA 7692  11.501   0.015  12.537  0.0995  0.0113 -0.2047
67075NA      NA 7693   7.175   3.774   5.354 -0.0100  0.1928  0.1179
67076NA      NA 7694   0.676   6.506   2.039  0.5684 -0.0891  0.3933
67077NA      NA 7695   3.025  12.550   8.175 -0.1124 -0.2807 -0.2631
67078NA      NA 7696   4.987   6.488   8.335 -0.3622 -0.0362 -0.1497
67079NA      NA 7697   9.309   1.431   5.231 -0.5386 -0.0281  0.0369
67080NA      NA 7698   9.961   2.825   8.986  0.0021  0.2969  0.5796
67081NA      NA 7699   7.443   3.805   7.999 -0.2720 -0.2833 -0.4758
67082NA      NA 7700  10.447   6.256   4.861 -0.3162  0.0456  0.0584
67083NA      NA 7701   6.751   5.526   8.804  0.2596 -0.2686 -0.0554
67084NA      NA 7702   8.326   1.885  11.406 -0.3643  0.5785  0.1783
67085NA      NA 7703   7.776   7.131   7.096 -0.4397  0.7358  0.2640
67086NA      NA 7704  11.013   4.946   7.122 -0.4891 -0.2770  0.3586
67087NA      NA 7705  11.701   3.671   6.156  0.1304  0.1578  0.0660
67088NA      NA 7706  11.341   3.622   8.378  0.5870 -0.2558 -0.5832
67089NA      NA 7707   7.105   3.972   7.574 -0.4873  0.1850  0.0221
67090NA      NA 7708   6.155   2.235  12.492  0.6211 -0.4531 -0.1834
67091NA      NA 7709   9.170   2.182   7.312  0.2459 -0.3361 -0.0922
67092NA      NA 7710   7.503   2.747   6.742 -0.0778 -0.5769  0.0236
67093NA      NA 7711   8.364   9.815   5.691  0.1710  0.3918 -0.2949
67094NA      NA 7712   8.399   4.007   5.122 -0.1341 -0.0020  0.6653
67095NA      NA 7713   9.308   5.828   5.508  0.1290  0.2080 -0.0960
67096NA      NA 7714   7.394   4.800   5.295  1.0110  0.0725 -0.2831
67097NA      NA 7715   6.967   6.009   6.251  0.0422 -0.0341  0.1313
67098NA      NA 7716   7.794   4.120   4.520  0.1459  0.3058  0.0018
67099NA      NA 7717   1.069   2.716  10.945  0.1606  0.5872  0.0114
67100NA      NA 7718  11.463   4.263   6.673  0.2623 -0.1075 -0.4038
67101NA      NA 7719  11.399   4.086   5.370 -0.0194 -0.6951  0.0832
67102NA      NA 7720   1.720   9.630  12.104 -1.3856 -0.7635 -0.2395
67103NA      NA 7721  11.100   6.775   5.545  0.3710 -0.1912 -0.5850
67104NA      NA 7722   9.741   2.621   4.799  0.3112  0.2908 -0.2261
67105NA      NA 7723   4.580   2.631   3.104 -0.7344 -0.3309  0.4120
67106NA      NA 7724  11.752   4.636   7.786  0.2936  0.5402  0.3982
67107NA      NA 7725  12.221   5.404   7.433  0.2907 -0.7279 -0.3248
67108NA      NA 7726  11.158   0.432   6.129  0.2963  0.3540  0.0569
67109NA      NA 7727   3.188   5.746  10.848 -0.2731 -0.0164  0.0626
67110NA      NA 7728   3.677   2.783  12.462 -0.1841 -0.2072 -0.3332
67111NA      NA 7729  10.876   6.384   7.852  0.5288 -0.0989  0.1512
67112NA      NA 7730   9.594   3.577   4.136 -0.5561  0.3142  0.2377
67113NA      NA 7731  11.064   4.397   4.716 -0.1708  0.5720  0.1395
67114NA      NA 7732   7.605   5.452   5.600  0.0729 -0.4008  0.1604
67115NA      NA 7733  11.242   5.162   7.108 -0.7871 -0.1362 -0.1134
67116NA      NA 7734  11.745   6.144   3.885 -0.1318 -0.4362  0.3141
67117NA      NA 7735   8.675   4.748   5.041 -0.1070  0.0673  0.0286
67118NA      NA 7736   9.445   5.689   5.725 -0.1019 -0.2623 -0.2544
67119NA      NA 7737   4.048  11.638   9.975 -0.4443  0.6297  0.4230
67120NA      NA 7738   3.412   5.148   3.539  0.5526  0.1994 -0.1492
67121NA      NA 7739  11.675   5.687   8.245  0.4047 -0.6259 -0.5307
67122NA      NA 7740   9.561   5.585   7.561  0.4502 -0.0204  0.3096
67123NA      NA 7741  10.978   5.242   7.016 -0.2090 -0.1164  0.3392
67124NA      NA 7742   9.689   6.046   7.604 -0.0582  0.2852 -0.3326
67125NA      NA 7743   9.769   5.567   6.808 -0.2453 -0.3167  0.2847
67126NA      NA 7744  11.663   5.515   8.496 -0.2243  0.3219 -0.2152
67127NA      NA 7745   1.232  11.296   3.556 -0.4934 -0.0544 -0.5299
67128NA      NA 7746   6.019  11.658   3.312 -0.0424 -0.1381 -0.0521
67129NA      NA 7747   9.724  12.294   2.821 -0.5854 -0.0380  0.2295
67130NA      NA 7748   4.149   1.257   9.367 -0.0613 -0.1113 -0.2027
67131NA      NA 7749  11.076  10.333   5.655 -0.4764 -0.3211 -0.3659
67132NA      NA 7750   4.309   3.587   9.369 -0.2967  0.2780 -0.4074
67133NA      NA 7751  10.585   2.183   6.575 -0.3197  0.2068 -0.6880
67134NA      NA 7752  10.879   1.344  11.442  0.1858  0.5790 -0.2746
67135NA      NA 7753   8.493   6.979   3.628  0.7467  0.0425  0.0348
67136NA      NA 7754  12.643   3.090   2.474  0.0389  0.1558 -0.2833
67137NA      NA 7755  11.251   6.188   6.791 -0.0377  0.5262  0.6808
67138NA      NA 7756   8.404   8.469  11.979 -0.2223 -0.1334 -0.3863
67139NA      NA 7757   8.387   1.935   8.115 -0.1775 -0.4049 -0.5101
67140NA      NA 7758  10.490   2.651   4.285  0.1950 -0.0309 -0.4596
67141NA      NA 7759   9.334   6.719   5.424 -0.7056 -0.1178 -0.0764
67142NA      NA 7760   2.998  10.201   7.561 -0.0511  0.5505  0.2643
67143NA      NA 7761  11.166   4.328   6.750  0.2437 -0.1117 -0.0081
67144NA      NA 7762  11.780   0.233   9.519  0.0124 -0.2474  0.0569
67145NA      NA 7763   9.128   2.114   8.447  0.3247 -0.0297 -0.2759
67146NA      NA 7764   0.177   9.962   4.106  0.2488  0.1785  0.5685
67147NA      NA 7765   2.705   7.010   0.238  0.5401  0.5126 -0.8308
67148NA      NA 7766   7.839   3.208   6.876  0.3773  0.3223 -0.6194
67149NA      NA 7767  10.078   4.451   8.695 -0.0017 -0.0619  0.0922
67150NA      NA 7768   6.474   5.402   8.978  0.0973  0.6343  0.5104
67151NA      NA 7769   6.782   4.908  12.302  0.2277  0.4352 -0.0119
67152NA      NA 7770   1.456  10.030   1.262 -0.0750  0.1064  0.0696
67153NA      NA 7771   6.730  12.706   7.984 -0.1777 -0.1090 -0.0627
67154NA      NA 7772  12.395   3.610   8.335 -0.0363 -0.4321  0.3065
67155NA      NA 7773   8.631   2.818   6.709  0.0342 -0.4740  0.0027
67156NA      NA 7774   3.545  11.649  12.209  0.1309 -0.4566 -0.1187
67157NA      NA 7775  11.216   6.553   5.099  0.0302  0.0104 -0.4570
67158NA      NA 7776   9.591   5.682   4.720 -0.0038  0.2425  0.4959
67159NA      NA 7777   0.173  10.355   5.919 -0.1028 -0.0267  0.0157
67160NA      NA 7778   5.967  10.820   2.583 -0.0460 -0.2465 -0.1733
67161NA      NA 7779  11.325   5.146   4.729  0.1080 -0.3012  0.1991
67162NA      NA 7780   9.295   2.721   5.694  0.3144 -0.0328 -0.4143
67163NA      NA 7781   8.862   2.061  10.930  0.3960 -0.3716 -0.0876
67164NA      NA 7782   9.418   3.226   3.997  0.4709  0.2064 -0.0566
67165NA      NA 7783  10.676   2.467   6.767 -0.3673 -0.0311 -0.1409
67166NA      NA 7784   3.969   3.791   0.706  0.3592  0.1827 -0.7108
67167NA      NA 7785   7.436   6.989   7.832  0.0515  0.1240 -0.2660
67168NA      NA 7786   9.994   7.044   9.836  0.2873 -0.3879  0.0296
67169NA      NA 7787   7.664   7.016   8.058 -0.2931  0.2574 -0.1209
67170NA      NA 7788   7.486   5.789   8.512  0.0515 -0.0861 -0.5795
67171NA      NA 7789   9.845   6.415   8.515 -0.0281 -0.0856  0.0672
67172NA      NA 7790   9.509   3.350   4.243  0.4235  0.5159 -0.8344
67173NA      NA 7791  11.016  10.725   1.017 -0.0590  0.2263  0.0847
67174NA      NA 7792  11.090   6.445   5.689  0.1182 -0.0032 -0.1568
67175NA      NA 7793   8.933   2.951   6.723 -0.3306  0.1017  0.3742
67176NA      NA 7794   9.093   4.633   5.936 -0.6748  0.4244  0.2884
67177NA      NA 7795   8.229   5.162   5.713 -0.0715 -0.0967  0.1257
67178NA      NA 7796   9.992   2.790   4.777 -0.1821 -0.7090 -0.2739
67179NA      NA 7797  10.979   3.111   8.889 -0.1043  0.4091  0.1120
67180NA      NA 7798  10.166   6.713   5.965 -0.4067 -0.3882  0.1531
67181NA      NA 7799  10.377   6.151   5.136 -0.0314  0.0429 -0.3271
67182NA      NA 7800  11.443   6.966   1.110  0.1940 -0.4898 -0.4871
67183NA      NA 7801  10.887   6.549   5.848  0.2264 -0.0060  0.3020
67184NA      NA 7802   7.630   6.732   7.825 -0.4523 -0.1391  0.4080
67185NA      NA 7803   9.217   5.653   6.246  0.2382 -0.2798  0.2886
67186NA      NA 7804   7.333   4.028   5.399 -0.5674 -0.0930 -0.2937
67187NA      NA 7805   1.403   0.140   4.066 -0.3957 -0.8120  0.1166
67188NA      NA 7806   9.124   6.884   5.533  0.0396  0.2492  0.1219
67189NA      NA 7807   9.024   6.686   5.316  0.2272  0.0545 -0.4364
67190NA      NA 7808   9.072   5.896   6.027  0.2080 -0.6859  0.1837
67191NA      NA 7809   9.267   5.950   5.780  0.0933  0.0515  0.4194
67192NA      NA 7810  10.553   6.305   9.169  0.5785  0.5138  0.1391
67193NA      NA 7811   9.522   6.673   5.176  0.0146 -0.1044  0.3360
67194NA      NA 7812   8.504   7.304   0.976 -0.2674  0.1150  0.1000
67195NA      NA 7813   9.988   4.054   9.725 -0.0153 -0.1211  0.1382
67196NA      NA 7814   8.213   5.015   6.008  0.0367  0.5908 -0.4455
67197NA      NA 7815  10.139   6.980   6.081 -0.0610 -0.1607  0.1862
67198NA      NA 7816   8.164  12.635   8.915 -0.2027 -0.3880  0.4275
67199NA      NA 7817   9.734   5.448   4.645 -0.0288  0.0393 -0.0856
67200NA      NA 7818  11.131   4.652   4.576  0.2105  0.4154 -0.2023
67201NA      NA 7819   4.673   0.504  11.365  0.1605  0.1557  0.5878
67202NA      NA 7820   1.916   6.786  12.373 -0.1756 -0.2102 -0.3276
67203NA      NA 7821   9.344   5.773   5.991  0.2248 -0.3097  0.1666
67204NA      NA 7822  10.047   5.469   6.798 -0.6098  0.0959 -0.1416
67205NA      NA 7823   9.389   2.501   5.245 -0.1094  0.3812  0.0114
67206NA      NA 7824   8.368   1.541   4.366 -0.6496 -0.3244  0.2515
67207NA      NA 7825   8.956   6.213   9.158  0.0514 -0.0151  0.1810
67208NA      NA 7826   9.102   6.062   5.505  0.1444 -0.1088 -0.3467
67209NA      NA 7827   6.108   2.176   8.951 -0.2966 -0.1617 -0.1144
67210NA      NA 7828   5.479   5.652  10.297 -0.4590  0.1439  0.2805
67211NA      NA 7829   8.906   3.230   6.614 -0.4072 -0.4571 -0.2584
67212NA      NA 7830   0.128   9.192   4.528 -0.2008  0.2565  0.4230
67213NA      NA 7831  10.371   3.117   4.879 -0.1966 -0.2870 -0.0692
67214NA      NA 7832  11.661   4.623   8.305  0.2169 -0.0015  0.4308
67215NA      NA 7833   9.586   8.887   5.721  0.1385 -0.1285 -0.5572
67216NA      NA 7834   0.943   4.693   3.867  0.1942  0.0414 -0.4527
67217NA      NA 7835   7.347   6.802   5.979 -0.0929 -0.3911  0.3807
67218NA      NA 7836   6.478   3.972   5.697 -0.2508  0.3454  0.2640
67219NA      NA 7837  11.813   4.503   8.050  0.5403 -0.3235 -0.3633
67220NA      NA 7838  10.257   4.238   7.783 -0.0371  0.1621 -0.3684
67221NA      NA 7839  11.889   5.523   7.477  0.2698  0.4067 -0.5219
67222NA      NA 7840  10.304   4.366   7.537  0.0202 -0.1524 -0.3941
67223NA      NA 7841   7.958   7.349   6.052  0.1058  0.2540  0.5982
67224NA      NA 7842   8.366   6.703   5.431  0.3109 -0.6323  0.0008
67225NA      NA 7843  10.544   4.190   7.658  0.0007  0.2106 -0.1251
67226NA      NA 7844  10.211   2.700   5.851  0.2325 -0.2341 -0.2939
67227NA      NA 7845  10.935   4.175   6.591 -0.1861  0.2227 -0.1527
67228NA      NA 7846   9.321   2.441   5.518 -0.1129 -0.2027  0.5641
67229NA      NA 7847   9.170   2.677   5.410 -0.3655  0.3009  0.0575
67230NA      NA 7848   8.431   4.774   5.282 -0.2943 -0.1253  0.1238
67231NA      NA 7849   9.004   2.760   5.739 -0.2278 -0.1713 -0.0937
67232NA      NA 7850  11.915   3.187   8.420  0.3401  0.3197 -0.4273
67233NA      NA 7851   7.807   2.900   6.784  0.6597 -0.1719  0.3434
67234NA      NA 7852   8.481   4.541   5.118  0.5014 -0.4277  0.1030
67235NA      NA 7853   7.478   5.090   5.160  0.3551 -0.1766  0.2327
67236NA      NA 7854   6.918   4.900   6.098  0.4418  0.2284 -0.0280
67237NA      NA 7855   6.838   6.417   7.717 -0.0090 -0.0649  0.2041
67238NA      NA 7856   8.365   4.902   5.786  0.1920  0.2133  0.3848
67239NA      NA 7857   8.117   6.907   5.385  0.6200 -0.0271 -0.3478
67240NA      NA 7858  10.598   3.567  12.267  0.5204  0.3200  0.3770
67241NA      NA 7859  10.279   2.429   5.911  0.2964 -0.0147 -0.0773
67242NA      NA 7860   8.121   4.101   5.019 -0.2424  0.0713  0.2989
67243NA      NA 7861  10.974   2.541   6.736 -0.2396 -0.0261 -0.0949
67244NA      NA 7862   6.382  10.181   9.260 -0.0631  0.1283  0.3111
67245NA      NA 7863   0.321   2.278   5.578  0.1051 -0.6822 -0.3756
67246NA      NA 7864   4.025   5.755  11.108 -0.4110 -0.2905 -0.2975
67247NA      NA 7865  10.024   2.873   5.805  0.0637 -0.0959 -0.2506
67248NA      NA 7866   7.319   5.335   5.495 -0.1618  0.0510  0.3744
67249NA      NA 7867   8.638   2.078   8.149  0.8362 -0.1809  0.6055
67250NA      NA 7868   2.396  12.757  12.480  0.2167 -0.2810 -0.0047
67251NA      NA 7869   8.813   5.895   9.138  0.0804 -0.0195  0.4896
67252NA      NA 7870   2.865   2.796   3.046 -0.1804 -0.1687 -0.2921
67253NA      NA 7871  11.193   3.751   8.122 -0.1323 -0.3940  0.8402
67254NA      NA 7872  11.528   9.368   1.534 -0.4418  0.5016 -0.1851
67255NA      NA 7873   9.366   2.246   8.589 -0.0488  0.2876 -0.3736
67256NA      NA 7874  11.651   6.338   7.123  0.6490  0.1386  0.1213
67257NA      NA 7875   4.030   3.354   2.294  0.1392 -0.1888  0.6347
67258NA      NA 7876   7.277  10.415   1.894  0.3432  0.5235 -0.4589
67259NA      NA 7877   4.377   1.029   2.723  0.2711 -0.8353 -0.2836
67260NA      NA 7878   6.528   1.537   8.769  0.4572 -0.3670  0.2637
67261NA      NA 7879   7.082   5.712   6.221  0.2108  0.0822  0.1218
67262NA      NA 7880   8.436  11.332   5.125 -0.3727  0.0117  0.2299
67263NA      NA 7881   6.899   6.249   8.129  0.2647 -0.7876 -0.0746
67264NA      NA 7882  11.606   4.307   0.826 -0.2965 -0.3906  0.2477
67265NA      NA 7883   5.500   4.042  12.748  0.2268  0.0845  0.0890
67266NA      NA 7884   0.927   5.497   8.864 -0.0344  0.3318  0.2324
67267NA      NA 7885   8.210   3.898   4.788 -0.2161  0.3400 -0.7355
67268NA      NA 7886   5.312   7.237   1.695 -0.0408  0.1619  0.5876
67269NA      NA 7887   5.774   9.160   7.175  0.0565  0.2371  0.3873
67270NA      NA 7888   9.698   3.623   7.166  0.5491 -0.0131 -0.1500
67271NA      NA 7889   0.065   0.564   8.611  0.0725  0.6093  0.4040
67272NA      NA 7890  11.156   6.703   5.859 -0.1626  0.4004 -0.3245
67273NA      NA 7891   7.968   2.731   6.640 -0.2408  0.1152  0.2414
67274NA      NA 7892   9.017   2.124   5.122 -0.2477 -0.4347 -0.3999
67275NA      NA 7893   7.549   6.839   7.538  0.0204  0.1837  0.7427
67276NA      NA 7894   8.816  10.844   6.373  0.0843  0.0574 -0.2217
67277NA      NA 7895   7.985   6.591   4.501 -0.0391  0.5745  0.0414
67278NA      NA 7896   6.858   3.255   8.011  0.0987  0.6582 -0.0345
67279NA      NA 7897   7.628   1.333   8.385  0.0905  0.0153 -0.6962
67280NA      NA 7898   9.676   9.745   0.787  0.1658 -0.2098  0.1056
67281NA      NA 7899   7.461   3.773   5.530 -0.1874  0.6149 -0.5146
67282NA      NA 7900  11.058   5.634   7.318  0.4795  0.2112  0.5836
67283NA      NA 7901   8.855   6.200   8.915  0.5589 -0.5926  0.1291
67284NA      NA 7902   8.747   5.057   5.955 -0.3380  0.2138  0.7269
67285NA      NA 7903   8.467   5.173   5.942  0.1405  0.1595  0.4751
67286NA      NA 7904   7.213   2.218   6.985 -0.0414  0.1627  0.3222
67287NA      NA 7905   4.520   0.502  11.977  0.3519  0.1010  0.3919
67288NA      NA 7906   6.765   5.499   8.127  0.1277  0.5503 -0.8318
67289NA      NA 7907   9.558   8.267  11.694  0.0003  0.3646  0.4589
67290NA      NA 7908   6.941   5.023   8.087  0.5489  0.4007 -0.1419
67291NA      NA 7909   7.778   5.144   5.132 -0.0463 -0.8337 -0.1412
67292NA      NA 7910   7.354   5.482   5.745  0.5158  0.5011  0.0356
67293NA      NA 7911   9.972   6.324   8.833 -0.3918 -0.1672  0.0307
67294NA      NA 7912   7.511   2.142   7.856 -0.0696  0.5370 -0.0924
67295NA      NA 7913   6.731   5.189   8.064  0.0650  0.2980 -0.0621
67296NA      NA 7914  10.255  10.994   8.548 -0.6014  0.1532 -0.1892
67297NA      NA 7915   9.324   7.243   7.272  0.0910 -0.4135  0.3375
67298NA      NA 7916   7.346   6.719   7.745  0.3612  0.2271 -0.4867
67299NA      NA 7917   7.329   5.594   6.053 -0.5069  0.0060  0.3852
67300NA      NA 7918   7.637   7.035   6.840  0.2859  0.2175  0.1824
67301NA      NA 7919   7.027  10.720  10.063  0.0188 -0.0093  0.2264
67302NA      NA 7920   6.659   4.552   7.868 -0.1073  0.1364  0.1362
67303NA      NA 7921  10.756   9.771   9.111  0.2674  0.3808  0.2833
67304NA      NA 7922   9.357  10.705   9.362  0.3394 -0.1125 -0.0430
67305NA      NA 7923   7.805   6.819   6.973 -0.0941  0.4299  0.0016
67306NA      NA 7924   0.352  12.199   1.100 -0.2213  0.2013 -0.0181
67307NA      NA 7925   0.061   8.834   1.671  0.3035 -0.0444 -0.6076
67308NA      NA 7926   6.463   5.841   7.336  0.4298 -0.3718 -0.0102
67309NA      NA 7927   7.078   5.516   5.951 -0.2540  0.1412 -0.3806
67310NA      NA 7928   7.285   5.282   5.963 -0.1909 -0.3895  0.3242
67311NA      NA 7929   4.991  10.099   7.956  0.0995  0.3189 -0.1679
67312NA      NA 7930   8.893   1.896   8.328 -0.0305  0.1832 -0.2558
67313NA      NA 7931   7.286   6.604   5.730  0.1096 -0.6201  0.1946
67314NA      NA 7932  11.018   7.914  11.887 -0.3400 -0.1101  0.1688
67315NA      NA 7933   7.400   7.850  12.633  0.0616 -0.2634  0.2796
67316NA      NA 7934   7.766   6.705   8.117 -0.2413 -0.2466 -0.2820
67317NA      NA 7935   9.789   6.239   9.069 -0.2266  0.4732  0.0711
67318NA      NA 7936   9.787   8.196  10.032 -0.3078 -0.2273 -0.1079
67319NA      NA 7937  10.434   2.441   6.596 -0.2897  0.3421  0.9308
67320NA      NA 7938   1.999   2.156   7.313 -0.6297 -0.3784  0.0552
67321NA      NA 7939   9.750   5.740   7.757 -0.0556 -0.2610  0.2345
67322NA      NA 7940   2.468  12.340  11.472  0.2595 -0.5340  0.2338
67323NA      NA 7941  10.507   2.031   7.447  0.0726  0.2475  0.1266
67324NA      NA 7942   9.051   6.576   5.007  0.4787 -0.2642 -0.2895
67325NA      NA 7943  12.461   2.248   3.789  0.1336  0.2721  0.3109
67326NA      NA 7944   8.606   0.581   7.406 -0.1793  0.5644  0.4117
67327NA      NA 7945   6.584   3.288   8.134  0.2960  0.5631  0.5984
67328NA      NA 7946   8.893   2.190   8.250 -0.3272 -0.2251 -0.1423
67329NA      NA 7947   0.380   0.490   6.089 -0.0625  0.2198  0.1170
67330NA      NA 7948   9.739   5.439   4.375  0.6075  0.1648  0.6200
67331NA      NA 7949   8.638   2.609   6.479 -0.2401  1.2619  0.2262
67332NA      NA 7950  10.138   2.705   6.869  0.0495  0.0589 -0.1060
67333NA      NA 7951  11.385   5.179   4.445  0.0012 -0.0817  0.0952
67334NA      NA 7952   6.620   8.652  11.246  0.0145  0.0460 -0.0429
67335NA      NA 7953   4.667   2.539   6.707 -0.1621 -0.2255 -0.3367
67336NA      NA 7954   4.537   4.374   5.145  0.0915  0.2767  0.2847
67337NA      NA 7955  11.560   5.931   8.129  0.1355 -0.1213  0.1105
67338NA      NA 7956   8.612   3.206   8.504  0.4278  0.3220  0.0877
67339NA      NA 7957   7.443   2.118   7.241 -0.2685 -0.0522 -0.0664
67340NA      NA 7958   9.078   3.198   8.530  0.6609 -0.2305 -0.2162
67341NA      NA 7959   9.270   8.817  12.666 -0.3138  0.2019 -0.2816
67342NA      NA 7960   7.048   8.611   3.211  0.6985  0.2648  0.2096
67343NA      NA 7961  12.166   5.965   9.328 -0.1258  0.5304 -0.4002
67344NA      NA 7962   9.101   2.239   8.730 -0.0277 -0.0379 -0.0886
67345NA      NA 7963   0.130   4.962   4.477 -0.3634 -0.4638  0.6487
67346NA      NA 7964   5.291   5.326   1.950  0.6392 -0.3984  0.6562
67347NA      NA 7965   8.887   3.162   6.908  0.0678 -0.1421  0.4945
67348NA      NA 7966   9.393   5.061   8.519 -0.2175  0.7378  0.2929
67349NA      NA 7967   1.575  10.671  10.109 -0.1046  0.4273  0.1374
67350NA      NA 7968   9.370   0.473   7.817 -0.1689 -0.2498  0.4012
67351NA      NA 7969   0.716  10.322   7.689  0.3938  0.4991 -0.3774
67352NA      NA 7970   8.088   6.633   8.168 -0.0628  1.1370 -0.0217
67353NA      NA 7971   7.244   3.709   7.531  0.0957 -0.0213 -0.5902
67354NA      NA 7972   4.474  11.576   5.441  0.0032  0.0398 -0.1704
67355NA      NA 7973   9.990   4.822   3.954 -0.6502  0.0566  0.4083
67356NA      NA 7974   7.062   6.709   7.784  0.4720 -0.1333  0.2394
67357NA      NA 7975   6.603   0.103  10.362  0.0961  0.0736  0.0713
67358NA      NA 7976  10.379   4.695   7.538 -0.1806  0.5360  0.2931
67359NA      NA 7977   4.083   8.491   4.283  0.4643 -0.2946 -0.1404
67360NA      NA 7978   8.707   2.968   6.482  0.0872  0.3942 -0.1289
67361NA      NA 7979   7.920   6.696   8.379  0.0031  0.1977 -0.8145
67362NA      NA 7980   7.555   6.784   8.294  0.7614  0.4462  0.1531
67363NA      NA 7981  12.755   7.497   1.544  0.2941  0.6759  0.1085
67364NA      NA 7982   6.878   4.156   7.580 -0.0282 -0.2253  0.2951
67365NA      NA 7983   4.954   1.504   5.964  0.3009  0.1478 -0.7353
67366NA      NA 7984   7.615   2.119   7.571 -0.1323 -0.2867  0.0889
67367NA      NA 7985   9.481   5.837   7.750  0.0136 -0.1254  0.3912
67368NA      NA 7986  10.673   9.115   1.582 -0.4376  0.4427  0.0187
67369NA      NA 7987   8.211   7.482   6.135  0.6186 -0.2293 -0.0037
67370NA      NA 7988   7.321   6.016   8.451 -0.0834 -0.0083  0.2703
67371NA      NA 7989  11.062  10.152   9.678 -0.1217 -0.2342  0.3217
67372NA      NA 7990  11.543   5.487   7.501  0.5207  0.2905 -0.2552
67373NA      NA 7991  11.054   1.200   3.200  0.3186  0.0563 -0.1798
67374NA      NA 7992   9.090   4.863   2.906 -0.3984 -0.1431  0.0354
67375NA      NA 7993   6.972   5.803   5.973  0.5377 -0.0075 -0.2934
67376NA      NA 7994   9.075   2.433   5.293  0.0330 -0.0489  0.1090
67377NA      NA 7995  10.439   4.976   3.924  0.0685  0.1500  0.5273
67378NA      NA 7996   7.874   7.310   5.655 -0.3694 -0.0331 -0.1254
67379NA      NA 7997   6.719   4.626   8.166  0.3392  0.3021 -0.3027
67380NA      NA 7998   7.144  12.385   4.365  0.7186 -0.3435 -0.1344
67381NA      NA 7999  11.162   3.854   8.508  0.1003 -0.2149 -0.0916
67382NA      NA 8000   5.364   5.009   6.015 -0.3319  0.5772  0.2260
67383NA      NA 8001  11.126   3.480   8.198  0.1889  0.0776 -0.0720
67384NA      NA 8002   1.210   3.057   5.423  0.5301 -0.1573  0.0857
67385NA      NA 8003   8.365   4.162   4.174  0.4294  0.0274  0.2038
67386NA      NA 8004   1.490   4.368   8.197  0.1007  0.5703  0.1423
67387NA      NA 8005   9.167   3.370   6.505  0.2397  0.2328 -0.0555
67388NA      NA 8006   9.913   7.236  12.506  0.3673 -0.1016  0.5497
67389NA      NA 8007   7.775   7.168   6.190  0.0491 -0.1290  0.0694
67390NA      NA 8008  10.472   4.815   4.179  0.2425  0.1439  0.3853
67391NA      NA 8009  11.002   0.187   2.026 -0.5464  0.7178  0.1434
67392NA      NA 8010  10.061   3.106   4.939 -0.0146  0.3087 -0.0831
67393NA      NA 8011   9.436   1.299   9.110 -0.2799  0.5299  0.0984
67394NA      NA 8012  12.700   7.928   5.505  0.1869 -0.2189 -0.1030
67395NA      NA 8013   2.841   5.820   1.404 -0.1290 -0.3055 -0.8045
67396NA      NA 8014  10.428   2.538   6.931  0.2851  0.1332 -0.2827
67397NA      NA 8015   1.310   9.263   8.520 -0.5743 -0.1368 -0.0958
67398NA      NA 8016   8.963   2.367   8.500 -0.9779 -0.0191  0.1978
67399NA      NA 8017   6.729   6.180   7.590  0.2666 -0.0354  0.1283
67400NA      NA 8018  11.407   6.608   6.108 -0.1727 -0.1801 -0.3441
67401NA      NA 8019   5.145   8.487   6.533  0.1996 -0.2238  0.2616
67402NA      NA 8020  11.898   5.974   4.903  0.2553 -0.1761  0.1101
67403NA      NA 8021  11.047   5.915   8.928  0.1095 -0.2691  0.4338
67404NA      NA 8022   5.871   2.631   3.772  0.4362 -0.4118 -0.2016
67405NA      NA 8023   6.816   2.592   7.017 -0.0507 -0.0760  0.4080
67406NA      NA 8024   8.103   7.177   5.400 -0.3173  0.0297 -0.2262
67407NA      NA 8025   1.962   8.521   8.340  0.0463 -0.3105  0.1136
67408NA      NA 8026   8.923   1.883   7.192  0.1043 -0.8152 -0.4155
67409NA      NA 8027  11.423   9.541   5.226 -0.0671 -0.1371 -0.0211
67410NA      NA 8028   8.260   2.513   6.529 -0.0524  0.2356 -0.0144
67411NA      NA 8029   7.270   3.895   7.762 -0.1373  0.2061  0.0564
67412NA      NA 8030   0.305   1.738  11.501  0.0966  0.1535 -0.3468
67413NA      NA 8031   9.013   3.619   3.416 -0.3272  0.9924 -0.2294
67414NA      NA 8032   8.872   3.086   8.340 -0.5083 -0.3116  0.0010
67415NA      NA 8033  11.345   5.578   7.280  0.3299 -0.1447  0.4652
67416NA      NA 8034  10.677   2.928   5.498 -0.3381  0.0020 -0.2759
67417NA      NA 8035  11.341   8.913   0.597  0.1000 -0.4905 -0.6288
67418NA      NA 8036  10.987   3.951   7.934  0.1025  0.1421 -0.0043
67419NA      NA 8037   3.358   7.886   6.489 -0.1327  1.0088 -0.0582
67420NA      NA 8038   7.888   2.979   7.062 -0.6157 -0.8595  0.0190
67421NA      NA 8039   9.907   3.448   7.073  0.1842 -0.1840  0.2678
67422NA      NA 8040   6.988   5.324   7.993  0.3106  0.0489  0.8268
67423NA      NA 8041   7.257   3.628   7.864 -0.0332  0.4596 -0.7768
67424NA      NA 8042   2.108   2.096   1.767  0.3177 -0.0430  0.3305
67425NA      NA 8043   6.999   5.241   6.018  0.2110  0.1652 -0.3163
67426NA      NA 8044   3.511   7.343  10.682  0.3698 -0.3432  0.0060
67427NA      NA 8045   2.928   2.090   0.587  0.2236 -0.1656 -0.1722
67428NA      NA 8046  10.369   1.812   7.673 -0.3266 -0.3951 -0.1626
67429NA      NA 8047   8.601   2.080   7.859  0.0934  0.2814 -0.4645
67430NA      NA 8048   7.538  11.041   2.529 -0.0284  0.5714 -0.4232
67431NA      NA 8049  10.125  12.050   8.821 -0.4511  0.1684 -0.3034
67432NA      NA 8050   7.894   2.019   3.148  0.2391 -0.6308  0.2720
67433NA      NA 8051   7.342   4.115   7.976  0.0898  0.1116 -0.6680
67434NA      NA 8052   6.218   4.405   8.179  0.0009 -0.5719  0.1113
67435NA      NA 8053  10.019   2.682   5.577  0.0879  0.4464  0.1310
67436NA      NA 8054  11.578   6.088   5.058  0.0815 -0.3101  0.3252
67437NA      NA 8055   8.889   2.190   7.295  0.3454 -0.1353 -0.4345
67438NA      NA 8056   6.508   1.238   5.837  0.5951 -0.1145 -0.1092
67439NA      NA 8057   7.460   3.741   6.882  0.4044  0.0946 -0.4879
67440NA      NA 8058   6.764   4.380   7.393  0.5051 -0.5895  0.0734
67441NA      NA 8059   1.576  11.624   5.945  0.1675 -0.2819  0.5279
67442NA      NA 8060  10.780   3.191   9.083 -0.0969  0.7967 -0.5853
67443NA      NA 8061   9.935   6.036   8.879  0.5200 -0.3321 -0.3038
67444NA      NA 8062   3.408  11.802  10.869  0.1763  0.5362  0.3954
67445NA      NA 8063   3.684   9.325  12.140 -0.4920  0.0616 -0.2778
67446NA      NA 8064  12.580   1.899   9.664 -0.1087  0.5007  0.0830
67447NA      NA 8065   9.868   3.043   8.759 -0.0962 -0.0383 -0.4105
67448NA      NA 8066   8.485   1.953   5.434  0.2023  0.3963 -0.0851
67449NA      NA 8067   4.381   8.658   1.366 -0.1971  0.0047 -0.6118
67450NA      NA 8068  10.946   6.245   8.867  0.0335  0.2920  0.4351
67451NA      NA 8069   9.960   3.223   4.087  0.0640 -0.0693  0.6098
67452NA      NA 8070   7.564  10.013   5.570 -0.1370 -0.3586  0.3736
67453NA      NA 8071   6.930   2.619  11.547  0.0813 -0.1007 -0.5962
67454NA      NA 8072   9.684   2.471   4.530  0.5103 -0.2000 -0.1876
67455NA      NA 8073  10.474   2.736   5.721 -0.2140 -0.3612  0.0597
67456NA      NA 8074   1.535   7.110   9.181 -0.1068  0.3075 -0.0794
67457CL      CL 8075  10.065   8.307   3.619  0.2976 -0.0505 -0.3817
67458CL      CL 8076   5.799   3.662  12.090 -0.2000  0.2897  0.2163
67459CL      CL 8077  11.221   9.919   0.450 -0.1560  0.6334 -0.4320
67460CL      CL 8078   0.249   8.247   0.840  0.2229  0.1005  0.0259
67461CL      CL 8079  12.538  11.931   4.916 -0.1912  0.0639 -0.0695
67462CL      CL 8080   8.709   1.748   4.344  0.1991 -0.3311  0.4051
67463CL      CL 8081   6.036  11.722   3.768 -0.1655  0.0473 -0.1896
67464CL      CL 8082   4.767   5.677   9.286 -0.0640 -0.0534  0.2543
67465CL      CL 8083  12.269   0.794  12.037 -0.5373 -0.7598  0.3126
67466CL      CL 8084   8.786  11.317   9.763 -0.1637 -0.2386  0.1030
67467CL      CL 8085   1.148   6.005   4.713  0.0672  0.1590 -0.4522
67468CL      CL 8086   0.599   9.874  11.031 -0.1827  0.1776  0.2167
67469CL      CL 8087  10.286   9.467   6.570  0.5912  0.0644  0.2320
67470CL      CL 8088   1.923   3.888   7.968  0.2839 -0.5309 -0.1647
67471CL      CL 8089  11.754  11.117  10.677 -0.3126  0.2842  0.1976
67472CL      CL 8090   0.324   9.150   4.654 -0.1767 -0.2159 -0.3470
67473CL      CL 8091   3.286  11.843   5.697  0.2317 -0.1606 -0.1101
67474CL      CL 8092  12.094   3.002   3.385 -0.0733 -0.1613  0.1106
67475CL      CL 8093   2.407   2.883   5.287 -0.0580 -0.3355  0.0357
67476CL      CL 8094   0.979   1.405   9.103 -0.2057 -0.5506 -0.1346
67477CL      CL 8095   7.268   9.815   6.358  0.0680  0.4684  0.4186
67478CL      CL 8096   6.815   6.222   4.106  0.3736  0.1683 -0.2985
67479CL      CL 8097   5.032   3.726  10.081  0.0524  0.0454  0.7002
67480CL      CL 8098   4.463   0.226   3.081 -0.0967 -0.1065  0.0367
67481CL      CL 8099   6.342   6.184   6.672  0.0938  0.2498 -0.4866
67482CL      CL 8100   8.605   1.394   3.962 -0.4456  0.2351 -0.4243
67483CL      CL 8101   6.388   7.581   4.874 -0.1668 -0.5486 -0.2543
67484CL      CL 8102   4.431  11.745   9.667  0.3484 -0.4005  0.3011
67485CL      CL 8103   9.838  11.428   2.991 -0.0817  0.2120 -0.3234
67486CL      CL 8104   6.821   7.354  12.383 -0.2766 -0.1948  0.1638
67487CL      CL 8105   9.700   6.992   7.281 -0.0108 -0.4902  0.2963
67488CL      CL 8106   0.414   1.417   4.251 -0.5714 -0.1789 -0.0435
67489CL      CL 8107   9.916   0.119  12.129 -0.0583 -0.0047  0.1127
67490CL      CL 8108   4.096  10.509   6.760 -0.2189  0.1017  0.4179
67491CL      CL 8109  11.007  10.538  12.553  0.0785  0.2158 -0.2464
67492CL      CL 8110   9.845   9.579  11.007  0.2271  0.1090  0.2306
67493CL      CL 8111  10.138   0.182   2.619 -0.1030 -0.1196 -0.3534
67494CL      CL 8112   1.314   2.981   0.873 -0.5393 -0.1182  0.1190
67495CL      CL 8113   1.931   3.524   9.196  0.0026 -0.0475  0.0390
67496CL      CL 8114   1.506  12.240   7.579 -0.0385 -0.0444 -0.1106
67497CL      CL 8115   6.371   8.666  11.646 -0.0335 -0.0204  0.1400
67498CL      CL 8116   3.311   9.796   1.440 -0.3119 -0.0479 -0.0791
67499CL      CL 8117  12.689   4.083   0.096  0.0231  0.2549  0.3253
67500CL      CL 8118   8.247   4.401   2.050 -0.2978  0.1930  0.0446
67501CL      CL 8119   7.850   9.520   1.059  0.6065  0.1299 -0.5548
67502CL      CL 8120   3.903  11.196  12.399 -0.2862 -0.3417 -0.1827
67503CL      CL 8121   3.215   6.706   4.759 -0.3306 -0.0125  0.4092
67504CL      CL 8122   7.326   6.873   8.315  0.0031 -0.4154  0.0683
67505CL      CL 8123   5.357   1.563   6.920 -0.0000 -0.2948 -0.0270
67506CL      CL 8124   9.402   1.493   1.907 -0.2060 -0.5054 -0.1083
67507CL      CL 8125   7.133   5.297   0.214  0.1140 -0.0133  0.3731
67508CL      CL 8126   2.021  10.103   9.358 -0.5164 -0.4030 -0.2112
67509CL      CL 8127  11.115   2.155   2.884 -0.2087 -0.4591 -0.1514
67510CL      CL 8128   6.104   2.543   6.199  0.0282 -0.1991  0.0671
67511CL      CL 8129   4.164   0.615  10.099  0.0731  0.2502  0.4409
67512CL      CL 8130  11.933   7.409   7.856  0.1250 -0.1806  0.3571
67513CL      CL 8131   1.683   2.661  11.948  0.3767 -0.2104 -0.3711
67514CL      CL 8132   4.346   3.983   3.838 -0.0301 -0.0522 -0.0461
67515CL      CL 8133  10.669  12.154   5.015  0.1489 -0.1504 -0.3666
67516CL      CL 8134   9.411   0.232   4.898  0.1631  0.0316  0.4063
67517CL      CL 8135   7.676   2.973   1.982  0.0276  0.2292 -0.4652
67518CL      CL 8136   6.286   8.366   5.748 -0.0041  0.1106 -0.1599
67519CL      CL 8137   5.650   7.760   6.862  0.1585 -0.1149 -0.3494
67520CL      CL 8138   0.150   4.459   4.110 -0.1952 -0.1368 -0.2052
67521CL      CL 8139   9.428   9.224  12.709  0.4996 -0.1855  0.3020
67522CL      CL 8140   5.426   2.396   3.550 -0.1431 -0.1399  0.0759
67523CL      CL 8141   2.597   0.464   7.002  0.0187 -0.3841  0.0092
67524CL      CL 8142   6.148  10.904  10.456  0.1588 -0.1668 -0.0145
67525CL      CL 8143   0.872  12.485   8.561 -0.1184 -0.3727  0.2397
67526CL      CL 8144   4.928  11.890   4.680  0.1811  0.0565 -0.4598
67527CL      CL 8145   9.943  12.166   8.729  0.5607  0.2460  0.0967
67528CL      CL 8146   6.516   6.496   2.852  0.1918  0.3084 -0.5002
67529CL      CL 8147   8.213   0.838   0.894  0.1275  0.1703  0.0661
67530CL      CL 8148   9.445   8.211   7.348  0.1255  0.2237 -0.1424
67531CL      CL 8149   7.333  11.870   9.956 -0.1438  0.0727  0.4573
67532CL      CL 8150   4.542   0.400  11.163  0.1337 -0.1304  0.0294
67533CL      CL 8151  10.763   0.868   1.596  0.2642  0.5237  0.4327
67534CL      CL 8152  10.449   8.359   8.639  0.3867 -0.2213 -0.2545
67535CL      CL 8153   7.869   2.864   4.933  0.3320 -0.1737 -0.6845
67536CL      CL 8154  10.998   5.998   9.177  0.0820 -0.0677 -0.0125
67537CL      CL 8155   3.399   4.639   3.014  0.6397 -0.1940 -0.1103
67538CL      CL 8156  11.850   2.543   9.520  0.2168  0.4703 -0.6299
67539CL      CL 8157   1.427   3.849   5.168  0.4696  0.1781  0.2683
67540CL      CL 8158   5.021   7.865  11.275 -0.1139  0.0123 -0.3335
67541CL      CL 8159   9.741   6.907   8.003  0.3676 -0.2702 -0.1424
67542CL      CL 8160  10.828   8.903  12.025 -0.0851  0.1709  0.5065
67543CL      CL 8161  12.169   5.596   8.210 -0.1600 -0.2608 -0.1768
67544CL      CL 8162   1.318   7.043  10.476 -0.0213 -0.2897 -0.2323
67545CL      CL 8163  11.393   0.821  11.063  0.2457 -0.2142  0.3122
67546CL      CL 8164   4.623   5.904   8.736 -0.0463 -0.0120  0.2004
67547CL      CL 8165   0.252   0.287   6.154  0.1153  0.1303 -0.1272
67548CL      CL 8166   7.802   5.464   8.976  0.0336  0.0922 -0.1793
67549CL      CL 8167  10.329  10.253   9.535 -0.1232  0.2920  0.2006
67550CL      CL 8168   1.693  10.215  12.588  0.2570  0.3441 -0.0134
67551CL      CL 8169  11.881   1.996   6.282  0.3554 -0.3426  0.0686
67552CL      CL 8170   5.876  10.990  11.493  0.2214 -0.2049 -0.2577
67553CL      CL 8171   1.814   2.831   1.407 -0.2187  0.2940 -0.3506
67554CL      CL 8172   1.541  10.162   4.160  0.1537 -0.1939  0.0698
67555CL      CL 8173   9.282   7.600  11.303 -0.0891  0.3832  0.2790
67556CL      CL 8174   6.658  12.253   4.411  0.3103 -0.0293  0.1351
67557CL      CL 8175   6.460   5.456   9.431  0.0837 -0.3719 -0.2850
67558CL      CL 8176  12.003   5.023   3.889 -0.1332 -0.3656 -0.0588
67559CL      CL 8177  11.981   2.592   0.155  0.1510 -0.3371 -0.2858
67560CL      CL 8178   4.561   7.862  10.414 -0.0304 -0.5419  0.0399
67561CL      CL 8179   1.319   5.888   6.469 -0.0501 -0.2161 -0.2411
67562CL      CL 8180   0.556   1.921   3.653  0.1029 -0.1783 -0.3990
67563CL      CL 8181   6.212   4.970  12.415 -0.2351  0.3322  0.1577
67564CL      CL 8182   3.363  12.672   4.098 -0.0881  0.2944  0.1781
67565CL      CL 8183  11.091   0.285   8.828  0.0125 -0.2156  0.0641
67566CL      CL 8184   4.073  12.442   7.129  0.1676 -0.0376 -0.4321
67567CL      CL 8185   3.248   7.673   1.301  0.3929  0.1657  0.2038
67568CL      CL 8186   0.287   4.747   3.661  0.0884 -0.2706  0.3927
67569CL      CL 8187   4.559   5.654   7.590 -0.2804  0.2920 -0.1317
67570CL      CL 8188   8.001  10.290   4.771  0.1842  0.0344  0.1254
67571CL      CL 8189   9.588   7.440   9.779  0.1092 -0.2820  0.2345
67572CL      CL 8190  12.602   3.151   4.451  0.2985  0.4319 -0.1151
67573CL      CL 8191   3.869   7.131   5.411  0.6623 -0.1070  0.3187
67574CL      CL 8192   5.631   4.391   4.105 -0.2124 -0.3725  0.0768
67575CL      CL 8193  12.670   1.783   2.602 -0.4232  0.0359  0.3276
67576CL      CL 8194   9.086   5.406   2.026 -0.2215  0.1110  0.2316
67577CL      CL 8195   6.648   8.501   4.528 -0.2749 -0.1002  0.2410
67578CL      CL 8196   0.828   7.446   3.223 -0.1822  0.3487 -0.0854
67579CL      CL 8197  10.258   2.336   5.057 -0.0141  0.0587  0.2338
67580CL      CL 8198   0.228  10.200   0.365 -0.2666  0.2936  0.1616
67581CL      CL 8199   7.701  11.188   5.494  0.0185 -0.6366 -0.3172
67582CL      CL 8200  10.009   7.449  12.437 -0.0346  0.0556  0.0085
67583CL      CL 8201   6.051   9.770   8.271 -0.0065 -0.3190 -0.1376
67584CL      CL 8202   5.899   7.472   1.327 -0.3055 -0.3281  0.0921
67585CL      CL 8203  11.875   0.498   5.245 -0.2579  0.2707  0.3471
67586CL      CL 8204   7.517  11.456   4.363 -0.2093  0.0498  0.1849
67587CL      CL 8205  12.115   5.644   2.993 -0.2089  0.2734 -0.0510
67588CL      CL 8206   7.056   0.801   9.814  0.4839 -0.2119  0.1579
67589CL      CL 8207  10.687   5.824   1.718 -0.6510 -0.2745 -0.3534
67590CL      CL 8208   9.976   0.113  11.101 -0.4588 -0.4228  0.0506
67591CL      CL 8209   9.265   0.715   6.832  0.0279 -0.6659 -0.1133
67592CL      CL 8210   6.811   0.583   8.994  0.1462  0.0079  0.5906
67593CL      CL 8211   2.794  10.179  11.606 -0.3974  0.3434  0.0012
67594CL      CL 8212   2.452  12.599  12.304  0.3189  0.1164  0.0817
67595CL      CL 8213   2.699   9.410   6.428  0.3874  0.1454  0.0999
67596CL      CL 8214   5.409   9.280   5.994 -0.3955 -0.2907 -0.1158
67597CL      CL 8215   4.578  11.769   5.342  0.1616 -0.0639  0.0045
67598CL      CL 8216   5.170  11.396  11.084 -0.2019  0.0582  0.1364
67599CL      CL 8217   6.141   6.886   3.558 -0.0978  0.0256  0.4563
67600CL      CL 8218  10.427   5.701  10.105  0.1488 -0.4707 -0.6017
67601CL      CL 8219  11.215   3.153  10.694  0.3795 -0.0523  0.5082
67602CL      CL 8220   5.896   1.890   0.939  0.2795  0.0599  0.4414
67603CL      CL 8221   6.341   3.715   5.026  0.2316 -0.0870  0.2596
67604CL      CL 8222   6.317   1.846  11.603  0.4668  0.0894  0.1206
67605CL      CL 8223   9.958   3.973   8.843  0.3065  0.1863 -0.3976
67606CL      CL 8224   9.842  10.360   4.275  0.6574  0.1166  0.0277
67607CL      CL 8225  12.504   8.011   8.569 -0.0565 -0.0252 -0.1915
67608CL      CL 8226   6.410   8.667   7.633 -0.2209 -0.1719  0.2511
67609CL      CL 8227  11.688  10.941  12.092 -0.1089 -0.0593  0.4798
67610CL      CL 8228   0.282   2.308   6.933  0.5601  0.0105 -0.1162
67611CL      CL 8229   8.028   9.879   9.337  0.3091  0.2903 -0.0294
67612CL      CL 8230   0.101  10.056   3.257 -0.2925 -0.1579 -0.0610
67613CL      CL 8231   7.058   1.626  11.484 -0.1116  0.0668  0.0488
67614CL      CL 8232   4.555   2.181   2.946 -0.4969 -0.5022 -0.3371
67615CL      CL 8233  12.150   9.153   5.120  0.0125 -0.2677  0.2656
67616CL      CL 8234   1.453   7.741   0.638 -0.2884 -0.3345 -0.1390
67617CL      CL 8235   9.745   2.172   4.163  0.0789 -0.1507 -0.2192
67618CL      CL 8236   7.012   4.327   4.407 -0.5960  0.0394 -0.1239
67619CL      CL 8237  10.140   7.170   0.162  0.0555  0.0893 -0.0796
67620CL      CL 8238   6.668  11.542   8.528  0.2185 -0.5291 -0.2158
67621CL      CL 8239  11.147   8.641   5.005  0.2921 -0.0186 -0.0844
67622CL      CL 8240   1.791   9.108  11.084  0.3505  0.1250 -0.6079
67623CL      CL 8241   3.477   8.312   2.446  0.9459  0.1138  0.0593
67624CL      CL 8242   8.870   8.952   5.400  0.2023  0.0392 -0.0560
67625CL      CL 8243   0.361   1.407  10.607  0.0903  0.0241 -0.2737
67626CL      CL 8244  12.328   8.607   2.588  0.0407 -0.1816  0.3028
67627CL      CL 8245   5.486   5.659  10.536 -0.2152  0.0499 -0.0901
67628CL      CL 8246   5.585   1.826   8.725 -0.1730 -0.3716 -0.2560
67629CL      CL 8247   9.162   2.155  12.633  0.1740  0.0301 -0.4831
67630CL      CL 8248   5.674   9.361   0.013  0.1099  0.3387 -0.0552
67631CL      CL 8249  10.666   7.056  10.393 -0.1139 -0.1736 -0.1376
67632CL      CL 8250  10.762   2.722   9.819 -0.1520  0.1703 -0.1962
67633CL      CL 8251   3.744   7.986   8.879  0.0487 -0.0610  0.0593
67634CL      CL 8252   4.298   0.568   1.719 -0.0079  0.2871  0.1565
67635CL      CL 8253   7.477   7.650   8.421 -0.2923 -0.2065 -0.1801
67636CL      CL 8254  11.334   7.965  10.379  0.1722  0.1875 -0.1090
67637CL      CL 8255   3.562  12.698   2.868  0.4270 -0.3175  0.4359
67638CL      CL 8256  11.568   7.323   1.272  0.3475 -0.0567  0.1149
67639CL      CL 8257   5.343   0.015  11.058 -0.1414 -0.0733 -0.2997
67640CL      CL 8258   0.213   4.959   7.260  0.1984  0.4230 -0.1843
67641CL      CL 8259  10.302   0.044  12.723  0.2535  0.0306 -0.4754
67642CL      CL 8260   2.757  12.187   8.671  0.3621  0.0959 -0.1119
67643CL      CL 8261  11.487   9.592   1.641 -0.1322  0.0277  0.0639
67644CL      CL 8262   5.066   4.723   0.331 -0.1197  0.5706 -0.1406
67645CL      CL 8263   1.629   9.966   3.054  0.0821  0.1437  0.1118
67646CL      CL 8264   4.003   3.158   9.155  0.0126  0.2811  0.6236
67647CL      CL 8265   4.919   3.826   1.197  0.2211  0.3850 -0.3281
67648CL      CL 8266   4.288   7.359   6.556  0.1241 -0.0379  0.1647
67649CL      CL 8267  10.190  11.621   8.905 -0.4151  0.0710  0.2972
67650CL      CL 8268   7.303   4.132   9.815  0.2252  0.5073  0.5095
  12.78801  12.78801  12.78801
